BDT dimerization
205661
    1BDT   BNZ1    1   1.023  13.894  22.726 -0.0330  0.0057  0.1769
    1BDT   BNZ2    2   1.010  14.044  22.622 -0.1281 -0.0702  0.0782
    1BDT   BNZ3    3   0.964  14.097  22.864 -0.2344  0.0466  0.0333
    1BDT    BS1    4   0.982  13.926  22.960 -0.1205  0.1214  0.1459
    1BDT    BS2    5   0.954  14.248  22.737 -0.3238 -0.0429 -0.0649
    2BDT   BNZ1    6  11.337  17.752  18.865 -0.0029 -0.0456  0.1105
    2BDT   BNZ2    7  11.350  17.635  18.726 -0.1026  0.1398 -0.0580
    2BDT   BNZ3    8  11.317  17.514  18.945  0.3763 -0.1678 -0.1486
    2BDT    BS1    9  11.305  17.654  19.082  0.4508 -0.3492  0.0383
    2BDT    BS2   10  11.333  17.402  18.783  0.2350  0.0519 -0.3198
    3BDT   BNZ1   11  21.525  15.869   5.364  0.1657 -0.0486 -0.0144
    3BDT   BNZ2   12  21.355  15.928   5.398  0.1980 -0.0409  0.1399
    3BDT   BNZ3   13  21.423  15.977   5.160  0.1083  0.2586  0.1729
    3BDT    BS1   14  21.607  15.907   5.141  0.0791  0.2264  0.0013
    3BDT    BS2   15  21.242  16.034   5.214  0.1501  0.2412  0.3317
    4BDT   BNZ1   16  14.429   2.532  22.273  0.0394  0.1533  0.0322
    4BDT   BNZ2   17  14.384   2.366  22.335  0.1083  0.0627 -0.1549
    4BDT   BNZ3   18  14.583   2.459  22.458 -0.0646  0.1035  0.0997
    4BDT    BS1   19  14.618   2.636  22.379 -0.1294  0.1971  0.2885
    4BDT    BS2   20  14.520   2.280  22.513  0.0197  0.0051 -0.1146
    5BDT   BNZ1   21   0.469  12.997  27.543  0.0734 -0.0303  0.2827
    5BDT   BNZ2   22   0.624  13.081  27.591  0.0592  0.1515  0.0185
    5BDT   BNZ3   23   0.543  13.160  27.366 -0.2209 -0.2113 -0.0121
    5BDT    BS1   24   0.376  13.061  27.331 -0.1798 -0.3850  0.2878
    5BDT    BS2   25   0.710  13.240  27.433 -0.2142  0.0035 -0.2801
    6BDT   BNZ1   26   1.414  20.688   4.860  0.2739 -0.1250 -0.0855
    6BDT   BNZ2   27   1.364  20.767   5.017  0.2662  0.1253 -0.2115
    6BDT   BNZ3   28   1.184  20.614   4.931  0.3574 -0.1808  0.1303
    6BDT    BS1   29   1.253  20.538   4.763  0.3588 -0.4303  0.2506
    6BDT    BS2   30   1.147  20.708   5.100  0.3432  0.1053 -0.0252
    7BDT   BNZ1   31  22.374  25.427  28.268 -0.1490 -0.1096  0.0392
    7BDT   BNZ2   32  22.242  25.395  28.391 -0.1725 -0.0368  0.0330
    7BDT   BNZ3   33  22.147  25.415  28.158 -0.1395 -0.0783  0.0163
    7BDT    BS1   34  22.301  25.449  28.040 -0.1157 -0.1558  0.0240
    7BDT    BS2   35  22.019  25.379  28.304 -0.1665  0.0004  0.0111
    8BDT   BNZ1   36  19.002   9.050   6.023 -0.1356 -0.0526  0.1791
    8BDT   BNZ2   37  18.839   8.965   6.029 -0.2704  0.1971  0.1090
    8BDT   BNZ3   38  18.826   9.196   6.129  0.0691  0.1789  0.2031
    8BDT    BS1   39  19.007   9.272   6.115  0.1890 -0.1004  0.2729
    8BDT    BS2   40  18.659   9.090   6.126 -0.0967  0.4373  0.1221
    9BDT   BNZ1   41   5.703  20.567   9.738  0.3099  0.3844 -0.2311
    9BDT   BNZ2   42   5.826  20.441   9.790 -0.0269  0.1457  0.0117
    9BDT   BNZ3   43   5.880  20.668   9.885  0.1622  0.0186  0.2103
    9BDT    BS1   44   5.740  20.790   9.820  0.5220  0.2888 -0.0752
    9BDT    BS2   45   6.003  20.520   9.931 -0.2098 -0.2132  0.4407
   10BDT   BNZ1   46  26.346  11.674  22.501 -0.3417 -0.0941 -0.1603
   10BDT   BNZ2   47  26.190  11.690  22.406 -0.4466  0.3294  0.0719
   10BDT   BNZ3   48  26.369  11.840  22.313 -0.1692 -0.1528 -0.1910
   10BDT    BS1   49  26.528  11.811  22.425 -0.0918 -0.5857 -0.4366
   10BDT    BS2   50  26.194  11.845  22.222 -0.3056  0.3231  0.0696
   11BDT   BNZ1   51  11.781   8.348   5.569  0.1602  0.0083 -0.0956
   11BDT   BNZ2   52  11.767   8.521   5.510 -0.2821  0.0164  0.0168
   11BDT   BNZ3   53  11.866   8.510   5.742  0.2713  0.0724 -0.2091
   11BDT    BS1   54  11.874   8.319   5.789  0.7170  0.0745 -0.3244
   11BDT    BS2   55  11.843   8.689   5.663 -0.2327  0.0801 -0.0786
   12BDT   BNZ1   56   7.128  22.972  18.680  0.2621  0.2411 -0.1336
   12BDT   BNZ2   57   6.985  23.047  18.764  0.1572  0.0465 -0.1359
   12BDT   BNZ3   58   7.181  23.204  18.761  0.1510  0.0779  0.4283
   12BDT    BS1   59   7.326  23.109  18.667  0.2635  0.2868  0.3869
   12BDT    BS2   60   7.017  23.269  18.849  0.0407 -0.1314  0.3784
   13BDT   BNZ1   61  22.510   8.868  14.026 -0.1233  0.1147  0.1703
   13BDT   BNZ2   62  22.538   9.008  14.139  0.0453  0.1778  0.0528
   13BDT   BNZ3   63  22.356   9.060  13.973 -0.1222  0.1288  0.2195
   13BDT    BS1   64  22.339   8.900  13.860 -0.2957  0.0651  0.3391
   13BDT    BS2   65  22.400   9.202  14.104  0.0659  0.1984  0.0848
   14BDT   BNZ1   66  13.524  18.547  26.300 -0.1319  0.0421  0.0886
   14BDT   BNZ2   67  13.453  18.495  26.460 -0.0372 -0.2887  0.0279
   14BDT   BNZ3   68  13.669  18.621  26.492 -0.1745 -0.0847  0.1702
   14BDT    BS1   69  13.732  18.668  26.311 -0.2719  0.2645  0.2322
   14BDT    BS2   70  13.578  18.557  26.655 -0.0656 -0.4434  0.0950
   15BDT   BNZ1   71  11.142  23.408  11.646 -0.1014 -0.1326 -0.1659
   15BDT   BNZ2   72  10.978  23.435  11.569  0.0020  0.0713 -0.3211
   15BDT   BNZ3   73  11.122  23.641  11.551  0.0502  0.1119  0.3863
   15BDT    BS1   74  11.293  23.595  11.637 -0.0758 -0.1243  0.5034
   15BDT    BS2   75  10.941  23.652  11.474  0.1495  0.3121  0.1696
   16BDT   BNZ1   76  15.662  20.216  26.273 -0.1325  0.0224  0.2875
   16BDT   BNZ2   77  15.798  20.181  26.391  0.0404 -0.2154  0.0217
   16BDT   BNZ3   78  15.769  19.993  26.225 -0.2679  0.0680 -0.2533
   16BDT    BS1   79  15.621  20.046  26.108 -0.4327  0.3133  0.0686
   16BDT    BS2   80  15.913  19.972  26.359 -0.0677 -0.1959 -0.5061
   17BDT   BNZ1   81  24.855   6.664   6.414  0.0426 -0.0491 -0.0370
   17BDT   BNZ2   82  25.031   6.658   6.465  0.0310 -0.0066  0.0057
   17BDT   BNZ3   83  24.877   6.675   6.665 -0.0179  0.0125 -0.0340
   17BDT    BS1   84  24.694   6.680   6.592 -0.0027 -0.0360 -0.0787
   17BDT    BS2   85  25.071   6.667   6.702 -0.0264  0.0549  0.0132
   18BDT   BNZ1   86  13.020  28.551  23.268  0.0938 -0.1271 -0.0102
   18BDT   BNZ2   87  12.921  28.561  23.114  0.0691  0.3120  0.0265
   18BDT   BNZ3   88  13.120  28.409  23.085 -0.1046  0.1474 -0.3382
   18BDT    BS1   89  13.215  28.410  23.258 -0.0701 -0.3249 -0.3560
   18BDT    BS2   90  13.001  28.431  22.929 -0.1157  0.6167 -0.2659
   19BDT   BNZ1   91  27.682  17.952  17.262  0.0724 -0.2631  0.2006
   19BDT   BNZ2   92  27.694  18.124  17.324  0.2089 -0.2074  0.0219
   19BDT   BNZ3   93  27.522  17.993  17.452 -0.1466  0.1627 -0.0681
   19BDT    BS1   94  27.521  17.812  17.374 -0.2667  0.0750  0.1341
   19BDT    BS2   95  27.549  18.182  17.506  0.0270  0.1897 -0.2498
   20BDT   BNZ1   96  21.540   0.896  28.065 -0.1237  0.0576 -0.1685
   20BDT   BNZ2   97  21.616   0.758  28.159 -0.0597  0.2546  0.0739
   20BDT   BNZ3   98  21.521   0.678  27.939 -0.0750 -0.1857  0.2361
   20BDT    BS1   99  21.444   0.837  27.853 -0.1421 -0.3710 -0.0402
   20BDT    BS2  100  21.608   0.543  28.054 -0.0072  0.0575  0.4758
   21BDT   BNZ1  101  28.254   3.971   7.143 -0.0047 -0.0945  0.0347
   21BDT   BNZ2  102  28.330   3.871   7.010  0.2635 -0.0304  0.1354
   21BDT   BNZ3  103  28.083   3.824   7.031  0.2028  0.0033 -0.4233
   21BDT    BS1  104  28.018   3.939   7.177 -0.0830 -0.0714 -0.4950
   21BDT    BS2  105  28.182   3.724   6.892  0.4900  0.0689 -0.2730
   22BDT   BNZ1  106   1.855  13.204   9.164  0.1346  0.2492 -0.1761
   22BDT   BNZ2  107   1.845  13.171   8.984 -0.2815  0.2392 -0.1544
   22BDT   BNZ3  108   1.727  13.385   9.045 -0.0163  0.3191  0.0904
   22BDT    BS1  109   1.748  13.405   9.240  0.4253  0.3213  0.0394
   22BDT    BS2  110   1.725  13.334   8.854 -0.4674  0.3012  0.0947
   23BDT   BNZ1  111  23.084  15.604  15.307 -0.1836 -0.1753 -0.1277
   23BDT   BNZ2  112  23.018  15.499  15.442 -0.0170 -0.3674 -0.1914
   23BDT   BNZ3  113  23.266  15.535  15.468 -0.0825  0.0727 -0.1337
   23BDT    BS1  114  23.321  15.648  15.317 -0.2668  0.2487 -0.0640
   23BDT    BS2  115  23.177  15.425  15.606  0.0922 -0.1627 -0.2038
   24BDT   BNZ1  116   7.950  22.618  24.836  0.0956  0.3840 -0.0049
   24BDT   BNZ2  117   7.965  22.711  24.679  0.0041  0.3435 -0.0380
   24BDT   BNZ3  118   7.855  22.850  24.858 -0.1578  0.2907 -0.0951
   24BDT    BS1  119   7.848  22.736  25.018 -0.0434  0.3386 -0.0540
   24BDT    BS2  120   7.879  22.935  24.681 -0.2389  0.2514 -0.1237
   25BDT   BNZ1  121  13.577  16.920   7.411 -0.1559  0.0441  0.1460
   25BDT   BNZ2  122  13.594  16.843   7.246 -0.0772  0.0791  0.1376
   25BDT   BNZ3  123  13.555  16.669   7.425 -0.1936  0.0438  0.0783
   25BDT    BS1  124  13.539  16.768   7.594 -0.2719  0.0076  0.0918
   25BDT    BS2  125  13.575  16.604   7.239 -0.1027  0.0829  0.0742
   26BDT   BNZ1  126   7.837  15.653  10.264  0.2404  0.0732 -0.0176
   26BDT   BNZ2  127   7.814  15.818  10.188  0.1346  0.1075  0.0866
   26BDT   BNZ3  128   7.815  15.833  10.440 -0.1215 -0.0825  0.0996
   26BDT    BS1  129   7.840  15.648  10.504  0.0159 -0.1073 -0.0193
   26BDT    BS2  130   7.791  16.002  10.341 -0.2097 -0.0346  0.2049
   27BDT   BNZ1  131   2.349  15.557  14.692  0.3093  0.1990 -0.2929
   27BDT   BNZ2  132   2.489  15.443  14.719  0.0111 -0.0908  0.0946
   27BDT   BNZ3  133   2.317  15.342  14.565  0.0905  0.1464 -0.1530
   27BDT    BS1  134   2.175  15.477  14.547  0.4271  0.4404 -0.5614
   27BDT    BS2  135   2.476  15.232  14.605 -0.2271 -0.1701  0.2675
   28BDT   BNZ1  136  16.124  11.217  27.705  0.2138 -0.1452 -0.0973
   28BDT   BNZ2  137  15.977  11.149  27.620  0.2153 -0.0810 -0.1513
   28BDT   BNZ3  138  16.141  10.967  27.677  0.0857 -0.1618 -0.0309
   28BDT    BS1  139  16.292  11.056  27.766  0.0932 -0.2264  0.0194
   28BDT    BS2  140  15.975  10.912  27.585  0.0971 -0.0884 -0.0968
   29BDT   BNZ1  141   0.813  22.806  20.491 -0.0634 -0.1104  0.0577
   29BDT   BNZ2  142   0.904  22.958  20.446 -0.0301 -0.1072  0.1340
   29BDT   BNZ3  143   0.695  23.011  20.575 -0.0850 -0.1199  0.0505
   29BDT    BS1  144   0.610  22.838  20.616 -0.1174 -0.1218 -0.0280
   29BDT    BS2  145   0.806  23.164  20.518 -0.0462 -0.1157  0.1363
   30BDT   BNZ1  146   9.400  24.542  24.799 -0.2213 -0.0793 -0.4809
   30BDT   BNZ2  147   9.556  24.592  24.718 -0.0291  0.0310 -0.0580
   30BDT   BNZ3  148   9.543  24.342  24.747  0.0714  0.0223 -0.0853
   30BDT    BS1  149   9.371  24.306  24.835 -0.1468 -0.0968 -0.5542
   30BDT    BS2  150   9.706  24.414  24.661  0.2539  0.1362  0.3584
   31BDT   BNZ1  151   8.045   5.091   9.737 -0.0036 -0.0402 -0.1860
   31BDT   BNZ2  152   8.180   4.994   9.814 -0.1761 -0.1485 -0.0143
   31BDT   BNZ3  153   8.082   5.159   9.977 -0.0741  0.1185 -0.2200
   31BDT    BS1  154   7.940   5.254   9.879  0.1137  0.2146 -0.3933
   31BDT    BS2  155   8.229   5.046  10.043 -0.2596 -0.0165 -0.0259
   32BDT   BNZ1  156  14.608  24.239  11.900  0.0924 -0.2224 -0.0267
   32BDT   BNZ2  157  14.463  24.350  11.906  0.1243 -0.1784 -0.0788
   32BDT   BNZ3  158  14.456  24.182  12.094 -0.1349 -0.3520 -0.2405
   32BDT    BS1  159  14.618  24.071  12.073 -0.1495 -0.3863 -0.1721
   32BDT    BS2  160  14.307  24.311  12.084 -0.0801 -0.2912 -0.2830
   33BDT   BNZ1  161  17.475  21.155  12.087  0.0361  0.0119  0.0275
   33BDT   BNZ2  162  17.501  21.181  12.266  0.0239  0.0579  0.0228
   33BDT   BNZ3  163  17.612  20.968  12.187  0.0281  0.0369  0.0854
   33BDT    BS1  164  17.574  20.956  11.994  0.0412 -0.0124  0.0858
   33BDT    BS2  165  17.630  21.013  12.379  0.0150  0.0862  0.0750
   34BDT   BNZ1  166  14.760  18.665  18.031 -0.0772  0.0587  0.1565
   34BDT   BNZ2  167  14.621  18.554  18.073 -0.0347  0.0010  0.1468
   34BDT   BNZ3  168  14.620  18.762  18.216 -0.3203  0.1556 -0.0754
   34BDT    BS1  169  14.774  18.869  18.158 -0.3455  0.2052 -0.0490
   34BDT    BS2  170  14.476  18.630  18.248 -0.2527  0.0814 -0.0691
   35BDT   BNZ1  171   7.267  25.147   0.607 -0.1015 -0.0411  0.0265
   35BDT   BNZ2  172   7.162  25.007   0.554 -0.0287 -0.1290  0.1095
   35BDT   BNZ3  173   7.036  25.225   0.546 -0.1320 -0.1939 -0.0562
   35BDT    BS1  174   7.163  25.363   0.605 -0.2052 -0.0928 -0.1358
   35BDT    BS2  175   6.937  25.063   0.491 -0.0479 -0.2797  0.0433
   36BDT   BNZ1  176  28.453   5.136  27.640  0.3406 -0.0218 -0.0087
   36BDT   BNZ2  177  28.440   5.158  27.821 -0.4099 -0.3129 -0.0097
   36BDT   BNZ3  178  28.566   4.948  27.764  0.0198 -0.1075  0.1605
   36BDT    BS1  179  28.571   4.939  27.567  0.8170  0.2040  0.1780
   36BDT    BS2  180  28.543   4.988  27.956 -0.7913 -0.4255  0.1384
   37BDT   BNZ1  181   8.624  18.691  16.818  0.1643 -0.2637  0.3408
   37BDT   BNZ2  182   8.792  18.629  16.780  0.1754 -0.0481  0.0144
   37BDT   BNZ3  183   8.799  18.864  16.869  0.0364  0.0214 -0.1569
   37BDT    BS1  184   8.612  18.915  16.904  0.0329 -0.2255  0.2179
   37BDT    BS2  185   8.972  18.781  16.823  0.0491  0.2395 -0.4795
   38BDT   BNZ1  186  21.077  21.491   0.796 -0.1036  0.0663 -0.1091
   38BDT   BNZ2  187  21.199  21.527   0.666 -0.0874  0.2950 -0.0320
   38BDT   BNZ3  188  21.050  21.726   0.709 -0.2761  0.1263  0.0999
   38BDT    BS1  189  20.926  21.670   0.851 -0.2774 -0.1154  0.0027
   38BDT    BS2  190  21.190  21.748   0.571 -0.2443  0.3749  0.1700
   39BDT   BNZ1  191  12.027   2.708  26.694  0.0770 -0.1020  0.2110
   39BDT   BNZ2  192  12.119   2.752  26.846  0.0765  0.1553  0.1391
   39BDT   BNZ3  193  11.966   2.938  26.775 -0.0924 -0.0532 -0.0515
   39BDT    BS1  194  11.875   2.875  26.611 -0.0764 -0.3233  0.0458
   39BDT    BS2  195  12.073   2.969  26.937 -0.0787  0.2283 -0.1109
   40BDT   BNZ1  196  21.344  11.288   7.939  0.2056  0.0069  0.3435
   40BDT   BNZ2  197  21.346  11.456   7.866  0.1113 -0.1488 -0.0251
   40BDT   BNZ3  198  21.185  11.443   8.059 -0.1167  0.1062 -0.1936
   40BDT    BS1  199  21.196  11.258   8.126  0.0086  0.2588  0.2251
   40BDT    BS2  200  21.201  11.617   7.967 -0.1928 -0.0852 -0.5605
   41BDT   BNZ1  201   1.806   0.292   3.349 -0.0128 -0.1570 -0.0362
   41BDT   BNZ2  202   1.971   0.333   3.283  0.0624 -0.5672 -0.1156
   41BDT   BNZ3  203   1.988   0.194   3.493 -0.1830  0.0965  0.3611
   41BDT    BS1  204   1.803   0.159   3.550 -0.2332  0.5093  0.3987
   41BDT    BS2  205   2.158   0.247   3.407 -0.0806 -0.3752  0.2304
   42BDT   BNZ1  206  24.464   7.253  12.871  0.1017  0.2095  0.2282
   42BDT   BNZ2  207  24.597   7.197  12.984  0.0499 -0.2234  0.0866
   42BDT   BNZ3  208  24.692   7.300  12.774  0.1593 -0.3042  0.0959
   42BDT    BS1  209  24.537   7.354  12.665  0.2087  0.1810  0.2552
   42BDT    BS2  210  24.821   7.235  12.908  0.0880 -0.7429 -0.0563
   43BDT   BNZ1  211  28.975  15.738  20.093 -0.1425  0.1241 -0.1875
   43BDT   BNZ2  212  29.042  15.576  20.040 -0.1338  0.1107 -0.1353
   43BDT   BNZ3  213  29.003  15.728  19.842 -0.0501  0.0799 -0.1750
   43BDT    BS1  214  28.932  15.896  19.916 -0.0662  0.0972 -0.2302
   43BDT    BS2  215  29.076  15.548  19.804 -0.0480  0.0686 -0.1180
   44BDT   BNZ1  216  23.416   3.104  18.400  0.4616  0.1001 -0.2165
   44BDT   BNZ2  217  23.384   3.204  18.549  0.3211 -0.3335  0.0557
   44BDT   BNZ3  218  23.364   3.343  18.339  0.2124  0.2159  0.4170
   44BDT    BS1  219  23.401   3.220  18.190  0.3759  0.6547  0.1009
   44BDT    BS2  220  23.333   3.436  18.511  0.0780 -0.2861  0.6697
   45BDT   BNZ1  221   1.755   7.375  13.480  0.0681  0.2403  0.1517
   45BDT   BNZ2  222   1.859   7.226  13.501 -0.0876  0.0800 -0.1659
   45BDT   BNZ3  223   1.945   7.419  13.638  0.1141 -0.3017  0.2575
   45BDT    BS1  224   1.823   7.570  13.604  0.2723 -0.1037  0.5745
   45BDT    BS2  225   2.046   7.250  13.649 -0.0673 -0.4387 -0.1093
   46BDT   BNZ1  226   7.983  16.491  27.002  0.2403  0.1308 -0.0058
   46BDT   BNZ2  227   7.931  16.317  27.016  0.0514  0.2050  0.2444
   46BDT   BNZ3  228   8.102  16.346  26.834 -0.0043 -0.2199  0.1187
   46BDT    BS1  229   8.148  16.538  26.832  0.2063 -0.2729 -0.1463
   46BDT    BS2  230   8.033  16.163  26.863 -0.1968 -0.1056  0.3901
   47BDT   BNZ1  231  28.437  11.993  15.475  0.0012 -0.1229  0.0690
   47BDT   BNZ2  232  28.282  11.979  15.380  0.1111  0.0622 -0.1400
   47BDT   BNZ3  233  28.248  12.111  15.592 -0.0374  0.0237 -0.1393
   47BDT    BS1  234  28.423  12.115  15.681 -0.1500 -0.1792  0.0908
   47BDT    BS2  235  28.090  12.087  15.476  0.0905  0.2182 -0.3546
   48BDT   BNZ1  236   9.719  16.319  18.207 -0.2085 -0.1454  0.0430
   48BDT   BNZ2  237   9.632  16.289  18.365 -0.1752 -0.1248  0.0651
   48BDT   BNZ3  238   9.713  16.074  18.263  0.1385 -0.1049  0.2689
   48BDT    BS1  239   9.804  16.124  18.095  0.0776 -0.1261  0.2275
   48BDT    BS2  240   9.617  16.060  18.435  0.1476 -0.0819  0.2743
   49BDT   BNZ1  241   3.176  27.501  19.721 -0.1789 -0.0967 -0.2453
   49BDT   BNZ2  242   3.291  27.380  19.647 -0.1068 -0.2010  0.0287
   49BDT   BNZ3  243   3.399  27.607  19.670 -0.1093 -0.1831 -0.1234
   49BDT    BS1  244   3.263  27.724  19.751 -0.1868 -0.0716 -0.4174
   49BDT    BS2  245   3.509  27.464  19.591 -0.0356 -0.2915  0.1730
   50BDT   BNZ1  246  10.594   1.856  28.318  0.0572 -0.2058 -0.0498
   50BDT   BNZ2  247  10.656   1.772  28.469  0.1165  0.1176  0.1110
   50BDT   BNZ3  248  10.488   1.952  28.527 -0.0432  0.0827 -0.2298
   50BDT    BS1  249  10.433   2.031  28.355 -0.0934 -0.2775 -0.3778
   50BDT    BS2  250  10.566   1.850  28.677  0.0317  0.4196 -0.0382
   51BDT   BNZ1  251  25.516  18.685  28.129  0.1960  0.0958 -0.0827
   51BDT   BNZ2  252  25.467  18.733  27.960  0.1837 -0.0363 -0.1169
   51BDT   BNZ3  253  25.374  18.506  28.021  0.1679  0.0214  0.0751
   51BDT    BS1  254  25.436  18.471  28.205  0.1829  0.1643  0.0977
   51BDT    BS2  255  25.331  18.575  27.841  0.1567 -0.1194  0.0242
   52BDT   BNZ1  256  22.180  23.900  19.011 -0.1486 -0.2777 -0.0462
   52BDT   BNZ2  257  22.063  23.805  18.907 -0.2923 -0.0110 -0.1336
   52BDT   BNZ3  258  22.158  24.002  18.781 -0.1415  0.0706  0.1043
   52BDT    BS1  259  22.280  24.092  18.906  0.0044 -0.2341  0.1827
   52BDT    BS2  260  22.029  23.887  18.684 -0.3009  0.3402 -0.0028
   53BDT   BNZ1  261  12.097  12.457  21.629 -0.2507  0.0135 -0.0910
   53BDT   BNZ2  262  12.233  12.349  21.570 -0.1966 -0.0847  0.2058
   53BDT   BNZ3  263  12.284  12.592  21.527 -0.0771 -0.1423  0.0161
   53BDT    BS1  264  12.129  12.693  21.595 -0.1439 -0.0317 -0.2997
   53BDT    BS2  265  12.420  12.461  21.470 -0.0327 -0.2385  0.3394
   54BDT   BNZ1  266  20.336  22.675  15.735 -0.0887 -0.2497 -0.0145
   54BDT   BNZ2  267  20.327  22.615  15.562 -0.0314 -0.0561 -0.0862
   54BDT   BNZ3  268  20.480  22.815  15.582  0.1036 -0.1869  0.2219
   54BDT    BS1  269  20.477  22.866  15.772  0.0284 -0.3938  0.2751
   54BDT    BS2  270  20.459  22.736  15.402  0.1507  0.0226  0.1227
   55BDT   BNZ1  271   6.859  27.637   3.993 -0.3342  0.2892  0.0039
   55BDT   BNZ2  272   6.888  27.789   3.895  0.0076  0.1011 -0.1962
   55BDT   BNZ3  273   7.002  27.801   4.120 -0.2902  0.2946 -0.0530
   55BDT    BS1  274   6.960  27.632   4.211 -0.6448  0.4981  0.1514
   55BDT    BS2  275   7.022  27.958   4.000  0.0874  0.0849 -0.2724
   56BDT   BNZ1  276  13.059   2.752  20.083  0.1881  0.2379  0.1530
   56BDT   BNZ2  277  13.227   2.736  20.013  0.0001 -0.1326 -0.2337
   56BDT   BNZ3  278  13.091   2.908  19.888  0.0543  0.0941  0.0148
   56BDT    BS1  279  12.915   2.912  19.976  0.2729  0.4864  0.4189
   56BDT    BS2  280  13.276   2.877  19.825 -0.1475 -0.3072 -0.4040
   57BDT   BNZ1  281  12.116  23.305   6.746 -0.1143  0.1131  0.1934
   57BDT   BNZ2  282  12.011  23.264   6.602 -0.0107  0.2986  0.0619
   57BDT   BNZ3  283  11.887  23.408   6.768 -0.0879  0.1937  0.0958
   57BDT    BS1  284  12.014  23.443   6.915 -0.1984 -0.0046  0.2370
   57BDT    BS2  285  11.789  23.353   6.605  0.0262  0.3943 -0.0420
   58BDT   BNZ1  286  29.132  15.071   5.570  0.1545 -0.2412 -0.0842
   58BDT   BNZ2  287  29.103  15.155   5.730  0.2906 -0.0717 -0.1478
   58BDT   BNZ3  288  28.929  14.978   5.688  0.0407  0.1304  0.0199
   58BDT    BS1  289  28.974  14.898   5.513 -0.0890 -0.0712  0.0783
   58BDT    BS2  290  28.914  15.080   5.856  0.2042  0.2900 -0.0615
   59BDT   BNZ1  291   7.225   9.563  22.272  0.1928  0.0479 -0.2428
   59BDT   BNZ2  292   7.049   9.612  22.280  0.1191 -0.2559  0.1950
   59BDT   BNZ3  293   7.086   9.428  22.112  0.0983  0.0948 -0.2010
   59BDT    BS1  294   7.278   9.388  22.116  0.1639  0.4110 -0.6543
   59BDT    BS2  295   6.900   9.493  22.133  0.0221 -0.2462  0.2853
   60BDT   BNZ1  296   0.950  14.028  23.333  0.0213 -0.0102  0.1591
   60BDT   BNZ2  297   1.114  13.961  23.380  0.0070  0.0304  0.2671
   60BDT   BNZ3  298   0.946  13.776  23.347  0.0744 -0.0111  0.1567
   60BDT    BS1  299   0.777  13.864  23.297  0.0857 -0.0532  0.0456
   60BDT    BS2  300   1.129  13.722  23.398  0.0543  0.0342  0.2775
   61BDT   BNZ1  301  16.666   2.518  23.928 -0.0730  0.1266  0.2191
   61BDT   BNZ2  302  16.523   2.493  24.040 -0.2406 -0.1633 -0.0504
   61BDT   BNZ3  303  16.734   2.396  24.137 -0.2367  0.2021  0.3179
   61BDT    BS1  304  16.876   2.431  24.005 -0.0635  0.4947  0.5958
   61BDT    BS2  305  16.570   2.378  24.245 -0.4138 -0.1269  0.0095
   62BDT   BNZ1  306  15.704  25.858  12.504 -0.0848  0.1295 -0.0442
   62BDT   BNZ2  307  15.880  25.817  12.531 -0.0769  0.0707 -0.1818
   62BDT   BNZ3  308  15.818  26.031  12.647  0.0233 -0.0353  0.0707
   62BDT    BS1  309  15.627  26.061  12.608  0.0082  0.0368  0.2034
   62BDT    BS2  310  16.005  25.971  12.666  0.0233 -0.0884 -0.0928
   63BDT   BNZ1  311  25.453  11.344   1.747  0.0435 -0.1857 -0.0493
   63BDT   BNZ2  312  25.370  11.316   1.587 -0.2499  0.0942  0.0484
   63BDT   BNZ3  313  25.618  11.274   1.570 -0.2898  0.0330 -0.4541
   63BDT    BS1  314  25.691  11.308   1.749  0.0318 -0.2728 -0.5272
   63BDT    BS2  315  25.511  11.248   1.405 -0.5923  0.3293 -0.3065
   64BDT   BNZ1  316  28.605  13.852   4.667  0.1277 -0.1516  0.0387
   64BDT   BNZ2  317  28.671  13.763   4.521  0.3683 -0.1874  0.1663
   64BDT   BNZ3  318  28.564  13.604   4.684  0.1476 -0.1536  0.0570
   64BDT    BS1  319  28.499  13.714   4.833 -0.1005 -0.1188 -0.0803
   64BDT    BS2  320  28.641  13.525   4.520  0.4146 -0.1933  0.1974
   65BDT   BNZ1  321  21.972  27.605   9.514  0.1106 -0.0235 -0.0175
   65BDT   BNZ2  322  22.150  27.606   9.559  0.2168 -0.1354 -0.4134
   65BDT   BNZ3  323  22.094  27.795   9.402 -0.0844  0.0836 -0.0499
   65BDT    BS1  324  21.901  27.780   9.365 -0.1666  0.1890  0.3659
   65BDT    BS2  325  22.282  27.781   9.462  0.0521 -0.0517 -0.4869
   66BDT   BNZ1  326  15.422  11.978  21.969 -0.0526  0.1108  0.2633
   66BDT   BNZ2  327  15.273  11.892  22.032  0.0314  0.1763  0.5582
   66BDT   BNZ3  328  15.235  12.141  22.013 -0.1556  0.1050 -0.1349
   66BDT    BS1  329  15.404  12.216  21.944 -0.2422  0.0261 -0.4044
   66BDT    BS2  330  15.084  12.032  22.079 -0.0567  0.1698  0.2288
   67BDT   BNZ1  331   0.598  11.883  25.667 -0.0338  0.0611 -0.2326
   67BDT   BNZ2  332   0.737  11.835  25.558  0.1491  0.0160  0.0183
   67BDT   BNZ3  333   0.668  11.645  25.709 -0.0381  0.1077  0.0493
   67BDT    BS1  334   0.518  11.713  25.817 -0.2242  0.1506 -0.2338
   67BDT    BS2  335   0.817  11.610  25.584  0.1643  0.0551  0.3075
   68BDT   BNZ1  336   5.549  24.858   8.119 -0.3148 -0.2826 -0.1028
   68BDT   BNZ2  337   5.441  24.915   8.255  0.0928  0.2063  0.0326
   68BDT   BNZ3  338   5.372  25.015   8.034 -0.1883 -0.0940 -0.0204
   68BDT    BS1  339   5.498  24.944   7.900 -0.6315 -0.6067 -0.1505
   68BDT    BS2  340   5.265  25.066   8.192  0.2584  0.4348  0.1213
   69BDT   BNZ1  341  19.653  24.740  17.453 -0.0020 -0.0728 -0.0817
   69BDT   BNZ2  342  19.471  24.724  17.462  0.0217 -0.2431  0.1199
   69BDT   BNZ3  343  19.577  24.688  17.688  0.2964 -0.0089  0.0302
   69BDT    BS1  344  19.771  24.709  17.660  0.2447  0.1620 -0.1883
   69BDT    BS2  345  19.380  24.674  17.679  0.2980 -0.2038  0.2442
   70BDT   BNZ1  346  11.603  14.012  18.103 -0.0264  0.1277  0.1656
   70BDT   BNZ2  347  11.605  14.185  18.164 -0.1449  0.2226 -0.0920
   70BDT   BNZ3  348  11.370  14.108  18.114 -0.1043 -0.0553  0.1332
   70BDT    BS1  349  11.385  13.923  18.051  0.0254 -0.1338  0.4037
   70BDT    BS2  350  11.391  14.293  18.181 -0.2289  0.0662 -0.1512
   71BDT   BNZ1  351   0.882   4.719  13.788  0.2252 -0.2388 -0.0113
   71BDT   BNZ2  352   0.707   4.668  13.800  0.1840 -0.1169 -0.0870
   71BDT   BNZ3  353   0.803   4.722  14.027 -0.0347  0.3355 -0.0957
   71BDT    BS1  354   0.990   4.774  13.996  0.0307  0.1653 -0.0176
   71BDT    BS2  355   0.614   4.665  14.021 -0.0555  0.4253 -0.1798
   72BDT   BNZ1  356  17.429  24.947   7.403  0.0776 -0.3612 -0.0090
   72BDT   BNZ2  357  17.589  24.914   7.484  0.0026 -0.0748  0.2705
   72BDT   BNZ3  358  17.599  25.124   7.345 -0.0518 -0.2139  0.0545
   72BDT    BS1  359  17.419  25.145   7.266  0.0423 -0.5226 -0.2354
   72BDT    BS2  360  17.764  25.072   7.439 -0.1269  0.0937  0.3603
   73BDT   BNZ1  361  13.805  23.045  22.101 -0.2155  0.3731 -0.1836
   73BDT   BNZ2  362  13.861  23.215  22.064 -0.0630  0.3047 -0.2707
   73BDT   BNZ3  363  13.982  23.046  21.922  0.0284  0.0956  0.0523
   73BDT    BS1  364  13.911  22.870  21.974 -0.1498  0.1888  0.1261
   73BDT    BS2  365  14.030  23.236  21.895  0.1762  0.0419 -0.0617
   74BDT   BNZ1  366  11.872  16.945  12.374 -0.0182 -0.2834 -0.0329
   74BDT   BNZ2  367  11.848  16.941  12.193  0.1087 -0.0200 -0.0579
   74BDT   BNZ3  368  11.693  17.107  12.303 -0.0308 -0.2444  0.0858
   74BDT    BS1  369  11.732  17.098  12.496 -0.1612 -0.5198  0.0973
   74BDT    BS2  370  11.680  17.089  12.106  0.1121  0.0460  0.0482
   75BDT   BNZ1  371  18.290   7.406  19.292 -0.2947  0.1467 -0.4090
   75BDT   BNZ2  372  18.410   7.526  19.225  0.5224 -0.2812  0.2037
   75BDT   BNZ3  373  18.386   7.327  19.073  0.1012  0.0805 -0.2165
   75BDT    BS1  374  18.254   7.209  19.159 -0.7338  0.5669 -0.8851
   75BDT    BS2  375  18.512   7.468  19.016  0.9725 -0.3990  0.4563
   76BDT   BNZ1  376  23.701   0.849   8.714  0.2247 -0.0198 -0.0697
   76BDT   BNZ2  377  23.584   0.901   8.583  0.2092  0.1561  0.0126
   76BDT   BNZ3  378  23.823   0.946   8.516  0.2208 -0.0390 -0.0815
   76BDT    BS1  379  23.934   0.885   8.667  0.2354 -0.2183 -0.1675
   76BDT    BS2  380  23.683   0.997   8.386  0.2037  0.1588  0.0112
   77BDT   BNZ1  381  19.458  13.550  17.231 -0.1683  0.1574  0.0647
   77BDT   BNZ2  382  19.401  13.718  17.186 -0.2755  0.0738 -0.1196
   77BDT   BNZ3  383  19.497  13.599  16.987  0.0544  0.0147  0.0718
   77BDT    BS1  384  19.553  13.421  17.052  0.1456  0.1174  0.2620
   77BDT    BS2  385  19.430  13.782  16.957 -0.0844 -0.0649 -0.1332
   78BDT   BNZ1  386  18.495  14.918   9.787  0.0159 -0.0025 -0.0019
   78BDT   BNZ2  387  18.484  15.089   9.853 -0.0268  0.0362 -0.1089
   78BDT   BNZ3  388  18.658  15.070   9.671 -0.1545  0.0094 -0.2287
   78BDT    BS1  389  18.656  14.882   9.613 -0.0978 -0.0326 -0.1005
   78BDT    BS2  390  18.633  15.248   9.753 -0.1887  0.0497 -0.3297
   79BDT   BNZ1  391   6.902   2.998  17.772 -0.2013 -0.0622 -0.2299
   79BDT   BNZ2  392   6.933   2.818  17.762  0.0344 -0.0312 -0.0836
   79BDT   BNZ3  393   6.717   2.880  17.649 -0.2315 -0.4564  0.1826
   79BDT    BS1  394   6.698   3.075  17.670 -0.4668 -0.4604  0.0025
   79BDT    BS2  395   6.767   2.689  17.648  0.0388 -0.3878  0.3154
   80BDT   BNZ1  396  12.275  24.410  13.855 -0.0063  0.1087 -0.0318
   80BDT   BNZ2  397  12.227  24.265  13.956 -0.0130  0.1251 -0.0113
   80BDT   BNZ3  398  12.108  24.265  13.734  0.0036  0.0878 -0.0201
   80BDT    BS1  399  12.170  24.425  13.639  0.0095  0.0722 -0.0421
   80BDT    BS2  400  12.068  24.115  13.857 -0.0048  0.1077  0.0018
   81BDT   BNZ1  401  20.121  19.394  11.521  0.0398  0.1547  0.0620
   81BDT   BNZ2  402  20.201  19.543  11.590  0.2006  0.1141 -0.0326
   81BDT   BNZ3  403  20.170  19.365  11.766  0.1247  0.2101  0.0515
   81BDT    BS1  404  20.084  19.213  11.675 -0.0472  0.2488  0.1505
   81BDT    BS2  405  20.255  19.534  11.824  0.2970  0.1600 -0.0533
   82BDT   BNZ1  406  11.370   1.668  26.839  0.2069  0.0959  0.0551
   82BDT   BNZ2  407  11.320   1.492  26.834  0.2932  0.0741 -0.0937
   82BDT   BNZ3  408  11.563   1.520  26.776  0.3155  0.2310  0.0679
   82BDT    BS1  409  11.600   1.713  26.785  0.2169  0.2413  0.2206
   82BDT    BS2  410  11.492   1.336  26.776  0.4023  0.1958 -0.0989
   83BDT   BNZ1  411  25.944  14.952  12.930  0.0301  0.0911 -0.2729
   83BDT   BNZ2  412  25.780  14.871  12.934  0.0676  0.0238  0.0541
   83BDT   BNZ3  413  25.801  15.026  12.736 -0.3364 -0.0763 -0.0718
   83BDT    BS1  414  25.982  15.103  12.746 -0.3501  0.0024 -0.4220
   83BDT    BS2  415  25.630  14.929  12.756 -0.2618 -0.1384  0.2794
   84BDT   BNZ1  416  23.482  22.330   0.482  0.2589  0.1037  0.2480
   84BDT   BNZ2  417  23.392  22.174   0.448  0.0085  0.2746  0.1183
   84BDT   BNZ3  418  23.411  22.217   0.696  0.2216 -0.0421  0.1591
   84BDT    BS1  419  23.510  22.386   0.714  0.4797 -0.2130  0.2974
   84BDT    BS2  420  23.316  22.053   0.641 -0.0554  0.1593  0.0202
   85BDT   BNZ1  421  25.802  28.116  14.299 -0.0336  0.0455  0.1208
   85BDT   BNZ2  422  25.858  28.249  14.187 -0.0152  0.0604  0.1478
   85BDT   BNZ3  423  25.754  28.059  14.059  0.2477 -0.0416  0.0832
   85BDT    BS1  424  25.700  27.926  14.194  0.2074 -0.0497  0.0601
   85BDT    BS2  425  25.820  28.212  13.953  0.2458 -0.0171  0.1180
   86BDT   BNZ1  426  23.390  15.044  19.661 -0.2622  0.1603  0.0712
   86BDT   BNZ2  427  23.369  15.210  19.734 -0.1270  0.1375  0.1636
   86BDT   BNZ3  428  23.230  15.038  19.855 -0.5986  0.2533 -0.1971
   86BDT    BS1  429  23.264  14.867  19.765 -0.7093  0.2771 -0.2730
   86BDT    BS2  430  23.220  15.224  19.921 -0.4175  0.2258 -0.0743
   87BDT   BNZ1  431  15.641  16.620   3.700 -0.3193  0.0751 -0.1140
   87BDT   BNZ2  432  15.763  16.594   3.567  0.0026  0.1554  0.1604
   87BDT   BNZ3  433  15.596  16.406   3.575  0.2493 -0.0777 -0.0682
   87BDT    BS1  434  15.473  16.449   3.722 -0.1227 -0.1456 -0.3566
   87BDT    BS2  435  15.737  16.395   3.436  0.5593  0.0289  0.2405
   88BDT   BNZ1  436   4.310  18.786  22.442 -0.0359  0.0462 -0.0391
   88BDT   BNZ2  437   4.294  18.782  22.625  0.0658  0.0244 -0.0301
   88BDT   BNZ3  438   4.247  18.556  22.524 -0.2206  0.0913 -0.0522
   88BDT    BS1  439   4.269  18.578  22.329 -0.3113  0.1113 -0.0574
   88BDT    BS2  440   4.235  18.570  22.721 -0.0920  0.0643 -0.0395
   89BDT   BNZ1  441  10.233  19.225  19.386 -0.0213 -0.1171 -0.0514
   89BDT   BNZ2  442  10.058  19.176  19.366 -0.0392 -0.0751  0.0006
   89BDT   BNZ3  443  10.192  19.126  19.158 -0.1492  0.0468 -0.1003
   89BDT    BS1  444  10.376  19.184  19.197 -0.1207 -0.0090 -0.1493
   89BDT    BS2  445  10.000  19.079  19.154 -0.1584  0.0807 -0.0376
   90BDT   BNZ1  446   1.319  25.846   1.494 -0.0293 -0.1828 -0.1135
   90BDT   BNZ2  447   1.180  25.741   1.548  0.0138 -0.1752  0.0130
   90BDT   BNZ3  448   1.106  25.979   1.510  0.0126 -0.1475  0.1817
   90BDT    BS1  449   1.267  26.077   1.452 -0.0338 -0.1585  0.0281
   90BDT    BS2  450   0.967  25.851   1.569  0.0593 -0.1418  0.2984
   91BDT   BNZ1  451  13.018  21.715   3.536 -0.0480 -0.2779  0.1574
   91BDT   BNZ2  452  12.930  21.873   3.509  0.4452 -0.0036  0.0917
   91BDT   BNZ3  453  12.898  21.789   3.744 -0.3457 -0.1543 -0.0549
   91BDT    BS1  454  12.999  21.620   3.756 -0.8430 -0.4233  0.0192
   91BDT    BS2  455  12.810  21.960   3.697  0.2270  0.1484 -0.1183
   92BDT   BNZ1  456  18.609  24.355  28.092 -0.1069 -0.0155 -0.1761
   92BDT   BNZ2  457  18.774  24.331  28.168 -0.1773  0.0487 -0.0003
   92BDT   BNZ3  458  18.762  24.549  28.041 -0.1976  0.1546  0.1814
   92BDT    BS1  459  18.580  24.558  27.967 -0.1198  0.0737 -0.0277
   92BDT    BS2  460  18.933  24.507  28.130 -0.2729  0.2112  0.3475
   93BDT   BNZ1  461  20.182  12.402  21.664  0.2178  0.0875 -0.1723
   93BDT   BNZ2  462  20.330  12.473  21.582  0.2626  0.1975  0.0016
   93BDT   BNZ3  463  20.281  12.590  21.800  0.0700 -0.0090  0.0714
   93BDT    BS1  464  20.121  12.502  21.874  0.0365 -0.1154 -0.1290
   93BDT    BS2  465  20.438  12.654  21.698  0.1314  0.1203  0.2446
   94BDT   BNZ1  466   9.847  18.787   5.614  0.0595  0.0549  0.0354
   94BDT   BNZ2  467   9.910  18.705   5.462 -0.3191  0.1777 -0.1935
   94BDT   BNZ3  468   9.751  18.555   5.588 -0.0800  0.1125  0.0357
   94BDT    BS1  469   9.694  18.658   5.746  0.3258 -0.0234  0.2625
   94BDT    BS2  470   9.828  18.483   5.421 -0.4910  0.2455 -0.2192
   95BDT   BNZ1  471  23.454   7.408  20.816  0.0196  0.2618 -0.0682
   95BDT   BNZ2  472  23.500   7.532  20.689 -0.0777  0.0973 -0.2672
   95BDT   BNZ3  473  23.502   7.298  20.594  0.0405 -0.0499  0.0880
   95BDT    BS1  474  23.450   7.179  20.742  0.1402  0.1489  0.2797
   95BDT    BS2  475  23.549   7.445  20.471 -0.0700 -0.2063 -0.1452
   96BDT   BNZ1  476  25.514   3.541  16.753  0.1708  0.1337  0.1090
   96BDT   BNZ2  477  25.418   3.392  16.801 -0.0272  0.2246  0.0029
   96BDT   BNZ3  478  25.624   3.418  16.944 -0.1975  0.0651  0.2824
   96BDT    BS1  479  25.714   3.581  16.880  0.0325 -0.0248  0.3774
   96BDT    BS2  480  25.509   3.263  16.982 -0.3892  0.1739  0.1477
   97BDT   BNZ1  481  20.970  17.598  23.277 -0.3950 -0.0775 -0.1728
   97BDT   BNZ2  482  21.097  17.475  23.231 -0.0585  0.1364  0.1556
   97BDT   BNZ3  483  20.974  17.406  23.440 -0.1918  0.1353  0.0773
   97BDT    BS1  484  20.842  17.548  23.475 -0.5489 -0.1076 -0.2834
   97BDT    BS2  485  21.116  17.284  23.375  0.1625  0.3611  0.4249
   98BDT   BNZ1  486   6.456   7.385   7.816  0.1339 -0.0422 -0.0204
   98BDT   BNZ2  487   6.441   7.547   7.900  0.1716 -0.1122  0.1211
   98BDT   BNZ3  488   6.627   7.549   7.730  0.0295  0.0608 -0.0341
   98BDT    BS1  489   6.629   7.369   7.649 -0.0021  0.1269 -0.1776
   98BDT    BS2  490   6.597   7.716   7.831  0.0794 -0.0251  0.1258
   99BDT   BNZ1  491   0.420   5.462  14.516  0.0486  0.2495  0.1711
   99BDT   BNZ2  492   0.557   5.561  14.447 -0.0879  0.0170 -0.4753
   99BDT   BNZ3  493   0.605   5.314  14.431 -0.2814 -0.0546 -0.0357
   99BDT    BS1  494   0.449   5.223  14.508 -0.1005  0.2221  0.6404
   99BDT    BS2  495   0.744   5.437  14.361 -0.4140 -0.2916 -0.7365
  100BDT   BNZ1  496  27.738   1.104  18.067 -0.1697  0.2354 -0.1586
  100BDT   BNZ2  497  27.767   1.255  17.968  0.0118  0.0873 -0.3357
  100BDT   BNZ3  498  27.980   1.173  18.072 -0.1224  0.0653 -0.0744
  100BDT    BS1  499  27.932   1.012  18.175 -0.3138  0.2352  0.0992
  100BDT    BS2  500  27.993   1.336  17.961  0.0751 -0.0862 -0.2789
  101BDT   BNZ1  501  13.351   0.912  23.661  0.1753 -0.1308 -0.1140
  101BDT   BNZ2  502  13.468   0.991  23.545  0.2048  0.0241  0.0192
  101BDT   BNZ3  503  13.251   1.118  23.556  0.1916 -0.0061  0.1114
  101BDT    BS1  504  13.138   1.020  23.684  0.1606 -0.1758 -0.0438
  101BDT    BS2  505  13.390   1.189  23.435  0.2222  0.1552  0.2431
  102BDT   BNZ1  506   5.275  19.033  12.670  0.0230 -0.2001 -0.2511
  102BDT   BNZ2  507   5.145  19.158  12.634 -0.2757 -0.4044  0.0810
  102BDT   BNZ3  508   5.220  19.040  12.424 -0.2519  0.0726 -0.1850
  102BDT    BS1  509   5.357  18.911  12.480  0.0676  0.2729 -0.5326
  102BDT    BS2  510   5.080  19.179  12.404 -0.5628 -0.1768  0.1833
  103BDT   BNZ1  511  11.844  16.013   9.623  0.0692  0.0185  0.0052
  103BDT   BNZ2  512  11.893  15.894   9.753  0.0874  0.0195 -0.0008
  103BDT   BNZ3  513  11.643  15.912   9.736  0.0854  0.0891  0.0982
  103BDT    BS1  514  11.607  16.043   9.594  0.0657  0.0827  0.0972
  103BDT    BS2  515  11.714  15.787   9.872  0.1047  0.0844  0.0838
  104BDT   BNZ1  516   6.233  15.304  17.541  0.0433 -0.2908 -0.1823
  104BDT   BNZ2  517   6.323  15.257  17.693  0.1923 -0.0866 -0.2041
  104BDT   BNZ3  518   6.074  15.235  17.723  0.1934  0.3847  0.2263
  104BDT    BS1  519   5.994  15.289  17.551  0.0351  0.1245  0.2100
  104BDT    BS2  520   6.187  15.187  17.878  0.3528  0.5613  0.1584
  105BDT   BNZ1  521  15.523  15.720   8.566  0.0449  0.1570  0.0291
  105BDT   BNZ2  522  15.676  15.774   8.480  0.0403  0.2285  0.0667
  105BDT   BNZ3  523  15.677  15.844   8.722  0.1601 -0.1778  0.1870
  105BDT    BS1  524  15.508  15.778   8.799  0.1556 -0.2268  0.1327
  105BDT    BS2  525  15.834  15.895   8.614  0.1454 -0.0719  0.2129
  106BDT   BNZ1  526  24.745  13.096  14.576  0.1564 -0.0603  0.1711
  106BDT   BNZ2  527  24.789  13.183  14.731 -0.2417  0.2245  0.1304
  106BDT   BNZ3  528  24.576  13.051  14.757 -0.2330  0.1548 -0.1319
  106BDT    BS1  529  24.544  12.964  14.584  0.2115 -0.1523 -0.0631
  106BDT    BS2  530  24.638  13.152  14.915 -0.6455  0.4517 -0.1615
  107BDT   BNZ1  531   7.880  14.044   2.686 -0.0459  0.0388  0.0152
  107BDT   BNZ2  532   8.048  14.078   2.622  0.0401 -0.1452  0.1411
  107BDT   BNZ3  533   7.909  13.953   2.452 -0.0063  0.1027 -0.0051
  107BDT    BS1  534   7.733  13.926   2.537 -0.0942  0.2889 -0.1345
  107BDT    BS2  535   8.094  13.998   2.400  0.0875 -0.1073  0.1373
  108BDT   BNZ1  536   0.566  11.588   0.912  0.4917  0.1898  0.2532
  108BDT   BNZ2  537   0.540  11.479   1.058 -0.2574 -0.0179 -0.0134
  108BDT   BNZ3  538   0.406  11.692   1.077  0.0263  0.1785 -0.1785
  108BDT    BS1  539   0.446  11.796   0.914  0.8337  0.3788  0.1475
  108BDT    BS2  540   0.390  11.563   1.226 -0.7676 -0.0438 -0.4551
  109BDT   BNZ1  541   0.269  15.375   4.403 -0.0221  0.0670  0.1866
  109BDT   BNZ2  542   0.209  15.288   4.552 -0.0465  0.0033  0.1400
  109BDT   BNZ3  543   0.232  15.130   4.357 -0.0017  0.0837  0.0800
  109BDT    BS1  544   0.297  15.239   4.206  0.0217  0.1479  0.1368
  109BDT    BS2  545   0.168  15.053   4.527 -0.0305  0.0115  0.0366
  110BDT   BNZ1  546  20.040  21.600   1.426 -0.1930  0.3038 -0.0616
  110BDT   BNZ2  547  20.095  21.565   1.255 -0.1928  0.1056 -0.0219
  110BDT   BNZ3  548  19.975  21.367   1.355 -0.0141  0.1466  0.2788
  110BDT    BS1  549  19.924  21.421   1.537 -0.0268  0.3661  0.2106
  110BDT    BS2  550  20.041  21.347   1.170 -0.0277 -0.0586  0.2966
  111BDT   BNZ1  551   8.380  18.998  23.346 -0.0112  0.1002 -0.0486
  111BDT   BNZ2  552   8.433  19.140  23.449 -0.0196  0.0131  0.0761
  111BDT   BNZ3  553   8.409  18.930  23.587 -0.3264 -0.0342 -0.0461
  111BDT    BS1  554   8.352  18.789  23.462 -0.2933  0.0674 -0.1768
  111BDT    BS2  555   8.466  19.093  23.682 -0.3104 -0.1198  0.0908
  112BDT   BNZ1  556  21.704   8.175  11.749  0.0615  0.4438  0.2765
  112BDT   BNZ2  557  21.526   8.218  11.751 -0.0428  0.0406  0.1486
  112BDT   BNZ3  558  21.608   8.181  11.515  0.1861  0.1244  0.2143
  112BDT    BS1  559  21.799   8.136  11.531  0.2779  0.5669  0.3522
  112BDT    BS2  560  21.418   8.229  11.537  0.0642 -0.3005  0.0775
  113BDT   BNZ1  561   0.038   6.312  10.744  0.2591  0.0400 -0.1695
  113BDT   BNZ2  562   0.068   6.386  10.908 -0.0361  0.2942 -0.2253
  113BDT   BNZ3  563  -0.071   6.176  10.926  0.3386  0.0501 -0.1145
  113BDT    BS1  564  -0.094   6.110  10.742  0.6401 -0.2073 -0.0512
  113BDT    BS2  565  -0.029   6.270  11.095  0.0040  0.3350 -0.1791
  114BDT   BNZ1  566   3.842  10.264  23.727  0.0935 -0.0691  0.0728
  114BDT   BNZ2  567   3.704  10.384  23.715  0.0723 -0.0923  0.0843
  114BDT   BNZ3  568   3.920  10.500  23.772  0.0433 -0.0649  0.1383
  114BDT    BS1  569   4.057  10.358  23.781  0.0690 -0.0412  0.1214
  114BDT    BS2  570   3.760  10.614  23.755  0.0238 -0.0912  0.1458
  115BDT   BNZ1  571  17.209  28.589  20.190  0.1950  0.0302  0.1313
  115BDT   BNZ2  572  17.079  28.663  20.086  0.0720 -0.2325  0.0940
  115BDT   BNZ3  573  17.223  28.840  20.192 -0.0245  0.0479 -0.2355
  115BDT    BS1  574  17.357  28.744  20.299  0.1155  0.3166 -0.1717
  115BDT    BS2  575  17.076  28.903  20.075 -0.1443 -0.2498 -0.2474
  116BDT   BNZ1  576  14.421  26.706  25.062 -0.0851  0.1289  0.2322
  116BDT   BNZ2  577  14.472  26.775  25.224  0.1007  0.0228  0.2190
  116BDT   BNZ3  578  14.661  26.783  25.057 -0.0834  0.1118  0.0130
  116BDT    BS1  579  14.589  26.707  24.891 -0.2756  0.2233  0.0463
  116BDT    BS2  580  14.699  26.853  25.238  0.1229 -0.0051  0.0168
  117BDT   BNZ1  581  17.405   7.326  23.643 -0.0013 -0.2846  0.0299
  117BDT   BNZ2  582  17.389   7.254  23.476  0.2953 -0.2815 -0.0031
  117BDT   BNZ3  583  17.631   7.285  23.539  0.1833 -0.1195  0.3574
  117BDT    BS1  584  17.630   7.362  23.720 -0.1401 -0.1371  0.3627
  117BDT    BS2  585  17.595   7.208  23.361  0.4969 -0.1287  0.2959
  118BDT   BNZ1  586  22.357  21.901   7.395  0.2459  0.0462 -0.4363
  118BDT   BNZ2  587  22.293  21.828   7.240 -0.0568 -0.1224 -0.2369
  118BDT   BNZ3  588  22.137  21.783   7.434  0.2476  0.2011  0.0904
  118BDT    BS1  589  22.221  21.867   7.591  0.5620  0.3624 -0.1645
  118BDT    BS2  590  22.083  21.712   7.257 -0.0851  0.0034  0.2699
  119BDT   BNZ1  591  14.213   2.642  14.753 -0.0871 -0.3908 -0.2305
  119BDT   BNZ2  592  14.062   2.741  14.726  0.0645 -0.0735  0.0437
  119BDT   BNZ3  593  14.242   2.802  14.561  0.1387  0.0689  0.1772
  119BDT    BS1  594  14.396   2.687  14.604 -0.0359 -0.2966 -0.1345
  119BDT    BS2  595  14.071   2.900  14.546  0.2987  0.3767  0.4546
  120BDT   BNZ1  596   4.322  12.899  26.972  0.0110  0.2351 -0.1294
  120BDT   BNZ2  597   4.428  13.000  27.083 -0.0122 -0.0808  0.1871
  120BDT   BNZ3  598   4.184  13.025  27.141 -0.0570  0.0791 -0.0678
  120BDT    BS1  599   4.086  12.912  27.013 -0.0217  0.4229 -0.3931
  120BDT    BS2  600   4.312  13.127  27.251 -0.0782 -0.2614  0.2793
  121BDT   BNZ1  601  25.331   4.813   5.183 -0.1201  0.0733  0.0051
  121BDT   BNZ2  602  25.364   4.912   5.334 -0.1617 -0.0729  0.1109
  121BDT   BNZ3  603  25.340   5.060   5.131  0.3123  0.0961  0.1737
  121BDT    BS1  604  25.306   4.939   4.979  0.3223  0.2429  0.0559
  121BDT    BS2  605  25.376   5.150   5.303  0.2310 -0.0723  0.2810
  122BDT   BNZ1  606  28.743  12.653   3.967 -0.2029 -0.2079 -0.1573
  122BDT   BNZ2  607  28.717  12.737   4.128 -0.0293  0.0092 -0.2412
  122BDT   BNZ3  608  28.687  12.488   4.149 -0.1034  0.0462  0.1071
  122BDT    BS1  609  28.717  12.414   3.970 -0.2903 -0.1941  0.1754
  122BDT    BS2  610  28.663  12.596   4.313  0.0828  0.2687 -0.0105
  123BDT   BNZ1  611  16.193  23.346  13.952  0.0454  0.0733  0.1258
  123BDT   BNZ2  612  16.278  23.492  13.882  0.0930 -0.0113  0.0043
  123BDT   BNZ3  613  16.074  23.558  14.015 -0.0068  0.1514 -0.2282
  123BDT    BS1  614  15.995  23.390  14.081 -0.0510  0.2312 -0.0759
  123BDT    BS2  615  16.178  23.705  13.932  0.0513  0.0489 -0.3352
  124BDT   BNZ1  616   6.974  22.798  17.016 -0.0402  0.2067  0.0425
  124BDT   BNZ2  617   6.935  22.912  16.878 -0.1991  0.1529  0.0416
  124BDT   BNZ3  618   6.743  22.756  16.924 -0.0066 -0.0733  0.0840
  124BDT    BS1  619   6.801  22.641  17.074  0.1558  0.0057  0.0804
  124BDT    BS2  620   6.718  22.887  16.778 -0.1854 -0.1101  0.0800
  125BDT   BNZ1  621   3.322  20.391  23.330 -0.0972  0.0101 -0.2149
  125BDT   BNZ2  622   3.372  20.316  23.171 -0.0988  0.0477 -0.2334
  125BDT   BNZ3  623   3.127  20.376  23.171 -0.0765  0.1401 -0.2536
  125BDT    BS1  624   3.091  20.455  23.347 -0.0762  0.0912 -0.2314
  125BDT    BS2  625   3.199  20.293  23.006 -0.0798  0.1716 -0.2706
  126BDT   BNZ1  626  14.791   4.467  26.991 -0.2673 -0.1276 -0.0365
  126BDT   BNZ2  627  14.690   4.598  26.912 -0.2528 -0.0524  0.0689
  126BDT   BNZ3  628  14.550   4.452  27.062 -0.2673 -0.1535 -0.0424
  126BDT    BS1  629  14.672   4.318  27.138 -0.2831 -0.2281 -0.1514
  126BDT    BS2  630  14.457   4.600  26.969 -0.2513 -0.0672  0.0754
  127BDT   BNZ1  631  25.248   1.206  13.297 -0.1657  0.3487 -0.0160
  127BDT   BNZ2  632  25.076   1.151  13.328 -0.2149  0.5633  0.0950
  127BDT   BNZ3  633  25.114   1.196  13.083 -0.1725  0.0393  0.0005
  127BDT    BS1  634  25.302   1.253  13.067 -0.1274 -0.1608 -0.1108
  127BDT    BS2  635  24.933   1.136  13.136 -0.2300  0.3024  0.1270
  128BDT   BNZ1  636  17.854  28.943  20.556 -0.1540 -0.2216  0.0943
  128BDT   BNZ2  637  18.031  28.899  20.572 -0.1539 -0.2872 -0.0811
  128BDT   BNZ3  638  17.909  28.736  20.423 -0.3108 -0.1091 -0.1492
  128BDT    BS1  639  17.722  28.797  20.418 -0.2983 -0.0493  0.0514
  128BDT    BS2  640  18.102  28.704  20.451 -0.2995 -0.1901 -0.3245
  129BDT   BNZ1  641  20.371  14.333   6.508  0.0362  0.0665  0.0670
  129BDT   BNZ2  642  20.257  14.427   6.399  0.0838  0.1120  0.0565
  129BDT   BNZ3  643  20.470  14.368   6.279 -0.0972 -0.3300 -0.0548
  129BDT    BS1  644  20.580  14.268   6.408 -0.1399 -0.3454 -0.0319
  129BDT    BS2  645  20.335  14.470   6.176 -0.0370 -0.2461 -0.0540
  130BDT   BNZ1  646  27.962  19.947   9.706  0.2178 -0.1304  0.1230
  130BDT   BNZ2  647  28.022  19.937   9.533  0.1754 -0.2138  0.1127
  130BDT   BNZ3  648  27.904  19.725   9.601 -0.0675 -0.0698  0.1469
  130BDT    BS1  649  27.846  19.752   9.787 -0.0012  0.0129  0.1558
  130BDT    BS2  650  27.977  19.732   9.417 -0.0912 -0.1665  0.1337
  131BDT   BNZ1  651  24.568  13.482  14.743 -0.3048  0.0353  0.2417
  131BDT   BNZ2  652  24.445  13.360  14.686 -0.1819  0.0284 -0.0122
  131BDT   BNZ3  653  24.613  13.413  14.505  0.2372 -0.0232  0.3535
  131BDT    BS1  654  24.737  13.545  14.583  0.0635 -0.0138  0.6112
  131BDT    BS2  655  24.472  13.282  14.460  0.3285 -0.0250  0.0667
  132BDT   BNZ1  656  25.695  20.247  16.562  0.0277  0.0859  0.1282
  132BDT   BNZ2  657  25.710  20.420  16.620  0.0998  0.1080  0.0428
  132BDT   BNZ3  658  25.631  20.410  16.381  0.1739  0.0258  0.0219
  132BDT    BS1  659  25.621  20.219  16.335  0.0882  0.0068  0.1182
  132BDT    BS2  660  25.652  20.590  16.460  0.2425  0.0550 -0.0645
  133BDT   BNZ1  661  23.853  10.984  17.007 -0.1600 -0.2952 -0.0191
  133BDT   BNZ2  662  24.021  10.984  17.078 -0.1361  0.0978 -0.0635
  133BDT   BNZ3  663  23.857  10.872  17.232  0.0932  0.0648  0.1606
  133BDT    BS1  664  23.682  10.881  17.141  0.0530 -0.3675  0.1916
  133BDT    BS2  665  24.044  10.881  17.293  0.0947  0.4752  0.0920
  134BDT   BNZ1  666  16.893  14.125  10.374 -0.0817 -0.0337  0.0699
  134BDT   BNZ2  667  16.764  14.255  10.383 -0.0872 -0.0291 -0.0697
  134BDT   BNZ3  668  16.720  14.095  10.193 -0.0347 -0.1860  0.0496
  134BDT    BS1  669  16.866  13.963  10.198 -0.0333 -0.1780  0.1957
  134BDT    BS2  670  16.591  14.242  10.217 -0.0444 -0.1684 -0.1041
  135BDT   BNZ1  671   3.202  21.908  17.956 -0.1349  0.0860  0.0517
  135BDT   BNZ2  672   3.126  21.762  18.036 -0.0348 -0.2157 -0.3817
  135BDT   BNZ3  673   3.375  21.769  18.076 -0.0800  0.0024 -0.1214
  135BDT    BS1  674   3.440  21.930  17.984 -0.1938  0.3089  0.3456
  135BDT    BS2  675   3.276  21.618  18.156  0.0283 -0.3249 -0.5922
  136BDT   BNZ1  676  13.273  29.067   1.010 -0.0456 -0.0979  0.0920
  136BDT   BNZ2  677  13.374  29.063   0.858 -0.0581  0.0829  0.0769
  136BDT   BNZ3  678  13.165  28.925   0.833  0.0446 -0.0617  0.0076
  136BDT    BS1  679  13.068  28.941   1.004  0.0518 -0.2509  0.0281
  136BDT    BS2  680  13.287  28.931   0.677  0.0237  0.1373 -0.0023
  137BDT   BNZ1  681  20.632   2.267  15.287 -0.3003 -0.4233  0.4497
  137BDT   BNZ2  682  20.561   2.435  15.303 -0.0388 -0.2835  0.1859
  137BDT   BNZ3  683  20.411   2.262  15.408 -0.3804  0.0960  0.3359
  137BDT    BS1  684  20.501   2.089  15.382 -0.6431 -0.0805  0.6154
  137BDT    BS2  685  20.350   2.450  15.415 -0.0775  0.2093  0.0484
  138BDT   BNZ1  686  28.164  21.958  22.049 -0.2816 -0.0170  0.0610
  138BDT   BNZ2  687  28.115  22.132  22.023  0.1500  0.0821 -0.1287
  138BDT   BNZ3  688  28.064  21.991  21.820  0.0005  0.0311 -0.0568
  138BDT    BS1  689  28.122  21.809  21.865 -0.4692 -0.0665  0.1470
  138BDT    BS2  690  28.018  22.183  21.810  0.4605  0.1328 -0.2579
  139BDT   BNZ1  691  21.254  19.641  12.730 -0.2075  0.0581 -0.1775
  139BDT   BNZ2  692  21.325  19.527  12.606 -0.0346  0.0834 -0.1036
  139BDT   BNZ3  693  21.130  19.421  12.725  0.0392 -0.0848 -0.1295
  139BDT    BS1  694  21.066  19.556  12.854 -0.1572 -0.0993 -0.2103
  139BDT    BS2  695  21.219  19.312  12.587  0.2120 -0.0426 -0.0498
  140BDT   BNZ1  696  27.116   1.036  10.996 -0.0206 -0.2482 -0.1240
  140BDT   BNZ2  697  26.944   1.050  10.936  0.0010 -0.1606 -0.1663
  140BDT   BNZ3  698  27.109   1.079  10.748  0.0603 -0.3945 -0.1524
  140BDT    BS1  699  27.288   1.061  10.830  0.0295 -0.4736 -0.1063
  140BDT    BS2  700  26.918   1.091  10.701  0.0765 -0.2851 -0.1965
  141BDT   BNZ1  701  19.729  26.406  10.796 -0.1396  0.1118  0.0081
  141BDT   BNZ2  702  19.640  26.259  10.859 -0.1168  0.0910 -0.0077
  141BDT   BNZ3  703  19.809  26.343  11.026 -0.0474  0.0287 -0.0467
  141BDT    BS1  704  19.894  26.500  10.943 -0.0780  0.0566 -0.0261
  141BDT    BS2  705  19.704  26.184  11.078 -0.0292  0.0128 -0.0601
  142BDT   BNZ1  706  10.960  15.331  27.189  0.0210 -0.1540 -0.0405
  142BDT   BNZ2  707  10.903  15.481  27.277 -0.0008 -0.1785 -0.0133
  142BDT   BNZ3  708  10.855  15.496  27.030 -0.1600 -0.2146  0.0152
  142BDT    BS1  709  10.922  15.328  26.952 -0.1230 -0.1856 -0.0171
  142BDT    BS2  710  10.800  15.650  27.142 -0.1693 -0.2377  0.0413
  143BDT   BNZ1  711  19.125  20.809  16.215 -0.0613 -0.3735 -0.1287
  143BDT   BNZ2  712  19.172  20.674  16.330 -0.0023 -0.1694  0.0914
  143BDT   BNZ3  713  19.357  20.844  16.306 -0.1995  0.0456  0.0758
  143BDT    BS1  714  19.290  20.980  16.181 -0.2519 -0.1988 -0.1675
  143BDT    BS2  715  19.391  20.691  16.427 -0.1263  0.2426  0.3006
  144BDT   BNZ1  716  17.955   3.501  18.084  0.0381  0.1144  0.0298
  144BDT   BNZ2  717  17.776   3.491  18.120  0.0686  0.0862  0.1746
  144BDT   BNZ3  718  17.897   3.284  18.198  0.1017 -0.0764 -0.2941
  144BDT    BS1  719  18.086   3.311  18.151  0.0610 -0.0293 -0.4193
  144BDT    BS2  720  17.702   3.290  18.229  0.1279 -0.0890 -0.1074
  145BDT   BNZ1  721  20.390  14.730  19.413 -0.0730  0.1805  0.0166
  145BDT   BNZ2  722  20.500  14.585  19.433  0.0864  0.2924 -0.0402
  145BDT   BNZ3  723  20.258  14.515  19.425  0.1521  0.0442  0.0829
  145BDT    BS1  724  20.154  14.681  19.404 -0.0273 -0.0621  0.1367
  145BDT    BS2  725  20.392  14.371  19.446  0.3123  0.1813  0.0141
  146BDT   BNZ1  726   9.197  23.200  18.126  0.1555 -0.0143  0.0472
  146BDT   BNZ2  727   9.374  23.158  18.136  0.1865  0.1195  0.0620
  146BDT   BNZ3  728   9.304  23.200  17.898  0.1700  0.0446  0.0539
  146BDT    BS1  729   9.112  23.243  17.905  0.1373 -0.0982  0.0380
  146BDT    BS2  730   9.493  23.153  17.928  0.2033  0.1891  0.0698
  147BDT   BNZ1  731  10.231  20.427  16.894  0.0807  0.1391  0.2883
  147BDT   BNZ2  732  10.307  20.458  16.731 -0.0219 -0.0819  0.1966
  147BDT   BNZ3  733  10.467  20.514  16.918  0.2158 -0.1448  0.0151
  147BDT    BS1  734  10.370  20.475  17.085  0.3098  0.1047  0.1290
  147BDT    BS2  735  10.532  20.541  16.733  0.0874 -0.3694 -0.0635
  148BDT   BNZ1  736  22.827   5.796  26.651 -0.0209  0.0916 -0.0628
  148BDT   BNZ2  737  22.744   5.733  26.801 -0.1271 -0.1911 -0.2367
  148BDT   BNZ3  738  22.577   5.824  26.636 -0.0182  0.0361 -0.2235
  148BDT    BS1  739  22.682   5.887  26.482  0.0890  0.3301 -0.0265
  148BDT    BS2  740  22.504   5.751  26.804 -0.1359 -0.2745 -0.4054
  149BDT   BNZ1  741  27.695  16.579   4.601 -0.0766  0.1840  0.0257
  149BDT   BNZ2  742  27.603  16.445   4.686  0.1186  0.0260 -0.0098
  149BDT   BNZ3  743  27.785  16.541   4.833  0.1807  0.0394 -0.0950
  149BDT    BS1  744  27.872  16.681   4.727 -0.0408  0.2142 -0.0501
  149BDT    BS2  745  27.675  16.395   4.909  0.3789 -0.1226 -0.1271
  150BDT   BNZ1  746  20.421  13.643  25.696  0.3545 -0.2180  0.3230
  150BDT   BNZ2  747  20.309  13.507  25.746 -0.1075  0.0653  0.0928
  150BDT   BNZ3  748  20.287  13.706  25.901  0.0996  0.1147  0.0604
  150BDT    BS1  749  20.413  13.841  25.833  0.5904 -0.2118  0.3202
  150BDT    BS2  750  20.173  13.549  25.940 -0.3886  0.4105 -0.1787
  151BDT   BNZ1  751  16.634  28.043  20.056 -0.2315 -0.0976  0.0977
  151BDT   BNZ2  752  16.573  28.065  19.884 -0.0236 -0.2188  0.0061
  151BDT   BNZ3  753  16.426  27.907  20.016 -0.1456 -0.1773 -0.0800
  151BDT    BS1  754  16.506  27.895  20.195 -0.3676 -0.0458  0.0262
  151BDT    BS2  755  16.375  27.942  19.828  0.0798 -0.3062 -0.1665
  152BDT   BNZ1  756   8.242  28.068  22.262  0.0929 -0.1381 -0.0874
  152BDT   BNZ2  757   8.261  28.068  22.080  0.1163 -0.0939 -0.0843
  152BDT   BNZ3  758   8.478  28.124  22.194  0.0906 -0.0772 -0.0436
  152BDT    BS1  759   8.441  28.119  22.387  0.0665 -0.1275 -0.0495
  152BDT    BS2  760   8.479  28.121  21.997  0.1171 -0.0328 -0.0442
  153BDT   BNZ1  761  14.309  11.742   7.289 -0.1233  0.0422 -0.1612
  153BDT   BNZ2  762  14.158  11.841   7.321 -0.0924  0.0526 -0.0439
  153BDT   BNZ3  763  14.349  11.987   7.244 -0.1634  0.0290 -0.2683
  153BDT    BS1  764  14.501  11.866   7.215 -0.1940  0.0199 -0.3806
  153BDT    BS2  765  14.177  12.078   7.283 -0.1269  0.0418 -0.1285
  154BDT   BNZ1  766  27.156   2.645  15.722 -0.2695 -0.1781 -0.1654
  154BDT   BNZ2  767  27.171   2.755  15.868  0.2315 -0.1007 -0.2674
  154BDT   BNZ3  768  27.069   2.876  15.671 -0.0955 -0.0980 -0.1003
  154BDT    BS1  769  27.060   2.745  15.525 -0.6248 -0.1760  0.0112
  154BDT    BS2  770  27.094   2.980  15.838  0.4493 -0.0198 -0.2207
  155BDT   BNZ1  771   0.318  16.666  14.073 -0.0558  0.1917 -0.3272
  155BDT   BNZ2  772   0.385  16.835  14.092  0.1768  0.0816 -0.1372
  155BDT   BNZ3  773   0.517  16.703  13.923  0.3085 -0.0685  0.0817
  155BDT    BS1  774   0.433  16.525  13.915  0.0363  0.0633 -0.1438
  155BDT    BS2  775   0.575  16.889  13.957  0.5325 -0.1773  0.2622
  156BDT   BNZ1  776   0.689  28.109  27.140 -0.0068 -0.0855 -0.0313
  156BDT   BNZ2  777   0.771  28.264  27.088 -0.5799  0.1650 -0.2277
  156BDT   BNZ3  778   0.752  28.102  26.896 -0.4992  0.0868 -0.1698
  156BDT    BS1  779   0.662  27.942  26.969  0.1356 -0.1751  0.0413
  156BDT    BS2  780   0.838  28.275  26.858 -1.1049  0.3408 -0.3726
  157BDT   BNZ1  781  27.327  25.719  25.192 -0.1517  0.0539  0.1317
  157BDT   BNZ2  782  27.368  25.882  25.265 -0.0323  0.0342  0.1102
  157BDT   BNZ3  783  27.339  25.706  25.443  0.1313  0.0137  0.1185
  157BDT    BS1  784  27.296  25.539  25.348 -0.0139  0.0376  0.1403
  157BDT    BS2  785  27.383  25.888  25.505  0.2413 -0.0057  0.0939
  158BDT   BNZ1  786   3.713   3.046   5.524  0.2005 -0.0798 -0.1083
  158BDT   BNZ2  787   3.571   3.066   5.638  0.2232  0.0749 -0.1062
  158BDT   BNZ3  788   3.530   2.880   5.473 -0.0452  0.2138 -0.1992
  158BDT    BS1  789   3.691   2.872   5.359 -0.0483  0.0331 -0.1934
  158BDT    BS2  790   3.387   2.916   5.605  0.0027  0.3640 -0.1895
  159BDT   BNZ1  791  22.296   8.986  16.764  0.1757  0.0185  0.1743
  159BDT   BNZ2  792  22.368   8.839  16.846  0.0242 -0.0768  0.1377
  159BDT   BNZ3  793  22.298   8.787  16.610 -0.0785  0.0402  0.1417
  159BDT    BS1  794  22.224   8.954  16.537  0.0979  0.1369  0.1828
  159BDT    BS2  795  22.378   8.639  16.714 -0.2273 -0.0663  0.1035
  160BDT   BNZ1  796   3.632  24.623  13.507 -0.2048 -0.1441  0.2163
  160BDT   BNZ2  797   3.585  24.550  13.345  0.1934  0.0790 -0.0083
  160BDT   BNZ3  798   3.464  24.767  13.386 -0.4629 -0.3376  0.3409
  160BDT    BS1  799   3.525  24.832  13.561 -0.8566 -0.5690  0.5410
  160BDT    BS2  800   3.425  24.674  13.216  0.0038 -0.0828  0.0716
  161BDT   BNZ1  801  28.639   7.270  24.686  0.1064  0.1719  0.3029
  161BDT   BNZ2  802  28.804   7.198  24.718  0.0426 -0.2608 -0.2608
  161BDT   BNZ3  803  28.822   7.414  24.589  0.1766 -0.0743  0.0639
  161BDT    BS1  804  28.638   7.477  24.563  0.2572  0.3823  0.6685
  161BDT    BS2  805  28.991   7.321  24.633  0.0935 -0.5345 -0.5464
  162BDT   BNZ1  806  13.084  19.393   5.647 -0.0199  0.1954  0.0577
  162BDT   BNZ2  807  13.240  19.473   5.593  0.0827 -0.0599 -0.0283
  162BDT   BNZ3  808  13.282  19.296   5.768 -0.1115 -0.1234 -0.0444
  162BDT    BS1  809  13.106  19.222   5.814 -0.2098  0.1660  0.0512
  162BDT    BS2  810  13.440  19.392   5.698  0.0070 -0.3830 -0.1319
  163BDT   BNZ1  811  16.838  23.349   4.269 -0.0085  0.1558  0.2206
  163BDT   BNZ2  812  16.663  23.403   4.269 -0.0730 -0.0372 -0.0857
  163BDT   BNZ3  813  16.814  23.579   4.170 -0.0789  0.1607  0.2497
  163BDT    BS1  814  16.996  23.505   4.178 -0.0162  0.3620  0.5640
  163BDT    BS2  815  16.621  23.621   4.179 -0.1468 -0.0551 -0.0942
  164BDT   BNZ1  816  14.528   4.263  16.246 -0.0315 -0.2001 -0.0765
  164BDT   BNZ2  817  14.546   4.422  16.158  0.1064 -0.1355  0.0666
  164BDT   BNZ3  818  14.669   4.237  16.039 -0.3959 -0.2295 -0.3267
  164BDT    BS1  819  14.640   4.075  16.146 -0.5125 -0.2848 -0.4549
  164BDT    BS2  820  14.678   4.417  15.958 -0.2149 -0.1481 -0.1454
  165BDT   BNZ1  821  26.857  15.608  10.721  0.1474 -0.1641 -0.1441
  165BDT   BNZ2  822  26.722  15.493  10.769  0.0979 -0.0350  0.0321
  165BDT   BNZ3  823  26.838  15.587  10.972  0.2028  0.1507 -0.1122
  165BDT    BS1  824  26.978  15.707  10.903  0.2484 -0.0080 -0.2976
  165BDT    BS2  825  26.690  15.461  11.004  0.1436  0.2697  0.0802
  166BDT   BNZ1  826  11.952  23.344  18.628  0.1740 -0.0650 -0.2070
  166BDT   BNZ2  827  11.912  23.469  18.756  0.0659 -0.1268 -0.1797
  166BDT   BNZ3  828  12.131  23.354  18.805 -0.0028 -0.1910 -0.0190
  166BDT    BS1  829  12.158  23.224  18.659  0.1216 -0.1174 -0.0624
  166BDT    BS2  830  12.072  23.492  18.933 -0.1096 -0.2503 -0.0052
  167BDT   BNZ1  831  15.083  13.931  14.760 -0.0697 -0.0661 -0.3559
  167BDT   BNZ2  832  14.918  13.929  14.838  0.0082  0.0222 -0.1845
  167BDT   BNZ3  833  14.985  13.699  14.760  0.0682 -0.1345  0.3146
  167BDT    BS1  834  15.164  13.719  14.680 -0.0198 -0.2130  0.0857
  167BDT    BS2  835  14.808  13.716  14.847  0.1497 -0.0231  0.4501
  168BDT   BNZ1  836   9.417  19.908   4.754  0.2563 -0.0378  0.0040
  168BDT   BNZ2  837   9.309  19.825   4.876  0.0472  0.2543  0.0215
  168BDT   BNZ3  838   9.322  19.694   4.661 -0.1207  0.0775  0.1181
  168BDT    BS1  839   9.441  19.795   4.542  0.1228 -0.2330  0.0943
  168BDT    BS2  840   9.209  19.619   4.805 -0.3204  0.3972  0.1265
  169BDT   BNZ1  841  12.373  24.900  27.361 -0.3523  0.1908  0.0025
  169BDT   BNZ2  842  12.208  24.975  27.335 -0.4078 -0.0229 -0.2980
  169BDT   BNZ3  843  12.223  24.749  27.225  0.0043 -0.1189 -0.0550
  169BDT    BS1  844  12.404  24.683  27.262  0.0290  0.1316  0.2608
  169BDT    BS2  845  12.051  24.846  27.208 -0.0841 -0.3297 -0.3833
  170BDT   BNZ1  846  20.648   1.649   7.659  0.1716 -0.1775  0.0243
  170BDT   BNZ2  847  20.818   1.611   7.714  0.1973  0.1710  0.2017
  170BDT   BNZ3  848  20.787   1.858   7.677 -0.0668  0.0409 -0.5438
  170BDT    BS1  849  20.601   1.882   7.620 -0.0661 -0.3476 -0.6792
  170BDT    BS2  850  20.966   1.799   7.737 -0.0180  0.4018 -0.2984
  171BDT   BNZ1  851   5.064   9.084  16.376  0.0728  0.2160  0.0984
  171BDT   BNZ2  852   4.895   9.129  16.321  0.0055  0.0368  0.1543
  171BDT   BNZ3  853   5.046   9.085  16.124 -0.0195  0.1717  0.1043
  171BDT    BS1  854   5.222   9.038  16.200  0.0551  0.3607  0.0456
  171BDT    BS2  855   4.860   9.135  16.084 -0.0868 -0.0247  0.1665
  172BDT   BNZ1  856   6.961  21.176  18.664  0.1571  0.0084 -0.3315
  172BDT   BNZ2  857   6.816  21.077  18.715 -0.0558  0.2710 -0.4148
  172BDT   BNZ3  858   6.746  21.279  18.582  0.3711  0.5311 -0.2551
  172BDT    BS1  859   6.913  21.373  18.535  0.5743  0.2139 -0.1714
  172BDT    BS2  860   6.602  21.161  18.646  0.1219  0.7798 -0.3527
  173BDT   BNZ1  861  17.808   8.773  28.839 -0.2655 -0.3374 -0.1523
  173BDT   BNZ2  862  17.717   8.921  28.779 -0.1475 -0.2097 -0.0218
  173BDT   BNZ3  863  17.888   8.845  28.611 -0.1547 -0.1509 -0.0565
  173BDT    BS1  864  17.976   8.687  28.690 -0.2860 -0.2964 -0.1984
  173BDT    BS2  865  17.780   9.003  28.563 -0.0315 -0.0251  0.0827
  174BDT   BNZ1  866   8.420  14.049  17.860  0.0953  0.1476  0.2742
  174BDT   BNZ2  867   8.556  13.955  17.782 -0.1714  0.0583 -0.0962
  174BDT   BNZ3  868   8.540  14.188  17.688 -0.3102  0.0479 -0.1001
  174BDT    BS1  869   8.390  14.274  17.783 -0.0024  0.1449  0.3116
  174BDT    BS2  870   8.682  14.072  17.615 -0.5830 -0.0400 -0.4772
  175BDT   BNZ1  871  17.028  20.786  27.016 -0.1086 -0.0498  0.2167
  175BDT   BNZ2  872  17.120  20.645  27.086 -0.0948 -0.1894 -0.0764
  175BDT   BNZ3  873  17.276  20.830  27.015 -0.0919 -0.1460  0.0430
  175BDT    BS1  874  17.161  20.973  26.943 -0.1050  0.0023  0.3607
  175BDT    BS2  875  17.359  20.669  27.093 -0.0788 -0.2921 -0.2707
  176BDT   BNZ1  876  11.469  10.706   0.564 -0.2240  0.1828  0.1110
  176BDT   BNZ2  877  11.396  10.577   0.671 -0.0883  0.1068  0.1134
  176BDT   BNZ3  878  11.218  10.714   0.556 -0.2352 -0.2480 -0.0890
  176BDT    BS1  879  11.313  10.846   0.447 -0.3707 -0.1372 -0.0751
  176BDT    BS2  880  11.156  10.569   0.676 -0.0788 -0.2980 -0.0698
  177BDT   BNZ1  881   1.206  24.419  25.471 -0.0908  0.1725  0.0593
  177BDT   BNZ2  882   1.353  24.526  25.449 -0.0579  0.1115 -0.0182
  177BDT   BNZ3  883   1.325  24.457  25.690 -0.1388  0.3780  0.0506
  177BDT    BS1  884   1.165  24.343  25.696 -0.1684  0.4258  0.1300
  177BDT    BS2  885   1.479  24.573  25.648 -0.0976  0.2939 -0.0364
  178BDT   BNZ1  886   4.322  25.145   5.914 -0.1818  0.3127 -0.2728
  178BDT   BNZ2  887   4.371  25.293   6.009 -0.0309  0.1177 -0.0432
  178BDT   BNZ3  888   4.570  25.184   5.900 -0.0883 -0.1174  0.0837
  178BDT    BS1  889   4.500  25.028   5.802 -0.2548  0.1167 -0.1806
  178BDT    BS2  890   4.606  25.346   6.007  0.0672 -0.3058  0.3076
  179BDT   BNZ1  891  23.560  18.141  14.981  0.1032 -0.0724 -0.1049
  179BDT   BNZ2  892  23.436  18.263  15.038  0.3150  0.0221  0.1655
  179BDT   BNZ3  893  23.338  18.031  15.028  0.0661  0.1249  0.1920
  179BDT    BS1  894  23.483  17.913  14.966 -0.1515  0.0155 -0.1091
  179BDT    BS2  895  23.218  18.176  15.088  0.3087  0.2124  0.4682
  180BDT   BNZ1  896  25.340  15.880  21.291 -0.0943 -0.0561 -0.1979
  180BDT   BNZ2  897  25.499  15.795  21.321 -0.0783  0.0251 -0.0494
  180BDT   BNZ3  898  25.533  16.017  21.206 -0.0786  0.0673  0.0315
  180BDT    BS1  899  25.353  16.093  21.182 -0.0972 -0.0262 -0.1394
  180BDT    BS2  900  25.696  15.911  21.246 -0.0640  0.1483  0.1784
  181BDT   BNZ1  901  22.487  18.368   6.528  0.2509 -0.2383  0.0969
  181BDT   BNZ2  902  22.475  18.313   6.354  0.0417 -0.0363  0.0444
  181BDT   BNZ3  903  22.340  18.165   6.507  0.0576 -0.0914  0.0058
  181BDT    BS1  904  22.364  18.238   6.689  0.2886 -0.3118  0.0645
  181BDT    BS2  905  22.338  18.119   6.315 -0.1596  0.1231 -0.0431
  182BDT   BNZ1  906   7.578  10.114  16.527  0.2915  0.0349  0.2296
  182BDT   BNZ2  907   7.490  10.062  16.678  0.1623  0.0879  0.1733
  182BDT   BNZ3  908   7.377  10.259  16.570  0.1484 -0.0625 -0.0931
  182BDT    BS1  909   7.484  10.303  16.410  0.2941 -0.1115 -0.0094
  182BDT    BS2  910   7.294  10.189  16.735  0.0179  0.0032 -0.1301
  183BDT   BNZ1  911  11.522   3.589   2.172  0.0348 -0.1720 -0.1231
  183BDT   BNZ2  912  11.597   3.720   2.067 -0.0504 -0.0856 -0.0768
  183BDT   BNZ3  913  11.767   3.621   2.225 -0.0649  0.2125  0.1305
  183BDT    BS1  914  11.671   3.484   2.329  0.0271  0.0929  0.0625
  183BDT    BS2  915  11.830   3.764   2.104 -0.1559  0.2763  0.1616
  184BDT   BNZ1  916  21.925  19.731  20.757 -0.1928 -0.0402  0.2962
  184BDT   BNZ2  917  21.949  19.912  20.748  0.0676 -0.0896 -0.3087
  184BDT   BNZ3  918  21.750  19.839  20.611  0.0677 -0.2787 -0.2092
  184BDT    BS1  919  21.740  19.643  20.631 -0.2184 -0.1989  0.4552
  184BDT    BS2  920  21.790  20.033  20.614  0.3367 -0.3297 -0.8410
  185BDT   BNZ1  921  14.236   5.606  11.436  0.2429 -0.0854  0.2865
  185BDT   BNZ2  922  14.208   5.431  11.390 -0.0862  0.0277  0.0425
  185BDT   BNZ3  923  14.011   5.525  11.516 -0.0840  0.3368 -0.1776
  185BDT    BS1  924  14.057   5.711  11.558  0.2861  0.1883  0.1082
  185BDT    BS2  925  13.998   5.336  11.457 -0.4180  0.4396 -0.4114
  186BDT   BNZ1  926   5.942   2.420  22.241  0.1378  0.0439 -0.3096
  186BDT   BNZ2  927   5.994   2.381  22.412 -0.0458  0.1730 -0.2223
  186BDT   BNZ3  928   5.997   2.175  22.267  0.0182  0.0438 -0.0404
  186BDT    BS1  929   5.939   2.234  22.088  0.2176 -0.0889 -0.1488
  186BDT    BS2  930   6.051   2.152  22.455 -0.1775  0.1893  0.0338
  187BDT   BNZ1  931  17.700   6.441  11.438 -0.2870 -0.0741  0.0329
  187BDT   BNZ2  932  17.646   6.600  11.366 -0.1727 -0.1611 -0.2515
  187BDT   BNZ3  933  17.884   6.613  11.448 -0.2475 -0.1123 -0.0382
  187BDT    BS1  934  17.926   6.435  11.521 -0.3702 -0.0146  0.2587
  187BDT    BS2  935  17.809   6.776  11.366 -0.1231 -0.2066 -0.3494
  188BDT   BNZ1  936  27.042  11.011  20.083 -0.0469 -0.0165  0.0395
  188BDT   BNZ2  937  27.136  11.003  19.926  0.0155 -0.1365  0.0818
  188BDT   BNZ3  938  26.887  10.995  19.885  0.0291 -0.0564 -0.0173
  188BDT    BS1  939  26.803  11.005  20.063 -0.0405  0.0705 -0.0574
  188BDT    BS2  940  27.004  10.988  19.726  0.0925 -0.1871  0.0350
  189BDT   BNZ1  941   6.714   0.360  14.111 -0.1567 -0.0072 -0.0511
  189BDT   BNZ2  942   6.639   0.502  14.198 -0.1910 -0.0649  0.0131
  189BDT   BNZ3  943   6.818   0.393  14.338 -0.0539  0.0126 -0.1003
  189BDT    BS1  944   6.887   0.244  14.230 -0.0271  0.0713 -0.1629
  189BDT    BS2  945   6.725   0.549  14.417 -0.1009 -0.0530 -0.0248
  190BDT   BNZ1  946   6.928  19.054  28.997  0.0986  0.1850  0.0842
  190BDT   BNZ2  947   6.840  19.060  29.157 -0.0960 -0.0762 -0.0094
  190BDT   BNZ3  948   6.685  19.116  28.966  0.0661 -0.0404 -0.1310
  190BDT    BS1  949   6.795  19.105  28.803  0.2685  0.2466 -0.0145
  190BDT    BS2  950   6.607  19.117  29.148 -0.1461 -0.3138 -0.2205
  191BDT   BNZ1  951  11.750  24.386  18.380  0.2359  0.0597  0.0854
  191BDT   BNZ2  952  11.606  24.286  18.431  0.1001  0.1163 -0.1775
  191BDT   BNZ3  953  11.546  24.445  18.245  0.4774  0.2113 -0.2224
  191BDT    BS1  954  11.711  24.544  18.202  0.5981  0.1380  0.0756
  191BDT    BS2  955  11.401  24.329  18.314  0.3096  0.2619 -0.4893
  192BDT   BNZ1  956  22.594   1.180   1.376 -0.1142  0.2382  0.0575
  192BDT   BNZ2  957  22.705   1.069   1.282 -0.1236  0.1424  0.1578
  192BDT   BNZ3  958  22.770   1.311   1.253  0.0280  0.0963  0.1084
  192BDT    BS1  959  22.641   1.415   1.360  0.0267  0.2055  0.0010
  192BDT    BS2  960  22.880   1.177   1.158  0.0053  0.0008  0.2166
  193BDT   BNZ1  961  17.053   8.661   4.363  0.3145 -0.0777  0.1567
  193BDT   BNZ2  962  16.910   8.619   4.469  0.1097 -0.0225 -0.0905
  193BDT   BNZ3  963  16.913   8.478   4.260  0.3272  0.0878 -0.1629
  193BDT    BS1  964  17.071   8.536   4.158  0.5358  0.0183  0.1198
  193BDT    BS2  965  16.766   8.445   4.387  0.1008  0.1377 -0.4137
  194BDT   BNZ1  966  27.479  16.684  19.876 -0.0520 -0.0341  0.1853
  194BDT   BNZ2  967  27.572  16.579  19.994  0.0094  0.0015  0.1689
  194BDT   BNZ3  968  27.399  16.445  19.867  0.0033 -0.0548  0.2361
  194BDT    BS1  969  27.310  16.573  19.746 -0.0642 -0.0898  0.2492
  194BDT    BS2  970  27.509  16.347  19.999  0.0674 -0.0130  0.2138
  195BDT   BNZ1  971  14.584  10.955  18.434 -0.1723 -0.1747 -0.1824
  195BDT   BNZ2  972  14.594  11.009  18.260 -0.1673  0.5145  0.0155
  195BDT   BNZ3  973  14.804  11.067  18.385  0.0049 -0.3620  0.1668
  195BDT    BS1  974  14.777  11.003  18.569 -0.0188 -1.0505 -0.1021
  195BDT    BS2  975  14.798  11.118  18.195 -0.0103  0.4217  0.3506
  196BDT   BNZ1  976  11.566  26.942  20.869  0.0588 -0.2213  0.1242
  196BDT   BNZ2  977  11.742  26.975  20.907  0.1992 -0.0203 -0.6357
  196BDT   BNZ3  978  11.707  26.735  20.838  0.1194 -0.1322 -0.2143
  196BDT    BS1  979  11.514  26.717  20.802 -0.0020 -0.3413  0.6024
  196BDT    BS2  980  11.892  26.789  20.882  0.2629  0.0833 -1.0363
  197BDT   BNZ1  981  15.501  21.538  12.851 -0.3165 -0.0462  0.2474
  197BDT   BNZ2  982  15.515  21.366  12.789 -0.1975  0.0638 -0.0381
  197BDT   BNZ3  983  15.703  21.422  12.947 -0.1427 -0.0144 -0.0754
  197BDT    BS1  984  15.673  21.608  13.004 -0.2797 -0.1316  0.2433
  197BDT    BS2  985  15.702  21.240  12.870 -0.0253  0.1103 -0.3666
  198BDT   BNZ1  986   7.335   8.023  23.996  0.2437 -0.1551  0.1554
  198BDT   BNZ2  987   7.502   8.095  24.013  0.2256 -0.0383 -0.1303
  198BDT   BNZ3  988   7.451   8.038  23.773 -0.1537 -0.0531 -0.0508
  198BDT    BS1  989   7.270   7.962  23.772 -0.1017 -0.1800  0.2637
  198BDT    BS2  990   7.628   8.117  23.810 -0.1443  0.0682 -0.3498
  199BDT   BNZ1  991   3.424   1.209   4.085  0.0885 -0.2264  0.2777
  199BDT   BNZ2  992   3.340   1.066   4.163 -0.1230 -0.1261  0.2386
  199BDT   BNZ3  993   3.374   1.028   3.916 -0.1419 -0.1258  0.2360
  199BDT    BS1  994   3.464   1.189   3.848  0.0939 -0.2375  0.2803
  199BDT    BS2  995   3.285   0.883   4.018 -0.3580 -0.0199  0.1950
  200BDT   BNZ1  996  12.255   1.099  21.409  0.1878 -0.2378 -0.2348
  200BDT   BNZ2  997  12.104   1.045  21.320 -0.1410  0.1267  0.0801
  200BDT   BNZ3  998  12.219   0.850  21.432 -0.3491 -0.1646 -0.2025
  200BDT    BS1  999  12.377   0.926  21.522  0.0214 -0.5470 -0.5369
  200BDT    BS2 1000  12.054   0.810  21.331 -0.6667  0.2414  0.1490
  201BDT   BNZ1 1001  24.991  22.968  10.059  0.0164  0.0356  0.1519
  201BDT   BNZ2 1002  24.968  22.813   9.964  0.2513 -0.0429  0.2204
  201BDT   BNZ3 1003  24.759  22.873  10.091  0.1363 -0.2678  0.1403
  201BDT    BS1 1004  24.800  23.040  10.187 -0.1144 -0.1644  0.0693
  201BDT    BS2 1005  24.753  22.708   9.983  0.3902 -0.3284  0.2185
  202BDT   BNZ1 1006  13.039  21.994   7.676  0.0664  0.2054 -0.0196
  202BDT   BNZ2 1007  12.976  21.901   7.531 -0.0475  0.2547 -0.0025
  202BDT   BNZ3 1008  12.790  22.025   7.647  0.0238  0.1270  0.2523
  202BDT    BS1 1009  12.874  22.119   7.799  0.1459  0.0814  0.2128
  202BDT    BS2 1010  12.740  21.919   7.489 -0.0983  0.1879  0.2491
  203BDT   BNZ1 1011   5.809  21.567  15.118 -0.0564 -0.0468 -0.0341
  203BDT   BNZ2 1012   5.957  21.645  15.046  0.1161 -0.1634  0.1872
  203BDT   BNZ3 1013   5.870  21.778  15.241 -0.0153 -0.1464  0.1177
  203BDT    BS1 1014   5.712  21.681  15.307 -0.1936 -0.0168 -0.1240
  203BDT    BS2 1015   6.031  21.848  15.151  0.1724 -0.2693  0.3528
  204BDT   BNZ1 1016  11.134  20.936  20.653 -0.1372 -0.1197 -0.1330
  204BDT   BNZ2 1017  11.173  20.757  20.653 -0.0031 -0.0905 -0.1128
  204BDT   BNZ3 1018  11.382  20.898  20.640 -0.0899  0.0696  0.1639
  204BDT    BS1 1019  11.322  21.085  20.640 -0.2340  0.0235  0.1203
  204BDT    BS2 1020  11.407  20.701  20.641  0.0535  0.0872  0.1624
  205BDT   BNZ1 1021  11.128   3.583   5.686 -0.0691  0.1457 -0.1485
  205BDT   BNZ2 1022  10.946   3.559   5.690 -0.0790  0.2170 -0.1694
  205BDT   BNZ3 1023  11.061   3.364   5.580 -0.1439  0.1761 -0.1647
  205BDT    BS1 1024  11.254   3.405   5.584 -0.1281  0.1002 -0.1419
  205BDT    BS2 1025  10.864   3.356   5.593 -0.1486  0.2532 -0.1867
  206BDT   BNZ1 1026   1.880   5.167   9.942  0.4363  0.0222  0.1766
  206BDT   BNZ2 1027   1.857   5.096   9.775 -0.0794  0.0160  0.2416
  206BDT   BNZ3 1028   1.816   5.344   9.774  0.0056  0.0306  0.3431
  206BDT    BS1 1029   1.844   5.404   9.960  0.5707  0.0329  0.2575
  206BDT    BS2 1030   1.796   5.250   9.602 -0.5334  0.0257  0.4105
  207BDT   BNZ1 1031  13.078  27.937  16.601  0.1464  0.2602 -0.1425
  207BDT   BNZ2 1032  13.211  27.905  16.723 -0.0270  0.0290 -0.0078
  207BDT   BNZ3 1033  13.112  27.690  16.638 -0.2436  0.1972 -0.1871
  207BDT    BS1 1034  12.971  27.741  16.510 -0.0318  0.4420 -0.3204
  207BDT    BS2 1035  13.257  27.675  16.771 -0.4075 -0.0532 -0.0353
  208BDT   BNZ1 1036   4.879  24.535   6.400  0.2753  0.1482  0.2953
  208BDT   BNZ2 1037   5.035  24.568   6.312  0.1983 -0.0668  0.0722
  208BDT   BNZ3 1038   4.990  24.321   6.327 -0.0058 -0.0152  0.3370
  208BDT    BS1 1039   4.820  24.303   6.425  0.0990  0.2221  0.5623
  208BDT    BS2 1040   5.156  24.376   6.235 -0.0705 -0.2401  0.0857
  209BDT   BNZ1 1041   0.957  25.736  20.215 -0.2355  0.0605  0.0017
  209BDT   BNZ2 1042   0.926  25.681  20.387 -0.1773  0.1304  0.0345
  209BDT   BNZ3 1043   1.162  25.629  20.316 -0.2667 -0.0969 -0.1011
  209BDT    BS1 1044   1.178  25.694  20.131 -0.3256 -0.1567 -0.1268
  209BDT    BS2 1045   1.110  25.576  20.499 -0.2005 -0.0060 -0.0551
  210BDT   BNZ1 1046  20.048  19.395  28.751 -0.0571  0.0601  0.0117
  210BDT   BNZ2 1047  19.865  19.403  28.743 -0.0524  0.0100 -0.1863
  210BDT   BNZ3 1048  19.945  19.165  28.750  0.0054  0.0319 -0.0843
  210BDT    BS1 1049  20.141  19.173  28.758 -0.0059  0.0860  0.1275
  210BDT    BS2 1050  19.750  19.193  28.742  0.0062 -0.0215 -0.2973
  211BDT   BNZ1 1051   4.537   7.975   2.775 -0.0590  0.1008  0.0515
  211BDT   BNZ2 1052   4.461   7.846   2.882 -0.2725  0.1507 -0.0368
  211BDT   BNZ3 1053   4.592   7.743   2.692 -0.2151  0.0639  0.0493
  211BDT    BS1 1054   4.665   7.894   2.589  0.0164  0.0140  0.1419
  211BDT    BS2 1055   4.503   7.619   2.818 -0.4402  0.1234 -0.0494
  212BDT   BNZ1 1056   8.441   2.698   8.197 -0.0697  0.2714 -0.0917
  212BDT   BNZ2 1057   8.569   2.573   8.236 -0.3359 -0.0486 -0.2173
  212BDT   BNZ3 1058   8.673   2.791   8.161  0.1327 -0.2767 -0.2485
  212BDT    BS1 1059   8.522   2.912   8.124  0.3921  0.0885 -0.1042
  212BDT    BS2 1060   8.797   2.644   8.208 -0.1883 -0.5889 -0.3757
  213BDT   BNZ1 1061  11.590   0.917  21.749 -0.2720  0.1975  0.0620
  213BDT   BNZ2 1062  11.720   1.035  21.695 -0.3051  0.2093  0.0078
  213BDT   BNZ3 1063  11.773   0.937  21.921 -0.1443  0.1275 -0.0644
  213BDT    BS1 1064  11.625   0.814  21.963 -0.1204  0.1210  0.0005
  213BDT    BS2 1065  11.903   1.066  21.847 -0.1921  0.1465 -0.1154
  214BDT   BNZ1 1066  13.056  21.029  12.494 -0.1062 -0.1799  0.0095
  214BDT   BNZ2 1067  13.216  21.045  12.581 -0.1532  0.2319  0.0279
  214BDT   BNZ3 1068  13.059  20.893  12.706  0.1907 -0.1126  0.0497
  214BDT    BS1 1069  12.894  20.887  12.600  0.2264 -0.5407  0.0313
  214BDT    BS2 1070  13.238  20.923  12.786  0.1155  0.3426  0.0657
  215BDT   BNZ1 1071   5.491   6.373  25.657  0.3210 -0.0281 -0.1144
  215BDT   BNZ2 1072   5.613   6.473  25.751  0.2332 -0.1720  0.1582
  215BDT   BNZ3 1073   5.393   6.461  25.872  0.1073 -0.3368 -0.0835
  215BDT    BS1 1074   5.274   6.352  25.759  0.2181 -0.1627 -0.3666
  215BDT    BS2 1075   5.537   6.565  25.959  0.0260 -0.4738  0.2156
  216BDT   BNZ1 1076   9.791  22.588  28.432 -0.0069 -0.0649  0.0805
  216BDT   BNZ2 1077   9.686  22.737  28.447 -0.1222 -0.1240 -0.1097
  216BDT   BNZ3 1078   9.586  22.541  28.569 -0.0705 -0.0982 -0.0251
  216BDT    BS1 1079   9.710  22.391  28.543  0.0518 -0.0322  0.1797
  216BDT    BS2 1080   9.485  22.710  28.576 -0.1932 -0.1624 -0.2289
  217W        W 1081   1.214   1.279   3.792  0.0268  0.1567  0.0586
  218W        W 1082   1.138   3.210   5.539 -0.1317  0.0351 -0.4124
  219W        W 1083   4.706   2.039   1.216 -0.2087  0.0443 -0.0981
  220W        W 1084   3.335   4.700   3.399 -0.0913 -0.0850  0.0578
  221W        W 1085   2.188   3.958  28.172 -0.1074 -0.2140 -0.0330
  222W        W 1086  28.191   0.447   0.002  0.0557 -0.0003  0.1931
  223W        W 1087   1.776   0.830   1.537 -0.1540 -0.1141  0.1343
  224W        W 1088   2.623   1.245   0.499  0.0642  0.2450  0.0437
  225W        W 1089   1.658   4.838   2.347 -0.1002 -0.1291  0.2120
  226W        W 1090  28.037   3.055   0.828 -0.3890  0.0796  0.1162
  227W        W 1091  27.655   0.875   1.972  0.2080  0.1187 -0.4484
  228W        W 1092   1.021   0.614   0.105  0.0421  0.0870  0.0707
  229W        W 1093   3.458   1.398  29.126 -0.0508  0.0920  0.3351
  230W        W 1094   3.816   0.439   2.106  0.0894 -0.1547 -0.2274
  231W        W 1095  25.572   0.410   2.149 -0.1392 -0.2437  0.0341
  232W        W 1096  26.795   3.185   3.441 -0.1938  0.1029 -0.3353
  233W        W 1097   1.635   2.082   0.578 -0.0248  0.1991  0.1653
  234W        W 1098   1.703  28.980   2.359  0.2300  0.1254 -0.1581
  235W        W 1099  28.032   3.345   4.298  0.1953  0.5334  0.0969
  236W        W 1100   5.851  27.692   2.786 -0.1768 -0.0775  0.0347
  237W        W 1101   2.914   2.451   3.901  0.0006  0.2018  0.2457
  238W        W 1102   0.851   1.215   0.638 -0.0757  0.0319 -0.0614
  239W        W 1103   2.503  28.477   0.608 -0.0825 -0.0523  0.1435
  240W        W 1104   0.939   0.011   3.052 -0.3499 -0.0672  0.0047
  241W        W 1105   0.837  27.714  29.015 -0.1316 -0.0208 -0.0723
  242W        W 1106  28.983   0.580   3.540 -0.0662  0.1031 -0.0276
  243W        W 1107   1.325   1.400   3.331 -0.1153  0.0553  0.0993
  244W        W 1108   0.646   3.480   2.508 -0.1010  0.2574  0.1649
  245W        W 1109   3.024   0.495   1.026  0.1726 -0.0817 -0.1077
  246W        W 1110   0.536   0.740   2.682 -0.0569 -0.4683  0.2434
  247W        W 1111   2.663   2.387   0.547  0.0365 -0.2417 -0.1240
  248W        W 1112   2.868   3.774   2.967 -0.3042  0.0353  0.1565
  249W        W 1113   1.724   0.372   2.980  0.0520  0.1911 -0.0804
  250W        W 1114   0.177   0.322   2.734 -0.1997 -0.2928 -0.0126
  251W        W 1115  28.956  28.289   2.493  0.1570 -0.1041 -0.1472
  252W        W 1116   3.536   0.857   1.957  0.1275 -0.2249 -0.3237
  253W        W 1117  28.585   0.284   0.411 -0.4965  0.0721  0.1884
  254W        W 1118   0.410   1.091   1.717  0.0457 -0.1751  0.0024
  255W        W 1119   3.835   3.022   0.751 -0.0557 -0.2694 -0.0575
  256W        W 1120   4.894   0.765   2.304  0.0739  0.0431 -0.0819
  257W        W 1121   3.457   2.481  27.408  0.0936 -0.0834 -0.0667
  258W        W 1122   4.168   0.779   3.551  0.0569  0.0406 -0.1763
  259W        W 1123   3.634   0.771   4.420  0.0504 -0.1037 -0.2393
  260W        W 1124   4.530   1.637   1.488 -0.0348 -0.2496 -0.0056
  261W        W 1125   1.846   1.599   1.957 -0.1243  0.0578 -0.1141
  262W        W 1126   2.875   2.557   0.950  0.1119  0.1696  0.1730
  263W        W 1127  28.042  28.271   4.286 -0.0367  0.0576 -0.4688
  264W        W 1128   2.989   0.651   1.861  0.2404  0.1307 -0.2448
  265W        W 1129   1.485   2.540   2.604 -0.2349  0.2638 -0.0376
  266W        W 1130   2.919  28.838   2.198 -0.0224 -0.0616  0.2380
  267W        W 1131   3.391   3.166   0.632 -0.0475 -0.2471  0.3041
  268W        W 1132   0.562   0.364   2.274  0.1754  0.2795  0.1370
  269W        W 1133   3.005   3.414   1.599 -0.0584  0.0888  0.0968
  270W        W 1134   3.426  28.904   0.951 -0.2102 -0.2234  0.0388
  271W        W 1135   2.837   1.993  25.885  0.1145  0.3249  0.0480
  272W        W 1136   3.915   2.902  28.851 -0.0276 -0.1614  0.1033
  273W        W 1137   1.109  25.552   3.324  0.0869 -0.0236  0.3279
  274W        W 1138   0.993   0.467   1.196 -0.1390  0.0291 -0.1383
  275W        W 1139   0.690   4.637   2.700 -0.1100  0.0394 -0.1208
  276W        W 1140   1.812   1.968   1.407  0.0390  0.3331 -0.0300
  277W        W 1141   4.373  27.989   0.750 -0.1606 -0.2756  0.4553
  278W        W 1142   2.013   2.439   5.627 -0.0179 -0.1973  0.0750
  279W        W 1143   0.540   1.204   2.505 -0.0393  0.1651 -0.0551
  280W        W 1144  28.496   3.200   2.745  0.4097  0.0793 -0.4152
  281W        W 1145  28.267   1.465   4.705 -0.2298  0.0737 -0.2646
  282W        W 1146   3.642  28.383  29.032  0.3390 -0.0593  0.4026
  283W        W 1147   3.675   0.220   0.792  0.0260 -0.0706 -0.2655
  284W        W 1148  28.799  28.465   0.378 -0.1079  0.1218  0.3360
  285W        W 1149  28.044   3.890   0.442 -0.1520  0.1895 -0.3768
  286W        W 1150   1.548   1.217   1.822 -0.0216 -0.1117 -0.1676
  287W        W 1151   2.022   3.488   2.772  0.1383 -0.2471  0.2503
  288W        W 1152   0.723  28.137   0.588 -0.0956  0.1984 -0.1420
  289W        W 1153   4.205   4.499   1.683 -0.3699  0.1535  0.0750
  290W        W 1154   4.694   0.727   5.103 -0.1283  0.0440 -0.1491
  291W        W 1155   1.123   4.091   0.700  0.2981  0.1307  0.2998
  292W        W 1156   0.822   0.153   3.491  0.0844 -0.2696  0.3049
  293W        W 1157   1.749   0.045  28.891 -0.0650  0.1551  0.0400
  294W        W 1158  28.788   0.024   2.884  0.0233 -0.4233 -0.2858
  295W        W 1159   2.515   0.874  28.587  0.2254  0.0697  0.1722
  296W        W 1160   3.984   1.214   0.191 -0.1561 -0.0530  0.0270
  297W        W 1161  28.137   0.411   3.173  0.1991  0.0420  0.0020
  298W        W 1162   1.093   1.016   2.028  0.1548  0.0428  0.0781
  299W        W 1163   0.541  27.158   2.643 -0.2135 -0.0205  0.2214
  300W        W 1164   2.529   0.584   2.602 -0.1222 -0.1217 -0.0560
  301W        W 1165   2.315   0.858   4.763 -0.2450  0.2781  0.1995
  302W        W 1166   5.199   0.138  28.191 -0.3112 -0.0986 -0.1107
  303W        W 1167   0.579   2.130   3.803 -0.0624  0.0077  0.2249
  304W        W 1168   4.048  28.657   2.414  0.0358  0.0418  0.1356
  305W        W 1169   2.838   3.010   2.289  0.0404 -0.1260  0.0071
  306W        W 1170   3.179  28.986   1.721  0.3522 -0.1976  0.1381
  307W        W 1171   3.247   0.579  28.710 -0.0079 -0.0970 -0.0415
  308W        W 1172   2.933   2.350   6.024 -0.1770  0.1935 -0.0796
  309W        W 1173  28.889   3.908   1.224 -0.1754  0.1210 -0.1603
  310W        W 1174   0.651  27.591  28.543  0.1188 -0.3632  0.1197
  311W        W 1175   0.370  29.061   3.550 -0.0268  0.3017  0.0216
  312W        W 1176   4.710   3.883   0.004  0.2200  0.1223  0.0173
  313W        W 1177   1.540   0.572   1.159 -0.2762  0.1119  0.0770
  314W        W 1178   0.086   5.180   3.828  0.2691 -0.0636  0.0354
  315W        W 1179   0.081  28.135   0.469  0.0809  0.1611 -0.0568
  316W        W 1180   5.170   1.138   2.077  0.0399 -0.3303 -0.1680
  317W        W 1181   2.734   4.983   1.889  0.0460 -0.1700 -0.1432
  318W        W 1182   0.277   2.135   2.312 -0.2508 -0.2977  0.2381
  319W        W 1183   3.441   0.141  28.634 -0.0680  0.1857 -0.2941
  320W        W 1184   4.653   3.740   1.151  0.0170  0.0500  0.0984
  321W        W 1185   3.457  29.072   2.175  0.2173  0.2569 -0.0539
  322W        W 1186  28.510  28.614   4.128 -0.0381 -0.1558 -0.2674
  323W        W 1187   1.814  28.783   0.900  0.2464  0.3379 -0.0082
  324W        W 1188   2.402  27.865   3.789 -0.0416 -0.0898 -0.0911
  325W        W 1189   1.007  27.745   0.749 -0.1849  0.0302  0.0335
  326W        W 1190   5.107   2.474   3.407 -0.0397 -0.1013  0.3375
  327W        W 1191  28.449   1.304   2.016 -0.0417 -0.1048 -0.3111
  328W        W 1192   0.174   3.879   2.849  0.2094  0.1688 -0.1377
  329W        W 1193   3.776   1.454   3.731  0.3308  0.0669 -0.0917
  330W        W 1194   2.195   1.301   3.867 -0.2645 -0.0504 -0.1146
  331W        W 1195   2.846   1.217   3.150 -0.0539 -0.1472  0.3530
  332W        W 1196  28.969  28.150  28.889  0.1697  0.1523  0.1177
  333W        W 1197   2.311   0.992   1.513  0.1489 -0.1290 -0.1689
  334W        W 1198   0.916   1.351   4.272  0.1781 -0.3759 -0.0205
  335W        W 1199   1.616  29.065   2.855 -0.3250  0.1550  0.4048
  336W        W 1200   4.052   0.357   1.714 -0.0873  0.1983 -0.3284
  337W        W 1201   3.956   3.323   4.177  0.1964  0.1943  0.0228
  338W        W 1202   4.224   2.731   0.885  0.0376 -0.1189 -0.0281
  339W        W 1203   2.142   1.830   1.014 -0.0914 -0.0902 -0.3160
  340W        W 1204   4.727   2.653  26.192 -0.1339  0.0261 -0.1760
  341W        W 1205   2.203   1.831   2.535 -0.0643 -0.1530 -0.1612
  342W        W 1206   0.273   2.644   1.859 -0.3779  0.1219  0.0677
  343W        W 1207   0.877  26.214   2.083 -0.2580 -0.2243 -0.1799
  344W        W 1208   6.138   2.115   5.686 -0.0580  0.0469  0.0564
  345W        W 1209   3.781   4.143   0.502 -0.1441 -0.4368 -0.0945
  346W        W 1210   3.627   2.187   2.362  0.0530  0.0960  0.0389
  347W        W 1211   3.357   3.224   1.296 -0.1361  0.0918 -0.0064
  348W        W 1212   2.821   2.003   4.276 -0.1090  0.0468  0.1155
  349W        W 1213   1.007   3.338   3.611 -0.0048  0.2962 -0.1003
  350W        W 1214   3.222   2.254   1.929 -0.3298  0.3232  0.1699
  351W        W 1215   5.058   0.558   0.824 -0.4026 -0.2429 -0.0465
  352W        W 1216   1.251   0.647   0.734  0.2220 -0.0204 -0.1925
  353W        W 1217   5.520   0.718  28.261  0.1598 -0.1727  0.1174
  354W        W 1218   2.652   0.737   4.438 -0.1359 -0.0953  0.2700
  355W        W 1219   0.471   2.162   1.655 -0.0803 -0.0324 -0.1248
  356W        W 1220  28.811   5.067   1.023 -0.0887 -0.2039  0.0714
  357W        W 1221   0.132   0.137   1.798 -0.1435 -0.0438 -0.1748
  358W        W 1222   0.874   0.579   3.704 -0.2997 -0.1736  0.0226
  359W        W 1223   2.212   3.180   0.026 -0.1682  0.3566 -0.2673
  360W        W 1224   2.067  28.768   2.750 -0.0245  0.3829 -0.2268
  361W        W 1225  27.747   3.579   2.806 -0.2410 -0.3308 -0.0014
  362W        W 1226   2.650   0.437   0.704  0.0388 -0.1227  0.0871
  363W        W 1227   2.447  28.891   0.865  0.0430  0.0320 -0.1401
  364W        W 1228   2.607   0.910   1.998 -0.2726 -0.0743 -0.1023
  365W        W 1229   2.143   2.682   3.848 -0.2468  0.2222 -0.1602
  366W        W 1230   0.114   3.571   3.334  0.1646 -0.2157  0.0606
  367W        W 1231   1.766   2.770   3.424 -0.1260  0.0857  0.0194
  368W        W 1232  27.446   0.392   1.348 -0.2253 -0.0002  0.5053
  369W        W 1233   2.282   1.535   3.366 -0.1615 -0.3209  0.1811
  370W        W 1234   1.710   1.139  28.533  0.4247 -0.1561  0.0708
  371W        W 1235   2.917   0.766   0.419  0.3565  0.2506 -0.1088
  372W        W 1236   1.904  28.660   1.377  0.1277  0.0611 -0.0546
  373W        W 1237   1.281   3.494   2.781 -0.0691  0.3950  0.0739
  374W        W 1238   2.293   2.185  27.891 -0.0029  0.0515 -0.1892
  375W        W 1239  28.891   2.452   0.683  0.2542 -0.0248  0.0849
  376W        W 1240   2.847   1.576   2.586 -0.3897  0.1064 -0.1493
  377W        W 1241   0.401   0.452   3.553 -0.3491  0.0146 -0.0146
  378W        W 1242   1.000   1.865   3.445  0.0015 -0.0594  0.0695
  379W        W 1243   0.901   0.741   5.380  0.2475  0.0140 -0.1343
  380W        W 1244   3.831   1.362   2.813  0.1029 -0.1140  0.1911
  381W        W 1245  28.948   0.143   4.470 -0.3284  0.2341 -0.2313
  382W        W 1246   0.567   1.843  28.441 -0.0958 -0.0915  0.1539
  383W        W 1247   1.853  28.682   0.072  0.1665  0.1823 -0.1071
  384W        W 1248   0.575   3.974   2.420 -0.1169 -0.1060 -0.1496
  385W        W 1249   2.840   4.321   2.084  0.3269 -0.4245  0.0029
  386W        W 1250  28.861   2.062   3.361  0.1673  0.1168 -0.0626
  387W        W 1251   1.774   1.426   4.637 -0.2277  0.0907  0.0042
  388W        W 1252   1.223   3.065   1.765  0.0162 -0.0600  0.0779
  389W        W 1253   2.277   2.678   2.156  0.0992 -0.0791 -0.2308
  390W        W 1254   4.440   2.710   0.425  0.2506 -0.1926 -0.0691
  391W        W 1255   1.278   0.463   1.656 -0.1717 -0.2800 -0.0950
  392W        W 1256   3.349   0.090   0.156 -0.1503 -0.1517 -0.0386
  393W        W 1257  28.549   0.972   3.321 -0.1627  0.0106  0.1152
  394W        W 1258   1.117   2.627   2.252 -0.0484  0.1356 -0.1706
  395W        W 1259  28.117   2.974   2.003 -0.1655 -0.1094 -0.1978
  396W        W 1260   2.936   1.938   0.530 -0.0343 -0.0747  0.1332
  397W        W 1261  28.483   3.052  26.802  0.0613  0.1024 -0.2092
  398W        W 1262   3.515   3.381  28.916  0.1910 -0.2250 -0.3613
  399W        W 1263   0.589   0.931   0.262 -0.2704 -0.1552  0.0079
  400W        W 1264  29.014   0.112   0.531  0.3976 -0.0483  0.2880
  401W        W 1265   2.779   1.445  27.767  0.0176  0.1269 -0.0209
  402W        W 1266   4.490   3.831   2.179  0.0908  0.3955 -0.1095
  403W        W 1267   0.357  28.179   0.916 -0.1528 -0.3845  0.1645
  404W        W 1268   0.877  28.784   1.922 -0.2751 -0.1014 -0.1799
  405W        W 1269   1.305   1.554   4.461 -0.0509  0.0184  0.0325
  406W        W 1270   1.476   2.844   2.996 -0.3118  0.0293 -0.2786
  407W        W 1271   1.284   2.471   0.789  0.1147  0.0329  0.2954
  408W        W 1272   1.098   8.365   0.232 -0.0701  0.3164 -0.1359
  409W        W 1273  27.764   2.356   5.660 -0.0609  0.1937 -0.0981
  410W        W 1274   0.951   1.055   2.896  0.0307 -0.2754 -0.0387
  411W        W 1275   0.195  28.983   2.900  0.0402  0.0053 -0.3451
  412W        W 1276   0.186   0.283   1.017 -0.1618  0.1480  0.1760
  413W        W 1277   6.625   0.543   2.892 -0.0160  0.0767 -0.0730
  414W        W 1278  28.205  28.687   0.525 -0.0010  0.2219 -0.3216
  415W        W 1279   0.790  27.091   2.044  0.0004  0.0176  0.2137
  416W        W 1280   3.259   2.316   0.687 -0.0746 -0.4069 -0.0749
  417W        W 1281   0.501   3.668   1.923 -0.1217  0.0050  0.1284
  418W        W 1282   1.987   0.428   4.606  0.1598  0.2750 -0.3330
  419W        W 1283   4.582   0.500   0.962 -0.1797 -0.0836  0.0643
  420W        W 1284   0.647   0.749   0.736  0.0707 -0.4310 -0.0925
  421W        W 1285   1.273   3.973   2.859  0.0907  0.0523  0.1445
  422W        W 1286  28.643  28.676   0.815  0.1763 -0.0400  0.1477
  423W        W 1287  29.034   1.026   3.180  0.0360 -0.0200  0.0036
  424W        W 1288   2.121   2.097   4.121  0.0344 -0.0563 -0.2872
  425W        W 1289   3.372   4.113   0.133 -0.1910 -0.0032 -0.0260
  426W        W 1290  29.139   2.381   1.358 -0.1688 -0.0775  0.0878
  427W        W 1291   3.281   1.971   4.462  0.1644 -0.0283  0.1274
  428W        W 1292  27.859   1.634   3.556  0.0947  0.2526 -0.1442
  429W        W 1293   3.465   1.497   3.244  0.1134 -0.0410  0.0113
  430W        W 1294   2.252   0.049   2.367 -0.0260 -0.1290  0.2478
  431W        W 1295   1.848   3.449   4.460  0.1236  0.1174 -0.1247
  432W        W 1296   3.519   1.652   2.383 -0.0206 -0.1306  0.0763
  433W        W 1297   1.891   0.897   2.845 -0.1998  0.3803  0.1273
  434W        W 1298   3.809   2.210   1.474  0.0186  0.0388 -0.1287
  435W        W 1299   0.344   1.240   3.943 -0.0363  0.0285  0.0572
  436W        W 1300  28.410   2.729   2.936  0.2167 -0.1403  0.3533
  437W        W 1301   3.205   4.515   3.859  0.2213  0.2079  0.0256
  438W        W 1302   4.142   0.233   3.475 -0.1733  0.1771 -0.0819
  439W        W 1303   1.875   4.180   3.864 -0.0987  0.1696  0.1447
  440W        W 1304   0.810   1.140  28.429  0.2198  0.2642  0.2406
  441W        W 1305   3.026  28.696  27.771  0.0810 -0.0185 -0.1707
  442W        W 1306  27.864   1.264   2.734  0.0870 -0.0490 -0.0432
  443W        W 1307   1.540   2.947   5.436  0.0628 -0.1877  0.1319
  444W        W 1308   2.141   2.045   2.073 -0.0303 -0.0621 -0.0880
  445W        W 1309   0.534   3.741   1.371 -0.0527 -0.2855  0.1614
  446W        W 1310   1.260   1.485   1.203 -0.0230 -0.2926 -0.0637
  447W        W 1311   0.828   0.590   3.133  0.0929 -0.0280  0.1774
  448W        W 1312   4.924  28.290   1.443  0.1802 -0.1884 -0.0947
  449W        W 1313   2.367   3.868   4.642  0.0183  0.0527 -0.0458
  450W        W 1314   2.570   2.095   0.936  0.0521  0.0864  0.0684
  451W        W 1315   1.052  28.613   3.054  0.1770  0.1288  0.3006
  452W        W 1316   1.709   3.941  28.028  0.3646  0.1358  0.3161
  453W        W 1317   6.118   2.064   1.461 -0.1435  0.0727 -0.1808
  454W        W 1318   0.773  27.141   4.036  0.0399  0.1688 -0.0898
  455W        W 1319   1.471   3.470   0.774  0.2405 -0.0575 -0.1559
  456W        W 1320   1.647   3.006   1.490  0.0035  0.2756  0.0822
  457W        W 1321   3.805   4.395  29.090  0.0534 -0.1067  0.2029
  458W        W 1322  27.838   3.382   3.429  0.0628 -0.3126 -0.1311
  459W        W 1323   0.906   0.337   2.648 -0.0970 -0.0159 -0.0405
  460W        W 1324   1.598  28.359   2.000 -0.1103  0.1565 -0.2962
  461W        W 1325   3.982   0.955   2.578 -0.2379 -0.1593  0.0385
  462W        W 1326   1.506   1.623   2.442 -0.0982 -0.1822 -0.3091
  463W        W 1327   5.225   2.008   1.920 -0.3592  0.2610 -0.1383
  464W        W 1328   0.539   4.233   2.988  0.2264 -0.0495  0.0525
  465W        W 1329   4.790   2.864   1.316  0.0501  0.4867  0.0406
  466W        W 1330   0.601   1.712   0.636  0.1751  0.1402  0.1669
  467W        W 1331   0.848   1.426   3.239 -0.0826 -0.2104  0.5130
  468W        W 1332   0.218   4.505   4.250  0.0357 -0.2644 -0.0437
  469W        W 1333   3.914   2.287   1.954 -0.1159 -0.2103 -0.0244
  470W        W 1334   1.543   3.273   5.928 -0.2358  0.0527 -0.2012
  471W        W 1335   2.435   1.404   2.309 -0.0576 -0.2959  0.2771
  472W        W 1336   4.904   5.916   0.388 -0.0496 -0.0218 -0.1946
  473W        W 1337   3.256   1.785   0.204 -0.1389 -0.1506 -0.4064
  474W        W 1338  28.686  27.995   0.118 -0.2060  0.1795 -0.1603
  475W        W 1339   1.906   4.084  27.581 -0.0567  0.2360  0.1269
  476W        W 1340   1.973   1.770   0.346 -0.0288  0.0175 -0.1997
  477W        W 1341   0.509   2.447  29.114 -0.0878 -0.0131  0.1418
  478W        W 1342  28.340   1.389   2.585  0.4695 -0.2890  0.1437
  479W        W 1343   1.546   3.961   2.425 -0.1271 -0.1406 -0.3298
  480W        W 1344   1.404  28.877   0.607 -0.0779 -0.1483  0.1683
  481W        W 1345   0.365   3.458   2.926 -0.1216  0.0352 -0.0899
  482W        W 1346   0.566   5.244   1.418 -0.1035  0.0482 -0.3094
  483W        W 1347   1.752   3.223   3.650  0.1368  0.0575  0.2524
  484W        W 1348   3.217   2.443   0.151  0.0901 -0.0510 -0.1526
  485W        W 1349  27.278   1.999   2.427  0.1506  0.1275 -0.1794
  486W        W 1350   2.203   2.122   0.600  0.2211 -0.0965 -0.1558
  487W        W 1351   1.719   2.362   3.013  0.0615  0.3205 -0.0487
  488W        W 1352   1.729   2.061   2.536 -0.0673 -0.1481 -0.1097
  489W        W 1353   4.387   1.650   3.142 -0.0426  0.1874  0.2761
  490W        W 1354  27.393   3.646   1.773 -0.0544 -0.1408  0.0661
  491W        W 1355   2.794   0.997   2.697 -0.1274 -0.2144  0.3178
  492W        W 1356   4.309   1.096   3.911 -0.2404  0.0246 -0.2893
  493W        W 1357   1.615   0.766   2.491 -0.4186 -0.2024 -0.1881
  494W        W 1358   1.615   1.620   0.836  0.0274  0.0023 -0.1554
  495W        W 1359   1.498   1.659  28.085  0.0143 -0.3345  0.0499
  496W        W 1360   0.776   4.885   3.166 -0.0240  0.0876 -0.1715
  497W        W 1361   0.629   1.366   1.123 -0.1119 -0.0562 -0.1617
  498W        W 1362   1.598   0.841  28.141 -0.0099 -0.1269 -0.0524
  499W        W 1363   1.095   0.797   2.478 -0.0855 -0.2425 -0.1407
  500W        W 1364   0.020   2.622   2.268 -0.2084 -0.2033  0.0249
  501W        W 1365   0.137   2.674  28.567 -0.1457  0.0075  0.3145
  502W        W 1366   4.011   1.401   2.366  0.2431 -0.0739 -0.3027
  503W        W 1367   1.642   4.262   0.162  0.3336 -0.1942 -0.1137
  504W        W 1368   2.158   0.487   6.366 -0.0154  0.0752  0.0241
  505W        W 1369   4.802  28.149   0.449 -0.0768 -0.0317  0.0197
  506W        W 1370   1.331   1.998   1.022 -0.0620  0.2233 -0.0287
  507W        W 1371   1.543   2.577   1.252  0.1043  0.0928  0.0867
  508W        W 1372   4.187  27.650   1.409 -0.2068 -0.2274  0.1721
  509W        W 1373   5.676   2.184   2.797 -0.0220  0.1736 -0.1033
  510W        W 1374   0.353   2.208  28.723  0.1863 -0.1016  0.0502
  511W        W 1375  27.484   0.588   3.943 -0.1526 -0.1034 -0.0212
  512W        W 1376   2.291   0.909   0.652 -0.1118 -0.1862  0.0930
  513W        W 1377   3.823   2.603   1.170  0.0683  0.1565 -0.1737
  514W        W 1378   3.697   4.080   4.514 -0.0279 -0.2132 -0.1228
  515W        W 1379   4.064   0.972   2.046  0.3493  0.3546 -0.1249
  516W        W 1380   2.361   6.368   1.138 -0.0668  0.3375 -0.1109
  517W        W 1381  29.106   4.847   0.587 -0.1644  0.0488  0.0669
  518W        W 1382   1.214   1.898   5.507 -0.1207 -0.2953 -0.3732
  519W        W 1383   1.008   3.249   4.158 -0.0957  0.1672 -0.2538
  520W        W 1384   5.129   5.474   0.405 -0.0323  0.2215 -0.0194
  521W        W 1385   4.169   1.335  27.421  0.0462  0.0395 -0.3515
  522W        W 1386   0.038   1.161   1.285  0.2487 -0.0970 -0.0573
  523W        W 1387   3.457   3.574   2.960 -0.2457 -0.1287  0.3474
  524W        W 1388   0.990  28.840   1.429 -0.0253  0.3230  0.1091
  525W        W 1389   3.591   1.613   1.103 -0.1544  0.2884  0.0249
  526W        W 1390  27.755   0.448   3.574  0.1199  0.2693 -0.1369
  527W        W 1391  28.890   1.493   0.058 -0.4566 -0.0061 -0.0332
  528W        W 1392   3.810   1.893   4.383  0.2742 -0.0479 -0.0602
  529W        W 1393   2.503   0.405   2.042 -0.1392 -0.0014  0.1481
  530W        W 1394   1.232   2.258   3.833  0.0215 -0.0303 -0.1161
  531W        W 1395   0.026   2.275   3.881  0.0164  0.1150  0.1000
  532W        W 1396   1.360   2.931   3.718  0.3259 -0.2030  0.1220
  533W        W 1397   0.044   1.043   0.283 -0.2014  0.2107  0.0023
  534W        W 1398   1.252   2.194   1.593 -0.1600 -0.0128 -0.0159
  535W        W 1399   1.659   4.411   2.073  0.0730 -0.0903  0.0386
  536W        W 1400  28.620   0.396   2.115  0.0019 -0.1268  0.2103
  537W        W 1401  27.526   1.698  28.851 -0.0158 -0.1523  0.3208
  538W        W 1402   4.617   2.069   0.099 -0.0865  0.1439  0.1528
  539W        W 1403  28.203   3.139   1.501  0.1083 -0.1976  0.1465
  540W        W 1404   2.369   3.922   0.877 -0.5073  0.0968  0.2273
  541W        W 1405  27.955   1.286  27.988 -0.1037 -0.0195  0.3059
  542W        W 1406  26.949   4.283   2.875  0.0950  0.2039  0.0607
  543W        W 1407   1.603   2.044   1.925  0.0577  0.1547 -0.0286
  544W        W 1408   1.337   0.956   1.450  0.0784 -0.1878 -0.1255
  545W        W 1409   0.286   0.494   0.344 -0.1502 -0.0686 -0.3287
  546W        W 1410  28.226   2.250   1.898 -0.6273 -0.1108 -0.0154
  547W        W 1411   0.379  28.600   5.490  0.0437  0.0851 -0.2307
  548W        W 1412   4.526   1.178   0.361 -0.1608  0.1856  0.1925
  549W        W 1413   2.325   4.506   3.470 -0.0429 -0.1243 -0.1622
  550W        W 1414   1.207   3.635   1.903  0.0862 -0.1727  0.0942
  551W        W 1415   2.213   3.883   2.914  0.2973 -0.0095 -0.0353
  552W        W 1416   3.080   4.898   4.196 -0.0909  0.0083 -0.0189
  553W        W 1417   2.112   1.169   1.925  0.2441  0.0862 -0.0685
  554W        W 1418   1.732   0.843   3.339  0.1447 -0.3149 -0.1806
  555W        W 1419   3.574   0.556   2.594  0.3597  0.1475 -0.0505
  556W        W 1420  28.810  29.138   0.944 -0.0711 -0.1454 -0.2547
  557W        W 1421   0.464   1.765   1.980 -0.1394 -0.0494 -0.3323
  558W        W 1422   1.732  27.253   4.356 -0.1321  0.2040  0.0648
  559W        W 1423   2.182   0.032   3.001 -0.1235  0.0010 -0.2142
  560W        W 1424  28.962   2.932   1.880 -0.0940 -0.1960  0.0658
  561W        W 1425   0.031   1.343   2.718 -0.1880 -0.3123 -0.0725
  562W        W 1426   1.255   2.692   4.168 -0.1959  0.2612  0.2360
  563W        W 1427  28.426   2.050  28.152  0.1833 -0.1400  0.1592
  564W        W 1428  29.104  27.726   0.162 -0.0103  0.1084  0.1393
  565W        W 1429   2.627   1.703   1.202  0.0813  0.2635 -0.2335
  566W        W 1430   0.386  27.977   2.482 -0.0870 -0.0425 -0.1207
  567W        W 1431   4.788   1.416   3.007 -0.4043  0.2599 -0.0507
  568W        W 1432   3.032   1.539   1.361  0.0584 -0.0813 -0.2974
  569W        W 1433   4.696   2.940  28.636 -0.0952  0.2074 -0.0541
  570W        W 1434   1.688   1.325   1.370 -0.3438  0.0674  0.2885
  571W        W 1435   2.434   2.315   1.805 -0.2087 -0.0377 -0.1971
  572W        W 1436   2.402   0.381   0.237  0.2328 -0.3817  0.3369
  573W        W 1437   2.162   4.298   4.926 -0.0818 -0.2566  0.1097
  574W        W 1438   3.268   0.069   2.605 -0.2918  0.1377 -0.0540
  575W        W 1439  28.479   2.051   5.221  0.0023  0.2083 -0.1520
  576W        W 1440   0.944   1.657   0.247 -0.0782  0.0378 -0.0655
  577W        W 1441   0.099   0.599   2.339 -0.1895  0.0163 -0.0413
  578W        W 1442   1.698   0.384   3.930  0.1793  0.1728  0.0468
  579W        W 1443   0.246   1.959   2.866 -0.2853 -0.0434 -0.0096
  580W        W 1444   3.371   1.919   1.515  0.2051 -0.0621  0.2525
  581W        W 1445   3.335   4.664   0.143  0.4530 -0.0708 -0.2111
  582W        W 1446   2.021   0.579   3.604  0.0802  0.2144  0.1989
  583W        W 1447   0.974   2.585   1.755  0.0336  0.1576  0.0581
  584W        W 1448   4.361   1.283   2.786  0.0128  0.2160 -0.0236
  585W        W 1449   3.187  27.659   0.942 -0.1875 -0.0835 -0.3062
  586W        W 1450   3.332   1.244   0.937  0.1100 -0.0053 -0.0039
  587W        W 1451   1.855   2.239  28.077  0.1388 -0.0861 -0.0663
  588W        W 1452   4.735  26.301   1.235  0.0226 -0.0888 -0.1526
  589W        W 1453   3.880   0.131   1.247  0.1165 -0.1929  0.2256
  590W        W 1454   2.114   1.955   2.979  0.0286  0.0021  0.2137
  591W        W 1455   4.502   4.211   0.484 -0.4427  0.2404  0.2676
  592W        W 1456   3.336  27.043   2.408 -0.3260 -0.2033  0.0042
  593W        W 1457   1.617   0.720   1.980  0.2473  0.0742 -0.1227
  594W        W 1458   1.675   4.300   0.766 -0.2041 -0.0606 -0.2310
  595W        W 1459   3.770   0.900   3.818 -0.1865  0.0025 -0.5386
  596W        W 1460   2.706   1.389   1.848  0.0255 -0.2096  0.1750
  597W        W 1461   1.267   3.078   6.393 -0.0405 -0.2111  0.0476
  598W        W 1462   1.991   2.209   0.149 -0.0222 -0.1194  0.0769
  599W        W 1463   1.296   0.677   2.938  0.0622  0.1332 -0.1076
  600W        W 1464   3.873   1.734   3.285  0.2502  0.0076  0.0422
  601W        W 1465   1.961   3.116   3.111 -0.1039  0.3381 -0.2098
  602W        W 1466  28.438   0.681   0.777  0.4520 -0.0119 -0.1217
  603W        W 1467   3.439   4.923   0.780 -0.1608  0.0786  0.2784
  604W        W 1468   0.235   0.591   6.342  0.0739  0.3230 -0.0055
  605W        W 1469   0.496   4.351   3.453  0.1165 -0.0500 -0.0575
  606W        W 1470   3.539   1.102   2.435  0.0830 -0.0333 -0.0172
  607W        W 1471   2.456   0.914   3.937  0.1543  0.0924  0.0034
  608W        W 1472  29.002   0.545   1.882  0.0689 -0.0847 -0.3707
  609W        W 1473   4.794   0.814   1.804  0.0612  0.2168 -0.1073
  610W        W 1474   0.534   4.139   4.508  0.0177 -0.0472  0.0039
  611W        W 1475   1.218   1.678  28.898 -0.0128  0.2447  0.1242
  612W        W 1476  29.136   0.839   2.740  0.0307  0.1099  0.0575
  613W        W 1477  28.723   5.265   0.571 -0.0465  0.1640 -0.7348
  614W        W 1478  28.329   0.951   4.025  0.1154  0.0342  0.0190
  615W        W 1479   0.827   2.727   0.958 -0.1637 -0.3751  0.1849
  616W        W 1480   1.103   2.817   1.351  0.2379  0.1442 -0.2298
  617W        W 1481  28.875   2.501   5.698  0.0546  0.0163  0.2330
  618W        W 1482   0.227   3.023   8.048 -0.0771 -0.1893 -0.0406
  619W        W 1483   4.561  28.954   4.524  0.1684  0.1484 -0.0443
  620W        W 1484   2.572   4.252   5.879  0.1897 -0.1203 -0.0697
  621W        W 1485   1.476   4.226   4.808  0.0237 -0.1326 -0.0619
  622W        W 1486   1.655   0.734   5.475 -0.0449 -0.2265 -0.1593
  623W        W 1487  27.474   0.782   4.922 -0.1414 -0.0219  0.0934
  624W        W 1488   1.718   0.751   6.512 -0.0381 -0.0676  0.1631
  625W        W 1489   2.071   2.565   6.133  0.2100  0.2264  0.1579
  626W        W 1490   1.114  28.541   5.273  0.0073  0.1293  0.0532
  627W        W 1491   2.263  27.678   6.161 -0.2551  0.0323 -0.0678
  628W        W 1492   4.518  27.842   5.714  0.2419  0.1154  0.1378
  629W        W 1493   2.843   2.813   6.060 -0.0529  0.1356 -0.1241
  630W        W 1494   4.322  27.998   7.900 -0.1617  0.0527 -0.1043
  631W        W 1495  27.788   3.262   5.300  0.1482  0.1228  0.0117
  632W        W 1496   2.703   1.350   5.144  0.0346  0.0610 -0.4115
  633W        W 1497   2.384   1.080   3.005 -0.0242  0.2728  0.0260
  634W        W 1498   3.681   2.451   8.574  0.6353  0.0225 -0.2182
  635W        W 1499   1.441   0.483   5.933 -0.0325 -0.0572  0.0257
  636W        W 1500   2.673  28.399   3.373 -0.0018  0.1017 -0.1739
  637W        W 1501   4.761   2.202   4.686 -0.1605  0.2395  0.2841
  638W        W 1502   1.287   0.427   5.360 -0.0589  0.1643 -0.1268
  639W        W 1503   1.258   4.347   6.214  0.3235  0.1739  0.0054
  640W        W 1504   0.692   2.922   4.350  0.2085 -0.0034  0.1111
  641W        W 1505  28.100   1.755   6.066 -0.2645 -0.2635 -0.2100
  642W        W 1506   2.527  28.362   4.494 -0.2045  0.1032 -0.1900
  643W        W 1507   2.181   0.577   3.061  0.1808 -0.0271  0.0141
  644W        W 1508   0.699   6.042   6.406  0.0517  0.1659  0.0296
  645W        W 1509   3.548   1.486   5.321 -0.0785  0.4211 -0.1280
  646W        W 1510   0.691   1.244   6.075  0.0514  0.2918 -0.2127
  647W        W 1511   1.931   2.890   5.735  0.0780  0.0445  0.2616
  648W        W 1512   1.285  27.726  11.305 -0.0737  0.3187  0.2823
  649W        W 1513   3.487   0.042   7.051  0.1782  0.2877  0.2026
  650W        W 1514   0.885   0.101   8.632 -0.3461 -0.1741  0.1960
  651W        W 1515  26.364   3.081   7.736 -0.0968 -0.1414  0.2013
  652W        W 1516   2.625   2.376   8.900  0.3129  0.0953  0.4605
  653W        W 1517   0.254   0.010   4.438  0.0383 -0.1666 -0.1459
  654W        W 1518   2.595   2.662   8.059  0.0301  0.1859 -0.4629
  655W        W 1519   3.701   3.582   4.519  0.1979  0.3627 -0.0918
  656W        W 1520   1.834   0.911   4.716 -0.1929 -0.1131 -0.0553
  657W        W 1521   4.901  26.899   4.910  0.1363 -0.1017  0.1741
  658W        W 1522   3.081   0.828   6.568 -0.0172 -0.0124  0.0323
  659W        W 1523   3.210   4.934   6.276  0.0098  0.3635  0.0055
  660W        W 1524   4.587   2.695   4.628  0.1178  0.0662  0.0291
  661W        W 1525   2.308   6.469   4.136  0.2314 -0.2559 -0.0039
  662W        W 1526   0.766   1.709   5.413 -0.2355  0.2035  0.2082
  663W        W 1527   2.667  26.853   5.833 -0.2348 -0.1240  0.1526
  664W        W 1528   3.295   3.351   6.483  0.0299  0.2285  0.0566
  665W        W 1529   3.037   1.280   2.223 -0.1783  0.2033 -0.2787
  666W        W 1530  28.624   1.072   5.083  0.1018 -0.0189 -0.1086
  667W        W 1531   2.292   3.157   7.080  0.0021 -0.0362 -0.0438
  668W        W 1532   0.517  28.960   6.862  0.0692 -0.3573  0.1658
  669W        W 1533   4.260   1.534   3.628  0.1008 -0.1566 -0.1165
  670W        W 1534   6.443   0.263   4.700 -0.1191  0.1370  0.1116
  671W        W 1535   1.995  27.975   5.340 -0.2035  0.0156  0.0952
  672W        W 1536   2.367   4.379   2.336  0.2674  0.0493 -0.0284
  673W        W 1537  28.438   0.604   5.087 -0.1975  0.2208  0.1810
  674W        W 1538   3.431  28.743   3.575  0.0622  0.1045  0.0267
  675W        W 1539   1.270   3.242   4.602 -0.2085  0.1046  0.0226
  676W        W 1540   0.145   3.259   3.754  0.1818 -0.1889 -0.1215
  677W        W 1541   1.439  28.021   4.716  0.0462 -0.0383  0.0464
  678W        W 1542   0.560   1.675   6.272 -0.2385  0.0086  0.1495
  679W        W 1543   2.476   3.286   8.717  0.0438  0.0593  0.0885
  680W        W 1544   1.493  29.072   5.983  0.1501 -0.0374 -0.0694
  681W        W 1545   3.959  28.746   5.759 -0.0293 -0.2333 -0.0631
  682W        W 1546   2.835   0.034   6.872 -0.1278  0.0599  0.2044
  683W        W 1547   0.405   1.978   5.889 -0.1126  0.3329  0.0898
  684W        W 1548   1.359  28.963   3.314  0.1182  0.1154  0.1137
  685W        W 1549  28.223   3.837   3.795  0.2284 -0.1399 -0.0323
  686W        W 1550   2.573   4.823   4.306  0.3177  0.0298  0.1260
  687W        W 1551   2.713   4.479   7.258 -0.0457 -0.0907 -0.2463
  688W        W 1552   2.730   1.977   7.528  0.2280  0.0074  0.1359
  689W        W 1553   5.730   4.543   6.461  0.2881 -0.0335 -0.0976
  690W        W 1554   3.688   1.362   6.117 -0.0915  0.2327 -0.2426
  691W        W 1555   3.929   1.109   4.226 -0.0616 -0.0252 -0.0008
  692W        W 1556   1.565   2.598   5.954  0.0612  0.3760 -0.2078
  693W        W 1557  27.603   0.318   4.333 -0.1922  0.0298  0.0508
  694W        W 1558   0.482   1.814   8.705 -0.0592  0.2237 -0.2085
  695W        W 1559   3.142   0.839   4.468  0.1355 -0.0156 -0.0430
  696W        W 1560   1.484   0.605   4.893 -0.2086 -0.2955  0.2253
  697W        W 1561   4.361  28.668   6.075  0.1728 -0.1664  0.2268
  698W        W 1562   3.202   0.209   5.789  0.2915 -0.0488 -0.2204
  699W        W 1563  28.892  28.291   3.965 -0.1457 -0.0284 -0.0779
  700W        W 1564   2.879  28.156   4.182  0.1731  0.1312  0.1812
  701W        W 1565   1.910  28.838   4.676  0.1192  0.1981  0.1926
  702W        W 1566   0.135   0.603   5.345 -0.3571 -0.0009 -0.2327
  703W        W 1567   5.260   2.204   8.891 -0.2117 -0.1649 -0.1119
  704W        W 1568   1.825  28.350   7.028 -0.1299 -0.1786  0.0289
  705W        W 1569   4.658   3.131   5.594 -0.1826  0.1783 -0.1583
  706W        W 1570   2.939   2.623   8.442  0.0302 -0.0570  0.0643
  707W        W 1571   1.125  27.078   5.467  0.0007 -0.1515 -0.0593
  708W        W 1572   3.607   2.729   8.119  0.1829  0.1267 -0.1114
  709W        W 1573   0.086   4.137   4.746 -0.0426  0.0148 -0.0189
  710W        W 1574   2.858   0.951   4.884  0.1475 -0.1148  0.1807
  711W        W 1575   1.982  29.074   7.879  0.0964  0.0978 -0.0501
  712W        W 1576   1.315   1.086   4.750  0.0306  0.1320  0.1981
  713W        W 1577   3.907   1.908   6.932  0.3157  0.4805  0.0271
  714W        W 1578   0.726   1.979   6.631 -0.3473  0.1423 -0.2742
  715W        W 1579   0.210  28.215   3.855  0.3506  0.0627 -0.3422
  716W        W 1580   4.046  28.736   5.233  0.1938 -0.1267 -0.1192
  717W        W 1581   2.641   2.809   3.477 -0.2212 -0.0043  0.0328
  718W        W 1582  29.043   4.278   3.985  0.1193  0.2827  0.0849
  719W        W 1583   3.438  29.118   4.508 -0.1424 -0.1739  0.2765
  720W        W 1584   3.095   3.130   5.829  0.1092 -0.0494  0.0349
  721W        W 1585   2.925   3.733   6.208  0.0954  0.0952 -0.0923
  722W        W 1586   4.194   0.691   4.269 -0.0079  0.2195 -0.0705
  723W        W 1587   3.340   3.317   5.435  0.2204  0.2090  0.2107
  724W        W 1588   2.043   1.081   9.040  0.1463  0.0036  0.2709
  725W        W 1589   2.573  27.010   2.861 -0.0263  0.0494  0.0133
  726W        W 1590   1.732   1.222   5.106  0.2424 -0.1788 -0.2075
  727W        W 1591   0.329   3.423   5.869  0.0495  0.1536  0.2601
  728W        W 1592   0.992   0.580   6.645  0.2207 -0.0769  0.0222
  729W        W 1593   3.844   2.667  10.164 -0.2248  0.6015 -0.2607
  730W        W 1594   3.241   4.685   7.489  0.2050  0.1442  0.0096
  731W        W 1595   3.402   1.678   4.029  0.0335 -0.0935 -0.1089
  732W        W 1596  28.189   2.023   4.843 -0.1292 -0.0789  0.0946
  733W        W 1597   2.066   0.095   7.256 -0.0467  0.0761 -0.0358
  734W        W 1598   3.223   4.177   3.377 -0.1656 -0.1118 -0.0968
  735W        W 1599   5.357   1.148   6.719  0.0072 -0.0233 -0.0811
  736W        W 1600   2.467   1.669   2.903  0.0081 -0.2275  0.2975
  737W        W 1601   1.941   0.548   5.878  0.1264  0.0179  0.0628
  738W        W 1602   3.073   3.381   2.661  0.1394 -0.1226  0.0115
  739W        W 1603   2.420   3.516   5.439  0.0330  0.1175  0.1520
  740W        W 1604   4.641   0.600   3.418 -0.0026 -0.0712  0.2189
  741W        W 1605  28.680   1.560   5.987  0.0854  0.2001  0.1145
  742W        W 1606   4.462  29.047   3.100  0.1095  0.1878 -0.0379
  743W        W 1607  27.331   1.304   6.438  0.1165  0.2361 -0.1558
  744W        W 1608   3.080   2.416   4.417  0.0107 -0.2588  0.2310
  745W        W 1609   4.211   5.310   5.857  0.2923 -0.0703  0.1531
  746W        W 1610   3.796   3.467   5.801 -0.2479  0.1183 -0.1513
  747W        W 1611   5.043   2.479   4.228  0.0232  0.1243  0.1370
  748W        W 1612   2.238   2.169   6.397 -0.3545 -0.0459  0.1464
  749W        W 1613   2.021   6.627   6.785  0.2304  0.2192  0.0164
  750W        W 1614   4.146  28.233   4.281 -0.1475 -0.5065  0.0255
  751W        W 1615   3.448   3.269   7.929  0.2158 -0.3384  0.0289
  752W        W 1616   3.570   0.229   7.494 -0.2634  0.1241 -0.0822
  753W        W 1617   4.155  28.154   4.817  0.0830  0.1362 -0.2790
  754W        W 1618   4.114   2.969   6.233 -0.0746  0.3228  0.0047
  755W        W 1619   4.072   3.282   7.526  0.1314 -0.3739  0.1804
  756W        W 1620   2.856   3.163   5.321 -0.0254 -0.0349  0.2635
  757W        W 1621  26.322   0.010   5.520  0.1677 -0.1676  0.2619
  758W        W 1622   2.667   0.498   6.507  0.2649  0.0795 -0.0186
  759W        W 1623  28.418   0.927   4.642 -0.0618 -0.0358  0.0129
  760W        W 1624  29.034  27.858   4.216 -0.2201 -0.0454 -0.0907
  761W        W 1625   3.071  28.820   5.973  0.0358 -0.0009 -0.1689
  762W        W 1626   1.643   0.255   6.342  0.0994 -0.0489 -0.0631
  763W        W 1627   2.462   0.046   6.263  0.3217 -0.1455 -0.0161
  764W        W 1628   2.830   3.315   4.242  0.3273  0.1814 -0.0236
  765W        W 1629   1.555   2.189   5.681 -0.0480 -0.1464  0.2213
  766W        W 1630   2.024   0.539   5.131 -0.0560  0.1360  0.0697
  767W        W 1631   4.282   2.500   6.315  0.0880 -0.2154 -0.0343
  768W        W 1632   0.096   0.623   4.600 -0.2878 -0.0956  0.4693
  769W        W 1633   3.471   2.443   5.476 -0.1393 -0.1313  0.0517
  770W        W 1634   3.041   0.187   2.129  0.0096 -0.0285 -0.0549
  771W        W 1635   1.690  28.302   5.526 -0.0248 -0.0231  0.2584
  772W        W 1636   1.273   1.599   7.376  0.0207 -0.0569  0.0835
  773W        W 1637   0.852  28.929   6.535  0.1861  0.2772  0.0572
  774W        W 1638   0.524   1.771   3.295  0.0167 -0.1314 -0.2088
  775W        W 1639   0.638   1.500   4.684 -0.3375  0.0356  0.1009
  776W        W 1640  29.002   1.068   4.002  0.1161 -0.0194 -0.2576
  777W        W 1641   2.848   1.432   6.760 -0.4599  0.0233  0.1142
  778W        W 1642   3.319   5.094   4.995 -0.0300 -0.2035 -0.1680
  779W        W 1643   2.564   1.168   8.591 -0.2579  0.0066 -0.0858
  780W        W 1644   2.209   0.939   9.581 -0.2234  0.0665 -0.3323
  781W        W 1645   3.559   0.468   7.945  0.4606  0.2604  0.2846
  782W        W 1646   1.826   1.021   6.893  0.0989  0.1416  0.0098
  783W        W 1647   1.434  28.986   6.547 -0.0005 -0.0186  0.1334
  784W        W 1648   3.118   2.835   6.456  0.0361 -0.0918 -0.0391
  785W        W 1649   3.703   1.662   9.717 -0.1660 -0.2839  0.2878
  786W        W 1650   2.293   2.976   6.104  0.0008 -0.0740  0.0208
  787W        W 1651   3.785   2.930   4.529  0.0486 -0.1583  0.1306
  788W        W 1652   2.513   1.772   5.240  0.0265  0.2013  0.1737
  789W        W 1653   2.121   1.127   4.375 -0.0422  0.1603  0.0901
  790W        W 1654   0.737   2.399   4.746 -0.2631  0.1415  0.3847
  791W        W 1655   0.998   1.884   4.027  0.1499 -0.0509  0.1426
  792W        W 1656   3.049   1.789   3.257  0.1019  0.0503 -0.0349
  793W        W 1657   0.506   3.291   7.323  0.0353 -0.0909 -0.1163
  794W        W 1658   1.776   3.318   7.167  0.1404  0.0802 -0.2215
  795W        W 1659  27.671   5.469   4.793 -0.3140  0.0492  0.0957
  796W        W 1660   3.030   0.320   3.553  0.1066 -0.3322  0.1696
  797W        W 1661   1.595   2.804   4.583  0.0318  0.2752 -0.2989
  798W        W 1662   1.734   4.589   3.060  0.2394 -0.1001  0.1128
  799W        W 1663   1.451   1.112   4.260 -0.0749  0.2858  0.1420
  800W        W 1664  28.420   2.596   4.727  0.1083  0.2945  0.1365
  801W        W 1665   3.678   1.228   4.913 -0.0055 -0.1073 -0.0657
  802W        W 1666   3.362   2.908   8.897  0.0128  0.0019 -0.1872
  803W        W 1667   2.515  25.188   6.377 -0.0877 -0.2150  0.0602
  804W        W 1668   0.411  27.008   6.012  0.1512 -0.0752  0.0252
  805W        W 1669   3.198   2.859   6.972  0.1516  0.1728 -0.1257
  806W        W 1670   3.529   4.974   4.456 -0.3208  0.0963  0.1080
  807W        W 1671  26.793  28.777   3.435 -0.0063 -0.0951  0.0810
  808W        W 1672  29.044   2.387   2.712  0.1369 -0.1100 -0.4236
  809W        W 1673   0.444   1.097   6.461 -0.0707 -0.1937 -0.1199
  810W        W 1674   1.368   1.392   7.828  0.0087  0.0424  0.2124
  811W        W 1675   3.054   0.205   7.316  0.0975 -0.0819 -0.3862
  812W        W 1676   2.266  28.144   6.244  0.1686  0.1243 -0.0530
  813W        W 1677   5.274   0.992   3.089  0.3924  0.2028  0.2742
  814W        W 1678   2.755  28.480   5.622 -0.0487  0.1108 -0.1160
  815W        W 1679  27.826  28.514   4.679  0.1352  0.0736  0.1858
  816W        W 1680   4.465  28.741   5.565  0.3276  0.1672  0.0035
  817W        W 1681  28.178   0.190   3.631 -0.1005  0.0741 -0.0289
  818W        W 1682   1.120  27.241   6.861  0.0785  0.2345 -0.1724
  819W        W 1683   2.572   2.763   4.517 -0.1208  0.0717 -0.0797
  820W        W 1684  27.695  27.894   5.209 -0.0077 -0.2756 -0.0916
  821W        W 1685  28.152   0.517   7.895  0.3070  0.2220 -0.0747
  822W        W 1686   1.211   2.103   2.450 -0.2305 -0.2627  0.1204
  823W        W 1687   1.986  29.025   8.402 -0.1445  0.0376 -0.1542
  824W        W 1688   4.372   1.043   4.842  0.0469 -0.2700 -0.1375
  825W        W 1689   0.659   3.365   6.494 -0.0535 -0.2034  0.2272
  826W        W 1690  28.406   2.041   3.662  0.1700  0.2854 -0.3908
  827W        W 1691   1.629   0.124   5.563 -0.1354  0.2361  0.0764
  828W        W 1692   3.662   2.619   6.449  0.0887 -0.1323  0.3808
  829W        W 1693   2.724   0.445   5.584  0.0693  0.0091  0.1361
  830W        W 1694   2.997  28.930   5.463  0.0432 -0.1343  0.0913
  831W        W 1695   2.877   3.244   6.751  0.4250 -0.4699  0.1218
  832W        W 1696   4.666   5.598   2.247  0.0684 -0.0727  0.0190
  833W        W 1697   0.388   2.381   5.085 -0.2577  0.0985 -0.0047
  834W        W 1698   2.354   3.406   4.478 -0.0122  0.0638 -0.5304
  835W        W 1699   1.323  28.020   8.391 -0.1317 -0.0939 -0.3233
  836W        W 1700  28.518   2.612   6.109 -0.0508 -0.0658 -0.1417
  837W        W 1701   3.738  29.017   7.897 -0.1991 -0.0789 -0.2417
  838W        W 1702   3.089   2.338   7.238 -0.0678  0.2975  0.2157
  839W        W 1703   0.197   1.426   8.457  0.1989  0.3222  0.1592
  840W        W 1704   2.323   2.050   5.629  0.0813  0.2945 -0.3615
  841W        W 1705   3.169   2.334   2.936  0.2221  0.0160  0.3153
  842W        W 1706   2.545  28.371   6.559  0.0840  0.0442 -0.0732
  843W        W 1707   0.529   2.119   9.453  0.1044  0.1797 -0.0209
  844W        W 1708   3.034   0.975   7.152  0.3409 -0.1692  0.2091
  845W        W 1709   3.647   4.395   6.330 -0.0791 -0.0037  0.2832
  846W        W 1710   3.780   3.383   6.305  0.2388 -0.0308  0.0100
  847W        W 1711   2.946  28.644   4.443 -0.1546 -0.1204  0.1417
  848W        W 1712   3.394  28.125   4.981  0.0219 -0.0467  0.0760
  849W        W 1713   2.112   4.761   2.135 -0.1071  0.0649 -0.0508
  850W        W 1714   1.420   1.401   5.608 -0.1344  0.0405  0.4107
  851W        W 1715   1.324   0.274   6.815  0.0029  0.0592 -0.0367
  852W        W 1716   2.519   4.906   5.595 -0.0764  0.0687  0.1905
  853W        W 1717   2.719  27.879   6.387  0.0266 -0.1906  0.1937
  854W        W 1718   2.154   0.927   8.540 -0.2397 -0.3102 -0.0482
  855W        W 1719   4.489   5.428   4.128  0.2248  0.1279  0.0098
  856W        W 1720   2.122   4.012   6.666 -0.0046 -0.1059  0.2895
  857W        W 1721   1.902   1.750   5.629  0.1287  0.3063 -0.0076
  858W        W 1722   2.828  26.361   5.769 -0.2493 -0.0476  0.1121
  859W        W 1723   3.331   0.395   4.305  0.0717 -0.1754 -0.0879
  860W        W 1724   3.420   0.852   6.044  0.1979 -0.1782  0.0283
  861W        W 1725   0.987   0.773   4.169  0.1776  0.0631  0.2906
  862W        W 1726   2.551   3.600   6.877 -0.3171 -0.1035  0.0745
  863W        W 1727  28.863   3.201   7.994  0.1459 -0.1925 -0.1569
  864W        W 1728   1.037   5.376   1.442  0.0032  0.1250 -0.0158
  865W        W 1729  28.631  29.136   3.913  0.2255  0.1193  0.2559
  866W        W 1730   0.576   2.871   4.885 -0.0741  0.1205  0.0403
  867W        W 1731   0.761   2.936   6.221  0.0178  0.0773 -0.0300
  868W        W 1732   4.686   4.144   7.415  0.1190 -0.2404  0.1103
  869W        W 1733   2.087   1.775   6.729  0.0504  0.2136  0.2853
  870W        W 1734  28.965   0.331   5.689 -0.1456  0.0789  0.0901
  871W        W 1735   3.356   3.941   6.358  0.0231  0.1380 -0.1228
  872W        W 1736   4.088   0.805   2.987  0.4452 -0.1041  0.0007
  873W        W 1737   2.706  28.644   5.157  0.3609  0.0753  0.0086
  874W        W 1738   3.501   3.220   3.434  0.1735 -0.4159 -0.3098
  875W        W 1739   2.292   2.438   4.814 -0.3559  0.4419 -0.1818
  876W        W 1740   0.371  28.820   4.797  0.1275  0.0555 -0.0495
  877W        W 1741   3.104   1.806   6.552  0.0299 -0.3554 -0.0269
  878W        W 1742   5.193   3.632   6.854  0.1483  0.1965  0.0158
  879W        W 1743   0.536   0.617   4.875  0.0955  0.2390  0.0764
  880W        W 1744   1.103   2.703   5.375 -0.3767 -0.1940  0.2925
  881W        W 1745   0.662   3.021   8.364 -0.1189 -0.0851 -0.1858
  882W        W 1746  27.266   2.902   3.794 -0.1730  0.0583 -0.0933
  883W        W 1747   2.062   3.442   3.942 -0.1460  0.1144  0.1299
  884W        W 1748   2.744   1.123   8.095 -0.3149 -0.1514  0.1134
  885W        W 1749   3.218   0.045   3.928  0.1725  0.1025  0.0047
  886W        W 1750   1.845   3.003   6.231  0.1566  0.1337 -0.4244
  887W        W 1751   3.594  28.997   4.979  0.2321  0.0505  0.0103
  888W        W 1752   6.424   1.874   4.020 -0.2562 -0.0003  0.1276
  889W        W 1753   0.276   1.851   5.341  0.0731 -0.0247  0.2090
  890W        W 1754   3.632   4.628   5.895 -0.1243 -0.2185 -0.1407
  891W        W 1755   2.307   0.165   6.748 -0.1184  0.0914  0.1965
  892W        W 1756   1.643   2.309   8.563  0.0852 -0.0209  0.0342
  893W        W 1757  28.738   2.039   5.902  0.0695 -0.1358  0.2782
  894W        W 1758   0.320   0.600   1.858 -0.1645  0.0889 -0.0856
  895W        W 1759   1.879   3.719   6.107 -0.2183  0.1520  0.2489
  896W        W 1760   1.289   0.406   3.373  0.3386 -0.3182 -0.1134
  897W        W 1761   1.326   2.456   3.398 -0.2691  0.1014  0.0443
  898W        W 1762  29.072  28.464   4.742 -0.0892  0.1213  0.3155
  899W        W 1763   1.300   0.404   7.751 -0.0195  0.1642  0.0813
  900W        W 1764   2.731   2.140   4.874  0.1899 -0.1125  0.2556
  901W        W 1765   5.070  28.276   7.933 -0.1046  0.0266 -0.1195
  902W        W 1766   1.070   3.125   5.080 -0.0246 -0.3432 -0.0559
  903W        W 1767   2.099   3.021   4.616 -0.1448  0.1547  0.2082
  904W        W 1768   3.946   1.972   3.808 -0.1225  0.1117  0.1841
  905W        W 1769   1.727   4.615   3.584  0.2877 -0.1476  0.2463
  906W        W 1770   0.218   2.589   3.084  0.1661 -0.1040  0.1866
  907W        W 1771   2.174  28.521   3.193 -0.0376  0.0920  0.0145
  908W        W 1772   1.914   1.168   5.620 -0.2819 -0.3503 -0.2774
  909W        W 1773   1.201   2.073   6.510  0.2231 -0.0527  0.2329
  910W        W 1774   2.590   3.952   5.510  0.0526 -0.1799 -0.2361
  911W        W 1775   4.307   0.417   4.782  0.1508 -0.1054 -0.0199
  912W        W 1776   2.590   2.020   6.065 -0.1623 -0.1955  0.0112
  913W        W 1777   5.357   1.583   7.698 -0.0521  0.2014  0.1759
  914W        W 1778   3.184   3.406   7.103 -0.1011 -0.1039 -0.1875
  915W        W 1779   1.430   1.908   4.757  0.0830  0.0225  0.2209
  916W        W 1780   0.310   2.142   4.310  0.1868  0.2821  0.3205
  917W        W 1781   0.386   0.914   5.896 -0.2270 -0.0784  0.0361
  918W        W 1782   1.783   2.529   9.000  0.1846 -0.2638 -0.0044
  919W        W 1783   4.790  28.830   8.045  0.0158  0.1325  0.0604
  920W        W 1784   6.378   2.439   3.901 -0.1457  0.1477 -0.0073
  921W        W 1785   4.293   5.385   5.293 -0.0480 -0.1267 -0.2256
  922W        W 1786   6.304   3.008  11.705  0.2321 -0.4108  0.1443
  923W        W 1787   3.676  28.357   3.355 -0.1480  0.3997  0.3349
  924W        W 1788   3.035   0.536   5.124 -0.0338  0.0998  0.2533
  925W        W 1789   0.667   1.891   4.955 -0.2694  0.0257  0.2820
  926W        W 1790  28.118  27.643   5.115  0.0510  0.0424 -0.2165
  927W        W 1791   0.721   2.481   7.600 -0.0620  0.2111 -0.0239
  928W        W 1792   2.302   1.896   4.787 -0.2630  0.1476  0.0111
  929W        W 1793   3.029   3.771   6.766 -0.2517  0.1865  0.0533
  930W        W 1794   2.116   2.687   7.166 -0.0612  0.0554 -0.2559
  931W        W 1795   0.532   1.868   7.080  0.0669 -0.1459  0.3073
  932W        W 1796  29.066   2.426   4.787  0.0249 -0.0479  0.0783
  933W        W 1797   2.272   1.417   4.782 -0.1274  0.2444  0.0174
  934W        W 1798   2.445   2.743   8.562  0.2417 -0.1057 -0.0898
  935W        W 1799  27.247   2.372   4.578  0.0210  0.2990  0.1162
  936W        W 1800   0.398   3.818   6.477 -0.1190 -0.3549  0.0270
  937W        W 1801   3.610   3.112   4.973  0.2419 -0.0010  0.1511
  938W        W 1802   0.287   0.627   6.843  0.1530 -0.3889  0.2406
  939W        W 1803   0.622   3.066   5.703  0.3030  0.3233 -0.0645
  940W        W 1804   0.127   2.736   3.646  0.4052 -0.0726 -0.0870
  941W        W 1805   4.123   3.083   5.741 -0.0189 -0.2399 -0.1073
  942W        W 1806   3.133  29.074   4.891  0.0296 -0.2907  0.1754
  943W        W 1807   1.356   2.002   2.907 -0.1054 -0.2786  0.4681
  944W        W 1808   1.894   0.890   3.991  0.1366 -0.1275 -0.1306
  945W        W 1809   1.090   0.954   3.363  0.1526  0.1629  0.3343
  946W        W 1810   3.424   0.348   4.842 -0.0457  0.2373  0.0308
  947W        W 1811   4.301  26.877   4.548 -0.1341 -0.1273  0.2389
  948W        W 1812   2.241   3.487   8.137  0.0969  0.0144 -0.1338
  949W        W 1813   2.172  29.004   5.116  0.2789  0.1545 -0.1748
  950W        W 1814   4.195   2.687   3.335 -0.0612  0.2272  0.0167
  951W        W 1815   1.283   4.174   6.732 -0.1239  0.1228 -0.2948
  952W        W 1816   0.506   4.831   6.550 -0.1250 -0.1018 -0.0606
  953W        W 1817   3.029   3.196   3.698  0.5333 -0.0831 -0.1699
  954W        W 1818   2.425   1.664   0.659 -0.1033 -0.1060 -0.4170
  955W        W 1819   1.912  28.387   3.873  0.1880 -0.2876  0.2097
  956W        W 1820   0.640   3.114   3.863 -0.3931 -0.0806  0.1012
  957W        W 1821   2.645  28.930   4.705 -0.1236 -0.0937 -0.2458
  958W        W 1822   0.240   0.193   4.948 -0.4503 -0.0876  0.0510
  959W        W 1823   1.756   3.730   3.151  0.0059 -0.2275  0.4087
  960W        W 1824  28.854   1.782   3.930  0.0382 -0.1052 -0.4687
  961W        W 1825   1.972   2.493   4.405 -0.2713  0.0981  0.0373
  962W        W 1826  28.855  28.725   2.773 -0.0001 -0.0649 -0.0885
  963W        W 1827   2.091  28.476   4.345  0.5317 -0.0590  0.0799
  964W        W 1828   1.331   3.722   6.166  0.2286  0.0980 -0.1991
  965W        W 1829  28.236   2.257   5.795  0.2367 -0.0587 -0.1773
  966W        W 1830   4.436   0.229   5.206 -0.1430  0.0967 -0.0865
  967W        W 1831   2.207   0.110   1.752 -0.1218  0.3129  0.1285
  968W        W 1832   2.342   5.720   5.837 -0.1656 -0.1438 -0.3277
  969W        W 1833   2.013   6.067   5.668 -0.2499  0.1309  0.0716
  970W        W 1834   2.524   3.515   3.236  0.1040 -0.4276  0.2416
  971W        W 1835   3.772  27.666   6.187 -0.1618  0.1878 -0.2711
  972W        W 1836  27.863   5.033   6.373  0.0964 -0.1077 -0.0353
  973W        W 1837   3.425   1.109   7.611  0.1385 -0.1525  0.2505
  974W        W 1838  28.882  28.951   8.858 -0.2110 -0.0480 -0.1526
  975W        W 1839  28.903  29.139   6.420  0.0415 -0.2053  0.1860
  976W        W 1840  28.042   3.574   4.805  0.0260  0.1355  0.0432
  977W        W 1841   2.860   0.383   4.719  0.3706 -0.3054  0.0671
  978W        W 1842   3.279   5.093   6.765  0.1155  0.0247 -0.1417
  979W        W 1843   2.417  25.742   3.600 -0.3477 -0.2155  0.2210
  980W        W 1844   2.706   3.729   7.862  0.1083  0.0642 -0.1886
  981W        W 1845   2.264   3.025   8.164  0.0471  0.1661 -0.2601
  982W        W 1846   3.185   4.436   6.132 -0.0144 -0.3685  0.1376
  983W        W 1847   1.748   3.467   5.450  0.1670  0.0842 -0.0535
  984W        W 1848   2.366   0.284   4.838 -0.0967  0.3148 -0.2844
  985W        W 1849   1.926  28.802   5.709 -0.2790  0.1085 -0.3023
  986W        W 1850   0.732   2.303   5.486 -0.1572 -0.1413  0.0087
  987W        W 1851   5.376   0.890   5.193  0.0208 -0.2893  0.0393
  988W        W 1852  28.356   2.181   6.352  0.2342  0.1268  0.1154
  989W        W 1853   2.414   2.777   7.572  0.0681 -0.0438 -0.5256
  990W        W 1854  29.050   6.019   3.417 -0.3684  0.0138  0.2638
  991W        W 1855   1.994   0.675   8.083  0.2027 -0.0152 -0.0098
  992W        W 1856   3.435  27.616   5.166 -0.0133  0.0801 -0.0982
  993W        W 1857   3.901   2.432   9.525  0.1850  0.0841  0.2635
  994W        W 1858   3.338  27.544   7.070 -0.2783  0.2164 -0.3355
  995W        W 1859   1.140   0.189   6.292 -0.2061  0.0632  0.3009
  996W        W 1860   2.285   1.580   6.063 -0.0081 -0.1156 -0.1213
  997W        W 1861  29.113   1.493   4.234  0.1321 -0.1974 -0.1841
  998W        W 1862   2.147   2.873   8.947 -0.0125  0.4235 -0.0023
  999W        W 1863   4.290   2.057   4.535  0.3314  0.2712  0.0639
 1000W        W 1864   3.268   1.629   9.156 -0.2567 -0.1355  0.1167
 1001W        W 1865   2.618   1.231   7.300  0.0959  0.3621  0.0070
 1002W        W 1866   4.695   2.879   4.129  0.3072 -0.1205  0.1257
 1003W        W 1867   0.761   0.724   6.141  0.0560  0.0722  0.0567
 1004W        W 1868   2.894   3.100   4.735  0.0693  0.1942 -0.3029
 1005W        W 1869   3.617   1.760   6.480 -0.1328 -0.0370  0.0937
 1006W        W 1870   2.260   3.483   6.349  0.1940  0.1633 -0.1502
 1007W        W 1871   2.285   0.753   5.548 -0.1122  0.1946  0.1005
 1008W        W 1872   3.379   4.767   5.431  0.3649 -0.2017 -0.2496
 1009W        W 1873   5.009   1.171   7.479 -0.0526 -0.0236  0.2294
 1010W        W 1874   1.656   2.928   7.528  0.0444 -0.0867  0.0816
 1011W        W 1875   2.325   1.593   7.660  0.0146 -0.2402  0.4623
 1012W        W 1876   0.973   4.256   2.577  0.0233  0.0102 -0.0285
 1013W        W 1877   2.502   4.172   8.149  0.1136 -0.1130  0.0922
 1014W        W 1878   0.870   3.580   5.381  0.1948  0.2443  0.2011
 1015W        W 1879  28.424   2.896   4.218 -0.4557 -0.2055  0.1836
 1016W        W 1880   1.838   3.370  10.801  0.1579 -0.0692 -0.2751
 1017W        W 1881   1.597   2.799   9.823 -0.1555  0.1488 -0.1279
 1018W        W 1882   1.740   1.098   8.302 -0.2024 -0.0447  0.0417
 1019W        W 1883   5.445  28.873  11.307  0.1698  0.1781 -0.0675
 1020W        W 1884   2.918   2.067   8.041  0.2106  0.0594  0.2041
 1021W        W 1885  29.142   0.158   8.199  0.1196 -0.0213  0.0458
 1022W        W 1886   0.393   0.465   7.289  0.2194 -0.1122  0.2377
 1023W        W 1887   1.629   1.728   8.582 -0.1879 -0.1264 -0.2349
 1024W        W 1888   0.597   1.621  11.632  0.0390  0.2185  0.3195
 1025W        W 1889  28.191   3.118  10.582  0.3236 -0.1091 -0.1080
 1026W        W 1890  27.475  28.998  12.144 -0.2827 -0.0715 -0.1970
 1027W        W 1891  28.987  27.959   9.901  0.0440  0.0254 -0.1783
 1028W        W 1892   3.055   0.114   6.330  0.2115 -0.0062 -0.0084
 1029W        W 1893   5.684   2.313  10.445  0.1796 -0.0711  0.0784
 1030W        W 1894   2.664  28.774   9.456  0.3406 -0.0710 -0.1214
 1031W        W 1895  28.854   4.492  13.051 -0.2395  0.3406 -0.2284
 1032W        W 1896  28.486  28.411   7.628  0.1449 -0.3886 -0.0944
 1033W        W 1897  27.719   0.387   8.719  0.0380 -0.1254 -0.3280
 1034W        W 1898   3.454   2.062  11.521  0.2530 -0.0786  0.0072
 1035W        W 1899   6.031  28.282   7.504 -0.0268  0.0644 -0.2216
 1036W        W 1900   1.998  27.462  10.688  0.0778 -0.0386  0.2850
 1037W        W 1901   0.782   1.549   7.394  0.0074 -0.1438 -0.1130
 1038W        W 1902   3.096   0.477   8.569  0.1170  0.2558  0.0279
 1039W        W 1903   1.024   2.136   9.330 -0.1284  0.1882 -0.0337
 1040W        W 1904   0.109   0.168   6.071 -0.0446  0.0618  0.1485
 1041W        W 1905   1.439   0.651  10.274  0.2144  0.1033 -0.1909
 1042W        W 1906   5.443   1.140  11.263 -0.2341  0.0785 -0.0981
 1043W        W 1907   0.120   2.158   8.465  0.1013  0.0351  0.0375
 1044W        W 1908   0.109   6.222  10.150  0.3312 -0.1326 -0.2501
 1045W        W 1909   1.008  29.124   9.718  0.0823  0.1360  0.1153
 1046W        W 1910   1.065   1.277  11.784  0.1066 -0.0422  0.0081
 1047W        W 1911   2.516   5.199  10.636  0.0596 -0.3031 -0.1677
 1048W        W 1912   2.829   2.282  10.853 -0.0881  0.3427  0.1219
 1049W        W 1913   3.457   1.430  10.149  0.1268  0.2410 -0.0182
 1050W        W 1914  29.002   1.558  11.974  0.1181 -0.3345  0.0023
 1051W        W 1915   4.753   2.542  10.678 -0.0813 -0.0783  0.2792
 1052W        W 1916   1.240   0.756   7.362 -0.0974  0.2233 -0.0423
 1053W        W 1917   1.203   3.155  11.488  0.1083 -0.1789  0.1430
 1054W        W 1918   4.635   0.891   6.879 -0.2894  0.0319  0.0483
 1055W        W 1919   4.860   2.718   9.441 -0.0139 -0.0213 -0.1645
 1056W        W 1920   3.875   0.728   4.892  0.2320  0.0672 -0.0837
 1057W        W 1921   1.783   1.630   9.191 -0.0512 -0.1344 -0.1096
 1058W        W 1922   0.220   3.714   8.659 -0.4301  0.1057 -0.0766
 1059W        W 1923   4.489   2.336   8.658 -0.1475 -0.0953  0.1360
 1060W        W 1924   1.265   3.293   9.221 -0.0446 -0.1714  0.0684
 1061W        W 1925   2.563   4.867   6.106 -0.1697 -0.1303 -0.2395
 1062W        W 1926   1.168   0.986   9.531 -0.0921  0.0111  0.4111
 1063W        W 1927   3.221   2.439   8.808 -0.0668  0.0019 -0.0456
 1064W        W 1928   2.119   1.863   9.457 -0.1719  0.1695  0.1192
 1065W        W 1929   2.377   1.370   6.665  0.3378 -0.0144 -0.1645
 1066W        W 1930   0.929   2.335  10.950 -0.1309 -0.0539  0.1911
 1067W        W 1931   1.001   0.836  10.088  0.0740  0.2209 -0.1094
 1068W        W 1932   1.230   4.387   8.561 -0.1356 -0.1373  0.3055
 1069W        W 1933   3.050   1.902  10.509  0.0664  0.2613 -0.0437
 1070W        W 1934   2.370   0.995   7.796  0.2397 -0.0244  0.0526
 1071W        W 1935  27.271   2.396   7.736  0.1413  0.0616  0.0108
 1072W        W 1936   0.111  28.868   7.977 -0.0913 -0.1189 -0.2651
 1073W        W 1937   1.125  28.734   9.405 -0.1545  0.1730  0.0726
 1074W        W 1938  27.894   2.304   6.612 -0.1702  0.3863  0.2191
 1075W        W 1939   1.563   2.098   9.087 -0.3299 -0.1225 -0.1944
 1076W        W 1940   3.013  27.701   9.792  0.2329 -0.0833 -0.2288
 1077W        W 1941   0.546   4.388  11.788 -0.1873  0.1831  0.0347
 1078W        W 1942   4.059  28.167   8.944 -0.1224  0.3727  0.2212
 1079W        W 1943   2.027   3.878   7.631 -0.1046  0.1671 -0.0926
 1080W        W 1944  28.211   1.772   8.567 -0.0167 -0.3552 -0.2052
 1081W        W 1945   4.674  27.533   9.600 -0.1296  0.1887  0.0898
 1082W        W 1946   1.326   1.025   5.262  0.0967 -0.2054  0.0407
 1083W        W 1947   1.535   1.912   7.058  0.0215 -0.1546 -0.1179
 1084W        W 1948   0.450   3.462   8.242  0.0993  0.1693  0.0043
 1085W        W 1949   1.225   2.295   8.239 -0.0615 -0.0369  0.1621
 1086W        W 1950   2.177   2.235  11.442  0.0884 -0.1765  0.0665
 1087W        W 1951   1.768  28.751   8.754  0.3727  0.0141  0.1513
 1088W        W 1952   5.535   3.355   9.051  0.1052  0.1991  0.3342
 1089W        W 1953   3.491   2.196  10.365  0.2429 -0.6898  0.2272
 1090W        W 1954   4.683   2.694   8.268  0.1999 -0.3957  0.2956
 1091W        W 1955   0.083   3.807  11.263  0.0685 -0.0613  0.0468
 1092W        W 1956  27.786   2.028   7.019 -0.1188  0.0032  0.0597
 1093W        W 1957   1.945   2.128  10.519 -0.2979  0.0140  0.2078
 1094W        W 1958   4.706   2.977  10.410  0.0764 -0.2076  0.1569
 1095W        W 1959   4.666   2.175   9.829  0.2623  0.1410  0.2275
 1096W        W 1960  27.409  28.396  11.342  0.1464 -0.0770  0.1541
 1097W        W 1961  26.942   2.442  11.311 -0.0703  0.1257 -0.3477
 1098W        W 1962   1.051  28.772  10.114  0.1402 -0.4501  0.0547
 1099W        W 1963   5.404  28.977  12.272  0.1473 -0.1203  0.2378
 1100W        W 1964  29.066   0.757  12.691  0.1037 -0.1853  0.2304
 1101W        W 1965   2.232   2.511  10.558 -0.0515 -0.0475 -0.1048
 1102W        W 1966   2.538   2.179   9.637 -0.1346  0.0508  0.0586
 1103W        W 1967   2.363   0.257  13.144  0.1628 -0.0722  0.1445
 1104W        W 1968   4.787   4.703   8.864  0.1213 -0.2425  0.3030
 1105W        W 1969   0.754  28.856   9.068  0.2517 -0.0670 -0.1186
 1106W        W 1970   0.477  27.508   8.822  0.0461 -0.2059 -0.0724
 1107W        W 1971   2.846   0.928  10.816 -0.2270 -0.2122 -0.6329
 1108W        W 1972   2.850   2.912  10.153 -0.2193 -0.2182  0.0607
 1109W        W 1973   2.072   1.916   8.914 -0.1920  0.2218 -0.1160
 1110W        W 1974   0.727   0.695  10.490  0.0001 -0.1010  0.0746
 1111W        W 1975   5.127  28.041   8.402 -0.2938  0.0119 -0.2217
 1112W        W 1976   0.809   2.174   7.950  0.0062 -0.4816 -0.2461
 1113W        W 1977  28.717   3.398  10.401 -0.2009  0.1495  0.2743
 1114W        W 1978   0.233   0.584   9.465  0.1522 -0.3433  0.1122
 1115W        W 1979   3.026   1.497   7.310  0.1793 -0.1592  0.1161
 1116W        W 1980   2.500   2.367   7.325 -0.0694 -0.0698 -0.1291
 1117W        W 1981   0.185   2.591  10.356 -0.0602  0.0491  0.1366
 1118W        W 1982   5.138   2.018   7.890  0.1243 -0.1421  0.0574
 1119W        W 1983   1.583   1.288   8.818 -0.1540 -0.0110 -0.3571
 1120W        W 1984   1.336   1.479   9.356  0.0413  0.0002 -0.1400
 1121W        W 1985   2.176   0.400   9.653 -0.1946 -0.2126 -0.1709
 1122W        W 1986   2.499   1.786   8.088  0.0646  0.0521  0.1536
 1123W        W 1987   3.674   4.105   9.613 -0.1388  0.0666  0.0103
 1124W        W 1988   3.382   0.103   8.264  0.3162  0.1627 -0.1562
 1125W        W 1989   0.429   2.253  10.035 -0.0203  0.1984 -0.0666
 1126W        W 1990   2.040   1.700  11.160  0.2253 -0.3091 -0.4550
 1127W        W 1991   0.546   1.811   8.103  0.1585 -0.0831  0.0857
 1128W        W 1992   2.933   1.979   8.763  0.0605 -0.2476 -0.4194
 1129W        W 1993  29.145   3.005  10.991  0.1859  0.0090  0.4678
 1130W        W 1994   3.273   2.810   5.192  0.0339  0.0701  0.0326
 1131W        W 1995   1.822   1.547   8.134 -0.4915 -0.3271 -0.1929
 1132W        W 1996   4.052   1.366  11.917  0.1242 -0.2459  0.3076
 1133W        W 1997   3.148   1.201  11.385 -0.0625  0.0802  0.2969
 1134W        W 1998   3.298   1.550   8.647  0.0007  0.2602 -0.0837
 1135W        W 1999   1.410  28.357   6.677  0.1098  0.0868 -0.1703
 1136W        W 2000   3.246  27.827   8.655  0.0940  0.0801  0.1242
 1137W        W 2001   4.782   2.731   9.930  0.2915  0.0184 -0.0394
 1138W        W 2002   2.082   3.192  11.830 -0.2156  0.1630 -0.2703
 1139W        W 2003   2.351  28.680  10.399 -0.1673 -0.1564  0.2832
 1140W        W 2004   2.462   3.190   9.670  0.1939  0.2524 -0.0163
 1141W        W 2005   5.342   3.734  10.141 -0.3861 -0.0842 -0.0473
 1142W        W 2006  28.145   1.978  12.000 -0.3487  0.1529  0.0405
 1143W        W 2007   3.149   2.904  11.080 -0.1849  0.1016  0.2175
 1144W        W 2008   3.385   2.621  10.160  0.1052  0.2047  0.2324
 1145W        W 2009  28.806   1.331   6.855 -0.1143 -0.1151  0.2221
 1146W        W 2010   4.740   3.189   9.570 -0.2382 -0.1613  0.1039
 1147W        W 2011   2.556   0.501  10.609 -0.2179 -0.5931 -0.1550
 1148W        W 2012   2.745   6.021  10.734  0.1262 -0.0150 -0.3059
 1149W        W 2013   4.295  27.617   6.922 -0.0375  0.2034  0.1733
 1150W        W 2014   3.763   0.986  10.262  0.2572 -0.1620  0.0110
 1151W        W 2015   1.685   1.442  11.765  0.1121  0.1328  0.1965
 1152W        W 2016   2.954   2.381  10.334  0.3688 -0.2429 -0.2889
 1153W        W 2017   1.526   0.997  11.634 -0.1402 -0.3958 -0.2481
 1154W        W 2018   4.295   0.651   8.971 -0.1922 -0.0408 -0.0116
 1155W        W 2019   2.169   2.293   9.218  0.0425 -0.0844 -0.0988
 1156W        W 2020  28.661  29.037   9.886  0.0578 -0.2294 -0.1692
 1157W        W 2021   0.700   1.202  10.403 -0.0595 -0.2898 -0.0967
 1158W        W 2022   1.950   4.519   6.491 -0.2286 -0.0724 -0.0341
 1159W        W 2023  28.808   1.839   9.100 -0.0842  0.1105  0.0153
 1160W        W 2024   4.904   2.183   9.356  0.2594  0.2522  0.2402
 1161W        W 2025   4.201   1.469   9.902  0.0630 -0.0241 -0.1156
 1162W        W 2026   3.831  26.435   9.386  0.0759 -0.1554 -0.0599
 1163W        W 2027   1.677   3.033   8.893  0.0611  0.1644 -0.0709
 1164W        W 2028   4.071   2.838   9.162  0.3768  0.1973 -0.0775
 1165W        W 2029   0.886   1.906  10.739 -0.0713  0.1150 -0.0520
 1166W        W 2030   5.275   2.705  10.127  0.0446  0.0725  0.0883
 1167W        W 2031   1.193   0.431   8.873  0.1466 -0.1699 -0.1684
 1168W        W 2032  28.845   2.257   9.871  0.2222  0.0323 -0.0464
 1169W        W 2033   1.496   1.404   6.903 -0.1540  0.3540 -0.0926
 1170W        W 2034  28.833  28.965   8.173  0.3248  0.0503  0.0782
 1171W        W 2035   3.484   0.777   8.358 -0.1513 -0.1017 -0.1475
 1172W        W 2036  28.209   1.678  10.147  0.2058 -0.3866  0.1886
 1173W        W 2037   3.589   1.518   7.332 -0.0282  0.0112 -0.3466
 1174W        W 2038  29.015  28.983   9.430  0.0470 -0.1810  0.0877
 1175W        W 2039   3.004   2.395   9.283 -0.1842  0.4597 -0.1163
 1176W        W 2040   1.189   0.910   8.452 -0.0294  0.0768  0.0717
 1177W        W 2041  26.158   2.598  10.067 -0.4540 -0.0874 -0.1598
 1178W        W 2042   3.816   1.731   8.360  0.0645  0.0503 -0.0060
 1179W        W 2043   4.227   2.972  10.186 -0.0449  0.0402  0.3337
 1180W        W 2044  29.017  28.433  11.434  0.0380 -0.0066  0.0456
 1181W        W 2045   2.201   0.547  11.372  0.1710  0.0784  0.1664
 1182W        W 2046   1.505   0.858   9.108 -0.0649  0.1179 -0.0897
 1183W        W 2047  26.350   2.462   8.693 -0.1397  0.2376 -0.1039
 1184W        W 2048   1.007   4.871   8.663  0.2801 -0.0030  0.2879
 1185W        W 2049  28.936   1.841   6.726 -0.1333 -0.0891  0.1737
 1186W        W 2050   3.260   3.844   7.804 -0.3590  0.0486 -0.0761
 1187W        W 2051   1.870   1.431   9.884 -0.0401  0.0521 -0.0590
 1188W        W 2052   0.897   2.049   7.479  0.0416 -0.0397 -0.0751
 1189W        W 2053   4.085   2.327   8.897 -0.4009  0.0678  0.0674
 1190W        W 2054   1.437   1.831   8.133 -0.1745 -0.0133 -0.1484
 1191W        W 2055   3.484   0.126   9.040  0.2297  0.0753 -0.1289
 1192W        W 2056  25.325   3.939   9.097  0.2939  0.0781 -0.1036
 1193W        W 2057  28.085   2.001  10.806 -0.1038 -0.0003  0.3625
 1194W        W 2058   0.820   4.433   6.012  0.1205  0.2468  0.0572
 1195W        W 2059   3.386   1.614  12.811 -0.3567  0.0067  0.2110
 1196W        W 2060   1.673   1.767   7.666  0.0313 -0.2459 -0.0622
 1197W        W 2061   1.110   3.037   8.784 -0.1796  0.0261  0.2465
 1198W        W 2062   3.716  28.405   5.424 -0.0416 -0.2537 -0.2761
 1199W        W 2063   0.752   0.872   7.998  0.0557  0.0773  0.0115
 1200W        W 2064   2.410   0.445   5.990 -0.1466 -0.2149 -0.4444
 1201W        W 2065   1.381   3.212   9.697 -0.3016 -0.0174  0.2620
 1202W        W 2066   3.668   2.310   9.910 -0.2063  0.0123  0.1762
 1203W        W 2067   0.223  28.121   9.496  0.1714 -0.4429  0.2140
 1204W        W 2068   1.610   3.731   6.913  0.1056 -0.2102  0.3084
 1205W        W 2069   6.865   3.445  12.478  0.0248  0.1967  0.1893
 1206W        W 2070   1.944   0.602   9.036 -0.1312 -0.1977  0.0889
 1207W        W 2071   0.592   3.931   7.349  0.3141 -0.1122  0.0583
 1208W        W 2072   1.427   1.750  14.438  0.0737 -0.2924  0.1377
 1209W        W 2073   2.578   3.343  11.800  0.1183 -0.1701 -0.5786
 1210W        W 2074   0.504   1.097   8.976  0.0618  0.1307  0.3225
 1211W        W 2075   0.675   1.053   8.471 -0.4614  0.3022 -0.0994
 1212W        W 2076   3.611   0.712   6.631 -0.0729  0.0331  0.3573
 1213W        W 2077  28.452  26.857   6.726  0.1823 -0.1349  0.2132
 1214W        W 2078   1.234   4.255   8.081 -0.4055 -0.0455  0.1644
 1215W        W 2079   4.930   0.454  11.053 -0.1068  0.0232 -0.3742
 1216W        W 2080   2.034   0.372  10.869 -0.0045  0.1550  0.3136
 1217W        W 2081   3.663   0.593  11.257 -0.0829 -0.3138 -0.1037
 1218W        W 2082   1.778   1.469   6.057 -0.0256  0.2046  0.1521
 1219W        W 2083  26.989   1.906   7.652  0.1285 -0.5262  0.1308
 1220W        W 2084   0.743   0.970  12.167 -0.1110  0.1261 -0.2631
 1221W        W 2085  28.724  29.015   6.847  0.0093 -0.2613  0.1015
 1222W        W 2086   2.166   1.898  10.095  0.0717  0.1569  0.2891
 1223W        W 2087   1.603  28.707   9.271  0.0206  0.2475  0.0395
 1224W        W 2088   2.051   3.493   6.793 -0.0920  0.0701 -0.1943
 1225W        W 2089  28.252   0.623   8.922  0.3463  0.0894  0.1674
 1226W        W 2090   0.420   1.620   9.825  0.2185  0.0725  0.0841
 1227W        W 2091   0.098   3.584  10.461  0.1095  0.0829 -0.0311
 1228W        W 2092   1.532   2.501   7.881  0.1455 -0.3779 -0.0003
 1229W        W 2093   2.334   1.176   9.979  0.2303 -0.1396 -0.2620
 1230W        W 2094   2.072   1.444   8.597  0.1081  0.0142 -0.3663
 1231W        W 2095   4.812  28.054   8.805  0.0464  0.3407  0.0625
 1232W        W 2096   2.691   0.546   9.297  0.1755 -0.2563  0.0933
 1233W        W 2097   3.674   4.503   7.614 -0.0882  0.2317 -0.0929
 1234W        W 2098   3.787   2.930   8.544 -0.2088 -0.0905 -0.0063
 1235W        W 2099   1.699   3.134  12.867 -0.0638  0.2785  0.0284
 1236W        W 2100   6.827  28.064  10.433  0.0798 -0.1338  0.1887
 1237W        W 2101   0.701  28.733   8.546  0.1496  0.0208 -0.0042
 1238W        W 2102   1.791   3.277   9.417  0.0910  0.0006 -0.0662
 1239W        W 2103   2.980  28.880   8.154 -0.1839 -0.0564 -0.0078
 1240W        W 2104   2.759   4.189   8.587 -0.3231  0.0118 -0.1644
 1241W        W 2105   3.738   1.538  12.335 -0.2095 -0.0359  0.0130
 1242W        W 2106   0.353   1.865  10.848  0.1816  0.1836 -0.0147
 1243W        W 2107   4.498   0.282   9.854  0.0631 -0.1578  0.0057
 1244W        W 2108   3.475   1.008   9.398  0.0276  0.1106 -0.0607
 1245W        W 2109   2.765   3.298  10.512 -0.1387  0.0673  0.2164
 1246W        W 2110  28.387   1.343  12.034 -0.1531 -0.0085 -0.0762
 1247W        W 2111   2.146   1.705  10.657 -0.4009 -0.3597 -0.1881
 1248W        W 2112   1.496   2.849   9.361 -0.1461  0.2353  0.2425
 1249W        W 2113   2.515   1.798   8.625 -0.0287 -0.1800  0.1181
 1250W        W 2114  27.837   0.262   9.754  0.0500  0.2517  0.2690
 1251W        W 2115   2.172   3.382   9.120  0.0203  0.1194  0.1218
 1252W        W 2116   4.452   1.361   6.768 -0.1120  0.0161  0.1981
 1253W        W 2117   1.140  28.966  12.692 -0.0422  0.2289 -0.1169
 1254W        W 2118   2.213   3.610   9.724 -0.2776  0.1270  0.1026
 1255W        W 2119   0.865   0.627  10.975 -0.0076  0.1092 -0.3339
 1256W        W 2120   0.799   3.759   8.082  0.2330 -0.5288 -0.1537
 1257W        W 2121   0.286   1.268  10.143 -0.1258 -0.1231 -0.0231
 1258W        W 2122  28.558   0.571   7.554 -0.0299  0.1200 -0.0518
 1259W        W 2123   1.819   0.192   6.801  0.0834  0.2465  0.3084
 1260W        W 2124   4.130  28.123   8.411 -0.2470  0.0433  0.2198
 1261W        W 2125   1.264   2.358   6.901  0.0228 -0.1521 -0.2212
 1262W        W 2126   5.538   0.519  10.194 -0.2802  0.1514  0.0244
 1263W        W 2127   2.600   3.498  11.348  0.1972  0.0505 -0.0561
 1264W        W 2128   1.759   3.602   8.965  0.0768 -0.1060 -0.1251
 1265W        W 2129   1.387  26.918   9.664 -0.0028 -0.0341 -0.3747
 1266W        W 2130   3.053   3.539   8.186 -0.2570 -0.4483  0.0969
 1267W        W 2131   0.659   2.723  10.213 -0.2780 -0.2189 -0.0963
 1268W        W 2132   3.606   4.342  10.134 -0.1276 -0.0410 -0.1174
 1269W        W 2133   1.787   2.573  10.694 -0.2029  0.0335  0.0356
 1270W        W 2134   0.764   1.742   9.113 -0.2280 -0.0668  0.0092
 1271W        W 2135   1.007   1.844   8.327 -0.1984  0.1312 -0.0769
 1272W        W 2136   2.028  26.859   6.751 -0.1382  0.1281 -0.1832
 1273W        W 2137   0.703  28.462  11.318  0.1796  0.0977  0.1081
 1274W        W 2138   2.902   0.827   8.894 -0.0603  0.0522  0.2132
 1275W        W 2139   4.164   1.073   5.328  0.3196  0.1042 -0.3274
 1276W        W 2140   0.413   1.435   7.820 -0.1777  0.0415  0.2038
 1277W        W 2141   0.785  28.204   9.604 -0.0919 -0.2811  0.0444
 1278W        W 2142   4.707   1.590  10.016  0.0358  0.0820  0.1992
 1279W        W 2143   1.895  28.788  10.643  0.2165 -0.1283  0.1212
 1280W        W 2144  28.374   3.237   8.017 -0.0033 -0.0524  0.3223
 1281W        W 2145   1.409   2.917  12.447  0.0760  0.0629 -0.0254
 1282W        W 2146  29.128   4.184   7.932  0.1198 -0.2316  0.2240
 1283W        W 2147   2.946   3.325   8.860  0.0426 -0.2336  0.0327
 1284W        W 2148  28.646   1.345  10.218 -0.0715 -0.2108  0.1270
 1285W        W 2149   2.700   3.237   6.184  0.3870 -0.0275  0.0272
 1286W        W 2150   0.572   0.934   9.736  0.0444 -0.0886 -0.0180
 1287W        W 2151   2.208   2.119  10.923  0.3007 -0.2069 -0.0604
 1288W        W 2152   2.826  28.618  10.071 -0.0116 -0.1931 -0.0477
 1289W        W 2153   0.823   0.481   9.621 -0.3281  0.0935 -0.0738
 1290W        W 2154   2.868   0.671  10.266 -0.2145 -0.0115 -0.2497
 1291W        W 2155   1.881  28.583  12.655  0.0357  0.0553 -0.2148
 1292W        W 2156   0.582   1.707  10.395  0.1105 -0.2612 -0.2164
 1293W        W 2157   0.929   1.674   9.566 -0.0414 -0.2171  0.2439
 1294W        W 2158   3.134   1.812   5.225 -0.0514  0.0440  0.0993
 1295W        W 2159  26.515   5.220  11.095 -0.0322 -0.0078 -0.2218
 1296W        W 2160   1.607   1.194   7.368  0.0813 -0.0440  0.0540
 1297W        W 2161   2.888   0.514   6.950  0.2587  0.0496 -0.0334
 1298W        W 2162   0.934   1.170   7.664 -0.0587  0.2494 -0.1246
 1299W        W 2163  27.264   2.818   8.772 -0.0913  0.2563  0.0329
 1300W        W 2164   1.589  27.293  10.419 -0.2754 -0.3552 -0.2671
 1301W        W 2165   2.856   1.949  12.157  0.2316  0.1944 -0.1271
 1302W        W 2166   4.488   4.528   8.361  0.3000 -0.1829 -0.0027
 1303W        W 2167  27.784   2.411  11.147 -0.1409 -0.3805  0.0376
 1304W        W 2168   3.756   0.666   7.551  0.0524 -0.0946  0.2165
 1305W        W 2169   1.551  28.186   9.290  0.0557 -0.2600  0.0717
 1306W        W 2170  28.843   2.297   6.421  0.1343 -0.3042 -0.1312
 1307W        W 2171   5.298  28.452   5.849  0.1511 -0.2036 -0.0466
 1308W        W 2172   1.335   0.893   7.966  0.3385  0.1162 -0.2628
 1309W        W 2173  28.308   0.659   7.129 -0.2881 -0.1316 -0.0506
 1310W        W 2174   1.033   6.314   9.540 -0.0236  0.0424  0.2594
 1311W        W 2175   2.877   1.411   9.949  0.1079  0.1280 -0.0458
 1312W        W 2176   3.009   0.497  10.768 -0.0853 -0.0757  0.0192
 1313W        W 2177   1.864   2.144   8.004  0.2163  0.1004 -0.1769
 1314W        W 2178   4.412   0.175   9.274 -0.0521 -0.1415  0.0591
 1315W        W 2179  27.186   2.748   6.869 -0.2480 -0.2776  0.3408
 1316W        W 2180  26.151   2.470   9.557 -0.1482 -0.0153 -0.1480
 1317W        W 2181   1.403   1.762  12.079 -0.1366  0.2907  0.2112
 1318W        W 2182   3.169   3.021   9.314  0.1485 -0.0619  0.0093
 1319W        W 2183   3.440   2.032   9.438 -0.1124  0.0943  0.0475
 1320W        W 2184   2.144   2.388   8.713 -0.1907  0.0496  0.1281
 1321W        W 2185  28.930   3.759   7.680 -0.2301  0.3086 -0.0781
 1322W        W 2186   1.873   2.627  12.614  0.0239 -0.0547 -0.3497
 1323W        W 2187   2.404  28.903   8.574 -0.0658  0.0077  0.1616
 1324W        W 2188   2.016   1.267  10.369 -0.1018  0.0095  0.0199
 1325W        W 2189  27.887   3.226   7.880  0.0355 -0.1832  0.3383
 1326W        W 2190  27.037   1.185   5.976  0.2511  0.4222  0.1471
 1327W        W 2191   2.706   0.887   9.693 -0.2117 -0.0446 -0.1668
 1328W        W 2192   2.282  28.264   8.020 -0.2131 -0.0745 -0.0643
 1329W        W 2193   0.931   1.279   5.595  0.2440  0.2080 -0.1631
 1330W        W 2194  26.181   2.646  11.583 -0.0782 -0.1233 -0.3537
 1331W        W 2195   2.731   2.778  10.682 -0.4252  0.0577  0.3016
 1332W        W 2196   0.214   2.173   7.961 -0.1898 -0.1503 -0.1077
 1333W        W 2197   4.736   3.127   8.650 -0.1789  0.3734 -0.0496
 1334W        W 2198   2.724   5.563   9.947  0.0448 -0.2360  0.0024
 1335W        W 2199   4.226   3.180   9.624  0.1387 -0.1207 -0.0337
 1336W        W 2200  28.344   1.384   8.230  0.0558 -0.2745 -0.1206
 1337W        W 2201   3.225   3.045  10.586 -0.0913 -0.1667  0.0069
 1338W        W 2202   1.672   1.662  10.308 -0.0939  0.2673 -0.1776
 1339W        W 2203   0.966   2.999  10.575 -0.0271  0.2858 -0.1431
 1340W        W 2204   0.624   0.983   7.233  0.0718  0.3210 -0.0339
 1341W        W 2205   0.147   3.221   9.146  0.1031 -0.0194  0.1045
 1342W        W 2206   0.189   0.783   8.611  0.0694  0.2185  0.0835
 1343W        W 2207  26.934   1.971   6.613  0.5273  0.0953 -0.0815
 1344W        W 2208   1.386   0.184   7.288  0.3659 -0.2297  0.0891
 1345W        W 2209   2.492   2.360  10.121  0.2753  0.1746  0.1380
 1346W        W 2210   0.104   0.146   9.919  0.1778  0.2232  0.1219
 1347W        W 2211   4.792   0.459   7.301  0.1170 -0.0240  0.1466
 1348W        W 2212   2.315   0.852  10.923 -0.0576  0.2214 -0.2209
 1349W        W 2213  29.074   2.365  11.472  0.2355 -0.0487  0.2009
 1350W        W 2214   0.691   3.086  11.591  0.0621  0.0525  0.2374
 1351W        W 2215   5.027   2.291  10.203  0.0276  0.1260  0.0925
 1352W        W 2216   0.765   1.284   9.332 -0.3069  0.0438  0.1131
 1353W        W 2217   2.891   1.602   7.798 -0.1150  0.0099  0.2246
 1354W        W 2218   1.093  28.285   9.182  0.1914 -0.1882  0.1742
 1355W        W 2219   2.983  27.747   7.465 -0.2522 -0.3784 -0.2692
 1356W        W 2220   3.634   3.563  10.606 -0.1777 -0.2803 -0.0577
 1357W        W 2221   1.289   0.983  11.135 -0.2097  0.1333 -0.3038
 1358W        W 2222   1.553  28.659  10.325  0.1116 -0.2806  0.0046
 1359W        W 2223  28.445   5.545   7.098  0.0666  0.0567 -0.2527
 1360W        W 2224   1.315   2.115   7.732 -0.3964 -0.0615  0.3171
 1361W        W 2225   0.645   2.850   8.945 -0.3271 -0.2920 -0.1210
 1362W        W 2226  28.865   4.508   6.947  0.2033 -0.1163 -0.2301
 1363W        W 2227  28.475  28.851   8.557  0.1393  0.0801 -0.0069
 1364W        W 2228   2.996   3.803   7.254  0.0815 -0.3277 -0.1761
 1365W        W 2229  26.386   0.176   7.666  0.2420  0.0741 -0.0077
 1366W        W 2230   2.119   3.550  10.259 -0.2118  0.3038  0.0597
 1367W        W 2231   2.020   0.086   6.007  0.0339  0.0702  0.1286
 1368W        W 2232   2.355  29.114   9.883  0.0915 -0.1085 -0.1058
 1369W        W 2233  29.103   4.658  10.209  0.0264  0.1775 -0.0610
 1370W        W 2234   1.617   1.893   9.602 -0.1243  0.6394 -0.1126
 1371W        W 2235   5.636  28.848   8.534 -0.0514  0.0547  0.1999
 1372W        W 2236  28.667   3.530   8.259 -0.1821  0.1316  0.4167
 1373W        W 2237   0.238  27.236   9.303 -0.3102 -0.0951  0.1147
 1374W        W 2238   0.043   3.919  10.805 -0.0289  0.0333 -0.1132
 1375W        W 2239  28.557   1.134   7.256 -0.1256  0.5320 -0.0295
 1376W        W 2240   1.760   1.150   9.473 -0.0784  0.1411  0.0346
 1377W        W 2241   2.392   4.106  13.410 -0.2261 -0.0808  0.2519
 1378W        W 2242   1.949   2.606  10.157 -0.0452  0.1563 -0.2542
 1379W        W 2243   3.689   1.095  11.218 -0.1323 -0.1626  0.0216
 1380W        W 2244   2.055   3.239   7.587  0.4477  0.0949 -0.0880
 1381W        W 2245  28.916   2.122   8.098  0.1021  0.0074  0.0712
 1382W        W 2246   2.517   2.625   9.335  0.0331  0.0285 -0.1655
 1383W        W 2247   2.794   0.245   8.896 -0.0147  0.2973 -0.3491
 1384W        W 2248   1.708   0.154   4.972 -0.1208  0.4484  0.3765
 1385W        W 2249   4.635  28.023   9.596  0.0474  0.0387 -0.1525
 1386W        W 2250   2.097  28.531   5.328  0.1541  0.0454 -0.3020
 1387W        W 2251  28.798   0.737  11.354  0.0608 -0.2061 -0.0868
 1388W        W 2252   3.347   2.191   6.335 -0.0986  0.2390  0.0692
 1389W        W 2253   1.037   3.032  10.037 -0.1134 -0.0589 -0.3293
 1390W        W 2254   1.426   2.736   8.433  0.0866  0.2221  0.0017
 1391W        W 2255   0.977  27.466   9.045 -0.1552 -0.1679  0.3846
 1392W        W 2256   1.037   0.800  11.621  0.4934 -0.1955 -0.4210
 1393W        W 2257   3.212   3.950  12.215 -0.0641  0.0189  0.2470
 1394W        W 2258   2.121  28.803  11.194  0.0987  0.0362  0.1679
 1395W        W 2259  28.749   1.082  12.955 -0.1333 -0.0616  0.1944
 1396W        W 2260   2.498   2.079  10.529 -0.0621 -0.0071  0.0724
 1397W        W 2261   3.449   3.371   8.877 -0.0079 -0.1010  0.0234
 1398W        W 2262  28.776   0.357   9.983  0.0216 -0.0386 -0.0398
 1399W        W 2263   1.136  27.741  10.399  0.0493  0.1439  0.0473
 1400W        W 2264   4.080   2.809  12.881 -0.1663 -0.1636 -0.2132
 1401W        W 2265   1.213   1.391   8.339 -0.0427 -0.1725 -0.0213
 1402W        W 2266  27.992   1.306   9.395  0.1912 -0.2359  0.2113
 1403W        W 2267   2.109   3.823   9.294  0.0831  0.1450 -0.0253
 1404W        W 2268   1.536   1.891  11.518 -0.3205  0.1196 -0.0000
 1405W        W 2269   3.103   3.736  13.136  0.1144 -0.1745  0.0960
 1406W        W 2270   2.356   2.719   9.787  0.0288  0.0049  0.1391
 1407W        W 2271  28.498   2.297   7.782  0.4715  0.0405 -0.0489
 1408W        W 2272   2.090   0.318  10.296 -0.3217  0.2034 -0.1956
 1409W        W 2273  28.908   0.458   6.501 -0.1600 -0.1589 -0.1466
 1410W        W 2274  29.147   4.685   7.806 -0.1449 -0.0071  0.2045
 1411W        W 2275   1.125  28.626  11.132 -0.1924 -0.0119  0.0970
 1412W        W 2276   1.606   4.617   8.204  0.0825 -0.2714  0.2441
 1413W        W 2277   0.317   1.609   9.353  0.0057  0.0085  0.0038
 1414W        W 2278   1.022   2.948   9.473  0.3305 -0.0013 -0.1115
 1415W        W 2279   0.112   2.116   6.984 -0.0948 -0.0452  0.0398
 1416W        W 2280  27.966   1.205  13.095 -0.3245 -0.1779 -0.0570
 1417W        W 2281   1.226   1.825  15.492 -0.1735  0.0211 -0.1615
 1418W        W 2282   0.258   3.492  10.972 -0.0061  0.2745  0.0888
 1419W        W 2283   2.645   2.796  14.361 -0.3401  0.0430  0.3327
 1420W        W 2284  26.794   3.710  12.540  0.0468 -0.0122  0.2203
 1421W        W 2285   4.308   1.303  13.194 -0.3477 -0.4780 -0.1659
 1422W        W 2286  28.656   2.423   8.907  0.0760  0.0671 -0.0604
 1423W        W 2287   3.023   1.826  11.290  0.1836 -0.0013 -0.2443
 1424W        W 2288   2.002   3.680  13.855  0.3707 -0.5145  0.0588
 1425W        W 2289   0.072  29.102  15.072 -0.0338 -0.2112 -0.0866
 1426W        W 2290  27.784  29.088  16.742  0.4543  0.2081 -0.0527
 1427W        W 2291   1.787   2.187  12.825 -0.2895  0.1082  0.2136
 1428W        W 2292   1.635   1.018  10.667  0.0328 -0.2608 -0.0310
 1429W        W 2293   3.053   2.393  11.267 -0.0700 -0.0261 -0.2723
 1430W        W 2294   2.476   2.007  12.573 -0.3667  0.6567  0.2356
 1431W        W 2295  26.896   1.953  15.072 -0.0198 -0.1224  0.0616
 1432W        W 2296  27.963   2.387   9.645 -0.1157 -0.3630 -0.0550
 1433W        W 2297   2.167   2.537  14.753  0.0289  0.0716 -0.2283
 1434W        W 2298   1.285   2.130  12.990  0.2318  0.0783  0.1162
 1435W        W 2299   2.517  27.166  12.438  0.3188 -0.3623  0.2528
 1436W        W 2300   3.917   2.950  14.686 -0.1168  0.0342  0.1723
 1437W        W 2301   2.805   2.924  12.091  0.0903  0.2118  0.2054
 1438W        W 2302   2.663   3.975  14.799 -0.1642 -0.1912  0.2064
 1439W        W 2303  28.418   1.871  13.283  0.0888  0.1964  0.0599
 1440W        W 2304  27.731   2.444  10.600 -0.1086 -0.1635 -0.0222
 1441W        W 2305   2.930   3.663  12.665 -0.0346  0.0098 -0.2400
 1442W        W 2306   4.446   0.378  14.157 -0.1720 -0.0883  0.2622
 1443W        W 2307   3.651   2.841  15.190  0.0213  0.1087 -0.0978
 1444W        W 2308   2.136   0.378  12.498  0.0670  0.0725 -0.1644
 1445W        W 2309   3.282   3.066   9.944 -0.3261 -0.1214  0.0777
 1446W        W 2310   5.207  28.932  13.215  0.1775 -0.0517 -0.4201
 1447W        W 2311   1.852   0.136  15.244 -0.0063  0.1039  0.0502
 1448W        W 2312   0.558   1.925  13.556  0.0554  0.1261 -0.0481
 1449W        W 2313  28.717   2.030  15.829  0.1664  0.0880  0.2230
 1450W        W 2314   2.586   1.689  15.770 -0.1372 -0.0244 -0.4581
 1451W        W 2315  27.560  28.444  14.992  0.0246  0.2072  0.1435
 1452W        W 2316   1.606   5.082  13.682 -0.1647 -0.1109 -0.4121
 1453W        W 2317   3.253   3.224  12.833 -0.3611 -0.0130 -0.1514
 1454W        W 2318   1.875   0.994  13.663 -0.3342  0.1630  0.0102
 1455W        W 2319   5.834   1.492  12.053  0.0526  0.0874 -0.0430
 1456W        W 2320   6.282  28.817  12.699 -0.0649  0.0206  0.0694
 1457W        W 2321   4.119   3.872  14.997  0.0091 -0.0676  0.3492
 1458W        W 2322   4.139   2.474  11.133  0.0913 -0.1210  0.0430
 1459W        W 2323   0.780   4.628  12.260 -0.2911  0.0569 -0.0779
 1460W        W 2324   0.154   3.355  13.504  0.0122  0.1397 -0.3028
 1461W        W 2325  27.368  28.859  15.272 -0.2908  0.2333 -0.0506
 1462W        W 2326   4.266   0.072  12.849 -0.1287  0.0984 -0.3864
 1463W        W 2327   2.531   2.545  13.301  0.0855 -0.2011  0.0882
 1464W        W 2328   1.739   4.332  11.042 -0.1435  0.0352  0.0003
 1465W        W 2329  28.158   2.543  11.679 -0.2570  0.2513  0.0429
 1466W        W 2330   1.496   0.829  14.092 -0.1379 -0.0426  0.1116
 1467W        W 2331   3.600   2.531  11.178  0.0575  0.0538  0.0997
 1468W        W 2332   3.351   2.966  12.050  0.3180 -0.2148  0.0571
 1469W        W 2333   2.108   1.321  12.445  0.4908  0.3849  0.0847
 1470W        W 2334  29.040   3.340  10.013 -0.1099 -0.0170  0.0046
 1471W        W 2335  28.768   1.209  15.425 -0.4619  0.1035 -0.2719
 1472W        W 2336   3.458   3.051  11.547  0.2547  0.0788 -0.2198
 1473W        W 2337  25.737   3.494  14.120 -0.0089  0.0817 -0.1203
 1474W        W 2338  28.999   4.248  12.003  0.1392  0.2515 -0.0576
 1475W        W 2339   3.103   2.762  12.523 -0.0339 -0.0753  0.2057
 1476W        W 2340  28.386   1.196  12.654  0.2614 -0.2105  0.0118
 1477W        W 2341   0.255   2.935  13.710 -0.0075  0.2995  0.1555
 1478W        W 2342   1.266   4.288  12.470  0.2115 -0.0182  0.1483
 1479W        W 2343   0.366   2.165  13.138 -0.0253 -0.4546  0.2592
 1480W        W 2344   3.778  26.123  12.353 -0.2476 -0.1900  0.1724
 1481W        W 2345   0.749   2.787  13.653 -0.1493 -0.3732  0.0818
 1482W        W 2346   2.981   1.243  10.425  0.2944  0.0400 -0.0081
 1483W        W 2347  26.711   1.422  10.540 -0.4953  0.4397 -0.0250
 1484W        W 2348   2.389   2.832  11.685  0.1594 -0.0577 -0.3381
 1485W        W 2349   1.364   5.189  14.964 -0.1002  0.2061  0.0701
 1486W        W 2350   4.155   0.471  10.768  0.3041  0.3569 -0.1545
 1487W        W 2351   3.605   5.436  12.643 -0.1436 -0.2314  0.2361
 1488W        W 2352   2.795   2.395  12.630 -0.0354  0.0627 -0.0635
 1489W        W 2353   5.018   1.119  12.686  0.1586 -0.0995  0.0061
 1490W        W 2354   4.563   0.856  13.427 -0.2781  0.2148  0.0461
 1491W        W 2355   1.086   2.049   9.832 -0.0322 -0.4389 -0.0903
 1492W        W 2356   1.783   2.833  14.311 -0.1272  0.2338 -0.0041
 1493W        W 2357   4.038   4.436  14.137  0.0501 -0.0761 -0.1585
 1494W        W 2358   2.035   3.966  14.275 -0.1744 -0.1643  0.3778
 1495W        W 2359   1.523   3.626  13.610  0.0251  0.1727 -0.2222
 1496W        W 2360   0.842   1.744  13.940  0.0583 -0.0085 -0.0787
 1497W        W 2361   1.128  28.775  13.659  0.0261 -0.0115 -0.2157
 1498W        W 2362   1.545   0.217  12.775 -0.0731  0.1419 -0.1559
 1499W        W 2363   2.459   1.625  13.844  0.3035 -0.1367 -0.0764
 1500W        W 2364   3.053   2.464  12.086  0.0104 -0.0538  0.1713
 1501W        W 2365   3.497   5.902  13.506  0.0127 -0.2061  0.1535
 1502W        W 2366   1.802   1.054  14.747  0.0977 -0.0984  0.2455
 1503W        W 2367   2.987   0.807  17.229  0.0394  0.0154  0.1530
 1504W        W 2368   0.325  28.779  14.817 -0.2262  0.0145  0.1010
 1505W        W 2369   1.925   1.732  12.129  0.0783  0.2492 -0.1006
 1506W        W 2370   3.277   2.180  14.552  0.0854 -0.2340  0.3618
 1507W        W 2371   0.477   5.631  11.198  0.0525  0.0155 -0.1063
 1508W        W 2372   1.243   1.409  10.786  0.0230  0.0655 -0.2548
 1509W        W 2373  28.855  28.768  14.917 -0.1573 -0.0736 -0.1051
 1510W        W 2374   4.144   1.467  12.691  0.1534 -0.0939 -0.1299
 1511W        W 2375   4.502   2.123  12.066 -0.1037 -0.0948  0.1089
 1512W        W 2376   2.002   4.632  14.682 -0.0113 -0.1356 -0.0419
 1513W        W 2377   0.622   0.028  12.875  0.1117 -0.0416  0.0668
 1514W        W 2378   4.186   2.646  10.651  0.2354 -0.0376  0.0811
 1515W        W 2379   2.479   2.574  11.098  0.2522  0.0474 -0.0230
 1516W        W 2380  27.929   0.141  13.515  0.2568  0.1021  0.1678
 1517W        W 2381   3.545   1.155  12.647 -0.2409 -0.1911  0.1880
 1518W        W 2382   4.018   3.528  10.899  0.1093  0.0459  0.0641
 1519W        W 2383   6.794   0.171  13.779 -0.1821  0.2542 -0.2066
 1520W        W 2384   0.630  29.035  15.143  0.2033  0.0412  0.0755
 1521W        W 2385   4.727   3.192  14.484 -0.2536  0.1471 -0.0924
 1522W        W 2386   2.637   2.755  14.870 -0.0659  0.2243  0.1152
 1523W        W 2387   1.239   1.143  14.460  0.2998 -0.2769 -0.1081
 1524W        W 2388   0.099  28.654  12.845 -0.0932  0.2263 -0.3190
 1525W        W 2389  29.075   1.399  15.803  0.0410  0.1506  0.0612
 1526W        W 2390   2.861   4.313  12.077  0.3161 -0.3537  0.2591
 1527W        W 2391   3.725   1.014  13.614 -0.1921  0.0732 -0.1727
 1528W        W 2392   4.012   5.109  15.993  0.1000  0.5139  0.2212
 1529W        W 2393   2.555   3.145  13.488 -0.2049  0.1113  0.0042
 1530W        W 2394   1.402   2.690  11.943 -0.3477 -0.1515 -0.1558
 1531W        W 2395   4.427   1.838  14.414  0.2477  0.0338  0.3028
 1532W        W 2396   4.005   1.805  15.391  0.2405 -0.0517  0.0472
 1533W        W 2397   3.916   3.850  12.818  0.2895  0.0802 -0.0497
 1534W        W 2398   3.560   3.264  14.199  0.0690  0.0067  0.0870
 1535W        W 2399   5.219  28.049  12.851 -0.3664  0.1873  0.3974
 1536W        W 2400   1.928   3.873  10.697  0.1450 -0.0672  0.1328
 1537W        W 2401   2.511   2.064  14.111  0.0404 -0.1351  0.1063
 1538W        W 2402   4.441  29.032  11.067 -0.2207 -0.2393 -0.1763
 1539W        W 2403   1.672   2.348  11.581  0.1879  0.0719 -0.1772
 1540W        W 2404   4.876   0.212  14.189  0.0825 -0.2991 -0.0359
 1541W        W 2405  28.322   2.066   8.908  0.1565  0.0048 -0.0643
 1542W        W 2406   4.348   2.663  13.382  0.0036  0.3366 -0.1665
 1543W        W 2407   3.710   5.484  14.907 -0.4086 -0.2999 -0.0189
 1544W        W 2408  28.399   2.680  13.004  0.0005  0.1464  0.0924
 1545W        W 2409   3.553   5.213  14.147 -0.0950  0.2133 -0.0874
 1546W        W 2410   3.325  28.039  11.114  0.2359  0.2929 -0.3505
 1547W        W 2411   1.940   5.098  16.089 -0.1917 -0.0348  0.0122
 1548W        W 2412   3.175   1.153  12.919 -0.1569 -0.1600  0.1559
 1549W        W 2413   3.551   1.793  14.265 -0.0650  0.1089  0.0770
 1550W        W 2414   1.136   2.685  13.297  0.1065 -0.3555  0.2573
 1551W        W 2415   3.512   1.655  15.185  0.1750 -0.0314 -0.0525
 1552W        W 2416   2.441   0.816  14.186  0.0744 -0.1346  0.3432
 1553W        W 2417   2.397   4.179  10.617  0.2914 -0.1070  0.1233
 1554W        W 2418   0.599   5.128  11.081 -0.4590  0.0269 -0.1575
 1555W        W 2419  29.012   2.086  11.968  0.1627 -0.2539 -0.3925
 1556W        W 2420  28.587   0.038  15.736  0.2149 -0.0261 -0.3780
 1557W        W 2421   1.602   4.202  12.040  0.1516  0.0296  0.0119
 1558W        W 2422   1.452   3.429  12.524 -0.1313 -0.0858 -0.0367
 1559W        W 2423   3.999   1.583  14.282  0.0185  0.1352  0.0068
 1560W        W 2424   0.127   1.190  14.419  0.1289 -0.0885  0.2571
 1561W        W 2425   3.442   2.402  15.148 -0.2359 -0.2459 -0.0972
 1562W        W 2426   2.621   4.403  13.017  0.0786  0.0678  0.1342
 1563W        W 2427   2.024   4.112  11.812 -0.2086 -0.1179 -0.3207
 1564W        W 2428   2.625   3.151   9.217 -0.0383  0.1176 -0.0627
 1565W        W 2429   1.794   3.091  13.806  0.1878 -0.0914  0.1590
 1566W        W 2430  27.910   1.516  11.007 -0.1786 -0.1421 -0.0121
 1567W        W 2431   3.520   5.608  15.447  0.0128 -0.0092 -0.1438
 1568W        W 2432   0.364   3.452  11.592 -0.0595  0.2795  0.2092
 1569W        W 2433   2.179   1.311  11.942 -0.3007  0.3052 -0.1474
 1570W        W 2434   3.273   0.269  15.181  0.1926  0.1978  0.4579
 1571W        W 2435  29.148   3.043  15.285 -0.0545 -0.1189  0.0326
 1572W        W 2436   3.308   2.551  11.658 -0.0823  0.0092 -0.1231
 1573W        W 2437   0.694  28.493  13.519 -0.0798  0.0826  0.0169
 1574W        W 2438   5.895   0.519  14.669 -0.1502  0.3186  0.1427
 1575W        W 2439   3.043  27.969  13.734  0.1961 -0.1434 -0.1586
 1576W        W 2440   3.916   0.244  12.475  0.3757  0.0171 -0.2780
 1577W        W 2441   2.221   0.473  15.318 -0.1310  0.3542 -0.0101
 1578W        W 2442   4.376   2.860  14.289  0.4458  0.3473  0.1898
 1579W        W 2443   2.879   0.839  13.803 -0.1211  0.1754  0.1753
 1580W        W 2444  28.599  29.139  13.021  0.1576 -0.2633  0.2458
 1581W        W 2445   1.804   0.967  12.559  0.0183 -0.1352  0.2612
 1582W        W 2446   0.737   5.192  10.564 -0.2036 -0.0815  0.2797
 1583W        W 2447   1.166   1.422  17.764  0.1466 -0.1148 -0.2383
 1584W        W 2448   0.134   2.559  14.473  0.2499  0.1982 -0.0015
 1585W        W 2449   2.838   4.122  12.514 -0.2104 -0.2796 -0.3135
 1586W        W 2450   2.045   1.348  12.943 -0.0628  0.2351  0.0904
 1587W        W 2451   1.180   2.242  12.011  0.0999 -0.0004 -0.0184
 1588W        W 2452   1.986   5.422   7.715  0.1567 -0.0498 -0.2896
 1589W        W 2453   6.514   0.668  13.870 -0.1689  0.2639  0.0785
 1590W        W 2454   4.825   3.652  13.711  0.0830  0.1668  0.1280
 1591W        W 2455  28.904   3.044  14.820  0.0144  0.2341  0.0284
 1592W        W 2456  28.398   3.719  13.642 -0.1495  0.0689 -0.2709
 1593W        W 2457   0.677   5.402  12.014 -0.0045 -0.0270 -0.0201
 1594W        W 2458   6.106   0.434  12.335  0.2037 -0.2641  0.0480
 1595W        W 2459   3.695   3.377  12.050 -0.2420 -0.1093  0.1441
 1596W        W 2460   3.501   3.735  11.088 -0.2498  0.2099  0.1792
 1597W        W 2461   1.890   0.076  13.184  0.1074  0.1466  0.0608
 1598W        W 2462  28.226  28.914  10.962 -0.1223  0.0621 -0.2960
 1599W        W 2463   3.054   2.336   9.849  0.4708 -0.2086 -0.2218
 1600W        W 2464   2.285   1.306  14.721  0.2154  0.0354  0.0306
 1601W        W 2465   3.162   0.933  13.371 -0.0870 -0.2440 -0.2806
 1602W        W 2466  28.719   1.216  11.121  0.1102 -0.0723  0.0271
 1603W        W 2467   1.311   0.974  12.256 -0.4658  0.0305  0.0911
 1604W        W 2468   4.357   4.085  15.892 -0.0203 -0.1714  0.2093
 1605W        W 2469   2.336   3.272  12.713  0.1746 -0.0143 -0.0510
 1606W        W 2470  28.412   2.080  12.817  0.0704  0.1341 -0.0113
 1607W        W 2471   1.681   2.540  13.900 -0.1616  0.0191  0.3467
 1608W        W 2472   0.197   0.130  14.553 -0.0013 -0.1280  0.2199
 1609W        W 2473   0.596  28.426  13.993 -0.0742 -0.2101 -0.1972
 1610W        W 2474  28.677  28.288  12.031  0.1133  0.2508  0.0388
 1611W        W 2475   2.511   2.427  12.167  0.0058 -0.2543 -0.0365
 1612W        W 2476   0.891   2.401  12.652  0.0146  0.2992 -0.2351
 1613W        W 2477   1.930   0.712   9.988 -0.1637 -0.0239 -0.1346
 1614W        W 2478   3.202   1.629  14.667  0.0285 -0.2082  0.1195
 1615W        W 2479  28.234  27.667  13.997  0.2298 -0.0147 -0.0658
 1616W        W 2480   6.698  29.071  12.918 -0.4649  0.2110  0.0777
 1617W        W 2481   4.572   0.828  11.363  0.0595 -0.1096 -0.1797
 1618W        W 2482   1.561  28.521  13.313 -0.0225  0.4034 -0.1041
 1619W        W 2483   2.997   0.693  14.290  0.2729 -0.2147  0.0087
 1620W        W 2484  27.905   1.526  11.858  0.2895 -0.1383 -0.3053
 1621W        W 2485   0.274   2.378  11.961  0.1858 -0.3898  0.2009
 1622W        W 2486  29.146   2.340  12.393 -0.1278 -0.1434  0.0710
 1623W        W 2487   3.331   1.747  12.284 -0.1154 -0.2641  0.0974
 1624W        W 2488  27.698   1.780  12.288  0.0639 -0.2843  0.1238
 1625W        W 2489  28.721   1.556  10.673 -0.2998 -0.0923 -0.5671
 1626W        W 2490   0.627   0.706  13.227 -0.1969 -0.2185  0.3681
 1627W        W 2491   0.667   2.648  11.886  0.0699 -0.0751 -0.3594
 1628W        W 2492   2.825   1.935  14.740  0.0072 -0.3429  0.3215
 1629W        W 2493   2.270   1.607  16.212 -0.2617 -0.0239 -0.2231
 1630W        W 2494   5.189   2.743  12.312 -0.1723 -0.3839 -0.2881
 1631W        W 2495   2.064   5.118  12.871  0.2240 -0.3358 -0.2036
 1632W        W 2496   3.001   1.523  10.887  0.1393 -0.1291  0.1071
 1633W        W 2497   4.504  28.619  13.907 -0.0609 -0.1639 -0.0887
 1634W        W 2498  27.516   2.330  13.032  0.4685  0.1116  0.4647
 1635W        W 2499   0.680   1.207  14.497  0.1198  0.1360  0.1486
 1636W        W 2500   2.665   1.122  12.930 -0.1787  0.2793 -0.0138
 1637W        W 2501   2.552   5.372  13.201 -0.0204  0.3706  0.3094
 1638W        W 2502   0.313   1.352  12.044 -0.0003  0.2174 -0.1089
 1639W        W 2503   5.694   2.796  10.341 -0.2666 -0.0666 -0.0070
 1640W        W 2504  28.967   3.501  13.146  0.1738 -0.1894 -0.2622
 1641W        W 2505   2.884   4.180  15.846  0.2644 -0.1374 -0.1926
 1642W        W 2506   3.603   1.349  13.991  0.1272 -0.0567  0.1417
 1643W        W 2507   1.458   2.978  10.674  0.4714 -0.0869 -0.3195
 1644W        W 2508   2.508  29.011  13.420  0.0898  0.3104 -0.0516
 1645W        W 2509  28.959   0.420  14.455 -0.3209  0.1118  0.1478
 1646W        W 2510  28.689   0.921  15.797  0.0740  0.0012  0.1429
 1647W        W 2511   0.207   0.701  14.158  0.0122 -0.1015 -0.1951
 1648W        W 2512   2.593   1.591  10.458 -0.0293  0.1236  0.2205
 1649W        W 2513   1.940   3.773  13.343 -0.0358  0.0170  0.0421
 1650W        W 2514   2.940   3.589  15.176  0.2087 -0.1612  0.1888
 1651W        W 2515   1.471   1.888  12.594  0.1372 -0.2100 -0.1095
 1652W        W 2516   0.689   1.472  15.926 -0.1904  0.1732  0.0256
 1653W        W 2517   2.448   2.044  11.889 -0.0863 -0.0663 -0.1656
 1654W        W 2518   3.205   3.803  18.388 -0.0708  0.0754 -0.1168
 1655W        W 2519   4.843   3.198  11.332  0.0933 -0.1470  0.0477
 1656W        W 2520  28.414   1.744  13.748  0.3545  0.1458  0.0151
 1657W        W 2521   1.890   0.877  11.272 -0.0425 -0.2523 -0.0020
 1658W        W 2522   1.841   4.764  13.199 -0.0269 -0.1011 -0.1044
 1659W        W 2523   4.628   0.208  10.732  0.2953 -0.1782  0.0018
 1660W        W 2524   2.790   1.626  13.149 -0.2318 -0.2706  0.3680
 1661W        W 2525   3.786   1.416  13.169  0.2130  0.0273  0.3936
 1662W        W 2526   0.424   0.356  14.974 -0.1554 -0.0455  0.3180
 1663W        W 2527   1.769   3.438  11.439 -0.2080  0.0693  0.1660
 1664W        W 2528   0.199   0.007  11.964  0.0090  0.1375 -0.2008
 1665W        W 2529   3.438   2.145  12.031 -0.0059 -0.2384 -0.1735
 1666W        W 2530   2.524   4.100  14.328  0.1360  0.0763 -0.0561
 1667W        W 2531   0.965   3.315  17.620 -0.0080 -0.2977 -0.0168
 1668W        W 2532   1.076   2.865  12.853  0.1825  0.0003  0.1483
 1669W        W 2533   2.029   2.498  11.925  0.1365  0.0851  0.0689
 1670W        W 2534   3.642   5.693   9.936  0.2449 -0.0568  0.0316
 1671W        W 2535   4.436   0.355  11.194  0.2392 -0.1481  0.1305
 1672W        W 2536   1.608   1.685  13.047 -0.0458 -0.3019 -0.1288
 1673W        W 2537   3.295   4.822  14.300  0.1714  0.0942  0.1971
 1674W        W 2538   4.219   2.069  12.657  0.1526 -0.0620  0.0764
 1675W        W 2539   1.678  26.946  12.170 -0.0985  0.4282 -0.0695
 1676W        W 2540   1.312   5.451  14.510  0.2740 -0.0760  0.0396
 1677W        W 2541   2.984   0.313  11.994 -0.2661 -0.1577  0.1727
 1678W        W 2542  28.983   0.789  16.749  0.0519  0.0001 -0.2435
 1679W        W 2543  28.168   3.197  11.727 -0.1444 -0.0525  0.0807
 1680W        W 2544   1.458   1.466  14.034 -0.0040 -0.3386 -0.0605
 1681W        W 2545   1.063   2.605  11.577  0.1567 -0.3118  0.1248
 1682W        W 2546   5.876   3.880  11.434  0.0119  0.1207 -0.2904
 1683W        W 2547   0.465   2.382  14.886 -0.1647 -0.1894 -0.1002
 1684W        W 2548   5.681   0.823  10.689  0.0674  0.2484 -0.0079
 1685W        W 2549   1.294   1.583   9.869 -0.0933 -0.0172  0.3858
 1686W        W 2550   2.432   2.060  13.507  0.2417  0.1459 -0.0957
 1687W        W 2551   4.169   1.706  13.442 -0.0106 -0.3069 -0.2368
 1688W        W 2552   4.136   2.076   9.923 -0.1095 -0.0853  0.2497
 1689W        W 2553   1.882   5.903  15.751 -0.2664  0.2730  0.1305
 1690W        W 2554   3.951   1.045  14.177 -0.1005 -0.1103 -0.0645
 1691W        W 2555  27.860   2.715  15.762 -0.3830  0.1789 -0.0113
 1692W        W 2556   1.004   1.226  14.017  0.0644  0.1153 -0.3557
 1693W        W 2557   2.695   1.043  11.391  0.0301 -0.0262 -0.2811
 1694W        W 2558   0.811   1.412  13.500  0.2524 -0.1760  0.0238
 1695W        W 2559   0.855   5.143  12.611 -0.2111 -0.2974 -0.1511
 1696W        W 2560   1.700   0.583  12.260 -0.0376 -0.0047  0.1028
 1697W        W 2561  28.618   1.942  12.288  0.1384  0.0740 -0.0853
 1698W        W 2562  26.984   6.355  15.252 -0.2319 -0.3595  0.1400
 1699W        W 2563   4.170   3.608   8.305 -0.2559  0.1717 -0.1153
 1700W        W 2564   2.238  28.275  14.478  0.1700  0.3448 -0.1532
 1701W        W 2565   2.939   2.835  13.448 -0.1326  0.3212  0.1167
 1702W        W 2566   0.971   2.397  14.671  0.0404  0.4290 -0.1729
 1703W        W 2567   5.936   0.343  10.937 -0.3316  0.1316  0.1459
 1704W        W 2568   1.553   3.550  13.119 -0.0189 -0.4479 -0.0230
 1705W        W 2569   2.247   1.281   8.198 -0.1588  0.3813 -0.1877
 1706W        W 2570   3.534   0.533  13.430  0.0131 -0.0084 -0.2544
 1707W        W 2571  28.476  28.835  14.115 -0.0047  0.4397 -0.0598
 1708W        W 2572   0.784   3.474  11.265 -0.0798 -0.0167  0.0164
 1709W        W 2573  25.580   3.589  12.185  0.1330 -0.0732  0.0406
 1710W        W 2574   4.465   1.787  13.877  0.0446 -0.2078 -0.0443
 1711W        W 2575   1.939   2.347  15.388 -0.1454  0.2232  0.0937
 1712W        W 2576   3.690   4.079  14.864  0.1247  0.1335 -0.0916
 1713W        W 2577   3.298  29.049  14.202  0.2220  0.3728  0.2055
 1714W        W 2578  27.187   2.574  11.997  0.0806  0.3070 -0.0222
 1715W        W 2579  27.680   2.964  11.416  0.2867  0.1535 -0.0207
 1716W        W 2580   0.517  28.644  16.388 -0.1446  0.2135  0.4119
 1717W        W 2581   2.865   3.643  14.493 -0.0401 -0.1545  0.4793
 1718W        W 2582   3.280   2.488  10.764  0.0085  0.0360  0.1201
 1719W        W 2583   3.437   2.801  12.886 -0.5365 -0.1611 -0.0303
 1720W        W 2584   2.529   4.554  12.470  0.2964 -0.0910 -0.0343
 1721W        W 2585   3.637   3.959  16.214 -0.2487 -0.3931 -0.3214
 1722W        W 2586   2.208  29.144  11.579  0.0454 -0.3361  0.1307
 1723W        W 2587   2.784   1.192  11.856  0.0875 -0.0286 -0.2241
 1724W        W 2588   2.381   3.348  12.220 -0.3474  0.0964  0.0715
 1725W        W 2589  27.357  27.789  11.329  0.2098  0.1747 -0.1220
 1726W        W 2590   4.060   1.877  12.193  0.0185 -0.2059 -0.1450
 1727W        W 2591   1.601   0.242  10.546 -0.0984  0.0962 -0.0425
 1728W        W 2592   2.645   4.457  13.875 -0.2192 -0.0736 -0.1259
 1729W        W 2593  26.582   2.684  17.015  0.2634  0.0130  0.1451
 1730W        W 2594   0.459   4.556  14.400  0.1823 -0.3011  0.2978
 1731W        W 2595   2.588   1.128  12.377 -0.0815 -0.0024  0.1380
 1732W        W 2596   2.302   2.454  12.824 -0.3475  0.2739  0.0855
 1733W        W 2597   3.629   3.377  16.162 -0.2870 -0.2552  0.0347
 1734W        W 2598  27.615   2.021  10.837 -0.0896 -0.0605 -0.2045
 1735W        W 2599  26.490   2.139  13.796  0.0769 -0.1176  0.0089
 1736W        W 2600   4.491   3.261   9.145 -0.1933 -0.2899 -0.0970
 1737W        W 2601  28.903   1.884  13.283  0.0498 -0.0883 -0.1477
 1738W        W 2602   3.756   2.057  12.533  0.0017 -0.0373 -0.1558
 1739W        W 2603   2.415   4.914  13.135  0.0060 -0.1494  0.1559
 1740W        W 2604   1.380   4.757  13.413  0.1373 -0.0110  0.0356
 1741W        W 2605   5.193   0.535  11.894  0.2008  0.0583  0.1850
 1742W        W 2606  27.229   1.068  15.080  0.0873 -0.0709  0.2446
 1743W        W 2607   1.419   2.648  10.338 -0.2300 -0.3018  0.0492
 1744W        W 2608   2.133   1.787  11.665  0.0073  0.2929  0.0496
 1745W        W 2609  28.459   0.538  14.437  0.0537 -0.0661  0.1420
 1746W        W 2610   1.565  28.880  12.907 -0.0293  0.2208  0.0024
 1747W        W 2611   4.891   1.660  14.519 -0.1681  0.1920 -0.3080
 1748W        W 2612   3.687   3.086  16.577 -0.0117  0.1151  0.0502
 1749W        W 2613   4.892   2.566  14.220 -0.1880 -0.1033  0.0567
 1750W        W 2614   4.637   1.294  13.631  0.0655  0.0106 -0.0427
 1751W        W 2615   1.278   2.753  14.308 -0.3422 -0.0208 -0.3508
 1752W        W 2616   3.776   3.186  12.893  0.2407 -0.0126  0.1051
 1753W        W 2617   0.993   2.618  12.237  0.1260 -0.1617 -0.1895
 1754W        W 2618   1.882   0.536  13.447 -0.0878  0.1070  0.0548
 1755W        W 2619   0.668   2.162  12.161 -0.0831 -0.3860 -0.0814
 1756W        W 2620   0.053   0.866  13.226 -0.0624 -0.1129 -0.0432
 1757W        W 2621  27.973  29.018  12.251 -0.1571 -0.0605 -0.4218
 1758W        W 2622   1.661   5.551  12.806 -0.1073  0.0779  0.1000
 1759W        W 2623   2.677   3.931  13.044 -0.0347 -0.1707  0.1169
 1760W        W 2624  28.565   2.142  14.590  0.1070 -0.1901  0.0836
 1761W        W 2625   3.221   4.029  13.815  0.1016  0.0605  0.4325
 1762W        W 2626   0.480   1.155  14.020 -0.1570  0.0249  0.0273
 1763W        W 2627   2.911   3.527  13.633  0.1939  0.0681  0.0104
 1764W        W 2628   0.322   1.675  13.940  0.1357 -0.0815 -0.1555
 1765W        W 2629   0.481   1.007  11.711 -0.1765  0.2624 -0.0164
 1766W        W 2630   5.057   0.896  10.334 -0.1365 -0.2932  0.0592
 1767W        W 2631   2.317   3.472  10.688  0.0631 -0.1570  0.1772
 1768W        W 2632   2.011   3.354   8.593  0.0759 -0.2289  0.1677
 1769W        W 2633  28.539   2.834   9.186  0.0793 -0.2902 -0.1097
 1770W        W 2634   3.135   0.250  10.352 -0.1912 -0.0157 -0.2300
 1771W        W 2635  28.385   3.761  13.011  0.0407 -0.0383 -0.1905
 1772W        W 2636   0.674  28.683  12.663 -0.1510  0.0946  0.0225
 1773W        W 2637   3.164   1.224  14.347 -0.0353  0.1705  0.0674
 1774W        W 2638   1.044   1.772  11.779 -0.1520 -0.2382  0.0659
 1775W        W 2639   1.697   2.923  11.623 -0.1007 -0.3142  0.0111
 1776W        W 2640   5.146   1.582  12.565 -0.1508 -0.1156  0.0203
 1777W        W 2641   0.654   2.700  10.748  0.2170 -0.3566 -0.1180
 1778W        W 2642   1.978  28.784  13.558 -0.0460 -0.2363 -0.0311
 1779W        W 2643   0.430   1.437  11.174 -0.1044  0.0799 -0.2704
 1780W        W 2644   3.154   3.997  14.881 -0.3528  0.2879  0.0851
 1781W        W 2645   0.759   2.226  11.675 -0.0966 -0.1819  0.1510
 1782W        W 2646   4.342   3.441  13.556 -0.0157  0.2057 -0.1170
 1783W        W 2647   3.422   2.612   9.585  0.1433 -0.3399  0.1257
 1784W        W 2648   4.074   0.806  13.302 -0.2050  0.1474 -0.0903
 1785W        W 2649   0.018   0.559  13.619 -0.1576 -0.1941  0.0337
 1786W        W 2650   3.296   2.266  12.484  0.2327  0.1808 -0.2277
 1787W        W 2651   1.583   5.092  12.755 -0.3081 -0.1888 -0.1253
 1788W        W 2652   3.260   0.595  12.979  0.1241  0.1593 -0.1548
 1789W        W 2653   2.313   4.618  13.560  0.4339  0.0113  0.1896
 1790W        W 2654   3.835   1.701  14.812  0.1586 -0.0112  0.0089
 1791W        W 2655   5.363   1.080  11.799  0.0386 -0.4203 -0.0701
 1792W        W 2656   3.021   2.127  14.017 -0.0297  0.1152 -0.0621
 1793W        W 2657  29.075  29.079  13.108  0.1691  0.1543  0.1973
 1794W        W 2658  26.911   2.143  13.025 -0.1877 -0.1282  0.0263
 1795W        W 2659   3.022   1.879  12.650  0.0005  0.0157 -0.0508
 1796W        W 2660  26.153   5.017  11.395  0.0720 -0.0067  0.0155
 1797W        W 2661  28.768   4.584  11.632  0.0615  0.0776 -0.1868
 1798W        W 2662   2.568   0.505  16.072  0.2333 -0.1128 -0.1157
 1799W        W 2663   2.521   3.608  15.564  0.0778  0.1298 -0.1145
 1800W        W 2664   3.040   3.385  11.847  0.1095  0.0519  0.3680
 1801W        W 2665   1.735   6.167  13.414 -0.0702 -0.0941 -0.1222
 1802W        W 2666   1.453   4.699  10.463 -0.0218  0.1862 -0.0497
 1803W        W 2667   0.473   2.400  13.734 -0.2165 -0.0656  0.1666
 1804W        W 2668   4.081   2.388  13.668  0.0323 -0.0558  0.0664
 1805W        W 2669   3.077   2.073  16.298  0.1402 -0.0694  0.3194
 1806W        W 2670   0.567   3.295  13.836  0.3548 -0.1057  0.1124
 1807W        W 2671   2.978   3.270  13.245 -0.1247 -0.0614 -0.2411
 1808W        W 2672   2.149   4.184  11.267 -0.1292 -0.1745  0.1058
 1809W        W 2673   0.121   2.981  12.616 -0.1485 -0.1376 -0.2994
 1810W        W 2674   2.724   1.223  13.445 -0.1332  0.2402 -0.1841
 1811W        W 2675   0.658   3.787  12.918 -0.3443 -0.0113  0.2593
 1812W        W 2676   2.179   1.945  15.117 -0.0459  0.0976 -0.0005
 1813W        W 2677   1.024   3.221  12.456  0.1631 -0.2625  0.0099
 1814W        W 2678   1.609   0.551  10.923  0.0088 -0.0092  0.4557
 1815W        W 2679  27.929   2.618  17.253  0.2129 -0.0824 -0.1240
 1816W        W 2680   0.264   2.779  20.309  0.1385 -0.1221  0.1673
 1817W        W 2681   3.224   2.362  18.180 -0.0579 -0.3614 -0.2739
 1818W        W 2682   3.000   3.371  18.599 -0.1907 -0.3428 -0.0065
 1819W        W 2683   1.559   7.230  13.167  0.1097 -0.2445  0.0991
 1820W        W 2684   0.974   2.296  15.526 -0.1165  0.0923  0.1153
 1821W        W 2685   0.512   0.467  16.694 -0.1551  0.1474  0.0231
 1822W        W 2686   3.980   1.917  13.934 -0.0748 -0.2430 -0.2833
 1823W        W 2687  27.592   2.649  20.651 -0.1605  0.2460 -0.2313
 1824W        W 2688  29.089   2.973  18.204 -0.0066 -0.0646 -0.4261
 1825W        W 2689   0.623   0.011  17.980  0.1092  0.2835 -0.0619
 1826W        W 2690   1.936  27.356  18.247  0.1430  0.4514  0.0734
 1827W        W 2691   1.498   2.457  14.676  0.3062 -0.0675 -0.0980
 1828W        W 2692   2.317   0.773  16.933 -0.1319 -0.2656  0.3016
 1829W        W 2693   1.260  27.977  16.166  0.0170  0.0706  0.1405
 1830W        W 2694  28.660  28.606  18.157 -0.0591 -0.0641 -0.0055
 1831W        W 2695   0.605   1.130  14.999  0.1397  0.1393  0.0556
 1832W        W 2696   1.279   1.004  16.828 -0.0774  0.0128  0.0796
 1833W        W 2697   0.757   3.536  14.732  0.1041  0.1439  0.3384
 1834W        W 2698   4.033  28.674  16.941  0.4048  0.0757 -0.1269
 1835W        W 2699   1.341   1.619  15.938  0.0583 -0.6200  0.0552
 1836W        W 2700   2.137  28.477  18.034 -0.2951 -0.0210 -0.1294
 1837W        W 2701   3.315   3.260  15.279 -0.1654 -0.0795  0.0224
 1838W        W 2702  27.640   1.540  19.138 -0.1502  0.1873 -0.1763
 1839W        W 2703   0.139   3.036  16.592  0.1444  0.0487  0.4344
 1840W        W 2704  27.542   1.601  18.127  0.2312  0.1184  0.0371
 1841W        W 2705  29.003   0.518  17.249 -0.1259  0.0730 -0.0269
 1842W        W 2706   3.586   2.806  14.282  0.3122  0.2871  0.2188
 1843W        W 2707   0.448   3.955  15.071 -0.0716  0.0851 -0.0635
 1844W        W 2708   1.862   2.142  17.929 -0.0815 -0.1627  0.3190
 1845W        W 2709   2.762   2.402  18.398 -0.0140  0.0344  0.0141
 1846W        W 2710  29.034   4.356  18.294  0.3275 -0.1160  0.0863
 1847W        W 2711  28.418   3.011  16.831 -0.1547 -0.2100  0.1774
 1848W        W 2712   2.231   1.458  20.047 -0.0649  0.1892 -0.1243
 1849W        W 2713  28.184   4.756  15.932 -0.2611  0.0513 -0.1390
 1850W        W 2714   1.200   4.171  19.738 -0.0041 -0.0178 -0.3720
 1851W        W 2715   1.418  28.069  15.051 -0.0874 -0.0547 -0.0100
 1852W        W 2716   0.946   3.718  15.117  0.0147  0.0330 -0.1654
 1853W        W 2717   4.813   2.651  16.890  0.1179 -0.4698 -0.0751
 1854W        W 2718   0.894   0.071  16.495 -0.0067  0.2743 -0.1223
 1855W        W 2719   2.942   1.654  14.208 -0.1985  0.0587 -0.0500
 1856W        W 2720   2.893   0.346  15.522 -0.0109 -0.1677 -0.2758
 1857W        W 2721   2.873   3.211  15.552  0.0395 -0.1684  0.0180
 1858W        W 2722   1.022   3.083  18.084  0.1319 -0.1072  0.0296
 1859W        W 2723   0.625   4.841  14.743 -0.0870 -0.0250  0.3316
 1860W        W 2724   2.253   5.077  15.397  0.2440 -0.0189  0.0562
 1861W        W 2725  28.922  28.702  17.483  0.0544  0.0157 -0.2181
 1862W        W 2726   3.821   0.336  15.469  0.0657  0.4731 -0.0172
 1863W        W 2727  28.903  27.638  16.316 -0.0655 -0.2660 -0.2684
 1864W        W 2728   1.752   0.107  18.137 -0.3737  0.3706 -0.0494
 1865W        W 2729   2.575   3.107  17.156 -0.0140 -0.0523  0.0601
 1866W        W 2730   0.307   1.176  16.043  0.2398  0.2383  0.0592
 1867W        W 2731   1.267   0.718  15.693  0.3473  0.0837  0.2120
 1868W        W 2732   3.117   1.098  16.300  0.2723  0.3952  0.2244
 1869W        W 2733   3.125  26.142  14.185  0.0796 -0.1019  0.0043
 1870W        W 2734  28.795   2.711  15.680 -0.0458  0.0698 -0.2509
 1871W        W 2735   0.028   0.336  16.808  0.1849  0.1597  0.2927
 1872W        W 2736   2.113   0.064  14.784 -0.1904 -0.0884 -0.2246
 1873W        W 2737   2.306   2.528  16.119 -0.2538 -0.2651 -0.1895
 1874W        W 2738   3.844   3.359  13.696  0.1844  0.3260  0.3558
 1875W        W 2739   1.932   0.144  15.869 -0.3660 -0.0785  0.0774
 1876W        W 2740  27.702   3.339  16.972  0.0897  0.2058  0.0299
 1877W        W 2741  28.541   0.803  18.818 -0.0996  0.0207 -0.2341
 1878W        W 2742   0.399   1.348  18.167  0.0484  0.3523 -0.2864
 1879W        W 2743   1.048  27.882  16.649 -0.1827 -0.2707  0.2331
 1880W        W 2744   3.021   0.200  14.502 -0.0443 -0.2552 -0.0375
 1881W        W 2745  28.514   3.286  12.950 -0.0754  0.3767 -0.0044
 1882W        W 2746   1.016   0.528  16.745  0.3988 -0.1033  0.4491
 1883W        W 2747   3.437   3.741  12.663  0.1939  0.2246 -0.1176
 1884W        W 2748   0.326   1.626  16.987  0.1667  0.0370  0.1336
 1885W        W 2749   2.799   4.146  19.722 -0.0249  0.1218 -0.1680
 1886W        W 2750   2.043  28.349  15.803  0.3393 -0.2968 -0.2584
 1887W        W 2751   0.989   3.247  16.004 -0.4078  0.0102  0.0411
 1888W        W 2752   2.594   2.082  16.202  0.3418  0.0002  0.1712
 1889W        W 2753   3.868   4.168  15.825 -0.3512  0.0593 -0.2266
 1890W        W 2754   1.638   3.196  19.834 -0.2032 -0.2776  0.2000
 1891W        W 2755  26.630   0.235  13.724  0.1161  0.0589  0.1300
 1892W        W 2756   0.540   3.050  16.094 -0.0714  0.1754 -0.3011
 1893W        W 2757   0.306   3.718  15.852  0.1548 -0.1689 -0.0039
 1894W        W 2758   2.770   1.276  15.634  0.1536 -0.0364 -0.1766
 1895W        W 2759  28.190  28.103  17.672  0.4551  0.0261 -0.1098
 1896W        W 2760   1.225   1.985  17.787  0.0652  0.2672 -0.0610
 1897W        W 2761  28.506  27.953  16.538  0.0204  0.0360 -0.0386
 1898W        W 2762   1.836   0.598  14.981 -0.3616 -0.0416  0.2809
 1899W        W 2763   0.163   1.264  17.474 -0.2157 -0.0598 -0.0560
 1900W        W 2764   0.915   0.726  14.222  0.1947 -0.0893 -0.3660
 1901W        W 2765   2.391   2.857  18.179  0.1996  0.2608  0.2543
 1902W        W 2766   3.808   2.274  18.410  0.0456  0.2356 -0.1077
 1903W        W 2767   3.431   2.815  17.883  0.2089 -0.3899  0.3530
 1904W        W 2768   5.310   3.315  18.040  0.0675  0.0797  0.1416
 1905W        W 2769   2.248   0.286  14.246  0.0426  0.0996  0.2930
 1906W        W 2770   2.080   4.438  15.585  0.4528 -0.0798 -0.2120
 1907W        W 2771   0.073   4.872  15.278  0.1551  0.1182 -0.1804
 1908W        W 2772   0.911   2.339  16.715  0.0964  0.0573 -0.1375
 1909W        W 2773   3.048   1.999  18.516  0.2277 -0.1352  0.3417
 1910W        W 2774   1.401   2.240  16.853 -0.1692 -0.0154  0.3575
 1911W        W 2775   1.384   0.292  17.806  0.1539 -0.2140  0.0080
 1912W        W 2776  28.730   3.534  17.628  0.0678  0.1520 -0.0669
 1913W        W 2777   4.065  28.115  16.088 -0.0692 -0.1046  0.2540
 1914W        W 2778   3.532   0.040  17.556  0.0474 -0.0023 -0.2603
 1915W        W 2779   3.202   2.440  16.761 -0.0097  0.1899  0.0156
 1916W        W 2780  28.341   2.685  17.700  0.1660 -0.0792 -0.0223
 1917W        W 2781   2.800   1.638  16.228 -0.0563 -0.4366  0.1837
 1918W        W 2782   1.086   1.529  15.090 -0.3743 -0.1962 -0.0045
 1919W        W 2783   2.098  27.031  17.732  0.1604  0.2272  0.0715
 1920W        W 2784   2.816   2.039  18.066  0.1963  0.0676 -0.0499
 1921W        W 2785   1.903   3.247  13.336  0.2916  0.2100 -0.0279
 1922W        W 2786   1.745   1.848  16.967  0.1599  0.3276  0.2364
 1923W        W 2787   0.964   0.292  15.845  0.3868  0.1073 -0.1299
 1924W        W 2788   0.166   2.283  18.870  0.0403 -0.0335 -0.1017
 1925W        W 2789  28.955   4.384  14.412 -0.2113 -0.0198 -0.0272
 1926W        W 2790  28.688   4.209  15.365  0.1679 -0.2055  0.3740
 1927W        W 2791   1.677   0.550  16.022  0.2330  0.0288 -0.0852
 1928W        W 2792   0.988   4.896  15.073  0.1861 -0.0351 -0.1529
 1929W        W 2793   6.184   4.030  16.243 -0.0436 -0.0291 -0.2405
 1930W        W 2794   1.441   3.133  16.058 -0.1037 -0.1397  0.0687
 1931W        W 2795   5.258  28.250  16.336 -0.0247 -0.0256 -0.0191
 1932W        W 2796   1.068   1.063  17.329  0.1587  0.1037  0.0035
 1933W        W 2797   2.186  28.910  14.406  0.2373  0.3351 -0.0443
 1934W        W 2798   0.229   4.178  16.777 -0.1376  0.0509  0.0894
 1935W        W 2799   2.202   1.897  18.183  0.2871 -0.0314 -0.2425
 1936W        W 2800   4.084   3.952  17.055 -0.1491 -0.1887 -0.0459
 1937W        W 2801   0.589   5.793  16.093  0.1128  0.1583 -0.2910
 1938W        W 2802   1.821   1.448  15.966 -0.1190  0.1257 -0.0103
 1939W        W 2803   0.340   0.340  17.149  0.0351  0.0278  0.0392
 1940W        W 2804   2.069   0.576  16.380  0.2898  0.2119 -0.0454
 1941W        W 2805   0.262  28.124  20.191  0.3158  0.2256  0.0719
 1942W        W 2806   1.992  28.572  17.564  0.0873 -0.2489 -0.0405
 1943W        W 2807   1.292   3.960  18.755  0.0481  0.0357  0.1157
 1944W        W 2808   2.253   2.746  15.669  0.2209 -0.1731 -0.0794
 1945W        W 2809   2.698   3.693  18.353  0.2397  0.0729  0.0042
 1946W        W 2810   2.132   1.519  16.876 -0.0609  0.0172  0.2285
 1947W        W 2811   0.003   3.259  17.442 -0.1661  0.0312  0.2887
 1948W        W 2812   1.772  28.362  15.348 -0.0519 -0.0171 -0.2315
 1949W        W 2813   3.305   3.301  19.653  0.0542  0.0839  0.2839
 1950W        W 2814  29.058   2.518  18.031 -0.0982  0.0064  0.0150
 1951W        W 2815   3.361  27.417  17.174  0.1705  0.1071  0.1349
 1952W        W 2816  27.506   3.682  17.420 -0.0360  0.0282 -0.3206
 1953W        W 2817   3.882   1.526  16.289 -0.2140  0.0741 -0.2735
 1954W        W 2818   2.691   2.387  15.761  0.0839  0.1452  0.0035
 1955W        W 2819   1.568   1.270  18.139  0.1946  0.1096 -0.0173
 1956W        W 2820   1.288   0.533  15.187 -0.0056 -0.0660  0.0576
 1957W        W 2821   1.576   5.237  13.220  0.1831  0.0174 -0.1356
 1958W        W 2822   3.051   4.007  15.389  0.4007 -0.0687 -0.3370
 1959W        W 2823   2.170   0.525  17.795 -0.0479  0.2183  0.0114
 1960W        W 2824   0.588   1.643  14.918 -0.1715  0.2259 -0.2605
 1961W        W 2825   5.077  29.096  17.646  0.0634  0.0035  0.0096
 1962W        W 2826   1.708   4.639  16.049  0.4705  0.0206 -0.1069
 1963W        W 2827  28.896   4.969  18.364  0.1469 -0.0122  0.1093
 1964W        W 2828  28.354   2.022  17.026 -0.0719  0.2958 -0.1061
 1965W        W 2829   1.876   2.366  16.432 -0.2348  0.0015  0.1110
 1966W        W 2830   1.758  27.084  14.864 -0.0454 -0.2188 -0.2405
 1967W        W 2831   0.321   2.550  19.848 -0.1266 -0.0057 -0.0058
 1968W        W 2832   0.092   1.537  14.858  0.0672 -0.1061  0.3506
 1969W        W 2833  28.579   0.371  18.075  0.0085 -0.0449 -0.1810
 1970W        W 2834   1.790  27.896  15.922  0.0917 -0.1086  0.2531
 1971W        W 2835  28.325  28.824  17.436  0.0795 -0.5297 -0.1102
 1972W        W 2836   1.480   1.083  15.940 -0.0990 -0.2971 -0.0614
 1973W        W 2837   0.549   0.653  15.805 -0.1055 -0.0621  0.1030
 1974W        W 2838   0.654   1.177  17.666  0.1994  0.1001 -0.1111
 1975W        W 2839   4.032   2.687  18.735 -0.1824 -0.5274 -0.1934
 1976W        W 2840   1.203   4.223  17.619 -0.0831  0.1111  0.0175
 1977W        W 2841   1.019   3.676  16.840  0.0406  0.0433 -0.1311
 1978W        W 2842   2.667   1.693  19.822 -0.1870 -0.0282 -0.0584
 1979W        W 2843   1.309  28.121  18.427  0.1167 -0.3024 -0.1011
 1980W        W 2844   1.172  28.499  15.812 -0.2000 -0.1621 -0.1101
 1981W        W 2845   1.006  27.093  17.415  0.1833 -0.0611 -0.0466
 1982W        W 2846  27.962   3.130  15.530 -0.0172 -0.2605 -0.1034
 1983W        W 2847  28.024   2.080  19.153 -0.0521  0.3556  0.1039
 1984W        W 2848  28.315   0.299  15.420 -0.1813  0.1373 -0.1198
 1985W        W 2849   3.080   1.979  15.813 -0.1495  0.0650 -0.0608
 1986W        W 2850   4.368   2.470  18.301 -0.0293  0.4274 -0.1481
 1987W        W 2851   0.504   2.413  16.416  0.0964 -0.2868 -0.0107
 1988W        W 2852   2.068   1.189  17.289 -0.3818  0.2484 -0.1197
 1989W        W 2853   3.082  27.248  17.705  0.0043 -0.0948  0.0514
 1990W        W 2854   1.448   0.599  17.039  0.0614 -0.2703 -0.1533
 1991W        W 2855  28.549   3.251  16.003 -0.1708 -0.0388  0.2915
 1992W        W 2856   0.346   1.686  17.690 -0.2337 -0.1491  0.0857
 1993W        W 2857  28.574   7.413  15.723  0.0443 -0.3615 -0.4128
 1994W        W 2858   4.679  25.373  17.523  0.2830 -0.1253 -0.2659
 1995W        W 2859  28.734   2.660  11.301 -0.0818  0.3736  0.1770
 1996W        W 2860   1.283   4.119  15.191 -0.3188  0.1877 -0.3109
 1997W        W 2861   1.923   3.124  12.409 -0.0681 -0.0681  0.2590
 1998W        W 2862   0.810   1.027  16.585 -0.3665  0.1411  0.0811
 1999W        W 2863   1.946  27.869  14.513  0.2991  0.3650  0.1640
 2000W        W 2864  27.850   5.546  17.458  0.3753  0.2871  0.0753
 2001W        W 2865   3.627   0.464  14.449  0.1559 -0.0843  0.0821
 2002W        W 2866  28.736   2.272  15.383 -0.1153  0.4018  0.2304
 2003W        W 2867   1.732   4.641  19.063  0.1106 -0.2104  0.0160
 2004W        W 2868   2.280   3.131  14.497 -0.1377  0.1122 -0.3283
 2005W        W 2869   1.524   2.623  12.961 -0.2035 -0.2145  0.0602
 2006W        W 2870  25.164   2.888  17.221 -0.1639  0.2639 -0.0938
 2007W        W 2871   2.127   0.969  19.951 -0.1251 -0.0693 -0.1961
 2008W        W 2872   2.252   0.665  18.259 -0.1170 -0.0033 -0.0202
 2009W        W 2873   2.638  29.138  17.629  0.2038 -0.0050 -0.0726
 2010W        W 2874   3.165   0.612  14.769 -0.2560 -0.0694 -0.1293
 2011W        W 2875   2.476   0.170  15.729 -0.0850 -0.0298  0.2465
 2012W        W 2876   0.684  27.707  19.572  0.2447 -0.0947  0.0224
 2013W        W 2877   0.207   1.669  16.192 -0.2515 -0.0686 -0.4330
 2014W        W 2878   1.606   0.636  16.554 -0.0797  0.2246 -0.2490
 2015W        W 2879   2.850  27.694  15.603 -0.1977  0.1714  0.0773
 2016W        W 2880   2.602  29.024  17.053  0.1455  0.3901  0.2753
 2017W        W 2881   3.396   1.812  13.797  0.2103 -0.0970  0.1396
 2018W        W 2882   0.884  28.851  16.786 -0.2513  0.1055  0.0096
 2019W        W 2883   3.008   0.706  15.929 -0.1778  0.0042  0.1906
 2020W        W 2884  27.262  26.235  15.957  0.2292 -0.1429  0.1986
 2021W        W 2885   0.283   3.090  17.068 -0.2777 -0.0181 -0.1599
 2022W        W 2886   3.036   1.857  16.745  0.0486  0.0472 -0.0561
 2023W        W 2887   2.265   2.482  14.232  0.2660 -0.0498 -0.2448
 2024W        W 2888   1.055   3.556  14.238 -0.0490  0.0981 -0.1631
 2025W        W 2889  28.664   3.610  16.661  0.0640  0.1971 -0.4068
 2026W        W 2890  28.145   1.867  15.017 -0.3249 -0.2543  0.2385
 2027W        W 2891   1.756   2.800  15.609  0.0958  0.0587 -0.0115
 2028W        W 2892   3.076  28.850  17.307  0.0398 -0.0456  0.2069
 2029W        W 2893   1.925   1.099  15.523  0.0446  0.1131 -0.0463
 2030W        W 2894   2.912   0.978  19.578 -0.0190  0.0102  0.1025
 2031W        W 2895   2.135  28.904  15.667  0.1709  0.0523  0.0973
 2032W        W 2896   2.891   4.395  15.122  0.2192 -0.1014 -0.1493
 2033W        W 2897   4.598   1.321  19.667 -0.0628  0.0765  0.1188
 2034W        W 2898   0.176   1.801  18.276  0.0047 -0.0494  0.0518
 2035W        W 2899   2.894   2.665  17.947  0.2571 -0.0779 -0.0652
 2036W        W 2900   3.456   4.389  17.847  0.3119  0.0116  0.1197
 2037W        W 2901   2.311   3.769  20.420 -0.2076 -0.2588  0.0638
 2038W        W 2902   0.134   1.210  16.539  0.0514  0.2405  0.0418
 2039W        W 2903   4.431   2.078  15.395  0.0340 -0.4347  0.2530
 2040W        W 2904   1.809   1.117  17.710 -0.1504 -0.0859 -0.2781
 2041W        W 2905   1.293   1.688  17.285 -0.1564  0.0162  0.1261
 2042W        W 2906   3.710   1.993  17.509 -0.2477  0.0510 -0.1089
 2043W        W 2907   3.361   3.542  14.815 -0.0043 -0.1091  0.0021
 2044W        W 2908   0.511   0.753  17.945 -0.0049  0.0214  0.0928
 2045W        W 2909   1.036  27.513  19.280 -0.2406  0.0274  0.1566
 2046W        W 2910   0.793  28.731  18.222 -0.0236  0.1446 -0.1770
 2047W        W 2911   0.115   2.094  13.726  0.1280 -0.1248  0.1924
 2048W        W 2912   1.720   0.618  15.464  0.1199 -0.2433 -0.0751
 2049W        W 2913   1.122   1.314  16.307  0.0351 -0.1156 -0.0478
 2050W        W 2914   0.672   5.518  18.682  0.1380  0.0831 -0.2132
 2051W        W 2915   2.014   1.723  17.467  0.2159  0.0047 -0.1364
 2052W        W 2916   4.913  27.956  20.198  0.0949 -0.1489 -0.0610
 2053W        W 2917  28.423   5.110  18.525  0.1972 -0.0274  0.0431
 2054W        W 2918   1.210   3.735  15.969  0.0113 -0.2762  0.0393
 2055W        W 2919   3.491   3.686  15.729  0.1782 -0.0884  0.1084
 2056W        W 2920   0.594   0.983  21.309  0.0155  0.4929  0.2326
 2057W        W 2921  28.818   2.619  16.753 -0.3138 -0.4525 -0.0194
 2058W        W 2922   1.465  28.009  14.575  0.0395 -0.4054 -0.0049
 2059W        W 2923   2.650   2.145  16.782  0.1719  0.0578  0.0218
 2060W        W 2924   1.238   1.980  14.792 -0.0703 -0.0679 -0.0770
 2061W        W 2925   1.432   3.730  17.477  0.2367  0.1438 -0.1696
 2062W        W 2926  28.287   3.158  20.264 -0.1783  0.0910  0.1130
 2063W        W 2927   1.317   2.665  15.964 -0.2026 -0.1210 -0.0765
 2064W        W 2928   1.489   1.400  14.785 -0.4566 -0.1959 -0.0026
 2065W        W 2929  28.286   2.822  15.987  0.0640 -0.0646  0.2978
 2066W        W 2930  28.097   0.106  17.267 -0.1853 -0.0720  0.2097
 2067W        W 2931   2.857   5.248  17.952 -0.1592 -0.2141  0.0652
 2068W        W 2932   2.309   0.981  18.667 -0.1095 -0.0801  0.0350
 2069W        W 2933   1.817  29.058  16.828 -0.0575 -0.0262  0.1437
 2070W        W 2934   2.175   4.835  19.229  0.1048 -0.1302 -0.1384
 2071W        W 2935   2.648   3.707  17.092 -0.1113  0.2056  0.2337
 2072W        W 2936  28.535  27.118  15.368  0.2284  0.0669 -0.0865
 2073W        W 2937   0.778   3.281  17.058 -0.0896 -0.3121  0.0212
 2074W        W 2938   2.986   3.117  14.348  0.0398 -0.2511 -0.1207
 2075W        W 2939   1.048   2.923  16.349 -0.2250 -0.0592 -0.1934
 2076W        W 2940   1.470   2.090  18.674  0.0041 -0.0789  0.1222
 2077W        W 2941   2.156   2.796  17.121 -0.0787 -0.0193 -0.0190
 2078W        W 2942   0.720   2.576  17.234  0.1126  0.1079 -0.2800
 2079W        W 2943   2.467   3.616  14.090 -0.1158 -0.1872 -0.4262
 2080W        W 2944  27.270   4.012  19.688  0.0826  0.2390 -0.2349
 2081W        W 2945   3.426   4.260  15.667  0.1224 -0.2570 -0.0034
 2082W        W 2946   1.961   0.985  16.074 -0.1341  0.2818  0.0340
 2083W        W 2947   0.646   1.612  19.018  0.0552  0.0270  0.0671
 2084W        W 2948   1.839   2.443  15.943  0.0889  0.0522 -0.0721
 2085W        W 2949   0.611   2.885  16.714 -0.0671  0.0957  0.2709
 2086W        W 2950   2.353   3.722  17.928 -0.1777  0.2602 -0.0782
 2087W        W 2951   0.204   0.834  14.730 -0.2223 -0.1182 -0.0676
 2088W        W 2952   2.490   1.445  15.164 -0.0379  0.0515 -0.2410
 2089W        W 2953   0.847   3.478  19.065 -0.0129  0.0539 -0.0119
 2090W        W 2954   2.012  28.867  19.301  0.0205 -0.0047 -0.1486
 2091W        W 2955  28.770  29.109  16.747 -0.1598 -0.2067 -0.2427
 2092W        W 2956   1.311   2.468  17.311  0.2519  0.0170  0.2464
 2093W        W 2957   1.090   3.252  15.106  0.0212 -0.0798  0.0213
 2094W        W 2958   0.868   1.904  15.822 -0.0756 -0.0293  0.1931
 2095W        W 2959   0.256   0.056  17.696 -0.0263  0.2750 -0.3132
 2096W        W 2960   2.337   1.393  14.214  0.1251 -0.1244  0.0488
 2097W        W 2961   0.749   1.727  17.983  0.1060 -0.1748 -0.1352
 2098W        W 2962  28.422   4.178  20.045 -0.0487  0.1061 -0.0039
 2099W        W 2963   2.285   1.759  14.613  0.1048 -0.0037  0.0176
 2100W        W 2964   2.292  28.876  16.560 -0.1093  0.1438  0.0651
 2101W        W 2965   1.586   1.410  16.856 -0.0215 -0.0984 -0.1167
 2102W        W 2966   1.627   3.215  17.547 -0.1841  0.1006 -0.3823
 2103W        W 2967   3.561  28.223  12.728 -0.3224  0.3406  0.0707
 2104W        W 2968   4.526  29.146  16.232 -0.0200  0.0276 -0.0463
 2105W        W 2969   3.357   3.839  14.404 -0.1372  0.0628  0.2341
 2106W        W 2970   1.619   0.926  13.098  0.0874 -0.1981  0.1738
 2107W        W 2971   5.636   2.702  17.225  0.0338  0.1697  0.2326
 2108W        W 2972   0.780   2.713  15.771 -0.0086 -0.3171  0.0154
 2109W        W 2973  26.959   0.325  16.263 -0.2959  0.2057  0.1867
 2110W        W 2974   4.458   2.148  13.451 -0.1532  0.1359  0.0587
 2111W        W 2975   1.460   2.774  18.965  0.3679 -0.0782 -0.0883
 2112W        W 2976   2.153   3.104  16.642 -0.0512  0.1229  0.0521
 2113W        W 2977   0.490  28.966  17.276 -0.1418 -0.0205  0.0676
 2114W        W 2978  28.732   1.250  16.743  0.1723 -0.0375 -0.0386
 2115W        W 2979  28.313   3.106  15.113 -0.0150 -0.2792  0.0064
 2116W        W 2980   1.516  27.387  19.065 -0.0039  0.0278  0.0670
 2117W        W 2981   1.749   4.247  20.161 -0.0942 -0.0399  0.0799
 2118W        W 2982   5.440   3.382  16.673  0.0175 -0.0833  0.2028
 2119W        W 2983   2.331   1.544  13.384 -0.2372  0.2698  0.5659
 2120W        W 2984   2.601   2.917  18.695  0.1048  0.2894  0.2462
 2121W        W 2985   4.362   2.810  17.132 -0.1110  0.2021 -0.1867
 2122W        W 2986   2.122   0.027  17.813 -0.1490 -0.2292  0.1915
 2123W        W 2987   1.401  28.251  16.693  0.2225  0.0722  0.0349
 2124W        W 2988   1.247   2.781  13.795  0.1068 -0.2061  0.2078
 2125W        W 2989  28.941  28.303  17.225  0.0222 -0.2953  0.2464
 2126W        W 2990  27.726   2.154  17.227  0.0681  0.2092 -0.1635
 2127W        W 2991   2.996   1.294  17.553  0.0650 -0.2591  0.0364
 2128W        W 2992   1.277   1.780  16.656 -0.1663 -0.4725 -0.0673
 2129W        W 2993   0.787   2.091  19.073  0.0028  0.0594 -0.0662
 2130W        W 2994   0.365   3.383  19.359  0.0044  0.0089  0.1772
 2131W        W 2995   2.923   1.759  13.673 -0.0547  0.1489 -0.0541
 2132W        W 2996   1.633   3.172  15.249  0.1729 -0.1423  0.2509
 2133W        W 2997   3.064  28.534  21.987 -0.2001  0.3785  0.1854
 2134W        W 2998   0.540   3.064  19.017 -0.2374  0.2573 -0.2839
 2135W        W 2999   0.841   0.141  17.071 -0.2756  0.0496 -0.0040
 2136W        W 3000   2.316   2.592  16.679 -0.0689  0.0441  0.0518
 2137W        W 3001   1.289   1.654  18.270  0.0086 -0.2509 -0.1031
 2138W        W 3002   2.180   1.995  16.598  0.1827  0.2454 -0.3645
 2139W        W 3003   1.418   0.799  13.565 -0.0307 -0.2730  0.0407
 2140W        W 3004   0.920   2.363  17.639 -0.1039 -0.2524 -0.0506
 2141W        W 3005  29.029  28.760  18.434 -0.1078  0.2234  0.1535
 2142W        W 3006  28.843   4.781  12.168 -0.0356  0.0017 -0.0443
 2143W        W 3007   0.933  27.580  16.106 -0.1117 -0.0506 -0.0578
 2144W        W 3008  28.750   0.803  14.735  0.3452  0.2283 -0.1346
 2145W        W 3009   4.146   0.897  16.341  0.0245 -0.0744  0.1405
 2146W        W 3010   5.758  27.216  14.359 -0.1366 -0.0384 -0.0069
 2147W        W 3011   3.079   1.435  19.489  0.1598 -0.1401 -0.2207
 2148W        W 3012   2.332   5.238  18.160 -0.1393  0.1649  0.1987
 2149W        W 3013   2.368   2.390  18.022 -0.0043  0.4214 -0.1085
 2150W        W 3014   2.199   4.084  19.992 -0.2526  0.0655  0.2674
 2151W        W 3015  28.496   6.081  16.062 -0.0148 -0.1985 -0.0410
 2152W        W 3016   1.847   4.122  16.021 -0.1335  0.2796 -0.0625
 2153W        W 3017   1.573   1.922  16.320  0.1150  0.0517  0.0020
 2154W        W 3018   1.017  28.447  16.430  0.0698  0.2459  0.1557
 2155W        W 3019  28.559   3.494  17.131  0.1690  0.0509  0.0121
 2156W        W 3020   1.979   1.029  18.244  0.1848 -0.1364 -0.0552
 2157W        W 3021   0.521  29.143  15.758  0.2725  0.0298 -0.1123
 2158W        W 3022   2.409   3.636  13.603 -0.2745  0.3522  0.1309
 2159W        W 3023   1.095   3.163  14.592 -0.1071 -0.0836 -0.1316
 2160W        W 3024  28.400   2.570  18.667 -0.1548  0.1697  0.1579
 2161W        W 3025   1.617   2.037  13.855 -0.2640  0.0119  0.0354
 2162W        W 3026  29.113  29.133  15.864  0.0566 -0.2218 -0.2749
 2163W        W 3027   2.453   4.875  13.981 -0.0764 -0.0321  0.2282
 2164W        W 3028  27.128  27.652  16.043  0.0778  0.3165  0.0294
 2165W        W 3029   1.414  28.130  15.638 -0.1612 -0.1106  0.0189
 2166W        W 3030   2.413   2.387  15.137  0.0596  0.0884 -0.2345
 2167W        W 3031   1.262   3.816  14.738  0.1677 -0.1121  0.1503
 2168W        W 3032   0.402   5.165  13.678 -0.4511 -0.3877  0.0258
 2169W        W 3033   0.934  28.953  16.053 -0.0827  0.0450 -0.2279
 2170W        W 3034   3.396  28.243  16.580  0.1779 -0.2424  0.0033
 2171W        W 3035  28.123   4.362  15.677  0.0008 -0.0232  0.0539
 2172W        W 3036   1.459   0.745  17.560  0.3701 -0.0932  0.1798
 2173W        W 3037   0.482   2.616  18.001  0.1022  0.1057 -0.3150
 2174W        W 3038  28.796   1.667  16.232  0.0740 -0.1186  0.0573
 2175W        W 3039   1.193   5.468  12.919 -0.0316  0.0749 -0.1097
 2176W        W 3040   1.477   0.875  18.563 -0.0524 -0.2796  0.1658
 2177W        W 3041   1.684   1.969  15.205  0.3759  0.0790  0.0033
 2178W        W 3042   2.283  27.446  15.784 -0.0502 -0.0824  0.1583
 2179W        W 3043  28.791   1.167  16.247 -0.0751 -0.1876  0.0263
 2180W        W 3044   0.702   4.206  17.999  0.3003 -0.1260 -0.1581
 2181W        W 3045   3.743   1.579  15.811 -0.4092 -0.6024 -0.1204
 2182W        W 3046   1.842   1.562  16.445  0.2645 -0.0544 -0.0795
 2183W        W 3047   1.218   0.769  16.301  0.0311 -0.0226  0.2057
 2184W        W 3048   3.592   1.311  14.500  0.0189  0.1648  0.0416
 2185W        W 3049  27.047   2.343  15.469 -0.0888  0.4374  0.3425
 2186W        W 3050   5.226   0.614  14.121 -0.3933  0.2998  0.0030
 2187W        W 3051   1.299   0.798  18.027  0.1678 -0.1611 -0.1409
 2188W        W 3052   1.759   2.463  18.419  0.1524  0.1646 -0.0591
 2189W        W 3053   4.489   3.687  16.214  0.2512 -0.1918  0.3273
 2190W        W 3054   1.598  28.977  17.639 -0.0350  0.0778  0.1437
 2191W        W 3055  28.671   2.764  15.224  0.1547  0.2735 -0.0937
 2192W        W 3056   3.190   2.445  19.044  0.0220 -0.0252  0.1207
 2193W        W 3057   2.841   1.101  15.139 -0.0901  0.2728  0.1295
 2194W        W 3058   1.597   0.218  14.772  0.1021  0.2841 -0.0193
 2195W        W 3059   2.895   2.804  16.875 -0.0261  0.0486  0.0256
 2196W        W 3060  29.090   2.067  16.186 -0.1064  0.1544 -0.0810
 2197W        W 3061   1.929   3.481  20.425 -0.2914 -0.2731  0.0561
 2198W        W 3062   3.404   1.969  19.151 -0.2019  0.0593 -0.1404
 2199W        W 3063   2.956   1.903  19.493  0.0079 -0.0217  0.0374
 2200W        W 3064   1.747   1.788  18.292  0.3810  0.2206 -0.3021
 2201W        W 3065   0.050   0.873  15.670 -0.0389  0.0709  0.0017
 2202W        W 3066   4.117   0.374  19.635 -0.0284 -0.1429  0.2735
 2203W        W 3067   0.628   3.117  14.969 -0.0860 -0.2999 -0.1091
 2204W        W 3068   2.294   0.984  17.812 -0.0684 -0.2359 -0.0090
 2205W        W 3069   3.956   3.798  19.124  0.1650  0.2248  0.2509
 2206W        W 3070   0.933   2.583  18.956  0.4066 -0.1222  0.0452
 2207W        W 3071   0.329  28.773  15.437  0.1156  0.4212 -0.2449
 2208W        W 3072  29.145   5.163  16.958 -0.0250 -0.0670 -0.1402
 2209W        W 3073   1.916   1.442  15.078  0.0950  0.3318 -0.4489
 2210W        W 3074   0.335   0.366  19.892 -0.1423  0.0659 -0.2436
 2211W        W 3075   3.284   1.177  14.904 -0.0481 -0.3324  0.0078
 2212W        W 3076  28.892   3.226  16.886  0.0263  0.0151 -0.2294
 2213W        W 3077   1.845   3.772  14.708  0.0868 -0.2740  0.0499
 2214W        W 3078   4.017   3.715  16.000  0.1887  0.1970  0.1203
 2215W        W 3079   0.538   3.896  22.229  0.2193 -0.3802  0.4908
 2216W        W 3080   1.975   1.136  22.047  0.1632 -0.0496  0.3010
 2217W        W 3081   1.733   4.718  20.493 -0.2068 -0.0063  0.2480
 2218W        W 3082   5.025   3.815  20.139 -0.6781 -0.0296 -0.2586
 2219W        W 3083   1.758   3.868  18.620  0.0897  0.1478  0.1177
 2220W        W 3084   1.888   3.467  19.498 -0.0991 -0.1212  0.0649
 2221W        W 3085   2.017  26.838  18.469  0.0566  0.0341  0.1118
 2222W        W 3086   0.202  29.082  19.701  0.1063  0.2001 -0.0264
 2223W        W 3087   1.184   2.859  21.412 -0.1890 -0.0573 -0.4030
 2224W        W 3088  26.995   3.281  20.142  0.1015 -0.0238  0.1514
 2225W        W 3089   0.364  27.968  21.994  0.2301 -0.1552 -0.4955
 2226W        W 3090   2.497  28.914  18.125 -0.3783  0.3762  0.0589
 2227W        W 3091   0.307  28.993  18.356 -0.0524  0.1117  0.1572
 2228W        W 3092   0.525   0.389  21.426  0.1302 -0.1206  0.0373
 2229W        W 3093   1.434   0.477  20.398 -0.1837 -0.1025  0.0122
 2230W        W 3094   0.640   1.533  21.820 -0.1296 -0.0310  0.1893
 2231W        W 3095   0.779   1.075  18.774  0.2003  0.0808  0.1639
 2232W        W 3096  25.811  28.947  19.067 -0.0186  0.0961  0.1737
 2233W        W 3097  27.247   0.745  22.593 -0.0602 -0.3900  0.0119
 2234W        W 3098   3.761   3.503  20.468  0.2433 -0.1636 -0.0599
 2235W        W 3099   3.727   4.886  20.900 -0.0604 -0.2959  0.0192
 2236W        W 3100   0.510   2.120  19.644  0.0096  0.1566 -0.0320
 2237W        W 3101   1.736   4.354  20.868  0.0638  0.0848  0.2867
 2238W        W 3102   1.820   4.081  19.658  0.0647 -0.2606 -0.1259
 2239W        W 3103  26.943   0.380  21.644 -0.4603  0.0000 -0.0904
 2240W        W 3104   1.627   1.606  21.006  0.0500  0.0463 -0.2488
 2241W        W 3105   5.922   2.857  22.214  0.3401  0.1471 -0.1970
 2242W        W 3106  26.296   2.368  19.066  0.0040  0.1167  0.2086
 2243W        W 3107   3.182   5.192  19.800  0.2100 -0.3854  0.1667
 2244W        W 3108   1.148  28.484  19.630 -0.0833 -0.3818  0.4402
 2245W        W 3109  28.052   1.361  20.779 -0.2027 -0.1651  0.1048
 2246W        W 3110   2.672   2.504  25.102  0.1818  0.2030  0.2988
 2247W        W 3111   1.484   2.145  22.013 -0.1872  0.2494  0.0918
 2248W        W 3112   0.883   3.635  20.319  0.0359 -0.1296 -0.0290
 2249W        W 3113  28.790  29.107  19.484 -0.0075 -0.0764 -0.3316
 2250W        W 3114   4.191   2.599  21.988  0.1969  0.0730  0.1482
 2251W        W 3115   0.087   0.799  20.000 -0.2056  0.0145  0.0424
 2252W        W 3116   1.282   1.206  18.969  0.0108  0.0081 -0.1747
 2253W        W 3117   3.038   1.968  21.229  0.0840  0.3092 -0.0727
 2254W        W 3118   2.379   0.739  20.744  0.1497 -0.0349  0.0230
 2255W        W 3119   2.776   3.174  18.090 -0.0460 -0.1259  0.6900
 2256W        W 3120   4.541   1.039  21.021 -0.0076  0.0479 -0.1618
 2257W        W 3121   3.891   4.828  22.006  0.2178 -0.0524  0.0605
 2258W        W 3122   2.506   1.203  17.015 -0.1869 -0.0494 -0.0205
 2259W        W 3123   2.004   5.462  14.367 -0.0742  0.1089 -0.2797
 2260W        W 3124  28.425   3.428  21.330 -0.1723 -0.0536  0.1073
 2261W        W 3125   1.529  28.625  19.129 -0.0464 -0.2675 -0.0362
 2262W        W 3126   0.618  28.644  19.616  0.1663 -0.1565 -0.0639
 2263W        W 3127   2.278   3.348  18.299  0.0007 -0.0028 -0.0822
 2264W        W 3128   1.485   0.737  19.161  0.1221 -0.2446 -0.1266
 2265W        W 3129   3.057   0.094  20.612  0.2668 -0.0164 -0.2112
 2266W        W 3130   2.093   1.473  19.028  0.1759 -0.2986  0.1466
 2267W        W 3131   1.772   1.297  19.893 -0.1275 -0.3008 -0.1671
 2268W        W 3132   1.374   0.383  19.468  0.0907  0.1803 -0.1654
 2269W        W 3133   0.279   1.974  19.264  0.1767 -0.0128 -0.1961
 2270W        W 3134   1.814   2.947  19.301  0.2274  0.2225  0.0929
 2271W        W 3135   2.655   1.518  19.295 -0.2704 -0.0038  0.2564
 2272W        W 3136   1.855   2.295  23.272 -0.2425 -0.0851 -0.0691
 2273W        W 3137  29.128   4.039  23.251  0.3987  0.3249 -0.4391
 2274W        W 3138   1.749   2.703  19.844 -0.1378 -0.0794 -0.1325
 2275W        W 3139   2.629   1.686  18.434 -0.2294  0.1493 -0.0943
 2276W        W 3140   1.250   3.474  20.667 -0.1417 -0.0402 -0.1299
 2277W        W 3141   2.337   1.922  21.448 -0.3095  0.0019  0.0265
 2278W        W 3142   3.085   4.744  19.622  0.1442  0.1212  0.1057
 2279W        W 3143  29.028  26.394  19.962  0.1957  0.1623 -0.1400
 2280W        W 3144   4.369   0.866  20.533 -0.0703 -0.0311  0.2341
 2281W        W 3145  28.176   2.401  19.580 -0.0841  0.1813  0.2451
 2282W        W 3146   2.487   1.492  17.486 -0.0422 -0.0775 -0.0418
 2283W        W 3147   1.505   6.106  19.842 -0.0860 -0.2127 -0.1317
 2284W        W 3148  28.920   1.080  21.111  0.1278 -0.1424  0.1669
 2285W        W 3149   4.909   5.587  21.481  0.1325  0.2761  0.1440
 2286W        W 3150   1.819   2.378  18.926 -0.1037 -0.1331  0.2205
 2287W        W 3151   3.598   5.525  18.692  0.1642  0.1558 -0.1469
 2288W        W 3152   2.892   4.454  22.467 -0.3063  0.2173  0.1786
 2289W        W 3153   4.991   0.954  19.689 -0.1686  0.1848  0.1503
 2290W        W 3154   4.277   4.051  20.904  0.0116  0.0321 -0.0881
 2291W        W 3155   1.101   1.890  19.692 -0.0060  0.1260 -0.1882
 2292W        W 3156  28.183   1.038  22.742  0.1289  0.4340 -0.2601
 2293W        W 3157   2.620  28.934  19.131  0.0581 -0.2668 -0.3558
 2294W        W 3158   1.598   3.723  19.104  0.1875  0.1285 -0.1976
 2295W        W 3159   0.626   0.522  18.792 -0.1492  0.1108  0.1855
 2296W        W 3160   0.209   3.904  23.798  0.0148  0.1331 -0.2128
 2297W        W 3161  27.710   2.508  20.105 -0.1336 -0.2443  0.0352
 2298W        W 3162   2.371  28.865  19.609 -0.1148 -0.1615  0.0402
 2299W        W 3163   1.708   1.973  23.670  0.3731 -0.1633  0.1446
 2300W        W 3164   5.073   0.392  19.450 -0.1643  0.1271  0.0163
 2301W        W 3165   2.401   4.853  23.780 -0.1439  0.0395  0.1332
 2302W        W 3166   3.399  28.775  20.706 -0.2772  0.2079 -0.1600
 2303W        W 3167   1.977   3.365  20.985 -0.3852  0.0238 -0.0617
 2304W        W 3168   2.239   3.096  23.001 -0.2330 -0.0630 -0.1291
 2305W        W 3169  28.612   1.134  20.674  0.1093 -0.1134 -0.0508
 2306W        W 3170  28.306   0.066  19.342  0.0992 -0.0915  0.2875
 2307W        W 3171  28.633   5.733  21.066  0.2052 -0.2212 -0.1048
 2308W        W 3172   2.064   2.313  17.008 -0.0238 -0.1685  0.0980
 2309W        W 3173   1.624   1.074  23.003 -0.0660  0.0164  0.0676
 2310W        W 3174   4.860   4.152  21.647  0.2109  0.1885  0.0810
 2311W        W 3175   3.045   1.685  18.902 -0.1888 -0.2342 -0.1957
 2312W        W 3176   2.423   3.436  21.430 -0.1312  0.0485 -0.1190
 2313W        W 3177  28.965   0.197  19.920 -0.0306 -0.1044  0.3183
 2314W        W 3178   4.756   0.348  17.659 -0.0253  0.1490 -0.2306
 2315W        W 3179   5.468   3.901  17.959 -0.3982  0.1152 -0.0624
 2316W        W 3180  29.104   1.594  20.090  0.1531  0.0442 -0.0675
 2317W        W 3181   3.281   0.837  16.830  0.1116  0.3046  0.0049
 2318W        W 3182   2.806   0.581  20.537  0.2973  0.0678 -0.2653
 2319W        W 3183   4.338   0.868  19.572  0.0813 -0.0453 -0.0565
 2320W        W 3184   1.049   0.524  24.954 -0.1582  0.1180  0.2117
 2321W        W 3185   2.942   3.692  17.912  0.0916 -0.1758 -0.1998
 2322W        W 3186   4.204   1.533  22.165  0.0443  0.0434 -0.1293
 2323W        W 3187   4.261  28.897  20.295  0.1295  0.0536  0.2271
 2324W        W 3188   0.227  29.004  22.484 -0.0490 -0.1091 -0.2601
 2325W        W 3189  28.849   2.043  21.400 -0.2946  0.2368  0.1493
 2326W        W 3190   2.114   1.583  19.559 -0.0015 -0.0864  0.1151
 2327W        W 3191   2.963  29.056  19.522  0.2335  0.0369  0.0513
 2328W        W 3192   3.851   7.707  21.264  0.1897  0.1181 -0.0266
 2329W        W 3193   3.177   2.899  18.364  0.0750  0.1871  0.1778
 2330W        W 3194   1.516   3.205  20.434  0.0346  0.2294  0.2634
 2331W        W 3195   5.416   3.388  21.700 -0.0109 -0.1563 -0.3834
 2332W        W 3196   3.128   3.973  20.032  0.2147 -0.0170 -0.1156
 2333W        W 3197   2.803   0.390  19.284  0.3717  0.0876  0.1957
 2334W        W 3198   2.375   2.777  20.252 -0.1848 -0.2988 -0.0488
 2335W        W 3199   2.271   2.507  18.503 -0.1940  0.1192  0.3341
 2336W        W 3200   3.850   2.650  20.292 -0.6288 -0.0856 -0.0087
 2337W        W 3201   5.129   4.177  20.779  0.2216  0.0369 -0.0898
 2338W        W 3202   1.231   4.062  17.072 -0.1155  0.3711 -0.0411
 2339W        W 3203   0.609   3.672  18.163  0.0274 -0.0424 -0.1341
 2340W        W 3204   2.963   3.707  20.598  0.0677 -0.3001  0.0344
 2341W        W 3205  28.361   2.132  21.266 -0.0557  0.1695  0.2647
 2342W        W 3206   2.471   3.609  22.159 -0.0421  0.0229 -0.2883
 2343W        W 3207   6.104   3.007  19.397 -0.2308 -0.2281  0.1776
 2344W        W 3208  28.646   2.043  20.820  0.0108 -0.0843 -0.1155
 2345W        W 3209   5.187   1.788  24.341 -0.0319 -0.0861 -0.0755
 2346W        W 3210   1.311  28.521  21.697  0.0221  0.1678 -0.0442
 2347W        W 3211   0.708   3.193  23.912 -0.1888  0.0379 -0.1799
 2348W        W 3212   5.269  28.587  21.604  0.0282 -0.0090  0.2440
 2349W        W 3213   4.232   0.928  18.289 -0.2159  0.3631  0.2553
 2350W        W 3214   0.861   0.163  19.100  0.0472  0.0974 -0.1272
 2351W        W 3215   1.972  27.853  19.676  0.2772  0.1139  0.2869
 2352W        W 3216   0.769   0.341  21.000 -0.0155 -0.1921 -0.1855
 2353W        W 3217   4.161   3.613  19.942 -0.0086 -0.1506 -0.0486
 2354W        W 3218   3.593   4.206  20.009  0.0938  0.2117 -0.2003
 2355W        W 3219  27.420  27.837  17.201  0.1585 -0.2786  0.0825
 2356W        W 3220   0.621   0.839  20.011 -0.2835 -0.2532  0.0226
 2357W        W 3221  29.054   1.604  21.176  0.1345  0.1619 -0.1138
 2358W        W 3222  28.404   3.057  18.558 -0.0483  0.1288 -0.1984
 2359W        W 3223   3.716   2.595  19.545 -0.3002  0.0438 -0.1665
 2360W        W 3224   2.174   0.405  22.109  0.0142 -0.2958 -0.2292
 2361W        W 3225   3.485   1.346  20.361 -0.3129  0.0966  0.2906
 2362W        W 3226   6.630   3.793  20.769 -0.0221 -0.1860 -0.0182
 2363W        W 3227   1.472   3.774  19.604  0.1211  0.2909  0.1224
 2364W        W 3228   2.314   1.701  20.604  0.0633 -0.1652 -0.0688
 2365W        W 3229   3.794   6.578  21.076  0.1580  0.2761  0.1859
 2366W        W 3230   3.026   2.935  18.920  0.3367  0.1273  0.1794
 2367W        W 3231   2.163   0.053  18.930 -0.3016  0.0820  0.1305
 2368W        W 3232   3.471   0.393  18.433  0.0520  0.0883  0.0774
 2369W        W 3233   1.715   2.664  22.409  0.2091  0.1501  0.2904
 2370W        W 3234   3.778  29.039  21.708  0.0699  0.0825  0.0249
 2371W        W 3235  28.575   1.060  22.382  0.1885  0.1447  0.3132
 2372W        W 3236   0.171   3.980  18.783  0.0525 -0.0105 -0.0971
 2373W        W 3237   1.787   0.354  19.055 -0.0626 -0.2847 -0.0250
 2374W        W 3238   1.262   3.339  17.219  0.1731 -0.1838 -0.0422
 2375W        W 3239   4.702  28.818  20.634  0.5300 -0.1408  0.2361
 2376W        W 3240  28.410   2.563  20.037 -0.0150 -0.1190 -0.1891
 2377W        W 3241   2.011   2.813  20.888 -0.1688 -0.3594  0.2576
 2378W        W 3242   2.956   0.782  20.954  0.1801 -0.2237  0.2826
 2379W        W 3243   1.321  28.251  22.686  0.1476 -0.0640  0.2830
 2380W        W 3244   0.294   0.972  21.759  0.1813 -0.3375  0.1353
 2381W        W 3245   1.728   1.002  20.285  0.1736 -0.2761 -0.3028
 2382W        W 3246  28.109   4.676  18.217  0.1718  0.1455  0.3005
 2383W        W 3247   1.924   4.117  19.083 -0.4487 -0.2141 -0.1228
 2384W        W 3248   1.342   2.119  20.955  0.0630  0.0908 -0.0998
 2385W        W 3249   0.810   2.827  21.070  0.0176  0.1577 -0.3920
 2386W        W 3250   3.339   0.365  17.925 -0.0455  0.1459 -0.1913
 2387W        W 3251   0.478  28.971  20.148  0.0483  0.2511  0.2123
 2388W        W 3252   4.545   4.319  18.158  0.1037  0.0488 -0.0309
 2389W        W 3253   0.806   0.589  19.611  0.0647 -0.3052 -0.1289
 2390W        W 3254   4.470   5.771  20.221  0.2038 -0.0231 -0.1769
 2391W        W 3255   0.017   3.318  20.224  0.2068  0.1308 -0.0191
 2392W        W 3256   0.675   2.389  20.825  0.1673  0.1891  0.1185
 2393W        W 3257   0.923   3.025  19.368  0.1958  0.2080 -0.1589
 2394W        W 3258   3.343   2.513  20.435 -0.3077  0.3621  0.0451
 2395W        W 3259   1.687   3.573  15.828  0.1918 -0.1157 -0.3409
 2396W        W 3260   2.949   2.569  20.107 -0.0468  0.1729 -0.2514
 2397W        W 3261   0.913   3.361  19.760 -0.1297  0.1338 -0.0272
 2398W        W 3262   1.361   0.893  20.699  0.3567  0.3657 -0.1454
 2399W        W 3263   3.127   0.141  19.929 -0.2549  0.0453  0.1639
 2400W        W 3264   0.698   3.176  21.419  0.2106  0.0610  0.2376
 2401W        W 3265   0.550   2.993  19.762  0.1967 -0.3415  0.3070
 2402W        W 3266  28.696  27.085  20.660 -0.2517 -0.2825 -0.0711
 2403W        W 3267   1.489   3.243  22.358 -0.0554 -0.1391 -0.1945
 2404W        W 3268   0.980   2.173  20.062 -0.2969 -0.0820  0.2440
 2405W        W 3269  28.519   3.411  19.097 -0.1440 -0.0213 -0.1218
 2406W        W 3270   1.306   4.177  20.778  0.2030  0.1840 -0.1101
 2407W        W 3271  29.136   0.701  22.936 -0.0839  0.0843 -0.2995
 2408W        W 3272   2.692  27.958  23.872  0.0372  0.0241  0.0322
 2409W        W 3273   0.753  27.998  18.782 -0.0835 -0.3265  0.1591
 2410W        W 3274   2.105   0.845  21.245 -0.2544 -0.0419  0.2202
 2411W        W 3275   4.454   0.580  20.993 -0.0855 -0.0605  0.4911
 2412W        W 3276   0.579   2.144  18.230 -0.1031  0.0881  0.0485
 2413W        W 3277  28.897   2.764  19.387  0.3250 -0.0205  0.1982
 2414W        W 3278   3.214   2.290  22.710  0.1698  0.2898  0.0513
 2415W        W 3279   3.626   3.748  18.743 -0.3983  0.0606 -0.0144
 2416W        W 3280   0.802   1.928  21.047  0.0505  0.1191  0.3089
 2417W        W 3281   4.690   0.309  19.053  0.1125  0.1441  0.1141
 2418W        W 3282  27.777   3.016  20.344 -0.0640  0.0569 -0.2863
 2419W        W 3283  27.786  29.034  22.027 -0.0455 -0.0575 -0.1863
 2420W        W 3284   1.195  28.643  17.925 -0.1373  0.2739  0.0486
 2421W        W 3285  28.552   2.804  18.215  0.1788  0.0602  0.2273
 2422W        W 3286   0.486   1.990  22.756 -0.0385  0.0807  0.0005
 2423W        W 3287  29.113   4.776  17.944 -0.0652  0.1880 -0.0820
 2424W        W 3288   2.183  28.030  17.758 -0.3763 -0.2681  0.2101
 2425W        W 3289   1.439   3.523  23.224 -0.0430  0.2427 -0.1219
 2426W        W 3290   2.231  29.050  20.792 -0.2648 -0.1534  0.2713
 2427W        W 3291   1.596   1.245  23.804 -0.0721  0.0144 -0.3569
 2428W        W 3292   3.728   1.906  21.986 -0.0637 -0.0837  0.0783
 2429W        W 3293   0.987   2.111  17.172 -0.3558  0.1168  0.0041
 2430W        W 3294   4.168   6.313  21.383  0.0469  0.2790  0.3094
 2431W        W 3295   0.963   2.375  21.275 -0.1313  0.0589 -0.0273
 2432W        W 3296   4.134   3.197  20.247 -0.0727  0.1700 -0.2547
 2433W        W 3297   2.721   3.444  19.702  0.1244  0.0201  0.0550
 2434W        W 3298   0.943   1.102  21.724  0.1841 -0.2255  0.2560
 2435W        W 3299   3.985   0.516  22.244 -0.1184 -0.0896 -0.0624
 2436W        W 3300   4.584   0.217  21.932 -0.3796  0.3001  0.1416
 2437W        W 3301   2.079   4.440  23.773  0.0474  0.1237  0.2088
 2438W        W 3302   3.274   1.916  17.968  0.0386  0.2096 -0.0098
 2439W        W 3303   2.146   2.395  20.483 -0.1089 -0.0362 -0.0105
 2440W        W 3304   0.410   0.371  22.481  0.0183  0.0789 -0.0433
 2441W        W 3305   0.128   2.105  22.368  0.0831  0.1369 -0.0046
 2442W        W 3306   2.748   1.603  20.381 -0.2510  0.1766  0.1183
 2443W        W 3307   1.759   3.220  18.854  0.2656 -0.0729 -0.2878
 2444W        W 3308   2.129   2.808  18.944 -0.0819  0.0323 -0.2004
 2445W        W 3309   2.373   2.305  18.970  0.0229  0.0104 -0.1740
 2446W        W 3310   1.081   1.840  25.441  0.0092  0.0824  0.0395
 2447W        W 3311   2.640   3.804  20.072 -0.2058  0.1563 -0.0766
 2448W        W 3312   2.285   3.608  19.798 -0.0740 -0.0947 -0.1425
 2449W        W 3313   1.797   2.287  20.184  0.0013  0.2093  0.1153
 2450W        W 3314   1.068   3.795  19.364 -0.2711  0.0507  0.0649
 2451W        W 3315  28.218   2.250  24.381  0.0778  0.0856  0.0534
 2452W        W 3316   4.720   3.932  19.131 -0.0593  0.0881  0.1153
 2453W        W 3317   4.619   2.224  20.279  0.1767  0.1970 -0.1762
 2454W        W 3318   2.357   4.268  19.552  0.0221 -0.1661  0.3199
 2455W        W 3319   3.568   3.113  20.265  0.3746  0.1561 -0.0880
 2456W        W 3320   0.554  27.954  21.082  0.0847 -0.0952  0.0621
 2457W        W 3321   2.196   0.176  18.442  0.1665  0.2424  0.1336
 2458W        W 3322  29.091  28.253  20.639  0.2472  0.2361 -0.1323
 2459W        W 3323   3.679   4.408  20.651  0.2559 -0.3355 -0.2069
 2460W        W 3324   1.400   3.187  18.474  0.1164 -0.1797  0.0384
 2461W        W 3325   0.230   1.415  21.538  0.0287 -0.1900 -0.0986
 2462W        W 3326   0.513   2.501  19.154 -0.1709 -0.1302 -0.1286
 2463W        W 3327  28.630  27.892  19.945 -0.2228  0.1090  0.0355
 2464W        W 3328   1.607   2.081  17.499 -0.0555  0.0241 -0.4096
 2465W        W 3329   0.124   2.135  20.036 -0.0488  0.4180  0.5451
 2466W        W 3330   5.827   4.616  22.682  0.2354 -0.0441 -0.2329
 2467W        W 3331   3.411   4.014  21.231  0.0423  0.2346 -0.0215
 2468W        W 3332  28.066   2.141  17.609 -0.1246  0.1219 -0.2756
 2469W        W 3333   4.565   5.121  19.519 -0.0460  0.2510  0.0674
 2470W        W 3334   5.352   1.333  18.494 -0.2910  0.0556  0.1969
 2471W        W 3335   1.350   0.657  21.671 -0.1523  0.1156 -0.1339
 2472W        W 3336   2.857   3.986  18.727  0.0765 -0.0695  0.0844
 2473W        W 3337   2.888   0.755  18.901  0.0558 -0.1373  0.1930
 2474W        W 3338   2.809   3.175  21.611  0.0020 -0.1291 -0.0951
 2475W        W 3339  28.396   3.566  21.903 -0.2752  0.1372 -0.2127
 2476W        W 3340   1.528   2.307  21.430  0.2283 -0.0613 -0.1226
 2477W        W 3341   1.214  28.703  22.920  0.0669 -0.0150  0.0192
 2478W        W 3342   1.996   1.931  21.063  0.0740 -0.0234 -0.1779
 2479W        W 3343  28.962   4.920  24.397 -0.2850 -0.1380  0.0387
 2480W        W 3344   2.328   2.105  15.615 -0.0018  0.0887 -0.0824
 2481W        W 3345   0.521   2.153  17.771 -0.3049 -0.0696 -0.1964
 2482W        W 3346   0.863   0.584  20.480  0.0717 -0.1866  0.0349
 2483W        W 3347   3.961   0.448  20.121  0.2447  0.1442 -0.0623
 2484W        W 3348   1.419   4.183  19.279  0.3030  0.0094  0.0452
 2485W        W 3349   0.113   3.403  17.980  0.0701  0.1878  0.0478
 2486W        W 3350   2.698  28.899  20.503 -0.2312  0.1785 -0.1129
 2487W        W 3351   1.149   2.927  20.719 -0.1685  0.1085  0.1972
 2488W        W 3352   2.703   4.226  21.626  0.1853  0.2188  0.2254
 2489W        W 3353   2.200   2.467  19.915  0.2966 -0.0880 -0.1772
 2490W        W 3354   0.338   5.216  23.471 -0.1452  0.0817 -0.0189
 2491W        W 3355   0.739   2.774  22.149 -0.0425 -0.0197  0.3087
 2492W        W 3356   2.693   1.337  18.748 -0.1455  0.0433  0.0640
 2493W        W 3357  28.701   3.310  22.734 -0.0491 -0.2158  0.1699
 2494W        W 3358   1.222   2.544  22.324 -0.0893 -0.2155 -0.0368
 2495W        W 3359   1.789   0.629  18.046  0.3087 -0.1386  0.2515
 2496W        W 3360   2.055   1.963  18.698  0.1607 -0.1298  0.3336
 2497W        W 3361   1.300   3.462  18.839 -0.3884 -0.0872  0.2229
 2498W        W 3362   4.807   2.492  18.721 -0.1452  0.2719 -0.1954
 2499W        W 3363   2.581   1.014  19.198  0.0410  0.0403  0.2278
 2500W        W 3364   3.741   3.939  20.821  0.0474  0.1598 -0.1723
 2501W        W 3365  27.150   2.135  24.695  0.2631  0.0325 -0.2051
 2502W        W 3366   2.378   2.068  19.485  0.0610  0.0438 -0.0375
 2503W        W 3367   3.075  27.887  19.005 -0.2017 -0.0641 -0.4457
 2504W        W 3368   0.427   5.020  16.792  0.0507 -0.0898 -0.3929
 2505W        W 3369   3.266   0.263  19.415 -0.1028  0.3425  0.0244
 2506W        W 3370   2.412   0.565  20.048  0.1146 -0.1335  0.0703
 2507W        W 3371   2.608  28.568  18.675  0.0273 -0.2729  0.2269
 2508W        W 3372  28.526   5.975  17.878 -0.2195 -0.0059 -0.0679
 2509W        W 3373   2.497   0.500  18.674 -0.0950 -0.3052  0.1019
 2510W        W 3374   2.682   1.139  20.685 -0.0768 -0.0633 -0.1166
 2511W        W 3375   2.950   5.763  21.803 -0.1304  0.2748  0.0644
 2512W        W 3376   4.622   3.543  20.169  0.0659 -0.0151  0.2199
 2513W        W 3377  28.927   2.063  18.673 -0.1824  0.1272 -0.0532
 2514W        W 3378  28.433   2.616  20.783 -0.0229  0.0240 -0.1373
 2515W        W 3379  28.989   0.874  25.449 -0.0675 -0.0306  0.1078
 2516W        W 3380   1.358   2.513  24.979  0.0754 -0.3668 -0.1626
 2517W        W 3381   4.229   0.490  19.182 -0.1202 -0.1572 -0.0961
 2518W        W 3382   2.427   3.418  19.285  0.1578 -0.1042  0.0342
 2519W        W 3383   0.940   2.089  22.544 -0.0308 -0.0267 -0.0519
 2520W        W 3384   5.034   3.737  22.002 -0.2433  0.1103  0.0900
 2521W        W 3385   1.979   0.591  19.591 -0.1532  0.1974 -0.2296
 2522W        W 3386   0.388  27.481  17.466 -0.1320 -0.0244 -0.1409
 2523W        W 3387   0.489   2.721  21.628 -0.1590 -0.2976  0.2213
 2524W        W 3388   2.165   2.443  21.415 -0.2161  0.0061 -0.0848
 2525W        W 3389   2.738   1.852  23.271  0.2110  0.1363 -0.0321
 2526W        W 3390   1.167   2.928  21.987 -0.4476 -0.1554  0.1889
 2527W        W 3391   0.250   3.500  21.417  0.0788 -0.1135  0.0130
 2528W        W 3392   0.229   4.516  22.411 -0.1286 -0.1512 -0.1493
 2529W        W 3393   4.157   2.926  22.476 -0.2504 -0.1044 -0.2754
 2530W        W 3394   2.220  28.459  21.541 -0.0521  0.3392 -0.1245
 2531W        W 3395   3.522   2.740  18.696 -0.1161 -0.1533 -0.0453
 2532W        W 3396   0.885   1.380  24.696  0.0324  0.0297 -0.0234
 2533W        W 3397   1.860   0.964  18.953 -0.1376  0.0940  0.2904
 2534W        W 3398   1.056   4.781  23.035 -0.0639 -0.2587 -0.0142
 2535W        W 3399   3.125   5.842  18.830 -0.1740  0.2722 -0.1227
 2536W        W 3400   0.156   2.692  22.652 -0.0936 -0.1545 -0.3187
 2537W        W 3401   1.224   1.787  20.528  0.1257 -0.1200 -0.2979
 2538W        W 3402   0.740   1.915  20.519  0.1547  0.4113 -0.3243
 2539W        W 3403  28.616   4.610  18.149 -0.1585 -0.1039  0.0092
 2540W        W 3404  29.138   0.825  20.780  0.0109 -0.1572  0.0955
 2541W        W 3405  27.819   2.164  20.573  0.0653 -0.0842  0.1641
 2542W        W 3406   1.011   2.107  18.518 -0.0913  0.2773 -0.0399
 2543W        W 3407  28.147   1.581  18.362  0.0175  0.0770  0.1812
 2544W        W 3408   0.347   0.410  23.827 -0.1131 -0.4031 -0.2762
 2545W        W 3409   4.188  28.125  18.984  0.1438 -0.1197 -0.3486
 2546W        W 3410   3.993   1.558  21.696  0.1494 -0.0127 -0.0929
 2547W        W 3411   0.433   3.640  24.688  0.0787 -0.2483 -0.2469
 2548W        W 3412   7.496   4.020  20.396 -0.3063 -0.0364 -0.1700
 2549W        W 3413   4.077   1.283  20.864  0.0847  0.0865 -0.0062
 2550W        W 3414   1.396   5.045  17.840 -0.1754  0.0198 -0.0336
 2551W        W 3415   4.211   2.731  19.848  0.1182 -0.1099  0.1389
 2552W        W 3416   3.182   3.695  18.948 -0.0650 -0.3472  0.3370
 2553W        W 3417   2.881   0.413  16.889 -0.1615  0.1270 -0.1116
 2554W        W 3418  28.096   2.600  20.409  0.0169  0.1772 -0.2003
 2555W        W 3419   0.896   0.371  22.281  0.1540 -0.1791 -0.0058
 2556W        W 3420   2.098   0.177  19.850 -0.1207  0.0654 -0.0529
 2557W        W 3421  28.249   4.676  18.665 -0.0466 -0.2784 -0.1374
 2558W        W 3422   1.877  28.865  19.980 -0.2740 -0.2795 -0.0514
 2559W        W 3423  28.231   2.515  21.637 -0.2636  0.3687  0.1158
 2560W        W 3424  28.479   2.103  18.903  0.0450  0.1403 -0.1248
 2561W        W 3425   0.257   1.952  21.468  0.2194 -0.1949 -0.2747
 2562W        W 3426  27.763   3.997  19.430 -0.0917 -0.0247  0.2182
 2563W        W 3427  28.316  28.332  20.103  0.2431  0.1260  0.2287
 2564W        W 3428   3.763   1.657  20.629 -0.5924  0.1820  0.3727
 2565W        W 3429   4.134   1.717  17.589  0.0318  0.0699  0.2304
 2566W        W 3430   7.551  26.727  19.223 -0.1644  0.2870 -0.1130
 2567W        W 3431  29.035   4.294  19.157 -0.2280  0.0973 -0.1442
 2568W        W 3432   1.348   2.789  19.453 -0.0343  0.0066  0.0013
 2569W        W 3433   3.607   0.301  19.801 -0.0411  0.1336  0.1550
 2570W        W 3434   0.346   0.899  18.983  0.4096  0.2027  0.1336
 2571W        W 3435   1.069   2.446  21.738 -0.3874 -0.0849 -0.1006
 2572W        W 3436   0.172   3.075  23.015 -0.1875 -0.0778  0.2179
 2573W        W 3437  28.636   3.594  18.556  0.2033 -0.2041  0.0287
 2574W        W 3438  28.933   1.411  19.394  0.0004  0.2182 -0.1154
 2575W        W 3439   4.101   3.849  21.915  0.0988  0.3521  0.1670
 2576W        W 3440   0.138   0.796  21.280 -0.0388 -0.1079  0.2471
 2577W        W 3441   1.185   1.701  21.238  0.2509  0.2016 -0.0063
 2578W        W 3442   1.186   6.501  21.442 -0.1632  0.0087 -0.1199
 2579W        W 3443   3.199   5.052  20.746  0.2028  0.1251 -0.0710
 2580W        W 3444   2.306   7.039  22.080 -0.0122  0.1842 -0.0250
 2581W        W 3445   6.092   1.491  18.802  0.0397  0.0088  0.0213
 2582W        W 3446   2.482   0.650  19.535  0.1101  0.1099  0.1187
 2583W        W 3447   6.808  27.318  18.859 -0.0406 -0.0479  0.0429
 2584W        W 3448   3.165   2.365  17.489 -0.2144 -0.0989 -0.2439
 2585W        W 3449   3.053   3.247  22.681  0.3179 -0.0295  0.0535
 2586W        W 3450   2.412   3.035  19.657 -0.4460 -0.1919 -0.3118
 2587W        W 3451   3.057   5.277  21.587  0.2064 -0.2420 -0.1639
 2588W        W 3452   3.292   3.365  18.165  0.0722  0.1455 -0.1752
 2589W        W 3453   0.989   1.287  22.152  0.2267 -0.0630  0.1038
 2590W        W 3454   0.800   1.637  18.433  0.0319 -0.0565  0.1995
 2591W        W 3455   1.315   2.592  21.013 -0.1410  0.2466 -0.2730
 2592W        W 3456  28.658   3.004  19.899  0.3143 -0.0368 -0.0294
 2593W        W 3457  27.594   0.339  19.077  0.0390 -0.2067  0.1275
 2594W        W 3458   3.538   1.361  19.821 -0.0279 -0.1726  0.1344
 2595W        W 3459   0.071  28.717  17.965 -0.2796 -0.1351 -0.0880
 2596W        W 3460  28.567   0.573  19.510 -0.0231  0.0287  0.1149
 2597W        W 3461   3.069   1.307  22.020 -0.1979 -0.0957 -0.0165
 2598W        W 3462   3.566   5.297  21.624 -0.2877 -0.0367  0.2599
 2599W        W 3463   2.832   2.164  18.997  0.1378  0.4814  0.0370
 2600W        W 3464   1.922   2.959  18.393  0.0480 -0.1321  0.2137
 2601W        W 3465   2.290   3.132  20.585  0.0392 -0.1319  0.1575
 2602W        W 3466   2.426   3.988  21.207  0.1801 -0.2887  0.0046
 2603W        W 3467   0.514   5.601  22.186  0.1644 -0.0501  0.2806
 2604W        W 3468   2.005   3.756  21.343 -0.0383 -0.1253  0.1974
 2605W        W 3469  28.892   2.561  19.878  0.0123  0.2224 -0.0479
 2606W        W 3470  28.909   2.614  18.551 -0.2036 -0.0033 -0.0891
 2607W        W 3471   3.128   1.844  22.872  0.1538  0.0765  0.1638
 2608W        W 3472  28.127   1.098  20.329  0.0055  0.1159 -0.1171
 2609W        W 3473  28.621   2.532  21.257  0.2279  0.2353  0.2850
 2610W        W 3474   1.109   3.332  21.624 -0.2231  0.4292 -0.0006
 2611W        W 3475   0.160   3.501  21.893  0.0812  0.1255 -0.1301
 2612W        W 3476   1.134   4.547  20.503  0.0701 -0.3610 -0.3156
 2613W        W 3477   1.447   2.781  18.115 -0.1128  0.1169 -0.0020
 2614W        W 3478  28.761   6.079  24.774  0.2207 -0.1302  0.2419
 2615W        W 3479   1.059   3.311  23.544  0.0887 -0.1372 -0.0972
 2616W        W 3480   3.012   2.409  20.923 -0.2576 -0.0940 -0.0080
 2617W        W 3481   6.200   4.241  26.713  0.0240 -0.1375  0.1292
 2618W        W 3482   3.010   4.482  21.984  0.1086  0.0037 -0.2279
 2619W        W 3483   1.259   2.105  23.559 -0.0115 -0.0367 -0.0549
 2620W        W 3484   1.060  29.010  22.518  0.2037 -0.0037  0.1935
 2621W        W 3485   0.437   4.809  24.699 -0.2466 -0.0235  0.0630
 2622W        W 3486   0.942   3.728  24.798 -0.3418 -0.1808 -0.1280
 2623W        W 3487   0.293   2.966  26.372  0.4432  0.0181 -0.2705
 2624W        W 3488   1.608  28.783  24.189  0.2446  0.1067  0.0819
 2625W        W 3489   4.151   0.098  25.893 -0.2112  0.0602  0.1766
 2626W        W 3490  28.263   2.324  23.443  0.1132  0.1944 -0.1258
 2627W        W 3491   4.348   1.367  26.563  0.0473 -0.3786 -0.0833
 2628W        W 3492   0.901   2.130  26.614 -0.2345  0.1792 -0.4124
 2629W        W 3493   1.522   3.064  26.003  0.0144  0.0206  0.2145
 2630W        W 3494   2.572   1.980  21.018  0.1062  0.0629 -0.0285
 2631W        W 3495  28.049   3.695  23.584  0.3686  0.1639 -0.0044
 2632W        W 3496   3.449   1.849  27.277 -0.0526  0.3339  0.0349
 2633W        W 3497   4.439   1.668  23.901 -0.0320 -0.1191 -0.0137
 2634W        W 3498   3.558   1.346  21.957  0.3464 -0.0212 -0.1209
 2635W        W 3499   0.149   1.187  23.354  0.1316 -0.0212 -0.2473
 2636W        W 3500   1.420   5.156  26.324  0.0228  0.0297 -0.2405
 2637W        W 3501   0.223   3.361  23.724 -0.0100 -0.0703  0.0458
 2638W        W 3502  27.595   4.073  22.523  0.0295 -0.0283 -0.4552
 2639W        W 3503   2.361   2.451  24.480  0.2493 -0.3352 -0.2152
 2640W        W 3504   3.485   2.949  28.629 -0.0972 -0.1293  0.1104
 2641W        W 3505   0.985   3.530  25.278 -0.0188 -0.0955 -0.0062
 2642W        W 3506   4.160   2.739  23.454 -0.2263 -0.0156 -0.1468
 2643W        W 3507   1.946   2.765  24.623  0.1511  0.1229 -0.2039
 2644W        W 3508   0.772   2.565  23.881  0.1690  0.1315 -0.0279
 2645W        W 3509   0.930   1.375  26.600 -0.1130  0.1913  0.1608
 2646W        W 3510   0.568   5.973  26.992  0.0225  0.2506  0.1062
 2647W        W 3511   6.097   3.790  22.304  0.0794  0.0568 -0.0648
 2648W        W 3512   1.532   1.941  25.769 -0.0334  0.2730  0.1650
 2649W        W 3513   1.699   3.084  23.807 -0.1761  0.1423 -0.0952
 2650W        W 3514   0.702   1.441  20.852 -0.0725 -0.1715  0.2075
 2651W        W 3515   2.018   4.252  21.291 -0.0237 -0.1326  0.0818
 2652W        W 3516   4.028   3.431  20.869 -0.0689  0.2109  0.0870
 2653W        W 3517   4.127  28.313  25.204 -0.0648  0.0568 -0.1759
 2654W        W 3518   0.190   2.339  18.394 -0.1437  0.2574 -0.0580
 2655W        W 3519   3.747   1.288  23.916  0.0036  0.0132  0.4663
 2656W        W 3520   1.026   3.903  22.089 -0.1908  0.0155 -0.0867
 2657W        W 3521   3.116   2.799  21.760 -0.0670 -0.0564  0.5122
 2658W        W 3522  28.598   4.185  20.603 -0.1131  0.1872 -0.1045
 2659W        W 3523   0.116   4.055  19.685  0.0913 -0.0918 -0.0248
 2660W        W 3524  28.625   2.489  24.556 -0.2930 -0.0151 -0.2131
 2661W        W 3525   4.863  28.757  25.343 -0.0053 -0.3597 -0.0110
 2662W        W 3526   0.931   1.221  23.804  0.0759  0.0984 -0.1775
 2663W        W 3527   4.971   0.409  22.176 -0.1751 -0.1886 -0.0213
 2664W        W 3528   1.570   3.456  25.321 -0.1843  0.0146  0.0137
 2665W        W 3529   2.406   1.637  24.754 -0.0971 -0.0167  0.1471
 2666W        W 3530   3.264   4.229  23.786 -0.1099 -0.0879  0.3149
 2667W        W 3531   0.366   1.186  22.853  0.2631 -0.0894  0.0126
 2668W        W 3532   2.208   0.590  19.112  0.0088 -0.2214  0.1247
 2669W        W 3533  28.205   3.161  21.702  0.0087 -0.1532 -0.0784
 2670W        W 3534   1.215  29.108  26.547 -0.2930  0.1002 -0.1087
 2671W        W 3535   1.871   0.549  22.516 -0.2323  0.2077  0.0434
 2672W        W 3536  27.364   5.704  21.896  0.2989 -0.0279 -0.0887
 2673W        W 3537   4.228   1.340  22.686 -0.0165  0.1359  0.0179
 2674W        W 3538   2.881   3.825  21.082  0.0074 -0.2573  0.1758
 2675W        W 3539   0.318   4.624  25.547 -0.3287  0.0187  0.2586
 2676W        W 3540   0.990   2.986  25.899 -0.0953 -0.1805 -0.0608
 2677W        W 3541   0.071   1.186  24.276 -0.4280  0.2317  0.3052
 2678W        W 3542   0.429  27.556  25.036 -0.1146  0.0376  0.0873
 2679W        W 3543   3.509   0.446  24.085  0.0012  0.0765  0.0009
 2680W        W 3544  28.194   2.873  23.561  0.1438  0.1478  0.2789
 2681W        W 3545  26.638   1.002  23.346 -0.2207 -0.0521 -0.2270
 2682W        W 3546  27.788   3.154  22.448 -0.0691  0.0160  0.0291
 2683W        W 3547  27.139   2.419  24.235 -0.2709  0.1395 -0.0075
 2684W        W 3548   4.395   5.055  23.433  0.0615 -0.0135  0.5235
 2685W        W 3549   1.688   0.994  24.583  0.1235 -0.1555  0.1204
 2686W        W 3550   3.339   1.545  23.197  0.2480  0.0894  0.2274
 2687W        W 3551   4.681   0.534  25.239 -0.1080  0.1367  0.0327
 2688W        W 3552   5.733   3.378  23.399  0.1222 -0.2501 -0.2947
 2689W        W 3553   4.440   2.327  25.773  0.0808 -0.3923 -0.1902
 2690W        W 3554   0.210   1.773  21.960 -0.3024 -0.0127  0.1583
 2691W        W 3555   1.101   1.941  22.968 -0.2460 -0.1332 -0.0250
 2692W        W 3556   3.009   0.816  23.612 -0.0191  0.0575 -0.3417
 2693W        W 3557   2.807   2.596  22.449 -0.0980 -0.2121 -0.2766
 2694W        W 3558  27.812   3.499  25.680  0.2392 -0.1207  0.1235
 2695W        W 3559   1.140   2.045  24.911 -0.0539 -0.0522  0.0332
 2696W        W 3560   1.030  28.959  24.169  0.0683  0.1713  0.2900
 2697W        W 3561   3.292   1.274  23.703  0.2925  0.4797 -0.1071
 2698W        W 3562   2.174   3.693  24.636  0.0410 -0.1066  0.0749
 2699W        W 3563   1.155  29.137  19.832 -0.2315 -0.0719  0.3228
 2700W        W 3564   4.324   3.935  24.406  0.0683  0.1749  0.5015
 2701W        W 3565   6.926   0.589  25.334 -0.2959 -0.1065 -0.0141
 2702W        W 3566   2.737   2.170  22.751 -0.4023  0.2915  0.0663
 2703W        W 3567   5.782   1.807  24.968  0.0596  0.1983  0.0759
 2704W        W 3568   2.684  27.018  23.664 -0.2017 -0.2815  0.2827
 2705W        W 3569   3.562   1.995  24.155  0.2049 -0.0433 -0.0275
 2706W        W 3570  28.987   3.087  23.851  0.0372  0.1914 -0.1900
 2707W        W 3571  28.882   5.402  23.277 -0.2553  0.2636  0.0695
 2708W        W 3572   3.173  27.677  24.564  0.1831 -0.1376  0.2263
 2709W        W 3573   5.203   2.938  21.548 -0.1535  0.0263 -0.1951
 2710W        W 3574   2.915   2.088  19.995  0.1491  0.1339  0.0515
 2711W        W 3575  28.306   5.412  25.427  0.1754  0.4558  0.1653
 2712W        W 3576  27.188   2.980  25.345  0.0249 -0.0215 -0.1680
 2713W        W 3577   5.027  28.741  24.468 -0.2416  0.0709  0.2035
 2714W        W 3578   7.070   3.183  21.413 -0.2750 -0.1747 -0.2796
 2715W        W 3579   0.719   4.345  25.566  0.2490 -0.3282 -0.1721
 2716W        W 3580   4.879   1.908  23.916 -0.2051  0.4074 -0.1079
 2717W        W 3581   1.198   1.519  25.847  0.1095  0.0045 -0.2809
 2718W        W 3582   2.397   4.078  23.480 -0.0670 -0.4856 -0.0450
 2719W        W 3583   0.206   1.685  26.246  0.0515 -0.1924 -0.1033
 2720W        W 3584   2.850   3.125  22.205 -0.2749  0.0384 -0.0770
 2721W        W 3585   4.440  28.508  24.434 -0.0292  0.1863  0.0717
 2722W        W 3586   2.216  27.717  21.990 -0.0375 -0.1073 -0.1677
 2723W        W 3587  28.245   2.297  26.302 -0.1265  0.0342 -0.0721
 2724W        W 3588   0.357   5.675  24.835  0.1518  0.0111 -0.1412
 2725W        W 3589   3.504   1.881  22.447  0.0557  0.2195  0.0178
 2726W        W 3590   2.989   1.697  24.675 -0.1671 -0.0554  0.0386
 2727W        W 3591   0.818   2.615  27.246 -0.0031  0.2729 -0.0449
 2728W        W 3592   1.847   0.519  18.623 -0.2161  0.0264 -0.1854
 2729W        W 3593  26.624   0.815  24.934 -0.1018  0.2001  0.1710
 2730W        W 3594   4.839  28.392  24.097  0.1859  0.0188  0.1498
 2731W        W 3595   0.981   3.329  22.836 -0.2119 -0.0996 -0.1595
 2732W        W 3596   2.489   1.212  24.417 -0.0892  0.2750  0.1347
 2733W        W 3597   3.560  28.590  22.302  0.1426 -0.0057  0.3308
 2734W        W 3598   2.479   1.828  18.851 -0.0499  0.3328 -0.1002
 2735W        W 3599   1.856   2.349  24.849  0.0828 -0.5801  0.1128
 2736W        W 3600   3.252   3.312  24.037 -0.2139 -0.1785  0.2752
 2737W        W 3601   2.538  28.850  21.126 -0.1491  0.0123 -0.1187
 2738W        W 3602   2.001   1.911  22.693  0.0988 -0.1971  0.3120
 2739W        W 3603   2.909   1.329  23.421 -0.1502  0.1061  0.1864
 2740W        W 3604   0.060   2.239  22.830  0.0085 -0.0492 -0.1357
 2741W        W 3605   5.261   2.168  23.546 -0.2375  0.1054 -0.0053
 2742W        W 3606  28.632   5.805  23.654 -0.3621 -0.4078  0.0383
 2743W        W 3607   1.072   4.483  23.459  0.2321  0.0885 -0.1653
 2744W        W 3608   0.733   1.863  26.256  0.2560  0.3654  0.1044
 2745W        W 3609   3.318   2.388  22.144  0.1141 -0.0301 -0.0804
 2746W        W 3610  28.904   4.172  25.525  0.1869 -0.1344  0.0344
 2747W        W 3611   5.140   2.311  24.090 -0.2082  0.1926 -0.3164
 2748W        W 3612   3.281   1.068  22.402  0.0431  0.0990 -0.1359
 2749W        W 3613  26.819   3.161  24.842  0.1702 -0.3966  0.0391
 2750W        W 3614   2.877  28.970  22.029  0.0986 -0.3154 -0.0768
 2751W        W 3615   5.569   1.554  24.600 -0.0285 -0.1201  0.0079
 2752W        W 3616   1.728   2.766  21.417  0.1746 -0.0230 -0.2397
 2753W        W 3617   2.368   3.582  23.189 -0.0193  0.1012  0.3465
 2754W        W 3618  29.036   2.153  21.869 -0.4202  0.0970  0.1349
 2755W        W 3619   1.362   0.337  22.397 -0.2602 -0.1169  0.1978
 2756W        W 3620  29.000   2.423  20.316  0.3199  0.1181 -0.0183
 2757W        W 3621   1.429   1.407  24.358 -0.1893  0.2485 -0.2124
 2758W        W 3622   1.160   5.250  25.719 -0.0221 -0.3436 -0.1547
 2759W        W 3623   1.798   1.218  21.426 -0.4797 -0.1688 -0.1957
 2760W        W 3624   3.672   0.340  21.472  0.1653  0.0311 -0.0352
 2761W        W 3625   4.313   4.387  23.415  0.2735  0.0886  0.1648
 2762W        W 3626   1.040   4.313  25.914 -0.0783 -0.4551 -0.1810
 2763W        W 3627   2.004   3.244  25.462  0.2399 -0.0235 -0.1453
 2764W        W 3628   3.222   4.959  23.419 -0.1175  0.1466 -0.1350
 2765W        W 3629   2.541   0.994  23.561  0.1452  0.2592 -0.1012
 2766W        W 3630   0.023   2.889  21.276 -0.0053  0.2117 -0.1238
 2767W        W 3631   3.340   1.062  23.252  0.3904 -0.1403 -0.0498
 2768W        W 3632   3.457   2.998  24.436 -0.2061 -0.2156 -0.1099
 2769W        W 3633   4.434  28.086  22.817  0.0580  0.1549 -0.0576
 2770W        W 3634   0.439   6.790  25.180 -0.3071  0.3031  0.0599
 2771W        W 3635   0.571   1.834  22.279  0.0152 -0.0242  0.2936
 2772W        W 3636   1.432  29.035  21.492  0.1953  0.3738 -0.0713
 2773W        W 3637  28.721   0.087  25.062  0.2075  0.1273 -0.0181
 2774W        W 3638   1.519   3.014  23.375  0.2062  0.0713 -0.2105
 2775W        W 3639   0.850   3.074  27.401  0.1100 -0.0244  0.2062
 2776W        W 3640   3.407   2.975  26.301  0.0222 -0.1098  0.0269
 2777W        W 3641   4.124   1.546  24.680 -0.0760 -0.3155  0.1258
 2778W        W 3642   5.334   1.332  26.110 -0.1576  0.4946 -0.5285
 2779W        W 3643   1.642   0.677  22.086 -0.0245  0.1194 -0.0333
 2780W        W 3644   1.087   2.932  23.160  0.3658 -0.0803 -0.2894
 2781W        W 3645   0.742   4.841  25.368 -0.2448  0.0351 -0.0857
 2782W        W 3646   2.982   3.572  25.030 -0.1538  0.1169  0.1690
 2783W        W 3647   1.595   2.642  21.903 -0.1188 -0.2558  0.0016
 2784W        W 3648   4.373   2.049  22.925 -0.2762 -0.3296 -0.2773
 2785W        W 3649   2.781   2.321  23.230 -0.1539  0.0075 -0.2375
 2786W        W 3650   2.960   1.300  22.832 -0.3483  0.1026 -0.2188
 2787W        W 3651   3.106   1.201  21.197 -0.4161 -0.0353  0.0218
 2788W        W 3652   5.081   1.126  23.486  0.2175 -0.3011  0.0231
 2789W        W 3653   1.444   1.186  21.870  0.0689  0.2623  0.0095
 2790W        W 3654  28.681   5.349  25.018  0.0952  0.0438 -0.3019
 2791W        W 3655  28.661   3.484  24.921 -0.0697 -0.0172 -0.0897
 2792W        W 3656   2.166   2.597  22.099  0.0867  0.1632 -0.1125
 2793W        W 3657   4.926   0.834  22.510  0.0020  0.0119 -0.0315
 2794W        W 3658   2.645   1.066  20.166 -0.0116  0.0056 -0.1776
 2795W        W 3659   3.724   3.453  21.795 -0.0176 -0.0985 -0.1248
 2796W        W 3660   1.391   0.522  24.576  0.2439 -0.0352  0.0389
 2797W        W 3661  28.722   1.359  24.583 -0.0023 -0.0334 -0.1102
 2798W        W 3662   1.905   3.959  22.449 -0.1371 -0.1938 -0.1598
 2799W        W 3663   2.559   3.496  27.371  0.2683  0.0987  0.0961
 2800W        W 3664   2.485   2.546  21.010 -0.0286 -0.0199 -0.0675
 2801W        W 3665   1.120  27.669  20.190  0.2527  0.0058 -0.1150
 2802W        W 3666   1.204   3.344  24.074  0.3762 -0.0031  0.1130
 2803W        W 3667   0.929   1.116  25.907 -0.2198 -0.1462  0.3494
 2804W        W 3668   0.737   1.993  21.587  0.1496  0.1016 -0.1236
 2805W        W 3669   2.766   4.760  21.526 -0.1490 -0.1949 -0.1477
 2806W        W 3670   1.186   0.958  24.860 -0.0618 -0.1420  0.1560
 2807W        W 3671   1.199   1.145  25.312  0.2195 -0.0206  0.0372
 2808W        W 3672   3.025   1.768  25.509 -0.0722  0.0897 -0.0067
 2809W        W 3673   1.216   0.078  25.269 -0.0330  0.1735  0.0844
 2810W        W 3674   3.095  28.740  23.097  0.1948  0.1133 -0.2121
 2811W        W 3675   2.745  27.488  23.780  0.2080  0.1091 -0.0024
 2812W        W 3676  28.435   3.106  23.968  0.3811 -0.2367 -0.1134
 2813W        W 3677   2.508   1.239  22.610  0.0405 -0.0791  0.0937
 2814W        W 3678   0.531   1.575  23.507 -0.3102 -0.0295  0.1912
 2815W        W 3679   2.573  28.406  24.963 -0.0082 -0.3608 -0.1830
 2816W        W 3680   1.270   1.706  22.327 -0.0259 -0.1783 -0.1593
 2817W        W 3681  27.573   0.549  22.965  0.0983 -0.0132  0.0205
 2818W        W 3682   1.507   0.950  27.641 -0.2047 -0.1547  0.0606
 2819W        W 3683   0.215   1.624  23.036 -0.1303 -0.0419 -0.0638
 2820W        W 3684   1.760   2.396  24.349  0.0114  0.2254  0.0229
 2821W        W 3685  27.362   1.563  23.892 -0.0691 -0.0016 -0.2700
 2822W        W 3686   0.438   2.271  21.913  0.0941 -0.0777 -0.4627
 2823W        W 3687  27.976   2.451  20.995 -0.0858 -0.1579 -0.0313
 2824W        W 3688   1.807   3.497  25.935  0.2184 -0.0857 -0.1328
 2825W        W 3689   2.011  28.665  23.853  0.1699  0.2674 -0.1125
 2826W        W 3690   1.398   3.874  25.012 -0.0888  0.1428  0.2109
 2827W        W 3691   3.917  28.549  21.849 -0.3463  0.3429 -0.0884
 2828W        W 3692   3.610   1.954  21.386  0.2626 -0.0792  0.1605
 2829W        W 3693   3.757   1.321  21.327  0.2970  0.1167 -0.0328
 2830W        W 3694   4.086   2.038  21.486 -0.0693 -0.1007 -0.3104
 2831W        W 3695   4.788   3.580  21.625 -0.1606  0.0193  0.1877
 2832W        W 3696   3.876   0.619  24.495 -0.0514 -0.0583 -0.0983
 2833W        W 3697   0.256   5.191  26.113 -0.0212  0.2300 -0.2408
 2834W        W 3698   4.597  27.687  24.545 -0.2288  0.1517  0.2084
 2835W        W 3699   1.217   1.202  23.381 -0.0892  0.1556  0.0116
 2836W        W 3700   1.074   6.748  25.763  0.1193  0.0533 -0.1436
 2837W        W 3701   2.486   0.747  24.052  0.0164 -0.1415 -0.0620
 2838W        W 3702   4.177   1.106  21.477 -0.3474 -0.3380 -0.0699
 2839W        W 3703   2.567   1.939  25.302  0.1147  0.1152  0.0926
 2840W        W 3704   3.805   2.991  27.826  0.0388 -0.2097  0.2349
 2841W        W 3705   4.217   3.949  23.619 -0.2120 -0.1040 -0.2326
 2842W        W 3706   2.436   1.915  22.406  0.3051  0.0925  0.1206
 2843W        W 3707   3.159   0.451  23.337  0.0943  0.1557  0.2679
 2844W        W 3708   2.012  28.833  22.757 -0.0673  0.0273 -0.1292
 2845W        W 3709   2.394   2.303  25.614 -0.1343 -0.1397 -0.0344
 2846W        W 3710   0.545   2.377  22.414  0.1245 -0.2922 -0.3735
 2847W        W 3711   1.631   1.586  22.684 -0.2774 -0.2237 -0.1714
 2848W        W 3712  28.859   2.012  25.246  0.2783 -0.2338  0.0683
 2849W        W 3713   1.991   1.638  23.847 -0.0900  0.0758  0.0644
 2850W        W 3714   4.697   4.069  23.560  0.0525 -0.1765 -0.0643
 2851W        W 3715   2.036   0.421  25.063 -0.5176 -0.0105 -0.0426
 2852W        W 3716   4.356   1.610  23.201 -0.2306 -0.1791  0.0023
 2853W        W 3717   4.639   1.981  22.476  0.1458 -0.0217  0.0764
 2854W        W 3718   2.660   2.336  20.495  0.2329  0.3250 -0.1766
 2855W        W 3719  27.727   4.784  26.306 -0.0578 -0.0703 -0.3722
 2856W        W 3720   2.677   0.274  24.239  0.0509 -0.0404  0.0719
 2857W        W 3721  27.586   2.686  23.897 -0.0723 -0.0949 -0.1091
 2858W        W 3722   3.057   0.597  24.076 -0.2577  0.1659  0.0475
 2859W        W 3723   2.122   1.528  22.386 -0.0034 -0.0757 -0.2205
 2860W        W 3724   2.358   1.316  23.901  0.0155  0.3205 -0.1497
 2861W        W 3725   1.943   4.947  26.175  0.1460  0.1855 -0.1497
 2862W        W 3726   2.424   3.014  21.128  0.0542  0.2115 -0.2092
 2863W        W 3727   0.470   1.303  22.227 -0.0207 -0.1070  0.1183
 2864W        W 3728   0.734   4.497  24.405  0.0636 -0.1365  0.0189
 2865W        W 3729   2.566   3.434  24.751  0.1054 -0.0190  0.0401
 2866W        W 3730   1.770   3.863  25.593 -0.2057  0.0936  0.0967
 2867W        W 3731   2.727   0.087  24.750  0.0930  0.1889  0.0068
 2868W        W 3732   0.282   3.549  20.608  0.0093  0.2248 -0.1128
 2869W        W 3733   5.298   4.013  22.348 -0.0003  0.0650  0.0573
 2870W        W 3734   1.195   1.360  20.810 -0.1332 -0.0935 -0.0613
 2871W        W 3735  28.766   0.755  24.555 -0.1095  0.1895 -0.0594
 2872W        W 3736   4.719   3.911  22.323 -0.2799 -0.2988 -0.0545
 2873W        W 3737   4.260   0.103  22.361  0.1608  0.1844  0.1356
 2874W        W 3738   0.843   4.270  21.068  0.1186  0.3640  0.2316
 2875W        W 3739   1.510   0.201  26.992 -0.1062  0.0029  0.0953
 2876W        W 3740   5.133   3.941  25.276  0.2079 -0.2703  0.3315
 2877W        W 3741   0.528   1.233  26.331 -0.3618 -0.0261  0.2457
 2878W        W 3742   2.552   4.242  20.794  0.1216 -0.2519  0.0561
 2879W        W 3743   0.536   4.179  25.988 -0.0070  0.0676 -0.0488
 2880W        W 3744   0.366   4.126  22.731  0.1541 -0.0477 -0.0836
 2881W        W 3745   3.158   2.204  21.714 -0.1712 -0.1018 -0.2995
 2882W        W 3746   5.036   0.959  26.492 -0.2088  0.0353  0.4131
 2883W        W 3747   1.662   2.455  19.386 -0.1090  0.2175 -0.0839
 2884W        W 3748  28.845   2.493  22.422 -0.1643  0.1330  0.3600
 2885W        W 3749   2.431   1.769  23.709 -0.0942  0.0962 -0.1753
 2886W        W 3750  28.657   1.058  22.918  0.1595  0.1011 -0.2147
 2887W        W 3751   0.784   5.017  24.309  0.0465  0.1991 -0.1035
 2888W        W 3752   3.996   4.264  24.000 -0.1520 -0.3345  0.0397
 2889W        W 3753   2.322   0.848  22.290  0.0321 -0.2436 -0.0444
 2890W        W 3754  28.674   3.882  26.059 -0.0805 -0.1255  0.1742
 2891W        W 3755  26.987   4.574  22.789  0.2006 -0.1057 -0.3432
 2892W        W 3756   1.903   2.140  21.708 -0.1168 -0.0585 -0.1344
 2893W        W 3757   0.730   4.292  22.479 -0.0188  0.0096  0.0679
 2894W        W 3758   0.809   1.654  24.031  0.1166 -0.1734 -0.0490
 2895W        W 3759   1.246   1.337  22.773  0.1488 -0.1800  0.0670
 2896W        W 3760  28.560   4.063  23.367  0.1365  0.3361 -0.1233
 2897W        W 3761   0.544   4.237  23.554 -0.0287 -0.2599 -0.3668
 2898W        W 3762   1.707   1.666  22.091 -0.0233  0.0652  0.1399
 2899W        W 3763   6.264   3.185  25.188  0.0341 -0.0761  0.2375
 2900W        W 3764   3.165   2.992  23.588 -0.1393 -0.0026  0.1391
 2901W        W 3765   0.666   2.878  23.467 -0.1460  0.0134 -0.0712
 2902W        W 3766   2.103  29.011  21.298  0.3186 -0.0254  0.0378
 2903W        W 3767  28.938   3.928  24.079 -0.1212  0.2439 -0.1699
 2904W        W 3768  27.883   1.825  25.563  0.1035  0.1208 -0.1651
 2905W        W 3769   0.653   4.113  21.754  0.1398 -0.0191 -0.1946
 2906W        W 3770   3.523   2.590  24.788 -0.2327 -0.0056 -0.2360
 2907W        W 3771  28.735   4.117  25.030  0.0145  0.3188 -0.0036
 2908W        W 3772  27.719   4.980  24.452 -0.2545  0.0716 -0.0967
 2909W        W 3773   2.343   2.418  22.553  0.0220 -0.0952  0.3108
 2910W        W 3774   2.182  28.342  23.003  0.1139 -0.2237  0.1366
 2911W        W 3775   4.085   2.178  23.972 -0.0392  0.0317  0.0637
 2912W        W 3776   3.676   2.771  23.358 -0.1587  0.2887 -0.1825
 2913W        W 3777  26.699   4.207  22.525  0.0661 -0.1152  0.0039
 2914W        W 3778   1.400   3.828  26.065 -0.0616  0.1230 -0.2382
 2915W        W 3779   0.260   0.593  26.240 -0.1656 -0.1281 -0.0724
 2916W        W 3780   2.078   5.308  24.851  0.0864  0.0783 -0.2135
 2917W        W 3781   2.482   3.473  22.716  0.4913 -0.0531  0.1002
 2918W        W 3782   3.526   4.435  21.437 -0.0690  0.2925  0.0096
 2919W        W 3783   2.554   4.065  24.467 -0.0902 -0.5088 -0.2192
 2920W        W 3784   1.801   2.429  25.349  0.3566  0.1550  0.4071
 2921W        W 3785  27.968   1.149  22.294  0.3015 -0.0325 -0.1333
 2922W        W 3786   1.148   2.760  23.704 -0.2188 -0.0401 -0.3672
 2923W        W 3787  28.385   1.899  23.221 -0.2472 -0.2146 -0.3065
 2924W        W 3788   2.772   1.499  21.063  0.0015  0.0577 -0.1807
 2925W        W 3789   0.428   5.186  26.690 -0.0664  0.0855  0.1088
 2926W        W 3790   2.033   0.902  23.832 -0.0919 -0.2859 -0.0242
 2927W        W 3791   2.602   2.078  24.781 -0.1372 -0.0296 -0.0404
 2928W        W 3792  28.964   3.826  22.812 -0.1888  0.0620 -0.0250
 2929W        W 3793   0.798   2.491  25.161 -0.3841 -0.0019 -0.0200
 2930W        W 3794   2.115   0.717  24.466  0.3136 -0.1486  0.1097
 2931W        W 3795   2.196   0.152  23.066  0.0260  0.1231  0.0859
 2932W        W 3796   2.856   0.875  23.166 -0.1540 -0.1431 -0.3477
 2933W        W 3797   0.913   2.154  22.060 -0.3004  0.0591  0.0163
 2934W        W 3798   0.288   4.824  24.206 -0.0661 -0.0917 -0.3002
 2935W        W 3799   6.290   2.978  21.547  0.1930  0.0025  0.1877
 2936W        W 3800   0.196   0.233  26.630  0.0177 -0.3148  0.1554
 2937W        W 3801   1.634   4.762  25.403 -0.0755  0.2245 -0.2310
 2938W        W 3802  28.171   5.306  24.834  0.0378  0.2411 -0.4172
 2939W        W 3803   0.167   4.465  23.105  0.1237 -0.0634  0.1565
 2940W        W 3804   1.322   1.200  21.320  0.2975  0.2025 -0.1191
 2941W        W 3805   0.615   0.361  17.580  0.0649  0.2242 -0.1996
 2942W        W 3806   1.923   2.402  22.803 -0.0224 -0.2326 -0.3402
 2943W        W 3807   1.987   3.246  23.416  0.2811 -0.1464 -0.0161
 2944W        W 3808   1.893   1.112  26.706  0.1964 -0.0893  0.2385
 2945W        W 3809   1.913   1.966  19.239  0.0847  0.2941 -0.0810
 2946W        W 3810   4.149   2.068  24.492  0.4108  0.0917 -0.0634
 2947W        W 3811   1.767   2.716  26.224 -0.0262  0.1210 -0.2441
 2948W        W 3812   3.669   2.179  23.677  0.0463  0.1587  0.1603
 2949W        W 3813   3.519   3.965  24.694  0.1178 -0.1593  0.0889
 2950W        W 3814  28.846   4.238  22.316 -0.0174  0.0450 -0.3694
 2951W        W 3815   3.848   1.590  22.887 -0.3426  0.0859  0.2705
 2952W        W 3816   0.565   1.280  24.315  0.0465  0.0456 -0.1194
 2953W        W 3817   1.612   0.795  19.825 -0.2300 -0.2293  0.1585
 2954W        W 3818   1.098   3.011  22.492  0.3361 -0.1141 -0.0760
 2955W        W 3819   0.600   1.691  25.041 -0.2031 -0.1506  0.1770
 2956W        W 3820   2.427   0.591  22.725 -0.0181  0.0241 -0.0420
 2957W        W 3821   2.469   3.546  20.885 -0.0699  0.0385  0.3739
 2958W        W 3822   3.782   2.410  21.279  0.0254 -0.0039 -0.1326
 2959W        W 3823   0.114   4.946  27.091  0.0168  0.0453 -0.1356
 2960W        W 3824  28.779   4.239  21.147 -0.2569 -0.2052 -0.0542
 2961W        W 3825   0.993   0.853  24.126  0.2866 -0.1280 -0.1394
 2962W        W 3826   0.733   3.179  21.899 -0.0747  0.0519  0.0133
 2963W        W 3827  28.987  28.809  24.971 -0.1266  0.1502 -0.0115
 2964W        W 3828   4.078   1.159  24.343 -0.1694 -0.3009  0.0110
 2965W        W 3829   3.713   1.085  22.935  0.1126 -0.3104  0.4059
 2966W        W 3830   4.900   3.380  23.962 -0.0686  0.1378  0.1746
 2967W        W 3831   0.528   3.303  26.142  0.0488  0.1304  0.0615
 2968W        W 3832   0.694   4.648  23.915  0.2525 -0.2440  0.1118
 2969W        W 3833   2.014   1.439  22.952 -0.1865 -0.3774  0.1252
 2970W        W 3834  28.705   2.461  26.021  0.0232  0.2414  0.0811
 2971W        W 3835   3.185   2.675  26.954  0.2694 -0.5740  0.0052
 2972W        W 3836   1.732   1.832  24.231  0.0763 -0.2902 -0.2424
 2973W        W 3837  27.717   1.531  24.312  0.2449  0.0426  0.3695
 2974W        W 3838  28.497   3.892  23.818 -0.0259  0.1486  0.0929
 2975W        W 3839   4.125   2.558  25.371 -0.0748 -0.0180 -0.0680
 2976W        W 3840   2.419   1.423  23.277  0.1297 -0.1046  0.3242
 2977W        W 3841   2.351   1.234  25.897 -0.3797  0.0770 -0.1891
 2978W        W 3842   0.886   2.179  24.174 -0.1518 -0.0540 -0.0371
 2979W        W 3843   1.054   7.283  22.447  0.0085  0.2193  0.1903
 2980W        W 3844   3.872   3.656  24.491 -0.2964 -0.1907  0.0468
 2981W        W 3845   3.268   1.560  21.548 -0.0466  0.0443 -0.0459
 2982W        W 3846   2.286   2.163  23.004 -0.0017 -0.1565  0.0061
 2983W        W 3847   2.877   2.773  21.227  0.1767  0.2292  0.0735
 2984W        W 3848  28.272   3.410  20.786 -0.0383 -0.0848  0.1142
 2985W        W 3849   4.290   0.032  22.934  0.2511 -0.1512  0.0402
 2986W        W 3850   1.204   0.217  21.940  0.1876  0.2662 -0.1335
 2987W        W 3851   3.820   3.187  24.762  0.1923  0.0889 -0.1064
 2988W        W 3852   2.369   3.606  23.697  0.3195 -0.1717 -0.1069
 2989W        W 3853   1.398   0.575  27.304  0.0719 -0.1867 -0.1382
 2990W        W 3854   1.406   2.177  24.047  0.1059  0.0004 -0.0236
 2991W        W 3855   5.982   2.823  24.927  0.0479  0.0117  0.2381
 2992W        W 3856   1.960   1.197  24.202 -0.2188  0.1657  0.3159
 2993W        W 3857   0.380   3.060  25.263  0.1425  0.0163  0.1019
 2994W        W 3858   3.344   2.190  25.605  0.0583 -0.2306  0.1761
 2995W        W 3859  27.844   2.828  21.599 -0.0243 -0.1054 -0.1349
 2996W        W 3860   1.544   0.847  24.085 -0.1948  0.0355 -0.0357
 2997W        W 3861   5.951   2.604  25.392 -0.0794 -0.2851  0.2644
 2998W        W 3862   2.521   3.541  24.269 -0.1548 -0.0276 -0.0754
 2999W        W 3863   1.984   1.836  25.022  0.0847  0.1264 -0.1593
 3000W        W 3864   4.944   0.744  23.148 -0.0114  0.0311  0.0342
 3001W        W 3865   3.477   4.151  28.329 -0.1451 -0.2225  0.3444
 3002W        W 3866   2.843   2.919  26.040 -0.0035 -0.3022 -0.1734
 3003W        W 3867   3.742   2.342  22.925 -0.1525  0.1363 -0.1960
 3004W        W 3868   3.577   2.093  24.651  0.1594 -0.0348 -0.0713
 3005W        W 3869   0.961   2.799  24.234 -0.0160 -0.0777  0.0172
 3006W        W 3870   3.814   1.025  24.786  0.1392 -0.2247 -0.1447
 3007W        W 3871   2.984   4.307  24.220 -0.1735 -0.0460 -0.0751
 3008W        W 3872  28.262   2.575  25.825 -0.0098 -0.0433 -0.1336
 3009W        W 3873   3.028   2.244  25.218 -0.0399  0.0868 -0.0048
 3010W        W 3874   4.424   3.893  21.546  0.1148 -0.2094 -0.0329
 3011W        W 3875   2.316   4.233  27.301 -0.1261 -0.3288  0.5361
 3012W        W 3876  28.173   4.989  20.212  0.3112  0.1396 -0.4426
 3013W        W 3877  27.843   0.696  22.550 -0.1279 -0.0167 -0.0183
 3014W        W 3878  28.159   6.689   0.563  0.0208  0.4019  0.2712
 3015W        W 3879   0.369   2.058   1.101  0.3291 -0.1798  0.1112
 3016W        W 3880   3.274   4.322  26.204  0.0401 -0.0553  0.1437
 3017W        W 3881   3.240   5.693  26.955  0.0202 -0.0207  0.0456
 3018W        W 3882  28.126   5.038  26.469 -0.0878  0.0938 -0.0265
 3019W        W 3883   2.857   2.206  26.730 -0.0050 -0.1893  0.0386
 3020W        W 3884   1.915   2.667  26.988  0.0227 -0.1973  0.2033
 3021W        W 3885   2.405   1.637  27.460 -0.2588  0.0887  0.1121
 3022W        W 3886   0.027   0.635  29.044 -0.3182  0.1264  0.4176
 3023W        W 3887  28.094  28.800  28.630  0.1200  0.3484 -0.0971
 3024W        W 3888   0.278   1.575  28.785 -0.0957 -0.0758  0.0182
 3025W        W 3889   1.948  28.165  28.500  0.0111  0.6512  0.1547
 3026W        W 3890   3.403   3.272  27.685  0.0331  0.1899 -0.0173
 3027W        W 3891   3.704   1.399  27.152  0.0835  0.2816 -0.1923
 3028W        W 3892  28.272   0.801   0.301 -0.2612 -0.1314  0.1402
 3029W        W 3893  28.878   2.880   0.945 -0.2668  0.0874 -0.4310
 3030W        W 3894   3.191   1.226  26.345  0.1101  0.0879  0.0507
 3031W        W 3895  27.670   1.443  28.365  0.1327 -0.0816 -0.0738
 3032W        W 3896  28.412   1.879   2.773 -0.0196  0.1251  0.0495
 3033W        W 3897   3.696  28.880  27.397  0.2800  0.1940 -0.0402
 3034W        W 3898   0.917   1.615  27.866 -0.0438 -0.0537 -0.0607
 3035W        W 3899   2.609   0.661  24.806 -0.1167 -0.0119  0.6280
 3036W        W 3900   0.355   2.147  26.435  0.2369  0.1112 -0.0130
 3037W        W 3901   1.938   2.286  25.898  0.1595 -0.2676 -0.0254
 3038W        W 3902   0.262   0.767  26.703 -0.2551 -0.4284  0.0622
 3039W        W 3903   3.560   4.880  28.747  0.5890 -0.1396  0.1948
 3040W        W 3904   5.041   2.820   3.035 -0.1510  0.0358  0.0027
 3041W        W 3905  28.822   1.739  28.075  0.1043 -0.0201  0.1687
 3042W        W 3906  28.416   1.767  27.311 -0.0580  0.2259 -0.1967
 3043W        W 3907  29.142   2.724  29.133 -0.0722 -0.3477  0.1306
 3044W        W 3908   4.205   2.419  28.947  0.1114  0.1858 -0.0421
 3045W        W 3909  28.701   2.345   1.998 -0.3586  0.1497 -0.0794
 3046W        W 3910  29.138  28.505   0.787  0.0572 -0.2202 -0.2025
 3047W        W 3911   3.248   2.703  25.856  0.0405 -0.0330  0.0838
 3048W        W 3912   1.687   3.165  27.243  0.0505  0.0676 -0.1626
 3049W        W 3913   5.085   0.062  28.764 -0.0627  0.1290  0.0122
 3050W        W 3914   2.810   1.189  26.695 -0.0828 -0.0970  0.0369
 3051W        W 3915   0.427   5.047  28.380  0.1435  0.0762  0.2026
 3052W        W 3916   4.614   3.232  26.400  0.0343  0.1341  0.1959
 3053W        W 3917   4.497   1.464  25.667 -0.2538 -0.0610  0.0189
 3054W        W 3918   5.062   2.168  24.759  0.0780  0.1230 -0.0902
 3055W        W 3919   3.639  28.644  28.569  0.1501 -0.1316 -0.2227
 3056W        W 3920   2.629   2.895  25.507  0.2997 -0.2982 -0.1349
 3057W        W 3921   2.013   4.512  25.203  0.1454 -0.2312  0.0737
 3058W        W 3922   1.393   7.672  26.328  0.0013 -0.0282 -0.4703
 3059W        W 3923   1.519   3.924  26.549  0.2743  0.0474 -0.0664
 3060W        W 3924   2.681  28.177  28.901  0.0411  0.2312 -0.4479
 3061W        W 3925   5.336   0.471  26.519 -0.0837 -0.0448  0.2742
 3062W        W 3926   3.667   1.389  24.521  0.0351 -0.1190 -0.3340
 3063W        W 3927   4.199   2.756  23.913  0.1795  0.3049 -0.0700
 3064W        W 3928   5.839   2.433  26.846 -0.1586 -0.1185 -0.2512
 3065W        W 3929   1.984   1.934  26.910  0.0120  0.4078  0.0490
 3066W        W 3930   3.058   3.949  28.357  0.3447 -0.3446  0.0288
 3067W        W 3931   5.717  28.652  26.175  0.1351 -0.0118 -0.1220
 3068W        W 3932   3.211   0.865  25.487 -0.4049 -0.0443  0.1765
 3069W        W 3933  28.286   6.010  26.450  0.3199  0.1339  0.0128
 3070W        W 3934   1.564  28.498  27.467  0.3125  0.0019  0.1629
 3071W        W 3935   2.192   3.208  24.510 -0.0093  0.1511  0.1564
 3072W        W 3936   0.130   3.996  27.402  0.1515  0.0966 -0.2001
 3073W        W 3937  28.562   1.948  26.294  0.0131 -0.1392  0.0633
 3074W        W 3938   3.946   2.111  25.596  0.3105 -0.0616  0.3230
 3075W        W 3939  27.565   2.182   0.614 -0.2390 -0.3403  0.3572
 3076W        W 3940   2.679   3.444   0.825  0.1335  0.2673  0.0966
 3077W        W 3941   0.494   2.211  25.900 -0.2756  0.1604  0.1614
 3078W        W 3942   0.795   2.612   0.353 -0.1773 -0.1110  0.0152
 3079W        W 3943   3.558   2.380  26.103 -0.0617 -0.0349  0.2371
 3080W        W 3944  28.754   1.887  25.682 -0.1257 -0.3177  0.0818
 3081W        W 3945   2.891   1.652  26.592 -0.3253 -0.0019 -0.2599
 3082W        W 3946   1.585   1.525  25.456  0.0923  0.1659 -0.2429
 3083W        W 3947   1.478   2.369  28.838  0.1180 -0.0495 -0.0312
 3084W        W 3948   4.742   3.324  28.946 -0.1062 -0.2300 -0.4435
 3085W        W 3949  28.002   4.386  26.368 -0.1938 -0.3974  0.2658
 3086W        W 3950  28.685   6.234  27.440 -0.0098 -0.2260 -0.0648
 3087W        W 3951   5.981   0.713  27.547  0.1851 -0.1391  0.0416
 3088W        W 3952   1.997   5.065  25.293 -0.2290 -0.0906 -0.1334
 3089W        W 3953   2.596   2.951  27.548  0.3033 -0.3040 -0.0884
 3090W        W 3954   1.649   1.530  26.106 -0.1356 -0.0187  0.1898
 3091W        W 3955   0.641   2.093   0.299 -0.1259 -0.1293 -0.0577
 3092W        W 3956   2.729   1.833  27.120 -0.0994 -0.0545  0.2224
 3093W        W 3957   2.864   2.481  25.596 -0.0058  0.1273  0.1921
 3094W        W 3958   2.606   1.306  28.902 -0.1586  0.3625  0.0673
 3095W        W 3959   1.815   3.108   0.593 -0.1404 -0.2145 -0.1495
 3096W        W 3960   3.368   1.217  25.772  0.1711  0.1535 -0.2189
 3097W        W 3961   4.174   1.113  26.940  0.2643  0.0086  0.2734
 3098W        W 3962   2.540   0.734   1.086 -0.0073 -0.3431  0.0029
 3099W        W 3963   3.552   2.046  27.703 -0.1652 -0.1134 -0.1789
 3100W        W 3964   1.843   4.304   1.537  0.1756 -0.0807 -0.1875
 3101W        W 3965   1.769   0.761   0.633 -0.4688 -0.1390 -0.3501
 3102W        W 3966   3.170   1.291   0.447  0.1492  0.0256  0.0410
 3103W        W 3967   4.006   0.632   1.033 -0.0153  0.1128  0.0749
 3104W        W 3968   2.891  27.581  26.666  0.5549  0.1007 -0.1196
 3105W        W 3969   3.782   0.259  29.007  0.1511  0.2494 -0.2497
 3106W        W 3970   1.006   3.622   0.533  0.0898  0.2090 -0.0455
 3107W        W 3971   2.881   1.366  25.743 -0.1847  0.2792 -0.2109
 3108W        W 3972   1.141  28.530  28.672 -0.4605 -0.3697 -0.3561
 3109W        W 3973   2.443   2.255  26.153 -0.0316 -0.1352 -0.2538
 3110W        W 3974   2.785   3.602  23.502  0.0334 -0.0450  0.0519
 3111W        W 3975   1.890   3.761   0.859  0.0346 -0.0374  0.1345
 3112W        W 3976   0.926   0.217  26.184  0.0195 -0.2681 -0.1000
 3113W        W 3977   3.218   0.889  25.001 -0.0071 -0.1974  0.2141
 3114W        W 3978   4.784   3.877  24.039  0.0251 -0.1046 -0.0662
 3115W        W 3979   1.661   1.943  29.042 -0.0239  0.2573 -0.1928
 3116W        W 3980   2.943   3.208  24.507 -0.1692 -0.0526 -0.2346
 3117W        W 3981   4.567   3.215  25.799 -0.1073 -0.3140  0.0133
 3118W        W 3982   3.059   1.069  27.837  0.1526  0.2036 -0.0622
 3119W        W 3983  28.527  28.418  27.604  0.0072  0.1035 -0.1406
 3120W        W 3984   2.076   1.430  25.271 -0.0271 -0.2133 -0.1171
 3121W        W 3985   2.249   0.193  27.597  0.3620  0.0704 -0.1813
 3122W        W 3986   1.610   0.145  24.866 -0.0524 -0.0702 -0.2953
 3123W        W 3987   2.417   2.202  26.978  0.2706  0.0054 -0.0366
 3124W        W 3988   1.134   2.696  28.646 -0.1747 -0.0493  0.2163
 3125W        W 3989   2.028   2.325  26.495 -0.0557 -0.0807 -0.2396
 3126W        W 3990   4.200   1.711  25.359 -0.2714  0.2129  0.2218
 3127W        W 3991   0.900   4.548  28.531  0.2483  0.0261  0.1245
 3128W        W 3992   4.034   2.265  23.350 -0.0243 -0.0104 -0.3484
 3129W        W 3993   0.445   2.828  27.520 -0.0086 -0.2434 -0.2884
 3130W        W 3994   6.404   1.267  28.869 -0.0815  0.0985 -0.2747
 3131W        W 3995   1.105   1.308  27.549  0.1221  0.1206  0.2492
 3132W        W 3996   0.868   0.847  28.829  0.0389 -0.1426  0.1389
 3133W        W 3997   1.605   2.214  26.240 -0.1565  0.2960  0.2709
 3134W        W 3998   2.608   3.411  25.372 -0.0088  0.2107  0.2634
 3135W        W 3999   2.947   3.068  28.573 -0.0924 -0.0038  0.2831
 3136W        W 4000   1.206   2.136  27.069 -0.1994 -0.0232 -0.0944
 3137W        W 4001   1.616   3.688  24.259  0.1060 -0.0470  0.1910
 3138W        W 4002   1.344   1.212  26.283 -0.0252  0.1006 -0.1480
 3139W        W 4003   0.821   2.181  27.577  0.0298 -0.1394  0.0811
 3140W        W 4004   0.115   1.376  27.867 -0.1907 -0.0780  0.1821
 3141W        W 4005   4.705   0.697  27.746  0.3813 -0.0987  0.0127
 3142W        W 4006   5.463   1.970  28.270  0.1097  0.1359  0.0105
 3143W        W 4007   2.147   2.632  28.911  0.3918  0.0105 -0.2508
 3144W        W 4008   2.937   3.080   0.933  0.0247  0.0373  0.0441
 3145W        W 4009   2.193   0.412  28.885 -0.1878 -0.0738  0.2248
 3146W        W 4010   2.187   2.620   0.390  0.1632  0.1136  0.2801
 3147W        W 4011   4.287   0.827   0.642  0.0375  0.1339 -0.1288
 3148W        W 4012   3.058   1.903  27.611 -0.2210  0.1682 -0.1758
 3149W        W 4013   1.418   0.847  26.877 -0.0466  0.0649  0.1186
 3150W        W 4014   0.642   4.089  24.633 -0.2363 -0.0678 -0.0995
 3151W        W 4015   2.994   1.151  28.619 -0.0824 -0.1364  0.2119
 3152W        W 4016   3.922   3.222  26.547  0.0373  0.3985  0.2684
 3153W        W 4017   1.716   4.052  24.657 -0.0287  0.0648  0.1328
 3154W        W 4018   0.561   1.216  26.892 -0.3755  0.1986 -0.1867
 3155W        W 4019   1.414   2.958   0.861 -0.2144 -0.2812  0.1884
 3156W        W 4020   0.657   6.982  27.741 -0.0756  0.2030 -0.2396
 3157W        W 4021   0.174   2.504  26.134 -0.1135  0.1348  0.1150
 3158W        W 4022  28.579   4.056  28.666 -0.2347 -0.3048  0.1016
 3159W        W 4023   2.932  27.121  28.117  0.5162  0.1103  0.0873
 3160W        W 4024   2.970  28.492  26.658  0.0361 -0.1547 -0.0999
 3161W        W 4025   0.552   3.913  28.254 -0.0302 -0.0547  0.3337
 3162W        W 4026   3.211   6.413   0.343  0.4574  0.0509 -0.0526
 3163W        W 4027   0.949   3.149   0.216  0.0315  0.0266  0.0784
 3164W        W 4028   1.553   2.528  26.619  0.1351  0.0325 -0.0142
 3165W        W 4029   3.501  28.701  25.844 -0.3310  0.0514 -0.1822
 3166W        W 4030   0.068   2.874   1.422 -0.1113 -0.3462 -0.1186
 3167W        W 4031   3.391   1.459  22.722  0.1207  0.1586  0.0463
 3168W        W 4032   0.672  27.760  26.134 -0.0259  0.2347  0.0710
 3169W        W 4033   3.260   2.349   1.290  0.0031 -0.1041 -0.2772
 3170W        W 4034  27.845   1.788  27.988 -0.0792 -0.0312  0.0140
 3171W        W 4035   4.005   2.429  24.858  0.0657 -0.1162 -0.2338
 3172W        W 4036  27.066   2.055  25.342 -0.1197  0.1033  0.3735
 3173W        W 4037   3.675  29.101  26.071 -0.0807  0.0698 -0.0791
 3174W        W 4038   4.333   1.864  27.179 -0.0596  0.0075 -0.1239
 3175W        W 4039   0.584   2.471  26.776  0.4983 -0.0275 -0.1656
 3176W        W 4040   2.455   2.906   0.750 -0.2994 -0.1141 -0.1535
 3177W        W 4041   1.462   1.691   0.284 -0.0521  0.0278  0.1550
 3178W        W 4042   4.223   1.357   0.708  0.1398  0.0730 -0.0366
 3179W        W 4043  27.433   0.380  28.432  0.1895  0.1323 -0.0200
 3180W        W 4044   2.305   1.434   0.109  0.0248 -0.0059 -0.0364
 3181W        W 4045   0.790   7.101  25.428 -0.2143 -0.2156 -0.1572
 3182W        W 4046   2.977   2.664  27.500 -0.1913  0.1206 -0.4067
 3183W        W 4047  28.913   5.897  26.487  0.1214  0.0413  0.1303
 3184W        W 4048   1.750   3.026  25.033  0.3636 -0.3824  0.1701
 3185W        W 4049   4.789   0.969  25.451 -0.3169 -0.1410  0.2441
 3186W        W 4050   3.962   1.426  25.727  0.1375 -0.1954  0.0085
 3187W        W 4051  28.953   3.982  27.779 -0.0460 -0.2056 -0.0176
 3188W        W 4052   0.449   2.589  25.434  0.1180  0.1269 -0.0774
 3189W        W 4053   2.776   1.615  24.189 -0.1903 -0.0192  0.1304
 3190W        W 4054  29.139   3.051  28.278 -0.0441 -0.0821  0.0843
 3191W        W 4055  28.914   4.001  26.528  0.1777  0.3245  0.1204
 3192W        W 4056  28.069   2.587  27.452  0.3178  0.0986 -0.0043
 3193W        W 4057   0.638   2.632  28.604 -0.1524 -0.1056 -0.1145
 3194W        W 4058   2.261   2.769  26.159  0.0476  0.2148  0.1614
 3195W        W 4059   4.072   3.281  25.178 -0.2480  0.2280 -0.0447
 3196W        W 4060   5.558   0.596  25.726 -0.3297  0.0520 -0.0892
 3197W        W 4061   1.674   3.044  26.780 -0.0821 -0.3187 -0.1877
 3198W        W 4062   1.124   0.828  22.091  0.0392 -0.1723 -0.1822
 3199W        W 4063   1.940   2.474   1.526  0.0406 -0.3176  0.0494
 3200W        W 4064   2.847   1.152  23.927  0.0443  0.1720 -0.3241
 3201W        W 4065  29.026   0.930  27.034  0.0977  0.4694  0.0253
 3202W        W 4066   3.390   3.920  28.792 -0.3824 -0.0725  0.1330
 3203W        W 4067   2.725   1.197  28.169  0.1181 -0.1536 -0.0345
 3204W        W 4068  28.449   2.958  27.341  0.1272 -0.0263 -0.4008
 3205W        W 4069  28.694   5.114  27.210 -0.0953  0.1280  0.2490
 3206W        W 4070   0.271  29.110  28.353  0.0150  0.0694  0.1486
 3207W        W 4071   1.272   0.750  28.582 -0.0446 -0.0807 -0.1004
 3208W        W 4072   4.480   0.914  26.340 -0.1300 -0.1281 -0.1942
 3209W        W 4073   1.717  26.788  28.379  0.0199 -0.0299 -0.1178
 3210W        W 4074   2.634  27.326  26.312  0.0792 -0.0039 -0.0230
 3211W        W 4075   3.160   0.828  25.965 -0.1648  0.0169 -0.0655
 3212W        W 4076   0.599   2.199  24.841 -0.2016 -0.0469 -0.2145
 3213W        W 4077   2.668  29.102  27.560 -0.2561  0.0016  0.0926
 3214W        W 4078   1.549   2.035  24.637  0.1174 -0.0578  0.2100
 3215W        W 4079   3.043   1.609  28.870  0.0658  0.1780  0.1958
 3216W        W 4080   5.467   2.157  24.535  0.1484 -0.1232  0.1278
 3217W        W 4081   2.443   1.529  26.870 -0.0533 -0.0038  0.0875
 3218W        W 4082   1.533   1.226   0.437  0.1359 -0.1122  0.1402
 3219W        W 4083   1.689   0.169  25.366  0.2056 -0.2466  0.1032
 3220W        W 4084   1.336   2.820  25.445  0.1377 -0.2012  0.1955
 3221W        W 4085   1.221   2.324  25.424  0.1511  0.1541 -0.2804
 3222W        W 4086   1.692   3.224  28.958 -0.1869 -0.0158  0.0516
 3223W        W 4087  28.715   4.437  25.924 -0.3011  0.4920  0.0215
 3224W        W 4088   2.959   2.426  26.145 -0.0765  0.1258 -0.2160
 3225W        W 4089  28.803   3.504  26.605 -0.2076  0.0632 -0.0120
 3226W        W 4090   3.061   1.078  29.072 -0.1230  0.1188 -0.1869
 3227W        W 4091   3.271   1.322  28.205  0.0176 -0.0485  0.1720
 3228W        W 4092   5.735   4.806   0.189 -0.4953  0.1834  0.0563
 3229W        W 4093   3.088   2.780  24.662 -0.0703  0.0586  0.1220
 3230W        W 4094   0.628   2.531  24.443 -0.1421  0.0191 -0.1695
 3231W        W 4095   3.596   3.581  25.006  0.2056  0.2040 -0.2027
 3232W        W 4096   2.598   2.848  28.819  0.2316 -0.2847  0.0326
 3233W        W 4097   1.188   2.042   0.080 -0.0448  0.0889 -0.2428
 3234W        W 4098   5.529   0.756   2.383 -0.3466  0.0219 -0.2204
 3235W        W 4099   3.146   1.454  26.990  0.1750  0.0926 -0.1659
 3236W        W 4100   0.144   3.620   0.068 -0.1643 -0.0388 -0.0386
 3237W        W 4101   2.541   1.276  25.392  0.0765  0.0715 -0.0950
 3238W        W 4102   3.738   1.825  23.300 -0.1575 -0.1124 -0.1068
 3239W        W 4103  27.758  28.937   0.835 -0.0182  0.1340 -0.3144
 3240W        W 4104   0.009   2.094  27.768  0.0197  0.3726 -0.1339
 3241W        W 4105   4.390   1.276  28.805 -0.1825  0.1237  0.1524
 3242W        W 4106   1.409   5.949  25.164  0.1663 -0.2040  0.4085
 3243W        W 4107   1.748   2.840   0.121  0.0668  0.3872  0.4111
 3244W        W 4108   1.628   2.027  27.707  0.1187 -0.2049  0.2098
 3245W        W 4109   0.608   3.130   1.213 -0.0281  0.0292  0.1988
 3246W        W 4110   0.034   3.375  26.204  0.0510 -0.0929  0.0040
 3247W        W 4111   0.886   2.953  25.372  0.0974 -0.3204  0.2874
 3248W        W 4112   1.251   2.539  28.151  0.1313  0.0830 -0.0116
 3249W        W 4113   2.385   3.604   0.012 -0.2665 -0.0431  0.1621
 3250W        W 4114   5.005   2.961  25.927 -0.1096  0.0780  0.0970
 3251W        W 4115   2.589   0.344  28.580 -0.0907 -0.2767 -0.0999
 3252W        W 4116   2.365   2.147  28.386 -0.2249 -0.4481 -0.0389
 3253W        W 4117   3.248   5.557  28.783  0.1413  0.3088 -0.0951
 3254W        W 4118   0.922   3.652  27.972 -0.0187  0.2058  0.1248
 3255W        W 4119   0.653   2.786   2.131  0.0113 -0.1488 -0.0501
 3256W        W 4120   0.503   3.225  26.975 -0.0470 -0.1579 -0.2736
 3257W        W 4121   2.618   3.395  27.837 -0.0960  0.3453  0.2619
 3258W        W 4122   5.008   0.015  26.477  0.0853  0.0215 -0.4030
 3259W        W 4123   1.207   3.083  27.028 -0.3749  0.3285  0.1963
 3260W        W 4124   3.856   2.609  26.469  0.1214  0.0714  0.0024
 3261W        W 4125  29.142   4.405  27.917  0.0016  0.2720  0.1542
 3262W        W 4126   3.917   4.927  25.227  0.2433 -0.2004  0.1090
 3263W        W 4127   2.007   1.914  25.482  0.1642  0.1682  0.1324
 3264W        W 4128   2.394   1.899  26.542 -0.0374  0.3776 -0.1081
 3265W        W 4129   4.040   4.468  26.538  0.3120  0.2887 -0.1307
 3266W        W 4130   0.436   3.134  28.560  0.4003 -0.2764 -0.1419
 3267W        W 4131   1.131   2.029  28.028 -0.1826  0.2392  0.1584
 3268W        W 4132   0.030   1.135  26.296 -0.1297 -0.4324 -0.0517
 3269W        W 4133   1.662   2.777  28.670 -0.0561  0.0007  0.2309
 3270W        W 4134   3.709   0.037  25.572  0.0177 -0.1455  0.0718
 3271W        W 4135   0.557   0.601  29.091  0.0118 -0.1991 -0.0365
 3272W        W 4136   4.213   5.504  27.508  0.0737  0.0869 -0.0393
 3273W        W 4137   3.005   2.113  28.567  0.3813 -0.1166 -0.0759
 3274W        W 4138   1.329   2.437  27.602 -0.0038  0.1308  0.2968
 3275W        W 4139   4.056   2.684  26.979  0.0998  0.2151  0.2636
 3276W        W 4140   3.669   6.211  29.114 -0.0919  0.0909  0.0064
 3277W        W 4141   2.405  28.886  27.957 -0.0102  0.0095  0.0552
 3278W        W 4142   1.276   3.173  28.562  0.1404 -0.0158 -0.2473
 3279W        W 4143  28.063   1.645  28.915 -0.2073 -0.2335  0.1045
 3280W        W 4144   1.149   2.412  24.551  0.1972 -0.0595  0.0900
 3281W        W 4145   4.528   4.446  26.390 -0.0809  0.0581  0.0984
 3282W        W 4146   0.446   1.434   0.240  0.1740  0.1119 -0.1340
 3283W        W 4147   5.214   0.110  26.960  0.1868 -0.1062 -0.1592
 3284W        W 4148   1.457   1.258  27.177  0.2826 -0.0684 -0.0333
 3285W        W 4149   3.436   1.074  26.828 -0.1538  0.2700 -0.0253
 3286W        W 4150   3.512  28.106  27.042 -0.0303  0.1519  0.0783
 3287W        W 4151   0.222   3.877   0.522  0.2265 -0.2230 -0.1468
 3288W        W 4152   1.515   4.413  27.418  0.0746  0.1046  0.0466
 3289W        W 4153   1.787  29.105  27.501 -0.1854  0.3146 -0.0236
 3290W        W 4154   1.288   0.152  27.506  0.4379  0.1033  0.3550
 3291W        W 4155   0.842   2.709  27.798  0.0152  0.2072 -0.0624
 3292W        W 4156   3.050   2.887  24.044 -0.2525 -0.0662  0.0146
 3293W        W 4157  28.502   1.813   1.262 -0.0842  0.1974  0.2390
 3294W        W 4158   2.268   2.485   0.950 -0.0674  0.4810 -0.1490
 3295W        W 4159   2.065   1.251  27.503 -0.1737 -0.6541  0.1025
 3296W        W 4160   0.468   0.794  27.155 -0.6999  0.1699 -0.0143
 3297W        W 4161   0.524   4.742  28.784 -0.1856  0.0473  0.1782
 3298W        W 4162   2.938   3.191  27.326 -0.2536 -0.0676 -0.1985
 3299W        W 4163   5.864   1.012  27.104  0.0350  0.1888 -0.4145
 3300W        W 4164   3.739   4.424  28.017 -0.1995  0.1552  0.1115
 3301W        W 4165  28.190   1.268   0.499  0.2185  0.0405  0.0132
 3302W        W 4166   2.122   0.326  25.541  0.4276  0.1933 -0.2613
 3303W        W 4167   4.367   1.287  25.150 -0.0722 -0.2306 -0.0849
 3304W        W 4168   2.610   1.577  26.178 -0.0438  0.1062 -0.1062
 3305W        W 4169   3.442  28.953  27.831  0.0352 -0.2905  0.1241
 3306W        W 4170   6.014   0.860  28.067 -0.1973 -0.2361  0.1785
 3307W        W 4171   0.991   0.038  26.976  0.0389  0.0119  0.1525
 3308W        W 4172   0.223   3.343   1.512  0.2593  0.0376 -0.1227
 3309W        W 4173  29.125   2.762  25.477 -0.0047 -0.0760 -0.0851
 3310W        W 4174   0.729   1.272  28.966  0.1299 -0.0910  0.3678
 3311W        W 4175   3.859   1.101   0.963  0.2816 -0.0937  0.1491
 3312W        W 4176   3.462  27.932  27.725 -0.1940  0.0159 -0.0128
 3313W        W 4177   1.200   5.598  26.139  0.2442 -0.2940 -0.0804
 3314W        W 4178   0.442   5.705  28.426 -0.1132  0.2851  0.1844
 3315W        W 4179   0.027   0.674   1.368  0.0528 -0.3272 -0.0482
 3316W        W 4180   3.243   2.549  28.772 -0.1434  0.2876 -0.1201
 3317W        W 4181   4.851   2.105  26.207 -0.2458  0.1384  0.1756
 3318W        W 4182   3.896   1.744  27.542  0.2557  0.1697 -0.2156
 3319W        W 4183   4.315   3.566   0.293 -0.2812 -0.3325  0.0795
 3320W        W 4184   3.213   1.797  28.117 -0.2227  0.1454  0.2303
 3321W        W 4185   1.019   0.358  28.802  0.0583  0.1889  0.1267
 3322W        W 4186   4.842   1.993  26.890  0.0555  0.0882  0.1973
 3323W        W 4187  28.738   4.204  28.151 -0.0365  0.0470  0.0318
 3324W        W 4188   1.858   0.460  27.428  0.2701  0.0066 -0.0182
 3325W        W 4189   1.806   4.033  27.035  0.2222 -0.0806 -0.1528
 3326W        W 4190   3.085  27.940  27.212 -0.1324 -0.1218 -0.1156
 3327W        W 4191   4.371   3.686  28.805 -0.3988  0.4493 -0.0090
 3328W        W 4192   1.162   1.636  27.027 -0.2585 -0.0234 -0.1240
 3329W        W 4193  27.936   0.210   1.281 -0.1825  0.0663 -0.2951
 3330W        W 4194   0.169   3.237  24.751 -0.1609  0.1405 -0.1481
 3331W        W 4195   4.712   1.010  24.211 -0.2544  0.0760  0.3999
 3332W        W 4196   4.866   4.421   0.200 -0.0713 -0.4695  0.3620
 3333W        W 4197   3.641   1.406  26.134  0.2152 -0.1098 -0.2113
 3334W        W 4198   0.307   2.567   0.403 -0.0923 -0.1602  0.0860
 3335W        W 4199   3.786   3.679  23.425  0.0158  0.3720  0.1562
 3336W        W 4200   1.100   3.788   2.378 -0.1686  0.0661 -0.0221
 3337W        W 4201   3.066   3.502  28.703 -0.3076  0.1396  0.0765
 3338W        W 4202  28.133   6.668  26.866 -0.1935  0.1476 -0.1199
 3339W        W 4203   1.329   5.284  28.507  0.3419  0.4418  0.2240
 3340W        W 4204   1.379   3.530  27.970 -0.0570  0.0624  0.2357
 3341W        W 4205  28.928   6.625  27.652  0.0249 -0.0818  0.0965
 3342W        W 4206   3.328   1.962  26.809 -0.0512  0.0154  0.3432
 3343W        W 4207   1.512   0.225  26.270  0.0000  0.4765  0.1958
 3344W        W 4208   3.070   2.252  27.181  0.2334  0.2094 -0.1448
 3345W        W 4209   1.635   2.609  23.703  0.1144  0.1184  0.2689
 3346W        W 4210   2.612   2.181  27.438 -0.1807  0.1321  0.2558
 3347W        W 4211   2.625   4.317   1.127  0.1632  0.2343  0.0402
 3348W        W 4212   0.970   2.091  28.541 -0.3128 -0.0759  0.3653
 3349W        W 4213   1.954   2.850   0.993 -0.2263 -0.0192  0.0204
 3350W        W 4214   1.327   2.907  29.062  0.1767  0.0417 -0.0126
 3351W        W 4215   2.937   4.892  25.482 -0.0838  0.2667 -0.0098
 3352W        W 4216   0.488   1.874  27.833  0.2764  0.2482 -0.0123
 3353W        W 4217   2.420  28.861  24.638 -0.1506 -0.2787  0.2015
 3354W        W 4218   1.227   3.411  27.428  0.3657  0.0495  0.0024
 3355W        W 4219   2.115   0.622   1.851  0.2390 -0.3482  0.2470
 3356W        W 4220   0.117   1.853  28.209  0.1188  0.0086 -0.4108
 3357W        W 4221   0.740   5.608  25.814 -0.2554  0.1013 -0.0179
 3358W        W 4222   0.908   3.528  27.067  0.0869  0.0932  0.2118
 3359W        W 4223   0.198   2.975   0.961  0.0293 -0.0059  0.0835
 3360W        W 4224   1.180   2.484  26.191 -0.1879  0.0776 -0.1737
 3361W        W 4225   2.401   1.775  25.751  0.0130  0.2653 -0.0549
 3362W        W 4226  29.141   2.748  27.439 -0.0916  0.1303 -0.0546
 3363W        W 4227  28.023   1.317  27.448  0.0777  0.1554  0.4361
 3364W        W 4228   5.702  29.141  28.021  0.2785 -0.2264 -0.1402
 3365W        W 4229   0.400   0.591  25.311 -0.0010 -0.2442 -0.2504
 3366W        W 4230   3.074   2.274  24.609 -0.1457 -0.0097 -0.0150
 3367W        W 4231  28.060   2.691  28.874 -0.1138 -0.3656 -0.2439
 3368W        W 4232   0.770   2.329  28.169 -0.0627 -0.2215  0.0643
 3369W        W 4233   2.396   2.720  23.892  0.1242  0.0823  0.2843
 3370W        W 4234  26.862   1.592   0.396 -0.0460  0.3155  0.2680
 3371W        W 4235   5.403   1.108  28.888  0.0285  0.0319  0.1441
 3372W        W 4236   2.006   2.184  28.751  0.2786 -0.1619  0.0398
 3373W        W 4237  27.735   2.981  25.720  0.5313  0.1358  0.1636
 3374W        W 4238   1.574   0.739  26.432  0.0010  0.0035  0.0464
 3375W        W 4239   3.542   2.689   0.446 -0.0827  0.3723  0.0766
 3376W        W 4240   1.158   6.887  25.227 -0.0379 -0.2783 -0.2634
 3377W        W 4241   4.699   1.592  24.299  0.1625 -0.1048  0.0344
 3378W        W 4242   4.005   1.700  26.788 -0.0365 -0.0815  0.1205
 3379W        W 4243   2.175   3.082  27.292  0.1481 -0.2740 -0.0743
 3380W        W 4244   2.302   4.031  26.407  0.0309 -0.1959 -0.0125
 3381W        W 4245   5.253   1.869  25.954 -0.0460  0.1141  0.1636
 3382W        W 4246   5.836   1.148  24.854  0.1983 -0.3124 -0.2021
 3383W        W 4247   2.856   0.403  27.324 -0.1338  0.1300 -0.1503
 3384W        W 4248  27.672   1.507  26.137  0.1170 -0.0214 -0.0122
 3385W        W 4249   5.542   1.992  24.002  0.0926 -0.3613 -0.0082
 3386W        W 4250   5.422   1.392  26.565  0.0236  0.0778  0.1405
 3387W        W 4251   5.096   0.639  28.986  0.0277  0.0206 -0.1869
 3388W        W 4252   3.339   3.908  26.449 -0.0423 -0.0243  0.3058
 3389W        W 4253  28.719   2.012  29.092 -0.0890  0.0195  0.0457
 3390W        W 4254  28.858   3.335   0.160 -0.3150  0.0896  0.2183
 3391W        W 4255   3.593   2.905  26.793 -0.0474  0.1482 -0.1631
 3392W        W 4256   2.675  29.086   1.793 -0.2202  0.1179  0.5329
 3393W        W 4257  28.401   2.832  26.277 -0.0567 -0.1046  0.0173
 3394W        W 4258  28.185   2.126   0.023 -0.3862 -0.0668 -0.1850
 3395W        W 4259   0.288   2.398  27.270 -0.0629  0.1540  0.2362
 3396W        W 4260   3.020   0.804  26.970 -0.2369 -0.0204 -0.0972
 3397W        W 4261   1.236   2.802   0.397  0.3505 -0.0756 -0.1257
 3398W        W 4262   3.191   2.724  25.312 -0.2702 -0.0254 -0.1851
 3399W        W 4263   4.235   2.693  28.495 -0.0511 -0.0626  0.1555
 3400W        W 4264   1.304   3.680  28.564  0.2435 -0.0137 -0.2999
 3401W        W 4265  28.309   0.003   0.788  0.0202  0.1749 -0.0472
 3402W        W 4266  27.135   5.527  26.170 -0.0183 -0.0618  0.2976
 3403W        W 4267   4.009   3.836  25.873 -0.0271  0.1814  0.2706
 3404W        W 4268   2.558   2.009   3.282  0.1728 -0.0613  0.0659
 3405W        W 4269   0.016   4.020  28.232  0.0980 -0.1124  0.0470
 3406W        W 4270   3.539   3.226  25.438 -0.0233  0.1381  0.0571
 3407W        W 4271   4.630   3.438  27.319  0.1227 -0.0589 -0.0784
 3408W        W 4272   1.703   3.443  28.364 -0.2958 -0.1972  0.1581
 3409W        W 4273  27.065   0.224   2.393 -0.3246 -0.0883 -0.3316
 3410W        W 4274   1.974   3.702  25.165 -0.0090 -0.0690  0.3109
 3411W        W 4275   4.070   2.343  28.201 -0.2219  0.1352  0.1523
 3412W        W 4276   0.713   5.567  24.454 -0.4348 -0.0670  0.0880
 3413W        W 4277  27.585   4.781  25.347  0.1730 -0.0634 -0.1962
 3414W        W 4278  28.967   2.672   4.035  0.1174  0.3686 -0.4045
 3415W        W 4279   0.670   5.104   4.032 -0.1430  0.1319  0.0427
 3416W        W 4280   3.691   6.248   0.548  0.3223  0.0332  0.1982
 3417W        W 4281   4.841   7.144   1.558  0.1060 -0.1662  0.0056
 3418W        W 4282   2.067   5.973   1.279  0.0236  0.0097 -0.1025
 3419W        W 4283   3.914   4.339   2.118  0.1501 -0.0646 -0.0302
 3420W        W 4284   0.343   6.240   3.000  0.1607  0.0818 -0.3608
 3421W        W 4285   2.062   7.052  27.939 -0.4259 -0.0125 -0.2390
 3422W        W 4286  29.140   5.566   1.264 -0.1758 -0.1588 -0.1688
 3423W        W 4287  27.889   3.389   1.142  0.2062 -0.0032  0.0513
 3424W        W 4288   0.904   2.692   3.775 -0.0704 -0.1608 -0.5909
 3425W        W 4289   5.095   7.619   1.457  0.2451  0.2142  0.3988
 3426W        W 4290   2.255   3.448   0.658  0.1472 -0.0649 -0.2214
 3427W        W 4291   2.443   5.166   2.920 -0.0047 -0.2503 -0.1200
 3428W        W 4292   0.169   0.895   3.646  0.1549  0.1379  0.0119
 3429W        W 4293  28.283   8.158   2.273  0.1485 -0.0877 -0.2787
 3430W        W 4294   1.834   5.858   1.747  0.0597  0.0374  0.0348
 3431W        W 4295  27.899   4.308   2.259 -0.0906 -0.0384 -0.0086
 3432W        W 4296   1.820   4.120   2.845 -0.2139  0.1969 -0.2639
 3433W        W 4297   4.177   5.335   1.329  0.2770 -0.0853  0.2672
 3434W        W 4298   3.352   6.232   4.121  0.0649 -0.1624  0.0815
 3435W        W 4299   2.420   6.700   1.498  0.0806 -0.2731  0.0332
 3436W        W 4300   4.104   3.946   1.808 -0.2653 -0.3151  0.1486
 3437W        W 4301  28.286   7.818   1.934 -0.1650 -0.0037 -0.0658
 3438W        W 4302   0.528   5.262  28.775 -0.1268  0.0301  0.0283
 3439W        W 4303   1.128   3.715   3.286 -0.1367 -0.3114  0.0498
 3440W        W 4304   2.726   4.253   2.755 -0.2681 -0.1667 -0.0069
 3441W        W 4305   0.690   6.002   0.600 -0.0938  0.1574 -0.0698
 3442W        W 4306   3.498   5.419   0.689 -0.0977  0.1773  0.1723
 3443W        W 4307   2.087   4.312   1.896 -0.3608  0.0950  0.0323
 3444W        W 4308   3.767   6.812  28.074  0.0033  0.2353  0.1400
 3445W        W 4309   3.175   6.942   4.286 -0.2610 -0.1528 -0.0090
 3446W        W 4310   1.021   8.018   3.052 -0.4191 -0.1634 -0.3466
 3447W        W 4311   2.590   4.151   3.260 -0.0666 -0.0436 -0.1279
 3448W        W 4312   0.555   3.367   4.333  0.2055 -0.0147  0.0698
 3449W        W 4313   0.763   7.520   3.801  0.1196  0.0744 -0.0008
 3450W        W 4314   0.675   1.861   2.499  0.1235  0.0718 -0.1591
 3451W        W 4315   0.861   6.539   1.684  0.0040 -0.2313  0.1017
 3452W        W 4316   2.518   5.853   1.907  0.0965  0.1465 -0.2555
 3453W        W 4317   1.103   5.256   2.227  0.1401  0.3394  0.1740
 3454W        W 4318   1.877   6.043  28.681 -0.1547  0.0607 -0.0785
 3455W        W 4319   4.153   6.195   1.155 -0.1073 -0.2055 -0.2315
 3456W        W 4320   3.607   7.231   0.791  0.0031  0.0748  0.0605
 3457W        W 4321   4.105   6.125  28.063 -0.1664 -0.1411  0.2769
 3458W        W 4322  29.041   5.624   0.141 -0.3874  0.0598 -0.0802
 3459W        W 4323   0.977   6.182  28.911 -0.2115  0.0237 -0.0374
 3460W        W 4324   0.424   4.890   1.743  0.0246 -0.2927 -0.0277
 3461W        W 4325   2.031   6.352   4.566  0.0179  0.0629  0.2483
 3462W        W 4326   0.637   3.939   0.782 -0.0709  0.1620  0.1228
 3463W        W 4327   2.272   5.384   2.018  0.1796 -0.0656  0.0779
 3464W        W 4328   3.195   6.504   1.944 -0.0094 -0.0197 -0.3376
 3465W        W 4329   2.757   7.156   2.722  0.1112  0.2656 -0.2798
 3466W        W 4330   4.906   6.181   2.773 -0.1060 -0.2381 -0.0574
 3467W        W 4331   1.335   5.024   1.831  0.1075  0.3893  0.3495
 3468W        W 4332   1.681   4.439  27.928  0.0492 -0.2560  0.2289
 3469W        W 4333   3.298   6.385  27.455 -0.3046  0.1348  0.0085
 3470W        W 4334   3.304   3.236   4.420  0.0274 -0.0104 -0.2451
 3471W        W 4335   5.406   5.547   1.016  0.1551  0.2714  0.0268
 3472W        W 4336   1.140   5.456   0.562  0.0870 -0.2923 -0.0086
 3473W        W 4337   0.511   4.770   0.155  0.3731 -0.0620 -0.0354
 3474W        W 4338   3.868   5.311  29.021  0.1129 -0.1508  0.0933
 3475W        W 4339  27.227   6.288   3.646 -0.2834 -0.2059  0.0791
 3476W        W 4340   2.243   6.624   3.651 -0.0321  0.1506  0.0579
 3477W        W 4341  27.360   5.552   0.583  0.1060  0.1683 -0.0758
 3478W        W 4342   1.724   1.631   2.865 -0.5762 -0.0543  0.2179
 3479W        W 4343   3.599   2.563   2.775 -0.0328 -0.0630  0.0826
 3480W        W 4344   2.590   5.998  26.983  0.0815 -0.2292 -0.0863
 3481W        W 4345  27.178   2.244   1.633 -0.0183  0.0089 -0.0807
 3482W        W 4346  28.046   6.217   0.866  0.0214  0.0921  0.1674
 3483W        W 4347  28.637   6.323   0.650  0.1768  0.1026  0.2642
 3484W        W 4348   3.846   5.704   1.269  0.0352 -0.2821 -0.1404
 3485W        W 4349   0.497   3.376  28.127  0.0369 -0.0296 -0.0765
 3486W        W 4350   2.282   4.999   1.028  0.2545 -0.1497  0.2164
 3487W        W 4351   3.304   2.810   4.675  0.0287 -0.0256 -0.1434
 3488W        W 4352   3.140   5.434   1.631 -0.1526 -0.1880 -0.0119
 3489W        W 4353   2.974   5.353   4.424 -0.0544  0.0866  0.1249
 3490W        W 4354  27.371   4.416  29.108  0.1970  0.0542 -0.0552
 3491W        W 4355   0.171   3.638   4.515  0.2311  0.0448 -0.1539
 3492W        W 4356   5.824   4.587   2.659 -0.1185  0.0065 -0.2741
 3493W        W 4357   2.757   6.708   0.958  0.0423 -0.1181 -0.2192
 3494W        W 4358   2.121   3.155   1.507 -0.1810  0.0698 -0.0294
 3495W        W 4359   3.030   3.812   1.898 -0.0860 -0.1315 -0.0171
 3496W        W 4360   0.853   0.813   1.582 -0.1034  0.0619 -0.1289
 3497W        W 4361   1.065   2.881   3.275 -0.0201 -0.2717  0.1335
 3498W        W 4362   1.033   7.141   1.767 -0.2043 -0.3767 -0.1529
 3499W        W 4363   4.674   5.019  28.379  0.1428  0.0083 -0.0648
 3500W        W 4364   4.412   6.983   3.674  0.2095 -0.1749  0.2182
 3501W        W 4365   3.368   2.743   0.957 -0.2034 -0.0376  0.0386
 3502W        W 4366   4.444   6.277   1.573  0.1182  0.1381 -0.2202
 3503W        W 4367   4.476   6.071   2.977 -0.1772  0.0814 -0.1664
 3504W        W 4368   1.576   4.770   0.099  0.2452  0.1139  0.1615
 3505W        W 4369   4.231   5.719   2.207 -0.0254  0.0074 -0.2254
 3506W        W 4370   0.408   5.530   4.133  0.0176  0.0290  0.1484
 3507W        W 4371   0.308   2.331  28.227 -0.2126  0.1098  0.2173
 3508W        W 4372  28.713   6.124   2.991  0.0231 -0.0503 -0.0532
 3509W        W 4373   2.622   2.734   0.198  0.1464  0.0119 -0.1590
 3510W        W 4374   1.002   6.350   0.240 -0.0741 -0.0572  0.1933
 3511W        W 4375   1.225   8.177   3.793  0.0622 -0.0042  0.1084
 3512W        W 4376  28.257   4.101   1.796  0.1820 -0.3944 -0.0299
 3513W        W 4377   0.169   2.197   3.393 -0.0745  0.1241 -0.2612
 3514W        W 4378   4.696   9.327  28.347  0.1294  0.0626  0.2905
 3515W        W 4379  28.643   5.830   1.964  0.2253 -0.1307  0.1050
 3516W        W 4380   1.882   5.035   1.316 -0.1720 -0.2656 -0.2594
 3517W        W 4381   1.403   5.500   3.651 -0.2093 -0.1283  0.0687
 3518W        W 4382   2.794   1.554   0.121  0.1254 -0.3910  0.0457
 3519W        W 4383   0.907   5.220   3.555  0.3070  0.1547  0.0712
 3520W        W 4384   1.818   6.454   1.465 -0.0121  0.0752 -0.0934
 3521W        W 4385   1.687   5.091   2.862  0.0360 -0.1697 -0.0317
 3522W        W 4386   2.277   3.628   1.259 -0.0581 -0.1298 -0.0813
 3523W        W 4387   3.011   2.871   1.414  0.3047 -0.1479  0.2334
 3524W        W 4388  28.198   5.631   1.912 -0.0778 -0.1288 -0.0542
 3525W        W 4389   0.597   6.966   1.511  0.0943 -0.0736  0.0817
 3526W        W 4390   3.996   1.836   2.222  0.0807  0.0179  0.0015
 3527W        W 4391   1.477   7.256   2.567  0.0701  0.2128  0.1228
 3528W        W 4392   4.314   6.547  27.825  0.0624  0.0281  0.0863
 3529W        W 4393   1.566   3.851   0.458 -0.2139 -0.1429 -0.1658
 3530W        W 4394   3.217   1.871   2.754 -0.1616 -0.0615 -0.2849
 3531W        W 4395   5.146   6.794  28.282  0.0750 -0.1591  0.1257
 3532W        W 4396  28.978   4.977   1.997  0.1793  0.3462  0.0003
 3533W        W 4397   3.955   3.789   2.281  0.1093  0.0816  0.1841
 3534W        W 4398   1.157   4.695   2.168 -0.0934  0.2798  0.2133
 3535W        W 4399   4.836   5.637   2.906 -0.1005 -0.1087 -0.1448
 3536W        W 4400   2.319   7.038   0.206  0.3476  0.1641  0.1579
 3537W        W 4401   0.697   4.307   0.410  0.1384  0.2897  0.2666
 3538W        W 4402   3.779   5.921   2.188  0.1958 -0.0747  0.2328
 3539W        W 4403   3.080   6.618   2.451 -0.2200  0.1411 -0.1316
 3540W        W 4404  28.090   6.024   3.061 -0.1068 -0.1361  0.4256
 3541W        W 4405   4.081   6.544   3.628 -0.1228 -0.3971 -0.0046
 3542W        W 4406   4.035   5.980   2.597 -0.3769 -0.1562 -0.0770
 3543W        W 4407   1.566   9.101   1.266 -0.0040  0.1066 -0.1403
 3544W        W 4408   3.203   7.921   0.940 -0.0018 -0.0731 -0.0153
 3545W        W 4409   4.677   6.274   0.749 -0.0187  0.2482 -0.2181
 3546W        W 4410   2.492   7.455   2.129 -0.0195 -0.1714 -0.0823
 3547W        W 4411   2.486   3.874  28.626  0.1787 -0.1864  0.1927
 3548W        W 4412   2.025   5.677   2.268 -0.2189 -0.2140  0.0436
 3549W        W 4413   1.505   7.264   1.782  0.1060 -0.1601 -0.1157
 3550W        W 4414   5.963   3.350   0.790 -0.0175  0.2059  0.1484
 3551W        W 4415   5.838   4.074   2.470 -0.2360  0.0856  0.0258
 3552W        W 4416   2.585   7.210   0.635  0.0292  0.1498 -0.1925
 3553W        W 4417   1.754   4.811   0.810  0.0406 -0.1067  0.0025
 3554W        W 4418   1.284   5.214  29.079  0.1471 -0.3636 -0.1149
 3555W        W 4419   2.541   5.295   0.717  0.3624  0.0866  0.1200
 3556W        W 4420   0.711   6.923  28.574 -0.1458  0.1757  0.1786
 3557W        W 4421   1.632   5.561  28.997 -0.1816 -0.1156  0.0559
 3558W        W 4422   5.161   3.840   0.938  0.1420  0.0105  0.3425
 3559W        W 4423  28.884   3.917   3.168 -0.2820  0.2094 -0.0897
 3560W        W 4424   2.002   2.787   2.565 -0.0068 -0.0135  0.1212
 3561W        W 4425   0.507   5.245   0.573  0.1540  0.2614  0.1146
 3562W        W 4426   3.101   7.455   0.721 -0.0328  0.0958 -0.1243
 3563W        W 4427   3.190   4.079   0.987  0.0171 -0.2014 -0.1446
 3564W        W 4428   1.793   8.188   0.851 -0.4169  0.1188  0.2455
 3565W        W 4429   0.200   3.868   1.007  0.1658  0.4263  0.0050
 3566W        W 4430   2.795   5.239   2.499  0.1325  0.0534 -0.2605
 3567W        W 4431   1.330   5.529  26.863  0.0799 -0.0956  0.2012
 3568W        W 4432  28.871   5.938   1.455 -0.0253  0.1887  0.1294
 3569W        W 4433   2.226   2.681   3.261 -0.0262  0.2041  0.3468
 3570W        W 4434  28.509   3.658   3.355 -0.0845 -0.0518 -0.3171
 3571W        W 4435   2.032   5.202  27.568 -0.1341  0.1398 -0.2592
 3572W        W 4436   3.623   5.420  28.524  0.2291 -0.1366  0.2841
 3573W        W 4437   1.344   6.068   1.922  0.1342 -0.1735  0.3664
 3574W        W 4438   2.933   0.284   1.502  0.0788 -0.1956 -0.1061
 3575W        W 4439   0.280   4.415   5.558 -0.1868 -0.2917 -0.0013
 3576W        W 4440  28.664   6.084   3.902  0.3928 -0.0905  0.3481
 3577W        W 4441   2.499   6.308   3.230 -0.1797  0.0429  0.0390
 3578W        W 4442   2.426   4.417   6.403 -0.1669  0.2087  0.4411
 3579W        W 4443   0.653   2.973   1.660 -0.0466  0.1453  0.1742
 3580W        W 4444  28.918   6.506   1.741 -0.1014  0.1247 -0.2459
 3581W        W 4445   1.402   6.095   0.004 -0.2199 -0.3926  0.0751
 3582W        W 4446   3.166   6.913   0.570  0.0709 -0.0488  0.1215
 3583W        W 4447  28.784   6.781  29.004 -0.0973 -0.1711 -0.1251
 3584W        W 4448   3.269   3.856   1.425  0.1234 -0.2986  0.1327
 3585W        W 4449   2.570   3.500   3.715  0.2026  0.3840 -0.0046
 3586W        W 4450   2.102   5.436   1.523  0.0224  0.3472  0.0583
 3587W        W 4451   3.367   4.635  28.349  0.2546 -0.0655  0.0334
 3588W        W 4452   2.379   2.753   1.632 -0.0880  0.2240 -0.1496
 3589W        W 4453   4.540   4.662   1.092 -0.0272  0.0024 -0.1070
 3590W        W 4454  27.501   6.611   3.779  0.0863 -0.1048 -0.2438
 3591W        W 4455   0.609   5.506   2.350 -0.0812  0.2705  0.3116
 3592W        W 4456   0.149   9.182  28.883  0.3046 -0.1414  0.0917
 3593W        W 4457   1.236   4.361   1.229 -0.0630  0.0816 -0.1213
 3594W        W 4458   2.344   6.385  27.262 -0.1902  0.0016 -0.2327
 3595W        W 4459   5.684   6.755  28.702 -0.0200 -0.2634 -0.0983
 3596W        W 4460   1.951   6.338   0.837 -0.1538  0.2587  0.1515
 3597W        W 4461   1.550   5.414   1.546 -0.3463  0.0412 -0.2648
 3598W        W 4462   3.463   5.729   0.218  0.4044 -0.2166 -0.1932
 3599W        W 4463  28.739   7.153   3.115 -0.1113 -0.1343 -0.0694
 3600W        W 4464   6.051   1.565  27.095  0.0041 -0.1921 -0.1070
 3601W        W 4465  28.632   4.636   0.672 -0.1099  0.1005 -0.1031
 3602W        W 4466  28.955   7.954   0.367  0.2532  0.2800 -0.0043
 3603W        W 4467   0.379   5.469   1.836 -0.0641 -0.1236 -0.0587
 3604W        W 4468  27.676   7.842  28.713 -0.3081  0.0611  0.1245
 3605W        W 4469   0.731   6.432  27.802 -0.4070 -0.0615 -0.1471
 3606W        W 4470   2.154   4.662   4.029 -0.2623  0.1321  0.2782
 3607W        W 4471   1.647   3.020   4.176  0.3428  0.1688  0.1968
 3608W        W 4472   2.984   0.158   3.027  0.0570 -0.1738  0.0245
 3609W        W 4473  28.858   3.350   1.554 -0.3869 -0.0214 -0.1332
 3610W        W 4474   0.801   3.824   2.861  0.0941  0.0910  0.4686
 3611W        W 4475   0.336   5.058   2.636 -0.1211  0.1867  0.2054
 3612W        W 4476  27.825   6.267   0.403  0.0076 -0.0956 -0.1046
 3613W        W 4477   1.637   3.159   2.626  0.1950 -0.3536  0.0982
 3614W        W 4478   0.949   3.615   1.142 -0.0332 -0.1487 -0.2198
 3615W        W 4479   4.418   5.358   3.108  0.1953  0.0133  0.0130
 3616W        W 4480   2.565   5.172  28.845 -0.0353  0.0903 -0.0715
 3617W        W 4481   0.345   7.477   1.385 -0.0856 -0.2270  0.0562
 3618W        W 4482   1.272   5.856   2.992 -0.3357 -0.0502 -0.2553
 3619W        W 4483   0.889   3.389   1.575 -0.1064 -0.0667 -0.0621
 3620W        W 4484  28.208   6.659   2.565  0.0451 -0.3224 -0.4012
 3621W        W 4485   2.900   4.210   1.620  0.3072  0.1571 -0.1481
 3622W        W 4486   4.138   5.120   0.667 -0.0193  0.0834  0.2633
 3623W        W 4487   0.421   8.933  26.526  0.2627 -0.0233 -0.1448
 3624W        W 4488  28.511   8.449   1.359  0.0478 -0.0964 -0.0473
 3625W        W 4489   2.255   6.258   1.735  0.2305  0.1284 -0.0910
 3626W        W 4490   0.585   4.870   2.262  0.0733 -0.1428  0.0630
 3627W        W 4491   2.327   4.085   1.481 -0.1062 -0.1694 -0.0535
 3628W        W 4492   3.698   3.445   1.022 -0.2006  0.1046  0.0285
 3629W        W 4493   0.619   6.170   2.045  0.3499 -0.1748  0.1477
 3630W        W 4494   2.302   5.366   0.164  0.1963 -0.1064  0.1561
 3631W        W 4495   2.657   7.046  28.962 -0.2071  0.2549  0.0719
 3632W        W 4496   4.244   4.509   4.361 -0.0916 -0.2714 -0.2386
 3633W        W 4497   0.571   2.571   5.948  0.0101  0.2597  0.0114
 3634W        W 4498   4.151   3.765   4.420  0.3329 -0.1011  0.0889
 3635W        W 4499   3.636   5.336   1.640 -0.1250  0.0327 -0.3262
 3636W        W 4500   0.782   4.939   4.880 -0.0437 -0.0701  0.1188
 3637W        W 4501   2.940   3.152   0.002 -0.0710 -0.1776 -0.2051
 3638W        W 4502   1.440   5.118   1.185  0.0399 -0.3430 -0.2293
 3639W        W 4503   1.005   4.004   4.713 -0.0853 -0.0754  0.0146
 3640W        W 4504   3.078   6.179   2.738  0.1366 -0.1650  0.1396
 3641W        W 4505   3.640   4.679   2.961  0.1101 -0.0326 -0.0408
 3642W        W 4506   2.554   6.601  28.575  0.4131  0.1189  0.2408
 3643W        W 4507   3.794   6.903   2.648  0.1851 -0.0904 -0.2225
 3644W        W 4508   0.481   3.617   3.865 -0.3371 -0.1732 -0.1364
 3645W        W 4509  27.418   6.926   2.284 -0.0455  0.3043 -0.2000
 3646W        W 4510   2.677   5.756  29.029  0.0588  0.0020 -0.0012
 3647W        W 4511   4.095   9.091   1.943 -0.2761 -0.1276  0.2843
 3648W        W 4512   1.572   1.770   5.225  0.0494  0.2156 -0.0995
 3649W        W 4513   1.846   7.710  29.094  0.0383 -0.1059 -0.0421
 3650W        W 4514   5.463   4.891  27.777  0.2382 -0.3098  0.0118
 3651W        W 4515   1.268   5.006   4.485 -0.0970 -0.1069 -0.0436
 3652W        W 4516   4.723   8.383   1.538  0.0572  0.2589  0.1853
 3653W        W 4517   2.162   5.733  28.991 -0.1563 -0.0939 -0.0052
 3654W        W 4518   1.076   6.212  27.516  0.0807 -0.0385  0.1234
 3655W        W 4519  27.548   7.159   1.517  0.1911 -0.0200 -0.2469
 3656W        W 4520   1.076   3.864   3.827  0.1288 -0.3767 -0.0517
 3657W        W 4521   0.423   4.802   1.256 -0.3351  0.2899  0.3318
 3658W        W 4522   1.832   6.958   0.200 -0.1136  0.2374 -0.0126
 3659W        W 4523   3.989   6.333  27.289  0.0622 -0.1649 -0.0836
 3660W        W 4524   2.900   5.464   2.037  0.0830 -0.0961 -0.0631
 3661W        W 4525   1.687   8.141   2.349 -0.1594 -0.0096  0.0745
 3662W        W 4526   2.341   6.598  29.047  0.0943  0.1980  0.3898
 3663W        W 4527   1.866   5.651   3.588 -0.0319  0.3098 -0.2125
 3664W        W 4528   1.293   4.504   0.470  0.1632  0.0257 -0.1343
 3665W        W 4529   1.197   5.937   4.451  0.1499  0.0033 -0.0995
 3666W        W 4530   1.232   4.740   3.290 -0.0170 -0.1843  0.2086
 3667W        W 4531   2.835   5.971   3.476  0.1571  0.0809 -0.2991
 3668W        W 4532   1.171   6.647  26.746 -0.2357 -0.0505 -0.1978
 3669W        W 4533   5.370   4.355   0.340  0.0566 -0.3633 -0.1593
 3670W        W 4534   4.270   5.598   0.855  0.1009  0.2547 -0.1733
 3671W        W 4535  29.093   3.843   1.665 -0.0759 -0.2979  0.0553
 3672W        W 4536   4.744   5.729  27.585 -0.1164 -0.4543  0.4091
 3673W        W 4537   1.587   5.981   1.262  0.1591  0.1045  0.0642
 3674W        W 4538   3.209   6.916  28.066 -0.1097  0.0506 -0.1293
 3675W        W 4539   0.961   7.079   0.266  0.1606 -0.1061 -0.2443
 3676W        W 4540   3.861   5.076   2.774  0.1414 -0.1434 -0.2974
 3677W        W 4541  28.863   3.433   3.628  0.1686  0.1538  0.3363
 3678W        W 4542   0.161   6.959   2.092 -0.2846  0.1017 -0.0942
 3679W        W 4543   2.596   5.680   4.317 -0.2672  0.1587  0.0726
 3680W        W 4544   0.190   8.168  27.751 -0.2721 -0.0690  0.1574
 3681W        W 4545   3.970   7.034  28.682 -0.0556  0.1123  0.0718
 3682W        W 4546   2.115   3.685   3.517 -0.1477 -0.1420  0.0824
 3683W        W 4547   3.578   4.853  27.795  0.0365 -0.1833 -0.0050
 3684W        W 4548   2.457   4.695  27.385 -0.0075 -0.0218  0.1941
 3685W        W 4549   0.839   5.688   2.754 -0.0026 -0.1402 -0.0320
 3686W        W 4550   0.773   4.701   3.673 -0.0760  0.0693  0.1966
 3687W        W 4551   2.025   5.410   2.685  0.2359  0.0201 -0.1206
 3688W        W 4552   3.289   9.624   1.087  0.0764 -0.0600 -0.0641
 3689W        W 4553   2.276   4.400   2.931  0.1342 -0.1181  0.0929
 3690W        W 4554   0.534   1.669   4.209 -0.2057  0.3192  0.1489
 3691W        W 4555   1.205   5.814   1.512 -0.3845 -0.1703 -0.1217
 3692W        W 4556  28.801   4.225  27.340 -0.1169 -0.1470  0.0637
 3693W        W 4557  29.041   3.401   1.105  0.1329 -0.0535  0.1018
 3694W        W 4558   2.816   7.715  29.084 -0.1153 -0.1147 -0.0488
 3695W        W 4559   2.070   4.061   0.500  0.0660  0.2527  0.0301
 3696W        W 4560   1.303   5.638   1.036  0.1609 -0.0775 -0.0053
 3697W        W 4561  28.712   9.971  28.951  0.2109  0.0733 -0.1117
 3698W        W 4562   4.529   5.477  28.412  0.0792 -0.1983 -0.2627
 3699W        W 4563   5.466   4.261   0.807  0.0315  0.0407 -0.2402
 3700W        W 4564   3.620   5.507  27.401 -0.0166 -0.0046  0.6391
 3701W        W 4565  27.954   5.602   2.844  0.1854 -0.2759 -0.1330
 3702W        W 4566   3.499   0.900   0.348 -0.1644 -0.1941  0.1253
 3703W        W 4567   2.646   4.981  27.014  0.3269 -0.3192  0.0229
 3704W        W 4568   2.732   2.513  28.404 -0.0589  0.1318  0.2312
 3705W        W 4569   2.753   4.875  28.384 -0.0583  0.2602  0.1869
 3706W        W 4570   2.401   5.804   3.197 -0.3528 -0.0341  0.0715
 3707W        W 4571  28.614   8.532  28.979 -0.4590 -0.3428  0.0103
 3708W        W 4572   0.604   6.158   1.571 -0.0230  0.1513 -0.1714
 3709W        W 4573   3.115   7.448   1.468  0.3580 -0.0057  0.1661
 3710W        W 4574   1.773   2.231   0.992 -0.3875 -0.2386 -0.2031
 3711W        W 4575   4.208   6.297   2.051 -0.1482  0.1522 -0.0370
 3712W        W 4576   4.249   5.630  28.804 -0.0767  0.2044 -0.2036
 3713W        W 4577  28.337   7.343  29.115 -0.0058  0.3426 -0.0877
 3714W        W 4578   0.043   5.366   0.556 -0.1108 -0.0645 -0.0183
 3715W        W 4579   1.989   4.322   4.448 -0.0836 -0.2275  0.2152
 3716W        W 4580   1.664   5.717   2.664  0.2130  0.1971  0.2863
 3717W        W 4581   2.259   8.100  29.025  0.2504 -0.0575  0.1358
 3718W        W 4582   3.937   6.871  27.428  0.0642 -0.0716 -0.0753
 3719W        W 4583  28.660   7.613   0.223  0.4363 -0.1618  0.1474
 3720W        W 4584   2.464   5.226   4.641 -0.2343 -0.0135 -0.1139
 3721W        W 4585   2.614   3.241   0.378  0.2206 -0.0125  0.3207
 3722W        W 4586   2.557   3.538   1.720 -0.0282  0.1326  0.1291
 3723W        W 4587  28.910   6.014   0.962  0.2655  0.1181 -0.1869
 3724W        W 4588  28.732   4.858   2.919  0.4775  0.1372  0.1778
 3725W        W 4589   0.267   7.605   2.722 -0.0891 -0.1704  0.1628
 3726W        W 4590   2.692   3.065   1.816 -0.0960 -0.0549 -0.0161
 3727W        W 4591   3.666   5.741   3.345 -0.0319  0.1186  0.2181
 3728W        W 4592   1.825   9.335   5.382 -0.0364  0.2935 -0.2151
 3729W        W 4593   0.468   6.311   2.511 -0.0092  0.0411  0.2205
 3730W        W 4594   2.358   5.656   0.994  0.0724  0.1905 -0.0045
 3731W        W 4595   1.873   4.472  28.909  0.1684 -0.0625 -0.0722
 3732W        W 4596   3.585   7.445   1.772 -0.1276  0.0482 -0.2476
 3733W        W 4597   3.454   7.777   0.513 -0.1579 -0.1169 -0.1599
 3734W        W 4598   0.789   6.528   1.222 -0.0968  0.1058 -0.1689
 3735W        W 4599   5.258   9.352  27.018 -0.2434  0.2321 -0.1569
 3736W        W 4600  29.128   7.738   6.493 -0.2747  0.0005 -0.3038
 3737W        W 4601   1.654   5.306   2.412 -0.2137  0.2123  0.1308
 3738W        W 4602   4.829   6.954   0.174  0.1282  0.4791 -0.0946
 3739W        W 4603   3.304   4.955   1.266 -0.1000 -0.0996  0.1096
 3740W        W 4604   2.458   1.839   3.890 -0.1021  0.1318  0.0671
 3741W        W 4605  28.237   4.367   3.574 -0.0158 -0.0119 -0.0959
 3742W        W 4606   3.880   4.840   2.004 -0.2776 -0.3228 -0.0204
 3743W        W 4607  28.498   4.888   0.239  0.2228 -0.1256  0.1800
 3744W        W 4608   2.487   4.515   1.669 -0.3067 -0.2928 -0.2076
 3745W        W 4609   2.783   3.467   2.133 -0.1680 -0.2091  0.2199
 3746W        W 4610   3.677   6.923   5.917 -0.3449 -0.0340  0.1595
 3747W        W 4611   0.562   7.193   3.451  0.2415  0.1657  0.0280
 3748W        W 4612   2.649   5.486   3.472  0.0051  0.0492 -0.0344
 3749W        W 4613   3.495   8.712   4.199 -0.0798  0.0679 -0.1245
 3750W        W 4614   1.992   5.261  28.857 -0.5003 -0.3756  0.2828
 3751W        W 4615   2.183   4.491   0.782  0.2353 -0.0132  0.0941
 3752W        W 4616   2.942   4.564   0.408  0.0327 -0.2561  0.3037
 3753W        W 4617   1.453   3.262   3.285  0.1432  0.0489  0.1388
 3754W        W 4618   2.471   6.352   0.615  0.1557 -0.1753 -0.0650
 3755W        W 4619   3.401   7.350   0.299  0.0145  0.1408 -0.0779
 3756W        W 4620   0.133   1.074   2.222 -0.1638  0.0428 -0.1922
 3757W        W 4621  28.628   6.808   0.619 -0.0478 -0.1246 -0.2563
 3758W        W 4622   3.737   5.791  28.907 -0.2799  0.1401  0.2961
 3759W        W 4623   0.270   6.394   0.397  0.0302  0.1181  0.0898
 3760W        W 4624   1.593   4.874  28.776  0.1277 -0.1198 -0.3698
 3761W        W 4625   0.804   5.160   1.843  0.1493  0.1610 -0.1570
 3762W        W 4626   0.922   6.428   0.706  0.0279  0.2078 -0.0750
 3763W        W 4627  29.036   4.043   0.189 -0.1522 -0.1705  0.5254
 3764W        W 4628   4.374   6.042   3.843 -0.1369 -0.3597  0.0706
 3765W        W 4629   3.303   3.531   0.175 -0.1452 -0.1216 -0.0032
 3766W        W 4630   1.127   7.509   2.061  0.0640  0.3633 -0.2369
 3767W        W 4631   4.168   8.049   0.676  0.0217 -0.1615 -0.0122
 3768W        W 4632   1.538   5.853  27.849  0.2201  0.2113  0.1210
 3769W        W 4633   1.827   5.260   0.211 -0.2614  0.1952  0.1297
 3770W        W 4634  27.825   7.513   0.546 -0.2852 -0.1131  0.2219
 3771W        W 4635   3.561   5.876   1.714 -0.2014  0.0299  0.1186
 3772W        W 4636   0.163   3.061   4.210  0.0158  0.0184  0.2342
 3773W        W 4637   0.660   6.462   3.558 -0.1961  0.0184  0.0337
 3774W        W 4638  28.028   4.878  27.521  0.1161 -0.1536  0.2717
 3775W        W 4639   0.643   4.724   4.395 -0.1411 -0.1288  0.0440
 3776W        W 4640  28.754   5.380   1.571  0.0740  0.0480 -0.1990
 3777W        W 4641   2.059   3.778   1.789 -0.1286 -0.1896  0.2613
 3778W        W 4642   3.034  10.119   2.409  0.1032  0.0051  0.1571
 3779W        W 4643   4.313   6.691   0.348 -0.0015  0.2639  0.2502
 3780W        W 4644   3.606   6.722   0.364 -0.0997 -0.3488  0.0104
 3781W        W 4645   5.215   6.150   0.755  0.0353 -0.4454  0.0922
 3782W        W 4646   1.203   4.821   2.817  0.0590 -0.1762  0.2189
 3783W        W 4647   3.549   2.600   1.648  0.1959  0.2668  0.2609
 3784W        W 4648   1.037   8.459  26.126 -0.0708  0.3958 -0.1463
 3785W        W 4649   3.191   3.561   0.981  0.0844  0.4845 -0.2404
 3786W        W 4650   4.220   5.184  28.070 -0.2170  0.0130 -0.0708
 3787W        W 4651  28.967   7.496   3.633  0.2114 -0.1343 -0.3511
 3788W        W 4652   1.523   5.694   0.350  0.3766  0.0661 -0.2744
 3789W        W 4653   0.001   5.488   3.393  0.0724  0.0029 -0.2894
 3790W        W 4654   1.302   6.588   3.010  0.1010 -0.0930  0.1944
 3791W        W 4655   4.098   5.644   3.660 -0.2869  0.1388  0.1870
 3792W        W 4656   2.421   3.133   2.924 -0.2934 -0.0523 -0.0153
 3793W        W 4657   2.557   3.477   4.986  0.1456  0.3621  0.2584
 3794W        W 4658   2.211   5.185   4.210 -0.2787  0.1019 -0.0546
 3795W        W 4659   0.909   5.685   1.876  0.1192  0.1144  0.3222
 3796W        W 4660   1.293   7.516   2.936 -0.2181  0.6219  0.3641
 3797W        W 4661   0.128   6.879   0.571 -0.2632  0.1140 -0.0344
 3798W        W 4662   3.703   5.047   6.356 -0.1557 -0.0481  0.1046
 3799W        W 4663   0.298   4.018   4.052  0.0316 -0.0123 -0.0930
 3800W        W 4664   2.613   5.383   1.615  0.1330  0.1889  0.1937
 3801W        W 4665   3.015   6.605   1.505  0.0770 -0.1002 -0.1465
 3802W        W 4666   0.085   5.970   0.568 -0.0044  0.1211  0.0692
 3803W        W 4667   3.965   7.589   0.496 -0.1667 -0.2334  0.1586
 3804W        W 4668   0.097   4.567   2.067 -0.2112  0.2494  0.1300
 3805W        W 4669   4.407   7.004  29.025 -0.0565  0.0951  0.1075
 3806W        W 4670   5.366   6.024   0.265 -0.3290 -0.0795 -0.1082
 3807W        W 4671   0.783   5.071   1.030  0.0606  0.0695 -0.1248
 3808W        W 4672   0.464   8.606   2.599  0.3155  0.0325  0.1247
 3809W        W 4673   1.703   5.610   5.783  0.1794  0.1779 -0.0359
 3810W        W 4674   3.251   6.089   1.371  0.0442  0.0326 -0.0014
 3811W        W 4675   1.745   7.885   3.262 -0.0112 -0.1408  0.3575
 3812W        W 4676   2.525   4.118  29.140  0.1013  0.1125 -0.2084
 3813W        W 4677  27.602   3.995  27.770 -0.0592 -0.0151  0.0239
 3814W        W 4678   0.503   7.510   6.071  0.1203  0.1532  0.1680
 3815W        W 4679   0.241   5.904   6.646 -0.1203  0.3167  0.1170
 3816W        W 4680   2.397   9.278   5.168  0.1273 -0.0261  0.0028
 3817W        W 4681   2.393   6.743   5.697  0.3558  0.1246 -0.1463
 3818W        W 4682   1.817   6.278   4.081  0.1227  0.1179 -0.2841
 3819W        W 4683  27.273   4.611   3.100  0.1413 -0.1609  0.0500
 3820W        W 4684  28.103   6.128   2.557 -0.1730 -0.0277 -0.0605
 3821W        W 4685   3.017   5.017   3.151  0.1797  0.0315 -0.0973
 3822W        W 4686   1.228   4.687   5.752 -0.1470  0.2401  0.3193
 3823W        W 4687  29.127   4.646   6.514 -0.0134  0.2142  0.0946
 3824W        W 4688   1.204   3.143   7.409  0.3663 -0.0368  0.1237
 3825W        W 4689   2.961   5.086   5.346 -0.1482 -0.2977 -0.1653
 3826W        W 4690  29.092   6.138   2.686  0.0035  0.1481  0.1274
 3827W        W 4691   4.029   1.589   5.162 -0.0179 -0.1141  0.0547
 3828W        W 4692   0.851   3.460   5.940  0.0221  0.0639 -0.3331
 3829W        W 4693   1.130   4.655  10.007 -0.0162  0.2589  0.0418
 3830W        W 4694   2.650   6.881   3.336 -0.1379  0.0901  0.2843
 3831W        W 4695   2.887   4.385   4.185  0.2185  0.0308 -0.0361
 3832W        W 4696   2.399   6.511   6.443  0.4088 -0.3123  0.1632
 3833W        W 4697   6.017   4.554   4.512 -0.1208 -0.1787 -0.1347
 3834W        W 4698   5.783   6.125   5.518  0.0060 -0.0007 -0.0215
 3835W        W 4699   1.595   6.346   4.945 -0.1365  0.1558  0.2536
 3836W        W 4700   3.916   6.065   5.432  0.0987 -0.1056 -0.0222
 3837W        W 4701   0.234   6.531   5.785 -0.1159  0.0415  0.1174
 3838W        W 4702  29.052   4.915   6.084  0.0446  0.0098  0.1148
 3839W        W 4703   2.588   5.305   6.005  0.0635 -0.2702  0.1506
 3840W        W 4704   4.194   4.299   7.424  0.0359 -0.1919  0.0383
 3841W        W 4705   2.092   3.442   4.932 -0.0458 -0.0443  0.1537
 3842W        W 4706   2.357   7.116   4.794  0.4235  0.1418 -0.2999
 3843W        W 4707   4.423   4.913   4.011 -0.3571 -0.1441 -0.2460
 3844W        W 4708   2.136   5.616   5.370  0.5287  0.0243 -0.0804
 3845W        W 4709   2.992   5.693   7.481  0.1811 -0.0836  0.0087
 3846W        W 4710   2.017   3.099   5.261  0.1859 -0.0318 -0.1449
 3847W        W 4711   1.916   4.791   6.886 -0.0377 -0.0320 -0.0049
 3848W        W 4712  27.673   3.308   6.647  0.0191  0.2567  0.1245
 3849W        W 4713   2.858   7.039   4.656 -0.0109 -0.0918  0.0266
 3850W        W 4714   0.701   4.354   6.987  0.0608  0.0719 -0.0869
 3851W        W 4715   0.820   4.900   6.204 -0.2286  0.0994 -0.2340
 3852W        W 4716   3.526   5.378   3.736 -0.2025  0.1322  0.0794
 3853W        W 4717   3.829   5.544   6.133  0.1152  0.0024  0.2783
 3854W        W 4718   1.162   4.201   2.043 -0.3501  0.1307 -0.2433
 3855W        W 4719   4.000   2.636   5.879  0.2942  0.1006  0.1143
 3856W        W 4720   2.761   5.531   5.590  0.0379  0.3904 -0.1274
 3857W        W 4721   3.223   7.284   3.042  0.2054 -0.1925  0.2053
 3858W        W 4722   1.100   6.427   4.763  0.1021 -0.0997  0.0797
 3859W        W 4723   2.881   6.568   4.139 -0.0055  0.0374  0.1399
 3860W        W 4724   2.467   2.899   5.032  0.0539 -0.0525 -0.2460
 3861W        W 4725   3.761   5.216   5.216  0.0484 -0.0925  0.4605
 3862W        W 4726   2.946   8.006   6.194 -0.0395 -0.0637  0.0221
 3863W        W 4727   0.412   6.810   2.500  0.2161 -0.3092  0.1078
 3864W        W 4728   2.285   7.168   8.572 -0.2376  0.2112  0.0196
 3865W        W 4729   2.173   5.765   6.868  0.5327 -0.3468 -0.2535
 3866W        W 4730   3.908   6.585   5.523  0.1284 -0.2754 -0.0787
 3867W        W 4731   6.590   4.492   4.991 -0.1204 -0.1780  0.1828
 3868W        W 4732   3.126   4.477   2.980  0.0820  0.2983 -0.1325
 3869W        W 4733   4.126   4.928   8.259  0.4975 -0.1132  0.0252
 3870W        W 4734  28.260   3.338   3.810 -0.6250 -0.0271 -0.0619
 3871W        W 4735   4.379   4.845   3.299  0.0831 -0.2124 -0.3085
 3872W        W 4736   0.933   5.583   6.640 -0.4727  0.0052 -0.3176
 3873W        W 4737   1.166   5.852   5.606 -0.0555  0.0954 -0.0154
 3874W        W 4738   3.994   6.717   2.260  0.1484 -0.1839  0.1251
 3875W        W 4739  28.109   6.894   7.464  0.0046  0.3832 -0.2246
 3876W        W 4740   0.659   6.862   6.576 -0.0041  0.0058  0.1777
 3877W        W 4741   4.665   2.811   6.472  0.0187 -0.0970 -0.1710
 3878W        W 4742   4.329   3.786   5.096  0.2041 -0.1758  0.0741
 3879W        W 4743   4.629   5.033   5.853  0.1379 -0.2641  0.1763
 3880W        W 4744   2.808   5.165   6.802  0.0969  0.0653  0.0772
 3881W        W 4745  28.519   4.091   4.104  0.2990 -0.4110 -0.0573
 3882W        W 4746   0.297   6.478   5.179  0.2522 -0.0612 -0.0700
 3883W        W 4747   1.962   5.096   4.994  0.0067  0.0180 -0.1252
 3884W        W 4748   1.822   7.117   4.977  0.1472  0.0450 -0.0248
 3885W        W 4749   3.155   5.518   3.439  0.0303 -0.0833 -0.1613
 3886W        W 4750   2.134   6.714   4.906 -0.0629  0.3123  0.0887
 3887W        W 4751   4.264   4.670   4.805 -0.2843 -0.2414  0.1813
 3888W        W 4752   3.637   8.826   4.664  0.1374  0.2035  0.0517
 3889W        W 4753   2.600   4.094   6.895 -0.0242 -0.1873 -0.3396
 3890W        W 4754   1.615   6.142   2.361 -0.1641  0.1055  0.2871
 3891W        W 4755   2.330   6.586   8.895 -0.1405  0.2729  0.2124
 3892W        W 4756   1.603   7.660   5.981  0.3255 -0.0359 -0.0960
 3893W        W 4757   3.769   6.624   6.423 -0.2984 -0.2141  0.1481
 3894W        W 4758   2.451   4.363   4.503 -0.0394 -0.5919 -0.0995
 3895W        W 4759   0.712   4.843   6.987  0.1187 -0.1230  0.0605
 3896W        W 4760   1.785   2.320   4.819 -0.0356 -0.3410  0.1991
 3897W        W 4761   3.334   3.533   6.041 -0.3787  0.0374  0.1956
 3898W        W 4762   2.047   3.375   5.807  0.2847 -0.0076  0.1061
 3899W        W 4763  28.640   5.330   2.688  0.0990  0.1113 -0.0805
 3900W        W 4764   2.254   5.695   7.367  0.3145  0.3246 -0.1964
 3901W        W 4765   0.807   3.372   6.956 -0.1209  0.0736  0.1340
 3902W        W 4766   2.446   7.245   5.820  0.0112  0.0139 -0.2244
 3903W        W 4767   3.634   1.853   8.881 -0.1632 -0.0664 -0.2704
 3904W        W 4768   2.051   3.961   2.305  0.2602  0.2280 -0.2210
 3905W        W 4769   2.670   7.498   8.848  0.0646 -0.2441 -0.0454
 3906W        W 4770  27.668   4.887   5.256 -0.0783 -0.1018 -0.0590
 3907W        W 4771   1.628   3.870   4.173 -0.3675  0.0683  0.0813
 3908W        W 4772   1.960   4.988   8.231  0.0808  0.0132  0.4552
 3909W        W 4773   3.644   6.376   2.030 -0.2197  0.0469 -0.2150
 3910W        W 4774   2.093   6.010   4.985  0.1993  0.1172  0.3627
 3911W        W 4775   1.732   4.248   6.973  0.0073 -0.1468 -0.1302
 3912W        W 4776   1.599   4.048   5.884 -0.1084  0.2652 -0.8056
 3913W        W 4777   5.924   3.245   4.231 -0.0155  0.2052  0.2705
 3914W        W 4778   4.432   8.310   0.313  0.0945  0.3283 -0.0984
 3915W        W 4779   0.857   5.382   6.162 -0.0004 -0.1746  0.1503
 3916W        W 4780   0.914   5.577   3.924  0.0562  0.1637 -0.1135
 3917W        W 4781   4.544   6.853   6.054  0.0733  0.0322 -0.1642
 3918W        W 4782   3.656   0.900   5.345 -0.0284 -0.0154  0.0246
 3919W        W 4783   5.051   4.075   5.266  0.0823  0.0296 -0.2527
 3920W        W 4784   3.162   6.376   3.251  0.0005 -0.2774 -0.1252
 3921W        W 4785   4.258   4.878   5.228  0.2098 -0.0167  0.1158
 3922W        W 4786   3.005   3.652   3.913 -0.0279  0.0101  0.1496
 3923W        W 4787   2.436   4.281   3.900  0.1057 -0.1032 -0.2550
 3924W        W 4788  28.447   5.410   7.932  0.1686  0.0425 -0.0970
 3925W        W 4789   2.129   5.555   4.526 -0.1588 -0.2740  0.1695
 3926W        W 4790   4.965   5.993   5.783 -0.2051 -0.0797  0.2473
 3927W        W 4791   1.708   4.548   6.070 -0.0128  0.4637  0.3579
 3928W        W 4792   1.469   5.552   2.010  0.0644  0.0821  0.2576
 3929W        W 4793   2.326   4.882   6.586 -0.0353  0.0938 -0.1345
 3930W        W 4794   4.032   2.653   7.805 -0.2030  0.1251 -0.0572
 3931W        W 4795   3.625   7.067   5.300 -0.1117  0.3888 -0.3229
 3932W        W 4796   3.989   5.319   7.303 -0.1371 -0.1110 -0.0222
 3933W        W 4797   3.386   4.451   4.321 -0.1099  0.0723  0.0880
 3934W        W 4798   4.891   6.141   4.046 -0.1938  0.0518  0.2778
 3935W        W 4799   3.345   5.719   8.781 -0.2108  0.0423  0.1600
 3936W        W 4800   2.376   9.761   5.957 -0.0520  0.0541 -0.0100
 3937W        W 4801   1.473   4.226   3.261  0.0777  0.0795 -0.0129
 3938W        W 4802   3.907   7.148   4.799 -0.0831  0.0057 -0.1464
 3939W        W 4803   4.089   6.626   5.967 -0.0044 -0.0257 -0.1052
 3940W        W 4804   0.110   5.682   7.343  0.1142  0.1960 -0.1756
 3941W        W 4805   2.932   7.089   5.725 -0.3741 -0.0269 -0.0153
 3942W        W 4806   4.477   7.339   5.392  0.0994 -0.0022  0.1633
 3943W        W 4807   2.805   8.389   4.893  0.2692 -0.1158 -0.1995
 3944W        W 4808   1.752   6.777   7.523 -0.1172 -0.0048  0.0913
 3945W        W 4809   5.963   4.099   5.681  0.4404 -0.1399 -0.2041
 3946W        W 4810   1.920   8.197   6.577 -0.1368  0.1654 -0.2131
 3947W        W 4811   4.575   4.358   3.419  0.0434  0.0674 -0.1758
 3948W        W 4812   2.990   5.449   5.025  0.2456  0.3373  0.0926
 3949W        W 4813   1.096   6.712   5.634  0.0441  0.1439  0.2761
 3950W        W 4814   3.341   4.229   2.328 -0.1975  0.0948  0.1695
 3951W        W 4815   3.332   5.171   7.339  0.2300  0.0269 -0.0317
 3952W        W 4816   5.841   7.316   5.795  0.2480  0.0173 -0.1424
 3953W        W 4817   1.713   5.895   4.498  0.0108  0.0231  0.1998
 3954W        W 4818  28.731   2.412   3.713 -0.0928  0.1535  0.4777
 3955W        W 4819   1.203   4.572   5.135  0.1828 -0.0542  0.1813
 3956W        W 4820   3.261   7.939   5.030  0.1867  0.1740  0.0082
 3957W        W 4821   1.616   3.221   5.002  0.0116 -0.0164  0.2919
 3958W        W 4822   3.091   6.158   8.169  0.2456 -0.0301 -0.1438
 3959W        W 4823   1.594   3.816   3.634 -0.0559  0.0425 -0.0428
 3960W        W 4824   4.933   4.991   5.341  0.1095  0.1968  0.1145
 3961W        W 4825   2.023   6.187   6.553  0.0612 -0.0224 -0.2744
 3962W        W 4826   1.833   6.601   3.096 -0.0290  0.1320 -0.1993
 3963W        W 4827   1.449   5.924   3.461  0.0336  0.2041 -0.0461
 3964W        W 4828   3.582   6.296   7.326  0.0321  0.0904 -0.1416
 3965W        W 4829   2.223   5.302   7.090  0.0672 -0.1742 -0.0013
 3966W        W 4830   0.581   7.006   5.988  0.0207 -0.2624 -0.2304
 3967W        W 4831   2.704   2.904   3.963  0.0231  0.2987  0.0376
 3968W        W 4832   1.125   0.806   5.796  0.2803  0.1526  0.2048
 3969W        W 4833   2.545   3.892   6.436  0.0198  0.1727 -0.0855
 3970W        W 4834  27.692   2.990   7.017 -0.1329 -0.2209 -0.1023
 3971W        W 4835  29.075   6.525   3.061  0.0582  0.0327 -0.1125
 3972W        W 4836   0.940   5.682   3.381 -0.1277 -0.2458 -0.0405
 3973W        W 4837   2.216   7.412   4.196 -0.0057 -0.0222  0.1262
 3974W        W 4838   2.149   4.553   8.291 -0.1230 -0.0425 -0.0733
 3975W        W 4839   3.674   5.044   7.680 -0.1056 -0.1885  0.2593
 3976W        W 4840   2.416   6.218   6.062 -0.1442 -0.0998  0.1676
 3977W        W 4841   2.001   8.253   5.788  0.0532 -0.1896  0.0299
 3978W        W 4842   5.025   3.127   9.118  0.1367  0.3298 -0.1415
 3979W        W 4843   3.407   5.546   4.771  0.0689 -0.0817 -0.1830
 3980W        W 4844   4.683   4.159   4.902  0.1704 -0.1780  0.1175
 3981W        W 4845  29.146   3.824   5.543 -0.0316 -0.2806  0.0757
 3982W        W 4846   2.425   4.453   7.703 -0.2980 -0.0887  0.2161
 3983W        W 4847   1.358   5.267   4.921 -0.1737 -0.0429  0.1217
 3984W        W 4848   1.427   3.468   3.978 -0.0613  0.1628 -0.2114
 3985W        W 4849   5.094   3.401   2.975  0.2213 -0.1295  0.1609
 3986W        W 4850   2.523   4.045   7.392  0.3480 -0.1554  0.0462
 3987W        W 4851   4.685   6.310   3.606 -0.2189 -0.1045  0.1209
 3988W        W 4852   4.971   4.578   6.646 -0.2483 -0.2274  0.1636
 3989W        W 4853   4.297   3.909   2.681  0.2378 -0.0720 -0.0267
 3990W        W 4854  28.392   7.275   8.338  0.1458  0.1707 -0.2360
 3991W        W 4855   1.554   4.837   5.399 -0.0181 -0.0382  0.1012
 3992W        W 4856   1.630   8.192   6.143 -0.0291  0.0267  0.2224
 3993W        W 4857   3.402   3.842   5.464 -0.2681 -0.0376 -0.1818
 3994W        W 4858   0.207   5.068   5.632 -0.0591 -0.0048 -0.1458
 3995W        W 4859   4.692   6.071   4.975 -0.0287 -0.3286  0.0949
 3996W        W 4860   3.451   5.126   3.224  0.4110 -0.3885 -0.0867
 3997W        W 4861   1.356   6.850   3.557 -0.2297 -0.1392  0.2415
 3998W        W 4862   4.641   3.954   3.794  0.0587 -0.0964 -0.0879
 3999W        W 4863   3.375   7.281   5.710  0.0579 -0.0823 -0.2310
 4000W        W 4864   2.948   3.568   5.680  0.3715  0.0319 -0.0044
 4001W        W 4865   0.812   3.944   6.242 -0.1497 -0.0637  0.2020
 4002W        W 4866   2.080   4.164   6.082  0.2864 -0.2375  0.0082
 4003W        W 4867   0.254   4.369   7.465 -0.4744  0.1000  0.2013
 4004W        W 4868   0.509   5.373   3.132  0.1270 -0.1487 -0.1830
 4005W        W 4869   2.231   6.668   2.072 -0.1100  0.2045  0.0233
 4006W        W 4870   0.712   6.071   8.752  0.2013  0.2977 -0.2176
 4007W        W 4871   2.461   2.213   6.860  0.0619 -0.0872 -0.1270
 4008W        W 4872   3.598   3.373   8.400 -0.0814 -0.1603  0.0878
 4009W        W 4873   0.016   3.217   5.455 -0.1419 -0.1761 -0.1237
 4010W        W 4874   2.367   4.788   4.963 -0.1841 -0.0457  0.0310
 4011W        W 4875  29.082   4.980   6.896  0.1082 -0.1916  0.0752
 4012W        W 4876  27.405   4.594   4.761 -0.0119  0.0012 -0.1449
 4013W        W 4877   3.285   3.430   4.863 -0.1324 -0.1919  0.1568
 4014W        W 4878   1.097   5.106   5.410  0.0601 -0.0042  0.2115
 4015W        W 4879   3.170   5.888   5.437  0.1331  0.1978  0.0113
 4016W        W 4880   1.791   5.196   1.933 -0.2170  0.1939  0.1871
 4017W        W 4881   0.496   3.906   5.435 -0.2174  0.3946 -0.0213
 4018W        W 4882   1.774   5.706   7.222  0.1404  0.1863 -0.3263
 4019W        W 4883  27.819   3.174   5.805  0.0382 -0.1864  0.0696
 4020W        W 4884   1.003   4.890   9.500 -0.2433  0.4586  0.3696
 4021W        W 4885   0.797   5.833   5.939 -0.3186  0.1017 -0.1381
 4022W        W 4886   1.941   6.998   1.647 -0.0196 -0.0006 -0.2654
 4023W        W 4887   2.140   5.234   5.765 -0.4321  0.1559 -0.2859
 4024W        W 4888   0.318   6.833   3.752  0.1175 -0.1068 -0.1742
 4025W        W 4889   1.226   4.195   4.246  0.3042 -0.0376 -0.1657
 4026W        W 4890   3.777   6.322   7.862 -0.1466 -0.1700 -0.3873
 4027W        W 4891   1.103   3.549   6.589 -0.2084 -0.1194  0.2965
 4028W        W 4892   3.853   5.398   8.079 -0.1636 -0.0515  0.2381
 4029W        W 4893   3.634   8.040   3.409 -0.3507  0.0649  0.2296
 4030W        W 4894   2.286   6.075   3.702  0.0403 -0.0231  0.1511
 4031W        W 4895   2.934   5.472   2.968  0.3267  0.1702  0.1337
 4032W        W 4896   6.691   4.355   8.985  0.1321 -0.0850 -0.0827
 4033W        W 4897  28.319   6.466   7.278  0.0792 -0.0316  0.0624
 4034W        W 4898   5.606   5.239   7.085  0.0486 -0.0371 -0.1837
 4035W        W 4899   5.579   6.106   3.294  0.1716  0.1036  0.1450
 4036W        W 4900   1.881   6.170   7.416 -0.0558  0.1585 -0.2647
 4037W        W 4901   1.391   4.527   1.679 -0.1326 -0.0229  0.2276
 4038W        W 4902   3.703   6.721   4.533 -0.0826  0.0405  0.1084
 4039W        W 4903   1.266   3.727   8.907 -0.4403  0.0347 -0.2670
 4040W        W 4904   1.697   5.894   5.344  0.2436 -0.0003  0.0030
 4041W        W 4905   2.927   2.262   6.660  0.0676 -0.1140 -0.2280
 4042W        W 4906   3.350   4.997   1.816 -0.1659 -0.0135 -0.0001
 4043W        W 4907   2.548   6.790   5.150  0.0802 -0.0634  0.2648
 4044W        W 4908   1.666   5.070   5.841  0.2119  0.0306 -0.0536
 4045W        W 4909   4.021   6.539   8.342 -0.1343 -0.0334  0.3901
 4046W        W 4910  29.051   4.988   4.769  0.0970 -0.0563  0.0353
 4047W        W 4911   4.726   2.885   1.775  0.2895 -0.1127 -0.1214
 4048W        W 4912   1.067   3.998   7.662  0.0054 -0.1179 -0.1330
 4049W        W 4913   0.449   6.303   4.734 -0.1456  0.2908  0.0038
 4050W        W 4914   3.738   4.097   2.644 -0.2091  0.0519  0.2216
 4051W        W 4915   2.090   2.560   8.173 -0.1248 -0.2408 -0.0153
 4052W        W 4916   5.970   5.940   8.455  0.2868  0.2444  0.0685
 4053W        W 4917   1.629   7.373   7.413 -0.0974  0.1729 -0.0096
 4054W        W 4918   1.907   6.083   3.234  0.1204 -0.0712  0.0704
 4055W        W 4919  29.142   4.357   6.082 -0.4585  0.0958 -0.0497
 4056W        W 4920   2.022   4.822   5.443  0.0751  0.2359  0.0813
 4057W        W 4921   4.939   5.929   6.361  0.2210  0.2151  0.0814
 4058W        W 4922   4.615   8.427   6.405 -0.1933 -0.2490  0.1854
 4059W        W 4923   2.369   6.943   6.745 -0.0590 -0.0465  0.0623
 4060W        W 4924   5.036   3.385   5.843  0.0063 -0.0862 -0.1243
 4061W        W 4925  28.392   4.968   5.959  0.0627 -0.0475 -0.1127
 4062W        W 4926   2.114   6.468   5.363  0.1905 -0.0346  0.0633
 4063W        W 4927   0.426   3.728   4.908  0.3887  0.1843 -0.1548
 4064W        W 4928   0.438   5.028   3.524 -0.0338 -0.1227  0.1636
 4065W        W 4929  28.797   5.163   5.710 -0.4349  0.2056  0.1826
 4066W        W 4930   3.952  11.932   6.918  0.1764  0.0928  0.0022
 4067W        W 4931   2.484   6.111   4.568 -0.5438 -0.0218  0.2162
 4068W        W 4932   1.763   5.035   3.958 -0.0521 -0.2882  0.1529
 4069W        W 4933   3.257   7.241   7.117 -0.1011  0.0025 -0.0827
 4070W        W 4934   2.907   3.926   2.437 -0.0313 -0.0259  0.0508
 4071W        W 4935   0.737   2.325   7.066  0.3139  0.0014  0.0507
 4072W        W 4936   3.986   6.045   6.023 -0.0532 -0.1912  0.0138
 4073W        W 4937   3.548   4.926   3.896  0.1863  0.1951  0.0019
 4074W        W 4938   3.295   6.473   6.271 -0.1849  0.0509  0.0511
 4075W        W 4939   0.574   5.986   7.408  0.0369  0.3475  0.0111
 4076W        W 4940   3.137   6.079   7.187  0.1493  0.0003 -0.0680
 4077W        W 4941   1.616   2.667   7.092  0.1612 -0.0229 -0.2245
 4078W        W 4942   0.894   6.686   2.559  0.0698  0.2520  0.0302
 4079W        W 4943   1.413   5.084   6.947 -0.1741  0.2110  0.1104
 4080W        W 4944   1.352   3.605   5.082  0.0517  0.3483  0.4933
 4081W        W 4945   1.840   7.887   1.299  0.0242 -0.0937  0.1007
 4082W        W 4946   1.018   4.082   5.751  0.1650  0.0580 -0.2504
 4083W        W 4947   3.900   4.782   3.553 -0.0841  0.1476 -0.0146
 4084W        W 4948   1.018   6.874   6.136  0.2445 -0.2586 -0.0271
 4085W        W 4949   2.236   6.001   7.745  0.0679  0.1404 -0.0248
 4086W        W 4950   2.436   5.773   6.309  0.0221  0.2406 -0.2513
 4087W        W 4951   0.312   3.488   6.908 -0.2077 -0.1394 -0.2516
 4088W        W 4952   2.398   8.836   5.986  0.2029  0.1153 -0.0161
 4089W        W 4953   2.619   3.216   7.826 -0.0211  0.0622  0.1917
 4090W        W 4954  28.586   3.554   9.843 -0.2319  0.0039  0.1869
 4091W        W 4955   1.360   3.734   5.565 -0.4339 -0.0809 -0.1775
 4092W        W 4956   2.745   6.457   3.650  0.3244 -0.1153 -0.0504
 4093W        W 4957  28.602   5.771   9.156 -0.2608 -0.0798  0.0823
 4094W        W 4958   4.779   4.607   7.124  0.0035  0.0715  0.2989
 4095W        W 4959   4.038   6.696   1.192 -0.0039 -0.0948 -0.0090
 4096W        W 4960   0.219   5.165   2.209  0.2231  0.1085  0.1358
 4097W        W 4961  27.589   4.200   6.412 -0.0373  0.2868  0.2562
 4098W        W 4962   2.938   4.912   4.695 -0.0551 -0.1093 -0.0834
 4099W        W 4963   2.898   5.619   8.022  0.0358  0.1835  0.1800
 4100W        W 4964   3.201   6.849   3.351  0.3063 -0.1731 -0.1287
 4101W        W 4965   1.220   5.267   5.858  0.1248  0.0102  0.3273
 4102W        W 4966   3.646   4.648   2.489 -0.0345  0.1021 -0.0336
 4103W        W 4967   1.921   7.026   3.397 -0.2658 -0.0896 -0.5368
 4104W        W 4968   1.093   4.677   4.119 -0.0642 -0.1410  0.3635
 4105W        W 4969   4.146   3.665   1.348  0.0748  0.2983 -0.0790
 4106W        W 4970   2.865   4.607   5.080  0.1470  0.2266 -0.0721
 4107W        W 4971   0.882   5.472   4.939  0.2621 -0.2335 -0.0583
 4108W        W 4972   1.888   7.412   5.627  0.1990 -0.0210 -0.1201
 4109W        W 4973   3.247   4.201   7.420  0.0356 -0.0707  0.1940
 4110W        W 4974   2.745   4.869   7.546 -0.2127 -0.0810  0.0081
 4111W        W 4975   5.728   6.662   5.575 -0.2890  0.0909  0.0805
 4112W        W 4976   3.365   5.407   5.429 -0.0178 -0.2895 -0.0044
 4113W        W 4977   1.154   9.215   3.908 -0.0390  0.1168 -0.1199
 4114W        W 4978  29.011   2.213   5.262  0.0222  0.3536 -0.0108
 4115W        W 4979   2.670   3.943   4.237  0.2110 -0.2198 -0.0758
 4116W        W 4980   1.779   4.775   7.787  0.1897 -0.0473  0.1366
 4117W        W 4981   3.297   7.675   2.715  0.0677 -0.2742 -0.1461
 4118W        W 4982   2.938   7.395   4.318 -0.3371 -0.1804 -0.1854
 4119W        W 4983   1.638   6.610   5.427 -0.1670 -0.1275  0.0116
 4120W        W 4984   2.550   5.637  10.438  0.0486 -0.0542  0.1069
 4121W        W 4985   3.758   4.203   5.039  0.0568  0.0749 -0.0936
 4122W        W 4986   3.968   3.091   6.730  0.1660 -0.2128 -0.1322
 4123W        W 4987  27.487   1.813   6.484 -0.0891  0.1359 -0.1289
 4124W        W 4988   1.655   5.096   3.371  0.0922  0.4220  0.1089
 4125W        W 4989   2.196   3.835   8.466 -0.0271 -0.0942  0.1501
 4126W        W 4990   3.915   3.849   5.413  0.0765 -0.1953 -0.0739
 4127W        W 4991   2.980   5.579   3.880  0.2532 -0.2043  0.2473
 4128W        W 4992  28.614   3.976   6.264 -0.1802 -0.2148 -0.2307
 4129W        W 4993   0.830   6.471   4.343  0.0648  0.2673 -0.0472
 4130W        W 4994   2.286   5.549   3.881  0.0210  0.1737 -0.2315
 4131W        W 4995   1.972   5.949   6.135  0.0931 -0.2240 -0.0528
 4132W        W 4996   5.028   7.623   5.431 -0.0739  0.3495  0.1563
 4133W        W 4997   0.987   5.073   6.663 -0.3818 -0.0391 -0.2458
 4134W        W 4998   0.748   6.306   5.757  0.1901 -0.0412 -0.0356
 4135W        W 4999   1.574   4.589   4.165 -0.2142 -0.1118 -0.4131
 4136W        W 5000   0.763   5.375   5.673  0.0348  0.3095  0.1119
 4137W        W 5001   1.352   4.867   6.247  0.4620  0.0011  0.0388
 4138W        W 5002  27.962   4.262   2.768 -0.1363 -0.4108  0.0874
 4139W        W 5003   1.719   4.027   5.135  0.2818  0.2658  0.0739
 4140W        W 5004   2.657   4.096   4.958 -0.2026 -0.1670  0.1188
 4141W        W 5005   0.951   4.163   3.431 -0.1061  0.2057  0.1162
 4142W        W 5006   2.812   6.123   2.277  0.3483  0.6448  0.2291
 4143W        W 5007  29.048   4.804   5.280 -0.1430 -0.4070  0.0586
 4144W        W 5008   4.382   4.072   6.965 -0.0458  0.2379  0.0842
 4145W        W 5009   2.478   2.425   5.272  0.3849 -0.2589  0.0771
 4146W        W 5010   3.068   2.938   7.955  0.0369  0.0728 -0.0858
 4147W        W 5011   3.458   6.348   5.360  0.0150  0.1242 -0.1190
 4148W        W 5012   3.817   5.919   9.006 -0.1895  0.1176 -0.1006
 4149W        W 5013   2.558   5.857   5.320  0.1163 -0.0823  0.0289
 4150W        W 5014   0.018   5.254   6.429 -0.0097 -0.4429 -0.1569
 4151W        W 5015   4.584   4.296   2.483 -0.2271  0.0606  0.3328
 4152W        W 5016   3.504   2.250   4.036  0.1577 -0.0184 -0.0185
 4153W        W 5017   0.727   4.414   2.209 -0.0962  0.1657 -0.0325
 4154W        W 5018   3.384   7.830   4.481  0.0398  0.2402 -0.1767
 4155W        W 5019   2.689   5.239   3.991  0.1853 -0.0415  0.0405
 4156W        W 5020   1.057   2.805   6.878  0.1616 -0.1719 -0.0782
 4157W        W 5021   0.005   2.700   5.186 -0.0522  0.0920 -0.0179
 4158W        W 5022   2.503   5.674   4.824 -0.3304 -0.0702 -0.1664
 4159W        W 5023  28.890   7.928   5.864 -0.0994  0.3416 -0.0240
 4160W        W 5024   0.791   6.046   4.987 -0.0844 -0.1388  0.1408
 4161W        W 5025   2.923   4.585   5.644 -0.0736  0.2715 -0.3763
 4162W        W 5026   0.699   4.838   5.715 -0.2457 -0.0003 -0.1870
 4163W        W 5027   1.870   1.913   4.529  0.0073 -0.1744 -0.3652
 4164W        W 5028   2.247   6.894   6.200  0.0633 -0.1683  0.1052
 4165W        W 5029   2.202   5.974   4.200  0.2387 -0.1557  0.0464
 4166W        W 5030   4.050   7.822   5.591 -0.1077 -0.1373  0.1836
 4167W        W 5031   2.700   6.135   5.682  0.0320  0.0087  0.1359
 4168W        W 5032  28.943   7.723   2.710 -0.0204 -0.1705 -0.2587
 4169W        W 5033   3.149   2.747   3.261  0.1125  0.1082 -0.0793
 4170W        W 5034  27.697   4.232   5.185 -0.0886  0.1022 -0.0391
 4171W        W 5035   1.116   1.537   5.055 -0.3157  0.1283  0.1604
 4172W        W 5036   1.687   6.062   6.862  0.1176  0.0726 -0.2206
 4173W        W 5037   1.016   4.409   3.022  0.0109 -0.2193 -0.0670
 4174W        W 5038   1.357   6.661   1.736 -0.1340  0.2220  0.0152
 4175W        W 5039   5.149   4.543   5.316 -0.0934 -0.1296  0.0646
 4176W        W 5040   1.911   4.327   5.584  0.0814 -0.3700 -0.2380
 4177W        W 5041   1.413   2.775   5.025  0.1988 -0.0813 -0.0575
 4178W        W 5042   2.454   6.328   4.995 -0.4484  0.1926  0.1091
 4179W        W 5043   3.054   7.525   5.301 -0.0324  0.4457 -0.0109
 4180W        W 5044   1.400   6.563   5.951  0.1795  0.0177 -0.1518
 4181W        W 5045   4.049   7.001   6.275 -0.1281  0.0615 -0.0157
 4182W        W 5046   3.004   5.126   5.847  0.1389  0.0184 -0.1077
 4183W        W 5047   4.395   2.100   2.952  0.1692 -0.0328 -0.1645
 4184W        W 5048   2.589   4.972   3.389  0.2177  0.2879  0.2191
 4185W        W 5049   4.803   4.704   4.912 -0.2608 -0.2220  0.0097
 4186W        W 5050   4.057   4.451   2.726 -0.3232  0.3330  0.0318
 4187W        W 5051   3.236   5.584   6.029 -0.1884  0.0374  0.5313
 4188W        W 5052   2.185   7.119   3.777  0.4073 -0.1159  0.1567
 4189W        W 5053   3.921   5.943   7.052 -0.1395 -0.1063  0.1465
 4190W        W 5054   1.114   4.052   5.192  0.0598  0.0297 -0.2136
 4191W        W 5055   1.658   4.077   8.393 -0.0422 -0.0944 -0.0372
 4192W        W 5056   3.959   4.867   4.189 -0.0817  0.2379 -0.1504
 4193W        W 5057   1.622   5.361   5.369  0.0130  0.3171  0.0774
 4194W        W 5058   1.853   5.395   6.793  0.1203  0.2560  0.2390
 4195W        W 5059   2.422   2.900   5.555 -0.0571 -0.2023 -0.1135
 4196W        W 5060   0.866   4.430   5.469  0.1327  0.4313  0.0369
 4197W        W 5061   2.550   6.095   6.669 -0.2164  0.0963 -0.2141
 4198W        W 5062   1.914   6.873   5.758 -0.2800 -0.0346  0.1210
 4199W        W 5063   5.141   2.992   5.516  0.2590  0.2125  0.2487
 4200W        W 5064   1.302   5.008   3.742 -0.0133 -0.0322  0.2694
 4201W        W 5065   0.938   6.465   6.529  0.1329 -0.0509 -0.2126
 4202W        W 5066   2.144   8.639   8.081  0.0190  0.0228 -0.3451
 4203W        W 5067   5.248   5.109   5.883  0.1987 -0.0868  0.3278
 4204W        W 5068   2.091   3.937   7.170 -0.1090  0.0583  0.2254
 4205W        W 5069  28.084   4.443   4.078 -0.1591  0.0455  0.1047
 4206W        W 5070   2.944   6.525   5.017 -0.5635  0.0057 -0.1568
 4207W        W 5071   3.592   9.123   5.414 -0.2141 -0.1045  0.1719
 4208W        W 5072  28.646   4.861   6.598  0.1411 -0.0301  0.1573
 4209W        W 5073   2.100   2.524   6.676 -0.0807 -0.2539 -0.1568
 4210W        W 5074   0.544   6.785   4.674 -0.0912 -0.0413 -0.0914
 4211W        W 5075   0.969   6.297   7.359  0.2185  0.2164  0.1105
 4212W        W 5076   5.566   5.797   5.064 -0.0806  0.0003 -0.3493
 4213W        W 5077  29.127   5.758   3.964 -0.0322  0.1876  0.0250
 4214W        W 5078  28.754   8.578  11.575 -0.2888 -0.0912 -0.2946
 4215W        W 5079  27.846   7.033  11.219  0.0178 -0.1913 -0.0889
 4216W        W 5080   4.030   6.058   8.438 -0.1361  0.0595  0.3273
 4217W        W 5081   3.390   8.014   9.437  0.0102 -0.1547 -0.2075
 4218W        W 5082   1.405   5.656   6.853 -0.0199 -0.1797 -0.2150
 4219W        W 5083   2.271   4.919   7.855  0.0953  0.1076  0.1877
 4220W        W 5084   1.167   2.181  11.368  0.2763  0.1423  0.1730
 4221W        W 5085   3.649   3.083   7.106  0.2037 -0.0543  0.1178
 4222W        W 5086   4.482   8.767   8.478  0.1335 -0.0740  0.0222
 4223W        W 5087  26.434   3.916   8.029 -0.1010  0.0950  0.2402
 4224W        W 5088  28.456   2.611   9.744 -0.0322  0.1174  0.0903
 4225W        W 5089   2.494   4.411   5.310 -0.0958 -0.2114 -0.0212
 4226W        W 5090   3.523   4.698   8.771  0.2454 -0.0993 -0.3500
 4227W        W 5091   4.033   3.269   8.833  0.0009 -0.2458  0.2117
 4228W        W 5092   0.469   1.515  12.636 -0.0665  0.2197  0.0025
 4229W        W 5093  26.834   7.249  11.343 -0.0461 -0.1561  0.0047
 4230W        W 5094   2.757   6.611   6.033  0.0017  0.2506  0.0184
 4231W        W 5095  27.272   3.722   8.566  0.1933 -0.1254 -0.1432
 4232W        W 5096   1.448   4.166  10.636  0.0091 -0.1556 -0.0726
 4233W        W 5097   1.357   5.556   8.412 -0.0115  0.1495 -0.0247
 4234W        W 5098   1.481   6.329  10.892 -0.0402 -0.1364 -0.1062
 4235W        W 5099   2.857   6.424   7.444 -0.2257 -0.3744  0.2811
 4236W        W 5100   3.424   6.317   9.032  0.1974  0.2164  0.1585
 4237W        W 5101  28.247   6.464   9.144 -0.1382  0.2409  0.3443
 4238W        W 5102  28.891   4.516  10.662 -0.2855  0.0296  0.3672
 4239W        W 5103   1.394   5.989   8.110 -0.1039 -0.1200 -0.2232
 4240W        W 5104   3.481   6.101  10.430 -0.0348 -0.3175 -0.2761
 4241W        W 5105  28.494   6.437   8.639 -0.0407  0.1101  0.0131
 4242W        W 5106  28.070   5.074   8.796 -0.2673 -0.1423  0.1051
 4243W        W 5107   1.775   5.544   8.626  0.0846  0.1592 -0.0573
 4244W        W 5108   4.557   5.823   9.373  0.1152 -0.0403 -0.1519
 4245W        W 5109   0.017   8.739  12.381 -0.0350 -0.2650  0.0029
 4246W        W 5110   1.131   3.955  10.299 -0.0104 -0.2016 -0.0940
 4247W        W 5111   0.597   3.867  11.509  0.0643 -0.0045 -0.4401
 4248W        W 5112  28.162   5.914  10.204  0.0533 -0.2855 -0.1824
 4249W        W 5113   3.576   6.489   9.651  0.1860 -0.0891  0.0300
 4250W        W 5114   0.797   4.186   9.594  0.2046 -0.0588  0.4762
 4251W        W 5115  28.493   5.806   9.611 -0.1005 -0.0289 -0.2714
 4252W        W 5116   2.991   6.073   9.205  0.0365  0.0190  0.0647
 4253W        W 5117   0.244   5.022   9.770  0.0193 -0.0303 -0.0397
 4254W        W 5118   2.195   7.124   5.347 -0.1529 -0.2087  0.0737
 4255W        W 5119   5.729   3.743   9.840 -0.2268 -0.3402  0.0501
 4256W        W 5120   0.982   7.781   8.653  0.0027 -0.4478 -0.1038
 4257W        W 5121   2.915   5.559   9.039 -0.3222  0.1689  0.2043
 4258W        W 5122  27.162   5.276   9.562  0.1431 -0.2494  0.1399
 4259W        W 5123   0.865   6.633   8.669  0.0919 -0.2683  0.2320
 4260W        W 5124   0.662   2.229   8.411  0.3931  0.1010 -0.3884
 4261W        W 5125   0.573   3.671   9.448  0.0457  0.2811 -0.1362
 4262W        W 5126   3.724   7.629   9.133  0.1472  0.1473 -0.0688
 4263W        W 5127   2.350   5.381   6.613  0.1463 -0.0267  0.0269
 4264W        W 5128   0.563   6.619  10.251  0.0576  0.0283  0.1028
 4265W        W 5129   1.461   2.404   9.577 -0.1142 -0.0415 -0.2060
 4266W        W 5130  28.850   6.231   5.755 -0.0865  0.0197 -0.0908
 4267W        W 5131   2.885   5.784   8.496  0.0821 -0.1491 -0.0119
 4268W        W 5132   2.417   3.065   6.634 -0.0984  0.3504 -0.2044
 4269W        W 5133  29.045   6.135   8.185 -0.0719  0.0896  0.1856
 4270W        W 5134  28.429   4.358   7.101 -0.1034  0.1581 -0.1769
 4271W        W 5135   1.538   5.578  10.104 -0.2509 -0.0070  0.0187
 4272W        W 5136   0.090   5.580   7.884  0.2179  0.0783 -0.2822
 4273W        W 5137   0.713   5.887   5.454  0.2014 -0.0956 -0.1986
 4274W        W 5138   3.946   3.364   5.280  0.4281 -0.1065  0.0226
 4275W        W 5139  26.435   6.674  10.267 -0.0082 -0.1157  0.0586
 4276W        W 5140  26.477   4.933  10.569 -0.2610 -0.0742 -0.0165
 4277W        W 5141   1.192   4.850   7.397 -0.1669 -0.1943 -0.4553
 4278W        W 5142   1.756   4.804   8.642  0.0310  0.2525  0.1178
 4279W        W 5143   1.771   0.661   9.500  0.0780  0.1730  0.1474
 4280W        W 5144  28.700   4.959  10.184  0.2970  0.0318 -0.1498
 4281W        W 5145   2.859   4.199   7.692  0.1211 -0.0652  0.0675
 4282W        W 5146   0.747   7.197   9.411 -0.1804 -0.0426  0.2504
 4283W        W 5147   1.343   7.143   7.743 -0.4984  0.0862  0.2263
 4284W        W 5148   1.132   7.008   8.453  0.5095  0.2544 -0.0614
 4285W        W 5149   0.680   2.850   7.219 -0.1183  0.0127  0.3399
 4286W        W 5150   3.987   8.940  10.250 -0.3294  0.1403  0.3134
 4287W        W 5151   1.861   4.363  10.479  0.1147 -0.2621 -0.2099
 4288W        W 5152   5.472   8.169   6.657  0.2730  0.2085 -0.0042
 4289W        W 5153   0.370   6.552   9.729  0.1852  0.2830  0.3713
 4290W        W 5154   0.057   3.795   7.259 -0.5151  0.1111  0.2107
 4291W        W 5155   1.418   7.643   8.994  0.0551  0.1553  0.1919
 4292W        W 5156   4.800   6.575   8.814  0.2267 -0.1175  0.1595
 4293W        W 5157   2.529   4.853   7.034  0.0104  0.0004  0.2426
 4294W        W 5158   1.342   0.554   9.771 -0.0650 -0.1672 -0.0200
 4295W        W 5159  26.967   5.041   8.715  0.0832 -0.1058 -0.1202
 4296W        W 5160  27.144   2.051   9.940  0.1900  0.1799 -0.1170
 4297W        W 5161   2.004   2.760   9.467 -0.0985 -0.1222 -0.2066
 4298W        W 5162   3.211   5.875  10.766 -0.1360  0.1459 -0.0262
 4299W        W 5163   3.055   5.811   6.493 -0.0575  0.0860  0.0357
 4300W        W 5164   2.468   5.750  11.832  0.0511 -0.0837 -0.2641
 4301W        W 5165   0.084   2.968   9.594  0.0421 -0.0875 -0.0412
 4302W        W 5166   3.231   8.745  10.371 -0.1318 -0.1553 -0.0723
 4303W        W 5167   4.213   3.976  11.462  0.1400  0.3302 -0.1891
 4304W        W 5168   3.418   5.782  11.203 -0.0246 -0.0385 -0.2762
 4305W        W 5169   0.798   4.277  10.610 -0.3296  0.0919 -0.0383
 4306W        W 5170  28.762   5.652   7.597 -0.0461 -0.2217  0.1896
 4307W        W 5171   0.548   3.929  10.929 -0.2538  0.2979  0.0112
 4308W        W 5172  29.007   2.207  10.397  0.1059 -0.0438  0.1032
 4309W        W 5173   4.589   6.846   9.453  0.1485  0.0763 -0.0310
 4310W        W 5174   3.996   6.252   9.335  0.0022 -0.0019 -0.0234
 4311W        W 5175   2.663   7.477  11.563  0.0684  0.0672 -0.0557
 4312W        W 5176  27.982   3.027   7.388 -0.5776 -0.1170 -0.3230
 4313W        W 5177   3.070   5.240   9.490  0.0196 -0.1352  0.2112
 4314W        W 5178   1.853   7.465   8.604 -0.1372  0.0852  0.2617
 4315W        W 5179  27.776   6.232   9.130 -0.0668 -0.0402  0.0802
 4316W        W 5180   3.078   4.213   7.000 -0.2077 -0.1109  0.1696
 4317W        W 5181   2.731   8.002  10.381  0.0958  0.1444  0.0813
 4318W        W 5182   5.603   4.279  10.023 -0.0263  0.1281  0.1964
 4319W        W 5183   0.666   6.227   9.958 -0.0652  0.1096  0.2038
 4320W        W 5184   1.764   7.739   8.231 -0.1358 -0.0384 -0.0435
 4321W        W 5185   2.691   5.048  12.583 -0.4199 -0.1718 -0.1534
 4322W        W 5186   3.374  28.184   8.962 -0.2517 -0.0911  0.1076
 4323W        W 5187  28.064   5.556   8.902  0.0713 -0.3001  0.0351
 4324W        W 5188  27.748   6.177  10.472  0.1641  0.0664 -0.0815
 4325W        W 5189  28.099   6.140   9.776 -0.1677  0.2957 -0.4352
 4326W        W 5190   4.652   6.091  11.634  0.1894  0.1454  0.0007
 4327W        W 5191   3.287   7.292  10.123 -0.0193  0.1807 -0.1229
 4328W        W 5192   2.504   5.313   7.630  0.1726 -0.0445 -0.0106
 4329W        W 5193   0.336   4.676   5.981 -0.0687  0.1792  0.3808
 4330W        W 5194   2.807   4.585   8.015  0.0973 -0.4634  0.1576
 4331W        W 5195   1.857   6.646  10.772 -0.0965 -0.1094 -0.1067
 4332W        W 5196   3.797   3.762   8.748  0.1797 -0.1119  0.1291
 4333W        W 5197   2.807   4.687   6.542  0.2769  0.3632 -0.0364
 4334W        W 5198   3.934   3.473   9.917 -0.1977 -0.0051  0.2393
 4335W        W 5199   1.998   6.470   6.010 -0.1377 -0.3272 -0.1305
 4336W        W 5200   3.188   7.514   8.611  0.0942  0.1983  0.2093
 4337W        W 5201   4.602   4.870   8.018 -0.2306 -0.0043 -0.1697
 4338W        W 5202   2.600   6.329   9.378  0.1423 -0.0566  0.2706
 4339W        W 5203   2.069   5.481   6.217  0.0064 -0.0525 -0.0342
 4340W        W 5204  28.271   4.602   8.977 -0.1879 -0.0239  0.1986
 4341W        W 5205   0.929   8.721   9.798  0.3041 -0.1677  0.2205
 4342W        W 5206   0.255   6.069   9.664 -0.2567  0.2819 -0.1287
 4343W        W 5207   1.049   5.314   9.186  0.2676 -0.0233 -0.0082
 4344W        W 5208   2.300   6.270   9.732 -0.0485 -0.2062 -0.2081
 4345W        W 5209   2.995   4.774   8.854 -0.0605 -0.1694 -0.1731
 4346W        W 5210   0.463   7.878  12.094 -0.2538 -0.2618 -0.1930
 4347W        W 5211   4.928   3.690   6.327  0.1746  0.1632  0.0112
 4348W        W 5212   1.188   5.043  10.873 -0.0028  0.1909 -0.3538
 4349W        W 5213  27.512   1.967   9.610 -0.1490 -0.1858  0.0953
 4350W        W 5214   2.254   6.288  10.820 -0.2251  0.0021  0.0086
 4351W        W 5215   4.044   1.796  10.753 -0.2822 -0.0559 -0.3696
 4352W        W 5216   2.631   7.538  10.627  0.1170 -0.1339  0.1113
 4353W        W 5217   1.060   6.263   8.395 -0.3984 -0.0278 -0.0008
 4354W        W 5218   1.640   4.709   7.301  0.4007 -0.3062 -0.0330
 4355W        W 5219   0.840   3.548   7.609  0.2207 -0.0256  0.0849
 4356W        W 5220   3.066   6.190   8.706 -0.0141  0.0115 -0.0420
 4357W        W 5221   1.144   7.459   7.327  0.0971  0.1714  0.0428
 4358W        W 5222   1.421   7.343  10.342  0.2206 -0.0046 -0.4352
 4359W        W 5223   0.523   2.250  10.530  0.1326  0.0848 -0.0768
 4360W        W 5224   2.634   3.681   8.989 -0.3724 -0.0426  0.0546
 4361W        W 5225   1.962   5.894   8.159  0.1885 -0.1285 -0.0239
 4362W        W 5226   0.230   6.972   7.799 -0.0295  0.1062  0.3414
 4363W        W 5227   1.209   5.700   8.861 -0.0159 -0.0885  0.1353
 4364W        W 5228   2.780   6.040   7.747 -0.0660 -0.1770  0.0199
 4365W        W 5229   1.413   6.546   9.230 -0.2004  0.3141 -0.1526
 4366W        W 5230   0.410   7.405   9.709 -0.0940  0.3163 -0.2145
 4367W        W 5231   1.064   2.148   8.737 -0.1832  0.0120 -0.3179
 4368W        W 5232   3.410   5.090  10.345 -0.2082  0.0354 -0.1220
 4369W        W 5233   2.926   3.255   9.658 -0.1116  0.0512  0.0780
 4370W        W 5234   0.377   6.459   8.477  0.0232  0.3674 -0.1440
 4371W        W 5235   0.849   3.993   8.571 -0.4063 -0.3249 -0.0534
 4372W        W 5236   2.395   2.255   7.829 -0.0898 -0.0348  0.1457
 4373W        W 5237   1.116   3.696   9.467 -0.0139  0.1269  0.0349
 4374W        W 5238   1.698   3.958  11.466  0.1436  0.0062  0.2973
 4375W        W 5239   0.779   6.696   9.372  0.1855  0.0738  0.1029
 4376W        W 5240   2.212   5.084  11.011  0.1155  0.3682 -0.2818
 4377W        W 5241   2.097   6.757   9.865 -0.0095 -0.1014 -0.0873
 4378W        W 5242   2.167   6.350  11.809  0.2770 -0.0552  0.4693
 4379W        W 5243  28.768   3.877   9.344 -0.1622 -0.2920  0.0338
 4380W        W 5244   0.309   2.305   7.442  0.3058 -0.0536  0.1191
 4381W        W 5245  28.527   5.501   8.692  0.1773  0.1145  0.0371
 4382W        W 5246   0.401   8.671   9.673 -0.2775 -0.0757  0.1251
 4383W        W 5247   0.276   7.619   7.049 -0.1737 -0.1897 -0.0540
 4384W        W 5248   3.240   4.636  10.307  0.0863  0.1503  0.0964
 4385W        W 5249  28.662   4.367  10.190 -0.2695 -0.2151  0.1175
 4386W        W 5250   2.422   6.472  11.383 -0.1268 -0.1592  0.3158
 4387W        W 5251   3.845   5.419   8.988  0.2077 -0.2970 -0.1047
 4388W        W 5252   2.110   2.066   7.491 -0.1265 -0.1641  0.0575
 4389W        W 5253   5.348   5.153   4.307  0.2683 -0.0973  0.4339
 4390W        W 5254  28.716   7.419   9.246 -0.0202 -0.0125 -0.1187
 4391W        W 5255  27.188   6.642   7.873 -0.0297 -0.2281 -0.1645
 4392W        W 5256  27.968   5.633   9.772 -0.0782 -0.0511 -0.0304
 4393W        W 5257   2.356   3.104  10.212  0.4900  0.0438  0.2621
 4394W        W 5258   0.754   6.147   6.914 -0.0352  0.2793 -0.0876
 4395W        W 5259   2.207   6.248   7.017 -0.1441  0.0985  0.1426
 4396W        W 5260   1.550   3.968   7.833  0.1624 -0.1008 -0.0295
 4397W        W 5261   2.959   4.023   8.165 -0.1725 -0.0581  0.2094
 4398W        W 5262   0.874   3.441   8.579 -0.1388 -0.1593 -0.0234
 4399W        W 5263   3.321   6.915   9.770  0.2674  0.1103  0.0341
 4400W        W 5264   4.907   3.272   7.591  0.0080  0.2396  0.1560
 4401W        W 5265   0.394   5.163   7.053  0.1764 -0.1948 -0.1156
 4402W        W 5266   1.484   8.940   8.937 -0.1239 -0.3675 -0.1138
 4403W        W 5267   1.155   5.809   9.371 -0.2694  0.0911  0.0477
 4404W        W 5268  28.776   5.168   8.385 -0.0904  0.2046  0.1203
 4405W        W 5269   0.310   7.390   8.614  0.0879  0.1013  0.0348
 4406W        W 5270  28.841   6.889  10.179 -0.1757 -0.0319  0.1199
 4407W        W 5271  26.674   3.253   9.840 -0.1177  0.0616 -0.2021
 4408W        W 5272   0.471   5.527   8.286  0.0856 -0.0235  0.2127
 4409W        W 5273   1.677   0.272   8.239 -0.1175 -0.2621 -0.1195
 4410W        W 5274   0.808   1.469   8.648 -0.0685  0.1511 -0.0233
 4411W        W 5275  27.151   3.015   8.366  0.2470 -0.2972 -0.0246
 4412W        W 5276  28.212   3.571   7.586 -0.2037  0.0156 -0.2111
 4413W        W 5277   4.065   2.320  11.645  0.0083  0.0407  0.0570
 4414W        W 5278   1.647   5.943   8.916 -0.1684 -0.2348  0.1491
 4415W        W 5279   3.949   7.194  11.884  0.0692  0.3130 -0.1505
 4416W        W 5280   1.053   3.783  10.881  0.3898 -0.3519  0.0184
 4417W        W 5281  28.403   4.205   9.285 -0.0097  0.0551 -0.1472
 4418W        W 5282   2.325   5.349   9.574 -0.1560 -0.2588  0.0842
 4419W        W 5283   1.199   5.531   7.977  0.2186  0.0736  0.3117
 4420W        W 5284  28.553   2.395  10.239 -0.1459  0.1787  0.0462
 4421W        W 5285   3.619   5.167   8.593 -0.2547 -0.1947 -0.0413
 4422W        W 5286   2.722   8.157   5.486  0.1013 -0.0523  0.2440
 4423W        W 5287   1.953   4.343   7.425 -0.1548  0.0084 -0.1309
 4424W        W 5288  28.735   6.433  10.921 -0.0804 -0.4270 -0.0319
 4425W        W 5289   0.278   4.908  10.679  0.0890  0.2375 -0.0245
 4426W        W 5290   4.198   4.109   8.460  0.0665 -0.2436 -0.1688
 4427W        W 5291   0.238   2.463   9.657  0.0924  0.1266  0.1580
 4428W        W 5292   2.616   6.190   8.852 -0.0714  0.2024  0.0631
 4429W        W 5293   3.212   4.318   5.307  0.0586 -0.2916  0.2318
 4430W        W 5294   2.335   4.066   8.902 -0.1908 -0.0374 -0.1722
 4431W        W 5295   3.059   6.237   6.734 -0.0132  0.1870  0.1277
 4432W        W 5296   2.744   6.571  10.019  0.2393 -0.1665 -0.0825
 4433W        W 5297   0.371   6.240  12.028 -0.0391 -0.1442 -0.0900
 4434W        W 5298   0.681   2.548   9.329 -0.2649 -0.2444  0.0421
 4435W        W 5299   5.326   4.671   7.215  0.0704 -0.0592  0.0950
 4436W        W 5300  27.779   5.568  11.607  0.0581 -0.2175 -0.1248
 4437W        W 5301   3.489   3.843   7.158  0.1744  0.3509  0.0416
 4438W        W 5302   5.665   7.617   9.127 -0.2164 -0.2041  0.0177
 4439W        W 5303  28.559   6.205  11.402  0.0335  0.0011  0.0191
 4440W        W 5304  27.977   7.823   9.746 -0.0265  0.0747 -0.0619
 4441W        W 5305   3.132   3.502  10.857  0.0975  0.3650 -0.2189
 4442W        W 5306   3.451   8.689   9.281 -0.0120 -0.0524 -0.2212
 4443W        W 5307   4.629   8.048   9.390  0.2256  0.0067 -0.1277
 4444W        W 5308  28.850   1.584   8.279  0.0855 -0.1463  0.2876
 4445W        W 5309   2.837   4.079   9.850  0.0473  0.0311  0.0962
 4446W        W 5310   2.810   6.147   9.787  0.1104  0.1017 -0.1882
 4447W        W 5311   3.554   5.191   5.863  0.0333  0.2075 -0.0031
 4448W        W 5312  27.956   3.916  10.583  0.1901 -0.0134 -0.1702
 4449W        W 5313   2.231   7.340  11.331 -0.2240  0.0103  0.2834
 4450W        W 5314   4.014   3.743   7.281  0.1362  0.0375 -0.1858
 4451W        W 5315   1.612   2.120  10.074  0.3330 -0.0320 -0.1643
 4452W        W 5316   5.580   8.025   8.853  0.0651 -0.0083 -0.0764
 4453W        W 5317   1.780   6.320   7.962 -0.0576 -0.1270  0.1691
 4454W        W 5318  28.056   7.697   6.947 -0.2837  0.0378 -0.0996
 4455W        W 5319  27.888   7.340   8.004  0.1989  0.2076  0.0751
 4456W        W 5320   1.222   4.619   8.988 -0.2920 -0.0038 -0.0601
 4457W        W 5321  26.768   3.136   8.013  0.3876  0.2367 -0.1481
 4458W        W 5322   0.818   1.165  11.350 -0.1938  0.1838  0.1218
 4459W        W 5323   2.668   8.294   8.870 -0.2032  0.0605 -0.0706
 4460W        W 5324   4.004   4.566   9.408 -0.1023 -0.3171 -0.2138
 4461W        W 5325  27.850   6.918   9.198  0.0455  0.0177 -0.1965
 4462W        W 5326   2.505   5.256   5.220  0.2457 -0.3699  0.1282
 4463W        W 5327   0.625   4.685   9.804 -0.0745  0.3199  0.0248
 4464W        W 5328   3.989   4.592   8.569 -0.1185 -0.0342 -0.0119
 4465W        W 5329   0.564   9.049   9.969 -0.2644 -0.1197  0.3263
 4466W        W 5330   3.909   8.776  10.855  0.0634  0.0377 -0.2131
 4467W        W 5331   3.652   5.385   6.952 -0.0464  0.1194  0.0998
 4468W        W 5332  28.841   5.444   9.397  0.2894 -0.1864  0.0398
 4469W        W 5333   2.852   6.596   7.999  0.1348 -0.3624  0.0686
 4470W        W 5334   3.206   2.913   7.447  0.3247  0.3734  0.1724
 4471W        W 5335   1.217   3.512  10.497  0.0075 -0.3210 -0.1586
 4472W        W 5336   3.661   5.147   9.802  0.0684  0.0576  0.1138
 4473W        W 5337   5.504   6.997   7.745 -0.0023 -0.2695  0.1978
 4474W        W 5338   1.528   6.194   8.519 -0.3632  0.4382  0.2442
 4475W        W 5339   1.139   6.891  10.433 -0.1182  0.2260  0.1308
 4476W        W 5340   0.670   3.237   9.246 -0.1961  0.1436  0.0598
 4477W        W 5341   0.775   2.981   7.718  0.1165  0.2390 -0.2048
 4478W        W 5342   1.410   9.451   7.926 -0.0615 -0.1257 -0.0867
 4479W        W 5343  28.391   8.211  11.396  0.0620 -0.1510  0.2058
 4480W        W 5344   0.799   6.257   7.883 -0.0138 -0.3820 -0.1821
 4481W        W 5345   3.720   8.207   7.429 -0.0240 -0.0039 -0.2172
 4482W        W 5346  28.579   4.118  11.647  0.1157  0.1185 -0.0039
 4483W        W 5347   3.167   4.747   8.383 -0.3910  0.1434 -0.1922
 4484W        W 5348   0.531   7.488   7.596 -0.0580  0.0619 -0.3693
 4485W        W 5349  28.793   4.691   9.802  0.1914  0.5198  0.1536
 4486W        W 5350   2.005   8.790   9.844  0.0565  0.0758 -0.0180
 4487W        W 5351   2.672   5.101  11.299 -0.0647 -0.0769 -0.1229
 4488W        W 5352   3.351   9.585   9.920  0.1911  0.0234  0.0237
 4489W        W 5353   2.022   4.032  10.085  0.1105  0.3869 -0.0779
 4490W        W 5354  28.810   3.266   9.152 -0.3118 -0.1840  0.0879
 4491W        W 5355   1.135   6.226   8.994 -0.2421 -0.3815  0.1923
 4492W        W 5356  29.143   2.230   8.965 -0.0654 -0.0578 -0.2383
 4493W        W 5357   1.300   5.364  11.263 -0.4331  0.2694 -0.1750
 4494W        W 5358   1.994   4.948   9.235  0.0900  0.1970  0.0278
 4495W        W 5359   5.178   2.682   6.464 -0.0083  0.3280  0.1938
 4496W        W 5360  28.784   4.657   8.959  0.0776 -0.2192 -0.1586
 4497W        W 5361  26.198   4.777   9.496 -0.2425 -0.2853 -0.2573
 4498W        W 5362   1.539   3.227  10.243  0.1366 -0.2344 -0.2471
 4499W        W 5363   3.904   5.892  11.254 -0.0275 -0.1495  0.0641
 4500W        W 5364   2.756   7.872   9.183 -0.0190 -0.1733  0.1316
 4501W        W 5365  28.368   3.759   9.038  0.1436 -0.0885  0.1422
 4502W        W 5366   1.660   3.520   7.644  0.1136  0.0610 -0.0132
 4503W        W 5367   3.536   6.131   8.499 -0.4614 -0.1712 -0.1595
 4504W        W 5368   2.180   4.817   7.384 -0.1677  0.1939 -0.2432
 4505W        W 5369   1.898   4.277   7.933  0.0626  0.1254  0.0308
 4506W        W 5370   0.869   3.377   9.710 -0.0227 -0.3946 -0.0427
 4507W        W 5371   1.507   5.224   7.710 -0.1335 -0.1197  0.2583
 4508W        W 5372  25.768   6.375   6.770 -0.1111 -0.0086  0.0005
 4509W        W 5373   1.281   3.610   7.338  0.0811 -0.2382  0.0231
 4510W        W 5374   3.708   2.191   8.108  0.0142 -0.0371  0.4111
 4511W        W 5375   4.411   3.884  10.150 -0.0276  0.1723  0.0396
 4512W        W 5376   5.103   4.059   8.241  0.3208  0.3284  0.0276
 4513W        W 5377  28.558   6.353   9.521  0.2574  0.1025  0.0551
 4514W        W 5378   0.266   5.703   9.146  0.0226  0.1429 -0.1512
 4515W        W 5379  27.618   2.300  10.004  0.0691 -0.0221  0.0449
 4516W        W 5380   1.762   4.912  10.805  0.0772 -0.3533  0.1399
 4517W        W 5381   2.719   5.046   8.201 -0.0506  0.3045  0.0187
 4518W        W 5382   4.519   5.087   7.140  0.0685  0.1037  0.1255
 4519W        W 5383   1.450   8.617   9.810  0.1807 -0.2015 -0.2649
 4520W        W 5384   3.706   3.997  12.349 -0.0263  0.1068  0.1376
 4521W        W 5385   1.263   3.776   8.423 -0.6350  0.0030 -0.0959
 4522W        W 5386   2.053   5.549   9.188  0.0218 -0.1267 -0.0596
 4523W        W 5387  27.565   6.902  10.823 -0.0981 -0.2646  0.0818
 4524W        W 5388   0.375   4.089   8.363  0.0800  0.0680 -0.1250
 4525W        W 5389   0.598   4.589  10.958  0.2552 -0.0617  0.2288
 4526W        W 5390  27.977   3.250  11.097  0.3674 -0.2767 -0.3760
 4527W        W 5391   2.469   9.601   9.033  0.2934 -0.0554 -0.0145
 4528W        W 5392  27.889   4.805  10.432  0.0125  0.0739  0.2190
 4529W        W 5393   0.228   7.093  10.863 -0.4173 -0.2923 -0.2131
 4530W        W 5394   0.623   4.922   7.481 -0.1904 -0.0789  0.0063
 4531W        W 5395   2.106   4.308   9.245 -0.1565  0.0959  0.2891
 4532W        W 5396   2.633   7.119  11.890 -0.1762  0.0027 -0.2399
 4533W        W 5397   0.664   7.564   8.987 -0.3149 -0.2292  0.0581
 4534W        W 5398   1.628   6.118  11.411 -0.2437  0.3520  0.1860
 4535W        W 5399   3.476   7.544   6.790  0.0838  0.0908  0.2855
 4536W        W 5400  27.537   7.000  11.671 -0.1848 -0.3123  0.0234
 4537W        W 5401   0.588   7.048   8.974  0.1358  0.3002  0.0415
 4538W        W 5402  28.780   6.009   8.571  0.1735  0.0189  0.1702
 4539W        W 5403   2.305   5.363   8.337  0.0158  0.1494  0.1403
 4540W        W 5404   2.789   2.865   8.844  0.2313 -0.0991 -0.0536
 4541W        W 5405  27.445   4.871   9.314 -0.1029 -0.0561 -0.1538
 4542W        W 5406   2.816   3.126   7.224  0.2708  0.2763 -0.0749
 4543W        W 5407   0.270   4.552   8.246  0.0483  0.0325 -0.1768
 4544W        W 5408   0.743   3.802   9.911  0.2303  0.2862 -0.1242
 4545W        W 5409   3.583   2.083   7.275 -0.0766  0.0033  0.0067
 4546W        W 5410   3.331   4.627  12.063  0.1008 -0.2095  0.0954
 4547W        W 5411   1.023   8.026   9.579 -0.0780  0.1555  0.2032
 4548W        W 5412   3.946   3.977  10.457  0.0060 -0.2899  0.2122
 4549W        W 5413   1.044   9.273  10.844 -0.1534  0.0528  0.0522
 4550W        W 5414  29.118   6.615  12.101 -0.2475 -0.2026 -0.0472
 4551W        W 5415   2.223   5.426  10.115 -0.0037 -0.1473  0.1110
 4552W        W 5416   3.267   5.982   9.924 -0.1273  0.0846 -0.0943
 4553W        W 5417   4.664   4.179   8.036  0.0393  0.1084  0.1881
 4554W        W 5418   1.390   6.642   8.125  0.1158 -0.2752  0.0483
 4555W        W 5419   0.110   4.469  11.052 -0.0530 -0.0389 -0.0085
 4556W        W 5420   1.180   6.843   9.526  0.0634  0.2496  0.3691
 4557W        W 5421   2.256   7.664   8.406  0.1700 -0.1942  0.0974
 4558W        W 5422  28.491   5.112   9.689  0.2255  0.0560  0.0171
 4559W        W 5423  28.610   9.580   9.778 -0.0724 -0.2211 -0.1449
 4560W        W 5424   1.911   4.348   8.720 -0.0282 -0.0832  0.0406
 4561W        W 5425  29.019   3.471   9.562 -0.1178 -0.5974 -0.0065
 4562W        W 5426   2.572   7.007   8.976  0.0529 -0.1822  0.0116
 4563W        W 5427   0.422   5.679   6.177  0.3171  0.0734  0.0529
 4564W        W 5428   2.705   4.895  10.198  0.1462  0.0833 -0.2504
 4565W        W 5429   5.750   2.854   8.066 -0.2309  0.0317  0.0981
 4566W        W 5430   2.898   8.787   9.258  0.0284 -0.2966  0.3543
 4567W        W 5431  28.398   5.504   9.955  0.2336  0.0363  0.1333
 4568W        W 5432   0.073   4.555   9.689 -0.0274  0.2525 -0.0250
 4569W        W 5433   3.031   1.106   9.317  0.1663  0.1753  0.2095
 4570W        W 5434  27.334   8.267   9.483  0.0074  0.0406 -0.0663
 4571W        W 5435   1.227   3.559  10.017  0.2177  0.3779  0.1839
 4572W        W 5436  27.015   3.496   9.510 -0.0162  0.0469 -0.3729
 4573W        W 5437  26.514   1.924   9.419 -0.1128 -0.1764  0.0529
 4574W        W 5438   2.682   5.052   9.691 -0.0617 -0.1691  0.0499
 4575W        W 5439   1.473   4.187   8.953 -0.0269 -0.1080 -0.1814
 4576W        W 5440   1.436   6.931  10.813 -0.2997 -0.1440 -0.2180
 4577W        W 5441   3.030   4.936  10.702 -0.1318  0.0262  0.2011
 4578W        W 5442   1.141   8.188   6.479  0.1760 -0.2912 -0.1970
 4579W        W 5443   2.709   7.000  10.698 -0.0014 -0.4173 -0.2216
 4580W        W 5444   2.673   8.262   9.542  0.4861 -0.0597  0.1110
 4581W        W 5445   2.434   5.681   8.833  0.1084 -0.1425  0.1617
 4582W        W 5446   2.140   6.111   8.711 -0.0884  0.2762 -0.2038
 4583W        W 5447   3.778   2.200   5.983  0.0891 -0.1721 -0.0671
 4584W        W 5448   1.612   5.829   7.739 -0.0450 -0.1545 -0.0646
 4585W        W 5449   4.715   5.510   8.789  0.3662 -0.2120 -0.2631
 4586W        W 5450   3.715   3.141   9.270  0.0417  0.0675 -0.1753
 4587W        W 5451   2.140   6.071   9.329  0.0411  0.1448  0.2331
 4588W        W 5452   3.967   7.380   9.692  0.0837 -0.4048  0.2620
 4589W        W 5453   3.797   2.998   9.736  0.3702  0.2568  0.3472
 4590W        W 5454   0.975   2.367  10.291 -0.3814  0.3740 -0.1551
 4591W        W 5455   1.695   4.599   9.072 -0.0699  0.0145 -0.0666
 4592W        W 5456  28.921   2.732  10.021  0.0208 -0.2486 -0.0918
 4593W        W 5457  27.865   4.390   9.985 -0.1012 -0.1016  0.0646
 4594W        W 5458  27.829   6.571   8.739  0.2200  0.0545 -0.1471
 4595W        W 5459   0.522   5.032   8.484  0.1190  0.0970 -0.0368
 4596W        W 5460   1.389   5.048   8.282  0.2126  0.0136  0.0073
 4597W        W 5461  29.080   3.664   6.574 -0.3019 -0.1252  0.1672
 4598W        W 5462   2.161   7.413   8.964 -0.1684 -0.1478 -0.2112
 4599W        W 5463   5.110   4.458   9.929 -0.1245 -0.2640  0.2851
 4600W        W 5464  29.146   8.285   7.699  0.2692 -0.5734 -0.0112
 4601W        W 5465   1.573   5.476   9.153  0.0943  0.0986  0.3680
 4602W        W 5466   0.275   8.238   8.141 -0.3085  0.0153 -0.1780
 4603W        W 5467   2.053   5.425  10.592 -0.0093 -0.1563 -0.0658
 4604W        W 5468   2.902   4.996  13.026 -0.0892  0.0532 -0.0089
 4605W        W 5469   1.284   5.921   9.852 -0.0975 -0.4253  0.0944
 4606W        W 5470   2.647   5.044   9.167 -0.1788  0.0989 -0.1587
 4607W        W 5471  29.094   7.219   8.938 -0.1017  0.0615 -0.0985
 4608W        W 5472   0.262   7.431   9.247 -0.0358  0.3643  0.1992
 4609W        W 5473   2.838   5.756  11.302  0.0662 -0.3215  0.0522
 4610W        W 5474   5.077   5.288   9.862  0.1612 -0.1049  0.1755
 4611W        W 5475   3.089   6.171  11.153 -0.0413  0.0943  0.1372
 4612W        W 5476   1.764   6.106   9.917 -0.0097 -0.0150 -0.0860
 4613W        W 5477  28.959   2.775   6.216  0.4101  0.0712  0.0305
 4614W        W 5478   1.078   7.752  13.861 -0.2232  0.5567  0.1379
 4615W        W 5479  28.346   4.422  11.337 -0.0472  0.3188  0.1987
 4616W        W 5480   4.049   6.364  12.285 -0.2958 -0.0917  0.1105
 4617W        W 5481   4.792   7.243  15.297  0.0442 -0.1926 -0.2294
 4618W        W 5482   3.405   3.686  11.667  0.1562 -0.1142 -0.0350
 4619W        W 5483   1.605   6.106   9.435 -0.0856  0.0847  0.2388
 4620W        W 5484  29.074   5.773  11.043  0.0003 -0.1491  0.2907
 4621W        W 5485   1.378   5.833  11.010 -0.4761  0.1311 -0.0856
 4622W        W 5486   4.024   6.056  15.978 -0.2080 -0.0266  0.2399
 4623W        W 5487  27.264   7.452  11.530 -0.0585 -0.1194  0.1846
 4624W        W 5488   0.968   4.145  15.701  0.1004 -0.2699 -0.0034
 4625W        W 5489   5.516   7.757  15.978 -0.2352  0.3149 -0.1038
 4626W        W 5490   2.377   3.534  13.120 -0.2294 -0.3570  0.0543
 4627W        W 5491   1.648   5.616  14.865 -0.1400  0.1345  0.1415
 4628W        W 5492  28.381   4.103  12.610  0.0524 -0.0936  0.2804
 4629W        W 5493  28.955   5.181  12.369 -0.2232  0.0241  0.0747
 4630W        W 5494  28.380   8.114  10.386  0.1779  0.1923 -0.0902
 4631W        W 5495   0.286   5.231  12.632  0.0430  0.0847 -0.0576
 4632W        W 5496   2.819   7.626  12.697  0.0068 -0.0709 -0.2107
 4633W        W 5497   2.052   5.505  11.930  0.2827  0.0005  0.2499
 4634W        W 5498   2.429   7.310  14.859 -0.0405 -0.4962  0.0245
 4635W        W 5499   0.924   6.050  10.844  0.1904  0.3170 -0.0879
 4636W        W 5500   2.500   7.535  13.970 -0.0447 -0.0487 -0.1137
 4637W        W 5501  28.154   5.550  11.141 -0.0431 -0.2547 -0.0407
 4638W        W 5502  28.161   3.610  11.452  0.0302  0.2190 -0.1179
 4639W        W 5503   0.044   4.279  13.384 -0.2519 -0.1323  0.2245
 4640W        W 5504   2.931   5.363  14.889  0.2223  0.3749 -0.0262
 4641W        W 5505   1.636   4.058  13.012 -0.1691  0.0880  0.0407
 4642W        W 5506   0.669   9.830  14.152 -0.0255 -0.5533  0.1853
 4643W        W 5507   2.509   6.286  12.199 -0.1066  0.2668 -0.2962
 4644W        W 5508   1.307   4.040   9.747  0.0105  0.1682  0.0941
 4645W        W 5509   3.580   7.149  14.021  0.1268  0.0269 -0.2132
 4646W        W 5510   2.336   3.629  14.610  0.0208  0.0688  0.0414
 4647W        W 5511   2.529   7.011  13.899  0.4671  0.1862  0.3680
 4648W        W 5512  28.649   2.289  13.226  0.1350 -0.0853 -0.0035
 4649W        W 5513   3.041   7.443  13.827  0.0357 -0.1244  0.0885
 4650W        W 5514  28.024   7.744  11.676  0.1818 -0.1529  0.1945
 4651W        W 5515   0.267   6.349  11.405  0.4406  0.2438 -0.1130
 4652W        W 5516   0.810   7.887  12.950 -0.1096  0.0178  0.1870
 4653W        W 5517   3.368   7.318  15.955 -0.0192  0.2613 -0.0095
 4654W        W 5518   3.624   4.151  11.427 -0.2534 -0.0770 -0.1340
 4655W        W 5519   3.381   4.987  16.727 -0.0099 -0.0331  0.1814
 4656W        W 5520   0.855   6.773  12.748  0.1778 -0.3578 -0.0908
 4657W        W 5521   5.298   7.867  12.760 -0.1114 -0.2252  0.1073
 4658W        W 5522  26.430  10.278  11.502  0.1024 -0.3521 -0.2784
 4659W        W 5523   0.632   9.548  10.975 -0.0324 -0.1451 -0.0581
 4660W        W 5524   3.239   4.242  16.162 -0.2434 -0.1334 -0.0212
 4661W        W 5525   2.225   6.077  13.344 -0.2419 -0.1337 -0.1906
 4662W        W 5526   2.723   8.984  10.312  0.1047  0.1450  0.2393
 4663W        W 5527   2.208   4.968  12.222 -0.0257 -0.1266 -0.1224
 4664W        W 5528   0.261   5.569   9.657  0.2644  0.1170  0.0485
 4665W        W 5529   2.128   4.558  10.902  0.2852  0.0470  0.3345
 4666W        W 5530   3.802   4.451  10.601 -0.0149 -0.0129 -0.2182
 4667W        W 5531   2.920   4.249  10.778  0.0519 -0.3066 -0.1943
 4668W        W 5532   1.965   9.132  12.587 -0.1474  0.0813  0.1114
 4669W        W 5533  27.410   4.928  12.018  0.2109 -0.3057 -0.2082
 4670W        W 5534   3.996   9.051  13.665 -0.0384 -0.3322 -0.0650
 4671W        W 5535   0.550   7.318  12.089  0.0422  0.1230 -0.0499
 4672W        W 5536   0.520   6.511   9.005  0.0316 -0.2148  0.0315
 4673W        W 5537   6.351   3.621  12.256  0.3492 -0.1557 -0.0661
 4674W        W 5538  28.247   6.921   7.972  0.1125  0.1289  0.1262
 4675W        W 5539   0.125   7.153  13.474  0.2060  0.0318  0.0345
 4676W        W 5540   1.253   4.022  11.699  0.1940  0.1864  0.0363
 4677W        W 5541   4.999   2.901  15.036  0.6117  0.2425  0.0330
 4678W        W 5542   4.530   3.547  14.148  0.3239  0.2724 -0.1719
 4679W        W 5543   0.713   3.662   8.981  0.1023 -0.0087  0.3477
 4680W        W 5544  26.994   5.443   9.082 -0.0269  0.2930 -0.1271
 4681W        W 5545   1.328   7.449  12.294  0.0216  0.2531 -0.0896
 4682W        W 5546   1.043   5.059  12.140 -0.1107  0.3680  0.0606
 4683W        W 5547   2.470   5.614  15.641  0.2038  0.0193 -0.1363
 4684W        W 5548  28.102   4.149  11.776 -0.0719  0.1023 -0.2961
 4685W        W 5549   2.263   8.790  11.757 -0.1081  0.2303 -0.2499
 4686W        W 5550   3.176   5.443  16.941  0.1620  0.2033  0.0389
 4687W        W 5551   0.966   8.399  12.263 -0.0930  0.0890  0.3768
 4688W        W 5552   2.505   5.499  14.633 -0.1412  0.0855 -0.0749
 4689W        W 5553   1.195   5.887  11.640 -0.3144  0.1157 -0.1444
 4690W        W 5554   1.173   5.687  14.957  0.1459  0.0784  0.1495
 4691W        W 5555   1.938   6.509   9.474  0.0227  0.4950 -0.4723
 4692W        W 5556   3.223   7.807  10.410  0.0879 -0.0399 -0.0931
 4693W        W 5557  26.258   4.743  13.480  0.0404  0.0343 -0.0364
 4694W        W 5558   0.498   6.925  13.102  0.0834 -0.0094 -0.1556
 4695W        W 5559   0.503   2.599  12.923 -0.3144  0.3954  0.4151
 4696W        W 5560   3.295   5.109  12.242 -0.0632 -0.1506  0.2091
 4697W        W 5561   1.055   3.057  11.987  0.2496 -0.1304 -0.0313
 4698W        W 5562   3.392   4.582   9.244 -0.1835  0.3030  0.3926
 4699W        W 5563   3.608   7.444  13.619 -0.4429  0.1672  0.1162
 4700W        W 5564   0.294   4.182  14.200  0.0100 -0.1645 -0.0814
 4701W        W 5565   1.030   5.975  16.391  0.1230 -0.0115 -0.0483
 4702W        W 5566   3.066   6.936  13.882 -0.1785 -0.3270 -0.0757
 4703W        W 5567  28.159   4.687  12.188  0.2121  0.3932 -0.2927
 4704W        W 5568   3.035   7.571  16.269  0.0024  0.1910  0.1098
 4705W        W 5569   1.329   6.922  12.256  0.0181  0.2637 -0.1256
 4706W        W 5570   1.550   4.574  11.701 -0.0395  0.1771 -0.3331
 4707W        W 5571   2.838   4.636  14.302 -0.1453  0.0581  0.2781
 4708W        W 5572   3.089   5.748   9.544 -0.0677 -0.2146 -0.1011
 4709W        W 5573   2.694   4.210   9.348 -0.0930  0.2354 -0.1464
 4710W        W 5574   2.008   6.068  13.847 -0.0377  0.0267 -0.1948
 4711W        W 5575   3.833   7.853  12.328 -0.2041  0.0448  0.1816
 4712W        W 5576   3.547   4.828  12.639  0.0346 -0.1202  0.0629
 4713W        W 5577   3.939   5.363  10.189 -0.4925 -0.1337  0.3981
 4714W        W 5578  28.893   7.775  13.217 -0.2887  0.0204 -0.1122
 4715W        W 5579   1.924   3.576  12.764 -0.1621  0.1509 -0.1526
 4716W        W 5580   3.328   5.461  13.777 -0.0367  0.3197  0.0758
 4717W        W 5581   3.193   3.293  16.535  0.3857 -0.0565 -0.0417
 4718W        W 5582   2.051   4.572  16.867  0.2275 -0.1820  0.3248
 4719W        W 5583   2.888   3.898  11.779  0.1945 -0.1863  0.1413
 4720W        W 5584   2.316   3.737  15.167 -0.1442 -0.0871  0.2039
 4721W        W 5585   1.373   5.013  14.192 -0.0218 -0.3228 -0.0327
 4722W        W 5586   0.378   3.097  10.626  0.0558 -0.1301 -0.0241
 4723W        W 5587  28.867   6.907  14.065  0.1908 -0.0286  0.2262
 4724W        W 5588   2.778   5.372  11.719 -0.1722 -0.1519  0.2852
 4725W        W 5589   2.810   4.700  13.461  0.1757 -0.0929  0.3228
 4726W        W 5590   4.141   6.480  13.401 -0.1238  0.2033 -0.0102
 4727W        W 5591   5.301   6.851  12.790  0.0188  0.1671 -0.1589
 4728W        W 5592   0.651   5.498  12.878 -0.0261 -0.1458 -0.1243
 4729W        W 5593   0.871   6.653  13.232 -0.0072  0.0285  0.1694
 4730W        W 5594   2.128   6.487  13.687  0.6133  0.1340  0.1468
 4731W        W 5595   2.114   7.233  11.789  0.0461 -0.0712  0.0664
 4732W        W 5596   4.918   3.630  11.019  0.0126 -0.2820  0.0364
 4733W        W 5597   0.202   2.671   9.172  0.0856 -0.2201  0.1707
 4734W        W 5598   1.178   6.323  11.378  0.0346  0.0662  0.0694
 4735W        W 5599   4.661   3.230  11.752 -0.1800 -0.0868 -0.4455
 4736W        W 5600   4.094   7.903  11.222  0.1790 -0.3092  0.0546
 4737W        W 5601   1.620   4.997  12.149  0.0274 -0.1907  0.1296
 4738W        W 5602   2.699   6.326  13.343  0.1342  0.0822 -0.1424
 4739W        W 5603   2.253   2.861  12.138  0.0138  0.0191  0.4264
 4740W        W 5604   1.804   6.378  12.180 -0.2410  0.1153 -0.1284
 4741W        W 5605   3.204   7.915  12.129 -0.0447  0.1528 -0.2499
 4742W        W 5606   3.087   7.635  11.219 -0.1778 -0.0966 -0.0621
 4743W        W 5607   2.814   6.855  13.243 -0.1652 -0.0606 -0.3063
 4744W        W 5608   2.489   4.516  14.659  0.1290 -0.1910 -0.1124
 4745W        W 5609   2.469   6.954  11.440  0.0776 -0.1255 -0.0937
 4746W        W 5610   1.437   5.020   9.877 -0.0588 -0.2229  0.0089
 4747W        W 5611   2.792   5.902  15.114 -0.3036  0.0385  0.1508
 4748W        W 5612  28.665   3.585  14.124  0.2686  0.2142  0.2541
 4749W        W 5613   1.698   5.847  14.281  0.1521  0.3650  0.2046
 4750W        W 5614   5.964   4.945  15.534 -0.0904 -0.0371 -0.2706
 4751W        W 5615   3.145   6.278  12.674  0.0086 -0.0806  0.1738
 4752W        W 5616   3.333   7.048  11.152  0.0208 -0.2258  0.0204
 4753W        W 5617   2.464   1.677   9.832  0.0771  0.0231  0.1336
 4754W        W 5618   2.128   5.646  13.132 -0.2805  0.0926  0.0458
 4755W        W 5619   0.467   7.552  10.152  0.1492  0.2188 -0.0846
 4756W        W 5620   1.129   5.083  13.639 -0.2154  0.0634  0.0581
 4757W        W 5621  28.771   5.121  13.400 -0.0989 -0.1704 -0.0305
 4758W        W 5622   1.271   5.175  10.374  0.1796 -0.1226 -0.0927
 4759W        W 5623   2.723   4.244  11.493  0.2986  0.0173 -0.0128
 4760W        W 5624   1.772   9.351  13.497  0.1537 -0.0441 -0.0978
 4761W        W 5625   1.516   7.152  12.706 -0.2010 -0.2835  0.0451
 4762W        W 5626  28.410   6.950  13.173  0.3334 -0.1149 -0.2384
 4763W        W 5627   4.400   8.773  12.161 -0.1413  0.0841  0.0244
 4764W        W 5628   1.636   5.471  14.014  0.1142  0.1630 -0.0153
 4765W        W 5629   3.199   5.425   9.942  0.0324 -0.1716 -0.0278
 4766W        W 5630   0.581   2.220   8.992  0.0368 -0.0592 -0.0634
 4767W        W 5631   2.212   4.924   9.892 -0.2124  0.1286 -0.0416
 4768W        W 5632   3.671   6.312  13.199  0.2944  0.0354  0.1066
 4769W        W 5633  27.646   7.018  12.699  0.2810  0.0287  0.0471
 4770W        W 5634   1.567   3.784  10.342 -0.3291  0.1931  0.0211
 4771W        W 5635   0.643   2.049  14.527 -0.0260  0.3467  0.2237
 4772W        W 5636   0.967   4.708  10.476 -0.0513 -0.0441 -0.2012
 4773W        W 5637   2.135   3.608  15.944  0.2678  0.0589 -0.1899
 4774W        W 5638   2.456   7.180  12.347 -0.1682 -0.0160 -0.2322
 4775W        W 5639   1.945   4.598  17.445  0.0230 -0.0649  0.0371
 4776W        W 5640   3.188   6.837  16.682  0.0458  0.1457 -0.1601
 4777W        W 5641   2.723   2.728  15.375 -0.0548  0.0040  0.0125
 4778W        W 5642   1.344   4.529  13.887  0.1794 -0.1278 -0.1908
 4779W        W 5643   2.932   2.748   9.662 -0.0233 -0.0728 -0.1869
 4780W        W 5644  28.554   6.892   9.391 -0.0553  0.1559  0.1019
 4781W        W 5645   3.524   5.866  16.904  0.1004 -0.0238  0.0286
 4782W        W 5646   2.308   5.845  12.344  0.0786  0.0469  0.0074
 4783W        W 5647   2.557   5.241  13.680  0.1486 -0.1121 -0.0666
 4784W        W 5648   2.333   5.862  14.208 -0.3312 -0.3917 -0.1719
 4785W        W 5649   3.932   5.927  12.445 -0.0470  0.1597 -0.4280
 4786W        W 5650   1.803   6.872  11.990 -0.3004 -0.1810 -0.0710
 4787W        W 5651   1.207   4.599  12.039  0.1234  0.2041 -0.1935
 4788W        W 5652   4.521   3.498  12.668  0.0279 -0.1110 -0.0084
 4789W        W 5653  28.338   7.034  12.636 -0.0007 -0.0653  0.2146
 4790W        W 5654  25.753   7.015  13.893 -0.0365 -0.2299  0.1396
 4791W        W 5655  27.966   8.043  10.638 -0.0526  0.3322 -0.2698
 4792W        W 5656   4.102   6.230  12.911  0.0037  0.0468 -0.0910
 4793W        W 5657   1.147   7.823  11.092 -0.0300  0.2249  0.0974
 4794W        W 5658   1.800   9.066  11.466  0.1638 -0.2653  0.1318
 4795W        W 5659   1.133   8.032   9.016  0.1735 -0.1958 -0.1174
 4796W        W 5660   0.773   4.273  11.258  0.0899  0.5627  0.0645
 4797W        W 5661   4.355   2.894  11.444 -0.3004  0.2369 -0.0633
 4798W        W 5662   1.677   8.823  13.413 -0.1088 -0.2695  0.0222
 4799W        W 5663   1.653   3.959  12.509  0.1923 -0.0319 -0.2890
 4800W        W 5664  26.997   6.903  10.667 -0.0737  0.1533 -0.1643
 4801W        W 5665  28.106   8.227  13.547 -0.2141  0.1090  0.3009
 4802W        W 5666   0.474   6.161  10.493  0.0000 -0.0343  0.2871
 4803W        W 5667  29.104   6.763  11.122 -0.0347 -0.0298  0.3206
 4804W        W 5668   0.723   7.654  11.642  0.2188  0.0222  0.4113
 4805W        W 5669  27.876   3.239  13.868  0.1173  0.4463 -0.0559
 4806W        W 5670   2.599   1.650  16.712  0.3149  0.0634 -0.2479
 4807W        W 5671   2.740   5.585  16.737 -0.0857  0.0532  0.4571
 4808W        W 5672  28.888   2.880  12.308 -0.2055  0.1175  0.0466
 4809W        W 5673   0.869   5.577  10.067  0.1835  0.0570 -0.1083
 4810W        W 5674   3.706   5.075  13.671  0.1087  0.0022 -0.0924
 4811W        W 5675   1.906   4.609  12.030 -0.0266  0.1282 -0.0750
 4812W        W 5676   3.273   5.906  14.111  0.0085  0.0411 -0.0334
 4813W        W 5677   0.958   5.112  10.022  0.4183 -0.0482 -0.0493
 4814W        W 5678   1.466   4.179  13.453  0.1614 -0.0373  0.1877
 4815W        W 5679   4.307   5.430   9.105 -0.1961 -0.0398 -0.0572
 4816W        W 5680  28.972   6.528  11.568  0.2121 -0.2235 -0.1806
 4817W        W 5681   2.414   5.480  12.661  0.3725  0.2474 -0.0866
 4818W        W 5682   0.573   5.954  12.678  0.0013  0.2973  0.0277
 4819W        W 5683  27.927   4.519  13.378  0.0472  0.0703 -0.3939
 4820W        W 5684   1.761   5.965  11.886  0.1537 -0.0581  0.2219
 4821W        W 5685   2.752   8.158  12.251 -0.0415 -0.0489  0.1444
 4822W        W 5686   0.006   5.799  10.557 -0.1536 -0.2129  0.3002
 4823W        W 5687   0.951   7.517  15.694  0.1498  0.1227 -0.1884
 4824W        W 5688   0.962   5.871  13.128  0.3095  0.0410 -0.1759
 4825W        W 5689   1.305   6.712  13.520  0.1168 -0.1273  0.0473
 4826W        W 5690   2.812   2.916  12.911  0.3753  0.2017 -0.1079
 4827W        W 5691   2.528   5.004  14.944  0.0372  0.0408 -0.1522
 4828W        W 5692   3.023   7.267  12.246  0.1667 -0.2702  0.1796
 4829W        W 5693   2.826   5.991  12.499 -0.0772 -0.3572  0.0218
 4830W        W 5694   5.186   8.294  10.550  0.2719 -0.0316  0.0073
 4831W        W 5695   3.964   5.959  14.123  0.3071  0.4025 -0.0147
 4832W        W 5696   1.476   8.180  11.313 -0.1111 -0.1678 -0.0388
 4833W        W 5697   2.707   6.569  13.783 -0.3861 -0.0137 -0.1229
 4834W        W 5698   3.933   3.505  12.399 -0.2852 -0.1125  0.0227
 4835W        W 5699   1.053  10.097  13.007  0.0265 -0.4120  0.0173
 4836W        W 5700   0.040   1.282  12.526  0.1104 -0.0160  0.4057
 4837W        W 5701   0.945   4.160   9.017 -0.0442  0.2905  0.0375
 4838W        W 5702   1.210   3.963  13.865 -0.2083  0.0207  0.2563
 4839W        W 5703   2.470   5.896  12.889  0.2410  0.1351 -0.0108
 4840W        W 5704   1.916   2.996  10.473  0.1738 -0.0667  0.1234
 4841W        W 5705   2.040   8.838  15.082  0.1150  0.0701 -0.0811
 4842W        W 5706   6.259   8.760  14.157  0.1056 -0.0554 -0.1424
 4843W        W 5707  28.104   5.425  13.656  0.0783  0.0359  0.2666
 4844W        W 5708   1.367   4.813  16.370 -0.3209  0.0259 -0.3305
 4845W        W 5709  27.288   9.365   8.606  0.1016 -0.0060 -0.0171
 4846W        W 5710   3.092   6.828  11.935  0.0975 -0.2938 -0.0076
 4847W        W 5711   0.764   5.921  12.217  0.0163 -0.0134  0.0783
 4848W        W 5712   0.567   4.208  13.261  0.1948 -0.0683  0.0570
 4849W        W 5713   4.044   7.715  10.724 -0.2698 -0.4829 -0.1466
 4850W        W 5714   1.415   2.518  17.757  0.0158 -0.0563 -0.0508
 4851W        W 5715   4.513   5.197  13.265 -0.1875 -0.3259  0.4339
 4852W        W 5716   2.753   6.971  14.324  0.0521  0.1037  0.0691
 4853W        W 5717   0.748   6.563  11.381 -0.0036  0.0003  0.1729
 4854W        W 5718  28.998   6.122  11.971  0.0137 -0.2786  0.2208
 4855W        W 5719   1.659   4.586  12.445 -0.2332  0.1909  0.1127
 4856W        W 5720   3.786   4.182  13.638  0.4024  0.1561 -0.2331
 4857W        W 5721   4.089   6.999  15.578  0.0019  0.0560 -0.1486
 4858W        W 5722   0.459   2.560  11.456 -0.0491 -0.1479  0.0409
 4859W        W 5723   5.005   6.937  13.292  0.0126  0.0919 -0.0278
 4860W        W 5724  28.047   6.854  13.498 -0.2730 -0.1604 -0.2397
 4861W        W 5725   1.854   7.747  10.373  0.1316 -0.2894 -0.1515
 4862W        W 5726   4.172   5.527  16.306  0.3899  0.0970 -0.0017
 4863W        W 5727   1.795   4.693  10.068  0.0987  0.3492 -0.0591
 4864W        W 5728  28.248   7.873  13.882 -0.0949 -0.0177 -0.1983
 4865W        W 5729   1.067   8.081  15.077  0.2172 -0.0532  0.0919
 4866W        W 5730   3.340   4.345  12.477  0.4155 -0.0721  0.3683
 4867W        W 5731  28.938   2.641  11.873 -0.0020 -0.1839 -0.2135
 4868W        W 5732   2.757   7.832  13.636  0.1515  0.1658 -0.0294
 4869W        W 5733   5.131   5.695   9.035  0.2119  0.1978 -0.1299
 4870W        W 5734  28.581   5.848  14.222  0.0918  0.0121  0.3383
 4871W        W 5735   4.224   7.414  11.158 -0.0556 -0.0267  0.0497
 4872W        W 5736   0.503   4.652  10.302  0.2179  0.2820 -0.1249
 4873W        W 5737   2.971   6.458  10.474  0.2018  0.1697 -0.0495
 4874W        W 5738   1.819   5.110  11.560 -0.1017  0.1894  0.2261
 4875W        W 5739   1.268   6.906  15.166 -0.0085  0.1123  0.0303
 4876W        W 5740   1.641   5.927  15.260  0.1679 -0.0580  0.2454
 4877W        W 5741   3.114   6.448  11.625  0.1573  0.0474 -0.1175
 4878W        W 5742   0.019   9.068  14.504  0.2747 -0.2336  0.0629
 4879W        W 5743  27.525   6.462  11.018 -0.2761 -0.1094  0.0201
 4880W        W 5744   3.952   6.649  11.879 -0.1710  0.0432  0.1774
 4881W        W 5745   0.588   5.758  15.169  0.1526  0.2322 -0.0353
 4882W        W 5746   4.401   3.646   9.646 -0.0448  0.1023 -0.0843
 4883W        W 5747   0.488   5.131  13.152  0.0340  0.3620  0.2420
 4884W        W 5748   2.646   5.115  15.774  0.3993  0.1924 -0.1302
 4885W        W 5749   0.954   4.622  15.518 -0.0356  0.1463 -0.0566
 4886W        W 5750   1.663   7.803  12.464  0.3052 -0.1162 -0.1405
 4887W        W 5751   2.745   8.519  11.603  0.1171  0.2239  0.2397
 4888W        W 5752   2.370   3.437  16.331 -0.0124  0.1842  0.2211
 4889W        W 5753  28.992   4.155  13.820  0.0232  0.0339 -0.0533
 4890W        W 5754   2.479   3.788  12.571  0.1308 -0.1017 -0.0921
 4891W        W 5755  28.144   2.676   7.786 -0.0291  0.1465  0.0706
 4892W        W 5756   1.799   8.153  11.683 -0.0657 -0.0322  0.0443
 4893W        W 5757   0.129   4.624  11.947 -0.0032  0.0867  0.1190
 4894W        W 5758  27.167   4.849   9.837  0.4682 -0.3659 -0.0351
 4895W        W 5759   2.890   5.470  12.389  0.2002  0.0282  0.1161
 4896W        W 5760  27.316   5.197  13.072 -0.2549  0.2067  0.0281
 4897W        W 5761   2.722   3.791  10.614  0.2923  0.0757 -0.0095
 4898W        W 5762   3.274   5.661  15.947  0.2188  0.0347 -0.1029
 4899W        W 5763   4.133   6.899  10.907  0.1645  0.0689  0.1486
 4900W        W 5764  27.880   6.708  12.396 -0.2179 -0.1359  0.1287
 4901W        W 5765   4.161   4.316  14.679  0.0100 -0.1457 -0.0106
 4902W        W 5766   3.018   7.209  14.871 -0.2474  0.1295 -0.0763
 4903W        W 5767   1.262   7.123   9.952 -0.2165  0.0173 -0.0032
 4904W        W 5768   2.476   3.924  10.224 -0.1258 -0.2956 -0.3138
 4905W        W 5769   1.362   5.375  11.939 -0.2794  0.3679 -0.1861
 4906W        W 5770  27.163   5.888  12.254 -0.0693 -0.2319  0.1547
 4907W        W 5771   0.226   4.241  10.021 -0.1004 -0.1457  0.0032
 4908W        W 5772   1.172   6.476  13.966  0.0604 -0.2355  0.1267
 4909W        W 5773   0.629   5.600  13.894 -0.0508  0.2850  0.0243
 4910W        W 5774   3.515   8.310  12.267 -0.2881 -0.2971 -0.1547
 4911W        W 5775   2.514   4.682  11.170  0.0461  0.0150  0.0581
 4912W        W 5776  28.468   6.728   9.843 -0.4407  0.2258  0.0422
 4913W        W 5777  28.950   8.693   9.173  0.3222 -0.1962  0.2298
 4914W        W 5778  29.052   5.084  13.788 -0.0132 -0.1357 -0.0700
 4915W        W 5779  28.168   9.749  13.385 -0.1716  0.1115 -0.1542
 4916W        W 5780   4.424   5.756  13.169 -0.1342  0.1715  0.0794
 4917W        W 5781   1.202   3.335  11.013 -0.1214 -0.2270 -0.2230
 4918W        W 5782   2.349   5.668  13.646  0.2100 -0.2268  0.0769
 4919W        W 5783   1.976   6.217  14.333  0.0130  0.2768  0.2326
 4920W        W 5784   0.289   4.342  10.640 -0.0102  0.0472  0.0026
 4921W        W 5785   4.111   4.226  13.128 -0.1908 -0.3821  0.3143
 4922W        W 5786  28.379   3.582  12.545  0.0181 -0.1867 -0.3049
 4923W        W 5787  28.672   3.679  11.289 -0.3153  0.3532  0.2371
 4924W        W 5788  28.844   4.684  13.558 -0.1029  0.0191 -0.0923
 4925W        W 5789   2.085   5.192  13.399 -0.1987  0.1619  0.0490
 4926W        W 5790   1.648   7.443  11.888 -0.3883 -0.0175  0.1195
 4927W        W 5791   0.333   6.063  10.936 -0.0201  0.2333  0.0874
 4928W        W 5792   2.322   8.237  12.465 -0.2019 -0.0779 -0.0599
 4929W        W 5793   1.806   5.137  10.321  0.1833  0.1335  0.0027
 4930W        W 5794   3.470   4.082  10.670 -0.1403 -0.0952  0.1950
 4931W        W 5795   1.104   6.466  15.329 -0.4704 -0.1398  0.1457
 4932W        W 5796   0.598   2.921   9.687  0.1850 -0.0008  0.0863
 4933W        W 5797  27.623   4.366  14.868 -0.0794  0.1078 -0.1594
 4934W        W 5798   3.488   9.184  11.559  0.3455 -0.0282 -0.1382
 4935W        W 5799   0.437   5.699  13.365  0.0129 -0.0031 -0.1788
 4936W        W 5800   2.003   7.803  12.087  0.1392 -0.0246  0.0797
 4937W        W 5801  27.539   4.718  11.292 -0.3040  0.0406  0.1483
 4938W        W 5802   0.312   6.074  13.721  0.1487  0.1013  0.4082
 4939W        W 5803   2.045   3.685  12.295 -0.1115 -0.1374 -0.0210
 4940W        W 5804  27.960   5.075   9.324  0.1205  0.1994 -0.1046
 4941W        W 5805   1.498   4.554  12.933  0.0971 -0.0700 -0.1466
 4942W        W 5806  26.745   2.452  13.463  0.1982  0.1442  0.0436
 4943W        W 5807   2.080   4.655  11.511  0.2113  0.0880  0.0321
 4944W        W 5808   3.685   5.500  13.352  0.2147 -0.1661 -0.0372
 4945W        W 5809   4.838   7.085  16.273  0.1034 -0.0660 -0.1333
 4946W        W 5810   1.470   6.885  13.931  0.0645  0.0111 -0.2342
 4947W        W 5811   3.473   8.052  14.459  0.1234  0.1641  0.2112
 4948W        W 5812   5.966   6.355  15.333 -0.1114  0.0070 -0.0281
 4949W        W 5813   3.495   6.531  12.107 -0.2007  0.1642 -0.0058
 4950W        W 5814   2.683   7.989  11.728 -0.0761  0.1105 -0.1451
 4951W        W 5815   1.041   7.150  13.108 -0.4625 -0.2143 -0.1119
 4952W        W 5816   4.693   2.123  14.725 -0.2105 -0.2218  0.5110
 4953W        W 5817   1.247   4.108  11.227 -0.0082 -0.1935  0.1916
 4954W        W 5818   0.958   5.457  11.606  0.1231 -0.0459  0.0648
 4955W        W 5819  28.651   5.950  10.915  0.2080 -0.3407 -0.0110
 4956W        W 5820  28.942   7.458  11.466 -0.3146  0.4557  0.0958
 4957W        W 5821   3.532   3.788  10.127 -0.2260 -0.2561 -0.2252
 4958W        W 5822   1.741   8.511  14.526 -0.1979  0.2087 -0.1610
 4959W        W 5823   0.733   5.826   9.655 -0.1358 -0.0806 -0.0214
 4960W        W 5824  28.378   6.251  10.474  0.3098 -0.3541 -0.1799
 4961W        W 5825   2.879   5.914  12.026 -0.0846  0.4337 -0.0966
 4962W        W 5826   3.381   3.594  13.587 -0.1726  0.0074  0.1516
 4963W        W 5827   1.204   2.939  17.479 -0.2798 -0.0306 -0.1462
 4964W        W 5828   1.888   5.865  10.968 -0.1970 -0.2588 -0.2733
 4965W        W 5829   3.112   7.699  11.711 -0.1831  0.2043 -0.1509
 4966W        W 5830   2.866   5.625  13.793  0.1265 -0.1008  0.1908
 4967W        W 5831  29.095   6.447  12.935 -0.0437 -0.0817  0.2029
 4968W        W 5832   3.771   5.707  10.791 -0.2350 -0.2077  0.0083
 4969W        W 5833   3.266   5.563  12.051  0.1800 -0.1102 -0.3139
 4970W        W 5834   1.718   1.931  15.727 -0.1717  0.0069  0.0894
 4971W        W 5835   0.701   4.189  12.627  0.2403 -0.3757 -0.0579
 4972W        W 5836   2.158   4.877  10.481 -0.1038  0.1864  0.0811
 4973W        W 5837   0.185   4.250  14.708  0.0705 -0.2152 -0.0016
 4974W        W 5838   1.109   7.294  13.612 -0.0917 -0.1469  0.3797
 4975W        W 5839   0.888   6.859  13.765 -0.0975  0.1330 -0.0649
 4976W        W 5840   3.254   3.378  12.303  0.1151  0.0027  0.3226
 4977W        W 5841   3.846   6.897   9.648  0.1330  0.0113 -0.0247
 4978W        W 5842   1.699   5.337  15.308 -0.2391 -0.2109 -0.0042
 4979W        W 5843   2.542   7.690  11.115  0.0479  0.1152 -0.0369
 4980W        W 5844   4.225   7.918  13.066  0.0699  0.2701 -0.5758
 4981W        W 5845  28.929   4.266  12.540  0.1080  0.0518  0.2472
 4982W        W 5846   5.035   3.949  13.334  0.2281 -0.1515 -0.0825
 4983W        W 5847   0.735   6.968  10.871 -0.0994 -0.1441 -0.3140
 4984W        W 5848   1.730   6.698  13.285 -0.0898 -0.1436 -0.0152
 4985W        W 5849  28.834   4.391   9.389  0.1070  0.1567  0.1711
 4986W        W 5850   3.384   7.549  12.525  0.0020  0.1923 -0.0957
 4987W        W 5851   2.452   4.588   9.008  0.1854 -0.4960 -0.2467
 4988W        W 5852   0.438   4.415  13.686 -0.3686  0.0023  0.0105
 4989W        W 5853   0.830   6.234  11.758  0.0457 -0.0664  0.1421
 4990W        W 5854   4.591   8.116  14.496 -0.3670  0.1637  0.0454
 4991W        W 5855   3.487   3.817  15.246  0.0753  0.2965  0.0890
 4992W        W 5856   1.047   5.600  10.568 -0.2198  0.0151  0.0883
 4993W        W 5857   1.199   5.031  11.612  0.0607  0.0276 -0.0967
 4994W        W 5858   1.348   7.287   9.452  0.0651 -0.2292 -0.0425
 4995W        W 5859   0.192   4.130  12.823  0.0302  0.0657  0.0949
 4996W        W 5860   3.133   5.555  13.336  0.1747 -0.0084 -0.0236
 4997W        W 5861   2.667   7.667  12.163  0.4045 -0.0837 -0.0107
 4998W        W 5862   1.548   8.007  12.888 -0.0062  0.0417  0.1598
 4999W        W 5863   2.063   6.973  12.950  0.2120 -0.0722  0.2064
 5000W        W 5864   4.408   7.637  13.583 -0.1262 -0.4471  0.0422
 5001W        W 5865   0.312   7.344  13.898 -0.2221 -0.0437 -0.2828
 5002W        W 5866   1.724   4.108  13.852  0.1090 -0.2213 -0.2801
 5003W        W 5867   2.457   4.597  11.968 -0.1621  0.0056  0.3821
 5004W        W 5868  28.774   8.353   9.541  0.1607  0.2357 -0.1551
 5005W        W 5869   1.504   6.692  11.287  0.2010 -0.0667  0.3776
 5006W        W 5870   1.129   8.139  13.410 -0.1247 -0.0869 -0.2475
 5007W        W 5871   1.552   7.069  11.603 -0.0083 -0.0952 -0.1209
 5008W        W 5872   1.030   5.015  13.066 -0.2065 -0.0885 -0.0183
 5009W        W 5873   2.482   5.359  12.164  0.1454  0.0610 -0.0044
 5010W        W 5874  28.926   6.900  13.077  0.0568  0.1293 -0.2229
 5011W        W 5875   0.944   4.815  11.264 -0.2561  0.1192 -0.1033
 5012W        W 5876   0.093   4.036   9.595 -0.2051  0.2266 -0.1836
 5013W        W 5877   1.222   7.099  15.605 -0.0455  0.1617 -0.0562
 5014W        W 5878  28.205   5.124  18.006 -0.1351  0.0695 -0.0314
 5015W        W 5879  28.696   6.158  12.989 -0.1218  0.0717 -0.2334
 5016W        W 5880   2.890   8.646  15.165 -0.0344 -0.1276 -0.3357
 5017W        W 5881  27.563   6.487  12.860  0.0814 -0.0095 -0.0579
 5018W        W 5882   0.488   6.685  11.829  0.0308 -0.1587 -0.0685
 5019W        W 5883   1.178   3.838  12.716  0.4021 -0.0098 -0.0962
 5020W        W 5884   0.432   7.806  13.279 -0.1205 -0.2630  0.3025
 5021W        W 5885   1.188   7.690  18.824  0.2644 -0.0373  0.0761
 5022W        W 5886   0.765   4.965  16.384  0.2161 -0.1061  0.1213
 5023W        W 5887  26.683   1.871  17.429  0.3338  0.0944  0.0405
 5024W        W 5888  28.638   4.570  13.982  0.1345 -0.1470 -0.1320
 5025W        W 5889   4.431   4.144  16.777 -0.0640 -0.0010  0.5263
 5026W        W 5890   0.769   3.380  20.725 -0.0301 -0.1502 -0.0012
 5027W        W 5891  28.478   1.245  19.230  0.1327 -0.1973 -0.2568
 5028W        W 5892   0.799   7.875  18.580  0.2498  0.2289 -0.2380
 5029W        W 5893  28.416   5.380  13.145  0.0216  0.1247  0.0415
 5030W        W 5894  28.993   4.019  15.806  0.1642  0.0797  0.1377
 5031W        W 5895   1.472   4.912  16.955  0.1376 -0.0618  0.1689
 5032W        W 5896   2.163   2.735  13.593  0.0847  0.2144 -0.1009
 5033W        W 5897   2.359   5.439  17.704  0.0152 -0.0217 -0.0108
 5034W        W 5898  28.623   3.763  15.543 -0.3785  0.2737 -0.1087
 5035W        W 5899   1.777   5.814  18.351 -0.4451  0.2080 -0.0352
 5036W        W 5900   0.636   5.113  15.312 -0.2223 -0.3312 -0.5294
 5037W        W 5901  27.391   6.029  18.543  0.0154 -0.3942  0.1966
 5038W        W 5902   2.103   4.851  17.862  0.2295  0.1747 -0.1018
 5039W        W 5903  29.132   3.814  17.571  0.1044 -0.0888 -0.0066
 5040W        W 5904   1.616   7.098  16.201  0.2634 -0.0490  0.0659
 5041W        W 5905   1.206   5.457  18.785 -0.0367 -0.0523 -0.2222
 5042W        W 5906   0.420   4.723  15.682 -0.0814 -0.0899 -0.2307
 5043W        W 5907  28.559   3.857  15.042 -0.0337 -0.1811 -0.1441
 5044W        W 5908   1.372   6.399  18.676 -0.0723 -0.0844  0.0719
 5045W        W 5909   4.035   6.285  19.126 -0.0259 -0.0424 -0.1933
 5046W        W 5910   3.326   7.139  17.359 -0.0568 -0.1626 -0.0103
 5047W        W 5911   1.284   4.979  15.479 -0.0437  0.2114 -0.0277
 5048W        W 5912   0.608   5.905  17.986 -0.1911 -0.2917 -0.1614
 5049W        W 5913   1.232   3.740  12.134 -0.1896 -0.1171 -0.1983
 5050W        W 5914  28.986   6.618  14.448  0.0381 -0.1138  0.2576
 5051W        W 5915   2.559   6.683  15.734 -0.1001  0.2602 -0.0321
 5052W        W 5916   1.838   6.402  15.868  0.0153  0.2165  0.1037
 5053W        W 5917   3.057   5.994  15.515 -0.0515  0.1047 -0.0395
 5054W        W 5918   4.450   5.103  16.391 -0.1854  0.0628  0.1487
 5055W        W 5919   1.918   8.532  15.464  0.1255  0.3961 -0.1509
 5056W        W 5920   2.482   6.812  14.733 -0.0176  0.0590 -0.1291
 5057W        W 5921  25.941   6.522  17.004 -0.0685  0.0968  0.0704
 5058W        W 5922  29.021  10.254  15.630 -0.0456 -0.0244  0.3541
 5059W        W 5923  27.261   4.820  17.282  0.1201 -0.1710  0.0677
 5060W        W 5924   1.300   4.060  16.542 -0.0560 -0.1170  0.1507
 5061W        W 5925   1.577   6.088  14.771 -0.0832 -0.1028  0.0282
 5062W        W 5926   3.652   4.428  16.326 -0.0700 -0.0331  0.0981
 5063W        W 5927   0.366   4.562  18.265 -0.1622  0.3673 -0.1974
 5064W        W 5928   0.778   1.841  16.836  0.0031 -0.0268 -0.5257
 5065W        W 5929   1.201   6.718  14.388  0.1879 -0.0036 -0.2062
 5066W        W 5930   2.146   3.242  17.403 -0.2946 -0.0232  0.1928
 5067W        W 5931   1.132   2.824  16.988 -0.0416  0.1434  0.1927
 5068W        W 5932   0.181   5.977  14.937  0.2710  0.1438  0.2103
 5069W        W 5933  28.655   4.435  15.833  0.0859 -0.0967 -0.1968
 5070W        W 5934   1.078   4.525  17.158  0.0970 -0.1002 -0.0103
 5071W        W 5935  29.138   4.574  15.739  0.0445 -0.0531  0.0974
 5072W        W 5936   2.263   5.579  16.571  0.2542 -0.0683 -0.0641
 5073W        W 5937   2.130   4.222  17.746 -0.4270 -0.3484 -0.2236
 5074W        W 5938   1.568   3.760  14.220  0.2351 -0.2612 -0.0068
 5075W        W 5939   2.200   6.484  17.539 -0.2860 -0.0609 -0.0293
 5076W        W 5940   2.482   6.108  14.626  0.0452 -0.1130 -0.2206
 5077W        W 5941   2.397   6.943  17.220 -0.1883 -0.2810  0.2078
 5078W        W 5942   0.839   2.510  14.142 -0.0133 -0.3860  0.0002
 5079W        W 5943  28.736   2.515  12.644 -0.0444  0.0853 -0.2440
 5080W        W 5944   0.539   3.303  14.297 -0.1457  0.4639  0.1220
 5081W        W 5945   1.417   9.346  14.744  0.0752 -0.0276  0.2420
 5082W        W 5946   2.029   5.673  15.267 -0.1006  0.1837 -0.1216
 5083W        W 5947   1.941   7.285  18.091  0.0437 -0.1814 -0.1809
 5084W        W 5948   0.282   5.230  14.984 -0.0194 -0.1275  0.0122
 5085W        W 5949   2.928   7.526  15.698 -0.1163  0.1795 -0.2229
 5086W        W 5950   3.163   4.148  20.793 -0.0654  0.1034 -0.0538
 5087W        W 5951   1.965   4.570  19.574 -0.1906  0.0620 -0.1272
 5088W        W 5952   1.919   6.061  18.827 -0.1703  0.1204  0.0618
 5089W        W 5953  27.995   4.740  15.349  0.2796 -0.2707  0.2675
 5090W        W 5954  28.500   6.407  15.117 -0.0371 -0.0428 -0.1714
 5091W        W 5955   2.024   3.374  15.021 -0.0371 -0.1154 -0.1019
 5092W        W 5956   0.852   6.696  14.875  0.1329 -0.0291 -0.0852
 5093W        W 5957  28.683   4.699  16.303 -0.0298 -0.1157 -0.0989
 5094W        W 5958  28.437   4.114  16.958 -0.2842 -0.1155 -0.1921
 5095W        W 5959   0.162   3.543  14.069 -0.1254  0.0836  0.1138
 5096W        W 5960   0.705   4.098  14.620  0.3158  0.2537  0.2905
 5097W        W 5961   1.519   4.005  17.958 -0.0462  0.1319 -0.0532
 5098W        W 5962   2.599   4.086  17.674  0.0476 -0.3690 -0.3139
 5099W        W 5963   2.871   6.980  19.509  0.0072  0.3140  0.1228
 5100W        W 5964   0.232   5.105  19.471  0.0084  0.2248  0.0081
 5101W        W 5965   4.523   6.823  17.205  0.0053  0.0577  0.1276
 5102W        W 5966   0.306   2.491  17.496 -0.2371 -0.0863 -0.3913
 5103W        W 5967   1.799   3.246  17.038  0.0448  0.2521  0.0812
 5104W        W 5968   3.405   5.727  19.910 -0.1785  0.0531 -0.3732
 5105W        W 5969   1.622   2.812  16.405  0.1305 -0.1871 -0.0894
 5106W        W 5970   0.705   6.791  14.195 -0.0224  0.0049  0.0491
 5107W        W 5971   1.341   6.422  17.125  0.2182 -0.0682  0.0210
 5108W        W 5972   0.793   4.209  15.239 -0.1520 -0.0429 -0.3004
 5109W        W 5973   1.973   5.437  15.740 -0.1013  0.1541  0.2002
 5110W        W 5974   0.599   6.871  15.446  0.2321 -0.1715  0.0426
 5111W        W 5975   0.076   5.095  15.846 -0.1034 -0.1479 -0.0371
 5112W        W 5976   2.408   5.657  17.116 -0.0591  0.3095 -0.0926
 5113W        W 5977   1.834   7.456  14.214 -0.1307  0.1866  0.0698
 5114W        W 5978  27.265   4.166  14.552  0.1527 -0.0132  0.0682
 5115W        W 5979   1.957   3.444  14.310 -0.0648  0.0098 -0.0161
 5116W        W 5980   3.265   6.845  16.146  0.2120  0.5042 -0.1661
 5117W        W 5981   4.124   4.365  19.023  0.1346  0.1559  0.1847
 5118W        W 5982   0.674   4.778  19.504  0.3476 -0.0830  0.0794
 5119W        W 5983   1.817   6.664  12.606 -0.1172 -0.0118  0.0928
 5120W        W 5984   1.997   6.922  16.780 -0.4025  0.0509  0.0003
 5121W        W 5985   0.785   1.616  17.413  0.2524  0.0306  0.3947
 5122W        W 5986   0.101   4.374  15.249 -0.0426 -0.0512 -0.2617
 5123W        W 5987   4.280   6.545  17.598  0.0172  0.0004 -0.1412
 5124W        W 5988   6.472   5.775  15.778 -0.0490 -0.1495 -0.3137
 5125W        W 5989   1.688   5.210  18.558  0.0482  0.1272  0.1881
 5126W        W 5990   0.525   7.927  14.770  0.3170  0.0919 -0.2664
 5127W        W 5991   4.977   4.751  15.848 -0.4734  0.3356  0.4018
 5128W        W 5992   1.197   5.951  14.311  0.1860  0.3307  0.1085
 5129W        W 5993   4.881   5.966  18.753  0.2074 -0.0018  0.1202
 5130W        W 5994   0.270   4.705  20.559 -0.3015 -0.4047  0.0556
 5131W        W 5995  28.349   6.264  16.531  0.2112  0.2830  0.3486
 5132W        W 5996   1.027   5.953  15.344 -0.0642 -0.3980  0.0877
 5133W        W 5997   0.737   5.358  14.858 -0.1586 -0.0537  0.2827
 5134W        W 5998   3.586   5.655  14.443 -0.1314 -0.3266 -0.0649
 5135W        W 5999   1.690   6.449  13.919  0.0335 -0.0729  0.2860
 5136W        W 6000   1.435   7.869  14.235  0.2594 -0.0318  0.1439
 5137W        W 6001  28.852   2.449  19.022 -0.2718 -0.0374  0.0484
 5138W        W 6002   2.547   5.349  18.687 -0.0342  0.1662 -0.1796
 5139W        W 6003  29.002   3.698  17.088 -0.2802  0.3268  0.0729
 5140W        W 6004   1.825   5.338  16.601 -0.0340  0.1499  0.2006
 5141W        W 6005   3.736   7.417  17.401  0.2915  0.2337 -0.2072
 5142W        W 6006  28.376   6.483  17.976  0.1357 -0.1519  0.1313
 5143W        W 6007   2.963   7.300  16.779 -0.1293  0.2491 -0.2760
 5144W        W 6008  29.108   3.371  19.070  0.0825  0.0361 -0.1274
 5145W        W 6009  27.276   6.268  16.764  0.1756  0.1750  0.0536
 5146W        W 6010   0.598   2.408  18.678  0.1217 -0.2463  0.1934
 5147W        W 6011   2.247   7.396  19.692 -0.2606  0.0971 -0.0621
 5148W        W 6012  27.591   4.768  16.823 -0.0230  0.2971 -0.1314
 5149W        W 6013   0.831   3.714  15.639  0.2536  0.1747  0.1462
 5150W        W 6014   0.562   4.622  17.071  0.2339 -0.1309 -0.1493
 5151W        W 6015   1.698   4.126  17.370 -0.0876  0.1006  0.0913
 5152W        W 6016   2.655   6.338  12.867  0.1042  0.0167  0.0180
 5153W        W 6017   3.857   4.526  15.004  0.0492  0.0923  0.3654
 5154W        W 6018   1.560   4.273  18.406  0.0160  0.3458 -0.1573
 5155W        W 6019  27.503   6.954  13.179 -0.0848 -0.1737 -0.3731
 5156W        W 6020   0.330   5.188  16.269  0.1939  0.1602 -0.0551
 5157W        W 6021  28.464   4.006  16.423 -0.0326  0.1752  0.2561
 5158W        W 6022   4.609   6.103  12.892 -0.2030  0.1644  0.2285
 5159W        W 6023   3.076   3.962  17.468  0.4643  0.2356 -0.0850
 5160W        W 6024   5.704   7.727  17.487 -0.0049  0.0059  0.1358
 5161W        W 6025  28.994   4.279  16.231  0.3284 -0.2433  0.1275
 5162W        W 6026   0.403   7.795  15.857  0.1119  0.0542  0.4160
 5163W        W 6027   4.186   4.961  17.340 -0.1133  0.0123  0.0296
 5164W        W 6028  25.336   4.146  14.332  0.0630 -0.2342 -0.1205
 5165W        W 6029   2.010   9.618  15.533 -0.0517  0.0395  0.1430
 5166W        W 6030  28.830   5.543  16.653 -0.1921 -0.0384  0.0110
 5167W        W 6031   1.437   5.673  16.463 -0.0507 -0.1618  0.3295
 5168W        W 6032   2.924   2.857  15.941  0.0745  0.0499 -0.1466
 5169W        W 6033   0.225   6.671  17.211  0.0573 -0.1668 -0.0737
 5170W        W 6034   2.871   5.585  12.904 -0.0609  0.1512 -0.0613
 5171W        W 6035   1.840   4.897  15.631  0.2643  0.2378 -0.2213
 5172W        W 6036   2.684   4.599  15.547 -0.1084  0.0798 -0.5450
 5173W        W 6037   0.338   3.488  16.777  0.0951  0.1549 -0.2063
 5174W        W 6038   0.714   4.205  17.426  0.1859  0.1110 -0.0025
 5175W        W 6039   1.964   6.996  17.649 -0.1403  0.1725  0.2135
 5176W        W 6040   1.005   5.509  18.274 -0.1149  0.1430  0.2320
 5177W        W 6041   1.297   4.977  18.930  0.0394 -0.0537  0.0678
 5178W        W 6042  27.443   5.867  14.490 -0.0420  0.1770  0.0673
 5179W        W 6043  28.635   3.141  14.347 -0.2245 -0.3920 -0.0974
 5180W        W 6044   0.886   6.008  17.211  0.2025  0.0903 -0.3209
 5181W        W 6045  28.622   7.247  17.393  0.0969  0.1758 -0.3783
 5182W        W 6046  28.367   6.498  13.316 -0.2927  0.3504  0.0122
 5183W        W 6047   2.490   5.888  16.192  0.0052  0.2002  0.0440
 5184W        W 6048   2.526   7.024  16.670 -0.1718 -0.2971 -0.3193
 5185W        W 6049  28.425   6.846  14.347  0.2672 -0.2034  0.1985
 5186W        W 6050   2.393   7.163  15.626 -0.3609  0.2341  0.0226
 5187W        W 6051   1.885   4.051  16.814  0.0601 -0.0943  0.0624
 5188W        W 6052   1.482   5.784  13.247  0.1967  0.1390  0.3921
 5189W        W 6053   0.096   6.214  20.262  0.1258  0.0352 -0.2145
 5190W        W 6054  28.186   8.171  16.530  0.2309  0.1260 -0.3078
 5191W        W 6055   0.971   9.342  14.269 -0.1920  0.0422  0.1318
 5192W        W 6056  28.362   5.712  16.444 -0.1549  0.0913  0.0541
 5193W        W 6057   1.424   4.654  15.129  0.2842  0.1635 -0.2047
 5194W        W 6058   2.499   6.379  15.088  0.1528 -0.0215  0.1969
 5195W        W 6059   1.100   3.777  13.303  0.1028  0.2754  0.0871
 5196W        W 6060  27.903   4.267  12.909  0.1290  0.0955  0.2020
 5197W        W 6061   0.731   3.311  16.516 -0.1543  0.0256  0.1106
 5198W        W 6062   3.954   6.824  19.659 -0.0762  0.0440 -0.2556
 5199W        W 6063  28.741   4.141  17.920 -0.2708  0.3336 -0.1856
 5200W        W 6064   1.406   2.384  12.482 -0.2166  0.0414  0.2414
 5201W        W 6065   1.231   7.377  17.429  0.0213 -0.0323 -0.0820
 5202W        W 6066   0.777   4.251  14.025 -0.0784  0.3253 -0.1217
 5203W        W 6067   2.107   5.265  13.880  0.2060  0.0795  0.0439
 5204W        W 6068  26.866   4.000  15.258  0.0683  0.1137 -0.0001
 5205W        W 6069  28.261   3.880  17.367  0.0196 -0.1577 -0.1103
 5206W        W 6070   0.551   3.855  19.187 -0.1886  0.0287 -0.1640
 5207W        W 6071   1.303   2.119  15.933  0.0437 -0.1014  0.2534
 5208W        W 6072   1.535   4.273  14.777 -0.0329 -0.0035 -0.3235
 5209W        W 6073   0.465   4.182  15.612 -0.1722 -0.0137 -0.2289
 5210W        W 6074  27.698   4.024  15.604 -0.1827 -0.1435 -0.0738
 5211W        W 6075   0.004   2.428  13.375  0.3686 -0.0865  0.2552
 5212W        W 6076   2.919   4.553  17.496  0.0884  0.1325 -0.2691
 5213W        W 6077   1.613   2.644  15.149  0.0548 -0.0268  0.0823
 5214W        W 6078   1.652   2.660  16.911  0.0766 -0.2522  0.1312
 5215W        W 6079   2.824   5.014  15.313 -0.2522  0.1300 -0.3553
 5216W        W 6080  29.080   3.824  16.552  0.0739 -0.0306 -0.0715
 5217W        W 6081   2.386   5.273  19.173 -0.0598  0.0651 -0.0561
 5218W        W 6082  29.065   4.942  12.996 -0.0931  0.2395 -0.0665
 5219W        W 6083   1.286   9.772  18.629  0.1876  0.1499 -0.3374
 5220W        W 6084   0.014   4.622  16.608  0.1781 -0.0244 -0.0908
 5221W        W 6085  28.289   6.671  13.910 -0.1033  0.1611  0.0286
 5222W        W 6086   1.888   6.034  12.858  0.2401 -0.0766  0.0006
 5223W        W 6087   1.499   6.711  15.939 -0.0313 -0.0297 -0.5453
 5224W        W 6088  27.677   6.846  16.654 -0.0187 -0.1053 -0.1115
 5225W        W 6089   0.402   6.732  14.602 -0.0808 -0.3898  0.0346
 5226W        W 6090   0.832   2.837  18.461  0.1326 -0.0433 -0.3641
 5227W        W 6091   1.495   4.518  15.608  0.2783 -0.1303  0.1845
 5228W        W 6092   2.375   6.589  16.544 -0.0035  0.1133  0.0308
 5229W        W 6093   0.899   5.895  13.619  0.0033 -0.0144  0.0320
 5230W        W 6094   1.786   9.055  14.600 -0.0380  0.1082 -0.0948
 5231W        W 6095   0.772   4.131  16.911  0.0129 -0.0096  0.0050
 5232W        W 6096   1.425   7.548  18.172 -0.0618  0.1276  0.2121
 5233W        W 6097   3.476   8.532  20.617  0.1832  0.0044 -0.2876
 5234W        W 6098  28.880   5.274  15.102 -0.2101 -0.2415 -0.0256
 5235W        W 6099  28.854   8.057  17.598 -0.3272 -0.2503  0.0760
 5236W        W 6100   2.030   3.260  15.573 -0.0181  0.1037 -0.1081
 5237W        W 6101   2.979   8.111  14.475 -0.0398 -0.1087  0.1338
 5238W        W 6102   2.052   2.840  15.201  0.1128 -0.1609  0.0327
 5239W        W 6103   2.051   7.553  16.746 -0.0691  0.2013 -0.1445
 5240W        W 6104   1.182   3.643  18.286 -0.4244  0.1114 -0.0952
 5241W        W 6105   5.875   7.191  17.150 -0.2229  0.0376 -0.0682
 5242W        W 6106   1.754   5.961  17.639 -0.0037 -0.2850 -0.5010
 5243W        W 6107  28.888   3.173  18.610  0.0252  0.0888 -0.1369
 5244W        W 6108   0.539   5.195  18.979 -0.2263 -0.0602 -0.0561
 5245W        W 6109   0.940   8.245  13.944 -0.1135 -0.0219  0.4128
 5246W        W 6110   0.725   5.068  14.174 -0.3170 -0.0045 -0.1294
 5247W        W 6111   1.278   3.212  16.724 -0.1224  0.0108 -0.0552
 5248W        W 6112   2.343   6.892  18.021  0.0308 -0.0818 -0.0898
 5249W        W 6113   0.818   4.538  16.029  0.0020 -0.0644 -0.2004
 5250W        W 6114   4.967   3.607  20.940  0.2272 -0.0127 -0.3019
 5251W        W 6115   2.221   6.802  15.350  0.1981 -0.2481 -0.0991
 5252W        W 6116   3.338   6.802  15.185  0.0622  0.0515 -0.1912
 5253W        W 6117   2.231   7.127  10.724  0.1971  0.0254 -0.2643
 5254W        W 6118  28.420   5.005  18.984  0.0372 -0.0481  0.1364
 5255W        W 6119  28.890   6.467  16.370 -0.0882  0.1448  0.1860
 5256W        W 6120  28.217   1.731  12.454 -0.2033  0.1027  0.2997
 5257W        W 6121   0.397   5.551  18.264  0.2355  0.0970 -0.0841
 5258W        W 6122   0.523   7.787  13.926 -0.1310  0.4825  0.2778
 5259W        W 6123   4.511   3.939  17.726 -0.2107  0.2267  0.1511
 5260W        W 6124   1.076   5.516  17.302 -0.0710  0.1513 -0.2074
 5261W        W 6125   1.414   5.930  17.216 -0.1203  0.0996 -0.5022
 5262W        W 6126   0.404   2.152  15.981 -0.1125 -0.1294  0.2070
 5263W        W 6127   1.600   6.463  15.272 -0.1642 -0.4184 -0.1751
 5264W        W 6128   0.635   9.452  14.704  0.1375  0.0579  0.1724
 5265W        W 6129   4.339   8.647  19.692 -0.0468  0.1873  0.0064
 5266W        W 6130   2.822   7.258  17.384  0.2254  0.3426 -0.1717
 5267W        W 6131   1.452   4.784  14.673  0.0063 -0.0480  0.2210
 5268W        W 6132   4.541   7.347  17.304 -0.1574  0.0322  0.4508
 5269W        W 6133   2.609   2.511  17.129 -0.0480  0.2766 -0.0958
 5270W        W 6134  27.444   2.511  17.461  0.1488  0.0329  0.0821
 5271W        W 6135   2.241   5.919  17.618  0.0761 -0.0334  0.1573
 5272W        W 6136   2.841   3.324  16.182 -0.0241 -0.0115  0.0235
 5273W        W 6137   1.363   6.350  16.253 -0.2021  0.1395 -0.1560
 5274W        W 6138   2.388   4.983  17.424  0.0667  0.1714  0.0250
 5275W        W 6139   3.332   4.618  18.365 -0.3514 -0.3221 -0.0046
 5276W        W 6140   1.065   4.557  16.652 -0.2207 -0.1711  0.0454
 5277W        W 6141   1.291   5.406  12.407 -0.2092  0.3661 -0.2111
 5278W        W 6142   1.060   5.139  19.468  0.0190  0.0512  0.1681
 5279W        W 6143  27.410   6.503  14.034  0.0219  0.0696  0.2483
 5280W        W 6144   2.759   7.996  15.981  0.2296 -0.0407  0.1146
 5281W        W 6145   3.015   6.712  18.671 -0.0924 -0.0208  0.0964
 5282W        W 6146   1.438   3.227  14.090  0.0356 -0.0004  0.2571
 5283W        W 6147   3.863   7.514  16.542 -0.0633  0.1468 -0.2470
 5284W        W 6148   2.392   5.840  20.078 -0.0197 -0.1231 -0.0700
 5285W        W 6149   2.855   7.077  16.242 -0.1262  0.1239 -0.2461
 5286W        W 6150   1.437   4.625  17.484 -0.0989 -0.0583  0.0612
 5287W        W 6151   3.756   7.931  15.691 -0.1404  0.3029 -0.0973
 5288W        W 6152   1.786   5.141  18.087  0.1134 -0.1174 -0.0337
 5289W        W 6153   0.225   4.718  16.150 -0.1350  0.1930  0.5027
 5290W        W 6154   0.066   4.772  14.727  0.0093  0.0154 -0.1970
 5291W        W 6155   0.019   2.525  12.888 -0.0292 -0.2092  0.3014
 5292W        W 6156  28.613   7.561  14.742 -0.1790 -0.0065 -0.2233
 5293W        W 6157   2.720   5.807  13.358 -0.1261 -0.1487 -0.0891
 5294W        W 6158  28.994   3.507  14.534 -0.1007  0.0760  0.1080
 5295W        W 6159  28.791   6.025  16.549 -0.0292  0.3075  0.0395
 5296W        W 6160  27.780   9.874  17.065  0.1102 -0.1682 -0.1845
 5297W        W 6161   3.948   8.210  14.774 -0.2013  0.1867  0.2676
 5298W        W 6162   3.999   2.247  17.853  0.0243 -0.1647 -0.0006
 5299W        W 6163   0.388   6.262  15.899  0.1725 -0.2385 -0.2770
 5300W        W 6164  27.803   5.847  13.561  0.0817 -0.2155 -0.1618
 5301W        W 6165   1.684   4.491  14.345 -0.2374 -0.0239  0.3367
 5302W        W 6166   2.839   7.745  14.850  0.1376  0.0993 -0.3910
 5303W        W 6167   1.130   7.533  16.915 -0.1612  0.1413 -0.1632
 5304W        W 6168   3.374   5.374  16.311  0.0178 -0.0330 -0.0012
 5305W        W 6169   3.506   4.761  17.389  0.4031  0.0949 -0.0595
 5306W        W 6170  28.100   7.395  13.465  0.0145 -0.0211  0.2370
 5307W        W 6171   0.405   5.932  17.071 -0.0359 -0.1007 -0.2692
 5308W        W 6172   3.628   4.252  12.955 -0.1853  0.2477  0.0543
 5309W        W 6173   0.789   2.638  15.140  0.2866  0.2160 -0.1022
 5310W        W 6174   4.273   7.350  20.577 -0.1787 -0.2145 -0.1381
 5311W        W 6175   1.837   4.248  15.175 -0.0162  0.0131  0.2911
 5312W        W 6176  27.721   6.709  15.943  0.1154  0.1550  0.3001
 5313W        W 6177   1.325   5.904  12.743  0.0824  0.1286  0.1773
 5314W        W 6178   1.044   4.099  18.358  0.0298 -0.1422 -0.2873
 5315W        W 6179   1.843   8.068  20.427 -0.1002 -0.0733  0.2965
 5316W        W 6180   1.977   4.019  18.138 -0.1057  0.2648 -0.0401
 5317W        W 6181   6.157   8.075  13.764  0.2630 -0.0478  0.1441
 5318W        W 6182   4.301   7.820  15.700 -0.2859 -0.0554 -0.0757
 5319W        W 6183   1.866   5.777  16.842 -0.2157 -0.0904  0.0585
 5320W        W 6184   1.814   1.914  14.697 -0.0132  0.0874  0.1323
 5321W        W 6185  28.330   3.904  18.845 -0.0952 -0.0702  0.1048
 5322W        W 6186  28.442   6.924  14.916  0.2113  0.3714  0.1302
 5323W        W 6187   3.806   2.421  15.893 -0.0510  0.0934  0.2187
 5324W        W 6188   0.883   4.707  17.639 -0.2880 -0.1803  0.2299
 5325W        W 6189   1.246   2.819  15.470  0.3323  0.1207  0.2610
 5326W        W 6190   0.654   5.038  18.483  0.0109  0.1472  0.0084
 5327W        W 6191   3.142   6.460  15.894 -0.1148 -0.0123  0.0279
 5328W        W 6192  29.063   7.974  17.075 -0.0988  0.0795 -0.0668
 5329W        W 6193   0.988   4.631  14.375 -0.0252 -0.0019  0.0720
 5330W        W 6194   0.346   0.794  16.366  0.0439 -0.0363  0.0699
 5331W        W 6195   0.975   4.984  16.996 -0.0263  0.1765 -0.1367
 5332W        W 6196   0.268   4.062  16.184  0.1312  0.2414  0.0949
 5333W        W 6197   0.062   6.176  16.781 -0.1130 -0.1186 -0.0401
 5334W        W 6198   2.093   7.279  16.296 -0.2954  0.3371  0.2321
 5335W        W 6199   0.967   6.250  18.041 -0.1594 -0.1760  0.2426
 5336W        W 6200   2.381   6.968  16.107 -0.1523 -0.0895  0.1959
 5337W        W 6201   0.740   6.567  17.239  0.1021  0.1170  0.0459
 5338W        W 6202   1.049   4.429  14.891  0.1296  0.1453  0.1325
 5339W        W 6203   1.253   2.535  18.570 -0.1409  0.1681 -0.0578
 5340W        W 6204   0.612   5.677  17.512  0.2400 -0.3098 -0.1599
 5341W        W 6205  28.951   5.763  15.152  0.1841  0.1547  0.0707
 5342W        W 6206  28.032   3.466  17.510 -0.0964 -0.0367 -0.0307
 5343W        W 6207   0.879   2.362  16.082  0.0615 -0.0564 -0.2136
 5344W        W 6208   4.282   4.886  13.590 -0.1116 -0.2739  0.1652
 5345W        W 6209   0.729   6.097  18.474  0.0908 -0.0189 -0.1481
 5346W        W 6210   4.158   9.583  20.162  0.0608  0.3963 -0.0681
 5347W        W 6211   3.321   6.870  19.181 -0.2365  0.2586 -0.2612
 5348W        W 6212   1.108   5.942  19.458  0.0494  0.3581  0.0306
 5349W        W 6213  29.053   7.514  17.442 -0.0192  0.3000 -0.1792
 5350W        W 6214   3.870   5.884  16.523 -0.1411 -0.0817  0.0592
 5351W        W 6215   2.762   6.503  16.854 -0.1507 -0.2146  0.1121
 5352W        W 6216  27.959   5.237  16.157 -0.1638  0.0988 -0.1622
 5353W        W 6217   2.265   6.890  13.380  0.0997  0.3122  0.1674
 5354W        W 6218   1.953   7.897  13.985  0.0732  0.1820 -0.1266
 5355W        W 6219  28.499   1.700  16.641  0.1360 -0.2226 -0.3097
 5356W        W 6220   0.596   7.370  12.980  0.2042  0.0160  0.0269
 5357W        W 6221  27.965   5.702  14.417 -0.1829 -0.5248  0.2537
 5358W        W 6222  27.278   9.790  17.123  0.0800  0.0218  0.1713
 5359W        W 6223  27.573   6.973  13.986 -0.2055  0.2177  0.1449
 5360W        W 6224   1.019   3.428  12.927 -0.3840 -0.1053 -0.1155
 5361W        W 6225   0.276   7.245  17.874 -0.1063 -0.0589 -0.3865
 5362W        W 6226   0.316   6.557  13.347  0.1497 -0.0378  0.3764
 5363W        W 6227   1.204   7.114  14.739 -0.0306 -0.1939  0.0191
 5364W        W 6228   1.874   4.903  15.107 -0.2135 -0.1515  0.0874
 5365W        W 6229   2.072   3.547  18.985  0.3781  0.0303  0.0658
 5366W        W 6230   2.365   5.388  16.091 -0.1646 -0.0763 -0.0199
 5367W        W 6231  27.632   4.125  13.511 -0.1143 -0.0511 -0.0351
 5368W        W 6232   3.983   3.748  15.456 -0.2542 -0.2827 -0.0957
 5369W        W 6233  29.025   8.814  13.514  0.0791 -0.1212  0.1385
 5370W        W 6234   3.397   6.410  18.085  0.1137 -0.2881 -0.0609
 5371W        W 6235   0.188   5.918  19.830  0.2506  0.0737 -0.3685
 5372W        W 6236  26.698   8.644  15.634 -0.1559 -0.0412 -0.1381
 5373W        W 6237   1.502   3.662  16.889 -0.0288  0.0500 -0.1156
 5374W        W 6238   2.212   3.648  16.861  0.2725  0.0051 -0.3834
 5375W        W 6239   0.360   5.982  14.390 -0.0603  0.2071  0.0113
 5376W        W 6240   2.361   4.514  15.141 -0.3897 -0.0799  0.0745
 5377W        W 6241   2.262   7.783  13.593 -0.1473 -0.0641 -0.1615
 5378W        W 6242   0.563   6.004  16.600 -0.0844 -0.2565  0.2581
 5379W        W 6243   2.570   5.425  15.199  0.1599 -0.0893  0.1264
 5380W        W 6244   4.528   7.768  16.976  0.2715 -0.2091  0.2893
 5381W        W 6245  28.610   5.711  11.420 -0.2490 -0.2185  0.0251
 5382W        W 6246   2.179   2.395  17.504 -0.1345  0.0108  0.3128
 5383W        W 6247   2.016   5.839  14.663 -0.0090 -0.1455  0.0462
 5384W        W 6248   1.295   4.594  18.069  0.6693 -0.0817 -0.1689
 5385W        W 6249  27.745   5.967  15.502  0.1846 -0.2522  0.2522
 5386W        W 6250   3.560   6.222  17.539 -0.2448  0.2262  0.0436
 5387W        W 6251   3.666   6.383  16.812  0.2100  0.1528  0.1498
 5388W        W 6252   0.928   4.264  19.179  0.0246  0.2144  0.1089
 5389W        W 6253   0.808   2.067  15.090 -0.1937 -0.0714 -0.0314
 5390W        W 6254   3.376   8.951  17.685 -0.0829  0.0202  0.1913
 5391W        W 6255   0.405   3.826  17.163 -0.3397 -0.3596 -0.1033
 5392W        W 6256   2.138   6.200  18.140 -0.2694 -0.1031  0.1816
 5393W        W 6257  29.021   2.783  17.217 -0.0273  0.1143  0.0095
 5394W        W 6258  28.935   6.454  13.433  0.1722  0.1767  0.3684
 5395W        W 6259  28.708   4.452  17.190 -0.0213  0.0274 -0.0844
 5396W        W 6260   2.642   6.166  15.732  0.2484  0.0356 -0.1986
 5397W        W 6261   2.507   7.509  16.504  0.1059 -0.1384 -0.0965
 5398W        W 6262   0.961   5.915  18.886  0.0076  0.1239 -0.2722
 5399W        W 6263   2.929   8.805  17.519  0.1466  0.1258  0.0304
 5400W        W 6264   0.101   6.919  18.228 -0.0367 -0.1235 -0.3709
 5401W        W 6265   0.837   6.344  14.407 -0.1494 -0.1297 -0.1866
 5402W        W 6266   4.624   6.339  19.079  0.2500 -0.0620 -0.2137
 5403W        W 6267   1.307   6.841  18.918  0.0120  0.0153 -0.0040
 5404W        W 6268   1.534   4.439  16.976  0.0839 -0.1366 -0.0339
 5405W        W 6269  28.074   4.146  14.844  0.5355  0.3165 -0.0882
 5406W        W 6270   1.626  10.208  17.157 -0.0807  0.0130 -0.0338
 5407W        W 6271   3.377  10.984  15.140  0.2271  0.0897 -0.0980
 5408W        W 6272  28.448   4.540  16.725 -0.1609 -0.1240  0.0855
 5409W        W 6273   2.294  10.068  15.394 -0.0632  0.0284 -0.1026
 5410W        W 6274   0.490   6.753  15.905  0.2087  0.1797 -0.1541
 5411W        W 6275   2.285   6.087  16.592  0.3229  0.0737 -0.1122
 5412W        W 6276   0.189   5.479  15.376  0.1445  0.0282 -0.0863
 5413W        W 6277   0.634   6.998  20.679  0.0071 -0.1912  0.0404
 5414W        W 6278  29.118   8.601  20.150 -0.0527  0.2391  0.4444
 5415W        W 6279   3.848   6.839  19.106  0.1764  0.0280 -0.0929
 5416W        W 6280   6.619   8.781  19.437 -0.1928  0.0055  0.0153
 5417W        W 6281   1.375   5.499  19.291 -0.2414 -0.3183  0.1887
 5418W        W 6282   1.600   7.300  16.711 -0.0493 -0.0444  0.0442
 5419W        W 6283   0.672   9.236  18.096 -0.1194 -0.4950  0.1518
 5420W        W 6284   1.496   5.816  18.939 -0.0568  0.0353  0.2128
 5421W        W 6285   2.006   6.673  22.022 -0.2014  0.3589 -0.0962
 5422W        W 6286  26.673   2.443  23.177 -0.1960  0.1785 -0.0067
 5423W        W 6287   3.373   4.929  21.856 -0.2409  0.0277  0.0949
 5424W        W 6288   1.069   3.264  21.106  0.0506  0.3372  0.0785
 5425W        W 6289   3.937   4.065  18.609  0.0373  0.3054  0.0589
 5426W        W 6290   3.928   6.388  17.974  0.1775 -0.0173  0.2257
 5427W        W 6291   0.390   4.323  19.205  0.1311  0.2530 -0.0193
 5428W        W 6292  27.782   6.230  19.241 -0.0165 -0.0060 -0.6204
 5429W        W 6293  29.092   4.304  20.773 -0.2417  0.1682  0.2844
 5430W        W 6294   1.468   4.214  21.321  0.1387 -0.1683  0.3104
 5431W        W 6295   0.579   3.822  20.949  0.0514  0.0980  0.0106
 5432W        W 6296   5.016   5.758  20.996 -0.0036  0.2396 -0.1364
 5433W        W 6297   3.377   6.316  21.820 -0.0297  0.1279 -0.0493
 5434W        W 6298   3.292   6.197  20.005 -0.0777 -0.1062 -0.1612
 5435W        W 6299   2.601   7.842  18.458  0.5025 -0.0959  0.0821
 5436W        W 6300  28.241   6.108  19.505 -0.2454  0.1365  0.0532
 5437W        W 6301  27.622   3.363  17.786 -0.1089 -0.0007  0.2969
 5438W        W 6302   2.482   5.353  22.018  0.0294  0.2427 -0.0714
 5439W        W 6303   3.411   7.348  22.878 -0.1995 -0.0088  0.0407
 5440W        W 6304  28.842   6.077  21.616  0.2712 -0.2174  0.0519
 5441W        W 6305   0.909   7.310  20.327  0.0983  0.0962  0.3915
 5442W        W 6306   1.493   4.501  22.193  0.3215  0.1184 -0.0903
 5443W        W 6307   0.832   8.210  18.126 -0.3517 -0.0923 -0.0495
 5444W        W 6308   3.660   9.493  21.578 -0.0250  0.1697  0.5473
 5445W        W 6309  29.072   6.795  20.428  0.0302 -0.0470  0.2875
 5446W        W 6310   1.598   6.374  21.728 -0.0165  0.1345  0.2542
 5447W        W 6311  28.193   5.110  19.729  0.2696 -0.0189  0.2116
 5448W        W 6312   0.344   6.592  20.118  0.2191  0.0494  0.1858
 5449W        W 6313   0.685   3.636  16.156  0.1046  0.0134 -0.0360
 5450W        W 6314   0.904   5.099  21.281 -0.2347  0.1781 -0.0026
 5451W        W 6315   3.870   9.213  17.701 -0.0650  0.1996 -0.3146
 5452W        W 6316   3.188   5.843  20.753 -0.4407  0.1586 -0.1204
 5453W        W 6317   6.737   4.204  21.083 -0.0978  0.0946  0.0553
 5454W        W 6318   0.168   4.506  18.754  0.0151  0.1961  0.0890
 5455W        W 6319   2.174   9.007  17.953 -0.2530  0.3338 -0.2898
 5456W        W 6320   3.503   6.747  18.705  0.2153  0.0301  0.0789
 5457W        W 6321   3.797   6.678  17.572 -0.0530 -0.1902  0.0879
 5458W        W 6322  28.638   5.004  17.381  0.0981 -0.0568  0.4030
 5459W        W 6323   0.167   4.736  23.673 -0.2074  0.3507  0.0815
 5460W        W 6324   3.271   4.657  24.012 -0.0573  0.2151 -0.2606
 5461W        W 6325   0.530   3.734  17.703 -0.1204 -0.1734  0.3113
 5462W        W 6326   2.808   5.767  17.951  0.0501 -0.1788 -0.0440
 5463W        W 6327   0.805   5.200  19.921  0.0626  0.2476 -0.2834
 5464W        W 6328   2.358   5.165  20.133 -0.0263 -0.4218 -0.0884
 5465W        W 6329   2.280   9.486  18.250  0.1143 -0.1854  0.1830
 5466W        W 6330   5.001   6.100  19.365  0.1991 -0.0577  0.1350
 5467W        W 6331   1.979   1.978  19.836  0.0232 -0.1609 -0.1513
 5468W        W 6332   3.631   8.447  18.847 -0.0887 -0.1174 -0.0243
 5469W        W 6333  28.778   4.878  16.811 -0.4866 -0.1076 -0.1150
 5470W        W 6334   2.429   4.198  18.193  0.0819  0.1235  0.0095
 5471W        W 6335   1.191   6.929  20.341 -0.3110  0.2705  0.0617
 5472W        W 6336  28.402   7.768  20.215 -0.0810  0.0896 -0.2431
 5473W        W 6337   0.540   4.608  15.230  0.0280 -0.1091  0.2101
 5474W        W 6338  28.286   8.597  21.113  0.0382 -0.1939 -0.3579
 5475W        W 6339   1.417   7.340  22.793  0.2624  0.1458 -0.0092
 5476W        W 6340   2.616   8.788  19.945  0.2073 -0.2668 -0.0254
 5477W        W 6341  28.582   3.051  20.974 -0.1644  0.2330 -0.0905
 5478W        W 6342   2.797   6.547  19.118 -0.4572 -0.1156 -0.2079
 5479W        W 6343   1.572   6.840  18.472 -0.0416  0.1575 -0.0282
 5480W        W 6344  28.824   4.488  19.660  0.3454  0.1913 -0.1100
 5481W        W 6345   1.797   6.594  18.923  0.1431  0.0690 -0.2030
 5482W        W 6346   3.556   5.936  20.331  0.0032 -0.2008 -0.0684
 5483W        W 6347   3.962   7.069  21.942 -0.3556 -0.1619  0.1996
 5484W        W 6348   0.649   5.157  17.453 -0.3902  0.3470 -0.4107
 5485W        W 6349   4.341   6.212  18.587  0.2839 -0.1446  0.0964
 5486W        W 6350   5.765   5.322  22.675 -0.0502  0.0247  0.0832
 5487W        W 6351   2.128   7.000  20.592 -0.1871 -0.0952  0.3274
 5488W        W 6352   3.382   4.658  19.253  0.2014 -0.1634 -0.0039
 5489W        W 6353  28.496   4.343  19.071  0.0049 -0.2280  0.0564
 5490W        W 6354   0.176   5.464  21.852  0.2119  0.0049 -0.2795
 5491W        W 6355   3.616   6.480  19.338 -0.2340 -0.1338 -0.3023
 5492W        W 6356   0.639   5.413  16.982  0.1059 -0.1106  0.2851
 5493W        W 6357   0.902   7.025  21.602 -0.1835 -0.3061  0.1346
 5494W        W 6358   0.022   3.871  18.074 -0.1579 -0.0539 -0.5531
 5495W        W 6359  28.949   5.422  17.722  0.0287  0.0749 -0.2356
 5496W        W 6360   3.411   4.525  22.774 -0.1170  0.0993  0.2587
 5497W        W 6361   3.686   2.600  22.450 -0.1311 -0.3329  0.0058
 5498W        W 6362   2.766   6.003  19.241 -0.1377  0.0153 -0.1369
 5499W        W 6363   2.793   8.436  24.295 -0.0545 -0.0480 -0.1443
 5500W        W 6364  27.659   4.523  25.872  0.1523  0.2398 -0.3756
 5501W        W 6365   3.028   4.630  20.557 -0.2958  0.2185  0.0574
 5502W        W 6366   1.477   4.405  23.155 -0.2062 -0.1403  0.0584
 5503W        W 6367   2.261   5.289  23.477  0.1936 -0.0520  0.1817
 5504W        W 6368   3.340   8.623  23.701  0.1423  0.1379  0.3082
 5505W        W 6369   0.303   5.598  19.191  0.2779  0.1475  0.0647
 5506W        W 6370  28.913   4.979  19.759  0.1056 -0.1544  0.2377
 5507W        W 6371  28.854   0.853  23.383 -0.3581  0.1087  0.0949
 5508W        W 6372   2.996   7.016  20.055  0.1676  0.0159 -0.2312
 5509W        W 6373   2.698   6.989  18.958  0.0371 -0.1635  0.1511
 5510W        W 6374   3.273   6.353  18.967 -0.2798  0.4973 -0.1737
 5511W        W 6375   1.240   4.625  21.070  0.2291  0.2275 -0.1125
 5512W        W 6376   1.584   3.751  22.065 -0.1048 -0.1639 -0.0605
 5513W        W 6377   4.074   5.452  18.837  0.4089 -0.0478 -0.3681
 5514W        W 6378   0.062   5.999  19.301  0.3987  0.0777 -0.0362
 5515W        W 6379   2.302   6.373  16.067  0.0215 -0.0257 -0.0256
 5516W        W 6380   4.514   6.718  16.617  0.1691  0.1059  0.2823
 5517W        W 6381   0.851   5.000  20.454 -0.0747  0.0790  0.0265
 5518W        W 6382   1.967   3.515  22.820  0.0987 -0.1740 -0.0745
 5519W        W 6383   2.933   6.340  20.596  0.0750  0.1596  0.1138
 5520W        W 6384   4.412   5.446  22.875 -0.2030 -0.1637  0.1465
 5521W        W 6385   1.860   5.433  19.011 -0.0482  0.0827  0.1004
 5522W        W 6386  28.741   2.873  20.374  0.1746  0.4811 -0.2281
 5523W        W 6387   0.798   3.831  18.695  0.0383  0.3422 -0.2710
 5524W        W 6388   2.932   8.407  17.831  0.0422 -0.2140 -0.4069
 5525W        W 6389   3.599   5.116  19.474  0.0586 -0.1773 -0.0200
 5526W        W 6390   1.375   5.281  19.934  0.0298 -0.2679  0.6222
 5527W        W 6391   1.852   6.134  16.299 -0.1218 -0.0939 -0.0539
 5528W        W 6392  28.076   5.219  19.239 -0.0894 -0.4160  0.0624
 5529W        W 6393   3.106   5.582  19.538  0.1085 -0.0860 -0.3311
 5530W        W 6394  29.074   6.546  21.412  0.1069  0.0971 -0.1570
 5531W        W 6395   4.610   4.987  20.855 -0.0344 -0.3117 -0.2291
 5532W        W 6396   1.239   4.689  19.324  0.0300 -0.0937 -0.0965
 5533W        W 6397   1.883   6.367  19.348 -0.0711  0.3481 -0.2638
 5534W        W 6398   4.719   8.639  20.847  0.2533 -0.2819 -0.0607
 5535W        W 6399   3.364   6.560  20.355 -0.1279 -0.0972  0.2726
 5536W        W 6400   1.127   7.899  17.916 -0.5269 -0.1148  0.3760
 5537W        W 6401  28.216   6.090  19.998 -0.0178  0.3718  0.0027
 5538W        W 6402   2.034   6.461  19.893  0.0224 -0.0178 -0.1162
 5539W        W 6403   1.815   5.004  20.011  0.1036 -0.1911  0.1731
 5540W        W 6404   4.352   6.129  21.892  0.3257  0.4340  0.3037
 5541W        W 6405   3.259   7.759  22.141 -0.2851 -0.3440 -0.0111
 5542W        W 6406   0.620   6.203  19.858 -0.2758  0.1364 -0.0959
 5543W        W 6407   4.121   9.407  21.493  0.2219  0.2860  0.4318
 5544W        W 6408   4.466   3.458  21.938  0.0442  0.1254 -0.1100
 5545W        W 6409   1.486   5.701  20.216 -0.2145  0.4818 -0.1731
 5546W        W 6410  29.126   4.804  20.167 -0.0598 -0.2549  0.1320
 5547W        W 6411   2.824   4.961  20.006  0.1350 -0.1089 -0.1229
 5548W        W 6412  28.870   2.864  22.901  0.0612 -0.0460 -0.2126
 5549W        W 6413   1.204   5.056  20.850 -0.0065 -0.1874 -0.0944
 5550W        W 6414   1.744   5.107  21.786 -0.0862  0.0417  0.0751
 5551W        W 6415   2.857   4.352  18.342  0.0403  0.3378  0.1493
 5552W        W 6416   2.189   6.148  21.063  0.2097  0.0412  0.0271
 5553W        W 6417  28.759   3.839  19.080 -0.1395 -0.2900 -0.0144
 5554W        W 6418   3.166   6.474  19.480  0.1029 -0.1040  0.2415
 5555W        W 6419   1.296   7.883  15.530  0.0825  0.3167  0.0065
 5556W        W 6420  29.061   5.744  17.020 -0.1120  0.0254 -0.0205
 5557W        W 6421   2.390   5.846  21.429 -0.0078 -0.1918 -0.2399
 5558W        W 6422   3.377   6.422  20.844 -0.2074  0.5148  0.0586
 5559W        W 6423   1.004   4.719  19.941 -0.2752  0.0924  0.1384
 5560W        W 6424   2.739   8.249  21.351 -0.1025  0.2051 -0.0089
 5561W        W 6425   3.663   7.071  21.512  0.1088  0.0602 -0.0796
 5562W        W 6426   0.052   3.934  21.603 -0.0589 -0.2528 -0.0652
 5563W        W 6427   1.435   3.729  21.602  0.1178  0.4749 -0.1295
 5564W        W 6428   0.621   4.038  20.128  0.3300 -0.4951 -0.0168
 5565W        W 6429   1.122   6.915  20.856 -0.1577  0.0172  0.0704
 5566W        W 6430  28.344   4.703  17.685  0.2349 -0.3455 -0.1085
 5567W        W 6431   0.629   8.101  20.619 -0.1988  0.3288  0.1813
 5568W        W 6432   5.362   5.492  20.342 -0.1794  0.4661  0.0802
 5569W        W 6433  28.247   6.978  18.520 -0.1530  0.0778 -0.1197
 5570W        W 6434   1.605   7.582  17.717 -0.3097 -0.1786  0.1632
 5571W        W 6435   2.695   3.304  16.709 -0.2204 -0.1291  0.0631
 5572W        W 6436   2.147   5.016  18.683 -0.1132  0.0432  0.0489
 5573W        W 6437   2.046   6.217  21.541 -0.1644  0.2018 -0.2044
 5574W        W 6438   2.564   6.636  20.815  0.3351  0.0074  0.2401
 5575W        W 6439   2.053   5.268  22.200  0.2277 -0.1789  0.0348
 5576W        W 6440   1.270   4.465  18.823 -0.0681 -0.0473 -0.0159
 5577W        W 6441  28.835   4.335  21.738 -0.1402 -0.0723 -0.1123
 5578W        W 6442   0.271   2.681  20.772  0.3152  0.0777 -0.1483
 5579W        W 6443   0.314   4.796  19.111 -0.1451  0.0404 -0.2925
 5580W        W 6444  27.563   8.368  18.438  0.0075 -0.3234 -0.0776
 5581W        W 6445   2.221   5.573  20.482 -0.0429  0.0427 -0.5393
 5582W        W 6446   1.317   8.357  18.723 -0.0319 -0.0989  0.0852
 5583W        W 6447   1.475   7.010  19.869 -0.1050  0.0886 -0.0664
 5584W        W 6448   3.674   5.073  18.919 -0.0506 -0.0730 -0.2040
 5585W        W 6449   1.262   4.030  20.236  0.0478  0.1812  0.1630
 5586W        W 6450   1.502   7.609  21.218 -0.0745  0.3035  0.0407
 5587W        W 6451   2.165   4.578  20.885 -0.1433 -0.0145 -0.1398
 5588W        W 6452   5.187   5.061  17.519  0.0298  0.3973  0.2908
 5589W        W 6453   0.877   9.060  20.427  0.2351 -0.0874 -0.0042
 5590W        W 6454  28.822   7.483  20.385 -0.0627 -0.0195  0.1206
 5591W        W 6455   2.433   8.947  18.379  0.3731  0.3289  0.2872
 5592W        W 6456   0.417   5.975  18.819 -0.1834  0.0057 -0.3161
 5593W        W 6457  28.959   7.542  19.271 -0.1801  0.0370 -0.3240
 5594W        W 6458   3.648   8.359  18.367 -0.0405 -0.0368  0.1065
 5595W        W 6459   3.150   5.110  19.203  0.2188  0.0046  0.1628
 5596W        W 6460   0.783   4.741  20.894  0.3103 -0.4375 -0.3620
 5597W        W 6461   2.264   3.861  18.522 -0.0972  0.0871  0.1972
 5598W        W 6462   5.568   6.116  21.741 -0.1271 -0.3242  0.2549
 5599W        W 6463   5.416   4.575  19.597  0.0824  0.0013  0.0161
 5600W        W 6464  28.343   3.019  19.463 -0.1298  0.0100 -0.0487
 5601W        W 6465   0.940   5.895  20.598  0.0092 -0.1174  0.0228
 5602W        W 6466   2.353   3.136  22.205 -0.3244  0.1238 -0.2347
 5603W        W 6467   0.209   5.562  16.675 -0.1506 -0.1954 -0.0554
 5604W        W 6468  28.188   7.368  17.715 -0.1650  0.2801 -0.3250
 5605W        W 6469   1.544   5.467  22.197 -0.0181 -0.0665  0.1353
 5606W        W 6470   0.024   3.873  21.049 -0.0638  0.2273  0.1294
 5607W        W 6471   3.266   2.504  23.281 -0.0001 -0.3619  0.0027
 5608W        W 6472   2.872   5.157  21.187 -0.2677  0.1823 -0.0500
 5609W        W 6473  28.833   4.121  18.683 -0.1098 -0.0099  0.1879
 5610W        W 6474  27.588   5.742  18.993  0.1090  0.1238 -0.1041
 5611W        W 6475   1.771   5.828  21.380 -0.1562  0.3158 -0.2436
 5612W        W 6476   3.399   3.921  20.429  0.1468  0.3738 -0.0566
 5613W        W 6477  28.461   4.985  20.606 -0.0886 -0.2784  0.0423
 5614W        W 6478   2.645   2.314  21.463 -0.1510  0.1192  0.1322
 5615W        W 6479   3.705   6.831  18.194  0.0194 -0.0120 -0.0635
 5616W        W 6480   0.623   2.974  20.531 -0.1735  0.3056 -0.0836
 5617W        W 6481   2.822   5.664  21.185 -0.1160 -0.1284  0.3902
 5618W        W 6482  29.111   5.723  20.261 -0.0919  0.0240 -0.2976
 5619W        W 6483   1.245   5.006  21.839  0.1111 -0.1593  0.2173
 5620W        W 6484   2.337   3.888  21.729  0.0919  0.2832 -0.1136
 5621W        W 6485   1.190   5.439  21.574 -0.0614  0.2347 -0.0161
 5622W        W 6486  28.933   6.426  18.358  0.0336  0.0556 -0.0989
 5623W        W 6487   1.172   8.164  21.349  0.0956 -0.1053 -0.0869
 5624W        W 6488   1.220   8.741  20.407  0.1934  0.0113 -0.0506
 5625W        W 6489   3.725   5.969  20.881  0.1020 -0.0973  0.2315
 5626W        W 6490   1.321   4.086  22.417 -0.0740  0.2176  0.3604
 5627W        W 6491   3.850   7.855  20.748  0.2546 -0.0174  0.1457
 5628W        W 6492   4.270   6.637  18.881  0.1160  0.0802 -0.1365
 5629W        W 6493   3.499   7.449  18.221 -0.0800  0.2718 -0.0112
 5630W        W 6494   1.859   6.408  18.441 -0.1750  0.2167 -0.2958
 5631W        W 6495   0.773   8.093  22.304  0.4670  0.0696 -0.1397
 5632W        W 6496   2.316   7.067  21.082  0.1755 -0.0484 -0.0993
 5633W        W 6497   3.837   3.198  23.202 -0.0456  0.1184  0.3507
 5634W        W 6498   1.591   8.421  20.198  0.0466 -0.1314 -0.2827
 5635W        W 6499   2.806   8.436  19.232 -0.1457 -0.1736  0.0909
 5636W        W 6500  28.973   3.839  20.502 -0.0673  0.4012  0.0119
 5637W        W 6501   0.970   6.655  18.365 -0.2042  0.1102 -0.0049
 5638W        W 6502  27.145   4.828  20.013 -0.1938 -0.0280 -0.2790
 5639W        W 6503   0.020   4.670  21.080  0.0904  0.2114 -0.0023
 5640W        W 6504   0.582   7.061  20.005 -0.0568  0.4243  0.0814
 5641W        W 6505   4.637   7.751  17.589 -0.0170  0.1303 -0.2792
 5642W        W 6506   5.455   7.418  17.055  0.0722 -0.0123  0.0794
 5643W        W 6507  27.026   3.591  21.125 -0.1177  0.1900  0.0439
 5644W        W 6508   3.604   6.030  18.967 -0.0579  0.2369 -0.0441
 5645W        W 6509  28.959   8.876  19.732  0.0976  0.1683  0.0111
 5646W        W 6510   2.619   4.526  19.990  0.0385 -0.0200 -0.1183
 5647W        W 6511  27.749   7.025  19.816 -0.5211 -0.0380  0.0018
 5648W        W 6512   0.650   6.648  17.872  0.0477 -0.2518  0.1087
 5649W        W 6513   3.123   5.489  20.352 -0.1999 -0.1610  0.0118
 5650W        W 6514   0.976   5.635  23.614  0.0083 -0.0499 -0.0972
 5651W        W 6515   2.393   6.867  19.817  0.0557 -0.0144 -0.1680
 5652W        W 6516   4.608   6.210  19.670  0.1476 -0.2793  0.1476
 5653W        W 6517   0.556   6.306  15.028  0.0414  0.2149 -0.0595
 5654W        W 6518  28.410   7.004  22.826 -0.0423  0.1602 -0.1367
 5655W        W 6519  29.105   3.095  20.722  0.1475  0.2473 -0.1870
 5656W        W 6520   0.465   3.400  20.060  0.3577 -0.3845  0.0507
 5657W        W 6521   2.614   4.575  19.259 -0.1062  0.0640  0.1362
 5658W        W 6522   0.442   7.579  18.283  0.3059 -0.2839  0.2385
 5659W        W 6523   3.243   5.335  22.086 -0.1797 -0.2126 -0.1459
 5660W        W 6524   3.226   3.746  21.997 -0.0138 -0.0639 -0.0655
 5661W        W 6525   4.614   8.099  18.996  0.0493 -0.1656 -0.3501
 5662W        W 6526   3.678   0.925  20.109 -0.0965 -0.1016  0.0247
 5663W        W 6527   0.981   6.843  19.754  0.0804  0.0006  0.2330
 5664W        W 6528   2.817  10.169  21.478  0.0256 -0.0809 -0.1671
 5665W        W 6529   3.833   6.619  22.207  0.3241 -0.1594 -0.0977
 5666W        W 6530   2.919   7.437  21.677  0.3647  0.2752  0.2100
 5667W        W 6531   0.363   4.088  18.352 -0.3310  0.0685  0.1244
 5668W        W 6532   2.997   6.153  18.235  0.1136 -0.2475 -0.1357
 5669W        W 6533   3.339   7.919  18.040 -0.1241  0.2176 -0.1337
 5670W        W 6534   3.246   0.889  20.568  0.0117  0.2098 -0.3989
 5671W        W 6535   3.074   5.326  18.714 -0.0854  0.0916  0.1190
 5672W        W 6536   4.960   3.449  17.579 -0.0767  0.1109 -0.0397
 5673W        W 6537  27.724   4.503  18.534 -0.0727  0.0878  0.0081
 5674W        W 6538   1.717   6.156  20.732  0.0146  0.3129  0.0145
 5675W        W 6539   3.405   6.967  21.109  0.0174  0.1126  0.3303
 5676W        W 6540  28.163   6.882  21.745  0.0221 -0.5382 -0.2575
 5677W        W 6541   3.853   8.218  19.394  0.3098 -0.3930  0.0277
 5678W        W 6542  28.908   6.153  22.776  0.3844  0.1371 -0.4446
 5679W        W 6543   1.984   7.215  17.166 -0.2258  0.1531  0.2364
 5680W        W 6544   5.481   6.355  19.484  0.0616 -0.2881  0.0937
 5681W        W 6545  28.127   5.185  22.456  0.1375 -0.0859  0.2750
 5682W        W 6546   2.837   5.532  19.109 -0.0440 -0.2283  0.0153
 5683W        W 6547   0.051   6.814  19.212 -0.4018  0.2041  0.1403
 5684W        W 6548   1.205   6.784  22.416  0.2244 -0.0479  0.1723
 5685W        W 6549   1.922   5.861  19.264  0.0532 -0.5518 -0.1741
 5686W        W 6550   1.809   3.677  20.011 -0.1299 -0.1127 -0.0935
 5687W        W 6551   4.038   8.700  19.169 -0.0331 -0.0609  0.0655
 5688W        W 6552   3.269   3.795  19.515  0.1827  0.0423  0.0294
 5689W        W 6553   2.123   3.977  20.805  0.0119 -0.3271 -0.0332
 5690W        W 6554   1.482   6.598  19.543  0.1525  0.2678 -0.0804
 5691W        W 6555  28.816   3.037  17.766  0.0999  0.1322 -0.0611
 5692W        W 6556  27.895  10.024  20.932  0.1587  0.1591  0.0336
 5693W        W 6557   0.231   5.249  19.954 -0.1267  0.0144 -0.0908
 5694W        W 6558   4.035   6.038  17.610 -0.0044 -0.0178 -0.0549
 5695W        W 6559   1.464   5.492  18.111  0.1427  0.0316  0.1423
 5696W        W 6560  28.251   8.580  19.159  0.0024  0.3643 -0.2044
 5697W        W 6561   2.304   6.723  19.309 -0.1897 -0.1110  0.0004
 5698W        W 6562   0.013   3.015  19.837 -0.0985  0.1670 -0.0790
 5699W        W 6563   0.038   3.803  19.265 -0.1489  0.2069 -0.2950
 5700W        W 6564   0.289   4.055  20.511 -0.3880  0.1935 -0.2352
 5701W        W 6565   3.906   4.404  21.769  0.3635  0.0437  0.1518
 5702W        W 6566   2.750   5.072  20.439 -0.0116  0.2783  0.3608
 5703W        W 6567   0.498   3.258  17.520  0.0437  0.0503  0.0593
 5704W        W 6568   3.985   5.562  20.244  0.1491 -0.2714  0.0121
 5705W        W 6569   2.698   4.958  18.919 -0.2469 -0.1060  0.0468
 5706W        W 6570   0.580   6.676  19.574  0.2413 -0.2560  0.0044
 5707W        W 6571   2.481   4.673  20.442  0.4851  0.3408 -0.0344
 5708W        W 6572   3.979   7.736  20.309  0.2381  0.0449  0.0868
 5709W        W 6573  27.923   3.302  19.704  0.2384 -0.0944  0.1093
 5710W        W 6574   4.076   6.343  19.626  0.0004  0.0950 -0.1895
 5711W        W 6575   3.349   4.328  19.621 -0.2437 -0.0993 -0.1326
 5712W        W 6576   0.280   7.897  19.773 -0.0165 -0.2490 -0.0595
 5713W        W 6577   0.719   8.613  21.771 -0.0934 -0.0264 -0.0869
 5714W        W 6578   1.391   2.775  20.205 -0.1902 -0.0112 -0.0977
 5715W        W 6579   0.449   5.675  23.598 -0.0840 -0.0751  0.0996
 5716W        W 6580   2.831   7.044  22.042 -0.0675 -0.0954 -0.0048
 5717W        W 6581   4.688   7.742  18.646  0.1344  0.0505 -0.3525
 5718W        W 6582   2.146   9.636  20.351 -0.0172  0.4715 -0.0844
 5719W        W 6583   1.421   7.842  20.518  0.1140  0.0331 -0.0355
 5720W        W 6584   0.669   4.499  20.364 -0.0641 -0.2336 -0.0955
 5721W        W 6585   1.098   3.775  20.971  0.1480 -0.2362  0.3434
 5722W        W 6586  28.761   6.336  20.368 -0.1326 -0.1818  0.1098
 5723W        W 6587   4.409   5.743  21.570  0.0028 -0.2537 -0.2845
 5724W        W 6588   2.445   6.781  23.569  0.1205 -0.1571 -0.2046
 5725W        W 6589   1.944   5.706  20.875 -0.0563 -0.1719  0.1911
 5726W        W 6590   1.582   7.567  21.804 -0.1024 -0.0576 -0.0842
 5727W        W 6591   0.657   7.365  22.054  0.0450  0.1299 -0.4320
 5728W        W 6592   1.589   6.346  21.187  0.1635  0.0739  0.0092
 5729W        W 6593   1.031   5.473  20.269  0.1274 -0.2247 -0.0596
 5730W        W 6594   1.441   5.016  21.387  0.1998  0.2762  0.0164
 5731W        W 6595   2.741   6.128  20.984  0.3085 -0.1005  0.1312
 5732W        W 6596  28.845   5.890  20.644 -0.1097  0.1830  0.0150
 5733W        W 6597  28.790   5.873  17.437  0.1770  0.4206 -0.3694
 5734W        W 6598   2.560   6.781  20.299 -0.0104  0.2217 -0.0357
 5735W        W 6599  28.619   6.877  20.259 -0.1424  0.5405  0.1208
 5736W        W 6600   1.014   5.745  22.115 -0.1502 -0.0854 -0.2789
 5737W        W 6601   2.229   8.144  18.339  0.2835  0.1715  0.2282
 5738W        W 6602   0.454   6.426  19.166 -0.0900 -0.2530 -0.3812
 5739W        W 6603   0.219   1.463  19.665 -0.1815  0.0617 -0.2636
 5740W        W 6604   1.527   5.459  17.053  0.1034 -0.0932  0.0135
 5741W        W 6605  27.997   6.947  17.852 -0.0651  0.0572 -0.1958
 5742W        W 6606  28.725   6.471  19.366 -0.0102 -0.0071 -0.0289
 5743W        W 6607   3.308   4.909  21.360  0.0587 -0.0414  0.0059
 5744W        W 6608   2.906   4.497  18.890 -0.0946 -0.0366  0.2387
 5745W        W 6609   4.546   5.492  20.839  0.2440  0.1660 -0.0443
 5746W        W 6610   3.858   8.508  23.076  0.2112  0.1239  0.0757
 5747W        W 6611   3.766   8.297  20.923  0.1952  0.0124 -0.2070
 5748W        W 6612   1.606   7.525  22.334 -0.1094 -0.1746 -0.1791
 5749W        W 6613   0.944   9.365  19.473  0.1674  0.4977 -0.3597
 5750W        W 6614   2.303   7.770  19.332 -0.0338 -0.1446 -0.0994
 5751W        W 6615   4.143   4.450  22.863  0.1170  0.2197  0.0735
 5752W        W 6616  27.785   5.754  18.385  0.0235  0.2184  0.1918
 5753W        W 6617   1.130   8.247  19.861  0.3044 -0.0588 -0.1891
 5754W        W 6618  28.485   4.062  18.334 -0.0142 -0.1377 -0.0432
 5755W        W 6619   0.131   6.009  18.434 -0.2494 -0.1658  0.0532
 5756W        W 6620  27.879   5.063  18.369  0.0982  0.0061 -0.0182
 5757W        W 6621   3.620   4.209  19.217  0.3949  0.1483  0.0375
 5758W        W 6622   0.472   4.752  21.293  0.0008  0.1239 -0.0755
 5759W        W 6623  28.303   7.846  18.673 -0.4616  0.1682  0.1923
 5760W        W 6624  26.505   6.098  17.538 -0.1144  0.1233 -0.2519
 5761W        W 6625  28.444   5.984  21.850  0.1341 -0.0359 -0.2499
 5762W        W 6626  26.229   2.536  20.888  0.1412  0.1165 -0.0028
 5763W        W 6627   2.571   7.338  19.326  0.0807 -0.0588 -0.1243
 5764W        W 6628   0.881   3.339  18.531 -0.1106 -0.1423  0.1614
 5765W        W 6629   2.487   6.283  19.612 -0.0426 -0.1494  0.0611
 5766W        W 6630   1.667   5.602  19.696 -0.2074 -0.0077 -0.0097
 5767W        W 6631   0.963   6.377  19.557 -0.0186  0.1288  0.0641
 5768W        W 6632   1.605   5.091  19.475  0.0083 -0.0442 -0.1395
 5769W        W 6633   3.095   7.829  19.994 -0.1203 -0.0938 -0.2768
 5770W        W 6634   3.314   4.164  18.720 -0.1541  0.1137  0.1227
 5771W        W 6635   0.396   2.454  23.531  0.0736 -0.1700  0.0423
 5772W        W 6636  28.642   5.264  21.547 -0.1226 -0.0327 -0.2675
 5773W        W 6637   1.195   6.314  20.408 -0.1141  0.3573 -0.1616
 5774W        W 6638   3.492   5.456  22.923 -0.1039  0.1957 -0.3112
 5775W        W 6639   0.395   2.366  21.230  0.1754 -0.2320 -0.0136
 5776W        W 6640  28.775   4.627  18.723 -0.2997 -0.2325  0.0784
 5777W        W 6641   1.146  10.836  24.174  0.1227 -0.1894 -0.0819
 5778W        W 6642   0.786   5.424  20.764  0.2517 -0.0892 -0.0760
 5779W        W 6643   2.655   7.035  18.456 -0.1090  0.0868  0.1622
 5780W        W 6644   1.770   7.116  21.978 -0.2463  0.2097  0.0730
 5781W        W 6645   2.057   5.251  19.598 -0.2938 -0.0155  0.1476
 5782W        W 6646   4.791   5.533  19.652  0.1646  0.2148  0.4424
 5783W        W 6647   0.698   6.315  15.498  0.1067  0.3257  0.1408
 5784W        W 6648   2.867   6.496  20.018 -0.0750 -0.2560 -0.0713
 5785W        W 6649   0.597   6.114  20.309  0.0211  0.2836 -0.1563
 5786W        W 6650   0.500   3.900  23.144 -0.0027 -0.0308 -0.0536
 5787W        W 6651   2.917   6.733  18.123  0.1636  0.0975  0.0147
 5788W        W 6652   1.949   4.782  21.389  0.2729 -0.0220  0.0625
 5789W        W 6653  27.065   3.822  20.137 -0.1002  0.1888 -0.0475
 5790W        W 6654   2.191   4.491  22.725  0.1117 -0.0159 -0.0873
 5791W        W 6655   3.593   3.859  23.881  0.0096 -0.3019  0.2081
 5792W        W 6656  27.887   4.728  21.338 -0.2349  0.0327  0.3424
 5793W        W 6657   1.025   6.037  20.026 -0.2252 -0.2638  0.0582
 5794W        W 6658   0.288   7.746  21.862 -0.0352 -0.0032 -0.1712
 5795W        W 6659   1.101   3.421  22.157 -0.2110 -0.0630  0.2649
 5796W        W 6660   2.808   7.188  17.884  0.1275  0.1512 -0.1419
 5797W        W 6661   0.720   7.990  19.654 -0.0720  0.4197  0.0490
 5798W        W 6662   2.743   5.544  20.683  0.0644  0.1002  0.1782
 5799W        W 6663   5.374   4.565  20.436 -0.2218 -0.1497  0.2363
 5800W        W 6664   1.759   5.391  20.549 -0.3093 -0.0995  0.1648
 5801W        W 6665  27.914   6.122  20.394 -0.1484  0.1117  0.0098
 5802W        W 6666   0.510   5.344  20.348  0.4246 -0.2222 -0.2556
 5803W        W 6667   0.663   8.251  23.010 -0.2857 -0.1373 -0.2692
 5804W        W 6668   0.117   8.352  20.640 -0.1971 -0.1633  0.2086
 5805W        W 6669   5.914   5.809  21.535 -0.1171 -0.0295 -0.0388
 5806W        W 6670   1.609   9.813  17.543 -0.3915  0.2277  0.0002
 5807W        W 6671   2.213   7.523  18.493 -0.2609 -0.2345  0.2679
 5808W        W 6672   4.682   2.742  23.677  0.0950 -0.0123 -0.1211
 5809W        W 6673   0.055   5.806  17.975  0.2318  0.2895  0.3133
 5810W        W 6674   2.202   8.182  22.608  0.1675 -0.2267  0.4559
 5811W        W 6675   0.007   6.887  18.716 -0.1760 -0.1022 -0.1554
 5812W        W 6676  28.901   4.770  19.240 -0.0079  0.1080  0.0332
 5813W        W 6677   0.573   7.303  26.781  0.1424 -0.1359 -0.3266
 5814W        W 6678  28.216   7.860  23.554  0.2157  0.2302 -0.2831
 5815W        W 6679   1.287   6.699  21.936  0.0250  0.0431  0.2896
 5816W        W 6680   2.100   7.234  22.480 -0.1564  0.1047  0.1136
 5817W        W 6681  29.093   6.753  22.277  0.0629 -0.1309  0.1105
 5818W        W 6682   0.483   7.611  20.396 -0.3276  0.0109 -0.0140
 5819W        W 6683   0.628   5.091  21.844  0.1772  0.0271  0.1748
 5820W        W 6684  27.673   5.075  22.652  0.1456 -0.1471  0.1356
 5821W        W 6685   1.929  10.694  25.495 -0.1042 -0.4576  0.1381
 5822W        W 6686  28.304   6.428  24.042 -0.6295 -0.0470  0.1130
 5823W        W 6687   0.736   3.375  25.640  0.0343 -0.4151 -0.1524
 5824W        W 6688   0.912   5.713  24.891 -0.1330  0.0345 -0.1754
 5825W        W 6689   0.515   4.668  22.759 -0.3627 -0.1230 -0.0402
 5826W        W 6690   2.661   4.393  25.131 -0.2450 -0.3129 -0.0835
 5827W        W 6691   1.421   2.492  23.165 -0.1354  0.0773  0.2172
 5828W        W 6692   0.486   6.005  25.874 -0.0424  0.1904  0.1929
 5829W        W 6693   2.042   5.748  22.399 -0.1600 -0.0766 -0.0875
 5830W        W 6694   0.393   4.341  20.898 -0.0814 -0.1946  0.0533
 5831W        W 6695  27.439   5.495  22.846  0.0659 -0.1235  0.0512
 5832W        W 6696   3.885   5.720  23.531 -0.0913  0.0171 -0.0570
 5833W        W 6697   3.339   7.110  24.287  0.1846  0.0842 -0.3939
 5834W        W 6698  27.590   4.240  21.385 -0.0004 -0.4586  0.3118
 5835W        W 6699   2.077   5.620  23.081 -0.2459 -0.1835  0.0438
 5836W        W 6700   0.811   5.187  22.710 -0.2713 -0.0852 -0.2358
 5837W        W 6701  28.056   7.782  20.584  0.3065 -0.1925 -0.2858
 5838W        W 6702   2.088   4.129  24.259  0.1495  0.0465 -0.2505
 5839W        W 6703   2.990   6.466  25.285 -0.2683 -0.2461  0.1350
 5840W        W 6704   2.608   8.352  24.837  0.1471 -0.3042  0.1121
 5841W        W 6705   3.472   7.903  26.770  0.0504  0.0566  0.2912
 5842W        W 6706   0.437   6.598  22.262 -0.2035  0.2282  0.1478
 5843W        W 6707   2.459   5.356  21.519 -0.2887 -0.0259  0.1051
 5844W        W 6708   2.814   8.945  25.549 -0.1801 -0.0442  0.1598
 5845W        W 6709   2.281   7.267  23.866  0.2940  0.0768 -0.2537
 5846W        W 6710   2.501   7.165  23.280  0.4254 -0.0835 -0.1531
 5847W        W 6711  28.924   6.397  26.983  0.3319  0.2341  0.0967
 5848W        W 6712   0.279   8.310  23.901  0.1391  0.0182  0.0012
 5849W        W 6713  28.385   3.762  20.409 -0.0848  0.1947  0.0578
 5850W        W 6714   1.381   6.848  23.780 -0.0331  0.1800 -0.1357
 5851W        W 6715   3.037   4.122  22.836  0.1479  0.3576 -0.1252
 5852W        W 6716   2.987   6.128  23.534  0.4159 -0.1816 -0.1340
 5853W        W 6717   4.059   4.915  19.639 -0.1420 -0.1230 -0.1818
 5854W        W 6718   3.042   6.140  25.656 -0.2084  0.0826  0.2208
 5855W        W 6719   3.305  10.756  21.897 -0.1044 -0.3355 -0.2960
 5856W        W 6720   4.951   6.303  20.930 -0.1926 -0.1697  0.2085
 5857W        W 6721   1.768   9.366  20.121  0.1389  0.4013 -0.0815
 5858W        W 6722   2.246   7.390  22.951  0.0161 -0.0910  0.1629
 5859W        W 6723  28.234   6.796  23.683  0.0440 -0.2050  0.2161
 5860W        W 6724   4.154   3.644  24.047  0.0132 -0.1738  0.1391
 5861W        W 6725   1.830   6.552  24.580  0.1848  0.2727  0.0085
 5862W        W 6726   1.529   4.882  22.864 -0.1843  0.4196  0.1757
 5863W        W 6727   2.465   7.113  24.595  0.0564  0.1710 -0.2842
 5864W        W 6728   1.246   2.985  26.388 -0.0445 -0.0416 -0.0943
 5865W        W 6729   3.044   9.501  26.454  0.1366 -0.0660 -0.0653
 5866W        W 6730  28.704   5.902  19.348  0.0765  0.1705  0.1672
 5867W        W 6731   0.991   5.645  21.142  0.1978 -0.1798 -0.0144
 5868W        W 6732  28.797   8.484  22.486  0.0442 -0.0803  0.3127
 5869W        W 6733   2.870   4.982  21.969 -0.1426  0.1632 -0.0758
 5870W        W 6734   2.395   5.692  23.947 -0.2514  0.0827 -0.1441
 5871W        W 6735  28.993   7.043  20.829 -0.1192  0.0821  0.0894
 5872W        W 6736   1.238   5.277  23.123  0.5727 -0.3763  0.1737
 5873W        W 6737   2.461   5.894  21.937  0.0450  0.1345 -0.2676
 5874W        W 6738  28.756   5.596  21.889 -0.0135 -0.2926  0.3634
 5875W        W 6739   1.298   6.854  22.934  0.1481  0.0035 -0.0413
 5876W        W 6740   0.781   6.671  20.298 -0.0095 -0.0209  0.1728
 5877W        W 6741   2.221   3.266  25.017  0.0218 -0.2251  0.1318
 5878W        W 6742   6.069   4.865  25.021 -0.0262  0.1318 -0.0208
 5879W        W 6743   1.478   3.669  22.607 -0.1534 -0.1229 -0.0689
 5880W        W 6744  28.898   1.913  23.136  0.0615  0.0485 -0.0505
 5881W        W 6745   1.109   7.986  23.253  0.1606 -0.0662  0.1478
 5882W        W 6746  28.478   6.464  21.719  0.0146 -0.2467  0.1834
 5883W        W 6747   1.853   9.748  24.267 -0.1314  0.0244  0.2678
 5884W        W 6748   2.827   5.987  20.302  0.2367  0.2932 -0.0805
 5885W        W 6749   4.338   4.361  21.365  0.1876 -0.0565  0.0940
 5886W        W 6750   1.639   4.246  25.272 -0.1060  0.1418  0.1150
 5887W        W 6751   4.568   6.580  20.618  0.1376 -0.1430  0.1280
 5888W        W 6752   1.336   8.371  24.771 -0.0028 -0.0396  0.0369
 5889W        W 6753  28.256   6.543  22.611  0.0126 -0.0351 -0.1295
 5890W        W 6754   1.026   5.261  22.259  0.0140 -0.0749 -0.0523
 5891W        W 6755   0.690   4.111  24.065 -0.0596 -0.0231  0.2003
 5892W        W 6756   1.641   6.515  22.886 -0.1485  0.0811  0.0009
 5893W        W 6757  28.307   5.614  24.386 -0.1575  0.2303 -0.1757
 5894W        W 6758   1.999   6.633  23.303 -0.1414 -0.3537 -0.0062
 5895W        W 6759   0.509   0.705  22.942  0.2747 -0.1119 -0.3298
 5896W        W 6760   2.833   4.459  23.766  0.3513 -0.2070 -0.1337
 5897W        W 6761   2.570   4.963  24.964 -0.1841  0.3141 -0.0701
 5898W        W 6762   2.200   4.977  21.817  0.0703  0.2177  0.0349
 5899W        W 6763   3.639   6.474  26.565  0.1171 -0.0081  0.0850
 5900W        W 6764   1.317   4.370  26.897  0.1138  0.0075 -0.0783
 5901W        W 6765   2.946   4.576  23.152  0.0038  0.4866 -0.0050
 5902W        W 6766   2.195   4.214  22.131  0.2099 -0.0707 -0.0639
 5903W        W 6767   1.007   4.490  21.983  0.2563 -0.0926  0.1749
 5904W        W 6768   2.526   4.001  25.956  0.1183 -0.1917 -0.0038
 5905W        W 6769   0.354   7.075  22.377  0.0759 -0.1011 -0.2579
 5906W        W 6770   1.701   3.976  22.945  0.5584  0.2089 -0.3817
 5907W        W 6771   0.911   5.085  26.144  0.0146 -0.0158  0.1396
 5908W        W 6772   0.329   4.992  25.224  0.4347 -0.0241  0.1530
 5909W        W 6773   5.671   3.586  23.928 -0.0724  0.1270  0.3871
 5910W        W 6774   1.086   8.870  23.782 -0.0531  0.1173  0.0156
 5911W        W 6775   1.028   2.805  19.849 -0.3216  0.0863  0.1461
 5912W        W 6776   4.234   3.130  22.974 -0.3134  0.1557 -0.0652
 5913W        W 6777   4.467   3.617  21.059 -0.1135 -0.1129 -0.1550
 5914W        W 6778  28.858   4.919  26.073 -0.3791  0.2428 -0.1398
 5915W        W 6779   2.158   7.724  21.587  0.1681  0.2014 -0.0833
 5916W        W 6780   5.290   6.021  25.577  0.1705  0.1264  0.0610
 5917W        W 6781   3.405   3.463  24.554 -0.3753  0.2246 -0.1880
 5918W        W 6782   0.660   9.662  25.910 -0.2987  0.0169 -0.0471
 5919W        W 6783   2.970   3.758  23.955  0.0288  0.0375 -0.0889
 5920W        W 6784   0.868   8.555  24.602  0.2316 -0.0717 -0.2283
 5921W        W 6785  29.007   4.245  23.657  0.1983 -0.0856  0.0484
 5922W        W 6786   1.179   4.000  22.893 -0.0156  0.0506  0.1014
 5923W        W 6787   0.253   7.353  22.841  0.0440  0.2663  0.1413
 5924W        W 6788   2.703   5.740  22.373 -0.0508  0.0702  0.1674
 5925W        W 6789   2.929   8.459  25.786  0.0927 -0.0264  0.0826
 5926W        W 6790   2.876   7.802  24.222 -0.0620 -0.3861  0.2419
 5927W        W 6791   1.484   4.592  21.616  0.0505 -0.3025  0.0046
 5928W        W 6792   2.437   6.422  21.777  0.0728  0.0842  0.0731
 5929W        W 6793   5.179   4.500  25.593  0.0384  0.0201  0.0161
 5930W        W 6794   3.000   6.260  24.785  0.0312  0.2034 -0.1968
 5931W        W 6795   3.890   3.097  24.229  0.2209 -0.3112  0.1148
 5932W        W 6796   2.822   3.201  23.112  0.2896  0.1392 -0.1269
 5933W        W 6797   1.907   3.734  23.410  0.0594  0.2874  0.2837
 5934W        W 6798   2.047   7.142  23.437 -0.4974 -0.2421  0.1897
 5935W        W 6799  28.936   4.823  22.437  0.0087 -0.2266  0.0578
 5936W        W 6800   0.230   7.269  20.578 -0.1220  0.0490 -0.2429
 5937W        W 6801   1.250   3.946  25.585  0.1063  0.0289 -0.3054
 5938W        W 6802   4.201   5.052  24.196  0.0464 -0.0014  0.2199
 5939W        W 6803  27.239   5.995  26.242  0.2808  0.0345 -0.2523
 5940W        W 6804   1.189   5.269  24.691 -0.0851  0.1826 -0.0277
 5941W        W 6805   3.367   6.964  23.722  0.4651  0.1212 -0.4872
 5942W        W 6806   1.789   6.268  24.162  0.4372  0.0544 -0.2504
 5943W        W 6807   0.745   9.703  23.442  0.0343 -0.0380 -0.0098
 5944W        W 6808   1.834   4.505  24.460  0.1119  0.0320  0.1162
 5945W        W 6809   0.150   8.513  24.735 -0.1118  0.3475  0.0951
 5946W        W 6810   1.233   7.204  21.967 -0.2153  0.0473 -0.1339
 5947W        W 6811   3.733   5.843  25.198 -0.0609  0.3998 -0.0191
 5948W        W 6812  28.317   4.548  20.463  0.1958  0.1829  0.0752
 5949W        W 6813   3.923   4.440  21.065  0.0985 -0.0876  0.2507
 5950W        W 6814   2.926   6.599  25.932  0.2683  0.3111 -0.2654
 5951W        W 6815   1.865   7.962  22.312 -0.1227 -0.0326  0.0852
 5952W        W 6816   2.622   5.746  23.430 -0.0510  0.1894  0.0231
 5953W        W 6817   0.618   3.624  23.730 -0.0055 -0.0624 -0.1166
 5954W        W 6818   3.798   2.367  21.945 -0.2085  0.2509  0.5249
 5955W        W 6819   1.878   4.050  21.727  0.1720  0.1893  0.0388
 5956W        W 6820   1.915   6.108  20.220  0.1320 -0.3475  0.0209
 5957W        W 6821   2.429   6.842  25.861  0.2915 -0.2010  0.0601
 5958W        W 6822   1.399   2.759  22.762 -0.1280 -0.1138  0.1156
 5959W        W 6823   2.428   2.674  23.052  0.0237  0.0796  0.0789
 5960W        W 6824   1.924   8.494  21.038 -0.1429 -0.0116 -0.2564
 5961W        W 6825   1.236   8.416  23.513 -0.0403 -0.1744  0.2713
 5962W        W 6826   2.525   6.303  23.432 -0.2125  0.2937  0.1755
 5963W        W 6827   4.658   6.085  22.429 -0.3240 -0.1491  0.0145
 5964W        W 6828   0.292   3.063  22.293 -0.1002  0.2035  0.1520
 5965W        W 6829   2.269   9.207  26.196 -0.1511 -0.2323  0.1769
 5966W        W 6830  28.843   3.402  21.711  0.2527 -0.0013 -0.0852
 5967W        W 6831   1.028   3.321  24.550  0.2366 -0.0557 -0.3269
 5968W        W 6832   2.824   6.010  24.057  0.0088  0.0423  0.1205
 5969W        W 6833  27.957   5.766  23.555 -0.1757 -0.0330 -0.0550
 5970W        W 6834   1.167   4.681  22.537 -0.0923 -0.0470 -0.2158
 5971W        W 6835   1.113   3.921  24.257 -0.2141  0.0078  0.1618
 5972W        W 6836   1.191   5.467  25.234  0.0148  0.1662 -0.0002
 5973W        W 6837  28.983   4.684  25.551 -0.0242  0.0148  0.0376
 5974W        W 6838   2.365   8.266  26.778 -0.1356  0.0274  0.2131
 5975W        W 6839   2.260   7.886  25.961 -0.0071  0.2744 -0.1959
 5976W        W 6840   1.950   6.201  22.577  0.1387  0.0459 -0.0742
 5977W        W 6841   0.727   5.434  27.992 -0.0276 -0.0609 -0.1422
 5978W        W 6842   0.698   3.588  24.239  0.3191  0.1617  0.0909
 5979W        W 6843   2.555   2.759  21.684 -0.2457  0.2519 -0.3355
 5980W        W 6844  29.006   7.139  20.051  0.2532 -0.2369 -0.1194
 5981W        W 6845   2.386   7.721  24.022 -0.3072 -0.2192  0.0481
 5982W        W 6846  27.770   5.678  21.598  0.0877 -0.2798  0.2241
 5983W        W 6847   2.293   6.913  22.918  0.0408 -0.1672 -0.1367
 5984W        W 6848   0.058   6.271  22.379  0.0783 -0.0040 -0.0090
 5985W        W 6849   1.484   8.753  25.220 -0.2307  0.0962  0.0012
 5986W        W 6850   3.507   7.028  22.338  0.2908 -0.4314 -0.0598
 5987W        W 6851   0.590   2.030  23.246  0.0654 -0.0023  0.2380
 5988W        W 6852   4.100   3.094  21.901  0.2165 -0.0400  0.2087
 5989W        W 6853   3.181   7.327  23.478 -0.0622  0.1946 -0.2728
 5990W        W 6854   0.142   5.245  24.598  0.0829 -0.1397  0.1849
 5991W        W 6855   0.110   7.906  23.170 -0.3293 -0.0496 -0.1972
 5992W        W 6856   2.339   6.451  24.549 -0.2333  0.0791  0.2408
 5993W        W 6857   1.198   5.164  24.089  0.2286 -0.3697  0.1021
 5994W        W 6858   3.618   7.535  22.310 -0.1272 -0.1750 -0.2961
 5995W        W 6859   0.447   5.122  20.888 -0.2702 -0.2929  0.1733
 5996W        W 6860  28.825   3.866  21.955 -0.1801 -0.0106 -0.1894
 5997W        W 6861   2.346   5.448  21.027 -0.2292  0.0814 -0.0243
 5998W        W 6862   2.977   6.953  25.471 -0.2172 -0.0299 -0.0446
 5999W        W 6863   3.237   2.862  22.370 -0.2537  0.0068  0.2185
 6000W        W 6864  27.997   3.273  23.351 -0.2632  0.2873  0.0693
 6001W        W 6865   2.171   5.408  24.360 -0.1358  0.0311  0.0696
 6002W        W 6866   0.750   4.826  22.270  0.2559  0.2247  0.0492
 6003W        W 6867   0.147   4.965  21.664  0.2381  0.0242  0.1158
 6004W        W 6868  27.825   8.719  18.919  0.1856 -0.1063 -0.1251
 6005W        W 6869   0.372   6.308  21.037  0.0031 -0.2099  0.0221
 6006W        W 6870   2.105   4.805  24.835  0.0240  0.2005  0.2491
 6007W        W 6871   1.582   3.687  27.525 -0.3620  0.0946 -0.1075
 6008W        W 6872   0.521   6.088  21.872  0.1104 -0.1331 -0.4340
 6009W        W 6873   2.094   2.037  24.529 -0.4697 -0.0832  0.0633
 6010W        W 6874  26.896   6.353  23.601  0.2645 -0.0515 -0.1969
 6011W        W 6875  28.765   5.692  22.853  0.2006  0.2703  0.3173
 6012W        W 6876   0.224   4.077  25.457 -0.2566  0.1804 -0.0362
 6013W        W 6877  27.720   5.154  21.551  0.3217  0.0607  0.2242
 6014W        W 6878   2.066   2.183  23.968 -0.0440 -0.0324  0.1448
 6015W        W 6879   5.776   3.742  21.506  0.3442 -0.1465 -0.1814
 6016W        W 6880  26.611   6.264  24.554 -0.2550  0.2630  0.1682
 6017W        W 6881   1.788   5.636  25.025  0.1695  0.2854  0.0224
 6018W        W 6882  28.420   7.549  22.559  0.0424 -0.1884 -0.0758
 6019W        W 6883   0.123   5.751  22.464  0.2951 -0.1099 -0.0028
 6020W        W 6884   2.788   9.541  21.191  0.0672 -0.0064  0.0207
 6021W        W 6885   1.740   7.009  21.006  0.2755  0.0651 -0.1202
 6022W        W 6886   1.941   5.300  21.276 -0.1395  0.0818 -0.3516
 6023W        W 6887   1.323   8.855  24.660  0.1423  0.1638 -0.1162
 6024W        W 6888  29.116   4.121  26.028 -0.0791  0.0942  0.2547
 6025W        W 6889  28.734   6.093  24.194  0.2690 -0.0737  0.3887
 6026W        W 6890   2.244   2.267  25.194  0.1508 -0.1521 -0.0496
 6027W        W 6891   4.998   6.025  26.469 -0.0254 -0.3638  0.1285
 6028W        W 6892   3.497   5.459  20.724  0.0764  0.0506 -0.1676
 6029W        W 6893   0.277   5.776  24.042 -0.0160 -0.0900 -0.1652
 6030W        W 6894   3.504   8.319  19.755  0.1826 -0.2134  0.4578
 6031W        W 6895   3.405   6.153  26.028  0.0178  0.1531  0.0035
 6032W        W 6896   0.006   6.424  24.899  0.1540  0.2101  0.3091
 6033W        W 6897   3.287   6.102  22.825  0.3543 -0.3203 -0.3598
 6034W        W 6898   4.710   3.000  22.654 -0.4213 -0.3080 -0.0685
 6035W        W 6899   2.104   9.075  27.867 -0.1036 -0.4342  0.0458
 6036W        W 6900   0.984   2.865  24.796  0.1383 -0.0746 -0.0745
 6037W        W 6901   1.855   7.873  19.525  0.2766  0.3988  0.0883
 6038W        W 6902  28.558   7.472  27.695  0.0840 -0.0541 -0.0468
 6039W        W 6903   0.318   6.843  21.012  0.2312 -0.0987  0.0998
 6040W        W 6904   4.599   4.625  24.810 -0.2746  0.0573 -0.2152
 6041W        W 6905   2.258  11.410  21.855 -0.0409  0.2857 -0.0843
 6042W        W 6906   1.525   3.594  27.002  0.1788  0.1782 -0.1129
 6043W        W 6907   0.913   9.088  24.888  0.0638 -0.0186 -0.2576
 6044W        W 6908   1.541   6.352  25.897 -0.0586 -0.0603  0.1121
 6045W        W 6909   2.099   7.619  22.058 -0.2211 -0.0584  0.4582
 6046W        W 6910   3.818   7.660  22.893 -0.2896  0.1790 -0.0684
 6047W        W 6911  28.307   4.399  24.909 -0.0513  0.2211  0.2224
 6048W        W 6912   2.224   8.029  21.055 -0.2600 -0.3385 -0.2472
 6049W        W 6913   1.821   2.855  22.991  0.0291 -0.1173 -0.2395
 6050W        W 6914   0.929   4.727  24.834 -0.4012  0.0225  0.0100
 6051W        W 6915  28.621   5.857  20.148  0.1398  0.1854 -0.1944
 6052W        W 6916   1.726   8.248  23.239  0.1864 -0.2467 -0.0685
 6053W        W 6917   1.975   6.163  22.070 -0.0176 -0.1273 -0.0009
 6054W        W 6918  28.922   7.640  22.596 -0.0080 -0.1690 -0.1863
 6055W        W 6919   0.295   5.022  22.193 -0.1618 -0.2812  0.0251
 6056W        W 6920   0.633   6.125  23.730 -0.0258  0.1736 -0.3391
 6057W        W 6921   0.713   5.343  25.346 -0.1195  0.1086  0.1172
 6058W        W 6922   1.490   5.425  21.091  0.3211 -0.2267  0.3140
 6059W        W 6923   1.119   4.378  24.054 -0.1935 -0.0859 -0.0089
 6060W        W 6924  28.059   7.402  23.404  0.5709  0.1506  0.2402
 6061W        W 6925   1.169   7.735  22.094  0.2613  0.3081 -0.1606
 6062W        W 6926   1.234   4.659  24.448  0.1983 -0.1897  0.2060
 6063W        W 6927   3.468   9.051  19.748 -0.3406  0.0053  0.3799
 6064W        W 6928   0.968  10.423  22.980 -0.2964 -0.1096  0.2362
 6065W        W 6929   2.593   4.384  25.639 -0.1211  0.1626 -0.0533
 6066W        W 6930  27.902   6.904  24.902  0.2188  0.0460 -0.0306
 6067W        W 6931   0.708   5.534  21.541  0.1795 -0.1159 -0.2056
 6068W        W 6932   2.626   7.134  22.563  0.1535 -0.1990  0.2434
 6069W        W 6933   0.091   5.122  25.681 -0.2927  0.2251 -0.1691
 6070W        W 6934  28.620   2.654  27.692 -0.0740  0.0303  0.0654
 6071W        W 6935   5.051   8.990  22.289  0.0959  0.1049  0.1416
 6072W        W 6936   1.386   4.152  21.867 -0.1755  0.0596  0.0010
 6073W        W 6937   1.000   3.980  23.674  0.2496  0.1121 -0.0444
 6074W        W 6938   1.909   4.280  26.559  0.0678 -0.1750 -0.1135
 6075W        W 6939   2.469   6.795  24.131 -0.0038 -0.4012  0.1005
 6076W        W 6940  28.807   4.501  24.685  0.1427  0.0794 -0.0023
 6077W        W 6941   2.478   8.895  22.208  0.1553 -0.0737  0.0619
 6078W        W 6942   0.683   6.558  24.406 -0.0100 -0.0108  0.0863
 6079W        W 6943   3.604   8.019  22.372 -0.3818 -0.2962  0.1641
 6080W        W 6944   3.078   7.360  22.383 -0.0687 -0.0693 -0.1150
 6081W        W 6945   2.318   4.606  23.326  0.1502  0.1899 -0.0775
 6082W        W 6946  29.148   4.387  25.066  0.0087 -0.0478  0.1825
 6083W        W 6947   0.687   3.342  22.375 -0.4480 -0.2564  0.1977
 6084W        W 6948   1.756   5.228  23.200  0.1202 -0.0037 -0.2110
 6085W        W 6949   0.005   6.674  23.804 -0.0196  0.2510  0.1404
 6086W        W 6950  26.453   6.659  22.479  0.0543  0.0800 -0.0153
 6087W        W 6951   2.734   7.670  23.246  0.0926  0.1381 -0.0691
 6088W        W 6952   2.898   9.139  26.962  0.2580  0.0233  0.1084
 6089W        W 6953   1.112   4.747  25.742  0.0827  0.0012  0.2429
 6090W        W 6954  27.332   5.090  21.250 -0.1654  0.1171 -0.2724
 6091W        W 6955   2.154   4.467  21.675  0.2270  0.0454 -0.0452
 6092W        W 6956   1.235   4.966  25.184 -0.0410 -0.1690 -0.2692
 6093W        W 6957   2.683   6.641  24.828 -0.0760  0.3687  0.2135
 6094W        W 6958  26.989   3.987  22.164  0.0885  0.4206  0.2183
 6095W        W 6959   0.524   3.546  22.795 -0.0589 -0.0492 -0.0302
 6096W        W 6960  27.670   8.032  21.970  0.1014 -0.0168  0.0791
 6097W        W 6961   1.039   4.035  21.508  0.2378 -0.0088  0.1489
 6098W        W 6962   3.926   3.465  22.350 -0.0746 -0.4087  0.0232
 6099W        W 6963   2.942   6.593  21.804 -0.2076  0.0953  0.4453
 6100W        W 6964  28.183   4.965  25.292  0.2027  0.2221 -0.1266
 6101W        W 6965  28.954   6.277  17.816  0.3313  0.0583  0.2223
 6102W        W 6966   0.659   7.544  22.549  0.0970  0.1742  0.0320
 6103W        W 6967   1.963   4.623  22.241 -0.0670  0.0593  0.5141
 6104W        W 6968   1.694   6.631  20.198 -0.2234  0.0600 -0.2871
 6105W        W 6969   3.517   4.220  24.258  0.1193  0.0686 -0.0860
 6106W        W 6970   1.486   6.091  24.555  0.0712 -0.1237 -0.3231
 6107W        W 6971  27.472   7.822  19.147 -0.3259  0.0806  0.0565
 6108W        W 6972   2.480   1.715  22.887 -0.1557 -0.0639  0.2438
 6109W        W 6973   2.455   3.107  23.515  0.1992 -0.3298 -0.0011
 6110W        W 6974   0.750   6.577  21.792 -0.1971 -0.0337  0.3526
 6111W        W 6975   3.076   5.660  23.248 -0.0595  0.1651 -0.1521
 6112W        W 6976   2.413   8.801  23.442 -0.0077 -0.2833 -0.2108
 6113W        W 6977   1.129   6.185  22.026 -0.1897  0.1993  0.1799
 6114W        W 6978  28.333   6.035  25.312 -0.2477  0.2543  0.0008
 6115W        W 6979   2.369   5.270  26.698  0.1074 -0.1161  0.1753
 6116W        W 6980   0.489   4.585  21.836  0.0886  0.3729  0.1992
 6117W        W 6981   1.607   4.997  24.461  0.0167 -0.2459  0.2358
 6118W        W 6982   1.099   7.652  24.128  0.0402  0.1305 -0.0491
 6119W        W 6983  28.664   8.999  25.304 -0.3417 -0.4018 -0.4831
 6120W        W 6984   1.984   2.760  24.131  0.1706  0.1158  0.2763
 6121W        W 6985   2.190   8.908  20.811  0.1188 -0.2238 -0.1422
 6122W        W 6986   1.387   6.485  23.339  0.2080  0.0201 -0.1074
 6123W        W 6987  28.623   1.733  23.642  0.0589  0.2313  0.1982
 6124W        W 6988  28.699   7.181  25.142  0.0851  0.1541  0.1250
 6125W        W 6989   4.271   5.615  22.020  0.2190  0.3160  0.2311
 6126W        W 6990   5.040   4.729  24.538  0.0126  0.3053  0.2389
 6127W        W 6991   1.872   7.132  24.661  0.0556  0.0378  0.1147
 6128W        W 6992   2.452   9.083  28.234  0.0591 -0.2054  0.1706
 6129W        W 6993   1.894   3.003  22.045 -0.2066  0.2656 -0.2855
 6130W        W 6994   3.942   4.042  20.345  0.1256  0.3735  0.2036
 6131W        W 6995   2.184   8.452  23.156  0.1027  0.0137  0.0026
 6132W        W 6996  28.409   5.535  23.271 -0.0779 -0.3587  0.3314
 6133W        W 6997   1.403   4.023  23.399  0.0763 -0.0317 -0.1134
 6134W        W 6998   4.058   8.703  24.720 -0.0739 -0.0463 -0.3970
 6135W        W 6999   0.145   5.726  26.104  0.1638 -0.2391 -0.1184
 6136W        W 7000   1.227   6.323  22.660  0.2797 -0.2158 -0.0365
 6137W        W 7001  28.100   3.951  22.706 -0.0831  0.3104  0.3040
 6138W        W 7002   2.332   6.048  20.607 -0.0245  0.1077 -0.0217
 6139W        W 7003   0.554   4.717  23.369  0.0045  0.1883 -0.1318
 6140W        W 7004   2.833   6.201  21.521 -0.2895  0.2577  0.1220
 6141W        W 7005   2.032   5.607  21.783  0.1471 -0.3132  0.1684
 6142W        W 7006   0.033   3.520  19.756  0.1048  0.0516  0.4925
 6143W        W 7007   1.559   4.900  26.986  0.0483 -0.1781 -0.0594
 6144W        W 7008   2.804   2.444  21.999 -0.0551 -0.2542  0.0672
 6145W        W 7009   2.806   7.891  23.722  0.0127  0.2494 -0.0259
 6146W        W 7010   0.709   9.473  26.946  0.3225 -0.1633 -0.1548
 6147W        W 7011   2.931   6.952  24.465  0.0593 -0.0775 -0.0930
 6148W        W 7012   2.239   9.775  26.888 -0.2247  0.3261 -0.0734
 6149W        W 7013   2.166   6.032  23.591 -0.1713 -0.1783 -0.3270
 6150W        W 7014   4.647   6.251  23.941 -0.1464 -0.0323  0.0764
 6151W        W 7015   0.965   3.717  23.220 -0.0125 -0.0529 -0.2243
 6152W        W 7016   0.707   5.517  23.160 -0.0491  0.1841  0.1189
 6153W        W 7017   1.260   5.935  21.424 -0.1580  0.1370 -0.1735
 6154W        W 7018   2.258   5.078  23.023  0.1743  0.2593 -0.2096
 6155W        W 7019   1.552   5.272  25.457  0.0341 -0.1644 -0.0669
 6156W        W 7020   0.234   7.343  21.123 -0.1637 -0.0303  0.0953
 6157W        W 7021   3.099   9.321  24.146  0.0243 -0.2452 -0.1774
 6158W        W 7022   2.182   8.471  24.354  0.0823 -0.1731 -0.0711
 6159W        W 7023  28.003   6.551  19.518  0.1608 -0.3903 -0.1747
 6160W        W 7024  28.994   5.331  22.584  0.0031  0.3295  0.2077
 6161W        W 7025   0.968   9.100  21.969 -0.1755  0.1562 -0.0445
 6162W        W 7026   0.977   5.940  23.027  0.2890  0.1281 -0.2544
 6163W        W 7027   1.024   4.613  26.464 -0.0576 -0.0126 -0.0934
 6164W        W 7028   3.938   5.965  20.042  0.0103  0.0763  0.1388
 6165W        W 7029   1.936   4.923  23.588 -0.0772 -0.0321 -0.0388
 6166W        W 7030   0.913   5.552  19.215 -0.0431 -0.0777  0.2534
 6167W        W 7031   0.911   9.258  23.230 -0.1865  0.0031  0.0967
 6168W        W 7032   3.661   5.110  20.440  0.0506  0.0522 -0.0348
 6169W        W 7033  28.411   8.588  22.126 -0.0419  0.0224 -0.1240
 6170W        W 7034   0.024   4.909  26.566  0.0963 -0.0849  0.3186
 6171W        W 7035  27.965   4.569  23.970 -0.1795  0.1358  0.3715
 6172W        W 7036  28.830   2.593  21.860 -0.1579  0.1952 -0.2355
 6173W        W 7037   0.565   3.371  23.318 -0.1116  0.3065 -0.3270
 6174W        W 7038   0.857   6.641  24.935 -0.3338  0.0553  0.1423
 6175W        W 7039  27.676   6.599  21.818 -0.4027 -0.0345  0.2022
 6176W        W 7040   3.160   4.104  21.642  0.1168  0.0942 -0.1558
 6177W        W 7041  28.163   7.243  25.228 -0.3582  0.0078 -0.1876
 6178W        W 7042   3.171   5.987  25.197  0.0037  0.1294  0.2823
 6179W        W 7043   3.521   6.670  22.682  0.1848  0.1397  0.3182
 6180W        W 7044   3.043   5.676  22.760 -0.0684 -0.2232 -0.0872
 6181W        W 7045   3.175   4.836  22.325 -0.0277 -0.0483  0.0806
 6182W        W 7046   4.021   4.034  23.110  0.0616  0.0118  0.4594
 6183W        W 7047   0.865   4.085  20.550 -0.2294  0.0759 -0.2074
 6184W        W 7048   2.264   4.082  25.505 -0.0212 -0.0358  0.0432
 6185W        W 7049   1.662   3.297  21.402  0.1014  0.2317 -0.0128
 6186W        W 7050   3.248   7.544  26.118  0.2215 -0.1309  0.1096
 6187W        W 7051   2.074   9.757  22.141  0.1023 -0.1096  0.2816
 6188W        W 7052   1.809   5.644  23.520  0.1320 -0.0661  0.1420
 6189W        W 7053   1.714   3.190  24.307  0.0438  0.0968 -0.1102
 6190W        W 7054   3.839   6.081  22.051  0.0758 -0.1874 -0.3160
 6191W        W 7055   0.085   5.185  27.532  0.2195 -0.0928  0.0757
 6192W        W 7056   0.619   5.299  23.919  0.0534 -0.0786 -0.3847
 6193W        W 7057   1.442   2.719  24.146  0.2481 -0.1651 -0.0905
 6194W        W 7058   0.772   6.624  21.154 -0.1573 -0.1561  0.0096
 6195W        W 7059   3.375   3.775  22.622  0.0877 -0.2809 -0.1146
 6196W        W 7060   1.503   7.284  25.045  0.1535  0.6583 -0.3618
 6197W        W 7061   1.618   6.507  22.306 -0.0190 -0.2247 -0.0247
 6198W        W 7062   2.741   6.495  23.841 -0.1119  0.0808  0.1187
 6199W        W 7063   2.437   8.118  23.450 -0.0347 -0.0516 -0.2119
 6200W        W 7064   0.358   9.943  26.183  0.0329 -0.0218 -0.1736
 6201W        W 7065   0.960   7.696  23.640  0.0318  0.1917  0.0537
 6202W        W 7066   4.064   9.661  23.376 -0.1611  0.0566 -0.0771
 6203W        W 7067   1.508   6.299  28.465 -0.0324 -0.0900  0.1849
 6204W        W 7068   1.262   7.425  20.782 -0.0415 -0.2190 -0.0899
 6205W        W 7069   2.657   4.850  22.782 -0.1818 -0.0418  0.0402
 6206W        W 7070   3.884   8.468  23.670  0.1566 -0.1288 -0.1144
 6207W        W 7071   1.073   6.835  24.420  0.0261 -0.1001 -0.1429
 6208W        W 7072   1.482   8.101  26.204 -0.3111 -0.2597  0.3826
 6209W        W 7073   0.455   8.335  22.026 -0.1282  0.0201  0.0478
 6210W        W 7074   2.350   5.299  22.605  0.2672  0.1239  0.1588
 6211W        W 7075   1.478   5.885  22.826  0.0281 -0.2183 -0.0863
 6212W        W 7076  27.963   7.437  20.126 -0.1308 -0.1720  0.1835
 6213W        W 7077  28.397   7.142   1.042  0.1730 -0.2430 -0.0516
 6214W        W 7078   2.942   4.364  29.114 -0.4586 -0.0568 -0.1345
 6215W        W 7079   2.188   4.754  26.602  0.1042  0.1236 -0.2686
 6216W        W 7080   4.271   8.835   0.403  0.2076  0.0558 -0.1568
 6217W        W 7081  28.538   8.548  25.244  0.3430  0.0757  0.1482
 6218W        W 7082   1.936   4.531  28.380  0.0602  0.2248  0.0602
 6219W        W 7083   0.959   4.969  28.229 -0.0082 -0.0175 -0.1572
 6220W        W 7084   1.850   8.523  26.604 -0.0134  0.1118  0.1164
 6221W        W 7085   0.608   9.657  28.127 -0.1792  0.1084  0.1315
 6222W        W 7086  28.928   6.274  28.912  0.0420  0.2042  0.1685
 6223W        W 7087  28.518   3.197  28.083  0.0621 -0.0682  0.2950
 6224W        W 7088   2.776   4.417  27.659  0.0163 -0.1256 -0.1555
 6225W        W 7089   2.706   3.556  28.301  0.1490  0.2239  0.1182
 6226W        W 7090   3.376   4.437  28.842  0.2057  0.1039 -0.2178
 6227W        W 7091  28.578   6.555  26.641 -0.0160 -0.1845  0.3316
 6228W        W 7092   2.036   7.884  27.787  0.0243  0.3603  0.0524
 6229W        W 7093   2.309   7.501  26.813 -0.1556  0.0726  0.1427
 6230W        W 7094   1.853   7.444  27.695  0.2792 -0.0600 -0.3903
 6231W        W 7095   0.748   4.619  27.601  0.0989  0.0232 -0.1286
 6232W        W 7096   2.551   4.635  28.975  0.0365 -0.2728 -0.0601
 6233W        W 7097   3.352   6.465  27.958  0.2091  0.1122  0.1684
 6234W        W 7098   3.362   5.219   0.096  0.1405 -0.0996 -0.1564
 6235W        W 7099   4.205   6.604  28.301  0.0847 -0.0593 -0.0233
 6236W        W 7100  28.899   4.696  27.494  0.2105  0.1020  0.1506
 6237W        W 7101   0.501   5.043  27.820 -0.0501  0.0321 -0.1441
 6238W        W 7102   1.668   2.243  27.152 -0.4700 -0.2701 -0.0237
 6239W        W 7103   3.947   3.988  28.173 -0.0742  0.1293 -0.1545
 6240W        W 7104   2.265   7.488  27.327  0.1623  0.0210  0.0201
 6241W        W 7105   2.400   5.355  27.247 -0.0553  0.0575 -0.0654
 6242W        W 7106   0.514   3.480  27.412 -0.1655  0.0721  0.0309
 6243W        W 7107   1.177   4.589  27.914 -0.1302 -0.2032  0.1130
 6244W        W 7108   3.321   6.930   1.726 -0.1105 -0.0823 -0.1660
 6245W        W 7109   1.775   5.417  27.080  0.2145  0.2272  0.0825
 6246W        W 7110   3.763   4.909  28.270  0.1552 -0.1110 -0.0706
 6247W        W 7111   2.486   6.701  27.705 -0.0837  0.0674 -0.1093
 6248W        W 7112   2.773   5.791   1.279 -0.0630 -0.1487 -0.0960
 6249W        W 7113  28.194   5.517  26.553 -0.1770 -0.0060 -0.0865
 6250W        W 7114   2.136   5.449  26.143 -0.3351  0.1561  0.0673
 6251W        W 7115   4.425   7.000  24.295 -0.0235 -0.0869 -0.0162
 6252W        W 7116   3.976   6.065  28.557  0.0653  0.1107 -0.2911
 6253W        W 7117   1.971   3.922  23.840 -0.2092  0.0224 -0.0961
 6254W        W 7118   5.389   6.537  27.765 -0.1045  0.2926 -0.1581
 6255W        W 7119   1.579   5.353   0.739 -0.1001 -0.1624 -0.2340
 6256W        W 7120   1.675   5.824  25.909 -0.1525  0.0618  0.2913
 6257W        W 7121   1.085   7.183  26.902  0.1882 -0.3446  0.0717
 6258W        W 7122   0.395   6.718  25.712 -0.0845  0.3061 -0.0430
 6259W        W 7123  28.994   5.929  28.338  0.1791 -0.1915 -0.0635
 6260W        W 7124   2.969   4.457  28.586  0.2805 -0.2834 -0.0330
 6261W        W 7125   2.481   3.198  26.399 -0.0033 -0.1100  0.0416
 6262W        W 7126   2.344   8.372  25.727  0.1835  0.0206 -0.4237
 6263W        W 7127   5.102   9.213  28.651 -0.3545  0.0301  0.2290
 6264W        W 7128   1.155   4.251  24.691 -0.0660 -0.1348 -0.1201
 6265W        W 7129   3.326   6.608  28.972 -0.1216 -0.1766  0.1769
 6266W        W 7130   3.904   5.128  27.615  0.2207 -0.5385  0.0768
 6267W        W 7131   2.163   4.978  27.131  0.1600  0.0910  0.1211
 6268W        W 7132   1.875   8.500  25.412 -0.0158  0.4053 -0.1035
 6269W        W 7133  27.197   4.908  25.024 -0.2294  0.0335 -0.1720
 6270W        W 7134   1.874   5.214  26.591  0.0640 -0.3915 -0.1987
 6271W        W 7135   0.525   3.466   0.881  0.2355  0.0530  0.0870
 6272W        W 7136   3.873  11.079  25.246 -0.1292 -0.0252 -0.1869
 6273W        W 7137   2.799   7.135  24.911  0.2588 -0.0352  0.1944
 6274W        W 7138   1.765   7.747  25.892 -0.0474 -0.1531 -0.0894
 6275W        W 7139   1.989   8.058  26.465  0.1441  0.2170 -0.1562
 6276W        W 7140   1.553   6.377  25.399 -0.0245 -0.0480 -0.3057
 6277W        W 7141   2.229   5.767  26.545 -0.2541  0.0191  0.1122
 6278W        W 7142   4.669   5.282  27.852 -0.1938 -0.1180  0.0712
 6279W        W 7143   0.707   5.470  26.981  0.1597  0.0112  0.1677
 6280W        W 7144   0.560   3.872  27.025  0.1215 -0.1003  0.0124
 6281W        W 7145   1.356   9.070  27.783 -0.3457  0.0874 -0.1339
 6282W        W 7146   2.053   8.422  27.998 -0.1749 -0.1173 -0.1354
 6283W        W 7147   2.619   8.184  26.045 -0.0163  0.0716 -0.2353
 6284W        W 7148   2.293   3.654  25.714 -0.3802  0.0320 -0.2259
 6285W        W 7149   4.006  10.110  26.710  0.1390 -0.0018 -0.1080
 6286W        W 7150   3.059   4.599   0.986  0.0530 -0.2733 -0.0420
 6287W        W 7151   4.583   7.443  26.705  0.2351 -0.1057  0.1403
 6288W        W 7152   1.544   4.627  24.836 -0.2566 -0.2101  0.1082
 6289W        W 7153   0.039   2.292  26.871 -0.1845 -0.2567  0.0591
 6290W        W 7154   2.181   4.861   0.006  0.0750 -0.1150 -0.1415
 6291W        W 7155   0.644   5.839  25.365 -0.4540 -0.0575 -0.1414
 6292W        W 7156   2.187   3.578  26.246 -0.1470 -0.1792 -0.1117
 6293W        W 7157   1.223   4.759   0.907 -0.1739  0.0901  0.1279
 6294W        W 7158  28.413   3.975   0.930  0.2339  0.1818 -0.1111
 6295W        W 7159  28.822   3.138  27.710  0.0863 -0.2514  0.3978
 6296W        W 7160   2.900   5.230  26.571  0.1325  0.3015  0.3369
 6297W        W 7161   2.785   5.657  28.502 -0.1380 -0.3364  0.0573
 6298W        W 7162   2.398   3.831  27.725  0.3859  0.1583 -0.1108
 6299W        W 7163   2.258   6.256  27.798  0.0968 -0.1000  0.0051
 6300W        W 7164   0.567   3.577   0.337  0.2900  0.0372 -0.1451
 6301W        W 7165   2.305   7.673   0.455  0.3638 -0.1333 -0.1554
 6302W        W 7166   4.443   8.115  26.476  0.0894 -0.3552  0.0712
 6303W        W 7167   0.792   3.902  27.498 -0.1593  0.1745  0.2042
 6304W        W 7168   3.823   4.852  26.850  0.4098 -0.2212  0.2953
 6305W        W 7169   2.259   8.244  25.191  0.0060 -0.0619  0.0319
 6306W        W 7170  28.875   2.933  26.520 -0.0739 -0.0073 -0.0005
 6307W        W 7171   0.045   3.447  27.376 -0.2793 -0.1073 -0.3417
 6308W        W 7172   3.658   4.481  25.998  0.3198  0.1240 -0.1744
 6309W        W 7173   2.073   6.326  25.762 -0.1613 -0.0941 -0.3491
 6310W        W 7174   1.977   6.475   0.318 -0.0400  0.0266 -0.0708
 6311W        W 7175   1.484   6.650  24.235 -0.0084  0.2259  0.2520
 6312W        W 7176   4.196   8.539  28.192  0.3499  0.1385  0.0508
 6313W        W 7177   4.594   5.246  23.904  0.1478  0.3358 -0.0726
 6314W        W 7178   0.252   7.233  25.762 -0.0057  0.0808 -0.1458
 6315W        W 7179   2.702   2.624  27.103  0.2019 -0.0008 -0.3562
 6316W        W 7180   3.638   7.188  27.056 -0.1661 -0.1203 -0.1005
 6317W        W 7181   4.055   4.687  27.389 -0.1299  0.3989  0.1729
 6318W        W 7182   3.597   2.109   1.019  0.2059 -0.1061  0.2421
 6319W        W 7183   3.189   6.769  24.983 -0.1162  0.1881  0.0237
 6320W        W 7184   4.470   5.493   1.729  0.0121 -0.2314 -0.0067
 6321W        W 7185   1.415   3.881   1.020 -0.2379  0.1425 -0.0908
 6322W        W 7186  27.685   3.208  27.968 -0.1237  0.0195 -0.2775
 6323W        W 7187   2.612   7.090  27.994  0.2124  0.0425  0.0477
 6324W        W 7188   4.229   9.403  25.867  0.0481  0.2976  0.1403
 6325W        W 7189   3.469   6.820  27.629  0.0972 -0.0905 -0.0583
 6326W        W 7190   3.174   6.161  29.051  0.0445 -0.0526 -0.0447
 6327W        W 7191   3.400   8.303  27.658 -0.1054  0.0656 -0.1505
 6328W        W 7192   1.173   5.715  24.384 -0.1354  0.0039  0.1672
 6329W        W 7193   1.341   4.478  28.894  0.1307 -0.1184  0.1438
 6330W        W 7194   2.598   2.954  24.249 -0.0057  0.2493 -0.1646
 6331W        W 7195   0.866   4.014  28.628  0.0101 -0.3803  0.0470
 6332W        W 7196   1.825   4.447  26.097 -0.3938  0.1438 -0.2378
 6333W        W 7197   3.144   5.627  26.082 -0.0623  0.2486  0.4745
 6334W        W 7198   4.593   8.715  26.433  0.2675  0.0281 -0.0126
 6335W        W 7199   2.990   6.305  26.348 -0.1532  0.0699 -0.1357
 6336W        W 7200   2.557   8.886  22.930  0.1778 -0.2112  0.1103
 6337W        W 7201   1.486   8.064  26.664  0.0623  0.0958 -0.0291
 6338W        W 7202   1.974   3.536  27.850  0.1919 -0.1941  0.0775
 6339W        W 7203   0.757   4.416  29.052 -0.0059  0.0481  0.0880
 6340W        W 7204   2.054   7.167  28.917 -0.1283  0.3175  0.1297
 6341W        W 7205   2.852   7.640  27.396 -0.0099 -0.3240  0.1691
 6342W        W 7206   1.787   5.605  28.502 -0.1796  0.0308 -0.0514
 6343W        W 7207   2.372   7.071  28.468 -0.1570 -0.4814 -0.4160
 6344W        W 7208   4.229   4.852  25.695 -0.0863  0.3139  0.2386
 6345W        W 7209   2.473   8.714  27.724 -0.1753 -0.3693 -0.3943
 6346W        W 7210   2.307   4.564  26.173 -0.0936  0.0345 -0.1451
 6347W        W 7211   2.102   3.057  28.663 -0.1042  0.0647 -0.3362
 6348W        W 7212  27.094   3.310  26.751  0.0574 -0.1458  0.0051
 6349W        W 7213   5.306   2.914  26.732 -0.2287 -0.1078 -0.0042
 6350W        W 7214   2.584   4.742   0.774  0.1725  0.0375 -0.1909
 6351W        W 7215   5.697   5.574  24.628 -0.2407 -0.3714 -0.0362
 6352W        W 7216   2.679   7.227  27.520 -0.0675  0.0701 -0.1813
 6353W        W 7217   0.737   2.981  26.569  0.5004 -0.3179  0.1468
 6354W        W 7218   1.557   5.403  27.668 -0.2229 -0.0720  0.0193
 6355W        W 7219   2.157  10.120  27.256  0.1754 -0.1206 -0.0406
 6356W        W 7220   1.000   6.217  24.692  0.0975 -0.0242 -0.0721
 6357W        W 7221   1.440   7.186  26.557  0.0808 -0.1596  0.2426
 6358W        W 7222   1.068   3.662  26.613  0.1039  0.2554 -0.0333
 6359W        W 7223   2.240   2.757  27.886 -0.4249  0.0117 -0.3700
 6360W        W 7224   2.502   9.352  27.677 -0.1217  0.0114  0.0227
 6361W        W 7225   2.992   9.706  28.831 -0.0605  0.1994 -0.2731
 6362W        W 7226   0.256   6.114  26.506 -0.1556  0.2074  0.2840
 6363W        W 7227   3.847   8.044  27.511 -0.0925 -0.1467 -0.1444
 6364W        W 7228   2.573   3.080  26.952 -0.1219 -0.0586  0.1204
 6365W        W 7229   1.974   8.954  25.331 -0.2699 -0.4024 -0.2373
 6366W        W 7230   1.726   5.294  23.969  0.1786 -0.1117 -0.2642
 6367W        W 7231   5.062   5.583  27.114 -0.1464 -0.1028  0.0292
 6368W        W 7232   1.736   5.681  26.412 -0.0489  0.3535  0.0250
 6369W        W 7233   0.379   5.616   0.903 -0.0190 -0.1216  0.2242
 6370W        W 7234  28.054   5.440  25.834 -0.0908 -0.2338 -0.0231
 6371W        W 7235  28.397   4.687  26.226 -0.2294 -0.3735  0.2177
 6372W        W 7236  27.884   4.281  27.379  0.1066 -0.1248  0.0043
 6373W        W 7237   3.641   4.445  27.475  0.0559 -0.0978  0.0898
 6374W        W 7238   1.383   6.765   0.233  0.1700 -0.0949  0.0986
 6375W        W 7239   2.007   4.901  27.969 -0.0419  0.2030 -0.0569
 6376W        W 7240   2.203   7.597  25.518 -0.0632 -0.1804  0.0698
 6377W        W 7241   2.538   6.166  28.289  0.1933  0.3105  0.0136
 6378W        W 7242   2.153   4.598   1.325 -0.0559  0.1919  0.0013
 6379W        W 7243   0.919   5.992  26.138 -0.1529 -0.2458 -0.3912
 6380W        W 7244   1.370   6.022  26.371 -0.0178 -0.0447 -0.1728
 6381W        W 7245   0.980   8.528   0.848 -0.0447  0.2006 -0.1196
 6382W        W 7246   2.269   8.864  26.639  0.0928  0.2071  0.3007
 6383W        W 7247   3.028   4.274  26.694  0.2932 -0.4123 -0.0581
 6384W        W 7248   3.936   4.072  27.673  0.0659  0.0122 -0.3593
 6385W        W 7249   3.136   6.362  26.802  0.2451  0.1191 -0.1733
 6386W        W 7250   1.102   7.720  24.687  0.1037  0.0875 -0.0606
 6387W        W 7251   2.410   2.977  28.323  0.4646 -0.4076 -0.0023
 6388W        W 7252   2.214   3.993  22.934 -0.0484  0.0431  0.2313
 6389W        W 7253   1.069   6.511  28.443 -0.1580 -0.0979 -0.0797
 6390W        W 7254   1.572   6.939  28.837  0.3709 -0.1503 -0.1247
 6391W        W 7255   1.059   7.323  26.212 -0.0094 -0.1079 -0.3261
 6392W        W 7256   2.160   5.742  27.021  0.1317  0.1586 -0.0289
 6393W        W 7257   0.246   6.682  24.559 -0.0599 -0.2230 -0.0601
 6394W        W 7258   5.617   7.304  26.233  0.2467 -0.1125  0.0872
 6395W        W 7259   1.846   2.572  27.665  0.0136  0.0946  0.1413
 6396W        W 7260  27.645   3.692  23.245 -0.3013 -0.1059  0.1801
 6397W        W 7261   1.320   3.197  24.977  0.2184  0.0636  0.0722
 6398W        W 7262   2.964   7.767   0.401 -0.0277 -0.0462 -0.1648
 6399W        W 7263   3.386   5.775  25.632  0.0706  0.2495  0.1205
 6400W        W 7264   0.344   5.656  26.637 -0.1055 -0.4568  0.0545
 6401W        W 7265   3.584   6.064  27.001  0.0405  0.0327 -0.1210
 6402W        W 7266   1.360   4.656  28.359 -0.2413 -0.0948 -0.2304
 6403W        W 7267   3.191   5.623  24.259  0.1804 -0.1638  0.1663
 6404W        W 7268   2.024   7.087  27.464 -0.0729  0.3065 -0.0767
 6405W        W 7269   0.407   6.639  26.462  0.2209  0.0465 -0.1047
 6406W        W 7270   1.928   4.594   0.351 -0.2267  0.0457  0.2183
 6407W        W 7271   4.212   3.556  28.338  0.4227  0.0856  0.1133
 6408W        W 7272   3.510   4.154  25.548 -0.0719  0.1681 -0.1919
 6409W        W 7273   1.317   2.944  27.518 -0.0199 -0.2161  0.0262
 6410W        W 7274   0.790   2.978  28.928  0.0365  0.0164  0.1502
 6411W        W 7275   0.575   6.430  28.722 -0.2878 -0.1328 -0.1533
 6412W        W 7276   3.201   4.251  27.487  0.0302  0.0423  0.1988
 6413W        W 7277   0.946   3.774  22.571  0.1798  0.0839  0.1529
 6414W        W 7278   3.247   4.632  25.810 -0.1974 -0.1808  0.1558
 6415W        W 7279   2.557   6.381  25.585  0.2095  0.2588  0.0622
 6416W        W 7280   0.565   5.011  27.295  0.1417 -0.1005 -0.1086
 6417W        W 7281   4.220   4.259  28.674 -0.0271  0.1598  0.0260
 6418W        W 7282   0.693   4.680  25.925  0.2310  0.3859 -0.0665
 6419W        W 7283   2.126   7.662  28.644  0.3325 -0.1336 -0.1665
 6420W        W 7284   1.128   4.705  27.275  0.2003 -0.1400 -0.1276
 6421W        W 7285   1.025   5.159  26.671  0.0016 -0.0916  0.1779
 6422W        W 7286   1.083   6.342  24.215 -0.0686  0.0249 -0.2175
 6423W        W 7287   0.742   9.019   1.589 -0.1531 -0.2822 -0.3919
 6424W        W 7288   2.704   5.521  26.922  0.2628  0.3319  0.1480
 6425W        W 7289   2.204   3.444  28.305  0.0389  0.3733 -0.0633
 6426W        W 7290   1.286   6.124  26.858  0.2390 -0.3250 -0.0967
 6427W        W 7291   3.775   6.301   1.507  0.2118 -0.1458  0.3378
 6428W        W 7292   2.084   7.563  26.363 -0.2632  0.0892 -0.2652
 6429W        W 7293   1.347   6.432  24.959  0.0101 -0.0575 -0.1280
 6430W        W 7294   2.828   7.535  25.219 -0.2973 -0.0287 -0.1880
 6431W        W 7295   0.863   6.412  27.121 -0.0355  0.0240  0.1535
 6432W        W 7296   1.419   8.149  27.272 -0.1160  0.1462  0.0515
 6433W        W 7297   1.488   3.295   0.296  0.1777  0.0743 -0.0251
 6434W        W 7298   1.344   4.087  27.719  0.0203 -0.0779  0.0040
 6435W        W 7299  28.764   7.124   1.795 -0.0781  0.0341  0.0567
 6436W        W 7300   0.688   5.485  26.311  0.1745  0.1311  0.0438
 6437W        W 7301   1.414   3.686  23.766 -0.0569 -0.1267  0.0056
 6438W        W 7302   0.342   3.683  25.870 -0.0870  0.0508  0.3093
 6439W        W 7303   2.436   8.232  27.725 -0.2044  0.2009  0.1822
 6440W        W 7304   5.149   4.712  28.564 -0.0539 -0.2535  0.0411
 6441W        W 7305   2.143   7.245  25.914  0.1343  0.1089 -0.2441
 6442W        W 7306   2.683   5.846  27.926  0.0229  0.1665  0.2331
 6443W        W 7307   0.998   5.015  28.750  0.2851 -0.1533  0.1342
 6444W        W 7308   4.930   5.838   1.016  0.1532 -0.0649  0.1574
 6445W        W 7309  28.932   5.396  26.238 -0.2788  0.3659 -0.1582
 6446W        W 7310   2.520   7.743  27.716  0.3062 -0.2664  0.0283
 6447W        W 7311   0.308   5.872  27.868 -0.0251 -0.2645  0.0984
 6448W        W 7312   2.582   7.975  25.451  0.0740  0.0634 -0.1064
 6449W        W 7313   1.140   4.370  25.211 -0.0197 -0.0855 -0.1628
 6450W        W 7314  27.854   3.151  26.201 -0.0759  0.0541 -0.1368
 6451W        W 7315   6.299   7.377  28.323 -0.1805 -0.0368 -0.0650
 6452W        W 7316   3.229   7.415  26.910  0.1238  0.1094  0.1335
 6453W        W 7317  28.662   6.673  26.005 -0.4964  0.0212  0.1122
 6454W        W 7318   1.477   7.706  25.461 -0.1852 -0.2133 -0.2088
 6455W        W 7319  27.804   5.654  25.014 -0.1225 -0.1417 -0.2073
 6456W        W 7320   1.047   2.602  26.691 -0.1424  0.1269  0.4267
 6457W        W 7321   5.844   6.276  28.702  0.2259  0.2567 -0.1001
 6458W        W 7322  28.368   7.019  24.718  0.2262  0.0849 -0.3071
 6459W        W 7323   5.186   7.739  27.139 -0.0770 -0.2391 -0.0378
 6460W        W 7324   1.604   8.727  28.140 -0.1961 -0.2449  0.2856
 6461W        W 7325   3.359   6.557  25.687 -0.2496 -0.0454  0.0515
 6462W        W 7326   1.148   6.817  27.900 -0.0121 -0.3847 -0.2200
 6463W        W 7327   2.080   3.613  27.361  0.2595  0.0532 -0.1828
 6464W        W 7328   3.472   9.277  26.458 -0.2165 -0.0243  0.0838
 6465W        W 7329   4.004   8.564  26.172 -0.1333  0.0890  0.3548
 6466W        W 7330   3.414   3.214  28.207  0.0750 -0.1811 -0.0770
 6467W        W 7331   0.520   8.108  26.424 -0.3126  0.0983 -0.0673
 6468W        W 7332   1.358  10.466  24.405  0.0980  0.0839 -0.0973
 6469W        W 7333   3.941   3.320  26.998 -0.0129  0.1104 -0.2527
 6470W        W 7334   0.921   4.198  28.128  0.0391 -0.3308 -0.0520
 6471W        W 7335   3.219   5.083  28.420 -0.2782  0.1100 -0.0552
 6472W        W 7336   4.186   3.708  24.968  0.0958  0.3351 -0.0995
 6473W        W 7337   0.334   6.352  24.046  0.0540  0.2691 -0.3584
 6474W        W 7338   3.050   4.899  28.884 -0.0314  0.2047 -0.3992
 6475W        W 7339   1.493   5.046  28.055 -0.0096 -0.0774 -0.1925
 6476W        W 7340   0.142   3.725   2.417  0.1132  0.0239 -0.0737
 6477W        W 7341   1.401  10.680  27.620 -0.2369 -0.4685  0.1384
 6478W        W 7342   0.025   6.850  28.035 -0.1008  0.0672  0.0766
 6479W        W 7343   0.374   6.886  24.142 -0.2808 -0.4789  0.0210
 6480W        W 7344   3.406   8.593  28.111  0.3467 -0.0269  0.0176
 6481W        W 7345   2.791   3.792   1.201 -0.0199 -0.0697  0.0323
 6482W        W 7346   2.232   5.081  25.739  0.3434 -0.0486 -0.4036
 6483W        W 7347   2.333   6.177  24.122  0.1243  0.1736  0.2631
 6484W        W 7348   1.507   5.826  27.310 -0.0624 -0.3874 -0.0669
 6485W        W 7349   0.389   2.964   0.144 -0.2548 -0.0207  0.0493
 6486W        W 7350   3.482   4.599  25.298 -0.0934  0.0230  0.0819
 6487W        W 7351   1.709   7.945  28.665 -0.2135  0.2084 -0.1036
 6488W        W 7352   3.111   4.407  28.006  0.1010  0.0363 -0.2025
 6489W        W 7353   1.498   3.431  26.454 -0.1256  0.1090  0.1904
 6490W        W 7354   0.793   5.249   0.063  0.3760  0.2272 -0.0803
 6491W        W 7355  28.130   7.425  24.271 -0.0143 -0.1908 -0.1618
 6492W        W 7356   0.893   8.911  27.439 -0.0768  0.1485  0.0287
 6493W        W 7357   1.550   6.886  27.047  0.0390  0.0312 -0.1612
 6494W        W 7358   2.515   4.042  23.935  0.3484 -0.0266  0.0392
 6495W        W 7359   2.479   5.572  25.736 -0.2099 -0.1910  0.3141
 6496W        W 7360  26.983   7.329  25.965  0.0090  0.2526  0.4063
 6497W        W 7361   4.023   7.000  25.365  0.1766  0.0404  0.1671
 6498W        W 7362   4.289   3.194  28.682 -0.0165 -0.0227 -0.0523
 6499W        W 7363   4.718   7.756  26.263  0.1582  0.0854 -0.0023
 6500W        W 7364   1.989   4.625  27.505 -0.0217 -0.4948 -0.0211
 6501W        W 7365   2.387   5.423  25.273 -0.0536  0.1410 -0.3871
 6502W        W 7366   3.390   7.624  24.330  0.0182  0.0175  0.2455
 6503W        W 7367   0.197   6.359  26.037  0.0064 -0.0996 -0.0258
 6504W        W 7368   3.210   5.212  23.863 -0.1991  0.0679  0.2521
 6505W        W 7369   2.688   4.778  25.900  0.0385 -0.1341 -0.1892
 6506W        W 7370   0.810   7.253  28.217  0.0950  0.0587  0.0196
 6507W        W 7371   1.323   8.531  26.746  0.1101 -0.0043 -0.1028
 6508W        W 7372  28.873   5.557  27.358 -0.0607  0.2128 -0.3531
 6509W        W 7373   4.185   4.037   0.047  0.3004  0.0469 -0.1267
 6510W        W 7374   2.752   5.945  26.006 -0.2939  0.1992  0.2240
 6511W        W 7375   3.087   4.932  27.907  0.2218  0.1805 -0.3067
 6512W        W 7376   0.460   9.299  26.174 -0.0147  0.1626  0.0637
 6513W        W 7377  28.818   6.294  25.301 -0.0141  0.1629  0.1547
 6514W        W 7378   1.144   4.063   0.210 -0.0381 -0.0658 -0.1467
 6515W        W 7379   2.556   3.404  28.762 -0.3487 -0.2043  0.1310
 6516W        W 7380   4.098   7.116  23.892 -0.2663  0.2704 -0.1437
 6517W        W 7381   0.543   6.076  24.501 -0.0715  0.1096 -0.3000
 6518W        W 7382   3.790   9.176  27.689  0.0176  0.1555 -0.0149
 6519W        W 7383   3.300   5.244  27.597 -0.0762  0.1212  0.1606
 6520W        W 7384   1.706   6.827  25.227  0.0926 -0.0278  0.0861
 6521W        W 7385   2.121   3.310  26.824  0.1696 -0.1051 -0.0917
 6522W        W 7386   1.795   6.181  28.084 -0.0602 -0.2444 -0.1298
 6523W        W 7387   0.174   5.592  25.607 -0.3761  0.4209 -0.1560
 6524W        W 7388   0.972   5.848   0.158  0.1286 -0.0159  0.1238
 6525W        W 7389   0.129   3.579  26.771  0.0595  0.0340 -0.3480
 6526W        W 7390   3.288   5.743  27.832 -0.5219  0.1043 -0.3273
 6527W        W 7391   0.574   7.626   0.804  0.2967  0.0648  0.1151
 6528W        W 7392   1.066   7.804   1.010  0.3679  0.2470  0.1897
 6529W        W 7393  28.216   6.552  26.292 -0.2637 -0.1389  0.7841
 6530W        W 7394   1.373   4.148  28.391  0.2436  0.3744 -0.1932
 6531W        W 7395   0.775   6.345  26.608 -0.1833  0.1803  0.0245
 6532W        W 7396   2.049   4.012  29.119 -0.1283  0.0219  0.1531
 6533W        W 7397   1.984   7.155  26.956 -0.2910  0.0589  0.0487
 6534W        W 7398   7.744   4.417  24.653 -0.1150  0.2392 -0.1696
 6535W        W 7399   1.011   8.106  24.413 -0.1691  0.1427  0.0304
 6536W        W 7400   2.810   6.483  24.337  0.0834  0.1215  0.0624
 6537W        W 7401  28.222   5.978  25.863 -0.0605 -0.3230 -0.1038
 6538W        W 7402   0.867   7.641  26.609  0.2993  0.2627 -0.2165
 6539W        W 7403   4.486   5.973  29.081  0.0297 -0.2251 -0.2013
 6540W        W 7404   0.152   7.055  26.650  0.2160 -0.0325 -0.1617
 6541W        W 7405   2.056   6.015  24.555 -0.1370 -0.0995  0.1000
 6542W        W 7406   1.649   5.477  24.421 -0.0116  0.0159  0.3223
 6543W        W 7407   1.850   4.009  28.533  0.0986 -0.2828  0.3922
 6544W        W 7408   2.091   4.594  25.717 -0.1621 -0.1340 -0.0356
 6545W        W 7409   2.398   6.148  28.758 -0.1545 -0.3546 -0.0392
 6546W        W 7410   1.929   5.424  27.997  0.1691  0.0693 -0.1338
 6547W        W 7411   2.533   4.859  27.942  0.0523 -0.2931  0.3971
 6548W        W 7412   1.440   9.622  28.559 -0.3586  0.1267 -0.1095
 6549W        W 7413   2.024   7.103  26.445  0.0665 -0.1021  0.3404
 6550W        W 7414   2.536   5.801   0.487 -0.2781 -0.0405  0.0598
 6551W        W 7415   2.916   5.109  24.592  0.1176 -0.2206  0.0105
 6552W        W 7416   1.513   4.877  27.593  0.2368 -0.0081 -0.1273
 6553W        W 7417   1.768   7.273  25.574  0.2339 -0.0524  0.1030
 6554W        W 7418   0.225   6.411  27.839 -0.0161 -0.1010 -0.3232
 6555W        W 7419  29.100   2.611  27.940  0.1416  0.1017 -0.1158
 6556W        W 7420  28.643   8.441  26.731 -0.2876  0.3278 -0.0325
 6557W        W 7421   1.065   5.199  27.183  0.2418 -0.0013 -0.0609
 6558W        W 7422   0.897   4.893   0.562 -0.2321 -0.0278 -0.0586
 6559W        W 7423  27.457   5.844  25.326 -0.1684  0.0710  0.1412
 6560W        W 7424   1.043   6.704  28.917  0.1833 -0.0119 -0.3358
 6561W        W 7425   2.486   7.880  26.495  0.0795  0.0662  0.0895
 6562W        W 7426  27.816   6.290  25.615 -0.1985 -0.1554 -0.1231
 6563W        W 7427   3.747   3.764   0.107  0.1911 -0.0835 -0.1306
 6564W        W 7428   5.043   3.665  22.708 -0.2824  0.1439  0.0936
 6565W        W 7429   1.819   7.733  27.288 -0.2597 -0.0238 -0.2033
 6566W        W 7430   2.693   8.633  26.762 -0.1279 -0.2565 -0.3473
 6567W        W 7431   0.137   9.596  27.267 -0.0356 -0.2118  0.1170
 6568W        W 7432   0.658   2.577  26.224  0.1858  0.0881  0.1690
 6569W        W 7433   0.635   7.710  28.232  0.2734  0.1947 -0.3492
 6570W        W 7434   3.991   6.862  26.865  0.2959  0.2681  0.0827
 6571W        W 7435   1.740   2.572   0.595 -0.0046 -0.2785  0.0851
 6572W        W 7436   1.378   6.910  26.155  0.0319  0.2033 -0.0976
 6573W        W 7437   1.472   7.265  27.936 -0.0004  0.1417  0.0628
 6574W        W 7438   1.210   5.760  25.627 -0.1215 -0.0266 -0.2198
 6575W        W 7439   2.264   4.432  27.954  0.0732  0.2174 -0.1505
 6576W        W 7440   2.764   3.478  25.865 -0.2039  0.2267 -0.0102
 6577W        W 7441  29.088   9.761  26.365  0.0812 -0.1824 -0.0343
 6578W        W 7442   3.853   9.587  24.596 -0.0898 -0.1301 -0.0792
 6579W        W 7443   2.573   8.799  25.982  0.2211 -0.0276 -0.3101
 6580W        W 7444   4.074   8.440  25.689 -0.0603 -0.1799 -0.0569
 6581W        W 7445   3.213   3.652  25.494 -0.1432  0.0306 -0.2069
 6582W        W 7446   2.255   2.807  26.665 -0.0262  0.3027 -0.1648
 6583W        W 7447   0.006   6.013  24.465  0.0365  0.0567  0.2141
 6584W        W 7448   2.961   3.851  26.121  0.0089 -0.0918 -0.1770
 6585W        W 7449   0.018   5.971  25.061  0.2580 -0.1445  0.0100
 6586W        W 7450   4.951   5.589  25.665  0.1265 -0.0711  0.1524
 6587W        W 7451   1.493   7.878  24.937 -0.0449 -0.1537  0.1964
 6588W        W 7452   3.542   4.454  26.619  0.0712  0.4069  0.0936
 6589W        W 7453   0.543   4.799  26.395 -0.0814  0.0114  0.1991
 6590W        W 7454   3.656   5.979  27.492  0.0205  0.1670 -0.1144
 6591W        W 7455   3.808   5.034   0.244  0.2358  0.1263  0.0643
 6592W        W 7456   0.179   5.417  27.985 -0.2268  0.2823 -0.0147
 6593W        W 7457   2.588   6.052  26.450 -0.0702  0.1338 -0.0415
 6594W        W 7458   2.772   4.332  26.259  0.0535  0.1838 -0.0664
 6595W        W 7459   1.030   6.801  27.415 -0.1885  0.1159  0.0187
 6596W        W 7460   4.306   8.384  25.221  0.4617  0.0696  0.2478
 6597W        W 7461   6.207   8.052  27.261  0.0550  0.2241 -0.3283
 6598W        W 7462   2.979   5.067   0.701  0.2441 -0.0467 -0.1953
 6599W        W 7463   2.964   7.243  26.482  0.2417  0.0986  0.2130
 6600W        W 7464   1.536   4.830  25.970  0.1540 -0.1740 -0.2688
 6601W        W 7465   2.509   5.044  26.258 -0.3541  0.0347 -0.2572
 6602W        W 7466   2.169   5.875  28.044 -0.2519 -0.0606 -0.0242
 6603W        W 7467   5.387   9.637  28.842 -0.0031 -0.0450  0.1370
 6604W        W 7468   1.008   5.817  27.174 -0.1684 -0.5279  0.2159
 6605W        W 7469   1.348   7.222  24.464 -0.1190  0.0872 -0.2501
 6606W        W 7470   4.756   5.380  25.301  0.0310  0.1265 -0.0751
 6607W        W 7471   2.765   7.754  28.265  0.1796 -0.0243 -0.0287
 6608W        W 7472   0.209   4.347   0.412  0.2633  0.4141 -0.0374
 6609W        W 7473   2.867   8.448  25.296 -0.3472  0.1958  0.2231
 6610W        W 7474   2.694   6.751   0.337  0.2307 -0.3933 -0.1991
 6611W        W 7475   0.740  10.206  27.596 -0.1989  0.1457 -0.1351
 6612W        W 7476   1.685   5.332  25.956  0.0472 -0.4183 -0.3026
 6613W        W 7477  27.844   9.147   2.828 -0.0865  0.0016 -0.0437
 6614W        W 7478  27.412  10.044   6.382  0.1212  0.0408 -0.1502
 6615W        W 7479   3.038   9.331   1.429 -0.3448 -0.0432  0.0867
 6616W        W 7480   3.669   9.188   3.414  0.2611  0.0865 -0.0151
 6617W        W 7481   1.441   8.696  29.131 -0.2123  0.0461 -0.0480
 6618W        W 7482   0.354   8.270   1.653 -0.1853 -0.1138 -0.0958
 6619W        W 7483   0.704   6.932   0.977  0.1235 -0.3208 -0.1804
 6620W        W 7484   1.986   9.885  29.148 -0.0519  0.1260  0.0430
 6621W        W 7485   3.428   7.632   2.222 -0.0828 -0.0599  0.1353
 6622W        W 7486   0.064   7.916   3.169 -0.0494 -0.1562 -0.0973
 6623W        W 7487   1.398   6.425   0.940 -0.0596 -0.0754  0.1992
 6624W        W 7488   2.800   7.859   1.356  0.2909  0.1659  0.0232
 6625W        W 7489   5.061   8.472   0.511 -0.4565 -0.4914 -0.1599
 6626W        W 7490   4.041   8.924   5.170  0.0952  0.2652 -0.2386
 6627W        W 7491   0.160   6.445   2.088 -0.3471  0.0958 -0.1079
 6628W        W 7492   0.033   9.652   4.014 -0.0732  0.1171 -0.0097
 6629W        W 7493   1.126   8.930  26.964  0.0732  0.0552 -0.2206
 6630W        W 7494  27.902   7.360   1.185 -0.1724 -0.3031 -0.0727
 6631W        W 7495   3.713   7.805   1.038  0.1936 -0.2648  0.0673
 6632W        W 7496   3.657   8.201   0.702  0.1105  0.0927 -0.2077
 6633W        W 7497   4.771   9.802   1.641 -0.1928  0.0666  0.2335
 6634W        W 7498   0.830  11.488   3.266  0.3066 -0.0149 -0.0234
 6635W        W 7499   3.811   9.952   1.802  0.3467 -0.1043  0.1768
 6636W        W 7500   1.339  10.248   3.979  0.1610  0.0937 -0.1238
 6637W        W 7501  27.261   9.105   2.765  0.1990 -0.0612  0.2693
 6638W        W 7502   0.780   9.885   2.220  0.0809  0.1726  0.0077
 6639W        W 7503   4.426  10.009   1.944  0.0039  0.2282 -0.1674
 6640W        W 7504   1.997  11.769   1.565 -0.0099  0.3191  0.2926
 6641W        W 7505   3.981  10.673   2.936  0.1656  0.0896 -0.0652
 6642W        W 7506   2.962   8.110   2.667 -0.0102 -0.0412  0.2508
 6643W        W 7507   1.689   9.882   2.711 -0.2416  0.3166  0.0432
 6644W        W 7508   2.165   8.810   2.696 -0.5670  0.0703 -0.1338
 6645W        W 7509   0.901   9.875   4.078 -0.0420  0.4720 -0.0808
 6646W        W 7510   1.137   8.824   1.888 -0.1263 -0.1893  0.1753
 6647W        W 7511   0.856   6.202   3.068 -0.4907  0.1460  0.0864
 6648W        W 7512   3.557   8.034   2.472  0.0901  0.2519  0.1378
 6649W        W 7513   2.431   8.376   1.624  0.1040  0.0783 -0.1763
 6650W        W 7514   0.735   9.442   3.675  0.1628  0.0212 -0.1773
 6651W        W 7515   2.991   9.875   2.893 -0.2220  0.0678 -0.0427
 6652W        W 7516   2.284   7.546  29.148 -0.0249  0.0793 -0.2807
 6653W        W 7517   2.447   6.875  27.222  0.0528 -0.1537  0.0861
 6654W        W 7518   2.799   9.900   4.649  0.2493 -0.1451  0.2839
 6655W        W 7519  28.457   9.959   1.313  0.3878 -0.2660  0.3197
 6656W        W 7520   3.856   9.986  29.019 -0.3596 -0.2252 -0.1120
 6657W        W 7521   2.545   9.312   1.636  0.2354  0.0774 -0.0927
 6658W        W 7522  28.466  12.690   0.583 -0.2557 -0.1600 -0.1255
 6659W        W 7523   0.728   8.229   3.986  0.1252 -0.0120 -0.0751
 6660W        W 7524   3.010   8.308   1.706  0.0023  0.0578  0.2814
 6661W        W 7525   0.717  11.115   3.004 -0.2296  0.4569 -0.0008
 6662W        W 7526   3.427   8.190  28.460 -0.1672 -0.0724 -0.3294
 6663W        W 7527   1.560  10.333   2.938  0.4067 -0.1074 -0.0025
 6664W        W 7528   3.605   6.738   0.869  0.0411 -0.0865 -0.1856
 6665W        W 7529   1.902   9.271   3.412 -0.1586  0.0041  0.0050
 6666W        W 7530   1.339   9.269   1.724  0.1382 -0.1494  0.0146
 6667W        W 7531   1.210   6.317   1.421  0.2087  0.1603 -0.1682
 6668W        W 7532   1.654  10.515   1.005 -0.0557 -0.0944 -0.2492
 6669W        W 7533   0.959   7.355   0.688 -0.2230  0.1303  0.1247
 6670W        W 7534   2.848   7.076   1.599  0.0727 -0.1166 -0.2655
 6671W        W 7535   0.942   9.485   1.478  0.1573 -0.0272  0.2813
 6672W        W 7536   3.895  11.679  29.023  0.3160 -0.2581  0.3097
 6673W        W 7537   2.719  10.377   0.265  0.2911 -0.0594 -0.0342
 6674W        W 7538   0.211  12.445   3.988  0.0592 -0.0949  0.0434
 6675W        W 7539   1.889   7.204   0.782  0.2923 -0.1351  0.1007
 6676W        W 7540   0.808   8.238  28.289  0.0901 -0.0795  0.0380
 6677W        W 7541   0.179   6.133   1.227  0.0040  0.1284 -0.1099
 6678W        W 7542   3.274   8.481   2.501  0.0838  0.1156 -0.0382
 6679W        W 7543   1.032   9.691   0.199 -0.1680 -0.2437  0.2137
 6680W        W 7544  28.729   9.347   1.017 -0.0767  0.1174 -0.1420
 6681W        W 7545   1.501  11.866   2.812  0.1285 -0.1188 -0.1546
 6682W        W 7546   2.544  10.703   1.126  0.1628 -0.0090 -0.1810
 6683W        W 7547   3.160   9.245   3.566  0.2763 -0.0379 -0.0404
 6684W        W 7548   1.826   5.142  28.408 -0.1654  0.1422 -0.0550
 6685W        W 7549   4.137   9.170   3.257  0.0003  0.1434 -0.0254
 6686W        W 7550   4.771   7.905   3.387  0.0290 -0.0826  0.1546
 6687W        W 7551   3.566  11.523   3.424 -0.1455 -0.2479  0.2215
 6688W        W 7552   4.472  10.252   3.396 -0.1125  0.0663 -0.0805
 6689W        W 7553   1.503  10.783   1.458  0.2568 -0.3002 -0.0396
 6690W        W 7554   0.430  10.760   2.305  0.1031  0.0916 -0.0196
 6691W        W 7555   2.293   9.147   1.062  0.4724  0.0745 -0.1000
 6692W        W 7556   1.810   9.033   2.928 -0.2828  0.1782  0.1976
 6693W        W 7557   2.572   8.073   0.266 -0.0366  0.1373 -0.1781
 6694W        W 7558   1.884   8.242   3.588  0.0012 -0.2562  0.2107
 6695W        W 7559   0.396   9.756   2.551  0.2670 -0.2313 -0.0127
 6696W        W 7560   3.589   7.510   4.980 -0.1254  0.3194 -0.0891
 6697W        W 7561   2.989   9.456   4.431  0.1761  0.2176  0.1885
 6698W        W 7562   3.703   8.845  26.794  0.0617 -0.0200 -0.1690
 6699W        W 7563   2.934   9.655   1.895 -0.1119 -0.2490 -0.1730
 6700W        W 7564   0.178   5.159   0.976 -0.4766 -0.1684 -0.1609
 6701W        W 7565   4.502  10.501   5.824  0.0958  0.2660  0.1914
 6702W        W 7566   3.092   7.246   2.031  0.0580  0.0085  0.2787
 6703W        W 7567   3.056   7.796   1.893 -0.0065  0.1178  0.2036
 6704W        W 7568   4.689  10.983   5.930 -0.3485  0.1720  0.3011
 6705W        W 7569   0.288   9.981  28.622 -0.1665 -0.0263 -0.1009
 6706W        W 7570   2.733   8.245   0.726 -0.1968  0.2735 -0.1251
 6707W        W 7571   3.202   6.466   3.735 -0.0927 -0.1769 -0.1827
 6708W        W 7572   4.207   8.759   2.310 -0.1976  0.1495  0.0411
 6709W        W 7573   6.840   8.629  29.072  0.0154  0.1468  0.2246
 6710W        W 7574   0.939  10.888   2.049 -0.0294  0.1014 -0.2668
 6711W        W 7575   0.203   5.740  27.318  0.1598  0.0298  0.2594
 6712W        W 7576   3.022   6.039  27.239 -0.1078 -0.0461  0.0481
 6713W        W 7577   4.833   8.328  28.820 -0.1027  0.1189  0.1190
 6714W        W 7578  28.230  10.589  28.097 -0.0980  0.2685 -0.2787
 6715W        W 7579   2.140   4.994   0.490 -0.1266  0.3955  0.0244
 6716W        W 7580   4.274   9.454   2.922  0.3784 -0.0722 -0.0091
 6717W        W 7581   3.909   7.116   0.301  0.0615 -0.0602 -0.1813
 6718W        W 7582   2.142   9.744   2.463 -0.0207  0.1526 -0.2208
 6719W        W 7583   3.033  10.845   1.719 -0.2313  0.1984  0.1414
 6720W        W 7584   2.593   9.361   3.462 -0.0113  0.3888 -0.4805
 6721W        W 7585   1.936   6.490   2.524  0.1102 -0.0484  0.2081
 6722W        W 7586   1.244   8.550  28.416  0.0074 -0.2069  0.0353
 6723W        W 7587   0.274   8.105   3.776 -0.1650  0.0147  0.0304
 6724W        W 7588   4.345   9.733   3.499 -0.0365  0.1518  0.1386
 6725W        W 7589   4.082   7.590  28.613 -0.2151 -0.0118  0.1751
 6726W        W 7590   1.614   7.840   3.858 -0.2071  0.2479 -0.1770
 6727W        W 7591   4.589  14.647   0.224  0.1143 -0.0394 -0.1067
 6728W        W 7592   1.179   7.931   2.331 -0.1524  0.0057  0.2168
 6729W        W 7593   2.629   8.930   2.802  0.3485  0.3116 -0.1615
 6730W        W 7594   2.301   6.840   3.023 -0.0234 -0.0335  0.2871
 6731W        W 7595   2.644  10.828   3.014 -0.2670 -0.1822 -0.0187
 6732W        W 7596   4.025   9.895   0.566  0.0639 -0.2364 -0.2560
 6733W        W 7597   0.561   5.497  27.504 -0.0910  0.0840  0.2172
 6734W        W 7598   2.338  10.694   2.566 -0.0157 -0.0725 -0.1191
 6735W        W 7599   2.285  10.705   3.980 -0.1472 -0.0702  0.0281
 6736W        W 7600   4.072  10.278   1.038 -0.0958 -0.0961 -0.2948
 6737W        W 7601   2.820   8.949   3.375  0.0605  0.0193  0.0337
 6738W        W 7602   2.369   8.042   1.204  0.1671 -0.2649  0.0999
 6739W        W 7603   0.419   8.210   2.128 -0.1025 -0.2348 -0.0006
 6740W        W 7604   5.428   9.012   2.702 -0.0384 -0.1510 -0.4154
 6741W        W 7605   2.222  11.269   1.809 -0.1484 -0.1061  0.1193
 6742W        W 7606   4.176  12.234   0.548  0.1923  0.1031  0.0366
 6743W        W 7607   2.789  10.565   4.073  0.0278 -0.1348  0.1263
 6744W        W 7608   6.007   9.425   0.878  0.0643  0.1225 -0.2275
 6745W        W 7609   3.286  10.857   6.138  0.1237 -0.0175 -0.2183
 6746W        W 7610   1.855  11.494   0.523 -0.0661 -0.1299  0.0175
 6747W        W 7611   3.442   8.500   1.558  0.0284  0.2050 -0.3959
 6748W        W 7612  28.137   8.948   1.268 -0.0803 -0.1820  0.1108
 6749W        W 7613   1.565   7.697   0.816 -0.1330  0.4638  0.1482
 6750W        W 7614   5.440   9.505   2.065 -0.1071 -0.1029  0.1549
 6751W        W 7615   4.084  12.963   1.404  0.0872  0.1869 -0.1879
 6752W        W 7616   0.674  12.233   2.626  0.4708 -0.0863  0.1251
 6753W        W 7617   1.136   6.435   2.144 -0.2740 -0.1548 -0.0881
 6754W        W 7618   2.137   8.368   0.274 -0.1128 -0.2565 -0.0213
 6755W        W 7619   0.536  10.899  28.386 -0.1264 -0.1179 -0.0264
 6756W        W 7620   1.674   9.403   2.539 -0.4349  0.0463  0.3251
 6757W        W 7621   3.575   7.643   5.429 -0.1300  0.1593 -0.4479
 6758W        W 7622   3.178   8.811   1.277  0.0957 -0.1841 -0.0955
 6759W        W 7623   2.973  10.128  25.238  0.1268  0.0142  0.2132
 6760W        W 7624   3.030   9.582   4.922 -0.2438 -0.0217 -0.2368
 6761W        W 7625   2.074   9.726   3.459 -0.1797 -0.0328  0.0275
 6762W        W 7626   4.533   9.135   0.731  0.1134 -0.1292 -0.1646
 6763W        W 7627   1.706  11.634   2.418 -0.1913  0.0104  0.0517
 6764W        W 7628   0.822   5.122   2.619  0.0869 -0.0248 -0.4690
 6765W        W 7629  28.777   9.560   3.670  0.0997  0.1716  0.1705
 6766W        W 7630   1.666   7.469  28.696  0.0838 -0.0644 -0.1185
 6767W        W 7631   1.587   8.622   2.199  0.0698  0.1010  0.1302
 6768W        W 7632   3.318   8.020   1.442  0.3461  0.1741 -0.2529
 6769W        W 7633  27.806  10.450   1.102 -0.1172  0.2502  0.3248
 6770W        W 7634   2.962   8.640   0.260  0.2132 -0.1254  0.0588
 6771W        W 7635   0.868   6.895  26.432  0.1484 -0.1529 -0.0320
 6772W        W 7636   4.415   8.387   1.181 -0.0443  0.2373  0.1028
 6773W        W 7637   3.841   7.636   4.382 -0.2537  0.1645  0.4041
 6774W        W 7638   1.877   9.440   0.391  0.2094 -0.0149 -0.0337
 6775W        W 7639   2.623  10.049   3.257  0.1369  0.0645 -0.1869
 6776W        W 7640   1.338  11.445   3.006 -0.0072 -0.1015  0.0436
 6777W        W 7641  28.310   7.572   2.999  0.0019  0.1850 -0.0396
 6778W        W 7642   2.376   7.487   2.730  0.0838  0.0161  0.2337
 6779W        W 7643  28.191   9.512   2.667 -0.0733 -0.1615 -0.0997
 6780W        W 7644  29.005  10.782   1.021  0.0653 -0.0292 -0.0268
 6781W        W 7645   2.082   7.705   4.549  0.3990  0.0161  0.0568
 6782W        W 7646  28.449  10.423   0.034  0.1724 -0.2028 -0.0814
 6783W        W 7647   4.083   6.978   0.769 -0.1794  0.0621 -0.0547
 6784W        W 7648   3.329   8.432  29.037  0.3368 -0.1819 -0.0459
 6785W        W 7649   0.865  10.785   2.639 -0.0422 -0.2745  0.0814
 6786W        W 7650   4.283  11.826   0.841  0.0804  0.1847 -0.1111
 6787W        W 7651   3.267   9.098   2.634 -0.0512  0.2434  0.1748
 6788W        W 7652   4.928   8.588   1.153  0.0747  0.1666 -0.0463
 6789W        W 7653   1.843  10.085   3.250 -0.0364 -0.3116 -0.0984
 6790W        W 7654   0.941  11.550   4.284  0.0712 -0.0132 -0.1446
 6791W        W 7655  28.832  11.170   2.664  0.4414  0.1085 -0.3516
 6792W        W 7656  27.918   8.851   4.848 -0.0912 -0.0424 -0.2285
 6793W        W 7657  28.900   8.482  26.263 -0.0861  0.1407  0.0430
 6794W        W 7658   5.794  10.741   1.274 -0.0802  0.1298  0.0447
 6795W        W 7659   3.677   8.663   0.877  0.0842  0.3995  0.1790
 6796W        W 7660   1.093   7.736  28.032  0.2937  0.3494  0.0136
 6797W        W 7661   1.070  10.006   1.114  0.3182  0.2428 -0.0327
 6798W        W 7662   1.191   9.655   3.721  0.1058 -0.0622  0.1899
 6799W        W 7663   0.883  10.366   0.817 -0.1468 -0.1078 -0.0750
 6800W        W 7664  29.056   5.556   1.958  0.3297 -0.1551  0.2257
 6801W        W 7665   2.602   8.054   3.850 -0.0664  0.1400 -0.0589
 6802W        W 7666   2.847  11.511   1.034  0.3229  0.1095  0.3652
 6803W        W 7667   0.965   9.010   0.093 -0.0037 -0.1256  0.0150
 6804W        W 7668   0.111   9.992   0.431 -0.0638 -0.1176 -0.1815
 6805W        W 7669   0.202   5.897   2.226  0.0169 -0.0376 -0.1689
 6806W        W 7670   2.041   8.464   2.006  0.0239 -0.0581 -0.0162
 6807W        W 7671   3.411   9.775   2.137  0.0027  0.1765 -0.0125
 6808W        W 7672   1.349   7.729   0.359  0.0601  0.0637 -0.1772
 6809W        W 7673   2.840   6.499  29.114  0.2043  0.1570  0.3585
 6810W        W 7674   0.418  10.083   2.970  0.1695 -0.0656  0.1709
 6811W        W 7675  28.853   8.877   0.580  0.2926 -0.0088  0.0072
 6812W        W 7676   0.670   5.750  28.882 -0.0351 -0.1831 -0.3512
 6813W        W 7677  27.195   8.630   2.554  0.2851  0.0485 -0.0905
 6814W        W 7678   2.045   6.828   1.179  0.1634 -0.2111 -0.1546
 6815W        W 7679   3.637  10.519   1.883  0.2446 -0.1898 -0.0637
 6816W        W 7680  27.824   7.964   0.880  0.2729 -0.2045  0.0119
 6817W        W 7681   1.435   9.370   3.023  0.0124  0.0516  0.2208
 6818W        W 7682   1.466   7.955   2.757 -0.1411  0.1432  0.1122
 6819W        W 7683   0.961   7.375   4.220 -0.1157 -0.2673 -0.0319
 6820W        W 7684   2.409   9.545   4.679  0.2955 -0.1096  0.2817
 6821W        W 7685   4.047  12.208   1.045  0.1963  0.0652  0.0031
 6822W        W 7686   0.718  10.299   1.383  0.2628  0.1335  0.0224
 6823W        W 7687  28.939  11.608   4.191 -0.3913  0.0157  0.0397
 6824W        W 7688  28.751   8.511   1.977  0.0647  0.0215 -0.1361
 6825W        W 7689   4.391   7.980   1.661  0.1026 -0.0238  0.0794
 6826W        W 7690   2.395   7.084   1.831  0.1677  0.4082  0.0442
 6827W        W 7691   1.728  10.008   3.716 -0.1208 -0.0082 -0.0210
 6828W        W 7692   4.324   9.543   1.081 -0.1428 -0.0499  0.1996
 6829W        W 7693   1.255  10.138   2.140  0.1334 -0.1943  0.5389
 6830W        W 7694   1.624   8.654   1.671  0.0773  0.0758 -0.2172
 6831W        W 7695   2.579   8.618   2.053 -0.1206  0.1706  0.0903
 6832W        W 7696   0.706   9.045   7.064  0.1250 -0.0761 -0.2472
 6833W        W 7697   3.847   5.832   4.731 -0.1770  0.0164  0.2837
 6834W        W 7698   3.567   7.104  29.024  0.0027 -0.0567 -0.2066
 6835W        W 7699   1.296  11.346   4.720 -0.0164  0.0541  0.1282
 6836W        W 7700   1.478   9.861   1.770  0.0649  0.0646 -0.3584
 6837W        W 7701   2.451  11.838  28.889  0.3005 -0.0950  0.0225
 6838W        W 7702   2.310   8.183   3.436  0.4104 -0.3471  0.0861
 6839W        W 7703   1.746   8.127   1.796 -0.0567 -0.0871 -0.1080
 6840W        W 7704   2.104   7.631   0.963  0.0443 -0.1283  0.2708
 6841W        W 7705   2.807  10.817   2.554  0.0694 -0.2656  0.1812
 6842W        W 7706   3.175   9.130   0.242 -0.1393  0.2062  0.0645
 6843W        W 7707  28.194  10.110  28.863  0.1273 -0.0958 -0.2064
 6844W        W 7708   2.595  10.027   2.065 -0.0822 -0.2152 -0.0653
 6845W        W 7709  27.007  10.768   1.530  0.0491  0.2113  0.2982
 6846W        W 7710   1.743  10.799  29.116 -0.0951 -0.2699  0.0510
 6847W        W 7711  28.458   6.549   3.078 -0.2633  0.0041  0.1266
 6848W        W 7712   1.490   9.780   0.183 -0.2186  0.3289 -0.0184
 6849W        W 7713   1.491   8.543   1.008  0.2575 -0.2189 -0.0582
 6850W        W 7714   3.474   7.304   3.536  0.0461  0.0392 -0.0650
 6851W        W 7715   2.395   8.594   3.130  0.0963 -0.0160 -0.0003
 6852W        W 7716   4.598   7.411   3.236  0.1139  0.1700  0.0143
 6853W        W 7717   3.709   9.565   0.809 -0.2029 -0.1833  0.1267
 6854W        W 7718   0.078  10.200   4.134  0.3329 -0.0601  0.1034
 6855W        W 7719   1.870   8.980   2.368 -0.0563  0.1481 -0.0125
 6856W        W 7720   2.193   6.825   0.695 -0.0033 -0.1363 -0.1704
 6857W        W 7721   3.803   7.081   1.372  0.0794 -0.1003  0.1703
 6858W        W 7722   1.755   8.564   2.697 -0.3181  0.1641  0.2698
 6859W        W 7723   3.412   9.851   2.634 -0.0300  0.0370  0.3104
 6860W        W 7724   1.546  11.804   3.304  0.0207  0.3017 -0.1339
 6861W        W 7725   4.408  10.546   1.762 -0.0115 -0.0294 -0.1232
 6862W        W 7726   1.038   7.080   2.841  0.2850  0.0872 -0.0978
 6863W        W 7727   1.177   8.994   0.979 -0.1758  0.2429 -0.0681
 6864W        W 7728   1.701   9.661   4.541  0.1341  0.0430  0.1572
 6865W        W 7729   3.814  10.293   4.105 -0.1275  0.1220 -0.5285
 6866W        W 7730   4.746   6.956   2.094  0.0979 -0.0426  0.3810
 6867W        W 7731   2.774   6.157   0.926 -0.0720  0.0862 -0.1674
 6868W        W 7732   3.660  12.625  28.597 -0.2541  0.1780 -0.1988
 6869W        W 7733   3.258   9.294   2.047 -0.0529  0.2736  0.2049
 6870W        W 7734   0.356   8.541   0.947 -0.2927 -0.1976  0.4412
 6871W        W 7735   3.708  11.374   1.675 -0.0871  0.1605 -0.1195
 6872W        W 7736   1.381   8.813   3.063 -0.3124  0.1057  0.2031
 6873W        W 7737   2.019   7.411   2.365  0.3249  0.0415  0.0270
 6874W        W 7738   1.471   9.277   4.304 -0.0391 -0.1356  0.1323
 6875W        W 7739   3.481   9.702   3.562  0.0756  0.0338 -0.0147
 6876W        W 7740   0.306   7.325   2.340 -0.1237  0.1173  0.0872
 6877W        W 7741   2.193  11.117   0.829 -0.2396 -0.0105  0.1275
 6878W        W 7742  28.740   8.693   3.181  0.1087  0.1277 -0.2164
 6879W        W 7743   0.019  10.461   2.657  0.1061 -0.2083 -0.0735
 6880W        W 7744   3.040   7.483  27.951 -0.0198 -0.2459  0.0379
 6881W        W 7745   0.700   6.784   2.094 -0.1277  0.0355 -0.2665
 6882W        W 7746   3.563   5.293  28.055 -0.1247  0.0149  0.2491
 6883W        W 7747   1.434   7.579   1.316 -0.1171 -0.0083 -0.2182
 6884W        W 7748   2.799   8.178   3.273 -0.1337  0.2021  0.3610
 6885W        W 7749   1.216   7.797   3.485 -0.2679  0.0078  0.0791
 6886W        W 7750  27.947   7.923   4.980 -0.1344 -0.0541  0.0704
 6887W        W 7751   2.774   9.055   0.512 -0.1347  0.0769  0.3560
 6888W        W 7752   0.026   7.867   4.126  0.2336  0.1693  0.0949
 6889W        W 7753  26.963   7.878   0.427 -0.4122 -0.0160  0.0311
 6890W        W 7754   1.728   6.766   0.639  0.2584 -0.5332  0.0455
 6891W        W 7755   1.327  10.557  28.940  0.2479  0.0021  0.1254
 6892W        W 7756   1.918   6.774   4.154  0.1338 -0.0943 -0.0977
 6893W        W 7757   3.495   8.682   0.324  0.0769  0.1726 -0.0516
 6894W        W 7758   1.833   7.441   0.342 -0.0690  0.4621  0.1488
 6895W        W 7759   0.848  10.559  28.488 -0.1024  0.0523  0.1550
 6896W        W 7760   0.812  10.386   2.128  0.1562 -0.2433  0.1952
 6897W        W 7761   2.579  10.146   1.137  0.1489  0.0214  0.0865
 6898W        W 7762   3.472   9.347   4.517  0.2997  0.1159  0.2078
 6899W        W 7763   2.598   9.795   3.719 -0.0428 -0.2882 -0.0122
 6900W        W 7764  29.062   9.698   4.524 -0.0354  0.1533 -0.1493
 6901W        W 7765   2.962   8.875   1.751  0.0062 -0.0557  0.4416
 6902W        W 7766   2.538  11.223   0.390 -0.0868 -0.2613 -0.0046
 6903W        W 7767   1.484   7.360   0.018  0.1296  0.0698  0.1182
 6904W        W 7768   1.402   7.248   0.987 -0.0810  0.0861 -0.0776
 6905W        W 7769   4.423   8.668   3.336 -0.0012 -0.1904 -0.0388
 6906W        W 7770  28.602   9.256   2.003  0.4020  0.3428 -0.1627
 6907W        W 7771   0.062  10.235   4.618 -0.1589 -0.3088 -0.0631
 6908W        W 7772   2.809   7.600   2.981 -0.1829 -0.2572  0.2306
 6909W        W 7773   4.387   8.970   1.199 -0.1638  0.3620  0.0846
 6910W        W 7774   2.931   9.338   2.874 -0.2055 -0.0379 -0.1749
 6911W        W 7775   3.304   8.396   1.056 -0.0901 -0.0037 -0.1712
 6912W        W 7776  28.946  11.132   1.741  0.0420  0.1435 -0.2683
 6913W        W 7777  28.724  11.617   2.819  0.2075  0.2911  0.0693
 6914W        W 7778   0.832   8.139   4.509 -0.0752 -0.1359  0.2551
 6915W        W 7779   1.595  11.800   7.485  0.0952  0.0172 -0.0094
 6916W        W 7780   1.378   5.944   3.997  0.0465  0.1021 -0.4332
 6917W        W 7781   2.491   8.521  28.342 -0.3440  0.1105 -0.3703
 6918W        W 7782   2.432  10.220   2.475  0.1117 -0.1547  0.0476
 6919W        W 7783   3.767   7.830   1.540  0.3264 -0.0393 -0.0928
 6920W        W 7784   3.970   6.703  29.111 -0.1532 -0.1108 -0.4346
 6921W        W 7785   1.005   4.844   1.461 -0.0759  0.0743  0.0756
 6922W        W 7786  29.134  10.445   3.766  0.1087 -0.0291 -0.1793
 6923W        W 7787   3.303   5.909   0.827 -0.0435 -0.0634  0.1585
 6924W        W 7788   3.046   7.914   4.081 -0.0176  0.1533 -0.1593
 6925W        W 7789   3.535   9.164   0.662 -0.2101 -0.0975  0.2982
 6926W        W 7790   3.318  12.031   1.916 -0.0574  0.1891 -0.0287
 6927W        W 7791  28.352  10.836   2.775 -0.0232  0.0128  0.1523
 6928W        W 7792   1.223   8.965   4.956 -0.0312  0.0750  0.1127
 6929W        W 7793  28.209  11.071  28.026 -0.0309  0.5057 -0.0691
 6930W        W 7794   1.877   8.673   3.320  0.2050 -0.1152 -0.3277
 6931W        W 7795   2.000   8.262   3.037 -0.3094  0.2012  0.0292
 6932W        W 7796   0.913   9.326   1.967  0.0646 -0.1307  0.1807
 6933W        W 7797   1.283   8.279   1.903 -0.0805 -0.4327  0.1836
 6934W        W 7798   4.160  12.689  27.293 -0.2941 -0.0912 -0.2713
 6935W        W 7799   0.376   7.810   1.728 -0.1663  0.1992 -0.2685
 6936W        W 7800   1.217   9.850   3.068 -0.1804  0.2237  0.0793
 6937W        W 7801   1.461  10.706   3.636 -0.1312  0.0893  0.1177
 6938W        W 7802   4.088   7.384   4.002  0.1421 -0.0939 -0.0848
 6939W        W 7803   3.088   6.961   0.037 -0.0724 -0.0063 -0.1322
 6940W        W 7804   0.281  10.399   1.955  0.0912 -0.2370  0.1682
 6941W        W 7805   1.419   8.588   3.607 -0.0402 -0.0870 -0.0706
 6942W        W 7806  28.485   7.940   2.712  0.0007  0.0020  0.0543
 6943W        W 7807   1.611   7.648   2.187  0.1559  0.0796  0.0994
 6944W        W 7808   3.402   9.067  28.167  0.0272  0.2142  0.4102
 6945W        W 7809   3.949   9.248   1.496  0.0621  0.0790  0.0972
 6946W        W 7810   1.046  11.361   2.106 -0.0253 -0.0154  0.0338
 6947W        W 7811   4.705   9.922   3.839 -0.3104  0.0731  0.0156
 6948W        W 7812   1.623  12.247   2.430 -0.0241 -0.0625 -0.2616
 6949W        W 7813   1.269  12.852   1.867  0.2411 -0.1117  0.2433
 6950W        W 7814   5.496  10.972   0.350  0.3356 -0.2780 -0.3176
 6951W        W 7815   0.901   7.836   0.472 -0.2514  0.1386 -0.1474
 6952W        W 7816   1.402   9.103   3.487  0.5192 -0.1164 -0.1205
 6953W        W 7817   2.463  12.534   3.129 -0.2430 -0.0110  0.2246
 6954W        W 7818   1.675   8.626   4.923  0.3507  0.3490  0.0925
 6955W        W 7819  28.649   5.834   2.464  0.1233  0.2034  0.2688
 6956W        W 7820   2.711   9.686   0.719 -0.1233 -0.2186  0.2020
 6957W        W 7821   2.236   9.078   2.073  0.0788 -0.0310  0.0663
 6958W        W 7822   3.658   7.573   3.088  0.0582  0.2797  0.0948
 6959W        W 7823   0.595  10.418   4.055  0.4706 -0.1126 -0.0282
 6960W        W 7824  28.905   6.226   2.209  0.3924 -0.0209  0.0624
 6961W        W 7825   0.739   9.658   2.853  0.0669 -0.2234 -0.1929
 6962W        W 7826   0.035   9.473   0.533 -0.3150 -0.0178  0.0656
 6963W        W 7827   3.428  10.131   3.890 -0.2345  0.2427 -0.0470
 6964W        W 7828   3.615  10.089   0.976 -0.0325  0.2052 -0.1496
 6965W        W 7829   5.288   9.891   1.844  0.1764  0.0332  0.0911
 6966W        W 7830  29.010  10.801   2.215  0.1599 -0.0992 -0.0445
 6967W        W 7831   2.252   9.553   2.013 -0.0708 -0.0738 -0.0321
 6968W        W 7832   2.462   7.228   1.182 -0.0659  0.1564  0.1243
 6969W        W 7833   2.705  10.391   1.701 -0.2185  0.0024  0.1399
 6970W        W 7834   2.574   7.503   1.659  0.2707 -0.0491 -0.1296
 6971W        W 7835   1.991   7.827   2.701  0.0614 -0.0498  0.1227
 6972W        W 7836   0.991   9.447   0.992  0.0649  0.0743  0.2339
 6973W        W 7837   2.624   9.781   2.556  0.1528 -0.1376 -0.4306
 6974W        W 7838   2.192  11.560   2.668 -0.2134 -0.3339  0.0179
 6975W        W 7839   0.043   9.967   3.606  0.0108  0.1407  0.1879
 6976W        W 7840  29.142   8.120   1.943  0.1801 -0.0138  0.1418
 6977W        W 7841   1.153  10.156   0.119 -0.1888 -0.0568 -0.1584
 6978W        W 7842   2.656   7.700   0.918 -0.3584  0.0272  0.3532
 6979W        W 7843   1.608   9.647   3.379 -0.2243 -0.1698 -0.0013
 6980W        W 7844   2.765  11.063   0.822  0.3546 -0.0496  0.1413
 6981W        W 7845   2.985   6.812  27.660 -0.1874 -0.0623  0.1451
 6982W        W 7846   1.573   6.903  27.579 -0.2010  0.0434 -0.0531
 6983W        W 7847  28.380   7.951  27.528  0.0869 -0.0813 -0.3551
 6984W        W 7848   2.845   8.842  28.424  0.1458  0.0199  0.2323
 6985W        W 7849   2.336   9.657   0.414 -0.1360 -0.2492  0.2984
 6986W        W 7850   4.935  10.376   3.428 -0.0098  0.0509  0.5019
 6987W        W 7851   0.413  10.869  25.732  0.2182  0.2602  0.2990
 6988W        W 7852   0.748   6.989   5.105 -0.0748 -0.2049 -0.2139
 6989W        W 7853   0.023   7.049   2.835  0.0259 -0.0959 -0.2456
 6990W        W 7854   6.853  10.247   3.702  0.3682 -0.3909 -0.1738
 6991W        W 7855   2.672  10.764   3.586  0.3395  0.0779 -0.1727
 6992W        W 7856  28.237   8.911   2.530  0.2222  0.0956  0.1368
 6993W        W 7857   1.236   6.972   2.183 -0.2525  0.0643  0.0372
 6994W        W 7858   1.188   9.624   2.652 -0.0743 -0.0099  0.1557
 6995W        W 7859   1.984  10.587   4.535 -0.1326  0.2305  0.1262
 6996W        W 7860   2.175  10.317   0.295  0.1109  0.0702  0.0921
 6997W        W 7861   0.709  11.705   3.707  0.0188  0.0532 -0.1875
 6998W        W 7862   3.668  10.566   1.165 -0.0010 -0.2256  0.1642
 6999W        W 7863   3.199  10.629   2.138  0.1610  0.0218 -0.0844
 7000W        W 7864   1.823   9.414   0.933  0.4519  0.0064 -0.0083
 7001W        W 7865   2.196   8.508   3.919  0.5250  0.0425 -0.2660
 7002W        W 7866   4.344  12.856   1.987 -0.2067  0.0045  0.0011
 7003W        W 7867  28.547  10.633   6.654  0.0443 -0.2776  0.0800
 7004W        W 7868   1.342   7.799   1.748  0.2018  0.0202 -0.1304
 7005W        W 7869   2.231   8.120   0.673  0.2026 -0.0284 -0.2227
 7006W        W 7870   3.866  12.645   1.973  0.1794 -0.1042  0.0275
 7007W        W 7871   1.200  11.571   3.718 -0.0606 -0.1027 -0.1826
 7008W        W 7872   1.893   8.368   1.360  0.0274 -0.0938 -0.2781
 7009W        W 7873   2.786  11.667   0.529  0.2449  0.0920  0.0504
 7010W        W 7874   3.104  11.646   4.086  0.1089  0.0080  0.2304
 7011W        W 7875   1.573  12.167   0.633  0.1574 -0.2742  0.0170
 7012W        W 7876   1.533   6.248   0.416 -0.1049 -0.0857  0.1300
 7013W        W 7877   0.670  11.154   8.020 -0.1611  0.0963 -0.1723
 7014W        W 7878  25.722  10.116   7.508  0.3060  0.2225 -0.3026
 7015W        W 7879   4.229  10.773   4.988 -0.2257 -0.0206  0.1184
 7016W        W 7880   2.180  10.991   8.314  0.2121 -0.2458  0.0812
 7017W        W 7881  28.117   8.801   4.421  0.2730  0.0202  0.3323
 7018W        W 7882   3.199   8.416   4.548 -0.0234 -0.0226 -0.1457
 7019W        W 7883   3.034   8.916   4.287  0.0882  0.0732 -0.0541
 7020W        W 7884   1.570   6.203   2.854  0.2859  0.1243 -0.2023
 7021W        W 7885   1.551   9.157   6.435  0.1648 -0.0405 -0.2216
 7022W        W 7886   0.890   5.216   8.184 -0.1540  0.0300 -0.1473
 7023W        W 7887  28.714   5.336   4.665 -0.1472 -0.0865 -0.0968
 7024W        W 7888   4.787   5.181   7.564  0.0246 -0.1708  0.5537
 7025W        W 7889   3.821   9.176   2.858 -0.2258  0.2646 -0.0084
 7026W        W 7890   3.374   6.897   3.816 -0.0955  0.0291  0.1865
 7027W        W 7891   0.447   9.300   6.751 -0.0340 -0.0351  0.2122
 7028W        W 7892  29.076   9.691   7.609 -0.2335 -0.0975  0.1881
 7029W        W 7893   3.282  10.600   4.044  0.0533  0.0968  0.0550
 7030W        W 7894   1.017   8.397   5.573  0.1220 -0.0180 -0.1886
 7031W        W 7895   2.348   8.524   5.484 -0.1045  0.2246 -0.1114
 7032W        W 7896   0.722  12.026   5.216 -0.0498  0.1619 -0.2594
 7033W        W 7897   1.717   8.429   4.091  0.0562 -0.1647 -0.1093
 7034W        W 7898   0.691   9.205   4.955  0.2919 -0.0084  0.2114
 7035W        W 7899   1.642  12.674   2.677 -0.1529  0.3529 -0.1999
 7036W        W 7900   2.022   6.513   8.405 -0.0931  0.1420 -0.1586
 7037W        W 7901   0.008   7.464   6.105 -0.2900 -0.1897 -0.1142
 7038W        W 7902   2.004   7.800   7.181  0.0679 -0.0681  0.0372
 7039W        W 7903   6.084  10.367   7.463 -0.0399  0.1036  0.0976
 7040W        W 7904   2.847   6.936   3.773 -0.2529 -0.1876 -0.1248
 7041W        W 7905   3.701   8.395   9.618 -0.0184 -0.0994 -0.1573
 7042W        W 7906   1.220   7.350   5.053 -0.2334 -0.1935 -0.0611
 7043W        W 7907   1.791  10.799   2.447  0.0410  0.0866 -0.4313
 7044W        W 7908   3.077  10.766   9.598 -0.2437  0.2053  0.1407
 7045W        W 7909  29.081   8.725   9.636 -0.0428  0.1477 -0.0762
 7046W        W 7910   2.065  11.769   7.295 -0.0954  0.0621  0.1503
 7047W        W 7911   0.549   8.530   6.909  0.1330  0.0450  0.0408
 7048W        W 7912   2.714  10.738   8.208  0.1390  0.0206 -0.3710
 7049W        W 7913   0.539   8.476   3.511 -0.0290 -0.1326  0.1297
 7050W        W 7914   2.819   8.989   6.237 -0.1681 -0.0945 -0.1649
 7051W        W 7915   3.082   9.533   2.444 -0.0055 -0.1682 -0.4382
 7052W        W 7916   2.667   7.269   5.110  0.0809  0.1776 -0.1572
 7053W        W 7917   3.900   9.554   4.484  0.5255 -0.1610 -0.2780
 7054W        W 7918   2.622  10.099   5.522  0.1694  0.0016  0.2241
 7055W        W 7919   2.527  12.033   7.211  0.1814  0.1227 -0.1964
 7056W        W 7920   4.019  10.877   1.822 -0.1788 -0.3158 -0.0229
 7057W        W 7921  28.210  10.485   3.591 -0.1947  0.1635 -0.1322
 7058W        W 7922  29.102  11.808   3.103  0.0393 -0.0368  0.1461
 7059W        W 7923  28.860   5.840   7.008  0.1292  0.1619  0.0494
 7060W        W 7924   5.934   9.547  10.673  0.0151  0.0954 -0.0117
 7061W        W 7925   2.866  12.489   3.562 -0.1563 -0.2879  0.0002
 7062W        W 7926   0.504   7.211   2.850 -0.1396  0.0757  0.1108
 7063W        W 7927   2.855  11.889   4.788 -0.1248 -0.0501 -0.0163
 7064W        W 7928  28.742  10.495   5.822 -0.2039 -0.1137  0.1031
 7065W        W 7929   2.789  10.724   5.896 -0.1246  0.0649 -0.0756
 7066W        W 7930   4.311  10.467   5.351  0.1234 -0.1117 -0.0491
 7067W        W 7931   2.569   6.613   4.579 -0.1013 -0.2651 -0.5893
 7068W        W 7932   0.020   8.416   5.308  0.3370  0.1554  0.1379
 7069W        W 7933   1.903   7.411   2.936  0.0130  0.0587 -0.2163
 7070W        W 7934   3.056   8.541   5.282 -0.0593  0.2944 -0.0254
 7071W        W 7935  28.710   8.582   3.640  0.1730  0.0224 -0.2704
 7072W        W 7936   3.671   8.902   2.367  0.0690  0.1485  0.0963
 7073W        W 7937   2.084   4.848   4.573 -0.2115  0.3956 -0.1601
 7074W        W 7938  27.652  12.591   6.050 -0.1019  0.0120  0.0257
 7075W        W 7939   1.030  10.609   5.378 -0.2070  0.0850  0.0623
 7076W        W 7940   1.263   8.251   4.290 -0.0521  0.0293 -0.3715
 7077W        W 7941   0.298   6.949   9.395  0.2254 -0.0506 -0.0537
 7078W        W 7942   4.865   7.193   5.702  0.0736  0.2040 -0.2385
 7079W        W 7943   1.561   7.426   6.893 -0.3856  0.1105 -0.0364
 7080W        W 7944  26.843   5.436   5.051  0.0922  0.0779  0.0096
 7081W        W 7945   0.819   9.534   7.112 -0.3535 -0.0221 -0.0887
 7082W        W 7946   3.662   9.486   6.607  0.0712  0.2929  0.0030
 7083W        W 7947   1.043   9.750   8.974  0.1283 -0.0186  0.3901
 7084W        W 7948   0.546   8.847   2.101  0.1141 -0.0909 -0.1881
 7085W        W 7949   2.116  11.134   4.795  0.1149  0.1582 -0.1454
 7086W        W 7950   3.517   6.840   7.291  0.0516  0.1158  0.0711
 7087W        W 7951   3.410  10.228   4.388 -0.1627  0.1889  0.1188
 7088W        W 7952   2.940   8.062   6.695  0.0290 -0.2012 -0.0069
 7089W        W 7953  28.868   5.727   5.525 -0.1195  0.1039 -0.1505
 7090W        W 7954   3.225  10.447   7.402  0.0560  0.2995 -0.2288
 7091W        W 7955   2.839  11.593   6.554  0.0237  0.2802  0.1112
 7092W        W 7956   4.747   9.619   4.242  0.0164  0.2426 -0.1647
 7093W        W 7957   1.191   9.513   6.061 -0.3522 -0.1453 -0.0053
 7094W        W 7958  28.107   7.048   5.208  0.1839  0.2899  0.3115
 7095W        W 7959   0.802   7.928   6.176  0.1239 -0.0767 -0.1379
 7096W        W 7960   3.104   9.221   7.507  0.2051  0.1074  0.0188
 7097W        W 7961  28.870   5.231   7.789  0.1174 -0.1114  0.2625
 7098W        W 7962   2.463   5.610   2.499  0.0318  0.1096 -0.2176
 7099W        W 7963   5.236  11.877   6.605  0.2434  0.0637 -0.0344
 7100W        W 7964   1.386   6.743   6.594  0.3539 -0.2184  0.0489
 7101W        W 7965   5.642   9.089   9.825  0.3921 -0.2077 -0.1731
 7102W        W 7966   3.093   7.694   5.730  0.2815 -0.2701 -0.1600
 7103W        W 7967   2.442   8.094   4.738  0.2074  0.0390 -0.1440
 7104W        W 7968   3.511   9.763   6.174 -0.0791  0.0366  0.2720
 7105W        W 7969  27.550   8.839   4.519 -0.3787  0.0500  0.2895
 7106W        W 7970   3.698  10.490   3.665 -0.2271  0.2676  0.0553
 7107W        W 7971   0.240   7.829   8.924 -0.2755 -0.0043  0.1640
 7108W        W 7972   5.007   9.147   2.866 -0.3051  0.2522  0.2728
 7109W        W 7973   2.680   7.441   3.908  0.0923  0.0560 -0.0206
 7110W        W 7974   1.081  11.181   8.318 -0.3119 -0.0416  0.0049
 7111W        W 7975  28.744   6.872   4.339  0.0610 -0.0616 -0.1275
 7112W        W 7976   4.592   8.529   5.182 -0.2052 -0.3448 -0.0513
 7113W        W 7977   1.573  12.324   3.088 -0.2323  0.2743 -0.1018
 7114W        W 7978   0.971   9.503   4.341  0.1396 -0.0831 -0.1546
 7115W        W 7979   2.952   7.332   3.466 -0.3059  0.1148 -0.0802
 7116W        W 7980   3.540  11.912   7.512  0.0293  0.2900  0.0626
 7117W        W 7981   2.930   8.015   4.524  0.1321 -0.0817  0.0710
 7118W        W 7982   2.183  10.077   8.847  0.1913  0.1422 -0.1766
 7119W        W 7983   2.060   9.737   4.189 -0.0844 -0.1571 -0.2925
 7120W        W 7984   2.618   7.789   9.672 -0.1448  0.2659  0.1601
 7121W        W 7985   2.185   7.710   3.792  0.2907  0.1891  0.1492
 7122W        W 7986   1.603   9.245   5.911  0.1843  0.0153 -0.0178
 7123W        W 7987   0.387   6.423   6.576 -0.3655  0.0680 -0.3061
 7124W        W 7988   1.883  10.681   6.024  0.0974 -0.4316 -0.2435
 7125W        W 7989   4.438   6.038   6.657 -0.1428  0.0559  0.0653
 7126W        W 7990   2.763   8.484   6.372 -0.3592 -0.0228  0.2464
 7127W        W 7991   4.023   9.501   6.172  0.0248 -0.0388 -0.0615
 7128W        W 7992   2.832   9.307   5.884  0.3460  0.2389 -0.2598
 7129W        W 7993   5.606   7.626   6.627 -0.1157  0.0576 -0.0510
 7130W        W 7994   0.768  11.599   5.576  0.0884 -0.1810 -0.1743
 7131W        W 7995   2.005   9.008   6.239  0.1349  0.0107 -0.0260
 7132W        W 7996   3.287  10.274   2.841  0.1500  0.1766 -0.3484
 7133W        W 7997   2.248  10.045   4.655  0.0101  0.1871 -0.0424
 7134W        W 7998   1.467  10.413   5.622  0.2693  0.1078  0.0972
 7135W        W 7999   3.716  11.488   4.880 -0.2712  0.0568  0.1390
 7136W        W 8000   1.194  11.020   5.079 -0.0996  0.3154  0.0209
 7137W        W 8001   0.656   8.376   6.361  0.0270  0.1186 -0.0396
 7138W        W 8002   5.319  10.017   3.359 -0.0743  0.1750 -0.3895
 7139W        W 8003  26.789   6.106   5.993 -0.2334  0.0748 -0.0730
 7140W        W 8004   2.900   8.434   7.603 -0.0572 -0.3550 -0.1242
 7141W        W 8005   3.403  10.588   6.494 -0.0049  0.0589 -0.0918
 7142W        W 8006   0.543  10.375   8.061  0.0052 -0.2170  0.1509
 7143W        W 8007   0.865  12.109   5.746 -0.0867 -0.3718 -0.4145
 7144W        W 8008  28.484   4.921   7.054  0.0052  0.2115  0.2232
 7145W        W 8009  28.587  11.100   6.287 -0.0017  0.1511 -0.0552
 7146W        W 8010   1.533   8.438   5.700  0.2915 -0.1654 -0.3678
 7147W        W 8011   1.974   8.990   7.153  0.2238  0.5393  0.0732
 7148W        W 8012   0.301   7.930   6.194  0.2096 -0.0265 -0.0181
 7149W        W 8013   2.049   9.599   4.961  0.0439  0.2066 -0.1377
 7150W        W 8014   2.317   7.359   6.362 -0.1230  0.1245  0.1241
 7151W        W 8015   3.059  11.186   3.627  0.0240  0.2497 -0.4157
 7152W        W 8016   0.534  10.590   5.578 -0.3197  0.1355 -0.2071
 7153W        W 8017   0.973   7.526   5.940 -0.3128  0.1406 -0.3210
 7154W        W 8018  29.068   8.245   6.339 -0.0206 -0.0235 -0.2099
 7155W        W 8019  28.598  11.386   4.634 -0.1939  0.0280  0.3025
 7156W        W 8020   1.059   7.802   5.104 -0.2832  0.0260  0.0190
 7157W        W 8021   1.104  10.165   7.357  0.0426  0.1144 -0.2129
 7158W        W 8022   2.490   9.153   4.289 -0.1918  0.2303 -0.0975
 7159W        W 8023   3.176   7.861   3.149 -0.1648 -0.0737 -0.0651
 7160W        W 8024   1.081  10.672   3.927  0.0650 -0.1987 -0.0842
 7161W        W 8025  28.149  11.060   9.006 -0.2094  0.0597  0.2459
 7162W        W 8026   1.925   8.720   6.714 -0.1203 -0.0077 -0.0483
 7163W        W 8027   3.620  10.563   5.264 -0.1761 -0.0807 -0.1717
 7164W        W 8028  28.902   4.452   3.363  0.3261  0.2459  0.0698
 7165W        W 8029   0.434   9.461   4.293  0.2978  0.0404  0.0357
 7166W        W 8030   2.672   6.188   1.496  0.0522 -0.0539  0.1464
 7167W        W 8031  28.538  10.000   7.409 -0.1381 -0.0352 -0.1274
 7168W        W 8032   3.394   7.121   4.736  0.1113 -0.3088  0.3088
 7169W        W 8033   0.052   8.317   5.801 -0.5370  0.0493 -0.0752
 7170W        W 8034   3.027  10.907   4.417  0.0749  0.2709 -0.2677
 7171W        W 8035   0.922   6.058   3.727  0.0106  0.1541  0.0026
 7172W        W 8036   2.603   7.538   4.676  0.1247  0.0184 -0.1752
 7173W        W 8037   3.492   6.739   9.265  0.0110 -0.2180 -0.0120
 7174W        W 8038   4.992   9.364   8.729  0.0748 -0.2515  0.1674
 7175W        W 8039   1.279  11.421   5.642 -0.2542 -0.0973  0.3234
 7176W        W 8040   1.431   6.655   8.619 -0.1315 -0.0285 -0.1662
 7177W        W 8041   1.316   5.899   4.957 -0.2604 -0.1605  0.0157
 7178W        W 8042   2.446   9.288   6.198  0.0324 -0.0594 -0.0741
 7179W        W 8043   1.682   7.561   5.120 -0.0012 -0.1817 -0.0712
 7180W        W 8044  27.357  12.216   5.225 -0.0929  0.0737 -0.2114
 7181W        W 8045   3.465   9.160   9.589 -0.1320 -0.0298  0.2342
 7182W        W 8046   0.738   8.582   4.383  0.1108  0.1239 -0.0262
 7183W        W 8047   1.789   9.763   7.160 -0.2473  0.0217  0.0282
 7184W        W 8048   2.791   9.332   7.934 -0.0671  0.1230  0.0448
 7185W        W 8049   1.507  10.552   5.114  0.0431 -0.2615  0.0125
 7186W        W 8050   2.319   8.847   3.577 -0.4372 -0.1309 -0.2116
 7187W        W 8051   3.217   8.689   6.252 -0.3003 -0.0205  0.2414
 7188W        W 8052   4.657   8.932   4.372  0.0592  0.3423  0.0961
 7189W        W 8053   0.632  10.875   8.471  0.2035  0.0537 -0.2994
 7190W        W 8054   3.687   9.284  10.064  0.1831 -0.1650 -0.1794
 7191W        W 8055  25.835  10.962   4.979 -0.1103 -0.2076  0.1264
 7192W        W 8056   1.261   5.720   6.137  0.0525 -0.0855  0.4945
 7193W        W 8057  28.134  10.043   5.389  0.0375 -0.2187 -0.1253
 7194W        W 8058   5.211   9.971   3.801  0.0945 -0.1059  0.3690
 7195W        W 8059   0.443   9.018   3.634 -0.1192  0.3051 -0.0441
 7196W        W 8060   1.374   8.133   5.367  0.1121  0.1351  0.0549
 7197W        W 8061   0.268   5.975   5.109 -0.1691  0.3558 -0.1962
 7198W        W 8062   1.033   8.941   6.316  0.3324  0.1983 -0.0223
 7199W        W 8063   1.833   5.542   4.072  0.1623  0.1325 -0.2016
 7200W        W 8064   0.878   6.790   3.280 -0.2611 -0.2347 -0.2283
 7201W        W 8065   2.130   9.292   6.619  0.2504 -0.2241  0.0791
 7202W        W 8066  28.355  12.135   6.512 -0.3101  0.0117  0.2011
 7203W        W 8067   0.327   9.341   5.755  0.0207 -0.1338 -0.0366
 7204W        W 8068  27.473  10.776   5.067  0.6170 -0.0708 -0.0376
 7205W        W 8069   1.296   9.341   5.255  0.0961 -0.4355 -0.1224
 7206W        W 8070   1.834   5.576   4.968 -0.2164  0.0988 -0.2113
 7207W        W 8071   2.308   6.429   7.966  0.1680 -0.1728  0.0857
 7208W        W 8072   2.857   6.669   2.982 -0.0849  0.2905  0.3299
 7209W        W 8073   3.212   7.360   3.934 -0.1153  0.1152  0.0033
 7210W        W 8074   1.154   7.096   6.864  0.0173 -0.2893 -0.1856
 7211W        W 8075   0.148   9.976   8.006 -0.1972 -0.1907 -0.0404
 7212W        W 8076   3.785   7.811   6.495 -0.1568  0.0009 -0.0515
 7213W        W 8077   0.391   5.467   5.195 -0.3197 -0.1127  0.5797
 7214W        W 8078   4.306   7.833   6.712 -0.1239  0.0300  0.1411
 7215W        W 8079   5.181  10.913   6.492  0.3899 -0.0753  0.3953
 7216W        W 8080   1.265   6.271   5.407  0.0828  0.0386 -0.1210
 7217W        W 8081   3.554   6.373   6.823 -0.1494 -0.2010  0.0572
 7218W        W 8082  28.709   7.810   3.168 -0.2027 -0.0366 -0.0296
 7219W        W 8083  28.178   9.314   6.578 -0.0768 -0.2412 -0.3141
 7220W        W 8084   2.523   7.807   4.271 -0.0929  0.1066  0.0300
 7221W        W 8085   1.686   8.820   4.408 -0.2335  0.2409 -0.0527
 7222W        W 8086   0.523   8.129   3.122  0.0119 -0.0775 -0.2665
 7223W        W 8087   2.171   7.812   6.734  0.1982  0.2802 -0.1552
 7224W        W 8088  28.693  11.037   5.678  0.3716  0.0419  0.2702
 7225W        W 8089  28.408  11.168   4.216 -0.1467  0.1720 -0.2551
 7226W        W 8090   4.757   7.830   7.041 -0.0527  0.0510 -0.2036
 7227W        W 8091   0.814  10.432   6.547 -0.2199 -0.2973  0.1301
 7228W        W 8092   3.617   9.429   2.488 -0.2021  0.0858 -0.1648
 7229W        W 8093   0.946  10.012   6.893 -0.1294  0.0725  0.1412
 7230W        W 8094   1.023  11.375   2.637  0.0526 -0.2892  0.0912
 7231W        W 8095   2.312   6.389   7.456  0.0021  0.3749  0.1303
 7232W        W 8096   0.406  10.675   6.240 -0.0957 -0.1150 -0.2070
 7233W        W 8097   2.221   9.477   7.122  0.1365  0.3370 -0.1908
 7234W        W 8098   3.130   8.822   4.833  0.0057  0.0451  0.0129
 7235W        W 8099   2.178   9.034   4.703  0.0258 -0.1180 -0.0472
 7236W        W 8100   3.346   4.594   4.872  0.1856 -0.2163 -0.1173
 7237W        W 8101   2.219  10.021   2.897 -0.0028  0.0462  0.0471
 7238W        W 8102  28.005   6.929   8.360  0.0400 -0.2430  0.0016
 7239W        W 8103   4.274  10.738   8.040  0.2266 -0.2805 -0.0161
 7240W        W 8104   7.718   9.003   5.106  0.0306 -0.0956 -0.1170
 7241W        W 8105   1.564   8.905   5.351 -0.0976 -0.0112 -0.0589
 7242W        W 8106   2.528  10.678   7.006 -0.2057  0.2189 -0.1810
 7243W        W 8107  28.705   6.893   8.481  0.0948  0.4067  0.3166
 7244W        W 8108   0.128   8.920   4.901 -0.1486 -0.1265 -0.3822
 7245W        W 8109   1.113   7.616   4.614 -0.0129 -0.0168 -0.3600
 7246W        W 8110   0.764   8.012   3.548 -0.2600 -0.0760  0.0420
 7247W        W 8111  28.950   9.738   7.141  0.2023 -0.1763 -0.0887
 7248W        W 8112   1.687   9.212   4.828  0.2556 -0.2622 -0.1085
 7249W        W 8113   3.841   6.268   4.960  0.1500 -0.2339  0.2211
 7250W        W 8114  28.758   5.325   6.755 -0.0583 -0.1549  0.4336
 7251W        W 8115   3.934   9.106   6.490 -0.1207  0.1770  0.1710
 7252W        W 8116   4.269  12.238   7.199 -0.1524 -0.0334 -0.1709
 7253W        W 8117   2.100  11.982   6.824  0.1157 -0.0573  0.2801
 7254W        W 8118   0.016   6.825   4.807 -0.0946 -0.0203  0.0163
 7255W        W 8119   3.812   9.211   6.997 -0.2128 -0.0548 -0.1386
 7256W        W 8120   1.533   6.076   5.828  0.0231 -0.2168 -0.2899
 7257W        W 8121   3.133   9.418   6.296 -0.3511  0.4806 -0.0967
 7258W        W 8122   3.760   9.475   1.933 -0.0953  0.3506 -0.1267
 7259W        W 8123   2.375  10.374   6.694 -0.1752  0.0217  0.3911
 7260W        W 8124  26.958  10.389   7.599  0.0843 -0.1381  0.3760
 7261W        W 8125   3.585  11.165   3.020 -0.0797 -0.2233 -0.2576
 7262W        W 8126   0.390   7.694   3.525 -0.0259 -0.1087 -0.0307
 7263W        W 8127   1.279   7.411   3.847  0.0657 -0.1430 -0.0327
 7264W        W 8128  28.061   6.120   6.172  0.1511 -0.1329 -0.1208
 7265W        W 8129   3.688  10.659   7.154  0.1012  0.0160 -0.0685
 7266W        W 8130   2.588   8.774   5.095  0.2544 -0.4154  0.2710
 7267W        W 8131  26.124   9.890   7.381  0.0095 -0.2239  0.3958
 7268W        W 8132   5.143  13.285   4.900 -0.0857 -0.2234  0.0132
 7269W        W 8133   2.503   7.409   6.875 -0.1630  0.0627 -0.1602
 7270W        W 8134   0.826   7.055   7.400  0.0469  0.3541 -0.1634
 7271W        W 8135   2.348  12.000   5.834 -0.1320  0.0655 -0.0409
 7272W        W 8136   4.322  11.332   5.570  0.0145  0.0822 -0.1095
 7273W        W 8137   2.546   9.026   5.555 -0.0473 -0.1583  0.1396
 7274W        W 8138   0.712   7.596   3.075  0.0118  0.0065  0.2426
 7275W        W 8139   0.995   8.557   7.739 -0.1786  0.0491  0.0139
 7276W        W 8140   1.799   9.343   7.443 -0.3722  0.2280 -0.1025
 7277W        W 8141   1.315  10.272   6.624 -0.1924 -0.4013 -0.0976
 7278W        W 8142  28.115   9.544   7.540 -0.4064 -0.0623  0.3256
 7279W        W 8143   1.685   8.302   7.036  0.2456  0.1346  0.1073
 7280W        W 8144   3.929   9.977   5.705  0.2506  0.2289 -0.1334
 7281W        W 8145   0.939   5.212   7.673  0.2422 -0.2744 -0.3308
 7282W        W 8146   4.449   7.811   4.231  0.0918 -0.0481 -0.2101
 7283W        W 8147  26.605  11.716   5.685  0.0577  0.3243  0.0717
 7284W        W 8148   3.025   9.051   8.236  0.0704 -0.1095 -0.0636
 7285W        W 8149   1.356   9.741   6.576  0.3258  0.0189  0.1837
 7286W        W 8150   0.110  10.367   5.740 -0.3086  0.1861  0.3674
 7287W        W 8151   2.750  10.250   7.184  0.1652  0.1339 -0.0358
 7288W        W 8152  28.685   5.772   5.992  0.4558 -0.0611 -0.2523
 7289W        W 8153   0.987   5.759   7.093  0.0159 -0.0780  0.1690
 7290W        W 8154   0.683   9.755   6.006  0.1796 -0.2054 -0.0360
 7291W        W 8155   0.955   8.658   2.805 -0.3023  0.2217 -0.2384
 7292W        W 8156  26.882   9.163   3.938 -0.1855  0.4144 -0.0502
 7293W        W 8157  27.766  11.619   5.341 -0.0289  0.1484 -0.1338
 7294W        W 8158  28.929   7.322   1.313 -0.0373  0.0190 -0.0898
 7295W        W 8159   3.033   9.932   5.299 -0.0467  0.1102  0.1344
 7296W        W 8160   1.198   9.914   4.641 -0.0006  0.0588  0.0158
 7297W        W 8161   4.873   8.600   2.876  0.4748 -0.0829  0.0852
 7298W        W 8162   2.277   8.057   5.217  0.2154 -0.1057 -0.1220
 7299W        W 8163   2.740  10.332   2.864  0.2570 -0.2306 -0.3294
 7300W        W 8164   0.774   7.405   8.338 -0.0229 -0.1623 -0.1995
 7301W        W 8165   1.622   6.359   6.345  0.2966 -0.0845 -0.1654
 7302W        W 8166   0.914   7.033   3.758 -0.2514 -0.2031  0.1205
 7303W        W 8167   3.628   8.369   3.819 -0.0733 -0.1296 -0.0320
 7304W        W 8168   2.647   7.704   3.467  0.4120  0.1581  0.0679
 7305W        W 8169   3.024  10.356   5.682  0.2070 -0.1541  0.1988
 7306W        W 8170   0.233   8.056   6.750  0.0022  0.0850 -0.1828
 7307W        W 8171  27.796  10.195   5.025 -0.0816  0.1962  0.2492
 7308W        W 8172   4.565   8.244   3.611 -0.0285  0.2051 -0.0253
 7309W        W 8173   0.100   6.989   5.812 -0.1407 -0.1230 -0.2693
 7310W        W 8174   2.438   9.025   6.982 -0.0837  0.2140 -0.1326
 7311W        W 8175   4.034   7.458   3.420 -0.0547 -0.1265 -0.0829
 7312W        W 8176  27.340   8.858   6.354 -0.0787  0.2811 -0.3241
 7313W        W 8177   0.657   9.251   6.230 -0.0321 -0.0433 -0.0192
 7314W        W 8178   1.949   9.642   9.009  0.0431 -0.2673  0.1936
 7315W        W 8179   3.864  10.488   9.244 -0.1355  0.0724 -0.1364
 7316W        W 8180   3.058   8.453   4.082 -0.1984  0.0409  0.0599
 7317W        W 8181   2.122   9.291   5.772  0.1780  0.2086  0.1466
 7318W        W 8182   4.480  10.019   8.147  0.1680 -0.0033 -0.1417
 7319W        W 8183   3.923   8.687   9.067 -0.1489  0.0388  0.0398
 7320W        W 8184   2.559   8.318   4.318 -0.0025 -0.2816 -0.1297
 7321W        W 8185   3.299   8.124   5.500 -0.4264  0.0637  0.1717
 7322W        W 8186  28.596   8.155   8.036 -0.2839  0.0671 -0.0571
 7323W        W 8187   1.924   7.197   4.496 -0.0628 -0.1195 -0.0680
 7324W        W 8188   0.602   8.818   6.500  0.3226 -0.1058 -0.0453
 7325W        W 8189   4.223   5.787   5.675  0.1603 -0.1517  0.0261
 7326W        W 8190   0.835   9.330   7.615 -0.1884  0.4778  0.0030
 7327W        W 8191   4.063   9.390   3.777  0.0218  0.2533  0.1821
 7328W        W 8192   2.852  10.291   8.278 -0.3813  0.3523 -0.2053
 7329W        W 8193   0.993   8.477   3.316 -0.0513 -0.0819  0.1775
 7330W        W 8194   2.715   6.057   4.013  0.0175 -0.0431  0.1694
 7331W        W 8195   4.912   9.879   8.837 -0.2084 -0.0507 -0.0555
 7332W        W 8196   1.580   8.750   6.153 -0.0372 -0.3219  0.2608
 7333W        W 8197   0.778   8.743   4.841 -0.3019 -0.0684  0.1514
 7334W        W 8198   4.998  10.605   6.095 -0.0811 -0.0731  0.3890
 7335W        W 8199  28.118  12.460   6.750  0.4869  0.1525  0.1664
 7336W        W 8200   1.636  10.958   6.393 -0.0639  0.0601  0.0743
 7337W        W 8201   0.539   7.747   2.274 -0.0131 -0.0053 -0.2122
 7338W        W 8202   2.102  11.195   6.201 -0.0477 -0.3107  0.2525
 7339W        W 8203   1.913   8.802   5.739 -0.1155 -0.2716  0.0927
 7340W        W 8204  27.066   6.575   5.874 -0.0953 -0.1855  0.0557
 7341W        W 8205  28.899   8.254   4.564 -0.1744 -0.0548 -0.2058
 7342W        W 8206  29.030   7.818   9.320 -0.0921  0.1676  0.1521
 7343W        W 8207   3.134   7.525   6.428  0.1698  0.0553  0.2487
 7344W        W 8208   1.882   9.783   5.844 -0.0613 -0.1880  0.1619
 7345W        W 8209   3.205   8.710   7.858  0.0867  0.1506  0.1743
 7346W        W 8210   5.640  11.867   7.011  0.1195 -0.4692 -0.0081
 7347W        W 8211   4.065  11.771   5.203 -0.3367  0.2982  0.0853
 7348W        W 8212   4.116   9.774   8.342  0.2101  0.0832  0.1919
 7349W        W 8213  28.790  11.727   7.760 -0.0684  0.1248  0.1810
 7350W        W 8214   1.772   7.302   3.952 -0.0782  0.1283  0.0085
 7351W        W 8215  27.926   7.613   4.560 -0.3145 -0.1605  0.0267
 7352W        W 8216   2.712   7.842   5.067 -0.0122  0.1339  0.2349
 7353W        W 8217   0.881   8.257   5.048  0.1424  0.1746 -0.0799
 7354W        W 8218   0.143   9.028   9.058 -0.3614 -0.0847  0.1585
 7355W        W 8219   1.039   8.748   6.787  0.0290 -0.1347  0.2170
 7356W        W 8220   3.192   8.317   3.615  0.0897 -0.1113 -0.0442
 7357W        W 8221   2.071   8.027   4.198  0.1155 -0.1638  0.1940
 7358W        W 8222   2.018  10.102   7.456  0.1087  0.1919 -0.1695
 7359W        W 8223   1.210   9.418   4.784 -0.1926 -0.2068  0.0668
 7360W        W 8224   1.536   2.317   5.219 -0.0999  0.0799 -0.3074
 7361W        W 8225   2.364  10.231   4.163 -0.1129  0.0256  0.0184
 7362W        W 8226   0.556   9.957   6.480 -0.2070  0.2088  0.2971
 7363W        W 8227   2.205   8.501   4.892  0.0139 -0.2945 -0.0237
 7364W        W 8228   4.783   9.865   3.342 -0.1675 -0.1427 -0.0632
 7365W        W 8229   0.566   8.351   7.762 -0.2026 -0.2596  0.3791
 7366W        W 8230   3.585  11.616   7.101  0.0962  0.2090 -0.1429
 7367W        W 8231   0.743  10.174   4.855 -0.0732  0.2212  0.2294
 7368W        W 8232   1.390   7.076   4.195 -0.0743 -0.0242 -0.1715
 7369W        W 8233   1.825  10.465   3.924 -0.0230  0.0360  0.1261
 7370W        W 8234   3.630  10.250   6.160 -0.1590 -0.2261 -0.0652
 7371W        W 8235   1.517   7.921   6.740 -0.3637 -0.0188 -0.2134
 7372W        W 8236   0.735   7.669   7.190 -0.0270  0.2347  0.1192
 7373W        W 8237  28.246   8.311   1.750 -0.1438 -0.3075 -0.1292
 7374W        W 8238   2.396   8.281   6.637 -0.2017  0.0348  0.1616
 7375W        W 8239   0.819   9.249   5.758  0.0057 -0.2356  0.0789
 7376W        W 8240   2.835   8.632   5.729 -0.1579  0.1607 -0.1093
 7377W        W 8241   1.209  11.757   6.511 -0.0250 -0.1502 -0.1067
 7378W        W 8242   1.442   9.664   5.640  0.0355  0.1926  0.1785
 7379W        W 8243   2.630  10.379   5.035  0.0450  0.3125 -0.0188
 7380W        W 8244   2.410   8.633   7.435  0.2060  0.0443 -0.0005
 7381W        W 8245  28.753   8.048   4.154 -0.2290  0.1426 -0.1488
 7382W        W 8246   2.665   7.569   6.052  0.0893 -0.1023 -0.2160
 7383W        W 8247   1.879   8.267   4.585  0.0706 -0.2269  0.0954
 7384W        W 8248   4.709   8.696   3.850 -0.0652 -0.0309 -0.1213
 7385W        W 8249   2.286  10.984   7.415 -0.0173 -0.2501 -0.2377
 7386W        W 8250   5.851   8.832   5.154 -0.0561 -0.1306  0.0668
 7387W        W 8251   1.058  10.542   4.803  0.1616 -0.0173 -0.1029
 7388W        W 8252   0.981   7.473   7.815 -0.1640 -0.2446  0.0868
 7389W        W 8253   1.488   7.304   4.610  0.2720 -0.0663  0.0293
 7390W        W 8254   4.242  10.133   7.205  0.0773 -0.4683 -0.2471
 7391W        W 8255   2.959   8.744   8.735  0.1217 -0.0431 -0.1541
 7392W        W 8256  27.661   8.657   7.272 -0.0824  0.0878  0.0488
 7393W        W 8257   2.855   8.878   6.741  0.0673 -0.0081 -0.2281
 7394W        W 8258   2.146   7.698   5.936  0.1386  0.3750  0.1665
 7395W        W 8259  29.086   6.819   6.802  0.1916 -0.1092  0.3370
 7396W        W 8260   1.772  10.066   5.449  0.0737  0.2394 -0.1185
 7397W        W 8261   2.016  10.529   7.001  0.0059 -0.2504  0.1660
 7398W        W 8262   3.291   8.906   5.741  0.2345 -0.0641 -0.0334
 7399W        W 8263   3.674  11.054   5.774 -0.0888 -0.0674  0.1358
 7400W        W 8264   2.543   8.329   7.944 -0.1015  0.2708  0.2948
 7401W        W 8265   0.539   8.300   5.868  0.0486  0.3771  0.2929
 7402W        W 8266   1.401   9.700   8.482 -0.2707 -0.1529 -0.3051
 7403W        W 8267   3.025  10.777   7.071 -0.0368 -0.1619  0.0681
 7404W        W 8268   0.183  10.649   7.236 -0.1232  0.0109  0.0129
 7405W        W 8269   2.549   9.758   4.254 -0.0471 -0.0830  0.0458
 7406W        W 8270   4.570  12.367   5.171  0.0172 -0.2274 -0.2609
 7407W        W 8271  26.320   8.007   4.664 -0.4915  0.1493  0.0343
 7408W        W 8272   2.483   7.901   6.321  0.2984  0.1493 -0.0228
 7409W        W 8273   1.294  10.217   3.368 -0.2180 -0.0380  0.2732
 7410W        W 8274   1.234  10.155   5.122 -0.0691 -0.1015 -0.1762
 7411W        W 8275  29.140  10.760   5.429 -0.2217 -0.2279  0.0737
 7412W        W 8276   3.546   8.343   4.926  0.1545  0.0056 -0.1880
 7413W        W 8277   0.698  11.838  10.284 -0.1821 -0.1586 -0.2003
 7414W        W 8278   3.667   9.721   8.747 -0.1510 -0.3858 -0.0154
 7415W        W 8279   2.494   7.703   7.964 -0.1750  0.1650  0.1730
 7416W        W 8280   3.003  11.215   8.014 -0.3530  0.3567 -0.0046
 7417W        W 8281   1.547  10.491   9.296 -0.0615  0.1386 -0.3122
 7418W        W 8282   0.228   9.189   9.628 -0.0946  0.4422 -0.0495
 7419W        W 8283  26.965   9.113   7.027  0.1477 -0.0537 -0.1583
 7420W        W 8284   2.383  10.562  11.220 -0.0455  0.0574 -0.0135
 7421W        W 8285   3.280  10.539  10.966 -0.1364 -0.1300 -0.0284
 7422W        W 8286   1.457   8.143  10.006  0.3542  0.2690 -0.0004
 7423W        W 8287   0.387   8.732  11.489 -0.0232 -0.1098  0.0780
 7424W        W 8288   1.442   7.682   7.763  0.0782  0.2562 -0.1862
 7425W        W 8289   1.991   7.657   7.674 -0.1976 -0.1180  0.0718
 7426W        W 8290   5.114   9.945  12.325  0.0224  0.0433  0.1466
 7427W        W 8291  27.435   7.891   8.756 -0.0774  0.1942  0.0209
 7428W        W 8292  27.494  10.667   9.601 -0.3160  0.2251 -0.1045
 7429W        W 8293   2.895  12.172   9.647  0.0529 -0.0839 -0.5480
 7430W        W 8294  27.405   9.981  10.339  0.1271 -0.2496  0.1108
 7431W        W 8295  28.412   8.768   9.068 -0.1049 -0.0477  0.0620
 7432W        W 8296   5.050   5.915   9.526  0.1473 -0.2985 -0.1680
 7433W        W 8297   1.435  10.300  12.056  0.1036 -0.2465 -0.2788
 7434W        W 8298   0.769   8.310   9.891  0.3996 -0.4009  0.0621
 7435W        W 8299  28.699   8.507  10.601  0.0185 -0.0940 -0.1940
 7436W        W 8300   1.650   8.602   7.940  0.0737  0.0347  0.1943
 7437W        W 8301  26.343   7.605   8.919 -0.0047 -0.1447  0.2605
 7438W        W 8302  28.208   7.848   9.273  0.3883 -0.2367 -0.1546
 7439W        W 8303   5.794   8.267  10.327  0.0123  0.1258  0.0450
 7440W        W 8304   3.313  10.147   9.958  0.1714  0.0878  0.1102
 7441W        W 8305  27.928   8.619   7.796  0.1092 -0.7338  0.2296
 7442W        W 8306  28.111   9.168  10.315 -0.2064 -0.0616  0.1010
 7443W        W 8307  27.610  10.050   9.616 -0.0454  0.0424 -0.1939
 7444W        W 8308   2.689  10.278  11.549 -0.2046  0.0158 -0.0953
 7445W        W 8309   1.579  10.094  13.049 -0.1123  0.1319 -0.0211
 7446W        W 8310   1.121   8.442  11.049  0.1349  0.3496  0.2645
 7447W        W 8311   1.021  10.028  11.966  0.1672 -0.0906 -0.2333
 7448W        W 8312   2.032   9.864   9.797  0.1980 -0.1762 -0.0128
 7449W        W 8313   0.017   8.620   6.651  0.2882 -0.1926 -0.0372
 7450W        W 8314  28.410   9.586   7.977 -0.2164 -0.2990  0.2099
 7451W        W 8315   6.081  10.764   9.933 -0.1994  0.1208 -0.1090
 7452W        W 8316   4.073   9.679   9.255 -0.3573 -0.2270 -0.1516
 7453W        W 8317   2.671  10.394  10.069 -0.0399  0.0807  0.2209
 7454W        W 8318   1.087   6.568   9.960  0.1281  0.1050 -0.0628
 7455W        W 8319   3.121  11.566  10.837  0.3859 -0.1188 -0.1920
 7456W        W 8320   2.906  10.309   6.718  0.0153  0.0700 -0.1507
 7457W        W 8321  27.390   9.627   9.439 -0.0704 -0.0355 -0.0323
 7458W        W 8322   4.088  10.719   9.754 -0.1216 -0.2163 -0.0040
 7459W        W 8323  28.771   9.216   7.814  0.3500 -0.2577  0.2920
 7460W        W 8324   1.555   5.490  10.670 -0.3417  0.0745  0.0616
 7461W        W 8325   1.791  10.016   6.688  0.0780  0.2781  0.2223
 7462W        W 8326   1.152   8.228   6.962  0.2642  0.0584 -0.1490
 7463W        W 8327   0.912   7.513   9.787  0.1689  0.0122 -0.0399
 7464W        W 8328   2.103   8.996   9.159 -0.2551  0.1898  0.1665
 7465W        W 8329   3.838  10.135   9.639 -0.0910 -0.1129  0.0342
 7466W        W 8330   4.239   9.805  12.494  0.0563  0.0327  0.2096
 7467W        W 8331   2.935   8.962   9.820  0.0077 -0.1158  0.0851
 7468W        W 8332   0.260  10.455   6.748 -0.1326 -0.3537  0.0407
 7469W        W 8333  27.220   9.507   6.537  0.0241 -0.1476 -0.2122
 7470W        W 8334   1.672   6.455   7.114  0.1649  0.1182 -0.2101
 7471W        W 8335  28.800   8.627   7.067  0.1322  0.1484  0.0370
 7472W        W 8336  28.409   9.010   7.413  0.0815 -0.2523  0.1867
 7473W        W 8337   1.710   9.396   3.846 -0.0299  0.1478  0.1699
 7474W        W 8338  29.079   8.693   8.701 -0.2275  0.0433 -0.1356
 7475W        W 8339   0.979   8.766  10.663  0.2034  0.0085  0.0997
 7476W        W 8340   1.585  10.071   8.987  0.0214  0.0540  0.0228
 7477W        W 8341   4.606   7.666  10.334 -0.1994 -0.1562  0.1487
 7478W        W 8342   5.358   8.547   8.933  0.0454  0.0548 -0.0900
 7479W        W 8343   0.936  10.464   7.724 -0.0899  0.0922 -0.0620
 7480W        W 8344  28.676   7.609   6.474 -0.0977  0.4210 -0.2119
 7481W        W 8345   3.220  11.084  10.411  0.0554 -0.0438  0.2974
 7482W        W 8346   0.184   6.777   8.791  0.0809  0.0985 -0.0331
 7483W        W 8347   4.647   8.896  11.753 -0.3333  0.2822  0.1192
 7484W        W 8348   4.297   8.517   7.395  0.0970  0.0398  0.2978
 7485W        W 8349   6.261  10.395   8.987 -0.0660  0.1220 -0.2091
 7486W        W 8350   3.540   9.031  10.579  0.2599  0.3420 -0.1433
 7487W        W 8351   3.605   8.984   8.098  0.0039  0.0583 -0.2127
 7488W        W 8352   2.466   8.976   9.463 -0.1085 -0.1671  0.1251
 7489W        W 8353   3.228  10.649  10.032  0.0601  0.1603  0.0710
 7490W        W 8354  27.210   9.127   9.197  0.0648 -0.3665  0.0601
 7491W        W 8355   3.094   7.536   4.783 -0.3242 -0.1779  0.0545
 7492W        W 8356   1.698   9.331   8.583 -0.0097  0.0653 -0.1784
 7493W        W 8357  27.344   5.430  10.740  0.0268 -0.2057  0.0931
 7494W        W 8358  29.098   7.914  12.055  0.3958 -0.1792  0.1529
 7495W        W 8359  28.369   4.292   9.770  0.2774  0.0096 -0.0278
 7496W        W 8360   1.188   9.247   6.810  0.0062 -0.3206  0.1472
 7497W        W 8361   0.629   8.290  11.853  0.0458 -0.0344 -0.1189
 7498W        W 8362   4.583   6.508   6.843  0.0215  0.1981  0.0972
 7499W        W 8363   3.002  10.057  11.941 -0.1158 -0.0456  0.0123
 7500W        W 8364   2.210   8.580   9.357 -0.2859  0.0064  0.1844
 7501W        W 8365   0.977   8.068  11.563 -0.1468 -0.3119  0.2108
 7502W        W 8366  28.002   8.479   9.107 -0.1327  0.2310 -0.0082
 7503W        W 8367   2.529   6.447   8.421 -0.0059 -0.3386  0.1726
 7504W        W 8368   3.274  11.378   9.265 -0.1232  0.0037  0.2400
 7505W        W 8369   0.591  10.284   5.966 -0.0379 -0.2721  0.0648
 7506W        W 8370  28.760   6.276   9.064  0.0374  0.2457 -0.2006
 7507W        W 8371   2.088   6.375  10.284 -0.4910  0.2328  0.1413
 7508W        W 8372   3.841   9.283   8.439  0.1604  0.0500 -0.2542
 7509W        W 8373   3.180   4.045   9.398 -0.1657 -0.0843  0.1288
 7510W        W 8374   0.477   9.919   8.915 -0.0473 -0.0504  0.1168
 7511W        W 8375   1.988   6.821   7.979 -0.1080  0.0023  0.2572
 7512W        W 8376   3.560   8.792   9.958 -0.0660 -0.0058  0.1530
 7513W        W 8377   6.311   9.484   8.950  0.2933 -0.1158 -0.0481
 7514W        W 8378   0.335   8.720   8.454 -0.1051  0.0763  0.2239
 7515W        W 8379   4.272   5.205   8.658 -0.1485 -0.1187  0.1791
 7516W        W 8380   2.243  11.186   8.782  0.1360 -0.0278  0.0609
 7517W        W 8381   4.169   7.915   9.133 -0.0432  0.0997  0.1485
 7518W        W 8382   0.167   9.947  11.765 -0.1911  0.1757  0.1824
 7519W        W 8383   2.316  11.153   9.360 -0.2510  0.0628  0.3658
 7520W        W 8384   1.078  10.823  14.479  0.0837  0.0710  0.1436
 7521W        W 8385   1.678   8.724   9.354 -0.0422  0.0821  0.0814
 7522W        W 8386   3.142   8.134   8.001 -0.2029 -0.1325  0.1684
 7523W        W 8387   1.614  11.346  12.291  0.2668  0.0707 -0.1248
 7524W        W 8388   3.307  11.844   7.980 -0.4210 -0.0524 -0.0973
 7525W        W 8389   2.395   8.938  10.690 -0.1340 -0.5454  0.3226
 7526W        W 8390   4.384  11.361  12.442 -0.0826 -0.0737  0.2645
 7527W        W 8391   3.680   7.564   8.610 -0.0090  0.1535  0.1411
 7528W        W 8392   1.123   8.574   8.884  0.1291 -0.0037  0.3399
 7529W        W 8393   3.633   7.001   8.389 -0.0226  0.1384  0.0929
 7530W        W 8394   1.223   8.674   8.253  0.0109  0.2802  0.0167
 7531W        W 8395   2.009  10.514   9.040  0.0497 -0.2185 -0.0111
 7532W        W 8396   3.126   6.966   7.576  0.1731  0.1273 -0.2038
 7533W        W 8397   2.727   8.835   7.874 -0.0148 -0.2558 -0.1201
 7534W        W 8398   0.707  10.309   8.681  0.2865 -0.8221 -0.2590
 7535W        W 8399   6.021   8.767   7.398  0.1625  0.2596  0.0866
 7536W        W 8400   4.560   9.317   8.419  0.2460 -0.2401 -0.0721
 7537W        W 8401   0.245   8.644   7.414  0.0631  0.1103  0.1919
 7538W        W 8402   3.453   7.147   8.971 -0.1665 -0.0879  0.2249
 7539W        W 8403   0.722   9.931   7.933  0.1443 -0.2273 -0.1196
 7540W        W 8404   4.560   8.952  10.356 -0.0061 -0.0592 -0.2703
 7541W        W 8405   3.352  13.784   9.332 -0.1502  0.1715  0.2240
 7542W        W 8406  26.284  10.890   8.739 -0.3259 -0.0146 -0.3029
 7543W        W 8407   4.140  11.401  12.989  0.0646  0.1536  0.1355
 7544W        W 8408   4.646   8.488  11.422  0.0986 -0.1920 -0.1703
 7545W        W 8409   3.975  11.611  10.245 -0.1020  0.3317 -0.2441
 7546W        W 8410   2.846   5.295   7.259  0.1746  0.2216 -0.1276
 7547W        W 8411   3.077   8.912  12.265 -0.3423 -0.3543 -0.3100
 7548W        W 8412   2.077   8.464   8.833 -0.2227 -0.3206  0.1203
 7549W        W 8413   0.034   7.942  10.318 -0.0180 -0.3415  0.1824
 7550W        W 8414   2.510   6.744   9.617 -0.3513 -0.2187 -0.1730
 7551W        W 8415   2.295  10.213   8.353 -0.0160  0.0747  0.0917
 7552W        W 8416   3.665  10.017   9.140  0.1162  0.4018  0.2941
 7553W        W 8417  27.634   5.400   9.389 -0.0968 -0.2265 -0.1989
 7554W        W 8418   1.212  10.121   9.392 -0.0009 -0.0005  0.1380
 7555W        W 8419   0.131   8.778   5.688  0.0222 -0.2111  0.1167
 7556W        W 8420   1.295   8.074   4.786  0.3319 -0.0481 -0.1577
 7557W        W 8421  27.722   9.061  10.758  0.0259  0.1611 -0.3093
 7558W        W 8422   3.297   8.588   8.287 -0.2993  0.1923  0.4420
 7559W        W 8423   5.776   8.815   8.894 -0.3623  0.1748 -0.2415
 7560W        W 8424   5.654  12.430   9.062 -0.0337  0.1823 -0.1331
 7561W        W 8425   4.704   9.947   9.360  0.2356  0.1994 -0.1081
 7562W        W 8426   1.128   7.612   6.789  0.0099 -0.4428  0.0310
 7563W        W 8427   4.666  10.451  10.889 -0.2918  0.2050  0.3811
 7564W        W 8428  29.140   5.609   8.385 -0.0715  0.2620 -0.2663
 7565W        W 8429   2.445  11.600   6.088 -0.3502 -0.0269 -0.0363
 7566W        W 8430  28.237   5.848   8.350 -0.1139 -0.3426  0.0291
 7567W        W 8431   0.079   7.487  13.118 -0.2135  0.0585 -0.0132
 7568W        W 8432   0.381   6.012   8.114 -0.0039 -0.0839  0.1228
 7569W        W 8433  28.068   9.355  11.038  0.0179 -0.3275 -0.0105
 7570W        W 8434   0.472  11.548   8.839  0.0559  0.0892 -0.2541
 7571W        W 8435   1.353   6.314   7.684 -0.1081  0.0217 -0.2384
 7572W        W 8436   1.276   7.787   8.210  0.0095  0.2344 -0.0005
 7573W        W 8437   2.662   6.633  11.824  0.1154 -0.1435 -0.0540
 7574W        W 8438  28.423  11.022   9.970 -0.0464 -0.0336 -0.1057
 7575W        W 8439   4.809   9.164   9.310  0.2448 -0.2432  0.0641
 7576W        W 8440   1.844   7.469   9.316  0.2158  0.1099 -0.2503
 7577W        W 8441   2.214   9.384   9.535  0.0723  0.1188 -0.1623
 7578W        W 8442   1.050   8.846   7.335 -0.0406  0.0465 -0.1917
 7579W        W 8443   2.307   7.890   8.901  0.2467  0.2914 -0.1265
 7580W        W 8444   0.151  10.125   7.098  0.0461  0.3706  0.3382
 7581W        W 8445   3.395  10.032  10.429 -0.2369 -0.1062 -0.2323
 7582W        W 8446   1.902  10.494   6.520  0.1180 -0.5008 -0.2668
 7583W        W 8447   1.828   8.003   8.652  0.3036  0.0923 -0.0178
 7584W        W 8448   4.038   4.095   9.266  0.0570  0.1904  0.0141
 7585W        W 8449   1.273  11.627   8.341  0.3589  0.1234  0.4199
 7586W        W 8450   3.000   4.804   7.029  0.1830  0.1783 -0.2579
 7587W        W 8451   5.583   9.800   8.001  0.2731 -0.1966  0.0316
 7588W        W 8452   2.185   8.173  10.404 -0.0036 -0.0038  0.1353
 7589W        W 8453   0.776   9.825   9.340  0.1327  0.2977  0.2189
 7590W        W 8454  26.414   9.483   9.005 -0.2076  0.3537 -0.1519
 7591W        W 8455   1.931  10.972   7.840  0.1118 -0.0506 -0.0098
 7592W        W 8456   0.196   8.241   8.613  0.1208 -0.0531  0.0423
 7593W        W 8457   1.519  10.924   5.463 -0.0675 -0.2216  0.2211
 7594W        W 8458   2.730  10.222   7.782 -0.0831 -0.0085  0.3631
 7595W        W 8459   2.300   9.663   7.784 -0.0511 -0.1666 -0.0036
 7596W        W 8460  28.965   9.232   8.662  0.0146  0.1042  0.4099
 7597W        W 8461  29.051   9.935   6.661  0.1968  0.1062 -0.0696
 7598W        W 8462   0.381  10.282  11.315  0.2985 -0.0180  0.1074
 7599W        W 8463   3.088   7.600   9.592 -0.1585  0.2056  0.0274
 7600W        W 8464  28.455   7.847   8.758  0.0087 -0.0286 -0.1018
 7601W        W 8465   2.106   8.549  10.745 -0.2970  0.1715  0.0834
 7602W        W 8466   2.291  12.239   8.933  0.1388  0.0649  0.1754
 7603W        W 8467  28.793   7.766   7.814 -0.2202  0.3066  0.1772
 7604W        W 8468  28.826  13.472   8.669 -0.1618 -0.1745 -0.1970
 7605W        W 8469  26.649   9.188   9.932  0.0148  0.0052 -0.0014
 7606W        W 8470   0.543   7.125  10.387  0.0427  0.1290 -0.0321
 7607W        W 8471   0.086   6.971  11.572 -0.1103  0.0786 -0.0001
 7608W        W 8472   1.652   6.935   6.967  0.1733 -0.2282  0.1312
 7609W        W 8473   1.275   5.999   6.525  0.2385 -0.0583  0.2852
 7610W        W 8474  26.476  10.270   7.751  0.0057  0.1080  0.0969
 7611W        W 8475   1.023   9.970   6.293 -0.1439 -0.2210 -0.1153
 7612W        W 8476   3.263   9.471   5.764  0.0344 -0.2062  0.1342
 7613W        W 8477   1.490   8.538   6.613 -0.0668  0.1434 -0.2146
 7614W        W 8478   3.067  10.362  12.358 -0.1719  0.2245  0.1448
 7615W        W 8479   0.870   7.897  10.158 -0.1185 -0.1844 -0.0742
 7616W        W 8480  26.766   8.814   7.738  0.2355 -0.4286 -0.1145
 7617W        W 8481   0.570   8.609  10.218 -0.0302 -0.0086  0.1320
 7618W        W 8482   0.518   5.529   3.654 -0.1652  0.1624 -0.0423
 7619W        W 8483   1.640   9.645  11.365  0.0605 -0.0453 -0.0369
 7620W        W 8484  27.699   8.515   8.186 -0.1113  0.1282 -0.3534
 7621W        W 8485   4.147   9.475   8.736 -0.1622 -0.0121 -0.0348
 7622W        W 8486   1.463   9.957   6.069  0.3590 -0.6903 -0.0319
 7623W        W 8487  29.100   9.293  10.353 -0.2336 -0.0099  0.0276
 7624W        W 8488   0.432  10.788  10.554  0.0234 -0.2902 -0.1130
 7625W        W 8489  28.878   7.949  10.688  0.1816  0.0883 -0.1414
 7626W        W 8490   0.143   3.745   9.183  0.0011 -0.1360  0.0479
 7627W        W 8491   4.611   9.939  10.814  0.1174  0.0478  0.1545
 7628W        W 8492   4.932  11.165   5.557  0.1594  0.0606  0.1407
 7629W        W 8493   3.319   9.391   7.993 -0.0982  0.1541  0.2308
 7630W        W 8494   0.955  10.709   8.107  0.0776 -0.2291  0.3129
 7631W        W 8495   1.679  10.170  11.597 -0.4407  0.3614 -0.2398
 7632W        W 8496  27.561   9.586  11.234 -0.1612  0.1145 -0.0076
 7633W        W 8497   3.688   6.933  12.614  0.2537  0.1113 -0.0589
 7634W        W 8498   0.557   7.957   9.373  0.1435  0.0698  0.0590
 7635W        W 8499   0.442  11.288  11.257 -0.1241  0.0994 -0.2035
 7636W        W 8500   3.140   5.289   8.341  0.1786 -0.0597  0.1948
 7637W        W 8501   5.063   9.575   9.251 -0.0296 -0.3035  0.1661
 7638W        W 8502   1.337   8.405   7.420 -0.1627  0.1868  0.2427
 7639W        W 8503  27.606   9.213   9.581 -0.2148 -0.1750 -0.3461
 7640W        W 8504   5.922   8.395  11.247  0.1018  0.0560 -0.1041
 7641W        W 8505   0.392  11.026   9.030  0.0015 -0.0113  0.0573
 7642W        W 8506   5.115   9.680   9.914  0.3625  0.1085 -0.0446
 7643W        W 8507  28.672   9.448  10.246 -0.1985 -0.0377  0.0339
 7644W        W 8508   0.328  10.199   9.588 -0.2008  0.3086  0.4741
 7645W        W 8509  28.526   9.057   8.676  0.1007 -0.0813  0.0624
 7646W        W 8510   2.033   8.935   8.591  0.1219  0.0476 -0.1866
 7647W        W 8511  27.961   7.855   8.831  0.2054 -0.3027  0.0991
 7648W        W 8512   1.297  11.466  10.100  0.1313 -0.3467  0.2718
 7649W        W 8513   4.625  10.394  10.419 -0.2184  0.0491 -0.1073
 7650W        W 8514   1.954   8.004  11.171  0.1401  0.0792  0.4630
 7651W        W 8515   3.418   9.668   7.559 -0.0127 -0.1306  0.3057
 7652W        W 8516   7.811   9.188  12.222 -0.1751 -0.0732 -0.1567
 7653W        W 8517   4.534   9.822  10.146 -0.3632 -0.0430  0.2458
 7654W        W 8518   0.821   8.513   9.316 -0.0129  0.0886 -0.2060
 7655W        W 8519   1.590   9.807   9.437  0.2888 -0.1889 -0.2268
 7656W        W 8520  25.248  10.218   7.210  0.1571  0.0164  0.2283
 7657W        W 8521   2.338   7.694  10.216 -0.1275 -0.0325  0.2021
 7658W        W 8522   1.638   7.860   4.424  0.1856  0.2158  0.2306
 7659W        W 8523   3.469  10.897   7.619  0.4348  0.0290 -0.0549
 7660W        W 8524  28.665   8.910  12.459  0.0225  0.0043  0.0766
 7661W        W 8525   5.265   9.213   7.655  0.0084  0.2474 -0.1316
 7662W        W 8526  28.451  10.166   9.749 -0.0936 -0.0533  0.0075
 7663W        W 8527  27.134   8.387   6.474  0.1947 -0.2082 -0.0532
 7664W        W 8528   2.552   9.824   9.485 -0.1796 -0.3266 -0.3287
 7665W        W 8529   1.153  10.495  11.734  0.0235 -0.1780  0.2871
 7666W        W 8530   1.963   6.751  11.485  0.0561 -0.1501  0.0735
 7667W        W 8531  28.083   7.496   7.525 -0.1243  0.2930 -0.2525
 7668W        W 8532   2.835  11.810   9.299 -0.0211 -0.3649  0.2004
 7669W        W 8533   4.964  10.284   8.282 -0.1744 -0.1753  0.1945
 7670W        W 8534   1.811   8.263   9.594 -0.1344 -0.2614  0.1662
 7671W        W 8535   4.532  10.493   8.395 -0.0283 -0.2551  0.1600
 7672W        W 8536   5.161   9.297   9.636  0.1311 -0.1634 -0.0855
 7673W        W 8537  27.701   8.729  10.385  0.0588  0.2895  0.2179
 7674W        W 8538   1.181   7.475  10.727  0.1992 -0.2958 -0.0504
 7675W        W 8539   1.841   9.366   9.879  0.1829  0.0797  0.2273
 7676W        W 8540   0.200   6.055   8.722 -0.3222  0.3286  0.2472
 7677W        W 8541   5.005  10.077  11.098 -0.1143 -0.3454 -0.1947
 7678W        W 8542  28.253   9.942   8.800 -0.0110 -0.0894 -0.1149
 7679W        W 8543  28.327   8.194   9.852  0.4326  0.3336 -0.0810
 7680W        W 8544   5.226  11.121   8.868 -0.3185 -0.1871  0.1796
 7681W        W 8545  28.823   6.900  10.767 -0.1237 -0.0752 -0.0610
 7682W        W 8546   2.217   9.751  10.667 -0.0030  0.1258  0.0598
 7683W        W 8547   2.113  12.139   8.211  0.3326  0.0163  0.2065
 7684W        W 8548   2.518  10.494  10.546  0.3256  0.0454  0.0795
 7685W        W 8549   3.043  10.399  10.488 -0.1280 -0.0452 -0.0587
 7686W        W 8550  27.954   8.507  10.754  0.2659 -0.1388 -0.0686
 7687W        W 8551   3.843  11.232   8.396 -0.0571 -0.0931 -0.1109
 7688W        W 8552   3.997   8.295  10.067 -0.0875 -0.0865 -0.1953
 7689W        W 8553   0.271   8.096  10.833  0.0783  0.1962 -0.0303
 7690W        W 8554   1.015  10.566   9.421  0.0796  0.1698 -0.0165
 7691W        W 8555   0.922   9.485   8.071  0.0441  0.1597  0.0366
 7692W        W 8556  27.308  12.577   9.346  0.2104 -0.1906 -0.3113
 7693W        W 8557   1.244   9.318   7.346 -0.2699 -0.1436  0.0357
 7694W        W 8558  28.865   6.412  10.451  0.4405  0.1371 -0.0788
 7695W        W 8559  28.197  10.830   8.525  0.3132  0.1562 -0.1198
 7696W        W 8560   0.519  12.407   9.161 -0.0657  0.1110  0.1038
 7697W        W 8561   3.488   8.446   8.759 -0.1757 -0.0204  0.2252
 7698W        W 8562   1.939   5.318  12.411  0.3414 -0.2028  0.0230
 7699W        W 8563   5.814   9.382   8.255 -0.0640 -0.0801 -0.1154
 7700W        W 8564  26.898   4.939  11.420  0.2412  0.0329  0.0634
 7701W        W 8565   6.220   9.548   7.971 -0.3584 -0.0585  0.2073
 7702W        W 8566   2.789  10.307   9.593 -0.0017 -0.0946  0.3254
 7703W        W 8567   4.030  10.247   8.119 -0.2038 -0.1072  0.3570
 7704W        W 8568   3.124  10.159   6.205  0.2992 -0.2136 -0.2472
 7705W        W 8569   1.051   9.258   9.006  0.1657  0.2319  0.0287
 7706W        W 8570   1.653   7.037   8.263  0.1619 -0.1807  0.2835
 7707W        W 8571   2.698  10.349   8.773  0.1978  0.0380 -0.1348
 7708W        W 8572   3.574  10.866   8.665 -0.0310 -0.2702 -0.0664
 7709W        W 8573   1.723   9.076   8.142  0.0817  0.0363 -0.0775
 7710W        W 8574   4.495   9.532  10.556 -0.0818 -0.2547  0.1531
 7711W        W 8575   2.560   8.909   8.403  0.1834 -0.1018  0.1422
 7712W        W 8576  28.549   9.448   9.120 -0.0086  0.0304  0.0549
 7713W        W 8577   3.478   9.029   8.677  0.0876 -0.0128 -0.1768
 7714W        W 8578   0.018   9.009  11.741 -0.0228 -0.0055  0.2640
 7715W        W 8579   3.139  10.178   8.742 -0.1235 -0.0198 -0.1304
 7716W        W 8580   0.223   7.783   5.722 -0.0820 -0.1162 -0.1395
 7717W        W 8581   4.366   8.882   9.348 -0.0748 -0.1705 -0.0295
 7718W        W 8582   2.028  10.570  10.543 -0.0752 -0.1300 -0.2777
 7719W        W 8583   2.172   8.862  11.204 -0.1684  0.2309 -0.0150
 7720W        W 8584   0.424   7.291   5.563 -0.3994 -0.3150 -0.0225
 7721W        W 8585   2.501   6.806   7.669  0.3308  0.2429 -0.6342
 7722W        W 8586  28.965  10.842   9.154  0.0154 -0.0655  0.0714
 7723W        W 8587  27.353   6.465  10.506 -0.0905 -0.0089  0.2481
 7724W        W 8588  28.690   8.983  11.906  0.0680  0.2770 -0.0298
 7725W        W 8589   2.228   7.761   9.393  0.0406  0.1188 -0.1166
 7726W        W 8590   3.078   9.878   9.603  0.0891 -0.1588 -0.1301
 7727W        W 8591   0.421  10.641   9.809 -0.0020  0.1835  0.2002
 7728W        W 8592  28.490  10.700   9.148  0.2100 -0.0180  0.0559
 7729W        W 8593   1.148   6.876   9.034 -0.0483  0.0664  0.0184
 7730W        W 8594   1.917   7.184   6.589 -0.0808 -0.0048  0.2854
 7731W        W 8595   3.461  10.080  11.159  0.0594 -0.0361  0.1580
 7732W        W 8596   1.677   8.257   8.258  0.2220 -0.0350  0.1587
 7733W        W 8597   0.669   8.186   8.866 -0.0738  0.3386  0.1824
 7734W        W 8598   2.721  11.650   7.859 -0.0385  0.3133 -0.2834
 7735W        W 8599  28.042   9.989   9.916  0.0648 -0.0025 -0.0037
 7736W        W 8600   3.742  10.954  10.150 -0.0123  0.1624  0.0524
 7737W        W 8601   0.594   9.429   9.075 -0.0468  0.0485  0.0722
 7738W        W 8602   2.266  10.333   9.742 -0.1214 -0.0670 -0.1504
 7739W        W 8603   2.972   6.619   8.460  0.2173  0.0470  0.1153
 7740W        W 8604   0.394   9.785   6.917 -0.2029  0.0662 -0.1007
 7741W        W 8605   0.115   8.287   9.455  0.0504  0.1170  0.0366
 7742W        W 8606   2.079   8.090   7.989  0.1927 -0.0407 -0.0939
 7743W        W 8607  28.757   7.419  12.029 -0.0969 -0.2001 -0.0835
 7744W        W 8608   2.257   6.865   7.240  0.3123  0.2490 -0.0352
 7745W        W 8609   2.647   9.865  12.420 -0.0726 -0.3427 -0.3459
 7746W        W 8610   0.911  11.296  11.596 -0.0264  0.2512 -0.0392
 7747W        W 8611   4.311   8.427  11.046 -0.0465 -0.0925  0.0138
 7748W        W 8612   3.345   9.737  11.716 -0.0427  0.1860 -0.1445
 7749W        W 8613  27.729   9.044   8.362  0.2341 -0.0947 -0.3142
 7750W        W 8614   5.542  11.567  10.668 -0.0319 -0.1169 -0.2258
 7751W        W 8615   1.301   8.269   8.535  0.3079  0.5252 -0.1794
 7752W        W 8616   2.271   8.229   8.407 -0.0017  0.1493  0.1061
 7753W        W 8617   3.558  11.118   9.622  0.3691  0.2429 -0.1759
 7754W        W 8618   0.306  11.670   7.699  0.0729  0.0367  0.1037
 7755W        W 8619   0.981   7.932   7.555  0.0907 -0.1370  0.0849
 7756W        W 8620   2.523   9.893   7.384  0.0383  0.1435  0.1219
 7757W        W 8621   3.728   7.233   7.072 -0.1528  0.2536  0.1263
 7758W        W 8622   1.396   8.870  11.007  0.3647  0.0198  0.4868
 7759W        W 8623   0.439   9.161   8.032  0.0296 -0.1070 -0.3183
 7760W        W 8624  28.035   5.152   9.870 -0.2208  0.3319  0.0041
 7761W        W 8625   1.049   9.459   9.999 -0.2918 -0.0948 -0.2931
 7762W        W 8626  28.841   3.669   8.905  0.0296 -0.0097 -0.3163
 7763W        W 8627   0.067   9.183   7.649 -0.2189 -0.3275 -0.0958
 7764W        W 8628   1.496   7.846   7.246 -0.0609  0.3321  0.2153
 7765W        W 8629   4.710   8.102  10.955 -0.1495 -0.1309 -0.1766
 7766W        W 8630   2.789  11.261   5.794 -0.0429  0.1158  0.2286
 7767W        W 8631   1.700  10.754   8.231 -0.2418  0.0164  0.1559
 7768W        W 8632   1.293   6.770   5.111 -0.3439 -0.1220  0.1844
 7769W        W 8633   0.973  11.193  10.345 -0.3424 -0.1968 -0.1225
 7770W        W 8634   2.473   9.186   9.931 -0.2264  0.2655 -0.1967
 7771W        W 8635  28.988   6.014  11.531  0.0446  0.1468  0.0716
 7772W        W 8636   1.092   8.454   6.068  0.1138 -0.1473 -0.0835
 7773W        W 8637   0.772   8.414   7.328 -0.0761  0.2279  0.1518
 7774W        W 8638   4.689   6.937  11.975 -0.3329 -0.1060  0.1861
 7775W        W 8639   2.062   8.990   7.739 -0.0029 -0.0370  0.1495
 7776W        W 8640   2.980   6.939  10.312  0.0147  0.0169 -0.2390
 7777W        W 8641   1.569  12.776   9.785 -0.1619 -0.2873  0.0784
 7778W        W 8642   3.816   9.599   9.687 -0.1905 -0.1968  0.2405
 7779W        W 8643   2.801   9.236   8.950  0.0005 -0.0796 -0.1258
 7780W        W 8644  28.585   8.594   8.608 -0.1760 -0.1783  0.1804
 7781W        W 8645   2.139   8.485   6.261  0.0789  0.1138 -0.0899
 7782W        W 8646   5.444   8.094   9.288 -0.0331 -0.0247  0.1264
 7783W        W 8647   1.694  10.058   8.123 -0.0972  0.0662  0.2197
 7784W        W 8648   2.333   9.675   8.512 -0.0622  0.1799 -0.0790
 7785W        W 8649  28.907   9.521   6.272 -0.0209 -0.2237 -0.0272
 7786W        W 8650   0.269   8.549   9.088 -0.0212  0.2670 -0.1142
 7787W        W 8651   1.992  10.693   9.521  0.1177 -0.2210  0.0679
 7788W        W 8652  28.991   5.249   9.886  0.0746  0.1124 -0.0249
 7789W        W 8653   1.162   9.037   7.916  0.0483 -0.2976 -0.0004
 7790W        W 8654   6.747   9.496  11.626  0.3180 -0.3289 -0.0075
 7791W        W 8655   0.252   8.027  11.621 -0.2026 -0.1364 -0.2227
 7792W        W 8656  28.182   9.059   7.878  0.2196 -0.0556  0.1615
 7793W        W 8657   0.766  12.274   9.977  0.0648  0.1693 -0.0229
 7794W        W 8658   0.724   8.785   8.093  0.0482 -0.2368  0.1198
 7795W        W 8659  27.507   7.537   9.655 -0.1105  0.2293 -0.2105
 7796W        W 8660   2.198  11.388  10.479  0.2337 -0.0218 -0.1367
 7797W        W 8661   1.865   9.744  10.295 -0.0980  0.1373 -0.0765
 7798W        W 8662   2.487  10.794   9.695 -0.2767 -0.0387 -0.0017
 7799W        W 8663   1.199   8.024   5.872 -0.0414 -0.0360 -0.0902
 7800W        W 8664   1.865   8.018   9.193  0.0113 -0.1545 -0.0970
 7801W        W 8665  28.443   9.834   9.391  0.3309 -0.0258 -0.0737
 7802W        W 8666   2.487   9.921  11.143 -0.2602  0.0819 -0.0237
 7803W        W 8667   1.206  10.921   9.093  0.1057  0.1589 -0.2174
 7804W        W 8668  26.957  10.068   8.207 -0.3856  0.0965  0.0709
 7805W        W 8669   3.046   6.516   9.495 -0.5697 -0.2444 -0.0308
 7806W        W 8670   2.330  11.824  10.217 -0.0697 -0.3863  0.1257
 7807W        W 8671   1.364  10.951  10.079 -0.0129 -0.0543  0.0228
 7808W        W 8672   2.201   9.240  10.328  0.1785 -0.1298 -0.0739
 7809W        W 8673  27.724  11.274  10.512  0.0426  0.1769 -0.0720
 7810W        W 8674  28.496  12.588   9.902 -0.1067 -0.0047  0.0095
 7811W        W 8675   2.646   8.462   7.035 -0.0418  0.0130 -0.2483
 7812W        W 8676   0.696   7.101   7.945  0.1091 -0.0880  0.0741
 7813W        W 8677  27.892  11.881  14.570 -0.0915 -0.0038  0.0429
 7814W        W 8678  25.521   9.759  14.837 -0.0012 -0.0579  0.3784
 7815W        W 8679   3.545   7.298   7.572 -0.2437 -0.0400  0.0684
 7816W        W 8680   4.654   9.085  11.313 -0.1314 -0.2647 -0.1703
 7817W        W 8681   1.369   9.786  10.397  0.3312 -0.1784 -0.0731
 7818W        W 8682  28.620   6.436  11.929 -0.0764  0.1316 -0.1227
 7819W        W 8683  29.095  10.152  12.209 -0.2066 -0.0004 -0.2702
 7820W        W 8684   0.366  10.731  12.875  0.0654 -0.1370 -0.2708
 7821W        W 8685   1.072  11.547  13.862  0.2196  0.3983  0.0002
 7822W        W 8686  27.719   9.620  13.165  0.2347  0.0904  0.1742
 7823W        W 8687   1.473   6.340  12.924  0.0021  0.2379  0.0133
 7824W        W 8688   0.243   8.500  13.345 -0.2394 -0.0087 -0.2491
 7825W        W 8689   0.778   9.126  12.390 -0.1197  0.2590  0.2773
 7826W        W 8690   2.670   8.358  15.576 -0.1380 -0.0134 -0.2410
 7827W        W 8691  27.706   5.506  13.982  0.0922 -0.0532 -0.1141
 7828W        W 8692  26.015   9.489  16.103 -0.3107  0.0149  0.0000
 7829W        W 8693   0.529   9.234  13.013  0.2260  0.1521  0.1087
 7830W        W 8694  28.605   9.718  13.122 -0.0262 -0.0760  0.0802
 7831W        W 8695   2.301   9.220  14.545 -0.0183  0.4147  0.1424
 7832W        W 8696   2.083   8.507  13.306 -0.0789  0.2299 -0.2616
 7833W        W 8697   1.959   6.338  11.210 -0.0439 -0.1903 -0.2695
 7834W        W 8698  29.051  10.413  11.331 -0.1194 -0.0039  0.2280
 7835W        W 8699   0.344  11.702  13.783  0.0312  0.0705 -0.1569
 7836W        W 8700  27.537   9.312  14.844  0.3182 -0.2950 -0.2476
 7837W        W 8701  28.849  10.445  13.494 -0.0925 -0.0656  0.2168
 7838W        W 8702   3.138   7.937  14.015 -0.1436 -0.2021 -0.2957
 7839W        W 8703   1.892   7.559  12.833 -0.0711 -0.2138 -0.2102
 7840W        W 8704   1.810   9.970  12.009 -0.0289  0.2500  0.0821
 7841W        W 8705   3.857  10.528  11.986  0.1560 -0.3174  0.3001
 7842W        W 8706   0.420   6.537  10.824 -0.1039  0.1028  0.0301
 7843W        W 8707   0.003   7.932  14.192 -0.1142 -0.0375  0.0972
 7844W        W 8708   4.655   9.525  14.400 -0.3088 -0.0745 -0.2443
 7845W        W 8709   3.053   8.913  11.747 -0.2655  0.1052 -0.3313
 7846W        W 8710  28.131   8.107  14.348  0.0576 -0.0615  0.1711
 7847W        W 8711  27.327   9.325  13.817 -0.3339 -0.1832 -0.0277
 7848W        W 8712   1.310  10.127  13.770  0.0711  0.2730 -0.1061
 7849W        W 8713   1.380   7.394   8.551  0.0444  0.0207  0.2806
 7850W        W 8714   0.237  11.359  12.768  0.2002 -0.1240  0.1387
 7851W        W 8715   1.465  11.037  13.162 -0.0668 -0.1543 -0.1770
 7852W        W 8716   1.629   8.910  12.902 -0.0189  0.0355 -0.0235
 7853W        W 8717   3.740   7.183  10.090 -0.1542 -0.1317  0.0968
 7854W        W 8718   5.095   8.663  11.150 -0.1278 -0.0135  0.2491
 7855W        W 8719  27.310   9.922  12.983  0.0143 -0.0651 -0.1807
 7856W        W 8720  29.095   8.933  10.682 -0.1097 -0.1015 -0.0846
 7857W        W 8721  26.561  13.259  11.380  0.1510 -0.3542 -0.4653
 7858W        W 8722   0.027  11.341  11.707 -0.0306 -0.1104  0.2550
 7859W        W 8723  28.518   8.436  15.523 -0.0703  0.1501 -0.0351
 7860W        W 8724   4.383   9.971  13.841  0.2395 -0.2562 -0.0781
 7861W        W 8725   2.265   6.755  11.028 -0.0982  0.3651  0.1303
 7862W        W 8726   1.451   7.903   9.452  0.0017 -0.1787  0.3839
 7863W        W 8727   0.755   9.807  10.106  0.0716  0.2674  0.0041
 7864W        W 8728   0.158   8.323   9.979 -0.4087  0.1028  0.0697
 7865W        W 8729   2.133  10.009  12.960  0.0553 -0.4432 -0.0921
 7866W        W 8730   2.534   8.549  11.018  0.0913  0.1229 -0.0349
 7867W        W 8731   1.360   5.892  12.151 -0.0222  0.1212  0.2239
 7868W        W 8732   0.157  10.411  10.850 -0.1729  0.0789 -0.0288
 7869W        W 8733  27.424   7.893  11.661 -0.4733  0.0809  0.2016
 7870W        W 8734   0.503   9.539  12.655  0.0658 -0.2290 -0.2795
 7871W        W 8735   0.460  10.120  12.290  0.3105  0.1905 -0.0802
 7872W        W 8736   4.389  10.757   9.247 -0.0435 -0.1922 -0.0373
 7873W        W 8737   4.062   9.519  11.106 -0.1762 -0.0907  0.1612
 7874W        W 8738   0.409   7.176  12.574 -0.1708 -0.1184 -0.1351
 7875W        W 8739   1.458   9.044  13.747 -0.0082  0.0646  0.1124
 7876W        W 8740   1.601  10.865  12.651 -0.2853  0.0622  0.0429
 7877W        W 8741   2.495   8.181  14.565  0.0499  0.0620  0.1556
 7878W        W 8742   3.229   8.021  12.682  0.0646  0.0094  0.1373
 7879W        W 8743   0.675   8.099  12.507  0.0704  0.0348  0.0069
 7880W        W 8744  28.541   5.934  11.902  0.0795  0.0399  0.2132
 7881W        W 8745   0.346  11.165   9.789 -0.1335 -0.1072 -0.0784
 7882W        W 8746   0.662  11.703  11.274 -0.0202 -0.0444 -0.1487
 7883W        W 8747   2.002  10.518  12.157 -0.1627  0.0570  0.2868
 7884W        W 8748   1.162   7.245  11.872 -0.0777 -0.2693  0.0918
 7885W        W 8749   5.164   9.529  14.079 -0.2923 -0.2326  0.2343
 7886W        W 8750   5.297  11.466  13.006 -0.0137 -0.2044 -0.0056
 7887W        W 8751   3.880   8.829  13.262 -0.2031 -0.1310 -0.0857
 7888W        W 8752   2.146   8.732  12.816 -0.1616 -0.1590  0.0319
 7889W        W 8753  26.576   8.914  11.634 -0.1834  0.4532 -0.2451
 7890W        W 8754   1.325   8.396  14.228  0.0263  0.1443 -0.0923
 7891W        W 8755   0.667   9.177  13.848 -0.2995  0.0507 -0.1317
 7892W        W 8756   3.949   9.218  11.436  0.0008 -0.2440 -0.1793
 7893W        W 8757   0.604  10.187  13.795 -0.2343 -0.0778  0.0319
 7894W        W 8758   1.726   9.713  13.934 -0.1344  0.0794 -0.5391
 7895W        W 8759   0.865   9.200  13.366  0.0374  0.0312  0.1562
 7896W        W 8760   1.785   8.282  12.184 -0.0889 -0.1284  0.1820
 7897W        W 8761   2.976   9.743  15.504  0.0230  0.0954  0.2172
 7898W        W 8762   2.813   9.969  10.020 -0.0729 -0.0183  0.2133
 7899W        W 8763   6.132   9.665  13.098  0.1891 -0.0131 -0.1377
 7900W        W 8764   2.397   5.031  11.748  0.0127 -0.0920  0.0510
 7901W        W 8765   3.858  12.162  12.781 -0.2423 -0.0389 -0.2256
 7902W        W 8766   3.578   7.556  12.014 -0.0113  0.1942  0.3251
 7903W        W 8767   2.252  10.235  10.862 -0.1110  0.0627  0.2417
 7904W        W 8768   4.391   8.508  12.664  0.0267 -0.0978  0.4390
 7905W        W 8769   2.037  10.112   9.349 -0.1597 -0.4938 -0.0533
 7906W        W 8770   0.569   8.322  12.965 -0.2240  0.0494 -0.0574
 7907W        W 8771  27.897   8.583  14.252 -0.0975 -0.1298 -0.0060
 7908W        W 8772   1.492   8.655  11.442  0.1003  0.2712  0.2769
 7909W        W 8773   0.662   7.105  11.650  0.0292 -0.0181  0.2144
 7910W        W 8774   2.141  10.820  13.422 -0.3081  0.0267 -0.2890
 7911W        W 8775   2.140   6.959   9.371  0.3176 -0.0609 -0.2094
 7912W        W 8776   4.806   4.982  16.787  0.0612 -0.0047 -0.1950
 7913W        W 8777   3.705   8.008  11.814  0.0550  0.2543 -0.1287
 7914W        W 8778   0.129   8.366  13.962 -0.0066 -0.2266 -0.2603
 7915W        W 8779   1.245   9.142   8.500  0.1240 -0.2056 -0.0102
 7916W        W 8780   0.504   9.669  12.128 -0.0297 -0.0736  0.0279
 7917W        W 8781   3.602   7.723  16.198 -0.1019 -0.4097  0.3411
 7918W        W 8782  28.622   9.239  13.276  0.2366  0.4923  0.1268
 7919W        W 8783   1.438   9.261  12.600  0.0503 -0.0308 -0.1684
 7920W        W 8784   0.534  10.024  10.546  0.0721  0.0551 -0.0914
 7921W        W 8785   2.252   8.320  11.954 -0.2166 -0.1973  0.1063
 7922W        W 8786  27.600   6.026  12.688  0.0148  0.0691 -0.2467
 7923W        W 8787   1.030   9.603  15.067  0.1171 -0.2262  0.2833
 7924W        W 8788   1.849   9.900  13.458  0.1739  0.1494  0.1558
 7925W        W 8789   3.232   8.630  11.354 -0.1000  0.0296 -0.1733
 7926W        W 8790   4.494  11.192  13.943 -0.0799 -0.1328 -0.1225
 7927W        W 8791   3.115   7.329  10.661  0.0425  0.1468 -0.2335
 7928W        W 8792   1.298  10.764  14.017 -0.1847  0.0611 -0.0045
 7929W        W 8793   2.478   6.143  13.803 -0.1811 -0.1465 -0.0362
 7930W        W 8794   1.280   7.671  11.596  0.0527 -0.2184 -0.0298
 7931W        W 8795   1.350   9.229  13.247 -0.3733  0.3839 -0.2268
 7932W        W 8796   1.929   9.991  11.154 -0.1102  0.1834  0.3286
 7933W        W 8797   3.026   6.958   9.283 -0.1203 -0.1891  0.1656
 7934W        W 8798   1.327  10.398  13.373  0.2974  0.0795 -0.1495
 7935W        W 8799   2.503   9.136  12.413  0.2909  0.0354  0.2196
 7936W        W 8800   1.634  10.184  10.154  0.3085  0.2201  0.0931
 7937W        W 8801   1.103   9.601  11.335 -0.0400 -0.1524  0.0255
 7938W        W 8802   2.725   9.460  11.167 -0.0783  0.1026 -0.0743
 7939W        W 8803   1.751   6.952  15.416 -0.4404  0.0032  0.0704
 7940W        W 8804   1.992   8.275  14.895 -0.0205 -0.0613 -0.2721
 7941W        W 8805   2.976  10.941  14.737 -0.1123  0.1651  0.0181
 7942W        W 8806   0.442   8.543  12.189 -0.2408  0.1073 -0.1421
 7943W        W 8807   2.655  11.400  13.187 -0.2082 -0.0012 -0.0816
 7944W        W 8808   1.379   8.404  11.882  0.0583 -0.0038 -0.2274
 7945W        W 8809   2.596   9.562  14.181 -0.0441 -0.0717 -0.1114
 7946W        W 8810   3.776   6.490  10.084  0.0423 -0.0832 -0.1721
 7947W        W 8811   1.809   8.119  10.700  0.4219  0.1672 -0.1222
 7948W        W 8812   1.243   9.899  10.895  0.1081  0.1010  0.0647
 7949W        W 8813   0.849   9.441  11.880  0.0755  0.1673  0.0860
 7950W        W 8814   0.822   6.924  12.173  0.0898 -0.0899 -0.0941
 7951W        W 8815   1.082  10.294  12.492  0.0988 -0.4981  0.0192
 7952W        W 8816  29.010   9.037  13.015 -0.2375 -0.0016  0.1368
 7953W        W 8817   1.058   6.590  10.942  0.0788 -0.1134 -0.0419
 7954W        W 8818   1.713   8.499  11.015  0.2499  0.0983 -0.2150
 7955W        W 8819   2.271   8.689  10.278 -0.2306 -0.1054  0.2124
 7956W        W 8820   0.953   8.558  11.552  0.1060  0.0613 -0.2461
 7957W        W 8821   1.499  10.994  15.018 -0.0118 -0.2706  0.2506
 7958W        W 8822   0.401   6.751  12.311  0.1487 -0.0833  0.2635
 7959W        W 8823   3.786   9.811  10.178 -0.1258  0.0254  0.0750
 7960W        W 8824   7.183  10.109  12.667 -0.1121 -0.2488  0.0841
 7961W        W 8825   1.745  12.251  12.400 -0.1734 -0.1939  0.1035
 7962W        W 8826   0.723  10.332  13.245  0.0069 -0.1491 -0.1759
 7963W        W 8827   7.377   9.700  12.349 -0.1336 -0.2549 -0.2344
 7964W        W 8828  28.811   7.649  10.341  0.3754  0.1621  0.0959
 7965W        W 8829   0.856  11.902  12.907  0.0649 -0.2335  0.0710
 7966W        W 8830   0.431   7.953   9.893 -0.2101 -0.1993 -0.3192
 7967W        W 8831   2.583   8.294  13.285  0.1831 -0.0860  0.0630
 7968W        W 8832   1.895   4.934  14.227  0.0244  0.0807 -0.0554
 7969W        W 8833   1.678  10.816  14.328 -0.1886  0.0222  0.3005
 7970W        W 8834  29.132  10.955  12.082 -0.0117 -0.0093  0.0303
 7971W        W 8835  28.689   7.790  11.167 -0.0538 -0.0011  0.0493
 7972W        W 8836   0.689   8.865  11.889  0.0551  0.1974  0.0028
 7973W        W 8837   1.829   5.857  12.407 -0.1578 -0.1004 -0.3515
 7974W        W 8838   1.237  11.669  14.346  0.3273  0.1812  0.2410
 7975W        W 8839   2.582   9.174  11.877  0.0750 -0.0017  0.1530
 7976W        W 8840   4.588   9.747  13.438 -0.0913  0.0081  0.1813
 7977W        W 8841  27.392   8.537  14.016  0.0710  0.0905 -0.1472
 7978W        W 8842   0.629   7.689  14.369 -0.1325  0.2094 -0.2223
 7979W        W 8843   3.487   9.519  10.489 -0.1672 -0.0212  0.4107
 7980W        W 8844   1.153   9.465   9.510  0.0577  0.2995 -0.2339
 7981W        W 8845  28.898  10.047  14.858  0.2768  0.0629 -0.0572
 7982W        W 8846  28.746   9.776  10.874 -0.0745  0.2272  0.2017
 7983W        W 8847   3.399   8.875  12.632 -0.3433  0.1480 -0.1099
 7984W        W 8848   4.988  10.217  13.290 -0.1177 -0.1298  0.1734
 7985W        W 8849   0.909   9.663  10.549 -0.1784  0.1730 -0.0673
 7986W        W 8850   2.217   9.667  13.751 -0.0512  0.0445 -0.1803
 7987W        W 8851   1.775   7.243  10.647 -0.1419 -0.0260  0.4786
 7988W        W 8852   4.499   7.290  14.018 -0.2077 -0.0443 -0.1397
 7989W        W 8853  26.041  12.742  15.623 -0.0929  0.2418 -0.0868
 7990W        W 8854   2.463  11.076  12.826  0.1772  0.0491  0.0445
 7991W        W 8855  28.590  10.243   9.121 -0.0883  0.1276  0.0646
 7992W        W 8856   2.923   7.912  10.846 -0.0966  0.1901 -0.2010
 7993W        W 8857  28.159  12.176  11.898  0.1829  0.0048  0.1888
 7994W        W 8858   3.198  10.352  11.560 -0.1042  0.1541 -0.0837
 7995W        W 8859   1.784   8.966  10.609  0.1118  0.3025 -0.1180
 7996W        W 8860   1.339  10.521  12.858 -0.1673  0.0931  0.1445
 7997W        W 8861   0.273   6.998   9.913  0.2679 -0.1192  0.2203
 7998W        W 8862   5.369   9.786  12.727  0.1242  0.2778 -0.0752
 7999W        W 8863   0.920   7.394  10.290  0.0619 -0.2213 -0.2223
 8000W        W 8864  25.612   7.768   9.673 -0.1195 -0.2014 -0.2546
 8001W        W 8865   1.920  12.128  12.882 -0.1063 -0.2967 -0.2246
 8002W        W 8866  29.053   9.810  10.433  0.4555 -0.4251  0.2060
 8003W        W 8867  27.857   8.291  11.822 -0.0894 -0.2783 -0.2258
 8004W        W 8868  28.557  11.010  14.127 -0.2207  0.0605 -0.3511
 8005W        W 8869   0.873   9.818  15.490 -0.1729  0.1252 -0.1805
 8006W        W 8870   0.956   8.940  15.582 -0.2141  0.1468  0.2450
 8007W        W 8871   1.180   8.873  11.867  0.0332 -0.1339 -0.0708
 8008W        W 8872   2.723   7.212  11.120 -0.0710 -0.1967  0.0272
 8009W        W 8873   1.509   9.321  11.023 -0.1069 -0.1215 -0.0108
 8010W        W 8874  28.096   7.828  11.139  0.0007 -0.4280  0.0094
 8011W        W 8875  28.221   4.713  11.724 -0.1445  0.0983  0.0552
 8012W        W 8876   1.828   7.598  11.470  0.0780  0.1692 -0.1161
 8013W        W 8877   2.706   6.160  11.616 -0.0788  0.1923 -0.0015
 8014W        W 8878   1.713   8.858  14.150  0.0369 -0.1104 -0.1752
 8015W        W 8879   3.794   9.800  11.456 -0.2855  0.1229  0.2241
 8016W        W 8880   0.277   9.684  11.329  0.2886 -0.1528 -0.2639
 8017W        W 8881   0.165   6.317  12.453  0.3297  0.0678 -0.0668
 8018W        W 8882  26.404   9.993  11.926 -0.3469 -0.1453 -0.1627
 8019W        W 8883   0.241  10.574  12.297 -0.2685  0.1461  0.0407
 8020W        W 8884   3.051   8.472  12.494 -0.1035 -0.1202  0.3384
 8021W        W 8885  27.924  12.124  11.418 -0.1226 -0.2515 -0.2776
 8022W        W 8886  27.178   7.927  12.647  0.2281  0.0570  0.2690
 8023W        W 8887   2.256   8.746  15.897 -0.2006  0.0533 -0.3347
 8024W        W 8888  25.284  10.587  14.158  0.0183 -0.2636  0.0624
 8025W        W 8889   2.833  10.506  14.051 -0.1762  0.4156  0.2769
 8026W        W 8890   1.503   6.606  14.813 -0.2883 -0.0414  0.0351
 8027W        W 8891   3.316   8.872  13.166  0.1730 -0.2986  0.2639
 8028W        W 8892   2.831   7.182   9.815 -0.3779  0.1526  0.0129
 8029W        W 8893   0.684   9.904  11.541  0.0743  0.0937  0.0482
 8030W        W 8894   1.740  10.343  12.576 -0.0882  0.1477  0.1422
 8031W        W 8895   2.385   9.173  12.869  0.2634 -0.3761 -0.2109
 8032W        W 8896  27.851  10.101  13.292 -0.1063  0.0799 -0.0362
 8033W        W 8897   3.701   9.412  14.336  0.4603  0.1799  0.1513
 8034W        W 8898   1.751   9.480  13.038 -0.1487  0.0122  0.2577
 8035W        W 8899   2.846  11.635  13.619 -0.0994 -0.1230 -0.3515
 8036W        W 8900   2.623   9.381  10.560  0.2389  0.0111  0.0375
 8037W        W 8901   4.314  10.258   9.996 -0.0700 -0.1125 -0.2469
 8038W        W 8902   2.199   9.551  13.226  0.1692 -0.2146  0.0716
 8039W        W 8903   1.090   8.871  14.017  0.0368 -0.0782  0.1122
 8040W        W 8904   5.794  11.095  11.839 -0.0382 -0.0372  0.1036
 8041W        W 8905   1.708  11.110   9.803  0.1908  0.1841  0.0232
 8042W        W 8906   2.618   8.701  12.091 -0.0822 -0.0699  0.0616
 8043W        W 8907   2.501   7.710  13.149  0.0368 -0.0061  0.1987
 8044W        W 8908  26.356  10.129  13.690  0.1161 -0.1093  0.1729
 8045W        W 8909   1.757   9.694  10.768 -0.1569  0.1246  0.0577
 8046W        W 8910   3.031   9.708  10.400  0.0599  0.0604 -0.1028
 8047W        W 8911  28.923   5.885  13.748 -0.1994 -0.0335 -0.0563
 8048W        W 8912   3.079  11.588  10.250 -0.0239  0.2405  0.2745
 8049W        W 8913   4.309  10.337   9.541  0.2441  0.0002  0.1604
 8050W        W 8914   3.496   7.338  11.551  0.1532  0.1838 -0.0836
 8051W        W 8915   2.982  10.118  13.605  0.0427  0.0168  0.1533
 8052W        W 8916   3.637  11.502  11.129  0.0673  0.0809 -0.2490
 8053W        W 8917  28.878  11.417  12.091  0.2695  0.2800  0.1262
 8054W        W 8918   2.048  10.108  14.783  0.1389 -0.2962  0.0413
 8055W        W 8919  27.200   5.374  12.321 -0.2285 -0.1208 -0.1085
 8056W        W 8920   0.368   9.163  12.197  0.1537 -0.4250  0.4622
 8057W        W 8921   2.674   8.124  11.260  0.0517 -0.1138  0.1396
 8058W        W 8922  28.511  10.862  10.619 -0.1318  0.0072 -0.1524
 8059W        W 8923   4.260   8.773  11.454 -0.1060 -0.3661 -0.2424
 8060W        W 8924   1.032  11.047  12.713 -0.2485 -0.0575  0.1081
 8061W        W 8925   2.545  11.286  12.409 -0.0993 -0.1579  0.0079
 8062W        W 8926   0.608   6.177  13.242  0.1087  0.2276 -0.0800
 8063W        W 8927  28.880  10.139  13.117 -0.4280  0.3263  0.1599
 8064W        W 8928   0.614  10.029  14.577 -0.4522 -0.1178 -0.3084
 8065W        W 8929   3.831  10.032  12.223 -0.2053  0.0448 -0.0887
 8066W        W 8930   4.618   6.419  15.590 -0.3647  0.1523  0.0740
 8067W        W 8931   1.511  10.584  10.424  0.0173 -0.1939  0.1374
 8068W        W 8932   3.378   8.650  10.901 -0.2621  0.1570  0.2498
 8069W        W 8933   3.480   7.935  10.870 -0.0333 -0.1022  0.1398
 8070W        W 8934   1.793   8.479  10.332 -0.1581  0.1497 -0.3521
 8071W        W 8935   2.954   8.577  14.646 -0.2093 -0.0350  0.0733
 8072W        W 8936   2.538  10.273  12.043 -0.0190 -0.2066  0.1577
 8073W        W 8937  27.603   9.091  13.362  0.1508  0.3593 -0.2264
 8074W        W 8938   1.318   8.883  14.465 -0.2535 -0.1895  0.3344
 8075W        W 8939   3.700  11.081  12.889 -0.1323  0.3040  0.0137
 8076W        W 8940  28.966  10.624  12.991  0.0524  0.0122 -0.1817
 8077W        W 8941   0.698   8.653  12.595 -0.0595 -0.2027 -0.0875
 8078W        W 8942  28.823  11.297  13.193 -0.0753 -0.2202 -0.3441
 8079W        W 8943  29.004   9.251  12.228  0.1885 -0.0203  0.1341
 8080W        W 8944   4.303   6.855  11.590 -0.0843 -0.0129  0.1932
 8081W        W 8945   0.982   8.052  14.482 -0.0036 -0.0998 -0.3834
 8082W        W 8946   5.618   4.924  12.660 -0.2821  0.0161  0.0644
 8083W        W 8947  28.078   9.865  11.287  0.0049 -0.0234  0.0961
 8084W        W 8948   0.162   7.592  12.324  0.0683  0.1067  0.2174
 8085W        W 8949   1.010   6.593  15.830 -0.2921 -0.2535 -0.0283
 8086W        W 8950  28.915   8.894  11.177  0.4215 -0.0391 -0.1496
 8087W        W 8951   2.210  13.479  11.594 -0.0567 -0.1350  0.0801
 8088W        W 8952   3.083   8.452  11.960 -0.0336 -0.0785 -0.0969
 8089W        W 8953   0.457   6.455  12.865  0.0971  0.1198  0.0001
 8090W        W 8954   1.203   8.864  10.152 -0.1859  0.0299 -0.1329
 8091W        W 8955   2.277   6.784  12.132 -0.2245 -0.2067 -0.3373
 8092W        W 8956  26.628   9.398  13.470  0.3269  0.1283 -0.2218
 8093W        W 8957   2.627   9.774  11.713  0.1387  0.2699 -0.0309
 8094W        W 8958  28.844   8.281  11.092 -0.0197 -0.2443 -0.0591
 8095W        W 8959   2.643   7.342  13.479 -0.0789 -0.1245 -0.0948
 8096W        W 8960  27.263  12.277  11.965 -0.1822 -0.0521  0.2425
 8097W        W 8961   3.623  10.628   9.650 -0.1640  0.3866  0.3380
 8098W        W 8962   1.999   6.935  13.972 -0.1491 -0.1690 -0.1253
 8099W        W 8963   1.790   8.703  11.832  0.1439 -0.0739  0.1219
 8100W        W 8964  28.227   9.306  12.794  0.0380 -0.1591  0.2110
 8101W        W 8965   4.279   5.946  12.040  0.2564  0.2150 -0.0819
 8102W        W 8966   3.431  10.782  11.368 -0.1511  0.3151  0.3008
 8103W        W 8967  29.020   9.499  11.766  0.0878 -0.0578 -0.0633
 8104W        W 8968   4.589   7.094  10.581  0.1740 -0.2887  0.3744
 8105W        W 8969   1.148   7.932  12.482 -0.2682  0.0682  0.1559
 8106W        W 8970   2.717   9.417  14.619  0.0403 -0.0048  0.3157
 8107W        W 8971   1.363   9.871  15.381 -0.3715 -0.1896 -0.1527
 8108W        W 8972   3.514   8.425  12.936  0.2403  0.1076 -0.0428
 8109W        W 8973   0.683   6.411  13.808  0.1721 -0.0136  0.0999
 8110W        W 8974   0.369   9.425  11.735 -0.2427 -0.1186 -0.1982
 8111W        W 8975   4.345   7.282  12.235  0.2170 -0.2177  0.3885
 8112W        W 8976  27.621  10.376  11.743  0.0311 -0.1190 -0.0277
 8113W        W 8977  29.129   9.573  13.100  0.0202 -0.2753  0.4171
 8114W        W 8978   1.996   6.903  14.919  0.0121  0.0223  0.0545
 8115W        W 8979   1.190   9.054  15.057 -0.1787 -0.0450 -0.1403
 8116W        W 8980   3.722   8.784  11.306 -0.3362  0.0817  0.3544
 8117W        W 8981   0.765  10.831  11.629 -0.1128 -0.1852  0.1520
 8118W        W 8982   0.222  12.387  12.287 -0.2233  0.1924 -0.0955
 8119W        W 8983   4.742  12.494  13.148  0.0319 -0.3676 -0.2533
 8120W        W 8984   0.321   8.732  10.971 -0.0330 -0.2716 -0.1058
 8121W        W 8985   3.247   5.939  11.686  0.1872 -0.0487  0.0645
 8122W        W 8986  27.664  11.397  13.538 -0.1857  0.4732  0.0617
 8123W        W 8987  28.217  10.788  12.498  0.0508 -0.0935 -0.1046
 8124W        W 8988   2.754   8.526  14.195  0.1790 -0.3058 -0.0326
 8125W        W 8989   0.180   8.320  12.570 -0.1382 -0.1649  0.0725
 8126W        W 8990  28.928  11.089  12.554  0.0085 -0.2032 -0.2936
 8127W        W 8991   1.316   8.409   9.381 -0.2171 -0.0835 -0.0023
 8128W        W 8992   0.951  10.531  13.734  0.1938 -0.1621  0.1218
 8129W        W 8993   1.085   8.304  12.846 -0.2213 -0.0995 -0.1420
 8130W        W 8994   3.748   7.976  10.365  0.0330  0.0291  0.0923
 8131W        W 8995   0.507  10.359  11.849  0.0131  0.3489 -0.3287
 8132W        W 8996  28.360   6.750  12.151 -0.1803 -0.1572  0.2210
 8133W        W 8997  28.366  10.653  13.794  0.0985 -0.0380 -0.0556
 8134W        W 8998   0.045   7.608   9.932  0.0828  0.0861 -0.0931
 8135W        W 8999   1.078  12.330  12.966 -0.0394  0.1380 -0.1709
 8136W        W 9000   3.164  10.431  12.807 -0.1453  0.2157  0.2308
 8137W        W 9001  27.398  10.528  13.015  0.0663  0.0981  0.0853
 8138W        W 9002   2.067  11.046  12.509  0.0887  0.1257 -0.0332
 8139W        W 9003   0.111   4.787  12.564  0.2670 -0.1095  0.1061
 8140W        W 9004  28.403   9.161   9.926  0.0195 -0.3402  0.0965
 8141W        W 9005   0.850   8.009  10.719 -0.0299  0.1197  0.1270
 8142W        W 9006  28.914  10.565  12.384  0.1840  0.1333 -0.0388
 8143W        W 9007   0.767   7.588  12.517 -0.0581  0.0968 -0.0674
 8144W        W 9008   2.856   6.707  11.334  0.0364 -0.0627  0.1603
 8145W        W 9009   5.268   8.084  11.867 -0.0552 -0.0006 -0.1955
 8146W        W 9010   4.153  11.769  12.597  0.0833 -0.2006  0.1372
 8147W        W 9011   4.982   9.324  12.549 -0.1124 -0.4074 -0.0413
 8148W        W 9012   5.496  11.685  14.238  0.3443  0.1864  0.1238
 8149W        W 9013   2.923  11.256  12.766 -0.1494 -0.0786  0.0008
 8150W        W 9014   4.986  11.037  13.049  0.3157 -0.2202  0.1802
 8151W        W 9015   1.704  10.707  11.801  0.0214 -0.0116  0.0268
 8152W        W 9016   4.910   3.608   9.347 -0.0107 -0.1217 -0.1263
 8153W        W 9017   1.658  10.372  13.955 -0.1220  0.0965  0.0690
 8154W        W 9018   4.365   8.667  13.510 -0.1611 -0.3606 -0.0100
 8155W        W 9019   0.015   5.779  12.796  0.0853 -0.1663  0.0707
 8156W        W 9020   1.204  10.921  10.724  0.2390  0.1693 -0.0876
 8157W        W 9021   0.812  10.039  11.094 -0.0637 -0.1814  0.0593
 8158W        W 9022   1.978  11.948  13.808  0.0540 -0.1445 -0.2940
 8159W        W 9023  28.950  10.759  13.902  0.0323  0.0776 -0.0925
 8160W        W 9024  28.549  10.455  12.716 -0.0457 -0.0457  0.1261
 8161W        W 9025   4.204  11.545  14.137 -0.2305 -0.0617  0.0201
 8162W        W 9026   0.604   8.461  10.690  0.0916  0.0377  0.2976
 8163W        W 9027   3.979   6.957  16.992 -0.3014  0.0370  0.1239
 8164W        W 9028   3.216   8.293  10.509  0.0766  0.3429  0.1738
 8165W        W 9029   4.384  10.294  11.750  0.5173 -0.1562  0.2703
 8166W        W 9030   3.355   6.554  11.223 -0.1430 -0.1119  0.0940
 8167W        W 9031   2.664   8.485  10.547 -0.1702 -0.0241 -0.0601
 8168W        W 9032   1.523   6.529   9.824  0.0854  0.4601 -0.1431
 8169W        W 9033  28.520  11.341  15.049 -0.1462  0.0263 -0.0372
 8170W        W 9034   2.143   9.038  13.306 -0.1447  0.1489 -0.0014
 8171W        W 9035   1.424   6.015  13.876  0.0083  0.1935  0.1185
 8172W        W 9036  28.419   6.654  11.418 -0.3113 -0.0454 -0.1947
 8173W        W 9037  28.601   7.939  12.883  0.2634  0.1927  0.1341
 8174W        W 9038   2.796  10.945  13.813 -0.0833  0.0266  0.1633
 8175W        W 9039  28.353   8.634  11.181 -0.2813  0.0401  0.0502
 8176W        W 9040   3.215   5.026  11.694 -0.3320 -0.2666 -0.0599
 8177W        W 9041   0.605  10.093  12.776  0.0960  0.2036 -0.0165
 8178W        W 9042   4.867   8.799  13.509 -0.2150 -0.4683  0.3105
 8179W        W 9043   2.646   9.885  12.950  0.0741  0.0854 -0.0888
 8180W        W 9044   0.779   9.194  11.454 -0.1042  0.0961  0.2648
 8181W        W 9045   2.418   5.609  10.926  0.2899 -0.2440 -0.0261
 8182W        W 9046   4.192   5.527  15.797  0.1301 -0.0245  0.1271
 8183W        W 9047   0.262   7.393  11.245 -0.4984  0.1610  0.1165
 8184W        W 9048   0.153  11.407  13.468 -0.2085  0.1940 -0.1820
 8185W        W 9049   1.717   9.276   9.365  0.0934 -0.0209 -0.1100
 8186W        W 9050   5.915   9.774  12.544 -0.0857 -0.1603 -0.0635
 8187W        W 9051   0.325   8.982  13.403 -0.1690  0.0642  0.0632
 8188W        W 9052   2.275   7.669  12.515 -0.1632 -0.0986 -0.0572
 8189W        W 9053   2.293   9.326  11.426  0.1491  0.0388  0.0370
 8190W        W 9054   4.318   9.887  14.623 -0.1005 -0.0182 -0.2129
 8191W        W 9055   1.816   9.849  12.620 -0.2145 -0.1007  0.1538
 8192W        W 9056  26.524  10.421  15.885  0.2139 -0.3525  0.1113
 8193W        W 9057   3.547   7.810  11.366 -0.2831  0.0108 -0.0582
 8194W        W 9058   3.555  10.394  12.434  0.3658  0.0654 -0.1128
 8195W        W 9059   2.753   6.790  12.269 -0.1567  0.0270 -0.0441
 8196W        W 9060   0.132  10.257  12.828 -0.2074 -0.4293  0.0694
 8197W        W 9061   3.744  10.815  13.725  0.1235  0.0460 -0.1769
 8198W        W 9062   0.471   8.146  13.647  0.0915  0.2593  0.0487
 8199W        W 9063   3.612   9.238  13.423 -0.1574  0.1227  0.4254
 8200W        W 9064   2.089   8.694  12.275  0.0246  0.4618 -0.0721
 8201W        W 9065   0.780   8.866  11.120 -0.2518  0.2085  0.1162
 8202W        W 9066   2.329  10.467  13.136  0.2180  0.1417 -0.1373
 8203W        W 9067   3.277   9.334  12.511 -0.0318 -0.1070  0.0741
 8204W        W 9068   0.702  11.459  12.693 -0.1400 -0.0800  0.2015
 8205W        W 9069   0.842  10.464  11.366  0.2680 -0.0161 -0.0695
 8206W        W 9070   1.805  13.441  12.645 -0.1294  0.1384 -0.3011
 8207W        W 9071  28.820   8.239  10.116  0.0817 -0.1272  0.0899
 8208W        W 9072  28.523   8.307  13.789 -0.2322 -0.0556  0.1229
 8209W        W 9073   1.422  10.656  11.325  0.0397  0.3778  0.1515
 8210W        W 9074   3.560  10.683  14.477 -0.3607 -0.2502 -0.0778
 8211W        W 9075   1.343  10.384  10.905  0.4493  0.1813 -0.1136
 8212W        W 9076   3.938   7.603  11.630 -0.1885  0.0024 -0.0141
 8213W        W 9077   0.940  11.013  19.824 -0.4999 -0.0992  0.0843
 8214W        W 9078   0.173  11.181  18.605  0.0716  0.1108 -0.1215
 8215W        W 9079   1.907  12.090  15.495  0.1676  0.4414  0.0415
 8216W        W 9080   3.557  11.602  15.114 -0.0142 -0.1786  0.2144
 8217W        W 9081   1.182   9.448  12.254  0.2300  0.0579  0.0967
 8218W        W 9082   1.202   8.807  12.532  0.1604  0.0094  0.0805
 8219W        W 9083   0.187   7.452  14.439 -0.0114 -0.0335  0.0842
 8220W        W 9084   0.319   8.821  15.282 -0.0099  0.1490 -0.0932
 8221W        W 9085   4.193   9.032  18.081  0.1125  0.1024  0.0197
 8222W        W 9086   2.390   7.233  17.633 -0.2230 -0.0168  0.2004
 8223W        W 9087   0.873   4.711  18.989  0.1531  0.1619  0.0767
 8224W        W 9088   2.509   4.588  17.815  0.2240  0.1691  0.0696
 8225W        W 9089   2.216  10.089  12.422  0.2045 -0.1184 -0.0543
 8226W        W 9090   4.786   4.850  17.291  0.1673  0.3727  0.0152
 8227W        W 9091   0.805   7.871  16.622  0.1469  0.0912  0.1433
 8228W        W 9092  28.491  11.595  19.462  0.1430 -0.1146 -0.3135
 8229W        W 9093   1.497  10.100  16.693 -0.1307 -0.1324 -0.1354
 8230W        W 9094   1.623   8.742  16.396  0.1594 -0.0478 -0.1957
 8231W        W 9095   0.939   7.626  14.724 -0.3295  0.0618  0.1309
 8232W        W 9096   2.236   7.811  15.027  0.1817  0.1013 -0.3015
 8233W        W 9097   1.351  11.504  17.543  0.1485 -0.0842  0.1411
 8234W        W 9098   0.173   9.175  16.944  0.0546 -0.1787 -0.1595
 8235W        W 9099   2.656  10.751  16.308  0.1583  0.2400  0.0779
 8236W        W 9100   0.572  10.677  15.598  0.2273  0.0654  0.0352
 8237W        W 9101   0.772   8.756  15.048  0.4635 -0.2773 -0.0143
 8238W        W 9102   0.464   8.223  14.268 -0.1068 -0.0016  0.1091
 8239W        W 9103   4.759   6.520  17.552 -0.1440 -0.3234 -0.0925
 8240W        W 9104  27.388  10.141  15.526  0.0216 -0.2098  0.0641
 8241W        W 9105   4.196  10.131  16.902  0.1988  0.1695 -0.2548
 8242W        W 9106   1.167   9.000  16.884  0.1811  0.1651 -0.2095
 8243W        W 9107   1.969  10.657  15.048 -0.0299  0.1115  0.0813
 8244W        W 9108   4.259   9.280  19.828  0.0327 -0.0664  0.3586
 8245W        W 9109   1.829   6.264  17.236  0.0046 -0.0573 -0.1752
 8246W        W 9110   1.606   6.576  17.577  0.1597 -0.3445 -0.1695
 8247W        W 9111  27.005   6.071  19.835 -0.0407 -0.1107  0.4859
 8248W        W 9112   4.471  12.842  18.041  0.0625 -0.1876  0.0648
 8249W        W 9113   0.164   8.727  15.871 -0.2248 -0.3231 -0.0532
 8250W        W 9114   0.603   6.865  16.401  0.4672 -0.1010  0.1451
 8251W        W 9115   1.208  11.786  14.886 -0.1364 -0.0510  0.1864
 8252W        W 9116   1.754   8.740  15.906  0.0819 -0.2950 -0.1393
 8253W        W 9117   2.873   7.093  12.743  0.0453  0.3068 -0.0542
 8254W        W 9118   1.925   9.113  16.230 -0.1215 -0.0470  0.0223
 8255W        W 9119  27.703   9.773  15.694  0.0791 -0.0078  0.0708
 8256W        W 9120   4.022  11.272  14.499  0.1454  0.0757  0.0159
 8257W        W 9121   5.099  13.029  17.008 -0.1858  0.0793 -0.1182
 8258W        W 9122   0.796  10.233  15.785  0.1313 -0.0317  0.1826
 8259W        W 9123  29.136  10.814  17.164  0.0729 -0.1289 -0.3585
 8260W        W 9124   2.577   8.836  16.673 -0.1982  0.1224 -0.0751
 8261W        W 9125   5.518  10.453  14.643  0.0443 -0.0156  0.3168
 8262W        W 9126   1.988  10.061  14.259 -0.2185 -0.1019 -0.1396
 8263W        W 9127   1.965  12.232  16.459 -0.1292 -0.3043  0.1081
 8264W        W 9128   2.001   6.856  15.845  0.0047 -0.1348  0.1330
 8265W        W 9129   2.509  10.534  15.361 -0.2378 -0.1571 -0.2919
 8266W        W 9130   0.667  10.328  16.447  0.0895  0.1381 -0.1388
 8267W        W 9131   2.445   9.193  16.303  0.3494 -0.0360  0.1522
 8268W        W 9132   0.813  11.332  15.422  0.0128  0.1137 -0.2382
 8269W        W 9133   0.051   7.769  13.644 -0.2868  0.0446 -0.2031
 8270W        W 9134   2.360   9.848  17.410  0.2324  0.1120  0.3651
 8271W        W 9135  25.925  12.033  16.962  0.2075 -0.1605 -0.2356
 8272W        W 9136   0.633  11.107  13.069  0.1264 -0.1115  0.1333
 8273W        W 9137   3.253   7.633  14.621 -0.2995 -0.3022 -0.1373
 8274W        W 9138   0.597  10.207  18.191 -0.0090  0.0772  0.0950
 8275W        W 9139   1.926  11.149  15.335  0.0916  0.1608 -0.0654
 8276W        W 9140  27.222  11.097  13.647 -0.0574  0.0856 -0.1521
 8277W        W 9141  28.753   6.952  15.764 -0.2972  0.0277 -0.2631
 8278W        W 9142   2.391   8.872  17.150  0.0520 -0.2471  0.2772
 8279W        W 9143   2.044   9.127  13.812 -0.1579 -0.0163 -0.0834
 8280W        W 9144  27.863   7.628  13.980  0.0823 -0.2878 -0.0352
 8281W        W 9145   2.179  11.527  13.372  0.2761  0.0824 -0.0031
 8282W        W 9146   4.523  10.288  13.422 -0.0757  0.1790 -0.0914
 8283W        W 9147   3.415  12.231  17.625  0.1847 -0.0718  0.0498
 8284W        W 9148   2.092   7.406  13.258  0.0661  0.0331 -0.1356
 8285W        W 9149   1.540  11.289  16.042 -0.2995 -0.2715  0.1721
 8286W        W 9150   5.382  10.042  14.833  0.0142 -0.0880  0.1246
 8287W        W 9151   1.048  10.717  15.498 -0.1835 -0.0791  0.0116
 8288W        W 9152   1.683  12.448  18.704  0.1119  0.1257 -0.4571
 8289W        W 9153  26.541   9.444  16.216  0.0503 -0.3084 -0.0550
 8290W        W 9154   1.637  10.374  16.239  0.2299 -0.0969  0.0456
 8291W        W 9155   5.307   8.726  14.434 -0.4053  0.1580 -0.1089
 8292W        W 9156   0.496   9.778  15.004  0.0110  0.0035 -0.1923
 8293W        W 9157   0.976   9.996  16.794 -0.2966 -0.1618  0.1254
 8294W        W 9158  28.259   7.691  16.607 -0.0323 -0.0614 -0.1098
 8295W        W 9159  29.041   7.401  14.944 -0.0572  0.0216 -0.1669
 8296W        W 9160   1.236   7.225  14.242  0.2343 -0.0122 -0.1810
 8297W        W 9161   4.945   7.129  19.238  0.2792  0.1695 -0.1328
 8298W        W 9162   4.047   7.950  16.223  0.2494 -0.0889 -0.1258
 8299W        W 9163   6.792   8.237  16.220 -0.2105 -0.0863  0.3822
 8300W        W 9164   1.558   6.247  18.038 -0.2755 -0.2203 -0.1430
 8301W        W 9165   2.368  12.421  16.683  0.1631  0.3293 -0.2175
 8302W        W 9166   1.953   7.991  17.023 -0.0252  0.2201  0.3863
 8303W        W 9167   4.137   7.954  16.751  0.0674  0.1952 -0.3998
 8304W        W 9168   4.131   6.854  17.971  0.0215 -0.1016  0.3663
 8305W        W 9169  28.514  12.623  18.073 -0.1671  0.2473  0.0497
 8306W        W 9170   0.916   9.888  13.471  0.1110  0.3106 -0.2890
 8307W        W 9171   0.654   9.015  17.173 -0.1071 -0.0032  0.0012
 8308W        W 9172   3.258   8.498  14.106  0.1985  0.0697 -0.1648
 8309W        W 9173   0.717   8.054  16.163 -0.0964  0.0325  0.0430
 8310W        W 9174   3.337   9.511  18.243 -0.1298  0.0789  0.1861
 8311W        W 9175   0.320   6.467  14.174  0.1732 -0.2994  0.1177
 8312W        W 9176   3.097   8.171  15.057 -0.0748 -0.1511  0.3777
 8313W        W 9177   6.764  10.637  13.608 -0.1180  0.2378 -0.2255
 8314W        W 9178   0.147  10.148  13.679 -0.1073  0.3639  0.1512
 8315W        W 9179   1.234   7.542  15.097  0.1537 -0.0108  0.1895
 8316W        W 9180   3.263  10.902  15.675  0.1629  0.3684  0.4091
 8317W        W 9181   3.562   6.760  17.113  0.2443  0.0115  0.0742
 8318W        W 9182   4.716  10.767  15.667 -0.2977  0.2224  0.1859
 8319W        W 9183   3.381  10.346  13.894 -0.0600 -0.1867  0.2129
 8320W        W 9184   3.082  10.476  17.113 -0.1443 -0.4277  0.0973
 8321W        W 9185   1.370   7.746  13.332 -0.1651  0.0426  0.2201
 8322W        W 9186   1.559   8.341  13.335 -0.2425 -0.1474 -0.0098
 8323W        W 9187  29.132   8.584  16.363  0.2405 -0.2619  0.1135
 8324W        W 9188  27.470  12.224  14.891  0.0776  0.1479  0.1677
 8325W        W 9189   3.766   8.995  16.037 -0.0783  0.1263  0.3214
 8326W        W 9190   2.845  11.072  18.604  0.3526 -0.2131  0.0531
 8327W        W 9191   5.057  10.272  13.893 -0.1639  0.0932  0.2637
 8328W        W 9192   1.509  10.098  14.864 -0.0311  0.0299 -0.1234
 8329W        W 9193   3.683  10.784  17.252  0.3701  0.0821  0.3088
 8330W        W 9194   2.089   7.333  15.239  0.3390 -0.3748 -0.1391
 8331W        W 9195   1.334   8.500  16.803  0.0047 -0.2523 -0.1623
 8332W        W 9196   2.564   7.452  16.023 -0.2706 -0.2257 -0.1112
 8333W        W 9197   2.583   8.735  13.082 -0.0658 -0.0913  0.1953
 8334W        W 9198   4.422  11.179  15.747  0.0531 -0.2157 -0.0944
 8335W        W 9199   0.169   9.303  14.963 -0.2660 -0.0990  0.1296
 8336W        W 9200   0.984   9.126  12.877 -0.1396  0.0479 -0.1191
 8337W        W 9201   1.563   8.254  16.233  0.2774 -0.1092 -0.1551
 8338W        W 9202   4.414   9.804  15.959 -0.0611 -0.0473 -0.0374
 8339W        W 9203  28.992   7.570  16.529  0.0331  0.1188  0.0237
 8340W        W 9204   3.811   8.822  17.394 -0.1000  0.4495 -0.1999
 8341W        W 9205   3.425  11.305  18.640  0.0539 -0.0567 -0.0828
 8342W        W 9206   1.473   7.464  15.876 -0.0658  0.1322  0.0996
 8343W        W 9207   3.678  10.608  15.922 -0.2402 -0.2132  0.1083
 8344W        W 9208   1.930   8.708  16.834 -0.0547  0.0298 -0.0816
 8345W        W 9209   3.939   8.917  14.503  0.0183  0.2317 -0.1056
 8346W        W 9210   4.047   7.342  18.236  0.0028  0.2073  0.1698
 8347W        W 9211   5.852  11.395  16.551 -0.1361  0.2291 -0.1486
 8348W        W 9212   0.581   8.420  17.181  0.0335 -0.0960  0.1480
 8349W        W 9213   1.935   8.961  17.540 -0.1076  0.1364  0.1945
 8350W        W 9214   1.613   8.567  17.647 -0.2384  0.0691  0.2103
 8351W        W 9215   1.025  12.301  15.052  0.1103 -0.0816 -0.1145
 8352W        W 9216   1.974  11.148  13.900  0.1097 -0.0193  0.3272
 8353W        W 9217   0.720   7.149  14.604  0.2354 -0.3935 -0.3485
 8354W        W 9218  28.556   7.976  18.170 -0.3939 -0.2440  0.1768
 8355W        W 9219   1.049  11.407  13.044 -0.0483 -0.0876 -0.1657
 8356W        W 9220   2.381   7.668  14.441  0.0655 -0.3919  0.1951
 8357W        W 9221   0.095   7.008  15.666  0.1708  0.2822 -0.1770
 8358W        W 9222   2.083  10.567  14.502 -0.0690 -0.1888 -0.2978
 8359W        W 9223   1.837   9.970  16.009 -0.0462 -0.3216 -0.1502
 8360W        W 9224   4.188  10.703  15.787 -0.2741 -0.2073 -0.1987
 8361W        W 9225  29.141  12.453  14.262 -0.0930  0.1141  0.1068
 8362W        W 9226   0.128   9.776  14.669  0.1331 -0.0229  0.0146
 8363W        W 9227   6.579   9.544  15.769  0.0983  0.0323 -0.2301
 8364W        W 9228   0.845   5.428  13.389  0.1589  0.1895 -0.2181
 8365W        W 9229   0.566   9.784  15.932  0.0551  0.1304 -0.4752
 8366W        W 9230   1.702   7.616  16.345  0.3771 -0.0042 -0.2861
 8367W        W 9231   0.777   7.570  16.225  0.0287  0.0158 -0.0547
 8368W        W 9232   1.809   6.751  18.052 -0.1132  0.0270 -0.0553
 8369W        W 9233   1.063  10.399  14.231 -0.0589 -0.2435  0.1192
 8370W        W 9234   1.392   7.937  16.817 -0.3951  0.2881  0.0923
 8371W        W 9235  27.644   7.924  14.441  0.1513 -0.0588  0.1631
 8372W        W 9236   0.722  11.729  15.125 -0.4076 -0.0061 -0.3845
 8373W        W 9237   3.280   8.871  16.242 -0.0864 -0.1659  0.1344
 8374W        W 9238   1.768  10.774  15.988 -0.2373 -0.1186 -0.0111
 8375W        W 9239   2.011  10.524  20.711  0.0799 -0.1934 -0.1316
 8376W        W 9240   2.402  12.036  19.200  0.2149  0.2237  0.1665
 8377W        W 9241   1.476   6.596  20.682  0.0274 -0.0091  0.0410
 8378W        W 9242   0.946   6.864  16.798  0.2507 -0.2000  0.4276
 8379W        W 9243   0.893   7.575  13.284 -0.2389  0.2893 -0.1095
 8380W        W 9244  28.671   9.787  16.025  0.0003  0.1691  0.1022
 8381W        W 9245   2.721   8.845  16.090  0.0275  0.2298 -0.2109
 8382W        W 9246  27.143   9.659  13.428  0.4533 -0.0808  0.1038
 8383W        W 9247   2.558   9.123  15.711  0.1915 -0.1198 -0.0741
 8384W        W 9248   2.828   9.636  17.294 -0.2779  0.0268  0.0419
 8385W        W 9249   0.903  10.072  17.785 -0.0711 -0.0768 -0.1649
 8386W        W 9250   4.564   8.253  13.071  0.3543 -0.0761  0.1363
 8387W        W 9251   3.485   8.660  15.771 -0.0119  0.1606  0.3534
 8388W        W 9252   3.536   7.354  14.992 -0.1114 -0.0661 -0.2016
 8389W        W 9253   1.459  10.932  18.630  0.2466 -0.3739  0.1143
 8390W        W 9254  29.044  11.347  20.200 -0.1039  0.1098 -0.1447
 8391W        W 9255   0.267  11.171  13.989 -0.2029 -0.0900 -0.1398
 8392W        W 9256   1.689   7.036  14.471  0.1341 -0.1628  0.1311
 8393W        W 9257  27.783   9.813  16.156  0.0333  0.0552 -0.1302
 8394W        W 9258   2.530  11.426  15.313  0.1545 -0.3283 -0.1617
 8395W        W 9259   3.465  10.542  16.397 -0.1166  0.1538 -0.1878
 8396W        W 9260   0.497   9.481  13.436  0.0406 -0.2127  0.0721
 8397W        W 9261   3.438   9.229  13.890  0.0781 -0.0011 -0.0122
 8398W        W 9262   3.248  11.268  17.461  0.1441 -0.0491 -0.0614
 8399W        W 9263   1.346  10.380  15.759  0.1224 -0.1926  0.2689
 8400W        W 9264  27.620   7.457  15.345  0.2876 -0.0021 -0.4320
 8401W        W 9265   1.532   9.303  17.301 -0.3421  0.2775  0.0015
 8402W        W 9266   1.727  10.205  15.457  0.1279  0.0462  0.1207
 8403W        W 9267   1.521  10.220  14.385 -0.0076  0.0004  0.3152
 8404W        W 9268  27.906  12.953  15.908  0.0848  0.0445 -0.0098
 8405W        W 9269   1.875  11.898  19.253 -0.1348 -0.0687  0.0418
 8406W        W 9270   4.181   9.642  19.443  0.1398 -0.1845 -0.1370
 8407W        W 9271   1.704   7.440  19.669  0.0639  0.0834 -0.2042
 8408W        W 9272   0.780   6.008  14.087  0.0477  0.3132  0.3939
 8409W        W 9273   2.852   5.481  16.102  0.0980  0.1703 -0.0211
 8410W        W 9274  28.847   8.076  15.305  0.2706 -0.2850 -0.1332
 8411W        W 9275   2.131   8.317  14.263  0.1737  0.1715 -0.2122
 8412W        W 9276   2.566   6.481  18.382 -0.2364 -0.1099 -0.2714
 8413W        W 9277  28.992   9.733  15.563 -0.2493 -0.3703 -0.2152
 8414W        W 9278   3.172   8.393  18.736 -0.2435  0.0020  0.2128
 8415W        W 9279   1.459   8.133  14.693 -0.3927  0.1573 -0.1562
 8416W        W 9280  28.352   8.307  16.030  0.1107  0.1259  0.2940
 8417W        W 9281   1.981   9.099  15.684  0.0038  0.2197 -0.0604
 8418W        W 9282   0.585   8.307  15.220  0.0663 -0.7117 -0.1170
 8419W        W 9283  29.104  11.023  16.672  0.2318  0.3672 -0.1543
 8420W        W 9284   0.056   9.778  16.031 -0.2048  0.1737  0.1460
 8421W        W 9285   0.185  10.004  16.485  0.0003  0.0081  0.0537
 8422W        W 9286  28.607   9.037  13.841  0.1663  0.2581  0.0627
 8423W        W 9287   2.196  11.700  21.474 -0.2332  0.0587 -0.1252
 8424W        W 9288   3.020   9.319  15.748  0.0899 -0.3758  0.0564
 8425W        W 9289   1.639   8.344  17.188 -0.0031  0.1048 -0.5596
 8426W        W 9290   1.124   5.407  14.060 -0.2254  0.0642 -0.2622
 8427W        W 9291   5.618  10.030  17.355 -0.0434 -0.1051 -0.1439
 8428W        W 9292   4.931  10.037  11.846  0.2017  0.0712 -0.0426
 8429W        W 9293   3.054  12.323  12.883  0.0682  0.0837  0.0600
 8430W        W 9294   2.461  10.817  14.944 -0.4359  0.1194  0.3074
 8431W        W 9295   2.176  10.469  16.297 -0.0182  0.0750 -0.2394
 8432W        W 9296  29.075   9.834  17.586  0.1432  0.0565 -0.0452
 8433W        W 9297   3.685   4.519  18.736 -0.0484  0.3103 -0.0955
 8434W        W 9298   3.302   9.920  15.080  0.4291  0.3101  0.5647
 8435W        W 9299   5.744  10.616  17.382  0.0202 -0.2658  0.0677
 8436W        W 9300   0.874   9.032  14.645  0.0165  0.0278 -0.0549
 8437W        W 9301   6.000  11.559  14.003 -0.1291  0.1060  0.0211
 8438W        W 9302   1.968   9.556  14.752 -0.0542  0.0799  0.3895
 8439W        W 9303   0.392  10.235  20.425  0.1782 -0.1406  0.1512
 8440W        W 9304   2.087   8.442  17.887  0.0696 -0.1307  0.2786
 8441W        W 9305   2.166  10.800  15.614 -0.0437  0.0592  0.0615
 8442W        W 9306   2.169   9.523  15.976  0.2052  0.2909  0.0302
 8443W        W 9307   1.269   6.499  19.968  0.0149 -0.1255 -0.1683
 8444W        W 9308   1.205   7.465  16.438  0.0451  0.1972  0.2038
 8445W        W 9309   2.559  11.309  14.211  0.2019 -0.2026  0.6030
 8446W        W 9310   2.199   8.715  16.402 -0.0838 -0.2157  0.0788
 8447W        W 9311   0.452   6.481  16.803 -0.0055  0.2354  0.1664
 8448W        W 9312   2.836   9.086  17.133  0.0496 -0.1120  0.3706
 8449W        W 9313   4.559  10.408  16.113  0.2295  0.2102  0.0434
 8450W        W 9314   0.792   6.397  16.264 -0.0385  0.3387  0.1718
 8451W        W 9315  29.099   7.974  16.264 -0.2531  0.3277  0.0703
 8452W        W 9316   4.573   9.857  17.266 -0.1088 -0.4056  0.0536
 8453W        W 9317  28.563  12.229  10.695 -0.1878  0.0385  0.2654
 8454W        W 9318  29.081   8.667  19.178 -0.0753 -0.2373 -0.1248
 8455W        W 9319   1.053   8.258  16.435 -0.2632 -0.1778  0.2821
 8456W        W 9320   2.637   7.471  15.259  0.0919 -0.0887 -0.2164
 8457W        W 9321   1.449   7.974  17.383  0.0187  0.1368  0.1873
 8458W        W 9322   0.908  13.218  11.343  0.0754 -0.1559  0.2744
 8459W        W 9323   3.477  10.184  11.933  0.0885 -0.0825  0.0769
 8460W        W 9324  26.027  11.519  20.974  0.0042  0.1609 -0.5667
 8461W        W 9325   3.401  13.650  14.796 -0.1300  0.3055 -0.1544
 8462W        W 9326   0.860   7.250  15.118  0.1734  0.3267  0.0193
 8463W        W 9327   3.934  10.029  12.736 -0.0816  0.1838  0.5092
 8464W        W 9328   1.411  12.124  21.688 -0.0259  0.2438 -0.1398
 8465W        W 9329   1.590  11.286  20.617 -0.1536  0.0187 -0.0109
 8466W        W 9330   0.138   7.704  18.775  0.2323 -0.2856  0.1697
 8467W        W 9331   0.258  11.019  15.355  0.5568  0.0485 -0.0900
 8468W        W 9332   3.122  11.778  15.292  0.0551 -0.3695 -0.2849
 8469W        W 9333   2.332   8.272  13.744 -0.1958 -0.3423  0.1849
 8470W        W 9334   3.015   8.304  19.801 -0.1908 -0.1721 -0.1430
 8471W        W 9335  28.897  10.761  15.585 -0.0964 -0.0628 -0.1321
 8472W        W 9336   1.391  11.168  15.471 -0.0064 -0.0515 -0.4097
 8473W        W 9337   1.984   7.347  15.786  0.2431  0.1581  0.0531
 8474W        W 9338   0.085   7.076  17.417  0.0872 -0.2151  0.1769
 8475W        W 9339   3.831  10.605  16.790  0.2557  0.0690  0.0750
 8476W        W 9340  28.062   8.222  15.622  0.0514  0.3068  0.3351
 8477W        W 9341  28.394  10.270  17.619 -0.4271  0.2520 -0.0241
 8478W        W 9342   0.610  11.379  20.834  0.0537  0.2055  0.0736
 8479W        W 9343   0.855  10.844  17.032 -0.1071 -0.2100 -0.0625
 8480W        W 9344   2.363   9.810  14.547  0.3110  0.0631 -0.0432
 8481W        W 9345   1.783  12.378  19.203  0.0474 -0.0649 -0.0279
 8482W        W 9346   3.205   7.163  13.423  0.1195  0.3385  0.2998
 8483W        W 9347   1.128   9.830  15.865  0.2459 -0.1410  0.2632
 8484W        W 9348   1.540   8.698  14.941  0.1947  0.0193  0.1582
 8485W        W 9349   2.451   7.387  17.010 -0.0134 -0.2832 -0.0507
 8486W        W 9350   1.099  10.173  18.256  0.0883 -0.4754  0.0542
 8487W        W 9351  27.349  10.572  15.764  0.2591 -0.1737  0.2003
 8488W        W 9352   2.758   8.927  18.002  0.0124  0.0183  0.0363
 8489W        W 9353   0.036  10.452  16.643 -0.0262 -0.0903 -0.0854
 8490W        W 9354   1.075   8.800  16.336  0.0207  0.0651 -0.1807
 8491W        W 9355   2.984   7.456  13.138 -0.1317  0.1375 -0.2271
 8492W        W 9356  28.568  10.533  18.282  0.2873  0.1195 -0.1559
 8493W        W 9357   3.932   9.337  15.595  0.1417  0.1546 -0.0748
 8494W        W 9358   1.490   8.326  15.232  0.0825 -0.1645 -0.3150
 8495W        W 9359  28.461  10.562  14.333 -0.1367  0.2685  0.2344
 8496W        W 9360  28.673  11.036  17.280  0.0574  0.4860  0.2131
 8497W        W 9361   5.372   9.838  11.796 -0.2620 -0.1282  0.0373
 8498W        W 9362   2.339   6.266  19.084 -0.2389  0.3293  0.0389
 8499W        W 9363   0.661   8.973  16.045  0.0235 -0.3516 -0.0938
 8500W        W 9364   1.509  10.449  18.423 -0.0198  0.1254  0.1064
 8501W        W 9365   3.212   5.805  16.521 -0.1092  0.0338 -0.0325
 8502W        W 9366   2.543   8.954  14.944  0.1034  0.0315 -0.0078
 8503W        W 9367  27.075  10.641  13.416  0.0597 -0.2102  0.2544
 8504W        W 9368   1.341   6.806  12.993 -0.3050  0.0610 -0.2746
 8505W        W 9369   2.497   9.572  15.553 -0.2148 -0.1697 -0.2751
 8506W        W 9370   1.571   8.305  15.764 -0.1734  0.1325  0.1611
 8507W        W 9371   0.207  10.447  13.319 -0.1026  0.1015  0.0167
 8508W        W 9372   1.480   7.520  14.618 -0.2205 -0.0020  0.2356
 8509W        W 9373   2.298   8.797  14.139 -0.2449  0.1768 -0.0345
 8510W        W 9374   3.695  12.143  14.339 -0.3179 -0.3217 -0.2237
 8511W        W 9375   3.235   6.768  17.731 -0.0183  0.0079  0.0153
 8512W        W 9376  26.729  11.837  16.490 -0.0053 -0.0304 -0.1249
 8513W        W 9377   2.316   9.209  15.262  0.0420  0.3903  0.0649
 8514W        W 9378   3.197   7.460  17.711  0.1926  0.0557  0.0357
 8515W        W 9379   3.864  11.132  18.521  0.0744  0.2926 -0.0974
 8516W        W 9380   5.781  10.093  14.331  0.2970 -0.0864  0.0324
 8517W        W 9381   2.961  13.531  12.624  0.3424 -0.0055  0.2066
 8518W        W 9382   0.565  13.089  20.068  0.0421 -0.0247  0.0290
 8519W        W 9383   3.321   8.709  17.135  0.1013  0.1416 -0.0086
 8520W        W 9384   1.455   5.556  15.668  0.0964  0.0841  0.1203
 8521W        W 9385   3.784  10.631  15.062 -0.0188 -0.0545 -0.0173
 8522W        W 9386   1.948   7.970  14.558  0.1030 -0.1705  0.0351
 8523W        W 9387   0.809   5.802  14.633 -0.1325 -0.0027 -0.1446
 8524W        W 9388   3.129   8.296  17.381 -0.0068 -0.1154  0.0059
 8525W        W 9389   2.214   7.151  19.082  0.1122 -0.1599  0.0424
 8526W        W 9390   0.021   9.524  16.467 -0.3175 -0.2777  0.2748
 8527W        W 9391   0.847  10.939  18.718 -0.0781  0.0447  0.1183
 8528W        W 9392  28.860  11.959  19.620  0.1480 -0.0564 -0.1923
 8529W        W 9393   0.725   9.020  16.581  0.2353  0.0163 -0.2315
 8530W        W 9394   0.810   8.542  13.558 -0.0087  0.1414  0.0847
 8531W        W 9395   5.862   9.316  17.285 -0.0178  0.1894 -0.0526
 8532W        W 9396  28.764   7.896  13.816  0.2677  0.1092  0.0648
 8533W        W 9397   1.515   9.889  20.931  0.1588  0.1311  0.2652
 8534W        W 9398   3.053  11.347  15.027 -0.0941 -0.3253  0.1561
 8535W        W 9399  29.019  10.605  17.854 -0.1734 -0.1113  0.2574
 8536W        W 9400   3.370  10.814  17.686  0.4349 -0.0478 -0.1655
 8537W        W 9401   0.296   6.960  15.040  0.1329  0.0097  0.0535
 8538W        W 9402   0.336  11.557  15.384  0.0727 -0.0435  0.1538
 8539W        W 9403   2.923   8.772  13.449  0.1968  0.2416 -0.1506
 8540W        W 9404   0.246  10.815  17.606 -0.2002 -0.1859 -0.4300
 8541W        W 9405   2.157  10.631  13.981  0.4157 -0.2267  0.1007
 8542W        W 9406  28.580   7.632  15.241  0.1170 -0.2946  0.0679
 8543W        W 9407   1.935   6.738  17.227 -0.0653  0.1601  0.2295
 8544W        W 9408   1.372   9.764  13.412 -0.0171 -0.0050 -0.0097
 8545W        W 9409   4.146   8.599  17.734  0.1318  0.0905  0.0996
 8546W        W 9410   2.525  12.291  17.606 -0.2279 -0.1011  0.0592
 8547W        W 9411   4.385   8.599  15.708  0.0876 -0.0546 -0.1155
 8548W        W 9412   3.744  11.730  15.637 -0.0822  0.0850  0.1268
 8549W        W 9413   0.581  11.814  19.238  0.0847  0.0539 -0.0500
 8550W        W 9414   3.662   8.329  15.376 -0.0608 -0.3644 -0.2718
 8551W        W 9415   4.317   8.253  17.279  0.0274 -0.2958 -0.4234
 8552W        W 9416   2.158   7.919  16.287  0.0875  0.1557 -0.1966
 8553W        W 9417   2.903  10.369  16.632  0.5995  0.1980 -0.0417
 8554W        W 9418   1.459   6.142  16.727  0.0553  0.1577 -0.2140
 8555W        W 9419   3.232   8.946  14.388 -0.0865 -0.2092  0.3012
 8556W        W 9420   2.550  11.224  14.700  0.0042  0.0305 -0.0686
 8557W        W 9421   1.680  11.605  15.549  0.0510 -0.4657  0.0040
 8558W        W 9422   2.560  10.684  17.954  0.3103 -0.0747  0.0391
 8559W        W 9423   0.168   7.806  15.261  0.1479  0.0082  0.3199
 8560W        W 9424  28.084  10.555  16.096 -0.2036  0.0158  0.0833
 8561W        W 9425  28.531   9.886  15.524 -0.0562 -0.1682  0.1975
 8562W        W 9426   1.490   7.472  13.827  0.0733  0.1955  0.1012
 8563W        W 9427   0.361   9.499  15.472  0.2232 -0.2868 -0.0372
 8564W        W 9428   4.405   7.460  13.099  0.2127 -0.2477 -0.2934
 8565W        W 9429   5.295  10.007  16.635  0.0091 -0.1441 -0.4942
 8566W        W 9430   3.347  10.316  18.295 -0.1054  0.1789  0.2557
 8567W        W 9431   1.833   9.781  15.154 -0.2564  0.3113 -0.1824
 8568W        W 9432   3.278   7.849  15.886 -0.1289 -0.0567 -0.1209
 8569W        W 9433  28.575  11.938  17.808  0.3555  0.0222  0.0536
 8570W        W 9434   2.353   6.035  18.595 -0.2154 -0.2035  0.2420
 8571W        W 9435  28.001   5.678  17.923 -0.3038 -0.0051 -0.2493
 8572W        W 9436  26.851   8.649  16.580  0.2297 -0.1888 -0.3904
 8573W        W 9437   1.671   7.483  15.423 -0.0455 -0.0497 -0.1067
 8574W        W 9438   3.181  10.757  19.088 -0.2247 -0.2159 -0.3417
 8575W        W 9439   1.112  11.075  13.692  0.4446 -0.0297 -0.2111
 8576W        W 9440   3.112   9.347  16.260 -0.1234  0.1881  0.0790
 8577W        W 9441   0.710  11.619  18.504  0.1742 -0.1321  0.0038
 8578W        W 9442   0.977  11.274  17.341  0.3159  0.4000  0.1003
 8579W        W 9443   3.000  12.865  16.972 -0.0873 -0.1177 -0.0692
 8580W        W 9444   1.622   9.725  14.443 -0.0581 -0.1796  0.1901
 8581W        W 9445   0.287   8.269  16.097  0.0534  0.1410  0.0196
 8582W        W 9446   5.135   6.594  17.265 -0.1629  0.0797  0.0963
 8583W        W 9447  28.301   9.588  15.214  0.0443 -0.1010 -0.0131
 8584W        W 9448   0.570   8.678  13.962 -0.0758 -0.1239 -0.2230
 8585W        W 9449   3.549   8.957  14.784 -0.0558  0.2036 -0.2691
 8586W        W 9450   3.802   9.816  14.693  0.1845  0.1834 -0.0217
 8587W        W 9451   3.368   9.723  12.237  0.2022  0.1252 -0.0120
 8588W        W 9452   2.907   7.961  16.957  0.0165  0.0988  0.0162
 8589W        W 9453  27.189   8.960  16.406  0.0975  0.2930 -0.1445
 8590W        W 9454   3.949   8.674  18.487 -0.1989  0.0606 -0.2951
 8591W        W 9455   2.313   7.732  15.603 -0.1731  0.0981  0.1654
 8592W        W 9456   2.300   9.665  16.452 -0.1474  0.0552  0.1241
 8593W        W 9457   1.848  11.138  16.965  0.2756 -0.1646  0.1216
 8594W        W 9458   1.234   9.817  14.158 -0.0286  0.1849 -0.2043
 8595W        W 9459   1.802   8.463  13.767  0.1292  0.2843  0.1893
 8596W        W 9460   3.240   9.846  17.383 -0.2134  0.0649 -0.0194
 8597W        W 9461   5.243  11.646  18.355 -0.0746 -0.3681 -0.3698
 8598W        W 9462   4.361   7.299  18.634 -0.4869  0.2974 -0.1898
 8599W        W 9463   2.258   9.602  12.688  0.0556  0.2619 -0.0393
 8600W        W 9464   1.203   9.353  18.965  0.1022  0.1275  0.3722
 8601W        W 9465   1.207   7.941  16.043 -0.0720  0.3350  0.1455
 8602W        W 9466   3.972  10.305  14.741  0.1244  0.0544  0.2776
 8603W        W 9467   1.209  10.546  17.892 -0.1675  0.0594 -0.2385
 8604W        W 9468  28.684  11.485  15.982  0.0096  0.2143  0.0191
 8605W        W 9469   4.368  12.177  17.742  0.0671  0.0172  0.3237
 8606W        W 9470   0.878   8.532  16.793  0.1225 -0.1671  0.0649
 8607W        W 9471   0.536   9.304  17.593 -0.0955 -0.5267  0.0242
 8608W        W 9472   2.944   6.541  15.440 -0.1615  0.0788  0.1026
 8609W        W 9473   4.726  11.696  13.791  0.0717  0.0730  0.0261
 8610W        W 9474   1.992  10.971  17.624  0.0961 -0.1322 -0.1334
 8611W        W 9475   0.499  10.065  16.892  0.4685  0.0622  0.0078
 8612W        W 9476   2.506   7.240  13.031  0.0234 -0.0622 -0.1482
 8613W        W 9477  26.653  12.879  24.623 -0.0019 -0.1085  0.2081
 8614W        W 9478   0.432   8.321  21.456 -0.1876 -0.0236 -0.1082
 8615W        W 9479   3.462   9.886  18.650 -0.0353 -0.1694  0.3966
 8616W        W 9480   2.081   8.805  19.673  0.1074 -0.0372  0.1096
 8617W        W 9481  28.565   9.729  18.612 -0.3324 -0.2174 -0.3948
 8618W        W 9482   3.071   9.685  18.942 -0.0862 -0.4222 -0.0300
 8619W        W 9483   1.604   9.332  19.315  0.0671 -0.2908  0.1403
 8620W        W 9484   3.948  11.377  20.316  0.0594  0.0874 -0.0056
 8621W        W 9485   0.765  11.228  23.490 -0.2719  0.0102 -0.1421
 8622W        W 9486  28.798   9.647  19.847  0.1152 -0.1920  0.2032
 8623W        W 9487   1.766   8.065  21.380  0.3476 -0.0265 -0.0905
 8624W        W 9488   3.187   8.063  16.321  0.0985 -0.2153 -0.2884
 8625W        W 9489   2.070   7.576  17.491  0.2379  0.1024 -0.0375
 8626W        W 9490   2.234  10.503  22.369  0.0334 -0.0403 -0.0108
 8627W        W 9491   2.443   8.089  19.042 -0.3689  0.3492  0.1277
 8628W        W 9492   2.037   9.956  24.713 -0.0825 -0.1038  0.1575
 8629W        W 9493   5.308  10.397  18.822 -0.0528  0.0231  0.1990
 8630W        W 9494   2.021  10.294  18.509 -0.0285 -0.0386 -0.2010
 8631W        W 9495   2.704   7.838  21.674  0.0155  0.0833  0.1550
 8632W        W 9496   3.796  10.148  16.494 -0.0212  0.0297  0.1779
 8633W        W 9497   2.654   9.592  20.665  0.3666 -0.0005 -0.0929
 8634W        W 9498   1.177   8.069  20.864  0.0761  0.1907  0.1937
 8635W        W 9499   1.954  10.749  21.146  0.1808  0.1363 -0.4269
 8636W        W 9500   2.550  10.958  20.722 -0.0947  0.1435 -0.2647
 8637W        W 9501  28.512   8.453  17.805 -0.3770 -0.0622 -0.1005
 8638W        W 9502   2.643  12.582  21.806 -0.1245 -0.1972 -0.3100
 8639W        W 9503   2.640   9.080  20.981  0.4018 -0.1704 -0.0034
 8640W        W 9504   0.067   9.872  19.035  0.0385 -0.1055 -0.0265
 8641W        W 9505   0.660  14.995  19.920 -0.0408  0.0969  0.5014
 8642W        W 9506   2.447  10.955  21.242  0.2385 -0.2805 -0.1398
 8643W        W 9507   1.610  10.579  19.700  0.1373 -0.0113 -0.2617
 8644W        W 9508   1.754  11.104  21.957  0.1410  0.0430  0.0374
 8645W        W 9509   1.850  11.413  23.237  0.0799 -0.1897 -0.2550
 8646W        W 9510   0.991   7.629  21.127  0.0966  0.0784 -0.1368
 8647W        W 9511   0.565   9.405  22.905 -0.3688  0.3578  0.0512
 8648W        W 9512   1.062  11.100  20.759 -0.0125 -0.2050 -0.0741
 8649W        W 9513  28.633  10.631  19.159 -0.0570 -0.1485  0.0060
 8650W        W 9514  28.379  11.291  21.760 -0.1575 -0.0984  0.2855
 8651W        W 9515   4.419  10.282  18.384 -0.0586  0.1944 -0.1754
 8652W        W 9516   3.251   8.382  21.560  0.4842 -0.2775  0.0151
 8653W        W 9517   1.883   8.280  16.601 -0.0269  0.0678 -0.0658
 8654W        W 9518   5.229   9.753  17.969 -0.1270 -0.0188  0.3680
 8655W        W 9519   0.905   9.722  18.136 -0.0759  0.0440  0.0171
 8656W        W 9520   4.728  11.811  20.300  0.3873  0.1003 -0.0043
 8657W        W 9521  29.040  14.905  20.111 -0.4103 -0.1015  0.0511
 8658W        W 9522   1.271  10.636  19.387  0.1276 -0.0733  0.1403
 8659W        W 9523   3.456   9.019  20.377 -0.1311 -0.0597 -0.2358
 8660W        W 9524   1.907  10.869  22.584  0.5022  0.0474 -0.0457
 8661W        W 9525   1.122   9.064  20.903 -0.1552  0.2723 -0.1457
 8662W        W 9526   3.379  10.286  17.628 -0.2456  0.1697  0.0703
 8663W        W 9527  27.999  11.848  21.569 -0.3222 -0.0472  0.1565
 8664W        W 9528   1.200  10.284  19.896 -0.1483  0.1239 -0.1700
 8665W        W 9529   1.614  13.155  16.905  0.0320 -0.3507 -0.0014
 8666W        W 9530   2.072   8.285  19.324 -0.0633 -0.2447  0.1874
 8667W        W 9531   0.365  10.914  19.585  0.1243  0.2009  0.4181
 8668W        W 9532  28.789  10.610  21.138 -0.3620 -0.2280  0.1538
 8669W        W 9533   2.905  10.801  21.584 -0.1749 -0.2751 -0.1065
 8670W        W 9534   2.848   6.224  18.760 -0.5364  0.1369 -0.1880
 8671W        W 9535   0.786   9.952  18.598  0.3199 -0.2866 -0.1099
 8672W        W 9536   1.830   7.575  20.209 -0.0265 -0.1639  0.1970
 8673W        W 9537   2.252   8.668  19.066 -0.0859  0.0916  0.1653
 8674W        W 9538  28.245  10.458  19.968 -0.1973  0.0902 -0.2311
 8675W        W 9539   1.073   9.912  21.769 -0.0378  0.0124  0.2612
 8676W        W 9540   1.104   7.431  19.710  0.1368 -0.1623  0.1136
 8677W        W 9541   3.046   8.119  23.376 -0.1935  0.3362 -0.4575
 8678W        W 9542   4.358   6.936  22.283  0.1834 -0.1806  0.1105
 8679W        W 9543   1.322   7.219  18.613  0.0053 -0.2139 -0.0719
 8680W        W 9544  27.272   8.707  19.659 -0.2609  0.0584 -0.0416
 8681W        W 9545  28.090  11.433  19.948  0.0317 -0.1096  0.6744
 8682W        W 9546   0.923   9.393  18.568  0.2367  0.2512  0.1166
 8683W        W 9547   4.385  10.880  24.831 -0.1016 -0.1253 -0.0122
 8684W        W 9548   2.042   9.858  17.938 -0.1728 -0.3618 -0.1602
 8685W        W 9549   3.845  10.013  19.713  0.3004  0.0690 -0.0166
 8686W        W 9550   4.039   8.217  22.099 -0.1430  0.0859  0.1853
 8687W        W 9551   2.453   9.919  18.300 -0.0337  0.0750  0.2203
 8688W        W 9552   3.266  11.475  23.852 -0.0482  0.1556 -0.0181
 8689W        W 9553   3.744   9.425  21.061 -0.1915  0.0695 -0.2250
 8690W        W 9554   1.981  10.480  17.930  0.0313 -0.2799 -0.2356
 8691W        W 9555   3.208   7.622  17.224  0.0147 -0.3672  0.0194
 8692W        W 9556   1.393   9.613  16.829 -0.1343 -0.0451 -0.2352
 8693W        W 9557   1.332   7.086  19.381  0.0494  0.0611 -0.0706
 8694W        W 9558   2.367   9.759  22.824  0.1546  0.0436  0.2142
 8695W        W 9559   2.065   8.596  18.398 -0.0739  0.1492 -0.2480
 8696W        W 9560   1.587  10.125  18.007 -0.4980  0.2388 -0.2129
 8697W        W 9561   2.882   8.746  21.232 -0.2773  0.1867 -0.0701
 8698W        W 9562   3.738   9.183  18.252  0.1404 -0.0202  0.1145
 8699W        W 9563   1.449  10.453  21.305 -0.0018  0.1321  0.0558
 8700W        W 9564   4.015  10.223  22.314  0.0637  0.1543  0.2960
 8701W        W 9565   5.088   9.827  23.188 -0.0473  0.3633 -0.0381
 8702W        W 9566   2.459   8.361  19.630  0.3906 -0.0458  0.0857
 8703W        W 9567   1.532  10.230  19.331  0.1412 -0.1071 -0.1193
 8704W        W 9568   3.152  10.056  22.645  0.0470 -0.1680 -0.1664
 8705W        W 9569  28.341   7.314  20.540 -0.1329  0.1805 -0.0810
 8706W        W 9570  28.430   8.458  16.823 -0.0923  0.2036 -0.1761
 8707W        W 9571  28.051   9.078  20.912 -0.1680  0.1740 -0.1797
 8708W        W 9572   5.537   9.584  17.595  0.3770 -0.1491 -0.2026
 8709W        W 9573   1.475   7.122  17.842 -0.1162 -0.0387 -0.2934
 8710W        W 9574   0.182   9.683  21.786  0.0466 -0.3872  0.0040
 8711W        W 9575  28.922   9.131  17.965  0.0023  0.0214  0.3142
 8712W        W 9576   3.604  11.640  22.373 -0.0737 -0.0896  0.1411
 8713W        W 9577   1.184  11.679  15.381  0.4098  0.2751 -0.1955
 8714W        W 9578   0.095  10.427  19.988  0.0002  0.2370 -0.2430
 8715W        W 9579   3.021   8.786  19.658  0.1383 -0.0464 -0.0508
 8716W        W 9580   3.230  12.174  19.090 -0.1272  0.1165  0.2860
 8717W        W 9581   3.155   7.031  21.532 -0.0715  0.0703 -0.0288
 8718W        W 9582   2.782  11.114  21.909  0.1042 -0.2009  0.2206
 8719W        W 9583   2.386   9.202  20.415  0.1630 -0.0294 -0.3719
 8720W        W 9584   1.273   9.211  22.345  0.0361  0.0913  0.2118
 8721W        W 9585   3.941  10.013  20.295 -0.0391 -0.1323  0.0360
 8722W        W 9586   1.754   8.367  19.715  0.0343 -0.0779 -0.1064
 8723W        W 9587  28.670  11.854  22.300  0.0292  0.0085 -0.1269
 8724W        W 9588   0.139  11.819  20.104 -0.0554 -0.0194 -0.0344
 8725W        W 9589   2.399   8.002  22.118 -0.1813  0.1822 -0.0222
 8726W        W 9590  28.983  12.563  23.630  0.0705 -0.2874  0.2131
 8727W        W 9591   3.279   7.824  18.543 -0.2783  0.0815 -0.2235
 8728W        W 9592   3.406   9.758  20.916 -0.0319  0.1142 -0.5473
 8729W        W 9593   3.439   6.800  21.931  0.1283 -0.2031  0.1938
 8730W        W 9594   1.838   9.360  18.015  0.0554  0.2596 -0.2058
 8731W        W 9595   1.533   6.904  21.524  0.2474 -0.0774 -0.0479
 8732W        W 9596   3.478  11.171  19.157  0.2323  0.0888  0.1686
 8733W        W 9597   3.490  10.116  16.022  0.1260 -0.0506 -0.1714
 8734W        W 9598   2.475  11.726  20.148 -0.3058  0.2711 -0.1125
 8735W        W 9599   4.150  11.891  20.330  0.0695 -0.0421 -0.1478
 8736W        W 9600   3.332   9.224  19.233 -0.1387  0.0452  0.0145
 8737W        W 9601   2.476   8.561  17.623  0.3080 -0.1173  0.2387
 8738W        W 9602   3.049  10.483  14.449  0.2577  0.1840 -0.2238
 8739W        W 9603   1.725   8.581  19.179  0.1747 -0.0339 -0.1692
 8740W        W 9604   5.318   9.847  24.073 -0.0875  0.0942 -0.0366
 8741W        W 9605  28.100  14.142  21.561 -0.3896  0.0255  0.1635
 8742W        W 9606   2.307   9.283  22.004  0.2606 -0.4910 -0.0501
 8743W        W 9607   2.909   7.927  18.884 -0.0431  0.0062 -0.0815
 8744W        W 9608   4.645  10.861  20.403  0.1961  0.0289  0.0228
 8745W        W 9609   2.434   8.343  16.164  0.2168  0.0889 -0.0301
 8746W        W 9610   2.592   9.694  18.760 -0.1041 -0.0577 -0.3102
 8747W        W 9611  28.705   7.837  19.006  0.2048  0.1646  0.1477
 8748W        W 9612   4.936   9.562  16.688 -0.0356  0.0676 -0.0749
 8749W        W 9613   1.983   5.958  19.788  0.2202 -0.1179 -0.1513
 8750W        W 9614   1.012   9.620  20.087  0.2382  0.0518 -0.0775
 8751W        W 9615   2.997   7.831  21.240 -0.1145 -0.0316  0.2242
 8752W        W 9616   1.793   9.976  18.959 -0.0219 -0.1727 -0.0094
 8753W        W 9617   1.692   7.109  18.975 -0.3407  0.3398  0.3133
 8754W        W 9618   1.917   9.682  21.197 -0.0335 -0.2155  0.0478
 8755W        W 9619   1.916  12.146  19.690 -0.0511  0.4132  0.1089
 8756W        W 9620   1.945   9.980  20.686  0.0608 -0.2018 -0.2064
 8757W        W 9621   0.916   7.671  19.236  0.0266  0.4166 -0.0317
 8758W        W 9622   5.140   9.900  21.793 -0.3870  0.2273  0.2496
 8759W        W 9623   5.233   9.342  19.335  0.4272 -0.1671 -0.0396
 8760W        W 9624   3.755  10.450  21.339  0.1512  0.2051  0.1918
 8761W        W 9625   2.477  12.325  16.156 -0.0439 -0.0053  0.1193
 8762W        W 9626   2.894   9.059  20.210 -0.2326  0.1044 -0.2632
 8763W        W 9627   3.642   8.654  20.087  0.1911  0.3444 -0.2439
 8764W        W 9628   0.559   9.348  20.157 -0.3394 -0.1572  0.1641
 8765W        W 9629   1.080   8.592  17.820  0.1972 -0.0882  0.1784
 8766W        W 9630   1.379   9.617  18.092 -0.1531  0.0486  0.0779
 8767W        W 9631   2.678   7.724  20.247 -0.1057  0.0455  0.1890
 8768W        W 9632   1.326   9.415  21.736  0.5285  0.3232  0.1837
 8769W        W 9633   2.807   9.353  19.202  0.1234 -0.2613  0.0989
 8770W        W 9634   1.411   9.243  18.487 -0.1321 -0.3389 -0.1085
 8771W        W 9635   1.279   6.640  17.928  0.1810 -0.2914  0.0631
 8772W        W 9636   3.336   7.130  20.357 -0.0058 -0.0191 -0.0108
 8773W        W 9637   1.731  14.466  21.644  0.1174 -0.1499  0.0441
 8774W        W 9638   1.462  10.981  21.026 -0.2337  0.2401  0.0752
 8775W        W 9639   2.647  11.395  21.417 -0.3309  0.1249 -0.1028
 8776W        W 9640   4.250   8.818  21.645  0.0814 -0.0839 -0.1604
 8777W        W 9641   3.137   4.447  20.076  0.1491 -0.0150 -0.0073
 8778W        W 9642   3.902   9.629  18.502 -0.0131  0.1825 -0.3787
 8779W        W 9643   0.639  11.424  18.935  0.0812 -0.2335  0.3401
 8780W        W 9644   2.981   8.726  21.962 -0.0217 -0.2333  0.1177
 8781W        W 9645   1.965  10.082  16.470  0.0857  0.0262 -0.2780
 8782W        W 9646   4.095   9.741  20.717 -0.4784  0.3290  0.3373
 8783W        W 9647   3.370   9.525  19.615  0.2170 -0.0365 -0.1945
 8784W        W 9648   1.103   7.080  18.112  0.0857  0.4418 -0.0143
 8785W        W 9649   2.905   9.819  19.480  0.0341  0.2463 -0.1419
 8786W        W 9650   0.237  11.364  19.310  0.3658  0.0770 -0.2547
 8787W        W 9651   2.798   8.537  17.014  0.0181 -0.0806 -0.0082
 8788W        W 9652   0.546  10.649  20.077 -0.1463  0.0920  0.1474
 8789W        W 9653   0.847   8.639  19.199 -0.0785  0.0223 -0.0281
 8790W        W 9654   0.601  12.608  21.897  0.1049  0.2699  0.1306
 8791W        W 9655   0.428   8.295  19.346 -0.1053  0.2003  0.0783
 8792W        W 9656   2.379  10.523  17.439 -0.0739 -0.0866  0.0346
 8793W        W 9657   2.060  12.618  17.832 -0.1881 -0.0244 -0.1450
 8794W        W 9658   4.683  10.348  17.046 -0.4461  0.1939 -0.0655
 8795W        W 9659   2.151   9.433  19.192  0.1649  0.3102 -0.2098
 8796W        W 9660   0.876   7.073  15.957 -0.1860 -0.1163 -0.0049
 8797W        W 9661   2.554  11.414  22.564  0.1823  0.0217  0.0913
 8798W        W 9662   2.548   7.849  19.774  0.1652 -0.1547  0.0328
 8799W        W 9663   2.719   7.992  16.530 -0.0368 -0.3540 -0.1552
 8800W        W 9664   0.927   7.516  18.280 -0.0075 -0.1592  0.2342
 8801W        W 9665   2.968   8.095  20.439 -0.1615  0.2272  0.1433
 8802W        W 9666   0.564  11.273  22.024 -0.1557  0.0184 -0.0287
 8803W        W 9667  28.793  11.090  19.421 -0.0464  0.2199  0.2132
 8804W        W 9668   1.374   9.840  19.691 -0.0086 -0.0966  0.0684
 8805W        W 9669   1.683   5.430  22.742  0.0518 -0.1131  0.1246
 8806W        W 9670   1.425   5.086  20.399 -0.3126  0.2002 -0.1483
 8807W        W 9671   0.928   7.743  20.561  0.1786  0.0135  0.0229
 8808W        W 9672   2.034   7.784  17.952  0.1511 -0.0796 -0.0178
 8809W        W 9673   0.729   8.563  19.757 -0.3262 -0.0266 -0.0617
 8810W        W 9674   3.264   9.064  22.397 -0.1357  0.0549 -0.1373
 8811W        W 9675   2.133  10.371  15.784  0.0074 -0.1853 -0.1546
 8812W        W 9676   0.477   9.633  18.307  0.1965  0.1559 -0.1520
 8813W        W 9677   1.284   6.288  19.167 -0.0527  0.1298  0.2462
 8814W        W 9678   0.014  11.578  20.693  0.2216  0.0476  0.3174
 8815W        W 9679  27.370   8.660  20.631  0.1055 -0.0580 -0.2178
 8816W        W 9680   3.086   9.792  20.530  0.1336  0.2645  0.0207
 8817W        W 9681   0.645  10.393  17.323 -0.0273  0.0928  0.0762
 8818W        W 9682   2.775   7.904  19.344 -0.0516 -0.0461 -0.1577
 8819W        W 9683   2.268   9.321  21.378 -0.1216  0.2228  0.0571
 8820W        W 9684   2.277  11.606  19.001 -0.0420 -0.3219 -0.2026
 8821W        W 9685   0.370   7.262  16.020 -0.3540  0.0065  0.2518
 8822W        W 9686   1.575  10.363  20.242 -0.2070  0.2207 -0.0439
 8823W        W 9687   3.015   8.809  20.791 -0.1529  0.1765 -0.3238
 8824W        W 9688  28.183   8.350  18.741  0.1797 -0.1126 -0.0510
 8825W        W 9689   3.348  10.269  21.156 -0.0285  0.1555  0.2659
 8826W        W 9690   3.081   9.577  22.462  0.0942 -0.2227 -0.1720
 8827W        W 9691   2.956  11.655  17.558  0.3694  0.0155  0.0760
 8828W        W 9692   3.177   9.745  21.402  0.0836  0.1560  0.0275
 8829W        W 9693   3.599  10.376  19.983 -0.2217 -0.3396  0.2509
 8830W        W 9694   3.276  10.302  21.623 -0.0466 -0.0538  0.2850
 8831W        W 9695  28.844  12.054  24.975  0.1439  0.3031  0.0766
 8832W        W 9696   2.674  10.091  22.489  0.1284  0.0250 -0.1904
 8833W        W 9697   4.235   7.477  17.747  0.3448 -0.0839  0.2427
 8834W        W 9698   2.165  11.820  22.559 -0.3878  0.0511 -0.0639
 8835W        W 9699   0.629   5.957  19.360  0.1004  0.1301  0.3472
 8836W        W 9700   4.994  12.531  15.630 -0.0551 -0.0724  0.0142
 8837W        W 9701   1.420   6.957  17.216 -0.0541  0.1620 -0.1214
 8838W        W 9702  28.184  12.366  20.682  0.2628  0.0079  0.1109
 8839W        W 9703   1.832   9.046  21.113  0.1187 -0.0060  0.0942
 8840W        W 9704   2.217  10.617  16.767 -0.1525 -0.3881 -0.0948
 8841W        W 9705   1.071   9.649  21.338 -0.0143  0.0961 -0.1020
 8842W        W 9706   4.173  10.015  21.173 -0.1844 -0.2912  0.0060
 8843W        W 9707   1.605  11.053  23.033  0.0618 -0.1491 -0.1121
 8844W        W 9708  28.717   7.599  17.043 -0.0820  0.1611  0.2925
 8845W        W 9709   0.135   9.976  18.096  0.1378 -0.0587 -0.1225
 8846W        W 9710   0.455   8.096  18.911 -0.0623  0.1818  0.1848
 8847W        W 9711   1.912   7.750  18.892  0.1752  0.1190 -0.1351
 8848W        W 9712   2.575   7.671  17.445  0.2125 -0.0659 -0.1360
 8849W        W 9713  28.785   6.925  19.618  0.0477 -0.1040  0.1634
 8850W        W 9714   2.311  14.324  19.249 -0.1406 -0.1864  0.1539
 8851W        W 9715   3.934  10.276  18.304  0.0932  0.2226  0.1119
 8852W        W 9716   2.759  10.383  18.370  0.0075  0.2216  0.1708
 8853W        W 9717   0.532  11.735  22.347  0.0607  0.1826  0.0225
 8854W        W 9718   3.241  10.809  18.553  0.1965  0.0659 -0.1380
 8855W        W 9719  28.122   8.312  18.137  0.2077  0.0131  0.2399
 8856W        W 9720   6.001   9.567  20.559 -0.3347  0.1294  0.0698
 8857W        W 9721   0.995   6.309  16.761  0.0937  0.0421  0.0756
 8858W        W 9722   2.929   8.216  18.319 -0.1201  0.0049 -0.1597
 8859W        W 9723   1.500   9.890  21.415 -0.3092 -0.1448 -0.0727
 8860W        W 9724   1.037  12.222  18.555  0.0992 -0.0847  0.3283
 8861W        W 9725   1.694   9.184  16.867 -0.1089 -0.0567  0.1788
 8862W        W 9726   0.349  11.392  20.405  0.0955  0.4631 -0.1867
 8863W        W 9727  26.374  10.116  20.541 -0.1121  0.0274 -0.2758
 8864W        W 9728   2.791  10.976  22.683  0.1742 -0.0197 -0.1307
 8865W        W 9729   0.466   9.012  18.486 -0.0723 -0.3243 -0.2922
 8866W        W 9730   0.544   6.960  17.537  0.3086  0.1162  0.0667
 8867W        W 9731   4.096  10.517  19.182 -0.2697  0.0981  0.0780
 8868W        W 9732   2.207   8.206  15.745 -0.0425 -0.0221 -0.3734
 8869W        W 9733   0.600   7.674  23.179  0.1140  0.1839  0.1421
 8870W        W 9734   4.103  10.695  18.526  0.3585 -0.2268 -0.0724
 8871W        W 9735   3.697   5.333  18.039 -0.0464 -0.2208 -0.2240
 8872W        W 9736   3.197   9.451  20.161 -0.1780 -0.0419  0.1287
 8873W        W 9737   1.105  10.872  23.119 -0.0082  0.0133 -0.0921
 8874W        W 9738   2.778  11.958  21.676 -0.0732 -0.1751  0.0487
 8875W        W 9739   1.112   8.891  18.611  0.0217 -0.3525 -0.1640
 8876W        W 9740   1.282   9.773  19.184 -0.1158  0.0809 -0.2249
 8877W        W 9741   1.605  10.829  21.556  0.0615  0.1551  0.0442
 8878W        W 9742   0.537   7.893  17.891  0.0228 -0.2048 -0.0045
 8879W        W 9743   3.785   9.876  17.593 -0.2949  0.2262  0.2538
 8880W        W 9744   0.332   7.827  23.615  0.4003 -0.0005 -0.0848
 8881W        W 9745   5.767   6.852  19.666  0.1023 -0.0486  0.0442
 8882W        W 9746   0.350   8.881  19.953  0.0489 -0.0100 -0.0055
 8883W        W 9747   2.909  10.567  21.087  0.0442 -0.0986  0.1165
 8884W        W 9748   1.187   9.038  22.865 -0.2541  0.1391 -0.1284
 8885W        W 9749  28.646  11.088  22.158  0.0448  0.0175 -0.0706
 8886W        W 9750   2.631   8.998  21.618 -0.3262  0.2378  0.2238
 8887W        W 9751   1.727   7.435  18.561 -0.0518 -0.0444 -0.1270
 8888W        W 9752   0.998  11.340  21.761 -0.1727  0.1805  0.1314
 8889W        W 9753  28.975   8.637  17.745 -0.2548  0.3097 -0.4102
 8890W        W 9754  27.503  10.303  23.944  0.1761 -0.1650 -0.8162
 8891W        W 9755   1.308   9.276  20.342 -0.0037 -0.0373 -0.1096
 8892W        W 9756   0.881   9.992  19.534 -0.0075  0.3622  0.3162
 8893W        W 9757   2.887  10.655  17.541 -0.1250 -0.1364  0.1729
 8894W        W 9758  27.912  12.475  23.302  0.0177 -0.1446  0.0768
 8895W        W 9759   0.600   8.558  16.370 -0.0126 -0.0796  0.0957
 8896W        W 9760   0.581   7.476  18.841  0.0305  0.0004 -0.0732
 8897W        W 9761   2.255  12.709  21.421  0.1742  0.1046  0.2993
 8898W        W 9762  28.598  10.644  22.455 -0.0413 -0.1551  0.2073
 8899W        W 9763   3.932   8.724  20.581 -0.2275 -0.0090 -0.0018
 8900W        W 9764   2.882   9.789  16.525  0.2381  0.2448  0.0440
 8901W        W 9765   3.656   8.361  17.736  0.0712 -0.0865  0.0867
 8902W        W 9766   4.043   9.518  18.024 -0.0714  0.0116  0.0055
 8903W        W 9767   1.923   8.288  18.824  0.0674  0.0894 -0.0162
 8904W        W 9768   1.257   7.894  19.490 -0.1592  0.1112 -0.2246
 8905W        W 9769   2.396  12.028  18.696 -0.0416 -0.0917  0.1807
 8906W        W 9770   4.599   9.105  18.326 -0.1451 -0.1498  0.0181
 8907W        W 9771   3.095   8.811  19.004  0.0497  0.0335 -0.1152
 8908W        W 9772   4.575  10.954  19.880 -0.1064 -0.0981 -0.1231
 8909W        W 9773   2.536   8.108  20.665 -0.0269 -0.3561 -0.0687
 8910W        W 9774   1.046  11.797  19.557 -0.2909  0.1066  0.1334
 8911W        W 9775   0.267  10.576  18.162 -0.0850  0.1749 -0.0803
 8912W        W 9776   1.137   5.610  22.588  0.1925 -0.0869  0.0629
 8913W        W 9777   2.165  10.023  21.489  0.2567 -0.0425  0.3020
 8914W        W 9778   2.920  10.541  20.611 -0.1219  0.0404 -0.0158
 8915W        W 9779   2.605   8.169  17.324  0.0841 -0.1279  0.1415
 8916W        W 9780  28.411  10.756  21.605 -0.2055  0.1245 -0.1269
 8917W        W 9781   2.253  11.313  23.500  0.2795 -0.2761 -0.2228
 8918W        W 9782   2.326   7.300  20.244  0.1643  0.2807 -0.1568
 8919W        W 9783   2.847   7.683  20.761  0.1673  0.2105 -0.1446
 8920W        W 9784  28.559  10.619  20.634  0.0416 -0.1012  0.0658
 8921W        W 9785   1.313   8.010  18.389  0.0343 -0.0984  0.3233
 8922W        W 9786   3.445  10.373  22.220 -0.2031  0.1688  0.1127
 8923W        W 9787   0.698  10.572  19.091  0.1586 -0.1939 -0.3302
 8924W        W 9788   2.034  11.118  21.455 -0.1836  0.0687 -0.0359
 8925W        W 9789   2.482  11.861  21.100 -0.1428  0.2682 -0.2087
 8926W        W 9790   2.459  12.556  24.961  0.0609  0.0784  0.1862
 8927W        W 9791   0.077  11.874  19.152  0.0701 -0.2628  0.1450
 8928W        W 9792   2.543   9.135  17.550 -0.0237  0.0820  0.1271
 8929W        W 9793   2.534   9.091  18.855 -0.2839 -0.0131  0.0901
 8930W        W 9794   0.024   7.977  19.288 -0.0365  0.3175 -0.2117
 8931W        W 9795   1.580  11.665  19.794 -0.3948 -0.0337 -0.2397
 8932W        W 9796   3.740  10.232  17.184  0.4163  0.1265  0.2114
 8933W        W 9797  28.629  11.520  19.953  0.3804 -0.0515 -0.0720
 8934W        W 9798   3.079  12.128  23.634  0.3297  0.0400 -0.0715
 8935W        W 9799  25.735   7.591  17.410  0.1298 -0.2145  0.2732
 8936W        W 9800   1.293  10.896  21.956 -0.2179  0.0111 -0.4076
 8937W        W 9801   1.013   6.849  17.578 -0.1979 -0.0469  0.0863
 8938W        W 9802  28.510  10.960  19.978 -0.3866 -0.0160 -0.0065
 8939W        W 9803   0.293   6.359  18.114  0.1300 -0.0371  0.3567
 8940W        W 9804   0.960   9.062  17.634 -0.2235 -0.1388  0.2778
 8941W        W 9805   0.988   7.239  19.056 -0.0109  0.2345  0.3211
 8942W        W 9806   5.784   7.423  17.918  0.3320  0.2197  0.0786
 8943W        W 9807   3.839  11.410  23.216 -0.1237 -0.0059 -0.1335
 8944W        W 9808   2.928  12.964  23.418  0.1649 -0.1764 -0.2219
 8945W        W 9809   1.531  12.536  19.782 -0.0122  0.2053 -0.0426
 8946W        W 9810   2.897   7.077  22.978 -0.0685  0.2886  0.2687
 8947W        W 9811  27.594  12.361  21.062  0.1186 -0.0863 -0.0405
 8948W        W 9812   5.534  10.703  22.516  0.1140 -0.1851 -0.2403
 8949W        W 9813   2.599   8.390  22.252 -0.0391 -0.1648 -0.1056
 8950W        W 9814   2.357   6.257  17.090  0.1800  0.0457  0.2731
 8951W        W 9815   1.824  10.776  20.147  0.1043  0.1370  0.0039
 8952W        W 9816   0.477   9.127  21.598  0.0224 -0.1947  0.1322
 8953W        W 9817   1.618   8.479  20.677  0.0296 -0.4624 -0.1966
 8954W        W 9818   1.699   8.354  18.275 -0.2019 -0.2007  0.2525
 8955W        W 9819   3.007   9.321  17.757 -0.1616 -0.2796 -0.2461
 8956W        W 9820  27.948  10.839  19.932 -0.0183  0.1344  0.2252
 8957W        W 9821  28.352   8.837  18.749 -0.3659  0.0795 -0.0948
 8958W        W 9822   1.897   9.029  18.984 -0.1228 -0.0850  0.2554
 8959W        W 9823   0.386  10.842  22.165 -0.0968 -0.1777 -0.0255
 8960W        W 9824  28.214   8.478  22.582  0.0751  0.1028 -0.1450
 8961W        W 9825   3.767   7.339  20.496 -0.0520 -0.0961  0.0379
 8962W        W 9826   2.138   8.495  17.234  0.0206  0.1035 -0.0047
 8963W        W 9827   4.390   8.575  20.225 -0.2005  0.4160 -0.1454
 8964W        W 9828   0.071  13.260  20.090  0.0594 -0.0972 -0.2415
 8965W        W 9829   2.113  12.752  19.748 -0.1695 -0.1232  0.0867
 8966W        W 9830   2.919   7.419  18.695 -0.2327  0.4350  0.0489
 8967W        W 9831  28.485  13.355  21.886 -0.4027 -0.3656 -0.2068
 8968W        W 9832   1.114   8.554  22.219  0.0236  0.2041  0.4974
 8969W        W 9833  28.473   6.318  20.824 -0.0447  0.3640  0.0758
 8970W        W 9834  28.739   6.706  17.619  0.2235  0.0028  0.0554
 8971W        W 9835   2.068   9.430  17.551 -0.1386  0.0777 -0.2041
 8972W        W 9836   2.917  10.169  19.119 -0.0788  0.1218  0.0439
 8973W        W 9837   1.631   9.497  18.867 -0.1577 -0.1097 -0.1856
 8974W        W 9838   5.156   6.941  19.702 -0.3071 -0.0917 -0.1042
 8975W        W 9839   2.582  10.528  21.831  0.0859 -0.1212  0.1300
 8976W        W 9840   3.417   9.899  20.021 -0.2633 -0.0313 -0.1859
 8977W        W 9841   3.468   9.490  17.742 -0.1516 -0.0296 -0.2617
 8978W        W 9842   3.265   7.402  20.804 -0.0919  0.0628 -0.2501
 8979W        W 9843   0.847   7.142  18.610  0.0663  0.1125 -0.0416
 8980W        W 9844   4.244   8.406  20.822  0.1203 -0.1114  0.0611
 8981W        W 9845   2.018  10.172  17.541 -0.2118 -0.1050  0.2402
 8982W        W 9846   3.842   7.747  17.859  0.0802  0.1918 -0.0146
 8983W        W 9847   1.064   8.633  17.291  0.0454  0.3209  0.2951
 8984W        W 9848   2.567   9.021  19.489  0.3061  0.1640  0.1470
 8985W        W 9849   2.708  10.613  18.965 -0.0581 -0.2257  0.2011
 8986W        W 9850   1.951   8.958  22.239 -0.4117 -0.1705  0.1947
 8987W        W 9851   1.664  12.261  20.799  0.4257  0.0646  0.0340
 8988W        W 9852   2.037  11.080  20.803 -0.0469 -0.0065 -0.2540
 8989W        W 9853   3.614   9.000  20.846  0.3407 -0.1519 -0.1138
 8990W        W 9854   1.306   8.457  19.420  0.0225 -0.1659  0.1548
 8991W        W 9855   2.901   8.739  18.503 -0.1442 -0.0329  0.0722
 8992W        W 9856  28.652  11.114  16.468  0.0696  0.3627 -0.1063
 8993W        W 9857  27.829   8.339  20.470 -0.1124 -0.1309  0.0080
 8994W        W 9858   5.485  10.199  22.386  0.1052 -0.0512 -0.0490
 8995W        W 9859   3.187  11.615  21.903  0.0133  0.2278  0.1936
 8996W        W 9860   2.442  10.440  21.333  0.1038 -0.2056 -0.1429
 8997W        W 9861   2.034  10.225  19.391  0.0763 -0.0172 -0.0621
 8998W        W 9862  27.264   9.665  20.691  0.2642 -0.1923  0.0038
 8999W        W 9863   0.190  12.743  20.137  0.0092 -0.0082 -0.0376
 9000W        W 9864   3.343  10.781  20.272  0.0110  0.0197 -0.2039
 9001W        W 9865   4.146  10.331  21.570  0.2089 -0.1353 -0.0567
 9002W        W 9866  28.204  10.996  20.399  0.1841 -0.1175  0.2551
 9003W        W 9867   3.522   9.376  18.718 -0.0909  0.0468 -0.0810
 9004W        W 9868   1.761   9.694  18.435  0.3517  0.0096  0.3257
 9005W        W 9869   1.424  13.314  20.481 -0.1715 -0.6001 -0.1338
 9006W        W 9870   1.021   9.546  22.759 -0.1275  0.0265 -0.0898
 9007W        W 9871   1.395  11.442  18.047 -0.3090 -0.0891 -0.4235
 9008W        W 9872   4.614   9.114  21.525  0.0314  0.0317 -0.0663
 9009W        W 9873   2.495   9.575  19.521 -0.1953  0.1869 -0.2254
 9010W        W 9874  28.860   9.181  16.593 -0.0841  0.2688 -0.0308
 9011W        W 9875  27.487   8.824  25.816 -0.0511 -0.3761  0.3067
 9012W        W 9876   2.047  12.472  25.890 -0.1582 -0.1357 -0.0067
 9013W        W 9877   2.772  11.590  24.479 -0.0126  0.0541 -0.0635
 9014W        W 9878   5.084  10.512  22.475  0.3043 -0.0922  0.2346
 9015W        W 9879   4.321   9.624  21.964  0.0817 -0.2610 -0.1852
 9016W        W 9880   0.128   7.462  23.356 -0.1787 -0.1407 -0.1451
 9017W        W 9881   2.015   9.663  26.019 -0.0810  0.0077  0.1067
 9018W        W 9882   0.019   8.957  23.475  0.1828  0.0399  0.0206
 9019W        W 9883   4.524  12.113  25.778  0.0729  0.2164 -0.2679
 9020W        W 9884  28.732   9.026  23.981 -0.2485 -0.0022 -0.0875
 9021W        W 9885   0.589   8.143  24.812  0.1256  0.2652  0.2718
 9022W        W 9886   0.580   8.896  24.156  0.1095 -0.1781 -0.2145
 9023W        W 9887   1.135   9.978  23.273  0.0200 -0.0935 -0.1707
 9024W        W 9888   1.174   9.118  25.405  0.3283  0.0022 -0.2955
 9025W        W 9889  28.485  10.917  27.053  0.1433  0.4228  0.0794
 9026W        W 9890  27.995   9.577  27.669  0.0718 -0.0988  0.1406
 9027W        W 9891   1.320  10.773  22.451  0.1119 -0.0608 -0.0663
 9028W        W 9892  28.239   8.498  24.838 -0.0518 -0.0421  0.0065
 9029W        W 9893  28.975   9.237  25.783 -0.0536  0.4088 -0.0340
 9030W        W 9894   3.352   7.802  23.652 -0.0140 -0.0874 -0.2249
 9031W        W 9895   3.585  10.666  25.406  0.0017 -0.2125  0.1084
 9032W        W 9896   2.531  10.240  22.943 -0.0578 -0.1273 -0.1925
 9033W        W 9897   3.511  10.921  24.939 -0.0448  0.3836  0.1979
 9034W        W 9898   4.636  13.140  24.922  0.3850 -0.3131 -0.1150
 9035W        W 9899  28.913   7.500  25.517 -0.0223 -0.3703 -0.2735
 9036W        W 9900  28.947   9.905  24.970  0.1212 -0.1017  0.0742
 9037W        W 9901   2.872  11.796  27.156  0.1723 -0.3658 -0.0155
 9038W        W 9902   1.424  11.235  24.349  0.3502  0.2489 -0.0989
 9039W        W 9903   2.118   9.545  25.429  0.2069 -0.1897  0.0417
 9040W        W 9904   0.009  11.781  22.359 -0.1084 -0.0760 -0.1150
 9041W        W 9905   0.566  10.691  23.471 -0.2041  0.1650  0.1178
 9042W        W 9906   2.149  10.047  23.193 -0.2184  0.1438 -0.2006
 9043W        W 9907   0.046  11.137  24.219  0.1631 -0.0517  0.2401
 9044W        W 9908   2.832   9.616  22.929 -0.0897  0.1082 -0.1536
 9045W        W 9909  28.978   8.134  24.322  0.0348 -0.0189 -0.2475
 9046W        W 9910   4.216   9.757  27.631  0.0859 -0.0176 -0.1707
 9047W        W 9911  29.035   6.477  20.796  0.1130 -0.0119  0.2945
 9048W        W 9912   0.656  10.010  21.500  0.1219 -0.1343 -0.1596
 9049W        W 9913   2.218  11.032  25.732 -0.1470  0.1911 -0.1262
 9050W        W 9914   4.766   7.890  23.811 -0.0415 -0.3377 -0.1646
 9051W        W 9915   2.444   5.684  19.495  0.3141  0.1151 -0.0803
 9052W        W 9916   6.702   8.963  22.864 -0.4890  0.0882  0.1895
 9053W        W 9917   1.582  12.486  24.454 -0.1390  0.0121 -0.4660
 9054W        W 9918   3.284   8.739  25.384 -0.1645  0.1834  0.1869
 9055W        W 9919  29.035  13.243  21.521 -0.1335  0.1541 -0.0418
 9056W        W 9920   0.415  13.812  24.751  0.1800  0.1511 -0.3400
 9057W        W 9921   0.148   9.330  28.199 -0.0684 -0.1053 -0.2012
 9058W        W 9922   5.419   8.833  22.707 -0.0780  0.1823  0.1140
 9059W        W 9923   3.160  10.788  22.389 -0.0729 -0.0324 -0.0374
 9060W        W 9924   4.154  10.024  22.922  0.0057  0.2204 -0.0959
 9061W        W 9925  28.334   9.970  23.565 -0.0120 -0.1010 -0.2108
 9062W        W 9926  28.210  11.379  22.255  0.1393  0.0250 -0.2333
 9063W        W 9927   2.974  13.040  23.961  0.3302  0.2308 -0.2128
 9064W        W 9928   2.040   7.932  24.657 -0.0850  0.2652  0.2305
 9065W        W 9929   0.916   8.567  22.688 -0.2690  0.0247  0.1199
 9066W        W 9930   0.324   9.961  24.908 -0.0919  0.1921 -0.0527
 9067W        W 9931   0.504   9.983  21.985  0.1181 -0.3559 -0.1373
 9068W        W 9932   2.061   9.005  23.621  0.1697  0.1206 -0.1982
 9069W        W 9933   0.229  10.801  25.282 -0.2019  0.1241  0.1262
 9070W        W 9934   2.274  12.057  21.900 -0.2746  0.0604  0.1493
 9071W        W 9935   3.287   9.129  23.730 -0.0136 -0.3777 -0.1143
 9072W        W 9936  27.968  11.796  27.503 -0.0471  0.0955 -0.2753
 9073W        W 9937   1.086  10.525  24.981 -0.2838 -0.0119  0.2417
 9074W        W 9938   2.250  11.648  23.035 -0.0586 -0.3742  0.0224
 9075W        W 9939   2.368   5.870  22.740  0.0788 -0.0552  0.0983
 9076W        W 9940   2.581   6.664  22.194  0.1638 -0.0148  0.3460
 9077W        W 9941   0.337  10.143  22.617  0.1324 -0.1287  0.0863
 9078W        W 9942  28.319   9.921  25.530 -0.1816  0.2100  0.2381
 9079W        W 9943   1.679   9.524  23.834 -0.0244 -0.2164 -0.0982
 9080W        W 9944   0.507   8.830  22.822 -0.1967 -0.1751  0.1286
 9081W        W 9945   3.340  12.617  25.497  0.1003 -0.1992  0.1512
 9082W        W 9946   1.793   7.878  18.391  0.0670 -0.0812  0.0365
 9083W        W 9947   1.121  12.937  25.882  0.0942  0.0546 -0.1072
 9084W        W 9948   4.408  10.474  23.066 -0.0961 -0.2347  0.3933
 9085W        W 9949  28.850  10.810  25.395 -0.2252  0.0494  0.1758
 9086W        W 9950   3.248  11.894  26.767 -0.0822 -0.0964 -0.2231
 9087W        W 9951   1.475   9.718  22.387  0.0913 -0.2048  0.1118
 9088W        W 9952   3.078  10.178  24.482  0.0084 -0.1635 -0.1165
 9089W        W 9953   4.516  10.375  22.452  0.1832 -0.2075  0.0575
 9090W        W 9954   1.183  12.621  24.038 -0.2054 -0.3095 -0.0315
 9091W        W 9955  28.503  11.661  27.531  0.1971 -0.1078 -0.2883
 9092W        W 9956   0.499  10.434  26.529  0.0765  0.1046 -0.1349
 9093W        W 9957  28.965   8.612  23.102  0.2024  0.2885 -0.0952
 9094W        W 9958   1.621   9.308  22.745  0.2731  0.4442  0.1234
 9095W        W 9959   2.132   7.488  24.417  0.0068 -0.1447  0.2128
 9096W        W 9960   2.125   8.508  23.773  0.1262 -0.1692 -0.2927
 9097W        W 9961   4.021  12.854  24.266  0.1951 -0.0316 -0.1978
 9098W        W 9962   0.386   8.679  27.550 -0.2690 -0.2419 -0.0795
 9099W        W 9963   4.691  10.205  26.233 -0.2056 -0.0008  0.1252
 9100W        W 9964   3.131   8.972  24.593  0.1083 -0.1441  0.0347
 9101W        W 9965   2.657   8.842  24.490  0.0067  0.0471 -0.0812
 9102W        W 9966   4.538  13.641  25.104  0.0490  0.0502  0.0510
 9103W        W 9967  28.713  14.129  24.192  0.0628  0.1135 -0.2424
 9104W        W 9968   3.064   9.456  23.431 -0.0141 -0.1764  0.0207
 9105W        W 9969   0.899   9.223  25.865  0.1493  0.0050 -0.0603
 9106W        W 9970   4.611   6.645  22.629  0.1572 -0.0711 -0.2454
 9107W        W 9971   3.694  10.931  22.979 -0.0997  0.0209  0.0214
 9108W        W 9972   4.493  13.024  24.457  0.0888 -0.0898 -0.3553
 9109W        W 9973   0.239   6.717  22.716  0.0637  0.2107 -0.0276
 9110W        W 9974   1.580   8.963  20.707 -0.0827  0.3520 -0.0296
 9111W        W 9975   4.218   8.059  22.921  0.3250  0.1895  0.2221
 9112W        W 9976  28.097   9.996  26.419 -0.1704  0.1237 -0.2998
 9113W        W 9977   3.986   8.899  22.708  0.1855  0.0648  0.4008
 9114W        W 9978   5.036   9.212  24.013 -0.0795  0.0091 -0.0089
 9115W        W 9979   2.478   8.228  23.986 -0.0917 -0.2852  0.0017
 9116W        W 9980   3.151   8.209  23.962  0.1360  0.1738 -0.1686
 9117W        W 9981   4.026   9.866  21.652  0.0078  0.4298 -0.0481
 9118W        W 9982   1.810  12.037  24.601  0.1256 -0.4123  0.0145
 9119W        W 9983   2.143   6.490  23.774  0.1215 -0.0719 -0.2394
 9120W        W 9984  28.730   8.493  21.407 -0.1559  0.0015  0.1912
 9121W        W 9985   0.942  11.541  28.632  0.0348  0.1511  0.1964
 9122W        W 9986   3.297  12.589  22.718  0.1974 -0.1607  0.0078
 9123W        W 9987   4.422   8.337  24.635 -0.3500 -0.0353 -0.0948
 9124W        W 9988   2.873  12.836  25.693  0.0206  0.2504 -0.1026
 9125W        W 9989   3.321   9.719  22.984  0.3320  0.1254  0.0971
 9126W        W 9990   0.475   9.258  22.075  0.0232 -0.0991 -0.2046
 9127W        W 9991   2.734   4.047  22.125 -0.0908 -0.0158  0.1307
 9128W        W 9992   3.420   8.254  25.035  0.3411  0.1450  0.1272
 9129W        W 9993   3.476   5.378  23.438 -0.3605 -0.1969  0.0533
 9130W        W 9994   2.987  11.087  21.173  0.3087 -0.0939 -0.2659
 9131W        W 9995   2.400  10.594  20.384 -0.3301  0.2372  0.1166
 9132W        W 9996   3.721  11.528  23.720 -0.1348 -0.2491 -0.3196
 9133W        W 9997   3.711   8.972  25.306 -0.3437  0.0343 -0.0830
 9134W        W 9998   3.443  11.427  26.618 -0.1966  0.0687  0.0512
 9135W        W 9999   0.280  10.627  22.611  0.1554  0.2742 -0.1974
 9136W        W10000   3.344  11.338  23.226  0.1545 -0.1907  0.3977
 9137W        W10001   2.313   9.145  25.015 -0.0972  0.2227 -0.1715
 9138W        W10002   6.563  12.323  23.646  0.1063  0.1300 -0.0119
 9139W        W10003   2.580  10.654  24.589  0.1808 -0.0853  0.3286
 9140W        W10004   1.412  10.006  24.178  0.3703  0.0639 -0.1544
 9141W        W10005   1.535   8.113  24.443 -0.1051 -0.4572 -0.1483
 9142W        W10006  28.423   9.482  23.803 -0.2566  0.1936  0.2446
 9143W        W10007   3.964  13.602  22.562 -0.0391 -0.0502 -0.1875
 9144W        W10008  28.768   9.723  20.675 -0.0340  0.0098 -0.1730
 9145W        W10009   3.043  11.092  25.894 -0.0547 -0.2173  0.2301
 9146W        W10010  28.771   7.871  24.772  0.0678  0.2050 -0.0273
 9147W        W10011   1.336   9.528  23.134 -0.0776 -0.0562 -0.0524
 9148W        W10012   3.486   8.265  25.552 -0.0974 -0.0214  0.1618
 9149W        W10013   0.356  11.218  24.669 -0.0033 -0.0637  0.3969
 9150W        W10014   2.222  12.740  22.725  0.1721 -0.1876  0.1659
 9151W        W10015   1.288   8.874  19.103  0.2563  0.0017 -0.1065
 9152W        W10016  28.273   9.759  24.413 -0.4676 -0.2662  0.0805
 9153W        W10017   0.301  13.183  22.508 -0.2286 -0.3123 -0.2594
 9154W        W10018   1.552  10.361  21.749  0.1295 -0.2091 -0.3063
 9155W        W10019   1.381  11.459  25.913  0.0076 -0.2415  0.0885
 9156W        W10020   0.210   8.008  21.069  0.1615  0.3177  0.2880
 9157W        W10021   3.476   8.637  21.162 -0.2546  0.3731  0.1064
 9158W        W10022   2.324  13.034  24.863  0.2267  0.1835 -0.2040
 9159W        W10023   0.616  14.317  21.892  0.0213  0.0310  0.0911
 9160W        W10024   0.129   8.657  24.221  0.0323 -0.1268  0.0919
 9161W        W10025   0.713   9.240  23.748 -0.0641  0.2466 -0.1368
 9162W        W10026   1.637   8.591  23.643  0.3886 -0.1699 -0.2600
 9163W        W10027   2.500  11.519  25.465 -0.1184  0.0535  0.1921
 9164W        W10028   2.105   7.894  23.064  0.0971 -0.1312 -0.2452
 9165W        W10029  29.023   9.115  24.945  0.0170 -0.0882 -0.3556
 9166W        W10030   1.866   6.247  25.018 -0.1724  0.0845 -0.2017
 9167W        W10031  28.260   8.031  26.510 -0.3798 -0.1597  0.1576
 9168W        W10032   1.980   9.603  21.675 -0.1511 -0.0429 -0.1444
 9169W        W10033   1.224   7.193  21.279 -0.0972 -0.0479  0.0601
 9170W        W10034   2.869   6.998  23.880 -0.2340 -0.0906  0.2906
 9171W        W10035   3.114   9.019  26.000  0.0366  0.2727 -0.0837
 9172W        W10036   1.481  11.116  23.874 -0.0912  0.0152 -0.1181
 9173W        W10037   1.642  10.700  25.078  0.0549 -0.0447 -0.1814
 9174W        W10038   3.513  10.829  24.257 -0.5712 -0.0695 -0.0954
 9175W        W10039   0.546   7.544  24.944 -0.2844 -0.4229 -0.0716
 9176W        W10040   2.268   9.501  24.477 -0.0439  0.2549  0.0825
 9177W        W10041   0.093  11.490  23.830  0.1639  0.0022  0.2210
 9178W        W10042   1.038  10.396  23.512 -0.1402 -0.3508 -0.0144
 9179W        W10043   1.863  11.012  24.663 -0.0058  0.0421 -0.1631
 9180W        W10044   2.002  10.250  22.751  0.1636  0.0384  0.1927
 9181W        W10045   3.604   9.885  24.262 -0.1153 -0.4011  0.0208
 9182W        W10046   3.881  10.129  24.781  0.0960 -0.0517 -0.0730
 9183W        W10047   3.569  10.127  22.980  0.2270  0.0050  0.0708
 9184W        W10048   3.257  12.144  25.646 -0.2470  0.3117  0.1006
 9185W        W10049   1.855  11.416  22.715 -0.1848  0.2838 -0.1944
 9186W        W10050   2.005  10.606  21.623 -0.1309  0.1352 -0.1366
 9187W        W10051   2.491  10.337  23.447  0.1442 -0.1317  0.0444
 9188W        W10052   2.049  11.325  27.713  0.1694  0.0338 -0.2206
 9189W        W10053   2.337  10.472  23.929  0.1387 -0.0262  0.2437
 9190W        W10054   3.440  11.131  25.522  0.0733  0.2710  0.0782
 9191W        W10055   3.081  11.613  21.288 -0.0993 -0.0890  0.2147
 9192W        W10056   1.885   8.789  24.136  0.0959 -0.0076  0.0413
 9193W        W10057   1.899  10.730  19.343  0.1137 -0.1748 -0.1907
 9194W        W10058   0.147   9.477  21.308 -0.1545  0.3944  0.0218
 9195W        W10059   3.454   8.148  20.270  0.1163 -0.1429  0.1298
 9196W        W10060   3.597  10.538  27.151  0.0956  0.0004  0.0505
 9197W        W10061   1.019   8.902  19.540  0.3730  0.3162 -0.3649
 9198W        W10062   3.519   9.875  22.365 -0.1917  0.2350 -0.2210
 9199W        W10063   0.409  10.825  24.382 -0.1326 -0.3529 -0.0123
 9200W        W10064  29.036  10.144  24.106  0.3207 -0.0622 -0.2501
 9201W        W10065   1.083  10.504  21.713  0.4152 -0.3492 -0.1223
 9202W        W10066  28.806  10.813  22.994 -0.0389 -0.2343  0.1036
 9203W        W10067   0.680   8.850  26.079 -0.2427 -0.3708  0.0395
 9204W        W10068   0.475   9.039  23.294  0.0023 -0.1266  0.1426
 9205W        W10069  28.850   7.902  26.233  0.1656 -0.1746 -0.1018
 9206W        W10070  29.011  10.742  22.114 -0.2716  0.0834  0.1013
 9207W        W10071   1.781   8.586  21.653  0.0788  0.2483  0.0248
 9208W        W10072  28.902   8.688  25.738 -0.1259 -0.0052 -0.1968
 9209W        W10073  29.038  10.847  25.938 -0.0031 -0.0378  0.0422
 9210W        W10074   2.244  10.979  23.877  0.2396 -0.2634 -0.2745
 9211W        W10075   2.752  10.696  23.160 -0.0404  0.0766  0.3337
 9212W        W10076   3.873   9.079  26.132 -0.2044 -0.0948 -0.0077
 9213W        W10077   2.147   6.730  24.904  0.0774  0.0120 -0.2633
 9214W        W10078   0.750   4.323  23.105  0.2930 -0.0509  0.1333
 9215W        W10079   0.396   6.495  23.532 -0.1045  0.1228  0.1472
 9216W        W10080  28.911   8.547  21.957  0.1522  0.4965  0.0776
 9217W        W10081  28.430  10.065  24.830  0.1419  0.1184  0.3648
 9218W        W10082   1.221   8.262  22.879 -0.1219 -0.0651 -0.0742
 9219W        W10083   2.896  13.081  21.895  0.0413 -0.1507  0.2204
 9220W        W10084   1.446   8.099  21.784  0.0522 -0.1429  0.3378
 9221W        W10085   0.859   9.161  26.476  0.1149  0.2027 -0.0760
 9222W        W10086   3.475  10.972  26.810  0.0786  0.1902 -0.0103
 9223W        W10087   0.706   9.917  22.938 -0.0962 -0.2075 -0.0558
 9224W        W10088   1.279   8.601  24.248 -0.4043  0.3576 -0.1911
 9225W        W10089   4.127  11.241  23.694  0.0508 -0.0694 -0.3754
 9226W        W10090   3.817   6.968  22.923  0.1432 -0.2268 -0.1235
 9227W        W10091   1.298  11.284  23.394  0.1890  0.2548  0.1400
 9228W        W10092   3.062  11.267  22.395 -0.3101  0.1524  0.3935
 9229W        W10093   1.759   9.816  25.158  0.2812 -0.1403  0.2289
 9230W        W10094  28.486   6.556  24.463  0.0783  0.0527 -0.1867
 9231W        W10095   3.179   7.959  25.814 -0.0521 -0.4253 -0.2238
 9232W        W10096   0.379   7.913  22.704  0.2082  0.1481  0.1075
 9233W        W10097   5.291  12.734  25.535 -0.0952  0.1385 -0.1140
 9234W        W10098   1.319   8.124  22.406  0.0275 -0.0905  0.0429
 9235W        W10099   1.637   9.870  21.919  0.3211 -0.1478  0.1091
 9236W        W10100   2.934   8.078  27.571 -0.1799  0.0995 -0.2468
 9237W        W10101   1.673  11.107  26.248 -0.2215  0.1039 -0.0068
 9238W        W10102   1.892   7.627  25.084 -0.6419  0.5959 -0.2044
 9239W        W10103   3.531  12.462  24.635  0.1296  0.1492 -0.0193
 9240W        W10104   3.124  10.986  23.501 -0.1153 -0.2819 -0.2164
 9241W        W10105   1.432   7.304  23.621 -0.3992 -0.0928 -0.3058
 9242W        W10106   1.128   9.331  27.291  0.2222 -0.0106 -0.0680
 9243W        W10107   0.135   6.415  21.890 -0.0381 -0.0216  0.0766
 9244W        W10108   0.823   8.680  23.226 -0.0142 -0.1821 -0.0334
 9245W        W10109  27.612   9.017  23.505  0.1710  0.2144 -0.3187
 9246W        W10110   1.773  11.460  23.699 -0.1930 -0.0669 -0.1629
 9247W        W10111   2.337  10.941  21.790  0.0032  0.1018 -0.1621
 9248W        W10112   1.687  10.004  27.180  0.1643  0.0160  0.1731
 9249W        W10113   4.728  12.204  24.622 -0.2174 -0.1301  0.2060
 9250W        W10114   2.423  12.195  22.730  0.1592 -0.0093  0.0449
 9251W        W10115   2.166  12.229  23.126  0.0584 -0.0285 -0.1075
 9252W        W10116   0.624   8.325  25.311 -0.2406  0.1945  0.1829
 9253W        W10117   3.216  10.203  23.987 -0.2766  0.0846 -0.0908
 9254W        W10118  28.401   8.366  23.315 -0.0483 -0.0901  0.2910
 9255W        W10119   3.133  11.037  24.000 -0.3361  0.3962  0.0530
 9256W        W10120  28.754   8.011  23.291 -0.2023 -0.1582 -0.1029
 9257W        W10121   2.366   9.126  25.666 -0.1197 -0.1509 -0.0666
 9258W        W10122  28.453  10.449  28.660  0.0335 -0.0487 -0.1723
 9259W        W10123   4.649  12.061  22.754 -0.2503 -0.0160  0.1599
 9260W        W10124  27.807   5.493  24.478  0.1653  0.0097  0.1657
 9261W        W10125  29.063   8.324  23.488 -0.0802  0.0796 -0.5746
 9262W        W10126   2.373  12.022  24.112 -0.1090  0.1038  0.1660
 9263W        W10127   4.270  10.930  26.659 -0.3694 -0.1365 -0.0761
 9264W        W10128   3.382   8.408  26.669 -0.3048  0.1303 -0.1317
 9265W        W10129  28.372   8.858  24.268 -0.1518 -0.1361 -0.2321
 9266W        W10130   2.293  12.062  25.041 -0.0994  0.0378 -0.0012
 9267W        W10131   4.020   9.175  23.179 -0.0317 -0.2052  0.0491
 9268W        W10132   1.572   7.747  24.055 -0.3636  0.1048  0.0894
 9269W        W10133   2.772   9.821  24.340 -0.0239 -0.1132  0.3056
 9270W        W10134   2.376  10.685  22.797 -0.1460  0.0530  0.0768
 9271W        W10135   1.500   7.843  23.000 -0.0041  0.1836 -0.0565
 9272W        W10136   2.644   9.380  25.320  0.0848  0.2218  0.0471
 9273W        W10137   4.627   6.855  23.579 -0.1653  0.1755  0.3662
 9274W        W10138   4.036   9.181  24.811 -0.3738 -0.1343  0.0637
 9275W        W10139   1.785   9.358  23.346 -0.1823 -0.0462 -0.0394
 9276W        W10140   0.343  12.187  25.788  0.0095  0.0482  0.3775
 9277W        W10141  27.842  10.517  23.600 -0.0701  0.0841  0.0519
 9278W        W10142   3.566  11.375  25.050  0.0416  0.2175 -0.1801
 9279W        W10143   0.385   8.962  24.646  0.0470  0.3328 -0.1053
 9280W        W10144   2.921   9.092  27.483 -0.0084  0.2726  0.0183
 9281W        W10145  28.922   8.526  23.924 -0.0735 -0.0958  0.1461
 9282W        W10146   5.371   5.856  24.173 -0.1318  0.1231  0.2288
 9283W        W10147   0.010  11.804  21.325  0.0298 -0.0224 -0.0234
 9284W        W10148   0.788   9.790  25.002 -0.1018  0.1179  0.4822
 9285W        W10149   0.101  10.460  25.631  0.4157 -0.2283  0.2120
 9286W        W10150   3.536   9.831  26.254  0.1149  0.0057  0.3142
 9287W        W10151   1.788  10.554  27.123 -0.1687  0.1253 -0.1652
 9288W        W10152   2.334   7.764  25.058 -0.0676 -0.0770 -0.4051
 9289W        W10153   1.342  11.635  20.867  0.0629  0.1180 -0.2808
 9290W        W10154   3.729   7.936  24.200  0.0503 -0.1438 -0.1005
 9291W        W10155   1.277  10.099  22.754 -0.0516 -0.0015  0.1850
 9292W        W10156   0.966   7.556  21.625 -0.0999 -0.1736  0.1442
 9293W        W10157   1.142   8.260  20.389  0.2307  0.3818  0.1896
 9294W        W10158   2.023  11.437  25.964 -0.0225 -0.0117  0.2520
 9295W        W10159   2.191  12.304  23.640  0.1340  0.1607  0.0774
 9296W        W10160   5.552   8.012  24.025  0.1640  0.1791 -0.1280
 9297W        W10161   2.312  13.413  21.820  0.0209  0.0108 -0.0776
 9298W        W10162  29.118   9.995  25.424  0.0909 -0.1237  0.0152
 9299W        W10163   3.237   7.823  21.674 -0.0063 -0.0156  0.3958
 9300W        W10164   1.617   8.448  22.131 -0.2974 -0.1457  0.3720
 9301W        W10165   4.915   8.876  22.781  0.0826 -0.2384  0.0511
 9302W        W10166  29.095   8.186  21.587  0.2529 -0.0101 -0.1139
 9303W        W10167   1.514  10.241  24.889 -0.2627  0.0683 -0.0138
 9304W        W10168   0.304   9.809  24.460 -0.0859  0.0281 -0.1814
 9305W        W10169   1.876  10.414  23.556 -0.3500  0.0064 -0.0131
 9306W        W10170  28.953  10.027  21.993  0.1250  0.0810  0.0502
 9307W        W10171   0.580   9.671  19.790 -0.0269 -0.0168  0.1903
 9308W        W10172   5.137  13.311  24.225  0.1371 -0.0918  0.1912
 9309W        W10173   0.671   8.148  23.501  0.1676  0.1626 -0.1187
 9310W        W10174   0.448  12.012  24.167  0.0525  0.2966  0.1693
 9311W        W10175  27.519   9.398  22.743  0.4520 -0.0067  0.1458
 9312W        W10176  28.432   7.712  24.042  0.1413 -0.1000  0.0045
 9313W        W10177   2.648  10.903  25.583  0.1897  0.1183 -0.0088
 9314W        W10178   3.776   9.364  25.676 -0.2143  0.0240 -0.1219
 9315W        W10179   2.944   8.722  22.546 -0.1008 -0.1459 -0.0155
 9316W        W10180   3.234  10.942  22.927 -0.0904 -0.0268 -0.1228
 9317W        W10181   0.992   8.625  25.607  0.0275 -0.1172 -0.0565
 9318W        W10182   0.990   8.187  19.052  0.1304  0.2627  0.0491
 9319W        W10183   2.835   6.183  22.094 -0.0423  0.1227  0.0320
 9320W        W10184  28.835   8.658  24.404  0.0430  0.2130 -0.1492
 9321W        W10185   0.727   8.136  21.117 -0.1218  0.1748 -0.3453
 9322W        W10186   1.271   9.925  23.735 -0.1518  0.1517 -0.0945
 9323W        W10187   2.795   8.418  23.707  0.4419 -0.2464 -0.3097
 9324W        W10188   3.930   7.811  23.360  0.0311  0.3252 -0.0945
 9325W        W10189  28.516  10.997  26.472 -0.1553  0.1361 -0.3873
 9326W        W10190   2.102  11.641  27.293  0.1978 -0.2724 -0.1028
 9327W        W10191   2.658  11.186  23.274 -0.0068 -0.0381  0.2723
 9328W        W10192   1.532   8.796  25.740 -0.2441 -0.0310  0.1796
 9329W        W10193   0.886  10.598  24.478  0.1182  0.1906  0.0673
 9330W        W10194  28.996  10.946  22.565 -0.0219 -0.1267 -0.0041
 9331W        W10195   3.672  11.761  27.026  0.0703 -0.0753 -0.1517
 9332W        W10196   2.180  11.139  22.309 -0.3224 -0.0367  0.0696
 9333W        W10197   0.407  13.095  25.556 -0.2889  0.2544 -0.0892
 9334W        W10198   3.737   9.792  25.198  0.0409  0.0576 -0.2828
 9335W        W10199   2.086   9.352  22.463  0.0236  0.0331  0.3419
 9336W        W10200   0.036  11.971  23.608 -0.2795 -0.2818  0.1153
 9337W        W10201   0.666   8.734  22.257  0.2168  0.3133  0.3405
 9338W        W10202  28.985  10.990  21.669  0.0589 -0.1315  0.1116
 9339W        W10203   1.470   9.404  21.130  0.3828 -0.1373  0.2655
 9340W        W10204   2.707  12.062  23.270 -0.0957  0.1852  0.3271
 9341W        W10205   0.668  12.770  26.467  0.1295 -0.0437 -0.0416
 9342W        W10206   3.107   6.820  20.745 -0.0892 -0.0529  0.1417
 9343W        W10207   1.721   8.623  24.532 -0.2708  0.1763 -0.1208
 9344W        W10208   0.689  10.713  24.027  0.2774  0.0435 -0.0692
 9345W        W10209   3.485  10.408  24.588 -0.0255  0.1105  0.0160
 9346W        W10210   3.666  13.618  26.972  0.1818  0.0601 -0.3088
 9347W        W10211   3.819  11.025  26.433  0.1556 -0.1242 -0.1737
 9348W        W10212   3.929   9.859  23.837  0.2692  0.1993  0.1379
 9349W        W10213   1.623  10.273  25.888  0.2191  0.0579 -0.1461
 9350W        W10214   2.603   9.615  22.252 -0.1960  0.0117  0.1009
 9351W        W10215   0.952  12.117  24.013  0.3068  0.0811 -0.2353
 9352W        W10216   4.324   8.556  22.843 -0.2211  0.1416  0.0542
 9353W        W10217   1.561   9.002  26.714 -0.2051  0.1711 -0.1134
 9354W        W10218   2.000  10.337  25.144 -0.2066  0.0938  0.0671
 9355W        W10219   1.486  11.296  21.431  0.1489 -0.2999 -0.0974
 9356W        W10220   4.309  13.560  24.678 -0.4891 -0.0280 -0.1791
 9357W        W10221   1.774   9.733  22.962 -0.1091 -0.0228  0.0736
 9358W        W10222   0.753   6.653  23.926 -0.0660  0.1406  0.0645
 9359W        W10223   0.618  12.634  24.288  0.2269 -0.0177  0.1269
 9360W        W10224   0.728   9.789  24.152  0.1122 -0.1588  0.0227
 9361W        W10225   1.859   8.031  25.417 -0.1161 -0.1295 -0.2290
 9362W        W10226   5.025   9.972  22.345  0.2952  0.0767  0.2013
 9363W        W10227   1.052   9.055  24.247  0.0646 -0.0647  0.2325
 9364W        W10228   0.149   9.170  22.978 -0.0648  0.2122 -0.4413
 9365W        W10229   2.600   9.695  21.610  0.2031 -0.2831  0.1806
 9366W        W10230   1.480   8.671  23.084  0.0228  0.0337 -0.0069
 9367W        W10231   3.946  13.961  24.567 -0.1717 -0.1159 -0.1703
 9368W        W10232   3.843  11.388  25.821 -0.2919  0.1449 -0.0295
 9369W        W10233   0.858   7.412  27.657  0.2418  0.2338 -0.2308
 9370W        W10234   0.824   7.240  24.424 -0.0226 -0.3206 -0.0268
 9371W        W10235   1.748  10.137  22.351 -0.0267  0.4072  0.2172
 9372W        W10236   4.209   6.694  23.233 -0.3467 -0.0100  0.4284
 9373W        W10237   2.219   8.790  21.282  0.0844 -0.0360  0.0394
 9374W        W10238   0.556   7.619  20.881 -0.1224  0.0707 -0.0470
 9375W        W10239   4.192  10.785  23.523  0.3241 -0.1302  0.2362
 9376W        W10240   1.989  10.692  26.024 -0.2260 -0.0702 -0.0208
 9377W        W10241   1.720   9.182  21.583 -0.2533  0.0854 -0.3346
 9378W        W10242   2.017  10.558  23.109  0.2232  0.3669  0.1733
 9379W        W10243   2.893   8.093  22.014  0.0908 -0.1973  0.1698
 9380W        W10244   2.902   6.721  21.198 -0.0219 -0.2855  0.1560
 9381W        W10245   2.644   9.271  22.607 -0.1271 -0.1927 -0.0272
 9382W        W10246   2.880  10.505  22.636 -0.0812  0.3382 -0.2175
 9383W        W10247  28.477   7.203  23.295 -0.3982 -0.1473  0.2053
 9384W        W10248   3.213   9.429  24.647  0.1326 -0.2093 -0.3473
 9385W        W10249   3.480  11.248  22.653  0.4142  0.4900  0.1896
 9386W        W10250  28.802   7.356  28.816  0.1848 -0.0879  0.0426
 9387W        W10251   0.036   6.506  23.186  0.0615 -0.0689  0.2128
 9388W        W10252   3.497  10.231  25.111  0.1700 -0.0333 -0.3032
 9389W        W10253   4.694   6.805  24.779 -0.0795 -0.3165 -0.2219
 9390W        W10254   1.339   9.284  24.864  0.2314 -0.1494  0.3142
 9391W        W10255   0.961  10.213  24.021 -0.3191 -0.3644  0.0990
 9392W        W10256   1.056  11.984  26.196  0.2018 -0.1717  0.3776
 9393W        W10257   0.011  10.759  24.719 -0.0231  0.1146 -0.1540
 9394W        W10258   3.267  10.858  26.397 -0.0723  0.0577 -0.0943
 9395W        W10259   3.626  11.664  25.462  0.3477  0.2796 -0.3576
 9396W        W10260   3.848  10.390  25.795  0.4546  0.3544 -0.2657
 9397W        W10261   0.937  13.554  22.999 -0.3561 -0.0392  0.1328
 9398W        W10262   2.766  11.292  23.750  0.0435  0.0428 -0.0250
 9399W        W10263   2.395  11.787  25.906 -0.1326 -0.0678 -0.0446
 9400W        W10264   5.776  12.372  22.786 -0.0696 -0.0936  0.0517
 9401W        W10265   2.738   8.850  24.979 -0.0530 -0.0414 -0.1401
 9402W        W10266  28.856  11.953  26.360  0.1944 -0.4096 -0.0224
 9403W        W10267   4.563  10.045  23.284  0.3499 -0.0111  0.2617
 9404W        W10268   1.623  11.810  22.534 -0.2106 -0.0417  0.2119
 9405W        W10269   1.242  11.783  24.431 -0.0266 -0.2042 -0.0582
 9406W        W10270   3.923  11.079  24.697 -0.1721  0.0323 -0.1862
 9407W        W10271   3.010  10.440  23.571  0.0605 -0.0364 -0.0462
 9408W        W10272   2.784  12.154  25.315 -0.0038  0.1516 -0.0739
 9409W        W10273   2.180   9.698  23.483  0.0545 -0.1304  0.3693
 9410W        W10274   1.889  11.221  24.189  0.1101 -0.2773  0.1765
 9411W        W10275  28.248   9.682  28.068  0.1391  0.3657  0.0505
 9412W        W10276   0.476  10.879  26.272 -0.0561  0.0351  0.2711
 9413W        W10277   0.972   9.449  28.466  0.0074  0.2597  0.1326
 9414W        W10278   3.990  11.325  26.818 -0.1713 -0.0794  0.0794
 9415W        W10279   2.999  13.160  26.725  0.0302 -0.1837  0.0057
 9416W        W10280   1.587   6.830  25.719  0.1479 -0.4116  0.1493
 9417W        W10281   1.166   6.470  26.256 -0.0309  0.1659  0.0066
 9418W        W10282   1.808   8.959  24.878 -0.1640  0.5538  0.0507
 9419W        W10283   1.979  10.840   1.263 -0.1652  0.0582  0.0007
 9420W        W10284  28.075   8.168  29.076  0.0457 -0.0242 -0.0643
 9421W        W10285   3.367   5.451  26.490 -0.1671 -0.0913  0.2345
 9422W        W10286   1.969   8.596   0.757  0.1623  0.2793 -0.0413
 9423W        W10287   3.713   7.650  24.688 -0.0297 -0.2609  0.2196
 9424W        W10288  28.910   8.138  29.056 -0.1186  0.1566  0.0300
 9425W        W10289   0.704   9.713  26.447  0.1647 -0.3291 -0.1043
 9426W        W10290   0.472   9.533  28.608 -0.0693 -0.1705 -0.2571
 9427W        W10291   2.752  11.325  28.401 -0.0463 -0.2765 -0.0572
 9428W        W10292  27.531   7.639  25.442  0.3130 -0.2880 -0.4877
 9429W        W10293   0.278   7.167   1.013  0.3998  0.1578  0.2479
 9430W        W10294   2.973  10.956  26.842  0.0358 -0.1378  0.0218
 9431W        W10295   4.646   8.740  25.181  0.0269  0.0368  0.1380
 9432W        W10296   3.102  10.698  27.270 -0.3798 -0.0708 -0.0615
 9433W        W10297   1.624  11.831  27.462 -0.0789 -0.3380  0.0390
 9434W        W10298   2.038   9.965   1.908  0.1173 -0.1294 -0.0058
 9435W        W10299   1.031   6.272  25.741 -0.1600 -0.0295  0.0138
 9436W        W10300   1.108   9.815  28.894 -0.1546  0.1232 -0.0206
 9437W        W10301   3.134   7.332  28.884  0.4414  0.0420  0.1095
 9438W        W10302   0.740  12.068  27.548 -0.1629 -0.1649 -0.2296
 9439W        W10303   0.357  11.412  28.638  0.1402 -0.0190 -0.1459
 9440W        W10304   2.058   9.376  28.551  0.2391 -0.0350 -0.0473
 9441W        W10305   0.975   9.569  25.517  0.0714 -0.1112 -0.0958
 9442W        W10306   0.939   9.779   0.649  0.0954  0.1454  0.0114
 9443W        W10307   0.821   7.325   1.209  0.0888 -0.3378 -0.0420
 9444W        W10308   0.203   8.838   1.522  0.1835  0.1372 -0.0201
 9445W        W10309   0.678   9.069  28.813  0.0139 -0.0358  0.0378
 9446W        W10310   1.842  10.894  27.848 -0.2787 -0.0623 -0.0294
 9447W        W10311   0.860   7.861  26.147  0.1480  0.1319  0.0069
 9448W        W10312   1.907  11.513  28.280  0.0156 -0.0823  0.0081
 9449W        W10313   4.504  12.339  26.743 -0.0185 -0.1888  0.2311
 9450W        W10314   3.455   6.910  26.697 -0.0017 -0.0493 -0.1326
 9451W        W10315   1.607   9.329  27.147 -0.3070  0.1234  0.1249
 9452W        W10316   3.790  12.159  27.305 -0.0080 -0.0437 -0.0514
 9453W        W10317   3.331  10.212  28.979 -0.0269 -0.2212 -0.0572
 9454W        W10318   1.370  10.071  27.882  0.1708  0.2139  0.0977
 9455W        W10319   0.445  10.289  25.246 -0.2051 -0.2153 -0.0763
 9456W        W10320   2.255  11.097  26.248  0.2416 -0.1664 -0.1469
 9457W        W10321   0.483   9.231   0.215  0.0765 -0.2198  0.0367
 9458W        W10322   3.959  11.529  26.319  0.1042 -0.0516  0.0196
 9459W        W10323   1.258   9.871  26.510  0.1308  0.0398  0.1569
 9460W        W10324   4.348   6.633  25.405  0.1175  0.0683 -0.0983
 9461W        W10325   0.603  11.300  29.120 -0.1153 -0.0681 -0.0628
 9462W        W10326   2.041   9.238  26.924 -0.1088  0.1054  0.2191
 9463W        W10327   3.815   9.602  26.671 -0.0245  0.0380  0.1758
 9464W        W10328   2.953  12.460  24.775 -0.1918  0.0068 -0.1073
 9465W        W10329   3.642   7.493  23.925 -0.2544  0.0677 -0.0259
 9466W        W10330   5.222  11.973  26.516  0.1060  0.0303  0.1161
 9467W        W10331   0.260   7.483  28.486  0.2209 -0.0302 -0.0795
 9468W        W10332   2.790  10.471  26.992  0.0173  0.1239 -0.1005
 9469W        W10333   0.333   9.772  27.739  0.1539 -0.0799  0.2063
 9470W        W10334   0.753  10.644  25.396 -0.2071  0.0188 -0.2285
 9471W        W10335   5.147   6.621  25.501  0.1094  0.3027  0.0588
 9472W        W10336   3.836  11.150   1.236 -0.0509 -0.0381 -0.0929
 9473W        W10337  28.847  10.234   0.300 -0.1104 -0.0821  0.1610
 9474W        W10338   0.657   9.438  27.435 -0.2881 -0.2790 -0.0777
 9475W        W10339   2.890   8.374  28.056  0.0175 -0.0135 -0.0290
 9476W        W10340   3.556   8.869  25.794 -0.0250  0.0325 -0.4078
 9477W        W10341   0.411  11.814  26.181  0.4490  0.0233 -0.2538
 9478W        W10342   0.847   7.529  25.778 -0.0812  0.0835 -0.1822
 9479W        W10343   1.639   9.034  28.649  0.0973 -0.0204  0.0832
 9480W        W10344   0.752  10.180  28.114 -0.2766 -0.2775 -0.1155
 9481W        W10345   5.147  11.577  28.920  0.3477  0.0160 -0.1918
 9482W        W10346   2.750   9.119  26.377  0.1403  0.1894 -0.3490
 9483W        W10347   5.059  11.035  26.273 -0.3408  0.1227  0.4333
 9484W        W10348   1.090   9.814  28.193  0.1432  0.1936  0.2478
 9485W        W10349   7.201  10.474  27.110 -0.0203 -0.1263 -0.0988
 9486W        W10350   1.621   9.001   0.768 -0.2388  0.0987  0.0447
 9487W        W10351  27.824   8.449  27.138 -0.0360 -0.3826 -0.0982
 9488W        W10352   1.201   9.885  25.869  0.0269 -0.3201  0.0683
 9489W        W10353   1.824   9.042  26.265  0.1486 -0.0970  0.2641
 9490W        W10354   4.665  12.187  25.298 -0.2234  0.0386  0.1166
 9491W        W10355   0.753  11.093   0.388  0.3554  0.1757 -0.0872
 9492W        W10356  25.916   9.485   0.714 -0.0681 -0.2014 -0.3758
 9493W        W10357   1.383   9.771  27.437 -0.0124  0.2167  0.1479
 9494W        W10358  28.996   8.505   0.186 -0.1647 -0.3397  0.1107
 9495W        W10359   2.091   8.262  28.603 -0.3553  0.0447  0.0562
 9496W        W10360   1.524   9.053  24.000 -0.0751  0.3236  0.0473
 9497W        W10361   4.399  10.728   0.131 -0.1683  0.2372 -0.2170
 9498W        W10362   2.735   6.821  26.349  0.0569 -0.1800  0.3836
 9499W        W10363   1.609   8.475  28.681 -0.1574  0.2174 -0.1281
 9500W        W10364   1.299   8.165   0.697  0.0258 -0.0042  0.2404
 9501W        W10365   2.082   6.833  25.511  0.0515  0.3260 -0.1203
 9502W        W10366   1.965   9.839   1.450 -0.3992 -0.1671  0.0446
 9503W        W10367   1.189  10.648  27.043 -0.0234  0.0358 -0.0241
 9504W        W10368   1.148  10.346  25.729 -0.1452 -0.2023  0.1055
 9505W        W10369  29.004   8.993   1.836 -0.0525 -0.0691  0.2491
 9506W        W10370   4.486   7.988  26.965  0.2161 -0.0443  0.0579
 9507W        W10371   1.693   9.772  26.764  0.1810 -0.3039 -0.3066
 9508W        W10372   2.777  12.075  28.329 -0.0672 -0.1734 -0.0406
 9509W        W10373   0.620   6.359  22.971 -0.0357  0.0730  0.1846
 9510W        W10374   3.940   7.737  26.447 -0.0926 -0.2695  0.2057
 9511W        W10375   4.910  12.311  26.235  0.0275 -0.0751  0.1014
 9512W        W10376  28.589   7.198  24.255  0.1205 -0.0804  0.1031
 9513W        W10377   0.081   7.120  24.868 -0.0723 -0.1303 -0.2636
 9514W        W10378   4.704  12.752  28.189  0.2219 -0.0106 -0.1373
 9515W        W10379   3.964   9.087   0.945  0.0635 -0.0336 -0.1787
 9516W        W10380   2.678   8.918   1.364  0.2122  0.0362 -0.0422
 9517W        W10381   3.796  10.611  26.675 -0.1240  0.1600 -0.0933
 9518W        W10382   1.973   9.289   1.437 -0.1704 -0.1122 -0.0962
 9519W        W10383   2.262   8.004  27.293  0.2674  0.1763 -0.3466
 9520W        W10384   1.311  10.404  26.379  0.1335 -0.0483  0.0202
 9521W        W10385  26.922   8.447  27.694 -0.2589 -0.0776  0.3580
 9522W        W10386   1.688  11.914  25.822  0.1416  0.2287  0.2137
 9523W        W10387   3.498   8.763  24.889  0.0495  0.0741  0.2019
 9524W        W10388   1.864   9.904  27.765 -0.3915  0.2521 -0.3643
 9525W        W10389   2.926   9.818  24.857  0.4027 -0.2828  0.1367
 9526W        W10390   2.487  10.978  26.731 -0.0043  0.1119 -0.2760
 9527W        W10391   2.984   8.903  27.949  0.1017  0.2665  0.0327
 9528W        W10392  28.170   8.945  28.160  0.0269 -0.1662 -0.2275
 9529W        W10393   1.673   9.267  24.508  0.1252  0.1946  0.1165
 9530W        W10394   3.230  10.455  26.789  0.0061  0.0868 -0.0880
 9531W        W10395   2.523   9.437  27.193  0.4004 -0.0329  0.1775
 9532W        W10396   4.876  10.016  26.686 -0.1537  0.0413 -0.1790
 9533W        W10397   1.878   9.935   0.534 -0.0734  0.1235  0.1828
 9534W        W10398   2.099  10.188  26.095 -0.3240 -0.1357  0.0586
 9535W        W10399   3.994  12.434  24.533 -0.2308 -0.3212 -0.0173
 9536W        W10400   4.351  10.003  28.769  0.0902  0.1935  0.1614
 9537W        W10401   0.657   9.277  25.289  0.1056 -0.0998 -0.1632
 9538W        W10402   2.432  10.672   0.599  0.1263 -0.4151  0.0724
 9539W        W10403   4.422  12.331  28.097 -0.1313  0.4309 -0.0819
 9540W        W10404   1.000  11.950   0.239 -0.2291 -0.2359 -0.1653
 9541W        W10405   4.406  11.992   1.350 -0.1114 -0.0793  0.0704
 9542W        W10406   4.299   8.255  28.697  0.1095 -0.0797  0.1058
 9543W        W10407   1.769  10.350  27.594 -0.1529  0.2859 -0.4308
 9544W        W10408   3.241   6.617  24.037  0.1427 -0.0043 -0.1400
 9545W        W10409   2.519   9.936   0.077  0.1929 -0.0296 -0.1746
 9546W        W10410   1.610   6.687  28.064  0.1348 -0.0664 -0.1642
 9547W        W10411   3.833   8.235  24.663 -0.1912  0.0340  0.1324
 9548W        W10412   1.685   8.124  28.084  0.1143  0.0697 -0.2100
 9549W        W10413   5.996  12.551  27.672  0.4560  0.0402 -0.0809
 9550W        W10414   2.511  10.735  25.987 -0.2775  0.2655 -0.1500
 9551W        W10415  29.081   7.556  25.088 -0.1267 -0.2625 -0.4378
 9552W        W10416   3.300   7.267  27.448  0.0971  0.1985  0.1052
 9553W        W10417   2.493  11.563  26.369 -0.0496  0.0473  0.0914
 9554W        W10418  28.094   9.753  25.043 -0.0149 -0.3673 -0.1543
 9555W        W10419   2.297   9.563  28.936 -0.3185 -0.3127 -0.0507
 9556W        W10420   2.701   8.327  27.199  0.1455  0.0169 -0.1801
 9557W        W10421   3.009   7.700  26.506 -0.3894  0.0868 -0.0800
 9558W        W10422   2.530  11.392  27.566 -0.3310  0.0477 -0.1480
 9559W        W10423   0.904   9.300  27.876  0.1493 -0.2432  0.5112
 9560W        W10424   2.600   8.823  27.225  0.1174  0.0941 -0.1816
 9561W        W10425   3.858  12.751  27.757 -0.0962 -0.0386  0.0951
 9562W        W10426  28.574   7.816  25.656  0.3199  0.1860  0.1927
 9563W        W10427   3.571  12.368  27.702 -0.0089 -0.3017 -0.0682
 9564W        W10428  29.030  11.185  26.837  0.2776 -0.1436  0.0766
 9565W        W10429   1.434   8.414  27.719  0.2074  0.0823 -0.0489
 9566W        W10430   4.277   5.993  27.575 -0.1668 -0.0710 -0.3855
 9567W        W10431  29.052  11.750  27.653  0.0197 -0.3102 -0.0156
 9568W        W10432   1.415  10.851  26.642  0.0627  0.0251 -0.2407
 9569W        W10433  27.833   7.144  25.623 -0.1839  0.0248 -0.2390
 9570W        W10434   2.005   8.714  25.853  0.0888  0.2761  0.1038
 9571W        W10435   1.847   8.123  27.010 -0.1829 -0.3925  0.0279
 9572W        W10436  26.816  10.738  27.791  0.2803  0.0003  0.0589
 9573W        W10437   1.239   9.057  28.303 -0.0795  0.3869  0.1214
 9574W        W10438   4.336  10.946  27.751  0.1869 -0.2462  0.3127
 9575W        W10439   2.830   7.318   0.219 -0.1050  0.1218 -0.0232
 9576W        W10440   2.418   5.877  27.424  0.0331  0.1999 -0.1784
 9577W        W10441   2.066   9.603  27.298  0.0189  0.0048 -0.0575
 9578W        W10442  29.090  13.931  26.477 -0.1944 -0.0578  0.0702
 9579W        W10443  27.988  10.066  28.404 -0.0703 -0.1241 -0.3017
 9580W        W10444   1.209   9.393  23.709 -0.0160 -0.4314  0.1859
 9581W        W10445   1.487  10.316  26.822 -0.1234  0.1487 -0.1461
 9582W        W10446   2.406  10.906  27.723  0.0805 -0.3013  0.2084
 9583W        W10447  27.828   8.068  27.924  0.3064 -0.2734 -0.1359
 9584W        W10448   5.481  12.231  27.152  0.1888 -0.2383  0.3399
 9585W        W10449   3.571   7.702  27.189 -0.0698  0.1022 -0.0314
 9586W        W10450   5.964   7.322  27.963  0.0046  0.0773 -0.3959
 9587W        W10451  27.418  10.555  27.160 -0.0787  0.0944  0.2213
 9588W        W10452   2.786  12.547   0.133 -0.1694  0.0010 -0.0716
 9589W        W10453   2.004   9.515  26.489 -0.1278  0.1990  0.2792
 9590W        W10454   2.081  10.711  27.452 -0.0793  0.0383  0.1302
 9591W        W10455   2.651  10.507  25.229 -0.2845 -0.1236 -0.0167
 9592W        W10456   3.439   9.884  24.761 -0.0618 -0.1724  0.2966
 9593W        W10457   2.279   8.529  26.266  0.1317  0.2505 -0.1459
 9594W        W10458   0.258   7.324  24.442 -0.2724 -0.2028  0.1767
 9595W        W10459   2.706   9.307  24.699  0.2382  0.2039  0.0170
 9596W        W10460   0.678  10.458  27.011 -0.1372  0.0044 -0.0200
 9597W        W10461   2.918   8.601  26.341 -0.0634  0.0915  0.2334
 9598W        W10462  28.324   7.858  24.510  0.1116  0.0651  0.3310
 9599W        W10463   0.633   9.755   1.116  0.1157  0.1016 -0.3395
 9600W        W10464   2.385  12.309  28.581  0.0802  0.0199  0.1955
 9601W        W10465   2.490  10.713  28.175  0.1337  0.0075 -0.0464
 9602W        W10466   4.094  13.077  25.795 -0.0212 -0.1765  0.0614
 9603W        W10467   1.228  11.989   1.307  0.1965  0.2188  0.0463
 9604W        W10468   2.042   5.509   0.611 -0.0146  0.1191 -0.2853
 9605W        W10469   4.091   4.790  28.983 -0.0297  0.1770  0.0081
 9606W        W10470   2.182   9.031  24.528 -0.0113  0.0723  0.3609
 9607W        W10471   0.819   8.620  26.572  0.0786  0.0945  0.1586
 9608W        W10472   0.828   7.998  28.685 -0.0459  0.1418 -0.2488
 9609W        W10473   1.427   9.244   0.282  0.0742  0.2073 -0.0447
 9610W        W10474   4.176   8.587  26.877 -0.2308  0.0311  0.1303
 9611W        W10475  28.250   7.558  26.489  0.1173 -0.0332 -0.0059
 9612W        W10476   3.199   6.513  28.409  0.1415 -0.0434 -0.2178
 9613W        W10477   3.101  10.024  27.033  0.2753  0.0920  0.0571
 9614W        W10478   0.563   8.909  25.623 -0.0795 -0.0887  0.0636
 9615W        W10479   0.708   8.743   0.480  0.1748  0.1341  0.0330
 9616W        W10480  27.630   8.151  24.039  0.3978  0.0096  0.0311
 9617W        W10481   0.393   9.123  27.805  0.4637 -0.2501  0.0833
 9618W        W10482   1.214  10.239  27.408  0.1002  0.0834  0.3214
 9619W        W10483   3.301  12.771  24.941 -0.2632 -0.0583  0.0277
 9620W        W10484   0.156  12.313  28.406  0.2761  0.2844 -0.0933
 9621W        W10485   2.833   8.342   1.236  0.2714  0.1778 -0.3253
 9622W        W10486  28.048   8.191   0.493  0.3556 -0.1143 -0.1020
 9623W        W10487   1.247   7.195  25.689  0.2551 -0.1389  0.0086
 9624W        W10488   4.821   6.641  27.878 -0.0836  0.2161  0.0520
 9625W        W10489   3.264  10.643  28.665 -0.1091  0.1277  0.1350
 9626W        W10490   3.170   8.868  26.617 -0.0692  0.0401  0.2542
 9627W        W10491   2.265  10.567  26.439  0.1151  0.2738 -0.1226
 9628W        W10492   2.332  14.298  26.179 -0.1676  0.2304 -0.0234
 9629W        W10493   2.253   7.860   1.654  0.2028  0.1231  0.0607
 9630W        W10494   0.217  10.969   2.687  0.3522  0.0493  0.1497
 9631W        W10495   3.506  10.041  26.696 -0.1897  0.0282 -0.0339
 9632W        W10496   4.892   7.272  25.512  0.0768  0.1148 -0.1001
 9633W        W10497   4.630   8.649   0.741 -0.0179 -0.0282  0.1226
 9634W        W10498   1.668   8.651  27.083  0.0355  0.1413  0.3887
 9635W        W10499   4.216  13.137  23.477  0.0037  0.1910  0.3090
 9636W        W10500   0.170   6.563  29.015  0.3018 -0.2433  0.3811
 9637W        W10501   1.253   8.799   0.457 -0.2728 -0.0297  0.1821
 9638W        W10502   4.403   9.854  26.500  0.0382  0.0122  0.0250
 9639W        W10503   3.308  11.397  27.114 -0.1164  0.0690  0.0837
 9640W        W10504   2.511  10.173  26.703 -0.2131  0.2060  0.2424
 9641W        W10505   0.433   8.440  26.838  0.1074 -0.0370  0.1685
 9642W        W10506   2.399   8.710   0.483  0.1758 -0.0285  0.0921
 9643W        W10507   2.016  12.568  25.124 -0.3202  0.1471  0.0874
 9644W        W10508   1.422  12.029  26.997  0.4431 -0.4383 -0.0934
 9645W        W10509   0.678   8.004  27.820 -0.0081  0.0310 -0.0161
 9646W        W10510   4.235  11.279  25.561  0.0430 -0.1078 -0.1576
 9647W        W10511   4.507   9.673  25.444 -0.0899  0.0629  0.2064
 9648W        W10512   1.247   9.634   2.155 -0.0790  0.2750  0.0552
 9649W        W10513   2.187  11.194  29.115  0.1426 -0.0061 -0.2869
 9650W        W10514   1.404   9.578  27.933 -0.2339  0.1034 -0.2604
 9651W        W10515   0.523  10.646  24.873  0.0303  0.2012 -0.4162
 9652W        W10516   1.681  10.399   2.049  0.0583  0.2078 -0.3105
 9653W        W10517   2.780   6.590  28.163 -0.0478 -0.1980  0.2828
 9654W        W10518  27.530   8.821  26.770  0.1015  0.0671 -0.1248
 9655W        W10519   0.747   8.655  28.539  0.0557 -0.3296 -0.0963
 9656W        W10520   0.546  12.480  24.814 -0.0874  0.0556 -0.1800
 9657W        W10521   1.776   9.386  27.635  0.0211 -0.0541  0.0406
 9658W        W10522   0.536   9.373   3.202 -0.2051  0.1765 -0.0424
 9659W        W10523   5.040  10.578  28.924 -0.0216 -0.1179  0.1929
 9660W        W10524   2.417   9.793  25.845 -0.2082 -0.2088 -0.0628
 9661W        W10525   3.945   8.500  29.032 -0.0492 -0.0407 -0.2628
 9662W        W10526   1.812  10.484  28.551 -0.0186  0.0045 -0.2959
 9663W        W10527   5.824   8.771   1.214 -0.2600 -0.2380 -0.2227
 9664W        W10528   2.451   7.008  26.750  0.2721 -0.0504 -0.1776
 9665W        W10529  28.793   8.767  27.140 -0.1790 -0.1573  0.3631
 9666W        W10530   5.015  12.599  26.612  0.0215 -0.1034 -0.1435
 9667W        W10531   2.401   8.692  25.369 -0.0740 -0.1679  0.0003
 9668W        W10532   2.140   6.195  26.836 -0.1187 -0.0602 -0.1973
 9669W        W10533   3.992  14.466  26.810 -0.2231 -0.1477 -0.1850
 9670W        W10534   4.074   7.215  27.826  0.1993 -0.0884 -0.1246
 9671W        W10535  28.409   8.602   0.398  0.0208  0.1831  0.1878
 9672W        W10536  28.654   8.871  26.143  0.1547 -0.0499  0.1098
 9673W        W10537   3.444   9.023  29.002  0.1171  0.0188 -0.0027
 9674W        W10538   2.946   9.974   1.420  0.3953 -0.0855 -0.1339
 9675W        W10539   2.133  11.850  27.849  0.2783  0.1851  0.0354
 9676W        W10540   3.937  10.848  29.119 -0.1679  0.0329  0.1346
 9677W        W10541  27.815   7.865  25.778 -0.1497 -0.1784 -0.1723
 9678W        W10542   3.910  10.894  25.797  0.0720  0.2667  0.1313
 9679W        W10543  28.563   6.340   2.569 -0.0113  0.1154  0.1210
 9680W        W10544   2.597   9.302  24.198 -0.0380 -0.5852 -0.0960
 9681W        W10545   2.216   8.519  27.221 -0.0454  0.0015 -0.0682
 9682W        W10546   1.077   6.874   1.324 -0.0157  0.0172 -0.2605
 9683W        W10547   2.291   8.025  28.218 -0.1272 -0.2545  0.2309
 9684W        W10548   0.137   8.595   1.962  0.0690  0.0698 -0.0583
 9685W        W10549   4.259  11.232   0.023  0.0384  0.4359 -0.0029
 9686W        W10550   1.239   7.774  25.878 -0.3486 -0.2345  0.0050
 9687W        W10551  29.082   7.615  29.130  0.0237 -0.2547  0.1030
 9688W        W10552   0.089   7.008   1.563 -0.0815 -0.2302 -0.0863
 9689W        W10553   0.980   8.003  27.017  0.2200  0.0549  0.0684
 9690W        W10554   0.658  11.278   1.406  0.0110  0.0520 -0.1803
 9691W        W10555  28.594  11.438   0.432 -0.1746 -0.1671 -0.0218
 9692W        W10556   2.860  10.350  28.414 -0.2477 -0.1712 -0.4643
 9693W        W10557   1.594  10.304  25.392 -0.1331 -0.4961  0.2339
 9694W        W10558   0.228  11.931   0.278 -0.0477 -0.2567  0.1964
 9695W        W10559   1.218   9.888  26.990  0.0931  0.1748  0.4764
 9696W        W10560   2.455   5.403  27.780 -0.1837 -0.0053 -0.4455
 9697W        W10561   3.988   9.825  25.712 -0.0116  0.0868 -0.0395
 9698W        W10562   0.614   8.257   0.538  0.0187  0.0713  0.1769
 9699W        W10563   2.539   9.734  26.416 -0.0572 -0.0092 -0.0100
 9700W        W10564  29.056  10.392  27.496 -0.0511  0.3637  0.1371
 9701W        W10565   0.099   8.810  28.055 -0.1218 -0.2463 -0.0841
 9702W        W10566   4.269   7.281  26.179  0.1184 -0.1233 -0.0700
 9703W        W10567   2.856   7.023  28.543  0.0271 -0.1917  0.2770
 9704W        W10568   1.150   5.649  28.839  0.1026 -0.0670  0.3119
 9705W        W10569   0.755   9.963  28.558 -0.0012  0.3021 -0.3385
 9706W        W10570   3.053   8.511  24.716 -0.2611 -0.1943 -0.3179
 9707W        W10571   0.707  11.095  27.687  0.1920 -0.2717  0.1738
 9708W        W10572   6.220  13.144  28.746 -0.1238 -0.2152  0.2755
 9709W        W10573   2.743   7.280  27.004 -0.1724  0.2460  0.0731
 9710W        W10574  27.357  10.647   1.242 -0.1183  0.1798  0.0022
 9711W        W10575   0.605  11.917  28.618  0.0592 -0.1260  0.4527
 9712W        W10576   1.078   6.168   2.573  0.1890 -0.1267 -0.0856
 9713W        W10577  28.394   9.718   0.862  0.1146 -0.1195  0.1965
 9714W        W10578   4.323  10.336  24.908  0.1324 -0.0757  0.0691
 9715W        W10579   4.539  10.151  25.291 -0.0711  0.1423 -0.0714
 9716W        W10580   2.452  10.804   0.077 -0.2095 -0.0525 -0.2111
 9717W        W10581   0.684   8.548  29.112  0.2932  0.2756  0.0053
 9718W        W10582   1.701   7.265  24.157  0.3514 -0.0687  0.1373
 9719W        W10583   2.590  10.839  27.270 -0.1527  0.0987 -0.0178
 9720W        W10584   1.764   9.521   1.951  0.1076 -0.2087 -0.2357
 9721W        W10585   0.148   7.906  24.680 -0.0107  0.1098 -0.0146
 9722W        W10586  29.096   9.327   1.370 -0.0867  0.0123  0.2490
 9723W        W10587   1.668   7.284  26.077  0.1922  0.3101 -0.3893
 9724W        W10588   1.965  11.167  25.302 -0.1689 -0.0776  0.0689
 9725W        W10589   3.354  11.378   1.205  0.1556  0.2468 -0.0186
 9726W        W10590   2.414  12.087   2.889 -0.0308  0.1391 -0.1356
 9727W        W10591   2.210   9.065  27.379  0.2089  0.2011  0.0618
 9728W        W10592   2.877   5.584  27.478  0.1053  0.0608  0.0124
 9729W        W10593   4.002  11.353  27.750 -0.0391  0.1643  0.0625
 9730W        W10594   1.367  10.180   0.561 -0.1475 -0.0564  0.0754
 9731W        W10595   0.139  11.807   1.209 -0.0248 -0.0297 -0.0952
 9732W        W10596   2.773  13.931  23.276 -0.2891 -0.2372  0.1234
 9733W        W10597   1.366   8.126   1.368 -0.2696  0.3520 -0.2432
 9734W        W10598   0.556   9.981  29.076  0.3415 -0.0612  0.0800
 9735W        W10599  28.266  10.582  26.036 -0.4310 -0.0400 -0.0192
 9736W        W10600   1.514  13.218  28.168 -0.0660 -0.2983  0.0186
 9737W        W10601   5.036   9.745  25.057  0.0236  0.0004  0.0315
 9738W        W10602  28.409   9.239  25.681 -0.2331 -0.0851 -0.1434
 9739W        W10603   1.555   9.728  25.550  0.0510  0.1955  0.0038
 9740W        W10604  27.709   8.116  25.283  0.2274 -0.0630  0.0143
 9741W        W10605   0.986  11.069  28.383 -0.1623  0.0146 -0.0464
 9742W        W10606   3.617  10.002  23.481  0.1845  0.0492 -0.2189
 9743W        W10607   3.528   9.684  28.810  0.0830  0.0556  0.0849
 9744W        W10608   2.294   9.081   3.163  0.0700 -0.2526  0.2347
 9745W        W10609   4.264   9.003  28.908  0.2042 -0.1107  0.0083
 9746W        W10610   4.805  12.300  28.410 -0.0373  0.2857 -0.0818
 9747W        W10611   1.460  10.686   0.543  0.1538 -0.0571 -0.3990
 9748W        W10612   5.662   9.285  26.600 -0.1047  0.0216  0.1342
 9749W        W10613   1.641   9.332  25.282  0.1753 -0.0149 -0.0566
 9750W        W10614   0.456   8.749  23.710  0.3071 -0.0785 -0.1359
 9751W        W10615   2.035  10.899  28.309 -0.0427  0.0938 -0.0590
 9752W        W10616   0.517   7.373  26.264 -0.0298 -0.0194  0.1151
 9753W        W10617   2.053   8.834  28.427 -0.2143 -0.1563 -0.1174
 9754W        W10618   3.666  13.309  24.988  0.2337 -0.4219 -0.1255
 9755W        W10619   2.500  11.354  27.086 -0.1336 -0.2596 -0.2777
 9756W        W10620   1.028  10.844   0.756 -0.1206  0.0434 -0.0370
 9757W        W10621   3.181   7.968  28.048 -0.0677 -0.2655 -0.0585
 9758W        W10622  29.123   9.430  27.687 -0.2410 -0.4390  0.0572
 9759W        W10623   2.536  10.400  27.493  0.1020  0.0154  0.0762
 9760W        W10624  28.870   7.615  24.298 -0.0204 -0.1415  0.0864
 9761W        W10625   3.523   9.879  27.245  0.0629  0.3349  0.0112
 9762W        W10626   2.456   8.976  28.709  0.2811  0.0467  0.1615
 9763W        W10627   2.689  12.622  28.269 -0.0181 -0.3078 -0.2618
 9764W        W10628   0.296  10.292  27.853 -0.1119  0.0977 -0.0591
 9765W        W10629   3.671  11.108  28.665 -0.1041  0.0615  0.3843
 9766W        W10630   1.422   6.874  24.785 -0.0935  0.2509 -0.0833
 9767W        W10631   2.286  10.594  26.984 -0.4335 -0.0641 -0.3271
 9768W        W10632   4.643   8.784  28.605  0.1154  0.0018  0.2686
 9769W        W10633   0.977   7.962  27.497 -0.0579 -0.0379 -0.0694
 9770W        W10634   1.070   9.510  26.205 -0.2869 -0.1009 -0.0144
 9771W        W10635   0.239   6.970  28.495  0.3700  0.1086  0.1837
 9772W        W10636   3.421  10.505  27.594  0.1255 -0.0762 -0.1137
 9773W        W10637  29.138  10.808  28.546  0.0391 -0.0899  0.1477
 9774W        W10638   3.344   9.482  25.979  0.3032 -0.0968 -0.1300
 9775W        W10639  28.672  11.544  26.434  0.1183  0.1637  0.0491
 9776W        W10640   3.735  12.185  25.483  0.3664  0.1586 -0.0748
 9777W        W10641   1.693  12.317  25.493 -0.2735  0.2800  0.1286
 9778W        W10642   2.297  10.784  23.431 -0.0439 -0.2363 -0.1875
 9779W        W10643   2.234   8.640  24.870  0.1262  0.3005 -0.0314
 9780W        W10644   5.622   7.547  27.652 -0.0043  0.1280 -0.3488
 9781W        W10645   2.872  11.975  26.166 -0.0968  0.0500 -0.1915
 9782W        W10646   2.960  10.839  28.283 -0.0115 -0.0784  0.1142
 9783W        W10647   2.498  10.192  24.790  0.0674  0.0886  0.1164
 9784W        W10648   3.320   8.686  28.590  0.0257 -0.0225 -0.2036
 9785W        W10649   5.291  13.238  26.792 -0.0292 -0.2115  0.1254
 9786W        W10650   1.583   6.922   1.318  0.2274  0.1291 -0.1483
 9787W        W10651  28.891  11.063   0.603 -0.0913 -0.3022  0.0261
 9788W        W10652   2.333  12.806  28.607  0.2506  0.0118  0.0726
 9789W        W10653   0.918   9.752  27.708  0.0653  0.5169  0.0803
 9790W        W10654  29.095   9.606  28.659  0.1009  0.1811  0.0226
 9791W        W10655   2.228   7.530  28.123 -0.2247  0.1039  0.0183
 9792W        W10656  28.920  10.423  28.898 -0.3305  0.3852  0.2606
 9793W        W10657   0.121   7.425   1.848  0.1485 -0.2093  0.0566
 9794W        W10658   1.981  10.214  26.795  0.1698 -0.3603 -0.4702
 9795W        W10659   1.492  11.223   2.316  0.3503  0.3244 -0.1230
 9796W        W10660   1.156   9.428  26.727 -0.3329 -0.0021  0.1071
 9797W        W10661   4.471  10.046  27.021  0.1257 -0.0696 -0.2366
 9798W        W10662  27.531  11.464   0.997 -0.1860  0.1031 -0.0324
 9799W        W10663   0.991  10.613   0.213  0.1417  0.1103  0.2172
 9800W        W10664   2.174  10.773  28.776  0.1607 -0.1891  0.0209
 9801W        W10665   2.113  10.264   0.976 -0.3349  0.1408 -0.1374
 9802W        W10666   1.475  11.619  28.492 -0.0850  0.0233  0.0420
 9803W        W10667   4.864   9.696  26.237  0.2689 -0.2158  0.2687
 9804W        W10668   2.314  11.276  28.632  0.2516 -0.1229  0.3172
 9805W        W10669   2.473  10.123   0.610  0.0763  0.0589 -0.3374
 9806W        W10670   0.133   8.980   2.354  0.1185 -0.0244  0.4014
 9807W        W10671   2.105   9.540  27.992 -0.0652 -0.0588  0.1908
 9808W        W10672  28.618  11.095  28.298  0.3751  0.2328 -0.0848
 9809W        W10673   0.939   9.474  24.556 -0.2643 -0.0225  0.1283
 9810W        W10674   1.300  10.774  25.399 -0.0404 -0.3469 -0.0924
 9811W        W10675   1.251  17.909   1.013 -0.1103 -0.0636 -0.2105
 9812W        W10676   3.382  14.279   5.000 -0.1273  0.0067 -0.0547
 9813W        W10677   3.333  12.884   2.813  0.0006  0.0130  0.0930
 9814W        W10678   3.860  12.039   2.835  0.1947  0.0958 -0.2522
 9815W        W10679   1.417  16.125   1.235  0.0500  0.1224 -0.1933
 9816W        W10680   3.718  12.648   0.003 -0.1753  0.1106 -0.2502
 9817W        W10681   2.641  12.611   1.529  0.3663  0.1697 -0.0696
 9818W        W10682   1.979  12.071  28.753  0.0447  0.0224  0.0693
 9819W        W10683   3.006  14.012   4.720  0.0944  0.2549  0.4512
 9820W        W10684  28.932  12.292   3.252  0.2160  0.0879  0.0205
 9821W        W10685   0.580   9.732   1.699 -0.3896 -0.1157  0.1567
 9822W        W10686   2.546   9.515  28.433 -0.0804 -0.0304 -0.0980
 9823W        W10687   2.207  13.690  28.600 -0.2991  0.1594  0.2109
 9824W        W10688   1.927  13.118   4.993 -0.2215  0.0825  0.3607
 9825W        W10689   1.802   8.873   3.817  0.0591 -0.0874  0.1279
 9826W        W10690   2.175  16.844   6.797  0.2842  0.0671 -0.0243
 9827W        W10691   4.117  13.882  27.039  0.1626 -0.2368 -0.0691
 9828W        W10692  28.454  12.777   2.692 -0.2231 -0.1177  0.1276
 9829W        W10693   2.077  13.259   3.987  0.1465 -0.0980 -0.1440
 9830W        W10694   3.845   8.678   1.915  0.0167 -0.0345 -0.1179
 9831W        W10695   3.960  10.234   3.282 -0.1511  0.0692  0.0732
 9832W        W10696   3.724  13.981  27.827 -0.0822  0.2355  0.0100
 9833W        W10697   3.190  10.896   0.520  0.1324  0.0995 -0.0251
 9834W        W10698   3.441  15.407   4.214 -0.0286  0.3491 -0.1826
 9835W        W10699  28.061  12.776   2.316 -0.2274  0.0854 -0.1412
 9836W        W10700   3.753  12.060   4.865 -0.2368  0.1112 -0.1616
 9837W        W10701   1.782  11.753   5.490  0.1145 -0.0039  0.4043
 9838W        W10702   2.608  15.082   2.270 -0.0230  0.0692  0.0307
 9839W        W10703   2.876  11.142   1.374  0.1432 -0.0764  0.1312
 9840W        W10704   4.087  11.520   4.322 -0.2261 -0.0432 -0.0481
 9841W        W10705   3.419  11.459   2.179  0.4312  0.1232  0.1121
 9842W        W10706   4.666  14.527   4.356 -0.0152  0.1953  0.1801
 9843W        W10707   3.787  13.510   5.009 -0.0273  0.0776 -0.1884
 9844W        W10708   4.274  14.805   4.220  0.0937  0.0535 -0.0828
 9845W        W10709   1.647  11.524   1.907 -0.2462  0.1505 -0.0054
 9846W        W10710   2.635  11.621   3.749  0.4629  0.1863  0.3227
 9847W        W10711   0.862  10.350  28.946  0.1510 -0.0893 -0.1345
 9848W        W10712   1.061  13.658   1.189  0.0645  0.0689 -0.3004
 9849W        W10713   4.180  12.864   0.380 -0.0641  0.0480  0.2175
 9850W        W10714   3.230  11.859   0.964 -0.2051 -0.0132 -0.0196
 9851W        W10715   1.512  13.806  27.434  0.0434 -0.2829  0.1897
 9852W        W10716   4.526  11.727   4.001 -0.0805 -0.1514  0.1503
 9853W        W10717   0.829  14.042   2.253  0.1179  0.1151  0.0478
 9854W        W10718   6.483  14.950   3.550  0.2709  0.3182 -0.0707
 9855W        W10719   1.602  13.426  29.083  0.2511 -0.2057  0.2166
 9856W        W10720   1.707  13.489   2.026  0.3413 -0.1286  0.1271
 9857W        W10721   1.209  12.204   6.255  0.0634  0.1232 -0.0034
 9858W        W10722   4.947  13.869   2.750 -0.0829  0.0895 -0.1950
 9859W        W10723   4.547  11.469   2.142  0.1609 -0.1597  0.1339
 9860W        W10724   2.571  11.558   1.496  0.2264 -0.1141 -0.2579
 9861W        W10725   2.803  13.222   1.989  0.0161 -0.1714  0.1002
 9862W        W10726   1.626  13.738   1.173  0.0196 -0.0350 -0.0797
 9863W        W10727   2.042  14.127   3.717  0.1940  0.0493 -0.1498
 9864W        W10728   5.109  14.767   3.240 -0.2145 -0.4252  0.2946
 9865W        W10729   2.789   9.307  28.830  0.2963  0.0923  0.0498
 9866W        W10730   2.599  15.261   1.742 -0.2152  0.3123  0.2281
 9867W        W10731   2.054  12.603   2.323 -0.2856  0.1889  0.0084
 9868W        W10732   2.370  10.827   1.633 -0.1811  0.1439  0.1796
 9869W        W10733  27.816  15.433   1.302  0.1622 -0.2049 -0.2017
 9870W        W10734  28.966  14.628  29.123  0.2268  0.4580  0.1476
 9871W        W10735   3.375  12.844   0.890 -0.0181  0.1357  0.0268
 9872W        W10736   2.979  11.653   2.100 -0.0789 -0.1661  0.1246
 9873W        W10737   3.284  12.228   4.027  0.0860  0.0396 -0.0888
 9874W        W10738   1.323  14.985   1.385  0.0239 -0.1618  0.1355
 9875W        W10739  27.687  11.689   3.098  0.1984  0.0405 -0.0999
 9876W        W10740   3.453  12.929   2.371 -0.1493  0.3129  0.4871
 9877W        W10741   3.622  14.241   1.107 -0.1569 -0.0235  0.0305
 9878W        W10742   0.308  11.954   2.715 -0.0224 -0.1276  0.2857
 9879W        W10743   3.232  15.556   1.232 -0.0401  0.1977  0.0775
 9880W        W10744   3.506  15.317  28.875  0.1829  0.1250 -0.1093
 9881W        W10745   4.469  13.616   3.165 -0.1802  0.2257 -0.0005
 9882W        W10746   1.898  14.454   0.975  0.1407  0.0572  0.0609
 9883W        W10747   4.151  15.886   4.519  0.0417  0.1091  0.1598
 9884W        W10748   3.509  10.510   3.224  0.0435  0.3147 -0.0000
 9885W        W10749   6.589  13.374   1.530  0.0708 -0.2600 -0.3209
 9886W        W10750   4.986   9.800   4.682  0.0962 -0.0294 -0.1309
 9887W        W10751   1.009   9.954   1.636  0.1580  0.0715 -0.2331
 9888W        W10752   2.393  11.806   3.290  0.1903 -0.4056  0.1541
 9889W        W10753   3.174  12.097   0.479 -0.1079  0.1052  0.2773
 9890W        W10754   2.926  13.264   2.933 -0.0318  0.0680 -0.1560
 9891W        W10755   1.989  13.339   3.359  0.0467  0.1812  0.2725
 9892W        W10756   0.759  13.989   2.812  0.0531 -0.1136 -0.0431
 9893W        W10757   0.357  11.749   2.080  0.3656  0.3150  0.0839
 9894W        W10758   3.389  13.789   2.134 -0.0416  0.2882  0.0940
 9895W        W10759   2.337  10.460   3.204  0.0418 -0.0586 -0.0000
 9896W        W10760   5.211  11.307  28.470  0.1121 -0.0204  0.0643
 9897W        W10761   5.413  14.001   4.010 -0.0189  0.2886 -0.2954
 9898W        W10762   2.559  13.390   4.054  0.1042 -0.3053  0.0949
 9899W        W10763   2.172   9.819   5.425 -0.3238  0.1958  0.1802
 9900W        W10764   4.067  13.222   3.611  0.1963 -0.2196  0.3188
 9901W        W10765   3.086   9.726   3.861 -0.3141  0.0592 -0.3716
 9902W        W10766   1.657  11.444   3.653 -0.1944  0.0543 -0.4208
 9903W        W10767   2.029  15.717  28.410 -0.0125  0.3451 -0.1708
 9904W        W10768   1.265  11.296   1.674  0.0021  0.2032 -0.0160
 9905W        W10769   2.185   8.653   4.395 -0.3037 -0.0952 -0.2563
 9906W        W10770   3.037  11.086   2.192 -0.0681 -0.2014 -0.3185
 9907W        W10771   3.184  10.891   3.044 -0.1518 -0.3238 -0.0637
 9908W        W10772   2.648  16.448   3.356 -0.1206  0.0135 -0.0268
 9909W        W10773   0.224   9.896   2.085  0.0892  0.0797  0.1616
 9910W        W10774   2.991   8.781  28.945  0.0874  0.0527  0.2253
 9911W        W10775   4.441  14.870   1.137  0.1407  0.0648  0.0150
 9912W        W10776   1.961  12.351   4.126  0.0440 -0.0916 -0.1818
 9913W        W10777   5.149  12.081   2.067  0.2578 -0.2031 -0.0503
 9914W        W10778   5.568  15.237   1.828 -0.2288 -0.0266 -0.2930
 9915W        W10779   1.247   8.543   4.683 -0.2929 -0.0468  0.0523
 9916W        W10780   4.180  11.537   1.656 -0.1710 -0.2130  0.1881
 9917W        W10781   2.770  14.243   2.146 -0.1455  0.0891  0.0034
 9918W        W10782   2.349  12.430   4.485 -0.1223  0.2631  0.4613
 9919W        W10783   0.479  10.861   3.678 -0.1182  0.4766  0.1751
 9920W        W10784  28.490  12.273   3.600  0.2975 -0.6122 -0.0353
 9921W        W10785   0.848  12.635   1.984 -0.0379  0.0832  0.2791
 9922W        W10786   3.067  16.906   1.095 -0.0206 -0.3469  0.2170
 9923W        W10787   4.709  11.889   4.989  0.1510  0.0645  0.1826
 9924W        W10788   1.279  12.592   0.556 -0.2542 -0.3417 -0.2773
 9925W        W10789   3.971  15.591   3.244  0.1056 -0.0476  0.1670
 9926W        W10790   1.924  16.947   0.149 -0.0014 -0.1645  0.2814
 9927W        W10791   3.351  11.182   4.092 -0.1423  0.1212  0.0008
 9928W        W10792   1.713  13.022   3.567 -0.3538  0.0348  0.1736
 9929W        W10793   0.926  14.443   2.651  0.2088 -0.1047  0.1632
 9930W        W10794   2.230  10.925   3.376  0.1789  0.0589  0.0765
 9931W        W10795   5.960  15.238   2.221  0.2418  0.1338 -0.2088
 9932W        W10796   3.529  16.174   0.992 -0.1435  0.1499  0.0519
 9933W        W10797   2.846  12.877   0.522  0.0569 -0.1999 -0.1806
 9934W        W10798   1.279  13.940   0.240  0.0540 -0.0002  0.3286
 9935W        W10799   0.799  15.188   1.589  0.0453  0.7149 -0.3873
 9936W        W10800   4.056  12.890   3.178 -0.1081 -0.3917 -0.0612
 9937W        W10801  28.197  13.245   2.448  0.0324 -0.0563  0.0866
 9938W        W10802   2.632  14.004   3.334  0.1080  0.2912  0.4716
 9939W        W10803   3.965  14.035   5.675  0.0403 -0.1391 -0.0374
 9940W        W10804   3.176  14.473   0.924  0.2478  0.4309  0.2429
 9941W        W10805   3.656  13.061   3.330 -0.1294  0.0554 -0.0007
 9942W        W10806   1.116   6.958   4.667 -0.1137  0.1610 -0.0601
 9943W        W10807   0.920  13.650   1.653 -0.1005  0.1096  0.0311
 9944W        W10808   2.243   8.820   1.581 -0.2784  0.4113  0.2500
 9945W        W10809   5.113  11.344   0.272  0.0383 -0.2936 -0.0987
 9946W        W10810   0.281   9.313   2.794  0.1608  0.1713 -0.0862
 9947W        W10811   2.493  12.117   1.531 -0.1606  0.1374 -0.0894
 9948W        W10812   3.228  10.143   3.431  0.0474 -0.0361 -0.1857
 9949W        W10813   2.611  16.105   1.344  0.1871 -0.1283  0.0458
 9950W        W10814   2.501  14.657   1.925 -0.0301  0.1713 -0.0630
 9951W        W10815   0.641  11.300   1.883 -0.0662 -0.0222 -0.0012
 9952W        W10816   1.202  12.478   1.518 -0.1625  0.0749 -0.1020
 9953W        W10817   1.200  15.916  28.746  0.0475  0.0541  0.3304
 9954W        W10818   3.433  13.717   1.237  0.0034  0.0614  0.0405
 9955W        W10819   2.401  12.369   3.670  0.0118  0.0940  0.1619
 9956W        W10820   0.135   8.435   3.057 -0.2736  0.1246 -0.0520
 9957W        W10821   0.474   9.309   1.281  0.0123 -0.1035 -0.4008
 9958W        W10822   1.776  14.043   1.951 -0.2563  0.0434 -0.1022
 9959W        W10823   1.561  14.006   3.492  0.2378 -0.0373 -0.0923
 9960W        W10824   1.353  12.346   0.104  0.0299  0.2116  0.0542
 9961W        W10825   1.072  14.511   1.324 -0.1625 -0.1722  0.1730
 9962W        W10826   2.724  11.304   1.827  0.0893  0.0558  0.0279
 9963W        W10827   2.128  13.207   2.136  0.2710  0.1296 -0.1328
 9964W        W10828   0.138  11.399   0.955 -0.1787 -0.0773  0.2205
 9965W        W10829   1.268  12.609   2.308 -0.0594 -0.1818  0.1003
 9966W        W10830   4.641  12.673   4.166 -0.1621 -0.3591  0.2019
 9967W        W10831   0.293  14.327   3.189 -0.3348  0.1412 -0.0111
 9968W        W10832   2.393  13.204   0.602  0.1291  0.3027  0.2463
 9969W        W10833   3.746  10.350  28.174  0.1241 -0.1642  0.1311
 9970W        W10834   4.104  10.774   1.034 -0.1846  0.1412 -0.1748
 9971W        W10835   2.351   9.324   2.624 -0.1474 -0.4139  0.1918
 9972W        W10836   0.828  13.202   4.871  0.0321 -0.0326  0.0815
 9973W        W10837   3.388  13.146   4.321 -0.1606 -0.2941 -0.1978
 9974W        W10838   3.729  13.915   3.879  0.1374  0.0222  0.1533
 9975W        W10839  28.628  12.312   4.593  0.1839 -0.0714  0.0144
 9976W        W10840   2.162   8.282   2.527  0.0371  0.3526  0.2426
 9977W        W10841   1.277  11.128   1.106 -0.0627 -0.0148  0.1291
 9978W        W10842   2.270  15.482  28.020  0.0350 -0.1981 -0.1123
 9979W        W10843   0.109  16.138   5.922 -0.1394 -0.0340  0.2813
 9980W        W10844   2.356  12.563   0.442  0.1054  0.0309  0.0155
 9981W        W10845   2.968  12.995  28.125 -0.0469  0.0901  0.2573
 9982W        W10846   2.062  12.041   2.462  0.0860  0.2138  0.2267
 9983W        W10847   1.520  13.509   3.313  0.2641  0.0237 -0.2094
 9984W        W10848   4.490  13.014   1.103 -0.0965 -0.2193 -0.1258
 9985W        W10849   1.416  10.902   1.923 -0.1519  0.1174  0.0457
 9986W        W10850   5.230  10.659   2.502 -0.2082  0.2052  0.1468
 9987W        W10851  25.889  14.488  28.944  0.1408 -0.1881  0.3504
 9988W        W10852  26.698  14.157   3.733 -0.1619 -0.0694  0.0756
 9989W        W10853   1.222  15.050   1.983  0.1637 -0.1171 -0.0988
 9990W        W10854   1.200  11.900   2.447 -0.2929  0.0462 -0.0706
 9991W        W10855   3.567  14.762   1.005 -0.2316 -0.0821 -0.0907
 9992W        W10856   5.809  15.532   3.251  0.1005 -0.0390  0.2988
 9993W        W10857   2.943  13.120   0.091 -0.2913 -0.0828 -0.2871
 9994W        W10858   2.555  12.782   2.062  0.0749  0.1018 -0.0806
 9995W        W10859   2.576  11.898   2.427 -0.2679  0.0306 -0.1486
 9996W        W10860   2.634  13.483   2.544 -0.2038  0.0995  0.1878
 9997W        W10861   3.586  11.887   3.827  0.0935 -0.0548 -0.1200
 9998W        W10862  28.123  12.096  28.694  0.2613  0.2711 -0.1140
 9999W        W10863   4.052  13.964   3.060  0.1709  0.1325 -0.4794
10000W        W10864   3.395  12.571   3.663  0.0672 -0.0646  0.1258
10001W        W10865   1.555  13.191  27.558 -0.3401  0.0188  0.1604
10002W        W10866   0.099  13.981   0.298  0.0049  0.1400 -0.2978
10003W        W10867  28.990  12.718   3.640  0.3308  0.0043  0.1936
10004W        W10868   1.514   8.368   3.182  0.0050 -0.1085  0.0869
10005W        W10869   3.011  10.087   4.145  0.1479  0.1355  0.0305
10006W        W10870   3.753  11.755   1.980  0.1636  0.1922  0.3515
10007W        W10871   1.372   8.879   2.563  0.0011 -0.1949  0.0808
10008W        W10872  28.543  11.371   1.885 -0.1120  0.1445 -0.3464
10009W        W10873  28.172  12.459   0.899  0.1320 -0.0771 -0.0302
10010W        W10874   1.778  11.270   2.768 -0.1999  0.1289  0.0346
10011W        W10875   1.024  11.530   1.201 -0.1486  0.0046  0.1293
10012W        W10876   1.932  10.856   1.963 -0.1672  0.2411 -0.1537
10013W        W10877   3.226  13.559   0.338  0.1946  0.4080  0.0651
10014W        W10878   0.856  10.663   3.437 -0.0986 -0.0218 -0.1778
10015W        W10879   1.764  13.308   4.495  0.1203 -0.1126 -0.0774
10016W        W10880   3.715  11.432   0.832  0.1815 -0.2080  0.1821
10017W        W10881   1.236   8.710   4.148  0.0827  0.1478 -0.2237
10018W        W10882   2.395  11.170   3.787  0.0999  0.0300 -0.2956
10019W        W10883  27.738  15.904   1.154  0.0200  0.2613  0.2203
10020W        W10884   3.496  14.508   0.090  0.3658  0.1459 -0.0659
10021W        W10885   3.246  13.007   3.867  0.0788 -0.3106  0.0926
10022W        W10886   0.201  14.044   4.091  0.0426 -0.0463  0.0797
10023W        W10887   3.205  14.632   5.329 -0.1491 -0.3005 -0.2140
10024W        W10888   4.065  10.320   2.021  0.2713 -0.1202  0.0765
10025W        W10889   2.626  11.608   2.901 -0.0648  0.1429 -0.3516
10026W        W10890   5.424  14.127   2.741 -0.0731 -0.0605  0.4810
10027W        W10891   4.920  13.119   0.735  0.0654  0.1037  0.1752
10028W        W10892   3.613  15.849   1.449 -0.0958 -0.1029 -0.0742
10029W        W10893   3.559   9.979   3.125 -0.0652 -0.2375  0.1083
10030W        W10894  27.818  15.005   5.748 -0.1830 -0.4664 -0.3308
10031W        W10895   1.977   9.562   3.004  0.0032  0.0456 -0.0439
10032W        W10896   4.135  13.723   1.777  0.0110 -0.2172 -0.0075
10033W        W10897   2.336  15.741   2.888 -0.2095 -0.2435  0.3952
10034W        W10898  28.850   9.901   0.719  0.1240  0.0582  0.1424
10035W        W10899   4.749  13.734   0.199  0.0125  0.0652 -0.0251
10036W        W10900   0.336  11.390   4.081 -0.2154 -0.0363  0.0095
10037W        W10901   2.867  12.302   4.481  0.1007 -0.1026 -0.2481
10038W        W10902   3.715  11.116   2.521  0.2536  0.2947 -0.3128
10039W        W10903   5.016  14.037   2.233 -0.2293  0.0571  0.5360
10040W        W10904   4.096  14.096   0.789 -0.1082  0.3687 -0.0934
10041W        W10905   0.930   9.762   5.107  0.0359 -0.1312 -0.1462
10042W        W10906   3.935  12.700   3.652  0.0363 -0.1139 -0.2153
10043W        W10907   2.332  13.109   1.706 -0.0782 -0.1079  0.2020
10044W        W10908   3.157  13.038   3.385 -0.1431 -0.1094 -0.1916
10045W        W10909  28.925  12.543   2.799 -0.1416  0.2310  0.2581
10046W        W10910   0.665  13.244   1.236  0.0690 -0.2618  0.0961
10047W        W10911   2.899  12.166   2.756 -0.2597  0.1546  0.0765
10048W        W10912   1.225  13.188   4.499  0.2978 -0.1410  0.2626
10049W        W10913   0.429  13.656   0.702  0.0688 -0.0017 -0.1168
10050W        W10914   4.002  13.015   2.362 -0.1633 -0.2246  0.2876
10051W        W10915   2.384  15.678   1.434 -0.1310  0.0917 -0.0565
10052W        W10916   1.260  16.282   3.284 -0.1228 -0.1669  0.0832
10053W        W10917   0.961  11.443   5.157  0.2015  0.2113 -0.2127
10054W        W10918   2.033  11.237   2.304 -0.0944  0.1517 -0.1824
10055W        W10919   2.597  11.417   2.421 -0.2513  0.1442  0.1060
10056W        W10920   1.502  12.203  28.639  0.0962 -0.0190  0.1582
10057W        W10921   3.211  10.904   5.640 -0.0487  0.1208  0.2272
10058W        W10922   1.216  12.722   4.998 -0.1108 -0.1366 -0.1381
10059W        W10923   2.071  13.648  29.103  0.2299 -0.1742  0.2913
10060W        W10924   2.809  12.755   1.002  0.0573  0.0932 -0.0270
10061W        W10925  28.489  12.944   2.165 -0.1963  0.4838  0.1213
10062W        W10926   0.177  12.386   2.503  0.0109 -0.3396  0.3519
10063W        W10927   4.795  13.506   2.109 -0.2426  0.2121 -0.0925
10064W        W10928   3.180  10.699   3.492 -0.0389  0.1048  0.1449
10065W        W10929   3.590  13.496   3.625  0.4372  0.0694 -0.0550
10066W        W10930   3.431  13.094   0.117  0.1284 -0.0940  0.0261
10067W        W10931   3.325  13.281   2.028 -0.1676  0.3184 -0.0601
10068W        W10932  28.986  12.187   3.759  0.0975 -0.1261  0.0296
10069W        W10933   2.778  14.715   1.224 -0.0538  0.0437  0.0081
10070W        W10934   3.123  13.614   1.650  0.0654 -0.2111 -0.0548
10071W        W10935   2.390  11.444   4.242 -0.3002 -0.0099 -0.0990
10072W        W10936   0.305  12.922   3.640 -0.4025 -0.3305  0.1218
10073W        W10937   3.335  11.309   4.593 -0.2523 -0.0882  0.0048
10074W        W10938   1.222  12.162   1.990  0.0861 -0.0690  0.1285
10075W        W10939   2.957  14.701   2.191  0.2233 -0.0478  0.0564
10076W        W10940   1.185  13.315   2.026  0.1278 -0.3246  0.1308
10077W        W10941   1.380  13.264  28.683 -0.1765 -0.4100 -0.1759
10078W        W10942   4.408  10.617   0.681 -0.0948  0.1385  0.2400
10079W        W10943   1.958  10.673   2.894 -0.0716  0.2988 -0.0824
10080W        W10944   3.201  12.492  27.420 -0.1179  0.4568  0.0911
10081W        W10945   1.581  14.442  28.695 -0.2537 -0.1229  0.1291
10082W        W10946   3.359  11.964   2.874  0.2576  0.0980 -0.1271
10083W        W10947   1.053  10.482   2.972 -0.1055 -0.3396 -0.3216
10084W        W10948   3.214  12.413   3.189  0.2320  0.1834  0.0449
10085W        W10949   3.459  15.038   3.667 -0.0647 -0.2540  0.1681
10086W        W10950   3.017  11.673   2.621 -0.3849 -0.0282 -0.0461
10087W        W10951   0.325  11.357   3.403 -0.1085 -0.1670 -0.2147
10088W        W10952   3.175  13.596   3.357 -0.2442  0.6014  0.2160
10089W        W10953   1.198  11.137   3.370  0.3378 -0.0706  0.0282
10090W        W10954  28.452  14.153   6.362  0.3916 -0.2387 -0.2128
10091W        W10955   0.996  13.521   2.440 -0.1461 -0.0880 -0.2576
10092W        W10956   2.855  12.271  28.791 -0.0484  0.0245  0.1583
10093W        W10957   3.792  13.513   0.486  0.1193  0.4884  0.0325
10094W        W10958   1.513  13.314   4.044  0.0602  0.0149 -0.2139
10095W        W10959   3.729  12.212   2.190 -0.0642  0.0123 -0.0219
10096W        W10960   4.574  11.289   4.343 -0.0759  0.3135 -0.0639
10097W        W10961   4.101  14.102   2.126  0.1819 -0.0741  0.1458
10098W        W10962  27.938  14.460   4.495  0.1775  0.0215 -0.2574
10099W        W10963   3.872   9.038   0.151 -0.0506  0.2080  0.2019
10100W        W10964   1.741  13.219  27.049 -0.0684  0.0413  0.0186
10101W        W10965   3.338  13.439   0.805  0.2446  0.0091 -0.0880
10102W        W10966   4.844  11.953  28.892  0.1782 -0.4250 -0.1488
10103W        W10967   2.278  11.250   1.289  0.1592 -0.0984  0.0563
10104W        W10968   2.932  12.596   4.041 -0.0610 -0.1223  0.2166
10105W        W10969   1.380  14.222   0.998  0.3862  0.1160  0.1817
10106W        W10970   3.215  12.362   0.867 -0.0251  0.2564  0.0800
10107W        W10971   2.550  10.986   2.172  0.3817  0.0407  0.0349
10108W        W10972   3.263  14.104   1.694  0.0886 -0.2954 -0.0987
10109W        W10973   0.880   9.593   6.601  0.2022 -0.1443 -0.2832
10110W        W10974   1.544  12.850   0.072  0.0684  0.1538 -0.0858
10111W        W10975   1.913  12.655   3.276 -0.2231 -0.1446  0.1265
10112W        W10976  27.943  10.783   4.778  0.2010 -0.0120  0.3200
10113W        W10977   3.279  13.599   4.800 -0.3964  0.0129  0.2679
10114W        W10978   3.705  12.556   3.182 -0.1049  0.1881 -0.1822
10115W        W10979   2.630  14.735  27.600 -0.1137 -0.0600  0.0443
10116W        W10980  28.297  15.742   2.039  0.1445 -0.2724  0.1745
10117W        W10981   5.613  12.016   5.404  0.0151  0.1829  0.3133
10118W        W10982   0.895  11.156   3.787 -0.0370 -0.2214  0.1459
10119W        W10983   3.471  15.035   1.886  0.0270 -0.0115  0.0524
10120W        W10984  29.097  15.475   4.165 -0.3414  0.0373 -0.0179
10121W        W10985   3.162   9.524   0.609 -0.0147 -0.1997 -0.0363
10122W        W10986   1.053  13.554   5.271  0.0527 -0.0055  0.1416
10123W        W10987   2.486  12.480   2.549  0.0115 -0.0594 -0.0179
10124W        W10988   3.036  12.375   4.963  0.2616  0.1782  0.0618
10125W        W10989  27.665  15.399   2.649  0.2166  0.0848  0.1037
10126W        W10990   2.006  15.056   3.773  0.3246 -0.1345  0.0111
10127W        W10991   2.901  12.733   2.458 -0.3754 -0.4122 -0.0262
10128W        W10992   1.683   9.918   2.229 -0.0827 -0.1441  0.1210
10129W        W10993   1.945  11.798   3.585 -0.1477 -0.0905  0.0684
10130W        W10994   4.493  10.455   1.264 -0.1426 -0.3053 -0.0780
10131W        W10995   1.093  16.570   4.202  0.1134 -0.0520  0.1946
10132W        W10996   3.951  14.696   0.235  0.0261 -0.2162  0.2274
10133W        W10997   2.720  12.982   3.775 -0.1627 -0.3166  0.1187
10134W        W10998   3.169  12.765   1.315  0.1581  0.0153 -0.0589
10135W        W10999   2.993  11.845   1.399  0.2786 -0.4786 -0.0256
10136W        W11000   4.420  12.599  28.565 -0.0139  0.0808  0.0753
10137W        W11001   2.424  11.746   2.008  0.1503 -0.1003 -0.2563
10138W        W11002   0.427  13.214  28.475 -0.0967  0.2406 -0.0063
10139W        W11003   1.448  11.731   0.332 -0.2642 -0.1829 -0.0412
10140W        W11004   1.350  13.307   0.893 -0.1613 -0.0897 -0.0602
10141W        W11005   1.091  12.533   3.475 -0.1716 -0.0787 -0.1200
10142W        W11006   6.179  12.521  28.487 -0.0271  0.0981  0.1870
10143W        W11007   4.325   9.762   2.519  0.1337 -0.2674  0.0116
10144W        W11008   4.504  13.854   2.417 -0.0221  0.2024 -0.0089
10145W        W11009   5.389  11.915   3.579 -0.1089  0.1039 -0.0487
10146W        W11010   2.258  14.179   2.144 -0.0553 -0.1502 -0.0303
10147W        W11011   1.815  14.825   4.649  0.1322  0.0875  0.0196
10148W        W11012   6.552  12.198   0.632 -0.1355 -0.0461 -0.0957
10149W        W11013   2.291  14.520  28.416  0.3966 -0.0442 -0.1767
10150W        W11014   1.753  12.868  28.781 -0.3621  0.0160  0.2977
10151W        W11015   0.611  14.704   1.597  0.0889 -0.1224  0.0179
10152W        W11016   2.199   7.731   3.296 -0.1010 -0.2266  0.2557
10153W        W11017   0.827  11.195   4.691 -0.0106  0.0008 -0.1135
10154W        W11018   2.043  14.967   0.095  0.0167 -0.1726  0.1038
10155W        W11019   1.879  13.674   1.581  0.1656  0.0096  0.0931
10156W        W11020   1.835  13.531   2.915 -0.0330  0.0855 -0.1270
10157W        W11021   2.856  14.473   0.166  0.3019  0.0191  0.0969
10158W        W11022   0.882   8.049   1.470  0.0137 -0.0249 -0.1978
10159W        W11023   0.479  14.729   0.564 -0.0072 -0.1080  0.3388
10160W        W11024  28.585  12.469   2.220 -0.1208  0.0705  0.0966
10161W        W11025   4.415  11.982   2.733  0.1602  0.0037  0.0826
10162W        W11026   2.306  12.530  27.551  0.2330 -0.0527 -0.2155
10163W        W11027   3.801  13.103   2.807 -0.1848 -0.3370  0.0124
10164W        W11028   4.840  14.442   1.948  0.2234  0.0985  0.2236
10165W        W11029   2.010  14.796  28.711 -0.1014 -0.1101  0.1057
10166W        W11030   3.911  11.749   1.215 -0.0552 -0.0831  0.1359
10167W        W11031   1.172  15.473   3.310  0.0777  0.1358 -0.1228
10168W        W11032   0.343   9.931   5.047 -0.1528 -0.0094 -0.0038
10169W        W11033   2.309  11.844   4.728 -0.1758 -0.1606  0.1941
10170W        W11034   1.139  12.762   2.977  0.0183  0.0769  0.1762
10171W        W11035   1.517  14.725   0.914  0.3014 -0.1432 -0.4345
10172W        W11036   2.076  12.338   1.413 -0.3486  0.1364  0.0218
10173W        W11037   2.356  13.482   3.003  0.0645 -0.2724  0.2058
10174W        W11038   2.983   9.164   0.993 -0.0490  0.4452 -0.1043
10175W        W11039   4.724  15.193   2.962  0.0349 -0.2616 -0.1475
10176W        W11040   1.175  12.330   2.736 -0.2169 -0.1547  0.0411
10177W        W11041   1.255  15.462   2.739 -0.1294 -0.0956 -0.0851
10178W        W11042   3.461  14.275  28.717  0.1099 -0.2402 -0.3654
10179W        W11043   3.373  15.080   1.382  0.1942 -0.0388 -0.1150
10180W        W11044   5.888  11.045   0.880  0.1650  0.0323 -0.1405
10181W        W11045   2.932  12.317   1.800 -0.0118  0.1410 -0.0543
10182W        W11046   0.754  11.220   0.873  0.2071  0.1183  0.2849
10183W        W11047   3.467  13.299  27.422 -0.2300 -0.0807 -0.1268
10184W        W11048   4.674  12.535   2.299  0.2294 -0.1328  0.1353
10185W        W11049   3.949  15.577  28.210  0.3529  0.0112 -0.2743
10186W        W11050   0.680  13.698   3.633  0.1872 -0.1462  0.0473
10187W        W11051   2.302  13.618   3.668  0.4298  0.2450  0.3081
10188W        W11052   3.709  12.979   3.971 -0.1123 -0.1736  0.0244
10189W        W11053   3.846   9.832   2.796  0.1237  0.0248  0.0585
10190W        W11054  27.931  10.193   3.930  0.2335  0.1411  0.0875
10191W        W11055   0.079  14.731   2.900 -0.0971 -0.1302  0.0308
10192W        W11056  28.550  12.401   1.695 -0.1816  0.3462 -0.4116
10193W        W11057   2.490  13.816   4.371  0.1921 -0.0517  0.1078
10194W        W11058   4.986  11.192   1.931 -0.0697  0.1750  0.1556
10195W        W11059   4.834  14.874   3.938  0.1618 -0.2129  0.0169
10196W        W11060   4.821  11.252   3.006  0.1020 -0.1638  0.0234
10197W        W11061   3.962  13.174   0.046 -0.2179  0.0682  0.0425
10198W        W11062   4.669  12.820   5.508 -0.1533  0.2417 -0.3172
10199W        W11063   0.756  13.089   2.249 -0.2334 -0.1319 -0.1832
10200W        W11064   3.035  13.810   0.778 -0.2896  0.0253 -0.0342
10201W        W11065   1.554  14.173   5.215  0.0360  0.0448 -0.2168
10202W        W11066   1.471  15.851   2.514  0.0109 -0.1323 -0.1156
10203W        W11067   3.965  11.612   0.438  0.1344 -0.2052  0.1512
10204W        W11068   2.796  13.799   6.168 -0.2503 -0.1799 -0.0944
10205W        W11069  28.976  15.035   0.237 -0.0163  0.0920 -0.1515
10206W        W11070   2.013  12.368   2.799  0.1300  0.2242  0.0371
10207W        W11071   2.208  15.142   0.852  0.0697 -0.2364 -0.1561
10208W        W11072   6.282  15.185   5.228  0.1830  0.2706  0.0946
10209W        W11073   1.969  14.483  27.593 -0.2005 -0.0029 -0.1005
10210W        W11074   0.191  11.035   0.297 -0.0102  0.0171  0.0226
10211W        W11075  28.888  15.656   7.791  0.0658  0.2059  0.2032
10212W        W11076  29.100  12.281   4.797 -0.0194  0.1667  0.1357
10213W        W11077   2.817  14.152   4.222 -0.0786 -0.1353  0.2015
10214W        W11078   2.383  15.806   5.184  0.0100  0.0554 -0.0131
10215W        W11079   2.051  15.453   5.110 -0.1967  0.0842 -0.0396
10216W        W11080  28.133   7.778   6.171  0.0216  0.1717  0.2219
10217W        W11081  26.961  14.188   4.503 -0.1614 -0.1303  0.0452
10218W        W11082   1.686  12.813   4.748 -0.3690 -0.1070  0.0881
10219W        W11083   2.204  15.687   5.669  0.1306 -0.0426  0.2815
10220W        W11084  26.978  10.663   7.147  0.0411  0.2687 -0.2587
10221W        W11085  29.003  11.106   4.379 -0.1054 -0.1463 -0.1495
10222W        W11086   3.913  12.223   5.644 -0.2134 -0.0395  0.1737
10223W        W11087   5.782  13.404   6.218  0.3972  0.0153 -0.0481
10224W        W11088   4.662  11.640   7.368  0.0535  0.1963  0.1080
10225W        W11089  28.108  15.062   6.164 -0.4861 -0.1891 -0.1748
10226W        W11090   2.765  15.118  10.388  0.2236 -0.1439 -0.1067
10227W        W11091   4.807  14.159   5.633  0.0637 -0.0089 -0.1943
10228W        W11092   0.785  13.985   6.050 -0.1889 -0.2007  0.2233
10229W        W11093  28.096   9.552   9.047 -0.1305 -0.0091  0.0587
10230W        W11094   5.293  10.227   7.828 -0.1532 -0.1645  0.0153
10231W        W11095   2.749  12.810   7.282  0.0878 -0.0550 -0.2475
10232W        W11096   0.932  10.265   4.376 -0.1493 -0.2009 -0.2777
10233W        W11097   3.039  13.333   5.629 -0.1248  0.1084 -0.1088
10234W        W11098   1.871  14.518   5.465 -0.0241 -0.0616  0.1871
10235W        W11099   1.744  11.612   6.919  0.1155  0.2524 -0.0929
10236W        W11100   1.452  12.502   6.771 -0.0664  0.2818  0.0223
10237W        W11101   0.923  11.044   5.643  0.0146  0.2519 -0.0788
10238W        W11102   1.218  13.606   4.821 -0.4703 -0.1334  0.0715
10239W        W11103   1.603  11.899   6.008  0.0828 -0.0523  0.0273
10240W        W11104   0.079   9.672   5.377 -0.3072 -0.1302  0.0207
10241W        W11105   2.390  13.287   5.040 -0.0846 -0.0826 -0.0725
10242W        W11106   1.091  13.689   6.287  0.0733 -0.1094  0.1313
10243W        W11107   3.133  14.262   7.439 -0.2519  0.1601  0.1122
10244W        W11108   0.413  13.886   8.055 -0.0847  0.2602  0.0087
10245W        W11109   1.416   9.143   9.768  0.1046 -0.1617 -0.4224
10246W        W11110   3.175  11.884   6.255 -0.2308  0.1781 -0.1447
10247W        W11111   0.513  10.544   5.071 -0.2475  0.0217 -0.2124
10248W        W11112   1.528  12.258   4.306 -0.0979  0.1239 -0.1497
10249W        W11113   2.029  11.089   4.241 -0.0297 -0.1536  0.0179
10250W        W11114   1.422  13.177   5.102 -0.0689  0.2461  0.2081
10251W        W11115   2.488  12.824   4.210 -0.0959 -0.2051 -0.4889
10252W        W11116   3.215  12.388   6.481  0.0834 -0.2431 -0.0216
10253W        W11117   2.219  13.873   6.543 -0.0153 -0.1335  0.2272
10254W        W11118   4.319  14.765   3.524 -0.0358  0.0983 -0.0052
10255W        W11119  28.619  15.481   3.883 -0.3323  0.2978  0.0113
10256W        W11120   3.021  13.768   5.191 -0.2365 -0.1881 -0.0238
10257W        W11121  28.749   9.557   5.795 -0.3008  0.0423  0.2837
10258W        W11122   3.328  14.072   5.492 -0.2784  0.0333 -0.0215
10259W        W11123   1.266  13.109   3.335 -0.0269  0.0192 -0.3440
10260W        W11124   2.166  11.608   5.164  0.0927  0.1384 -0.1626
10261W        W11125   1.824  11.121   5.796 -0.1166  0.1947 -0.0177
10262W        W11126  28.168  11.071   6.544 -0.1989  0.0338 -0.0529
10263W        W11127   3.264  16.972   5.483 -0.1084 -0.4878 -0.0364
10264W        W11128   3.005   9.721   3.373 -0.0761  0.1507 -0.1053
10265W        W11129   1.678  12.341   3.654 -0.1861 -0.1502 -0.2039
10266W        W11130   0.845  12.440   4.293 -0.1670 -0.0597 -0.2336
10267W        W11131  28.918  10.545   4.363 -0.0748  0.2323  0.0344
10268W        W11132   2.123  13.411   6.717  0.0397 -0.1302 -0.0422
10269W        W11133   0.879  12.647   5.870  0.0433  0.1293  0.2972
10270W        W11134   2.298  14.563   4.576  0.0498 -0.3105  0.1076
10271W        W11135   0.545  11.603   6.012 -0.2211  0.3887  0.2679
10272W        W11136   1.240  15.041   6.970  0.0588  0.0948 -0.0936
10273W        W11137  28.640  11.296   7.263 -0.0021 -0.0124  0.1780
10274W        W11138   2.190  13.275   5.851 -0.0708  0.1343  0.0049
10275W        W11139  28.100   8.522   6.830  0.2037 -0.2299  0.0081
10276W        W11140   4.724  10.211   5.524  0.0346 -0.0471 -0.0951
10277W        W11141  27.837  14.218   6.140 -0.1018 -0.2471  0.1183
10278W        W11142  27.561  11.208   4.493  0.1687  0.0910 -0.0459
10279W        W11143   1.216  15.093   5.066 -0.0864  0.0138  0.2718
10280W        W11144   0.942  10.205   3.727 -0.1790  0.2788  0.2873
10281W        W11145   1.107  11.763   6.007 -0.2811 -0.0211 -0.0666
10282W        W11146   0.449   9.911   3.858  0.2018 -0.1446 -0.4150
10283W        W11147   3.278  11.918   5.723 -0.1754  0.4648 -0.1768
10284W        W11148   1.853  12.602   5.147  0.1310 -0.0029 -0.0229
10285W        W11149   3.752  14.066   4.673  0.2398 -0.1452 -0.3257
10286W        W11150   1.912  12.194   5.722 -0.0414  0.1105 -0.0604
10287W        W11151  27.263  14.097   6.784  0.0767 -0.3805 -0.0345
10288W        W11152   1.305  11.979   7.923 -0.1371  0.0333  0.0268
10289W        W11153   2.518  14.191   6.123  0.1068  0.2053 -0.0143
10290W        W11154   2.193  14.916   4.954 -0.1217 -0.0784  0.1830
10291W        W11155  28.545  12.733   6.313 -0.1501 -0.0125 -0.0277
10292W        W11156   0.299  11.911   5.537  0.0575  0.1703 -0.0380
10293W        W11157  28.233  12.544   5.924 -0.0515 -0.2358  0.0193
10294W        W11158   1.375  10.991   7.782  0.3967 -0.0217 -0.2724
10295W        W11159   1.386  11.262   6.726  0.2918 -0.2762 -0.0567
10296W        W11160  28.883  10.594   5.001  0.0711  0.1273 -0.1067
10297W        W11161   2.298  16.581   5.359  0.0402 -0.0642 -0.6483
10298W        W11162   4.413  12.395   5.668  0.1126  0.2391  0.2998
10299W        W11163   1.557  13.210   7.187 -0.2450 -0.0553 -0.0465
10300W        W11164   3.762  10.082   7.245 -0.0332 -0.1323  0.2613
10301W        W11165   1.772  11.452   4.542  0.1635 -0.1646  0.2537
10302W        W11166   4.170  12.782   5.523  0.2550 -0.2409  0.1502
10303W        W11167   1.626  12.793   4.025 -0.1025  0.0074 -0.0369
10304W        W11168   0.640  11.043   5.108  0.1428 -0.2371 -0.1111
10305W        W11169   0.586   9.852   7.420 -0.0807 -0.0283  0.0957
10306W        W11170   6.213  13.872   5.674 -0.2522  0.0786 -0.1253
10307W        W11171   5.114  14.719   4.310 -0.2281 -0.3096 -0.0286
10308W        W11172   3.478  15.031   5.890 -0.0664  0.0120 -0.0877
10309W        W11173   0.507  11.772   4.382 -0.1633  0.1151 -0.0397
10310W        W11174   1.493  11.478   7.850 -0.0718 -0.4562 -0.0769
10311W        W11175   4.263  12.241   6.661 -0.0922  0.0395  0.0689
10312W        W11176   1.831  12.148   7.761 -0.0633  0.0588  0.0281
10313W        W11177   2.572   9.641   3.045 -0.0611  0.0242 -0.1028
10314W        W11178   2.870  13.110   4.277  0.0348  0.2681  0.0346
10315W        W11179   1.796  10.966   6.905  0.3535  0.2131  0.1826
10316W        W11180   2.224  10.911   6.652  0.0848 -0.1157  0.0394
10317W        W11181   0.184  15.800   3.552  0.0557 -0.4372 -0.0244
10318W        W11182   2.691  12.015   6.230  0.0210  0.1512  0.0431
10319W        W11183   3.884  11.148   7.165 -0.1959  0.0162 -0.1115
10320W        W11184  27.996  12.950   3.613 -0.0013 -0.0834 -0.4631
10321W        W11185  29.057   9.700   8.474 -0.3220 -0.0970  0.1041
10322W        W11186   2.126  15.324   7.078  0.0112  0.2893 -0.0643
10323W        W11187   4.576  12.634   6.756 -0.2659 -0.2018  0.2452
10324W        W11188   2.354  13.745   5.995  0.2253  0.0242 -0.0841
10325W        W11189   2.525  10.991   4.405  0.0300  0.0731 -0.0233
10326W        W11190   1.696  13.618   4.923  0.0969 -0.0661 -0.0177
10327W        W11191   5.467   9.010   5.468 -0.1203  0.2037  0.0278
10328W        W11192   1.101  12.775   6.507  0.0269  0.1140 -0.1453
10329W        W11193   1.796  11.738   8.210  0.0806  0.0737 -0.0166
10330W        W11194   6.491  15.596   5.028 -0.0692 -0.1055 -0.1433
10331W        W11195   3.782  10.972   4.890 -0.0878  0.0825 -0.1739
10332W        W11196   1.830  14.347   3.244 -0.0609  0.1687 -0.3348
10333W        W11197   2.665  11.170   6.861  0.2329  0.1821  0.2703
10334W        W11198   2.697  13.627   4.789 -0.3186 -0.2610 -0.2906
10335W        W11199   3.181  12.899   4.943 -0.2060  0.0775 -0.1967
10336W        W11200   2.240  13.342   8.921  0.3342 -0.0496  0.3956
10337W        W11201   0.333  12.467   4.991 -0.1416  0.0049 -0.1127
10338W        W11202   4.160  13.277   7.341  0.0544  0.2533 -0.1295
10339W        W11203   4.281  15.235   6.857 -0.0499 -0.0061  0.1569
10340W        W11204   3.132  16.632   5.849  0.0708  0.1112  0.0891
10341W        W11205   2.070  14.173   7.160  0.1581  0.0146 -0.0710
10342W        W11206   0.981  11.494   9.237  0.1185  0.3425 -0.3216
10343W        W11207   2.863  16.388   4.724  0.2041  0.0027 -0.0767
10344W        W11208   4.774  11.095   6.755  0.1950 -0.1824  0.1203
10345W        W11209   2.221  13.104   8.172 -0.0316 -0.1097 -0.5318
10346W        W11210   0.670  10.356   7.230 -0.1493  0.1386 -0.2409
10347W        W11211   3.311  13.312   5.206 -0.0045  0.2904 -0.2327
10348W        W11212  28.907  11.031   8.539  0.1953 -0.3777 -0.1979
10349W        W11213   0.583  13.168   7.008 -0.2050  0.0180 -0.1625
10350W        W11214   2.697  14.347   3.760 -0.1498  0.0791 -0.0937
10351W        W11215  27.866   8.471   2.060 -0.3797 -0.2808 -0.1094
10352W        W11216   2.235   9.985   6.988 -0.0400 -0.1855  0.1527
10353W        W11217   1.338  16.500   1.731  0.0941  0.0705  0.0197
10354W        W11218  28.219   9.986   4.344 -0.0706 -0.0762  0.0221
10355W        W11219   0.681  13.618   6.891 -0.1666  0.3281  0.1927
10356W        W11220   2.042  14.158   4.524  0.3342 -0.2720 -0.2962
10357W        W11221   1.744  11.820   4.922 -0.1297 -0.1356 -0.2831
10358W        W11222   1.572  15.896   3.512 -0.0601  0.0359  0.1461
10359W        W11223   0.999  15.027   3.677  0.0230 -0.0873 -0.0382
10360W        W11224   2.952  11.970   3.225 -0.2072 -0.1124 -0.1672
10361W        W11225   2.695  13.080   6.820  0.1028  0.2871 -0.0058
10362W        W11226   0.303  12.985   4.358  0.1821  0.2599 -0.0068
10363W        W11227   1.780  13.622   3.746  0.1063  0.1476 -0.1004
10364W        W11228   0.478  10.025   4.348  0.2072 -0.0072 -0.0813
10365W        W11229  29.032  12.041   9.439  0.1012  0.1437  0.2253
10366W        W11230   1.398  10.565   7.457  0.2769 -0.5178  0.0381
10367W        W11231   1.959  10.600   5.478 -0.1661 -0.1521 -0.2253
10368W        W11232   2.527  14.139   4.742 -0.1241  0.2446  0.2261
10369W        W11233   0.759   7.806   5.572 -0.0346  0.0218 -0.1056
10370W        W11234   1.248  14.339   5.886 -0.1027 -0.1824  0.1911
10371W        W11235   0.369  11.255   6.716 -0.1860  0.3372 -0.3282
10372W        W11236   1.842  15.231   5.569 -0.0069  0.2443 -0.0381
10373W        W11237   0.268  12.518   7.120 -0.1004  0.1621 -0.1585
10374W        W11238   2.480  12.533   6.888  0.0435 -0.0758  0.4087
10375W        W11239  25.929  10.851   7.315 -0.2206  0.2050 -0.2687
10376W        W11240  28.855  11.780   5.519 -0.0639  0.2608 -0.0740
10377W        W11241   0.764  12.226   3.837 -0.2024 -0.1184  0.1544
10378W        W11242   2.023  14.837   2.280 -0.0226  0.0078 -0.1678
10379W        W11243   5.890  16.405   7.542  0.0870  0.0798  0.0656
10380W        W11244  27.814  13.093   3.217 -0.2687  0.3782  0.0927
10381W        W11245   1.933  11.559   4.050  0.0460 -0.1473  0.2545
10382W        W11246   3.569   9.642   7.054 -0.2640 -0.0569  0.0072
10383W        W11247   3.764  14.038   5.191 -0.0276 -0.3615  0.0701
10384W        W11248  28.543  12.741   4.814 -0.1746  0.5629  0.0320
10385W        W11249   2.364  10.697   6.172 -0.3497  0.1427 -0.0006
10386W        W11250   3.165  10.990   6.597 -0.1609  0.2470  0.1298
10387W        W11251   0.607  13.317   8.055  0.1485  0.0254 -0.1758
10388W        W11252   1.554  15.425   8.310  0.1198 -0.2929 -0.3506
10389W        W11253   1.962  14.471   1.856  0.0027 -0.2908  0.4023
10390W        W11254   2.617  14.197   7.166  0.0457 -0.1364  0.1755
10391W        W11255  28.941  15.505   3.424 -0.6838 -0.0264  0.1973
10392W        W11256   3.658  13.760   2.776  0.1243 -0.0348 -0.2534
10393W        W11257   2.560  12.463   5.920 -0.1984  0.1449 -0.2551
10394W        W11258  28.219  11.983   6.027  0.0839 -0.2588  0.0686
10395W        W11259   3.905   9.946   3.694  0.2826 -0.2405  0.1415
10396W        W11260   6.963  15.317   6.978  0.1012  0.0294  0.1903
10397W        W11261   3.992  10.082   4.551  0.0747 -0.2060 -0.0691
10398W        W11262  27.145   9.484   5.246  0.1765  0.1123 -0.0124
10399W        W11263   1.807  15.870   4.960  0.0623 -0.0232 -0.0747
10400W        W11264   0.732  13.960   7.229 -0.3098  0.0152 -0.2609
10401W        W11265   3.450  11.761   1.489 -0.0477 -0.1066 -0.0769
10402W        W11266   0.145  12.982   7.322  0.0719 -0.0241 -0.0015
10403W        W11267   1.762  11.315   7.355 -0.2205 -0.2724  0.0382
10404W        W11268   1.207  11.874   5.475  0.0578 -0.0465 -0.1147
10405W        W11269   0.007  11.242   7.130  0.2223  0.4706 -0.6974
10406W        W11270   0.194  11.932   4.017 -0.0679 -0.0067 -0.1016
10407W        W11271   2.810  12.074   3.828 -0.0175  0.1026  0.0480
10408W        W11272  28.345  10.617   6.144  0.0313  0.1177 -0.2380
10409W        W11273   1.205  11.674   7.016  0.3187  0.1427 -0.1702
10410W        W11274   0.207  12.035   7.326  0.3158 -0.1159  0.2661
10411W        W11275  28.290  12.282   4.952 -0.3163 -0.2496 -0.2135
10412W        W11276   2.894  11.645   8.327  0.0345 -0.0852  0.2142
10413W        W11277   4.928  11.452   4.791 -0.0699  0.0299 -0.0585
10414W        W11278   2.698   8.529   3.597  0.0979 -0.3465 -0.1552
10415W        W11279   1.274  11.330   6.211  0.0005 -0.0319 -0.0236
10416W        W11280  28.184   9.445   5.253 -0.4072  0.0922  0.1812
10417W        W11281   1.915  13.308   9.967 -0.0137 -0.0708  0.0570
10418W        W11282   2.840  11.752   5.829  0.1978 -0.1341 -0.1136
10419W        W11283   1.677  16.301   5.287  0.1751  0.0308  0.0758
10420W        W11284  27.808  16.250   5.793 -0.0207 -0.0451  0.0876
10421W        W11285   3.593  13.639   5.529  0.0211  0.0037 -0.2232
10422W        W11286   2.306  10.618   7.868 -0.2824 -0.3716  0.0739
10423W        W11287  28.751  14.244   4.738  0.2027 -0.0347 -0.2465
10424W        W11288   1.745  10.126   4.889 -0.2077 -0.0973 -0.2115
10425W        W11289   0.017  13.317   8.253  0.0282 -0.0107  0.3317
10426W        W11290   5.542  11.677   5.776 -0.0210  0.0795 -0.0763
10427W        W11291   2.266  12.716   4.917  0.0709  0.2594 -0.1438
10428W        W11292   4.081  14.354   4.992  0.0514  0.1666  0.1441
10429W        W11293   2.347  10.446   7.385  0.1297 -0.2008  0.0376
10430W        W11294   1.721  14.943   5.189  0.0594  0.1908 -0.2133
10431W        W11295   5.199  10.593   8.913 -0.0470 -0.3500 -0.0884
10432W        W11296  28.259  10.056   7.850 -0.0901  0.0246  0.0332
10433W        W11297  28.755  14.748   6.338 -0.0936  0.2972  0.0633
10434W        W11298  28.444   8.069   3.766  0.1719  0.3231  0.1223
10435W        W11299   4.243  13.997   3.979 -0.0421  0.1806  0.1344
10436W        W11300  29.139  10.811   5.939  0.0236  0.1208 -0.3378
10437W        W11301   3.053  15.309   6.153 -0.1425 -0.2619 -0.0373
10438W        W11302   6.398  11.339   8.020 -0.1688  0.0437 -0.2804
10439W        W11303   3.373  12.236   4.503  0.1511 -0.1417  0.1977
10440W        W11304   0.670  12.682   6.859 -0.2384  0.1571 -0.0338
10441W        W11305   0.200  11.856   9.130 -0.3021  0.0073 -0.3110
10442W        W11306   4.433  11.250   8.030  0.0013 -0.0155 -0.2120
10443W        W11307   1.851  11.005   3.754  0.1951 -0.1247  0.3190
10444W        W11308   2.508  10.572   5.477  0.0172 -0.4359  0.0385
10445W        W11309   2.178  10.212   5.139 -0.2579 -0.2133 -0.0697
10446W        W11310   2.480  13.423   6.399 -0.2821 -0.0688 -0.3720
10447W        W11311   1.374  12.856   6.001  0.1928 -0.0853  0.0218
10448W        W11312   1.339   9.726   7.100 -0.0683  0.0661 -0.0419
10449W        W11313   0.955  12.785   8.463 -0.1385  0.0967 -0.1488
10450W        W11314   3.989  15.230   6.027 -0.0085  0.1062  0.4002
10451W        W11315   5.304  11.837   5.000 -0.2816 -0.0291  0.2262
10452W        W11316   0.021  13.848   8.492  0.0436  0.8109 -0.1531
10453W        W11317   0.505   7.878   4.775  0.2210  0.0595 -0.0191
10454W        W11318  28.433  11.585   6.318 -0.1026 -0.2906  0.0502
10455W        W11319   2.908  13.291   6.153 -0.3027 -0.1319  0.1649
10456W        W11320   1.638  11.926   3.947  0.1636  0.0260  0.3417
10457W        W11321   3.268  13.236   7.971 -0.2986 -0.0572  0.3077
10458W        W11322  27.768  13.941   3.487 -0.1315  0.0839  0.1838
10459W        W11323   2.884  11.520   5.399  0.5391 -0.0325  0.3265
10460W        W11324   2.913  12.319   5.493  0.0030 -0.3238  0.1090
10461W        W11325   0.077  12.258   6.395  0.0461  0.1901  0.0816
10462W        W11326   1.259  15.982   7.643 -0.1669  0.0269  0.2555
10463W        W11327   3.434  17.115   7.096  0.0778 -0.2545 -0.2897
10464W        W11328   2.571  11.327   4.959 -0.0607  0.0558  0.1272
10465W        W11329   1.134  13.076   5.553  0.1821  0.0605  0.0658
10466W        W11330   3.976  12.799   4.965  0.1950  0.4938  0.1947
10467W        W11331   2.536  11.920   5.378  0.2610  0.0002  0.0419
10468W        W11332   2.761   9.804   6.283  0.5611  0.0504 -0.2169
10469W        W11333   4.117  12.558   4.098 -0.1756 -0.2839  0.2634
10470W        W11334   3.730   8.598   6.160 -0.0706  0.2015 -0.3313
10471W        W11335   0.994  10.593   6.965  0.2023  0.0667 -0.1404
10472W        W11336  28.843  12.973   8.419 -0.1544  0.0533 -0.0812
10473W        W11337   0.946  11.225   6.972  0.2587  0.2274 -0.1059
10474W        W11338   0.241   8.713   7.917  0.2097 -0.1289 -0.0621
10475W        W11339  28.428  14.810   3.028 -0.3304  0.0383  0.2833
10476W        W11340   1.678  11.236   8.253  0.0476 -0.2238  0.0414
10477W        W11341   0.762  14.445   5.092 -0.0952  0.0024 -0.0616
10478W        W11342   4.146  13.828   3.531  0.1312  0.1402 -0.0860
10479W        W11343  28.893  11.471   8.215 -0.0428  0.4064  0.2544
10480W        W11344   1.919  10.288   2.510 -0.2616  0.3112 -0.1273
10481W        W11345  28.888  16.445   3.735  0.3045  0.4113 -0.2932
10482W        W11346  28.924  12.008   8.309  0.0647 -0.0298 -0.0013
10483W        W11347  28.863  11.439   5.991 -0.1444  0.2235 -0.0209
10484W        W11348  28.851  12.172   7.442  0.0301  0.1526 -0.0585
10485W        W11349   1.805  14.858   6.376  0.0598  0.0576 -0.0216
10486W        W11350   1.887  12.341   8.667 -0.3606  0.0433  0.0816
10487W        W11351  28.880  10.472   6.326 -0.3576 -0.2260  0.2389
10488W        W11352   1.773  11.591   6.395  0.0045 -0.0256 -0.1831
10489W        W11353  28.759  12.418   6.696  0.1473 -0.1915 -0.1582
10490W        W11354   3.045  12.253   8.187  0.0569  0.0289  0.2699
10491W        W11355   2.375  12.006   7.777 -0.0086 -0.1869 -0.0313
10492W        W11356   1.604  13.241   1.293 -0.2557 -0.4349  0.1166
10493W        W11357   1.493  12.721   5.463 -0.2832 -0.1894  0.0712
10494W        W11358   0.759  16.636   5.841  0.2234  0.1772  0.0447
10495W        W11359   1.674  11.372   5.100  0.1679 -0.2279  0.1913
10496W        W11360   4.553  11.975   6.903 -0.2146  0.3723  0.5860
10497W        W11361   1.651  14.087   4.047 -0.1653 -0.4053 -0.1598
10498W        W11362   0.641  11.967   8.608 -0.1138  0.2279  0.1639
10499W        W11363   5.004  10.665   5.569  0.0001 -0.1441 -0.0676
10500W        W11364   2.873  13.929   5.660 -0.0112 -0.1434 -0.2311
10501W        W11365   1.144  11.998   4.068 -0.0330  0.2294 -0.0052
10502W        W11366   1.399  11.768   4.408 -0.0539  0.0991  0.0850
10503W        W11367   4.300  13.523   6.143 -0.2138 -0.0696 -0.0244
10504W        W11368  26.677  10.866   6.807  0.1929 -0.4917  0.0833
10505W        W11369   0.877  11.732   1.729  0.1245  0.0094  0.0428
10506W        W11370   3.766  11.142   4.380  0.0713 -0.1913  0.0650
10507W        W11371   2.692   9.329   6.612  0.0285 -0.2331 -0.1918
10508W        W11372   4.110  13.623   5.402 -0.2969 -0.1099 -0.0626
10509W        W11373   2.817  11.209   4.038  0.0875  0.3212 -0.2129
10510W        W11374   1.752  15.066   6.858  0.1219 -0.0052 -0.1795
10511W        W11375   1.141  16.804   6.498 -0.1361  0.1395  0.3584
10512W        W11376   0.375  11.312   4.556 -0.1602  0.0701 -0.1836
10513W        W11377   1.481  13.471   7.586  0.2305 -0.2328  0.1640
10514W        W11378   5.007  12.558   3.847 -0.0674 -0.1672 -0.0391
10515W        W11379   2.984  13.593   4.263 -0.1799 -0.1775 -0.0516
10516W        W11380   1.611  15.483   8.997  0.2598  0.0076 -0.0940
10517W        W11381   3.235  13.688   5.914  0.0655 -0.0026  0.5182
10518W        W11382   2.575   9.832   5.073 -0.1571  0.0597  0.0977
10519W        W11383   0.716  13.921   4.106 -0.0348 -0.0841  0.1768
10520W        W11384   0.758  16.505   6.329  0.2898  0.2012 -0.3193
10521W        W11385   1.186  10.838   6.521 -0.1620  0.2047  0.1292
10522W        W11386   1.603  12.661   7.209  0.0652  0.1743 -0.2303
10523W        W11387   0.652  12.487   6.399 -0.1220  0.3065  0.3202
10524W        W11388   3.667  12.648   5.301  0.0715 -0.2412 -0.2169
10525W        W11389   1.447  12.471   7.643 -0.2880  0.2021  0.3645
10526W        W11390  28.523  12.894   6.881 -0.0066 -0.0568 -0.4844
10527W        W11391  28.649  10.217   4.604  0.0220 -0.2849 -0.1316
10528W        W11392  27.694  10.733   2.698 -0.2999 -0.0338 -0.1223
10529W        W11393   0.932  13.282   6.625  0.5079  0.1734  0.2777
10530W        W11394   1.042  12.969   7.017 -0.0179 -0.0842 -0.0415
10531W        W11395   1.260  13.510   6.850 -0.1418  0.1993 -0.1753
10532W        W11396   1.403  16.086   5.743  0.0548  0.0843  0.0973
10533W        W11397  29.122  11.383   5.468  0.0077  0.3351  0.0854
10534W        W11398   1.913  12.289   4.736 -0.1385 -0.1772  0.2683
10535W        W11399   4.830  16.287   5.151 -0.1337 -0.1779  0.4471
10536W        W11400   2.954  15.356   4.699  0.1200  0.0674  0.0992
10537W        W11401   1.959  10.110   6.185  0.0564 -0.4195 -0.0543
10538W        W11402   0.201  13.123   5.312  0.1710 -0.2341 -0.1864
10539W        W11403   2.229   9.329   3.819  0.1022  0.0109  0.1151
10540W        W11404   2.678  12.713   5.175 -0.2210 -0.3115  0.1001
10541W        W11405   0.151  10.761   4.635 -0.1529 -0.3017 -0.0556
10542W        W11406   1.397  10.909   5.925  0.0859  0.1686  0.3280
10543W        W11407   4.428  11.032   8.451  0.0881 -0.1160  0.0820
10544W        W11408   1.976  13.249   7.487  0.1636  0.0096 -0.0751
10545W        W11409   3.752  11.468   7.547  0.2158 -0.0552 -0.2686
10546W        W11410   2.200  11.296   7.052 -0.0727 -0.0407  0.0954
10547W        W11411   0.289  13.967   6.194 -0.0118 -0.0165 -0.2803
10548W        W11412   3.984  13.501   4.044  0.3024  0.2340  0.0349
10549W        W11413  28.805  11.903   4.742  0.1422  0.1041  0.0226
10550W        W11414  28.731  12.263   5.235  0.0311 -0.0815 -0.1645
10551W        W11415   2.722  13.984   2.571  0.2312 -0.1699 -0.0092
10552W        W11416  28.707  11.551   5.088  0.1382 -0.1076 -0.0624
10553W        W11417   1.097  10.958   4.392  0.0407 -0.4375 -0.1040
10554W        W11418   0.285  14.823   3.434  0.1579  0.0301 -0.3577
10555W        W11419   2.741  12.803   4.703 -0.0639 -0.0112  0.3496
10556W        W11420   2.941  13.254   8.460 -0.1186 -0.2503  0.4447
10557W        W11421  28.002  10.633   6.501 -0.3750  0.1923 -0.0155
10558W        W11422  26.900   8.084   6.023 -0.1995 -0.1950  0.0446
10559W        W11423   2.873  12.646   2.933 -0.3970 -0.1872  0.1839
10560W        W11424  28.449  11.244   8.309  0.0717  0.1096 -0.0044
10561W        W11425   2.677  12.478   6.421  0.0298  0.1078 -0.0829
10562W        W11426   1.370  11.151   3.940 -0.0359 -0.2376 -0.1776
10563W        W11427   3.918  13.400   5.830 -0.1043  0.0276  0.2647
10564W        W11428   3.166  13.972   6.947  0.0306 -0.2751 -0.1163
10565W        W11429   0.274  15.303   3.659  0.1160  0.2626 -0.2353
10566W        W11430   1.594  10.760   4.229 -0.2959  0.0938  0.0240
10567W        W11431   2.217  14.953   6.705  0.2732 -0.0806 -0.1897
10568W        W11432   1.829  10.443   7.835  0.0782 -0.2838 -0.1382
10569W        W11433   0.461  11.181   5.648 -0.0399 -0.0494 -0.0765
10570W        W11434  28.303  14.182   8.180 -0.0299 -0.0024 -0.2616
10571W        W11435  26.073  12.849   5.429 -0.3864  0.1043 -0.1968
10572W        W11436   3.878  13.437   6.985  0.4688  0.1810 -0.0647
10573W        W11437   1.921  11.907   4.388 -0.0104  0.0806 -0.0535
10574W        W11438   2.106  12.100   5.178  0.2644 -0.0577  0.0764
10575W        W11439   3.603  13.960   6.619 -0.1278  0.0260  0.3387
10576W        W11440   1.655  12.517   6.206  0.1644  0.0968  0.0185
10577W        W11441   4.362  14.820   6.652 -0.1817  0.0994  0.1099
10578W        W11442   4.368  13.276   5.646  0.3414  0.1306  0.2367
10579W        W11443   2.618  13.011   5.564  0.1433  0.1003  0.5515
10580W        W11444   3.219  12.722   4.462  0.1609  0.1834 -0.2292
10581W        W11445   1.562  13.804   4.480  0.2244  0.0406  0.0793
10582W        W11446   5.659   9.817   3.920  0.1813 -0.1123  0.1223
10583W        W11447   1.575  10.881   4.741 -0.2798  0.0218  0.0529
10584W        W11448   3.019  13.417   6.723 -0.1193  0.0684 -0.1502
10585W        W11449   2.430  15.277   5.445  0.1796  0.2765 -0.0337
10586W        W11450   0.627   8.912   7.548  0.0303 -0.0009 -0.0725
10587W        W11451   1.849  13.087   6.224  0.0830  0.0034  0.2514
10588W        W11452   4.892  14.035   8.003 -0.0845 -0.0267 -0.0342
10589W        W11453   3.187  13.756   6.421  0.0092 -0.0588  0.0819
10590W        W11454   2.176  13.984   5.530 -0.0757 -0.0159  0.0866
10591W        W11455   0.905  11.013   7.591 -0.1352  0.0894 -0.0942
10592W        W11456  28.137  12.505   4.489 -0.0581 -0.2637 -0.1728
10593W        W11457  29.120  12.134   6.908  0.1686 -0.3048  0.4585
10594W        W11458   2.872  14.312   5.116  0.1213  0.3656  0.1500
10595W        W11459   1.171  16.496   6.000  0.2676 -0.1472 -0.1119
10596W        W11460   3.659  13.985   7.679 -0.3976 -0.1019  0.3761
10597W        W11461   1.422  10.412   4.495  0.3076  0.0795 -0.0768
10598W        W11462   1.172  12.165   8.773 -0.0457  0.2085  0.1929
10599W        W11463   1.732  15.340   6.165 -0.1665 -0.1406 -0.0972
10600W        W11464   2.802  11.414   4.482 -0.2521 -0.0454  0.1250
10601W        W11465  28.705  11.833   6.823  0.1829 -0.0038 -0.0971
10602W        W11466  28.620  13.524   4.083 -0.0048 -0.2124  0.3103
10603W        W11467   2.756   9.169   4.772  0.1438 -0.1646 -0.0859
10604W        W11468   1.793  15.598   3.870 -0.0821 -0.1995 -0.3703
10605W        W11469   2.066  13.557   5.334 -0.1489 -0.1217  0.1645
10606W        W11470  29.060  11.447   9.064 -0.0562  0.2006  0.2829
10607W        W11471   0.873  15.411   4.756 -0.1113 -0.2731 -0.0964
10608W        W11472   2.347  15.204   8.409 -0.0700 -0.0241 -0.1384
10609W        W11473   2.156  11.959   6.305 -0.0554  0.0942 -0.1308
10610W        W11474   0.641  12.808   5.232 -0.0123  0.3513 -0.0811
10611W        W11475   2.334  13.857   9.074 -0.1425  0.1579  0.2403
10612W        W11476  27.862  11.153   8.641 -0.0235 -0.0913  0.1073
10613W        W11477   4.444  12.507   7.854 -0.0918 -0.0845 -0.1121
10614W        W11478   2.564  12.251  12.797 -0.0698 -0.0292  0.0355
10615W        W11479   2.275  12.897   6.594 -0.1828  0.2276  0.1929
10616W        W11480   0.641  10.885   6.677 -0.1976 -0.1108  0.1076
10617W        W11481   2.999  15.277   8.967 -0.1722  0.0419 -0.1024
10618W        W11482   0.437  11.644   9.882  0.1144  0.0936  0.0927
10619W        W11483   1.447  12.483  11.413 -0.2304 -0.2510  0.0258
10620W        W11484  28.745  11.690   9.267 -0.0515 -0.0889 -0.1594
10621W        W11485  27.454   9.412   7.692 -0.1620 -0.1944  0.2714
10622W        W11486   3.251  11.969   6.806  0.2147  0.3086  0.3849
10623W        W11487   3.759  11.550   9.501 -0.0368 -0.1506 -0.1332
10624W        W11488   4.085  11.592  11.443  0.0917  0.2138 -0.2824
10625W        W11489  29.008  10.733  10.540  0.2206 -0.1745  0.1295
10626W        W11490  27.607  14.531  12.967  0.3382 -0.3947 -0.2667
10627W        W11491   0.703  11.638   7.362  0.1126  0.0081  0.1282
10628W        W11492   0.618  11.321  10.757 -0.1517  0.0745  0.2008
10629W        W11493  28.675  13.659  12.661 -0.0566 -0.0538  0.0491
10630W        W11494   7.093  11.404   8.503  0.2129 -0.2448  0.0494
10631W        W11495   2.434  11.435  10.929  0.2945 -0.0348 -0.1837
10632W        W11496   2.641  11.407  10.134  0.1317 -0.1897  0.1335
10633W        W11497   3.727  12.830  11.298 -0.2307  0.0823 -0.0349
10634W        W11498   0.928  11.559   7.885 -0.2470 -0.3159  0.3329
10635W        W11499   1.575  14.784  10.083  0.0457  0.0920 -0.2472
10636W        W11500  27.779  12.117  10.960  0.0887 -0.0211  0.0186
10637W        W11501   3.785  10.828  10.752  0.1810 -0.4104  0.0582
10638W        W11502   1.947  15.009   9.876  0.2415  0.0919  0.1803
10639W        W11503   3.255  12.646   9.678  0.0239 -0.1610  0.1969
10640W        W11504  29.006  12.247  10.358 -0.0188 -0.0836 -0.1158
10641W        W11505   0.913  13.352   9.440 -0.0221  0.0352 -0.0855
10642W        W11506   4.653  12.228  12.176 -0.3603  0.1504  0.2426
10643W        W11507   0.248  12.181   9.980  0.0710 -0.0828  0.2282
10644W        W11508   4.434  11.319  10.078 -0.0848  0.1660  0.2770
10645W        W11509  27.139  11.790  11.822 -0.3210 -0.3411 -0.0447
10646W        W11510   1.828  10.687  10.059 -0.1087 -0.2631  0.0446
10647W        W11511  27.581   9.885   7.432  0.2673 -0.2970  0.0519
10648W        W11512  28.530  10.655   9.639  0.1242  0.0755 -0.2345
10649W        W11513   3.305  13.447   9.755  0.1936  0.1690 -0.1879
10650W        W11514   3.063  12.043  10.665  0.1636 -0.0009 -0.4959
10651W        W11515   3.112  12.928   6.514 -0.2243  0.3727 -0.0155
10652W        W11516   4.297  11.668   9.676  0.0531 -0.1318 -0.1060
10653W        W11517   3.577  14.443   9.269  0.0413  0.3235  0.1012
10654W        W11518   4.215  13.774   4.457  0.0286  0.0580 -0.1813
10655W        W11519   1.965  15.410   6.622  0.0084 -0.0951 -0.1894
10656W        W11520   1.505  14.319  10.649 -0.3319  0.0956  0.2935
10657W        W11521   1.907  11.457   9.455  0.2490  0.1771  0.2952
10658W        W11522   4.701  10.624   9.851 -0.0924  0.0280  0.1013
10659W        W11523   1.961   9.558   8.163 -0.0411  0.2869 -0.0709
10660W        W11524  28.835  12.007   8.906  0.0825 -0.0902  0.0011
10661W        W11525   0.445  11.221   7.443  0.1760 -0.0542  0.1311
10662W        W11526   1.523  12.147   7.104  0.2979  0.1985 -0.0102
10663W        W11527   2.107  14.324   8.846 -0.3860  0.1302  0.1436
10664W        W11528   2.654  12.500   8.106 -0.2789 -0.3144  0.1604
10665W        W11529   5.342  10.461   9.708  0.2761  0.0757 -0.2053
10666W        W11530  28.891  15.274  12.160  0.0887 -0.0901  0.2338
10667W        W11531   1.169   9.955   8.102  0.0202  0.0089 -0.0290
10668W        W11532   3.291  14.968   9.263 -0.1007  0.0357  0.1591
10669W        W11533  29.102  14.531  10.881 -0.1808  0.0068 -0.0043
10670W        W11534   3.757  15.367   9.406 -0.0398 -0.2452 -0.0687
10671W        W11535   1.104  10.738   8.596  0.1045 -0.0117  0.2814
10672W        W11536   0.331  13.364  10.612 -0.1710 -0.1396  0.1388
10673W        W11537  28.077  11.451   9.665 -0.0118  0.1940 -0.1868
10674W        W11538   0.575  16.589  10.159 -0.1110  0.1498  0.2768
10675W        W11539   3.756  10.383  10.058  0.1349  0.0141  0.1098
10676W        W11540   0.982  12.590   9.026  0.0705 -0.0200  0.2138
10677W        W11541  27.863  11.452   6.846  0.0114 -0.0178 -0.2338
10678W        W11542  29.070  13.814   7.421 -0.0163 -0.1308 -0.3007
10679W        W11543   1.356  13.376   5.879  0.4082  0.0201  0.1194
10680W        W11544   1.981  12.284   7.266  0.1000 -0.1009  0.1263
10681W        W11545   3.283  12.176  10.043 -0.0474  0.0911 -0.1011
10682W        W11546   3.823  11.491   5.565 -0.1142 -0.1317 -0.1669
10683W        W11547   7.507  14.776   9.174 -0.0597  0.3971  0.0329
10684W        W11548   4.801   9.075  10.813  0.1970  0.2034 -0.0296
10685W        W11549   5.446  13.752   8.058 -0.2972  0.0630 -0.2697
10686W        W11550   1.926  12.790   8.484  0.0254 -0.1114  0.0648
10687W        W11551   0.367  11.871   8.175 -0.1880  0.1245  0.1649
10688W        W11552   2.756  13.074  12.302 -0.1408 -0.0268  0.1087
10689W        W11553  29.125  11.194   7.655 -0.0969  0.1601 -0.0506
10690W        W11554   3.317  12.516   8.807  0.0395 -0.0534  0.2245
10691W        W11555   0.144  12.595   9.667  0.0851 -0.1160  0.1309
10692W        W11556  28.979  11.867   9.984 -0.2575 -0.2481 -0.1439
10693W        W11557  28.121  11.294   7.344  0.0551  0.1224  0.2080
10694W        W11558   6.161   8.970  11.297 -0.0944  0.0887  0.0944
10695W        W11559   2.960  11.699   9.749 -0.0849  0.0736 -0.1216
10696W        W11560   0.046  10.075   9.073  0.0378  0.1839 -0.0817
10697W        W11561   4.723  12.213  10.288 -0.2349 -0.0964 -0.0176
10698W        W11562   2.619  10.925  13.266 -0.1881 -0.0726 -0.2100
10699W        W11563   3.763  14.494   7.469 -0.2706 -0.1134 -0.0720
10700W        W11564   5.074  11.314  10.634 -0.0088 -0.2760  0.0628
10701W        W11565   2.874  11.661   7.063  0.1208  0.1775  0.2386
10702W        W11566   3.641  11.326  10.581  0.1209 -0.0520  0.2229
10703W        W11567   1.658  14.544  11.087  0.2353 -0.3495 -0.1617
10704W        W11568   2.182  10.119  10.272 -0.1343  0.2844  0.0471
10705W        W11569   0.066  11.510   9.603  0.0320  0.1732 -0.2127
10706W        W11570   2.566  12.901  10.241  0.5477  0.2435  0.2747
10707W        W11571   2.621  11.183   6.290 -0.0118  0.0638 -0.1250
10708W        W11572   2.724  14.105  10.051  0.0958  0.2082  0.1857
10709W        W11573   2.836   9.766   8.709 -0.0814  0.0435 -0.0798
10710W        W11574   4.793  10.971   9.006  0.0977  0.0876  0.0276
10711W        W11575   2.883  13.713   7.343  0.2344 -0.1528  0.0302
10712W        W11576   0.209  13.481   7.760 -0.0404  0.1494  0.1566
10713W        W11577  28.575  14.458   5.293  0.1068 -0.1294  0.1913
10714W        W11578   1.863  13.320   8.483  0.2474 -0.0782 -0.0234
10715W        W11579   6.158  12.458   8.940  0.1485 -0.1812  0.0475
10716W        W11580   3.708  12.182   8.891 -0.1395 -0.1694 -0.1608
10717W        W11581   5.699  12.854   8.187  0.1657 -0.3404 -0.0076
10718W        W11582   4.298  10.827  10.878 -0.1052 -0.0388 -0.2603
10719W        W11583   3.566  11.363   8.848 -0.0701 -0.0450 -0.2706
10720W        W11584  28.753  11.102   6.817  0.1106 -0.1095  0.0174
10721W        W11585  28.660  13.759   9.994 -0.4726 -0.1635 -0.0015
10722W        W11586   2.729  13.451   8.848  0.4067  0.0768  0.1325
10723W        W11587   2.652  10.008  10.596  0.0440 -0.0866 -0.4149
10724W        W11588   4.688  17.533   9.159 -0.0621  0.4065 -0.0995
10725W        W11589   4.288  12.998   8.888 -0.0123 -0.1792  0.0271
10726W        W11590   2.368  12.556   8.524  0.0369  0.0976  0.0125
10727W        W11591   6.981  12.541  10.334 -0.1546  0.1837  0.1119
10728W        W11592   0.911  12.480  10.520  0.4837  0.1912  0.0887
10729W        W11593   3.910  12.009   9.713 -0.1215 -0.0130 -0.2428
10730W        W11594   4.024  13.440   8.052 -0.3380  0.3146  0.0016
10731W        W11595   1.757  13.884   7.487  0.0124  0.0596 -0.1009
10732W        W11596   2.568  13.596   6.943 -0.2420  0.2671  0.0761
10733W        W11597   2.763  12.216   8.833  0.0785 -0.1404  0.0486
10734W        W11598   0.890  11.876   9.628  0.1071  0.1128  0.0023
10735W        W11599   0.782  11.970   9.127 -0.0553 -0.0363  0.0327
10736W        W11600   0.244  10.847   8.134  0.2575  0.0241  0.0172
10737W        W11601  28.919  12.317   9.862  0.3182 -0.3545 -0.1962
10738W        W11602   4.739  10.456  11.392 -0.0248 -0.1034  0.2506
10739W        W11603   5.693  13.889   9.750  0.2512  0.1188 -0.0541
10740W        W11604   3.700  13.776   8.550  0.0826  0.1415  0.0129
10741W        W11605   5.045  12.408   9.796  0.1006 -0.3347 -0.0214
10742W        W11606   1.447  12.581   8.604  0.0506 -0.0652 -0.0135
10743W        W11607   2.233  14.416   7.967  0.1840  0.1620 -0.2475
10744W        W11608   4.323  12.382   9.793  0.1244  0.1753 -0.1432
10745W        W11609   7.012   9.884  10.398  0.3648 -0.1784  0.1077
10746W        W11610  28.276  10.340   8.288  0.1287  0.1500 -0.0278
10747W        W11611   3.526  11.712   8.493  0.0193  0.1256 -0.0650
10748W        W11612   1.777  11.534  11.816  0.0078  0.0418  0.3052
10749W        W11613   1.738  12.819  10.876 -0.0065  0.0799 -0.0085
10750W        W11614   2.954  14.324   8.524  0.1749 -0.0022 -0.2388
10751W        W11615   1.503   8.822   7.035 -0.2156  0.0858 -0.0103
10752W        W11616   2.443   9.265   7.502 -0.3044  0.2059 -0.0891
10753W        W11617   2.739  16.089   8.393 -0.2215  0.0988 -0.1422
10754W        W11618  29.121  11.395  10.056  0.0843 -0.2628  0.0704
10755W        W11619   2.141  15.096   9.165  0.4686 -0.2742 -0.3761
10756W        W11620  28.845  12.549  10.957 -0.1002  0.2190  0.1331
10757W        W11621   1.870  11.303  10.936  0.1742 -0.0347 -0.1661
10758W        W11622   2.068  13.560   9.462 -0.2959 -0.3992  0.3570
10759W        W11623   3.687  15.463   7.414  0.1090  0.1114  0.4221
10760W        W11624   2.886  13.128   9.599  0.0695 -0.0110 -0.2434
10761W        W11625   3.578  14.278   8.458 -0.0098  0.0709  0.0279
10762W        W11626  28.891   8.214   8.462  0.4714 -0.1184  0.1066
10763W        W11627   1.024  13.955  10.048  0.1770 -0.2277  0.1371
10764W        W11628  28.649  10.391   7.886  0.1395  0.2795 -0.4925
10765W        W11629   2.073  13.608  10.662 -0.0321 -0.0990  0.0704
10766W        W11630   4.479   9.102   8.939  0.1543 -0.1999 -0.0437
10767W        W11631   2.675  12.691   8.884  0.1398 -0.1064 -0.0821
10768W        W11632   3.050  13.240   7.521  0.0760 -0.1325  0.2415
10769W        W11633   3.042  12.296   5.994  0.2894 -0.1381 -0.0726
10770W        W11634   1.838  11.056   9.169 -0.2695 -0.2549  0.1320
10771W        W11635   3.484  11.930  11.530 -0.2027  0.0378  0.2529
10772W        W11636   2.403  12.071  10.610  0.0593  0.0922 -0.2290
10773W        W11637   3.006  11.505  12.356  0.1545 -0.0706  0.0895
10774W        W11638   1.246   9.855   9.795  0.1360 -0.1343  0.1782
10775W        W11639   5.518  10.562  10.655  0.1685 -0.1903  0.0845
10776W        W11640  27.860  10.215   8.663 -0.1133  0.1200  0.0301
10777W        W11641   0.261  10.125   8.464  0.1462  0.0398  0.0585
10778W        W11642  28.019  10.140   7.365 -0.0687  0.3550  0.0029
10779W        W11643   1.832  11.491  10.158 -0.0341 -0.3639 -0.1437
10780W        W11644   0.924  14.464   9.912 -0.3616  0.0907 -0.0984
10781W        W11645  28.432  12.143   9.161 -0.1168  0.0330  0.1578
10782W        W11646   1.641  12.515   8.105  0.0297 -0.0270 -0.0177
10783W        W11647   1.960  11.553   7.721 -0.6235  0.2038  0.1743
10784W        W11648   0.885   9.934   8.487  0.1982  0.4385 -0.0584
10785W        W11649   2.944  12.769   7.781  0.1001  0.1762  0.0885
10786W        W11650   4.385   9.362   7.896  0.0251  0.0017  0.0717
10787W        W11651  28.678  13.762   9.492  0.0118  0.1046  0.0085
10788W        W11652   1.402  13.832  11.784 -0.4492  0.0280  0.1522
10789W        W11653   1.081  12.479   7.136  0.0441 -0.4859 -0.0150
10790W        W11654   3.934  10.993   9.356  0.1463  0.1068  0.2797
10791W        W11655   0.921  12.430   7.610  0.1886 -0.2186 -0.3438
10792W        W11656   3.742  14.768   6.765 -0.0722  0.2061 -0.1333
10793W        W11657   1.497  10.117   7.623  0.1197 -0.1446  0.0848
10794W        W11658  28.076   9.821   8.298 -0.0351 -0.1219 -0.0594
10795W        W11659   0.964  13.266   8.439  0.2025 -0.4244  0.4297
10796W        W11660   2.967  12.623   6.880 -0.0907  0.2231 -0.0322
10797W        W11661   3.872   7.694   7.573 -0.1890  0.1534 -0.1724
10798W        W11662   0.438   9.562   7.774  0.3333 -0.1108  0.1484
10799W        W11663   1.144  12.477   8.169  0.1092  0.0756 -0.1704
10800W        W11664   0.252  14.074   9.386  0.0035 -0.0892  0.2081
10801W        W11665  29.136  10.622   7.734  0.0930  0.6128 -0.0027
10802W        W11666   0.982  15.897   7.139 -0.1986 -0.1458  0.0038
10803W        W11667   1.197  11.460  11.961 -0.2920 -0.0260  0.0092
10804W        W11668   1.863  12.441  11.218 -0.2271  0.1458  0.1427
10805W        W11669   2.436   9.703  10.128  0.1621 -0.0408 -0.0897
10806W        W11670   1.067  11.963   7.387  0.1395 -0.1052  0.0731
10807W        W11671   4.935  10.984  10.172  0.2766 -0.1353  0.1375
10808W        W11672  28.484  12.438   8.301  0.0634  0.2710  0.1275
10809W        W11673   2.169  11.896   8.629 -0.0067 -0.3083 -0.1099
10810W        W11674   1.047  11.519  11.063 -0.3030 -0.1254  0.0418
10811W        W11675  28.646   9.506   6.820  0.2630 -0.0291 -0.1567
10812W        W11676   4.429  12.691  12.305  0.1990  0.1393  0.0642
10813W        W11677   3.291  11.401   5.639 -0.0955  0.2731  0.2395
10814W        W11678   0.274  10.617   8.691 -0.1621  0.3171  0.2230
10815W        W11679   1.359  11.555  11.442 -0.0136 -0.0885 -0.3325
10816W        W11680  28.291  13.229   7.159 -0.2950  0.2112 -0.1053
10817W        W11681  26.947  10.922   8.607  0.2138 -0.0755  0.0277
10818W        W11682   6.724  11.309   9.933  0.3628 -0.0151  0.2430
10819W        W11683   2.445  15.650   9.275 -0.0711 -0.0991 -0.0154
10820W        W11684   0.047  10.878   6.539  0.1405  0.2346  0.1025
10821W        W11685   1.638  12.841   9.006 -0.2920 -0.5166 -0.1849
10822W        W11686  26.994  12.171   9.257 -0.0438 -0.0197 -0.0252
10823W        W11687   0.732  12.803   9.411  0.0477 -0.0212  0.1180
10824W        W11688   1.832   7.831   9.776 -0.0719 -0.0261  0.0393
10825W        W11689   4.617  11.414  10.977  0.0336  0.1620  0.3892
10826W        W11690   6.886  10.578   7.598  0.3033  0.0311 -0.0233
10827W        W11691   0.713  11.096   6.108  0.1730  0.0492 -0.1354
10828W        W11692   3.915  16.997   7.173 -0.1194 -0.1407 -0.4187
10829W        W11693  28.289   8.519   9.509 -0.1167  0.3179 -0.2936
10830W        W11694   1.147  12.789  11.110 -0.1807 -0.2558  0.1778
10831W        W11695   6.334   9.692  10.969 -0.2509  0.1304 -0.3068
10832W        W11696   3.353  14.198  10.577 -0.0302  0.0580  0.1066
10833W        W11697   0.619  14.330  12.913  0.0677  0.0513 -0.3081
10834W        W11698  27.336  11.704   7.607  0.0830  0.0052  0.0896
10835W        W11699   5.347  14.516   9.799 -0.1198  0.0304  0.0460
10836W        W11700   3.473  11.555   9.920 -0.0885 -0.3998  0.0049
10837W        W11701   0.888  13.922   8.699  0.0883  0.0333  0.3448
10838W        W11702   6.477  12.677  10.335  0.1227  0.1370  0.0237
10839W        W11703   5.199  14.034   9.710 -0.1952 -0.2855  0.1129
10840W        W11704   3.730  15.244   6.913 -0.0220  0.1247 -0.1701
10841W        W11705  28.904   9.120   9.917  0.4500 -0.2248 -0.0484
10842W        W11706   4.320  11.975  10.080 -0.0462 -0.0464  0.2101
10843W        W11707   0.833  14.898   5.356  0.2587 -0.1870 -0.1558
10844W        W11708  29.134  15.582  11.770 -0.1317 -0.3392  0.1494
10845W        W11709   1.146  13.730   9.578  0.1539  0.0038  0.0559
10846W        W11710   1.611  14.338   6.248 -0.0402  0.0691 -0.1546
10847W        W11711   3.837  12.487   8.464  0.1729 -0.0719  0.1230
10848W        W11712   3.031  10.837  13.049 -0.1991  0.4605  0.1011
10849W        W11713   2.392  12.680   9.511  0.1791  0.3780 -0.1766
10850W        W11714   3.543  12.290  10.563  0.0906 -0.2160  0.0760
10851W        W11715   4.764  13.839   8.430 -0.1748  0.1339  0.1023
10852W        W11716   0.058  16.778  13.743  0.0338 -0.0546 -0.1886
10853W        W11717   1.519  13.079  10.170  0.2919  0.1531 -0.0066
10854W        W11718  27.770  10.049   7.878  0.1436  0.2605  0.0555
10855W        W11719   2.953  10.634   9.138  0.1728  0.0094  0.2272
10856W        W11720   0.633  10.834   7.148  0.0048  0.1749 -0.1060
10857W        W11721   5.214  12.933  12.186 -0.2225 -0.2842 -0.0191
10858W        W11722   2.511  14.423  11.374  0.0010 -0.0205 -0.0486
10859W        W11723   1.591  14.317   9.064  0.0523  0.2007 -0.2572
10860W        W11724   0.503  13.020   8.436 -0.0886 -0.0634  0.1338
10861W        W11725   0.418  15.424   8.793  0.0552 -0.1077  0.2152
10862W        W11726   1.339  14.713   9.167  0.1177  0.0030 -0.4122
10863W        W11727   4.751  11.864  10.726 -0.0436  0.0110 -0.3016
10864W        W11728   3.121  14.429  10.149 -0.4373  0.4755 -0.1239
10865W        W11729  28.758  13.692   8.215 -0.0777 -0.0015 -0.1131
10866W        W11730   4.122  13.045   6.819  0.2358 -0.1836 -0.1160
10867W        W11731   4.238  12.750   7.233 -0.0468  0.1221 -0.0148
10868W        W11732   0.663  10.281   9.223  0.2497 -0.2066  0.0670
10869W        W11733   3.134  14.785   6.229  0.1161 -0.1030 -0.0089
10870W        W11734   2.382  11.003   5.693 -0.1878 -0.3105 -0.3764
10871W        W11735   2.787  12.564   9.874 -0.1003  0.1872  0.2641
10872W        W11736   0.916  13.958  11.798 -0.0562  0.1846 -0.3103
10873W        W11737   1.622  11.959  11.072  0.1411 -0.2694 -0.2258
10874W        W11738   1.626  13.739   8.260 -0.0066 -0.0673  0.0534
10875W        W11739   1.999  14.110   9.372 -0.4722  0.0441 -0.3559
10876W        W11740   3.225  16.603  11.285 -0.0539  0.1670 -0.0873
10877W        W11741   0.939  11.819  11.680 -0.1385  0.1802 -0.1667
10878W        W11742   5.092  13.056   7.325  0.0488  0.0419 -0.1522
10879W        W11743  28.063   9.501   9.587  0.0112 -0.0475  0.0076
10880W        W11744   5.841  11.994   8.939  0.1601 -0.0786  0.3506
10881W        W11745   1.957  11.886   9.824  0.0069 -0.1614 -0.0264
10882W        W11746   3.861  11.789  10.737 -0.1111  0.1415  0.0638
10883W        W11747   0.774  10.715   9.011 -0.2250  0.1268  0.1011
10884W        W11748  29.079  10.439   8.215  0.0718 -0.0833  0.2124
10885W        W11749   2.576  13.054   9.182  0.0785  0.0512 -0.1387
10886W        W11750   6.139  13.168   9.539  0.1160 -0.2971  0.0400
10887W        W11751   0.456  13.679   9.709  0.1341 -0.1768  0.0520
10888W        W11752   0.986  13.384  10.472  0.2012  0.0171  0.1121
10889W        W11753  23.942  10.971   5.456  0.0182  0.0145 -0.0698
10890W        W11754   2.465  14.258   8.472  0.1425 -0.1952  0.0860
10891W        W11755   1.589  13.786   6.528 -0.1890  0.0565 -0.3245
10892W        W11756   1.352  10.455   7.972 -0.0735 -0.4619  0.1372
10893W        W11757  27.130   9.507   7.334 -0.6515  0.0430  0.1289
10894W        W11758   1.971  13.133  10.421  0.1236 -0.1130 -0.1164
10895W        W11759   3.877  13.165   5.363 -0.1495  0.0531  0.0673
10896W        W11760   1.258  10.428  10.015 -0.3393 -0.3715 -0.0911
10897W        W11761   1.564  13.235   9.606 -0.1273  0.0742  0.2738
10898W        W11762   4.205  10.546  11.310  0.1223  0.0762  0.3565
10899W        W11763   7.520   9.261   9.137  0.1894  0.1309 -0.0550
10900W        W11764   3.728  12.471   9.392  0.1996  0.3409 -0.1362
10901W        W11765   2.428  11.633   9.641  0.3702 -0.1042  0.0227
10902W        W11766   1.311  10.215   8.467  0.2803 -0.0674  0.0470
10903W        W11767   5.199  12.481  11.676  0.1801  0.0258  0.0201
10904W        W11768   0.452  11.292  10.243 -0.0990 -0.2219  0.1867
10905W        W11769   3.248  14.106   8.839 -0.0228 -0.1733  0.0957
10906W        W11770   3.642  12.751  10.784  0.0502  0.1698 -0.0758
10907W        W11771   1.232  15.219   9.150  0.2214  0.0836  0.3697
10908W        W11772   3.432  11.875   9.114 -0.1213 -0.1560 -0.1360
10909W        W11773   4.766  11.627   7.910  0.0900  0.0127  0.0114
10910W        W11774   0.489  15.457  11.263 -0.3573  0.2340 -0.0953
10911W        W11775  29.000  11.724   7.294  0.0092  0.1107  0.0131
10912W        W11776  29.095  10.514   9.691 -0.1026 -0.2014 -0.3625
10913W        W11777   1.162  15.125  12.370 -0.2323 -0.1860  0.0762
10914W        W11778   4.582  12.493   8.905 -0.0832  0.0616  0.0788
10915W        W11779   3.340  13.655   7.635  0.0854 -0.0713 -0.0386
10916W        W11780   1.216  13.998   9.109  0.0181 -0.0773  0.0526
10917W        W11781   2.188  13.449  14.315  0.1690  0.0807 -0.3080
10918W        W11782   1.645   8.659   8.532 -0.0637 -0.1886 -0.1729
10919W        W11783   0.449  13.325   9.240 -0.2840 -0.0362 -0.2394
10920W        W11784   0.170  13.280   8.733 -0.0546  0.0903 -0.2847
10921W        W11785   0.182  10.543   9.216 -0.0843  0.0789 -0.2566
10922W        W11786   0.113   9.537   8.925 -0.2162  0.2852  0.3500
10923W        W11787   0.431  13.557   7.304  0.1642 -0.0081 -0.1460
10924W        W11788   1.085  14.634   7.645  0.1979 -0.1955 -0.3913
10925W        W11789   0.965  14.543   9.376  0.0198  0.0548  0.0551
10926W        W11790   4.103  12.428  11.300  0.0425  0.2322  0.0523
10927W        W11791  28.722  10.143   8.437 -0.3595 -0.0505 -0.0126
10928W        W11792   4.013  12.024   8.534 -0.0316  0.2426 -0.3187
10929W        W11793   2.931  12.687   9.285  0.1381  0.0455  0.1274
10930W        W11794  28.331  12.478  10.404 -0.0189  0.0173 -0.0147
10931W        W11795   2.020  12.446   9.235  0.0873 -0.3025  0.0225
10932W        W11796   2.041  14.680   8.452 -0.2997  0.0643  0.0981
10933W        W11797   4.647  11.779  12.445 -0.1908 -0.2899 -0.1697
10934W        W11798   1.345  13.462   9.191 -0.0500  0.1334  0.0848
10935W        W11799   1.002  10.963  11.206  0.0670  0.0782  0.1237
10936W        W11800   0.730  11.525   8.360  0.4836 -0.0118  0.0105
10937W        W11801   1.821  11.950   9.309 -0.1649  0.2257 -0.1344
10938W        W11802  25.389  14.681   8.559 -0.0092 -0.1886 -0.2485
10939W        W11803   0.068  11.666   8.568 -0.0433 -0.4114  0.2573
10940W        W11804   1.478  12.394   9.155 -0.2423  0.0185 -0.0172
10941W        W11805   4.389  11.089  11.359 -0.1138 -0.2164  0.0373
10942W        W11806   3.525   8.184   6.933 -0.1340 -0.2140  0.1444
10943W        W11807   4.526   9.948  11.280 -0.4281  0.0504 -0.0160
10944W        W11808   1.996  13.725  11.193  0.0926 -0.1199  0.1807
10945W        W11809   2.330  10.632   8.611 -0.1675  0.1462  0.1099
10946W        W11810   4.048  13.946  10.902 -0.1900 -0.0292  0.1725
10947W        W11811   0.664  15.898   8.834  0.0075  0.2428  0.0624
10948W        W11812   3.448  12.473   5.712  0.1918 -0.1036 -0.0487
10949W        W11813   2.181  13.774   8.609 -0.0249  0.2327 -0.2639
10950W        W11814   1.700   8.126   7.595  0.0207  0.0213  0.0326
10951W        W11815   3.546  12.746   6.367 -0.2352  0.1223  0.1231
10952W        W11816   2.848   9.474   9.925 -0.2121  0.0804  0.1028
10953W        W11817   3.134  11.031   8.829  0.0099 -0.1267 -0.0840
10954W        W11818   0.537  14.879   3.864 -0.0607 -0.1884 -0.3262
10955W        W11819  28.751  12.514   9.242  0.2279  0.2471 -0.1402
10956W        W11820   3.289  14.585  11.402  0.1519  0.0829 -0.1542
10957W        W11821  27.595  11.157   9.684 -0.1422  0.0669 -0.1891
10958W        W11822  28.741  10.140   7.019  0.1297  0.1740  0.3389
10959W        W11823  28.719  12.292   6.213  0.2197  0.0129 -0.0022
10960W        W11824   0.944  10.637   5.957 -0.0190  0.2602  0.0384
10961W        W11825   2.254  11.529   8.306  0.3717 -0.1162  0.0226
10962W        W11826   4.447  12.994   7.811  0.0526 -0.0847 -0.0099
10963W        W11827   5.946  13.519  10.023 -0.0391 -0.1180 -0.3061
10964W        W11828   1.799  15.716   7.382 -0.2144  0.0817  0.1485
10965W        W11829   1.474  12.170   9.751  0.0001 -0.1329 -0.1618
10966W        W11830   1.662  10.216   7.139 -0.0671 -0.1705 -0.0059
10967W        W11831   0.752  12.791   7.947 -0.2594 -0.2299  0.4215
10968W        W11832   1.781   9.451  12.258 -0.1666  0.0700 -0.2895
10969W        W11833  29.069  11.976  10.847  0.1432 -0.0651 -0.0515
10970W        W11834   1.554   8.920   7.540  0.1294  0.1561  0.3158
10971W        W11835   0.827  10.214   9.744  0.1063 -0.2020  0.2154
10972W        W11836   4.745  11.885   9.754 -0.3261  0.0667  0.1916
10973W        W11837   0.598  14.226   8.961  0.2510  0.0411 -0.0227
10974W        W11838   3.333  12.332   7.799  0.2453 -0.1398  0.2204
10975W        W11839   0.725  15.493   9.279 -0.0139 -0.5311  0.2082
10976W        W11840   0.756  13.821   9.258 -0.0500  0.0884 -0.5426
10977W        W11841   3.031  13.421   9.249  0.0427  0.4273 -0.1823
10978W        W11842   1.478  12.105   8.390 -0.3102  0.0684 -0.0188
10979W        W11843   1.306  11.933   9.309 -0.2314  0.1214  0.0519
10980W        W11844   3.870  10.180   8.638 -0.1022 -0.2219 -0.0493
10981W        W11845   2.695   9.820   8.079  0.1328 -0.0765 -0.0218
10982W        W11846   3.985  13.497   8.983 -0.2191 -0.3669 -0.2159
10983W        W11847  28.240  10.888   8.030  0.0366  0.1859 -0.1398
10984W        W11848   2.893  11.239  11.203 -0.4617  0.2234 -0.0046
10985W        W11849   2.176  12.621   8.038 -0.1843  0.1812 -0.0284
10986W        W11850   0.277   9.759   9.352  0.1643 -0.3254 -0.2398
10987W        W11851   0.155  12.812   9.212 -0.0686  0.1329 -0.0556
10988W        W11852   3.473  13.306   8.487 -0.0204  0.0960 -0.3000
10989W        W11853   0.822  11.314   9.796  0.1716  0.1311 -0.0952
10990W        W11854  27.657  11.585   9.438 -0.0810  0.0470 -0.1135
10991W        W11855   3.874  13.765  12.307 -0.0626  0.2715  0.2413
10992W        W11856  28.190  13.714   9.215 -0.0612  0.3587  0.1415
10993W        W11857   2.923  14.765   8.798  0.0389 -0.1885 -0.1497
10994W        W11858   6.651  13.128  10.516 -0.0500 -0.1007 -0.1521
10995W        W11859   3.137  13.430  10.935 -0.0856  0.3632  0.0825
10996W        W11860   2.823  12.038  10.196  0.0612  0.0358 -0.0549
10997W        W11861   3.886  12.024  11.803  0.0446  0.0972 -0.5122
10998W        W11862   0.764  13.463  12.714 -0.1670  0.1388  0.1178
10999W        W11863   1.214  12.883   7.450 -0.0626  0.0062  0.1097
11000W        W11864   4.605  13.627   9.298  0.0237  0.2793  0.2004
11001W        W11865   3.069  12.961  11.873  0.1287  0.3207  0.0118
11002W        W11866  29.116  16.568   8.912 -0.1574 -0.1381 -0.1828
11003W        W11867   0.922  15.381   8.804  0.1752  0.0438 -0.0947
11004W        W11868   1.481  13.369  10.565  0.2411 -0.0423  0.1937
11005W        W11869   0.132  14.539  12.094  0.2227 -0.1652  0.1454
11006W        W11870   1.442  10.748   9.654  0.1528  0.0299  0.2773
11007W        W11871   2.563  13.484   9.397  0.3383 -0.1743  0.0256
11008W        W11872   2.512  12.227  11.989  0.1404 -0.2705 -0.0499
11009W        W11873   5.148  12.842  10.764 -0.2957  0.0947 -0.1389
11010W        W11874  28.951  10.261   7.451  0.0680  0.0970 -0.1615
11011W        W11875   0.518  13.906  14.503  0.0345 -0.0171  0.0812
11012W        W11876  27.500  12.861  13.531 -0.1067  0.1368  0.2045
11013W        W11877   2.623  11.171   8.481  0.0107  0.2633 -0.2498
11014W        W11878   1.211  13.892  13.153 -0.4330  0.1418  0.0632
11015W        W11879   2.249  14.963  10.389  0.0059  0.2465  0.4081
11016W        W11880   3.388  11.919   9.591 -0.1798 -0.4105 -0.0514
11017W        W11881   3.031  12.445  12.130 -0.3426  0.1235 -0.3072
11018W        W11882   2.622  12.585  12.416  0.1282  0.1623 -0.0014
11019W        W11883   0.823  13.006  14.326 -0.3407 -0.2459  0.1872
11020W        W11884   1.413  12.578  14.177  0.3603 -0.6538  0.1973
11021W        W11885  28.116   9.263  13.500  0.3918 -0.2815 -0.0967
11022W        W11886  27.473   9.586  12.077 -0.1825  0.0082  0.0642
11023W        W11887   2.845  10.375  13.181  0.0094 -0.1684  0.0750
11024W        W11888  28.473  12.323  12.245 -0.0957 -0.0042  0.2257
11025W        W11889  26.091  12.957  14.652  0.2414 -0.0518  0.3901
11026W        W11890   2.450  15.908  12.194 -0.0801 -0.2373  0.0952
11027W        W11891   1.381  14.234   9.553  0.1948 -0.1489 -0.1439
11028W        W11892  28.120  11.691  12.795 -0.1860  0.1294  0.0016
11029W        W11893  28.362  12.506  15.684 -0.0669  0.1426 -0.0517
11030W        W11894   3.449  10.047  12.896  0.0112  0.0940 -0.0176
11031W        W11895   3.689  14.230  12.374  0.0344 -0.2641  0.1508
11032W        W11896  28.551  11.899  12.494 -0.2075 -0.0980 -0.3297
11033W        W11897   1.698  12.136  14.192 -0.0240  0.0491  0.3481
11034W        W11898  28.751  10.323  10.609 -0.0000  0.2111 -0.0770
11035W        W11899   0.744  13.068  11.828 -0.2350 -0.1455  0.0947
11036W        W11900   0.863  10.543  10.836  0.0507 -0.2313 -0.0803
11037W        W11901   1.604  15.686  16.098  0.1493 -0.0020  0.0026
11038W        W11902   0.103  12.723  12.630 -0.0497  0.1406  0.0842
11039W        W11903  28.885  12.592  13.823 -0.1191  0.3574  0.0877
11040W        W11904   2.531  12.313  11.099 -0.1731 -0.2746  0.0306
11041W        W11905   0.417  13.161  11.246 -0.0304 -0.1754 -0.0104
11042W        W11906   1.705  10.700  15.532 -0.0456  0.2643 -0.2669
11043W        W11907  28.810  14.767  13.064 -0.0939 -0.0052 -0.2784
11044W        W11908   1.099  12.080  13.392  0.1176 -0.0726 -0.0545
11045W        W11909   0.255  12.964  13.403 -0.0585  0.2434  0.2669
11046W        W11910   4.353  10.866  13.609 -0.3825 -0.2644 -0.0823
11047W        W11911  27.876   8.358  12.553 -0.0303  0.0081  0.2014
11048W        W11912   6.148  12.432  14.377  0.0812 -0.2880 -0.0700
11049W        W11913   4.551  10.575  12.469 -0.2193  0.0398  0.0477
11050W        W11914   5.972  11.868  11.378 -0.0949  0.1705  0.4446
11051W        W11915   5.074  12.948  12.949  0.0335 -0.0101 -0.0173
11052W        W11916   2.024  16.451  13.649  0.1433 -0.1193  0.1882
11053W        W11917   3.772  12.421  12.340  0.2340  0.0085 -0.0651
11054W        W11918   0.673  15.013  11.046  0.0775 -0.1691 -0.2123
11055W        W11919   0.041  13.771  14.614  0.1067 -0.0582 -0.3244
11056W        W11920   0.548  11.042  12.453 -0.5824  0.2444 -0.2730
11057W        W11921   3.991  14.174  14.086 -0.3647  0.1577  0.0463
11058W        W11922   2.472  14.086  10.880  0.1365  0.1516 -0.1581
11059W        W11923   1.155  11.953  10.065 -0.3791  0.1270 -0.2876
11060W        W11924   0.694  14.100  11.336  0.0682  0.0102  0.1783
11061W        W11925   0.795  10.574  12.769  0.1878 -0.0050 -0.0393
11062W        W11926   4.869  13.598  14.312  0.1388  0.1049 -0.1798
11063W        W11927   4.792  13.175  12.131 -0.0579 -0.1186 -0.0525
11064W        W11928   2.936  10.625  11.948 -0.2816 -0.1345  0.0459
11065W        W11929   2.214  14.531   9.292  0.2929 -0.1011 -0.0861
11066W        W11930   0.647  13.843  10.436 -0.1214  0.3446 -0.2978
11067W        W11931   4.441  13.704  12.230  0.1482  0.0812  0.1002
11068W        W11932   0.383  13.330  13.796 -0.1539 -0.2435 -0.2027
11069W        W11933   1.770  12.640  10.249 -0.0262 -0.2272  0.0386
11070W        W11934   3.580  11.474  12.527  0.1432  0.1425 -0.1046
11071W        W11935   1.339  11.525  13.429 -0.2035 -0.1030  0.4095
11072W        W11936  26.040  13.953  14.185  0.3522  0.0133  0.0646
11073W        W11937   0.415  15.727  12.171  0.0770 -0.0787  0.2425
11074W        W11938   2.546  10.503  13.611 -0.4323  0.0038  0.2430
11075W        W11939   2.994   9.908  11.401 -0.0533 -0.0400 -0.2037
11076W        W11940   0.045  10.892  10.137  0.0040 -0.0809 -0.1037
11077W        W11941  27.871  12.032  10.346 -0.0653  0.0386  0.0396
11078W        W11942   2.298  14.247  12.232 -0.0268 -0.3311  0.0013
11079W        W11943  28.680  11.265  10.849 -0.1225  0.0170  0.0881
11080W        W11944   2.453  12.806  14.171 -0.0617  0.1638  0.0917
11081W        W11945   3.227  11.856  12.149  0.0824  0.2271 -0.0822
11082W        W11946   4.388  14.873  10.623 -0.0967  0.2312 -0.2361
11083W        W11947   6.088  12.119  12.911  0.0412 -0.2104 -0.1030
11084W        W11948   4.144  13.760  11.834 -0.0603 -0.1905  0.0161
11085W        W11949   2.367  13.195  13.865  0.1776  0.0055  0.0717
11086W        W11950  28.546  12.366  11.634 -0.1757  0.0244  0.3819
11087W        W11951  28.506  14.449  15.549  0.0520  0.1125  0.4130
11088W        W11952  28.266  12.592  10.846 -0.1225 -0.1775 -0.0924
11089W        W11953   1.328  13.524  12.682  0.1139 -0.2724  0.0156
11090W        W11954  27.788  10.636  14.761  0.0199 -0.1115  0.3579
11091W        W11955  28.930  12.045  12.213 -0.1089  0.1444 -0.1823
11092W        W11956   0.095  13.456  11.013  0.0376  0.0105  0.3492
11093W        W11957   2.535  11.701  12.165  0.0523  0.0600  0.0345
11094W        W11958   1.608  13.790  14.434 -0.0615 -0.2900 -0.1590
11095W        W11959   3.838  13.757  11.336 -0.0380  0.0494  0.2881
11096W        W11960   4.302  17.380  11.049 -0.0221 -0.0638 -0.2954
11097W        W11961   0.560  10.418  14.268 -0.0334  0.0351  0.3375
11098W        W11962   4.287  13.091  14.131 -0.2760 -0.3636  0.1038
11099W        W11963   1.921  11.166  14.807  0.0488  0.1631  0.1038
11100W        W11964   5.207  11.270  14.059 -0.5070  0.4109  0.2253
11101W        W11965   5.097  12.838  15.104 -0.1593 -0.0072  0.2480
11102W        W11966   0.630  11.274  13.646 -0.1862  0.3267 -0.0724
11103W        W11967   2.196  12.664  10.553 -0.2922 -0.0810 -0.0210
11104W        W11968   2.209  13.050  14.591  0.3114  0.5357 -0.0568
11105W        W11969   5.988  14.411  11.815  0.2557 -0.1703 -0.1576
11106W        W11970   4.950   9.663  11.381  0.1912  0.2544  0.1111
11107W        W11971  28.619  13.631  16.947 -0.0612  0.2887 -0.1004
11108W        W11972   3.198  12.529  11.602  0.1226 -0.0760 -0.0182
11109W        W11973   4.511  12.263  13.874 -0.0721  0.1034 -0.0340
11110W        W11974   6.418  13.030  12.694 -0.2214 -0.3188  0.0319
11111W        W11975  28.281  11.635  10.775  0.1107 -0.0893 -0.1142
11112W        W11976   4.687  12.815   9.886  0.0599 -0.1044 -0.2953
11113W        W11977   2.193  15.306  13.618 -0.1742 -0.1935  0.0624
11114W        W11978   3.069  10.633  13.539 -0.1628  0.3355  0.0495
11115W        W11979   0.417  13.268  15.697  0.0136  0.1695  0.0517
11116W        W11980   1.540  13.050  11.292 -0.2525 -0.0102  0.1456
11117W        W11981   0.912  13.371  13.957 -0.0266 -0.1537 -0.2458
11118W        W11982   2.528  10.286  14.432  0.1422 -0.3578  0.0622
11119W        W11983   0.989  12.908  10.271  0.0118 -0.0554 -0.1365
11120W        W11984  27.457  12.114  11.397 -0.0692 -0.1410 -0.2091
11121W        W11985   3.898  14.206  11.952 -0.0769  0.2787 -0.2382
11122W        W11986   4.197  11.315  11.822 -0.1100  0.0070  0.0570
11123W        W11987  28.522  13.430  13.627  0.0575 -0.0221  0.1173
11124W        W11988   5.053  12.301  11.206 -0.1070  0.1030  0.1230
11125W        W11989   2.655  13.727  12.956  0.0114 -0.2839  0.1233
11126W        W11990   4.908  10.729  13.532  0.0799 -0.3342 -0.1529
11127W        W11991   1.072  13.997  15.226  0.5049 -0.1306  0.1207
11128W        W11992   3.561  12.986   9.823 -0.2662  0.0285  0.0421
11129W        W11993   2.291  11.055  11.371 -0.0203 -0.1125  0.0164
11130W        W11994   0.673  12.617  10.974  0.1128 -0.1659  0.0884
11131W        W11995   2.805  11.902  13.166 -0.1297 -0.2245 -0.1681
11132W        W11996   2.147  15.433  11.355 -0.0188  0.1345  0.1796
11133W        W11997   5.126  11.719  10.978  0.1126 -0.1734 -0.2171
11134W        W11998   4.204  12.382  11.927  0.4167  0.2234 -0.1544
11135W        W11999   2.275  13.684  12.019 -0.0844  0.1588 -0.0238
11136W        W12000   0.135  11.717  11.337 -0.0096  0.2520 -0.1340
11137W        W12001   6.458  13.419  11.790  0.1434  0.0485  0.0883
11138W        W12002   2.940  14.831  13.658  0.3236  0.0405 -0.1406
11139W        W12003   1.396  14.757  11.974 -0.2918  0.1643 -0.3894
11140W        W12004   5.538  12.462  16.330  0.1429  0.0312  0.1910
11141W        W12005   3.007  11.176  13.400  0.0488 -0.2073  0.0657
11142W        W12006  28.336  16.203  14.617  0.0230 -0.2867  0.2519
11143W        W12007   4.598  12.121  13.411 -0.1864 -0.0389 -0.1377
11144W        W12008   5.900   9.724  14.035  0.2256 -0.1038  0.3565
11145W        W12009   0.844  10.744  16.519 -0.1879 -0.2222 -0.0437
11146W        W12010   4.161  13.859  13.193 -0.0424 -0.0168  0.0199
11147W        W12011   1.334  13.424  13.604 -0.3128  0.2270  0.2268
11148W        W12012   3.642  11.732  12.969 -0.0230  0.1105 -0.2945
11149W        W12013   0.950  14.668  12.243 -0.1751 -0.0848 -0.1320
11150W        W12014  27.904  12.695  12.611  0.2809 -0.0030  0.0138
11151W        W12015   0.976  10.741  13.271 -0.1207 -0.2566 -0.2486
11152W        W12016   2.032  12.309  10.804 -0.0440 -0.0736  0.1032
11153W        W12017  28.036  12.809   9.712  0.0690  0.0664 -0.1364
11154W        W12018   1.437  12.550  12.652 -0.1012  0.0636  0.1460
11155W        W12019   3.501  12.219  11.974 -0.2178  0.2647 -0.0308
11156W        W12020   3.112   9.852  13.187 -0.1869 -0.1900 -0.0058
11157W        W12021   0.647  14.387  11.814  0.1016  0.4572 -0.0830
11158W        W12022   1.541  13.534  17.581 -0.1824 -0.3022 -0.0488
11159W        W12023   0.748  12.098  12.137  0.2130  0.1055  0.1877
11160W        W12024   3.979  14.700  14.991 -0.1119  0.2978  0.0939
11161W        W12025  27.259  10.527  11.128  0.3721  0.1872 -0.1678
11162W        W12026   3.598  12.744  12.812 -0.0172  0.1788  0.0430
11163W        W12027  26.887   9.572   8.357 -0.0091 -0.2565  0.0863
11164W        W12028   2.540  12.412  13.281 -0.0726  0.1352  0.1734
11165W        W12029   0.037  10.994  11.096 -0.0304  0.3088  0.0461
11166W        W12030  28.027  12.627  12.163  0.2428 -0.1382  0.1800
11167W        W12031   2.350  10.921  10.868  0.2816  0.0761  0.1239
11168W        W12032   2.232  11.686   9.131  0.2175  0.0725 -0.0906
11169W        W12033   1.908  11.974  11.513  0.2520 -0.0302 -0.0324
11170W        W12034   2.029   9.416  14.215  0.2296 -0.0909 -0.0704
11171W        W12035   0.932  11.035  12.042  0.1934 -0.1388 -0.2036
11172W        W12036   3.152  13.440  11.796 -0.3452 -0.0725 -0.1079
11173W        W12037   0.079  15.786  13.947 -0.0360 -0.0392 -0.0494
11174W        W12038   2.632  12.756  12.893  0.1747  0.1702 -0.2146
11175W        W12039  28.383  12.598  12.631  0.1080 -0.2470  0.0534
11176W        W12040  28.139  11.012  13.544 -0.2273 -0.2328 -0.2538
11177W        W12041   0.169  15.284  13.905  0.2464  0.0755 -0.0173
11178W        W12042   2.175  15.019  14.276 -0.2332 -0.2629  0.1065
11179W        W12043  28.799  11.724  10.531 -0.1067  0.4073  0.1506
11180W        W12044   3.715  11.434  13.341 -0.3159 -0.3541 -0.0122
11181W        W12045   3.177  11.699  12.808 -0.0896  0.0132 -0.1309
11182W        W12046   4.376  12.930  13.347 -0.3258 -0.1046 -0.2824
11183W        W12047   3.994  12.263  10.856  0.3156 -0.0432 -0.0363
11184W        W12048   2.037  12.710  12.153 -0.0074  0.1480  0.1678
11185W        W12049   4.056  10.563  10.412 -0.0915  0.0769  0.0096
11186W        W12050  28.190  15.131  15.701 -0.2631 -0.1376  0.0806
11187W        W12051  28.350  11.795  15.009  0.0755 -0.0360 -0.0313
11188W        W12052   1.747  16.320  12.647 -0.2006  0.0245  0.0472
11189W        W12053   3.008   7.973  13.250 -0.3220 -0.0913 -0.1335
11190W        W12054   2.673  13.170  11.591  0.2528 -0.0016  0.1054
11191W        W12055   2.203  13.987  10.083 -0.1791 -0.3543  0.0686
11192W        W12056   1.243  13.275  11.745  0.0773  0.0386 -0.2685
11193W        W12057   0.867  10.858   9.852 -0.1847 -0.2331 -0.1106
11194W        W12058   4.636  11.593  11.679 -0.1574 -0.0485 -0.2306
11195W        W12059   1.213  14.991  14.419  0.1768 -0.2635 -0.2768
11196W        W12060   2.144  13.183  11.221 -0.0646 -0.3217 -0.0823
11197W        W12061   0.336   9.165   8.626 -0.3551 -0.1148  0.4201
11198W        W12062   2.369  12.840  13.419 -0.0916  0.0025  0.1271
11199W        W12063   5.017  11.846  12.838  0.2802 -0.6031  0.0985
11200W        W12064   1.317  13.401   8.090 -0.0872  0.0859  0.3907
11201W        W12065  27.853  12.903  10.722 -0.0229  0.1038 -0.1836
11202W        W12066   1.917  10.921  16.411 -0.0103 -0.2231  0.0071
11203W        W12067   0.263  12.887  14.536 -0.2561 -0.1876  0.0536
11204W        W12068   3.144  12.955  10.571  0.2200 -0.2203 -0.0413
11205W        W12069  28.295   9.707  12.484  0.1177  0.2219  0.1180
11206W        W12070   0.131  12.431  11.739 -0.0389  0.0709 -0.0530
11207W        W12071  26.677  12.470  11.188  0.0953  0.3678 -0.1233
11208W        W12072   0.501  13.270  10.171  0.1474  0.2781  0.1042
11209W        W12073   5.329  12.136  14.373  0.0594 -0.2724  0.0595
11210W        W12074  28.639  10.801  11.994  0.0931  0.2193  0.2122
11211W        W12075   3.430  11.148  14.682  0.4613  0.3161  0.1195
11212W        W12076   3.304  11.747  13.425 -0.0701  0.0945  0.1353
11213W        W12077  28.686  11.793  11.047 -0.3181 -0.1468  0.0489
11214W        W12078   1.220  13.458  12.189  0.1112  0.1628  0.1745
11215W        W12079   0.078  11.486  10.936 -0.0186 -0.0430 -0.2040
11216W        W12080   1.115  12.712  11.735 -0.2339 -0.2660 -0.0186
11217W        W12081   1.399  12.019  11.569  0.0581 -0.2408  0.2664
11218W        W12082   5.077  14.797  11.634  0.0109  0.1211  0.1098
11219W        W12083   0.411  11.809  10.792 -0.2984  0.3554 -0.0737
11220W        W12084  26.044  14.843  15.067 -0.2051  0.0133  0.2376
11221W        W12085  28.516  12.749  11.300  0.0495  0.0725  0.0838
11222W        W12086   0.080   9.993  15.165  0.0468  0.4085 -0.1117
11223W        W12087   2.815  10.782  12.611  0.0709  0.2063  0.1837
11224W        W12088   4.238  14.831  11.335 -0.2172  0.2049  0.0874
11225W        W12089   6.261  13.125  12.232  0.0069 -0.3363 -0.0740
11226W        W12090   0.733  17.092  10.233  0.0086 -0.0030 -0.1024
11227W        W12091   0.236  11.957  12.027 -0.2086 -0.2444 -0.3265
11228W        W12092   3.268  12.958  14.847 -0.2489  0.0734  0.1551
11229W        W12093  28.191  13.678  14.615 -0.0808 -0.0911 -0.1812
11230W        W12094   1.377   9.883  12.329 -0.1726  0.2299 -0.0630
11231W        W12095   0.259  10.893  14.871 -0.2440  0.2240  0.1664
11232W        W12096   1.202  16.470  11.253  0.1973 -0.0575  0.0509
11233W        W12097   1.090  11.672   8.794 -0.1802  0.1195 -0.0746
11234W        W12098   3.764  17.428  11.084 -0.4455  0.2172  0.0042
11235W        W12099  27.433  12.757  15.940 -0.0830 -0.1601 -0.2275
11236W        W12100  29.135  13.577  15.608  0.0960 -0.3029  0.2138
11237W        W12101   3.018  11.374  14.000  0.1444  0.0319  0.1617
11238W        W12102   4.439  14.180  12.194  0.0174  0.0044 -0.1360
11239W        W12103   1.949  14.416  15.530 -0.0716  0.0541  0.0326
11240W        W12104  28.532  10.457  11.622  0.0140  0.0840 -0.1648
11241W        W12105  28.558  10.313  15.836  0.4594  0.0269 -0.0253
11242W        W12106   0.500  14.995  11.532  0.1174 -0.5110  0.0035
11243W        W12107   2.479  12.159   9.329 -0.1125 -0.2988  0.0198
11244W        W12108  28.033  13.852  12.905  0.0798  0.0626  0.0888
11245W        W12109   1.578  11.895  10.266 -0.1077  0.2375  0.0726
11246W        W12110   5.062  10.793  11.471  0.1134  0.0340 -0.0385
11247W        W12111   3.374  12.166  12.507 -0.0705 -0.2660  0.2625
11248W        W12112   2.320  10.613  11.704  0.0500 -0.1750  0.0359
11249W        W12113   4.243  15.327  14.329 -0.1550  0.1092  0.0632
11250W        W12114   4.825  11.562  10.266  0.2899  0.0656 -0.1367
11251W        W12115  28.076  14.166  16.185  0.0894  0.0503 -0.2120
11252W        W12116  28.861  11.240  13.806 -0.0674 -0.2894  0.1782
11253W        W12117   2.800  10.896  10.185 -0.2761 -0.0168  0.1128
11254W        W12118   2.891  11.498  11.813  0.1339 -0.2984 -0.3925
11255W        W12119   4.393  11.547  10.552  0.2044  0.2360 -0.2043
11256W        W12120   3.032  14.532  14.504  0.0135 -0.1714 -0.0561
11257W        W12121   0.642  13.066  14.829  0.0720 -0.3743 -0.0608
11258W        W12122   3.338  15.069   8.669 -0.0534  0.0835  0.0131
11259W        W12123  28.928  10.882  11.568  0.1127  0.0884  0.3320
11260W        W12124   1.100  12.239  12.446 -0.1716  0.0318  0.0553
11261W        W12125   0.981  12.307  11.415 -0.0848  0.2787 -0.1422
11262W        W12126  29.048  15.086  14.786 -0.1420 -0.1824 -0.0574
11263W        W12127   2.929  12.183  13.977  0.0967  0.0007 -0.1849
11264W        W12128  28.415  12.857   9.189 -0.2527 -0.0000  0.0528
11265W        W12129   1.640  15.309  12.201  0.0068 -0.0965  0.0476
11266W        W12130   6.130  11.725   9.464  0.2140  0.1624 -0.2031
11267W        W12131   1.470   9.635  11.875  0.0830 -0.0155  0.0766
11268W        W12132   1.608  12.828  11.765 -0.0225 -0.3091  0.1474
11269W        W12133   4.264  10.960  12.207 -0.0936 -0.0366 -0.1499
11270W        W12134   0.527  11.502   9.359  0.1119  0.1954  0.1111
11271W        W12135   1.812  12.387  11.804  0.2788 -0.1667 -0.1010
11272W        W12136   1.508  11.194  13.982  0.1198 -0.0005 -0.4568
11273W        W12137   1.133   9.781  14.641 -0.1036 -0.0097  0.1600
11274W        W12138   1.691  13.892  12.923  0.2453 -0.0209  0.0705
11275W        W12139  27.189  13.144  15.383  0.3979 -0.2253  0.3739
11276W        W12140   0.886  13.459   9.959 -0.2822 -0.3364  0.0369
11277W        W12141   4.948  11.457   9.792  0.4010 -0.0418 -0.2612
11278W        W12142   1.580  10.835  13.628 -0.0546  0.1359 -0.0772
11279W        W12143   1.976  12.218  10.212  0.2322  0.1706 -0.1661
11280W        W12144   1.761  15.145  11.438 -0.3015 -0.0888  0.0842
11281W        W12145   2.999   9.969  14.161 -0.3215  0.0039 -0.0532
11282W        W12146   1.989  11.132  13.061  0.1891  0.1748 -0.0346
11283W        W12147  28.032  13.732  13.476  0.1100 -0.0645 -0.0306
11284W        W12148   2.599  14.956  12.503 -0.0154  0.1523 -0.1696
11285W        W12149   1.975  12.555  14.170  0.0143 -0.0585 -0.2324
11286W        W12150  27.966  10.495  12.867 -0.0110 -0.0728  0.2860
11287W        W12151   1.180  14.431  11.582 -0.1470 -0.0694 -0.0721
11288W        W12152   2.709  11.689  10.536 -0.1018  0.0857  0.2081
11289W        W12153  25.795  14.458  14.835 -0.2907 -0.0396 -0.0292
11290W        W12154  27.356  12.208  10.585  0.3448 -0.3709  0.0451
11291W        W12155   1.640  10.218   9.678  0.0369  0.2858  0.3233
11292W        W12156   1.598   9.138  11.881 -0.0823  0.0806 -0.2718
11293W        W12157  28.851  15.952  14.344 -0.0580 -0.0762 -0.1867
11294W        W12158   5.021  14.537  13.369 -0.3323 -0.2121  0.0244
11295W        W12159   3.918  12.158  13.948 -0.0352 -0.0604  0.1029
11296W        W12160   6.346  15.923  11.669  0.1806 -0.1774 -0.2515
11297W        W12161   1.584  11.974  13.450 -0.1386  0.3291  0.0457
11298W        W12162   2.333  10.613  12.644  0.0012  0.1456 -0.1307
11299W        W12163   0.196  12.916  10.810  0.0728 -0.1426 -0.1182
11300W        W12164   2.695  11.845  11.024  0.0976  0.2614 -0.1662
11301W        W12165   0.112   9.209  12.632  0.1427 -0.0718  0.2503
11302W        W12166   4.977  10.822  14.023  0.0197  0.2772 -0.0314
11303W        W12167   1.633  13.039  12.290 -0.0610  0.2471  0.1150
11304W        W12168   2.194  12.914  11.626  0.3384 -0.1309  0.0745
11305W        W12169   3.983  12.823  12.089 -0.1561  0.2369  0.0551
11306W        W12170   2.074  11.536  11.369 -0.1187  0.0730  0.0055
11307W        W12171   2.531  13.477  14.678  0.2075 -0.0295 -0.2341
11308W        W12172   3.374  12.635  13.258  0.4687  0.0935  0.0710
11309W        W12173   0.681  14.807  13.127 -0.0953 -0.0115 -0.1597
11310W        W12174  28.654  15.651  12.447 -0.0896  0.0375  0.1658
11311W        W12175   0.617  12.614  15.016 -0.1130 -0.0935 -0.1539
11312W        W12176   2.101  12.582  13.088  0.3962 -0.3090  0.1687
11313W        W12177   1.585  13.701  15.017  0.1437  0.0496 -0.1210
11314W        W12178   5.636  11.214  12.737 -0.1078  0.0915  0.0193
11315W        W12179   4.014  13.425  14.462  0.1485  0.2945 -0.1610
11316W        W12180   0.829  14.575  15.446 -0.0507  0.0764 -0.0907
11317W        W12181   0.711   9.030   9.484 -0.0741 -0.2732 -0.0449
11318W        W12182   1.145  12.223  11.948 -0.2574  0.0756  0.1064
11319W        W12183   1.356  14.872  11.381 -0.1584  0.0767  0.2266
11320W        W12184  28.159  10.985  10.965  0.0676 -0.0290 -0.4967
11321W        W12185   0.529  12.563  14.256 -0.1656 -0.0594  0.0855
11322W        W12186   1.526  11.923  12.060 -0.1466 -0.3041  0.2112
11323W        W12187   3.430  12.511  15.102  0.0922  0.2035  0.0184
11324W        W12188  28.767  13.046  14.864 -0.2970  0.0314 -0.0307
11325W        W12189   3.465  11.874  16.351 -0.0149 -0.1826 -0.1313
11326W        W12190   0.676  12.725  11.467  0.1954  0.0394  0.0864
11327W        W12191   0.208  11.152   8.605 -0.3467 -0.0177 -0.0455
11328W        W12192   2.396  12.895  15.097  0.0653  0.3419 -0.2195
11329W        W12193   2.130  12.855  10.002 -0.0636 -0.0220 -0.0927
11330W        W12194  28.928  13.409  15.193  0.1956 -0.3731  0.3691
11331W        W12195   4.632  13.216   9.589  0.2744  0.0507  0.1409
11332W        W12196   0.636  12.384  12.642 -0.0526  0.1044  0.0906
11333W        W12197   5.021  12.381  10.713  0.0909  0.2961 -0.2691
11334W        W12198   3.520  15.460  10.054  0.2565  0.0538 -0.3468
11335W        W12199   0.069  14.152  13.675  0.0115 -0.0579 -0.0434
11336W        W12200  27.656  10.521  12.224  0.1823  0.1205  0.2734
11337W        W12201  26.050  13.870  13.241  0.2020  0.1446 -0.0345
11338W        W12202   0.122  11.742  10.427  0.0860 -0.2697  0.0766
11339W        W12203  27.076  13.668  10.737  0.0092 -0.0836  0.0657
11340W        W12204   1.343  11.028  11.702 -0.1140  0.1367  0.1093
11341W        W12205   5.683  10.266   9.306 -0.1278  0.1053 -0.0158
11342W        W12206   3.392  14.771  16.481 -0.5691 -0.2363  0.0659
11343W        W12207   1.726  14.741  16.398  0.1396  0.2975 -0.0524
11344W        W12208   5.777  13.249  12.620 -0.1387 -0.2121 -0.0252
11345W        W12209   2.621  15.347  15.488  0.1556  0.0757  0.1442
11346W        W12210   1.860  15.632  11.775 -0.1715 -0.1698  0.0133
11347W        W12211   2.339  13.913  11.499 -0.3350 -0.0520  0.2251
11348W        W12212   4.076  12.466  14.318 -0.0194  0.1337  0.1109
11349W        W12213   1.562   8.385   8.935  0.4205  0.2414  0.3635
11350W        W12214   2.948  13.894  10.979  0.1879 -0.0827 -0.0107
11351W        W12215   2.608  11.689  12.696  0.1094  0.1358 -0.2615
11352W        W12216   3.516  12.322  11.266  0.1810 -0.0634  0.0799
11353W        W12217   1.667  14.073  11.355 -0.1977  0.0214 -0.2987
11354W        W12218   5.207  13.532  13.751 -0.2623  0.3315  0.3189
11355W        W12219  28.955  13.759  13.573  0.0663 -0.4010  0.5461
11356W        W12220  28.661  13.099  12.820  0.1630 -0.1604  0.4075
11357W        W12221  29.092  12.059  13.909  0.1195 -0.1509  0.1446
11358W        W12222   2.525  15.504  12.540 -0.4306  0.0059 -0.0919
11359W        W12223  25.664  12.146  10.304  0.2855 -0.0521  0.2891
11360W        W12224   4.434  14.597  14.915  0.0381 -0.1029  0.0013
11361W        W12225   0.633  12.570  11.942 -0.1087  0.2570 -0.1425
11362W        W12226   2.562  15.022  15.019  0.2285 -0.2985 -0.1115
11363W        W12227   1.765  13.768  10.325 -0.1951 -0.1615  0.0177
11364W        W12228   2.721  13.017  11.113 -0.1028 -0.2108  0.2142
11365W        W12229   2.462  10.818  12.186  0.2266  0.0431 -0.0914
11366W        W12230   0.651  13.124  13.124 -0.2444  0.1115  0.1741
11367W        W12231   0.909  13.554  13.491  0.2412 -0.2446 -0.1174
11368W        W12232   2.222  11.605  14.540  0.2466 -0.3507  0.0898
11369W        W12233  26.354  12.612  10.575 -0.0068 -0.2285 -0.0224
11370W        W12234   0.762  13.274  12.253  0.1108  0.4038  0.0236
11371W        W12235   2.692  11.816  14.175 -0.1994  0.0818 -0.1343
11372W        W12236   0.487  12.645  13.015 -0.1839  0.0476 -0.0871
11373W        W12237   2.402  11.904  11.628  0.0802 -0.0756  0.2425
11374W        W12238   1.526  15.842  12.516 -0.0151 -0.0455  0.0539
11375W        W12239   2.549  14.520  13.096  0.2414  0.1671 -0.1515
11376W        W12240   3.420  14.382  12.858  0.0020  0.1859  0.0871
11377W        W12241   3.547  13.652  12.712 -0.2658  0.0620  0.0587
11378W        W12242   0.505  11.615  11.782  0.0069 -0.0510 -0.1691
11379W        W12243   4.088  10.479  12.528 -0.0199  0.1671 -0.0087
11380W        W12244  28.677  11.482   9.808 -0.0608  0.3992  0.2137
11381W        W12245   5.581  12.094  12.522  0.1716  0.1829 -0.2102
11382W        W12246   3.595  13.341   9.384  0.0333 -0.1553 -0.2532
11383W        W12247   5.517  12.371  13.802  0.0450 -0.1696 -0.0184
11384W        W12248   2.690  13.177  13.170 -0.0588  0.0462  0.4147
11385W        W12249  27.598   9.693  14.173 -0.0783  0.0692  0.1976
11386W        W12250   3.383  11.079  10.917  0.1658  0.2039  0.0138
11387W        W12251   4.813  15.361  15.997 -0.0077 -0.1885  0.0552
11388W        W12252   1.536  10.870  18.156 -0.0652  0.4215  0.1856
11389W        W12253  25.860  13.959  16.144 -0.0930  0.0234 -0.2927
11390W        W12254  28.979  11.867  11.751 -0.1078  0.4245  0.2324
11391W        W12255  28.938  12.188  11.368 -0.1058 -0.1849  0.4666
11392W        W12256   0.030  10.943  13.408  0.0258 -0.2436 -0.0408
11393W        W12257   2.039  14.228  14.965  0.0902  0.0257 -0.0110
11394W        W12258   4.409  12.567  15.787 -0.1586 -0.3143  0.0286
11395W        W12259   2.591   8.606  12.603 -0.0216  0.1860  0.0747
11396W        W12260  28.543  11.246  11.710 -0.2549 -0.1943  0.1777
11397W        W12261  28.973  14.962  13.783 -0.0884  0.2568 -0.3206
11398W        W12262   0.643  12.884  13.813  0.1381  0.2845  0.1238
11399W        W12263   2.181  14.715  12.723 -0.0866  0.2707 -0.0968
11400W        W12264  29.060  13.223  13.650 -0.1713  0.2226  0.1447
11401W        W12265   0.864  12.694  12.353 -0.2401 -0.0006 -0.1506
11402W        W12266   2.660  15.504  13.792  0.3524  0.0328 -0.0934
11403W        W12267   4.231  11.838  13.770 -0.0507 -0.0918  0.0562
11404W        W12268  27.979  11.169  11.386 -0.0672  0.1113 -0.2056
11405W        W12269   2.125  11.595  15.055  0.1551 -0.1889  0.0497
11406W        W12270   1.815  13.233  11.667 -0.1387 -0.3325 -0.2059
11407W        W12271   1.190  11.703  12.484 -0.1395 -0.1731  0.0918
11408W        W12272   1.932  10.516  11.300 -0.1057  0.0072 -0.0504
11409W        W12273   0.151  12.006  13.431  0.0883 -0.0615  0.0585
11410W        W12274  28.082  15.480  17.523  0.2346  0.1812  0.0444
11411W        W12275  28.908  11.887  14.987 -0.2513 -0.0880  0.0174
11412W        W12276   4.318  13.184  15.068  0.1021 -0.0518 -0.1405
11413W        W12277   1.394  15.808  17.148  0.0458 -0.1379 -0.0427
11414W        W12278   2.188  12.474  12.569 -0.2152 -0.1016 -0.0423
11415W        W12279   2.008  13.792  15.265 -0.3182  0.2571 -0.0561
11416W        W12280  27.840  12.464  15.782 -0.0134  0.1544 -0.2218
11417W        W12281   5.897  11.632  12.773  0.0299  0.1197  0.0558
11418W        W12282   1.907  14.317  17.267  0.0684 -0.0667 -0.1591
11419W        W12283   3.408   9.801  16.422 -0.0795 -0.2424  0.0176
11420W        W12284   1.156  11.470  16.311 -0.0613  0.1222 -0.1353
11421W        W12285   3.809  11.779  17.091  0.2128 -0.2012  0.1139
11422W        W12286   0.603  12.032  18.212 -0.2039  0.4577 -0.1786
11423W        W12287   3.059  13.429  16.189 -0.0017 -0.3239 -0.0068
11424W        W12288   0.153  11.041  18.060 -0.0105  0.3448 -0.2595
11425W        W12289  28.498  12.189  19.304  0.2210 -0.0055 -0.2982
11426W        W12290   0.492  12.844  15.452 -0.2657 -0.1117 -0.0609
11427W        W12291  28.848   9.580  16.961  0.2026  0.0884 -0.3115
11428W        W12292  25.095  11.258  18.171 -0.1977  0.0765  0.2385
11429W        W12293   3.530   9.422  16.021 -0.0019  0.3448  0.0097
11430W        W12294   3.855  12.923  14.307 -0.0118 -0.0941  0.0434
11431W        W12295   1.898  12.406  15.916  0.1142 -0.1366 -0.1924
11432W        W12296  29.066  14.497  14.033  0.0838  0.0843 -0.0658
11433W        W12297  28.824  11.398  16.850 -0.1291  0.1485 -0.1000
11434W        W12298  27.675  12.573  16.729  0.0182  0.2688  0.1249
11435W        W12299   1.594  14.122  15.273 -0.4182  0.0406  0.0737
11436W        W12300   3.365  10.181  16.723  0.0559 -0.0960  0.0839
11437W        W12301  28.540  13.697  14.979  0.0975 -0.2610  0.0348
11438W        W12302   2.309  11.369  17.634  0.4755  0.1811  0.1176
11439W        W12303   2.190  14.019  16.674  0.1686 -0.1183 -0.2328
11440W        W12304   1.452  12.536  15.067  0.1518 -0.2124 -0.2296
11441W        W12305   3.421  11.759  17.437 -0.2479 -0.2057 -0.1815
11442W        W12306   2.764  12.667  15.848  0.0992 -0.2289  0.1919
11443W        W12307   1.458  12.494  15.612  0.0328  0.1797  0.3220
11444W        W12308   1.163  13.136  17.861 -0.0314  0.1484  0.1306
11445W        W12309   3.426  12.709  17.266  0.1559  0.2970  0.1864
11446W        W12310   1.091   8.487  14.842  0.0489  0.1051  0.2266
11447W        W12311   2.113  11.936  15.987 -0.1211 -0.0394  0.0684
11448W        W12312   4.330  16.188  16.381  0.2348 -0.0802 -0.2441
11449W        W12313   0.972   9.391  16.121 -0.0463 -0.0865  0.3495
11450W        W12314   1.905  13.389  13.549  0.2706  0.0190  0.0962
11451W        W12315   3.882  12.754  15.039 -0.0038 -0.1354  0.1235
11452W        W12316   4.412  14.101  17.721 -0.0810  0.0255 -0.0295
11453W        W12317   4.629  12.218  18.134 -0.1141  0.1829 -0.1562
11454W        W12318   0.218  16.648  15.877  0.0045 -0.0101  0.0625
11455W        W12319  27.300  14.770  14.324  0.0329  0.3542  0.1240
11456W        W12320   1.277  11.268  19.492  0.0197  0.2690  0.0590
11457W        W12321   2.002  12.768  17.367  0.0071  0.0934 -0.0059
11458W        W12322   0.191  10.789  14.363  0.0709  0.3190 -0.0267
11459W        W12323   5.805  11.904  13.702  0.0863 -0.0501 -0.0396
11460W        W12324   2.369  14.125  15.416  0.3591 -0.0956  0.3421
11461W        W12325   2.171  11.388  15.733 -0.0005 -0.2276  0.1209
11462W        W12326   2.318  13.726  16.330  0.2120  0.3518  0.1465
11463W        W12327   1.726  11.904  14.687  0.2436 -0.1844  0.0760
11464W        W12328   1.779  11.502  14.305 -0.0956  0.0963 -0.0465
11465W        W12329  26.483  12.971  14.321  0.3241 -0.4169 -0.2922
11466W        W12330  27.976  12.042  13.745 -0.1066  0.0090  0.2045
11467W        W12331   1.367  10.854  16.444  0.2340  0.1321  0.1362
11468W        W12332   1.790  11.687  13.119 -0.1521 -0.3585 -0.1758
11469W        W12333   1.780  12.381  13.643  0.4565 -0.2096 -0.2246
11470W        W12334   4.880  12.842  12.526  0.3919  0.2625  0.1062
11471W        W12335   0.327  13.267  15.175  0.0127  0.0944 -0.1969
11472W        W12336   0.686  13.135  17.488  0.0778  0.2797  0.1696
11473W        W12337   0.175  14.538  14.876 -0.0280 -0.1040 -0.1117
11474W        W12338   0.845  11.466  17.958  0.1736 -0.0429  0.1891
11475W        W12339   3.880  11.083  17.989  0.0837 -0.1372  0.1847
11476W        W12340   2.553  12.783  11.936  0.2187  0.0235  0.1307
11477W        W12341  28.711  12.185  16.620 -0.0479 -0.0722  0.0476
11478W        W12342   0.073  13.394  16.124 -0.0758  0.0259  0.0222
11479W        W12343   4.362  10.274  15.682 -0.2281 -0.0055 -0.0383
11480W        W12344   4.463  13.643  17.710  0.1361  0.0800 -0.3131
11481W        W12345  27.893  11.733  18.435 -0.2112  0.1015  0.0192
11482W        W12346   4.020  17.781  17.448 -0.4413  0.0299  0.1811
11483W        W12347   4.530  13.026  17.257  0.0879  0.1495 -0.0021
11484W        W12348   2.468  13.570  15.322 -0.1593 -0.2915  0.1998
11485W        W12349  29.105  16.000  19.278  0.1696 -0.2422  0.0804
11486W        W12350  28.523  15.450  16.216  0.1627 -0.0722  0.0613
11487W        W12351  28.533  14.398  16.027 -0.0477  0.1216  0.4650
11488W        W12352   3.100   9.293  13.497  0.1070 -0.2040 -0.1080
11489W        W12353   3.970  12.293  14.838  0.2162  0.1194  0.4160
11490W        W12354   0.986  11.824  18.941  0.4817 -0.2218 -0.2191
11491W        W12355   1.552  12.552  16.607 -0.3969 -0.1649 -0.1806
11492W        W12356   1.095  11.237  18.428 -0.0634 -0.0053  0.2588
11493W        W12357   2.543  11.227  18.203 -0.1471  0.1966  0.0566
11494W        W12358   2.644  11.639  18.001 -0.1706  0.0335 -0.3722
11495W        W12359   2.922   8.987  12.851 -0.0640  0.0370  0.0456
11496W        W12360   2.614  12.023  19.653 -0.1212  0.0497  0.1171
11497W        W12361   3.101  10.567  16.056  0.0613  0.0482  0.1505
11498W        W12362   0.279  13.663  16.871  0.1414 -0.4099  0.1181
11499W        W12363   4.630  11.455  16.137  0.1568  0.1101 -0.0220
11500W        W12364   0.570  12.186  15.256  0.1443  0.0729  0.2259
11501W        W12365   4.263  13.720  20.293 -0.2323 -0.1546  0.0529
11502W        W12366   1.669  13.219  16.396 -0.1203  0.2754  0.1180
11503W        W12367  28.192  10.893  15.739  0.0659 -0.0940 -0.0915
11504W        W12368   1.253  12.224  21.138 -0.1445 -0.1707 -0.2267
11505W        W12369   3.327  12.496  14.119  0.2214  0.0550  0.0791
11506W        W12370   5.017  12.187  13.983  0.1797  0.1473  0.2161
11507W        W12371   1.272  14.961  16.310 -0.0911 -0.0155  0.1942
11508W        W12372   1.072  11.276  15.868  0.0018 -0.0571 -0.2382
11509W        W12373   2.521  10.782  14.362 -0.0911 -0.1846 -0.0299
11510W        W12374   3.006  10.453  15.590  0.0746  0.1268 -0.0234
11511W        W12375   1.210  13.187  17.265  0.2254 -0.2640  0.0855
11512W        W12376   3.449  10.864  13.336 -0.3818 -0.0866  0.2886
11513W        W12377   2.208  14.937  15.766  0.1328  0.4109 -0.0290
11514W        W12378   3.898  10.428  13.346  0.1801 -0.3324  0.2631
11515W        W12379   2.629  11.554  15.855  0.1156 -0.0715 -0.3233
11516W        W12380   1.048  12.885  15.039  0.1187  0.1983  0.0981
11517W        W12381   0.905  12.359  19.616 -0.2656  0.0698 -0.0116
11518W        W12382   1.495  10.597  14.691  0.1010  0.0576 -0.0613
11519W        W12383   1.357  12.952  15.468  0.0357 -0.1142 -0.2705
11520W        W12384  27.764  15.136  15.378 -0.1682 -0.0579 -0.0219
11521W        W12385  29.009  12.002  14.481  0.0704 -0.0958  0.1103
11522W        W12386   1.532  12.016  17.384 -0.1313  0.1375  0.1580
11523W        W12387   0.946  12.600  14.640 -0.0450 -0.0370 -0.0848
11524W        W12388   5.446  11.616  12.535  0.1879  0.4070 -0.1258
11525W        W12389   1.211  13.752  14.129  0.2484  0.1709  0.0768
11526W        W12390   4.096   8.578  15.109  0.0067 -0.0914  0.6639
11527W        W12391   1.788  14.071  15.864 -0.1164  0.0409 -0.0218
11528W        W12392   1.133  11.762  18.281 -0.0720 -0.3616  0.1210
11529W        W12393   4.992  12.508  13.623 -0.1046  0.1000 -0.0031
11530W        W12394   3.297  12.851  13.768  0.0676  0.1464 -0.3313
11531W        W12395   3.620  15.262  16.467 -0.1916  0.0010 -0.0287
11532W        W12396   2.907  10.919  15.320  0.0095  0.1495 -0.1221
11533W        W12397   1.529  11.378  12.826 -0.0240 -0.0301  0.0881
11534W        W12398  28.340  13.272  15.875 -0.4535 -0.1846  0.0432
11535W        W12399   3.371  12.857  16.650  0.1076 -0.0704 -0.2102
11536W        W12400   2.434  10.112  17.837  0.0232  0.1260 -0.0845
11537W        W12401   1.237  13.052  19.598 -0.3472  0.0596  0.1665
11538W        W12402   3.559  13.648  16.988  0.1518  0.3994  0.2373
11539W        W12403   0.032  14.797  16.603 -0.1183 -0.0607  0.0993
11540W        W12404   3.459  13.339  15.795 -0.1082  0.0323 -0.0053
11541W        W12405   3.513  11.913  21.192 -0.0527  0.3355 -0.1432
11542W        W12406   2.667  14.653  16.225  0.0393  0.0494  0.0904
11543W        W12407   3.813  14.034  15.053  0.1214  0.1975 -0.2987
11544W        W12408   4.239  12.360  15.283 -0.1916  0.2664  0.0733
11545W        W12409  27.256  11.990  17.802 -0.0636 -0.2269  0.2455
11546W        W12410   0.971  10.231  15.265  0.0020  0.1640  0.1937
11547W        W12411   6.624  13.533  15.699 -0.0400  0.3324 -0.0874
11548W        W12412   2.717  15.001  15.864  0.1567  0.1993 -0.0177
11549W        W12413   0.702  14.479  14.912  0.0888 -0.1338  0.1060
11550W        W12414   4.209  12.895  14.659  0.0505  0.0024  0.1989
11551W        W12415   0.919   7.777  17.474  0.0912  0.0333 -0.1389
11552W        W12416   0.778  13.637  15.007  0.0961 -0.1013 -0.0056
11553W        W12417   4.338  10.396  14.401 -0.0471  0.0182 -0.2013
11554W        W12418   1.752  10.115  19.847  0.0406  0.2745  0.0858
11555W        W12419   1.403  11.986  16.661 -0.2992  0.2340  0.2605
11556W        W12420   2.183  11.497  12.759 -0.0969 -0.0350 -0.0489
11557W        W12421   0.530  14.413  14.476 -0.1901  0.0746 -0.0986
11558W        W12422   0.695  13.832  14.032  0.0074  0.1194 -0.4859
11559W        W12423  29.133  14.896  15.254  0.0114  0.2665 -0.0902
11560W        W12424   2.411  14.180  16.140 -0.0631  0.2187 -0.3314
11561W        W12425   1.299  12.112  13.853  0.1899  0.0206 -0.0427
11562W        W12426  28.034  15.850  15.167  0.0091  0.2139 -0.0519
11563W        W12427   1.417  10.869  12.168  0.0946 -0.0038  0.0993
11564W        W12428   1.766  11.468  19.000 -0.1814  0.1990 -0.0923
11565W        W12429   4.368   9.453  14.884 -0.3552 -0.0590  0.0382
11566W        W12430  28.253  12.010  16.549  0.1021  0.4863 -0.2493
11567W        W12431   1.233  14.494  15.083  0.1371 -0.0308  0.0635
11568W        W12432   1.200  13.044  12.566 -0.3382  0.0283  0.0136
11569W        W12433   1.323  11.150  17.055  0.1936 -0.0741  0.0448
11570W        W12434   1.577  12.521  17.325 -0.1863  0.0926 -0.0855
11571W        W12435   1.975  12.741  16.384 -0.2406 -0.0605  0.0159
11572W        W12436   0.945  12.100  15.518 -0.0364  0.4172 -0.2202
11573W        W12437   1.446  12.697  17.908  0.0803 -0.1036 -0.0249
11574W        W12438   2.585  10.385  17.031 -0.0592  0.0144 -0.1743
11575W        W12439   1.119   8.958  18.125  0.0689 -0.1394  0.1865
11576W        W12440   0.539  10.417  15.124 -0.3070  0.2177 -0.0559
11577W        W12441   0.135  13.714  15.099  0.0441  0.1395 -0.1195
11578W        W12442   3.068  15.340  17.819  0.0760 -0.0200 -0.2423
11579W        W12443  26.955  13.056  15.810  0.1917 -0.0546 -0.1637
11580W        W12444   2.728  10.823  16.817 -0.4287 -0.1323 -0.1811
11581W        W12445   3.018  11.528  17.073  0.0896 -0.0562  0.3927
11582W        W12446   1.675  11.858  18.319 -0.0888 -0.0715 -0.0283
11583W        W12447   3.130  12.196  13.473 -0.0267 -0.0827 -0.3836
11584W        W12448   0.953  11.887  16.753  0.1788  0.0800 -0.1304
11585W        W12449   2.042  12.442  15.133  0.1925  0.1868 -0.0381
11586W        W12450  26.247  13.622  16.112  0.2551  0.0135  0.0180
11587W        W12451  28.376  12.837  18.748  0.1247 -0.0373 -0.2658
11588W        W12452  26.174  15.572  12.709  0.0374 -0.1382  0.1434
11589W        W12453   1.956  12.644  16.893  0.1716  0.0265  0.0315
11590W        W12454  28.882  14.310  12.879  0.1091  0.1229 -0.0914
11591W        W12455   2.747  15.944  17.501 -0.0742  0.2265 -0.1389
11592W        W12456   2.907   8.315  13.711  0.0513  0.1791 -0.0442
11593W        W12457  29.089  11.422  15.184 -0.0622  0.1030 -0.1314
11594W        W12458   1.452  11.205  14.546  0.3578  0.2577 -0.0948
11595W        W12459   2.721  12.362  17.098 -0.0852  0.0294 -0.2642
11596W        W12460   2.163  10.232  13.754  0.0341  0.3033 -0.0456
11597W        W12461   1.314  12.237  14.615  0.1030 -0.2343  0.0647
11598W        W12462  28.868  11.956  15.924  0.0237  0.2509  0.1283
11599W        W12463   1.847  13.818  17.270  0.0006  0.0655 -0.0736
11600W        W12464   2.305  12.505  15.530 -0.1686  0.0751 -0.1725
11601W        W12465  28.993  14.345  17.551  0.0268  0.0030 -0.0712
11602W        W12466   1.544  12.979  17.526  0.2978 -0.2080  0.1333
11603W        W12467   3.148  10.915  16.464 -0.0116  0.1341  0.0713
11604W        W12468  28.981  12.133  17.556  0.0779 -0.0715 -0.0755
11605W        W12469   1.528  11.644  17.067  0.0923  0.0244 -0.3027
11606W        W12470   2.959  10.967  14.270  0.2623  0.1603 -0.1084
11607W        W12471  28.492  14.197  12.584  0.2601  0.0291  0.0187
11608W        W12472   0.083   9.370  17.444 -0.1352 -0.1977 -0.1647
11609W        W12473   3.678  11.288  14.152  0.1138 -0.2907 -0.0921
11610W        W12474   0.755  11.991  13.804 -0.3759  0.0332  0.1432
11611W        W12475   3.020   9.879  18.420  0.2252 -0.0591  0.0491
11612W        W12476   1.461  12.969  13.794 -0.1210 -0.2176  0.4601
11613W        W12477  27.842  10.384  15.640 -0.3515  0.1905  0.0936
11614W        W12478   2.520  12.802  18.941  0.0542  0.1693  0.0975
11615W        W12479   1.516  12.060  15.141  0.2233  0.0851 -0.0644
11616W        W12480   0.349  10.380  16.014  0.0966  0.0171 -0.1791
11617W        W12481   5.174  12.644  14.145  0.0654  0.1315 -0.0097
11618W        W12482   2.398  15.119  16.290  0.2236  0.1264 -0.2291
11619W        W12483  28.893  11.404  11.278 -0.0755 -0.0702  0.3400
11620W        W12484   1.794  14.079  19.084 -0.0977  0.0957  0.0409
11621W        W12485  28.419  10.589  17.270  0.2541 -0.1572 -0.0460
11622W        W12486   2.109  15.455  18.195 -0.1224  0.0610 -0.2097
11623W        W12487   3.115  12.306  18.573 -0.1941 -0.3391  0.1491
11624W        W12488   4.007  13.024  17.175  0.3219 -0.1740 -0.1218
11625W        W12489   3.719  11.996  13.473 -0.2827 -0.2739  0.2464
11626W        W12490   2.278  12.044  14.783 -0.0045  0.0074  0.2494
11627W        W12491   3.276  13.214  13.423  0.0050 -0.1204  0.0864
11628W        W12492   0.181  12.784  16.744  0.0419 -0.3123  0.1932
11629W        W12493   0.883  12.682  17.284  0.0751 -0.0116  0.1199
11630W        W12494   2.996  11.550  18.409 -0.2100  0.2618 -0.1640
11631W        W12495   2.030  12.327  18.353 -0.3210 -0.0759 -0.0210
11632W        W12496   1.430  14.350  16.599  0.0296 -0.1741  0.2485
11633W        W12497   3.874  10.017  13.714 -0.2192 -0.2682  0.0605
11634W        W12498   3.501  14.997  16.016  0.0459  0.0865 -0.0208
11635W        W12499   1.787   9.781  19.413 -0.3300 -0.0438 -0.0660
11636W        W12500   1.007  13.113  19.164  0.2511 -0.2890  0.1585
11637W        W12501   2.906  11.688  16.249 -0.0643  0.2056  0.1006
11638W        W12502   7.023  14.059  15.111 -0.1089  0.0499 -0.0033
11639W        W12503   2.890  13.221  18.971  0.1135  0.0129  0.0128
11640W        W12504   2.960  11.862  19.305 -0.0752 -0.0951 -0.1973
11641W        W12505   2.163  12.160  20.487  0.2466 -0.3045  0.3684
11642W        W12506   1.455  12.359  16.151  0.1707 -0.1271  0.2695
11643W        W12507   0.818  10.666  16.040  0.1234  0.3241 -0.0575
11644W        W12508  28.354  11.158  16.893  0.0013  0.0885 -0.0960
11645W        W12509   3.571  12.631  14.622 -0.0672 -0.2236 -0.1425
11646W        W12510   5.207   8.644  16.407  0.1036  0.0917  0.1767
11647W        W12511   0.204   8.996  17.851 -0.1577  0.0893  0.1441
11648W        W12512   2.688  13.258  14.276  0.1440  0.3590  0.0990
11649W        W12513   3.133  12.977  15.885  0.0474 -0.1823  0.0969
11650W        W12514   2.172  13.363  14.990  0.2200 -0.0636  0.0259
11651W        W12515   0.964  13.168  18.362 -0.3091  0.0683  0.0364
11652W        W12516   1.264  13.031  20.882 -0.0759  0.1797 -0.1787
11653W        W12517   1.822  12.863  13.374  0.3930  0.4531  0.0635
11654W        W12518   2.899  10.554  14.997  0.3375  0.1840 -0.0300
11655W        W12519   2.151  10.031  11.627  0.0522 -0.1534  0.2586
11656W        W12520   2.638  18.021  17.960  0.1483 -0.1600  0.2689
11657W        W12521   0.922  13.426  20.531  0.1127  0.1027 -0.2335
11658W        W12522   5.512  17.033  16.709  0.1597  0.1074 -0.1232
11659W        W12523   1.814  12.178  17.011  0.0668 -0.1364  0.0960
11660W        W12524   0.670  11.067  17.754  0.0186 -0.0847 -0.0255
11661W        W12525  27.548  16.210  14.522  0.0079 -0.1930  0.2575
11662W        W12526   0.824  16.279  18.268 -0.2444 -0.2673 -0.5427
11663W        W12527   0.214  14.299  12.642 -0.1300 -0.2104  0.0078
11664W        W12528   1.687  12.883  15.955  0.2005 -0.1578 -0.2336
11665W        W12529   3.010  14.169  15.082  0.2766 -0.0280  0.1360
11666W        W12530   3.328  10.106  15.522  0.3092  0.0283  0.0649
11667W        W12531   1.810   9.593  16.492  0.1176  0.0324  0.0178
11668W        W12532   0.890  13.443  15.822  0.2495 -0.2207 -0.1809
11669W        W12533   2.245  11.614  13.985  0.0534  0.1196 -0.2079
11670W        W12534   1.571  11.337  16.605  0.1179 -0.0915  0.4182
11671W        W12535   2.472  12.896  17.133  0.0780 -0.1298 -0.1691
11672W        W12536  28.737  13.556  15.922  0.1210 -0.1996  0.0915
11673W        W12537   1.147  12.415  17.613  0.0001  0.0966 -0.1483
11674W        W12538   1.011  16.569  14.465  0.2907 -0.0835  0.1857
11675W        W12539   0.965  14.608  16.418 -0.0062 -0.1149  0.2447
11676W        W12540   2.733  12.866  14.726 -0.1354  0.1455  0.1730
11677W        W12541   3.026  15.101  16.265 -0.2603  0.0002 -0.1403
11678W        W12542   1.889  11.689  16.774 -0.2172  0.1113  0.3151
11679W        W12543   5.302  13.377  13.258  0.2831  0.4425 -0.2871
11680W        W12544   2.185  12.091  14.311  0.0978  0.0895 -0.0435
11681W        W12545   3.816  12.841  16.454 -0.1647  0.2381 -0.2230
11682W        W12546   1.125  12.792  16.854 -0.3653  0.8281  0.1480
11683W        W12547   0.545  11.276  14.987  0.2742 -0.2967  0.1206
11684W        W12548   3.076  15.367  15.124  0.1159 -0.1774 -0.0792
11685W        W12549   1.909  11.198  18.114 -0.1680 -0.1264  0.0739
11686W        W12550   0.072  12.292  19.910  0.0249  0.1055 -0.1461
11687W        W12551   1.901  13.041  14.159 -0.0841  0.0997 -0.0867
11688W        W12552   2.462  10.319  14.903 -0.0354  0.1289  0.1094
11689W        W12553   0.466  15.045  16.980  0.2920  0.0839  0.2194
11690W        W12554   2.170  12.411  18.828  0.4865 -0.1121 -0.3117
11691W        W12555  27.637  13.355  15.189  0.1330  0.1675 -0.0925
11692W        W12556  28.950  13.448  16.538  0.1812  0.2369  0.1940
11693W        W12557  29.013  14.438  15.464 -0.2729 -0.1310 -0.1291
11694W        W12558   1.538  11.657  13.914 -0.0223  0.0808 -0.1716
11695W        W12559   2.152  11.293  18.556  0.0701 -0.0485 -0.0870
11696W        W12560   3.215  12.406  16.869  0.4764 -0.0877  0.0685
11697W        W12561  27.528  11.349  19.264  0.0597  0.2985 -0.1530
11698W        W12562   3.438  11.249  13.709  0.0738  0.0036  0.1312
11699W        W12563   3.268  11.413  16.614 -0.0279 -0.0604  0.1821
11700W        W12564   1.084  11.785  17.245  0.0213 -0.3578  0.0473
11701W        W12565   2.182  14.695  15.178  0.0240 -0.0324 -0.0236
11702W        W12566   1.435  14.080  17.504 -0.0559 -0.0684  0.1306
11703W        W12567  28.098  10.316  14.560  0.2351 -0.0519  0.3460
11704W        W12568   1.741  12.261  17.740 -0.0344  0.1247  0.1055
11705W        W12569   1.293  10.824  15.909  0.1910  0.0232  0.1766
11706W        W12570   4.364  12.607  17.010 -0.2441  0.1345 -0.1296
11707W        W12571   2.997  12.538  17.483 -0.2996 -0.3199 -0.0417
11708W        W12572   2.100  11.074  14.351 -0.0561  0.0168 -0.0734
11709W        W12573  28.756  14.569  15.076  0.3127 -0.1130  0.1685
11710W        W12574   2.062  12.133  13.365  0.1740  0.4349 -0.2221
11711W        W12575   0.668   8.738  18.121  0.0628 -0.0016 -0.0256
11712W        W12576   1.917  12.855  15.477 -0.0029  0.0213  0.1373
11713W        W12577   3.262  13.826  15.859 -0.1535 -0.3749  0.2116
11714W        W12578   1.048  13.948  14.666 -0.3105 -0.0971 -0.1924
11715W        W12579   2.107  16.694  17.492  0.0402 -0.3108  0.2757
11716W        W12580   1.872  11.973  18.756 -0.0960 -0.0243 -0.0859
11717W        W12581   3.245   9.590  14.605  0.1126 -0.0576  0.0720
11718W        W12582   4.024  10.227  16.043  0.2422 -0.1774 -0.1232
11719W        W12583  27.661  14.487  15.481 -0.2390  0.0520 -0.2630
11720W        W12584   3.484  11.368  17.031 -0.0816 -0.0491 -0.2246
11721W        W12585   0.791  12.739  17.799  0.2183  0.2515  0.1617
11722W        W12586   3.483   9.622  15.524 -0.2343  0.0901 -0.1540
11723W        W12587   2.256  14.503  16.500 -0.2630 -0.0186  0.0735
11724W        W12588   0.320  11.977  17.808 -0.1612 -0.0295 -0.0493
11725W        W12589   2.784  15.130  20.008  0.0741  0.1417  0.3340
11726W        W12590   0.318  10.012  15.573  0.3539  0.2097 -0.1663
11727W        W12591   2.633  12.312  14.415  0.1399 -0.1856  0.1301
11728W        W12592   3.363  16.875  18.068 -0.1583 -0.1558 -0.0951
11729W        W12593   0.038  12.539  15.706  0.2015  0.1336 -0.1721
11730W        W12594   1.430  13.597  16.624  0.0053 -0.0935  0.0010
11731W        W12595   1.699  13.494  12.090  0.1509  0.2272 -0.1162
11732W        W12596  28.888  10.409  17.446 -0.0386 -0.2211 -0.0158
11733W        W12597   3.886  12.530  13.193 -0.0631 -0.0040 -0.0614
11734W        W12598   0.403  14.991  14.997  0.3119 -0.1117 -0.3102
11735W        W12599   2.674  13.699  15.936  0.1219  0.0285  0.2866
11736W        W12600   1.375  10.493  15.217  0.0145  0.1696 -0.2362
11737W        W12601  28.412  14.241  14.245 -0.0150 -0.1813  0.1794
11738W        W12602   2.078  11.882  17.468  0.0047  0.0338 -0.0275
11739W        W12603   2.864  12.672  13.923 -0.1525 -0.1636 -0.0275
11740W        W12604   1.447  12.261  18.194  0.0347  0.2147 -0.0957
11741W        W12605   3.998  11.264  13.698 -0.0467  0.1554  0.4899
11742W        W12606   4.097  15.044  18.721  0.1728  0.0564  0.2798
11743W        W12607   2.297  12.561  14.687  0.0272 -0.3073  0.3283
11744W        W12608   4.184  14.775  17.205 -0.0761  0.2154 -0.2471
11745W        W12609   3.944  14.073  17.680 -0.2010 -0.0239 -0.3028
11746W        W12610  28.709  15.304  16.687  0.2811  0.0334  0.2144
11747W        W12611   2.874  12.257  15.452 -0.3243 -0.4306 -0.1259
11748W        W12612   1.256  13.857  19.179 -0.2574 -0.0455 -0.2469
11749W        W12613   0.881   9.884  16.336 -0.0994 -0.0763 -0.0803
11750W        W12614   2.982  11.380  15.562 -0.0964 -0.1181 -0.0419
11751W        W12615   1.000  11.219  16.699  0.2929  0.2555  0.2015
11752W        W12616  29.063  14.149  14.988  0.1136 -0.0463 -0.1213
11753W        W12617   3.691  12.320  16.513  0.3445  0.3477  0.2569
11754W        W12618   3.666  12.835  15.844  0.2846  0.0398 -0.0578
11755W        W12619  28.573  15.757  15.360  0.0415  0.1135 -0.2230
11756W        W12620  28.901  10.149  16.874  0.1521  0.1979 -0.1455
11757W        W12621   1.250  13.425  14.749 -0.0164 -0.1398 -0.0282
11758W        W12622   2.149  10.160  17.000 -0.0590 -0.2071  0.1532
11759W        W12623   4.418  12.915  16.295  0.1477  0.1324  0.2152
11760W        W12624   0.930  12.451  13.923 -0.0896 -0.0854 -0.0847
11761W        W12625   3.884  12.767  18.517  0.0815  0.1312 -0.0949
11762W        W12626   0.253  15.321  14.442  0.0815  0.4274  0.1242
11763W        W12627   1.396  15.377  16.911 -0.0426 -0.2214  0.3504
11764W        W12628   4.626  12.781  13.752  0.1770  0.0753 -0.0802
11765W        W12629  27.055  13.530  15.688 -0.2365 -0.0631 -0.0964
11766W        W12630   2.249  11.015  19.755 -0.1677  0.1989 -0.0438
11767W        W12631   0.496  11.086  16.731  0.0161  0.0654 -0.1684
11768W        W12632  26.278  14.058  15.143  0.1462  0.0512 -0.0083
11769W        W12633   3.185  13.854  13.784  0.0365 -0.0211 -0.0424
11770W        W12634   0.347  15.549  19.771  0.1389 -0.5320  0.0406
11771W        W12635   0.987  12.780  19.912 -0.2574  0.0174 -0.3382
11772W        W12636   1.552  11.513  15.043 -0.0403  0.0030 -0.0138
11773W        W12637   5.645  14.472  15.487  0.0700  0.2345 -0.0384
11774W        W12638   2.343  11.951  15.518  0.0431  0.1378  0.0146
11775W        W12639   0.640  13.633  16.497 -0.0723 -0.0486 -0.3279
11776W        W12640   3.971  13.976  16.563  0.4017 -0.1393 -0.1635
11777W        W12641   1.600  11.833  16.167  0.0921  0.1331  0.1463
11778W        W12642   3.593  14.233  15.565  0.1540 -0.3376  0.2160
11779W        W12643   1.101  11.283  15.064  0.0355 -0.2516  0.0426
11780W        W12644   3.780  12.394  15.553  0.1466  0.1675  0.0215
11781W        W12645   5.315  10.862  14.436  0.0124  0.0842 -0.0080
11782W        W12646   1.421  11.704  19.236 -0.1057  0.0646  0.3979
11783W        W12647   3.786  12.176  18.581  0.0133 -0.2938 -0.0178
11784W        W12648   1.943   9.677  17.044 -0.0557  0.0858 -0.2772
11785W        W12649   3.247  11.714  15.872 -0.0427  0.2120  0.1008
11786W        W12650   1.443  16.360  17.937  0.0483 -0.4120  0.1057
11787W        W12651   0.691  11.136  16.262 -0.3614 -0.0975 -0.2377
11788W        W12652  28.924  11.066  17.712 -0.1755 -0.0473 -0.0918
11789W        W12653   4.306  10.723  17.041  0.2878 -0.4309  0.0079
11790W        W12654   0.479  14.044  15.004 -0.2216 -0.0252  0.0367
11791W        W12655   1.183  12.239  17.067  0.2946 -0.1988  0.0725
11792W        W12656   3.541  13.252  14.395 -0.0775 -0.1613 -0.4786
11793W        W12657   2.640  15.777  18.763  0.1201 -0.1134 -0.1598
11794W        W12658   1.268  13.501  15.318  0.1389  0.0578 -0.1046
11795W        W12659   2.752  17.911  16.831  0.4270  0.0913 -0.0382
11796W        W12660   4.743  13.946  17.384  0.2543  0.2069  0.2149
11797W        W12661   0.655  10.634  14.684  0.0235 -0.3700  0.4959
11798W        W12662   4.356  15.286  15.657  0.1770 -0.0701 -0.1000
11799W        W12663   3.411  13.838  15.318 -0.1904  0.1186 -0.0372
11800W        W12664   0.217  14.363  17.880 -0.1332 -0.0392 -0.2146
11801W        W12665   7.132  13.143  17.958  0.0672  0.0246  0.4809
11802W        W12666   2.137  15.597  16.316 -0.0387  0.0393  0.1058
11803W        W12667  29.041  15.388  16.294 -0.3679  0.2831  0.2676
11804W        W12668   2.943  12.964  16.361 -0.2747 -0.0973  0.2254
11805W        W12669   1.746  11.283  13.495 -0.0533 -0.0894  0.0155
11806W        W12670   0.431  16.359  20.205 -0.2952  0.1655  0.0449
11807W        W12671   4.016  14.003  17.162  0.0674 -0.2687 -0.2611
11808W        W12672   2.583  13.098  15.564 -0.1623 -0.0620 -0.0294
11809W        W12673  27.930  14.151  21.066 -0.0069 -0.0599  0.3247
11810W        W12674  25.993  14.367  22.239 -0.0625  0.2773  0.0968
11811W        W12675   2.681  15.454  17.511 -0.0097 -0.0523  0.2143
11812W        W12676   2.676  11.732  22.181 -0.2589  0.0109 -0.0760
11813W        W12677   0.828  15.902  17.955 -0.0069  0.1700 -0.1141
11814W        W12678  28.351  12.198  18.791 -0.0110 -0.1044 -0.0134
11815W        W12679   1.344  13.793  20.317  0.2053 -0.3276  0.0920
11816W        W12680   3.079  13.040  17.481 -0.0003  0.0058  0.1393
11817W        W12681   2.810  14.419  22.318 -0.1468  0.4681 -0.3330
11818W        W12682   1.113  10.900  21.428  0.1727 -0.1227 -0.1268
11819W        W12683  27.571  12.169  19.869 -0.2744 -0.0738 -0.0407
11820W        W12684   2.024  11.897  20.954  0.1158 -0.0223 -0.1201
11821W        W12685   3.518  11.622  20.460 -0.2255  0.0111  0.2715
11822W        W12686   4.390  11.667  22.797  0.0043  0.1970 -0.1072
11823W        W12687  27.396  11.412  21.122 -0.0717 -0.1391 -0.0963
11824W        W12688   0.086  12.896  23.322 -0.3981  0.0217 -0.1766
11825W        W12689   3.545  13.662  19.475 -0.1521  0.3344  0.0859
11826W        W12690  28.643  12.195  20.533 -0.0850 -0.0851 -0.0388
11827W        W12691   0.866  11.819  20.906 -0.2133 -0.0417  0.1447
11828W        W12692   4.405  10.643  16.590  0.1167 -0.4651 -0.3188
11829W        W12693   0.712  12.540  23.774 -0.3370 -0.1086 -0.0197
11830W        W12694   0.776  14.295  20.744  0.0786  0.1686  0.2232
11831W        W12695   3.680  13.627  17.880  0.0595 -0.2121 -0.0387
11832W        W12696   0.284  14.079  21.616 -0.2570  0.3070  0.2349
11833W        W12697  28.412  11.077  22.624 -0.3573  0.1282 -0.3559
11834W        W12698   0.969  14.216  19.468 -0.1108 -0.0200  0.0906
11835W        W12699   2.045  13.791  24.786  0.1707 -0.1824 -0.0473
11836W        W12700   0.125  15.331  20.293  0.2126 -0.0751 -0.0723
11837W        W12701   3.233  14.661  20.014 -0.1034 -0.0036 -0.0146
11838W        W12702   1.901  13.522  20.427  0.1564 -0.2235  0.0082
11839W        W12703   1.334  11.244  22.426  0.1105  0.3879  0.2872
11840W        W12704   0.895  13.410  23.456 -0.1264  0.0091 -0.0977
11841W        W12705   0.101  14.108  22.132  0.1502  0.0113  0.1309
11842W        W12706   1.819  16.364  20.677 -0.0814  0.0458  0.1373
11843W        W12707  28.171  13.342  22.674  0.3169 -0.1265 -0.2518
11844W        W12708   3.181  14.595  21.992  0.0529 -0.0111  0.3222
11845W        W12709   2.081  11.270  19.361 -0.0279 -0.0472 -0.2201
11846W        W12710   1.479  13.341  19.225  0.1892 -0.4418 -0.4322
11847W        W12711   2.052  12.335  21.099 -0.0349 -0.2964 -0.0538
11848W        W12712   0.966  11.535  22.209 -0.0672  0.3953  0.2542
11849W        W12713   3.239  13.351  16.652 -0.0411 -0.1108  0.0635
11850W        W12714   0.926  12.266  21.633  0.1894 -0.1340 -0.1267
11851W        W12715   2.125  14.072  20.398  0.1716  0.1212 -0.4790
11852W        W12716   2.308  15.692  17.284  0.0488 -0.1328 -0.2502
11853W        W12717  29.093  11.880  16.836  0.1966  0.0083 -0.1542
11854W        W12718   0.346  12.477  18.096 -0.0387 -0.1425 -0.1012
11855W        W12719   2.658  12.775  20.681  0.2061  0.0775 -0.1508
11856W        W12720   4.925  14.018  22.864  0.2248 -0.0412  0.2369
11857W        W12721   1.512  12.914  18.868  0.3212  0.0460  0.0329
11858W        W12722   0.851  13.749  18.390  0.1130 -0.0944 -0.2490
11859W        W12723   2.173  15.046  19.200  0.4485  0.0956  0.2931
11860W        W12724   3.896   9.716  16.623 -0.0304  0.0710 -0.0422
11861W        W12725   1.606  15.963  20.223 -0.2128 -0.0847  0.3265
11862W        W12726   1.067  13.937  16.645  0.1451 -0.2058  0.3111
11863W        W12727   1.659  11.798  20.525 -0.0056 -0.2419  0.1184
11864W        W12728   2.150  13.153  16.846 -0.2762 -0.0752 -0.1061
11865W        W12729   0.067  11.237  22.221  0.0873  0.1700 -0.1410
11866W        W12730   1.142  12.111  20.510 -0.1388  0.1105 -0.3070
11867W        W12731   1.740  14.564  17.914 -0.1468 -0.2309 -0.0321
11868W        W12732   2.160  13.271  16.344 -0.1912 -0.0499 -0.0000
11869W        W12733   3.495  12.597  18.801  0.4706 -0.0897  0.0600
11870W        W12734   0.305  17.099  17.854 -0.2222 -0.2678  0.2012
11871W        W12735   0.435  16.271  17.924 -0.1976  0.1864 -0.0972
11872W        W12736   0.782  11.083  20.289 -0.3394  0.0255  0.0250
11873W        W12737   0.733  12.895  20.919 -0.1051  0.0090  0.1603
11874W        W12738   3.659  13.185  20.637  0.0138 -0.1260  0.2988
11875W        W12739  27.990  12.946  19.281  0.3318  0.2322  0.1758
11876W        W12740   1.600   8.858  19.547  0.0066 -0.0141 -0.4281
11877W        W12741   0.304  12.302  19.042 -0.3803 -0.1225  0.2266
11878W        W12742   0.383  13.557  18.436 -0.1825 -0.3666  0.0655
11879W        W12743   2.759  14.807  19.155 -0.0280  0.1429  0.2263
11880W        W12744   4.833  11.393  20.650  0.1658 -0.1244  0.0135
11881W        W12745   3.267  12.759  17.816 -0.0266  0.2786  0.1007
11882W        W12746   1.216  14.082  20.705 -0.3808 -0.0558  0.4761
11883W        W12747   2.481  15.156  17.920  0.2358  0.2035  0.1965
11884W        W12748   1.064  10.466  18.663  0.1760 -0.5145  0.0619
11885W        W12749  28.979  12.125  18.738  0.3666 -0.0748  0.2135
11886W        W12750   2.260  12.298  17.202 -0.0925 -0.2262  0.1244
11887W        W12751   4.005  12.471  18.894  0.0503  0.0251  0.2018
11888W        W12752   2.288  11.026  17.190  0.0204  0.1991  0.0780
11889W        W12753  29.060  11.457  19.689 -0.1541 -0.0096 -0.3118
11890W        W12754   2.015  12.473  21.864 -0.1009 -0.0574  0.0365
11891W        W12755  26.793  11.920  18.724  0.0597 -0.0184  0.0721
11892W        W12756   1.120  11.050  17.960  0.0051 -0.0222 -0.0814
11893W        W12757   1.501  11.766  23.427  0.3719  0.1015  0.0518
11894W        W12758   2.870  11.880  18.801 -0.0501 -0.2914 -0.0675
11895W        W12759   4.359  12.738  19.266 -0.1732  0.1239 -0.2386
11896W        W12760   4.984  10.744  23.693 -0.3479  0.0356  0.0481
11897W        W12761   2.580  11.921  17.247 -0.4164 -0.0538  0.3718
11898W        W12762   1.881  12.140  21.518 -0.0872 -0.0158  0.0148
11899W        W12763   1.335  10.782  20.084  0.1008  0.0306  0.4800
11900W        W12764   3.655  13.187  20.061 -0.1222  0.3427  0.2356
11901W        W12765   0.504  15.293  19.391 -0.2954  0.1129  0.1437
11902W        W12766   2.423  12.882  16.492  0.3635 -0.0104 -0.0634
11903W        W12767   0.971  13.224  21.264 -0.2771  0.0485  0.1893
11904W        W12768   5.641   9.217  16.826  0.0279 -0.0989 -0.2536
11905W        W12769   1.617  11.357  18.484  0.1101  0.3967 -0.3314
11906W        W12770   1.547  16.204  21.066  0.1520 -0.1022  0.2287
11907W        W12771  28.279  10.682  19.502 -0.0525  0.3100  0.1475
11908W        W12772   2.793  10.148  17.479  0.0352 -0.1178 -0.1182
11909W        W12773   0.506  11.139  17.293 -0.2266 -0.1142  0.5279
11910W        W12774  28.218  13.150  20.625  0.1385 -0.0875 -0.3297
11911W        W12775   0.890  11.023  19.247  0.0044 -0.2756  0.0478
11912W        W12776   2.585  16.270  18.657  0.0467  0.0694 -0.1636
11913W        W12777   2.496  10.391  20.870 -0.2376  0.0217  0.0489
11914W        W12778   0.354  14.231  21.158  0.2015 -0.0875  0.2124
11915W        W12779   1.730  14.654  18.432 -0.0205  0.0637  0.1636
11916W        W12780   0.156  14.249  23.732  0.0647  0.3358  0.2851
11917W        W12781   1.861  11.400  17.392  0.1002 -0.1131 -0.0109
11918W        W12782   0.185  13.863  20.775  0.1511 -0.0066  0.1504
11919W        W12783   2.243  15.477  21.010  0.1804 -0.0857 -0.0749
11920W        W12784   2.554  15.559  21.411 -0.0195  0.2367 -0.3436
11921W        W12785   3.470  15.198  18.477  0.0051 -0.0682 -0.1441
11922W        W12786   3.237  13.319  17.918  0.1404 -0.0003  0.0443
11923W        W12787   1.869  14.464  19.511 -0.1826 -0.0015  0.2128
11924W        W12788   0.455  14.611  18.930 -0.2139  0.0535  0.1004
11925W        W12789   2.999  11.505  20.455  0.2375  0.1471 -0.2304
11926W        W12790  29.043  14.398  20.916  0.1240  0.0626  0.1393
11927W        W12791  28.257  12.734  22.465  0.0593  0.0634 -0.1180
11928W        W12792   5.152  10.294  17.960  0.3576 -0.3501  0.1218
11929W        W12793   3.872  12.603  16.914 -0.0472 -0.1176  0.0196
11930W        W12794   0.886  13.604  17.023  0.2436  0.0073 -0.1677
11931W        W12795   0.106  15.625  20.983 -0.0902 -0.1099  0.0267
11932W        W12796   1.039  12.933  15.851  0.1768 -0.1728 -0.1200
11933W        W12797   0.824  12.696  18.456  0.0460  0.2087 -0.2309
11934W        W12798   2.237  16.190  17.331 -0.0079 -0.1195  0.0803
11935W        W12799  26.500  12.702  20.521  0.3262  0.0831 -0.0490
11936W        W12800   2.965  12.095  21.195  0.5362  0.1657 -0.1658
11937W        W12801   2.625  12.464  18.548  0.0923  0.0359  0.1173
11938W        W12802   1.007  12.872  20.434 -0.1993 -0.1635  0.1254
11939W        W12803   0.685  16.000  22.351  0.3651 -0.0291 -0.1859
11940W        W12804   3.935  12.218  21.694  0.3239 -0.1572  0.2549
11941W        W12805   2.521  13.661  20.589 -0.1766  0.1005  0.0678
11942W        W12806   2.987  11.741  19.812 -0.3369  0.0710  0.3224
11943W        W12807   2.088  11.597  19.720 -0.1123  0.0058 -0.3774
11944W        W12808   2.427  13.362  20.150  0.1195 -0.0117 -0.1799
11945W        W12809   0.626  12.086  16.126 -0.2982 -0.1713 -0.2599
11946W        W12810   1.685  12.755  21.044 -0.2452  0.1823 -0.0251
11947W        W12811   2.504  16.576  17.687  0.1688  0.0360  0.2028
11948W        W12812   2.764  12.307  19.031  0.4490  0.3622  0.1468
11949W        W12813   2.515   9.741  16.872  0.0188  0.2325  0.2991
11950W        W12814   3.414  11.135  18.171 -0.0566  0.1167 -0.0225
11951W        W12815   1.434  14.862  16.793 -0.0202  0.0921  0.1682
11952W        W12816   0.171  13.087  18.677  0.3046  0.1350  0.0935
11953W        W12817   2.911  14.184  20.902 -0.0452  0.2759 -0.1507
11954W        W12818  28.751  10.631  19.681  0.1621 -0.1261  0.1552
11955W        W12819   5.814  11.252  19.687  0.1749  0.2226  0.1668
11956W        W12820   2.110  15.572  19.551 -0.1977  0.3178 -0.0283
11957W        W12821   3.655  15.130  20.645  0.2001  0.1065 -0.0229
11958W        W12822   3.521  15.788  20.375  0.0600  0.0322 -0.0472
11959W        W12823   4.261  17.906  21.489  0.0743 -0.2977  0.0224
11960W        W12824  29.096  12.042  21.847  0.0782 -0.2026 -0.1911
11961W        W12825   3.060  12.389  20.739 -0.0955  0.0656 -0.1388
11962W        W12826   2.498  11.157  18.983  0.0720  0.0843  0.1486
11963W        W12827   2.442  12.263  21.413 -0.0834 -0.2529  0.0548
11964W        W12828  29.114  12.052  20.529  0.0966 -0.0649 -0.0501
11965W        W12829   2.662  11.894  20.607  0.4460 -0.1460 -0.2286
11966W        W12830   2.060  12.691  20.675 -0.2706 -0.0390  0.1130
11967W        W12831   1.442  11.712  18.728 -0.1008 -0.1516  0.2356
11968W        W12832   1.066  11.513  20.444  0.0097  0.2279  0.0248
11969W        W12833   0.672  10.929  21.101 -0.0612 -0.2015  0.1879
11970W        W12834   0.019  15.034  22.046  0.0972 -0.0376  0.0521
11971W        W12835   1.845  12.602  20.146 -0.0332 -0.0470  0.0687
11972W        W12836   2.372  12.961  21.011 -0.2275 -0.1995  0.1803
11973W        W12837   3.651   9.904  21.336  0.0535  0.0602 -0.3672
11974W        W12838  26.614  13.046  19.317 -0.2212 -0.0818 -0.1600
11975W        W12839   3.198  12.484  20.282 -0.2045 -0.0241  0.2406
11976W        W12840   2.005  14.204  18.238 -0.1068  0.1241 -0.2121
11977W        W12841   6.067  15.538  22.103 -0.2025  0.0197  0.0585
11978W        W12842  29.072  13.763  18.712 -0.1506 -0.5021 -0.0032
11979W        W12843   1.184  12.038  19.951  0.1131 -0.1332 -0.0092
11980W        W12844   2.983  11.413  18.984 -0.0060 -0.1021 -0.2173
11981W        W12845   2.378  15.350  22.307 -0.2349  0.1608  0.0587
11982W        W12846   1.298  12.689  18.424 -0.0108  0.3774  0.0095
11983W        W12847   1.522  10.984  19.120  0.1750 -0.1076  0.1077
11984W        W12848   4.377  11.187  17.819 -0.0901 -0.0943 -0.0534
11985W        W12849  28.989  16.153  20.285  0.0775  0.2952  0.0200
11986W        W12850   1.670  14.900  19.346  0.0482 -0.0449 -0.1670
11987W        W12851   1.627  15.380  19.569 -0.1923  0.4707  0.1168
11988W        W12852  28.570  13.545  20.704 -0.0844  0.1273  0.1314
11989W        W12853   0.817  13.472  17.970 -0.0456  0.2974 -0.1339
11990W        W12854   2.896  13.716  18.104 -0.1178  0.1011  0.3473
11991W        W12855   2.618  13.181  16.055  0.0097 -0.0777 -0.1495
11992W        W12856  28.820  12.462  19.745 -0.2193  0.3982 -0.3206
11993W        W12857   0.391  12.263  20.303 -0.0769 -0.0716  0.1217
11994W        W12858   1.940  14.109  17.762 -0.0461 -0.1509  0.0962
11995W        W12859   2.376   9.773  20.971  0.2033  0.1270 -0.1532
11996W        W12860   2.100  10.479  18.938  0.1302  0.0195 -0.1133
11997W        W12861   0.742  15.495  20.135  0.0649  0.0045 -0.1657
11998W        W12862   0.160  10.642  21.242  0.0919 -0.1526  0.0579
11999W        W12863  27.763  13.256  18.031  0.1374  0.2811 -0.0663
12000W        W12864  26.989  13.670  17.997 -0.1402  0.2322  0.0774
12001W        W12865  27.012  13.290  24.486 -0.0720 -0.0553  0.1263
12002W        W12866   1.874  10.234  21.158 -0.0724 -0.0209 -0.2820
12003W        W12867   3.384  12.145  18.141  0.0076  0.0325 -0.0489
12004W        W12868   0.152  13.922  19.166  0.1927 -0.0607  0.0522
12005W        W12869   1.802  12.051  22.114  0.2052 -0.3634 -0.0920
12006W        W12870   0.407  13.056  20.548  0.0779  0.3752  0.1941
12007W        W12871  28.725  14.279  18.927 -0.2811 -0.3548 -0.2715
12008W        W12872   2.518   9.598  17.822 -0.0426  0.1532 -0.1366
12009W        W12873  27.194  12.639  20.550  0.1017 -0.0677 -0.1121
12010W        W12874   2.192  11.131  22.920 -0.3151 -0.1897 -0.1069
12011W        W12875   3.096  13.839  16.898 -0.3575  0.3682 -0.2886
12012W        W12876  27.602  13.782  25.162 -0.1001 -0.4084  0.2036
12013W        W12877  28.885  12.464  20.954 -0.1896 -0.0436 -0.2579
12014W        W12878  25.916  11.458  17.676  0.1236  0.1252 -0.2526
12015W        W12879  29.089  14.408  21.439  0.0100 -0.1353  0.1048
12016W        W12880   1.459  14.997  19.889  0.0242 -0.0391  0.3229
12017W        W12881   1.881  15.903  18.070  0.0725  0.0697  0.0684
12018W        W12882  28.972  11.397  18.872  0.0809 -0.1786  0.3809
12019W        W12883  27.899  14.516  23.914 -0.1624 -0.0524  0.3153
12020W        W12884   0.598  13.065  23.973 -0.0383  0.0741  0.3787
12021W        W12885   1.633  14.288  20.410 -0.1638 -0.2110  0.1450
12022W        W12886   0.706  11.790  21.817 -0.0234 -0.0726 -0.0043
12023W        W12887   3.209  13.593  21.972  0.2031 -0.0967 -0.2318
12024W        W12888   4.459  12.302  18.977  0.2726  0.0265  0.0105
12025W        W12889   3.886  11.866  19.535  0.2315 -0.1864  0.1137
12026W        W12890   2.692  14.242  16.593 -0.1072  0.1747  0.0492
12027W        W12891   2.204  13.067  22.325 -0.2145 -0.5397 -0.2167
12028W        W12892  28.503  14.326  22.567 -0.1954 -0.1056 -0.0041
12029W        W12893   1.097  11.795  21.442  0.0006 -0.3806 -0.2089
12030W        W12894   2.824  12.529  18.015 -0.2652 -0.0082 -0.1799
12031W        W12895   1.557  16.195  22.021  0.0342  0.0262 -0.0044
12032W        W12896   1.447   9.219  16.436  0.1192  0.2034  0.0573
12033W        W12897   2.209  14.677  18.325  0.2165  0.0974  0.0547
12034W        W12898   0.688  13.491  21.532 -0.2680  0.1436  0.0443
12035W        W12899   1.309  15.544  20.034  0.1759 -0.1392  0.0929
12036W        W12900   3.384  13.507  18.965  0.0981 -0.2545 -0.1540
12037W        W12901   1.446  16.757  16.537  0.0951 -0.4056  0.0726
12038W        W12902   2.506  14.227  18.411 -0.1700 -0.0382 -0.1830
12039W        W12903  28.858  12.773  21.375 -0.1044 -0.3652  0.1236
12040W        W12904   2.956  11.621  23.377 -0.0038  0.1563 -0.0949
12041W        W12905   1.845  14.537  16.832  0.0433 -0.0765 -0.0232
12042W        W12906   2.184  15.037  18.701 -0.1791 -0.1034  0.3054
12043W        W12907   1.666   9.870  20.268  0.1684  0.1434 -0.3184
12044W        W12908   0.995  12.681  18.910  0.0426  0.2465  0.2699
12045W        W12909   3.540  13.897  22.685 -0.0988  0.1653  0.1103
12046W        W12910  28.343  10.759  23.002 -0.1290  0.1501 -0.0486
12047W        W12911   4.251  13.549  18.156 -0.0423  0.0673  0.2432
12048W        W12912   3.196  14.962  20.425  0.3218 -0.0845 -0.2665
12049W        W12913   3.054  14.144  17.328 -0.0130  0.0833 -0.1218
12050W        W12914  26.935  13.759  21.264  0.3273  0.0563 -0.0181
12051W        W12915  28.337   9.384  19.072  0.3501  0.2367 -0.0519
12052W        W12916  27.901  10.909  20.769  0.2799  0.0988  0.2828
12053W        W12917   0.547  11.715  21.369  0.0637 -0.0926 -0.0406
12054W        W12918  27.942  12.159  20.195 -0.2744  0.0694  0.1031
12055W        W12919   1.837  12.906  21.677 -0.1957  0.0300  0.1032
12056W        W12920   1.793  15.497  20.079  0.0889  0.0106 -0.0552
12057W        W12921   1.125  16.990  19.408 -0.1032  0.2656 -0.0247
12058W        W12922   1.067  14.737  21.546  0.0729 -0.2745  0.1901
12059W        W12923   0.738  16.953  18.559  0.2952  0.1498 -0.1140
12060W        W12924   3.005  18.343  19.651  0.0154  0.0617 -0.0799
12061W        W12925   2.991  12.792  18.373 -0.3174 -0.1542 -0.0699
12062W        W12926  29.059  10.520  20.707 -0.0938 -0.1560  0.0476
12063W        W12927   1.000   9.383  17.233 -0.2385  0.4255  0.2531
12064W        W12928   4.661  14.361  18.135 -0.4827 -0.0196 -0.0511
12065W        W12929   3.173  12.571  19.450  0.1458 -0.0973 -0.1890
12066W        W12930  28.359  11.738  21.941 -0.0842 -0.0947 -0.0627
12067W        W12931   1.289  15.769  18.844  0.0350 -0.2211  0.0246
12068W        W12932   2.082   8.538  20.090 -0.1371 -0.1887 -0.1665
12069W        W12933   0.872  11.016  22.323 -0.1282  0.0522 -0.3610
12070W        W12934   1.735  10.606  22.153 -0.2842  0.0979  0.2457
12071W        W12935   3.547  12.159  20.232  0.2947 -0.0402  0.4156
12072W        W12936   1.445  12.938  20.062  0.0593  0.0491 -0.1201
12073W        W12937   2.119  13.185  17.714 -0.1206 -0.0950 -0.0508
12074W        W12938  27.561  14.642  18.311 -0.1322  0.3979  0.0565
12075W        W12939   0.586  13.256  16.200  0.3001  0.2058 -0.1331
12076W        W12940   1.593  14.032  16.921 -0.0586 -0.0423  0.1417
12077W        W12941   2.680  14.812  21.452  0.3155  0.5014 -0.1984
12078W        W12942   2.133  12.361  22.348 -0.1250  0.0399  0.0492
12079W        W12943   2.547  13.137  18.542  0.0852  0.0052  0.1079
12080W        W12944  28.930  12.166  23.222  0.0312 -0.1160 -0.0528
12081W        W12945   0.414  10.517  21.689  0.2970  0.1626  0.0786
12082W        W12946   0.114  13.472  19.423  0.1226 -0.1793  0.0644
12083W        W12947   5.772  15.436  18.928  0.0250  0.2972  0.2504
12084W        W12948   1.972   9.296  19.615  0.1470 -0.0626 -0.1077
12085W        W12949  27.512  12.887  23.360  0.0633  0.3365  0.2188
12086W        W12950   1.451  13.463  19.861  0.0087 -0.1014 -0.1930
12087W        W12951   0.413  11.995  16.755 -0.1258  0.0002 -0.1466
12088W        W12952  28.179  12.657  22.955 -0.1807 -0.1846 -0.1624
12089W        W12953   2.057  12.900  18.714 -0.2043 -0.0513 -0.1636
12090W        W12954   1.428  12.115  19.523 -0.1232 -0.0453 -0.2792
12091W        W12955   0.593  11.119  18.307  0.0787 -0.0473  0.1577
12092W        W12956   0.085  14.807  20.624  0.0612  0.2143 -0.1136
12093W        W12957   2.346  12.809  20.240  0.1456 -0.0903  0.0903
12094W        W12958   3.186  13.654  22.994  0.4013  0.0439 -0.1573
12095W        W12959   2.132  14.255  18.719 -0.0904  0.1829 -0.2155
12096W        W12960   0.988  13.875  19.884  0.2888  0.2602  0.0229
12097W        W12961   2.692  11.445  16.709  0.1645 -0.1664 -0.0494
12098W        W12962   2.379  12.353  13.850  0.1726 -0.1456 -0.0570
12099W        W12963   0.520  10.633  18.569  0.3156 -0.1931 -0.0114
12100W        W12964   1.847  12.784  18.217  0.1482 -0.2008  0.1590
12101W        W12965   1.605  12.820  22.876 -0.1072 -0.0840  0.2826
12102W        W12966   0.492  15.603  20.605  0.1027  0.1007 -0.1945
12103W        W12967   1.007  13.565  17.514  0.1518  0.0705 -0.0893
12104W        W12968   1.155   9.866  17.219  0.1083  0.2063 -0.2934
12105W        W12969   3.242  13.028  19.758  0.0102 -0.0232 -0.2850
12106W        W12970   3.823  12.962  19.080  0.1253 -0.1929 -0.1715
12107W        W12971   0.548  10.672  20.603 -0.1252 -0.3578 -0.2499
12108W        W12972   1.940  15.102  19.769  0.0035 -0.0057 -0.1857
12109W        W12973   0.436  12.764  17.183 -0.4158 -0.0864  0.0675
12110W        W12974  28.652  13.540  21.424  0.1863 -0.0223  0.1637
12111W        W12975   3.013  15.688  21.206 -0.0806  0.1478  0.2228
12112W        W12976   2.648  14.637  18.070  0.0279 -0.1588 -0.1729
12113W        W12977   3.708  14.698  19.684  0.2901  0.2315  0.3449
12114W        W12978   2.274  15.401  20.021  0.2822 -0.1610  0.0433
12115W        W12979   1.295  13.526  20.961 -0.0576 -0.2441  0.1698
12116W        W12980   3.338  11.615  17.960  0.1664  0.0647 -0.0456
12117W        W12981   2.426  12.216  18.073 -0.1216 -0.1296 -0.0366
12118W        W12982   1.212  12.536  20.734 -0.1323 -0.1450  0.1625
12119W        W12983   0.957  11.254  22.774  0.0616  0.0256 -0.0030
12120W        W12984   0.890  14.636  20.411  0.0476  0.0561  0.2061
12121W        W12985   3.757  10.911  19.986 -0.1529 -0.1526  0.0813
12122W        W12986   0.714  12.180  21.181  0.1352  0.1884  0.2180
12123W        W12987   1.744  15.742  21.212 -0.1009 -0.0481  0.0726
12124W        W12988   2.543  15.018  20.428  0.0600  0.1884  0.0098
12125W        W12989   0.904  10.692  18.256  0.1475 -0.0691 -0.0788
12126W        W12990   2.981  10.355  17.923 -0.0788 -0.3386 -0.1331
12127W        W12991   3.326  10.714  21.331  0.0203 -0.0276 -0.1376
12128W        W12992   1.953  13.592  19.953  0.0402  0.2078 -0.1473
12129W        W12993   2.455  13.915  18.066  0.2141 -0.0023 -0.2851
12130W        W12994   4.790  13.450  15.494 -0.0259 -0.0582  0.0886
12131W        W12995  28.770  12.690  23.167  0.0064 -0.1644  0.2339
12132W        W12996   3.359  14.772  19.257  0.0975 -0.3368  0.0198
12133W        W12997   0.617  14.822  19.451  0.1446  0.0009  0.2106
12134W        W12998   0.604  13.504  19.817  0.4441  0.1535  0.1914
12135W        W12999   1.354  12.486  20.242  0.0778  0.0458  0.0618
12136W        W13000  28.234  14.233  18.961 -0.0350 -0.0777  0.2001
12137W        W13001   1.487  10.353  20.760  0.2578  0.1728  0.0580
12138W        W13002  28.619  10.404  21.968 -0.3318 -0.2499  0.2294
12139W        W13003   1.400  12.094  22.917 -0.2423  0.0282  0.2769
12140W        W13004   3.178  10.353  18.765 -0.1440  0.1731  0.0764
12141W        W13005   4.133  14.884  18.128  0.1281 -0.3800 -0.0967
12142W        W13006   1.329  15.604  20.971 -0.0643  0.2564 -0.0431
12143W        W13007   1.610  10.204  23.167  0.2946 -0.3289 -0.0054
12144W        W13008   2.254  16.228  19.804 -0.0645 -0.0923  0.0063
12145W        W13009   1.242  13.461  18.722  0.1132  0.0756  0.0502
12146W        W13010   2.876  10.998  19.352  0.1845 -0.1672  0.1426
12147W        W13011   3.301  10.925  16.943  0.0556  0.3079  0.3265
12148W        W13012   3.403  10.091  14.636 -0.0951 -0.3710  0.1076
12149W        W13013  28.353  14.514  16.818  0.1874  0.0919  0.0176
12150W        W13014  26.419  11.443  17.493  0.0626 -0.1200 -0.0287
12151W        W13015   0.706  12.243  22.591  0.4389 -0.2306 -0.0693
12152W        W13016   0.265  16.166  17.042 -0.3073 -0.3799  0.5068
12153W        W13017   1.876  11.312  20.188  0.0081  0.2118  0.0799
12154W        W13018   0.847  19.419  19.540 -0.2106 -0.0949 -0.0613
12155W        W13019  28.466  13.167  22.305  0.1174  0.0858  0.1007
12156W        W13020  28.859  12.201  21.431  0.0568 -0.0808  0.0121
12157W        W13021   4.132  16.443  22.232  0.0325  0.0558  0.1032
12158W        W13022  28.010  11.495  19.356 -0.0430  0.3012 -0.0064
12159W        W13023   1.521  14.149  21.197 -0.0554 -0.0794 -0.0410
12160W        W13024   4.401  13.141  18.471 -0.1622 -0.0252 -0.3497
12161W        W13025   1.093  14.946  17.181  0.2355  0.1098  0.2641
12162W        W13026   3.388  14.671  17.488  0.0298 -0.2887  0.0951
12163W        W13027   2.657  14.013  17.111  0.0454  0.0163  0.1720
12164W        W13028   1.945  10.798  18.514  0.1772 -0.1191  0.3479
12165W        W13029   0.150  15.542  19.145  0.1480 -0.1644 -0.0642
12166W        W13030   3.666  10.994  23.535 -0.1659 -0.3338 -0.1625
12167W        W13031   1.087  13.690  21.827  0.0198  0.0632 -0.3444
12168W        W13032   1.259  12.242  18.998 -0.1854 -0.1866 -0.2760
12169W        W13033   0.649  11.968  19.866  0.0802  0.2688  0.4266
12170W        W13034   2.269  12.877  21.882  0.0862  0.1578  0.2014
12171W        W13035  28.894  15.987  20.939  0.1612 -0.1990 -0.1406
12172W        W13036  28.194  10.056  23.085  0.0300 -0.1802  0.0555
12173W        W13037   3.020  18.113  18.197  0.0614  0.1010  0.0255
12174W        W13038   1.655  12.130  20.145  0.1593  0.0260  0.2528
12175W        W13039   2.488  15.584  19.244  0.1054 -0.2385  0.0909
12176W        W13040   1.567  13.935  19.579 -0.1229  0.0612  0.1244
12177W        W13041   1.887  12.872  19.204  0.2368  0.2406  0.0881
12178W        W13042   0.061  12.333  16.647  0.0953  0.2186  0.2061
12179W        W13043   1.666  13.182  17.990  0.1071  0.0234 -0.0552
12180W        W13044   4.136   9.999  18.719  0.2484 -0.2287 -0.2988
12181W        W13045   3.789  15.579  20.818 -0.1260  0.2494  0.1932
12182W        W13046   3.007  14.151  18.339 -0.0088 -0.0941 -0.1106
12183W        W13047   2.302  11.934  16.806 -0.1299  0.0724 -0.1880
12184W        W13048   2.641  12.236  22.244  0.1948 -0.1226 -0.3446
12185W        W13049  26.479  13.702  21.982  0.1094 -0.0980  0.1139
12186W        W13050   2.966  15.657  19.176 -0.3091  0.1112 -0.0875
12187W        W13051   1.955  13.085  20.134 -0.0218 -0.0416 -0.3255
12188W        W13052  28.479  12.477  21.207 -0.1193 -0.1079 -0.3113
12189W        W13053   1.728  11.107  19.740 -0.3381  0.2175  0.1241
12190W        W13054   1.762  13.694  16.233 -0.0241  0.0748  0.4711
12191W        W13055   0.726  13.830  20.853  0.1579  0.4153  0.0322
12192W        W13056   1.428  14.695  21.253 -0.1297 -0.0598  0.2338
12193W        W13057   3.616  14.952  18.907 -0.0107  0.3279  0.0096
12194W        W13058   4.558  12.582  22.549  0.1532  0.0639 -0.0126
12195W        W13059   3.649  13.581  16.312  0.1601 -0.1032 -0.0216
12196W        W13060   3.495  14.047  18.951 -0.0971 -0.0074 -0.2595
12197W        W13061   0.701  16.907  19.194  0.1293 -0.0859 -0.1650
12198W        W13062   1.820  15.986  19.734 -0.0632 -0.0731 -0.0133
12199W        W13063   1.175  16.097  20.493 -0.1779  0.1619  0.1902
12200W        W13064   0.152  12.595  19.452 -0.0402 -0.1001  0.1382
12201W        W13065   2.252  13.395  18.929 -0.1111 -0.2137  0.0815
12202W        W13066   0.937  17.333  19.067 -0.0827 -0.0275 -0.0959
12203W        W13067  27.930  13.923  20.341  0.0668  0.0691 -0.2359
12204W        W13068   1.315  11.912  22.159  0.0881  0.0506 -0.0062
12205W        W13069   0.591  12.047  18.702  0.0926  0.1264  0.1915
12206W        W13070   3.092  14.359  21.510 -0.1076 -0.0015  0.0594
12207W        W13071   1.056  14.047  17.206 -0.1040 -0.0383 -0.0498
12208W        W13072  29.017  12.291  19.226 -0.0611 -0.0710 -0.3012
12209W        W13073   0.746  14.567  27.038  0.1005  0.1562  0.0048
12210W        W13074   0.367  13.493  23.211  0.0018  0.0741  0.2299
12211W        W13075   5.306  14.164  20.571 -0.4593 -0.0025 -0.1696
12212W        W13076   3.097  13.010  22.432 -0.1324 -0.2239 -0.1432
12213W        W13077   3.175  15.065  22.573 -0.2263 -0.0395  0.1744
12214W        W13078   2.801  12.122  24.346  0.1684  0.1663  0.2087
12215W        W13079   0.765  13.455  25.823  0.0448  0.0943 -0.0913
12216W        W13080   2.425  13.733  23.667 -0.3834 -0.1559  0.1108
12217W        W13081   4.134  14.981  24.478  0.2254 -0.2096 -0.1749
12218W        W13082   0.732  11.734  27.938 -0.1710  0.2097  0.2742
12219W        W13083   2.628   9.861  23.358  0.1214 -0.1832  0.1293
12220W        W13084   2.324  10.124  24.288  0.1882  0.1910  0.0781
12221W        W13085   2.490  13.535  19.585 -0.0127 -0.1053  0.0316
12222W        W13086   2.079   9.079   0.587 -0.0101  0.1502 -0.1708
12223W        W13087   2.068  12.646  23.257 -0.0510 -0.1919  0.1552
12224W        W13088  28.908  17.397   0.203  0.1083  0.0934 -0.4124
12225W        W13089  27.942  13.176  22.261 -0.2960 -0.2778 -0.2078
12226W        W13090   1.583  11.323  27.580  0.0273 -0.1486 -0.0169
12227W        W13091   2.422  12.649  25.504  0.2452 -0.0344 -0.0288
12228W        W13092   3.207  12.921  21.457 -0.0776 -0.0903  0.1330
12229W        W13093   3.120  13.114  25.262  0.1162  0.0467  0.2000
12230W        W13094  27.216  11.560  25.623 -0.3012  0.2884 -0.0137
12231W        W13095   4.522  16.141  24.398 -0.0490 -0.2320 -0.1250
12232W        W13096   0.061  11.205  25.611  0.0616  0.1794 -0.1550
12233W        W13097   1.167  11.692  26.696  0.4238  0.0800 -0.2173
12234W        W13098  27.816  14.105  26.003  0.1584  0.0012 -0.0123
12235W        W13099   5.598  13.021  23.581  0.1747 -0.1918 -0.2149
12236W        W13100   1.227  14.138  22.247 -0.1677 -0.0067  0.0292
12237W        W13101   3.634  14.676  25.368  0.0173  0.0348  0.0231
12238W        W13102   0.765  12.008  25.096 -0.0254 -0.1049  0.2152
12239W        W13103   2.218  15.129  24.273 -0.4377 -0.1757  0.0919
12240W        W13104   5.335  13.767  25.715  0.0822  0.2068  0.0639
12241W        W13105   1.386  13.087  26.742  0.0411 -0.2048 -0.0711
12242W        W13106  28.733  14.133  26.036 -0.1174 -0.4531 -0.1320
12243W        W13107   0.970  12.390  27.233  0.2830 -0.1491  0.2880
12244W        W13108   1.841  13.606  23.030 -0.0587 -0.1969 -0.0243
12245W        W13109   1.949  11.730  24.244 -0.1600  0.0049 -0.1494
12246W        W13110  27.263  15.012  22.078 -0.0128  0.2129 -0.1752
12247W        W13111   3.360  12.213  25.129  0.2832  0.4603 -0.0271
12248W        W13112   2.250  12.370  24.494 -0.1065  0.1061  0.0420
12249W        W13113   1.014  10.557  20.408 -0.1000 -0.1132 -0.2877
12250W        W13114   6.937  13.244  27.070  0.0025 -0.4056  0.2584
12251W        W13115   1.626  14.136  25.129  0.2754  0.0810  0.0903
12252W        W13116   2.421  14.077  20.858  0.3511  0.0024  0.1837
12253W        W13117   1.556  14.056  25.638 -0.1976  0.1603 -0.1683
12254W        W13118   0.429  12.859  25.100 -0.0628  0.2361 -0.0619
12255W        W13119   2.586  11.327  25.921  0.0321  0.0910 -0.4595
12256W        W13120   1.814  11.770  26.783  0.0815 -0.2007 -0.2222
12257W        W13121   3.805  11.907  24.287  0.1072  0.0110  0.2587
12258W        W13122   3.422  13.092  23.740  0.0705  0.0521  0.1443
12259W        W13123   0.067  14.064  26.034  0.1511  0.2080 -0.1031
12260W        W13124  28.561  11.793  21.508  0.0281 -0.0898 -0.1240
12261W        W13125   1.797  14.149  26.084 -0.3635  0.1812  0.0985
12262W        W13126   2.540  12.317  20.893 -0.2423  0.0477 -0.1354
12263W        W13127   3.645  14.214  21.337 -0.1177  0.0670  0.2590
12264W        W13128  28.957  14.460  22.816  0.0492  0.3607 -0.2723
12265W        W13129   1.148  11.192  26.899  0.0369 -0.3585 -0.0260
12266W        W13130   4.014  14.097  22.937 -0.0343  0.0960 -0.1113
12267W        W13131   0.615  14.773  24.628  0.2474  0.0897 -0.2626
12268W        W13132   3.964  14.796  23.083 -0.1946  0.5438 -0.0598
12269W        W13133   1.605  12.842  20.531 -0.1318 -0.2093 -0.0203
12270W        W13134  29.043  14.517  25.868 -0.0320 -0.2191 -0.0049
12271W        W13135  27.609  13.009  25.932  0.1276  0.1352 -0.2611
12272W        W13136   2.264  14.744  19.577 -0.0758  0.0962 -0.0097
12273W        W13137   0.589  12.049  23.644 -0.2636 -0.0744 -0.1545
12274W        W13138   3.546  12.660  24.111 -0.1321  0.1104  0.2481
12275W        W13139  27.777  12.247  24.768 -0.0915  0.3937 -0.6609
12276W        W13140   2.010  13.728  23.941 -0.1153  0.0032 -0.2584
12277W        W13141  27.603  14.836  24.210 -0.0715  0.1984  0.2919
12278W        W13142  28.702  14.006  25.070 -0.1196 -0.2028 -0.2858
12279W        W13143   3.365  14.282  25.111  0.1149 -0.0601 -0.1067
12280W        W13144   0.930  14.777  22.735 -0.0279 -0.1341 -0.0825
12281W        W13145   3.012  13.646  23.949  0.0243  0.3912 -0.1020
12282W        W13146   0.635  11.387  26.414 -0.0990 -0.0422 -0.1707
12283W        W13147   3.265  12.282  24.191 -0.0163 -0.0521  0.1310
12284W        W13148   2.911  16.249  23.620  0.0837 -0.0444  0.0974
12285W        W13149   1.052  11.335  23.904  0.0507  0.2609 -0.2068
12286W        W13150   1.505  14.740  25.347  0.0504  0.0753 -0.1387
12287W        W13151   0.928  12.819  22.213  0.0322 -0.0118  0.1575
12288W        W13152   0.627  15.497  24.812  0.1088 -0.1060  0.0340
12289W        W13153   4.911  11.526  25.156  0.1762  0.0180 -0.2994
12290W        W13154   0.126  13.959   0.984  0.0730 -0.1862  0.1350
12291W        W13155   1.359   9.479  24.203  0.1440 -0.0517 -0.0320
12292W        W13156   2.717  10.806  23.705 -0.0171  0.2173 -0.1308
12293W        W13157   2.952  13.667  24.528  0.0647  0.0892  0.3100
12294W        W13158   3.449  11.257  22.110 -0.2259  0.1449 -0.0530
12295W        W13159   6.432  13.441  25.863 -0.0590 -0.0195 -0.1463
12296W        W13160   3.010  11.889  24.740 -0.4056  0.0620  0.1784
12297W        W13161   6.521  12.484  27.623 -0.2687 -0.3161 -0.3407
12298W        W13162   5.416  12.485  27.667  0.0337  0.1600  0.0193
12299W        W13163   2.630  12.292  23.752  0.0188 -0.4266 -0.0885
12300W        W13164   4.660  13.973  24.607 -0.1170  0.1522  0.2524
12301W        W13165   0.428  12.936  22.921 -0.2160  0.0447 -0.0621
12302W        W13166   0.955  13.058  24.396  0.2506  0.0650  0.0418
12303W        W13167   5.440  12.438  26.044  0.0235 -0.0515  0.1847
12304W        W13168   1.822  11.891  22.962  0.0567 -0.1591  0.4097
12305W        W13169   2.805  12.935  19.380 -0.1212 -0.0476  0.1608
12306W        W13170   1.536  14.615  24.853  0.1224 -0.1272 -0.3524
12307W        W13171  29.064  13.015  22.780 -0.3571 -0.2782 -0.2636
12308W        W13172   2.661  12.754  22.941  0.2244  0.0737  0.1377
12309W        W13173   2.770  13.704  21.773 -0.1158 -0.1922 -0.0833
12310W        W13174   0.992  13.683  26.686  0.0198  0.2898 -0.1537
12311W        W13175   2.527  14.215  21.339 -0.1387  0.2884 -0.1160
12312W        W13176   2.571  15.358  24.585  0.1628 -0.3013  0.0275
12313W        W13177   2.071  13.057  24.300 -0.1694 -0.0947  0.3471
12314W        W13178   1.091  13.309  23.923  0.0210 -0.0535  0.1207
12315W        W13179   4.700  13.033  23.500  0.1329  0.0836 -0.2028
12316W        W13180   4.093  15.964  24.193  0.1829  0.0845  0.0079
12317W        W13181   1.352  10.898  24.746 -0.0042 -0.0143  0.1794
12318W        W13182   0.549  13.064  23.453 -0.1515  0.0133  0.2366
12319W        W13183   2.411  14.861  26.208 -0.4114  0.2482  0.1991
12320W        W13184   2.623  13.350  22.249 -0.0701  0.0505  0.0160
12321W        W13185   4.783  11.723  26.706 -0.1430 -0.0893 -0.0679
12322W        W13186   4.503  13.529  23.510 -0.1924  0.3983 -0.1067
12323W        W13187   1.391  15.225  22.136 -0.3491  0.1522  0.0798
12324W        W13188   2.900  13.748  19.718  0.2512  0.2187 -0.1037
12325W        W13189   7.237  12.230  24.636 -0.0707 -0.1834 -0.3371
12326W        W13190   2.029  11.847  23.448  0.3903 -0.0695  0.1105
12327W        W13191   1.780  13.178  22.608  0.2138 -0.0835 -0.4821
12328W        W13192   3.336  15.100  22.081  0.0025 -0.4060  0.0087
12329W        W13193   4.798  12.063  21.232  0.1796  0.0603  0.3195
12330W        W13194  27.881  15.526  23.950  0.0579 -0.1014 -0.1489
12331W        W13195   3.320  14.156  23.067 -0.1595 -0.1737  0.0955
12332W        W13196   2.244  14.543  21.541 -0.0682  0.2231  0.0345
12333W        W13197   3.408  13.830  24.361  0.2331  0.3593 -0.2691
12334W        W13198   1.257  12.603  23.156  0.1205  0.2559 -0.0488
12335W        W13199  28.501  13.671  25.645  0.0352  0.1509  0.2970
12336W        W13200   2.643  14.472  24.756 -0.0825 -0.1810 -0.2491
12337W        W13201   5.331  15.982  24.091  0.0854 -0.1706  0.0423
12338W        W13202  28.906  13.956  22.564 -0.0157 -0.0072 -0.2602
12339W        W13203   3.571  14.201  24.677  0.1815 -0.1034  0.0835
12340W        W13204   2.622  11.666  25.026  0.2391  0.0063  0.0741
12341W        W13205   2.096  14.247  24.987  0.1187 -0.0191 -0.1900
12342W        W13206   4.253  12.251  22.911  0.2924  0.0576 -0.1417
12343W        W13207   2.457  12.869  23.852  0.0004 -0.0310 -0.3937
12344W        W13208   2.980  10.229  27.496 -0.2836 -0.0673  0.0851
12345W        W13209   3.027  10.524  26.066  0.3130  0.1319 -0.1816
12346W        W13210   2.258  12.217  26.245 -0.0383  0.0973  0.1818
12347W        W13211   0.266  14.844  21.637  0.0542  0.1129  0.3449
12348W        W13212   2.281  14.841  22.196 -0.0480  0.0412  0.1196
12349W        W13213   3.487  13.666  23.923  0.0316  0.2248  0.1190
12350W        W13214   0.474  13.792  22.825  0.1559 -0.2722 -0.0626
12351W        W13215   2.117  13.585  20.932 -0.0970 -0.0807  0.0598
12352W        W13216  28.925  13.303  24.411  0.0791  0.2680  0.0276
12353W        W13217  28.932  12.537  24.156  0.1669  0.2890  0.0263
12354W        W13218   3.744  12.410  19.419 -0.1318 -0.0417  0.0858
12355W        W13219   1.820  14.347  24.564 -0.0851 -0.6145 -0.1042
12356W        W13220   0.254  15.228  24.140 -0.1196 -0.0870  0.2383
12357W        W13221  28.638  13.165  24.805  0.1072 -0.2369 -0.1165
12358W        W13222   2.160  13.553  22.545 -0.0505 -0.1197 -0.0161
12359W        W13223   1.412  12.977  21.932  0.1266 -0.0215  0.1970
12360W        W13224   2.009  13.505  23.506  0.2484 -0.0454 -0.1819
12361W        W13225  27.923  12.548  22.124 -0.0969  0.0782 -0.0444
12362W        W13226   0.538  12.971  24.609 -0.4193  0.1281 -0.2515
12363W        W13227   0.406  13.907  24.143  0.2295  0.0704 -0.1437
12364W        W13228   0.161  13.390  24.038 -0.4168 -0.2143  0.2987
12365W        W13229   1.232  15.416  19.162  0.0671 -0.1894 -0.2078
12366W        W13230  27.704  11.571  22.250  0.3559  0.2571  0.3965
12367W        W13231   1.052  10.884  23.664 -0.0735  0.2107  0.2764
12368W        W13232   1.713  10.001  26.326  0.0751 -0.0790 -0.2991
12369W        W13233   2.499  14.997  24.959  0.1249  0.1055 -0.3675
12370W        W13234   1.491  12.329  28.119  0.0145  0.3022  0.0145
12371W        W13235   2.669  13.582  22.669  0.0285  0.1310  0.0671
12372W        W13236  27.519  13.605  23.757 -0.0342  0.1684  0.3443
12373W        W13237  28.738  10.719  24.900  0.1689  0.1322  0.2004
12374W        W13238   3.254  14.368  23.596  0.0909 -0.1255  0.0179
12375W        W13239   3.669  13.659  26.389 -0.2026 -0.0039  0.1480
12376W        W13240   1.502  12.809  26.350  0.0675  0.1851 -0.0230
12377W        W13241   1.970  12.923  23.681 -0.2708  0.1066  0.1796
12378W        W13242   4.214  15.011  24.002  0.1798  0.2116 -0.1160
12379W        W13243   0.720  14.840  23.414  0.2066 -0.2849 -0.1710
12380W        W13244   4.832  14.608  21.958  0.0142 -0.1445  0.1656
12381W        W13245   1.367  10.771  25.954 -0.0875  0.0753 -0.0706
12382W        W13246   1.672  12.909  25.119  0.2007  0.1846 -0.1918
12383W        W13247   4.879  17.605  28.071 -0.1312 -0.0003 -0.0774
12384W        W13248   2.297  13.029  25.812 -0.1097 -0.0470 -0.3219
12385W        W13249  28.937  14.588  21.860  0.2488 -0.0963 -0.0816
12386W        W13250   4.409  12.489  24.890 -0.0254 -0.0979  0.1353
12387W        W13251   2.193  13.835  19.176  0.0649  0.2002  0.0529
12388W        W13252   3.801  17.544  21.014 -0.2624  0.3267  0.1347
12389W        W13253  28.823  13.663  22.144 -0.2280 -0.3452  0.0158
12390W        W13254   0.350  12.167  23.064 -0.0116  0.3279 -0.0019
12391W        W13255   2.513  11.744  23.636 -0.1852 -0.1336 -0.2696
12392W        W13256   1.958  14.226  26.536 -0.1214 -0.0500  0.0691
12393W        W13257   1.779  13.283  22.095  0.1501  0.1029  0.0192
12394W        W13258   0.520  14.392  24.028 -0.0700 -0.1009 -0.2351
12395W        W13259   1.812  11.508  24.730  0.0729  0.1630 -0.1871
12396W        W13260   1.491  15.435  23.110  0.3136  0.0299  0.0925
12397W        W13261   0.238  14.558  22.221 -0.0626 -0.0127 -0.0786
12398W        W13262   2.081  15.251  24.795  0.1245  0.1351  0.0550
12399W        W13263   3.360   9.657  23.838 -0.0691  0.1072 -0.0617
12400W        W13264   1.934  12.736  24.651  0.0719  0.1191  0.0901
12401W        W13265  29.022  13.892  23.856  0.2945  0.5357  0.4166
12402W        W13266   0.313  12.025  24.747  0.0553  0.0982  0.1219
12403W        W13267   1.500  10.695  23.381 -0.1507  0.0196 -0.1770
12404W        W13268   1.281  10.192  22.138 -0.1494  0.1842  0.0319
12405W        W13269  28.104  12.372  26.245 -0.1330 -0.2113 -0.1254
12406W        W13270   2.397   9.679  23.954  0.1365 -0.0228 -0.2536
12407W        W13271   0.173  14.687  25.434  0.0322  0.2940 -0.0215
12408W        W13272   4.398  10.142  22.021  0.0435  0.3694  0.1036
12409W        W13273   5.730  11.267  24.607 -0.0477  0.1805  0.1779
12410W        W13274  27.934  10.931  25.337 -0.2483 -0.0835  0.1372
12411W        W13275   0.497  13.576  23.760  0.0484 -0.0462 -0.0823
12412W        W13276  28.065  11.264  24.835 -0.3801 -0.0582  0.2516
12413W        W13277   0.600  13.983  25.840  0.2678  0.0699  0.0165
12414W        W13278   2.328  11.868  26.948 -0.1484  0.1495 -0.0641
12415W        W13279   4.422  13.719  19.145 -0.1900 -0.2227 -0.1783
12416W        W13280   0.311  13.402  24.483  0.1673 -0.0834 -0.0273
12417W        W13281   0.186  15.598  25.398 -0.0304  0.0952 -0.2545
12418W        W13282   1.054  11.463   0.135 -0.0656 -0.0617 -0.2566
12419W        W13283   1.234  13.730  25.222 -0.0861 -0.2069 -0.1044
12420W        W13284   2.297  11.493  23.988  0.0005 -0.2450  0.3473
12421W        W13285   3.902  14.344  25.070 -0.3996  0.0144 -0.0657
12422W        W13286   2.958  14.540  23.985  0.1492 -0.0380  0.2218
12423W        W13287   1.246  12.416  22.507 -0.1846 -0.0728 -0.1772
12424W        W13288   1.383  14.725  20.300 -0.0937  0.0393  0.1893
12425W        W13289   2.865  14.868  25.246 -0.2396 -0.2599 -0.0200
12426W        W13290   3.381  15.535  25.483  0.0523 -0.2707 -0.1130
12427W        W13291   4.109  11.789  25.429 -0.0779  0.0350  0.0984
12428W        W13292   3.287  11.678  24.301 -0.1118 -0.0586  0.2475
12429W        W13293   2.940  15.317  24.989 -0.0582 -0.3175 -0.0422
12430W        W13294   2.561  10.227  19.455  0.0593 -0.0194  0.1243
12431W        W13295   3.937  11.950  23.149  0.1217 -0.0294 -0.4761
12432W        W13296   1.121  12.471  26.341  0.2539 -0.1504  0.0367
12433W        W13297   0.753  13.719  26.230  0.1075  0.4847  0.0754
12434W        W13298   7.070  12.424  25.087 -0.1941  0.3049  0.3236
12435W        W13299   3.857  17.002  21.772  0.1394 -0.0075  0.2700
12436W        W13300   3.201  13.772  20.746  0.1761 -0.0179 -0.2292
12437W        W13301   1.639  12.865  24.132  0.0161 -0.1083  0.0102
12438W        W13302   2.586  13.718  24.168  0.0020  0.0567 -0.0551
12439W        W13303   2.641  13.855  22.240 -0.0160 -0.0241  0.0185
12440W        W13304   2.012  11.836  20.103 -0.1155 -0.4581 -0.1468
12441W        W13305   2.104  13.032  25.354  0.2360 -0.1213  0.0748
12442W        W13306   0.844  14.282  23.643 -0.2741 -0.0831 -0.2185
12443W        W13307   1.182  12.469  21.962  0.2876  0.0418  0.1398
12444W        W13308   2.443   9.660  24.936 -0.0783  0.3050 -0.0737
12445W        W13309   1.278  15.647  23.619  0.3046  0.0268 -0.1125
12446W        W13310   5.437  13.231  22.755  0.1173  0.0662  0.1414
12447W        W13311   2.327  14.508  22.562  0.2061  0.0161 -0.0824
12448W        W13312   0.109  12.453  27.051 -0.0162  0.1044 -0.0847
12449W        W13313   1.920   9.478  24.882  0.2547  0.1449 -0.0337
12450W        W13314   1.425  11.463  22.012  0.0472  0.3007  0.1044
12451W        W13315   4.317  11.546  23.311 -0.2493  0.2004 -0.1591
12452W        W13316   1.828  11.932  25.110 -0.1998  0.3148 -0.0181
12453W        W13317   2.529  15.193  21.749 -0.0680  0.0697  0.0943
12454W        W13318   4.028  15.514  23.639  0.3909 -0.1530 -0.0397
12455W        W13319   1.194  14.632  23.515 -0.1758  0.0796 -0.0551
12456W        W13320   1.924  11.515  22.202 -0.0739 -0.0054  0.0232
12457W        W13321   1.217  13.270  24.953  0.1415 -0.1496  0.1877
12458W        W13322   4.013  14.949  25.725 -0.4884 -0.0100  0.1426
12459W        W13323   2.396  15.139  25.517  0.1169  0.2737  0.0568
12460W        W13324   2.516  14.775  24.032 -0.2068 -0.2620 -0.0101
12461W        W13325   0.471  12.739  22.421 -0.2541  0.2311  0.1896
12462W        W13326   5.096  15.482  22.875  0.1218  0.2571 -0.4522
12463W        W13327   0.138  15.514  22.688 -0.2383 -0.2888  0.0475
12464W        W13328   3.802  13.489  24.516 -0.0613 -0.1155 -0.1808
12465W        W13329   3.450  15.370  21.534 -0.3309  0.1143  0.0790
12466W        W13330   3.082  14.016  22.519 -0.1547 -0.0171 -0.0673
12467W        W13331   1.253  11.981  25.169  0.0855  0.0783  0.0088
12468W        W13332   5.498  13.802  24.808  0.4445 -0.1586 -0.2869
12469W        W13333   3.754  14.370  23.287  0.0253 -0.0032  0.0450
12470W        W13334  28.409  10.879  25.638  0.0466  0.0025 -0.1921
12471W        W13335   1.287  14.224  23.932 -0.3945  0.3572 -0.1787
12472W        W13336   1.311  13.495  26.380 -0.1218  0.1593  0.3274
12473W        W13337   0.247  14.786  23.662 -0.0551  0.4047 -0.1906
12474W        W13338   2.792  15.801  22.972  0.1147 -0.2158 -0.2069
12475W        W13339  28.184  13.282  26.952  0.4198 -0.0260 -0.1701
12476W        W13340   5.737  12.930  22.514  0.1856 -0.1098  0.0889
12477W        W13341   2.358  13.595  21.358  0.0187  0.0200 -0.0602
12478W        W13342   2.832  12.953  24.803 -0.1548  0.3199 -0.0006
12479W        W13343   3.053  12.387  21.620  0.0510  0.2360 -0.1111
12480W        W13344   0.250  11.581  25.134  0.0678  0.2464 -0.1670
12481W        W13345   3.175  15.777  23.504 -0.1073  0.1281  0.1671
12482W        W13346   6.785  12.171  23.117  0.1188  0.0677  0.4394
12483W        W13347   3.394  12.704  26.392 -0.0941  0.0037 -0.0276
12484W        W13348   1.039  13.980  25.635  0.1879 -0.1251  0.2846
12485W        W13349  28.593  10.995  23.390  0.1568  0.1091 -0.1436
12486W        W13350   1.389  13.619  25.798  0.0458 -0.2082 -0.0992
12487W        W13351  28.868  14.028  25.525 -0.0355  0.1422  0.1139
12488W        W13352   0.126  12.923  21.086  0.3712 -0.0001 -0.0190
12489W        W13353   0.019  13.535  22.771 -0.0659 -0.2057 -0.1896
12490W        W13354  28.906  15.871  24.680 -0.1759 -0.1006 -0.1111
12491W        W13355   3.015  12.467  23.178 -0.1790  0.2586  0.2904
12492W        W13356   1.439  12.473  24.976 -0.1071 -0.1212 -0.2592
12493W        W13357   1.905  14.532  20.004 -0.0584  0.1567  0.0048
12494W        W13358   0.085  13.415  28.152 -0.0512 -0.2554 -0.0112
12495W        W13359   2.658  10.800  22.258 -0.2146  0.1497  0.0283
12496W        W13360   0.861  12.943  25.440 -0.1826 -0.2705  0.3715
12497W        W13361  26.711  15.219  22.752 -0.0311 -0.0406  0.0804
12498W        W13362   4.594  11.225  22.976 -0.2101 -0.1588  0.0374
12499W        W13363   4.202  11.133  26.147 -0.1029 -0.2609  0.1220
12500W        W13364   1.445  14.018  26.546 -0.0738 -0.1318  0.2230
12501W        W13365   1.022  14.380  23.111  0.1979  0.2798  0.1891
12502W        W13366   1.385  11.581  22.919  0.3691 -0.1383  0.0449
12503W        W13367   3.751  12.823  25.091  0.1289 -0.1346  0.3741
12504W        W13368   3.743  15.164  24.778  0.0613  0.1529 -0.1790
12505W        W13369   4.897  11.607  24.574 -0.1795 -0.2877  0.0385
12506W        W13370   0.020  15.095  25.773  0.1969  0.1249 -0.3345
12507W        W13371   3.471  11.980  21.717  0.2833  0.2334 -0.1500
12508W        W13372  28.369   9.728  22.744  0.2174 -0.1167 -0.0083
12509W        W13373   2.335  13.540  25.595 -0.2020 -0.1290  0.3091
12510W        W13374   3.117  13.511  22.487 -0.1890 -0.0167  0.3134
12511W        W13375   3.657  14.929  22.589 -0.3032  0.1875 -0.1177
12512W        W13376   2.629  15.797  23.905 -0.2038  0.0140  0.3096
12513W        W13377   2.204  13.469  25.106  0.1192  0.1069  0.0504
12514W        W13378   2.191  11.520  25.044 -0.0103  0.1704  0.3583
12515W        W13379   0.205  12.394  24.415 -0.1266 -0.2428 -0.4383
12516W        W13380  29.060  13.797  24.368 -0.2943  0.1875 -0.0986
12517W        W13381   0.198  12.585  20.653 -0.0646 -0.0746 -0.1255
12518W        W13382   1.590  14.121  27.035  0.0720 -0.0889  0.1006
12519W        W13383   4.341  13.258  23.982  0.2925 -0.2055 -0.0068
12520W        W13384   0.746  13.393  24.742 -0.2418 -0.4385  0.0930
12521W        W13385   2.269  12.621  26.525  0.2343  0.0201 -0.0863
12522W        W13386  29.112  13.521  26.723 -0.0941  0.0642  0.2111
12523W        W13387   1.728  14.145  22.070 -0.3710  0.0326 -0.0484
12524W        W13388   3.384  12.976  21.944 -0.1705 -0.2272  0.1179
12525W        W13389   2.685  14.135  22.791  0.2160  0.0011  0.2165
12526W        W13390  28.814  13.195  23.138 -0.3764 -0.0110  0.0070
12527W        W13391   1.476  13.591  23.405 -0.1228  0.1691  0.1047
12528W        W13392   2.932  16.021  21.575  0.1463 -0.1552  0.0791
12529W        W13393   2.658  13.484  24.926 -0.0508  0.2986  0.1509
12530W        W13394   0.454  14.648  22.848 -0.1292 -0.0587  0.1096
12531W        W13395  28.192  12.681  24.275 -0.0792 -0.0320 -0.2734
12532W        W13396  29.049  14.427  25.163  0.0978 -0.0270 -0.0832
12533W        W13397   5.464  10.956  23.539 -0.2336 -0.0774  0.2352
12534W        W13398  28.755  14.203  22.088 -0.2967  0.1755  0.0369
12535W        W13399   0.119  14.477  23.266 -0.0147 -0.1970 -0.0681
12536W        W13400  28.414  14.014  23.375 -0.4673 -0.1505 -0.2112
12537W        W13401   1.431  12.433  25.944  0.0188 -0.1723  0.2878
12538W        W13402   2.547  11.510  19.364 -0.0397  0.0788  0.0880
12539W        W13403   5.070  14.467  25.913  0.0485 -0.0333  0.0792
12540W        W13404   2.832  15.839  25.856  0.0635 -0.1016  0.0944
12541W        W13405   1.267  14.017  26.076 -0.0072 -0.2392  0.2847
12542W        W13406   5.916  14.233  24.202  0.0455 -0.1891 -0.0193
12543W        W13407   2.857  14.110  24.271  0.0109 -0.1804 -0.0801
12544W        W13408   3.700  13.761  21.598  0.0076  0.0688 -0.0468
12545W        W13409   3.453  15.999  25.166 -0.0210  0.0108 -0.4350
12546W        W13410   4.246  10.596  22.000  0.2305 -0.1872 -0.2456
12547W        W13411   1.878  14.585  22.191  0.2695 -0.0061 -0.0147
12548W        W13412   0.865  11.132  26.043  0.0638  0.1215 -0.3697
12549W        W13413   1.502  11.490  27.145  0.0221 -0.2418  0.3231
12550W        W13414  28.869  16.679  22.824  0.0001  0.1477  0.0696
12551W        W13415   1.957  14.201  23.669 -0.1647 -0.0539 -0.0016
12552W        W13416   3.430  16.694  25.202  0.1910  0.3178  0.0124
12553W        W13417  28.204  14.898  22.401  0.0214  0.0852 -0.0570
12554W        W13418  27.936  12.254  25.708 -0.1561 -0.2642  0.0034
12555W        W13419   1.716  15.053  24.069  0.0773  0.2678  0.1776
12556W        W13420   1.095  11.195  25.609 -0.0666 -0.2824  0.0707
12557W        W13421   5.118  13.175  23.712 -0.0577 -0.0342 -0.0354
12558W        W13422   1.721  11.698  21.718 -0.0156 -0.0952  0.1933
12559W        W13423   5.821  14.717  24.331  0.0372 -0.0579  0.2356
12560W        W13424   1.560  13.010  23.460 -0.1243  0.0300 -0.0928
12561W        W13425   1.897  13.683  21.656 -0.0186  0.0480 -0.0872
12562W        W13426   3.125  12.094  22.086  0.3524 -0.0036  0.0264
12563W        W13427  28.135  13.071  24.930  0.0169  0.1094 -0.1819
12564W        W13428   4.106  12.903  24.747 -0.2107  0.4060  0.0035
12565W        W13429  27.290  12.359  27.058  0.1404  0.0456  0.1177
12566W        W13430   1.447  13.020  24.607  0.1077  0.0143  0.1300
12567W        W13431   0.408  15.263  22.270  0.0602  0.0796  0.0808
12568W        W13432   1.682  13.953  22.555 -0.0017 -0.4354 -0.1563
12569W        W13433   4.224  12.829  25.253  0.2448 -0.0783 -0.0656
12570W        W13434   1.744  12.378  22.711 -0.3368 -0.2392  0.1815
12571W        W13435   0.812  13.621  22.496  0.1077  0.2544  0.1594
12572W        W13436   3.407  14.795  23.044 -0.2594  0.0944  0.2569
12573W        W13437   2.563  12.758  22.377 -0.0548  0.1709  0.1032
12574W        W13438   1.333  13.235  25.483 -0.4743 -0.1395 -0.1731
12575W        W13439   3.952  11.836  21.379 -0.3657 -0.1095  0.0600
12576W        W13440   4.735  11.926  20.786  0.1886  0.0337 -0.5806
12577W        W13441   2.231  11.616  20.548 -0.0268  0.0965 -0.2007
12578W        W13442   0.004  12.885  25.395  0.1590 -0.0405  0.1012
12579W        W13443   2.627  13.377  20.972  0.1567 -0.0323  0.0078
12580W        W13444   1.932  14.581  23.325  0.0286  0.0767 -0.0640
12581W        W13445   0.940  13.088  23.084  0.1654 -0.2111  0.2089
12582W        W13446   2.542  12.710  26.078 -0.0689  0.0100 -0.0842
12583W        W13447   2.778  14.907  25.812 -0.1045  0.0241 -0.0088
12584W        W13448   0.099  12.901  24.374  0.0003 -0.1189 -0.1745
12585W        W13449   5.203  11.689  24.078  0.0827 -0.0775 -0.0393
12586W        W13450  28.627  14.577  26.479 -0.1419  0.2023 -0.3753
12587W        W13451   2.532  14.488  26.637 -0.1700  0.1222 -0.1238
12588W        W13452  28.763  12.069  23.817  0.3371 -0.0540 -0.1197
12589W        W13453  26.722  11.298  26.267  0.2099 -0.1070 -0.0416
12590W        W13454   4.101  14.110  26.360 -0.2066 -0.1179  0.0944
12591W        W13455   4.489  13.222  26.573 -0.1319 -0.1433 -0.1464
12592W        W13456  28.454  13.441  23.436  0.0086  0.0180 -0.1672
12593W        W13457  28.954  13.872  21.610  0.0003  0.0739  0.0220
12594W        W13458  28.923  13.663  23.294 -0.1335  0.0565  0.1139
12595W        W13459   0.218  13.894  23.428 -0.1166 -0.1438 -0.1704
12596W        W13460   2.324  13.329  23.976  0.2325 -0.0308  0.4254
12597W        W13461   2.988  13.212  27.668  0.0096 -0.5097  0.1299
12598W        W13462  28.772  13.246  25.683  0.1998 -0.2901 -0.2558
12599W        W13463   2.379  14.625  21.083  0.2300  0.2082 -0.1579
12600W        W13464   3.253  14.151  24.022  0.1077 -0.2170  0.0609
12601W        W13465  28.319  14.240  25.666 -0.1671 -0.2479 -0.0663
12602W        W13466   0.790  13.468  27.967 -0.2126  0.4091 -0.0535
12603W        W13467   3.215  11.889  20.788 -0.0886  0.3977 -0.2268
12604W        W13468   2.576  14.881  29.110 -0.2133 -0.1082 -0.2335
12605W        W13469   2.049  13.758  22.146 -0.1851 -0.0316 -0.0513
12606W        W13470   1.233  13.734  21.345  0.1207 -0.2676  0.0094
12607W        W13471  28.936  17.304   1.198 -0.0304  0.0055  0.0989
12608W        W13472   1.370  13.724  27.914 -0.2616 -0.0239 -0.1056
12609W        W13473   3.598  12.745  27.252  0.3431 -0.0972  0.1876
12610W        W13474   2.600  16.063  27.371 -0.4522  0.2878  0.0939
12611W        W13475   4.529  15.565  24.113 -0.2536  0.0909  0.1798
12612W        W13476   4.094  13.652  27.919 -0.0847 -0.2542  0.0119
12613W        W13477  28.221  13.457  26.489 -0.1199  0.1227 -0.0935
12614W        W13478   1.828  15.238  28.804  0.2465 -0.5064  0.1181
12615W        W13479   1.605  14.269   0.475  0.1941  0.0067  0.3326
12616W        W13480  29.117  14.409   0.495  0.1326 -0.0512 -0.3887
12617W        W13481   2.649   9.483   1.187 -0.5785 -0.0097 -0.1063
12618W        W13482   2.539  13.316  27.822  0.2762 -0.1003  0.1050
12619W        W13483   2.866  14.257  25.205  0.1477  0.0507 -0.3607
12620W        W13484   2.751  11.338  29.005 -0.0895 -0.1712 -0.1356
12621W        W13485   2.655  10.231  27.993 -0.4255  0.2180  0.1730
12622W        W13486   0.861  14.953   1.175  0.1740  0.0932 -0.0839
12623W        W13487   1.195  11.972  25.689 -0.1226 -0.1342 -0.0263
12624W        W13488   0.914  10.661  27.489 -0.3032 -0.2226 -0.3870
12625W        W13489   1.165  14.211  27.535  0.0586  0.2008 -0.3182
12626W        W13490   3.942  13.691  25.567 -0.1721 -0.0310 -0.1896
12627W        W13491   3.453  13.748  28.522  0.1320 -0.1326 -0.0718
12628W        W13492   3.922  13.617   0.979  0.0435 -0.0017  0.2319
12629W        W13493   0.911  13.707  27.547 -0.3469  0.0206 -0.0103
12630W        W13494   1.957  13.091  28.387 -0.2005 -0.2487 -0.2858
12631W        W13495  26.180  12.048   0.267  0.2415  0.0374 -0.1448
12632W        W13496   1.108  10.508  27.988  0.2845  0.0005 -0.2261
12633W        W13497   1.670  11.023   0.908  0.1020  0.2255 -0.0209
12634W        W13498  28.353  13.528  27.407  0.1905 -0.1526  0.2825
12635W        W13499   1.895  16.196  26.238  0.1204 -0.1581 -0.4112
12636W        W13500   4.562  14.004  26.789  0.1904  0.0867 -0.1053
12637W        W13501   2.822  11.815   0.059  0.0700 -0.2185  0.1839
12638W        W13502   4.009  15.016   2.164  0.0089 -0.0096  0.0016
12639W        W13503   4.657  12.819   1.512  0.2379  0.0712 -0.1037
12640W        W13504   0.998  11.858  27.184  0.1472  0.3587 -0.3944
12641W        W13505   0.837  12.438  28.654  0.2006 -0.0241 -0.0236
12642W        W13506   1.072  11.933  28.386  0.0274  0.0657  0.1431
12643W        W13507   2.547  11.875  27.513  0.0129 -0.0009 -0.2694
12644W        W13508   1.491  16.079  28.367  0.1817  0.1132  0.0139
12645W        W13509   4.210  12.838  26.549  0.1263  0.1026  0.2278
12646W        W13510   5.138  12.494  28.108  0.1258 -0.1427 -0.0652
12647W        W13511   4.009  11.333  22.729  0.1475 -0.0186  0.3687
12648W        W13512   5.253  12.872   0.410  0.0714 -0.2106  0.2959
12649W        W13513   2.751  14.422  25.710  0.0072 -0.0681  0.0532
12650W        W13514   4.904  14.310  24.344 -0.0298  0.1764 -0.1647
12651W        W13515   2.255  14.630  25.742 -0.1608 -0.0025 -0.1630
12652W        W13516   0.253  18.255  26.744  0.0389 -0.1465  0.1052
12653W        W13517   1.733   9.522  28.949 -0.1605 -0.1028 -0.2740
12654W        W13518   3.313  12.204  26.414  0.2849  0.1275  0.1306
12655W        W13519   5.579  12.408  23.936 -0.2103  0.2291  0.1369
12656W        W13520   3.905  13.940  28.529  0.1599  0.0449  0.1464
12657W        W13521  26.791  15.100  26.102 -0.3488  0.1278 -0.3814
12658W        W13522   1.092  12.822   1.064 -0.0300  0.0916  0.0520
12659W        W13523   2.697  13.053  28.784 -0.0058  0.0379 -0.1636
12660W        W13524   4.600  12.728   0.672  0.0467 -0.1501 -0.0161
12661W        W13525   2.662  13.289  27.254  0.0154  0.0575  0.1055
12662W        W13526  28.617  15.040  28.991  0.1473 -0.4325 -0.1220
12663W        W13527   3.125  11.590  26.245 -0.1264  0.2469  0.0056
12664W        W13528   2.727  12.267  27.318 -0.2014 -0.0129  0.1280
12665W        W13529   2.450  13.305  28.388  0.1864  0.0090 -0.1517
12666W        W13530   3.758  15.175  25.411 -0.0916  0.0927 -0.1479
12667W        W13531   1.966  12.470  24.075 -0.1419  0.1048 -0.0661
12668W        W13532  28.112  14.522   0.815  0.3582 -0.0489  0.0583
12669W        W13533   0.473  12.681  28.415 -0.1196  0.3193  0.2678
12670W        W13534   3.622  14.665  24.795  0.0290  0.1885 -0.1591
12671W        W13535   3.285   8.250  27.157  0.1669  0.1162  0.0610
12672W        W13536   2.402  12.283  29.072  0.1057  0.0800  0.2175
12673W        W13537   2.020  12.223  26.695 -0.0338 -0.0126 -0.1921
12674W        W13538   1.250  12.681  28.820  0.2108  0.0209 -0.0146
12675W        W13539  28.957  17.440  26.930  0.1622  0.0765  0.3135
12676W        W13540   2.062  14.048  27.271 -0.2828 -0.0898 -0.1523
12677W        W13541   2.334  15.765  26.226  0.0721 -0.0458  0.0547
12678W        W13542  29.120  13.559  24.838 -0.0358 -0.0135 -0.1738
12679W        W13543   5.326  17.655  24.363  0.0787 -0.1105  0.2939
12680W        W13544   2.832   9.867  28.220 -0.1006  0.0300  0.1144
12681W        W13545   3.103  14.691  24.852  0.0218  0.1922 -0.2931
12682W        W13546   2.297  11.675   0.243  0.1012 -0.1731  0.0503
12683W        W13547  27.753  10.948  28.386 -0.1296  0.2810 -0.1007
12684W        W13548   2.960  14.988  27.851  0.2959  0.0405  0.3578
12685W        W13549   2.409  13.988  26.729  0.3919 -0.0764  0.2640
12686W        W13550   5.041  13.317  27.212 -0.1448 -0.1464 -0.2242
12687W        W13551   0.760  12.543  27.793 -0.3797  0.1250  0.0717
12688W        W13552   0.256  13.125   0.771 -0.0747 -0.0524 -0.1795
12689W        W13553  28.102  11.593  28.585 -0.1039 -0.0227  0.0758
12690W        W13554   1.556  10.073  28.889 -0.0407 -0.1700  0.0019
12691W        W13555   3.730  10.516  28.727  0.1154 -0.1034  0.4360
12692W        W13556   2.605  11.684  27.997  0.0300 -0.1038  0.2460
12693W        W13557   4.819  14.506   0.682 -0.1490  0.2431 -0.0212
12694W        W13558   3.532  12.426  25.945  0.6000 -0.4004  0.0574
12695W        W13559   2.390  14.108  27.656 -0.0693 -0.1135  0.0719
12696W        W13560   3.498  11.201  26.126  0.1842  0.1305  0.2372
12697W        W13561  29.059  12.604   0.948  0.0326  0.1062  0.0678
12698W        W13562   4.278  14.222   0.211 -0.2274  0.0525 -0.0323
12699W        W13563   2.552  14.980  28.648 -0.0470  0.1485 -0.1724
12700W        W13564   2.001  12.911  26.220 -0.0667 -0.1118 -0.0261
12701W        W13565  27.869  10.338  29.146  0.1418  0.0317 -0.1318
12702W        W13566   5.113   7.321   1.921 -0.0184  0.4243 -0.1667
12703W        W13567   4.541  11.800  24.970  0.2910  0.2226 -0.0082
12704W        W13568   1.804  14.615  28.173 -0.0876  0.0222  0.1151
12705W        W13569   4.061  12.239  27.759 -0.0932  0.0949  0.0189
12706W        W13570   6.007  11.288  27.371  0.0063  0.1485 -0.2009
12707W        W13571   5.923  13.074  27.552 -0.2834 -0.0130  0.3021
12708W        W13572   0.544  12.856   0.353 -0.0879  0.1980  0.0440
12709W        W13573   2.145  12.126  25.522  0.3166 -0.1103  0.3129
12710W        W13574   5.277  12.875  24.585  0.3885 -0.3113 -0.1237
12711W        W13575   6.437  12.689  28.926  0.0159  0.0091 -0.1607
12712W        W13576   5.461  12.487   1.189  0.0475  0.0946 -0.3279
12713W        W13577   0.662  13.944  25.281 -0.1889  0.2088 -0.1606
12714W        W13578   3.775  14.073   0.297 -0.1634 -0.2412  0.0917
12715W        W13579   3.967  10.593  27.464  0.1250  0.0090 -0.2328
12716W        W13580  29.130  12.536  25.721 -0.1386 -0.2974  0.0985
12717W        W13581   0.853  12.931  27.250 -0.0946  0.0092 -0.2650
12718W        W13582   5.135  14.310  27.088 -0.0616  0.1615  0.1609
12719W        W13583   6.146  15.090   3.175  0.3467  0.1293 -0.0964
12720W        W13584   2.266  15.751   0.178  0.2337  0.2051 -0.0111
12721W        W13585   4.197  15.134   0.325  0.1626 -0.0117 -0.0340
12722W        W13586   1.950  13.395   0.818 -0.1198 -0.2366 -0.2430
12723W        W13587   8.582  13.651  28.686 -0.1407 -0.0719  0.0508
12724W        W13588   4.501  11.746   0.395 -0.3133  0.1821 -0.0348
12725W        W13589   3.285   9.361  27.750  0.2103  0.0167  0.0379
12726W        W13590   2.897  11.443  26.704 -0.0139  0.0355 -0.0315
12727W        W13591   3.622   9.067  24.567 -0.0824 -0.1572  0.2275
12728W        W13592   3.741  14.057  23.688  0.0244 -0.1186  0.0980
12729W        W13593   3.106  12.852  28.897  0.2275 -0.2259 -0.1375
12730W        W13594   3.829  12.637  25.615  0.0500  0.0035  0.1076
12731W        W13595   2.674  14.267  28.098 -0.0664 -0.1206 -0.0363
12732W        W13596   2.857  12.668  26.508 -0.0670 -0.0948 -0.0183
12733W        W13597   2.626  10.235  26.212  0.1853 -0.1858 -0.0670
12734W        W13598   2.372  14.055  28.940  0.0310  0.0193 -0.0380
12735W        W13599   3.343  13.819  27.516 -0.0386  0.1329 -0.2782
12736W        W13600   2.215  13.115  27.424 -0.2054 -0.0564  0.3232
12737W        W13601   4.904  14.514  28.001  0.2447 -0.0757 -0.3971
12738W        W13602   2.339  12.850  29.099  0.2369 -0.0504  0.1079
12739W        W13603   1.684  14.638  26.654  0.2300 -0.0133 -0.0893
12740W        W13604   5.980  13.399  24.225 -0.0562 -0.4123  0.2828
12741W        W13605   3.287  12.783  26.843 -0.1705 -0.1847  0.0556
12742W        W13606   1.127  12.111  27.874 -0.0877  0.0408 -0.0014
12743W        W13607   4.247  12.618  29.126  0.0309 -0.0143  0.3027
12744W        W13608   5.026  16.455   1.260  0.3306  0.1385  0.4011
12745W        W13609  27.512  12.223  26.599 -0.4010  0.2289  0.2672
12746W        W13610   3.897  15.170  28.634 -0.1026  0.0095 -0.4564
12747W        W13611   5.023  12.329  25.780 -0.0417  0.0778  0.1634
12748W        W13612   1.877  11.991   0.066 -0.3354  0.0664 -0.2948
12749W        W13613   0.531  18.182  27.145 -0.0841 -0.0580 -0.0061
12750W        W13614   0.497  13.658  28.257 -0.3143  0.0540  0.0791
12751W        W13615   1.185  13.134   1.468  0.0247  0.0997 -0.2690
12752W        W13616   1.575   9.512  26.260  0.2834  0.0254 -0.0385
12753W        W13617   4.727  10.747  27.547  0.1464  0.0330 -0.1629
12754W        W13618   2.613  15.849  26.795 -0.1116  0.0419  0.0614
12755W        W13619   3.713  14.091  27.264 -0.0688  0.6217 -0.0723
12756W        W13620   0.562  13.176  29.041 -0.6988 -0.1026  0.0492
12757W        W13621   3.590  12.587  28.129 -0.2545 -0.0503  0.2418
12758W        W13622   1.693  10.769  24.251  0.2761 -0.1626  0.1150
12759W        W13623   2.146  14.126  28.158  0.0207  0.0086 -0.0777
12760W        W13624   0.126  12.335  26.415  0.4038 -0.1647 -0.0492
12761W        W13625   1.580  10.997  27.104  0.1164  0.0373  0.1113
12762W        W13626   2.874  11.710  28.659  0.0694  0.1038 -0.2015
12763W        W13627  28.004  13.506   0.047  0.2150 -0.1680 -0.1978
12764W        W13628   3.901  12.377  25.022  0.1027  0.1032 -0.1851
12765W        W13629   1.959  10.910  26.819  0.0046 -0.3077 -0.0024
12766W        W13630   1.692  14.964  27.319  0.0535  0.1220  0.1339
12767W        W13631   3.185  12.605  28.490  0.2499  0.0827 -0.1984
12768W        W13632   2.760  11.996   0.909  0.0407  0.1183  0.3411
12769W        W13633   3.205  13.261   1.243  0.0000 -0.0359  0.3842
12770W        W13634   4.153  14.151  28.128  0.0117  0.0541 -0.1794
12771W        W13635   4.056  12.351  28.788 -0.2578 -0.2002 -0.3128
12772W        W13636   4.002  10.764  28.385  0.3258  0.1507  0.1809
12773W        W13637   0.200  13.904  27.032  0.0663 -0.0019  0.1204
12774W        W13638   0.390  16.065  27.367 -0.1480  0.1164  0.2604
12775W        W13639   3.443  15.426  28.356  0.2638 -0.1528  0.0388
12776W        W13640   0.907  14.607  27.897 -0.1499 -0.4334  0.0758
12777W        W13641   4.527  14.271  27.209  0.2758 -0.1350  0.0579
12778W        W13642   2.809  13.529  28.661  0.1653  0.1557  0.1754
12779W        W13643   3.491  10.810  28.250  0.3307  0.0501  0.3036
12780W        W13644   5.334  16.087  25.743  0.0791 -0.0215 -0.1848
12781W        W13645   0.727  12.239   1.602  0.0959 -0.0721 -0.2734
12782W        W13646   2.731  13.225  24.349  0.0902  0.2505 -0.0893
12783W        W13647   3.200  13.255  28.497  0.3785  0.2389 -0.0358
12784W        W13648   0.848  13.543  28.653  0.0852 -0.2196  0.3504
12785W        W13649   0.292  13.318  27.003 -0.0521  0.0485  0.0820
12786W        W13650  29.122  11.485   0.475  0.1023 -0.4184  0.2844
12787W        W13651   3.306  14.739  27.997  0.0420 -0.0185 -0.0120
12788W        W13652   4.024  13.173  27.935  0.0487 -0.1562 -0.0379
12789W        W13653   3.195  13.394  25.735  0.5210 -0.0244  0.1088
12790W        W13654   1.837  15.139  28.051  0.2596 -0.0916 -0.0091
12791W        W13655   3.014  14.384  27.734 -0.4050  0.0597  0.0539
12792W        W13656   2.855  12.708  27.671  0.1766  0.0577 -0.0978
12793W        W13657   3.031  13.616  25.236  0.0642  0.1848 -0.3064
12794W        W13658   0.956  10.118  25.353  0.2310 -0.2086  0.1944
12795W        W13659   1.247  13.702  28.368 -0.4136  0.0882  0.1881
12796W        W13660  28.334  13.872  26.944 -0.0245  0.1370 -0.0828
12797W        W13661   1.508  13.602  26.793  0.0345  0.0849 -0.3317
12798W        W13662  28.932  17.464  26.384  0.0329 -0.2737 -0.2143
12799W        W13663   3.557  13.128   1.603 -0.0999 -0.0265 -0.0286
12800W        W13664   4.405   9.969   1.314  0.0326 -0.1044  0.2357
12801W        W13665   3.697  11.177   0.254 -0.2195 -0.2119  0.2022
12802W        W13666   2.078  11.817  26.401 -0.0409 -0.0942  0.0080
12803W        W13667   2.634  13.139  25.390  0.3654 -0.1047  0.0654
12804W        W13668   1.686  11.342   0.069  0.1356  0.1742 -0.1385
12805W        W13669   1.400  10.733  28.506 -0.0548  0.3689 -0.1563
12806W        W13670   3.484  12.087  28.040 -0.1251  0.2406 -0.3408
12807W        W13671  28.432  12.768  25.937  0.1722  0.1000 -0.0703
12808W        W13672   2.005  12.154  27.339 -0.1927 -0.0505  0.0221
12809W        W13673   4.330  14.140  24.264  0.1260  0.1844 -0.0024
12810W        W13674   3.028  10.476   1.320  0.0347  0.0388  0.0685
12811W        W13675   4.249  13.252   0.705 -0.0393 -0.0470  0.0125
12812W        W13676  27.658  11.920  28.458  0.0447 -0.0056 -0.0862
12813W        W13677  28.668  14.109  27.859  0.0063 -0.1030 -0.1154
12814W        W13678   3.255  14.040   0.003 -0.1424  0.0161  0.2229
12815W        W13679   2.849  15.398  23.548  0.1028 -0.0932  0.1956
12816W        W13680   3.297  12.618   0.310  0.3430 -0.1781  0.0645
12817W        W13681   1.475  12.479  26.758  0.1573  0.1105 -0.2373
12818W        W13682   1.569  15.219   0.992 -0.0448  0.0154  0.0506
12819W        W13683   3.489  13.501  27.903  0.0086  0.5105 -0.3292
12820W        W13684   4.277  15.789  28.591  0.0405  0.1323  0.3062
12821W        W13685   5.886  12.788  24.047  0.1661  0.0167  0.1157
12822W        W13686   3.810  12.823  26.742  0.3126  0.0590  0.0936
12823W        W13687   2.590  15.841  24.410 -0.0063 -0.0397 -0.0446
12824W        W13688   4.395  10.226   0.331 -0.0053 -0.0167  0.0629
12825W        W13689   1.416  11.638  27.980 -0.2540  0.4950 -0.0638
12826W        W13690   2.776  13.109   1.410  0.0811  0.1572  0.0843
12827W        W13691   3.618  12.128   0.183 -0.0347 -0.2642  0.0916
12828W        W13692   2.417  14.431  27.248 -0.2266 -0.3450  0.1327
12829W        W13693   2.482  13.865  25.274 -0.1105 -0.3230  0.0502
12830W        W13694   4.543  18.069  25.097 -0.0630 -0.0770 -0.2813
12831W        W13695   2.391  11.534   0.829  0.1387 -0.0862  0.1692
12832W        W13696   2.368  15.260   0.322 -0.0663 -0.1059  0.4176
12833W        W13697   1.956  10.606   0.620 -0.0928 -0.1413 -0.2608
12834W        W13698   3.265  15.073  25.675  0.0954 -0.1791  0.1608
12835W        W13699   2.436  14.527  25.306 -0.1209  0.0320 -0.3965
12836W        W13700   4.326  11.356   0.666 -0.0355 -0.1360  0.0396
12837W        W13701   4.865  12.989   1.967 -0.0284 -0.0618 -0.2839
12838W        W13702   0.899  15.127  24.340 -0.0140  0.0061  0.0249
12839W        W13703   4.579  13.673  26.264 -0.0031 -0.0338  0.2749
12840W        W13704   1.090  12.197  26.738 -0.0716  0.1003 -0.0158
12841W        W13705   5.418  14.603  27.432  0.2556  0.1507  0.0043
12842W        W13706   3.542  15.603  24.471  0.1043 -0.0719  0.4031
12843W        W13707   4.270  11.131  28.663  0.1945  0.3030 -0.2330
12844W        W13708   1.856  12.778  26.761 -0.3455 -0.0799  0.0286
12845W        W13709   5.387  14.341  27.916 -0.1435 -0.1137 -0.4053
12846W        W13710   2.653  14.952  26.717 -0.0541 -0.4340 -0.0314
12847W        W13711   1.409  14.786  27.724 -0.1434 -0.2359 -0.3853
12848W        W13712   0.874  12.982  28.702 -0.1459  0.4181 -0.3379
12849W        W13713   0.162   8.868  25.931 -0.2014 -0.0744  0.1160
12850W        W13714   4.678  13.569  28.876  0.2067 -0.1012  0.2169
12851W        W13715   0.945  14.163  26.401 -0.3685 -0.2391 -0.3148
12852W        W13716   3.159  15.039  28.448 -0.0643  0.2732 -0.2462
12853W        W13717  26.838  13.687  27.977 -0.0318  0.1772 -0.1078
12854W        W13718   4.897  12.028  27.962  0.0315  0.3295  0.2813
12855W        W13719   1.622  11.318  26.696  0.0429  0.2512 -0.3177
12856W        W13720   1.938  13.845  26.813  0.0661 -0.0535 -0.1327
12857W        W13721   1.141  16.122   0.250 -0.0663 -0.0381  0.0533
12858W        W13722   3.232  17.851  28.311 -0.0457  0.1984 -0.0001
12859W        W13723   3.160  14.163   2.354  0.1250  0.0045 -0.1930
12860W        W13724   0.104  14.808  27.441 -0.0908  0.1846  0.0115
12861W        W13725   4.171  13.423  28.850 -0.0212  0.0183 -0.0895
12862W        W13726   0.676  10.811  22.872 -0.2876  0.0796 -0.0117
12863W        W13727   4.597  12.268   0.973  0.4878  0.0881  0.0354
12864W        W13728   3.664  13.342  25.986  0.0406 -0.2215 -0.2782
12865W        W13729   1.971  13.245  27.886  0.3086  0.0532 -0.0278
12866W        W13730   1.341  12.816  27.239 -0.0702 -0.0976 -0.1884
12867W        W13731   4.399  12.687  25.924  0.0496 -0.0569 -0.1879
12868W        W13732   3.311  12.048  27.239 -0.1643 -0.1712  0.1868
12869W        W13733   1.833  12.423  26.307  0.1361  0.2520  0.0531
12870W        W13734   3.480  15.116  26.324  0.1812  0.2788  0.0212
12871W        W13735   0.423  14.328   0.155 -0.2035 -0.1144 -0.2781
12872W        W13736   1.314  16.588   0.096 -0.0572 -0.0948 -0.0104
12873W        W13737   3.843  13.604  27.521  0.2089  0.1861 -0.0705
12874W        W13738   2.320  11.755  28.413 -0.4152  0.1344 -0.1125
12875W        W13739   2.660  13.366  25.904  0.1254 -0.1612 -0.2482
12876W        W13740   0.323  15.864  28.331 -0.0159 -0.0421 -0.0527
12877W        W13741   2.491  12.415   1.093  0.2228 -0.3648  0.2899
12878W        W13742   3.424  11.442  29.071  0.1364  0.1992  0.0837
12879W        W13743   3.107  13.008  27.237  0.1091  0.0044 -0.1678
12880W        W13744   1.572  13.199  26.025  0.2166 -0.0104 -0.0847
12881W        W13745   3.471  10.872  29.045  0.1208 -0.0772 -0.0667
12882W        W13746   3.417  12.472   1.614 -0.0506  0.1301  0.0904
12883W        W13747   0.554  10.752   0.074  0.1689  0.2985  0.1307
12884W        W13748   1.854  13.205  24.771 -0.2509 -0.1140 -0.1411
12885W        W13749   3.676  13.320  28.714 -0.0285  0.0941  0.1142
12886W        W13750   0.037  13.409  28.736  0.0512 -0.1359  0.1721
12887W        W13751   2.238  12.521  27.030  0.0348 -0.0724 -0.0218
12888W        W13752   1.502  12.305  27.390  0.0454  0.1762  0.1227
12889W        W13753   1.522  15.395   0.527  0.2849 -0.1330 -0.3431
12890W        W13754   1.129  13.970  27.085  0.2895 -0.1722  0.2369
12891W        W13755   3.221  11.235  28.283 -0.2165 -0.4133 -0.2123
12892W        W13756   2.853  15.350  28.119 -0.1069 -0.1094  0.1985
12893W        W13757   1.719  11.956   1.164 -0.0530  0.1389 -0.1211
12894W        W13758   4.464  10.321  26.622 -0.1554 -0.2503  0.2092
12895W        W13759   7.638  13.199  27.658 -0.0748 -0.1245 -0.0411
12896W        W13760   5.198  13.596  28.212  0.0603  0.0201  0.1467
12897W        W13761   4.744  12.493  27.646  0.0219  0.0795  0.1115
12898W        W13762   3.871  14.332  29.010 -0.0258  0.0453  0.0349
12899W        W13763   1.305  14.427   0.024  0.0212 -0.0791  0.0750
12900W        W13764   1.056  13.041  27.775 -0.2615 -0.3113 -0.1378
12901W        W13765   0.670  10.191   0.394  0.2788  0.1110 -0.0018
12902W        W13766  28.084  11.946   1.672  0.0319 -0.1232 -0.0669
12903W        W13767   4.569  15.014   0.655  0.0147 -0.1006  0.2296
12904W        W13768   4.242  11.839  28.096 -0.2863 -0.1113  0.0782
12905W        W13769  28.733  13.399  27.800  0.0604 -0.0349  0.0546
12906W        W13770  28.140  13.272  28.341  0.0241 -0.0926 -0.0370
12907W        W13771  29.133  12.977  28.437  0.0590  0.0556  0.3045
12908W        W13772   0.610  12.846   0.963 -0.1178  0.0606  0.3241
12909W        W13773   4.187   9.796  24.992  0.0225  0.0697 -0.0506
12910W        W13774   3.264  14.740  26.070  0.0390 -0.1385  0.0429
12911W        W13775   3.781  17.532  26.463 -0.1655 -0.2223 -0.2697
12912W        W13776   5.146  14.607  28.416 -0.2189 -0.1097 -0.1462
12913W        W13777   3.700  11.872  25.955  0.1468 -0.2236  0.1060
12914W        W13778   3.123  11.729  28.114  0.0810  0.1485  0.0017
12915W        W13779   0.697  16.498  27.453  0.0932 -0.3665  0.1620
12916W        W13780   1.727   9.969  28.262 -0.0586  0.0193 -0.0066
12917W        W13781   0.021  13.003  29.021 -0.0821  0.1652 -0.1728
12918W        W13782   1.549  14.049  28.296 -0.1806 -0.1293 -0.4126
12919W        W13783   4.966  12.454   1.751  0.0300  0.0407  0.2504
12920W        W13784   2.089  13.234  28.857 -0.0117  0.0489 -0.1505
12921W        W13785   1.095  13.326  29.077 -0.0551  0.0943  0.0388
12922W        W13786   2.641  12.227  27.832 -0.1210 -0.2045 -0.2477
12923W        W13787   4.709  14.418  28.480  0.3351  0.2770 -0.3634
12924W        W13788   1.526  14.990  28.458 -0.0230 -0.0848  0.1119
12925W        W13789   1.683  13.415  25.205  0.1624  0.3846 -0.0349
12926W        W13790  28.986  16.527   0.645 -0.0515 -0.2166 -0.2573
12927W        W13791   6.412  16.136  27.147  0.3637  0.0287  0.1192
12928W        W13792   0.719  14.593  28.376 -0.0464 -0.0482  0.1091
12929W        W13793   3.843  15.124  28.072 -0.1381  0.0711  0.1628
12930W        W13794   0.729  14.638  26.420  0.0653  0.0448 -0.4010
12931W        W13795   1.001  14.282   0.416 -0.1293  0.1870 -0.3029
12932W        W13796   2.597   8.998   0.043 -0.1706 -0.3444  0.1689
12933W        W13797   0.262  13.647  26.193  0.0416 -0.3067  0.1830
12934W        W13798   5.046  13.104  26.341  0.0238 -0.3068 -0.1080
12935W        W13799  28.600  14.317  27.020  0.1748 -0.0713  0.3214
12936W        W13800   4.048  12.974  28.778  0.1852  0.0233 -0.2041
12937W        W13801   4.106  10.632  26.181 -0.0510 -0.0761  0.0757
12938W        W13802   4.607  13.854  27.534  0.0284 -0.0009 -0.0529
12939W        W13803   4.327  15.452  29.008  0.1157  0.1571 -0.2254
12940W        W13804   4.328  14.024  25.440 -0.0289 -0.1915 -0.1141
12941W        W13805   3.628  15.813   0.290 -0.1088 -0.0449  0.0334
12942W        W13806   1.522  15.267  27.690 -0.2467 -0.1787 -0.0649
12943W        W13807   5.464  11.953  23.605 -0.1613  0.1558  0.0286
12944W        W13808   0.689  12.226  28.207  0.0847 -0.0299 -0.0066
12945W        W13809   4.765  12.457  28.937 -0.0650  0.0187 -0.1236
12946W        W13810  27.843  17.030  25.887  0.3491 -0.1523 -0.0061
12947W        W13811   3.419  13.214  26.925  0.0065 -0.2901  0.0848
12948W        W13812   3.129  11.160  28.768 -0.1666  0.0389 -0.1997
12949W        W13813  26.950  15.110  27.045  0.1154 -0.2009 -0.1098
12950W        W13814   2.521  13.101  26.437 -0.0363 -0.1563 -0.0454
12951W        W13815   2.584  14.031  28.514 -0.0457  0.0439 -0.3753
12952W        W13816   3.388  13.792  24.940  0.0096  0.1021  0.0753
12953W        W13817   0.530  11.368  28.178  0.0667  0.1061  0.2627
12954W        W13818   1.203  14.350  26.827 -0.0723 -0.1224  0.1508
12955W        W13819   1.153  11.023  27.916 -0.0640  0.1815  0.2334
12956W        W13820   4.477  11.940  27.695 -0.0792  0.0351  0.1341
12957W        W13821   5.850  13.953  27.117 -0.0813 -0.4411  0.3379
12958W        W13822   5.337  14.475   0.615 -0.0021 -0.2118 -0.1644
12959W        W13823   0.476  12.468  27.377  0.1356 -0.0948  0.2633
12960W        W13824   1.072  15.598   0.487  0.1143  0.0749 -0.0781
12961W        W13825   3.046  11.416  24.839 -0.0349  0.3572  0.0231
12962W        W13826  28.886  15.824  28.611 -0.1816 -0.1373 -0.0328
12963W        W13827   3.446  14.516   1.482  0.2452 -0.0085  0.1824
12964W        W13828   1.750  13.108   1.727 -0.1760 -0.0469 -0.0070
12965W        W13829  28.140   8.619  26.728  0.1936  0.1149 -0.0078
12966W        W13830   2.961  13.539  28.157  0.0232  0.0455  0.1499
12967W        W13831   2.830  13.236   0.821 -0.2008 -0.2030 -0.0532
12968W        W13832  28.302  12.775  28.437  0.0487  0.0107  0.0538
12969W        W13833   3.149  11.784  25.279 -0.0497 -0.1442 -0.0645
12970W        W13834   1.931  12.514  28.351 -0.0647  0.0976 -0.0722
12971W        W13835   2.310  13.047  26.925 -0.0233  0.0462  0.0712
12972W        W13836   2.511  13.815  27.204  0.0196 -0.0559  0.2649
12973W        W13837   4.405  13.496  25.643  0.0544 -0.1846  0.0250
12974W        W13838   2.036  14.110   0.239  0.0984 -0.0480  0.0657
12975W        W13839   3.014  12.325  26.942  0.1101 -0.0750 -0.0743
12976W        W13840   1.174  11.596  27.550 -0.3775  0.1337  0.3845
12977W        W13841   4.225  14.955  29.002  0.3636 -0.2755  0.1473
12978W        W13842   2.586  12.263  25.768  0.1728 -0.1142  0.0552
12979W        W13843   1.757  15.195  26.854 -0.0236 -0.0329  0.1531
12980W        W13844   0.734  13.624  27.072 -0.0322 -0.0204  0.0213
12981W        W13845   2.349  16.087   2.435 -0.0866 -0.0317  0.2896
12982W        W13846   2.271  12.338  28.083 -0.0169  0.1282  0.2978
12983W        W13847   4.662  12.778  26.320  0.0519  0.1064  0.1441
12984W        W13848   2.541  13.463  29.072  0.2040 -0.1176  0.0694
12985W        W13849   2.962  12.312   1.267  0.2832 -0.1118 -0.1960
12986W        W13850   2.915  11.156  27.374  0.0021  0.0792 -0.1674
12987W        W13851  28.952  13.780  27.594  0.1077 -0.0038 -0.1398
12988W        W13852  27.356  14.227  28.861 -0.1004  0.0307  0.1811
12989W        W13853   2.950  15.412   0.631  0.1122 -0.1970 -0.2046
12990W        W13854   2.849  13.714  27.676  0.4852 -0.2152  0.0196
12991W        W13855   3.789  12.609   1.233 -0.1027  0.0265 -0.2399
12992W        W13856   1.084  14.262  28.651 -0.3089 -0.2289 -0.0473
12993W        W13857   1.586  17.792  27.855 -0.1878  0.3016 -0.0824
12994W        W13858   2.468  15.018  28.036  0.0932 -0.3550  0.1810
12995W        W13859   5.550  16.114  26.772 -0.1463 -0.0904 -0.0781
12996W        W13860   1.864  13.643  28.116 -0.1490  0.1544 -0.0081
12997W        W13861  28.905  15.504  24.296 -0.1775 -0.0363  0.0252
12998W        W13862   1.785  10.509  26.422  0.0374  0.0164  0.2043
12999W        W13863   1.786  16.899  26.855 -0.1149  0.1129 -0.0224
13000W        W13864  28.128  14.069   0.049 -0.1222 -0.1831 -0.1309
13001W        W13865   0.531  13.026  27.973 -0.0727 -0.2919 -0.1282
13002W        W13866   2.866  13.855  25.763  0.0667 -0.3125  0.0842
13003W        W13867   2.544  13.733   0.809 -0.1935  0.1538  0.0720
13004W        W13868   1.779  16.154  27.275 -0.0090 -0.2150 -0.2507
13005W        W13869  25.904  12.127  28.871 -0.1002  0.1192  0.0503
13006W        W13870  28.243  15.952   4.869 -0.1465 -0.2447 -0.1037
13007W        W13871   0.662  17.529   4.197 -0.1437 -0.1881 -0.0283
13008W        W13872   4.144  17.729   1.408 -0.0263  0.1239 -0.1681
13009W        W13873   2.173  15.328   2.151 -0.4342  0.0879 -0.0140
13010W        W13874   2.718  15.593  27.222  0.0488 -0.1189 -0.3910
13011W        W13875   1.350  18.364   2.103 -0.3569 -0.0563  0.0768
13012W        W13876   1.702  16.708   2.576  0.1677  0.0704 -0.1317
13013W        W13877   2.009  17.549   0.638 -0.1014 -0.0640 -0.0241
13014W        W13878  27.599  18.297   3.101  0.1384 -0.1457 -0.0709
13015W        W13879  28.981  18.012   2.839 -0.0535 -0.1436  0.0578
13016W        W13880   0.916  14.566   3.541 -0.0491  0.0043  0.1597
13017W        W13881   2.835  13.761   2.981 -0.1424 -0.1473 -0.1908
13018W        W13882   3.203  14.698  28.835  0.1230  0.0313 -0.1124
13019W        W13883   4.073  14.432   6.525  0.1452  0.2224 -0.1131
13020W        W13884   2.347  14.585   1.474  0.1861  0.0725  0.0999
13021W        W13885   1.354  17.138   3.686 -0.2242 -0.3934 -0.1547
13022W        W13886   1.943  15.893   2.007  0.2731  0.0735  0.0714
13023W        W13887  29.104  16.665   2.845  0.1576 -0.2927  0.0237
13024W        W13888   1.551  15.794   3.047 -0.0092 -0.0697  0.2060
13025W        W13889   5.520  17.109   0.875  0.2705 -0.1566 -0.0297
13026W        W13890   4.734  16.198   5.665 -0.3355  0.1171 -0.0432
13027W        W13891   0.819  15.526   3.912 -0.3648  0.2624  0.0264
13028W        W13892   2.847  19.377   2.045 -0.1176  0.0408 -0.4410
13029W        W13893  28.257  17.650   3.029  0.2152  0.2664 -0.3740
13030W        W13894  26.812  14.577   3.411  0.0517  0.0228 -0.2743
13031W        W13895   3.045  16.219   3.082  0.1583  0.2143 -0.1436
13032W        W13896   3.995  14.313   3.678 -0.2058 -0.0600  0.0889
13033W        W13897  28.813  17.452   2.312  0.2644  0.0401 -0.1206
13034W        W13898   5.157  15.079   3.583 -0.0327 -0.3272 -0.0350
13035W        W13899   3.705  17.011  28.780 -0.2833 -0.0506  0.1924
13036W        W13900   3.087  16.416   0.132  0.2628 -0.1093 -0.1871
13037W        W13901   2.161  17.767   1.109  0.2382  0.0734  0.0675
13038W        W13902   4.457  14.347   2.413  0.1488 -0.0688 -0.0117
13039W        W13903   2.699  17.537   1.511  0.0489 -0.1802 -0.2384
13040W        W13904   1.270  13.921   2.740  0.0944  0.1849 -0.2328
13041W        W13905   3.293  17.461   4.090  0.2397  0.1085  0.0395
13042W        W13906  28.233  14.019   0.586 -0.2226  0.0532 -0.0617
13043W        W13907   0.353  18.670   2.212 -0.0159 -0.0199  0.0235
13044W        W13908   7.470  16.927   1.789 -0.0857 -0.4008  0.2427
13045W        W13909   2.563  14.751   0.460  0.1246 -0.1789  0.0063
13046W        W13910   6.704  16.531   1.571  0.0354  0.5206 -0.1341
13047W        W13911   3.364  16.191   4.600  0.0659  0.1263 -0.1380
13048W        W13912   0.929  17.936   1.945  0.3052 -0.0523  0.0551
13049W        W13913   3.165  18.594   1.113  0.0445  0.1309 -0.2601
13050W        W13914   2.302  14.151   0.721  0.0371  0.2600 -0.0607
13051W        W13915   0.151  19.318   2.086  0.1073 -0.1323 -0.3428
13052W        W13916   0.723  13.877   0.349  0.0432  0.2585 -0.2429
13053W        W13917   2.521  12.279   4.929 -0.1622 -0.1465  0.0256
13054W        W13918   2.459  14.475   2.534  0.1646  0.0067 -0.2999
13055W        W13919   2.680  15.053   0.865 -0.0388 -0.0634 -0.0063
13056W        W13920  28.795  18.192   2.338  0.1139 -0.4107  0.2529
13057W        W13921   1.070  15.868   3.014  0.3325  0.0042 -0.0675
13058W        W13922   3.077  17.249   3.377 -0.3416 -0.3628 -0.2528
13059W        W13923   6.220  16.332   1.666 -0.2323  0.5437 -0.0842
13060W        W13924   4.493  16.100   1.641  0.1155  0.2585  0.0939
13061W        W13925   1.651  18.584   1.614  0.1626 -0.1762  0.2736
13062W        W13926  28.829  15.485  28.957  0.0848 -0.0487  0.0447
13063W        W13927   3.790  16.668   2.297 -0.2185  0.0508 -0.2779
13064W        W13928   1.682  19.118  28.268  0.0206  0.2919 -0.0809
13065W        W13929   2.144  16.243   3.232  0.2026  0.0304 -0.0461
13066W        W13930   3.718  16.725  26.374 -0.1067  0.1253  0.1719
13067W        W13931   0.833  18.795   2.810 -0.0297 -0.2987  0.0195
13068W        W13932   1.335  17.385   4.349  0.2364 -0.4165  0.1281
13069W        W13933   3.240  16.100   1.829 -0.0780  0.0582 -0.1415
13070W        W13934  28.097  14.667  28.709 -0.1461 -0.1310  0.1384
13071W        W13935   5.952  17.448   2.279 -0.3241 -0.2246  0.1107
13072W        W13936   2.400  17.711  28.701 -0.0945 -0.0177 -0.2324
13073W        W13937  28.339  17.705  28.466 -0.0212  0.1496  0.1103
13074W        W13938   1.605  18.671   2.412  0.0773  0.1741 -0.1158
13075W        W13939   3.363  19.743   3.196 -0.0822  0.0136  0.0376
13076W        W13940   3.868  16.897   1.781 -0.0555  0.1485 -0.1643
13077W        W13941   5.727  17.082   2.509 -0.2132  0.3427 -0.0100
13078W        W13942   6.603  16.921   2.398 -0.3901 -0.0127  0.1944
13079W        W13943   0.853  14.257   1.765 -0.0393 -0.2242 -0.0760
13080W        W13944   4.656  17.715   1.325 -0.2833  0.1562  0.1002
13081W        W13945  28.986  14.330   3.030 -0.2099  0.0663 -0.0796
13082W        W13946   1.175  18.396  27.890 -0.0551  0.1815  0.2751
13083W        W13947   1.186  16.950   1.490  0.0715 -0.0124 -0.3435
13084W        W13948   1.927  17.862   1.769  0.0041  0.0361 -0.0001
13085W        W13949   2.851  15.558   0.053 -0.3778 -0.1572  0.0158
13086W        W13950   1.942  14.896   1.258 -0.2434  0.0001  0.0739
13087W        W13951   0.224  16.719   1.040 -0.0354 -0.0572 -0.1791
13088W        W13952  29.042  14.883   0.687  0.2731 -0.0700 -0.0748
13089W        W13953   5.029  15.826   2.244  0.1441  0.0440  0.3364
13090W        W13954   1.795  16.393   3.569 -0.2600 -0.1031 -0.0470
13091W        W13955   3.699  15.162   0.620 -0.1069  0.0923  0.0423
13092W        W13956   3.933  16.804   1.305 -0.2507 -0.1782 -0.3895
13093W        W13957   3.697  16.200   2.023  0.0096 -0.1258  0.2672
13094W        W13958   5.212  16.739   4.901 -0.0705  0.0923  0.0769
13095W        W13959   3.857  14.571   3.251  0.1144 -0.0208 -0.0093
13096W        W13960   3.241  15.623   2.581 -0.0186  0.1515  0.1769
13097W        W13961   3.724  16.036   4.965 -0.0789  0.0289  0.2618
13098W        W13962   2.106  20.826   0.563  0.3011  0.0976 -0.1325
13099W        W13963   3.596  16.336   1.503  0.2733  0.0116  0.3276
13100W        W13964   1.907  16.357   2.317  0.1395 -0.1055 -0.1880
13101W        W13965   2.935  18.884   0.659 -0.0302 -0.1673 -0.1713
13102W        W13966   1.620  16.546   1.288  0.0933 -0.1159 -0.1981
13103W        W13967  28.070  18.896   5.176  0.1565  0.1949  0.0422
13104W        W13968   0.159  14.803  28.052 -0.0984  0.3261  0.1274
13105W        W13969   2.824  14.386   1.638 -0.0618 -0.0100 -0.0476
13106W        W13970   7.217  16.746  28.617  0.4144 -0.0027  0.0040
13107W        W13971   1.417  17.087   0.058 -0.0474  0.0682 -0.1514
13108W        W13972   5.077  16.595  27.857 -0.2465  0.1400  0.0571
13109W        W13973   4.784  16.908   1.426 -0.0624  0.2076  0.0553
13110W        W13974   5.915  16.643   2.650 -0.0690 -0.1742  0.0300
13111W        W13975   1.056  15.926   3.580  0.0165  0.0955 -0.3056
13112W        W13976   7.221  18.420   0.658  0.2947 -0.1574 -0.0576
13113W        W13977   2.947  18.657   2.472  0.2595 -0.0038 -0.0553
13114W        W13978   1.498  13.513   2.471  0.2377 -0.0050  0.2942
13115W        W13979   0.370  18.012   1.262  0.0573 -0.0258 -0.0125
13116W        W13980   2.621  17.132   3.324  0.2231 -0.1070  0.3759
13117W        W13981   4.334  18.444   0.437 -0.1456 -0.0580  0.0927
13118W        W13982   4.268  15.147   3.097  0.0376 -0.0694  0.2927
13119W        W13983   3.053  17.703   3.739 -0.1120 -0.0317 -0.1084
13120W        W13984   2.113  18.427   0.275  0.0687 -0.0430  0.0397
13121W        W13985   2.909  15.186   1.288  0.1128 -0.2589  0.3298
13122W        W13986   5.944  13.745   3.163 -0.1064  0.0244  0.0406
13123W        W13987   2.916  16.621   4.100  0.0999 -0.0097  0.2629
13124W        W13988   0.846  17.030   4.494 -0.3496 -0.1308  0.3057
13125W        W13989   0.989  17.789   0.588 -0.2285 -0.1040 -0.2586
13126W        W13990   3.414  14.980   0.125  0.6328  0.2322 -0.0829
13127W        W13991   2.316  16.171   1.815  0.1599  0.0020  0.0523
13128W        W13992   4.773  16.590   2.418  0.0549  0.1434  0.2978
13129W        W13993   3.207  15.098   0.883  0.0583 -0.2401  0.3240
13130W        W13994   2.801  15.749   2.902 -0.3784  0.2141 -0.0887
13131W        W13995   2.230  16.063   1.021 -0.2631  0.1218  0.1791
13132W        W13996   3.239  14.089   2.886 -0.2497  0.1030  0.1499
13133W        W13997   3.877  16.592   3.021 -0.2080  0.1408 -0.0116
13134W        W13998   2.426  19.983   3.208  0.2666  0.0376  0.1966
13135W        W13999   4.460  15.475   3.485 -0.4089  0.1275 -0.1416
13136W        W14000   2.696  18.919   1.934 -0.0474 -0.0411  0.0303
13137W        W14001   3.093  16.581   1.513  0.0285  0.1868 -0.0713
13138W        W14002  27.835  18.575   3.499  0.1206 -0.1586  0.1518
13139W        W14003   4.430  13.288   1.658  0.0420 -0.1601 -0.1115
13140W        W14004   4.902  15.395   3.887  0.0907  0.2534 -0.4473
13141W        W14005   0.466  17.336   2.618 -0.1946 -0.2013  0.0930
13142W        W14006   2.645  14.930   2.781 -0.0666  0.2376 -0.0761
13143W        W14007   2.663  16.899   0.675  0.0871  0.0637 -0.2174
13144W        W14008   4.847  16.523   1.766  0.3593  0.0980 -0.0429
13145W        W14009   1.357  17.842   0.124 -0.1323  0.1505 -0.1859
13146W        W14010   1.049  15.991   2.081  0.1351  0.0346 -0.0109
13147W        W14011   3.968  12.253   1.617  0.2265 -0.0382 -0.0071
13148W        W14012   0.445  18.993   2.554  0.0247  0.2063 -0.1779
13149W        W14013   2.229  16.070   0.524 -0.0686  0.0441 -0.0378
13150W        W14014   1.303  18.255   2.821 -0.0143 -0.2602  0.2184
13151W        W14015   3.882  16.778   0.498 -0.2160 -0.3102  0.1406
13152W        W14016   6.194  13.397   0.439 -0.2885  0.0655  0.5937
13153W        W14017   1.935  16.034   2.741 -0.0067 -0.2788  0.0305
13154W        W14018   1.666  19.935   2.801  0.0164  0.1361 -0.1231
13155W        W14019   2.437  17.959   1.541 -0.2205 -0.0495  0.1317
13156W        W14020   5.372  16.188   4.320  0.2097  0.2654 -0.0987
13157W        W14021   1.984  15.464   1.164 -0.1054 -0.0329  0.3197
13158W        W14022  29.001  17.080   3.084 -0.0045 -0.1346 -0.0351
13159W        W14023   3.296  16.867   2.368 -0.2750 -0.0923 -0.1309
13160W        W14024   2.962  14.796   3.770 -0.4341  0.0982 -0.1769
13161W        W14025   3.948  14.504   2.468  0.1249  0.1311 -0.2636
13162W        W14026  28.750  16.796   1.937 -0.0807 -0.0153 -0.3311
13163W        W14027   1.108  15.403   1.235 -0.0914 -0.1162  0.1430
13164W        W14028  28.211  17.204   1.446 -0.1556  0.1080  0.2126
13165W        W14029   1.597  12.867   0.952  0.3051 -0.1484  0.0669
13166W        W14030   3.874  13.671   2.239 -0.0081 -0.0481  0.1279
13167W        W14031   0.915  17.827   5.111 -0.3931  0.0832 -0.0693
13168W        W14032   2.612  15.858   5.752 -0.3538  0.0419  0.1329
13169W        W14033   2.304  14.072   1.671  0.1617 -0.1812  0.0906
13170W        W14034   2.310  14.094   2.913  0.1268 -0.3342 -0.0982
13171W        W14035   1.898  14.146   1.361  0.1235 -0.0343  0.1149
13172W        W14036   2.577  13.984   0.203 -0.1519 -0.0051  0.0509
13173W        W14037   0.717  17.415   2.153 -0.1707 -0.1749 -0.1026
13174W        W14038   3.943  18.886   5.863 -0.3403  0.1845  0.2777
13175W        W14039   1.605  19.234   2.491 -0.0670 -0.1611 -0.2400
13176W        W14040   3.641  17.206   2.270 -0.2930  0.5267 -0.2350
13177W        W14041   0.968  14.880   4.157  0.1233  0.1092 -0.0656
13178W        W14042   2.746  18.858   1.394 -0.1711  0.3087 -0.0819
13179W        W14043   3.032  15.853   0.890  0.1174  0.0541  0.2069
13180W        W14044   4.069  15.817   2.663 -0.3007 -0.3753 -0.0372
13181W        W14045   3.531  17.805   3.521 -0.1057  0.0627  0.0902
13182W        W14046  28.231  17.086   3.080 -0.0458  0.0995  0.1433
13183W        W14047  28.357  19.601   4.283 -0.1900  0.0589 -0.0516
13184W        W14048   0.312  20.134   2.663  0.1442  0.1364  0.0213
13185W        W14049   1.268  13.380   2.923  0.0504 -0.1035 -0.0044
13186W        W14050   3.344  17.494   0.454 -0.0740 -0.0870 -0.3596
13187W        W14051   3.727  17.698   0.807  0.0417 -0.0614  0.0122
13188W        W14052   2.779  14.254   0.677 -0.3286 -0.0149 -0.1498
13189W        W14053  29.088  18.371   1.927  0.1158 -0.1701 -0.0793
13190W        W14054   3.963  15.209   3.587 -0.0187  0.2915 -0.2125
13191W        W14055   2.377  14.632   0.927  0.1269  0.0401 -0.0853
13192W        W14056   3.152  16.199  27.925  0.0399  0.0317  0.1006
13193W        W14057   3.532  15.624   1.898 -0.0941  0.2183 -0.0490
13194W        W14058   0.962  17.634   3.409  0.0680 -0.3596 -0.3231
13195W        W14059   0.838  16.208   2.631 -0.0714  0.4570 -0.2989
13196W        W14060   1.926  16.603  28.981  0.2291  0.3337  0.1089
13197W        W14061   0.362  18.950   1.017 -0.2872  0.0885 -0.0777
13198W        W14062   4.804  18.112   3.470  0.5101 -0.1680 -0.2618
13199W        W14063  28.767  14.674   2.701  0.1343  0.0829 -0.1755
13200W        W14064   6.098  15.200   4.550 -0.3150 -0.0538 -0.1730
13201W        W14065   4.244  17.052   2.241  0.0208  0.0978 -0.1771
13202W        W14066   3.918  15.753   0.960  0.3671 -0.4410 -0.1413
13203W        W14067   1.613  12.981   2.222 -0.1364 -0.2627  0.3703
13204W        W14068  28.881  14.718   3.345 -0.6801  0.0935 -0.0700
13205W        W14069   2.886  13.705   2.194  0.0610  0.1147  0.0388
13206W        W14070   1.831  16.411   1.767 -0.3735 -0.0851  0.1753
13207W        W14071   5.384  16.138   0.759 -0.1978 -0.3140  0.1855
13208W        W14072   4.103  16.372  27.933 -0.0727 -0.3578 -0.1909
13209W        W14073  27.718  14.131   0.543  0.1650  0.2855 -0.4497
13210W        W14074   4.619  15.285  28.669  0.0777  0.1638 -0.2360
13211W        W14075   0.551  16.188   4.422  0.1595 -0.2375  0.0078
13212W        W14076   1.515  15.215   3.036 -0.0971 -0.0512 -0.2671
13213W        W14077   2.081  16.435   1.335 -0.4002 -0.4577 -0.1241
13214W        W14078   4.954  17.715   0.788  0.1659 -0.4396 -0.0331
13215W        W14079  27.622  18.829   0.619 -0.0338 -0.3884 -0.0657
13216W        W14080   2.676  16.811   4.492 -0.0852  0.1913  0.1335
13217W        W14081  27.425  17.317   4.740  0.0368  0.1384 -0.1135
13218W        W14082   1.873  17.411   1.919  0.5035 -0.0503 -0.3689
13219W        W14083   4.462  14.408   3.886 -0.0174  0.1421  0.0562
13220W        W14084   3.436  15.601   3.556  0.0156 -0.0072 -0.3611
13221W        W14085   2.684  16.315   0.662  0.0701  0.0410  0.0038
13222W        W14086   3.613  17.796   1.296  0.0011  0.1504 -0.1000
13223W        W14087   5.962  17.212  26.889  0.1026  0.0980 -0.2212
13224W        W14088   1.829  16.963   5.412 -0.2337 -0.0321 -0.0150
13225W        W14089   2.819  17.662   3.264  0.0305  0.1810 -0.1338
13226W        W14090   2.516  16.236   3.960  0.0597  0.0860 -0.2320
13227W        W14091   5.399  14.584   4.775  0.2474 -0.2958  0.1067
13228W        W14092  27.413  18.136   3.508  0.1994 -0.3230 -0.0285
13229W        W14093   0.914  16.832  28.889  0.1736 -0.1078  0.0227
13230W        W14094   4.011  19.046   0.659  0.0120  0.2514 -0.0696
13231W        W14095  26.414  14.612   1.910 -0.2455 -0.2772 -0.1439
13232W        W14096   3.031  15.819   3.382  0.0447  0.2819  0.1635
13233W        W14097   3.949  16.140   0.534  0.3180 -0.1012 -0.3224
13234W        W14098   2.098  16.513   0.752  0.2169 -0.0324  0.1069
13235W        W14099   1.133  15.171   0.180  0.1016  0.0153  0.1006
13236W        W14100   2.131  14.685   2.934 -0.0302  0.0871 -0.0103
13237W        W14101   0.661  20.157   3.005  0.3061 -0.1024 -0.3094
13238W        W14102   3.466  18.238   0.838 -0.0749  0.2484 -0.4039
13239W        W14103   3.085  19.132   1.678  0.1080 -0.0116  0.0870
13240W        W14104   2.001  15.731   3.263 -0.0484 -0.0574 -0.1992
13241W        W14105   3.493  18.831   1.457  0.0128 -0.2355  0.1933
13242W        W14106   2.496  16.585   1.022  0.3643 -0.1481  0.1080
13243W        W14107   0.316  13.299   2.301  0.1182  0.2305  0.3617
13244W        W14108   2.966  16.076   2.567  0.0378  0.0296  0.0671
13245W        W14109   3.572  19.431   2.420 -0.1445  0.3137 -0.2261
13246W        W14110   4.045  17.053   0.050  0.0814  0.0948  0.1475
13247W        W14111   0.229  19.404   5.055 -0.3335 -0.1874  0.0575
13248W        W14112  28.924  16.067   0.974 -0.0470 -0.2429  0.1482
13249W        W14113  28.278  15.212  28.716  0.0355  0.3525 -0.1956
13250W        W14114   5.801  16.400   3.094  0.1286 -0.1679 -0.1429
13251W        W14115   1.300  18.776  28.193  0.2129 -0.0481  0.2561
13252W        W14116   4.337  17.058   4.675  0.2033 -0.1638  0.0175
13253W        W14117   3.123  17.340   4.936 -0.1351 -0.0355  0.2494
13254W        W14118   3.627  19.045   1.915  0.4407 -0.0120 -0.0737
13255W        W14119   2.996  16.652   2.061  0.0814 -0.2146 -0.0309
13256W        W14120   2.442  19.037   3.216 -0.1192 -0.0684  0.0566
13257W        W14121  28.540  20.796   1.363  0.2365 -0.1075  0.2867
13258W        W14122   0.413  17.261   4.653 -0.0420  0.2759 -0.1571
13259W        W14123   1.672  13.057   3.000  0.1571 -0.1852  0.1239
13260W        W14124   0.319  16.612   0.521 -0.1026  0.0315 -0.0524
13261W        W14125   4.079  17.615   2.400  0.4096  0.0734  0.0935
13262W        W14126   3.612  13.651   1.726 -0.3982 -0.2104 -0.0007
13263W        W14127   2.655  14.623   4.249 -0.1448 -0.5276  0.0441
13264W        W14128   4.113  15.739   1.674 -0.1096  0.2997 -0.0887
13265W        W14129   4.069  15.259   2.581 -0.0305  0.1763 -0.0074
13266W        W14130   0.980  14.624   0.843 -0.0105 -0.4183 -0.0525
13267W        W14131   3.064  17.849   1.378 -0.3425 -0.0792  0.0623
13268W        W14132   3.289  16.623   2.850  0.2561 -0.1353 -0.0378
13269W        W14133   1.684  18.224  28.918  0.0926 -0.2340  0.2389
13270W        W14134  28.239  17.833   3.569 -0.0569 -0.0600 -0.1463
13271W        W14135  26.952  16.087   2.303  0.0549  0.1944  0.4806
13272W        W14136  28.841  17.128  27.922  0.0973 -0.2956 -0.0893
13273W        W14137   6.350  15.899   3.646 -0.3094 -0.0642 -0.3995
13274W        W14138   3.259  14.495   4.084  0.0182 -0.1492  0.0177
13275W        W14139   3.965  16.109  28.776  0.3529 -0.1444 -0.0472
13276W        W14140   2.111  19.106   0.869  0.0007 -0.1276 -0.5057
13277W        W14141   4.342  15.203   3.911 -0.2322 -0.1416  0.0377
13278W        W14142   1.894  14.956   3.257 -0.3427  0.1092 -0.2761
13279W        W14143   0.551  16.816   2.673  0.0714 -0.2472  0.3832
13280W        W14144   3.318  18.467   3.193 -0.2380 -0.0366  0.1632
13281W        W14145   3.904  15.749   3.714 -0.0083  0.1277  0.2174
13282W        W14146   3.371  14.501   1.957 -0.0545 -0.0066 -0.1196
13283W        W14147   3.385  14.745   3.148 -0.2987 -0.0274  0.1207
13284W        W14148   4.178  16.021  26.539 -0.1812 -0.2382 -0.4074
13285W        W14149  27.855  17.561  28.536  0.3026  0.2639 -0.0261
13286W        W14150   2.637  16.563   1.686 -0.0724  0.1538 -0.2454
13287W        W14151   0.421  14.174   0.606  0.2022  0.0509 -0.0219
13288W        W14152   1.003  15.963   1.540  0.0899 -0.2045 -0.0869
13289W        W14153  28.017  21.822   3.094 -0.2258 -0.1662 -0.2596
13290W        W14154   4.091  16.602  27.438 -0.0101  0.0744 -0.2394
13291W        W14155   2.539  13.872   5.187 -0.1018 -0.0918 -0.1027
13292W        W14156   4.500  17.464   2.122 -0.1478 -0.2739  0.1850
13293W        W14157   0.324  17.123   3.071  0.0993 -0.1716  0.1323
13294W        W14158   5.171  17.024   1.788  0.2482  0.2267 -0.3511
13295W        W14159   6.339  16.394  28.428  0.1078  0.1606  0.0123
13296W        W14160   1.990  13.257   0.238 -0.0157  0.0158 -0.2682
13297W        W14161   3.294  16.031  28.380 -0.1092 -0.1442  0.0193
13298W        W14162   1.342  14.217   2.301  0.1099 -0.0579  0.1220
13299W        W14163   2.520  15.593   2.449  0.1767 -0.3808  0.0334
13300W        W14164   1.895  19.024   1.310  0.2810 -0.1452  0.1900
13301W        W14165   3.610  15.851   2.370 -0.1848 -0.1485  0.1023
13302W        W14166   5.196  15.053   2.797  0.0813  0.1046 -0.2448
13303W        W14167   5.435  18.078   2.542 -0.4348 -0.1750 -0.1053
13304W        W14168   4.172  15.282   1.312 -0.0362 -0.2766 -0.0971
13305W        W14169   0.356  18.467   1.075 -0.0656 -0.1217  0.0277
13306W        W14170   0.865  17.267   0.754  0.2261 -0.0211  0.0136
13307W        W14171  26.394  15.218   2.075  0.0304 -0.1109  0.2204
13308W        W14172   2.492  17.468   3.659 -0.1954  0.2378 -0.2761
13309W        W14173   4.488  16.140   2.636 -0.0969 -0.0403  0.0086
13310W        W14174   3.508  16.175   2.719  0.1329  0.1139  0.1349
13311W        W14175   5.334  16.599   1.747 -0.1003  0.1328  0.3123
13312W        W14176   3.409  20.848   3.714  0.1179 -0.0138  0.3676
13313W        W14177   1.642  14.889   1.775 -0.2224 -0.0306 -0.3251
13314W        W14178   2.929  15.644   2.210  0.2310 -0.0327 -0.0279
13315W        W14179   0.325  16.389   2.549  0.1715  0.4718  0.0784
13316W        W14180   2.157  14.962   1.744 -0.1584  0.2487  0.2899
13317W        W14181   0.382  17.126   1.733  0.1286  0.2376 -0.3027
13318W        W14182   2.637  14.212   1.175  0.0646 -0.1994  0.0715
13319W        W14183   3.081  16.276   3.639 -0.0190 -0.3760 -0.0608
13320W        W14184  28.747  19.295   3.583 -0.2265 -0.0247 -0.0917
13321W        W14185   1.760  16.757   3.933  0.0581 -0.3121  0.1118
13322W        W14186   3.962  15.557   0.492  0.1185 -0.0726 -0.2360
13323W        W14187   5.602  16.676   2.265  0.2649 -0.0821  0.0349
13324W        W14188   5.847  16.960   4.953 -0.1182  0.1599 -0.1860
13325W        W14189   2.688  14.485  28.746  0.0099  0.3580  0.0799
13326W        W14190  27.512  16.268   3.075  0.1160 -0.3028  0.1047
13327W        W14191   3.011  18.958  28.422 -0.1703 -0.2793 -0.4063
13328W        W14192   2.182  16.568   2.682 -0.0467 -0.3104 -0.0227
13329W        W14193   3.020  16.779   3.382  0.0775  0.0636 -0.0963
13330W        W14194   0.477  18.107   1.983  0.0658  0.0304 -0.2689
13331W        W14195   4.336  15.955   3.428 -0.2381  0.0643 -0.0112
13332W        W14196   0.497  14.438   2.077 -0.3119  0.0492 -0.1233
13333W        W14197   0.843  16.513   0.341  0.3195 -0.0403 -0.1019
13334W        W14198   3.143  16.679   0.603 -0.3855 -0.0271 -0.0815
13335W        W14199   3.999  16.299   2.648 -0.0269 -0.1947  0.1512
13336W        W14200   3.372  11.959   2.390  0.0535 -0.1713  0.0921
13337W        W14201   3.739  13.016   0.543 -0.0631  0.0016 -0.0485
13338W        W14202   3.249  18.231   3.677  0.1927 -0.1513 -0.1532
13339W        W14203   2.373  17.613   1.909  0.1907 -0.1187  0.1115
13340W        W14204   4.735  16.869   3.905 -0.1531 -0.0867  0.0668
13341W        W14205   4.418  15.609   2.981  0.1418 -0.4939 -0.0242
13342W        W14206   1.455  17.866   2.025 -0.1696  0.0976 -0.0184
13343W        W14207   5.878  16.217   0.846  0.0558  0.0988 -0.4761
13344W        W14208   2.889  15.809   1.677  0.0992 -0.0834 -0.0467
13345W        W14209   1.537  14.970   0.011 -0.0683  0.1280 -0.2293
13346W        W14210   1.794  20.089   2.321 -0.1564 -0.1266  0.0283
13347W        W14211   2.215  16.843   1.660 -0.0348 -0.2672  0.1221
13348W        W14212   0.348  12.392   1.163  0.3054 -0.0327  0.1813
13349W        W14213   1.290  20.688   0.261  0.0031  0.3334 -0.0484
13350W        W14214   3.635  16.192   0.028  0.2083 -0.1569  0.3022
13351W        W14215   1.452  18.962   2.850 -0.0503 -0.4409  0.1824
13352W        W14216   2.302  18.583   2.142 -0.0236 -0.2861  0.0224
13353W        W14217   0.203  13.467   1.142  0.0985  0.3601 -0.2335
13354W        W14218   3.488  16.434   3.320 -0.1118 -0.0648  0.1371
13355W        W14219   2.040  15.459   1.660  0.4127  0.0294 -0.1917
13356W        W14220   2.557  18.340   2.554  0.0399  0.1207 -0.3343
13357W        W14221   3.470  15.526  27.090 -0.2055  0.0949 -0.0935
13358W        W14222   4.570  17.688   2.544  0.1123 -0.1727  0.2255
13359W        W14223   1.900  17.821   2.766  0.1261  0.2473 -0.1903
13360W        W14224   2.256  18.247   1.162  0.0269 -0.0549 -0.0253
13361W        W14225   4.020  17.241  28.291  0.0118  0.1017  0.0207
13362W        W14226   0.457  17.964   3.328 -0.2673 -0.4222 -0.0943
13363W        W14227   0.446  13.767   3.179  0.0287 -0.2938 -0.2207
13364W        W14228  27.020  15.873   5.274  0.3375 -0.0467  0.0689
13365W        W14229   1.229  17.417   0.367  0.2597  0.1517  0.0742
13366W        W14230   1.165  15.504   1.705  0.1848 -0.0463 -0.3103
13367W        W14231   3.900  16.049   3.077 -0.1574  0.0593 -0.1376
13368W        W14232   2.735  17.439   4.127 -0.0231  0.0437  0.1159
13369W        W14233   4.294  12.534   1.347  0.0764  0.0237  0.2157
13370W        W14234   1.021  18.092   2.417  0.0390  0.1802 -0.0658
13371W        W14235   2.218  17.457   1.450  0.0553  0.1593  0.1461
13372W        W14236   1.618  18.927   0.866  0.0647 -0.1472 -0.3075
13373W        W14237   1.300  16.745   3.045  0.0646  0.0234  0.0922
13374W        W14238   2.348  12.888  28.038 -0.1134 -0.0601 -0.2769
13375W        W14239   3.800  15.408   0.074  0.1695  0.0222  0.1926
13376W        W14240   2.591  15.732   0.567 -0.2847  0.2454 -0.1985
13377W        W14241   2.939  15.144  28.927 -0.0689 -0.2505  0.3419
13378W        W14242   4.673  16.634  28.247  0.3591 -0.2481  0.1277
13379W        W14243   2.840  15.921   4.757  0.1999 -0.1057 -0.0329
13380W        W14244   4.086  17.697   0.140 -0.0966 -0.0458  0.0711
13381W        W14245   1.983  15.904   1.455  0.2009 -0.0106  0.0059
13382W        W14246   2.660  15.577   1.031  0.0915  0.2142  0.1591
13383W        W14247   4.672  16.185   2.060 -0.1814  0.1606  0.0999
13384W        W14248   3.906  14.764   4.662 -0.0683 -0.3581 -0.0679
13385W        W14249   1.825  13.985   0.797 -0.4956 -0.2631  0.0568
13386W        W14250   2.651  15.619   4.384  0.1910 -0.3527 -0.1108
13387W        W14251  27.862  17.354   0.998  0.0755 -0.0066  0.1926
13388W        W14252   2.824  17.033   2.470 -0.1523  0.2632  0.2605
13389W        W14253   1.841  17.878   3.274  0.1328  0.0524  0.1456
13390W        W14254   1.847  19.450   4.357  0.1704 -0.0838  0.0903
13391W        W14255   2.932  14.944   3.217 -0.0132  0.1849 -0.1269
13392W        W14256   0.851  18.611   0.783  0.0193  0.2606 -0.1356
13393W        W14257   0.285  16.679   5.703 -0.2437 -0.0998 -0.3411
13394W        W14258   2.760  20.101   2.480  0.0631 -0.3124 -0.0658
13395W        W14259  28.576  17.824   1.991  0.0566 -0.0953  0.0264
13396W        W14260   2.728  17.877   4.663  0.1580  0.0940  0.1125
13397W        W14261   0.596  18.882   1.820 -0.0932  0.0270  0.3483
13398W        W14262   2.917  15.338   3.529  0.0665 -0.0542  0.1012
13399W        W14263   4.159  15.233   4.651  0.2952  0.1483 -0.6281
13400W        W14264   0.536  22.225   1.911  0.1103 -0.3646 -0.0546
13401W        W14265   0.330  13.339   3.416  0.3600 -0.0877 -0.1962
13402W        W14266   2.528  19.403   4.358 -0.0148  0.0539 -0.0369
13403W        W14267   1.823  18.301   2.048 -0.0638  0.1123  0.1518
13404W        W14268   4.142  17.415  27.816 -0.4514  0.1486  0.1041
13405W        W14269  28.866  15.941   1.593  0.1892  0.0256  0.2770
13406W        W14270   1.088  18.160   7.293  0.2451  0.3066  0.0189
13407W        W14271   1.350  16.629   8.791  0.0274  0.1275 -0.0743
13408W        W14272   2.669  18.862   5.218 -0.2056 -0.0316  0.1283
13409W        W14273   2.580  18.550   5.804  0.1448 -0.0047 -0.3335
13410W        W14274   3.044  14.932   4.405 -0.0884  0.1311 -0.3523
13411W        W14275   2.215  14.860   5.532 -0.0118 -0.0354  0.1170
13412W        W14276   1.486  14.872   3.913 -0.2154 -0.2423  0.3188
13413W        W14277   2.125  17.078   5.030 -0.0860 -0.0035 -0.0391
13414W        W14278   1.384  17.676   4.854  0.0598 -0.0630  0.2654
13415W        W14279   2.173  17.959   7.435 -0.1463  0.1414  0.0404
13416W        W14280  29.021  12.633   5.349  0.2694 -0.0912 -0.1181
13417W        W14281   1.457  16.334   4.838  0.2177  0.0060 -0.0961
13418W        W14282   1.246  15.826   3.995 -0.0793  0.1926 -0.1266
13419W        W14283   2.780  15.908   6.837  0.0174 -0.0597 -0.1813
13420W        W14284   0.226  16.264   5.422 -0.0365 -0.0951  0.2162
13421W        W14285   1.204  15.667   7.988  0.1788  0.0703 -0.0793
13422W        W14286   0.701  15.421   3.377 -0.0452 -0.5607 -0.4966
13423W        W14287  28.164  15.342   9.211 -0.0863  0.1372  0.1174
13424W        W14288   1.976  17.322   6.686  0.1617 -0.1406 -0.1400
13425W        W14289   1.489  18.060   6.656 -0.1024  0.1239 -0.0833
13426W        W14290   2.307  16.305   6.814 -0.0392  0.0590 -0.2163
13427W        W14291   0.267  16.457   6.286  0.2016 -0.2150  0.0973
13428W        W14292   4.365  18.813   5.082 -0.0985 -0.1395 -0.1013
13429W        W14293   0.713  18.102   6.868  0.3404  0.0793  0.0240
13430W        W14294   1.332  15.570   4.397  0.1638  0.3313 -0.0498
13431W        W14295   2.358  17.734   6.173  0.0128  0.1202 -0.0732
13432W        W14296   2.811  18.299   1.319  0.0479  0.0311 -0.0632
13433W        W14297   2.669  15.369   7.112 -0.0730 -0.0697  0.0212
13434W        W14298  28.887  18.706   4.424  0.0799 -0.3698  0.1988
13435W        W14299   0.479  16.227   6.754  0.2174  0.2276 -0.1031
13436W        W14300   0.811  18.236   5.314  0.0019  0.1634 -0.0848
13437W        W14301   5.007  16.301   7.916 -0.0769 -0.1966  0.0497
13438W        W14302   4.281  17.277   6.989 -0.1090  0.0614 -0.0172
13439W        W14303   0.728  17.294   5.096  0.0333  0.0661 -0.1759
13440W        W14304   2.004  19.688   8.889  0.2323  0.0281  0.0143
13441W        W14305   1.350  17.752   8.491 -0.2392  0.1536  0.1372
13442W        W14306   0.073  16.078   1.959 -0.3758  0.1423 -0.0645
13443W        W14307  28.197  16.816   2.629  0.1313 -0.2425  0.0416
13444W        W14308   2.480  17.588   2.907  0.3128  0.0814 -0.0194
13445W        W14309   3.518  12.519   4.838  0.0340 -0.0632 -0.0084
13446W        W14310   2.178  13.648   4.766  0.4076 -0.1613  0.2998
13447W        W14311   4.223  13.306   9.310 -0.2614 -0.0180 -0.2178
13448W        W14312   1.830  17.957   6.248 -0.3182 -0.0005 -0.1160
13449W        W14313   3.494  17.657   5.008 -0.0605 -0.1239  0.3144
13450W        W14314  28.726  20.034   4.701  0.2131  0.0015  0.0565
13451W        W14315   3.433  16.625   1.871  0.0422 -0.1380  0.1460
13452W        W14316  28.334  14.562   4.869  0.3763 -0.0059 -0.3179
13453W        W14317   6.194  15.541   5.816  0.0901 -0.0815  0.3657
13454W        W14318   2.260  17.591   4.949  0.4438  0.1572 -0.2031
13455W        W14319   2.965  15.347   4.043  0.2260 -0.2141  0.0463
13456W        W14320   3.977  17.519   3.408  0.0249 -0.0067  0.1287
13457W        W14321   1.006  12.238   6.710 -0.1818  0.0307  0.2166
13458W        W14322   0.283  17.774   7.153 -0.0578 -0.2521 -0.2841
13459W        W14323   2.577  16.458   5.887  0.0802  0.1033  0.0405
13460W        W14324   3.640  14.106   3.286  0.4221 -0.0508 -0.3158
13461W        W14325   2.157  17.477   3.250  0.1746  0.0778 -0.0787
13462W        W14326   2.200  15.934   4.224  0.0135  0.0469  0.0777
13463W        W14327   2.130  15.035   6.001  0.2597 -0.4645  0.0579
13464W        W14328   1.897  14.600   7.010  0.3152  0.0037 -0.3919
13465W        W14329  28.095  17.669   4.014 -0.2745 -0.0489  0.0281
13466W        W14330   3.921  15.433   4.159 -0.2059  0.2679  0.0402
13467W        W14331  28.832  19.157   6.048 -0.0011 -0.2831  0.1612
13468W        W14332   0.904  17.454   5.612 -0.0964 -0.0434  0.0790
13469W        W14333   2.296  17.927   5.520 -0.0298 -0.0142  0.2124
13470W        W14334   1.295  17.233   6.217  0.2557 -0.2225 -0.2780
13471W        W14335   3.049  15.404   6.727  0.0367  0.0126  0.0369
13472W        W14336   2.826  16.109   2.095 -0.0313 -0.0486  0.3947
13473W        W14337   0.818  15.296   2.874  0.1201 -0.1911 -0.0853
13474W        W14338   2.772  18.196   5.453  0.2209 -0.0288 -0.0629
13475W        W14339   1.842  17.916   4.954 -0.2151  0.2997  0.0030
13476W        W14340   5.307  18.819   7.925 -0.3354 -0.0910  0.1058
13477W        W14341   4.196  13.871   4.924  0.1364  0.0682  0.0819
13478W        W14342   3.541  16.587   6.411 -0.0386 -0.0383  0.0201
13479W        W14343   4.058  16.847   4.992 -0.2879 -0.1736  0.2120
13480W        W14344   5.234  18.381   3.862  0.1680 -0.3044  0.1037
13481W        W14345   1.640  19.187   7.930  0.3132 -0.0740  0.2397
13482W        W14346   1.078  17.674   1.558 -0.1514  0.1677 -0.0055
13483W        W14347   1.376  18.772   6.712 -0.1269 -0.1482  0.2415
13484W        W14348   3.883  18.626   5.376  0.0872 -0.1063 -0.1861
13485W        W14349   4.688  17.517   4.115  0.1904  0.1971 -0.0921
13486W        W14350  28.735  15.604   9.279 -0.3425  0.0685 -0.1628
13487W        W14351   1.724  14.782   7.826 -0.2587  0.0935  0.2925
13488W        W14352  29.065  15.101   3.143  0.2002 -0.0640 -0.0116
13489W        W14353   2.530  15.281   8.871  0.1757  0.0466  0.0610
13490W        W14354   2.503  13.548   8.280 -0.0927  0.0860  0.1142
13491W        W14355   2.642  16.784   3.743  0.2727 -0.3563  0.0168
13492W        W14356   3.295  16.129   6.867  0.3233  0.0253  0.0122
13493W        W14357   2.302  16.998   9.301  0.0590 -0.1067  0.3586
13494W        W14358   4.899  18.310   4.793  0.0495  0.1415 -0.0419
13495W        W14359   4.158  17.198   7.747  0.2481 -0.3108  0.1374
13496W        W14360   2.128  12.782   3.818 -0.2546  0.1518 -0.3800
13497W        W14361   2.692  17.817  11.028  0.0681  0.3001 -0.1016
13498W        W14362   0.502  17.794   5.359 -0.2594  0.2454  0.0835
13499W        W14363   1.342  14.374   1.785 -0.1801  0.0206 -0.0583
13500W        W14364   1.536  16.503   7.070 -0.0340 -0.1319 -0.1439
13501W        W14365   2.584  12.911   6.138 -0.0091 -0.0134  0.6534
13502W        W14366   2.353  14.282   4.076  0.1214 -0.1885  0.0064
13503W        W14367   2.393  19.513   5.923  0.1874 -0.1079 -0.2497
13504W        W14368  27.769  15.862   4.196 -0.0955 -0.0803  0.1011
13505W        W14369   5.186  14.009   6.460  0.1024 -0.0502 -0.0631
13506W        W14370   3.831  17.533   3.975  0.0936  0.1270 -0.0468
13507W        W14371   1.996  16.471   7.226  0.0503  0.0104 -0.0877
13508W        W14372   3.171  14.940   6.744  0.0019 -0.3252  0.2259
13509W        W14373   5.469  16.119   7.601  0.0230  0.0831 -0.1856
13510W        W14374   4.658  15.383   8.278  0.1086  0.0636  0.0637
13511W        W14375   1.801  14.188   7.942  0.1165 -0.0241 -0.0455
13512W        W14376   1.068  17.900   4.329 -0.0424  0.1790  0.0223
13513W        W14377   2.201  16.893   7.367 -0.0811  0.0278 -0.2966
13514W        W14378  29.062  16.163   2.763 -0.0736 -0.1863  0.0406
13515W        W14379  28.829  16.421   5.517  0.0437 -0.0882  0.1044
13516W        W14380   2.649  17.754   7.932  0.1536  0.4013 -0.1373
13517W        W14381   2.345  18.198   7.000 -0.3765  0.2984 -0.1176
13518W        W14382   1.575  16.719   6.245  0.2973 -0.0369  0.0120
13519W        W14383   2.337  19.939   6.133  0.1097  0.0678  0.5095
13520W        W14384   5.623  16.520   3.907  0.1882 -0.2391 -0.0977
13521W        W14385   3.300  16.332   2.290 -0.1292  0.0011  0.0314
13522W        W14386   3.794  12.950   8.986 -0.1810 -0.2200  0.1227
13523W        W14387   3.602  18.532   6.209 -0.0836 -0.2717 -0.3135
13524W        W14388   1.989  15.374   7.755  0.2571 -0.0646  0.1507
13525W        W14389   3.095  18.063   4.929 -0.1785  0.1946  0.2483
13526W        W14390   5.518  17.808   3.880  0.0667 -0.0081 -0.1223
13527W        W14391  28.333  18.369   4.472 -0.1228 -0.2251 -0.1628
13528W        W14392   2.630  15.272   6.413 -0.1679 -0.1689  0.0487
13529W        W14393   1.064  17.689   3.903  0.0677  0.2626 -0.0570
13530W        W14394   2.255  18.849   4.948  0.4329 -0.5086  0.0153
13531W        W14395   2.623  13.980   7.683  0.1933  0.2211 -0.0672
13532W        W14396   0.817  14.811   5.874  0.1202  0.0255  0.2261
13533W        W14397   3.064  15.824   5.902  0.1593  0.2374  0.1225
13534W        W14398   4.873  16.818   3.402 -0.2540  0.0925 -0.0638
13535W        W14399   3.041  17.061   3.861  0.0837  0.1502  0.4028
13536W        W14400   5.898  19.651   9.812 -0.2047  0.1350 -0.0415
13537W        W14401   1.258  13.834   7.305  0.5622  0.2043 -0.1428
13538W        W14402   0.644  18.349   7.384 -0.0608  0.1242  0.0465
13539W        W14403   7.031  13.793   6.376 -0.0177  0.4275 -0.0275
13540W        W14404   4.085  17.968   5.800 -0.0471 -0.3015  0.1536
13541W        W14405   1.259  15.119   4.528  0.2285  0.3318  0.0033
13542W        W14406   3.610  16.553   5.862  0.0967 -0.2277  0.4499
13543W        W14407   2.919  15.503   7.570  0.0390 -0.0813  0.0960
13544W        W14408   3.954  17.854   4.868  0.0265 -0.0073 -0.1030
13545W        W14409   0.545  19.339   5.424 -0.1962 -0.0655 -0.1368
13546W        W14410   0.814  14.902   4.865 -0.0259  0.0070 -0.0166
13547W        W14411   0.942  15.862   5.636  0.1797 -0.1737 -0.2947
13548W        W14412   0.476  18.903   4.369 -0.1329 -0.0398 -0.2677
13549W        W14413   2.125  15.264   4.560  0.2871  0.1897 -0.0392
13550W        W14414   1.400  18.878   8.440  0.0537 -0.1314  0.0293
13551W        W14415   2.584  13.299   7.321  0.1195 -0.1650 -0.1284
13552W        W14416   1.949  15.967   6.550 -0.1287 -0.2036  0.2435
13553W        W14417   0.173  18.954   4.801  0.1844  0.0204 -0.0285
13554W        W14418   0.206  19.147   7.958 -0.0589  0.1021 -0.1022
13555W        W14419  27.949  16.804   5.673  0.0322  0.1257 -0.0723
13556W        W14420   3.206  17.424   7.523 -0.2085 -0.0020 -0.0146
13557W        W14421   1.815  13.005   7.931 -0.1664 -0.1520 -0.1747
13558W        W14422  28.615  17.547   7.192  0.0987 -0.2820 -0.0260
13559W        W14423   1.700  18.349   0.514 -0.1073 -0.0587 -0.1190
13560W        W14424   2.308  17.074   5.521 -0.0437  0.2021  0.4694
13561W        W14425   3.161  13.053   7.039 -0.3611 -0.0981 -0.1450
13562W        W14426   1.132  17.871   6.927 -0.2209  0.2201 -0.1088
13563W        W14427   1.196  14.945   2.705  0.1953 -0.0417 -0.1288
13564W        W14428   0.952  14.508   4.619 -0.2119 -0.1299 -0.3530
13565W        W14429   4.151  13.893   7.164  0.2734 -0.0683 -0.1157
13566W        W14430   4.158  14.730   6.111  0.0582 -0.0711 -0.0961
13567W        W14431   2.693  17.000   5.986  0.0126  0.0594 -0.2826
13568W        W14432   2.643  17.078   8.949  0.1912  0.2128 -0.1236
13569W        W14433   3.909  16.217   6.194 -0.2110  0.2850 -0.0455
13570W        W14434   1.769  15.900   8.631  0.0472  0.0304  0.2297
13571W        W14435   2.584  14.780   5.908 -0.1933  0.0276  0.0921
13572W        W14436   3.120  15.185   2.197 -0.1934 -0.0294  0.0838
13573W        W14437  29.122  17.142   2.544  0.1694  0.1867  0.0381
13574W        W14438   3.438  16.854   8.387 -0.1440  0.0226 -0.2507
13575W        W14439   1.781  17.390   3.560 -0.0253  0.2543  0.1038
13576W        W14440   1.279  17.742   7.466 -0.0304  0.1654 -0.2292
13577W        W14441   3.261  20.099   6.769  0.2226  0.0416  0.0265
13578W        W14442   2.276  16.547   6.360 -0.0189  0.0437  0.0339
13579W        W14443   1.738  18.468   2.868  0.2659 -0.1585 -0.0056
13580W        W14444   2.006  17.807   3.804  0.3410 -0.1792  0.0071
13581W        W14445   2.727  14.749   5.425  0.1047 -0.0996 -0.2021
13582W        W14446   2.469  17.385   8.200  0.3921 -0.1991 -0.0826
13583W        W14447   0.306  18.482   4.607  0.2130  0.0957 -0.1753
13584W        W14448   4.447  16.468   4.788 -0.2899 -0.0729 -0.0457
13585W        W14449   4.671  14.048   6.477  0.0201  0.3414 -0.1160
13586W        W14450   1.230  18.213   5.102  0.3390  0.0426 -0.0536
13587W        W14451   4.633  18.355   2.090 -0.0556  0.0407  0.1818
13588W        W14452   4.485  18.389   5.441  0.0124 -0.2363  0.1139
13589W        W14453   5.049  14.239   4.636  0.0833 -0.0766  0.0131
13590W        W14454   2.524  13.510   5.571 -0.1113  0.1569 -0.2228
13591W        W14455   3.584  15.772   7.060 -0.0806  0.2580 -0.3217
13592W        W14456   2.580  15.092   4.365 -0.2345 -0.0426  0.0532
13593W        W14457   2.406  13.276   4.542  0.1857 -0.1370 -0.0889
13594W        W14458   3.979  19.748   7.180  0.0198  0.3790 -0.0924
13595W        W14459  29.108  19.168   4.410 -0.0625  0.1090  0.1593
13596W        W14460   2.596  15.104   3.865  0.0899 -0.0652  0.1200
13597W        W14461   2.019  18.431   3.313  0.0610  0.0264  0.0482
13598W        W14462  28.682  19.433   7.014 -0.3399  0.2813  0.3607
13599W        W14463   1.282  14.658   5.382  0.0829  0.0454  0.4172
13600W        W14464   3.045  11.940   5.221  0.1872 -0.0151  0.0297
13601W        W14465   0.456  16.794   3.394 -0.0563 -0.0885 -0.1649
13602W        W14466   2.841  13.199   5.135  0.0297 -0.4387  0.0888
13603W        W14467  27.371  14.307   6.326 -0.0380  0.0494  0.0335
13604W        W14468   2.697  17.679   5.147  0.1336  0.1694 -0.0526
13605W        W14469   2.160  14.427   5.828 -0.1413 -0.0310 -0.0625
13606W        W14470   0.764  16.584   2.301  0.0723  0.3003 -0.0714
13607W        W14471   3.694  16.107   6.610 -0.2193 -0.0742 -0.1219
13608W        W14472   4.311  14.859   2.684  0.1380  0.0567  0.0222
13609W        W14473  28.927  16.127   6.394 -0.2266 -0.1118 -0.1413
13610W        W14474   3.081  12.802   6.024  0.2934  0.0166  0.2502
13611W        W14475   1.928  18.093   0.796 -0.3508 -0.3536 -0.2035
13612W        W14476   0.384  16.705   4.412 -0.2388 -0.0017  0.0931
13613W        W14477   1.982  17.458   5.411 -0.2446  0.0958  0.0967
13614W        W14478   2.241  15.776   4.716 -0.2310  0.1606 -0.1163
13615W        W14479   2.815  16.688   2.898  0.1497 -0.1569 -0.1376
13616W        W14480   0.216  15.249   7.461 -0.2845 -0.0765  0.3314
13617W        W14481   3.895  14.320   7.012 -0.0670 -0.1747 -0.0582
13618W        W14482   0.954  17.901   6.428  0.0442 -0.0713 -0.2089
13619W        W14483   3.366  15.757   7.716 -0.0156 -0.1006  0.0566
13620W        W14484   2.579  17.557   5.758  0.2408 -0.0331  0.0826
13621W        W14485   5.386  17.141   4.611 -0.0669 -0.1912  0.1304
13622W        W14486   2.762  18.423   4.999 -0.1895  0.0812  0.0838
13623W        W14487   0.923  17.517   2.638  0.0017  0.0663  0.2699
13624W        W14488   3.827  15.164   8.886  0.1291 -0.3579 -0.2221
13625W        W14489   2.055  16.284   8.013  0.2099 -0.0708 -0.0657
13626W        W14490   1.841  18.332   9.036 -0.0271 -0.1217  0.3632
13627W        W14491   3.871  14.431   4.236  0.0987  0.3940 -0.2832
13628W        W14492   1.126  20.589   7.626 -0.3327  0.1280 -0.0093
13629W        W14493   2.648  13.473   3.407  0.1400 -0.0087  0.0663
13630W        W14494   1.069  19.317   5.221 -0.1586 -0.1656 -0.1969
13631W        W14495   2.194  15.942   7.656 -0.0079 -0.0487 -0.2795
13632W        W14496   0.476  19.897   6.796 -0.3189  0.2207 -0.0143
13633W        W14497   4.375  13.548   6.704  0.1318  0.3223 -0.2905
13634W        W14498   5.147  19.438   3.557 -0.0466 -0.1524 -0.0523
13635W        W14499   4.220  18.063   4.489 -0.0212 -0.0877  0.1875
13636W        W14500   0.473  15.134   6.734  0.0716  0.0656  0.2617
13637W        W14501   2.435  12.455   7.601 -0.1672  0.0204 -0.2934
13638W        W14502   3.042  16.723   6.306 -0.0232 -0.2278 -0.1585
13639W        W14503   0.852  15.198   2.390 -0.1835  0.0774  0.0475
13640W        W14504  26.239  11.621   7.128 -0.1876 -0.1009  0.0192
13641W        W14505   2.734  18.447   3.876 -0.0856  0.0843  0.1450
13642W        W14506   2.678  16.214   6.291  0.1098 -0.0612 -0.0215
13643W        W14507   1.395  14.607   4.348  0.5220  0.2445  0.3014
13644W        W14508   4.954  18.472   7.797 -0.0236  0.0986  0.1069
13645W        W14509   1.480  18.096   4.587  0.1645 -0.3507  0.0101
13646W        W14510  27.662  18.165   5.643  0.0276  0.2254 -0.0508
13647W        W14511   0.513  18.762   8.761 -0.2719 -0.0845  0.0174
13648W        W14512   1.724  17.037   5.922 -0.0703  0.2897 -0.1234
13649W        W14513   0.559  13.467   5.281 -0.1432 -0.2440 -0.0508
13650W        W14514   2.789  16.730   5.524 -0.0322 -0.2428  0.0593
13651W        W14515   1.459  14.681   7.331 -0.0523  0.1892  0.1414
13652W        W14516   4.527  15.764   7.431  0.1645  0.0040 -0.0476
13653W        W14517   2.307  16.478   7.595  0.0834 -0.0094  0.2427
13654W        W14518   2.126  18.732   4.179 -0.1226 -0.3377 -0.1955
13655W        W14519   1.365  15.499   5.386 -0.4559 -0.1990 -0.0475
13656W        W14520   0.791  16.328   3.581 -0.1490 -0.0038 -0.0283
13657W        W14521   2.156  18.202   5.942 -0.1613  0.2111 -0.0638
13658W        W14522   5.694  19.303   7.593 -0.1475 -0.0384 -0.0479
13659W        W14523   3.330  19.368   2.852 -0.1631  0.0372  0.0409
13660W        W14524   3.424  16.942   4.138  0.3046  0.0169 -0.1329
13661W        W14525   2.976  17.643   2.793 -0.1998  0.1771 -0.0205
13662W        W14526   4.035  16.428   1.710 -0.0170  0.0343 -0.0841
13663W        W14527   0.931  16.997   7.411  0.1179  0.0246  0.1726
13664W        W14528   4.045  17.282   4.320  0.1650 -0.2320 -0.4058
13665W        W14529   2.617  17.218   4.839 -0.2897 -0.1096 -0.1601
13666W        W14530  28.983  15.200   4.676  0.1543  0.2428  0.0086
13667W        W14531   2.237  17.449   7.382 -0.0753 -0.2851  0.1571
13668W        W14532   2.231  18.236   6.489 -0.2961 -0.2432  0.4078
13669W        W14533   1.159  16.206   9.497 -0.2350  0.1822 -0.1167
13670W        W14534   2.332  18.434   5.387  0.2438  0.0927  0.0074
13671W        W14535   2.837  21.154   6.780 -0.0622  0.3907  0.0527
13672W        W14536   3.133  17.124   2.845 -0.1126  0.1281  0.0065
13673W        W14537   1.764  17.376   4.988  0.0637  0.2394  0.0996
13674W        W14538   0.150  17.132   6.050 -0.0057 -0.0948 -0.2304
13675W        W14539   2.462  16.722   4.892  0.1882  0.1705  0.0530
13676W        W14540   0.777  16.029   4.045  0.0013 -0.1183 -0.2737
13677W        W14541   1.922  14.214   6.675 -0.1360  0.3927 -0.3925
13678W        W14542   1.497  14.195   4.740 -0.0207 -0.2170  0.0800
13679W        W14543   0.714  15.334   7.221  0.0359 -0.1359  0.2076
13680W        W14544   1.579  19.256   7.224 -0.1923 -0.0185  0.0754
13681W        W14545   3.308  13.400  10.270 -0.0120  0.1145 -0.0286
13682W        W14546   0.757  14.965   9.584  0.0057  0.0486 -0.1736
13683W        W14547   1.807  14.763   8.941 -0.2211 -0.1269 -0.1176
13684W        W14548   3.053  17.146   4.439 -0.0396  0.2954 -0.0482
13685W        W14549   1.718  16.967   7.243  0.2401  0.1073 -0.0397
13686W        W14550   1.367  17.807   5.389  0.0286 -0.0314 -0.2752
13687W        W14551   2.420  14.954   3.420 -0.0457 -0.2220  0.1450
13688W        W14552   0.838  15.574   6.262 -0.2243  0.0854  0.1269
13689W        W14553   2.455  22.475   6.572 -0.4247  0.0166 -0.0226
13690W        W14554   0.956  19.974   3.576  0.1688 -0.0489 -0.0130
13691W        W14555   3.601  14.961   7.332 -0.2204 -0.4867 -0.0964
13692W        W14556  28.957  20.852   3.665  0.1452  0.0964  0.3105
13693W        W14557   1.430  14.493   8.132 -0.1140 -0.0935  0.1109
13694W        W14558   0.469  14.466   4.279 -0.1011 -0.0517  0.1372
13695W        W14559   2.334  17.874   2.500 -0.1628  0.2091 -0.0836
13696W        W14560   0.014  16.472   6.795 -0.0252  0.0864 -0.0704
13697W        W14561   5.132  15.353   5.367  0.0271  0.0635  0.2762
13698W        W14562   1.093  16.869   9.143 -0.1945  0.0692 -0.2533
13699W        W14563   3.299  17.946   5.836 -0.1372  0.3428  0.0813
13700W        W14564   0.526  16.028   6.243  0.0609 -0.3815  0.0304
13701W        W14565   3.633  14.739   6.241 -0.2681 -0.2840  0.0401
13702W        W14566   1.669  15.126   7.403 -0.0647 -0.0454  0.5053
13703W        W14567   3.913  16.371   4.475  0.0649  0.0613  0.3152
13704W        W14568   3.450  11.666   5.235  0.0816 -0.0547 -0.1049
13705W        W14569   1.439  17.710   3.572 -0.0158  0.1390  0.0173
13706W        W14570   1.434  21.233   5.408  0.1623 -0.1743 -0.2352
13707W        W14571   1.761  14.662   9.454  0.0266  0.0554  0.3061
13708W        W14572   3.611  17.047   5.005 -0.1490  0.2194 -0.0588
13709W        W14573   3.631  16.545   4.861  0.1536 -0.0422  0.1222
13710W        W14574   0.765  18.718   3.841 -0.3557 -0.1770  0.2061
13711W        W14575   2.176  19.119   4.537  0.0480  0.3240 -0.0853
13712W        W14576   4.279  18.531   5.862 -0.1033  0.1262  0.1289
13713W        W14577   1.736  16.059   4.097 -0.1488 -0.1039 -0.0469
13714W        W14578   1.240  15.292   4.006 -0.1221  0.3528  0.1616
13715W        W14579   0.058  17.352   7.034 -0.4256  0.1585  0.0204
13716W        W14580   0.127  14.020   2.790 -0.0067 -0.2026  0.0101
13717W        W14581   3.316  15.743   6.500 -0.0627  0.4600  0.0196
13718W        W14582   2.288  15.497   3.582 -0.0291  0.2663  0.0896
13719W        W14583   3.119  15.852   7.283  0.0936 -0.4023 -0.3332
13720W        W14584   0.477  18.402   3.571 -0.0235 -0.2950 -0.0044
13721W        W14585   0.875  18.571   7.027 -0.0264 -0.2541 -0.4430
13722W        W14586   1.850  13.682   5.754  0.0020  0.2721 -0.0930
13723W        W14587   5.224  17.114   3.263 -0.0656 -0.0961 -0.0729
13724W        W14588   2.219  18.902   5.733 -0.3458 -0.2882 -0.3050
13725W        W14589   0.426  15.679   4.908 -0.0754 -0.2710 -0.1870
13726W        W14590   0.834  20.107   4.789 -0.1117  0.0267 -0.1169
13727W        W14591   3.219  17.824   0.885  0.0264 -0.1522 -0.2341
13728W        W14592   1.040  17.358   6.645  0.0787  0.2114 -0.2502
13729W        W14593   2.080  18.623   6.214 -0.3002  0.1108 -0.1764
13730W        W14594   1.625  16.548   5.698  0.0241 -0.3578  0.3347
13731W        W14595   1.752  15.800   5.449  0.0317  0.0557  0.0168
13732W        W14596   2.349  14.397   5.122  0.1403 -0.0900 -0.1828
13733W        W14597   1.384  14.962   8.179 -0.0529  0.1517 -0.3299
13734W        W14598   0.230  14.003   3.574 -0.1637 -0.0301 -0.1093
13735W        W14599   4.518  16.192   4.331 -0.0002 -0.0082 -0.3209
13736W        W14600   2.169  14.871   4.224 -0.0541  0.0059 -0.2391
13737W        W14601   5.737  12.153   2.022 -0.0763  0.1822 -0.1171
13738W        W14602   3.472  16.397   9.053  0.3800 -0.3320  0.0420
13739W        W14603   2.421  18.072   5.031 -0.0656 -0.1659  0.0174
13740W        W14604   5.441  14.524   6.837 -0.0387  0.0588 -0.4576
13741W        W14605   0.798  18.435   7.899  0.2495 -0.0191  0.1305
13742W        W14606   1.493  19.082   6.307 -0.0009  0.0158 -0.0097
13743W        W14607   1.568  16.536   4.360  0.0032  0.0570 -0.1646
13744W        W14608   2.507  15.912   3.384  0.0407  0.1371 -0.2707
13745W        W14609   2.511  16.214   2.940 -0.0167 -0.1037 -0.0993
13746W        W14610   2.350  18.491   4.606 -0.1703 -0.0383 -0.0676
13747W        W14611   1.954  13.535   6.214  0.1707  0.1503  0.0441
13748W        W14612   1.306  12.876   7.969 -0.1930 -0.0659  0.3978
13749W        W14613   1.304  17.285   1.921  0.2305  0.1224 -0.2350
13750W        W14614   1.443  19.485   5.521 -0.0008  0.0015  0.2032
13751W        W14615   0.175  16.675   5.028 -0.1915  0.1063  0.1477
13752W        W14616   3.340  17.847   1.814 -0.0294  0.0963 -0.0666
13753W        W14617   1.341  15.108   5.661  0.1997 -0.0072 -0.1350
13754W        W14618   0.935  18.255   6.060  0.0041 -0.2191 -0.2006
13755W        W14619   0.163  17.546   4.061 -0.0801  0.0965  0.0699
13756W        W14620   0.964  16.232   8.050 -0.0955  0.3140  0.0962
13757W        W14621   3.388  17.530   6.165 -0.2559 -0.2101  0.2425
13758W        W14622   2.247  17.676   4.206 -0.3602  0.0565  0.1840
13759W        W14623   1.765  21.541   4.591  0.1139 -0.1793  0.2397
13760W        W14624   1.349  17.679   2.501 -0.1542  0.0409  0.0961
13761W        W14625   4.503  13.472   3.654 -0.1116  0.0234 -0.0665
13762W        W14626   1.818  16.698   4.882 -0.0559  0.1127  0.1182
13763W        W14627   3.545  16.356   8.257  0.0857 -0.4461  0.0316
13764W        W14628   4.007  14.155   8.666 -0.1290 -0.2185  0.1450
13765W        W14629   0.330  14.806   5.352  0.0682  0.0800 -0.1727
13766W        W14630   4.775  17.322   4.616 -0.1459 -0.0068  0.0185
13767W        W14631   4.179  17.224   6.020 -0.0281  0.0707  0.1090
13768W        W14632   1.999  17.873   6.883  0.2748  0.0164  0.1434
13769W        W14633   2.484  15.308   4.948 -0.1189 -0.0254 -0.1988
13770W        W14634  29.121  20.743   5.555 -0.3473 -0.2389 -0.0842
13771W        W14635   4.282  16.658   7.062 -0.0298  0.0457  0.1792
13772W        W14636   2.248  18.375   3.783  0.2408  0.0809 -0.0342
13773W        W14637   2.322  20.114   3.908  0.1177  0.1389 -0.1761
13774W        W14638   5.206  14.516   5.690  0.2284  0.0215  0.0307
13775W        W14639   0.996  16.047   6.123 -0.0551  0.0480 -0.1435
13776W        W14640   0.606  17.526   3.095  0.2111  0.1454 -0.0677
13777W        W14641   5.125  15.367   4.511  0.1848  0.3235  0.0250
13778W        W14642   2.421  17.511   6.832  0.0543  0.0184 -0.0832
13779W        W14643   3.492  17.376   9.356  0.2570  0.0715  0.0779
13780W        W14644   2.980  16.150   4.200  0.1196 -0.2248 -0.5328
13781W        W14645   0.614  14.980   7.686 -0.0211  0.1990  0.0908
13782W        W14646   2.707  13.956   6.630 -0.0852 -0.1675  0.0457
13783W        W14647   3.468  18.491   5.048 -0.0299  0.2209  0.1817
13784W        W14648   0.386  12.697   6.024 -0.0070  0.0829 -0.3001
13785W        W14649   2.392  15.560   6.731 -0.0417 -0.2374 -0.0458
13786W        W14650   2.701  16.830   6.670 -0.0766  0.1218  0.0013
13787W        W14651   3.302  17.790   4.484 -0.2431  0.3548  0.1127
13788W        W14652   0.765  18.835   6.147 -0.1047 -0.0685 -0.0457
13789W        W14653   1.340  17.261   7.561  0.0393 -0.0336  0.0572
13790W        W14654   3.941  16.200   7.104 -0.0834  0.2056 -0.2977
13791W        W14655   2.112  14.927   7.432  0.0174  0.3311 -0.0698
13792W        W14656   3.465  18.355   0.014 -0.0407 -0.3679  0.0792
13793W        W14657   3.253  18.219   5.364 -0.2088  0.0079 -0.0190
13794W        W14658  27.198  18.341   5.580 -0.1803 -0.0749  0.0838
13795W        W14659   2.409  14.532   7.462 -0.0916  0.0642 -0.0441
13796W        W14660   2.034  19.176  10.040 -0.0587  0.1529  0.2984
13797W        W14661  28.567  19.791   2.849  0.0724 -0.2457  0.1927
13798W        W14662   2.173  17.290   5.992 -0.1569  0.1031 -0.0262
13799W        W14663   2.608  15.390   5.892 -0.0046 -0.3044 -0.1286
13800W        W14664   1.181  13.990   6.856 -0.0821  0.1941  0.0724
13801W        W14665   2.531  16.390   8.049  0.0715  0.0549  0.0545
13802W        W14666   0.484  20.309   6.190 -0.1505  0.1744  0.2422
13803W        W14667   0.083  17.793   6.066 -0.2317 -0.3549  0.3503
13804W        W14668   0.694  18.840   3.389 -0.3127 -0.1711 -0.2712
13805W        W14669  29.082  17.345   1.757  0.1029 -0.0948 -0.2130
13806W        W14670   1.663  21.244   9.729 -0.2451  0.1631  0.2751
13807W        W14671   0.501  16.668  11.773 -0.1903  0.1693 -0.0826
13808W        W14672   4.930  16.030   7.377 -0.3884  0.1387  0.0573
13809W        W14673   2.066  18.974   9.359  0.1772 -0.1058  0.0265
13810W        W14674   3.013  17.655   6.622 -0.0532 -0.2977 -0.0974
13811W        W14675   1.831  17.736   8.357 -0.0468  0.3104  0.1599
13812W        W14676   0.950  15.739   9.655 -0.0229 -0.0731  0.0283
13813W        W14677   4.419  14.109   9.575  0.2177 -0.0400 -0.1100
13814W        W14678  28.455  18.845  11.366  0.0865  0.0733  0.0614
13815W        W14679   2.918  14.823   9.820  0.2452  0.0710 -0.0302
13816W        W14680  27.937  13.031   8.888 -0.1083  0.0346 -0.2641
13817W        W14681   3.157  13.991  12.780  0.3148  0.1579  0.2214
13818W        W14682   2.205  18.884   7.927  0.2081 -0.3309 -0.0012
13819W        W14683   2.289  15.103  10.899 -0.0844 -0.2597 -0.4584
13820W        W14684   2.625  15.591   9.712 -0.1970  0.0629 -0.1420
13821W        W14685   0.231  16.595   9.729  0.0168 -0.2261  0.0502
13822W        W14686   1.400  18.422   8.256 -0.1609  0.1357 -0.0888
13823W        W14687  28.434  15.898  11.328 -0.2451 -0.1355 -0.2037
13824W        W14688   1.103  13.750  11.375  0.0417 -0.0339  0.2017
13825W        W14689   4.547  12.263  10.975 -0.3368  0.2147  0.1162
13826W        W14690   4.329  16.820   9.835 -0.1565  0.0303 -0.1083
13827W        W14691   3.013  17.382   9.143  0.0225 -0.0172 -0.2100
13828W        W14692   4.122  16.708   8.939 -0.0326 -0.0381 -0.0773
13829W        W14693   4.251  16.909  10.490 -0.1299  0.0509 -0.3291
13830W        W14694   0.875  16.686  10.558 -0.1778  0.0698 -0.0054
13831W        W14695   4.428  19.684   8.248 -0.0092  0.0262  0.0696
13832W        W14696   4.263  15.029  13.184  0.1431 -0.1331 -0.4438
13833W        W14697   1.889  18.232   8.215 -0.3419 -0.2282  0.0360
13834W        W14698   0.685  16.249   9.807  0.1226 -0.0064  0.0855
13835W        W14699  28.365  15.755   8.882  0.1604  0.0678  0.1882
13836W        W14700   1.908  18.490   7.408  0.0053  0.3234 -0.0728
13837W        W14701   0.701  17.502  12.398  0.2290 -0.0703  0.0051
13838W        W14702   0.890  18.319  10.444  0.1474  0.0847  0.1622
13839W        W14703   2.189  15.954   9.675 -0.0642 -0.1469  0.2059
13840W        W14704   0.362  13.507  12.358 -0.0881  0.0884  0.0175
13841W        W14705   3.733  18.207  10.944  0.0656  0.2779 -0.3035
13842W        W14706   4.082  16.680   7.558  0.0239  0.2749  0.0038
13843W        W14707   0.655  16.650   8.113 -0.1396  0.0336  0.2220
13844W        W14708   4.429  19.123  12.287 -0.0273  0.0502  0.1241
13845W        W14709   2.710  16.687   7.675 -0.2051  0.0113 -0.0572
13846W        W14710   2.682  18.040   8.607  0.3363  0.0498  0.2624
13847W        W14711   2.475  16.497  10.233  0.2600 -0.2337 -0.3879
13848W        W14712   0.288  18.218  10.473  0.0020 -0.0295  0.0863
13849W        W14713   3.807  17.561   5.806 -0.1409  0.1312 -0.3626
13850W        W14714  28.832  16.695   5.060 -0.0474  0.0748 -0.1737
13851W        W14715   1.549  19.326   9.778  0.1198 -0.2987  0.2670
13852W        W14716  27.658  14.940  10.179 -0.0369  0.2100  0.0664
13853W        W14717   5.679  17.329  10.004 -0.2426 -0.1493  0.0256
13854W        W14718   2.586  14.717   8.257 -0.4381 -0.1563 -0.1501
13855W        W14719   3.583  18.312   8.587  0.0943  0.0556 -0.1600
13856W        W14720   4.070  16.511   8.071  0.0240  0.0808 -0.0288
13857W        W14721   3.938  15.154  10.384 -0.1299  0.1231  0.0552
13858W        W14722   0.110  16.626  10.512 -0.1076  0.1069  0.0749
13859W        W14723   1.850  17.291   9.231  0.0751 -0.1157  0.0949
13860W        W14724   2.836  13.601  11.453  0.1462 -0.1479 -0.0011
13861W        W14725   1.661  18.732   9.255  0.0036 -0.0454 -0.1021
13862W        W14726   2.715  16.654   8.628  0.0963  0.1072  0.2520
13863W        W14727   2.848  14.277  10.588 -0.0140  0.0857 -0.6574
13864W        W14728   0.585  16.283   8.432  0.1584  0.3144 -0.1027
13865W        W14729   4.031  18.240   6.228  0.2700  0.1239  0.0548
13866W        W14730   2.434  17.240   6.425  0.0598  0.0727 -0.0068
13867W        W14731   2.694  19.602  10.363  0.1624 -0.0650  0.3589
13868W        W14732   0.482  15.875  10.895  0.1527  0.0336  0.0032
13869W        W14733   2.101  16.117   9.153  0.0352  0.1955  0.0050
13870W        W14734   2.048  14.595  10.764  0.2657  0.0942 -0.2341
13871W        W14735   4.515  13.786  10.562 -0.0849  0.0703 -0.0257
13872W        W14736   3.708  18.006   7.020 -0.0746  0.2573 -0.2766
13873W        W14737   3.195  15.951   8.966  0.2000  0.1780 -0.2694
13874W        W14738  27.503  14.535  11.014 -0.1920 -0.0141  0.1695
13875W        W14739   2.717  18.069   6.534 -0.1029  0.2590 -0.0056
13876W        W14740   2.260  17.040  10.686 -0.0722 -0.0680 -0.0971
13877W        W14741   1.436  16.056   9.913  0.0136 -0.0465 -0.0752
13878W        W14742   2.802  16.804   9.925  0.0733 -0.0971 -0.2534
13879W        W14743   2.658  12.707  10.714 -0.2786 -0.0435  0.1114
13880W        W14744   4.322  20.286   6.924  0.1153 -0.1028 -0.1748
13881W        W14745   2.149  17.686  10.915  0.0106  0.2288  0.2690
13882W        W14746  28.976  15.143  10.018  0.1779  0.1285 -0.0974
13883W        W14747   1.753  18.450  11.799 -0.2903  0.3224  0.0620
13884W        W14748   3.393  15.174   9.703  0.1315  0.2476 -0.0690
13885W        W14749   1.718  17.828   9.951 -0.0099  0.2576 -0.0601
13886W        W14750   2.534  16.138   8.864  0.4610 -0.0669 -0.1612
13887W        W14751   1.023  17.236   9.823  0.0976 -0.1882 -0.1111
13888W        W14752   0.813  14.201   7.815  0.0209  0.1678  0.0763
13889W        W14753   2.226  15.678  10.069 -0.3176 -0.0515  0.1271
13890W        W14754   3.124  12.498  10.803  0.4166 -0.0287 -0.2304
13891W        W14755   1.835  14.314   9.782  0.1815  0.0102  0.1364
13892W        W14756   2.299  17.523  11.407 -0.1980  0.0756 -0.2036
13893W        W14757   2.965  16.646  10.521 -0.0804  0.1313 -0.0249
13894W        W14758   4.835  17.113  11.303  0.3586  0.0410  0.0070
13895W        W14759   1.704  17.685  10.428  0.1566  0.0959 -0.0641
13896W        W14760   3.847  12.596   9.900  0.1596 -0.2654 -0.0455
13897W        W14761   5.467  17.375  10.490  0.0482 -0.0921 -0.3284
13898W        W14762   0.118  17.458   8.066 -0.2257 -0.0042  0.0029
13899W        W14763   0.450  16.443   8.865  0.0990  0.0478 -0.2605
13900W        W14764  27.910  13.829  11.649 -0.1404 -0.2500 -0.0875
13901W        W14765   5.139  17.633   8.695  0.0513 -0.0164  0.1226
13902W        W14766   4.015  17.917  10.521 -0.0812 -0.3204 -0.0872
13903W        W14767   1.208  16.967  10.306  0.1847 -0.1225 -0.0878
13904W        W14768   2.378  14.712   8.745  0.0532  0.1059 -0.1788
13905W        W14769   4.000  13.248   8.542  0.4539 -0.0440  0.2594
13906W        W14770   5.756  16.831   7.224 -0.1137  0.1601 -0.0481
13907W        W14771   1.629  17.492   7.920 -0.0265  0.0913 -0.0077
13908W        W14772   2.302  15.017   7.930 -0.2655 -0.2508  0.4946
13909W        W14773   4.443  17.992  13.013 -0.0002 -0.0660  0.0167
13910W        W14774   5.115  11.880   9.386 -0.2628 -0.1537  0.0562
13911W        W14775   1.773  16.882  10.823 -0.0386  0.1278 -0.0212
13912W        W14776   1.520  17.026   6.661  0.2212 -0.2249 -0.1375
13913W        W14777   4.604  16.494  12.005  0.0205  0.1016 -0.1442
13914W        W14778   2.415  13.643   9.832 -0.1814  0.2648 -0.0902
13915W        W14779   2.784  15.648   8.649  0.1806 -0.1137  0.1097
13916W        W14780   2.415  16.381  10.866 -0.0327 -0.2096  0.0936
13917W        W14781   3.467  16.208   7.346 -0.3346 -0.1064  0.0672
13918W        W14782   2.816  13.504  10.143  0.1196 -0.0384  0.0526
13919W        W14783   3.074  18.063  11.177 -0.0224 -0.0256 -0.1741
13920W        W14784   5.679  16.527   8.708  0.2393 -0.3981  0.0624
13921W        W14785   1.224  16.589   8.325 -0.1633 -0.1880  0.0420
13922W        W14786   5.074  13.260  10.555 -0.0775 -0.1874 -0.0441
13923W        W14787   1.412  18.535  12.210  0.0867 -0.1786 -0.1141
13924W        W14788   2.375  15.443  10.562 -0.3326 -0.1676 -0.3372
13925W        W14789   3.427  16.310  10.400  0.1498  0.3210  0.1824
13926W        W14790   3.235  16.926   8.918  0.1451  0.0000  0.1975
13927W        W14791   1.867  18.979   6.585 -0.0489 -0.0005 -0.1929
13928W        W14792   3.948  16.271   9.057 -0.3010  0.4680 -0.1958
13929W        W14793   3.096  16.562   8.243 -0.3100  0.1122 -0.2717
13930W        W14794   1.544  17.359   8.720 -0.1058  0.1584 -0.1883
13931W        W14795   1.806  18.580   8.533 -0.3150 -0.1253 -0.0270
13932W        W14796  28.756  13.683  11.060 -0.1038 -0.0770 -0.0710
13933W        W14797   5.046  13.999  13.375  0.0899 -0.0963  0.2674
13934W        W14798   3.203  18.164   6.822 -0.0042 -0.1856  0.2677
13935W        W14799   3.739  18.357   5.756 -0.0961 -0.0592 -0.1269
13936W        W14800   4.016  19.606   9.168 -0.0930 -0.0246  0.0476
13937W        W14801   2.333  13.364  10.239 -0.1571 -0.1741 -0.1703
13938W        W14802   0.909  19.407   8.727 -0.1610  0.0013 -0.0938
13939W        W14803   4.036  16.504   6.593 -0.2680 -0.0909 -0.0967
13940W        W14804   1.991  13.956  12.567 -0.0313 -0.1380 -0.1678
13941W        W14805   2.218  17.998   9.190  0.3740  0.2106  0.2790
13942W        W14806   3.064  17.010  10.905 -0.0464  0.3525 -0.2474
13943W        W14807   3.038  17.488  10.826 -0.2603 -0.0445 -0.1105
13944W        W14808   5.077  18.071   7.542 -0.0125  0.0973 -0.0412
13945W        W14809   2.524  18.952   6.097 -0.1561  0.0243  0.0119
13946W        W14810   0.892  15.790  10.549 -0.1462  0.1329  0.1019
13947W        W14811   4.384  15.396  10.479  0.0046  0.1693 -0.3121
13948W        W14812   2.890  17.681   6.142  0.0837  0.0699 -0.1830
13949W        W14813   2.423  18.628   7.321  0.2870 -0.2890 -0.1948
13950W        W14814   2.228  14.741  12.128  0.0398  0.1668 -0.0406
13951W        W14815   2.999  12.191  11.211  0.0079  0.2675  0.0740
13952W        W14816   5.465  13.231   7.950  0.0087 -0.0002 -0.1908
13953W        W14817  28.669  20.265  10.307 -0.1523  0.1797  0.0192
13954W        W14818   1.610  20.163   7.807 -0.0254 -0.2279 -0.1757
13955W        W14819   2.927  18.760   8.980  0.0512 -0.2253 -0.1962
13956W        W14820   4.845  16.620  11.248 -0.1941  0.1790 -0.0655
13957W        W14821   2.914  16.398   9.046 -0.1866  0.1839  0.0603
13958W        W14822   5.055  17.979   9.880 -0.1094  0.2138 -0.2516
13959W        W14823   3.434  16.699   7.415  0.0318  0.2469 -0.1536
13960W        W14824   2.671  18.756  10.091 -0.1771  0.0711  0.2895
13961W        W14825   4.453  13.983   9.009 -0.0400  0.1219 -0.1204
13962W        W14826  28.866  17.128  12.093  0.0813  0.2952  0.0002
13963W        W14827   2.761  17.631   7.403  0.0320  0.1559 -0.0375
13964W        W14828   1.822  14.415   7.482 -0.2502  0.1508 -0.0652
13965W        W14829   3.563  16.115   8.677 -0.0514  0.0290 -0.3191
13966W        W14830   1.438  14.247  10.139 -0.1542  0.1350  0.1397
13967W        W14831   3.206  19.139  10.927  0.2817 -0.5075 -0.0094
13968W        W14832   2.993  15.563  10.671 -0.1000 -0.3787 -0.0386
13969W        W14833   0.981  17.257  11.259 -0.1095  0.0267 -0.0945
13970W        W14834   4.841  10.918  11.037 -0.0242  0.1511  0.1787
13971W        W14835   3.320  17.197   9.973  0.0564  0.1548 -0.2988
13972W        W14836   4.432  14.689   9.794  0.1809 -0.4129  0.0142
13973W        W14837   0.743  20.907   8.749 -0.0746  0.0261 -0.2298
13974W        W14838   0.302  18.335   9.703  0.0597 -0.1317 -0.1128
13975W        W14839   3.771  18.638   9.066  0.0370 -0.0275  0.0974
13976W        W14840   0.285  15.060   9.324 -0.0098 -0.2523  0.0941
13977W        W14841   4.428  15.653  11.068 -0.1077  0.3351  0.1341
13978W        W14842   2.546  17.017  10.281  0.0101  0.3651  0.0384
13979W        W14843   0.871  14.589   6.667  0.3936 -0.1836  0.1735
13980W        W14844   0.547  14.845  10.575  0.0646  0.0436  0.0659
13981W        W14845   5.520  17.175   9.419  0.1333 -0.1084 -0.0153
13982W        W14846   2.238  21.279   8.894  0.3369 -0.2457  0.0796
13983W        W14847   0.526  19.359   8.296  0.4152 -0.1701 -0.0189
13984W        W14848   0.839  14.703   8.070 -0.0930  0.2349  0.1499
13985W        W14849   1.949  15.656   9.294  0.1999  0.0286 -0.2732
13986W        W14850   2.265  18.809   8.419 -0.2871  0.1453  0.1369
13987W        W14851   3.223  16.459   8.671  0.1179 -0.1881 -0.0606
13988W        W14852   2.547  16.599   7.128  0.1330  0.0024  0.0320
13989W        W14853   3.308  14.912  10.105 -0.0457  0.0650 -0.1188
13990W        W14854   1.375  16.296   6.541  0.1661  0.3902 -0.0813
13991W        W14855   1.987  19.181  11.129  0.1665 -0.0554 -0.0404
13992W        W14856   1.856  16.886   9.004  0.2351  0.0518 -0.0641
13993W        W14857   1.056  14.439   7.164  0.0270  0.0266  0.1543
13994W        W14858   1.825  18.323  10.060  0.0311 -0.1108  0.1129
13995W        W14859   1.504  16.671   9.331 -0.2596 -0.2841  0.0218
13996W        W14860   1.562  14.175   7.105 -0.1931 -0.0353  0.0756
13997W        W14861   1.366  18.405   7.747 -0.1910  0.0326 -0.1534
13998W        W14862   0.598  19.649   9.817  0.1381 -0.1171 -0.1274
13999W        W14863   2.891  13.775   9.636 -0.1276 -0.0407  0.1854
14000W        W14864   3.376  11.254  12.101 -0.0153 -0.0716 -0.3646
14001W        W14865   2.851  15.116   8.432 -0.2712 -0.0531  0.0877
14002W        W14866   2.648  18.145   7.602 -0.0087 -0.0993  0.0297
14003W        W14867   1.734  16.101   9.515  0.0381 -0.2798 -0.1320
14004W        W14868  28.608  14.764   9.830 -0.0777  0.3291  0.0556
14005W        W14869   3.032  15.531   8.127 -0.3102  0.2832  0.1830
14006W        W14870   3.228  16.866   7.886 -0.0185 -0.1377  0.2103
14007W        W14871   3.407  14.653  10.944 -0.0270  0.2353 -0.1879
14008W        W14872   4.656  16.416   9.739 -0.1706  0.1484 -0.2046
14009W        W14873   0.227  15.931  11.342  0.1145 -0.0483  0.2876
14010W        W14874   2.320  14.337  10.465  0.0510 -0.2079  0.4001
14011W        W14875  27.247  15.611   6.247 -0.0362  0.0527  0.2402
14012W        W14876  27.688  17.479  12.311 -0.0251 -0.1323 -0.0551
14013W        W14877   3.915  16.512   9.931  0.1229  0.2925  0.0965
14014W        W14878   1.395  17.970   8.028  0.0322 -0.0988 -0.3371
14015W        W14879   3.364  17.345   8.229  0.1611  0.0671  0.3212
14016W        W14880   1.968  18.711  10.881  0.3057  0.0116  0.0579
14017W        W14881  28.448  15.820  10.787 -0.0148 -0.0722 -0.1862
14018W        W14882   2.644  14.540   9.546 -0.0472 -0.2588  0.0477
14019W        W14883   3.424  11.946  10.970 -0.1518  0.0237 -0.0092
14020W        W14884   3.840  16.601  10.462 -0.2250 -0.1702  0.1259
14021W        W14885   4.387  18.740   6.861 -0.3579 -0.0596 -0.1026
14022W        W14886   2.684  17.228   9.458  0.0394 -0.0811 -0.0380
14023W        W14887   3.294  20.611   8.074  0.0473 -0.2806  0.0460
14024W        W14888   3.722  17.998  10.129 -0.0887  0.1095  0.1403
14025W        W14889  28.013  17.371  11.771 -0.1507  0.1286 -0.2823
14026W        W14890   6.854  10.618   8.705 -0.3304 -0.2323 -0.1205
14027W        W14891   2.891  14.994  10.870 -0.1945 -0.3322  0.0203
14028W        W14892   1.606  16.065  10.591  0.1984  0.1367 -0.0717
14029W        W14893   2.055  16.358  10.494  0.0855  0.0721  0.2483
14030W        W14894   4.562  16.412   3.876  0.0384 -0.1036 -0.0326
14031W        W14895   3.331  15.228   7.682 -0.2094 -0.1832  0.1428
14032W        W14896   1.329  18.413  10.246  0.3492  0.3842 -0.2030
14033W        W14897   3.836  15.026   9.835  0.1839 -0.0588  0.2140
14034W        W14898   3.423  18.871   7.929  0.1335 -0.0986 -0.0335
14035W        W14899   2.664  19.026   8.671 -0.0225  0.0723 -0.1622
14036W        W14900  28.572  16.277  11.029 -0.2325 -0.1199 -0.0330
14037W        W14901   4.290  13.012  10.343  0.3394 -0.0321 -0.0804
14038W        W14902   3.927  19.117   8.945 -0.0338  0.0897  0.1378
14039W        W14903   2.355  17.022   8.528  0.0197 -0.0596  0.2188
14040W        W14904   3.385  14.173  11.131  0.3584 -0.0704  0.1291
14041W        W14905   3.198  18.364   7.807 -0.0417  0.0784 -0.3025
14042W        W14906   2.459  18.782  10.836  0.3359  0.3561 -0.0630
14043W        W14907   3.412  15.331  13.147 -0.2044  0.0983 -0.0777
14044W        W14908   5.610  18.381  10.731 -0.0465 -0.2155  0.4277
14045W        W14909   2.917  19.261   9.044  0.1142 -0.1017 -0.1932
14046W        W14910   1.853  18.329   6.873  0.0053  0.2991  0.1262
14047W        W14911   1.734  18.686   7.927 -0.2067  0.0603  0.2450
14048W        W14912   1.111  16.536  10.072 -0.0335  0.1819 -0.2537
14049W        W14913   1.955  12.904   9.515 -0.0739  0.1075  0.3992
14050W        W14914   5.733  13.356   8.929  0.3938 -0.1224  0.0451
14051W        W14915   3.617  19.965   8.259 -0.0870  0.3177 -0.2499
14052W        W14916   4.111  14.306   9.173  0.1575  0.2972  0.2823
14053W        W14917  27.737  17.855  10.978  0.1162  0.0655  0.2388
14054W        W14918   1.187  17.887  10.161 -0.1738 -0.2295 -0.0994
14055W        W14919   4.032  18.827   9.798  0.1245  0.0530 -0.0478
14056W        W14920   2.615  16.063   9.971 -0.2052  0.4431  0.1288
14057W        W14921   1.800  21.891   7.809 -0.0832 -0.1383  0.3513
14058W        W14922   1.322  18.038   9.182 -0.0601 -0.1079 -0.1167
14059W        W14923   2.898  16.120  10.517  0.2512  0.1590 -0.1449
14060W        W14924   3.707  16.557   6.968  0.2912  0.1806  0.0830
14061W        W14925   5.803  16.684   6.067  0.1613  0.1290 -0.2468
14062W        W14926   0.854  16.322  10.861 -0.3101 -0.0832 -0.3768
14063W        W14927   3.225  14.654   8.204  0.0661  0.0953 -0.1503
14064W        W14928   3.262  16.652   9.443 -0.0799  0.1300  0.1478
14065W        W14929   3.954  14.378  11.374 -0.0383  0.0548 -0.1181
14066W        W14930   2.709  16.723   9.396 -0.2966  0.1135 -0.2028
14067W        W14931   3.519  15.516  11.366  0.0224 -0.1089  0.1008
14068W        W14932   3.617  18.570   9.983 -0.0730 -0.2084 -0.0646
14069W        W14933   1.260  17.503  10.536 -0.1048 -0.1161 -0.0746
14070W        W14934   0.085  16.089   8.689 -0.5348 -0.1606  0.2770
14071W        W14935   2.213  21.002  10.326  0.0201 -0.0520  0.1546
14072W        W14936   1.364  18.525   7.153  0.1144  0.0309  0.2583
14073W        W14937   1.772  17.998   7.721  0.1256 -0.2180  0.1516
14074W        W14938   1.822  15.830  11.295 -0.0773  0.0928 -0.0664
14075W        W14939   3.637  14.346  10.091  0.0073 -0.1099  0.0972
14076W        W14940   2.426  12.952   7.678 -0.0818 -0.2374 -0.1303
14077W        W14941   3.560  12.802  10.319 -0.0502  0.3483  0.2591
14078W        W14942   3.955  15.288  11.460  0.3835  0.3692 -0.2134
14079W        W14943   4.380  18.112  11.329  0.0183 -0.2173 -0.0319
14080W        W14944   3.958  17.544  12.305 -0.1116  0.0086 -0.1804
14081W        W14945   3.432  13.205  11.448  0.4473 -0.1230 -0.0107
14082W        W14946   1.755  13.363  10.923  0.0555  0.2609 -0.2212
14083W        W14947   0.254  15.791  10.477  0.0751  0.0685  0.1025
14084W        W14948   0.683  14.045   6.665  0.0744  0.0657  0.1011
14085W        W14949   0.370  17.499  10.498 -0.0272 -0.0506  0.1035
14086W        W14950   3.163  14.194   9.536  0.2305 -0.0509 -0.0718
14087W        W14951   4.458  16.400   9.182 -0.0818 -0.0214 -0.3618
14088W        W14952  27.646  20.001   8.949 -0.0079 -0.1904 -0.1343
14089W        W14953   1.236  20.120   8.590  0.1486 -0.1629 -0.3239
14090W        W14954   5.255  18.111   9.435 -0.0498  0.2464 -0.0820
14091W        W14955   4.933  13.713  10.823 -0.0974 -0.4191  0.0055
14092W        W14956   3.032  18.421   9.852 -0.1750 -0.0461  0.2440
14093W        W14957   0.887  17.320   9.313 -0.1723  0.2773  0.0164
14094W        W14958   2.508  14.074   9.492 -0.1025  0.2223  0.2021
14095W        W14959   3.219  15.990   8.211 -0.2787  0.0761  0.0534
14096W        W14960   2.966  14.705   7.314 -0.0087  0.3302 -0.3016
14097W        W14961   4.501  19.048   8.810  0.0230  0.0536  0.3398
14098W        W14962   3.052  14.517   9.194 -0.1148 -0.0330  0.1464
14099W        W14963   2.526  18.299   9.996  0.0560  0.1072 -0.0531
14100W        W14964   3.109  18.295   8.815  0.0478 -0.1023 -0.1195
14101W        W14965   3.654  14.794   8.385 -0.1927  0.1871 -0.1493
14102W        W14966   1.791  15.217  10.306 -0.0649 -0.2159  0.1128
14103W        W14967   3.250  18.188  10.270 -0.0884 -0.2641  0.1943
14104W        W14968   1.528  13.826  10.942 -0.0197 -0.1738 -0.1228
14105W        W14969   0.970  19.716   7.765 -0.0253  0.0410 -0.0263
14106W        W14970  28.688  17.039  10.864  0.1014  0.0634  0.0848
14107W        W14971   0.144  15.963  12.584  0.0994  0.2060 -0.0808
14108W        W14972  29.010  15.961  10.899 -0.1656 -0.2635 -0.2639
14109W        W14973   2.761  17.339   9.953  0.0840  0.1961 -0.0991
14110W        W14974   2.739  17.881   9.112  0.1692 -0.2978  0.0480
14111W        W14975   0.855  18.498   8.411 -0.0169 -0.0453 -0.1596
14112W        W14976   2.602  17.417  10.540  0.1958 -0.1543  0.2891
14113W        W14977  28.605  12.621   7.518 -0.1043  0.1532  0.1097
14114W        W14978   3.917  16.103  10.201  0.0197  0.0733 -0.1131
14115W        W14979   3.258  16.744   6.862  0.2251 -0.3054 -0.0676
14116W        W14980   2.217  13.912   8.088  0.1904 -0.2577  0.0640
14117W        W14981   2.727  15.956  10.906 -0.3558 -0.1145  0.1603
14118W        W14982   3.901  17.334   9.115 -0.1187 -0.1053 -0.1041
14119W        W14983   3.254  17.662  10.182 -0.1897  0.3242 -0.1344
14120W        W14984   0.076  15.503  10.966 -0.0392 -0.1012  0.0943
14121W        W14985   2.600  15.477  11.031  0.2304  0.0073  0.3836
14122W        W14986   0.652  12.437   8.631 -0.1617  0.3311  0.1869
14123W        W14987   2.679  17.503   8.733  0.0373 -0.2003 -0.0756
14124W        W14988   0.862  16.756  11.083 -0.1519 -0.0023  0.1569
14125W        W14989   0.837  18.219   9.398  0.2300 -0.2670 -0.2782
14126W        W14990   0.567  20.043  10.077  0.0224  0.2200 -0.1333
14127W        W14991   5.238  16.952   6.190 -0.0329 -0.1213  0.0511
14128W        W14992  27.192  16.022  13.863 -0.1459  0.4001 -0.1169
14129W        W14993   2.345  17.491   9.146  0.2110 -0.1715 -0.0534
14130W        W14994   0.211  19.767   8.202  0.1628 -0.2566 -0.0066
14131W        W14995   1.481  19.160  10.311 -0.1617 -0.3474  0.1767
14132W        W14996   3.758  13.281  10.165  0.0595  0.0899  0.1369
14133W        W14997   2.967  17.214   6.873  0.1576 -0.4513  0.2410
14134W        W14998   1.781  15.750   5.932  0.1453  0.1146  0.0177
14135W        W14999  29.120  18.548   6.718  0.1380  0.3723 -0.1551
14136W        W15000   5.430  16.466  11.477 -0.1686 -0.2855 -0.1909
14137W        W15001   4.976  14.630  10.697 -0.1818 -0.2634 -0.0110
14138W        W15002   6.464  18.624   9.084 -0.4893 -0.2541  0.2433
14139W        W15003   2.713  17.878  11.571  0.2628 -0.1861  0.1759
14140W        W15004   5.036  17.906  12.049  0.1059  0.1114 -0.1695
14141W        W15005   3.294  18.000  12.160 -0.1510 -0.2570 -0.2888
14142W        W15006   0.428  17.441   9.871 -0.3156 -0.0471  0.2971
14143W        W15007   5.348  15.210   8.250 -0.0340 -0.3395  0.0641
14144W        W15008   1.383  17.230   9.410 -0.0275 -0.0050  0.0665
14145W        W15009   2.592  12.017   8.319  0.2802  0.0776  0.1982
14146W        W15010   0.469  18.636   6.814  0.1427  0.2308 -0.0772
14147W        W15011   1.264  14.996  10.863 -0.1113  0.1323  0.3780
14148W        W15012   3.655  14.064   9.609  0.0890  0.0439  0.2559
14149W        W15013  28.913  18.035   7.375 -0.1189  0.1937 -0.0971
14150W        W15014   1.928  16.408   8.806  0.1756 -0.1169 -0.0224
14151W        W15015   1.552  18.419  11.012  0.1608 -0.1315 -0.0566
14152W        W15016   2.256  18.302   8.635  0.2776  0.0613 -0.1027
14153W        W15017   1.490  11.432   9.140 -0.2097  0.3061  0.5286
14154W        W15018   2.306  20.084  10.199  0.0710  0.1784 -0.1955
14155W        W15019   0.993  13.189   7.764 -0.0676  0.0479 -0.2044
14156W        W15020   5.012  13.715  10.289  0.1168  0.2322  0.1018
14157W        W15021   2.489  16.304   9.410 -0.0485  0.3232 -0.0161
14158W        W15022   5.582  19.000   9.177 -0.0536 -0.0337 -0.1027
14159W        W15023   5.308  17.652   9.146 -0.0398 -0.0622 -0.0934
14160W        W15024   2.141  16.829   7.974  0.1119  0.0866  0.0723
14161W        W15025   1.995  14.028   5.035 -0.0715 -0.0934 -0.0508
14162W        W15026   1.899  19.159  10.645 -0.3484  0.0045  0.1856
14163W        W15027   4.358  15.950  10.037  0.0835  0.0094  0.0849
14164W        W15028   2.125  17.393  10.315  0.0327 -0.0730  0.0217
14165W        W15029   2.195  16.024   8.463  0.1977  0.0374 -0.1690
14166W        W15030   2.247  13.721   7.368  0.0317  0.1557  0.1797
14167W        W15031   4.085  16.247   8.559 -0.0777  0.1810  0.1724
14168W        W15032   2.580  17.708   9.633 -0.2523 -0.0638  0.1731
14169W        W15033   2.178  15.698   8.830  0.1976 -0.0434 -0.1889
14170W        W15034   1.974  19.053   7.505 -0.3311  0.2492 -0.1292
14171W        W15035   2.650  18.987  12.281  0.1634 -0.0025  0.1870
14172W        W15036   3.945  17.940   8.061 -0.1624  0.3494 -0.2344
14173W        W15037   3.575  18.211   9.149 -0.0181  0.0910 -0.1631
14174W        W15038   6.903  15.856   8.291 -0.0085  0.4308  0.3919
14175W        W15039   6.342  11.871   9.067  0.1846  0.2039  0.0634
14176W        W15040   2.582  14.352   9.033 -0.0010 -0.1145 -0.0602
14177W        W15041   7.017  18.052   8.791  0.1643 -0.0321  0.1527
14178W        W15042   5.313  16.747   6.666  0.0045  0.3365 -0.2954
14179W        W15043   3.113  14.469  11.852  0.1004 -0.0103  0.1234
14180W        W15044   1.632  18.141   8.635  0.0300 -0.1818 -0.0706
14181W        W15045   6.522  14.157   9.248 -0.3557  0.2886  0.0896
14182W        W15046   2.917  15.265   9.469 -0.3638 -0.1692  0.0680
14183W        W15047   0.125  19.833   9.655 -0.3547  0.1330  0.0684
14184W        W15048   3.625  14.743  10.459 -0.0748  0.0383 -0.4071
14185W        W15049  27.257  15.282  12.789  0.0786 -0.1336 -0.0136
14186W        W15050   1.614  15.128   9.481  0.0061 -0.0200 -0.0323
14187W        W15051   3.124  18.548  11.867  0.0856  0.2239  0.0163
14188W        W15052  29.074  16.813   7.677 -0.1288 -0.0270 -0.0937
14189W        W15053   5.841  15.066  13.564  0.0252 -0.2766  0.0960
14190W        W15054   0.097  18.716  10.579  0.0189  0.0830 -0.4833
14191W        W15055   1.489  16.239   9.121  0.0502  0.2555 -0.0355
14192W        W15056   2.947  18.868   9.682  0.1090 -0.0658 -0.0276
14193W        W15057   2.006  17.693   9.516  0.0636  0.1826 -0.0544
14194W        W15058  28.854  19.004   9.237 -0.1796 -0.0678 -0.2752
14195W        W15059   1.661  17.204  10.380  0.0717  0.0578 -0.0061
14196W        W15060   2.019  17.191  11.125 -0.1665 -0.0448 -0.0431
14197W        W15061   0.593  18.877   7.247 -0.0330  0.1634  0.2578
14198W        W15062   4.062  17.524   8.396 -0.1290 -0.0665  0.0121
14199W        W15063   3.010  16.962   7.440  0.1163  0.0988 -0.2715
14200W        W15064   0.561  16.911   9.053  0.2108  0.0445  0.0632
14201W        W15065   2.619  14.121  11.852  0.3012 -0.3681  0.4476
14202W        W15066   2.321  15.828   7.147 -0.0643 -0.0919 -0.1697
14203W        W15067   1.547  17.233  11.316  0.1310 -0.3309  0.1491
14204W        W15068   2.706  18.630   7.804 -0.2550  0.0574 -0.0294
14205W        W15069   0.881  17.187   8.785  0.0186  0.0360 -0.0131
14206W        W15070  28.310  17.648  14.964 -0.2757  0.0223  0.3555
14207W        W15071   1.667  14.834  15.837  0.0179 -0.0468  0.1028
14208W        W15072   0.686  16.367  12.179  0.3683  0.1780 -0.0030
14209W        W15073   1.981  16.927  11.652  0.0710  0.0430 -0.0029
14210W        W15074   1.200  19.017   9.545 -0.2541  0.2571  0.2430
14211W        W15075   0.514  16.987  11.360 -0.0533  0.1634 -0.3795
14212W        W15076   2.420  16.004  10.502 -0.2543 -0.2223  0.1117
14213W        W15077   3.410  18.380  11.369  0.3569  0.0649  0.0392
14214W        W15078   4.687  18.537  17.204 -0.1759  0.1864  0.1265
14215W        W15079   0.516  13.870  12.665 -0.2916 -0.2310 -0.0577
14216W        W15080   1.365  14.587  12.490  0.0894  0.3173  0.2709
14217W        W15081   2.084  13.216  12.046 -0.0851  0.0772 -0.0728
14218W        W15082   3.075  17.570  11.365  0.2101  0.2263 -0.2549
14219W        W15083   2.504  17.396  14.549  0.2393  0.0369 -0.3141
14220W        W15084  27.871  15.849  14.666 -0.2565  0.2065  0.1121
14221W        W15085   3.211  18.310  10.772  0.0900  0.2889 -0.1864
14222W        W15086   2.574  18.209   9.522  0.0828  0.0379  0.1032
14223W        W15087   1.093  14.531  14.568  0.2378 -0.0154 -0.1672
14224W        W15088   2.348  14.928  13.375 -0.4246  0.0286  0.0719
14225W        W15089   4.362  13.631  14.149 -0.2380 -0.2201  0.1111
14226W        W15090   1.833  14.931  13.913 -0.0471 -0.3306  0.2719
14227W        W15091   3.106  16.434  11.739 -0.1642  0.0296 -0.2368
14228W        W15092  28.549  14.965  14.857  0.0684  0.0093  0.0350
14229W        W15093   0.813  17.355  10.722 -0.1128  0.0295  0.1909
14230W        W15094  27.350  14.444  13.900 -0.0391  0.0661  0.4846
14231W        W15095   1.551  15.331  13.219 -0.0463  0.1914  0.1284
14232W        W15096   4.199  16.444  14.351 -0.4659 -0.1703  0.1258
14233W        W15097   3.504  17.838  11.179 -0.6612 -0.2230  0.0174
14234W        W15098   1.527  18.871  12.914  0.1892  0.1604 -0.1312
14235W        W15099   1.439  14.649  13.065  0.1617 -0.0692  0.0395
14236W        W15100   1.014  18.284  10.964 -0.0138  0.0385 -0.4813
14237W        W15101   2.015  17.526  14.742  0.1743 -0.1916 -0.1970
14238W        W15102   1.371  14.999  14.849 -0.1628 -0.0303 -0.0901
14239W        W15103   2.216  17.079  12.883 -0.3071  0.1745  0.3803
14240W        W15104   1.394  16.302  14.124 -0.1745 -0.1876  0.2103
14241W        W15105   2.782  16.834  11.872  0.0707  0.2034 -0.1755
14242W        W15106   1.002  13.720  10.837  0.1777  0.2164  0.3095
14243W        W15107   0.846  16.388  11.611  0.2674  0.2279  0.2349
14244W        W15108   4.842  14.729  15.790  0.2832 -0.0844  0.0601
14245W        W15109   2.446  16.170  13.663  0.0136 -0.1829 -0.2634
14246W        W15110   4.588  15.438   9.812 -0.0693  0.0800  0.0142
14247W        W15111   3.199  14.944  12.924  0.0984  0.0483  0.0428
14248W        W15112   3.335  18.247  13.417  0.2496 -0.0785 -0.1522
14249W        W15113   3.652  19.229  12.327  0.1259  0.1159  0.1411
14250W        W15114  28.747  18.932  13.568  0.1114  0.1369 -0.1651
14251W        W15115  28.774  17.582  10.673  0.2050 -0.2403 -0.1455
14252W        W15116  27.960  15.035  13.685 -0.0927 -0.0283  0.1054
14253W        W15117   3.930  15.649  15.034 -0.2677  0.0197  0.1275
14254W        W15118   1.108  20.194  11.568  0.0556  0.0134  0.2324
14255W        W15119   0.698  13.096  10.832  0.0050  0.2725 -0.2453
14256W        W15120   5.443  17.591  12.012  0.0412 -0.2376 -0.1625
14257W        W15121   0.845  12.596  13.422  0.1461  0.1287  0.0057
14258W        W15122   1.324  18.417  13.429  0.1541 -0.0932  0.0891
14259W        W15123   3.284  13.709  11.368  0.3532 -0.1186  0.2721
14260W        W15124   3.533  12.909  15.384 -0.3207  0.4822  0.0970
14261W        W15125  28.581  16.091  12.180 -0.1189 -0.0300 -0.4297
14262W        W15126  28.821  13.889  14.250 -0.1271  0.1751 -0.4476
14263W        W15127   1.798  14.390  12.788  0.1700  0.0694  0.0128
14264W        W15128  28.974  19.690  10.933 -0.0081  0.0398 -0.1288
14265W        W15129   1.957  15.559  12.702  0.2947  0.2364  0.1286
14266W        W15130   3.695  17.529  10.358 -0.2820 -0.0988 -0.3548
14267W        W15131  26.824  18.877  12.462 -0.0187 -0.3151 -0.1178
14268W        W15132   0.052  16.388  14.541  0.0297 -0.0110 -0.3048
14269W        W15133   2.638  16.799  10.957 -0.0586 -0.0598 -0.0391
14270W        W15134   0.223  12.902  11.739  0.1387  0.0325 -0.0796
14271W        W15135   1.788  17.149  12.095  0.1152 -0.2705  0.2032
14272W        W15136   1.744  16.797  12.863  0.0479 -0.1672  0.1960
14273W        W15137   0.626  14.297  12.318 -0.0262  0.0123 -0.1583
14274W        W15138  28.199  17.071  11.221  0.0624 -0.3528 -0.2176
14275W        W15139   0.310  16.366  10.858  0.1988  0.0481 -0.0663
14276W        W15140   2.937  16.066  13.394  0.0938  0.1604  0.3505
14277W        W15141   2.722  15.679  10.264  0.3374  0.1884  0.1222
14278W        W15142   3.976  17.172  14.703 -0.0632  0.0612 -0.0225
14279W        W15143   3.421  16.102  13.154  0.0040  0.0079  0.0385
14280W        W15144   2.779  18.378  11.549 -0.2015 -0.1566 -0.2280
14281W        W15145   3.903  15.718  13.480 -0.1126 -0.2322 -0.2963
14282W        W15146   0.122  18.147  13.526  0.1725  0.2878  0.2511
14283W        W15147   1.321  15.092  12.858  0.2579 -0.1037  0.1184
14284W        W15148   4.425  13.645  11.144  0.2630  0.1059 -0.0414
14285W        W15149   2.321  13.618  13.531 -0.0859  0.1788  0.1374
14286W        W15150   0.905  16.705  12.552  0.1058  0.1457 -0.0579
14287W        W15151  27.860  14.411  14.129 -0.2123  0.0011 -0.2707
14288W        W15152  28.898  10.568  14.784 -0.0789 -0.1672 -0.1781
14289W        W15153   4.888  13.185  11.055  0.0180  0.2920  0.0162
14290W        W15154   3.923  15.302  15.999 -0.4951 -0.1152 -0.2396
14291W        W15155   4.261  13.372  13.212 -0.2202  0.1457  0.1250
14292W        W15156   2.641  18.528  12.048  0.0120  0.0047 -0.3730
14293W        W15157   1.530  13.908  12.330 -0.0554 -0.0493  0.1120
14294W        W15158   3.113  17.119  15.033  0.1068  0.0937 -0.0158
14295W        W15159   3.677  12.519  13.676  0.0968  0.1980 -0.3312
14296W        W15160   1.091  14.844  13.406 -0.0958  0.1137  0.0564
14297W        W15161   2.631  14.074  13.312  0.0224 -0.0274 -0.1860
14298W        W15162   1.466  20.326   9.522  0.0493  0.2074 -0.2820
14299W        W15163   2.532  15.767  11.381  0.3113 -0.2087  0.2226
14300W        W15164  28.809  14.215  13.319 -0.2231 -0.1433 -0.2006
14301W        W15165   2.554  14.671  10.798  0.1620  0.0265  0.0770
14302W        W15166   2.571  14.213  12.719  0.3416 -0.1126 -0.0915
14303W        W15167   0.468  18.737  16.136  0.2709  0.1541  0.2065
14304W        W15168   1.450  15.546  10.766  0.3045 -0.2135  0.2209
14305W        W15169   5.010  12.966  14.560  0.1203 -0.2091 -0.2847
14306W        W15170   4.357  18.284  10.494  0.2748  0.0834 -0.1364
14307W        W15171   0.472  17.262  13.966  0.0705  0.0225  0.0339
14308W        W15172   2.870  13.935   9.179  0.0300  0.3122  0.1267
14309W        W15173   3.152  16.556  13.203  0.0674  0.1115  0.1890
14310W        W15174   4.831  14.890  15.099  0.0197 -0.0790 -0.1810
14311W        W15175   1.626  15.908  14.866  0.2511 -0.0467 -0.0492
14312W        W15176   2.932  16.416  10.971  0.3149 -0.1660  0.1575
14313W        W15177   3.989  18.761  13.544 -0.2888 -0.2137 -0.1257
14314W        W15178   2.669  15.279  13.333  0.0967 -0.2443  0.0029
14315W        W15179   1.040  13.007  13.550 -0.0347  0.1427  0.0647
14316W        W15180   0.335  17.830  15.339  0.2644 -0.4221  0.1387
14317W        W15181   2.822  17.562  14.923 -0.0107  0.1378  0.1862
14318W        W15182   4.395  16.576  12.492  0.0425 -0.0060 -0.0936
14319W        W15183   2.360  18.214  11.758  0.2332  0.0936  0.0374
14320W        W15184   5.848  16.588  10.949  0.2977  0.1854 -0.1299
14321W        W15185   2.140  14.414  11.741 -0.3607 -0.0410  0.1027
14322W        W15186   4.750  14.045  16.325 -0.0038  0.1242  0.1856
14323W        W15187   0.762  14.914  14.627  0.1863  0.0616 -0.0006
14324W        W15188   0.030  12.518  13.404  0.1853  0.1280 -0.1010
14325W        W15189   4.618  14.076  10.986  0.1526 -0.2148 -0.1909
14326W        W15190   4.297  14.033  11.429 -0.1506 -0.1446 -0.1446
14327W        W15191   3.688  19.251  11.617 -0.3491 -0.1039 -0.2191
14328W        W15192   4.790  17.987   9.347  0.1928  0.0061  0.1297
14329W        W15193   0.627  14.171  10.824 -0.0252 -0.2585 -0.0291
14330W        W15194   3.290  17.014  12.312  0.0699 -0.0457  0.1419
14331W        W15195   3.491  16.735  11.715 -0.2491  0.0128 -0.0737
14332W        W15196   1.415  17.055  11.797 -0.3173  0.2420  0.1794
14333W        W15197   2.141  13.144  13.059 -0.1568  0.1758  0.0987
14334W        W15198   3.775  16.847  14.347 -0.1660  0.0955 -0.0449
14335W        W15199   1.289  17.556  11.632 -0.2227 -0.0462 -0.0406
14336W        W15200   3.662  17.701  11.895  0.2071 -0.1097  0.0403
14337W        W15201   1.531  14.490  14.131 -0.0807 -0.0963 -0.0155
14338W        W15202   1.112  17.115  12.287 -0.1864  0.0382  0.3433
14339W        W15203   1.764  14.362  12.164  0.1913  0.1455 -0.0213
14340W        W15204   3.221  13.352  13.951  0.1016 -0.1042  0.1504
14341W        W15205  28.077  14.576  13.727 -0.0465 -0.0516  0.0616
14342W        W15206   2.526  16.281  13.137 -0.3335 -0.1161  0.0262
14343W        W15207   5.662  15.281  14.844 -0.1074  0.4677  0.0315
14344W        W15208   1.276  17.645  11.074 -0.1047 -0.1294  0.0704
14345W        W15209   1.356  16.579  10.786  0.0502 -0.0610  0.1512
14346W        W15210   2.897  15.786  11.846  0.0919 -0.3408 -0.0881
14347W        W15211   2.107  14.059  13.474  0.3667 -0.0837  0.0833
14348W        W15212  28.414  15.409  11.065 -0.2210 -0.0209 -0.0608
14349W        W15213   0.246  14.945   9.776 -0.2114 -0.2882 -0.0877
14350W        W15214   2.943  15.885  15.288 -0.1768 -0.4310 -0.2910
14351W        W15215   4.399  15.072  10.114  0.3898  0.0660 -0.1604
14352W        W15216   2.897  15.333  12.864 -0.0277 -0.2326  0.0490
14353W        W15217   2.293  17.647  12.079 -0.1153  0.1372 -0.1117
14354W        W15218   2.215  17.314  12.437  0.1737  0.1313  0.0176
14355W        W15219  28.702  17.669  11.986  0.0034 -0.2018  0.1293
14356W        W15220   0.577  15.744  14.283  0.0034 -0.0117  0.1686
14357W        W15221   3.160  14.063  13.282  0.2116 -0.0319  0.1444
14358W        W15222  28.731  16.788  11.334 -0.0263  0.1879 -0.3217
14359W        W15223   0.144  15.110  11.911 -0.3323 -0.3107  0.0715
14360W        W15224   2.243  16.335  12.331  0.0846 -0.1974  0.0022
14361W        W15225   1.417  15.348  14.130  0.2028  0.0911  0.3179
14362W        W15226  26.851  16.362  11.787  0.1502  0.2571 -0.4174
14363W        W15227   2.603  14.888  11.271 -0.2781 -0.0534  0.0564
14364W        W15228  28.397  11.199  12.338  0.1347 -0.0526 -0.0138
14365W        W15229   2.175  15.333  12.206 -0.1385 -0.0854 -0.3526
14366W        W15230   3.318  13.725  14.265  0.0222 -0.0585 -0.0667
14367W        W15231  28.339  16.202  13.629 -0.3395 -0.2068 -0.2513
14368W        W15232   3.995  15.216  15.330  0.1941 -0.1020  0.1703
14369W        W15233   2.448  16.668  13.843  0.2815  0.2318 -0.3062
14370W        W15234   2.569  12.355  15.102 -0.0029  0.0275 -0.0696
14371W        W15235   1.025  14.690  12.813 -0.0429  0.4429 -0.2210
14372W        W15236  29.137  13.221  12.518  0.1795  0.2281  0.1844
14373W        W15237   0.498  18.683  10.245 -0.3066 -0.1178 -0.1367
14374W        W15238   3.257  17.857  12.666 -0.0085 -0.2687  0.2774
14375W        W15239  27.086  18.160  12.902 -0.2059 -0.0783 -0.0927
14376W        W15240   3.931  16.867  10.965  0.0200  0.0601 -0.0790
14377W        W15241   0.627  14.027  13.587 -0.1146  0.0828 -0.1386
14378W        W15242  28.251  16.714  10.736 -0.0881 -0.1117 -0.1478
14379W        W15243   3.425  17.250  10.739 -0.1101  0.0529 -0.0847
14380W        W15244   3.327  15.221  10.524 -0.2018  0.4708 -0.2300
14381W        W15245   5.152  14.237  10.969  0.2814  0.0025 -0.1154
14382W        W15246   1.384  17.418  10.031  0.0624 -0.0588 -0.1403
14383W        W15247   1.123  18.844  14.304  0.0181  0.2458 -0.2442
14384W        W15248  29.045  16.362  11.184 -0.1122 -0.1164 -0.2021
14385W        W15249   1.827  14.872  12.393  0.0193 -0.1429  0.1623
14386W        W15250   3.523  16.953  11.263 -0.1093  0.2186 -0.1807
14387W        W15251   2.541  17.282  11.036  0.1320 -0.2304 -0.1720
14388W        W15252   3.549  16.442  12.170 -0.1332 -0.2923 -0.1346
14389W        W15253   0.545  15.963  11.731  0.0602  0.0744  0.2868
14390W        W15254   1.411  15.142   8.707  0.0329  0.2165 -0.2625
14391W        W15255   0.347  17.189  14.504  0.2563 -0.0190  0.0670
14392W        W15256   0.825  17.290  11.891  0.3376  0.0225 -0.2236
14393W        W15257   0.308  12.888  12.228 -0.0853  0.0051 -0.1296
14394W        W15258   1.798  16.025  14.028  0.1181 -0.0594 -0.0489
14395W        W15259  28.021  18.518  14.860 -0.1800 -0.0108  0.3340
14396W        W15260   1.303  15.210  10.391 -0.5115 -0.1178 -0.1854
14397W        W15261   0.093  18.348  12.587 -0.2781 -0.1894  0.2434
14398W        W15262   0.416  15.841  15.246 -0.0410  0.1467  0.0878
14399W        W15263   2.728  11.867  14.638 -0.0502  0.0064  0.2766
14400W        W15264   2.408  17.530  17.394  0.0597 -0.1275 -0.0364
14401W        W15265   2.306  15.249  12.948 -0.1616 -0.1956  0.1048
14402W        W15266  28.155  13.296  17.004 -0.0246 -0.0564  0.1345
14403W        W15267   0.149  12.770  15.041 -0.0989 -0.0197 -0.0291
14404W        W15268   1.624  14.261  13.331 -0.2813 -0.2645 -0.0990
14405W        W15269   2.311  15.018  11.661  0.1426  0.3335  0.0077
14406W        W15270   3.615  15.123  10.902  0.0347  0.1032 -0.0365
14407W        W15271   1.953  14.165  14.357  0.0129 -0.0769  0.2633
14408W        W15272   6.268  16.874  12.813 -0.1757  0.2896 -0.0629
14409W        W15273   3.026  15.705  11.184 -0.0950  0.3710 -0.4217
14410W        W15274   0.710  16.884  13.135  0.1006  0.2479  0.2067
14411W        W15275   1.389  15.533  11.297 -0.1105  0.5013  0.1037
14412W        W15276  28.780  13.455  14.558  0.1904  0.1307  0.1105
14413W        W15277   1.229  16.160  13.061 -0.1207 -0.0679 -0.2064
14414W        W15278   1.109  17.783  12.263  0.3099 -0.1288  0.1612
14415W        W15279  24.937  15.893  11.616 -0.1324  0.1439 -0.1717
14416W        W15280  28.890  15.533  14.635 -0.2175 -0.0082 -0.0563
14417W        W15281  26.735  15.343  13.844 -0.0207  0.2252 -0.2173
14418W        W15282   2.747  17.214  12.266  0.0040  0.1477 -0.0008
14419W        W15283   0.808  14.534  13.730  0.2484 -0.0995 -0.0113
14420W        W15284   2.255  14.493  14.116 -0.0965 -0.1534 -0.0563
14421W        W15285   3.771  16.197  10.818 -0.0031 -0.1853  0.2312
14422W        W15286   1.664  14.800  13.497 -0.5011  0.3085 -0.0789
14423W        W15287   3.157  18.721  10.295  0.1846 -0.0095 -0.0842
14424W        W15288   4.221  16.558  13.700 -0.0427  0.0602  0.4492
14425W        W15289  28.482  16.386  12.630 -0.0652  0.0711  0.0291
14426W        W15290   3.537  14.996  15.179  0.1721  0.0696 -0.1989
14427W        W15291   2.768  16.293  12.501  0.0648 -0.0429 -0.2385
14428W        W15292   1.933  17.250  14.273  0.0119 -0.4190 -0.3955
14429W        W15293   2.704  13.457  11.976 -0.1144  0.1566  0.1576
14430W        W15294   2.861  13.616  13.468  0.0511 -0.1798 -0.1823
14431W        W15295  27.109  14.844  16.165  0.0663  0.0414  0.0357
14432W        W15296   0.209  15.460  14.929 -0.4807 -0.3119  0.0021
14433W        W15297   3.153  12.843  11.207  0.1912  0.2062  0.3222
14434W        W15298  29.138  17.628   9.722  0.3410 -0.0511  0.1085
14435W        W15299   1.045  14.345  13.265  0.0097 -0.2823  0.3065
14436W        W15300   1.275  16.607  12.857  0.1245  0.1924  0.1041
14437W        W15301  28.769  16.268  15.332 -0.1496 -0.3621  0.0722
14438W        W15302   1.505  18.062  12.410 -0.2612  0.2067  0.3434
14439W        W15303   1.465  15.672  10.239  0.1492  0.0919  0.2234
14440W        W15304  27.728  14.872  14.094  0.0736 -0.0986 -0.0112
14441W        W15305   1.285  18.013  10.677 -0.3903  0.1193  0.3256
14442W        W15306  28.225  15.921  12.521 -0.2185 -0.1618 -0.0465
14443W        W15307   2.888  15.708  14.291  0.4404  0.1868 -0.3407
14444W        W15308   4.076  14.694  13.948  0.0321  0.4205 -0.0224
14445W        W15309   4.389  20.094  10.493  0.0583  0.1832  0.0855
14446W        W15310  29.099  17.273  14.019 -0.0593  0.1561  0.2535
14447W        W15311  28.119  19.122  15.804  0.1366  0.0016 -0.0054
14448W        W15312   3.908  16.605  12.590  0.2440 -0.1658  0.3123
14449W        W15313   0.234  13.895  10.695 -0.1504 -0.5223  0.2735
14450W        W15314   3.676  13.081  13.911 -0.1192 -0.1293  0.1295
14451W        W15315   2.452  15.256  10.034 -0.2284  0.1180  0.0144
14452W        W15316   5.643  15.965  14.139 -0.2820 -0.1801  0.0172
14453W        W15317  28.643  18.053  15.200 -0.3032  0.1335  0.0236
14454W        W15318   4.539  16.183  13.897 -0.1426  0.1337 -0.0692
14455W        W15319   1.285  16.754  13.323 -0.1784 -0.0420 -0.0519
14456W        W15320   0.053  18.489  10.093  0.3324 -0.0391  0.3682
14457W        W15321  28.756  16.913  12.586  0.1429 -0.1559  0.3424
14458W        W15322   1.853  15.008  13.016 -0.1249 -0.0966 -0.0415
14459W        W15323   4.745  16.418  13.447  0.1000 -0.2142 -0.1233
14460W        W15324   0.825  14.321  10.355 -0.0050  0.2734 -0.1170
14461W        W15325   1.649  19.381   9.125  0.2421  0.0511 -0.0727
14462W        W15326   6.540  16.421  11.019  0.2518  0.1307  0.1352
14463W        W15327   4.384  12.362  14.650  0.1495 -0.0228 -0.1921
14464W        W15328   3.108  17.562   9.660  0.2013 -0.2902  0.0408
14465W        W15329   4.903  14.795  11.162 -0.0064  0.0698  0.0103
14466W        W15330   1.978  15.560  13.267  0.2583  0.3329 -0.0434
14467W        W15331   2.182  14.642  14.625  0.1036  0.0660 -0.0480
14468W        W15332   0.949  15.576  11.024  0.1874 -0.3014 -0.0154
14469W        W15333   2.659  16.527  11.445 -0.1121 -0.1019  0.0332
14470W        W15334   1.733  20.075  11.561 -0.2466  0.0991  0.1459
14471W        W15335   2.011  16.515  15.302  0.2828 -0.0943 -0.0470
14472W        W15336  26.784  16.109  13.147  0.2342 -0.1307  0.0011
14473W        W15337   3.473  18.955  11.959 -0.1201  0.1099 -0.0495
14474W        W15338   0.684  15.183  14.171 -0.1935  0.1395 -0.0944
14475W        W15339   2.647  17.698  13.662  0.1692  0.1810  0.2034
14476W        W15340   4.095  17.412   9.602 -0.0088  0.2247 -0.1129
14477W        W15341   2.350  11.860  13.045 -0.4194  0.0599  0.2139
14478W        W15342  29.117  15.499  12.675  0.0471 -0.1402  0.0733
14479W        W15343   0.855  15.981  13.642 -0.0292  0.0506 -0.2454
14480W        W15344   1.050  16.646  12.028  0.0318 -0.0823  0.4749
14481W        W15345   2.241  15.429  15.814 -0.0596 -0.2124 -0.2033
14482W        W15346   1.874  14.455  13.759 -0.2346  0.1606 -0.0574
14483W        W15347   1.072  15.263  18.001 -0.1318  0.0138 -0.2010
14484W        W15348   0.557  15.283  12.368  0.2225 -0.2378  0.1850
14485W        W15349  28.262  20.628  11.857 -0.1028  0.1169  0.1896
14486W        W15350   2.220  17.875  13.488 -0.0296  0.0174  0.0686
14487W        W15351   0.891  16.049  11.302  0.0026  0.1924  0.2198
14488W        W15352   3.080  14.956  11.762 -0.0746  0.1869  0.1427
14489W        W15353  28.602  16.708  12.119 -0.1761 -0.0366  0.0182
14490W        W15354   2.455  19.065  11.334  0.1470 -0.4538  0.0985
14491W        W15355   3.849  13.721  14.016 -0.1617  0.2840  0.0209
14492W        W15356   2.154  17.962  10.322 -0.1733 -0.0734  0.0284
14493W        W15357  26.980  15.097  14.931  0.0776 -0.2798 -0.2453
14494W        W15358   3.546  14.684  11.994 -0.0241 -0.1064 -0.4415
14495W        W15359   3.779  15.562  11.853  0.1813 -0.3266 -0.0866
14496W        W15360   3.083  11.659  11.347 -0.2402  0.1030  0.1185
14497W        W15361   2.895  14.121  11.437 -0.0434 -0.3677  0.1463
14498W        W15362   1.381  12.802  13.189  0.0224  0.3117 -0.2189
14499W        W15363  27.308  15.234  15.260 -0.2127 -0.1241 -0.0996
14500W        W15364   3.536  17.562  13.002  0.0880  0.0179 -0.3536
14501W        W15365   0.684  16.403  12.896 -0.0022  0.0891  0.4211
14502W        W15366   0.247  14.123  13.146  0.0575 -0.3917 -0.2935
14503W        W15367   3.459  16.175  12.621 -0.2005 -0.2807 -0.2280
14504W        W15368   5.066  14.298  13.820  0.3761  0.1320  0.0570
14505W        W15369   0.954  19.111  13.771  0.0687  0.0913 -0.2242
14506W        W15370   0.759  20.559   7.240  0.1574  0.1741  0.3882
14507W        W15371  27.758  13.301  13.404 -0.0986  0.0945 -0.2646
14508W        W15372  28.597  17.840  12.863 -0.0255 -0.3047  0.1021
14509W        W15373   2.342  18.019  11.276  0.2716 -0.1826  0.2142
14510W        W15374   3.285  17.960  11.655 -0.0692  0.3238  0.0383
14511W        W15375   2.616  18.646  14.186 -0.2414  0.2600 -0.3035
14512W        W15376   1.725  17.479  13.418  0.0028 -0.0409  0.1141
14513W        W15377   1.109  13.317  13.113  0.3240 -0.1477 -0.1264
14514W        W15378   1.616  13.813  13.488  0.0388  0.3034  0.1332
14515W        W15379  27.129  14.607  13.460  0.1734 -0.0901  0.0819
14516W        W15380   2.219  13.009  12.532  0.2036  0.1191 -0.3329
14517W        W15381   3.564  19.052  15.925  0.0359  0.0244 -0.1388
14518W        W15382   2.923  14.565  12.703  0.0593 -0.0006 -0.0967
14519W        W15383   1.995  16.848  12.413 -0.1217 -0.1147  0.5001
14520W        W15384   1.706  16.287  14.535  0.1961 -0.3234 -0.0247
14521W        W15385   0.891  18.113  15.163 -0.0578 -0.0998 -0.0114
14522W        W15386   2.831  13.160  13.715 -0.0950  0.1217  0.0669
14523W        W15387   4.388  16.193  11.555  0.1413 -0.3725 -0.3234
14524W        W15388  28.853  15.457  14.094  0.2490 -0.1911 -0.0275
14525W        W15389   0.922  16.720   9.601  0.0392 -0.1331  0.4013
14526W        W15390   2.135  17.611  12.929 -0.1402 -0.1081  0.0256
14527W        W15391   4.004  17.618  11.441  0.0982  0.5518  0.0044
14528W        W15392   0.329  14.780  13.845 -0.3154 -0.1667  0.0869
14529W        W15393   2.310  17.117  11.986  0.0609  0.1205 -0.2393
14530W        W15394  28.297  17.265  12.239  0.1500  0.2026 -0.4621
14531W        W15395  29.039  15.874  15.131 -0.0331  0.0793  0.3305
14532W        W15396   5.622   8.853  11.081 -0.1470  0.0635  0.1157
14533W        W15397  26.159  17.132  11.602 -0.3021  0.0434  0.1009
14534W        W15398   3.063  16.374  10.108  0.0129 -0.1833  0.2533
14535W        W15399   0.632  15.931  13.139 -0.0944 -0.4678  0.1451
14536W        W15400   2.986  12.886  15.413 -0.0655 -0.1803  0.1051
14537W        W15401   4.035  13.830   9.395  0.3113 -0.1144 -0.0991
14538W        W15402   4.259  17.130  17.797  0.0761  0.0453 -0.2088
14539W        W15403   2.790  16.701  14.251  0.1199  0.0283 -0.0980
14540W        W15404   0.872  15.550  13.933 -0.1419 -0.0041  0.2562
14541W        W15405   2.440  17.838  14.761  0.2781 -0.2417  0.2096
14542W        W15406   1.651  16.714  11.316 -0.2196 -0.0186 -0.2023
14543W        W15407   0.602  16.220  10.461  0.1914  0.0659 -0.1915
14544W        W15408   3.060  13.948  11.869 -0.1007  0.1126 -0.0715
14545W        W15409   1.466  15.666   9.455  0.1981 -0.0017  0.1407
14546W        W15410  27.041  17.658  11.505  0.0746  0.0475 -0.1102
14547W        W15411   0.444  15.657  13.571 -0.1877  0.2195 -0.3995
14548W        W15412   1.294  12.488  13.560  0.3703 -0.2009 -0.2407
14549W        W15413   1.700  17.910  10.914  0.2572 -0.0477  0.3143
14550W        W15414   1.612  17.754  13.887  0.1171  0.0681  0.0271
14551W        W15415   1.073  18.733  13.131 -0.1878  0.2455 -0.1119
14552W        W15416   2.909  16.814  12.804 -0.0154  0.0543  0.2087
14553W        W15417   0.665  15.332  13.214  0.1542 -0.1598  0.0791
14554W        W15418  28.784  16.250  14.772  0.0294 -0.0695 -0.1173
14555W        W15419   1.891  14.459  10.286  0.0597  0.1233 -0.1301
14556W        W15420   2.864  16.680  13.610 -0.1453  0.0171  0.0482
14557W        W15421   3.542  16.023  13.938 -0.1747 -0.1371 -0.1233
14558W        W15422  28.975  18.927  10.909 -0.1501 -0.1322 -0.0003
14559W        W15423   2.926  19.575  10.825 -0.2574  0.0879 -0.0770
14560W        W15424   1.714  19.612  10.594 -0.1002  0.1763  0.0152
14561W        W15425   1.212  13.280  10.953 -0.1573  0.0099 -0.1628
14562W        W15426   0.914  17.999  11.564  0.1176  0.0214  0.2335
14563W        W15427   2.962  15.330  12.322 -0.0642  0.1176 -0.0948
14564W        W15428  26.756  14.230  15.045 -0.4363  0.3478  0.2925
14565W        W15429   0.160  17.424  15.025 -0.2877 -0.1322 -0.0198
14566W        W15430   4.763  13.862  11.827  0.1703 -0.0241 -0.2557
14567W        W15431   2.504  14.533  13.604  0.0689  0.2489  0.3031
14568W        W15432   0.966  16.902  11.586 -0.2041 -0.0638  0.0053
14569W        W15433   4.766  12.302  12.634 -0.0747  0.0787  0.0334
14570W        W15434  28.976  17.993  11.749 -0.0627 -0.2598 -0.1688
14571W        W15435   4.935  15.521  13.508 -0.1091  0.1517 -0.5118
14572W        W15436   3.428  19.524   9.734 -0.0565  0.0809  0.1415
14573W        W15437   2.069  19.095  13.147 -0.1691  0.1355 -0.2315
14574W        W15438   3.724  12.973  13.402 -0.1970  0.0120 -0.0149
14575W        W15439   4.483  14.879  11.743  0.0942 -0.0616  0.3755
14576W        W15440   0.438  17.389   8.779 -0.1095  0.0683 -0.0712
14577W        W15441   3.402  15.661  12.227  0.2816  0.0159 -0.1409
14578W        W15442   4.679  17.148   9.650 -0.0250 -0.3552 -0.0917
14579W        W15443   1.448  17.462  12.528 -0.0793  0.3389 -0.2062
14580W        W15444   1.721  18.284  10.530 -0.0593  0.2099  0.0201
14581W        W15445  28.455  13.043  14.458 -0.1090  0.0829  0.0742
14582W        W15446  28.533  14.762  13.503  0.0856  0.2122  0.2724
14583W        W15447   0.127  16.814  11.023  0.1525  0.1903  0.0215
14584W        W15448   3.423  15.435  14.096 -0.1390  0.1636  0.1171
14585W        W15449   0.513  19.173  13.342 -0.0483 -0.1982  0.1364
14586W        W15450   0.803  14.705  14.192 -0.2373 -0.0371  0.1527
14587W        W15451  27.575  16.577  12.937 -0.0906 -0.0472  0.1418
14588W        W15452   2.089  16.077  13.318  0.1935  0.1173 -0.1140
14589W        W15453   2.223  16.189  11.315 -0.2723 -0.1263  0.2064
14590W        W15454   2.371  19.455  14.619  0.0919  0.0973  0.1186
14591W        W15455   5.889  13.186  14.887  0.0542  0.1303  0.0136
14592W        W15456   1.170  20.384  13.092  0.4086 -0.0220  0.1182
14593W        W15457   2.478  17.012  11.441  0.2470  0.0344 -0.1385
14594W        W15458   0.273  19.266  12.370 -0.1271 -0.1421 -0.1990
14595W        W15459   2.981  16.191  12.901 -0.1450 -0.2427 -0.1838
14596W        W15460   1.464  16.551  11.728  0.1991 -0.0120 -0.1442
14597W        W15461   0.122  15.597  10.028 -0.0487 -0.0347 -0.1511
14598W        W15462   2.726  14.441  12.225 -0.1244  0.2586  0.1042
14599W        W15463   1.902  17.403  11.659 -0.0690 -0.3065 -0.1943
14600W        W15464  28.992  16.604  12.870  0.2221  0.2747  0.2868
14601W        W15465   0.919  14.922  15.135 -0.1690 -0.1943 -0.3059
14602W        W15466   1.219  17.073  10.835 -0.0663 -0.0999 -0.0042
14603W        W15467   1.708  17.475  15.303 -0.1110 -0.1926 -0.0134
14604W        W15468   1.162  16.261  10.491  0.2133 -0.3633 -0.1721
14605W        W15469  28.930  18.912  10.140  0.1839 -0.0298  0.3604
14606W        W15470  27.267  18.474  17.935  0.0312  0.2503 -0.1076
14607W        W15471   0.500  18.278  15.532  0.0468 -0.1750  0.3091
14608W        W15472   2.523  18.369  16.859 -0.2901 -0.3406  0.0424
14609W        W15473   1.493  17.817  14.986 -0.0632 -0.0450  0.4122
14610W        W15474   3.153  17.361  13.606 -0.0323 -0.4298 -0.0287
14611W        W15475  28.650  20.646  17.872 -0.1235 -0.1236  0.1377
14612W        W15476   3.374  19.119  14.618 -0.0205 -0.1249 -0.0417
14613W        W15477   0.026  19.075  15.988 -0.2269  0.0274  0.0786
14614W        W15478  28.448  10.268  16.817  0.0471  0.0150 -0.0693
14615W        W15479   2.235  13.784  15.752 -0.0005 -0.0256 -0.0245
14616W        W15480   4.736  17.990  17.892  0.2912  0.0658 -0.0180
14617W        W15481   3.003  14.153  14.145  0.1468 -0.0974 -0.0769
14618W        W15482  28.854  13.893  15.367  0.1138  0.2008  0.0723
14619W        W15483   0.772  14.542  17.961 -0.1544  0.3589 -0.0644
14620W        W15484   2.585  19.364  15.975  0.0463 -0.2019 -0.2109
14621W        W15485  28.416  15.716  14.353  0.0253 -0.0587 -0.1570
14622W        W15486   0.956  14.446  15.916 -0.0547  0.1716 -0.0223
14623W        W15487  28.101  16.463  16.321 -0.2861 -0.1749  0.0588
14624W        W15488   1.479  18.788  16.328  0.0003 -0.0181 -0.1113
14625W        W15489   4.017  16.369  19.197  0.1259 -0.2673  0.0352
14626W        W15490   0.326  14.822  14.360 -0.1938 -0.0260 -0.0212
14627W        W15491   1.588  19.021  15.910  0.1364  0.0087 -0.0797
14628W        W15492  27.638  17.151  18.033 -0.0693  0.2607 -0.4270
14629W        W15493   1.116  14.869  17.723 -0.0001  0.2896 -0.2169
14630W        W15494  28.845  15.728  16.922 -0.0978  0.1116 -0.1408
14631W        W15495   4.345  15.163  16.923 -0.0116 -0.3276  0.2084
14632W        W15496   0.739  18.695  15.716 -0.2511 -0.2545 -0.0967
14633W        W15497   2.259  18.925  18.095  0.2742 -0.1028  0.2163
14634W        W15498   1.423  15.865  14.401 -0.0348 -0.1625  0.1472
14635W        W15499   0.295  15.296  15.430 -0.1857 -0.1554  0.0395
14636W        W15500   1.429  14.021  18.025  0.2365 -0.0768 -0.2864
14637W        W15501   0.537  15.814  19.398 -0.1748  0.0127 -0.0107
14638W        W15502  27.493  18.981  17.784  0.0967 -0.0321 -0.3639
14639W        W15503   0.650  13.842  19.371 -0.1006  0.0620 -0.0152
14640W        W15504   4.221  19.144  17.300  0.0303 -0.0786  0.1466
14641W        W15505  28.724  14.620  14.543  0.0414 -0.0505 -0.2435
14642W        W15506   1.275  17.173  16.876 -0.2815 -0.2434 -0.0448
14643W        W15507   4.056  17.844  16.298  0.3918  0.3504  0.4403
14644W        W15508   4.577  18.860  19.068 -0.2310 -0.1076  0.4207
14645W        W15509   3.784  13.873  14.526 -0.1332  0.2183  0.1968
14646W        W15510   4.387  15.662  17.147  0.0486  0.0362  0.0261
14647W        W15511   1.250  20.381  15.859  0.0142 -0.2901 -0.1136
14648W        W15512   3.821  19.198  15.054 -0.4377  0.2558  0.1261
14649W        W15513  28.385  18.894  16.679 -0.4307  0.1932  0.0776
14650W        W15514   2.719  17.145  15.340  0.6400 -0.0431 -0.0486
14651W        W15515   1.711  16.019  17.534  0.0434 -0.1485  0.1459
14652W        W15516   3.429  18.187  18.881  0.2093 -0.1139  0.0583
14653W        W15517   2.132  16.191  14.870 -0.2896 -0.0160  0.1990
14654W        W15518   2.616  15.621  15.052  0.3140 -0.0941  0.0316
14655W        W15519   5.710  18.717  16.396 -0.2038  0.2142 -0.1101
14656W        W15520   0.009  14.282  16.192 -0.2071  0.2716 -0.3082
14657W        W15521   1.231  16.070  16.333 -0.2233  0.1041 -0.1254
14658W        W15522   3.549  15.056  11.658  0.1229  0.2676  0.2337
14659W        W15523   1.288  15.834  13.866 -0.2101 -0.2224 -0.0578
14660W        W15524   3.333  14.911  13.372  0.0590  0.0755 -0.1888
14661W        W15525  26.004  13.751  15.695 -0.5149 -0.0469  0.1282
14662W        W15526   2.139  15.207  15.290 -0.3410  0.0793 -0.5465
14663W        W15527   2.888  16.666  15.137 -0.0115  0.1437 -0.1138
14664W        W15528   1.923  17.023  13.303 -0.1091 -0.0007 -0.0328
14665W        W15529   3.666  16.408  14.562  0.0172 -0.1947 -0.1083
14666W        W15530  28.735  13.555  17.587  0.2833  0.2693  0.1220
14667W        W15531  28.181  18.053  18.218  0.2060 -0.2016  0.0176
14668W        W15532   0.801  16.258  15.249 -0.2212 -0.1078 -0.2512
14669W        W15533  27.507  14.137  14.322  0.2570  0.1463 -0.0360
14670W        W15534   1.723  16.113  15.327 -0.0729  0.1322  0.0095
14671W        W15535   0.108  15.680  15.604  0.0872 -0.1741 -0.0272
14672W        W15536  28.578  18.020  16.695  0.2095 -0.2145 -0.3591
14673W        W15537   0.624  19.561  15.612  0.4022  0.0348  0.1498
14674W        W15538   1.236  15.594  14.862 -0.4300  0.1476 -0.0206
14675W        W15539   2.874  18.736  18.932 -0.1143  0.1526  0.1564
14676W        W15540   0.526  16.759  17.160  0.1138 -0.0232 -0.0822
14677W        W15541   5.610  17.588  18.353 -0.2317  0.1977  0.1410
14678W        W15542   4.900  16.234  19.039 -0.1384 -0.0250 -0.0990
14679W        W15543   4.338  18.699  16.822 -0.1882  0.3352  0.1496
14680W        W15544   2.351  17.269  16.073 -0.1723 -0.0318  0.0622
14681W        W15545   0.905  15.844  15.426 -0.0070  0.3585 -0.2525
14682W        W15546   0.298  18.599  18.475  0.4776 -0.2888  0.1765
14683W        W15547   4.225  18.283  16.470 -0.0377  0.1463 -0.2957
14684W        W15548   4.439  17.124  15.008 -0.1080  0.0280  0.1548
14685W        W15549   0.609  16.733  17.637  0.0526  0.2515 -0.0137
14686W        W15550   0.239  14.585  19.734 -0.0807  0.0362  0.3085
14687W        W15551   0.476   9.785  17.773  0.1675 -0.0472  0.0552
14688W        W15552   0.888  13.142  15.420 -0.0697  0.2932  0.3175
14689W        W15553   2.292  14.106  17.432  0.0702  0.1181 -0.0510
14690W        W15554   2.047  13.816  14.688  0.1845 -0.0864  0.1206
14691W        W15555   2.455  17.063  17.677  0.0613 -0.1105 -0.1443
14692W        W15556   1.083  15.743  16.754 -0.0683  0.1514  0.1530
14693W        W15557   4.644  17.315  18.162 -0.1377  0.2211 -0.0043
14694W        W15558   0.570  14.578  16.754 -0.0685 -0.0494 -0.2229
14695W        W15559   0.383  14.427  15.305  0.1726  0.0181 -0.0467
14696W        W15560   2.094  17.018  18.523 -0.0277 -0.0287  0.2141
14697W        W15561   1.317  19.328  17.024 -0.1494 -0.3170  0.1343
14698W        W15562   1.821  15.457  17.215 -0.0961 -0.1622  0.2421
14699W        W15563   0.696  16.677  15.630  0.1969 -0.0829 -0.2116
14700W        W15564   4.392  14.847  15.331  0.0560  0.0851  0.0691
14701W        W15565   4.018  18.178  15.179 -0.1541 -0.0267  0.1021
14702W        W15566   1.913  20.979  17.004 -0.0653  0.4195 -0.0421
14703W        W15567  29.026  13.375  14.144  0.0794  0.0192 -0.0903
14704W        W15568   1.941  16.771  16.491 -0.0836  0.1116  0.0598
14705W        W15569   3.843  17.632  14.174 -0.1005  0.1347 -0.1976
14706W        W15570   0.655  15.855  16.994  0.0437 -0.2955  0.1246
14707W        W15571   3.947  16.471  16.209 -0.0237 -0.0269  0.1897
14708W        W15572   2.686  20.360  15.920  0.0263 -0.0241 -0.0096
14709W        W15573   2.962  16.572  16.364 -0.2035 -0.2315  0.2274
14710W        W15574   2.726  17.547  16.441  0.2091 -0.0542  0.1345
14711W        W15575   0.144  16.721  13.249  0.1676  0.1036  0.0179
14712W        W15576   3.557  17.210  18.383 -0.0071 -0.0203 -0.0999
14713W        W15577   1.759  13.325  14.661  0.2091 -0.0923  0.0304
14714W        W15578  27.861  13.680  16.152 -0.1088 -0.1343 -0.0093
14715W        W15579  28.630  14.806  18.021 -0.0557 -0.2551  0.1554
14716W        W15580   0.960  17.906  16.098  0.2254  0.0271 -0.3839
14717W        W15581   3.114  17.821  16.344 -0.1157 -0.0318 -0.4111
14718W        W15582   2.656  17.416  18.762 -0.2811  0.0106  0.2065
14719W        W15583   4.020  17.302  13.067  0.1055 -0.1968 -0.1464
14720W        W15584   0.250  13.712  13.423  0.0417  0.1183 -0.0525
14721W        W15585   1.417  15.987  18.344 -0.3880  0.0096 -0.0907
14722W        W15586  28.459  19.422  15.536  0.2399  0.2982 -0.2240
14723W        W15587   2.653  16.241  16.037  0.1893 -0.2375 -0.1124
14724W        W15588   2.116  15.668  14.951 -0.0380  0.1136  0.1073
14725W        W15589   2.803  16.778  15.784  0.0982  0.0234  0.1271
14726W        W15590   2.569  15.884  15.672 -0.0945  0.2661 -0.1637
14727W        W15591   3.635  16.649  15.838 -0.3398  0.1384  0.0255
14728W        W15592   0.773  14.921  15.984  0.2068  0.3260  0.1140
14729W        W15593   0.785  17.408  16.258  0.0860  0.1363  0.0772
14730W        W15594   4.358  14.647  15.755 -0.2899  0.1686  0.1779
14731W        W15595   1.408  13.295  15.851 -0.1439  0.1567 -0.0075
14732W        W15596   4.020  16.409  17.287  0.0361  0.2477 -0.0167
14733W        W15597   3.396  17.810  16.823 -0.0273 -0.1367 -0.1471
14734W        W15598   0.654  17.748  14.892 -0.0491  0.1546 -0.0065
14735W        W15599   1.800  18.278  15.223  0.0760  0.1859  0.0200
14736W        W15600   1.304  16.746  17.116 -0.4167 -0.1025  0.2149
14737W        W15601  27.249  15.751  15.452  0.1583 -0.1109  0.0716
14738W        W15602   1.318  15.296  15.867 -0.1968  0.0327  0.0278
14739W        W15603   3.005  19.625  16.091  0.1893  0.1686 -0.0440
14740W        W15604   0.837  16.854  18.073 -0.0405  0.1101 -0.1727
14741W        W15605   1.948  13.604  16.719 -0.0443 -0.0312  0.1150
14742W        W15606   1.520  17.740  18.393  0.0415 -0.0406 -0.3854
14743W        W15607   2.382  17.442  15.066 -0.0390 -0.2140 -0.1629
14744W        W15608   1.480  17.699  13.010 -0.1275  0.1487  0.0619
14745W        W15609   3.765  17.668  14.690  0.2219 -0.2454 -0.1318
14746W        W15610   1.760  13.490  14.063  0.0234 -0.3277 -0.0025
14747W        W15611  27.847  16.705  14.578 -0.0132 -0.3720  0.0144
14748W        W15612   2.970  17.208  16.907  0.0825  0.1161  0.1247
14749W        W15613   0.980  19.488  16.663 -0.3203  0.1545 -0.0191
14750W        W15614   3.137  16.402  15.892 -0.1466 -0.4322  0.0090
14751W        W15615   2.046  14.528  16.023 -0.0110  0.1512 -0.0528
14752W        W15616   2.227  19.942  16.593  0.4787 -0.0898 -0.0128
14753W        W15617   2.208  19.498  16.797  0.3452 -0.1240 -0.1210
14754W        W15618   0.651  16.404  16.130  0.0632 -0.0192  0.1417
14755W        W15619   1.730  16.274  16.407 -0.2462 -0.1146 -0.2238
14756W        W15620   0.934  12.115  14.281  0.1931  0.1998 -0.0095
14757W        W15621   0.599  18.436  16.527  0.3504  0.1025  0.1045
14758W        W15622   1.325  14.905  13.905  0.1274 -0.1659 -0.2585
14759W        W15623   1.047  12.371  16.533  0.1512  0.3052  0.1837
14760W        W15624   1.671  15.745  16.583  0.0478  0.0791 -0.2182
14761W        W15625  28.487  15.231  17.710 -0.1238  0.1949  0.0172
14762W        W15626   0.409  14.483  13.440 -0.0655 -0.0513  0.0252
14763W        W15627  27.373  15.302  14.168  0.0686 -0.0169  0.2963
14764W        W15628   2.614  17.475  15.746 -0.1456 -0.0451  0.1695
14765W        W15629   3.015  16.039  18.398  0.0730  0.2148 -0.1737
14766W        W15630  28.151  17.556  17.533 -0.0573 -0.3339  0.1340
14767W        W15631   1.299  14.488  18.047  0.0369  0.1171  0.1562
14768W        W15632   2.838  14.880  17.690  0.1479  0.0456 -0.0345
14769W        W15633   0.944  12.321  18.072  0.1119 -0.2198 -0.0849
14770W        W15634   1.524  16.309  16.891 -0.0967  0.3586  0.0202
14771W        W15635   1.057  15.717  15.962 -0.0180 -0.0856  0.0070
14772W        W15636   2.665  17.897  15.416  0.3390  0.1324  0.0989
14773W        W15637   3.331  20.350  18.988 -0.1980 -0.2176 -0.1453
14774W        W15638  28.837  17.391  16.333  0.2528 -0.0180  0.0968
14775W        W15639   0.325  17.198  13.073 -0.1441 -0.0539  0.1091
14776W        W15640   1.270  15.342  15.353  0.1117  0.0425 -0.1112
14777W        W15641   3.190  16.265  15.042  0.1804 -0.3344 -0.0434
14778W        W15642   6.323  17.283  18.000  0.1871 -0.0731  0.1349
14779W        W15643   2.679  14.554  17.389 -0.3054 -0.3240  0.0810
14780W        W15644   3.694  15.725  19.814  0.2514  0.0012  0.1250
14781W        W15645  28.518  18.319  13.096  0.0097  0.2361  0.1734
14782W        W15646   2.486  15.905  14.604 -0.1017 -0.0936  0.0596
14783W        W15647   1.244  17.818  15.621 -0.0258  0.0889  0.0454
14784W        W15648   0.449  14.615  16.273 -0.1642 -0.0436  0.1877
14785W        W15649  27.537  15.224  13.516 -0.0144 -0.2882  0.0858
14786W        W15650   0.078  19.942  14.189 -0.2533 -0.0678 -0.0616
14787W        W15651  28.088  15.163  16.206  0.2553 -0.1986  0.1750
14788W        W15652  28.535  13.879  13.898  0.0381 -0.0137  0.1468
14789W        W15653   1.287  14.499  13.660 -0.2358 -0.3031 -0.0907
14790W        W15654   2.108  16.985  15.039  0.0082 -0.0381 -0.2609
14791W        W15655  29.004  13.815  13.066  0.0458 -0.2453 -0.0563
14792W        W15656   0.348  13.360  14.348  0.0656 -0.0475  0.3276
14793W        W15657   1.275  19.708  16.296  0.1191  0.2082  0.0453
14794W        W15658   1.043  17.617  17.092 -0.2361 -0.1943  0.4175
14795W        W15659  26.505  16.388  15.206 -0.3898 -0.1434  0.2149
14796W        W15660   2.467  15.896  14.068 -0.1259  0.0196  0.3846
14797W        W15661  28.764  14.792  19.077 -0.0499 -0.1147  0.2276
14798W        W15662   2.544  14.861  16.686  0.0597 -0.3879  0.0152
14799W        W15663   1.225  13.922  15.746  0.1490  0.2150 -0.1874
14800W        W15664   1.020  14.462  16.919  0.0197 -0.0064 -0.2702
14801W        W15665   1.402  13.181  14.281  0.1155  0.0671 -0.1134
14802W        W15666   1.109  13.947  13.667 -0.2934  0.0619  0.1125
14803W        W15667  28.991  18.352  18.923 -0.0625  0.1355 -0.1095
14804W        W15668   1.633  13.214  15.172  0.0991 -0.1554  0.0095
14805W        W15669  26.377  14.558  14.870 -0.1125  0.0435 -0.1463
14806W        W15670   0.597  15.024  16.448 -0.1241  0.0190  0.1386
14807W        W15671   2.813  15.177  14.129 -0.0317 -0.0516  0.1443
14808W        W15672  28.814  16.958  16.609  0.0235 -0.0364 -0.1649
14809W        W15673   2.071  16.313  16.755  0.0663  0.0824 -0.1575
14810W        W15674  28.204  15.682  15.693 -0.1990  0.1976  0.3210
14811W        W15675   0.277  19.253  17.754 -0.0325  0.0285  0.2269
14812W        W15676   1.506  16.744  14.344 -0.2328  0.0109  0.0037
14813W        W15677   3.833  18.068  11.451  0.0265 -0.0510  0.1248
14814W        W15678  28.426  18.471  17.023 -0.0867  0.1146  0.0400
14815W        W15679  28.714  18.096  20.315  0.0469 -0.3999  0.0558
14816W        W15680   2.168  13.674  17.602 -0.0630 -0.4275 -0.1277
14817W        W15681   0.682  15.936  16.489 -0.2948 -0.0226  0.1120
14818W        W15682   1.552  15.083  17.475  0.3606 -0.2303  0.1071
14819W        W15683   5.127  17.322  17.367  0.0339  0.3676  0.0947
14820W        W15684   3.923  16.967  18.083  0.1321 -0.1619 -0.1935
14821W        W15685   3.257  18.227  14.585  0.0551 -0.0056  0.0402
14822W        W15686   2.182  16.508  12.904 -0.1648 -0.1295  0.2069
14823W        W15687   2.436  16.607  16.325  0.1905 -0.4455 -0.1055
14824W        W15688   2.223  16.789  18.071  0.1854 -0.1511  0.0837
14825W        W15689   1.637  15.488  17.688  0.0502  0.5392  0.2145
14826W        W15690   0.907  18.524  14.725 -0.1443  0.0724 -0.3751
14827W        W15691   2.775  17.920  20.308  0.1327 -0.3678  0.4027
14828W        W15692  28.737  13.156  16.190  0.2998 -0.0492  0.0784
14829W        W15693   4.864  17.962  12.568 -0.0067 -0.0425  0.1198
14830W        W15694   1.271  19.135  17.907  0.0290  0.0483 -0.2264
14831W        W15695   1.327  17.377  17.438 -0.0309  0.0219 -0.1419
14832W        W15696   1.842  13.659  18.019  0.1245 -0.1205  0.2297
14833W        W15697   3.332  18.666  15.039 -0.0218 -0.1235  0.1934
14834W        W15698   1.066  19.708  17.165 -0.0545 -0.2650 -0.0184
14835W        W15699   2.081  13.252  18.386  0.0635  0.2579 -0.1807
14836W        W15700   0.325  15.766  17.791 -0.2108  0.0082 -0.0095
14837W        W15701   0.289  16.970  15.385 -0.3556 -0.0629  0.3262
14838W        W15702   1.969  15.826  14.471  0.0807  0.3047  0.1420
14839W        W15703   0.559  15.452  16.711  0.0689 -0.0010 -0.1025
14840W        W15704   2.059  18.177  16.013 -0.0330  0.0442 -0.4187
14841W        W15705   5.110  16.560  15.497 -0.0235 -0.1032 -0.2183
14842W        W15706   3.190  13.839  16.386 -0.0930  0.1488  0.0874
14843W        W15707   4.838  18.809  16.754 -0.2062 -0.0117  0.1329
14844W        W15708   4.141  20.714  14.694 -0.2959  0.1357  0.2403
14845W        W15709   1.284  18.289  15.375 -0.0476 -0.0630  0.1861
14846W        W15710  27.656  19.519  19.615  0.0644  0.1132 -0.0363
14847W        W15711   0.641  18.867  18.254  0.1050 -0.1421 -0.1064
14848W        W15712  27.649  15.418  14.990  0.0340 -0.3304  0.2971
14849W        W15713   2.006  15.876  15.811 -0.0304 -0.0630  0.1542
14850W        W15714  29.035  15.858  12.167 -0.0634  0.2813  0.0529
14851W        W15715   4.107  16.081  15.873 -0.2884  0.0386  0.0778
14852W        W15716   2.687  16.053  19.437  0.0868  0.4810  0.2982
14853W        W15717   4.600  17.383  16.546 -0.0573 -0.2773  0.1579
14854W        W15718  26.854  16.147  15.520  0.2782 -0.0658 -0.2697
14855W        W15719  27.904  16.535  17.306 -0.1968  0.0266  0.1335
14856W        W15720   1.706  20.196  16.819  0.0290 -0.2196 -0.0306
14857W        W15721   1.358  20.209  16.339 -0.2738 -0.1042 -0.1920
14858W        W15722   2.405  17.799  16.084 -0.0541 -0.2040 -0.2304
14859W        W15723  27.804  15.383  14.465  0.1522 -0.1354 -0.1357
14860W        W15724   7.024  17.540  18.256  0.2521  0.0404 -0.0734
14861W        W15725   6.092  14.786  16.386  0.1252  0.0795 -0.0070
14862W        W15726   0.707  15.841  14.862  0.4130  0.0238 -0.0158
14863W        W15727   3.800  16.800  16.623 -0.1332  0.0811 -0.0648
14864W        W15728   1.264  16.120  15.260  0.1188  0.2387  0.0861
14865W        W15729   2.889  16.183  14.404  0.1362  0.1369  0.0424
14866W        W15730   0.884  16.821  16.767  0.3018 -0.0193 -0.2361
14867W        W15731   3.235  16.920  16.058 -0.1411  0.1560 -0.1227
14868W        W15732   0.924  15.902  17.482  0.3961 -0.0744 -0.0176
14869W        W15733   0.868  18.569  15.252  0.0855 -0.2071 -0.2400
14870W        W15734  28.436  19.979  18.333  0.0366 -0.0368  0.3556
14871W        W15735   0.589  18.250  16.053 -0.3623  0.0702 -0.2162
14872W        W15736   1.250  17.549  16.569 -0.0794 -0.4498  0.3004
14873W        W15737   0.676  15.135  13.682  0.1545 -0.1072 -0.2193
14874W        W15738   3.125  15.356  15.757 -0.0231 -0.1673 -0.4692
14875W        W15739   0.031  14.758  16.021 -0.3754  0.0286 -0.2841
14876W        W15740   3.563  17.609  17.265  0.0258  0.0400 -0.3096
14877W        W15741   0.414  15.469  17.292  0.2088  0.2408  0.0798
14878W        W15742  28.614  17.309  17.425 -0.2766  0.0096 -0.0258
14879W        W15743   4.352  18.160  17.642  0.4038 -0.1910  0.0578
14880W        W15744   2.531  16.529  14.663 -0.0610  0.2538  0.1608
14881W        W15745   2.271  12.817  15.933  0.1795  0.1749  0.3720
14882W        W15746  28.662  14.951  15.949  0.0825  0.2058  0.0671
14883W        W15747  28.481  13.934  13.056  0.2090  0.1452  0.1032
14884W        W15748   0.317  17.860  17.461  0.0088 -0.0524  0.0503
14885W        W15749   1.083  16.574  14.959  0.1519 -0.0125  0.0574
14886W        W15750   3.469  15.619  15.225  0.0231  0.3762 -0.0157
14887W        W15751  28.697  14.910  15.442  0.2042  0.0150  0.1319
14888W        W15752   2.426  18.864  19.688 -0.0741 -0.2338  0.0027
14889W        W15753   4.121  16.941  15.928  0.1046  0.0717  0.2379
14890W        W15754   3.114  15.594  16.341 -0.1368 -0.3076 -0.0057
14891W        W15755   3.667  20.546  14.856 -0.1758  0.0690 -0.0728
14892W        W15756   1.181  18.711  18.325 -0.0804 -0.0455 -0.0413
14893W        W15757   1.344  14.011  16.217  0.1566 -0.1182  0.1358
14894W        W15758   4.210  16.162  13.282  0.1810 -0.1694 -0.1844
14895W        W15759   3.450  17.266  16.942  0.1419 -0.0146 -0.0714
14896W        W15760   5.417  12.950  15.983 -0.3074 -0.0709 -0.1020
14897W        W15761   3.177  15.150  17.270 -0.0306  0.4074  0.1605
14898W        W15762  27.391  14.484  16.581  0.2213 -0.0027  0.2625
14899W        W15763   1.050  16.972  15.902 -0.2412 -0.0447 -0.1039
14900W        W15764   3.220  17.520  17.785  0.1560 -0.1437  0.1169
14901W        W15765  29.098  13.400  18.328 -0.0723  0.1442 -0.1861
14902W        W15766   4.334  16.906  17.275 -0.3875 -0.0413  0.0467
14903W        W15767   2.307  17.080  15.594  0.0802  0.1591  0.0519
14904W        W15768   0.164  15.865  14.625  0.1214  0.4592  0.0373
14905W        W15769  27.577  17.251  15.327 -0.2512 -0.2233 -0.1979
14906W        W15770  28.972  13.360  19.040  0.0273 -0.1073 -0.0655
14907W        W15771  27.825  19.505  17.923  0.0806 -0.1914 -0.1103
14908W        W15772   3.869  16.063  15.330  0.2252 -0.1317  0.0249
14909W        W15773   1.623  15.437  14.539  0.2038  0.1911 -0.2660
14910W        W15774   2.912  17.284  17.478 -0.2172  0.1532 -0.0484
14911W        W15775   4.497  16.448  18.740 -0.0406 -0.0503  0.0723
14912W        W15776   0.195  13.891  16.360 -0.0625 -0.1208  0.1641
14913W        W15777   1.977  17.482  18.168  0.1145  0.1051 -0.2484
14914W        W15778   2.383  16.453  15.697 -0.0283 -0.1526 -0.2405
14915W        W15779   3.133  15.112  16.755 -0.1874 -0.1697  0.2527
14916W        W15780  28.980  17.290  18.174 -0.0025  0.0698 -0.1313
14917W        W15781   3.690  18.548  16.057  0.1934  0.0571 -0.0226
14918W        W15782   0.296  18.987  17.273  0.0257  0.3541  0.0640
14919W        W15783   1.906  18.692  16.112 -0.1464  0.4552 -0.0499
14920W        W15784   1.714  18.540  18.162  0.1370  0.0258  0.2872
14921W        W15785   0.329  15.254  15.997  0.1272 -0.0258 -0.1293
14922W        W15786   2.965  14.277  13.673 -0.1584 -0.0263  0.0276
14923W        W15787   2.713  19.787  19.209 -0.0925 -0.0297  0.0566
14924W        W15788   0.324  14.361  15.799  0.1183  0.4504 -0.1907
14925W        W15789  28.932  18.156  17.060 -0.2503 -0.1405 -0.2777
14926W        W15790   1.003  17.433  13.956 -0.0729 -0.0317  0.1012
14927W        W15791  29.114  17.425  17.563 -0.4743 -0.1630 -0.2084
14928W        W15792   0.426  14.806  15.633 -0.2278 -0.0725  0.1064
14929W        W15793  27.621  16.061  13.029 -0.0411  0.0185 -0.0954
14930W        W15794   0.456  16.111  15.747  0.2605  0.0080  0.4639
14931W        W15795   2.703  15.153  17.057 -0.2688  0.1036  0.0762
14932W        W15796  28.504  15.214  14.418 -0.0525 -0.0402  0.1622
14933W        W15797   1.245  14.887  15.597  0.1861 -0.0735  0.3893
14934W        W15798   0.839  17.038  14.306  0.1972  0.1256 -0.4264
14935W        W15799   2.185  16.174  16.155  0.0808  0.0774 -0.0109
14936W        W15800   4.079  15.513  17.700 -0.0779 -0.1498 -0.3558
14937W        W15801   2.195  16.268  18.281 -0.0073 -0.0383 -0.2438
14938W        W15802   2.921  18.871  17.481 -0.2155  0.1401  0.3711
14939W        W15803   7.157  17.634  16.434  0.0268  0.2902 -0.0619
14940W        W15804   2.441  20.264  17.236 -0.2448  0.2274  0.2077
14941W        W15805   3.156  16.675  14.667  0.0929 -0.3446  0.0913
14942W        W15806   5.240  16.547  14.332 -0.0015 -0.2934 -0.1693
14943W        W15807   0.270  16.215  14.995 -0.2232 -0.1986 -0.1525
14944W        W15808   0.089  14.273  14.465  0.0440 -0.0481  0.0776
14945W        W15809   1.834  17.312  15.781  0.0550 -0.1353 -0.2959
14946W        W15810   0.648  15.022  17.504 -0.2691  0.0143 -0.2271
14947W        W15811  29.052  13.084  15.694 -0.1254 -0.1916 -0.1985
14948W        W15812   3.301  17.687  14.920 -0.2982 -0.0605 -0.0256
14949W        W15813   1.231  16.379  13.698  0.4016 -0.0303 -0.1615
14950W        W15814   0.984  18.466  16.906 -0.0668 -0.0805 -0.0789
14951W        W15815  27.019  18.947  16.986  0.0804  0.2839 -0.1022
14952W        W15816  28.830  18.007  15.870  0.4195  0.0928 -0.0003
14953W        W15817   0.781  20.575  18.128 -0.2078  0.3276  0.1393
14954W        W15818   0.481  16.253  14.283  0.2964 -0.1669 -0.0936
14955W        W15819   1.140  16.973  14.680  0.1023 -0.0471 -0.0952
14956W        W15820   5.993  16.324  15.775 -0.1955  0.0083  0.1398
14957W        W15821   4.362  15.640  13.881  0.1141  0.3120  0.0273
14958W        W15822   3.170  18.638  14.292  0.1436  0.0843  0.2271
14959W        W15823   1.502  18.868  14.631  0.1038  0.0638 -0.0649
14960W        W15824   2.848  13.664  14.098 -0.0099 -0.0491  0.2988
14961W        W15825  28.852  19.085  16.424  0.1247  0.0567 -0.0572
14962W        W15826   2.144  16.567  18.741 -0.1324 -0.0012  0.1878
14963W        W15827   1.473  14.583  17.190 -0.0497  0.1038  0.4213
14964W        W15828  29.050  16.186  16.663 -0.2173  0.1577 -0.0202
14965W        W15829   2.095  15.765  13.728  0.2543 -0.0368 -0.0265
14966W        W15830   1.012  17.274  17.793 -0.0985 -0.2900 -0.0467
14967W        W15831   0.026  15.246  16.919 -0.1893  0.0681 -0.0788
14968W        W15832   2.589  10.086  13.925 -0.0917 -0.0844 -0.1128
14969W        W15833   1.791  17.300  12.807 -0.0924 -0.0679  0.0200
14970W        W15834   2.455  15.788  18.341 -0.0006 -0.1493  0.0151
14971W        W15835   1.180  18.301  16.388  0.0202  0.1077 -0.0342
14972W        W15836   1.299  18.819  17.214 -0.1838 -0.0541 -0.1675
14973W        W15837   3.793  15.139  14.310 -0.0716 -0.1199 -0.5149
14974W        W15838   0.276  15.729  16.209  0.0317 -0.0630 -0.0673
14975W        W15839   1.772  15.212  16.171  0.0978  0.3366 -0.3264
14976W        W15840   2.270  18.421  16.383 -0.0943 -0.1925 -0.1758
14977W        W15841   2.466  18.099  12.359 -0.0933  0.0473  0.0076
14978W        W15842   6.266  19.978  17.451 -0.0683  0.1421 -0.0396
14979W        W15843   3.192  17.042  13.209 -0.1802 -0.1672  0.0100
14980W        W15844   0.765  17.862  15.594 -0.0558 -0.0339 -0.1522
14981W        W15845   1.276  15.454  16.340  0.0684  0.0903 -0.0613
14982W        W15846   0.965  18.765  16.210  0.1015 -0.0667  0.0616
14983W        W15847   0.646  14.525  17.245  0.4454 -0.0765  0.3108
14984W        W15848   0.909  16.369  17.749 -0.0025 -0.0708 -0.0672
14985W        W15849   0.599  18.048  14.442  0.2735 -0.1771 -0.1095
14986W        W15850   1.452  15.766  15.585 -0.2501  0.0899  0.0580
14987W        W15851   1.540  16.471  15.005  0.2121 -0.0713 -0.3367
14988W        W15852   1.804  18.129  17.088  0.0065 -0.0252  0.2216
14989W        W15853   1.617  17.227  18.444  0.0169  0.1512 -0.0793
14990W        W15854  27.662  18.160  16.832 -0.0122 -0.1222 -0.1276
14991W        W15855   3.083  17.614  17.147 -0.2992 -0.1071 -0.1805
14992W        W15856   0.449  18.156  17.040 -0.0896  0.1458 -0.0781
14993W        W15857   1.478  17.785  17.191 -0.1222 -0.1953  0.2151
14994W        W15858   3.245  18.725  16.252 -0.3971 -0.0359 -0.0271
14995W        W15859   2.874  17.791  17.556 -0.1381  0.4059  0.0635
14996W        W15860   0.578  16.860  16.208  0.1150 -0.2169  0.0436
14997W        W15861   3.672  17.105  16.208  0.2225  0.2801  0.0375
14998W        W15862   2.993  17.389  16.042  0.1711 -0.1046 -0.0960
14999W        W15863  27.853  19.602  12.452 -0.0146 -0.0293 -0.2373
15000W        W15864   1.282  17.449  16.032  0.0156 -0.1785 -0.0009
15001W        W15865   1.132  16.519  16.137  0.2242  0.0067  0.0301
15002W        W15866   0.774  18.411  17.367 -0.1235 -0.0826  0.2492
15003W        W15867   4.402  17.845  16.722 -0.0532 -0.1866 -0.0300
15004W        W15868   2.278  16.343  14.322  0.0584  0.0178 -0.2741
15005W        W15869   1.400  16.405  20.135  0.3370 -0.1373  0.3376
15006W        W15870   2.011  16.159  21.281 -0.1127  0.0366  0.1395
15007W        W15871   1.970  19.119  18.868  0.1260 -0.0121 -0.0591
15008W        W15872   3.263  18.041  20.465 -0.1848  0.0720 -0.0227
15009W        W15873   2.196  20.050  20.635 -0.2019 -0.2083  0.1488
15010W        W15874  28.648  17.495  18.737  0.0920 -0.1056  0.1395
15011W        W15875  28.332  14.907  17.318 -0.0478  0.0423 -0.0347
15012W        W15876   1.357  18.973  18.835 -0.3167 -0.2659  0.0490
15013W        W15877   2.830  20.348  19.197  0.3164  0.0014 -0.3664
15014W        W15878   0.081  12.511  21.597 -0.0055 -0.0028  0.0927
15015W        W15879   0.266  15.718  22.245  0.0177 -0.3554  0.2850
15016W        W15880   3.425  15.802  18.843  0.0205  0.2968 -0.1517
15017W        W15881   2.152  18.093  19.224  0.1112  0.0173 -0.2169
15018W        W15882   2.845  16.151  22.308 -0.0003 -0.0967 -0.1640
15019W        W15883   0.492  12.544  19.800  0.0913  0.3990 -0.0429
15020W        W15884   1.039  18.551  24.384 -0.0582  0.1543  0.0891
15021W        W15885   1.655  18.601  18.662  0.0528 -0.1213  0.0921
15022W        W15886   1.984  17.247  17.709 -0.0377  0.3202  0.1258
15023W        W15887  28.398  15.444  21.891 -0.1096 -0.1787 -0.1350
15024W        W15888   3.586  14.317  19.329 -0.1495  0.2773  0.2539
15025W        W15889   2.226  16.718  21.464  0.0647 -0.1586  0.1665
15026W        W15890   1.311  15.704  19.531  0.1488  0.3025 -0.0210
15027W        W15891   0.867  17.861  20.205  0.2461 -0.0743  0.1561
15028W        W15892   3.433  19.451  18.483  0.1629 -0.2224 -0.1162
15029W        W15893   0.951  18.281  20.430 -0.0755 -0.0825  0.1010
15030W        W15894   1.636  17.253  16.332 -0.2357  0.0665  0.0003
15031W        W15895   4.627  17.043  19.408 -0.2189 -0.0116  0.1167
15032W        W15896   2.589  19.244  17.489  0.0205 -0.0405  0.0736
15033W        W15897   1.988  17.628  19.203 -0.1172  0.0961 -0.0958
15034W        W15898   2.175  15.927  20.771  0.3025 -0.1763  0.1270
15035W        W15899   0.585  16.516  18.702  0.3781 -0.0947  0.0027
15036W        W15900   2.813  18.099  21.781  0.0215  0.1077  0.2189
15037W        W15901   1.360  14.326  22.689 -0.1406 -0.0200 -0.1384
15038W        W15902   3.611  16.996  19.770  0.1986 -0.0607  0.0460
15039W        W15903   1.675  17.296  21.168  0.2669 -0.2794 -0.1502
15040W        W15904   2.000  18.581  21.754  0.1182  0.1154  0.1929
15041W        W15905   0.426  16.091  18.457  0.1470  0.0309  0.1542
15042W        W15906   1.390  16.865  18.245  0.0299  0.1271  0.1573
15043W        W15907   5.305  17.753  18.682 -0.1654  0.1384 -0.3545
15044W        W15908   2.607  13.659  18.528 -0.0678  0.1322  0.3643
15045W        W15909   2.723  15.371  16.606 -0.0736  0.1604 -0.0639
15046W        W15910   8.136  17.030  20.587 -0.0109  0.1715 -0.0993
15047W        W15911   3.709  19.000  19.100 -0.3067 -0.0948  0.1499
15048W        W15912   1.806  18.963  20.418  0.1054  0.0714 -0.1470
15049W        W15913  28.234  16.510  19.635  0.6369 -0.5693  0.1974
15050W        W15914  27.915  17.672  19.703 -0.0708  0.2696  0.0876
15051W        W15915  29.044  14.379  20.168  0.1005 -0.1888 -0.0151
15052W        W15916   4.447  15.137  21.491 -0.1830 -0.2964  0.0573
15053W        W15917   4.338  17.907  18.183 -0.0774 -0.4947 -0.2794
15054W        W15918   2.855  13.780  21.225 -0.1864 -0.0385 -0.1702
15055W        W15919   2.610  16.437  21.406 -0.0598  0.0040  0.3852
15056W        W15920   1.859  14.641  18.958  0.1392 -0.0681 -0.2701
15057W        W15921   2.921  17.859  19.387  0.0431 -0.1388  0.0212
15058W        W15922   2.162  16.501  20.974 -0.0055  0.2486 -0.3285
15059W        W15923   2.261  14.526  17.708 -0.0256 -0.0225 -0.0607
15060W        W15924   1.923  17.633  16.109  0.6321 -0.1527 -0.2804
15061W        W15925   0.471  15.092  18.914  0.4211  0.0420 -0.0865
15062W        W15926   2.025  18.584  17.791 -0.3401  0.1988 -0.0583
15063W        W15927   1.689  18.886  19.195  0.0618 -0.0203  0.1125
15064W        W15928   1.934  16.482  19.163 -0.2337 -0.1382 -0.1425
15065W        W15929   1.768  15.165  18.398 -0.0042  0.1558 -0.0867
15066W        W15930  28.862  18.354  22.901 -0.1335  0.0839 -0.3162
15067W        W15931   2.588  17.829  21.306 -0.2474  0.1154 -0.1536
15068W        W15932   2.090  19.118  19.335 -0.0164 -0.1734 -0.4258
15069W        W15933   0.050  15.138  21.331  0.1631 -0.1248  0.0954
15070W        W15934   5.348  15.735  18.980  0.1920 -0.1558  0.0683
15071W        W15935  28.719  16.210  17.680 -0.0981  0.0888  0.0646
15072W        W15936  28.813  15.728  18.949  0.2951  0.1294  0.1130
15073W        W15937  26.496  17.101  17.225 -0.3061  0.0331 -0.0339
15074W        W15938   0.300  20.525  18.250 -0.3059 -0.1821 -0.3141
15075W        W15939   4.064  17.443  21.416  0.2731  0.0454 -0.2721
15076W        W15940  28.522  15.241  19.005  0.2249  0.2018  0.2473
15077W        W15941   3.460  20.660  18.566  0.0296  0.1916  0.0893
15078W        W15942   2.077  17.009  20.960  0.0679 -0.2036  0.1760
15079W        W15943   2.776  16.515  19.628  0.0631 -0.1730 -0.2921
15080W        W15944   2.849  19.006  21.613 -0.0639  0.2326  0.3242
15081W        W15945   2.176  16.055  18.835  0.0967 -0.0703  0.2600
15082W        W15946   1.796  17.168  18.960 -0.0970 -0.2062  0.2122
15083W        W15947   2.594  16.744  21.054 -0.0178 -0.0692 -0.3037
15084W        W15948   2.136  15.830  20.177 -0.2561 -0.1734  0.1695
15085W        W15949   2.877  14.557  16.917 -0.0694 -0.0871  0.1378
15086W        W15950  28.466  13.874  21.765  0.1196  0.2186 -0.2066
15087W        W15951   1.313  16.160  19.659 -0.0443  0.0370 -0.1016
15088W        W15952   3.480  15.704  19.340 -0.1796 -0.4274  0.0773
15089W        W15953   1.511  15.542  18.192  0.0882 -0.2578  0.4626
15090W        W15954   1.385  14.408  19.250 -0.0104 -0.0164 -0.1196
15091W        W15955   2.818  19.427  18.724 -0.1305  0.1617 -0.0974
15092W        W15956   2.285  15.433  20.517 -0.0944  0.0358  0.2446
15093W        W15957   3.533  18.756  22.302 -0.0575 -0.2568  0.2722
15094W        W15958   2.521  17.242  20.782  0.1410  0.0006 -0.5467
15095W        W15959   4.940  17.708  16.917  0.2885  0.3018 -0.3164
15096W        W15960   1.590  17.352  23.995 -0.2782  0.2764 -0.0454
15097W        W15961  28.464  15.331  20.317  0.3250  0.2634 -0.5076
15098W        W15962   0.845  18.902  17.403  0.0164 -0.2710 -0.1283
15099W        W15963  27.552  14.265  20.176 -0.2784 -0.0621 -0.3132
15100W        W15964   3.572  18.319  18.375  0.2096  0.0754 -0.2737
15101W        W15965   6.064  19.095  18.348  0.0351  0.0807  0.0129
15102W        W15966   2.212  19.779  20.228  0.0032  0.0767  0.3335
15103W        W15967   2.622  13.260  17.608 -0.0835 -0.0293 -0.1456
15104W        W15968   1.213  12.866  16.347  0.2048 -0.0649 -0.0401
15105W        W15969   4.682  19.548  18.734 -0.2991 -0.5096 -0.1372
15106W        W15970   0.280  16.959  16.752 -0.1099 -0.0207 -0.0223
15107W        W15971   0.299  13.501  18.924  0.0099  0.0793  0.1518
15108W        W15972   3.595  16.658  19.357 -0.0293 -0.0183  0.0662
15109W        W15973   4.581  14.525  19.361 -0.1358  0.1114  0.1109
15110W        W15974   2.130  17.638  21.732 -0.1766 -0.1605 -0.0468
15111W        W15975  28.922  18.499  18.443  0.1708  0.1204  0.2318
15112W        W15976   1.333  15.178  22.742 -0.1146 -0.5017 -0.1139
15113W        W15977   2.656  14.835  18.559  0.0590  0.0565  0.0536
15114W        W15978  28.419  17.846  17.795 -0.2689 -0.4493  0.1316
15115W        W15979  29.109  15.924  18.665 -0.0252 -0.4152  0.1483
15116W        W15980   3.792  19.728  21.465  0.0574 -0.0707  0.1628
15117W        W15981   4.954  16.170  22.044  0.0525  0.0044 -0.0910
15118W        W15982   1.439  16.761  19.764  0.1414 -0.0227 -0.1726
15119W        W15983   3.929  14.799  17.692  0.3075  0.1358 -0.0125
15120W        W15984   2.128  17.453  16.534 -0.0231 -0.2376  0.1919
15121W        W15985   4.284  15.441  21.819 -0.2057 -0.0946 -0.2892
15122W        W15986   3.262  18.607  18.099  0.3758  0.1818  0.1104
15123W        W15987   3.626  18.691  19.569  0.0993 -0.2166  0.2721
15124W        W15988   2.828  12.991  17.972  0.1600  0.0571  0.1825
15125W        W15989   1.995  13.744  18.555  0.0442 -0.3344 -0.0462
15126W        W15990   5.184  19.902  17.619  0.2423 -0.1371  0.1277
15127W        W15991   4.220  20.182  19.173 -0.1260  0.0806 -0.0889
15128W        W15992   4.472  19.560  17.285  0.0455 -0.0375  0.1039
15129W        W15993  28.207  16.667  18.531  0.0151  0.2782 -0.0991
15130W        W15994   4.066  16.559  19.661 -0.0170  0.0336  0.0368
15131W        W15995   1.107  17.424  21.146 -0.1235 -0.3283 -0.2418
15132W        W15996   3.971  16.002  21.889 -0.3851 -0.0951  0.1229
15133W        W15997   3.713  16.731  20.595 -0.2009 -0.1281  0.2879
15134W        W15998   1.485  16.749  19.222 -0.1767  0.1143  0.0693
15135W        W15999   4.257  20.207  19.718 -0.4174  0.0107  0.0190
15136W        W16000   3.011  17.686  20.766  0.4278  0.1585  0.1201
15137W        W16001  29.063  19.971  18.974  0.2243  0.2379  0.0226
15138W        W16002   3.686  16.185  19.551  0.6275 -0.0563  0.0489
15139W        W16003   3.367  18.063  19.475  0.4411 -0.1854  0.1647
15140W        W16004   1.127  14.809  19.500 -0.3283  0.2375 -0.2543
15141W        W16005   3.536  15.409  17.055  0.2173 -0.0650 -0.1654
15142W        W16006   3.043  15.522  21.723  0.0529 -0.1846  0.0140
15143W        W16007   2.508  17.604  19.198 -0.2422 -0.0807 -0.1423
15144W        W16008   0.328  17.857  19.877 -0.1861 -0.0431  0.0082
15145W        W16009  28.973  12.636  17.802  0.0458 -0.1127  0.1240
15146W        W16010   4.154  13.269  19.948 -0.0971  0.0507  0.4383
15147W        W16011   0.998  18.176  18.229 -0.0464  0.2157 -0.0599
15148W        W16012   2.331  17.037  16.651 -0.1899 -0.4471 -0.0763
15149W        W16013   0.626  16.393  20.714 -0.0913 -0.1396 -0.0996
15150W        W16014   2.554  16.824  18.651 -0.1694 -0.0112  0.3430
15151W        W16015   3.107  15.564  16.920  0.0237 -0.0427 -0.2817
15152W        W16016   3.590  19.319  20.542 -0.2286 -0.1083  0.0782
15153W        W16017   3.889  20.625  19.920  0.0998 -0.0706  0.0783
15154W        W16018  28.054  16.936  18.046  0.0089  0.0113 -0.1568
15155W        W16019   4.540  17.469  19.759 -0.0283  0.2240 -0.2018
15156W        W16020  28.259  13.674  17.378  0.1263 -0.3348  0.1582
15157W        W16021   4.144  17.252  18.954 -0.2024  0.0202 -0.0969
15158W        W16022   1.900  14.955  17.097  0.1815 -0.2491  0.0955
15159W        W16023   4.235  15.802  20.675  0.0047  0.2202  0.1282
15160W        W16024   2.106  15.561  18.948  0.0242 -0.4501  0.0591
15161W        W16025   0.862  14.621  18.446 -0.1222  0.0353 -0.0501
15162W        W16026   2.694  14.227  17.787  0.0642  0.1411  0.0190
15163W        W16027   0.607  12.187  17.187  0.0746  0.1701  0.0120
15164W        W16028   3.532  14.606  20.585 -0.0200 -0.2132  0.1188
15165W        W16029   2.712  13.610  19.148  0.0784  0.1669 -0.0930
15166W        W16030   2.969  17.037  18.466 -0.3330 -0.1027  0.1576
15167W        W16031   2.418  17.567  17.903 -0.0992  0.0060  0.3050
15168W        W16032   2.469  18.624  20.897  0.1732  0.1189 -0.0375
15169W        W16033   1.838  16.529  19.650 -0.2911 -0.0065  0.0398
15170W        W16034   2.993  17.310  21.137  0.0950 -0.1376  0.1322
15171W        W16035   0.748  15.434  16.217 -0.2884  0.0081 -0.0120
15172W        W16036   0.637  19.439  17.498 -0.1762  0.0758 -0.2813
15173W        W16037   2.037  18.259  19.982 -0.1503  0.1695  0.2470
15174W        W16038   3.212  17.972  19.987 -0.0642  0.0781  0.0874
15175W        W16039   2.095  18.188  18.578  0.2163  0.0688  0.2086
15176W        W16040   5.398  16.563  19.530  0.1631  0.1295  0.0570
15177W        W16041   3.027  18.757  21.120  0.0446  0.0084  0.2301
15178W        W16042   2.226  18.949  17.549  0.2509  0.2335 -0.4684
15179W        W16043   2.820  13.868  15.515  0.1922  0.2943 -0.1666
15180W        W16044   3.356  17.143  20.808  0.1104  0.3203 -0.4105
15181W        W16045  27.519  17.227  19.726 -0.1133  0.1332  0.1413
15182W        W16046   0.765  18.603  19.444  0.0857 -0.0459  0.1555
15183W        W16047  28.838  17.929  18.578  0.1972  0.3718  0.1325
15184W        W16048   3.531  15.861  21.102  0.1783 -0.0413 -0.3532
15185W        W16049  28.955  18.523  15.877  0.4163  0.0152 -0.2275
15186W        W16050   2.802  19.270  17.050 -0.2289 -0.0584  0.0379
15187W        W16051   2.833  19.072  17.956  0.2707  0.2971 -0.0209
15188W        W16052   0.678  17.370  18.166  0.2484 -0.1606 -0.3221
15189W        W16053   2.498  17.461  16.867 -0.3454  0.2890 -0.1393
15190W        W16054   2.063  17.619  23.805 -0.1227  0.1449  0.0951
15191W        W16055   3.022  16.451  20.149 -0.3122 -0.0571  0.0767
15192W        W16056   0.866  13.567  18.964 -0.1591  0.1396  0.0446
15193W        W16057   1.668  17.271  20.656 -0.5251  0.2112 -0.0568
15194W        W16058   1.310  18.597  20.448  0.0009 -0.3029  0.2650
15195W        W16059  28.202  17.628  20.977  0.0205  0.1429 -0.0219
15196W        W16060  27.756  17.916  18.549 -0.0549  0.2704 -0.1122
15197W        W16061   0.997  17.418  22.784  0.0632 -0.0235 -0.0009
15198W        W16062   2.123  14.000  19.677  0.0452 -0.2365  0.0213
15199W        W16063   4.686  15.501  19.658 -0.1944 -0.0098 -0.0352
15200W        W16064   1.664  16.524  17.392  0.1235  0.3026 -0.0456
15201W        W16065   1.450  14.501  16.126 -0.1243  0.0515 -0.0982
15202W        W16066   1.375  14.838  18.923  0.0821 -0.0751 -0.3699
15203W        W16067  26.449  16.827  19.434  0.1743 -0.0479  0.0009
15204W        W16068   3.753  14.781  18.392  0.2574  0.1655  0.0647
15205W        W16069   2.968  17.388  19.200 -0.1004 -0.1665  0.0725
15206W        W16070   1.922  13.489  19.431  0.0150 -0.1885 -0.1410
15207W        W16071   1.862  15.994  17.072 -0.2650 -0.1295 -0.2408
15208W        W16072   0.933  16.521  19.482  0.1843 -0.1265  0.0945
15209W        W16073   0.613  13.806  22.001  0.1698 -0.4682 -0.0184
15210W        W16074  27.202  13.892  13.999 -0.0440  0.1715  0.0867
15211W        W16075   3.266  19.068  18.796 -0.1271 -0.1943 -0.0592
15212W        W16076   3.334  14.043  19.746  0.0961  0.0685  0.0657
15213W        W16077   2.823  17.046  16.338 -0.0352  0.0488  0.0537
15214W        W16078  28.292  16.235  18.794  0.3465  0.3557  0.1983
15215W        W16079   1.453  15.716  21.999  0.2476 -0.0974 -0.0405
15216W        W16080   2.604  16.312  20.799  0.0346 -0.5096 -0.1733
15217W        W16081   3.752  18.036  19.783  0.5884 -0.0635 -0.0492
15218W        W16082   3.582  14.383  17.828 -0.2732  0.1235  0.1193
15219W        W16083   6.329  18.136  21.676  0.3242  0.0498  0.0744
15220W        W16084   4.102  16.650  17.727  0.1428  0.1934  0.0174
15221W        W16085   0.720  17.348  16.769 -0.0974  0.0366 -0.1963
15222W        W16086   2.417  22.247  16.708  0.0897 -0.0534 -0.1177
15223W        W16087   1.864  17.026  19.536  0.0156  0.0154 -0.1457
15224W        W16088   2.016  17.147  21.537  0.0023  0.1356 -0.1936
15225W        W16089   2.136  15.450  17.681  0.3123 -0.1387 -0.0602
15226W        W16090   3.742  17.599  18.765 -0.2858 -0.0365 -0.1759
15227W        W16091   4.900  18.034  18.986 -0.0801  0.0705 -0.1907
15228W        W16092   2.924  14.167  16.132  0.0758 -0.1616  0.1051
15229W        W16093   3.164  21.154  18.734 -0.0907  0.0595  0.1756
15230W        W16094   2.323  16.714  19.491  0.1383  0.3634  0.1529
15231W        W16095   3.164  17.511  20.273 -0.3579  0.1505  0.0054
15232W        W16096   4.354  15.424  22.306 -0.4829  0.1010  0.0745
15233W        W16097   1.119  17.273  18.394  0.2212 -0.0843  0.3377
15234W        W16098   2.898  17.590  18.200  0.0934 -0.0778  0.0741
15235W        W16099   3.296  15.606  22.150 -0.1694 -0.2429 -0.0807
15236W        W16100   1.729  14.009  20.034  0.0129 -0.0134 -0.3002
15237W        W16101   1.548  19.417  19.257 -0.2032 -0.0540 -0.0030
15238W        W16102   5.175  14.000  18.437 -0.1874 -0.0021 -0.0909
15239W        W16103   1.396  17.814  19.770  0.3056 -0.2490 -0.0843
15240W        W16104   1.765  16.782  20.416 -0.0538  0.0830 -0.0539
15241W        W16105   3.845  15.385  19.336 -0.2199  0.1779  0.0439
15242W        W16106   2.595  15.902  20.403 -0.1092 -0.2202  0.0603
15243W        W16107   1.778  17.208  16.865 -0.0202  0.0217 -0.1954
15244W        W16108   5.935  16.150  21.572 -0.0131  0.1696  0.2048
15245W        W16109   1.101  18.270  17.720 -0.2929 -0.0039  0.1201
15246W        W16110   2.664  19.671  19.853 -0.2869 -0.0461  0.1080
15247W        W16111   3.191  16.405  18.084  0.3730  0.3352 -0.1485
15248W        W16112   1.337  14.403  18.695 -0.0272 -0.0783  0.1428
15249W        W16113   3.695  17.758  21.433 -0.3539  0.0424  0.1456
15250W        W16114   0.250  19.064  16.717  0.2549 -0.1510  0.2697
15251W        W16115   2.722  16.874  21.542 -0.1533 -0.3186  0.1010
15252W        W16116   2.411  18.772  19.129 -0.1668  0.0143  0.0481
15253W        W16117   6.868  19.072  18.254  0.1343 -0.1478 -0.2276
15254W        W16118   0.307  15.478  18.654 -0.1387 -0.1163  0.0437
15255W        W16119   2.529  17.998  19.727  0.0989  0.0761 -0.1025
15256W        W16120   0.271  19.710  19.280 -0.0207 -0.2629 -0.2805
15257W        W16121   2.128  19.853  22.887 -0.0542  0.2243 -0.0643
15258W        W16122   3.621  16.999  18.945 -0.1113 -0.1243  0.0025
15259W        W16123   0.178  15.755  16.737 -0.1773 -0.2850  0.2593
15260W        W16124   1.334  15.890  17.855  0.3571 -0.0689  0.1305
15261W        W16125   0.818  15.573  18.827 -0.0210  0.0541  0.0269
15262W        W16126   0.822  15.484  20.965 -0.0483 -0.1916 -0.0388
15263W        W16127   2.524  17.753  20.735  0.2533  0.3350 -0.0596
15264W        W16128   3.568  16.357  20.924  0.5172  0.3175 -0.1570
15265W        W16129  28.924  15.735  17.857 -0.5531 -0.2885  0.2726
15266W        W16130   1.037  15.139  20.217  0.0467 -0.3063  0.2098
15267W        W16131   3.330  18.409  20.800 -0.3028  0.2509  0.2216
15268W        W16132   1.932  16.367  20.205 -0.0569 -0.1825  0.1476
15269W        W16133   0.951  16.779  22.076 -0.0178  0.0929  0.0278
15270W        W16134  26.934  18.855  20.248  0.1117  0.2615 -0.1241
15271W        W16135   0.933  17.050  17.266 -0.2766  0.0603 -0.1244
15272W        W16136   2.133  19.430  17.319 -0.2294 -0.1247  0.1537
15273W        W16137   0.509  15.965  18.929  0.0818 -0.2113 -0.1523
15274W        W16138   3.745  15.407  18.851  0.1588 -0.0217  0.0624
15275W        W16139   3.330  19.109  19.553 -0.1426  0.0579  0.0258
15276W        W16140   3.564  18.860  21.027  0.1259 -0.3842 -0.0107
15277W        W16141   2.466  16.410  20.314 -0.0210  0.0800 -0.3264
15278W        W16142  28.574  16.321  19.997 -0.1027 -0.1279 -0.0656
15279W        W16143   4.651  17.865  20.089  0.0603 -0.1211  0.0170
15280W        W16144   3.475  16.164  18.408  0.0507  0.1295  0.2673
15281W        W16145  28.984  15.258  20.750  0.0080 -0.1004  0.0968
15282W        W16146   2.275  15.840  16.748 -0.0040 -0.0870  0.1153
15283W        W16147   1.882  16.727  16.983 -0.1415 -0.4118  0.1139
15284W        W16148  27.770  17.868  20.144 -0.1143 -0.0185 -0.0704
15285W        W16149   2.913  18.938  18.426 -0.1497 -0.2173 -0.1581
15286W        W16150   3.199  14.735  18.375 -0.0985 -0.0611 -0.2710
15287W        W16151   2.746  16.977  19.418  0.0485 -0.1498 -0.0590
15288W        W16152   1.498  19.854  19.635 -0.1123 -0.2377  0.0834
15289W        W16153   4.294  15.630  16.145  0.0525 -0.0789  0.0024
15290W        W16154   4.047  19.826  22.613 -0.0873  0.1258  0.2280
15291W        W16155   3.995  18.787  17.739  0.1919  0.1598  0.2152
15292W        W16156  27.807  15.377  18.475  0.3270 -0.0440 -0.2226
15293W        W16157   2.558  15.291  18.354  0.2826  0.0094  0.1352
15294W        W16158   3.631  15.701  17.839 -0.2671  0.0933 -0.1464
15295W        W16159  28.659  16.561  18.632 -0.3291  0.1347  0.0232
15296W        W16160   0.716  15.465  17.680  0.0808 -0.1369  0.1768
15297W        W16161   2.757  14.836  22.008 -0.2043  0.3206 -0.1154
15298W        W16162   3.187  15.959  17.870 -0.2773  0.0483  0.2457
15299W        W16163   0.768  17.870  16.618 -0.2524  0.2633  0.1872
15300W        W16164   3.145  13.901  19.280 -0.2965 -0.2018  0.0183
15301W        W16165   0.455  14.518  20.166 -0.2859  0.1586 -0.2919
15302W        W16166   4.484  18.283  19.324 -0.4582  0.1606 -0.0366
15303W        W16167   6.032  16.465  19.293  0.0652 -0.1251 -0.3383
15304W        W16168  28.281  18.501  20.681  0.1189  0.1990 -0.1359
15305W        W16169   0.413  17.957  20.542 -0.0901 -0.1991  0.2748
15306W        W16170  28.978  15.277  23.019  0.0616 -0.4558  0.1527
15307W        W16171   3.347  17.666  21.148 -0.1365 -0.1370 -0.0444
15308W        W16172   3.025  18.130  21.213 -0.1954 -0.2451 -0.0194
15309W        W16173   3.206  16.794  17.106  0.2881  0.4099 -0.0480
15310W        W16174   2.474  18.444  19.954 -0.1328 -0.3948 -0.2598
15311W        W16175   1.950  17.967  21.352  0.0232  0.0965 -0.1309
15312W        W16176   1.020  16.277  16.815 -0.1663  0.0166  0.1381
15313W        W16177   3.034  15.180  18.308  0.1570 -0.0164  0.1260
15314W        W16178  27.877  16.352  18.357 -0.0156  0.2465  0.0162
15315W        W16179  28.584  15.785  20.242 -0.1771  0.0046 -0.1291
15316W        W16180   2.628  16.538  23.219 -0.0555 -0.3622  0.1900
15317W        W16181   2.477  16.454  19.088  0.1438  0.0815  0.2067
15318W        W16182   1.993  18.497  19.002  0.1186  0.0470 -0.1910
15319W        W16183  27.067  16.929  20.133  0.0128  0.2195 -0.2845
15320W        W16184   1.717  16.684  21.061  0.4223  0.0227  0.2835
15321W        W16185   0.506  16.402  16.644 -0.1711  0.2817 -0.3764
15322W        W16186   0.882  15.413  17.147 -0.0079  0.0494 -0.2658
15323W        W16187   1.285  16.420  18.496 -0.0936  0.0252  0.3930
15324W        W16188   1.526  17.314  19.874 -0.2306  0.2280 -0.0042
15325W        W16189   1.379  17.987  22.723  0.0150 -0.2232  0.1853
15326W        W16190   6.001  19.536  17.440  0.0001  0.0276  0.1604
15327W        W16191   1.304  15.889  23.048 -0.2025 -0.1941  0.1405
15328W        W16192   2.384  17.284  19.651 -0.0375 -0.1250 -0.2101
15329W        W16193   0.441  17.168  15.846  0.1569  0.1874  0.1261
15330W        W16194  29.109  17.207  20.455 -0.1546 -0.0529  0.0471
15331W        W16195   0.895  16.503  17.241  0.2505 -0.0894  0.1774
15332W        W16196   2.092  17.941  18.126 -0.1479 -0.0704 -0.0716
15333W        W16197   0.504  17.692  15.970 -0.1193 -0.1918 -0.3657
15334W        W16198   2.322  17.029  19.052 -0.0165  0.2682 -0.0109
15335W        W16199   1.449  15.322  20.434 -0.3760  0.0693  0.1258
15336W        W16200   3.223  15.567  19.740  0.0911  0.0337  0.0347
15337W        W16201   2.687  21.038  20.567  0.1649 -0.2066 -0.1568
15338W        W16202   1.381  18.195  18.539 -0.1444  0.2453  0.2403
15339W        W16203   4.016  17.730  21.909 -0.0005 -0.0653 -0.4580
15340W        W16204   4.425  19.321  19.556  0.0200  0.5274  0.3447
15341W        W16205  27.704  16.858  18.453 -0.1491 -0.0880 -0.0313
15342W        W16206  29.072  16.185  15.752 -0.2592  0.1949 -0.1688
15343W        W16207   2.889  20.031  17.526 -0.1963 -0.0291 -0.0844
15344W        W16208   0.589  13.292  19.324 -0.2097  0.0484 -0.1587
15345W        W16209  28.578  19.003  19.654 -0.2597 -0.0021  0.1161
15346W        W16210   3.569  16.706  17.542 -0.1943 -0.0565  0.1021
15347W        W16211   2.876  14.737  19.678  0.2854  0.0901 -0.0183
15348W        W16212  28.841  19.262  17.806  0.2415 -0.1525  0.0185
15349W        W16213   2.493  17.202  18.286  0.1474  0.1380  0.2404
15350W        W16214   3.622  20.148  18.649 -0.2216 -0.0760  0.3079
15351W        W16215   0.031  15.774  17.374 -0.2567 -0.1610  0.0126
15352W        W16216   1.129  13.378  16.239 -0.1360  0.2407 -0.2318
15353W        W16217   4.659  18.817  20.129  0.0485  0.1023 -0.2145
15354W        W16218  28.600  14.235  17.951 -0.0997  0.0044 -0.2234
15355W        W16219   4.847  18.655  20.780 -0.1519  0.2906  0.1598
15356W        W16220  28.518  15.992  15.991 -0.0565 -0.1661  0.4845
15357W        W16221   1.756  19.521  18.031 -0.1236  0.1670 -0.0866
15358W        W16222   1.290  20.786  18.357 -0.2006  0.0787  0.1216
15359W        W16223   3.280  20.741  17.735  0.0533  0.0100  0.2673
15360W        W16224   0.642  14.188  16.479 -0.1612 -0.0711 -0.0116
15361W        W16225  27.196  17.966  20.221  0.1331  0.1778 -0.1620
15362W        W16226   3.872  13.447  19.104 -0.0814  0.1180  0.0505
15363W        W16227   0.770  15.533  22.045  0.0654 -0.1269  0.1068
15364W        W16228   0.109  14.250  18.800 -0.2561 -0.0766  0.5268
15365W        W16229  28.480  17.290  17.894 -0.1432  0.1697  0.0197
15366W        W16230   0.946  18.838  20.325 -0.1985  0.0402 -0.0715
15367W        W16231   2.754  16.678  18.129 -0.4072  0.1464  0.1506
15368W        W16232   1.137  17.070  16.377 -0.2051 -0.2339  0.0267
15369W        W16233  28.274  18.565  18.215  0.1965  0.0783  0.0136
15370W        W16234   4.273  17.052  19.961 -0.0953  0.0138 -0.1831
15371W        W16235   3.512  19.871  16.775 -0.1227  0.3860 -0.2143
15372W        W16236   2.900  17.071  20.460  0.0922  0.0512  0.0696
15373W        W16237   1.878  14.191  16.298  0.2139  0.0381 -0.1680
15374W        W16238   1.697  15.267  19.009 -0.1820 -0.0534 -0.2311
15375W        W16239   0.262  16.873  18.908  0.0583  0.1104  0.2402
15376W        W16240   3.498  16.390  18.989 -0.4396  0.0916  0.1465
15377W        W16241   1.335  18.250  17.233  0.0580 -0.1436  0.0252
15378W        W16242   3.022  19.500  21.546  0.0673 -0.2433 -0.1667
15379W        W16243   3.015  16.792  17.650  0.3262 -0.0568  0.0215
15380W        W16244   3.789  17.197  20.171  0.3544  0.1741  0.1885
15381W        W16245   2.533  18.504  18.634 -0.1764  0.0205 -0.0555
15382W        W16246   5.830  16.674  21.714  0.0531  0.0340  0.1624
15383W        W16247   3.096  17.155  19.823  0.2291  0.2414 -0.1063
15384W        W16248   1.105  13.314  22.253 -0.1141  0.0938  0.1805
15385W        W16249   1.167  16.804  17.671 -0.2052  0.0023 -0.1929
15386W        W16250   2.115  15.343  16.772  0.0389  0.0473  0.1997
15387W        W16251   3.837  15.172  19.794  0.0826 -0.0093  0.0353
15388W        W16252   1.280  17.578  20.230 -0.1934  0.3163  0.2406
15389W        W16253   2.195  19.331  17.809 -0.0965  0.0781 -0.0574
15390W        W16254   3.339  16.548  19.745  0.0755 -0.0325  0.2635
15391W        W16255   0.520  17.430  17.549  0.1973 -0.0059 -0.3872
15392W        W16256   3.764  21.132  20.041 -0.1053 -0.1159  0.2864
15393W        W16257  26.909  16.490  19.994 -0.0304  0.3660 -0.2716
15394W        W16258   0.540  18.770  18.974 -0.0102  0.2366 -0.0237
15395W        W16259   4.682  18.761  19.650  0.5289 -0.2377  0.1379
15396W        W16260  28.296  18.107  22.213 -0.2941 -0.0960  0.0068
15397W        W16261   2.008  19.442  18.511  0.2295  0.0263 -0.2934
15398W        W16262   1.190  20.139  20.372  0.0387 -0.0785 -0.2008
15399W        W16263   2.562  18.336  19.399 -0.1047 -0.2053  0.0665
15400W        W16264   2.314  14.560  23.641 -0.0077 -0.1567  0.1096
15401W        W16265   3.486  18.426  17.683  0.0700  0.3023 -0.1529
15402W        W16266   1.782  19.387  20.153  0.0815 -0.1640  0.0953
15403W        W16267  27.825  19.369  17.091 -0.2942 -0.2180  0.3327
15404W        W16268   0.099  17.655  18.511 -0.2192 -0.1082  0.0864
15405W        W16269   0.298  19.314  25.284  0.1263  0.0134  0.0904
15406W        W16270   0.774  18.341  25.928 -0.2133  0.0255 -0.1241
15407W        W16271   2.498  15.794  22.541  0.0016  0.0575  0.1233
15408W        W16272   1.482  17.297  25.668 -0.0554 -0.1965  0.2285
15409W        W16273   2.871  16.693  22.701 -0.1986 -0.0158 -0.0008
15410W        W16274   3.075  16.543  21.613 -0.0706  0.0770 -0.0561
15411W        W16275   2.371  13.810  26.091 -0.2222  0.2010  0.0551
15412W        W16276   2.505  19.298  21.799 -0.1079  0.0446 -0.2409
15413W        W16277   2.717  17.650  26.081  0.2259 -0.0338 -0.3120
15414W        W16278   0.423  14.138  26.356 -0.2261  0.1581  0.0571
15415W        W16279   0.446  12.851  26.967 -0.1685 -0.0037  0.2522
15416W        W16280   4.560  15.834  22.606 -0.0428 -0.1933 -0.0667
15417W        W16281   2.472  16.806  21.937  0.3730  0.3582 -0.0799
15418W        W16282   4.173  14.018  27.582  0.2826 -0.3045  0.0037
15419W        W16283   0.820  15.265  25.201 -0.3239 -0.0147  0.1432
15420W        W16284   1.157  18.179  26.570 -0.1179  0.2820  0.1282
15421W        W16285   3.185  19.177  20.905  0.3037  0.2865 -0.0512
15422W        W16286  28.774  16.568  25.778  0.3322  0.0345 -0.1029
15423W        W16287  29.072  18.351  25.312 -0.1892 -0.3706  0.0280
15424W        W16288   3.018  16.634  22.143  0.0689 -0.2661  0.0036
15425W        W16289   3.783  16.153  26.295 -0.1918 -0.0305 -0.1266
15426W        W16290   0.819  16.055  24.718 -0.2217  0.0961  0.0874
15427W        W16291   2.479  17.325  24.655  0.0958  0.0446 -0.2692
15428W        W16292   0.452  16.830  26.648  0.0528  0.2717 -0.0422
15429W        W16293  28.196  15.398  23.538 -0.1010  0.0997 -0.1621
15430W        W16294   2.841  15.371  25.490 -0.1517 -0.2300 -0.1104
15431W        W16295   2.161  16.541  24.913  0.0528  0.0314  0.2696
15432W        W16296   1.652  18.498  24.344 -0.0408  0.0347 -0.0818
15433W        W16297   4.056  17.279  24.795  0.0332 -0.4637 -0.1726
15434W        W16298   0.820  16.115  21.418 -0.1069  0.1012  0.1471
15435W        W16299   0.760  17.000  20.981  0.4825 -0.1894 -0.2112
15436W        W16300   2.018  18.039  28.063  0.1254  0.0847  0.3396
15437W        W16301   1.563  15.894  26.444  0.3575 -0.1981 -0.0957
15438W        W16302   0.655  14.772  25.164  0.0261  0.0400 -0.1305
15439W        W16303  28.458  15.751  23.138 -0.1947  0.0204 -0.0376
15440W        W16304   3.034  19.335  26.251 -0.4033 -0.2415  0.2755
15441W        W16305   1.879  14.460  22.745  0.2689  0.1761 -0.0388
15442W        W16306   0.814  16.137  25.529  0.0463 -0.3446  0.1899
15443W        W16307   1.426  14.799  22.483  0.1749 -0.2488 -0.1659
15444W        W16308   2.524  16.013  21.154  0.1175 -0.1840 -0.1920
15445W        W16309   1.840  15.508  20.757  0.0894  0.2981 -0.0914
15446W        W16310   5.431  17.573  22.937  0.2814 -0.1401 -0.1270
15447W        W16311   0.737  18.970  21.231 -0.1537  0.1137 -0.0585
15448W        W16312   3.446  18.766  20.531  0.3679 -0.0404 -0.0175
15449W        W16313   1.238  17.842  19.236  0.5064  0.0048  0.3130
15450W        W16314  28.562  17.195  20.356 -0.1266  0.2935  0.0716
15451W        W16315  28.578  14.028  26.510  0.4789 -0.3166  0.1535
15452W        W16316   3.044  17.651  22.070  0.1716  0.1783  0.0003
15453W        W16317   3.401  15.847  21.605  0.1430 -0.0657 -0.0372
15454W        W16318   5.799  14.626  21.762 -0.3573  0.1395 -0.0615
15455W        W16319   4.635  15.552  23.126 -0.3245 -0.2671  0.1807
15456W        W16320   0.973  14.457  24.315  0.2012  0.0332  0.1125
15457W        W16321   3.170  17.555  24.062  0.0427  0.4314  0.2437
15458W        W16322   3.204  13.892  21.550  0.1969 -0.1357  0.0428
15459W        W16323   2.065  16.268  23.186  0.2251 -0.0322  0.2746
15460W        W16324   3.458  18.443  20.033  0.1231  0.1585  0.2803
15461W        W16325  28.592  16.234  22.173 -0.1422  0.0832 -0.0341
15462W        W16326   1.860  15.100  22.815  0.0098 -0.0681 -0.2052
15463W        W16327   1.382  18.043  21.748 -0.1359  0.3202  0.3125
15464W        W16328   0.521  18.767  24.570  0.0811  0.0135 -0.0362
15465W        W16329   5.109  14.899  18.637  0.2245  0.0441  0.7341
15466W        W16330   1.136  17.172  22.405 -0.2449  0.3406  0.0394
15467W        W16331   1.005  16.569  24.110 -0.1495  0.0629  0.0418
15468W        W16332   2.726  14.879  22.503 -0.2874  0.3485 -0.2535
15469W        W16333   2.187  14.017  22.739 -0.0150  0.1190 -0.0665
15470W        W16334   3.993  13.690  24.066  0.2527  0.0377  0.1165
15471W        W16335   2.157  17.479  20.558  0.1087  0.1611 -0.0469
15472W        W16336   0.530  15.126  20.437  0.2602  0.1047 -0.1679
15473W        W16337   1.887  16.226  23.651  0.3062  0.1834 -0.1722
15474W        W16338   1.738  17.697  24.434  0.0746  0.1994  0.1829
15475W        W16339   2.966  18.528  24.795  0.1578  0.1520  0.1872
15476W        W16340   3.101  14.888  20.927 -0.2381 -0.2247  0.0729
15477W        W16341   1.307  17.836  21.198 -0.2039 -0.2995  0.1287
15478W        W16342   3.934  16.094  23.677  0.1765 -0.0082 -0.2446
15479W        W16343   4.544  18.525  23.593  0.4349 -0.2535  0.1693
15480W        W16344   2.069  17.840  26.294  0.0643  0.1594 -0.1490
15481W        W16345   0.977  14.783  25.549 -0.1229  0.3294  0.0001
15482W        W16346   0.623  16.208  24.238 -0.0952  0.2006 -0.1586
15483W        W16347   4.782  15.512  21.818  0.2547 -0.1116  0.2167
15484W        W16348   1.816  14.162  23.124 -0.2319  0.0003 -0.1611
15485W        W16349  28.875  16.990  26.603  0.1943  0.0778 -0.0032
15486W        W16350   1.593  17.526  26.351  0.1241 -0.0538  0.2886
15487W        W16351   0.428  13.622  26.616  0.0332 -0.3131  0.2902
15488W        W16352   0.265  14.963  23.220  0.1183  0.0191 -0.2153
15489W        W16353   2.242  16.555  25.377 -0.1334  0.0418 -0.2627
15490W        W16354   4.177  13.916  23.439  0.1628 -0.0062 -0.1810
15491W        W16355   2.826  15.689  26.390 -0.0509  0.1377  0.0017
15492W        W16356   1.992  14.793  25.061  0.1227 -0.1222 -0.0697
15493W        W16357   2.703  18.473  27.666  0.0618 -0.0969  0.0400
15494W        W16358   2.655  14.910  23.474  0.0629 -0.1467  0.2234
15495W        W16359  28.097  16.130  22.245 -0.3955 -0.1219  0.0568
15496W        W16360   2.958  16.315  24.561 -0.1690 -0.2933 -0.1224
15497W        W16361   0.748  18.451  22.663 -0.1529 -0.2510 -0.0772
15498W        W16362   1.904  15.937  21.760  0.0148 -0.0993  0.3467
15499W        W16363   3.826  15.836  24.783 -0.1262 -0.0188 -0.0243
15500W        W16364   2.645  15.621  19.754 -0.0245 -0.2457 -0.1705
15501W        W16365   4.526  15.439  20.305 -0.2573 -0.2857  0.3235
15502W        W16366   0.974  17.236  27.338  0.1522  0.2764 -0.3291
15503W        W16367   0.623  14.563  21.384  0.1147  0.0645 -0.0041
15504W        W16368   2.775  18.182  23.412  0.0526  0.3240 -0.0597
15505W        W16369   6.300  19.020  23.074  0.0521 -0.0238 -0.2885
15506W        W16370  28.491  17.231  23.304  0.1477  0.3044  0.2246
15507W        W16371   3.061  13.404  19.421 -0.1188 -0.3117  0.0559
15508W        W16372   4.371  16.874  20.687 -0.4932 -0.2745 -0.1940
15509W        W16373   1.250  17.103  26.745  0.1044 -0.1072  0.0149
15510W        W16374   3.630  15.740  23.904  0.0351 -0.0783 -0.0550
15511W        W16375   2.261  17.744  20.112  0.1276  0.0382 -0.2636
15512W        W16376   2.251  18.030  23.956 -0.2630 -0.1336 -0.1609
15513W        W16377   2.744  14.652  20.145  0.3571  0.2975  0.1611
15514W        W16378  28.214  15.469  24.941  0.1675  0.0158 -0.1977
15515W        W16379   0.437  16.601  26.190 -0.1685  0.2562  0.0282
15516W        W16380   2.393  17.221  23.904 -0.1587 -0.2714  0.1072
15517W        W16381   1.459  14.666  21.984  0.2105 -0.0337 -0.0512
15518W        W16382   1.062  18.830  22.556 -0.2494 -0.1572 -0.0747
15519W        W16383   6.382  14.610  21.160  0.1429 -0.1712 -0.1048
15520W        W16384   0.959  16.203  20.004 -0.0910 -0.1365 -0.0988
15521W        W16385   1.687  15.053  23.398 -0.0430  0.1983  0.2649
15522W        W16386   0.963  15.153  26.924 -0.0463 -0.1722  0.2698
15523W        W16387   3.077  16.010  24.093  0.3411 -0.2371 -0.3239
15524W        W16388   1.469  18.684  20.926 -0.0286  0.3453 -0.0468
15525W        W16389   1.248  15.189  21.242 -0.1691 -0.2814  0.0063
15526W        W16390   0.883  16.815  22.650  0.0535  0.3434  0.1737
15527W        W16391   1.857  16.476  22.352 -0.4091 -0.2393 -0.1950
15528W        W16392   0.902  15.979  23.860  0.3173 -0.0689 -0.0501
15529W        W16393   1.838  17.395  22.155  0.1666 -0.1610 -0.1229
15530W        W16394   3.676  17.118  22.582 -0.0576  0.0077  0.1374
15531W        W16395   1.492  14.604  24.246  0.0269 -0.1232  0.2258
15532W        W16396   2.389  13.247  22.891  0.2302 -0.0183 -0.2644
15533W        W16397   4.431  17.077  23.570 -0.1297 -0.1114  0.0857
15534W        W16398   1.335  17.644  20.737  0.0869 -0.2363  0.0359
15535W        W16399   2.553  19.237  23.662  0.2148 -0.0171  0.2003
15536W        W16400   2.015  18.765  20.017  0.2924  0.3009  0.2913
15537W        W16401   1.830  18.180  22.728 -0.3417  0.1631 -0.2360
15538W        W16402   3.068  15.758  20.179 -0.0297  0.1287 -0.0475
15539W        W16403   1.752  18.429  20.329 -0.0620  0.0394 -0.1054
15540W        W16404  28.396  15.623  25.989 -0.0213 -0.2284  0.0846
15541W        W16405   4.062  18.675  21.967 -0.3641  0.0106  0.1920
15542W        W16406   3.758  15.129  23.879  0.2253 -0.3040 -0.1474
15543W        W16407   1.379  19.219  22.697  0.0614 -0.0231  0.3752
15544W        W16408  28.738  18.086  21.352 -0.1272  0.0301  0.1862
15545W        W16409   2.358  13.936  21.767  0.2693 -0.0192 -0.0351
15546W        W16410   2.350  14.137  23.384 -0.1822 -0.2504  0.0500
15547W        W16411   0.606  19.258  18.967  0.2447 -0.2939 -0.1276
15548W        W16412   0.534  15.637  21.403  0.4028 -0.2744  0.0549
15549W        W16413   1.640  15.124  24.946  0.2363 -0.0278  0.0644
15550W        W16414   1.753  17.812  20.337  0.1539  0.3875  0.2494
15551W        W16415   4.547  16.288  23.444 -0.0301 -0.2451  0.2077
15552W        W16416   4.376  16.713  23.152 -0.0814  0.0477  0.1294
15553W        W16417   5.145  18.274  20.515  0.0347 -0.0605 -0.2418
15554W        W16418   1.522  18.443  26.830 -0.0696 -0.3101  0.1834
15555W        W16419   4.576  17.240  25.720  0.1856  0.0459 -0.0896
15556W        W16420  28.655  13.964  22.947  0.0086 -0.0075  0.0112
15557W        W16421   0.471  17.903  24.792  0.3030 -0.1884 -0.0010
15558W        W16422   2.355  14.359  19.987  0.3623  0.0145  0.1120
15559W        W16423  28.941  17.414  25.422 -0.1438 -0.0643  0.1130
15560W        W16424   1.298  15.413  26.188 -0.0044 -0.0175  0.1025
15561W        W16425   1.774  16.913  25.512 -0.1105  0.2615  0.2871
15562W        W16426   2.586  17.082  22.378 -0.0960  0.1299  0.2855
15563W        W16427  27.938  13.860  22.593  0.1653 -0.0095 -0.1225
15564W        W16428   1.241  14.356  25.392  0.0015  0.1632  0.0206
15565W        W16429  28.705  13.472  25.166  0.2469 -0.1711 -0.0420
15566W        W16430   2.436  18.340  25.645 -0.1051  0.1273  0.1584
15567W        W16431   4.348  15.892  23.745  0.2847  0.2583 -0.1953
15568W        W16432   1.298  15.859  24.725  0.1667 -0.1231  0.0304
15569W        W16433   3.422  17.043  23.440 -0.3126 -0.1899 -0.1338
15570W        W16434   2.339  14.270  22.139  0.0004 -0.1629 -0.2832
15571W        W16435   1.668  13.868  20.746 -0.0737  0.0851  0.0021
15572W        W16436   1.407  17.814  23.639 -0.0240  0.0098 -0.1226
15573W        W16437   1.146  19.782  27.448 -0.0710  0.2322 -0.0671
15574W        W16438   2.605  17.621  21.790  0.2965  0.4264  0.2981
15575W        W16439   2.610  15.679  21.997  0.0566 -0.0049 -0.0275
15576W        W16440   2.786  14.876  23.002 -0.1320 -0.4284  0.1500
15577W        W16441   2.156  16.682  23.402 -0.0835 -0.0055 -0.1669
15578W        W16442   2.509  17.275  21.372  0.0550 -0.0255  0.0498
15579W        W16443  28.969  16.079  25.523  0.0282  0.3047 -0.0682
15580W        W16444   5.673  13.724  22.684 -0.1257  0.0242 -0.1125
15581W        W16445   0.276  20.255  24.398  0.0288  0.0150  0.0294
15582W        W16446   1.325  18.188  24.113 -0.0315 -0.1458 -0.1396
15583W        W16447  26.598  17.872  20.460 -0.0491  0.1538 -0.0775
15584W        W16448   2.194  15.649  25.659  0.0696 -0.0003 -0.0861
15585W        W16449   1.819  18.947  22.427 -0.1691 -0.1459 -0.0550
15586W        W16450   1.989  21.274  20.641  0.1120 -0.0947  0.1786
15587W        W16451   2.274  15.078  21.306 -0.2618  0.0058 -0.0866
15588W        W16452   0.301  15.447  23.537 -0.0967 -0.1987 -0.0219
15589W        W16453   2.596  17.389  20.297 -0.1583 -0.2142 -0.1945
15590W        W16454   2.084  15.497  21.569 -0.3380 -0.0777  0.0655
15591W        W16455   3.442  16.315  20.469  0.2085  0.0961 -0.1039
15592W        W16456   2.044  13.204  21.342  0.2778 -0.2686 -0.0609
15593W        W16457   2.482  15.381  25.999  0.1160  0.0463  0.3024
15594W        W16458  27.903  17.436  25.006 -0.1946  0.0166  0.0324
15595W        W16459   1.265  14.613  20.784 -0.0238  0.0263 -0.3275
15596W        W16460   0.759  17.939  21.977 -0.0428  0.1076  0.1524
15597W        W16461   0.421  16.512  28.764 -0.2654  0.1436  0.0972
15598W        W16462   0.876  15.662  24.393 -0.2662  0.1652 -0.3655
15599W        W16463   2.800  12.572  24.123  0.0484 -0.0749  0.1081
15600W        W16464   0.319  15.732  24.513 -0.1013  0.2185  0.3159
15601W        W16465   0.606  15.557  23.905  0.1593  0.3817  0.1896
15602W        W16466   3.642  16.071  24.294  0.0015  0.4595  0.0943
15603W        W16467   0.878  17.977  22.966 -0.2438 -0.0561  0.2056
15604W        W16468   2.132  16.865  22.359  0.1664  0.1799  0.0940
15605W        W16469  28.406  14.613  21.860 -0.2495 -0.2798 -0.0704
15606W        W16470   0.371  15.076  24.952 -0.2992 -0.4056 -0.2912
15607W        W16471   6.597  16.992  21.324 -0.1215 -0.0069  0.1371
15608W        W16472   2.492  15.510  25.144 -0.3305  0.0244 -0.0624
15609W        W16473   2.901  16.435  27.522  0.0949  0.0878  0.1955
15610W        W16474   0.285  16.863  20.934 -0.2079  0.0599 -0.0024
15611W        W16475   1.898  14.932  25.582 -0.3486 -0.0389 -0.0433
15612W        W16476   1.608  14.974  21.583 -0.2476 -0.1471  0.2249
15613W        W16477  28.690  17.197  22.800  0.3004  0.0539  0.0299
15614W        W16478  28.496  15.377  24.033 -0.0221  0.0250 -0.0256
15615W        W16479   0.973  15.264  25.663 -0.4908  0.1665  0.1436
15616W        W16480   1.217  14.936  26.465  0.1326 -0.3781 -0.3440
15617W        W16481   1.651  15.927  23.973 -0.0730 -0.0850  0.1411
15618W        W16482   1.802  14.140  24.135  0.1358 -0.2586 -0.2916
15619W        W16483   6.607  16.954  26.583  0.1651 -0.2768 -0.1174
15620W        W16484   6.300  16.126  24.497  0.1534 -0.1838  0.2600
15621W        W16485   2.334  18.505  24.099  0.1261 -0.0705 -0.1141
15622W        W16486   4.186  17.619  23.766  0.2048  0.0954  0.2658
15623W        W16487   2.682  17.569  22.414  0.2922  0.0014  0.0346
15624W        W16488   0.395  16.731  24.741  0.1678  0.3571 -0.1534
15625W        W16489   2.835  15.114  26.257  0.2210  0.0840  0.1406
15626W        W16490   4.390  18.664  23.062  0.2485 -0.2633 -0.0767
15627W        W16491   2.726  17.515  23.635  0.0123 -0.1697 -0.2129
15628W        W16492   2.299  15.007  22.660 -0.0390 -0.2912  0.0137
15629W        W16493   0.445  16.834  21.454  0.0997  0.2357 -0.0107
15630W        W16494   2.196  16.009  27.095 -0.1720  0.1011  0.1993
15631W        W16495   2.671  16.532  24.898 -0.2176  0.1038 -0.0712
15632W        W16496   2.933  17.145  25.980 -0.1727 -0.0573 -0.2358
15633W        W16497   2.157  16.177  22.624  0.1852  0.2003 -0.2102
15634W        W16498   2.087  17.125  22.941  0.2024 -0.0252  0.1181
15635W        W16499   2.906  16.261  26.591 -0.1992  0.1629 -0.0014
15636W        W16500   1.785  16.484  25.224 -0.0371 -0.0615 -0.1376
15637W        W16501   1.067  16.034  20.932 -0.1733 -0.4820  0.1891
15638W        W16502   1.403  18.141  20.679 -0.0098  0.1604  0.1037
15639W        W16503  27.446  17.234  22.908 -0.2029 -0.0288  0.4455
15640W        W16504   1.293  17.640  23.163  0.1984 -0.1257 -0.0075
15641W        W16505   5.214  16.854  22.491  0.2057  0.0630  0.1054
15642W        W16506   1.300  16.535  26.525 -0.0604 -0.3618  0.0616
15643W        W16507   5.024  19.327  25.834  0.3580 -0.4095 -0.2367
15644W        W16508   1.892  18.459  23.914  0.0476  0.1074  0.0254
15645W        W16509   0.412  18.119  21.553  0.1140 -0.3343  0.0025
15646W        W16510   1.478  20.714  27.319 -0.0506  0.2528  0.1008
15647W        W16511   3.218  14.044  25.501  0.4974  0.2824 -0.2290
15648W        W16512   3.604  15.991  22.261 -0.1174 -0.2512 -0.1634
15649W        W16513   1.309  15.356  25.233  0.1488  0.0383  0.0295
15650W        W16514   0.903  16.695  20.459  0.1740  0.3663  0.1216
15651W        W16515   1.955  16.444  24.405  0.0111  0.1211 -0.1793
15652W        W16516   1.305  15.434  24.114 -0.0116  0.0645  0.0329
15653W        W16517   4.637  18.246  21.246 -0.0517 -0.1987 -0.0453
15654W        W16518   0.753  13.518  24.212 -0.4842  0.0863 -0.0298
15655W        W16519   2.187  17.580  21.102  0.2345 -0.3911 -0.0923
15656W        W16520   2.699  15.242  24.103 -0.5205  0.0824  0.0036
15657W        W16521   3.019  18.211  24.395  0.1010  0.0251 -0.0570
15658W        W16522   1.163  17.597  21.582 -0.2158  0.1270 -0.0463
15659W        W16523   0.926  16.639  25.487 -0.0104 -0.3047  0.0940
15660W        W16524   3.438  18.172  23.446 -0.0790 -0.2425 -0.0851
15661W        W16525   3.444  17.467  21.791 -0.2696 -0.2539  0.0466
15662W        W16526   2.845  14.059  23.764  0.0272 -0.2411 -0.1117
15663W        W16527   3.675  16.709  21.262 -0.1530  0.0326 -0.2222
15664W        W16528   1.728  16.450  21.549 -0.2139  0.0236 -0.1347
15665W        W16529   0.722  17.795  25.704 -0.2317 -0.0820  0.3126
15666W        W16530   0.940  16.526  25.964  0.1193  0.1985 -0.2475
15667W        W16531   3.295  16.660  23.016  0.2348  0.0514  0.2241
15668W        W16532  27.038  16.745  22.826 -0.0420 -0.1763  0.1630
15669W        W16533   2.176  20.658  26.052  0.1398 -0.1118  0.1549
15670W        W16534   1.845  15.541  25.333 -0.1481 -0.2518  0.2465
15671W        W16535   0.568  17.051  20.451 -0.0162  0.1305  0.1144
15672W        W16536   3.298  18.327  22.065 -0.0566 -0.0565  0.1325
15673W        W16537   0.633  14.084  26.793 -0.0785 -0.0792  0.1869
15674W        W16538   1.213  18.307  21.248  0.0282 -0.1004 -0.2165
15675W        W16539   1.003  18.528  19.943  0.0070 -0.0121  0.0731
15676W        W16540   0.629  14.923  23.976 -0.4860  0.1717  0.0848
15677W        W16541   1.765  15.911  22.370 -0.1424  0.1183  0.1097
15678W        W16542   2.384  16.360  26.361  0.1947  0.1534  0.0073
15679W        W16543   3.275  18.566  24.115 -0.0965 -0.1689  0.2422
15680W        W16544   2.439  14.536  23.015 -0.2732 -0.1293 -0.2049
15681W        W16545   0.740  14.361  25.561 -0.0712  0.2953  0.1976
15682W        W16546   1.143  16.372  23.074 -0.3276 -0.1292  0.1369
15683W        W16547   1.908  14.432  25.458 -0.2540  0.0051 -0.0051
15684W        W16548   1.422  16.330  24.716  0.0688 -0.2249 -0.0699
15685W        W16549   0.509  16.659  22.342  0.1691 -0.0733  0.2236
15686W        W16550   0.555  16.251  23.247  0.0951 -0.0165 -0.0880
15687W        W16551   1.440  16.862  21.462 -0.2301 -0.1535 -0.1821
15688W        W16552   0.682  20.605  25.908 -0.2615  0.1592  0.2052
15689W        W16553   3.550  18.627  23.224 -0.2371 -0.1477  0.3332
15690W        W16554   1.821  15.989  25.795  0.1715  0.2488 -0.0258
15691W        W16555   2.841  15.787  24.851  0.0368  0.2657  0.0388
15692W        W16556   0.682  15.641  25.478  0.0835  0.1224 -0.3005
15693W        W16557   3.251  17.031  21.696  0.2388  0.0824 -0.0538
15694W        W16558   1.414  18.139  20.136  0.1018  0.2269 -0.0593
15695W        W16559   2.103  16.400  21.879  0.5205 -0.0013  0.2110
15696W        W16560   3.719  13.089  19.560  0.0729  0.1738  0.1271
15697W        W16561   0.738  14.937  25.981 -0.1207  0.1347  0.2186
15698W        W16562   0.943  17.290  24.723 -0.2344  0.1388  0.0156
15699W        W16563   1.279  16.954  23.864 -0.0445  0.0632 -0.0002
15700W        W16564   3.016  16.634  20.736 -0.1024 -0.0307  0.0533
15701W        W16565   1.257  15.122  23.632 -0.0633 -0.3193 -0.4355
15702W        W16566   5.252  16.300  22.885  0.1197 -0.0217 -0.3062
15703W        W16567   2.422  14.193  23.968  0.0843  0.1258 -0.0266
15704W        W16568   0.008  18.302  23.854  0.1879 -0.5364 -0.1768
15705W        W16569   1.506  18.538  19.931 -0.3312 -0.0122  0.4011
15706W        W16570   2.405  17.203  27.412 -0.3436  0.2734 -0.1276
15707W        W16571   2.641  20.621  26.914 -0.2106 -0.0616  0.1135
15708W        W16572   5.433  16.218  25.249  0.0985  0.0261  0.0237
15709W        W16573   2.362  15.981  21.645 -0.1899  0.0382  0.0057
15710W        W16574   2.825  18.071  25.001  0.2611  0.0314 -0.1422
15711W        W16575   4.814  17.614  23.051  0.2559 -0.2014 -0.3066
15712W        W16576   1.079  14.287  21.181  0.0647 -0.2728  0.1971
15713W        W16577   1.974  15.530  22.081 -0.3453 -0.1776 -0.1766
15714W        W16578  28.720  18.276  25.676 -0.3396  0.0422  0.2105
15715W        W16579  28.749  14.980  20.489 -0.0874 -0.0560 -0.1572
15716W        W16580   2.575  17.442  25.148  0.1857  0.1841 -0.3274
15717W        W16581   1.075  15.626  22.423  0.0695  0.1135 -0.0606
15718W        W16582   2.434  16.323  24.567  0.2536 -0.2775  0.0635
15719W        W16583   2.651  16.211  25.285  0.1324  0.2046  0.0188
15720W        W16584   1.695  16.845  26.363 -0.1261  0.0062  0.2145
15721W        W16585   0.945  13.771  23.792 -0.0696  0.0938  0.1680
15722W        W16586   2.482  15.411  23.145  0.1251  0.1665 -0.1302
15723W        W16587   1.175  16.119  26.682  0.0904  0.1180 -0.0770
15724W        W16588   3.965  16.141  20.046  0.0592  0.0548 -0.0060
15725W        W16589  28.718  19.330  22.313 -0.1558 -0.0380  0.0287
15726W        W16590   4.124  19.043  20.280 -0.0234  0.0109 -0.2322
15727W        W16591  29.054  16.699  27.747  0.0957 -0.2037  0.2071
15728W        W16592   2.953  17.195  24.756  0.0765 -0.1442 -0.1019
15729W        W16593   0.960  15.932  21.853  0.1009 -0.2829  0.0262
15730W        W16594   1.245  17.678  24.186  0.2587  0.0961 -0.0273
15731W        W16595  28.621  15.788  23.637 -0.0647  0.1661 -0.1036
15732W        W16596   0.596  16.439  25.190 -0.1523 -0.0993 -0.1705
15733W        W16597   3.256  15.455  20.814 -0.0829  0.2012 -0.1047
15734W        W16598  28.471  15.723  24.512  0.0965  0.0840 -0.1413
15735W        W16599   2.335  14.469   0.064 -0.2415 -0.3903 -0.0921
15736W        W16600   3.574  16.284  21.451 -0.2906 -0.0130 -0.0861
15737W        W16601   2.225  14.953  23.207 -0.2234 -0.0320  0.2033
15738W        W16602   2.227  17.881  25.714  0.1504 -0.2124 -0.2422
15739W        W16603   4.334  15.733  24.588 -0.0347 -0.0967  0.1868
15740W        W16604   4.085  17.894  23.298 -0.0542 -0.1686  0.2861
15741W        W16605   2.408  18.052  26.944 -0.2021 -0.0277 -0.1502
15742W        W16606   3.858  19.228  21.348 -0.1706 -0.1486 -0.1308
15743W        W16607   1.957  17.309  20.150 -0.0298 -0.0382 -0.0435
15744W        W16608   1.514  13.764  24.815  0.1508 -0.3861  0.2904
15745W        W16609   1.218  18.409  22.928 -0.1762  0.1269 -0.2180
15746W        W16610   2.000  13.835  25.325  0.2166 -0.0893  0.1431
15747W        W16611   2.144  15.505  22.707  0.1707 -0.0041  0.2198
15748W        W16612   1.865  17.751  22.963  0.3390 -0.0151  0.1680
15749W        W16613   1.341  19.719  22.441  0.0069  0.1627 -0.1491
15750W        W16614   2.163  16.904  24.525  0.1816 -0.2279 -0.0560
15751W        W16615   2.012  14.619  24.058  0.0980  0.1704  0.1597
15752W        W16616  28.799  14.760  25.463  0.1107 -0.1266  0.1463
15753W        W16617   1.410  20.455  24.711 -0.1449 -0.1830  0.3945
15754W        W16618   1.172  14.918  25.005  0.1473 -0.0587 -0.0212
15755W        W16619   1.393  13.955  23.003 -0.0558  0.1087  0.0212
15756W        W16620   4.581  14.093  21.886  0.2229 -0.0597 -0.1729
15757W        W16621   5.362  17.434  21.195 -0.0357  0.4201  0.1430
15758W        W16622   1.026  16.399  22.428  0.1565 -0.0385  0.0570
15759W        W16623   1.168  16.459  21.740  0.2428  0.2453  0.1739
15760W        W16624   3.293  17.102  22.209 -0.2092 -0.0608 -0.1485
15761W        W16625   0.685  18.986  23.397 -0.0374  0.1128 -0.0998
15762W        W16626   4.245  15.191  23.145 -0.1009 -0.1254 -0.0519
15763W        W16627   1.334  16.634  27.006  0.1636 -0.0403  0.1902
15764W        W16628   1.339  16.035  22.532 -0.0011  0.1728  0.1154
15765W        W16629  29.068  11.986  24.192  0.0445  0.3040  0.2791
15766W        W16630   4.717  17.710  21.740  0.0609 -0.0930  0.1143
15767W        W16631   2.982  19.785  21.141 -0.1350 -0.1942  0.0709
15768W        W16632   5.046  15.977  22.486  0.0723  0.0111 -0.1305
15769W        W16633   0.739  17.369  26.933 -0.0647  0.0406  0.0166
15770W        W16634   1.788  15.795  22.897  0.2311 -0.3380  0.0823
15771W        W16635   3.139  14.911  23.492  0.1898  0.0180  0.2131
15772W        W16636   1.655  18.841  23.570 -0.1664  0.3272 -0.0336
15773W        W16637   1.629  15.470  22.527 -0.0319 -0.1089 -0.2062
15774W        W16638   1.761  15.241  21.172 -0.0428  0.1438 -0.1600
15775W        W16639   0.283  13.692  22.374 -0.0761  0.2380 -0.0915
15776W        W16640   4.076  15.851  22.356  0.2210  0.0905 -0.4379
15777W        W16641   1.239  17.693  22.097 -0.0552  0.1083 -0.0113
15778W        W16642   2.962  16.733  25.286  0.1356 -0.0443  0.0531
15779W        W16643   3.063  16.008  20.729  0.0803  0.2551  0.0397
15780W        W16644   3.298  15.961  24.682 -0.3458 -0.1319  0.0505
15781W        W16645  28.856  14.687  24.354 -0.2374 -0.1744 -0.4743
15782W        W16646   3.351  19.591  25.957 -0.1036 -0.2268  0.1228
15783W        W16647   4.202  17.963  24.179  0.1526 -0.1775  0.1493
15784W        W16648   1.723  15.089  26.359 -0.0280 -0.2357 -0.0729
15785W        W16649   4.022  18.474  23.344 -0.3962 -0.0645 -0.1980
15786W        W16650   2.025  15.413  23.319  0.0657 -0.2267 -0.2076
15787W        W16651  27.942  16.470  25.564  0.2789 -0.2560 -0.2040
15788W        W16652   0.328  15.992  22.755 -0.0479 -0.3944 -0.2814
15789W        W16653   2.334  17.256  21.998  0.1197  0.1600 -0.2052
15790W        W16654   3.288  15.503  26.595  0.1703 -0.1771 -0.1036
15791W        W16655   2.402  17.850  23.501  0.1057  0.0827 -0.1606
15792W        W16656   2.336  16.177  25.889 -0.0313 -0.1639  0.0010
15793W        W16657   1.757  17.494  23.378  0.0913  0.0049 -0.1407
15794W        W16658   2.630  16.258  22.810 -0.2290 -0.1277  0.4073
15795W        W16659   0.661  16.939  25.892  0.2273  0.0138  0.2418
15796W        W16660   0.568  17.467  23.843 -0.3076  0.0234  0.0806
15797W        W16661   1.378  17.172  21.850 -0.0619 -0.0673  0.1925
15798W        W16662   1.901  18.430  22.237 -0.1156  0.0856 -0.1174
15799W        W16663  28.252  18.301  23.555  0.2302  0.2321 -0.2135
15800W        W16664   1.317  16.219  27.436 -0.1655 -0.0069  0.2198
15801W        W16665   1.324  18.712  23.969  0.0471 -0.2431 -0.2418
15802W        W16666   4.024  17.137  26.109 -0.1843  0.1616 -0.0017
15803W        W16667   1.388  16.739  22.887  0.0873  0.1839 -0.1685
15804W        W16668   2.646  15.640  20.808  0.1007  0.1940  0.2434
15805W        W16669   0.690  19.530   1.510  0.1844 -0.3780  0.0948
15806W        W16670  28.736  15.630   1.096 -0.1548  0.1588  0.2357
15807W        W16671   1.508  17.337  24.687 -0.0364 -0.3883 -0.0418
15808W        W16672   3.734  17.483  26.982  0.0290  0.0788  0.1688
15809W        W16673   2.487  18.105  26.137  0.0746  0.1505 -0.1330
15810W        W16674   2.534  16.313  26.928 -0.0714 -0.2245 -0.0663
15811W        W16675  29.015  14.288  26.775 -0.0365 -0.1424 -0.1986
15812W        W16676   2.172  16.058  24.129  0.0062  0.0281 -0.0846
15813W        W16677   0.583  17.874  29.025 -0.1789 -0.2332 -0.1194
15814W        W16678   1.302  19.735  27.013  0.4357 -0.2260  0.1692
15815W        W16679   3.059  15.366  27.503 -0.0491 -0.1244 -0.0785
15816W        W16680   2.903  14.507  27.041  0.0571  0.0689  0.0500
15817W        W16681   1.133  16.079  26.110 -0.2061 -0.0460  0.1002
15818W        W16682   3.636  14.808  28.364  0.0079 -0.0327 -0.0915
15819W        W16683   2.229  13.666   0.413  0.0280 -0.0501 -0.0519
15820W        W16684  29.020  24.439   1.250  0.0105 -0.2083  0.0343
15821W        W16685   1.487  17.032  27.278 -0.3112  0.1537  0.0006
15822W        W16686   0.672  17.384  26.001  0.1603  0.0485  0.0102
15823W        W16687   3.689  15.310   1.126 -0.0987 -0.0373 -0.0076
15824W        W16688   3.386  15.260  27.898  0.3217  0.0202  0.0959
15825W        W16689   5.379  17.691  25.456  0.1957 -0.0993 -0.0225
15826W        W16690   2.036  16.791  28.544 -0.0432 -0.2000 -0.1520
15827W        W16691   2.704  17.446  26.888 -0.1334 -0.1701 -0.0514
15828W        W16692   1.221  18.992  27.738 -0.1214 -0.3837  0.1505
15829W        W16693  28.777  17.893  27.162 -0.3450  0.1981  0.1045
15830W        W16694   1.749  15.829  28.791 -0.1444 -0.1535  0.1623
15831W        W16695   6.052  13.798   0.704 -0.0871  0.1772 -0.0982
15832W        W16696   0.583  14.413   1.052  0.2135  0.0046  0.0623
15833W        W16697   0.751  16.926  27.750  0.0095 -0.1616 -0.0242
15834W        W16698   2.950  16.145  28.851  0.0776 -0.0439 -0.2705
15835W        W16699   3.766  15.333  26.713  0.2884  0.0302  0.1882
15836W        W16700   2.220  17.256  28.548 -0.1042  0.0547  0.0909
15837W        W16701  29.075  15.587   0.687  0.3186  0.3101  0.0161
15838W        W16702   1.357  19.011  28.780  0.1085  0.1733 -0.2514
15839W        W16703   1.413  14.754   0.447  0.1272  0.1105 -0.2364
15840W        W16704   3.527  16.456  27.594 -0.2799 -0.2850  0.0144
15841W        W16705   0.225  14.490  28.580  0.1341 -0.1453 -0.0276
15842W        W16706   0.759  17.150   0.084 -0.0303 -0.1470 -0.0806
15843W        W16707   4.522  16.507  27.286  0.0462  0.0803 -0.0436
15844W        W16708   3.100  14.827  26.584  0.1459  0.0864  0.2094
15845W        W16709   2.589  15.866  23.416 -0.4066  0.1146  0.3177
15846W        W16710   6.769  14.061  26.722  0.0620 -0.0726  0.1819
15847W        W16711   3.521  17.933  25.665  0.1069  0.3358 -0.0750
15848W        W16712   4.023  17.123  23.874  0.0602 -0.2350 -0.3038
15849W        W16713   1.551  18.830  25.263  0.2526  0.0238  0.0464
15850W        W16714   1.480  19.242  27.330  0.0287 -0.1991  0.1190
15851W        W16715   1.670  14.074  29.022 -0.0874 -0.0962  0.2316
15852W        W16716   4.806  16.652  26.512 -0.1230 -0.2221  0.1966
15853W        W16717   3.874  16.504  24.109 -0.0575  0.0344  0.2525
15854W        W16718   2.753  14.891  24.554 -0.0346  0.0440  0.1641
15855W        W16719   2.587  18.555  29.142  0.1855  0.0509  0.1281
15856W        W16720   4.655  16.158  26.345 -0.0067 -0.0711 -0.0868
15857W        W16721   4.503  16.805   0.060  0.4229  0.1010  0.1022
15858W        W16722   3.166  14.595  25.549 -0.0912  0.1712 -0.0267
15859W        W16723   2.306  13.434  24.526 -0.2592  0.1846 -0.1362
15860W        W16724  28.186  18.605  25.090 -0.0634 -0.1213  0.1600
15861W        W16725   0.432  15.298  26.017 -0.2275 -0.2873 -0.0579
15862W        W16726   4.386  16.136   0.898  0.1546  0.1555 -0.0139
15863W        W16727   1.102  17.887  28.018  0.0244 -0.2244  0.1129
15864W        W16728   2.698  17.800  26.577 -0.3475  0.1873 -0.3214
15865W        W16729   2.526  16.944  25.182  0.0305  0.0564 -0.6518
15866W        W16730  29.144  19.628  26.192  0.1300 -0.1202 -0.3056
15867W        W16731   1.221  15.105  28.062  0.0441  0.0339 -0.2617
15868W        W16732   1.408  17.255  27.679 -0.2358 -0.0671  0.3327
15869W        W16733   2.459  17.321   0.935 -0.1537 -0.1079  0.2965
15870W        W16734   3.190  16.838  26.290  0.0640 -0.0216 -0.0341
15871W        W16735   2.079  16.494  27.076 -0.0278  0.2256 -0.1680
15872W        W16736   4.652  14.248  26.330 -0.0326  0.2200  0.1640
15873W        W16737   2.113  16.065  25.393  0.1098  0.4445  0.0507
15874W        W16738   0.690  15.155  26.436 -0.1143  0.1834  0.0490
15875W        W16739   2.340  19.222   5.360  0.1590 -0.4125 -0.2216
15876W        W16740   1.291  14.886  25.923 -0.3715  0.1628  0.0623
15877W        W16741   1.356  18.712  27.343 -0.4643  0.0234 -0.0190
15878W        W16742   1.735  16.898  27.887  0.3188 -0.0153  0.2001
15879W        W16743   3.989  18.149  25.799 -0.1539 -0.0228 -0.0906
15880W        W16744   4.361  17.022  28.645  0.1021 -0.1656  0.1299
15881W        W16745   0.475  16.687  24.273  0.2482 -0.1929  0.1953
15882W        W16746   0.003  17.725  27.434 -0.0581 -0.1204  0.0936
15883W        W16747   2.120  15.596   0.623 -0.2155  0.0424  0.1787
15884W        W16748   3.523  14.484  27.016 -0.0925  0.0540  0.4818
15885W        W16749   2.457  15.351  26.485  0.4242  0.2653  0.1704
15886W        W16750   0.787  19.642  26.880  0.0262  0.1719 -0.2737
15887W        W16751   1.598  16.572  28.291  0.1280 -0.1757  0.2572
15888W        W16752   4.849  14.470  26.731 -0.3020  0.2407  0.1575
15889W        W16753   2.222  16.786  27.633  0.2857 -0.2455 -0.3590
15890W        W16754   4.888  14.890  25.769 -0.0691 -0.3026  0.2356
15891W        W16755   3.524  16.686   0.937 -0.3744 -0.1898  0.0089
15892W        W16756   3.153  14.339  26.499  0.0937  0.1636  0.0816
15893W        W16757   6.398  17.681  28.000  0.0893  0.0968 -0.0589
15894W        W16758   3.861  16.498  26.875  0.0958  0.1021  0.2298
15895W        W16759   3.593  16.040  27.810  0.1880  0.1538  0.0199
15896W        W16760   2.807  16.885   0.054 -0.2320  0.1745  0.0953
15897W        W16761   2.998  20.875  26.662 -0.0456 -0.0856 -0.0707
15898W        W16762   0.388  14.861  26.751  0.0315  0.0864 -0.2525
15899W        W16763   1.783  13.258  26.501 -0.0919 -0.0670  0.0062
15900W        W16764   2.572  17.425  25.659  0.1467 -0.1232 -0.1118
15901W        W16765   4.521  16.586  25.890  0.1905  0.2802  0.0822
15902W        W16766   1.551  19.622  29.143 -0.0720  0.2600 -0.0409
15903W        W16767   2.202  13.521  26.561  0.1469  0.1058  0.2507
15904W        W16768   2.994  15.540  24.341 -0.0211  0.1780  0.1916
15905W        W16769   1.984  19.950  27.042  0.1373 -0.1462  0.0754
15906W        W16770   1.174  16.927  27.985  0.3926 -0.1509  0.0241
15907W        W16771   1.121  14.825  24.007  0.2542 -0.2229  0.1310
15908W        W16772   4.551  15.711  26.172 -0.1388  0.0731 -0.1502
15909W        W16773   2.465  13.743  28.092  0.0527  0.1263  0.1284
15910W        W16774   2.949  19.706  28.296  0.3635 -0.0191  0.2136
15911W        W16775   0.883  21.389  26.936  0.1113  0.2492  0.1974
15912W        W16776   3.682  18.519   1.830  0.1106 -0.1808 -0.0262
15913W        W16777   1.833  14.022  27.768  0.0967 -0.0028 -0.0942
15914W        W16778   0.073  16.788  28.189 -0.0868  0.2176  0.0028
15915W        W16779   2.404  16.395  28.947 -0.2858 -0.1864 -0.0377
15916W        W16780   3.683  20.973  25.305 -0.2844 -0.2503  0.1067
15917W        W16781   4.836  13.852  28.508 -0.0146 -0.1954 -0.0482
15918W        W16782   3.201  19.121   2.477  0.3652  0.3599 -0.2150
15919W        W16783   2.567  17.243  26.458  0.0643  0.4955 -0.1629
15920W        W16784   3.926  17.039  27.238  0.1520 -0.0868 -0.0842
15921W        W16785   3.401  16.338  27.129 -0.0599 -0.0317  0.1168
15922W        W16786   4.578  16.050  27.338 -0.0904 -0.1633  0.0364
15923W        W16787   1.322  15.871  27.066  0.0903  0.1231  0.0104
15924W        W16788   2.687  16.916  27.724 -0.0233  0.1012  0.3251
15925W        W16789   2.716  16.787  26.266 -0.0237  0.2571 -0.1088
15926W        W16790   2.256  19.520  27.125  0.0839 -0.0522 -0.2886
15927W        W16791   0.567  16.020  28.731  0.2215  0.1825 -0.1203
15928W        W16792   6.126  17.269  24.955 -0.2099  0.1906 -0.0032
15929W        W16793   0.718  18.449  26.454 -0.2993  0.1384 -0.2728
15930W        W16794   5.937  17.326  26.223 -0.1858 -0.0454  0.0697
15931W        W16795  28.737  17.498  27.393 -0.0694 -0.2066  0.0667
15932W        W16796   3.159  15.899  27.493 -0.0001 -0.2022 -0.1586
15933W        W16797   3.939  19.144   1.177 -0.1301  0.0606 -0.0642
15934W        W16798   1.159  16.508  28.456  0.2883 -0.2669 -0.1584
15935W        W16799   2.891  17.744  28.673 -0.0482  0.0538  0.1626
15936W        W16800   2.509  17.194   0.321 -0.0682  0.0923  0.0628
15937W        W16801   3.802  18.576  27.809 -0.1006 -0.0899  0.1042
15938W        W16802   4.478  17.630  25.402  0.1430 -0.1026 -0.3002
15939W        W16803   5.556  14.056  26.083  0.0370 -0.0854  0.1343
15940W        W16804   0.025  16.367  25.968  0.0402 -0.3352 -0.0330
15941W        W16805   1.985  15.461  26.476 -0.0532 -0.2033  0.1196
15942W        W16806   3.234  14.001  28.022  0.2404  0.0299 -0.2403
15943W        W16807   2.160  15.199  28.472 -0.0092  0.2588  0.0416
15944W        W16808   0.018  19.325  26.890 -0.0435  0.2660 -0.3641
15945W        W16809   0.251  14.904  26.235  0.1656  0.0194 -0.1337
15946W        W16810   4.774  17.293  28.675  0.0795 -0.0800  0.3163
15947W        W16811   1.769  18.199  25.823  0.1652  0.3251 -0.1400
15948W        W16812   4.135  18.125  23.715 -0.0869 -0.0980  0.1355
15949W        W16813   2.101  16.536  28.060  0.0166  0.1852  0.0963
15950W        W16814   2.038  15.201  25.975  0.2162 -0.1631 -0.1413
15951W        W16815   3.745  11.896  26.522  0.0904 -0.2382 -0.1294
15952W        W16816   3.305  17.975  24.865  0.0306  0.0371 -0.2032
15953W        W16817   3.819  15.479  27.733 -0.0746 -0.1453  0.1286
15954W        W16818   1.727  17.720  25.895  0.2977 -0.1715  0.1954
15955W        W16819   2.591  16.376  27.879 -0.0505  0.0051  0.0219
15956W        W16820  29.147  15.123  28.935 -0.0588  0.2582 -0.0967
15957W        W16821   1.543  18.125  28.306 -0.1640  0.1882 -0.1559
15958W        W16822   1.479  14.694  23.027 -0.0760  0.0748  0.1947
15959W        W16823   1.491  14.327  27.886 -0.2223  0.0443  0.0105
15960W        W16824   1.403  15.476  26.709  0.0627 -0.1414 -0.0349
15961W        W16825  27.492  18.736  28.094 -0.1230  0.1545  0.5417
15962W        W16826   5.121  17.580  27.605  0.2316 -0.0856  0.1303
15963W        W16827   5.180  14.148  24.777  0.1598 -0.1637  0.2553
15964W        W16828   2.125  16.985   1.228 -0.0603  0.0336  0.2855
15965W        W16829   4.053  13.278  26.874  0.1797  0.0363 -0.1432
15966W        W16830   2.640  17.421  27.938 -0.1437  0.0986 -0.2328
15967W        W16831   2.813  18.331   2.098 -0.0775  0.1571  0.0910
15968W        W16832   3.347  16.861  28.403  0.1041 -0.0214 -0.0175
15969W        W16833   5.275  14.887  27.971 -0.0938  0.0486 -0.1589
15970W        W16834   0.619  15.147  28.985 -0.3507 -0.2028 -0.0417
15971W        W16835   2.285  14.561  27.952  0.0622  0.1822  0.1005
15972W        W16836   0.916  18.020  24.376 -0.1499  0.0313  0.0927
15973W        W16837   4.580  21.479  28.650 -0.1123  0.0240 -0.0862
15974W        W16838   2.062  18.667  22.757  0.0961 -0.3123 -0.1597
15975W        W16839   4.300  15.856  25.135  0.0773  0.2223  0.0539
15976W        W16840   1.952  17.950   0.300  0.1505  0.0030 -0.0732
15977W        W16841   4.118  17.770  26.772 -0.0379  0.0180  0.0731
15978W        W16842   3.143  17.580  27.835 -0.1547  0.0810 -0.0144
15979W        W16843   1.333  16.506  27.826 -0.0333  0.3314 -0.0818
15980W        W16844   4.782  15.636  25.248  0.1030 -0.1037  0.1242
15981W        W16845   0.315  20.260  28.715  0.0548 -0.0105 -0.0074
15982W        W16846  28.534  17.715  25.753  0.1611 -0.0339  0.3100
15983W        W16847  28.354  21.295  26.762  0.0749  0.0364 -0.2069
15984W        W16848   4.105  16.004  27.532 -0.2681  0.0748  0.2630
15985W        W16849   1.687  15.409  24.437  0.1846  0.1521  0.0567
15986W        W16850   1.762  17.853  25.416 -0.2572 -0.1510 -0.0674
15987W        W16851   4.053  18.477  26.398  0.2159  0.0887 -0.0269
15988W        W16852  28.795  13.588  26.307  0.0374 -0.0383  0.0823
15989W        W16853   0.878  13.964  24.319  0.0880  0.1986 -0.0778
15990W        W16854   1.868  18.538  28.254 -0.0003  0.0486  0.4387
15991W        W16855   1.716  16.759  24.736  0.0874 -0.1346  0.0032
15992W        W16856   1.245  15.663  25.757 -0.0710  0.1622 -0.3998
15993W        W16857   4.208  17.743  28.329  0.4573 -0.3945 -0.0336
15994W        W16858   0.920  16.310  27.067  0.2134 -0.0077 -0.0467
15995W        W16859   1.666  15.812  23.363 -0.1202 -0.0035  0.0113
15996W        W16860  27.802  19.022  27.774 -0.0905 -0.0194 -0.1283
15997W        W16861   0.064  17.270  28.356 -0.1197  0.2109 -0.0694
15998W        W16862   0.932  16.342  28.885  0.3089  0.0151 -0.2394
15999W        W16863   3.002  13.649  27.112  0.2716 -0.2293 -0.0570
16000W        W16864   1.070  13.047  26.377  0.0756 -0.0434  0.2748
16001W        W16865   2.354  11.254  28.089 -0.3441 -0.0710 -0.0065
16002W        W16866   1.087  16.742  27.470  0.1281  0.0820 -0.0300
16003W        W16867   1.799  17.751  28.923  0.1146  0.0053  0.3862
16004W        W16868   3.958  16.191  25.169 -0.1540  0.0633  0.0664
16005W        W16869   0.900  16.829  27.011  0.0324 -0.0944  0.2148
16006W        W16870   3.941  14.659  27.967 -0.0052  0.0222 -0.0657
16007W        W16871   3.034  17.074  23.770  0.1273 -0.4936  0.0405
16008W        W16872   0.322  17.478  25.610  0.1573  0.0118  0.0108
16009W        W16873   4.403  15.786  25.614  0.1956 -0.2250  0.3849
16010W        W16874  28.369  14.956  27.774 -0.1242 -0.2817  0.0579
16011W        W16875   1.347  18.162   1.611 -0.0601  0.0835 -0.1845
16012W        W16876   1.661  16.974   1.068 -0.1650  0.2972 -0.0232
16013W        W16877   0.774  19.176   0.927 -0.4101 -0.2096  0.2957
16014W        W16878  27.405  15.769  23.198 -0.1866 -0.0302  0.0087
16015W        W16879   2.617  21.297   0.572  0.0360 -0.0885 -0.1017
16016W        W16880   0.107  21.048  26.997 -0.2006  0.0013 -0.3617
16017W        W16881   3.324  15.826  29.027  0.0020  0.2080  0.4171
16018W        W16882   4.055  14.935   0.865 -0.0683 -0.0609  0.2869
16019W        W16883   3.066  15.966   0.344  0.1396  0.0054  0.1321
16020W        W16884   5.097  16.438  24.067 -0.1831  0.2304 -0.0899
16021W        W16885   3.205  17.792  27.315 -0.0917 -0.2931  0.2026
16022W        W16886   3.176  15.457  26.049  0.1638 -0.0459  0.2131
16023W        W16887   1.591  15.230   2.428 -0.2853 -0.4022 -0.1265
16024W        W16888   0.651  18.406   3.053  0.2309 -0.2818 -0.0400
16025W        W16889   6.328  15.451   0.877  0.0854 -0.2950 -0.0819
16026W        W16890   6.127  15.538  25.507  0.1247 -0.1036 -0.0136
16027W        W16891   4.544  15.504   0.383 -0.2255 -0.0442  0.0482
16028W        W16892   2.326  13.688  23.136 -0.1589 -0.0810 -0.2993
16029W        W16893   2.676  20.513  24.666  0.2611  0.1756  0.3164
16030W        W16894   2.615  16.123   0.126  0.3497  0.1661  0.1964
16031W        W16895   4.320  16.725  26.880  0.0619  0.0524  0.1601
16032W        W16896   2.969  16.466  28.336  0.1002  0.0476 -0.2255
16033W        W16897   2.554  18.669  26.066 -0.1082  0.0268  0.4064
16034W        W16898   3.817  15.649  28.701 -0.0227 -0.1089  0.0286
16035W        W16899   0.866  18.123  27.531 -0.1344 -0.0850  0.1345
16036W        W16900  28.735  18.849   0.175 -0.2860 -0.1706 -0.0200
16037W        W16901   1.089  18.150  27.109  0.0012  0.2921 -0.2866
16038W        W16902   2.814  14.594  26.218 -0.0916 -0.0742  0.0435
16039W        W16903   0.590  14.064  28.498  0.1459  0.1574  0.0557
16040W        W16904   4.139  17.960  26.292 -0.2735 -0.0655 -0.1033
16041W        W16905   4.371  18.871   1.170  0.1845 -0.0426 -0.2578
16042W        W16906   3.987  14.496  27.372 -0.0571 -0.2249  0.0865
16043W        W16907   5.357  16.948   1.347  0.1227  0.3385 -0.2477
16044W        W16908   4.497  16.988  26.244 -0.0564  0.1644 -0.0954
16045W        W16909   1.286  20.063  28.717  0.0288  0.0230 -0.2395
16046W        W16910   0.245  18.211  28.792  0.2499  0.1623  0.1030
16047W        W16911   0.264  14.427  27.127  0.1871  0.0497 -0.4308
16048W        W16912  27.444  13.951  25.586 -0.1150 -0.0059 -0.0320
16049W        W16913   5.337  15.689   1.036 -0.3479  0.1426  0.0199
16050W        W16914   1.940  16.526  25.801  0.0013  0.1740  0.0612
16051W        W16915   2.697  16.890  28.744 -0.1062 -0.1451 -0.0804
16052W        W16916   1.913  19.289  29.111 -0.0777 -0.2226  0.0520
16053W        W16917   2.528  16.706  27.254 -0.0433 -0.0444  0.0412
16054W        W16918   0.923  15.627  26.939 -0.1168 -0.1816 -0.1453
16055W        W16919   1.160  17.573  25.950  0.2599 -0.0489 -0.3314
16056W        W16920   0.486  16.251   0.098 -0.2865 -0.1213 -0.0022
16057W        W16921   3.871  17.335   0.472 -0.1275 -0.2224  0.0716
16058W        W16922   4.761  15.823   0.070  0.0699 -0.2057 -0.0648
16059W        W16923   1.558  17.183  22.887 -0.1198  0.0285 -0.0532
16060W        W16924   3.049  18.170  26.886  0.2107  0.0348  0.3676
16061W        W16925   1.210  15.405  24.769 -0.1561  0.1507 -0.2918
16062W        W16926   2.809  13.616   1.216 -0.0121  0.0856  0.0281
16063W        W16927   4.151  16.857  25.638 -0.1663 -0.1794  0.0373
16064W        W16928   4.526  14.948  25.376  0.0008  0.0628 -0.0241
16065W        W16929   0.410  16.473  27.007  0.1065  0.2334 -0.2412
16066W        W16930   4.390  14.588  28.144  0.3094 -0.2070 -0.2389
16067W        W16931   1.400  17.392  28.785 -0.0462  0.1246 -0.0590
16068W        W16932   1.909  15.424   0.099  0.2107  0.0208  0.2076
16069W        W16933   2.219  17.621  28.230  0.0772 -0.0311  0.3034
16070W        W16934   0.012  18.661  28.767  0.1175 -0.0854 -0.0056
16071W        W16935   0.835  17.711  27.221 -0.1708 -0.0037 -0.0974
16072W        W16936   1.723  16.444   0.389 -0.0250 -0.0908  0.1917
16073W        W16937   0.193  17.442   2.149  0.3166  0.0142  0.0266
16074W        W16938   2.373  15.989  24.953 -0.0064 -0.0390  0.2335
16075W        W16939   2.770  18.544  25.325  0.1717  0.0948 -0.1257
16076W        W16940   2.061  14.546   0.505 -0.0311  0.1250  0.2253
16077W        W16941   2.747  15.083  27.183 -0.0353  0.0512 -0.0251
16078W        W16942   2.011  14.220  28.666  0.0133 -0.0108  0.3671
16079W        W16943   3.235  16.724  28.892 -0.2013  0.1496  0.1669
16080W        W16944   3.573  14.227  26.288 -0.0713  0.0095 -0.1872
16081W        W16945   0.714  17.645   1.162  0.1324 -0.0564  0.1357
16082W        W16946  27.975  17.172  27.891 -0.0965 -0.0105 -0.0742
16083W        W16947   3.828  15.682  25.290  0.0824 -0.0409 -0.2077
16084W        W16948   2.614  19.175   0.903  0.0160 -0.1140 -0.1558
16085W        W16949   0.673  15.149   0.347  0.0024  0.1093  0.2586
16086W        W16950   1.869  14.881  24.570  0.0229 -0.2872 -0.0635
16087W        W16951   1.010  15.831   0.917  0.3034 -0.2583 -0.2618
16088W        W16952   2.035  18.956   1.780  0.2057  0.1232  0.1526
16089W        W16953   3.078  16.688  23.498  0.0982 -0.0530 -0.1656
16090W        W16954   3.009  13.972  28.733 -0.0587 -0.0353  0.2066
16091W        W16955   2.264  15.483  26.947  0.0921 -0.1935  0.1479
16092W        W16956  28.849  15.653   0.261 -0.1116  0.1580 -0.5035
16093W        W16957   5.803  13.761  23.219 -0.1311 -0.0386  0.0910
16094W        W16958   3.852  17.109  25.203  0.1202 -0.3222  0.0448
16095W        W16959   2.063  17.053   0.694 -0.0366  0.2461 -0.0728
16096W        W16960   3.906  16.026  25.669  0.1129  0.0772 -0.0503
16097W        W16961   2.919  16.317  26.071  0.0743 -0.0558 -0.1409
16098W        W16962  29.003  19.170  27.348 -0.0600  0.1306 -0.3710
16099W        W16963   2.329  17.722  27.285 -0.0057 -0.0197  0.1568
16100W        W16964   2.440  18.294  28.324 -0.3677 -0.0386 -0.0971
16101W        W16965   0.866  16.477  27.940  0.1527  0.0635  0.0385
16102W        W16966   4.291  16.528  26.414 -0.1116 -0.0258  0.2976
16103W        W16967   4.881  13.551  26.683 -0.0768 -0.0968 -0.2667
16104W        W16968  27.580  18.494  26.089 -0.1093  0.0202 -0.3012
16105W        W16969   0.754  19.398  25.486  0.2518 -0.0884  0.0404
16106W        W16970   2.698  17.382  28.456  0.0734 -0.0999  0.4576
16107W        W16971   1.756  17.701  27.319 -0.0771  0.0850  0.0082
16108W        W16972   4.132  17.230  26.802 -0.3085 -0.0875 -0.0729
16109W        W16973   3.360  17.745  26.746 -0.1078 -0.1407  0.1406
16110W        W16974   1.764  16.183  27.957  0.3801  0.1818  0.0113
16111W        W16975   4.445  17.146  27.223  0.0985  0.1128 -0.3418
16112W        W16976   0.321  15.323  27.702 -0.1658 -0.1305 -0.2215
16113W        W16977   1.199  15.310  28.855  0.1941  0.0002 -0.0931
16114W        W16978   1.905  17.227  27.501  0.0364  0.1509 -0.1058
16115W        W16979  28.773  15.652  27.114  0.1846 -0.4665 -0.1027
16116W        W16980   0.864  16.123  28.353 -0.2377  0.2603 -0.0111
16117W        W16981   3.418  15.003  26.909 -0.1586  0.0832  0.0453
16118W        W16982   2.322  16.955  29.034  0.1036 -0.0267  0.0309
16119W        W16983  29.143  20.061  27.435 -0.0428 -0.1351  0.1845
16120W        W16984   3.122  18.063  29.036 -0.2493  0.3392  0.2859
16121W        W16985   1.732  15.596  26.096 -0.2561  0.0817 -0.1022
16122W        W16986   2.489  15.393  28.916 -0.0288 -0.1203  0.3002
16123W        W16987   3.586  15.331   2.329 -0.0149 -0.0874  0.3057
16124W        W16988   3.423  16.543  24.385  0.0318  0.3363 -0.3016
16125W        W16989   0.538  16.117  27.843  0.0067 -0.0434 -0.0426
16126W        W16990   4.649  18.086  22.803  0.2159 -0.1905  0.3526
16127W        W16991   2.330  18.320  27.355 -0.1449  0.3166  0.1003
16128W        W16992   5.211  15.868   0.305 -0.1830 -0.1372 -0.0424
16129W        W16993   0.138  18.838  25.366  0.0316 -0.2249  0.6756
16130W        W16994   1.138  18.573   2.456 -0.3410 -0.1278 -0.0401
16131W        W16995   2.270  14.887  27.178  0.0815 -0.0723 -0.2556
16132W        W16996   0.280  18.701  26.527 -0.1952 -0.1189  0.2843
16133W        W16997   1.492  16.455  26.088 -0.1497 -0.0006  0.1076
16134W        W16998   2.550  13.939  24.761  0.0043 -0.3038  0.4055
16135W        W16999   2.521  15.311  27.609  0.1886  0.0784  0.0506
16136W        W17000   5.394  17.333  25.000 -0.2304 -0.1151 -0.0840
16137W        W17001   9.116  18.727  27.523 -0.1618 -0.1970 -0.4001
16138W        W17002   1.710  17.454   3.008  0.0389  0.0654 -0.0574
16139W        W17003   4.760  17.758  27.294 -0.0780  0.2098 -0.1141
16140W        W17004   3.131  19.456  27.589  0.0320  0.2572 -0.0310
16141W        W17005   2.673  17.834   1.052 -0.2443 -0.0846  0.1309
16142W        W17006   3.294  15.964  26.327  0.2102  0.2058 -0.1300
16143W        W17007   3.531  16.445  28.101  0.0152 -0.1232  0.1154
16144W        W17008   5.393  14.968  24.265 -0.1297 -0.2160 -0.3275
16145W        W17009   0.604  18.848  25.592 -0.0362  0.1274  0.0163
16146W        W17010   2.852  14.057  26.821  0.0588  0.0338  0.1189
16147W        W17011   0.137  16.970  25.633  0.1399 -0.0024  0.1458
16148W        W17012  28.486  19.705  26.803 -0.3238 -0.0066 -0.0496
16149W        W17013   3.775  17.944  27.166  0.1705 -0.0983 -0.0145
16150W        W17014   0.831  18.787  28.069 -0.1186 -0.1512 -0.0570
16151W        W17015   1.651  16.595  27.419 -0.2780  0.0744 -0.0467
16152W        W17016   0.316  17.107  26.149  0.2920 -0.0061 -0.1224
16153W        W17017   3.919  16.490  25.914 -0.1306 -0.3960 -0.4057
16154W        W17018  28.189  14.468  26.740  0.0171  0.3712 -0.0689
16155W        W17019   4.601  16.541  28.784  0.1079  0.1826  0.1011
16156W        W17020   0.834  13.418  25.297 -0.0633  0.0718 -0.0539
16157W        W17021   3.567  18.148  27.628  0.0809  0.0356  0.1432
16158W        W17022   2.411  15.874  28.818 -0.0499 -0.0210  0.3019
16159W        W17023   0.945  20.546  26.405  0.0156  0.0046 -0.0293
16160W        W17024   4.856  13.838  25.475  0.1461  0.1153 -0.0584
16161W        W17025   1.564  18.986  26.910  0.2481  0.0364  0.1089
16162W        W17026   0.111  14.509   0.952 -0.0751 -0.0060  0.0807
16163W        W17027   2.650  17.375  28.980  0.3383 -0.1898 -0.1627
16164W        W17028   0.469  15.117  25.524 -0.1960  0.1351  0.1508
16165W        W17029   0.366  16.604  27.827 -0.0953 -0.0901 -0.0938
16166W        W17030   2.120  20.280   0.100 -0.0477 -0.2404 -0.3193
16167W        W17031  28.157  15.784  27.929 -0.1459  0.1484  0.2190
16168W        W17032   3.572  14.428  27.612 -0.1227 -0.3845 -0.1977
16169W        W17033   4.559  19.141  26.074 -0.1585  0.0532 -0.1156
16170W        W17034   5.798  16.531  28.080 -0.2566  0.0107 -0.0450
16171W        W17035   1.360  18.356   0.125 -0.0861 -0.3203 -0.1825
16172W        W17036   2.238  18.907  28.328  0.1316 -0.1156 -0.2473
16173W        W17037   1.484  15.499  28.485  0.1827  0.1666  0.0033
16174W        W17038   3.424  13.191  26.354  0.3810  0.0746 -0.1734
16175W        W17039   2.774  14.719  28.222  0.0922  0.1405 -0.1646
16176W        W17040   4.070  16.673  25.208  0.1141  0.1882  0.3416
16177W        W17041   1.908  15.382  27.356  0.2020  0.1648  0.1556
16178W        W17042   4.301  18.771  28.050 -0.0110  0.0370  0.1718
16179W        W17043   2.678  17.889  25.447  0.1604 -0.1432  0.4242
16180W        W17044   2.093  14.976  27.658 -0.1850 -0.2076  0.0441
16181W        W17045   3.829  16.058  28.303 -0.2048 -0.0817  0.2861
16182W        W17046   7.747  17.030  27.793 -0.0268 -0.1372  0.0499
16183W        W17047   3.727  14.084  26.717  0.0194 -0.0179 -0.0663
16184W        W17048  29.046  17.716  29.001  0.2423  0.0636  0.2148
16185W        W17049   1.683  19.447   3.010  0.2571  0.0448 -0.2312
16186W        W17050  28.682  17.091  28.996 -0.0662 -0.0223 -0.1982
16187W        W17051   2.398  15.069   1.344  0.0477  0.1352 -0.0324
16188W        W17052   3.221  18.835   2.057  0.6397  0.0381  0.2858
16189W        W17053   3.662  17.358  29.138 -0.1268 -0.0033  0.1296
16190W        W17054   0.757  15.512  28.647 -0.0311 -0.0012  0.1092
16191W        W17055   2.086  15.962  26.621  0.2174  0.2358 -0.0435
16192W        W17056   1.564  18.232  27.330  0.0514 -0.0884  0.2168
16193W        W17057   1.796  15.706  26.990  0.5311  0.0632 -0.0163
16194W        W17058   6.053  17.684   1.364 -0.3939 -0.0315 -0.1055
16195W        W17059  28.985  13.646   0.067  0.3208 -0.0690 -0.1635
16196W        W17060  29.144  18.531  25.809  0.1837 -0.1343  0.0401
16197W        W17061   1.563  15.263  25.752  0.0174 -0.1200 -0.1347
16198W        W17062   4.015  17.526  28.804  0.1737 -0.1637  0.0987
16199W        W17063   2.592  16.846  28.227 -0.0196 -0.1059  0.0674
16200W        W17064   4.158  16.076   2.089 -0.2985  0.0337  0.1811
16201W        W17065   3.470  19.644  26.413  0.1345  0.1114 -0.1249
16202W        W17066   1.595  17.056  28.406  0.0831 -0.0085 -0.1432
16203W        W17067   2.191  16.851  26.229 -0.3403 -0.0923 -0.1572
16204W        W17068   1.542  14.504  27.324  0.0489 -0.1779 -0.1846
16205W        W17069  29.020  22.248   2.740  0.0919  0.0183 -0.0403
16206W        W17070   2.005  23.924   3.054  0.0686 -0.0602 -0.2121
16207W        W17071   5.555  20.751   1.004  0.2456 -0.1238 -0.1565
16208W        W17072   3.839  24.980   2.133 -0.1516 -0.3520  0.5678
16209W        W17073   1.631  22.390   0.910 -0.0509  0.0676  0.1731
16210W        W17074   1.520  19.261   1.617 -0.2393  0.1238 -0.4262
16211W        W17075   0.905  18.079   0.181  0.1801  0.1836  0.0638
16212W        W17076   0.896  21.058   2.419 -0.2080 -0.2195 -0.0992
16213W        W17077   0.074  22.014   5.197 -0.0820 -0.1489  0.0473
16214W        W17078   0.395  20.167   3.924  0.0163  0.0782  0.1414
16215W        W17079  28.196  19.708   3.691 -0.1582  0.0011 -0.0607
16216W        W17080   2.332  22.809   2.668 -0.2736  0.2022 -0.0583
16217W        W17081   2.048  19.104   2.866 -0.0357 -0.4078  0.1883
16218W        W17082   5.140  16.936   2.382  0.0864  0.0123 -0.1042
16219W        W17083   0.705  21.999   5.910  0.2527 -0.0601 -0.0196
16220W        W17084  28.074  21.362   4.448  0.0579  0.0168  0.0155
16221W        W17085   2.686  20.794   2.676 -0.1401 -0.1434  0.2297
16222W        W17086  28.856  19.343   3.053 -0.0126  0.0284 -0.0080
16223W        W17087  28.729  22.172   1.919 -0.1406 -0.0841 -0.2087
16224W        W17088   4.736  17.154   2.555  0.4656  0.0169 -0.1715
16225W        W17089   3.351  18.929   4.309 -0.1612 -0.1461  0.1831
16226W        W17090   0.170  21.354   3.104  0.1208  0.2341 -0.1115
16227W        W17091   1.520  21.247   4.314  0.1444  0.1633  0.0076
16228W        W17092   1.083  19.325   0.036  0.0649  0.0040 -0.2494
16229W        W17093  27.524  22.516   0.707 -0.3524 -0.2426  0.0995
16230W        W17094   0.584  19.723   3.852 -0.1297  0.0180 -0.0174
16231W        W17095   5.982  21.935   1.739 -0.1953 -0.2615 -0.0770
16232W        W17096  27.563  22.006   3.536 -0.3847  0.1879 -0.0320
16233W        W17097   1.057  20.432   3.265  0.3176 -0.0326 -0.0504
16234W        W17098   1.689  17.321   2.395  0.2375  0.0754  0.1676
16235W        W17099   1.049  20.597   2.204  0.2497 -0.0047  0.0008
16236W        W17100   2.155  21.622   2.255 -0.0230  0.0025 -0.0327
16237W        W17101   3.520  20.469   2.791 -0.0492 -0.0070  0.1085
16238W        W17102   2.497  19.610   2.387  0.1775 -0.1313 -0.3489
16239W        W17103   1.526  14.681   2.326 -0.1839 -0.0739  0.0713
16240W        W17104   2.193  22.171   3.984  0.1591  0.1892  0.0856
16241W        W17105   1.834  17.144  28.855  0.0162 -0.0103  0.4224
16242W        W17106   1.514  18.570  28.608  0.0163 -0.1402  0.0552
16243W        W17107   4.442  19.926   3.422 -0.0286 -0.1093 -0.0120
16244W        W17108   2.674  17.571   2.314 -0.1444 -0.2235  0.0247
16245W        W17109   2.603  20.282  28.336 -0.3480 -0.1107  0.0408
16246W        W17110   6.549  20.892   4.669 -0.2696  0.1543 -0.1420
16247W        W17111   2.092  20.436   3.470 -0.3477  0.1207  0.1049
16248W        W17112   6.203  19.329   2.576 -0.0550  0.0129  0.1920
16249W        W17113   2.842  23.251  28.607 -0.0175  0.2718 -0.0054
16250W        W17114  28.655  24.281   1.712  0.1007  0.0360 -0.0983
16251W        W17115   0.106  18.092   2.406 -0.0429 -0.2200  0.1153
16252W        W17116   6.300  19.096   2.076  0.0635  0.0175  0.1797
16253W        W17117   2.338  19.896   1.446  0.3018  0.1062  0.1546
16254W        W17118   3.262  21.979   3.558  0.1902  0.2750  0.2828
16255W        W17119   3.435  22.282   2.270 -0.0845  0.2121  0.0152
16256W        W17120   0.772  21.466   5.020 -0.1102  0.2367  0.1993
16257W        W17121   3.068  20.156   4.001  0.0579  0.0154  0.1578
16258W        W17122   3.492  19.382   1.414 -0.1658 -0.1632  0.1167
16259W        W17123   3.604  18.279  28.246  0.0107  0.2932  0.0867
16260W        W17124   0.243  23.989   1.158 -0.1558 -0.1769  0.2149
16261W        W17125   3.426  19.926   1.283  0.0330  0.0338 -0.0152
16262W        W17126   1.999  19.193   3.392 -0.0549 -0.0957 -0.1423
16263W        W17127   0.850  23.042   1.497  0.0657  0.0165 -0.3798
16264W        W17128  28.179  22.312   1.645  0.0596  0.1954 -0.2736
16265W        W17129   3.751  20.084  28.672 -0.0655  0.0255  0.0104
16266W        W17130   0.971  19.673   2.314 -0.2445 -0.0600  0.2397
16267W        W17131  28.397  23.779   1.741 -0.1828 -0.0638 -0.0940
16268W        W17132   0.771  22.308   4.610 -0.4663 -0.1485  0.1846
16269W        W17133  28.122  18.706   3.912 -0.0717 -0.2526 -0.3525
16270W        W17134   7.470  16.828   2.441 -0.2044 -0.2390 -0.1950
16271W        W17135   1.956  22.673   0.525  0.0621  0.0635  0.1415
16272W        W17136   1.157  18.486   1.220 -0.3938  0.0845 -0.0112
16273W        W17137   0.792  22.523   3.009  0.1281  0.2549  0.2979
16274W        W17138   1.920  23.433   3.154  0.0503 -0.0857  0.1357
16275W        W17139   5.296  21.547   3.945 -0.1143 -0.4568 -0.0990
16276W        W17140   2.180  18.467  28.736  0.0555 -0.0807 -0.2826
16277W        W17141   4.052  19.732  27.319  0.0612 -0.1662 -0.0240
16278W        W17142   5.481  19.047   2.683  0.0525 -0.1373 -0.3129
16279W        W17143   4.656  22.190   1.261  0.0555  0.0740 -0.0044
16280W        W17144   4.018  20.602   4.171  0.1878  0.1270  0.3268
16281W        W17145   0.836  23.784   2.515 -0.1392  0.0963 -0.3165
16282W        W17146  28.985  21.709   2.043 -0.2565 -0.3088 -0.0932
16283W        W17147   3.073  21.168   0.621 -0.1183  0.0188  0.1404
16284W        W17148   3.480  18.871   3.441 -0.3171  0.2804  0.1187
16285W        W17149   1.317  18.559   4.678 -0.2676  0.2011 -0.0398
16286W        W17150   1.668  20.658   4.008 -0.0908 -0.2013  0.0322
16287W        W17151  28.935  19.764   3.265  0.1999  0.0013  0.1526
16288W        W17152   0.867  17.118   2.974  0.0354 -0.0111  0.0936
16289W        W17153   1.584  18.831   3.338  0.2241  0.1498  0.2631
16290W        W17154   3.084  20.257  28.310  0.0688  0.1396 -0.1389
16291W        W17155   4.667  20.570   2.012 -0.1688  0.1586  0.1083
16292W        W17156   1.301  17.746   3.068  0.2203 -0.2026 -0.1609
16293W        W17157   1.496  20.365   2.916 -0.0466  0.0628  0.3592
16294W        W17158   1.126  19.263   3.113 -0.1016  0.1184 -0.0813
16295W        W17159   1.491  21.663   2.836 -0.0274 -0.0942 -0.0672
16296W        W17160   6.177  21.898   0.601  0.1633 -0.3336  0.0209
16297W        W17161   1.346  24.183   0.938 -0.1863 -0.0352 -0.2010
16298W        W17162   2.767  21.261   1.089  0.0957 -0.0846 -0.1946
16299W        W17163   0.563  21.048   4.527  0.1316  0.0391 -0.1456
16300W        W17164   3.296  20.024   2.655  0.0973 -0.2050 -0.2669
16301W        W17165   2.788  19.672   3.257 -0.0202  0.0560 -0.1460
16302W        W17166   2.021  22.934   3.586 -0.1661 -0.2056 -0.0851
16303W        W17167   3.660  18.319   2.785  0.2274  0.0795 -0.0788
16304W        W17168   2.413  16.677   2.114  0.1471  0.2136 -0.1371
16305W        W17169   2.874  23.594   1.348 -0.1148 -0.1691  0.1245
16306W        W17170   0.762  24.111   2.140 -0.1433 -0.2630 -0.0417
16307W        W17171   5.001  17.443  26.977  0.0136 -0.1709 -0.1730
16308W        W17172   4.585  19.142   2.988 -0.4264  0.1578 -0.0789
16309W        W17173   4.786  16.243   3.493 -0.2105 -0.1796 -0.4170
16310W        W17174   3.677  20.124   3.160  0.2301 -0.2056  0.2851
16311W        W17175   2.948  22.984   1.178 -0.2083 -0.3231  0.0362
16312W        W17176   0.424  19.382   4.540 -0.3701 -0.0617  0.0218
16313W        W17177   0.583  18.441   2.594  0.1757  0.0672  0.0066
16314W        W17178   1.763  20.595   1.478  0.0547  0.0179 -0.0476
16315W        W17179   2.843  22.141   3.289 -0.2613  0.4074  0.3199
16316W        W17180   2.751  21.761   0.847 -0.1509  0.1195  0.4228
16317W        W17181   4.840  19.569   4.152  0.1804  0.2039  0.2584
16318W        W17182   1.638  21.719   2.340  0.1563  0.0043  0.0188
16319W        W17183   4.558  18.897   0.642 -0.0668  0.0121 -0.0204
16320W        W17184   1.284  18.937   1.257  0.1413  0.0018  0.1113
16321W        W17185   5.022  18.834   2.430 -0.1741 -0.2088  0.2683
16322W        W17186   4.078  20.618   5.160  0.0878 -0.0642  0.1278
16323W        W17187   3.615  19.800   1.745 -0.2693 -0.0958 -0.0339
16324W        W17188   2.920  22.097   2.306 -0.1018 -0.0406 -0.1075
16325W        W17189   1.600  20.122   0.016 -0.0160  0.1006  0.0061
16326W        W17190   4.767  19.617   1.138 -0.2089 -0.0597  0.1957
16327W        W17191   2.384  20.591   2.365 -0.2300  0.2085 -0.3778
16328W        W17192   3.551  21.493  27.249 -0.0903 -0.1878 -0.3227
16329W        W17193   2.052  21.399   1.808 -0.0693 -0.0047 -0.3283
16330W        W17194   0.279  19.980   3.292 -0.1396  0.1138 -0.2742
16331W        W17195   1.899  19.788   1.089  0.1208  0.4174  0.2341
16332W        W17196   5.481  20.956   2.442 -0.1282 -0.0481  0.1437
16333W        W17197   3.266  22.260  28.754 -0.1195 -0.2185 -0.1076
16334W        W17198   3.667  21.701   3.773  0.0947 -0.0469  0.0002
16335W        W17199   3.814  22.069   2.626 -0.5175 -0.1725  0.1221
16336W        W17200   3.710  20.356   1.975 -0.2046 -0.2138 -0.0834
16337W        W17201   2.284  19.760   4.566 -0.0659  0.0373  0.0177
16338W        W17202   3.473  17.971   0.393  0.3288  0.1132  0.1319
16339W        W17203   2.884  19.698   4.636  0.1786 -0.0982  0.3408
16340W        W17204   1.421  19.460   3.462 -0.0774  0.0836  0.0465
16341W        W17205   0.495  19.235   3.608  0.0739 -0.0511  0.2081
16342W        W17206   2.596  18.578   3.446  0.1413  0.1709 -0.1649
16343W        W17207   4.008  19.859   3.680  0.0115  0.0000  0.1206
16344W        W17208   1.563  21.518   1.755  0.0461  0.2147  0.1178
16345W        W17209   2.544  20.427   3.035 -0.0092 -0.1135  0.2448
16346W        W17210  28.635  18.542   4.008 -0.0473  0.0942 -0.0911
16347W        W17211   1.602  22.882  27.222  0.0308 -0.1806  0.0186
16348W        W17212   1.020  21.218   2.878  0.1275  0.0873 -0.2736
16349W        W17213   1.311  22.241   4.389  0.1218 -0.3235 -0.0033
16350W        W17214  28.526  17.228   1.902 -0.1054 -0.0496  0.2541
16351W        W17215   4.716  17.328   1.671 -0.0586 -0.0808  0.1832
16352W        W17216   3.842  22.842   0.379  0.1746  0.1495  0.4917
16353W        W17217   1.395  22.159   2.976 -0.0597 -0.0246 -0.0240
16354W        W17218   2.500  19.295   4.896  0.0951 -0.0511  0.0865
16355W        W17219   1.546  22.314   3.455  0.4391  0.0876 -0.1463
16356W        W17220   3.013  16.385   1.037 -0.0397 -0.0032  0.0534
16357W        W17221   3.092  22.214   1.776  0.3402  0.2641 -0.2026
16358W        W17222   2.538  19.887   0.122 -0.1563  0.0632  0.0263
16359W        W17223   1.370  21.590   3.797  0.1803 -0.0813  0.1447
16360W        W17224   2.203  19.332   4.012  0.0351 -0.0357  0.2738
16361W        W17225  28.864  21.617   4.758 -0.0444 -0.0412 -0.0727
16362W        W17226   1.724  22.472  28.629 -0.3237  0.0514 -0.0808
16363W        W17227   3.468  20.122   0.615 -0.1443  0.0201  0.2018
16364W        W17228   2.672  19.081   2.413 -0.3900  0.3879  0.0887
16365W        W17229   3.038  19.393   4.244  0.1179 -0.1925 -0.2991
16366W        W17230  28.453  20.809   4.586 -0.1360  0.3457  0.1218
16367W        W17231   1.909  20.672   2.334  0.0779  0.1348 -0.0287
16368W        W17232   1.438  19.728   2.204 -0.1954  0.3359 -0.0908
16369W        W17233   1.795  19.013   4.909  0.1342 -0.0154  0.0467
16370W        W17234   1.806  20.162   3.812 -0.0901  0.0503 -0.0033
16371W        W17235  28.781  20.540   2.241 -0.0375 -0.3000 -0.1384
16372W        W17236   0.547  23.484   1.505 -0.1176 -0.4978  0.0139
16373W        W17237   2.691  20.805   1.988 -0.0483 -0.3285  0.3539
16374W        W17238  27.937  23.515  29.079  0.0035  0.0934  0.0041
16375W        W17239   4.577  20.007   4.221 -0.0822 -0.4106 -0.1691
16376W        W17240   0.966  17.136   4.028 -0.2948  0.0083  0.0347
16377W        W17241   2.232  20.841   1.591  0.3683 -0.3227  0.0818
16378W        W17242   3.160  19.812  27.068  0.0712  0.0939 -0.0674
16379W        W17243   1.200  19.740   0.912 -0.1209 -0.2870 -0.0025
16380W        W17244   4.770  18.591   0.334 -0.1401 -0.2078 -0.0632
16381W        W17245  27.270  23.172   3.856 -0.3104 -0.0904  0.0049
16382W        W17246   1.444  21.114   1.093  0.1267  0.1092  0.2527
16383W        W17247   1.696  23.124   0.389  0.0825  0.1203 -0.0967
16384W        W17248   0.833  18.946   2.267 -0.1663  0.1283 -0.0352
16385W        W17249   0.914  21.812   4.596 -0.1759 -0.0821  0.1473
16386W        W17250   2.484  22.721   0.708 -0.1085 -0.2158  0.3067
16387W        W17251   0.423  21.002   1.666  0.2813  0.0943  0.0947
16388W        W17252   1.102  19.457   1.278 -0.1257  0.1380  0.3280
16389W        W17253  28.792  19.510   2.449 -0.2316  0.1269 -0.1080
16390W        W17254   0.988  21.540   5.921  0.0670  0.1718 -0.3632
16391W        W17255   0.825  17.947   2.864  0.2964 -0.1866 -0.3121
16392W        W17256  28.394  17.519   0.053 -0.1034 -0.0624  0.0870
16393W        W17257   2.750  21.668   2.994  0.1905  0.1503  0.0955
16394W        W17258   2.699  18.813   4.703 -0.2097 -0.1943 -0.1072
16395W        W17259   2.315  21.387   2.837  0.0558 -0.1003 -0.1324
16396W        W17260  28.796  21.913   0.030  0.3512  0.1688  0.1908
16397W        W17261  26.290  22.547   4.754  0.0076 -0.2032 -0.0735
16398W        W17262   2.918  17.937   4.158 -0.0475  0.0601  0.0943
16399W        W17263   1.646  18.481   5.181 -0.0453  0.0633  0.1072
16400W        W17264   2.243  18.891  29.080 -0.1187  0.0205 -0.2054
16401W        W17265   2.591  17.094   1.377  0.0359 -0.0469 -0.0055
16402W        W17266   1.674  19.807   4.656 -0.2079  0.3671 -0.1185
16403W        W17267   0.621  22.111   3.246  0.0588  0.0398  0.3027
16404W        W17268   5.330  21.197   0.693  0.2845 -0.2755  0.2962
16405W        W17269  28.751  20.495   3.314  0.0004  0.3303 -0.1233
16406W        W17270   4.372  20.306   3.018  0.0912 -0.0883 -0.1872
16407W        W17271   3.632  21.686   0.715 -0.0446  0.0023 -0.0014
16408W        W17272   4.223  21.003   1.287 -0.0956 -0.1212 -0.0613
16409W        W17273   1.683  16.982   1.666 -0.0101  0.1089  0.0739
16410W        W17274   0.797  21.574   2.449 -0.2742  0.2144 -0.1480
16411W        W17275   1.538  22.060   5.342  0.1634  0.0430  0.0860
16412W        W17276   2.351  20.370   1.375 -0.2234  0.1622 -0.0715
16413W        W17277   1.243  23.320   1.381 -0.2519 -0.0166 -0.0708
16414W        W17278  28.348  24.387  28.202 -0.0112 -0.0204  0.0179
16415W        W17279   2.113  20.337   2.775 -0.1514  0.0849  0.3203
16416W        W17280   0.749  20.402   5.172  0.0340  0.1334 -0.0841
16417W        W17281   1.867  21.789   1.320  0.2125  0.1556  0.0530
16418W        W17282   3.104  18.820   3.789  0.0213  0.3424 -0.0680
16419W        W17283   2.697  19.952   4.276  0.0251  0.2709  0.0958
16420W        W17284   4.038  20.104   1.624 -0.0432  0.1517  0.0800
16421W        W17285   4.320  23.084   0.181 -0.0753 -0.0459  0.2246
16422W        W17286   4.668  20.722   1.071 -0.0575  0.3256 -0.0870
16423W        W17287   3.505  22.510   4.788  0.0176 -0.2387  0.0997
16424W        W17288   1.222  20.908   4.098 -0.1924  0.0158 -0.0599
16425W        W17289   5.786  18.574   2.080  0.2219  0.1349  0.1648
16426W        W17290   4.467  19.045   3.549  0.1502  0.0346 -0.0676
16427W        W17291   2.784  21.461   3.785  0.0762 -0.0378  0.2435
16428W        W17292   3.067  18.565  28.847  0.2062 -0.2893 -0.1975
16429W        W17293   3.224  21.168  28.566  0.1266 -0.0914 -0.6108
16430W        W17294  26.593  19.255   3.042 -0.0376  0.0548 -0.0390
16431W        W17295   1.675  22.406   3.970 -0.0274 -0.1328  0.1257
16432W        W17296   4.901  16.304   4.617 -0.2554 -0.0542 -0.4682
16433W        W17297   3.662  21.459  28.644  0.0655  0.1731 -0.3075
16434W        W17298   4.278  20.868   3.260 -0.2053  0.0168 -0.1269
16435W        W17299   0.100  20.786   4.540  0.0379  0.1516 -0.0197
16436W        W17300  27.193  22.817   2.449  0.0221  0.2691  0.0485
16437W        W17301   1.108  23.104   1.906  0.1945  0.0658  0.0359
16438W        W17302   1.806  20.908   1.827  0.1584 -0.4334 -0.2342
16439W        W17303  28.611  21.125   3.336 -0.1890  0.2351 -0.1176
16440W        W17304   2.445  20.816   1.128  0.2413  0.4852 -0.1561
16441W        W17305   6.044  19.637   1.526  0.0035  0.0841  0.1621
16442W        W17306   2.566  18.475   1.702  0.1817  0.1430 -0.0009
16443W        W17307   5.390  19.058   3.208 -0.0576 -0.2593  0.0360
16444W        W17308   1.174  19.056   3.628 -0.2525  0.2860  0.0351
16445W        W17309   5.065  20.450   1.069  0.0150  0.0978  0.0632
16446W        W17310  26.902  22.892   3.678 -0.0888 -0.1772 -0.1772
16447W        W17311   0.122  18.441   3.198 -0.1908 -0.1063 -0.0343
16448W        W17312   2.481  17.952  27.740  0.0756  0.0827  0.0111
16449W        W17313   0.684  19.271   4.077 -0.0959 -0.1217 -0.0344
16450W        W17314   5.095  19.126   0.447  0.5898 -0.2418 -0.0103
16451W        W17315   4.135  19.860   3.027  0.1277 -0.1292 -0.0415
16452W        W17316   0.977  23.029   6.099  0.0399  0.0456  0.1366
16453W        W17317   0.879  23.391   3.773 -0.0043 -0.2000 -0.3531
16454W        W17318   2.011  21.842   2.696  0.0711 -0.0324 -0.1606
16455W        W17319   1.173  21.842   2.503 -0.2186 -0.0367  0.2140
16456W        W17320   0.419  23.574   3.441  0.0631 -0.0029  0.2797
16457W        W17321   2.921  22.149   4.775 -0.1903 -0.0173 -0.1203
16458W        W17322   4.410  20.427   3.764 -0.2075  0.0775 -0.1361
16459W        W17323   1.122  20.693   2.685  0.1153 -0.0479 -0.3291
16460W        W17324   4.849  22.689   0.504 -0.3254 -0.1758 -0.2167
16461W        W17325   4.523  20.234   1.051  0.0814  0.2628 -0.3960
16462W        W17326  28.826  19.420   4.088  0.0326  0.1652  0.3660
16463W        W17327   2.414  23.092   1.154 -0.1016  0.2203 -0.1939
16464W        W17328   2.370  18.690   2.847 -0.0554 -0.4493 -0.1160
16465W        W17329   2.044  20.349   0.940 -0.0736 -0.0374  0.1121
16466W        W17330   4.431  18.948   5.580 -0.0114 -0.0283  0.3769
16467W        W17331   3.380  19.252   3.854 -0.0460  0.0954  0.2694
16468W        W17332   2.960  20.165   3.193 -0.1495 -0.3147  0.0587
16469W        W17333   0.110  23.141   2.246  0.1718  0.1725  0.1715
16470W        W17334  27.484  23.714   4.685 -0.0552 -0.1072 -0.1730
16471W        W17335   0.468  25.547   2.755  0.1113 -0.1091  0.1598
16472W        W17336   3.797  21.076   0.507 -0.1021  0.1324 -0.2113
16473W        W17337   1.669  21.595   5.067 -0.1446 -0.2559  0.0066
16474W        W17338   1.469  18.208   3.309  0.3933  0.0484  0.3573
16475W        W17339   3.500  22.844   2.317  0.1694 -0.2749  0.1480
16476W        W17340   3.619  21.516   3.287  0.1296 -0.2844  0.0587
16477W        W17341   2.350  18.926   3.746  0.0097  0.0399 -0.0915
16478W        W17342   2.521  21.178   2.419  0.0741 -0.3121 -0.2546
16479W        W17343   4.179  21.075   2.681  0.1661 -0.1295  0.1076
16480W        W17344   3.603  18.614   3.855 -0.1165 -0.0733  0.0805
16481W        W17345   0.103  19.706   2.829  0.2378  0.0139 -0.3309
16482W        W17346   1.226  21.332   3.297 -0.0448 -0.0089  0.3020
16483W        W17347   2.443  21.511  29.077  0.0374 -0.1850 -0.0207
16484W        W17348   2.934  23.055   2.281  0.1893  0.3775 -0.1399
16485W        W17349   2.877  18.317   0.265  0.0528  0.2330 -0.0202
16486W        W17350   1.255  18.719   0.506  0.0988 -0.2301 -0.1480
16487W        W17351   2.327  19.229   1.361 -0.0151  0.1006 -0.0532
16488W        W17352   1.095  22.554   3.596 -0.1673  0.0932 -0.0588
16489W        W17353   2.300  20.115   2.256  0.1961 -0.2122  0.2311
16490W        W17354   7.542  17.277   2.765 -0.1576  0.0315 -0.2510
16491W        W17355   2.680  22.054   1.380 -0.2007 -0.0633 -0.2198
16492W        W17356   1.845  18.508   4.529  0.0903 -0.1385 -0.2293
16493W        W17357   3.546  19.593  28.987 -0.0323  0.1147 -0.1813
16494W        W17358   1.848  20.641   3.067 -0.1185  0.1288  0.1580
16495W        W17359   2.420  19.481  29.087  0.3867  0.0117 -0.1912
16496W        W17360   2.025  16.247  28.612 -0.0976  0.1392 -0.1505
16497W        W17361   1.251  19.052   4.798 -0.1946 -0.0267  0.1012
16498W        W17362   1.851  19.683   3.669 -0.3028 -0.4226  0.0033
16499W        W17363   1.359  20.947   1.558  0.2248  0.0538  0.0235
16500W        W17364   2.330  21.764   0.542 -0.0386 -0.2574  0.1581
16501W        W17365   1.983  22.051   0.830  0.1325  0.5970 -0.2512
16502W        W17366   3.916  20.128   2.674 -0.3325  0.2958  0.3066
16503W        W17367   2.973  17.296   0.688 -0.2634  0.1444  0.1720
16504W        W17368  28.088  23.516   3.787  0.0736 -0.1121 -0.1770
16505W        W17369   3.529  22.168   4.014 -0.0814  0.4605  0.1443
16506W        W17370  28.773  19.095   2.030  0.1386  0.0465 -0.4568
16507W        W17371   1.548  22.605   5.382 -0.1158  0.0167 -0.1533
16508W        W17372   6.505  21.316   2.555 -0.0532  0.0284 -0.0782
16509W        W17373   1.826  21.792   0.215 -0.0521  0.1793  0.2725
16510W        W17374   1.572  23.288   2.248  0.0289  0.1293  0.0975
16511W        W17375   1.639  18.847   4.220 -0.3442  0.1710  0.3531
16512W        W17376   4.092  16.449   0.136 -0.3696  0.1428 -0.1335
16513W        W17377   0.353  18.838   3.030 -0.3609  0.1666 -0.1525
16514W        W17378  29.067  20.916   1.452 -0.0037 -0.0933 -0.2686
16515W        W17379  27.492  20.459   1.561  0.2114 -0.1447  0.0655
16516W        W17380   1.969  21.302   5.310 -0.0814  0.1651  0.1628
16517W        W17381   2.159  19.886   2.733 -0.1450 -0.1578 -0.2486
16518W        W17382   3.240  23.514   4.396  0.2958  0.4758  0.3263
16519W        W17383   2.398  20.964   3.130  0.1048 -0.0084  0.0039
16520W        W17384   1.163  23.447   6.984  0.1720 -0.4121  0.1494
16521W        W17385   2.147  19.350  28.114 -0.1857  0.0911 -0.2635
16522W        W17386   2.851  17.961   1.818  0.0040  0.0663 -0.1289
16523W        W17387   3.094  22.258   4.252  0.2666  0.5038  0.1108
16524W        W17388   0.889  19.282   2.658  0.2641 -0.0149  0.3570
16525W        W17389  28.278  22.369   3.686 -0.1608  0.5238  0.1261
16526W        W17390   3.233  25.335   1.502  0.1414  0.1748  0.0912
16527W        W17391   1.360  20.825   3.071 -0.0091  0.2453  0.1014
16528W        W17392   1.307  22.280   0.454  0.2649  0.1298 -0.0309
16529W        W17393   0.635  21.360   1.956  0.1809 -0.2246 -0.0680
16530W        W17394  27.186  22.336   4.919  0.0384 -0.1639 -0.2812
16531W        W17395   4.114  18.565   3.606 -0.1306 -0.2350 -0.0168
16532W        W17396   1.736  23.886   0.899  0.1473  0.0287  0.0302
16533W        W17397   1.698  22.409   1.939 -0.2824 -0.1150 -0.0352
16534W        W17398   1.092  21.365   1.539  0.3423 -0.1100  0.1096
16535W        W17399   2.228  19.536   3.098  0.3007  0.0009 -0.0937
16536W        W17400   4.331  17.051   0.478 -0.2956  0.1360  0.0067
16537W        W17401   2.983  20.675   3.133  0.1802  0.0758  0.1369
16538W        W17402   3.084  18.411   5.951 -0.0283 -0.0133  0.2862
16539W        W17403   1.439  20.974   2.164 -0.0262  0.1058 -0.2305
16540W        W17404   4.672  23.743   4.122  0.2147 -0.0566 -0.0274
16541W        W17405  26.620  23.117   2.041 -0.0479 -0.0825  0.2280
16542W        W17406   5.426  18.326   1.847 -0.1865  0.3843 -0.0008
16543W        W17407   1.300  17.245   3.198 -0.1369  0.3571 -0.1328
16544W        W17408   1.580  17.523   1.535  0.0060 -0.3668  0.1307
16545W        W17409  28.975  23.271  28.546 -0.3109  0.0919  0.3127
16546W        W17410   2.127  20.926   2.709 -0.2616 -0.0815 -0.0706
16547W        W17411   1.181  19.909   3.087  0.0208  0.0614  0.1894
16548W        W17412   1.918  21.673  28.327 -0.2386  0.2541 -0.0253
16549W        W17413   2.123  19.029   2.307  0.1046  0.1479  0.4262
16550W        W17414   0.537  21.583   3.665 -0.1811 -0.0359 -0.0682
16551W        W17415   3.528  19.577   0.403  0.0897  0.1791 -0.0379
16552W        W17416   1.137  18.585   1.707  0.1844  0.1156  0.2503
16553W        W17417   3.712  21.752   1.215 -0.0625  0.0339  0.0043
16554W        W17418   1.437  20.568   1.880 -0.0475 -0.0053 -0.2257
16555W        W17419   1.340  20.087   4.837 -0.0857  0.0601  0.0897
16556W        W17420   1.863  20.657   0.193  0.0800 -0.0944 -0.2316
16557W        W17421   3.234  22.894   3.463 -0.0174 -0.2922 -0.0564
16558W        W17422   3.524  19.370   4.422  0.0440  0.1248 -0.1837
16559W        W17423   2.156  23.670   2.379 -0.2793 -0.1098 -0.0396
16560W        W17424   3.339  20.110   3.575  0.0383 -0.0119  0.0928
16561W        W17425  27.773  21.528   2.599 -0.0146 -0.0252 -0.2151
16562W        W17426   3.103  18.235   2.603  0.2699  0.2484 -0.1007
16563W        W17427   3.177  21.913   6.211  0.0122  0.0520  0.0557
16564W        W17428   0.965  21.674   3.556 -0.0277  0.1802 -0.1264
16565W        W17429   1.986  22.959   2.166 -0.2365  0.0852 -0.0117
16566W        W17430   3.208  18.417   4.137 -0.1030  0.0154  0.0300
16567W        W17431   0.955  21.267   3.829  0.2870  0.2872 -0.0131
16568W        W17432  28.736  19.047   2.629 -0.0525  0.1706 -0.1239
16569W        W17433   1.418  24.742   0.235  0.0848  0.1676 -0.5313
16570W        W17434   2.655  23.705   2.347  0.2184  0.2938 -0.3306
16571W        W17435   3.813  20.787   0.071  0.0294 -0.4763 -0.2072
16572W        W17436   2.883  22.553   1.498 -0.0984 -0.3247 -0.0456
16573W        W17437   1.707  19.359   0.590 -0.2208 -0.0137 -0.0519
16574W        W17438   3.122  17.190  28.690  0.2344 -0.1739  0.0812
16575W        W17439   2.042  23.580   1.853 -0.1132  0.0897  0.0796
16576W        W17440   4.153  19.381   2.879  0.1409  0.1509 -0.1571
16577W        W17441   0.906  20.816   1.380  0.0260  0.0930  0.0780
16578W        W17442   5.247  20.550   2.881 -0.1017 -0.0342 -0.1266
16579W        W17443   5.406  19.083  29.145 -0.2713 -0.2115 -0.3092
16580W        W17444   4.199  20.913   6.890  0.5160  0.0326  0.1272
16581W        W17445   4.902  20.686   1.538  0.2193  0.0312 -0.2348
16582W        W17446   2.738  21.987   3.823  0.1458  0.0919 -0.0526
16583W        W17447   1.937  18.158   4.213 -0.3592 -0.2692 -0.1062
16584W        W17448  29.006  19.968   2.465  0.1209 -0.0815  0.0116
16585W        W17449   3.576  19.810   3.909  0.3223  0.2855  0.0162
16586W        W17450   3.958  22.426   3.037 -0.0345 -0.0316 -0.5452
16587W        W17451   0.433  20.008   1.516 -0.1013 -0.2097 -0.2030
16588W        W17452   3.036  20.187   4.619  0.1014  0.3025 -0.1364
16589W        W17453   3.920  20.617   2.411 -0.0853 -0.2631  0.1175
16590W        W17454   1.115  19.512   3.864 -0.0575  0.0922  0.3082
16591W        W17455   3.592  23.449  28.995  0.2342 -0.1177  0.2401
16592W        W17456   1.546  22.891   4.896  0.2638 -0.0752 -0.0231
16593W        W17457   4.372  22.931   2.361  0.2921 -0.0195 -0.3064
16594W        W17458   2.288  23.576   2.857 -0.0998 -0.0087 -0.0353
16595W        W17459   1.956  21.410   3.601  0.0560  0.1590  0.2568
16596W        W17460   2.508  21.815   2.588  0.1685  0.4637 -0.0092
16597W        W17461   3.751  21.232   1.242 -0.2574  0.2708  0.1083
16598W        W17462   3.057  20.450   2.679  0.3298 -0.0685 -0.1024
16599W        W17463   0.592  22.097   3.719 -0.0188  0.0803  0.1001
16600W        W17464   1.286  19.572   2.707 -0.0884  0.0923  0.0031
16601W        W17465   1.840  21.491  27.369 -0.1365 -0.1286  0.1760
16602W        W17466   2.875  21.559   2.327 -0.1059  0.1111  0.0951
16603W        W17467   3.086  19.665   1.599 -0.2733  0.0287 -0.1705
16604W        W17468   0.585  21.313   1.364 -0.1902 -0.1938 -0.1013
16605W        W17469  29.072  23.543  10.413  0.0121  0.0099  0.3352
16606W        W17470  28.737  21.533   6.016 -0.1556 -0.1259  0.0978
16607W        W17471   5.874  20.856   3.429  0.3639  0.2530  0.0447
16608W        W17472   4.523  20.911   7.731  0.0768  0.1348 -0.0809
16609W        W17473   0.651  20.407   6.726  0.2225  0.1743 -0.2017
16610W        W17474   0.788  18.387   4.245  0.0603 -0.1095  0.1696
16611W        W17475   4.554  20.528   4.956 -0.0499 -0.3066 -0.0392
16612W        W17476   2.354  21.095   3.717  0.0569 -0.0723 -0.1248
16613W        W17477   4.454  21.715   6.547 -0.0360 -0.0837 -0.0972
16614W        W17478   2.324  17.959   8.257 -0.2654 -0.0256  0.2834
16615W        W17479   0.637  20.923   6.964 -0.0920 -0.0915  0.2542
16616W        W17480   2.651  18.549   6.406 -0.0001 -0.3373  0.0444
16617W        W17481   2.193  17.992   4.583  0.0449 -0.1232 -0.2424
16618W        W17482   4.860  18.771   6.483  0.2758  0.1060  0.0898
16619W        W17483  28.478  16.819   7.206 -0.0436 -0.2223 -0.4359
16620W        W17484  28.770  16.955   8.877 -0.1290 -0.1554 -0.2224
16621W        W17485   1.005  20.623   5.993 -0.1588  0.0268 -0.1914
16622W        W17486   0.512  18.585   5.139 -0.2450 -0.1840 -0.0117
16623W        W17487  28.338  18.314   6.014  0.0169 -0.0614  0.0375
16624W        W17488   2.703  19.922   6.701  0.0659  0.2024 -0.0190
16625W        W17489   2.047  23.182   7.413  0.3502  0.3180  0.1638
16626W        W17490   3.356  20.540   6.482 -0.2223 -0.1728  0.1636
16627W        W17491   1.952  21.953   4.962 -0.1096 -0.2679  0.1015
16628W        W17492  28.846  17.339   5.956  0.0771  0.1911 -0.0988
16629W        W17493   2.651  18.084   5.987 -0.1098  0.1266  0.1164
16630W        W17494   3.502  18.345   7.309  0.0216  0.1252 -0.1476
16631W        W17495   4.178  19.183   8.078  0.0902 -0.1713  0.1189
16632W        W17496   3.063  22.241   6.635  0.1163 -0.2188  0.0706
16633W        W17497   2.161  19.721   6.578 -0.2356 -0.0710 -0.2684
16634W        W17498   1.657  19.808   8.501 -0.0470  0.1107  0.3625
16635W        W17499   2.061  22.755   5.725  0.5457  0.0417  0.0556
16636W        W17500   2.361  22.967   6.266  0.1346  0.0335 -0.0459
16637W        W17501   0.166  19.975   7.670  0.0065  0.4534  0.1155
16638W        W17502   3.323  19.623   8.580  0.1116  0.1272  0.1680
16639W        W17503  28.060  19.357   6.476 -0.0615  0.3404  0.1131
16640W        W17504   4.843  22.705  10.430 -0.1933 -0.0148  0.0070
16641W        W17505   0.641  19.646   3.381  0.1970  0.2665  0.0165
16642W        W17506   1.535  21.424   6.136 -0.2018 -0.0368  0.0565
16643W        W17507   6.332  20.452   4.763 -0.1166  0.1875 -0.0604
16644W        W17508   1.096  18.853   4.226  0.1784  0.3011 -0.1729
16645W        W17509   5.120  18.586   3.391  0.2455  0.2273 -0.2806
16646W        W17510   1.375  19.524   6.067 -0.2306  0.0362 -0.0193
16647W        W17511   3.291  24.854   5.891 -0.1190 -0.1189 -0.0112
16648W        W17512   3.567  20.990   6.212 -0.1213  0.2340  0.1655
16649W        W17513   3.771  21.031   4.720 -0.1912 -0.1284  0.3291
16650W        W17514   3.872  22.011   5.482 -0.1398  0.0539  0.1079
16651W        W17515   1.074  22.147   5.620 -0.0463 -0.0026  0.3151
16652W        W17516   0.340  18.153   5.044 -0.0022  0.0701  0.1571
16653W        W17517   6.186  20.284   6.003 -0.0328  0.2261 -0.2217
16654W        W17518   0.433  22.489   5.765  0.0454 -0.1202  0.2130
16655W        W17519   3.594  21.417   6.986  0.1120  0.1811 -0.0518
16656W        W17520   1.988  20.882   7.312 -0.1124  0.0630  0.2597
16657W        W17521   1.506  20.402   6.626  0.0240 -0.2361  0.0452
16658W        W17522   5.991  20.687   6.396  0.0629 -0.2013 -0.0501
16659W        W17523   3.613  19.094   5.272  0.1423  0.3128  0.2278
16660W        W17524   1.110  20.329   6.996 -0.4092  0.2849  0.1185
16661W        W17525   1.262  20.449   4.308  0.0064  0.0531  0.0118
16662W        W17526   3.420  20.562   6.973  0.1550  0.0841 -0.1805
16663W        W17527   2.244  19.875   7.134  0.0620 -0.5110 -0.0926
16664W        W17528   3.890  21.897   4.291  0.0192 -0.0093 -0.2592
16665W        W17529   4.463  19.622   3.803 -0.2723  0.3795 -0.2112
16666W        W17530   1.467  20.147   6.208 -0.0432 -0.0240 -0.2780
16667W        W17531   0.197  22.928   8.547 -0.1036  0.0777 -0.2734
16668W        W17532  28.461  23.130   4.473  0.3541 -0.2690  0.2285
16669W        W17533   0.608  20.599   2.529 -0.0722 -0.0774 -0.1154
16670W        W17534   5.668  18.277   4.075 -0.0275 -0.2215 -0.0061
16671W        W17535   1.417  21.934   4.784 -0.1643 -0.1895  0.1649
16672W        W17536   0.992  19.056   5.673  0.1907 -0.1190  0.0812
16673W        W17537   1.922  21.792   5.436  0.3492  0.1886 -0.0829
16674W        W17538   2.254  20.835   5.659  0.2019 -0.1683  0.0262
16675W        W17539  28.737  22.362   8.950 -0.2285 -0.2347 -0.0960
16676W        W17540   3.724  19.436   5.649 -0.0775  0.0862 -0.0456
16677W        W17541   2.180  21.803   4.422  0.1589  0.0977 -0.2216
16678W        W17542   4.065  21.044   8.866  0.0760 -0.4236 -0.1303
16679W        W17543   6.154  21.367   4.760  0.2943 -0.1933  0.0463
16680W        W17544   2.376  20.277   6.503 -0.2768 -0.1423 -0.1900
16681W        W17545  28.184  20.327   5.379 -0.3987 -0.1165  0.1944
16682W        W17546   3.527  19.437   6.429  0.3166 -0.2307 -0.0558
16683W        W17547   0.662  19.066   4.993 -0.1332  0.1675  0.2997
16684W        W17548   3.219  20.869   5.864  0.2096 -0.2323  0.0581
16685W        W17549  28.472  19.610   7.824  0.1057  0.0341  0.0305
16686W        W17550   0.380  19.548  10.580  0.2644 -0.3670 -0.1473
16687W        W17551  29.007  18.837   3.022  0.0437  0.1549 -0.2718
16688W        W17552   3.789  18.190   5.287 -0.0171 -0.2187  0.4073
16689W        W17553   0.751  18.573   5.652 -0.1582  0.0482 -0.0531
16690W        W17554   3.338  20.020   4.996  0.0504 -0.1817 -0.0631
16691W        W17555   3.043  23.611   6.016  0.2223  0.1510  0.0541
16692W        W17556   1.174  19.531   7.215  0.0150 -0.0594 -0.0094
16693W        W17557   3.714  22.120   9.296 -0.5165 -0.0822 -0.2618
16694W        W17558   3.750  20.529   6.118 -0.1819  0.0223  0.2689
16695W        W17559   2.361  20.977   7.009  0.0561  0.1484 -0.0365
16696W        W17560   2.585  22.307   7.079 -0.0531  0.0869 -0.2355
16697W        W17561   0.031  23.177   6.306  0.0019  0.1695  0.1435
16698W        W17562   1.528  20.568   3.483 -0.2071 -0.0324 -0.1449
16699W        W17563   1.029  17.689   9.659 -0.1351  0.1294  0.2028
16700W        W17564   4.248  17.756   4.147  0.1151 -0.1125  0.2252
16701W        W17565   7.205  19.103   6.061  0.0762 -0.2900  0.2045
16702W        W17566  28.766  22.698   9.702  0.0403  0.0082  0.1737
16703W        W17567  29.135  18.023   4.750 -0.2119  0.2938  0.1738
16704W        W17568   1.108  19.659   4.705  0.1099  0.1801  0.0369
16705W        W17569   4.270  23.048   6.600  0.2552 -0.2811 -0.1150
16706W        W17570   3.026  21.083   6.325 -0.3050 -0.1424 -0.3306
16707W        W17571   4.469  21.360   4.330  0.0972  0.2254  0.0957
16708W        W17572   1.916  20.822   4.398 -0.1383  0.1957  0.1615
16709W        W17573   2.919  19.377   5.146  0.0999 -0.1379  0.0576
16710W        W17574   2.893  17.309   7.860 -0.1482  0.0836 -0.0691
16711W        W17575   0.896  20.149   5.594  0.1478  0.0035 -0.3351
16712W        W17576   4.035  22.589   7.284  0.0643  0.0464 -0.1526
16713W        W17577   3.541  17.285   4.512 -0.3024  0.1737 -0.0562
16714W        W17578   2.015  19.485   4.853 -0.1406 -0.0751 -0.2331
16715W        W17579   0.802  19.421   6.827  0.0198  0.1124  0.1833
16716W        W17580   5.937  24.091   5.577  0.0129  0.2747  0.1301
16717W        W17581   3.781  20.417   8.110 -0.3600  0.0300 -0.0183
16718W        W17582   2.140  22.024   6.346 -0.1259 -0.3447 -0.0650
16719W        W17583   3.505  17.986   4.020  0.0474 -0.2013  0.1152
16720W        W17584   1.982  21.141   4.044 -0.0498 -0.4604  0.0020
16721W        W17585   3.823  20.145   6.845  0.0764 -0.3717 -0.0495
16722W        W17586   3.688  19.841   7.617 -0.3058  0.3526  0.1949
16723W        W17587   4.141  20.856   6.281  0.1166 -0.2013 -0.1337
16724W        W17588   5.022  20.595   4.330  0.0586 -0.3608 -0.0541
16725W        W17589   3.336  19.616   5.884  0.1997  0.0829 -0.1717
16726W        W17590   2.643  22.043   4.314  0.1282 -0.5643 -0.0567
16727W        W17591   1.346  21.004   5.862  0.2730 -0.1874 -0.0233
16728W        W17592   1.954  22.308   5.405 -0.4490 -0.1313  0.2158
16729W        W17593   2.428  17.063   4.123 -0.2591 -0.4266 -0.2347
16730W        W17594   3.206  18.641   4.659  0.3591 -0.0685 -0.1223
16731W        W17595   1.419  19.911   6.987 -0.3057 -0.2933  0.1208
16732W        W17596   5.745  20.569   4.307 -0.0618 -0.0855 -0.5592
16733W        W17597   5.226  21.835   8.481 -0.0131 -0.1393  0.0433
16734W        W17598   3.329  21.821   6.827 -0.0305 -0.2514  0.0396
16735W        W17599   2.184  21.567   7.654  0.1613  0.0123 -0.0529
16736W        W17600   3.388  17.272   6.636  0.4492 -0.0355  0.0002
16737W        W17601   4.274  22.602   6.326  0.0094 -0.1248 -0.2401
16738W        W17602   4.840  19.985   3.104  0.1450 -0.0721 -0.1989
16739W        W17603   2.857  19.871   7.172 -0.1803 -0.0416 -0.0175
16740W        W17604  28.084  19.240   4.589  0.0923 -0.0151  0.2263
16741W        W17605  28.922  21.690   9.251  0.0032  0.2817  0.3320
16742W        W17606   0.214  18.761   8.399  0.0661  0.2185 -0.1251
16743W        W17607   3.980  22.616   4.028 -0.0925 -0.1285  0.3408
16744W        W17608   1.232  20.322   5.275 -0.0847  0.1525  0.2432
16745W        W17609  29.132  17.992   3.359 -0.4543  0.0906  0.1698
16746W        W17610   2.960  17.750   5.510  0.0495 -0.1871 -0.0013
16747W        W17611   4.798  21.727   1.281 -0.0952  0.4480  0.0265
16748W        W17612   1.312  21.332   2.463 -0.0524  0.0868  0.0965
16749W        W17613   3.443  19.670   6.947 -0.1330 -0.0912 -0.1491
16750W        W17614   3.818  20.390   4.628 -0.0186 -0.2819 -0.2057
16751W        W17615   2.717  19.264   3.832 -0.1150  0.0701  0.1205
16752W        W17616   4.167  21.837   5.994 -0.1636  0.2452 -0.1561
16753W        W17617   1.909  22.119   5.887  0.1454 -0.0114  0.2806
16754W        W17618   4.051  21.529   5.650  0.0238  0.0623 -0.1750
16755W        W17619   3.331  21.481   6.537 -0.1742  0.1709  0.5467
16756W        W17620  28.068  22.076   6.576  0.1526 -0.1554  0.1901
16757W        W17621   2.874  20.357   5.137 -0.3053 -0.0074  0.0238
16758W        W17622  28.408  18.951   4.246 -0.2635  0.1218 -0.1467
16759W        W17623   1.884  20.303   5.390  0.2184 -0.0520 -0.1590
16760W        W17624   3.830  17.345   5.346  0.1215  0.1638 -0.1516
16761W        W17625   1.269  16.924   5.788 -0.0082 -0.2013  0.1197
16762W        W17626  28.914  19.148   4.921 -0.1624 -0.0711 -0.0891
16763W        W17627   2.543  17.090   2.870  0.3525  0.1138  0.3479
16764W        W17628   3.319  19.534   4.899  0.2572 -0.0197  0.1452
16765W        W17629   3.479  16.720   9.879  0.3543  0.1343 -0.1772
16766W        W17630   2.008  21.100   6.670 -0.0903  0.0473  0.3015
16767W        W17631  27.799  19.490   5.504  0.1536  0.1270 -0.4722
16768W        W17632   3.934  20.521   7.132  0.0202 -0.1284  0.2472
16769W        W17633   0.080  18.871   6.293  0.0674 -0.0479 -0.1866
16770W        W17634   5.968  19.791   5.590 -0.1396  0.0677  0.2129
16771W        W17635   1.530  19.476   4.984  0.2000 -0.0149  0.3714
16772W        W17636   0.933  22.212   4.103  0.0378 -0.2150  0.1718
16773W        W17637   3.286  22.502   8.513 -0.2058  0.2669 -0.0982
16774W        W17638   0.110  21.320   3.693 -0.0585  0.0023  0.2695
16775W        W17639   2.628  18.879   4.245  0.2260 -0.4559 -0.2165
16776W        W17640   4.865  20.212   7.863 -0.0721  0.2308  0.2053
16777W        W17641   4.666  22.806   5.254  0.1118  0.0782  0.1449
16778W        W17642   2.113  22.755   4.958  0.3397  0.1081  0.0228
16779W        W17643   3.088  19.436   7.241 -0.2074  0.2798  0.0029
16780W        W17644   5.895  19.160   4.520 -0.0280 -0.1533 -0.1585
16781W        W17645  28.992  19.430   6.571  0.0648 -0.1024 -0.1083
16782W        W17646   0.305  20.157   7.167  0.1064 -0.0450 -0.3051
16783W        W17647  27.438  21.041   5.616  0.1353 -0.1639  0.1077
16784W        W17648   2.431  17.169   7.748 -0.0146 -0.2325 -0.0560
16785W        W17649  29.106  23.278   5.358 -0.1615 -0.1957  0.1016
16786W        W17650   3.973  21.315   4.372 -0.0612  0.3297  0.0503
16787W        W17651   3.629  20.880   4.287 -0.0531 -0.0035  0.1880
16788W        W17652   1.651  19.894   5.191 -0.0987  0.0913  0.1575
16789W        W17653   1.804  21.615   4.091 -0.1649  0.0538  0.1754
16790W        W17654   3.942  21.815   6.818  0.5342 -0.1263  0.0569
16791W        W17655   2.337  17.947   3.391 -0.2192  0.1327 -0.1162
16792W        W17656   1.510  21.047   3.701  0.3134 -0.0443 -0.1645
16793W        W17657   2.837  21.841   5.773  0.0326  0.1416 -0.1364
16794W        W17658   3.123  22.192   7.249 -0.2483  0.1038 -0.1549
16795W        W17659   2.363  22.068   5.161  0.2237  0.1856  0.0161
16796W        W17660   2.721  23.082   2.965  0.0430  0.0840 -0.0159
16797W        W17661   2.602  21.127   5.303  0.0708  0.3535 -0.1995
16798W        W17662   0.347  20.606   8.835 -0.2506  0.2016 -0.0804
16799W        W17663   0.510  19.131   6.443  0.0291 -0.1022 -0.2434
16800W        W17664   1.907  17.008   3.029 -0.1683 -0.2128  0.3013
16801W        W17665   0.826  18.702   4.702 -0.2565 -0.0115 -0.0549
16802W        W17666   1.199  18.176   3.766  0.0460  0.1928  0.2208
16803W        W17667   1.568  17.833   4.143 -0.2818  0.1321  0.0144
16804W        W17668   5.687  15.399   4.780  0.0654 -0.3283  0.0263
16805W        W17669  28.695  17.831   5.839 -0.0337  0.0221 -0.0445
16806W        W17670   4.345  18.891   6.197 -0.1693 -0.0530  0.0013
16807W        W17671   4.369  23.313   7.054 -0.3061  0.1963 -0.0861
16808W        W17672   2.264  18.652   6.825 -0.2585  0.0183 -0.1616
16809W        W17673   3.461  19.028   4.789  0.2064  0.0731  0.0662
16810W        W17674  27.335  20.593   5.140 -0.1686 -0.3918  0.0511
16811W        W17675   1.567  20.716   5.419 -0.3679  0.0868 -0.1794
16812W        W17676   3.499  20.355   8.540  0.1101  0.2738  0.0625
16813W        W17677   2.809  22.348   5.673 -0.0032 -0.0416  0.3146
16814W        W17678   1.409  16.945   4.193  0.0719 -0.1204 -0.1127
16815W        W17679   1.864  19.600   6.971  0.0252  0.0876  0.1128
16816W        W17680   1.869  21.914   3.656 -0.2762 -0.0227 -0.1458
16817W        W17681   4.776  21.945   7.557  0.0736 -0.0496 -0.1419
16818W        W17682   3.158  17.830   7.932 -0.0472  0.0231 -0.1784
16819W        W17683   3.796  18.520   7.675 -0.1508 -0.3207 -0.3390
16820W        W17684   4.654  21.152   2.661 -0.3101 -0.2541  0.0469
16821W        W17685   4.235  19.886   5.863  0.1314 -0.0228 -0.3170
16822W        W17686   2.019  20.879   3.486 -0.1468 -0.1036 -0.1268
16823W        W17687   0.366  19.288   8.893 -0.0549 -0.5175  0.0113
16824W        W17688   0.474  20.899   5.349  0.0050  0.1755  0.2620
16825W        W17689   3.868  19.138   6.331  0.0559 -0.1703  0.3656
16826W        W17690   2.365  21.367   5.711  0.2166  0.1688 -0.1204
16827W        W17691   2.150  20.699   6.249  0.0823  0.0389 -0.0636
16828W        W17692   2.363  19.669   3.643  0.0004  0.2895 -0.2104
16829W        W17693   1.400  20.408   5.760 -0.1133 -0.0314  0.1166
16830W        W17694  28.677  20.791   7.698  0.1827 -0.2457  0.1370
16831W        W17695   1.970  21.597   5.879  0.1270  0.1181 -0.2921
16832W        W17696   1.625  19.915   5.719 -0.2135 -0.1070  0.0580
16833W        W17697   3.107  21.671   5.078  0.2389 -0.1834  0.2342
16834W        W17698   5.217  18.473   8.227 -0.1020  0.1846  0.1197
16835W        W17699   2.179  19.280   6.317 -0.0631 -0.0143  0.1509
16836W        W17700   1.736  21.320   7.517  0.2584 -0.1490  0.2289
16837W        W17701   3.532  21.461   4.198  0.2067  0.0683  0.1569
16838W        W17702   3.535  20.668   3.212  0.0896 -0.1968 -0.0688
16839W        W17703   1.523  17.725   9.509 -0.1090  0.0902 -0.1227
16840W        W17704   5.149  21.128   4.871 -0.0445 -0.1571 -0.0599
16841W        W17705   2.801  19.936   5.932  0.3126 -0.2160 -0.0141
16842W        W17706   3.627  19.991   6.401 -0.0799 -0.1146 -0.1730
16843W        W17707   3.014  18.737   8.205 -0.2504 -0.1070 -0.0813
16844W        W17708   1.675  21.130   7.049 -0.0492  0.2844 -0.3876
16845W        W17709   2.263  21.200   6.171  0.0777 -0.0575  0.0297
16846W        W17710   2.247  19.376   7.911 -0.0636 -0.0444 -0.1624
16847W        W17711   0.511  17.840   6.273  0.4066 -0.2818  0.1733
16848W        W17712   2.815  19.564   5.589 -0.4058 -0.2751  0.1343
16849W        W17713   5.761  18.977   5.044  0.1313 -0.1996  0.0490
16850W        W17714   2.422  22.587   3.101  0.2550 -0.0131 -0.1107
16851W        W17715   4.828  21.482   6.953 -0.1048  0.0892 -0.2198
16852W        W17716   2.607  20.899   6.012 -0.0472 -0.1888 -0.0434
16853W        W17717   2.812  21.369   4.842  0.1673  0.1145 -0.0861
16854W        W17718  29.117  18.909   5.288 -0.1657  0.1078  0.2023
16855W        W17719   3.548  20.516   5.080 -0.0392 -0.0102 -0.0905
16856W        W17720  28.857  24.716   6.382  0.0444  0.1988  0.0786
16857W        W17721   4.793  22.079   8.486 -0.0709  0.0952 -0.1225
16858W        W17722   4.202  22.300   6.866  0.0807 -0.4040  0.1869
16859W        W17723  27.953  22.737   3.847  0.1393 -0.3218 -0.0053
16860W        W17724   2.845  22.047   5.302  0.0574 -0.0515  0.0296
16861W        W17725   2.406  19.747   5.269 -0.0848  0.0445 -0.1793
16862W        W17726  28.730  18.826   6.737  0.2123 -0.0606  0.2313
16863W        W17727   5.249  21.643   6.181  0.0425  0.0109  0.4439
16864W        W17728   4.036  20.930   5.790 -0.0953 -0.1460  0.0085
16865W        W17729   2.249  18.218   2.934  0.1665  0.0934  0.1726
16866W        W17730   3.219  19.759   8.092  0.0356 -0.1086 -0.1659
16867W        W17731   2.641  21.363   7.217  0.0015  0.0079 -0.3448
16868W        W17732  28.704  20.642   5.286 -0.1521 -0.0749  0.0879
16869W        W17733   0.688  21.934   6.994 -0.3499 -0.0731  0.0999
16870W        W17734   2.722  24.334  11.797  0.0744  0.0687 -0.0423
16871W        W17735   2.077  23.935   5.214 -0.0156  0.2122  0.0606
16872W        W17736   4.532  20.482   4.242 -0.1055  0.0253  0.0922
16873W        W17737   1.437  22.039   7.514  0.1461 -0.2908 -0.2838
16874W        W17738   2.464  20.239   5.450  0.0422 -0.1191  0.0458
16875W        W17739   3.397  23.163   5.414 -0.1149  0.0257  0.1443
16876W        W17740   4.783  19.237   6.722 -0.1218 -0.0016 -0.2132
16877W        W17741   1.415  18.193   6.046 -0.0656  0.1661 -0.3403
16878W        W17742   0.250  20.487   7.566 -0.0544 -0.0841  0.0336
16879W        W17743   3.719  22.972   4.921 -0.1371  0.0569 -0.3535
16880W        W17744   3.044  20.381   8.692 -0.0084  0.1787 -0.0397
16881W        W17745   0.054  17.664   5.061 -0.0414  0.3603  0.0450
16882W        W17746   3.357  19.178   6.903 -0.2670  0.2265 -0.2500
16883W        W17747   0.548  21.543   2.867  0.2795  0.1058 -0.1483
16884W        W17748  28.929  18.940   7.760 -0.3203 -0.1538 -0.0339
16885W        W17749   1.995  22.777   6.658 -0.1456 -0.1062 -0.2761
16886W        W17750   1.272  20.965   4.614  0.0462  0.0011  0.2975
16887W        W17751  28.664  21.735   3.780 -0.0586 -0.2223 -0.0362
16888W        W17752  27.296  23.212   4.399  0.0553  0.0854  0.0300
16889W        W17753   4.692  18.883   4.305 -0.3596  0.0407 -0.0396
16890W        W17754   3.823  18.516   6.970 -0.1900 -0.0300 -0.0880
16891W        W17755   4.085  20.100   4.143 -0.0768  0.1087  0.1423
16892W        W17756  27.303  22.007   7.159  0.1882  0.0320  0.0005
16893W        W17757   4.338  19.360   5.858  0.0438  0.0522 -0.2954
16894W        W17758   1.988  19.867   4.198  0.1225  0.1928  0.1218
16895W        W17759   2.093  20.542   4.802  0.1889 -0.3229 -0.0616
16896W        W17760   6.344  19.744   2.369 -0.0003 -0.0837 -0.3431
16897W        W17761   3.449  18.725   5.583  0.0071  0.0300  0.0347
16898W        W17762   3.352  21.486   6.019  0.0125 -0.2256 -0.2602
16899W        W17763   1.442  18.975   5.273 -0.2916 -0.1993  0.1720
16900W        W17764   1.322  22.073   3.827 -0.2427 -0.1306  0.1280
16901W        W17765   0.466  20.449   4.381  0.0061 -0.0870  0.0457
16902W        W17766   2.709  22.100   6.313 -0.0852 -0.3140  0.1844
16903W        W17767   4.267  20.189   5.314 -0.0497  0.3630  0.2537
16904W        W17768  28.894  18.966   3.991  0.0816  0.2158  0.1354
16905W        W17769   0.675  19.614   6.376 -0.0673 -0.4014 -0.0380
16906W        W17770   1.150  18.107   8.745  0.2689  0.0625 -0.0618
16907W        W17771   2.046  21.614   8.536  0.1566 -0.2147 -0.1177
16908W        W17772   2.825  18.331   4.504 -0.0066 -0.1198 -0.0898
16909W        W17773   3.271  22.147   5.520  0.1747  0.0526  0.3028
16910W        W17774   4.812  24.963   6.231  0.1172 -0.0822  0.1856
16911W        W17775   2.224  20.524   7.703  0.1864 -0.0548  0.2942
16912W        W17776   3.944  17.943   3.746  0.2167 -0.1520  0.1090
16913W        W17777   4.795  19.730   4.658  0.0023 -0.0784  0.0891
16914W        W17778   0.679  19.402   7.314  0.1031  0.0915 -0.2641
16915W        W17779   3.247  20.247   5.483 -0.2221  0.4212  0.1991
16916W        W17780   2.942  21.655  10.649  0.3677 -0.0377 -0.3515
16917W        W17781   3.211  21.123   4.123  0.1508 -0.3146 -0.0044
16918W        W17782   2.537  20.062   4.835 -0.2669 -0.1523  0.0346
16919W        W17783   0.703  21.230   6.552 -0.1174  0.0691  0.0950
16920W        W17784   1.907  19.704   6.094  0.0218 -0.1665  0.1690
16921W        W17785   0.553  22.592   3.522 -0.1719  0.3429 -0.4725
16922W        W17786   0.945  21.330   4.357 -0.1003  0.1688 -0.1035
16923W        W17787   2.947  22.776   6.666 -0.1069 -0.0345 -0.0933
16924W        W17788   0.165  19.599   3.661 -0.0081 -0.3339 -0.1334
16925W        W17789   1.115  23.083   6.650 -0.1373  0.1966 -0.0749
16926W        W17790   2.953  20.905   4.961  0.1183 -0.1583 -0.0723
16927W        W17791  28.478  21.565   5.573  0.4626 -0.2825 -0.4487
16928W        W17792   0.997  20.708   5.492  0.0563  0.1763 -0.0111
16929W        W17793  29.009  23.676   6.359  0.0644  0.0186  0.1527
16930W        W17794   1.378  23.958   6.566 -0.0239 -0.1693 -0.1332
16931W        W17795   0.647  20.114   7.542  0.1667  0.1481  0.0235
16932W        W17796   0.001  21.376   4.197  0.0386 -0.1396 -0.1361
16933W        W17797   0.170  20.859   3.992  0.0102  0.0105  0.0730
16934W        W17798   0.251  21.102   5.789  0.0587  0.0169  0.2544
16935W        W17799   2.989  18.632   5.565 -0.2866  0.0491  0.4484
16936W        W17800   3.085  19.672   3.756 -0.1192 -0.2358 -0.0888
16937W        W17801   1.267  20.892   7.204 -0.0178 -0.0787 -0.1151
16938W        W17802   3.811  20.772   6.632 -0.2695 -0.0862 -0.2016
16939W        W17803   4.491  21.548   7.425 -0.3092  0.0572  0.0148
16940W        W17804   6.006  22.327   8.537 -0.0777  0.3624  0.2208
16941W        W17805   1.210  22.586   4.788  0.2396 -0.3362 -0.1273
16942W        W17806   4.738  22.111   2.544 -0.1978  0.1614 -0.3736
16943W        W17807   4.291  19.601   5.021 -0.1285 -0.1432 -0.1577
16944W        W17808   0.984  18.772   5.175 -0.1631  0.0666 -0.0656
16945W        W17809  28.996  20.206   6.202  0.0533  0.0784  0.0585
16946W        W17810   0.777  17.783   7.280  0.1279 -0.0998 -0.0095
16947W        W17811   2.149  19.852   5.654 -0.1084 -0.0751 -0.0778
16948W        W17812  27.921  23.604   4.514  0.0028  0.0307  0.3364
16949W        W17813   1.901  19.464   5.321  0.1245  0.2124 -0.0761
16950W        W17814   2.971  22.527   8.057  0.2200  0.0895 -0.2936
16951W        W17815   0.985  20.351   6.371 -0.2846 -0.0311  0.1406
16952W        W17816   3.488  19.070   5.987 -0.0325  0.0430 -0.0344
16953W        W17817   3.155  18.832   5.143  0.3072 -0.2221 -0.0392
16954W        W17818   1.147  17.183   4.863 -0.0040 -0.1328 -0.2699
16955W        W17819   4.838  22.383   7.106  0.1978 -0.0978  0.1271
16956W        W17820   1.845  21.115   4.863 -0.1592  0.1977 -0.1949
16957W        W17821   3.104  22.994   8.244  0.2950  0.0347 -0.2065
16958W        W17822   2.176  22.144   7.724 -0.4774  0.0246  0.2005
16959W        W17823   5.753  22.381   3.435 -0.0253 -0.1423  0.0256
16960W        W17824   2.067  16.415   4.144  0.0983  0.0391  0.0536
16961W        W17825   1.410  22.562   7.404 -0.2448 -0.0880 -0.1443
16962W        W17826   1.240  18.437   5.586  0.0282 -0.3204 -0.2962
16963W        W17827   0.217  19.873   6.314 -0.0292 -0.1901  0.0569
16964W        W17828   0.444  22.076   4.209  0.2798 -0.1042 -0.0001
16965W        W17829  28.909  22.175   6.079  0.0124  0.1045  0.1552
16966W        W17830   1.752  18.558   5.829  0.1376  0.1988 -0.0162
16967W        W17831   2.611  22.582   7.606  0.1775  0.3957  0.2430
16968W        W17832   3.202  17.412   2.420 -0.0307  0.1135 -0.1057
16969W        W17833   2.190  20.659   3.916  0.1419 -0.2423  0.1617
16970W        W17834   3.590  21.335   7.543 -0.1498  0.2936 -0.3841
16971W        W17835   5.644  18.620   3.766  0.1091 -0.0815  0.3329
16972W        W17836   2.806  21.015   3.949 -0.3310 -0.0085  0.2511
16973W        W17837   0.831  18.212   4.740  0.4142 -0.0824 -0.2363
16974W        W17838   3.040  19.603   2.529 -0.2810  0.1232 -0.0366
16975W        W17839   2.425  22.084   2.988 -0.1018 -0.0508  0.1499
16976W        W17840  29.090  19.966   5.094 -0.0990 -0.1665  0.2762
16977W        W17841   3.860  18.296   4.254  0.1621 -0.0724  0.3596
16978W        W17842   1.899  20.322   5.871  0.0598 -0.1212 -0.1490
16979W        W17843   1.428  23.060   4.421  0.3277  0.0714  0.0025
16980W        W17844   3.927  19.016   6.816  0.1142 -0.0256 -0.1056
16981W        W17845   3.626  18.254   6.585  0.1267  0.1435  0.0228
16982W        W17846   4.076  20.379   5.749  0.0175  0.1182 -0.2793
16983W        W17847   3.395  21.281   8.250  0.1560  0.0497  0.0710
16984W        W17848  28.927  18.417   5.412 -0.1610  0.0453 -0.1175
16985W        W17849   3.568  21.172   5.688  0.0734 -0.2582 -0.2517
16986W        W17850  27.893  19.374   5.029 -0.0585  0.2599 -0.0440
16987W        W17851  28.588  18.884   5.281 -0.0336 -0.1060 -0.3534
16988W        W17852   2.624  23.089   7.414  0.3312 -0.2122  0.1656
16989W        W17853   4.304  22.826   5.721 -0.1314 -0.0586 -0.0484
16990W        W17854   3.663  17.918   6.179  0.0413  0.2476 -0.0172
16991W        W17855   4.678  20.941   3.616 -0.1297 -0.2049  0.1941
16992W        W17856   3.811  19.918   5.024 -0.1974  0.0330 -0.0226
16993W        W17857  28.519  21.819   5.144 -0.1203  0.2836  0.1295
16994W        W17858   2.491  19.048   6.637 -0.2502  0.0649  0.0507
16995W        W17859   0.437  22.835  10.556  0.0375 -0.0029  0.0226
16996W        W17860   2.412  22.522   5.444  0.1691  0.1883 -0.0375
16997W        W17861   4.597  21.109   7.202  0.1229  0.0450 -0.0346
16998W        W17862   4.973  23.369   5.959 -0.1497 -0.0189  0.0100
16999W        W17863   2.486  22.309   8.108  0.1585  0.1753  0.1083
17000W        W17864   0.212  19.644   7.304 -0.0503 -0.3009  0.3106
17001W        W17865   0.193  21.855   3.432  0.1075 -0.0640  0.0307
17002W        W17866   0.885  20.962   4.971  0.0944 -0.1616  0.2246
17003W        W17867   2.579  22.498   4.970  0.2431 -0.1605 -0.0690
17004W        W17868   1.662  19.247   3.871  0.1501  0.1591 -0.0014
17005W        W17869   0.342  22.101  11.970  0.0043 -0.2334  0.0540
17006W        W17870  28.669  19.293  11.220  0.0586 -0.2404 -0.0093
17007W        W17871   6.323  20.303   6.904 -0.1333 -0.2073  0.0546
17008W        W17872   3.663  20.376   9.432  0.1223  0.1112  0.0278
17009W        W17873   0.140  20.365   8.063 -0.1090 -0.0898 -0.1049
17010W        W17874   0.846  17.609   8.526  0.1164  0.1584  0.3216
17011W        W17875  27.730  21.830   9.072 -0.1977 -0.1502  0.1596
17012W        W17876   1.523  20.898   8.490 -0.0313 -0.0006  0.0219
17013W        W17877   0.839  23.113  10.868 -0.0351  0.0691 -0.2038
17014W        W17878   2.025  20.594   8.219  0.2014 -0.4091 -0.0776
17015W        W17879   0.252  19.360   9.421 -0.2866  0.0432  0.0296
17016W        W17880   3.157  18.180   8.322 -0.2549  0.1590 -0.2328
17017W        W17881   1.492  19.605   7.571 -0.1815 -0.0365 -0.2215
17018W        W17882   1.609  19.476  11.084  0.0924 -0.0081  0.0888
17019W        W17883   2.890  19.343   9.963  0.1020  0.0827  0.1391
17020W        W17884  28.014  21.137  11.864  0.1712  0.1172 -0.2007
17021W        W17885   1.440  21.359   9.222  0.0953  0.0666  0.0593
17022W        W17886   0.881  19.600  10.366  0.5042  0.0212 -0.2919
17023W        W17887  27.120  20.528  10.230 -0.0945  0.1492 -0.0226
17024W        W17888   4.450  19.205  11.592  0.0698  0.1096  0.2218
17025W        W17889   3.337  20.459   9.838 -0.0279  0.0503 -0.2133
17026W        W17890  28.881  20.888   6.823 -0.3100 -0.0275  0.1499
17027W        W17891   2.775  23.180  10.043 -0.0384  0.1344  0.0233
17028W        W17892  27.732  23.685  10.625  0.0678 -0.1449  0.4262
17029W        W17893   0.053  20.843   9.571 -0.2692 -0.1494  0.4376
17030W        W17894   1.368  18.515   8.856 -0.2915  0.0244  0.0704
17031W        W17895   6.921  19.177   9.711  0.1503  0.2296  0.0914
17032W        W17896   2.139  21.945  12.043  0.0463 -0.3206 -0.0526
17033W        W17897   1.838  22.760  11.834 -0.0404 -0.1290  0.0885
17034W        W17898   0.293  18.722  11.101  0.0684  0.2088 -0.2991
17035W        W17899   2.376  21.835   7.159 -0.2026 -0.0899  0.2142
17036W        W17900   2.045  22.951  12.306  0.1290 -0.1875 -0.2438
17037W        W17901   2.475  19.783   9.340 -0.3280 -0.1211  0.0910
17038W        W17902   2.404  20.645  12.073 -0.0596  0.1383  0.2853
17039W        W17903  28.915  20.566   9.840 -0.0168  0.0531  0.1544
17040W        W17904   2.628  21.046   9.749 -0.0112 -0.1510 -0.0766
17041W        W17905  28.389  19.844   6.730 -0.0482 -0.1763  0.1693
17042W        W17906   3.916  22.484   8.327  0.1649  0.0741  0.1185
17043W        W17907   5.800  21.057   6.149  0.0110 -0.2430 -0.3460
17044W        W17908   5.163  18.779  11.466  0.0986  0.2030  0.1481
17045W        W17909   3.672  17.482   9.832  0.2787 -0.0345 -0.0767
17046W        W17910   5.101  16.265  12.141  0.2478  0.0531 -0.0439
17047W        W17911  27.894  20.752   9.501  0.2144 -0.1892  0.2418
17048W        W17912   2.048  21.108   8.426  0.1402 -0.0991 -0.0148
17049W        W17913  27.644  23.197   9.201 -0.2709  0.0296  0.2223
17050W        W17914  29.020  22.026  10.547 -0.2018  0.2818 -0.0717
17051W        W17915   3.743  17.773   9.372 -0.2132  0.0112 -0.1373
17052W        W17916   4.248  19.440   8.657 -0.0490 -0.0268 -0.0695
17053W        W17917   2.497  20.422  10.505 -0.0477 -0.1542  0.0059
17054W        W17918   1.008  22.426   8.201  0.3120 -0.2107 -0.0910
17055W        W17919   5.831  19.917   8.252 -0.1927 -0.1311 -0.1682
17056W        W17920   0.761  20.750  11.146 -0.0683  0.1213 -0.0657
17057W        W17921   4.618  20.754   9.208  0.0630  0.0650 -0.0129
17058W        W17922   4.234  19.403  11.196 -0.1459 -0.0130  0.0774
17059W        W17923   3.010  19.054   6.595  0.4702  0.0190  0.0806
17060W        W17924  28.457  19.888   8.278 -0.1034  0.0117  0.0988
17061W        W17925  28.453  20.778   9.600 -0.0362  0.3677 -0.0271
17062W        W17926   2.244  18.471  10.504  0.2065  0.1142 -0.1652
17063W        W17927  28.986  21.412  10.824 -0.0630 -0.0852 -0.0643
17064W        W17928   0.205  21.041   6.530 -0.0995  0.1120 -0.2048
17065W        W17929   2.764  19.407   9.488 -0.1591 -0.0243 -0.1319
17066W        W17930  24.811  22.078  11.872 -0.3693  0.0087 -0.1047
17067W        W17931   0.958  21.825  10.518  0.2394 -0.0077 -0.0820
17068W        W17932  29.084  20.075  10.023  0.2265 -0.2749  0.1146
17069W        W17933   1.948  20.324   9.800  0.1475 -0.1672  0.1791
17070W        W17934   1.955  20.049   8.138 -0.0845 -0.2537 -0.0421
17071W        W17935  26.419  19.529   7.202  0.0074  0.0520  0.2906
17072W        W17936   0.953  16.930   5.364  0.0010  0.0102  0.0668
17073W        W17937  28.507  22.002   9.611  0.0476  0.2648  0.1175
17074W        W17938  28.567  20.022   5.929  0.1539 -0.0336 -0.0515
17075W        W17939   4.145  23.391  10.952 -0.1354  0.0992  0.0721
17076W        W17940   2.910  19.427   6.017 -0.3095  0.0801  0.0538
17077W        W17941   2.391  19.538  11.378  0.3130  0.0783 -0.1407
17078W        W17942   3.241  19.756  12.455 -0.1375  0.1949  0.3388
17079W        W17943   3.015  22.105   7.760  0.0633 -0.4070  0.0783
17080W        W17944   0.305  21.658   6.822  0.0510 -0.1300 -0.2814
17081W        W17945   0.413  16.029   7.999 -0.1891  0.0275  0.0327
17082W        W17946   2.484  23.080  10.426  0.0659 -0.0137  0.2382
17083W        W17947   1.113  21.420   7.375 -0.0571 -0.2168  0.1125
17084W        W17948   1.509  20.396   7.213 -0.2546  0.0705  0.0342
17085W        W17949  28.254  19.439   8.264 -0.0635  0.0110  0.1403
17086W        W17950   1.349  19.836   8.122  0.1547  0.1703 -0.0992
17087W        W17951   1.861  17.380   9.831 -0.0947  0.1394 -0.0607
17088W        W17952  28.360  18.044   9.923  0.0341 -0.1324  0.2683
17089W        W17953   2.974  20.499  10.209  0.1664  0.0327 -0.0680
17090W        W17954   0.892  18.945   6.719 -0.0155  0.2256  0.2958
17091W        W17955   2.938  20.865   8.884 -0.0517 -0.2087 -0.1276
17092W        W17956   3.152  17.502  11.875 -0.1315  0.0456  0.1727
17093W        W17957   2.467  22.232   8.949  0.2286  0.0332  0.1620
17094W        W17958   1.700  18.129  13.600 -0.4843  0.3858 -0.1205
17095W        W17959   3.222  17.853   9.166 -0.0433 -0.2703  0.1218
17096W        W17960   4.119  21.494  10.311 -0.0632  0.2813 -0.3500
17097W        W17961   0.935  18.925   8.664 -0.0543 -0.1503  0.2749
17098W        W17962   0.718  18.913   8.233 -0.1042  0.2139 -0.1607
17099W        W17963  28.844  21.420  11.613 -0.1108 -0.0156  0.1755
17100W        W17964   3.075  18.371   9.373 -0.0821 -0.0623  0.0099
17101W        W17965   1.539  19.342   8.597  0.0343  0.3698 -0.1328
17102W        W17966   0.367  22.756  10.014  0.0470 -0.0093 -0.0560
17103W        W17967   0.335  17.623   7.620 -0.2040  0.1574 -0.0293
17104W        W17968   3.262  20.188   5.995  0.3406  0.0572 -0.1531
17105W        W17969   5.151  20.939   5.447 -0.0453 -0.1221  0.2692
17106W        W17970  25.352  22.414   9.246  0.0865  0.1330  0.0228
17107W        W17971   1.730  18.834   7.070  0.0771  0.3213  0.2048
17108W        W17972   3.902  22.973   8.121 -0.1919 -0.0515  0.3726
17109W        W17973   5.388  19.363   7.017 -0.0804 -0.3357 -0.0992
17110W        W17974   4.509  21.896  11.583  0.0570  0.1248 -0.0914
17111W        W17975   4.498  20.202   8.283 -0.1064 -0.2480 -0.3003
17112W        W17976   4.062  19.984  11.942  0.2130 -0.0541 -0.2137
17113W        W17977   3.244  19.197   9.427  0.1041  0.0432  0.0673
17114W        W17978   1.720  18.973   8.851  0.1403  0.0772 -0.0643
17115W        W17979   0.140  20.098  10.477 -0.2465  0.0816  0.0955
17116W        W17980   2.843  21.852   8.881  0.1098  0.0751  0.0037
17117W        W17981  28.600  19.270  10.130  0.2819 -0.0863 -0.0634
17118W        W17982   2.633  22.954   9.574 -0.0777 -0.1845 -0.0381
17119W        W17983   1.024  19.219   6.364  0.4976 -0.0123  0.1294
17120W        W17984   0.723  17.700   9.008  0.0518  0.1673 -0.1311
17121W        W17985   1.730  17.567   7.302  0.0466  0.2228 -0.0762
17122W        W17986  28.204  20.692   8.972  0.1261 -0.3223 -0.0091
17123W        W17987  29.071  23.342   8.466 -0.1473  0.3767  0.3693
17124W        W17988   3.845  20.541   7.658  0.2926 -0.1246  0.1183
17125W        W17989   1.216  20.117   7.486  0.1221  0.3576  0.0007
17126W        W17990   3.600  21.648   9.016 -0.1290  0.1221 -0.1633
17127W        W17991   2.447  21.407   9.414 -0.1560  0.0382  0.2927
17128W        W17992   2.649  21.795   7.889 -0.2557  0.1197 -0.0150
17129W        W17993   2.387  20.679   9.498 -0.3280 -0.0679  0.0684
17130W        W17994   3.709  22.040  10.920  0.1430  0.0207 -0.1201
17131W        W17995  28.203  19.482   9.940  0.1391  0.1108  0.0130
17132W        W17996   3.160  19.981   9.648  0.4558 -0.1928  0.1767
17133W        W17997   3.336  20.836   8.564 -0.0479 -0.0121  0.1438
17134W        W17998   3.118  21.637   9.252  0.0503 -0.0845  0.0594
17135W        W17999   2.796  23.684  10.060  0.0088  0.0375 -0.0056
17136W        W18000   2.836  17.859  10.482  0.1582  0.0710 -0.1088
17137W        W18001   1.966  22.982  11.342 -0.2078  0.3161 -0.0070
17138W        W18002   1.692  18.445   6.396  0.2125  0.2232 -0.1206
17139W        W18003   1.143  19.224   7.631 -0.1925 -0.0820 -0.0273
17140W        W18004  28.107  19.795  11.958  0.0811 -0.2245  0.2041
17141W        W18005   2.167  19.202   8.742 -0.1857  0.1969  0.1715
17142W        W18006   2.969  20.650   6.804 -0.1066  0.0520 -0.2522
17143W        W18007   3.335  21.719   7.355 -0.2414 -0.1431 -0.0191
17144W        W18008   1.089  19.882   6.622 -0.0571  0.0804  0.0144
17145W        W18009  29.082  18.372   7.747  0.0896 -0.0215 -0.2628
17146W        W18010   0.853  19.909   7.120 -0.0968  0.0058  0.0216
17147W        W18011   1.108  21.606   6.492 -0.1410 -0.2726  0.1217
17148W        W18012   0.916  21.465   9.482 -0.1233  0.3474 -0.0154
17149W        W18013   2.409  21.597  10.221  0.1118 -0.2667  0.0053
17150W        W18014   0.090  19.252   5.757  0.1310  0.1217 -0.1497
17151W        W18015   2.585  19.911   8.441 -0.3434 -0.0089 -0.1879
17152W        W18016   3.828  20.187   9.028  0.0159 -0.1975 -0.0433
17153W        W18017   2.016  23.284  10.460  0.1930 -0.2523 -0.2693
17154W        W18018   1.626  20.701   7.607 -0.0477  0.2701  0.0410
17155W        W18019   4.539  21.805   9.889 -0.1463 -0.1517 -0.2872
17156W        W18020   2.262  17.779   8.709  0.1692  0.0043  0.2211
17157W        W18021   1.799  24.883  12.003 -0.0285 -0.1250  0.1299
17158W        W18022   2.500  19.522   6.962  0.1068  0.3676 -0.0812
17159W        W18023   1.824  19.658   7.883 -0.1479  0.4379 -0.0910
17160W        W18024   4.145  18.480   8.293  0.1638 -0.0015 -0.3000
17161W        W18025  26.662  20.750  10.074  0.2286 -0.0286 -0.3133
17162W        W18026   2.042  20.390   7.271 -0.1025  0.0753 -0.1059
17163W        W18027   0.238  18.071   6.643  0.2042 -0.2151  0.0530
17164W        W18028  28.984  18.132   9.836  0.2192  0.2667 -0.0445
17165W        W18029  28.730  18.373  10.183 -0.0233  0.0323 -0.0271
17166W        W18030   0.582  21.057   9.689 -0.0692  0.0298  0.1349
17167W        W18031   2.180  18.679   9.969  0.1509 -0.1472 -0.0286
17168W        W18032   3.643  18.292   8.080  0.3240 -0.0792 -0.3200
17169W        W18033   0.275  17.871  12.146 -0.0041 -0.0485 -0.2139
17170W        W18034   1.698  18.476  12.628  0.1735  0.1677 -0.3925
17171W        W18035   1.272  23.019   7.182 -0.0641 -0.0392  0.0139
17172W        W18036  28.835  22.852   8.705 -0.3257 -0.0664 -0.1483
17173W        W18037   0.424  21.457  13.102  0.0642 -0.0202 -0.2547
17174W        W18038   0.082  22.048   8.887 -0.1671 -0.1732  0.1003
17175W        W18039   0.667  18.674   9.515 -0.0262  0.2814  0.0861
17176W        W18040   2.482  19.534   8.765  0.0339 -0.0214 -0.5585
17177W        W18041   1.173  18.804   7.989  0.2398  0.0295 -0.0566
17178W        W18042   1.004  22.365   7.164  0.1339  0.0033 -0.0059
17179W        W18043   2.721  20.102   9.021  0.0327 -0.1071 -0.1232
17180W        W18044   2.798  19.042   7.060  0.0740  0.1529 -0.3023
17181W        W18045  26.439  22.341   9.497 -0.1195 -0.0251  0.2873
17182W        W18046   0.050  22.643  11.237  0.0971 -0.0587  0.0031
17183W        W18047  28.884  22.614   4.714 -0.1623 -0.0365 -0.2029
17184W        W18048  28.991  22.261   9.908  0.3654  0.0398  0.2512
17185W        W18049   3.074  23.742   7.838  0.0994 -0.0755  0.0282
17186W        W18050   1.429  22.183   8.041 -0.2152 -0.0121  0.1616
17187W        W18051   2.148  22.468   7.351  0.0685 -0.2135 -0.2460
17188W        W18052   1.622  19.910   9.746 -0.3893  0.1466 -0.0821
17189W        W18053   0.166  19.388   6.228 -0.4018 -0.1935  0.0638
17190W        W18054   0.978  21.860   7.477 -0.2870  0.2408  0.0674
17191W        W18055   3.173  17.774   8.700  0.0502 -0.3539  0.0302
17192W        W18056  29.064  17.463  10.233 -0.1042  0.1275  0.3279
17193W        W18057   2.323  23.302   9.404  0.0688 -0.1358 -0.0357
17194W        W18058   0.921  18.535   9.949 -0.2173  0.0473  0.1218
17195W        W18059   1.070  19.891   6.058 -0.0379 -0.0092  0.0150
17196W        W18060   0.177  21.905   5.845 -0.1228 -0.2113  0.1427
17197W        W18061   1.076  20.811  11.607 -0.1222 -0.0943 -0.0119
17198W        W18062   1.052  20.042   9.289 -0.1646 -0.1050  0.2128
17199W        W18063   5.487  22.405  11.197 -0.0924  0.2004  0.1591
17200W        W18064   2.731  18.201   8.104  0.0722  0.1520  0.0727
17201W        W18065   2.854  19.418   8.455  0.5823  0.2826 -0.1235
17202W        W18066  28.899  19.570   9.425 -0.1053  0.2884 -0.1337
17203W        W18067  26.537  20.540   9.460  0.2688  0.2973  0.2073
17204W        W18068   3.812  19.331  10.654  0.0222  0.2081 -0.1844
17205W        W18069   0.432  18.373   9.144 -0.0208 -0.1741  0.1713
17206W        W18070   4.114  17.850  11.840  0.1734  0.0430 -0.2048
17207W        W18071   4.472  19.658  12.026  0.1023 -0.2811 -0.0001
17208W        W18072   2.183  18.491   9.455 -0.4446 -0.3525 -0.0391
17209W        W18073   2.772  18.403  10.437  0.0688 -0.2163  0.0720
17210W        W18074  28.416  19.732   7.303  0.1875 -0.1880  0.2289
17211W        W18075   0.222  20.213   8.530  0.0457 -0.0506  0.1457
17212W        W18076   0.957  21.653   8.281 -0.0550  0.0085 -0.2978
17213W        W18077   3.653  23.132  10.249 -0.0920 -0.1998  0.0324
17214W        W18078  29.127  19.107   7.024 -0.3023  0.2283 -0.3115
17215W        W18079   1.568  20.858  10.172 -0.1458 -0.0449  0.0386
17216W        W18080   1.823  18.786  10.307 -0.1569 -0.1702  0.0464
17217W        W18081   1.606  21.431  11.003 -0.0144 -0.1436  0.0527
17218W        W18082   3.961  17.248  10.671 -0.0009 -0.2177  0.1614
17219W        W18083   3.036  19.710   9.250  0.1141 -0.1788 -0.0328
17220W        W18084   1.774  21.117   8.937  0.0015 -0.0335 -0.0151
17221W        W18085   1.518  22.162   8.945 -0.0414 -0.3409  0.0665
17222W        W18086   3.515  23.370   9.666  0.1230  0.2190  0.1521
17223W        W18087   1.008  22.637  10.753 -0.0692  0.0154 -0.0655
17224W        W18088   0.448  21.819   9.699  0.2588 -0.0736  0.0714
17225W        W18089   2.619  18.370   9.017  0.0574  0.2277  0.2993
17226W        W18090   1.554  22.534   8.546  0.1757  0.2197 -0.0489
17227W        W18091   1.011  20.129  10.269 -0.1281  0.0173 -0.0926
17228W        W18092   0.057  19.327   8.479 -0.1118 -0.0138  0.0300
17229W        W18093   4.993  21.086   8.090  0.0160 -0.0446 -0.3363
17230W        W18094   1.904  16.959   9.626  0.1536 -0.4349  0.0304
17231W        W18095   3.270  23.315   9.156 -0.1879 -0.1160  0.0958
17232W        W18096   2.724  18.540   8.552  0.2276  0.0757  0.0116
17233W        W18097   2.707  20.906  10.274  0.0475  0.1619 -0.0101
17234W        W18098   0.017  20.267   8.968 -0.2742 -0.1055  0.3504
17235W        W18099   1.267  19.055   8.956  0.3675  0.2642  0.2203
17236W        W18100   3.829  20.097  10.570 -0.0295 -0.1532  0.1583
17237W        W18101  27.486  21.360   8.976 -0.1195  0.2829  0.0231
17238W        W18102   1.294  19.294   6.726  0.1250 -0.2506  0.2099
17239W        W18103   1.387  20.715   8.069  0.0922  0.3415  0.1193
17240W        W18104   1.138  22.341   9.249 -0.0618  0.0226  0.0955
17241W        W18105   2.199  21.790   8.105 -0.2508  0.0395 -0.3015
17242W        W18106   1.521  19.905   9.223  0.1258  0.0501 -0.1867
17243W        W18107   4.414  18.730  11.931 -0.1271 -0.0082 -0.2116
17244W        W18108   4.150  20.072   9.382 -0.1197 -0.1083  0.2859
17245W        W18109   1.466  20.422  10.023  0.0471  0.0334 -0.3889
17246W        W18110  28.677  19.102  11.718 -0.0248  0.1606  0.0194
17247W        W18111   0.443  20.363  10.928  0.0853 -0.0402 -0.0777
17248W        W18112   2.414  20.017  12.340  0.4128 -0.1153 -0.3175
17249W        W18113   0.853  21.012   7.461 -0.3322  0.2100  0.3904
17250W        W18114  29.081  19.545   7.769 -0.1166 -0.1233 -0.0818
17251W        W18115   5.376  19.639   9.842 -0.1859  0.3131  0.3022
17252W        W18116   0.497  20.909  10.131 -0.0805  0.1071  0.2821
17253W        W18117   2.721  21.309   8.969 -0.1742  0.1253  0.1818
17254W        W18118   0.924  19.597   5.596 -0.2672  0.1007 -0.0378
17255W        W18119  28.831  20.267   8.493 -0.0105 -0.1180 -0.1068
17256W        W18120  27.893  23.241   9.628  0.0622  0.0531  0.0448
17257W        W18121   3.206  22.017  11.064 -0.0117  0.1813  0.1471
17258W        W18122   1.177  21.171   8.758 -0.1983  0.0565  0.2640
17259W        W18123   1.903  20.547   9.323 -0.0615  0.4613  0.2237
17260W        W18124   0.840  21.205   8.373 -0.1363 -0.2189  0.0972
17261W        W18125   2.407  19.288   9.172  0.0068 -0.1908 -0.0516
17262W        W18126  28.828  15.576  11.270 -0.2025  0.1389  0.0121
17263W        W18127   1.175  21.787   6.938  0.3065  0.4359 -0.2631
17264W        W18128   4.609  18.609   9.242  0.3061 -0.0927 -0.0599
17265W        W18129   2.733  20.564   7.738 -0.1174 -0.2265  0.0397
17266W        W18130   2.160  21.300   9.860  0.1716  0.0545  0.0663
17267W        W18131   2.282  22.218  11.042  0.0910 -0.1391  0.0905
17268W        W18132   1.917  19.118   8.323 -0.4206  0.1209 -0.1351
17269W        W18133   0.361  21.365   9.983  0.0850  0.2322  0.3733
17270W        W18134  27.245  22.164  12.597  0.1590  0.0641 -0.1235
17271W        W18135  28.465  21.557   9.428 -0.0250  0.4945 -0.2276
17272W        W18136   5.143  21.318   9.796 -0.0386  0.0789  0.0588
17273W        W18137   1.937  22.020   7.309  0.1390 -0.3028 -0.0892
17274W        W18138   3.109  17.072   9.588 -0.0280 -0.4074  0.3108
17275W        W18139   0.262  21.181   8.082  0.3483 -0.2246 -0.0459
17276W        W18140   3.385  19.060   9.943  0.1226 -0.2828  0.3450
17277W        W18141   1.552  18.657   9.844 -0.0172 -0.0862 -0.0068
17278W        W18142   1.099  20.267   8.047 -0.0092  0.1074  0.1210
17279W        W18143   2.059  22.035   9.342 -0.0668 -0.0847  0.0990
17280W        W18144   4.460  17.462  10.567 -0.1417  0.1484  0.1794
17281W        W18145   0.812  19.278  12.259  0.1610  0.0123  0.7026
17282W        W18146  26.054  18.335   8.484 -0.0099 -0.2590 -0.0109
17283W        W18147   1.712  22.401   6.557  0.0067 -0.1694 -0.0889
17284W        W18148   1.294  21.835  10.944 -0.0644  0.2627 -0.1298
17285W        W18149   1.846  20.435  11.286  0.0539 -0.1405  0.0949
17286W        W18150   2.570  22.817   8.099  0.2988 -0.4828  0.1396
17287W        W18151   1.223  17.171   8.367  0.2927  0.2069  0.0594
17288W        W18152  27.601  22.400  13.395 -0.0179 -0.1002 -0.1842
17289W        W18153   3.294  20.170   9.066  0.0257  0.3015 -0.1390
17290W        W18154   5.255  18.756   9.475 -0.2203 -0.3317  0.0339
17291W        W18155   1.304  21.094   7.725 -0.2409 -0.0103  0.1325
17292W        W18156   0.119  19.766  12.296  0.1192  0.0196  0.0170
17293W        W18157   6.502  18.000   8.255 -0.1899  0.0032 -0.1197
17294W        W18158   4.408  19.443   9.978  0.0732 -0.1124  0.0399
17295W        W18159   2.188  19.548   8.408 -0.0197 -0.2110 -0.1848
17296W        W18160   2.982  18.527   7.367  0.0313 -0.1857 -0.0412
17297W        W18161   4.252  22.852  12.350 -0.1265 -0.2545 -0.0904
17298W        W18162  28.887  19.877   7.349 -0.0606 -0.2864 -0.2107
17299W        W18163   0.758  22.033   8.999  0.2668  0.2608  0.0849
17300W        W18164  28.935  20.294   7.572  0.0508  0.1010 -0.0686
17301W        W18165   0.037  21.586   7.956 -0.0686  0.1097  0.0348
17302W        W18166   2.794  22.591  11.702  0.1264 -0.2236  0.1081
17303W        W18167   4.866  19.074   9.257 -0.0923 -0.0583  0.1610
17304W        W18168  28.095  20.052  11.098 -0.0727  0.0437 -0.1641
17305W        W18169  28.701  19.802   6.337  0.1266 -0.0348 -0.0165
17306W        W18170   0.017  18.324  10.896  0.1927  0.0992 -0.0850
17307W        W18171   0.736  19.682  14.549 -0.2031  0.1266 -0.3939
17308W        W18172   2.362  21.007   7.540  0.0688  0.4442 -0.3445
17309W        W18173   2.528  20.802   6.569  0.0133 -0.2217  0.1857
17310W        W18174   1.417  20.796   9.047  0.2066  0.1320 -0.1651
17311W        W18175  29.104  21.524   8.486 -0.1667 -0.1644  0.2444
17312W        W18176   3.006  20.026   7.611 -0.0418  0.0987  0.1686
17313W        W18177   1.983  21.003   7.875  0.0535 -0.1851  0.1319
17314W        W18178   0.701  22.484   9.565 -0.1205  0.0144 -0.2156
17315W        W18179   2.953  17.581   8.307  0.1194 -0.1416 -0.1344
17316W        W18180  28.222  21.799   9.957  0.0372  0.2281  0.1009
17317W        W18181   4.117  19.458   7.582 -0.0128 -0.0025 -0.0406
17318W        W18182   4.502  19.357  10.665  0.1152  0.3508  0.1726
17319W        W18183   1.117  21.310  10.977  0.1196  0.1923 -0.0536
17320W        W18184   0.768  20.916  12.909  0.3070 -0.0403 -0.0426
17321W        W18185   2.221  18.371   7.805  0.0293  0.0364  0.0332
17322W        W18186   0.579  19.287   5.937 -0.0511 -0.0500  0.3529
17323W        W18187   1.087  20.708   8.491  0.0956  0.0615  0.1049
17324W        W18188  27.756  18.521   9.132  0.2821  0.1126 -0.1482
17325W        W18189   0.903  21.010   9.246 -0.0739 -0.1307 -0.1296
17326W        W18190   5.353  23.675   8.256  0.0604 -0.0748  0.1863
17327W        W18191   0.527  20.708  11.605 -0.0059  0.0389  0.3012
17328W        W18192   2.466  21.410  10.683  0.1133  0.4114 -0.0765
17329W        W18193  28.309  22.903   9.626 -0.1394 -0.1659  0.0437
17330W        W18194  27.794  22.664   8.333 -0.3188  0.0594 -0.1239
17331W        W18195   2.167  18.717   8.947  0.1336 -0.1178  0.0167
17332W        W18196   0.499  21.651   6.268  0.0679  0.0547 -0.1321
17333W        W18197   1.868  21.880   6.790 -0.2379  0.0163  0.1411
17334W        W18198  28.856  20.274   5.547 -0.4895  0.2014  0.0208
17335W        W18199   2.344  19.028  12.739  0.1865 -0.0843 -0.1084
17336W        W18200   4.117  16.368   5.128  0.0265 -0.0807 -0.1186
17337W        W18201   2.371  18.994  10.378 -0.1486  0.7567 -0.3537
17338W        W18202   0.632  23.521  11.114  0.0274 -0.0538 -0.0322
17339W        W18203   0.677  18.617  10.767  0.0589 -0.2313 -0.1852
17340W        W18204   1.551  18.981  11.012 -0.2255  0.0429  0.0201
17341W        W18205   0.629  20.891  10.604 -0.0100 -0.0040  0.1957
17342W        W18206   2.061  20.197   8.616 -0.0158 -0.2970  0.0093
17343W        W18207   2.717  19.851   7.966  0.0761  0.1997 -0.0583
17344W        W18208  28.772  19.266  10.588  0.1451  0.0502  0.1616
17345W        W18209   0.939  19.756   8.417 -0.0932 -0.2244  0.1794
17346W        W18210   1.305  21.330  10.125  0.0970 -0.0682 -0.1923
17347W        W18211   1.202  18.145   9.749 -0.2314 -0.1006 -0.1377
17348W        W18212  28.893  21.102   8.654  0.1190 -0.0355  0.3021
17349W        W18213   0.237  21.698  10.683  0.0484 -0.1398  0.0094
17350W        W18214   2.097  20.125  12.767 -0.1433  0.2082  0.2733
17351W        W18215   0.845  21.498   9.994 -0.2091 -0.0069  0.1235
17352W        W18216   0.511  19.200  10.076  0.2904  0.0266  0.1482
17353W        W18217  28.950  19.398   8.946  0.3242 -0.1623 -0.0343
17354W        W18218   1.920  17.164   7.666 -0.0172 -0.1383 -0.2255
17355W        W18219   2.424  19.656  11.947 -0.2440  0.0242  0.0828
17356W        W18220  28.912  18.119   6.367 -0.1390 -0.0752  0.1565
17357W        W18221   2.159  19.953   7.703 -0.2513  0.2998  0.1535
17358W        W18222   1.966  20.827   9.850  0.2690  0.1404  0.1263
17359W        W18223   0.123  23.469   8.930 -0.2855  0.0936 -0.4045
17360W        W18224   3.857  19.523   7.991  0.0274  0.3020 -0.0430
17361W        W18225  27.943  20.805   7.645 -0.0063  0.0604 -0.2096
17362W        W18226   4.475  16.958  11.610  0.0283 -0.0056 -0.2330
17363W        W18227   2.196  21.592  11.110 -0.2298 -0.0218 -0.0221
17364W        W18228   1.994  17.746   5.841 -0.1741 -0.1191  0.1759
17365W        W18229   1.628  20.324   8.372  0.5009 -0.0819  0.0124
17366W        W18230   2.473  19.093   9.752 -0.0493 -0.1590  0.2740
17367W        W18231   1.511  22.849   6.260  0.0546 -0.0361  0.0470
17368W        W18232   1.544  18.064   7.145 -0.0719 -0.0460 -0.0950
17369W        W18233   2.283  21.757   8.938  0.0718  0.0516 -0.3574
17370W        W18234   1.434  21.824  10.087 -0.0551 -0.4065 -0.1557
17371W        W18235   3.475  22.068  11.500 -0.1303 -0.0084 -0.0879
17372W        W18236   1.773  19.947   7.358  0.1109  0.4821  0.1925
17373W        W18237   2.933  20.508   6.147 -0.0314  0.1082 -0.0092
17374W        W18238   4.668  16.916   6.872 -0.0751  0.1199 -0.1315
17375W        W18239   2.518  21.885   6.680 -0.1290  0.1424 -0.1094
17376W        W18240   2.820  19.045  10.581 -0.1163 -0.3208 -0.0269
17377W        W18241  28.960  22.142   9.414  0.0886  0.1093  0.2503
17378W        W18242   3.172  20.036  10.959 -0.1814  0.1115 -0.0543
17379W        W18243   2.028  19.506   7.441  0.0965  0.0253 -0.2722
17380W        W18244   0.583  17.925  12.801  0.1035  0.1019  0.0111
17381W        W18245   1.066  20.794   6.702  0.0112  0.2212  0.0260
17382W        W18246   5.722  22.807  13.217  0.1266  0.1493 -0.0705
17383W        W18247  28.667  17.314  11.447  0.1206 -0.0767  0.0433
17384W        W18248  27.989  19.703  10.659  0.1742 -0.0554  0.0751
17385W        W18249   1.269  21.686  13.067  0.2552  0.2402 -0.0243
17386W        W18250  27.212  18.579   7.775 -0.4154  0.0937  0.1976
17387W        W18251  27.461  20.669  11.244  0.0568 -0.1329 -0.0169
17388W        W18252   3.726  20.912   8.275  0.3939  0.1581  0.2970
17389W        W18253   1.373  22.119  12.033  0.0657 -0.0842 -0.0495
17390W        W18254   2.142  18.063   9.763  0.2609 -0.1598  0.0815
17391W        W18255   3.543  20.662   8.982  0.1930  0.3221 -0.1535
17392W        W18256   1.557  20.808   9.532 -0.2199  0.1596  0.1909
17393W        W18257   1.087  19.338   9.944  0.2429  0.1228  0.0077
17394W        W18258   3.305  19.635  11.247 -0.0331  0.0636 -0.1033
17395W        W18259  29.066  21.109   9.967  0.0594  0.0933  0.0646
17396W        W18260   0.264  23.209  10.207 -0.3205 -0.1774 -0.2686
17397W        W18261   5.722  17.356   8.385  0.1405  0.0143 -0.0300
17398W        W18262   1.774  21.926  12.981  0.0533  0.2486 -0.0167
17399W        W18263  28.116  20.340  10.385  0.1573 -0.0372 -0.1205
17400W        W18264   1.343  21.693   7.916 -0.0618 -0.1359 -0.0492
17401W        W18265   0.117  22.055  11.009  0.0536 -0.2209  0.2840
17402W        W18266   2.650  23.906  10.491  0.0508  0.0119  0.1512
17403W        W18267   0.652  22.260   7.573  0.1646 -0.0710 -0.1126
17404W        W18268   1.768  17.403   6.231  0.1416 -0.2432  0.0606
17405W        W18269  26.713  22.406  13.784  0.1224  0.2364  0.2773
17406W        W18270   1.355  18.462  14.927  0.0767  0.1551 -0.1449
17407W        W18271   1.851  18.785  11.391 -0.1430  0.0327  0.2454
17408W        W18272   3.156  24.270  15.387  0.0858 -0.1858  0.2039
17409W        W18273   2.327  21.043  12.455  0.2346 -0.0470  0.0530
17410W        W18274   0.906  18.232  13.160  0.1089 -0.0484 -0.4120
17411W        W18275  27.438  18.222  12.349 -0.0787  0.0703 -0.1789
17412W        W18276   3.757  22.849  11.649  0.0190 -0.0691 -0.0621
17413W        W18277   2.629  22.115  14.139 -0.1838 -0.1766 -0.0599
17414W        W18278   0.601  18.504  12.729  0.1251  0.0216 -0.0982
17415W        W18279   0.218  16.257  13.054 -0.1158  0.2535 -0.1323
17416W        W18280   1.341  18.288  12.909  0.2586 -0.0144 -0.1813
17417W        W18281   2.392  22.215  10.019  0.2970  0.3114 -0.0214
17418W        W18282   3.466  19.757  10.667  0.1315 -0.0381 -0.1609
17419W        W18283  26.681  20.356  13.489 -0.2055  0.1130  0.0289
17420W        W18284  28.576  21.122  14.503  0.0016 -0.5051  0.4412
17421W        W18285   1.915  19.661  10.049 -0.1543  0.0230  0.1267
17422W        W18286  28.459  19.468  11.903 -0.2038  0.0384  0.2328
17423W        W18287  29.026  21.177  16.853 -0.2939 -0.1486  0.3129
17424W        W18288   3.351  18.252  13.990 -0.3413 -0.0762 -0.1014
17425W        W18289   2.227  18.669  12.347  0.1409  0.0294 -0.0669
17426W        W18290   1.377  19.109  12.396  0.0341 -0.0079  0.0117
17427W        W18291   1.556  19.920  12.951 -0.2125 -0.0752 -0.0296
17428W        W18292   0.827  19.219  14.265  0.0508  0.0218  0.2567
17429W        W18293   1.493  21.629  11.992  0.2800 -0.2541 -0.0997
17430W        W18294   2.219  18.274  15.522  0.0168 -0.1087  0.0295
17431W        W18295   3.554  20.151  11.930 -0.2039  0.1558  0.1192
17432W        W18296   0.134  20.781  13.689  0.4334 -0.0825 -0.0275
17433W        W18297   2.579  19.859  15.757 -0.2972  0.0727  0.0059
17434W        W18298   2.359  20.569  10.035 -0.1003  0.2585 -0.1049
17435W        W18299   0.432  18.280  14.849 -0.1032 -0.0752 -0.0805
17436W        W18300   2.608  21.196  14.402  0.1297 -0.1672 -0.1194
17437W        W18301  28.896  18.967  14.909 -0.0784  0.1242  0.1422
17438W        W18302  28.893  19.428  12.274  0.1053  0.1463 -0.0502
17439W        W18303   2.915  18.969  15.410  0.2111 -0.2018  0.1810
17440W        W18304   4.461  20.873  15.114 -0.2008  0.3631 -0.1313
17441W        W18305  28.946  18.519  11.686  0.1547  0.0599 -0.0280
17442W        W18306   2.227  21.397  12.848 -0.1061 -0.0052  0.3049
17443W        W18307   2.852  19.139  12.751 -0.1289 -0.0399  0.2689
17444W        W18308   3.642  21.182  11.868  0.1325  0.0456  0.0093
17445W        W18309   3.562  18.580  12.290  0.2530  0.1015 -0.0807
17446W        W18310   4.120  19.743  12.932  0.5075  0.0731  0.2526
17447W        W18311  27.326  22.072  13.071  0.1118 -0.1335 -0.2049
17448W        W18312   3.116  20.413  11.235  0.0863  0.3451  0.1788
17449W        W18313  27.466  23.336  11.473 -0.1471  0.0246 -0.0946
17450W        W18314   1.420  19.993  12.027  0.0268 -0.3017  0.0550
17451W        W18315   0.428  17.724  13.619  0.2225 -0.0636  0.2918
17452W        W18316   3.267  19.061  17.177 -0.0822  0.0025  0.0439
17453W        W18317   1.519  21.286  11.536 -0.2577 -0.3949  0.0565
17454W        W18318   2.472  18.720  13.681  0.0284  0.1030 -0.0683
17455W        W18319   0.235  19.835  12.826  0.2396  0.0685 -0.1548
17456W        W18320   0.454  21.634   8.656  0.0630  0.1462  0.0365
17457W        W18321   4.850  23.094  13.539 -0.0619 -0.2723  0.0998
17458W        W18322   2.266  20.029  11.476  0.0248  0.1281  0.1132
17459W        W18323   1.633  19.700  12.516  0.3051  0.0215  0.0356
17460W        W18324   1.743  21.703   8.969 -0.0602 -0.1681  0.1256
17461W        W18325   0.413  18.260  13.112  0.3596  0.1391 -0.0418
17462W        W18326   1.453  18.020  11.819 -0.1104  0.1136  0.1349
17463W        W18327  28.366  23.599  11.676  0.0282  0.1937 -0.1792
17464W        W18328   1.107  21.143   6.291 -0.0360 -0.0400 -0.1824
17465W        W18329   0.615  19.781  12.472 -0.2875 -0.1472 -0.0873
17466W        W18330  28.074  21.072  12.321  0.0960  0.1106  0.1837
17467W        W18331   0.518  18.524  14.379  0.0270  0.0817  0.0580
17468W        W18332   1.979  20.759  12.718  0.0503  0.0424 -0.3108
17469W        W18333   1.641  17.589  12.057 -0.1436  0.0045 -0.2984
17470W        W18334   5.064  20.169  13.942  0.0372 -0.2588  0.2896
17471W        W18335   0.241  18.211  11.367 -0.0054 -0.1312 -0.3838
17472W        W18336   0.837  17.822  11.113 -0.1836  0.0086 -0.1415
17473W        W18337  28.385  20.969  11.445  0.0528  0.1674 -0.2440
17474W        W18338   2.667  19.060   8.127 -0.2172 -0.1696 -0.0218
17475W        W18339   4.082  21.141  13.477 -0.1989  0.1475 -0.0952
17476W        W18340   1.432  18.718  10.629 -0.1449 -0.1087  0.2232
17477W        W18341   5.737  21.380  13.096  0.0297  0.0784 -0.0057
17478W        W18342   1.983  18.019  14.705 -0.2044  0.0613 -0.0288
17479W        W18343   0.889  20.063  13.703  0.1930 -0.1009  0.0366
17480W        W18344   1.994  21.971  10.206  0.1134  0.1602 -0.0727
17481W        W18345  28.126  20.124  13.374 -0.3716 -0.0676  0.0301
17482W        W18346   1.052  17.975  14.694 -0.0689  0.1604 -0.0397
17483W        W18347   1.937  20.824  12.129 -0.0870  0.0395  0.1510
17484W        W18348   1.167  21.034   9.785 -0.3591  0.0085 -0.1095
17485W        W18349  29.000  17.411  11.025 -0.1376  0.3014  0.0776
17486W        W18350   2.900  19.498  15.562 -0.0827  0.0300  0.1737
17487W        W18351  27.567  18.783  12.980 -0.4155  0.0605 -0.1207
17488W        W18352   2.841  18.088  11.992  0.0446 -0.2081 -0.3843
17489W        W18353   2.645  16.975  14.812  0.1640  0.2621 -0.2765
17490W        W18354  28.382  18.418  11.005 -0.0471 -0.2917 -0.0715
17491W        W18355   0.719  25.282  13.276 -0.2094 -0.0144  0.1650
17492W        W18356   3.960  17.527  15.109 -0.0859 -0.1410 -0.1084
17493W        W18357   3.050  20.263  14.749  0.2095 -0.0972 -0.0261
17494W        W18358   1.429  19.028  13.908  0.0445  0.1588 -0.1903
17495W        W18359  28.810  19.744  11.506  0.1108  0.2482 -0.0870
17496W        W18360   3.571  19.430  17.015 -0.1355 -0.0143 -0.1486
17497W        W18361   0.355  21.951  12.896 -0.0742  0.2176  0.1418
17498W        W18362   1.086  18.240  12.079  0.0371 -0.1214  0.2342
17499W        W18363   1.184  15.359  13.566 -0.1176 -0.1043 -0.0512
17500W        W18364   2.553  16.744  12.440  0.0673 -0.1959  0.1815
17501W        W18365   5.525  19.084  11.643  0.0306  0.0787  0.0258
17502W        W18366   3.031  25.036  15.818  0.1752 -0.0829 -0.2085
17503W        W18367  28.943  16.612   9.441  0.0464  0.0468 -0.3528
17504W        W18368   5.375  17.890  11.632 -0.1095 -0.1054  0.0360
17505W        W18369   2.975  18.895  13.452  0.0568 -0.2521 -0.1238
17506W        W18370   0.032  19.378  11.823 -0.0202 -0.2582  0.3576
17507W        W18371   0.596  20.050   9.535 -0.3264 -0.3299  0.0242
17508W        W18372   2.931  22.403  12.195  0.3551 -0.0841 -0.1603
17509W        W18373   4.318  15.948  14.280  0.0608  0.0919 -0.2632
17510W        W18374   0.511  19.185  14.645 -0.1620  0.1837 -0.0696
17511W        W18375   2.925  18.664  11.124 -0.0876 -0.1519 -0.1787
17512W        W18376   1.026  22.260  14.849 -0.3033  0.1618 -0.2452
17513W        W18377   3.096  17.106  11.563 -0.0475 -0.2074 -0.2103
17514W        W18378  28.010  20.764  14.088 -0.0401  0.0322 -0.3069
17515W        W18379  27.937  19.075  13.132 -0.0586  0.1219  0.1571
17516W        W18380   0.917  21.137  13.847 -0.1625  0.1323 -0.0825
17517W        W18381   2.814  19.674  13.988 -0.2129  0.0163 -0.2736
17518W        W18382   2.426  20.790  14.083  0.2291  0.2619  0.4621
17519W        W18383   1.471  18.867   7.512  0.0747  0.0034  0.0665
17520W        W18384   1.939  20.661   8.783 -0.1743  0.0142  0.0387
17521W        W18385   2.172  17.056  13.736 -0.1591  0.2838 -0.2893
17522W        W18386   3.081  20.350  12.726 -0.1935 -0.0408 -0.2015
17523W        W18387   1.708  17.724  11.339 -0.3706 -0.1279  0.0505
17524W        W18388  26.995  20.930  11.520 -0.2219 -0.1224 -0.0985
17525W        W18389   4.123  21.021  10.982 -0.1680 -0.1701 -0.0503
17526W        W18390   2.592  22.023  11.890  0.0099  0.0384  0.0078
17527W        W18391   3.185  21.040  13.432  0.0422  0.0339  0.2526
17528W        W18392   0.849  20.417  11.966 -0.0199  0.4108 -0.0721
17529W        W18393   3.093  21.745  12.771  0.0772 -0.4953  0.1479
17530W        W18394   0.008  23.099  12.106 -0.0274  0.4264 -0.3424
17531W        W18395   0.193  18.028  15.822 -0.1077  0.2891  0.0802
17532W        W18396   2.746  21.962  12.445  0.0603  0.2840 -0.1986
17533W        W18397   2.598  17.815  14.150  0.0379 -0.0579 -0.2951
17534W        W18398   1.740  18.535  13.174  0.2305 -0.2106 -0.2053
17535W        W18399   0.594  18.216  12.301 -0.0377  0.1279 -0.3862
17536W        W18400   1.903  19.144  14.218 -0.0653  0.0712 -0.1061
17537W        W18401   0.843  22.435  13.375 -0.2389 -0.1258  0.1878
17538W        W18402   3.179  21.414   9.728 -0.1533  0.0750 -0.4099
17539W        W18403   4.498  17.564  12.753  0.1693  0.2022 -0.1331
17540W        W18404  28.998  17.377  14.498  0.0724  0.0109  0.1387
17541W        W18405   2.309  16.913  14.464 -0.1433  0.2735  0.0469
17542W        W18406   5.399  18.376  11.534 -0.1223  0.1387  0.1566
17543W        W18407   1.761  19.491  12.006  0.1734 -0.3005  0.0022
17544W        W18408   1.281  20.620  12.202 -0.0201 -0.3216 -0.2645
17545W        W18409  28.602  19.254   9.642  0.2135  0.5620 -0.1470
17546W        W18410   1.927  19.133  14.730  0.1245 -0.2355  0.0202
17547W        W18411   0.528  21.766   8.120  0.0651  0.2687 -0.0335
17548W        W18412   2.209  19.126  12.204  0.2356  0.2735 -0.0049
17549W        W18413   2.883  21.107  13.038 -0.1827 -0.4428 -0.1365
17550W        W18414  28.355  23.712  12.857 -0.0259 -0.1663 -0.0138
17551W        W18415   3.652  19.013  14.218  0.0706 -0.2216 -0.3087
17552W        W18416   1.779  21.254  12.383 -0.0391 -0.0302 -0.0283
17553W        W18417   1.685  25.291  13.526 -0.0210  0.2510 -0.0617
17554W        W18418   2.594  19.256  13.666 -0.2117  0.2790  0.2498
17555W        W18419   3.098  20.085  14.254 -0.1514 -0.1939  0.0101
17556W        W18420   2.929  19.315  11.305  0.1576 -0.1094 -0.1032
17557W        W18421   0.779  19.680  11.448 -0.2494  0.1853 -0.0443
17558W        W18422   0.164  20.287   9.451 -0.1586 -0.0744  0.2875
17559W        W18423   1.722  20.393  13.903 -0.0015  0.1034 -0.0973
17560W        W18424   1.021  19.353  12.687  0.2109 -0.0553  0.2104
17561W        W18425   1.471  19.367  12.919 -0.0271 -0.2460 -0.0145
17562W        W18426   0.658  20.296  12.888 -0.1741  0.0226  0.2507
17563W        W18427   0.451  21.053   9.132 -0.2723 -0.0723 -0.0858
17564W        W18428   0.904  20.157  12.455 -0.1526  0.4183 -0.0796
17565W        W18429   2.862  18.957  14.547 -0.1062  0.0185  0.2429
17566W        W18430   2.035  21.763  10.645  0.1097 -0.2246 -0.1477
17567W        W18431   3.521  21.075  16.737  0.0703 -0.0784  0.1129
17568W        W18432   3.060  20.055  11.980  0.2937 -0.0582 -0.2925
17569W        W18433   1.647  14.800  15.319  0.1260 -0.0246 -0.1617
17570W        W18434   0.968  19.366  11.805  0.0873  0.1237 -0.2392
17571W        W18435  27.406  17.035  10.760  0.0610  0.3275 -0.1914
17572W        W18436   1.729  23.865  13.181 -0.1016  0.2248 -0.3421
17573W        W18437   2.113  19.990  13.323  0.2074 -0.0249 -0.3004
17574W        W18438   1.044  20.472   8.923 -0.1962 -0.0567  0.1017
17575W        W18439   1.636  20.198  13.338 -0.1992 -0.0811  0.4109
17576W        W18440   0.100  18.731  13.439 -0.2063  0.1304  0.0304
17577W        W18441   0.910  20.446  10.612  0.2242 -0.2477 -0.2123
17578W        W18442   1.665  20.246   8.882  0.2821 -0.0861 -0.0561
17579W        W18443   2.467  20.896  10.781  0.2166 -0.1553 -0.2612
17580W        W18444   3.600  17.257  13.441 -0.0643  0.0162  0.0910
17581W        W18445   1.976  17.784  12.481 -0.1050  0.0836 -0.0077
17582W        W18446   0.564  21.868  10.998  0.2101  0.1495 -0.1793
17583W        W18447   0.503  21.880  10.281  0.1329  0.1843  0.0911
17584W        W18448   1.013  17.750  12.775 -0.2619 -0.2065  0.1207
17585W        W18449  28.053  21.223  13.922  0.0684  0.0910 -0.0952
17586W        W18450   4.955  23.375  12.120  0.0566  0.2128  0.0830
17587W        W18451  28.525  21.980  12.272 -0.1929  0.0610  0.2386
17588W        W18452   1.955  21.187  11.229  0.2958 -0.1770  0.2231
17589W        W18453   3.328  18.875  11.437  0.1406 -0.1909 -0.1119
17590W        W18454   0.477  22.573  16.342 -0.0484  0.0706 -0.1463
17591W        W18455   1.425  16.912   9.820  0.0520  0.0517  0.1857
17592W        W18456  27.428  19.573   9.608  0.0359  0.2373  0.0160
17593W        W18457   2.193  20.422  13.156 -0.1072 -0.0052 -0.0201
17594W        W18458  28.643  18.968  12.248  0.0382  0.1414 -0.0242
17595W        W18459   1.483  22.627  10.626  0.0228  0.0985 -0.0988
17596W        W18460   0.091  21.570  13.535  0.0913  0.0954  0.0003
17597W        W18461   1.444  20.256  14.483 -0.0590 -0.1411  0.0907
17598W        W18462   1.030  18.191  12.594 -0.2780 -0.0726  0.5072
17599W        W18463   0.784  17.905  13.939  0.2448  0.1440 -0.0210
17600W        W18464   2.138  15.981  12.861 -0.1033 -0.1872 -0.1327
17601W        W18465   0.557  19.453  12.868 -0.1455  0.2803 -0.0534
17602W        W18466  27.620  19.058  15.545  0.2829  0.0606 -0.0440
17603W        W18467   0.921  19.885  12.002  0.1582 -0.1052 -0.1162
17604W        W18468   4.463  17.502  13.252  0.1100 -0.1210 -0.0707
17605W        W18469   0.843  18.920  11.605 -0.0894  0.0062 -0.1395
17606W        W18470   2.266  18.820  14.562  0.1596  0.0045 -0.1128
17607W        W18471   0.186  20.476  12.700 -0.4915  0.0727 -0.1116
17608W        W18472  29.030  18.338  13.031  0.2511 -0.0764  0.0297
17609W        W18473   2.404  18.760  15.595 -0.2241 -0.2576 -0.2186
17610W        W18474  27.886  18.264  10.737  0.0323  0.0121 -0.0168
17611W        W18475  28.874  18.205  16.349 -0.1086 -0.1230  0.0102
17612W        W18476   4.385  17.249  12.365 -0.0918 -0.3174  0.0872
17613W        W18477   2.598  23.290  11.200 -0.0389  0.1234  0.1700
17614W        W18478   0.632  20.003  10.626  0.2434 -0.0105  0.1817
17615W        W18479  28.788  17.457  12.527  0.2619 -0.2499  0.1875
17616W        W18480   1.127  17.434  13.400 -0.2730  0.0638  0.3102
17617W        W18481   0.555  21.054  15.592  0.1896  0.0394  0.2803
17618W        W18482   1.366  19.167  15.444 -0.1191  0.0857 -0.0424
17619W        W18483   5.622  20.508  13.041  0.2174 -0.1054 -0.2870
17620W        W18484   1.878  21.710  11.617  0.1539 -0.1808  0.0291
17621W        W18485   2.751  21.307  11.647 -0.1159 -0.3192 -0.1168
17622W        W18486   3.214  21.362  12.023 -0.2466 -0.0821 -0.4106
17623W        W18487  28.311  20.602  13.710  0.2282 -0.0088  0.3232
17624W        W18488  28.724  20.822  14.099  0.0579  0.1246  0.1110
17625W        W18489   3.143  17.380  12.731  0.3005  0.0392 -0.0724
17626W        W18490   4.538  20.118  11.740  0.0918 -0.0437  0.4523
17627W        W18491   0.877  21.860  16.673  0.1556 -0.0239 -0.2547
17628W        W18492   1.438  16.767  12.373 -0.0212 -0.1750 -0.1546
17629W        W18493   2.273  20.730  11.385  0.2452 -0.4112  0.0192
17630W        W18494   2.244  18.584  13.087 -0.3740 -0.3275  0.0216
17631W        W18495   0.657  20.667  13.812  0.0046 -0.0602 -0.1228
17632W        W18496   1.647  21.133  14.290 -0.1060 -0.0773 -0.0250
17633W        W18497   2.459  19.023  14.975 -0.1513 -0.2631 -0.0482
17634W        W18498   3.097  21.411  14.653 -0.1563  0.0244 -0.0393
17635W        W18499   0.065  17.199  11.394  0.2787  0.0039 -0.0844
17636W        W18500   0.732  19.565  16.146 -0.2659  0.0061  0.0638
17637W        W18501   1.392  21.838  11.487  0.1260 -0.1906 -0.1207
17638W        W18502   0.884  20.432  15.194  0.0603  0.2242  0.0022
17639W        W18503  29.052  20.343  16.530  0.1846 -0.0731 -0.0879
17640W        W18504   1.061  22.378  12.373 -0.2418  0.1140  0.4953
17641W        W18505   3.725  19.810  11.519  0.1970 -0.1074 -0.2517
17642W        W18506   2.810  18.399  14.660 -0.5447 -0.2254 -0.2201
17643W        W18507   1.483  20.848  13.068  0.0620  0.0669  0.0809
17644W        W18508   3.488  22.137  12.893  0.0267  0.1848  0.1112
17645W        W18509   1.342  19.621  11.684 -0.1420 -0.3111 -0.0731
17646W        W18510  29.116  19.176  14.531 -0.0590 -0.1285 -0.1655
17647W        W18511   1.288  17.153  12.883  0.0530  0.0273 -0.0821
17648W        W18512  28.632  16.675  13.823 -0.3088  0.1251 -0.0707
17649W        W18513   1.374  18.050  11.293 -0.1711 -0.2880 -0.0185
17650W        W18514   0.159  22.018   8.380 -0.1283 -0.3352  0.1530
17651W        W18515   3.581  20.789  12.628 -0.0924 -0.0450  0.0270
17652W        W18516  28.286  20.584  16.645 -0.2195  0.0481 -0.2695
17653W        W18517   2.282  20.312   9.040  0.0461 -0.0757 -0.0200
17654W        W18518   2.817  19.801  14.548 -0.2147 -0.0605  0.0716
17655W        W18519  28.710  19.864  14.042  0.3811  0.1704 -0.0181
17656W        W18520   2.847  23.660  11.501  0.0263 -0.1696  0.1553
17657W        W18521   3.483  23.337  12.820  0.0333  0.0985 -0.0118
17658W        W18522   1.862  18.018  13.143  0.1072  0.0126 -0.3112
17659W        W18523  27.804  19.389  13.615 -0.0706  0.5383  0.0189
17660W        W18524   4.080  21.343  12.642  0.0710 -0.1250  0.3146
17661W        W18525   3.884  17.024  12.274  0.3836 -0.3644 -0.0118
17662W        W18526   1.204  18.729  15.605  0.5644  0.0716 -0.1502
17663W        W18527   4.053  23.223  12.046 -0.0688 -0.0395 -0.1406
17664W        W18528   6.639  21.638  12.294 -0.3029 -0.1090  0.1162
17665W        W18529  27.886  16.986  10.568 -0.0973 -0.0326 -0.0811
17666W        W18530   3.640  19.662  15.102  0.0834  0.1500 -0.2840
17667W        W18531   1.831  21.293  13.720  0.2787  0.0396 -0.0456
17668W        W18532   0.072  19.326  12.948  0.4426  0.1167 -0.2318
17669W        W18533   1.122  18.618  13.798 -0.0494 -0.0016  0.0267
17670W        W18534  28.701  22.698  15.180 -0.1044  0.1084 -0.0728
17671W        W18535  27.183  20.007  12.302  0.0219 -0.1977  0.1167
17672W        W18536   1.356  20.416  11.061 -0.1536  0.2551  0.0476
17673W        W18537   1.414  18.322  14.469 -0.3427  0.1021  0.2114
17674W        W18538   4.294  19.768  10.843 -0.2077  0.2655 -0.0503
17675W        W18539   1.876  20.681  10.792 -0.2542 -0.1039  0.0839
17676W        W18540   0.967  19.292  14.799  0.0119  0.1627 -0.0021
17677W        W18541   1.233  19.544  12.168  0.2420  0.0165  0.2318
17678W        W18542   2.502  19.302  10.855  0.2527  0.0390  0.1025
17679W        W18543   2.519  21.886  10.805 -0.0650  0.0527  0.0355
17680W        W18544   1.323  19.037  11.890  0.0502  0.1767 -0.0149
17681W        W18545   2.446  17.973  13.047 -0.0682  0.0045 -0.1739
17682W        W18546   2.297  18.295  14.425  0.1573 -0.1889 -0.0569
17683W        W18547   1.056  19.620  14.062 -0.0934  0.2224 -0.0315
17684W        W18548   0.427  18.703  12.303 -0.0086 -0.1080  0.1900
17685W        W18549   0.688  18.442  11.843  0.0294  0.2104 -0.3148
17686W        W18550  28.999  21.189  12.031 -0.1047 -0.1481  0.2732
17687W        W18551   1.798  20.049  10.275 -0.1352  0.0509 -0.2950
17688W        W18552  27.920  21.382  13.107 -0.0384  0.0532 -0.2488
17689W        W18553   5.562  18.133   8.491  0.1102 -0.2405 -0.5967
17690W        W18554   5.926  21.654  13.508 -0.1186  0.1235  0.1224
17691W        W18555   3.166  21.175  11.385  0.1137 -0.3631  0.1416
17692W        W18556  28.575  20.215  13.514  0.1189  0.0729 -0.1333
17693W        W18557   2.665  15.754  12.949  0.4361  0.0088 -0.0376
17694W        W18558   0.925  19.866  12.839 -0.2806  0.0116  0.3281
17695W        W18559   1.838  22.217  13.440  0.1752 -0.2116 -0.1358
17696W        W18560   1.880  19.141  12.568 -0.2568 -0.1809  0.1336
17697W        W18561   3.087  21.269  16.115  0.0608  0.1354  0.0628
17698W        W18562  28.115  19.064  11.793  0.0106 -0.0363  0.3520
17699W        W18563   0.256  22.026  13.861  0.0303 -0.0260  0.1688
17700W        W18564   2.200  19.527  10.401 -0.0743  0.1811  0.1244
17701W        W18565  27.837  17.057  13.709  0.0566 -0.1035 -0.0993
17702W        W18566   2.179  19.565  16.216 -0.2716  0.0069  0.2819
17703W        W18567   3.917  17.760  13.282 -0.1614 -0.0408 -0.0848
17704W        W18568   0.220  23.476  11.403 -0.0931 -0.1403 -0.0205
17705W        W18569  27.397  22.375   9.991 -0.2897  0.0554  0.0082
17706W        W18570  28.457  18.901  13.983 -0.1106 -0.2248 -0.1666
17707W        W18571   1.422  20.858  13.831 -0.1407  0.4638 -0.1701
17708W        W18572   3.706  16.281  13.494 -0.0890 -0.0535 -0.1679
17709W        W18573   2.436  20.886   8.082 -0.1941  0.0949 -0.0670
17710W        W18574   2.494  23.392  11.670  0.1486  0.0600 -0.1895
17711W        W18575   1.704  19.705  13.429  0.1944  0.3254  0.0076
17712W        W18576   0.093  17.714  11.355 -0.0354  0.0010  0.0818
17713W        W18577   1.681  17.213  13.856  0.2910  0.2349 -0.1883
17714W        W18578   1.922  20.541  10.293  0.2515 -0.1715 -0.0308
17715W        W18579   0.754  17.832  10.596 -0.0047 -0.1810  0.0635
17716W        W18580   0.764  21.478  15.349  0.1918 -0.1654 -0.1224
17717W        W18581   2.607  18.207  13.633 -0.0317 -0.0578 -0.0911
17718W        W18582   0.766  22.013  13.723 -0.2801 -0.1073 -0.1791
17719W        W18583  27.155  19.547  13.151 -0.5017  0.0654 -0.0076
17720W        W18584   0.828  24.469  12.217 -0.0254 -0.2674 -0.2293
17721W        W18585   2.242  22.188  10.519 -0.0091  0.2050  0.1857
17722W        W18586   4.807  18.620  13.555 -0.3506  0.0291  0.0741
17723W        W18587   3.015  21.994  13.786 -0.0686  0.1808  0.0921
17724W        W18588   1.467  20.932  11.171  0.0711 -0.1152 -0.1556
17725W        W18589   0.568  23.131  15.059 -0.3109 -0.1857  0.0044
17726W        W18590   3.737  22.753  12.156 -0.1281 -0.3979 -0.3399
17727W        W18591  28.420  18.909  13.102 -0.2128 -0.3466 -0.2007
17728W        W18592   0.829  20.053  14.183  0.1457 -0.0659  0.1036
17729W        W18593   1.110  20.027   9.766  0.0381  0.1851  0.3489
17730W        W18594   1.078  20.576  12.639 -0.2232 -0.1083 -0.0865
17731W        W18595   0.996  19.227  13.211  0.2128  0.3478 -0.0619
17732W        W18596  27.860  20.789  11.553 -0.1075  0.0355 -0.1477
17733W        W18597   2.585  18.308  10.975  0.2398 -0.1562 -0.1736
17734W        W18598   1.247  19.695  14.674  0.1432 -0.0336 -0.0025
17735W        W18599   3.190  19.322  15.192 -0.2647  0.3399  0.2713
17736W        W18600   1.166  19.334   8.251  0.3418 -0.0044  0.0388
17737W        W18601   5.885  18.893  12.841  0.0794  0.1286  0.0941
17738W        W18602   4.774  21.597  13.029 -0.1971 -0.2150  0.0229
17739W        W18603   5.179  21.367  14.000 -0.2817  0.2136 -0.0546
17740W        W18604   2.530  22.812  12.286 -0.1054 -0.0453 -0.2630
17741W        W18605   0.009  23.752  15.585  0.3132 -0.0682 -0.2372
17742W        W18606   5.443  20.160  13.407  0.1958 -0.0868 -0.0126
17743W        W18607   2.645  19.571  15.171  0.0021 -0.3137  0.3382
17744W        W18608   1.981  18.198  12.197 -0.3486  0.1040  0.1230
17745W        W18609   0.456  19.610  11.902  0.0902  0.2742 -0.4327
17746W        W18610   3.945  18.872  10.756 -0.0861 -0.0561  0.0154
17747W        W18611   0.169  16.971  10.101  0.0394  0.0170  0.0209
17748W        W18612   2.233  22.200  11.539 -0.2098  0.0801  0.1472
17749W        W18613   3.004  21.339  10.255 -0.2832 -0.3313  0.0016
17750W        W18614  28.955  21.530  15.678  0.0483 -0.0159 -0.1503
17751W        W18615  28.956  20.276  11.613 -0.0978  0.1733  0.1030
17752W        W18616  28.949  18.483  12.212  0.2393  0.1449 -0.1667
17753W        W18617   1.110  17.921  13.581  0.1871 -0.0963 -0.2435
17754W        W18618  28.034  17.492  13.515 -0.3816  0.0515  0.1172
17755W        W18619   0.958  20.277  14.603  0.1383  0.0650  0.3030
17756W        W18620   0.197  18.324  11.909 -0.2723  0.4159  0.1580
17757W        W18621   2.776  20.418  12.298  0.2690 -0.2539 -0.1974
17758W        W18622   2.804  20.668  13.118  0.0909  0.4587 -0.0835
17759W        W18623   1.159  21.186  12.770  0.0147 -0.0302  0.0562
17760W        W18624   2.308  21.807   9.755  0.0543 -0.2439  0.0006
17761W        W18625   3.828  22.479  13.708  0.1556 -0.1515  0.1096
17762W        W18626   2.012  18.607  16.764 -0.0600 -0.1251  0.1845
17763W        W18627   0.053  18.234  14.465  0.1929  0.0636 -0.0060
17764W        W18628  27.515  20.789  14.259 -0.3403  0.0221 -0.2883
17765W        W18629   1.617  18.652  14.168 -0.0160 -0.0084  0.1415
17766W        W18630   3.606  19.832  12.901 -0.1091 -0.0488  0.2718
17767W        W18631   1.968  19.110  13.634  0.1477  0.0894 -0.3733
17768W        W18632   0.343  19.856  10.967  0.0212  0.0616  0.0235
17769W        W18633   0.805  21.884  13.198  0.3331  0.0195  0.0514
17770W        W18634   0.290  20.282  13.696  0.0089 -0.1960  0.0728
17771W        W18635   1.875  21.975  11.170 -0.0931 -0.0768 -0.0527
17772W        W18636   5.810  21.476  12.623 -0.1161  0.0036 -0.2453
17773W        W18637  27.906  15.719  11.292  0.4853  0.0347  0.0669
17774W        W18638   3.491  17.636  13.842 -0.3649 -0.0471 -0.2690
17775W        W18639   0.833  21.887  12.289 -0.0912  0.3244 -0.5217
17776W        W18640   2.677  19.231  11.843  0.0647 -0.1250 -0.0181
17777W        W18641   3.518  18.668  10.961 -0.1520 -0.0379 -0.2369
17778W        W18642   3.108  20.981  14.402  0.2649  0.0858 -0.5065
17779W        W18643   3.354  22.315  11.911  0.1944 -0.0398 -0.0793
17780W        W18644   1.603  17.619  14.519  0.2165  0.0737 -0.1618
17781W        W18645   2.833  17.687  12.270  0.0800 -0.2920 -0.0691
17782W        W18646   2.576  18.983  13.188  0.1943 -0.0615 -0.2856
17783W        W18647   1.502  18.394  15.915 -0.1380  0.1406 -0.1272
17784W        W18648   2.558  19.205  14.237  0.1223  0.1860 -0.1002
17785W        W18649   1.149  19.895  13.260  0.0338 -0.2541  0.2562
17786W        W18650   0.104  23.053  11.575  0.1628  0.1218 -0.2051
17787W        W18651  27.647  19.754  15.100  0.0118 -0.1262 -0.0798
17788W        W18652   0.616  18.910  15.021 -0.2147 -0.0370 -0.0076
17789W        W18653   0.126  21.911  14.870  0.1432 -0.1486 -0.1681
17790W        W18654   0.967  18.295  14.163 -0.0130  0.2172  0.0261
17791W        W18655   0.479  20.145  12.157 -0.1189  0.1697 -0.1263
17792W        W18656   0.787  22.320  11.937 -0.1377  0.1354 -0.0114
17793W        W18657   1.133  21.229  12.267  0.3674 -0.2658 -0.1889
17794W        W18658   3.948  20.867  12.254 -0.1134 -0.1271 -0.0176
17795W        W18659  28.205  22.072  16.057 -0.0997  0.0986  0.2716
17796W        W18660  29.021  19.676  13.235  0.0155  0.0294 -0.3174
17797W        W18661   1.046  21.350  11.741  0.0859 -0.0464 -0.4089
17798W        W18662   4.201  19.901  13.432  0.1143  0.1708  0.0242
17799W        W18663   3.131  21.685  11.563  0.0311  0.0283 -0.2114
17800W        W18664   3.118  20.473  16.750  0.1194  0.1094  0.4588
17801W        W18665   0.535  22.265  10.691  0.0215 -0.2998 -0.1197
17802W        W18666   0.504  20.993  15.116 -0.1761  0.0485  0.0669
17803W        W18667   1.692  23.898  12.159  0.4432  0.2144 -0.2931
17804W        W18668   0.674  18.986  12.843  0.1557  0.3558  0.1025
17805W        W18669  27.902  21.656  16.092 -0.3565 -0.0955  0.1563
17806W        W18670  29.054  21.158  19.469  0.1155 -0.0311  0.1751
17807W        W18671   0.942  19.982  15.004  0.0064 -0.1778 -0.0766
17808W        W18672   5.248  24.664  18.630 -0.1556  0.2103  0.2139
17809W        W18673  27.816  24.198  13.663 -0.0891 -0.1957 -0.3164
17810W        W18674   0.232  19.541  15.837 -0.0767 -0.1089  0.2322
17811W        W18675   1.292  20.509  16.724  0.0453  0.0654  0.0853
17812W        W18676   1.714  20.280  15.587 -0.0551  0.1379  0.2506
17813W        W18677  27.098  22.717  14.883 -0.1409 -0.1160 -0.1209
17814W        W18678  28.892  20.114  17.311 -0.0175 -0.0774  0.1755
17815W        W18679  27.168  16.118  20.223 -0.3626  0.2547  0.3943
17816W        W18680   2.558  19.978  16.259  0.2106 -0.1569  0.3314
17817W        W18681   2.655  21.747  14.449 -0.1473  0.1800  0.1334
17818W        W18682   1.529  19.885  17.184  0.0794 -0.0633  0.0410
17819W        W18683   0.192  19.879  16.446  0.1873  0.1051 -0.2464
17820W        W18684  28.678  21.169  15.393  0.4132 -0.0970 -0.0923
17821W        W18685  28.813  21.074  13.051 -0.1603  0.1342 -0.1375
17822W        W18686   1.629  19.637  15.376 -0.1012  0.1096  0.0426
17823W        W18687   1.338  21.660  18.873  0.3866  0.0678  0.1239
17824W        W18688   5.383  19.044  16.650  0.0321  0.0245 -0.1860
17825W        W18689   1.051  21.613  13.530  0.0211 -0.0221  0.2013
17826W        W18690   2.154  21.270  18.342  0.1378 -0.3380  0.0619
17827W        W18691   3.944  19.617  17.344 -0.1363  0.2156 -0.0103
17828W        W18692  28.502  20.944  16.241 -0.4549  0.2404 -0.0847
17829W        W18693  28.477  20.505  18.409  0.1198  0.2664  0.1539
17830W        W18694  27.696  20.526  17.513 -0.2547 -0.0660 -0.2745
17831W        W18695   3.854  23.092  17.509 -0.1894 -0.0210  0.0023
17832W        W18696  28.940  22.473  15.593  0.0559  0.2210 -0.0025
17833W        W18697   1.896  24.438  16.646 -0.1402 -0.0407 -0.1696
17834W        W18698   1.481  18.638  17.721 -0.0068 -0.0016 -0.2230
17835W        W18699   3.419  23.024  17.148 -0.0299 -0.0644  0.2281
17836W        W18700   3.586  21.513  18.476  0.0367  0.1498 -0.1057
17837W        W18701   4.791  17.856  17.416  0.4216 -0.2075 -0.0307
17838W        W18702   3.332  19.758  17.443 -0.0391  0.2918  0.0930
17839W        W18703   0.946  20.367  17.704 -0.2334 -0.0850  0.4345
17840W        W18704   4.226  20.846  15.835  0.1422 -0.1271 -0.2791
17841W        W18705  28.084  18.156  17.498 -0.4568 -0.1624  0.1722
17842W        W18706   2.203  21.993  17.399 -0.1201  0.2910  0.0552
17843W        W18707   3.706  23.732  16.486 -0.0099 -0.0584  0.2064
17844W        W18708   4.984  20.055  16.179 -0.0411 -0.1505  0.1894
17845W        W18709   4.717  19.785  12.622  0.2954 -0.1264 -0.2885
17846W        W18710   7.025  22.040  19.404 -0.1472 -0.0292  0.0117
17847W        W18711   1.663  20.702  17.939  0.0574 -0.4905  0.1354
17848W        W18712   4.673  22.990  15.876  0.0561  0.0219  0.0842
17849W        W18713  26.678  21.367  15.156  0.0807 -0.0849  0.1469
17850W        W18714   0.524  22.934  15.543  0.2543  0.0199  0.1477
17851W        W18715   1.807  19.760  17.569  0.2575 -0.0161 -0.0415
17852W        W18716   5.486  19.879  16.075 -0.0227  0.3040  0.1502
17853W        W18717   2.158  18.666  15.116 -0.0134 -0.0851  0.4374
17854W        W18718   0.208  17.746  14.622  0.0723  0.3341  0.1372
17855W        W18719   1.029  21.477  16.450  0.2476 -0.0586 -0.1617
17856W        W18720   2.480  18.272  15.021  0.0810 -0.1581 -0.0244
17857W        W18721   4.476  23.169  16.297  0.1742  0.4301 -0.1250
17858W        W18722   1.747  20.427  16.101  0.0412 -0.0083 -0.0312
17859W        W18723   3.559  18.119  15.012 -0.2916 -0.2006  0.0086
17860W        W18724   1.726  21.582  15.229  0.2804  0.0720  0.0643
17861W        W18725  27.187  20.565  16.716  0.0303 -0.0838  0.1178
17862W        W18726   1.611  16.742  13.702 -0.0836 -0.0883  0.0768
17863W        W18727   0.313  21.455  15.814 -0.0033  0.1148  0.0601
17864W        W18728   0.268  20.061  15.114  0.0782 -0.2472 -0.0002
17865W        W18729   0.207  18.736  14.709  0.0812  0.0425  0.1224
17866W        W18730   0.411  20.384  16.416 -0.1353 -0.0592 -0.0620
17867W        W18731  28.582  21.763  18.495  0.1272 -0.0563  0.0293
17868W        W18732   0.157  19.208  14.992 -0.1003  0.2464  0.2159
17869W        W18733   0.219  20.158  17.388 -0.0114 -0.1600 -0.0660
17870W        W18734   3.872  19.802  15.569  0.1392 -0.0689  0.1361
17871W        W18735   0.945  20.467  16.249 -0.1558  0.0797  0.0376
17872W        W18736  29.078  19.246  13.453 -0.0641 -0.0892  0.0369
17873W        W18737   0.384  22.462  15.705  0.3897 -0.2343  0.1739
17874W        W18738   2.923  21.522  16.588 -0.1108 -0.0175 -0.0646
17875W        W18739   5.027  21.766  17.804 -0.0047 -0.2866  0.0821
17876W        W18740   1.868  16.391  15.735  0.0910 -0.2471 -0.0331
17877W        W18741   3.132  21.184  17.858 -0.0186 -0.0073 -0.1481
17878W        W18742   0.806  20.395  16.731 -0.2129  0.3609  0.1848
17879W        W18743   3.983  21.431  17.648  0.0215  0.4101 -0.2516
17880W        W18744   2.552  20.692  15.478 -0.1293  0.0584 -0.0788
17881W        W18745  28.957  20.628  16.123 -0.2353  0.1649 -0.0239
17882W        W18746  28.222  18.147  19.433 -0.1182  0.0052  0.1842
17883W        W18747   2.690  17.147  13.593 -0.0688  0.2542 -0.1406
17884W        W18748  28.621  21.289  17.065 -0.0849  0.1231 -0.1186
17885W        W18749   0.140  21.021  18.169  0.3959 -0.2303 -0.1324
17886W        W18750  26.790  20.496  17.615  0.2819 -0.2103 -0.1212
17887W        W18751  27.703  18.611  18.165  0.1584 -0.0125 -0.0120
17888W        W18752  27.936  19.046  18.039  0.1888 -0.4421  0.3458
17889W        W18753   0.027  19.074  22.353  0.2457 -0.5036  0.0960
17890W        W18754   4.178  17.195  14.069  0.0108 -0.1015  0.0552
17891W        W18755   3.285  20.832  17.173  0.1184 -0.0494  0.0779
17892W        W18756   2.204  18.494  17.255  0.0143  0.0994  0.0506
17893W        W18757   3.430  22.088  16.757 -0.1971 -0.3280  0.4354
17894W        W18758   1.630  20.556  17.140 -0.1134  0.3970 -0.0093
17895W        W18759   2.868  18.620  15.910  0.1779  0.3077  0.0540
17896W        W18760   3.654  21.664  15.910 -0.1538 -0.2736  0.5490
17897W        W18761   0.221  21.598  18.091  0.0339 -0.0960  0.0115
17898W        W18762   0.260  21.540  15.329 -0.3201  0.2230 -0.1747
17899W        W18763  29.034  18.060  17.502 -0.1783  0.1667 -0.1298
17900W        W18764   1.613  18.993  16.817  0.1009 -0.2615  0.1180
17901W        W18765   1.926  19.965  13.816  0.5027 -0.1108  0.1810
17902W        W18766   2.039  23.353  18.120 -0.0454 -0.0664 -0.0524
17903W        W18767  28.566  18.625  12.648  0.1722  0.0722  0.1542
17904W        W18768   2.214  17.515  13.834  0.0375  0.1386 -0.1496
17905W        W18769   0.948  23.987  15.202  0.1559  0.2833 -0.0267
17906W        W18770   1.555  20.927  17.471 -0.0578 -0.1836  0.2274
17907W        W18771   0.653  17.142  12.718  0.0829 -0.0391 -0.3385
17908W        W18772   2.104  20.451  16.930  0.1493 -0.2022 -0.1315
17909W        W18773   4.341  17.023  18.523  0.1381 -0.1292  0.1024
17910W        W18774   0.258  20.762  17.315 -0.0268 -0.1140  0.2291
17911W        W18775   2.117  20.600  14.406 -0.0267  0.0281  0.2791
17912W        W18776   1.773  22.639  17.696  0.0250  0.1033  0.3577
17913W        W18777   2.900  17.855  14.541 -0.2183 -0.0458  0.0602
17914W        W18778  28.496  18.689  14.970  0.0781 -0.0122 -0.3438
17915W        W18779  27.730  19.995  17.931 -0.0410  0.1737  0.0028
17916W        W18780   0.743  20.442  15.773  0.1759  0.1591 -0.0857
17917W        W18781   1.450  19.307  14.883 -0.0024 -0.0376 -0.3578
17918W        W18782   3.446  22.422  18.216  0.2885 -0.2815  0.2570
17919W        W18783   2.556  20.275  14.579 -0.1102 -0.1582  0.0079
17920W        W18784   1.699  20.075  18.069 -0.0470 -0.0496  0.2041
17921W        W18785   3.056  19.077  16.608  0.1185  0.0769 -0.1722
17922W        W18786   1.461  21.954  17.919 -0.0339 -0.0419  0.0261
17923W        W18787   3.921  20.802  16.467 -0.2708  0.1765 -0.1730
17924W        W18788   2.226  18.098  13.924 -0.2785 -0.2781  0.0121
17925W        W18789   2.140  17.737  14.335 -0.0253 -0.1579 -0.1679
17926W        W18790   2.237  21.461  14.776 -0.2620 -0.1180 -0.1435
17927W        W18791   2.490  21.782  15.630 -0.2598  0.2708  0.0257
17928W        W18792   0.115  22.383  16.081  0.0420  0.2644 -0.0251
17929W        W18793   2.219  19.487  13.915  0.0721 -0.0996 -0.0266
17930W        W18794   1.246  21.516  15.275 -0.2231  0.0772 -0.0822
17931W        W18795  27.756  19.171  16.181  0.1117  0.0559 -0.2417
17932W        W18796   3.814  21.023  17.236 -0.1476 -0.0372 -0.2796
17933W        W18797   3.159  24.498  16.699 -0.2307  0.0823 -0.0495
17934W        W18798   2.077  20.030  15.917  0.4098  0.1394 -0.2221
17935W        W18799   2.762  22.268  16.301 -0.0647  0.0301  0.3350
17936W        W18800  28.816  18.580  19.411  0.0653 -0.0487  0.3069
17937W        W18801   3.056  21.885  18.385  0.2832  0.0042 -0.0766
17938W        W18802   5.871  18.054  14.238 -0.3808 -0.2503 -0.0922
17939W        W18803   3.605  20.481  15.595  0.0911  0.1159  0.0204
17940W        W18804  27.217  21.050  14.793 -0.0530  0.1274 -0.1159
17941W        W18805   3.663  18.559  14.664  0.3106 -0.0601 -0.0739
17942W        W18806   4.455  21.128  17.348 -0.1343  0.1089 -0.1596
17943W        W18807  28.477  24.189  15.342 -0.0306 -0.3883 -0.0123
17944W        W18808  28.954  21.621  16.628 -0.0064  0.1000  0.4813
17945W        W18809   0.386  19.296  13.780  0.2141  0.1087 -0.2073
17946W        W18810   1.235  21.162  16.130  0.2487  0.0746 -0.0296
17947W        W18811  28.889  18.776  13.114  0.1457  0.2920 -0.2243
17948W        W18812   1.175  20.427  14.053 -0.0411 -0.0588  0.0280
17949W        W18813   3.197  21.831  14.845 -0.3464 -0.1814  0.2179
17950W        W18814   3.971  17.514  15.772 -0.0198 -0.0645 -0.1371
17951W        W18815   1.519  19.811  14.187  0.1650  0.0465 -0.1604
17952W        W18816   1.231  22.314  13.982 -0.2739 -0.2594  0.2618
17953W        W18817   5.541  23.739  16.684 -0.1779  0.0912  0.0225
17954W        W18818   0.888  20.277  19.083 -0.1671  0.0279 -0.0453
17955W        W18819   3.411  23.103  14.970  0.0758 -0.0694  0.3694
17956W        W18820   0.603  19.148  15.903  0.1631 -0.2122 -0.0177
17957W        W18821   0.023  22.000  16.441 -0.0950 -0.2102  0.1663
17958W        W18822   0.354  18.250  14.034  0.1239 -0.2808  0.2603
17959W        W18823  27.865  19.745  13.924  0.1729 -0.0754 -0.0073
17960W        W18824   1.484  18.473  16.785 -0.4758  0.0732  0.0979
17961W        W18825   0.580  23.437  16.478 -0.0250 -0.2584  0.1607
17962W        W18826   0.639  18.660  13.865 -0.0213  0.0748 -0.1780
17963W        W18827  27.390  20.704  11.737  0.0408  0.0027  0.0205
17964W        W18828   3.291  21.429  15.641 -0.1553  0.0799  0.2714
17965W        W18829   2.265  18.129  17.719 -0.0828  0.0293  0.1812
17966W        W18830   2.704  22.657  15.345  0.0873 -0.1254  0.0819
17967W        W18831   1.475  20.425  17.572  0.0702  0.1099 -0.4265
17968W        W18832   0.724  21.972  17.130 -0.2308 -0.1436  0.0813
17969W        W18833   2.954  16.922  18.951  0.1366 -0.2129  0.0760
17970W        W18834   0.664  16.346  14.737  0.1634 -0.2379  0.2037
17971W        W18835   2.145  21.255  19.166  0.3611  0.2193 -0.2368
17972W        W18836  28.565  22.179  17.257  0.2397  0.1551 -0.0091
17973W        W18837   4.026  21.202  18.343  0.0891  0.0505  0.1711
17974W        W18838   1.748  22.057  16.017 -0.1194 -0.0211  0.0234
17975W        W18839   2.158  21.274  16.556 -0.2050 -0.0227 -0.0416
17976W        W18840   0.413  17.700  16.896  0.3241 -0.2846 -0.1561
17977W        W18841   0.551  19.490  15.117 -0.2054  0.1030 -0.1219
17978W        W18842   1.081  21.499  15.741  0.0134  0.0573 -0.1545
17979W        W18843   1.920  20.034  15.182 -0.0160 -0.0930 -0.1290
17980W        W18844   3.233  20.812  14.829  0.0402  0.3361 -0.0747
17981W        W18845  27.762  22.287  17.807 -0.1121 -0.0179 -0.2413
17982W        W18846  28.219  21.422  21.067 -0.1023 -0.1396  0.4355
17983W        W18847  25.889  20.310  14.745  0.0990  0.3642  0.0941
17984W        W18848   5.291  19.740  18.796 -0.1348 -0.1217 -0.4656
17985W        W18849   0.426  20.614  15.416  0.1945  0.1402 -0.1155
17986W        W18850   4.591  20.865  13.385  0.0728 -0.2510 -0.1612
17987W        W18851   2.094  20.621  15.824 -0.1518  0.2861  0.0885
17988W        W18852  28.263  22.576  16.172 -0.4696 -0.1443  0.1792
17989W        W18853   2.942  18.252  12.503  0.3503 -0.0595  0.1931
17990W        W18854   4.026  22.545  17.355 -0.0156  0.1687  0.1796
17991W        W18855   3.847  16.081  14.271 -0.0861 -0.0593  0.0361
17992W        W18856   1.034  17.525  15.152  0.4590  0.1878  0.0589
17993W        W18857   0.711  21.769  18.249 -0.3616  0.0052  0.1783
17994W        W18858   1.279  20.495  14.905 -0.0498  0.0893  0.0480
17995W        W18859   0.100  22.716  12.481  0.0617  0.0954  0.0557
17996W        W18860   1.331  22.425  15.936  0.1055  0.3293  0.0868
17997W        W18861  28.151  18.926  17.111  0.0373 -0.2703 -0.1427
17998W        W18862   1.481  19.958  15.912 -0.0361 -0.0911 -0.0731
17999W        W18863  29.131  17.865  18.947 -0.0913 -0.2147  0.1478
18000W        W18864   1.678  20.799  15.686 -0.2745 -0.0138 -0.0569
18001W        W18865   2.364  19.895  14.836 -0.2398 -0.3409 -0.0452
18002W        W18866   1.150  18.907  15.007 -0.2384 -0.2141 -0.0078
18003W        W18867   2.235  19.714  15.459 -0.3627  0.1165 -0.0588
18004W        W18868   1.878  18.490  14.740  0.2030  0.0690  0.2879
18005W        W18869   1.384  18.222  13.967 -0.0058  0.2134  0.1365
18006W        W18870   4.516  18.712  17.621  0.2110  0.2130 -0.1217
18007W        W18871   1.288  19.468  13.566 -0.4315  0.0631  0.1648
18008W        W18872   0.620  21.436  17.315  0.0333  0.2989  0.1664
18009W        W18873   2.777  21.077  14.903  0.1386 -0.1376 -0.1382
18010W        W18874  26.474  18.067  13.663 -0.1702 -0.2046 -0.2224
18011W        W18875  28.751  19.482  19.936  0.0550  0.0903 -0.0158
18012W        W18876   3.297  20.475  16.009  0.2619  0.0770 -0.0674
18013W        W18877   1.004  23.444  13.859 -0.1348 -0.3074  0.0215
18014W        W18878  27.672  21.207  14.440  0.0692  0.0767  0.0324
18015W        W18879   0.201  20.709  17.790  0.1751 -0.2320  0.1551
18016W        W18880  28.125  19.417  18.412  0.0383  0.0840  0.0525
18017W        W18881   0.113  20.780  16.578  0.0030  0.1411  0.3185
18018W        W18882   4.103  17.046  19.433 -0.0448  0.0500 -0.0486
18019W        W18883   3.892  19.997  16.475  0.2173 -0.3189 -0.0162
18020W        W18884   4.871  20.484  14.296  0.0469 -0.2681  0.1471
18021W        W18885   0.256  21.012  14.683 -0.0330  0.2002 -0.1280
18022W        W18886   2.370  22.944  11.850 -0.4599 -0.0009  0.1103
18023W        W18887   3.206  22.787  15.285  0.0823  0.0607  0.2261
18024W        W18888  28.681  20.185  19.336 -0.0114  0.2694 -0.0015
18025W        W18889   1.700  19.468  16.107 -0.0194 -0.0671  0.0548
18026W        W18890   1.154  16.827  13.970  0.0761 -0.3175  0.0256
18027W        W18891   1.334  23.959  18.262 -0.0347  0.3224 -0.1242
18028W        W18892   0.892  17.395  15.760 -0.1360  0.2171 -0.3163
18029W        W18893   2.244  22.359  15.573  0.1152  0.2264  0.5267
18030W        W18894  27.873  18.756  16.689 -0.1055 -0.0967 -0.0119
18031W        W18895  28.857  20.811  19.181  0.2068 -0.0483  0.1024
18032W        W18896   4.446  19.298  16.813 -0.0720 -0.1385  0.0150
18033W        W18897   0.880  21.670  14.537  0.0108 -0.4830 -0.0221
18034W        W18898   1.746  21.001  18.338  0.2942 -0.2753 -0.1615
18035W        W18899  27.300  18.725  16.377 -0.0175 -0.0102 -0.1139
18036W        W18900   0.675  20.886  17.058  0.0106 -0.1452  0.2380
18037W        W18901  27.777  20.154  14.218  0.2175 -0.1167  0.1915
18038W        W18902   2.199  19.573  12.436  0.0953  0.1947  0.1807
18039W        W18903  27.859  17.144  17.621 -0.1718 -0.3822  0.1440
18040W        W18904   2.790  22.628  16.633 -0.1825  0.3412  0.0335
18041W        W18905   3.761  20.070  17.293  0.0847  0.2011 -0.3839
18042W        W18906  29.119  17.692  17.152 -0.0315  0.1665 -0.1029
18043W        W18907   1.561  24.151  17.341 -0.1198  0.1738  0.3665
18044W        W18908   2.454  21.218  15.247 -0.1783  0.3926 -0.2114
18045W        W18909  28.915  21.975  13.492 -0.0002  0.1059 -0.5230
18046W        W18910  28.136  20.576  20.858 -0.0379  0.0454 -0.0184
18047W        W18911   1.104  20.984  16.594 -0.1854  0.0190 -0.2358
18048W        W18912   1.693  15.329  15.068 -0.0755 -0.1160 -0.2719
18049W        W18913   2.823  18.458  13.263  0.0211 -0.0654  0.0180
18050W        W18914   0.531  21.087  13.452  0.0364  0.1125  0.1673
18051W        W18915   3.531  18.999  15.362  0.1222 -0.0016  0.0612
18052W        W18916  28.192  21.209  17.608 -0.0189 -0.1724 -0.0802
18053W        W18917   4.230  22.835  13.898 -0.0475 -0.2838 -0.0435
18054W        W18918   0.326  17.999  16.349  0.2048  0.1183 -0.2396
18055W        W18919  29.030  20.113  16.122  0.2354 -0.1789  0.6252
18056W        W18920   1.774  21.877  14.719  0.1103  0.0043  0.1872
18057W        W18921   6.180  24.082  20.884 -0.1105  0.2369  0.0046
18058W        W18922   3.464  20.198  17.692  0.0855  0.1305 -0.0628
18059W        W18923   2.100  18.651  14.047 -0.0658 -0.0716  0.0337
18060W        W18924   4.382  23.327  14.513  0.2760 -0.3338 -0.2960
18061W        W18925   0.826  16.458  14.016 -0.3021  0.0752 -0.2166
18062W        W18926   0.415  19.757  17.856  0.0995 -0.1344  0.1078
18063W        W18927   3.901  22.745  15.604  0.1016  0.2592 -0.0799
18064W        W18928   5.463  20.608  16.942  0.1383 -0.3208  0.4176
18065W        W18929   1.943  22.158  17.807  0.1829 -0.0899 -0.1874
18066W        W18930   0.114  21.651  17.350 -0.3571 -0.1744 -0.0160
18067W        W18931   2.591  22.239  19.262  0.3416 -0.3782  0.1676
18068W        W18932   1.459  22.597  18.574 -0.4869 -0.1290  0.1138
18069W        W18933  27.922  21.467  14.809  0.0605  0.1893 -0.0974
18070W        W18934   1.972  21.966  16.892  0.0143  0.0638  0.0855
18071W        W18935   0.925  20.910  15.321 -0.0792 -0.0519 -0.0325
18072W        W18936   3.316  23.523  14.522  0.1226  0.1489  0.0213
18073W        W18937   2.217  20.366  16.268  0.0141  0.1951 -0.0248
18074W        W18938   1.091  23.082  14.295 -0.0350  0.0843  0.0046
18075W        W18939   3.290  20.804  16.373  0.0308 -0.2681  0.0983
18076W        W18940   2.267  20.905  14.819  0.0359 -0.1367  0.1037
18077W        W18941   5.084  18.185  17.191  0.0451  0.1158  0.1164
18078W        W18942   0.700  22.325  18.241 -0.0591 -0.0389  0.0661
18079W        W18943   4.380  22.831  17.147  0.1448  0.1613 -0.2235
18080W        W18944   2.484  21.758  16.518  0.0239 -0.0413 -0.0678
18081W        W18945  28.490  19.617  16.002  0.0673 -0.0233 -0.3132
18082W        W18946   1.311  20.000  17.754  0.0882  0.1250 -0.0789
18083W        W18947   2.581  17.152  14.072  0.4434  0.0276  0.4778
18084W        W18948  28.385  22.614  18.613 -0.2482 -0.0455  0.0257
18085W        W18949   1.658  23.099  17.701  0.0564  0.1558 -0.1374
18086W        W18950  28.888  18.418  14.826  0.3413 -0.1459  0.3771
18087W        W18951  28.963  21.118  17.383  0.2825  0.4472  0.2549
18088W        W18952   2.670  21.193  16.394  0.1855  0.1653  0.1517
18089W        W18953   2.813  21.075  13.909 -0.0965  0.3219 -0.0572
18090W        W18954   1.509  17.925  16.047  0.1875  0.0069  0.1738
18091W        W18955   4.196  19.432  16.306  0.2821  0.0688 -0.1978
18092W        W18956  27.456  18.572  18.582 -0.0749 -0.0351 -0.1539
18093W        W18957   3.221  18.834  12.471  0.1242  0.0398  0.2106
18094W        W18958   2.736  20.147  15.347 -0.1432 -0.0150 -0.3124
18095W        W18959  28.245  21.852  15.105 -0.0444  0.0697  0.1699
18096W        W18960   1.689  17.729  16.726 -0.1926 -0.2336  0.1036
18097W        W18961   3.423  20.018  15.453 -0.1373 -0.1107  0.1205
18098W        W18962   3.435  20.422  14.460  0.5019  0.2822  0.1357
18099W        W18963   3.069  20.008  15.848 -0.0010  0.2012  0.2786
18100W        W18964   0.237  20.980  16.027  0.0986  0.1848 -0.3004
18101W        W18965   2.603  18.584  12.716 -0.0923  0.0184  0.0038
18102W        W18966   4.761  20.565  16.136  0.0615 -0.0322  0.2237
18103W        W18967   1.960  16.680  14.666  0.0934 -0.1994 -0.1633
18104W        W18968  28.059  21.110  16.196 -0.1334 -0.2256  0.1864
18105W        W18969   0.116  19.596  15.322 -0.0532  0.3887  0.4233
18106W        W18970  28.211  15.984  20.897 -0.1679 -0.3872  0.0994
18107W        W18971   2.006  24.144  15.923 -0.1627  0.0784 -0.1692
18108W        W18972   3.716  21.092  13.004  0.0803  0.1808 -0.2442
18109W        W18973   1.993  22.429  14.751  0.0100  0.0784 -0.2957
18110W        W18974   2.493  22.856  17.344 -0.2434 -0.1238  0.3503
18111W        W18975   3.093  19.673  17.036  0.1289  0.2103 -0.2059
18112W        W18976   1.116  19.180  16.024  0.2465  0.0697 -0.1906
18113W        W18977   0.955  20.853  15.866 -0.2938 -0.2665  0.0794
18114W        W18978  27.804  21.252  15.793  0.0120 -0.2770 -0.0522
18115W        W18979   2.170  18.348  13.518 -0.1026 -0.2702 -0.3621
18116W        W18980   1.056  23.406  16.217  0.0370 -0.1032  0.0350
18117W        W18981  28.449  17.713  16.178 -0.0385  0.0815  0.1823
18118W        W18982   2.047  19.078  16.496  0.3455  0.2537 -0.2274
18119W        W18983   0.823  22.726  13.795  0.1018 -0.0637 -0.0011
18120W        W18984  27.754  22.019  20.310 -0.0500  0.1241 -0.3110
18121W        W18985   1.729  17.865  15.602 -0.0367 -0.1164 -0.1256
18122W        W18986   3.865  15.214  14.763 -0.0176  0.1526  0.0946
18123W        W18987   2.629  23.209  16.332  0.0885  0.4452 -0.1502
18124W        W18988   0.713  19.142  16.474  0.1555  0.0755  0.2472
18125W        W18989  28.426  21.052  17.980 -0.0525 -0.0067 -0.0577
18126W        W18990   6.537  19.944  10.328  0.2698  0.0991  0.1922
18127W        W18991  28.636  19.498  19.448  0.0135  0.0191  0.3314
18128W        W18992   1.107  19.613  15.737  0.1552  0.2304  0.0070
18129W        W18993   1.379  21.195  18.034 -0.2596  0.1664 -0.1296
18130W        W18994   0.645  22.822  18.406 -0.3198 -0.2673  0.0013
18131W        W18995   2.540  20.566  18.820  0.2396  0.1274 -0.1458
18132W        W18996   0.384  22.127  16.705 -0.0284  0.0574 -0.2273
18133W        W18997   0.415  22.014  15.286 -0.1135  0.1931  0.2535
18134W        W18998  27.816  20.759  15.409 -0.1175 -0.6243  0.0900
18135W        W18999  28.742  19.250  14.131  0.0013  0.0024  0.0239
18136W        W19000   4.111  18.497  14.329 -0.3625 -0.1169  0.1360
18137W        W19001   5.580  19.321  17.648 -0.3750 -0.0829 -0.1512
18138W        W19002   1.490  21.396  17.493  0.2330 -0.0027 -0.0444
18139W        W19003   5.912  22.669  16.201 -0.1044 -0.1724  0.1662
18140W        W19004   2.177  24.825  16.433  0.0881 -0.0586  0.0904
18141W        W19005  27.713  20.929  16.611  0.1306 -0.0165 -0.0745
18142W        W19006   5.906  18.091  14.729 -0.4742 -0.3450 -0.1178
18143W        W19007   0.180  20.461  15.838  0.0339  0.1649 -0.0138
18144W        W19008   2.895  20.169  17.051  0.0111 -0.0696  0.1931
18145W        W19009   0.539  21.684  16.383  0.0393  0.2561 -0.1463
18146W        W19010   0.939  18.707  17.866 -0.1209  0.1644 -0.0966
18147W        W19011  29.129  17.975  15.013 -0.1354  0.0747  0.2109
18148W        W19012   0.329  23.600  15.153 -0.1022  0.1601 -0.2387
18149W        W19013   1.426  19.274  16.463  0.2006 -0.0618  0.2503
18150W        W19014   1.652  22.287  15.583 -0.0303  0.1622  0.1309
18151W        W19015   0.100  21.035  18.694 -0.3008 -0.1670  0.1345
18152W        W19016  28.756  19.753  16.978 -0.3152 -0.1142  0.1210
18153W        W19017   2.743  24.490  16.411  0.1967  0.2296 -0.0403
18154W        W19018  28.654  16.458  15.837 -0.0262 -0.2618 -0.3149
18155W        W19019   2.672  22.488  17.086  0.0045  0.1514 -0.2236
18156W        W19020   2.739  19.553  12.455 -0.2301 -0.3192 -0.0347
18157W        W19021   2.108  21.395  15.594 -0.2148  0.2048  0.2093
18158W        W19022   1.391  21.000  16.959 -0.0689 -0.0866  0.2554
18159W        W19023  28.985  21.645  17.731  0.1137 -0.0746 -0.1111
18160W        W19024   1.116  15.659  12.996 -0.2714 -0.0616  0.0602
18161W        W19025  27.932  19.845  18.361  0.0455 -0.3292  0.0848
18162W        W19026   3.537  20.479  18.110  0.0196  0.2523  0.0475
18163W        W19027   0.516  20.901  18.478 -0.1898  0.0877  0.0114
18164W        W19028  29.129  17.934  16.665 -0.0274  0.0339 -0.1270
18165W        W19029   0.577  20.056  15.516 -0.1734  0.2417 -0.1401
18166W        W19030   0.744  21.326  16.828 -0.3068 -0.1289  0.0462
18167W        W19031   2.061  19.918  17.041 -0.4789 -0.4947 -0.1574
18168W        W19032   3.071  16.985  13.967  0.0694  0.1043  0.1731
18169W        W19033   0.915  23.533  18.387 -0.0121 -0.0507 -0.1730
18170W        W19034   5.431  20.157  14.840  0.0732  0.0591 -0.2375
18171W        W19035  27.454  22.035  14.718 -0.3109  0.3289  0.0832
18172W        W19036   4.462  21.110  14.595 -0.2328  0.0414 -0.2981
18173W        W19037   3.581  16.154  16.066  0.0984  0.0622 -0.1077
18174W        W19038   3.041  17.953  13.766  0.0360  0.1478  0.1428
18175W        W19039   2.017  19.510  15.054  0.0184  0.0953 -0.0511
18176W        W19040   3.088  20.573  13.588  0.1905 -0.0411  0.1152
18177W        W19041   0.834  20.998  11.987 -0.0709  0.1034 -0.2723
18178W        W19042   5.342  19.809  18.236 -0.1156 -0.1750 -0.2024
18179W        W19043   2.611  21.787  13.515 -0.4073  0.2833 -0.3275
18180W        W19044   1.375  16.991  15.161  0.0152 -0.1414 -0.0232
18181W        W19045  28.075  18.745  16.203  0.1397 -0.0402  0.1291
18182W        W19046   5.736  21.026  17.128 -0.0936  0.0637 -0.2240
18183W        W19047   1.149  18.906  16.696 -0.0181 -0.0047  0.3622
18184W        W19048  26.201  22.696  14.454 -0.1038 -0.1266 -0.1833
18185W        W19049   0.589  18.756  16.963 -0.0384  0.1111  0.0423
18186W        W19050   1.255  19.921  16.724  0.1049 -0.2193 -0.3017
18187W        W19051   1.280  20.620  15.440  0.1215 -0.1261 -0.2074
18188W        W19052   2.968  22.690  16.152  0.1559 -0.1680 -0.2948
18189W        W19053   2.212  21.588  16.963 -0.1546 -0.0884 -0.0110
18190W        W19054   0.015  19.986  16.890 -0.1024  0.3563  0.2495
18191W        W19055   1.489  20.911  15.137  0.2844  0.0430 -0.3254
18192W        W19056   1.351  20.707  16.261 -0.1967 -0.2910 -0.1395
18193W        W19057   0.670  22.906  16.026  0.2120  0.2177  0.0702
18194W        W19058   4.264  21.151  16.271  0.2345 -0.1112 -0.2823
18195W        W19059   4.333  20.223  14.872  0.1336 -0.0318  0.1271
18196W        W19060   2.775  18.411  15.435 -0.2436  0.0769 -0.4471
18197W        W19061   2.541  20.306  16.667  0.0394  0.3478  0.1730
18198W        W19062   3.480  22.805  16.713 -0.2766  0.2757  0.3017
18199W        W19063  28.976  20.382  13.908 -0.0166  0.2799 -0.1623
18200W        W19064   1.720  19.151  17.348  0.2850 -0.0877  0.0400
18201W        W19065   1.521  22.617  12.503  0.2389  0.2200 -0.2251
18202W        W19066   1.951  21.729  16.418  0.1512 -0.0037 -0.0455
18203W        W19067  28.244  20.093  16.131  0.1504  0.2054 -0.0143
18204W        W19068   0.123  16.997  12.645 -0.0044  0.1683 -0.5254
18205W        W19069   2.008  23.240  21.504  0.4793  0.1283  0.1424
18206W        W19070  27.822  19.726  20.671 -0.2149 -0.1446  0.1704
18207W        W19071   4.061  23.162  17.972  0.0448 -0.3088 -0.2566
18208W        W19072   4.514  21.368  20.099 -0.1357  0.3966  0.1177
18209W        W19073   1.889  22.929  18.341  0.3032 -0.2500  0.1832
18210W        W19074   0.128  22.970  18.289 -0.0713 -0.0168  0.5401
18211W        W19075   0.150  19.064  19.095 -0.0376  0.1158 -0.2521
18212W        W19076  27.456  20.780  19.534 -0.4615  0.1779  0.0975
18213W        W19077   1.903  23.953  21.266 -0.0060  0.0081 -0.1245
18214W        W19078   0.347  15.344  21.757  0.1993 -0.1637 -0.1230
18215W        W19079   1.280  19.596  20.238  0.1001 -0.3429 -0.0274
18216W        W19080   2.544  18.861  17.196 -0.0244  0.3350  0.0387
18217W        W19081   3.956  21.675  18.199  0.1863  0.2799 -0.0336
18218W        W19082   3.646  19.625  19.500 -0.1684  0.1063 -0.2654
18219W        W19083   1.857  18.965  21.405  0.1242 -0.0930 -0.1030
18220W        W19084   2.382  20.988  24.603 -0.0542  0.0754 -0.0755
18221W        W19085   0.632  20.787  16.482  0.0549 -0.1108 -0.0468
18222W        W19086  27.606  19.903  19.234 -0.0457 -0.0463 -0.0535
18223W        W19087   0.571  16.488  21.164 -0.0954  0.1371 -0.3677
18224W        W19088   1.912  17.725  17.736  0.3476  0.0971  0.1875
18225W        W19089   2.225  20.749  18.397 -0.0670 -0.4122  0.1653
18226W        W19090   1.501  20.218  19.961  0.3819  0.0235  0.1715
18227W        W19091   3.385  22.262  17.719 -0.2010 -0.0741  0.1079
18228W        W19092   0.889  18.134  19.042 -0.0179  0.0226  0.1646
18229W        W19093   1.091  19.073  20.893  0.1346 -0.1461  0.4308
18230W        W19094   3.896  19.579  20.964 -0.0628 -0.2655 -0.1144
18231W        W19095   3.758  19.947  19.104  0.0339 -0.1749 -0.0625
18232W        W19096   1.280  21.601  18.386 -0.0719  0.0133  0.2128
18233W        W19097  28.965  21.773  20.538  0.3385  0.2124  0.2017
18234W        W19098   1.530  20.282  21.186 -0.0973  0.0422 -0.0730
18235W        W19099   2.289  20.757  16.542 -0.1881 -0.1623 -0.1538
18236W        W19100   4.182  22.184  19.977  0.2340 -0.0587 -0.1582
18237W        W19101   5.124  20.531  20.230  0.1434 -0.0606  0.1357
18238W        W19102   1.138  22.096  18.327 -0.0870  0.5264 -0.1869
18239W        W19103   2.388  21.103  21.025 -0.3967 -0.0422  0.0054
18240W        W19104   4.789  20.787  19.772 -0.0470 -0.4671  0.0599
18241W        W19105  28.966  19.295  17.269 -0.0354 -0.0934 -0.0548
18242W        W19106  29.025  19.794  18.000  0.3628  0.2175 -0.0032
18243W        W19107   4.162  20.520  20.470 -0.0641 -0.2933  0.0279
18244W        W19108   3.222  21.040  20.410  0.0536 -0.3990 -0.1044
18245W        W19109   3.441  18.785  16.721 -0.4433  0.3596 -0.0779
18246W        W19110   2.949  18.380  20.141 -0.2742 -0.0736  0.1147
18247W        W19111   3.696  20.391  19.439 -0.2457  0.2788  0.2122
18248W        W19112   5.561  21.592  17.812 -0.0210 -0.4154 -0.0902
18249W        W19113  25.524  19.192  16.072 -0.0717  0.2933  0.1031
18250W        W19114   3.201  24.004  18.659  0.2920  0.3250 -0.0928
18251W        W19115  28.521  19.008  20.673  0.1773 -0.1228 -0.1689
18252W        W19116   2.694  20.367  21.762  0.0896 -0.0415  0.1635
18253W        W19117   3.486  20.067  14.809  0.1539  0.0260  0.1280
18254W        W19118   6.141  20.606  18.938 -0.0931 -0.0512 -0.0626
18255W        W19119   2.244  23.592  20.396  0.1663 -0.0130  0.1426
18256W        W19120  28.719  18.607  17.919 -0.1198  0.0718  0.0792
18257W        W19121   1.672  21.376  19.828  0.0972 -0.0072 -0.1781
18258W        W19122   2.513  21.605  18.311  0.0283  0.1228 -0.0738
18259W        W19123   2.015  21.316  17.345 -0.2362 -0.0505  0.0058
18260W        W19124   2.034  22.776  19.944  0.3081 -0.0278 -0.0525
18261W        W19125   3.198  21.246  19.304  0.1654  0.0846 -0.2061
18262W        W19126   1.855  20.472  18.363  0.1061 -0.3008 -0.3829
18263W        W19127  28.156  20.257  18.752 -0.1348  0.0113 -0.4235
18264W        W19128   1.820  21.183  18.770 -0.3245 -0.0030  0.2276
18265W        W19129   5.081  19.283  19.643 -0.1554  0.2683  0.2315
18266W        W19130  28.285  18.972  22.465  0.3292  0.1742 -0.0594
18267W        W19131   1.832  21.634  22.666  0.1632  0.0946 -0.0466
18268W        W19132  29.093  17.674  20.630  0.2322  0.0173 -0.1686
18269W        W19133  28.560  18.557  20.136 -0.1272  0.3845  0.2990
18270W        W19134   2.689  20.479  19.682 -0.1804 -0.1300  0.0069
18271W        W19135   3.553  20.385  16.555  0.1252 -0.1365 -0.3193
18272W        W19136  29.114  19.216  20.541  0.1015 -0.1356 -0.4790
18273W        W19137   2.049  22.115  19.382 -0.0231 -0.0596  0.0221
18274W        W19138   0.695  24.106  15.709 -0.0640  0.1308  0.0332
18275W        W19139   5.818  20.041  20.128 -0.0185 -0.2558  0.3235
18276W        W19140  28.989  21.505  19.777  0.3791  0.2530 -0.0287
18277W        W19141   2.881  23.076  18.024 -0.1187  0.0556  0.2273
18278W        W19142   0.825  20.910  22.134 -0.2662  0.1105  0.1521
18279W        W19143   3.670  21.391  19.085  0.0049  0.3496  0.0184
18280W        W19144   2.505  19.663  21.401  0.0353 -0.3978 -0.2090
18281W        W19145  28.893  19.860  18.517  0.2631  0.0616 -0.0614
18282W        W19146   2.766  22.173  18.796  0.0199  0.1082  0.2702
18283W        W19147   1.059  21.208  17.418 -0.3327  0.2171  0.1257
18284W        W19148   4.617  21.370  19.590 -0.0980  0.2623 -0.4436
18285W        W19149   1.405  20.548  20.311  0.2367  0.1371  0.0245
18286W        W19150   0.148  18.798  20.776 -0.0484 -0.0565  0.0473
18287W        W19151   0.304  19.558  17.185 -0.1792 -0.3525  0.1689
18288W        W19152   2.377  19.737  18.682  0.4121 -0.1189 -0.0701
18289W        W19153   3.469  18.916  22.743 -0.0170  0.4690 -0.3655
18290W        W19154   0.296  19.581  18.799  0.1161  0.1264 -0.0015
18291W        W19155   3.295  21.593  22.212 -0.0555 -0.2111  0.2139
18292W        W19156   3.551  19.346  19.944 -0.0590 -0.3818 -0.2084
18293W        W19157   2.913  21.031  20.036  0.1108  0.0071  0.0925
18294W        W19158   1.234  18.805  21.363 -0.0903 -0.0478 -0.2718
18295W        W19159   1.922  19.923  18.610 -0.0048 -0.0459  0.3492
18296W        W19160   1.504  20.772  21.131 -0.1488  0.0903 -0.0256
18297W        W19161  28.639  24.219  20.742  0.0949  0.5093 -0.2560
18298W        W19162   1.719  18.303  16.371 -0.1053 -0.0310  0.0029
18299W        W19163   3.140  19.206  20.363 -0.0820 -0.0975 -0.1638
18300W        W19164   5.603  20.132  18.559  0.0966  0.3944 -0.1875
18301W        W19165   3.897  18.750  15.593  0.0436  0.1106  0.2263
18302W        W19166   2.608  22.151  20.965  0.1228  0.4001 -0.0674
18303W        W19167   0.042  18.350  19.868  0.0741 -0.0060  0.0989
18304W        W19168   5.295  17.982  21.916  0.1320 -0.1236  0.0114
18305W        W19169   5.622  20.239  18.049 -0.2948  0.2353 -0.1104
18306W        W19170   0.996  18.615  20.807 -0.0057  0.1220 -0.2802
18307W        W19171   1.772  19.883  16.392 -0.2036 -0.0235 -0.1762
18308W        W19172   3.505  19.772  22.476 -0.2243  0.0416  0.0099
18309W        W19173   3.756  18.758  18.180  0.3846  0.1318 -0.2784
18310W        W19174   3.267  20.973  22.030  0.0195 -0.0897  0.0374
18311W        W19175   2.929  22.590  19.418  0.3691  0.1405 -0.0483
18312W        W19176   1.821  21.159  22.295  0.0538  0.2759 -0.0368
18313W        W19177   1.549  18.076  18.060 -0.0760 -0.1811  0.0865
18314W        W19178   1.462  20.670  19.696 -0.1113  0.2264 -0.0057
18315W        W19179   1.093  22.184  19.622 -0.1718 -0.0165 -0.0327
18316W        W19180   2.554  22.166  18.341  0.1529  0.3444 -0.0269
18317W        W19181   1.782  19.007  17.970 -0.0119  0.0712  0.1071
18318W        W19182   3.203  20.434  19.568  0.0452  0.2936  0.0001
18319W        W19183   1.261  21.632  19.651 -0.0945  0.0085 -0.0647
18320W        W19184  28.360  19.322  17.328 -0.1553  0.1080  0.0779
18321W        W19185   2.662  19.080  20.686  0.1900  0.1510 -0.3829
18322W        W19186   3.847  20.518  18.923  0.0850 -0.0812  0.2262
18323W        W19187   2.996  19.478  18.245  0.2546 -0.1188  0.0494
18324W        W19188   4.445  20.261  15.742 -0.0022  0.2484 -0.1726
18325W        W19189   3.753  20.960  17.729  0.2147  0.1881 -0.1187
18326W        W19190   1.835  21.163  17.841 -0.2096  0.2541  0.3962
18327W        W19191   0.895  21.437  18.692  0.0750  0.1486 -0.2927
18328W        W19192   3.181  22.451  17.008 -0.1758 -0.1568  0.0211
18329W        W19193   1.633  22.463  16.863 -0.2926  0.1025 -0.0494
18330W        W19194   3.906  22.405  19.197  0.3646 -0.1134 -0.0178
18331W        W19195   2.534  19.912  20.946  0.0936  0.0615  0.0299
18332W        W19196   3.888  18.757  21.396  0.0598 -0.0719  0.2370
18333W        W19197   5.764  21.748  20.707  0.1333  0.1051 -0.0099
18334W        W19198   0.292  22.125  19.950 -0.2418  0.2302 -0.2911
18335W        W19199   3.579  21.782  21.452  0.1139 -0.0855  0.0820
18336W        W19200   2.088  17.619  18.677 -0.2749 -0.0131  0.1760
18337W        W19201   0.625  22.386  17.650 -0.0182 -0.1464 -0.0600
18338W        W19202   3.800  19.485  18.929  0.0183 -0.0809  0.0992
18339W        W19203   3.414  20.870  19.045 -0.0427 -0.5978  0.1869
18340W        W19204   1.659  17.592  21.626 -0.2444  0.0484 -0.2171
18341W        W19205   2.628  19.605  17.771 -0.0971  0.1588  0.0780
18342W        W19206   3.461  19.962  18.212 -0.0706  0.3107  0.2492
18343W        W19207   2.059  21.901  18.277 -0.3180 -0.2099  0.1589
18344W        W19208  25.722  20.503  18.814 -0.0027 -0.0458 -0.1639
18345W        W19209   0.941  19.013  19.230 -0.1787 -0.0076  0.1599
18346W        W19210   3.368  21.786  20.374  0.1133 -0.0120  0.0313
18347W        W19211   0.323  22.061  17.395 -0.0429 -0.0267 -0.0235
18348W        W19212  28.637  22.484  19.582  0.1050  0.1388 -0.4168
18349W        W19213   0.921  19.459  20.596 -0.1835 -0.0771  0.0222
18350W        W19214   0.476  19.057  19.491  0.1969 -0.2622  0.0001
18351W        W19215   0.896  17.386  20.586  0.2166 -0.0194 -0.2033
18352W        W19216   1.221  18.258  19.503 -0.1588 -0.0098  0.1494
18353W        W19217  28.967  19.511  16.137  0.0562  0.1260  0.1045
18354W        W19218  28.633  20.621  19.630  0.0987 -0.0057  0.2350
18355W        W19219   2.864  21.748  19.244  0.0044 -0.2381  0.0107
18356W        W19220  28.391  18.149  20.980 -0.1011  0.2097  0.2851
18357W        W19221  28.547  18.314  17.579  0.0295  0.3308  0.0100
18358W        W19222   0.650  17.286  21.385 -0.0082  0.1217  0.0684
18359W        W19223   0.554  18.476  20.674  0.0086  0.0604  0.0938
18360W        W19224  28.847  19.938  19.950  0.0773 -0.0345  0.0584
18361W        W19225   1.126  23.649  17.955 -0.3242  0.0271  0.3231
18362W        W19226  28.209  19.835  17.901  0.2278 -0.1708 -0.2669
18363W        W19227  27.689  16.720  16.553  0.1025 -0.0896  0.1872
18364W        W19228   0.062  19.403  18.216  0.1627  0.4393  0.1385
18365W        W19229   1.220  18.635  23.392  0.1789 -0.1970 -0.0075
18366W        W19230   0.507  18.300  17.955  0.3046 -0.1273 -0.2387
18367W        W19231   0.271  17.674  21.641 -0.1005  0.2059  0.1740
18368W        W19232   3.120  18.565  22.557  0.1829 -0.1868  0.1980
18369W        W19233   3.362  18.645  19.109  0.2192  0.0827 -0.0396
18370W        W19234  27.579  16.941  20.176 -0.1902  0.2820  0.0446
18371W        W19235  28.678  18.556  21.033  0.2869 -0.0204  0.0595
18372W        W19236   2.629  21.048  18.740 -0.1363 -0.2856 -0.1321
18373W        W19237   1.933  19.997  19.852  0.0262  0.2001 -0.1026
18374W        W19238  27.876  17.330  18.503  0.2640 -0.2282  0.0286
18375W        W19239   4.249  22.139  18.219  0.2882 -0.0346 -0.3493
18376W        W19240   2.582  21.287  16.958  0.4845  0.2184 -0.1102
18377W        W19241   0.308  20.570  20.073  0.0169  0.0019  0.1878
18378W        W19242  28.114  20.827  17.153  0.1511 -0.0739  0.0456
18379W        W19243   0.259  19.136  18.613  0.1338 -0.0206  0.3647
18380W        W19244   3.429  19.417  17.950 -0.2295 -0.2263  0.1863
18381W        W19245   0.676  20.167  20.700  0.0415 -0.1531 -0.2072
18382W        W19246   1.501  22.607  19.868 -0.1842 -0.3261 -0.2382
18383W        W19247   0.213  23.598  19.404 -0.1961 -0.0192  0.0933
18384W        W19248   2.295  20.253  18.462 -0.0891 -0.0989 -0.0033
18385W        W19249  28.897  23.698  21.244  0.5199  0.2327  0.0016
18386W        W19250   3.579  23.582  14.988  0.5084  0.2141 -0.2006
18387W        W19251   0.296  22.082  17.950  0.3345 -0.0368  0.1920
18388W        W19252   0.245  20.005  18.316 -0.0269  0.0806 -0.2832
18389W        W19253   1.788  20.652  16.618 -0.1219 -0.1718 -0.2397
18390W        W19254   0.749  21.186  20.797 -0.0997  0.0674 -0.1479
18391W        W19255   5.074  19.506  17.929  0.1423 -0.1051 -0.1424
18392W        W19256   0.539  19.721  20.920 -0.0891  0.3288  0.0704
18393W        W19257   3.429  21.641  20.870  0.0983 -0.1022 -0.0302
18394W        W19258   0.954  21.656  19.166 -0.4939  0.0027 -0.0201
18395W        W19259  27.295  19.479  17.789 -0.2226 -0.1303 -0.0120
18396W        W19260   0.798  21.364  19.517 -0.1569 -0.0033  0.1378
18397W        W19261   1.102  21.207  20.034  0.0627  0.0152  0.0431
18398W        W19262   2.684  18.446  21.351  0.1025 -0.3312 -0.0631
18399W        W19263  28.940  17.023  20.063  0.0490  0.2028 -0.1882
18400W        W19264  28.578  18.997  18.231  0.0637  0.0138 -0.0502
18401W        W19265   0.732  19.232  17.019 -0.1044 -0.2526 -0.0316
18402W        W19266  28.605  18.216  19.770 -0.0769 -0.0893 -0.1091
18403W        W19267   2.317  21.479  18.776  0.2657 -0.0298 -0.2319
18404W        W19268   2.933  20.858  19.346  0.1848  0.2957 -0.0729
18405W        W19269  27.661  19.785  16.886  0.0012 -0.0256 -0.2363
18406W        W19270   0.505  19.624  19.850 -0.2103  0.1578 -0.4254
18407W        W19271   2.674  21.775  16.950 -0.0702 -0.0313 -0.1389
18408W        W19272  28.926  18.844  18.830 -0.2616  0.1564 -0.0732
18409W        W19273   2.095  19.611  19.144  0.1557 -0.1574  0.0614
18410W        W19274  28.800  16.231  19.000 -0.1600  0.1826 -0.2072
18411W        W19275   0.612  22.739  22.174  0.3916 -0.1814 -0.0655
18412W        W19276   1.407  17.718  17.772 -0.1508  0.0781  0.0192
18413W        W19277   3.294  21.401  19.951 -0.0070 -0.0784  0.0637
18414W        W19278  26.976  19.777  19.285 -0.0111  0.1856 -0.0283
18415W        W19279   0.981  19.531  21.101  0.1550 -0.1776 -0.0653
18416W        W19280   0.914  23.739  20.811 -0.0044 -0.1793  0.2047
18417W        W19281   2.626  19.950  20.413  0.1489  0.3805 -0.4351
18418W        W19282   2.738  19.547  20.705  0.2334 -0.0224 -0.2201
18419W        W19283   3.406  17.546  19.651  0.0793  0.1625  0.2864
18420W        W19284  28.595  21.142  19.721  0.0632 -0.1990 -0.2341
18421W        W19285   0.870  23.972  14.338  0.1613 -0.1627 -0.1130
18422W        W19286   4.027  19.523  20.423 -0.1921  0.1441  0.2831
18423W        W19287   5.180  19.870  19.562 -0.0549 -0.0109 -0.1045
18424W        W19288   2.154  22.575  23.028  0.0902  0.0145  0.1700
18425W        W19289   4.142  18.791  19.264  0.0988 -0.0826 -0.1303
18426W        W19290   4.173  21.098  21.777  0.0065 -0.0606 -0.1920
18427W        W19291   4.021  21.807  19.190 -0.2385  0.0256 -0.1472
18428W        W19292   1.073  17.674  18.143 -0.4232 -0.1475  0.0321
18429W        W19293   1.345  21.171  18.639  0.0897 -0.2388 -0.0531
18430W        W19294   2.797  21.594  18.715 -0.2103 -0.2125  0.0893
18431W        W19295  28.837  22.749  18.458  0.0120  0.2333  0.0859
18432W        W19296   2.923  20.318  20.075 -0.1580 -0.5469  0.2130
18433W        W19297   2.250  22.424  18.993  0.1025 -0.3479 -0.2856
18434W        W19298   3.661  20.554  17.410 -0.1034  0.0046  0.3436
18435W        W19299   0.950  20.866  18.743 -0.2500  0.2262  0.0868
18436W        W19300   1.475  20.224  21.679 -0.1731  0.1854 -0.0837
18437W        W19301   2.239  23.914  18.422  0.1629  0.0070  0.1760
18438W        W19302   2.298  23.003  14.605 -0.0178 -0.1466 -0.0960
18439W        W19303  28.303  18.835  23.000 -0.0292 -0.1467  0.3656
18440W        W19304   3.535  20.988  18.170  0.0911 -0.1474 -0.2674
18441W        W19305   3.758  22.517  18.752 -0.0152  0.0677  0.3809
18442W        W19306  28.797  18.632  21.614  0.0048 -0.3088 -0.0111
18443W        W19307   3.065  20.519  22.183 -0.0118 -0.1683  0.1667
18444W        W19308   4.396  23.133  20.178 -0.2668 -0.1380  0.1145
18445W        W19309   1.267  20.346  18.131 -0.0126 -0.3520 -0.1459
18446W        W19310   1.392  21.728  21.373  0.3090  0.0060  0.2841
18447W        W19311  28.306  18.583  19.589  0.3336 -0.2602  0.1782
18448W        W19312  27.269  20.767  17.607 -0.2896 -0.0443  0.0943
18449W        W19313   1.962  20.275  17.425 -0.2230 -0.0660  0.0108
18450W        W19314  29.014  23.206  18.682 -0.1250  0.4072  0.0369
18451W        W19315   1.978  21.550  20.194  0.3549  0.3562 -0.0709
18452W        W19316   5.294  22.780  21.882 -0.1872  0.2143  0.0696
18453W        W19317   3.183  22.535  20.346  0.0316 -0.0671  0.0137
18454W        W19318   2.615  19.722  17.214 -0.1870  0.1082  0.0352
18455W        W19319  27.333  21.217  20.221  0.0997 -0.0604 -0.2208
18456W        W19320   2.204  20.666  20.504  0.1240 -0.2151  0.1238
18457W        W19321   4.754  21.564  22.388  0.1035  0.1143  0.1009
18458W        W19322   0.919  18.926  18.666 -0.0238  0.4149 -0.0190
18459W        W19323   1.070  19.903  18.802 -0.1464 -0.0381  0.2134
18460W        W19324   2.358  22.721  16.388 -0.2635 -0.2575 -0.2029
18461W        W19325   2.468  18.854  16.681  0.0251  0.0673  0.0629
18462W        W19326   1.677  19.063  18.451  0.2788 -0.0642  0.2879
18463W        W19327   5.570  21.236  19.987  0.0318  0.1443  0.1625
18464W        W19328   4.458  18.421  18.086  0.3707 -0.1024  0.2441
18465W        W19329  28.571  20.731  17.219 -0.1481  0.0952  0.3215
18466W        W19330   1.173  19.890  21.451  0.2366  0.1237  0.1219
18467W        W19331   1.011  20.939  21.691 -0.0437 -0.1214  0.1108
18468W        W19332   1.314  19.045  20.070 -0.1112  0.2521  0.1792
18469W        W19333  28.827  23.474  16.856  0.0840 -0.0671  0.0108
18470W        W19334   2.236  19.272  20.032 -0.3975 -0.1841 -0.3678
18471W        W19335  27.301  23.965  20.626 -0.2390 -0.2171 -0.2115
18472W        W19336   3.735  20.774  20.414 -0.3041 -0.0447 -0.0399
18473W        W19337   2.760  19.233  19.723 -0.1374  0.3913  0.2114
18474W        W19338   4.582  21.641  17.448  0.1976 -0.1315  0.1247
18475W        W19339   0.195  22.385  18.444  0.0929 -0.2621  0.0311
18476W        W19340   0.883  17.892  20.758  0.1172  0.2807  0.0302
18477W        W19341   3.732  21.072  18.709 -0.1743 -0.3978 -0.0996
18478W        W19342   2.401  20.001  19.600 -0.1233  0.1226 -0.2681
18479W        W19343   1.998  20.118  19.383  0.0678  0.1607 -0.3018
18480W        W19344   4.745  20.220  19.877 -0.0780  0.0766  0.0114
18481W        W19345   2.048  18.589  19.469  0.0120  0.5435  0.0543
18482W        W19346   1.725  21.464  16.914  0.0886  0.1630 -0.0313
18483W        W19347  27.778  17.621  18.988 -0.1579  0.0056 -0.0014
18484W        W19348   2.414  20.246  21.365 -0.0517 -0.2817 -0.2132
18485W        W19349   2.477  21.034  17.414 -0.0065  0.0752  0.0296
18486W        W19350   2.294  18.433  18.131 -0.2922 -0.1144 -0.0498
18487W        W19351   0.058  18.841  18.162 -0.1459  0.2555 -0.1513
18488W        W19352   1.409  22.616  21.649  0.0380 -0.0407 -0.0904
18489W        W19353   0.968  19.626  17.914 -0.1209 -0.2489 -0.0688
18490W        W19354   3.677  18.040  20.895  0.0835  0.0297 -0.0407
18491W        W19355   5.085  20.335  18.056 -0.0002  0.0808  0.1546
18492W        W19356   0.432  19.921  22.709  0.2892 -0.0574 -0.1456
18493W        W19357   5.555  22.332  18.827 -0.3086  0.1230  0.1199
18494W        W19358  28.493  19.355  18.932  0.1779  0.0703  0.2329
18495W        W19359   2.734  23.002  19.623 -0.2769 -0.1454 -0.1318
18496W        W19360   2.925  21.176  17.391 -0.4005 -0.0510 -0.2651
18497W        W19361   3.040  17.582  21.537 -0.1900 -0.3098  0.2535
18498W        W19362  28.527  22.010  20.434 -0.2153 -0.0238  0.2242
18499W        W19363   2.324  20.129  19.024 -0.1690  0.1100  0.6730
18500W        W19364   5.558  19.772  17.353 -0.1856 -0.3095 -0.0783
18501W        W19365   0.989  17.497  19.618  0.2664  0.2881 -0.1149
18502W        W19366   4.000  21.606  19.963  0.3257 -0.2958 -0.1250
18503W        W19367   1.552  19.588  18.685  0.0104  0.1702 -0.1940
18504W        W19368  28.228  21.887  19.991 -0.3055  0.4657 -0.1923
18505W        W19369  28.390  21.430  14.876  0.1220 -0.1802  0.1024
18506W        W19370   2.090  18.690  18.507 -0.0549 -0.2645 -0.3150
18507W        W19371   3.276  20.191  20.379  0.1474  0.2545  0.2904
18508W        W19372   2.349  20.604  19.288  0.1615  0.0710 -0.2559
18509W        W19373   4.837  21.361  17.097  0.2107  0.3351 -0.0044
18510W        W19374   0.827  20.852  19.338 -0.1633 -0.2256  0.0368
18511W        W19375   2.085  19.700  22.427  0.0915  0.2754  0.0545
18512W        W19376   0.338  20.218  19.202  0.0444 -0.0102  0.0227
18513W        W19377   3.050  19.657  20.127 -0.0830 -0.1810  0.0211
18514W        W19378   0.021  20.323  20.545  0.1205  0.1803  0.1706
18515W        W19379   0.767  19.918  17.531  0.1944  0.2005 -0.1621
18516W        W19380   0.947  21.485  22.289 -0.3079  0.1728  0.3160
18517W        W19381   0.111  17.720  21.132 -0.1086 -0.0592 -0.1797
18518W        W19382   1.875  22.631  19.391 -0.0394 -0.0066  0.1410
18519W        W19383   1.889  21.614  19.434  0.2181  0.1985  0.0431
18520W        W19384   2.467  22.402  22.631  0.1952 -0.1095  0.1245
18521W        W19385  28.713  21.250  18.886  0.1041  0.0132  0.1542
18522W        W19386   0.264  21.205  17.114  0.1979 -0.1582 -0.0564
18523W        W19387   2.318  20.056  21.904 -0.0516 -0.0754  0.0045
18524W        W19388  29.021  21.071  16.326  0.2065 -0.0172 -0.0389
18525W        W19389  29.059  21.294  20.298 -0.0414 -0.2220  0.0703
18526W        W19390   2.751  22.677  18.957  0.1410  0.0799 -0.1234
18527W        W19391   0.562  18.889  22.401 -0.1484  0.0087  0.3235
18528W        W19392   3.595  21.405  17.941  0.2526 -0.1564  0.1830
18529W        W19393  28.256  17.303  19.861 -0.1160  0.0985 -0.0739
18530W        W19394   1.110  21.229  19.143  0.0458  0.0848 -0.3572
18531W        W19395   0.054  21.455  19.024  0.0519 -0.0491 -0.0727
18532W        W19396  26.563  20.262  18.144  0.3825  0.1258  0.1461
18533W        W19397   1.982  19.548  19.640 -0.0185 -0.3088 -0.3241
18534W        W19398   0.628  17.657  19.219 -0.1151 -0.1957 -0.0922
18535W        W19399   0.828  19.765  20.243  0.0209  0.0104  0.0038
18536W        W19400   3.639  19.059  13.260 -0.1397 -0.1606  0.0634
18537W        W19401   6.727  19.945  19.922 -0.0062  0.0217  0.0300
18538W        W19402   2.121  20.310  17.904  0.1385  0.1175  0.2797
18539W        W19403   4.244  19.272  19.066  0.1178  0.0292  0.3452
18540W        W19404   4.136  21.817  21.686  0.2212  0.4399 -0.0493
18541W        W19405   2.452  21.254  20.151  0.2324  0.1706  0.1490
18542W        W19406   3.789  22.914  20.684  0.1755  0.0871 -0.2512
18543W        W19407   2.462  19.926  13.786 -0.4204 -0.0594 -0.0127
18544W        W19408   3.794  18.149  21.715  0.1089  0.0260 -0.1599
18545W        W19409   1.023  22.483  17.242  0.0782  0.3199 -0.3250
18546W        W19410   1.260  20.255  17.143 -0.0216 -0.2056  0.0337
18547W        W19411   0.131  16.104  19.755  0.1368 -0.0391  0.1239
18548W        W19412  28.070  20.320  18.053  0.2462 -0.0233 -0.2770
18549W        W19413  25.062  20.413  19.224  0.1737  0.2571  0.0542
18550W        W19414   0.108  20.179  22.381  0.2562  0.1369  0.2126
18551W        W19415  28.612  21.087  20.262 -0.0583 -0.1835 -0.0030
18552W        W19416  28.703  21.479  19.315 -0.0347 -0.5070  0.2144
18553W        W19417   3.505  21.802  19.337  0.1721 -0.1544 -0.4512
18554W        W19418  27.769  17.563  17.188 -0.0599 -0.0774  0.1081
18555W        W19419   4.021  20.672  18.045  0.0950 -0.2521 -0.1731
18556W        W19420   2.277  20.878  17.919  0.2475 -0.2796  0.2787
18557W        W19421   4.209  21.021  20.329  0.1829 -0.0552 -0.0396
18558W        W19422  29.126  22.646  21.370 -0.1104 -0.3049  0.4759
18559W        W19423  29.003  21.927  19.540  0.2174  0.4352 -0.1316
18560W        W19424   4.939  18.500  17.914 -0.1969 -0.1351 -0.4176
18561W        W19425   0.288  21.531  19.533  0.2571 -0.0301  0.2118
18562W        W19426   4.358  20.549  21.451  0.0425  0.0003 -0.2847
18563W        W19427   0.715  19.259  20.164  0.0597 -0.1200  0.0652
18564W        W19428  28.937  19.055  21.020  0.0787  0.1386  0.1498
18565W        W19429   2.628  21.065  18.231  0.1422  0.0140 -0.2451
18566W        W19430   2.482  19.003  24.092  0.0655  0.2412  0.2853
18567W        W19431  29.099  19.326  19.546  0.2414 -0.2164 -0.1254
18568W        W19432   3.036  18.371  18.587 -0.2390 -0.1169  0.0424
18569W        W19433   2.094  22.390  22.198 -0.1225  0.1734 -0.0307
18570W        W19434   2.796  20.854  21.905 -0.1704  0.2108 -0.0770
18571W        W19435   3.132  21.544  21.388 -0.0058  0.1740 -0.0681
18572W        W19436   1.591  21.177  16.508 -0.0126  0.1913 -0.2233
18573W        W19437   2.371  19.965  17.617  0.0580 -0.0426  0.0764
18574W        W19438   3.597  18.028  15.982 -0.1957 -0.3347 -0.0456
18575W        W19439  28.499  18.303  18.703  0.2456  0.2220  0.2430
18576W        W19440   4.168  20.542  18.572  0.1663 -0.1023 -0.0208
18577W        W19441   1.442  22.741  17.325 -0.0157 -0.1674  0.0600
18578W        W19442   4.434  19.984  20.687 -0.0426  0.0079  0.0031
18579W        W19443   2.635  20.576  18.211  0.2007  0.1740 -0.0574
18580W        W19444   4.560  18.351  20.312  0.2269  0.3077 -0.2494
18581W        W19445   2.440  20.230  20.078 -0.1120 -0.1980 -0.1803
18582W        W19446   1.628  19.378  22.235  0.1112 -0.3998 -0.1508
18583W        W19447   1.054  20.563  22.509 -0.0466 -0.4123 -0.0145
18584W        W19448   0.746  19.531  18.579  0.0232 -0.1180  0.2821
18585W        W19449   3.227  22.754  17.862  0.2631  0.2286 -0.1012
18586W        W19450   1.736  21.508  18.247 -0.2391  0.2655  0.1132
18587W        W19451   0.431  21.077  19.730  0.1934 -0.0552 -0.1489
18588W        W19452   1.565  20.744  18.786  0.0518 -0.0947 -0.3170
18589W        W19453   5.346  23.195  23.256 -0.0099 -0.0721  0.0018
18590W        W19454   1.020  19.241  22.187 -0.1132  0.3810 -0.2963
18591W        W19455   3.047  20.809  18.272 -0.0080  0.0207 -0.2088
18592W        W19456   1.266  17.975  16.788  0.1731 -0.1978  0.1476
18593W        W19457  28.228  21.549  20.378  0.0966  0.0816  0.0944
18594W        W19458   4.151  21.300  19.423  0.3039  0.1141 -0.0884
18595W        W19459   2.005  20.819  21.029 -0.2033  0.1697  0.0904
18596W        W19460   2.920  21.501  20.248  0.1873 -0.0962 -0.2661
18597W        W19461   3.086  22.397  19.857 -0.0693  0.2739 -0.0924
18598W        W19462   2.564  23.071  21.171  0.1595  0.2141 -0.2091
18599W        W19463   0.361  23.057  20.357  0.4818  0.3480 -0.2016
18600W        W19464   3.263  19.718  20.686 -0.1491 -0.0735  0.0244
18601W        W19465   1.771  20.893  14.758  0.0191 -0.1387 -0.4312
18602W        W19466   1.125  20.563  20.837 -0.2339 -0.2766 -0.3171
18603W        W19467  27.356  21.171  17.928  0.2415  0.0776  0.0926
18604W        W19468  28.945  20.576  17.515 -0.1164  0.2802  0.1737
18605W        W19469   1.192  20.861  25.413 -0.0623  0.1189  0.1862
18606W        W19470  28.875  20.326  25.134 -0.1039 -0.0948  0.1163
18607W        W19471   2.953  19.185  22.627  0.0572 -0.1370  0.1669
18608W        W19472   2.397  23.271  25.121 -0.0955  0.1523  0.0108
18609W        W19473   2.179  21.462  21.582  0.1873  0.1883 -0.0926
18610W        W19474   1.768  20.619  22.528  0.3088  0.4711 -0.1826
18611W        W19475   2.411  22.463  23.484 -0.0219  0.1206 -0.0674
18612W        W19476   0.771  19.421  23.929  0.1375 -0.0016 -0.3066
18613W        W19477   0.274  21.361  26.104  0.1733  0.1988 -0.0242
18614W        W19478  28.742  18.497  24.096  0.0158 -0.2078  0.2839
18615W        W19479   1.313  16.327  25.601 -0.0527 -0.0724  0.1641
18616W        W19480   2.819  18.135  22.377 -0.1335  0.0873  0.0629
18617W        W19481   3.291  20.063  22.098 -0.3164 -0.0957 -0.0530
18618W        W19482   1.282  21.061  26.852  0.2102  0.0902  0.1453
18619W        W19483  28.450  17.316  21.815  0.1104  0.0012  0.2606
18620W        W19484   0.450  22.863  24.522  0.2800  0.1878 -0.1288
18621W        W19485   0.870  17.961  21.446 -0.1088 -0.3102 -0.0191
18622W        W19486   1.497  20.068  23.597 -0.3485 -0.2279  0.1693
18623W        W19487   2.144  18.747  25.140  0.0838  0.0253  0.1849
18624W        W19488   3.373  15.037  25.146 -0.1843 -0.1222  0.1001
18625W        W19489   2.803  20.187  25.379 -0.0474  0.0310 -0.0426
18626W        W19490   3.417  19.556  23.411  0.1458 -0.4361 -0.2213
18627W        W19491   3.600  21.759  24.745 -0.2897 -0.0867 -0.3014
18628W        W19492   1.727  21.780  23.132  0.2264 -0.0371 -0.2615
18629W        W19493   1.024  20.303  21.867 -0.0204  0.1577  0.4295
18630W        W19494   0.366  21.477  26.889  0.2065 -0.0848  0.1544
18631W        W19495   2.320  21.378  24.969 -0.1536 -0.0171 -0.2200
18632W        W19496  28.728  18.755  22.562  0.0791 -0.1430 -0.0365
18633W        W19497   1.722  20.679  24.341  0.2431 -0.1020 -0.0454
18634W        W19498   1.814  18.965  24.814  0.1380  0.1633  0.1364
18635W        W19499   2.201  21.345  22.553 -0.1526 -0.2074 -0.1567
18636W        W19500   2.943  21.129  25.806  0.0869 -0.2247  0.0443
18637W        W19501   1.977  22.823  25.513  0.0862 -0.0195 -0.3213
18638W        W19502  28.550  20.615  27.374 -0.2613  0.2028 -0.1557
18639W        W19503   1.134  18.112  25.664 -0.1949  0.0652 -0.3219
18640W        W19504   1.579  22.517  26.430  0.0225  0.1198 -0.2115
18641W        W19505  29.020  17.303  20.997  0.2008 -0.0786  0.4318
18642W        W19506  29.089  23.838  22.669 -0.0795 -0.0336 -0.0763
18643W        W19507   1.145  21.590  21.844 -0.2578  0.6000  0.0805
18644W        W19508   2.737  16.869  20.035 -0.0252  0.1966 -0.1122
18645W        W19509   3.539  19.775  20.229 -0.0917  0.3136  0.0262
18646W        W19510   5.868  21.191  22.283 -0.0506  0.1109  0.0451
18647W        W19511   3.136  21.575  25.983  0.1941  0.0966 -0.2240
18648W        W19512   3.710  19.759  21.988  0.1515  0.1979  0.0315
18649W        W19513   2.849  23.126  18.528 -0.0277 -0.1081 -0.3233
18650W        W19514   2.516  21.707  25.342  0.4485  0.0601 -0.1134
18651W        W19515  28.044  18.411  24.609 -0.0918  0.0782 -0.0932
18652W        W19516   2.475  19.222  26.140  0.1014 -0.0736  0.0249
18653W        W19517   1.040  19.389  21.673  0.0827  0.2151 -0.1620
18654W        W19518   2.742  20.007  23.982 -0.3397  0.0984 -0.1893
18655W        W19519   1.264  20.647  24.208 -0.0736  0.1208 -0.2012
18656W        W19520   2.322  20.239  23.868  0.0342  0.0327 -0.6293
18657W        W19521   3.553  20.851  23.109 -0.1562 -0.0123  0.0730
18658W        W19522   2.794  20.024  18.730 -0.1346  0.0831  0.0719
18659W        W19523   1.683  18.493  21.351  0.2030 -0.0252  0.0955
18660W        W19524   2.362  21.023  23.580 -0.0646 -0.0899 -0.0327
18661W        W19525  28.147  16.764  21.081 -0.2883  0.0246 -0.0507
18662W        W19526   1.873  21.043  25.990  0.1074  0.0004  0.0362
18663W        W19527   1.622  18.824  22.900  0.0892  0.4071 -0.0392
18664W        W19528   2.693  23.141  22.132  0.3666 -0.0123 -0.1427
18665W        W19529   3.175  20.584  20.658  0.2841  0.2286 -0.0476
18666W        W19530   1.124  21.909  22.609 -0.0452  0.0741 -0.0332
18667W        W19531   0.555  22.980  22.644 -0.2268 -0.0133 -0.1650
18668W        W19532   3.805  20.291  22.990 -0.1323 -0.0193  0.0337
18669W        W19533   2.730  17.909  24.059  0.2407 -0.1020  0.0046
18670W        W19534   6.396  16.980  24.720  0.3361  0.0753  0.2131
18671W        W19535   2.643  19.733  24.561  0.3318  0.1638 -0.2239
18672W        W19536   0.230  19.171  21.524  0.3254  0.1755 -0.3275
18673W        W19537   2.042  23.676  22.608  0.0546  0.1633  0.0065
18674W        W19538   1.803  22.723  23.985 -0.1443  0.3820 -0.1160
18675W        W19539   1.061  21.968  25.861  0.0720  0.1449  0.0777
18676W        W19540   0.521  18.929  23.898  0.0026  0.1236  0.1233
18677W        W19541   7.234  20.847  23.136  0.0572  0.0949  0.1045
18678W        W19542   0.593  18.907  25.059 -0.1683  0.2161 -0.1926
18679W        W19543   1.310  19.433  24.783  0.1202 -0.2276 -0.1100
18680W        W19544   1.302  20.162  24.090  0.0097  0.2724 -0.4003
18681W        W19545  29.018  18.821  19.752  0.1357 -0.2483  0.0617
18682W        W19546  28.754  19.454  26.475  0.3503  0.2578  0.4303
18683W        W19547  27.889  16.656  23.227  0.0417  0.2433  0.3822
18684W        W19548   2.292  18.791  20.440 -0.4149  0.2149  0.0118
18685W        W19549   1.653  20.051  22.612 -0.2017 -0.0859 -0.1698
18686W        W19550   1.981  18.072  24.885 -0.4551  0.0781  0.3471
18687W        W19551  28.547  19.719  22.813  0.1070  0.0179  0.3143
18688W        W19552   0.387  18.081  22.578 -0.4323  0.2758  0.1995
18689W        W19553   3.978  19.996  20.582 -0.0729 -0.0513 -0.1877
18690W        W19554   3.164  18.812  19.928 -0.1088 -0.2045 -0.0466
18691W        W19555   4.775  21.202  26.341  0.1442 -0.1880  0.0805
18692W        W19556   0.716  18.375  21.178  0.1498 -0.3039 -0.3187
18693W        W19557   3.731  20.382  25.446  0.0646  0.0699  0.2978
18694W        W19558   3.015  15.850  25.329  0.0111 -0.0182 -0.0766
18695W        W19559   2.413  18.579  23.126  0.2507 -0.1871 -0.0605
18696W        W19560   2.243  21.227  26.345  0.0360 -0.2846 -0.0892
18697W        W19561   1.076  22.046  21.651  0.3285  0.1243 -0.0036
18698W        W19562   1.608  20.723  25.710  0.3225  0.1298  0.0727
18699W        W19563   2.278  18.123  23.072 -0.1370 -0.0247 -0.0216
18700W        W19564   2.656  18.547  22.667  0.0764 -0.1145  0.0545
18701W        W19565   2.252  20.359  22.894  0.0355  0.0538 -0.1335
18702W        W19566  28.708  23.429  23.478 -0.0125  0.2136  0.0883
18703W        W19567   1.427  22.441  25.470 -0.0383  0.1938  0.3723
18704W        W19568   2.193  17.632  26.734  0.0035  0.2145 -0.0296
18705W        W19569   3.435  22.373  21.416 -0.0414 -0.2635 -0.0220
18706W        W19570   0.562  20.892  22.567  0.0887 -0.1489 -0.0350
18707W        W19571   2.848  20.435  24.159  0.2940 -0.0246  0.1144
18708W        W19572   3.339  22.524  23.710  0.2916  0.0924 -0.1472
18709W        W19573   4.888  17.486  22.569  0.0594 -0.0458 -0.3021
18710W        W19574   2.896  20.971  24.732  0.0393 -0.0865  0.0574
18711W        W19575   1.103  19.507  23.009 -0.0671  0.1215 -0.1573
18712W        W19576   4.243  19.064  24.607 -0.1201  0.0214  0.5220
18713W        W19577   2.416  17.949  22.084 -0.0548  0.1248  0.0875
18714W        W19578  28.774  19.866  25.466  0.0142 -0.1343 -0.0121
18715W        W19579   1.881  20.460  27.160  0.1731  0.2661  0.0835
18716W        W19580   1.130  20.463  21.394  0.0627 -0.3800 -0.3200
18717W        W19581   4.107  16.675  23.566 -0.0992 -0.1083 -0.0929
18718W        W19582   2.571  18.835  24.960  0.0941 -0.1161 -0.1875
18719W        W19583   3.195  20.498  21.703  0.1260  0.0007  0.1220
18720W        W19584   1.606  19.669  21.700 -0.1258  0.1152  0.1778
18721W        W19585   2.384  18.820  27.361  0.1255  0.0801  0.0076
18722W        W19586   0.228  20.547  27.561  0.1048  0.1166 -0.0186
18723W        W19587   3.518  20.014  25.730 -0.0547  0.0336  0.0866
18724W        W19588   5.650  20.017  19.147  0.3556 -0.1951 -0.0244
18725W        W19589   2.622  21.269  21.573 -0.3113 -0.1813 -0.1628
18726W        W19590   4.490  20.786  20.680 -0.0554  0.2994 -0.1990
18727W        W19591   2.632  19.757  25.250  0.1305  0.1630  0.0018
18728W        W19592   2.683  20.356  23.229  0.1851  0.0966 -0.0325
18729W        W19593   2.012  20.743  23.845  0.5385 -0.1296 -0.1873
18730W        W19594   3.641  19.802  25.203 -0.1431 -0.2642 -0.0217
18731W        W19595   1.679  22.697  24.502  0.1338 -0.1554 -0.0977
18732W        W19596   4.182  19.114  25.394  0.1311  0.0520  0.0231
18733W        W19597   4.337  20.074  23.218  0.1119 -0.1897 -0.0010
18734W        W19598   2.056  21.505  22.109  0.0460 -0.1000 -0.3366
18735W        W19599   3.376  22.543  26.153  0.2110  0.2660 -0.0711
18736W        W19600   3.342  18.346  25.844  0.0956 -0.1150  0.1673
18737W        W19601   4.985  20.173  23.715  0.1883  0.0251  0.0299
18738W        W19602   3.910  17.523  24.251 -0.0701 -0.4434  0.2989
18739W        W19603   4.481  19.258  24.983 -0.0994 -0.3275  0.0012
18740W        W19604   2.089  19.551  26.089 -0.3315 -0.3127 -0.2905
18741W        W19605   2.458  19.488  22.774 -0.0682  0.0517 -0.0360
18742W        W19606   3.261  18.685  25.499  0.0920  0.0553 -0.2307
18743W        W19607   4.895  21.442  21.452 -0.0111 -0.2050  0.1976
18744W        W19608   3.799  23.744  22.114  0.4149 -0.2915  0.3293
18745W        W19609   0.177  19.167  19.992 -0.2318 -0.4764 -0.2086
18746W        W19610  29.143  20.128  26.278 -0.0534  0.2000  0.0776
18747W        W19611   1.557  22.038  21.835 -0.0500 -0.0218  0.2262
18748W        W19612   2.636  19.911  23.049  0.2873  0.0220 -0.0686
18749W        W19613   0.063  19.482  24.790 -0.1361 -0.1623 -0.2665
18750W        W19614   2.312  19.308  21.044  0.1837 -0.1352 -0.1623
18751W        W19615   3.427  17.566  22.480  0.2055 -0.1411  0.0727
18752W        W19616   3.559  22.967  22.651 -0.1659  0.1429  0.0115
18753W        W19617   3.960  22.567  24.587  0.1247 -0.1723  0.2404
18754W        W19618   0.203  19.734  23.207 -0.0710 -0.0390  0.0499
18755W        W19619   2.048  21.987  21.817  0.1063 -0.2924 -0.0199
18756W        W19620  28.961  18.000  22.406 -0.0433 -0.2376 -0.0127
18757W        W19621   0.987  23.321  22.856  0.0361  0.1656  0.1234
18758W        W19622   1.716  17.989  18.939 -0.1023 -0.3264  0.0183
18759W        W19623   2.914  20.248  21.358  0.0106  0.0221  0.3624
18760W        W19624   4.662  20.883  24.850 -0.2516  0.1776  0.0263
18761W        W19625   0.550  20.917  24.775  0.1981  0.0851 -0.0293
18762W        W19626   0.845  19.502  23.475 -0.0423 -0.2073  0.0501
18763W        W19627   1.995  18.818  24.228 -0.2054 -0.2415  0.0976
18764W        W19628   1.642  19.503  23.794  0.1397 -0.2122  0.2652
18765W        W19629   3.511  17.201  26.136 -0.1221 -0.0388 -0.2055
18766W        W19630   2.258  20.956  23.155  0.3954  0.3254  0.0196
18767W        W19631   2.543  22.302  24.140  0.2041  0.1536  0.1316
18768W        W19632   2.430  21.057  25.937 -0.0160 -0.1614 -0.2008
18769W        W19633   2.273  18.274  22.471 -0.1052 -0.0167  0.1701
18770W        W19634   1.227  20.095  25.009 -0.0741  0.2722  0.0824
18771W        W19635   1.553  18.501  21.839  0.1161 -0.2922  0.0488
18772W        W19636   0.894  21.661  22.988 -0.0225 -0.2115  0.0769
18773W        W19637   2.320  20.603  26.516  0.0913 -0.2095 -0.2071
18774W        W19638   2.246  20.576  21.944 -0.4354 -0.0623 -0.2360
18775W        W19639   4.865  20.577  22.341  0.1084  0.1970 -0.1783
18776W        W19640   1.669  19.755  27.405  0.1568  0.0563  0.0827
18777W        W19641   3.207  19.969  21.599 -0.1310  0.0250 -0.2064
18778W        W19642   4.825  21.175  22.957  0.0144 -0.1277 -0.1653
18779W        W19643   0.626  16.411  22.805 -0.2034  0.0906  0.2417
18780W        W19644   2.866  18.643  22.059  0.0401  0.1601 -0.0513
18781W        W19645   1.713  21.882  23.636  0.2140 -0.3388 -0.3042
18782W        W19646   0.104  22.619  22.377  0.1247  0.0415  0.1488
18783W        W19647   1.337  23.076  22.559 -0.1233  0.0066 -0.1496
18784W        W19648   0.215  18.825  23.282  0.1612 -0.0444 -0.0342
18785W        W19649   2.761  20.309  22.714  0.0192  0.2391  0.1171
18786W        W19650   2.995  21.380  21.900 -0.2255 -0.0381 -0.1622
18787W        W19651   3.288  21.727  23.288 -0.0914 -0.0016 -0.0015
18788W        W19652   2.792  18.552  18.149 -0.1582 -0.0174  0.0085
18789W        W19653   0.735  19.924  21.709 -0.1693 -0.0864 -0.1427
18790W        W19654   2.352  19.144  24.591  0.1035 -0.0837 -0.2307
18791W        W19655   2.460  18.434  21.962 -0.0386  0.1249 -0.1810
18792W        W19656  27.870  18.037  23.476 -0.2496  0.2772  0.1664
18793W        W19657   1.506  22.399  23.732  0.2026 -0.3408  0.0266
18794W        W19658   1.852  20.103  24.508  0.0712  0.1129  0.1395
18795W        W19659   2.329  21.366  17.863  0.1878  0.2327 -0.1543
18796W        W19660   0.504  21.040  21.251 -0.0316  0.2189  0.1427
18797W        W19661   0.370  22.954  23.584 -0.1871 -0.1593 -0.1313
18798W        W19662   2.884  18.118  25.861  0.0630 -0.2524 -0.0291
18799W        W19663   0.517  19.813  26.318 -0.0060 -0.1198  0.2611
18800W        W19664   0.850  18.449  21.660  0.1374 -0.1361 -0.1642
18801W        W19665   5.386  22.787  20.172 -0.4649 -0.0727 -0.1675
18802W        W19666  27.003  17.644  22.027  0.1845 -0.3936  0.1169
18803W        W19667   1.445  19.223  20.585 -0.0812  0.0173 -0.4031
18804W        W19668   3.271  20.021  26.188  0.1133  0.0117 -0.2069
18805W        W19669   1.617  19.062  24.105 -0.1715 -0.6231 -0.3603
18806W        W19670   2.445  17.829  24.796  0.1427  0.0152 -0.1793
18807W        W19671   0.852  19.303  22.648  0.2649 -0.0029 -0.0481
18808W        W19672   2.167  17.366  22.488 -0.1673 -0.2714  0.0846
18809W        W19673   3.751  20.116  26.289  0.1889  0.3208 -0.1719
18810W        W19674   1.921  17.614  19.735  0.1515 -0.0863  0.0140
18811W        W19675   2.345  19.781  28.241 -0.0769  0.0882  0.0743
18812W        W19676   3.688  20.230  21.739  0.1732  0.2765 -0.3189
18813W        W19677   3.476  19.883  22.942  0.1105 -0.1500 -0.1003
18814W        W19678  29.018  19.874  19.497  0.1462 -0.1780 -0.2566
18815W        W19679   1.686  19.818  24.925  0.1723 -0.1790  0.2713
18816W        W19680   3.288  15.283  23.911 -0.0241  0.1591  0.0469
18817W        W19681   1.746  21.097  25.380  0.0159 -0.0840  0.1569
18818W        W19682   5.785  19.462  25.259 -0.2221 -0.1443  0.0296
18819W        W19683   3.400  21.906  26.315 -0.2392 -0.0723  0.2189
18820W        W19684   2.048  18.873  20.864  0.0684 -0.1354 -0.2182
18821W        W19685   0.421  18.683  21.482 -0.0579  0.1688 -0.1019
18822W        W19686   2.984  20.165  20.817 -0.2644  0.1203  0.1827
18823W        W19687   3.055  18.942  25.091  0.1199  0.2621 -0.1864
18824W        W19688  27.017  20.375  26.111 -0.2815 -0.2315  0.0360
18825W        W19689   6.739  18.641  26.143 -0.0970 -0.1173 -0.0992
18826W        W19690   3.951  21.980  23.433  0.0271 -0.0015 -0.3812
18827W        W19691   1.992  23.250  24.808  0.3056 -0.0807  0.2398
18828W        W19692   3.422  19.501  21.206  0.0744 -0.0874 -0.1133
18829W        W19693   3.664  20.414  20.736 -0.0257 -0.1756 -0.2172
18830W        W19694   1.371  21.054  24.568 -0.2236 -0.1226  0.1881
18831W        W19695   0.387  21.114  22.951  0.1027 -0.1216  0.1019
18832W        W19696   1.347  16.824  25.683 -0.0665  0.2230  0.1284
18833W        W19697   3.842  21.301  20.912  0.1346  0.3154 -0.0108
18834W        W19698   0.928  19.499  26.286 -0.0767 -0.1702 -0.4169
18835W        W19699   1.919  20.947  27.320  0.0226 -0.1774  0.0555
18836W        W19700   2.748  20.706  25.648 -0.1923  0.1706  0.0306
18837W        W19701   1.450  21.702  22.206 -0.0170  0.0420 -0.0996
18838W        W19702   2.713  21.403  22.750  0.0894 -0.0642  0.0258
18839W        W19703   0.104  18.816  22.734  0.1766 -0.0039  0.0429
18840W        W19704   1.140  20.999  23.820 -0.4654  0.1162 -0.0159
18841W        W19705   3.073  21.059  21.538 -0.1602  0.1398 -0.3505
18842W        W19706  29.109  17.893  25.634  0.1344  0.2463 -0.4332
18843W        W19707   6.500  20.831  24.352  0.0688 -0.0771  0.1344
18844W        W19708   4.366  22.157  23.696  0.0262 -0.2968  0.1080
18845W        W19709   3.421  20.607  21.261 -0.3477  0.0217  0.2556
18846W        W19710   2.257  20.523  23.387 -0.0717 -0.2196 -0.1131
18847W        W19711   0.016  17.786  23.490 -0.1064  0.0287 -0.0078
18848W        W19712   0.897  16.536  24.618 -0.2385 -0.3628  0.1075
18849W        W19713   1.883  19.557  20.629  0.4143 -0.0108  0.1545
18850W        W19714   1.137  17.750  24.741 -0.2325  0.1879  0.1164
18851W        W19715   3.161  21.405  24.619 -0.4033 -0.1761  0.0482
18852W        W19716   3.691  21.168  27.836  0.1816 -0.4646  0.3129
18853W        W19717   4.006  19.434  22.297 -0.2574  0.1136  0.0131
18854W        W19718   0.846  20.256  25.251 -0.0640  0.5143 -0.2742
18855W        W19719  27.690  19.770  23.903  0.2564 -0.2220  0.0483
18856W        W19720   0.637  23.349  24.562  0.2970 -0.1637  0.1536
18857W        W19721   2.785  22.652  26.022  0.2504 -0.4271 -0.0732
18858W        W19722   0.801  17.639  25.143 -0.1342 -0.0961  0.1074
18859W        W19723   0.257  20.070  19.837  0.1272 -0.3967  0.1463
18860W        W19724   5.678  21.512  22.688  0.1356  0.0252  0.1523
18861W        W19725   3.934  18.051  18.836 -0.3247 -0.0699  0.2336
18862W        W19726   1.259  16.860  24.643  0.0005 -0.1524  0.0329
18863W        W19727   1.816  19.710  23.342  0.0377  0.3225  0.1526
18864W        W19728   2.136  21.341  25.548 -0.0284  0.2140  0.0819
18865W        W19729   1.407  18.912  24.566 -0.2381 -0.3597 -0.3338
18866W        W19730   2.558  19.475  24.077  0.2813 -0.2622 -0.0255
18867W        W19731   2.216  23.065  28.075 -0.0244 -0.0357  0.1777
18868W        W19732   2.492  21.887  21.635 -0.1271  0.3966 -0.0649
18869W        W19733  28.389  22.690  23.056 -0.1733 -0.0712 -0.1750
18870W        W19734   1.090  20.529  26.966  0.0257 -0.1769 -0.0519
18871W        W19735   1.834  20.015  22.024  0.0943 -0.0277 -0.0681
18872W        W19736   5.664  22.023  21.167 -0.2130 -0.0538 -0.0857
18873W        W19737   0.858  23.138  23.468 -0.3359 -0.0773  0.1015
18874W        W19738   5.518  18.989  19.613 -0.2767 -0.1083 -0.2553
18875W        W19739   1.883  20.443  20.162  0.0376  0.0126 -0.2710
18876W        W19740   3.554  22.974  24.639  0.2145 -0.2092 -0.1460
18877W        W19741   1.399  20.244  22.237 -0.1640 -0.0919  0.1743
18878W        W19742   4.125  19.431  26.308 -0.0305  0.0216 -0.1316
18879W        W19743   2.203  20.036  23.388 -0.0496  0.0594 -0.2485
18880W        W19744   2.381  20.239  26.865  0.0084 -0.2781  0.1640
18881W        W19745   2.768  17.362  24.240  0.1991 -0.2975 -0.0663
18882W        W19746   1.608  21.028  24.030 -0.1576 -0.0873 -0.2093
18883W        W19747   2.113  19.599  21.927  0.0048  0.0206  0.2781
18884W        W19748   1.756  17.978  23.994  0.1104  0.1090  0.0090
18885W        W19749   2.354  20.185  24.400  0.0775  0.2324 -0.1590
18886W        W19750   0.061  19.685  20.118 -0.1594  0.0380 -0.0052
18887W        W19751   0.762  19.963  24.159 -0.1730 -0.0931  0.2833
18888W        W19752   3.866  23.289  23.938  0.0424  0.0180  0.0492
18889W        W19753   2.460  20.762  20.063  0.2825 -0.0887 -0.2104
18890W        W19754   1.198  18.707  26.570  0.4505 -0.1639 -0.0916
18891W        W19755   2.625  20.550  23.672 -0.2006  0.0967  0.1274
18892W        W19756   0.236  19.605  24.098 -0.1579 -0.3218 -0.1782
18893W        W19757   2.212  18.861  23.688 -0.3000 -0.1126 -0.0661
18894W        W19758   2.021  18.909  23.208  0.1845 -0.0453  0.0782
18895W        W19759   1.173  19.724  23.910  0.4130  0.0311 -0.1533
18896W        W19760   2.342  20.812  21.486 -0.0684  0.0627 -0.3223
18897W        W19761   2.204  19.551  24.830  0.2137  0.1253  0.1501
18898W        W19762  28.606  19.234  22.797  0.1557 -0.0739  0.3589
18899W        W19763   0.916  20.442  24.532 -0.0972 -0.1224 -0.0732
18900W        W19764   3.430  17.342  22.984 -0.2270  0.1101 -0.0286
18901W        W19765  28.611  19.872  24.095  0.0284 -0.0869  0.0465
18902W        W19766   4.692  23.348  23.164 -0.1686 -0.0577  0.0901
18903W        W19767   0.759  16.376  26.483  0.0841  0.1768  0.1187
18904W        W19768   1.295  22.890  21.232  0.2739  0.0536 -0.0208
18905W        W19769   0.408  19.797  24.536 -0.0512 -0.2043 -0.0292
18906W        W19770   0.416  19.402  26.580 -0.3777 -0.3437  0.1847
18907W        W19771   1.892  24.658  24.294  0.1855 -0.3426  0.0356
18908W        W19772   4.051  20.613  21.941  0.0723 -0.3067  0.0002
18909W        W19773   4.526  18.278  19.850  0.2635  0.1648 -0.2651
18910W        W19774   3.405  21.190  22.521  0.0650  0.3252  0.1669
18911W        W19775   3.910  21.260  26.469 -0.0418 -0.0964 -0.2469
18912W        W19776   2.864  17.202  21.953  0.1701 -0.1086 -0.0096
18913W        W19777   2.050  19.300  23.988  0.3280 -0.0617 -0.0583
18914W        W19778   1.676  19.797  24.157 -0.1464  0.0375 -0.3803
18915W        W19779  29.135  17.898  22.924  0.1499 -0.0211  0.1143
18916W        W19780  28.793  20.891  25.028 -0.2846  0.1207  0.0243
18917W        W19781   2.295  18.212  21.603  0.3864 -0.0472 -0.2319
18918W        W19782   4.917  21.574  20.885 -0.0161  0.1381  0.1648
18919W        W19783   2.612  21.396  24.082  0.2886 -0.1525 -0.0831
18920W        W19784   1.470  20.882  25.005 -0.0568  0.0177 -0.1307
18921W        W19785   0.164  16.849  22.929  0.1706  0.0240  0.0659
18922W        W19786   1.453  17.512  22.511  0.1428  0.1826  0.2657
18923W        W19787   4.163  21.799  26.228 -0.3071  0.5591  0.1039
18924W        W19788   2.618  20.767  22.815  0.0327 -0.2075 -0.0104
18925W        W19789   0.992  22.032  24.376  0.0197 -0.2630 -0.2965
18926W        W19790   4.376  22.679  23.550  0.1372 -0.1099 -0.0457
18927W        W19791   2.366  21.855  24.850 -0.2361 -0.0861 -0.1516
18928W        W19792   3.090  18.536  21.583 -0.1992  0.0122  0.2037
18929W        W19793   2.031  19.782  21.044  0.0169 -0.2580 -0.0892
18930W        W19794   2.357  21.827  26.279  0.0975  0.4157  0.1855
18931W        W19795   1.949  19.033  21.943 -0.0906 -0.3481  0.1105
18932W        W19796   2.621  22.058  23.624  0.1713  0.2861 -0.1024
18933W        W19797   1.001  19.015  24.185 -0.1487  0.0036 -0.0280
18934W        W19798   0.679  16.401  23.708  0.1163 -0.1209  0.0554
18935W        W19799   1.939  19.163  25.541  0.2323 -0.2179 -0.1961
18936W        W19800   2.092  15.000  23.743  0.2822  0.4082 -0.2693
18937W        W19801   2.549  19.735  26.139 -0.1752  0.3613 -0.0435
18938W        W19802   0.490  22.119  24.257  0.5297  0.0005 -0.2525
18939W        W19803   2.605  22.034  25.740 -0.0045 -0.3548 -0.2762
18940W        W19804   1.942  22.062  26.045  0.0046 -0.0906 -0.0223
18941W        W19805   2.350  24.478  23.082 -0.3382 -0.1580 -0.0511
18942W        W19806   3.238  22.533  22.888  0.2309  0.1737 -0.4102
18943W        W19807   3.435  19.273  22.383  0.0098 -0.1684  0.2086
18944W        W19808   3.020  17.090  23.195  0.3598  0.0250 -0.3144
18945W        W19809   2.331  21.884  22.528 -0.1437 -0.1461  0.3455
18946W        W19810   1.795  20.411  26.196  0.3585 -0.1303 -0.1394
18947W        W19811   1.224  17.210  24.332  0.0329 -0.0725 -0.1645
18948W        W19812   2.820  21.058  23.759  0.2272 -0.1513 -0.0918
18949W        W19813   2.452  20.737  24.095 -0.1045 -0.0061  0.0744
18950W        W19814   2.840  19.185  24.394 -0.0407 -0.2075  0.1302
18951W        W19815   0.278  20.183  21.009  0.1081  0.0133  0.3278
18952W        W19816   1.538  19.759  21.148  0.1273 -0.1079 -0.3577
18953W        W19817   2.024  22.109  22.839 -0.1715  0.0690 -0.2638
18954W        W19818   0.399  18.478  23.592 -0.1945  0.0091 -0.2568
18955W        W19819   4.793  18.724  24.055  0.4054  0.0803  0.1471
18956W        W19820   1.897  20.504  21.512  0.0194 -0.0412 -0.5573
18957W        W19821   5.172  19.060  23.852 -0.3067 -0.0602  0.2163
18958W        W19822   1.868  20.627  25.262  0.0349 -0.0291  0.0968
18959W        W19823   1.749  22.052  22.379 -0.2309 -0.0274  0.4813
18960W        W19824   4.079  18.546  20.358  0.1435 -0.0242  0.0937
18961W        W19825   0.293  21.135  23.431 -0.3414  0.1425  0.0741
18962W        W19826   2.489  17.086  23.435 -0.1311  0.1233  0.1576
18963W        W19827   3.111  17.620  25.780 -0.0885  0.0037  0.1905
18964W        W19828  28.988  18.022  24.258  0.4493 -0.0862 -0.1706
18965W        W19829   1.572  19.208  23.193  0.0747  0.2984  0.1276
18966W        W19830   1.999  21.415  23.907  0.1128 -0.2129  0.0509
18967W        W19831   1.789  20.160  23.111 -0.1138  0.1037  0.3080
18968W        W19832   4.638  19.815  19.418 -0.2834 -0.3391  0.2226
18969W        W19833   4.160  20.992  25.101  0.0064  0.0030  0.3430
18970W        W19834   2.258  19.919  25.726  0.4852 -0.2292  0.1841
18971W        W19835   3.920  21.210  22.607  0.2538 -0.0161 -0.0130
18972W        W19836   2.460  19.997  22.511 -0.1341 -0.1376 -0.1388
18973W        W19837   2.215  20.812  22.560 -0.1106 -0.1622  0.0172
18974W        W19838   2.741  19.101  22.214 -0.0490 -0.6467 -0.2148
18975W        W19839   1.394  19.715  20.677  0.1944 -0.0334  0.2204
18976W        W19840   2.762  19.219  21.189  0.1893 -0.0533 -0.0671
18977W        W19841   2.332  22.921  23.385  0.1260 -0.1932  0.1234
18978W        W19842   1.061  19.438  27.844 -0.2462 -0.1385 -0.0251
18979W        W19843   6.917  21.997  21.583  0.3670  0.3303 -0.0558
18980W        W19844   0.664  17.582  22.391  0.4088 -0.0240 -0.3284
18981W        W19845   2.504  20.703  25.123 -0.5228  0.0946  0.1397
18982W        W19846   3.098  21.139  22.912 -0.0024 -0.0087  0.0634
18983W        W19847   2.299  18.886  26.464  0.0877 -0.0645 -0.2839
18984W        W19848   1.948  18.085  27.067 -0.0821  0.2654 -0.3161
18985W        W19849   2.935  19.709  22.613 -0.2003 -0.0659 -0.0770
18986W        W19850   0.441  18.337  20.231 -0.1038  0.1672  0.0153
18987W        W19851   0.594  19.352  24.894  0.0606  0.1047 -0.3734
18988W        W19852   3.691  17.925  23.801 -0.1615 -0.0039 -0.0343
18989W        W19853   3.185  20.346  23.746  0.2250 -0.0620  0.2080
18990W        W19854   1.216  20.258  27.548 -0.0739  0.1719  0.0648
18991W        W19855   5.674  20.311  20.978  0.1766 -0.3559 -0.2173
18992W        W19856   1.388  21.533  24.875  0.1411 -0.3888  0.1906
18993W        W19857   0.110  22.476  20.858  0.1340  0.1287 -0.2490
18994W        W19858   3.724  18.428  22.680  0.2576 -0.2494  0.2341
18995W        W19859   1.795  19.508  26.925 -0.0064  0.0390  0.3076
18996W        W19860   2.752  22.609  23.034 -0.0771  0.3770  0.0614
18997W        W19861   2.651  16.877  24.377 -0.0493  0.0446  0.0189
18998W        W19862   4.681  19.781  22.818  0.2243  0.1014  0.1338
18999W        W19863  27.299  23.196  24.089 -0.0954 -0.1274 -0.2922
19000W        W19864   3.696  18.931  25.666  0.1600 -0.0336 -0.0088
19001W        W19865   3.466  23.864  24.396  0.3152  0.0221  0.0895
19002W        W19866   0.804  20.498  27.433 -0.2901  0.0934  0.0470
19003W        W19867   1.450  18.137  22.249  0.1431  0.2793 -0.0288
19004W        W19868   0.298  19.232  23.607  0.0990  0.0022  0.0778
19005W        W19869  28.549  23.994  28.480 -0.2813  0.2105 -0.0558
19006W        W19870   4.021  19.833  29.115  0.1681 -0.1244 -0.0898
19007W        W19871   1.788  21.229  26.873  0.0857 -0.3905  0.1952
19008W        W19872   5.032  21.174  27.758 -0.0877 -0.0108  0.1865
19009W        W19873   2.015  21.199  28.246  0.3524 -0.0223 -0.1764
19010W        W19874   1.896  18.783  27.354 -0.2329  0.0679  0.0924
19011W        W19875   1.469  22.643  27.781  0.0126  0.1111 -0.1670
19012W        W19876   1.240  21.944  25.404 -0.0196 -0.0475  0.3044
19013W        W19877   1.569  22.413  26.951  0.0188 -0.1424  0.0681
19014W        W19878   2.674  19.448  28.644  0.2832  0.1082  0.0924
19015W        W19879   2.496  16.437  28.389 -0.1025  0.1757 -0.3326
19016W        W19880   4.115  18.938  26.230  0.1146 -0.0441 -0.0500
19017W        W19881   0.835  20.474  23.990  0.2484 -0.1454  0.0250
19018W        W19882   2.236  20.226   4.416 -0.0014 -0.2113 -0.0812
19019W        W19883   1.198  18.222   0.648  0.2149  0.0757 -0.1467
19020W        W19884  27.303  21.901  27.082  0.0330  0.0589 -0.1146
19021W        W19885   4.899  21.660  26.576  0.1152  0.0711  0.0691
19022W        W19886  27.991  20.204  26.459 -0.3281  0.1963  0.0206
19023W        W19887   3.288  20.333   1.035  0.1375  0.3080 -0.0416
19024W        W19888   2.032  19.085  26.859 -0.1563  0.2397  0.3311
19025W        W19889   2.224  17.594   0.091 -0.2586  0.2948  0.1110
19026W        W19890   0.350  17.966  25.254  0.0387 -0.2161 -0.2740
19027W        W19891   3.966  21.318  27.398 -0.0711  0.1365  0.0156
19028W        W19892  29.047  21.459  28.835 -0.2081  0.2372 -0.0420
19029W        W19893  28.385  21.602  26.373  0.1609 -0.2168 -0.2144
19030W        W19894   1.159  22.241   1.006  0.1986  0.1048 -0.0605
19031W        W19895   3.193  19.224  27.111 -0.3650  0.2308  0.1561
19032W        W19896   1.355  20.311  26.423  0.0975  0.0592 -0.2606
19033W        W19897   2.335  19.347   1.924 -0.1891 -0.2971  0.1325
19034W        W19898  28.798  21.492  28.265 -0.1625  0.0656 -0.2584
19035W        W19899   1.667  20.989  27.743 -0.0222  0.2503 -0.4276
19036W        W19900   2.756  22.209   0.513 -0.0689 -0.0326  0.0092
19037W        W19901   2.631  24.525   1.834 -0.2380 -0.0437 -0.4241
19038W        W19902   2.777  20.691  28.138 -0.0124  0.1035  0.4064
19039W        W19903   0.724  19.758   1.047  0.2538  0.0199 -0.0688
19040W        W19904   3.082  22.001  28.376 -0.2779  0.1866 -0.1847
19041W        W19905   2.387  17.712  24.326  0.1473 -0.1551  0.0515
19042W        W19906   2.443  22.731   2.215  0.1792  0.3396  0.1487
19043W        W19907   4.895  22.367  25.515  0.1129 -0.1476 -0.0449
19044W        W19908   4.272  19.611  25.413 -0.2835  0.3168 -0.1748
19045W        W19909   3.621  20.051  23.461 -0.0558  0.0210  0.3062
19046W        W19910   3.537  20.501  26.868  0.2956  0.0214  0.5281
19047W        W19911   3.014  19.775  26.610  0.2052 -0.1749  0.2045
19048W        W19912   5.000  23.940  25.732 -0.1102  0.1022  0.0397
19049W        W19913   3.435  23.333  26.577  0.1149  0.1004 -0.0767
19050W        W19914   2.867  21.819  22.411  0.0820 -0.1233  0.0099
19051W        W19915   2.056  18.328   1.621 -0.0721 -0.0415  0.0463
19052W        W19916   2.586  22.079  28.271 -0.1250 -0.0431  0.0233
19053W        W19917   3.347  19.202  24.151  0.0050  0.2495  0.2288
19054W        W19918   1.321  19.978  25.954 -0.0070 -0.0204  0.1004
19055W        W19919   2.411  23.507  28.104  0.0565  0.1793  0.0107
19056W        W19920   1.630  17.657  28.404 -0.2401  0.0518  0.0366
19057W        W19921   2.590  22.186  27.727  0.0439 -0.1806 -0.0353
19058W        W19922   3.768  20.082  27.082 -0.0976 -0.2509 -0.0799
19059W        W19923   2.021  18.053  28.549 -0.1005  0.1387 -0.1450
19060W        W19924   2.014  23.413  25.377  0.0776 -0.2868  0.1277
19061W        W19925   1.293  21.384   0.641 -0.1229 -0.0056  0.2565
19062W        W19926   2.958  19.696  28.971  0.3290 -0.0521 -0.0053
19063W        W19927  28.423  19.797  28.331 -0.0082 -0.0082 -0.1223
19064W        W19928   1.196  22.630  24.044 -0.0581  0.1765 -0.1187
19065W        W19929   3.348  21.371  26.381  0.2210 -0.1019  0.0292
19066W        W19930   0.982  20.979  27.303  0.0310 -0.5274  0.0018
19067W        W19931   1.473  24.256  26.677  0.1371  0.1064  0.2067
19068W        W19932   0.573  21.213  25.760 -0.2197  0.0263  0.0552
19069W        W19933   1.568  19.333  27.820  0.1967  0.0776  0.3094
19070W        W19934   7.046  18.220  27.929 -0.3911 -0.1787 -0.0580
19071W        W19935   1.310  22.885  26.212  0.0106  0.1505  0.1639
19072W        W19936   3.048  20.437  26.001 -0.0979  0.0281  0.1469
19073W        W19937  28.004  21.691  27.632  0.2639 -0.0382 -0.3348
19074W        W19938   2.508  22.273  26.212 -0.0342  0.0354  0.2238
19075W        W19939   3.281  21.476  28.217  0.0687 -0.0626  0.3048
19076W        W19940   2.792  20.284  27.862 -0.0855 -0.0330 -0.1249
19077W        W19941   4.481  24.386  26.432  0.1726 -0.0771 -0.1116
19078W        W19942   2.914  18.256   0.832 -0.2801 -0.0508  0.1721
19079W        W19943   3.567  21.794  24.188 -0.0002  0.3858 -0.1254
19080W        W19944   2.200  18.581  26.925 -0.1379 -0.1382  0.1016
19081W        W19945  29.119  21.864  28.288  0.0630  0.3954  0.0060
19082W        W19946   2.849  21.963  28.851 -0.1103 -0.0049  0.0856
19083W        W19947   2.754  21.122  28.757  0.0436 -0.1201  0.0026
19084W        W19948   1.379  20.610  28.628  0.0091  0.0552 -0.0673
19085W        W19949   2.343  19.591   1.012  0.4117  0.1000 -0.2543
19086W        W19950   2.522  20.316   1.864 -0.0152 -0.0095  0.1596
19087W        W19951   1.281  19.318  26.658  0.2170 -0.6048 -0.0744
19088W        W19952   1.780  18.660   0.013  0.1322  0.1885  0.3067
19089W        W19953   1.153  20.295   0.028 -0.1295  0.0439  0.3928
19090W        W19954   1.871  20.271  26.676 -0.1706  0.3406  0.2022
19091W        W19955   3.707  20.243  27.665 -0.3436 -0.0785 -0.1130
19092W        W19956   2.458  17.736   0.579  0.0121  0.0095 -0.3164
19093W        W19957   3.286  19.378  28.566 -0.1598  0.3190 -0.0206
19094W        W19958   3.956  18.271   0.092  0.3468 -0.1528  0.2133
19095W        W19959   2.547  15.590  28.417 -0.1400  0.1416 -0.1594
19096W        W19960   2.837  19.593   1.101  0.2417 -0.0890 -0.0632
19097W        W19961   0.508  20.927  26.214 -0.0776  0.0763  0.0733
19098W        W19962   2.714  19.413  27.347 -0.3455 -0.0598 -0.1702
19099W        W19963   0.610  21.919   0.133  0.3139 -0.0813  0.0979
19100W        W19964   1.411  21.264  25.767  0.0437 -0.0307  0.0123
19101W        W19965   3.807  20.658  26.362  0.0264 -0.0555 -0.1796
19102W        W19966   2.585  22.746  27.766  0.0342 -0.1133  0.2853
19103W        W19967   0.970  17.587  29.042 -0.2869  0.0987  0.0718
19104W        W19968   3.776  17.750  24.775 -0.0549 -0.1658  0.3547
19105W        W19969   3.411  21.299  25.637 -0.0641  0.4195 -0.1623
19106W        W19970   1.169  21.179  28.761  0.0385  0.0292  0.2141
19107W        W19971   3.380  16.918  27.118  0.2048  0.0156 -0.2370
19108W        W19972   4.357  19.237  27.616 -0.0134 -0.0406  0.2995
19109W        W19973   3.936  18.170   1.396  0.3129  0.1167  0.5814
19110W        W19974   0.775  17.243   1.447  0.1652 -0.1379  0.1609
19111W        W19975   2.335  22.907  26.090 -0.1227  0.1511 -0.0907
19112W        W19976   2.068  19.773   1.937  0.2492  0.1251 -0.0514
19113W        W19977   2.693  17.855  28.231 -0.0991  0.2404 -0.3340
19114W        W19978   0.408  18.987  27.510 -0.1819 -0.1694 -0.0886
19115W        W19979  28.756  22.344  28.928  0.0897 -0.0513 -0.0664
19116W        W19980   2.735  20.759  26.219  0.0036 -0.0833 -0.1238
19117W        W19981   4.723  20.219  28.959 -0.0824 -0.1349  0.3663
19118W        W19982   3.123  22.088   0.133  0.2854 -0.0293  0.0771
19119W        W19983   7.740  20.840  26.526  0.0544  0.2043  0.2010
19120W        W19984  28.747  20.423  26.106  0.1957  0.0237 -0.0506
19121W        W19985   4.600  16.390  27.829  0.0235 -0.0666  0.2211
19122W        W19986   2.363  23.598   1.442 -0.2082 -0.5711  0.1400
19123W        W19987   5.175  17.793  24.961  0.1562 -0.0095  0.2501
19124W        W19988   4.797  20.260  27.068 -0.0155 -0.1510 -0.1610
19125W        W19989   1.649  17.369  26.935  0.1720 -0.1201 -0.0242
19126W        W19990   4.090  21.164  25.562  0.0966  0.3823 -0.2083
19127W        W19991   3.679  21.103  26.051 -0.0355  0.0687  0.0052
19128W        W19992   3.771  19.420  25.488  0.2526 -0.3769  0.0368
19129W        W19993  28.572  21.051  27.548  0.0950  0.0623 -0.0099
19130W        W19994   2.301  20.237  27.383 -0.2616 -0.0890  0.1799
19131W        W19995   0.624  19.640  27.431 -0.1641  0.1786 -0.1067
19132W        W19996   2.405  20.588  27.856 -0.1414  0.1786 -0.1125
19133W        W19997   3.708  20.687  27.947  0.0011  0.0855  0.3617
19134W        W19998   4.742  20.595  26.237  0.2301  0.0928  0.1342
19135W        W19999   2.965  20.227  26.854 -0.0705  0.1492  0.2172
19136W        W20000   1.779  19.655  28.256  0.2719  0.2955  0.0928
19137W        W20001   1.323  21.989  26.653  0.2463 -0.0056 -0.2686
19138W        W20002   2.562  21.551  25.893 -0.5796  0.0477 -0.2790
19139W        W20003   1.828  22.611   1.477 -0.0662  0.2628 -0.1911
19140W        W20004   0.998  21.044  26.397 -0.1538  0.4056 -0.0322
19141W        W20005   2.968  16.605  27.017  0.2142 -0.2112  0.1418
19142W        W20006   1.888  20.577  28.781  0.0452  0.0529 -0.2597
19143W        W20007   3.253  20.396  27.794  0.0432  0.1097 -0.4152
19144W        W20008   4.598  21.437  23.379  0.0219  0.1479 -0.1204
19145W        W20009   0.334  22.306  28.365  0.2228 -0.1798 -0.0269
19146W        W20010   0.214  20.664  26.649 -0.1278 -0.1679  0.1196
19147W        W20011   2.881  18.825  26.416  0.1918 -0.3677 -0.0771
19148W        W20012   1.450  20.199  27.091 -0.2814  0.0739 -0.0198
19149W        W20013   3.429  22.734   0.980 -0.0889 -0.1967 -0.0354
19150W        W20014   0.921  20.084  27.165 -0.3005  0.0838  0.1604
19151W        W20015   4.649  19.240  25.464  0.3991  0.2436  0.0845
19152W        W20016   2.365  21.294  27.392 -0.0287 -0.0791  0.1249
19153W        W20017   3.632  22.783  28.730  0.2776  0.1147 -0.0022
19154W        W20018   2.184  19.310  28.650  0.0624  0.1454  0.1906
19155W        W20019   4.230  20.899   0.653 -0.1184 -0.1374 -0.0779
19156W        W20020   4.317  16.257  28.421  0.2459  0.1957  0.4339
19157W        W20021   0.564  22.334  26.527  0.0041 -0.1776 -0.2239
19158W        W20022   1.253  18.443  26.124  0.4291  0.1221  0.2831
19159W        W20023   3.221  19.716  25.467  0.1147 -0.0563  0.1558
19160W        W20024   3.662  18.834  26.469  0.2806  0.0430 -0.0656
19161W        W20025   2.342  21.663   1.039  0.1366 -0.0329 -0.0464
19162W        W20026   1.543  19.876  26.591 -0.0671 -0.2988  0.3694
19163W        W20027   0.296  18.741  27.944 -0.0817  0.0285 -0.1452
19164W        W20028   2.424  19.768  27.575  0.1025 -0.2201  0.2012
19165W        W20029   4.633  18.463   0.928  0.2826  0.1278 -0.1482
19166W        W20030   1.863  20.698  28.175  0.1907 -0.3638  0.1074
19167W        W20031   1.894  20.931  26.464 -0.0756  0.0959  0.0302
19168W        W20032   0.535  23.060   2.571  0.0699  0.0178  0.0847
19169W        W20033   5.278  18.107  28.941  0.2158 -0.0064 -0.2040
19170W        W20034   0.519  18.528  28.408 -0.0426  0.1427 -0.0295
19171W        W20035   0.397  18.237  25.654  0.3020 -0.1319 -0.2598
19172W        W20036  27.427  22.090  28.772  0.1360  0.4320  0.0426
19173W        W20037   1.904  22.885  27.748 -0.0483  0.1455  0.0709
19174W        W20038  28.011  20.212  24.132  0.1253 -0.1154 -0.1015
19175W        W20039   3.662  18.066  26.518 -0.2999 -0.0391 -0.1960
19176W        W20040   4.078  19.338  27.034  0.0830 -0.1273 -0.1625
19177W        W20041  28.783  19.692  27.646 -0.0386 -0.1762 -0.2426
19178W        W20042   2.369  19.418  25.660  0.1383  0.0315  0.0098
19179W        W20043   2.046  17.430  25.574  0.3162  0.2077 -0.1679
19180W        W20044   5.139  17.111  26.576 -0.1155  0.0033 -0.2165
19181W        W20045  28.767  23.287  27.511 -0.4426  0.0353 -0.0549
19182W        W20046   0.943  18.825  28.560 -0.0919 -0.1400  0.1990
19183W        W20047  28.774  22.776  27.689  0.2622  0.4267  0.2723
19184W        W20048   2.152  17.191  26.951  0.0214 -0.1332  0.0233
19185W        W20049   1.988  18.068  27.558  0.1968 -0.0725  0.3637
19186W        W20050   3.558  20.584  23.552  0.1766 -0.4081 -0.2719
19187W        W20051   1.681  20.219  28.316 -0.1169  0.1835 -0.1480
19188W        W20052   1.325  19.500  28.223 -0.1549  0.1358 -0.0465
19189W        W20053   1.434  20.814  26.223 -0.1734 -0.2367  0.3385
19190W        W20054   2.404  21.816  28.688 -0.0635 -0.2288  0.0589
19191W        W20055   1.999  19.052  26.049  0.2079  0.0818 -0.0414
19192W        W20056  29.107  20.605  24.217  0.2171 -0.2050  0.0921
19193W        W20057   0.410  23.042   1.256 -0.1459  0.0297 -0.0882
19194W        W20058   1.540  20.879  29.045 -0.1600  0.0650  0.0636
19195W        W20059   1.668  21.430  24.406  0.2614  0.0085 -0.3040
19196W        W20060  28.797  21.452  26.200 -0.1149 -0.0094  0.1369
19197W        W20061   0.761  19.261  28.784  0.2345  0.2973 -0.1762
19198W        W20062   1.662  19.875   0.634 -0.0230  0.0668  0.2337
19199W        W20063   0.388  18.459  27.570 -0.1097 -0.1695 -0.0370
19200W        W20064   2.370  16.615   0.331  0.0557  0.0183 -0.1069
19201W        W20065   2.112  18.415  26.149 -0.2737 -0.0193  0.0600
19202W        W20066   0.476  17.464  26.455  0.1384  0.3605  0.0823
19203W        W20067   0.114  19.959  28.363  0.0897 -0.1033 -0.3389
19204W        W20068   2.975  17.788   0.366 -0.1440 -0.2066  0.2913
19205W        W20069  28.117  21.241  24.616 -0.2642 -0.1384 -0.2019
19206W        W20070   3.043  18.044  26.358  0.1879  0.1343  0.1564
19207W        W20071   4.590  20.512  25.796 -0.1418  0.1621  0.0991
19208W        W20072   1.071  20.738  28.243 -0.4603 -0.0138  0.2249
19209W        W20073   1.119  21.248  27.790 -0.0183 -0.0924  0.0681
19210W        W20074  28.386  19.527  26.087  0.3464  0.0873  0.1070
19211W        W20075   1.206  21.191   0.169 -0.1091 -0.0539  0.1921
19212W        W20076   1.465  16.795  28.803 -0.1449 -0.2247 -0.0639
19213W        W20077   3.997  22.085  25.664 -0.1515 -0.0137 -0.1600
19214W        W20078  29.026  20.983  26.141 -0.2180 -0.1076  0.2278
19215W        W20079   0.412  23.785  28.000  0.0798 -0.1585  0.0068
19216W        W20080  29.011  21.103  28.480 -0.1656 -0.0828  0.3300
19217W        W20081   1.279  22.692   1.132 -0.2028  0.1409  0.1951
19218W        W20082   2.746  18.521  27.151  0.2753 -0.2129  0.2006
19219W        W20083   5.043  20.218   1.977  0.0270  0.0881  0.1412
19220W        W20084   2.575  20.282  25.846 -0.3516  0.0069  0.0393
19221W        W20085   3.375  20.234  25.083 -0.2082 -0.3310  0.0805
19222W        W20086   3.204  19.629  24.272 -0.0600 -0.1484 -0.0101
19223W        W20087   2.980  19.046  27.878 -0.1723  0.1445  0.2804
19224W        W20088   2.181  19.862   0.654  0.1632  0.1313  0.0766
19225W        W20089   5.011  17.333   1.236  0.1337  0.3485 -0.0920
19226W        W20090   4.766  17.408  26.242 -0.1397  0.3546  0.0030
19227W        W20091   1.835  22.944  26.206  0.0055  0.0011 -0.0148
19228W        W20092   0.898  18.508  23.851  0.2916  0.0473  0.1832
19229W        W20093   2.700  19.346  24.879 -0.3842  0.0949  0.0333
19230W        W20094   0.970  20.394   1.760 -0.5015 -0.0482 -0.0577
19231W        W20095   1.326  23.628  27.428  0.1212 -0.1722 -0.0951
19232W        W20096   3.662  17.412  27.494  0.1097  0.0138 -0.2593
19233W        W20097   2.786  25.001  25.888 -0.1132 -0.1068  0.1619
19234W        W20098   3.303  20.462  26.443  0.2515 -0.0036  0.0150
19235W        W20099   2.131  18.605   0.803 -0.1501 -0.4926 -0.3564
19236W        W20100   2.974  20.011   0.755 -0.2035  0.3042 -0.1914
19237W        W20101   1.538  20.665  26.733 -0.3690 -0.0143  0.0925
19238W        W20102   1.163  20.430  25.741  0.3683 -0.0085  0.1917
19239W        W20103  29.023  18.853  26.763  0.0865  0.0816 -0.2314
19240W        W20104   2.763  20.202  26.343  0.2597  0.0816 -0.1421
19241W        W20105   2.579  21.216  25.395  0.2118  0.2971 -0.3142
19242W        W20106   1.573  18.093   2.465 -0.6351 -0.2335  0.0699
19243W        W20107   2.173  21.958  27.933 -0.1924 -0.1809  0.1624
19244W        W20108   2.843  19.343  26.717 -0.4162  0.1089 -0.2093
19245W        W20109   1.626  21.006  23.446  0.3447  0.2438  0.0242
19246W        W20110   0.203  23.279  28.154 -0.2615  0.0114  0.1480
19247W        W20111   1.165  18.104  28.816 -0.1016  0.2112  0.2488
19248W        W20112   5.707  18.408  26.910  0.0441 -0.1989 -0.1282
19249W        W20113   2.714  21.553  27.010  0.2501 -0.0365 -0.2732
19250W        W20114   1.934  22.736  26.862 -0.0279 -0.0814  0.1361
19251W        W20115   5.169  20.228  27.376 -0.0835  0.0693  0.1376
19252W        W20116   0.739  21.042   0.428 -0.1129  0.1440 -0.2966
19253W        W20117   2.962  22.102  25.385  0.0704  0.1890  0.0897
19254W        W20118   2.122  15.779  27.630 -0.2942  0.3628 -0.1015
19255W        W20119   0.731  23.324  27.953 -0.0886 -0.1954 -0.1232
19256W        W20120   1.483  21.494  28.432  0.1687  0.1422  0.1461
19257W        W20121   3.497  20.964  26.579  0.0736 -0.1978 -0.0249
19258W        W20122   1.626  21.007   0.471 -0.0172 -0.1855 -0.1591
19259W        W20123   0.949  22.267  25.177  0.1666 -0.0181 -0.1188
19260W        W20124   2.129  23.062  24.285  0.3684 -0.6324  0.0118
19261W        W20125   4.027  20.161  25.809 -0.2153 -0.2543  0.1594
19262W        W20126   1.928  16.146   0.007  0.2296  0.0312 -0.0013
19263W        W20127   3.234  20.426  25.515  0.2037 -0.1976 -0.0465
19264W        W20128   3.201  20.881  26.139 -0.2629 -0.1167  0.3102
19265W        W20129   1.378  19.094  26.220  0.3891 -0.0146 -0.2419
19266W        W20130   2.121  22.561  26.395  0.1527 -0.0528  0.0572
19267W        W20131   2.441  19.160  27.738  0.0529  0.2891  0.2547
19268W        W20132   3.071  19.854   0.310  0.1537  0.3504  0.0180
19269W        W20133   4.296  18.674  25.652  0.1859 -0.2236  0.1168
19270W        W20134   0.221  23.494  28.656 -0.2293  0.3662  0.0689
19271W        W20135   1.115  20.261  28.195  0.2169 -0.1908 -0.1968
19272W        W20136   4.406  23.941  26.295  0.0497  0.0289  0.1510
19273W        W20137   3.102  20.830   1.116 -0.2499 -0.0564 -0.1417
19274W        W20138   5.604  17.324  26.586  0.2039 -0.2784  0.2714
19275W        W20139   1.589  23.072  25.262 -0.0091  0.0082 -0.3909
19276W        W20140   1.028  21.697  28.484  0.0717  0.1492 -0.0270
19277W        W20141   2.487  20.876   0.204 -0.1707 -0.3399 -0.2535
19278W        W20142   2.773  20.350  27.348 -0.2314 -0.1403 -0.0295
19279W        W20143   1.367  24.224  26.187  0.2487  0.0212 -0.1200
19280W        W20144   1.945  18.942   0.401 -0.1878 -0.1437 -0.4434
19281W        W20145   0.536  22.112   1.358  0.1385 -0.0370 -0.0335
19282W        W20146   1.094  19.612  28.641  0.2856 -0.0412 -0.1438
19283W        W20147   2.032  17.033  25.057 -0.0195 -0.0955  0.3184
19284W        W20148   1.104  21.894  27.137 -0.0627 -0.0640 -0.0779
19285W        W20149   2.211  20.935  26.897  0.0901 -0.1325  0.1088
19286W        W20150   1.484  19.956  25.495  0.2724  0.0800 -0.0720
19287W        W20151   2.311  20.125  27.877 -0.0635 -0.1489  0.2751
19288W        W20152  29.069  20.438  28.231  0.1225 -0.1327  0.2039
19289W        W20153   3.824  19.673  25.976  0.4206  0.0692 -0.0874
19290W        W20154   1.863  18.949  28.733  0.0057  0.1274  0.0200
19291W        W20155   4.711  21.196  26.862 -0.0018  0.1706  0.1693
19292W        W20156   1.035  18.377  28.348 -0.1477  0.1722  0.0877
19293W        W20157   2.155  18.218  26.596  0.1349 -0.2715  0.2767
19294W        W20158   2.620  21.178  26.726  0.1693 -0.1147  0.0103
19295W        W20159   0.453  18.708  26.069  0.2804 -0.0384 -0.0016
19296W        W20160   3.407  22.830  27.428  0.2532 -0.1680 -0.0949
19297W        W20161   0.536  19.718  27.934  0.1069  0.0898  0.1514
19298W        W20162   0.099  19.513  28.191 -0.2391  0.1107 -0.1029
19299W        W20163   1.176  23.686  27.956  0.0257  0.2030  0.2874
19300W        W20164   0.993  19.313  27.373 -0.1880 -0.1257 -0.3143
19301W        W20165   2.859  17.112  27.261  0.0405  0.5226 -0.0675
19302W        W20166   1.767  19.296  26.437 -0.1025 -0.0268  0.4119
19303W        W20167   2.271  17.160  27.907  0.1252  0.2552  0.1786
19304W        W20168  28.260  20.234  28.520  0.2589  0.2828  0.3698
19305W        W20169   2.821  21.142  28.237  0.0041 -0.0311  0.4877
19306W        W20170   0.762  20.045  28.737 -0.0279  0.0775  0.4453
19307W        W20171   2.470  21.998   0.079 -0.2589  0.3162 -0.2138
19308W        W20172   4.121  21.343  26.027 -0.1243  0.0484  0.1283
19309W        W20173   6.286  19.312  27.622  0.0324  0.0857 -0.3796
19310W        W20174   2.015  21.984  27.444 -0.1615  0.1772  0.1396
19311W        W20175   6.168  20.258   2.262 -0.1334  0.1688 -0.4915
19312W        W20176  28.727  21.019  28.877 -0.2618  0.2692 -0.0954
19313W        W20177   2.799  18.074  27.375 -0.1142  0.0205 -0.1972
19314W        W20178  27.270  20.661  24.668 -0.2039  0.0519  0.1169
19315W        W20179   1.788  17.198  26.017  0.1414  0.1694 -0.0846
19316W        W20180   1.223  22.692   1.654  0.0896 -0.0045  0.1244
19317W        W20181   3.203  18.374  27.335 -0.1874  0.0600  0.0617
19318W        W20182   1.719  21.944  27.046  0.2513  0.0995  0.1442
19319W        W20183   0.967  22.278   1.614 -0.4105  0.0757 -0.0188
19320W        W20184   2.592  22.972   0.250 -0.0177  0.0895 -0.1271
19321W        W20185   1.949  19.333  27.521 -0.2738  0.0439  0.2808
19322W        W20186   2.942  20.733  27.629  0.1785  0.3457  0.1093
19323W        W20187   1.448  21.766  27.505  0.2900  0.0587  0.0342
19324W        W20188   0.703  18.070  28.488  0.0644  0.2102  0.0310
19325W        W20189  28.946  23.970  27.897 -0.0829 -0.4502  0.3647
19326W        W20190   6.141  22.185  25.036 -0.0648 -0.0451 -0.0032
19327W        W20191   0.757  20.168   2.369 -0.3177 -0.1251  0.0532
19328W        W20192   1.055  22.096   0.041 -0.1146  0.0065 -0.1708
19329W        W20193  28.875  20.516  27.689 -0.0725  0.3910 -0.1928
19330W        W20194  28.446  21.454  27.882  0.1841  0.1408 -0.1528
19331W        W20195   2.596  18.393  26.591 -0.3677 -0.2818 -0.0540
19332W        W20196   0.653  22.261  26.044 -0.1786 -0.1388  0.1153
19333W        W20197   2.062  17.506  24.827 -0.2029  0.0930  0.0733
19334W        W20198  28.805  21.882  28.688  0.5467 -0.0892  0.1470
19335W        W20199   1.843  18.697  26.495 -0.2912 -0.0051  0.1176
19336W        W20200   4.221  17.695  25.005 -0.0572  0.0622  0.3139
19337W        W20201   4.555  19.270   1.494  0.1911 -0.0410  0.1265
19338W        W20202   2.444  22.213  25.273  0.0530  0.3510  0.0963
19339W        W20203   2.620  22.061  26.658  0.0010  0.0844  0.4505
19340W        W20204   3.044  18.576  27.987 -0.0211 -0.0644  0.0786
19341W        W20205   1.770  21.471   0.871  0.1459  0.1145  0.3763
19342W        W20206   6.171  23.972  25.781  0.1746 -0.3802  0.0652
19343W        W20207  27.813  19.055  28.291  0.3091 -0.1410 -0.2617
19344W        W20208   2.456  16.791  26.685 -0.1131 -0.0859 -0.2313
19345W        W20209   1.034  21.672  27.968 -0.0217 -0.1515  0.1226
19346W        W20210   2.197  18.491  27.890  0.0108 -0.0193 -0.1651
19347W        W20211   2.487  18.763   0.487  0.1772 -0.2586  0.0268
19348W        W20212   0.265  22.830  26.384 -0.2460  0.1060  0.1566
19349W        W20213   4.623  21.611  26.076  0.0387  0.2608  0.0481
19350W        W20214   0.868  23.165  28.426  0.0773 -0.1438 -0.1146
19351W        W20215   0.940  19.820  28.218 -0.1021 -0.0195 -0.0357
19352W        W20216  28.737  21.020  28.016 -0.2026 -0.0740 -0.0671
19353W        W20217   1.592  19.520  25.947  0.1411  0.1154 -0.0448
19354W        W20218   0.914  20.144  26.138  0.3082  0.3735 -0.1413
19355W        W20219   2.513  21.748  27.627 -0.0738  0.0735 -0.1703
19356W        W20220   1.458  21.046  28.201  0.2472 -0.0500 -0.2085
19357W        W20221   2.476  20.741  27.385  0.1159 -0.4263 -0.0196
19358W        W20222   1.584  23.477  27.013  0.1184 -0.1363 -0.1031
19359W        W20223   3.391  18.864  27.454  0.2056  0.0208  0.1395
19360W        W20224   3.211  17.466  23.552  0.1009 -0.2311 -0.1200
19361W        W20225  28.751  19.932  25.985 -0.2605 -0.0602 -0.2059
19362W        W20226   2.268  21.363  28.600  0.1855  0.0456 -0.3769
19363W        W20227   0.609  18.214   0.524  0.2700  0.1949  0.2828
19364W        W20228   2.812  18.442  23.979 -0.0962 -0.1800  0.2578
19365W        W20229   2.778  21.275  26.250  0.0289  0.2553 -0.1051
19366W        W20230   3.281  19.903  27.940  0.2222 -0.1380 -0.1533
19367W        W20231   2.242  20.797  25.563  0.3647  0.0695 -0.1688
19368W        W20232   3.370  16.506  26.653 -0.1479  0.1063  0.0425
19369W        W20233   4.183  22.385  23.253 -0.0490 -0.3133 -0.2165
19370W        W20234   4.135  19.231  25.823  0.0239  0.1026 -0.0485
19371W        W20235   2.418  21.538  28.168 -0.0449 -0.0673 -0.0386
19372W        W20236   4.034  18.855  27.444 -0.0284 -0.2773  0.0883
19373W        W20237   1.154  21.505  26.524 -0.0444  0.0218 -0.1875
19374W        W20238   2.910  18.957  25.820  0.0918 -0.0939  0.1172
19375W        W20239   1.828  19.371  25.087  0.1913 -0.3177 -0.0550
19376W        W20240   3.707  18.513  23.711 -0.3144 -0.1234 -0.1607
19377W        W20241   4.387  19.643  25.954 -0.0116  0.0556 -0.2439
19378W        W20242   1.467  19.857  27.868  0.0253 -0.0834  0.0844
19379W        W20243   1.797  19.955  26.074  0.0002  0.5883 -0.1789
19380W        W20244   0.757  20.671   0.905  0.2020  0.2286  0.2602
19381W        W20245   1.892  21.273   1.314 -0.1414 -0.1340  0.0390
19382W        W20246   2.050  19.793   0.165  0.1429 -0.0701  0.1378
19383W        W20247   3.381  19.382  28.010 -0.0984  0.1780  0.2023
19384W        W20248   1.812  20.816   0.999 -0.0471 -0.2447 -0.1409
19385W        W20249   0.904  19.243  28.300 -0.1655 -0.2759 -0.3469
19386W        W20250   1.786  21.927  24.686 -0.0171 -0.0718  0.0406
19387W        W20251   2.625  19.218  28.231  0.2243 -0.0962  0.3966
19388W        W20252   1.248  22.220  28.689  0.1494 -0.2674  0.0426
19389W        W20253   5.478  20.507  27.722  0.1944 -0.0349  0.2144
19390W        W20254   1.529  20.454  27.935  0.0021 -0.2049  0.2589
19391W        W20255   3.346  21.561   0.308 -0.2040 -0.2449 -0.0074
19392W        W20256   1.178  22.348   2.141 -0.3614 -0.1384  0.2424
19393W        W20257   0.383  21.351   2.403  0.3113  0.0217 -0.2671
19394W        W20258   0.920  22.172  28.234  0.2090 -0.1137 -0.0372
19395W        W20259   3.508  21.857  28.990 -0.2871  0.2213 -0.0304
19396W        W20260   1.022  21.289  28.256 -0.0234 -0.1118  0.3852
19397W        W20261   3.839  22.832  27.647  0.0959 -0.0692  0.1364
19398W        W20262   4.740  21.805  24.666 -0.1223  0.0785  0.2938
19399W        W20263   4.135  21.903  26.748  0.2947  0.2458 -0.2631
19400W        W20264   3.079  18.569   1.657  0.0760 -0.2034 -0.0234
19401W        W20265   3.533  19.786  27.444  0.0104  0.0304 -0.2992
19402W        W20266   4.505  19.914   1.443 -0.0635  0.1856  0.1590
19403W        W20267   1.181  20.893   0.716 -0.1586 -0.0390 -0.1133
19404W        W20268   0.562  22.002  25.382 -0.0089  0.0369  0.0207
19405W        W20269   0.399  25.238   3.908  0.2356  0.1253 -0.1488
19406W        W20270   1.025  26.187   2.656  0.1304  0.1264  0.0129
19407W        W20271   2.054  24.502   1.525 -0.1028  0.3068 -0.1662
19408W        W20272   2.241  25.294   4.923 -0.0196 -0.6354 -0.2475
19409W        W20273   3.932  24.383   3.390 -0.3105 -0.1873 -0.0861
19410W        W20274   0.446  24.226  29.031 -0.3541 -0.1259  0.0860
19411W        W20275  28.087  22.735   2.554 -0.0528 -0.3411  0.1155
19412W        W20276   2.167  23.036   3.102 -0.1008 -0.0166 -0.2173
19413W        W20277   1.205  23.474   2.899 -0.1142  0.1215  0.2115
19414W        W20278  27.092  22.422   4.169  0.1002  0.3746  0.2067
19415W        W20279   2.336  21.943   3.514 -0.1640 -0.1175  0.0152
19416W        W20280   0.531  24.450   1.830 -0.0317  0.2821  0.2063
19417W        W20281   2.699  25.673   2.568 -0.3384  0.1642  0.2457
19418W        W20282   3.878  24.442   2.260  0.0809  0.0625  0.1361
19419W        W20283  26.478  23.199   1.568  0.0443 -0.3239  0.0598
19420W        W20284  28.533  25.039   2.446 -0.1233  0.0016 -0.0668
19421W        W20285   2.607  23.833   0.994 -0.0446 -0.2078 -0.2055
19422W        W20286   1.227  24.751   2.361 -0.3396 -0.0411 -0.1150
19423W        W20287  26.905  22.571   2.865  0.1182 -0.0357  0.0295
19424W        W20288   4.428  24.473   3.570  0.2428  0.0236 -0.0657
19425W        W20289   1.914  24.429   0.969 -0.2103  0.1473 -0.0650
19426W        W20290   3.060  24.049   3.108  0.1988  0.2881  0.0180
19427W        W20291   2.053  24.800   1.990  0.0866  0.1326  0.1145
19428W        W20292   3.632  23.612   4.065  0.1895 -0.0016  0.0883
19429W        W20293   1.263  25.208   2.498 -0.2680 -0.3072 -0.3598
19430W        W20294   0.762  24.278   4.365 -0.0357  0.0820 -0.0417
19431W        W20295   2.540  23.242   2.541 -0.2125  0.0504 -0.1669
19432W        W20296   2.379  24.893   3.922  0.1359 -0.1328 -0.1212
19433W        W20297   0.403  23.546   6.109  0.1629 -0.2036 -0.1128
19434W        W20298   1.911  23.507   3.644  0.0608  0.2521 -0.0173
19435W        W20299   2.857  24.839   3.624 -0.0551 -0.3024 -0.1394
19436W        W20300   3.211  24.727   4.964 -0.2907  0.2580  0.1002
19437W        W20301   1.881  23.065   4.573 -0.2897  0.2722  0.4272
19438W        W20302  28.764  21.784   4.267  0.1651 -0.2816 -0.0591
19439W        W20303  28.771  22.892   6.164 -0.0993 -0.0137  0.0627
19440W        W20304   4.545  26.182   1.698 -0.0184  0.2425 -0.0562
19441W        W20305  27.545  22.236   0.118 -0.2411  0.5317 -0.0808
19442W        W20306   2.149  27.449  29.010  0.0584  0.0744 -0.0311
19443W        W20307   4.945  24.234   1.883 -0.4703  0.3652  0.1477
19444W        W20308   3.701  25.789   1.893  0.0518 -0.0915  0.1058
19445W        W20309   3.445  22.479   0.534 -0.1018 -0.1065  0.1243
19446W        W20310   5.078  24.690   1.622  0.1626 -0.2607  0.0484
19447W        W20311   1.454  24.497   2.686 -0.2417  0.1128 -0.1702
19448W        W20312   3.327  23.433   0.292  0.0617 -0.3994  0.0205
19449W        W20313  28.183  25.851   1.834 -0.0957  0.1215  0.2518
19450W        W20314  28.751  23.087   2.509 -0.3587  0.0348  0.0209
19451W        W20315  28.369  23.092   3.999 -0.1484 -0.1907  0.0880
19452W        W20316   4.325  24.141   4.013 -0.1047  0.0658  0.2012
19453W        W20317   0.996  25.821   1.077 -0.0681  0.1716  0.1997
19454W        W20318   1.354  23.841  28.885 -0.2600 -0.2265  0.1510
19455W        W20319   1.795  22.098   4.439 -0.0285 -0.2163 -0.1457
19456W        W20320  28.961  26.050   0.600 -0.1891  0.1254 -0.0048
19457W        W20321   2.448  25.410   5.922 -0.0226 -0.5035 -0.2487
19458W        W20322  28.336  24.168   0.798 -0.1448  0.1246 -0.0675
19459W        W20323   2.015  22.362   3.532  0.2097 -0.3623 -0.2898
19460W        W20324  28.327  23.663   0.604 -0.2475  0.1947 -0.0523
19461W        W20325   0.994  23.494   0.070 -0.1560 -0.0071 -0.1483
19462W        W20326   1.714  22.876  28.948 -0.0398 -0.0145 -0.0922
19463W        W20327  28.548  22.686   2.760  0.0853 -0.1452 -0.0356
19464W        W20328   2.946  25.763   4.573  0.0874 -0.0149  0.2542
19465W        W20329  28.784  23.753  27.044 -0.0469 -0.0791 -0.0167
19466W        W20330  27.825  24.653   3.097 -0.2976 -0.0477  0.1740
19467W        W20331   1.688  24.972   2.532 -0.0919 -0.0231  0.0821
19468W        W20332  28.187  25.363   2.963 -0.0755 -0.3147 -0.0129
19469W        W20333   0.992  23.864   4.020  0.0887  0.1388  0.2812
19470W        W20334   4.015  23.180  28.939  0.2248 -0.4630 -0.2707
19471W        W20335  28.487  26.520  28.870  0.2145  0.0975  0.1592
19472W        W20336   0.845  26.831  28.451 -0.1556  0.1051 -0.1250
19473W        W20337  27.979  23.947   4.108  0.0575 -0.0058 -0.1147
19474W        W20338   3.767  23.795   1.976 -0.2512  0.1705 -0.0734
19475W        W20339   3.080  23.532   2.492 -0.1883  0.1309  0.1681
19476W        W20340   2.684  23.923  29.039 -0.1263 -0.2566 -0.1198
19477W        W20341   5.833  24.825   2.975  0.0490 -0.0981  0.2652
19478W        W20342   3.070  22.418   3.754 -0.2071  0.2299  0.1164
19479W        W20343   3.107  24.585   1.755 -0.1255 -0.1438  0.2565
19480W        W20344   3.102  21.689   4.584 -0.1786  0.0505 -0.0653
19481W        W20345   0.739  25.298   4.349  0.1852  0.0723 -0.1187
19482W        W20346  28.945  23.178   3.704  0.0655 -0.1276 -0.0890
19483W        W20347   1.464  22.773   2.123 -0.1027  0.1989  0.1286
19484W        W20348   3.847  27.659   3.397 -0.2203  0.2100  0.0045
19485W        W20349   0.931  23.097   3.282 -0.3416  0.3159  0.1771
19486W        W20350  28.403  22.917   2.220 -0.0577 -0.0470 -0.0098
19487W        W20351   2.489  22.289   2.521  0.0437 -0.1355  0.3500
19488W        W20352   1.740  23.306  28.704 -0.2362 -0.3871  0.1638
19489W        W20353   2.701  23.200   0.786  0.0252 -0.0832 -0.0048
19490W        W20354  29.091  23.307  29.052 -0.3874  0.0325 -0.1683
19491W        W20355   3.731  24.820   4.191  0.2298  0.2787 -0.1651
19492W        W20356   3.586  22.520   3.678  0.0869 -0.1284  0.1716
19493W        W20357   1.540  24.761   6.458  0.0564 -0.0656  0.0585
19494W        W20358   3.409  21.346   2.332  0.0898  0.1650 -0.0764
19495W        W20359   2.683  20.801   0.675  0.0474 -0.1949 -0.0207
19496W        W20360   2.255  24.548   2.555 -0.1765 -0.1525 -0.1720
19497W        W20361   3.200  23.052   2.728  0.0677  0.0236 -0.0018
19498W        W20362   1.622  23.508   4.670  0.1326 -0.0888  0.0486
19499W        W20363  28.480  23.764   2.972 -0.1111 -0.1149 -0.1519
19500W        W20364   2.450  22.228   0.947  0.1272 -0.1838  0.3510
19501W        W20365   1.066  23.624   3.361 -0.1030  0.1749  0.2358
19502W        W20366  28.549  27.878   3.279  0.0061 -0.2401  0.0471
19503W        W20367  28.699  23.838   0.784  0.1778 -0.1299  0.2240
19504W        W20368   6.358  22.117   0.077 -0.1322  0.2445 -0.0644
19505W        W20369   2.423  24.415  28.410 -0.0458 -0.0268  0.1631
19506W        W20370   3.022  22.609   4.642 -0.0661 -0.1040 -0.0660
19507W        W20371   2.135  26.074  26.153 -0.0528  0.1490  0.0878
19508W        W20372   4.589  25.935  29.086  0.3634 -0.1260  0.0796
19509W        W20373   3.576  23.385   2.520 -0.0513 -0.1854  0.0074
19510W        W20374   1.234  22.619   4.086 -0.0260 -0.0302 -0.0660
19511W        W20375   0.731  26.514  28.938 -0.2487  0.0969 -0.0134
19512W        W20376   3.126  23.705   7.010 -0.1944  0.0072 -0.1399
19513W        W20377   3.114  22.684   1.988  0.3900  0.1399 -0.0954
19514W        W20378   0.932  24.742   2.829 -0.1271 -0.2323 -0.0793
19515W        W20379  28.970  22.627   2.400  0.0185 -0.0379  0.0373
19516W        W20380   3.605  24.701   3.146  0.0145  0.2733  0.0342
19517W        W20381   1.014  22.979   2.766 -0.0396 -0.0267 -0.1082
19518W        W20382   2.466  24.948   4.396 -0.2024  0.2526  0.2276
19519W        W20383   1.872  24.084   1.748  0.0389  0.1963  0.2037
19520W        W20384   1.042  25.035   1.971 -0.0871  0.1936  0.1706
19521W        W20385   3.583  21.443   1.825  0.2348 -0.1289 -0.1969
19522W        W20386   1.123  25.289   4.706 -0.1119  0.1211 -0.0399
19523W        W20387  27.779  23.088   3.517 -0.4642  0.6018 -0.0729
19524W        W20388   3.732  23.847   3.250  0.0962 -0.0015 -0.4632
19525W        W20389   1.893  23.092   1.229  0.0307  0.0729 -0.0648
19526W        W20390   4.156  25.088  27.920 -0.0223 -0.0793  0.0594
19527W        W20391   4.526  23.417   3.728  0.2831  0.0169 -0.0083
19528W        W20392   3.397  23.615   1.498  0.1092 -0.3516  0.2858
19529W        W20393   4.326  24.890   0.798  0.0855 -0.1471  0.0737
19530W        W20394   3.365  22.551   2.732  0.3608 -0.1100  0.0444
19531W        W20395   0.027  24.345   1.861  0.0695 -0.1942  0.0217
19532W        W20396   4.655  24.455   1.495 -0.0886  0.2294 -0.2363
19533W        W20397   4.328  23.918   3.436  0.2952 -0.2121 -0.0703
19534W        W20398   3.608  25.407   1.119  0.0669  0.2868 -0.0659
19535W        W20399   3.473  27.259   4.769 -0.0197  0.0301  0.4004
19536W        W20400   1.596  23.385   0.955 -0.1047 -0.0583 -0.1269
19537W        W20401   2.589  26.610   1.983  0.0291  0.3098 -0.1936
19538W        W20402   3.586  20.872   2.125  0.2411  0.4473  0.0674
19539W        W20403   2.384  23.150   3.937  0.1458  0.0084  0.2335
19540W        W20404  27.571  24.032   3.811 -0.0266 -0.4247 -0.0190
19541W        W20405  28.684  22.723   3.752 -0.0820 -0.1745 -0.0764
19542W        W20406   2.044  21.665   3.195  0.0410  0.2041  0.2992
19543W        W20407   3.010  25.339   2.281  0.3802 -0.0756 -0.1383
19544W        W20408   0.483  26.505   0.246  0.0158 -0.0684  0.2590
19545W        W20409   0.629  24.750  28.947  0.1078  0.0005 -0.2123
19546W        W20410   2.835  23.615   0.241 -0.0213  0.0787 -0.0447
19547W        W20411   0.215  24.800   2.067 -0.1398  0.0749  0.0269
19548W        W20412   1.522  22.784   2.687 -0.3367 -0.2413  0.0190
19549W        W20413   0.285  23.936   3.840 -0.1509 -0.0588 -0.0159
19550W        W20414  28.304  22.470   1.193 -0.3022 -0.0387 -0.1048
19551W        W20415   5.897  19.145   1.171  0.0706  0.0941 -0.2705
19552W        W20416   2.238  24.948   1.072 -0.2328  0.0144 -0.0578
19553W        W20417   0.197  24.663   0.037 -0.0423 -0.0806  0.2252
19554W        W20418   1.749  24.221   3.375  0.1898 -0.0339 -0.1856
19555W        W20419   5.725  25.444   2.732 -0.0302 -0.1394 -0.2956
19556W        W20420   1.920  25.574   1.533  0.0332  0.2839 -0.1736
19557W        W20421   3.322  24.354   5.295  0.0537  0.1479 -0.1990
19558W        W20422   0.421  21.940   2.452 -0.0303 -0.0251 -0.3505
19559W        W20423   0.769  22.675   1.832  0.0687  0.0323  0.1682
19560W        W20424   0.039  22.238   2.212  0.0026  0.0511  0.1190
19561W        W20425  29.081  23.798   4.197  0.1468 -0.1064 -0.1603
19562W        W20426   2.114  27.003  28.763 -0.1877  0.3928  0.1720
19563W        W20427  26.735  23.973  29.085 -0.1938 -0.1130 -0.2844
19564W        W20428   1.875  26.841   0.619  0.1623  0.0390  0.1168
19565W        W20429   1.717  23.042   1.704  0.2740  0.1000  0.1084
19566W        W20430   1.729  23.603   2.593  0.2851 -0.1824 -0.0746
19567W        W20431   0.431  25.654   4.171  0.0003  0.3740 -0.3229
19568W        W20432   2.336  26.153   8.094  0.1193 -0.1957 -0.3254
19569W        W20433   2.404  22.324   6.025 -0.0035  0.0389 -0.1042
19570W        W20434  27.383  24.564   0.126 -0.1110 -0.0207 -0.0555
19571W        W20435   2.752  24.003  28.538  0.2285  0.1030 -0.0405
19572W        W20436   1.798  27.678   2.891 -0.0670 -0.1451 -0.0982
19573W        W20437  28.933  23.228   4.191  0.1316  0.0273 -0.2335
19574W        W20438   2.803  24.438  28.752 -0.1014  0.1195 -0.2890
19575W        W20439   2.082  23.187   0.091  0.1265  0.2289  0.4481
19576W        W20440   0.290  23.035   5.024  0.0237 -0.1437  0.0090
19577W        W20441   1.971  24.679   4.251  0.1920 -0.0987  0.0356
19578W        W20442   0.936  24.523   1.122 -0.2750 -0.2145 -0.1496
19579W        W20443  29.024  23.603   0.384 -0.0049  0.1454  0.1658
19580W        W20444   4.040  23.760  29.143  0.1454  0.1902  0.1512
19581W        W20445  28.631  25.406   1.938  0.0291 -0.3368 -0.0198
19582W        W20446   0.568  26.205   1.099 -0.0371  0.0094  0.1389
19583W        W20447   1.303  25.960   1.918  0.3726  0.1592  0.1581
19584W        W20448  28.936  22.101   4.814  0.0820 -0.3798 -0.2085
19585W        W20449   0.717  22.392   2.400 -0.0682  0.1810 -0.2303
19586W        W20450   4.782  26.487  27.691  0.1180 -0.1967 -0.3765
19587W        W20451  28.668  24.157   2.757 -0.0696  0.1781 -0.2723
19588W        W20452   1.274  24.808   1.514  0.2881 -0.2737  0.0402
19589W        W20453   1.803  23.714  27.423  0.1493  0.1937 -0.0564
19590W        W20454   4.190  24.976   3.961 -0.1639  0.1534  0.0775
19591W        W20455   1.514  23.090   3.093  0.0132  0.1870  0.0402
19592W        W20456   1.338  22.486  28.282 -0.0030 -0.0113  0.1208
19593W        W20457   1.235  25.425   4.267  0.1073 -0.0548 -0.0830
19594W        W20458   2.802  21.667   0.339  0.3825  0.1032  0.3667
19595W        W20459   1.431  24.743   1.002  0.1202 -0.0140 -0.1380
19596W        W20460  29.045  25.594   0.717  0.2165 -0.0073 -0.1945
19597W        W20461   1.462  25.428   5.415 -0.2327  0.0697  0.0567
19598W        W20462   3.377  22.375   5.942 -0.0807 -0.0485  0.1374
19599W        W20463   2.817  23.807   3.553  0.0817 -0.1288 -0.2798
19600W        W20464   0.297  22.465   3.163 -0.0152  0.0747  0.1760
19601W        W20465   0.037  22.774   3.528  0.1570  0.1103  0.0621
19602W        W20466  28.276  21.414   3.554 -0.0342  0.1396  0.3345
19603W        W20467  28.566  24.563   1.307 -0.2198  0.2790  0.3076
19604W        W20468   1.602  22.871   0.820  0.0246 -0.0626 -0.0155
19605W        W20469  28.798  22.409   0.275 -0.0186 -0.1536 -0.0179
19606W        W20470   3.656  21.255  29.123  0.1869 -0.2375 -0.1154
19607W        W20471   1.922  24.541   0.179  0.2345 -0.2643  0.3105
19608W        W20472   0.913  24.261   1.523  0.0949  0.1916  0.1226
19609W        W20473   2.836  22.663   2.569  0.0496  0.0869 -0.1322
19610W        W20474  28.246  23.846  28.110 -0.1775  0.1278 -0.0865
19611W        W20475   0.799  22.860   3.861 -0.2027  0.1909 -0.0658
19612W        W20476   3.001  24.056   2.604 -0.2304 -0.0020 -0.2035
19613W        W20477   1.124  26.548   1.174  0.0095 -0.2310  0.0108
19614W        W20478  27.466  21.798  28.277 -0.0240 -0.2116  0.3033
19615W        W20479   0.144  23.800   5.394  0.0551 -0.2287 -0.1555
19616W        W20480   0.535  25.551   5.225  0.0916  0.2806  0.1418
19617W        W20481   2.375  26.025   1.212 -0.1353 -0.1762  0.1058
19618W        W20482   5.711  21.786   4.630 -0.2499 -0.2184 -0.1470
19619W        W20483   4.552  21.958   3.818 -0.2825 -0.0898  0.0158
19620W        W20484   3.963  23.562   0.881  0.3034  0.1469  0.0975
19621W        W20485   0.126  25.063   0.350  0.1901  0.1268 -0.0786
19622W        W20486   1.094  23.995  28.403  0.1768 -0.0655  0.3765
19623W        W20487   4.939  25.204   5.181 -0.1091  0.1513  0.2565
19624W        W20488  27.894  22.705   4.375 -0.3307 -0.2011  0.0380
19625W        W20489   6.352  20.488   1.282  0.2473 -0.0952  0.1221
19626W        W20490   4.927  24.469   3.370  0.1937  0.1121 -0.0686
19627W        W20491   3.039  25.402   2.779 -0.2503 -0.2511  0.2349
19628W        W20492   2.158  22.473  27.644  0.2181 -0.0275  0.1588
19629W        W20493   0.728  22.910  28.847 -0.1204  0.0034  0.0486
19630W        W20494   1.753  23.064   5.379  0.2842 -0.4372 -0.1426
19631W        W20495   0.916  23.398   4.305 -0.1038  0.1305  0.2722
19632W        W20496   1.608  22.157   2.510  0.3233 -0.2682 -0.2970
19633W        W20497   1.190  23.941   0.199 -0.1683 -0.0889  0.4594
19634W        W20498   3.326  24.421   2.831  0.2540  0.0870  0.1626
19635W        W20499   2.896  22.645   3.146 -0.0611  0.0423 -0.2655
19636W        W20500   0.557  24.671   5.193  0.0862  0.2930 -0.2743
19637W        W20501   1.690  23.544  29.135 -0.1218  0.0518  0.0518
19638W        W20502   2.406  23.534  28.631  0.2549 -0.0342 -0.0424
19639W        W20503  29.060  23.994   2.516 -0.0455 -0.2952 -0.0724
19640W        W20504   4.632  22.200  27.944  0.0194 -0.2314 -0.4053
19641W        W20505   5.199  23.951   2.727  0.0819 -0.2381  0.3068
19642W        W20506   1.171  22.428   2.648  0.0732 -0.2586 -0.1609
19643W        W20507   1.870  24.625   2.915 -0.0561  0.1130  0.0878
19644W        W20508   4.857  25.642   0.440  0.0341  0.4172 -0.0079
19645W        W20509   4.929  23.328  28.567  0.2038  0.0449  0.2092
19646W        W20510  28.672  25.180   5.100 -0.1374  0.0260  0.0084
19647W        W20511  27.928  24.731   4.744 -0.0950  0.1870  0.2519
19648W        W20512   0.279  22.508   2.618  0.4354  0.1043  0.0658
19649W        W20513   1.001  24.566   1.960  0.1593 -0.0259 -0.1174
19650W        W20514   0.511  25.152   1.867 -0.2246  0.0005  0.2248
19651W        W20515   4.469  27.171   3.912  0.0297  0.0812 -0.0844
19652W        W20516   1.115  25.642   6.520 -0.0564  0.3352  0.2889
19653W        W20517   3.884  26.235   1.644 -0.0722 -0.3621 -0.2198
19654W        W20518   2.695  24.724   0.961 -0.0133 -0.1332  0.0183
19655W        W20519  28.445  23.444   2.521 -0.2113  0.0975  0.0698
19656W        W20520   1.194  24.211   3.055 -0.0503 -0.0132 -0.4635
19657W        W20521   5.422  27.244   2.252  0.2511  0.0056  0.0098
19658W        W20522   1.245  26.476   3.410 -0.1981  0.1310 -0.0754
19659W        W20523   1.951  25.923   0.931 -0.2132 -0.1699  0.2439
19660W        W20524   3.106  27.474  28.365  0.1509 -0.1561 -0.1193
19661W        W20525   1.725  23.844  26.514  0.0302  0.1342  0.0354
19662W        W20526   0.069  23.104   2.761 -0.2892 -0.1845  0.0499
19663W        W20527   2.717  24.592   4.083  0.0503  0.1255  0.0308
19664W        W20528   2.967  24.648   5.513 -0.1923 -0.1372 -0.5133
19665W        W20529   0.526  24.940   1.124 -0.0978  0.1449 -0.1086
19666W        W20530  28.695  25.128   2.969 -0.2035 -0.0249 -0.0912
19667W        W20531   3.744  25.217   3.053  0.2447  0.1054 -0.0955
19668W        W20532   4.236  22.397   2.583  0.1083 -0.2969 -0.1128
19669W        W20533   3.522  25.456   2.239  0.1864 -0.3281 -0.0033
19670W        W20534   0.259  25.928   5.362  0.2299 -0.0089 -0.1012
19671W        W20535  27.223  24.984   1.777 -0.1114  0.2466  0.0132
19672W        W20536   0.606  24.807   0.659  0.0816 -0.1719  0.0691
19673W        W20537   1.376  23.749   3.754 -0.0698  0.0814  0.1661
19674W        W20538   1.481  25.022  28.050  0.0054  0.2614  0.0509
19675W        W20539   1.865  24.694  28.343 -0.2274  0.0094 -0.0721
19676W        W20540   0.090  22.857   4.031  0.1680 -0.0862  0.0693
19677W        W20541   0.703  23.433   2.868  0.4505  0.3143  0.1945
19678W        W20542  28.242  24.969   0.343 -0.1726 -0.0492  0.1786
19679W        W20543   4.258  24.706   1.946  0.1009 -0.5415 -0.0035
19680W        W20544   3.196  20.933   2.681 -0.1461  0.3397 -0.2371
19681W        W20545   2.301  21.333   4.336 -0.2154 -0.0698 -0.0709
19682W        W20546   2.293  21.629   3.892 -0.0619  0.1192  0.0828
19683W        W20547   1.487  24.288  29.122 -0.0098 -0.6244 -0.1862
19684W        W20548  27.658  25.029   2.812 -0.1765  0.2099  0.1726
19685W        W20549   0.124  24.427   2.418  0.0182  0.1891 -0.1833
19686W        W20550   1.206  23.387  28.778 -0.0213  0.2786  0.2038
19687W        W20551  28.695  24.338   2.255 -0.0684  0.2987 -0.0741
19688W        W20552  26.408  27.907   4.791  0.2999 -0.1172  0.2336
19689W        W20553   1.400  23.587   0.443 -0.1705  0.0105 -0.4026
19690W        W20554   7.124  24.472   4.306  0.0725  0.3187  0.2828
19691W        W20555   4.321  26.961  28.815 -0.1195 -0.1141 -0.0243
19692W        W20556   2.045  23.985   1.267 -0.1717 -0.0460 -0.0821
19693W        W20557   2.724  22.158  27.228  0.3189 -0.0089 -0.0011
19694W        W20558   2.396  24.584  28.980 -0.1988 -0.3025 -0.0162
19695W        W20559  28.997  23.830  28.644  0.0767  0.1143  0.3485
19696W        W20560   2.793  22.382  28.581  0.2432 -0.0088  0.0002
19697W        W20561   2.340  23.164   4.504 -0.2261  0.1435 -0.1164
19698W        W20562  28.387  23.253   1.520 -0.0261  0.0343  0.0806
19699W        W20563  29.124  25.694   1.211 -0.1575  0.0092  0.0266
19700W        W20564   4.730  23.838   1.771  0.2327  0.1045 -0.0997
19701W        W20565  28.846  22.785  28.703  0.3108 -0.0970 -0.2444
19702W        W20566   3.084  24.306   4.221 -0.0547  0.2464 -0.2613
19703W        W20567   4.869  23.168   2.405 -0.1097  0.1543 -0.0506
19704W        W20568  28.936  24.787   1.640 -0.4224 -0.1054  0.3060
19705W        W20569   0.250  24.773   1.515  0.1476 -0.1008 -0.2196
19706W        W20570   0.900  22.852   2.289 -0.1585 -0.1182 -0.0093
19707W        W20571   1.330  26.881   4.588  0.2972  0.3638  0.4085
19708W        W20572   4.916  22.394   2.162  0.0913  0.0590 -0.3465
19709W        W20573  27.881  24.760   0.995 -0.0525 -0.3943  0.0289
19710W        W20574   2.556  24.864   2.325 -0.2312  0.1516  0.2301
19711W        W20575   2.526  22.701   4.528  0.2096 -0.0183  0.2338
19712W        W20576   1.128  22.950  27.519  0.2467  0.0773  0.2547
19713W        W20577   2.198  22.727   0.004 -0.4743  0.2496 -0.0901
19714W        W20578  28.940  24.046   3.632 -0.1592 -0.1222 -0.2391
19715W        W20579   0.742  24.161  28.132 -0.2213 -0.0408  0.2009
19716W        W20580   2.285  23.009   5.353 -0.0607 -0.0026 -0.3539
19717W        W20581   2.471  22.612  27.301  0.0752  0.2117 -0.0329
19718W        W20582   0.928  27.888   4.466  0.0846  0.0705  0.1230
19719W        W20583   1.339  27.302   5.865 -0.1158  0.0220  0.2216
19720W        W20584   1.780  23.886   2.188  0.1982 -0.0363 -0.3246
19721W        W20585  28.828  24.617   2.659  0.3822  0.0784  0.0236
19722W        W20586   1.568  22.304  29.085  0.0028  0.2088  0.2206
19723W        W20587   3.557  23.864   2.680  0.3338  0.1145  0.1057
19724W        W20588   1.491  24.605   3.264  0.1563 -0.0744  0.2481
19725W        W20589   0.848  25.842   2.960 -0.0251  0.1892 -0.1003
19726W        W20590   3.048  22.652   0.326 -0.0841 -0.0564  0.0898
19727W        W20591   0.163  23.462   6.686 -0.2201 -0.0483 -0.0155
19728W        W20592   4.579  22.408   2.990  0.3999 -0.1481 -0.1780
19729W        W20593  26.182  24.534   1.210 -0.1685 -0.1546  0.1545
19730W        W20594  29.003  25.205   3.914 -0.3250  0.0971  0.1279
19731W        W20595   2.313  25.730   2.247 -0.0894 -0.0139  0.0368
19732W        W20596   2.178  25.978   3.252  0.0731  0.2557  0.0872
19733W        W20597   0.850  21.531   0.291  0.2714  0.1213 -0.0100
19734W        W20598   2.432  24.048   2.657 -0.0710 -0.0201 -0.1117
19735W        W20599  26.716  22.106   2.319 -0.0248  0.0452  0.2529
19736W        W20600   5.070  21.142  28.297 -0.0576  0.0501  0.4207
19737W        W20601   2.575  24.001   3.162  0.0213  0.1557 -0.0448
19738W        W20602   2.423  25.891   6.023  0.2928 -0.3420 -0.2842
19739W        W20603   4.733  24.319   4.999 -0.1126  0.0420  0.1585
19740W        W20604   3.742  24.264   4.790  0.1011  0.0989 -0.1902
19741W        W20605   1.327  24.998   2.966 -0.0888  0.0797 -0.1189
19742W        W20606   6.028  25.608   2.053  0.1181 -0.0012  0.1455
19743W        W20607  28.564  22.210   2.848 -0.2461  0.3035 -0.1913
19744W        W20608   2.927  22.217   2.825  0.5737 -0.0743  0.0657
19745W        W20609   3.682  24.605   1.844 -0.0720  0.1516 -0.0234
19746W        W20610   2.989  22.519   0.877  0.3451 -0.1735 -0.0758
19747W        W20611  29.120  23.097   0.937  0.0273  0.0066  0.1403
19748W        W20612  28.363  24.819   0.788 -0.1801  0.4731 -0.1268
19749W        W20613   4.190  24.330   2.632  0.0508 -0.1713 -0.2879
19750W        W20614   0.766  27.770   2.783 -0.2299 -0.0384 -0.0424
19751W        W20615   0.351  23.394   0.271  0.1257 -0.3590  0.3451
19752W        W20616  28.439  22.243   4.882  0.5251 -0.0612  0.0944
19753W        W20617   3.020  24.343   3.734 -0.0640  0.2609 -0.1547
19754W        W20618   1.905  22.593   2.487  0.0864 -0.1205 -0.1133
19755W        W20619   4.035  25.366   4.173  0.0402  0.1113  0.0089
19756W        W20620   1.317  21.683   0.238 -0.1132 -0.2172 -0.2525
19757W        W20621   2.908  25.835   1.563  0.1303  0.1682 -0.0131
19758W        W20622   2.715  25.284   1.251 -0.4781  0.0289  0.1875
19759W        W20623   2.419  25.299   1.955 -0.4388 -0.0709 -0.0130
19760W        W20624   2.138  22.232   1.337  0.0060  0.0940 -0.2332
19761W        W20625   0.237  26.706   1.036  0.2411 -0.0787  0.0601
19762W        W20626   4.124  22.642   4.848  0.0432 -0.5385 -0.1637
19763W        W20627   3.275  23.014   4.606  0.2567 -0.0009 -0.3563
19764W        W20628  27.768  23.437   1.377 -0.0159  0.0972  0.2492
19765W        W20629   1.354  25.223  26.893  0.1095 -0.1859  0.1239
19766W        W20630   1.765  22.871   4.036 -0.0722  0.1375  0.0993
19767W        W20631   0.509  24.852   3.197 -0.1374  0.0890 -0.0749
19768W        W20632   4.728  19.699   2.241 -0.0313 -0.0108 -0.5307
19769W        W20633  27.968  25.323   0.160  0.1317 -0.0908 -0.1412
19770W        W20634   3.037  25.600   3.307 -0.1185  0.0738 -0.1496
19771W        W20635   4.534  23.078   1.381  0.1439  0.1662 -0.0819
19772W        W20636   2.144  25.403   3.264 -0.0688  0.3419  0.0296
19773W        W20637   1.572  24.347   1.376 -0.1184  0.0692 -0.0410
19774W        W20638   3.114  22.229   1.227  0.1197 -0.2598 -0.0239
19775W        W20639   0.835  23.875   1.188 -0.1791  0.0881  0.1353
19776W        W20640   3.230  20.644   0.654 -0.4106 -0.4056  0.1458
19777W        W20641   2.190  22.467   1.843 -0.1144  0.0851 -0.1025
19778W        W20642   2.968  23.291   3.334  0.4940  0.3741 -0.3523
19779W        W20643   2.194  25.181   2.368  0.0247  0.3925  0.1069
19780W        W20644   2.578  25.227   2.716  0.0062  0.1556  0.0176
19781W        W20645   1.453  23.499   4.199  0.1415 -0.1117  0.2689
19782W        W20646   3.382  25.002   6.838  0.0257  0.1336  0.1558
19783W        W20647   3.209  21.995   0.634  0.0640  0.2740 -0.0728
19784W        W20648   1.339  24.841   3.879  0.4155 -0.0462  0.1538
19785W        W20649   2.383  23.265   2.080 -0.0851  0.1490 -0.1119
19786W        W20650  27.610  23.516   3.669 -0.0487  0.1960 -0.1935
19787W        W20651   1.545  22.851   3.550 -0.1087 -0.2466  0.4041
19788W        W20652   4.000  26.433   5.325 -0.0882 -0.1831  0.2179
19789W        W20653   3.886  26.140   2.254  0.3220 -0.0825  0.3198
19790W        W20654   2.705  24.251   2.225  0.1429 -0.1027  0.1455
19791W        W20655   3.450  24.765   3.608 -0.0367  0.0305  0.0891
19792W        W20656   0.564  24.854   4.226 -0.1513  0.1113 -0.1155
19793W        W20657  28.651  26.002   3.614 -0.1240 -0.1189 -0.1006
19794W        W20658   4.519  23.553   2.357  0.1058 -0.0405 -0.2695
19795W        W20659   1.116  24.815   6.823 -0.2258  0.1826 -0.1098
19796W        W20660  28.936  26.123   4.384 -0.3001  0.1841 -0.1945
19797W        W20661   5.604  24.153  28.530  0.2302  0.1259  0.1655
19798W        W20662   2.010  26.374   2.931  0.2297 -0.1077  0.3122
19799W        W20663  26.199  26.835   1.166  0.2504  0.1889  0.1175
19800W        W20664   2.476  20.382   5.937 -0.1275  0.1843 -0.1800
19801W        W20665   1.654  25.212   0.245  0.0006 -0.3687  0.1069
19802W        W20666   2.117  23.604   4.635 -0.0026  0.1990 -0.2230
19803W        W20667   3.041  23.578  28.961  0.0758 -0.2849  0.0013
19804W        W20668  27.847  23.977  28.952  0.1859 -0.1358  0.0516
19805W        W20669  29.003  26.887   8.432 -0.1240 -0.1918  0.2863
19806W        W20670   3.377  25.181   6.317 -0.0481  0.1023 -0.0743
19807W        W20671   3.889  24.965   6.026 -0.0840 -0.0834  0.2343
19808W        W20672   4.544  25.443   8.063 -0.0341  0.3150 -0.0071
19809W        W20673   2.358  24.061   7.301  0.2326  0.1747  0.2722
19810W        W20674   0.189  23.532   4.969  0.2204 -0.0716  0.1297
19811W        W20675   2.312  23.684   7.694  0.3048 -0.2599  0.0553
19812W        W20676  28.421  22.972   7.855 -0.2102  0.0315  0.0511
19813W        W20677   1.947  23.214   6.371 -0.1856 -0.1877  0.0678
19814W        W20678   1.230  22.190   6.640 -0.0804 -0.0549 -0.0277
19815W        W20679   1.782  22.751   7.120  0.2866  0.1910 -0.3017
19816W        W20680   3.952  21.300   6.599 -0.0041  0.1448 -0.0684
19817W        W20681   2.651  22.484   4.093 -0.0939  0.0536 -0.1654
19818W        W20682   2.385  22.639  11.414  0.0357 -0.0531 -0.0232
19819W        W20683   0.095  23.632   7.287  0.1999  0.5895  0.0202
19820W        W20684  28.708  24.768   8.492 -0.1189 -0.2110  0.1994
19821W        W20685   2.024  26.271   5.242  0.2162  0.0497 -0.1455
19822W        W20686   3.484  23.242   7.292  0.0657  0.3201  0.0925
19823W        W20687   2.933  26.333   8.872 -0.0355 -0.0947 -0.0868
19824W        W20688   5.374  22.699   3.125  0.1763 -0.1896  0.1286
19825W        W20689   5.285  26.852   7.643  0.1555 -0.1251  0.3559
19826W        W20690   1.259  26.171   7.418 -0.1760 -0.1339 -0.1098
19827W        W20691   5.141  23.922   5.912 -0.2159  0.3830 -0.0210
19828W        W20692   0.245  22.554   5.216  0.2235  0.0583  0.1354
19829W        W20693  27.885  22.655   6.199 -0.0631  0.2313 -0.1304
19830W        W20694   1.173  23.889   5.477 -0.2317  0.1084  0.0407
19831W        W20695   1.977  24.517   9.850 -0.1749 -0.0836 -0.3047
19832W        W20696   2.664  25.642   7.907  0.1910 -0.0065  0.0890
19833W        W20697   2.419  22.763   7.001 -0.0219 -0.1633 -0.1407
19834W        W20698   2.719  23.312   6.141  0.1508 -0.1779  0.2307
19835W        W20699   3.329  26.386   5.262  0.0669  0.0371  0.1979
19836W        W20700   3.418  27.611   9.049 -0.0097 -0.0630 -0.0481
19837W        W20701   0.980  26.125   8.638  0.3526  0.4368 -0.2116
19838W        W20702   0.721  22.902   6.951 -0.1455 -0.3029 -0.2034
19839W        W20703  27.618  23.126   7.520 -0.1871  0.2372 -0.0659
19840W        W20704   3.392  24.480   7.270 -0.0437 -0.0582  0.1787
19841W        W20705   1.544  23.978   7.032  0.0987  0.2863  0.2294
19842W        W20706  28.457  22.934   5.709 -0.0517  0.1061  0.0041
19843W        W20707   4.138  25.184   5.580 -0.0593 -0.0021  0.3653
19844W        W20708   1.488  21.880   5.826 -0.4280 -0.3006 -0.0228
19845W        W20709   2.795  21.575   1.507  0.2718 -0.1947 -0.1635
19846W        W20710   5.324  22.948   8.474  0.0152 -0.3578  0.1562
19847W        W20711   1.639  24.500   7.294  0.0623 -0.1095  0.5143
19848W        W20712   3.945  22.117   4.907  0.1318 -0.1028 -0.2001
19849W        W20713   3.736  27.510   3.868 -0.0197  0.0862 -0.0641
19850W        W20714   1.134  24.418   6.436  0.1589 -0.3014  0.2452
19851W        W20715   1.964  22.545   6.173 -0.3140 -0.0961  0.0600
19852W        W20716   6.385  23.882   7.117  0.1714  0.2226  0.1700
19853W        W20717   2.785  22.864   5.360  0.3252  0.3906  0.4190
19854W        W20718   3.124  22.934   5.050 -0.3972 -0.0558  0.1406
19855W        W20719   1.316  24.047   5.995  0.0845  0.4110 -0.0536
19856W        W20720   1.750  23.137   5.887  0.0160  0.1523  0.0090
19857W        W20721   2.043  23.928   8.096 -0.2366  0.0968 -0.0922
19858W        W20722   1.472  23.309   3.523  0.4058 -0.2854 -0.0964
19859W        W20723   3.358  21.374   3.700  0.1152 -0.2303  0.0096
19860W        W20724  28.671  25.420   6.369 -0.1013  0.0897 -0.1668
19861W        W20725   1.198  21.709   5.367 -0.0097  0.0089 -0.0127
19862W        W20726   4.757  20.553   7.075 -0.2853 -0.3368 -0.1394
19863W        W20727   0.340  25.096   5.420  0.0181 -0.0563  0.1874
19864W        W20728  27.980  25.120   4.397  0.0909  0.1578  0.0201
19865W        W20729   3.886  22.692   1.377 -0.0351 -0.1954  0.1034
19866W        W20730   0.191  22.993   7.002 -0.1932  0.0682  0.2132
19867W        W20731   1.868  23.619   5.923 -0.1275  0.1699 -0.0252
19868W        W20732   1.568  24.951   7.022 -0.1320  0.0689 -0.1197
19869W        W20733   4.686  20.952   5.162  0.2440 -0.1089 -0.0115
19870W        W20734   2.343  23.840   5.671  0.0392 -0.0800 -0.0956
19871W        W20735   1.435  23.458   5.687  0.0193  0.4600 -0.4937
19872W        W20736  28.119  23.088   5.351 -0.4340 -0.3310  0.0720
19873W        W20737   1.342  25.043   5.127  0.0182 -0.1844  0.1922
19874W        W20738   5.154  22.931   6.059  0.3259 -0.2120 -0.2882
19875W        W20739   5.979  24.738   7.136 -0.1342 -0.0819 -0.1627
19876W        W20740   1.949  23.422   4.148  0.0772 -0.0927 -0.0658
19877W        W20741   2.878  25.297   6.758 -0.4721  0.2513 -0.1607
19878W        W20742   2.326  22.917   9.041 -0.2789 -0.2150 -0.0752
19879W        W20743   3.436  26.502   7.027 -0.0850  0.1458 -0.0444
19880W        W20744   3.012  24.576   8.604  0.2476 -0.0349 -0.0930
19881W        W20745   2.647  23.545   7.147  0.0352 -0.3477  0.2522
19882W        W20746   1.068  25.578   8.683 -0.1350 -0.0229  0.0369
19883W        W20747   4.174  24.141   5.784 -0.2115 -0.0578  0.0968
19884W        W20748   3.144  21.721   3.995  0.2538 -0.0850  0.4411
19885W        W20749   1.596  23.154   6.705 -0.3719 -0.1151 -0.0718
19886W        W20750   1.287  24.230   7.443  0.0859  0.1344  0.0739
19887W        W20751   0.503  19.587   7.743  0.1837  0.2499 -0.0938
19888W        W20752   2.015  21.557   6.409  0.2199  0.1477 -0.2198
19889W        W20753   3.951  23.425   7.943 -0.0498 -0.2053  0.0109
19890W        W20754   4.299  21.102   5.401  0.1658  0.1331  0.3946
19891W        W20755   2.975  26.765   7.084  0.2445 -0.0970 -0.0528
19892W        W20756   4.915  20.983   6.676 -0.0978 -0.0523  0.1441
19893W        W20757   2.784  25.399  10.744 -0.0224 -0.1533  0.0227
19894W        W20758   4.639  24.021   5.880  0.2535  0.1449 -0.2669
19895W        W20759   3.424  23.336   5.924 -0.3414 -0.2165  0.2982
19896W        W20760   4.084  20.129   7.448 -0.1087  0.0121 -0.0311
19897W        W20761   0.256  25.281   6.922 -0.1977  0.3626 -0.1221
19898W        W20762   1.150  24.347   4.663  0.2635  0.1968  0.0349
19899W        W20763   0.671  24.687   7.488  0.4031  0.1597  0.0802
19900W        W20764   3.337  21.943   2.589 -0.0618 -0.2926  0.0701
19901W        W20765   2.488  23.722   1.893 -0.0497 -0.0231  0.0550
19902W        W20766   1.087  22.418   7.715  0.0415  0.1595 -0.0709
19903W        W20767  28.181  24.639   5.543  0.3079  0.3940  0.0702
19904W        W20768   4.845  21.403   6.408 -0.2013  0.0148 -0.1571
19905W        W20769   5.827  26.184   3.838  0.2236 -0.1562  0.1181
19906W        W20770   2.339  26.721   6.332  0.0577  0.0263 -0.1300
19907W        W20771   0.687  20.769   4.024  0.0642  0.1385 -0.2008
19908W        W20772   2.182  25.663   6.606  0.2759  0.1646 -0.2964
19909W        W20773   4.320  20.432   6.160 -0.0742  0.0503 -0.1012
19910W        W20774   5.743  21.825   7.696 -0.0036 -0.0986 -0.1439
19911W        W20775  26.243  22.927   4.326 -0.1249 -0.2958  0.0382
19912W        W20776   1.641  24.337   6.655 -0.0290 -0.0470 -0.2551
19913W        W20777  28.870  21.058   5.878  0.1640 -0.2594 -0.1898
19914W        W20778   0.289  24.067   8.098 -0.0271 -0.1125 -0.0384
19915W        W20779   2.403  21.676   6.081 -0.1600  0.1144  0.3269
19916W        W20780   1.382  26.117   6.463 -0.0642  0.0267 -0.1982
19917W        W20781   6.041  23.823   6.204  0.0743  0.1604  0.2640
19918W        W20782   1.780  23.971   6.274 -0.1294  0.0429 -0.1664
19919W        W20783   4.258  22.854   4.403  0.1353  0.0099  0.1080
19920W        W20784   0.598  23.128   4.653 -0.0018 -0.1569 -0.0210
19921W        W20785   4.487  22.185   6.465 -0.1126  0.1410 -0.2406
19922W        W20786   3.988  23.809   4.667 -0.2986  0.0934  0.1405
19923W        W20787   2.502  23.585   5.248  0.2078 -0.0692 -0.0496
19924W        W20788  28.174  23.522   3.306  0.1120 -0.0217  0.2570
19925W        W20789   1.751  25.035   3.309 -0.0437 -0.1916  0.2504
19926W        W20790   0.038  24.826   6.988 -0.0341  0.2251  0.0958
19927W        W20791   4.014  22.094   6.418 -0.0498 -0.0519 -0.0385
19928W        W20792   3.853  22.360   4.475  0.2427  0.2599  0.0068
19929W        W20793   0.221  22.068   7.267 -0.0312 -0.1281  0.0066
19930W        W20794   2.123  23.919   4.224  0.1867 -0.2386  0.0778
19931W        W20795   0.423  23.396   5.572  0.0893 -0.2713  0.0838
19932W        W20796   1.637  24.764   8.998 -0.0015 -0.2063 -0.3849
19933W        W20797   2.733  26.446   6.804 -0.0440  0.1237 -0.0754
19934W        W20798   5.215  23.870   4.032  0.1084  0.0331  0.3269
19935W        W20799   3.406  26.438   9.129  0.0867  0.2554  0.1358
19936W        W20800   1.612  21.373   8.566 -0.2050 -0.1225 -0.0762
19937W        W20801   0.935  24.332   5.666  0.0422 -0.2043  0.0580
19938W        W20802   4.906  21.799   4.179 -0.0116 -0.1289  0.4042
19939W        W20803   3.272  22.670   5.545  0.0811  0.0666 -0.2423
19940W        W20804  28.277  21.795   8.629 -0.0480  0.0338 -0.2106
19941W        W20805   5.142  22.806   7.100 -0.0737 -0.0685 -0.0270
19942W        W20806   3.269  23.600   8.757 -0.2003  0.0988  0.2062
19943W        W20807   3.357  24.591   9.039 -0.2195  0.1442  0.2585
19944W        W20808   3.183  23.725   5.484 -0.1449 -0.3347  0.0694
19945W        W20809   0.226  22.793   4.504 -0.1035 -0.3645  0.0363
19946W        W20810   2.423  21.390   6.719  0.0362 -0.0117  0.2976
19947W        W20811   3.183  24.209   4.747  0.0836 -0.0183 -0.1577
19948W        W20812  28.734  23.579   4.566  0.3460 -0.1093 -0.3477
19949W        W20813   4.597  23.596   6.690  0.1714  0.1835 -0.0295
19950W        W20814   2.380  24.269   1.010 -0.0001  0.0778  0.1470
19951W        W20815   0.513  21.502   5.776  0.2188  0.4570  0.0355
19952W        W20816   1.722  27.505   7.764  0.1679 -0.1044 -0.0631
19953W        W20817   2.531  25.461   8.432  0.0158  0.0655  0.3862
19954W        W20818   0.269  25.004   7.369 -0.0352 -0.0954 -0.2278
19955W        W20819   3.173  25.529   4.985 -0.0229 -0.1935  0.0253
19956W        W20820   1.618  21.937   6.359  0.1515  0.1571  0.3475
19957W        W20821   2.689  24.397   7.190 -0.0627 -0.0730  0.3201
19958W        W20822   2.411  20.850   4.315  0.0659  0.0863  0.3775
19959W        W20823   1.867  23.673  10.056  0.1080  0.1120 -0.0944
19960W        W20824   5.629  23.888   5.037 -0.0867  0.1087 -0.0920
19961W        W20825  28.567  22.038   6.432  0.0383  0.1811 -0.3073
19962W        W20826   1.489  21.786   3.358  0.1077 -0.1260 -0.1685
19963W        W20827   2.083  22.123   2.224  0.0261 -0.0282  0.0165
19964W        W20828   2.147  24.140   6.004 -0.2243 -0.1534  0.0232
19965W        W20829   2.252  23.234   5.830  0.1080  0.3747 -0.1217
19966W        W20830   0.644  22.726   8.440 -0.0777  0.1765  0.0043
19967W        W20831   3.233  23.792   9.786 -0.1475 -0.1210  0.0511
19968W        W20832   4.478  21.254   9.018  0.0390  0.1215  0.1913
19969W        W20833   2.832  21.354   5.934 -0.0066  0.0146  0.0488
19970W        W20834  29.106  22.480   7.052  0.1688 -0.0103  0.0785
19971W        W20835   3.385  24.482   6.698 -0.1607 -0.0487 -0.0514
19972W        W20836  28.749  24.668   5.397  0.0236  0.1107  0.5372
19973W        W20837   3.717  26.086   7.984  0.0412 -0.1909  0.1094
19974W        W20838   0.048  22.680   6.143  0.0860 -0.3003 -0.0174
19975W        W20839   5.621  23.834   7.410  0.1534  0.0493 -0.0946
19976W        W20840   3.120  23.830   4.035 -0.0894 -0.1068 -0.0332
19977W        W20841   3.924  25.108   5.121  0.0408  0.1221  0.0347
19978W        W20842  27.013  23.603   4.547 -0.2495 -0.1743  0.0922
19979W        W20843   1.997  20.076   4.920  0.1704  0.1833 -0.3287
19980W        W20844   3.694  24.880   5.520  0.3098  0.2578  0.0265
19981W        W20845   0.222  25.049   6.498  0.5286  0.0442  0.2853
19982W        W20846   0.647  23.369   7.101 -0.1004  0.1226  0.2612
19983W        W20847   0.762  26.258   4.492 -0.1593  0.1530  0.0869
19984W        W20848   3.618  22.144   7.037  0.2400  0.2763 -0.0742
19985W        W20849   2.673  23.020   4.889  0.2852  0.1137 -0.0819
19986W        W20850   4.522  22.933   3.305 -0.0281 -0.3324 -0.0108
19987W        W20851   3.690  22.823   3.267  0.0156  0.1729 -0.1276
19988W        W20852   1.837  23.618   6.647  0.3082  0.0735  0.2536
19989W        W20853   4.182  19.486   3.377 -0.0566  0.3586  0.0424
19990W        W20854   3.043  26.228   7.250  0.1152  0.3649 -0.0301
19991W        W20855   1.671  22.617   4.471  0.1441  0.0990  0.0978
19992W        W20856   0.060  21.931   4.490  0.1060  0.3273 -0.1966
19993W        W20857   2.184  25.680   8.016  0.2517  0.3896 -0.0385
19994W        W20858   0.964  25.111   6.199 -0.1708  0.0802  0.0272
19995W        W20859   1.058  26.191   3.933  0.1313  0.1892 -0.3558
19996W        W20860  29.017  22.905   6.669  0.0807 -0.2024 -0.1687
19997W        W20861   0.484  25.268   5.867  0.0755 -0.4424 -0.0206
19998W        W20862   4.059  21.568   8.735  0.1195  0.0574 -0.2415
19999W        W20863   0.593  22.199   8.592 -0.0995 -0.2089 -0.0612
20000W        W20864   2.125  22.329   6.894 -0.1823  0.0373  0.1296
20001W        W20865   5.532  22.480   5.185 -0.1480 -0.0508 -0.2391
20002W        W20866   1.294  25.670   9.682 -0.2748  0.1064  0.2139
20003W        W20867   0.131  20.628   6.001  0.0637 -0.0251 -0.1446
20004W        W20868   4.884  23.832   6.286  0.2519 -0.2385 -0.2122
20005W        W20869   1.535  21.435   6.662  0.2610  0.0143  0.0647
20006W        W20870   3.833  21.161   3.891 -0.0543 -0.0177 -0.4050
20007W        W20871   5.515  22.113   3.848  0.1315 -0.4579 -0.0566
20008W        W20872  28.549  24.155   5.536 -0.2088  0.0064  0.0552
20009W        W20873   3.670  23.614   6.932  0.3473  0.3652  0.0447
20010W        W20874  27.850  22.291   4.036 -0.1293 -0.0813  0.0138
20011W        W20875   0.832  24.248   7.222 -0.0678 -0.3473  0.1481
20012W        W20876   4.502  25.846   7.673  0.1097 -0.3047  0.2666
20013W        W20877  28.745  24.313   3.276  0.0959 -0.0532 -0.0075
20014W        W20878  28.682  23.402   3.316  0.1930 -0.2149  0.2030
20015W        W20879   3.007  24.174   8.123  0.1054 -0.2349  0.1261
20016W        W20880  28.176  23.464   6.616  0.0092 -0.0199 -0.0895
20017W        W20881   3.697  24.472   5.885 -0.0972  0.0074  0.0845
20018W        W20882   2.775  23.410   3.830 -0.1373 -0.0067  0.0509
20019W        W20883   5.477  23.356   7.115  0.1742 -0.0532  0.0722
20020W        W20884   6.335  26.378   6.663  0.0672  0.1045 -0.2766
20021W        W20885   1.384  24.596   5.083 -0.2543 -0.4371  0.3872
20022W        W20886   2.652  24.388   3.455 -0.0588 -0.0532  0.0232
20023W        W20887   3.262  22.049   8.736  0.0252 -0.1720  0.3193
20024W        W20888   2.433  25.019   8.050  0.2513  0.2908  0.2056
20025W        W20889   4.891  22.548   4.874  0.0148  0.1069  0.2054
20026W        W20890   4.557  23.270   5.725  0.1625  0.3149  0.1482
20027W        W20891   2.606  23.148   6.681 -0.2824  0.0119 -0.1102
20028W        W20892   2.004  20.579   6.789  0.1363 -0.2042  0.2618
20029W        W20893   1.951  24.750   6.743 -0.1023  0.0415 -0.0208
20030W        W20894  28.985  24.945   7.633  0.1923  0.0635  0.0788
20031W        W20895   2.319  25.870   8.585 -0.0484  0.2221 -0.0394
20032W        W20896   6.070  23.356   9.028 -0.1748  0.0301  0.0853
20033W        W20897   3.494  24.049   8.376 -0.0312 -0.0550  0.0026
20034W        W20898   4.217  27.259   8.550  0.0424  0.1686  0.2519
20035W        W20899   2.316  24.403   8.913 -0.1088 -0.1421 -0.1189
20036W        W20900   0.287  24.866   7.894  0.1571 -0.2243  0.1981
20037W        W20901   2.490  24.685   6.323  0.0086 -0.1866  0.1351
20038W        W20902   1.103  23.061   4.815 -0.1481  0.0549 -0.1964
20039W        W20903  28.280  23.307   8.706  0.0033  0.1008  0.0274
20040W        W20904   3.244  23.489   4.871 -0.0825  0.2383  0.2316
20041W        W20905   4.796  23.639   5.521 -0.1671  0.1565  0.3089
20042W        W20906   0.060  18.709   7.342 -0.3645 -0.1910 -0.3089
20043W        W20907   5.626  25.130  10.243 -0.0368  0.2124  0.0652
20044W        W20908   4.601  24.059   9.371 -0.2018 -0.2473  0.4124
20045W        W20909   1.516  26.200   5.214 -0.1482  0.2925  0.0810
20046W        W20910  28.482  23.490   7.009 -0.0180 -0.0438  0.0961
20047W        W20911   1.955  23.507   5.466 -0.0347  0.2338  0.2216
20048W        W20912   1.796  21.043   5.749 -0.2430  0.3390 -0.0057
20049W        W20913   3.779  24.131   7.569  0.0118  0.3658  0.0392
20050W        W20914   0.138  22.308   3.674  0.1223  0.2575 -0.1135
20051W        W20915   3.026  24.169   6.358  0.1120  0.3736  0.1888
20052W        W20916  28.905  26.790   9.053  0.0068  0.0502 -0.5066
20053W        W20917   3.713  25.347   5.720  0.0073  0.1696  0.3079
20054W        W20918  29.000  23.342   6.976 -0.0793  0.3309 -0.3134
20055W        W20919   1.362  22.417   5.938 -0.3181  0.0920  0.1328
20056W        W20920   1.232  25.927   5.626  0.0068  0.0329 -0.0007
20057W        W20921   4.546  23.644   9.686  0.3038 -0.2348  0.1577
20058W        W20922   3.249  24.169   7.635 -0.0592 -0.1535  0.0346
20059W        W20923   0.957  25.611   3.840  0.0115 -0.2384 -0.1502
20060W        W20924   4.401  25.733   3.406 -0.1542 -0.1946  0.0155
20061W        W20925   1.250  23.091   3.948  0.2021 -0.1350 -0.2025
20062W        W20926   5.458  23.137   6.371  0.1617  0.0251 -0.0676
20063W        W20927   3.903  23.612   6.068 -0.0811  0.0834 -0.2152
20064W        W20928   5.320  25.336   5.975  0.0719  0.0289  0.1460
20065W        W20929   2.369  22.021   5.630  0.0185  0.3513  0.0116
20066W        W20930   1.020  23.820   7.331  0.3301  0.1944  0.1251
20067W        W20931   4.596  25.243   9.231 -0.0357  0.1246  0.1353
20068W        W20932   1.925  24.373   7.646 -0.0075  0.0682 -0.1938
20069W        W20933   0.336  24.033   6.392  0.1347  0.1709 -0.2501
20070W        W20934   1.374  27.843   6.068  0.3764 -0.0693 -0.0379
20071W        W20935   3.685  21.755   6.381 -0.1878  0.1979 -0.0384
20072W        W20936   4.516  24.622   4.076 -0.2162 -0.0065 -0.3850
20073W        W20937   4.399  23.441   3.182 -0.0467  0.3872 -0.3043
20074W        W20938   3.294  23.628   3.026 -0.0634 -0.1005  0.1741
20075W        W20939   2.517  23.554   4.311 -0.2394 -0.0086  0.1681
20076W        W20940   4.622  24.173   7.355 -0.2015 -0.0753  0.1746
20077W        W20941   3.500  24.213   6.247 -0.0851  0.2110 -0.0443
20078W        W20942   1.448  23.579   7.486  0.1377 -0.2188  0.2022
20079W        W20943   3.360  25.020   7.903  0.0254 -0.1417  0.1992
20080W        W20944   0.800  24.077   7.698  0.1744 -0.0142 -0.0475
20081W        W20945   0.349  24.038   6.917  0.2962 -0.1319  0.1854
20082W        W20946   0.847  24.037   6.362 -0.1283 -0.0600 -0.0771
20083W        W20947   1.799  23.561   1.371 -0.1628 -0.0378  0.3987
20084W        W20948   1.472  25.880   8.815  0.0352 -0.0733  0.2877
20085W        W20949   3.359  22.536   6.904  0.0964 -0.0777  0.0768
20086W        W20950   3.550  23.533   6.470  0.0158 -0.1859 -0.2480
20087W        W20951   2.706  23.978   5.993  0.0329 -0.0557  0.2937
20088W        W20952   0.448  27.422   7.280  0.0127  0.2097  0.0741
20089W        W20953   3.463  22.014   4.509  0.1570 -0.0748 -0.0227
20090W        W20954   1.788  23.540  10.933  0.3719 -0.1318 -0.1962
20091W        W20955   2.422  24.614   7.622 -0.0296 -0.0169  0.1605
20092W        W20956  27.787  24.383   7.431  0.0621  0.2572  0.2685
20093W        W20957   3.791  22.494   5.706  0.0609 -0.3077 -0.1998
20094W        W20958   2.027  25.203   7.196  0.0922  0.0080 -0.2243
20095W        W20959   1.544  24.758   7.716 -0.0957  0.1910  0.2888
20096W        W20960   3.687  21.492   2.802 -0.2342 -0.2657 -0.0963
20097W        W20961   4.453  21.166   6.524 -0.2663  0.2326  0.2829
20098W        W20962  28.060  23.617   5.553 -0.0967 -0.3362 -0.2936
20099W        W20963   1.894  26.046   4.771  0.1881 -0.0214 -0.0692
20100W        W20964   1.752  20.313   4.387  0.0400  0.4462  0.1404
20101W        W20965   0.667  20.771   6.333 -0.1265  0.0373  0.0415
20102W        W20966   4.004  25.493   9.019  0.2305  0.0144 -0.1928
20103W        W20967   6.622  22.496   4.278 -0.0017  0.2566  0.0846
20104W        W20968   1.090  26.525   4.800  0.1156  0.0357  0.1300
20105W        W20969   1.653  25.610   6.446  0.1105  0.2385 -0.3996
20106W        W20970   0.392  22.248   9.916 -0.1600  0.1869  0.0610
20107W        W20971   2.916  25.334   6.107 -0.3021 -0.0191 -0.1438
20108W        W20972   4.862  23.540   4.582  0.3198 -0.1885  0.2084
20109W        W20973   0.570  22.897   5.421 -0.1029 -0.2243  0.1566
20110W        W20974   3.112  24.176   7.043 -0.1009  0.0328 -0.2149
20111W        W20975   2.750  24.180   8.986 -0.0112  0.2729 -0.0128
20112W        W20976   0.918  22.788   4.436  0.1221  0.2717  0.2810
20113W        W20977   3.976  23.740   7.300 -0.0793 -0.0665  0.0332
20114W        W20978   0.797  22.536   6.644  0.2149  0.1939 -0.0955
20115W        W20979   4.054  22.755   5.296  0.1752  0.1175  0.0163
20116W        W20980  29.014  23.877   6.756  0.0496 -0.1854 -0.0522
20117W        W20981   1.052  24.762   5.474  0.1034 -0.3072 -0.1686
20118W        W20982   3.073  26.520   8.402 -0.3306  0.1908 -0.0825
20119W        W20983   0.117  23.115   7.513 -0.1946  0.0910 -0.0544
20120W        W20984   0.987  25.285   9.532 -0.1095  0.0138  0.3124
20121W        W20985  29.004  23.166   4.763 -0.0632  0.0517 -0.3199
20122W        W20986   5.703  23.004   5.837  0.3353 -0.0127 -0.4514
20123W        W20987   4.153  23.536   6.475  0.4645 -0.1205  0.2287
20124W        W20988   2.924  21.056   9.357 -0.0814  0.0715  0.3790
20125W        W20989  28.733  23.861   7.232  0.0427  0.0722 -0.0923
20126W        W20990   5.246  24.745   2.187  0.1611  0.0447 -0.5276
20127W        W20991   0.597  22.886   7.429 -0.2584  0.1776 -0.0620
20128W        W20992   3.687  24.628   5.073  0.2147 -0.1205 -0.0428
20129W        W20993  28.753  22.226   3.828 -0.1319  0.4118  0.1142
20130W        W20994   1.129  23.566   4.932 -0.0065  0.2783  0.0619
20131W        W20995   3.104  22.446   5.089 -0.1889  0.0873  0.1145
20132W        W20996   1.308  24.080   5.066 -0.2720 -0.0524 -0.1760
20133W        W20997   1.311  22.641   3.094 -0.2550 -0.4685  0.2833
20134W        W20998   0.606  24.353   6.081 -0.0999  0.1658  0.3039
20135W        W20999   2.620  22.847   5.833  0.2868 -0.3007 -0.0709
20136W        W21000   2.199  22.711   4.192  0.0467  0.2488  0.1381
20137W        W21001   4.653  25.482   8.566  0.2317  0.2653  0.0115
20138W        W21002   0.894  24.595   8.462  0.0847  0.0085 -0.0837
20139W        W21003   3.432  25.015   7.424  0.1537 -0.1527  0.2087
20140W        W21004   2.864  26.888   7.717  0.0559 -0.0754 -0.0401
20141W        W21005   2.384  25.822   7.495  0.0754  0.3101  0.0686
20142W        W21006   0.937  21.729   4.038  0.1650 -0.0823  0.0554
20143W        W21007   2.893  21.635   6.882  0.3474 -0.0927 -0.1952
20144W        W21008   2.476  21.426   3.373  0.1198  0.2060 -0.4394
20145W        W21009   1.699  25.233   4.844  0.1037 -0.1097  0.1596
20146W        W21010   2.467  24.103   6.416 -0.0395 -0.1228 -0.2035
20147W        W21011   3.033  23.108   5.793 -0.1533 -0.2437  0.1609
20148W        W21012  27.909  24.568   6.429  0.0485  0.2579  0.0871
20149W        W21013   2.890  27.303   6.827 -0.0109 -0.2759 -0.3512
20150W        W21014   0.741  25.139   7.230  0.0106 -0.0196  0.2188
20151W        W21015  28.733  24.478   5.904  0.1813 -0.2030 -0.0374
20152W        W21016   3.143  23.116   6.369  0.0728  0.0411  0.0035
20153W        W21017   3.926  23.089   5.673 -0.0182  0.1873 -0.2548
20154W        W21018  27.488  22.253   4.510 -0.0855  0.1197 -0.0995
20155W        W21019   4.620  20.157   5.718  0.0901  0.0003 -0.2786
20156W        W21020   4.170  23.182   6.142 -0.2351  0.0624 -0.0417
20157W        W21021   3.289  25.957   9.166  0.0163  0.1946  0.1462
20158W        W21022   0.171  25.862   7.525 -0.1868  0.1465 -0.4277
20159W        W21023   0.349  24.115   4.932  0.0329  0.0051 -0.0353
20160W        W21024   2.217  20.961   2.063  0.3498 -0.0124  0.0615
20161W        W21025  28.351  25.576   6.734  0.1038 -0.1004 -0.2525
20162W        W21026   1.924  25.237   6.673 -0.2692 -0.0319  0.0600
20163W        W21027   0.975  23.242   8.730  0.1067 -0.0490 -0.2775
20164W        W21028   1.077  22.738   5.256  0.1738  0.1057 -0.0957
20165W        W21029   0.678  23.868   5.267  0.3056  0.3484 -0.2165
20166W        W21030  28.851  21.963   7.961 -0.3648  0.2248  0.2054
20167W        W21031   2.910  23.358   5.239  0.0547 -0.1150  0.0705
20168W        W21032   3.816  19.816   4.519 -0.1102  0.2026 -0.1257
20169W        W21033   1.624  23.926   4.300 -0.0080 -0.2436 -0.2728
20170W        W21034   3.607  25.125   8.280 -0.0564  0.0242  0.1955
20171W        W21035   3.853  24.648   7.256 -0.0904 -0.0132  0.1088
20172W        W21036   1.787  23.954   4.771 -0.0224  0.0655 -0.0947
20173W        W21037   3.400  21.948   3.104  0.2999  0.1494  0.0097
20174W        W21038   5.703  23.736   4.572  0.0278  0.0408  0.0753
20175W        W21039   1.446  24.427   5.554  0.0568  0.1662  0.0807
20176W        W21040   3.451  22.036   5.009 -0.0632 -0.2494 -0.0776
20177W        W21041   0.666  23.909   3.095 -0.2174 -0.0274  0.0039
20178W        W21042   3.506  22.857   5.931 -0.1711  0.1638 -0.2367
20179W        W21043   2.747  23.580   2.881  0.2410 -0.1018  0.0699
20180W        W21044  28.782  23.259   9.485  0.0990  0.2208  0.1672
20181W        W21045   2.806  21.833   7.416  0.1133 -0.0522 -0.0013
20182W        W21046   3.603  27.202   7.409  0.0054 -0.1668  0.2419
20183W        W21047   2.115  23.214   6.911 -0.2784  0.3238 -0.2138
20184W        W21048   0.071  21.471   6.118  0.1254  0.0019 -0.0246
20185W        W21049   0.559  23.318   8.368 -0.0662  0.1155  0.0969
20186W        W21050  28.870  23.657   5.085 -0.1790 -0.1770  0.0461
20187W        W21051   3.755  23.534   5.598 -0.1292 -0.0008 -0.0742
20188W        W21052   4.250  23.649   5.701 -0.1252 -0.2496  0.2572
20189W        W21053   5.828  22.326   7.244  0.0768 -0.1649 -0.4299
20190W        W21054   3.393  22.679   6.388  0.1407  0.3980  0.1195
20191W        W21055   4.311  25.329   7.137  0.0464 -0.1994  0.1848
20192W        W21056   1.658  24.422   4.639  0.3083  0.0549  0.1802
20193W        W21057   0.785  26.769   5.829  0.2774 -0.0171  0.1365
20194W        W21058   7.289  25.207   9.705  0.1076 -0.2520 -0.1202
20195W        W21059   1.083  23.688   7.818  0.1070  0.0032 -0.1744
20196W        W21060   0.967  23.938   6.852  0.3104  0.1662 -0.4041
20197W        W21061   2.572  24.909   7.271  0.1595  0.3181  0.0728
20198W        W21062   2.658  27.238   9.606 -0.2392 -0.1018 -0.0939
20199W        W21063   0.144  26.623   6.167  0.1838  0.1432  0.0587
20200W        W21064   3.571  22.148   7.523  0.0600 -0.4067 -0.0193
20201W        W21065   3.484  23.941   4.480 -0.1456 -0.0897 -0.0348
20202W        W21066   1.684  24.484   6.038 -0.0676  0.0396  0.0596
20203W        W21067   1.654  22.404   4.941 -0.0778  0.2653 -0.1143
20204W        W21068   0.538  23.792   4.234  0.0570 -0.3814  0.0113
20205W        W21069  28.733  25.170  12.599  0.1579 -0.0640  0.3199
20206W        W21070  27.924  23.542  10.168  0.0265  0.1781  0.0586
20207W        W21071   0.983  24.494  10.260  0.1576 -0.1119 -0.1552
20208W        W21072   5.352  25.521   9.733 -0.2318  0.2249 -0.1642
20209W        W21073   1.351  26.652   7.867  0.0258  0.2135  0.3100
20210W        W21074  27.571  24.003   8.769 -0.1399 -0.1927  0.1283
20211W        W21075  28.687  21.555   8.858 -0.0157  0.1583  0.0069
20212W        W21076  29.088  26.511   7.578 -0.2807 -0.0086 -0.0977
20213W        W21077   1.415  27.585  10.849 -0.1073  0.3214 -0.1686
20214W        W21078   0.611  21.219  12.543  0.2418 -0.2094  0.1799
20215W        W21079   0.710  18.509  11.264 -0.0558  0.1742  0.0880
20216W        W21080   2.778  22.377   8.553  0.3457 -0.1993 -0.2280
20217W        W21081   2.627  27.331   8.408  0.0273  0.1091 -0.2862
20218W        W21082   6.240  22.066  13.526 -0.0812 -0.0805  0.4407
20219W        W21083  27.876  24.147  10.117  0.0049 -0.2591 -0.0131
20220W        W21084   2.839  26.856  10.777  0.0980  0.0737  0.1366
20221W        W21085   1.667  25.034   8.550  0.0415  0.0049  0.1630
20222W        W21086  28.101  21.518   8.261 -0.2140 -0.0593 -0.1214
20223W        W21087  28.259  22.213  10.437 -0.0103  0.0590 -0.0982
20224W        W21088   5.389  21.462   8.103  0.0412  0.1073  0.1726
20225W        W21089   2.824  24.760   9.812  0.0951 -0.1567  0.1196
20226W        W21090   1.073  24.830  10.998  0.0518 -0.2932  0.0311
20227W        W21091   2.327  23.597  10.263 -0.1539  0.0468  0.1529
20228W        W21092  28.841  23.954  10.995 -0.0339 -0.0014  0.0332
20229W        W21093  28.483  23.370   8.193 -0.1476 -0.4045  0.0751
20230W        W21094  28.003  23.900   7.884  0.2421  0.0112 -0.0083
20231W        W21095   3.509  24.188   9.356  0.0821 -0.1239 -0.1296
20232W        W21096   0.781  25.788  10.967  0.3140 -0.0363 -0.2560
20233W        W21097   1.999  24.200  11.233  0.3485 -0.0386 -0.3778
20234W        W21098   2.457  24.129   7.821 -0.1842  0.0766  0.0660
20235W        W21099   0.766  25.690  10.475 -0.0727  0.0235  0.3973
20236W        W21100   4.581  23.489  12.866 -0.3000 -0.1488  0.2017
20237W        W21101   4.018  24.375  11.335  0.0546  0.1276 -0.3492
20238W        W21102   1.982  23.250  11.801 -0.1783  0.0079 -0.0640
20239W        W21103  28.195  25.069  12.569  0.1890 -0.1021 -0.0395
20240W        W21104   2.353  24.100   9.339  0.1208 -0.0139  0.2500
20241W        W21105   1.476  21.124  10.607  0.2151  0.1606 -0.0645
20242W        W21106  28.891  23.893   8.140  0.2061 -0.2355  0.0352
20243W        W21107   5.474  24.524   8.387 -0.0852 -0.0042  0.1839
20244W        W21108   3.221  22.847   9.962 -0.2361  0.3087  0.7088
20245W        W21109   3.361  21.142   9.080  0.2904 -0.1279  0.0899
20246W        W21110   3.533  24.704  11.558 -0.2002  0.0576 -0.2383
20247W        W21111   0.557  23.655  10.172 -0.0329 -0.3665 -0.0173
20248W        W21112   4.298  26.849   8.834  0.0123  0.0890  0.2538
20249W        W21113   1.437  25.321   8.931 -0.2673 -0.2473  0.0532
20250W        W21114   0.827  24.946  11.487  0.0528  0.0282  0.3957
20251W        W21115  27.652  22.730  10.766 -0.2764 -0.2403 -0.1844
20252W        W21116   4.987  20.888   9.575  0.3572  0.2761  0.1970
20253W        W21117   3.844  25.859  10.428  0.1560  0.1241 -0.1308
20254W        W21118   4.645  25.015   8.343 -0.2349 -0.1280  0.4265
20255W        W21119   3.910  23.445  10.515  0.0455  0.1146  0.0721
20256W        W21120   2.430  22.582  10.781  0.3121  0.1857 -0.0270
20257W        W21121   1.952  22.192   8.197  0.1280  0.1101 -0.0518
20258W        W21122   2.396  24.475  10.567  0.0764 -0.0178 -0.2140
20259W        W21123   3.216  25.998   7.960 -0.1477 -0.0649 -0.3476
20260W        W21124  27.934  25.599   9.694  0.1423 -0.1469  0.1416
20261W        W21125  28.256  22.702  10.524 -0.0658 -0.1750  0.0207
20262W        W21126   0.148  23.452   9.447 -0.1810  0.0821 -0.1763
20263W        W21127  28.745  24.119   9.502 -0.1175  0.0606 -0.2468
20264W        W21128   0.199  23.564   8.052 -0.1554 -0.1954 -0.0574
20265W        W21129   1.825  23.900   7.463 -0.2017  0.0735 -0.0923
20266W        W21130   2.292  25.094   9.765  0.2108  0.3357 -0.0738
20267W        W21131  28.518  22.882  10.135 -0.0226 -0.2257 -0.1851
20268W        W21132   1.251  23.926  10.789  0.4284  0.0209  0.0279
20269W        W21133  27.988  23.768  11.396  0.1220  0.0153 -0.2433
20270W        W21134   2.865  23.151  11.790 -0.3096 -0.0077  0.2562
20271W        W21135   0.239  24.520   9.194 -0.0660 -0.1237 -0.0168
20272W        W21136   0.366  24.750   8.387 -0.2412  0.1278  0.1164
20273W        W21137   0.235  25.397   7.689 -0.1642 -0.0532 -0.1577
20274W        W21138  29.090  25.140   9.360  0.1325 -0.0415  0.1545
20275W        W21139   4.523  23.271  12.382 -0.0357  0.0370 -0.0845
20276W        W21140   4.194  21.532   9.626 -0.1820 -0.1392 -0.2285
20277W        W21141   3.434  25.905   7.421  0.1823  0.0783 -0.3894
20278W        W21142   2.164  23.351   8.860  0.5016  0.0897 -0.0017
20279W        W21143   4.285  24.141   8.928 -0.0954 -0.0071  0.1863
20280W        W21144   3.943  22.502   7.789  0.1052 -0.0663 -0.1924
20281W        W21145   0.454  22.286   8.106  0.2084 -0.1967 -0.2146
20282W        W21146   2.328  23.699  12.443 -0.1476 -0.0427  0.0508
20283W        W21147   2.851  24.706  10.359  0.1962  0.2921  0.1107
20284W        W21148   4.013  24.279   8.000 -0.3620  0.2264  0.1002
20285W        W21149   1.278  23.404  10.967 -0.1343 -0.2085 -0.1245
20286W        W21150  28.582  25.838  10.786 -0.3273  0.0648 -0.0721
20287W        W21151   0.401  20.193  11.494 -0.0264  0.2341  0.1267
20288W        W21152   1.706  23.021  10.251 -0.0425  0.0638  0.0163
20289W        W21153   1.916  22.917   9.333 -0.1049  0.1288 -0.3334
20290W        W21154   5.173  23.622   7.545  0.3597 -0.2119  0.2208
20291W        W21155   4.547  25.609  12.026  0.1242 -0.0626 -0.0614
20292W        W21156   2.216  22.492   8.481 -0.3432 -0.0250 -0.1085
20293W        W21157   4.799  26.033  10.793  0.2055  0.1096  0.0467
20294W        W21158   3.673  21.609  12.890 -0.1350 -0.1664 -0.3086
20295W        W21159   5.179  23.565  10.238 -0.2225 -0.3180  0.0551
20296W        W21160   4.851  22.558  11.626 -0.2500 -0.1116  0.3818
20297W        W21161  28.749  23.533  10.793 -0.1961  0.2656  0.0149
20298W        W21162   0.524  24.178  10.029  0.1224  0.3535 -0.1369
20299W        W21163   1.943  21.531   9.391 -0.0217  0.1257  0.1168
20300W        W21164   1.401  25.087   8.045 -0.0453 -0.3314  0.2498
20301W        W21165   3.880  21.692   7.301  0.2923  0.2932  0.0529
20302W        W21166   1.309  22.648  11.982 -0.0660 -0.0188  0.2653
20303W        W21167   0.915  22.010   7.955  0.1959  0.0424  0.1083
20304W        W21168   4.982  21.720  13.500  0.2161 -0.2420  0.3590
20305W        W21169   4.230  24.445   7.590 -0.1104 -0.1387  0.1084
20306W        W21170   2.410  23.852  11.395  0.1162  0.1754 -0.0473
20307W        W21171   0.593  21.338   7.184 -0.0124 -0.0073 -0.0673
20308W        W21172   4.135  22.993  10.231  0.0419 -0.0412 -0.4339
20309W        W21173   2.352  22.730   9.966  0.1904 -0.0269 -0.0825
20310W        W21174   2.962  24.235  12.236  0.2021 -0.0731  0.1012
20311W        W21175   1.806  26.655   8.596 -0.1811  0.0530 -0.1660
20312W        W21176   3.432  22.442  10.933  0.1096  0.2442 -0.0346
20313W        W21177   1.577  23.809   9.229 -0.1102  0.1242 -0.0595
20314W        W21178   1.744  21.461   8.099 -0.0386 -0.1764 -0.0745
20315W        W21179   1.214  24.040  11.870 -0.1380 -0.1249  0.2910
20316W        W21180   1.686  25.562  11.026 -0.1347  0.1939 -0.3481
20317W        W21181   3.945  22.025   8.142  0.0485  0.2518 -0.0010
20318W        W21182   1.551  26.727  11.323 -0.2085 -0.0755  0.1964
20319W        W21183   1.803  23.506   7.781  0.1974 -0.3827  0.1337
20320W        W21184   2.700  23.378   8.584  0.1933 -0.2186 -0.1762
20321W        W21185   3.652  22.097   9.967  0.1085 -0.0144  0.0060
20322W        W21186   2.396  23.850   8.773 -0.1164 -0.3066  0.2522
20323W        W21187   3.229  23.459  10.170 -0.2222 -0.3346 -0.0447
20324W        W21188   1.411  22.777   8.136  0.2103 -0.4006 -0.1596
20325W        W21189   2.948  21.969   9.768  0.0250 -0.0254 -0.0954
20326W        W21190   1.585  25.287  10.331 -0.2121 -0.1320  0.1706
20327W        W21191   1.057  23.609   8.382 -0.0579  0.1374 -0.0350
20328W        W21192   2.467  20.158   9.668  0.1932 -0.0248 -0.0876
20329W        W21193   2.895  23.960   7.400 -0.0279 -0.2290 -0.2080
20330W        W21194   3.649  24.182   9.877  0.1179  0.1422 -0.1633
20331W        W21195  28.938  23.682   9.231  0.2949 -0.2499 -0.0765
20332W        W21196   4.941  22.055  11.832 -0.0151  0.0643 -0.1091
20333W        W21197   2.304  26.473  10.286  0.0710  0.1059  0.1235
20334W        W21198   1.636  24.124   8.788 -0.0027  0.0538 -0.2351
20335W        W21199   6.464  23.434  12.194  0.1724 -0.3096  0.0088
20336W        W21200   1.915  22.616  10.940  0.3175 -0.0328  0.0494
20337W        W21201   1.498  23.730   8.250  0.1406 -0.2173  0.0003
20338W        W21202   4.044  21.157   9.972 -0.0754  0.1452  0.0199
20339W        W21203   1.670  24.159  10.027 -0.0976  0.4288 -0.0177
20340W        W21204  27.276  21.696  11.640 -0.0097  0.0753  0.1920
20341W        W21205   4.034  23.524   9.592  0.2448 -0.0822  0.0080
20342W        W21206   3.969  24.522  10.072  0.1271 -0.2004 -0.1753
20343W        W21207   2.870  26.183  11.505 -0.0383  0.1905  0.2835
20344W        W21208   4.276  24.479  12.799  0.1296  0.0882  0.1225
20345W        W21209  29.099  20.822   9.011  0.1631 -0.3014 -0.1104
20346W        W21210   0.089  22.534   9.446  0.0624 -0.0686 -0.1635
20347W        W21211   0.381  25.536  10.810  0.1788  0.1419  0.0421
20348W        W21212   1.641  22.952   7.629 -0.0692 -0.1192  0.0952
20349W        W21213  28.531  24.627  11.338 -0.0345  0.0575  0.1398
20350W        W21214   1.218  21.842   9.179  0.0319 -0.1793  0.0859
20351W        W21215   2.795  20.511   9.743 -0.0014 -0.0945 -0.0025
20352W        W21216   2.055  23.704   9.185 -0.1154  0.0420  0.1306
20353W        W21217   1.696  25.653   9.279  0.0096  0.0449 -0.0134
20354W        W21218   0.260  24.570  12.275  0.1300  0.2025 -0.1381
20355W        W21219   0.273  26.294  10.179 -0.1164  0.1312 -0.2516
20356W        W21220   2.153  23.185   7.975  0.0040  0.0039  0.0024
20357W        W21221   2.452  24.908  10.811  0.1014  0.2267 -0.4374
20358W        W21222   0.807  23.064  10.276 -0.3444 -0.0979 -0.3636
20359W        W21223   0.957  22.849   9.146 -0.3734 -0.2708 -0.0164
20360W        W21224   1.894  21.342  11.910  0.0028 -0.1052  0.0361
20361W        W21225   0.588  24.813  10.839 -0.1568 -0.1666  0.0883
20362W        W21226   2.155  22.728   7.745  0.2786  0.2115 -0.1873
20363W        W21227  28.410  22.453   9.318 -0.2060  0.1303  0.2301
20364W        W21228   0.335  24.247   8.759 -0.1212 -0.1482  0.1330
20365W        W21229   3.081  21.898  12.018  0.0355 -0.1908  0.0407
20366W        W21230   1.264  25.328  11.818  0.3823 -0.1116 -0.0574
20367W        W21231   5.898  22.834  13.735  0.0833  0.1727  0.3826
20368W        W21232   5.356  23.681  12.475  0.1164  0.3856  0.1408
20369W        W21233   0.958  21.853  11.808 -0.2050 -0.0564 -0.2760
20370W        W21234  28.948  23.091  11.117 -0.0473 -0.0392 -0.2447
20371W        W21235  28.319  23.326   9.989 -0.4791 -0.0017 -0.0465
20372W        W21236   0.426  24.882  11.891  0.0003  0.1536  0.0606
20373W        W21237   1.651  23.388  11.392  0.1324 -0.0838 -0.0429
20374W        W21238   1.088  22.756   8.661 -0.0362  0.1504 -0.0675
20375W        W21239   4.030  21.509  11.250  0.2402  0.2031  0.1245
20376W        W21240  28.783  21.988   8.561 -0.1971  0.0022  0.0739
20377W        W21241   1.680  25.005  10.970  0.2076  0.0069 -0.1088
20378W        W21242   1.160  24.665   8.912  0.0231  0.2790  0.0562
20379W        W21243   1.114  22.143   8.587  0.0501  0.0147  0.2371
20380W        W21244   2.710  21.516   9.829  0.0278 -0.0321  0.5247
20381W        W21245  29.105  24.416  11.353  0.1344  0.0504  0.0832
20382W        W21246   2.127  23.683  11.997  0.1240  0.0892 -0.0568
20383W        W21247   2.442  25.661  10.449  0.1156  0.1453  0.1069
20384W        W21248   0.488  22.633  11.007 -0.0146  0.1689  0.0312
20385W        W21249   1.916  22.834   8.291 -0.2169  0.3555 -0.0182
20386W        W21250   1.482  24.632  10.160  0.1583 -0.0493 -0.1111
20387W        W21251   2.161  23.648   7.180  0.0498 -0.1197  0.0535
20388W        W21252   1.684  23.325   9.058 -0.1627 -0.1428  0.0743
20389W        W21253   2.695  24.003   6.867 -0.2969  0.2142  0.0941
20390W        W21254   2.759  24.050   9.642  0.0696 -0.0332  0.2180
20391W        W21255   2.733  24.662   8.997 -0.1841 -0.2159  0.0732
20392W        W21256  28.603  22.424   7.858  0.0260  0.0452 -0.0043
20393W        W21257   2.221  25.155  11.702 -0.2627 -0.2873 -0.1057
20394W        W21258   0.737  23.357   9.326 -0.2213 -0.0496 -0.1369
20395W        W21259   0.016  22.537   8.376 -0.0555 -0.1885 -0.1911
20396W        W21260   0.151  25.108   8.903  0.0811 -0.0925  0.2176
20397W        W21261   0.061  23.907  10.045  0.0379 -0.0601  0.0199
20398W        W21262   0.364  22.114  13.385  0.0610  0.1540  0.1565
20399W        W21263   4.121  22.399  12.343 -0.2558 -0.0167  0.1181
20400W        W21264   1.638  20.695   6.194  0.1694 -0.2755  0.0861
20401W        W21265   1.104  24.157   8.820  0.1634 -0.4092  0.0990
20402W        W21266   0.289  23.128  11.036  0.0670  0.2033 -0.3808
20403W        W21267   1.155  22.928   7.709 -0.1388 -0.2344  0.0557
20404W        W21268   5.138  22.973  11.851 -0.0465  0.0766 -0.1236
20405W        W21269   0.663  23.865   5.871 -0.4409  0.0790  0.0313
20406W        W21270   4.683  23.579  10.153  0.0895 -0.2051 -0.1615
20407W        W21271   1.696  26.977   8.989  0.0536 -0.0617 -0.0543
20408W        W21272  28.938  24.032  10.488  0.0028 -0.3980 -0.2230
20409W        W21273   5.181  21.677  12.113  0.0538 -0.0928  0.0148
20410W        W21274   1.156  24.758   7.339  0.3721  0.3516 -0.1115
20411W        W21275   4.417  22.911  11.750  0.0404  0.1631  0.0804
20412W        W21276   3.003  23.405   9.589 -0.0937 -0.0903  0.3701
20413W        W21277   2.676  23.475   4.782 -0.1488  0.0303  0.2391
20414W        W21278   2.854  21.550   6.418  0.1215 -0.1240  0.0837
20415W        W21279   0.779  24.294   9.276 -0.2081 -0.0327  0.0050
20416W        W21280   2.118  22.713  12.699 -0.3662 -0.0054 -0.1295
20417W        W21281   1.807  23.902  10.526 -0.1075  0.3004  0.0308
20418W        W21282   3.128  21.268  12.571 -0.2469 -0.2256  0.2152
20419W        W21283   8.024  24.451   9.691 -0.2027  0.0622 -0.0016
20420W        W21284   2.867  25.664  10.158 -0.2065 -0.1321  0.1364
20421W        W21285   3.376  25.801  10.355 -0.0337 -0.0671 -0.0474
20422W        W21286   1.990  24.677   8.639 -0.2330 -0.0140  0.0634
20423W        W21287   1.302  24.052  14.569  0.2887  0.3783 -0.2156
20424W        W21288   1.007  23.250  12.004 -0.0397 -0.2187  0.1269
20425W        W21289   4.005  20.028   7.964 -0.4434  0.2211 -0.0194
20426W        W21290   1.669  23.387   7.106  0.0889  0.0050 -0.1314
20427W        W21291   2.252  25.187  13.482  0.2866  0.2214  0.0573
20428W        W21292   2.231  23.579   8.394 -0.4996 -0.3488 -0.0595
20429W        W21293   0.449  23.389  10.640 -0.1817 -0.0038 -0.3575
20430W        W21294   0.867  22.747  11.284 -0.1972  0.2924  0.2222
20431W        W21295   1.575  22.712  11.389 -0.0596 -0.0617 -0.0995
20432W        W21296   7.218  22.433  11.764  0.0268  0.2401 -0.1455
20433W        W21297   1.117  25.367  10.231  0.1022 -0.1280  0.1700
20434W        W21298   4.136  24.607  13.677  0.2567  0.0782 -0.0349
20435W        W21299  27.765  23.426  11.057 -0.0855 -0.1903  0.0309
20436W        W21300   4.687  25.099  13.344  0.1247 -0.0015 -0.1865
20437W        W21301   1.817  23.339   8.304 -0.1961  0.0093 -0.3513
20438W        W21302   2.563  25.138   9.349 -0.1286 -0.2240  0.1286
20439W        W21303  26.790  21.370  11.727 -0.4162  0.0471 -0.2694
20440W        W21304   1.678  26.996  10.020 -0.0805 -0.3098 -0.0185
20441W        W21305   3.934  24.006   9.523 -0.0624 -0.1238 -0.1865
20442W        W21306  27.568  22.848   9.570  0.2029  0.1270 -0.0646
20443W        W21307   2.579  24.559  12.363  0.1619  0.1080  0.0185
20444W        W21308   4.616  24.742   9.499  0.0338  0.5149  0.0537
20445W        W21309   0.188  22.914   8.055  0.0686  0.1100 -0.2553
20446W        W21310   0.310  25.668  11.302 -0.2007 -0.1624 -0.0646
20447W        W21311   1.398  23.794   9.780  0.0947  0.4074 -0.0843
20448W        W21312  28.140  21.668   7.811 -0.0454 -0.2785 -0.1486
20449W        W21313   3.481  22.643  10.379  0.0958  0.1216  0.0197
20450W        W21314   1.624  21.668   7.170 -0.1904 -0.2076  0.2838
20451W        W21315   4.449  24.011  12.948 -0.4465  0.0160  0.0194
20452W        W21316   1.386  25.741  10.488  0.3186 -0.0035 -0.0666
20453W        W21317   0.924  25.156   9.037 -0.0424  0.2024  0.0440
20454W        W21318   2.365  23.604   6.675 -0.0214 -0.2773 -0.1399
20455W        W21319   0.120  24.463  10.031  0.1013  0.2354 -0.0641
20456W        W21320  28.719  24.527  10.410  0.0159  0.2802  0.2229
20457W        W21321   5.991  25.531  10.405 -0.0496  0.0702 -0.0545
20458W        W21322   3.439  25.584  10.809 -0.1657  0.0248  0.0291
20459W        W21323  27.637  23.462   8.103  0.0056  0.2264  0.0693
20460W        W21324   4.459  23.540   8.204 -0.2699 -0.1590  0.0043
20461W        W21325   6.011  20.655   8.601  0.1802  0.0061 -0.0298
20462W        W21326   0.467  22.485  12.890 -0.0909 -0.0826  0.0351
20463W        W21327   3.164  27.203   9.695 -0.2756  0.0533  0.1172
20464W        W21328   2.067  20.169  10.698 -0.0955  0.0983 -0.3956
20465W        W21329  28.431  22.426   7.384 -0.1634  0.1717 -0.2214
20466W        W21330   4.248  23.689  12.201  0.2611  0.0862  0.0775
20467W        W21331   2.992  24.429   9.398  0.0568 -0.3436  0.1558
20468W        W21332  28.802  23.696   9.777 -0.0103  0.1756 -0.0623
20469W        W21333   3.427  23.703  11.266 -0.0540 -0.0360 -0.2309
20470W        W21334   1.986  24.605  11.538  0.1921 -0.2333 -0.2791
20471W        W21335  28.556  24.921   9.426 -0.3865 -0.1601  0.1670
20472W        W21336   1.242  25.931   8.235  0.0138 -0.0092 -0.1033
20473W        W21337   0.288  22.468  11.657  0.0729  0.3089 -0.3110
20474W        W21338   5.428  24.143   8.082  0.0287  0.0463  0.1230
20475W        W21339   1.406  24.205  10.408 -0.0599 -0.2171  0.1181
20476W        W21340   4.174  22.169   9.148  0.4049  0.0145  0.1622
20477W        W21341   2.472  24.309  11.007 -0.1962  0.1448  0.0299
20478W        W21342   0.569  23.123  11.452  0.0289 -0.0750 -0.3084
20479W        W21343   4.626  24.855  10.679 -0.1133 -0.1148 -0.0180
20480W        W21344   3.798  24.056  11.727  0.0896  0.1443  0.0909
20481W        W21345   1.042  20.833  10.303 -0.0229 -0.1321  0.0372
20482W        W21346  28.447  23.807   8.527 -0.1325  0.2236 -0.1793
20483W        W21347   2.918  22.697   7.248  0.3030  0.1053  0.0877
20484W        W21348   1.593  24.602  11.252  0.1188  0.2971  0.1079
20485W        W21349   1.953  25.014  10.549 -0.2199 -0.3294  0.2668
20486W        W21350   3.424  23.310  10.669  0.0102  0.1699 -0.3611
20487W        W21351   1.882  22.931   8.764  0.1413  0.0373 -0.1058
20488W        W21352   2.654  25.016  12.163  0.0676  0.1339 -0.1797
20489W        W21353   2.050  24.027   6.925 -0.1538  0.0617  0.0431
20490W        W21354   5.239  21.447  13.150  0.3575 -0.0761 -0.0820
20491W        W21355   4.618  23.089   9.394  0.1037 -0.2216  0.1634
20492W        W21356  26.865  25.239   9.969  0.3234  0.3236  0.1594
20493W        W21357   1.948  22.065   8.702 -0.0856 -0.1258  0.0327
20494W        W21358   1.822  24.321   9.211 -0.0945 -0.0998  0.0577
20495W        W21359   2.700  24.643   8.117  0.2126  0.1668  0.4626
20496W        W21360   4.025  22.889   8.789  0.0529 -0.1324 -0.2138
20497W        W21361   5.206  23.031  10.590 -0.1022  0.1567  0.0180
20498W        W21362   0.624  22.523   8.956 -0.0697 -0.1288  0.2240
20499W        W21363   1.723  26.151   9.150  0.0034 -0.2660 -0.1781
20500W        W21364   3.665  23.708  10.831  0.4230  0.3379  0.1922
20501W        W21365   1.439  23.102   8.503 -0.0585 -0.3391 -0.2841
20502W        W21366   3.604  23.834   7.946 -0.0562 -0.1375 -0.0244
20503W        W21367   3.407  24.274  10.747 -0.3052  0.2308 -0.0794
20504W        W21368   0.130  25.601  11.746 -0.1236  0.1300  0.1223
20505W        W21369   1.415  23.050  11.779 -0.2318  0.1354  0.2968
20506W        W21370  27.981  22.481  14.443 -0.0351 -0.1910 -0.1375
20507W        W21371   2.670  25.425  11.520 -0.1521  0.0453  0.1448
20508W        W21372   3.258  22.555  11.496  0.0918  0.2251  0.2981
20509W        W21373   0.938  26.641   8.851  0.2849  0.1399  0.1871
20510W        W21374   4.780  24.974  10.087  0.0232 -0.0240 -0.1122
20511W        W21375   2.690  26.697  12.485  0.0897 -0.3211 -0.0786
20512W        W21376   0.514  23.184   7.846 -0.1923 -0.0517  0.1154
20513W        W21377   3.163  24.325   9.842 -0.2608  0.2044  0.0810
20514W        W21378   1.706  27.417  12.045  0.1769  0.0009 -0.2218
20515W        W21379  28.677  22.900  10.668  0.3025  0.1833  0.2512
20516W        W21380  27.475  22.338  10.981  0.1960  0.2206  0.1304
20517W        W21381   3.888  22.484  10.607  0.0377 -0.0681 -0.1166
20518W        W21382   2.320  24.162  12.225 -0.0681  0.0506 -0.1516
20519W        W21383   0.568  23.826   9.513 -0.1105  0.3862 -0.2937
20520W        W21384  28.159  24.873  10.396 -0.3239  0.0271 -0.0932
20521W        W21385   1.750  24.342   8.193 -0.1285  0.2171 -0.0752
20522W        W21386   1.320  25.050   9.888 -0.0535  0.2250 -0.1693
20523W        W21387   3.236  22.896  10.977  0.0231  0.0509  0.0254
20524W        W21388   3.122  25.467   7.783  0.0922 -0.1375 -0.0990
20525W        W21389  28.579  25.544  11.212 -0.0190  0.0225 -0.3762
20526W        W21390   3.221  26.025   8.538  0.1115 -0.3049 -0.1067
20527W        W21391   0.600  24.381  10.659 -0.1169  0.0629 -0.0317
20528W        W21392   3.327  24.566   8.156  0.3928  0.1603  0.0989
20529W        W21393   2.371  26.092   9.556 -0.0772 -0.1346  0.0686
20530W        W21394   1.068  24.930  12.075  0.1630 -0.1529 -0.0220
20531W        W21395  29.062  20.799   7.353  0.2096  0.0663 -0.2503
20532W        W21396   1.912  25.233   9.084 -0.0403  0.0356  0.0358
20533W        W21397   1.288  23.364   9.387 -0.1061  0.1178 -0.1785
20534W        W21398  29.037  21.739   7.438 -0.0392  0.4149  0.3069
20535W        W21399   1.915  24.487  10.419 -0.1923 -0.0329 -0.0096
20536W        W21400   5.346  22.354   7.435  0.1678 -0.0225 -0.2094
20537W        W21401   5.948  22.330  13.172 -0.0214  0.0187 -0.1240
20538W        W21402   2.572  21.890  11.351 -0.1254  0.0401  0.1722
20539W        W21403   3.990  26.705  10.112 -0.2014 -0.1303  0.1720
20540W        W21404   3.518  25.873  11.355  0.1282 -0.3146  0.1461
20541W        W21405   1.079  24.922  10.517 -0.0429 -0.0418  0.1977
20542W        W21406   3.695  24.875   9.283 -0.0737 -0.2729  0.0932
20543W        W21407   0.667  23.742   8.105 -0.0952  0.0157 -0.3141
20544W        W21408   1.584  24.262  10.883  0.2440  0.1462 -0.0457
20545W        W21409   1.829  23.441   9.527 -0.1227  0.1628 -0.1610
20546W        W21410   1.827  21.730   9.793 -0.2590  0.1405 -0.1608
20547W        W21411  27.972  21.347   8.766  0.1689  0.2621 -0.0061
20548W        W21412   2.875  25.555   9.271  0.0352  0.2664 -0.1703
20549W        W21413  28.008  22.967  10.089 -0.0732 -0.0223  0.2307
20550W        W21414   2.949  24.862  10.757  0.0734  0.0373 -0.0117
20551W        W21415   0.278  26.779   9.297  0.1028 -0.0094  0.1720
20552W        W21416  28.296  20.435   8.462 -0.0194  0.3134  0.3272
20553W        W21417   1.364  24.307   9.193 -0.1978  0.0672  0.1016
20554W        W21418   0.025  23.038   9.177 -0.0506 -0.1990 -0.0970
20555W        W21419   3.712  23.615  10.048 -0.0179  0.4336 -0.0570
20556W        W21420   4.420  24.110   8.407 -0.2280  0.1230  0.1346
20557W        W21421   5.657  24.679  10.645 -0.1105  0.2600 -0.0844
20558W        W21422   1.187  26.236   9.141 -0.1361  0.2490 -0.2637
20559W        W21423  28.352  26.077   6.974 -0.1004  0.1081  0.0308
20560W        W21424   1.765  23.668   8.678  0.3656 -0.3371 -0.0198
20561W        W21425   1.902  27.704  13.009  0.0242 -0.0182 -0.0191
20562W        W21426   2.187  22.190  14.299 -0.1035 -0.1751  0.0646
20563W        W21427  28.317  23.308  10.432  0.1570 -0.1372  0.0045
20564W        W21428   2.026  24.403   6.377  0.0925  0.0525 -0.5096
20565W        W21429   0.252  23.756   8.532 -0.0073 -0.1842 -0.1507
20566W        W21430   5.425  23.025  13.624  0.1052 -0.0870  0.0920
20567W        W21431   0.942  25.455   8.111  0.2145 -0.3733 -0.2257
20568W        W21432   2.979  20.231   8.156 -0.0449 -0.0276  0.1093
20569W        W21433   3.087  25.560   8.784 -0.2517 -0.2180  0.0913
20570W        W21434   6.015  23.416  11.929 -0.0027  0.0457  0.0773
20571W        W21435   0.436  26.555  13.369  0.4233  0.1651 -0.3933
20572W        W21436   2.662  26.458   9.729 -0.1291 -0.1741 -0.1635
20573W        W21437   1.733  23.058  10.813 -0.0405  0.1029 -0.0157
20574W        W21438   1.945  22.488   8.999 -0.0676  0.1328 -0.2000
20575W        W21439   2.707  22.867   8.721  0.0225  0.0910  0.0654
20576W        W21440   3.192  24.959  10.060  0.2954 -0.1732 -0.1983
20577W        W21441   0.897  22.820  11.760 -0.1129 -0.0729  0.1665
20578W        W21442   2.274  23.015  10.968  0.0782 -0.0711 -0.0899
20579W        W21443   1.407  26.377   8.720 -0.3326 -0.3639  0.0914
20580W        W21444   0.810  22.460  10.274 -0.0049 -0.0083  0.1552
20581W        W21445   1.362  21.563  10.567  0.2518  0.1305 -0.1010
20582W        W21446   3.937  22.643   9.374  0.0038  0.0110  0.1079
20583W        W21447   3.186  21.800  10.153 -0.2059 -0.0515 -0.1815
20584W        W21448  27.066  24.997  10.578 -0.0959 -0.0751 -0.0675
20585W        W21449   2.286  23.064   8.485 -0.2000 -0.0549  0.2109
20586W        W21450   0.492  28.118   8.661  0.2191 -0.1186  0.3217
20587W        W21451   1.307  22.857   9.508  0.0625 -0.2358 -0.1313
20588W        W21452   2.365  23.734   9.685 -0.4067  0.1665 -0.2085
20589W        W21453   5.077  25.821  12.835  0.2490  0.1270 -0.1308
20590W        W21454   2.424  20.499  12.671  0.1384 -0.3178 -0.2021
20591W        W21455   3.672  23.223  11.154  0.3089 -0.1728  0.0038
20592W        W21456   3.631  23.762  13.101  0.1738  0.0452  0.2198
20593W        W21457   3.314  26.194  10.670 -0.2711 -0.2116 -0.1472
20594W        W21458   2.771  23.196   9.141  0.0944 -0.1808 -0.0219
20595W        W21459   1.465  23.055  12.302  0.3258 -0.2414 -0.2316
20596W        W21460  28.531  24.385   9.094  0.1169 -0.2350  0.0024
20597W        W21461   3.680  25.594   8.023  0.1527 -0.1450  0.3348
20598W        W21462   2.649  25.166  10.198  0.4398 -0.0264  0.1852
20599W        W21463  28.908  23.434   7.881  0.1542  0.4509  0.0764
20600W        W21464   4.105  22.821  13.385  0.1201 -0.0593  0.0012
20601W        W21465   2.241  24.467   8.097  0.2595  0.0247  0.0652
20602W        W21466   0.865  25.848  12.533  0.0294 -0.0652 -0.1770
20603W        W21467   1.287  25.309  10.732  0.1269  0.0396  0.2142
20604W        W21468  28.526  25.584   7.185  0.4797  0.0896  0.0437
20605W        W21469  28.306  27.709  15.081 -0.1447  0.1275  0.2511
20606W        W21470  27.867  25.991  13.655  0.1091  0.1216  0.1628
20607W        W21471   1.152  24.452  13.633 -0.1371 -0.0020 -0.0666
20608W        W21472   0.694  27.474  15.019  0.3169 -0.0420 -0.2164
20609W        W21473   2.421  26.499  13.124  0.2912 -0.0342 -0.2576
20610W        W21474  28.327  23.230  12.423 -0.1830 -0.0610 -0.1824
20611W        W21475   1.566  23.441  10.499 -0.0369 -0.1332  0.1326
20612W        W21476   3.686  25.596  13.523  0.0406  0.1114 -0.0524
20613W        W21477  28.784   0.102  14.792  0.0942  0.0440  0.0930
20614W        W21478  28.897  24.112  13.850  0.0209 -0.1975 -0.2799
20615W        W21479  27.279  20.979  13.467 -0.0260 -0.0538  0.1628
20616W        W21480   2.738  21.088  12.168  0.2725 -0.0687 -0.3380
20617W        W21481   3.956  26.103  10.876  0.2688 -0.1494 -0.2152
20618W        W21482   3.572  22.583  14.654 -0.1234  0.0306  0.0844
20619W        W21483   0.446  20.529  14.844  0.0699  0.2948 -0.2467
20620W        W21484  25.685  23.690  13.561  0.2762  0.1841 -0.1760
20621W        W21485   4.278  25.547  13.588  0.0913  0.0979 -0.1689
20622W        W21486   0.996  22.663  12.934  0.0609 -0.0384 -0.0982
20623W        W21487   2.211  24.372  15.026  0.0467 -0.0267  0.1030
20624W        W21488   4.961  21.108  14.755 -0.0747  0.1840 -0.0651
20625W        W21489   1.669  23.555  13.663  0.0357 -0.0788  0.0496
20626W        W21490  27.899  25.157  13.508  0.0659 -0.1696  0.3752
20627W        W21491   1.964  27.283  13.830  0.3609 -0.1433 -0.3058
20628W        W21492   1.107  22.560  14.373  0.0555  0.2748 -0.1944
20629W        W21493  28.177  23.816  10.466 -0.0395  0.2704  0.1656
20630W        W21494   0.272  23.799  11.827 -0.1405 -0.3961  0.0088
20631W        W21495   1.324  21.348  13.857  0.1979 -0.2687  0.0687
20632W        W21496  28.244  23.791  14.924  0.0483 -0.2017  0.1741
20633W        W21497   2.198  23.528  13.133  0.2762  0.0268  0.3644
20634W        W21498   3.329  23.037  11.539 -0.2334  0.0691  0.0208
20635W        W21499   0.270  22.477  14.225 -0.1408 -0.2153  0.0603
20636W        W21500   4.212  24.306  13.275 -0.3786  0.0695  0.1195
20637W        W21501   0.647  26.165  15.152 -0.4223  0.0429  0.1957
20638W        W21502   1.726  25.626  14.306 -0.5000 -0.1040 -0.2694
20639W        W21503  27.683  24.237  15.450 -0.0256 -0.2566 -0.1151
20640W        W21504   0.624  25.058  14.804  0.0239  0.4808  0.0219
20641W        W21505   0.439  24.293  11.910 -0.0246 -0.2080  0.1304
20642W        W21506   1.867  24.417  12.173  0.1120  0.1288  0.3031
20643W        W21507   3.909  26.264  15.094 -0.1472  0.1060  0.2953
20644W        W21508   4.551  23.196  14.085  0.1552 -0.2745 -0.3196
20645W        W21509   4.527  21.951  12.833  0.0851  0.2181 -0.1214
20646W        W21510   1.720  24.162  14.266 -0.1052  0.1342  0.0497
20647W        W21511  27.858  27.787  13.555 -0.1100  0.0237  0.0542
20648W        W21512   3.096  25.427  11.147 -0.0097  0.2339  0.0603
20649W        W21513   0.938  25.237  12.431  0.0547  0.1792 -0.2971
20650W        W21514   0.617  24.041  13.897 -0.0074  0.3844 -0.1125
20651W        W21515   1.818  23.458  12.335 -0.1167  0.2101 -0.0455
20652W        W21516   1.397  23.648  12.804  0.2117 -0.0794 -0.2248
20653W        W21517   2.765  21.598  13.986  0.1352 -0.0994 -0.1633
20654W        W21518   2.757  22.350  11.183 -0.1723 -0.3738 -0.0189
20655W        W21519   0.953  27.508  13.375  0.0942  0.1448  0.2604
20656W        W21520   0.581  21.522  13.655 -0.0654 -0.0975 -0.0067
20657W        W21521   1.753  23.347  13.121  0.2789  0.3076 -0.0976
20658W        W21522   4.738  24.331  12.502 -0.2338 -0.0710  0.5793
20659W        W21523   0.409  22.794  13.315  0.1129  0.1095  0.1346
20660W        W21524   4.373  23.882  10.945  0.0373  0.1333 -0.1892
20661W        W21525  27.859  24.010  10.951 -0.1215  0.1737 -0.1287
20662W        W21526   4.697  24.014  13.374  0.1186 -0.0161 -0.1529
20663W        W21527   0.837  25.287  10.911 -0.2294 -0.0323 -0.4033
20664W        W21528   2.351  24.521  12.835  0.0849  0.1650  0.0679
20665W        W21529   1.207  24.211   8.312  0.0905  0.2616  0.0756
20666W        W21530   0.704  27.631  14.282  0.1179  0.1776  0.3621
20667W        W21531   0.276  24.502  15.701 -0.0303 -0.2170  0.0289
20668W        W21532   1.292  23.568  12.336 -0.1976 -0.0463  0.0911
20669W        W21533   0.024  23.283  13.831 -0.0133  0.0827 -0.0662
20670W        W21534   3.623  20.296  12.662 -0.1021  0.2279 -0.2468
20671W        W21535   0.410  23.361  11.886  0.0247  0.1086  0.0493
20672W        W21536   1.075  23.215  11.418 -0.2330  0.4378  0.1385
20673W        W21537  28.609  25.081  10.255  0.0796 -0.0650  0.0317
20674W        W21538   3.173  24.163  11.699  0.3078 -0.0194  0.0085
20675W        W21539   0.150  24.976  14.793 -0.1091 -0.2012  0.1092
20676W        W21540   3.409  22.882  13.405  0.0415  0.2105  0.0049
20677W        W21541   5.842  25.490  12.578  0.1712 -0.1615 -0.1262
20678W        W21542   2.125  21.648  14.315  0.0836  0.1552 -0.2644
20679W        W21543   1.752  25.533  12.078  0.0363 -0.3053 -0.0709
20680W        W21544   4.364  26.275  14.803 -0.2224  0.1331  0.0339
20681W        W21545  27.525  26.707  10.737  0.0926  0.1839  0.3005
20682W        W21546   3.142  23.551  11.892 -0.0447  0.0220 -0.2595
20683W        W21547   2.137  24.120  13.121 -0.2049 -0.0767  0.0271
20684W        W21548   2.868  23.700  12.398  0.1987  0.2290  0.1897
20685W        W21549  28.577  26.236  14.324 -0.1210  0.0774  0.0218
20686W        W21550   2.651  21.468  12.614  0.4695  0.2875  0.0747
20687W        W21551   1.307  19.329  14.355  0.1034 -0.3483 -0.1897
20688W        W21552   1.474  23.219  14.555 -0.0861  0.0044  0.0177
20689W        W21553   0.623  23.570  14.163  0.3041 -0.2337 -0.0585
20690W        W21554   1.977  20.381  12.337  0.1048  0.1935 -0.1452
20691W        W21555  28.790  24.045  14.989 -0.1932 -0.0579  0.2676
20692W        W21556   1.634  22.546  13.011 -0.0759 -0.1662  0.1211
20693W        W21557   3.244  26.608  13.878 -0.0803 -0.0287  0.3336
20694W        W21558   0.397  22.301  14.744  0.3464 -0.0635 -0.2063
20695W        W21559   3.278  20.639  13.076 -0.2119 -0.1864  0.3085
20696W        W21560   3.139  25.398  13.439  0.0407 -0.1063 -0.1465
20697W        W21561   2.353  23.096  13.976 -0.0231  0.0089 -0.3191
20698W        W21562   4.168  24.229  11.916  0.2582 -0.0152 -0.0773
20699W        W21563  28.714  20.827  16.719  0.0244 -0.1221 -0.2904
20700W        W21564   3.024  22.951  13.054 -0.1870  0.1502 -0.0667
20701W        W21565   4.294  21.069  11.986  0.1264 -0.4782  0.1321
20702W        W21566   0.012  26.357  12.371 -0.1322 -0.1398 -0.1783
20703W        W21567   2.146  23.457  11.261 -0.2121  0.2127  0.0493
20704W        W21568   4.755  21.992  12.251  0.0316  0.0440 -0.0673
20705W        W21569   5.129  22.826  11.215 -0.1712 -0.0051  0.1269
20706W        W21570   0.690  24.868  14.300 -0.1488  0.3444 -0.2323
20707W        W21571   1.662  22.524  13.841  0.2513  0.2154 -0.3166
20708W        W21572   2.050  26.704  11.806 -0.0419  0.1500  0.2020
20709W        W21573   1.039  23.247  14.806  0.1128  0.3283 -0.1532
20710W        W21574   2.093  23.791  13.537 -0.1035 -0.0924 -0.2714
20711W        W21575   1.914  25.498  12.589  0.1245 -0.0145 -0.1192
20712W        W21576   6.286  22.598  13.452  0.1641 -0.0178  0.1306
20713W        W21577   0.876  22.962  13.372 -0.2506  0.1335 -0.2807
20714W        W21578   0.080  23.634  10.916 -0.1796 -0.2955 -0.0307
20715W        W21579  28.260  24.527  13.837  0.2427  0.0291  0.2464
20716W        W21580   2.635  27.977  12.446 -0.0521 -0.0670  0.1489
20717W        W21581   3.928  23.694  12.593 -0.1850 -0.2904 -0.2080
20718W        W21582   1.270  25.991  14.262  0.0797 -0.1382  0.2576
20719W        W21583   5.120  22.556  10.013 -0.0164 -0.1435  0.1167
20720W        W21584   0.699  23.935  10.891  0.1086 -0.0731  0.2247
20721W        W21585   3.585  20.995  14.596 -0.0534  0.1082  0.4848
20722W        W21586   2.624  23.846  11.949  0.0342  0.1354 -0.0295
20723W        W21587   4.164  23.332  11.475  0.2497 -0.0216  0.1190
20724W        W21588   2.123  25.033  12.926  0.1825  0.0094  0.0231
20725W        W21589   5.496  25.349  12.892  0.0870  0.3359 -0.1779
20726W        W21590   6.045  23.189  11.448 -0.3768  0.0023  0.1260
20727W        W21591   0.569  24.397  14.322  0.0674 -0.1444  0.2888
20728W        W21592   6.124  22.547  12.308 -0.2370 -0.1671  0.2123
20729W        W21593   0.285  25.292  14.309 -0.1738 -0.0542  0.1345
20730W        W21594   2.916  26.327  13.134  0.1162  0.2339 -0.4075
20731W        W21595   1.973  19.898  12.123 -0.3549 -0.1346  0.0898
20732W        W21596   2.416  25.157  14.856 -0.1301  0.2258  0.0478
20733W        W21597   2.653  24.261  13.196  0.4193  0.3275  0.0482
20734W        W21598   2.431  26.293  13.573  0.2503 -0.1357  0.0571
20735W        W21599   0.855  24.415  12.748 -0.0138 -0.1510  0.1336
20736W        W21600  28.188  21.564  13.604 -0.0788  0.0528  0.1220
20737W        W21601   3.798  27.486  14.335 -0.2598 -0.1091 -0.1448
20738W        W21602  28.562  20.969  12.494  0.0692  0.0583 -0.1571
20739W        W21603   0.277  24.879  13.965 -0.0732  0.0338 -0.0341
20740W        W21604  28.657  25.800  15.521 -0.0352  0.1118 -0.0452
20741W        W21605   6.017  22.754  11.809  0.1541 -0.0131  0.2280
20742W        W21606   0.818  23.512  15.203  0.2947 -0.3990 -0.0147
20743W        W21607   0.637  27.428  10.328 -0.4139 -0.2557  0.0020
20744W        W21608   2.521  26.084  11.890 -0.0198  0.0097  0.0852
20745W        W21609  28.624  21.338  11.163  0.1016 -0.1853  0.0772
20746W        W21610   1.537  23.368  14.094  0.1240  0.2362  0.1260
20747W        W21611  28.233  23.537  10.881 -0.2544 -0.2184  0.1330
20748W        W21612  29.085  24.106  13.159  0.0177 -0.1329 -0.2011
20749W        W21613  28.863  27.003  13.529 -0.1759  0.3624  0.1403
20750W        W21614   3.103  23.363  11.158  0.1645  0.3855 -0.2494
20751W        W21615   4.513  21.891  13.336 -0.0982  0.1738 -0.0722
20752W        W21616   0.014  24.111  12.163  0.2397  0.1994  0.0712
20753W        W21617   1.952  24.867  13.709 -0.3093  0.2931  0.1110
20754W        W21618  28.686  25.039  15.240 -0.0624 -0.0251  0.0446
20755W        W21619   1.820  24.627  14.736 -0.0213  0.0168  0.2071
20756W        W21620  28.154  24.411  11.151 -0.2195 -0.1574  0.1261
20757W        W21621   0.505  27.189  14.103  0.0680 -0.3223 -0.1973
20758W        W21622  27.480  23.885  10.222 -0.2153 -0.0832 -0.0401
20759W        W21623   2.180  21.923  13.268 -0.2012 -0.0542 -0.1180
20760W        W21624   5.262  23.180  13.143  0.0878  0.0875  0.1197
20761W        W21625   0.109  25.949  12.677  0.0067 -0.2037  0.4540
20762W        W21626   4.169  21.654  13.034 -0.0423  0.2558  0.0331
20763W        W21627   1.263  19.908  11.204  0.2054  0.0364  0.0088
20764W        W21628   4.645  23.447  11.066  0.2349 -0.1230 -0.1959
20765W        W21629   0.112  19.968  11.831 -0.1833  0.0235 -0.0731
20766W        W21630   1.711  21.400  13.019  0.3495 -0.2081 -0.1174
20767W        W21631   3.196  25.600  14.401 -0.0881  0.1014  0.1479
20768W        W21632   0.932  25.355  15.062  0.3042  0.0147 -0.4375
20769W        W21633   1.829  23.066  13.796  0.0246  0.1022  0.0520
20770W        W21634   1.931  22.267  12.655  0.0818  0.2124 -0.0248
20771W        W21635   0.028  24.502  10.550 -0.0379  0.0395  0.0616
20772W        W21636  28.046  27.279  12.735  0.0525 -0.2143 -0.0551
20773W        W21637   3.349  25.868  15.760 -0.0537  0.0705  0.1174
20774W        W21638  28.690  22.850   9.225 -0.1557 -0.0330 -0.3744
20775W        W21639   1.519  20.849  12.529  0.0476 -0.1627 -0.2997
20776W        W21640   1.613  26.217  15.210 -0.0699  0.2022  0.0710
20777W        W21641   0.914  24.904  13.511 -0.4050  0.3355 -0.0581
20778W        W21642   1.832  20.669  13.472  0.0808 -0.0231  0.1010
20779W        W21643   2.474  21.187  11.220 -0.3337  0.0778 -0.1410
20780W        W21644   4.557  20.182  13.890  0.1456 -0.2454 -0.1227
20781W        W21645   1.211  25.176  13.307  0.0720  0.1792  0.2716
20782W        W21646   0.209  26.922  15.735  0.1435  0.1325 -0.1746
20783W        W21647   1.483  27.432  12.995  0.0190 -0.2161  0.0882
20784W        W21648   1.940  21.161  15.165 -0.1025  0.2270  0.0400
20785W        W21649   2.926  24.194  11.205 -0.1493  0.0133 -0.0548
20786W        W21650   4.771  25.405  13.713 -0.2968  0.2737  0.0419
20787W        W21651   4.952  23.265  12.627  0.0212  0.0259  0.1338
20788W        W21652   1.437  22.289  11.118  0.0129 -0.3359  0.0187
20789W        W21653   1.231  22.352  11.596  0.2674 -0.2382 -0.1706
20790W        W21654   1.219  25.951  12.898  0.0707 -0.0285 -0.0142
20791W        W21655   2.822  21.522  11.147  0.1099  0.1252 -0.0051
20792W        W21656  28.861  20.157  13.025 -0.1706 -0.2244  0.0582
20793W        W21657   0.164  23.290  15.522 -0.1004  0.0564  0.0724
20794W        W21658   2.540  25.957  13.194 -0.0396 -0.0044 -0.1205
20795W        W21659   2.441  24.686  11.381 -0.0152 -0.0303  0.0283
20796W        W21660   2.162  27.114  12.114 -0.1696  0.0886 -0.1506
20797W        W21661   2.165  22.458  13.196 -0.2700 -0.2267  0.0604
20798W        W21662   1.826  21.773  12.417 -0.1140  0.2222 -0.1336
20799W        W21663   2.775  23.166  15.166 -0.0595  0.3836 -0.0495
20800W        W21664   2.714  21.561  12.073 -0.5294 -0.1158 -0.0787
20801W        W21665   0.354  19.610  13.297 -0.2199 -0.2193 -0.0564
20802W        W21666   0.457  24.856  13.447 -0.2778  0.1310  0.1117
20803W        W21667  28.641  23.244  14.339 -0.1430  0.1550  0.2730
20804W        W21668   5.135  24.249  13.239 -0.1865  0.2122 -0.3833
20805W        W21669   2.755  23.729  10.976  0.0175 -0.1295  0.0624
20806W        W21670   4.679  24.029  12.062  0.3048 -0.0117 -0.0530
20807W        W21671   6.447  23.831  11.842  0.2094  0.0895  0.1860
20808W        W21672  26.754  24.826  11.464  0.2817  0.2455 -0.0608
20809W        W21673   0.341  23.959  14.404  0.1298 -0.1077 -0.1915
20810W        W21674   1.207  23.092  10.546 -0.0357  0.0440  0.4419
20811W        W21675   0.953  24.839  16.429  0.1263 -0.1319 -0.1707
20812W        W21676   3.939  23.835  11.250  0.0646  0.1541  0.1010
20813W        W21677   2.875  23.785  13.397 -0.0588 -0.0704 -0.0753
20814W        W21678  28.919  24.677  13.998  0.3850 -0.0900  0.2580
20815W        W21679  28.065  24.078  16.003  0.2248  0.4018 -0.0631
20816W        W21680  28.806  21.050  15.854 -0.1366 -0.0683 -0.2186
20817W        W21681   1.698  24.400  13.105  0.0007  0.1630 -0.2205
20818W        W21682  27.842  23.064  12.254 -0.1072 -0.0941  0.1485
20819W        W21683   3.993  24.735  16.550 -0.1352 -0.0058 -0.2386
20820W        W21684   5.163  23.297  11.196 -0.1434 -0.1086  0.1070
20821W        W21685   5.524  21.706  10.631  0.1651 -0.0669  0.1350
20822W        W21686   5.124  23.701  13.167 -0.0476 -0.1321 -0.4157
20823W        W21687   0.545  26.670  15.005 -0.0498  0.0351  0.4251
20824W        W21688   1.097  26.698  15.635 -0.1502  0.0960  0.0966
20825W        W21689   4.676  25.240  14.816  0.1132 -0.1902  0.1792
20826W        W21690   2.995  23.823  14.408  0.2142  0.0659 -0.1258
20827W        W21691   1.022  26.467  15.172  0.2440 -0.1656  0.0948
20828W        W21692  27.199  21.802  12.170 -0.1519 -0.3673  0.1022
20829W        W21693   1.526  25.716  13.851 -0.1387 -0.0551 -0.0691
20830W        W21694   2.098  25.162  14.354 -0.1728 -0.2208 -0.1650
20831W        W21695   1.409  25.282  16.061  0.1262 -0.0166  0.2352
20832W        W21696   0.053  22.002  15.751 -0.0084  0.0151  0.1137
20833W        W21697   1.519  24.685  10.642 -0.1852  0.1206  0.1412
20834W        W21698   1.505  24.005  13.589  0.0539 -0.0968 -0.0654
20835W        W21699   1.420  24.038  15.322  0.2303 -0.0680  0.1854
20836W        W21700   2.073  24.828  12.425  0.2185  0.0414  0.2352
20837W        W21701   2.586  23.301  12.155 -0.3273  0.0093  0.1352
20838W        W21702  28.667  24.386  13.514  0.1089 -0.2172  0.1397
20839W        W21703   2.880  25.799  12.827 -0.0172  0.2549  0.1463
20840W        W21704   1.914  24.299  13.539 -0.2505  0.0583  0.0808
20841W        W21705   1.178  21.837  13.976 -0.2629 -0.2367  0.1203
20842W        W21706   4.672  27.424  13.632 -0.0007 -0.2275 -0.1950
20843W        W21707   1.882  28.245  14.869 -0.3082  0.2024  0.0793
20844W        W21708   1.579  22.784  14.299  0.2038 -0.0987 -0.1487
20845W        W21709  27.086  24.959  14.082 -0.1309 -0.2011  0.0281
20846W        W21710   1.609  24.500  13.899  0.4437 -0.3779 -0.0564
20847W        W21711  29.007  23.959  11.478 -0.0208 -0.1828 -0.1742
20848W        W21712   2.407  22.336  12.486  0.3192 -0.0125  0.1309
20849W        W21713  27.269  22.605   8.592  0.0251 -0.0556  0.0489
20850W        W21714   2.586  23.978  14.174  0.2692 -0.0730 -0.0181
20851W        W21715   1.205  26.143  15.533  0.3064 -0.0325  0.0692
20852W        W21716   2.623  23.250  13.114 -0.1557 -0.0682 -0.2337
20853W        W21717   2.485  22.504  14.533  0.0752  0.1842 -0.1316
20854W        W21718  28.645  23.715  15.413  0.1516  0.0991  0.1287
20855W        W21719   0.728  24.357  11.200 -0.0291 -0.2093 -0.6205
20856W        W21720   3.626  26.687  13.645  0.1909 -0.0102  0.2031
20857W        W21721   4.127  22.462  14.833  0.2093  0.2524 -0.2388
20858W        W21722   0.011  24.592  11.833 -0.0117 -0.2322 -0.0137
20859W        W21723   3.907  25.149  12.282  0.0735  0.0484 -0.0585
20860W        W21724   3.899  22.358  11.836  0.1431  0.2528  0.2471
20861W        W21725  27.725  23.843  16.328  0.1867  0.3912  0.1387
20862W        W21726   2.439  24.100  13.600  0.2886  0.0484  0.1271
20863W        W21727   5.616  22.495  13.532 -0.0347  0.0732 -0.1604
20864W        W21728   1.356  23.591  11.768  0.3988 -0.4583  0.1082
20865W        W21729   2.835  23.190  12.610  0.0608 -0.0097 -0.0755
20866W        W21730   1.841  24.232  15.279  0.2144 -0.1388 -0.0490
20867W        W21731  28.371  24.813  14.908 -0.0587  0.2127 -0.1671
20868W        W21732   0.755  26.114  14.191  0.0368 -0.0004 -0.2959
20869W        W21733   0.234  24.343  16.954 -0.0487  0.2471 -0.1860
20870W        W21734   0.777  26.815  12.017  0.1256 -0.1523 -0.0322
20871W        W21735   4.259  22.838  14.478 -0.1674  0.5408  0.0327
20872W        W21736   0.003  26.515  14.726 -0.3124  0.1046  0.2028
20873W        W21737   5.078  22.412  14.274 -0.3272  0.1044 -0.3484
20874W        W21738   2.271  23.257  13.539  0.1540 -0.1405  0.1869
20875W        W21739   2.521  24.986  12.657  0.0627 -0.0201 -0.0244
20876W        W21740   5.604  22.597  14.123 -0.0947 -0.1616 -0.0906
20877W        W21741   0.319  23.939  10.552  0.1383 -0.1794 -0.0654
20878W        W21742   2.664  24.732  14.935  0.1744  0.1945 -0.0277
20879W        W21743   2.174  21.451  13.361  0.2125 -0.0678 -0.3278
20880W        W21744  27.163  22.241  15.134 -0.1861  0.1171  0.1336
20881W        W21745  28.348  22.713  12.255 -0.0887  0.3072  0.0387
20882W        W21746   0.870  21.972   9.511 -0.0757 -0.0926 -0.0000
20883W        W21747  26.335  25.107  14.387 -0.0076 -0.1047  0.0344
20884W        W21748   0.040  24.294  14.812 -0.2606 -0.1470  0.4780
20885W        W21749   1.477  23.259   9.875 -0.0157  0.1119 -0.0165
20886W        W21750  27.938  23.409  12.773  0.2803 -0.0180 -0.2600
20887W        W21751  27.681  24.746  13.414  0.0397  0.1770  0.1465
20888W        W21752   4.979  24.249  11.720  0.0735  0.0703  0.2648
20889W        W21753   2.937  21.009  15.405  0.2758 -0.1033  0.1637
20890W        W21754   4.270  23.264  13.629  0.0656 -0.1211  0.3124
20891W        W21755   1.109  24.415  15.396  0.0398  0.0295 -0.1838
20892W        W21756   0.779  23.552  11.627 -0.4771 -0.1012 -0.0338
20893W        W21757   4.338  24.416  10.507 -0.1175 -0.1962 -0.2272
20894W        W21758   1.255  22.239  13.041  0.2453  0.0564  0.0367
20895W        W21759   3.760  21.911  13.396 -0.2490  0.2619 -0.0394
20896W        W21760   1.735  22.037  13.920 -0.1534 -0.2165 -0.0681
20897W        W21761  27.028  25.504  13.064 -0.0299 -0.1878 -0.0372
20898W        W21762   1.372  22.802  10.049  0.0600  0.3125  0.0702
20899W        W21763   1.216  22.209  10.474  0.1054  0.0856 -0.0317
20900W        W21764   2.528  22.791  13.462  0.1674  0.0881  0.1815
20901W        W21765   4.172  26.682  12.686 -0.0766  0.0873 -0.2527
20902W        W21766   2.600  23.797  12.874 -0.0162 -0.0176  0.2563
20903W        W21767  27.550  28.115  11.714  0.1163  0.0546  0.0177
20904W        W21768   2.766  26.622  13.495 -0.0027 -0.1334  0.1687
20905W        W21769   0.564  23.067  12.926 -0.0324 -0.2659 -0.3183
20906W        W21770   1.120  24.899  13.993 -0.0229 -0.2106  0.2030
20907W        W21771   2.630  24.956  14.332  0.0339  0.3741  0.1238
20908W        W21772   5.674  24.074  12.308  0.0301 -0.0522  0.1227
20909W        W21773  27.625  26.501  13.653  0.2123  0.3528  0.0435
20910W        W21774   3.284  22.967  14.402  0.1683 -0.2518 -0.0991
20911W        W21775   0.673  21.447  12.054 -0.0409 -0.0501 -0.2237
20912W        W21776   2.938  22.973  14.030  0.3085  0.0479  0.0010
20913W        W21777   4.005  25.979  13.895  0.0631  0.2277 -0.0987
20914W        W21778   0.399  22.164   9.337  0.2521  0.0195 -0.1475
20915W        W21779   0.130  23.784  13.980 -0.0795 -0.2598  0.2393
20916W        W21780   0.898  23.890  13.409 -0.0535 -0.1185  0.2849
20917W        W21781   4.692  26.132  14.497 -0.1019 -0.0416  0.1261
20918W        W21782   0.410  27.903  12.901 -0.0799 -0.0474  0.0582
20919W        W21783  27.087  24.058  15.535 -0.1621  0.0286 -0.0418
20920W        W21784   4.031  21.997  11.374 -0.0131 -0.0749 -0.1353
20921W        W21785   0.385  23.935  11.356 -0.1827  0.1302  0.2781
20922W        W21786   3.722  27.430  13.722 -0.3312  0.1121 -0.1316
20923W        W21787  28.712  22.419  12.581  0.1571  0.1500 -0.0978
20924W        W21788  28.819  27.141  12.990  0.1729 -0.1811  0.0403
20925W        W21789   2.158  24.197  11.744  0.3788 -0.0435 -0.0720
20926W        W21790   1.291  21.961  14.441 -0.0556  0.0624  0.1701
20927W        W21791   2.104  23.208  15.150 -0.1005 -0.0281  0.0682
20928W        W21792   1.421  24.601  14.381 -0.1739  0.0238  0.1875
20929W        W21793  28.986  24.251  15.481  0.2725  0.1179  0.1216
20930W        W21794   3.068  21.505  13.637 -0.1927  0.0344  0.1659
20931W        W21795  27.190  24.397  13.059  0.3185  0.1937  0.1122
20932W        W21796   2.728  24.214  10.136 -0.0150 -0.2671  0.0989
20933W        W21797  29.014  24.849  12.252  0.3107  0.0204  0.1217
20934W        W21798   2.479  25.461  14.117  0.0835  0.2094 -0.0021
20935W        W21799   3.590  21.667  11.211 -0.0392 -0.0766  0.2510
20936W        W21800   2.886  25.248  16.503  0.2267 -0.0207  0.1641
20937W        W21801   0.966  24.605  18.259 -0.2392  0.2784 -0.0519
20938W        W21802   0.765  25.367  14.374 -0.1822  0.0917 -0.3099
20939W        W21803   4.000  25.231  15.691  0.2355  0.0390 -0.0378
20940W        W21804  26.705  27.206  14.588  0.1537  0.0698  0.0133
20941W        W21805   3.105  24.374  13.339 -0.2585  0.0649  0.3218
20942W        W21806   3.180  23.326  13.263  0.1738 -0.0039  0.2625
20943W        W21807   1.788  20.357  14.832 -0.0862 -0.1837  0.1854
20944W        W21808   2.970  22.156  11.587  0.3530  0.2405 -0.0157
20945W        W21809   0.813  22.863  12.299 -0.1402  0.0390 -0.1456
20946W        W21810   2.574  22.662  12.940 -0.0280 -0.0860  0.1049
20947W        W21811   0.960  26.643  10.613 -0.0449  0.0676  0.0330
20948W        W21812   1.520  25.487  13.069 -0.2327  0.3422  0.1424
20949W        W21813   2.209  25.918  12.842  0.3077  0.0614  0.2971
20950W        W21814   1.065  25.908  10.002 -0.2116 -0.0660  0.0107
20951W        W21815   0.446  24.114  12.937 -0.0911  0.0564 -0.0044
20952W        W21816   0.330  24.109  13.493 -0.0971 -0.1852  0.2017
20953W        W21817  27.918  22.618  11.860  0.2328  0.2474 -0.1810
20954W        W21818   1.307  22.640  13.401 -0.0677  0.0842 -0.2559
20955W        W21819   4.476  21.407  13.380  0.0423 -0.0029  0.1810
20956W        W21820   0.247  27.686  11.850 -0.3267 -0.2366  0.2397
20957W        W21821   0.154  23.270  13.323  0.1734  0.1039 -0.3597
20958W        W21822  29.147  24.487  13.557 -0.0086 -0.0117 -0.2581
20959W        W21823   2.231  22.450  11.952  0.0591  0.0796  0.0452
20960W        W21824  27.512  26.672  11.968 -0.0144 -0.1692  0.1408
20961W        W21825   1.710  23.091  12.696 -0.2109  0.3557  0.1481
20962W        W21826   1.988  21.045  13.113  0.0875  0.3154  0.2356
20963W        W21827  26.354  22.200  10.376  0.1370 -0.0279  0.0918
20964W        W21828   0.508  23.671  13.584  0.0009  0.1526  0.1369
20965W        W21829   2.266  23.833  15.036  0.0200 -0.1689 -0.1180
20966W        W21830   1.773  24.922  13.224  0.5942 -0.3932  0.0252
20967W        W21831   2.161  23.014  13.101  0.0510  0.0192 -0.0521
20968W        W21832  28.767  23.518  12.535 -0.4055  0.0116 -0.0604
20969W        W21833   3.848  24.806  16.056 -0.0946 -0.0858 -0.0300
20970W        W21834   1.348  26.729  13.751  0.0928 -0.0727  0.0279
20971W        W21835   1.607  25.926  13.383  0.0461  0.1748  0.1226
20972W        W21836  28.662  21.939  11.597  0.0843  0.2181  0.2422
20973W        W21837   4.870  19.485  12.328  0.0944  0.0169  0.0852
20974W        W21838   2.276  23.248  12.664 -0.2288 -0.0188  0.2311
20975W        W21839   3.486  25.661  14.013 -0.2098  0.2145 -0.2073
20976W        W21840  27.885  23.415  11.834  0.2775 -0.2298  0.2642
20977W        W21841   3.481  27.689  14.040  0.1603  0.2411  0.1334
20978W        W21842   4.304  22.433  11.567  0.1275 -0.1138  0.0376
20979W        W21843  28.998  24.031  14.304  0.0595 -0.0184 -0.0104
20980W        W21844   1.292  21.725  14.853  0.0443 -0.0529  0.1993
20981W        W21845   4.292  25.368  12.987 -0.3396  0.1340 -0.0217
20982W        W21846   1.679  20.398  11.903  0.2935  0.0945 -0.0624
20983W        W21847  27.184  23.659  13.861 -0.1550  0.0807  0.1610
20984W        W21848   0.455  23.122  12.444 -0.2536  0.0084  0.0903
20985W        W21849   0.786  23.790  12.130 -0.0826 -0.2281  0.4667
20986W        W21850  27.214  26.019  11.190 -0.0501 -0.2187  0.1321
20987W        W21851   5.094  24.513  13.732 -0.0123 -0.1204  0.3783
20988W        W21852   2.012  27.217  13.059 -0.2630  0.0026 -0.2268
20989W        W21853   4.081  24.144  13.895  0.1192 -0.1044  0.0640
20990W        W21854   4.159  26.404  12.210  0.1272  0.1382 -0.0895
20991W        W21855   4.433  26.739  13.915  0.0362  0.1438 -0.1326
20992W        W21856  28.678  26.946  16.965  0.0711  0.1360  0.0592
20993W        W21857   3.097  21.875  13.268  0.2155  0.0381  0.0867
20994W        W21858   2.198  23.901  15.534  0.0020  0.2487  0.0487
20995W        W21859   0.109  25.851  12.164 -0.1725  0.0250  0.0181
20996W        W21860   3.526  25.165  15.737 -0.0891  0.1876  0.0609
20997W        W21861   1.875  24.742  14.225 -0.0350 -0.2718  0.0360
20998W        W21862  28.156  27.478  13.295  0.1762  0.0903  0.2908
20999W        W21863   3.832  24.553  12.631  0.1114  0.0657  0.1036
21000W        W21864   2.627  24.152  12.598 -0.3290  0.1567 -0.2386
21001W        W21865   0.355  23.433  14.562 -0.1406 -0.2133  0.0023
21002W        W21866   3.520  23.192  11.986  0.2199  0.1702 -0.3258
21003W        W21867   1.330  26.359  13.265 -0.0854 -0.1107  0.1283
21004W        W21868  27.652  24.946  17.382 -0.0289 -0.0039 -0.1807
21005W        W21869   0.009  25.981  17.671 -0.1561  0.1082  0.0158
21006W        W21870  27.469  23.853  13.492 -0.1043 -0.2033  0.0816
21007W        W21871   4.075  26.850  18.744  0.1044 -0.0439 -0.1335
21008W        W21872   1.661  27.665  12.510  0.1188 -0.2356 -0.0088
21009W        W21873  28.209  23.436  13.267  0.0482  0.0841 -0.0090
21010W        W21874  27.549  25.383  16.551  0.0065 -0.2026 -0.3094
21011W        W21875   0.492  24.080  14.874 -0.2034 -0.1030  0.2831
21012W        W21876   2.101  24.410  18.134 -0.3748  0.0812 -0.1440
21013W        W21877   0.316  21.607  16.874 -0.0382 -0.1099 -0.1910
21014W        W21878  28.071  24.330  17.811 -0.1135 -0.1995  0.3135
21015W        W21879   2.827  22.738  14.873  0.0344 -0.0591 -0.1852
21016W        W21880   3.122  22.530  15.671  0.3390  0.4291  0.1411
21017W        W21881   5.555  22.318  20.066 -0.0134  0.2376  0.1659
21018W        W21882   1.082  22.606  18.222  0.2727  0.2759 -0.0880
21019W        W21883  28.479  25.096  20.616  0.2161 -0.0164  0.0428
21020W        W21884   0.006  25.136  16.558 -0.4259 -0.0305 -0.3015
21021W        W21885   1.156  23.341  17.122  0.0758 -0.2777  0.0811
21022W        W21886   1.294  21.142  19.578 -0.0673 -0.3156  0.0824
21023W        W21887   3.633  24.487  14.714  0.1115 -0.0307 -0.1953
21024W        W21888   1.807  23.714  18.329 -0.0008 -0.0134 -0.0808
21025W        W21889   1.902  27.023  15.424  0.1066  0.0513 -0.0789
21026W        W21890   1.181  23.777  17.443  0.0112 -0.3279  0.0806
21027W        W21891   0.927  24.594  17.793 -0.1661 -0.0512  0.2839
21028W        W21892  28.636  23.980  17.119 -0.1096 -0.0899 -0.0670
21029W        W21893   1.290  22.480  15.357 -0.2355  0.0620  0.1360
21030W        W21894   3.661  25.172  17.239  0.0165  0.0418  0.3201
21031W        W21895   0.934  22.762  16.405 -0.1179 -0.3708 -0.0333
21032W        W21896   1.197  24.152  17.781  0.1877  0.0320 -0.2809
21033W        W21897   1.062  23.794  15.678 -0.0163 -0.2555 -0.3581
21034W        W21898   3.523  25.546  15.446  0.0406  0.4403 -0.0450
21035W        W21899   3.127  25.053  18.532  0.0472 -0.3486 -0.0593
21036W        W21900  29.074  26.433  19.481  0.1053 -0.1013  0.1506
21037W        W21901   2.520  22.997  16.774  0.4186  0.2840 -0.0216
21038W        W21902   0.381  22.646  18.009  0.0328 -0.2372 -0.1528
21039W        W21903   2.963  26.887  16.906 -0.1240  0.0863 -0.1488
21040W        W21904   1.189  22.020  15.690 -0.0569  0.2168  0.1246
21041W        W21905  27.144  22.520  19.534 -0.0902 -0.0922  0.0068
21042W        W21906   5.055  24.028  14.176 -0.0112 -0.0342 -0.2988
21043W        W21907   4.065  23.467  14.976  0.3310  0.1127 -0.4813
21044W        W21908   5.373  24.171  14.747 -0.2342  0.0587 -0.1523
21045W        W21909   5.053  22.067  15.592 -0.4761  0.2181 -0.1319
21046W        W21910  28.302  25.408  16.315  0.4037 -0.1202  0.0725
21047W        W21911   5.105  24.428  17.864 -0.0408 -0.5886 -0.0022
21048W        W21912   0.523  27.633  13.723 -0.0609 -0.1818  0.1646
21049W        W21913   0.234  24.985  15.700  0.2477 -0.1469 -0.2354
21050W        W21914  28.327  25.099  19.664  0.0412 -0.0617  0.0317
21051W        W21915   2.189  24.309  14.425 -0.1702  0.3248 -0.2146
21052W        W21916   0.283  21.956  14.383  0.3193 -0.1380 -0.1830
21053W        W21917   0.665  22.920  14.548  0.2705 -0.2098 -0.0158
21054W        W21918   1.614  23.101  17.048  0.2089 -0.0181 -0.0009
21055W        W21919   0.208  22.777  14.649 -0.1905 -0.1414 -0.1637
21056W        W21920   1.885  24.664  18.725  0.1650 -0.2207  0.1526
21057W        W21921   4.727  19.729  13.644  0.0274  0.0796 -0.1653
21058W        W21922   1.444  23.437  15.907 -0.3972  0.0787 -0.0582
21059W        W21923  29.148  25.787  18.111  0.2055  0.5668 -0.1783
21060W        W21924  28.269  23.297  14.714  0.0938  0.1005 -0.0450
21061W        W21925   0.786  22.351  15.352  0.1665  0.2552 -0.2215
21062W        W21926   0.229  25.086  17.426  0.0978 -0.0164 -0.2825
21063W        W21927   2.639  26.298  16.224  0.0087  0.0310  0.1441
21064W        W21928   2.040  24.547  15.584 -0.1060 -0.0267 -0.0099
21065W        W21929   1.905  25.688  15.357  0.0999  0.2379 -0.1568
21066W        W21930   2.596  24.870  19.380 -0.1102  0.0669  0.2598
21067W        W21931   3.212  26.342  15.609 -0.0545  0.1663 -0.0625
21068W        W21932   2.900  22.125  16.726 -0.1737  0.1423 -0.0127
21069W        W21933   0.402  22.512  13.720  0.1043 -0.2585  0.3395
21070W        W21934  28.436  22.753  14.704  0.0776 -0.1250  0.0314
21071W        W21935  28.952  22.182  14.435  0.0032 -0.0424 -0.0605
21072W        W21936  26.631  22.747  14.741 -0.2641 -0.1675  0.0702
21073W        W21937   1.469  24.821  16.409 -0.3756  0.3184 -0.0253
21074W        W21938   3.511  27.166  18.128 -0.3037 -0.3143 -0.3805
21075W        W21939   1.918  25.108  14.849 -0.1148 -0.2460  0.0392
21076W        W21940   1.061  26.187  17.555 -0.0670 -0.0080  0.1330
21077W        W21941   3.191  24.048  17.532  0.1811  0.1990 -0.0912
21078W        W21942  28.466  22.959  18.184 -0.1477  0.0206 -0.2209
21079W        W21943   3.006  23.412  15.926  0.1889  0.0896 -0.1530
21080W        W21944   0.172  24.086  15.938 -0.2260 -0.0265  0.4636
21081W        W21945   0.809  25.964  16.308  0.0270  0.0115 -0.2537
21082W        W21946   1.658  21.646  14.218  0.1433 -0.2733  0.1665
21083W        W21947   4.104  24.783  17.156  0.0030  0.1586 -0.0844
21084W        W21948  27.865  22.746  15.385  0.0329 -0.1432  0.0275
21085W        W21949  27.311  24.686  18.094 -0.1579  0.2876  0.0767
21086W        W21950  28.741  23.294  15.104 -0.0806 -0.0144 -0.1599
21087W        W21951   1.024  24.806  17.355  0.0846  0.0637 -0.1148
21088W        W21952   4.713  23.797  17.389 -0.3034  0.0929  0.0321
21089W        W21953   2.486  23.409  14.817  0.3339 -0.0518  0.0104
21090W        W21954  28.428  24.641  20.462 -0.0807  0.2125  0.0983
21091W        W21955   3.233  22.271  18.630  0.1072  0.2385 -0.1667
21092W        W21956   2.680  25.527  17.832 -0.0172 -0.0240  0.1798
21093W        W21957   6.648  24.093  19.282 -0.0966  0.1972  0.1070
21094W        W21958   2.028  22.876  15.580 -0.1416 -0.0486 -0.1017
21095W        W21959   4.371  21.482  18.545 -0.0811  0.2056  0.2848
21096W        W21960   1.098  25.737  13.356 -0.1885 -0.2451  0.0748
21097W        W21961   0.083  23.350  12.800 -0.0264 -0.1919  0.1806
21098W        W21962   1.024  21.549  17.914 -0.2372 -0.0716  0.3005
21099W        W21963   1.407  24.856  14.927 -0.0880 -0.0672  0.4424
21100W        W21964   3.619  22.195  15.018  0.1922  0.1397  0.1204
21101W        W21965  27.600  25.531  17.992  0.1879 -0.1101  0.3013
21102W        W21966   3.987  19.641  16.886 -0.2537  0.0649 -0.0223
21103W        W21967   4.516  21.174  15.639 -0.1729  0.1185  0.0292
21104W        W21968   5.412  22.186  14.599  0.1781  0.3380  0.1667
21105W        W21969   1.328  21.135  15.600  0.1438 -0.0818  0.1465
21106W        W21970   1.028  20.847  13.344  0.2292 -0.0673  0.1469
21107W        W21971   1.453  22.645  16.401  0.0653 -0.1449 -0.0109
21108W        W21972   3.745  20.677  16.938  0.1563  0.5323  0.3569
21109W        W21973   1.998  25.659  17.645 -0.1522  0.0062 -0.0009
21110W        W21974   0.229  27.264  13.644 -0.3204 -0.1817 -0.2063
21111W        W21975   2.310  21.965  14.773  0.1000 -0.1856  0.1509
21112W        W21976   2.776  22.195  15.793  0.0693 -0.3214 -0.1441
21113W        W21977   1.258  23.609  16.609  0.2805 -0.0838  0.2313
21114W        W21978  29.086  23.972  16.821 -0.1970  0.1501 -0.0477
21115W        W21979   0.986  24.107  19.713 -0.0551  0.1515 -0.3132
21116W        W21980   5.186  21.073  16.733 -0.0156  0.2198 -0.1441
21117W        W21981   3.111  26.776  18.064  0.1692  0.3092 -0.0978
21118W        W21982  28.931  25.004  13.578  0.1030  0.1474 -0.2844
21119W        W21983  28.277  22.729  17.441 -0.3528  0.2293 -0.0636
21120W        W21984   4.104  20.469  16.121  0.0440 -0.0836 -0.1231
21121W        W21985   0.934  23.291  15.724 -0.1096 -0.1365  0.3211
21122W        W21986   4.065  23.284  14.070  0.1472  0.2687 -0.0506
21123W        W21987   0.695  23.761  16.104  0.0698 -0.3187  0.1046
21124W        W21988   3.933  25.386  16.249 -0.1839 -0.0618 -0.0731
21125W        W21989  27.639  24.826  14.313 -0.2246  0.3795 -0.0464
21126W        W21990   1.317  21.100  14.712 -0.1901 -0.2534 -0.3144
21127W        W21991   2.807  24.052  17.160  0.0928 -0.0135 -0.1141
21128W        W21992   2.340  24.602  16.005 -0.0104 -0.1613  0.2098
21129W        W21993   3.708  22.456  16.966 -0.1374 -0.0862 -0.4114
21130W        W21994   1.188  22.190  16.369  0.0138 -0.1130 -0.0743
21131W        W21995   3.535  24.132  15.665  0.0104  0.0297 -0.0444
21132W        W21996   1.538  21.681  15.662 -0.0291  0.0586  0.3984
21133W        W21997   1.810  25.181  16.406  0.1239 -0.1411 -0.0547
21134W        W21998   2.202  26.592  18.026 -0.0114 -0.3519 -0.2269
21135W        W21999   0.158  22.540  17.611  0.0199  0.0127  0.3715
21136W        W22000   2.367  25.364  16.437  0.1497 -0.1825 -0.0779
21137W        W22001   2.770  23.214  13.652  0.0046  0.0928  0.3449
21138W        W22002   2.104  23.210  16.916 -0.2915  0.0673  0.1677
21139W        W22003   0.771  22.157  19.191  0.2026 -0.0295 -0.3177
21140W        W22004   3.369  22.260  15.978 -0.1419 -0.3416 -0.0605
21141W        W22005   3.745  22.983  13.822  0.1910  0.2288  0.2675
21142W        W22006   3.722  25.497  17.611  0.1309  0.2701  0.0030
21143W        W22007  28.563  26.325  14.819 -0.0521 -0.2085  0.1027
21144W        W22008   0.937  21.625  11.368  0.2325  0.0442  0.0421
21145W        W22009   1.710  21.370  16.082  0.3490  0.2447 -0.0148
21146W        W22010   1.764  26.227  14.310 -0.1634 -0.1969 -0.0250
21147W        W22011   1.758  22.579  15.203  0.1879  0.1223  0.1974
21148W        W22012   0.047  26.055  18.567  0.2144  0.2449  0.1275
21149W        W22013   0.144  20.843  14.190 -0.0452 -0.1727 -0.1615
21150W        W22014   4.807  23.776  15.332  0.1880  0.0597 -0.0852
21151W        W22015   2.601  25.794  16.325  0.2382  0.1453 -0.0069
21152W        W22016   0.840  24.011  16.528 -0.1335 -0.3412  0.1026
21153W        W22017   1.407  24.346  14.935  0.4384  0.0822 -0.1202
21154W        W22018   1.650  23.855  15.658 -0.3193 -0.1120 -0.0793
21155W        W22019   1.360  22.023  15.220 -0.1851 -0.0108  0.0208
21156W        W22020   3.011  23.064  16.626  0.0697  0.0774  0.0834
21157W        W22021  28.459  24.204  16.286  0.1567 -0.1190  0.0691
21158W        W22022   2.027  25.616  16.199  0.2540 -0.2123 -0.1749
21159W        W22023   0.803  23.673  16.929 -0.1492 -0.1109 -0.1645
21160W        W22024  28.068  25.639  16.803 -0.3110  0.2100 -0.2324
21161W        W22025   0.110  26.952  13.220 -0.1472 -0.1851 -0.0449
21162W        W22026   1.950  20.656  15.284  0.0704 -0.1262 -0.2880
21163W        W22027  29.030  21.246  13.940  0.2987  0.1918 -0.0799
21164W        W22028   2.463  22.238  15.122 -0.1329 -0.1080 -0.1829
21165W        W22029   2.127  25.763  16.702 -0.1170 -0.0176  0.0945
21166W        W22030   1.532  24.013  16.530 -0.1567  0.0246 -0.0127
21167W        W22031   0.757  23.860  17.673  0.1755 -0.3544  0.3041
21168W        W22032   2.978  22.233  17.970 -0.2221 -0.0042 -0.1560
21169W        W22033   1.030  22.834  17.670 -0.0747 -0.3631 -0.1335
21170W        W22034   0.948  21.811  16.083 -0.1853 -0.0697  0.3313
21171W        W22035  28.039  24.628  16.826  0.1305  0.2761 -0.0045
21172W        W22036   2.426  26.338  20.094  0.2361 -0.0892 -0.0834
21173W        W22037   0.249  25.360  16.136 -0.1417  0.1263 -0.1093
21174W        W22038   2.929  24.375  15.865  0.1746  0.2090  0.1160
21175W        W22039   1.282  23.854  14.028 -0.0371  0.3079 -0.0257
21176W        W22040   3.714  24.084  15.186 -0.2340  0.1952 -0.1107
21177W        W22041   1.236  28.460  15.287  0.0652  0.2552  0.4928
21178W        W22042   3.528  24.596  16.400  0.0248  0.1285  0.1441
21179W        W22043   5.491  23.892  13.959  0.0874  0.1056 -0.2641
21180W        W22044  26.533  24.539  19.510  0.0925 -0.3128 -0.1916
21181W        W22045   0.502  23.614  15.707  0.2553 -0.3233 -0.0526
21182W        W22046   1.444  27.216  13.959  0.1082  0.0317  0.3175
21183W        W22047   3.193  21.356  14.068  0.2299  0.1030 -0.0557
21184W        W22048  28.796  23.258  16.284 -0.0334  0.0554  0.1468
21185W        W22049   3.197  25.311  17.529  0.0958 -0.1901  0.2703
21186W        W22050   1.208  25.347  13.747  0.3008 -0.0879 -0.0780
21187W        W22051  28.472  24.836  14.240  0.1497 -0.1347 -0.0151
21188W        W22052   2.141  23.757  14.504 -0.0352  0.1995 -0.0918
21189W        W22053  28.761  26.950  17.938  0.0786  0.2931  0.0950
21190W        W22054  28.879  20.672  12.749  0.2775  0.4581  0.0755
21191W        W22055   0.215  21.242  17.631 -0.1571  0.0051  0.4177
21192W        W22056   1.433  26.360  15.903  0.2613  0.2346 -0.0900
21193W        W22057   0.318  22.653  15.146 -0.1257  0.0431  0.1883
21194W        W22058  29.021  26.080  13.131 -0.0210 -0.0459 -0.1411
21195W        W22059  27.559  25.650  16.986  0.1046  0.0686  0.0495
21196W        W22060   1.687  25.120  20.275  0.0522 -0.0855 -0.1608
21197W        W22061   3.511  22.846  20.071 -0.2400 -0.1813 -0.4201
21198W        W22062   1.585  22.415  18.119  0.2273  0.0911 -0.1566
21199W        W22063   3.293  23.836  15.947 -0.1022 -0.1203 -0.0522
21200W        W22064   2.383  25.004  13.915 -0.0214 -0.0848  0.1363
21201W        W22065   0.682  21.917  15.649  0.0023 -0.0180  0.0855
21202W        W22066  27.050  23.637  17.630  0.0171 -0.3069 -0.0762
21203W        W22067   2.588  24.035  14.701 -0.1121 -0.2973 -0.0709
21204W        W22068  28.282  23.954  13.765 -0.0571  0.0576  0.1112
21205W        W22069   5.774  23.297  16.744 -0.1526 -0.1262  0.0588
21206W        W22070   3.796  22.919  14.299  0.0244  0.1201 -0.0728
21207W        W22071  29.092  22.947  15.262 -0.0991  0.3604  0.0908
21208W        W22072   1.622  25.693  18.635  0.0661 -0.2657 -0.0330
21209W        W22073   0.452  23.631  12.659  0.3865  0.0343  0.0255
21210W        W22074  27.869  24.441  17.317 -0.0308  0.0965  0.0332
21211W        W22075   1.098  23.063  15.281 -0.1249 -0.1244 -0.2201
21212W        W22076   0.220  26.822  14.358 -0.3463 -0.1750 -0.0731
21213W        W22077  28.782  24.541  15.087  0.2232  0.1807 -0.5015
21214W        W22078   1.912  24.397  19.363 -0.0799 -0.1301  0.0681
21215W        W22079  28.450  24.061  17.581 -0.0289  0.0804 -0.0722
21216W        W22080   3.797  24.165  16.152 -0.0564 -0.3492 -0.0701
21217W        W22081   4.231  22.745  16.683 -0.1380 -0.0501  0.1437
21218W        W22082   2.617  23.612  16.675 -0.0377  0.1887  0.2535
21219W        W22083   4.872  23.374  15.053  0.1484  0.1618  0.0533
21220W        W22084   3.381  24.768  14.308  0.0817  0.0156  0.2218
21221W        W22085   3.579  24.999  14.782  0.1528  0.0178 -0.0762
21222W        W22086   3.601  23.362  19.480 -0.0220  0.0057  0.1465
21223W        W22087   2.632  24.877  16.639 -0.2250 -0.2565 -0.1735
21224W        W22088   3.135  21.861  15.860  0.2954  0.0735 -0.2921
21225W        W22089   1.593  24.350  16.198 -0.1988  0.1488 -0.2169
21226W        W22090  27.673  24.715  20.780 -0.2189  0.0397 -0.0770
21227W        W22091   1.668  22.300  14.381  0.3737 -0.1487 -0.1718
21228W        W22092   2.474  23.431  14.265 -0.1767 -0.3092 -0.0680
21229W        W22093   1.630  23.646  17.150 -0.1380  0.0942 -0.1529
21230W        W22094  28.414  23.890  16.697 -0.0539 -0.0030 -0.0854
21231W        W22095   4.860  22.569  15.850  0.0911  0.1043  0.0434
21232W        W22096   3.404  26.415  14.501 -0.2197  0.1782 -0.1898
21233W        W22097   4.969  24.606  17.140  0.2858 -0.5465  0.0407
21234W        W22098   3.374  23.279  15.423  0.1299 -0.0457  0.3617
21235W        W22099   0.382  26.649  19.541 -0.1185  0.2096 -0.0753
21236W        W22100   0.992  25.081  18.345  0.0840  0.0121 -0.2693
21237W        W22101   3.820  25.243  12.796  0.0980  0.2437 -0.2401
21238W        W22102  28.218  21.751  17.663 -0.1015  0.1255 -0.1792
21239W        W22103  28.922  24.407  17.073  0.4837  0.0394  0.0887
21240W        W22104   2.878  24.677  15.396  0.0210  0.0060  0.0371
21241W        W22105   2.232  25.155  18.060 -0.4190  0.0423 -0.1837
21242W        W22106   3.325  21.828  15.314 -0.1412 -0.1484 -0.0531
21243W        W22107  29.056  24.526  16.637  0.1798  0.1610  0.0627
21244W        W22108   2.043  27.399  15.224  0.3815 -0.2723 -0.2500
21245W        W22109  27.690  24.842  18.497 -0.0402  0.0268  0.0917
21246W        W22110   1.730  24.844  15.986  0.0455  0.1553 -0.2552
21247W        W22111   1.325  22.775  14.841  0.2359 -0.1448 -0.0415
21248W        W22112   3.764  23.350  18.378 -0.2874  0.0630  0.2684
21249W        W22113  28.775  24.447  14.515 -0.2683  0.4711 -0.2866
21250W        W22114   3.510  25.532  16.693  0.0028 -0.2625 -0.2405
21251W        W22115   2.472  24.742  17.958  0.0080  0.1427  0.0820
21252W        W22116   2.647  26.570  18.258  0.4142 -0.0261 -0.1481
21253W        W22117   0.797  24.749  15.607 -0.2651 -0.2379  0.0348
21254W        W22118   0.875  25.383  16.243 -0.1513  0.1650 -0.1145
21255W        W22119   2.705  26.819  15.001 -0.0716 -0.1447 -0.0525
21256W        W22120   3.880  26.138  20.467 -0.1580 -0.1312  0.0073
21257W        W22121   1.609  22.002  18.455  0.2675  0.0877  0.0644
21258W        W22122  24.579  23.351  14.865  0.0965  0.1285  0.4411
21259W        W22123   2.715  21.770  16.119 -0.0994  0.1550  0.1485
21260W        W22124   2.120  21.756  13.774 -0.0524  0.0934 -0.0701
21261W        W22125  28.483  20.311  19.988  0.3969 -0.0735  0.0942
21262W        W22126   5.003  24.500  16.496  0.1817  0.4891 -0.0415
21263W        W22127   4.084  24.455  17.548  0.0275  0.1479  0.4078
21264W        W22128   0.702  25.178  17.406  0.2691 -0.0547 -0.0429
21265W        W22129   4.380  22.733  18.875  0.0162  0.3473 -0.0050
21266W        W22130  28.844  24.135  18.910 -0.1989 -0.0565  0.0828
21267W        W22131   0.391  22.942  19.842 -0.2908 -0.4069  0.2443
21268W        W22132  27.648  27.003  13.859 -0.0369  0.3735  0.0950
21269W        W22133   1.838  24.046  16.934 -0.0272  0.0882  0.0944
21270W        W22134   1.568  26.239  13.818  0.2127 -0.0750 -0.2202
21271W        W22135   4.175  23.848  15.372  0.0090 -0.0390 -0.1731
21272W        W22136  28.756  23.650  18.389  0.1566  0.1064 -0.0135
21273W        W22137   3.048  25.008  14.696  0.0899  0.2215  0.1609
21274W        W22138   1.415  26.934  14.480 -0.0292  0.3072 -0.2978
21275W        W22139   0.848  23.124  20.083  0.1075 -0.1253 -0.1575
21276W        W22140   3.264  22.427  16.441  0.1315  0.1244 -0.2184
21277W        W22141  29.046  23.324  17.272  0.2672  0.0485 -0.0567
21278W        W22142   2.201  26.089  16.358 -0.1041  0.4487 -0.0502
21279W        W22143   1.631  23.584  17.783  0.0694 -0.3312  0.1236
21280W        W22144   1.663  21.828  17.298 -0.0628 -0.0965  0.1498
21281W        W22145  27.188  24.126  17.477  0.1209 -0.0843 -0.2315
21282W        W22146   3.774  24.801  13.947  0.2229  0.0435 -0.3012
21283W        W22147   2.022  23.328  17.451  0.0503 -0.1246 -0.0531
21284W        W22148   2.085  23.272  16.371 -0.0687 -0.0612  0.1334
21285W        W22149   1.847  24.051  14.753 -0.3305 -0.2980 -0.0403
21286W        W22150   0.917  24.840  15.114 -0.1788  0.3244  0.0883
21287W        W22151  28.869  25.556  17.574  0.1604  0.2140  0.0353
21288W        W22152   3.575  25.927  14.941  0.3340 -0.5502 -0.0066
21289W        W22153   3.788  21.971  15.517  0.0520  0.1619 -0.0866
21290W        W22154   1.209  23.862  16.165 -0.2478 -0.0545  0.0737
21291W        W22155   2.295  23.065  15.945  0.1783 -0.0245  0.0506
21292W        W22156   2.812  19.685  13.474 -0.2019  0.0280 -0.1297
21293W        W22157   1.628  26.650  16.844  0.2055  0.0847  0.0791
21294W        W22158  28.713  23.684  14.586  0.0035 -0.0277 -0.0323
21295W        W22159   3.708  20.153  15.972  0.2536  0.1197  0.0564
21296W        W22160   3.744  23.647  15.495 -0.2035 -0.0615  0.0080
21297W        W22161  27.651  23.612  17.925  0.1193  0.4554  0.1734
21298W        W22162   1.527  24.539  17.722 -0.0021  0.0709  0.1856
21299W        W22163   3.782  21.916  17.744  0.1133 -0.3207 -0.2363
21300W        W22164   1.135  25.705  16.001  0.2065  0.2243  0.0428
21301W        W22165   2.966  23.085  17.552  0.0805 -0.3755 -0.2713
21302W        W22166   5.214  22.989  15.133 -0.0194  0.0924 -0.1884
21303W        W22167  28.971  22.467  17.196 -0.3493  0.1236 -0.1091
21304W        W22168   0.073  24.608  17.414 -0.0929  0.3181  0.2273
21305W        W22169   0.381  22.329  18.893  0.0650 -0.1492  0.3214
21306W        W22170   1.826  24.061  19.720 -0.3404  0.1645  0.1495
21307W        W22171   4.662  23.526  13.426 -0.0430  0.0146 -0.1069
21308W        W22172   0.818  26.247  15.856  0.1926 -0.0931 -0.2709
21309W        W22173   2.514  23.534  18.191  0.0061  0.0007 -0.1274
21310W        W22174   0.296  25.848  19.355 -0.0799 -0.3856 -0.4095
21311W        W22175   0.750  21.859  14.957 -0.0179  0.0112  0.0492
21312W        W22176   5.739  21.123  17.648 -0.1464  0.0353  0.2059
21313W        W22177  27.883  24.385  16.386  0.1091  0.0104 -0.1364
21314W        W22178   1.629  20.677  14.286  0.0587  0.3496 -0.0454
21315W        W22179   0.807  22.940  17.205  0.4017  0.2280 -0.1573
21316W        W22180   1.234  24.745  15.953  0.1005  0.6138  0.2626
21317W        W22181   2.406  26.471  14.865 -0.0437  0.1477 -0.2681
21318W        W22182  26.306  25.658  17.950  0.0638 -0.1727 -0.1497
21319W        W22183   0.835  27.022  18.799 -0.0851 -0.1090  0.2422
21320W        W22184  29.063  22.476  14.884 -0.3308 -0.4037 -0.2743
21321W        W22185   1.918  23.164  14.309 -0.0044 -0.0801  0.3211
21322W        W22186   0.961  22.776  15.665 -0.3485 -0.2697  0.0679
21323W        W22187  28.767  24.498  17.575  0.3290 -0.1280  0.1974
21324W        W22188   1.701  25.471  16.825 -0.2812  0.0011  0.0847
21325W        W22189   4.663  25.005  17.207 -0.2244  0.1356 -0.0310
21326W        W22190  27.238  24.115  17.972 -0.1549  0.1680  0.0115
21327W        W22191   0.557  24.962  16.107 -0.1622 -0.0651  0.1500
21328W        W22192  28.335  22.948  13.360 -0.0766  0.0972 -0.1365
21329W        W22193   0.476  23.923  17.296  0.0592 -0.0043  0.2305
21330W        W22194  28.717  20.287  14.383 -0.3749  0.0567  0.1460
21331W        W22195   0.457  25.587  16.521  0.0182  0.2311  0.2756
21332W        W22196   0.915  25.147  18.892  0.1206 -0.1133  0.2798
21333W        W22197  27.549  24.112  17.138 -0.1444 -0.0687  0.0263
21334W        W22198   1.947  23.609  18.794 -0.0154 -0.1983  0.2909
21335W        W22199   0.617  21.367  10.892  0.1503  0.0599 -0.2255
21336W        W22200   4.440  24.899  20.814 -0.0410 -0.2368  0.2046
21337W        W22201   1.356  27.829  19.022 -0.0052 -0.1756  0.0119
21338W        W22202   5.061  24.182  18.283 -0.0429  0.0859 -0.0870
21339W        W22203   1.437  25.021  17.539 -0.2828  0.0352  0.0765
21340W        W22204   0.351  23.355  16.983 -0.1544  0.0003  0.1180
21341W        W22205   3.214  24.308  14.283 -0.2936  0.0311  0.1368
21342W        W22206   1.219  24.323  11.265  0.1100 -0.0057 -0.3843
21343W        W22207   1.306  23.642  13.313  0.0254 -0.0519  0.2222
21344W        W22208   2.821  26.731  17.376 -0.2499  0.3142  0.0086
21345W        W22209   2.361  23.529  15.984 -0.2482 -0.0255 -0.0446
21346W        W22210   2.090  22.682  14.258 -0.0267 -0.0504 -0.2190
21347W        W22211  27.857  24.805  15.583 -0.0866  0.0279  0.2710
21348W        W22212   1.137  25.698  16.660 -0.2849  0.2573 -0.4411
21349W        W22213  29.046  25.853  17.197 -0.1453 -0.4418  0.1822
21350W        W22214  28.475  21.892  13.878 -0.3460  0.0724 -0.0316
21351W        W22215   1.720  23.090  16.113 -0.0459 -0.1897 -0.0590
21352W        W22216   0.877  25.673  17.586  0.1042  0.2558  0.0985
21353W        W22217  25.768  24.160  15.204  0.4096 -0.0735 -0.0200
21354W        W22218   4.586  22.585  17.656 -0.0142 -0.2323  0.0600
21355W        W22219   2.302  24.539  14.009  0.3516  0.3578 -0.1359
21356W        W22220   1.211  24.691  16.844 -0.2302 -0.1130  0.1784
21357W        W22221   2.671  28.068  15.291  0.0457  0.2046 -0.0533
21358W        W22222   0.560  25.099  15.315 -0.0082 -0.1572  0.1916
21359W        W22223   1.585  19.215  11.514  0.1267 -0.0293 -0.2522
21360W        W22224   0.615  26.062  17.329 -0.2922 -0.1824  0.2114
21361W        W22225   1.960  22.855  17.304 -0.2054 -0.1366 -0.0263
21362W        W22226   0.447  25.205  19.105 -0.0304 -0.0084 -0.3397
21363W        W22227  28.249  23.615  14.213  0.1645 -0.0914 -0.0888
21364W        W22228  27.900  22.466  15.828  0.1468 -0.0092  0.2046
21365W        W22229   2.557  23.387  17.110 -0.3046  0.3121  0.2586
21366W        W22230   3.036  23.471  14.938 -0.3596 -0.2270  0.0093
21367W        W22231   1.869  22.842  16.586 -0.1600  0.1993 -0.2113
21368W        W22232   3.055  25.459  16.073  0.0282 -0.0949  0.0634
21369W        W22233   1.941  23.389  14.745  0.1664  0.0286 -0.1556
21370W        W22234   1.205  21.539  17.015 -0.2581 -0.1333 -0.1286
21371W        W22235   2.746  24.232  15.107  0.1778  0.0867  0.2579
21372W        W22236   2.622  20.716  13.594  0.0237  0.1464  0.1843
21373W        W22237   4.137  22.807  16.130 -0.0059  0.1915  0.1211
21374W        W22238   3.331  23.224  13.760 -0.0481  0.2936 -0.0767
21375W        W22239   4.758  22.976  15.355  0.3312 -0.1126  0.2485
21376W        W22240   0.754  24.359  16.862 -0.1335  0.1346  0.1887
21377W        W22241   4.668  26.923  19.291  0.0390 -0.1396 -0.0434
21378W        W22242   3.165  24.610  14.982 -0.3634 -0.1297 -0.1573
21379W        W22243   2.792  23.872  15.710 -0.1067  0.0107 -0.2018
21380W        W22244  28.356  23.512  17.058 -0.0420  0.0627 -0.0951
21381W        W22245   5.964  25.031  19.877 -0.0959 -0.0048  0.2848
21382W        W22246   3.214  22.775  18.689  0.1819 -0.0207 -0.1247
21383W        W22247   0.650  21.223  19.021 -0.1641 -0.3272  0.3774
21384W        W22248   1.756  26.016  16.217 -0.0099  0.0853  0.1426
21385W        W22249  27.841  24.082  14.957  0.1440  0.1095 -0.2163
21386W        W22250  27.736  21.058  17.423  0.0492 -0.1641  0.0258
21387W        W22251   2.866  23.194  14.509  0.0018  0.2312  0.2043
21388W        W22252   0.830  26.433  17.906  0.0991  0.2201 -0.0684
21389W        W22253   2.264  22.107  16.091  0.2868 -0.3011  0.1100
21390W        W22254   1.243  22.980  16.066 -0.2027 -0.2903  0.0016
21391W        W22255  28.632  24.926  15.939 -0.1381 -0.0144 -0.0356
21392W        W22256  28.946  24.059  16.328  0.1977  0.2340 -0.1642
21393W        W22257   4.176  26.392  18.199  0.0880  0.0587  0.1055
21394W        W22258  28.065  24.788  17.643 -0.4144  0.0671 -0.2993
21395W        W22259  26.721  24.057  17.770  0.0431 -0.1823  0.3408
21396W        W22260   1.505  25.952  14.715 -0.1270  0.3448  0.0530
21397W        W22261   0.544  25.943  17.867 -0.0165  0.1729  0.0506
21398W        W22262   0.476  24.868  17.792  0.0993  0.0910  0.0842
21399W        W22263   1.798  24.190  18.495  0.1490  0.1888  0.3079
21400W        W22264   1.230  24.081  16.969  0.0004 -0.2385  0.1319
21401W        W22265  28.683  25.593  18.160 -0.1941  0.0157 -0.1566
21402W        W22266   2.226  27.003  14.917  0.0559 -0.1561  0.1069
21403W        W22267  28.060  22.863  13.783 -0.0850  0.1284  0.0655
21404W        W22268   1.075  27.802  21.256  0.1504  0.3044 -0.4451
21405W        W22269   1.021  26.522  21.113 -0.0910  0.1739 -0.1191
21406W        W22270   4.408  26.029  19.435  0.3888  0.1652 -0.2508
21407W        W22271   1.735  24.156  21.971  0.0252  0.0974 -0.1067
21408W        W22272   1.543  24.609  17.198 -0.2472 -0.1086  0.0341
21409W        W22273   1.460  23.508  19.171  0.1488  0.1089  0.0418
21410W        W22274  28.860  22.462  22.009  0.2170  0.0506 -0.1585
21411W        W22275   0.696  23.193  20.872  0.1209  0.0052  0.0276
21412W        W22276   0.443  28.547  22.310  0.2294 -0.1355 -0.0458
21413W        W22277   0.427  23.891  21.133  0.4029  0.0370  0.2968
21414W        W22278   1.873  21.840  21.330  0.0332 -0.2555 -0.0678
21415W        W22279   2.697  21.264  19.184 -0.2618 -0.2111  0.0751
21416W        W22280   2.906  23.363  20.401 -0.1460  0.0429 -0.4099
21417W        W22281   4.100  22.777  22.180  0.0201  0.2190 -0.1099
21418W        W22282   4.211  22.769  19.430 -0.1302  0.0605  0.2106
21419W        W22283  28.470  24.127  23.049  0.1978 -0.1026 -0.0300
21420W        W22284   1.224  24.272  18.643  0.0443  0.2294  0.2406
21421W        W22285   1.250  24.910  22.761 -0.0850 -0.1329  0.5362
21422W        W22286   1.921  23.753  20.782 -0.0631 -0.1673 -0.3525
21423W        W22287   5.019  22.851  19.700 -0.0424  0.3454  0.0974
21424W        W22288   2.707  23.285  19.130  0.3452 -0.0565 -0.3047
21425W        W22289   1.606  23.245  18.689 -0.0762 -0.2422 -0.1676
21426W        W22290   3.132  24.652  20.541  0.0797  0.1731 -0.1844
21427W        W22291   0.419  23.940  19.748  0.0137 -0.1785 -0.0095
21428W        W22292   0.621  23.458  21.314 -0.1093  0.1221  0.3976
21429W        W22293   3.935  22.593  19.790  0.2471 -0.1258  0.2748
21430W        W22294   4.276  24.550  19.727  0.0752 -0.0939  0.0707
21431W        W22295   2.308  24.615  20.688 -0.2494 -0.1462  0.1098
21432W        W22296   2.261  24.720  18.996 -0.1060 -0.2271 -0.0937
21433W        W22297   3.220  21.653  18.873  0.1842  0.0911 -0.2062
21434W        W22298   4.634  23.545  18.162  0.0981  0.1318  0.1170
21435W        W22299   3.766  28.270  21.333 -0.1598  0.1403 -0.0656
21436W        W22300   2.242  24.066  20.167 -0.4277 -0.0325 -0.0229
21437W        W22301   1.233  23.282  17.606  0.0522  0.0617  0.1438
21438W        W22302   2.178  22.946  17.759  0.2390  0.0886 -0.0111
21439W        W22303   3.178  25.375  19.758 -0.2127  0.1830  0.0568
21440W        W22304   0.865  22.400  16.731  0.1836 -0.0980  0.1024
21441W        W22305   2.803  25.139  21.662  0.0987 -0.0307 -0.3275
21442W        W22306   2.895  25.943  20.753 -0.0834  0.2463 -0.0070
21443W        W22307   3.617  22.063  18.927  0.3796 -0.1102  0.1215
21444W        W22308   5.062  23.076  18.128 -0.1566 -0.3908  0.3387
21445W        W22309   5.283  22.690  23.195 -0.0558 -0.1388  0.2245
21446W        W22310   2.792  27.063  20.430  0.0375 -0.1804  0.0879
21447W        W22311   6.135  25.566  17.999 -0.0708  0.1639  0.0253
21448W        W22312  28.449  24.518  21.711 -0.0932  0.1660 -0.1024
21449W        W22313   0.786  25.470  22.251 -0.2004 -0.1889 -0.0547
21450W        W22314   1.814  21.146  21.329  0.0166 -0.1255 -0.0939
21451W        W22315   3.433  25.577  18.859 -0.0696  0.0973 -0.0969
21452W        W22316   4.336  21.828  19.598 -0.2367  0.1691  0.6199
21453W        W22317   2.748  25.643  19.772 -0.0397 -0.1709  0.2059
21454W        W22318   1.791  23.232  22.491 -0.3716  0.0299 -0.0109
21455W        W22319   0.744  22.387  20.077  0.2813 -0.1329  0.0504
21456W        W22320   2.067  26.093  20.493 -0.2038  0.1788 -0.0356
21457W        W22321   4.698  23.474  20.682  0.1285 -0.0683  0.2142
21458W        W22322   2.967  22.088  20.236  0.0425  0.0943 -0.1676
21459W        W22323  26.769  25.047  21.540 -0.1259 -0.1242 -0.1048
21460W        W22324   2.389  22.644  19.606  0.0269  0.0641 -0.1843
21461W        W22325   2.555  24.272  18.238 -0.1455  0.0896  0.0742
21462W        W22326  27.526  25.212  20.824  0.1924  0.3335  0.1069
21463W        W22327   0.557  23.573  18.000  0.2429 -0.2857 -0.0252
21464W        W22328   5.403  23.890  20.201 -0.0342  0.0474  0.2816
21465W        W22329   0.369  23.450  19.932 -0.0895 -0.0067 -0.2069
21466W        W22330  29.070  25.834  20.553 -0.2965  0.0151 -0.2102
21467W        W22331   2.467  23.587  18.733  0.0035  0.0786 -0.5104
21468W        W22332   1.293  22.251  20.075 -0.1471 -0.0170 -0.2337
21469W        W22333   1.935  22.416  18.519  0.0445 -0.1052  0.0306
21470W        W22334   3.276  23.061  16.162 -0.2156 -0.4480 -0.3598
21471W        W22335   0.858  22.469  18.689  0.0622  0.1605 -0.1055
21472W        W22336   0.669  25.890  22.939  0.0168  0.0337 -0.0627
21473W        W22337   1.318  23.006  18.977 -0.3043  0.0738 -0.3042
21474W        W22338  29.086  22.579  23.764  0.0177 -0.0941  0.0533
21475W        W22339   2.817  21.432  19.697  0.1590 -0.1599 -0.0381
21476W        W22340   5.901  22.746  18.449 -0.4171 -0.2486  0.0666
21477W        W22341   1.175  25.238  23.189  0.0165  0.3116  0.2240
21478W        W22342   3.314  23.755  17.927  0.1222  0.0812  0.0734
21479W        W22343   2.606  24.105  19.810  0.0527 -0.2955  0.0199
21480W        W22344  28.469  24.101  19.249 -0.0447 -0.3566 -0.0202
21481W        W22345   3.392  25.730  17.934  0.1622 -0.2039 -0.0259
21482W        W22346   2.112  25.152  19.152  0.0311 -0.1059 -0.2873
21483W        W22347   3.865  22.456  16.496 -0.0179  0.0590 -0.1713
21484W        W22348   1.710  23.972  19.235 -0.0247 -0.0731  0.3482
21485W        W22349   1.534  24.972  20.924  0.1433 -0.2385 -0.2456
21486W        W22350  27.396  20.157  20.697 -0.0077 -0.2216  0.1072
21487W        W22351  27.946  20.184  20.603 -0.0824  0.0767  0.1224
21488W        W22352   3.141  23.362  18.841 -0.0197  0.1494  0.0754
21489W        W22353  27.791  22.943  16.066 -0.1636  0.1807 -0.0531
21490W        W22354   0.971  25.564  20.835  0.0140  0.2263 -0.0907
21491W        W22355   0.957  18.962  19.751 -0.2975  0.1342  0.1835
21492W        W22356   6.488  26.119  22.237 -0.2828 -0.0381 -0.1328
21493W        W22357   4.463  21.863  22.086 -0.1236  0.2524  0.0792
21494W        W22358   5.176  22.254  19.760 -0.0465  0.1806  0.0114
21495W        W22359   2.166  24.989  23.006 -0.0005  0.1347 -0.0566
21496W        W22360  28.852  24.892  18.888 -0.0522  0.0308  0.0687
21497W        W22361  28.641  23.598  20.221  0.1279  0.1128  0.2790
21498W        W22362   1.723  21.524  21.734 -0.1545 -0.2161 -0.0562
21499W        W22363   3.597  24.784  20.241 -0.0419  0.0840  0.0421
21500W        W22364   5.422  23.258  20.112  0.1812 -0.1093  0.2137
21501W        W22365   1.790  26.888  23.589  0.0383  0.1969 -0.2103
21502W        W22366   0.220  22.785  18.747  0.0223 -0.0270  0.3896
21503W        W22367   2.539  22.356  20.073  0.2479  0.2487 -0.0939
21504W        W22368   4.140  24.424  19.268  0.0902  0.2907  0.0855
21505W        W22369   2.107  24.405  19.857  0.3236 -0.1392 -0.2929
21506W        W22370   2.610  22.667  17.839  0.1298 -0.0771  0.0449
21507W        W22371   3.213  24.151  20.491 -0.2895  0.3443 -0.3166
21508W        W22372   5.921  25.296  21.179 -0.2955  0.0236 -0.3413
21509W        W22373   3.132  21.437  24.081 -0.0971 -0.1607  0.0381
21510W        W22374   0.994  23.668  19.338  0.2202  0.2833 -0.0196
21511W        W22375   4.186  24.215  23.884 -0.3390  0.0328  0.1226
21512W        W22376   4.060  24.203  20.677 -0.0656 -0.1955 -0.0674
21513W        W22377   1.838  24.903  18.255 -0.0389  0.0374  0.0240
21514W        W22378   0.779  23.829  21.521  0.3151 -0.0005 -0.0815
21515W        W22379   3.674  27.688  18.073 -0.2236  0.0289  0.1061
21516W        W22380   2.322  26.121  18.983 -0.1812 -0.0810  0.0723
21517W        W22381   3.039  25.840  21.235 -0.1870  0.2806 -0.2817
21518W        W22382   2.697  23.888  17.856 -0.1417  0.2200  0.0467
21519W        W22383   5.057  23.141  20.470 -0.2261  0.1851 -0.1483
21520W        W22384   3.845  19.981  19.805  0.0449 -0.4870 -0.3226
21521W        W22385   2.312  25.179  20.315 -0.1212  0.1603 -0.1943
21522W        W22386   2.600  22.636  22.230  0.0627 -0.0765 -0.2579
21523W        W22387   2.662  25.209  18.321  0.0269  0.5055 -0.1782
21524W        W22388   4.037  22.871  18.515 -0.1313 -0.2411  0.0627
21525W        W22389   3.080  24.287  19.093  0.0689 -0.0220 -0.0819
21526W        W22390   2.388  23.015  18.265  0.0685 -0.1511 -0.0444
21527W        W22391   3.018  24.508  18.549  0.0966  0.1782 -0.3525
21528W        W22392   1.082  25.414  21.821 -0.3228 -0.0364 -0.0806
21529W        W22393   3.793  24.798  19.232 -0.2473  0.0732  0.0743
21530W        W22394   0.306  24.023  18.073 -0.1409 -0.2098  0.0326
21531W        W22395   4.415  22.330  21.795  0.1250  0.3049 -0.1636
21532W        W22396   4.463  26.049  21.635  0.1749  0.2506 -0.0392
21533W        W22397   2.747  26.702  20.092  0.2866  0.0562  0.0159
21534W        W22398   3.223  25.071  22.140 -0.1398 -0.2173 -0.3091
21535W        W22399   5.136  22.787  20.823  0.0690  0.1103 -0.2560
21536W        W22400   0.254  25.658  18.850 -0.2330  0.0269 -0.2569
21537W        W22401   3.924  23.899  16.911 -0.0477  0.0935  0.0989
21538W        W22402   3.578  22.350  20.068  0.0407 -0.1593  0.0749
21539W        W22403   3.107  23.103  19.994  0.0810 -0.0576 -0.0658
21540W        W22404   4.472  21.862  20.760 -0.0785  0.0482  0.2476
21541W        W22405   3.125  23.109  22.875 -0.1000 -0.0652 -0.0143
21542W        W22406   5.026  24.632  21.291 -0.2610  0.0711  0.1190
21543W        W22407   2.311  26.598  18.985 -0.3077  0.1127 -0.0328
21544W        W22408   1.529  24.460  18.174  0.0615 -0.1665 -0.2283
21545W        W22409   2.376  21.770  19.194 -0.2017  0.1322  0.1316
21546W        W22410   0.832  25.514  18.098 -0.4244 -0.0900  0.2797
21547W        W22411   0.505  23.806  18.484  0.2052  0.4099 -0.0948
21548W        W22412   1.586  24.798  21.478 -0.0559 -0.1235  0.3262
21549W        W22413   2.699  24.046  18.731  0.2850 -0.0590 -0.1585
21550W        W22414   4.858  21.085  21.058 -0.1035  0.3196 -0.1075
21551W        W22415   1.346  26.642  20.229 -0.1719 -0.1138 -0.1727
21552W        W22416   5.085  28.137  19.467 -0.3477  0.1946 -0.3314
21553W        W22417   0.956  26.116  21.501 -0.0448  0.0145  0.0302
21554W        W22418   2.041  26.896  22.179  0.1286 -0.2243 -0.0158
21555W        W22419   2.001  20.997  20.142 -0.2662  0.0323 -0.0668
21556W        W22420   1.751  24.909  19.400 -0.0812  0.0270 -0.0946
21557W        W22421  29.047  21.425  20.860 -0.0748  0.3006  0.2896
21558W        W22422   3.221  24.079  21.396 -0.1652  0.3384  0.2915
21559W        W22423   2.462  18.983  18.648  0.0169  0.0702 -0.1539
21560W        W22424   0.144  23.569  21.505  0.3026  0.1306 -0.2712
21561W        W22425   3.939  21.787  16.760  0.2877 -0.0031  0.1134
21562W        W22426   0.858  21.277  14.916 -0.2208 -0.2605 -0.0362
21563W        W22427   3.795  22.902  19.059  0.1741  0.1729 -0.1386
21564W        W22428   1.903  22.331  20.860 -0.0104 -0.1871 -0.0294
21565W        W22429   4.071  21.750  21.059  0.0044 -0.0673  0.0487
21566W        W22430   4.812  23.441  21.359  0.0800 -0.1240  0.0709
21567W        W22431   4.190  26.144  22.084  0.1963  0.1440 -0.0625
21568W        W22432   2.434  22.736  25.220  0.0663  0.2195 -0.0926
21569W        W22433   1.655  22.853  22.097 -0.0182  0.0387  0.0967
21570W        W22434  28.788  22.152  19.943  0.2416 -0.2809  0.0740
21571W        W22435   1.672  24.371  21.266  0.0791 -0.0301  0.0193
21572W        W22436   3.800  23.274  21.045  0.1022 -0.0820  0.2340
21573W        W22437  28.943  26.905  18.452 -0.1882 -0.1075 -0.1297
21574W        W22438   3.149  24.588  20.033 -0.2310  0.1348  0.0384
21575W        W22439   4.205  22.226  18.802 -0.1469 -0.0775  0.0114
21576W        W22440   0.587  24.400  19.906  0.1564  0.2044  0.2671
21577W        W22441   1.966  24.424  17.490  0.1014  0.2663  0.2367
21578W        W22442   2.209  23.168  19.596  0.2442 -0.2713 -0.1316
21579W        W22443   4.077  23.240  18.910 -0.1219 -0.0271 -0.3420
21580W        W22444  28.622  28.134  22.086 -0.0189  0.0237 -0.2692
21581W        W22445   1.182  24.805  21.261  0.0045  0.1000  0.2401
21582W        W22446  28.062  23.459  20.465 -0.2030 -0.2361  0.1203
21583W        W22447   3.971  23.097  19.699  0.0610  0.0446 -0.1302
21584W        W22448   2.763  24.841  20.267 -0.2879  0.0320  0.3439
21585W        W22449   2.861  22.933  20.756  0.3420 -0.3551  0.0624
21586W        W22450   2.951  22.901  17.065  0.1512  0.1876 -0.1391
21587W        W22451   3.378  20.639  20.081 -0.1119  0.1437  0.1712
21588W        W22452  28.174  22.939  18.981 -0.1377  0.0475 -0.1432
21589W        W22453   2.578  24.485  21.656  0.2309 -0.2121 -0.1403
21590W        W22454   2.690  22.143  17.599  0.1868  0.3089 -0.1715
21591W        W22455   0.529  22.805  16.810 -0.1579 -0.2314  0.5921
21592W        W22456   1.406  26.359  21.505 -0.1396  0.1923 -0.0993
21593W        W22457  28.897  23.216  18.121 -0.1504  0.2983  0.1091
21594W        W22458   1.755  25.356  15.742 -0.1464  0.0660 -0.1869
21595W        W22459   1.836  23.557  19.512 -0.1725 -0.0444 -0.1854
21596W        W22460  28.973  27.545  21.310 -0.2057  0.1065  0.0885
21597W        W22461   2.299  21.625  23.049 -0.3954 -0.1190 -0.2391
21598W        W22462   3.389  22.563  19.082 -0.2587 -0.0052 -0.2229
21599W        W22463   1.784  22.337  17.291 -0.1482 -0.4827 -0.3266
21600W        W22464   2.067  23.235  20.094 -0.0407 -0.2207  0.1840
21601W        W22465  29.037  22.847  20.528 -0.5809  0.1730 -0.0664
21602W        W22466   2.756  22.815  20.237  0.2593 -0.0138 -0.2720
21603W        W22467   3.657  24.225  19.098  0.2653 -0.0777 -0.2037
21604W        W22468  28.734  22.836  18.964  0.3046 -0.0708  0.1995
21605W        W22469   3.353  22.606  22.348  0.1350  0.0737  0.1770
21606W        W22470   2.715  24.578  18.904  0.0451  0.1862  0.0538
21607W        W22471  27.893  20.753  18.853  0.1054  0.0611 -0.0213
21608W        W22472   3.276  20.492  24.592 -0.2984  0.1202 -0.1910
21609W        W22473   1.436  23.437  18.253 -0.1064  0.1141 -0.0373
21610W        W22474   0.487  26.535  25.036  0.0639  0.3335 -0.0409
21611W        W22475  29.073  23.679  19.844  0.2925 -0.1896 -0.1769
21612W        W22476   3.458  23.976  19.526  0.1253  0.0583 -0.0496
21613W        W22477  28.817  24.370  19.500  0.1017 -0.0781  0.0888
21614W        W22478   1.401  25.341  20.617  0.2237  0.1566 -0.1117
21615W        W22479   0.550  24.297  18.603 -0.1624  0.1178  0.0466
21616W        W22480   4.657  21.958  21.588 -0.1667  0.1724  0.2285
21617W        W22481   5.428  21.868  20.306  0.1918  0.1429  0.0536
21618W        W22482   6.082  24.088  21.638 -0.1111  0.3257  0.3372
21619W        W22483   2.229  22.527  18.082  0.1568  0.0895 -0.3850
21620W        W22484   4.677  22.855  20.463  0.3481  0.3334 -0.2027
21621W        W22485   2.381  24.677  18.448 -0.0506 -0.1193 -0.0249
21622W        W22486   2.139  25.500  22.847  0.0452 -0.1050 -0.0037
21623W        W22487   1.850  26.872  21.697  0.3504 -0.0233 -0.2907
21624W        W22488   5.263  21.725  19.830 -0.3543 -0.0633 -0.1340
21625W        W22489   4.580  20.966  19.328  0.0025 -0.0757 -0.2200
21626W        W22490   2.472  25.538  21.834 -0.0209  0.0915  0.0600
21627W        W22491   2.410  21.942  17.948  0.1909 -0.1631 -0.1739
21628W        W22492   3.569  25.647  19.558 -0.1233  0.0668 -0.1331
21629W        W22493   3.557  20.536  22.098  0.4657 -0.2569 -0.0027
21630W        W22494   3.249  23.794  19.127 -0.1171  0.0972 -0.0790
21631W        W22495   4.607  20.933  21.968 -0.1137 -0.1717 -0.1267
21632W        W22496   0.287  27.105  18.790 -0.2065 -0.0820  0.3881
21633W        W22497   4.159  25.607  19.655  0.0393 -0.2195  0.2022
21634W        W22498   2.695  22.970  22.588 -0.0776  0.0505 -0.0733
21635W        W22499   2.804  21.055  22.389  0.1582 -0.0608  0.2015
21636W        W22500  28.264  25.575  18.508 -0.1273 -0.3592  0.2090
21637W        W22501   0.688  22.944  18.864  0.0120 -0.4066 -0.2065
21638W        W22502   3.020  24.584  21.415  0.1487 -0.0656 -0.1127
21639W        W22503   0.282  26.635  20.055  0.1036 -0.3467  0.0093
21640W        W22504   5.273  21.537  22.221  0.2781  0.3450 -0.0359
21641W        W22505   3.069  22.519  21.013  0.4567 -0.1205 -0.1415
21642W        W22506   4.342  25.484  18.272  0.1408  0.0976 -0.2906
21643W        W22507   4.691  28.210  19.799  0.2452  0.1827  0.1380
21644W        W22508  28.677  23.015  17.707  0.0525 -0.1065 -0.3674
21645W        W22509   1.742  24.744  22.844  0.2285 -0.0663 -0.0414
21646W        W22510   0.207  23.222  19.073  0.0936 -0.0128 -0.2304
21647W        W22511   2.671  23.714  20.107  0.0456 -0.0814 -0.1120
21648W        W22512   2.517  23.312  17.588 -0.2731  0.1643 -0.0616
21649W        W22513   1.246  22.202  18.852  0.1253 -0.1002 -0.2930
21650W        W22514   6.413  24.260  20.436 -0.2198  0.2951 -0.1892
21651W        W22515  27.885  25.717  19.870 -0.0397  0.1397 -0.0089
21652W        W22516   0.559  27.134  16.934 -0.2021  0.2953 -0.2790
21653W        W22517   1.341  23.158  20.186  0.3852  0.1758 -0.1594
21654W        W22518  28.193  23.723  20.025  0.1461 -0.3370 -0.2060
21655W        W22519   1.835  26.232  21.311  0.1558  0.2152 -0.0401
21656W        W22520   2.345  26.231  24.093  0.0229 -0.3081 -0.0684
21657W        W22521   4.199  24.315  18.259 -0.2793  0.2619  0.1063
21658W        W22522  29.124  24.035  18.488 -0.0449  0.1742  0.0001
21659W        W22523   3.266  24.089  20.002  0.2689 -0.3355 -0.0181
21660W        W22524   5.392  23.409  17.911 -0.1422 -0.0255  0.0567
21661W        W22525   1.016  20.918  21.149 -0.1558 -0.3425 -0.0950
21662W        W22526   2.011  25.310  21.728 -0.1973 -0.0352  0.0938
21663W        W22527   2.960  24.426  19.561 -0.2188 -0.1852 -0.1627
21664W        W22528   1.477  23.502  20.739 -0.1066  0.0502  0.0287
21665W        W22529   6.225  22.718  21.642  0.0174 -0.2481  0.1210
21666W        W22530   3.193  23.644  19.907  0.2437 -0.1530  0.0130
21667W        W22531   2.385  23.356  21.851 -0.0714 -0.3648 -0.1120
21668W        W22532   0.539  26.922  20.465  0.3799  0.2138 -0.2332
21669W        W22533   1.135  27.176  22.556  0.5390  0.1676 -0.0119
21670W        W22534  28.080  25.400  18.027 -0.1930  0.0558 -0.1966
21671W        W22535   5.756  24.589  18.613 -0.0507  0.2341  0.1527
21672W        W22536   2.391  23.796  21.017  0.4343  0.0516 -0.0856
21673W        W22537   3.450  24.495  19.471 -0.1977 -0.4366  0.1663
21674W        W22538  29.063  24.225  19.907 -0.2742 -0.2473 -0.0239
21675W        W22539   4.437  22.331  19.301 -0.1126 -0.2150 -0.0774
21676W        W22540   3.702  22.849  21.377 -0.1553  0.2906 -0.1026
21677W        W22541   2.639  23.873  20.565 -0.0999 -0.0126 -0.1069
21678W        W22542   3.143  26.627  19.491  0.0461  0.0941  0.1200
21679W        W22543   4.344  21.267  22.229  0.1456 -0.2246  0.5024
21680W        W22544   1.289  24.048  21.718  0.2340  0.2513  0.0012
21681W        W22545   1.408  22.428  19.273 -0.1134  0.1579 -0.0144
21682W        W22546   3.010  20.522  15.550 -0.0310 -0.3331  0.0295
21683W        W22547   1.973  25.230  19.898  0.3343  0.1494  0.0020
21684W        W22548   1.963  24.291  22.853 -0.1397 -0.2605 -0.1117
21685W        W22549   5.024  24.827  18.200 -0.1413 -0.0587 -0.0371
21686W        W22550   3.717  22.034  20.845  0.0117 -0.1657  0.1237
21687W        W22551   2.853  24.646  23.305  0.3070 -0.1211 -0.4044
21688W        W22552   3.106  25.192  21.213 -0.1612 -0.0447  0.0354
21689W        W22553   2.111  25.584  22.260 -0.1978  0.0345  0.1592
21690W        W22554   2.724  23.625  23.824  0.1238 -0.2988  0.0932
21691W        W22555   0.856  22.229  23.061 -0.0603  0.0356 -0.3927
21692W        W22556   5.591  23.124  17.517  0.0567 -0.0880 -0.3205
21693W        W22557   5.068  23.280  19.450  0.0253  0.1566  0.0969
21694W        W22558   1.539  21.791  20.135  0.2697  0.1086  0.1001
21695W        W22559   3.688  22.023  18.354  0.1315  0.0766 -0.0024
21696W        W22560   1.147  21.513  20.949 -0.0681  0.2127 -0.1523
21697W        W22561   1.785  20.853  19.233  0.1894 -0.1764 -0.1869
21698W        W22562  27.850  26.774  20.232 -0.0099 -0.0110  0.1021
21699W        W22563   3.336  23.558  18.383  0.4579 -0.2578  0.2414
21700W        W22564   2.362  22.890  19.143 -0.2874  0.3461 -0.2241
21701W        W22565   2.230  24.285  21.215  0.0426  0.1935  0.0244
21702W        W22566   3.640  22.536  20.971  0.1020  0.0252 -0.0433
21703W        W22567   0.541  25.337  18.567 -0.2166  0.2326  0.0513
21704W        W22568  29.078  23.114  20.085 -0.0424 -0.0658 -0.0173
21705W        W22569   2.472  22.080  22.088  0.0453 -0.0514  0.1693
21706W        W22570  29.031  24.853  20.212  0.1141  0.1123  0.2838
21707W        W22571   3.315  23.045  20.468  0.3280 -0.0581  0.2525
21708W        W22572   2.788  27.216  21.291 -0.1602  0.1068  0.0070
21709W        W22573   0.651  27.248  22.817 -0.0814 -0.1841  0.0508
21710W        W22574   2.988  26.758  21.235  0.0702 -0.2556  0.1454
21711W        W22575   1.933  22.251  16.442 -0.0812 -0.2784  0.0088
21712W        W22576   3.133  22.850  21.411  0.3053 -0.0403 -0.0985
21713W        W22577   2.083  21.793  20.678 -0.0964 -0.0689 -0.0798
21714W        W22578   3.799  24.263  19.833 -0.0691  0.0349  0.1731
21715W        W22579   1.650  23.669  21.654 -0.2708 -0.6431 -0.0912
21716W        W22580   3.744  23.750  19.898 -0.2798 -0.0648  0.2382
21717W        W22581   2.333  26.755  20.428 -0.1030 -0.0612  0.0510
21718W        W22582   1.551  25.662  20.200 -0.2049  0.0846  0.1698
21719W        W22583   1.995  25.039  20.698  0.1087  0.0118 -0.0769
21720W        W22584   0.847  21.907  18.731 -0.1454  0.2965 -0.2601
21721W        W22585   4.636  22.366  18.510  0.2084 -0.3342 -0.1944
21722W        W22586   1.694  24.052  17.917  0.4021  0.5004 -0.0107
21723W        W22587   0.984  22.828  19.719  0.5116 -0.1016  0.0190
21724W        W22588   0.659  26.351  21.877  0.1909 -0.1451  0.0626
21725W        W22589   0.041  23.420  16.561  0.2065 -0.0588  0.1760
21726W        W22590  29.105  23.209  23.235 -0.1418 -0.0297  0.2252
21727W        W22591   5.014  20.677  20.676 -0.1712  0.0800 -0.2231
21728W        W22592   0.510  22.431  20.549 -0.0945 -0.3382 -0.0956
21729W        W22593   0.597  26.353  21.345  0.0372  0.0481 -0.1253
21730W        W22594   2.189  23.130  18.778  0.2459 -0.4298 -0.3920
21731W        W22595  26.822  24.993  19.537  0.0787  0.0663 -0.0269
21732W        W22596   3.240  22.071  20.747  0.0452 -0.2297  0.1501
21733W        W22597   1.933  23.863  17.448  0.1326  0.1209 -0.1249
21734W        W22598   5.298  22.384  20.518 -0.2613  0.0964 -0.1311
21735W        W22599   3.072  23.969  16.744 -0.0656 -0.0819 -0.0091
21736W        W22600   5.317  25.911  22.301  0.0548 -0.1377  0.1472
21737W        W22601   4.808  27.792  21.157  0.2133  0.0999  0.0506
21738W        W22602   3.115  26.300  21.513 -0.2105  0.0760 -0.0910
21739W        W22603   3.002  23.326  21.230  0.1192  0.2707  0.0288
21740W        W22604   0.425  24.431  19.448  0.2921  0.0107  0.0814
21741W        W22605   3.827  23.594  17.843  0.1240  0.0214 -0.0948
21742W        W22606   1.946  21.041  19.643 -0.1336  0.1487 -0.2067
21743W        W22607   2.165  22.581  16.983  0.0502  0.5194  0.1377
21744W        W22608   2.432  25.997  19.729 -0.1528 -0.3547 -0.1983
21745W        W22609   1.649  20.850  20.623  0.0582  0.2149 -0.0714
21746W        W22610  26.698  20.593  19.478  0.1230 -0.0605 -0.0849
21747W        W22611   0.491  26.478  17.007  0.1587 -0.0422 -0.0422
21748W        W22612   1.454  24.406  19.598 -0.1786 -0.3117  0.1913
21749W        W22613  28.577  24.548  19.056  0.1856 -0.2123  0.3763
21750W        W22614   1.229  24.200  20.451  0.0557  0.2094  0.1188
21751W        W22615   0.579  21.496  19.961 -0.2284 -0.0552 -0.2435
21752W        W22616   2.042  25.677  19.034  0.0094 -0.0999  0.0911
21753W        W22617  25.436  21.785  18.111 -0.3436  0.1175  0.1273
21754W        W22618   2.921  23.373  21.748  0.0699 -0.0866  0.1550
21755W        W22619   7.024  24.155  19.718 -0.0259 -0.0747  0.1728
21756W        W22620   2.757  23.767  19.112  0.1630 -0.1924  0.3062
21757W        W22621   3.704  24.790  17.501  0.0327  0.1236 -0.1786
21758W        W22622   1.522  25.286  19.795 -0.1560 -0.1199 -0.2700
21759W        W22623   5.615  22.015  19.659 -0.0555  0.1092  0.0907
21760W        W22624   1.012  25.427  19.470 -0.1011 -0.3156  0.4972
21761W        W22625   2.472  23.517  21.391  0.3913  0.4069 -0.4001
21762W        W22626   0.006  21.830  22.727  0.0965  0.0645  0.0941
21763W        W22627   1.752  22.229  18.968 -0.0871  0.0075 -0.0370
21764W        W22628   0.208  24.981  18.724  0.0223 -0.0965 -0.1171
21765W        W22629   2.226  24.876  19.687  0.0106  0.0446 -0.0897
21766W        W22630   3.095  25.146  20.620  0.1155 -0.1508  0.0465
21767W        W22631   1.848  20.358  18.968 -0.2490 -0.1082 -0.2257
21768W        W22632   0.120  24.712  19.767 -0.2204  0.0354 -0.0915
21769W        W22633   1.953  27.176  20.356  0.1645 -0.1660 -0.1754
21770W        W22634   5.484  22.372  19.324  0.2299 -0.2028 -0.0628
21771W        W22635   5.243  22.807  19.237  0.2251 -0.1718 -0.2224
21772W        W22636   3.205  23.494  16.424  0.3055  0.0485  0.2046
21773W        W22637   4.945  22.052  20.463 -0.2330 -0.0630 -0.1049
21774W        W22638  29.109  21.563  16.169  0.1064  0.1446  0.2312
21775W        W22639   4.172  23.438  19.380  0.0253 -0.0305 -0.0323
21776W        W22640   0.661  26.299  19.243  0.1572  0.0558  0.1893
21777W        W22641   4.570  23.915  21.945  0.1341 -0.4146 -0.0546
21778W        W22642   2.197  23.818  17.917 -0.0961  0.0373 -0.0461
21779W        W22643   5.537  23.032  22.224  0.4807  0.1029  0.2218
21780W        W22644   1.427  23.797  18.759 -0.0145  0.1214  0.0156
21781W        W22645   4.030  26.186  21.343 -0.1462  0.0458  0.0314
21782W        W22646   2.934  21.732  20.924  0.0754  0.3218 -0.0504
21783W        W22647   3.474  22.264  19.524 -0.2424 -0.2020  0.0297
21784W        W22648   0.874  23.955  18.801 -0.2040  0.1427 -0.0216
21785W        W22649   2.261  24.212  18.936  0.0118  0.1141  0.0816
21786W        W22650   2.808  25.018  17.694 -0.1328 -0.1898  0.0307
21787W        W22651   2.317  25.132  21.294  0.0912  0.0599 -0.1849
21788W        W22652   2.755  24.505  17.016 -0.1279  0.1738  0.0020
21789W        W22653   4.945  22.397  19.401  0.0349  0.0334 -0.0292
21790W        W22654   2.254  27.630  20.570  0.1288  0.0487 -0.0336
21791W        W22655   0.912  24.623  20.420 -0.0160 -0.0685  0.1120
21792W        W22656   3.583  23.323  20.010 -0.1826 -0.0864  0.0126
21793W        W22657   0.542  24.635  22.339 -0.1265  0.0385  0.3656
21794W        W22658   1.048  27.056  20.279  0.0528  0.0833  0.0231
21795W        W22659   0.824  23.648  19.903  0.0264  0.1674  0.2838
21796W        W22660   1.435  25.621  21.030 -0.0208 -0.1971  0.0182
21797W        W22661  28.360  25.343  21.160 -0.2832 -0.3027 -0.0554
21798W        W22662   1.055  20.378  19.538  0.3497 -0.0987  0.0935
21799W        W22663   1.130  26.224  22.103 -0.0750 -0.0102  0.2189
21800W        W22664   2.263  24.713  22.633  0.1730  0.1617 -0.1088
21801W        W22665  28.363  24.174  18.758  0.3745 -0.1808  0.3231
21802W        W22666   1.235  20.670  19.149  0.0123 -0.0834 -0.0691
21803W        W22667  26.954  25.249  23.751  0.1351 -0.1011 -0.0758
21804W        W22668  27.415  23.851  24.470 -0.1398 -0.0582 -0.0960
21805W        W22669   3.526  26.619  21.389  0.0112 -0.2578  0.0812
21806W        W22670   2.502  25.083  24.958  0.1890 -0.0624 -0.1013
21807W        W22671   2.173  24.139  20.658 -0.1436  0.0557  0.0882
21808W        W22672   1.234  23.410  21.976 -0.2256 -0.3683  0.1901
21809W        W22673  29.106  23.192  23.772 -0.1938  0.2838  0.0989
21810W        W22674   0.613  24.058  22.420 -0.0116  0.3240  0.4817
21811W        W22675   0.836  24.157  24.313 -0.3931 -0.1009 -0.1768
21812W        W22676   0.603  21.000  23.916 -0.1845  0.1784 -0.3031
21813W        W22677   1.682  22.533  22.489  0.0868 -0.0915  0.1727
21814W        W22678   2.216  23.436  23.931 -0.0436  0.1011 -0.2517
21815W        W22679   2.324  23.958  21.632 -0.0469  0.0567 -0.3726
21816W        W22680   3.578  22.210  25.831 -0.0170 -0.3159 -0.2194
21817W        W22681   0.182  23.380  22.763  0.2551  0.2171  0.0587
21818W        W22682  28.843  24.522  24.978  0.0184  0.0502 -0.0127
21819W        W22683   1.811  21.831  24.145 -0.0998 -0.1689  0.1607
21820W        W22684  28.275  24.190  23.509 -0.1664 -0.2723 -0.3222
21821W        W22685   1.468  24.020  25.088  0.0157  0.0269 -0.0850
21822W        W22686   2.958  22.325  22.283 -0.1901  0.1805  0.0641
21823W        W22687   3.373  24.140  22.667  0.2598 -0.2230  0.1741
21824W        W22688   1.940  24.776  21.132 -0.0481  0.1423  0.0904
21825W        W22689   2.095  24.274  24.781  0.3827 -0.2461  0.1305
21826W        W22690  28.896  21.766  23.215 -0.4460  0.1387 -0.2254
21827W        W22691  27.888  23.954  23.298 -0.0270  0.1122  0.0637
21828W        W22692   1.434  20.433  25.293  0.1244  0.1072  0.1079
21829W        W22693   3.078  21.907  24.489 -0.2149  0.0658  0.0949
21830W        W22694  27.351  23.038  25.427  0.0076  0.1493  0.4228
21831W        W22695   2.942  25.450  24.954 -0.0794 -0.1681  0.3554
21832W        W22696   0.468  20.573  22.149 -0.0456 -0.2381  0.0393
21833W        W22697   0.219  24.413  21.063 -0.3122  0.2645 -0.0734
21834W        W22698   2.378  24.423  23.782 -0.2401  0.1218  0.0271
21835W        W22699  29.094  21.875  25.451  0.2275  0.2063 -0.0289
21836W        W22700   2.389  23.461  23.495 -0.0372  0.0689 -0.1741
21837W        W22701   1.297  23.022  23.743 -0.1609  0.0653 -0.1179
21838W        W22702   4.596  25.371  25.414 -0.1010  0.0807 -0.0466
21839W        W22703   2.139  22.860  21.884 -0.2909 -0.0011  0.3280
21840W        W22704   0.254  24.440  23.117 -0.0241  0.2435 -0.0560
21841W        W22705   3.197  26.453  23.059 -0.1119  0.1541  0.0375
21842W        W22706   3.815  22.633  22.951  0.2738 -0.0851 -0.1138
21843W        W22707   2.585  23.731  22.122  0.0505 -0.1309  0.0093
21844W        W22708   2.801  24.787  26.810  0.0942 -0.0901 -0.0074
21845W        W22709   4.507  24.587  27.216 -0.1457 -0.2654  0.1033
21846W        W22710   2.299  26.183  21.472  0.0889  0.1994  0.4008
21847W        W22711  28.368  25.705  24.263 -0.1615  0.0632 -0.3694
21848W        W22712   0.478  26.157  25.406  0.1232  0.1682 -0.2617
21849W        W22713   2.437  23.797  24.269 -0.2118 -0.0335  0.3862
21850W        W22714   3.340  24.524  24.097 -0.1541 -0.0585 -0.2858
21851W        W22715   2.140  21.990  23.413 -0.0159 -0.0427 -0.0506
21852W        W22716   2.216  25.990  22.593 -0.3152  0.0200  0.0790
21853W        W22717   1.556  24.408  24.751 -0.1952  0.1597 -0.0027
21854W        W22718   1.197  25.069  22.274  0.2517 -0.0767 -0.0154
21855W        W22719   3.657  27.551  24.769  0.1865 -0.0405 -0.1890
21856W        W22720   2.464  25.946  22.089  0.1578 -0.2304 -0.2228
21857W        W22721   3.569  21.164  21.299 -0.0501 -0.0189  0.1705
21858W        W22722   0.799  25.870  19.671 -0.1151  0.2519 -0.1864
21859W        W22723  28.807  23.741  21.723 -0.0741 -0.0851  0.1430
21860W        W22724   5.012  23.089  22.339  0.0111 -0.1367 -0.2019
21861W        W22725  28.329  24.960  21.547  0.1386  0.1938 -0.0683
21862W        W22726   0.680  24.866  21.499 -0.0603 -0.0993 -0.3208
21863W        W22727   4.395  22.341  20.388 -0.1093 -0.0001  0.1134
21864W        W22728   3.068  24.206  23.432  0.4272  0.0944  0.3597
21865W        W22729   1.718  23.788  23.106 -0.1614  0.3585  0.0336
21866W        W22730  28.893  23.214  21.453 -0.1863 -0.1838 -0.1900
21867W        W22731  29.121  23.589  24.099  0.0525 -0.3505 -0.2887
21868W        W22732   4.836  23.664  24.574  0.1298  0.0166 -0.0986
21869W        W22733   2.381  22.685  18.614  0.0270 -0.3796  0.2871
21870W        W22734  28.347  21.462  22.582 -0.2186 -0.1883 -0.1601
21871W        W22735   1.135  24.866  21.715  0.0457 -0.1792 -0.0231
21872W        W22736   1.136  24.345  21.373  0.1416  0.2441  0.1644
21873W        W22737   2.446  25.176  24.273 -0.0257 -0.1050  0.0723
21874W        W22738   5.180  21.933  21.395 -0.2154  0.0754  0.4249
21875W        W22739   4.107  25.347  21.949  0.1768 -0.2642 -0.0866
21876W        W22740   2.279  25.149  27.214  0.0312  0.0483 -0.2251
21877W        W22741   2.224  27.208  21.200  0.0648 -0.3565  0.2177
21878W        W22742   0.834  25.070  25.733 -0.0917 -0.2888 -0.0035
21879W        W22743   0.510  22.468  22.755  0.0912  0.1689 -0.1493
21880W        W22744   0.483  24.062  22.867  0.4414  0.1999  0.0353
21881W        W22745   2.655  21.232  23.194 -0.1628 -0.1219 -0.1231
21882W        W22746   0.756  26.130  20.188 -0.0954 -0.1079  0.0126
21883W        W22747   0.765  23.288  22.214 -0.1726 -0.1868  0.0450
21884W        W22748   0.532  22.810  21.687  0.0583  0.3003 -0.1852
21885W        W22749  28.499  20.310  21.027  0.0603 -0.1798  0.1858
21886W        W22750   3.155  23.179  22.406 -0.0279  0.0775  0.1678
21887W        W22751   2.530  23.539  22.750  0.1669  0.1616 -0.0222
21888W        W22752   2.210  22.700  20.415 -0.4478 -0.1063  0.1527
21889W        W22753   4.748  24.210  26.052 -0.2876 -0.0972  0.1014
21890W        W22754   2.974  21.544  25.507 -0.3528 -0.0836  0.2017
21891W        W22755   3.978  24.587  24.820  0.2978  0.0547 -0.2156
21892W        W22756   1.682  22.625  24.991 -0.1490  0.2493  0.2538
21893W        W22757   4.428  22.230  21.233 -0.2483 -0.3274 -0.0273
21894W        W22758   3.778  24.003  24.688  0.0447 -0.4568 -0.0337
21895W        W22759  28.811  24.915  24.631 -0.0916  0.2070  0.0359
21896W        W22760   0.813  21.987  22.085 -0.3581 -0.1423 -0.0115
21897W        W22761   0.508  25.136  28.009 -0.2530 -0.1087 -0.0170
21898W        W22762   3.355  22.966  20.974  0.1825 -0.0174 -0.0831
21899W        W22763   2.738  23.344  25.459  0.0125  0.0807  0.0458
21900W        W22764   0.416  24.888  23.964  0.2129 -0.3498  0.0619
21901W        W22765   2.370  19.547  23.276  0.1494 -0.2449  0.0096
21902W        W22766   5.002  22.285  24.753 -0.2492  0.0119  0.0932
21903W        W22767   3.199  26.388  22.373 -0.1130 -0.4718  0.4353
21904W        W22768  27.743  23.628  23.661 -0.0192  0.1550  0.0556
21905W        W22769   3.945  23.280  20.376  0.0090 -0.3171  0.2937
21906W        W22770   3.741  25.750  24.479  0.3916 -0.0044 -0.0161
21907W        W22771   1.552  23.480  24.481 -0.1945 -0.0577 -0.2844
21908W        W22772   4.298  23.188  23.624 -0.0239 -0.0788  0.1011
21909W        W22773   0.087  26.724  21.874  0.0898 -0.0139 -0.1424
21910W        W22774   2.325  22.441  25.775 -0.1438  0.1681 -0.2274
21911W        W22775   1.543  21.466  23.829 -0.1223  0.2824 -0.3098
21912W        W22776   2.030  23.581  24.444  0.1206 -0.2221 -0.0709
21913W        W22777   1.196  23.454  23.302 -0.0768 -0.1735  0.1080
21914W        W22778   1.501  25.806  25.379  0.0450 -0.0762  0.1847
21915W        W22779   3.763  25.879  25.067 -0.1793 -0.0313  0.1881
21916W        W22780   3.230  24.899  27.046 -0.1045 -0.0592 -0.0889
21917W        W22781   2.974  25.547  21.871 -0.3777 -0.0104 -0.1662
21918W        W22782   2.603  25.784  22.930  0.3777 -0.1826  0.0504
21919W        W22783   2.399  21.547  23.525 -0.1256 -0.2303 -0.0584
21920W        W22784   2.960  25.587  23.425  0.0775  0.1455 -0.0843
21921W        W22785   5.386  23.924  22.470 -0.1000 -0.1069  0.1285
21922W        W22786   0.038  24.842  22.218 -0.1240 -0.1310 -0.1726
21923W        W22787   3.541  21.472  23.731  0.1760 -0.2868 -0.2204
21924W        W22788   0.642  25.640  21.259 -0.2329 -0.3996 -0.2115
21925W        W22789   2.615  24.860  23.939 -0.1612  0.1790  0.3716
21926W        W22790   4.272  23.629  22.262  0.1650 -0.1095  0.1921
21927W        W22791   2.078  24.528  22.126  0.1286  0.2872 -0.1834
21928W        W22792   1.873  23.282  22.007  0.0332 -0.0454  0.2492
21929W        W22793  29.117  25.469  25.208  0.1497 -0.2486  0.0565
21930W        W22794   2.056  24.111  24.255 -0.2238  0.0955 -0.0234
21931W        W22795   3.138  24.407  22.290  0.3162 -0.0810 -0.0652
21932W        W22796  29.090  23.343  21.990 -0.0920 -0.2575  0.1334
21933W        W22797   4.304  25.100  25.000 -0.0299  0.3390 -0.1325
21934W        W22798  28.745  24.664  23.413  0.1037 -0.0550  0.1750
21935W        W22799  28.695  24.359  24.506 -0.4843 -0.0095  0.0443
21936W        W22800   2.964  20.802  23.324  0.1405  0.0775  0.2804
21937W        W22801   1.749  23.952  24.708  0.0468  0.2909  0.0515
21938W        W22802  28.066  23.480  21.900  0.0853  0.0660 -0.2120
21939W        W22803   2.975  22.137  23.337 -0.2758 -0.2120  0.0126
21940W        W22804   6.276  24.438  25.849  0.2912  0.0829 -0.1179
21941W        W22805   2.101  24.878  23.908 -0.1314 -0.0776 -0.0564
21942W        W22806   2.458  25.310  23.640  0.0340  0.0596  0.1199
21943W        W22807  28.628  21.423  20.615  0.2863  0.1081 -0.0494
21944W        W22808   5.537  23.663  23.168 -0.1156  0.0886  0.1338
21945W        W22809  28.998  27.479  20.753 -0.1658 -0.0213 -0.2770
21946W        W22810   4.984  23.178  21.782  0.0827 -0.2157  0.1237
21947W        W22811   1.278  24.400  23.555 -0.4658  0.1340  0.3505
21948W        W22812   0.552  23.234  23.134 -0.1389 -0.0108  0.2266
21949W        W22813   3.810  21.068  24.028 -0.3483  0.1814  0.0642
21950W        W22814   1.668  25.155  22.478 -0.4024 -0.0762  0.1525
21951W        W22815   2.033  26.572  23.902 -0.2352 -0.0936  0.0671
21952W        W22816   0.799  25.061  22.559 -0.1036 -0.3020  0.1715
21953W        W22817   1.182  24.693  23.162  0.2720  0.0881  0.1207
21954W        W22818   1.824  23.875  20.322 -0.5416  0.3650 -0.0171
21955W        W22819  28.218  22.253  23.334  0.0744  0.2039 -0.0456
21956W        W22820   1.160  22.038  21.118 -0.0622 -0.0858  0.3044
21957W        W22821   3.508  21.374  21.762 -0.1577 -0.1116  0.1560
21958W        W22822   2.273  22.700  23.870  0.1636  0.0540 -0.1353
21959W        W22823  28.539  25.698  23.225 -0.0714 -0.2611  0.0774
21960W        W22824   1.610  26.172  20.280  0.2697  0.0012  0.1693
21961W        W22825   2.923  22.134  22.814 -0.0705  0.0481  0.2413
21962W        W22826   0.456  24.331  26.441 -0.1424  0.1773  0.0371
21963W        W22827   2.687  21.584  24.584  0.1028 -0.0649 -0.2360
21964W        W22828   3.157  23.337  23.320 -0.0090 -0.0114  0.1290
21965W        W22829   1.944  23.986  25.188 -0.0300 -0.1871 -0.2358
21966W        W22830   5.812  25.271  24.612  0.0917  0.0479  0.0591
21967W        W22831   2.748  22.577  23.798 -0.5056 -0.0287 -0.0280
21968W        W22832   2.488  22.159  23.081  0.0019  0.0045  0.0144
21969W        W22833   3.371  23.453  22.012  0.0705  0.1054 -0.2363
21970W        W22834   0.203  24.547  24.434 -0.1639  0.0394  0.2250
21971W        W22835   1.544  25.015  24.619  0.0204 -0.2240 -0.0244
21972W        W22836   3.333  23.968  22.116  0.1874  0.0442  0.0470
21973W        W22837   3.952  24.791  25.884  0.1436  0.0236 -0.3810
21974W        W22838   3.148  24.624  22.863  0.0712  0.0250 -0.4657
21975W        W22839   2.668  22.479  24.637  0.1908 -0.0026  0.3932
21976W        W22840   5.077  24.245  23.375 -0.0523 -0.2138  0.3184
21977W        W22841   2.176  22.536  24.341 -0.0517 -0.0161 -0.1008
21978W        W22842   5.154  23.868  22.032  0.1266 -0.1103 -0.2866
21979W        W22843   2.368  26.278  25.723 -0.0353  0.1014  0.0128
21980W        W22844   1.449  24.728  25.138  0.0684  0.0790 -0.0453
21981W        W22845   0.372  25.887  21.648 -0.1713 -0.0321  0.1080
21982W        W22846   2.810  21.714  23.138  0.3381  0.1800  0.0163
21983W        W22847   1.595  23.444  21.218  0.1016 -0.1341 -0.0395
21984W        W22848   3.007  26.723  24.004  0.1346  0.0318 -0.1332
21985W        W22849   3.403  25.919  21.867 -0.0074  0.2134 -0.0342
21986W        W22850   0.962  24.416  21.873  0.1511  0.2044  0.0399
21987W        W22851  28.258  23.499  22.817 -0.1565  0.0768  0.2936
21988W        W22852   2.745  25.141  27.463  0.0343  0.0669  0.1321
21989W        W22853   1.314  19.686  23.447 -0.0059  0.0825  0.1412
21990W        W22854   1.494  23.147  21.663 -0.0662  0.0429 -0.0231
21991W        W22855   1.927  22.705  23.505  0.0476 -0.0757 -0.0124
21992W        W22856   0.832  23.975  24.783  0.0538 -0.2023 -0.1992
21993W        W22857   1.317  23.989  20.052 -0.1095 -0.0179  0.4268
21994W        W22858   1.744  24.333  20.171 -0.4292 -0.1894  0.0939
21995W        W22859   3.837  23.355  25.487  0.1257 -0.2385 -0.0286
21996W        W22860   3.415  25.375  25.216  0.2566 -0.0127 -0.0049
21997W        W22861   1.918  20.648  23.001  0.0724 -0.1645 -0.0343
21998W        W22862   1.036  22.493  21.343 -0.1250  0.2685 -0.2201
21999W        W22863   3.885  21.505  22.084 -0.0652  0.2427 -0.0624
22000W        W22864   0.125  20.621  23.252  0.0578  0.0434 -0.0939
22001W        W22865   1.248  21.966  23.235 -0.2578 -0.1674  0.1546
22002W        W22866   4.272  22.402  24.151 -0.1092 -0.2481  0.0216
22003W        W22867  28.444  23.940  22.586 -0.0260 -0.2677 -0.0574
22004W        W22868   2.691  24.158  24.103  0.1028  0.2920  0.1222
22005W        W22869   3.392  24.483  21.745 -0.3054 -0.0081 -0.1353
22006W        W22870   0.659  20.714  23.066 -0.0277 -0.0747 -0.0091
22007W        W22871   1.212  23.921  23.934  0.1506  0.0251 -0.0641
22008W        W22872   2.250  23.504  19.244 -0.0168  0.0797  0.0395
22009W        W22873   0.593  24.403  25.539 -0.2158 -0.0517  0.1262
22010W        W22874   2.105  22.804  22.421  0.1232 -0.0216  0.0388
22011W        W22875   2.028  25.891  21.854  0.1557  0.1389  0.3261
22012W        W22876   2.142  23.487  23.060  0.1779  0.0173  0.0437
22013W        W22877   1.139  23.751  25.309  0.0958 -0.1894  0.2240
22014W        W22878   1.622  23.155  23.442 -0.1824 -0.1234  0.3804
22015W        W22879   1.210  25.797  22.370  0.0389  0.1826  0.1597
22016W        W22880   2.865  21.898  26.181  0.1030 -0.0024  0.1003
22017W        W22881   4.285  25.171  26.073  0.0048 -0.0617  0.0192
22018W        W22882   2.426  24.848  23.460 -0.0305 -0.1506 -0.0052
22019W        W22883   1.430  24.187  22.739  0.2839 -0.1189 -0.1730
22020W        W22884   3.597  26.778  22.223 -0.0762  0.0088  0.2446
22021W        W22885   3.759  24.310  25.209  0.1050  0.0322 -0.0335
22022W        W22886   3.072  25.743  25.329 -0.1554  0.2378 -0.1025
22023W        W22887   5.840  23.371  25.769 -0.2325  0.3930 -0.2504
22024W        W22888   3.479  22.011  23.619  0.0323 -0.3033  0.1145
22025W        W22889   2.251  25.693  25.838  0.1828 -0.1285  0.1260
22026W        W22890   2.712  21.863  24.168 -0.0789 -0.0806 -0.1569
22027W        W22891   2.988  24.677  21.889  0.0307 -0.0387 -0.0358
22028W        W22892   0.769  22.706  23.157 -0.2880 -0.1943 -0.1998
22029W        W22893   2.214  21.513  24.472 -0.0599 -0.0679  0.2208
22030W        W22894   2.060  21.803  25.431  0.0784  0.0090 -0.1826
22031W        W22895   3.015  26.943  22.152  0.1823  0.0962 -0.1131
22032W        W22896   3.965  23.966  21.170  0.2233  0.0205  0.2614
22033W        W22897   0.845  19.921  23.214  0.2934  0.0816 -0.1181
22034W        W22898   0.472  23.318  23.990  0.1882 -0.0205 -0.0390
22035W        W22899  27.690  22.568  23.578  0.0295  0.0532  0.0869
22036W        W22900   5.520  22.088  24.836  0.1767  0.0699 -0.0791
22037W        W22901   0.583  21.582  23.660 -0.1404 -0.2430 -0.4028
22038W        W22902   1.294  23.943  23.390  0.2154 -0.0145 -0.1004
22039W        W22903   2.284  23.317  22.344 -0.1786  0.1449  0.4482
22040W        W22904   2.465  20.104  24.894  0.0886  0.3376 -0.1056
22041W        W22905   3.622  24.840  21.977  0.1370  0.1518  0.2096
22042W        W22906   2.455  27.252  24.314 -0.0394 -0.4491 -0.0665
22043W        W22907   1.030  24.611  22.418 -0.0022 -0.5188 -0.2074
22044W        W22908   1.494  25.602   1.266 -0.1963  0.0310 -0.2591
22045W        W22909   3.858  22.312  21.817  0.1692 -0.0416  0.0675
22046W        W22910   2.965  24.808  20.946  0.3655  0.1534 -0.1304
22047W        W22911   4.948  23.211  24.437  0.2620  0.0170  0.0382
22048W        W22912   3.392  23.425  20.774 -0.0675 -0.1819  0.1929
22049W        W22913   3.450  22.954  23.186  0.0478  0.1220 -0.2110
22050W        W22914   0.250  22.791  25.004  0.3192  0.3155  0.3185
22051W        W22915   3.827  26.976  20.702  0.0981 -0.1625  0.0767
22052W        W22916   0.566  24.324  21.468  0.1534  0.1298 -0.0508
22053W        W22917  29.096  24.682  21.730 -0.1062  0.1268 -0.1402
22054W        W22918  27.471  24.113  23.594  0.0047  0.0037  0.0856
22055W        W22919   4.406  27.272  26.541  0.0567 -0.2198 -0.1437
22056W        W22920   1.186  23.811  21.254 -0.0639 -0.1457 -0.2653
22057W        W22921   2.587  25.084  18.924 -0.0628 -0.2154  0.0383
22058W        W22922   3.173  25.575  22.473 -0.0047 -0.0003  0.0737
22059W        W22923   3.814  23.494  21.628 -0.2388 -0.1191  0.1366
22060W        W22924   0.124  21.470  27.963 -0.1211  0.0536  0.1998
22061W        W22925   1.949  27.048  23.159 -0.2775 -0.4996 -0.1122
22062W        W22926   0.826  22.681  23.689 -0.0244  0.1849  0.2389
22063W        W22927   2.927  23.751  24.404 -0.1528  0.5089  0.1139
22064W        W22928   4.345  22.819  24.922  0.2310 -0.1386  0.3463
22065W        W22929   2.922  24.712  24.410 -0.2983  0.1032  0.0362
22066W        W22930   2.729  23.294  24.187  0.0750  0.1949  0.1345
22067W        W22931  28.002  27.675  23.902 -0.0390  0.0325 -0.1463
22068W        W22932   0.716  24.648  26.005  0.1944 -0.0060 -0.0227
22069W        W22933   3.713  25.862  23.785  0.2386  0.3376  0.3810
22070W        W22934   4.078  23.033  21.751  0.1114  0.0792 -0.1051
22071W        W22935  28.899  23.837  22.166  0.0120  0.0695  0.0298
22072W        W22936   6.318  21.599  20.898 -0.0995  0.0784 -0.1026
22073W        W22937  28.402  22.246  24.001  0.2170 -0.0894 -0.1249
22074W        W22938   3.515  23.075  23.687 -0.1042  0.1227 -0.1833
22075W        W22939  28.988  23.637  24.994  0.2305 -0.1500 -0.0261
22076W        W22940   2.415  22.874  24.762  0.1387  0.0616 -0.1117
22077W        W22941   3.614  26.137  23.000 -0.3155 -0.0089 -0.2094
22078W        W22942   3.879  22.730  26.228  0.0514  0.0984  0.2428
22079W        W22943   2.478  23.396  24.583 -0.0739 -0.1389  0.2217
22080W        W22944   1.010  21.163  24.873  0.0877 -0.0515  0.0367
22081W        W22945   0.923  22.337  22.397  0.1116  0.3480  0.0040
22082W        W22946   2.717  25.589  25.742  0.1263  0.0202 -0.1187
22083W        W22947   3.149  22.859  24.039  0.2554 -0.1977  0.2282
22084W        W22948   1.618  25.000  21.990 -0.0003 -0.0536  0.1289
22085W        W22949  28.497  22.996  22.644  0.3323  0.0992  0.0658
22086W        W22950  29.049  23.726  26.101 -0.3131  0.1407 -0.2768
22087W        W22951   3.428  23.219  21.536  0.0761  0.0091 -0.0229
22088W        W22952   1.083  25.452  26.530  0.2394 -0.0814 -0.2912
22089W        W22953   2.908  24.337  24.897  0.1259  0.1924  0.1351
22090W        W22954  27.572  23.422  25.072  0.0407  0.3451  0.0391
22091W        W22955   4.164  20.681  23.908 -0.2664  0.0796 -0.3427
22092W        W22956   2.518  21.567  22.038 -0.1224 -0.0410 -0.2840
22093W        W22957   3.018  22.796  23.399  0.0836  0.1761  0.1992
22094W        W22958   4.508  22.781  23.088  0.1257 -0.0503  0.1336
22095W        W22959   3.477  22.144  22.492 -0.0991  0.0069  0.2538
22096W        W22960  25.905  23.757  25.531 -0.0852 -0.1954  0.0662
22097W        W22961   0.280  25.573  22.682  0.0392  0.1635  0.1522
22098W        W22962   1.550  23.709  22.198 -0.1875 -0.0241 -0.3200
22099W        W22963   2.030  21.084  24.245 -0.0404  0.0328  0.0441
22100W        W22964   2.754  25.999  21.581  0.0081 -0.1200  0.2756
22101W        W22965   3.077  20.987  25.301  0.1838 -0.0579  0.2572
22102W        W22966   3.852  23.514  23.433  0.2222 -0.0508  0.1595
22103W        W22967   2.712  27.490  19.311  0.2357 -0.1253 -0.3294
22104W        W22968  28.888  22.144  23.941  0.2245  0.2402 -0.1860
22105W        W22969   2.526  25.296  23.147 -0.1383 -0.0760  0.2784
22106W        W22970   2.401  24.935  21.744  0.0760  0.0188  0.0552
22107W        W22971   4.365  23.926  22.842  0.0094  0.1200 -0.0329
22108W        W22972   1.945  24.820  24.824  0.0432  0.3782  0.1148
22109W        W22973   7.281  25.859  25.510  0.3123 -0.2138  0.1000
22110W        W22974   2.372  21.052  22.040  0.0126  0.4312 -0.0228
22111W        W22975   3.728  24.063  25.790  0.1941 -0.1873 -0.4535
22112W        W22976  28.870  23.392  22.572  0.0262 -0.1432  0.3172
22113W        W22977   0.387  23.461  23.523  0.0969  0.3860  0.0345
22114W        W22978  27.421  25.068  23.588  0.4309  0.4896 -0.2599
22115W        W22979   4.973  23.578  22.699  0.0488 -0.2817 -0.0132
22116W        W22980   2.534  26.421  26.182  0.3704  0.0660 -0.3264
22117W        W22981  28.073  24.769  25.630 -0.2648 -0.1294 -0.1174
22118W        W22982   2.671  24.857  22.896  0.0661  0.1447 -0.1722
22119W        W22983   4.520  23.105  19.677 -0.0294 -0.0339  0.2502
22120W        W22984   2.714  24.152  21.257  0.1437  0.1049  0.2018
22121W        W22985   2.172  26.633  24.558  0.0791  0.1204  0.0799
22122W        W22986   1.745  23.768  24.070 -0.1130 -0.0244  0.0915
22123W        W22987   1.697  25.503  25.749 -0.0878 -0.0266 -0.1519
22124W        W22988   3.389  25.500  20.324 -0.0181 -0.0765 -0.0380
22125W        W22989   0.148  24.486  22.597  0.1590  0.0683  0.0794
22126W        W22990   3.640  21.923  21.949 -0.1129  0.0206  0.0077
22127W        W22991   0.171  24.724  23.538 -0.2091  0.0906 -0.0721
22128W        W22992   2.224  26.796  25.499  0.0214 -0.0048  0.1300
22129W        W22993   0.253  23.639  22.279 -0.1249 -0.1216  0.2616
22130W        W22994   1.769  22.820  21.346  0.5569  0.0255  0.2865
22131W        W22995   4.141  23.908  20.235  0.2989  0.1930 -0.0201
22132W        W22996  28.556  23.747  25.896  0.0810 -0.1017 -0.1414
22133W        W22997   1.128  22.573  22.817  0.0713  0.0145  0.0560
22134W        W22998   3.979  21.942  22.821 -0.2376 -0.1140  0.3045
22135W        W22999   4.196  25.522  25.642 -0.1024  0.0576 -0.2586
22136W        W23000   3.947  25.015  26.896  0.0767  0.0522  0.0232
22137W        W23001   1.353  23.039  24.278 -0.0287  0.1465 -0.0322
22138W        W23002   3.647  28.331  25.487 -0.1802  0.2115 -0.0218
22139W        W23003  28.645  25.106  22.855  0.3366  0.1214  0.0988
22140W        W23004   2.204  26.192  23.594 -0.2846 -0.0387 -0.2195
22141W        W23005   2.578  24.121  23.401  0.1766 -0.1284 -0.0560
22142W        W23006   1.105  23.637  22.396  0.3373 -0.0783 -0.1853
22143W        W23007  28.096  22.919  24.658  0.2198  0.1633 -0.1037
22144W        W23008   2.243  23.956  23.825 -0.2862 -0.0567  0.0561
22145W        W23009   0.551  23.481  21.794  0.0799 -0.2451  0.1187
22146W        W23010   1.794  24.451  20.731  0.0856 -0.0294  0.0798
22147W        W23011   0.022  23.763  23.618 -0.0622 -0.2257 -0.0778
22148W        W23012   0.007  24.163  24.666 -0.1676 -0.0243 -0.2695
22149W        W23013   0.269  26.769  21.372  0.1376 -0.1045  0.6695
22150W        W23014   1.607  24.942  23.418 -0.0182 -0.1779 -0.2787
22151W        W23015   1.502  24.676  23.962 -0.0026  0.1813  0.3586
22152W        W23016   0.625  23.576  22.634  0.1537 -0.0231 -0.1151
22153W        W23017   4.292  23.621  23.225 -0.0615  0.1679  0.1750
22154W        W23018   4.043  21.389  21.421 -0.1075 -0.1670  0.0030
22155W        W23019   2.937  25.275  24.455  0.0625 -0.0218  0.0189
22156W        W23020   1.482  26.007  24.493 -0.0021 -0.1599 -0.1698
22157W        W23021   0.905  24.187  23.216 -0.2346  0.0443  0.0193
22158W        W23022   1.635  21.766  20.873  0.0715 -0.1741  0.0673
22159W        W23023   0.732  25.237  23.616  0.3482  0.0815 -0.1423
22160W        W23024   3.229  23.402  23.833 -0.2579  0.1111 -0.0604
22161W        W23025   2.273  21.853  23.965 -0.0663 -0.0706  0.2149
22162W        W23026  28.308  24.577  22.667 -0.4784 -0.0757 -0.3001
22163W        W23027  28.276  25.947  20.142  0.1254  0.1857 -0.2003
22164W        W23028   3.895  22.195  26.217  0.0995  0.1357  0.0492
22165W        W23029  28.682  23.738  23.900  0.0425  0.0178  0.1615
22166W        W23030   2.228  22.748  21.376  0.3729 -0.0926 -0.0647
22167W        W23031   2.505  26.918  27.570 -0.0664 -0.2694 -0.0457
22168W        W23032   5.266  26.590  27.592 -0.2362  0.1644 -0.0930
22169W        W23033   3.892  23.070  25.020 -0.2143  0.1267 -0.2854
22170W        W23034   4.447  27.355  24.215 -0.0769  0.1287  0.0567
22171W        W23035   2.636  23.202  23.086  0.2871  0.0854 -0.0801
22172W        W23036   2.525  19.612  22.175  0.0829  0.1469  0.0177
22173W        W23037  28.979  22.920  22.709  0.1187  0.0853  0.1910
22174W        W23038   4.440  24.376  21.724 -0.0856 -0.0038  0.0105
22175W        W23039   2.917  24.753  18.137 -0.1452  0.1291  0.2267
22176W        W23040   3.436  25.153  22.630  0.2024  0.1017  0.1249
22177W        W23041   3.296  26.264  21.011 -0.0223 -0.0806 -0.0173
22178W        W23042   2.314  23.408  25.962 -0.1639 -0.1045 -0.0146
22179W        W23043   3.412  20.875  24.882 -0.1226  0.0080 -0.0881
22180W        W23044   2.204  25.813  24.935 -0.0307  0.0124  0.0594
22181W        W23045   1.916  21.435  23.415  0.2274  0.2424 -0.1242
22182W        W23046   0.204  23.651  25.420 -0.1300  0.1149 -0.1311
22183W        W23047   2.716  25.212  22.174 -0.1511  0.4341  0.4490
22184W        W23048  28.972  22.654  23.154 -0.1261  0.1465  0.0566
22185W        W23049  28.315  21.112  24.196 -0.1841 -0.0149 -0.0150
22186W        W23050   3.973  23.687  24.275 -0.1962 -0.1564 -0.2218
22187W        W23051   2.308  25.904  27.611 -0.1207  0.0914  0.2020
22188W        W23052   2.997  21.008  24.213  0.4444 -0.1676  0.1141
22189W        W23053   2.396  27.704  21.072 -0.2599 -0.2112  0.3556
22190W        W23054   2.018  25.790  25.385 -0.3680  0.0301  0.1912
22191W        W23055   2.807  26.096  23.378  0.0964 -0.0664 -0.1201
22192W        W23056   1.967  24.577  23.455 -0.1868 -0.1142 -0.1068
22193W        W23057   2.181  25.690  26.487  0.0918  0.0833  0.1484
22194W        W23058   4.135  24.833  22.736 -0.0064  0.1306 -0.0493
22195W        W23059   3.665  24.915  23.887  0.1279  0.0184  0.0656
22196W        W23060   2.629  26.462  23.697 -0.3472 -0.0941  0.0198
22197W        W23061   1.213  23.510  24.145  0.0043 -0.0647  0.1555
22198W        W23062   3.317  25.377  28.041  0.2351 -0.0762 -0.2765
22199W        W23063   1.437  24.502  21.876  0.0243  0.1483 -0.0862
22200W        W23064   1.124  23.289  25.114 -0.2785  0.1616  0.1380
22201W        W23065   3.928  24.529  23.574  0.1914  0.4615 -0.1673
22202W        W23066   3.619  21.350  20.467 -0.0450 -0.3393 -0.1593
22203W        W23067   2.711  23.111  28.118  0.0741  0.0478 -0.2051
22204W        W23068   1.959  23.776  28.776 -0.3324 -0.0106  0.0820
22205W        W23069   2.609  24.390  26.522 -0.3392  0.0088  0.2526
22206W        W23070   2.819  26.173   1.929 -0.1029  0.2190  0.1349
22207W        W23071   2.802  25.722   1.057 -0.0407  0.0964  0.2195
22208W        W23072   1.771  24.752  26.813  0.4444  0.1258  0.4563
22209W        W23073   1.301  25.398  26.055 -0.1738  0.2615  0.0657
22210W        W23074   1.917  24.741  27.382 -0.2358  0.3536 -0.1762
22211W        W23075   2.413  26.601  28.153  0.1710  0.3815 -0.2867
22212W        W23076  28.564  25.757   0.452  0.2369  0.0232  0.1798
22213W        W23077   0.856  23.485   0.576 -0.0969 -0.1080  0.1438
22214W        W23078   2.526  23.061  27.093  0.1129  0.1073  0.0052
22215W        W23079   3.041  23.070  24.501  0.0011  0.2375  0.4756
22216W        W23080   3.801  19.626  27.869 -0.0351  0.3556  0.1725
22217W        W23081   1.172  23.631   0.932 -0.0227 -0.0155 -0.2972
22218W        W23082   0.451  26.047  28.643  0.2354 -0.0195 -0.1398
22219W        W23083  28.878  24.503  27.896 -0.1578 -0.2035 -0.0326
22220W        W23084   0.810  23.913  27.667 -0.1090  0.0580 -0.2764
22221W        W23085   0.993  21.936  26.320 -0.2797  0.0101 -0.0017
22222W        W23086   2.978  22.533  27.485  0.0075 -0.0512 -0.1072
22223W        W23087   1.699  25.698  28.596  0.1181 -0.0854  0.1409
22224W        W23088  28.827  24.859  28.326 -0.2018 -0.3623 -0.1230
22225W        W23089   3.698  26.351   0.139  0.0944 -0.1143  0.1218
22226W        W23090   2.008  23.351  26.394  0.1944 -0.0571  0.2113
22227W        W23091   0.189  23.653  24.521 -0.0062  0.3318 -0.0365
22228W        W23092   2.243  23.541  27.295 -0.0678 -0.2569 -0.0413
22229W        W23093   2.943  24.944   0.476 -0.1379 -0.4173 -0.1353
22230W        W23094   2.167  23.886  26.184 -0.2626  0.0051 -0.1077
22231W        W23095   4.284  24.057  28.863  0.0586 -0.3581  0.0573
22232W        W23096   0.235  25.603   1.625  0.0503 -0.1030 -0.3492
22233W        W23097  29.137  24.546  26.642 -0.0491 -0.2110  0.0878
22234W        W23098  29.098  25.277  28.135  0.1453 -0.0855 -0.0642
22235W        W23099   2.075  22.665   1.023  0.0739 -0.2510  0.2544
22236W        W23100  28.503  22.320  27.829  0.1552  0.1644 -0.0358
22237W        W23101  27.945  20.485  27.028  0.0364 -0.2726  0.0547
22238W        W23102   0.047  25.395  28.655 -0.1014 -0.0094  0.2582
22239W        W23103   0.515  22.783  28.167 -0.3784 -0.1485  0.3300
22240W        W23104   1.793  24.793   0.578  0.0958  0.1356 -0.3467
22241W        W23105   7.135  22.790  26.515  0.0821 -0.1339  0.1150
22242W        W23106   0.043  24.047  27.099  0.2475  0.0232  0.1835
22243W        W23107   5.044  24.093  26.997 -0.1419  0.1613 -0.0930
22244W        W23108   3.174  23.953  27.727  0.3701  0.0116  0.0906
22245W        W23109   2.164  25.765  28.497 -0.0158 -0.1391 -0.1442
22246W        W23110   4.450  27.862  27.765  0.1744 -0.0820 -0.1257
22247W        W23111  28.912  24.136  25.804  0.3359  0.0793  0.0031
22248W        W23112   1.363  26.103  27.430 -0.3925 -0.1059 -0.0188
22249W        W23113   0.251  20.168  27.883 -0.0712 -0.0800  0.3429
22250W        W23114   0.348  25.218  29.076 -0.0345  0.0954  0.3574
22251W        W23115   3.268  24.955   0.029  0.3327  0.0150 -0.0878
22252W        W23116   0.992  24.280  26.876 -0.1175 -0.1840 -0.0157
22253W        W23117  28.518  25.297   0.633 -0.4206 -0.0727  0.1106
22254W        W23118   1.943  24.912  26.357 -0.2802 -0.1201  0.1550
22255W        W23119   2.087  23.454  27.740 -0.0036 -0.0160  0.1119
22256W        W23120   5.973  24.337   0.303  0.1100  0.0070  0.1488
22257W        W23121   3.543  22.871  28.063 -0.1269 -0.0441 -0.0534
22258W        W23122   3.166  25.393  27.492  0.1032  0.0515 -0.0056
22259W        W23123   0.566  21.214  27.322  0.0785  0.0571  0.0069
22260W        W23124   3.337  24.837  28.240 -0.0191  0.0274 -0.1618
22261W        W23125  29.084  23.347  27.044 -0.2874 -0.1156 -0.1804
22262W        W23126   1.342  25.455  28.310 -0.3347  0.1379  0.2606
22263W        W23127   3.989  20.734  25.829  0.0721 -0.1791  0.1052
22264W        W23128  28.178  25.405  27.338  0.0273 -0.1017  0.1226
22265W        W23129  28.066  24.122  28.504 -0.5235 -0.0969 -0.0741
22266W        W23130   0.901  23.618  23.692 -0.0700 -0.2805 -0.1273
22267W        W23131   0.667  22.912  27.664 -0.0282  0.0357 -0.2023
22268W        W23132   2.615  23.210  26.333  0.0495  0.0331 -0.1254
22269W        W23133   4.415  25.425  26.513 -0.1893  0.1358  0.1186
22270W        W23134   1.087  23.154  26.560  0.0052  0.0895 -0.1757
22271W        W23135   3.450  26.716  24.930 -0.2275 -0.0114  0.0161
22272W        W23136   2.440  24.392  25.632  0.1305 -0.0051 -0.1542
22273W        W23137   2.763  26.112  27.028 -0.0259  0.0486 -0.1394
22274W        W23138   3.294  19.181  26.633 -0.0715  0.3473 -0.0662
22275W        W23139   3.166  24.800  28.689  0.1074  0.2302  0.3262
22276W        W23140   3.688  22.910  26.633 -0.1191 -0.0922 -0.1033
22277W        W23141   1.957  26.005  28.937 -0.1282  0.1685  0.0810
22278W        W23142   3.471  23.667  28.059  0.1540  0.0695 -0.0887
22279W        W23143   0.809  23.372  25.546  0.0326  0.0005  0.3390
22280W        W23144  28.490  23.432   0.192 -0.0431  0.0363  0.1645
22281W        W23145   2.826  23.124  25.901 -0.0167 -0.1730 -0.3168
22282W        W23146   3.542  24.347  28.006  0.1039  0.2402 -0.0013
22283W        W23147   2.706  24.091  28.007  0.0243 -0.1638 -0.1264
22284W        W23148   0.606  25.973   1.690  0.3318  0.0792 -0.0080
22285W        W23149   0.907  21.570  24.585  0.0536 -0.0935 -0.2491
22286W        W23150   3.295  22.436  25.430  0.1316 -0.1060  0.0129
22287W        W23151   1.271  22.742  26.817  0.0165  0.2046 -0.3144
22288W        W23152   0.726  22.307   0.410 -0.0883 -0.3736  0.0073
22289W        W23153   2.051  24.987   0.024 -0.1290 -0.3088  0.1073
22290W        W23154   4.420  22.257   0.180  0.0274 -0.1087 -0.2085
22291W        W23155   2.099  24.496  27.890  0.1192 -0.1942  0.1117
22292W        W23156   3.150  21.889  27.174  0.2941 -0.0927 -0.0636
22293W        W23157   1.402  23.991  27.071  0.1780 -0.3992  0.0522
22294W        W23158   4.042  21.917   0.603  0.0068 -0.2437 -0.1488
22295W        W23159   0.212  25.573   0.371  0.0873  0.2523  0.0614
22296W        W23160   1.967  22.184  26.632  0.2323  0.4696 -0.0851
22297W        W23161   0.946  23.647  26.141  0.0697 -0.0161 -0.1273
22298W        W23162   2.886  23.156  26.744 -0.0663 -0.1622  0.0428
22299W        W23163   3.431  20.062  26.714  0.2965  0.6592  0.3894
22300W        W23164   1.086  25.975   0.562  0.0876  0.2336  0.4059
22301W        W23165   2.585  18.654   1.010  0.3117  0.0708  0.0861
22302W        W23166   3.040  22.900  26.343 -0.3540  0.1191  0.1093
22303W        W23167   5.020  24.496  23.873 -0.1176 -0.0493  0.0804
22304W        W23168   0.220  24.493  25.045  0.5397  0.1571  0.2045
22305W        W23169   2.919  23.907  25.382 -0.2125  0.4468 -0.0272
22306W        W23170   4.613  26.208  28.207  0.0525  0.1167 -0.0798
22307W        W23171   2.320  20.298  25.362  0.0703  0.0645 -0.1821
22308W        W23172   3.807  23.902   1.445 -0.2121 -0.0241 -0.0268
22309W        W23173   2.417  24.559  27.143  0.2497 -0.1723  0.2279
22310W        W23174   3.160  22.694  28.958 -0.0084 -0.1974  0.0228
22311W        W23175   2.601  22.705  26.490 -0.0606  0.1938  0.3004
22312W        W23176   1.992  22.311  25.484  0.0039  0.2293  0.2748
22313W        W23177  28.601  24.037   0.330 -0.1731  0.3912 -0.1800
22314W        W23178   2.229  26.512   0.564  0.1312 -0.1785  0.3039
22315W        W23179   2.698  22.451  29.148 -0.1257  0.2606 -0.1477
22316W        W23180   2.225  23.991  27.862 -0.2507  0.0803  0.0048
22317W        W23181   2.167  26.124  28.017 -0.0361  0.1852 -0.0067
22318W        W23182   3.872  25.192  24.276  0.0278 -0.0524 -0.1774
22319W        W23183   3.064  22.789  28.428 -0.4785 -0.0937 -0.3038
22320W        W23184   1.179  22.462  27.426 -0.0155 -0.1392 -0.5482
22321W        W23185   0.936  22.298  26.877  0.0157  0.1728 -0.0390
22322W        W23186   3.051  25.439  26.146 -0.0365  0.0812  0.4916
22323W        W23187   1.833  24.422  26.348 -0.0803  0.1106 -0.2647
22324W        W23188   2.895  26.494  28.367 -0.3277 -0.2423 -0.1621
22325W        W23189   4.855  26.739  28.634  0.2087  0.2429  0.3871
22326W        W23190   4.160  24.521  26.832 -0.1680 -0.0961 -0.1459
22327W        W23191   2.716  25.950  24.932  0.0399 -0.1083 -0.0424
22328W        W23192   2.134  21.304   0.439 -0.0929 -0.1463 -0.1197
22329W        W23193   0.060  23.545   1.400  0.0424  0.3577 -0.0208
22330W        W23194   1.271  22.137  27.822 -0.1257  0.0667  0.1958
22331W        W23195   3.963  27.174   1.181 -0.0322 -0.5213  0.1287
22332W        W23196   0.373  25.866  27.605 -0.2364 -0.0172  0.0925
22333W        W23197   0.805  25.798  28.407  0.0604  0.1252 -0.1519
22334W        W23198   1.279  23.933  24.575  0.3268  0.3586  0.0692
22335W        W23199   1.361  25.025   0.640 -0.0280 -0.0109 -0.1810
22336W        W23200   1.925  23.566   0.538 -0.0407  0.0793  0.0200
22337W        W23201   2.333  22.443  28.793 -0.2201  0.0597 -0.2601
22338W        W23202   0.868  23.979  28.834  0.4058 -0.1243 -0.0557
22339W        W23203   4.150  24.089  27.252 -0.1643 -0.1703 -0.0777
22340W        W23204   5.355  22.295   2.006 -0.1464  0.2222  0.2183
22341W        W23205   1.477  25.671  26.719 -0.2096  0.1232 -0.2330
22342W        W23206  28.570  25.183  27.998 -0.2365  0.2035 -0.0730
22343W        W23207   0.451  19.663  28.509 -0.0588  0.2166 -0.1071
22344W        W23208   1.464  21.211  27.344 -0.0964 -0.2025 -0.4515
22345W        W23209   2.394  24.790  27.583 -0.0614  0.0888 -0.3253
22346W        W23210   0.870  22.569  27.930 -0.0942 -0.2053 -0.0156
22347W        W23211   1.356  25.200   1.143 -0.1102 -0.1332  0.1442
22348W        W23212   3.630  24.526  25.591  0.0721 -0.2634 -0.1151
22349W        W23213   3.596  19.610  26.985 -0.2599 -0.1951 -0.0892
22350W        W23214   4.519  28.096  28.218  0.2526  0.0070  0.2146
22351W        W23215   1.042  28.514  25.884 -0.0407  0.1721 -0.2411
22352W        W23216   0.748  23.642  28.369  0.2111  0.0484 -0.0495
22353W        W23217   3.194  23.209  28.212 -0.1740  0.2627  0.3094
22354W        W23218   2.269  22.051  27.013 -0.0424  0.0684 -0.1550
22355W        W23219   0.901  24.504  26.444 -0.0020  0.1390  0.0532
22356W        W23220   0.636  21.359  26.488  0.2024  0.0019  0.5710
22357W        W23221   2.865  24.683  27.272  0.0018 -0.2619 -0.1243
22358W        W23222   1.528  23.508   1.769  0.0908  0.0068 -0.1077
22359W        W23223   1.000  24.232  25.189 -0.0630  0.3516 -0.0242
22360W        W23224  28.982  24.264  28.369  0.1701  0.1401  0.3245
22361W        W23225   1.776  25.216  27.165 -0.3910 -0.2368 -0.1554
22362W        W23226   2.975  24.468  27.798  0.1094  0.0983 -0.2625
22363W        W23227   1.998  20.588  27.627  0.0791  0.1631 -0.1252
22364W        W23228   4.878  23.481  26.857 -0.0413  0.1844 -0.2573
22365W        W23229   3.347  25.008   1.910  0.5835  0.0164  0.3173
22366W        W23230   4.501  21.819   0.355 -0.3123  0.0947 -0.0802
22367W        W23231   2.939  21.611  26.622 -0.1340  0.1708  0.1244
22368W        W23232   1.959  21.687  28.867 -0.0960  0.3481 -0.0817
22369W        W23233   1.770  19.944  28.674  0.0366  0.0686 -0.2785
22370W        W23234  27.450  25.003  26.220  0.3721 -0.3485  0.0572
22371W        W23235   2.184  26.489  28.797 -0.2705 -0.1455 -0.0018
22372W        W23236   1.651  23.806  26.023  0.1074 -0.1983  0.0166
22373W        W23237   2.841  24.551  25.300 -0.1212 -0.1794  0.0031
22374W        W23238   0.951  26.299   1.576 -0.0696 -0.1205  0.1025
22375W        W23239   3.191  24.384  26.983 -0.2910  0.0256 -0.1660
22376W        W23240   2.515  23.912  25.838 -0.2963 -0.1138  0.0759
22377W        W23241   4.458  20.487  26.690 -0.1550 -0.1267  0.0808
22378W        W23242   5.255  24.009  26.120  0.0816 -0.0886 -0.0694
22379W        W23243  26.936  25.638   1.917  0.1039  0.1195 -0.0373
22380W        W23244  27.778  26.351   0.582  0.0298  0.0910  0.1659
22381W        W23245  29.112  24.988  25.084 -0.1213 -0.0081  0.0438
22382W        W23246   3.756  20.507  24.860  0.2122  0.2708  0.2121
22383W        W23247   1.896  26.553  26.971 -0.1609  0.0294  0.0965
22384W        W23248   2.979  25.082  27.894 -0.3904  0.0668 -0.0083
22385W        W23249   1.119  25.316  27.682 -0.1957 -0.1516  0.1949
22386W        W23250   1.201  24.279  27.943 -0.2502 -0.0271  0.1515
22387W        W23251   3.052  22.067  23.913  0.0024  0.2072  0.3296
22388W        W23252   1.166  22.944  28.048  0.0023 -0.1497 -0.0108
22389W        W23253   5.555  24.871  24.862  0.1099  0.1792  0.2772
22390W        W23254   1.416  21.565  26.980  0.2404  0.0943  0.2674
22391W        W23255   1.557  23.802  28.424  0.1744  0.0246 -0.1217
22392W        W23256   3.379  23.708  25.563  0.0060 -0.2248  0.3316
22393W        W23257   0.709  24.138  26.019 -0.1073  0.0329  0.2105
22394W        W23258   0.362  23.753  26.272  0.0749  0.0835  0.0719
22395W        W23259   1.619  22.323  24.234 -0.2010 -0.0702  0.0781
22396W        W23260   3.598  19.306  27.369 -0.1647 -0.2491 -0.3087
22397W        W23261   4.696  22.307  27.416  0.0894 -0.0946 -0.1388
22398W        W23262  28.700  22.234  23.063  0.2396  0.0216 -0.1281
22399W        W23263   3.506  21.669  26.744  0.2172 -0.1855 -0.1083
22400W        W23264   0.920  21.569  25.584  0.0014 -0.1200  0.4770
22401W        W23265   1.002  21.644  28.962  0.1235  0.0172  0.2563
22402W        W23266   3.509  22.435   0.028  0.4477  0.1866 -0.1417
22403W        W23267   2.228  22.055  24.400 -0.3445  0.0629  0.2859
22404W        W23268   2.950  22.433  28.006  0.4832  0.0486  0.2703
22405W        W23269   0.848  23.990  26.484  0.4937 -0.0908 -0.3263
22406W        W23270   1.787  22.303  28.006 -0.0438 -0.0242 -0.2141
22407W        W23271   2.284  23.019  26.640  0.1805  0.1126 -0.0437
22408W        W23272  27.375  21.948  26.505 -0.1322  0.0454  0.0701
22409W        W23273   0.335  23.332  27.572  0.2257  0.0538  0.0024
22410W        W23274   4.464  23.962   0.211  0.3686  0.0854 -0.1919
22411W        W23275   0.901  26.129  27.895 -0.0334  0.2055  0.0581
22412W        W23276  28.222  25.155  26.508  0.1512  0.0304 -0.1804
22413W        W23277  27.442  24.526   0.867 -0.4722 -0.1163 -0.2225
22414W        W23278  29.026  26.584  27.894  0.3945  0.1133  0.1760
22415W        W23279   1.623  25.007  25.961  0.2038  0.0715 -0.2205
22416W        W23280   0.975  21.497  27.405  0.0671 -0.0589 -0.1285
22417W        W23281   3.809  22.243  28.818  0.2559  0.2599  0.0729
22418W        W23282   5.099  24.055  24.788  0.0769  0.0871  0.2575
22419W        W23283   3.394  24.387  28.474 -0.2430  0.0593  0.3427
22420W        W23284   3.391  24.667  26.573 -0.1515  0.0812  0.0326
22421W        W23285   2.369  24.068  27.224 -0.5466  0.0965 -0.2038
22422W        W23286  28.487  23.048  28.450 -0.2004  0.2560  0.0157
22423W        W23287   1.797  21.292   2.504  0.0767  0.2087  0.1338
22424W        W23288   4.630  23.206  28.208 -0.0282 -0.0969  0.0229
22425W        W23289   1.050  22.475  26.414  0.0559  0.0956  0.3551
22426W        W23290   1.040  22.546  25.788 -0.1266 -0.3953 -0.0529
22427W        W23291   2.815  25.178  26.528  0.0135 -0.1711 -0.1246
22428W        W23292   2.941  23.708  25.892 -0.1633 -0.1856  0.1077
22429W        W23293   2.208  23.920  28.348 -0.2365  0.2010 -0.1611
22430W        W23294   0.805  22.743   0.695 -0.0701  0.2726 -0.1089
22431W        W23295   2.786  27.122  26.716 -0.2829 -0.1742  0.0794
22432W        W23296   0.973  23.783  27.136 -0.1535 -0.0388 -0.0141
22433W        W23297   2.656  23.817  26.347 -0.2964  0.1219  0.0036
22434W        W23298   3.805  25.504  28.116  0.1052 -0.1031 -0.1456
22435W        W23299   4.467  23.314  24.655 -0.0926  0.1414 -0.2043
22436W        W23300   4.594  25.026  27.495  0.2768  0.3307 -0.1790
22437W        W23301   0.870  22.983  24.072  0.0103  0.3547 -0.1803
22438W        W23302   2.863  26.132  25.565  0.0502  0.0394 -0.0616
22439W        W23303   1.657  24.652  27.784  0.0743 -0.0260  0.0101
22440W        W23304   1.340  24.874  26.451 -0.3906  0.1425  0.0126
22441W        W23305   5.147  27.434  27.668  0.0769 -0.2354 -0.6256
22442W        W23306   3.941  26.637  24.587  0.3760 -0.1669  0.0226
22443W        W23307   1.098  24.780  27.720 -0.1003  0.0317 -0.1720
22444W        W23308  28.456  26.288   0.481 -0.1893  0.1984  0.1753
22445W        W23309   3.216  21.342  26.936 -0.1327 -0.2042 -0.0367
22446W        W23310   3.149  20.675  27.104 -0.0429 -0.1380  0.0179
22447W        W23311   3.584  23.085  26.171 -0.0455  0.3188  0.2459
22448W        W23312   3.503  25.286  27.008 -0.4798 -0.0361 -0.1901
22449W        W23313   2.581  23.236  27.680 -0.1656  0.1685 -0.1836
22450W        W23314   2.871  26.849   2.454  0.1517  0.1367 -0.2055
22451W        W23315   2.237   0.786  25.981 -0.1657  0.1747  0.0397
22452W        W23316   3.061  22.239  25.886 -0.1143 -0.0849 -0.1088
22453W        W23317   2.957  25.775  24.514  0.0222  0.2989  0.2126
22454W        W23318   2.061  27.505  28.527  0.1462 -0.1388  0.2117
22455W        W23319   3.165  24.017   0.167  0.1460 -0.0471 -0.0842
22456W        W23320   4.804  23.283  26.319 -0.1204 -0.2052  0.0300
22457W        W23321  27.994  24.944  26.119  0.0494 -0.3995  0.0051
22458W        W23322   7.988  27.490  24.995 -0.1025 -0.1671 -0.1635
22459W        W23323   6.145  23.603  26.187 -0.1807 -0.1045  0.0462
22460W        W23324   1.013  22.886  25.452  0.1994 -0.3214  0.2170
22461W        W23325   3.017  27.311  25.395 -0.0953  0.0823 -0.2222
22462W        W23326   1.749  24.195  28.037 -0.1709  0.2854 -0.2560
22463W        W23327   2.687  23.777  27.586  0.1794 -0.0448  0.3428
22464W        W23328   2.185  24.144  26.612 -0.3858  0.2822 -0.1623
22465W        W23329   3.234  26.504  28.754  0.4519  0.1196 -0.1720
22466W        W23330   0.871  22.615  28.472  0.2202  0.4118  0.0072
22467W        W23331   2.667  26.486  28.876  0.2805  0.1309  0.2622
22468W        W23332  29.000  25.420   0.103 -0.0237  0.2011 -0.0367
22469W        W23333   1.915  23.661  23.586 -0.1826  0.1614 -0.0252
22470W        W23334   0.804  27.005  28.950  0.2110  0.0747  0.0609
22471W        W23335   2.222  23.137   1.637  0.1290 -0.0663  0.0522
22472W        W23336   4.714  23.576  23.635  0.0929 -0.2078  0.3040
22473W        W23337   0.862  24.109  23.668 -0.0930  0.1445 -0.0030
22474W        W23338   1.749  23.275  24.061  0.0481  0.1454 -0.0236
22475W        W23339   0.827  23.410  27.481  0.0777  0.1357  0.1149
22476W        W23340  28.348  22.930  27.937 -0.0680 -0.2290  0.0532
22477W        W23341   3.746  25.222  28.901 -0.1400  0.0214  0.0238
22478W        W23342   4.022  22.427  26.656 -0.3375  0.0401 -0.0676
22479W        W23343   1.600  21.515  27.899  0.1226  0.2309  0.0963
22480W        W23344  28.675  24.028  26.263 -0.0472  0.2431  0.0394
22481W        W23345   0.870  25.602  24.746  0.0268  0.0506  0.1387
22482W        W23346   0.538  23.947  26.935 -0.0890 -0.4160 -0.1626
22483W        W23347   4.130  23.742  25.900 -0.2586  0.2614  0.0884
22484W        W23348   1.813  24.891  25.450 -0.1012  0.1116 -0.0964
22485W        W23349   1.635  23.704  25.497 -0.0460  0.0227  0.2985
22486W        W23350  28.766  24.999   0.228  0.2290  0.3338 -0.0941
22487W        W23351   4.819  25.170  26.176 -0.0579  0.2693  0.4978
22488W        W23352   1.505  21.464  28.967 -0.0419  0.0069 -0.0169
22489W        W23353   2.887  25.577  27.838  0.3123  0.0122  0.0644
22490W        W23354  29.066  26.342   1.010  0.0066  0.1948  0.1008
22491W        W23355   3.824  20.604  28.471 -0.0672 -0.1045 -0.2745
22492W        W23356   3.292  24.884  27.575 -0.0504 -0.0127 -0.1783
22493W        W23357   2.232  24.661  26.668 -0.1043  0.1672 -0.3059
22494W        W23358   3.672  22.404  23.341 -0.1682  0.0650  0.1999
22495W        W23359   2.621  22.684  28.281  0.0140  0.1887 -0.5270
22496W        W23360   0.399  22.332  27.896  0.4650 -0.0808  0.1848
22497W        W23361   1.216  24.712  26.890 -0.0877 -0.2835  0.3016
22498W        W23362   1.454  23.099  24.777 -0.0105  0.0975  0.2164
22499W        W23363   1.748  21.769  26.513  0.1533 -0.0788 -0.2285
22500W        W23364   3.331  23.644  28.546 -0.2451 -0.0837 -0.3262
22501W        W23365   1.986  23.252  26.956 -0.0362 -0.0879  0.3132
22502W        W23366   0.992  24.708  25.398 -0.0463 -0.0739  0.2664
22503W        W23367   0.057  25.061  27.326  0.4394 -0.1944 -0.0591
22504W        W23368  29.071  24.121   0.218 -0.1377  0.4758  0.1514
22505W        W23369   2.752  24.157   0.649 -0.2672 -0.1585 -0.0127
22506W        W23370   2.011  25.038  27.827  0.2540 -0.0838  0.4289
22507W        W23371   5.343  24.367  25.637 -0.2090  0.0294 -0.3058
22508W        W23372   2.679  26.270   0.896  0.0789 -0.1553  0.1547
22509W        W23373   0.065  26.237  28.428  0.0436 -0.2319  0.0757
22510W        W23374   4.449  23.726  28.127 -0.1059  0.0489  0.0164
22511W        W23375   1.151  24.699  28.286  0.2039  0.0016 -0.2929
22512W        W23376   2.527  25.457  26.187 -0.1283 -0.0306 -0.1898
22513W        W23377   3.245  23.432  24.705  0.0913  0.0179 -0.3384
22514W        W23378   1.188  24.663  28.948 -0.0550 -0.2214  0.1052
22515W        W23379   2.975  22.403  26.405  0.2559  0.4159  0.0026
22516W        W23380   0.954  25.096  28.609 -0.3399 -0.0901  0.1602
22517W        W23381   1.542  22.666   0.237 -0.1504 -0.0870 -0.1402
22518W        W23382  28.389  27.387   0.712  0.1757 -0.1745  0.1088
22519W        W23383   2.175  21.006  27.821 -0.0660  0.1538 -0.1763
22520W        W23384   0.719  23.711  23.218 -0.0397 -0.0205  0.0615
22521W        W23385   3.649  24.778  28.646 -0.2619  0.0498  0.2288
22522W        W23386   0.914  21.644  25.106  0.1906 -0.0971 -0.0086
22523W        W23387   0.234  24.521  28.635 -0.1211  0.0937  0.2557
22524W        W23388   2.356  26.465  27.615 -0.1035  0.1072 -0.3579
22525W        W23389  26.650  25.024   1.852 -0.0753  0.1678 -0.0577
22526W        W23390   2.876  21.796  27.958 -0.3681 -0.0366 -0.0347
22527W        W23391  28.426  24.769  24.923  0.0396 -0.0569 -0.2207
22528W        W23392   1.110  26.562  28.132 -0.2202 -0.1654  0.0697
22529W        W23393   2.939  23.020  27.344  0.0602  0.0083  0.0592
22530W        W23394  28.254  24.606  24.459 -0.3206  0.1656  0.1875
22531W        W23395   0.402  24.066  24.423  0.1143 -0.1254 -0.1327
22532W        W23396   1.042  25.233  25.080 -0.0446  0.3034 -0.3567
22533W        W23397   2.351  20.796  28.340  0.1645  0.1264 -0.1604
22534W        W23398   0.403  22.570  24.050  0.2810  0.2593 -0.0502
22535W        W23399   3.564  23.299  27.780  0.0167 -0.0918  0.1610
22536W        W23400   1.072  27.335  28.682  0.1905  0.0477 -0.0956
22537W        W23401   1.086  25.419   0.357 -0.2710  0.0979 -0.0750
22538W        W23402   2.160  24.895  28.648 -0.4390 -0.0468 -0.0283
22539W        W23403   1.282  27.969  28.006  0.3022 -0.2705  0.1007
22540W        W23404   6.934  23.207  27.326 -0.1495  0.1737 -0.0714
22541W        W23405   3.946  23.384  26.623  0.0047  0.0366  0.0262
22542W        W23406   1.615  21.583  25.437  0.0044 -0.0989 -0.4288
22543W        W23407   3.303  24.328  27.479  0.0010  0.0336 -0.2886
22544W        W23408   1.452  24.092  27.556 -0.0028 -0.0515 -0.2693
22545W        W23409   2.943  21.617  23.642 -0.1259 -0.2246 -0.1723
22546W        W23410   1.197  23.897  25.777 -0.4314  0.1384 -0.1291
22547W        W23411   3.895  25.455  26.661  0.0753 -0.2030  0.0428
22548W        W23412   1.754  26.351   0.614  0.1940 -0.0073  0.2241
22549W        W23413   2.427  24.866  25.426 -0.2092 -0.1866 -0.1379
22550W        W23414   1.804  22.537  25.903  0.0458  0.0431 -0.0852
22551W        W23415   1.416  23.364  28.261 -0.0448 -0.1775 -0.1808
22552W        W23416  28.370  20.031  25.123  0.1474  0.2077  0.4160
22553W        W23417   2.325  27.868  28.760  0.0324 -0.0725  0.0921
22554W        W23418   5.551  23.832  25.239 -0.1292  0.3306 -0.2259
22555W        W23419   2.468  24.890   0.292  0.0786 -0.1004  0.3092
22556W        W23420   1.131  23.283  27.052 -0.0572  0.2429 -0.0080
22557W        W23421   1.131  25.996  26.885 -0.0032  0.3530 -0.1276
22558W        W23422   2.031  24.054  25.734 -0.1123  0.0065  0.0460
22559W        W23423   0.363  24.863  26.406 -0.3649 -0.3160  0.0777
22560W        W23424   3.739  22.974  25.726 -0.2437 -0.1559  0.1080
22561W        W23425   0.619  22.453  27.510  0.3170 -0.1097  0.0202
22562W        W23426   1.576  23.260  27.713 -0.2011  0.2814  0.3563
22563W        W23427   2.085  24.478  25.244 -0.0991  0.2848  0.0750
22564W        W23428   0.205  23.717   3.019 -0.0050 -0.0722 -0.2401
22565W        W23429   0.303  22.889  27.274  0.0627  0.0251 -0.0687
22566W        W23430   1.610  21.964  25.719  0.1877 -0.1579  0.3499
22567W        W23431   0.027  27.838   0.866 -0.1716  0.0180 -0.1805
22568W        W23432   1.142  24.579   0.651 -0.0070  0.0325 -0.0628
22569W        W23433   3.260  24.936  25.433 -0.2300  0.1291  0.1236
22570W        W23434   1.991  26.514  26.387 -0.4806 -0.0133 -0.1295
22571W        W23435   2.432  24.813  28.166  0.2137 -0.0459  0.0962
22572W        W23436   6.015  23.136  27.676 -0.0048 -0.0396 -0.0766
22573W        W23437   3.041  22.393  24.324  0.0438  0.2169  0.0539
22574W        W23438   3.299  22.355  27.107  0.3499 -0.2504 -0.1929
22575W        W23439   1.334  25.065  25.516 -0.1381 -0.0533 -0.0350
22576W        W23440   3.240  23.370  27.142 -0.0660  0.1857  0.0355
22577W        W23441   4.629  23.596  25.932 -0.0196  0.4215  0.4533
22578W        W23442   1.020  23.204  25.965  0.3861 -0.2054  0.1559
22579W        W23443   1.027  24.259  27.354  0.3379  0.0901 -0.0619
22580W        W23444   3.101  24.213  24.468 -0.0992 -0.2249  0.3022
22581W        W23445   2.563  20.457  29.039  0.1898  0.0505 -0.2754
22582W        W23446   1.035  22.668   0.183 -0.0740 -0.0534  0.3319
22583W        W23447   3.211  23.945  24.905  0.1824 -0.1900 -0.0772
22584W        W23448   2.495  24.130  25.107 -0.2271  0.4449 -0.0391
22585W        W23449  29.008  24.280  28.912 -0.1913  0.2011  0.0312
22586W        W23450   0.371  26.637  28.629  0.2983  0.3177 -0.0284
22587W        W23451   1.464  24.524  27.282  0.0788  0.1221  0.0307
22588W        W23452   2.971  21.555  27.514  0.1685  0.0312 -0.0629
22589W        W23453   2.420  25.792   0.745  0.0553  0.1260 -0.1143
22590W        W23454   1.932  24.328  27.029 -0.1462  0.0132  0.3017
22591W        W23455   2.058  25.641  27.042 -0.1362  0.0636 -0.1330
22592W        W23456   4.837  23.745  27.615  0.1804 -0.1337  0.2065
22593W        W23457  28.271  25.169   1.184 -0.1789  0.3583 -0.0969
22594W        W23458   1.667  26.043  27.023  0.0500 -0.2647  0.0945
22595W        W23459   1.412  26.013  28.804 -0.1278 -0.0805  0.0330
22596W        W23460   4.399  27.504  28.177  0.0092 -0.0978  0.2836
22597W        W23461   1.185  27.192   0.098  0.1372 -0.0066 -0.0048
22598W        W23462   2.468  26.037  28.972 -0.0198 -0.0955  0.0164
22599W        W23463   5.574   1.389  27.037  0.1086 -0.4146 -0.3927
22600W        W23464   1.471  25.032  28.551 -0.0271  0.1156  0.1413
22601W        W23465   3.493  23.303  24.266 -0.0274  0.0870 -0.2173
22602W        W23466   4.521  24.005  25.631  0.3741  0.3238  0.3313
22603W        W23467  28.355   1.168   0.955  0.0652  0.0201  0.0954
22604W        W23468   0.499   0.369   1.405 -0.2295 -0.1180 -0.1536
22605W        W23469   4.184  26.196   0.069  0.0642 -0.1344 -0.1453
22606W        W23470   5.309   1.445   1.181  0.0152  0.2611 -0.2732
22607W        W23471   3.053  28.164   0.922 -0.2227  0.2784 -0.1164
22608W        W23472  28.328  26.573  28.039 -0.0024  0.3319 -0.1939
22609W        W23473   1.884  27.186   2.817  0.1280 -0.0736 -0.4620
22610W        W23474   0.859  25.721   2.451  0.2135 -0.1261  0.1302
22611W        W23475  29.006  27.385   4.228 -0.0626  0.1447  0.0267
22612W        W23476  29.123  23.493   5.858  0.1161 -0.0033  0.1729
22613W        W23477   1.879  25.618   2.412  0.0415 -0.0098  0.0358
22614W        W23478   1.942  24.121   2.650 -0.3140 -0.2500 -0.3268
22615W        W23479   3.056  26.308   3.730 -0.2099 -0.2573 -0.1696
22616W        W23480   2.150  25.076   5.706 -0.2576 -0.0333 -0.2542
22617W        W23481   0.589  26.996   3.537  0.1726 -0.0371 -0.0037
22618W        W23482  28.675  27.474   2.465 -0.0693  0.2481  0.2868
22619W        W23483   3.312   0.164  27.527  0.0539  0.3856 -0.4721
22620W        W23484   1.816  25.363   2.838  0.0075 -0.2996  0.1208
22621W        W23485  28.904  27.099   5.607 -0.1142 -0.1739 -0.0790
22622W        W23486   1.798  27.084   2.288 -0.1311  0.1047  0.2674
22623W        W23487   5.073  26.641   0.902 -0.1321  0.0665 -0.0297
22624W        W23488   0.973  25.407   1.401  0.3507  0.0833  0.0779
22625W        W23489   2.224  27.388   1.529 -0.0617  0.0122  0.1851
22626W        W23490   0.763  28.038   5.423 -0.1655 -0.0805  0.0314
22627W        W23491   0.637  25.290   3.453  0.1166 -0.1941  0.4474
22628W        W23492   2.688  27.477   2.832  0.1121  0.1374 -0.0442
22629W        W23493   4.356   0.705   1.374  0.1377  0.2198 -0.0738
22630W        W23494   1.427   1.676   1.647 -0.0803 -0.1552 -0.0936
22631W        W23495   1.155   0.318   4.276  0.3190  0.0747 -0.1181
22632W        W23496   1.476  25.929   2.417 -0.0441 -0.0602  0.3192
22633W        W23497   1.951  26.580   3.981  0.0057  0.0380  0.1634
22634W        W23498   3.379  28.467   2.947 -0.0172  0.2141  0.3307
22635W        W23499   3.485  27.882   3.613 -0.0653  0.2029 -0.2531
22636W        W23500   3.672  29.004   1.636  0.0543 -0.3203  0.0170
22637W        W23501  29.132  24.831   2.993  0.4584 -0.5175 -0.1075
22638W        W23502   4.793  27.482   4.647  0.1781  0.0352 -0.1458
22639W        W23503   1.272  26.451   0.676  0.1778 -0.0560 -0.1097
22640W        W23504   1.129  28.384   1.272 -0.0110  0.1585 -0.2029
22641W        W23505   4.820  28.241   0.961  0.0102 -0.0019 -0.0456
22642W        W23506   2.313  23.696   3.845  0.2008 -0.1948 -0.0384
22643W        W23507   4.192  27.111  27.883  0.1943  0.1934  0.1538
22644W        W23508   2.310  27.803   2.955  0.0798 -0.2563 -0.1517
22645W        W23509   2.057  29.146   0.612  0.1937  0.2330  0.1339
22646W        W23510   4.187  28.862   0.307 -0.0263 -0.2376 -0.0550
22647W        W23511   1.080   1.179   0.142 -0.0362  0.0696 -0.2052
22648W        W23512   0.328   0.936  28.189  0.2001  0.2949  0.0221
22649W        W23513   1.283  27.181   1.918  0.2008 -0.1286  0.0998
22650W        W23514   3.909  25.760   1.451  0.4681  0.0057 -0.0591
22651W        W23515   3.788  27.277   1.603  0.1049  0.1579  0.0098
22652W        W23516   1.455  25.402   1.707  0.2128 -0.3031 -0.1559
22653W        W23517   0.649  29.091   1.156  0.2384 -0.2653 -0.0771
22654W        W23518   1.791  25.279   0.862 -0.0569 -0.1965 -0.1748
22655W        W23519   3.956  28.019   1.102 -0.1056  0.0064 -0.2197
22656W        W23520   4.798   1.415   1.051 -0.1318 -0.0895  0.0434
22657W        W23521   3.433  25.894   0.886 -0.2339 -0.3203  0.0083
22658W        W23522   0.771  26.635   2.446  0.0177  0.1146  0.0619
22659W        W23523   2.458  26.080   2.854  0.2623  0.0476 -0.0999
22660W        W23524   3.341  22.694   1.457  0.1511 -0.0211 -0.3629
22661W        W23525   0.966  27.400   2.437 -0.0935 -0.1283 -0.0761
22662W        W23526   1.641  26.746   1.902 -0.2317 -0.2284 -0.3248
22663W        W23527   2.956  27.091  28.746 -0.1727  0.3108 -0.0868
22664W        W23528  27.226  27.415   2.793  0.0331  0.0399  0.0756
22665W        W23529   2.052  26.480   2.170  0.1130 -0.0982 -0.3318
22666W        W23530  28.397  26.079   0.050 -0.3281  0.1598  0.1283
22667W        W23531   1.807  24.014   3.792  0.0194  0.1231 -0.1448
22668W        W23532   1.854  25.271  28.248 -0.1411 -0.2034  0.3217
22669W        W23533   1.896  26.824   1.426  0.3258  0.2003 -0.3947
22670W        W23534  28.959  26.848   0.716 -0.1000 -0.1756  0.0215
22671W        W23535  29.071  27.822   2.397 -0.0657  0.1763  0.3948
22672W        W23536   2.072  27.955   1.386 -0.2932  0.3529  0.0292
22673W        W23537   4.199  27.856   2.572  0.2839  0.0097  0.1870
22674W        W23538   0.941  24.292   2.599 -0.2119 -0.0863 -0.0566
22675W        W23539   3.358   1.986  28.920 -0.1210  0.0809 -0.0649
22676W        W23540   3.822  27.721   4.302 -0.4044 -0.0577  0.0398
22677W        W23541   2.135  25.979   0.310  0.3006  0.0536  0.2019
22678W        W23542   2.323  28.094   5.724  0.0540  0.2536  0.0826
22679W        W23543   0.108  26.124   1.477  0.1386 -0.0860  0.4781
22680W        W23544   3.591  28.536   1.793  0.0063  0.0593  0.0019
22681W        W23545   4.854  25.783   1.161  0.0320  0.0075 -0.0992
22682W        W23546   2.502  26.947   3.399  0.1911  0.1869 -0.0320
22683W        W23547   1.428  25.859   4.130  0.2706 -0.0822  0.4139
22684W        W23548   0.620  26.864   5.316  0.3839 -0.3284  0.5019
22685W        W23549  29.119  25.792   2.903 -0.2973 -0.0237  0.2421
22686W        W23550   3.287  25.137   3.277 -0.0100  0.1931  0.1195
22687W        W23551   2.011  24.633   3.411  0.1065 -0.0282  0.1317
22688W        W23552   3.381  28.461  28.040  0.2458  0.0010  0.1356
22689W        W23553   1.093   2.023   0.576 -0.3300  0.2133 -0.1860
22690W        W23554   1.414  25.850   3.621  0.2959 -0.1030  0.1610
22691W        W23555   2.910  28.298   4.903 -0.2990 -0.1283 -0.1932
22692W        W23556   3.575  27.097   2.942 -0.1136  0.0858  0.1003
22693W        W23557   2.818  25.065   3.146 -0.1603  0.1854  0.1247
22694W        W23558   1.773  26.688   2.575  0.1544 -0.1513  0.1641
22695W        W23559   0.142  27.264   0.881  0.2294 -0.1388  0.1158
22696W        W23560   1.904  25.271  28.790 -0.1369 -0.1770  0.0946
22697W        W23561   2.177  25.041   2.923 -0.2030  0.0350 -0.1535
22698W        W23562   2.455  26.683   0.124 -0.0243  0.1412  0.1334
22699W        W23563   6.930  28.966  28.302 -0.2137 -0.1044  0.0384
22700W        W23564  27.331  29.075   2.065  0.0430  0.1784  0.0909
22701W        W23565   0.346  24.969   2.661  0.2434 -0.1338  0.0459
22702W        W23566   3.091  26.259   0.621  0.1578  0.0303 -0.4680
22703W        W23567   3.572  27.915   0.037  0.2681 -0.0644 -0.0180
22704W        W23568  28.584  26.128   2.738  0.0124 -0.3601 -0.2251
22705W        W23569   0.905  25.281   2.939 -0.1822  0.1175 -0.2075
22706W        W23570   2.914   1.116   4.109 -0.1815 -0.2510  0.0208
22707W        W23571   4.393  26.059   2.251 -0.1050 -0.1872  0.1467
22708W        W23572   0.596  24.555   4.732 -0.0560  0.0220  0.0371
22709W        W23573   3.271  27.700   0.399  0.0197 -0.0998 -0.1352
22710W        W23574   2.564   0.180   3.301  0.1120  0.0375  0.0189
22711W        W23575   1.965  26.084   2.488 -0.2627 -0.0255  0.0408
22712W        W23576   0.871  27.313   3.008 -0.0748 -0.0029 -0.3045
22713W        W23577   0.872  25.549   1.932  0.1975  0.1875 -0.0183
22714W        W23578   2.565  26.855  28.538 -0.0259  0.2210 -0.0193
22715W        W23579   4.305  25.762   0.403 -0.1747 -0.0837 -0.0958
22716W        W23580   2.191   0.237   5.533 -0.0401  0.1706 -0.0934
22717W        W23581   0.496   0.840   1.276 -0.1754  0.0327 -0.1307
22718W        W23582   3.575  28.700   2.443  0.1071 -0.3903 -0.0252
22719W        W23583   2.782  26.647   0.585  0.0960  0.3493  0.0369
22720W        W23584   2.330  26.591   2.596 -0.0179  0.3923  0.0767
22721W        W23585  28.763  26.073   1.297 -0.1763 -0.0997 -0.1386
22722W        W23586   0.941  26.765   0.263 -0.2467 -0.3948  0.0943
22723W        W23587   3.888  26.063   0.566 -0.1443 -0.1194  0.2162
22724W        W23588   3.490   0.739   0.965  0.0590  0.1396  0.3489
22725W        W23589   1.096  28.279   2.672 -0.1799  0.0869  0.1142
22726W        W23590   2.259  27.071   2.482  0.0782  0.0906  0.2745
22727W        W23591   1.273  27.652   2.969  0.0355  0.1223 -0.0003
22728W        W23592   1.822   1.345   0.038  0.0472 -0.1393 -0.1476
22729W        W23593  26.544  26.501   1.325  0.0368  0.0416 -0.1109
22730W        W23594   1.732  24.932   1.397  0.0212 -0.0377  0.2208
22731W        W23595   2.971  28.339   1.531  0.1859  0.2315 -0.1827
22732W        W23596   0.488  28.943   2.206  0.2293 -0.1681  0.0194
22733W        W23597   4.683   0.926  29.019 -0.0405  0.1351  0.2817
22734W        W23598   4.664  24.749   3.037  0.1895  0.3602  0.1157
22735W        W23599   3.607  27.901   0.759  0.0231  0.3460  0.0809
22736W        W23600   3.607  23.140   1.288 -0.0481 -0.2194 -0.1301
22737W        W23601   4.175  25.853   1.822 -0.2606 -0.0150 -0.0090
22738W        W23602   3.332  26.320   3.065  0.0753  0.0525  0.1028
22739W        W23603   2.696  26.864   1.558  0.2939  0.0357  0.0586
22740W        W23604   3.065  24.788   2.267 -0.0795  0.0889 -0.1133
22741W        W23605   1.740  27.594   1.341  0.2653 -0.3629  0.3066
22742W        W23606   0.968   1.310   1.579  0.1684 -0.0479  0.0783
22743W        W23607  28.666  25.694   1.001 -0.1546  0.0180 -0.2282
22744W        W23608   2.115  26.494   4.763  0.0713  0.0733  0.3698
22745W        W23609   1.176   1.563   0.658  0.1069  0.0318 -0.2507
22746W        W23610   1.716  25.909  28.091 -0.3454 -0.0001 -0.1130
22747W        W23611   2.961  29.145   4.338 -0.1557 -0.1546 -0.1866
22748W        W23612   3.399  28.009   2.338 -0.2473 -0.1011 -0.0054
22749W        W23613   1.648  25.593  29.072 -0.0668 -0.2830 -0.0040
22750W        W23614   0.877  28.299   2.190 -0.1848 -0.0125  0.1384
22751W        W23615   3.376  28.226   0.409 -0.1537 -0.0852 -0.3310
22752W        W23616  29.115  28.572   3.632 -0.1752  0.0027 -0.1754
22753W        W23617   0.958  29.114   2.245 -0.1277 -0.1228  0.0061
22754W        W23618  27.040  26.744   2.198 -0.0078  0.1044 -0.0051
22755W        W23619  29.067   0.960   5.041 -0.2488  0.3591 -0.1658
22756W        W23620   2.542  27.213   0.014  0.1914 -0.0889  0.3327
22757W        W23621   3.555  24.376   3.953 -0.3365  0.0493  0.2465
22758W        W23622   3.811  25.220   0.309  0.0246  0.6990 -0.3395
22759W        W23623   1.310  27.903   1.176 -0.4079 -0.0400 -0.1034
22760W        W23624  28.712   0.940  29.095 -0.0910 -0.0250 -0.1171
22761W        W23625   2.606  27.446  28.381 -0.0535  0.1254 -0.1403
22762W        W23626   3.332  26.210  28.378  0.1487 -0.3044  0.2999
22763W        W23627   5.498  27.031   3.225  0.3073  0.0501  0.0327
22764W        W23628  28.758  28.236   4.440 -0.2701  0.0031 -0.1696
22765W        W23629   1.761  27.246   1.751  0.0902  0.2735  0.1058
22766W        W23630  29.132  24.254   2.968  0.3157  0.3491 -0.1305
22767W        W23631   1.329  24.088   1.798 -0.0964 -0.2799  0.1835
22768W        W23632   0.251  26.171   3.526  0.0886  0.2475  0.0451
22769W        W23633   1.805  24.468   2.323  0.2361 -0.0927  0.0113
22770W        W23634  28.197  28.358   3.831 -0.2516  0.0097  0.1200
22771W        W23635   0.652   0.858   2.203  0.0148 -0.2321 -0.0997
22772W        W23636   3.245  28.580   0.114 -0.1047  0.0218  0.1045
22773W        W23637   1.015  27.930   1.573 -0.1567 -0.0987 -0.0861
22774W        W23638   2.798  27.991   3.044  0.1148  0.2117 -0.2797
22775W        W23639   3.150  27.528   3.596  0.0913  0.2095  0.1221
22776W        W23640  29.136  28.065  28.387 -0.2293  0.0319 -0.1675
22777W        W23641   3.565  24.863   1.429 -0.1293  0.3423 -0.1690
22778W        W23642   3.311  26.746   0.437 -0.2145 -0.0183  0.1899
22779W        W23643   1.990   0.464   2.560  0.1454 -0.2729 -0.1379
22780W        W23644  28.741  28.629   2.202 -0.1711 -0.0364 -0.0546
22781W        W23645   0.664  28.407   1.681  0.1846 -0.2103 -0.1774
22782W        W23646   2.720  24.387   5.103 -0.1759 -0.1546 -0.3677
22783W        W23647   1.619  26.625   1.025  0.0092 -0.2276  0.1371
22784W        W23648   4.716   0.232  29.082  0.3496  0.4778  0.2584
22785W        W23649   0.322   1.205   0.691 -0.4604  0.1524 -0.0848
22786W        W23650   1.564  24.566   1.840 -0.2111  0.0134 -0.1816
22787W        W23651   2.676  25.341   0.773  0.1356 -0.0020 -0.1253
22788W        W23652  28.524  28.852   3.172 -0.2416  0.1217  0.1279
22789W        W23653   4.144  25.573   2.273  0.0181  0.0507  0.4525
22790W        W23654  27.062  27.039   0.826 -0.1852 -0.1587  0.2352
22791W        W23655   1.534  27.330   3.848 -0.0786 -0.2825 -0.1536
22792W        W23656   2.542  28.161   1.263  0.1823 -0.2836  0.3662
22793W        W23657   2.286  27.511   0.483 -0.3023  0.1913  0.1696
22794W        W23658   0.038   0.492  28.018 -0.3396 -0.4035 -0.2444
22795W        W23659   1.655  27.083   5.527 -0.0617  0.2542  0.1322
22796W        W23660   1.512  26.228   2.805 -0.2147 -0.1437 -0.1481
22797W        W23661   1.194  26.965   2.368  0.1653  0.1113  0.3273
22798W        W23662   0.276  25.875   0.769 -0.0612  0.1634 -0.1021
22799W        W23663   2.337  24.495   3.053 -0.0005 -0.0879 -0.0822
22800W        W23664   3.316  28.046   1.812  0.1654 -0.1473  0.0050
22801W        W23665   0.839  26.887   4.509  0.0930  0.0744  0.0241
22802W        W23666   3.412  25.956   0.313  0.4905  0.1671 -0.3071
22803W        W23667   0.573  27.938   1.957  0.0384 -0.2009  0.0225
22804W        W23668   3.275  24.550   0.933 -0.0949  0.0871 -0.0240
22805W        W23669   3.607  27.694  28.220 -0.1988 -0.0552  0.1665
22806W        W23670   3.094  26.235   1.182 -0.0259 -0.0117 -0.0436
22807W        W23671   2.548  28.865   2.605 -0.1129 -0.0882 -0.2460
22808W        W23672  27.791  28.735   1.786  0.0977  0.1018  0.0836
22809W        W23673   1.627  25.552   3.287  0.2560 -0.1003  0.0282
22810W        W23674   3.153  27.706   2.668  0.1794 -0.0324 -0.3412
22811W        W23675  28.823  25.685  28.900  0.3275  0.1832 -0.0002
22812W        W23676  28.159  26.808  26.916  0.1190 -0.0938  0.0430
22813W        W23677   2.586  25.538   3.142  0.2935 -0.1165 -0.1423
22814W        W23678  28.450  26.745   2.098  0.1737 -0.2109  0.0890
22815W        W23679   3.029  27.385   4.460  0.4454  0.2076 -0.0588
22816W        W23680   5.806  25.223   2.270 -0.1481  0.2344  0.0488
22817W        W23681   3.264  26.861  28.410  0.1774 -0.1633  0.0496
22818W        W23682   6.871   0.347  28.759  0.0046 -0.0200  0.1902
22819W        W23683   0.575  27.272  28.165 -0.0873  0.2007 -0.0914
22820W        W23684   4.172   0.214   0.701  0.2524 -0.1212 -0.3133
22821W        W23685   1.991  28.139   4.802 -0.1258  0.0027 -0.1011
22822W        W23686   0.202  26.865   2.853 -0.0255 -0.2545  0.0868
22823W        W23687   4.607  26.986   2.691 -0.0048  0.0680 -0.4953
22824W        W23688   3.328  27.741   4.112  0.1021  0.0770  0.2323
22825W        W23689   1.063  27.707   5.637 -0.0622  0.0081  0.1286
22826W        W23690   0.728  24.445  28.535 -0.1197  0.2833 -0.1042
22827W        W23691   3.998  27.664   2.146  0.2413  0.0453 -0.0398
22828W        W23692   0.437  27.118   4.372 -0.0090  0.2237 -0.2014
22829W        W23693   0.357  27.992   3.378 -0.1224 -0.1367 -0.1231
22830W        W23694   4.999  27.781   3.348 -0.0001  0.2636 -0.1669
22831W        W23695   1.751  27.875  28.167 -0.2092  0.2691 -0.0254
22832W        W23696   1.989  28.157   2.847 -0.0314  0.0135 -0.1100
22833W        W23697   0.760  28.836   5.090 -0.1161  0.0287  0.3252
22834W        W23698   2.489  26.461   3.153 -0.1667  0.0018 -0.0987
22835W        W23699  27.778  27.547   1.145 -0.1712 -0.2137  0.0628
22836W        W23700   2.113   0.517   1.344 -0.0504 -0.0677  0.0913
22837W        W23701   1.501  26.335   1.609 -0.2131  0.0397  0.3274
22838W        W23702   3.815  28.674   1.259 -0.1822  0.1176 -0.2641
22839W        W23703   5.087  28.770   2.651  0.1211  0.2381  0.1582
22840W        W23704   3.992  24.847   3.521  0.0097 -0.5027  0.0183
22841W        W23705   0.493   0.211   3.121 -0.2680  0.0923 -0.0053
22842W        W23706   2.186  26.951   1.030  0.0166  0.4304  0.2534
22843W        W23707   3.933  27.943   0.401  0.0583  0.0010  0.1552
22844W        W23708   0.729  28.428   4.090 -0.1781  0.0436 -0.0740
22845W        W23709   3.160  26.706   1.996  0.0013  0.1805 -0.1609
22846W        W23710   1.534  25.022   2.047  0.0813 -0.0212  0.1821
22847W        W23711   1.864  24.910   3.789 -0.1632 -0.1261  0.2061
22848W        W23712   2.010  28.247  29.020  0.1287 -0.2039  0.2047
22849W        W23713   2.633  27.883   2.589  0.1350  0.1066 -0.0115
22850W        W23714  28.492   0.474   3.951  0.0539 -0.0340 -0.0188
22851W        W23715   4.796   0.001   2.772 -0.3773  0.2047  0.1260
22852W        W23716   1.407  27.496   4.673 -0.0105  0.0692 -0.3675
22853W        W23717  26.610  27.451   1.521 -0.0575 -0.0715  0.0922
22854W        W23718   2.808   1.087   1.403 -0.1758 -0.1544 -0.0417
22855W        W23719   4.284   2.967   2.818 -0.1932 -0.2746  0.0155
22856W        W23720   3.859  28.017   3.907 -0.1474  0.2165 -0.2182
22857W        W23721  29.100  28.146   1.242  0.0034 -0.0681  0.0395
22858W        W23722   4.044  28.846   0.823 -0.1039 -0.1194  0.1839
22859W        W23723   2.809  27.582  28.823 -0.1821  0.0019  0.0893
22860W        W23724   4.222  24.815   2.429  0.3324  0.0041 -0.0839
22861W        W23725   2.395   0.190  28.091 -0.0246 -0.2391  0.0769
22862W        W23726   2.139  28.267  27.946  0.3072  0.2257  0.3111
22863W        W23727   2.881  25.073   1.784 -0.0828  0.0764 -0.2451
22864W        W23728   2.999  25.999   2.830  0.4436 -0.1051 -0.0392
22865W        W23729   3.145  26.663   1.517  0.2300 -0.1404 -0.1862
22866W        W23730   0.179  28.000   4.740  0.0089 -0.3082  0.1740
22867W        W23731  28.934  26.664   1.927 -0.0075  0.0910  0.2076
22868W        W23732   2.015   1.830   3.674  0.1647  0.4103 -0.0634
22869W        W23733  28.922  27.908   1.598 -0.2243 -0.1392  0.2899
22870W        W23734   5.214  27.708   1.182  0.0548  0.1510  0.3565
22871W        W23735   2.294  28.068   3.361  0.1894 -0.0684 -0.2385
22872W        W23736   4.736  28.370  28.997 -0.1299 -0.0557 -0.2088
22873W        W23737   0.860  28.894   0.643  0.3447  0.0866  0.0955
22874W        W23738   4.560  27.731   2.253  0.1929 -0.3187  0.4978
22875W        W23739   2.625  28.442   1.859 -0.3450  0.1198  0.0268
22876W        W23740   1.355  27.572   0.406  0.0437  0.1216 -0.0382
22877W        W23741   4.135  28.639   1.857 -0.0563 -0.1101  0.2206
22878W        W23742   3.945  23.576   3.672  0.1218 -0.1974  0.2092
22879W        W23743   1.443  25.681   4.873 -0.0809  0.0829  0.0859
22880W        W23744   1.792  26.002   1.386  0.1068  0.2224  0.1303
22881W        W23745   2.405  23.505   0.562  0.0059 -0.1005  0.2280
22882W        W23746   0.939  28.814   3.540  0.3162 -0.2249 -0.0011
22883W        W23747   3.573  26.347   1.293  0.1192 -0.1596  0.0448
22884W        W23748   2.212  25.479   1.111 -0.0365  0.0466 -0.0709
22885W        W23749   1.061  27.121   1.122  0.0480 -0.1502  0.0096
22886W        W23750  26.715  27.965   3.118  0.1786 -0.1416  0.0189
22887W        W23751   2.763  27.504   1.695 -0.0980  0.0501 -0.3199
22888W        W23752   2.741  25.723   2.044  0.0335  0.1251  0.3328
22889W        W23753   2.404  26.835   3.874 -0.0113 -0.0577 -0.1856
22890W        W23754  27.378  25.412   2.901  0.1305  0.1741 -0.3111
22891W        W23755   2.662  25.386   0.199 -0.1293  0.2207 -0.0038
22892W        W23756   2.906  27.899   2.176  0.2986 -0.2201  0.1164
22893W        W23757   0.619  28.238   2.998  0.2808 -0.1163 -0.1602
22894W        W23758   3.784  26.921   0.324 -0.0925  0.2182  0.2105
22895W        W23759   2.124  28.242   1.780 -0.1917  0.0661  0.2702
22896W        W23760   1.355  26.154   1.086  0.0545  0.3258  0.1732
22897W        W23761   1.383   0.218   2.526 -0.0038 -0.1304 -0.0693
22898W        W23762   2.631  26.223   0.285 -0.1126 -0.2193 -0.0377
22899W        W23763   3.198  25.805   2.444 -0.1368  0.0333 -0.1428
22900W        W23764   3.480  27.561   2.191 -0.2301  0.0457 -0.2187
22901W        W23765   5.897  28.550   0.488  0.1336 -0.3684 -0.1129
22902W        W23766   1.412  27.662   1.874  0.1668 -0.0615  0.0858
22903W        W23767   0.336  28.503   1.331  0.1916  0.0422 -0.4970
22904W        W23768   0.527  27.501   2.255  0.0704 -0.1108 -0.1742
22905W        W23769   1.647  28.536   2.551  0.0711 -0.0714  0.1459
22906W        W23770   6.599  26.539  27.025 -0.0299  0.1298 -0.0657
22907W        W23771   4.285  27.927   1.812 -0.0908  0.2550  0.2787
22908W        W23772   1.392   0.092   1.367 -0.2741 -0.2200 -0.0884
22909W        W23773   2.355  28.060   2.190  0.0045 -0.1281 -0.3849
22910W        W23774   0.641  27.192   0.881 -0.2298 -0.0647 -0.0745
22911W        W23775   5.001  24.484   1.122 -0.1815 -0.1150 -0.0654
22912W        W23776  25.202  27.506  27.944  0.0914  0.1180  0.0962
22913W        W23777   1.624  28.164   1.537  0.1472  0.1796 -0.0847
22914W        W23778   0.035  27.230   4.659  0.0742  0.3916 -0.1342
22915W        W23779   1.307  27.435   1.452  0.0732  0.4736 -0.0507
22916W        W23780   2.017   0.977   1.043 -0.1099  0.2324  0.0427
22917W        W23781  28.320  28.329   2.128 -0.1062 -0.0876 -0.0846
22918W        W23782  28.889  28.909   4.852 -0.1954 -0.2590 -0.0983
22919W        W23783   1.153  28.415  27.784 -0.1304  0.0678  0.2401
22920W        W23784   2.269  26.422   5.844 -0.0141 -0.2970 -0.1636
22921W        W23785   1.084   0.446   2.150 -0.3723 -0.2938 -0.0170
22922W        W23786   1.227  26.396  29.080 -0.0074  0.0994 -0.2905
22923W        W23787   1.043   0.692   4.627 -0.1934 -0.1840 -0.1594
22924W        W23788   4.674   1.678  28.586  0.1170  0.1186 -0.2417
22925W        W23789   1.744  25.642   4.470 -0.2206 -0.4288 -0.2773
22926W        W23790   3.368   0.193   1.213 -0.2853  0.0476 -0.3902
22927W        W23791   0.818  27.104   1.569  0.0184  0.0812  0.0508
22928W        W23792   1.618  28.341   1.039  0.0599 -0.0728 -0.0122
22929W        W23793  27.855  26.701   2.284 -0.1407 -0.0382  0.0351
22930W        W23794   2.302  27.485   1.022 -0.3019 -0.3915 -0.1590
22931W        W23795   1.735  27.148   1.117 -0.0342 -0.0064 -0.0615
22932W        W23796   2.443  25.614   1.528  0.0055  0.1549  0.1503
22933W        W23797   0.399  26.577   4.429  0.0258 -0.3107  0.1487
22934W        W23798   5.398  25.168   1.967 -0.1355  0.1696  0.3555
22935W        W23799   3.327  28.746   4.092 -0.2131 -0.2371  0.0039
22936W        W23800   2.480   0.457   3.738  0.2299 -0.3326  0.2200
22937W        W23801   3.094  28.393   2.102 -0.2134 -0.0282 -0.1440
22938W        W23802   1.433  28.796   1.650  0.2546 -0.0440  0.2636
22939W        W23803   1.224  26.000   3.162  0.1261 -0.1946 -0.1368
22940W        W23804   5.448  28.514   3.182  0.3156  0.1336 -0.0629
22941W        W23805   2.764  26.016   3.325 -0.1757  0.0456 -0.0514
22942W        W23806   1.360  23.966   2.622 -0.2775 -0.2386 -0.0654
22943W        W23807   1.226  28.907   2.631 -0.2264 -0.0792  0.2802
22944W        W23808   2.688  25.585   5.098 -0.2044 -0.1568  0.1868
22945W        W23809   3.996  24.937   1.571  0.1856  0.0756  0.2222
22946W        W23810  28.231   0.787   1.249  0.2878 -0.0842 -0.0827
22947W        W23811  28.541  27.971   2.411  0.0760  0.0319  0.1868
22948W        W23812   2.052   2.105   5.187 -0.2597 -0.0796 -0.0875
22949W        W23813  27.991  28.653   2.696  0.0541 -0.2800  0.0642
22950W        W23814   0.174  24.739   0.886  0.0328 -0.0602  0.1772
22951W        W23815   2.213  25.329   3.783  0.0757  0.2163 -0.2290
22952W        W23816  28.497  26.923   1.563  0.0805  0.1522  0.3493
22953W        W23817   4.022  27.547   0.925  0.2042  0.3478  0.0408
22954W        W23818   1.346  25.605   2.804  0.1495  0.5643  0.0590
22955W        W23819   2.808  26.727   4.648 -0.2541 -0.2335 -0.0622
22956W        W23820   3.440  27.991   3.024  0.1880 -0.0588  0.0213
22957W        W23821   2.722  27.571   0.832  0.1024 -0.1176  0.3092
22958W        W23822   2.905  24.650   4.556 -0.3419 -0.0507 -0.0416
22959W        W23823  27.814   0.094   1.804 -0.1751  0.0771  0.2490
22960W        W23824   1.770  24.004   5.629  0.4391  0.1872  0.1206
22961W        W23825   0.188  27.065   3.893  0.0737  0.1971  0.2000
22962W        W23826   0.760  26.682   0.801 -0.1506  0.1621 -0.0780
22963W        W23827   0.885  24.511   3.860  0.4243 -0.1429 -0.1479
22964W        W23828   2.412  23.426   3.387 -0.0512 -0.0647 -0.1108
22965W        W23829   0.643  27.131   0.239 -0.0584 -0.2149  0.3970
22966W        W23830   3.035  24.878   1.344  0.0787 -0.1429 -0.0453
22967W        W23831   4.593   0.381   2.454  0.0770  0.1065 -0.2422
22968W        W23832   4.462  28.975   1.995 -0.1384 -0.1624  0.0499
22969W        W23833  28.924  28.611   1.230 -0.0623  0.0499  0.1325
22970W        W23834   4.354  26.501   2.531  0.2289  0.0795 -0.0833
22971W        W23835  28.838  26.549   1.460  0.1937 -0.0231 -0.1790
22972W        W23836   4.764  26.892   0.473 -0.1120  0.0396 -0.0628
22973W        W23837   2.489  26.214  28.467 -0.2332 -0.0372  0.2086
22974W        W23838   2.533  27.957   1.683  0.0703  0.0970 -0.1820
22975W        W23839   0.508  28.929   1.617 -0.2387 -0.1522 -0.0869
22976W        W23840   3.846   0.294   5.079  0.1038  0.0993  0.1826
22977W        W23841   1.906  28.859   1.869 -0.0776  0.3113  0.0258
22978W        W23842   1.509  26.839   4.075 -0.1850 -0.0518 -0.0097
22979W        W23843   2.263  24.611   5.895  0.0422  0.0283 -0.0044
22980W        W23844   2.540   0.586   1.575  0.0973  0.2372 -0.1682
22981W        W23845   2.988  25.791   7.007  0.1743 -0.3930  0.0702
22982W        W23846   1.582  27.336   3.261 -0.0647  0.0043  0.2726
22983W        W23847   2.095  26.588   3.476  0.1349 -0.0599  0.1073
22984W        W23848  28.533  26.004   2.175  0.0042  0.0317 -0.1141
22985W        W23849   1.381  26.469   2.350  0.0080  0.1428 -0.0580
22986W        W23850   3.808  27.189   2.375 -0.1553 -0.1101 -0.0045
22987W        W23851   1.857  27.999   2.268  0.0355  0.2790 -0.0521
22988W        W23852   1.231  28.645   2.216 -0.3279 -0.0469  0.2510
22989W        W23853   4.769   1.721   0.498  0.0462 -0.1237 -0.0750
22990W        W23854  28.646   0.182   3.412  0.1103 -0.3291 -0.2523
22991W        W23855  27.825  27.822   3.077  0.2210  0.3136 -0.0656
22992W        W23856   2.158   0.077   3.795 -0.0295 -0.3118 -0.0387
22993W        W23857   0.441   0.941   5.226 -0.0052 -0.0942  0.0228
22994W        W23858   0.785  28.031   1.109 -0.2321 -0.1980  0.0232
22995W        W23859   2.273  28.533   4.868 -0.0214 -0.2590 -0.1038
22996W        W23860   2.377  28.830   3.586 -0.0344 -0.1540  0.1236
22997W        W23861   1.743   0.323   1.644 -0.2439  0.1626  0.0073
22998W        W23862   3.076  25.147   5.569  0.2114  0.0649  0.1636
22999W        W23863   1.160  28.391   1.758  0.0479 -0.1981 -0.0794
23000W        W23864   0.675  28.294   4.580  0.1378  0.3024 -0.1119
23001W        W23865   0.280  26.868   0.552 -0.0492 -0.0270  0.0916
23002W        W23866   3.445  25.617  28.729  0.0043  0.1775  0.0098
23003W        W23867   1.398   1.780   5.996  0.0888  0.2256  0.2280
23004W        W23868   3.209   0.656   5.569  0.5411 -0.1781 -0.1503
23005W        W23869   2.680   0.022   5.151 -0.0862  0.1793  0.0062
23006W        W23870   3.849   0.449   7.094  0.2718 -0.0055  0.1187
23007W        W23871  28.193   0.431   2.616  0.1584 -0.1810  0.0005
23008W        W23872  28.758   0.954   2.223 -0.1676  0.3029 -0.0026
23009W        W23873   1.696  26.508   6.652  0.0915 -0.1610 -0.0601
23010W        W23874   3.720  27.186   6.254  0.0092 -0.0033 -0.0517
23011W        W23875   0.278  27.187   5.509  0.2341  0.1518  0.3113
23012W        W23876   0.791  25.149   5.193 -0.3865 -0.2893  0.0792
23013W        W23877   2.986  24.555   7.718  0.4180  0.0170 -0.0192
23014W        W23878   4.873  26.613   7.499 -0.0911 -0.1475  0.1052
23015W        W23879   3.414  25.154   5.226 -0.2642  0.0326  0.1192
23016W        W23880   4.482  27.451   7.962  0.0328  0.1802  0.2992
23017W        W23881   1.650  25.486   7.016 -0.1628  0.0406 -0.1796
23018W        W23882   3.139  27.697   6.561 -0.0521 -0.2558 -0.2086
23019W        W23883   1.377  28.809   4.866  0.0760  0.1750  0.2333
23020W        W23884   0.970  28.574   6.911  0.1384  0.1686  0.1693
23021W        W23885   1.768  27.275   6.800  0.1890  0.0785  0.1692
23022W        W23886   5.444  23.977   6.932 -0.0439  0.0339  0.4608
23023W        W23887   4.217  28.941   7.831 -0.1407  0.1080 -0.0324
23024W        W23888   2.324  27.028   4.529  0.2645  0.0997 -0.2191
23025W        W23889   2.202  27.489   5.149 -0.0819  0.3974  0.1061
23026W        W23890   0.444  28.210   7.752  0.1618  0.0928  0.2492
23027W        W23891   0.028  27.884   6.052 -0.0566 -0.0154  0.3022
23028W        W23892   4.123  28.355   7.112 -0.2814 -0.1639 -0.1749
23029W        W23893   5.232  29.120   7.326 -0.0393  0.1018 -0.0071
23030W        W23894   1.321  26.837   8.455 -0.0023 -0.2404  0.2403
23031W        W23895   1.204  28.210   4.068  0.0640  0.1412 -0.1872
23032W        W23896   3.337  27.066   6.910 -0.1066  0.3047 -0.0712
23033W        W23897   1.772  24.328   5.118 -0.1382  0.2948 -0.1393
23034W        W23898   2.551   0.638   5.130  0.0172  0.0082 -0.1727
23035W        W23899  28.970  27.957   5.140 -0.0474 -0.2473 -0.1219
23036W        W23900   2.889  25.761   7.471 -0.0957  0.2658  0.2203
23037W        W23901   0.750  26.508   7.190 -0.0476 -0.0808  0.0881
23038W        W23902   3.367   0.573   7.146 -0.0909 -0.1468 -0.1781
23039W        W23903   1.904  27.115   4.839  0.1200  0.1022  0.1223
23040W        W23904   1.749   0.127  11.907 -0.2296  0.1079 -0.1178
23041W        W23905   6.194  27.636   5.147 -0.0872 -0.1991  0.2853
23042W        W23906   4.794  26.248   7.799  0.1210  0.1387  0.0928
23043W        W23907   2.600  25.431   4.509  0.0062  0.0393  0.0604
23044W        W23908   4.332  24.643   8.219 -0.2422  0.0370 -0.0142
23045W        W23909  28.888  27.089   6.897 -0.1282 -0.0456 -0.2156
23046W        W23910   4.565  28.056   6.151 -0.0414  0.1882  0.1626
23047W        W23911  28.443  28.483   2.629  0.0412  0.1154 -0.1863
23048W        W23912   1.085  27.673   5.060  0.0378  0.2304 -0.2417
23049W        W23913   0.939  25.177   7.696 -0.1961 -0.2633 -0.0437
23050W        W23914   3.284  27.487  10.111  0.2638 -0.0954  0.0519
23051W        W23915   3.574   1.747   4.829  0.0134 -0.2098  0.0892
23052W        W23916   2.971  26.003   5.185 -0.0921 -0.0492 -0.0385
23053W        W23917   2.604   0.980   6.335  0.0099  0.0485 -0.3128
23054W        W23918   1.168  24.710   5.948 -0.1117  0.2053 -0.1047
23055W        W23919   1.150  28.990   4.465  0.2450 -0.0536 -0.0365
23056W        W23920   2.473  26.905   5.012 -0.1366  0.3237  0.2705
23057W        W23921   4.108  23.674   4.102  0.1498 -0.0686  0.0409
23058W        W23922   0.706  28.776   4.461 -0.0952 -0.1340  0.0343
23059W        W23923   0.342  23.056   5.959 -0.1335  0.1927  0.0914
23060W        W23924   0.265  27.520   5.056  0.2134 -0.0973  0.0964
23061W        W23925   2.248   1.123   5.182  0.2587 -0.0596 -0.2795
23062W        W23926   0.191   1.018   4.356 -0.2182  0.0810 -0.1043
23063W        W23927   1.142  28.410   4.512 -0.2577  0.1227  0.1072
23064W        W23928   0.092   3.033   7.210  0.0385 -0.0815 -0.0400
23065W        W23929   3.560  27.489   6.644  0.0097  0.1447  0.1156
23066W        W23930   3.020  27.113   4.939 -0.1651 -0.0219  0.1994
23067W        W23931   2.176  26.935   8.783  0.0856 -0.1142 -0.1112
23068W        W23932   5.407  26.022   6.744  0.1869  0.2204 -0.1723
23069W        W23933   0.978  28.304   3.500  0.1218  0.1401 -0.2962
23070W        W23934   2.433  24.725   5.407 -0.1838 -0.0048  0.0564
23071W        W23935  27.976   0.011   4.092  0.0086 -0.0261 -0.1903
23072W        W23936   1.877   0.261   2.117  0.0202  0.1041  0.1290
23073W        W23937   2.297  25.561   5.451 -0.0683  0.1231 -0.1924
23074W        W23938   3.601  26.814   5.393 -0.0476 -0.0536 -0.3871
23075W        W23939   2.926   0.564   6.068  0.0152 -0.4951 -0.1664
23076W        W23940   3.304  28.651   6.863  0.0951  0.1985 -0.0636
23077W        W23941   3.524  28.094   6.437  0.0021  0.0318  0.2146
23078W        W23942   4.954  24.612   7.133  0.4255  0.0591  0.1408
23079W        W23943   1.535  28.051   2.689  0.1238 -0.0905  0.1448
23080W        W23944   2.004  26.011   5.678 -0.4079 -0.0397  0.1827
23081W        W23945   4.474  26.336   6.948  0.0190  0.0790  0.0611
23082W        W23946   1.695  28.879   5.239  0.0520  0.1490  0.2236
23083W        W23947  27.836  27.047   4.333 -0.1399  0.4343 -0.0238
23084W        W23948   2.032  28.497   6.592  0.0321 -0.0139  0.0911
23085W        W23949   2.463  26.557   5.377 -0.0176 -0.0191  0.1939
23086W        W23950   2.396  25.493   8.913 -0.0064 -0.0463 -0.2469
23087W        W23951   2.319  26.602   7.771 -0.3435  0.0620  0.1740
23088W        W23952   2.677  24.936   5.874  0.2809 -0.0698 -0.0283
23089W        W23953   4.387  27.204   4.882 -0.3517  0.0048  0.0150
23090W        W23954   0.866  25.682   6.973  0.2924  0.0685  0.1418
23091W        W23955   3.423  28.457   7.753  0.0723  0.1310  0.1859
23092W        W23956   1.742  27.117   8.489 -0.2707  0.3112  0.3652
23093W        W23957   4.246  24.933   6.887  0.3508  0.5089  0.2294
23094W        W23958   4.459  26.096   8.285 -0.0099 -0.2319 -0.0588
23095W        W23959   1.788  28.612   7.886 -0.0100 -0.1320  0.2466
23096W        W23960   0.557  24.853   6.854 -0.1258 -0.1404 -0.2526
23097W        W23961   1.151  25.642   9.160 -0.1718  0.1731  0.1057
23098W        W23962   2.847  25.090   4.986  0.0947 -0.0881 -0.0017
23099W        W23963   1.459  28.755   7.016  0.0746 -0.2311  0.0688
23100W        W23964   3.279  26.912   4.425 -0.1742  0.0176  0.1929
23101W        W23965   3.833  25.070   6.531  0.2799  0.2077 -0.0318
23102W        W23966   2.242   0.522   4.192  0.0935 -0.1537  0.3219
23103W        W23967  28.813  26.559   5.674 -0.0193 -0.1211 -0.0799
23104W        W23968   2.236  25.825   5.050  0.0937 -0.1052 -0.0989
23105W        W23969   3.322   2.224   4.919  0.1347 -0.3784  0.0350
23106W        W23970   6.385  26.425   7.978 -0.1257  0.1125  0.1529
23107W        W23971   1.216  26.494   6.941  0.4345  0.0444  0.0936
23108W        W23972   2.937  26.792   3.092 -0.1812 -0.0173  0.2667
23109W        W23973   0.048  26.300   9.122  0.1019  0.1640 -0.0674
23110W        W23974   2.852  28.459   6.984 -0.0560  0.1110 -0.2257
23111W        W23975   0.717  25.599   4.743 -0.1730 -0.0988  0.1248
23112W        W23976   0.819  27.377   4.679  0.0322 -0.4287  0.0614
23113W        W23977   2.657   0.700   7.408 -0.1490 -0.0767 -0.1338
23114W        W23978   3.211   0.687   7.588 -0.1149 -0.2735 -0.1811
23115W        W23979   0.144  27.856   7.448 -0.3733  0.1417 -0.2111
23116W        W23980   1.114  28.754   3.976 -0.1343  0.1700 -0.3275
23117W        W23981   4.317  27.776   4.477 -0.0522  0.1124 -0.1631
23118W        W23982   2.123  26.963   5.954  0.0158 -0.0667  0.0104
23119W        W23983   3.481  26.704   3.974  0.0216 -0.1344 -0.0523
23120W        W23984   1.759  22.427   7.730 -0.1628  0.0515 -0.3242
23121W        W23985   2.917  26.545   4.141 -0.0897 -0.3291 -0.1132
23122W        W23986   4.223  24.152   5.000  0.3468  0.0153  0.0450
23123W        W23987   2.366  27.854   4.901 -0.4256 -0.1108 -0.0982
23124W        W23988   3.752  27.183   7.935 -0.0517  0.2366  0.2887
23125W        W23989   1.690  28.132   4.298 -0.3690 -0.2274 -0.1474
23126W        W23990   1.992  27.110   3.981 -0.0823  0.2154 -0.0856
23127W        W23991   1.059  26.423   8.189 -0.0753  0.0669  0.2228
23128W        W23992   0.476  26.834   7.470  0.0322 -0.0046  0.0096
23129W        W23993   4.282  27.485   5.391  0.1202 -0.2385 -0.0117
23130W        W23994   3.044   3.354   7.621 -0.0532  0.2079 -0.2351
23131W        W23995  29.040  26.297   5.250 -0.0441  0.0098  0.1677
23132W        W23996   2.355  28.865   7.345 -0.1431 -0.0116  0.2047
23133W        W23997   1.027  26.164   6.103  0.0417  0.0016  0.0087
23134W        W23998   4.584  28.468   1.773  0.1783  0.4601 -0.1687
23135W        W23999   3.075  27.182   5.802 -0.0499 -0.2278  0.3498
23136W        W24000   3.985  28.019   7.483  0.0964 -0.0098  0.0233
23137W        W24001   1.565  27.533   7.215  0.0507  0.3118  0.0905
23138W        W24002   3.253  28.468   5.668  0.1459 -0.3861 -0.1789
23139W        W24003   3.098  26.654   9.809  0.2077  0.1500 -0.2901
23140W        W24004   0.980  26.993   5.021  0.0305  0.1672 -0.2052
23141W        W24005   2.639   0.714   3.291  0.2154 -0.0109  0.1650
23142W        W24006   1.092  26.884   3.704  0.0741 -0.1245 -0.1118
23143W        W24007   2.527  25.513   7.089 -0.2072 -0.1367 -0.1094
23144W        W24008   0.902  26.406   5.301 -0.0147 -0.0791  0.0768
23145W        W24009   1.386   0.028   1.935 -0.3297 -0.0318 -0.1708
23146W        W24010   4.168  26.315   7.929 -0.1055 -0.1293  0.2908
23147W        W24011   0.869  25.593   6.070  0.1161  0.1639  0.0693
23148W        W24012   1.575  25.174   6.176 -0.3298  0.2544 -0.2996
23149W        W24013   2.163   0.971   6.459 -0.0554 -0.0258  0.0394
23150W        W24014   1.635   0.669   8.566 -0.3520  0.0542 -0.3119
23151W        W24015   1.419  26.827   5.927  0.0185  0.1450  0.0770
23152W        W24016   2.610  27.489   5.853 -0.0167 -0.0496 -0.0187
23153W        W24017   0.923  23.228   5.590  0.1979  0.2017 -0.0642
23154W        W24018   0.836  27.041   7.214 -0.1149 -0.0504  0.1278
23155W        W24019   1.601  26.273   3.809  0.0216 -0.0080  0.2102
23156W        W24020  29.037  26.443   8.113  0.0705  0.3465  0.0258
23157W        W24021   2.682  26.879   8.769  0.0532  0.1707 -0.1990
23158W        W24022   2.050  27.556   4.660  0.0193  0.1104  0.0406
23159W        W24023   1.578  25.006   5.737  0.1227  0.4297  0.0638
23160W        W24024   4.842  28.143   2.043  0.1830 -0.2360 -0.3314
23161W        W24025   4.024  25.878   4.855 -0.1342 -0.2333  0.1800
23162W        W24026   4.085  26.904   8.175  0.3274 -0.0174 -0.0083
23163W        W24027   0.785  27.419   8.200  0.3867 -0.0797 -0.0901
23164W        W24028   3.587  27.838   8.259 -0.0068 -0.2833 -0.0914
23165W        W24029   1.147  27.286  10.030  0.0153 -0.1183  0.0189
23166W        W24030   1.871  27.638   6.479 -0.0942  0.0357  0.0466
23167W        W24031  28.228  27.283   6.540  0.0131  0.1180 -0.2468
23168W        W24032   2.818  24.477   5.987 -0.2949 -0.1926  0.1978
23169W        W24033   1.572  26.840   7.106  0.2861  0.0307  0.0814
23170W        W24034   1.955  28.360  10.349 -0.0286  0.0858  0.2184
23171W        W24035   0.865  25.861   4.228  0.1970  0.1380 -0.3599
23172W        W24036   4.796   0.471   6.100  0.1175 -0.0077 -0.2866
23173W        W24037   0.957  26.140   6.784 -0.0573 -0.0969 -0.3208
23174W        W24038   3.970  28.562   7.571  0.2878  0.1244  0.4350
23175W        W24039   3.219   1.374   4.930 -0.0261  0.0327  0.0067
23176W        W24040   1.594  23.731   5.170  0.1946 -0.1320 -0.0690
23177W        W24041   3.376  25.511   7.143 -0.1431  0.0189  0.3370
23178W        W24042   0.176   1.099   7.016  0.2006 -0.1107  0.2111
23179W        W24043  28.687   0.297   6.979  0.1179 -0.2219 -0.1932
23180W        W24044   0.360   2.216   6.497  0.2054 -0.0970 -0.1701
23181W        W24045   1.445  25.593   7.947  0.0283  0.1085 -0.0008
23182W        W24046  29.026  27.239   2.896 -0.3337  0.1357  0.1828
23183W        W24047   3.662   2.801   3.217 -0.2441  0.2865  0.0509
23184W        W24048   2.527  26.202   5.011  0.0560  0.0023 -0.0777
23185W        W24049   2.853  28.001   3.707 -0.1174 -0.2817 -0.0929
23186W        W24050   2.211  25.704   4.137 -0.2123 -0.3739 -0.0725
23187W        W24051   3.124  27.238   7.400 -0.2143 -0.0172 -0.2326
23188W        W24052   3.658  24.645   6.340 -0.0357 -0.0506 -0.0557
23189W        W24053   1.471  27.071   5.069 -0.1664 -0.4642  0.0257
23190W        W24054  27.064  27.781   4.740  0.0830  0.0313 -0.0242
23191W        W24055   2.225  27.040   5.491 -0.3491  0.0399  0.0436
23192W        W24056   1.681  27.925   3.809  0.1288 -0.1322 -0.1233
23193W        W24057   0.069  27.107   6.438  0.0148 -0.0921 -0.1539
23194W        W24058  28.711  27.167   6.387  0.3178 -0.2201  0.3308
23195W        W24059   3.128  22.895   7.692 -0.0646 -0.3630 -0.0474
23196W        W24060   4.040  27.379   7.262 -0.0470  0.1539 -0.0610
23197W        W24061   1.808  26.851   6.312  0.1800 -0.1724 -0.1434
23198W        W24062   1.821  24.731   5.370 -0.2866 -0.2877 -0.1350
23199W        W24063   0.476  26.546   8.891  0.1965  0.0407 -0.0826
23200W        W24064   0.895  26.943   8.196 -0.1959 -0.2413 -0.1504
23201W        W24065   4.053  24.520   3.902 -0.3176  0.0285 -0.1084
23202W        W24066   0.294  26.126   4.416  0.3171  0.1461  0.1188
23203W        W24067   2.370  24.446   6.804 -0.4108  0.2566 -0.2025
23204W        W24068   3.782  27.787   1.711  0.1369 -0.1374 -0.0293
23205W        W24069   2.547  26.620   8.226 -0.1008  0.1012 -0.2509
23206W        W24070   0.657  23.665   4.783  0.0620  0.2017 -0.2359
23207W        W24071   0.018  28.524   3.053  0.2738 -0.0945 -0.1412
23208W        W24072   2.957  27.951   9.173 -0.1429 -0.2900 -0.0954
23209W        W24073   2.004  27.581   4.016  0.2838  0.2098  0.3019
23210W        W24074   1.055   0.201   5.713 -0.1098  0.1873 -0.0756
23211W        W24075  28.415  26.476   4.622 -0.4206  0.2311  0.0561
23212W        W24076   1.937  26.741   5.256  0.0269  0.1151 -0.3696
23213W        W24077   0.039  27.450   7.806  0.0108  0.0091  0.0366
23214W        W24078   3.649  25.842   6.424  0.1762  0.2006 -0.3387
23215W        W24079   4.536  26.325   8.762 -0.1456 -0.2208  0.1262
23216W        W24080   2.437  28.208   5.242  0.3027  0.3083 -0.1318
23217W        W24081   2.411  28.851   5.536 -0.2060 -0.1791 -0.2768
23218W        W24082   1.171  29.069   5.281  0.1105 -0.0140  0.1913
23219W        W24083   1.427  28.518   3.525 -0.2357 -0.3548  0.0612
23220W        W24084   0.841  26.302  10.271 -0.0477 -0.0263 -0.2497
23221W        W24085   0.567   0.026   7.360  0.0098 -0.0095 -0.0906
23222W        W24086   3.920  25.880   7.533  0.1030  0.2037  0.1536
23223W        W24087   2.161  27.208   6.345  0.0053 -0.1334  0.0259
23224W        W24088   2.609   1.854   6.542 -0.3301  0.1436 -0.0276
23225W        W24089   0.043  25.603   3.492 -0.0456  0.2221 -0.0002
23226W        W24090   2.681  27.562   3.361  0.0843 -0.0014  0.0679
23227W        W24091   1.548  26.143   5.980  0.0167  0.1197  0.2802
23228W        W24092   1.781  25.804   5.308  0.1300  0.0817  0.0977
23229W        W24093   3.910  27.864   6.612  0.3677  0.4506  0.1737
23230W        W24094   1.183   0.233   4.785 -0.1408 -0.3087 -0.0319
23231W        W24095   1.680  26.244   7.115 -0.1788 -0.0833 -0.3178
23232W        W24096   2.650  26.177   7.683  0.1145  0.0415  0.1922
23233W        W24097  28.899  28.550   8.536 -0.0438 -0.0934 -0.0779
23234W        W24098   1.297  28.264   5.821  0.2876  0.0277 -0.1369
23235W        W24099   3.298  27.168   5.329 -0.2768  0.1215 -0.0818
23236W        W24100   1.240  27.667   8.003  0.0008 -0.3850 -0.2439
23237W        W24101  28.947  27.689   4.723  0.1433  0.1427  0.1239
23238W        W24102   2.832  27.645   4.103  0.1785 -0.0208  0.0602
23239W        W24103   5.135  24.732   9.357  0.0080 -0.1537  0.0861
23240W        W24104   1.195  26.574   6.289  0.2468  0.0576 -0.0231
23241W        W24105   2.917  23.868   4.532  0.2738 -0.2067 -0.2065
23242W        W24106   0.685  27.994   3.767  0.4131 -0.0754  0.2289
23243W        W24107  28.004  27.999  10.803 -0.0381 -0.1848 -0.0444
23244W        W24108   2.495  24.747   8.525  0.2323  0.1596 -0.1540
23245W        W24109   0.517  26.321   5.824 -0.0243  0.0017  0.0532
23246W        W24110   3.721  25.860   5.863  0.0180 -0.0875  0.0968
23247W        W24111   0.525  26.161   2.425  0.0285 -0.2542  0.0681
23248W        W24112   2.310   1.677   4.377  0.0173  0.1361  0.2987
23249W        W24113  29.137  27.333   5.998 -0.2145  0.0118 -0.0242
23250W        W24114   5.578  28.550   6.345  0.0916 -0.2743  0.0760
23251W        W24115   0.780  25.944   5.448  0.0754  0.0855  0.1203
23252W        W24116  27.894  26.807   5.373  0.0055  0.0445  0.1966
23253W        W24117  26.213  29.083   6.203 -0.0690  0.2942  0.1960
23254W        W24118   2.982   0.073   9.323  0.0960  0.1043 -0.0192
23255W        W24119   2.201  27.509   7.491  0.1322  0.0476 -0.0798
23256W        W24120   0.891  25.109   3.932 -0.1890 -0.1182  0.1283
23257W        W24121   4.387  27.698   3.204 -0.0315  0.0874 -0.0892
23258W        W24122   2.616  26.124   4.037 -0.0108 -0.0029 -0.0062
23259W        W24123   0.967  23.019   8.203 -0.2112  0.0096 -0.2822
23260W        W24124   4.409  25.764   3.925  0.0699 -0.1293  0.0207
23261W        W24125   2.915  23.933   5.083  0.4163 -0.2905  0.0736
23262W        W24126   4.584  25.263   4.089 -0.0409  0.1235  0.1332
23263W        W24127   4.011  27.306   6.648 -0.1874  0.0029  0.2564
23264W        W24128   1.912  27.006   7.819 -0.0537  0.4908  0.1994
23265W        W24129   4.582  23.832   7.705 -0.1878  0.3919 -0.1024
23266W        W24130   2.740   0.998   5.486 -0.0691  0.1902  0.3146
23267W        W24131   5.114  27.179   7.198 -0.0400  0.1184  0.1412
23268W        W24132  28.981  28.159   3.381  0.0489 -0.0544 -0.1384
23269W        W24133   4.621  29.119   6.006 -0.0801 -0.2255  0.2514
23270W        W24134   0.704  25.311   6.698 -0.3706 -0.1073  0.0957
23271W        W24135   1.673  26.180   3.305  0.0166  0.1414 -0.1797
23272W        W24136   1.109  27.383   3.491  0.1110 -0.4210  0.2952
23273W        W24137   1.335  27.161   8.016  0.1750 -0.1728  0.0744
23274W        W24138   2.912  26.822   9.390  0.1602 -0.0883 -0.1389
23275W        W24139   0.538  27.733   5.781  0.1089 -0.0631 -0.4311
23276W        W24140   1.099   1.545   6.517 -0.0842  0.0190  0.2078
23277W        W24141   2.829  26.879   6.419  0.0134 -0.1946  0.0522
23278W        W24142   1.894  24.804   8.141  0.0512  0.0387  0.2784
23279W        W24143   1.825  26.508   5.655 -0.0885  0.4016  0.0381
23280W        W24144   1.928  25.912   6.185  0.2389 -0.0465 -0.0637
23281W        W24145  29.032   0.428   7.316  0.1725  0.1413  0.2788
23282W        W24146   1.413  27.332   9.267 -0.1129  0.0951 -0.1525
23283W        W24147  28.726  26.022   5.673 -0.0209  0.0659 -0.0137
23284W        W24148   0.624  27.822   4.918 -0.1009  0.1128 -0.2633
23285W        W24149   0.579   0.232   6.636  0.0001  0.0854  0.0685
23286W        W24150   3.472  28.884   5.508 -0.1071  0.2356  0.2822
23287W        W24151   3.008  27.410   9.223 -0.1246 -0.2776 -0.0211
23288W        W24152   3.122  26.714   6.032  0.2681 -0.1700 -0.0205
23289W        W24153   0.556  27.028   6.492  0.0810 -0.2043 -0.0237
23290W        W24154   2.724  25.326   3.537  0.3614  0.0269 -0.2187
23291W        W24155   1.695  27.596   5.086  0.1729  0.1150 -0.0035
23292W        W24156   2.648  26.146   2.370  0.0187 -0.2135 -0.2585
23293W        W24157   3.205  24.294   5.795  0.0672 -0.3270  0.0271
23294W        W24158   3.193  25.616   6.534 -0.2477 -0.2170  0.1992
23295W        W24159   2.673  29.029   7.802 -0.0467  0.0590 -0.0704
23296W        W24160   1.147  27.850   3.735  0.1286 -0.1633  0.0801
23297W        W24161   2.413  26.619   4.308  0.0826 -0.0024  0.0863
23298W        W24162   1.898  26.183   8.669  0.2144  0.2059 -0.3927
23299W        W24163   1.973  24.837   4.864  0.0490  0.0681 -0.2309
23300W        W24164   3.196   1.068   5.309  0.2148 -0.1991 -0.0776
23301W        W24165   1.277   0.089   3.796 -0.1471  0.0474  0.3707
23302W        W24166   0.607  29.136   6.110 -0.2299 -0.0724 -0.1826
23303W        W24167  26.974  27.440   8.961  0.1578 -0.1456  0.1864
23304W        W24168   1.306  28.932   8.913  0.1723 -0.2036 -0.0331
23305W        W24169   2.976  27.729   5.043 -0.2894 -0.2476  0.1717
23306W        W24170   0.981  28.141   4.930  0.3000  0.0707 -0.2638
23307W        W24171   1.331  28.087   5.310  0.0561  0.1807 -0.1295
23308W        W24172   2.937  28.767   6.480 -0.0164  0.2228  0.1509
23309W        W24173   5.102  22.354   5.365  0.2495  0.1963  0.0664
23310W        W24174   3.237  27.246   4.041  0.0562 -0.0054 -0.0060
23311W        W24175   1.019  28.882   6.077 -0.2900 -0.2514 -0.0114
23312W        W24176   1.185  26.504   4.281 -0.0308  0.0702  0.3029
23313W        W24177   3.443  27.010   8.329 -0.2680 -0.0065  0.2135
23314W        W24178   1.997  25.497   7.574 -0.2699  0.2464  0.4023
23315W        W24179   1.932  28.396   5.987  0.0161 -0.0018  0.0289
23316W        W24180   3.078  28.230   6.490  0.5719  0.3261 -0.0184
23317W        W24181   1.918  27.147   7.354  0.0090 -0.1231  0.0114
23318W        W24182   1.166  27.252   4.292  0.2425  0.2366 -0.0039
23319W        W24183   0.430  24.500   2.872  0.0856  0.0522 -0.0538
23320W        W24184   2.365  27.946   7.300 -0.3417 -0.6086 -0.0782
23321W        W24185  29.123  26.835   4.341 -0.0283 -0.1096  0.0369
23322W        W24186   2.471  27.873   9.993  0.1128  0.0796 -0.2197
23323W        W24187   3.556   0.093   3.506  0.1114  0.1644 -0.0023
23324W        W24188   1.228   0.851   6.267  0.0445  0.1119  0.0812
23325W        W24189   3.906  28.334   6.704 -0.0192  0.2142  0.1349
23326W        W24190   0.448  25.912   6.863  0.0286  0.0888  0.0102
23327W        W24191   1.836  27.388   6.068  0.1799  0.0797 -0.3874
23328W        W24192   4.459  25.288   5.048 -0.0578 -0.1873  0.2648
23329W        W24193   3.227  27.164   6.392 -0.1232 -0.0773 -0.2036
23330W        W24194   0.772  26.511   3.569  0.0089 -0.0432 -0.0275
23331W        W24195   0.302  26.178   6.279  0.0165  0.2579  0.2198
23332W        W24196   1.891  25.998   9.668 -0.1630  0.0072 -0.1342
23333W        W24197   3.755  28.219   2.650 -0.1553 -0.1167 -0.3092
23334W        W24198   4.094  29.136   6.206  0.0272  0.2846 -0.2935
23335W        W24199   1.781  28.815   7.377  0.1664 -0.0358 -0.1061
23336W        W24200   5.600  28.641   7.354 -0.1348 -0.0293  0.0887
23337W        W24201   4.817  27.135   7.707 -0.1741 -0.1508  0.0670
23338W        W24202   0.337  28.351   9.959 -0.1544 -0.0423  0.2124
23339W        W24203   4.194  28.285   5.771  0.0358  0.1681  0.1127
23340W        W24204   5.221  25.417   7.320  0.0352 -0.3422  0.1016
23341W        W24205   1.997  24.969   7.656  0.2354 -0.0553 -0.0046
23342W        W24206   0.626  29.113   2.680  0.0801 -0.1033  0.0521
23343W        W24207  28.321  27.237   8.475 -0.0291  0.2479  0.0940
23344W        W24208   0.842  28.111   6.044  0.1406  0.0313 -0.3415
23345W        W24209  28.420   1.502   3.732 -0.0957 -0.1401 -0.2453
23346W        W24210  28.311  27.248   5.993 -0.4064  0.2638  0.0108
23347W        W24211   0.597  26.595   4.865 -0.0875  0.0051 -0.1167
23348W        W24212  27.822  27.119   5.759 -0.2773 -0.0572 -0.1117
23349W        W24213   1.391  25.875   6.926  0.2038  0.1333  0.2315
23350W        W24214   0.780  27.249   5.768  0.0545 -0.1884  0.1204
23351W        W24215   1.247  26.067   4.528 -0.0402 -0.0655 -0.1250
23352W        W24216   1.359  24.706   8.275 -0.0967  0.0531  0.0641
23353W        W24217   4.104  25.539   6.632 -0.0547 -0.2955  0.2001
23354W        W24218   4.573   0.482   7.787 -0.1248 -0.1275  0.0214
23355W        W24219   2.051  26.203   7.546 -0.1445  0.2385  0.0704
23356W        W24220   2.030  27.630   3.456  0.0827 -0.1633 -0.1124
23357W        W24221   0.937  24.353   5.150  0.0727  0.1666 -0.0670
23358W        W24222  27.168   0.178   5.425  0.0286  0.0204 -0.1403
23359W        W24223   1.637  27.652   8.326 -0.1579 -0.1760 -0.0967
23360W        W24224  29.143  27.415   8.870 -0.2484 -0.3194  0.1519
23361W        W24225  28.791  25.517   2.427 -0.0308 -0.1963  0.1588
23362W        W24226   2.073  26.056   3.768  0.2035  0.0604 -0.1256
23363W        W24227   2.504  27.305   9.069  0.1367  0.0877  0.1207
23364W        W24228   2.807  27.396   6.302  0.0445  0.0242  0.0748
23365W        W24229   4.490  24.905   5.364 -0.2412 -0.0648 -0.0769
23366W        W24230   2.359   0.282   7.741 -0.0248 -0.0196  0.0262
23367W        W24231   2.142  28.516   8.429 -0.0186  0.0271 -0.1972
23368W        W24232   1.975  28.985   6.448 -0.0526 -0.0450  0.1529
23369W        W24233   1.564   0.642   4.388  0.3017  0.0891  0.2418
23370W        W24234   2.605  24.301   5.614 -0.1340 -0.0217  0.3371
23371W        W24235   4.666  24.040   2.534 -0.0419 -0.1931  0.1067
23372W        W24236   1.546  24.898   4.427  0.0952 -0.0898  0.2929
23373W        W24237   3.580  25.678   4.538  0.0204  0.0511 -0.2448
23374W        W24238   2.122  26.842   2.999 -0.0750 -0.2311  0.3359
23375W        W24239   3.478  27.935   7.539 -0.1104 -0.2095 -0.3083
23376W        W24240   2.511   0.175   4.390 -0.1675 -0.0294  0.1149
23377W        W24241   0.708  25.955   6.387 -0.0578  0.1282 -0.1379
23378W        W24242   3.591  26.569   7.993 -0.1119  0.0848  0.2354
23379W        W24243   3.259  28.598   5.126 -0.0630 -0.0997 -0.0764
23380W        W24244   1.176  25.619   7.417  0.1169 -0.1678 -0.3885
23381W        W24245   0.919  23.505   6.214  0.1590 -0.0928  0.0846
23382W        W24246  28.897  27.893   9.265  0.0498  0.0341  0.0885
23383W        W24247  28.265  27.038   7.474 -0.3254 -0.2109  0.0238
23384W        W24248  29.099  26.234   6.597 -0.0192  0.1100  0.0712
23385W        W24249   3.275  27.548   6.099 -0.3171  0.0065  0.0716
23386W        W24250   2.058  28.022   6.749  0.1819  0.1911  0.0402
23387W        W24251   0.696  24.785   9.414 -0.4203  0.0952  0.2111
23388W        W24252   2.182  26.203   4.259  0.0550  0.1559 -0.1751
23389W        W24253   1.635  27.413   9.789  0.0781  0.1702 -0.0235
23390W        W24254  26.300  28.047   6.513  0.3516 -0.4785 -0.0072
23391W        W24255   4.568  27.288   7.287 -0.0115 -0.0863 -0.0535
23392W        W24256   2.558  28.445   7.546 -0.0916 -0.2255  0.1658
23393W        W24257   1.475  28.618   6.170  0.1039 -0.0477 -0.2457
23394W        W24258   3.219  26.624   6.578 -0.1864 -0.1064  0.2077
23395W        W24259   2.614   0.972   6.853 -0.0652  0.1065 -0.0333
23396W        W24260   3.832  27.311   5.229 -0.0093  0.0705 -0.1807
23397W        W24261   1.679  27.703   9.402 -0.3130 -0.0236  0.0315
23398W        W24262   1.410  27.448   6.449 -0.0768 -0.0844 -0.0140
23399W        W24263   1.684  25.820   7.382  0.0835 -0.0654 -0.0877
23400W        W24264  28.862  26.889   4.793 -0.0749 -0.0841  0.2692
23401W        W24265   0.791  26.384   3.054  0.0821  0.1213  0.3121
23402W        W24266  28.152  29.027   9.582 -0.1137  0.1370  0.0622
23403W        W24267   1.716   1.569  10.809  0.0242 -0.3650 -0.0728
23404W        W24268   2.242   0.228   8.807 -0.1669  0.1180  0.1311
23405W        W24269   4.474   1.068  10.118 -0.0905  0.0293  0.1377
23406W        W24270   2.333  28.374   7.047  0.1653 -0.0564 -0.1099
23407W        W24271   4.487  28.903   8.474 -0.1229 -0.0952 -0.0985
23408W        W24272   0.899  27.965   7.818  0.1086  0.1773  0.0188
23409W        W24273   3.790  27.823   8.777  0.0871  0.0297  0.0306
23410W        W24274   1.428   0.442  13.203 -0.1638  0.0156 -0.3619
23411W        W24275  28.192  27.531  10.806 -0.0135 -0.1703  0.2476
23412W        W24276   3.151  23.820  10.709  0.1071  0.0080  0.2450
23413W        W24277   3.733  26.045   8.958  0.0140  0.4057  0.0397
23414W        W24278   2.711  27.939   6.893  0.0991 -0.2630 -0.3724
23415W        W24279   1.139  27.092  13.510  0.0647 -0.1663  0.0854
23416W        W24280   0.977  27.401  11.132 -0.1171  0.1340  0.2603
23417W        W24281   1.796   0.179  11.275  0.1487 -0.0670  0.3253
23418W        W24282   1.310  28.310   9.653 -0.1114 -0.2558  0.0119
23419W        W24283  28.586  26.355   7.458 -0.2482  0.0963  0.3651
23420W        W24284   2.200   0.799  12.246  0.1279 -0.0724  0.2140
23421W        W24285   1.687  26.615   7.501 -0.0020 -0.0832 -0.2503
23422W        W24286   4.294  28.145  10.654 -0.2124  0.1571  0.4150
23423W        W24287   2.301  26.882   9.330 -0.1943  0.2059  0.0572
23424W        W24288   0.717  27.041   9.165  0.0954  0.2188 -0.3309
23425W        W24289   2.467  28.247  10.742 -0.0408  0.0767 -0.3458
23426W        W24290  27.995  26.766  10.481  0.0445 -0.0089  0.0472
23427W        W24291  26.773  27.386  10.831  0.0085  0.0291 -0.1770
23428W        W24292   3.975  28.545  10.698  0.0813 -0.1857  0.1696
23429W        W24293   2.408  27.571   6.670  0.1629 -0.1163  0.1601
23430W        W24294   2.529  27.535  12.070 -0.2823 -0.1787 -0.1833
23431W        W24295   0.584  26.425   9.808  0.0822 -0.2279  0.1879
23432W        W24296   1.812  28.323   9.842 -0.2522 -0.0655 -0.0363
23433W        W24297   3.314   0.724  10.449 -0.0617  0.1841 -0.2789
23434W        W24298   3.477   0.023  12.498 -0.0814 -0.1284  0.1672
23435W        W24299   1.353  26.203  10.308  0.1744 -0.1250 -0.0897
23436W        W24300   1.626  24.646  12.621  0.1357  0.1625 -0.2186
23437W        W24301   0.118  28.796  10.013 -0.1618 -0.0724  0.1302
23438W        W24302   1.110  26.462   9.837 -0.1472  0.1121  0.1244
23439W        W24303  28.498  26.787  11.178 -0.0391  0.0263 -0.1185
23440W        W24304   3.032   0.711   8.106 -0.1502  0.2023 -0.1365
23441W        W24305   3.088  29.083   9.878 -0.1205 -0.2190  0.1640
23442W        W24306   2.544   0.212   7.216  0.0154 -0.0067  0.2287
23443W        W24307   4.166  27.346   9.539  0.2230  0.1596  0.2448
23444W        W24308   0.133  27.802   8.536  0.1758  0.0923 -0.1588
23445W        W24309   3.834  27.730   9.858 -0.0609 -0.3323 -0.1091
23446W        W24310  28.079  28.339   7.190 -0.2664  0.1502  0.0561
23447W        W24311   0.058  27.956   7.953 -0.0235 -0.0090 -0.0220
23448W        W24312   2.445  28.264  11.386 -0.2179  0.0002  0.0270
23449W        W24313   4.340  26.496   9.221  0.0314  0.0039  0.0193
23450W        W24314   0.067  27.425  10.740 -0.0482 -0.1446  0.0670
23451W        W24315   3.796  27.789   7.064 -0.1433 -0.1790 -0.0610
23452W        W24316   3.089  26.627  11.662  0.0644  0.0205 -0.0258
23453W        W24317   0.572  27.707   9.482  0.1711  0.1343 -0.1531
23454W        W24318   2.964  27.331  10.560  0.1944  0.0200 -0.0030
23455W        W24319   2.606  27.511   7.164  0.0659  0.0198 -0.1055
23456W        W24320   2.323  24.790  10.210  0.0771  0.0614  0.4543
23457W        W24321   1.264   1.684   8.906  0.0606  0.4873 -0.0284
23458W        W24322   1.028  24.058   9.884  0.1647 -0.0757  0.1394
23459W        W24323   1.569  28.469  10.927  0.1041 -0.1640  0.0753
23460W        W24324  28.876  28.070   8.381  0.0737 -0.0869  0.0912
23461W        W24325   2.068  28.010   9.460 -0.1721  0.2324  0.1956
23462W        W24326   3.134  26.450   7.697 -0.0417  0.0194  0.0220
23463W        W24327  28.545  27.896   9.631  0.1114 -0.0050  0.0205
23464W        W24328   0.305   0.642  10.868  0.2176  0.0752  0.2045
23465W        W24329   2.744  26.359  10.669  0.0983  0.1269 -0.1302
23466W        W24330   3.705  24.941  10.072  0.0548 -0.2428 -0.2203
23467W        W24331   2.576  25.863  11.040 -0.1682 -0.0730  0.0846
23468W        W24332   2.064  25.703   7.102  0.0289 -0.1195 -0.4797
23469W        W24333  28.538  26.699   8.685 -0.4448 -0.0163 -0.2116
23470W        W24334   1.836  26.010   6.715 -0.0679  0.3097 -0.4776
23471W        W24335   1.741  28.155   6.362 -0.0156 -0.2699 -0.0690
23472W        W24336   2.986   0.207  13.144  0.0512  0.1539 -0.0519
23473W        W24337   3.624  27.755  10.359  0.1854 -0.0309 -0.0935
23474W        W24338   1.929   0.620  11.762  0.0641  0.1290 -0.1136
23475W        W24339   1.937  24.890   9.457  0.1053  0.2175 -0.2157
23476W        W24340   5.095   0.880   8.372  0.1285 -0.1880  0.0020
23477W        W24341   3.727  28.308  11.217  0.0097  0.0076 -0.0435
23478W        W24342  28.961  27.013   9.456  0.2493  0.1455  0.0595
23479W        W24343   1.128   0.896  10.666  0.0092  0.3170  0.1213
23480W        W24344   0.772  27.744  10.759 -0.0273  0.0608  0.0927
23481W        W24345   3.612  28.994   8.649  0.0180 -0.0124 -0.2266
23482W        W24346   0.218  27.920  10.714 -0.2948  0.1613 -0.2147
23483W        W24347   3.341  28.041  11.716 -0.1939  0.1426 -0.1316
23484W        W24348   0.461  24.713  10.283  0.2051  0.2814  0.0772
23485W        W24349   2.576  28.265   9.473 -0.0800 -0.2198  0.0387
23486W        W24350   1.765  27.559  11.251 -0.1519  0.1190  0.0470
23487W        W24351   2.416  28.435   8.844 -0.2514 -0.3001  0.0045
23488W        W24352   4.198  27.926  11.601  0.0216  0.0888 -0.1494
23489W        W24353   2.870  28.197   8.772  0.1321 -0.2277  0.3000
23490W        W24354   4.387  26.953  11.391 -0.0529  0.1254  0.4060
23491W        W24355   1.307  27.757  12.096 -0.1183  0.0702  0.0426
23492W        W24356   1.487  24.000   7.854  0.0900  0.4182  0.2349
23493W        W24357   3.221  25.695   9.600 -0.1050 -0.2654 -0.5068
23494W        W24358   1.635   0.176   8.830 -0.2367  0.0798  0.2425
23495W        W24359   1.184  25.282   7.054 -0.0166  0.0837 -0.0110
23496W        W24360   1.072  23.879   9.391 -0.0922 -0.2074 -0.0877
23497W        W24361   3.957  25.250   9.440 -0.3351 -0.1969 -0.1089
23498W        W24362   4.052  28.644   8.505 -0.2648  0.0846  0.2283
23499W        W24363   3.012  28.615  11.846  0.0240 -0.1403  0.1238
23500W        W24364   0.921  26.136   9.565 -0.0538 -0.1799  0.3094
23501W        W24365   2.732  25.180   8.826 -0.0517  0.1622 -0.1557
23502W        W24366   5.174  28.532   8.527 -0.0363  0.0413 -0.0483
23503W        W24367  28.881  28.757   7.688 -0.0828  0.0241  0.0338
23504W        W24368   0.624  24.387   8.103 -0.2321 -0.0824  0.2293
23505W        W24369   3.798   1.195   9.746  0.0740  0.0327  0.2096
23506W        W24370   3.189  26.456  12.673  0.1650  0.0517 -0.1537
23507W        W24371   0.145  24.184   9.577 -0.4984  0.2731 -0.0756
23508W        W24372   0.908  26.403   7.665  0.2236 -0.0304 -0.0437
23509W        W24373   0.009  26.702  11.847 -0.0281 -0.1509 -0.3022
23510W        W24374   2.069  25.398  10.234  0.2757  0.5893 -0.0244
23511W        W24375   0.872  27.423   7.605  0.2585 -0.0180  0.0524
23512W        W24376   0.431  26.651  10.459 -0.0755 -0.0370  0.3064
23513W        W24377   3.161   1.590  11.818  0.1629 -0.3428 -0.2791
23514W        W24378   3.858  27.489   9.192 -0.0461  0.1407 -0.0763
23515W        W24379   1.988  28.841  10.110  0.0978  0.1054 -0.1310
23516W        W24380   5.124  27.651   8.853 -0.4583  0.0627  0.1213
23517W        W24381   1.928   0.148   9.316 -0.0036  0.0618  0.1496
23518W        W24382   2.619  24.972  13.153 -0.1017  0.0376 -0.1884
23519W        W24383   2.211  27.830  10.430 -0.1729  0.0892 -0.0488
23520W        W24384   1.313   0.013  11.549 -0.2181  0.0398 -0.4399
23521W        W24385   4.464  27.066   9.837 -0.0182 -0.0629  0.0363
23522W        W24386   0.117  26.866   9.833  0.1252  0.1139  0.2956
23523W        W24387   1.493   0.574  11.417 -0.1726 -0.1118  0.2077
23524W        W24388   2.947  28.481   7.806 -0.0271  0.3165 -0.2594
23525W        W24389   2.501  27.704   9.488  0.0072 -0.2087 -0.0447
23526W        W24390   2.997  28.246   9.802 -0.1000 -0.1224  0.0579
23527W        W24391   5.404   0.303   9.113 -0.3795 -0.0528 -0.2934
23528W        W24392  28.844  25.797   8.438  0.2591 -0.1323 -0.1982
23529W        W24393   2.406  26.962  12.952  0.0863  0.3171  0.0705
23530W        W24394   6.156  28.984  13.140 -0.2850  0.0847  0.1599
23531W        W24395   1.048  29.103   7.035 -0.0506  0.0854  0.1091
23532W        W24396   3.522  27.238  10.528 -0.0524  0.0838 -0.1205
23533W        W24397   2.371  27.761  11.012  0.1256  0.0704  0.1227
23534W        W24398  28.568  29.096  10.437 -0.0403  0.1279 -0.0278
23535W        W24399   3.874  28.751   9.723 -0.2502  0.1127 -0.1607
23536W        W24400   3.581   0.067   9.974  0.0242 -0.1112  0.0841
23537W        W24401  28.845  28.659  10.281  0.0795  0.2934  0.0113
23538W        W24402   2.407  27.093  10.582  0.0538 -0.3453  0.0791
23539W        W24403   3.927  25.593  11.018  0.3408  0.1718  0.1144
23540W        W24404   0.767   0.592   8.584 -0.1711  0.0005  0.1480
23541W        W24405   0.770  26.944  10.227 -0.0503  0.1375 -0.0375
23542W        W24406  28.944  25.199   7.194 -0.0187  0.2365 -0.1538
23543W        W24407   2.231  24.089  10.250  0.0809 -0.0171 -0.0808
23544W        W24408   1.673   0.962   6.030 -0.0937 -0.0260 -0.5462
23545W        W24409  28.831  28.123   6.337  0.3107  0.3801 -0.2578
23546W        W24410   0.639  27.500  11.510  0.0582 -0.3437  0.0722
23547W        W24411  28.639  26.323   9.068  0.2350  0.2391 -0.0105
23548W        W24412   3.559  22.741   7.327 -0.2721  0.2439 -0.2855
23549W        W24413   2.360  28.488   9.890 -0.2375 -0.0829  0.0155
23550W        W24414   1.409  29.097  10.160 -0.0010  0.0130  0.1262
23551W        W24415   0.356   0.290  10.464 -0.1346  0.0310 -0.1487
23552W        W24416   4.831  28.240  12.125 -0.2116 -0.0937  0.1666
23553W        W24417   0.934  26.966   7.710 -0.2060  0.2225  0.1065
23554W        W24418   1.446   1.070   9.924  0.0805  0.2009  0.2684
23555W        W24419   0.722  26.062   7.349  0.0758  0.1955  0.0474
23556W        W24420   1.737  26.458  12.205  0.0069  0.1357  0.2328
23557W        W24421   3.142  24.750  11.924 -0.2542 -0.0828  0.2884
23558W        W24422   0.724  26.565   9.323 -0.1683  0.0136  0.1669
23559W        W24423  29.148  28.269   8.815  0.0981  0.2692 -0.0842
23560W        W24424   1.262  27.863   8.975  0.2044 -0.1051  0.2964
23561W        W24425   1.625  26.451   9.873 -0.0601  0.0607  0.1336
23562W        W24426   3.008  28.143  10.708  0.0493 -0.2106 -0.0679
23563W        W24427   0.720  28.257  10.823 -0.1555  0.1489 -0.0522
23564W        W24428   2.404  25.471  12.735  0.3216 -0.1526 -0.1179
23565W        W24429   1.758  27.169  11.647 -0.3648 -0.1816 -0.0908
23566W        W24430   4.302  22.872  10.743  0.0338  0.1819  0.1406
23567W        W24431   0.586  27.270   9.884  0.2081 -0.2133  0.1583
23568W        W24432   0.975  26.932  11.067 -0.1744  0.0598 -0.2209
23569W        W24433  28.633   0.377   6.069 -0.0496 -0.0804 -0.0458
23570W        W24434   3.919   0.969  11.671  0.4428 -0.1455 -0.0366
23571W        W24435   0.404   1.119   2.960 -0.0178  0.0426 -0.0387
23572W        W24436   3.294  28.322  10.335 -0.0957 -0.0164 -0.1032
23573W        W24437   4.335  25.592   9.549  0.2487 -0.1076 -0.1301
23574W        W24438   3.633  27.629  10.940 -0.0612 -0.1078  0.0773
23575W        W24439   2.168   0.654   6.879 -0.1617 -0.0549 -0.0213
23576W        W24440   0.595  25.731   8.425 -0.0346  0.0140 -0.2052
23577W        W24441   2.836  25.040   7.721 -0.0231 -0.2390 -0.0002
23578W        W24442   0.841   2.307  13.205  0.0659  0.1161 -0.0092
23579W        W24443  28.569   0.342  12.140  0.1116  0.1213  0.0083
23580W        W24444  29.028   0.169  10.381  0.0332  0.1620  0.1879
23581W        W24445   2.876  24.306  10.690 -0.0322  0.1940  0.2812
23582W        W24446   1.336   0.884   6.850  0.0131 -0.3497 -0.1188
23583W        W24447   2.452   1.753   7.128  0.4425  0.0956 -0.4209
23584W        W24448   4.852  27.895   6.618  0.0580 -0.2046 -0.2521
23585W        W24449   1.224  26.683   7.391 -0.1797  0.2160  0.0366
23586W        W24450   2.473  25.313   7.574 -0.1499 -0.1597 -0.2276
23587W        W24451   1.970  28.818  11.893 -0.2284 -0.0130  0.1682
23588W        W24452   3.335  26.987  10.141  0.3195 -0.0496  0.4140
23589W        W24453   1.989  27.864   9.945 -0.0320 -0.1028 -0.2166
23590W        W24454  28.814  27.814   7.573 -0.1565 -0.3060  0.1971
23591W        W24455   3.312   2.036  10.956 -0.0884 -0.2567  0.0264
23592W        W24456   1.860  27.884   5.942 -0.1764  0.0062 -0.0105
23593W        W24457   0.928   0.028   7.658  0.3643  0.0137  0.1790
23594W        W24458   2.011  26.366  11.392  0.0912 -0.0285  0.1452
23595W        W24459   1.972  26.740  13.028 -0.3520  0.1749 -0.0000
23596W        W24460  28.315  25.942  11.535 -0.0679 -0.0139  0.2118
23597W        W24461   0.222  28.317   7.020  0.0383  0.2929 -0.1218
23598W        W24462   1.497  25.208   9.417  0.0350 -0.0154  0.0264
23599W        W24463  27.438  27.368   9.343 -0.2159  0.0164 -0.2613
23600W        W24464   0.702  26.121  11.614 -0.0093 -0.1430  0.2614
23601W        W24465   3.509  25.179   9.639  0.1371  0.0193 -0.0654
23602W        W24466   1.970  26.563   8.119 -0.1045 -0.0127 -0.0066
23603W        W24467   4.074  27.644   8.201 -0.0884  0.0721 -0.1059
23604W        W24468   3.214  28.343   8.372 -0.0431  0.1161  0.0651
23605W        W24469  28.337  27.570  11.810 -0.3467 -0.0948  0.0699
23606W        W24470   4.192  23.769  11.660  0.0222  0.1572  0.0216
23607W        W24471  27.624  26.881  10.185 -0.2815  0.0487 -0.0000
23608W        W24472  27.795  27.211   9.773  0.0709 -0.2187 -0.2198
23609W        W24473   0.511  26.611  11.582  0.2823  0.3908 -0.0347
23610W        W24474   0.833   0.389   8.004  0.0305  0.1662 -0.2623
23611W        W24475  28.969   0.133   7.755 -0.4513 -0.0068 -0.0661
23612W        W24476   1.280   0.202  11.085 -0.0482 -0.1885 -0.0518
23613W        W24477   1.856  27.044  11.049 -0.1543 -0.4358  0.2161
23614W        W24478   2.428   0.056  11.103  0.2116  0.1554 -0.1481
23615W        W24479   3.500  25.660  11.934  0.1317 -0.1851  0.0573
23616W        W24480   4.578  27.718  10.780  0.2151 -0.0368 -0.0013
23617W        W24481   3.728  27.414   8.504  0.0034  0.0834  0.1045
23618W        W24482   2.444  28.023   8.483  0.4498 -0.1017 -0.0108
23619W        W24483   3.572  28.275   7.199  0.2452 -0.0505 -0.3084
23620W        W24484   3.558   2.260  12.967 -0.1541  0.2095  0.0601
23621W        W24485   1.227  26.637  12.141  0.1762 -0.1814 -0.3086
23622W        W24486   1.698  27.760  10.308 -0.0460 -0.1647  0.1184
23623W        W24487   1.167  27.063   8.850 -0.1777  0.1090 -0.2277
23624W        W24488  28.355   0.543  11.564 -0.1267  0.2038 -0.0618
23625W        W24489   0.652  25.177  10.401 -0.3225  0.2164  0.0869
23626W        W24490   1.461  28.276   8.814 -0.4108 -0.0049  0.1814
23627W        W24491   2.190  25.076  11.208  0.3152  0.3111 -0.3356
23628W        W24492  28.331  28.738  10.131 -0.0029 -0.0786  0.1593
23629W        W24493   2.361  28.418  12.661 -0.2309 -0.0499  0.3573
23630W        W24494   2.256   0.324   8.248  0.0050  0.0763 -0.0540
23631W        W24495   3.664  28.856  13.001 -0.0046  0.1051 -0.0207
23632W        W24496   0.852  22.981   9.707 -0.0995  0.1418  0.1978
23633W        W24497   0.856  26.860   9.737  0.0816 -0.2457 -0.0149
23634W        W24498   0.337  27.811   9.935  0.0167 -0.2322  0.2240
23635W        W24499   2.287  26.142  10.695  0.0212 -0.1526  0.2102
23636W        W24500  28.387  26.517   9.983  0.2785  0.0743 -0.0293
23637W        W24501   1.389   0.208   9.286  0.1272  0.0859 -0.0980
23638W        W24502   3.921  27.336  10.193 -0.2194 -0.3238 -0.0010
23639W        W24503   2.079  23.212   9.920  0.1715 -0.1660  0.1166
23640W        W24504   3.400  28.701   9.974  0.0422 -0.0749  0.2743
23641W        W24505   2.573  28.485  13.489  0.1506 -0.2367  0.1723
23642W        W24506   0.154  26.014   8.265 -0.1316 -0.1103  0.0015
23643W        W24507  29.080  28.409   7.980  0.0675  0.1438 -0.2101
23644W        W24508   2.311  25.961  11.486  0.0378  0.0650 -0.1601
23645W        W24509  28.609  25.288  11.644  0.1797  0.1290 -0.1889
23646W        W24510   1.863  23.820  11.597  0.2600  0.3605  0.0848
23647W        W24511   2.050  28.360   7.522 -0.1945 -0.0481  0.2269
23648W        W24512   4.128  28.603   9.342 -0.1831  0.1512 -0.1688
23649W        W24513   1.001   0.326  10.084  0.0269 -0.3515  0.0082
23650W        W24514   3.109  29.094   8.743 -0.0854 -0.0022 -0.0304
23651W        W24515  28.074  26.210   8.868 -0.1421  0.2128 -0.0697
23652W        W24516   2.196  26.017  10.108 -0.1586 -0.2470  0.1906
23653W        W24517   0.448  29.080   8.776 -0.1281 -0.0709 -0.0528
23654W        W24518   4.822   2.076  10.873  0.3756  0.1459 -0.0106
23655W        W24519   3.000  27.923  10.222 -0.0848  0.1087  0.5985
23656W        W24520   2.545  26.469   9.202  0.1173  0.1453 -0.0187
23657W        W24521   2.803   2.550   7.650 -0.0699 -0.0234  0.0893
23658W        W24522   2.003  24.900   6.267 -0.1863  0.1983 -0.2341
23659W        W24523   2.075  24.601  11.013 -0.2744  0.1350 -0.0854
23660W        W24524   3.223  28.601   8.794 -0.0167  0.0939  0.0260
23661W        W24525   3.576  24.555   8.642 -0.2461 -0.1195 -0.0978
23662W        W24526   0.305  26.067   8.728 -0.0309  0.3807 -0.0902
23663W        W24527   3.204  27.713  10.712  0.0410 -0.0085  0.0065
23664W        W24528   3.711  28.670  11.605 -0.0779 -0.0639  0.1011
23665W        W24529   1.892  26.450  10.881  0.1428 -0.0779 -0.0967
23666W        W24530   0.690   0.154  10.915 -0.0922  0.1747  0.2536
23667W        W24531   0.168  27.874   9.030 -0.0107 -0.2648  0.1931
23668W        W24532   0.223  28.600   7.483  0.2363  0.0294  0.0068
23669W        W24533   3.069  28.885  11.043 -0.0557  0.1852 -0.0404
23670W        W24534   1.212  25.817  11.117 -0.0091  0.0110 -0.0317
23671W        W24535   3.810  26.914   8.624  0.1116  0.4094 -0.0912
23672W        W24536   1.813  27.854   8.923  0.0847  0.0937 -0.0025
23673W        W24537   1.993  26.560   9.088  0.0318 -0.1020  0.2460
23674W        W24538   1.258  23.692  10.215 -0.0015 -0.0894  0.0672
23675W        W24539  27.998  29.098   8.617  0.1409  0.4300 -0.2204
23676W        W24540   4.438  28.170  15.183 -0.0750  0.0836 -0.1361
23677W        W24541   2.753  22.421   9.702 -0.3518 -0.0556  0.0955
23678W        W24542   1.622  26.446  11.750  0.0273 -0.3102  0.2501
23679W        W24543   0.030   0.436  11.367 -0.0680  0.2599 -0.0777
23680W        W24544   0.169  28.734   8.997 -0.3627 -0.0317 -0.2501
23681W        W24545   0.297  28.717  11.098  0.0086 -0.2585  0.0260
23682W        W24546   4.033   2.217  10.361  0.3025  0.0787  0.5497
23683W        W24547   1.166  26.748   9.258  0.1530 -0.0245  0.0386
23684W        W24548  27.852  27.082   7.814 -0.3996  0.0178 -0.1081
23685W        W24549   2.082  27.971  12.550  0.1630  0.0521  0.1903
23686W        W24550   2.484  27.078   7.439  0.1136 -0.1351  0.4126
23687W        W24551   3.640  23.428  11.603  0.0336  0.0117  0.3411
23688W        W24552   1.077  27.029   6.196  0.0469 -0.2361 -0.0917
23689W        W24553   1.842  26.292  10.403 -0.1217  0.0468  0.2502
23690W        W24554   1.785  25.872   8.240 -0.1261  0.1372  0.0306
23691W        W24555   3.264   1.246   6.357  0.2145  0.0265  0.0571
23692W        W24556  28.542  27.839  10.155 -0.0544  0.1799  0.0094
23693W        W24557  28.872  25.946   7.220  0.0208  0.0529 -0.1002
23694W        W24558   3.808  27.891  12.005 -0.2728 -0.1690  0.0667
23695W        W24559  28.647  27.274   7.540  0.0716  0.0352  0.0841
23696W        W24560   1.763  28.128   7.979  0.2145 -0.0246 -0.0973
23697W        W24561   4.614  27.112   8.244  0.0242 -0.2513  0.2004
23698W        W24562   3.549  25.309  11.309 -0.3615 -0.0169 -0.1040
23699W        W24563   3.735   1.007  12.159 -0.0512 -0.0736  0.3036
23700W        W24564   2.059  27.322  10.200 -0.0327  0.0344 -0.3476
23701W        W24565   1.202   0.424   8.330 -0.2042  0.3590 -0.0749
23702W        W24566   1.378  26.789  10.325  0.2220 -0.0613 -0.0791
23703W        W24567   0.702  28.310  12.079 -0.2603  0.4539  0.1490
23704W        W24568   0.989  28.733  12.252  0.3679 -0.1984 -0.0935
23705W        W24569   5.025   0.761   7.912  0.0317  0.1170 -0.0183
23706W        W24570   3.396  28.263   9.485  0.0483 -0.2893  0.4004
23707W        W24571   2.985   1.385  12.497  0.1097 -0.0766  0.0118
23708W        W24572   2.552   0.127  12.305  0.1528 -0.2262 -0.0872
23709W        W24573   0.424  25.310   8.203 -0.0146  0.2551  0.0615
23710W        W24574   5.352  24.994   8.809  0.1631  0.1672 -0.1243
23711W        W24575  28.559  28.281   9.945  0.1879 -0.1442  0.1070
23712W        W24576  28.428  27.634   7.227  0.1606 -0.4020 -0.2218
23713W        W24577   0.159  27.780  12.350  0.0047  0.2035  0.0167
23714W        W24578   2.136   0.765  10.490 -0.1571 -0.1299 -0.0045
23715W        W24579   4.057   2.291  13.129  0.0231  0.0355 -0.0372
23716W        W24580   2.046  28.277  11.740 -0.1522  0.3374  0.0749
23717W        W24581  28.414   0.181  10.828 -0.0991 -0.0979  0.3792
23718W        W24582  28.736  27.275   9.043  0.0850  0.3206  0.0845
23719W        W24583   0.711  27.029   8.653  0.3801 -0.0502  0.1210
23720W        W24584   1.272   0.047  12.235 -0.2834 -0.1764  0.0897
23721W        W24585   1.472  28.791   9.776 -0.0831  0.0194  0.0875
23722W        W24586  29.103   0.247   8.679 -0.2041  0.0018 -0.2422
23723W        W24587   4.461   0.943   6.398  0.0265 -0.1187  0.0468
23724W        W24588   2.433  27.678  12.810 -0.3502 -0.1933 -0.4031
23725W        W24589   4.155   0.746   9.958 -0.1573 -0.1024  0.0397
23726W        W24590  28.935  28.024  10.421 -0.0879  0.1279  0.1390
23727W        W24591   2.706  27.773  10.574 -0.0146 -0.1542 -0.1757
23728W        W24592   2.111  25.525  11.402  0.0031 -0.0986 -0.0518
23729W        W24593  28.972  28.017   7.013  0.3875 -0.0897 -0.0140
23730W        W24594   0.659  28.102   7.325  0.2157  0.1233 -0.1425
23731W        W24595   0.781  28.445   8.136  0.0896 -0.0544  0.1740
23732W        W24596   1.903  24.015   9.632  0.0014 -0.1345 -0.0299
23733W        W24597   4.159  26.039   8.725 -0.2606  0.3973  0.3690
23734W        W24598   3.913  26.991   9.176  0.1425 -0.2428 -0.0157
23735W        W24599   4.562  27.286  11.095  0.1840 -0.0164 -0.1061
23736W        W24600   4.556  28.707  11.422 -0.1703 -0.2238 -0.2513
23737W        W24601   3.558   0.204  13.029  0.2158 -0.2169  0.0984
23738W        W24602  28.435  27.826   8.507 -0.1674 -0.1620 -0.2608
23739W        W24603   5.863  27.071   9.673 -0.2240 -0.0637  0.0357
23740W        W24604   2.893  27.402   7.888  0.3520 -0.0392 -0.1557
23741W        W24605   0.275  27.261   8.270 -0.1134 -0.0148 -0.3675
23742W        W24606   0.150  24.836  11.002 -0.2529  0.3533 -0.1546
23743W        W24607   0.833  26.121  13.264  0.0629  0.1320 -0.1741
23744W        W24608   0.661  26.148   9.099  0.2294 -0.1554 -0.2892
23745W        W24609   3.373   2.053   8.473 -0.3400  0.1570 -0.4233
23746W        W24610   0.884  27.863  11.777  0.1020  0.0109  0.0411
23747W        W24611   0.121   2.948  11.614 -0.1070  0.1096  0.1357
23748W        W24612   1.892  27.926   7.338  0.2706  0.2372 -0.2826
23749W        W24613   1.398  25.589   6.003 -0.0761 -0.0712  0.1843
23750W        W24614   2.648   2.125  11.343 -0.0414  0.2930  0.1810
23751W        W24615   2.237  23.959  10.801  0.0233 -0.2758 -0.1318
23752W        W24616   1.256  28.072  10.894  0.0714 -0.2767 -0.1893
23753W        W24617   2.227  26.972   8.309  0.1637 -0.0253  0.0921
23754W        W24618   4.698  29.107   7.555  0.0540 -0.0700 -0.0772
23755W        W24619   3.229  28.919   7.745  0.3121 -0.1405  0.0234
23756W        W24620   0.459   1.433   5.132  0.1096 -0.0441 -0.2495
23757W        W24621   2.069  24.178   8.557 -0.1802  0.1306 -0.3361
23758W        W24622   1.019  29.078   8.162 -0.3796 -0.0700 -0.3112
23759W        W24623   2.332  25.788  12.315  0.2028 -0.0689 -0.1848
23760W        W24624  28.599  27.993  14.416 -0.0978 -0.0714 -0.0577
23761W        W24625   2.784  25.831   9.685  0.3540  0.2286 -0.0349
23762W        W24626   1.855  27.045   9.530 -0.1176 -0.0344 -0.1285
23763W        W24627   4.063  28.034  10.191  0.0786 -0.0220 -0.1737
23764W        W24628   2.740  28.304   8.205 -0.1763  0.0755  0.1283
23765W        W24629   0.941  23.571  10.613 -0.0384 -0.1012  0.0408
23766W        W24630   2.184  28.857   9.036 -0.2844 -0.1181 -0.2383
23767W        W24631   3.878   1.707  10.227  0.3515  0.1650  0.0748
23768W        W24632   2.570  28.720  10.878  0.1511  0.0719  0.1789
23769W        W24633   2.007  27.386   9.205 -0.0652  0.1323 -0.0093
23770W        W24634   0.082  26.447  10.815 -0.2758  0.0049 -0.0044
23771W        W24635   4.830  25.662   9.463  0.0367 -0.1452 -0.2711
23772W        W24636   1.022  28.262  10.103  0.1977  0.2387 -0.0418
23773W        W24637   3.499  28.717   8.203  0.0926 -0.0222 -0.2069
23774W        W24638   1.940  28.357   9.045 -0.1319 -0.2903 -0.1187
23775W        W24639   5.698  27.051  10.965  0.1924 -0.0935  0.0761
23776W        W24640   2.563  27.747   5.406 -0.1275 -0.0366  0.0925
23777W        W24641   2.974  28.724  10.554 -0.0270  0.0019 -0.1940
23778W        W24642  29.108  26.815  11.178  0.0410  0.0196 -0.1382
23779W        W24643   1.991  28.703   9.589 -0.1424 -0.1332  0.1812
23780W        W24644   4.256  24.791  10.965 -0.0644 -0.0209  0.0576
23781W        W24645  28.314  26.177  10.342  0.1070  0.1632  0.0915
23782W        W24646   2.095  27.907  11.397 -0.1159  0.2706  0.0794
23783W        W24647  28.568  27.383  10.026 -0.0582 -0.0453  0.1657
23784W        W24648   0.147  27.073  12.730 -0.2317 -0.2802  0.0058
23785W        W24649   4.079  28.713  11.224 -0.0667 -0.2517 -0.1985
23786W        W24650   2.960   0.730  11.735  0.0317  0.1004  0.0151
23787W        W24651   5.176  27.160   9.445  0.0735  0.2266 -0.2117
23788W        W24652   2.328  28.740   7.939  0.0583  0.0087  0.0761
23789W        W24653   1.428  28.788  11.852  0.2566  0.1012  0.0279
23790W        W24654   0.930   0.784   9.123  0.0238 -0.2005 -0.0499
23791W        W24655   2.840  26.048  12.277  0.2288 -0.1125  0.0389
23792W        W24656   3.253  28.443  13.029 -0.3677 -0.3191  0.0018
23793W        W24657   0.790  29.093  10.470  0.0304  0.0039  0.1141
23794W        W24658   2.377  26.670  10.864 -0.2609  0.0869 -0.4431
23795W        W24659   2.700  29.065  11.880 -0.0614  0.1283 -0.0074
23796W        W24660   0.136   0.946  11.270  0.0943  0.1162 -0.1001
23797W        W24661   3.814  26.485  10.632 -0.2693 -0.2212  0.0359
23798W        W24662   1.544  27.467   8.819  0.2141  0.1880  0.0262
23799W        W24663   4.142   1.110  12.373 -0.2212  0.0015  0.2102
23800W        W24664   1.982  28.860   6.917 -0.0348  0.0726 -0.0179
23801W        W24665   2.944  26.223   9.389  0.0165  0.1178 -0.1834
23802W        W24666   0.622   0.198  13.312 -0.1852 -0.0888 -0.3379
23803W        W24667  27.350  26.073  15.486  0.0748  0.0943 -0.1484
23804W        W24668   4.208  26.195  10.297  0.3213  0.0363  0.0353
23805W        W24669   4.715  26.749  16.158 -0.1060  0.0891 -0.3690
23806W        W24670  27.273  27.201  12.081 -0.0108 -0.1674  0.2136
23807W        W24671   3.371  23.970  12.118  0.2586 -0.0453 -0.0434
23808W        W24672  28.030  28.063  13.946 -0.0037 -0.0953  0.1336
23809W        W24673   3.218  27.626  11.417  0.1053 -0.1814 -0.0261
23810W        W24674   3.266  28.800  15.113  0.0120 -0.0651 -0.0359
23811W        W24675   0.503  24.318  17.685  0.3383  0.2989 -0.3201
23812W        W24676  27.032  28.050  14.603 -0.1430 -0.1211 -0.0696
23813W        W24677   2.484  25.434  15.911  0.1089 -0.0285  0.0843
23814W        W24678   1.678  28.157  11.293  0.1714  0.0773  0.0564
23815W        W24679   1.966  26.207  17.623  0.1290  0.2368  0.1353
23816W        W24680  28.386  27.013  14.866 -0.1919  0.0136 -0.2991
23817W        W24681  27.592  28.107  13.227  0.2594  0.0455 -0.1800
23818W        W24682  28.782  28.444  12.894 -0.0887 -0.3024  0.1151
23819W        W24683  26.520  25.829  13.018  0.0532  0.1261 -0.0556
23820W        W24684  28.282   0.771  13.032 -0.0673 -0.3483 -0.0966
23821W        W24685   4.167  26.687  15.135 -0.3613 -0.0497 -0.2546
23822W        W24686  29.143  25.996  14.450  0.0064 -0.1883 -0.1084
23823W        W24687   1.015  27.567  12.499  0.2054 -0.2507 -0.2280
23824W        W24688   2.792  28.662  12.689  0.0392  0.2685 -0.0961
23825W        W24689  28.995  28.911  14.408 -0.0161 -0.0469 -0.2018
23826W        W24690   0.433  28.111  11.569 -0.1563  0.0135 -0.0838
23827W        W24691  28.535  27.240  15.868 -0.0396 -0.0637  0.2944
23828W        W24692   4.780  24.955  15.316  0.0264  0.3121  0.0190
23829W        W24693  29.033  29.005  11.466  0.0023  0.0899  0.0459
23830W        W24694   2.592   2.479  13.804 -0.3137  0.0322  0.3030
23831W        W24695   0.543  27.397  12.711 -0.0118  0.1844 -0.0915
23832W        W24696   3.026  28.990  12.326  0.0420  0.2812 -0.0675
23833W        W24697   1.436   0.737  14.674  0.2007 -0.4305  0.0598
23834W        W24698   2.230  27.862  15.616 -0.1866 -0.1942 -0.0683
23835W        W24699   1.910  29.039  13.996  0.1387 -0.0159 -0.0821
23836W        W24700  28.142  26.252  14.563 -0.2364 -0.0363 -0.2435
23837W        W24701   2.257   0.949  15.141  0.1126  0.0649 -0.0282
23838W        W24702   1.281  24.107  13.144  0.1387 -0.1867  0.0929
23839W        W24703   2.729   2.336  14.491  0.2158  0.2492  0.0753
23840W        W24704  28.461  28.601  14.630  0.0400  0.1723 -0.0396
23841W        W24705   1.610  25.207  14.025  0.0506  0.1919  0.1751
23842W        W24706   3.191  27.533  11.911 -0.0868  0.1174  0.2926
23843W        W24707   3.258  25.434  15.041  0.0035  0.3099 -0.1453
23844W        W24708   2.068  27.167  14.370 -0.1426 -0.0376  0.1320
23845W        W24709   3.301   0.338  11.501  0.2538  0.1624 -0.1547
23846W        W24710  27.958  29.009  14.224  0.0554  0.0484  0.1400
23847W        W24711   1.333   1.249  12.804  0.1878  0.1101  0.0869
23848W        W24712   0.811   0.310  15.350  0.2749  0.0516 -0.0325
23849W        W24713   4.617   0.983  12.380  0.3393 -0.0145  0.1761
23850W        W24714   1.770  27.646  14.092 -0.1105  0.0262  0.2195
23851W        W24715   5.394  26.464   9.801  0.2522 -0.0868 -0.0174
23852W        W24716  28.031  28.929  14.695  0.2004  0.0184  0.3194
23853W        W24717  28.826  26.711  14.118 -0.0902 -0.1197 -0.1655
23854W        W24718   1.139  26.492  14.184 -0.2409  0.0635 -0.0535
23855W        W24719   3.509  28.366  13.427 -0.0281  0.3253 -0.1641
23856W        W24720   3.713  23.650  12.100 -0.2029  0.0988 -0.3278
23857W        W24721   2.299  28.012  13.183  0.0387 -0.1554  0.0768
23858W        W24722   0.818  27.912  11.230 -0.1177 -0.1745 -0.0627
23859W        W24723   1.451  26.891  13.153 -0.0670 -0.3562  0.1449
23860W        W24724   0.272   0.533  11.809  0.0618 -0.3730  0.0508
23861W        W24725   1.687  28.610  12.207  0.2202  0.3373  0.3589
23862W        W24726   3.696  27.462  11.724  0.2704 -0.1026  0.0383
23863W        W24727  29.100  26.897  12.266  0.2176 -0.1859 -0.0009
23864W        W24728   1.052  29.030  15.541 -0.0023  0.1348  0.0081
23865W        W24729  28.673  26.706  15.136 -0.0276 -0.0837 -0.1360
23866W        W24730   0.938  25.710  14.709  0.0112 -0.2171 -0.0448
23867W        W24731   2.834  24.528  14.010 -0.0809 -0.3378 -0.3067
23868W        W24732   0.747  28.770  10.824 -0.2338  0.0266  0.3589
23869W        W24733   2.264  25.659  11.883 -0.4506  0.1356  0.1164
23870W        W24734   2.891  27.093  13.872  0.0983  0.0159 -0.1215
23871W        W24735   0.360   0.356  12.262  0.1808 -0.0577  0.2578
23872W        W24736  28.929  27.657  14.460 -0.0780 -0.0230 -0.1214
23873W        W24737   1.855  24.188  12.658 -0.0492 -0.1961  0.0480
23874W        W24738   1.396  27.855  13.261  0.2529  0.1510 -0.0835
23875W        W24739   3.404  27.705  14.844  0.1039 -0.2384  0.1341
23876W        W24740   2.698  27.397  11.006 -0.2782  0.1437  0.0455
23877W        W24741   2.637  27.259  14.251  0.1696  0.3744 -0.1018
23878W        W24742   0.084  26.437  12.878  0.0741  0.1929  0.1202
23879W        W24743  28.759   0.062  13.549 -0.0854 -0.2473 -0.0526
23880W        W24744   1.018  26.257  14.650 -0.2274  0.1728  0.0818
23881W        W24745   3.437  29.066  13.416  0.2232  0.3749 -0.0009
23882W        W24746   1.379  28.969  14.040 -0.3548  0.0601 -0.0435
23883W        W24747  27.539  28.927  14.741 -0.2406 -0.0373  0.1129
23884W        W24748  28.821  25.286  13.072 -0.0219 -0.0053 -0.0794
23885W        W24749   3.161  25.245  10.481  0.0080  0.1283 -0.1993
23886W        W24750   2.830  26.403  14.615 -0.0432  0.0885 -0.0217
23887W        W24751   2.464  26.359  11.198 -0.1840 -0.3767 -0.1319
23888W        W24752   1.117  28.454  13.995  0.0445  0.0334  0.0290
23889W        W24753   1.500  26.442  14.787 -0.0430  0.0019 -0.2012
23890W        W24754   2.274   0.597  14.748  0.1192 -0.1612 -0.2111
23891W        W24755   2.428  29.011  13.940  0.1188 -0.1577  0.1976
23892W        W24756   1.984  26.108  11.888 -0.1670  0.1394  0.2682
23893W        W24757   2.619  26.055  13.966  0.2265 -0.2088 -0.1442
23894W        W24758   0.284  28.738  13.741 -0.2294  0.2309 -0.1914
23895W        W24759   2.143  25.811  13.523  0.1615  0.0695 -0.0061
23896W        W24760  28.950  28.342  13.793  0.2206  0.0369  0.2726
23897W        W24761   3.134  25.945  11.104 -0.2744  0.1770 -0.3197
23898W        W24762   2.901  25.887  10.622 -0.0924 -0.2458 -0.2294
23899W        W24763   1.541   0.269  14.264 -0.2681 -0.1179  0.0112
23900W        W24764  27.342  26.666  13.136  0.1642  0.0263  0.2066
23901W        W24765   2.839  26.354  15.198 -0.0793 -0.1084  0.2443
23902W        W24766   3.640  28.425  15.126 -0.0477 -0.0982  0.3157
23903W        W24767  28.402  28.357  13.235  0.3556 -0.0521  0.0760
23904W        W24768   1.485  26.218  11.340 -0.2028 -0.1651  0.1767
23905W        W24769   3.023  26.870  13.019 -0.3461  0.0701  0.1759
23906W        W24770   1.987  27.693  13.555 -0.0562 -0.2802 -0.0983
23907W        W24771  29.015  27.641  13.827 -0.1305  0.0337  0.0716
23908W        W24772   0.108  27.781  13.389 -0.2380 -0.2234 -0.1644
23909W        W24773   2.938  27.686  14.634 -0.1778  0.3909 -0.1633
23910W        W24774   2.222  25.449  10.854  0.0750 -0.0526  0.4102
23911W        W24775   0.935  26.595  13.532 -0.0105  0.0398  0.0911
23912W        W24776  29.105  28.064  12.981 -0.0741  0.2150  0.0986
23913W        W24777   5.285  27.575  12.035  0.0242  0.0353 -0.3787
23914W        W24778   1.640  28.927  14.449 -0.0858 -0.2163 -0.0773
23915W        W24779   2.381  28.582  16.147  0.0158 -0.0269 -0.1017
23916W        W24780   4.328  28.409   9.927 -0.1169  0.2017 -0.2857
23917W        W24781   0.919  27.110  11.539  0.0080  0.1473  0.0494
23918W        W24782   4.988  21.011  12.983  0.0168 -0.0521 -0.0479
23919W        W24783   3.658  26.881  14.469 -0.0213  0.3407 -0.1094
23920W        W24784   1.716  28.175  12.926 -0.1457 -0.0594 -0.0935
23921W        W24785   1.351  26.942  11.759  0.1155  0.0715  0.3478
23922W        W24786   3.049  28.265  12.565  0.2099 -0.1126 -0.5305
23923W        W24787   1.898   1.887  13.482 -0.0631  0.1965 -0.1110
23924W        W24788   5.112  27.765  10.956 -0.1494 -0.1219 -0.0244
23925W        W24789   1.594  28.530  13.830 -0.1468 -0.0185 -0.0135
23926W        W24790   3.262  26.965  12.552 -0.2783  0.4711  0.1187
23927W        W24791   2.428   0.563  13.696 -0.0505  0.1290  0.4152
23928W        W24792   0.153  25.854  13.621  0.0967  0.0255 -0.0173
23929W        W24793   4.046  27.259  10.995  0.0783 -0.2374 -0.0614
23930W        W24794   2.154  28.595  13.959 -0.0200 -0.1167  0.0553
23931W        W24795   1.457  28.100  14.094 -0.1811 -0.1781  0.1677
23932W        W24796   2.227  28.433  16.740  0.1428  0.0890  0.3317
23933W        W24797   1.417  24.877  13.611  0.1301 -0.1371  0.2902
23934W        W24798  28.375  28.154  14.885  0.1098  0.2232  0.2470
23935W        W24799   4.781  23.800  12.493 -0.0035  0.0645 -0.1521
23936W        W24800   2.738  25.195  13.649 -0.3685 -0.0195 -0.3578
23937W        W24801  28.838  27.264  14.872  0.1102  0.5806 -0.2799
23938W        W24802   3.693  26.043  15.458 -0.1042 -0.3006  0.3607
23939W        W24803   3.279  27.042  16.335  0.0492  0.1359  0.0174
23940W        W24804   1.534   1.053  15.179 -0.3198 -0.1385 -0.2671
23941W        W24805  28.763   1.466  12.384  0.3533 -0.0088 -0.2824
23942W        W24806   3.058  24.085  12.880  0.0269  0.2432 -0.1667
23943W        W24807   0.572  26.558  15.482  0.0370 -0.1166  0.0456
23944W        W24808   0.863  29.125  11.845  0.0084 -0.1082  0.2938
23945W        W24809   2.811  26.549  12.057 -0.0791  0.1730  0.1869
23946W        W24810   2.177  25.812  15.770  0.1192 -0.0444  0.2591
23947W        W24811   2.256  24.903   9.023  0.1605 -0.0129  0.1930
23948W        W24812   5.351  26.845  11.608  0.3205 -0.0173  0.2868
23949W        W24813   2.690   0.017  12.750  0.0551  0.2110 -0.0494
23950W        W24814   1.890   0.521  12.909  0.0125  0.4385  0.0966
23951W        W24815   1.098   0.050  13.223 -0.1625 -0.0348 -0.0349
23952W        W24816   3.512   0.843  14.039  0.0980 -0.4528 -0.1396
23953W        W24817  28.424  26.294  13.154 -0.2413 -0.2693 -0.1335
23954W        W24818   2.490  28.070  13.731 -0.0210 -0.3164 -0.3771
23955W        W24819   1.298  27.434  11.708  0.1143  0.0416 -0.3720
23956W        W24820  28.770  28.441  14.252 -0.1633  0.0264 -0.0346
23957W        W24821   3.148  26.048  14.755 -0.2526 -0.1781 -0.0313
23958W        W24822  26.338  28.269  17.022 -0.3035 -0.0462  0.1234
23959W        W24823   4.733   0.522  11.746 -0.1217 -0.1992 -0.0231
23960W        W24824  28.723  25.779  11.894 -0.2083  0.2095 -0.1842
23961W        W24825   4.227  25.493  10.331 -0.1173  0.0860 -0.2376
23962W        W24826   0.768  25.804  15.515  0.0283 -0.3128 -0.0261
23963W        W24827  28.864   2.484  14.838  0.2293 -0.0669 -0.0079
23964W        W24828   1.748  28.198  17.037 -0.0040 -0.1247  0.3379
23965W        W24829   3.478  27.971  16.111 -0.3045  0.1986  0.0158
23966W        W24830   0.179  27.410  15.582 -0.0830 -0.0243  0.2309
23967W        W24831  28.488  24.103  14.219  0.0900 -0.1079 -0.0564
23968W        W24832   1.278  24.267  12.600 -0.1120  0.1116  0.1180
23969W        W24833  28.997  28.826  10.731  0.1111 -0.5419 -0.1128
23970W        W24834   1.949   1.060  14.164 -0.1606  0.0986 -0.1976
23971W        W24835  29.030  28.546  12.386  0.3320  0.0013 -0.0109
23972W        W24836   1.802  25.953  12.387  0.0427  0.1351 -0.0376
23973W        W24837   3.466  27.501  12.663 -0.2551 -0.2489  0.1865
23974W        W24838   0.614   1.089  15.543  0.0447 -0.0043 -0.2068
23975W        W24839   0.957  27.164  12.911  0.1428  0.0254  0.0624
23976W        W24840   3.965  26.087  11.369  0.1258 -0.0562 -0.2238
23977W        W24841   5.112  27.661  11.501 -0.0078  0.3178 -0.0506
23978W        W24842   0.116  26.546  15.294  0.1827 -0.0030 -0.2030
23979W        W24843   0.049   1.328  13.732  0.1201  0.1213 -0.2240
23980W        W24844   0.203  28.206  12.523  0.0284 -0.2069 -0.0210
23981W        W24845   5.088  26.476  13.607 -0.0969 -0.2258 -0.0463
23982W        W24846   2.012  26.400  13.904  0.0070 -0.0849 -0.0886
23983W        W24847   4.704   0.104   8.778 -0.1302 -0.0817 -0.0501
23984W        W24848   1.543  26.448  12.776 -0.0042  0.0659 -0.2558
23985W        W24849   1.130  26.500  11.626  0.0567  0.0176 -0.0136
23986W        W24850   4.290  24.107  12.487  0.1907  0.1714  0.0570
23987W        W24851   3.225  27.522  16.008  0.1574  0.0676  0.0100
23988W        W24852   1.366  24.320   9.655 -0.0099  0.2256 -0.0061
23989W        W24853  27.867  26.966  12.176  0.3192 -0.0993 -0.2324
23990W        W24854   0.568  28.432  14.566 -0.1260  0.0711 -0.0538
23991W        W24855   0.139  28.484  14.195 -0.0622 -0.3150 -0.0640
23992W        W24856  29.027   0.491  12.231 -0.1808  0.2246  0.1427
23993W        W24857  28.710  26.629  12.053  0.0594  0.0489  0.1268
23994W        W24858  27.327  25.864  16.364  0.1245 -0.0770 -0.0096
23995W        W24859   4.236  27.588  14.486  0.0562  0.0162  0.0570
23996W        W24860   2.869  29.020  15.448  0.3379  0.0868  0.0504
23997W        W24861  28.906  22.181  12.003 -0.2392  0.1892 -0.1357
23998W        W24862   1.811  26.779  13.492  0.1796 -0.0418 -0.0484
23999W        W24863  29.057  27.005  15.295 -0.2698  0.0135  0.0180
24000W        W24864   1.205  28.318  13.010  0.3313  0.0599  0.2186
24001W        W24865   2.378  28.804  12.316 -0.0010 -0.0913  0.1042
24002W        W24866  28.776  27.511  11.488 -0.1000 -0.4886 -0.0811
24003W        W24867   1.145  27.562  15.243  0.0741  0.2146 -0.3027
24004W        W24868   4.265  25.804  10.709  0.1439  0.0966 -0.2047
24005W        W24869   0.596  25.691  13.506 -0.2451  0.1569 -0.0114
24006W        W24870   3.863  28.332  16.569  0.0936 -0.0963 -0.0022
24007W        W24871   3.396  26.419  13.247 -0.1489 -0.0689 -0.1373
24008W        W24872   0.134  26.000  14.934  0.2642 -0.1425  0.0245
24009W        W24873   1.624  27.249  13.506  0.0976  0.1969 -0.0621
24010W        W24874   3.316   0.238  11.007  0.0868  0.1294  0.0009
24011W        W24875   2.275  24.728  14.598 -0.1535  0.1433  0.3469
24012W        W24876   0.082  28.099  14.623  0.0915 -0.2128 -0.1079
24013W        W24877  28.609  27.990  12.905 -0.1334 -0.3774  0.1582
24014W        W24878   0.648  26.989  13.479 -0.1615  0.2065  0.0728
24015W        W24879   5.623  24.789  13.691 -0.0715 -0.0612 -0.1373
24016W        W24880   2.949  27.363  16.541  0.0253  0.2629 -0.5203
24017W        W24881   5.177   0.752   9.842 -0.3185 -0.1606  0.1280
24018W        W24882   3.000  27.781  12.748 -0.1917 -0.2772 -0.0885
24019W        W24883   2.289  29.120  10.624  0.1356 -0.0461  0.0201
24020W        W24884   3.185  27.499  13.686  0.0778  0.2275  0.0338
24021W        W24885   0.901  27.041  15.147  0.1358  0.0608 -0.2191
24022W        W24886   3.599  25.480  14.689 -0.2380  0.1694 -0.0192
24023W        W24887   3.312  26.601  12.227  0.1238 -0.0539  0.1831
24024W        W24888   0.925   0.408  18.092 -0.0812  0.0128  0.2221
24025W        W24889   2.116  27.489  11.784  0.1261 -0.0430  0.1007
24026W        W24890   4.628  27.359  12.291 -0.2586  0.2705  0.0610
24027W        W24891   0.681   0.019  14.684  0.0380  0.2625 -0.0973
24028W        W24892   0.460  26.310  14.667 -0.1801  0.1817 -0.4016
24029W        W24893   4.955  25.816  14.137  0.1743 -0.0066  0.1748
24030W        W24894   2.713   0.114  10.208  0.0623  0.3172  0.0365
24031W        W24895   2.041  28.319  13.566 -0.0894  0.0967  0.0879
24032W        W24896   1.162  26.670  16.218 -0.0939 -0.2442 -0.1346
24033W        W24897   2.022   2.360  13.255 -0.1415 -0.0701  0.2027
24034W        W24898   0.204   1.283  13.022 -0.2014 -0.1409 -0.4175
24035W        W24899   2.895  27.919  12.060  0.0603  0.2300  0.2235
24036W        W24900   1.432  26.815  15.078  0.0913 -0.0693  0.1243
24037W        W24901   2.827  27.168  13.374  0.1362  0.0630 -0.1762
24038W        W24902   2.726  28.464  12.200 -0.1219  0.1363  0.2455
24039W        W24903   3.989  28.310  13.676 -0.3136 -0.0481  0.1348
24040W        W24904   3.986   0.467  13.995  0.0746 -0.1332 -0.0878
24041W        W24905   2.833  28.173  13.085  0.0553 -0.1182 -0.1357
24042W        W24906   3.022  27.668  15.130  0.2137 -0.0602 -0.0999
24043W        W24907   2.333  27.669  14.127  0.0126  0.1774  0.1819
24044W        W24908   1.018  28.739  13.124  0.0893 -0.1659 -0.4425
24045W        W24909   1.020  26.782  14.747  0.3495 -0.1276 -0.0847
24046W        W24910   0.886  27.994  13.896 -0.0906 -0.0291 -0.0563
24047W        W24911   2.436   0.788  11.798 -0.0454  0.1358  0.0624
24048W        W24912   4.811  27.493  12.743  0.3291  0.4764 -0.3421
24049W        W24913   0.978  28.085  14.389  0.0785  0.0699  0.0206
24050W        W24914   4.752   0.189  12.658  0.3334 -0.1376 -0.4261
24051W        W24915   1.247  25.423  14.277  0.1871  0.0954 -0.0886
24052W        W24916   1.121   1.668  12.879  0.2757 -0.0328 -0.2927
24053W        W24917   0.307   1.755  15.713 -0.0721  0.1468  0.1261
24054W        W24918   2.950  28.097  14.905  0.0027 -0.0907 -0.0061
24055W        W24919  28.587  26.488  13.617  0.0570 -0.0373 -0.2639
24056W        W24920   2.058  26.327  12.596 -0.0625  0.2080 -0.2030
24057W        W24921   5.049   0.051  12.002 -0.0100 -0.0278  0.2669
24058W        W24922   3.966  26.663  13.135  0.1413  0.1876 -0.0518
24059W        W24923   0.610  24.529  13.814 -0.0621  0.1196 -0.1275
24060W        W24924   2.769  25.061  11.173  0.2555 -0.2411  0.1357
24061W        W24925   1.278  26.169  12.427  0.1414  0.1503  0.0714
24062W        W24926   2.285  26.314  14.404 -0.0954 -0.2209  0.0306
24063W        W24927   1.961  26.703  14.563 -0.2506  0.0769 -0.2781
24064W        W24928   3.513  26.817  13.019  0.0273  0.1322  0.0596
24065W        W24929  26.934  28.669  15.207  0.2495  0.0145 -0.0185
24066W        W24930   2.149  28.371  12.246  0.1624  0.3665  0.4034
24067W        W24931   0.406   1.608  14.423  0.0345  0.0474 -0.2472
24068W        W24932  27.290  28.705  13.082  0.0145  0.0833 -0.0483
24069W        W24933   2.347  26.421  12.183 -0.3328  0.1135 -0.0143
24070W        W24934   2.505   1.536  12.677  0.1022 -0.1549  0.0654
24071W        W24935   6.001  27.390   8.722  0.0207  0.1259  0.0130
24072W        W24936   2.727   0.685  13.217  0.0663  0.2557 -0.0569
24073W        W24937   1.662  25.847  15.766  0.2341 -0.3719 -0.1940
24074W        W24938   2.756  25.848  14.395 -0.1605  0.1045 -0.1105
24075W        W24939  28.179   0.863  15.610  0.2255  0.0552 -0.0215
24076W        W24940   4.869   2.230  13.725  0.3224  0.1620  0.4043
24077W        W24941   1.101  25.066  14.598 -0.1209 -0.0685  0.2615
24078W        W24942   0.238  26.384  14.148 -0.0942  0.1699  0.0860
24079W        W24943   0.439  28.388  13.085  0.1694  0.1221 -0.0367
24080W        W24944   3.138  25.217  11.633 -0.1790  0.1658 -0.0650
24081W        W24945  28.047  27.792  12.644  0.0329 -0.1321  0.0911
24082W        W24946   1.376  28.540  12.590  0.0243 -0.0197 -0.1352
24083W        W24947   1.947  23.721  12.758 -0.0416 -0.0057  0.1385
24084W        W24948   2.285   0.901  12.712 -0.0913  0.2449  0.1897
24085W        W24949   0.337   0.810  15.223 -0.0244  0.2003  0.2888
24086W        W24950   3.565  24.815  12.284  0.2390 -0.1500  0.0530
24087W        W24951   3.548  26.041  17.551 -0.1376  0.3409 -0.0483
24088W        W24952   2.222  28.603  13.118  0.1480 -0.0478 -0.2487
24089W        W24953  28.344   0.496  13.460 -0.1046  0.1145 -0.0222
24090W        W24954   6.328  27.560  12.936 -0.0105 -0.0444  0.0577
24091W        W24955   0.770  27.337  12.083  0.1243  0.5354  0.2261
24092W        W24956   4.493  26.383  11.387 -0.0906  0.1044 -0.0670
24093W        W24957   2.948  27.171  11.461 -0.0074 -0.0905 -0.0004
24094W        W24958   2.428   0.011  15.200  0.2123 -0.0273 -0.2093
24095W        W24959   1.685  27.782  11.673  0.1420  0.0585  0.2500
24096W        W24960   0.337  28.600  11.684 -0.1809  0.0381 -0.1524
24097W        W24961   5.147  25.373  13.261  0.0279 -0.0697 -0.0110
24098W        W24962   1.545  27.077  12.645 -0.1890 -0.3893  0.2075
24099W        W24963   4.225   0.417  11.633 -0.2707 -0.2022  0.1578
24100W        W24964   3.338  24.363  12.501  0.0916 -0.2411  0.3853
24101W        W24965  27.848  28.046  15.003 -0.1045  0.2370 -0.1910
24102W        W24966   0.768  28.176  12.549 -0.1457 -0.2424 -0.4778
24103W        W24967   0.302  25.540  15.587  0.1533 -0.1872 -0.1649
24104W        W24968   0.546  27.896  14.683 -0.3497 -0.0501  0.1756
24105W        W24969   0.431   0.156  11.553  0.4431  0.2531  0.0904
24106W        W24970   6.299  25.405  11.196  0.2904  0.2433  0.2485
24107W        W24971   0.997   0.908  12.693 -0.4016  0.3078  0.1572
24108W        W24972   4.473  27.965  14.677  0.0873  0.1252  0.0985
24109W        W24973   1.379  24.522  12.161 -0.0792  0.2854 -0.0699
24110W        W24974   2.534  26.843  14.502 -0.0801 -0.3015  0.2614
24111W        W24975  28.520  27.081  12.568  0.0165 -0.2801  0.1107
24112W        W24976   1.734  25.814  11.590 -0.2426 -0.1669 -0.4064
24113W        W24977   1.258  27.235  12.182  0.0736 -0.0989  0.0917
24114W        W24978   3.096  25.202  12.110  0.2579  0.1477 -0.1681
24115W        W24979   5.687   1.802  14.647  0.0321  0.0852 -0.0294
24116W        W24980   2.675  27.536  13.780  0.1439 -0.0123  0.3272
24117W        W24981   2.663   0.915  14.633 -0.0922  0.2090 -0.0854
24118W        W24982   2.818  25.466  12.479 -0.0960  0.0873 -0.1456
24119W        W24983   4.225  28.221  11.217  0.0811  0.1157  0.0365
24120W        W24984   4.534  29.029  14.400  0.1683  0.0948 -0.1249
24121W        W24985   2.357   1.089  13.801  0.0331 -0.0635  0.0713
24122W        W24986   0.610  29.094  13.796 -0.2671 -0.0986  0.1381
24123W        W24987   6.881   1.321  11.150 -0.2384  0.2212  0.0872
24124W        W24988  26.795  26.896  15.413 -0.1845 -0.0578 -0.0810
24125W        W24989   0.178   0.415  13.066 -0.2196 -0.1341 -0.0818
24126W        W24990   2.247   0.280  11.999  0.0830  0.2258 -0.0406
24127W        W24991   1.429   1.715  13.550 -0.0097  0.1335  0.0645
24128W        W24992   2.223  25.268  12.262  0.1884  0.3180  0.0756
24129W        W24993   0.288  28.624   9.487 -0.0555  0.0729 -0.0311
24130W        W24994   4.689  25.503  11.014  0.1973 -0.0160  0.2011
24131W        W24995   4.289  26.065  13.425  0.4077 -0.4383  0.2274
24132W        W24996   1.062   0.189  14.034  0.1725 -0.3032 -0.0269
24133W        W24997   3.879  28.259   9.628  0.1173  0.0477 -0.0967
24134W        W24998   3.646  26.823  15.017  0.0979 -0.0777  0.3396
24135W        W24999   1.139   0.010  15.082 -0.3238 -0.1175  0.0217
24136W        W25000   3.553  26.189  13.883 -0.1264  0.0943  0.0645
24137W        W25001   3.534   1.951  16.070  0.2466  0.1933 -0.3621
24138W        W25002   2.733   0.296  14.110  0.0541 -0.2492  0.1264
24139W        W25003   3.635   0.267  10.552 -0.2981 -0.3120  0.0927
24140W        W25004   3.683  26.496  12.690  0.3874 -0.2658  0.1744
24141W        W25005   2.296  24.657  11.976  0.1471  0.0423 -0.1705
24142W        W25006   2.862  28.183  11.606  0.1533 -0.0837 -0.1431
24143W        W25007  28.048  25.579  11.286  0.1167  0.0522  0.2113
24144W        W25008   2.259  25.593  14.554 -0.1163  0.2108 -0.1507
24145W        W25009   0.717   1.230  13.013 -0.0865 -0.1613  0.0512
24146W        W25010   2.781  27.281  12.854  0.0083 -0.0966 -0.1218
24147W        W25011   0.922  28.100  15.727 -0.0627  0.0476 -0.1131
24148W        W25012   1.635  28.134  12.388  0.0508 -0.2384 -0.0242
24149W        W25013   0.882  24.524  11.695  0.2237 -0.0889 -0.3395
24150W        W25014   2.392  26.904  14.011 -0.0622 -0.0337 -0.0114
24151W        W25015   2.165  29.050  12.840 -0.1944  0.0393  0.0844
24152W        W25016   3.906  26.408  16.248  0.1724 -0.0959 -0.1285
24153W        W25017   1.107  28.441  10.566 -0.1727  0.1230 -0.0354
24154W        W25018   4.056  27.137  12.277  0.2466  0.0066  0.0206
24155W        W25019   2.596   0.297  11.575  0.0203 -0.0381 -0.2337
24156W        W25020   1.466   0.384  13.725 -0.0572  0.0492  0.1434
24157W        W25021   3.139  22.978  10.421  0.0582  0.0355 -0.4234
24158W        W25022  28.037   0.407  14.224  0.2774 -0.2825  0.0413
24159W        W25023   0.323  26.085  15.612 -0.0225 -0.3502  0.2601
24160W        W25024   0.937  27.430  13.871 -0.1957 -0.2456  0.0694
24161W        W25025  24.938  27.535  14.021 -0.2382 -0.2031  0.0359
24162W        W25026   0.181  26.951  10.721  0.0179 -0.0394 -0.1068
24163W        W25027   3.037  25.827  16.955 -0.1107  0.0140  0.2050
24164W        W25028   0.656   1.728  13.070  0.3822 -0.0715 -0.0499
24165W        W25029   4.820  26.426  10.541 -0.4798 -0.1646  0.0558
24166W        W25030   1.095   0.375  14.570 -0.1456 -0.2752 -0.2345
24167W        W25031   1.997  28.111  13.992 -0.0165  0.1230  0.2630
24168W        W25032   2.930   2.189  13.451  0.1897  0.1604 -0.0487
24169W        W25033   3.051  25.728  11.627  0.1586  0.2737  0.1324
24170W        W25034   2.476  25.527   9.915 -0.1913 -0.2597  0.1455
24171W        W25035   2.669   0.544  11.140  0.1468 -0.3889  0.0125
24172W        W25036   1.235  27.661  14.211  0.0620 -0.1256  0.0028
24173W        W25037   4.013   0.244  13.261  0.1063 -0.2965  0.1357
24174W        W25038   2.713  27.433  10.089 -0.0751 -0.3697  0.3195
24175W        W25039   3.698  25.975  14.360  0.1766 -0.1752 -0.0469
24176W        W25040   3.689  27.860  11.437  0.3501  0.1980 -0.1449
24177W        W25041   1.249  27.260  14.873  0.1421  0.1599 -0.2214
24178W        W25042   0.963  27.831  12.961 -0.3199 -0.1543 -0.1450
24179W        W25043   5.040  26.509  14.597 -0.0303 -0.0382  0.1617
24180W        W25044   0.819  28.766  14.281 -0.2383 -0.1234  0.2230
24181W        W25045  27.292  26.720  16.233  0.2164  0.2262  0.1114
24182W        W25046  28.248  28.894  15.577  0.0924 -0.1914 -0.0258
24183W        W25047   0.126   0.144   9.134 -0.2998 -0.0913 -0.1441
24184W        W25048  28.890  28.038  12.512  0.1943 -0.1225  0.1804
24185W        W25049   6.535  26.144  13.963  0.0327  0.1001 -0.0427
24186W        W25050   4.396  29.018  13.282 -0.0504 -0.1543  0.1521
24187W        W25051   2.495  27.852  14.534  0.1976  0.2109 -0.0384
24188W        W25052   4.302   0.573  12.650  0.2364 -0.1009 -0.0296
24189W        W25053   1.070   0.323  12.827  0.2685 -0.2111  0.0222
24190W        W25054   1.040   0.521  12.319  0.0665 -0.0340  0.2879
24191W        W25055   0.303  27.294  12.192 -0.1675 -0.0613 -0.0789
24192W        W25056   2.618  27.333  14.787  0.3176  0.2836 -0.1485
24193W        W25057   2.780  28.024  14.133  0.0236 -0.0807  0.2319
24194W        W25058   0.979  26.685  13.051  0.1510  0.0676 -0.2549
24195W        W25059   3.164   1.285  13.738  0.1195  0.0587 -0.1681
24196W        W25060  28.836  27.579  13.232 -0.1286  0.0636  0.2924
24197W        W25061  28.353  27.430  14.646  0.1656 -0.0271 -0.0322
24198W        W25062  27.745   0.206  14.662 -0.0185  0.0413  0.0482
24199W        W25063   1.267  27.947  12.626  0.1970  0.1757  0.0272
24200W        W25064   1.407   0.516  11.878  0.2012  0.0813 -0.2898
24201W        W25065   2.409   0.617  10.037 -0.0569  0.0877 -0.2465
24202W        W25066  28.640  28.718  17.044 -0.3434 -0.1417  0.1242
24203W        W25067   0.792  27.204  15.652  0.2116 -0.2533 -0.0763
24204W        W25068   3.188   1.510  15.836 -0.0541 -0.0062  0.1913
24205W        W25069   1.897  26.271  15.641  0.1427 -0.1082  0.1090
24206W        W25070   0.007   2.200  15.672 -0.0055  0.2635  0.0168
24207W        W25071   1.714  27.900  16.502  0.0134  0.1368 -0.3261
24208W        W25072   2.525  27.644  16.614  0.1250 -0.1160 -0.0539
24209W        W25073   3.207  27.263  15.589  0.0527 -0.0272  0.3566
24210W        W25074   2.508  28.511  17.159 -0.1082  0.0281 -0.2994
24211W        W25075   1.179  26.880  17.834 -0.2307 -0.0113 -0.1990
24212W        W25076  28.108  27.738  18.054  0.1184  0.1110 -0.0009
24213W        W25077  29.139  26.381  17.190  0.2611  0.0146 -0.1050
24214W        W25078   2.856  28.559  15.073  0.0364  0.3885  0.1895
24215W        W25079   3.120  23.436  17.020 -0.0137 -0.0847  0.1345
24216W        W25080   1.562  26.662  15.518 -0.1167  0.0976  0.0260
24217W        W25081   3.129  27.892  17.584  0.0064 -0.1287  0.4710
24218W        W25082   2.854  27.490  17.099  0.0661 -0.2771  0.1603
24219W        W25083  27.505  28.318  17.816 -0.2595 -0.0458 -0.1479
24220W        W25084   0.744  28.323  17.412  0.2479 -0.1226 -0.1356
24221W        W25085   5.423  27.082  18.414 -0.0278 -0.3093  0.1046
24222W        W25086   5.851  29.125  16.846  0.1421 -0.2008  0.0919
24223W        W25087   2.969  28.703  17.760  0.0491  0.3054 -0.1414
24224W        W25088   1.987  26.688  17.185 -0.0680  0.0445  0.4074
24225W        W25089   1.287  26.089  16.337 -0.0498  0.0916  0.0379
24226W        W25090   0.290  25.951  16.951 -0.1127 -0.1899  0.2131
24227W        W25091   0.186  26.542  18.650  0.0814  0.1505 -0.2048
24228W        W25092   5.467  27.114  18.929  0.3090  0.1283 -0.0659
24229W        W25093  27.684  28.084  15.485  0.0406  0.3002 -0.0382
24230W        W25094   0.713  26.092  16.779  0.1542 -0.0231  0.0170
24231W        W25095  28.967  26.668  16.105  0.0999  0.2718  0.1029
24232W        W25096   2.142  26.154  17.152 -0.4244 -0.2659 -0.1856
24233W        W25097   3.812  28.966  18.423  0.2064 -0.1275 -0.0168
24234W        W25098   1.529  27.116  17.585 -0.0465 -0.0224 -0.0353
24235W        W25099   1.731  25.823  17.172  0.0970 -0.0506  0.1055
24236W        W25100  28.505  26.099  20.589  0.0050  0.0487 -0.0692
24237W        W25101   4.418  27.487  17.358 -0.1733  0.0574 -0.1439
24238W        W25102  28.649  26.434  17.227 -0.0582  0.1731  0.0238
24239W        W25103   1.185  28.302  18.911 -0.0132  0.1155  0.2529
24240W        W25104   3.102  25.749  16.468 -0.0233 -0.4041  0.2244
24241W        W25105   1.142  24.959  19.704 -0.3278 -0.1305 -0.0727
24242W        W25106   1.557  27.452  14.522 -0.0785 -0.0594 -0.1175
24243W        W25107   3.169  26.713  18.937 -0.2549  0.1343  0.1053
24244W        W25108   2.318   0.241  16.730  0.0822 -0.2372  0.0847
24245W        W25109   4.113  26.006  16.747  0.2538 -0.2329  0.0923
24246W        W25110  27.924   1.759  15.414 -0.2675 -0.1643 -0.1643
24247W        W25111  29.098   1.066  15.061  0.2811 -0.1733  0.3540
24248W        W25112  28.825  26.439  17.728  0.0299 -0.0781  0.1755
24249W        W25113   2.686  25.135  17.144  0.1942  0.0548  0.1274
24250W        W25114   2.178  27.514  14.755  0.2018  0.0378 -0.0044
24251W        W25115   3.122  26.792  15.888  0.3604  0.2947 -0.0995
24252W        W25116   2.337  27.451  18.544 -0.0054  0.0959  0.4545
24253W        W25117   2.991  25.961  17.625  0.2616  0.2291 -0.1462
24254W        W25118   2.462  28.020  18.473  0.1250 -0.1589 -0.0469
24255W        W25119   4.752  26.466  17.491  0.2942  0.3029  0.3852
24256W        W25120   0.288  28.219  13.684  0.1579  0.1788 -0.0789
24257W        W25121   0.730   0.666  17.136  0.1888 -0.3680  0.1970
24258W        W25122  28.771  26.140  16.194  0.1635  0.2986 -0.0393
24259W        W25123   2.312  25.641  18.106 -0.0582  0.0448  0.1519
24260W        W25124   0.392  28.929  14.204  0.1532 -0.1406 -0.1221
24261W        W25125   1.149   1.245  18.484  0.0072 -0.0498  0.0693
24262W        W25126   3.384  27.546  16.488  0.3702 -0.0798 -0.0290
24263W        W25127  26.338  27.458  19.050  0.3758 -0.0316  0.3410
24264W        W25128   0.890  27.635  17.517  0.3024 -0.0359  0.0679
24265W        W25129   2.677  26.321  15.678  0.3023 -0.3435  0.1301
24266W        W25130   1.660  28.329  17.950 -0.1651  0.0476 -0.0169
24267W        W25131   2.526  24.168  16.710 -0.0326  0.1185 -0.0434
24268W        W25132   3.125  25.907  15.330  0.0328 -0.2636  0.2953
24269W        W25133  27.403  27.196  16.044  0.0191  0.3767 -0.1681
24270W        W25134   0.467   2.027  17.240 -0.1461  0.2960  0.3095
24271W        W25135   1.941  26.640  15.040  0.0706  0.0275 -0.1879
24272W        W25136   2.218  27.892  15.055  0.0941 -0.2340 -0.0627
24273W        W25137   1.300  28.903  16.501 -0.0336  0.0694  0.1558
24274W        W25138   5.856  27.417  16.303 -0.0136  0.1014 -0.2497
24275W        W25139   4.736  26.833  18.807 -0.3528 -0.0066 -0.1102
24276W        W25140   2.683  27.701  16.039  0.2799 -0.3296 -0.0753
24277W        W25141   2.263  25.625  20.060 -0.4209 -0.0950 -0.0430
24278W        W25142  28.237  25.281  15.452  0.2989  0.0608 -0.2936
24279W        W25143   0.525  27.658  16.486 -0.0399 -0.3519 -0.1802
24280W        W25144   2.102  26.962  15.900 -0.2099 -0.1926  0.1139
24281W        W25145   3.638  24.694  16.920  0.0042  0.2445 -0.0059
24282W        W25146   4.113  25.089  17.951  0.0539 -0.2076  0.1304
24283W        W25147  27.930  25.878  17.219 -0.3251  0.0016 -0.0332
24284W        W25148   2.479  24.366  15.581 -0.1837  0.0635  0.1655
24285W        W25149   1.847  26.560  16.092  0.1998 -0.1698  0.1228
24286W        W25150  28.053  27.479  16.683 -0.2820 -0.0942  0.3598
24287W        W25151   3.794  26.399  16.775  0.0058  0.0492 -0.0162
24288W        W25152   6.540  27.888  18.242 -0.2833  0.2712  0.1005
24289W        W25153   1.138  26.181  19.400  0.5588 -0.2481 -0.1032
24290W        W25154   1.832  27.729  17.188 -0.2689  0.1120 -0.2113
24291W        W25155   5.646  25.220  17.052 -0.1116  0.0395  0.1656
24292W        W25156   4.841  23.498  14.443 -0.0900  0.1839 -0.0713
24293W        W25157   5.234  28.928  18.779  0.0515 -0.1375 -0.0973
24294W        W25158   0.216   2.009  16.600 -0.1848  0.2123  0.0830
24295W        W25159   1.483  28.495  17.489  0.0347 -0.2267  0.0362
24296W        W25160   0.046  24.576  18.565  0.2730  0.0020  0.0959
24297W        W25161   2.069  26.040  14.735  0.0252  0.2816  0.1828
24298W        W25162   2.260  25.141  16.856  0.1162  0.0138 -0.4093
24299W        W25163   1.538  27.638  18.494 -0.0089  0.1842 -0.1047
24300W        W25164   2.521  27.187  16.304  0.1482  0.0023 -0.1919
24301W        W25165   2.234  23.773  16.996 -0.0164  0.0499  0.2907
24302W        W25166   2.897  28.751  13.211  0.0459  0.0339  0.0439
24303W        W25167  29.055  25.354  17.122  0.0781 -0.1113  0.4142
24304W        W25168   1.213  25.543  15.516  0.1170 -0.2596 -0.1363
24305W        W25169   3.302  28.362  17.476  0.0578 -0.1213  0.0724
24306W        W25170   4.808  24.048  19.597 -0.1903 -0.5097 -0.3009
24307W        W25171   0.204  26.315  16.652 -0.1941 -0.1638 -0.1265
24308W        W25172   1.087  27.389  16.527 -0.0959  0.2465  0.0831
24309W        W25173   3.670  27.879  19.573 -0.1518  0.0140 -0.0418
24310W        W25174   2.094  26.906  16.783  0.2028  0.0685  0.0888
24311W        W25175   1.592  26.931  15.923 -0.1735 -0.0152 -0.0683
24312W        W25176   0.584  27.613  18.026  0.0680 -0.1644  0.0470
24313W        W25177   3.332  29.116  15.635 -0.1169 -0.3375  0.2194
24314W        W25178   2.629  25.605  16.809  0.0397  0.1232 -0.0729
24315W        W25179   3.087   1.154  18.556  0.2181 -0.1297  0.0531
24316W        W25180   3.944  27.868  13.973  0.2281  0.1420 -0.0016
24317W        W25181   4.094  25.927  18.422 -0.2240 -0.3360 -0.1299
24318W        W25182   1.242  22.763  16.853 -0.0284  0.0192  0.1539
24319W        W25183  29.104  28.235  17.739 -0.0112  0.2621  0.2471
24320W        W25184   3.004  25.408  18.909 -0.0070 -0.2038 -0.2075
24321W        W25185  27.676  26.239  16.290  0.4334 -0.0894 -0.3784
24322W        W25186   0.425  27.079  15.276  0.0872  0.1937 -0.0338
24323W        W25187   0.197  27.323  16.444  0.1802 -0.0616  0.0453
24324W        W25188   2.188  27.740  16.220 -0.1033 -0.1955  0.0334
24325W        W25189   4.049  27.171  15.241  0.2922  0.1023  0.2633
24326W        W25190   1.472  27.131  17.085  0.2957  0.3357  0.3901
24327W        W25191   3.496  24.836  18.334 -0.0470  0.0650  0.0271
24328W        W25192  28.622  26.015  17.555  0.2039  0.2130  0.4567
24329W        W25193   3.149  28.884  16.709  0.3357 -0.1067 -0.1399
24330W        W25194   3.971  29.051  16.255  0.3416 -0.3835 -0.1223
24331W        W25195   1.959  27.804  18.703  0.2373 -0.0002  0.0226
24332W        W25196   4.404  29.091  19.673 -0.2265 -0.1373  0.0690
24333W        W25197  29.087  26.343  18.204 -0.1082 -0.2337  0.2747
24334W        W25198   0.967  28.217  14.849  0.2550 -0.2320 -0.2405
24335W        W25199   1.384  25.465  14.738 -0.0958 -0.2576  0.2227
24336W        W25200   4.242  27.667  19.135 -0.2915 -0.0859 -0.2538
24337W        W25201  28.950  27.846  18.928  0.0414  0.2755 -0.1364
24338W        W25202   3.298  25.923  18.553 -0.1770  0.2397 -0.3797
24339W        W25203   0.923  25.082  17.835 -0.0584 -0.0018 -0.0948
24340W        W25204   2.216  26.373  18.482  0.2804 -0.0667 -0.1694
24341W        W25205  28.948  27.784  14.942 -0.0072  0.2190  0.0100
24342W        W25206   1.582  27.614  14.989  0.2052 -0.2529  0.0248
24343W        W25207  28.525  27.435  13.665  0.1073  0.2814 -0.1215
24344W        W25208  28.171   1.279  16.703  0.0686 -0.2047 -0.1042
24345W        W25209   0.698  28.019  16.190  0.2389 -0.2859  0.2835
24346W        W25210   2.716  27.952  17.956  0.0057  0.0280 -0.0987
24347W        W25211   0.525  28.337  15.052  0.1942  0.0830  0.2341
24348W        W25212   2.231  25.638  17.181  0.1191 -0.2770  0.1625
24349W        W25213   4.172   1.430  15.140 -0.1290 -0.0631 -0.2616
24350W        W25214   1.750  26.669  17.592  0.2291 -0.4652 -0.0405
24351W        W25215   5.397  27.724  16.396 -0.1210 -0.2121  0.4058
24352W        W25216   0.121  27.911  16.524 -0.0111 -0.0595 -0.0762
24353W        W25217  27.639  27.324  17.600 -0.0759  0.0041 -0.0252
24354W        W25218   2.166  26.931  19.950 -0.1744 -0.2625 -0.0044
24355W        W25219  29.088  25.726  15.894 -0.0660  0.1267 -0.0102
24356W        W25220   3.164  29.027  19.064  0.0056 -0.1129  0.2192
24357W        W25221   1.545  25.337  15.191 -0.3378  0.2165  0.1467
24358W        W25222  28.458   1.240  18.645  0.3704  0.0668  0.1210
24359W        W25223   1.466   0.201  15.623  0.3273 -0.2531  0.0850
24360W        W25224   0.354  25.262  16.968 -0.1682  0.3083 -0.2526
24361W        W25225   4.329  26.896  17.559  0.0416  0.0474  0.0370
24362W        W25226   5.257  26.021  17.969  0.0456  0.3622  0.1013
24363W        W25227   3.410   0.328  18.920 -0.0091  0.1365  0.0190
24364W        W25228   3.082  26.463  18.439 -0.1679 -0.1451  0.2565
24365W        W25229   4.258   1.646  18.111  0.1169 -0.0167 -0.0991
24366W        W25230  28.783  27.806  19.446 -0.0105  0.2445  0.1721
24367W        W25231  29.135  28.045  19.783 -0.2028 -0.0388 -0.0142
24368W        W25232  29.126  28.368  16.561 -0.3097  0.4230 -0.4310
24369W        W25233  28.823   1.385  17.529  0.1252 -0.3714 -0.2102
24370W        W25234   1.934  28.640  17.098  0.2302  0.0063  0.1998
24371W        W25235  28.199  28.134  15.550 -0.2753 -0.1303 -0.0411
24372W        W25236   4.802  25.618  16.935 -0.0456  0.1565  0.0097
24373W        W25237   3.853  25.567  18.125  0.1060  0.0685 -0.1977
24374W        W25238   0.536  28.555  17.054 -0.0839  0.2200 -0.1331
24375W        W25239   2.024  28.710  14.989 -0.2236  0.1521  0.1783
24376W        W25240   3.715  27.840  19.093 -0.2429 -0.0397 -0.1960
24377W        W25241   3.882  26.148  17.197 -0.1167 -0.1886 -0.3058
24378W        W25242  26.950   3.115  15.437 -0.2219 -0.0439 -0.1023
24379W        W25243   0.806   0.128  18.513  0.1286 -0.3087  0.2956
24380W        W25244   3.161  28.128  15.309  0.1586 -0.2410  0.2750
24381W        W25245   2.317  27.744  18.136  0.2909 -0.3681  0.0571
24382W        W25246   1.099  27.738  14.744  0.3371 -0.2935  0.2796
24383W        W25247   3.591   1.114  15.998  0.0828  0.0362 -0.0109
24384W        W25248   1.183  28.531  14.464 -0.0168  0.0502  0.1479
24385W        W25249  28.567  27.354  14.174  0.0575  0.2302  0.0448
24386W        W25250   2.036  26.403  16.713 -0.1155 -0.0786  0.2983
24387W        W25251   1.868  28.747  16.143  0.0417  0.0024 -0.1732
24388W        W25252   2.654  24.985  16.145  0.1499 -0.0671 -0.0379
24389W        W25253  27.718  27.563  14.161 -0.1899  0.4295 -0.0595
24390W        W25254   0.946   0.696  19.138 -0.2316 -0.0503 -0.0207
24391W        W25255   0.404  27.988  17.530  0.1637 -0.1748 -0.0920
24392W        W25256   0.574   0.370  14.308 -0.0798  0.0138 -0.1604
24393W        W25257  29.072  27.166  14.128 -0.0180  0.1911  0.2160
24394W        W25258   1.398   2.202  18.192  0.1419 -0.1303 -0.1801
24395W        W25259   3.636  25.097  18.821 -0.1212 -0.0716  0.2830
24396W        W25260   4.405  25.030  16.709  0.5392 -0.2272 -0.1288
24397W        W25261   0.156  24.702  14.381  0.0263  0.0406 -0.1680
24398W        W25262   1.804  25.279  17.294  0.2036  0.1912 -0.0650
24399W        W25263   1.026  24.307  15.980 -0.2268 -0.0457  0.3787
24400W        W25264   0.207  25.939  16.253 -0.1446  0.2953 -0.1745
24401W        W25265   1.660  25.100  18.844 -0.2703  0.0145  0.3945
24402W        W25266  26.624  27.968  18.230 -0.1500 -0.3948 -0.0260
24403W        W25267   1.761  23.594  16.687 -0.1334 -0.0142  0.1893
24404W        W25268   1.758  26.768  14.122 -0.1070 -0.4969  0.0487
24405W        W25269   1.268  25.193  16.557  0.0007  0.0286 -0.3947
24406W        W25270   2.304  27.580  17.109  0.1838 -0.1621 -0.0902
24407W        W25271  28.210  26.620  11.950 -0.1081  0.0005 -0.0685
24408W        W25272   2.463  25.564  18.622 -0.0152 -0.0842  0.1600
24409W        W25273   4.430  27.189  18.967  0.0484 -0.0677  0.1939
24410W        W25274   0.591  27.732  15.670  0.0491  0.1705 -0.1500
24411W        W25275  26.669  27.975  15.843 -0.1073  0.1925 -0.2110
24412W        W25276   1.584   1.122  16.430  0.1664 -0.0916  0.2029
24413W        W25277   0.199  28.192  16.146  0.0085 -0.0239 -0.0281
24414W        W25278   1.772   0.153  16.414  0.2441  0.0997 -0.0022
24415W        W25279   3.165  26.468  17.666  0.1819  0.1949  0.1348
24416W        W25280   2.482  27.209  20.758 -0.2824  0.1560 -0.1548
24417W        W25281   2.781  25.864  15.827 -0.1992 -0.1032 -0.1681
24418W        W25282   4.397  28.178  17.712  0.0559  0.2036  0.3247
24419W        W25283   3.414   0.100  16.463 -0.0506  0.0417 -0.3474
24420W        W25284   3.517  27.454  17.654 -0.0722 -0.0351 -0.2131
24421W        W25285  28.211  27.911  20.364 -0.1984  0.1865  0.0630
24422W        W25286   3.348  24.381  18.155  0.0435  0.2599 -0.1825
24423W        W25287   6.225  27.996  18.956 -0.0308  0.1216  0.2954
24424W        W25288   3.850   0.248  17.206 -0.0101  0.1999  0.0868
24425W        W25289  28.041  27.296  13.744  0.1103 -0.0605  0.1761
24426W        W25290   4.176   0.192  15.818 -0.0639  0.3705  0.2526
24427W        W25291  28.368  27.247  18.061 -0.0813  0.3473  0.0221
24428W        W25292   2.131  29.076  17.287  0.0548  0.0337  0.0277
24429W        W25293   4.799  26.182  17.894  0.0692 -0.2685 -0.0564
24430W        W25294   3.261  28.576  15.662 -0.0495  0.1571  0.1829
24431W        W25295   1.071  26.401  17.009  0.0930  0.0886 -0.1540
24432W        W25296   1.343  25.374  17.871 -0.1099 -0.1050 -0.0555
24433W        W25297   2.355  27.657  18.990 -0.2582 -0.1493  0.1749
24434W        W25298   3.075   0.758  15.371 -0.0277  0.3388  0.1653
24435W        W25299   2.345  26.588  17.529  0.2492  0.2845  0.0294
24436W        W25300   2.814  26.758  15.484 -0.0580 -0.2788  0.0887
24437W        W25301   4.454  26.003  17.550 -0.2226  0.0117  0.0772
24438W        W25302   4.510  26.986  16.516 -0.2033 -0.2323 -0.1222
24439W        W25303  28.594  26.580  18.219  0.1890  0.0968 -0.0337
24440W        W25304   3.105  28.485  16.190 -0.0457  0.1091 -0.0385
24441W        W25305   1.045  25.580  18.591 -0.1194 -0.2853 -0.2143
24442W        W25306   1.884   0.385  16.910 -0.2248 -0.2254  0.1796
24443W        W25307  28.591  28.843  16.086  0.1545 -0.3365  0.1010
24444W        W25308   0.325  27.647  16.968 -0.0870 -0.1661  0.2120
24445W        W25309   1.030  26.908  16.885 -0.0180  0.1385  0.0154
24446W        W25310   1.840  26.316  18.813  0.0722  0.1722 -0.3680
24447W        W25311   2.762  28.920  14.264 -0.0196 -0.2080  0.0501
24448W        W25312   1.761  27.392  15.747 -0.2653 -0.0629  0.1639
24449W        W25313   1.385   0.176  16.773 -0.0721 -0.3269  0.1185
24450W        W25314   3.010  27.931  16.550 -0.0471  0.2956 -0.0368
24451W        W25315  26.955  27.199  16.236 -0.0296  0.0995 -0.1114
24452W        W25316  27.864  27.505  17.183 -0.2792 -0.0135  0.1319
24453W        W25317  28.471  28.524  15.213 -0.1790  0.4439  0.0345
24454W        W25318   3.902  27.816  14.812  0.0012 -0.2803  0.0826
24455W        W25319   3.529  25.612  16.164  0.2511  0.0708 -0.0171
24456W        W25320   1.041  27.447  17.004  0.0284  0.0297  0.1952
24457W        W25321   4.622   0.240  15.751 -0.0249  0.1395 -0.0453
24458W        W25322   0.466  25.620  15.120 -0.3244 -0.2057  0.0968
24459W        W25323   1.340  24.921  18.060  0.1544  0.2425 -0.1095
24460W        W25324   2.908  28.900  13.774  0.2038 -0.2416 -0.0306
24461W        W25325   2.992  25.598  13.917 -0.0796  0.0948 -0.1937
24462W        W25326   0.145  27.341  14.538  0.1372  0.3217  0.1035
24463W        W25327   1.155  26.514  18.245 -0.0108  0.1199  0.4590
24464W        W25328   2.337   1.079  16.521 -0.1940  0.4307 -0.0339
24465W        W25329  28.884  24.478  16.039  0.0098  0.0053 -0.0131
24466W        W25330   3.074  28.267  17.963  0.5852 -0.0830  0.0020
24467W        W25331   0.989   0.689  18.541 -0.0599 -0.1051  0.0638
24468W        W25332  27.489   1.608  17.252  0.1765 -0.0723 -0.1074
24469W        W25333   3.021  27.434  12.390 -0.1308  0.0411 -0.1591
24470W        W25334   2.045   0.636  17.297  0.0779  0.2831  0.0322
24471W        W25335   1.319  26.672  17.355  0.0263  0.2540 -0.0046
24472W        W25336   0.352  28.249  15.589 -0.0083 -0.2591 -0.0466
24473W        W25337   2.610  27.352  17.753 -0.1614  0.0054  0.0912
24474W        W25338   2.017  25.934  19.454 -0.2337 -0.0894 -0.1050
24475W        W25339   1.942  27.224  17.250 -0.0203 -0.0546  0.0642
24476W        W25340   2.710  28.632  16.616 -0.1729  0.2282 -0.0040
24477W        W25341   6.881  26.197  18.758 -0.1195  0.1050  0.2773
24478W        W25342   0.057  25.360  18.405  0.1365 -0.0252  0.0070
24479W        W25343   3.625  28.407  17.009  0.2874  0.1342  0.1032
24480W        W25344   1.127  27.127  16.069 -0.2677 -0.0753  0.1044
24481W        W25345  27.129  27.919  18.774 -0.1888 -0.0676  0.0029
24482W        W25346   2.204  26.086  18.085  0.4065 -0.0298  0.1588
24483W        W25347   0.623  27.160  14.623 -0.1461 -0.0978  0.1146
24484W        W25348   3.431  26.584  16.314 -0.2928  0.0468  0.0881
24485W        W25349  26.984  27.501  16.962  0.2095  0.0979 -0.1526
24486W        W25350   1.379  27.579  17.434 -0.0703  0.2468 -0.0502
24487W        W25351   5.048  25.177  19.811 -0.1785  0.0146  0.0019
24488W        W25352   2.156  27.940  16.776 -0.2889  0.0959  0.0450
24489W        W25353   0.096  26.692  17.826  0.0050  0.1362  0.2437
24490W        W25354   2.244  25.299  15.391  0.0617  0.1013 -0.0956
24491W        W25355   3.416  26.790  15.456 -0.1479  0.0720  0.0397
24492W        W25356   4.266  25.308  17.183  0.1950 -0.1691  0.2201
24493W        W25357   3.624  25.097  17.962 -0.1757  0.4234  0.1076
24494W        W25358   1.540  25.944  17.624 -0.3116  0.0307 -0.1582
24495W        W25359  28.234  28.910  18.690 -0.0047 -0.0056  0.0508
24496W        W25360   0.410  28.015  14.232 -0.0974 -0.2117  0.0725
24497W        W25361   0.337  23.898  16.422 -0.2358  0.0128  0.0766
24498W        W25362   0.239  24.040  19.014 -0.0190 -0.0032 -0.2570
24499W        W25363   3.686   0.508  16.737 -0.1750 -0.3160  0.0557
24500W        W25364   2.899  23.890  18.291 -0.2425 -0.0587  0.2330
24501W        W25365   2.006  27.192  16.337  0.1436 -0.0914 -0.0444
24502W        W25366  27.351  28.705  15.978 -0.1223 -0.1403 -0.0190
24503W        W25367  28.245  24.234  20.144  0.2325 -0.1533  0.0219
24504W        W25368   5.579  27.221  16.700  0.0506 -0.3717 -0.4955
24505W        W25369   3.918  28.340  17.458 -0.0844  0.1717  0.0863
24506W        W25370   3.064  26.873  14.262  0.1352 -0.1090  0.1972
24507W        W25371   2.422  27.036  18.128  0.0015 -0.0371  0.2565
24508W        W25372   3.939  27.426  18.880  0.0333  0.1553 -0.1544
24509W        W25373   2.474  26.557  16.996 -0.1400 -0.0323  0.1707
24510W        W25374   0.349  25.587  17.335 -0.1062 -0.1196 -0.2869
24511W        W25375  28.984  25.950  19.032 -0.0219  0.1212  0.0197
24512W        W25376   1.527  28.557  14.798 -0.0849 -0.2702  0.2028
24513W        W25377   1.137  27.137  18.356 -0.0640 -0.2377 -0.0145
24514W        W25378   1.278  27.605  15.748  0.1340  0.0419 -0.0834
24515W        W25379   2.714  28.375  19.675  0.1314 -0.2684 -0.1650
24516W        W25380  29.126  27.274  17.301 -0.0901  0.0156 -0.2586
24517W        W25381   3.168  27.949  17.072  0.0616 -0.0595  0.0784
24518W        W25382  27.457  26.435  15.038 -0.1279 -0.1035 -0.1125
24519W        W25383   2.154  24.002  16.497 -0.0881  0.1515 -0.1906
24520W        W25384   3.157   0.736  18.248 -0.2560 -0.1373  0.0760
24521W        W25385   1.460  27.765  16.903 -0.2406 -0.2398 -0.0263
24522W        W25386  28.697  27.546  17.213 -0.1084  0.1093 -0.1050
24523W        W25387   1.559  28.341  16.148 -0.1014 -0.0021  0.1509
24524W        W25388  28.767  26.208  16.803 -0.4342  0.1654 -0.1176
24525W        W25389   2.783  26.163  17.205  0.3130  0.4784  0.0759
24526W        W25390  28.130  26.023  15.656 -0.0223  0.1793 -0.0523
24527W        W25391   0.795  26.589  17.389  0.0876 -0.0236  0.1348
24528W        W25392   0.479  24.497  18.137  0.3645 -0.0549  0.1406
24529W        W25393   0.489  26.186  13.703 -0.2216 -0.1078 -0.0059
24530W        W25394   1.399  27.191  15.442  0.2165  0.0796 -0.2555
24531W        W25395  28.917  25.496  13.532 -0.1384 -0.0230 -0.3237
24532W        W25396  29.127  28.697  16.927 -0.0865  0.1663  0.1740
24533W        W25397   0.658  25.235  13.848  0.0946 -0.0015 -0.0419
24534W        W25398   3.323   0.175  16.996  0.1330 -0.0457  0.0221
24535W        W25399   2.260  26.853  19.391 -0.1331  0.4333  0.3158
24536W        W25400   5.888  26.841  19.485  0.1128  0.1123  0.2347
24537W        W25401   4.738   0.441  15.303  0.1056 -0.0883  0.0979
24538W        W25402  27.830   1.698  16.923  0.1230 -0.0178  0.0901
24539W        W25403   3.083  28.129  15.804 -0.1862 -0.0161 -0.0597
24540W        W25404   1.928  27.789  19.176  0.0660 -0.1080 -0.0340
24541W        W25405   0.844  25.248  15.730 -0.0761  0.1599 -0.1496
24542W        W25406   0.098  25.266  15.234 -0.0472  0.0371  0.2291
24543W        W25407   2.212  28.107  17.254 -0.0284  0.0166  0.0064
24544W        W25408   0.576  25.675  15.985 -0.1772  0.1836  0.1322
24545W        W25409   0.311   2.563  16.953 -0.2157  0.0608 -0.0706
24546W        W25410   4.846  24.928  16.773  0.1601 -0.2702  0.1807
24547W        W25411   0.995  28.366  16.961 -0.1741 -0.0102  0.0082
24548W        W25412   0.859  28.012  17.826  0.1538 -0.2120  0.1016
24549W        W25413   3.139  25.340  16.934  0.0422  0.0827  0.1793
24550W        W25414   0.747  26.765  18.379 -0.3313  0.2675 -0.0719
24551W        W25415   0.179  24.732  15.231  0.0821  0.0784 -0.2203
24552W        W25416   0.570  27.477  19.132  0.1874  0.0273 -0.0791
24553W        W25417   4.205  23.703  13.204 -0.2101  0.1724 -0.0702
24554W        W25418   3.114  26.129  18.089 -0.3089  0.1959 -0.6238
24555W        W25419   0.901  26.126  18.375 -0.2290  0.1941 -0.2140
24556W        W25420   1.469  29.024  16.033 -0.0234 -0.2556 -0.0721
24557W        W25421   2.141  25.904  14.096  0.0263 -0.3050 -0.0836
24558W        W25422  28.848   0.980  17.334 -0.0451  0.2138  0.0068
24559W        W25423   3.477  26.963  19.605 -0.0975  0.0195  0.2541
24560W        W25424   1.446  27.665  19.527  0.0500  0.0310  0.3792
24561W        W25425   0.710  26.817  15.979 -0.0220 -0.3183  0.4627
24562W        W25426   2.939  25.685  18.291  0.0639 -0.0600  0.0081
24563W        W25427   4.771  28.246  20.943 -0.2239  0.3366 -0.0386
24564W        W25428   1.948  25.431  18.364 -0.1161  0.0203 -0.1611
24565W        W25429   0.476  25.814  18.331 -0.0372  0.3599  0.0763
24566W        W25430   1.212   1.218  13.329  0.0348 -0.1150  0.0105
24567W        W25431   2.764  27.713  13.271 -0.1595 -0.1766  0.1658
24568W        W25432   4.829   2.061  14.241  0.1088 -0.0498 -0.0583
24569W        W25433   1.462  25.308  18.393  0.1069  0.1269 -0.1219
24570W        W25434   1.085  27.276  14.440  0.1400  0.1444 -0.0901
24571W        W25435   3.583  26.510  17.371  0.0047  0.1590  0.0664
24572W        W25436   1.533  28.856  15.261  0.1851  0.3011  0.0591
24573W        W25437   2.784  25.569  17.328  0.0364 -0.0317  0.2798
24574W        W25438   2.914  26.714  16.362 -0.0203  0.0027  0.3118
24575W        W25439   4.461   0.733  17.567  0.1549 -0.3290 -0.2124
24576W        W25440   3.593   0.950  13.149  0.1440  0.0729  0.0683
24577W        W25441   1.523  27.396  18.021  0.1894 -0.1871 -0.2146
24578W        W25442   1.551  26.936  16.417 -0.0228  0.0205  0.1561
24579W        W25443   3.990  25.967  17.854 -0.0701 -0.1650  0.0876
24580W        W25444  29.125  27.805  17.319  0.4596  0.0172  0.1226
24581W        W25445   0.570  26.715  19.033  0.0841  0.0677 -0.0060
24582W        W25446   4.334  24.897  19.280 -0.2449 -0.3343  0.2085
24583W        W25447   1.842   1.468  14.343  0.1580 -0.0057 -0.0831
24584W        W25448  28.878  28.325  20.120 -0.3411 -0.3419 -0.1535
24585W        W25449   4.060  28.535  18.512  0.2004  0.0756 -0.0112
24586W        W25450   2.999   0.196  15.975  0.0367 -0.0167 -0.3834
24587W        W25451   1.239  25.004  19.228 -0.1258 -0.2761 -0.1285
24588W        W25452   1.742   0.254  17.464 -0.0607  0.0982  0.4020
24589W        W25453   2.368  28.483  19.284 -0.4682 -0.1922 -0.0165
24590W        W25454  28.596  27.434  16.756 -0.1196 -0.1123 -0.1977
24591W        W25455   1.973  27.297  18.796 -0.1424  0.2270  0.3933
24592W        W25456   1.260  25.558  19.043  0.2610  0.1146  0.0662
24593W        W25457  28.972  27.775  18.366  0.1222  0.2067 -0.0110
24594W        W25458   2.566  26.790  15.924  0.2531 -0.1566  0.2581
24595W        W25459   3.648  28.459  16.099  0.0374 -0.1056 -0.0652
24596W        W25460   1.297   0.278  16.271  0.1880  0.1444  0.0755
24597W        W25461   0.621  27.283  18.418 -0.2168 -0.0100  0.0896
24598W        W25462   1.775  26.409  18.226  0.0005 -0.3191 -0.0181
24599W        W25463   2.751  28.247  17.537 -0.0865  0.0867 -0.1193
24600W        W25464  29.142   1.260  17.007  0.0491 -0.1863 -0.2153
24601W        W25465   2.629  28.063  16.903  0.0050 -0.2445  0.0026
24602W        W25466  27.752   1.871  22.379  0.2361  0.2261 -0.0839
24603W        W25467   0.834  27.954  22.755  0.0319  0.0258  0.0212
24604W        W25468   5.962  27.129  18.249  0.1829  0.1983  0.0123
24605W        W25469   4.230   0.510  21.400 -0.0044 -0.0484 -0.1465
24606W        W25470   0.712  28.197  18.296 -0.3511  0.1306  0.1326
24607W        W25471   3.027  26.281  20.367 -0.2944  0.2293 -0.0553
24608W        W25472   0.123  27.012  20.745 -0.0616 -0.1014 -0.0799
24609W        W25473   4.349  27.994  20.074  0.2397  0.0651  0.1823
24610W        W25474   2.107   3.043  21.540 -0.1803 -0.0538 -0.0719
24611W        W25475  28.160  25.504  19.463  0.1089 -0.0804 -0.1963
24612W        W25476   1.592  27.132  18.545 -0.0971  0.1254 -0.1318
24613W        W25477   3.425  28.314  18.404 -0.1598 -0.0720 -0.0326
24614W        W25478   2.282  25.407  19.583  0.0044  0.1900  0.2041
24615W        W25479   3.384   0.486  20.775  0.0093  0.2470  0.0324
24616W        W25480   0.019  22.864  21.830 -0.2046  0.1280  0.0229
24617W        W25481   0.452   0.218  22.937  0.0073  0.1276 -0.0432
24618W        W25482   3.576  26.990  18.945  0.2286 -0.0434 -0.1245
24619W        W25483   2.747  26.259  21.115 -0.0108 -0.2277  0.1709
24620W        W25484   0.602  27.057  19.422  0.2568 -0.1208 -0.2098
24621W        W25485   6.361  28.305  18.610  0.0176  0.0794  0.1307
24622W        W25486   1.906  26.418  19.288  0.0502 -0.2662  0.3618
24623W        W25487   0.352  27.743  21.560 -0.2423 -0.2681 -0.2785
24624W        W25488   2.231  27.212  23.831 -0.3410  0.2701 -0.3664
24625W        W25489   0.268  28.524  24.789  0.2500  0.1823  0.1121
24626W        W25490   0.578  28.073  22.388 -0.0047 -0.0092 -0.2697
24627W        W25491   1.242  27.482  22.036 -0.1703  0.3416 -0.1648
24628W        W25492   4.418  26.700  20.049 -0.0059 -0.1505 -0.0852
24629W        W25493  27.601  27.159  20.411 -0.1645  0.0994  0.0701
24630W        W25494   2.010  28.242  20.195 -0.0582 -0.2901 -0.0812
24631W        W25495  27.990  27.258  21.001  0.0243 -0.0764 -0.0739
24632W        W25496  28.825  27.406  20.273  0.1351 -0.0725 -0.5103
24633W        W25497   3.768   1.314  22.393  0.0680  0.0595  0.0161
24634W        W25498   2.826  27.512  22.359  0.1464  0.0703 -0.1052
24635W        W25499   1.909  28.309  19.314 -0.1573 -0.2628  0.1852
24636W        W25500   1.141  25.763  24.263  0.1640 -0.3298  0.0058
24637W        W25501   1.193   1.634  21.755 -0.0739 -0.2532 -0.2227
24638W        W25502   0.173  24.873  20.782 -0.1139  0.1565 -0.0400
24639W        W25503   0.552  26.658  23.196  0.2016  0.2703 -0.3841
24640W        W25504   1.557   1.247  17.311  0.1316  0.2599 -0.2379
24641W        W25505   3.660  26.554  18.736  0.1407 -0.1573 -0.3746
24642W        W25506   3.552  26.652  18.266  0.0369 -0.0186  0.1868
24643W        W25507   2.505  27.995  19.929  0.2751 -0.1498  0.1515
24644W        W25508   1.661  28.413  20.770 -0.0052  0.1955 -0.2934
24645W        W25509   5.487   1.244  19.971 -0.0372  0.0258 -0.1184
24646W        W25510   3.274   0.707  19.221 -0.0144 -0.0552  0.1031
24647W        W25511   1.669  28.756  18.212 -0.1003  0.1950 -0.0009
24648W        W25512  28.635  25.584  20.395 -0.0734  0.2689  0.0183
24649W        W25513   1.146  25.708  21.410 -0.2305 -0.0554 -0.2033
24650W        W25514   1.217  25.923  18.044  0.0848  0.0410 -0.3658
24651W        W25515   1.215  27.092  21.148  0.2412 -0.0348  0.2391
24652W        W25516   3.738  27.463  20.558 -0.2789  0.3980 -0.1234
24653W        W25517  28.625  26.028  19.454 -0.0822 -0.0991 -0.2914
24654W        W25518   0.255  26.805  16.387  0.0920  0.1718  0.2039
24655W        W25519   5.956   1.354  19.824 -0.0754 -0.2406 -0.2738
24656W        W25520   0.953  27.359  21.597 -0.0754 -0.2815  0.0245
24657W        W25521   0.256  28.562  17.496 -0.2435 -0.1290  0.0054
24658W        W25522   1.033  27.305  19.797  0.2047 -0.1078  0.0473
24659W        W25523   1.683  28.275  19.786 -0.1709 -0.1804  0.1673
24660W        W25524   0.392  28.387  19.059  0.2024 -0.0172  0.1104
24661W        W25525   0.802  28.085  19.244  0.4192 -0.0402  0.0349
24662W        W25526   3.090  27.930  20.429 -0.3086 -0.1049  0.1722
24663W        W25527  29.069  25.148  19.769  0.0767  0.2392  0.1064
24664W        W25528   0.921   0.411  24.413 -0.1402 -0.1300 -0.1451
24665W        W25529  28.658   0.087  20.390 -0.1444 -0.1959 -0.0161
24666W        W25530   1.421  27.101  21.748  0.0972 -0.0092 -0.1900
24667W        W25531   1.411  26.578  19.683 -0.2699  0.2595  0.2935
24668W        W25532   1.334  28.646  21.132 -0.0241  0.2019 -0.0029
24669W        W25533   0.692  25.648  19.104 -0.3292 -0.1737 -0.1112
24670W        W25534   0.646  28.446  20.033 -0.0225  0.0730 -0.4899
24671W        W25535   4.736  28.921  18.983 -0.0596 -0.0425  0.0051
24672W        W25536   3.005  29.001  21.041  0.4587 -0.3256 -0.3242
24673W        W25537   1.418  26.365  17.858 -0.0155 -0.1624  0.1031
24674W        W25538   3.175   3.642  21.435 -0.0303  0.0339  0.1034
24675W        W25539   1.839  27.368  20.781  0.0406 -0.0173  0.1910
24676W        W25540   4.288   1.374  18.514 -0.0534 -0.1015  0.0030
24677W        W25541   0.384  28.200  19.548  0.0895  0.0156  0.2116
24678W        W25542  28.863  27.080  21.167 -0.0586  0.0463  0.3720
24679W        W25543  28.934  26.799  20.279 -0.2652  0.0177  0.0385
24680W        W25544   3.266  26.911  17.294  0.0859 -0.0766  0.2968
24681W        W25545   0.136  27.213  20.206 -0.1229 -0.1589  0.0409
24682W        W25546   0.349   0.396  19.312 -0.1671 -0.0048 -0.1736
24683W        W25547   0.954  28.319  21.336  0.1470 -0.0631  0.3687
24684W        W25548  26.562  25.181  20.226 -0.0743 -0.2032  0.1554
24685W        W25549   0.234  26.093  20.272  0.0495  0.0439 -0.0861
24686W        W25550   2.869   3.281  20.997 -0.1066 -0.0227  0.1893
24687W        W25551   1.090  23.643  20.306 -0.2115 -0.0676  0.1750
24688W        W25552   4.062  27.878  23.545 -0.1912  0.1356 -0.4713
24689W        W25553   2.966  26.560  20.767 -0.0842 -0.1092  0.2581
24690W        W25554   3.554  28.665  19.259 -0.1747 -0.2114  0.1704
24691W        W25555   2.895  28.525  20.989  0.0701 -0.0003  0.0446
24692W        W25556   2.677  26.308  17.820  0.0234 -0.0311 -0.1705
24693W        W25557   1.024  28.863  22.008 -0.0097 -0.1171 -0.1517
24694W        W25558   0.936   1.622  20.125  0.0310 -0.2292  0.0343
24695W        W25559  28.388  26.227  21.170 -0.0153 -0.2213 -0.2069
24696W        W25560   0.726  27.382  20.922 -0.0507  0.0373  0.2755
24697W        W25561   5.716  26.342  17.992  0.1609 -0.0333  0.0120
24698W        W25562   3.949  27.019  19.803 -0.0069  0.0187 -0.1646
24699W        W25563   1.342   0.792  22.597  0.1889  0.2393 -0.2616
24700W        W25564   1.690  25.787  18.107  0.2986  0.0841  0.0594
24701W        W25565   4.638  27.316  21.814 -0.0241 -0.3281  0.3081
24702W        W25566   5.823  27.914  16.069 -0.0566 -0.3156 -0.0235
24703W        W25567   0.045  28.104  21.534 -0.0829  0.1514 -0.0480
24704W        W25568   1.830  26.391  20.849  0.2847  0.1692 -0.2143
24705W        W25569   3.434  25.599  17.247  0.0630  0.0372  0.1241
24706W        W25570   3.031  25.743  19.384  0.1400 -0.2649 -0.1244
24707W        W25571   0.231   1.318  21.018  0.1397 -0.0523  0.2195
24708W        W25572   3.975  28.827  19.437  0.0330  0.1564 -0.1563
24709W        W25573   2.184  28.404  19.737 -0.0349 -0.1297 -0.0364
24710W        W25574   3.221  27.348  20.450 -0.1911  0.0672 -0.1721
24711W        W25575   1.436  27.537  21.021 -0.0310  0.1497 -0.0920
24712W        W25576  28.868  28.747  20.609 -0.3092 -0.2702 -0.2831
24713W        W25577   3.496  28.752  18.737 -0.2402  0.0656  0.1118
24714W        W25578   4.697  25.842  20.518 -0.2698 -0.0709  0.2535
24715W        W25579   0.824   0.941  20.863  0.2782  0.1639 -0.1752
24716W        W25580   1.851  27.474  16.714 -0.2135 -0.0317 -0.0327
24717W        W25581   4.207  27.121  21.555 -0.1423 -0.0813 -0.0898
24718W        W25582   4.963  27.904  22.378  0.0823 -0.1630 -0.0792
24719W        W25583   1.082  26.022  20.561 -0.0005 -0.1621  0.0368
24720W        W25584   1.853  26.656  20.297 -0.1007 -0.1012 -0.2023
24721W        W25585   2.850  27.626  20.039 -0.0602 -0.1685 -0.0879
24722W        W25586   2.748   0.186  20.255  0.3401  0.1260 -0.0657
24723W        W25587   3.194  28.456  18.896 -0.1102 -0.0346  0.0099
24724W        W25588   5.346   0.006  19.270  0.0091 -0.1043 -0.0076
24725W        W25589   4.943   0.165  19.920 -0.0951  0.2436  0.2081
24726W        W25590   0.861  28.061  23.345 -0.0396  0.1114  0.0005
24727W        W25591   1.883   0.539  20.156 -0.0937 -0.0699  0.3539
24728W        W25592   0.849  26.583  20.253  0.1258 -0.2319  0.2191
24729W        W25593   2.865   0.823  21.525 -0.1445  0.0243 -0.3164
24730W        W25594   2.193  28.067  20.729  0.0770  0.2671 -0.1093
24731W        W25595   0.327  27.218  21.579  0.0677 -0.2815 -0.3040
24732W        W25596   2.018  28.225  16.296  0.1238 -0.0949  0.1132
24733W        W25597   4.878  26.497  20.230 -0.2870  0.1166 -0.2846
24734W        W25598   0.937   2.414  19.470 -0.0434 -0.0897 -0.0759
24735W        W25599   4.108  26.358  18.680  0.1197 -0.2410  0.1276
24736W        W25600   2.616   0.508  21.885 -0.2106 -0.0383  0.0503
24737W        W25601   0.659   0.884  22.085 -0.0496 -0.3468 -0.1160
24738W        W25602   2.978  27.109  20.854  0.1446  0.0071  0.0655
24739W        W25603   2.583  25.034  20.714  0.1528 -0.3002 -0.2627
24740W        W25604   1.089  27.977  19.669  0.1734  0.0906  0.2501
24741W        W25605   1.506  27.845  20.006 -0.2469  0.2577  0.3377
24742W        W25606  27.636  23.660  17.316  0.1402  0.0804  0.1243
24743W        W25607   1.723  27.998  20.539  0.1072 -0.0203  0.0226
24744W        W25608   2.372  27.909  19.405  0.4039  0.1065 -0.1423
24745W        W25609   1.766  26.848  19.016  0.2351  0.2760  0.1657
24746W        W25610   1.347  27.535  24.983 -0.0031  0.1915 -0.1218
24747W        W25611  28.647  26.104  18.095 -0.0760 -0.1875  0.2565
24748W        W25612   2.792  25.303  19.358 -0.0837 -0.5345  0.3921
24749W        W25613   3.409  28.181  19.275  0.1216  0.1346  0.5030
24750W        W25614   2.635  28.426  18.130  0.1714 -0.0645  0.1451
24751W        W25615   1.000  27.747  18.279 -0.3042 -0.3645  0.2382
24752W        W25616   3.909  27.851  22.518  0.3591  0.4771  0.2865
24753W        W25617   2.701  24.356  20.810 -0.0225  0.0591  0.0316
24754W        W25618   0.782   0.244  20.089 -0.0466  0.0121  0.0202
24755W        W25619  28.483  27.728  18.374 -0.2137 -0.0134 -0.2321
24756W        W25620   1.947  28.158  21.214 -0.4154 -0.0080  0.0210
24757W        W25621   4.131  26.176  19.915 -0.0311  0.0045  0.0291
24758W        W25622   0.676  26.053  22.430  0.3299 -0.5329 -0.0931
24759W        W25623   1.252  28.091  17.392 -0.1383  0.1398 -0.3456
24760W        W25624   0.751  26.416  19.783  0.1812 -0.0295 -0.3590
24761W        W25625   4.043  27.534  19.881  0.3441 -0.0587 -0.1334
24762W        W25626   2.892  27.955  19.564  0.1714  0.0324 -0.0427
24763W        W25627   2.934   0.343  18.437 -0.3340  0.0217 -0.0963
24764W        W25628  28.712  28.319  19.635 -0.0945  0.2374 -0.0158
24765W        W25629   0.864  28.370  22.000 -0.2896  0.0147  0.4057
24766W        W25630   2.361  27.516  22.711 -0.1689 -0.2273 -0.0336
24767W        W25631   2.808  25.414  20.330  0.3472  0.0073 -0.0839
24768W        W25632  27.549  27.108  21.309  0.0867 -0.0247  0.2650
24769W        W25633   1.134  28.698  20.110 -0.2006  0.3413  0.1049
24770W        W25634   1.769  28.628  21.434 -0.0722 -0.1517  0.1083
24771W        W25635   1.418  26.148  18.678  0.1032  0.1586  0.2581
24772W        W25636   0.501  27.058  22.372  0.1099 -0.0600  0.1973
24773W        W25637   1.753  29.059  20.433  0.0393 -0.0401  0.2310
24774W        W25638   0.305  24.133  20.235 -0.3335 -0.5172 -0.2889
24775W        W25639   5.639  27.291  19.352 -0.0408 -0.2871  0.2440
24776W        W25640   1.007  26.742  19.318  0.1047  0.0290  0.0657
24777W        W25641   2.598  26.060  18.371  0.0361  0.0453  0.3162
24778W        W25642  27.668  27.723  18.433 -0.2113 -0.3223  0.0963
24779W        W25643  28.183   0.660  20.678  0.1033  0.1084  0.1228
24780W        W25644   0.001  28.683  18.887  0.3587  0.0706 -0.2629
24781W        W25645   2.292  27.973  21.529 -0.2936 -0.2498 -0.2878
24782W        W25646   2.280  25.155  17.570  0.0372 -0.3025  0.2665
24783W        W25647   4.674   0.919  20.065  0.0714 -0.2815 -0.1674
24784W        W25648   1.507  26.620  18.570  0.0306 -0.4054  0.0185
24785W        W25649  29.017  27.147  21.735 -0.0121 -0.0815  0.3129
24786W        W25650   1.523  27.054  20.054  0.1785 -0.3639  0.1605
24787W        W25651   2.181  28.568  20.989 -0.2881  0.0505  0.3092
24788W        W25652   1.259  24.531  20.013 -0.3629  0.3435 -0.5040
24789W        W25653   0.357  22.981  17.341 -0.1165 -0.1380 -0.0017
24790W        W25654   5.231  26.380  19.843 -0.2990 -0.0107  0.2500
24791W        W25655   1.173   0.808  23.636  0.1226 -0.1514 -0.0134
24792W        W25656   0.947   0.773  17.702 -0.1150  0.1572  0.0487
24793W        W25657  29.037   0.020  18.083  0.0738 -0.0153  0.2061
24794W        W25658   1.136   0.306  21.385 -0.2523 -0.1353 -0.1232
24795W        W25659   2.701  25.949  26.069  0.2942  0.3455  0.1554
24796W        W25660   1.992  26.894  20.841  0.1071 -0.0288 -0.2272
24797W        W25661   0.277  27.763  20.570  0.2775 -0.0759 -0.1793
24798W        W25662   3.243  26.853  20.446  0.0903 -0.1328  0.1167
24799W        W25663   1.179  26.240  20.001 -0.0721 -0.1662  0.2727
24800W        W25664  29.083  25.169  22.572 -0.0965  0.2994 -0.1148
24801W        W25665   3.589  24.511  20.660  0.1071 -0.0733 -0.1578
24802W        W25666   0.822  24.070  18.142 -0.2476  0.2759  0.0580
24803W        W25667   4.364  29.004  17.116 -0.0218  0.0841 -0.3356
24804W        W25668   6.573  26.326  18.184 -0.1799 -0.1012  0.0162
24805W        W25669   0.540  25.371  19.573  0.0620  0.0680  0.1924
24806W        W25670   0.544  24.355  20.655  0.3923  0.1563 -0.0395
24807W        W25671   0.336  25.387  17.905 -0.2587  0.2953 -0.2815
24808W        W25672   1.757  28.934  20.898 -0.0608 -0.1632 -0.0188
24809W        W25673   1.795   0.090  19.500 -0.2365  0.0232 -0.0600
24810W        W25674   3.434  28.773  18.053 -0.1094  0.3932 -0.0501
24811W        W25675  27.528  27.864  16.304  0.0967 -0.2075  0.0834
24812W        W25676   1.572  28.888  22.533 -0.2293  0.3752  0.1489
24813W        W25677   1.440  26.649  22.001 -0.1276 -0.1710  0.2166
24814W        W25678   1.435  28.607  18.629 -0.5075  0.1848 -0.0758
24815W        W25679   2.328  27.515  19.697 -0.0198  0.0323 -0.1236
24816W        W25680   4.158  28.183  21.579  0.1424 -0.1030 -0.2440
24817W        W25681   4.460   2.703  20.323  0.2446  0.3159  0.0329
24818W        W25682   2.880  27.672  18.603  0.1499 -0.0338 -0.2753
24819W        W25683   4.341  28.163  16.454 -0.0863  0.3443  0.2091
24820W        W25684   2.597  28.024  22.233 -0.2171 -0.0510 -0.2148
24821W        W25685   2.830  28.898  24.392  0.3018 -0.1678  0.1618
24822W        W25686   3.315  27.155  21.231  0.2372  0.1338  0.0236
24823W        W25687   1.476  24.580  19.116  0.1327 -0.1427  0.0862
24824W        W25688   2.288   1.435  21.511  0.0014  0.5380 -0.1150
24825W        W25689  27.407  24.914  16.315  0.1631  0.1133  0.1954
24826W        W25690   2.836   0.984  17.964 -0.1562 -0.0828 -0.3625
24827W        W25691   1.591  27.429  24.370 -0.1389 -0.0334 -0.2948
24828W        W25692   0.783   0.881  22.527  0.0842  0.2277 -0.3729
24829W        W25693   2.603  27.085  19.790 -0.1015 -0.0944 -0.0778
24830W        W25694   5.063   3.537  18.605  0.2367 -0.1158  0.1689
24831W        W25695   2.111   0.352  21.069 -0.0303 -0.0796 -0.0977
24832W        W25696   0.342  27.377  19.680 -0.1871 -0.0756 -0.0142
24833W        W25697   2.554   1.388  22.081 -0.0671  0.2053 -0.1337
24834W        W25698  29.090  26.843  19.791  0.1837 -0.0300  0.3283
24835W        W25699   5.138  28.236  21.320  0.1223  0.0599  0.0574
24836W        W25700   0.641  27.413  20.308 -0.1186  0.0719  0.0089
24837W        W25701   1.635  29.092  18.658  0.0770  0.0520  0.0140
24838W        W25702   2.756  28.293  19.069 -0.0147  0.2068  0.2396
24839W        W25703   0.017  25.596  20.142  0.1717 -0.0237  0.0856
24840W        W25704   0.317   0.517  20.321  0.2531  0.0121  0.1202
24841W        W25705   3.667  29.143  19.204 -0.1034  0.0474 -0.0609
24842W        W25706   3.762   0.300  20.526 -0.0343  0.2756  0.1077
24843W        W25707   1.036  27.011  22.084 -0.0231  0.0759  0.0438
24844W        W25708   3.072  28.643  18.423 -0.1188  0.0970  0.3012
24845W        W25709   2.748  26.391  18.848  0.2516 -0.1048 -0.1255
24846W        W25710   1.693  25.693  21.466 -0.1016 -0.0921  0.0962
24847W        W25711   2.140   1.503  17.904  0.0058  0.1966  0.0634
24848W        W25712   5.766  27.099  20.701 -0.1531 -0.1072  0.3072
24849W        W25713   0.190  28.614  21.525 -0.0292  0.1037  0.1322
24850W        W25714   4.484   1.289  21.844 -0.0132 -0.0294 -0.0277
24851W        W25715  28.855  26.983  18.953  0.1001 -0.0336  0.2516
24852W        W25716  26.298  26.410  20.700  0.4118  0.1556  0.1270
24853W        W25717   1.316  28.773  20.629  0.0472 -0.2871 -0.1005
24854W        W25718   5.001   1.712  19.152  0.0101 -0.1630  0.3158
24855W        W25719   3.594  27.984  17.382 -0.2815  0.0899  0.1294
24856W        W25720   0.710  28.731  17.732  0.1026  0.0771  0.0499
24857W        W25721   1.619  25.953  19.079 -0.1335  0.1035 -0.2099
24858W        W25722   1.392  24.751  18.627  0.1691  0.0396 -0.0984
24859W        W25723   0.141  28.839  21.996 -0.2804 -0.0575 -0.1452
24860W        W25724   4.908  28.714  21.123 -0.2686  0.1252 -0.1672
24861W        W25725   0.375  26.872  17.345  0.2617  0.0847  0.1059
24862W        W25726   0.516  24.903  19.496  0.0787 -0.0026 -0.2151
24863W        W25727   2.444  25.698  20.561 -0.0309  0.0572  0.2069
24864W        W25728   4.146   2.637  22.949 -0.1718  0.0070  0.1804
24865W        W25729   2.215   0.279  20.512  0.2268  0.0417  0.0634
24866W        W25730   1.805  27.786  18.022 -0.0299 -0.0844 -0.0219
24867W        W25731   2.011   0.645  23.030  0.1456 -0.1843 -0.2859
24868W        W25732   0.674   0.071  19.625 -0.0314 -0.0629 -0.1510
24869W        W25733   2.287  28.131  18.966 -0.1603 -0.2522  0.0113
24870W        W25734   1.065  28.065  22.265 -0.1292 -0.0702  0.1586
24871W        W25735   4.779  25.222  19.157  0.1160  0.1754  0.3015
24872W        W25736   2.835  25.863  18.846 -0.0489  0.1202  0.1376
24873W        W25737   1.563   0.767  21.175 -0.2170  0.1834  0.1821
24874W        W25738   1.382  29.135  21.048 -0.0999  0.1602 -0.0561
24875W        W25739   1.393  27.071  19.416  0.2475  0.0617 -0.0325
24876W        W25740   1.736   1.287  20.693 -0.2384  0.2232 -0.0466
24877W        W25741   1.354  25.143  24.155  0.0001 -0.1393  0.2416
24878W        W25742   0.366  25.216  22.349  0.2064  0.2156 -0.1094
24879W        W25743  28.984  27.380  19.736 -0.2870 -0.0419  0.0514
24880W        W25744  29.051  28.204  19.277  0.1032  0.0696 -0.3196
24881W        W25745   0.241  28.929  23.064 -0.1073 -0.0206  0.2040
24882W        W25746   1.526  28.803  19.609 -0.1851 -0.1164  0.2170
24883W        W25747   0.388  26.416  17.583 -0.2311  0.0408 -0.2698
24884W        W25748   0.841  27.585  22.395 -0.0475 -0.0340  0.0131
24885W        W25749  28.730  29.142  20.953  0.2939 -0.0756 -0.1546
24886W        W25750   4.391  28.173  18.501  0.1427 -0.3539 -0.1674
24887W        W25751   3.999  25.239  20.284  0.0689 -0.2360  0.1551
24888W        W25752   4.066  27.810  17.646 -0.1748 -0.0374  0.2501
24889W        W25753  28.990   0.451  23.646 -0.0351 -0.0508 -0.0564
24890W        W25754   4.374  26.910  22.046  0.2345  0.0670  0.2706
24891W        W25755   1.422   1.368  20.306  0.1563  0.1478  0.0238
24892W        W25756   3.035  28.574  19.392 -0.1261  0.2374 -0.0798
24893W        W25757   3.161  25.207  18.047  0.1684 -0.1807  0.2115
24894W        W25758   1.705  28.177  18.881  0.4035 -0.3773  0.2358
24895W        W25759  28.219  26.156  18.496  0.1011 -0.2303 -0.0663
24896W        W25760   0.997  26.505  18.776  0.3436 -0.1614  0.0165
24897W        W25761   2.721  26.813  17.811 -0.2916 -0.0241  0.3369
24898W        W25762   3.803  26.350  21.718  0.2202  0.1940  0.0638
24899W        W25763   3.337  26.642  19.986  0.0045  0.0577  0.3577
24900W        W25764   1.446  23.551  23.712 -0.1309  0.1362 -0.4171
24901W        W25765  27.637  27.129  19.911 -0.1352  0.0181 -0.0854
24902W        W25766   0.610  27.087  17.881  0.1192  0.0532 -0.1658
24903W        W25767   0.663  27.813  25.617  0.0197  0.2183 -0.0354
24904W        W25768   0.937  28.358  20.821 -0.1963 -0.1502 -0.0335
24905W        W25769   5.140  28.414  19.918  0.3867 -0.2162 -0.0081
24906W        W25770   4.702  28.207  18.083  0.0939 -0.4035  0.2352
24907W        W25771   2.419   1.879  17.205  0.2736 -0.1088  0.3547
24908W        W25772   4.680   1.617  22.803 -0.0366 -0.0314  0.2473
24909W        W25773   1.540  21.945  16.662  0.0465 -0.0291  0.1499
24910W        W25774   2.753  26.191  19.318  0.2586 -0.0117  0.1130
24911W        W25775  28.100   0.465  18.983  0.3925  0.0673  0.1306
24912W        W25776   1.401  26.113  21.069  0.1057 -0.1726  0.2558
24913W        W25777   1.434  27.043  20.621 -0.0785 -0.4132  0.0282
24914W        W25778  29.042  25.945  19.767 -0.0873 -0.0009 -0.0790
24915W        W25779   2.547  28.851  21.625  0.0144  0.1177 -0.2576
24916W        W25780  28.402  28.769  20.373  0.2086  0.2882 -0.0196
24917W        W25781  27.872   1.540  22.784 -0.0144  0.0616 -0.1482
24918W        W25782   0.119  28.683  19.376 -0.0691 -0.2604  0.0263
24919W        W25783  28.523  24.446  16.716 -0.0970  0.2010  0.1961
24920W        W25784   0.756  26.945  21.382 -0.0254 -0.2036  0.1180
24921W        W25785  28.672  28.120  18.590 -0.0642  0.2055 -0.3762
24922W        W25786   1.825  28.298  18.395  0.1307  0.1084  0.0006
24923W        W25787   5.163   2.530  17.638 -0.1885 -0.4321  0.2295
24924W        W25788  29.086   0.564  21.728 -0.0936 -0.0638 -0.1027
24925W        W25789   2.408  28.482  20.153 -0.1168 -0.0645 -0.2582
24926W        W25790   1.121  28.891  19.301 -0.2146  0.2086 -0.2507
24927W        W25791   0.293   1.545  20.472 -0.1820  0.3139 -0.0361
24928W        W25792   2.217  25.116  18.661  0.1666  0.0960  0.3385
24929W        W25793  28.352  28.373  17.270 -0.0297 -0.0985 -0.1292
24930W        W25794   0.707  27.946  20.013 -0.0655 -0.0203  0.0084
24931W        W25795   1.038  26.015  18.910  0.0916  0.1907 -0.0659
24932W        W25796   1.105  27.502  20.663  0.0207  0.0031  0.0058
24933W        W25797   5.597  26.736  19.912  0.0733 -0.2885  0.0513
24934W        W25798   3.432  26.068  24.288 -0.1067  0.4027 -0.1852
24935W        W25799   2.898   0.666  20.023 -0.0478  0.0796  0.1669
24936W        W25800   4.141  28.722  22.274 -0.1013  0.0741 -0.1343
24937W        W25801   1.347   2.343  19.773  0.2677 -0.1053  0.0008
24938W        W25802  27.564   3.578  19.786  0.3546 -0.2759 -0.1851
24939W        W25803   5.541  26.120  19.010 -0.1424 -0.1853 -0.0379
24940W        W25804   2.040  26.427  19.756 -0.0738  0.0953 -0.2918
24941W        W25805   1.419  26.444  19.048 -0.3012 -0.1934  0.1945
24942W        W25806  28.950  27.411  18.714 -0.0175  0.0775 -0.2269
24943W        W25807   1.700  28.003  22.870 -0.3514 -0.1005  0.0576
24944W        W25808  28.588  25.102  20.059  0.0560  0.3350 -0.2454
24945W        W25809   1.290   1.331  19.812 -0.0216 -0.1316 -0.0189
24946W        W25810   1.310  27.925  17.931 -0.0714  0.1047  0.3674
24947W        W25811   1.867   0.803  20.762  0.0758  0.1213 -0.0775
24948W        W25812  28.329  26.065  16.975 -0.1788  0.1680  0.2735
24949W        W25813   1.624  26.877  18.073  0.2728  0.2606  0.1682
24950W        W25814   2.924  27.286  18.195 -0.1272  0.2027 -0.0033
24951W        W25815   0.175  25.892  21.126  0.2326 -0.1812  0.3113
24952W        W25816   1.396  28.173  19.356  0.0044 -0.0865 -0.0079
24953W        W25817   3.127  24.849  17.169 -0.0309  0.1700  0.3227
24954W        W25818   1.247  27.980  20.727 -0.1238  0.1757  0.2451
24955W        W25819   0.575  26.135  18.724  0.0333 -0.0741 -0.4031
24956W        W25820   0.659  28.733  18.700  0.1381 -0.3224  0.0175
24957W        W25821   0.562  23.547  18.941 -0.0253  0.3645  0.1295
24958W        W25822  28.753   0.664  21.281  0.1046  0.0585  0.0964
24959W        W25823   1.049  27.365  17.912 -0.1617 -0.2759  0.2127
24960W        W25824  28.752  25.955  20.142 -0.1595  0.5732  0.2656
24961W        W25825  28.824  25.162  20.974  0.2958 -0.1105  0.2534
24962W        W25826   0.273  26.895  18.289 -0.0245 -0.2532  0.2423
24963W        W25827   2.710  28.360  21.668 -0.0026  0.0423  0.3087
24964W        W25828   0.576  27.045  19.964 -0.1406 -0.2720 -0.0313
24965W        W25829   0.971  23.130  18.070 -0.3325  0.1954  0.5001
24966W        W25830   0.231  28.925  20.732 -0.1189  0.2247 -0.1926
24967W        W25831   2.195   1.144  20.532 -0.1626  0.3795  0.4873
24968W        W25832   2.624   0.165  20.846  0.0591 -0.3413  0.1485
24969W        W25833   3.248  27.864  18.166  0.1652  0.2055  0.2946
24970W        W25834   1.617  26.150  19.653  0.1059 -0.0840  0.1716
24971W        W25835   3.389  27.704  20.771  0.0849  0.2668  0.0349
24972W        W25836   2.708  26.972  18.591 -0.5233  0.0177 -0.0689
24973W        W25837   3.891  24.656  18.018 -0.1934 -0.5265 -0.0633
24974W        W25838   4.216  27.969  19.560 -0.6030 -0.0143  0.3152
24975W        W25839   4.582   0.161  21.380 -0.2726  0.1259  0.3053
24976W        W25840   5.209  26.754  18.697 -0.1936 -0.0755  0.1678
24977W        W25841   2.272  26.560  21.809  0.2604  0.1188  0.0902
24978W        W25842  28.434  27.376  19.760  0.1005  0.1155 -0.2597
24979W        W25843   5.345  28.945  19.815 -0.1285 -0.1444  0.2108
24980W        W25844   3.196  28.112  21.745  0.0753 -0.1500 -0.2686
24981W        W25845  28.917  25.803  21.802  0.1951  0.2146 -0.1089
24982W        W25846   3.379  27.990  21.201 -0.0286  0.0535  0.1401
24983W        W25847   1.171   0.059  20.301 -0.0334  0.1586  0.2189
24984W        W25848  28.851  24.744  22.601 -0.1641 -0.1034  0.0655
24985W        W25849   3.054   1.175  19.027  0.0757 -0.0410 -0.1497
24986W        W25850   1.179   0.915  19.535 -0.0274  0.1834  0.0531
24987W        W25851   2.735  25.936  20.248 -0.0274  0.2572 -0.1016
24988W        W25852   5.768   1.594  20.192  0.1503  0.1950  0.1083
24989W        W25853   1.479  28.140  21.359 -0.3051 -0.1634  0.0755
24990W        W25854   1.184   0.506  19.921  0.2758 -0.0425  0.1089
24991W        W25855   3.140   1.078  20.080 -0.0987 -0.0765  0.2147
24992W        W25856   5.412  27.998  24.896  0.0723 -0.0442  0.3703
24993W        W25857  27.841  28.995  19.019 -0.0094 -0.0434 -0.0778
24994W        W25858   5.651  27.766  19.525  0.0043 -0.0053  0.0212
24995W        W25859   3.411   3.373  22.323  0.2191  0.1378 -0.1052
24996W        W25860  27.894  26.316  18.855 -0.0782 -0.2120 -0.0865
24997W        W25861   2.758   0.018  22.873  0.1978  0.1332 -0.1420
24998W        W25862   3.197  29.144  18.567 -0.1843 -0.3219  0.0175
24999W        W25863  28.432  26.819  21.116 -0.0088  0.4248  0.0129
25000W        W25864   1.083  28.971  18.787  0.2810 -0.0684 -0.1489
25001W        W25865  27.094  27.322  20.089  0.1882  0.2192  0.2823
25002W        W25866   2.093  28.687  26.862  0.1189 -0.0534 -0.2752
25003W        W25867  28.101   3.582  24.055 -0.0340  0.1212 -0.1435
25004W        W25868   2.766   1.294  21.608 -0.0948  0.1280 -0.2462
25005W        W25869   2.588  28.910  25.100  0.1644  0.1664 -0.0928
25006W        W25870  28.217  27.940  23.419 -0.2117 -0.1344 -0.0942
25007W        W25871   0.484  27.178  23.293 -0.1142 -0.0403  0.1128
25008W        W25872   0.477  29.135  23.501 -0.0523  0.0854 -0.0549
25009W        W25873  28.791  25.517  25.569  0.1917  0.1003 -0.0364
25010W        W25874   2.074  28.044  26.804 -0.1662  0.0720 -0.0406
25011W        W25875  28.905  28.558  25.499  0.0293  0.1515 -0.0238
25012W        W25876  29.034  24.599  25.525  0.1127  0.0993 -0.2046
25013W        W25877   1.334  28.002  21.849  0.1136 -0.1198  0.2541
25014W        W25878   2.341  29.125  22.052 -0.3486 -0.0566  0.1089
25015W        W25879   3.530  27.935  24.123 -0.1362  0.1472 -0.0180
25016W        W25880  28.218  24.632  23.878  0.1378  0.4017  0.1988
25017W        W25881   0.209   2.046  24.509  0.1752  0.1956 -0.1076
25018W        W25882   1.370  29.015  23.739 -0.1214 -0.1031 -0.1162
25019W        W25883   1.462  28.354  26.250  0.0761 -0.0294 -0.0195
25020W        W25884   3.325  28.918  24.582  0.1716  0.0737 -0.0674
25021W        W25885   4.731  27.354  23.152  0.1031 -0.1226  0.1208
25022W        W25886   2.349  27.106  25.118 -0.1981 -0.2797  0.2049
25023W        W25887   2.440  27.555  24.756 -0.1760  0.1080  0.0297
25024W        W25888   1.038   2.093  25.895 -0.1786 -0.2060  0.2489
25025W        W25889   3.487   0.401  25.871 -0.0623  0.1432  0.0542
25026W        W25890   1.814  29.080  26.627  0.0977  0.1651  0.0665
25027W        W25891   3.474  26.951  24.055  0.0355 -0.0138  0.0191
25028W        W25892   4.296  27.059  23.112  0.2720  0.0808 -0.0520
25029W        W25893   1.415  28.451  22.251 -0.0218  0.1314 -0.3228
25030W        W25894   0.804  28.663  24.480 -0.0646  0.1442  0.3245
25031W        W25895   2.470  24.633  24.891 -0.0329  0.2622 -0.3949
25032W        W25896   3.067  28.066  23.078 -0.1498 -0.2645  0.1423
25033W        W25897   3.368   2.486  24.259  0.4289 -0.0367  0.2224
25034W        W25898   1.906  26.523  27.998  0.0557 -0.0825 -0.1760
25035W        W25899   1.094  27.344  24.484 -0.1001 -0.4180 -0.2642
25036W        W25900  26.709  26.416  27.293 -0.2230 -0.0330 -0.0670
25037W        W25901   3.047  28.087  24.254 -0.0217  0.1953  0.3408
25038W        W25902  28.877  25.630  23.686  0.3203 -0.0870  0.0644
25039W        W25903   3.951   1.668  24.212  0.0029  0.1150 -0.2778
25040W        W25904   5.660  27.940  24.418 -0.3302  0.2355 -0.1514
25041W        W25905   1.986  27.385  21.654 -0.1500  0.1907 -0.0318
25042W        W25906   2.845  27.276  23.201 -0.1129  0.2212 -0.2024
25043W        W25907   2.042  27.274  24.582  0.0209  0.2711 -0.0112
25044W        W25908   2.004  28.482  24.494 -0.0461  0.1353  0.1319
25045W        W25909   3.137   0.128  23.803 -0.1427  0.2619 -0.1677
25046W        W25910   4.973  28.342  20.493  0.4497  0.0391 -0.0402
25047W        W25911   1.683  26.466  24.276 -0.8293 -0.0792 -0.1820
25048W        W25912   0.660  26.329  23.972  0.1000  0.0182  0.2125
25049W        W25913   1.881  26.091  23.997  0.0264 -0.0048 -0.0083
25050W        W25914   1.445  28.405  25.563  0.1824  0.0664 -0.1898
25051W        W25915   2.490  28.242  21.140  0.3029 -0.2974 -0.1149
25052W        W25916   1.670   0.223  22.796 -0.1785  0.2169  0.0655
25053W        W25917   1.255  25.413  22.677  0.1331  0.1550  0.0966
25054W        W25918   3.301   1.529  24.139  0.2394 -0.2088 -0.4352
25055W        W25919   2.220  26.705  23.433 -0.0927 -0.0183 -0.0638
25056W        W25920   0.614  25.373  21.707  0.2914 -0.3102  0.0899
25057W        W25921   1.994   1.082  22.599  0.0612  0.3908  0.0298
25058W        W25922  28.266  25.233  24.075 -0.1626  0.0614  0.2434
25059W        W25923   3.422  28.377  23.879 -0.0801  0.0139 -0.3169
25060W        W25924   1.948  28.854  25.587  0.2349  0.0126  0.1681
25061W        W25925   3.422  28.637  21.687 -0.1999  0.0087 -0.0460
25062W        W25926   4.091  27.379  23.517 -0.0947 -0.0690  0.0639
25063W        W25927  28.515   2.120  23.987  0.3942  0.1412 -0.2149
25064W        W25928   1.221   0.465  24.032 -0.1462  0.2090 -0.1484
25065W        W25929   3.367  28.408  23.373 -0.0686  0.0217  0.1867
25066W        W25930  28.668  26.488  22.714  0.0847 -0.1501  0.2949
25067W        W25931   2.755  27.822  21.802  0.2527 -0.1757  0.2676
25068W        W25932   1.244  28.117  23.742 -0.1451 -0.1098 -0.1331
25069W        W25933   1.705  26.094  22.829  0.0947  0.0943  0.1891
25070W        W25934   1.812  27.953  21.745  0.0627 -0.1081  0.2079
25071W        W25935   1.222  26.801  24.392  0.0636 -0.4924 -0.1255
25072W        W25936   5.458  28.778  22.656  0.1373 -0.1198 -0.2323
25073W        W25937   2.796   0.108  21.629  0.1240 -0.3320 -0.1873
25074W        W25938   1.276   0.308  23.561 -0.1867 -0.1085  0.2017
25075W        W25939   3.904  27.196  24.007 -0.1643  0.0124  0.0359
25076W        W25940   4.092  28.796  23.410  0.0312  0.0676 -0.1281
25077W        W25941   4.002  27.248  24.484 -0.1575 -0.0821 -0.1476
25078W        W25942  27.651   0.583  23.948  0.0782 -0.2125  0.0336
25079W        W25943   2.189  28.289  22.075  0.2334  0.2522 -0.2318
25080W        W25944   1.246  27.588  22.947 -0.2018  0.0985 -0.3469
25081W        W25945   5.407  28.217  22.440 -0.2447 -0.3000  0.1677
25082W        W25946   1.505  26.421  25.217 -0.2761  0.1402 -0.1147
25083W        W25947   2.443  28.946  25.563 -0.0421 -0.0664  0.1046
25084W        W25948  27.830  22.671  23.094 -0.0407 -0.1664 -0.1311
25085W        W25949   3.391  26.011  22.556 -0.1234 -0.0441 -0.2055
25086W        W25950   2.885  23.718  23.353  0.1531  0.0135  0.0866
25087W        W25951   1.381  27.670  22.462 -0.1565  0.0985 -0.1052
25088W        W25952   3.037   0.014  25.292 -0.1305 -0.2142  0.1028
25089W        W25953   3.732  25.329  26.009 -0.3757  0.0266 -0.0574
25090W        W25954   3.256  28.651  25.386 -0.0284  0.2743 -0.0870
25091W        W25955   2.420  25.743  23.401 -0.4516  0.0113  0.0513
25092W        W25956   0.830  25.872  21.894 -0.2101 -0.4248  0.2067
25093W        W25957   2.395  26.993  22.997  0.0349 -0.2166 -0.2808
25094W        W25958   1.097  28.910  26.129 -0.2222  0.0319  0.1518
25095W        W25959   1.784  25.250  23.808 -0.2399 -0.2622 -0.0106
25096W        W25960   1.294  27.699  24.073 -0.1703 -0.0743  0.3548
25097W        W25961   1.651  25.255  22.990  0.0165 -0.0825  0.2494
25098W        W25962   4.094  26.253  24.278 -0.0887 -0.3467  0.2312
25099W        W25963  26.705   0.535  25.373 -0.0130 -0.2276  0.0496
25100W        W25964   1.775  27.341  23.907 -0.1525 -0.2373 -0.2918
25101W        W25965   4.736  25.907  24.643  0.1902 -0.0867 -0.0387
25102W        W25966   3.352   0.476  20.268 -0.0491 -0.0012  0.0388
25103W        W25967   1.692  28.457  23.054  0.1798 -0.4398  0.3007
25104W        W25968   4.552  28.817  22.593 -0.1486 -0.0894 -0.0733
25105W        W25969   2.146   1.091  24.775 -0.1327 -0.0497 -0.0030
25106W        W25970   3.493  24.256  23.695 -0.0591 -0.0224 -0.1952
25107W        W25971   2.363  25.684  24.147 -0.0768  0.3403 -0.2106
25108W        W25972   3.518  27.973  22.812  0.0199 -0.3918  0.0919
25109W        W25973   2.900  28.742  25.736 -0.0513  0.0843  0.2737
25110W        W25974   0.827  26.593  22.250 -0.1767 -0.0864 -0.1992
25111W        W25975  28.472  27.287  23.107 -0.0424 -0.1729  0.4473
25112W        W25976   0.646  28.724  23.262  0.0539  0.1125  0.1460
25113W        W25977   2.103   0.534  23.510 -0.0373 -0.0531  0.2869
25114W        W25978   3.538  26.716  23.554 -0.0512 -0.2171  0.1638
25115W        W25979   3.946   1.934  24.949 -0.0802 -0.0594  0.0529
25116W        W25980   3.176  27.702  22.061  0.2404 -0.0619  0.1845
25117W        W25981  29.081  25.855  24.691 -0.0727  0.0351  0.0508
25118W        W25982   3.057  24.616  25.756  0.0737  0.1818  0.2124
25119W        W25983   1.826   0.312  24.385  0.0638 -0.0947  0.3059
25120W        W25984   1.611  27.645  25.558  0.0280 -0.1630 -0.2349
25121W        W25985   3.049   0.060  22.448  0.1204  0.0916 -0.3390
25122W        W25986   4.806  26.319  20.676 -0.1432 -0.1743  0.2762
25123W        W25987   3.617   0.605  23.218 -0.0971 -0.0028 -0.0357
25124W        W25988   4.380  25.504  23.837  0.0423  0.2345  0.0577
25125W        W25989   4.113  27.750  20.426 -0.0982  0.0191 -0.0362
25126W        W25990   1.770  27.252  25.223 -0.3201  0.0409 -0.0794
25127W        W25991   4.473   0.584  22.333 -0.1095 -0.3006 -0.4430
25128W        W25992   0.590  27.526  23.611  0.0817  0.0109  0.2884
25129W        W25993   2.996  28.713  22.424 -0.1983  0.1977 -0.2237
25130W        W25994   4.585  28.263  22.300 -0.3683 -0.2220 -0.4241
25131W        W25995   2.994  28.154  22.418 -0.0627 -0.2670  0.0352
25132W        W25996   4.838   1.114  26.031  0.0616 -0.0255 -0.0758
25133W        W25997   3.689  25.123  23.435  0.0629  0.3145 -0.1312
25134W        W25998   1.103  28.537  23.421  0.0011 -0.0409  0.3496
25135W        W25999   1.408  27.233  23.347 -0.1316 -0.3660  0.3362
25136W        W26000   1.959  26.957  24.265 -0.0640  0.1395 -0.0761
25137W        W26001   0.621  26.533  24.482  0.1469  0.2135 -0.1803
25138W        W26002   1.072  27.638  23.618 -0.0259  0.3234 -0.0973
25139W        W26003   2.976  24.691  26.258 -0.0717  0.1262  0.2549
25140W        W26004   4.166   0.199  24.676  0.2104 -0.2447 -0.1568
25141W        W26005   1.553  28.867  21.998  0.0171 -0.0868  0.0388
25142W        W26006  27.958  25.735  23.886  0.1603 -0.1823 -0.1037
25143W        W26007   1.656  28.386  26.879  0.1656 -0.2546  0.2707
25144W        W26008   1.024   0.808  21.261  0.2447 -0.3037  0.0487
25145W        W26009   1.707  25.590  24.131 -0.0202  0.3872 -0.0892
25146W        W26010   3.209  28.234  25.151  0.1414  0.2079  0.2324
25147W        W26011   1.326  26.995  25.245  0.1523 -0.1327  0.2142
25148W        W26012   2.906  24.196  22.984  0.2018  0.0599 -0.1121
25149W        W26013   3.305   1.853  25.088 -0.0085  0.2064 -0.3538
25150W        W26014   2.089   2.711  23.414 -0.0068 -0.1762  0.0170
25151W        W26015   2.034  28.725  23.285  0.0680 -0.1287 -0.3878
25152W        W26016   2.486  26.844  24.079 -0.2189  0.2076  0.2091
25153W        W26017  28.198  26.509  23.358 -0.2086 -0.0116 -0.0304
25154W        W26018  28.903  26.333  21.917  0.0596 -0.1239 -0.5094
25155W        W26019  28.640  27.747  23.069  0.1305  0.2294 -0.1852
25156W        W26020   1.871  27.534  26.629 -0.1266 -0.0574 -0.1132
25157W        W26021   1.991  26.117  24.495 -0.0821  0.0359 -0.4285
25158W        W26022   1.690  26.787  25.499 -0.1497 -0.0691 -0.1683
25159W        W26023   2.582  28.590  22.123 -0.3160 -0.2649  0.1124
25160W        W26024  27.632  25.700  19.364 -0.2242  0.0497 -0.0038
25161W        W26025   1.690  26.358  23.584  0.1245  0.0538 -0.2387
25162W        W26026   3.641  23.766  23.900  0.1799 -0.2318 -0.0513
25163W        W26027   0.856  28.396  22.941  0.1386 -0.0332  0.2682
25164W        W26028   2.863  26.018  27.546  0.3004  0.0614  0.3938
25165W        W26029   2.730  28.234  25.946 -0.0159  0.2597 -0.0004
25166W        W26030   4.903  25.622  26.369 -0.0605 -0.0822  0.1076
25167W        W26031  27.854  26.875  22.843 -0.3639  0.1543  0.2175
25168W        W26032   1.408  27.143  25.729  0.6263 -0.2397  0.0143
25169W        W26033  28.815   2.176  23.525  0.0701 -0.0651  0.2793
25170W        W26034   4.915  29.001  24.903 -0.2802  0.2375 -0.1546
25171W        W26035  27.885   0.859  25.661  0.1056 -0.0764  0.3030
25172W        W26036   3.928   0.445  23.619  0.0869 -0.2010  0.0400
25173W        W26037   3.329  26.780  26.086 -0.1820  0.1697 -0.1019
25174W        W26038   3.127  28.507  24.463 -0.1663 -0.2879 -0.0494
25175W        W26039   3.344  28.999  21.989 -0.2642 -0.0164  0.0549
25176W        W26040   1.185  26.313  24.166  0.0200 -0.0306  0.1298
25177W        W26041   3.728  25.635  22.663  0.0673  0.0380 -0.1247
25178W        W26042   0.059   1.386  26.776 -0.0741  0.2458  0.0441
25179W        W26043   0.195   1.831  25.793  0.5038  0.3001 -0.1097
25180W        W26044  27.040   1.473  23.274  0.0907  0.0557  0.1936
25181W        W26045   1.055  28.748  25.402  0.1059 -0.1572 -0.0266
25182W        W26046  28.700  28.159  23.337  0.0959 -0.1319  0.1139
25183W        W26047   2.730  28.905  19.941 -0.1030  0.0740 -0.4028
25184W        W26048   2.996  27.609  21.084 -0.1950 -0.2575  0.0474
25185W        W26049  29.075  24.854  23.088  0.0185 -0.0213 -0.0056
25186W        W26050   2.744  26.329  21.933  0.3164  0.2715  0.1715
25187W        W26051   2.919   0.451  25.467  0.0049  0.5129  0.1701
25188W        W26052   2.673   0.414  22.327 -0.0783  0.1537 -0.1433
25189W        W26053   0.247  25.793  25.016 -0.4710 -0.0081 -0.1758
25190W        W26054   2.632  28.369  24.472 -0.3762  0.1539 -0.0093
25191W        W26055   3.200  27.593  21.520  0.0416  0.0553 -0.1612
25192W        W26056  28.311  26.021  23.552 -0.0617  0.0823 -0.1844
25193W        W26057   1.340   1.636  23.865 -0.0470 -0.0089  0.2255
25194W        W26058   3.192  28.830  23.585  0.2738 -0.2485 -0.0762
25195W        W26059   2.498  25.509  24.658 -0.0258 -0.3449  0.2259
25196W        W26060   2.459  28.406  26.594  0.2736  0.0070  0.0550
25197W        W26061   2.003  25.347  23.352 -0.0018  0.0580 -0.0673
25198W        W26062   0.473  25.684  20.768  0.1093 -0.1277 -0.0782
25199W        W26063   0.172  26.825  24.689 -0.3168 -0.0124 -0.0645
25200W        W26064  27.748  25.653  23.331  0.4987  0.1617 -0.0833
25201W        W26065   2.706  26.563  24.359  0.2063  0.2162 -0.1376
25202W        W26066  27.040  24.704  22.727  0.2411 -0.0909 -0.0088
25203W        W26067   1.587  25.343  25.228 -0.0910  0.5246  0.0333
25204W        W26068   3.592  26.268  24.760  0.1140 -0.1196 -0.1216
25205W        W26069   0.180  25.447  24.143 -0.1173 -0.1521  0.0564
25206W        W26070   0.390  23.826  27.379 -0.1993 -0.1294 -0.2189
25207W        W26071  27.307  25.110  22.195 -0.0918 -0.3917  0.2046
25208W        W26072   1.822  26.542  22.590 -0.4178 -0.0484  0.0725
25209W        W26073   5.032  28.801  23.321  0.0259  0.0333  0.1508
25210W        W26074   1.968  27.321  25.695  0.2345 -0.2204 -0.0602
25211W        W26075  28.324  26.752  22.905  0.0592  0.2591  0.2081
25212W        W26076   0.968   0.423  22.765  0.0669 -0.0716  0.2104
25213W        W26077   0.234  27.624  26.462 -0.1474  0.1060  0.2033
25214W        W26078   4.902  27.193  23.591  0.2541  0.0319  0.2074
25215W        W26079   1.739  27.519  22.043  0.1593  0.1916  0.2258
25216W        W26080   0.983  24.515  23.980  0.2419 -0.3327 -0.0090
25217W        W26081   2.125  28.077  25.069 -0.0970  0.0798 -0.2034
25218W        W26082   1.512   1.245  22.364  0.2222 -0.0572  0.0496
25219W        W26083   2.832   0.036  23.380 -0.3467  0.4276 -0.0510
25220W        W26084  28.936  27.723  25.033 -0.0493 -0.1423 -0.1196
25221W        W26085   0.927  27.790  25.084  0.0090 -0.2174 -0.0360
25222W        W26086   3.157  25.863  25.820 -0.1659  0.1728 -0.1102
25223W        W26087   3.735  25.790  25.772 -0.4134  0.0448  0.2577
25224W        W26088   4.716   1.911  25.786  0.1051  0.1142  0.2027
25225W        W26089   0.017  24.262  23.624  0.3810  0.1451 -0.1005
25226W        W26090   2.591   0.535  21.221  0.0739 -0.2868  0.4666
25227W        W26091   2.400  24.683  24.302 -0.1194 -0.1203 -0.0119
25228W        W26092   0.806   0.251  23.847 -0.1989  0.1410 -0.0458
25229W        W26093   1.950  27.530  22.499 -0.0326  0.1663  0.0760
25230W        W26094   3.345  28.423  22.768 -0.1012 -0.1508 -0.0856
25231W        W26095   2.954   0.443  22.850  0.0979 -0.1394  0.1759
25232W        W26096   1.094  26.331  24.710 -0.2026 -0.1230 -0.0032
25233W        W26097   0.422  26.743  25.548  0.3403  0.0943 -0.0868
25234W        W26098   2.456  28.787  23.057  0.1741  0.1755 -0.1630
25235W        W26099   3.467   0.296  22.769 -0.3101  0.1685  0.1290
25236W        W26100  27.624  26.206  24.314  0.0119  0.3907  0.2298
25237W        W26101   2.752  27.639  24.291  0.3054 -0.0685  0.0344
25238W        W26102   3.797  25.203  22.348  0.0101  0.2966 -0.3155
25239W        W26103   1.588  24.188  25.509 -0.1497 -0.4094 -0.0262
25240W        W26104   4.835   0.239  23.151 -0.2368  0.1160  0.2523
25241W        W26105   3.515  26.676  22.755  0.0770 -0.1470 -0.0296
25242W        W26106   0.080  27.939  24.598 -0.1807  0.1011 -0.0570
25243W        W26107   0.715   0.016  24.629  0.0343  0.1496  0.0203
25244W        W26108   2.306  28.013  24.520  0.0324 -0.0398  0.1006
25245W        W26109  27.619  22.874  24.485 -0.0223  0.2027 -0.0316
25246W        W26110   3.794  28.716  25.198 -0.0985  0.1443 -0.1088
25247W        W26111   1.857  28.371  22.578  0.4150  0.1816  0.1063
25248W        W26112   3.511  28.025  24.628 -0.0804  0.3381  0.2564
25249W        W26113   1.509   1.558  24.841  0.0195  0.0527 -0.0446
25250W        W26114   3.603   0.080  23.693  0.1491 -0.0541 -0.3283
25251W        W26115   1.057  25.147  24.576  0.3259  0.1753 -0.0792
25252W        W26116  27.336  24.277  24.143  0.1797  0.1516  0.1869
25253W        W26117  28.995  26.811  25.118  0.0181  0.3558  0.0986
25254W        W26118   4.369  28.119  24.759 -0.1812 -0.0613  0.2657
25255W        W26119   2.493  26.002  24.517 -0.0350  0.0418 -0.0258
25256W        W26120   1.017  26.907  23.149 -0.0771  0.4118  0.2229
25257W        W26121   3.834  28.916  24.679  0.3267 -0.1820 -0.1454
25258W        W26122   2.580  26.702  22.230  0.1011 -0.1767  0.0166
25259W        W26123   0.750  26.075  24.379  0.3228 -0.2853 -0.1515
25260W        W26124   2.806  28.448  23.729 -0.2193 -0.0585  0.1664
25261W        W26125   2.571  26.953  24.680 -0.0608  0.1344  0.1382
25262W        W26126   3.212  25.827  23.911  0.0075  0.0821  0.1030
25263W        W26127   2.085  27.476  26.181  0.1696  0.1145 -0.1854
25264W        W26128   1.856   1.094  26.103  0.2639 -0.2380  0.0416
25265W        W26129   0.375  27.198  24.004  0.1221  0.1146 -0.0122
25266W        W26130   0.853   0.498  23.282  0.0608  0.2032 -0.2872
25267W        W26131   4.666   0.150  25.956  0.2690 -0.1228 -0.4592
25268W        W26132   0.050   1.626  23.544 -0.1820  0.2108  0.1378
25269W        W26133   2.848   0.849  22.139  0.1740 -0.3659  0.1180
25270W        W26134   1.726  25.839  24.946 -0.3286  0.0340 -0.2576
25271W        W26135   4.276  28.615  21.303 -0.0392 -0.2404  0.3245
25272W        W26136   0.605  29.094  22.129 -0.2072  0.1804  0.1078
25273W        W26137   3.423  26.353  25.733 -0.0853  0.1635 -0.1268
25274W        W26138   1.419  26.690  23.962 -0.1695  0.1251 -0.0574
25275W        W26139   0.894  25.028  24.057 -0.0033  0.0791 -0.5087
25276W        W26140   3.874   2.521  24.299  0.1267  0.2418 -0.0024
25277W        W26141   1.816  28.103  25.489 -0.0545  0.0759  0.4532
25278W        W26142   1.089  27.683  25.901  0.1357 -0.2527  0.0498
25279W        W26143   0.140   0.818  24.617 -0.1492 -0.0772  0.4019
25280W        W26144   1.425  25.481  24.698  0.0700  0.1202  0.0868
25281W        W26145  28.602  27.310  24.993  0.0948  0.2389  0.2631
25282W        W26146   1.013  26.845  20.708 -0.1064  0.0009  0.0556
25283W        W26147   1.998  28.699  22.215  0.1872  0.0637  0.1847
25284W        W26148  28.375  26.744  24.112  0.3261 -0.1236 -0.1799
25285W        W26149   0.154   2.033  23.291  0.1882 -0.2625  0.1094
25286W        W26150   1.507  27.025  22.841  0.0154  0.1296 -0.0711
25287W        W26151   3.494  27.214  25.545  0.0476 -0.2710 -0.1342
25288W        W26152   2.528   0.500  23.191 -0.1404  0.1850 -0.1369
25289W        W26153   1.756  27.708  27.687  0.2286  0.2234  0.0509
25290W        W26154   4.594  27.605  20.434 -0.1488 -0.0916 -0.1887
25291W        W26155   1.949  27.648  21.204 -0.0078 -0.1176  0.3554
25292W        W26156   1.591  27.086  22.343 -0.5773  0.0951  0.0866
25293W        W26157   2.043  27.042  22.664  0.1131 -0.3177  0.2833
25294W        W26158   4.312  24.930  24.446 -0.0424 -0.0028 -0.1050
25295W        W26159   1.295   0.679  26.034 -0.0741  0.4067 -0.0012
25296W        W26160   2.240   0.314  23.994  0.1788 -0.2840 -0.0082
25297W        W26161   4.392  27.652  23.229  0.3193  0.1073  0.3281
25298W        W26162   0.804  26.801  24.098 -0.1746 -0.1809  0.2541
25299W        W26163   2.913  26.183  24.124  0.0680  0.1328 -0.0908
25300W        W26164   4.430  26.484  22.374 -0.3289 -0.0448  0.0221
25301W        W26165   0.697   0.170  25.228  0.0013 -0.2246  0.0216
25302W        W26166   2.314  28.437  22.529 -0.2822 -0.3061  0.2254
25303W        W26167   2.100  25.258  25.584  0.1444  0.0720  0.1211
25304W        W26168   3.525  29.092  27.006  0.0577 -0.0705 -0.2678
25305W        W26169   3.933  27.682  23.002  0.0720 -0.0627  0.2154
25306W        W26170   3.174  28.085  19.941  0.0301  0.1188 -0.3580
25307W        W26171   2.244  28.272  23.686 -0.0477  0.0967  0.1099
25308W        W26172   3.849  25.383  23.878  0.0625 -0.0317 -0.2023
25309W        W26173   1.375  26.683  23.444  0.0763 -0.3777  0.3636
25310W        W26174   1.006  25.246  21.358 -0.1554  0.1770 -0.0768
25311W        W26175   0.887  28.198  24.778  0.1124  0.0628 -0.2324
25312W        W26176   1.093  26.291  22.629  0.2643 -0.1288  0.4797
25313W        W26177   3.452  29.084  25.058  0.0900 -0.1438 -0.3802
25314W        W26178   1.456  25.648  23.168  0.0841  0.3600 -0.4088
25315W        W26179   4.228  29.042  23.788  0.0723 -0.2195  0.1839
25316W        W26180   2.686  29.097  26.061  0.1206  0.2028  0.0683
25317W        W26181   1.078  28.022  25.574 -0.1316 -0.1951 -0.0141
25318W        W26182   1.136  25.443  23.823  0.3219  0.0388  0.0281
25319W        W26183   6.621   0.100  23.068 -0.1250  0.0897  0.1433
25320W        W26184  28.902   1.362  23.856  0.0582 -0.0809 -0.0980
25321W        W26185   0.470  28.076  23.697  0.0989 -0.0707 -0.0910
25322W        W26186   0.638  28.732  25.628 -0.3686 -0.0245  0.2884
25323W        W26187   3.495   1.727  23.715 -0.3070  0.2534 -0.0652
25324W        W26188   2.006  28.547  25.033  0.1221 -0.0801  0.0015
25325W        W26189   1.873  27.869  23.817 -0.0325 -0.1652 -0.2373
25326W        W26190   0.771  28.466  23.910  0.1118  0.3177  0.0799
25327W        W26191   2.253   0.257  24.619  0.0056  0.1097 -0.0326
25328W        W26192  27.555  25.934  24.825  0.2879 -0.0777 -0.0074
25329W        W26193   2.797  26.894  25.274 -0.0754  0.3568  0.0887
25330W        W26194  28.955  25.675  22.400 -0.1695  0.0576  0.0547
25331W        W26195  28.865  25.785  24.236  0.0801 -0.1425 -0.1265
25332W        W26196   2.191  22.370  24.918  0.3250 -0.1587 -0.0144
25333W        W26197   2.220  26.248  23.102  0.0615 -0.0331 -0.0321
25334W        W26198   5.583  27.589  26.681  0.0786  0.1553 -0.0776
25335W        W26199   3.167  28.228  26.173 -0.2971  0.0909  0.0169
25336W        W26200   2.311  27.763  23.651  0.0297 -0.1207 -0.0352
25337W        W26201   5.534  28.762  24.164 -0.0474 -0.1331 -0.1861
25338W        W26202  28.802   1.362  23.296 -0.1417  0.1552  0.1136
25339W        W26203   4.468  28.060  20.558  0.1421 -0.0914 -0.0648
25340W        W26204  27.521  27.670  23.965  0.0523  0.1568 -0.0211
25341W        W26205   2.563  26.527  24.926  0.1795 -0.1719  0.3256
25342W        W26206   1.736   0.223  23.320  0.0273  0.0517  0.0638
25343W        W26207   0.393  25.739  24.561  0.0648 -0.0556 -0.0316
25344W        W26208   2.575  24.226  24.559  0.1527 -0.1331  0.4283
25345W        W26209   0.395   1.086  20.623  0.1975 -0.0290  0.1457
25346W        W26210   1.689  27.166  21.308  0.2343  0.0586  0.1011
25347W        W26211   1.576   2.024  25.205  0.2500 -0.0531 -0.0139
25348W        W26212   1.387   0.553  23.049  0.3560 -0.3377  0.2848
25349W        W26213  27.790  25.440  22.800 -0.0368  0.0006  0.1418
25350W        W26214   1.640  28.233  24.818 -0.0740 -0.1580  0.0272
25351W        W26215   0.743  24.975  23.104 -0.0963  0.0776 -0.0265
25352W        W26216   1.886  28.405  25.886  0.2421  0.0327  0.2283
25353W        W26217   2.160   0.179  22.602 -0.1195  0.2583 -0.1057
25354W        W26218   1.682  27.988  22.222  0.2159 -0.1399 -0.0791
25355W        W26219   1.981   2.138  22.248 -0.1067 -0.1689 -0.2491
25356W        W26220   2.366   0.129  23.549  0.2346 -0.0050 -0.2736
25357W        W26221   1.755  28.412  21.877  0.1210  0.2569  0.1904
25358W        W26222   2.144  27.618  24.135  0.0984  0.1271  0.2407
25359W        W26223   4.507  28.029  25.981 -0.2314  0.4042 -0.0106
25360W        W26224   0.846  25.021  26.756  0.1632 -0.0297  0.2242
25361W        W26225  28.428  26.914  23.637  0.3480 -0.1570 -0.2012
25362W        W26226  28.938  26.662  20.918 -0.2576 -0.1649 -0.0213
25363W        W26227   2.408  27.927  25.512 -0.2522  0.0037 -0.4096
25364W        W26228   0.523  28.199  24.423  0.1379  0.0512 -0.0508
25365W        W26229   1.060  26.644  21.674 -0.0950  0.3500  0.5759
25366W        W26230   1.928   1.498  24.588 -0.0266  0.2743 -0.1645
25367W        W26231   2.121  29.057  25.124 -0.2250  0.0545 -0.0285
25368W        W26232   3.118   0.185  24.365 -0.1131  0.3011 -0.1938
25369W        W26233   4.624   0.439  24.744  0.0465  0.2768 -0.2076
25370W        W26234   4.782  26.549  19.719  0.1585  0.1237  0.1828
25371W        W26235   2.487  25.871  21.031  0.0299  0.0768  0.1412
25372W        W26236   0.202  26.072  22.163  0.0847 -0.0705  0.2522
25373W        W26237   1.664   0.792  23.539 -0.2833 -0.2360  0.3482
25374W        W26238   2.381  27.350  23.372  0.0227  0.0423 -0.1595
25375W        W26239   3.645  27.192  26.550 -0.1964  0.1865  0.0892
25376W        W26240   0.208   0.817  22.224  0.2429 -0.2166  0.1507
25377W        W26241   1.488  26.681  26.020 -0.3392 -0.5123 -0.0331
25378W        W26242   0.905  28.516  22.462  0.0540 -0.1725  0.1029
25379W        W26243   3.025  28.731  24.930 -0.1117 -0.1231  0.0891
25380W        W26244   0.871  25.620  26.086 -0.2799  0.1512  0.0901
25381W        W26245  28.913  28.001  25.428 -0.1282  0.0625 -0.0097
25382W        W26246   1.875   0.001  23.722 -0.1051 -0.2841  0.1508
25383W        W26247   0.562  27.413  21.998  0.0146 -0.0234 -0.0623
25384W        W26248   0.401  28.262  23.200  0.1774  0.3794  0.0102
25385W        W26249   2.656  28.333  23.292  0.1277 -0.3980 -0.1710
25386W        W26250   3.608   1.698  25.498  0.0733  0.0552  0.2260
25387W        W26251   3.190  26.109  26.825  0.2525  0.2811 -0.3593
25388W        W26252   2.164  27.559  25.276  0.0291 -0.1266  0.1119
25389W        W26253   3.054   0.293  26.073  0.0763  0.0867 -0.0410
25390W        W26254   1.951  26.880  24.969  0.1559  0.0682  0.3742
25391W        W26255   3.251   1.181  24.593 -0.1729 -0.1614 -0.1378
25392W        W26256   0.672   0.432  26.572  0.1903  0.2295 -0.2878
25393W        W26257   1.053  29.067  23.185 -0.0664 -0.0201 -0.3582
25394W        W26258   1.706   0.243  20.756  0.3575  0.0401  0.1292
25395W        W26259   1.819   0.037  22.266 -0.1325 -0.2024 -0.3916
25396W        W26260  29.121  27.130  24.321 -0.0733  0.0552  0.2899
25397W        W26261   1.963  25.639  24.546 -0.1116  0.4103  0.2415
25398W        W26262   2.385   0.963  23.050  0.1910  0.1232 -0.1098
25399W        W26263   3.960  27.153  26.944  0.0904  0.2814 -0.0862
25400W        W26264   1.538   2.459  20.621 -0.4414  0.0209 -0.0400
25401W        W26265   0.608  28.708  21.757  0.0124 -0.0988 -0.2863
25402W        W26266  28.063  27.200   0.350  0.1565  0.0082  0.0838
25403W        W26267   0.672  27.545  27.193 -0.1242 -0.0369 -0.0629
25404W        W26268   3.329   1.120  27.411  0.2350  0.0586  0.2180
25405W        W26269   2.577   0.467  27.732  0.1415  0.1446 -0.0943
25406W        W26270   4.390  28.511  26.049 -0.0510 -0.0930  0.0177
25407W        W26271   0.511  27.332  26.743  0.0444  0.1222 -0.2247
25408W        W26272   1.712  25.753  26.269  0.1132  0.0728 -0.1798
25409W        W26273   1.586  27.909  26.891  0.2834  0.0973 -0.1455
25410W        W26274   0.283  28.945  26.810 -0.0613 -0.2064 -0.1767
25411W        W26275   1.596  26.156   0.172 -0.0269  0.2512  0.1423
25412W        W26276   0.732  25.752   0.126 -0.3586 -0.1556  0.3879
25413W        W26277   1.955  24.382  28.760  0.2296  0.1139  0.2314
25414W        W26278   1.230  28.470  25.059 -0.1417  0.0049  0.1680
25415W        W26279   3.230  27.965  28.251 -0.0837  0.0195  0.4504
25416W        W26280   1.708  27.301  28.063 -0.2407  0.2759  0.3022
25417W        W26281   3.362   1.779   0.685  0.0134 -0.0174 -0.2390
25418W        W26282   1.668  28.834  27.066 -0.0111  0.1699  0.0581
25419W        W26283  28.931  26.422  26.880  0.1814 -0.1388 -0.0647
25420W        W26284  28.415  25.526   0.048 -0.0278  0.0043  0.0560
25421W        W26285   4.514  26.376  25.884  0.0718 -0.0059  0.1143
25422W        W26286   5.471  28.754  26.973 -0.0226 -0.0396  0.3576
25423W        W26287   2.657  28.654  28.808  0.1197 -0.0645  0.3206
25424W        W26288   2.069   2.546  28.362  0.0735 -0.0707  0.1452
25425W        W26289   0.337  28.048  27.348 -0.2396  0.0151  0.2843
25426W        W26290   1.414  28.141  28.508 -0.2101 -0.0463 -0.0408
25427W        W26291   0.647  28.763  28.529 -0.0645  0.0910  0.1702
25428W        W26292   3.633  27.105  28.593  0.3379  0.2296 -0.0145
25429W        W26293   1.409   3.020  28.130  0.0367  0.0381  0.2647
25430W        W26294   4.322  28.382  27.645 -0.2024  0.0010 -0.0595
25431W        W26295   1.633  26.999  27.127  0.2476 -0.0737 -0.1227
25432W        W26296   0.431  25.212  26.981  0.0158 -0.0964  0.1366
25433W        W26297   3.519  28.841   0.420  0.1754 -0.2453 -0.1579
25434W        W26298   0.410  27.436  29.003  0.2374  0.1608 -0.0553
25435W        W26299   1.030  27.242   0.593 -0.1065  0.0735  0.1482
25436W        W26300   0.940  25.132   0.878  0.4288  0.1379 -0.1700
25437W        W26301   3.400  28.451  27.408  0.0005 -0.3195 -0.1086
25438W        W26302   0.873  25.746  27.392 -0.0555  0.2248 -0.1792
25439W        W26303   2.464   1.739  27.997  0.0968  0.1631  0.0887
25440W        W26304   2.547  25.649  27.112  0.2570 -0.0204  0.0414
25441W        W26305   6.787   0.583  27.867  0.1142  0.0316  0.0655
25442W        W26306   4.438  26.861  27.541  0.1983 -0.0444 -0.0705
25443W        W26307   3.980  27.323  27.425 -0.4135 -0.1472 -0.0528
25444W        W26308   3.058   0.554  27.819 -0.0301  0.0995  0.3902
25445W        W26309   4.341   0.275  26.386  0.0390 -0.2327  0.1527
25446W        W26310   3.524   1.546  26.634  0.0161  0.1569 -0.1580
25447W        W26311   1.217   1.752  26.366  0.2644  0.2784  0.1529
25448W        W26312  29.082  26.712  28.330  0.3768 -0.1883  0.1294
25449W        W26313   4.246  25.315   0.554 -0.2668 -0.0860  0.1966
25450W        W26314   0.924  26.417  26.827 -0.0383  0.0080 -0.0670
25451W        W26315   2.996  26.365  26.008  0.0045  0.0341  0.4089
25452W        W26316  28.851   0.960  27.964 -0.2891  0.0790  0.0062
25453W        W26317   3.321  26.629  26.559  0.2356  0.1129  0.0378
25454W        W26318   2.587   0.006  28.980  0.0975 -0.2340 -0.0931
25455W        W26319   2.799  28.645  26.226 -0.0646 -0.1189 -0.2707
25456W        W26320   4.030  25.061  28.436  0.0779  0.2576 -0.3630
25457W        W26321   2.692   0.890  27.535 -0.1556 -0.2996  0.1659
25458W        W26322   1.147  25.565  25.576  0.1686  0.1990  0.1269
25459W        W26323   2.877  27.866  25.543 -0.2731 -0.3367 -0.1294
25460W        W26324   1.272  26.429  25.665 -0.0105 -0.0642  0.1170
25461W        W26325   1.704  27.947  24.373  0.0297 -0.2610 -0.0621
25462W        W26326   4.035  28.680  25.675 -0.3414 -0.0686  0.1573
25463W        W26327   1.826   1.280  28.002  0.0209 -0.0416 -0.2533
25464W        W26328   0.035  28.757   2.359 -0.0741  0.0240  0.0212
25465W        W26329   1.771   0.684  28.855  0.2327  0.3659 -0.0059
25466W        W26330   0.154  28.090  26.820  0.0137  0.0433  0.1983
25467W        W26331   2.858  27.031  27.211  0.2034 -0.2640 -0.2551
25468W        W26332   2.704  28.952  23.881  0.1299  0.2035  0.2858
25469W        W26333   2.048   0.749  28.436 -0.0423  0.0297 -0.2996
25470W        W26334  27.979  27.822  27.009 -0.1183  0.1027 -0.1706
25471W        W26335   0.355  27.028  27.760 -0.2017  0.0075  0.0393
25472W        W26336   4.669  28.795  27.686 -0.0940 -0.3953  0.1473
25473W        W26337  28.573  25.345  27.022  0.1521 -0.2352 -0.1052
25474W        W26338   1.938  29.133  27.998 -0.0959 -0.1102  0.2108
25475W        W26339   1.886  27.810   0.857  0.0873 -0.1290 -0.2096
25476W        W26340   2.753   2.735  26.546 -0.2214 -0.0811  0.4174
25477W        W26341   1.269  29.029  28.715  0.2412  0.1831  0.0625
25478W        W26342   0.170  26.208  27.308  0.1873  0.0697  0.1339
25479W        W26343   3.551   1.495  27.820  0.0631 -0.1066  0.1645
25480W        W26344   0.535  25.401  26.391 -0.2207 -0.1468 -0.2096
25481W        W26345   2.716  28.097  26.910 -0.1571 -0.1484 -0.2190
25482W        W26346   1.352  26.859  28.934 -0.3065  0.1310 -0.0267
25483W        W26347   0.873  26.221   0.188 -0.1176  0.0409  0.2225
25484W        W26348  28.368  24.714  27.791 -0.2575 -0.2339 -0.1536
25485W        W26349   0.598  25.985  27.004  0.0574 -0.2664  0.0623
25486W        W26350   1.786  25.846  27.566  0.0020  0.3473 -0.0614
25487W        W26351   3.315  25.864  24.842  0.2270  0.0459 -0.0186
25488W        W26352   5.211  28.747  27.926  0.0964  0.0209  0.1209
25489W        W26353   4.322  29.066  29.034 -0.2322 -0.1026 -0.1257
25490W        W26354   2.797  28.383   0.199 -0.1064  0.3941 -0.1239
25491W        W26355   2.817  25.329  28.288  0.0859  0.1192  0.0269
25492W        W26356   2.332  25.256  28.323  0.0624  0.1338 -0.4105
25493W        W26357   1.373  27.211   2.737  0.1024  0.0580  0.3882
25494W        W26358   2.734   0.429  23.700 -0.0372 -0.2953  0.0923
25495W        W26359   0.728  26.021  24.956  0.1378  0.0613 -0.5293
25496W        W26360   3.052  26.375   0.121 -0.0414  0.2013  0.0428
25497W        W26361   3.886  28.551  27.879 -0.3404  0.3317  0.0381
25498W        W26362   4.340  26.609  26.536 -0.2509 -0.1160 -0.0696
25499W        W26363   0.784  28.298  28.934  0.1673  0.0805  0.1093
25500W        W26364   3.107  26.416  25.181  0.0059  0.0682  0.0986
25501W        W26365   3.217  24.036  28.793  0.0652  0.1421 -0.3003
25502W        W26366   3.967  28.181  23.975 -0.1328 -0.1719 -0.1490
25503W        W26367  28.753   1.174  26.635 -0.1995  0.1770 -0.1574
25504W        W26368   2.911  26.387  26.478 -0.2763  0.1234 -0.2577
25505W        W26369   6.594  27.036  27.469 -0.0987  0.0058  0.4484
25506W        W26370   4.045  28.400  28.376 -0.0439  0.2224  0.0049
25507W        W26371   1.923  27.324   0.711 -0.0483  0.1494  0.1957
25508W        W26372   2.130   0.754  26.494  0.1349 -0.0183 -0.0399
25509W        W26373   2.235  25.626   2.769  0.1068 -0.1962 -0.2104
25510W        W26374   1.456  26.363  27.857 -0.0081  0.0458 -0.0603
25511W        W26375   0.668  28.771  27.868 -0.3805 -0.1121 -0.1907
25512W        W26376  27.209  24.894   0.506 -0.0034  0.3273 -0.0436
25513W        W26377   2.540   0.917   0.131  0.1991  0.0744 -0.0345
25514W        W26378   3.937  26.647  26.862 -0.1308 -0.1253  0.1515
25515W        W26379   3.199   1.616  26.026  0.3734 -0.1686 -0.0514
25516W        W26380   3.627   0.554  24.950  0.2372 -0.4109 -0.3873
25517W        W26381   0.457   0.111  27.806 -0.1955 -0.3229  0.2655
25518W        W26382   2.214  24.152   2.133  0.0341  0.3841  0.0729
25519W        W26383   2.225  27.367  27.469  0.2317  0.1060 -0.1936
25520W        W26384   1.333  25.187  29.002  0.0607 -0.2948 -0.0670
25521W        W26385   2.283  28.352  27.168  0.1640  0.4443  0.1318
25522W        W26386   4.919  27.459  24.953  0.1928 -0.0490 -0.1797
25523W        W26387   3.159  27.589  25.847  0.2913  0.1545  0.0253
25524W        W26388   1.971  28.707  27.704  0.1615  0.0229  0.0116
25525W        W26389   0.488  28.204  28.521 -0.2522 -0.0314  0.0864
25526W        W26390   3.063   0.128  28.885  0.2270 -0.1414 -0.0070
25527W        W26391   3.585   0.606  26.954  0.0356 -0.5018  0.2346
25528W        W26392   2.847  27.424   0.323 -0.0736 -0.0629  0.2537
25529W        W26393   3.039  25.651   0.035  0.0259 -0.1880  0.0888
25530W        W26394   3.518  27.150  27.235  0.1034 -0.2506 -0.0944
25531W        W26395   3.459   1.335  25.008  0.2298 -0.0903 -0.0859
25532W        W26396   2.592   1.872  28.779 -0.3856 -0.1543  0.4702
25533W        W26397   2.171  25.198   0.579 -0.1683  0.1669  0.3386
25534W        W26398   4.435   2.172   0.610 -0.2083  0.1022  0.1862
25535W        W26399   3.355  27.214   0.454 -0.1205  0.0330 -0.0097
25536W        W26400   1.484  26.280  26.605  0.2182  0.1042 -0.0657
25537W        W26401  28.267  27.767  28.939 -0.4413  0.4067  0.3177
25538W        W26402   4.169  26.433  27.697  0.1719  0.1952 -0.2903
25539W        W26403   3.390  26.040  28.968  0.0853  0.2872  0.3292
25540W        W26404   3.456   0.338  28.043  0.1754 -0.1032  0.0739
25541W        W26405   1.625   1.587  28.581 -0.2267 -0.1365  0.1415
25542W        W26406   0.454  24.640  26.822  0.0094 -0.0812  0.0391
25543W        W26407   0.962  24.401   0.155 -0.0272  0.1561  0.1960
25544W        W26408   1.772  27.972  26.331  0.0762  0.1553 -0.1356
25545W        W26409   0.903  27.881  27.578 -0.1651 -0.0406  0.0446
25546W        W26410   2.154   0.051  28.519 -0.3615  0.1843  0.4045
25547W        W26411   0.748  24.804  27.270 -0.0640 -0.1279  0.1651
25548W        W26412   2.927  26.633  26.891  0.1168  0.0094 -0.1883
25549W        W26413   3.438  26.567  27.613  0.1628  0.1345 -0.3108
25550W        W26414   0.663   1.839  28.986  0.1734  0.1088 -0.3380
25551W        W26415   3.180  26.196  27.842 -0.4464  0.1732 -0.0736
25552W        W26416   4.841  28.879  26.894  0.2033  0.0377 -0.1167
25553W        W26417   1.211  26.057  28.260 -0.4574  0.1522 -0.1728
25554W        W26418   2.661  28.168  27.980  0.0215 -0.1484 -0.2523
25555W        W26419  27.418  28.058  25.616 -0.0281  0.0303  0.1072
25556W        W26420   1.747  26.234  28.457 -0.0446 -0.1457 -0.0848
25557W        W26421   2.536  25.748  28.157  0.1110 -0.1042 -0.1690
25558W        W26422   1.081  27.886  27.080  0.0365 -0.1985  0.0415
25559W        W26423  28.804  24.693  27.447 -0.3686 -0.2640 -0.1356
25560W        W26424   2.077  25.628  23.747 -0.0825 -0.1079 -0.2972
25561W        W26425   0.855  28.498   0.276 -0.1104 -0.1707  0.1685
25562W        W26426   1.234  24.239   2.230 -0.5225 -0.0389 -0.0295
25563W        W26427   3.191   0.773   1.416  0.1659  0.0439  0.2542
25564W        W26428   0.173  28.715  25.764 -0.1346 -0.0440  0.3048
25565W        W26429   2.355  27.982   0.798 -0.4003  0.0775  0.0843
25566W        W26430   3.952  25.236   2.586 -0.1561  0.1945 -0.0569
25567W        W26431  29.052  24.774  26.076  0.3513 -0.1071  0.0855
25568W        W26432   2.553  27.210  25.591  0.1270  0.1037  0.0169
25569W        W26433   2.053   1.801  26.083 -0.1275 -0.5005  0.1074
25570W        W26434   1.144   0.076   0.945  0.1451 -0.2694 -0.2493
25571W        W26435  27.798  26.378  28.250 -0.1243 -0.0490 -0.1535
25572W        W26436   1.856  28.123  27.329  0.0533  0.2062 -0.2165
25573W        W26437   3.589  26.200   2.640  0.1550 -0.0016 -0.3541
25574W        W26438   2.076  26.384   1.549  0.1135 -0.2181 -0.1161
25575W        W26439   4.461  25.169  27.048  0.1252  0.1198 -0.2035
25576W        W26440   1.846  23.951   0.165 -0.1660 -0.1452  0.2128
25577W        W26441   6.764  24.892  24.704 -0.1867  0.0358 -0.1225
25578W        W26442   1.447  27.978   0.722  0.2302  0.0460  0.2628
25579W        W26443   1.208   0.675  27.936 -0.1081  0.1688 -0.1592
25580W        W26444   0.838   0.051  25.729  0.2653  0.0830  0.0722
25581W        W26445   3.647  28.340  26.547 -0.0998  0.2963  0.0585
25582W        W26446   2.317   0.260  26.695 -0.1414 -0.0483  0.0455
25583W        W26447   3.889  28.324  27.336  0.2166  0.0812  0.1521
25584W        W26448   3.638  28.193  25.966  0.1329 -0.0091  0.1598
25585W        W26449   4.861  27.080  24.100  0.0942  0.0018  0.2117
25586W        W26450   2.975  27.128  25.842 -0.2503  0.2028  0.1031
25587W        W26451   0.717  28.602   1.045 -0.0777  0.1029  0.1377
25588W        W26452   4.709  27.028  25.128  0.1569  0.2016 -0.0049
25589W        W26453   1.551  24.233  24.222  0.0090  0.1770  0.0825
25590W        W26454   3.754   0.566  28.608 -0.3206 -0.1342  0.0848
25591W        W26455   1.686  28.653  28.750 -0.2185 -0.2773  0.0938
25592W        W26456   1.486  27.258  26.675  0.3972  0.1024  0.0019
25593W        W26457   2.841   0.162  26.517  0.0000  0.2206  0.4306
25594W        W26458  27.632  26.501  28.894  0.2509 -0.0922  0.0402
25595W        W26459  28.490  27.634  27.095 -0.0151  0.0692  0.1187
25596W        W26460   0.882  25.330  29.077  0.3030  0.3695  0.1979
25597W        W26461   1.377  25.613  27.229  0.1788 -0.3487  0.1092
25598W        W26462   3.914  26.804  26.307  0.0173  0.0390 -0.0677
25599W        W26463   1.178  24.705  25.943 -0.0838 -0.1076 -0.0030
25600W        W26464   2.010  26.947  27.808  0.0907  0.0485 -0.0787
25601W        W26465   3.689  24.964  27.945  0.0160 -0.0752  0.2447
25602W        W26466   1.933  28.956  24.699  0.0514 -0.0565  0.0449
25603W        W26467  28.969  23.994  26.665 -0.5323  0.2538 -0.0546
25604W        W26468   3.191  28.961  26.244  0.0515  0.2565  0.0665
25605W        W26469  29.046  26.228  26.286 -0.1205  0.1969  0.0868
25606W        W26470   1.664  25.736   0.482 -0.1598  0.1129 -0.1638
25607W        W26471  27.918  25.478  24.435  0.3053  0.2689 -0.3246
25608W        W26472   1.121  28.438   0.762 -0.4914  0.0480 -0.0922
25609W        W26473   1.701  26.475  28.894  0.0673 -0.0159 -0.1021
25610W        W26474   3.613  28.858  26.543  0.2837  0.0363 -0.1300
25611W        W26475   0.324  25.290  25.464  0.3307  0.0305 -0.1852
25612W        W26476   2.321   0.522  27.205 -0.0976 -0.0690  0.1226
25613W        W26477   1.646  27.209   0.272 -0.0992 -0.0343 -0.2540
25614W        W26478  28.847  26.932  26.996 -0.0656  0.1064 -0.3408
25615W        W26479   1.167  25.587  28.731 -0.2421 -0.1118 -0.0931
25616W        W26480   3.015   0.015  27.918  0.0561 -0.0893  0.0314
25617W        W26481   2.210  29.092  25.970 -0.1479  0.0597  0.2051
25618W        W26482   2.011   0.501  27.955 -0.2033 -0.1428  0.2575
25619W        W26483   5.039   1.223  26.970 -0.1209  0.3610  0.4835
25620W        W26484   0.364  26.848  29.049  0.2268  0.1367  0.2175
25621W        W26485   0.768  27.494   1.305  0.4678  0.1550  0.1255
25622W        W26486   5.005  27.949  27.700 -0.1617  0.1610  0.1381
25623W        W26487   3.722  25.801  27.496  0.1146  0.0591 -0.2152
25624W        W26488   2.777  28.580   1.039  0.1467 -0.2247  0.0750
25625W        W26489   2.070  25.450  27.549 -0.2222  0.0812 -0.2173
25626W        W26490   3.953  27.660  27.072 -0.0823  0.1364  0.0921
25627W        W26491   0.028  24.557  27.193 -0.3447  0.2612  0.3742
25628W        W26492   2.143  29.105   0.046  0.0405 -0.0282  0.2510
25629W        W26493   3.974  24.602  28.112  0.0907 -0.1770 -0.1730
25630W        W26494   3.347   0.658  24.532 -0.2128  0.1797  0.3703
25631W        W26495   0.561  28.131  26.499 -0.2175  0.0608  0.0683
25632W        W26496   1.834  25.296  26.690 -0.0117  0.2063 -0.0714
25633W        W26497  28.953  26.538   2.934  0.0168  0.0758  0.0857
25634W        W26498   4.722   1.579  26.139  0.1358 -0.0067  0.2511
25635W        W26499   2.165  27.780  23.135 -0.0456  0.1400  0.0354
25636W        W26500  28.625  26.679  28.441  0.0216 -0.3522 -0.0252
25637W        W26501   2.164   0.802  27.616  0.0388  0.2089  0.0053
25638W        W26502   3.035  24.905  24.951  0.1940 -0.0659  0.0884
25639W        W26503   3.182  26.670   0.912 -0.0765  0.0969  0.0574
25640W        W26504   2.668  27.671  27.965  0.0194 -0.0672  0.1086
25641W        W26505   4.354   0.581  25.952  0.0882 -0.1533  0.1761
25642W        W26506   3.098  27.449  27.232  0.1741 -0.0321 -0.1642
25643W        W26507  29.023  27.357  27.237 -0.0389  0.1046  0.2223
25644W        W26508   0.936  27.979  28.579 -0.0048 -0.0495  0.0697
25645W        W26509  28.685  25.232  27.488  0.1183 -0.0262 -0.1712
25646W        W26510   1.898  26.307  27.559 -0.0743 -0.1831 -0.1696
25647W        W26511   3.856   0.268  26.720 -0.2187 -0.1598  0.0730
25648W        W26512   3.247  27.419  26.311 -0.0031 -0.1782 -0.0658
25649W        W26513   0.225  26.212   2.010  0.1171 -0.1984 -0.1262
25650W        W26514   6.079   1.195  27.500 -0.1574  0.2114  0.2219
25651W        W26515   1.527  26.653  27.469 -0.1260 -0.1504  0.0152
25652W        W26516   3.148  28.314  28.833  0.0421  0.1059  0.2452
25653W        W26517   3.235   2.596  28.295  0.1062  0.0285  0.2211
25654W        W26518   4.374  27.673   0.331 -0.0385 -0.1321 -0.0505
25655W        W26519   1.965  26.470   0.144 -0.0233  0.2550  0.0894
25656W        W26520   2.384  27.654  26.580 -0.0811 -0.0323 -0.0126
25657W        W26521   4.284   0.927  28.044 -0.1239 -0.0544 -0.1695
25658W        W26522   4.152  25.489  27.655  0.0965 -0.1027  0.0429
25659W        W26523   3.065  28.615   0.620 -0.0561 -0.0578  0.0165
25660W        W26524   3.509  27.844  25.556 -0.1901 -0.1232  0.0616
25661W        W26525   4.769  27.489  26.829 -0.0816 -0.1247 -0.2998
25662W        W26526   1.408  24.996  27.402 -0.2728 -0.0957 -0.1726
25663W        W26527   2.191  26.454   1.049  0.3913 -0.1062  0.1101
25664W        W26528   1.105  27.969   0.249  0.0859  0.1310 -0.0741
25665W        W26529   0.789  24.853   1.547  0.1865 -0.2755 -0.1124
25666W        W26530   3.066  28.967  26.802 -0.1261 -0.1664  0.0463
25667W        W26531   1.840   0.404   0.163  0.0883 -0.0302  0.2349
25668W        W26532   3.703   1.006  25.421 -0.2889  0.2981  0.0232
25669W        W26533   2.758   0.567  28.995 -0.0516  0.2348  0.0460
25670W        W26534  29.064  26.037   2.465  0.1846 -0.2006  0.2521
25671W        W26535   5.462  28.050  25.756  0.1479 -0.3777 -0.1506
25672W        W26536   2.097  25.611  27.998  0.3219 -0.0285  0.1475
25673W        W26537   2.633  29.007  28.400  0.1917  0.1780  0.0527
25674W        W26538   4.079  27.878  28.450 -0.1891 -0.1919  0.1312
25675W        W26539  28.916   2.204  28.210 -0.0670 -0.1117  0.0609
25676W        W26540   3.982  26.798  27.360 -0.0042 -0.1183  0.1866
25677W        W26541   2.157  28.725  28.722  0.0082 -0.3561 -0.0008
25678W        W26542   0.180  27.584  28.497  0.2205 -0.1778 -0.0874
25679W        W26543   1.726   0.265  28.447  0.1455  0.1695  0.2441
25680W        W26544   1.804  27.055  26.179  0.1337  0.2530 -0.3095
25681W        W26545   0.142  28.828  28.773  0.0979 -0.1917  0.1682
25682W        W26546   1.488  28.223  28.998 -0.1213  0.1200  0.0144
25683W        W26547   4.045  25.894  26.472  0.2158  0.1385 -0.0057
25684W        W26548   2.034  25.333  26.116 -0.1126  0.2344  0.2615
25685W        W26549   1.626   1.731  27.174 -0.2097 -0.1266  0.0382
25686W        W26550   2.549  28.523  27.656 -0.0636 -0.0797 -0.0186
25687W        W26551   1.468  27.465   0.882  0.0085 -0.0051  0.2260
25688W        W26552   2.597   0.046  27.104 -0.2226  0.0011  0.1185
25689W        W26553  27.620  25.419   1.800  0.1550 -0.0836 -0.0376
25690W        W26554   6.017  25.309  27.234 -0.0497  0.1800  0.2269
25691W        W26555  28.726  27.686   2.036 -0.2746 -0.2098 -0.1012
25692W        W26556   2.437  26.221  26.617 -0.0790 -0.2397  0.3152
25693W        W26557   3.342  24.981  26.028  0.2124 -0.0248  0.0240
25694W        W26558   5.158  26.898  26.280  0.1474 -0.0626  0.1028
25695W        W26559  28.004  27.844  26.362 -0.2645 -0.0411  0.1331
25696W        W26560  28.920  28.614  28.379  0.2517  0.3946  0.2792
25697W        W26561   3.103  25.752  27.182  0.2093 -0.1812  0.0449
25698W        W26562   3.190  26.987  27.592  0.3123 -0.0402 -0.1579
25699W        W26563   3.304  28.881  28.274  0.0133 -0.1511 -0.1359
25700W        W26564   3.717  25.611   0.074 -0.1680 -0.0776  0.2861
25701W        W26565   2.838   1.269  24.867 -0.2101 -0.0345 -0.2773
25702W        W26566   2.549   0.495  26.272 -0.0600 -0.0112  0.4653
25703W        W26567  27.897  23.423  27.720 -0.1196 -0.0798  0.2170
25704W        W26568   2.157   1.101  28.872  0.1073  0.2995  0.0856
25705W        W26569   2.321  27.068  26.005  0.0975  0.1556  0.0687
25706W        W26570   2.749   0.877  25.727  0.0108 -0.4886 -0.1233
25707W        W26571   2.490  28.988   0.376  0.0360 -0.1319  0.0706
25708W        W26572   1.870  24.510  25.785  0.3627 -0.0359  0.1052
25709W        W26573   0.971  24.934   0.266  0.1213  0.1065  0.0963
25710W        W26574   1.219  27.049  27.457 -0.0770  0.0159  0.1091
25711W        W26575   2.426  26.110  25.260 -0.1279 -0.1694 -0.0946
25712W        W26576   2.664  25.652  28.632  0.0564  0.2016  0.2863
25713W        W26577   0.647  23.555  25.068 -0.1178 -0.5532  0.0668
25714W        W26578   1.504  28.406   0.402  0.1053  0.0606 -0.0810
25715W        W26579  29.147  28.817   0.362 -0.0693  0.1067 -0.2612
25716W        W26580   0.417   0.020   0.615 -0.0492  0.0222 -0.1243
25717W        W26581   1.935  26.078  26.641  0.1835  0.2237  0.1770
25718W        W26582   2.524  26.711  26.579 -0.4317 -0.0433 -0.0237
25719W        W26583   2.068  25.485   0.150 -0.3097 -0.1660 -0.0253
25720W        W26584   2.050  26.808  27.324  0.3160  0.0551 -0.0765
25721W        W26585   1.909   0.521  26.928  0.3981 -0.3218 -0.0035
25722W        W26586   4.834  28.128  24.525 -0.3346  0.0995 -0.1508
25723W        W26587   0.309  27.438   0.418  0.0769 -0.1194 -0.2916
25724W        W26588   0.967  28.547  26.427 -0.0999 -0.0285 -0.0927
25725W        W26589  28.592   1.075  28.477  0.2278  0.0175  0.2498
25726W        W26590   3.681   1.451   0.497 -0.0589 -0.3072  0.0368
25727W        W26591  28.243  24.521  26.230 -0.0499  0.1030  0.1328
25728W        W26592   0.588  28.750  26.127 -0.1348  0.1289  0.0948
25729W        W26593   3.210  28.248  25.697  0.2157  0.1936 -0.0686
25730W        W26594   0.729  27.922  28.115  0.0528 -0.1607 -0.2262
25731W        W26595   3.345  27.552   1.648 -0.1067 -0.0174 -0.3066
25732W        W26596   4.186  25.981  27.310  0.0852  0.1481  0.0387
25733W        W26597   1.023  26.576  27.602  0.0917 -0.1994 -0.0765
25734W        W26598   2.413  28.908   1.390 -0.2398 -0.0231  0.0833
25735W        W26599   2.940   0.958   0.889  0.3102 -0.0870 -0.0610
25736W        W26600   4.656  28.759   0.219  0.1909  0.1523  0.0660
25737W        W26601   2.839   2.103   0.058 -0.1463 -0.3937  0.1675
25738W        W26602   2.318  27.868  28.235 -0.3535 -0.4068 -0.0467
25739W        W26603   0.689  24.704  28.099 -0.1572 -0.1346  0.1520
25740W        W26604   3.542  22.997   0.048  0.2795 -0.0828 -0.0952
25741W        W26605   3.512   0.727  27.741  0.1723  0.2007 -0.3746
25742W        W26606   1.949   1.032  25.514 -0.0321  0.1102 -0.0291
25743W        W26607   1.419   0.382   0.408 -0.0865 -0.0229  0.1189
25744W        W26608   3.150   1.985  26.318  0.1760  0.1006 -0.0603
25745W        W26609   1.571  28.900  28.249 -0.1882 -0.0882 -0.2059
25746W        W26610   2.040  26.991   0.131 -0.1610  0.2482 -0.2081
25747W        W26611   2.945  26.862  26.294  0.0789 -0.0004 -0.1419
25748W        W26612   0.753  26.918  26.469  0.2599 -0.0503 -0.0113
25749W        W26613   2.879  28.407  27.216 -0.1296 -0.1273 -0.1158
25750W        W26614   0.457  25.754  25.723  0.0104 -0.1229  0.2519
25751W        W26615   2.516  27.704   0.109 -0.1047  0.1885 -0.3161
25752W        W26616   1.934  25.160  24.343  0.1952  0.1818 -0.0586
25753W        W26617   4.066  28.206  26.249  0.0983 -0.0285  0.1120
25754W        W26618   3.187   2.339  27.890 -0.0257 -0.0764 -0.1126
25755W        W26619   2.079   0.280  26.284  0.0509 -0.3428 -0.4818
25756W        W26620   1.932  26.286  24.998 -0.4494 -0.0594  0.1509
25757W        W26621   2.079   2.028  27.410  0.2478  0.0789 -0.0378
25758W        W26622   4.358  28.657  27.242  0.0669  0.3492  0.1491
25759W        W26623  28.184  26.593   0.135 -0.0080 -0.2338  0.2282
25760W        W26624  28.860  26.648  24.221 -0.1901  0.2109 -0.3055
25761W        W26625   1.749   0.445  23.879 -0.1165 -0.0369 -0.1595
25762W        W26626   2.807  27.904  28.462  0.2623 -0.1717  0.1543
25763W        W26627   0.707   1.089  27.828  0.2466  0.0507 -0.0991
25764W        W26628   2.698  25.780  26.541 -0.0310 -0.0533  0.1792
25765W        W26629   1.472   2.560   1.799 -0.3189  0.0192 -0.2300
25766W        W26630   1.650   0.159   0.794 -0.1399 -0.0600  0.2670
25767W        W26631   2.657   0.983  26.210 -0.2666 -0.3985  0.0725
25768W        W26632   5.063  27.328  25.875 -0.3248 -0.1726  0.2450
25769W        W26633   1.677  26.234  26.151 -0.0420  0.0875 -0.3699
25770W        W26634   3.702  26.189  27.796 -0.4417 -0.0212 -0.2072
25771W        W26635   0.261  26.557  24.221  0.1603 -0.1018  0.0804
25772W        W26636   3.582  25.741  26.298 -0.0539  0.0187  0.2626
25773W        W26637   3.598  29.104  24.214 -0.2050  0.0666 -0.2774
25774W        W26638   2.291  28.184   0.276  0.0460 -0.2825  0.0502
25775W        W26639   2.367   0.700  25.396  0.0009 -0.5235 -0.1354
25776W        W26640   1.881  25.317   1.981 -0.0523  0.2507 -0.0578
25777W        W26641   1.947  28.240   0.599  0.1245  0.1382 -0.0541
25778W        W26642   4.175  28.870  27.671  0.0347  0.0560 -0.0365
25779W        W26643   0.426  26.703  28.109 -0.2276 -0.3117  0.0037
25780W        W26644   0.256  28.645  28.133 -0.1653  0.3890 -0.0335
25781W        W26645   2.923  26.665  27.863  0.0899  0.0518  0.1351
25782W        W26646   0.432  27.439  25.903 -0.0572 -0.0458  0.0052
25783W        W26647   1.684  27.237  28.774 -0.1620  0.0684  0.0545
25784W        W26648   3.796  26.015  28.333 -0.1561  0.0046  0.0891
25785W        W26649   2.709  26.759   1.051 -0.0091  0.0740 -0.0734
25786W        W26650   3.957  27.331  28.284  0.0268 -0.1340 -0.1494
25787W        W26651   4.970   0.667  24.483  0.0190 -0.2829 -0.1060
25788W        W26652   3.181  27.940  26.618 -0.1631  0.1913 -0.2747
25789W        W26653   2.213   1.433   1.315  0.1542 -0.0578 -0.1316
25790W        W26654   3.987  28.347  24.555 -0.1223 -0.2074  0.0541
25791W        W26655   3.961  24.937  27.390  0.0120  0.1291 -0.0368
25792W        W26656  29.038   2.093  26.097  0.0470  0.2652 -0.1315
25793W        W26657   1.401  27.999  27.466  0.1749  0.0279 -0.2227
25794W        W26658   7.468  28.340  28.067  0.3590 -0.2906 -0.0570
25795W        W26659   2.094   1.660  28.840  0.2864  0.0243  0.2132
25796W        W26660   4.863  25.575  28.213  0.0846 -0.0717 -0.0013
25797W        W26661   2.836   1.632  28.384  0.1015  0.0107  0.2629
25798W        W26662   1.418  26.990   0.732 -0.2230  0.0978  0.0757
25799W        W26663   1.947   1.633  26.513 -0.0324  0.0191  0.3690
25800W        W26664   0.537  26.822  26.045  0.0457  0.0950  0.0287
25801W        W26665   4.160   3.456   1.839 -0.0101  0.1996 -0.1703
25802W        W26666   4.156   3.151   0.366 -0.4090 -0.0785 -0.1307
25803W        W26667   6.185   1.361  28.020 -0.5040  0.0996  0.0216
25804W        W26668   5.676   3.779   4.060  0.0407 -0.3680  0.1528
25805W        W26669   4.781   1.593  28.004 -0.0907  0.1189  0.0307
25806W        W26670   7.997   2.513   1.355  0.2192 -0.1889 -0.0359
25807W        W26671   5.097   1.701   3.934  0.0550  0.2839  0.1403
25808W        W26672   5.999   1.804  28.176 -0.0174  0.2155  0.0016
25809W        W26673   5.641   3.330   3.657 -0.0470  0.2237  0.2718
25810W        W26674   5.193   2.779   3.864 -0.1378 -0.0703  0.0378
25811W        W26675   4.474   0.384   3.847  0.1376  0.0984  0.1362
25812W        W26676   6.523  29.027   2.244  0.4112 -0.1994 -0.3493
25813W        W26677   7.990   1.510   1.352  0.2432 -0.1088 -0.0325
25814W        W26678   8.723   2.669   1.986  0.2226  0.1682 -0.0214
25815W        W26679   3.590   0.943   2.901 -0.4334 -0.1248  0.0461
25816W        W26680   3.075   3.702   3.396  0.0925  0.0599  0.0444
25817W        W26681   6.025   3.957   0.198 -0.3158  0.2697 -0.1001
25818W        W26682   2.974   2.236   3.420  0.2463  0.0230  0.2762
25819W        W26683   6.412   0.918   2.241  0.2646 -0.1386  0.2134
25820W        W26684   9.643   2.163   1.164 -0.0078  0.2934 -0.1110
25821W        W26685   6.707   0.009   3.782  0.2758  0.0176 -0.1773
25822W        W26686   5.643  28.923   1.865  0.0647 -0.0123 -0.2005
25823W        W26687   5.302   3.131   2.587 -0.3335 -0.1826 -0.1394
25824W        W26688   4.379   2.398   2.025 -0.3253  0.0642  0.0469
25825W        W26689   3.257   1.310   2.792  0.1176 -0.0003 -0.2640
25826W        W26690   3.123   1.463   3.632  0.0218 -0.2259 -0.2415
25827W        W26691   6.612   1.690   4.860  0.2202  0.2338  0.3854
25828W        W26692   0.564   3.828   3.360 -0.0324 -0.2102 -0.1066
25829W        W26693   4.704   4.406   3.930 -0.2986 -0.4018  0.0468
25830W        W26694   3.957   1.189   3.298 -0.3842 -0.1620 -0.1671
25831W        W26695   7.199   3.383   3.096  0.0874 -0.4814 -0.2284
25832W        W26696   7.071   1.738   5.406 -0.2403 -0.0351  0.3843
25833W        W26697   5.477  29.002   3.278 -0.1078  0.0834 -0.0423
25834W        W26698   5.722   2.018   1.972  0.0204 -0.1429 -0.2244
25835W        W26699   5.054   0.913   3.564  0.0058 -0.0228 -0.0632
25836W        W26700   7.473  29.141   3.314 -0.0890 -0.0078  0.0244
25837W        W26701   4.254   0.401  28.337 -0.0434  0.0406  0.2597
25838W        W26702   4.575   3.088   3.256 -0.1135  0.1581  0.0324
25839W        W26703   6.842   1.486   2.692  0.0365 -0.3450  0.1164
25840W        W26704   6.748   3.161   4.578 -0.0288 -0.2614  0.0748
25841W        W26705   8.690   0.190   1.070  0.0964 -0.0462  0.2212
25842W        W26706   6.715   0.992   4.080  0.1259  0.3261 -0.1433
25843W        W26707   4.267   3.392   0.825  0.2467  0.2340 -0.1564
25844W        W26708   6.278   2.871   1.293  0.0519  0.0774 -0.0334
25845W        W26709   2.604   3.251   1.346 -0.0404  0.0764 -0.3535
25846W        W26710   4.536   4.808   1.941  0.3155  0.1088 -0.2246
25847W        W26711   3.238  27.806  28.741  0.2106  0.0579 -0.2893
25848W        W26712   5.559   4.119   1.309 -0.1134  0.1896 -0.1008
25849W        W26713   5.131   2.288   1.238  0.0706  0.1673  0.0012
25850W        W26714   7.926   0.029   2.192 -0.2398 -0.0481  0.0701
25851W        W26715   7.733   4.869   2.507  0.2769  0.1884  0.2891
25852W        W26716   5.936   1.055   2.476  0.0054  0.0742 -0.2117
25853W        W26717   5.992   0.787   3.435 -0.1331  0.0259  0.2261
25854W        W26718   9.083  28.727  28.130  0.2406  0.3395 -0.2080
25855W        W26719   5.751   1.239  28.288 -0.0822  0.1727  0.2591
25856W        W26720   5.115   1.830   1.446 -0.3397 -0.2765  0.0274
25857W        W26721   4.282   2.027   1.633 -0.3198 -0.2451 -0.0703
25858W        W26722   5.825   1.956  28.686 -0.1166 -0.0041 -0.1068
25859W        W26723   5.382   2.017   0.439 -0.1770 -0.0847  0.0293
25860W        W26724   8.394   3.230  28.573 -0.0071 -0.2201 -0.2333
25861W        W26725  10.542   2.356   0.155 -0.1632 -0.1730  0.4541
25862W        W26726   2.724   4.742   2.889 -0.1736  0.0065 -0.0121
25863W        W26727   5.477   4.297   2.187 -0.0391  0.0438  0.0375
25864W        W26728   5.733   2.787   1.444  0.1835 -0.0364  0.0018
25865W        W26729   6.332   3.617   4.218 -0.0604  0.1396 -0.1411
25866W        W26730   7.905   0.572   3.788 -0.4196 -0.0108  0.0812
25867W        W26731   5.626   1.834  26.839 -0.2549  0.0890 -0.1508
25868W        W26732   4.339   5.126   0.206  0.2923 -0.0984  0.2024
25869W        W26733   4.235   3.006   2.094 -0.2644 -0.1800  0.2841
25870W        W26734   6.077   1.482   0.489 -0.0005 -0.1906  0.3319
25871W        W26735   8.232   4.217   4.210 -0.3325  0.0290 -0.1005
25872W        W26736   6.109  29.024   3.018  0.0803 -0.5242 -0.0726
25873W        W26737   7.748   1.436  29.052  0.0917  0.0562 -0.0610
25874W        W26738   6.316   1.472   1.449  0.3217  0.0754 -0.1681
25875W        W26739   7.050   2.612   3.538 -0.0480 -0.0617 -0.2034
25876W        W26740   5.790   4.196   3.018  0.2151  0.0658  0.0234
25877W        W26741   2.859   2.421   1.560 -0.1697  0.2352  0.0944
25878W        W26742   2.855   0.507   4.040  0.1429  0.0128  0.2270
25879W        W26743   4.991   3.208   5.114 -0.5281 -0.0678 -0.0624
25880W        W26744   6.395   2.348   2.060 -0.1061 -0.0557  0.4383
25881W        W26745   4.898   3.057   4.550  0.0451  0.0790  0.2088
25882W        W26746   4.477   1.228   2.214 -0.0737  0.2288  0.1364
25883W        W26747   3.664   1.359   1.936  0.2934 -0.0301 -0.1457
25884W        W26748   7.984   2.190   2.452 -0.3029  0.0319 -0.2589
25885W        W26749   7.596   0.863   3.369  0.2042  0.0118  0.2338
25886W        W26750   7.195   0.587   1.630 -0.2575 -0.0484  0.0379
25887W        W26751   8.932   2.753   5.806  0.3724  0.0240 -0.0974
25888W        W26752   4.672  28.587   2.305  0.1052 -0.0978  0.0897
25889W        W26753   6.220   3.067   2.770  0.2731 -0.0243 -0.1353
25890W        W26754   5.052  28.768   4.379 -0.3135 -0.1741  0.1669
25891W        W26755   5.369   1.459   1.705  0.0061 -0.2748  0.0536
25892W        W26756   6.334   2.248   2.545 -0.0345 -0.3306  0.2807
25893W        W26757   5.799   1.188   0.899  0.1857  0.1250  0.3569
25894W        W26758   4.739  28.921   1.574  0.2752  0.0474 -0.2186
25895W        W26759   5.885   1.541   1.722  0.2211 -0.4053  0.0709
25896W        W26760   7.513   2.777   0.988  0.1722  0.1936  0.0982
25897W        W26761   7.870  27.957   1.905  0.1213  0.5955 -0.0365
25898W        W26762   4.722   1.679   3.531  0.1556 -0.0174  0.3051
25899W        W26763   3.319  28.644   1.379  0.2825 -0.0636 -0.1563
25900W        W26764   8.910   0.994   1.380  0.1542  0.0008  0.1238
25901W        W26765   9.024   0.637  28.201  0.0733 -0.1184  0.0994
25902W        W26766   5.191   0.465   1.411  0.1956 -0.1422  0.0720
25903W        W26767   6.273   2.861  27.802  0.1710  0.2322 -0.0396
25904W        W26768   7.091   0.211   2.881 -0.1826  0.1682 -0.2791
25905W        W26769   6.279  29.087   4.354 -0.1819 -0.0498 -0.0362
25906W        W26770   5.480  29.053   7.732 -0.1665  0.0959  0.0134
25907W        W26771   3.596   2.156   0.367  0.1551  0.3028 -0.0212
25908W        W26772   6.379   3.518   2.883  0.2811  0.0016  0.0295
25909W        W26773   5.434   3.211   1.219 -0.0440  0.0533  0.2160
25910W        W26774   2.541   2.259   2.415 -0.2858 -0.0749  0.0728
25911W        W26775   5.689   2.871   0.914  0.4175  0.0521 -0.0020
25912W        W26776   3.925   2.427   0.731 -0.0511  0.0032  0.1789
25913W        W26777   6.939   0.814   2.036 -0.1179 -0.2930 -0.0214
25914W        W26778   6.701   3.166   2.678  0.0316  0.0950 -0.0948
25915W        W26779   8.702   2.435  28.070 -0.0317 -0.0285  0.2173
25916W        W26780   8.105   1.120   1.748 -0.0384 -0.0272  0.2307
25917W        W26781   8.425  28.191   0.751 -0.0909 -0.0816  0.1233
25918W        W26782   6.421   1.231   4.583  0.0802 -0.2471  0.1055
25919W        W26783   6.509   2.714   3.484 -0.1861  0.1979  0.1821
25920W        W26784   6.293   0.147   2.665  0.1808 -0.2696 -0.2196
25921W        W26785   7.209   4.810   2.671 -0.2175 -0.0213  0.2764
25922W        W26786   5.946   4.436   0.450  0.4515  0.1319 -0.0867
25923W        W26787   5.671   4.271   3.825  0.0707  0.1291 -0.0361
25924W        W26788   6.598   3.362   1.857  0.2591 -0.0027 -0.0182
25925W        W26789   8.276   3.359   0.670 -0.1897 -0.1847 -0.2339
25926W        W26790   6.305   2.109  28.451 -0.1341  0.2183 -0.1137
25927W        W26791   2.720   2.499   3.072 -0.2945  0.3284  0.0484
25928W        W26792   4.389   2.536   3.771 -0.1942 -0.2618  0.1780
25929W        W26793   8.080   3.893   0.920  0.0191 -0.2606  0.1390
25930W        W26794   7.335   2.864   2.136 -0.0504  0.1867  0.1086
25931W        W26795   5.151   3.522   1.895 -0.0270 -0.0523  0.1853
25932W        W26796   8.057  27.441   2.179  0.1123 -0.1675 -0.0670
25933W        W26797   7.072   2.721   1.716  0.0658  0.1119 -0.0143
25934W        W26798   6.563   1.812  28.910  0.4621  0.1150  0.1979
25935W        W26799   6.936   3.181   2.206 -0.1978 -0.1183 -0.2907
25936W        W26800   4.704  28.027   3.660 -0.1178 -0.0344 -0.5433
25937W        W26801   7.451   2.045   2.216  0.0923  0.2194  0.1869
25938W        W26802   6.304   3.233   3.316  0.0982  0.0031  0.2733
25939W        W26803   6.691   2.734  28.071  0.0296 -0.0957 -0.2615
25940W        W26804   2.687   4.205   0.621  0.0601  0.1614 -0.1613
25941W        W26805   6.282   1.494   0.935  0.0628  0.0249  0.4041
25942W        W26806   3.146  27.174   3.306  0.0198  0.2024 -0.5021
25943W        W26807   1.541   6.386  27.207 -0.2207  0.0431 -0.3026
25944W        W26808   4.796   3.586  26.827  0.0098 -0.0956  0.4845
25945W        W26809   5.236   1.853   2.614 -0.1553 -0.2082  0.0726
25946W        W26810   9.651  28.483   0.508 -0.0610  0.1107 -0.0516
25947W        W26811   7.856   2.495   5.281 -0.1057  0.1530 -0.0113
25948W        W26812   6.748   1.903   2.048  0.2066 -0.0886 -0.0216
25949W        W26813   5.521   3.234   1.746 -0.1362  0.0586 -0.2292
25950W        W26814   4.236  27.260   1.912 -0.0229  0.1159  0.0759
25951W        W26815   8.048   2.608   2.739 -0.1719  0.0697 -0.0262
25952W        W26816   5.414   2.548   0.452 -0.0231  0.2036  0.0579
25953W        W26817   4.643   5.435   0.517  0.3208  0.1041 -0.0136
25954W        W26818   6.849   2.585   0.042 -0.0241 -0.0348 -0.1698
25955W        W26819   5.260   1.437   0.649 -0.2544  0.2220  0.1082
25956W        W26820   6.941  28.683   2.479  0.1282  0.5127  0.2018
25957W        W26821   4.996   3.363   1.044  0.1027 -0.3326 -0.2351
25958W        W26822   5.262   5.543  28.993 -0.2186 -0.3086  0.1128
25959W        W26823   4.883   2.213   2.340  0.0690 -0.1520  0.0112
25960W        W26824   8.379   1.853   1.675 -0.2249 -0.2487  0.2356
25961W        W26825   7.881  28.867   3.179  0.0354 -0.1983  0.0297
25962W        W26826   5.477  28.949   4.140  0.1943 -0.0553  0.0627
25963W        W26827   7.337  28.320   2.507 -0.3253 -0.3925  0.1635
25964W        W26828   6.365   1.389   2.643  0.2086 -0.0269  0.0549
25965W        W26829   4.215  26.455   1.974  0.4814  0.0696  0.1095
25966W        W26830   7.211   1.160   1.877  0.0828 -0.0236 -0.0704
25967W        W26831   5.031  28.736   1.950  0.0499  0.0589 -0.0404
25968W        W26832   5.502   3.660  29.018 -0.0322  0.0690 -0.4801
25969W        W26833   4.864   2.111   3.777  0.2972 -0.1864  0.0758
25970W        W26834   4.845   2.334   1.681  0.0547 -0.0768  0.1986
25971W        W26835   6.697   3.536   3.298 -0.5486  0.2259 -0.3094
25972W        W26836   6.205   1.467   2.192  0.0713  0.0360  0.1871
25973W        W26837   5.053   1.215   2.633 -0.0107  0.1630 -0.0282
25974W        W26838   4.947   1.252   1.501  0.0511 -0.5242 -0.4456
25975W        W26839   5.807   1.980   3.629 -0.0931  0.0649 -0.1299
25976W        W26840   6.595   0.199   0.570  0.2477 -0.1336  0.1292
25977W        W26841   4.134   1.498   1.859 -0.1564  0.1186 -0.1010
25978W        W26842   5.270   1.890   3.498  0.2340 -0.2975  0.2601
25979W        W26843   3.722   5.248   1.080  0.0350 -0.0851  0.1563
25980W        W26844   1.746  28.989   3.903 -0.2271  0.0416  0.1914
25981W        W26845   5.370  28.880  28.362  0.0471  0.0431  0.1488
25982W        W26846   5.261   2.303  27.927  0.1040  0.0045  0.1455
25983W        W26847   6.039   3.463  26.852 -0.1019  0.1024  0.1981
25984W        W26848   6.521   4.369   2.048 -0.1144  0.1023  0.0186
25985W        W26849   4.839   0.860   1.196  0.2436  0.0781 -0.0715
25986W        W26850   4.378   3.069   3.719 -0.2445 -0.2551  0.1015
25987W        W26851   6.659   1.120   1.215 -0.0695 -0.1592  0.1639
25988W        W26852   5.407   0.874   0.604  0.0300  0.4282 -0.0799
25989W        W26853   3.779   4.735   1.536 -0.0642  0.1134  0.1438
25990W        W26854   6.044   3.917   1.257  0.2495  0.2323 -0.0570
25991W        W26855   5.192   1.895  26.474 -0.0719 -0.0660 -0.2673
25992W        W26856   2.541   2.338  28.833 -0.1387  0.5415 -0.2325
25993W        W26857   4.737   2.505   0.958  0.0092  0.1401 -0.3213
25994W        W26858   7.039  28.832   3.833  0.0296 -0.1092 -0.0445
25995W        W26859   5.783   0.869   2.948 -0.1907  0.1812 -0.2060
25996W        W26860   5.161   2.340   2.849 -0.1142 -0.1840 -0.0169
25997W        W26861   6.437   1.047   2.959  0.2103 -0.1833  0.0728
25998W        W26862   3.637  27.657   1.225 -0.0446  0.0521 -0.0035
25999W        W26863   6.590   1.424   3.690 -0.1756 -0.0546  0.3135
26000W        W26864   6.755   0.235   2.486 -0.1098  0.3048 -0.0497
26001W        W26865   1.686   3.400   1.796 -0.3286 -0.0911  0.1032
26002W        W26866   5.880   0.836   0.439  0.0692  0.1738 -0.2215
26003W        W26867   6.489   2.841   1.884  0.0334 -0.1671 -0.2453
26004W        W26868   7.654  28.366   1.607 -0.0351  0.0536 -0.1760
26005W        W26869   4.546   1.796   2.002 -0.0065  0.0956  0.0038
26006W        W26870   4.899   0.473   2.863  0.0372  0.0816 -0.0050
26007W        W26871   6.294   0.878   3.823 -0.1138  0.0882  0.0306
26008W        W26872   6.302   0.484   4.209 -0.0977 -0.2571  0.0656
26009W        W26873   6.882   1.432  28.724  0.1088  0.1855 -0.0611
26010W        W26874   3.791   2.746  28.311  0.0040  0.2230  0.0210
26011W        W26875   2.945   2.868   2.801 -0.0777  0.2285 -0.0256
26012W        W26876   2.941   1.939   3.769  0.0694  0.1709  0.0412
26013W        W26877   5.539   0.724   3.502 -0.1750  0.2982  0.1196
26014W        W26878   4.404   0.420   3.010 -0.2127  0.1866  0.1313
26015W        W26879   7.984   0.967   3.008 -0.0277  0.0043 -0.1824
26016W        W26880   8.200   0.964   0.407 -0.0323 -0.1384  0.2311
26017W        W26881   4.501   1.187   1.706 -0.0604  0.0191 -0.0086
26018W        W26882   3.746   1.868  28.129  0.1497 -0.0018  0.1684
26019W        W26883   3.765  28.488   4.875  0.0714  0.1617  0.1414
26020W        W26884   5.387   4.519   2.903 -0.0860 -0.1843 -0.0740
26021W        W26885   7.147  28.075   4.805 -0.1411 -0.1166 -0.1615
26022W        W26886   5.605   2.198   0.040  0.1547  0.3610 -0.1152
26023W        W26887   3.996   1.102   6.481 -0.2960 -0.0117 -0.0393
26024W        W26888   6.255  28.965   1.135 -0.0997 -0.2996 -0.1885
26025W        W26889   6.520   2.341   1.197 -0.1907  0.3109  0.0060
26026W        W26890   4.937  28.497   3.927  0.0644 -0.1120  0.1968
26027W        W26891   7.800   1.417   2.678  0.2733  0.0533  0.1996
26028W        W26892   7.240   1.676   4.419 -0.1191  0.0393 -0.3020
26029W        W26893   2.649   4.801   1.304 -0.2299 -0.0657 -0.0624
26030W        W26894   6.513   1.557   3.138  0.0669 -0.0992 -0.1533
26031W        W26895   6.356  28.128   4.012 -0.0284  0.1859  0.0254
26032W        W26896   1.684   2.222   3.829 -0.1221 -0.0045 -0.2623
26033W        W26897   1.888   1.297   3.194 -0.1370 -0.0350 -0.0799
26034W        W26898   6.064   1.282   3.231 -0.1726  0.0207 -0.1048
26035W        W26899   4.177   2.885   4.185 -0.1453  0.2599  0.5705
26036W        W26900   5.056   3.945  28.146  0.1593  0.2069 -0.0828
26037W        W26901   6.852   1.848  28.419  0.1083 -0.2489  0.4162
26038W        W26902   3.859   0.342   4.506  0.1296 -0.1008 -0.0260
26039W        W26903   6.106   0.982   4.262 -0.0194 -0.0873  0.2797
26040W        W26904   8.852   2.688   0.139  0.1256 -0.0638  0.0133
26041W        W26905   5.413   2.219  28.747  0.0715 -0.0118  0.0687
26042W        W26906   4.347   2.137   2.452 -0.1239 -0.1830  0.1884
26043W        W26907   5.708   1.049   1.326  0.0760  0.3719  0.0930
26044W        W26908   4.842   1.025   0.758  0.0900  0.1475 -0.0674
26045W        W26909   5.858   1.775   2.392 -0.0467  0.0471  0.0072
26046W        W26910   4.446   2.880  29.098  0.0746 -0.2731  0.4774
26047W        W26911   7.030   2.081   1.209 -0.0523 -0.0774 -0.1605
26048W        W26912   3.884   3.489   2.724  0.1359 -0.1079 -0.1783
26049W        W26913   7.600   3.321   0.171 -0.1151  0.1879 -0.0269
26050W        W26914   3.000  28.982   1.248  0.0560  0.1955  0.0739
26051W        W26915   2.413   1.915   0.153  0.1601  0.1896  0.1567
26052W        W26916   3.367   0.536   3.865 -0.3173  0.1416  0.0704
26053W        W26917   5.599   1.238   4.242  0.0855  0.2721  0.0503
26054W        W26918   7.259   1.541   3.022 -0.1105  0.0459 -0.1205
26055W        W26919   4.170   3.881   0.761 -0.3157 -0.0813 -0.2725
26056W        W26920   6.772   2.303  28.333 -0.3468 -0.2214  0.2683
26057W        W26921   8.143   2.764   1.836 -0.0289  0.1994  0.1001
26058W        W26922   3.364  28.217   3.972  0.0094 -0.3817  0.3522
26059W        W26923   7.194   0.556  29.117 -0.1437  0.0861  0.0241
26060W        W26924   7.257   3.200   1.699 -0.3729  0.2582 -0.1880
26061W        W26925   7.034   0.347   2.061  0.2732 -0.1897 -0.4353
26062W        W26926   5.805   0.296   2.720 -0.1091  0.1950 -0.0006
26063W        W26927   6.363  29.076   5.199  0.2124 -0.1619  0.3362
26064W        W26928   4.413  28.232   1.324 -0.0152  0.1098  0.0221
26065W        W26929   2.541   2.744   2.570 -0.1582  0.0652  0.0753
26066W        W26930   4.639   6.919   4.410 -0.0646 -0.0990 -0.1412
26067W        W26931   2.024   4.184   1.094  0.2599  0.3635 -0.0920
26068W        W26932   9.107   3.427  28.722 -0.0225 -0.2009  0.3461
26069W        W26933   2.156   0.922   2.381 -0.1872  0.0020 -0.1445
26070W        W26934   9.693   2.065  27.995  0.0765 -0.1411  0.1409
26071W        W26935   4.957   2.819   0.142  0.0600  0.3267  0.0373
26072W        W26936   7.548   2.783   1.514 -0.0021 -0.0518  0.2548
26073W        W26937   6.698   3.125   3.652 -0.2889  0.0039 -0.0713
26074W        W26938   6.145   0.176   0.806 -0.1514 -0.1593  0.1755
26075W        W26939   4.406   1.681   2.481  0.0042  0.1420 -0.2870
26076W        W26940   4.681  27.997   4.227  0.1825 -0.1174 -0.1289
26077W        W26941   5.084   1.398   3.411  0.0030  0.0297 -0.2033
26078W        W26942   3.153   0.699   3.179  0.3196  0.2521 -0.0334
26079W        W26943   3.743   0.838  29.085 -0.0014 -0.1277  0.0315
26080W        W26944   4.639   3.048   0.800  0.1180 -0.1633  0.0284
26081W        W26945   5.478   2.673   2.971 -0.4338 -0.1921 -0.1328
26082W        W26946   6.626   4.641   1.513  0.0342  0.1671 -0.2475
26083W        W26947   3.022   2.190   2.403 -0.1767 -0.1455 -0.1026
26084W        W26948   3.855   1.979   2.790  0.0377 -0.1620  0.0266
26085W        W26949   7.003   1.936   2.521 -0.1458 -0.1267 -0.0302
26086W        W26950   5.979  27.982   5.528  0.2265 -0.2089 -0.3111
26087W        W26951   7.576   3.721  28.399 -0.2190  0.2091 -0.1640
26088W        W26952   2.819  27.256   3.785 -0.1557 -0.3081 -0.0215
26089W        W26953   6.024   0.541   2.268  0.0656 -0.0063 -0.2311
26090W        W26954   6.657   5.198   2.362 -0.0107 -0.0586  0.2374
26091W        W26955   3.386   3.763   0.608 -0.1163  0.0222 -0.0103
26092W        W26956   6.689   3.606   2.389  0.2779  0.2307  0.1073
26093W        W26957   7.480   1.029   2.902  0.1517  0.0407  0.0331
26094W        W26958   2.410  28.362   3.839  0.2030  0.3480  0.3049
26095W        W26959   4.699   3.056  28.151 -0.1356  0.2015  0.2051
26096W        W26960   6.919   1.866   0.367  0.2490 -0.0421 -0.0987
26097W        W26961   4.768  27.559   4.108 -0.1817 -0.0833 -0.0208
26098W        W26962   5.992   3.459   2.549  0.1875 -0.2000 -0.2326
26099W        W26963   6.350  27.904   3.288 -0.2672  0.1466 -0.2867
26100W        W26964   3.300   2.626   2.365 -0.1497  0.0817 -0.0402
26101W        W26965   5.951   4.024   0.798 -0.0734  0.1592  0.2438
26102W        W26966   5.103  28.955   5.044  0.0091  0.3247 -0.0979
26103W        W26967   4.066   3.906   3.589 -0.2176 -0.0150 -0.1547
26104W        W26968   8.389   1.148  26.782  0.3172  0.2390  0.1227
26105W        W26969   6.738   2.145  26.788 -0.1169  0.2736 -0.2339
26106W        W26970   8.604   4.895   2.915  0.0881 -0.3480 -0.0338
26107W        W26971   7.846   3.412   3.853 -0.0018  0.2835 -0.2600
26108W        W26972   5.790  27.064   0.491 -0.2127  0.2275  0.2219
26109W        W26973   8.243   4.374   2.526 -0.0811  0.0256  0.1662
26110W        W26974   5.568   2.703   2.447  0.0175  0.0545  0.0343
26111W        W26975   6.550   2.766   2.367 -0.1453  0.2551  0.0560
26112W        W26976   4.229   0.241   5.787  0.1645  0.0933 -0.0212
26113W        W26977   6.780   3.065   3.170  0.1136  0.3626 -0.0173
26114W        W26978   7.218   4.331   4.868 -0.1364  0.0860 -0.0991
26115W        W26979   2.249   3.260   1.979 -0.2551 -0.0696 -0.1636
26116W        W26980   4.311  28.606   3.282  0.1598 -0.1616  0.1947
26117W        W26981   2.771   2.554   2.051 -0.2401  0.0033 -0.0731
26118W        W26982   5.303   0.920   1.624  0.1660  0.1788 -0.0824
26119W        W26983   8.050   1.690   5.694 -0.1579  0.1140  0.1016
26120W        W26984   3.992   1.753   1.322  0.1659 -0.2907  0.1513
26121W        W26985   5.424   2.997   3.341 -0.0125 -0.0919 -0.1635
26122W        W26986  10.138   3.579  28.996  0.2347  0.0495 -0.2698
26123W        W26987   1.980   2.266   3.380 -0.0529  0.1192  0.2110
26124W        W26988   7.247   3.513   0.447 -0.0324  0.2256  0.1988
26125W        W26989   4.341   2.102  28.618  0.2753 -0.0988  0.1972
26126W        W26990   6.320   4.289   0.969 -0.2320 -0.0794 -0.0650
26127W        W26991   5.434  27.355   0.783 -0.0817 -0.1779  0.0668
26128W        W26992   1.980   1.288   0.576  0.1762 -0.0376  0.0432
26129W        W26993   3.963   1.866   0.725  0.1238  0.2185 -0.3367
26130W        W26994   3.809   2.944  25.996 -0.0373  0.0114 -0.3571
26131W        W26995   5.842  27.320   4.710 -0.1757 -0.2564  0.4416
26132W        W26996   8.722   1.401   2.767 -0.3287  0.1053 -0.1915
26133W        W26997   6.262   2.023   3.453 -0.1283  0.0223  0.1074
26134W        W26998   5.341   5.419   2.866  0.2102 -0.0445  0.2088
26135W        W26999   6.451   3.131   5.444 -0.1437  0.0358 -0.2093
26136W        W27000   6.533   4.129   4.167 -0.0646  0.0379 -0.3203
26137W        W27001   4.592   4.778  29.145  0.0917  0.1589 -0.0987
26138W        W27002   8.668  28.356  25.911  0.0077 -0.2113  0.2446
26139W        W27003   4.354  27.025   0.923  0.1140  0.1514  0.0750
26140W        W27004   9.283  28.173  26.828  0.0662  0.1808  0.2981
26141W        W27005   3.344   3.447   1.943  0.2535  0.0694  0.2754
26142W        W27006   6.423   2.486   6.011 -0.2097  0.1293 -0.1773
26143W        W27007   5.456   1.625   2.173 -0.0093  0.0138 -0.0427
26144W        W27008   4.855   2.586  27.877 -0.2496  0.4689  0.0296
26145W        W27009   8.336   2.312   0.800  0.2269  0.0462  0.0157
26146W        W27010   1.581   2.859   2.230  0.2041  0.1047  0.2914
26147W        W27011   5.512   2.330   1.622  0.1036  0.0672  0.3390
26148W        W27012   3.526   1.207   1.383 -0.0465  0.2423 -0.3278
26149W        W27013   4.705   3.591   0.693  0.1227  0.0005 -0.1101
26150W        W27014   4.634   1.494   0.044 -0.2307 -0.0541 -0.2199
26151W        W27015   7.694   4.618   5.597 -0.6475 -0.2010 -0.0888
26152W        W27016   5.002   0.133   1.123  0.0709 -0.1663 -0.0018
26153W        W27017   7.525   4.133   1.582  0.3198  0.2202  0.3413
26154W        W27018   8.235   1.870   2.192  0.0750 -0.0554 -0.2732
26155W        W27019   6.082   1.087   1.805 -0.1764  0.2232  0.6793
26156W        W27020   5.644   1.137   2.015  0.0944  0.0330 -0.1225
26157W        W27021   0.889   3.327   3.040 -0.0318 -0.5205  0.1665
26158W        W27022   5.026   0.414   3.864 -0.0054 -0.0643  0.2420
26159W        W27023   1.708   1.272   3.658 -0.0591 -0.2023 -0.0118
26160W        W27024   3.691   3.123   1.719  0.2527 -0.1392  0.3399
26161W        W27025   4.270   1.712   0.325 -0.1789  0.1406  0.0594
26162W        W27026   6.956   2.374   2.115 -0.0989 -0.0427  0.4584
26163W        W27027   4.761   3.823   2.658 -0.2130  0.0211  0.0372
26164W        W27028   4.472   0.006   1.078  0.4722 -0.0826  0.5318
26165W        W27029   4.589   4.753   0.549  0.0434 -0.3166  0.1385
26166W        W27030   4.137   2.615   2.394 -0.1077 -0.2089  0.0977
26167W        W27031   6.964   4.655   0.850 -0.0726  0.0927 -0.2067
26168W        W27032   6.253   3.187   0.368  0.3685 -0.1328  0.4030
26169W        W27033   5.571   2.695   0.021 -0.2592 -0.2945 -0.1544
26170W        W27034   8.344   0.568   2.866  0.0498  0.1874 -0.1808
26171W        W27035   4.712   3.733   1.687  0.0402 -0.2306  0.0423
26172W        W27036   7.018   0.845  28.687  0.0682 -0.1525  0.4521
26173W        W27037   8.548   2.839   1.475  0.0728  0.2436  0.1570
26174W        W27038   6.929   1.798   3.305  0.2281  0.0729  0.0387
26175W        W27039   7.744   3.310   0.861  0.0299  0.0814 -0.0346
26176W        W27040   5.190   2.783   1.076  0.1415 -0.3117  0.0151
26177W        W27041   4.205   4.215   1.147 -0.2798  0.1124 -0.0742
26178W        W27042   6.027   3.490   5.190 -0.2311 -0.1392  0.1887
26179W        W27043   6.345  28.895   3.430 -0.4515 -0.0092  0.0326
26180W        W27044   5.782   1.781   3.151 -0.1783  0.0135  0.0484
26181W        W27045   5.979   2.592   2.724 -0.1347  0.1926  0.2019
26182W        W27046   3.561   3.963   1.982  0.0869  0.0119  0.0785
26183W        W27047   3.446   0.288   3.050 -0.2026 -0.1345  0.4227
26184W        W27048   5.236   2.543   2.009 -0.0329  0.1875  0.2338
26185W        W27049   7.016   4.336   3.933 -0.1218  0.0323 -0.2491
26186W        W27050   6.798   1.008   5.726  0.0593 -0.1121 -0.1418
26187W        W27051   5.747   5.813  28.895 -0.1089 -0.2093  0.0441
26188W        W27052   4.070   2.693   1.679  0.0718 -0.0621 -0.0122
26189W        W27053   5.674   0.696   1.902  0.0474  0.0650 -0.3166
26190W        W27054   6.829   3.657   2.847  0.2248  0.2268 -0.2793
26191W        W27055   2.495   2.439   4.158  0.0002  0.2618  0.0934
26192W        W27056   2.225   3.110   3.578  0.0432 -0.1274 -0.0874
26193W        W27057   6.698   2.827   0.826  0.2305 -0.0950  0.0381
26194W        W27058   6.988   4.525   2.991 -0.2033  0.4000 -0.0677
26195W        W27059   6.823   4.305   1.211 -0.0006 -0.0802 -0.0492
26196W        W27060   5.467  28.090   4.690 -0.0645  0.1541 -0.0998
26197W        W27061   5.991   3.616   2.075  0.0196 -0.0852  0.1019
26198W        W27062   6.311   3.860   2.495 -0.1056  0.0244 -0.1052
26199W        W27063   4.974   6.309   1.176 -0.1202  0.0256  0.1020
26200W        W27064   3.382   2.901  29.143 -0.0003 -0.0189  0.1098
26201W        W27065   3.355  27.699   4.637 -0.0766  0.1376  0.1531
26202W        W27066   4.548   3.539   4.733 -0.0715 -0.1582  0.1448
26203W        W27067   6.851   3.991   4.892 -0.1044  0.0744  0.0952
26204W        W27068   4.528   2.426   7.331 -0.1604 -0.3219  0.1286
26205W        W27069   4.831   2.638   5.619 -0.1749  0.2504 -0.0261
26206W        W27070   5.407  28.429   4.167  0.3796 -0.4354  0.0823
26207W        W27071   4.135   1.576   4.135  0.0993  0.1223 -0.1183
26208W        W27072   5.100   0.489   5.304  0.2733  0.1620  0.0750
26209W        W27073   2.900   4.219   6.480 -0.0482 -0.1743 -0.0619
26210W        W27074   3.410   1.763   6.962 -0.0119 -0.0088 -0.0786
26211W        W27075   7.061   1.697   6.913  0.0490  0.0283  0.0358
26212W        W27076   6.364   1.955   6.723 -0.0215 -0.1270  0.2647
26213W        W27077   6.506   0.465   2.056  0.2456 -0.1854 -0.3730
26214W        W27078   4.468  28.410   8.676  0.1665  0.3392  0.2342
26215W        W27079   6.188  27.790   6.801  0.2871  0.2482  0.0865
26216W        W27080   1.099   2.304   5.832  0.1476 -0.0793  0.0715
26217W        W27081   6.422   3.015   4.201 -0.0795  0.1145  0.0783
26218W        W27082   4.553   1.432   5.108 -0.1063  0.0971  0.1529
26219W        W27083   3.073   1.060   8.495  0.0057 -0.1219  0.0479
26220W        W27084   7.082   0.804   3.590  0.3075 -0.0184 -0.0020
26221W        W27085   8.620   0.344   6.916 -0.1820  0.1178 -0.0160
26222W        W27086   5.812   1.588   5.465 -0.1680 -0.1234 -0.1556
26223W        W27087   4.840   5.282   4.539 -0.0612 -0.1045 -0.1272
26224W        W27088   5.319   1.234   5.636 -0.0128 -0.3270 -0.0405
26225W        W27089   4.811   2.258   5.176 -0.0577 -0.1372 -0.0427
26226W        W27090   3.457   1.909   3.561  0.1122  0.3383  0.0464
26227W        W27091   9.227  28.905   6.771  0.1034 -0.0211 -0.0727
26228W        W27092   4.290   3.550   5.590 -0.1194  0.2115  0.0512
26229W        W27093   5.846   5.100   6.686 -0.3211 -0.2096  0.2828
26230W        W27094   6.078   0.450   5.679  0.0747 -0.1805  0.2097
26231W        W27095   4.416   2.908   6.907  0.0468 -0.1909  0.1314
26232W        W27096   5.348   2.056   7.374 -0.2624 -0.0975  0.1499
26233W        W27097   3.793   1.477   7.863  0.5168 -0.0161 -0.2198
26234W        W27098   6.845   0.914  10.031  0.1441  0.0279 -0.0734
26235W        W27099   2.700   2.692   6.909  0.2695 -0.3794  0.1737
26236W        W27100   5.728   2.106   6.504 -0.1861 -0.1046  0.0529
26237W        W27101   7.108   1.825   5.907  0.0142 -0.2437  0.1187
26238W        W27102   5.667   3.335   8.294  0.0791  0.1181  0.0220
26239W        W27103   7.850   2.992   6.928  0.2007  0.2535  0.0335
26240W        W27104   5.229  27.581   5.338 -0.0853 -0.1612 -0.2140
26241W        W27105   5.531   2.231   3.278 -0.1034  0.0456  0.0064
26242W        W27106   6.014   3.233   6.106  0.2471 -0.2261 -0.1821
26243W        W27107   4.487   3.639   7.447  0.2138  0.1440  0.1354
26244W        W27108   7.300   2.791   5.361 -0.2975 -0.0479  0.2487
26245W        W27109   5.534   1.506   3.789  0.1245 -0.4457  0.0812
26246W        W27110   5.584   5.610   4.293  0.0108  0.1120  0.1657
26247W        W27111   6.728   0.430   5.056 -0.5739  0.2317  0.1341
26248W        W27112   9.597   1.952   7.273  0.0841 -0.0387  0.0195
26249W        W27113   6.336   0.158   6.052 -0.1071 -0.1541 -0.2754
26250W        W27114   8.096  28.261   6.558  0.1367 -0.1711 -0.1814
26251W        W27115   2.088   1.972   8.419 -0.2874  0.0290 -0.0763
26252W        W27116   4.708   1.090   5.446  0.0640  0.3288  0.1470
26253W        W27117   5.845   3.658   8.736  0.0720 -0.1810  0.1324
26254W        W27118   7.543   2.560   4.350  0.1606 -0.0844  0.1204
26255W        W27119   4.232  28.641   4.752  0.0199  0.0034 -0.0575
26256W        W27120   4.261   3.652   3.966  0.2700  0.2238 -0.0322
26257W        W27121   2.362  27.342   3.739 -0.2227 -0.0771  0.2624
26258W        W27122   5.449   0.749   4.010 -0.0612  0.1348  0.2296
26259W        W27123   1.302   2.390   4.686 -0.0799  0.0465  0.0152
26260W        W27124   5.010  28.866   3.115  0.0055  0.0303 -0.1215
26261W        W27125   8.001   1.970   4.500 -0.0547  0.1503 -0.1435
26262W        W27126   2.921   0.920   3.609 -0.0551  0.1726 -0.3014
26263W        W27127   4.253   3.577   6.104 -0.2947 -0.0392 -0.1279
26264W        W27128   3.868  28.554   3.771  0.2961 -0.0818  0.0413
26265W        W27129   4.931   1.364   6.343 -0.0034 -0.3817  0.0520
26266W        W27130   6.609   0.416   7.828 -0.3622 -0.0749 -0.0280
26267W        W27131   3.347   3.101   2.342 -0.1488 -0.0491  0.0990
26268W        W27132   3.855   2.493   3.677  0.0096  0.2016 -0.0883
26269W        W27133   2.067   1.611   5.185  0.3173  0.1300  0.0952
26270W        W27134   4.208   4.349   5.254  0.2034 -0.0183  0.0966
26271W        W27135   6.810   0.961   6.301  0.1025  0.1055 -0.2510
26272W        W27136   6.187   2.268   4.317  0.5376  0.2756  0.4541
26273W        W27137   5.242   1.898   6.554 -0.1135  0.3369 -0.1613
26274W        W27138   5.671   2.449   8.830  0.1468  0.2157 -0.2358
26275W        W27139   5.553   4.184   6.149 -0.1809  0.1673  0.2209
26276W        W27140   4.632   0.938   7.606 -0.3517 -0.3410 -0.0506
26277W        W27141   3.249   2.081   5.728  0.0116  0.1843  0.0708
26278W        W27142   4.723   1.413   4.015 -0.2148 -0.4777  0.1025
26279W        W27143   6.009   2.833   3.207 -0.1049  0.2538 -0.0883
26280W        W27144   5.868   2.571   5.309 -0.1683  0.2216 -0.0202
26281W        W27145   2.149   0.643   7.459  0.1777 -0.1602  0.2355
26282W        W27146   3.265   1.655   6.095  0.1170  0.1496  0.0996
26283W        W27147   4.409   2.401   4.961 -0.1561  0.2029 -0.2059
26284W        W27148   6.234   0.720   7.609 -0.6267 -0.0306 -0.0238
26285W        W27149   6.278   0.742   8.075  0.2382 -0.1829  0.2129
26286W        W27150   4.343  27.746   4.979  0.1939  0.0822  0.1472
26287W        W27151   5.898   3.503   7.346 -0.0895  0.0184 -0.3126
26288W        W27152   5.746  28.208   5.917  0.0365 -0.1260 -0.0409
26289W        W27153   8.733   4.887   7.007  0.1523  0.2494 -0.0672
26290W        W27154   7.336   0.290   5.104  0.3063  0.0357  0.0292
26291W        W27155   4.109  29.089   4.860  0.0623  0.0267  0.1596
26292W        W27156   7.704   1.005   8.627 -0.0312  0.1636 -0.4300
26293W        W27157   3.817   4.556   4.598 -0.0930 -0.2857 -0.0796
26294W        W27158   3.729   2.808   2.123 -0.1907 -0.2152  0.0408
26295W        W27159   5.502  28.266   8.244  0.0373  0.0029  0.1870
26296W        W27160   7.439   0.148   6.290 -0.0603  0.0308 -0.3648
26297W        W27161   6.669   1.304   5.259  0.2431 -0.2715  0.0003
26298W        W27162   3.497   3.845   8.378  0.2377 -0.0236  0.3141
26299W        W27163   4.774   0.208   4.360  0.0911  0.2377 -0.1386
26300W        W27164   7.149  28.582   6.007 -0.2863  0.0560 -0.0361
26301W        W27165   5.329   3.270   4.132  0.0550 -0.1642 -0.1467
26302W        W27166   3.894   0.853   5.788 -0.2167 -0.1006 -0.3356
26303W        W27167   8.189  28.510   4.220 -0.0821 -0.1395  0.2019
26304W        W27168   2.241   1.003   5.970  0.0160  0.1354 -0.6235
26305W        W27169   5.468   1.732   8.175  0.2871 -0.0337 -0.0646
26306W        W27170   4.239   3.365   7.061  0.1038  0.1014  0.1355
26307W        W27171   5.550  27.911   5.195  0.2390  0.0167 -0.1339
26308W        W27172   3.941   3.133   8.048  0.0476 -0.1057  0.1704
26309W        W27173   4.683  27.118   4.357 -0.0745  0.0357  0.1846
26310W        W27174   5.556   1.378   5.095  0.4006  0.0493 -0.1665
26311W        W27175   4.700   3.704   8.299  0.3259  0.4001 -0.1401
26312W        W27176   5.571   2.242   5.574  0.1518 -0.0437  0.0171
26313W        W27177   6.944   1.084   8.620  0.1274 -0.0688  0.2016
26314W        W27178   3.551   3.483   7.479 -0.0694 -0.1092 -0.0413
26315W        W27179   5.946   3.699   2.981  0.2568  0.0441 -0.2595
26316W        W27180   4.317  28.929   3.705 -0.2292  0.2381 -0.2905
26317W        W27181   7.662   1.798   7.237 -0.1707  0.3111  0.2338
26318W        W27182   4.399   2.052   6.000  0.1521 -0.2643  0.1325
26319W        W27183   6.573   0.283   5.548 -0.3146  0.1199 -0.3231
26320W        W27184   5.649  28.817   2.814  0.0850 -0.0533 -0.2423
26321W        W27185   5.707   5.080   2.735  0.1512 -0.1449  0.1438
26322W        W27186   5.177   1.171   3.991  0.3658 -0.1945 -0.2352
26323W        W27187   5.089   2.615   4.743 -0.4109  0.2711 -0.3977
26324W        W27188   6.450   3.853   1.995 -0.0224 -0.0324 -0.1688
26325W        W27189   4.767   3.623   5.408 -0.1040  0.1888 -0.1223
26326W        W27190   8.387   1.355   5.503  0.0851  0.0428  0.0661
26327W        W27191   2.975   2.288   5.326  0.0085  0.0328 -0.4359
26328W        W27192   7.670   0.889   6.068 -0.1606  0.2445 -0.1916
26329W        W27193   8.823   0.734   6.054  0.1288 -0.5352  0.0403
26330W        W27194   7.094   4.132   7.764 -0.1683 -0.0353 -0.2567
26331W        W27195   5.893   4.644   6.986 -0.0457  0.0235  0.0254
26332W        W27196   6.409   2.932   6.778  0.1296 -0.0689  0.0425
26333W        W27197   5.762   2.127   4.532 -0.0394  0.2933 -0.0355
26334W        W27198   5.538  27.747   6.106  0.0694 -0.2117  0.0205
26335W        W27199   7.387   1.857   9.501 -0.2660 -0.2892  0.2323
26336W        W27200   5.731  29.109   7.231  0.1003 -0.1383  0.0178
26337W        W27201   6.822  28.617   5.582 -0.2806  0.2568 -0.0087
26338W        W27202   3.759   4.300   3.629  0.0612  0.1657  0.2997
26339W        W27203   2.973   1.045   5.947 -0.5477  0.1859  0.0310
26340W        W27204   5.270   2.107   4.633  0.0680 -0.0502  0.2721
26341W        W27205   3.723  29.101   3.977 -0.1308  0.0982  0.0622
26342W        W27206   3.931   3.417   3.676  0.0642 -0.2060 -0.0819
26343W        W27207   5.289   4.042   2.719  0.0332  0.4003  0.3711
26344W        W27208   2.746   1.427   6.241  0.0555  0.2451 -0.2934
26345W        W27209   4.363   0.720   5.908  0.1554 -0.0204 -0.0269
26346W        W27210   6.650   2.429   6.827  0.2425  0.0290 -0.0793
26347W        W27211   4.913   3.540   4.404  0.1366 -0.2633  0.2306
26348W        W27212   5.570   2.753   5.643 -0.1203 -0.1338 -0.0651
26349W        W27213   4.011   2.312   7.412 -0.3701  0.1615  0.1642
26350W        W27214   3.978   2.441   5.293  0.2458 -0.1485  0.2186
26351W        W27215   4.357   0.392   6.291  0.0856  0.0845 -0.0329
26352W        W27216   5.374   4.727   4.581 -0.0842  0.0546  0.2008
26353W        W27217   5.736   0.703   4.424 -0.1192  0.2012  0.2402
26354W        W27218   3.841  28.737   2.881  0.3257 -0.3602  0.1019
26355W        W27219   5.417   0.312   4.214  0.3357 -0.0955 -0.1758
26356W        W27220   5.809   2.202   7.051  0.2586 -0.1355 -0.1497
26357W        W27221   3.632   2.460   4.530  0.1665  0.1779  0.0486
26358W        W27222   5.851   1.796   4.126  0.1939  0.0643 -0.1323
26359W        W27223   6.335  27.475   4.685  0.0233 -0.1499 -0.1461
26360W        W27224   5.870   0.229   4.573 -0.0001 -0.0285  0.2707
26361W        W27225   3.945   2.152   6.461 -0.1543 -0.0829  0.2520
26362W        W27226   4.428   1.518   5.639  0.1073 -0.1329  0.0698
26363W        W27227   7.561   2.641   7.315  0.0376 -0.0851  0.1759
26364W        W27228   5.721  28.512   7.822 -0.3180  0.3547  0.1506
26365W        W27229   5.756   2.450   6.003 -0.0004 -0.2051 -0.1055
26366W        W27230   2.852  28.409   6.104 -0.0607 -0.0667 -0.3318
26367W        W27231   3.852   6.012   3.817 -0.1869 -0.3361  0.0062
26368W        W27232   5.335   3.011   6.862 -0.0264 -0.1482 -0.3870
26369W        W27233   1.946  28.899   3.391  0.2374  0.0411 -0.2247
26370W        W27234   5.076   0.826   5.825 -0.1141  0.2239 -0.0193
26371W        W27235   5.593   1.573   6.616  0.2992  0.0366 -0.1634
26372W        W27236   3.257   0.332   6.704  0.0664  0.0998 -0.0854
26373W        W27237   6.240   3.171   4.612  0.1075  0.2979  0.0699
26374W        W27238   3.623  26.718   6.208  0.2050 -0.0935  0.3049
26375W        W27239   7.154   0.848   5.076 -0.1557 -0.0374 -0.3478
26376W        W27240   4.598   2.871   7.415  0.1130  0.1483  0.0670
26377W        W27241   2.863   6.175   6.307 -0.0674 -0.2660  0.2446
26378W        W27242   2.776   1.632   4.755 -0.0229 -0.0477 -0.0580
26379W        W27243   4.935   1.263   6.930 -0.1792  0.1771 -0.0155
26380W        W27244   2.984   4.684   1.643  0.0266  0.2030 -0.0650
26381W        W27245   5.406   1.601   4.615  0.1031  0.0766 -0.0680
26382W        W27246   5.767   2.350   3.997 -0.4879  0.1520 -0.0733
26383W        W27247   4.355   2.053   3.520  0.0533 -0.1479 -0.0818
26384W        W27248   5.640  28.908   6.778  0.2865 -0.3904  0.1697
26385W        W27249   3.248   2.417   8.139  0.0418  0.2756  0.0675
26386W        W27250   6.203  28.047   2.746 -0.2217 -0.2403  0.1884
26387W        W27251   4.425   2.484   1.383 -0.1961 -0.0721 -0.3665
26388W        W27252   4.857   2.255   6.545  0.0560 -0.0666 -0.1799
26389W        W27253   5.515   1.241   2.545 -0.1717 -0.0011 -0.0721
26390W        W27254   3.347   0.855   4.919 -0.2597  0.1208 -0.1225
26391W        W27255   3.015   4.256   4.663  0.1903 -0.1624 -0.2303
26392W        W27256   4.466   2.438   7.809  0.1274 -0.1553  0.0049
26393W        W27257   5.326   1.052   6.154 -0.3453 -0.2939  0.0986
26394W        W27258   5.798   1.076   6.394  0.0482 -0.0736 -0.1143
26395W        W27259   3.469  27.976   5.488 -0.5331  0.0334  0.0064
26396W        W27260   6.159  26.103   5.116  0.0041 -0.3197 -0.2553
26397W        W27261   5.068  27.980   6.179  0.0335  0.0888  0.0450
26398W        W27262   2.468  28.808   4.247  0.0177 -0.1436 -0.0383
26399W        W27263   5.705  26.958   5.369 -0.1574  0.1590  0.0596
26400W        W27264   2.252   2.191   1.358  0.1562  0.3468 -0.0676
26401W        W27265   6.082  26.069   4.495  0.0532  0.0500  0.3372
26402W        W27266   6.661   2.317   4.830 -0.3474 -0.1941  0.2120
26403W        W27267   4.088   1.930   5.548  0.1762 -0.2192  0.3800
26404W        W27268   6.811   1.393   7.599  0.1531  0.1250 -0.1235
26405W        W27269   2.963   1.420   5.596 -0.2516  0.2075 -0.1679
26406W        W27270   5.838   0.407   7.502 -0.0073 -0.0811  0.0935
26407W        W27271   4.740   2.212   8.117 -0.0812 -0.3919 -0.1761
26408W        W27272   6.446   5.560   5.914  0.1502 -0.0548 -0.0802
26409W        W27273   1.678   1.195   2.280 -0.0001  0.0431  0.1967
26410W        W27274   5.063   4.140   5.847  0.0877 -0.0331 -0.1905
26411W        W27275   4.137   2.540   4.539 -0.2918 -0.2020 -0.3386
26412W        W27276   3.617   1.760   5.720 -0.0835 -0.2321 -0.1057
26413W        W27277   5.680  26.879   4.847  0.2774  0.0682 -0.1415
26414W        W27278   7.745   1.623   8.303  0.0012 -0.1617 -0.3988
26415W        W27279   8.396   2.273   7.230  0.0538  0.1880  0.2205
26416W        W27280   4.849   1.103   4.805 -0.2588 -0.0391 -0.1223
26417W        W27281   5.398   0.130   5.411 -0.1975 -0.1602  0.2361
26418W        W27282   6.805   1.121   9.577 -0.0824 -0.2737 -0.3482
26419W        W27283   6.246   2.632   8.738 -0.2014  0.1740  0.3159
26420W        W27284   8.881   0.246   8.847  0.1638 -0.0191 -0.1941
26421W        W27285   6.763  28.211   5.895  0.3813  0.0576  0.0050
26422W        W27286   8.439   3.053   8.489 -0.2978 -0.2319  0.1991
26423W        W27287   6.293   0.322   3.514  0.2969 -0.0545 -0.0868
26424W        W27288   5.867   1.724   4.855 -0.1130  0.0088 -0.0162
26425W        W27289   3.290   1.180   8.080 -0.0400  0.2999 -0.0533
26426W        W27290   5.939   5.308   6.205  0.0446 -0.0662 -0.0208
26427W        W27291   8.683   0.262   5.271  0.2113 -0.3479  0.1359
26428W        W27292   6.074   1.531   3.659  0.2253 -0.1622 -0.3886
26429W        W27293   4.880   0.258   4.915 -0.3513  0.1444  0.2672
26430W        W27294   2.480  28.325   2.816 -0.2126 -0.2739 -0.4117
26431W        W27295   4.629   3.229   6.105 -0.2203 -0.1533  0.2670
26432W        W27296   3.889   2.960   3.672  0.1606  0.0037  0.0679
26433W        W27297   6.488   3.344   5.002 -0.2810 -0.2267  0.2519
26434W        W27298   4.293  27.580   9.960  0.0039 -0.0184 -0.0955
26435W        W27299   3.969   3.252   3.196  0.3597 -0.1927 -0.0234
26436W        W27300   7.481   1.434   6.994  0.0955  0.2024 -0.1460
26437W        W27301   5.039  28.280   4.527  0.0522  0.0009  0.1670
26438W        W27302   7.079  28.203   5.276  0.0760 -0.0213  0.2257
26439W        W27303   6.713  29.099   6.853 -0.1940 -0.0590  0.2115
26440W        W27304   6.306   1.658   5.341  0.3866  0.0123  0.0430
26441W        W27305   2.980   3.673   5.154  0.0555 -0.0715 -0.0287
26442W        W27306   2.582   0.599   8.052  0.0900 -0.3135  0.0327
26443W        W27307   4.555  29.125   6.502 -0.0659  0.1054  0.2144
26444W        W27308   6.184   2.095   6.263 -0.0695  0.0315 -0.1724
26445W        W27309   4.485   1.918   5.017  0.0057  0.2034 -0.2048
26446W        W27310   8.461   1.973   7.852  0.1518  0.1910 -0.3013
26447W        W27311   5.007   2.412   8.509 -0.2438  0.1151 -0.0796
26448W        W27312   6.375   3.365   6.374 -0.2524 -0.0113 -0.2063
26449W        W27313   3.894  28.997   2.035  0.0097 -0.0303  0.1647
26450W        W27314   3.527   4.052   5.931  0.1169 -0.1801 -0.1407
26451W        W27315   3.694   2.941   7.593  0.2260 -0.1516  0.3858
26452W        W27316   8.290   5.628   7.534  0.3114  0.2303 -0.0083
26453W        W27317   5.406   1.767   5.744  0.0348  0.0348 -0.1550
26454W        W27318   4.473   1.161   4.362 -0.0309  0.5828 -0.1355
26455W        W27319   5.575   3.039   5.193 -0.1030 -0.0851 -0.3429
26456W        W27320   6.106   1.608   6.418 -0.2566  0.1019 -0.1828
26457W        W27321   4.796   0.063   6.997 -0.0128 -0.2895  0.1397
26458W        W27322   9.142   0.561   5.155 -0.0464 -0.4079  0.2299
26459W        W27323   5.299   2.322   6.809  0.1659  0.1270  0.2961
26460W        W27324   4.889   2.011   3.195 -0.0358  0.2229 -0.1376
26461W        W27325   4.591   1.976   7.567  0.0944  0.1427  0.0442
26462W        W27326   3.895   1.366   5.670 -0.0854  0.1909  0.2610
26463W        W27327   5.156  28.277   5.011  0.1921  0.0386  0.2465
26464W        W27328   4.574   5.152   4.955 -0.3070  0.0837  0.2217
26465W        W27329   5.479   3.975   5.520  0.0474 -0.1596 -0.1898
26466W        W27330   2.746   1.855   2.131 -0.1756 -0.1638  0.0525
26467W        W27331   6.116   3.706   6.077 -0.1786 -0.3266 -0.2065
26468W        W27332   7.423  28.736   6.395 -0.2878  0.1639  0.0763
26469W        W27333   5.331  27.175   5.095 -0.4548 -0.0377  0.3053
26470W        W27334   5.599   2.610   3.580 -0.1806  0.1143  0.1078
26471W        W27335   7.149   2.228   6.751 -0.0831  0.1128 -0.1182
26472W        W27336   8.204  28.702   6.010 -0.1162 -0.1172 -0.0504
26473W        W27337   3.418   1.260   5.733 -0.1822  0.0186  0.2927
26474W        W27338   8.270   1.629   6.096  0.0577 -0.0968 -0.1882
26475W        W27339   5.826   0.310   6.904 -0.2160  0.1110  0.0767
26476W        W27340   2.505  28.824   6.759  0.0513  0.0928  0.0205
26477W        W27341   2.800  27.935   5.805  0.1034 -0.0235 -0.0715
26478W        W27342   4.578   2.581   2.698 -0.0227  0.0094 -0.0073
26479W        W27343   4.084   3.337   4.741  0.1801 -0.0254 -0.0515
26480W        W27344   4.923   1.517   5.722 -0.0950  0.0846 -0.2730
26481W        W27345   3.463   0.347   6.247 -0.0291 -0.0388  0.1093
26482W        W27346   4.317   2.762   5.463 -0.0489 -0.2939 -0.0297
26483W        W27347   3.636   4.176   3.135  0.0420  0.0570  0.0391
26484W        W27348   6.153   0.448   3.015  0.0063  0.2110 -0.2159
26485W        W27349   5.512   2.367   4.986 -0.0539 -0.0130 -0.0429
26486W        W27350   3.643   0.451   5.760 -0.1565 -0.2322 -0.2586
26487W        W27351   2.907   1.587   8.310  0.1076  0.1932  0.2201
26488W        W27352   3.898  27.882   5.765  0.0320 -0.1089  0.0363
26489W        W27353   6.364   3.565   5.626  0.0065  0.0260  0.4763
26490W        W27354   3.634   2.009   5.280 -0.2069 -0.0693  0.1246
26491W        W27355   4.908  26.135   2.007 -0.1041 -0.3579 -0.1549
26492W        W27356   4.925   0.855   6.416  0.0986  0.0355  0.0357
26493W        W27357   5.595   0.230   4.966  0.2456 -0.2713  0.2397
26494W        W27358   3.984   0.078   3.025  0.0476 -0.2050  0.0955
26495W        W27359   6.549  28.862   4.772 -0.0497 -0.3848  0.0318
26496W        W27360   4.097   0.566   5.447 -0.0969  0.2961  0.0948
26497W        W27361   7.806   3.522   7.974 -0.2980 -0.2500 -0.0713
26498W        W27362   5.844   0.806   5.017 -0.0790  0.3670  0.2444
26499W        W27363   4.088   4.906   6.056 -0.1856 -0.2626  0.0287
26500W        W27364   3.152   2.838   4.178 -0.2146 -0.1106 -0.0826
26501W        W27365   5.703  28.381   9.700 -0.0246  0.1180  0.0603
26502W        W27366   4.515   3.365  10.091  0.1646  0.3286  0.0122
26503W        W27367   9.009   0.093   6.111 -0.1125 -0.0877 -0.0612
26504W        W27368   5.979   2.548   4.834  0.1833 -0.2302  0.0616
26505W        W27369   6.272   3.186   7.305 -0.1831  0.1475 -0.2349
26506W        W27370   9.016   1.211   7.808 -0.2728  0.1109  0.0428
26507W        W27371   4.640  28.645   2.813  0.2382 -0.0987 -0.1648
26508W        W27372   5.775  27.424   5.232 -0.1811 -0.1271  0.1285
26509W        W27373   4.008   1.422   7.062 -0.0677  0.0544 -0.2799
26510W        W27374   1.900  26.790   4.426 -0.0758  0.0522 -0.1466
26511W        W27375   5.795   3.131  10.734 -0.2285  0.0613  0.4655
26512W        W27376   6.796   0.957   2.587  0.0743  0.0239 -0.2527
26513W        W27377   5.904   3.615   6.488  0.0191 -0.1539 -0.0033
26514W        W27378   7.010   4.563   6.348  0.0898 -0.0647 -0.0782
26515W        W27379   6.209   3.411   6.809 -0.1605 -0.0903  0.1309
26516W        W27380   2.477   2.458   5.833 -0.0841  0.0313  0.0162
26517W        W27381   4.663   0.291   1.469 -0.1938  0.1645  0.4031
26518W        W27382   5.864   2.033   5.219 -0.0038  0.0042  0.0845
26519W        W27383   5.005  28.220   7.438  0.1429 -0.1472 -0.1757
26520W        W27384   6.161   4.873   4.158  0.2923  0.0542  0.0396
26521W        W27385   8.418   5.887   5.516 -0.1334 -0.0261 -0.0351
26522W        W27386   6.742   0.937   7.543  0.1446  0.2764  0.0463
26523W        W27387   5.968   1.774   6.922  0.3018  0.3545 -0.3331
26524W        W27388   4.475   1.862   3.967 -0.0450 -0.1539 -0.0475
26525W        W27389   3.746   4.651   6.754  0.0904 -0.0632  0.2309
26526W        W27390   4.846  28.613   4.845  0.2094 -0.1975 -0.1210
26527W        W27391   5.205   4.255   3.656 -0.2044  0.2206 -0.0900
26528W        W27392   4.015   1.506   4.603 -0.3751  0.1474 -0.2920
26529W        W27393   5.054   1.381   5.208 -0.0678  0.0156  0.0336
26530W        W27394   6.799   1.034   8.025  0.1384  0.2483 -0.3678
26531W        W27395   8.171  29.084   4.482 -0.0962 -0.4411  0.3010
26532W        W27396   9.708   3.768   6.960 -0.0738  0.3202  0.2271
26533W        W27397   6.818   3.283  11.663  0.1107  0.1196  0.0934
26534W        W27398   9.258   2.175   7.561  0.1136  0.1708  0.0635
26535W        W27399   6.867   4.239   7.250  0.0279  0.0824 -0.0937
26536W        W27400   2.931   2.608   4.944 -0.2546  0.0096 -0.2737
26537W        W27401   9.390   0.369   8.925  0.2391  0.1989  0.0231
26538W        W27402   7.983   0.581   3.279  0.0084  0.0487  0.0007
26539W        W27403   3.905  28.933   3.462 -0.4742  0.3384  0.0296
26540W        W27404   5.196   2.536   5.289 -0.1437  0.3075  0.2416
26541W        W27405   7.175   2.737   6.470 -0.1718  0.0008 -0.0083
26542W        W27406   4.689   1.112   5.933 -0.1007 -0.0990 -0.5162
26543W        W27407   4.596   1.664   4.498  0.0315 -0.0854 -0.0724
26544W        W27408   5.065   0.874   4.379 -0.0450  0.0253  0.5192
26545W        W27409   5.508   4.616   7.837 -0.1843 -0.1942 -0.0128
26546W        W27410   3.554   4.145   6.749 -0.1085  0.1136 -0.1540
26547W        W27411   2.678  27.209   5.378 -0.0630  0.0052 -0.3393
26548W        W27412   4.217   4.115   4.089 -0.0070 -0.1450 -0.0246
26549W        W27413   3.952   0.375   3.942 -0.1150  0.2773 -0.2746
26550W        W27414   6.041   2.788   6.293 -0.0378  0.0416  0.5317
26551W        W27415   6.179   3.941   3.806 -0.0007 -0.2622 -0.3081
26552W        W27416   7.466   3.307   7.595  0.1012  0.0563 -0.1311
26553W        W27417   5.044   2.178   5.629 -0.0273  0.2089  0.2345
26554W        W27418   2.170   5.063   3.683 -0.1744 -0.2110  0.3384
26555W        W27419   2.448  27.583   2.139 -0.0309  0.0270  0.1761
26556W        W27420   2.637   1.232   4.493  0.3120 -0.0595  0.3240
26557W        W27421   4.416  28.735   7.259  0.1860 -0.0360 -0.0240
26558W        W27422   2.475  28.622  11.812  0.1618 -0.2073 -0.2373
26559W        W27423   3.567   3.025   6.035  0.0185 -0.2558 -0.0645
26560W        W27424   2.924   4.100   3.777  0.2904  0.4185  0.2913
26561W        W27425   4.734  28.454   6.993 -0.1230 -0.2223 -0.0403
26562W        W27426   2.739   2.063   2.828  0.2045 -0.2043  0.0897
26563W        W27427   6.971  28.692   5.030 -0.0342  0.0067 -0.1148
26564W        W27428   8.293   3.807   4.520 -0.1712 -0.0386  0.0615
26565W        W27429   8.778   4.559   8.369  0.0679  0.0149  0.2783
26566W        W27430   5.552   2.890   6.223 -0.2911  0.1677  0.0976
26567W        W27431   5.906   4.684   8.229  0.0258 -0.0684 -0.0564
26568W        W27432   4.706   0.120   3.512  0.5763  0.0530  0.0164
26569W        W27433   4.780  27.351   5.178 -0.2269 -0.1502  0.2002
26570W        W27434   5.266   0.001   4.554 -0.0618 -0.0171  0.0622
26571W        W27435   6.309   1.197   7.849  0.1187 -0.2177 -0.2754
26572W        W27436   4.237  27.012   5.363  0.0816  0.0575  0.1800
26573W        W27437   6.279  28.076   5.991 -0.0001 -0.0927  0.1598
26574W        W27438   5.889   0.528   3.846 -0.4386 -0.0946  0.1994
26575W        W27439   8.563  29.031   7.986  0.1345  0.0252 -0.0811
26576W        W27440   6.263   0.694   4.768 -0.1637 -0.1319 -0.2864
26577W        W27441   6.012   0.762   6.761  0.0036 -0.1904  0.0797
26578W        W27442   4.243  29.052   6.868 -0.1885 -0.1760  0.2582
26579W        W27443   1.902  28.094   8.466 -0.2963  0.1204 -0.1133
26580W        W27444   5.888   1.659   7.841  0.0006  0.3693 -0.1010
26581W        W27445   3.717   2.800   4.051 -0.1641 -0.1324 -0.1855
26582W        W27446   3.345   2.613   6.015  0.4782 -0.0086  0.0380
26583W        W27447   6.460   2.806   4.911  0.1367  0.2872  0.1622
26584W        W27448   3.781   4.722   5.132 -0.0722  0.1704 -0.4838
26585W        W27449   4.249   2.671   9.799  0.3661 -0.1993  0.0456
26586W        W27450   7.671   4.438   3.891  0.0573  0.1198  0.1795
26587W        W27451   4.646   2.495   3.220 -0.3186 -0.0678 -0.3209
26588W        W27452   5.652   0.540   5.420  0.0615  0.0925  0.1168
26589W        W27453   8.069   2.393   6.154  0.0576  0.0649  0.3489
26590W        W27454   5.502   2.621   7.646  0.1490  0.0067  0.0162
26591W        W27455   1.557   1.711   6.487  0.0058  0.1839 -0.1269
26592W        W27456   6.222   2.096   4.930 -0.0815 -0.3010  0.1851
26593W        W27457   6.197   5.158   9.786 -0.3090 -0.2423  0.1061
26594W        W27458   4.156   4.120   4.803 -0.2145  0.0403  0.0921
26595W        W27459   8.194   0.360   6.586 -0.0424  0.1807 -0.1472
26596W        W27460   4.466   3.208   5.145  0.1959 -0.0424  0.0179
26597W        W27461   3.715   1.436   9.297 -0.0113 -0.0052  0.0374
26598W        W27462   3.005   1.539   4.334  0.0487 -0.0127 -0.0686
26599W        W27463   8.303   0.970   3.384 -0.1017  0.1143 -0.0887
26600W        W27464   2.692   3.705   8.448 -0.1446 -0.1970 -0.1339
26601W        W27465   4.746   1.741  11.259 -0.0290 -0.0117 -0.0334
26602W        W27466   6.086   2.273   8.022 -0.0725 -0.2921 -0.0398
26603W        W27467   8.453   4.585   7.700 -0.0098  0.3074  0.0466
26604W        W27468   5.504   3.667   4.993 -0.1050  0.0091 -0.1819
26605W        W27469   3.400   1.693   8.105 -0.3333 -0.1877 -0.2526
26606W        W27470   4.206   1.490   9.390  0.2813  0.2258  0.0889
26607W        W27471   1.733  28.641  11.453 -0.3481 -0.0359 -0.1167
26608W        W27472   5.153   3.565  11.617 -0.0646 -0.0038 -0.0746
26609W        W27473   5.159   0.915  10.912  0.1451 -0.1930 -0.5417
26610W        W27474   6.097  27.719  11.827  0.1707  0.0637  0.2520
26611W        W27475   7.313  28.941   8.475 -0.2343 -0.2401 -0.1085
26612W        W27476   3.635   1.287   8.408 -0.1552 -0.0929  0.1327
26613W        W27477   7.177   3.079  11.068  0.0879  0.0766 -0.0551
26614W        W27478   4.602   0.456  12.268  0.1159 -0.2236 -0.1589
26615W        W27479   5.905   1.529   8.318 -0.2186  0.0008  0.3276
26616W        W27480   4.926   0.511   6.778  0.2936 -0.1910 -0.5472
26617W        W27481   2.138   1.121   7.292  0.0286  0.2747  0.1654
26618W        W27482   5.474  28.998  11.757 -0.2637 -0.4997  0.0351
26619W        W27483   8.766  27.242   9.078 -0.0690  0.0501 -0.1534
26620W        W27484   6.186  28.574   9.241 -0.1250 -0.0530 -0.1705
26621W        W27485   4.858   2.574   8.944  0.0089 -0.0564 -0.3718
26622W        W27486   7.105   2.884  11.830  0.1977 -0.0785  0.0374
26623W        W27487   2.555   1.566  12.147  0.1438  0.0475  0.2248
26624W        W27488   4.580  28.207  11.584 -0.1706  0.1014  0.1759
26625W        W27489   3.282   1.390   9.642 -0.1952  0.0414 -0.1140
26626W        W27490   9.027   1.483  11.360  0.2685 -0.0388 -0.2734
26627W        W27491   5.191   3.451   8.160 -0.0291  0.1692  0.1745
26628W        W27492   3.788   2.624  12.547  0.0047 -0.0881  0.1188
26629W        W27493   4.752   2.836  12.013 -0.1426 -0.0690  0.0011
26630W        W27494   3.772   0.340   8.698  0.0348 -0.2435  0.0925
26631W        W27495   6.329   4.919  10.595 -0.1261 -0.2254 -0.0888
26632W        W27496   7.494  28.203  11.419 -0.0153 -0.3348 -0.0007
26633W        W27497   6.009   2.607  11.840  0.0452  0.2913  0.0809
26634W        W27498   2.908   2.963  11.589  0.1984 -0.2475 -0.1181
26635W        W27499   6.444   4.189  10.844  0.1367  0.2676  0.2524
26636W        W27500   2.750   0.039  10.676 -0.1036 -0.1252  0.1137
26637W        W27501   6.756   4.514  11.851  0.2636  0.1020  0.1122
26638W        W27502   8.591   2.554   9.111  0.1479  0.0495  0.0631
26639W        W27503   6.934  28.768  12.606 -0.0585  0.2753 -0.0700
26640W        W27504   6.318   0.210   7.480 -0.2260  0.0196  0.0848
26641W        W27505   7.401   2.001   8.327  0.1939 -0.0519 -0.0698
26642W        W27506   3.607   2.628   7.203 -0.1410  0.3467 -0.0373
26643W        W27507   6.502   1.675   7.113 -0.0464  0.0552  0.0127
26644W        W27508   5.296   3.776   9.107  0.2438 -0.0313  0.2335
26645W        W27509   5.362   2.759   9.040 -0.0338  0.1745 -0.1648
26646W        W27510   2.685   1.498   9.412 -0.0243  0.2220 -0.2167
26647W        W27511   6.847  28.078  11.854  0.1760  0.0453 -0.0367
26648W        W27512   6.720   0.314   7.259  0.0661 -0.0047 -0.1908
26649W        W27513   6.432   3.479   8.736  0.0598  0.1837  0.0525
26650W        W27514   5.567   1.511  10.924 -0.0629  0.0094  0.0246
26651W        W27515   2.168   1.400   9.458  0.0724  0.3687 -0.0275
26652W        W27516   7.150   3.943  11.195  0.0093  0.0458 -0.1957
26653W        W27517   6.042   3.345   9.151 -0.1619  0.0740 -0.0014
26654W        W27518   6.544  26.026   7.398  0.1393  0.2498 -0.0058
26655W        W27519   6.601   3.275  12.086  0.2014  0.1002 -0.1799
26656W        W27520   5.337   0.804   9.001 -0.1844 -0.2038 -0.1345
26657W        W27521   5.319  28.726   8.088 -0.1039 -0.1889 -0.1708
26658W        W27522   4.101   3.281  11.746 -0.0180 -0.1631 -0.0206
26659W        W27523   4.447   2.489   9.328 -0.2299 -0.0760  0.0217
26660W        W27524   6.138   0.926   5.959 -0.1527  0.2231 -0.3388
26661W        W27525   3.800   3.584   7.909  0.2489  0.3640  0.1958
26662W        W27526   3.460   1.527  11.138 -0.0279  0.0979  0.1184
26663W        W27527   2.701   0.248   9.724 -0.0450  0.1080 -0.3560
26664W        W27528   4.146   0.724   6.817  0.2710  0.2016 -0.3316
26665W        W27529   8.257  28.049  11.989 -0.0675 -0.0426 -0.0091
26666W        W27530   4.321   0.853   8.452 -0.0265 -0.1669 -0.0424
26667W        W27531   5.386   0.380   7.183  0.1652 -0.0345 -0.0514
26668W        W27532   4.691   0.779   9.776  0.0293 -0.0006  0.3296
26669W        W27533   6.191   2.200  10.581  0.1262 -0.0512  0.3091
26670W        W27534   6.694   4.696   7.410 -0.0988 -0.0431 -0.4800
26671W        W27535   7.243  28.040   8.223  0.2586 -0.0460 -0.0925
26672W        W27536   7.959   4.541   8.572  0.0895  0.1932  0.3158
26673W        W27537   6.418   1.626   9.229  0.0046 -0.1972  0.0154
26674W        W27538   7.781   3.114  11.090  0.0322 -0.2100  0.1427
26675W        W27539   4.495   2.440  10.228  0.3133  0.3427  0.1665
26676W        W27540   3.146   3.389  11.331  0.0085  0.3240 -0.0862
26677W        W27541   6.479   2.293  11.910  0.2310 -0.1085 -0.1841
26678W        W27542   6.084   2.363   9.111 -0.2369 -0.0090 -0.0031
26679W        W27543   6.309   1.120   6.578  0.0630  0.0590  0.0470
26680W        W27544   4.470   1.261   7.284 -0.0299  0.0475  0.0662
26681W        W27545   3.929   0.302   9.187  0.1413  0.1929  0.0786
26682W        W27546   2.496   1.074  10.492 -0.0400  0.0575  0.2263
26683W        W27547   6.558  28.936  10.057  0.3676  0.1482  0.1683
26684W        W27548   5.395  28.577   9.284 -0.1080 -0.1636  0.0429
26685W        W27549   5.428   1.560   9.976  0.0276 -0.3981 -0.1404
26686W        W27550   7.355   3.859   7.470  0.0308  0.0124  0.1996
26687W        W27551   5.969   1.294  11.149  0.0754  0.1087 -0.3093
26688W        W27552   5.833   1.840  10.575  0.0282  0.1616  0.0891
26689W        W27553   6.349   1.693  10.282  0.0397  0.2196  0.0303
26690W        W27554   6.488  28.940   6.458  0.0901  0.0005 -0.1188
26691W        W27555   5.960   1.783  11.125 -0.0769  0.4291  0.1279
26692W        W27556   4.320   3.723   8.839 -0.0583  0.0717  0.1319
26693W        W27557   4.287   1.516   7.770  0.2743  0.1199 -0.1251
26694W        W27558   5.322  28.666   9.865  0.1363 -0.0956 -0.0088
26695W        W27559   7.099   0.604   7.786  0.1077  0.2000 -0.0896
26696W        W27560   3.997   0.985   9.300  0.1495  0.0783 -0.1002
26697W        W27561   4.980   2.224  11.453 -0.1384  0.1419  0.1382
26698W        W27562   4.475   2.048   9.118 -0.1408  0.1256 -0.0487
26699W        W27563   7.261   0.819   6.938 -0.0558 -0.0999  0.0963
26700W        W27564   4.173   2.554   8.277 -0.0337 -0.0126 -0.0761
26701W        W27565   3.660   3.130  10.201  0.0139 -0.3802  0.1714
26702W        W27566   4.454  28.648   6.599  0.1034 -0.0521  0.0233
26703W        W27567   6.303   3.554  11.728  0.2375 -0.3013 -0.1343
26704W        W27568   5.884  29.012  10.996 -0.3085  0.1387  0.1366
26705W        W27569   6.164   0.184  12.771 -0.1309  0.2731 -0.1153
26706W        W27570   7.403   3.163  11.500 -0.1456  0.0034  0.4807
26707W        W27571   4.703   3.701  11.498 -0.0462  0.0828  0.0265
26708W        W27572   8.009   1.558  12.218 -0.0815  0.1159 -0.1913
26709W        W27573   2.378   1.488   8.991  0.1675  0.0103 -0.2000
26710W        W27574   4.137   0.782  11.194 -0.1691  0.1265 -0.0504
26711W        W27575   6.913   1.960   8.495 -0.0669 -0.2417  0.4148
26712W        W27576   5.982   1.127  11.710 -0.5327  0.0888  0.1672
26713W        W27577   7.168   2.330  10.891  0.0840  0.1481 -0.1040
26714W        W27578   8.195   3.547   8.449 -0.0995 -0.1728  0.0105
26715W        W27579   6.238  26.941  10.012 -0.2829  0.0231  0.0014
26716W        W27580   5.416   1.192   9.623  0.0669 -0.1286 -0.0652
26717W        W27581   4.077   1.401  11.420 -0.0614 -0.2786 -0.0654
26718W        W27582   5.049  28.712   7.602 -0.0359 -0.0478 -0.2475
26719W        W27583   7.869   0.653   8.298  0.1073  0.0994 -0.0358
26720W        W27584   6.525  28.309   7.388  0.0612  0.4346  0.1860
26721W        W27585   6.293   0.558  11.221  0.2482  0.1322  0.2385
26722W        W27586   5.010   4.297   9.287  0.0138 -0.1791 -0.0421
26723W        W27587   4.489   2.288   5.519  0.1203  0.1515 -0.0154
26724W        W27588   6.341   1.380  12.075  0.1717 -0.2572  0.1147
26725W        W27589   8.259  29.015  10.855 -0.3414 -0.0157  0.2057
26726W        W27590   3.315   1.113  10.870 -0.1129  0.2502  0.0995
26727W        W27591   5.797   4.776   9.784 -0.1161  0.0193  0.1542
26728W        W27592   8.006   0.456  10.128  0.1060  0.0222  0.0095
26729W        W27593   5.415   1.918  10.262  0.0953  0.0624 -0.1990
26730W        W27594   5.941   0.874  10.191 -0.1382  0.0098 -0.0012
26731W        W27595   6.816   2.508   8.569 -0.2726 -0.3436 -0.1177
26732W        W27596   5.089   0.889   9.387  0.1833  0.2407  0.1561
26733W        W27597   7.432   0.205  10.518 -0.0284  0.2252 -0.1048
26734W        W27598   5.709   2.260  11.016  0.1249 -0.0946  0.0174
26735W        W27599   5.487  28.065   9.323  0.1226 -0.2120 -0.2356
26736W        W27600   9.081  28.584   7.112 -0.0827 -0.2167  0.1870
26737W        W27601   7.028   1.801  11.635  0.0911  0.0959  0.0933
26738W        W27602   6.597   4.054  10.254  0.2564  0.2508  0.0749
26739W        W27603   6.311   2.191   9.871 -0.2236 -0.0529 -0.2605
26740W        W27604   2.482   2.256   8.362 -0.1116 -0.0487 -0.1240
26741W        W27605   5.049   1.523   9.533  0.1820 -0.1123 -0.0479
26742W        W27606   2.554   0.616   8.602  0.1912 -0.0482  0.1252
26743W        W27607   5.729   4.134   7.902  0.0488  0.0192 -0.0514
26744W        W27608   5.098   0.872  12.251  0.1109 -0.2198  0.1575
26745W        W27609   7.295   0.530  12.278  0.2648  0.1596 -0.0237
26746W        W27610   5.450  27.528   6.966 -0.0649 -0.1802 -0.0001
26747W        W27611   7.866   4.739   9.919 -0.0129  0.0199  0.0690
26748W        W27612   7.005   4.094  11.670 -0.0299  0.0514  0.0802
26749W        W27613   5.660   1.459  11.626  0.2944  0.1440  0.1258
26750W        W27614   7.523   1.602   6.568  0.0540 -0.2260  0.5030
26751W        W27615   6.077   0.306   7.916  0.0799 -0.0641  0.1151
26752W        W27616   5.383   5.499  10.470  0.1897  0.4588  0.0257
26753W        W27617   4.035   0.320   7.761  0.0083 -0.1547  0.0176
26754W        W27618   7.749   0.763   7.829 -0.0342  0.0124  0.3011
26755W        W27619   5.157  29.106   8.483 -0.1075  0.2056 -0.2637
26756W        W27620   3.854   1.834  12.952  0.0978  0.1183 -0.1861
26757W        W27621   6.177   0.359   5.136 -0.0311  0.0309 -0.0300
26758W        W27622   7.827   2.088   8.023  0.0709  0.1956  0.0064
26759W        W27623   6.021   1.038   8.664 -0.2738  0.0436  0.2224
26760W        W27624   4.623  28.680  11.965  0.4073 -0.2769 -0.1978
26761W        W27625   4.145   4.374  10.185 -0.1574 -0.3177 -0.0622
26762W        W27626   5.538   1.174  12.381 -0.1418 -0.2337  0.3005
26763W        W27627   3.896   2.348  12.140 -0.1011  0.1188 -0.0103
26764W        W27628   3.986   0.061  12.010  0.4319  0.2043 -0.0528
26765W        W27629   4.018   2.002   9.312 -0.0716 -0.1044 -0.1338
26766W        W27630   3.395   0.229   5.309  0.2138  0.1122 -0.1027
26767W        W27631   4.220   1.432  10.423 -0.1057  0.1860  0.1258
26768W        W27632   6.435   1.111  12.506  0.2359  0.0337 -0.0588
26769W        W27633   1.732   0.073   9.795 -0.0396  0.1749 -0.1163
26770W        W27634   3.736   1.968   7.706 -0.0872  0.1576  0.1991
26771W        W27635   7.791   2.431  12.295  0.1116  0.0234 -0.1524
26772W        W27636   5.566   1.254   8.612  0.2498  0.1965  0.2049
26773W        W27637   6.289   0.414   8.864  0.1810 -0.1607 -0.1173
26774W        W27638   5.246   1.636   7.002 -0.1817 -0.1372  0.0621
26775W        W27639  10.872   0.275   9.332 -0.0076  0.1230  0.2310
26776W        W27640   3.556   5.029   9.297  0.1090  0.0476  0.0906
26777W        W27641   1.754   3.595   8.106 -0.1189 -0.0221 -0.3610
26778W        W27642   4.864   3.618   8.833 -0.0302 -0.0770  0.2567
26779W        W27643   5.660   0.180  12.544 -0.0178  0.0295 -0.3591
26780W        W27644   6.061   2.484  10.187  0.0628  0.2040  0.2911
26781W        W27645   6.113   2.648   7.081 -0.1611  0.0406  0.2033
26782W        W27646   6.334   1.217   8.358 -0.0822 -0.0279 -0.1914
26783W        W27647   3.226   1.934   7.601  0.1910 -0.3271  0.0515
26784W        W27648   8.471  26.389   7.634 -0.0110 -0.1442 -0.0877
26785W        W27649   2.446   3.989  12.069  0.2658  0.0613 -0.0633
26786W        W27650   5.009   0.368   9.573  0.1108 -0.0250 -0.0497
26787W        W27651   5.255  28.984   8.939 -0.0380  0.0784 -0.1516
26788W        W27652   4.380   2.192  10.759 -0.1139  0.4901  0.3605
26789W        W27653   5.509   2.822  11.003  0.0635  0.3147 -0.3212
26790W        W27654   6.295   3.374  10.835  0.0458 -0.2501 -0.0465
26791W        W27655   5.058   1.680   9.052 -0.0053  0.3043  0.3149
26792W        W27656   2.538   1.601  11.444 -0.2222  0.4642 -0.1331
26793W        W27657   5.672  26.749   9.420  0.2576  0.1532  0.0277
26794W        W27658   6.681   1.827  12.034 -0.5231 -0.0053  0.0587
26795W        W27659   7.268   0.207   8.775  0.1244  0.0521  0.0535
26796W        W27660   7.294   0.699   8.696  0.1688  0.0474  0.1826
26797W        W27661   4.434   0.357   6.813 -0.1873  0.0188 -0.0926
26798W        W27662   4.624   1.459   9.069  0.1687  0.3895  0.1891
26799W        W27663   7.862   2.129   8.602 -0.1139  0.0198 -0.0309
26800W        W27664   3.368  26.780   7.430 -0.0830  0.1311  0.1941
26801W        W27665   6.220   0.196   9.452 -0.1360 -0.0181 -0.1889
26802W        W27666   7.502  28.284   7.356 -0.3218  0.0563  0.1756
26803W        W27667   3.684   0.055  11.543  0.1189  0.0945 -0.1706
26804W        W27668   8.300   1.758   8.791  0.1052 -0.0314  0.2177
26805W        W27669   4.688   0.491   5.606  0.4639  0.1590  0.0357
26806W        W27670   3.488   1.689  10.634 -0.3099  0.0469 -0.2612
26807W        W27671   5.150   2.425   9.710 -0.3492 -0.0272  0.1442
26808W        W27672   4.564   3.965   9.216 -0.0911  0.1517  0.0771
26809W        W27673   4.172   2.086   8.393 -0.0626  0.0354  0.0855
26810W        W27674   3.111   2.493  13.041  0.1948  0.0961 -0.0266
26811W        W27675   6.415   1.143  11.406 -0.1003 -0.1370  0.0561
26812W        W27676   4.778  28.221  10.633 -0.1073  0.0581  0.0083
26813W        W27677   6.282  28.722  10.889 -0.2262 -0.1093 -0.0928
26814W        W27678   6.591   1.970  11.500 -0.1929 -0.1255 -0.1015
26815W        W27679   4.403   2.966   7.841 -0.0349  0.3518  0.2588
26816W        W27680   5.811   3.102   7.629  0.1725 -0.2101  0.1571
26817W        W27681   7.643   1.070   6.618 -0.0957 -0.3010  0.0241
26818W        W27682   5.144   0.350  12.391 -0.1931 -0.0072 -0.0368
26819W        W27683   3.446   4.014  13.354 -0.0179 -0.1620  0.1834
26820W        W27684   7.893   1.433  10.581  0.0715 -0.0940 -0.0289
26821W        W27685   5.870   1.361  10.041 -0.3508 -0.1551 -0.1243
26822W        W27686   2.408   4.700   9.465 -0.1456 -0.2459  0.2448
26823W        W27687   4.640  28.546   9.524  0.1359  0.0698 -0.1120
26824W        W27688   9.539  29.041   9.003 -0.4065 -0.1051 -0.0907
26825W        W27689   2.840  28.390  14.506 -0.0180  0.0541 -0.2489
26826W        W27690   6.335  28.252  10.470 -0.0014 -0.2697  0.2122
26827W        W27691  10.316   2.314  10.575  0.0361  0.2368  0.0808
26828W        W27692   7.042   3.899  10.178 -0.0553 -0.0683  0.0591
26829W        W27693   6.569   0.268   9.886 -0.0908  0.0541  0.1253
26830W        W27694   5.771  28.782  10.025  0.1585  0.3370  0.0971
26831W        W27695   5.006   1.481  10.833  0.2940 -0.0632 -0.0200
26832W        W27696   5.222   2.449   8.092 -0.0790 -0.2246 -0.3926
26833W        W27697   5.976   2.417   7.524 -0.0921 -0.0811  0.0347
26834W        W27698   3.432  28.931  10.560  0.2553  0.0334 -0.3092
26835W        W27699   4.736   1.258  10.509  0.5672 -0.0088  0.0448
26836W        W27700   9.127  28.588   8.710 -0.0024  0.0741 -0.4749
26837W        W27701   5.147   0.715  11.394 -0.1359 -0.0944  0.2529
26838W        W27702   7.158   3.308  10.175 -0.2325  0.0028 -0.1826
26839W        W27703   6.052   6.834  10.241 -0.1862 -0.0779 -0.1594
26840W        W27704   5.191   5.455   8.500  0.0190  0.1858  0.1477
26841W        W27705   2.771   1.967  10.109  0.0499  0.0393  0.4052
26842W        W27706   5.837  27.522   8.125 -0.3481  0.1035  0.0149
26843W        W27707   5.305  27.794   7.895  0.4489 -0.0306  0.0577
26844W        W27708   6.931   2.033   9.621 -0.0284 -0.0763 -0.1901
26845W        W27709   5.132   2.953   8.386  0.1895 -0.0295  0.1697
26846W        W27710   7.241   1.239   7.861 -0.0507  0.2064  0.1261
26847W        W27711   5.780   2.742  13.058 -0.0157 -0.0001  0.0589
26848W        W27712   5.940   3.910   6.913 -0.0747 -0.1619  0.2228
26849W        W27713   5.613   2.116   7.805 -0.0647 -0.0136 -0.1431
26850W        W27714   2.556   1.924   9.156  0.1065  0.1317  0.0290
26851W        W27715   5.298   5.175   7.499 -0.1383 -0.2336 -0.1941
26852W        W27716   6.576   4.144   9.677 -0.1976  0.1729 -0.0317
26853W        W27717   6.000   2.173  11.470  0.5490  0.2258  0.0711
26854W        W27718   2.581   3.525   7.411  0.0487 -0.0310  0.1423
26855W        W27719   4.313   3.020   8.352  0.3029 -0.0832  0.0028
26856W        W27720   7.367  29.066   7.982  0.1446 -0.1384  0.1877
26857W        W27721   4.621  27.913  13.247 -0.1723  0.1500 -0.1379
26858W        W27722   4.891   2.683   6.947 -0.0578  0.1432 -0.2354
26859W        W27723   5.848   0.527   6.318 -0.0610  0.1861  0.2208
26860W        W27724   5.859   1.033   8.194 -0.1519  0.1711 -0.1241
26861W        W27725   5.308   5.485  11.281  0.0504 -0.1042 -0.0598
26862W        W27726   6.945   3.001   8.830 -0.3696  0.2810  0.0206
26863W        W27727   6.414   0.750  10.179  0.0609 -0.0469 -0.0805
26864W        W27728   4.409   2.785   8.822  0.0180  0.1356 -0.0212
26865W        W27729   2.188   1.216  11.401  0.0830  0.0985  0.2404
26866W        W27730   3.662   2.424   9.071  0.2151 -0.2685  0.1835
26867W        W27731   5.116   1.931   9.844 -0.1448 -0.1905  0.1606
26868W        W27732   4.986   1.282   8.782  0.0401  0.1255 -0.0175
26869W        W27733   7.324  28.686   9.468  0.1214  0.1790  0.2887
26870W        W27734   7.007   1.808   6.436 -0.1298 -0.0683  0.2688
26871W        W27735   5.316   2.553  10.663 -0.0567  0.2792 -0.0432
26872W        W27736   6.633   1.047  11.810 -0.1336  0.0196  0.0433
26873W        W27737   4.846   1.210  11.187 -0.0099 -0.0541  0.3255
26874W        W27738   7.039   2.823  10.101 -0.1910 -0.0389  0.0831
26875W        W27739   7.024   0.703  11.828 -0.0073  0.1127 -0.2931
26876W        W27740   6.730  28.878  10.608  0.2434 -0.0584 -0.1448
26877W        W27741   4.134  29.051   8.788 -0.0757  0.0410  0.0894
26878W        W27742   4.437   1.812   7.054 -0.0263 -0.1027  0.5974
26879W        W27743   3.755   0.972   7.956 -0.0502  0.0129 -0.0363
26880W        W27744   3.937   0.583   6.214  0.1171  0.1126  0.2056
26881W        W27745   4.638   1.870   8.702  0.0507  0.0035  0.2645
26882W        W27746   1.569  28.950  11.118  0.2195  0.0033  0.1837
26883W        W27747   4.915   3.507  10.422  0.3573 -0.2778  0.0276
26884W        W27748   6.187   3.224   8.035 -0.3727 -0.0192  0.1318
26885W        W27749   6.682   0.308   9.365  0.1572 -0.1865 -0.1333
26886W        W27750   5.569   4.301   7.429 -0.4662  0.0836  0.0250
26887W        W27751   4.593  29.056  10.288  0.1575  0.2680 -0.1356
26888W        W27752   8.930  28.248   7.592 -0.1022 -0.0760 -0.2152
26889W        W27753   5.742   3.059   7.148 -0.1074  0.1796  0.2544
26890W        W27754   2.546   2.573   6.359  0.0027  0.1541 -0.1969
26891W        W27755   6.282  27.538   7.791  0.0547 -0.1935  0.0688
26892W        W27756   8.130   3.718   9.890 -0.0565  0.0756  0.0519
26893W        W27757   3.087   0.242   7.829  0.0746  0.1998 -0.0523
26894W        W27758   7.117  29.061   9.208  0.3271 -0.2934  0.0070
26895W        W27759   6.320   2.732   8.175 -0.0026 -0.3376  0.1194
26896W        W27760   3.801   1.813  11.765 -0.0937  0.1538 -0.0186
26897W        W27761   7.801   2.419   9.038  0.0557  0.2197  0.1106
26898W        W27762   6.378   1.241   9.919  0.1426 -0.0854  0.1014
26899W        W27763   3.795   2.249  10.824 -0.2402 -0.0892 -0.0763
26900W        W27764   4.112   1.699   6.483  0.1420 -0.1238  0.0147
26901W        W27765   7.457   1.941   8.996  0.1161  0.0837  0.1229
26902W        W27766   6.660   3.759  11.451 -0.3590 -0.0627  0.4837
26903W        W27767   9.947   0.130   9.299  0.1644 -0.4235 -0.3204
26904W        W27768   6.623   3.151   7.671 -0.0990 -0.0557  0.1701
26905W        W27769   4.365  28.620  10.370 -0.1395 -0.2234 -0.0810
26906W        W27770   5.066   4.384  12.423  0.0573  0.0253  0.1447
26907W        W27771   6.505   0.713   9.691  0.0826 -0.1805 -0.0354
26908W        W27772   7.058  27.854  10.909 -0.0860 -0.1201 -0.1143
26909W        W27773   1.575   3.853   9.384 -0.2397 -0.3052  0.0294
26910W        W27774   4.183   2.006   7.867  0.3056 -0.2511  0.1336
26911W        W27775   4.580   0.942   9.268  0.1858 -0.1723  0.1185
26912W        W27776   7.410   2.199   7.275  0.2692  0.0875 -0.2599
26913W        W27777   6.460   2.343   7.678 -0.1392  0.1820  0.0081
26914W        W27778   5.499   1.031  10.131 -0.2194  0.1837 -0.3148
26915W        W27779   6.068   4.242  12.141  0.1510 -0.0888  0.0975
26916W        W27780   5.142   0.684   4.807 -0.0427 -0.2040 -0.0468
26917W        W27781   4.234   1.725   8.829 -0.2328  0.1436  0.1726
26918W        W27782   5.989   0.383  10.385  0.0182  0.0417 -0.1699
26919W        W27783   5.834   1.038   9.185 -0.3455  0.0477  0.1617
26920W        W27784   3.872   0.854   8.665 -0.0773  0.1862  0.1204
26921W        W27785   5.891   5.819   7.236  0.4309  0.0161  0.1910
26922W        W27786   2.648   1.827  10.922  0.0567 -0.2969  0.1806
26923W        W27787   6.991   3.199   7.978  0.0762 -0.0091  0.1237
26924W        W27788   5.030   2.985  10.822 -0.1109  0.1365  0.1044
26925W        W27789   3.795   4.287   8.183 -0.1063 -0.0375 -0.0751
26926W        W27790   5.003   2.397   7.602 -0.2090  0.1846  0.0517
26927W        W27791   2.648   3.686   9.514 -0.1030 -0.2857  0.0687
26928W        W27792   6.387   1.840   7.962 -0.0324  0.1997  0.0269
26929W        W27793   3.831   0.549  12.880 -0.1371  0.0905  0.0680
26930W        W27794   3.973   0.564   8.226  0.2815  0.0112  0.3085
26931W        W27795   8.738  27.702   8.407 -0.1241 -0.1466 -0.2768
26932W        W27796   8.034   4.303   9.029 -0.0118 -0.0136 -0.0380
26933W        W27797   5.940   2.144   9.520 -0.0443  0.2068  0.1748
26934W        W27798   7.714   1.932  11.663  0.1421  0.1697  0.0766
26935W        W27799   9.384   2.427  11.138 -0.0820 -0.1218  0.0368
26936W        W27800   5.472   1.745   8.670  0.0181  0.0166  0.0364
26937W        W27801   9.002   0.551   9.272 -0.1129  0.0353  0.0549
26938W        W27802   7.578   2.529   8.200  0.0737  0.0298 -0.1226
26939W        W27803   5.501   2.172   8.434 -0.2343  0.1019  0.0457
26940W        W27804   6.749   2.056  10.088 -0.3207  0.0439  0.0193
26941W        W27805   7.068   0.098   9.757  0.0290 -0.0250 -0.0785
26942W        W27806   4.219  27.753  11.104  0.0893  0.0460  0.1502
26943W        W27807   4.294   5.882   8.882 -0.2535  0.2477 -0.2058
26944W        W27808   5.786  27.135   9.091  0.0309  0.3323 -0.3125
26945W        W27809   3.301   0.927   9.886 -0.1608  0.1158  0.1981
26946W        W27810   2.933   1.089   7.688 -0.0053  0.2746  0.1693
26947W        W27811   3.634   0.553  10.086  0.1464  0.0778 -0.0453
26948W        W27812   5.664   3.972  10.456 -0.1262  0.1923 -0.3978
26949W        W27813   4.181  27.851   9.429 -0.3824 -0.2011  0.1992
26950W        W27814   7.095   1.534   9.241 -0.1063 -0.1946 -0.1970
26951W        W27815   6.050  28.895   8.152 -0.2578 -0.0087  0.0476
26952W        W27816   7.553   0.118   9.524  0.0642  0.1495 -0.4264
26953W        W27817   6.415   1.991   8.873 -0.0443  0.0355  0.2431
26954W        W27818   6.711   3.117  10.846 -0.2005  0.0723 -0.1680
26955W        W27819   6.075  26.159   7.728 -0.1118 -0.1697 -0.0116
26956W        W27820   4.306   4.336   8.871  0.0200  0.1933 -0.0747
26957W        W27821   7.515  28.812  11.723 -0.0930 -0.1797  0.2202
26958W        W27822   1.270   3.641  11.371 -0.1041 -0.0206 -0.1413
26959W        W27823   4.238   0.715   7.273 -0.2824 -0.1319  0.2092
26960W        W27824   4.703   4.121   8.682  0.0879  0.0525 -0.0256
26961W        W27825   6.901   4.524  12.352 -0.0134  0.2704  0.0563
26962W        W27826   5.488   1.853   9.489 -0.1098 -0.2910  0.1065
26963W        W27827   5.429   1.271   9.086 -0.0239 -0.0219  0.0493
26964W        W27828   6.267   4.082   8.056  0.1132 -0.0211  0.1768
26965W        W27829   5.562   4.777  11.904  0.1214  0.0382  0.0449
26966W        W27830   5.361   1.869   5.205 -0.0634 -0.0684  0.2275
26967W        W27831   6.040   3.214   8.552 -0.1780 -0.0976  0.0719
26968W        W27832   5.837  28.057   7.955 -0.1191  0.0964 -0.1602
26969W        W27833  11.361   0.361   6.927 -0.3487 -0.0187  0.0468
26970W        W27834   4.500   1.566   6.168 -0.1426 -0.0081 -0.0411
26971W        W27835   6.180   1.664   9.781  0.0480 -0.1771 -0.0435
26972W        W27836   5.359   3.329   6.410  0.2474  0.0587 -0.0206
26973W        W27837   7.364   2.202   7.820  0.4423 -0.1767 -0.1078
26974W        W27838   6.678   2.194   6.342  0.3521  0.0616 -0.1536
26975W        W27839   4.058  28.653  12.120 -0.2672 -0.0287 -0.0311
26976W        W27840   3.522   1.163   8.888 -0.1031 -0.0311 -0.1965
26977W        W27841   8.533   1.232   8.942  0.1729 -0.1839 -0.2561
26978W        W27842   7.315  28.027  10.464  0.1952  0.0302 -0.1549
26979W        W27843   3.948   0.149   9.662  0.0094 -0.0622 -0.2901
26980W        W27844   5.517   0.057   9.949 -0.1840  0.0463 -0.0112
26981W        W27845   3.766   1.255  10.649  0.0233  0.1795 -0.3348
26982W        W27846   3.991   2.974  11.029  0.0348  0.4130 -0.1425
26983W        W27847   4.781   1.856  11.752  0.1392 -0.0598  0.1335
26984W        W27848   6.674   3.087  10.361  0.0988 -0.0914  0.1081
26985W        W27849   5.656   2.930  11.531  0.1502 -0.3057  0.2244
26986W        W27850   5.523   4.233   9.191 -0.1477 -0.1262  0.1482
26987W        W27851   6.461   1.631  11.198 -0.2410  0.1765 -0.0198
26988W        W27852   2.879   1.449   8.936 -0.0719  0.1967 -0.0875
26989W        W27853   8.214   2.798   8.898  0.1122  0.0928 -0.0154
26990W        W27854   6.072  27.846  13.272 -0.2398  0.2846 -0.2254
26991W        W27855   3.906  28.690   6.309  0.1687  0.1442 -0.0455
26992W        W27856   5.761   3.464  10.342  0.0638 -0.1485 -0.1434
26993W        W27857   4.587   2.486  11.630  0.0118 -0.3183  0.1021
26994W        W27858   4.893   3.742   7.828  0.2124 -0.0558 -0.0814
26995W        W27859   5.046   1.258  10.017 -0.0882  0.1874 -0.2076
26996W        W27860   6.430   3.649   7.782 -0.0892  0.0923  0.0484
26997W        W27861   5.642   3.467  11.467  0.0607  0.0714  0.1974
26998W        W27862   4.135   1.265   8.215 -0.1586  0.1987  0.1263
26999W        W27863   5.896   3.980   5.154  0.1467  0.1663 -0.0206
27000W        W27864   2.982   5.002  13.917 -0.1145 -0.0293  0.3110
27001W        W27865   4.786   6.210  12.121  0.1425  0.1756  0.1992
27002W        W27866   5.582   2.523  12.591 -0.3893 -0.1337 -0.1067
27003W        W27867   7.283   2.639  15.263 -0.1390 -0.0867 -0.0176
27004W        W27868   3.184   3.415  10.295  0.1494 -0.0145 -0.0257
27005W        W27869   3.584   1.371  11.620 -0.0109 -0.0297  0.0085
27006W        W27870   2.825   3.647  12.173  0.2253  0.2108  0.1309
27007W        W27871   7.401   2.212  12.533 -0.0153  0.0352  0.0045
27008W        W27872   4.890   1.827  15.113  0.3477  0.1879 -0.1067
27009W        W27873   4.342   0.839  13.927  0.3234  0.0220 -0.0244
27010W        W27874   5.978  29.009  14.043 -0.1195  0.1364  0.0100
27011W        W27875   5.857   1.306  10.558 -0.0196 -0.1436 -0.0364
27012W        W27876   7.211   0.085  14.094  0.0392 -0.1506  0.0142
27013W        W27877   6.316   0.803  12.884 -0.1465 -0.3968  0.1588
27014W        W27878   4.639   0.282  14.691 -0.1405 -0.1044 -0.0295
27015W        W27879   2.153   1.936  13.070 -0.0837 -0.2339 -0.0121
27016W        W27880   5.396   2.389  11.348  0.0876  0.0125 -0.3881
27017W        W27881   4.710   2.638  14.633  0.0054  0.0567  0.2755
27018W        W27882   1.963   0.580  13.958  0.1797 -0.0188  0.1012
27019W        W27883   8.766   1.202  13.297  0.1778 -0.1754 -0.2584
27020W        W27884   6.294   3.308  13.951 -0.1286  0.0646 -0.0380
27021W        W27885   5.748  28.786  12.733 -0.0030  0.0711  0.0529
27022W        W27886   7.537   5.139  12.080 -0.0716 -0.3654 -0.3152
27023W        W27887   5.476   1.659  15.182  0.0148  0.0749  0.3803
27024W        W27888   4.696   2.865  12.659 -0.3083  0.1334 -0.2101
27025W        W27889   4.649   1.932  15.846  0.3935  0.0583 -0.1008
27026W        W27890   5.200   1.475  13.525  0.0557  0.0157  0.1203
27027W        W27891   2.836   5.077  14.470 -0.2926 -0.0437  0.1049
27028W        W27892   3.821   3.646  11.446 -0.1901  0.0942 -0.2249
27029W        W27893   5.012   3.617  12.745 -0.4193  0.0664  0.0724
27030W        W27894   6.541   4.071  13.169 -0.1182 -0.1781  0.1245
27031W        W27895   4.509   0.976  12.838  0.0776 -0.0371 -0.4658
27032W        W27896   3.391   3.074  14.662  0.0537 -0.0581  0.0582
27033W        W27897   6.175   0.848  16.520 -0.2520 -0.0655 -0.1986
27034W        W27898   2.228   2.961  14.005  0.3513 -0.1057 -0.2119
27035W        W27899   7.844   2.766  15.575 -0.0555  0.1527 -0.0392
27036W        W27900   3.425   3.033  13.409 -0.1244  0.1700  0.3376
27037W        W27901   4.945   2.582  13.300 -0.1004 -0.1608 -0.1802
27038W        W27902   5.712   2.006  14.120  0.0614  0.0688 -0.0142
27039W        W27903   7.701  28.634  13.179  0.1085 -0.2255 -0.0689
27040W        W27904   7.336   1.069  12.063  0.1055  0.0755  0.0789
27041W        W27905   6.805   2.808  13.243  0.0640 -0.1660  0.0333
27042W        W27906   4.649   2.657  13.774  0.2225 -0.0093 -0.2099
27043W        W27907   8.990   3.247  10.377 -0.0397 -0.1634  0.1687
27044W        W27908   5.184   3.488  13.299  0.1019  0.3626 -0.0181
27045W        W27909   4.092   4.444  11.512  0.2807  0.0114 -0.3315
27046W        W27910   5.360   0.249  14.536 -0.2887 -0.0175  0.2197
27047W        W27911   6.040   4.434  14.110 -0.1076 -0.1154 -0.1401
27048W        W27912   4.905   1.897  12.215 -0.1082  0.1083  0.0451
27049W        W27913   6.691   0.674  10.847 -0.3812  0.1856  0.1956
27050W        W27914   4.078   3.338  14.183 -0.0824  0.2466  0.2060
27051W        W27915   6.257   2.876  12.194 -0.0002 -0.0392 -0.0263
27052W        W27916   6.690   3.874  14.209 -0.2193  0.1090  0.1266
27053W        W27917   3.270   1.854  10.027  0.3429 -0.2188 -0.2578
27054W        W27918   6.947   4.013  12.880 -0.0501  0.3605  0.0420
27055W        W27919   3.042   4.724  12.575  0.0100 -0.2160  0.1597
27056W        W27920   4.231   1.177  14.664 -0.0438 -0.0443  0.2084
27057W        W27921   6.032   1.024  12.203 -0.3196  0.0814  0.0868
27058W        W27922   3.693   2.795  13.798 -0.0516  0.5046 -0.0892
27059W        W27923   2.194   3.662  11.704 -0.0911  0.0095 -0.0450
27060W        W27924   5.151   2.828  11.524  0.2684 -0.0685 -0.1982
27061W        W27925   4.933   3.865  14.152  0.2271  0.0575  0.1895
27062W        W27926   5.704   2.940  12.302  0.1424 -0.0057  0.1106
27063W        W27927   5.595   0.233  12.033  0.2775 -0.1855  0.0982
27064W        W27928   3.913  28.525  14.108 -0.0598 -0.3484  0.1917
27065W        W27929   7.332   0.194  11.886 -0.3387 -0.0253 -0.1872
27066W        W27930   4.647   1.763   9.519  0.0619  0.0703 -0.2208
27067W        W27931   3.202   0.520   9.138  0.0473  0.2906 -0.2366
27068W        W27932   1.844   4.605  13.814 -0.4926  0.0006  0.1202
27069W        W27933   6.126   3.404  13.513  0.2375  0.1171 -0.0783
27070W        W27934   7.348   4.082  15.041 -0.0170 -0.0129 -0.2265
27071W        W27935   4.250   2.995  13.804  0.1984  0.0406  0.2146
27072W        W27936   7.768   0.331  11.472 -0.1897 -0.0149 -0.0008
27073W        W27937   8.929   3.773  10.361  0.1690  0.1287 -0.0021
27074W        W27938   4.590   2.437  12.969 -0.1000  0.1148  0.1326
27075W        W27939   5.226   2.571  14.592 -0.0496 -0.0294  0.0196
27076W        W27940   4.492   3.041  15.002  0.1622  0.0182 -0.0821
27077W        W27941   3.250   2.466  15.936 -0.0953  0.1656  0.0162
27078W        W27942   5.043  28.435  13.874 -0.0089  0.3369  0.1330
27079W        W27943   5.535  28.286  12.502 -0.1145 -0.1574 -0.0392
27080W        W27944   4.952  28.816  14.274 -0.5825 -0.1380 -0.0990
27081W        W27945   2.303   1.244  15.817  0.0691 -0.2878 -0.1710
27082W        W27946   3.828  27.623  15.224  0.0426  0.3158 -0.3750
27083W        W27947   3.694   2.054  13.460 -0.2454  0.3645  0.0703
27084W        W27948   6.436   2.020  12.561  0.0053 -0.0782  0.1038
27085W        W27949   4.667  28.201  13.647 -0.0773 -0.2318  0.0562
27086W        W27950   5.025   2.936  16.010 -0.1470 -0.1620  0.1678
27087W        W27951   8.212   0.703  12.544  0.0541  0.1018 -0.0359
27088W        W27952   5.990   5.155  15.983  0.0609 -0.4526 -0.3185
27089W        W27953   7.094   3.353  14.412  0.1460 -0.2232  0.1221
27090W        W27954   4.942   1.392  12.164 -0.1365 -0.2025  0.1357
27091W        W27955   5.904   3.433  15.204  0.0225 -0.1293  0.3517
27092W        W27956   2.236   5.435  11.444 -0.0002  0.0637 -0.0171
27093W        W27957   5.041   4.063  12.844  0.0673 -0.1422 -0.1258
27094W        W27958   5.228   1.029  14.383  0.1306  0.0366  0.0252
27095W        W27959   5.861   2.126  12.552  0.0383  0.0234 -0.0482
27096W        W27960   5.821   3.518  13.959 -0.0754 -0.2109 -0.2869
27097W        W27961   4.833   3.146  13.474  0.2574  0.0845  0.1817
27098W        W27962   6.253   2.456  13.454  0.0128 -0.2677 -0.0021
27099W        W27963   7.107   3.714  13.856  0.0419 -0.4118 -0.2328
27100W        W27964   6.626   1.504  11.654 -0.3704  0.1328  0.0549
27101W        W27965   4.572   3.796  14.643  0.1607  0.0012 -0.3299
27102W        W27966   7.896  27.626  13.823 -0.1765 -0.1621  0.2801
27103W        W27967   7.122   3.294  12.097  0.0384  0.2339 -0.0571
27104W        W27968   6.284   0.096  13.567  0.1563  0.2105 -0.1990
27105W        W27969   5.533   1.394  12.998 -0.0203  0.0231 -0.1086
27106W        W27970   5.551   4.296  11.232  0.0413  0.0035 -0.0660
27107W        W27971   6.212   3.617  16.583 -0.2785  0.3661  0.0696
27108W        W27972   6.820   2.131  15.077  0.1382 -0.1314  0.1149
27109W        W27973   3.288   1.435  13.303  0.0728 -0.0767  0.2242
27110W        W27974   3.118   2.668  14.550 -0.1126 -0.1310 -0.1081
27111W        W27975   5.497   4.334  12.109  0.1319 -0.0986  0.1659
27112W        W27976   5.675  29.145  13.113  0.2183 -0.0653 -0.0109
27113W        W27977   6.292   0.743  14.346 -0.1854  0.0202 -0.1051
27114W        W27978   8.158   2.596  12.739  0.0261 -0.1502 -0.1941
27115W        W27979   6.681   1.684  13.430 -0.0478  0.2134 -0.0202
27116W        W27980   8.761   1.525  12.927 -0.1019 -0.2299 -0.2449
27117W        W27981   5.971   4.344  14.967  0.0393 -0.0829 -0.1054
27118W        W27982   6.268   0.090  11.426 -0.2844 -0.2034 -0.0488
27119W        W27983   7.815   1.673  12.675  0.2503 -0.1763  0.4830
27120W        W27984   4.553   0.800  10.874  0.4498 -0.0836 -0.0792
27121W        W27985   3.705   4.678  11.738  0.0240  0.0403 -0.0398
27122W        W27986   8.532   2.163  13.418 -0.1964  0.0947  0.0028
27123W        W27987   5.445   0.896  12.940  0.2104 -0.0080  0.0653
27124W        W27988   4.945   2.371  11.974  0.1965  0.2177 -0.3930
27125W        W27989   7.381  28.651  12.209 -0.0596 -0.2280  0.0556
27126W        W27990   4.428  28.422  13.259  0.4581  0.1053 -0.0667
27127W        W27991   5.501   0.686  12.523 -0.1247  0.1701 -0.1371
27128W        W27992   8.576   4.019  14.763  0.2593 -0.1833  0.1963
27129W        W27993   3.040   6.061  13.656  0.0203  0.0774  0.3335
27130W        W27994   4.027   5.101  13.255  0.2225  0.1434  0.0040
27131W        W27995   6.561   2.007  16.802  0.4910  0.0849 -0.1297
27132W        W27996   4.363   2.585  12.496  0.0646  0.1088  0.2621
27133W        W27997   7.400  28.911   9.995 -0.2236  0.1932 -0.1000
27134W        W27998   4.923   1.136  13.169 -0.0791 -0.0598 -0.0244
27135W        W27999   3.929   0.727  14.719 -0.0658  0.0578 -0.2372
27136W        W28000   4.458   3.958  12.861 -0.2225 -0.1026  0.0060
27137W        W28001   7.322   2.472  14.414  0.1319  0.0716  0.3817
27138W        W28002   6.914   3.980  12.408 -0.1691  0.0132  0.0733
27139W        W28003   4.732   4.529  10.739  0.0463  0.0283 -0.0914
27140W        W28004   4.467   2.155  11.241 -0.2249 -0.1435 -0.2111
27141W        W28005   7.595   0.480  13.774  0.0280 -0.2204 -0.0498
27142W        W28006   2.849   3.239  12.457 -0.1269 -0.1125 -0.0041
27143W        W28007   6.198   3.800  10.594  0.1820  0.0858  0.0515
27144W        W28008   5.071   2.784  15.497 -0.2695 -0.0761 -0.0938
27145W        W28009   5.810   3.227  11.889  0.1080  0.1732  0.0989
27146W        W28010   4.866   0.974  11.775 -0.2961  0.0167  0.2815
27147W        W28011   5.870   4.078  10.880  0.0904 -0.1874 -0.1840
27148W        W28012   6.212   2.635  15.618 -0.0487  0.1520  0.1762
27149W        W28013   4.837   0.125  13.246  0.1602  0.1257 -0.1841
27150W        W28014   6.141   1.834  16.484 -0.2579 -0.2649  0.0025
27151W        W28015   5.353  28.548  12.956 -0.2931  0.3314  0.0023
27152W        W28016   5.730   4.777  13.902 -0.0308  0.2158 -0.2935
27153W        W28017   5.662  28.617  13.788 -0.0653  0.2102  0.0062
27154W        W28018   7.088   4.458  13.636 -0.1109  0.0304 -0.1062
27155W        W28019   8.229  27.692  15.521 -0.1277  0.0517  0.2766
27156W        W28020   3.668   3.066  12.454 -0.0814 -0.0046 -0.1648
27157W        W28021   6.096   0.027   9.955 -0.0923 -0.0174  0.0619
27158W        W28022   5.113   1.473  11.716 -0.0534 -0.0793 -0.0527
27159W        W28023   4.896  28.389  13.153  0.2954 -0.1198 -0.0902
27160W        W28024   6.448   0.735  12.147 -0.0979  0.1942 -0.5710
27161W        W28025   3.986   4.226  15.362 -0.1575  0.2975  0.2044
27162W        W28026   4.775   1.764  13.484  0.1880  0.3578 -0.0732
27163W        W28027   6.577  28.830  15.507 -0.2350 -0.1105 -0.1900
27164W        W28028   6.224   1.644  13.975  0.2801 -0.0109 -0.2677
27165W        W28029   6.666  28.360  14.218 -0.1322 -0.1203 -0.2613
27166W        W28030   4.838   0.496  13.733  0.2006 -0.1299  0.0866
27167W        W28031   4.939   2.106  13.121 -0.1230 -0.0841 -0.0586
27168W        W28032   5.129   6.037  12.679 -0.2126  0.0353 -0.3848
27169W        W28033   3.773   0.645   9.626 -0.0024  0.3058  0.0211
27170W        W28034   5.985   0.540  13.735  0.0836  0.0255 -0.1147
27171W        W28035   5.777   0.164  11.466  0.0967 -0.2126 -0.1560
27172W        W28036   5.461   3.758  14.205  0.0679 -0.0827  0.4815
27173W        W28037   5.949   2.040   8.605 -0.0522 -0.0471  0.1308
27174W        W28038   6.866   0.883  12.323  0.1709  0.0758  0.4851
27175W        W28039   7.372   1.095  11.165  0.0872  0.2619  0.0700
27176W        W28040   4.190   3.153  15.338  0.1241 -0.1117  0.1480
27177W        W28041   4.152   4.386  12.614 -0.0397 -0.0084  0.2417
27178W        W28042   3.856   6.762  13.657  0.0788  0.0089  0.1290
27179W        W28043   5.062  28.734  11.691 -0.0665 -0.1273 -0.0051
27180W        W28044   2.160   3.204  11.276 -0.0499  0.3617  0.2597
27181W        W28045   4.976   4.075  11.279 -0.0443 -0.2100 -0.1883
27182W        W28046   5.313   2.959  13.348 -0.1087 -0.1586  0.1557
27183W        W28047   4.184   0.927  10.557 -0.0611  0.0166  0.0109
27184W        W28048   4.499  28.538  10.942  0.0918  0.1271 -0.2681
27185W        W28049   7.149  28.834  13.619 -0.0787  0.0915  0.0214
27186W        W28050   6.792  26.985  11.296 -0.1702  0.0520 -0.0030
27187W        W28051   3.511  28.875  11.183  0.0386  0.3226  0.0625
27188W        W28052   5.321   3.854  13.726 -0.2575  0.0561 -0.2159
27189W        W28053   6.445   2.769  14.642  0.0738  0.1064  0.1138
27190W        W28054   5.661   1.242  13.482  0.1845 -0.1954 -0.0471
27191W        W28055   3.247  29.006  11.686 -0.0948 -0.1638 -0.1792
27192W        W28056   4.754   2.003  12.676  0.1101  0.1898  0.0418
27193W        W28057   7.357   0.546  13.367  0.4430 -0.0448 -0.2673
27194W        W28058   6.794   0.096  14.622  0.0471  0.1036  0.0022
27195W        W28059   5.863   0.590  12.832  0.0057 -0.1168 -0.1496
27196W        W28060   6.455  26.399  11.434 -0.0326 -0.0464  0.2232
27197W        W28061   4.460   3.614  15.231 -0.1029 -0.1278 -0.1147
27198W        W28062   3.346   0.677  12.057 -0.0121 -0.3483  0.0514
27199W        W28063   7.330  27.901  11.833  0.0583  0.1954  0.0801
27200W        W28064   3.966  28.969  10.185  0.1215  0.1775 -0.1622
27201W        W28065   8.116   1.040  10.738 -0.1985  0.0826 -0.3309
27202W        W28066  11.107   4.118  11.382 -0.1410 -0.1572  0.0752
27203W        W28067   6.573   0.474  12.585  0.1297 -0.1173 -0.2562
27204W        W28068   6.049   1.053  13.964  0.1550  0.3332  0.1640
27205W        W28069   5.617   1.642  12.562 -0.0574 -0.1446  0.1545
27206W        W28070   2.782   1.394  14.731 -0.0031 -0.2088 -0.0752
27207W        W28071   4.981   5.047  11.598  0.1497  0.1179 -0.2470
27208W        W28072   1.950   4.304  13.344 -0.0758  0.2396  0.3848
27209W        W28073   5.396   3.345  12.450  0.3019  0.2293  0.1707
27210W        W28074   5.273   2.332  14.166 -0.2209  0.3103 -0.1305
27211W        W28075   4.230   0.428  14.946  0.3356 -0.0319  0.0633
27212W        W28076   5.250   0.614  15.359 -0.1380  0.2544 -0.0079
27213W        W28077   7.016   2.917  13.880  0.1430 -0.0853  0.0628
27214W        W28078   5.067   0.970  13.686 -0.1700 -0.4056  0.0469
27215W        W28079   6.420   3.264  12.739  0.1097  0.1780  0.1371
27216W        W28080   5.229   0.511  10.591 -0.3721 -0.2747 -0.1072
27217W        W28081   7.137   1.841  12.152 -0.2645 -0.2974  0.3015
27218W        W28082   4.342   1.828  14.907 -0.1164 -0.1703 -0.1231
27219W        W28083   5.934  27.824  13.812 -0.4226  0.1595 -0.0976
27220W        W28084   8.615  28.035  13.687  0.0277  0.1488  0.0384
27221W        W28085   8.724  27.819  11.959 -0.0168  0.2605  0.0000
27222W        W28086   2.640   2.335  17.636 -0.3589 -0.3497  0.0149
27223W        W28087   4.847  29.118   9.269 -0.4024 -0.1533  0.0652
27224W        W28088   7.091   2.512  12.865 -0.0182 -0.1510 -0.0892
27225W        W28089   4.969  26.310  14.083  0.1036  0.2612  0.1185
27226W        W28090   5.291   0.313  13.628  0.0416 -0.1287  0.2115
27227W        W28091  10.028   1.263  12.944 -0.1753  0.2822 -0.0358
27228W        W28092   6.574   5.032  11.793 -0.2462  0.0509  0.0111
27229W        W28093   6.062   3.114  13.133 -0.1699  0.2112 -0.1306
27230W        W28094   4.386   0.901  11.892 -0.1936 -0.0408  0.0332
27231W        W28095   6.640   2.873  15.811  0.0185  0.0652  0.2146
27232W        W28096   4.675   1.426  12.663 -0.1560 -0.1454 -0.0277
27233W        W28097   5.758   4.376  13.563 -0.0438  0.1593 -0.0438
27234W        W28098   4.068   0.188  14.508  0.2698  0.0378  0.1428
27235W        W28099   5.909   3.790  11.937 -0.3196  0.1172  0.2460
27236W        W28100   6.570   1.874  14.270 -0.0000 -0.3720 -0.0005
27237W        W28101   7.635  27.401  12.657  0.1247 -0.1565 -0.1552
27238W        W28102   6.583   4.283  16.589 -0.0920  0.2390 -0.1345
27239W        W28103   7.396   3.826  12.676 -0.0646 -0.1140 -0.1994
27240W        W28104   5.353   3.360  13.818  0.0596  0.0078 -0.0438
27241W        W28105   4.945   0.628  12.726 -0.0339 -0.3246 -0.2570
27242W        W28106   6.351   0.305  14.585  0.0996 -0.2273 -0.2516
27243W        W28107   5.455  28.816  14.304  0.2850 -0.3799  0.1943
27244W        W28108   7.657   1.141  11.613  0.2923  0.1028 -0.2785
27245W        W28109   6.773   2.536   9.756  0.3342 -0.2534 -0.2556
27246W        W28110   7.337   1.745  12.657 -0.0294  0.0712  0.0589
27247W        W28111   4.839   3.450  15.891 -0.0754  0.0783  0.1850
27248W        W28112   7.064   3.921  13.390  0.3119  0.1244  0.0746
27249W        W28113   4.459   1.756  12.973 -0.0349  0.2995  0.0723
27250W        W28114   5.798   3.467  12.874  0.1229  0.0792 -0.0688
27251W        W28115   1.751   5.188  14.699 -0.0293  0.1840 -0.1787
27252W        W28116   4.815   2.337  15.518  0.0750  0.0908  0.0806
27253W        W28117   4.914   1.436  14.040  0.2601 -0.0247 -0.0883
27254W        W28118   2.694   0.634  12.250  0.0422 -0.1726 -0.1038
27255W        W28119   7.365   0.951   9.786 -0.1533 -0.2306 -0.5596
27256W        W28120   5.369   1.676  12.140 -0.1863 -0.1731 -0.2802
27257W        W28121   5.995   0.669  15.701 -0.2539  0.0896 -0.1475
27258W        W28122   4.991   4.618  11.963 -0.3448  0.2846 -0.0477
27259W        W28123   5.379   1.852  13.290 -0.0594  0.1865  0.1402
27260W        W28124   4.462   1.326  14.170 -0.1446  0.1459  0.3655
27261W        W28125   4.373   0.439  13.633 -0.2999 -0.2086 -0.2838
27262W        W28126   6.517   3.217  13.257 -0.0722  0.0893 -0.0298
27263W        W28127   5.789   0.703  15.149  0.2541 -0.2697  0.1004
27264W        W28128   3.152   4.914   9.898 -0.1325  0.1976  0.1479
27265W        W28129   3.381   1.192  15.434 -0.0061  0.0148 -0.1563
27266W        W28130   6.375   4.053  11.728  0.2416  0.3938  0.2047
27267W        W28131   8.271   4.103  10.854 -0.2233 -0.2411 -0.0146
27268W        W28132   6.455  29.032  15.096 -0.0068  0.1515 -0.1551
27269W        W28133   8.552   1.452  11.480  0.3024  0.2566 -0.0658
27270W        W28134   4.069   5.646  11.691 -0.0919 -0.2364  0.2097
27271W        W28135   6.006  28.851  15.055 -0.1690  0.1578  0.0058
27272W        W28136   5.620  28.199  15.578 -0.1687  0.2326  0.3229
27273W        W28137   5.691  28.956  15.857 -0.0388 -0.1632  0.0963
27274W        W28138   7.312   2.135  11.340  0.0083  0.1793 -0.0173
27275W        W28139   5.473   0.145  14.073  0.2230 -0.0727  0.4135
27276W        W28140   5.005  26.891  15.204  0.0016  0.0860  0.1252
27277W        W28141   3.701  28.688  14.749  0.1461 -0.0311  0.1863
27278W        W28142   4.213   1.245  10.968 -0.1468 -0.1535 -0.0420
27279W        W28143   3.790   3.531  17.143  0.0437 -0.1920 -0.0602
27280W        W28144   6.154   4.297  12.618  0.0837  0.1464  0.0486
27281W        W28145   5.849   0.780  11.204 -0.3575 -0.1490  0.0104
27282W        W28146   3.245   1.933  13.187  0.1558 -0.2333 -0.2448
27283W        W28147   4.072   3.945  14.407 -0.0333 -0.2576  0.1813
27284W        W28148   8.518   1.477  12.000 -0.3338 -0.2692  0.0665
27285W        W28149   6.326   1.360  13.567  0.0115  0.0674  0.2983
27286W        W28150   6.994   3.451  11.255 -0.1811  0.2329  0.0466
27287W        W28151   6.764  27.629  13.289 -0.0727 -0.0551  0.0573
27288W        W28152   5.220  28.555  12.144  0.3004 -0.0645  0.1876
27289W        W28153   6.684   2.547  13.708  0.0320 -0.0943 -0.1817
27290W        W28154   4.487   1.315  11.666  0.0534  0.0496 -0.0300
27291W        W28155   5.029   4.776  11.087  0.1274 -0.2549  0.1168
27292W        W28156   9.084  28.097  13.272  0.1849  0.0372 -0.2191
27293W        W28157   3.994   3.037  13.321  0.0896 -0.0941 -0.0585
27294W        W28158   5.093   2.545  12.817  0.0316 -0.0025  0.1803
27295W        W28159   4.182  27.580  12.046 -0.3596 -0.0403  0.1543
27296W        W28160   4.521   3.947  11.947  0.0072 -0.0816  0.1450
27297W        W28161   8.511   3.682  13.453  0.0547 -0.1425  0.2318
27298W        W28162   8.196  28.984  11.352 -0.3718 -0.2175  0.1389
27299W        W28163   2.016   1.918  14.118  0.3291 -0.0573 -0.0353
27300W        W28164   4.814   2.436  12.423 -0.1016  0.1351 -0.1563
27301W        W28165   3.921   1.029  15.455 -0.0116  0.4806 -0.1919
27302W        W28166   3.804   5.585  13.820  0.1617  0.0195 -0.0180
27303W        W28167   7.536   1.459  12.360  0.0654 -0.0126 -0.1473
27304W        W28168   9.065  27.109  12.410  0.2942 -0.1108 -0.2918
27305W        W28169   6.401   2.768  12.945  0.0225 -0.1702 -0.1932
27306W        W28170   6.673   3.687  16.283 -0.1849 -0.0911 -0.1121
27307W        W28171   6.551   2.491  10.314 -0.2991 -0.0590  0.3937
27308W        W28172   9.707   0.971  11.353 -0.1475  0.2938  0.0273
27309W        W28173   3.251   4.675  13.047 -0.0268  0.3631  0.0264
27310W        W28174   3.162   0.426   9.857  0.0638 -0.1073 -0.1570
27311W        W28175   3.206   5.045  13.456  0.0381  0.1758 -0.2236
27312W        W28176   4.373   0.719  14.469 -0.0830  0.1544  0.0993
27313W        W28177   6.027   2.848  12.629  0.1863  0.0771  0.1205
27314W        W28178   3.712   2.593  13.280  0.3427  0.2906  0.2120
27315W        W28179   4.018   5.956  13.468 -0.3812 -0.0533  0.1036
27316W        W28180   4.498   3.101  13.054 -0.1912  0.0850  0.0430
27317W        W28181   6.234   3.617  13.073  0.1707  0.0146  0.3612
27318W        W28182   3.915   4.866  16.445 -0.1282 -0.0521  0.0015
27319W        W28183   5.302   3.895  12.428 -0.0054 -0.1104  0.0773
27320W        W28184   4.616   6.711  13.324  0.2793  0.2126  0.1237
27321W        W28185   7.459   2.254  11.892  0.0183 -0.3203 -0.2673
27322W        W28186   3.395   2.955  16.944  0.1261  0.1130  0.0823
27323W        W28187   4.812   4.839  12.435  0.0268  0.2085 -0.2470
27324W        W28188   4.609   4.421  10.242 -0.1236 -0.0912  0.0360
27325W        W28189   5.453   1.801  11.303  0.3112  0.1055  0.1296
27326W        W28190   6.312  28.982  14.636 -0.2481 -0.2046 -0.0170
27327W        W28191   2.769   4.578   9.819  0.0897 -0.2350  0.2087
27328W        W28192   5.308   2.031  11.816  0.0221 -0.0217  0.1971
27329W        W28193   3.600   3.590  13.130  0.2653  0.0904  0.1619
27330W        W28194   5.804  26.772  14.768  0.2352  0.1187 -0.1594
27331W        W28195   5.477  28.784  10.812 -0.0016  0.0069 -0.3131
27332W        W28196   8.625  28.667  12.950  0.2040  0.1582 -0.0840
27333W        W28197   5.691   2.992  13.992  0.0229 -0.2228 -0.1412
27334W        W28198   8.137   3.240  12.002 -0.1204  0.2548  0.0827
27335W        W28199   5.917   2.433  15.314 -0.0965 -0.0751 -0.0875
27336W        W28200   5.216   4.656  12.802  0.1745 -0.3319 -0.1114
27337W        W28201   5.114   4.129  14.599 -0.2291  0.1327 -0.1914
27338W        W28202   7.150   1.869  13.163 -0.1551 -0.0520  0.2284
27339W        W28203   8.394   0.289  13.295  0.0207 -0.1523  0.1400
27340W        W28204   3.639   4.631  13.874  0.1315  0.0979 -0.2663
27341W        W28205   8.279  28.588  12.056 -0.1344 -0.1268  0.0106
27342W        W28206   6.333   1.308  12.989  0.0083 -0.0650 -0.2659
27343W        W28207   3.063   3.963  10.306  0.0716 -0.0311 -0.1659
27344W        W28208   3.461   2.373  14.124  0.0074 -0.0976 -0.0177
27345W        W28209   5.223   2.737  13.788 -0.0269 -0.0197 -0.1155
27346W        W28210   5.645   0.799  12.061  0.3965  0.0646 -0.2826
27347W        W28211   5.753   1.682  13.735 -0.0359  0.0640  0.1284
27348W        W28212   6.128   2.357  12.870 -0.0555  0.1056 -0.0655
27349W        W28213   2.701   2.085  13.035  0.0354 -0.2057 -0.0448
27350W        W28214   5.670   3.344  13.365 -0.0786  0.1474  0.0271
27351W        W28215   4.868  28.812  10.658  0.1054  0.0082  0.2853
27352W        W28216   7.973   2.130  15.799 -0.1507 -0.0935 -0.0702
27353W        W28217   5.159   4.262  16.007  0.1948  0.0216 -0.0928
27354W        W28218   5.778   4.618  13.017  0.1482 -0.3760  0.2405
27355W        W28219   5.451  28.448  11.699  0.5294  0.0124  0.0220
27356W        W28220   3.757   4.668  14.442 -0.1303 -0.2224  0.4532
27357W        W28221   6.293   1.544  14.677  0.0933  0.0240 -0.0583
27358W        W28222   3.646   2.528  14.643  0.0307 -0.2234 -0.3158
27359W        W28223   4.775   3.936  12.420 -0.0416  0.0253  0.1994
27360W        W28224   4.498   4.624  14.079  0.0350  0.1428  0.1612
27361W        W28225   6.885   1.535  15.122 -0.0243  0.2222 -0.0190
27362W        W28226   5.703  28.430  14.672  0.2605 -0.1300  0.0391
27363W        W28227   8.025  28.187  11.160 -0.0428 -0.0012  0.1727
27364W        W28228   2.698   2.491  11.736 -0.0733  0.0013 -0.1271
27365W        W28229   7.283   1.415  13.330 -0.0273  0.0793 -0.1114
27366W        W28230   5.687   2.705  13.559 -0.1935 -0.0880  0.0495
27367W        W28231   8.588   2.317  11.794 -0.0005 -0.0324 -0.2476
27368W        W28232   6.796   0.355  12.099  0.3659 -0.0236  0.2067
27369W        W28233   9.080   0.069  11.164  0.0158  0.0582  0.0784
27370W        W28234   5.440   4.027  11.638  0.0544  0.2228  0.0672
27371W        W28235   6.857   0.303  11.243  0.0101  0.1150  0.1395
27372W        W28236   3.008   4.171  14.350 -0.0331  0.0261  0.0371
27373W        W28237   5.790   2.088  13.064  0.0451  0.2080 -0.0305
27374W        W28238   4.237   2.823  12.017 -0.1570 -0.0138  0.0578
27375W        W28239   5.393   2.417  13.207  0.0084  0.0953 -0.2558
27376W        W28240   7.048  28.405  13.904 -0.1778 -0.0912 -0.1207
27377W        W28241   4.342   2.389  15.793  0.0896 -0.2852 -0.1926
27378W        W28242   6.316   1.866  13.009 -0.0962 -0.1304 -0.2501
27379W        W28243   2.470  28.305  14.877 -0.0134 -0.1753  0.0703
27380W        W28244   6.649   1.189  14.781  0.0658  0.1815 -0.2564
27381W        W28245   3.783   3.406  15.047 -0.1465  0.2107  0.2657
27382W        W28246   0.757   0.669  14.724 -0.3085  0.1790  0.2887
27383W        W28247   8.634   2.514  13.085 -0.2790 -0.2259  0.0158
27384W        W28248   5.273   3.339  16.120 -0.2094  0.0207  0.2105
27385W        W28249   6.219   2.080  15.533 -0.2333  0.2323 -0.1993
27386W        W28250   4.432   5.192  10.202 -0.2640 -0.0029 -0.3153
27387W        W28251   3.866   5.103  14.623  0.0790 -0.0014  0.1966
27388W        W28252   4.605   4.382  11.694 -0.2983 -0.0712 -0.4486
27389W        W28253   5.941   6.247  10.085  0.0699  0.3393 -0.1308
27390W        W28254   2.701   2.914  13.896 -0.1387 -0.3248 -0.0448
27391W        W28255   3.051   2.616  14.070  0.1000  0.2833  0.0722
27392W        W28256   6.733  28.961  11.134  0.1033 -0.0319 -0.1562
27393W        W28257   6.549   2.839  14.137  0.0244 -0.1243 -0.0490
27394W        W28258   1.623   3.711  15.233  0.0335 -0.1760 -0.3010
27395W        W28259   3.984  28.087  15.350  0.2202  0.1305 -0.1185
27396W        W28260   7.643   1.721  10.288 -0.0865  0.1528 -0.0404
27397W        W28261   3.171   4.494  13.937  0.1632  0.0466  0.0225
27398W        W28262   1.867   4.661   9.599  0.0496  0.1626  0.0386
27399W        W28263   6.752   0.416   8.882  0.2828  0.2517 -0.0852
27400W        W28264   1.868   3.680  17.251  0.4115 -0.0107 -0.0714
27401W        W28265   1.481   4.031  15.673 -0.0412 -0.3065 -0.4074
27402W        W28266   3.732   1.016  17.006  0.1413 -0.1418 -0.0410
27403W        W28267   9.321   3.844  15.433  0.1641  0.0733 -0.1122
27404W        W28268   5.334   3.688  15.730 -0.4101 -0.2006 -0.0913
27405W        W28269   6.113  28.480  13.057 -0.0439 -0.2062  0.0059
27406W        W28270   2.775  28.837  15.981 -0.0563  0.0055 -0.0726
27407W        W28271   3.711   3.235  15.596 -0.0522  0.2880 -0.1093
27408W        W28272   5.735   4.897  16.381 -0.0465 -0.0458 -0.0832
27409W        W28273   4.055  28.117  16.947  0.0330  0.1929  0.0220
27410W        W28274   5.016  28.834  16.630 -0.3974 -0.0027 -0.4099
27411W        W28275   5.898   0.933  16.136 -0.0622  0.0011 -0.4042
27412W        W28276   6.791   0.948  14.313 -0.2164 -0.3287 -0.2130
27413W        W28277   6.515   1.185  17.760 -0.0373  0.1995  0.1671
27414W        W28278   3.639  28.781  16.521  0.0051 -0.0592 -0.0960
27415W        W28279   4.335   3.948  18.857 -0.0459  0.1663 -0.1460
27416W        W28280   5.438   2.837  16.306 -0.1464 -0.1549 -0.1201
27417W        W28281   2.702   0.771  16.547  0.1707  0.1713  0.0787
27418W        W28282   7.626  28.276  14.503  0.1362 -0.1993 -0.1731
27419W        W28283   6.956   1.938  16.502 -0.1501  0.1674 -0.2605
27420W        W28284   6.203   3.382  16.055 -0.0754 -0.2099 -0.1215
27421W        W28285   6.609   1.895  16.174  0.3616  0.1436  0.2455
27422W        W28286   5.626   2.146  18.562  0.2068 -0.2650  0.0235
27423W        W28287   4.043   2.368  17.324 -0.2398 -0.0091 -0.1379
27424W        W28288   2.712   3.957  13.837 -0.0056  0.0800 -0.0036
27425W        W28289   5.125   1.639  16.683  0.2379  0.1242 -0.0752
27426W        W28290   6.728   0.001  18.653 -0.0295  0.2627  0.2398
27427W        W28291   3.712   2.353  16.881  0.0169 -0.1558 -0.0304
27428W        W28292   7.421   2.369  17.933 -0.1888 -0.4901 -0.2590
27429W        W28293   5.800   2.521  17.806 -0.0243  0.2135  0.0042
27430W        W28294   1.097   1.090  14.914  0.1069  0.1066  0.0104
27431W        W28295   5.707   5.637  19.002 -0.2939  0.1514  0.5879
27432W        W28296   3.113   4.186  19.214 -0.1363 -0.1077 -0.4889
27433W        W28297   5.984   3.634  17.472 -0.0681  0.2302  0.2701
27434W        W28298   6.808   0.453  16.046 -0.2033  0.1883  0.0647
27435W        W28299   6.685   3.280  16.629 -0.0454 -0.0026 -0.1082
27436W        W28300   6.777  28.956  16.860 -0.0120 -0.1220  0.2779
27437W        W28301   2.649   3.348  17.646  0.1491 -0.0708  0.0014
27438W        W28302   3.816  29.142  16.788  0.0096  0.0539  0.2075
27439W        W28303   9.015   1.103  15.846  0.0467 -0.5155 -0.1945
27440W        W28304   6.297  28.066  14.363  0.0464  0.0041  0.1656
27441W        W28305   5.734   2.506  14.119 -0.2127  0.1989  0.1529
27442W        W28306   4.349   5.392  19.872  0.1764 -0.2676  0.2157
27443W        W28307   2.953   1.562  15.266 -0.0210 -0.0604 -0.1244
27444W        W28308   4.095   2.859  16.228 -0.1129  0.0623 -0.2154
27445W        W28309   3.497   0.644  17.218  0.2098 -0.1041 -0.4252
27446W        W28310   3.759  27.348  16.776 -0.1995  0.1167  0.0534
27447W        W28311   4.132   1.336  16.894 -0.2179  0.2525 -0.2728
27448W        W28312   5.348   1.682  14.299  0.0789 -0.1022 -0.3323
27449W        W28313   7.111   3.318  13.475  0.0594 -0.2572  0.3028
27450W        W28314   6.237   2.533  16.252 -0.4625 -0.4436 -0.1774
27451W        W28315   2.710   0.564  15.095 -0.0559  0.1722 -0.0423
27452W        W28316   5.354   4.715  17.850  0.1126  0.2556  0.1587
27453W        W28317   7.139   4.138  14.269 -0.1843  0.3742 -0.1397
27454W        W28318   4.554  28.278  15.933 -0.2042  0.0819 -0.0659
27455W        W28319   1.294   5.559  13.619 -0.0716 -0.2042 -0.1620
27456W        W28320   4.995  27.536  13.994 -0.0669  0.1932  0.5436
27457W        W28321   3.358   1.605  16.376  0.0460  0.1452  0.0114
27458W        W28322   5.230   4.503  17.454 -0.0023  0.0389 -0.1022
27459W        W28323   5.428   3.000  17.622  0.0968 -0.3763 -0.2904
27460W        W28324   8.130  29.134  14.372 -0.2003 -0.2965  0.0179
27461W        W28325   1.817   3.679  17.733  0.0703  0.0222 -0.1976
27462W        W28326   3.562   2.925  16.012 -0.2280  0.0132  0.0988
27463W        W28327   4.033   2.285  16.421  0.2538  0.2086  0.3500
27464W        W28328   4.049   0.794  17.836  0.2885 -0.1355  0.0156
27465W        W28329   6.838   1.215  13.276  0.0948  0.0812 -0.0092
27466W        W28330   3.030   1.264  16.763  0.0746 -0.5057 -0.0721
27467W        W28331   5.034   3.596  14.536 -0.0134 -0.1756 -0.3447
27468W        W28332   1.734   3.381  16.335  0.3651 -0.4525  0.1240
27469W        W28333   4.579   3.582  16.756  0.3324 -0.1169 -0.0292
27470W        W28334   5.888   3.769  15.963 -0.0019  0.0530 -0.2136
27471W        W28335   5.486   0.664  15.924 -0.1222  0.0328  0.0198
27472W        W28336   6.679   4.572  14.966 -0.2403  0.1044  0.0016
27473W        W28337   7.934  28.271  16.849 -0.1246 -0.3187 -0.0064
27474W        W28338   7.089   3.259  17.439  0.0888 -0.0162  0.3024
27475W        W28339   2.949   2.900  19.601  0.0377 -0.0210  0.0795
27476W        W28340   2.676   1.101  16.113 -0.3395 -0.2545 -0.0941
27477W        W28341   1.734   3.517  18.221 -0.0484 -0.0541  0.1368
27478W        W28342   3.078  28.435  13.583  0.2529  0.0307  0.0933
27479W        W28343   7.363   2.596  17.071  0.3072  0.1515 -0.1357
27480W        W28344   4.598   1.337  19.101 -0.2061  0.0140  0.0602
27481W        W28345   4.084   1.319  18.990  0.0036  0.0110  0.2193
27482W        W28346   4.504   0.461  13.080  0.2205 -0.1173  0.0862
27483W        W28347   5.434  27.831  17.826  0.0958 -0.0665 -0.3378
27484W        W28348   0.401   3.515  18.866  0.1183  0.0757 -0.0281
27485W        W28349   5.176   2.011  14.636  0.5137 -0.1670  0.0033
27486W        W28350   7.806   4.536  15.916  0.1365  0.1101 -0.2709
27487W        W28351   5.135  27.757  19.773 -0.4483 -0.3588  0.2236
27488W        W28352   6.187   1.947  17.224  0.1567  0.1481 -0.2741
27489W        W28353   5.283   0.450  17.005 -0.0551  0.2336 -0.3888
27490W        W28354   4.779   1.197  14.568 -0.1651  0.5515  0.0582
27491W        W28355   3.928   3.200  19.708  0.1156 -0.2267 -0.0718
27492W        W28356   3.155   2.832  15.031 -0.1069  0.2863  0.1507
27493W        W28357   4.117   2.741  15.127  0.0356 -0.0737  0.2793
27494W        W28358   1.840   1.630  20.314 -0.2542  0.2008 -0.0103
27495W        W28359   7.393   0.424  17.052 -0.3549 -0.1656 -0.0287
27496W        W28360  11.255   4.590  14.224 -0.1248 -0.3785 -0.0468
27497W        W28361   3.881   3.097  18.989 -0.0577 -0.0486  0.1230
27498W        W28362   4.282  27.572  15.046  0.1636  0.1909  0.1505
27499W        W28363   6.211  27.323  17.354  0.0745 -0.0480  0.1328
27500W        W28364   3.609   6.670  14.213  0.1022 -0.1732 -0.4248
27501W        W28365   4.306   2.296  16.892  0.0801 -0.0848 -0.2297
27502W        W28366   7.211   1.637  15.555 -0.2628  0.1601 -0.0384
27503W        W28367   4.359   6.899  16.071 -0.0372 -0.1400 -0.2141
27504W        W28368   6.578   0.385  15.149 -0.0363 -0.1869 -0.1309
27505W        W28369   6.354  28.833  18.445 -0.0101 -0.1475 -0.2735
27506W        W28370   5.641   5.066  16.943  0.3241 -0.0917  0.0129
27507W        W28371   9.439   3.355  18.082 -0.3122  0.1648 -0.0295
27508W        W28372   5.707  28.678  13.263 -0.1131  0.1526 -0.1347
27509W        W28373   3.715  28.940  15.313 -0.3099 -0.0709  0.1012
27510W        W28374   3.962   2.337  15.446  0.1846  0.0643 -0.0353
27511W        W28375   4.792   4.223  17.383 -0.1440  0.0025  0.2092
27512W        W28376   8.051   1.839  14.488 -0.1536 -0.0528  0.2507
27513W        W28377   4.490   4.800  18.384  0.3013  0.0691 -0.3405
27514W        W28378   6.815   5.429  14.685  0.1539  0.0678  0.2545
27515W        W28379   3.793   0.183  14.992 -0.1892  0.0447 -0.1765
27516W        W28380   7.554  28.629  16.944 -0.0452 -0.1463 -0.0621
27517W        W28381   3.435   2.222  18.710 -0.0849 -0.4081  0.1191
27518W        W28382   4.455   1.184  17.934 -0.0333 -0.1781  0.0134
27519W        W28383   5.887   1.337  17.775  0.1316 -0.1068 -0.3670
27520W        W28384   7.554   2.833  16.442  0.3881  0.1096 -0.1054
27521W        W28385   5.951   0.381  14.208 -0.0600  0.3017 -0.0128
27522W        W28386   5.752   3.044  14.943 -0.2539  0.0260  0.0515
27523W        W28387   5.603  29.038  15.308  0.0661  0.1132  0.0030
27524W        W28388   6.324   2.545  17.849  0.0161 -0.2661  0.1668
27525W        W28389   5.858   3.123  16.756 -0.2345 -0.3280  0.0139
27526W        W28390   3.190  28.989  12.910  0.3146  0.0226  0.2976
27527W        W28391   3.884  28.900  15.789  0.3797 -0.1769  0.1257
27528W        W28392   6.923   1.046  17.518  0.4093  0.0223 -0.0421
27529W        W28393   3.315   5.108  18.317  0.1185 -0.0164 -0.4034
27530W        W28394   7.104   4.696  14.202  0.2359  0.1705 -0.0027
27531W        W28395   5.218   0.830  18.658 -0.3694 -0.1453  0.2801
27532W        W28396   2.961   3.663  15.759 -0.0007 -0.6823 -0.0184
27533W        W28397   5.000   0.904  15.030 -0.2365 -0.1238  0.1951
27534W        W28398   5.757   2.975  17.995  0.1087 -0.0097 -0.1208
27535W        W28399   4.910   2.973  17.745 -0.2017 -0.3072 -0.0486
27536W        W28400   8.593   1.046  16.189 -0.0679  0.3124  0.1808
27537W        W28401   6.783  28.412  18.367 -0.0180 -0.1391  0.0571
27538W        W28402   4.763   1.148  17.422  0.0357  0.5551 -0.0616
27539W        W28403   7.026   4.151  16.324 -0.1175  0.0011  0.2365
27540W        W28404   4.070   0.586  12.123 -0.0768  0.1743 -0.1370
27541W        W28405   5.149   0.330  14.955 -0.2066  0.1257  0.0672
27542W        W28406   3.377   4.149  17.194 -0.0508 -0.1330  0.0303
27543W        W28407   2.453   3.172  15.832 -0.1250  0.2968 -0.0534
27544W        W28408   4.315   1.979  18.434  0.0951 -0.1484 -0.1864
27545W        W28409   5.178   1.379  14.847 -0.1242  0.0393 -0.1840
27546W        W28410   5.976  27.126  15.776 -0.0208  0.2781 -0.0877
27547W        W28411   5.623   4.212  16.220  0.3451  0.0875 -0.2766
27548W        W28412   5.356   3.937  16.700  0.2221 -0.2343  0.1538
27549W        W28413   5.327   2.615  16.811  0.2510  0.0570  0.2045
27550W        W28414   7.324   1.799  14.941 -0.2263  0.0074 -0.1126
27551W        W28415   3.992  26.986  13.847  0.2946  0.0232  0.0411
27552W        W28416   5.352   2.158  16.598  0.0833 -0.0602 -0.1441
27553W        W28417   6.654  28.957  13.401 -0.1678 -0.2713  0.1402
27554W        W28418   4.486   0.832  14.996 -0.1342 -0.0409  0.1603
27555W        W28419   6.034   0.977  17.041 -0.0194  0.0266  0.2457
27556W        W28420   3.223   3.247  15.859 -0.0539 -0.1783  0.0800
27557W        W28421   5.546   2.147  15.044 -0.0124 -0.2014 -0.0080
27558W        W28422   5.498  27.564  13.994  0.0427 -0.2237  0.0338
27559W        W28423   4.235   2.457  14.612 -0.1871  0.0496 -0.0498
27560W        W28424   6.500   0.801  15.426 -0.5784  0.2258  0.0488
27561W        W28425   1.227   3.568  16.387 -0.0132  0.1583  0.3642
27562W        W28426   3.839   1.415  17.347 -0.2443  0.0254  0.0056
27563W        W28427   6.850   1.466  16.685  0.4673  0.0351  0.0243
27564W        W28428   5.378   2.253  15.994 -0.2410  0.2228  0.1193
27565W        W28429   5.077  27.445  16.666  0.1245 -0.4264 -0.2315
27566W        W28430   5.536  28.344  17.650  0.3514  0.1593  0.1875
27567W        W28431   4.494   2.481  15.033 -0.1022  0.1541 -0.0131
27568W        W28432   2.497   4.137  19.019  0.1675  0.0976 -0.0815
27569W        W28433   4.534   2.725  15.412 -0.1463 -0.0093 -0.2585
27570W        W28434   5.179   2.909  17.213  0.4834  0.2731  0.0865
27571W        W28435   4.971   1.957  16.261  0.0608 -0.1635 -0.1202
27572W        W28436   3.199   2.792  15.508  0.2102  0.4171 -0.1848
27573W        W28437   5.201   2.978  14.326 -0.2523 -0.2991  0.2483
27574W        W28438   5.341  27.911  15.948 -0.0484 -0.1606  0.1143
27575W        W28439   6.947   2.894  14.423 -0.1743  0.2823  0.1072
27576W        W28440   1.994   3.161  17.903 -0.0775 -0.0592  0.0090
27577W        W28441   5.470   1.460  15.693  0.0575  0.1242  0.0751
27578W        W28442   2.615   0.504  12.766  0.0792  0.0681  0.1116
27579W        W28443   7.537  27.638  15.594  0.1750  0.0031  0.0238
27580W        W28444   3.769   3.591  14.546 -0.0569  0.1898  0.3260
27581W        W28445   6.400   4.115  14.948  0.1509  0.0659 -0.0718
27582W        W28446   5.029   1.615  13.027  0.2374  0.0378 -0.2848
27583W        W28447   3.978   2.051  14.507 -0.2383  0.3145 -0.3020
27584W        W28448   7.211  27.794  12.793 -0.0252  0.0117  0.1606
27585W        W28449   9.383   5.465  16.270 -0.0510  0.0930  0.1818
27586W        W28450   4.693  28.566  14.765 -0.1544  0.1968 -0.0148
27587W        W28451   3.475   0.535  12.500  0.2169 -0.1060  0.0284
27588W        W28452   3.455   1.502  17.691 -0.0408  0.0119  0.0273
27589W        W28453   2.886   1.589  17.128  0.3417 -0.2131 -0.1561
27590W        W28454   4.242   3.914  12.408  0.0837  0.1205  0.2866
27591W        W28455   3.160   3.538  14.050  0.0440 -0.0970 -0.1698
27592W        W28456   2.197   4.029  17.247  0.4160 -0.0704 -0.4676
27593W        W28457   2.713   0.812  18.423  0.0602 -0.0490  0.1212
27594W        W28458   6.215   1.170  15.776  0.0661 -0.0580 -0.1844
27595W        W28459   4.072  28.439  15.681 -0.1069 -0.0382  0.1242
27596W        W28460   4.831   2.140  16.771 -0.0400  0.3653  0.0479
27597W        W28461   2.617  26.555  19.647 -0.0406  0.1597 -0.0408
27598W        W28462   4.004  28.941  17.446  0.0153  0.2056 -0.0825
27599W        W28463   9.006   1.944  13.612 -0.3241 -0.0696 -0.1331
27600W        W28464   3.526   2.605  17.245 -0.2416 -0.2211 -0.4791
27601W        W28465   1.816  28.570  16.600  0.1934  0.0505 -0.4488
27602W        W28466   5.039   4.482  16.489  0.0769  0.0672  0.1216
27603W        W28467   5.116  28.204  15.376 -0.0221  0.1727  0.2939
27604W        W28468   3.620  28.707  17.633 -0.0120 -0.0694  0.0630
27605W        W28469   2.156   0.619  15.770  0.0807  0.1948 -0.1120
27606W        W28470   3.124   3.190  20.541  0.0317  0.2063  0.2090
27607W        W28471   2.373   1.942  17.727  0.3390 -0.0545  0.2269
27608W        W28472   3.906   4.950  16.948  0.1538  0.2274  0.1393
27609W        W28473   2.022   3.026  16.091 -0.0902  0.2180 -0.2696
27610W        W28474   4.288   0.039  18.132  0.0783 -0.0426 -0.1598
27611W        W28475   1.727  28.026  17.556 -0.3436 -0.1052 -0.2950
27612W        W28476   4.662   1.691  16.660  0.1811  0.1040 -0.0070
27613W        W28477   8.147   0.465  16.627 -0.0106 -0.1471 -0.1804
27614W        W28478   6.249   0.799  14.996 -0.0141  0.0831 -0.2936
27615W        W28479  10.846   3.478  15.356 -0.1241 -0.0518 -0.0972
27616W        W28480   8.435   1.907  13.908 -0.0052 -0.3232 -0.0384
27617W        W28481   4.987   2.335  15.015 -0.0653 -0.0720  0.1729
27618W        W28482   7.454   2.343  16.168 -0.3292  0.0440 -0.1392
27619W        W28483   5.153   4.229  19.317  0.1314 -0.0350 -0.2790
27620W        W28484   6.222  27.238  16.803 -0.0983  0.4010 -0.0447
27621W        W28485   6.128   0.998  18.066  0.0586 -0.0332  0.0904
27622W        W28486   6.450   1.723  19.184  0.0306 -0.3191  0.0603
27623W        W28487   6.347  28.737  14.232 -0.1402 -0.1365  0.2643
27624W        W28488   7.406   2.416  15.713  0.0628 -0.0653  0.1541
27625W        W28489   4.958   0.253  16.160  0.2836 -0.0902  0.2826
27626W        W28490   3.552   1.969  16.589 -0.1350  0.0684 -0.0056
27627W        W28491   4.922   0.662  17.338 -0.1480 -0.0948  0.0129
27628W        W28492   5.493   3.744  14.774 -0.0543  0.3570 -0.3396
27629W        W28493   3.602   0.683  15.101 -0.0107  0.2905 -0.2796
27630W        W28494   4.062  27.327  17.780 -0.0290 -0.1168  0.1517
27631W        W28495   3.659   0.808  18.200  0.2504  0.1101 -0.0880
27632W        W28496   3.564   5.159  15.737 -0.1949  0.1315  0.0666
27633W        W28497   5.843   2.627  16.484 -0.4681  0.1252  0.1174
27634W        W28498   5.506   2.243  17.460 -0.1337 -0.1415 -0.4162
27635W        W28499   2.013   4.320  18.652 -0.2478 -0.2172 -0.0495
27636W        W28500   7.317   0.728  16.661  0.2362 -0.2142 -0.0108
27637W        W28501   5.199   0.586  17.747 -0.3469 -0.2825 -0.0234
27638W        W28502   5.176  28.971  12.702  0.0692 -0.0399 -0.1670
27639W        W28503   7.119   2.959  15.647  0.0535  0.0154  0.1340
27640W        W28504   5.292   2.310  15.433 -0.3928 -0.1955 -0.0548
27641W        W28505   0.018   3.564  18.565 -0.0046 -0.2718 -0.1117
27642W        W28506   3.617   0.678  16.249  0.0056  0.0686 -0.2534
27643W        W28507   4.199  27.436  13.958 -0.1114 -0.0409  0.0385
27644W        W28508   4.167  28.702  15.269  0.0907  0.1748 -0.1253
27645W        W28509   4.195   5.845  14.629 -0.1886 -0.0881  0.0522
27646W        W28510   6.087   2.949  14.346 -0.0246  0.3173 -0.0166
27647W        W28511   6.868   5.870  17.589  0.2058  0.1356 -0.1848
27648W        W28512   4.541   2.864  15.915  0.1998 -0.0893 -0.0224
27649W        W28513   4.814   0.982  16.226  0.0851  0.2588  0.0596
27650W        W28514   5.666   1.765  16.511 -0.0454 -0.0213 -0.0345
27651W        W28515   3.895   5.074  18.412  0.1336  0.2857 -0.0584
27652W        W28516   7.334   3.440  20.616 -0.0424  0.1893 -0.1017
27653W        W28517   4.550   2.645  16.502  0.1855  0.0296  0.1143
27654W        W28518   2.780   1.256  13.999  0.0803 -0.0515  0.1000
27655W        W28519   4.496   4.920  15.914  0.1081 -0.2069  0.2044
27656W        W28520   6.922  27.488  13.817  0.1502 -0.2964  0.1596
27657W        W28521   2.506   0.267  18.086  0.4612  0.0426  0.0276
27658W        W28522   5.813   3.362  14.567 -0.1786 -0.2349 -0.3098
27659W        W28523   7.544   1.953  15.831  0.1276 -0.0358  0.0431
27660W        W28524   1.000   0.460  13.534  0.0698 -0.1209 -0.0747
27661W        W28525   7.050   2.026  17.827  0.1980 -0.3610 -0.0221
27662W        W28526   6.981   0.665  17.247  0.0225 -0.3225 -0.1626
27663W        W28527   3.855   1.287  17.953  0.0884 -0.0772  0.1753
27664W        W28528   3.992   2.815  18.060  0.3254  0.0059 -0.1822
27665W        W28529   2.642   0.542  17.685 -0.1572  0.1239  0.0854
27666W        W28530   3.182   4.189  16.678  0.1978 -0.0783  0.1432
27667W        W28531   5.477   2.825  15.819 -0.1496 -0.0019 -0.0779
27668W        W28532   3.436  29.026  19.613  0.2239  0.1849  0.1733
27669W        W28533   6.962   1.534  14.321 -0.1444  0.2573  0.2549
27670W        W28534   3.838   2.655  17.634  0.0465  0.0841 -0.0680
27671W        W28535   5.222   1.215  19.121  0.0405  0.0766  0.2033
27672W        W28536   6.089   2.722  16.911 -0.0025  0.1970 -0.0104
27673W        W28537   4.521   0.857  17.114  0.1991 -0.0495  0.0539
27674W        W28538   5.496   3.528  17.587  0.3278 -0.1270  0.0244
27675W        W28539   7.747   0.002  18.557  0.0240 -0.1388  0.0774
27676W        W28540   5.443   0.156  16.050 -0.0865  0.0380 -0.2113
27677W        W28541   6.446   0.882  13.372 -0.0941 -0.3364  0.3415
27678W        W28542   2.758   0.052  16.471 -0.3054 -0.1691  0.0692
27679W        W28543   4.491   3.362  17.745  0.1860  0.0498  0.0127
27680W        W28544   2.644   1.584  17.944 -0.0026  0.1162  0.1521
27681W        W28545   7.759   0.358  16.113 -0.2793  0.0762 -0.1329
27682W        W28546   1.775   1.059  12.072 -0.1887  0.0637 -0.0465
27683W        W28547   1.250   5.086  18.334 -0.1056  0.2138 -0.0680
27684W        W28548   9.028   5.315  14.869  0.0924  0.0040 -0.2664
27685W        W28549   7.002  27.703  17.733  0.0011  0.2106 -0.1025
27686W        W28550   3.254   2.825  16.465 -0.1866  0.1708  0.0905
27687W        W28551   1.107   1.544  19.306  0.1768  0.1738  0.2206
27688W        W28552   6.804   2.393  14.172  0.2251 -0.1520 -0.3198
27689W        W28553   4.487   1.575  15.469  0.1018  0.1112 -0.0880
27690W        W28554   6.728   0.625  14.794  0.1669 -0.1788 -0.4976
27691W        W28555   9.070   0.939  13.059  0.1849 -0.1646 -0.1673
27692W        W28556   7.350   0.138  12.915 -0.1943 -0.0155  0.0141
27693W        W28557   3.575  27.864  16.823  0.0196  0.2327 -0.0530
27694W        W28558   4.023   3.464  18.717  0.0864  0.0513 -0.2209
27695W        W28559   7.999   0.572  13.524 -0.0245  0.0137 -0.0448
27696W        W28560   4.516   2.061  17.429  0.0859 -0.0738 -0.0087
27697W        W28561   7.432  28.324  16.333  0.0660 -0.0568 -0.0207
27698W        W28562   8.547   0.220  16.796  0.1821 -0.2752 -0.3449
27699W        W28563   0.161   4.335  17.825  0.1791  0.1718  0.1017
27700W        W28564   3.184   3.025  13.881 -0.2258  0.2055  0.2268
27701W        W28565   4.850   0.707  16.755  0.2909 -0.1506 -0.2651
27702W        W28566   5.131   3.908  17.566 -0.4056 -0.0486 -0.0406
27703W        W28567   4.451   2.906  18.008  0.0081  0.0722  0.0361
27704W        W28568   4.260   4.503  15.624  0.1505  0.1045  0.0855
27705W        W28569   4.902   3.950  16.956  0.1584 -0.0663  0.2838
27706W        W28570   7.305   3.468  15.659  0.0947 -0.0864  0.2415
27707W        W28571   5.030  29.058  14.664  0.1932  0.0679  0.0735
27708W        W28572   5.043   0.618  13.267  0.1478  0.1130  0.1447
27709W        W28573   1.288   2.420  16.386 -0.0483  0.0588 -0.2146
27710W        W28574   6.946   1.029  15.197  0.0384 -0.0920 -0.0051
27711W        W28575   4.038   2.693  16.720 -0.0746  0.2744 -0.0932
27712W        W28576   4.210   3.328  17.035  0.2978  0.1385  0.1446
27713W        W28577   7.038   1.126  18.041 -0.0833  0.0056  0.2061
27714W        W28578   7.505   4.978  17.664 -0.1854  0.3393 -0.0191
27715W        W28579   5.263   1.464  17.277  0.0380  0.0035  0.1512
27716W        W28580   3.838   2.166  14.980  0.2812  0.0388 -0.2062
27717W        W28581   5.563   0.492  13.255 -0.0915  0.0125 -0.0734
27718W        W28582   6.754   6.922  16.153 -0.0550  0.2973 -0.0258
27719W        W28583   4.041   4.458  16.653  0.1544  0.1365 -0.1323
27720W        W28584   4.218   3.301  18.173 -0.2509  0.2430 -0.4290
27721W        W28585   6.753   4.082  13.761  0.2144  0.0959 -0.0830
27722W        W28586   1.912   2.691  17.940  0.2123 -0.2210  0.0233
27723W        W28587   5.965   1.313  16.606 -0.0108  0.1238 -0.2756
27724W        W28588   3.356   2.115  17.152 -0.1949  0.0790  0.1132
27725W        W28589   6.266   3.178  15.515  0.0460 -0.0432 -0.1118
27726W        W28590   4.941   0.709  14.601 -0.0403  0.1712  0.0902
27727W        W28591   1.582   1.465  15.494  0.0702  0.0659 -0.2875
27728W        W28592   5.073   1.426  15.413  0.1412 -0.1311  0.0107
27729W        W28593   3.674   1.104  16.533 -0.0499  0.1719  0.2601
27730W        W28594   4.105   1.232  15.868 -0.0136  0.1875 -0.2197
27731W        W28595   8.805   2.547  12.620 -0.0858 -0.2650  0.0102
27732W        W28596  10.663   5.210  16.608 -0.2658  0.0484 -0.0018
27733W        W28597   7.915   4.707  19.002  0.0281  0.2044 -0.2495
27734W        W28598   6.533   0.922  17.263  0.0109  0.1894 -0.1370
27735W        W28599   6.758   2.018  17.325  0.2330  0.3520 -0.3998
27736W        W28600   4.745   3.291  18.241 -0.3601  0.2752 -0.0825
27737W        W28601   6.607   4.012  15.439  0.1066 -0.0145 -0.0347
27738W        W28602   5.666   2.280  14.532  0.1424 -0.0308 -0.1258
27739W        W28603   3.506   2.383  16.337  0.2988 -0.3288  0.3301
27740W        W28604   1.745   4.690  18.558 -0.0736  0.0934  0.0918
27741W        W28605   3.786   3.623  18.282  0.3381 -0.0985  0.0323
27742W        W28606   5.157  27.398  16.027  0.0858 -0.4175 -0.0438
27743W        W28607   2.992   2.405  14.950  0.3898 -0.0048 -0.0635
27744W        W28608   6.187   2.876  15.096 -0.1349  0.0006  0.3412
27745W        W28609   3.651   3.450  19.339  0.1574 -0.1243 -0.1251
27746W        W28610   3.559   3.095  17.449 -0.0592  0.2400 -0.0529
27747W        W28611   1.780   0.948  16.912  0.0397 -0.3632  0.0243
27748W        W28612   5.242   1.027  17.552  0.0073 -0.0235  0.2517
27749W        W28613   3.051  28.530  14.095 -0.0224 -0.1109  0.3790
27750W        W28614   7.232   3.810  16.649  0.2097 -0.3859 -0.0728
27751W        W28615   7.645   4.296  14.411 -0.0119 -0.0204  0.0574
27752W        W28616   5.104   1.894  15.602  0.3889  0.0629 -0.0421
27753W        W28617   5.742   4.542  15.357  0.1286 -0.1479  0.0793
27754W        W28618   3.162   3.286  17.718 -0.1439  0.1440  0.0095
27755W        W28619   7.595  28.656  15.983 -0.1324  0.0830 -0.0632
27756W        W28620   2.829   4.202  20.377  0.1635  0.2994 -0.1163
27757W        W28621   7.429   1.317  15.052  0.0908 -0.1033 -0.2340
27758W        W28622   5.131  27.962  18.715  0.0858  0.1028  0.0874
27759W        W28623   2.098   1.469  18.501  0.0942 -0.3536  0.1952
27760W        W28624   4.456   1.221  16.497 -0.1157  0.0932  0.2486
27761W        W28625   6.886   2.381  20.361  0.0686  0.4142 -0.2617
27762W        W28626   4.750   2.629  17.377  0.0526  0.1762 -0.0577
27763W        W28627   4.505   0.497  16.448 -0.2022  0.3098 -0.2682
27764W        W28628   5.288   3.044  18.470 -0.0411 -0.0721  0.3943
27765W        W28629   4.843   3.401  14.970 -0.0902 -0.0274 -0.1204
27766W        W28630   6.406   3.682  15.133 -0.5947  0.0637  0.0786
27767W        W28631   5.801   2.195  16.944 -0.3825  0.1251 -0.2084
27768W        W28632   7.302  29.090  14.701  0.0805  0.2380  0.2170
27769W        W28633   6.631   0.277  17.304  0.2216  0.1774 -0.0431
27770W        W28634   2.897   3.210  14.846 -0.0630  0.1049  0.3511
27771W        W28635   6.149   2.070  16.013  0.2308 -0.3606 -0.0962
27772W        W28636   5.377   2.135  12.770 -0.2816  0.0051  0.0752
27773W        W28637   6.939   0.632  17.825  0.1274  0.0470  0.2832
27774W        W28638   5.945   5.808  15.861  0.1417  0.4559 -0.0757
27775W        W28639   3.789   0.942  19.129  0.0054  0.4006 -0.0727
27776W        W28640   3.427   3.806  17.894  0.0774 -0.0356 -0.0756
27777W        W28641   6.343   4.921  16.272  0.1713 -0.1213  0.3391
27778W        W28642   6.233  28.860  16.546  0.2386  0.4162 -0.1927
27779W        W28643   2.713   2.731  19.207  0.0345  0.1753  0.1241
27780W        W28644   4.526   2.323  19.755 -0.2673  0.5182 -0.1991
27781W        W28645   2.276   4.765  15.914 -0.1217 -0.1037  0.1164
27782W        W28646   3.992   0.381  16.355 -0.0969  0.0041  0.2303
27783W        W28647   7.847   0.654  16.960 -0.0766  0.2147  0.0452
27784W        W28648   4.905   3.736  18.040 -0.2625  0.1670  0.0542
27785W        W28649   4.892   1.699  17.204  0.0079 -0.3343  0.0110
27786W        W28650   4.631   6.863  14.238  0.0516  0.1378 -0.1240
27787W        W28651   5.500   1.235  16.281 -0.0772 -0.1018 -0.1201
27788W        W28652   1.767   4.527  18.066  0.1179 -0.2898  0.0859
27789W        W28653   5.599  28.188  19.810  0.0805 -0.2206  0.0303
27790W        W28654   5.872   3.187  18.503 -0.1031 -0.0101  0.0963
27791W        W28655   2.184   4.647  18.303 -0.2267  0.0466 -0.0232
27792W        W28656   4.490   4.134  15.132 -0.1582 -0.1830  0.0629
27793W        W28657   5.722   3.751  16.485 -0.0319  0.1973  0.0169
27794W        W28658   2.773   3.030  19.998  0.3679  0.3421  0.0814
27795W        W28659   4.515   2.033  17.981  0.0582 -0.0299 -0.0269
27796W        W28660   3.141   5.000  17.166  0.0913 -0.0242 -0.0093
27797W        W28661   7.532   1.553  18.486 -0.3999 -0.2432  0.0889
27798W        W28662   4.104   3.329  16.423 -0.2743 -0.1232  0.1920
27799W        W28663   3.457   2.049  15.519  0.1745 -0.2002  0.1248
27800W        W28664   3.878   4.571  20.228 -0.2709  0.0428  0.1602
27801W        W28665   5.318   1.835  21.046  0.3280  0.1197  0.1917
27802W        W28666   4.628   1.598  17.690  0.1709  0.2130 -0.0782
27803W        W28667   8.554   3.917  21.684 -0.1871  0.0448 -0.0395
27804W        W28668   5.920   4.094  18.079  0.0594 -0.0633 -0.0605
27805W        W28669   5.923   2.926  17.544  0.0063 -0.0955  0.1675
27806W        W28670   4.180   1.755  19.266 -0.1440  0.1967  0.0722
27807W        W28671   4.181   4.819  20.654  0.2646 -0.1149 -0.5746
27808W        W28672   7.614   3.785  20.866  0.1366 -0.0965  0.0395
27809W        W28673   4.334  28.962  21.679  0.1115  0.0504  0.2717
27810W        W28674   5.309   4.038  19.745 -0.1039  0.2215 -0.1660
27811W        W28675   5.854   1.609  17.021 -0.2085  0.1242 -0.0566
27812W        W28676   5.302   1.786  18.214 -0.0012  0.2757 -0.1622
27813W        W28677   6.356   2.563  22.578 -0.0388  0.2065 -0.4938
27814W        W28678   1.219   0.480  20.909  0.3209 -0.0035  0.0536
27815W        W28679   7.026   3.929  22.103 -0.3869  0.0383 -0.0269
27816W        W28680   4.159   2.330  20.114  0.0704 -0.0820 -0.0754
27817W        W28681   6.599   4.139  19.260 -0.0777 -0.0988  0.3422
27818W        W28682   6.669   0.594  20.569  0.0893 -0.0999  0.1048
27819W        W28683   4.384   1.658  17.157  0.1064  0.0733 -0.2630
27820W        W28684   4.392   1.700  20.748  0.2820  0.2048  0.1824
27821W        W28685   6.830   2.002  18.395 -0.3797 -0.3848 -0.1175
27822W        W28686   4.706   2.497  19.276  0.0087 -0.0925  0.0530
27823W        W28687   4.678   3.899  20.618 -0.1972 -0.2239 -0.0064
27824W        W28688   4.014   0.006  21.267  0.0958 -0.2913 -0.0132
27825W        W28689   4.972   2.611  20.470  0.1462  0.0348 -0.0390
27826W        W28690   6.364   2.137  20.454 -0.0589  0.0273 -0.0691
27827W        W28691   6.301   1.582  18.042  0.1791 -0.0559 -0.3497
27828W        W28692   5.429   0.646  19.766 -0.2398  0.1982  0.0402
27829W        W28693   6.055   0.774  19.164  0.1579  0.2641 -0.0794
27830W        W28694   5.843   3.260  19.860  0.0129 -0.0015  0.0481
27831W        W28695   6.867   5.544  18.039  0.0009 -0.5217  0.0396
27832W        W28696   5.595   4.360  20.007 -0.4393  0.3127  0.2451
27833W        W28697   5.858   3.297  21.241  0.2215  0.1768 -0.1773
27834W        W28698   2.984   1.926  20.746 -0.0931 -0.2825 -0.0670
27835W        W28699   6.644   3.650  22.347 -0.2693  0.4534 -0.1245
27836W        W28700   4.334   2.325  18.847  0.0862 -0.1251 -0.1913
27837W        W28701   5.646   4.027  17.375  0.0102 -0.2735 -0.1258
27838W        W28702   5.616   2.028  20.373  0.4115 -0.1543  0.0184
27839W        W28703   6.138  28.429  20.061  0.0527  0.0521  0.2052
27840W        W28704   8.008   2.683  18.688 -0.0714  0.0373  0.0482
27841W        W28705   7.858   3.169  22.643 -0.2212  0.1829 -0.0967
27842W        W28706   6.023   2.322  20.079  0.1548  0.1490 -0.2912
27843W        W28707   8.330   3.854  16.662  0.1683 -0.1583 -0.0908
27844W        W28708   3.993   4.430  19.647 -0.0633  0.0919 -0.1808
27845W        W28709   3.550   2.384  19.960 -0.2566  0.1386 -0.3647
27846W        W28710   5.339   0.682  20.596  0.0839 -0.1037 -0.0140
27847W        W28711   6.904   5.232  19.957  0.0252  0.2484  0.1711
27848W        W28712   7.142   2.474  18.432 -0.3661  0.0472 -0.0122
27849W        W28713   6.961   2.319  18.923 -0.1448  0.1830  0.0450
27850W        W28714   5.124   3.031  19.500 -0.0199  0.0317 -0.2008
27851W        W28715   5.481   0.389  22.316 -0.0086 -0.1993 -0.2144
27852W        W28716   6.482   2.552  20.751  0.2087  0.0185  0.1313
27853W        W28717   6.466   2.712  18.833  0.1609  0.3432  0.1711
27854W        W28718   6.364  29.005  20.055  0.3356 -0.4892 -0.5420
27855W        W28719   4.180   3.198  15.919  0.2852 -0.2037  0.1193
27856W        W28720   6.146   0.275  19.180  0.4698  0.1360  0.0163
27857W        W28721   6.335   0.135  21.386 -0.1446 -0.1824  0.1149
27858W        W28722   4.440   4.567  20.113 -0.0480 -0.0269 -0.2150
27859W        W28723   5.309   3.819  16.198  0.1108 -0.0188  0.0368
27860W        W28724   7.514   2.566  18.948  0.1006 -0.1508 -0.2077
27861W        W28725   7.262   4.245  21.137 -0.3969 -0.0098 -0.0209
27862W        W28726   6.232   4.274  22.615 -0.0348 -0.0673 -0.0208
27863W        W28727   4.206   1.892  20.321  0.0970 -0.1609  0.1561
27864W        W28728   5.338   1.726  22.025 -0.0824  0.0748  0.0256
27865W        W28729   7.592   1.935  21.864 -0.0579 -0.0757  0.0890
27866W        W28730   3.436   2.926  19.218  0.0565 -0.0343  0.0491
27867W        W28731   3.432   3.230  18.784 -0.4379 -0.1006 -0.1442
27868W        W28732   4.287   4.096  19.480  0.3022  0.1983  0.0082
27869W        W28733   3.580   3.652  19.931  0.1911  0.0917  0.1853
27870W        W28734   9.004   1.953  20.209 -0.0332  0.0146  0.3021
27871W        W28735   3.527   1.454  18.966 -0.1084  0.0743 -0.1298
27872W        W28736   6.918   1.874  19.214 -0.1284  0.2085  0.0903
27873W        W28737   5.882   2.817  20.342 -0.1432 -0.1024  0.0185
27874W        W28738   8.965   6.559  18.794  0.0935  0.1363 -0.0043
27875W        W28739   6.419   3.214  18.509  0.2410  0.0614 -0.1542
27876W        W28740   6.038   2.432  17.397 -0.2936 -0.3747 -0.0091
27877W        W28741   6.286   0.550  21.026  0.1662 -0.2822  0.2171
27878W        W28742   7.339   1.592  17.979  0.0478  0.0347 -0.0820
27879W        W28743   5.992   2.012  19.080 -0.2352  0.1514  0.0441
27880W        W28744   1.698   3.854  20.573  0.3720  0.0355  0.0746
27881W        W28745   4.184   2.259  19.321  0.0296  0.0442  0.2471
27882W        W28746   4.757   1.848  19.878  0.3297  0.2166  0.0066
27883W        W28747   3.888   0.397  20.974  0.3292  0.2019  0.0268
27884W        W28748   4.584   0.458  19.533 -0.0050 -0.0996 -0.0820
27885W        W28749   3.084   0.250  17.424  0.0102 -0.1213  0.1439
27886W        W28750   8.496   0.847  20.472  0.0456 -0.1336  0.0988
27887W        W28751   7.090  28.962  20.888 -0.0048 -0.1829  0.1767
27888W        W28752   6.406   1.911  23.686 -0.3330  0.2834  0.0178
27889W        W28753   7.168   2.655  21.352  0.0700  0.1621  0.1517
27890W        W28754   6.202   1.121  20.234  0.0590  0.2933  0.2664
27891W        W28755   8.024   3.972  20.544  0.3120 -0.1956  0.1582
27892W        W28756   2.142   4.292  20.457  0.0499  0.1254 -0.1989
27893W        W28757   1.161   1.669  18.787 -0.2926 -0.4385  0.0461
27894W        W28758   5.588   1.243  21.883  0.2517  0.1835  0.0682
27895W        W28759   7.121   2.134  19.546  0.0296  0.2249  0.0314
27896W        W28760   7.764   2.803  19.476  0.1805 -0.0207 -0.0005
27897W        W28761   2.769   2.875  20.659  0.0830  0.1496 -0.1573
27898W        W28762   7.476   0.364  19.469 -0.1552 -0.3902  0.0363
27899W        W28763   9.955  27.317  19.568 -0.0425 -0.1405  0.2124
27900W        W28764   8.852   4.961  17.873  0.2449 -0.1763 -0.0996
27901W        W28765   4.244   2.386  21.119 -0.0451 -0.2475  0.0905
27902W        W28766   4.815   0.851  17.883 -0.0020  0.0685  0.1225
27903W        W28767   5.812   1.710  18.123  0.0401  0.1512 -0.0557
27904W        W28768   6.850   2.250  21.361  0.0810 -0.3715  0.0352
27905W        W28769   6.160   0.430  19.693 -0.0674  0.0263 -0.0055
27906W        W28770   7.169   1.847  18.712  0.0350 -0.0891  0.2198
27907W        W28771   6.477   2.041  23.215  0.0172 -0.1777 -0.0690
27908W        W28772   2.232   1.975  20.232 -0.1854 -0.5498 -0.1308
27909W        W28773   6.173  28.791  20.471 -0.2342  0.0802 -0.1980
27910W        W28774   5.235   3.458  20.548 -0.2340 -0.0413  0.0587
27911W        W28775   6.891   2.942  18.551  0.2861  0.0774  0.3226
27912W        W28776   9.156   1.214  21.226 -0.1752 -0.0793 -0.0064
27913W        W28777   8.640   3.330  19.624  0.2272 -0.2379  0.0747
27914W        W28778   7.545   0.289  18.152 -0.1745 -0.0207 -0.0878
27915W        W28779   4.939   2.191  18.285  0.0350  0.5078 -0.0002
27916W        W28780  10.175   1.384  21.811 -0.1299 -0.2140 -0.0704
27917W        W28781   5.572   2.474  22.242  0.1845 -0.0510 -0.1104
27918W        W28782   6.185  28.225  22.252 -0.1409  0.1432  0.2337
27919W        W28783   2.141   2.510  19.406 -0.3334 -0.2368 -0.0207
27920W        W28784   6.759   3.430  20.443 -0.1110  0.1961 -0.0058
27921W        W28785   5.794   1.772  17.478 -0.1251  0.0664 -0.0448
27922W        W28786   8.178   2.717  19.214  0.0046  0.1586 -0.1087
27923W        W28787   4.765   0.787  19.112  0.0349 -0.1098 -0.1054
27924W        W28788   5.818   3.409  20.374 -0.1964  0.0296  0.0705
27925W        W28789   6.750   0.242  20.992  0.2955  0.1231 -0.0901
27926W        W28790   2.179   1.397  21.035 -0.1551  0.2071 -0.0074
27927W        W28791  10.339   3.647  20.912  0.3310  0.1048  0.1742
27928W        W28792   8.080   3.490  18.201 -0.1764  0.3848 -0.2867
27929W        W28793   3.732   3.057  20.720  0.2379  0.1450  0.0330
27930W        W28794   6.288   3.413  20.620  0.3053 -0.0753  0.0050
27931W        W28795   6.336   0.451  21.846 -0.2280  0.0689  0.2849
27932W        W28796   7.447   6.357  23.562  0.3284 -0.4031  0.0436
27933W        W28797   5.627   0.900  17.824  0.0454 -0.2415 -0.1328
27934W        W28798   7.154   2.729  23.077 -0.3611  0.0809  0.0826
27935W        W28799   1.077   2.335  20.570 -0.1497 -0.2559  0.1318
27936W        W28800   5.012  28.820  18.320  0.0286  0.3135  0.1962
27937W        W28801   7.621   1.967  20.700 -0.0187  0.0334 -0.0059
27938W        W28802   7.912   4.381  19.677  0.1308 -0.3454 -0.0760
27939W        W28803   7.114   4.512  19.257  0.1507 -0.1641 -0.3233
27940W        W28804   3.433   1.087  19.406  0.2708 -0.3876  0.1322
27941W        W28805   9.624   0.298  17.541  0.2642 -0.4223 -0.0725
27942W        W28806   5.942   1.557  16.053  0.1984 -0.0455  0.1791
27943W        W28807   1.435   3.283  19.353  0.1727  0.0013  0.1476
27944W        W28808   7.005   4.331  20.167 -0.2744 -0.1268 -0.1468
27945W        W28809   3.886  28.914  19.910  0.0417 -0.0946  0.2322
27946W        W28810   7.806   2.277  19.444  0.2764 -0.1999  0.1593
27947W        W28811   7.669   3.020  17.833  0.0398  0.0869 -0.0940
27948W        W28812   5.487   7.267  19.488  0.0497  0.0611  0.2599
27949W        W28813   4.875   2.736  18.293  0.1142 -0.3217 -0.0531
27950W        W28814  10.809   4.269  21.659 -0.2257  0.0049 -0.0625
27951W        W28815   3.822   0.760  21.664 -0.0268  0.1697  0.1851
27952W        W28816   4.593   4.412  19.220  0.0408 -0.0434  0.0493
27953W        W28817   6.668  28.665  18.769  0.1104 -0.0229 -0.3152
27954W        W28818   5.354   2.990  20.060  0.0583  0.2703  0.2599
27955W        W28819   3.625  29.023  20.335  0.1379  0.1061 -0.1297
27956W        W28820   6.331   3.426  19.502  0.1472  0.0819  0.0470
27957W        W28821   4.348   3.261  19.021  0.2528 -0.0402 -0.1844
27958W        W28822   4.909  28.674  19.575  0.1547 -0.0031  0.0668
27959W        W28823   2.945  28.395  20.398  0.1296 -0.1451 -0.1389
27960W        W28824   4.646   1.260  20.644 -0.1362  0.6506 -0.2588
27961W        W28825   6.654   4.597  21.761  0.0095  0.1817  0.1235
27962W        W28826   5.268   2.313  20.776 -0.1007 -0.3229  0.1809
27963W        W28827   5.878   4.741  19.237  0.1789 -0.2133  0.1597
27964W        W28828   3.804  28.454  20.787  0.0000 -0.2073 -0.0741
27965W        W28829   2.598   3.368  20.304  0.1254  0.0273 -0.0899
27966W        W28830   3.019   1.504  18.200  0.1214  0.0391  0.3769
27967W        W28831   3.762   3.104  18.439  0.1721  0.1748 -0.0919
27968W        W28832   8.422   3.830  20.846 -0.0127 -0.0079  0.1228
27969W        W28833   3.896   1.702  18.581  0.0471 -0.0720  0.1730
27970W        W28834   5.686   0.786  18.364 -0.1003 -0.0597  0.1108
27971W        W28835   6.129   1.920  18.515  0.1410 -0.0798  0.1070
27972W        W28836   4.720   1.006  18.309 -0.1952 -0.0113  0.0103
27973W        W28837   6.455   5.161  16.781 -0.3514  0.1084  0.0548
27974W        W28838   4.423  28.562  17.398  0.2217 -0.0041  0.1262
27975W        W28839   6.602   1.803  19.648  0.1830 -0.0987 -0.1222
27976W        W28840   5.701   2.749  22.651  0.2595 -0.0398  0.5623
27977W        W28841   6.627   3.765  21.742  0.3555  0.1745 -0.0672
27978W        W28842   3.566   5.281  17.154  0.1551  0.1629  0.0563
27979W        W28843   5.289   1.745  20.101  0.0597  0.2031  0.2392
27980W        W28844   5.354   3.464  19.948  0.2435  0.1854  0.4402
27981W        W28845   5.479   2.213  18.011 -0.2824  0.0005  0.0938
27982W        W28846   3.781   3.963  19.619 -0.1299 -0.0089  0.0445
27983W        W28847   3.861   0.964  19.640 -0.1296  0.1647 -0.3843
27984W        W28848   7.291   0.260  18.695 -0.2228 -0.0640 -0.2758
27985W        W28849   8.510   2.842  21.346 -0.1472 -0.0205 -0.3010
27986W        W28850   6.329   0.155  17.765  0.0931 -0.0301 -0.1572
27987W        W28851   3.373  29.081  21.423 -0.1983  0.0155 -0.1631
27988W        W28852   5.076   2.676  21.082 -0.0617 -0.0657  0.2155
27989W        W28853   4.358   2.521  17.669  0.4142  0.0243 -0.3638
27990W        W28854   2.131   5.547  18.563  0.1361  0.1674 -0.0356
27991W        W28855   0.065   6.375  18.756 -0.1250  0.2984 -0.0274
27992W        W28856   5.838   2.872  23.119  0.0164  0.2600 -0.0580
27993W        W28857   5.591  28.965  21.094  0.0520 -0.2762  0.3040
27994W        W28858   6.381   1.557  21.746 -0.0103  0.5540  0.0262
27995W        W28859   8.064   2.083  17.816 -0.0028  0.2515 -0.0163
27996W        W28860   5.502   0.238  18.477 -0.1080  0.0869  0.0105
27997W        W28861   3.138  28.871  20.254 -0.0137 -0.0997  0.4050
27998W        W28862   3.663   1.211  18.517 -0.0819  0.2539 -0.2052
27999W        W28863   6.394   3.235  21.108 -0.1456 -0.1276 -0.1029
28000W        W28864   3.480   1.547  16.830 -0.0886  0.0929 -0.2009
28001W        W28865   5.655   2.266  19.444 -0.3054 -0.0591  0.1830
28002W        W28866   6.353   3.170  17.843  0.1314 -0.0824  0.1923
28003W        W28867   3.378   0.750  21.222 -0.2366 -0.3121 -0.0701
28004W        W28868   8.536   1.333  20.926  0.3684  0.0988  0.1291
28005W        W28869   4.806   1.682  18.264 -0.3227 -0.0785  0.0103
28006W        W28870   4.594   1.822  18.874  0.1691 -0.4341  0.2842
28007W        W28871   7.611   1.048  20.720  0.0273  0.1758 -0.0087
28008W        W28872   5.260   3.214  15.602  0.3660 -0.0342  0.0044
28009W        W28873  27.827   2.550  19.115 -0.1177  0.0013  0.0382
28010W        W28874   5.635   3.608  20.832  0.1816 -0.2454 -0.0389
28011W        W28875   3.740   1.737  20.086  0.0202 -0.2999 -0.0355
28012W        W28876   6.073   3.760  21.007 -0.0492  0.0047  0.3222
28013W        W28877   5.784   1.977  20.951 -0.3958 -0.2591 -0.0444
28014W        W28878   5.479   1.119  20.965  0.0523 -0.1131  0.3765
28015W        W28879   9.406   1.611  17.232 -0.0520 -0.1822 -0.0954
28016W        W28880   5.914   1.588  19.280  0.2343 -0.3787  0.0960
28017W        W28881   5.609   3.820  19.337 -0.0477  0.2544 -0.1912
28018W        W28882   3.685   2.532  20.773  0.1878  0.0500 -0.2077
28019W        W28883   4.427   4.287  21.896  0.1737 -0.0660 -0.3469
28020W        W28884   6.132   2.729  21.070 -0.2024 -0.0980 -0.1498
28021W        W28885   8.190  29.037  17.583 -0.0615 -0.1947  0.2244
28022W        W28886   4.074   5.284  21.628  0.0181  0.0388 -0.1129
28023W        W28887   4.315   0.028  19.149  0.4312  0.0114  0.0144
28024W        W28888   8.717   3.891  18.549  0.0256  0.0209  0.1071
28025W        W28889   3.919   0.802  20.657  0.0564 -0.0821  0.0524
28026W        W28890   6.501   1.319  22.863 -0.2290  0.0044  0.0835
28027W        W28891   6.735   1.051  20.361  0.3408 -0.0287  0.0664
28028W        W28892   4.136   4.742  18.693 -0.2057 -0.0068 -0.0193
28029W        W28893   7.611   1.681  18.986  0.1846 -0.0093  0.1700
28030W        W28894   4.120   0.535  23.163 -0.0866 -0.1247 -0.0148
28031W        W28895   5.603   1.445  22.363  0.1467 -0.1647  0.1909
28032W        W28896   4.532   4.372  18.715  0.2113 -0.0456  0.1406
28033W        W28897   7.554   1.925  17.757 -0.3295 -0.3892  0.0795
28034W        W28898   5.886   2.295  21.349 -0.0612  0.1991 -0.0144
28035W        W28899   5.997   4.540  18.628  0.2733  0.1007 -0.0694
28036W        W28900   6.462  29.126  19.521  0.1956 -0.1369  0.1293
28037W        W28901   5.807  29.085  20.675  0.3842 -0.1360  0.0310
28038W        W28902   5.737   5.466  19.573  0.2055  0.2073  0.1945
28039W        W28903   8.499   2.299  17.896 -0.1120 -0.2493  0.0551
28040W        W28904   4.472   2.801  18.959 -0.1266 -0.1789  0.1100
28041W        W28905   4.641   2.603  20.864 -0.1434  0.3115  0.3690
28042W        W28906   3.773   1.813  18.075  0.1026 -0.0436  0.3723
28043W        W28907   4.224   2.886  20.666 -0.3513  0.0503 -0.1021
28044W        W28908   5.899  29.134  18.041 -0.1176  0.1248 -0.1117
28045W        W28909   2.248   3.848  19.317  0.2410  0.1309 -0.0436
28046W        W28910   5.228   2.499  19.566 -0.1693 -0.0178 -0.4634
28047W        W28911   8.769   2.182  20.674 -0.2527 -0.2720 -0.1577
28048W        W28912   9.591   2.408  20.126 -0.0432  0.0303  0.0269
28049W        W28913   4.912   0.129  18.582  0.4607  0.0944  0.1328
28050W        W28914   4.126   2.767  19.304  0.0973 -0.1497  0.1922
28051W        W28915   4.838   4.231  19.698  0.1622  0.0050 -0.0786
28052W        W28916   6.257   1.804  20.031  0.1899  0.2237 -0.0639
28053W        W28917   9.034   3.273  19.316  0.0320  0.0682 -0.2937
28054W        W28918   4.110   1.427  19.751  0.0636  0.2803 -0.3486
28055W        W28919   6.242   5.091  20.291  0.0789  0.2609  0.0630
28056W        W28920   6.879   1.519  17.770  0.0625  0.0179  0.1879
28057W        W28921   5.636   1.062  20.459  0.2344  0.0850  0.2958
28058W        W28922   8.013   4.167  16.261  0.0774  0.0235  0.0052
28059W        W28923   7.625   3.561  20.241 -0.0343  0.0449 -0.1281
28060W        W28924   4.155   0.920  20.085 -0.0118  0.2490  0.0157
28061W        W28925   6.790   1.446  20.767 -0.1619  0.0322 -0.0159
28062W        W28926   6.076   2.499  19.271  0.0892  0.1445 -0.0791
28063W        W28927   3.785   2.105  19.535 -0.1009 -0.4186  0.2937
28064W        W28928   6.543   4.873  18.229 -0.0627 -0.1113 -0.2030
28065W        W28929   3.548   4.430  22.064  0.1706  0.1203 -0.1084
28066W        W28930   4.397   1.384  20.180 -0.0025  0.0344 -0.2190
28067W        W28931   6.569   2.209  20.015  0.1480  0.0741 -0.0725
28068W        W28932   1.702   4.957  20.929 -0.0019  0.0955 -0.1432
28069W        W28933   5.967  28.649  17.796  0.0647  0.1768 -0.0728
28070W        W28934   5.856  28.969  19.330  0.1669  0.4889  0.0564
28071W        W28935   6.385   2.429  21.532  0.0137 -0.1569  0.0063
28072W        W28936   5.805   3.741  16.977 -0.0439  0.0657  0.2429
28073W        W28937   4.027   1.943  22.555 -0.1545 -0.1799  0.3351
28074W        W28938   6.149   0.415  17.267 -0.2146  0.0266 -0.0684
28075W        W28939   4.711   0.132  22.548  0.2502 -0.0829  0.0396
28076W        W28940   5.306  29.125  21.814 -0.4055  0.1506 -0.2091
28077W        W28941   3.097   1.546  20.053  0.2602 -0.0326 -0.2515
28078W        W28942   5.856   0.885  19.616  0.2967 -0.0138 -0.0381
28079W        W28943   4.928   3.056  20.793 -0.1249  0.0508 -0.0637
28080W        W28944   2.808   3.616  21.793 -0.0340 -0.0231  0.0039
28081W        W28945   5.443   0.258  17.457 -0.0552 -0.0702  0.1129
28082W        W28946   3.342   1.159  18.005 -0.3329 -0.2240 -0.1369
28083W        W28947   5.677   3.796  22.009 -0.0141  0.1632 -0.1177
28084W        W28948   7.718   3.365  18.544  0.0648 -0.0622  0.1308
28085W        W28949   8.373   1.788  20.060 -0.1543 -0.2131  0.1457
28086W        W28950   9.597   3.656  18.387  0.0684 -0.1962  0.1842
28087W        W28951   1.008   3.160  20.252 -0.0635 -0.2229 -0.0685
28088W        W28952   8.045   1.542  16.947 -0.1799  0.2265 -0.0250
28089W        W28953   6.981   0.592  20.098  0.4239  0.1043 -0.0131
28090W        W28954   5.961  27.271  19.752  0.1240  0.0866  0.2220
28091W        W28955   8.671  27.171  19.820  0.1218  0.0733 -0.2179
28092W        W28956   6.955   1.256  21.989 -0.4033 -0.2095 -0.0655
28093W        W28957   2.611   0.225  19.749  0.1923  0.0909  0.1342
28094W        W28958   3.354   0.766  19.763  0.1118  0.0832  0.4422
28095W        W28959   4.423  29.015  18.636 -0.1862  0.1522 -0.1123
28096W        W28960   5.923  28.558  18.537 -0.2828  0.1094 -0.0517
28097W        W28961   6.176   1.843  21.385  0.0464 -0.2178 -0.0181
28098W        W28962   4.660   0.702  21.420 -0.1356  0.1501  0.0374
28099W        W28963   4.771   6.284  20.221  0.0741  0.2005  0.1960
28100W        W28964   3.360   1.957  19.818  0.1991 -0.2036  0.0035
28101W        W28965   4.270   0.312  20.610 -0.0051  0.1184  0.0443
28102W        W28966   7.323   4.008  19.836  0.1558  0.0868  0.3943
28103W        W28967   6.591   2.500  18.373 -0.2488  0.4772 -0.2416
28104W        W28968   7.146   3.058  16.191 -0.1219 -0.0331  0.1319
28105W        W28969   5.653   2.558  20.972 -0.1743  0.1989 -0.1084
28106W        W28970   7.581   3.222  22.047  0.2947 -0.3359  0.1508
28107W        W28971   6.584  28.256  19.444 -0.1586  0.0778 -0.0987
28108W        W28972   7.291   1.258  18.903 -0.1862  0.1229  0.1916
28109W        W28973   3.748   2.476  19.065 -0.0317  0.0747  0.0960
28110W        W28974   4.981   1.331  20.124 -0.0819  0.3254 -0.1546
28111W        W28975   7.665   4.100  22.865 -0.2952  0.0503 -0.0035
28112W        W28976   6.643  28.989  20.596 -0.0396  0.1475 -0.2302
28113W        W28977   5.350   1.735  17.709 -0.2108  0.1129 -0.0658
28114W        W28978   5.411   3.132  21.100  0.2384  0.0025 -0.0059
28115W        W28979   5.603   7.208  20.000 -0.3216  0.1566  0.0640
28116W        W28980   6.340  27.810  20.374  0.0858 -0.3251 -0.1971
28117W        W28981   5.858   0.004  21.475 -0.3913 -0.0605  0.0939
28118W        W28982   8.435   4.166  21.262  0.2490 -0.1146 -0.1259
28119W        W28983   5.694   0.365  19.395  0.1074 -0.0302 -0.0267
28120W        W28984   3.486   5.491  19.161 -0.0654 -0.3678  0.0767
28121W        W28985   8.100   3.438  17.016 -0.1546 -0.2102 -0.1151
28122W        W28986   5.739   2.698  18.417 -0.1479 -0.1804 -0.0642
28123W        W28987   6.162   2.089  19.596 -0.2657 -0.1325 -0.1185
28124W        W28988   3.442  27.882  18.664  0.0404  0.0576  0.0601
28125W        W28989   4.866   0.086  20.854 -0.0959 -0.1067 -0.2084
28126W        W28990   1.820   2.383  21.044  0.1317  0.0776 -0.2784
28127W        W28991   4.682   3.152  17.313  0.0012 -0.0681 -0.0871
28128W        W28992   4.878   3.099  18.779  0.0540  0.0446  0.0363
28129W        W28993   3.852   4.712  19.241 -0.0248  0.0270 -0.2336
28130W        W28994   7.147   1.893  20.537  0.0158 -0.1867 -0.0707
28131W        W28995   4.985   2.038  17.706 -0.0448  0.1841 -0.3678
28132W        W28996  10.147   1.098  22.248  0.0135  0.0448  0.2264
28133W        W28997   6.694   5.311  20.422 -0.1628 -0.4076  0.2555
28134W        W28998   8.709   2.402  21.226 -0.0531 -0.0591  0.1374
28135W        W28999   3.942   1.957  20.937 -0.1961 -0.0774 -0.0853
28136W        W29000   6.299   2.583  19.730  0.1810 -0.4239  0.1027
28137W        W29001   8.801   2.053  15.973  0.0425  0.1147  0.2124
28138W        W29002   3.430   1.666  18.477  0.0571 -0.0229  0.1131
28139W        W29003   4.972   1.308  17.911 -0.2293 -0.1094 -0.0718
28140W        W29004   5.394   2.904  20.648 -0.3845 -0.2954 -0.1266
28141W        W29005   3.472   2.121  20.871  0.1226  0.1499 -0.1244
28142W        W29006   4.876   2.619  21.806 -0.0110 -0.1175 -0.0493
28143W        W29007   1.641   1.323  18.646 -0.2133  0.1885  0.3641
28144W        W29008   9.525   2.532  21.123  0.1193  0.1171  0.1661
28145W        W29009   5.074   2.372  20.005  0.0082 -0.4258 -0.2714
28146W        W29010   3.169   2.356  19.572  0.3789 -0.2027 -0.1260
28147W        W29011   0.520   1.845  20.064 -0.0488  0.3622 -0.1953
28148W        W29012   5.481   1.925  19.095 -0.3682 -0.2549  0.2423
28149W        W29013   4.269   1.903  19.741  0.1872  0.4295  0.1729
28150W        W29014  10.815   1.719  19.627  0.0330 -0.1643 -0.0503
28151W        W29015   6.454   0.865  19.755 -0.2745 -0.0330  0.1733
28152W        W29016   5.131   1.427  19.549  0.2149  0.0422 -0.2060
28153W        W29017   7.418   5.987  21.982  0.3957  0.3150 -0.0950
28154W        W29018   4.877   1.322  18.637  0.0566 -0.2739  0.0047
28155W        W29019   5.689  27.683  17.465 -0.0221  0.4645 -0.3979
28156W        W29020   6.302   6.018  21.185  0.0322 -0.1527 -0.1402
28157W        W29021   3.726  28.078  21.855  0.1138  0.1982 -0.2124
28158W        W29022   4.506   3.029  19.510 -0.0614 -0.0099 -0.0838
28159W        W29023   3.062   2.870  17.425  0.0421  0.2441 -0.0638
28160W        W29024   3.912   2.941  17.155 -0.1346 -0.2180  0.1079
28161W        W29025   8.038   1.413  20.707  0.0296  0.1295  0.1376
28162W        W29026   4.769   2.476  17.924  0.2754  0.0583  0.0756
28163W        W29027   6.463   1.655  15.781 -0.1432  0.1799  0.0838
28164W        W29028   5.885   3.445  19.027  0.1165 -0.0293  0.2594
28165W        W29029   5.925   4.892  20.908 -0.0310 -0.0627  0.4344
28166W        W29030   6.675   0.669  18.256  0.7216 -0.3400  0.1364
28167W        W29031   5.115  28.819  20.269  0.2403 -0.1215  0.0458
28168W        W29032   6.266   4.464  19.598 -0.1171  0.0105  0.2953
28169W        W29033   5.595  28.038  18.630 -0.1486 -0.1175  0.3233
28170W        W29034   4.692   4.412  16.067  0.1121  0.1739 -0.0406
28171W        W29035   9.164  28.787  20.949  0.1761  0.1369 -0.1913
28172W        W29036   4.503   2.094  16.343  0.0321 -0.0984 -0.1088
28173W        W29037   8.335   2.561  20.969 -0.0186  0.2439  0.0009
28174W        W29038   7.176   2.868  18.144 -0.2207  0.0610 -0.3350
28175W        W29039   6.421   1.515  20.427 -0.0719  0.0037 -0.6017
28176W        W29040   4.488   4.077  20.041 -0.1383 -0.0791 -0.4283
28177W        W29041   8.008   2.234  20.800 -0.0059  0.1554 -0.0376
28178W        W29042   7.576   1.280  21.184  0.3570 -0.0209 -0.0785
28179W        W29043   3.345   3.482  20.867  0.3272  0.1436 -0.1584
28180W        W29044   7.052   3.652  21.527 -0.1949  0.2280  0.0341
28181W        W29045   2.660   2.460  19.621 -0.3138  0.1017 -0.0410
28182W        W29046   5.888   3.068  20.812 -0.0276  0.2762 -0.0242
28183W        W29047   7.653   2.829  21.770 -0.0329 -0.0691  0.2459
28184W        W29048   6.913   1.729  23.242 -0.1121 -0.3009  0.0655
28185W        W29049   4.635   2.005  19.358  0.1204 -0.1068  0.0661
28186W        W29050   5.817   2.720  19.849 -0.1765 -0.2157  0.0471
28187W        W29051   4.932   5.198  21.160 -0.0475 -0.1150 -0.1049
28188W        W29052   3.566   4.168  18.324  0.2982  0.3818  0.1448
28189W        W29053   4.997   3.193  21.886  0.0778  0.1050 -0.1003
28190W        W29054   5.355   4.082  21.800  0.0514  0.1557 -0.3157
28191W        W29055   4.328   4.277  20.505  0.0318 -0.1760 -0.2700
28192W        W29056   5.085   1.912  18.682 -0.2018 -0.1032 -0.4910
28193W        W29057   8.668   5.442  18.368  0.1739  0.0909  0.1727
28194W        W29058   6.089   4.432  21.047  0.0881 -0.1408 -0.1292
28195W        W29059   7.725   3.124  20.805  0.0139  0.0285 -0.0964
28196W        W29060   6.904   3.902  19.642  0.1583  0.1713 -0.1472
28197W        W29061   6.746   2.817  21.133 -0.1777  0.5970  0.0925
28198W        W29062   6.746   4.414  19.718 -0.0728  0.0949 -0.2658
28199W        W29063   2.798   3.805  19.324 -0.1720 -0.3016  0.0048
28200W        W29064   4.769   6.710  24.099  0.2371 -0.1077  0.1112
28201W        W29065   5.175   6.863  25.051 -0.1625  0.1125  0.2650
28202W        W29066   7.548   3.811  21.375  0.0936 -0.0744  0.0566
28203W        W29067   7.624   2.399  23.690  0.3260  0.0106 -0.2426
28204W        W29068   7.372   4.921  19.984 -0.4084 -0.3014  0.2942
28205W        W29069   7.266  28.283  23.718 -0.1174  0.1000  0.1910
28206W        W29070   5.346   0.355  24.410 -0.0280 -0.0309 -0.1031
28207W        W29071   7.023   3.619  24.460 -0.1682  0.2832 -0.1855
28208W        W29072   3.981   3.618  22.818  0.3300 -0.0366 -0.2429
28209W        W29073   5.454   0.949  24.409 -0.1442  0.0533  0.3280
28210W        W29074   4.236   1.306  23.584 -0.0492  0.0715  0.3822
28211W        W29075   6.603   0.369  25.666  0.0608  0.1421  0.0789
28212W        W29076   3.583   0.309  21.989 -0.1216 -0.1662  0.0399
28213W        W29077   8.212   1.369  24.991 -0.0035  0.0067  0.3693
28214W        W29078   3.091   1.286  25.292 -0.1093 -0.1565  0.0853
28215W        W29079   5.448   3.025  25.581  0.1065  0.0522  0.1162
28216W        W29080   3.390   1.071  21.582  0.1183 -0.0302 -0.0318
28217W        W29081   4.902   2.300  21.358  0.1108  0.1204 -0.1360
28218W        W29082   4.871  27.990  24.965 -0.0312 -0.0526  0.1561
28219W        W29083   7.553   1.400  23.749  0.1830  0.0700 -0.2584
28220W        W29084   9.723   1.932  22.241 -0.1528  0.0177 -0.0071
28221W        W29085   3.600  28.622  24.299  0.0472  0.1030  0.4531
28222W        W29086   6.165   5.114  23.094  0.0461  0.1341  0.0928
28223W        W29087   5.594   1.365  23.198  0.1340 -0.1877 -0.0509
28224W        W29088   3.551   3.301  23.624  0.0061  0.1227 -0.0547
28225W        W29089   6.718   0.440  23.446 -0.3368  0.1130 -0.0123
28226W        W29090   5.784  26.737  23.083 -0.3728  0.2896 -0.0183
28227W        W29091   3.675   3.902  22.221  0.0007 -0.3060 -0.1755
28228W        W29092   5.545   6.233  25.258  0.1526  0.0202 -0.1165
28229W        W29093   4.832   2.271  23.653  0.0721 -0.2074 -0.1944
28230W        W29094   5.889   0.252  21.053 -0.1634  0.1109  0.0859
28231W        W29095   6.861   3.913  26.177 -0.1749  0.3521 -0.0974
28232W        W29096   7.575   3.558  22.856 -0.2131  0.0704 -0.2762
28233W        W29097   7.512   0.286  22.846 -0.3437  0.1240  0.2549
28234W        W29098   4.627   2.437  22.211  0.1315  0.3653  0.5049
28235W        W29099   7.150   4.238  24.510 -0.4667  0.0155 -0.0147
28236W        W29100   2.005   2.764  25.708  0.2634 -0.0077  0.1087
28237W        W29101   4.087   3.236  23.759  0.0593  0.1440  0.0407
28238W        W29102   6.365   2.582  26.155 -0.1848 -0.0586  0.0099
28239W        W29103   9.458   2.849  24.424  0.5315 -0.0662 -0.2158
28240W        W29104   7.270   1.084  22.336  0.1828  0.0636 -0.2282
28241W        W29105   7.891   1.859  26.254 -0.0848 -0.0870 -0.2296
28242W        W29106   4.634   2.629  25.422 -0.0523  0.0112 -0.0581
28243W        W29107   6.176   2.637  23.626 -0.0147  0.0452 -0.2530
28244W        W29108   4.175   4.964  20.097  0.1135  0.1455 -0.3201
28245W        W29109   4.520   2.401  23.265  0.0930  0.0301 -0.2943
28246W        W29110   2.034  29.029  24.187 -0.0697  0.0288  0.2354
28247W        W29111   9.110   2.349  27.057  0.2222  0.1421  0.2568
28248W        W29112   7.056   1.670  21.788  0.0061 -0.3540  0.1547
28249W        W29113   6.524   1.315  21.357 -0.1520 -0.0767  0.0149
28250W        W29114   5.624   5.724  26.326 -0.0307  0.0793  0.0843
28251W        W29115   7.680   0.340  23.462 -0.1281  0.4126 -0.1830
28252W        W29116   6.918   4.374  23.273  0.1606  0.1328  0.0215
28253W        W29117   5.964   1.353  21.553 -0.0232  0.0827  0.1821
28254W        W29118   6.992  28.744  23.680 -0.2449 -0.1220  0.2409
28255W        W29119   6.726   2.771  21.646  0.3912  0.2283  0.2943
28256W        W29120   5.654   2.954  23.647  0.1302 -0.0160 -0.0395
28257W        W29121   3.246   0.536  22.367  0.2576  0.1051 -0.1182
28258W        W29122   1.936   4.209  23.375 -0.0963  0.0552 -0.2739
28259W        W29123   4.742   7.031  21.352  0.0999  0.1641 -0.0337
28260W        W29124   5.581   1.706  22.807  0.0182 -0.1093 -0.0761
28261W        W29125   3.263   2.490  23.798  0.1734 -0.0874 -0.1663
28262W        W29126   3.329   3.171  24.940  0.3533 -0.2478  0.1841
28263W        W29127   5.301   1.420  21.371 -0.2541  0.0378 -0.4926
28264W        W29128   7.122   0.845  22.732  0.1454 -0.1182  0.0096
28265W        W29129   9.303  29.025  24.798  0.2087 -0.0244 -0.1021
28266W        W29130   3.665   2.805  21.653  0.4638  0.0338 -0.1129
28267W        W29131   3.294   2.541  21.333  0.1025  0.0829 -0.0527
28268W        W29132   4.718   1.720  21.568 -0.1995 -0.1744  0.3349
28269W        W29133   6.798  28.347  23.953  0.2397 -0.3324 -0.2116
28270W        W29134   3.740   4.241  25.054  0.2863 -0.2962 -0.4561
28271W        W29135   3.267   3.258  21.835  0.2766 -0.1155  0.1332
28272W        W29136   7.437   4.523  23.088  0.1519  0.2142  0.2335
28273W        W29137   5.740   1.996  25.409 -0.1008  0.1842 -0.0796
28274W        W29138   8.231   1.205  21.700  0.1490  0.1065 -0.0169
28275W        W29139   6.687   2.875  23.178  0.0703 -0.1949 -0.1416
28276W        W29140   3.288   0.771  22.858  0.5933 -0.1534  0.1359
28277W        W29141   6.119   1.165  23.093  0.1891 -0.1416 -0.4690
28278W        W29142   6.314   0.400  24.496  0.0535  0.1426  0.1365
28279W        W29143   6.255   3.584  21.495 -0.0289 -0.0210  0.1183
28280W        W29144   2.757  28.469  22.843 -0.2051  0.0187  0.1579
28281W        W29145   3.253   2.036  23.383  0.0973  0.1846  0.0115
28282W        W29146   3.481   0.723  23.706 -0.1470 -0.0606  0.2166
28283W        W29147   6.360  28.708  22.147 -0.0301  0.2058  0.2734
28284W        W29148   6.099   0.711  24.831 -0.1971  0.1722 -0.0669
28285W        W29149   5.832   0.815  23.350  0.2221  0.2109  0.0647
28286W        W29150   8.083   2.198  26.663  0.0404 -0.0333 -0.1069
28287W        W29151   5.526   0.015  25.767 -0.0284  0.3184  0.0751
28288W        W29152   5.508   2.992  25.075 -0.4319  0.2047 -0.2744
28289W        W29153   7.240   0.263  24.408 -0.2586  0.0427 -0.0358
28290W        W29154   7.118   0.204  25.716  0.4526  0.2005  0.0295
28291W        W29155   7.626   2.919  23.628 -0.3102 -0.0028  0.1749
28292W        W29156   3.505   0.810  22.040 -0.0344  0.0664  0.4645
28293W        W29157   3.654   3.561  21.291 -0.2452 -0.0368 -0.0518
28294W        W29158   5.000   1.386  25.206 -0.3267  0.0019  0.0834
28295W        W29159   5.080   1.382  24.579 -0.1657 -0.0139  0.1947
28296W        W29160   6.173   1.032  22.565  0.0390 -0.0004 -0.0973
28297W        W29161   2.289   5.947  25.444  0.1769  0.2330 -0.2219
28298W        W29162   6.088   2.217  23.943  0.0102  0.0978  0.1985
28299W        W29163   9.893   0.829  23.503  0.0180 -0.0366 -0.2212
28300W        W29164   7.517   5.754  22.809  0.2523  0.0442 -0.3523
28301W        W29165   2.193   3.231  24.000 -0.2494  0.0607  0.0103
28302W        W29166   4.828   1.348  22.374 -0.2613 -0.0248  0.0002
28303W        W29167   7.610   4.986  23.987  0.2379  0.2028  0.1647
28304W        W29168   7.197  28.206  21.909 -0.0041 -0.1297  0.0870
28305W        W29169   7.193   0.389  23.633 -0.4294 -0.4065  0.0637
28306W        W29170   8.000   2.665  22.724 -0.3219  0.1562  0.0451
28307W        W29171   7.272   2.083  24.678  0.0441 -0.0486 -0.2754
28308W        W29172   4.803   1.372  23.790  0.0394  0.2921 -0.1612
28309W        W29173   4.628   2.429  22.749  0.2008 -0.1996 -0.2070
28310W        W29174   2.560   2.957  22.620  0.1571  0.1251  0.0355
28311W        W29175   3.949   4.286  24.575  0.0691  0.1552 -0.0138
28312W        W29176   8.190   5.723  23.553 -0.2841  0.2899 -0.0554
28313W        W29177   5.072   4.719  20.832  0.1235 -0.0286 -0.1104
28314W        W29178   6.918   3.217  19.548 -0.0647  0.1314 -0.0894
28315W        W29179   5.755   3.237  24.326  0.1510  0.0270  0.0112
28316W        W29180   9.424   0.799  23.586 -0.3543 -0.1799 -0.1686
28317W        W29181   5.564   0.059  26.552 -0.0989  0.3440 -0.1344
28318W        W29182   3.925   0.893  23.517  0.2484 -0.0694 -0.0125
28319W        W29183   7.623   2.496  21.006 -0.1680 -0.1316  0.0155
28320W        W29184   6.906   0.908  23.684 -0.2132  0.4695  0.3139
28321W        W29185   6.084   4.000  21.815  0.0022 -0.1389 -0.0492
28322W        W29186   4.891   5.795  24.434 -0.0404 -0.1285  0.1328
28323W        W29187   7.126   1.058  20.754  0.1546  0.1641 -0.0751
28324W        W29188   5.706  27.705  21.737 -0.0061  0.0833 -0.0481
28325W        W29189   7.760   3.591  22.372  0.2478 -0.1219  0.1022
28326W        W29190   2.865   0.870  22.647 -0.0711 -0.2377  0.2871
28327W        W29191   6.329   5.516  23.356 -0.0767  0.5712 -0.1676
28328W        W29192   7.718   4.898  23.373 -0.0637 -0.3667 -0.2045
28329W        W29193   5.697   3.693  22.601 -0.0086 -0.0861  0.2097
28330W        W29194   7.199   7.163  24.034  0.1829 -0.1358 -0.1227
28331W        W29195   5.982   1.272  23.586  0.1367  0.1436 -0.1832
28332W        W29196   4.952   2.856  24.087 -0.0108  0.1025 -0.5928
28333W        W29197   9.664   2.250  21.573 -0.0357  0.1517 -0.2172
28334W        W29198   6.322   3.221  23.342 -0.0625 -0.0162 -0.2087
28335W        W29199   5.285   3.051  22.503 -0.1972 -0.3143  0.0590
28336W        W29200   6.636  29.110  23.601  0.1258 -0.2337 -0.0444
28337W        W29201   6.451   0.798  21.435 -0.1927  0.0395 -0.2365
28338W        W29202   6.592   3.742  23.188  0.0152  0.2892 -0.2852
28339W        W29203   4.282   1.551  21.278 -0.0074 -0.1794 -0.1010
28340W        W29204   1.858   0.730  21.664 -0.1656 -0.4110  0.0950
28341W        W29205   8.065  28.947  24.755  0.2769  0.3042  0.0996
28342W        W29206   7.649   1.580  24.232  0.1889  0.3229  0.0734
28343W        W29207   5.385   0.710  23.544 -0.0631 -0.1583 -0.1608
28344W        W29208   5.620   1.498  25.710 -0.0865  0.0348  0.0005
28345W        W29209   6.033   0.827  21.796 -0.3066 -0.0505  0.1087
28346W        W29210   7.885   0.217  24.460  0.1666  0.1955  0.1009
28347W        W29211   6.585   5.479  25.072  0.0559  0.1511  0.0849
28348W        W29212   6.923   4.429  23.766 -0.0540 -0.1271  0.2012
28349W        W29213   3.714   2.768  23.845  0.3916  0.2480  0.0507
28350W        W29214   6.015   6.379  25.516 -0.1143  0.2473 -0.1170
28351W        W29215   4.090   0.250  21.855  0.0450  0.1234  0.0140
28352W        W29216   5.903   3.088  25.599 -0.0885  0.4488  0.2358
28353W        W29217   6.782   1.643  22.204  0.1832 -0.2615  0.1214
28354W        W29218   5.648   2.077  21.866 -0.0045  0.0758  0.0655
28355W        W29219   6.238  28.967  24.454  0.2413 -0.1787  0.1280
28356W        W29220   2.762   2.738  23.450  0.1677 -0.0242 -0.1121
28357W        W29221   5.561   1.528  20.640 -0.0579 -0.0964  0.0574
28358W        W29222   1.887   2.823  20.354  0.0349  0.2095  0.0638
28359W        W29223   7.085   1.378  23.561  0.0216 -0.2113  0.1806
28360W        W29224   8.145   0.235  27.304 -0.3594  0.1002  0.1326
28361W        W29225   5.001   2.724  22.269 -0.2514  0.2049 -0.2608
28362W        W29226   5.468   2.153  25.047  0.1198 -0.1089  0.1793
28363W        W29227   6.925   1.536  25.073 -0.0443  0.3012 -0.1142
28364W        W29228   7.484   0.453  26.565  0.0906 -0.1548 -0.0789
28365W        W29229   4.386  28.302  23.325 -0.0747 -0.2661  0.3312
28366W        W29230   2.376   0.948  21.700  0.0325  0.0144  0.2812
28367W        W29231   4.185   4.925  21.123 -0.3341 -0.2194  0.1581
28368W        W29232   7.023   3.751  25.249 -0.0821 -0.0851  0.0128
28369W        W29233   6.088   3.626  24.206  0.1557 -0.3020 -0.3864
28370W        W29234   5.401   0.925  23.103  0.3100 -0.2028 -0.0794
28371W        W29235   9.261   2.279  23.998  0.0199 -0.2706 -0.3926
28372W        W29236   6.483   1.963  24.166  0.1029  0.0494 -0.0971
28373W        W29237   5.948   2.359  20.625 -0.1750  0.0805  0.1918
28374W        W29238   4.374   0.201  23.378  0.0694  0.0811 -0.2407
28375W        W29239   6.743   1.175  22.441  0.0365 -0.0061  0.0022
28376W        W29240   3.869   5.051  24.641  0.0907  0.0941 -0.3130
28377W        W29241   4.403   5.013  25.186 -0.2313  0.4618 -0.0415
28378W        W29242   5.356   2.486  21.766 -0.3046 -0.0613 -0.2889
28379W        W29243   3.767  28.789  23.830 -0.1087  0.2198  0.2263
28380W        W29244   4.633   1.201  23.325  0.2941 -0.1185  0.2241
28381W        W29245   4.670   5.563  22.370 -0.0908  0.2209  0.0142
28382W        W29246   6.691   3.722  21.233 -0.1093  0.0750 -0.0574
28383W        W29247   3.880  28.943  22.714 -0.1277  0.1127 -0.5402
28384W        W29248   6.263   1.840  22.229 -0.2615 -0.1109 -0.0475
28385W        W29249   6.458   3.642  25.283 -0.1782 -0.0477 -0.3373
28386W        W29250   5.468   0.734  21.903 -0.1067  0.0106 -0.2555
28387W        W29251   2.552   1.070  21.193 -0.1831  0.1046 -0.0588
28388W        W29252   7.000   3.701  22.735 -0.0424 -0.1421 -0.1838
28389W        W29253   3.994   5.212  23.679  0.1767  0.0165 -0.0197
28390W        W29254   4.936   4.699  21.716  0.1307 -0.4439 -0.0119
28391W        W29255   7.156   1.073  23.158  0.1083 -0.1160 -0.0301
28392W        W29256   6.760  28.673  25.384 -0.0328  0.1076  0.1246
28393W        W29257   6.501   0.858  27.405 -0.0865 -0.3600 -0.0999
28394W        W29258   6.565   0.900  25.643  0.2336  0.3956  0.3477
28395W        W29259   5.809  28.432  22.708  0.1922  0.0940  0.2138
28396W        W29260   4.851   0.515  23.630  0.0969  0.0878  0.0975
28397W        W29261   2.482   0.225  25.198  0.0720 -0.1715  0.2445
28398W        W29262   4.534   3.495  22.744 -0.1415  0.0732  0.0165
28399W        W29263   5.968   0.564  21.388 -0.3264 -0.0945 -0.0572
28400W        W29264   5.699   1.795  21.465 -0.1476  0.0572  0.0907
28401W        W29265  10.020   2.256  23.566 -0.0706  0.1850 -0.2683
28402W        W29266   4.968   2.152  21.901  0.3054 -0.0243 -0.0051
28403W        W29267   3.941  29.021  20.684  0.2187 -0.1999 -0.0426
28404W        W29268   6.109   0.773  23.747 -0.2667  0.0700 -0.1015
28405W        W29269   5.592   2.487  23.333 -0.2026 -0.5052 -0.1356
28406W        W29270   5.483   2.227  25.733 -0.2597 -0.0131  0.0255
28407W        W29271   7.603   1.598  24.756 -0.3157 -0.1338 -0.2043
28408W        W29272   5.957   3.753  24.686  0.0763  0.0300  0.3091
28409W        W29273   1.667   1.799  21.438 -0.0761  0.3940 -0.0536
28410W        W29274   5.593   3.268  26.546 -0.0707 -0.1212 -0.2099
28411W        W29275   6.112   3.113  23.842  0.0493  0.1586  0.4057
28412W        W29276   7.688   3.785  24.907 -0.0802 -0.2969 -0.1673
28413W        W29277   7.960  27.810  24.175 -0.2785  0.3603 -0.0052
28414W        W29278   8.755   1.899  23.183  0.0018 -0.2412 -0.1556
28415W        W29279   7.737   1.049  24.933  0.2364 -0.1720 -0.1377
28416W        W29280   8.178   3.004  20.991  0.3232  0.2117  0.1850
28417W        W29281   5.747   3.723  19.798  0.0589  0.1622 -0.1365
28418W        W29282   6.838   3.251  25.734 -0.1065 -0.2867 -0.1664
28419W        W29283   3.619   3.255  22.766 -0.0993  0.1883 -0.1629
28420W        W29284   6.550   0.320  26.683  0.0379  0.2936  0.2196
28421W        W29285   6.223   1.995  25.173  0.1322  0.4067 -0.2066
28422W        W29286   4.870   1.749  23.463 -0.3303  0.1771  0.1566
28423W        W29287   5.305  28.425  23.798 -0.0408 -0.2703 -0.0219
28424W        W29288   5.200   0.920  21.509 -0.3265 -0.0922 -0.2628
28425W        W29289   3.767   2.845  25.170  0.2906  0.1430 -0.0900
28426W        W29290   4.990   3.161  23.526 -0.1079  0.2967 -0.1782
28427W        W29291   5.682  28.383  23.339  0.5970 -0.2167  0.0756
28428W        W29292   5.889   3.981  26.052  0.0497 -0.0581 -0.2537
28429W        W29293   7.765   2.643  23.227  0.0071  0.1407 -0.0996
28430W        W29294   6.447   2.048  26.202 -0.0783 -0.0074  0.3762
28431W        W29295   5.588   2.660  24.268  0.4590  0.1504  0.3420
28432W        W29296   4.553   1.926  21.156  0.1250 -0.0255  0.2374
28433W        W29297   7.477  28.166  24.184  0.2404  0.0277 -0.2508
28434W        W29298   4.544   2.434  24.061  0.1062 -0.1104 -0.1055
28435W        W29299   7.133   4.850  24.066  0.0741  0.0246  0.2862
28436W        W29300   8.781   2.631  23.724  0.0998  0.1007 -0.1585
28437W        W29301   6.011   1.429  26.145  0.1336 -0.3516 -0.1360
28438W        W29302   5.015   3.240  22.946  0.0319 -0.0625 -0.0260
28439W        W29303   5.290   2.984  24.529  0.0398 -0.1012  0.1694
28440W        W29304   6.029   4.473  22.035  0.1411 -0.1709 -0.2202
28441W        W29305   4.011   7.449  24.302  0.1750 -0.0528 -0.0238
28442W        W29306   4.354   0.941  23.882  0.2446  0.1936 -0.0313
28443W        W29307   6.335   0.738  22.230 -0.3548  0.1455 -0.0725
28444W        W29308   7.412   0.970  23.616 -0.0705  0.0900  0.1550
28445W        W29309   7.161   4.096  22.911 -0.2647 -0.1402  0.0527
28446W        W29310   7.112   2.852  23.582  0.0711 -0.3164  0.2058
28447W        W29311   4.826   0.926  24.911  0.1701  0.0929 -0.2313
28448W        W29312   7.417   3.696  21.895  0.1041 -0.2313  0.0097
28449W        W29313   6.272   0.290  23.551  0.0242 -0.1676 -0.3648
28450W        W29314   3.746   1.351  23.407 -0.0506 -0.2064 -0.1825
28451W        W29315   4.715   1.765  25.298 -0.0948  0.2839  0.4634
28452W        W29316   6.159   6.091  26.209 -0.2380 -0.2814 -0.0189
28453W        W29317   6.462   3.612  24.769 -0.0149  0.2767  0.1542
28454W        W29318   4.658   3.744  19.632 -0.1492 -0.2778 -0.0600
28455W        W29319   7.226   2.865  25.070  0.1536  0.1805 -0.1397
28456W        W29320   8.621   1.332  22.875  0.0538  0.1468  0.1959
28457W        W29321   5.738  28.274  24.021 -0.1045  0.3443  0.0043
28458W        W29322   5.386   2.242  21.290 -0.0690  0.1113  0.0252
28459W        W29323   9.409   0.244  24.277  0.0533 -0.3416 -0.1706
28460W        W29324   5.015   1.359  21.815  0.0812 -0.0345  0.1082
28461W        W29325   5.697   1.050  25.882 -0.0396  0.0140 -0.1197
28462W        W29326   5.376   2.669  25.936 -0.1165  0.1671 -0.2437
28463W        W29327   4.774  27.581  25.448 -0.1752 -0.2270 -0.0708
28464W        W29328   6.547   3.349  22.900  0.1942  0.1354 -0.1432
28465W        W29329   6.967   3.746  23.650  0.0928  0.1154  0.2093
28466W        W29330   6.635   5.064  22.124  0.0110  0.0936 -0.1222
28467W        W29331   3.828   3.102  21.268 -0.0771 -0.0354  0.0852
28468W        W29332   5.847   1.739  23.689 -0.2598 -0.1317 -0.0626
28469W        W29333   7.175  29.121  21.371  0.2035  0.0628  0.1940
28470W        W29334   3.815   2.181  20.473 -0.0139  0.1849  0.2928
28471W        W29335   6.758   1.311  26.864 -0.1850 -0.2244  0.0185
28472W        W29336   4.233   2.047  22.052  0.0532 -0.0375 -0.0203
28473W        W29337   5.441  28.982  24.664  0.0648 -0.3406  0.0898
28474W        W29338   4.861   2.696  24.926 -0.2422 -0.1757  0.0867
28475W        W29339   8.487   1.766  25.082 -0.2163  0.3756 -0.3548
28476W        W29340   4.838  26.885  24.605  0.1989  0.1752 -0.2686
28477W        W29341   6.814   2.046  24.802 -0.1458  0.1644  0.2714
28478W        W29342   5.140   2.235  22.333  0.1230  0.4155  0.1287
28479W        W29343   3.447   3.368  25.908  0.0762  0.1782 -0.1031
28480W        W29344   6.829   2.580  22.099 -0.0061 -0.0916  0.2538
28481W        W29345   6.259  28.082  22.750 -0.1067 -0.1327  0.1340
28482W        W29346   7.426   1.090  24.561 -0.1566  0.2111 -0.2425
28483W        W29347   2.472   4.971  24.391  0.0687  0.0237  0.0041
28484W        W29348   8.076   3.510  20.776 -0.2397 -0.1610 -0.0706
28485W        W29349   6.083   0.245  25.801 -0.1713  0.0148  0.0601
28486W        W29350   5.896   3.926  22.993  0.2561 -0.0912 -0.0908
28487W        W29351   2.917   1.794  23.728  0.0121 -0.2782 -0.1280
28488W        W29352   7.505   1.432  23.224  0.1274  0.1153  0.0497
28489W        W29353   6.279   3.433  21.966  0.0885  0.1553 -0.0668
28490W        W29354   6.389   0.751  24.170 -0.2558 -0.1142 -0.0232
28491W        W29355   8.313   0.811  23.729  0.2853 -0.0068 -0.2218
28492W        W29356   8.424   0.860  22.972 -0.2140  0.0377 -0.0250
28493W        W29357   5.332   2.211  22.854  0.0274  0.0576 -0.2045
28494W        W29358   5.627   4.077  20.986 -0.2094  0.1463 -0.3241
28495W        W29359   7.994   2.689  20.641 -0.2206  0.1329 -0.0352
28496W        W29360   2.991   1.604  22.436  0.0180  0.5808  0.0858
28497W        W29361  10.128   2.249  24.185 -0.2213  0.3053  0.0666
28498W        W29362   7.696   1.073  25.534  0.0533 -0.1225 -0.0867
28499W        W29363   2.766   3.308  23.914 -0.0215  0.0508  0.1972
28500W        W29364   5.022  28.994  22.854  0.0794 -0.1287  0.1049
28501W        W29365   5.652   1.718  27.456 -0.0349  0.1679  0.0222
28502W        W29366   6.707   3.999  24.491 -0.1816  0.4534  0.1389
28503W        W29367   5.562   1.893  23.244 -0.1771 -0.1763  0.0043
28504W        W29368   6.929   4.164  21.538  0.3514 -0.4733 -0.1870
28505W        W29369   4.729   2.972  24.540  0.1823 -0.0196  0.3673
28506W        W29370   5.920  29.116  26.229  0.0923  0.0146 -0.0305
28507W        W29371   3.346  28.914  22.729 -0.1365 -0.0975  0.1563
28508W        W29372   7.408  28.680  21.639  0.3361 -0.0829 -0.1018
28509W        W29373   2.386   2.195  21.931 -0.0977  0.0655  0.3765
28510W        W29374   3.335  29.119  23.219  0.0898  0.0884  0.2453
28511W        W29375   5.192   1.310  24.099 -0.1471 -0.2413  0.3373
28512W        W29376   7.299   0.812  21.930 -0.2546 -0.0953  0.4511
28513W        W29377   7.214   4.071  24.007 -0.0827 -0.0630 -0.0522
28514W        W29378   5.310   4.305  23.627  0.1709  0.0472  0.1527
28515W        W29379   3.254   4.050  25.120  0.0231  0.1249 -0.0124
28516W        W29380   5.339   3.153  23.985 -0.1460 -0.3602 -0.0298
28517W        W29381   4.927   0.105  24.441 -0.1696 -0.4972 -0.0177
28518W        W29382   9.239   5.239  23.965 -0.1437 -0.1712  0.0873
28519W        W29383   5.668   1.502  24.115  0.0383  0.0521 -0.0193
28520W        W29384   2.499   2.804  24.787  0.1087 -0.1675 -0.1202
28521W        W29385   7.499   4.864  22.095  0.0029  0.1127 -0.1399
28522W        W29386   5.949   2.297  24.915  0.2009 -0.0720 -0.0370
28523W        W29387   6.008   0.362  22.238  0.0624  0.4666  0.4058
28524W        W29388   5.167   1.227  20.572 -0.0503  0.3371  0.1376
28525W        W29389   5.634   0.718  23.968  0.1808  0.2918 -0.0017
28526W        W29390   5.062   0.332  24.022 -0.2424 -0.0064  0.0025
28527W        W29391   1.037   0.866  22.981 -0.0980 -0.0994 -0.1712
28528W        W29392   3.954   0.313  22.727  0.1743  0.3019  0.1405
28529W        W29393   5.130   2.635  22.737  0.2986 -0.0440  0.0808
28530W        W29394   3.980   0.261  24.103  0.1087  0.0169 -0.1955
28531W        W29395   8.680   1.243  21.407 -0.0791 -0.2329  0.0364
28532W        W29396   5.025   2.475  23.213  0.0333  0.0734 -0.1620
28533W        W29397   5.367   5.021  22.569  0.6500  0.2353 -0.1823
28534W        W29398   8.211   5.763  24.048  0.2403 -0.0005 -0.0267
28535W        W29399   7.420   6.092  25.518  0.1016  0.2306 -0.1858
28536W        W29400   4.527   3.119  21.613  0.1267 -0.2933  0.4128
28537W        W29401   9.280   2.558  22.594 -0.1146 -0.0763 -0.2342
28538W        W29402   8.307   1.196  19.482  0.1351  0.0139 -0.0727
28539W        W29403   6.826  27.993  23.592 -0.3817 -0.1836 -0.1677
28540W        W29404   5.156   6.289  23.213 -0.0268 -0.1365  0.1206
28541W        W29405   5.674   1.776  26.212 -0.1275 -0.0634  0.1305
28542W        W29406   4.940  26.692  23.743  0.0125 -0.0130  0.0302
28543W        W29407   6.315   2.022  22.743 -0.0011  0.2910  0.3113
28544W        W29408   7.359   1.602  25.544  0.3995  0.0184 -0.0273
28545W        W29409   5.372   4.822  23.505 -0.1442 -0.1816 -0.2302
28546W        W29410   4.394   0.741  21.870 -0.0477 -0.1779  0.0509
28547W        W29411   7.335   0.009  21.843  0.0647  0.0197 -0.2487
28548W        W29412   4.845   4.367  20.381 -0.1041 -0.1758  0.1559
28549W        W29413   2.458  27.400  20.156 -0.2492  0.0287  0.1563
28550W        W29414   6.341   1.988  24.647  0.0882 -0.0226  0.0339
28551W        W29415   6.769   1.784  20.199 -0.0417  0.1076  0.0796
28552W        W29416   8.349   6.244  25.374 -0.0374 -0.1799  0.0436
28553W        W29417   4.573   3.600  23.681  0.0241  0.1895  0.1886
28554W        W29418   5.194   1.855  21.563 -0.0809 -0.0254 -0.1274
28555W        W29419   5.662  29.089  22.162 -0.0775 -0.1839  0.1970
28556W        W29420   2.304   3.220  25.887 -0.0786 -0.1696  0.0129
28557W        W29421   6.824   0.463  23.977  0.0763  0.0820 -0.1082
28558W        W29422   5.040  28.119  22.841  0.1542  0.1706  0.2474
28559W        W29423   7.740   1.045  22.102  0.1687  0.3329 -0.1829
28560W        W29424   5.543   0.362  23.060 -0.0468 -0.0436  0.0274
28561W        W29425   7.784   1.987  25.485 -0.1162 -0.3125 -0.0163
28562W        W29426   6.772   0.881  26.345 -0.0391 -0.1367 -0.0317
28563W        W29427   5.968   1.075  24.151  0.2942  0.0596 -0.2084
28564W        W29428   4.134   4.321  26.079 -0.0486  0.1248  0.1992
28565W        W29429   7.712   6.244  24.622 -0.0428  0.3354  0.1777
28566W        W29430   6.071   4.065  23.928 -0.0167 -0.2817 -0.0652
28567W        W29431   6.178   2.808  24.382  0.2191  0.0381  0.0398
28568W        W29432   3.528   0.025  20.962 -0.2435  0.3092 -0.0956
28569W        W29433   7.095   2.480  24.372  0.1143 -0.0416 -0.2052
28570W        W29434   7.164   2.944  21.827  0.2160 -0.2613 -0.0898
28571W        W29435   5.863   0.676  22.826  0.0797 -0.1764  0.0177
28572W        W29436   6.056   1.546  22.657 -0.1959  0.1098 -0.0172
28573W        W29437   6.927   5.004  24.611  0.2425  0.1798 -0.1585
28574W        W29438   6.442   4.735  21.058 -0.0342 -0.0916  0.1773
28575W        W29439   6.836   2.390  25.368  0.1129 -0.2645  0.0279
28576W        W29440   5.202   2.680  23.721  0.1497  0.1355 -0.0055
28577W        W29441   6.353   6.907  24.669 -0.1401  0.1658  0.0218
28578W        W29442   8.890   1.254  24.709  0.2052 -0.0196 -0.1650
28579W        W29443   4.293   2.927  24.912  0.1273 -0.1117 -0.1316
28580W        W29444   7.281   1.074  25.845  0.1433  0.2337  0.0951
28581W        W29445   4.802   3.337  22.317  0.1449  0.1584 -0.0865
28582W        W29446   4.403   4.889  22.927  0.2996  0.1369 -0.0377
28583W        W29447   4.639   1.707  22.057  0.0955 -0.0633 -0.0409
28584W        W29448   2.811   5.241  25.923  0.1432  0.2291 -0.0455
28585W        W29449   4.884   2.040  23.005 -0.3869 -0.0449 -0.0324
28586W        W29450   8.302   1.758  22.999  0.0718 -0.1392 -0.2663
28587W        W29451   5.440   5.040  24.502  0.3125 -0.1292  0.0180
28588W        W29452   4.290   2.721  24.438 -0.3500 -0.0745  0.0679
28589W        W29453   8.673   3.558  24.400  0.1051  0.2363 -0.1416
28590W        W29454   7.704   5.197  26.033 -0.0656 -0.2375  0.2377
28591W        W29455   5.332   1.596  23.657 -0.0661  0.2476  0.0016
28592W        W29456   6.549   0.727  22.752 -0.0740 -0.1215  0.4098
28593W        W29457   7.593   7.329  24.965 -0.1087  0.0144  0.1920
28594W        W29458   1.695   4.453  22.659 -0.0298  0.0391 -0.0368
28595W        W29459   5.358   3.624  23.190  0.2232  0.0311 -0.0548
28596W        W29460   7.781   3.734  23.406  0.0685 -0.3513  0.0294
28597W        W29461   4.803   3.895  26.328  0.1420 -0.1117 -0.0639
28598W        W29462   5.628   1.962  22.374  0.0797 -0.0270 -0.0482
28599W        W29463   4.189   2.411  22.473 -0.1840  0.2597  0.0298
28600W        W29464   1.943   3.542   0.296  0.0343 -0.2584 -0.3894
28601W        W29465   3.603   2.294  28.488  0.0306 -0.3139  0.1977
28602W        W29466   7.846   0.386  26.913  0.0225 -0.1529  0.1762
28603W        W29467   6.498   5.091  28.159 -0.0100 -0.0681 -0.2505
28604W        W29468   5.845   4.829  24.256  0.0595  0.1314  0.0609
28605W        W29469   5.140   1.743  24.960  0.0183  0.2003 -0.0083
28606W        W29470   5.865   2.972  26.930 -0.1803  0.1314  0.1533
28607W        W29471   4.747   3.524  24.451  0.2421  0.0925 -0.0030
28608W        W29472   4.857   5.133   0.205  0.1830 -0.1986 -0.3541
28609W        W29473   3.643   2.367  29.035  0.1884  0.1246 -0.0961
28610W        W29474   6.412   0.142  28.638 -0.0350  0.2512 -0.0169
28611W        W29475   7.313   1.288  25.038 -0.0039  0.2601 -0.0654
28612W        W29476   7.204   2.136  25.629  0.0276  0.0778  0.0263
28613W        W29477   8.099  28.181  27.098  0.0429  0.0893 -0.1900
28614W        W29478   3.856   0.677  28.141  0.0933 -0.3065 -0.1423
28615W        W29479   3.967   2.729   0.209 -0.0757 -0.1311 -0.2239
28616W        W29480   6.486   6.538  25.054 -0.2236  0.0484  0.4944
28617W        W29481   2.828   0.710  28.262  0.2538  0.1400 -0.0640
28618W        W29482   5.690   2.960   0.426  0.4287 -0.1254  0.1202
28619W        W29483   7.964   1.037   1.198  0.4135  0.2040  0.1660
28620W        W29484   5.077  26.750  25.402  0.0223 -0.0574  0.1412
28621W        W29485   8.070   3.288  26.834  0.0767  0.1552  0.2135
28622W        W29486   5.776   0.619  26.827 -0.0604 -0.1819 -0.1141
28623W        W29487   5.089   2.964   0.589 -0.0980  0.1366  0.2950
28624W        W29488   3.861   0.110  27.748 -0.3761 -0.3998 -0.1769
28625W        W29489   5.165   1.041  28.475 -0.1115  0.0641  0.2089
28626W        W29490   8.312   2.125  26.199 -0.1817 -0.2482 -0.0097
28627W        W29491   3.268   0.442   0.533 -0.0414 -0.0361 -0.1448
28628W        W29492   8.095   1.840  29.009 -0.2115 -0.1725 -0.1596
28629W        W29493   6.661   0.686   0.211 -0.0988 -0.2078  0.1799
28630W        W29494   6.885   2.834  26.037  0.2091  0.1112 -0.3131
28631W        W29495   5.259   2.332  26.994 -0.2903  0.1186 -0.4074
28632W        W29496   6.298   3.007  25.879 -0.2532  0.1496 -0.2053
28633W        W29497   4.054   5.673   0.106 -0.1438 -0.1157 -0.2583
28634W        W29498   4.883   2.318   0.420 -0.2387  0.0636 -0.0969
28635W        W29499   5.597   2.740  28.485  0.1541  0.4742  0.1168
28636W        W29500   4.606   0.892  26.826  0.3445  0.0792  0.0538
28637W        W29501   4.832   2.620  26.932 -0.1647 -0.0876 -0.3691
28638W        W29502   7.796   1.626  26.922 -0.0815  0.2611 -0.1033
28639W        W29503   7.615   1.547  28.080 -0.1857  0.0933  0.2580
28640W        W29504   8.655   3.018  24.267 -0.1380 -0.0257 -0.2404
28641W        W29505   7.671   2.325  27.002  0.2609 -0.2640  0.0287
28642W        W29506   5.037   3.601   0.202  0.0247 -0.2076  0.0393
28643W        W29507   7.073   4.236  26.979 -0.0010  0.1372  0.0716
28644W        W29508   5.883   3.494  26.150 -0.1873 -0.0073  0.0550
28645W        W29509   4.577   2.760  27.469  0.2884  0.0105 -0.2798
28646W        W29510   3.772  28.929  29.073 -0.1844 -0.0680 -0.2346
28647W        W29511   6.407   1.555  28.468 -0.1938 -0.0563  0.0006
28648W        W29512   9.445   3.000  26.653  0.1155  0.2272  0.0756
28649W        W29513   6.063   1.479  24.560 -0.1268  0.0821  0.2585
28650W        W29514   7.594   2.758  26.566 -0.0615  0.0712  0.1115
28651W        W29515   5.739   2.068  27.792  0.0277 -0.3426 -0.0087
28652W        W29516   6.404   3.035  26.880 -0.2507  0.3468 -0.0754
28653W        W29517   5.071   3.654  24.806  0.2452  0.3203 -0.0308
28654W        W29518   4.195   1.413  27.967  0.1020  0.1699  0.0076
28655W        W29519   2.416   4.784  25.391  0.1173  0.0702  0.0152
28656W        W29520   5.567   1.140  23.772  0.1487 -0.0993  0.1243
28657W        W29521   7.745   2.647  25.209  0.0303 -0.3842  0.2397
28658W        W29522   3.852   3.527   0.554 -0.1940 -0.0255  0.0573
28659W        W29523   6.365   2.472  25.113 -0.1499  0.2422  0.1517
28660W        W29524   6.124  29.054  23.755 -0.0215  0.1289  0.1879
28661W        W29525   3.397   3.446  26.645 -0.2537 -0.2130 -0.3430
28662W        W29526   3.903   3.850  28.724 -0.0636  0.0799  0.3769
28663W        W29527   5.086   3.995  24.434  0.3885  0.3693 -0.2338
28664W        W29528   5.511   0.766   0.081  0.0681 -0.2050 -0.1155
28665W        W29529   8.188   1.636  25.439  0.2527  0.0608 -0.3266
28666W        W29530   4.582   1.254  24.637 -0.0133  0.1328 -0.1159
28667W        W29531   5.679   2.486  23.798 -0.1813  0.1518 -0.3318
28668W        W29532   4.604   1.745  24.792 -0.1709  0.2913  0.2340
28669W        W29533   7.535   1.294  27.270  0.2760  0.2569 -0.1245
28670W        W29534   6.414   5.344   1.272  0.0714  0.1637 -0.2081
28671W        W29535   5.900   2.260  22.809  0.0765 -0.1067  0.2058
28672W        W29536   4.156   3.954  27.099 -0.1325 -0.0604 -0.1974
28673W        W29537   9.802  27.914  25.697  0.0146  0.0812 -0.0846
28674W        W29538   9.231   3.771  27.727 -0.1225 -0.0168 -0.2222
28675W        W29539   8.483   0.341  26.827  0.0670  0.1523  0.0359
28676W        W29540   3.667   1.902  25.980 -0.1044  0.0801  0.1696
28677W        W29541   7.036   2.373  27.856  0.4127 -0.2013 -0.2032
28678W        W29542   5.934  28.895  25.737 -0.0823  0.2250 -0.1245
28679W        W29543   7.541   1.527  26.396  0.0999 -0.0984  0.0294
28680W        W29544   4.370   2.403  27.182  0.0957 -0.3725  0.1351
28681W        W29545   4.348   1.858  28.179  0.0221 -0.2200 -0.2773
28682W        W29546   4.822  28.508  26.411 -0.0596  0.0377  0.1106
28683W        W29547   4.828   0.511  26.243  0.3973 -0.0063  0.0595
28684W        W29548   5.880   4.767  27.499 -0.0175 -0.0346 -0.0623
28685W        W29549   6.660   1.150  24.163  0.0577  0.1167 -0.1870
28686W        W29550   5.467   3.722  26.473  0.3406 -0.0468  0.0079
28687W        W29551   4.741   2.338  28.820  0.1900 -0.3223  0.0861
28688W        W29552   5.885   3.996  27.911  0.0717  0.2580 -0.2001
28689W        W29553   5.926   1.469  28.688 -0.0604 -0.3014 -0.0550
28690W        W29554   6.955   0.987  27.641 -0.0832 -0.1716  0.0821
28691W        W29555   8.222   1.295  28.977 -0.1499 -0.0547  0.0012
28692W        W29556   3.134   0.299  26.944 -0.3257  0.0739  0.2300
28693W        W29557   9.708   1.266  27.593  0.2167 -0.0481 -0.1533
28694W        W29558   4.088   0.972  28.516 -0.1190 -0.1919 -0.0236
28695W        W29559   6.421   1.499  23.382 -0.1134  0.2473  0.0416
28696W        W29560   6.454  27.793  24.898 -0.0750 -0.0853  0.3434
28697W        W29561   7.851   0.807  27.373  0.0222 -0.0773  0.2027
28698W        W29562   4.369  27.877  25.270 -0.1130 -0.2153  0.0226
28699W        W29563   7.464   0.965  27.696  0.0895  0.2282 -0.1114
28700W        W29564   7.889   3.193  24.057  0.0504 -0.1955 -0.1273
28701W        W29565   4.036   0.750  26.617  0.0179  0.3665 -0.4455
28702W        W29566   6.964   1.117  25.357 -0.1657 -0.0810 -0.1413
28703W        W29567   7.614   2.959  24.517 -0.0248 -0.1235  0.1296
28704W        W29568   7.357   0.051  28.119  0.0107  0.1024  0.2082
28705W        W29569   4.276   1.732  28.973 -0.0330 -0.1971  0.0733
28706W        W29570   6.465   5.428  24.047 -0.0533 -0.0579 -0.0671
28707W        W29571   4.910   3.449  25.432 -0.1782  0.3886 -0.3246
28708W        W29572   5.090   1.915   0.828 -0.1362  0.2113  0.1913
28709W        W29573   7.980   2.419  28.369  0.2009  0.0181 -0.1286
28710W        W29574   2.672   2.535  27.847  0.1504 -0.0252 -0.0166
28711W        W29575   9.186   2.711  27.396  0.0828  0.0691 -0.2240
28712W        W29576   8.240   1.031  26.185 -0.1881 -0.1853  0.3027
28713W        W29577   8.406   3.015  27.138  0.4075  0.2706 -0.2073
28714W        W29578   9.527   1.705  26.501 -0.0971  0.0731  0.0492
28715W        W29579   3.998   1.737  23.731  0.1462 -0.0264  0.1605
28716W        W29580   9.175   2.450  28.710  0.1135 -0.1636 -0.0327
28717W        W29581   6.430   3.567   0.154 -0.1730 -0.3874 -0.1446
28718W        W29582   5.455   1.026  27.850 -0.0573  0.2781 -0.0392
28719W        W29583   5.611   3.955  25.548 -0.2054 -0.1765  0.1576
28720W        W29584   5.672   4.647  24.740  0.4114 -0.2687 -0.2582
28721W        W29585   7.821   3.435  25.504 -0.2074 -0.0850  0.2091
28722W        W29586   5.587   4.490  25.213  0.1888  0.0453  0.4123
28723W        W29587   5.515   1.498  25.223 -0.1782 -0.2477  0.0043
28724W        W29588   3.558   2.404  26.969  0.0618  0.0544  0.0356
28725W        W29589   8.657  28.959  25.589  0.2107  0.1311 -0.1767
28726W        W29590   5.542   0.668  28.743  0.1793 -0.3930 -0.2093
28727W        W29591   7.220   2.384  26.711 -0.0176 -0.0761 -0.2836
28728W        W29592   7.723   3.251  28.779  0.1106  0.3397 -0.1461
28729W        W29593   6.622   4.061  27.117 -0.0313  0.5516 -0.0176
28730W        W29594   6.743   4.836  28.770 -0.0937 -0.1669 -0.1115
28731W        W29595   5.864  28.795  26.647  0.1412 -0.0805 -0.0963
28732W        W29596   7.354   3.449  27.957 -0.0867  0.3115 -0.2917
28733W        W29597   7.680  28.424  25.301  0.0139  0.0431  0.0156
28734W        W29598   6.065   3.363  27.820  0.2360  0.0003 -0.0458
28735W        W29599   2.890   3.928  28.926  0.2743  0.1069 -0.0929
28736W        W29600   6.453   0.971  27.868  0.1767  0.2402  0.1273
28737W        W29601   6.416   0.653  28.834 -0.2086  0.2022  0.3819
28738W        W29602   5.539   3.498  25.793  0.3591  0.2923  0.0007
28739W        W29603   6.835   2.457  26.406  0.3326 -0.0937  0.3250
28740W        W29604   4.580   3.086  25.274 -0.1430  0.1658 -0.2726
28741W        W29605   7.554   2.431   0.494 -0.2922  0.1467 -0.2665
28742W        W29606   4.255   3.904  26.333 -0.1270  0.3315  0.0218
28743W        W29607   2.793   2.278  23.715 -0.1846 -0.1838 -0.0260
28744W        W29608   6.203   0.604   1.646 -0.0357 -0.2411 -0.1331
28745W        W29609   5.767   0.961  25.303  0.2643 -0.0302  0.0422
28746W        W29610   5.040  28.960  26.075 -0.1549  0.1547 -0.0162
28747W        W29611   7.529   2.411  27.952  0.0036 -0.0438 -0.1746
28748W        W29612   6.346   3.972  26.236 -0.1591 -0.0862 -0.0785
28749W        W29613   7.112   3.079  26.970  0.1374 -0.3731  0.2168
28750W        W29614   6.038   2.423  27.622 -0.1678  0.2788  0.1425
28751W        W29615   4.369   2.058  23.590  0.1160  0.1145 -0.0266
28752W        W29616   4.509   0.079  25.036 -0.0433 -0.1135 -0.3499
28753W        W29617   6.901   2.175  27.305  0.3615  0.1013 -0.3467
28754W        W29618   3.941   0.960  26.024 -0.0811 -0.0243  0.1581
28755W        W29619   7.233   1.428  27.749  0.0708  0.0080  0.1808
28756W        W29620   3.358   4.397   0.582 -0.0391 -0.1205  0.1596
28757W        W29621   4.980   3.188  27.086 -0.2308 -0.1349  0.1983
28758W        W29622   5.093   0.827  23.959  0.1940 -0.1242  0.3093
28759W        W29623   5.465   4.401  24.320 -0.0474  0.1544 -0.0310
28760W        W29624   7.034   0.616  26.781  0.0346 -0.0293  0.1559
28761W        W29625   4.046   2.612  27.533 -0.1361 -0.0613 -0.3203
28762W        W29626   2.877   2.969  28.030 -0.0666  0.2864 -0.0395
28763W        W29627   7.281  28.803   2.844  0.1633  0.0973 -0.0406
28764W        W29628   5.377  28.713   0.955  0.5557  0.2246 -0.1855
28765W        W29629   4.811  28.879  28.906  0.3948 -0.0077  0.1931
28766W        W29630   7.666   1.765  27.406  0.2374 -0.1651  0.3120
28767W        W29631   3.082   3.135  25.601 -0.0061  0.0438  0.0120
28768W        W29632   3.395   3.359  27.132  0.1935  0.0760 -0.0571
28769W        W29633   3.915   6.503  25.706 -0.0365 -0.0084  0.0374
28770W        W29634   5.994   3.860  26.531 -0.0167  0.2792 -0.1506
28771W        W29635   8.181   2.430  28.934  0.0859 -0.3389 -0.1342
28772W        W29636   5.538   4.633  28.314  0.0016  0.3225  0.3235
28773W        W29637   7.160   2.641  28.301 -0.0639 -0.4090 -0.0574
28774W        W29638   6.122   1.740  27.668  0.0744  0.4704  0.1273
28775W        W29639   8.201   2.624  23.503  0.2130  0.1263 -0.1599
28776W        W29640   0.458   4.199  27.749 -0.0863  0.2296 -0.1051
28777W        W29641   4.345   0.892  27.359  0.0060  0.2857  0.4596
28778W        W29642   4.537   2.341  26.662 -0.0153 -0.0224 -0.1231
28779W        W29643   5.563   2.328   0.877  0.0589  0.0512 -0.0137
28780W        W29644   6.068   4.746  26.703  0.1654  0.1639  0.1400
28781W        W29645   7.196   4.589  26.020 -0.3564 -0.1886 -0.0749
28782W        W29646   5.823   3.375  25.171 -0.0499  0.2117 -0.1188
28783W        W29647   6.349   1.152  27.034  0.1220 -0.1012 -0.4530
28784W        W29648   5.010   0.523  25.658  0.0602  0.0319 -0.0236
28785W        W29649   6.538   1.384  27.530 -0.1062 -0.0972  0.1372
28786W        W29650   7.949   2.129  23.374  0.1081  0.1287 -0.0262
28787W        W29651   6.567   1.724  27.166  0.0849  0.1232  0.0660
28788W        W29652   5.191   3.761   1.422  0.0368  0.1011 -0.0605
28789W        W29653   4.312   2.820  25.856  0.0540  0.0228  0.0995
28790W        W29654   4.470   3.144  24.128  0.2092  0.0014 -0.0513
28791W        W29655   3.302   2.472  26.488 -0.1330 -0.1584 -0.1569
28792W        W29656   4.282   3.418   2.410 -0.0256 -0.1973 -0.0459
28793W        W29657   6.060   1.931   0.914  0.0629  0.1188 -0.0552
28794W        W29658   9.302  27.632  28.894  0.0251 -0.1256  0.1961
28795W        W29659   7.132   0.555  27.389  0.1991 -0.0957  0.2364
28796W        W29660   5.323  28.741  26.516  0.0453 -0.0991  0.0664
28797W        W29661   2.119   0.451   0.758  0.0763 -0.0519 -0.0719
28798W        W29662   4.187   0.558  27.022  0.0547 -0.3561 -0.1396
28799W        W29663   7.430   1.251  28.676 -0.2391  0.3469 -0.0116
28800W        W29664   3.828   0.892  27.261 -0.0411  0.1398  0.0137
28801W        W29665   6.420   0.256  29.139 -0.1761  0.4696 -0.0824
28802W        W29666   6.697   2.800  24.269  0.2806 -0.2298 -0.2601
28803W        W29667   4.666   3.202   0.337  0.1756 -0.2146  0.2066
28804W        W29668   6.565   1.042   1.680  0.2877 -0.2620 -0.3333
28805W        W29669   4.438   0.758  23.425 -0.1020  0.3621 -0.4147
28806W        W29670   4.973   1.963  28.337  0.0636 -0.1002  0.0879
28807W        W29671   4.620   2.423  28.316  0.1288  0.1019  0.3155
28808W        W29672   8.974   1.935  27.991 -0.0081 -0.3674  0.4315
28809W        W29673   5.601   5.055  25.088 -0.0832 -0.0724  0.3171
28810W        W29674   5.130   1.929  29.119 -0.1371  0.0853  0.0796
28811W        W29675   3.840   1.091  27.732 -0.0660 -0.1431  0.0007
28812W        W29676   4.611  29.097  27.304 -0.0307  0.0570  0.2736
28813W        W29677   7.829  28.523  28.416  0.0177 -0.0715 -0.0952
28814W        W29678   7.768   1.189   0.348 -0.2117  0.3521 -0.1574
28815W        W29679   6.871  27.506  26.147  0.3491  0.2821 -0.0163
28816W        W29680   7.111   4.343  25.414  0.2999 -0.0831 -0.3743
28817W        W29681   6.578   4.301  24.078  0.2015  0.0113 -0.1412
28818W        W29682   4.615  29.104   0.544 -0.3192 -0.1590  0.1968
28819W        W29683   3.813   1.794   0.112 -0.2222  0.1643 -0.0766
28820W        W29684  10.637  26.807   0.344 -0.0553  0.1144 -0.2464
28821W        W29685   9.133   0.639  29.066  0.1011  0.1791  0.1208
28822W        W29686   3.491   1.039  28.711 -0.2003  0.1550 -0.5765
28823W        W29687   7.448  27.663  23.666 -0.1678  0.0122 -0.2386
28824W        W29688   6.664   2.941  25.327 -0.3452 -0.1379  0.0081
28825W        W29689   4.068   2.223   0.279  0.0964  0.1323  0.0263
28826W        W29690   4.460   1.869  26.514 -0.0735  0.3160  0.0166
28827W        W29691   8.620  27.793  27.449 -0.0132 -0.0306  0.0210
28828W        W29692   6.216   4.631  24.022 -0.0023  0.0380 -0.0296
28829W        W29693  10.087   1.995  26.603  0.0427  0.0057 -0.0229
28830W        W29694   6.446  28.720  28.612 -0.0208  0.0375 -0.1833
28831W        W29695   3.833   3.506  27.910  0.0816  0.0575  0.2317
28832W        W29696   4.535   2.314  24.796  0.2794 -0.0734 -0.0208
28833W        W29697   6.239   3.791  27.552 -0.1639 -0.0410  0.1387
28834W        W29698   1.383   0.029  24.448  0.1857 -0.3934 -0.2046
28835W        W29699   5.192   3.503  27.423  0.1009  0.1121 -0.0589
28836W        W29700   7.546   3.790  25.377  0.0792 -0.1909 -0.0751
28837W        W29701   7.343   2.183   0.836  0.1652  0.1162 -0.0410
28838W        W29702   5.609   2.521  27.332  0.3682  0.2275  0.0818
28839W        W29703   4.140   2.122  27.771 -0.0879 -0.2167  0.0051
28840W        W29704   7.147   6.267  28.302 -0.1652 -0.0097 -0.1319
28841W        W29705   6.047   2.529   0.157  0.1561 -0.2411  0.0116
28842W        W29706   6.243   0.916   1.321 -0.1210  0.1803  0.2726
28843W        W29707   4.270  28.900  25.320  0.0322  0.0181 -0.0127
28844W        W29708   6.196   2.080  26.846 -0.0677  0.3475  0.0846
28845W        W29709   6.612   0.552  24.870 -0.0735 -0.0139  0.0950
28846W        W29710   7.666   2.890  27.049 -0.2519  0.1916 -0.2696
28847W        W29711   3.455   3.670  28.342 -0.1370  0.0591  0.1200
28848W        W29712   5.849   5.383  26.004 -0.1835  0.2119  0.0048
28849W        W29713   3.716   0.324  27.349  0.1840  0.2422  0.0156
28850W        W29714   5.259   2.093  27.465  0.0844 -0.1718  0.0514
28851W        W29715   4.662   2.084  24.357 -0.0292 -0.1298 -0.0275
28852W        W29716   4.824   1.667  27.383  0.1118  0.0517 -0.0401
28853W        W29717   8.101   2.541  27.895  0.1979 -0.2049 -0.1639
28854W        W29718   3.276  27.033  26.810 -0.1949  0.2685 -0.0250
28855W        W29719   8.076   4.209  24.270 -0.2351 -0.0155 -0.2377
28856W        W29720   6.438   1.617  24.939 -0.0034  0.2123  0.0288
28857W        W29721   4.320  28.817  28.642  0.1369 -0.1348  0.3547
28858W        W29722   5.872   3.017  28.116 -0.3717  0.3562  0.0453
28859W        W29723   9.185   0.155  27.281  0.1929  0.0801  0.0498
28860W        W29724   7.706   2.672  27.501  0.0526  0.2067  0.0553
28861W        W29725   3.391   0.858  28.243 -0.1006  0.0746  0.0137
28862W        W29726   8.691   2.626  27.135  0.1097 -0.0389 -0.2346
28863W        W29727   6.379   3.339  28.871 -0.0082  0.0432  0.1386
28864W        W29728   4.246   1.820  25.918 -0.2395 -0.3930 -0.0340
28865W        W29729   1.380   4.309  26.268 -0.0549  0.3955  0.2236
28866W        W29730   4.307   2.120  25.217 -0.1664 -0.2635 -0.2186
28867W        W29731   7.949   5.404  24.820  0.3705 -0.0050 -0.0058
28868W        W29732   3.895   1.359  28.855 -0.0309 -0.3446 -0.1533
28869W        W29733   6.951   1.935  26.327  0.0322 -0.2555 -0.2908
28870W        W29734   5.514   3.366  24.762  0.0429 -0.0303  0.1860
28871W        W29735   6.577   1.072  28.421 -0.1657 -0.0971 -0.0334
28872W        W29736   8.061   3.015  25.368 -0.0534 -0.0021 -0.0863
28873W        W29737   4.880  28.397  25.924  0.2368 -0.4512  0.1441
28874W        W29738   3.715   3.932  26.770 -0.0147  0.0532  0.1506
28875W        W29739   5.195  28.585  28.724 -0.1314  0.0500  0.1980
28876W        W29740   5.142   1.387   0.169 -0.0385 -0.0246  0.0668
28877W        W29741   3.433  28.607  26.926  0.1182 -0.0772  0.0540
28878W        W29742   4.095   3.298  25.663 -0.1996 -0.1192 -0.0921
28879W        W29743   3.249   3.918  27.047 -0.4866 -0.1601  0.1521
28880W        W29744   4.418   2.814  26.544 -0.1746  0.0225 -0.0244
28881W        W29745   3.645   2.074  26.457 -0.1622  0.1507  0.0456
28882W        W29746   4.680  28.890  24.141 -0.3833  0.0198  0.1231
28883W        W29747   5.141   0.596  27.972  0.2754  0.0217 -0.0231
28884W        W29748   6.413   3.476  25.917 -0.1555 -0.1490 -0.1132
28885W        W29749   7.194   1.440   0.462 -0.0268 -0.1836  0.4546
28886W        W29750   5.472   3.675  27.819  0.0728  0.5284 -0.0493
28887W        W29751   0.853   2.934  28.288  0.0737  0.2476 -0.2975
28888W        W29752   7.697   2.143  25.026 -0.2797  0.1070 -0.2017
28889W        W29753   5.520   4.345  27.467  0.0383 -0.1122 -0.0086
28890W        W29754   5.118   1.347  27.621 -0.0235 -0.0166  0.3912
28891W        W29755   8.717   0.514  26.356  0.0364  0.1388  0.2132
28892W        W29756   5.920   0.090  28.869 -0.2316  0.0382 -0.0746
28893W        W29757   3.296   0.633  27.344 -0.2551  0.2149 -0.1484
28894W        W29758   6.149   3.254  24.652 -0.4330  0.2190  0.0562
28895W        W29759   6.441   2.083  27.486 -0.1226  0.0795 -0.0926
28896W        W29760   1.850  27.648  27.201  0.0523 -0.1547 -0.2608
28897W        W29761   8.972   4.062  25.186 -0.1751 -0.0689 -0.0139
28898W        W29762   8.740   1.484  26.823  0.1495 -0.2143  0.2232
28899W        W29763   5.059   6.608  27.223  0.0135 -0.0475  0.1023
28900W        W29764   2.839   3.069  25.021  0.3973 -0.0233 -0.0985
28901W        W29765   5.897   1.270  26.662 -0.0158  0.1507  0.1299
28902W        W29766   5.167   2.927  28.196 -0.0617 -0.1542 -0.1070
28903W        W29767   7.011   0.282  24.880  0.1879  0.0858  0.2681
28904W        W29768   7.132   2.730  25.559  0.0156  0.1273  0.2737
28905W        W29769   7.199   1.392  28.309 -0.3009 -0.0084  0.1962
28906W        W29770   6.728   0.559   1.617  0.0428 -0.0743 -0.0737
28907W        W29771   4.000  29.063  26.451 -0.0046 -0.1672  0.3163
28908W        W29772   7.863   2.198  27.544 -0.2042  0.0451 -0.0226
28909W        W29773   3.489   0.819  26.341  0.2500 -0.2973 -0.0594
28910W        W29774   4.347   0.243  25.462 -0.0118  0.2492 -0.2171
28911W        W29775   3.315   2.813  27.860  0.4420 -0.0376  0.2486
28912W        W29776   4.379   0.633  24.329  0.3219 -0.0358 -0.1633
28913W        W29777   8.857   3.128  27.290  0.0412  0.0016  0.2298
28914W        W29778   2.285   2.584  27.385 -0.1008 -0.0297 -0.1349
28915W        W29779   3.841   4.354  27.045 -0.1654  0.1701  0.1481
28916W        W29780   5.179  27.283  25.379 -0.0686 -0.0061 -0.0680
28917W        W29781   6.688   2.939  27.289 -0.0743 -0.2026 -0.1455
28918W        W29782   6.658   3.841  26.633  0.2507  0.3285  0.0519
28919W        W29783   4.530  28.951  26.314  0.3794 -0.1151 -0.0341
28920W        W29784   3.079   6.064  28.150 -0.2868  0.0033 -0.0304
28921W        W29785   6.206   1.481  24.014  0.2940 -0.0224  0.0011
28922W        W29786   4.257   3.564  26.647 -0.0235  0.2013 -0.2657
28923W        W29787   4.958   2.442  25.739  0.2411 -0.0257 -0.1699
28924W        W29788   5.692   6.026  25.973  0.2734  0.0705 -0.3331
28925W        W29789   5.190   1.692  27.094  0.2050  0.1185 -0.3288
28926W        W29790   3.774   1.283  28.221 -0.0898  0.0387  0.0680
28927W        W29791   7.237   1.064  26.676 -0.0560 -0.0056 -0.3618
28928W        W29792   6.112   4.233  23.419 -0.0388  0.0215 -0.0352
28929W        W29793   3.112   3.557  28.001  0.1852  0.1111  0.2613
28930W        W29794   7.816  28.215  27.619  0.1343 -0.1612 -0.1705
28931W        W29795   6.786   3.740  25.701  0.3913  0.2001 -0.0298
28932W        W29796   7.951   1.130  28.095 -0.0214 -0.0814 -0.1886
28933W        W29797   4.340   2.723  27.969  0.1572  0.2061  0.0947
28934W        W29798   8.765   3.300  28.209 -0.3684  0.1665 -0.0622
28935W        W29799   6.580   1.882   1.528  0.1765 -0.0743  0.3401
28936W        W29800   4.573   4.764  27.927 -0.3680 -0.0904 -0.0309
28937W        W29801   6.597   4.183  25.377  0.1157  0.0868 -0.1747
28938W        W29802   6.871   1.791  25.749  0.1181 -0.3720  0.0359
28939W        W29803   5.613   0.530  27.258 -0.2128 -0.2800 -0.3261
28940W        W29804   6.823   3.325  23.364  0.0984 -0.2830  0.1384
28941W        W29805   4.026   2.226  26.755 -0.0266  0.0701  0.2953
28942W        W29806   3.429   0.386  25.358  0.0229 -0.1562 -0.0242
28943W        W29807   5.409   3.447  25.336 -0.0066 -0.3459 -0.1345
28944W        W29808   6.790   1.435  26.341 -0.1119  0.1132 -0.0660
28945W        W29809   5.016   1.501  25.688 -0.0047 -0.3512  0.0077
28946W        W29810   3.571   2.230  25.163  0.5098  0.0919 -0.0917
28947W        W29811   4.289   0.803   0.131  0.1873  0.0364 -0.6149
28948W        W29812   4.552   3.863  25.850 -0.0654 -0.1393 -0.3280
28949W        W29813   4.081   4.738  27.920  0.0102 -0.1187  0.0069
28950W        W29814   5.166   1.926  25.458  0.0522  0.0559  0.0319
28951W        W29815   7.943   1.252  24.521  0.4071 -0.0829  0.2544
28952W        W29816   6.571   2.999  26.402  0.0471 -0.0001 -0.1632
28953W        W29817   5.178   4.290  27.133  0.0276  0.2910  0.2582
28954W        W29818   5.788   2.738  26.439 -0.1539 -0.1835 -0.0381
28955W        W29819   7.566   0.478  24.845  0.1742 -0.1111  0.0910
28956W        W29820   5.048   3.493  25.902  0.0745  0.3004 -0.2690
28957W        W29821   4.607   1.217  27.672  0.0159 -0.1579  0.1356
28958W        W29822   5.726   1.515  27.871  0.0765  0.0292 -0.1755
28959W        W29823   5.921   2.103  27.232 -0.1238  0.0789 -0.1261
28960W        W29824   6.701   1.392  28.082  0.0686 -0.1481  0.1255
28961W        W29825   3.706   0.730   1.492  0.1163 -0.2793 -0.0560
28962W        W29826   3.689   2.441  27.906 -0.0306 -0.3522  0.1031
28963W        W29827   8.287   1.071  27.452 -0.3249 -0.1758  0.3816
28964W        W29828   3.634   4.631  24.753  0.1409 -0.1413 -0.2780
28965W        W29829   5.887   5.229  28.509  0.2505  0.1843  0.0872
28966W        W29830   6.636   1.487   0.151  0.2128  0.0795 -0.6741
28967W        W29831   5.200   1.531  28.266  0.1171 -0.1922  0.2105
28968W        W29832   6.666   1.596  24.498 -0.0145 -0.4083  0.0279
28969W        W29833   7.461   1.930  26.034  0.1278 -0.4302 -0.1187
28970W        W29834   5.125   1.595  23.063  0.2042  0.0703  0.0633
28971W        W29835  10.321  28.130  29.118 -0.1603  0.0717 -0.1889
28972W        W29836   6.848   2.375  25.866 -0.2338  0.3316 -0.0231
28973W        W29837   8.938   2.294  27.539 -0.1274 -0.0618 -0.2167
28974W        W29838   7.541   2.552  24.750 -0.2445 -0.0692 -0.0118
28975W        W29839   5.525   0.193  28.571 -0.0479 -0.0828 -0.1546
28976W        W29840   5.915   0.052  27.508 -0.2305 -0.2369  0.1445
28977W        W29841   7.527   2.951  28.020 -0.2541  0.0113 -0.0905
28978W        W29842   4.362  28.167  28.690 -0.2811 -0.1613 -0.1873
28979W        W29843   5.418   1.640  28.759  0.3107 -0.0347  0.1030
28980W        W29844   5.886   2.334  28.224  0.4534  0.0904 -0.1049
28981W        W29845   5.252   4.763  24.002 -0.0748  0.3242 -0.4827
28982W        W29846   3.028   3.342  26.254 -0.1276 -0.0358  0.2847
28983W        W29847   6.288   2.591  26.638 -0.1499 -0.1689  0.1054
28984W        W29848   6.998   2.041  28.924 -0.2230  0.0429  0.3949
28985W        W29849   6.867   1.599   1.216 -0.1457  0.1046  0.0749
28986W        W29850   7.067   2.996  24.570 -0.1240  0.1797  0.1700
28987W        W29851   3.910   0.834  24.074  0.2033 -0.0488  0.3510
28988W        W29852   4.926   3.125  27.682 -0.1098 -0.3287 -0.1913
28989W        W29853   5.463   2.586  25.366 -0.0290  0.0497 -0.1290
28990W        W29854   5.639   3.679   1.068 -0.1583  0.0601  0.0340
28991W        W29855   5.441   3.012  27.191 -0.0875  0.0992  0.0657
28992W        W29856   8.693   1.795  27.549  0.2821 -0.1209  0.2744
28993W        W29857   5.889   2.066  25.886  0.0826  0.1663 -0.2325
28994W        W29858   4.562   1.416  27.097 -0.1986 -0.0225 -0.2010
28995W        W29859   6.764   3.493   1.336 -0.1403 -0.1071  0.4158
28996W        W29860   6.005   4.201  24.400  0.0571 -0.3513 -0.0628
28997W        W29861   5.614   1.264   0.329  0.3542 -0.0775 -0.0401
28998W        W29862   5.957   2.668  25.883  0.1261  0.3140  0.0976
28999W        W29863   7.152  28.388  25.172  0.2535 -0.1649  0.3276
29000W        W29864   5.434   6.854   2.497  0.0552 -0.0791  0.2202
29001W        W29865   3.293   5.981   2.187 -0.2947 -0.0083 -0.1951
29002W        W29866   7.768   4.766   0.518  0.2160 -0.2065 -0.0389
29003W        W29867   7.634  10.190   1.843  0.2927 -0.1352 -0.1824
29004W        W29868   3.765   6.520  28.586 -0.3216 -0.2726 -0.0397
29005W        W29869   4.938   3.316   1.525 -0.1969  0.2526  0.1395
29006W        W29870   4.913   5.459   1.365 -0.1516 -0.0214 -0.2444
29007W        W29871   3.622   3.921  27.328  0.2047 -0.1311  0.1522
29008W        W29872   5.629   7.788   2.985 -0.2122 -0.2669 -0.2348
29009W        W29873   1.661   1.791   3.327 -0.0810 -0.1570  0.0138
29010W        W29874   5.863   3.466   0.300 -0.4328  0.0644 -0.1528
29011W        W29875   6.977   3.964   3.529  0.1268  0.0832 -0.0967
29012W        W29876   3.651   3.008  27.304 -0.0183  0.4729  0.1030
29013W        W29877   7.428   7.205   4.056  0.0390  0.5425 -0.2845
29014W        W29878   1.618   4.603   1.242 -0.1504  0.2677 -0.2325
29015W        W29879   5.426   6.007   6.123  0.2186  0.0203 -0.1511
29016W        W29880   4.592   3.970  28.514 -0.1758  0.0487  0.1782
29017W        W29881   6.322   4.390   2.472  0.0962 -0.1597  0.2150
29018W        W29882   3.464   6.812   2.247 -0.0195  0.0381 -0.0063
29019W        W29883   5.475   4.793   2.046  0.2814  0.1837  0.1889
29020W        W29884   4.119   8.357   1.570  0.1902 -0.1467 -0.2230
29021W        W29885   3.707   4.026   1.064 -0.1688 -0.1580 -0.0966
29022W        W29886   3.784   8.283   1.203  0.2425  0.0754 -0.1372
29023W        W29887   4.589   5.057   1.457 -0.1516 -0.0415 -0.2138
29024W        W29888   2.594   6.005   2.798 -0.2128 -0.2311 -0.0767
29025W        W29889   5.462   7.361   2.786  0.0817  0.1296  0.0845
29026W        W29890   6.639   6.712   3.754 -0.1072 -0.1042  0.0246
29027W        W29891   5.079   8.121   1.244 -0.1392 -0.1173  0.2785
29028W        W29892   6.980   6.005   2.304  0.1978  0.0811  0.1333
29029W        W29893   2.586   6.511   2.543  0.0105  0.0481  0.0628
29030W        W29894   5.092   6.137  27.736  0.2994 -0.0839  0.0161
29031W        W29895   7.159   8.559   3.534 -0.0762 -0.0851  0.2002
29032W        W29896   3.142   5.782   4.359  0.0441 -0.2651 -0.2326
29033W        W29897   6.697   5.935   1.916  0.1109  0.1349 -0.0015
29034W        W29898   2.480   3.958   1.992 -0.0126  0.0686  0.1742
29035W        W29899   5.539   7.767   4.198  0.1080 -0.0316  0.4165
29036W        W29900   5.056   4.274   1.321 -0.0097 -0.2113  0.1401
29037W        W29901   4.126   5.934   1.668  0.3386  0.1212 -0.0995
29038W        W29902   5.872   8.508   2.431  0.1604  0.0833 -0.0247
29039W        W29903   5.041   4.800   1.076 -0.3026 -0.2141  0.0297
29040W        W29904   8.467   2.760  27.601 -0.2234 -0.0117 -0.1033
29041W        W29905   7.070   5.247   3.372  0.0080  0.2263 -0.1857
29042W        W29906   4.384   5.604   2.687 -0.1139 -0.0881  0.0452
29043W        W29907   5.865   4.521   1.071  0.0507  0.0241 -0.2963
29044W        W29908   0.947   8.483  27.112  0.1105 -0.2063  0.1616
29045W        W29909   2.545   8.506  28.981 -0.0561 -0.0116  0.2704
29046W        W29910   5.055   4.602   3.257  0.0354 -0.2708  0.1314
29047W        W29911   7.652   4.011   4.703  0.3130  0.1359 -0.2821
29048W        W29912   3.207   5.604  28.304 -0.1487  0.1685  0.3642
29049W        W29913   6.447   4.147   0.506 -0.0648  0.0671  0.1755
29050W        W29914   6.215   4.964   4.905 -0.1237  0.3695 -0.0025
29051W        W29915   4.582   5.960   1.927  0.3979 -0.1746 -0.4731
29052W        W29916   6.564   8.119   5.049 -0.0909  0.1465 -0.1288
29053W        W29917   6.596   5.210   3.357 -0.0183 -0.0970  0.0611
29054W        W29918   6.946   3.051   1.304 -0.1127  0.0966  0.0639
29055W        W29919   6.020   7.544  28.754 -0.1794 -0.5298 -0.2846
29056W        W29920   3.756   4.569   1.043 -0.1415 -0.0100  0.4901
29057W        W29921   3.457   4.421   1.909 -0.0436 -0.2117  0.1833
29058W        W29922   4.768   6.756   0.602 -0.1386 -0.4259 -0.1596
29059W        W29923   4.015   7.416   0.993 -0.0387  0.1570 -0.0407
29060W        W29924   6.574   4.129   0.022  0.0331  0.0451 -0.0273
29061W        W29925   3.008   5.924   0.334 -0.3061 -0.1047  0.0626
29062W        W29926   4.879   4.644   1.580 -0.2365  0.1383  0.1798
29063W        W29927   6.280   4.597   0.107 -0.1670  0.1781 -0.3501
29064W        W29928   7.109   4.771   4.211  0.1393 -0.0416  0.0156
29065W        W29929   6.274   4.850   2.644  0.3174  0.4084  0.0074
29066W        W29930   5.280   8.038   0.785  0.0887 -0.1119 -0.2307
29067W        W29931   4.677   4.183   0.996  0.1045 -0.1860 -0.2313
29068W        W29932   4.827   7.719  28.175  0.2637 -0.0649 -0.0299
29069W        W29933   6.796   6.268  28.978  0.3908 -0.4858 -0.0971
29070W        W29934   6.532   3.847   1.069  0.2050  0.1259  0.0527
29071W        W29935   3.689   5.784  26.060 -0.0341 -0.0796 -0.0564
29072W        W29936   5.689   8.336   3.146  0.0728  0.0113 -0.0154
29073W        W29937   7.187   4.274   2.534 -0.1885  0.3618  0.3941
29074W        W29938   8.343   2.893  29.118 -0.0312  0.1992 -0.0173
29075W        W29939   6.659   5.088   5.581  0.0824  0.1133  0.0411
29076W        W29940   5.383   6.442   2.864  0.1154 -0.1885 -0.0735
29077W        W29941   5.317   3.675   3.697 -0.0653 -0.0578  0.0936
29078W        W29942   5.330   5.651   3.303  0.1218 -0.1866 -0.3001
29079W        W29943   5.445   5.151  28.781  0.0357  0.2361  0.3777
29080W        W29944   5.256   7.124   3.499 -0.0094  0.1841 -0.1436
29081W        W29945   4.677   4.807   2.422 -0.0545 -0.1807 -0.1444
29082W        W29946   4.543   4.158   1.480  0.2088 -0.0503 -0.0902
29083W        W29947   5.922   4.563   2.166  0.0858 -0.1309 -0.1486
29084W        W29948   4.781   4.798   3.599  0.2497 -0.2746  0.0785
29085W        W29949   5.437   3.765  28.487 -0.1179 -0.3204 -0.0409
29086W        W29950   4.171   8.706   2.872 -0.0732  0.1658 -0.1268
29087W        W29951   9.554   5.382   3.826 -0.2382  0.0716 -0.3002
29088W        W29952   3.953   6.726   1.765  0.0558 -0.0077  0.1871
29089W        W29953   5.325   6.620   0.932 -0.3615 -0.1043 -0.0525
29090W        W29954   7.870   5.016   1.404 -0.3333 -0.1998  0.1620
29091W        W29955   7.475   5.500   3.679  0.3148  0.0659 -0.1432
29092W        W29956   6.085   6.089   3.377  0.0294 -0.3122 -0.3206
29093W        W29957   6.504   4.702   0.572  0.0783  0.0519  0.0211
29094W        W29958   4.053   2.529   2.876  0.0698 -0.2627 -0.0883
29095W        W29959   6.677   3.086  29.120  0.1475 -0.1404 -0.0798
29096W        W29960   8.195   4.344  28.727  0.1475 -0.0131 -0.0223
29097W        W29961   4.526   6.596   1.090  0.1893 -0.2785  0.0319
29098W        W29962   5.996   5.365   1.004 -0.1825 -0.0638 -0.1706
29099W        W29963   6.755   4.087   2.663 -0.3258 -0.0013 -0.0710
29100W        W29964   7.732   4.622  27.996 -0.2378 -0.1630  0.1131
29101W        W29965   5.284   6.296   1.784 -0.2093 -0.5353 -0.0478
29102W        W29966   6.247   2.581  27.205  0.2132 -0.1294  0.2036
29103W        W29967   6.511   5.980   0.372 -0.0918 -0.2636 -0.0678
29104W        W29968   6.426   3.305   1.007  0.1111 -0.0982 -0.0526
29105W        W29969   7.359   5.703   5.300  0.0541 -0.0435  0.1183
29106W        W29970   4.715   4.549  28.399  0.1178 -0.0397  0.1735
29107W        W29971   5.448   6.807   4.338 -0.1406 -0.2079 -0.2559
29108W        W29972   6.193   2.836   0.776 -0.0162 -0.0278  0.0768
29109W        W29973   4.145   5.134   1.762 -0.2733 -0.0631  0.2814
29110W        W29974   5.149   5.053   4.912  0.2403 -0.3350 -0.0848
29111W        W29975   4.487   7.281  28.602 -0.0819  0.0353 -0.0285
29112W        W29976   5.395   4.607   1.432 -0.2444 -0.0664  0.1188
29113W        W29977   6.040   7.056   2.489  0.2877  0.3565 -0.0893
29114W        W29978   6.321   5.182  25.837 -0.1309 -0.1295  0.1321
29115W        W29979   5.898   5.855   1.128 -0.0693 -0.0848  0.1133
29116W        W29980   7.251   3.491   3.692 -0.0493 -0.1168 -0.2809
29117W        W29981   3.432   5.366   2.796  0.1238 -0.0503 -0.0773
29118W        W29982   5.226   3.065   2.080  0.1648 -0.1513  0.2345
29119W        W29983   8.030   2.256   3.273 -0.0729  0.0552 -0.2130
29120W        W29984   7.149   5.934  29.038 -0.2521 -0.2916  0.0554
29121W        W29985   7.458   6.854  28.836 -0.1196  0.0986 -0.2937
29122W        W29986   5.590   3.734   1.691  0.0414 -0.0141  0.0595
29123W        W29987   3.713   4.125  26.287 -0.0880 -0.2259  0.1738
29124W        W29988   5.017   8.110  27.870 -0.0406 -0.1573  0.0676
29125W        W29989   7.232   5.552  28.803 -0.0024  0.0417  0.0584
29126W        W29990   4.397   1.751  27.650 -0.0812 -0.0145 -0.0725
29127W        W29991   6.562   6.502   4.637 -0.1897  0.1630 -0.2234
29128W        W29992   8.464   7.327   3.827  0.0811 -0.0285  0.0211
29129W        W29993   6.179   5.580  29.050 -0.0065 -0.2078  0.1512
29130W        W29994   3.447   5.530   2.098  0.0236 -0.1683 -0.0944
29131W        W29995   7.458   4.085   2.077 -0.0869  0.0962  0.1895
29132W        W29996   5.212   8.473   1.648  0.0589 -0.0188  0.1688
29133W        W29997   6.987   2.556   1.075  0.0660  0.0761 -0.4839
29134W        W29998   6.875   4.407   0.376  0.0822 -0.0204 -0.1067
29135W        W29999   3.476   5.098   2.336 -0.2427  0.0746  0.1290
29136W        W30000   6.908   3.590   0.905 -0.0476 -0.2999  0.0592
29137W        W30001   5.465   3.771   2.242  0.0446 -0.0857  0.0644
29138W        W30002   5.733   7.193   0.455 -0.0465  0.0547  0.1852
29139W        W30003   4.625   7.798  27.740 -0.2866 -0.0343  0.0577
29140W        W30004   4.316   4.998   2.758 -0.0678  0.0692 -0.1163
29141W        W30005   5.679   2.774   1.940  0.2731  0.0315 -0.1077
29142W        W30006   2.653   5.036   0.264 -0.0019 -0.2008  0.2870
29143W        W30007   4.946   5.240  27.452 -0.2831  0.3219 -0.1862
29144W        W30008   4.708   4.333  28.841 -0.1752 -0.0520 -0.1046
29145W        W30009   4.266   5.220   2.259 -0.2177 -0.2070  0.0898
29146W        W30010   3.846   4.294   1.471 -0.0245  0.2413  0.0785
29147W        W30011   7.692   6.166   4.533 -0.1942 -0.2339 -0.0305
29148W        W30012   2.914   8.793   2.403 -0.2769  0.3042  0.1738
29149W        W30013   5.507   5.711   2.067  0.3008 -0.0445  0.2402
29150W        W30014   8.836   6.626   3.348 -0.1237 -0.2223  0.2626
29151W        W30015   5.522   5.253   0.612 -0.1525 -0.0207 -0.0375
29152W        W30016   6.545   7.026   4.111  0.2034  0.0114  0.3327
29153W        W30017   4.859   5.155   2.075 -0.3081  0.1076  0.1369
29154W        W30018   6.217   6.724   4.384  0.0964  0.0931 -0.1374
29155W        W30019   5.015   4.023   0.448  0.2033 -0.1446  0.0437
29156W        W30020   2.093   5.356   3.228 -0.0610  0.2455  0.0699
29157W        W30021   4.895   5.750  28.742  0.2803  0.0295 -0.3144
29158W        W30022   4.982   5.281   0.888 -0.4679 -0.1396  0.1725
29159W        W30023   3.068   2.736   0.552  0.1650  0.0394 -0.4148
29160W        W30024   4.833   4.998   3.020 -0.2101 -0.0279 -0.2498
29161W        W30025   7.158   1.962   1.701 -0.1178 -0.2631 -0.2038
29162W        W30026   6.255   6.696   5.033 -0.0477 -0.2720 -0.2713
29163W        W30027   3.346   8.768   3.714  0.0403 -0.0152  0.2045
29164W        W30028   5.365   6.344   3.767  0.3213 -0.0859 -0.0280
29165W        W30029   1.573   3.994   1.887 -0.1076 -0.1506  0.0093
29166W        W30030   3.740   3.632   1.576  0.0677 -0.1020 -0.0780
29167W        W30031   3.780   7.630   0.037 -0.3322 -0.1198 -0.0677
29168W        W30032   3.919   5.258   3.316  0.0871  0.3453 -0.1454
29169W        W30033   2.904   8.304  28.599 -0.0490  0.1562 -0.1004
29170W        W30034   6.295   3.666   0.637 -0.2850 -0.0933  0.0470
29171W        W30035   5.578   6.766   3.351 -0.0417  0.0002  0.0644
29172W        W30036   6.092   4.826   0.743  0.0452 -0.0834 -0.1141
29173W        W30037   4.667   6.689  28.428  0.0982  0.0642  0.0518
29174W        W30038   8.089   4.506   1.188  0.0074 -0.0888 -0.2372
29175W        W30039   6.469   3.157  28.282 -0.0681  0.0737 -0.2082
29176W        W30040   0.870   8.653   3.815  0.2307 -0.2674 -0.0747
29177W        W30041   3.744   6.607   4.028  0.3006 -0.0141  0.1113
29178W        W30042   1.710   8.169  29.100  0.0908 -0.2827  0.1389
29179W        W30043   4.786   6.454   1.938  0.1080  0.0753 -0.2464
29180W        W30044   2.884   6.271  27.755  0.0633  0.1626  0.3151
29181W        W30045   7.635   7.618   1.929  0.0435  0.0426 -0.1497
29182W        W30046   6.307   5.115   0.129 -0.1454  0.1929 -0.2453
29183W        W30047   4.410   5.862   0.417  0.0360 -0.5325  0.0106
29184W        W30048   2.884   3.802   0.341  0.2706 -0.0358 -0.1602
29185W        W30049   4.963   5.272   3.410 -0.0824 -0.2248 -0.0627
29186W        W30050   6.844   4.892   1.982  0.0539 -0.1733  0.2994
29187W        W30051   3.909   2.146  27.247  0.1594 -0.1397 -0.2047
29188W        W30052   7.159   3.115   0.878 -0.1565  0.0119  0.0543
29189W        W30053   2.330   5.246  28.253  0.2623 -0.5618  0.0834
29190W        W30054   4.106   6.488   0.736  0.1687 -0.1517  0.4191
29191W        W30055   1.735   7.085  28.388 -0.0701  0.0446  0.1858
29192W        W30056   1.919   4.443   2.511  0.0174  0.0291 -0.2727
29193W        W30057   5.329   2.285   3.830 -0.0642 -0.1613  0.2459
29194W        W30058   4.979   3.975   2.227  0.2361  0.1541 -0.2504
29195W        W30059   5.886   3.255   1.358  0.1981 -0.0043 -0.0749
29196W        W30060   3.723   1.812   1.833  0.1180  0.1271  0.3046
29197W        W30061   5.764   6.050   1.750  0.5324 -0.2509  0.4252
29198W        W30062   2.232   0.984   3.449 -0.0624 -0.2003  0.0476
29199W        W30063   8.293   4.720   3.265 -0.4254  0.0592 -0.0457
29200W        W30064   3.402   4.334   1.373  0.1673 -0.3165  0.2279
29201W        W30065   7.779   4.860   3.005  0.0906 -0.3786  0.0857
29202W        W30066   6.672   5.708  29.101 -0.0463  0.1071  0.0681
29203W        W30067   5.663   4.340   1.716 -0.1694  0.0852 -0.0332
29204W        W30068   6.366   3.243   2.282  0.1632  0.0903  0.1066
29205W        W30069   4.200   4.507   0.786  0.0244 -0.1607  0.0756
29206W        W30070   6.560   4.745   4.558  0.1101 -0.0110  0.1127
29207W        W30071   6.240   5.830   1.651  0.1644 -0.1997  0.1612
29208W        W30072   6.559   7.298   0.359  0.0282 -0.0723  0.1382
29209W        W30073   4.339   7.473  28.181  0.0277  0.2250 -0.0849
29210W        W30074   2.147   4.857   3.173 -0.0424  0.0177  0.0281
29211W        W30075   3.119   4.697   2.197  0.1953  0.3365 -0.1811
29212W        W30076   2.591   3.565   2.642  0.2365  0.0774  0.2323
29213W        W30077   1.995   4.177   3.336 -0.1973  0.0479 -0.2798
29214W        W30078   8.535   5.453   4.808 -0.3431  0.0727 -0.1266
29215W        W30079   7.158   5.787  28.236 -0.0188 -0.0784  0.0898
29216W        W30080   7.645   5.573  28.331 -0.1181  0.0502  0.1056
29217W        W30081   6.541   8.053   1.464  0.0747 -0.0651  0.0094
29218W        W30082   5.764   6.099   2.832 -0.2025  0.0365  0.3782
29219W        W30083   1.246   5.288   3.137  0.1264  0.0033  0.0844
29220W        W30084   5.718   6.589   1.964  0.0946 -0.5175 -0.1766
29221W        W30085   5.533   3.579   2.687  0.1056 -0.1546  0.0024
29222W        W30086   6.371   5.669   3.364 -0.0869 -0.2582  0.0789
29223W        W30087   3.172   5.015  26.215  0.1531 -0.0843 -0.1028
29224W        W30088   9.588   4.379   1.527  0.0907 -0.2285 -0.2287
29225W        W30089   5.639   3.213   2.277 -0.0208 -0.0957 -0.1854
29226W        W30090   5.036   6.863   4.702  0.0884 -0.2272 -0.0861
29227W        W30091   7.415   3.925   3.864  0.1881 -0.2067  0.0693
29228W        W30092   4.342   8.751   1.679 -0.0080  0.1173 -0.2072
29229W        W30093   6.246   5.252   3.713 -0.0788 -0.0447  0.0437
29230W        W30094   3.469   3.659   2.443 -0.1163  0.2626  0.0556
29231W        W30095   5.254   6.875   5.689 -0.1421  0.3962  0.0387
29232W        W30096   4.416   7.827   0.327  0.0203  0.1883  0.1418
29233W        W30097   7.537   6.444   0.584 -0.1923  0.1143  0.0743
29234W        W30098   5.136   4.935   2.653  0.1474 -0.1034  0.0535
29235W        W30099   5.870   5.161  29.017 -0.2185 -0.2493  0.1497
29236W        W30100   8.027   2.096   0.425  0.0010  0.1951  0.1573
29237W        W30101   5.691   3.050   4.643 -0.1412  0.0933 -0.0985
29238W        W30102   7.749   6.514   1.005 -0.0616  0.1417  0.0738
29239W        W30103   7.439   6.882   0.880  0.0204  0.1243 -0.1126
29240W        W30104   6.073   6.422   0.279  0.0748  0.1714  0.0553
29241W        W30105   2.634   6.452   1.950  0.0967 -0.1523  0.2633
29242W        W30106   4.800   3.133   2.729 -0.3234 -0.3984  0.0881
29243W        W30107   6.006   3.654  28.886  0.1187 -0.2460 -0.3360
29244W        W30108   7.614   5.238   3.280 -0.0041 -0.1766  0.2808
29245W        W30109   4.238   5.528  26.804  0.1902 -0.3524  0.1405
29246W        W30110   6.834   3.828   0.407 -0.4123 -0.0960  0.0214
29247W        W30111   5.326   8.932   0.420  0.2425  0.0656  0.2524
29248W        W30112   6.131   6.296   1.478  0.2319 -0.2889  0.1154
29249W        W30113   1.319   5.868  28.349 -0.1850 -0.1599  0.2987
29250W        W30114   1.937   2.851   1.876 -0.0233 -0.0217  0.0856
29251W        W30115   7.150   8.487   3.029  0.2290 -0.1837 -0.0096
29252W        W30116   6.764   8.237   3.303 -0.0412 -0.2843 -0.1039
29253W        W30117   8.643   3.907   4.225  0.3731  0.0761 -0.0735
29254W        W30118   5.127   4.098  29.105 -0.0390 -0.0559  0.1800
29255W        W30119   6.539   7.346   2.926  0.0961 -0.0041 -0.1595
29256W        W30120   7.140   2.481  28.757  0.3843  0.0524  0.0438
29257W        W30121   7.292   3.903   5.137  0.0763  0.0152 -0.4038
29258W        W30122   7.537   7.865   0.051 -0.0504 -0.0446  0.2124
29259W        W30123   7.001   4.041   1.603 -0.1679  0.2763 -0.3896
29260W        W30124   5.018   4.615   2.081 -0.0368  0.0717  0.1506
29261W        W30125   6.808   4.673   5.398  0.1523  0.0867  0.2860
29262W        W30126   3.650   6.272   3.498 -0.0080 -0.0575 -0.2722
29263W        W30127   5.242   6.774   2.007 -0.0379  0.0181  0.0268
29264W        W30128   7.424  10.394   2.963 -0.1761  0.1332  0.1881
29265W        W30129   2.746   6.911   2.164 -0.2937  0.2625  0.0422
29266W        W30130   2.232   6.582  28.196 -0.2394  0.0983  0.0907
29267W        W30131   3.043   5.670   2.470  0.0062  0.0640  0.0494
29268W        W30132   6.435   4.192   4.647 -0.0408  0.0039  0.0305
29269W        W30133   6.939   5.621   2.590 -0.5473 -0.1470  0.2961
29270W        W30134   5.077   5.383  28.430  0.0855 -0.0743 -0.0106
29271W        W30135   4.968   5.919   1.602  0.2033 -0.0920  0.0166
29272W        W30136   5.622   5.325   1.799  0.0713 -0.1333  0.1270
29273W        W30137   5.472   4.281   4.321  0.0810  0.0611 -0.0321
29274W        W30138   7.775   5.691   4.764 -0.0746  0.2528 -0.0544
29275W        W30139   8.961   3.466   4.074  0.0931  0.0340  0.0413
29276W        W30140   2.489   2.353   3.638 -0.4542 -0.0114  0.1327
29277W        W30141   6.046   5.553   2.038  0.1970 -0.1443 -0.1653
29278W        W30142   4.666   6.197  28.618 -0.0095 -0.1905 -0.0248
29279W        W30143   3.339   6.757   5.638 -0.2424 -0.0574  0.0774
29280W        W30144   8.215   4.255   4.822 -0.0648 -0.0568 -0.1667
29281W        W30145   4.232   4.699   2.321 -0.1222  0.0079 -0.1706
29282W        W30146   5.072   5.569   1.944 -0.1464  0.0559 -0.1028
29283W        W30147   4.266   7.089   2.007  0.0956 -0.2897  0.1540
29284W        W30148   5.179   7.003  27.806  0.0238 -0.3303  0.2973
29285W        W30149   7.220   2.985   4.420  0.2227 -0.0771  0.1918
29286W        W30150   7.643   6.246   0.144  0.1804  0.0456 -0.3754
29287W        W30151   5.078   7.440   3.163 -0.1197  0.2078 -0.1800
29288W        W30152   5.604   3.894   0.501 -0.0332 -0.1420 -0.0573
29289W        W30153   7.164   5.196  27.498  0.0407  0.2687 -0.0116
29290W        W30154   5.339   7.118  28.644  0.1101 -0.3542 -0.1457
29291W        W30155   5.330   4.997   3.115 -0.2581  0.1766  0.2828
29292W        W30156   6.631   4.637   4.091 -0.0073  0.1276 -0.2700
29293W        W30157   3.872   7.699  27.917 -0.1616 -0.2671  0.1793
29294W        W30158   1.838   5.532   1.117  0.2802 -0.0494  0.0462
29295W        W30159   2.402   4.528   0.302 -0.0781 -0.1714  0.3864
29296W        W30160   6.014   3.103   1.872  0.2779  0.0909  0.2065
29297W        W30161   7.584   6.388   1.546 -0.2770  0.0595 -0.0482
29298W        W30162   7.640   3.733   1.054 -0.0078 -0.2108  0.1385
29299W        W30163   4.439   6.995  28.019  0.2813  0.0534 -0.3298
29300W        W30164   3.355   5.558   1.199  0.2966 -0.0138  0.5666
29301W        W30165   3.484   2.340   3.393  0.0477 -0.2325  0.1989
29302W        W30166   3.273   5.996   3.691 -0.2363 -0.0231 -0.2178
29303W        W30167   6.409   3.783  28.635  0.0031 -0.1728  0.0266
29304W        W30168   8.863   7.091   0.005 -0.3718  0.0301  0.1828
29305W        W30169   6.845   4.990   3.742 -0.0716 -0.1226 -0.1462
29306W        W30170   6.048   6.850   3.845 -0.0736  0.2680 -0.0640
29307W        W30171   7.554   4.657   1.209 -0.0404 -0.0334 -0.3103
29308W        W30172   4.430   6.778   1.638 -0.1390  0.0355  0.0174
29309W        W30173   3.838   6.460  27.736  0.0735  0.1781  0.3113
29310W        W30174   6.251   3.581   1.549 -0.1260  0.0412  0.3600
29311W        W30175   5.121   5.887   5.273  0.1649 -0.0283  0.0922
29312W        W30176   6.090   2.814   2.283  0.4597  0.2974 -0.2054
29313W        W30177   4.808   7.258   0.659 -0.3411  0.1019 -0.1640
29314W        W30178   5.791   6.324   1.026 -0.1025 -0.0233  0.1804
29315W        W30179   3.489   6.632   1.384 -0.1659  0.2598 -0.0513
29316W        W30180   6.062   6.717  29.013 -0.0249 -0.2118 -0.2325
29317W        W30181   5.736   5.716   0.689  0.2586  0.0529  0.0476
29318W        W30182   6.115   5.074   5.782 -0.3822  0.1170  0.0188
29319W        W30183   3.488   6.688   5.029  0.0151  0.1398  0.2639
29320W        W30184   4.667   7.947   1.251 -0.0929  0.1134  0.4702
29321W        W30185   6.320   7.598   0.648 -0.0405 -0.0915  0.3406
29322W        W30186   5.448   7.238   5.422 -0.0271 -0.1007  0.0921
29323W        W30187   5.437   5.691   1.504  0.2399 -0.0672 -0.0970
29324W        W30188   5.542   5.165   1.335 -0.1944 -0.1781  0.0990
29325W        W30189   6.244   6.890   2.894 -0.0525  0.0075  0.0804
29326W        W30190   3.688   3.162   0.213  0.1643 -0.2469 -0.2231
29327W        W30191   0.834   3.434  28.495 -0.3774  0.1189 -0.2117
29328W        W30192   5.385   5.150   0.134 -0.0140 -0.2509 -0.0494
29329W        W30193   5.073   7.146   2.416 -0.0706 -0.2923 -0.1431
29330W        W30194   6.590   0.815   3.395  0.1412  0.2246 -0.1080
29331W        W30195   4.962   4.426   0.690  0.0306  0.3023  0.2465
29332W        W30196   6.859   5.529   5.415  0.0793  0.1994 -0.1287
29333W        W30197   3.526   5.839   2.693  0.1660  0.1755  0.1291
29334W        W30198   7.706   5.074   3.879  0.3289 -0.1829  0.1464
29335W        W30199   4.999   6.993   1.079  0.1968 -0.3154 -0.0323
29336W        W30200   4.149   8.576   0.819  0.2211 -0.0679  0.0795
29337W        W30201   6.512   2.770   0.345 -0.0484 -0.2769  0.1768
29338W        W30202   5.379   6.092   1.246  0.2569  0.2578  0.0186
29339W        W30203   1.500   2.418   0.194 -0.0798 -0.0832  0.1333
29340W        W30204   2.041   6.549  28.650 -0.1146  0.3230  0.0471
29341W        W30205   3.827   4.358   4.097 -0.3320 -0.0840 -0.2236
29342W        W30206   7.329   5.151   2.272 -0.1754 -0.2305 -0.1001
29343W        W30207   4.383   7.249   0.457  0.0292 -0.1358  0.0103
29344W        W30208   6.339   7.651   1.187 -0.1954  0.3263  0.2477
29345W        W30209   3.431   8.129   1.969 -0.1131  0.0183  0.1511
29346W        W30210   5.554   6.385  29.138 -0.1229  0.1096  0.0398
29347W        W30211   0.771   0.162   1.832 -0.4708 -0.1456  0.0030
29348W        W30212   5.712   7.144   2.092 -0.1536 -0.0832 -0.3024
29349W        W30213   1.285   3.921   1.509 -0.1060  0.3000  0.1682
29350W        W30214   5.655   5.663   2.545  0.1474  0.0067  0.1436
29351W        W30215   6.078   3.080  28.578 -0.3820  0.0134  0.1631
29352W        W30216   8.473   2.361   0.189 -0.0041 -0.1050  0.0493
29353W        W30217   4.500   5.827   1.312  0.0287 -0.0710 -0.3251
29354W        W30218   6.707   6.308   1.566  0.0461 -0.1539 -0.0389
29355W        W30219   6.170   2.104  29.072  0.1029 -0.1609  0.0187
29356W        W30220   3.174   6.452   0.838 -0.0388 -0.1268  0.1006
29357W        W30221   3.585   3.762   3.420  0.0227  0.0463  0.1939
29358W        W30222   4.600   4.324   1.979  0.0060 -0.2084  0.0044
29359W        W30223   4.737   7.442   0.129  0.0343 -0.2906  0.1314
29360W        W30224   5.806   4.858   1.652 -0.3076 -0.0982  0.1874
29361W        W30225   4.101   6.445   2.633 -0.3116  0.0978 -0.0658
29362W        W30226   4.493   5.167   0.987  0.1047  0.3208 -0.1556
29363W        W30227   5.161   3.293  28.616  0.1235  0.0946 -0.2318
29364W        W30228   6.157   6.178   0.732  0.2273  0.1877 -0.3674
29365W        W30229   7.372   7.658   3.096  0.1532 -0.2443 -0.1955
29366W        W30230   7.334   4.941   1.681  0.2375 -0.3152 -0.1920
29367W        W30231   4.948   6.083   2.265  0.1454 -0.0270 -0.2492
29368W        W30232   4.686   3.456  28.408 -0.1934 -0.1230  0.0719
29369W        W30233   8.299   5.403   3.890 -0.1365 -0.2382 -0.5370
29370W        W30234   4.668   6.578  28.985  0.0741 -0.2407 -0.0183
29371W        W30235   8.049   5.386  27.951 -0.2305 -0.2224 -0.0177
29372W        W30236   5.053   6.113  29.027 -0.0108  0.2360 -0.0854
29373W        W30237   5.891   6.126   2.228 -0.4286 -0.1059 -0.3935
29374W        W30238   6.753   6.611  28.189 -0.1846  0.1122  0.0588
29375W        W30239   3.400   3.089   2.917  0.2855 -0.0167 -0.1453
29376W        W30240   6.791   4.633   2.414  0.3632 -0.1272  0.0440
29377W        W30241   6.859   4.138   0.761  0.1080  0.1079  0.0834
29378W        W30242   6.114   4.431   5.047  0.2808  0.0002 -0.1309
29379W        W30243   5.930   5.504   4.970 -0.0969 -0.0466 -0.2302
29380W        W30244   4.226   8.670   4.167 -0.0215 -0.0912  0.2692
29381W        W30245   3.972   8.425   0.379  0.0249  0.0360  0.1598
29382W        W30246   2.606   8.469   2.556  0.0628 -0.0439  0.3880
29383W        W30247   6.254   5.698   0.680 -0.0282 -0.2558 -0.2501
29384W        W30248   2.538   7.010   4.242 -0.0552  0.2601  0.2075
29385W        W30249   7.607   5.349   5.566 -0.0644  0.0836 -0.0810
29386W        W30250   8.020   5.843   1.065 -0.0281  0.0969 -0.0417
29387W        W30251   3.847   5.429   2.442  0.2728  0.0886  0.2109
29388W        W30252   6.003   5.940   0.211 -0.1191 -0.3956  0.1434
29389W        W30253   4.484   6.649   2.292  0.2689 -0.0297  0.2280
29390W        W30254   5.360   6.136   4.278 -0.0957 -0.0132  0.2267
29391W        W30255   4.190   4.517   0.273 -0.0866 -0.2692 -0.3205
29392W        W30256   5.975   5.363   0.455 -0.2474  0.0245  0.0490
29393W        W30257   8.253   5.396   1.151 -0.1662  0.0923 -0.1050
29394W        W30258   5.962   5.480   1.482  0.2975 -0.0494  0.0168
29395W        W30259   4.173   6.328   4.204  0.1100 -0.0452 -0.2612
29396W        W30260   7.358   5.036   0.801 -0.2856 -0.0081 -0.0198
29397W        W30261   4.664   4.582   2.860 -0.0228 -0.1301 -0.0054
29398W        W30262   4.029   5.623  28.301  0.0807 -0.0982 -0.0680
29399W        W30263   3.574   4.949  27.242  0.2178 -0.2308  0.1789
29400W        W30264   3.855   8.100   5.234  0.0966 -0.1643  0.1431
29401W        W30265   4.305   5.520   4.738 -0.0002  0.1309 -0.0208
29402W        W30266   7.401   6.867   5.597  0.1232  0.1362 -0.1949
29403W        W30267   5.899   6.059   6.390 -0.1099  0.0803 -0.2177
29404W        W30268   2.242   6.136   2.255  0.0227  0.1131 -0.0011
29405W        W30269   4.587   4.284   5.979 -0.0805  0.3869 -0.0428
29406W        W30270   3.317   3.951   4.935 -0.0269 -0.1250  0.0742
29407W        W30271   4.909   4.192   3.004 -0.0983  0.2379  0.3829
29408W        W30272   5.543   8.485   5.576  0.3957 -0.1733  0.1818
29409W        W30273   3.997   2.333   4.122 -0.2070 -0.0657  0.1682
29410W        W30274   4.830   6.477   5.892 -0.0126  0.0587  0.1039
29411W        W30275   3.370   2.790   3.689  0.1260 -0.2811  0.4610
29412W        W30276   4.956   5.979   3.244 -0.0710  0.1275 -0.0550
29413W        W30277   5.548   4.084   8.750 -0.0907  0.0787  0.2469
29414W        W30278   4.925   4.664   5.795 -0.1005 -0.0113  0.0524
29415W        W30279   2.823   5.804   6.001  0.3841  0.1146  0.0524
29416W        W30280   3.202   6.495   4.566 -0.4567 -0.2375 -0.1464
29417W        W30281   4.501   5.276   3.672  0.0891  0.1857 -0.2191
29418W        W30282   1.883   6.931   8.710 -0.0949 -0.0228  0.0646
29419W        W30283   5.347   3.354   7.323  0.1646  0.1244 -0.0269
29420W        W30284   6.873   5.514   7.190 -0.3087 -0.2682  0.3604
29421W        W30285   5.298   4.210   4.882 -0.0294  0.2136 -0.1064
29422W        W30286   3.295   6.430   7.682  0.1538 -0.1504  0.0869
29423W        W30287   4.084   7.151   7.505 -0.0470  0.0708 -0.1496
29424W        W30288   3.587   5.796   5.188 -0.1460  0.1625 -0.0260
29425W        W30289   1.319   7.587   5.517  0.2201  0.0044 -0.0378
29426W        W30290   6.795   6.054   7.785  0.3563 -0.3836 -0.0688
29427W        W30291   1.653   5.571   3.131 -0.0874 -0.0279  0.1457
29428W        W30292   5.279   7.484   5.835  0.0983 -0.1363  0.1193
29429W        W30293   3.878   5.716   6.618  0.1949 -0.3567 -0.1065
29430W        W30294   3.075   5.061   3.681 -0.4017  0.1874 -0.1356
29431W        W30295   7.429   6.358   8.619 -0.1885  0.1256  0.2134
29432W        W30296   5.354   6.277   6.598 -0.0517  0.0641 -0.0251
29433W        W30297   4.673   3.976   4.324 -0.1306 -0.2462 -0.0301
29434W        W30298   2.529   5.967   8.166  0.1774  0.2164  0.0011
29435W        W30299   5.821   6.549   6.521 -0.1355 -0.1754  0.0122
29436W        W30300   2.844   3.640   4.631 -0.0159 -0.0664 -0.0255
29437W        W30301   3.744   7.796   3.835  0.0273 -0.1615  0.2103
29438W        W30302   4.831   1.813   5.346  0.0612  0.1745 -0.2321
29439W        W30303   7.944   3.748   5.876  0.2487 -0.0634  0.2402
29440W        W30304   6.064   2.285   3.095  0.1298 -0.0705  0.1058
29441W        W30305   7.613   2.453   6.293  0.0642 -0.0085  0.0334
29442W        W30306   6.649   6.397   5.780 -0.2463  0.1057  0.0405
29443W        W30307   6.628   4.989   6.046 -0.0697 -0.0714  0.1056
29444W        W30308   4.112   6.108   3.381 -0.1798  0.1223 -0.0737
29445W        W30309   2.816  10.252   3.685  0.1430  0.0868 -0.2796
29446W        W30310   5.646   2.969   8.684  0.3222 -0.3323  0.2351
29447W        W30311   7.722   2.846   9.748  0.0159  0.2021 -0.1940
29448W        W30312   8.626   6.684   7.595  0.2840  0.0757 -0.2276
29449W        W30313   7.524   6.276   5.575  0.0913 -0.1110 -0.0171
29450W        W30314   3.763   6.234   4.460  0.0439  0.0201 -0.0532
29451W        W30315   4.787   2.766   3.611  0.1253 -0.0589 -0.2850
29452W        W30316   7.090   7.899   7.138  0.3956  0.2527 -0.2038
29453W        W30317   4.149   6.891   4.174  0.0420  0.0728 -0.0586
29454W        W30318   4.724   0.909   3.000  0.0251 -0.3041 -0.2395
29455W        W30319   4.603   7.250   4.056  0.4025  0.0547 -0.1212
29456W        W30320   2.642   1.303   3.735  0.1287  0.0375 -0.0300
29457W        W30321   7.717   4.310   6.515 -0.1450 -0.4226 -0.1310
29458W        W30322   1.356   5.366   4.120  0.0206 -0.0502 -0.4700
29459W        W30323   4.872   8.200   5.534  0.0328  0.0651 -0.2722
29460W        W30324   7.300   5.335   2.755 -0.1502  0.0592 -0.1123
29461W        W30325   2.979   7.669   7.045  0.1620 -0.1214 -0.3324
29462W        W30326   4.991   8.278   6.105 -0.0433  0.0473  0.0066
29463W        W30327   3.936   5.088   4.738  0.0316  0.2208 -0.1185
29464W        W30328   4.427   2.037   6.488 -0.0351  0.1394 -0.0578
29465W        W30329   5.093   3.904   4.096 -0.1919 -0.2993  0.1190
29466W        W30330   3.891   4.938   5.591  0.0171  0.1916  0.0626
29467W        W30331   4.689   2.890   2.254  0.1455  0.2086  0.0018
29468W        W30332   6.844   5.643   4.253  0.2393  0.1036 -0.1279
29469W        W30333   6.518   8.070   3.751 -0.1101 -0.0393 -0.0068
29470W        W30334   7.738   6.915   7.078 -0.1693 -0.1048 -0.4586
29471W        W30335   5.113   5.608   2.475 -0.0113  0.3296  0.0528
29472W        W30336   3.303   5.951   7.769 -0.2117  0.1275  0.0930
29473W        W30337   6.874   3.805   8.554 -0.0043 -0.1975 -0.0738
29474W        W30338   8.479   6.809   6.091 -0.0010 -0.2218  0.1482
29475W        W30339   5.518   7.179   8.597 -0.4093 -0.2445  0.3608
29476W        W30340   2.192   3.870   4.172  0.0807 -0.1655 -0.2842
29477W        W30341   4.891   8.097   5.051  0.0926 -0.0848 -0.0517
29478W        W30342   7.864   6.725   5.775  0.1748 -0.3127 -0.0437
29479W        W30343   6.208   7.283   4.354  0.0140 -0.0413 -0.2157
29480W        W30344   4.770   7.561   6.616  0.2685 -0.0782 -0.0514
29481W        W30345   2.122   7.204   7.602 -0.2314  0.2643  0.2767
29482W        W30346   5.037   1.396   4.439 -0.1017 -0.2559 -0.1093
29483W        W30347   5.752   3.633   5.688  0.0726 -0.3460 -0.0858
29484W        W30348   7.222   3.420   7.170  0.0642 -0.2686  0.0633
29485W        W30349   6.482   4.030   5.825 -0.4286  0.0314  0.0264
29486W        W30350   4.357   6.819   7.205 -0.1147  0.5763 -0.1807
29487W        W30351   7.144   4.235   6.714 -0.0002  0.2085 -0.0404
29488W        W30352   5.619   5.063   8.343 -0.1340  0.4166  0.0457
29489W        W30353   5.467   3.851   6.492  0.0938 -0.0375  0.2935
29490W        W30354   6.446   4.157   7.610  0.0193  0.0266  0.2787
29491W        W30355   6.238   5.772  10.238 -0.0206  0.0212 -0.0989
29492W        W30356   7.738   8.483   5.022 -0.0057 -0.0437 -0.0427
29493W        W30357   4.484   3.904   3.178  0.0040 -0.1463  0.1853
29494W        W30358   3.673   4.890   7.149 -0.1054 -0.2626  0.2135
29495W        W30359   6.766   5.000   2.906  0.2201  0.2868  0.0099
29496W        W30360   5.561   3.246   5.844 -0.0461 -0.0053  0.3289
29497W        W30361   6.702   9.459   4.408 -0.0667 -0.1308 -0.0486
29498W        W30362   3.805   4.319   5.535 -0.2423  0.0500  0.1278
29499W        W30363   6.648   6.816   6.560  0.4372 -0.1784 -0.3350
29500W        W30364   4.160   8.503   5.987 -0.0870  0.2136  0.2982
29501W        W30365   3.212   4.940   2.711  0.0366 -0.1952  0.0970
29502W        W30366   6.564   5.439   1.902 -0.0180  0.0867  0.1020
29503W        W30367   9.941   6.548   5.294  0.0017 -0.2002 -0.1076
29504W        W30368   7.917   2.375   7.066  0.1544  0.0405 -0.1326
29505W        W30369   6.763   3.437   6.667  0.0466 -0.1062  0.0243
29506W        W30370   4.365   6.298   5.687  0.0863  0.0469  0.1809
29507W        W30371   2.570   6.006   7.302 -0.1876 -0.0984  0.1778
29508W        W30372   6.569   2.577   4.411  0.1014  0.3413  0.2264
29509W        W30373   5.686   3.483   6.903  0.2396 -0.1627 -0.1862
29510W        W30374   3.879   5.697   7.627  0.1362 -0.2815  0.0588
29511W        W30375   4.055   8.490   4.857  0.1663 -0.2643  0.0807
29512W        W30376   7.508   6.809   8.456  0.1687  0.1744 -0.1361
29513W        W30377   6.306   8.315   4.590 -0.1641 -0.1352 -0.0585
29514W        W30378   7.051   9.787   2.189 -0.1904 -0.1064 -0.3005
29515W        W30379   6.175   6.952   6.486 -0.3560  0.1502  0.0688
29516W        W30380   8.031   6.389   7.856  0.1540  0.3216 -0.0469
29517W        W30381   6.971   7.538   6.799 -0.0220 -0.1478  0.0766
29518W        W30382   5.498   2.593   4.401 -0.2272 -0.1354 -0.0667
29519W        W30383   8.165   4.564   5.784  0.0418  0.2366  0.2148
29520W        W30384   5.283   4.657   6.179 -0.0834 -0.1956  0.0033
29521W        W30385   5.702   6.160   6.899  0.1082  0.1692  0.0141
29522W        W30386   7.848   8.115   6.345  0.2828  0.0860  0.1555
29523W        W30387   6.794   6.516   4.202  0.0106  0.1263 -0.0777
29524W        W30388   4.755   4.829   4.413  0.0520 -0.0940  0.1042
29525W        W30389   6.539   6.452   6.974  0.1989  0.1705  0.0232
29526W        W30390   5.422   6.472   7.859 -0.3041  0.0089 -0.1262
29527W        W30391   6.100   5.138   8.414 -0.1595 -0.0113 -0.2124
29528W        W30392   6.371   3.850   6.481  0.0116  0.1035 -0.3417
29529W        W30393   5.600   5.680   6.421 -0.1193  0.1252 -0.1344
29530W        W30394   7.184   8.410   5.085  0.3355  0.1339  0.1180
29531W        W30395   4.342   6.396   7.979 -0.2992  0.2079  0.1052
29532W        W30396   6.101   4.800   6.227  0.0868 -0.0274 -0.3472
29533W        W30397   6.928   3.870   4.056 -0.0832 -0.1495  0.2953
29534W        W30398   5.691   3.576   4.558  0.2884 -0.1154 -0.0994
29535W        W30399   4.501   2.811   5.966 -0.1090  0.0467  0.1427
29536W        W30400   8.168   4.543   5.247 -0.0759  0.3777 -0.2468
29537W        W30401   6.223   2.808   7.668  0.4048 -0.1303  0.0372
29538W        W30402   5.375   6.325   5.155  0.0347 -0.2571 -0.0098
29539W        W30403   5.301   5.848   3.791 -0.0876 -0.0293 -0.1638
29540W        W30404   4.011   3.790   3.090  0.0643  0.2146 -0.0800
29541W        W30405   6.877   2.997   6.890  0.1395 -0.0168  0.0219
29542W        W30406   1.030   7.338   3.323 -0.0857 -0.0326  0.0830
29543W        W30407   5.734   5.166   3.420  0.4378  0.3121  0.0328
29544W        W30408   4.439   6.462   6.386 -0.1186  0.0571  0.1399
29545W        W30409   4.486   2.351   4.210 -0.0671 -0.1363 -0.4482
29546W        W30410   8.137   5.136   7.205  0.2907  0.0374 -0.0691
29547W        W30411   7.918   9.557   4.974 -0.1034 -0.0047  0.1072
29548W        W30412   4.579   6.763   5.442  0.0202  0.1662  0.2272
29549W        W30413   3.997   5.190   3.805  0.2442 -0.1402 -0.0587
29550W        W30414   6.133   3.799  10.119  0.0278 -0.1273 -0.1426
29551W        W30415   4.176   2.839   4.988 -0.0912 -0.0069 -0.0308
29552W        W30416   5.506   5.367   4.758  0.1483 -0.1357  0.1996
29553W        W30417   6.897   3.642   5.368  0.3857  0.0241  0.0432
29554W        W30418   4.909   5.043   6.304 -0.1375 -0.2336  0.0487
29555W        W30419   7.659   4.403   7.572  0.0229 -0.1139 -0.0666
29556W        W30420   3.560   5.994   6.278  0.0265  0.4667  0.4225
29557W        W30421   3.772   3.296   2.171 -0.0563 -0.0934 -0.0803
29558W        W30422   6.912   3.361   4.170  0.0527 -0.1310 -0.2190
29559W        W30423   5.275   3.967   3.238 -0.3281 -0.1200  0.0050
29560W        W30424   5.941   4.583   5.619 -0.1839 -0.0107  0.1540
29561W        W30425   6.591   7.254   6.692  0.0173 -0.0382  0.0292
29562W        W30426   7.291   6.277   7.079  0.2185 -0.1879 -0.2055
29563W        W30427   5.161   2.861   7.367  0.0474  0.0489  0.1044
29564W        W30428   6.808   3.778   7.494  0.1666 -0.1080 -0.3966
29565W        W30429   6.410   3.823   5.228  0.1359 -0.0155  0.2952
29566W        W30430   5.457   4.477   5.750 -0.1101  0.2133  0.0444
29567W        W30431   2.517   8.276   5.948  0.0502 -0.1011  0.0281
29568W        W30432   6.826   6.420   7.381 -0.2806 -0.0522 -0.4145
29569W        W30433   3.439   5.380   4.208  0.0583  0.2362 -0.0721
29570W        W30434   5.854   5.805   5.908 -0.1657  0.0557 -0.1505
29571W        W30435   5.646   7.732   5.558  0.2200 -0.0898  0.0062
29572W        W30436   6.287   6.780   5.983 -0.0715 -0.0885 -0.1834
29573W        W30437   5.746   6.955   2.937 -0.2838 -0.2505 -0.1468
29574W        W30438   5.305   3.299   4.734  0.2912 -0.3799  0.0708
29575W        W30439   5.984   3.219   5.573  0.0467  0.0650 -0.0435
29576W        W30440   5.180   8.540   5.201  0.0618  0.1869 -0.0715
29577W        W30441   3.291   3.848   4.420  0.0444  0.2780  0.2148
29578W        W30442   4.126   5.211   6.714  0.3062 -0.1106 -0.0010
29579W        W30443   5.832   5.274   3.932 -0.0885  0.2135 -0.0336
29580W        W30444   5.410   6.156   2.444 -0.0157 -0.0938 -0.2468
29581W        W30445   6.259   5.865   3.868  0.2317  0.2823 -0.1763
29582W        W30446   5.337   4.847   3.655 -0.0696 -0.2679  0.1060
29583W        W30447   4.511   4.386   6.659 -0.1830  0.0543  0.0533
29584W        W30448   5.060   4.462   2.518  0.0436  0.0876  0.1278
29585W        W30449   3.915   7.333   6.648 -0.3055 -0.0047 -0.0759
29586W        W30450   6.057   6.352   8.208 -0.0325  0.1060  0.0985
29587W        W30451   5.177   4.124   1.794 -0.0882  0.1465 -0.0991
29588W        W30452   4.177   8.244   7.779 -0.0866  0.0374 -0.0451
29589W        W30453   5.833   7.551   3.676 -0.1299  0.1933  0.2333
29590W        W30454   6.159   4.445   1.432  0.1841 -0.0020  0.0975
29591W        W30455   4.196   5.851   4.317 -0.1345  0.1593 -0.3468
29592W        W30456   4.637   6.086   7.661 -0.0053  0.0735 -0.0429
29593W        W30457   9.043   3.738   8.198 -0.2232  0.0445  0.1179
29594W        W30458   4.943   1.846   6.139  0.0829  0.0057  0.1092
29595W        W30459   6.956   3.827   7.012  0.2590 -0.1132 -0.4384
29596W        W30460   4.995   3.694   4.902 -0.3949  0.2152 -0.2300
29597W        W30461   5.203   6.021   7.740 -0.0597  0.1506 -0.0940
29598W        W30462   5.737   3.937   3.421  0.2006 -0.3564 -0.0375
29599W        W30463   8.865   3.714   6.153 -0.0340 -0.0282  0.4488
29600W        W30464   1.437   4.458   2.615 -0.0173  0.2277  0.2028
29601W        W30465   5.541   6.675   6.970 -0.3334 -0.0116 -0.0823
29602W        W30466   5.347   3.739   6.000 -0.1263  0.1440  0.0115
29603W        W30467   3.982   2.225   3.257  0.0293 -0.0520 -0.2398
29604W        W30468   6.986   4.933  10.550  0.0703 -0.1452  0.0491
29605W        W30469   3.718   3.691   4.997 -0.3153 -0.1406  0.3192
29606W        W30470   5.733   8.350   5.155 -0.0824  0.0031  0.0298
29607W        W30471   5.761   4.115   4.720 -0.0241  0.2328 -0.2133
29608W        W30472   4.724   6.587   4.964 -0.0502  0.0767  0.0594
29609W        W30473   4.372   7.695   3.750  0.2122  0.6356 -0.3202
29610W        W30474   4.606   5.778   5.397 -0.0783  0.1495  0.1813
29611W        W30475   4.518   4.724   6.199 -0.0508  0.2231 -0.0652
29612W        W30476   4.350   3.486   3.425 -0.1719  0.2181  0.3244
29613W        W30477   7.938   4.729   7.951 -0.1109  0.0495  0.2010
29614W        W30478   8.385   6.240   6.902  0.0869  0.1697  0.0127
29615W        W30479   5.399   5.809   5.681  0.2549  0.0844  0.1365
29616W        W30480   4.346   5.095   4.466  0.0226 -0.2164 -0.2556
29617W        W30481   4.639   6.370   4.439 -0.0709 -0.2112 -0.1349
29618W        W30482   3.584   4.802   8.136 -0.1559  0.3543  0.1488
29619W        W30483   2.883   6.651   6.543  0.2407  0.2194 -0.2385
29620W        W30484   7.152   4.574   7.535 -0.1581  0.1462  0.0954
29621W        W30485   5.132   4.696   4.123  0.1822 -0.2205  0.0796
29622W        W30486   4.899   7.162   5.181  0.0677  0.2319  0.0761
29623W        W30487   2.091   1.361   2.704 -0.2042 -0.0564  0.0061
29624W        W30488   3.145   6.286   5.770 -0.0389  0.1449 -0.0062
29625W        W30489   4.236   4.590   5.670  0.1259 -0.0516 -0.1603
29626W        W30490   5.858   4.989   5.312 -0.1802  0.0469  0.0544
29627W        W30491   9.523   1.721   7.704  0.1822  0.4153 -0.1937
29628W        W30492   4.165   7.677   4.818  0.2478  0.1093  0.0550
29629W        W30493   7.997   7.105   7.559 -0.0116 -0.1156  0.0610
29630W        W30494   3.418   1.037   3.473 -0.3721  0.0546  0.1514
29631W        W30495   4.799   5.523   7.098  0.2830  0.0019 -0.2136
29632W        W30496   3.446   5.470   6.447  0.2368  0.3285  0.0542
29633W        W30497   5.117   8.356   4.694  0.2794 -0.1857 -0.1368
29634W        W30498   5.243   2.518   5.901  0.5075 -0.0657 -0.0910
29635W        W30499   8.349   7.033   4.704 -0.1222 -0.0762 -0.2815
29636W        W30500   8.579   6.453   5.108  0.1131 -0.2146 -0.0180
29637W        W30501   6.969   2.386   7.620  0.0741  0.0336 -0.3106
29638W        W30502   5.583   7.503   7.130 -0.4304  0.0490  0.0190
29639W        W30503   5.623   9.477   5.778  0.3760  0.1125 -0.1522
29640W        W30504   4.864   6.350   5.407  0.1727 -0.0894 -0.1343
29641W        W30505   6.483   7.230   7.172 -0.1508 -0.2657 -0.5169
29642W        W30506   5.301   6.341   5.665 -0.1166 -0.5933 -0.1379
29643W        W30507   4.221   4.477   3.784  0.1706 -0.1255  0.1540
29644W        W30508   4.045   4.214   6.664  0.2109 -0.1177 -0.1760
29645W        W30509   4.938   4.252   6.312  0.0539 -0.1522  0.3484
29646W        W30510   6.033   6.022   5.020 -0.0768 -0.1570  0.0833
29647W        W30511   1.187   4.527   7.036  0.0020 -0.2330  0.1172
29648W        W30512   6.009   7.947   3.915 -0.1003 -0.3492  0.0691
29649W        W30513   3.401   4.042   3.916  0.3111 -0.0496  0.0213
29650W        W30514   4.697   5.578   6.019  0.1583 -0.0451 -0.1589
29651W        W30515   4.516   7.878   5.406  0.0963  0.1388  0.0421
29652W        W30516   5.162   4.200   7.685  0.1424 -0.2194 -0.0369
29653W        W30517   4.679   4.546   5.351  0.1043 -0.1331 -0.1002
29654W        W30518   3.021   3.213   3.190 -0.2249 -0.0069 -0.1941
29655W        W30519   6.409   5.690   4.900  0.0525  0.0016  0.3038
29656W        W30520   6.116   4.415   3.913  0.2129 -0.0718  0.1361
29657W        W30521   3.167   5.517   6.995 -0.4762  0.0556  0.1845
29658W        W30522   4.339   6.347   5.188  0.2349  0.0128 -0.0370
29659W        W30523   8.532   5.975   4.959 -0.1569  0.0327 -0.0430
29660W        W30524   5.721   3.080   2.792  0.0510 -0.3740  0.0432
29661W        W30525   4.547   6.201   8.429 -0.2221 -0.3400  0.2712
29662W        W30526   7.446   4.728   6.702  0.1649  0.2197  0.2364
29663W        W30527   5.681   5.315   5.780  0.0647  0.4551  0.1264
29664W        W30528   2.896   6.049   4.896  0.3342 -0.2101 -0.0673
29665W        W30529   5.339   7.314   4.405 -0.0455  0.1230 -0.0846
29666W        W30530   2.569   4.829   2.353 -0.0212  0.1286  0.0055
29667W        W30531   5.520   5.073   6.334  0.0629 -0.0956  0.4026
29668W        W30532   4.997   3.738   7.310 -0.0724 -0.1545  0.3730
29669W        W30533   6.857   4.588   3.475 -0.2579 -0.0910  0.3605
29670W        W30534   3.621   7.294   6.255  0.0029  0.0419  0.2068
29671W        W30535   3.340   5.431   7.798 -0.0845 -0.2519 -0.2102
29672W        W30536   4.959   1.783   4.860 -0.4592 -0.1598 -0.1750
29673W        W30537   4.784   7.767   5.819 -0.3137 -0.1343 -0.0593
29674W        W30538   7.080   7.628   4.519  0.1772 -0.2293 -0.3439
29675W        W30539   6.386   1.706   8.480 -0.1770 -0.0360 -0.0133
29676W        W30540   4.952   4.384   4.536  0.2145 -0.2866  0.1601
29677W        W30541   5.116   4.228   7.159  0.1400 -0.1189 -0.5232
29678W        W30542   3.206   2.945   1.877  0.0026 -0.2153  0.1866
29679W        W30543   3.451   5.683   7.322 -0.0170 -0.1922  0.2145
29680W        W30544   3.506   3.294   3.941  0.0709 -0.1356 -0.1102
29681W        W30545   6.829  28.865   4.340  0.0242 -0.0399 -0.0458
29682W        W30546   5.856   5.094   4.522  0.5019 -0.1505  0.0782
29683W        W30547   3.475   8.250   6.447 -0.1861 -0.0500  0.4624
29684W        W30548   6.635   5.054   5.050  0.1617  0.2977 -0.0500
29685W        W30549   8.869   4.578   7.448 -0.0982  0.2436  0.3038
29686W        W30550   6.344   6.385   6.295 -0.1461 -0.0838 -0.1378
29687W        W30551   3.552   3.728   9.236 -0.0802  0.3524 -0.0083
29688W        W30552   7.980   0.443   4.704  0.0357  0.0046  0.0058
29689W        W30553   6.889   6.152   4.824  0.4280  0.1786  0.2338
29690W        W30554   6.835   4.432   5.836  0.1263  0.2848 -0.1140
29691W        W30555   6.653   3.621   6.077  0.1331 -0.3857 -0.0333
29692W        W30556   6.934   5.548   7.665 -0.0823  0.0763 -0.3128
29693W        W30557   5.070   3.515   2.426 -0.1379  0.0488  0.1405
29694W        W30558   1.730   8.054   5.025 -0.0156 -0.0502 -0.1339
29695W        W30559  10.164   6.956   5.561 -0.1179 -0.1453  0.3372
29696W        W30560   6.448   2.603   5.390 -0.3715  0.0135 -0.1119
29697W        W30561   5.675   6.947   6.108  0.1725 -0.0930 -0.2335
29698W        W30562   8.315   3.693   7.179  0.1670 -0.0646 -0.2473
29699W        W30563   2.817   7.898   7.656 -0.1583 -0.2882 -0.2108
29700W        W30564   4.766   5.260   2.594 -0.2828 -0.3215  0.0054
29701W        W30565   3.971   6.195   6.581  0.0222 -0.0708  0.2317
29702W        W30566   5.950   4.963   8.877  0.2017  0.2290 -0.0853
29703W        W30567   7.715   6.066   7.632 -0.0699 -0.0978  0.1416
29704W        W30568   4.497   3.475   2.924 -0.1614 -0.3090 -0.0096
29705W        W30569   6.836   6.764   5.009  0.0349  0.0140 -0.0622
29706W        W30570   7.680   6.011   8.939 -0.2243 -0.1825  0.3412
29707W        W30571   4.913   5.152   3.987  0.0462  0.0185  0.1524
29708W        W30572   6.443   4.592   3.107 -0.1855  0.0730 -0.1418
29709W        W30573   4.272   5.735   6.326 -0.2236  0.4693  0.0331
29710W        W30574   5.563   4.431   3.385  0.0524  0.1782 -0.1988
29711W        W30575   3.720   5.899   8.049  0.0724  0.1824  0.0622
29712W        W30576   5.981   5.350   7.427 -0.0227 -0.2406  0.0627
29713W        W30577   5.803   4.888   7.507 -0.0103 -0.2529 -0.0847
29714W        W30578   2.133   7.298   8.108  0.0984 -0.1303  0.1141
29715W        W30579   2.070   5.907  10.385 -0.1887  0.0165  0.0437
29716W        W30580   6.310   5.915   7.674 -0.1254 -0.2337 -0.3563
29717W        W30581   5.063   3.256   3.579  0.0894 -0.0808 -0.2194
29718W        W30582   5.061   7.634   4.176  0.1088  0.2430  0.1703
29719W        W30583   3.265   4.033   2.809 -0.1570  0.2200  0.0040
29720W        W30584   4.196   9.370   4.921  0.5693 -0.1288  0.1601
29721W        W30585   7.310   4.496   5.283 -0.2308 -0.1640 -0.2638
29722W        W30586   3.512   5.527   9.429  0.0973  0.0680 -0.2553
29723W        W30587   7.334   6.894   7.921  0.0775 -0.0622 -0.0512
29724W        W30588   4.423   5.230   6.299 -0.2762 -0.0810 -0.2603
29725W        W30589   6.819   6.059   6.842  0.0042 -0.2387  0.1090
29726W        W30590   5.309   3.862   4.539  0.3768  0.2857 -0.1271
29727W        W30591   4.446   7.120   4.874  0.0781  0.0398 -0.2303
29728W        W30592   8.721   4.936   4.814  0.0284  0.2740  0.1144
29729W        W30593   5.642   4.427   5.277 -0.1591 -0.0819  0.0321
29730W        W30594   3.297   2.997   8.429  0.0041  0.0837  0.1141
29731W        W30595   8.576   4.355   3.432 -0.0239  0.0156 -0.0261
29732W        W30596   5.382   6.188  10.300 -0.2065  0.2182 -0.2791
29733W        W30597   4.447   8.968   6.250 -0.1062 -0.2928 -0.3415
29734W        W30598   6.380   5.840   6.347 -0.1783  0.2807 -0.1310
29735W        W30599   5.851   5.637   5.430 -0.0124  0.1087 -0.0421
29736W        W30600   5.538   7.969   4.658 -0.0803  0.0728 -0.0002
29737W        W30601   5.813   5.987   4.023 -0.2344  0.2892 -0.2053
29738W        W30602   4.870   5.508   5.052  0.0532  0.6211 -0.0754
29739W        W30603   5.132   5.092   1.664 -0.1481  0.0783 -0.1876
29740W        W30604   2.866   4.549   3.437  0.0412  0.1352  0.3111
29741W        W30605   7.415   4.292   4.310 -0.2315  0.1348  0.1431
29742W        W30606   4.588   4.034   5.504 -0.2101 -0.4611 -0.0805
29743W        W30607   3.807   5.548   5.557  0.2874  0.0928  0.1989
29744W        W30608   5.883   7.036   4.643  0.2195  0.3271  0.1399
29745W        W30609   4.746   2.374   6.077 -0.3037 -0.1269  0.2114
29746W        W30610   5.337   5.375   3.800  0.4770  0.0278  0.0325
29747W        W30611   3.824   3.818   4.041 -0.0205  0.0032 -0.1178
29748W        W30612   5.042   5.628   4.203  0.6012  0.2100  0.0935
29749W        W30613   2.636   4.716   3.834 -0.0189 -0.0701  0.1525
29750W        W30614   7.701   4.395   5.039 -0.1800 -0.1555 -0.2009
29751W        W30615   3.539   5.944   5.773 -0.5157  0.1643  0.0824
29752W        W30616   6.375   4.664   6.797  0.0980 -0.3847 -0.0182
29753W        W30617   7.738   7.323   5.899 -0.1262  0.0700  0.0199
29754W        W30618   5.838  10.256   1.452 -0.2012  0.1703  0.1230
29755W        W30619   8.105   4.718   4.748  0.2061 -0.1291 -0.0232
29756W        W30620   4.388   7.368   6.445 -0.1883  0.0255  0.0809
29757W        W30621   2.673   5.646   6.912  0.0995  0.0716  0.0148
29758W        W30622   3.487   7.403   8.129 -0.0752  0.1687  0.0876
29759W        W30623   3.876   2.144   4.818  0.0117 -0.2599 -0.0025
29760W        W30624   5.420   1.931   4.195  0.1355  0.1425 -0.2530
29761W        W30625   7.076   5.390   9.880 -0.3065  0.0604  0.1882
29762W        W30626   5.410   6.490   6.130 -0.0774 -0.2230  0.3036
29763W        W30627   7.582   2.974   6.488 -0.1479  0.3249 -0.0323
29764W        W30628   4.772   6.964   6.535  0.2314 -0.1302  0.0868
29765W        W30629   7.137   6.474   5.861  0.3866 -0.0682 -0.0969
29766W        W30630   6.258   6.390   3.983  0.1078  0.3817 -0.1721
29767W        W30631   9.867   4.819   4.030 -0.1247  0.0443 -0.1423
29768W        W30632   4.763   2.736   5.120  0.0288  0.2034 -0.0287
29769W        W30633  11.051   5.400   4.829 -0.0641 -0.1767 -0.0505
29770W        W30634   5.084   2.700   2.492  0.1084 -0.1237  0.0733
29771W        W30635   6.507   4.598   6.337 -0.2751  0.1936 -0.1972
29772W        W30636   6.395   4.743   3.594  0.1163 -0.1069 -0.1264
29773W        W30637   5.739   4.774   4.897  0.2863  0.1042  0.0223
29774W        W30638   7.680   8.038   4.796 -0.1269  0.0261  0.0017
29775W        W30639   6.442   7.317   6.155 -0.2236  0.1069  0.2514
29776W        W30640   6.036   4.062   4.306 -0.1156 -0.1991  0.2430
29777W        W30641   6.010   7.418   6.863 -0.0570 -0.0183  0.0593
29778W        W30642   7.569   6.727   6.606  0.1167  0.1801  0.1405
29779W        W30643   4.890   3.228   6.568 -0.0528 -0.0147 -0.1090
29780W        W30644   5.872   6.441   5.169  0.1493  0.0137 -0.1308
29781W        W30645   3.149   9.355   6.796  0.3437 -0.0232  0.0543
29782W        W30646   4.115   3.690   6.646  0.0392 -0.0230 -0.4010
29783W        W30647   6.372   5.862   5.451  0.0038 -0.0510 -0.0467
29784W        W30648   7.975   6.436   8.391 -0.0184 -0.0345 -0.3443
29785W        W30649   6.224   4.989   7.862  0.2987 -0.0691  0.1278
29786W        W30650   3.954   5.415   4.337  0.1939 -0.2444  0.0983
29787W        W30651   6.465   7.999   5.620 -0.3657 -0.1941 -0.0526
29788W        W30652   4.152   6.385   7.090  0.1709 -0.1215 -0.1011
29789W        W30653   3.890   6.766   6.920  0.0676 -0.0141  0.1545
29790W        W30654   5.635   6.211   7.423 -0.1211 -0.1625  0.0425
29791W        W30655   2.419   7.625   5.528  0.1395  0.3163 -0.0087
29792W        W30656   6.619   5.999   7.290  0.1453 -0.0976 -0.0499
29793W        W30657   6.100   7.538   5.486 -0.2148  0.3553  0.2622
29794W        W30658   5.299   8.048   5.748 -0.1886  0.1552  0.1653
29795W        W30659   4.210   4.022   7.959 -0.1848 -0.1750 -0.1282
29796W        W30660   2.851   7.525   2.434  0.2774  0.1637  0.1300
29797W        W30661   6.092   5.501   7.958 -0.0588 -0.3522 -0.2796
29798W        W30662   4.902   6.767   3.721  0.0342 -0.2003 -0.1200
29799W        W30663   2.255   4.985   1.647 -0.0311 -0.2779 -0.0637
29800W        W30664   3.500   6.804  11.648  0.0366  0.3906 -0.0894
29801W        W30665   2.784   4.415  10.248  0.3192  0.1175  0.0650
29802W        W30666   5.438   4.872   6.770 -0.0970  0.0689  0.4872
29803W        W30667   9.718   7.527   8.807  0.4154  0.0226  0.0577
29804W        W30668   4.908   7.405   6.147  0.3661  0.3455  0.0405
29805W        W30669   5.368   3.445   5.407  0.2551 -0.0446  0.2169
29806W        W30670   3.255   4.546   6.640  0.2883  0.2307 -0.0898
29807W        W30671   5.877   6.677   7.516  0.0047 -0.1103 -0.0444
29808W        W30672   6.639   6.830  11.352  0.0239 -0.1726 -0.3630
29809W        W30673   4.885   7.071   8.696  0.0123  0.2597 -0.0539
29810W        W30674   3.226   4.322   9.814  0.0773  0.0490 -0.0933
29811W        W30675   5.297   3.122  10.435  0.1237 -0.0436 -0.0541
29812W        W30676   4.886   6.090  10.114  0.0379 -0.0348  0.3371
29813W        W30677   6.285   6.415  10.986  0.0103 -0.2038 -0.2930
29814W        W30678   3.073   3.567   9.261  0.2389  0.0695  0.0359
29815W        W30679   3.773   8.625   8.366  0.0145  0.0510  0.2200
29816W        W30680   5.814   5.927   7.945  0.2102  0.1461 -0.0482
29817W        W30681   3.343   4.294   8.542  0.2029  0.1120 -0.2284
29818W        W30682   6.734   3.672  10.884  0.0202 -0.0245 -0.2788
29819W        W30683   6.355   6.533   9.853  0.2063 -0.4202 -0.0823
29820W        W30684   5.345   1.373  10.437  0.0943 -0.1927  0.0394
29821W        W30685   5.225   5.089   8.098  0.1715  0.0168 -0.0067
29822W        W30686   6.114   5.916   9.066 -0.0409 -0.0856 -0.3824
29823W        W30687   5.234   6.877  10.058  0.0875  0.1403 -0.2474
29824W        W30688   6.099   4.289   9.977 -0.0005  0.0544 -0.0049
29825W        W30689   4.811   5.867   8.073 -0.3413 -0.1662  0.1610
29826W        W30690   4.678   5.618   9.911  0.1606  0.1689 -0.0081
29827W        W30691   2.213   5.791   9.793  0.1524  0.0567 -0.0843
29828W        W30692   6.316   8.529  11.439  0.2469  0.1545  0.0701
29829W        W30693   5.305   5.057   9.508 -0.1076  0.1487 -0.4317
29830W        W30694   4.495   3.945   6.435  0.5514 -0.1041  0.1348
29831W        W30695   6.397   6.335  12.037  0.0166 -0.0702  0.3097
29832W        W30696   3.952   4.017  11.054  0.1612 -0.0026 -0.0133
29833W        W30697   5.702   4.548   8.742  0.1736  0.1355  0.0066
29834W        W30698   4.466   1.877  10.340  0.2883  0.0560  0.2437
29835W        W30699   5.952   2.636  11.312  0.2159 -0.2115 -0.0813
29836W        W30700   4.498   6.342   9.325 -0.2783  0.1219 -0.1318
29837W        W30701   4.305   6.482   8.849  0.2690  0.0946 -0.2315
29838W        W30702   8.279   6.505  10.721  0.1747  0.2939  0.0469
29839W        W30703   6.646   4.533  10.570 -0.0869  0.0660  0.0889
29840W        W30704   4.109   4.013   5.849 -0.1947  0.4461 -0.1679
29841W        W30705  10.596   3.848   8.372  0.1891  0.3443  0.1457
29842W        W30706   4.960   6.778   7.075 -0.2072  0.0398  0.1927
29843W        W30707   6.545   6.624   8.813  0.1213 -0.0145  0.1618
29844W        W30708   3.539   6.874   7.844 -0.0405  0.2879  0.3502
29845W        W30709   2.241   4.994   8.696 -0.3218 -0.2172  0.1547
29846W        W30710   3.447   6.707   8.723 -0.1258  0.0649  0.0461
29847W        W30711   8.955   3.106   9.438  0.1963  0.3519  0.1252
29848W        W30712   4.419   7.258   7.995  0.0990  0.0834  0.3181
29849W        W30713   4.128   6.190   7.580  0.1897  0.0407  0.2050
29850W        W30714   3.529   7.216   9.473 -0.0071  0.2878  0.1420
29851W        W30715   6.407   3.001   8.930  0.1752 -0.2900  0.2030
29852W        W30716   6.545   7.432  10.452 -0.0575  0.2704  0.1812
29853W        W30717   5.817   4.693   9.261  0.2274  0.2481 -0.1408
29854W        W30718   1.406   5.192   8.807  0.2941  0.1412 -0.2641
29855W        W30719   3.957   6.882   8.746 -0.0513  0.0058 -0.0083
29856W        W30720   4.480   3.397  10.740  0.1212 -0.2493  0.3024
29857W        W30721   4.439   5.242   9.672 -0.1095  0.4828 -0.1028
29858W        W30722   4.157   6.847  10.078 -0.0512  0.0153 -0.0261
29859W        W30723   6.122   7.599   7.278  0.1663  0.1951  0.2724
29860W        W30724   7.290   3.418   6.647 -0.1152 -0.1955  0.2633
29861W        W30725   1.828   6.463   8.979  0.1327  0.2449 -0.1417
29862W        W30726   5.957   9.003  10.620 -0.0305  0.1074  0.1518
29863W        W30727   6.763   3.959   8.020  0.2948 -0.0415 -0.3705
29864W        W30728   5.651   3.881   8.297 -0.0793  0.1285  0.3343
29865W        W30729   6.375   0.128  10.845  0.2986  0.0919 -0.3264
29866W        W30730   4.563   4.912   6.698 -0.0853 -0.1317 -0.0990
29867W        W30731   7.143   4.164   8.790 -0.0780  0.2028  0.0254
29868W        W30732   2.767   7.072   7.192  0.1243 -0.0943  0.0448
29869W        W30733   6.542   6.034   8.657  0.2857  0.1170  0.1863
29870W        W30734   9.336   7.474  11.735 -0.0599 -0.1423  0.3247
29871W        W30735   7.829   2.560   7.729  0.2258  0.2500  0.0151
29872W        W30736   6.314   8.314   9.620  0.0652 -0.0190  0.2797
29873W        W30737   7.212   5.047  11.057 -0.2610 -0.0128 -0.1236
29874W        W30738   6.647   6.113   9.668 -0.0885  0.0522  0.0329
29875W        W30739   4.110   4.884   7.538  0.1689  0.0144  0.0384
29876W        W30740   1.757   5.419   8.132  0.1588  0.0467 -0.2946
29877W        W30741   4.476   6.919   8.993  0.1972  0.0267  0.0692
29878W        W30742   5.389   4.795   9.080 -0.0140 -0.0368  0.0673
29879W        W30743   4.917   5.422   9.398 -0.3013 -0.0272  0.0741
29880W        W30744   4.705   6.861  10.031 -0.1367 -0.1593 -0.2122
29881W        W30745   5.893   2.527   8.398 -0.0962 -0.0574  0.4201
29882W        W30746   5.067   0.470   8.711 -0.1128 -0.0052 -0.0955
29883W        W30747   4.585   6.678   8.338 -0.1388 -0.4427  0.0207
29884W        W30748   4.025   5.158   9.455  0.0540 -0.3727  0.2632
29885W        W30749   7.037   3.351   8.437 -0.1246 -0.1686 -0.3276
29886W        W30750   7.032   7.608  10.397  0.1612  0.1260 -0.1861
29887W        W30751   4.890   5.451  10.352  0.4221  0.2303  0.0785
29888W        W30752   3.771   6.087  11.925  0.1764  0.0975  0.2517
29889W        W30753   5.653   3.154   9.495  0.0080 -0.1398  0.2761
29890W        W30754   4.927   3.728   9.919  0.0484  0.2058  0.1248
29891W        W30755   5.566   2.288   9.906  0.1298  0.2086 -0.1720
29892W        W30756   3.442   7.910   8.856 -0.2385  0.1266  0.2867
29893W        W30757   5.577   5.246  10.075  0.0627  0.3183 -0.0003
29894W        W30758   5.999   4.109   8.970  0.4021 -0.1209 -0.0938
29895W        W30759   7.366   2.780   9.048 -0.1703  0.1959  0.2821
29896W        W30760   5.931   2.835   9.140  0.2167 -0.0159  0.1005
29897W        W30761   4.193   9.933  10.517 -0.2610  0.1431 -0.0579
29898W        W30762   4.800   5.337   8.077 -0.0256  0.0702  0.0739
29899W        W30763   6.473   2.062   9.410  0.1045 -0.1019 -0.0458
29900W        W30764   5.924   7.905   6.927  0.1208  0.0255  0.0669
29901W        W30765   3.021   4.299   8.984 -0.0816  0.1966  0.1125
29902W        W30766   5.849   3.604   7.895  0.0694  0.0820 -0.0960
29903W        W30767   5.640   5.673   9.103  0.0410  0.3948 -0.0766
29904W        W30768   6.402   2.457  11.447 -0.0653  0.1990  0.0807
29905W        W30769   6.477   6.838  10.593  0.0791  0.0516 -0.0884
29906W        W30770   5.371   6.818   8.276 -0.1243 -0.2431 -0.0973
29907W        W30771   3.618   6.270  11.482 -0.1004 -0.2069 -0.4444
29908W        W30772   4.288   4.272  10.678  0.0535 -0.2055  0.0752
29909W        W30773   6.726   2.887   9.391  0.1517 -0.0250  0.3147
29910W        W30774   4.636   6.249  10.653  0.0130  0.0327  0.1907
29911W        W30775   5.629   7.425   8.143 -0.2017  0.2184  0.2524
29912W        W30776   5.310   5.548  12.341 -0.0722  0.3184  0.0962
29913W        W30777   5.561   7.079   9.152 -0.1404 -0.0620 -0.0510
29914W        W30778   4.363   5.603   7.468 -0.3224 -0.0445 -0.0460
29915W        W30779   5.084   6.463   8.420  0.0250 -0.1208  0.2228
29916W        W30780   7.492   4.955  11.584 -0.0740 -0.0548 -0.0253
29917W        W30781   5.782   3.740   9.317  0.0665  0.1190  0.1810
29918W        W30782   6.213   1.831   7.520 -0.1994 -0.2652 -0.0426
29919W        W30783   8.350   4.357   8.182  0.1042  0.2013  0.1147
29920W        W30784   7.276   5.477  11.332 -0.1716 -0.0514  0.1898
29921W        W30785   6.647   4.515   9.994 -0.3173 -0.0530 -0.0957
29922W        W30786   6.415   3.771   7.138 -0.1641  0.2117 -0.5661
29923W        W30787   5.522   5.856  10.799 -0.1306  0.0045 -0.4234
29924W        W30788   4.504   5.810  10.340 -0.0767 -0.3180  0.0270
29925W        W30789   5.510   8.633   7.636  0.0429  0.0742 -0.1770
29926W        W30790   5.792   5.234   9.466 -0.0714 -0.0468  0.0449
29927W        W30791   8.063   5.523  11.446  0.0523  0.1904 -0.0748
29928W        W30792   7.702   7.914   9.879  0.0728 -0.1892 -0.0159
29929W        W30793   5.108   7.426   7.807  0.0030 -0.0785  0.1551
29930W        W30794   5.858   8.382   9.170  0.1197 -0.1117 -0.1771
29931W        W30795   9.375   3.581  11.890  0.0063 -0.0646  0.0777
29932W        W30796   4.010  11.254   9.873  0.1948 -0.1791  0.3348
29933W        W30797   7.142   6.068   9.090 -0.0199  0.1467  0.0528
29934W        W30798   7.972   6.309  11.073 -0.1054 -0.1061 -0.0442
29935W        W30799   1.515   4.758  11.251  0.4131 -0.1801 -0.4530
29936W        W30800   4.528   2.958  10.951 -0.0533 -0.2746 -0.0520
29937W        W30801   8.208   2.669   9.873 -0.1557  0.4778  0.1895
29938W        W30802   4.941   7.339  10.862  0.2163 -0.0139 -0.2386
29939W        W30803   4.880   4.064   6.743  0.0819 -0.2610  0.0715
29940W        W30804   5.309   3.086   7.820 -0.1020 -0.2858  0.2327
29941W        W30805   6.155   4.267  10.478 -0.2489  0.1902 -0.1549
29942W        W30806   4.932   7.645   9.754  0.2928  0.1358 -0.2146
29943W        W30807   4.886   5.971   6.854  0.1874 -0.1155  0.2290
29944W        W30808   4.494   4.471   9.372 -0.0093 -0.0797  0.4486
29945W        W30809   6.147   3.677   8.345  0.1174 -0.1080  0.1903
29946W        W30810   8.658   4.386  11.076  0.0334  0.2188  0.0676
29947W        W30811   5.978   8.019   9.882 -0.0086 -0.0500  0.1016
29948W        W30812   4.934   5.633   7.624 -0.1114 -0.0248  0.0081
29949W        W30813   4.972   5.129   9.025  0.1389 -0.0290  0.0972
29950W        W30814   5.330   7.402   9.509  0.8202 -0.1473  0.0173
29951W        W30815   4.410   3.462   7.905 -0.0764  0.0359 -0.0353
29952W        W30816   5.362   7.459  10.584  0.0023 -0.0158 -0.0508
29953W        W30817   4.128   4.759   6.529  0.2140 -0.4093  0.2715
29954W        W30818   6.196   5.162   7.007 -0.4890 -0.0331 -0.1142
29955W        W30819   6.057   1.545   8.809 -0.1171 -0.1187 -0.0777
29956W        W30820   3.963   2.557   6.815  0.1589 -0.1977 -0.1356
29957W        W30821   4.663   7.656   7.741  0.3276 -0.5936  0.1237
29958W        W30822   4.597   3.647   6.799  0.0052  0.0961  0.1727
29959W        W30823   5.501   7.651   8.588 -0.0607 -0.0650 -0.1640
29960W        W30824   3.891   1.988  11.272  0.1900  0.0292  0.0262
29961W        W30825   4.153   7.222   9.267 -0.1780 -0.2427 -0.1310
29962W        W30826   6.586   6.130  10.203 -0.0946  0.1704 -0.3956
29963W        W30827   5.515   6.618  10.608 -0.0145 -0.0282 -0.1023
29964W        W30828   5.814   3.552  10.934 -0.1780 -0.1716 -0.0220
29965W        W30829   5.323   5.881   8.198  0.3745  0.2116  0.1680
29966W        W30830   4.790   3.206   8.129  0.0063 -0.1401 -0.1579
29967W        W30831   1.782   3.040   8.058 -0.0422  0.1633  0.0920
29968W        W30832   4.445   7.970  11.546  0.0586 -0.3167  0.1526
29969W        W30833   4.124   4.380   6.153 -0.0208 -0.1328 -0.0269
29970W        W30834   6.840   7.039  10.336 -0.1337 -0.0602  0.1193
29971W        W30835   6.115   4.543  10.846  0.0980 -0.1501 -0.1521
29972W        W30836   5.998   4.203   8.438  0.1105 -0.1716  0.2089
29973W        W30837   5.054   7.457   7.275  0.0098  0.2937 -0.0498
29974W        W30838   8.398   1.721   9.629  0.0399 -0.1413 -0.0527
29975W        W30839   7.059   4.291   9.611 -0.3825  0.1219  0.0411
29976W        W30840   4.675   7.383   9.135 -0.2168  0.1078  0.2761
29977W        W30841   3.837   7.818   8.074  0.0882  0.0020  0.1638
29978W        W30842   4.745   6.659  10.864  0.1982  0.4124 -0.1153
29979W        W30843   6.272   4.522   8.699  0.0753  0.2853 -0.0120
29980W        W30844   4.953   4.750   9.461  0.4318  0.0439  0.0203
29981W        W30845   8.459   5.104   7.639  0.0018 -0.6210  0.1542
29982W        W30846   4.218   4.636   7.020 -0.4121  0.0960  0.1753
29983W        W30847   6.328   4.336   9.290 -0.1059  0.0844  0.0404
29984W        W30848   6.313   4.691   9.639  0.0657  0.2282 -0.1269
29985W        W30849   4.146   4.898   9.858 -0.0552 -0.0620 -0.3094
29986W        W30850   7.682   1.902  12.248 -0.2420  0.1978  0.1578
29987W        W30851   4.801   1.696   6.702  0.0223  0.1255  0.2536
29988W        W30852   8.025   7.729   8.142  0.2555  0.2236  0.1493
29989W        W30853   3.655   6.413   5.934 -0.0355 -0.0113  0.0662
29990W        W30854   4.379   3.261   6.545 -0.1575 -0.1770 -0.0557
29991W        W30855   2.691   7.922   8.349  0.0668  0.0572 -0.1262
29992W        W30856   4.187   8.580  10.560  0.1206 -0.2619  0.0663
29993W        W30857   6.651   4.358  12.757  0.2070 -0.0483  0.0831
29994W        W30858   6.353   2.820  11.040  0.0809  0.0808  0.2156
29995W        W30859   5.453   2.326   9.344  0.2249  0.0461 -0.1423
29996W        W30860   7.715   6.050   9.975  0.3736 -0.3116  0.0182
29997W        W30861   3.123   3.835   8.738 -0.1198  0.0544 -0.4245
29998W        W30862   3.483   7.036   6.666 -0.0713  0.1001 -0.0124
29999W        W30863   6.493   4.778   9.071  0.0875 -0.0658  0.3336
30000W        W30864   3.355   2.380   6.841  0.0323  0.0936 -0.1970
30001W        W30865   7.176   2.729   9.590 -0.0116 -0.2937 -0.1134
30002W        W30866   6.072   4.491   7.826 -0.0059  0.2119  0.1315
30003W        W30867   2.629   4.632   8.457 -0.1577 -0.0910  0.1275
30004W        W30868   4.249   3.065  12.469  0.0935 -0.1811 -0.4033
30005W        W30869   4.793   3.280   7.071  0.0047  0.3492  0.1954
30006W        W30870   3.698   7.398  11.050  0.1591  0.1940  0.0408
30007W        W30871   4.986   5.898  10.565 -0.1519 -0.0338 -0.1617
30008W        W30872   3.973   5.872  10.289  0.1411 -0.0620  0.0661
30009W        W30873   5.483   5.609   7.427 -0.2216 -0.2219 -0.1913
30010W        W30874   4.906   6.561  10.383  0.1380 -0.1626  0.0224
30011W        W30875   4.738   6.112  11.121  0.1042 -0.1589 -0.2965
30012W        W30876   7.121   4.496  10.439 -0.2302 -0.0838  0.0005
30013W        W30877   8.577   3.498  10.144  0.0411 -0.0188 -0.2717
30014W        W30878   6.860   3.946   9.287  0.0243  0.0923 -0.0739
30015W        W30879   9.396   3.936   9.051 -0.0694 -0.1424  0.1275
30016W        W30880   7.584   4.927   8.552 -0.0897  0.0075 -0.0260
30017W        W30881   4.996   5.051   7.007  0.3885 -0.5798  0.0969
30018W        W30882   4.506   7.590  10.787  0.0543  0.3449 -0.0858
30019W        W30883   2.359   5.968  11.270 -0.0064 -0.2018 -0.2719
30020W        W30884   7.274   2.922  13.018  0.2194 -0.3549  0.0112
30021W        W30885   7.773   5.170   8.139  0.0243  0.0627  0.2102
30022W        W30886   5.499   8.806  11.931 -0.1262  0.2145  0.0935
30023W        W30887   7.115   2.956   7.390  0.0370  0.0369 -0.2115
30024W        W30888   6.083   7.582   7.817 -0.2644 -0.1832  0.3259
30025W        W30889   4.362   3.362  11.261 -0.1671 -0.0481  0.0525
30026W        W30890   6.737   9.677   9.215  0.0539  0.0526 -0.4118
30027W        W30891   6.250   2.900  10.493 -0.1718 -0.3084 -0.4145
30028W        W30892   4.879   6.989   8.052  0.2198 -0.0137 -0.0444
30029W        W30893   4.418   5.628   8.385 -0.0412  0.0229 -0.0313
30030W        W30894   4.704   0.845   8.750 -0.1801 -0.1414  0.1875
30031W        W30895   5.353   3.534   8.647 -0.3443 -0.0025  0.3667
30032W        W30896   4.730   7.179   6.966  0.0866 -0.0070 -0.0015
30033W        W30897   4.355   5.640   6.911  0.1895  0.1279 -0.0267
30034W        W30898   5.753   5.827  10.281  0.1802  0.1311 -0.0089
30035W        W30899   5.867   7.915   8.221  0.1679 -0.2680  0.1010
30036W        W30900   7.488   4.803  10.666 -0.0137 -0.3591  0.0746
30037W        W30901   4.251   4.843  12.383  0.1490 -0.1612  0.1029
30038W        W30902   5.933   7.961   9.368  0.1234  0.1412 -0.0103
30039W        W30903   5.132   6.338   7.083  0.0149  0.1200 -0.1409
30040W        W30904   4.712   5.527   6.598 -0.1003 -0.4176  0.0777
30041W        W30905   3.604   4.624   9.710 -0.0395  0.1179  0.2400
30042W        W30906   6.090   6.660   6.996  0.1728 -0.1458  0.3672
30043W        W30907   1.796   4.200   9.692 -0.2240  0.3329  0.0762
30044W        W30908   5.362   4.538   9.532 -0.2381  0.1913  0.0284
30045W        W30909   6.945   6.373   8.756  0.2056  0.1750  0.4748
30046W        W30910   5.425   4.973  11.313 -0.5532  0.2087  0.3465
30047W        W30911   4.196   7.813  11.970 -0.1135  0.0706  0.1167
30048W        W30912   7.393   5.738   9.733 -0.0220 -0.1529  0.0431
30049W        W30913   4.759   5.023   8.472 -0.1906  0.4762 -0.1367
30050W        W30914   3.763   4.802  10.210  0.0620 -0.1813  0.0714
30051W        W30915   5.089   6.334  10.794  0.0476 -0.0091 -0.0664
30052W        W30916   6.444   8.785  12.631 -0.0730 -0.0065 -0.1748
30053W        W30917   5.252   6.280   8.888  0.2622  0.1933 -0.2666
30054W        W30918   3.558   2.432   7.697  0.2808 -0.1458 -0.3562
30055W        W30919   9.902   6.811  10.552 -0.0172  0.0815  0.0235
30056W        W30920   6.694   2.574  10.771 -0.0796 -0.0823  0.4030
30057W        W30921   5.244   2.942   9.618 -0.0531  0.0351  0.4300
30058W        W30922   7.416   7.715   8.188 -0.0675 -0.0182  0.0553
30059W        W30923   7.131   5.244   8.070  0.0757 -0.2740  0.0137
30060W        W30924   7.832   3.936   7.289 -0.3485 -0.2282  0.0070
30061W        W30925   6.718   1.907   7.568 -0.0757 -0.5597 -0.2070
30062W        W30926   5.184   7.802   6.267  0.0818  0.0858  0.2752
30063W        W30927   4.260   4.828  11.890 -0.2447  0.0950 -0.0707
30064W        W30928   4.146   7.383   8.798  0.2815  0.2284  0.1693
30065W        W30929   2.181   6.466  13.042 -0.1596 -0.3498  0.1331
30066W        W30930   4.700   6.497   7.362 -0.0507 -0.1047  0.1752
30067W        W30931   3.184   5.215   8.897 -0.1736 -0.2402 -0.2650
30068W        W30932   5.075   5.405  10.832 -0.1646 -0.1635  0.2989
30069W        W30933   7.435   4.460   8.463  0.1978 -0.3702 -0.1014
30070W        W30934   3.900   7.729   7.006  0.1143  0.1392 -0.4648
30071W        W30935   6.059   5.293  10.276  0.1333  0.1291 -0.1256
30072W        W30936   5.550   5.304   8.782  0.3531  0.2385 -0.1115
30073W        W30937   4.133   3.509  10.335  0.1907 -0.2851  0.0338
30074W        W30938   7.014   7.287   8.691  0.0530  0.0172 -0.0906
30075W        W30939   8.044   3.727  12.050  0.0697  0.0877  0.0480
30076W        W30940   3.990   4.912   9.007  0.3185  0.0116 -0.1143
30077W        W30941   5.046   4.739   7.675 -0.0272 -0.1492  0.1123
30078W        W30942   2.570   6.499   7.035 -0.1605 -0.2321  0.1160
30079W        W30943   3.620   6.194  10.934  0.4012 -0.0575 -0.1056
30080W        W30944   6.103   5.130  10.995  0.2610 -0.0274 -0.1997
30081W        W30945   6.358   5.604   7.192 -0.0076  0.0686 -0.3074
30082W        W30946   4.498   4.981   9.302 -0.0439  0.2526  0.0795
30083W        W30947   2.465   6.649  10.498 -0.1665  0.1611  0.3080
30084W        W30948   2.898   5.332   6.360 -0.1385  0.4494  0.0317
30085W        W30949   8.204   3.248   9.966  0.0059 -0.0235 -0.0788
30086W        W30950   5.522   6.312   8.363 -0.2729  0.1134  0.2832
30087W        W30951   3.560   4.818  10.755  0.1263 -0.1015  0.2878
30088W        W30952   8.463   2.117   9.316 -0.1424  0.0833  0.1578
30089W        W30953   5.537   8.643   6.960 -0.3077 -0.0152 -0.3116
30090W        W30954   6.399   4.049   8.566 -0.1082  0.3787  0.2260
30091W        W30955   7.343   3.012   6.916 -0.0036  0.2159  0.2314
30092W        W30956   5.805   4.958  10.448  0.0653  0.0340 -0.2353
30093W        W30957   5.254   6.310   9.797  0.2719  0.3490 -0.2569
30094W        W30958   4.914   5.912   8.586 -0.1669 -0.1237 -0.0237
30095W        W30959   6.622   3.462   8.191  0.1867  0.3120  0.1400
30096W        W30960   4.780   6.118   8.992  0.0408  0.0788  0.0054
30097W        W30961   7.907   3.325   9.574 -0.0559  0.0274  0.1498
30098W        W30962   7.749   4.084  12.294 -0.0198 -0.1714 -0.0321
30099W        W30963   2.452   7.558   7.426  0.0446 -0.0266 -0.0339
30100W        W30964   4.522   6.071   6.070 -0.0820 -0.1894  0.0819
30101W        W30965   2.803   4.754  11.635  0.1512  0.0591 -0.3404
30102W        W30966   4.374   7.313  10.042 -0.3754 -0.1589  0.1440
30103W        W30967   5.601   6.580   9.189  0.0733  0.0065 -0.0505
30104W        W30968   7.180   5.900   7.425 -0.3084  0.3137 -0.0421
30105W        W30969   3.186   7.525   9.098  0.1389 -0.0159 -0.2398
30106W        W30970   6.808   6.519  11.762  0.1081  0.0383 -0.1198
30107W        W30971   3.635   2.580   4.997  0.0039 -0.1201 -0.0915
30108W        W30972   7.013   2.419  11.700 -0.0206 -0.1593 -0.0402
30109W        W30973   3.100   6.680   7.058  0.0138 -0.1517 -0.2147
30110W        W30974   5.348   1.583   6.166  0.0647 -0.1868  0.2365
30111W        W30975   4.043   6.710   9.261  0.2598  0.2458 -0.2020
30112W        W30976   4.896   6.497   7.854 -0.0169 -0.0457 -0.1021
30113W        W30977   5.298   6.623   7.412  0.1622  0.0217  0.0496
30114W        W30978   4.291   7.377   7.026  0.0234 -0.0738  0.2740
30115W        W30979   3.204   6.452  10.001 -0.1831 -0.0714  0.2937
30116W        W30980   3.540   3.211  11.070 -0.0393  0.0281  0.0915
30117W        W30981   7.732   3.979   7.821 -0.2205  0.0181 -0.1327
30118W        W30982   5.906   7.082  12.731  0.0873  0.1295 -0.0365
30119W        W30983   5.318   5.517   7.905  0.0750 -0.0763 -0.1014
30120W        W30984   3.332   5.704   8.287 -0.1816 -0.0728 -0.0189
30121W        W30985   6.318   8.226   6.157  0.2284  0.2904 -0.2827
30122W        W30986   4.232   5.486  10.571  0.0446 -0.0401  0.0144
30123W        W30987   7.049   3.600   9.650 -0.1194  0.1781  0.1997
30124W        W30988   4.255   4.513   7.895 -0.1387 -0.1669  0.4591
30125W        W30989   8.855   8.730  10.834 -0.1975  0.0510  0.0625
30126W        W30990   3.786   4.503  12.331 -0.1479 -0.1828  0.1672
30127W        W30991   3.878   6.086   9.802 -0.5820 -0.0878  0.1768
30128W        W30992   3.707   3.983   7.624  0.0431  0.0734 -0.1359
30129W        W30993   2.781   6.552   5.482 -0.2042 -0.1745  0.0862
30130W        W30994   7.322   3.173   9.717 -0.0282  0.0208 -0.0042
30131W        W30995   9.262   3.542   6.349 -0.0111 -0.1672 -0.2194
30132W        W30996   5.960   5.963  11.122  0.0345  0.1501 -0.1922
30133W        W30997   4.043   5.217  12.693 -0.1981  0.2380  0.1723
30134W        W30998   5.985   6.791  10.778  0.4083 -0.3963  0.0891
30135W        W30999   4.756   6.697  11.444 -0.3963  0.1665 -0.1582
30136W        W31000   5.161   8.303   7.074  0.1611 -0.3958  0.0144
30137W        W31001   6.218   7.599   9.162  0.2800 -0.2126  0.0729
30138W        W31002   7.513   3.499   9.252 -0.0662  0.1513 -0.1308
30139W        W31003   4.459   1.539  12.139 -0.2571 -0.0267  0.2080
30140W        W31004   2.990   5.892  10.342  0.0170 -0.0149 -0.0420
30141W        W31005   6.239   3.299   9.721 -0.0621  0.2972 -0.1726
30142W        W31006   8.183   3.929   8.112 -0.0069 -0.1294 -0.2890
30143W        W31007   3.025   7.476   7.507 -0.2365  0.2587  0.0693
30144W        W31008   7.398   3.201   8.787 -0.0363 -0.1762  0.0830
30145W        W31009   3.449   5.619  10.410 -0.4672 -0.4093  0.1931
30146W        W31010   2.525   6.131  10.210 -0.3375 -0.0555 -0.0618
30147W        W31011   5.008   3.157  10.037 -0.2113  0.1276 -0.1377
30148W        W31012   3.275   9.790   9.075 -0.0810 -0.3019  0.0219
30149W        W31013   3.054   4.029   5.757  0.2891  0.1502  0.0068
30150W        W31014   6.977   4.725  11.455  0.1267  0.0414 -0.2494
30151W        W31015   3.830   3.863   6.279 -0.4209 -0.0192  0.3545
30152W        W31016   5.011   4.102  10.262  0.0666 -0.0085 -0.0188
30153W        W31017   4.303   5.303   7.818 -0.1890  0.1004  0.0821
30154W        W31018   4.622   7.556   8.413 -0.1009 -0.0786 -0.0526
30155W        W31019   4.050   1.705   5.994  0.1924 -0.2215 -0.2973
30156W        W31020   2.741   9.355   7.140 -0.0114  0.1377  0.1594
30157W        W31021   3.975   6.372  10.623  0.1999  0.1133  0.2412
30158W        W31022   1.534   3.714  10.988  0.0344  0.1338  0.0410
30159W        W31023   3.287   4.386   7.936 -0.1791 -0.2559  0.1572
30160W        W31024   6.445   3.874   9.070 -0.1833  0.0541  0.1205
30161W        W31025   3.221   4.440  11.502  0.1668  0.0708 -0.2423
30162W        W31026   5.990   3.023  10.058 -0.0634  0.1413 -0.0644
30163W        W31027   6.852   5.146   9.067 -0.4538  0.3236 -0.0976
30164W        W31028   5.036   7.340  11.619  0.1813  0.3908 -0.0023
30165W        W31029   7.352   4.402  11.548  0.2905 -0.0463 -0.4025
30166W        W31030   6.144   7.238   8.162  0.0347 -0.0704  0.1389
30167W        W31031   4.257   5.857   7.940 -0.0952 -0.0666  0.1612
30168W        W31032   8.949   4.341   7.973 -0.3030  0.0413 -0.2000
30169W        W31033   6.816   1.584   8.799 -0.2567  0.0938 -0.2206
30170W        W31034   1.416   6.008   7.299 -0.4147 -0.3519 -0.1319
30171W        W31035   8.168   6.036  11.385  0.2150  0.1648 -0.0282
30172W        W31036   4.563   8.399   9.021 -0.2540  0.0260 -0.4317
30173W        W31037   5.532   7.063  10.855  0.0696 -0.0569  0.1148
30174W        W31038   7.269   6.376   7.628  0.0872 -0.2911  0.0413
30175W        W31039   2.979   4.749   9.360  0.2576 -0.3509 -0.1495
30176W        W31040   4.743   2.597  11.184  0.2406 -0.0768 -0.0649
30177W        W31041   7.286   6.359  10.857 -0.0006 -0.1301 -0.1428
30178W        W31042   4.214   4.259   9.744 -0.0921  0.1809  0.0999
30179W        W31043   5.889   5.582   9.878  0.1649  0.2487  0.1203
30180W        W31044   6.211   2.768   9.589 -0.3850  0.1992 -0.0358
30181W        W31045   4.132   7.457   8.298  0.1532  0.1233 -0.0308
30182W        W31046   3.495   5.502  11.625  0.1567  0.0108  0.1614
30183W        W31047   6.001   5.450   8.859 -0.0769  0.1831  0.0437
30184W        W31048   6.738   7.002   9.839  0.0028 -0.0716 -0.1439
30185W        W31049   5.740   4.470  10.469 -0.1000  0.0532 -0.1015
30186W        W31050   7.489   7.205   7.425  0.1384  0.0162 -0.1410
30187W        W31051   4.310   7.883   7.228  0.0091  0.0451 -0.2092
30188W        W31052   6.892   7.663   6.302  0.0502 -0.1533 -0.0844
30189W        W31053   6.046   6.661  11.775 -0.0529  0.2112  0.4406
30190W        W31054   5.319   3.492   9.626  0.0012  0.0616  0.2711
30191W        W31055   6.422   5.446  10.646 -0.1015  0.1580  0.3222
30192W        W31056   5.224   4.914   8.650 -0.1628  0.3525 -0.2222
30193W        W31057   6.370   7.918   8.054 -0.0946 -0.0310 -0.0003
30194W        W31058   1.589   7.148   9.015 -0.1191 -0.0111 -0.0580
30195W        W31059   5.456   4.433   8.306  0.0770 -0.0522  0.2554
30196W        W31060   3.831   6.396   8.802  0.0659 -0.2076  0.0836
30197W        W31061   2.659   7.283   7.787  0.3367 -0.1963  0.2867
30198W        W31062   4.145   8.359   8.822 -0.0470 -0.0883 -0.0356
30199W        W31063   2.727   5.263   8.687  0.1396 -0.0306  0.3972
30200W        W31064   4.026   6.494  17.188  0.0356  0.1543 -0.1214
30201W        W31065   5.820   7.384  12.310  0.3395 -0.1313  0.0397
30202W        W31066   5.779   4.389  11.673 -0.2335  0.0564  0.0915
30203W        W31067   7.625   6.974  12.415  0.0116 -0.3117 -0.0391
30204W        W31068   0.807   7.389  11.180 -0.0570 -0.0191  0.1329
30205W        W31069   4.040   5.750   9.404  0.1458  0.0371  0.0707
30206W        W31070   2.578   3.970  11.087  0.0927 -0.1551 -0.2558
30207W        W31071   5.443   4.786  10.136 -0.0201 -0.2616 -0.1248
30208W        W31072   6.410   7.171  11.847  0.3649 -0.0925  0.0569
30209W        W31073   2.383   4.128  16.778  0.0146  0.1708 -0.1003
30210W        W31074   6.279   4.486  13.165 -0.0987 -0.1714  0.0281
30211W        W31075   4.481   4.000  13.425 -0.0276  0.3067 -0.2425
30212W        W31076   7.894   5.069  10.273  0.0828 -0.1830  0.2146
30213W        W31077   7.348   3.193  12.572  0.0117 -0.0740  0.1523
30214W        W31078   1.832   1.373  13.388 -0.0644 -0.2448  0.2906
30215W        W31079   4.127   6.932  14.171 -0.1451  0.2723  0.0084
30216W        W31080   4.423   5.287  11.539  0.3571 -0.0001  0.0463
30217W        W31081   2.058   4.218  12.315 -0.2372 -0.0405 -0.2034
30218W        W31082   2.029   3.924  15.539  0.1073  0.1115 -0.0036
30219W        W31083   4.524   4.140  14.272  0.1319 -0.0661 -0.2794
30220W        W31084   7.262   4.853  12.421 -0.0922 -0.0679  0.2046
30221W        W31085   3.488   4.820  14.871 -0.1901  0.2671  0.0826
30222W        W31086   7.008   7.778  12.211 -0.1283  0.0172 -0.0736
30223W        W31087   3.254   6.837  14.657  0.0240 -0.1067  0.0086
30224W        W31088   2.503   6.769  12.698  0.0857  0.0137  0.0664
30225W        W31089   3.362   9.783  13.638 -0.1386  0.0522  0.1691
30226W        W31090   7.135   5.475  13.558  0.2131 -0.1651  0.0758
30227W        W31091   4.228   3.851  13.878 -0.3944  0.1680 -0.1545
30228W        W31092   4.673   5.558  11.932 -0.1235  0.2683  0.1721
30229W        W31093   3.619   6.470  12.641  0.1112 -0.0271  0.1931
30230W        W31094   7.561   7.487  12.308 -0.0253 -0.3151  0.1217
30231W        W31095   4.493   5.607  15.037 -0.0219  0.0406  0.1488
30232W        W31096   3.292   6.723  13.009  0.3195  0.2680 -0.0188
30233W        W31097   3.511   4.240  14.201 -0.1142 -0.0135  0.0096
30234W        W31098   4.394   4.674  16.992  0.0686  0.1085  0.2729
30235W        W31099   7.442   6.067  12.468 -0.2230 -0.0306  0.1003
30236W        W31100   3.759   5.036  12.236 -0.2794  0.0523  0.0379
30237W        W31101   4.319   5.662  12.687 -0.3137 -0.0735 -0.1047
30238W        W31102   5.903   7.086  11.931 -0.2522 -0.0044  0.2091
30239W        W31103   4.175   3.440  13.042 -0.2226  0.1769 -0.2740
30240W        W31104   7.568   3.632   9.764 -0.1553  0.2869  0.0231
30241W        W31105   8.631   5.088  13.628  0.3312  0.1456  0.0346
30242W        W31106   6.042   5.923  13.088  0.2341 -0.1054  0.0827
30243W        W31107   7.276   6.365  10.192 -0.1197 -0.1717 -0.0506
30244W        W31108   5.640   8.747  10.315  0.2873 -0.2828  0.1261
30245W        W31109   3.671   9.216  11.015 -0.3699  0.0446 -0.0175
30246W        W31110   6.266   4.643  14.548 -0.0113  0.2306  0.1043
30247W        W31111   8.156   5.253  12.730  0.1761  0.0269  0.0374
30248W        W31112   4.489   4.932  12.799 -0.0849  0.0739 -0.1248
30249W        W31113   4.200   4.804  10.476 -0.2794  0.2078 -0.0094
30250W        W31114   4.272   6.604  14.739  0.1163 -0.1614 -0.0854
30251W        W31115   3.885   5.777  12.957 -0.0462  0.0005  0.1484
30252W        W31116   5.012   7.085  13.884 -0.0384 -0.1286  0.2770
30253W        W31117   4.682   5.687  10.884 -0.2929  0.1905 -0.2202
30254W        W31118   4.939   5.606  11.514  0.1056  0.0067  0.1482
30255W        W31119   1.812   7.379  10.034  0.0542  0.4776  0.2658
30256W        W31120   3.037   6.369  12.159  0.1173  0.2188 -0.3276
30257W        W31121   4.899   5.131  13.598  0.0750 -0.0590 -0.1118
30258W        W31122   4.394   6.613  12.883 -0.1096  0.2670  0.0959
30259W        W31123   2.887   7.517  10.200 -0.1612 -0.0783  0.2371
30260W        W31124   6.876   5.894  11.374 -0.1487 -0.1685 -0.0495
30261W        W31125   2.700   8.067  12.790 -0.0302 -0.2427  0.1007
30262W        W31126   4.814   7.625  13.860  0.1587  0.0459 -0.1517
30263W        W31127   4.244   5.935  10.838 -0.0427 -0.0359  0.0719
30264W        W31128   5.619   5.447  15.723 -0.3693  0.1897 -0.1113
30265W        W31129   4.885   3.213  12.388  0.0740  0.0515 -0.0280
30266W        W31130   3.809   7.430  12.917 -0.0667 -0.2574  0.0732
30267W        W31131   4.528   4.806  11.426 -0.0852  0.1161  0.1029
30268W        W31132   6.914   8.853  10.290 -0.1207  0.4191  0.1898
30269W        W31133   5.260   4.156  10.801 -0.0061 -0.2267  0.1596
30270W        W31134   5.277   6.912  11.694  0.0959 -0.2455  0.0614
30271W        W31135   5.412   3.774  11.167  0.4178  0.1353  0.1189
30272W        W31136  10.354   7.798  12.566 -0.1450  0.2822 -0.2131
30273W        W31137   5.392   6.109  14.148  0.0451 -0.3307 -0.1076
30274W        W31138   6.375   8.463  14.552  0.0300  0.1697 -0.1224
30275W        W31139   8.840   7.321  13.049 -0.0169  0.3416  0.2229
30276W        W31140   3.994   3.836  11.970 -0.0499  0.2150 -0.0671
30277W        W31141   4.929   6.559  12.793  0.1650  0.0092  0.1516
30278W        W31142   7.866   3.779  12.765  0.2674 -0.1460 -0.2540
30279W        W31143   5.867   6.255  10.660  0.2246  0.0336 -0.0771
30280W        W31144   4.300   7.238  14.597  0.1826  0.1122 -0.0801
30281W        W31145   5.469   6.002  13.262 -0.0303 -0.2306  0.0742
30282W        W31146   2.821   4.932  12.085  0.1102  0.3037  0.0199
30283W        W31147   3.277   2.546  13.600 -0.0052 -0.0364  0.0064
30284W        W31148   4.077   6.956  16.493 -0.3672  0.1395  0.3447
30285W        W31149   5.425   3.763  12.934 -0.0414  0.1009  0.1222
30286W        W31150   6.597   6.493  13.052 -0.2714 -0.1708 -0.1245
30287W        W31151   6.116   4.831  15.006  0.1070 -0.2547 -0.0542
30288W        W31152   8.552  10.047  11.783  0.0549 -0.1826  0.1061
30289W        W31153   5.733   4.080  14.003 -0.0963 -0.3957 -0.0455
30290W        W31154   3.865   8.770  12.758  0.0218  0.1381 -0.1022
30291W        W31155   6.136   6.201  12.468 -0.2226  0.1085 -0.0507
30292W        W31156   1.986   6.326  14.924  0.1892  0.0576 -0.0142
30293W        W31157   4.840   5.755  12.371  0.2133  0.0283 -0.1336
30294W        W31158   3.950   7.423  14.209  0.0443  0.0418  0.1186
30295W        W31159   4.941   3.622  12.101  0.1331 -0.1733  0.0560
30296W        W31160   6.892   4.678  10.971  0.3334  0.0767 -0.2980
30297W        W31161   4.997   7.043  17.396 -0.1509  0.2647  0.0177
30298W        W31162   4.525   4.647   9.850 -0.2153  0.3772  0.0641
30299W        W31163   9.742   5.038  11.731  0.0691 -0.0464 -0.1807
30300W        W31164   5.560   8.250  13.573  0.3534 -0.0769 -0.0231
30301W        W31165   4.589   6.872  15.586  0.1298  0.3399  0.1524
30302W        W31166   6.015   2.462  12.293 -0.0130 -0.2417  0.0795
30303W        W31167   7.492   7.461  10.140  0.0039 -0.2142 -0.1987
30304W        W31168   4.023   5.375  14.256 -0.0895  0.2088 -0.1152
30305W        W31169   6.430   8.796  13.175  0.1886  0.1189 -0.1987
30306W        W31170   5.213   5.828  11.868  0.0024  0.0088 -0.1273
30307W        W31171   2.372   6.443  14.147  0.0310  0.0027  0.3265
30308W        W31172   6.656   5.470  12.136  0.1005  0.0432 -0.3727
30309W        W31173   3.983   6.306  14.488 -0.0638 -0.0606  0.2468
30310W        W31174   4.255   4.798  14.582 -0.1128 -0.0367  0.0466
30311W        W31175   5.736   6.820  11.379  0.1832 -0.3667  0.3845
30312W        W31176   4.928   5.361  14.682  0.1219 -0.1939  0.2692
30313W        W31177   7.651   7.364  12.815 -0.1858 -0.0115  0.0404
30314W        W31178   6.227   3.816   9.525  0.1435  0.1624 -0.1371
30315W        W31179   3.397   4.514  13.510 -0.1444  0.0666 -0.2087
30316W        W31180   4.984   4.469  14.153 -0.2427  0.0105  0.1947
30317W        W31181   5.214   8.281  14.390 -0.0592  0.2638  0.1203
30318W        W31182   5.844   4.664  12.315 -0.0117  0.0271 -0.1722
30319W        W31183   7.514   6.398  11.322 -0.2001  0.1532  0.1070
30320W        W31184   8.637   5.604  10.718  0.2077 -0.0215  0.4838
30321W        W31185   5.622   6.562  10.140 -0.0968 -0.0652 -0.0376
30322W        W31186   6.206   7.097  13.577 -0.0464 -0.0394 -0.0178
30323W        W31187   5.171   5.023  10.506 -0.4569  0.1467  0.1269
30324W        W31188   5.373   6.774  13.991 -0.0629 -0.0592 -0.0166
30325W        W31189   7.980   9.264  11.686 -0.1338 -0.2971  0.1057
30326W        W31190   4.010   7.571  13.342 -0.0167  0.4424 -0.1895
30327W        W31191   8.057   5.415  14.955 -0.0082 -0.1219 -0.1609
30328W        W31192   7.826   5.639  12.792 -0.1891  0.2321  0.0264
30329W        W31193   4.788   5.233  11.170 -0.0468 -0.1582  0.1100
30330W        W31194   9.174   8.333  11.568  0.0059  0.0512 -0.0419
30331W        W31195   4.461   2.363  14.189  0.0443  0.0166  0.1789
30332W        W31196   3.213   6.622  13.457  0.1393  0.1534  0.2403
30333W        W31197   7.931   2.421  11.536  0.0821 -0.1564 -0.0400
30334W        W31198   7.494   6.021  12.977  0.0050 -0.1265 -0.2672
30335W        W31199   3.103   5.428  14.222 -0.1138 -0.2886 -0.1397
30336W        W31200   7.623   3.099  12.101  0.2003 -0.0360 -0.0397
30337W        W31201   3.884   4.592  13.376 -0.2541 -0.4414 -0.4834
30338W        W31202   4.414   5.789  11.360 -0.1940  0.1529  0.1600
30339W        W31203   4.177   8.328   9.361 -0.3998 -0.2247 -0.0741
30340W        W31204   3.828   2.763  11.661 -0.0355 -0.0568  0.2969
30341W        W31205   5.277   3.051  11.933 -0.3255 -0.1554 -0.3221
30342W        W31206   3.019   7.612   8.029  0.1699 -0.4782 -0.1687
30343W        W31207   3.527   3.400   9.685 -0.2177 -0.0349  0.3438
30344W        W31208   2.966   4.780  14.812  0.1513  0.0344  0.1577
30345W        W31209   5.176   4.547  11.496  0.1268 -0.0602 -0.4806
30346W        W31210   6.612   6.075  12.384 -0.1370 -0.0442  0.0660
30347W        W31211   5.377   7.660  11.581 -0.1262 -0.1708 -0.1331
30348W        W31212   5.353   5.329  11.792  0.0245 -0.1217  0.0946
30349W        W31213   5.603   6.420  11.037 -0.2333  0.2651 -0.0099
30350W        W31214   7.272   6.094  11.803 -0.2060  0.0619  0.1700
30351W        W31215   3.431   4.412  11.024 -0.0782 -0.0375 -0.1081
30352W        W31216   6.688   4.240  11.307  0.1171 -0.1173 -0.2483
30353W        W31217   4.984   4.571   8.241  0.1378 -0.3461 -0.0561
30354W        W31218   3.330   5.233  15.191  0.1589 -0.0197 -0.0731
30355W        W31219   5.754   3.368  15.702 -0.0863 -0.2366 -0.1018
30356W        W31220   3.645   7.065  13.217  0.0851  0.0378  0.1410
30357W        W31221   4.411   6.528  11.982 -0.2705 -0.0608 -0.2456
30358W        W31222   4.621   1.254   9.672  0.0304 -0.2073 -0.0161
30359W        W31223   5.406   5.165  13.085 -0.1494  0.2891 -0.2759
30360W        W31224   6.772   3.361  14.006  0.0907 -0.2056 -0.0233
30361W        W31225   3.385   4.386  15.142 -0.0364  0.0023 -0.2020
30362W        W31226   6.541   9.486  12.576  0.2488 -0.0173 -0.0363
30363W        W31227   4.172   4.321  12.033 -0.0173 -0.2097 -0.3804
30364W        W31228   5.627   4.622  14.789  0.0010  0.1625  0.0947
30365W        W31229   5.800   3.845  13.530 -0.3310  0.1978 -0.2150
30366W        W31230   2.158   4.116  14.721 -0.0264 -0.1555  0.2856
30367W        W31231   1.314   8.543  13.710 -0.0997 -0.3589 -0.0897
30368W        W31232   4.876   9.022  17.483 -0.0854  0.1525 -0.1091
30369W        W31233   5.696   8.367   9.643  0.5393  0.3706  0.1084
30370W        W31234   6.738   5.982  11.892 -0.2778 -0.1502 -0.0246
30371W        W31235   7.422   6.811  11.006 -0.2285 -0.0629  0.0052
30372W        W31236   6.508   6.289  11.405  0.0250  0.0735 -0.3585
30373W        W31237   7.966   5.923  12.366 -0.1509 -0.3051  0.0147
30374W        W31238   7.259   2.774  13.498 -0.1855 -0.1442 -0.1512
30375W        W31239   6.172   5.409  11.966  0.3154  0.2984  0.0531
30376W        W31240   3.027   8.863  16.691  0.0298 -0.1281  0.0874
30377W        W31241   3.699   9.763  13.260  0.1042 -0.2150 -0.2420
30378W        W31242   3.404   5.350  10.842 -0.1278  0.0186 -0.0294
30379W        W31243   5.508   5.185  13.692  0.1271  0.0412  0.0558
30380W        W31244   2.453   7.016  10.116 -0.1532  0.3721  0.2918
30381W        W31245   6.663   7.600  10.029 -0.0160  0.0886 -0.1616
30382W        W31246   5.521   4.689  10.915  0.1294  0.0953 -0.1243
30383W        W31247   3.194   5.252  12.710 -0.0189  0.0735 -0.3103
30384W        W31248   5.195   4.523  10.474  0.0775  0.2871 -0.0269
30385W        W31249   8.152   4.405  12.529  0.1836  0.0575 -0.0887
30386W        W31250   4.725   3.623  13.219 -0.0786 -0.0893 -0.3251
30387W        W31251   4.387  28.992   9.657 -0.0695  0.1993 -0.0461
30388W        W31252   2.780   6.105  16.536  0.3512  0.3531  0.4302
30389W        W31253   6.636   3.684   9.896  0.3748 -0.0683  0.3434
30390W        W31254   3.955   4.575  11.049  0.2081 -0.0117 -0.1833
30391W        W31255   3.436   8.177  10.039 -0.1814 -0.1190 -0.1112
30392W        W31256   4.128   6.861  12.308  0.2245  0.0567  0.1250
30393W        W31257   4.098   4.135  16.289  0.0216 -0.1967 -0.1553
30394W        W31258   5.495   4.510  14.247 -0.2730  0.2349  0.0745
30395W        W31259   4.542   6.303  14.417  0.0030  0.1865  0.0094
30396W        W31260   5.783   3.767  12.429  0.1041  0.1429 -0.0451
30397W        W31261   2.664   3.118  11.039  0.0578  0.1106  0.2348
30398W        W31262   3.684   2.753  10.688  0.2795  0.1983  0.3009
30399W        W31263   5.529   4.368  12.619 -0.2222  0.2385  0.1849
30400W        W31264   5.168   4.846  13.920 -0.0406 -0.0502  0.0056
30401W        W31265   9.249   4.098  13.265  0.3222  0.0264  0.0037
30402W        W31266   5.970   3.144  11.225  0.1987  0.1910 -0.0295
30403W        W31267   3.321   6.302  15.165 -0.1496  0.2135  0.0080
30404W        W31268   3.455   6.116  14.482 -0.0701 -0.1324  0.1840
30405W        W31269   3.130   3.711   9.765  0.2105 -0.2873 -0.0811
30406W        W31270   1.488   9.337  14.165  0.0223 -0.3570  0.0635
30407W        W31271   5.324   3.576  10.664  0.1048  0.0300  0.0013
30408W        W31272   3.683   8.529  10.448 -0.0873  0.4340 -0.0487
30409W        W31273   4.279   6.316  10.193  0.1838  0.1540  0.1846
30410W        W31274   4.619   5.326  12.439  0.0256  0.2023 -0.1222
30411W        W31275   4.702   6.238  15.002 -0.2498 -0.2145 -0.1563
30412W        W31276   7.397   7.184  11.824  0.1243  0.1523  0.1134
30413W        W31277   8.273   2.960  13.056 -0.1885  0.1996  0.3142
30414W        W31278   6.185   7.503  12.824 -0.1512 -0.0231  0.0385
30415W        W31279   7.144   5.355  12.344 -0.1366  0.0696 -0.0034
30416W        W31280   3.599   4.870  11.263 -0.0101 -0.3060 -0.2508
30417W        W31281   2.734  10.375  10.998  0.3106 -0.4759 -0.0890
30418W        W31282   6.320   7.648  14.204 -0.3639  0.1939 -0.0725
30419W        W31283   5.314   7.688  17.853 -0.3333 -0.0249  0.0240
30420W        W31284   7.345   2.832  14.795  0.0585 -0.0937 -0.3627
30421W        W31285   3.847   5.169  11.728 -0.4585 -0.0692 -0.0743
30422W        W31286   5.483   6.385  11.809  0.1021 -0.1737 -0.0845
30423W        W31287   2.572   4.674  10.668 -0.1379  0.1257 -0.1513
30424W        W31288   7.175   8.439  10.314  0.1788 -0.1291 -0.0024
30425W        W31289   2.820   2.537  16.378 -0.2196 -0.0005  0.0837
30426W        W31290   4.316   7.402  15.370  0.0707  0.3417 -0.2931
30427W        W31291  10.194   6.547  12.476  0.2079  0.1223  0.1790
30428W        W31292   6.905   7.587  11.810 -0.0831 -0.0002 -0.0212
30429W        W31293   5.357   9.328  11.847  0.3092  0.0233  0.0463
30430W        W31294   6.463   3.634  15.710 -0.1232 -0.1693 -0.2208
30431W        W31295   2.999   8.454  12.966 -0.2455  0.1783  0.0690
30432W        W31296   2.587   5.787   9.440 -0.1347 -0.0689 -0.0391
30433W        W31297   4.675   5.030  11.970 -0.0525  0.0794 -0.0795
30434W        W31298   7.584   3.969  13.142  0.0912 -0.1482  0.2518
30435W        W31299   5.046   5.219  12.152 -0.5034 -0.0487 -0.1544
30436W        W31300   4.372   4.831  10.960  0.3077 -0.0705 -0.3400
30437W        W31301   3.747   4.663  15.679  0.0519 -0.2531 -0.0903
30438W        W31302   6.120   6.559  12.857  0.0947 -0.1753 -0.0723
30439W        W31303   8.097   8.178  10.424  0.1791 -0.0585 -0.1433
30440W        W31304   4.952   7.489  12.179 -0.0451 -0.0499  0.1948
30441W        W31305   3.694   7.766  16.981 -0.2486 -0.0383 -0.1120
30442W        W31306   4.594   6.158  13.406 -0.1422  0.2418  0.0763
30443W        W31307   4.759   4.348  15.529  0.2535  0.0567  0.2427
30444W        W31308   6.095   6.750  12.274 -0.2446 -0.0611 -0.1990
30445W        W31309   6.142   4.285  11.275 -0.0501  0.1119  0.0934
30446W        W31310   7.236   4.212  12.105 -0.1458  0.5919 -0.2674
30447W        W31311   3.495   6.180  15.656 -0.1342 -0.2200 -0.0552
30448W        W31312   8.359  10.976  11.293  0.1179  0.3254  0.1802
30449W        W31313   4.296   4.349  13.735 -0.1783 -0.0626 -0.0594
30450W        W31314   2.548   5.367  14.181  0.1642  0.1358  0.0067
30451W        W31315   6.416   8.666  10.967 -0.1788  0.0439  0.0023
30452W        W31316   9.772   8.485  14.704  0.0496 -0.1138 -0.1450
30453W        W31317   6.413   6.232  15.649  0.0168 -0.2475  0.1274
30454W        W31318   3.567   6.027   9.447  0.3102 -0.0497 -0.4569
30455W        W31319   4.702   7.269  13.495 -0.1538  0.0840 -0.0706
30456W        W31320   6.715   3.574  10.360 -0.1859 -0.0290 -0.3828
30457W        W31321   4.033   5.433  15.305  0.1459  0.1675  0.1327
30458W        W31322   6.421   5.750  13.402 -0.0675 -0.0422 -0.1097
30459W        W31323   7.349   6.518  12.065 -0.3165  0.0060  0.0084
30460W        W31324   3.776   6.084  14.955 -0.1471  0.0643 -0.1878
30461W        W31325   4.678   4.435  14.716 -0.0466  0.1571 -0.2111
30462W        W31326   8.263   6.615  11.317 -0.0874  0.1499  0.1769
30463W        W31327   4.666   3.197  15.484 -0.0886  0.0218 -0.0192
30464W        W31328   1.374   9.314  15.481 -0.0731  0.1715  0.0834
30465W        W31329   5.178   7.977  15.732  0.3725 -0.1990 -0.0869
30466W        W31330   3.136   4.988   7.865 -0.1271 -0.0199  0.2154
30467W        W31331   7.633   4.078  11.264 -0.2781 -0.1486  0.0888
30468W        W31332   5.856   7.279  15.822  0.5674 -0.0801 -0.0146
30469W        W31333   6.122   5.310  13.515 -0.2493 -0.2972  0.1944
30470W        W31334   4.452   6.192  12.479 -0.2704 -0.3188 -0.2273
30471W        W31335   5.858   7.435  14.429 -0.2292  0.0344 -0.0325
30472W        W31336   2.923   6.698  14.925 -0.1233 -0.0314 -0.0545
30473W        W31337   4.744   4.189  13.861 -0.0158  0.2683  0.2351
30474W        W31338   9.102   7.330  13.679 -0.0210 -0.0582 -0.0583
30475W        W31339   8.313   3.702  16.001 -0.2409 -0.0619 -0.0199
30476W        W31340   2.946   4.247  13.415 -0.0754  0.2390 -0.4896
30477W        W31341   4.739   5.613  13.612 -0.0499  0.0217 -0.1557
30478W        W31342   3.823   6.835  10.490 -0.1348 -0.0612  0.0133
30479W        W31343   4.271   6.589  15.262 -0.0871 -0.0310  0.0150
30480W        W31344   5.012   7.938  12.331 -0.3694  0.1233  0.2002
30481W        W31345   4.500   1.648  10.856  0.0339 -0.3858 -0.2054
30482W        W31346   2.738   6.460  10.960 -0.0152 -0.2063 -0.3965
30483W        W31347   3.164   7.222  14.336 -0.1174 -0.1169  0.4429
30484W        W31348   4.297   5.393  11.085  0.0820 -0.3033  0.1681
30485W        W31349   4.014   3.832  13.365  0.2097  0.0026 -0.0042
30486W        W31350   9.585   8.665  10.713 -0.0197  0.1255 -0.2853
30487W        W31351   3.217   7.235  15.376  0.4676  0.1553 -0.0211
30488W        W31352   6.424   4.665  12.251  0.0999  0.0566  0.0425
30489W        W31353   6.296   5.863  12.078 -0.2620  0.1288  0.0332
30490W        W31354   6.230   8.310  12.436 -0.3389  0.1402  0.4090
30491W        W31355   7.339   5.170  10.276 -0.3287 -0.1154  0.1776
30492W        W31356   5.349   3.442  15.186 -0.0604 -0.1936  0.1025
30493W        W31357   3.972   5.078  10.841  0.0223 -0.2402 -0.2955
30494W        W31358   3.602   8.281  11.218  0.3536 -0.2003 -0.2487
30495W        W31359   3.036   3.856  11.260  0.0524 -0.0868 -0.1089
30496W        W31360   2.601   4.791  16.378 -0.0573  0.1055 -0.1407
30497W        W31361   6.608   5.366  14.147  0.2188 -0.2648  0.0942
30498W        W31362   7.330   3.715  12.160 -0.3081 -0.2404 -0.3358
30499W        W31363   1.266   7.586  12.821  0.0893  0.1887 -0.0172
30500W        W31364   3.670   8.785  14.076  0.0535 -0.0015 -0.0728
30501W        W31365   3.651   6.252  13.822  0.2830 -0.2735 -0.3625
30502W        W31366   5.851   5.738  12.307  0.0517  0.1380  0.2184
30503W        W31367  10.205   6.587  14.020  0.0527 -0.2275  0.0974
30504W        W31368   7.200   9.275  10.341 -0.2180 -0.0930 -0.0556
30505W        W31369   3.531   8.490  11.704 -0.0098  0.0913  0.1635
30506W        W31370   8.046   6.616  14.098  0.0685  0.2102 -0.1559
30507W        W31371   3.511   4.211  11.884 -0.2251  0.0598  0.0258
30508W        W31372   7.371   8.495  12.628 -0.2053 -0.0679 -0.0580
30509W        W31373   4.249   6.110  15.064  0.0702 -0.2681  0.0567
30510W        W31374   4.083   4.970  11.348 -0.0835 -0.0674 -0.0247
30511W        W31375   3.551   8.203  16.069 -0.1652  0.0181 -0.1723
30512W        W31376   6.181   5.930  11.595 -0.2078  0.1776 -0.3465
30513W        W31377   6.626   7.186  10.896 -0.1574  0.2265 -0.0037
30514W        W31378   2.122   8.040  12.878  0.0518  0.2891  0.0939
30515W        W31379   5.053   6.733  15.413  0.1033 -0.1084  0.0001
30516W        W31380   5.524   2.634  11.927  0.2327 -0.1285  0.2499
30517W        W31381   4.163   5.665   9.856 -0.0389  0.3701 -0.0019
30518W        W31382   5.910   5.066  13.114  0.2579 -0.3075 -0.4372
30519W        W31383   3.853   7.037  11.436  0.1116  0.0900 -0.4755
30520W        W31384   3.529   7.010  12.107 -0.1968  0.0818  0.0978
30521W        W31385   7.767   7.797  11.347  0.2862 -0.0661  0.1470
30522W        W31386   4.356   6.661  10.545  0.4824  0.0737 -0.2336
30523W        W31387   5.743   7.560  11.065 -0.1492 -0.1099 -0.1781
30524W        W31388   2.987   5.298  10.351 -0.1784  0.2708  0.0874
30525W        W31389   1.599   7.226  14.985 -0.1629 -0.0957 -0.0593
30526W        W31390   4.719   4.103   9.707  0.0052 -0.1451 -0.1256
30527W        W31391   5.972   6.378  11.389 -0.0666  0.0162  0.1616
30528W        W31392   3.725   4.238   8.901 -0.3651  0.0717 -0.0181
30529W        W31393   1.181   4.512  10.928  0.0877  0.1918  0.1779
30530W        W31394   3.192   3.715  16.211  0.0093  0.4973 -0.0191
30531W        W31395   5.749   5.609  11.756  0.0784  0.1860 -0.3928
30532W        W31396   8.252   8.938  12.564  0.0147 -0.3947 -0.1585
30533W        W31397   6.102   8.219  15.486 -0.2635  0.2033 -0.3353
30534W        W31398   8.958   7.472  12.051  0.2275 -0.0320  0.0312
30535W        W31399   4.869   7.508  14.339  0.0847  0.3319 -0.1498
30536W        W31400   2.811   9.480  12.692 -0.1428 -0.0591  0.3045
30537W        W31401   5.934   7.933  13.271  0.1127 -0.1153 -0.1878
30538W        W31402   5.405   4.266  13.172 -0.4326 -0.2243 -0.0637
30539W        W31403   5.770   2.159  11.937  0.1632  0.2932 -0.0095
30540W        W31404   2.996   7.989   9.934 -0.0550  0.1185 -0.2042
30541W        W31405   5.802   6.734  13.743 -0.4909 -0.0137 -0.1315
30542W        W31406   2.179   4.499  14.217 -0.1445 -0.0284 -0.2517
30543W        W31407   2.088   9.147  12.084 -0.1074  0.0544  0.0844
30544W        W31408   5.364   3.266  11.111 -0.0639 -0.2220  0.0648
30545W        W31409   4.294   8.856  16.174 -0.1467 -0.1321  0.1103
30546W        W31410   4.819   4.881  10.177 -0.0590 -0.0657  0.0111
30547W        W31411   3.002   7.149  11.534 -0.2616  0.3170 -0.0399
30548W        W31412   5.426   7.238  11.346  0.1998  0.3585 -0.0536
30549W        W31413   2.714   3.547  10.036 -0.1276  0.0896 -0.0234
30550W        W31414   6.509   4.944  15.413  0.1321 -0.0898 -0.2278
30551W        W31415   6.261   4.830  12.793 -0.4966 -0.0310  0.0765
30552W        W31416   5.667   7.161  13.602  0.0760  0.0980  0.1179
30553W        W31417   5.436   7.359  11.992 -0.0409 -0.1111 -0.0449
30554W        W31418   5.178   6.860  11.109  0.1852 -0.2449 -0.4704
30555W        W31419   5.552   5.231  10.800 -0.0752 -0.1273  0.0808
30556W        W31420   5.503   7.688  13.264 -0.0881 -0.0743 -0.0592
30557W        W31421   3.666   3.795  13.989  0.1197 -0.0853  0.1205
30558W        W31422   1.047   6.184  14.884  0.4355  0.1181 -0.0074
30559W        W31423   1.714   5.580  11.541  0.1081  0.0020 -0.4340
30560W        W31424   3.861   6.556  11.176 -0.3272 -0.2782 -0.0615
30561W        W31425   4.728   7.033  12.865 -0.1385 -0.2902 -0.0016
30562W        W31426   5.032   7.733   9.265 -0.0856  0.5929 -0.3331
30563W        W31427   7.370   2.676  12.300 -0.0809  0.0165  0.0927
30564W        W31428   3.148   8.099  11.435  0.1377 -0.0383 -0.2870
30565W        W31429   5.984   7.507  11.578  0.0756  0.0032  0.1874
30566W        W31430   2.131   7.621  10.896 -0.0605 -0.1317 -0.0189
30567W        W31431   5.429   5.817   8.652  0.1411  0.0649 -0.3306
30568W        W31432   4.409   3.397  12.203  0.1047  0.1744 -0.0404
30569W        W31433   6.799   5.014  12.286  0.0697 -0.0389  0.1006
30570W        W31434   3.763   5.580  12.095  0.1079 -0.1411  0.1906
30571W        W31435   6.347   5.624  11.114  0.0218 -0.0619 -0.0297
30572W        W31436   3.575   7.334  10.537 -0.1209 -0.0471 -0.1429
30573W        W31437   5.693   7.546  12.810 -0.3124  0.4019 -0.0502
30574W        W31438   5.189   6.422  11.351 -0.1601  0.3152 -0.0776
30575W        W31439   3.296   4.421  14.641 -0.1309 -0.1358 -0.3806
30576W        W31440   5.711   6.460  12.446 -0.1475 -0.0354 -0.0892
30577W        W31441  10.179   8.003  14.037 -0.0500 -0.0382 -0.0804
30578W        W31442   4.984   3.111  12.976 -0.0445  0.1252  0.2056
30579W        W31443   3.376   7.227  12.881 -0.1726 -0.2969 -0.0136
30580W        W31444   7.595   5.696  12.141 -0.2610 -0.2011 -0.2364
30581W        W31445   1.299   9.153  11.451 -0.2235 -0.1155  0.2664
30582W        W31446   3.127   6.390  13.993  0.0002 -0.1385 -0.2498
30583W        W31447   6.659   7.728  12.537  0.0130 -0.3364 -0.1846
30584W        W31448   6.582   6.468  14.373  0.1231 -0.1385  0.2802
30585W        W31449   4.435   4.643  13.202 -0.0790  0.0334  0.0340
30586W        W31450   3.977   9.370  10.524 -0.0075  0.2692 -0.2759
30587W        W31451   5.573   8.437  14.947 -0.0996  0.3164 -0.0928
30588W        W31452   6.681   7.343  11.418  0.2817 -0.1686  0.1899
30589W        W31453   4.324   4.597  15.098  0.1435  0.1095  0.0228
30590W        W31454   4.980   5.944  13.217  0.2276 -0.1628 -0.0245
30591W        W31455   4.599   6.257  13.942 -0.4019 -0.3216 -0.1302
30592W        W31456   4.242   6.556   9.734 -0.1371  0.0134  0.1595
30593W        W31457   6.692   6.853  12.148 -0.3122  0.0684 -0.0410
30594W        W31458   3.170   5.346  11.296  0.0969  0.0356 -0.1632
30595W        W31459   7.878   4.760  13.863 -0.1272  0.1042  0.2657
30596W        W31460   8.556   5.721  11.184 -0.2851 -0.1321 -0.0121
30597W        W31461   5.680   5.982  12.747  0.0154  0.0685  0.1605
30598W        W31462   3.365   5.657  12.951 -0.0823 -0.1882 -0.1375
30599W        W31463   4.051   3.120  10.609  0.1786  0.1155  0.1915
30600W        W31464   4.367   5.856  19.036  0.2922 -0.2891 -0.1072
30601W        W31465   3.767   5.594  16.065  0.2070  0.0396 -0.1229
30602W        W31466   7.526   6.437  13.950  0.0548  0.2022  0.1631
30603W        W31467   5.911   9.405  16.049  0.2160 -0.0835 -0.2746
30604W        W31468   5.986   5.998  14.064  0.1909 -0.2354 -0.1609
30605W        W31469   3.518   6.042  16.158  0.1397  0.2869  0.2839
30606W        W31470   4.170   1.824  16.657 -0.2554  0.1900 -0.2149
30607W        W31471   4.716   4.912  15.420 -0.2204  0.2338  0.0870
30608W        W31472   8.602   7.991  16.462 -0.0463  0.0317 -0.1831
30609W        W31473   4.326   8.118  19.561  0.1428 -0.1896 -0.1465
30610W        W31474   3.914   2.052  18.937  0.1835 -0.0651  0.0791
30611W        W31475   5.378   4.691  16.132  0.0226  0.0927  0.0360
30612W        W31476   3.726   4.969  15.269 -0.2680  0.2047  0.0596
30613W        W31477   6.668   3.494  19.917  0.2634 -0.4402  0.1018
30614W        W31478   3.964   4.613  18.178 -0.0214 -0.2264 -0.2025
30615W        W31479   5.292   8.000  19.878 -0.1654  0.0455 -0.0874
30616W        W31480   7.185   4.395  14.666 -0.0172 -0.0298 -0.2924
30617W        W31481   3.007   4.251  17.900 -0.1172  0.1825  0.0147
30618W        W31482   4.274   5.418  19.320  0.3736 -0.1087 -0.1710
30619W        W31483   6.214   3.028  16.396 -0.2979  0.2539 -0.3540
30620W        W31484   7.732   2.955  15.038  0.3200  0.0531 -0.0991
30621W        W31485   4.317   5.725  16.801  0.2334 -0.1383  0.2780
30622W        W31486   4.329   5.246  16.859  0.3030  0.3416  0.1619
30623W        W31487   6.421   5.399  18.130  0.0282  0.4976 -0.1126
30624W        W31488   2.300   5.055  14.484 -0.2192  0.0363 -0.4998
30625W        W31489   2.357   5.704  18.967  0.1686 -0.1759  0.0365
30626W        W31490   9.279   4.659  17.761 -0.0475 -0.0792 -0.0398
30627W        W31491   3.196   5.593  18.280 -0.2117  0.1939  0.1736
30628W        W31492   5.441   5.953  16.605  0.1468 -0.1130 -0.2274
30629W        W31493   4.047   5.459  17.295  0.2359  0.0722  0.0427
30630W        W31494   4.051   3.697  17.776  0.2023  0.1962  0.0455
30631W        W31495   5.994   2.864  18.912 -0.2146  0.1570 -0.1504
30632W        W31496   6.281   5.159  18.559 -0.0575 -0.1823  0.1567
30633W        W31497   5.411   6.326  17.730 -0.0718 -0.0747 -0.0220
30634W        W31498   4.202   5.011  17.983  0.2970 -0.0973  0.2154
30635W        W31499   6.013   4.493  16.364 -0.3835 -0.2057  0.3033
30636W        W31500   4.590   6.079  17.746 -0.0530 -0.0663  0.0166
30637W        W31501   7.404   7.107  16.741 -0.1429 -0.0149 -0.0070
30638W        W31502   7.209   7.677  14.178 -0.2479  0.0890  0.0353
30639W        W31503   7.572   5.298  15.752  0.0059  0.3703 -0.0147
30640W        W31504   9.630   4.206  16.397 -0.0349 -0.0457  0.2259
30641W        W31505   7.163   5.442  15.360  0.0653  0.0217  0.1698
30642W        W31506   4.828   3.926  15.857  0.0686 -0.1500 -0.0102
30643W        W31507   4.999   7.859  14.738 -0.0556  0.1389  0.0937
30644W        W31508   4.427   5.386  14.589  0.1600  0.2747  0.2922
30645W        W31509   4.246   8.232  15.459 -0.0396  0.1802 -0.1517
30646W        W31510   1.704   3.831  16.419  0.0290  0.2805  0.2431
30647W        W31511   6.040   5.239  19.043 -0.0027 -0.3344  0.1272
30648W        W31512   4.264   3.393  14.744  0.0905  0.0352  0.2877
30649W        W31513   6.449   7.788  11.782 -0.0347 -0.0778  0.1273
30650W        W31514   8.927   5.296  16.157  0.0934 -0.0045 -0.0675
30651W        W31515   5.328   3.211  14.746 -0.0401 -0.2292  0.3219
30652W        W31516   4.004   6.451  16.335 -0.0742 -0.2908 -0.1475
30653W        W31517   5.825   4.959  14.476  0.1314 -0.0117 -0.0827
30654W        W31518   2.990   6.012  16.097  0.0677 -0.0295 -0.0454
30655W        W31519   4.206   6.361  16.770 -0.0528  0.0510 -0.0246
30656W        W31520   5.650   4.108  15.732 -0.0908 -0.1180  0.3209
30657W        W31521   5.761   6.081  16.239  0.0331  0.0208 -0.0747
30658W        W31522   4.071   7.066  17.469  0.2078 -0.4107 -0.0443
30659W        W31523   3.805   7.039  16.077  0.1981 -0.0653 -0.2936
30660W        W31524   6.257   4.281  13.639 -0.0310 -0.2078 -0.0066
30661W        W31525   2.515   8.343  15.017 -0.1183  0.1312 -0.0249
30662W        W31526   7.323   8.317  18.431 -0.0427  0.1918  0.2623
30663W        W31527   5.024   5.782  15.020 -0.0542 -0.2695  0.1223
30664W        W31528   1.100   3.790  17.821 -0.1153 -0.3782 -0.2178
30665W        W31529   7.182   5.175  18.124  0.1970  0.2453  0.0260
30666W        W31530   1.476   5.267  16.115  0.0017  0.2461 -0.0436
30667W        W31531   3.283   6.272  17.132 -0.0978  0.3214  0.1803
30668W        W31532   3.674   4.086  16.758 -0.0799  0.1195  0.2952
30669W        W31533   4.893   5.338  15.195  0.1399 -0.2064 -0.1692
30670W        W31534   6.185   5.083  17.747 -0.0469 -0.1325  0.0405
30671W        W31535   1.442   5.938  16.020  0.2744 -0.1080 -0.0762
30672W        W31536   8.849   9.563  13.445  0.0030 -0.0524  0.1049
30673W        W31537   5.518   4.955  15.731 -0.0524  0.0284 -0.0266
30674W        W31538   4.587   4.424  12.236  0.1591 -0.0353 -0.0427
30675W        W31539   5.283   7.284  18.957  0.4311 -0.4456  0.1989
30676W        W31540   2.720   7.006  15.264 -0.0629  0.0619 -0.1681
30677W        W31541   3.549   7.313  16.909 -0.1247 -0.0736 -0.0692
30678W        W31542   5.554   3.826  15.317  0.1912 -0.1244 -0.0370
30679W        W31543   6.592   4.487  14.091  0.1382  0.0761 -0.1982
30680W        W31544   5.323   4.707  19.092 -0.1956 -0.1301  0.0869
30681W        W31545   2.524   4.761  16.856 -0.0190  0.0494 -0.3607
30682W        W31546   2.457   4.576  18.732 -0.0219  0.1700 -0.2016
30683W        W31547   4.234   5.137  14.958  0.1385 -0.2577  0.2074
30684W        W31548   7.010   2.913  16.790 -0.0857 -0.2288 -0.2551
30685W        W31549   4.935   6.835  16.769  0.2066  0.1123 -0.0129
30686W        W31550   5.805   6.926  18.448  0.0939  0.0499  0.1115
30687W        W31551   6.421   5.585  17.670 -0.0228 -0.3374  0.1253
30688W        W31552   6.587   8.425  18.243  0.0268  0.0240 -0.1948
30689W        W31553   3.408   3.594  17.397 -0.3103  0.0434  0.1462
30690W        W31554   8.830   5.016  13.133 -0.3094  0.1548 -0.0054
30691W        W31555   8.212   5.427  15.847  0.1589 -0.0733  0.4027
30692W        W31556   3.725   3.245  17.926  0.1553  0.2904 -0.1346
30693W        W31557   6.585   5.679  16.633  0.2598  0.3803 -0.1238
30694W        W31558   4.936   5.086  18.491  0.3199  0.1291  0.2668
30695W        W31559   8.266   5.404  13.758 -0.0196 -0.2423  0.0290
30696W        W31560   8.668   3.248  13.231 -0.4171 -0.0479  0.2982
30697W        W31561   4.699   8.429  17.703 -0.2297  0.1819 -0.2437
30698W        W31562   2.869   2.123  17.192  0.5369 -0.0471  0.3033
30699W        W31563   5.451   7.316  14.103  0.1034 -0.1511  0.2150
30700W        W31564   8.682   4.892  12.710 -0.0760  0.2235  0.1413
30701W        W31565   2.365   5.767  18.173 -0.0951 -0.0410 -0.4289
30702W        W31566   3.153   4.660  16.467  0.3007  0.1547 -0.3128
30703W        W31567   7.005   5.113  16.218  0.2685 -0.2058  0.0254
30704W        W31568   5.924   0.370  17.668 -0.1186 -0.0560 -0.3086
30705W        W31569   6.713   6.432  16.210 -0.0170  0.2687  0.1687
30706W        W31570   4.812   8.095  17.270  0.1321  0.2198  0.1538
30707W        W31571   5.645   5.002  18.700  0.1452  0.0003 -0.1440
30708W        W31572   6.313   5.999  16.205  0.0018  0.1094 -0.1240
30709W        W31573   2.207   3.923  16.367  0.3090 -0.0922 -0.0580
30710W        W31574   4.948   3.553  16.413  0.2334  0.0933  0.0837
30711W        W31575   4.739   6.400  16.901  0.1784 -0.3298 -0.1386
30712W        W31576  10.036   7.931  17.225 -0.0724  0.1530  0.1222
30713W        W31577   7.088   7.399  14.624 -0.0229  0.0654  0.1913
30714W        W31578   4.804   5.495  12.915  0.0053 -0.1028 -0.0297
30715W        W31579   4.598   7.019  17.741 -0.0240  0.1240 -0.3742
30716W        W31580   8.265   4.653  16.158 -0.0652  0.1027  0.2566
30717W        W31581   3.025   3.329  17.187 -0.1362 -0.2473  0.1277
30718W        W31582   6.250   5.892  15.324  0.2327  0.0992  0.1212
30719W        W31583   8.347   7.633  14.961  0.1970  0.0585  0.1470
30720W        W31584   4.169   4.593  16.083  0.0837  0.1637  0.2451
30721W        W31585   6.070   6.846  15.108 -0.0470  0.1354  0.0203
30722W        W31586   5.764   5.608  16.337  0.3063  0.3825 -0.0350
30723W        W31587   7.194   7.162  14.172  0.0334 -0.0948  0.0621
30724W        W31588   6.042   4.002  15.286  0.2937 -0.2152 -0.0339
30725W        W31589   6.386   6.039  17.557 -0.0951 -0.0397  0.2878
30726W        W31590   5.001   3.383  16.977  0.2571 -0.1542  0.0655
30727W        W31591   8.042   3.900  15.013 -0.1035  0.0202 -0.1679
30728W        W31592   6.875   9.627  17.447 -0.0282  0.3489 -0.3188
30729W        W31593   5.902   6.666  14.656 -0.0173  0.2556 -0.2196
30730W        W31594   8.204   9.466  14.357 -0.4411 -0.1165  0.0124
30731W        W31595   6.556   5.025  17.285 -0.0904  0.2694 -0.0009
30732W        W31596   3.240   8.559  18.167 -0.2146  0.1333  0.0306
30733W        W31597   5.157   4.092  15.444 -0.0079 -0.1627  0.0525
30734W        W31598   7.010   3.714  17.674 -0.5324  0.2349  0.1147
30735W        W31599   3.080   5.761  17.367 -0.0706  0.2831 -0.0874
30736W        W31600   2.658   3.807  16.157 -0.0222  0.2603 -0.0217
30737W        W31601   8.599   4.078  15.279 -0.3953 -0.0469  0.2934
30738W        W31602   6.661   5.397  15.169  0.2487  0.0555 -0.1215
30739W        W31603   3.072   6.229  14.772  0.0284  0.0469 -0.1396
30740W        W31604   3.672   6.510  15.984  0.2507 -0.1002 -0.1651
30741W        W31605   5.402   3.474  18.973  0.1498 -0.0481  0.0221
30742W        W31606   4.924   8.075  16.499  0.1048  0.0706  0.0114
30743W        W31607   6.280   5.204  14.511  0.0654 -0.2650 -0.1076
30744W        W31608   2.504   5.211  16.959 -0.1096  0.0574 -0.1035
30745W        W31609   5.301   3.694  17.133 -0.1915  0.2312 -0.1148
30746W        W31610   4.640   5.289  17.203 -0.0223 -0.0026  0.0802
30747W        W31611   7.869   3.553  17.752 -0.1218 -0.0275  0.3138
30748W        W31612   5.102   7.774  16.922  0.1634 -0.2039 -0.3087
30749W        W31613   4.332   5.996  16.354 -0.0400  0.0988 -0.0324
30750W        W31614   6.594   5.376  18.954  0.0308  0.0974 -0.0605
30751W        W31615   5.806   2.940  15.497 -0.0778  0.1168  0.0447
30752W        W31616   6.232   7.698  15.240  0.0572 -0.0408  0.1787
30753W        W31617   4.006   4.709  12.922 -0.0340  0.0733  0.1264
30754W        W31618   4.851   4.837  17.941 -0.0917 -0.0731  0.0563
30755W        W31619   4.148   1.327  13.774 -0.0806  0.1985 -0.0686
30756W        W31620   2.738   5.184  19.515  0.0974  0.2868  0.1577
30757W        W31621   4.996   4.524  15.108 -0.2425 -0.1322 -0.0370
30758W        W31622   5.040   2.509  16.474 -0.3808 -0.0925 -0.1570
30759W        W31623   5.345   4.934  15.179 -0.2634 -0.0284  0.2221
30760W        W31624   6.517   2.112  17.964  0.0231 -0.0307  0.1394
30761W        W31625   4.911   6.083  16.014  0.1714  0.2004  0.0093
30762W        W31626   6.136   6.079  20.246  0.3452 -0.2095  0.1735
30763W        W31627   6.805   5.229  18.418 -0.1661 -0.0290 -0.1273
30764W        W31628   3.545   4.880  17.958 -0.0684  0.1802  0.2214
30765W        W31629   4.389   2.951  18.502 -0.2439 -0.3831  0.0951
30766W        W31630   2.180   4.464  16.375 -0.0760  0.0784 -0.0496
30767W        W31631   6.717   9.060  15.529  0.0384 -0.3339  0.0704
30768W        W31632   3.196   6.371  16.492 -0.2495  0.1792 -0.2940
30769W        W31633   6.474   8.259  14.087 -0.2971 -0.1336 -0.1177
30770W        W31634   6.179   5.488  14.960  0.1739  0.0076 -0.0799
30771W        W31635   4.075   3.088  17.603  0.0370 -0.1588  0.1904
30772W        W31636   6.791   3.242  15.379  0.0533  0.0918  0.1696
30773W        W31637   5.836   8.681  15.366 -0.1828  0.1074  0.2788
30774W        W31638   6.624   6.807  16.665  0.1700 -0.1842 -0.1676
30775W        W31639   5.092   4.671  14.620 -0.1279  0.0489  0.0370
30776W        W31640   1.993   8.084  17.532  0.0823 -0.1543 -0.2472
30777W        W31641   3.730   8.269  17.199 -0.0904 -0.1620 -0.2412
30778W        W31642   2.745   8.991  14.363 -0.0242  0.2593 -0.2740
30779W        W31643   2.487   3.233  15.191 -0.1020  0.0287  0.0498
30780W        W31644   5.182   8.112  13.205 -0.2494  0.0888  0.1042
30781W        W31645   7.385   6.932  13.332  0.0235  0.0167  0.4138
30782W        W31646   5.302   5.675  14.470  0.2902 -0.0005  0.0822
30783W        W31647   5.437   4.234  15.027 -0.1392 -0.2777  0.2359
30784W        W31648   4.917   3.920  14.963  0.2698  0.3566  0.1830
30785W        W31649   5.852   7.647  18.847  0.0736 -0.3733  0.0859
30786W        W31650   7.728   4.469  13.268 -0.1979 -0.3444  0.1155
30787W        W31651   5.395   2.240  13.650  0.0059 -0.0324 -0.1294
30788W        W31652   5.641   6.286  14.855 -0.1735  0.0492 -0.0417
30789W        W31653   5.867   6.706  17.028  0.1324  0.1422  0.2916
30790W        W31654   3.510   4.891  16.202  0.3026  0.0544  0.2221
30791W        W31655   6.165   7.440  17.558 -0.2201  0.4155 -0.2183
30792W        W31656   4.753   5.792  17.035  0.0512  0.1348  0.2226
30793W        W31657   5.997   1.537  15.515  0.3105  0.0569  0.1327
30794W        W31658   5.706   5.638  16.965  0.0680  0.3905 -0.1735
30795W        W31659   2.898   1.905  17.598 -0.4732 -0.1110 -0.3662
30796W        W31660   4.196   4.970  15.460 -0.1018  0.1073  0.0624
30797W        W31661   2.049   5.006  17.093  0.2722 -0.0479 -0.0510
30798W        W31662   3.971   5.872  15.502  0.0508  0.0205 -0.2739
30799W        W31663   6.765   1.457  17.243  0.1556 -0.3463 -0.2048
30800W        W31664   2.930   5.780  14.569 -0.1094  0.1004  0.1628
30801W        W31665   7.757   2.520  14.732  0.3630 -0.2710 -0.0237
30802W        W31666   7.063   7.941  14.668 -0.2582 -0.1900  0.0650
30803W        W31667   2.223   5.075  16.561  0.1095 -0.0134 -0.1494
30804W        W31668   4.517   3.669  17.294  0.1297  0.0149 -0.3164
30805W        W31669   2.219   6.313  15.514  0.0006 -0.4094 -0.2865
30806W        W31670   4.236   6.023  18.106 -0.0380  0.0816  0.1529
30807W        W31671   5.281   5.482  16.598  0.4518  0.4309  0.0206
30808W        W31672   4.607   9.229  13.890 -0.2441  0.1601  0.0617
30809W        W31673   2.807   6.010  14.128 -0.0204  0.0162 -0.2985
30810W        W31674   5.746   6.114  18.097  0.3112 -0.0754  0.2558
30811W        W31675   3.922   4.600  17.662 -0.0432 -0.2149  0.2329
30812W        W31676   2.823   6.042  17.027 -0.0804 -0.0092 -0.0442
30813W        W31677   3.790   5.130  17.555 -0.1945  0.1131 -0.0225
30814W        W31678  10.261   5.393  16.360 -0.3938  0.1244  0.4392
30815W        W31679   4.515   6.852  13.766  0.3180 -0.2454  0.1070
30816W        W31680   6.759   6.922  14.286  0.1647 -0.1612 -0.0877
30817W        W31681   7.202   6.088  13.792  0.3102 -0.4170  0.2626
30818W        W31682   5.033   5.291  18.011 -0.2191  0.1305  0.0614
30819W        W31683   2.091   6.976  18.533 -0.2838  0.0840  0.1103
30820W        W31684   6.767   3.948  17.228  0.0110 -0.2557  0.0121
30821W        W31685   7.205   2.352  17.463  0.1059 -0.0878  0.0635
30822W        W31686   6.434   7.431  19.580 -0.0736 -0.0555  0.1014
30823W        W31687   4.646   1.212  15.794  0.0305  0.0155  0.1716
30824W        W31688   6.244   5.635  16.988  0.0518  0.0624 -0.3379
30825W        W31689   5.388   4.950  18.264  0.2596 -0.1763  0.0191
30826W        W31690   4.384   6.672  19.363 -0.0332  0.0711 -0.1077
30827W        W31691   2.758   4.290  16.413  0.1119  0.1700 -0.0371
30828W        W31692   7.371   6.287  13.392 -0.0796 -0.1400  0.2344
30829W        W31693   6.746   4.664  16.244 -0.1023  0.0934 -0.2697
30830W        W31694   2.956   4.581  16.981  0.1157  0.2060  0.1707
30831W        W31695   4.767   3.452  19.134  0.1882  0.0526  0.1691
30832W        W31696   3.937   8.380  15.836 -0.2062  0.0420 -0.0953
30833W        W31697   6.866   5.830  15.457  0.0678 -0.1464 -0.0004
30834W        W31698   2.574   2.971  16.390 -0.1108 -0.0960 -0.3086
30835W        W31699   5.206   6.978  14.859  0.1188  0.1765  0.0224
30836W        W31700   6.147   7.258  14.780  0.0169 -0.0388  0.1678
30837W        W31701   6.638   2.897  18.101 -0.0614  0.1746  0.0412
30838W        W31702   5.313   7.448  14.604 -0.0076 -0.1420  0.1483
30839W        W31703   8.647   9.407  16.929 -0.1094  0.1409 -0.0258
30840W        W31704   5.715   6.418  16.614  0.1736 -0.4386 -0.0874
30841W        W31705   4.990   7.110  15.743  0.2145 -0.0170 -0.1206
30842W        W31706   2.792   6.615  16.195 -0.2611 -0.0094 -0.3529
30843W        W31707   3.111   6.216  17.698  0.2784 -0.0619 -0.2306
30844W        W31708   7.472   4.486  17.687 -0.2260  0.0652  0.0601
30845W        W31709   4.937   4.939  13.088  0.1816 -0.0053 -0.2264
30846W        W31710   8.635   5.466  15.119  0.2043 -0.2050  0.1440
30847W        W31711   6.031   5.920  16.618  0.0334 -0.0991  0.2316
30848W        W31712   5.509   5.695  14.909  0.2574  0.1559 -0.0412
30849W        W31713   5.503   2.684  15.140 -0.1212  0.0347 -0.0557
30850W        W31714   3.932   8.948  12.283 -0.0689 -0.0674 -0.2299
30851W        W31715   4.903   7.386  17.760 -0.2163 -0.0508 -0.3348
30852W        W31716   6.363   4.062  18.670 -0.0396 -0.3140 -0.0363
30853W        W31717   7.643   3.947  13.817  0.1607 -0.1592  0.2933
30854W        W31718   5.997   5.933  14.921 -0.0740  0.0524  0.2256
30855W        W31719   4.302   8.528  14.527  0.3696 -0.3893  0.1969
30856W        W31720   5.101   5.953  13.740  0.0865 -0.2398  0.0377
30857W        W31721   4.960   6.417  16.399 -0.1892  0.0616 -0.4897
30858W        W31722   8.451   7.056  17.735 -0.0065 -0.0443 -0.1537
30859W        W31723   7.035   6.212  14.391  0.0277  0.2423  0.0402
30860W        W31724   4.501   4.572  17.727 -0.0504  0.1767 -0.2928
30861W        W31725   2.777   4.937  18.450  0.0931  0.2312 -0.1973
30862W        W31726   6.826   8.336  19.608  0.3147  0.4551  0.0174
30863W        W31727   5.819   3.455  18.062 -0.2360 -0.0604  0.0289
30864W        W31728   2.820   5.749  18.501  0.1782  0.1204 -0.2737
30865W        W31729   3.295   3.744  16.926  0.0937  0.0089 -0.4865
30866W        W31730   3.638   6.759  16.450  0.0199  0.2155 -0.0297
30867W        W31731   5.213   4.754  16.979 -0.3567 -0.0649  0.1726
30868W        W31732   4.715   5.446  16.637 -0.0796  0.0921 -0.4018
30869W        W31733   7.109   5.657  14.130 -0.2919  0.0325  0.1712
30870W        W31734   4.839   4.462  16.940  0.0516 -0.0772  0.1908
30871W        W31735   5.000   6.108  17.466 -0.1232  0.0425 -0.0108
30872W        W31736   5.123   5.298  17.060  0.1229  0.3193  0.1796
30873W        W31737   5.239   5.781  17.103  0.2829  0.2997 -0.1166
30874W        W31738   6.926   7.242  16.481  0.1326 -0.2164 -0.2574
30875W        W31739   7.092   4.189  15.528  0.0440  0.1384  0.1804
30876W        W31740   5.303   5.438  18.778 -0.0933  0.0473  0.4811
30877W        W31741   2.476   2.838  17.595  0.0757  0.0695 -0.2454
30878W        W31742   4.685   5.629  16.173  0.0188 -0.1516 -0.0937
30879W        W31743   6.377   4.674  15.836  0.2306 -0.1738 -0.2473
30880W        W31744   6.982   4.230  16.862 -0.2986  0.2161  0.0880
30881W        W31745   3.938   4.449  17.132 -0.0903  0.1117  0.1462
30882W        W31746   4.481   5.984  15.840  0.0332 -0.0757  0.0886
30883W        W31747   2.411   8.063  17.790 -0.2229  0.2331  0.2614
30884W        W31748   6.287   5.459  13.017 -0.2934 -0.2790  0.0788
30885W        W31749   7.786   6.079  19.515  0.0290 -0.0080  0.0500
30886W        W31750   7.911   8.317  17.202  0.0562  0.0668 -0.0029
30887W        W31751   5.336   6.796  18.690 -0.1905  0.1555  0.1406
30888W        W31752   4.201   5.491  13.548  0.0499 -0.1365  0.0892
30889W        W31753   2.863   3.809  16.605 -0.0431 -0.0367 -0.0852
30890W        W31754   4.058   7.219  13.755  0.2092 -0.1020  0.1133
30891W        W31755   3.203   4.775  15.498  0.0231  0.0576 -0.0975
30892W        W31756   6.142   6.333  13.683 -0.0403  0.4641 -0.1123
30893W        W31757   1.010   5.083  14.582  0.1817 -0.0093 -0.1597
30894W        W31758   6.670   6.175  15.218 -0.0997 -0.1002  0.1825
30895W        W31759   4.475   5.208  14.001 -0.0254 -0.0570 -0.2001
30896W        W31760   3.362   5.240  14.616  0.3075 -0.0917 -0.0214
30897W        W31761   4.763   7.258  14.762  0.0752  0.1976  0.0507
30898W        W31762   6.206   3.295  17.138  0.0936  0.2649  0.2299
30899W        W31763   7.214   6.248  15.200  0.1916 -0.3156 -0.0240
30900W        W31764   5.604   5.694  13.965  0.0326  0.0865  0.2892
30901W        W31765   3.822   5.436  16.798 -0.0859  0.1233 -0.0991
30902W        W31766   5.549   3.002  18.911 -0.2927 -0.1027 -0.0696
30903W        W31767   8.082   5.551  13.239  0.0661  0.1616  0.2919
30904W        W31768   5.799   5.737  15.380 -0.2023  0.1906  0.2253
30905W        W31769   4.884   5.945  14.259 -0.1926 -0.0279 -0.2469
30906W        W31770   8.230   6.066  20.014  0.2504  0.0372  0.1310
30907W        W31771   2.986   4.668  16.002 -0.0269  0.1421  0.1743
30908W        W31772   2.973   4.728  17.965 -0.1624  0.1712  0.1383
30909W        W31773   2.934   5.153  16.577  0.1814  0.0110  0.2343
30910W        W31774   6.900   2.506  14.741  0.0011  0.3152 -0.0838
30911W        W31775   3.463   6.033  18.479  0.0099 -0.0297 -0.2450
30912W        W31776   4.570   3.086  16.759  0.0765  0.0398  0.1251
30913W        W31777   7.941   7.143  16.296 -0.2697 -0.0464 -0.2063
30914W        W31778   7.139   8.762  15.558  0.0740 -0.0667  0.2161
30915W        W31779   7.266   7.320  19.912  0.2394 -0.1471 -0.0093
30916W        W31780   2.400   4.192  15.940  0.3770 -0.1434 -0.1200
30917W        W31781   4.116   5.543  17.805  0.0998  0.0321  0.1304
30918W        W31782   5.260   6.177  18.498  0.1750  0.2786  0.2685
30919W        W31783   5.746   5.441  14.460 -0.2101  0.2992  0.3533
30920W        W31784   2.961   7.569  18.191 -0.1372 -0.3272 -0.0285
30921W        W31785   5.725   7.904  16.388 -0.2375 -0.0447  0.1266
30922W        W31786   3.414   7.233  16.412  0.1280  0.0517  0.4329
30923W        W31787   5.378   6.367  16.139  0.0952 -0.0072  0.0993
30924W        W31788   3.953   8.820  15.585  0.2425  0.0362  0.1211
30925W        W31789   5.454   5.224  16.169 -0.0010 -0.0081  0.0325
30926W        W31790   5.066   3.041  16.576  0.1726  0.0387  0.0608
30927W        W31791   3.752   7.662  14.579 -0.0674  0.0423 -0.1115
30928W        W31792   4.765   4.913  14.376 -0.1248  0.1676 -0.0126
30929W        W31793   1.134   4.924  15.926 -0.1162  0.2089  0.2951
30930W        W31794   4.034   2.790  15.658  0.2479 -0.1288 -0.1801
30931W        W31795   6.666   3.728  14.668  0.0995 -0.0600 -0.0957
30932W        W31796   6.480   6.620  17.094  0.0990 -0.2929  0.0357
30933W        W31797   5.690   7.772  15.473  0.2228  0.0028 -0.1803
30934W        W31798   7.000   3.707  15.319  0.0063 -0.1674 -0.3913
30935W        W31799   6.323   4.827  18.921  0.0056  0.1526 -0.1181
30936W        W31800   7.181   6.185  16.366 -0.1221 -0.2273  0.0114
30937W        W31801   5.179   6.413  15.034  0.1691 -0.0698  0.3627
30938W        W31802   7.120   4.258  17.405  0.0647  0.0579 -0.0674
30939W        W31803   6.318   4.443  15.301  0.1325  0.0226  0.1739
30940W        W31804   4.656   5.931  15.365  0.0641 -0.3754  0.0215
30941W        W31805   7.481   2.138  16.705 -0.1013  0.0904  0.3843
30942W        W31806   5.771   3.306  16.273  0.0231  0.0792  0.0971
30943W        W31807   4.900   9.920  16.250  0.2533  0.0159  0.1851
30944W        W31808   7.031   5.576  16.445 -0.1764  0.0388 -0.4135
30945W        W31809   5.788   5.419  18.373 -0.0384 -0.1156  0.0675
30946W        W31810   5.281   7.769  16.457 -0.2773  0.0329 -0.2759
30947W        W31811   4.977   5.126  19.167  0.2963 -0.0654 -0.0760
30948W        W31812   6.801   7.777  15.089 -0.0150 -0.2638  0.2312
30949W        W31813   2.459   4.463  17.263 -0.2949 -0.0951  0.1439
30950W        W31814   7.483   5.235  17.210 -0.1697  0.0283  0.0442
30951W        W31815   2.992   5.446  15.581  0.0775  0.0258  0.0403
30952W        W31816   5.388   6.637  14.557 -0.0148  0.2370 -0.1712
30953W        W31817   5.382   7.745  18.743 -0.2023 -0.0169 -0.1500
30954W        W31818   5.351   5.609  18.186 -0.3284 -0.0002  0.0820
30955W        W31819   4.743   4.645  13.628  0.0829  0.0890 -0.2888
30956W        W31820   3.647   8.230  13.978  0.4193  0.1066 -0.2095
30957W        W31821   2.494   0.839  17.366  0.0557 -0.1847 -0.1258
30958W        W31822   5.021   4.304  17.933 -0.0440  0.1246  0.0561
30959W        W31823   1.319   4.311  16.084  0.2184  0.0300  0.2381
30960W        W31824   0.135   5.629  15.857  0.0840 -0.1493  0.0944
30961W        W31825   6.178   4.149  15.771  0.0001  0.0952 -0.0417
30962W        W31826   4.511   5.288  18.278 -0.0815  0.2699  0.0673
30963W        W31827   4.593   3.200  16.294 -0.1125  0.0660  0.0174
30964W        W31828   4.689   5.816  14.683 -0.2444  0.0129  0.1347
30965W        W31829   5.991   5.323  16.656 -0.2656 -0.0337  0.1552
30966W        W31830   6.507   7.109  15.064 -0.4567  0.5356 -0.4111
30967W        W31831   4.628   5.428  15.603 -0.0357 -0.3588  0.0097
30968W        W31832   8.085   2.565  15.119 -0.2717  0.1800 -0.2633
30969W        W31833   7.318   5.276  14.867  0.2227 -0.2038 -0.0367
30970W        W31834   4.486   5.717  14.111 -0.0762 -0.1687  0.2689
30971W        W31835   9.282   5.337  15.735  0.1267  0.2181 -0.1105
30972W        W31836   5.932   5.780  17.432  0.2231 -0.0693 -0.1918
30973W        W31837   7.433   7.747  17.561 -0.2330  0.1892  0.0845
30974W        W31838   4.870   4.398  13.236 -0.0047 -0.4032  0.0247
30975W        W31839   5.631   4.301  19.211 -0.0366  0.1297 -0.0715
30976W        W31840   4.844   4.016  16.466  0.0064  0.1122 -0.2129
30977W        W31841   5.654   7.677  19.749  0.0988  0.0583  0.0328
30978W        W31842   4.384   3.868  18.230 -0.0232  0.0333 -0.4857
30979W        W31843   1.707   4.320  16.465 -0.1075 -0.3219 -0.0388
30980W        W31844   7.929   5.061  18.601  0.0782 -0.0960 -0.0779
30981W        W31845   3.259   7.701  16.729  0.1742 -0.0794 -0.0944
30982W        W31846   1.812   4.825  16.494  0.0694 -0.4923 -0.1206
30983W        W31847   3.000   6.799  17.163  0.5682  0.1779 -0.0605
30984W        W31848   8.579   6.867  18.146 -0.1620 -0.0321  0.0595
30985W        W31849   5.499   4.435  18.734 -0.0296 -0.0447 -0.2365
30986W        W31850   5.468   6.990  15.572  0.2089 -0.2740 -0.0096
30987W        W31851   5.972   6.359  17.542 -0.0777  0.0881 -0.0749
30988W        W31852   6.433   6.579  17.706  0.1910 -0.2588 -0.1009
30989W        W31853   7.448   5.291  16.297 -0.0457 -0.1350 -0.0666
30990W        W31854   5.180   8.561  19.029 -0.1526 -0.0179  0.2752
30991W        W31855   1.042   5.616  19.794  0.3344 -0.0897  0.0605
30992W        W31856   7.157   6.275  17.294 -0.0898 -0.3362 -0.0054
30993W        W31857   7.151   6.714  15.948 -0.0689  0.0202 -0.0264
30994W        W31858   7.332   4.694  18.066 -0.2754  0.1666  0.2079
30995W        W31859   6.760   4.517  15.519 -0.0099  0.1944 -0.0251
30996W        W31860   5.782   8.696  14.316 -0.1390 -0.2816  0.4607
30997W        W31861   4.154   7.821  19.171 -0.3906  0.0768  0.1215
30998W        W31862   4.525   6.392  16.149  0.0747 -0.1354  0.0215
30999W        W31863   6.160   9.189  12.867  0.2167 -0.1146  0.1421
31000W        W31864   2.570   8.770  20.511  0.1717  0.1951 -0.0758
31001W        W31865   1.945   5.503  20.065  0.3364  0.1154 -0.0683
31002W        W31866   6.536   5.926  18.150  0.4551 -0.3030 -0.0882
31003W        W31867   6.813   6.328  19.082  0.1011  0.0600 -0.0031
31004W        W31868   3.208   7.399  19.667 -0.0455 -0.2914 -0.0573
31005W        W31869   5.219   5.550  19.395 -0.2385 -0.0480 -0.0508
31006W        W31870   3.049   7.262  19.149  0.0905  0.1734 -0.0118
31007W        W31871   0.782   6.124  21.414  0.1972 -0.1078  0.1470
31008W        W31872   4.085   6.689  22.680 -0.0629 -0.5124  0.3092
31009W        W31873   2.101   4.603  20.045 -0.0849  0.3206 -0.0669
31010W        W31874   4.774   5.803  21.909 -0.2298 -0.0248 -0.0867
31011W        W31875   6.545   1.203  18.266  0.0475 -0.3331 -0.0902
31012W        W31876   5.625   2.453  18.930 -0.2976 -0.1090  0.2169
31013W        W31877   6.924   3.320  20.926 -0.4025  0.1238  0.0445
31014W        W31878   4.326   2.260  20.657 -0.0085  0.0463 -0.0011
31015W        W31879   4.117   7.633  23.814 -0.1882  0.0309 -0.2089
31016W        W31880   7.147   6.828  19.666  0.0828 -0.1155 -0.1085
31017W        W31881   3.746   6.471  19.964 -0.1964 -0.0075  0.0469
31018W        W31882   5.772   4.185  22.348 -0.1922  0.0246 -0.1641
31019W        W31883   6.844   4.659  20.756 -0.1249 -0.3175  0.5609
31020W        W31884   6.728   4.102  18.273  0.1384  0.1956 -0.2274
31021W        W31885   7.430   4.778  20.502  0.4190  0.2493  0.1047
31022W        W31886   3.316   6.572  21.385 -0.3288 -0.3738  0.0088
31023W        W31887   5.778   6.273  20.574  0.1177 -0.2870 -0.0420
31024W        W31888  28.996   8.134  19.866  0.3045 -0.1059  0.0578
31025W        W31889   2.376   6.331  20.238 -0.0865  0.1515  0.3543
31026W        W31890   6.827   6.000  21.291  0.1094 -0.3221  0.2182
31027W        W31891   4.339   7.505  21.068 -0.2872  0.2237  0.1895
31028W        W31892   5.397   5.564  21.351 -0.0522  0.1328  0.1313
31029W        W31893   2.755   7.348  19.817  0.3206  0.1068 -0.0315
31030W        W31894   5.731   5.929  18.565 -0.4674  0.2301 -0.0550
31031W        W31895   5.627   6.459  22.701 -0.0396 -0.3755  0.1755
31032W        W31896   5.263   4.536  22.613 -0.0197 -0.1441  0.0007
31033W        W31897   3.842   6.529  21.679 -0.1937  0.1482  0.1868
31034W        W31898   5.559   4.586  20.895 -0.2543  0.2902  0.3210
31035W        W31899   6.644   7.036  23.689 -0.1393 -0.1260 -0.1709
31036W        W31900   3.330   4.575  20.968  0.1356 -0.0736 -0.1021
31037W        W31901   4.720   6.495  22.149 -0.3256 -0.1365 -0.0369
31038W        W31902   5.038   6.744  21.852  0.1542  0.0186 -0.0715
31039W        W31903   7.292   6.649  17.681  0.0020 -0.3356 -0.1244
31040W        W31904   8.166   5.983  17.102 -0.2321 -0.0657 -0.1433
31041W        W31905   5.242   5.132  21.540  0.2589  0.0500 -0.3657
31042W        W31906   6.753   6.979  19.414 -0.0805 -0.0789 -0.2909
31043W        W31907   6.574   2.823  19.409 -0.0984  0.1187  0.0939
31044W        W31908   3.300   8.206  19.191  0.0787 -0.1079  0.0725
31045W        W31909   4.165   6.477  15.750  0.1447  0.0760 -0.0448
31046W        W31910   8.027   3.290  20.292 -0.0984  0.1711  0.1040
31047W        W31911   4.681   6.400  21.591  0.1503  0.0933  0.1463
31048W        W31912   6.145   4.307  19.120  0.0010  0.3210 -0.2514
31049W        W31913   7.336   4.806  18.958 -0.1086  0.1600 -0.0166
31050W        W31914   4.824   4.722  21.255  0.1278 -0.2225 -0.1149
31051W        W31915   7.174   3.829  18.654 -0.0197 -0.0768 -0.1124
31052W        W31916   7.012  10.050  21.544 -0.1393  0.3248 -0.0027
31053W        W31917   8.751   4.820  19.652  0.0415  0.3790 -0.3041
31054W        W31918   3.661   3.027  22.093  0.1272 -0.1960  0.1856
31055W        W31919   4.516   7.039  20.889 -0.0693  0.0364 -0.1966
31056W        W31920   3.652   5.218  19.990  0.0170 -0.1440  0.3721
31057W        W31921   6.136   7.114  20.517 -0.0671 -0.1013 -0.2425
31058W        W31922   4.530   9.426  17.856  0.2742  0.0879 -0.1790
31059W        W31923   3.296   5.255  17.606 -0.5661  0.1017  0.0669
31060W        W31924   5.005   4.549  18.438 -0.1835  0.3042 -0.2133
31061W        W31925   5.133   7.780  21.094 -0.1165  0.0329  0.1851
31062W        W31926   6.496   4.272  20.684 -0.0924 -0.0311 -0.1654
31063W        W31927   6.057   6.723  18.852 -0.3194 -0.0096 -0.0208
31064W        W31928   7.336   4.487  19.725  0.0724 -0.2117 -0.2915
31065W        W31929   8.288   4.489  14.842  0.1112 -0.0963 -0.0657
31066W        W31930   3.999   4.138  17.998  0.0063 -0.0358 -0.3018
31067W        W31931   5.117   5.736  15.556  0.0943 -0.0589  0.1030
31068W        W31932   4.730   6.846  18.901  0.4353  0.0716 -0.2679
31069W        W31933   4.298   5.858  19.641  0.2922  0.2153 -0.1396
31070W        W31934   6.558   7.570  21.293 -0.1532  0.0468  0.3416
31071W        W31935   5.536   3.743  18.416 -0.1187 -0.0445  0.2174
31072W        W31936   5.953   7.493  19.398  0.1774 -0.2676 -0.3039
31073W        W31937   8.159   5.290  23.243  0.0739  0.0896  0.0323
31074W        W31938   6.113   7.013  21.057 -0.3668 -0.0219  0.0501
31075W        W31939   1.725   7.946  20.904 -0.0900  0.1513 -0.0855
31076W        W31940   4.748   5.570  19.147 -0.1344  0.2930 -0.2175
31077W        W31941   4.250   8.154  23.846  0.1776 -0.1415 -0.2721
31078W        W31942   5.688   4.969  17.446  0.0070  0.0774  0.0672
31079W        W31943   4.299   4.228  17.416  0.0244 -0.2529 -0.0430
31080W        W31944   1.314   3.566  20.043  0.1153 -0.2326 -0.0626
31081W        W31945   6.166   5.313  19.824  0.2290 -0.1713  0.0727
31082W        W31946   5.218   1.945  19.604  0.4199  0.1823 -0.0976
31083W        W31947   6.928   2.751  17.307  0.1959  0.1607  0.0619
31084W        W31948   4.791   2.148  20.714 -0.0331 -0.2465  0.0715
31085W        W31949   6.979   5.804  19.065 -0.1262 -0.1110  0.0562
31086W        W31950   6.719   6.698  19.852 -0.2352  0.0555  0.0602
31087W        W31951   6.017   4.066  20.030  0.2619  0.0784 -0.1260
31088W        W31952   6.701   7.535  21.814 -0.0755 -0.1796  0.1246
31089W        W31953   7.698   6.481  21.743 -0.4312  0.0572 -0.1684
31090W        W31954   7.673   5.161  18.181  0.2160 -0.1439  0.1839
31091W        W31955   7.341   6.071  24.985 -0.0850 -0.0746  0.1594
31092W        W31956   1.895   7.026  19.458 -0.1292  0.5020  0.1951
31093W        W31957   4.378   3.597  15.694  0.0415 -0.0044 -0.1464
31094W        W31958   2.377   4.978  21.181  0.2385  0.0725 -0.1815
31095W        W31959   7.129   5.325  19.032 -0.1272 -0.4143 -0.1005
31096W        W31960   3.769   5.875  18.027 -0.0669  0.0374 -0.2308
31097W        W31961   4.471   9.901  23.852  0.0689 -0.0704  0.3008
31098W        W31962   7.413   3.004  18.700  0.1057 -0.2867 -0.1460
31099W        W31963   8.094   5.924  15.852 -0.1692 -0.3197  0.1636
31100W        W31964   6.688   3.832  16.747  0.2299  0.1183 -0.0927
31101W        W31965   3.396   7.656  20.363 -0.0699  0.0128  0.1502
31102W        W31966   5.040   4.348  18.864  0.2025  0.2122 -0.1522
31103W        W31967   7.438   7.015  19.329 -0.1867  0.1826  0.2053
31104W        W31968   7.646   2.057  18.713  0.0402 -0.0658  0.0079
31105W        W31969   5.464   5.175  19.202  0.0758 -0.0821  0.1951
31106W        W31970   3.378   6.926  19.714  0.0114  0.0912 -0.2243
31107W        W31971   3.566   5.549  23.889 -0.0440 -0.1718 -0.3354
31108W        W31972   7.554   4.458  20.156  0.3578  0.0269 -0.2368
31109W        W31973   5.534   3.920  20.400  0.0617 -0.0984 -0.1490
31110W        W31974   4.570   2.986  22.118 -0.1181  0.2231  0.3713
31111W        W31975   5.110   8.211  20.247 -0.0591 -0.0126 -0.1506
31112W        W31976   6.462   6.753  20.735 -0.0356  0.2030  0.0601
31113W        W31977   7.313   6.337  20.945  0.1588 -0.0361 -0.0580
31114W        W31978   8.087   5.115  19.234  0.2852 -0.1681  0.0347
31115W        W31979   6.587   5.706  20.847  0.2049 -0.0853 -0.2866
31116W        W31980   8.468   3.137  18.268  0.0418 -0.1051 -0.3621
31117W        W31981   6.676   6.383  21.867  0.0886  0.0511 -0.0226
31118W        W31982   4.987   7.759  19.023  0.1060 -0.0623  0.0944
31119W        W31983   5.693   4.509  18.258  0.1864 -0.0488  0.1510
31120W        W31984   7.815   5.526  17.691  0.0148 -0.2060  0.0890
31121W        W31985   8.361   4.975  17.875 -0.1851  0.0457 -0.0546
31122W        W31986   7.144   5.458  20.915  0.0889  0.0509 -0.1740
31123W        W31987   6.493   7.099  18.405  0.1050  0.0820 -0.1218
31124W        W31988   4.246   6.263  20.872 -0.1182 -0.1428 -0.2400
31125W        W31989   8.625   4.288  19.586 -0.3910  0.3016  0.1997
31126W        W31990   1.375   5.732  20.762 -0.2891 -0.2820 -0.2805
31127W        W31991   5.006   6.787  20.183 -0.1831 -0.0972 -0.0459
31128W        W31992   7.610   6.708  20.847 -0.1386 -0.0782 -0.0605
31129W        W31993   6.423   7.331  20.890  0.0366 -0.1431  0.1347
31130W        W31994   3.736   7.907  18.905  0.1013  0.2287  0.1756
31131W        W31995   5.549   6.573  21.067 -0.0864  0.0641  0.1036
31132W        W31996   3.408   8.642  22.687 -0.0064 -0.0154  0.3131
31133W        W31997   6.046   2.096  17.712  0.0068  0.1076  0.1771
31134W        W31998   6.548   5.074  21.614 -0.1791  0.3473  0.1517
31135W        W31999   6.721   3.256  21.774 -0.0184 -0.1193 -0.3894
31136W        W32000   8.582   4.863  18.319 -0.2982  0.0827 -0.1440
31137W        W32001   6.114   7.151  19.965  0.2822 -0.1719 -0.0260
31138W        W32002   3.610   8.773  22.218  0.1172 -0.1821 -0.0823
31139W        W32003   6.168   5.737  18.903  0.0222  0.1660  0.1447
31140W        W32004   5.981   6.454  19.403  0.1834 -0.0870 -0.2404
31141W        W32005   3.629   6.037  19.615  0.0161 -0.1008 -0.1404
31142W        W32006   4.458   7.176  16.842  0.0726 -0.2500  0.0677
31143W        W32007   5.223   6.454  20.450  0.0351 -0.4209 -0.2153
31144W        W32008   7.083   6.679  19.170 -0.1341  0.1456  0.1265
31145W        W32009   5.181   6.056  21.320  0.2114 -0.2274  0.1681
31146W        W32010   5.463   5.138  21.090  0.0084  0.2285  0.1747
31147W        W32011   7.868   5.691  20.817 -0.0844  0.2177 -0.0938
31148W        W32012   4.597   8.388  21.250 -0.0137 -0.0307 -0.0629
31149W        W32013   7.681   4.300  20.744  0.2729 -0.3187 -0.1231
31150W        W32014   6.678   5.488  21.298  0.1933  0.1734  0.1162
31151W        W32015   7.413   2.019  18.290  0.0855  0.0506 -0.0241
31152W        W32016   4.500   9.790  19.835  0.0182 -0.0805 -0.1431
31153W        W32017   4.543   5.239  18.841 -0.0939 -0.3902 -0.0045
31154W        W32018   5.061   4.854  22.176 -0.3597 -0.1525  0.0091
31155W        W32019   7.827   4.068  23.835 -0.0943  0.0366 -0.1795
31156W        W32020   5.755   4.947  19.669  0.0343  0.0702 -0.1566
31157W        W32021   3.983   5.997  17.083  0.1766 -0.1072  0.0474
31158W        W32022   5.607   3.225  19.434  0.1196 -0.1107  0.3221
31159W        W32023   6.121   4.744  17.296 -0.1811  0.0311 -0.0243
31160W        W32024   6.285   3.153  20.181 -0.3290  0.3017 -0.0455
31161W        W32025   2.440   4.928  22.299  0.0027  0.0994  0.1076
31162W        W32026   7.652   2.947  21.298  0.1809  0.0406  0.1363
31163W        W32027   5.009   5.846  20.481  0.2859 -0.0522  0.1181
31164W        W32028   3.157   1.403  20.689  0.0234  0.1125  0.2340
31165W        W32029   5.327   2.717  18.064 -0.2724 -0.0808 -0.0599
31166W        W32030   6.445   2.622  20.257 -0.0427  0.2217 -0.1936
31167W        W32031   5.174   7.806  20.527  0.0614  0.0152  0.0428
31168W        W32032   4.452   4.628  19.636 -0.1598 -0.3663  0.0293
31169W        W32033   5.776   5.706  20.062 -0.0129  0.1038 -0.1082
31170W        W32034   3.843   6.317  20.487 -0.3102  0.0190  0.4679
31171W        W32035   7.699   8.806  19.573  0.0842  0.1331 -0.0520
31172W        W32036   3.913   5.813  19.272 -0.2845 -0.2096 -0.0551
31173W        W32037   9.086   5.526  18.703 -0.2277  0.2616  0.1739
31174W        W32038   7.600   1.650  16.950  0.1645 -0.1805 -0.0953
31175W        W32039   6.654   4.717  16.835 -0.0991  0.0560  0.2505
31176W        W32040   2.212   8.308  21.478 -0.0996 -0.2856 -0.1082
31177W        W32041   4.169   7.368  20.067  0.1177  0.1116 -0.0380
31178W        W32042   2.053   7.576  21.140  0.1469  0.1414  0.1040
31179W        W32043   3.254   5.981  19.304 -0.1985 -0.0272  0.5578
31180W        W32044   3.918   7.025  18.606 -0.1309 -0.2169 -0.0701
31181W        W32045   6.054   5.217  17.192  0.2026  0.0704  0.0483
31182W        W32046   5.268   3.919  18.806  0.2104  0.0374 -0.2912
31183W        W32047   8.078   4.295  18.677  0.1291  0.0492 -0.0268
31184W        W32048   4.799   3.995  18.536 -0.1167 -0.1575  0.2935
31185W        W32049   6.565   4.055  23.622  0.1377 -0.1334 -0.3269
31186W        W32050   5.118   0.717  20.176  0.0992 -0.2977 -0.2336
31187W        W32051   5.314   7.507  15.598  0.0300  0.2045  0.0654
31188W        W32052   7.061   6.717  20.666  0.1719 -0.0397  0.0041
31189W        W32053   5.479   5.111  22.001  0.1746  0.0863  0.3809
31190W        W32054   4.771   6.444  18.607 -0.0269  0.5257  0.0730
31191W        W32055   3.787   7.816  18.364  0.2447  0.1062  0.0739
31192W        W32056   4.676   2.896  23.107  0.1369 -0.0600 -0.0279
31193W        W32057   5.717   2.825  21.415 -0.2199 -0.0434 -0.1437
31194W        W32058   6.602   6.129  19.810 -0.2519 -0.3356  0.1254
31195W        W32059   4.606   5.970  20.683  0.1524 -0.0921  0.0350
31196W        W32060   3.640   3.996  21.725 -0.1385  0.0541 -0.1250
31197W        W32061   7.169   3.226  20.193 -0.1811 -0.1395 -0.1760
31198W        W32062   5.337   4.945  20.112 -0.3411  0.2338 -0.1744
31199W        W32063   7.716   4.343  18.079 -0.1312  0.0150 -0.2326
31200W        W32064   5.529   6.645  20.102 -0.5300 -0.0644  0.2377
31201W        W32065   7.766   3.946  19.281  0.2941 -0.0146  0.2051
31202W        W32066   8.862   6.843  20.229 -0.0503  0.0075  0.2584
31203W        W32067   7.233   4.669  21.560 -0.4121 -0.2590 -0.4698
31204W        W32068   6.261   4.983  19.421  0.3038  0.0079 -0.0751
31205W        W32069  28.629   5.457  18.156 -0.0267  0.0245 -0.2385
31206W        W32070   4.194   7.289  21.545 -0.0924  0.2721 -0.0207
31207W        W32071   5.673   4.361  17.738  0.1103  0.2829  0.0044
31208W        W32072   4.620   5.658  17.998 -0.1161  0.1759  0.0758
31209W        W32073   5.531   5.454  17.393  0.2752  0.0894 -0.0135
31210W        W32074   3.443   6.001  23.338 -0.0583  0.0465  0.2638
31211W        W32075   3.369   1.923  20.360  0.1930  0.0360  0.0401
31212W        W32076   6.167   5.071  21.279 -0.0146 -0.2164 -0.0028
31213W        W32077   9.775   4.035  19.241  0.0892  0.1583 -0.1415
31214W        W32078   7.308   6.172  21.405 -0.0428  0.0811 -0.2366
31215W        W32079   7.241   4.234  18.405  0.2365 -0.0218  0.2040
31216W        W32080   3.820   4.071  17.537 -0.0607 -0.0274  0.1308
31217W        W32081   3.637   5.678  17.522  0.1646 -0.1286 -0.1545
31218W        W32082   6.637   4.634  19.243  0.0751 -0.1402  0.0528
31219W        W32083   3.820   7.766  21.885  0.2011  0.1267  0.4853
31220W        W32084   5.412   2.975  21.992 -0.0303 -0.0564 -0.2410
31221W        W32085   5.361   7.070  20.462  0.2126  0.0555  0.0019
31222W        W32086   6.005   7.720  21.998  0.0118  0.1213  0.0013
31223W        W32087   7.218   4.440  15.979  0.0998  0.0998 -0.2421
31224W        W32088   4.482   6.190  17.243  0.1346  0.0874  0.0136
31225W        W32089   4.751   7.579  20.806 -0.0719 -0.2479 -0.1904
31226W        W32090   4.814   7.620  22.875 -0.2758  0.1984 -0.0916
31227W        W32091   8.019   6.562  19.760  0.0306  0.1845  0.1690
31228W        W32092   6.262   7.216  21.809 -0.2600 -0.0820 -0.1362
31229W        W32093   7.404   7.980  23.158  0.2501 -0.2880  0.0986
31230W        W32094   4.834   5.433  20.195  0.3037 -0.2564 -0.1150
31231W        W32095   5.991   2.179  23.445  0.0625  0.1211 -0.0076
31232W        W32096   5.053   5.955  17.932 -0.0102  0.3461 -0.0319
31233W        W32097   3.563   7.246  19.287 -0.1275  0.2537 -0.0068
31234W        W32098   4.231   3.526  19.421  0.1035 -0.1251 -0.0618
31235W        W32099   4.552   8.871  22.445  0.0628 -0.0164 -0.0608
31236W        W32100   6.723   6.397  20.967 -0.0481 -0.3526  0.0957
31237W        W32101   5.386   4.553  21.934 -0.1563 -0.0112  0.1580
31238W        W32102   5.736   5.242  20.089 -0.4467  0.1108  0.0250
31239W        W32103   7.839   8.401  19.877  0.0832 -0.0899  0.0447
31240W        W32104   7.303   6.423  18.183  0.0117  0.0643  0.3217
31241W        W32105   1.928   8.053  21.838  0.0650  0.0810  0.1885
31242W        W32106   3.486   5.729  21.853  0.1769 -0.0204  0.0308
31243W        W32107   2.530   3.524  18.822  0.1321 -0.0426  0.2235
31244W        W32108   6.406   4.463  20.191 -0.0172  0.3940 -0.0150
31245W        W32109   5.637   6.406  18.986 -0.2003 -0.2130  0.1629
31246W        W32110   6.225   7.013  19.427 -0.0512  0.1379  0.1076
31247W        W32111   2.564   6.922  21.554 -0.1080 -0.0264  0.1123
31248W        W32112   8.208   8.154  19.134  0.3576  0.0167 -0.1083
31249W        W32113   6.476   6.488  19.396 -0.1545  0.2211  0.0580
31250W        W32114   3.895   5.750  21.627  0.0534  0.2902 -0.2170
31251W        W32115   5.611   8.782  21.661 -0.1527  0.1385 -0.0848
31252W        W32116   6.105   6.816  21.549  0.0455  0.1040  0.2634
31253W        W32117   6.228   6.239  24.114 -0.0600  0.0571  0.0838
31254W        W32118   4.727   4.753  18.896 -0.1856 -0.0234  0.0296
31255W        W32119   6.920   3.314  18.829 -0.0903 -0.0800  0.0309
31256W        W32120   7.657   4.767  17.225  0.1508 -0.1035 -0.1802
31257W        W32121   8.029   4.391  20.317  0.0490 -0.2271  0.1125
31258W        W32122   6.261   6.726  16.176 -0.0245  0.0789  0.0778
31259W        W32123   4.089   6.914  20.634 -0.0715 -0.0000  0.1137
31260W        W32124   5.795   4.009  18.794  0.1607 -0.4290 -0.1506
31261W        W32125   6.285   6.640  21.963  0.2472  0.3649  0.1332
31262W        W32126   5.202   6.428  22.266  0.2287  0.0387  0.4276
31263W        W32127   5.804   4.275  21.605  0.0736  0.0356 -0.1879
31264W        W32128   4.028   7.319  19.494 -0.3596  0.0691 -0.1144
31265W        W32129   3.339   7.292  21.937  0.1688  0.0119 -0.1790
31266W        W32130   3.163   8.202  15.567 -0.0760 -0.5550  0.0882
31267W        W32131   5.227   6.329  16.850 -0.2211  0.0457 -0.3424
31268W        W32132   2.422   4.828  19.684  0.0978  0.2109 -0.2595
31269W        W32133   7.978   2.974  18.208  0.0825  0.1684  0.0722
31270W        W32134   4.912   6.613  19.425  0.1705  0.0922 -0.0288
31271W        W32135   5.965   5.276  22.205  0.1713  0.0878 -0.0206
31272W        W32136   4.637   4.451  20.856 -0.1724  0.1155 -0.1195
31273W        W32137   6.178   3.581  19.931 -0.0520 -0.3049  0.1098
31274W        W32138   6.183  10.668  20.912  0.1233  0.1605 -0.3183
31275W        W32139   5.798   4.857  20.430 -0.0508  0.1676 -0.0749
31276W        W32140   1.254   5.971  18.492  0.1272 -0.2847 -0.3000
31277W        W32141   3.819   5.450  21.222 -0.0356 -0.3990 -0.2064
31278W        W32142   4.883   3.216  21.279 -0.0066 -0.0975  0.2041
31279W        W32143   4.166   5.826  22.464 -0.0688 -0.0960 -0.0707
31280W        W32144   4.486   3.187  23.448 -0.0374  0.2220 -0.0459
31281W        W32145   5.421   6.039  15.271 -0.2346 -0.0959  0.1472
31282W        W32146   5.292   2.529  18.542  0.1744  0.0209  0.1297
31283W        W32147   3.303   7.687  19.075  0.2206 -0.0453  0.0439
31284W        W32148   7.042   6.537  18.653 -0.1858  0.1212  0.1863
31285W        W32149   8.838   3.435  22.847 -0.1505 -0.0253 -0.2589
31286W        W32150   5.197   7.493  20.171 -0.1431 -0.2139  0.1958
31287W        W32151   4.264   6.324  20.258 -0.0772 -0.0065 -0.2098
31288W        W32152   7.518   3.985  17.638  0.3022 -0.0102  0.0393
31289W        W32153   7.579   6.750  16.250 -0.1292  0.2735 -0.1135
31290W        W32154   6.888   4.319  18.849  0.2067  0.1230 -0.1385
31291W        W32155   6.657   4.075  17.661  0.2082  0.0923 -0.0101
31292W        W32156   6.773   5.118  20.943  0.4839 -0.3328  0.1825
31293W        W32157   5.869   4.171  19.575 -0.3871  0.1576 -0.3605
31294W        W32158   2.049   7.980  19.968 -0.0468  0.0121 -0.0268
31295W        W32159   4.629   6.000  21.197 -0.0229 -0.0935  0.1168
31296W        W32160   4.183   7.797  18.645  0.0538  0.1820 -0.2011
31297W        W32161   6.679   3.610  18.479 -0.1820 -0.2209 -0.1625
31298W        W32162   7.192   5.223  20.402  0.2440  0.0616 -0.1012
31299W        W32163   4.879   7.223  20.464 -0.1586  0.2681 -0.3076
31300W        W32164   4.404   6.472  18.075 -0.1681  0.0421 -0.0654
31301W        W32165   6.157   3.830  19.220 -0.1223 -0.2999 -0.2967
31302W        W32166   3.456   8.024  21.247  0.0139  0.0989  0.2743
31303W        W32167   6.603   6.663  18.732  0.3047  0.1052 -0.0999
31304W        W32168   8.004   6.932  18.107  0.0417 -0.0646 -0.1750
31305W        W32169   7.722   7.393  20.067  0.0533  0.2206  0.1584
31306W        W32170   7.205   5.649  21.454  0.2039 -0.2086 -0.1497
31307W        W32171   5.955   4.395  20.511  0.2201 -0.1766  0.0488
31308W        W32172   3.946   5.871  18.613  0.1656  0.0719 -0.1641
31309W        W32173   1.197   6.148  20.944 -0.1753  0.0829  0.1565
31310W        W32174   6.529   4.541  18.598  0.1400  0.2521  0.2784
31311W        W32175   4.027   4.363  22.296 -0.0517 -0.2273  0.2615
31312W        W32176   6.254   5.257  20.785 -0.1227 -0.1485 -0.1308
31313W        W32177   4.485   7.936  22.019 -0.1832  0.2875 -0.0400
31314W        W32178   4.437   8.885  21.156  0.2023  0.1386 -0.1131
31315W        W32179   3.878   7.247  20.998  0.2581 -0.0349  0.0801
31316W        W32180   6.476   4.708  17.676 -0.3122 -0.1548  0.0077
31317W        W32181   3.260   4.852  18.780  0.1585  0.1889 -0.0290
31318W        W32182   7.665   9.248  21.020 -0.1365 -0.2124  0.0934
31319W        W32183   2.139   5.060  20.571 -0.0568  0.1123 -0.0903
31320W        W32184   0.419   6.729  18.548  0.1852  0.0774  0.4093
31321W        W32185   5.792   8.219  19.765 -0.0936  0.1023 -0.0457
31322W        W32186   3.238   5.002  20.267  0.0758 -0.1590  0.0218
31323W        W32187   4.611   7.599  20.334  0.3355 -0.1610 -0.2304
31324W        W32188   4.490   5.687  17.483  0.0717  0.1121 -0.1849
31325W        W32189   5.826   6.664  17.964  0.3242 -0.0844 -0.0794
31326W        W32190   7.985   6.477  19.264  0.1927 -0.3827  0.1653
31327W        W32191   4.629   5.243  17.734 -0.1831  0.0466  0.0780
31328W        W32192   6.827   3.331  17.942  0.2671 -0.1207 -0.0188
31329W        W32193   4.598   4.743  22.094  0.2484 -0.3591  0.0605
31330W        W32194   7.307   4.384  21.955 -0.1533 -0.2609 -0.1513
31331W        W32195   5.982   2.224  18.180 -0.2007 -0.1947  0.1503
31332W        W32196   9.023   4.828  21.436 -0.2539 -0.0638 -0.0986
31333W        W32197   4.912   7.116  22.837  0.0723  0.1877  0.1704
31334W        W32198   8.603   7.265  20.177  0.1562 -0.1421  0.3778
31335W        W32199   6.126   6.980  23.842  0.2151 -0.0302 -0.3967
31336W        W32200   6.389   6.706  24.154 -0.1141 -0.2314 -0.0976
31337W        W32201   7.527   3.441  17.295 -0.0607  0.1230 -0.0301
31338W        W32202   4.315   4.856  19.155 -0.2148  0.1160 -0.3233
31339W        W32203   5.014   2.184  17.218  0.1857  0.0469  0.1261
31340W        W32204   4.994   5.545  17.514  0.0806 -0.1511 -0.0216
31341W        W32205   6.112   4.976  21.834  0.0003  0.0742  0.0720
31342W        W32206   7.044   5.698  19.531 -0.0547 -0.1446  0.1308
31343W        W32207   5.133   6.424  19.820  0.3557 -0.1082  0.0628
31344W        W32208   7.064   5.996  18.127  0.3063  0.0084 -0.0313
31345W        W32209   3.829   5.380  22.095 -0.0075 -0.1751 -0.0341
31346W        W32210   4.385   8.018  20.179 -0.0460 -0.0518 -0.0940
31347W        W32211   2.990   3.354  19.256 -0.4621 -0.4505  0.0504
31348W        W32212   4.395   6.822  18.456  0.2480  0.5243  0.0565
31349W        W32213   4.589   3.535  18.671  0.2582 -0.1234  0.0238
31350W        W32214   5.381   6.026  20.207  0.0347 -0.1911 -0.0277
31351W        W32215   2.836   4.136  17.034  0.2061 -0.0364 -0.1105
31352W        W32216   4.844   7.981  19.458  0.1123  0.4760  0.2104
31353W        W32217   6.263   4.633  21.515  0.0854  0.0147 -0.0617
31354W        W32218   4.590   7.253  18.152 -0.0047 -0.0244 -0.1612
31355W        W32219   4.842   3.089  20.288 -0.0807 -0.1028 -0.1240
31356W        W32220   4.255   3.669  20.466 -0.0069  0.0527 -0.0983
31357W        W32221   7.616   6.939  19.855  0.2443 -0.2394 -0.1573
31358W        W32222   3.591   4.722  19.805  0.0344 -0.0132 -0.2696
31359W        W32223   3.385   2.869  19.828 -0.0199  0.1600  0.0691
31360W        W32224   2.512   8.240  20.115 -0.1590  0.2306 -0.0304
31361W        W32225   5.360   5.624  21.822  0.0901 -0.0096  0.1065
31362W        W32226   6.065   5.801  20.736 -0.3068 -0.0239 -0.0859
31363W        W32227   4.918   4.672  19.423 -0.1594  0.1670 -0.0919
31364W        W32228   5.950   8.445  21.494  0.0624 -0.1509  0.2645
31365W        W32229   5.811   5.573  23.183  0.0564 -0.2224  0.1358
31366W        W32230   5.188   8.708  21.003 -0.0050 -0.0494  0.2480
31367W        W32231   7.043   4.098  20.575 -0.0461  0.2853  0.2291
31368W        W32232   4.930   3.628  15.449  0.0696  0.0144 -0.0323
31369W        W32233   5.597   5.260  17.884 -0.0079  0.2034  0.4875
31370W        W32234   5.337   4.165  18.353 -0.1475 -0.2213  0.0072
31371W        W32235   8.494   4.982  17.396 -0.0618 -0.0036  0.0757
31372W        W32236   7.726   6.064  18.950 -0.1634 -0.0994  0.1771
31373W        W32237   6.524   5.886  19.258 -0.3539 -0.0344 -0.1123
31374W        W32238   4.438   5.652  18.592 -0.2068 -0.3429  0.2690
31375W        W32239   5.121   4.499  19.994  0.1027 -0.0365 -0.1542
31376W        W32240   1.756   7.501  20.713 -0.0695  0.1324 -0.2343
31377W        W32241   6.765   7.193  19.862  0.1492  0.0553  0.0457
31378W        W32242   7.114   3.740  20.162  0.4005  0.0312 -0.2386
31379W        W32243   3.481   5.186  22.531  0.1573  0.0314 -0.2635
31380W        W32244   7.904   6.930  21.210  0.0983 -0.2938 -0.0616
31381W        W32245   2.673   6.756  17.630  0.0227 -0.1486  0.2725
31382W        W32246   5.995   4.669  20.008 -0.1073  0.0117  0.0153
31383W        W32247   7.034   5.146  21.375 -0.3048  0.0301  0.3276
31384W        W32248   4.735   4.050  21.141  0.2403  0.1110  0.0050
31385W        W32249   7.631   4.957  22.641  0.0830 -0.0547 -0.1085
31386W        W32250   6.070   6.547  21.036 -0.2963  0.0071  0.2273
31387W        W32251   4.523   6.995  20.278  0.3482 -0.3329  0.0954
31388W        W32252   4.894   7.224  18.599  0.2195  0.1828 -0.2156
31389W        W32253   5.562   7.634  21.299 -0.2541  0.0535  0.0301
31390W        W32254   5.945   8.528  20.260 -0.0723 -0.4617  0.2762
31391W        W32255   5.800   7.490  20.386  0.0978  0.0376 -0.0544
31392W        W32256   3.971   6.879  20.170  0.0856  0.0154  0.1839
31393W        W32257   5.891   6.962  21.971 -0.2507  0.0502 -0.1069
31394W        W32258   3.615   6.852  20.669  0.3356 -0.0649 -0.0705
31395W        W32259   6.997   2.854  19.099 -0.0300  0.0700  0.3238
31396W        W32260   6.778   6.060  18.622  0.3814 -0.1373 -0.1580
31397W        W32261   3.777   4.124  22.688  0.2892  0.1891  0.0990
31398W        W32262   4.536   7.084  19.575  0.1256  0.1697  0.0759
31399W        W32263   3.503   4.548  16.922 -0.0581  0.2785 -0.1504
31400W        W32264   6.202  10.442  25.917 -0.0311  0.2428  0.2795
31401W        W32265   3.634   4.766  23.693 -0.0694  0.0175  0.0037
31402W        W32266   5.270   6.101  22.701  0.0593  0.0918  0.0309
31403W        W32267   6.910   6.061  23.552 -0.2316  0.1101  0.1144
31404W        W32268   5.326   8.152  25.317  0.2079  0.3075  0.0088
31405W        W32269   5.267   5.273  23.236 -0.0475  0.0010 -0.3137
31406W        W32270   4.266   5.142  22.104  0.1457 -0.0389  0.0872
31407W        W32271   4.786   4.785  22.586  0.0317 -0.1134 -0.1267
31408W        W32272   3.832   6.929  26.388 -0.1455  0.0867  0.0169
31409W        W32273   4.671   4.506  22.996 -0.3120  0.0537 -0.2608
31410W        W32274   3.964   4.749  23.296 -0.0039 -0.0791 -0.1079
31411W        W32275   5.060   3.139  24.974  0.0117  0.2642  0.1018
31412W        W32276   7.473   6.708  21.350  0.2866 -0.0654 -0.0188
31413W        W32277   4.992   4.011  23.142  0.0157 -0.0955 -0.0140
31414W        W32278   1.419   2.150  22.582 -0.2994  0.1019 -0.2682
31415W        W32279   3.043   7.977  25.332  0.2818 -0.2666  0.2733
31416W        W32280   4.314   9.465  22.804  0.2466 -0.1396  0.0150
31417W        W32281   1.482   5.007  22.350  0.0097 -0.0658  0.3754
31418W        W32282   4.244   5.453  25.406  0.0123  0.0844 -0.0422
31419W        W32283   6.644   3.751  24.111  0.5443  0.1142  0.1416
31420W        W32284   6.094   5.551  25.022  0.0069 -0.0113 -0.0541
31421W        W32285   2.572   4.317  23.021  0.0349  0.0350 -0.1168
31422W        W32286   4.022   6.132  23.275 -0.3747 -0.1632  0.1896
31423W        W32287   3.334   3.523  23.068  0.2755  0.2327  0.0704
31424W        W32288   0.693   5.183  24.892 -0.1685 -0.0092  0.3242
31425W        W32289   3.603   5.292  26.081  0.0999 -0.1063  0.0548
31426W        W32290   5.398   5.290  24.066  0.4104 -0.1378 -0.1885
31427W        W32291   1.645   7.598  24.575  0.2627  0.1683  0.0905
31428W        W32292   5.260   6.055  24.684 -0.0404  0.0780 -0.0273
31429W        W32293   3.324   5.383  21.195 -0.2652 -0.1500  0.3385
31430W        W32294   8.316   4.323  22.837 -0.1650  0.3971 -0.1364
31431W        W32295   5.201   5.157  25.350 -0.1175  0.1469  0.2287
31432W        W32296   5.413   6.986  26.972  0.0468  0.1627  0.1000
31433W        W32297   3.675   4.913  25.703  0.1411  0.0605 -0.0399
31434W        W32298   3.850   5.378  25.070  0.3699 -0.3874  0.1355
31435W        W32299   6.526   6.136  26.556 -0.4070  0.5041 -0.3337
31436W        W32300   6.226   2.952  22.848 -0.0341 -0.2186 -0.1519
31437W        W32301   2.660   7.374  24.196 -0.2282  0.0233 -0.2779
31438W        W32302   6.231   5.573  20.357  0.2055  0.1125  0.2884
31439W        W32303   6.444   4.626  22.299  0.0462 -0.2325  0.2958
31440W        W32304   4.863   5.551  23.240 -0.0291 -0.1742 -0.2514
31441W        W32305   7.756   6.149  26.054 -0.0726 -0.0377  0.2421
31442W        W32306   5.487   6.464  24.836 -0.1854 -0.0833  0.0861
31443W        W32307   7.216   3.507  22.334  0.0789  0.1393  0.1828
31444W        W32308   3.845   8.128  21.573  0.3391  0.0792  0.1730
31445W        W32309   5.391   9.008  23.131  0.0744  0.0635  0.0593
31446W        W32310   2.589   5.456  24.767  0.1378  0.1584 -0.0155
31447W        W32311   7.383   6.714  23.926 -0.1045  0.0409 -0.2571
31448W        W32312   4.577   6.606  21.113 -0.2199  0.1252 -0.0068
31449W        W32313   9.548   4.374  19.505  0.2401 -0.1353 -0.0042
31450W        W32314   5.509   6.941  23.677 -0.3399  0.1811  0.3940
31451W        W32315   6.587   4.623  24.946 -0.0356  0.0684  0.1572
31452W        W32316   4.692   4.302  24.478 -0.0870  0.0658  0.0451
31453W        W32317   6.920   6.422  24.896 -0.1259  0.0454  0.2698
31454W        W32318   5.182   1.776  22.537 -0.0506  0.0992  0.3900
31455W        W32319   3.921   4.864  22.568 -0.2347 -0.3592  0.2036
31456W        W32320   2.512   4.046  22.551 -0.2993 -0.1343  0.0007
31457W        W32321   7.482   3.137  23.183  0.0960 -0.3276 -0.0322
31458W        W32322   2.851   7.286  20.478  0.0208 -0.2590  0.2717
31459W        W32323   7.358   9.252  24.606  0.0988  0.2085 -0.1896
31460W        W32324   6.851   7.527  23.883  0.0584  0.2337  0.0932
31461W        W32325   3.297   8.099  24.430  0.3444  0.0493 -0.0478
31462W        W32326   4.498   5.524  24.892 -0.0973  0.0710  0.1866
31463W        W32327   4.669   7.248  23.211  0.0289 -0.0298 -0.1882
31464W        W32328   6.988  27.682  25.667  0.0415  0.0532 -0.0355
31465W        W32329   8.060   4.127  21.702 -0.0688 -0.2966  0.0524
31466W        W32330   2.466   7.351  21.767 -0.0691  0.0427 -0.4367
31467W        W32331   0.675   3.276  24.874  0.0349  0.0073 -0.0831
31468W        W32332   3.267   8.647  24.221  0.0937  0.4481 -0.2391
31469W        W32333   4.849   5.793  22.810 -0.0813 -0.1012 -0.1516
31470W        W32334   4.452   7.983  25.553 -0.0391 -0.0241 -0.0087
31471W        W32335   6.233   3.316  22.474 -0.1388 -0.0478 -0.0679
31472W        W32336   6.151   7.164  23.368  0.0216  0.1599 -0.0553
31473W        W32337   6.861   5.069  25.186  0.0378 -0.1996  0.5129
31474W        W32338   7.728   6.962  21.693  0.1559 -0.0493 -0.2592
31475W        W32339   2.922   5.655  25.529 -0.0589  0.1543 -0.3709
31476W        W32340   1.519   3.298  21.878  0.4022 -0.4574 -0.1268
31477W        W32341   3.377   6.065  23.879  0.0197  0.0396  0.0075
31478W        W32342   4.138   5.931  24.889  0.1957 -0.0716 -0.1187
31479W        W32343   8.279   7.304  25.398  0.2280  0.0327  0.3042
31480W        W32344   1.583   5.179  24.958 -0.0529  0.0393 -0.2470
31481W        W32345   3.677   5.148  24.163 -0.2093  0.3487  0.2304
31482W        W32346   4.236   3.914  22.492 -0.1232 -0.1530  0.0240
31483W        W32347   5.636   3.944  23.417  0.0386  0.1941  0.0279
31484W        W32348   5.740   6.020  23.904  0.1986 -0.0570 -0.1255
31485W        W32349   5.676   4.971  23.113 -0.0816  0.0473  0.0316
31486W        W32350   4.971   7.843  26.660 -0.0190 -0.0596 -0.2255
31487W        W32351   6.169   4.404  25.885  0.4346  0.2982 -0.1431
31488W        W32352   5.098   6.946  25.914 -0.1064 -0.1032  0.2865
31489W        W32353   5.929   5.120  24.642 -0.1310  0.0596 -0.1434
31490W        W32354   6.879   4.783  20.201 -0.0432  0.0221 -0.5035
31491W        W32355   6.249   5.208  26.324  0.1072  0.0774 -0.0585
31492W        W32356   1.912   4.692  23.149 -0.0367 -0.4180 -0.0887
31493W        W32357   5.340   3.526  22.293 -0.0142  0.0814  0.2698
31494W        W32358   3.146   4.822  26.697  0.2781  0.3485  0.2801
31495W        W32359   6.175   5.656  21.910 -0.1774 -0.1272 -0.1119
31496W        W32360   8.962   4.490  21.817 -0.3827  0.2814  0.1845
31497W        W32361   4.515   8.659  25.679  0.1897  0.1672 -0.0323
31498W        W32362   3.778   4.268  23.528  0.1051 -0.1380  0.1498
31499W        W32363   3.339   4.912  24.437 -0.0701  0.2467 -0.0913
31500W        W32364   7.991   5.856  22.075 -0.2821 -0.0891  0.0418
31501W        W32365   3.208   7.793  22.628 -0.0175 -0.1678 -0.1670
31502W        W32366   7.681   5.893  21.530 -0.1447 -0.0226  0.1470
31503W        W32367   5.323   6.640  24.065 -0.2392 -0.0376  0.1707
31504W        W32368   6.737   5.586  22.734 -0.0102 -0.0068  0.1257
31505W        W32369   7.013   7.477  23.088 -0.1650 -0.2496 -0.0174
31506W        W32370   2.694   5.455  24.258  0.1414 -0.0109  0.0545
31507W        W32371   5.805   5.799  25.558 -0.1022  0.2446  0.0193
31508W        W32372   4.508   3.971  23.013 -0.0225  0.1225 -0.1463
31509W        W32373   7.412   4.611  23.653  0.0248  0.1417 -0.2231
31510W        W32374   1.796   5.966  25.458 -0.0238 -0.0885  0.1651
31511W        W32375   4.743   6.250  22.919  0.2550 -0.0945 -0.0573
31512W        W32376   8.931   5.098  23.063  0.0761  0.2161 -0.0744
31513W        W32377   5.186   8.579  23.518  0.3137 -0.0367 -0.1503
31514W        W32378   8.113   9.701  20.043  0.1012 -0.1222  0.1437
31515W        W32379   3.898   5.568  19.722 -0.1433 -0.1113 -0.0316
31516W        W32380   7.083   4.177  27.448  0.1273 -0.1366  0.0971
31517W        W32381   3.326   7.751  25.014 -0.1117 -0.0698 -0.0872
31518W        W32382   4.795   3.576  23.262 -0.3653 -0.1385 -0.1738
31519W        W32383   7.218   5.252  22.693 -0.0925  0.0065  0.0493
31520W        W32384   7.716   5.129  25.248 -0.1266  0.0406  0.0448
31521W        W32385   7.529   6.393  20.012  0.3064  0.1193  0.2365
31522W        W32386   5.929   5.928  24.338  0.0699 -0.0798 -0.1494
31523W        W32387   6.902   5.472  23.648  0.3509  0.3673  0.1960
31524W        W32388   6.415   6.061  25.673 -0.0630  0.0052  0.0859
31525W        W32389   8.938   6.030  22.230  0.1619 -0.1345  0.2736
31526W        W32390   4.558   5.288  25.777 -0.1518 -0.0656  0.2708
31527W        W32391   9.174   7.750  24.614  0.1704 -0.0583 -0.0111
31528W        W32392   5.750   5.164  23.689  0.1223  0.0189 -0.0257
31529W        W32393   4.478   4.392  22.452 -0.1045  0.0311 -0.0762
31530W        W32394   7.106   4.918  23.008  0.1326 -0.0929  0.0769
31531W        W32395   3.522   4.023  23.107  0.1719 -0.2394  0.0124
31532W        W32396   7.641   5.045  21.633 -0.1473 -0.1612  0.0459
31533W        W32397   3.307   6.441  22.270 -0.1248  0.0354 -0.2950
31534W        W32398   7.952   2.314  21.891 -0.1378  0.0773  0.0923
31535W        W32399   6.084   3.707  23.452 -0.1540  0.1068 -0.1861
31536W        W32400   4.161   6.865  21.250  0.0051 -0.2048 -0.0925
31537W        W32401   8.285  10.093  26.488 -0.2288  0.0696  0.0134
31538W        W32402   4.427   5.249  20.422  0.0992 -0.1281  0.1012
31539W        W32403   3.271   3.785  23.513  0.3560  0.0186  0.0097
31540W        W32404   2.024   8.693  22.708 -0.0823 -0.0132  0.1886
31541W        W32405   4.203   4.759  23.776 -0.0993  0.1454  0.1220
31542W        W32406   4.809   5.118  24.849 -0.0798 -0.0780  0.2264
31543W        W32407   5.806   5.366  20.534 -0.0682  0.0227 -0.2702
31544W        W32408   6.828   4.898  23.468  0.0984  0.0104 -0.1362
31545W        W32409   6.919   9.028  25.378  0.1634 -0.2216 -0.1284
31546W        W32410   6.513   8.867  24.968 -0.3381  0.0358  0.3218
31547W        W32411   1.720   9.251  28.209 -0.0608 -0.0174  0.3755
31548W        W32412   6.102   9.632  26.017  0.1221 -0.2249 -0.0303
31549W        W32413   5.814   3.320  22.206 -0.0144  0.1136 -0.0408
31550W        W32414   4.904   4.212  22.679 -0.1995 -0.1973 -0.3748
31551W        W32415   6.104   3.948  20.514 -0.2206  0.4552  0.0558
31552W        W32416   3.368   5.514  25.154  0.0804 -0.0495 -0.2173
31553W        W32417   1.965   6.862  24.103 -0.1004  0.3372 -0.0078
31554W        W32418   2.002   3.028  22.535 -0.2130  0.0188  0.1276
31555W        W32419   6.530   5.882  24.247 -0.0256  0.0199  0.1402
31556W        W32420   5.281   5.460  19.887  0.1890 -0.0596  0.0431
31557W        W32421   6.334   4.092  21.429  0.0682 -0.4552 -0.2331
31558W        W32422   6.016   4.841  23.469  0.2426  0.0729  0.2657
31559W        W32423   3.704   6.242  22.525  0.0453 -0.0261  0.1048
31560W        W32424   4.437   6.418  24.921 -0.1267 -0.3261  0.1173
31561W        W32425   4.208   6.634  26.504 -0.0913 -0.1830 -0.1310
31562W        W32426   2.435   3.940  24.979  0.1307 -0.1152  0.2355
31563W        W32427   1.864   7.638  22.729  0.2448  0.3901 -0.0711
31564W        W32428   2.900   2.683  22.902  0.0990  0.1668  0.1428
31565W        W32429   2.820   7.999  22.530 -0.0663  0.2818  0.0390
31566W        W32430   5.643   8.471  23.658  0.0806 -0.1230  0.0519
31567W        W32431   4.248   8.002  24.302 -0.1512 -0.1929  0.0411
31568W        W32432   5.295   2.930  23.215 -0.2121  0.0876  0.0204
31569W        W32433   5.426   7.628  25.342  0.5587  0.1722 -0.2365
31570W        W32434   4.872   2.515  24.452 -0.2281  0.0803  0.0782
31571W        W32435   1.999   7.169  21.523  0.0002 -0.1074  0.0593
31572W        W32436   8.483   5.145  25.730 -0.2719 -0.0375 -0.1139
31573W        W32437   6.858   2.542  24.877 -0.0281  0.1961 -0.2706
31574W        W32438   5.444   8.069  26.709  0.0779 -0.1430  0.0636
31575W        W32439   2.919   7.990  24.751  0.1591  0.0729 -0.5405
31576W        W32440   2.358   7.669  22.565  0.0303  0.2155 -0.2165
31577W        W32441   4.074   5.515  24.050  0.0075  0.2325  0.2897
31578W        W32442   4.884   9.321  23.088 -0.0996  0.3372  0.2763
31579W        W32443   5.111   5.871  22.267  0.2248 -0.2390  0.1614
31580W        W32444   5.127   6.625  21.267  0.0391 -0.2290 -0.1602
31581W        W32445   5.912   5.536  21.118 -0.0960  0.4260  0.3190
31582W        W32446   4.287   4.827  21.685  0.1112 -0.2326  0.1872
31583W        W32447   6.424   8.339  25.336 -0.1562  0.0229 -0.1374
31584W        W32448   8.164   2.698  24.422 -0.1219 -0.0545  0.4694
31585W        W32449   4.008   5.325  20.779 -0.2871  0.1627  0.3552
31586W        W32450   4.352   6.287  25.832 -0.2450  0.1184 -0.1642
31587W        W32451   6.070   6.218  23.630 -0.0039  0.0469  0.2119
31588W        W32452   5.123   8.246  20.741  0.1582 -0.5144 -0.3506
31589W        W32453   4.938   6.948  22.316 -0.1779  0.0553  0.2282
31590W        W32454   4.493   7.107  25.723 -0.0659 -0.2103 -0.1332
31591W        W32455   5.526   3.817  25.021  0.0515  0.1009  0.0161
31592W        W32456   2.511   4.611  21.935  0.0637  0.2466  0.1200
31593W        W32457   4.655   4.794  24.077  0.0329 -0.0330  0.0979
31594W        W32458   5.714   4.801  21.550 -0.0762 -0.0991 -0.1982
31595W        W32459   2.473   4.505  21.266  0.0843 -0.1154 -0.1290
31596W        W32460   3.281   6.097  21.187  0.1505  0.2902  0.3346
31597W        W32461   9.629   2.317  24.458 -0.0910 -0.2692  0.1693
31598W        W32462   4.866   4.949  20.404 -0.4499  0.0231 -0.1734
31599W        W32463   5.680   4.423  23.219 -0.0475  0.5501 -0.0785
31600W        W32464   8.097   5.149  22.750 -0.1711 -0.4697  0.1857
31601W        W32465   4.920   4.612  23.589  0.1601  0.2106  0.3450
31602W        W32466   3.417   2.717  22.882 -0.1883  0.0510 -0.1286
31603W        W32467  28.014   5.202  23.504 -0.1891 -0.2848  0.0157
31604W        W32468   5.041   6.236  24.246  0.0815  0.1330  0.0734
31605W        W32469   4.083   8.931  26.517  0.1585 -0.0690  0.2746
31606W        W32470   2.572   8.051  22.968  0.0398  0.0287  0.1487
31607W        W32471   4.182   3.432  21.459  0.0647  0.0740  0.1645
31608W        W32472   2.536   7.322  26.231  0.1192 -0.3610  0.0514
31609W        W32473   2.826   5.252  22.412 -0.0821  0.0955 -0.1059
31610W        W32474   2.856   3.685  22.968 -0.0861 -0.1833 -0.0977
31611W        W32475   9.718   5.371  25.200 -0.1385 -0.1599  0.1973
31612W        W32476   6.643   7.902  25.263  0.2382  0.2126  0.0095
31613W        W32477   8.091   6.163  21.721 -0.0150 -0.0718 -0.1655
31614W        W32478   5.752   5.336  21.600  0.2143  0.2817 -0.0461
31615W        W32479   3.421   6.450  23.581 -0.0310  0.1499 -0.2048
31616W        W32480   3.631   4.901  26.407 -0.2183  0.2618 -0.1973
31617W        W32481   1.743   3.453  24.724 -0.3726  0.0445 -0.0932
31618W        W32482   8.179   4.755  25.322  0.2065 -0.2105 -0.0046
31619W        W32483   4.060   5.571  24.547  0.2306  0.2185  0.1493
31620W        W32484   5.536   7.618  26.692  0.0658  0.0326  0.1379
31621W        W32485   6.778   6.929  23.201  0.2336  0.1441  0.0291
31622W        W32486   6.745   6.045  20.363  0.2628  0.1081 -0.0160
31623W        W32487   4.038   4.020  25.390 -0.0738  0.1380 -0.0423
31624W        W32488   4.527   8.001  24.994  0.1460  0.1258 -0.1157
31625W        W32489   7.926   6.695  26.145  0.1520 -0.0506  0.0967
31626W        W32490   7.404   4.176  24.955 -0.3312 -0.2929  0.2705
31627W        W32491   7.327   3.309  24.240 -0.0661  0.0675 -0.1332
31628W        W32492   2.732   5.343  23.729 -0.1944  0.0874  0.2025
31629W        W32493   2.908   6.271  22.543  0.1710  0.3892  0.0676
31630W        W32494   3.102   7.387  24.620  0.0699 -0.1768 -0.3077
31631W        W32495   8.210   5.782  23.006 -0.1152 -0.2391 -0.0599
31632W        W32496   4.465   4.341  23.933  0.0812  0.2268  0.2175
31633W        W32497   3.799   4.831  21.474  0.2944  0.0566  0.2578
31634W        W32498   7.488   6.262  22.797 -0.1814 -0.0038 -0.0801
31635W        W32499   5.955   6.493  25.011 -0.0399 -0.2978 -0.3286
31636W        W32500   7.245   5.310  24.069  0.3629  0.2493 -0.2081
31637W        W32501   8.922   6.916  24.164  0.2009 -0.0073 -0.0435
31638W        W32502   5.159   3.742  23.595  0.2792  0.0076 -0.2619
31639W        W32503   2.407   6.248  25.025  0.1098 -0.1173 -0.2461
31640W        W32504   3.482   5.039  24.978 -0.0514 -0.1236  0.0982
31641W        W32505   2.711   4.511  24.592 -0.0293 -0.0531  0.0223
31642W        W32506   4.905   4.929  23.160  0.2361  0.2277 -0.1989
31643W        W32507   4.795   5.889  23.572  0.1384 -0.2745 -0.1952
31644W        W32508   6.414   6.792  25.968  0.0746 -0.0815 -0.1417
31645W        W32509   3.176   6.557  23.016 -0.0504 -0.0697 -0.0367
31646W        W32510   8.330   9.523  21.781 -0.0187  0.1441  0.0249
31647W        W32511   4.188   5.848  21.102 -0.1363 -0.2727  0.3667
31648W        W32512   6.069   8.731  25.123  0.0028  0.0552 -0.0660
31649W        W32513   6.735   6.357  24.421  0.1141  0.4900 -0.1718
31650W        W32514   5.252   8.080  23.605  0.0718  0.2431 -0.1623
31651W        W32515   4.279   6.710  21.825 -0.1796  0.1922 -0.0645
31652W        W32516   6.436   8.394  24.814  0.1790 -0.3586  0.1844
31653W        W32517   6.057   1.750  20.574 -0.0622 -0.1964  0.1013
31654W        W32518   2.220   4.280  24.740  0.1882 -0.0079 -0.0689
31655W        W32519   8.988  10.904  24.021  0.1905  0.0229 -0.0590
31656W        W32520   4.294   4.607  24.376 -0.0358  0.1513 -0.1090
31657W        W32521   4.652   2.714  21.334 -0.1501  0.0869  0.0403
31658W        W32522   3.263   5.270  25.712  0.1082 -0.2794 -0.3095
31659W        W32523   3.672   6.097  21.425  0.0620  0.0284 -0.1529
31660W        W32524   5.471   5.365  25.723  0.0872  0.0483  0.0197
31661W        W32525   3.984   7.214  22.438  0.2640 -0.2942 -0.2764
31662W        W32526   3.487   7.090  25.994 -0.0520 -0.1232 -0.0476
31663W        W32527   5.029   5.113  23.670  0.2592 -0.5026  0.1383
31664W        W32528   5.515   6.440  23.553  0.1604 -0.2893 -0.2893
31665W        W32529   1.907   5.794  24.013 -0.0180  0.0270 -0.0208
31666W        W32530   7.687   4.637  21.086 -0.0885 -0.2536 -0.0263
31667W        W32531   2.809   7.560  22.785 -0.0881 -0.0126 -0.0462
31668W        W32532   6.625   7.032  25.587 -0.2266 -0.1981  0.1452
31669W        W32533   6.698   5.805  23.198  0.0316  0.0940 -0.3826
31670W        W32534   6.782   4.364  26.506  0.3152  0.1546  0.0780
31671W        W32535   7.334   6.710  24.971 -0.0207  0.0452  0.1637
31672W        W32536   6.868   4.131  24.939 -0.1747 -0.1271  0.0956
31673W        W32537   2.899   2.065  22.241 -0.1798 -0.0834  0.0395
31674W        W32538  28.779   4.915  22.914 -0.2137 -0.1810 -0.1245
31675W        W32539   8.442   2.720  19.649  0.0716 -0.0056 -0.1820
31676W        W32540   4.648   4.773  25.984  0.0109 -0.0476  0.0189
31677W        W32541   6.200   4.639  24.583 -0.1638  0.1507 -0.0055
31678W        W32542   2.954   4.348  21.193 -0.1859 -0.1591 -0.1853
31679W        W32543   3.813   5.871  22.880 -0.2207  0.1123  0.4685
31680W        W32544   2.697   7.420  23.638  0.1733 -0.0588  0.2810
31681W        W32545   6.899   6.631  23.627 -0.2421 -0.1545 -0.0335
31682W        W32546   7.550   2.991  25.560 -0.0032 -0.4031 -0.0687
31683W        W32547   8.195   4.297  22.177 -0.4984 -0.0953  0.0166
31684W        W32548   2.918   5.390  27.958  0.2008 -0.1662 -0.0605
31685W        W32549   7.781   3.907  19.934 -0.0187  0.2462  0.2368
31686W        W32550   7.289   5.135  24.977 -0.3971 -0.0718 -0.2124
31687W        W32551   6.310   3.752  22.767  0.2564 -0.1514 -0.1161
31688W        W32552   7.869   3.487  21.236 -0.1857  0.0203  0.0996
31689W        W32553   6.453   4.965  24.348 -0.0131 -0.3219 -0.1455
31690W        W32554   1.921   3.520  21.778  0.1300 -0.2059  0.0279
31691W        W32555   2.066   6.696  21.534  0.1850  0.0426 -0.1594
31692W        W32556   7.668   6.856  25.295 -0.4134  0.0272  0.2044
31693W        W32557   2.641   5.983  24.543 -0.1198 -0.0712 -0.0001
31694W        W32558   5.643   9.074  25.363 -0.3301 -0.0354 -0.3657
31695W        W32559   4.916   6.145  25.972 -0.0425  0.1676  0.2786
31696W        W32560   6.487   8.499  23.844  0.0621 -0.0727 -0.3541
31697W        W32561   2.819   6.074  23.068 -0.1686 -0.2301 -0.2265
31698W        W32562   2.764   3.963  27.367 -0.1079 -0.3068  0.3818
31699W        W32563  10.270   7.739  27.833  0.1565  0.0431 -0.1712
31700W        W32564   7.529   8.531  22.594 -0.0037  0.0400 -0.2955
31701W        W32565   8.022   4.571  21.449  0.1305 -0.2917  0.0978
31702W        W32566   5.987   6.591  24.488 -0.0763 -0.2160  0.1146
31703W        W32567   4.392   4.978  26.728 -0.0659 -0.0649 -0.0297
31704W        W32568   5.363   4.005  24.017  0.0508  0.3347  0.1945
31705W        W32569   5.347   4.507  21.344  0.4699  0.0040  0.0414
31706W        W32570   3.732   5.813  24.275  0.0645  0.1560  0.1192
31707W        W32571   4.800   2.779  19.883  0.0140 -0.0726 -0.1644
31708W        W32572   3.234   7.239  25.145 -0.0544 -0.4257  0.2623
31709W        W32573   4.935   6.823  20.820  0.1337  0.1797 -0.2112
31710W        W32574   7.228   6.052  23.176  0.0706 -0.2394 -0.0943
31711W        W32575   3.526   6.235  25.401 -0.3494 -0.1614  0.0645
31712W        W32576   2.519   6.870  25.266 -0.1047 -0.0122  0.2747
31713W        W32577   3.815   4.680  24.201 -0.1418 -0.0599 -0.4206
31714W        W32578   5.368   4.067  22.801  0.2289 -0.1551 -0.1861
31715W        W32579   6.329   6.451  26.932  0.0485  0.2441 -0.4320
31716W        W32580   1.988   4.916  22.641 -0.2715  0.1094 -0.1382
31717W        W32581   4.029   6.765  24.922 -0.2509  0.0277 -0.0447
31718W        W32582   6.937   6.714  21.537 -0.0924 -0.0091  0.1036
31719W        W32583   1.586   4.206  24.145  0.1821  0.1413  0.1262
31720W        W32584   5.738   7.451  25.735  0.1006 -0.1648  0.1183
31721W        W32585   4.791   4.901  19.916 -0.0751 -0.1037 -0.1745
31722W        W32586   6.775   7.448  25.414 -0.4674  0.2367 -0.0296
31723W        W32587   3.392   4.486  23.304  0.0775  0.0386  0.2926
31724W        W32588   4.999   5.360  20.716 -0.2095  0.1528 -0.0077
31725W        W32589   4.933   5.253  22.735 -0.0043  0.1760  0.0719
31726W        W32590   5.467   6.716  23.139 -0.1110  0.0359  0.1376
31727W        W32591   3.203   6.121  24.361 -0.1689  0.1434 -0.3830
31728W        W32592   6.464   6.001  21.661 -0.2495  0.0195  0.1142
31729W        W32593   4.201   6.536  24.254 -0.0340 -0.0139  0.0599
31730W        W32594   5.512   6.801  24.499 -0.0573 -0.3046  0.0373
31731W        W32595   7.510   5.775  24.168  0.2063 -0.0203 -0.2320
31732W        W32596   5.681   6.940  25.844 -0.1444  0.1067 -0.0587
31733W        W32597   5.387   5.627  23.717  0.2126  0.0042  0.1212
31734W        W32598   9.995   5.632  26.482 -0.0158 -0.2542  0.2094
31735W        W32599   5.569   6.348  24.333 -0.0309  0.2439 -0.0112
31736W        W32600   6.222   5.525  22.823 -0.1170  0.1423  0.2411
31737W        W32601   2.276   5.816  24.944  0.2872 -0.0381  0.1693
31738W        W32602   1.542   4.770  24.010  0.1764 -0.0020  0.0881
31739W        W32603   6.385   1.089  24.567  0.3216 -0.1183 -0.1998
31740W        W32604   1.988   5.504  25.623  0.1611 -0.1581 -0.1267
31741W        W32605   4.637   5.212  21.807 -0.0998 -0.1531  0.0917
31742W        W32606   0.388   5.311  22.551  0.3370 -0.0312 -0.1976
31743W        W32607   1.435   5.933  22.334  0.0128  0.1505  0.1092
31744W        W32608   3.222   4.144  22.324  0.2853  0.1183 -0.0608
31745W        W32609   4.601   6.303  24.455 -0.1321  0.2926  0.1003
31746W        W32610   7.496   3.329  21.572  0.1039 -0.0351  0.0693
31747W        W32611   6.580   6.350  23.827 -0.0930  0.1185  0.4205
31748W        W32612   5.338   5.539  22.788  0.2869 -0.1436 -0.0677
31749W        W32613   7.243   6.099  24.400  0.0870  0.1941 -0.0046
31750W        W32614   5.291   7.510  23.075 -0.2703  0.1810 -0.2047
31751W        W32615   3.079   5.680  23.773  0.0185 -0.1135  0.0746
31752W        W32616   5.290   3.814  21.355  0.2822 -0.2056 -0.0375
31753W        W32617   3.624   9.315  24.986  0.0075  0.1422 -0.2870
31754W        W32618   6.681   5.449  24.500  0.0421  0.2049 -0.0699
31755W        W32619   4.265   6.275  22.835  0.0315  0.1046 -0.1839
31756W        W32620   2.830   4.950  24.071  0.0968 -0.2486  0.4265
31757W        W32621   5.376   5.063  20.606 -0.0476 -0.0316  0.0810
31758W        W32622   4.527   6.174  26.274  0.0303  0.2958 -0.2975
31759W        W32623   3.987   3.955  21.281  0.1299 -0.0118 -0.1996
31760W        W32624   5.910   3.200  21.742 -0.0641 -0.1048 -0.1613
31761W        W32625   6.446   8.794  25.468 -0.2615  0.1425 -0.1643
31762W        W32626   7.529   4.794  25.739  0.1869 -0.0804 -0.0383
31763W        W32627   5.893   8.144  22.976  0.0116  0.0655 -0.2326
31764W        W32628   7.685   7.868  23.559  0.0113 -0.1958  0.1969
31765W        W32629   4.392   6.648  19.906 -0.0486 -0.3810  0.1800
31766W        W32630   7.290   5.198  23.415  0.2442  0.2077  0.0661
31767W        W32631   5.106   3.630  19.474 -0.1538 -0.0663 -0.0930
31768W        W32632   8.034   5.096  23.721  0.0466  0.2115  0.2234
31769W        W32633   4.952   5.528  23.960 -0.2749 -0.2538 -0.1511
31770W        W32634   4.947   7.775  25.195 -0.1025  0.0832 -0.2515
31771W        W32635   7.336   5.948  19.830  0.1174  0.1799 -0.2388
31772W        W32636   7.224   4.077  25.867  0.0949  0.0325  0.0947
31773W        W32637   2.917   4.111  23.366 -0.0031  0.0487  0.1905
31774W        W32638   8.098   6.250  27.149  0.0036  0.0260 -0.0380
31775W        W32639   7.506   4.487  24.168  0.0011 -0.0267 -0.1612
31776W        W32640   3.257   6.790  26.299  0.0402 -0.0758 -0.2986
31777W        W32641   3.938   5.291  23.091 -0.0567 -0.0855  0.0609
31778W        W32642   5.526   3.250  22.865  0.4539 -0.0775  0.1162
31779W        W32643   4.020   5.352  22.568  0.1371  0.0222  0.0493
31780W        W32644   5.822   5.981  24.852  0.0303  0.1285  0.2879
31781W        W32645   5.931   5.640  23.653 -0.0072  0.1847 -0.0970
31782W        W32646   7.162   7.638  24.318  0.2608  0.1356 -0.1519
31783W        W32647   3.795   6.935  23.450  0.0162  0.2120  0.3459
31784W        W32648   5.512   8.332  24.827 -0.0044 -0.5517  0.0763
31785W        W32649   5.704   4.617  23.808 -0.1045  0.2838 -0.0116
31786W        W32650   4.840   8.201  23.384  0.1533 -0.1032  0.1800
31787W        W32651   7.087   7.335  26.797  0.0548 -0.0998 -0.0291
31788W        W32652   5.993   8.464  24.614  0.0914 -0.0669 -0.1129
31789W        W32653  10.205   3.499  22.881  0.2220  0.0549 -0.0005
31790W        W32654   9.154   7.880  25.174  0.1424 -0.0791  0.3266
31791W        W32655   1.523   4.442  23.663 -0.1233  0.2275  0.1968
31792W        W32656   4.118   4.879  26.182 -0.0424 -0.1688  0.2235
31793W        W32657   5.483   7.057  22.742  0.1043 -0.1044  0.3016
31794W        W32658   3.730   7.511  26.025 -0.0562  0.0432 -0.1191
31795W        W32659   3.052   5.624  24.777  0.0786 -0.4558 -0.1230
31796W        W32660   1.558   8.101  19.091  0.0573 -0.0419 -0.5970
31797W        W32661   3.538   7.737  28.307 -0.2387  0.1397  0.2230
31798W        W32662   2.923   5.441   0.247  0.3306 -0.0321  0.1661
31799W        W32663   7.768   9.597  28.963  0.1131  0.4008 -0.0448
31800W        W32664   7.521   9.481   0.543 -0.0010 -0.2513  0.0233
31801W        W32665   3.491   5.396  24.590  0.2384 -0.1131  0.1470
31802W        W32666   3.980   6.371  25.206  0.1133  0.0789  0.0603
31803W        W32667   4.787   4.870  25.471 -0.1450 -0.1062  0.2274
31804W        W32668   4.031   5.868  27.170  0.1644 -0.1625 -0.0768
31805W        W32669   5.211   8.191  26.172  0.0379  0.3616  0.0064
31806W        W32670   2.798   5.220   1.155  0.0472 -0.0523  0.1055
31807W        W32671   5.697   3.291  28.771 -0.3534 -0.4567  0.0573
31808W        W32672   5.049   5.029  25.834 -0.1244  0.0468 -0.2255
31809W        W32673   5.177   5.470  24.752  0.0902 -0.0139 -0.1296
31810W        W32674   7.427   3.698  27.533  0.2564  0.2467 -0.0813
31811W        W32675   2.607   4.237  28.275 -0.0545  0.0352 -0.0393
31812W        W32676   3.312   7.869   0.011 -0.4475  0.1490  0.0032
31813W        W32677   3.736   8.050  28.849  0.0136  0.0931 -0.1451
31814W        W32678   3.512   7.298  27.929  0.1295  0.1950  0.0779
31815W        W32679   3.626   6.114  28.146  0.1340 -0.3983 -0.1364
31816W        W32680   8.543   5.314  27.756 -0.0224  0.0639  0.2961
31817W        W32681   5.592   7.022  27.459  0.1808 -0.2441 -0.0492
31818W        W32682   7.062   8.173  26.106  0.1160 -0.1797  0.1876
31819W        W32683   7.074   6.677  28.572  0.2259  0.1478  0.0182
31820W        W32684   6.060   6.556  28.405  0.1293  0.2042 -0.1994
31821W        W32685   1.898   3.016  28.136  0.0017 -0.0377  0.2599
31822W        W32686   4.576   5.500  29.145 -0.2139 -0.1115 -0.1187
31823W        W32687   5.131   2.485  28.485  0.0895  0.0423 -0.0680
31824W        W32688   5.976   6.107  28.231 -0.3359 -0.0211 -0.1253
31825W        W32689   6.823   4.899  26.395  0.0855 -0.0303 -0.2683
31826W        W32690   5.327   3.861  26.075  0.1293  0.0100 -0.0953
31827W        W32691   4.244   8.272  27.336  0.0874 -0.2050 -0.2243
31828W        W32692   6.966   8.555   0.592 -0.0353  0.1836  0.2621
31829W        W32693   2.864   4.400  27.162 -0.4098  0.1543  0.0738
31830W        W32694   5.857   4.488  27.089  0.0225  0.0135  0.0334
31831W        W32695   1.925   6.138  27.302 -0.0244 -0.4745 -0.0276
31832W        W32696   6.217   8.184  28.222  0.2551 -0.0776 -0.2674
31833W        W32697   4.240   9.013  28.383 -0.4015 -0.0748  0.0874
31834W        W32698   3.212   7.805  28.691  0.2801 -0.0583 -0.0166
31835W        W32699   6.961   4.402  28.032  0.2642  0.0341 -0.2016
31836W        W32700   3.834   5.804  26.635 -0.0327 -0.2903 -0.0220
31837W        W32701   8.300   5.420  24.461  0.1059  0.0566  0.1648
31838W        W32702   8.221   6.367  25.816 -0.3470 -0.1639  0.1322
31839W        W32703   6.844   7.894   1.102  0.3810  0.1727 -0.0339
31840W        W32704   8.351   5.779  27.854  0.0031 -0.2253 -0.5345
31841W        W32705   3.983   5.971  25.641 -0.2469 -0.0287  0.4160
31842W        W32706   5.062   6.563  24.629  0.1906 -0.1196  0.0794
31843W        W32707   3.800   3.467  27.429  0.1396  0.1509 -0.1238
31844W        W32708   5.718   5.661  28.368 -0.1851 -0.1131  0.0729
31845W        W32709   6.467   6.152  28.262 -0.5127  0.0389 -0.0119
31846W        W32710   3.936   5.317  26.483  0.1221  0.0261  0.1583
31847W        W32711   6.191   7.139   1.293  0.0849  0.2760  0.1851
31848W        W32712   3.917   6.329  24.680 -0.1379  0.0308  0.2085
31849W        W32713   6.340   9.013  27.467 -0.2485 -0.2665 -0.0974
31850W        W32714   8.367   5.540  26.491  0.2599  0.4061  0.1461
31851W        W32715   6.680   2.464  23.432 -0.0338 -0.1733 -0.0504
31852W        W32716   3.639   7.119  24.855  0.0277 -0.0982  0.0012
31853W        W32717   1.983   3.560  28.757 -0.1146  0.1382 -0.0849
31854W        W32718   5.571   5.544  25.140  0.0189 -0.1741  0.1941
31855W        W32719   7.062   4.619  24.882 -0.1770  0.0086 -0.3535
31856W        W32720   4.499   6.087  26.719 -0.0139  0.0776 -0.0550
31857W        W32721   5.021   6.296  25.159  0.0311 -0.2570 -0.2740
31858W        W32722   4.280   4.325  28.174  0.0211 -0.1007  0.1596
31859W        W32723   4.674   8.236  28.233 -0.1324 -0.1346 -0.2332
31860W        W32724   5.998   1.853  24.252  0.2891 -0.0514  0.3940
31861W        W32725   7.295   4.043  28.222  0.0838  0.0085  0.1154
31862W        W32726   6.389   5.107  25.282 -0.0040 -0.1045  0.2970
31863W        W32727   1.801   7.591  26.762  0.1866 -0.3555 -0.0222
31864W        W32728   5.823   4.207  24.890  0.3030 -0.2467 -0.2106
31865W        W32729   5.554   8.391  28.511  0.2674 -0.3186 -0.1435
31866W        W32730   5.800   6.145  27.072 -0.2129 -0.1846  0.0373
31867W        W32731   8.527   8.063  28.747  0.0494  0.1606 -0.2041
31868W        W32732   4.485   5.428  24.338  0.0031  0.0487 -0.0806
31869W        W32733   5.248   8.237  27.124  0.0304  0.4238 -0.2183
31870W        W32734   5.448   4.561  26.816  0.1491  0.0734  0.2483
31871W        W32735   8.493   3.814  25.033 -0.0453  0.1220  0.0137
31872W        W32736   7.209   6.772  28.116  0.0252 -0.2165  0.1159
31873W        W32737   1.739   5.928  26.826  0.0130 -0.0967  0.0421
31874W        W32738   6.658   7.487  28.924  0.3950  0.1367 -0.0254
31875W        W32739   5.425   4.254  28.003  0.1010  0.3719 -0.0629
31876W        W32740   3.177   4.761  27.461  0.2900 -0.0369  0.0048
31877W        W32741   5.356   5.883  28.093 -0.3157  0.1550  0.0565
31878W        W32742   2.259   4.330  28.674 -0.2675 -0.0096 -0.1104
31879W        W32743   5.615   3.062  26.056 -0.1098  0.1890 -0.2188
31880W        W32744   3.672   5.394  26.908  0.0155 -0.2058 -0.5253
31881W        W32745   7.668   5.308   0.439  0.1139 -0.0942 -0.3347
31882W        W32746   7.006   5.734  24.049  0.0100  0.0650 -0.1278
31883W        W32747   7.063   6.741   2.412 -0.3282  0.1731  0.2313
31884W        W32748   5.137   4.826   0.510  0.2062  0.0481 -0.1241
31885W        W32749   5.722   4.677  28.834 -0.0735  0.1253 -0.2348
31886W        W32750   7.490   2.460   1.900  0.2921 -0.1803 -0.2346
31887W        W32751   5.680   4.877  26.458 -0.1568 -0.1533 -0.1806
31888W        W32752   6.913   4.828  28.258  0.3423  0.0655  0.0572
31889W        W32753   3.804  10.859  27.852 -0.1980 -0.3480 -0.0101
31890W        W32754   6.352   4.568  26.315 -0.3458  0.3443 -0.1369
31891W        W32755   4.321   4.207  24.864 -0.2650 -0.0189  0.0849
31892W        W32756   6.371   4.150  24.853 -0.0050  0.2002 -0.0261
31893W        W32757   7.817   4.348  25.999  0.2873  0.4039 -0.2285
31894W        W32758   8.228   5.275  28.472  0.0670 -0.1492  0.0307
31895W        W32759   6.477   4.567  23.601  0.2152 -0.1582 -0.0602
31896W        W32760   4.573   5.332  27.208  0.0927 -0.0717  0.0182
31897W        W32761   5.677   6.737  26.379 -0.3244 -0.0208 -0.1317
31898W        W32762   2.439   4.511  24.200 -0.2130  0.0669  0.1173
31899W        W32763   4.993   4.338  26.217 -0.1466  0.1377  0.1963
31900W        W32764   8.745   8.102  26.087 -0.0538  0.0654 -0.0256
31901W        W32765   5.088   3.424  28.106  0.0731 -0.2695  0.3562
31902W        W32766   5.521   6.374  28.315 -0.0716 -0.1170 -0.2206
31903W        W32767   3.430   6.016  26.488  0.1366  0.0605 -0.1940
31904W        W32768   6.128   7.371   0.056 -0.0192 -0.0713 -0.0810
31905W        W32769   4.682   6.289  27.416 -0.0374  0.1350 -0.2584
31906W        W32770   5.232   5.695  27.566  0.0414  0.1231 -0.0437
31907W        W32771   3.652   6.563  27.076 -0.3424 -0.3524  0.2547
31908W        W32772   8.536   5.107  28.802  0.3846 -0.2566 -0.1415
31909W        W32773   5.777   3.414  27.374  0.0547  0.0007 -0.0527
31910W        W32774   3.797   8.549  28.514  0.1089  0.1027  0.1475
31911W        W32775   5.830   6.622  26.826 -0.0003 -0.0081 -0.0470
31912W        W32776   2.816   6.537  27.282  0.2050 -0.1596 -0.3073
31913W        W32777   5.090   4.000  27.619  0.0319 -0.2484  0.1191
31914W        W32778   5.965   3.067  29.100 -0.0415  0.0446  0.0872
31915W        W32779   4.089   5.424  26.011 -0.1551 -0.0607 -0.1338
31916W        W32780   6.162   6.829  25.362 -0.2153  0.1224  0.4891
31917W        W32781   7.714   5.651  25.875  0.0186  0.1424 -0.1146
31918W        W32782   3.992   6.205  26.251  0.1988  0.4319  0.3300
31919W        W32783   6.074   6.454  27.431 -0.3396 -0.3552  0.4239
31920W        W32784   7.315   9.161  26.541 -0.0728 -0.1205 -0.0921
31921W        W32785   4.330   6.707  26.005  0.1470  0.0022  0.2388
31922W        W32786   7.062   3.855  27.874  0.1728 -0.1179 -0.0574
31923W        W32787   2.742   3.870  25.456 -0.0439 -0.1088 -0.0989
31924W        W32788   7.601   6.012  27.907  0.3160 -0.0092  0.0794
31925W        W32789   8.762   7.097  26.418 -0.0815  0.3897 -0.2315
31926W        W32790   4.744   6.555  25.770  0.0003  0.2217  0.1729
31927W        W32791   5.623   5.565  27.021 -0.0214  0.0949  0.1519
31928W        W32792   6.489   4.576  28.183  0.0547  0.0406 -0.2093
31929W        W32793   4.859   7.161  28.199  0.0208  0.0464 -0.1505
31930W        W32794   6.154   3.887  27.050 -0.0412 -0.1863 -0.0888
31931W        W32795   5.961   5.759  27.431  0.2528  0.3812 -0.2057
31932W        W32796   1.648   4.695  26.533 -0.2448 -0.2347 -0.0960
31933W        W32797   6.672   5.806  27.590  0.3070 -0.0653 -0.0822
31934W        W32798   8.695   3.889  27.467 -0.0562  0.0152 -0.4108
31935W        W32799   4.337   3.374  27.888  0.1239  0.1096 -0.1655
31936W        W32800   6.919   8.755  27.310  0.1173 -0.1736 -0.0346
31937W        W32801   1.946   6.730  26.039  0.1513 -0.3069 -0.3540
31938W        W32802   5.430   4.288  26.340 -0.0533 -0.2788 -0.0143
31939W        W32803   2.642   7.583  24.665  0.0546 -0.1139 -0.1593
31940W        W32804   3.529   6.825  25.309 -0.2499  0.1743  0.0698
31941W        W32805   4.031   9.639  28.512  0.2360 -0.0343 -0.1999
31942W        W32806   6.638   2.983  23.708  0.0341  0.1150 -0.1095
31943W        W32807   6.524   2.851  24.743 -0.0848 -0.1549  0.2703
31944W        W32808   5.627   6.838  28.098 -0.3057 -0.2508 -0.3024
31945W        W32809   5.957   7.778   0.316  0.0869  0.0504 -0.0833
31946W        W32810   2.346   3.728  26.955  0.0692  0.0098  0.2272
31947W        W32811   9.823   8.790   0.728  0.1160  0.2732 -0.1114
31948W        W32812   1.899   3.192  26.339 -0.5030  0.3006 -0.2973
31949W        W32813   3.554   7.373  26.526 -0.1696 -0.1511  0.2647
31950W        W32814   4.950   4.326  22.134  0.0262  0.0191 -0.1015
31951W        W32815   7.091   4.087   0.095  0.0691 -0.5164  0.0391
31952W        W32816   4.415   3.165  26.928 -0.4335 -0.0076  0.1261
31953W        W32817   3.078   5.220  27.136 -0.2888  0.2455 -0.0035
31954W        W32818   1.481   4.371  25.752 -0.0047  0.0084 -0.0632
31955W        W32819   3.037   4.304  25.490 -0.3083 -0.0164 -0.2108
31956W        W32820   3.352   4.507  27.072 -0.0709 -0.1518 -0.1857
31957W        W32821   5.578   2.680  27.972 -0.0865 -0.0583  0.2751
31958W        W32822   2.911   6.135  28.644  0.0970  0.0678  0.0278
31959W        W32823   7.180   5.018  28.846 -0.0281  0.1856 -0.0196
31960W        W32824   6.945   3.563   0.016 -0.0659  0.0895  0.0231
31961W        W32825   4.409   3.259   1.458  0.3268  0.4237 -0.0407
31962W        W32826   3.431   3.910  27.820  0.0002  0.0976 -0.0425
31963W        W32827   3.800   3.604  25.478  0.0235 -0.1603  0.2773
31964W        W32828   1.896   7.561  23.761  0.0785 -0.2401  0.2895
31965W        W32829   5.393   6.286  26.286 -0.3689 -0.0237 -0.2015
31966W        W32830   5.156   7.166  23.408 -0.0832  0.3197 -0.0899
31967W        W32831   4.497   3.907  28.007 -0.0391 -0.0320 -0.2585
31968W        W32832   7.327   4.896  27.944  0.2001 -0.0228  0.2425
31969W        W32833   4.193   3.161  27.460 -0.1569 -0.0204 -0.1908
31970W        W32834   6.352   7.321  25.217 -0.2569 -0.2256 -0.0749
31971W        W32835   4.030   6.241  26.800 -0.1799 -0.1101 -0.0417
31972W        W32836   4.609   6.198  28.003 -0.0052  0.5818  0.1346
31973W        W32837   4.961   8.961  25.566  0.0225 -0.1350 -0.3123
31974W        W32838   4.380   8.982  26.083 -0.1867  0.0200  0.0457
31975W        W32839   1.571   9.760  24.664  0.0645  0.0381 -0.1049
31976W        W32840   4.409   5.757  25.757  0.0718  0.3288 -0.2821
31977W        W32841   4.401   7.111  25.072  0.1059 -0.0703 -0.1774
31978W        W32842   6.779   5.829  26.003  0.0151 -0.1925 -0.2317
31979W        W32843   4.362   4.520  25.288 -0.2131  0.1263 -0.1961
31980W        W32844   3.174   4.349  24.690  0.2250  0.1768  0.0982
31981W        W32845   3.757   5.425  25.540  0.2234  0.0350 -0.0978
31982W        W32846   8.493   4.236   1.468 -0.2505  0.1360  0.3926
31983W        W32847   7.834   4.258  23.361 -0.3794  0.0525  0.1368
31984W        W32848   3.584   4.918  22.986  0.0651 -0.3687  0.0796
31985W        W32849   5.316   6.882  29.126 -0.0717  0.0233  0.0412
31986W        W32850   6.932   8.345  23.705 -0.1204  0.0103  0.0015
31987W        W32851   5.976   7.084  24.325 -0.2525  0.1335 -0.0837
31988W        W32852   2.912   5.314  25.166 -0.1043  0.0439  0.1435
31989W        W32853   2.760   5.092  27.505  0.0191  0.0319 -0.0339
31990W        W32854   4.114   4.850   1.217  0.2622 -0.2423  0.0460
31991W        W32855   4.209   2.260  26.284 -0.0211  0.4804  0.0558
31992W        W32856   5.362   4.712  26.057 -0.4973 -0.0092  0.2654
31993W        W32857   5.580   4.085  26.880 -0.1165 -0.2390  0.0921
31994W        W32858   4.866   5.796  28.097  0.1715  0.1195 -0.0234
31995W        W32859   2.784   2.499  24.165  0.1960  0.0938  0.0533
31996W        W32860   6.704   3.761  27.510  0.1590  0.1984  0.0927
31997W        W32861   1.949   4.572  27.008 -0.0555  0.1504 -0.0955
31998W        W32862   4.146   3.093  28.228 -0.0760 -0.2390  0.0769
31999W        W32863   8.821   5.704  24.599  0.1812 -0.1240 -0.0473
32000W        W32864   3.151   3.710  27.519 -0.0158 -0.1655  0.2285
32001W        W32865   7.095   3.322  27.579 -0.1186  0.1805  0.2182
32002W        W32866   3.018   3.833  24.498  0.0266  0.3440 -0.0388
32003W        W32867   4.643   7.244  27.682 -0.0129 -0.1052  0.0760
32004W        W32868   5.154   4.844  26.500  0.0921 -0.0991  0.1227
32005W        W32869   5.986   7.044  27.095  0.1530  0.2255  0.2920
32006W        W32870   3.037   4.765  24.974 -0.1217 -0.2402 -0.0292
32007W        W32871   4.076   5.168  27.115  0.1967 -0.0111 -0.2093
32008W        W32872   6.372   2.788  28.810 -0.3349  0.0382  0.1270
32009W        W32873   4.017   8.003  28.348 -0.1011  0.2352  0.0541
32010W        W32874   6.797   0.085  25.291 -0.1809 -0.2879  0.3326
32011W        W32875   6.215   4.816  28.812  0.2983  0.1370  0.0202
32012W        W32876   6.258   5.812  28.539 -0.1256  0.1790 -0.1248
32013W        W32877   4.400   4.256  27.535  0.1904 -0.2128  0.0752
32014W        W32878   8.096   6.900  25.702  0.0684  0.1341  0.1541
32015W        W32879   5.629   4.185  29.025  0.2829 -0.1956  0.3238
32016W        W32880   4.405   6.598  27.040 -0.2362 -0.3125 -0.3454
32017W        W32881   5.018   2.928  25.415  0.0494 -0.2024  0.0731
32018W        W32882   9.034   6.291   0.511 -0.1623  0.1925  0.0187
32019W        W32883   6.799   8.157  28.862  0.1135 -0.0968  0.0379
32020W        W32884   7.273   3.453  24.883  0.2743 -0.2662 -0.2481
32021W        W32885   7.431   7.292  26.354  0.0775 -0.2017  0.0357
32022W        W32886   1.511   3.756  29.046 -0.3754 -0.2834 -0.2912
32023W        W32887   5.752   7.150  29.034 -0.1648  0.5259  0.2696
32024W        W32888   7.533   3.257  26.599 -0.0891 -0.0370 -0.3337
32025W        W32889   8.590   9.442  24.593 -0.3605  0.1082  0.2155
32026W        W32890   6.474   5.451  27.191  0.2203 -0.1434  0.0356
32027W        W32891   4.057   5.199  28.583  0.0139  0.0399 -0.0730
32028W        W32892   6.801   5.270  29.034 -0.2316  0.0804  0.2689
32029W        W32893   4.249   3.359  24.570  0.0062  0.0235  0.3696
32030W        W32894   6.940   6.239  25.744 -0.0371  0.2586  0.3953
32031W        W32895   2.636   3.672  26.513  0.2750 -0.3826 -0.3595
32032W        W32896   4.599   6.940  26.521  0.1237  0.0239 -0.2626
32033W        W32897  10.610   4.340  28.056 -0.0250  0.1504  0.1613
32034W        W32898   3.426   3.869  25.970  0.0375  0.0702  0.5141
32035W        W32899   6.724   5.895  27.009 -0.2618 -0.1861 -0.2837
32036W        W32900   7.246   7.262  27.841  0.3801  0.0108  0.2616
32037W        W32901   5.775   7.206  28.417  0.0398 -0.2146 -0.1451
32038W        W32902   2.283   5.727  28.499  0.2364  0.1450 -0.3195
32039W        W32903   2.249   5.934  26.031  0.0117 -0.3924  0.0702
32040W        W32904   5.433   2.262  26.242  0.1935 -0.0376  0.0808
32041W        W32905   5.195   4.845  27.236  0.0503  0.1491  0.0816
32042W        W32906   3.469   6.949  28.521  0.0826  0.0966 -0.1622
32043W        W32907   5.633   5.461  27.892 -0.2835  0.4713 -0.0045
32044W        W32908   6.021   5.274  27.512  0.1113  0.1490 -0.1327
32045W        W32909   5.220   7.682  26.254  0.0334  0.0608 -0.1310
32046W        W32910   4.939   4.348  24.060  0.0487  0.2002 -0.2166
32047W        W32911   2.578   6.459  26.715 -0.2949 -0.2821 -0.2601
32048W        W32912   5.323   6.400  26.763 -0.1840 -0.0834 -0.1224
32049W        W32913   7.086   8.066   0.108 -0.2441 -0.2072  0.0840
32050W        W32914   8.038   5.765  28.671 -0.3103  0.2287  0.0826
32051W        W32915   5.912   6.713  23.472 -0.0679  0.0096 -0.1460
32052W        W32916   7.854   8.151  25.161 -0.0740  0.0348 -0.3434
32053W        W32917   7.690   4.813  26.748 -0.2091  0.0182 -0.0902
32054W        W32918   2.388   4.311  26.841  0.3001 -0.2334 -0.1112
32055W        W32919   5.129   7.651  27.670  0.0672 -0.3060 -0.1922
32056W        W32920   4.391   5.031  27.549 -0.1457  0.0336 -0.0680
32057W        W32921   4.887   4.490  26.765 -0.1283 -0.3875 -0.2235
32058W        W32922   5.256   2.849  28.837 -0.2287 -0.1123  0.1009
32059W        W32923   7.418   5.428  27.894 -0.0870 -0.1458  0.0021
32060W        W32924   4.790   4.283  27.927 -0.0065 -0.1128  0.0901
32061W        W32925   4.005   7.858  26.957 -0.1981  0.1370  0.3718
32062W        W32926   6.002   7.489   1.621  0.2259  0.0195 -0.2707
32063W        W32927   2.684   4.713  26.595  0.0309  0.0949 -0.1093
32064W        W32928   5.072   4.713  28.031 -0.0445  0.1418 -0.2281
32065W        W32929   5.498   5.106  28.214  0.1493 -0.4316 -0.2343
32066W        W32930   8.362   5.737  25.462 -0.4681  0.0161  0.2604
32067W        W32931   3.623   7.403  23.328 -0.0684 -0.1909  0.2321
32068W        W32932   4.328   4.502  26.997  0.0653 -0.0173  0.0525
32069W        W32933   5.032   6.302  28.194 -0.5261 -0.1355  0.0430
32070W        W32934   6.360   6.026   1.170  0.1089 -0.0308  0.1114
32071W        W32935   7.065   9.814   0.494 -0.0953  0.0269  0.0176
32072W        W32936   6.517   4.237  27.822 -0.0835  0.0510  0.4235
32073W        W32937   0.534   3.355  29.025  0.0595  0.0225  0.1993
32074W        W32938   3.530   6.465  24.956  0.1042 -0.0770  0.1193
32075W        W32939   4.733   6.068  25.540 -0.0632  0.2120 -0.6166
32076W        W32940   5.525   7.711  28.652 -0.2502 -0.0169 -0.0195
32077W        W32941   5.999   5.008  28.013 -0.1850 -0.1168 -0.1740
32078W        W32942   5.938   5.466  24.118 -0.1600  0.3489 -0.0716
32079W        W32943   4.279   3.729  27.508  0.1992  0.2132 -0.1109
32080W        W32944   3.243   8.269   0.377 -0.0739  0.0659  0.0576
32081W        W32945   4.632   7.597  25.756 -0.2063 -0.0568 -0.0197
32082W        W32946   6.458   1.854  28.018  0.3137  0.1813 -0.0072
32083W        W32947   7.316   4.649  27.486 -0.0342 -0.2320  0.1912
32084W        W32948   5.109   6.546  28.768  0.0181 -0.3394  0.1749
32085W        W32949   5.038   4.052  25.759  0.2812 -0.1878 -0.0984
32086W        W32950   9.401   5.104  26.824 -0.0247  0.3542  0.0014
32087W        W32951   4.351   5.688  27.957 -0.0855 -0.3163  0.1489
32088W        W32952   6.066   4.808  25.581  0.0728  0.2606 -0.0439
32089W        W32953   4.271   5.765  26.375 -0.1302  0.2876  0.1159
32090W        W32954   4.243   4.779  28.434  0.1428  0.1583 -0.0396
32091W        W32955   7.144   9.104  28.070 -0.2638 -0.1607 -0.2599
32092W        W32956   4.668   3.921  24.794  0.4586  0.4873 -0.0189
32093W        W32957   3.677   2.536  25.600 -0.1660  0.1393 -0.0619
32094W        W32958   8.601   8.209  27.068 -0.2013 -0.1500 -0.1765
32095W        W32959   4.432   3.559  25.392 -0.3237 -0.2786  0.2010
32096W        W32960   3.735   8.917  24.060  0.1625 -0.0797  0.0036
32097W        W32961   5.414   5.915  26.736 -0.1564 -0.4841 -0.2724
32098W        W32962   7.064   2.735   0.502 -0.0892  0.1656  0.1113
32099W        W32963   4.191   8.097  27.876 -0.0153 -0.0440  0.3289
32100W        W32964   4.839   7.289  26.220  0.0214 -0.0698  0.1442
32101W        W32965   7.045   5.538  27.195  0.2091 -0.0496  0.2052
32102W        W32966   7.939   7.005   0.225  0.0670 -0.0910 -0.0018
32103W        W32967   7.676   6.126  27.413  0.0036 -0.0035 -0.0453
32104W        W32968   4.817   4.392  25.170  0.0085 -0.1196 -0.0788
32105W        W32969   4.214   7.173  27.187 -0.0962 -0.3017 -0.1717
32106W        W32970   5.672   6.125  27.586  0.0233  0.0778 -0.0451
32107W        W32971   7.390   4.728  24.565  0.0083 -0.0144 -0.0514
32108W        W32972   5.182   7.706  29.008  0.3532  0.0216 -0.2038
32109W        W32973   4.542   4.371  25.761  0.1389 -0.1601  0.1146
32110W        W32974   4.945   6.064  26.948  0.1080  0.1453  0.1335
32111W        W32975   4.747   8.918  27.527 -0.1257 -0.2595 -0.3440
32112W        W32976   6.739   7.085  28.554  0.1045  0.0840  0.3396
32113W        W32977   5.583   3.549  26.942  0.1171  0.3311  0.1640
32114W        W32978   6.709   4.524  27.363  0.2230 -0.1949 -0.0592
32115W        W32979   4.272   6.441  28.778 -0.0386  0.2351 -0.2285
32116W        W32980   2.976   6.829  26.784 -0.1082  0.0313 -0.2152
32117W        W32981   2.578   7.493  28.670 -0.3604  0.1364  0.0848
32118W        W32982   6.905   6.718  25.922  0.1366 -0.0108  0.1208
32119W        W32983   6.542   5.314  27.734  0.0858 -0.0799  0.2909
32120W        W32984   5.880   5.343  26.581  0.0216 -0.2835 -0.0251
32121W        W32985   4.295   3.578  23.249  0.1631 -0.3148  0.2731
32122W        W32986   2.559   7.988  28.669  0.0709  0.1490  0.2562
32123W        W32987   8.448   3.321  25.314 -0.2666  0.0278 -0.0824
32124W        W32988   2.254   7.245  25.118  0.0170  0.0994  0.0392
32125W        W32989   7.441   3.676  26.237 -0.0630  0.2782 -0.2183
32126W        W32990   6.117   5.773  26.910  0.1030  0.3159  0.2854
32127W        W32991   5.634   5.561   0.195 -0.1702  0.1636  0.1708
32128W        W32992  10.210   4.317  23.856 -0.2165 -0.0145  0.2505
32129W        W32993   8.863   6.564   0.084 -0.1438 -0.1902  0.2113
32130W        W32994   6.461   6.826   1.522  0.1093 -0.4480  0.3579
32131W        W32995   7.167   6.412   0.234  0.0318  0.2282 -0.0417
32132W        W32996   7.982   7.267  28.889  0.2606  0.2942 -0.0782
32133W        W32997   5.596   7.994  25.706 -0.4008  0.1402 -0.3121
32134W        W32998   5.156   6.972  26.433 -0.0027  0.1057 -0.1802
32135W        W32999   5.872   4.846  26.020  0.1052 -0.0841  0.3042
32136W        W33000   5.566   3.926  24.513 -0.1843  0.0419  0.2783
32137W        W33001   5.214   5.765  26.067  0.1535  0.1612 -0.3250
32138W        W33002   6.191   6.649   1.115  0.3539 -0.1423  0.0344
32139W        W33003   4.532   4.031  25.370 -0.2350  0.0190  0.0579
32140W        W33004   5.113   7.341  26.758  0.0979 -0.0918  0.1806
32141W        W33005   4.753   5.728  26.216  0.2588  0.2334 -0.1159
32142W        W33006   3.379   6.049  28.599 -0.2471 -0.0305  0.2603
32143W        W33007   3.743   3.572  26.213 -0.0607  0.0996 -0.0624
32144W        W33008   4.095   4.652  24.875 -0.0581  0.0428 -0.0664
32145W        W33009   2.648   5.558  26.258 -0.5336 -0.4780 -0.1407
32146W        W33010   5.557   4.856  25.583 -0.2669 -0.0534  0.0050
32147W        W33011   5.889   5.102  27.027 -0.0134 -0.0634  0.0355
32148W        W33012   4.338   6.038  25.297 -0.0523 -0.0047 -0.1789
32149W        W33013   8.378   7.432  26.664  0.0487  0.3927  0.2556
32150W        W33014   6.587   6.549   0.167  0.0008  0.0321 -0.1369
32151W        W33015   4.256   7.739  27.416 -0.2866  0.2332  0.2926
32152W        W33016   4.696   3.420  24.951  0.2095  0.0457  0.4439
32153W        W33017   6.443   5.064  26.779 -0.0068  0.0513 -0.1250
32154W        W33018   5.962   5.098   2.253  0.2162  0.3226 -0.2454
32155W        W33019   3.797   3.336  28.530  0.4078 -0.2947  0.1914
32156W        W33020   5.929   2.336  24.397  0.0555 -0.1201  0.0070
32157W        W33021   5.143   4.195  28.552  0.1485 -0.2359 -0.0344
32158W        W33022   7.704   8.035  28.211  0.1094  0.3065 -0.1727
32159W        W33023   4.679   3.912  27.271 -0.1951 -0.1213 -0.0530
32160W        W33024   4.827   3.622  27.725 -0.0788 -0.1316  0.0703
32161W        W33025   7.470   8.726  28.907 -0.1966  0.3187  0.1351
32162W        W33026   4.952   6.545   2.384 -0.3223 -0.0913  0.3111
32163W        W33027   5.538   6.528  27.284 -0.2764  0.2088 -0.0911
32164W        W33028   6.762   8.235  27.568  0.2375 -0.0013 -0.0630
32165W        W33029   2.130   6.639  26.593  0.2421  0.1875 -0.4475
32166W        W33030   5.120   3.987  26.719 -0.3054  0.0794 -0.0751
32167W        W33031   3.926   7.019  25.887  0.0215  0.1066  0.2041
32168W        W33032   5.189   4.768  25.052  0.2419 -0.1405 -0.2035
32169W        W33033   4.506   4.103  26.786 -0.1188 -0.0479 -0.2190
32170W        W33034  10.386   3.588  27.602 -0.2417 -0.1093  0.1426
32171W        W33035   5.158   4.497  23.121  0.0576  0.2850  0.2432
32172W        W33036   3.266   6.812  27.168 -0.1016  0.0737  0.3782
32173W        W33037   3.797   4.486  28.561  0.0861  0.1826  0.1076
32174W        W33038   8.707   6.985  27.533  0.4518  0.1472  0.3264
32175W        W33039   6.772   2.722  26.871 -0.3306  0.1725 -0.0880
32176W        W33040   0.887   4.133  26.737 -0.0390  0.0545 -0.2112
32177W        W33041   3.663   6.598  26.081  0.1277  0.1057  0.0329
32178W        W33042   6.251   4.315  27.410 -0.0220 -0.1157  0.1301
32179W        W33043   3.500   5.947  24.733  0.2325  0.2431 -0.0090
32180W        W33044   6.769   7.123  27.988 -0.3211  0.0624 -0.0570
32181W        W33045   9.215   7.405   1.816  0.0598  0.1861 -0.3008
32182W        W33046   4.946   5.055  28.892  0.3669  0.0611 -0.1733
32183W        W33047   4.721   5.649  26.714  0.0226  0.1488  0.1105
32184W        W33048   4.497   5.866  27.172 -0.2847  0.2679 -0.0558
32185W        W33049   1.417   8.317  25.745  0.0477  0.1674 -0.1767
32186W        W33050   7.353   4.246  26.308  0.0190  0.0176 -0.2098
32187W        W33051   3.615   7.498  28.737  0.1192  0.0829  0.1487
32188W        W33052   5.122   6.527   0.222 -0.3060 -0.0350 -0.2991
32189W        W33053   6.497   6.605  28.680  0.1147  0.0335 -0.0520
32190W        W33054   6.836   5.872  28.629 -0.0120 -0.0139  0.0312
32191W        W33055   8.039   5.196   0.008  0.0024 -0.0615  0.1448
32192W        W33056   7.533   7.251   0.037  0.3513 -0.0919  0.0617
32193W        W33057   5.644   7.945  27.240 -0.1501 -0.0719 -0.1109
32194W        W33058   3.226  10.355  28.039  0.1313 -0.1706 -0.0281
32195W        W33059   5.050   8.674  26.160 -0.0370  0.3295 -0.0733
32196W        W33060   3.088   5.090  22.947 -0.0800 -0.3609  0.0852
32197W        W33061   3.074  11.429   3.123  0.0577 -0.0617 -0.0657
32198W        W33062   3.271   8.961   3.112  0.0989  0.0069 -0.2294
32199W        W33063   5.070  11.002   0.647  0.1109  0.3583  0.2047
32200W        W33064   8.961  11.472   4.744 -0.0446  0.0548  0.0672
32201W        W33065   4.932   9.705  28.555 -0.0634  0.1013 -0.3700
32202W        W33066   7.004   8.287   1.373  0.1455  0.1479 -0.1043
32203W        W33067   5.183   9.522  28.119 -0.0303  0.0860 -0.1338
32204W        W33068   5.585   9.335   0.053  0.1737  0.1897 -0.2840
32205W        W33069   3.397   9.836   4.645  0.1327  0.1976 -0.0469
32206W        W33070   3.774   6.632   3.078 -0.1590 -0.0796 -0.1855
32207W        W33071   6.276   8.501   1.332  0.1309  0.3216  0.3598
32208W        W33072   2.860   3.935  27.862  0.2571  0.2031  0.3214
32209W        W33073   7.580   6.523  28.433  0.0997  0.3253  0.2450
32210W        W33074   6.977   7.224   4.232 -0.3661  0.2971 -0.0444
32211W        W33075   2.389   7.995   2.897 -0.1953 -0.1228 -0.0802
32212W        W33076   1.369   9.779   4.166 -0.2538 -0.0984  0.0232
32213W        W33077   3.885   8.774   1.433 -0.0867  0.1654 -0.0781
32214W        W33078   4.751  10.607   5.126  0.1225 -0.2167 -0.2116
32215W        W33079   5.692   7.701   6.104 -0.0485  0.1292 -0.0031
32216W        W33080   7.322   9.017   3.682  0.2879 -0.0302  0.0570
32217W        W33081   7.846  11.266   1.856  0.1641  0.1712  0.2706
32218W        W33082   3.691   8.103   0.183 -0.0640 -0.1239 -0.1823
32219W        W33083   5.867   9.612   4.370 -0.0008 -0.0912  0.0320
32220W        W33084   4.567   7.945   2.205  0.0590  0.0513 -0.0451
32221W        W33085   2.776   8.713   0.858  0.0801  0.0400  0.0115
32222W        W33086   5.437   9.867   1.234 -0.2198  0.0718 -0.0203
32223W        W33087   6.790   8.491   4.745 -0.1475 -0.0419 -0.1010
32224W        W33088   4.698  11.325   1.584  0.1069 -0.0844  0.0269
32225W        W33089   4.968   9.379   1.890  0.2754  0.1405  0.1423
32226W        W33090   5.408   7.175   4.915 -0.1758  0.0457  0.1342
32227W        W33091   3.886   9.606   3.247  0.1187 -0.2780  0.0083
32228W        W33092   4.524  12.732   3.618  0.2603  0.0592  0.0329
32229W        W33093   5.506   9.968   2.338  0.0902  0.4539 -0.0840
32230W        W33094   4.688  11.504   5.268  0.1159  0.0911  0.0850
32231W        W33095   6.140   9.990   2.565  0.1315  0.1248  0.3011
32232W        W33096   6.359  10.133   2.092 -0.0042  0.1691  0.0185
32233W        W33097   4.578   9.016   2.071 -0.1412  0.2096 -0.2544
32234W        W33098   4.057  10.248   1.536 -0.1345  0.0621 -0.0140
32235W        W33099   8.860  11.046   2.287  0.3065 -0.1862  0.0833
32236W        W33100   4.662   7.188   2.773  0.0658  0.2561 -0.0540
32237W        W33101   6.281   9.107   0.557  0.1245 -0.0791 -0.0758
32238W        W33102   6.815  11.534   3.600  0.2161 -0.1328 -0.0628
32239W        W33103   6.253  10.996   0.480  0.0515  0.3604 -0.0823
32240W        W33104   4.935  10.836   3.650 -0.0907  0.1640 -0.2726
32241W        W33105   5.331  11.115  29.043 -0.1725  0.2750  0.2416
32242W        W33106   4.354  10.937   1.448 -0.1425  0.0015 -0.1586
32243W        W33107   5.141  10.158   2.626 -0.0398  0.2006  0.1932
32244W        W33108   7.527   8.940   4.204  0.2517 -0.3260  0.2338
32245W        W33109   7.363  11.342   2.845  0.2759 -0.0055 -0.1651
32246W        W33110   3.983   9.623  26.199  0.3763 -0.1698  0.0029
32247W        W33111   6.434   9.894   2.941 -0.1534 -0.1306 -0.0317
32248W        W33112   3.804   2.994   2.639 -0.0130  0.0686  0.1263
32249W        W33113   9.270  12.674   2.696 -0.3156 -0.1007  0.2776
32250W        W33114   7.118  10.002   2.666 -0.0952  0.1628  0.1010
32251W        W33115   3.837   6.972   3.648 -0.0387 -0.4694 -0.1906
32252W        W33116   5.248  10.759   2.010  0.1166 -0.4037  0.0974
32253W        W33117   4.243   7.477  29.123 -0.0321  0.2041  0.0362
32254W        W33118   5.616   9.017   4.443 -0.1048 -0.0919 -0.1732
32255W        W33119   4.032  11.323   2.140  0.2303  0.1214  0.0886
32256W        W33120   4.816   8.917   0.342  0.1669 -0.0174 -0.0157
32257W        W33121   4.490   9.474  28.783 -0.1616 -0.0265 -0.0792
32258W        W33122   3.539   9.050   1.751  0.0744 -0.0461  0.0143
32259W        W33123   3.506  10.183   1.492 -0.2084 -0.1725 -0.1563
32260W        W33124   4.670  11.117   0.390  0.0079  0.1696  0.0469
32261W        W33125   3.328   8.633   2.034 -0.0851  0.2861  0.0562
32262W        W33126   7.186   9.437   2.970 -0.1940 -0.1105  0.1680
32263W        W33127   2.861  11.155  27.912 -0.1681  0.1214 -0.1883
32264W        W33128   5.748   8.033   2.005 -0.1044  0.1412  0.0541
32265W        W33129   5.286  11.039   2.770 -0.0653  0.0908  0.1554
32266W        W33130   3.930   8.403   2.449 -0.0092 -0.0876 -0.0873
32267W        W33131   7.716  12.487   4.757 -0.3002 -0.2479 -0.1448
32268W        W33132   5.460   8.010   1.627  0.2946 -0.1288  0.2464
32269W        W33133   6.522  10.588   2.189  0.0462  0.0039  0.0500
32270W        W33134   3.837   8.440   4.387 -0.1313  0.0271 -0.0693
32271W        W33135   8.103  10.018   0.981  0.2933 -0.3680  0.2504
32272W        W33136   6.621  10.246   4.225 -0.0365 -0.0368  0.1315
32273W        W33137   3.257   9.594  28.290  0.2552  0.1399 -0.0146
32274W        W33138   7.860   8.258   3.951  0.1413  0.1406  0.0000
32275W        W33139   8.032   9.712  28.507  0.3080 -0.3822 -0.4414
32276W        W33140   6.459   8.514   2.310  0.0708 -0.1697  0.2329
32277W        W33141   6.157   8.968   1.549 -0.0799  0.2295 -0.1891
32278W        W33142   5.503   8.136   3.807  0.0781 -0.2540 -0.0947
32279W        W33143   4.977   7.944   1.911  0.1351 -0.0042  0.1081
32280W        W33144   6.119   8.058   2.393 -0.1668  0.1810 -0.0149
32281W        W33145   6.520   8.814   3.062 -0.0345  0.2122 -0.0565
32282W        W33146   2.378   9.918  27.629  0.1205 -0.0967  0.0607
32283W        W33147   6.100   8.721   3.352 -0.1921  0.1370  0.1338
32284W        W33148   4.534   6.592   4.013  0.0851 -0.3611 -0.2300
32285W        W33149   7.501  10.014   1.286 -0.2375 -0.5343 -0.2245
32286W        W33150   5.810   6.454   3.643  0.0122 -0.0899 -0.0180
32287W        W33151   3.972   8.248   2.964 -0.0672  0.0346  0.0803
32288W        W33152   7.725   8.422   4.417 -0.2765 -0.1077 -0.4835
32289W        W33153   7.258  10.131  28.342  0.0287  0.1422  0.0505
32290W        W33154   5.352   8.854   1.346  0.2202  0.1972 -0.0791
32291W        W33155   6.371   4.818   2.133 -0.2458  0.1420 -0.0041
32292W        W33156   6.452   7.074   0.841 -0.2332  0.0562  0.0976
32293W        W33157   6.207  11.887   0.237  0.1868 -0.0865 -0.1539
32294W        W33158   4.223  12.346   2.253  0.0611  0.0589  0.1138
32295W        W33159   9.027   7.971  28.347  0.1917  0.2038  0.1584
32296W        W33160   6.260  10.660   1.463  0.0424 -0.1303 -0.0669
32297W        W33161   5.944   9.587   0.282  0.0069  0.2624  0.1019
32298W        W33162   5.072   8.101   2.469 -0.0021 -0.1637 -0.2122
32299W        W33163   7.625  12.082   3.861 -0.1177  0.1359 -0.2560
32300W        W33164   5.990   6.791   1.608 -0.0199 -0.0179 -0.0724
32301W        W33165   6.948   7.800   4.985  0.1969 -0.0302  0.0501
32302W        W33166   4.423  11.440  27.003 -0.1658 -0.1329 -0.0978
32303W        W33167   7.028   7.258   5.845  0.0524 -0.1985  0.2358
32304W        W33168   5.293   5.908   2.874  0.3799  0.0292 -0.3641
32305W        W33169   3.188   7.069   1.103  0.1086  0.1810 -0.0465
32306W        W33170   6.331   8.788   0.044  0.0186  0.0209  0.0926
32307W        W33171   8.628   8.791   0.875 -0.3260 -0.3259  0.0236
32308W        W33172   4.891   8.164   0.161 -0.0090  0.3043  0.2634
32309W        W33173   5.087   9.195   2.318  0.0008 -0.0393  0.1516
32310W        W33174   6.076  12.440   0.134  0.0789 -0.0631 -0.0850
32311W        W33175   5.567   7.663   0.611  0.1408  0.0735  0.0797
32312W        W33176   5.652   7.360   3.252 -0.1432  0.0338  0.0389
32313W        W33177   5.599  10.379   2.730 -0.0580  0.1624 -0.2446
32314W        W33178   4.646   9.422   3.236  0.3287 -0.0229 -0.0270
32315W        W33179   7.720   9.439   2.927  0.1498 -0.0495  0.4057
32316W        W33180   7.721   7.178   2.159 -0.0386 -0.1380 -0.0058
32317W        W33181   6.984  11.278  28.496  0.0499  0.0254  0.0277
32318W        W33182   5.143   9.967   0.839 -0.0932 -0.0902 -0.3379
32319W        W33183   2.953   8.540   2.996 -0.0822 -0.0313  0.1744
32320W        W33184   3.982  11.510   2.881 -0.1856 -0.0581 -0.0335
32321W        W33185   7.334   7.276   2.475 -0.1259 -0.2399  0.1792
32322W        W33186   4.861   7.404   3.691 -0.1443 -0.4847  0.0672
32323W        W33187   8.660   9.203   3.506  0.0965 -0.1533 -0.0126
32324W        W33188   7.090  12.183  29.016  0.1951  0.2731  0.1529
32325W        W33189   5.967   9.745  28.340 -0.0790  0.3414 -0.0185
32326W        W33190   5.751   8.162   0.521  0.0539 -0.1021 -0.1837
32327W        W33191   5.345   7.949   0.237 -0.2502 -0.2202  0.0023
32328W        W33192   5.661   9.076   1.748  0.0225  0.4711  0.0077
32329W        W33193   4.290   6.950   2.641  0.1727 -0.1220 -0.1701
32330W        W33194   7.050  11.442   2.404  0.2884 -0.1951 -0.0253
32331W        W33195   2.097   7.857   2.162 -0.0309 -0.3796 -0.1791
32332W        W33196   5.208   6.992   3.018 -0.0656  0.1901  0.1551
32333W        W33197   5.354   8.225   4.292 -0.0282  0.1631 -0.0323
32334W        W33198   4.921  11.421  27.087 -0.0226  0.0327  0.0698
32335W        W33199   5.316  10.846   1.386  0.0312  0.1768 -0.1153
32336W        W33200   5.613   6.326   0.535  0.1480 -0.3687  0.0714
32337W        W33201   4.948   7.515  28.610 -0.4135  0.3154  0.2345
32338W        W33202   4.064  12.738  28.206  0.2200 -0.0336  0.2003
32339W        W33203   4.828  10.820   1.478  0.1175  0.0223  0.0333
32340W        W33204   6.412  10.916   3.008 -0.1836  0.0763 -0.3413
32341W        W33205   3.692  10.441   0.124  0.1278  0.1953 -0.1449
32342W        W33206   7.240   9.369   4.087 -0.2801  0.1212  0.0106
32343W        W33207   5.860  10.634   0.460 -0.3504 -0.4132  0.1760
32344W        W33208   4.906  10.269  27.730  0.2565 -0.1095 -0.0771
32345W        W33209   7.061   9.065  29.043 -0.0326 -0.0110 -0.1344
32346W        W33210   8.359   7.491   1.474  0.3527 -0.3239  0.0215
32347W        W33211   4.649   6.293   0.275  0.1939 -0.1420  0.1000
32348W        W33212   3.486  10.727   2.644 -0.1209  0.1157 -0.0296
32349W        W33213   3.780   5.803   0.792  0.1699 -0.0561 -0.2474
32350W        W33214   5.629   9.904   2.843  0.0731  0.0080 -0.0413
32351W        W33215   4.338   8.380   2.047 -0.2959  0.1014 -0.1874
32352W        W33216   3.403   9.716   1.606 -0.1718  0.0901 -0.0910
32353W        W33217   7.545   9.116   0.976 -0.0882 -0.0166  0.3619
32354W        W33218   2.915   8.146  26.817  0.1111  0.1181  0.0840
32355W        W33219   6.937   9.990   1.259  0.1880  0.1158  0.0058
32356W        W33220   4.234   8.113   4.546 -0.1162 -0.0972 -0.1158
32357W        W33221   4.099   9.331   2.431  0.2532 -0.2100 -0.1879
32358W        W33222   6.693  10.713   3.930  0.2071  0.2697 -0.1195
32359W        W33223   8.045   9.114   0.898  0.0075  0.0821 -0.0601
32360W        W33224   3.456   8.221   2.912 -0.0189 -0.3479  0.2033
32361W        W33225   4.520   9.283   1.627  0.1931  0.0279  0.1504
32362W        W33226   2.026   8.631  28.999  0.0405  0.1395  0.0888
32363W        W33227   3.918  13.269   1.910 -0.1737  0.0772  0.1267
32364W        W33228   4.470  10.263   4.879 -0.1714 -0.1027 -0.1351
32365W        W33229   3.366  10.482   0.851 -0.1725  0.0026  0.1879
32366W        W33230   6.100   8.444   3.901  0.0794  0.1655  0.0574
32367W        W33231   7.049   6.378   3.695  0.1433 -0.0460  0.3269
32368W        W33232   4.634   8.375  27.682  0.1531 -0.1609  0.0438
32369W        W33233   6.239   8.100   0.563 -0.1705  0.0514  0.0460
32370W        W33234   5.373   8.987   4.992  0.1917  0.1476  0.2963
32371W        W33235   6.099  10.419   3.042 -0.2144  0.0630  0.0428
32372W        W33236   4.725  10.986   7.226  0.2266  0.0443  0.1289
32373W        W33237   5.022  12.180   5.296  0.0251 -0.0768 -0.1698
32374W        W33238   3.724  12.227   3.533  0.0020  0.1955  0.0535
32375W        W33239   4.236   7.065   3.176  0.0920  0.2247  0.1056
32376W        W33240   5.990   9.048  28.705  0.1241 -0.0523 -0.3230
32377W        W33241   6.467   8.582   0.524  0.0802 -0.0582 -0.1994
32378W        W33242   6.656   8.883   1.413  0.0387 -0.0327  0.3464
32379W        W33243   4.962   7.743   0.475  0.0854 -0.0392 -0.3039
32380W        W33244   6.391   9.553  27.473 -0.5077  0.1611 -0.2395
32381W        W33245   6.783   9.336   4.891  0.0451 -0.2030 -0.0151
32382W        W33246   6.378   6.065  27.312  0.0971  0.0502  0.2599
32383W        W33247   2.942   8.207  29.139 -0.1880  0.1379  0.0352
32384W        W33248   6.389   9.643   2.220  0.3944  0.2349  0.1041
32385W        W33249   6.231   8.427   2.828  0.0117 -0.0105  0.1584
32386W        W33250   6.458  10.956  27.612 -0.0960 -0.2370  0.2661
32387W        W33251   5.874  12.851   2.025 -0.2893 -0.0201 -0.0526
32388W        W33252   5.109  11.206   1.093 -0.2944  0.1274  0.2993
32389W        W33253   3.710   7.182   4.216  0.2302 -0.0186  0.3357
32390W        W33254   4.075   8.318   3.459  0.1613  0.2967 -0.1073
32391W        W33255   7.383   6.912   1.875 -0.0492  0.0182  0.0871
32392W        W33256   6.421   7.915  28.580 -0.0122 -0.1700  0.2114
32393W        W33257   1.106   8.609   1.373  0.0058  0.1554  0.0535
32394W        W33258   3.130  10.135   1.824 -0.2645 -0.0936 -0.0977
32395W        W33259   5.258   6.909   0.514 -0.0786  0.0915 -0.1577
32396W        W33260   5.472   8.982  28.860 -0.3830  0.1385  0.0370
32397W        W33261   6.917   9.561   3.401  0.0818 -0.3611  0.0872
32398W        W33262   7.661   8.939  27.966 -0.1846  0.2456 -0.1184
32399W        W33263   2.717   9.250   2.133  0.0496  0.1999 -0.1217
32400W        W33264   4.390  10.020   5.983 -0.1941  0.0337 -0.0355
32401W        W33265   3.753   9.124  28.624 -0.0240  0.3086  0.4556
32402W        W33266   5.523  11.732   2.089  0.2639 -0.0183 -0.2546
32403W        W33267   6.963   7.009   0.919  0.1548  0.0273 -0.1716
32404W        W33268   5.579  10.932  27.256 -0.0214  0.0954 -0.1133
32405W        W33269   4.213  10.460  27.918  0.0695  0.1302 -0.1974
32406W        W33270   5.345   8.397   2.796  0.1205  0.3420  0.1553
32407W        W33271   5.732  10.266   3.560 -0.1545  0.1229  0.0544
32408W        W33272   4.956   9.791   6.487  0.2827 -0.0338  0.1265
32409W        W33273   6.744   6.527   2.059  0.2765 -0.1823 -0.1641
32410W        W33274   8.624  10.852   1.838  0.0674 -0.1416  0.0862
32411W        W33275   6.417  10.893  26.976 -0.0990  0.3627  0.2164
32412W        W33276   6.218   7.413   2.177  0.0754 -0.4914  0.2054
32413W        W33277   6.728  12.071  28.178 -0.2268  0.1155  0.2034
32414W        W33278   8.767  11.133   6.277 -0.0916 -0.0761  0.1642
32415W        W33279   2.589   7.994   1.970 -0.0964 -0.1890  0.0372
32416W        W33280   6.668   5.117   4.173 -0.3124  0.1638 -0.2910
32417W        W33281   7.262   7.253   0.524 -0.3529  0.0726 -0.2443
32418W        W33282   5.816  12.159   3.453  0.1982 -0.0920  0.0532
32419W        W33283   6.159   8.856  24.353  0.1517 -0.1760 -0.0246
32420W        W33284   6.289   8.421  26.826 -0.1399 -0.1828 -0.0660
32421W        W33285   4.154   7.866   3.233  0.0698 -0.1520  0.1547
32422W        W33286   6.246  12.815   3.874  0.2487  0.3525 -0.1075
32423W        W33287   6.152   8.282   1.756 -0.1583 -0.0982 -0.0255
32424W        W33288   8.200   9.915   1.846 -0.1050 -0.0599  0.0535
32425W        W33289   6.508   9.308   0.983  0.2948  0.1375  0.0155
32426W        W33290   5.980   9.048   2.528  0.0819  0.2998  0.1470
32427W        W33291   7.949   7.334   3.836 -0.1571 -0.1345 -0.2352
32428W        W33292   2.088  11.398   3.354 -0.3957  0.1042 -0.1200
32429W        W33293   7.589   8.166   2.325 -0.0547 -0.0965  0.3711
32430W        W33294   4.750   6.943   3.269  0.1076 -0.1960 -0.1761
32431W        W33295   5.055   7.574   0.950  0.2099 -0.1012 -0.2136
32432W        W33296   6.779   8.101   0.619 -0.0333 -0.1925 -0.2847
32433W        W33297   6.547  11.108   3.524 -0.0615  0.2309 -0.0314
32434W        W33298   9.220  10.132   2.366  0.1030 -0.0795  0.0683
32435W        W33299   6.879  12.919   1.392 -0.0904 -0.1590  0.1692
32436W        W33300   5.918  10.344   0.860 -0.1859 -0.1271 -0.0318
32437W        W33301   4.494   7.473   1.359 -0.1022  0.1283 -0.2798
32438W        W33302   2.508   7.868   2.452 -0.2576  0.1689  0.0117
32439W        W33303   4.445   5.125  28.852 -0.2622 -0.2253 -0.0415
32440W        W33304   7.000  10.515   4.360 -0.2132 -0.0945  0.2320
32441W        W33305   5.529   9.382  28.461  0.0987 -0.0202 -0.1877
32442W        W33306   7.857   6.615   4.699  0.1792 -0.0373  0.1107
32443W        W33307   5.415  10.907   3.981  0.0936  0.0684 -0.0689
32444W        W33308   9.138  10.724   2.589 -0.2749  0.1310 -0.0997
32445W        W33309   4.427   7.440   2.422 -0.2929 -0.2827  0.1873
32446W        W33310   4.706  10.214   0.871 -0.2327 -0.0947  0.0333
32447W        W33311   6.822   9.813   1.690 -0.4031  0.0482 -0.1045
32448W        W33312   6.071  10.440   1.868 -0.0941  0.0000  0.0742
32449W        W33313   7.604   8.849   1.711 -0.0727 -0.1443  0.0371
32450W        W33314   3.418   9.262  27.248 -0.0116 -0.1801 -0.2837
32451W        W33315   6.896  14.160   0.103 -0.2146  0.0009  0.1983
32452W        W33316   6.579   8.282   0.144  0.1635  0.0080  0.0233
32453W        W33317   5.337   6.028  28.567 -0.0301 -0.0532 -0.1108
32454W        W33318   5.610   8.632   3.529  0.4555 -0.2565  0.2595
32455W        W33319   7.321   7.160   3.023  0.2748  0.2162  0.0365
32456W        W33320   5.988   7.401   2.842 -0.0768  0.2280 -0.1367
32457W        W33321   6.734   8.460   2.783 -0.0610  0.2256 -0.3942
32458W        W33322   5.732   8.596   1.658 -0.1774 -0.1636 -0.5120
32459W        W33323   4.842   8.468   2.140  0.0465  0.0632  0.0069
32460W        W33324   5.260   7.956   3.350 -0.0442  0.1945 -0.2418
32461W        W33325   5.208  10.941   3.248 -0.0669 -0.0694 -0.3177
32462W        W33326   2.561  10.029  28.706 -0.0566 -0.0122  0.3156
32463W        W33327   6.196   9.851   1.647  0.0603  0.0425 -0.0114
32464W        W33328   4.331   9.281   6.726  0.1029  0.0312  0.1473
32465W        W33329   7.434  11.002   1.711 -0.0533 -0.2082  0.3137
32466W        W33330   4.067   9.997  27.239  0.4468 -0.0991  0.0124
32467W        W33331   6.471   8.989   3.965  0.5215  0.0008  0.0417
32468W        W33332   5.749   7.580   2.376  0.1715  0.1228  0.3221
32469W        W33333   3.981   9.403   5.351 -0.2760  0.3173  0.1310
32470W        W33334   6.277  10.406   4.803  0.2592  0.2151  0.1628
32471W        W33335   6.545   6.944   3.319 -0.0274 -0.0730  0.2604
32472W        W33336   3.794   7.575   2.558 -0.0839  0.1114  0.1039
32473W        W33337   4.941   8.058   2.934 -0.0396  0.0997 -0.1730
32474W        W33338   3.826   5.614  27.838 -0.0807  0.0158 -0.0487
32475W        W33339   5.232   9.556   2.587 -0.2425  0.0178  0.1425
32476W        W33340   4.477   7.862  28.524 -0.0298  0.0101 -0.1643
32477W        W33341   6.924  10.205   0.809  0.1753 -0.0987  0.0514
32478W        W33342   3.501   9.177   1.204 -0.1182 -0.2413  0.1429
32479W        W33343   5.709  10.707   3.233 -0.0771 -0.2649 -0.0811
32480W        W33344   6.365   8.399  28.777  0.0321  0.2227  0.0558
32481W        W33345   7.498   7.722   6.296 -0.1421 -0.0820  0.2009
32482W        W33346   9.459   9.610   2.378 -0.3508  0.0109  0.0936
32483W        W33347   5.770   7.524   4.639 -0.2273  0.0992  0.1238
32484W        W33348   7.270   6.515   2.793 -0.2350  0.2236 -0.2483
32485W        W33349   5.850   7.718  28.257 -0.0108 -0.3025  0.0650
32486W        W33350   4.628   7.507   1.897  0.1901  0.1133  0.2020
32487W        W33351   4.811   8.026  27.313 -0.0997  0.2916  0.0177
32488W        W33352   7.343  12.193   5.391 -0.4852 -0.0490  0.3529
32489W        W33353   3.715  12.546   0.637 -0.0165  0.1954  0.0484
32490W        W33354   2.232   9.746   0.999  0.0390  0.1935 -0.0345
32491W        W33355   5.891   9.545  28.811 -0.1331 -0.0128 -0.4754
32492W        W33356   7.490   6.723   4.350 -0.1865 -0.0025  0.2986
32493W        W33357   7.994   9.476   1.955 -0.3263  0.0910  0.2115
32494W        W33358   3.771   7.240   2.168  0.1931  0.0102 -0.1527
32495W        W33359   3.365   7.150   2.568  0.0699 -0.3044  0.1159
32496W        W33360   4.599  10.962   0.954  0.0041  0.1544  0.0610
32497W        W33361   3.577   6.346   2.603  0.2107  0.0565  0.2796
32498W        W33362   5.170   8.676   2.418  0.3488  0.3277 -0.0044
32499W        W33363   7.994  11.185   3.156 -0.1865  0.3113  0.0966
32500W        W33364   9.510   9.585   1.881  0.0503  0.2524 -0.0284
32501W        W33365   7.329  10.445   0.644  0.2238  0.2604  0.3136
32502W        W33366   7.869   7.134   4.946  0.0394 -0.2162  0.2766
32503W        W33367   6.205   5.503  28.145 -0.0000 -0.5580 -0.2133
32504W        W33368   6.446   8.921   2.547 -0.0022  0.1116 -0.4111
32505W        W33369   5.083   6.703   1.459 -0.0691 -0.0999 -0.2080
32506W        W33370   4.465   7.606   0.839  0.1053 -0.4019  0.2463
32507W        W33371   4.899  11.497   0.758 -0.2276 -0.1031 -0.0320
32508W        W33372   5.298   8.751   3.106  0.0289 -0.4459  0.3211
32509W        W33373   3.978  10.333   4.985 -0.1163  0.0751 -0.2688
32510W        W33374   6.871  11.050   4.354  0.0741 -0.0319  0.0331
32511W        W33375   2.209  11.117   2.917 -0.2843 -0.1443  0.1937
32512W        W33376   2.186  10.321   1.560 -0.2183 -0.0790  0.1030
32513W        W33377   6.658   8.494   1.782 -0.2319 -0.1058  0.4164
32514W        W33378   6.444  10.483   2.719  0.0924 -0.2755 -0.1241
32515W        W33379   6.786   7.510   0.745  0.1494  0.2853 -0.1334
32516W        W33380   3.564  11.017   3.559  0.0190 -0.0728 -0.0441
32517W        W33381   7.327  12.812   1.609 -0.0152 -0.1211  0.2890
32518W        W33382   3.555  11.037   2.027 -0.0845  0.0595 -0.2533
32519W        W33383   8.391   8.842   1.428  0.0783 -0.0394 -0.2240
32520W        W33384   3.499  10.909   1.495  0.0054 -0.2295  0.0910
32521W        W33385   6.051  11.161   3.315 -0.2309 -0.0187 -0.3738
32522W        W33386   4.494   6.132   2.466 -0.2294  0.0268  0.2161
32523W        W33387   3.941   9.933   2.308 -0.1338  0.1211  0.3101
32524W        W33388   3.110   9.836  27.783 -0.0862 -0.2428  0.3706
32525W        W33389   2.919   8.301   2.202  0.2565 -0.1718 -0.0574
32526W        W33390   5.757   6.465   4.152  0.1737  0.3279 -0.1617
32527W        W33391   5.903   8.000   1.432  0.2976 -0.1688  0.1551
32528W        W33392   5.819   9.473   3.030 -0.1816 -0.5456  0.1315
32529W        W33393   4.862   9.505   0.525 -0.1551 -0.0283 -0.0607
32530W        W33394   8.477   8.471   1.882 -0.0137  0.3102 -0.0402
32531W        W33395   6.359  10.192   1.129  0.0472 -0.1723 -0.0646
32532W        W33396   4.103  10.973   0.505 -0.0531  0.0315 -0.2336
32533W        W33397   3.927   8.547  27.715 -0.0717  0.0959  0.0900
32534W        W33398   5.913   7.847   0.933  0.2674  0.0272  0.2516
32535W        W33399   7.126   6.369   1.160  0.0708  0.0748  0.2966
32536W        W33400   6.081   9.249  28.221  0.1571  0.3400  0.0378
32537W        W33401   7.169   7.808   2.342 -0.1058 -0.0592  0.4241
32538W        W33402   4.315   8.941  27.845 -0.0043  0.0663 -0.1290
32539W        W33403   4.130  10.416  28.977 -0.0276 -0.1060 -0.3592
32540W        W33404   7.962   8.848  28.668  0.1184  0.1914 -0.0730
32541W        W33405  28.687   9.399   2.541 -0.1319 -0.1912 -0.2623
32542W        W33406   2.374   8.488   1.046 -0.0986  0.0643  0.1077
32543W        W33407   4.140   6.213   0.194 -0.4308  0.3925  0.0456
32544W        W33408   5.068  12.160  27.357  0.0645 -0.1006  0.3700
32545W        W33409   4.500  10.651  28.766 -0.1926 -0.2216  0.1518
32546W        W33410   8.769   9.235   3.045 -0.1349  0.2341  0.1970
32547W        W33411   7.866   6.541   3.507 -0.0835 -0.3227  0.2368
32548W        W33412   8.439   8.249   2.859 -0.0386 -0.2578 -0.1166
32549W        W33413   8.310  10.855   0.192 -0.0052 -0.0083 -0.1458
32550W        W33414   4.453   7.106   1.043 -0.0215 -0.2539  0.1602
32551W        W33415   6.091   8.620  28.390 -0.2102 -0.2228 -0.0134
32552W        W33416   3.472   9.945   0.461  0.1021 -0.0238 -0.0022
32553W        W33417   3.009   5.915   1.794  0.2044  0.1161 -0.1711
32554W        W33418   4.172   8.940   4.583  0.1738  0.1173  0.1201
32555W        W33419   0.115   8.964   3.190 -0.0688  0.0302  0.3997
32556W        W33420   5.754   9.481   2.518 -0.0061 -0.1610  0.1330
32557W        W33421   4.742   6.700   2.779  0.0285 -0.3184 -0.0429
32558W        W33422   4.685   8.872   2.518  0.0716 -0.1670  0.0194
32559W        W33423   8.425   5.033   2.181  0.0788  0.1521  0.0104
32560W        W33424   5.723  12.698   0.664  0.2266  0.0800  0.0719
32561W        W33425   7.929   9.858   1.464 -0.0650  0.3402  0.0313
32562W        W33426   6.275   9.545   3.288  0.0205 -0.0112  0.0485
32563W        W33427   6.446   9.518   5.227  0.1155  0.1354  0.0587
32564W        W33428   5.541   7.013   1.573  0.1910  0.1198 -0.1790
32565W        W33429   6.824   7.252   3.742  0.0611 -0.0476 -0.0122
32566W        W33430   3.789   8.289  27.120 -0.0693 -0.1926 -0.2083
32567W        W33431   6.048   9.392   1.397  0.1513 -0.0386 -0.1834
32568W        W33432   7.935   8.693   1.151 -0.2342  0.0812  0.0472
32569W        W33433   5.784   8.757   2.904 -0.0568  0.1037 -0.0613
32570W        W33434   5.802   9.940  29.037  0.0533 -0.1850  0.1836
32571W        W33435   5.165   9.248   4.588 -0.1355 -0.0447 -0.2173
32572W        W33436   3.762   6.133   3.045  0.0939  0.0330  0.0168
32573W        W33437   6.257  11.669   4.793  0.3178 -0.0642 -0.3086
32574W        W33438   4.501   5.765   3.359  0.4187  0.0317 -0.1404
32575W        W33439   4.725   8.158   0.749  0.4269  0.2212 -0.1443
32576W        W33440   4.607   6.790  27.466  0.0025 -0.1640  0.1463
32577W        W33441   5.497   7.721   1.192 -0.0594  0.1831  0.1145
32578W        W33442   5.418   8.392   2.099 -0.1001  0.1694  0.0788
32579W        W33443   8.716   9.549   0.680 -0.0859 -0.1902  0.0574
32580W        W33444   6.862   9.890   0.005  0.0998  0.0078  0.1186
32581W        W33445   4.278   6.492   3.121  0.2795  0.1512  0.0856
32582W        W33446   6.019   9.399   2.005 -0.1259 -0.2429  0.4228
32583W        W33447   5.825  10.833   2.741 -0.1803  0.1968  0.1645
32584W        W33448   4.983  10.203   1.293 -0.3351  0.0394 -0.1729
32585W        W33449   6.997   9.227   1.793 -0.1151  0.1943 -0.1822
32586W        W33450   6.316   7.230   3.707 -0.0360  0.0659  0.4593
32587W        W33451   4.595   9.338   2.555  0.1576 -0.0170  0.0343
32588W        W33452   4.791   9.740   1.094 -0.1149  0.2456 -0.0427
32589W        W33453   6.207  10.928   1.927  0.1187  0.3279  0.1318
32590W        W33454   4.056  11.761   3.803  0.1284 -0.2691  0.2797
32591W        W33455   7.195  10.809   3.985  0.2123 -0.1391 -0.2074
32592W        W33456   7.457   8.422   1.606  0.2550  0.1249  0.0600
32593W        W33457   4.812   7.889   4.562  0.1449 -0.4187  0.1096
32594W        W33458   5.733  10.800   1.748  0.1518 -0.1468  0.0093
32595W        W33459   2.832   9.354  28.052 -0.3876  0.0862  0.0530
32596W        W33460   3.827   8.558   5.612 -0.1111  0.2976 -0.1019
32597W        W33461   3.579  11.223   6.324 -0.1640 -0.0448  0.4773
32598W        W33462   7.598  10.576   1.425 -0.0380 -0.0987 -0.1103
32599W        W33463   6.544   7.593   3.486 -0.1073 -0.1953 -0.2804
32600W        W33464   4.360  11.658   3.158  0.1637 -0.1828 -0.1675
32601W        W33465   4.194  10.999   2.510 -0.2108  0.0515  0.0425
32602W        W33466   4.132   8.671   6.450  0.0850  0.2246  0.0935
32603W        W33467   6.889  11.484   5.588 -0.2124 -0.2630 -0.1209
32604W        W33468   5.917  11.144   5.263  0.3268  0.2699 -0.0688
32605W        W33469   3.228   8.552   6.944 -0.1031 -0.1080  0.1167
32606W        W33470   4.110   6.834   5.175 -0.0262  0.1851 -0.3010
32607W        W33471   5.421   5.410   5.319  0.1396 -0.1103 -0.0424
32608W        W33472   7.052   7.703   4.045  0.2674  0.0620  0.0450
32609W        W33473   6.232   5.160   9.246  0.0804  0.1435 -0.1348
32610W        W33474   5.855   8.247   4.300 -0.0834 -0.0841  0.0933
32611W        W33475   8.824  10.589   9.208  0.4378  0.3655 -0.0830
32612W        W33476   5.955   9.971   3.230  0.1888 -0.1557  0.1299
32613W        W33477   3.820   8.088   8.606  0.1468  0.1655  0.1447
32614W        W33478   7.212   9.796   5.547  0.1196 -0.3779 -0.5072
32615W        W33479   8.072  12.159   4.738  0.1210  0.2116 -0.2359
32616W        W33480   7.291  11.731   6.800  0.1345  0.0266 -0.0653
32617W        W33481   5.509   9.917   4.993  0.4079 -0.1901  0.1681
32618W        W33482   5.999  10.669   5.218  0.1394 -0.0546  0.0024
32619W        W33483   4.261   9.992   5.337 -0.0109 -0.0874  0.1681
32620W        W33484   2.374  11.511   5.590 -0.1894  0.3201  0.0440
32621W        W33485   5.952  11.561   6.064  0.0057 -0.2323 -0.3261
32622W        W33486   8.706   8.513   6.918  0.1217 -0.2653 -0.0678
32623W        W33487   5.491  10.625   6.262 -0.4480 -0.3749  0.0553
32624W        W33488   4.306  10.444   6.268  0.1022 -0.0007 -0.1943
32625W        W33489   6.160   8.735   5.572 -0.3469  0.2361 -0.1952
32626W        W33490   6.427   9.998   5.944  0.1495  0.2984  0.0977
32627W        W33491   8.007  11.643   7.037 -0.3880 -0.2103 -0.1589
32628W        W33492   5.151   8.741   5.750  0.0971  0.1367  0.2207
32629W        W33493   9.521   7.496   6.083  0.0658  0.0375 -0.0095
32630W        W33494   0.502   6.984   8.477  0.0266  0.2706  0.2187
32631W        W33495   4.563   9.618   9.039 -0.3172  0.2802 -0.2945
32632W        W33496   2.556   7.956   7.119  0.3201 -0.0489  0.3316
32633W        W33497   5.703   9.938   5.546  0.1449 -0.0137 -0.0598
32634W        W33498  11.561   9.628   5.366  0.1046 -0.0422 -0.0879
32635W        W33499   6.015   7.422   8.722  0.1148 -0.4134 -0.1559
32636W        W33500   5.305   7.561   3.707  0.2785  0.2696 -0.0596
32637W        W33501   5.208   5.527   6.118 -0.0837 -0.1392 -0.2199
32638W        W33502   6.140   9.497   3.841  0.0282  0.2010 -0.0798
32639W        W33503   9.666   7.776   7.597  0.1078 -0.1000  0.0574
32640W        W33504   2.650   8.729   4.589  0.2835  0.0702  0.3424
32641W        W33505   5.026  11.784   5.522 -0.3066 -0.0726  0.0577
32642W        W33506   4.962   6.994   7.542 -0.1802 -0.1275  0.2600
32643W        W33507   5.867   7.171   7.368  0.0764 -0.0026 -0.1198
32644W        W33508   6.340   9.027   5.048  0.0610  0.3511  0.2986
32645W        W33509   6.904   9.877   4.114 -0.0241 -0.0811  0.2522
32646W        W33510   3.826  10.805   4.010  0.1529 -0.1263  0.0270
32647W        W33511   6.515  10.701   4.452  0.0857 -0.2565  0.2482
32648W        W33512   8.552   9.267   5.709 -0.0130 -0.0271  0.0916
32649W        W33513   7.132   8.551   4.369 -0.0758  0.3201  0.1006
32650W        W33514   6.862   9.196   2.301  0.0689  0.0261  0.1778
32651W        W33515   4.799  11.090   2.386  0.0437  0.0671 -0.2100
32652W        W33516   4.561  10.221   4.325  0.1704 -0.0321  0.1156
32653W        W33517   5.100   9.379   5.601 -0.1055 -0.0701  0.0039
32654W        W33518   0.623  10.585   4.524 -0.0493 -0.0428 -0.0067
32655W        W33519   4.433   9.778   4.672  0.0563 -0.1089 -0.3504
32656W        W33520   5.879   4.757   3.676 -0.1063  0.2741 -0.0521
32657W        W33521   6.990  11.291   7.011 -0.1905  0.2138  0.1231
32658W        W33522   4.617   8.560   5.883  0.0425 -0.0616 -0.1678
32659W        W33523   5.358  11.420   5.392 -0.1722  0.0608  0.1853
32660W        W33524   4.303   6.962   6.707 -0.2395  0.0333  0.1828
32661W        W33525   8.329   6.401   5.876 -0.1781  0.0565 -0.1763
32662W        W33526   3.990  10.263   2.692 -0.0466 -0.2866 -0.2781
32663W        W33527   4.741   9.791   5.132 -0.1712  0.0344 -0.1860
32664W        W33528   5.150  10.278   2.134  0.3192  0.1649  0.2899
32665W        W33529   5.547   9.454   4.757  0.0224 -0.1965  0.0890
32666W        W33530   4.028  11.347   6.159  0.2190 -0.0357 -0.2223
32667W        W33531   5.839   5.682   3.553  0.0295 -0.0227 -0.1433
32668W        W33532   6.847   9.347   3.857  0.1561 -0.1302 -0.0743
32669W        W33533   5.322   7.964   5.211  0.3071 -0.1730 -0.0813
32670W        W33534   8.478  10.133   6.046 -0.2323 -0.5413  0.3625
32671W        W33535   9.761  10.444   5.212  0.0723 -0.4659 -0.0103
32672W        W33536   3.595  10.359   7.721  0.1062  0.0304  0.1553
32673W        W33537   8.554  11.229   5.351 -0.2641 -0.0661 -0.1806
32674W        W33538   5.011  11.471   6.380 -0.1503  0.0721  0.2530
32675W        W33539   3.027   9.121   5.351 -0.0104  0.1716 -0.1682
32676W        W33540   3.637   9.137   7.535 -0.0123 -0.1062 -0.2073
32677W        W33541   4.597   9.672   6.927 -0.1663  0.0100 -0.0948
32678W        W33542   4.589   7.316   7.423  0.0158  0.0801 -0.2286
32679W        W33543   6.040   6.365   4.655 -0.3111 -0.1608 -0.1412
32680W        W33544   6.258   8.509   5.116 -0.0061 -0.3930 -0.1076
32681W        W33545   5.556   6.861   3.855  0.6032  0.1063  0.3179
32682W        W33546   8.520  10.214   8.171 -0.0047 -0.0163  0.3499
32683W        W33547   5.375   7.076   7.249  0.1240 -0.2962 -0.4064
32684W        W33548   5.925   9.901   8.858 -0.3895  0.1646  0.0092
32685W        W33549   4.662   5.851   4.477  0.0570 -0.0889  0.0156
32686W        W33550   6.114  10.845   5.655  0.1205  0.0159 -0.3342
32687W        W33551   5.112   8.755   7.939 -0.0058 -0.0750  0.0795
32688W        W33552   4.941   9.807   8.344 -0.0246  0.0206  0.0979
32689W        W33553   4.503  11.351   6.404  0.1453  0.1813  0.4246
32690W        W33554   4.637   7.879   6.279 -0.0120 -0.0768 -0.1916
32691W        W33555   7.711   7.333   6.608  0.0607  0.0700 -0.0260
32692W        W33556   8.300   9.687   5.811  0.1705  0.2500  0.1695
32693W        W33557   4.125  11.769   6.452  0.1676  0.3976  0.1356
32694W        W33558   2.743   9.540   5.424 -0.1743  0.3321 -0.0528
32695W        W33559   5.982   9.274   5.467 -0.1027 -0.1183  0.1062
32696W        W33560   8.963  10.089   3.185 -0.0840  0.0753 -0.0709
32697W        W33561   4.239   8.322   5.467 -0.1724 -0.2221  0.0740
32698W        W33562   5.612   8.531   4.678  0.1293  0.2918 -0.2829
32699W        W33563   8.022  10.278   6.308  0.1109 -0.1465 -0.1394
32700W        W33564   7.519   9.424   5.269 -0.3783  0.2056 -0.2226
32701W        W33565   3.606   9.152   6.124  0.0468 -0.1987  0.1133
32702W        W33566   3.614   8.698   2.822 -0.1274 -0.1147  0.0505
32703W        W33567   7.994   9.131   5.985 -0.0872 -0.0209  0.3027
32704W        W33568   4.239   6.172   4.670  0.2464  0.0216 -0.0932
32705W        W33569   4.076   8.137   4.036 -0.1584 -0.1390  0.2088
32706W        W33570   5.492  11.330   6.267 -0.0492  0.3663 -0.0065
32707W        W33571   3.845  10.779   6.261 -0.1449 -0.1790  0.0158
32708W        W33572   7.467   5.622   9.188  0.0288 -0.5618  0.0477
32709W        W33573   5.699  11.122   7.228 -0.0111 -0.0899  0.0886
32710W        W33574   7.625  10.011   2.580 -0.0932  0.0070  0.1785
32711W        W33575   3.978   8.979   5.921 -0.0430  0.1065  0.0861
32712W        W33576   5.243   6.761   9.555  0.4632 -0.0106 -0.1394
32713W        W33577   3.917  11.636   8.192 -0.2206 -0.1008  0.0205
32714W        W33578   6.761   8.966   5.689 -0.0861 -0.1175  0.0055
32715W        W33579   4.383  10.828   4.258  0.2910  0.0879 -0.0567
32716W        W33580   8.689   7.827   5.399 -0.0373  0.0598 -0.2556
32717W        W33581   6.828  10.212   3.035  0.1052  0.2084 -0.0898
32718W        W33582   7.841   8.058   5.304 -0.0214  0.0026  0.1588
32719W        W33583   4.556   9.020   2.952 -0.1360  0.2103 -0.0833
32720W        W33584   9.222  11.739   5.075  0.0809 -0.1948  0.0329
32721W        W33585   8.647  11.048   4.898 -0.1109 -0.1898  0.0368
32722W        W33586   3.825  11.428   6.730 -0.1182 -0.0821  0.2170
32723W        W33587   7.414   5.378   7.323 -0.1009 -0.2432  0.0037
32724W        W33588   6.786  10.428   4.770 -0.0504  0.1950 -0.1785
32725W        W33589   4.386  11.732   8.288  0.1008 -0.0219  0.0617
32726W        W33590   7.323  10.340   7.910  0.0381  0.2253 -0.1215
32727W        W33591   7.314   7.946   5.306  0.2425 -0.2027 -0.1416
32728W        W33592   5.196  11.342   9.361 -0.2209 -0.0124  0.3254
32729W        W33593   8.220   7.609   5.640  0.2595 -0.2721  0.1857
32730W        W33594   8.302   9.332   6.688  0.0592  0.0078 -0.1533
32731W        W33595   3.297   8.319   5.952  0.0202 -0.2569 -0.2527
32732W        W33596   4.175   5.818   5.091 -0.2834  0.2184  0.2896
32733W        W33597   6.028   9.997   4.696 -0.1762 -0.0012  0.2524
32734W        W33598   6.216  10.295   5.590 -0.0317  0.1162  0.0153
32735W        W33599   5.300   9.647   4.191  0.2617  0.2479  0.0911
32736W        W33600   5.801   8.018   3.458  0.1089  0.2635  0.0277
32737W        W33601   6.603   8.563   4.193 -0.0221 -0.1331 -0.1041
32738W        W33602   6.530  13.117   4.869 -0.2508 -0.1597  0.1255
32739W        W33603   4.328   9.360   4.288 -0.0141  0.3481  0.0459
32740W        W33604   4.895  11.610   6.847  0.0100 -0.0252  0.1265
32741W        W33605   5.199   5.839   4.731  0.1867 -0.1933  0.1649
32742W        W33606   9.023   7.828   6.238  0.2472 -0.1313 -0.0479
32743W        W33607   7.860  11.204   6.793 -0.0797 -0.2560  0.3873
32744W        W33608   6.425  11.921   5.889 -0.0329 -0.0032 -0.2002
32745W        W33609   5.561   9.255   6.973 -0.0469  0.0913 -0.1680
32746W        W33610   8.872  10.478   5.765  0.1242 -0.2496  0.0664
32747W        W33611   4.188   7.903   2.560  0.1928 -0.0821  0.0633
32748W        W33612   4.582  11.118   4.970 -0.2643  0.0968 -0.2175
32749W        W33613   2.290   6.988   2.460  0.2743  0.2853 -0.1446
32750W        W33614   7.414   7.568   4.926 -0.2580  0.0535 -0.0091
32751W        W33615   6.391   6.733   7.364  0.2604 -0.0958 -0.0801
32752W        W33616   5.011  10.745   7.539 -0.0481  0.1795  0.3580
32753W        W33617   4.784   8.915   1.547 -0.2135  0.2290  0.2883
32754W        W33618   1.545   7.091   3.063  0.2885 -0.2077  0.1200
32755W        W33619   7.574  10.509   6.489 -0.1297 -0.0122  0.2630
32756W        W33620   4.168   7.751   6.143  0.1297  0.0343 -0.2314
32757W        W33621   5.295  10.979   5.917 -0.3032  0.2177  0.0200
32758W        W33622   6.618   8.476   5.742 -0.2448 -0.0957  0.1208
32759W        W33623   6.408  11.217   4.558 -0.1363 -0.1217  0.2426
32760W        W33624   5.052   8.428   8.603  0.2301  0.2308 -0.0526
32761W        W33625   4.892   8.904   5.373 -0.3041  0.0130  0.3704
32762W        W33626   3.456  10.297   4.855 -0.0557 -0.3387 -0.1785
32763W        W33627   4.065  11.248   5.177 -0.2957  0.2408 -0.0924
32764W        W33628   4.290  11.628   7.771 -0.1121 -0.1712  0.1553
32765W        W33629   6.655  11.817   5.289  0.0872 -0.0327 -0.0501
32766W        W33630   7.424   9.797   4.287 -0.2795 -0.1133  0.1086
32767W        W33631   6.925   8.241   3.964 -0.2268 -0.1410 -0.0667
32768W        W33632   7.192   7.834   5.829  0.3658 -0.0806  0.0209
32769W        W33633   5.581   8.876   2.226  0.0007 -0.0976 -0.0466
32770W        W33634   5.080   6.915   6.112  0.0156  0.0143 -0.1850
32771W        W33635   5.172   8.503   3.801  0.0552  0.2136 -0.1564
32772W        W33636   6.819   8.462   7.305  0.3705 -0.0625 -0.0727
32773W        W33637   4.203  11.027   6.683 -0.1723 -0.0795  0.1346
32774W        W33638   1.506   9.740   5.099 -0.0010 -0.0486 -0.0513
32775W        W33639   7.184   8.143   4.715  0.1767 -0.1307 -0.0798
32776W        W33640   5.455  10.346   3.991  0.0605 -0.0733  0.0558
32777W        W33641   7.649  11.132   5.204 -0.1361 -0.2155  0.0305
32778W        W33642   4.751   9.726   2.818  0.0319 -0.0357  0.0024
32779W        W33643   4.988   7.672   2.696  0.0795 -0.4109 -0.2791
32780W        W33644   4.060   8.860   3.695 -0.1968  0.1691 -0.0209
32781W        W33645   4.219  10.170   9.046 -0.1963 -0.4567  0.1646
32782W        W33646   5.120   6.364   4.696  0.0179 -0.0199 -0.1288
32783W        W33647   3.540   9.323   3.895  0.0063  0.0488 -0.0408
32784W        W33648   4.782   9.295   6.316  0.0056  0.2490  0.0286
32785W        W33649   4.332   9.347   5.856 -0.0474 -0.1789 -0.0827
32786W        W33650   2.266  10.455   2.042 -0.0859  0.2744  0.3503
32787W        W33651   0.287  11.751   6.417  0.0592  0.2543  0.1141
32788W        W33652   2.877   9.820   5.830 -0.0445 -0.3090 -0.3645
32789W        W33653   3.998   8.245   6.923 -0.0786  0.0567  0.0184
32790W        W33654   6.102   7.929   4.853  0.0405 -0.2047 -0.2479
32791W        W33655   5.034   6.600   4.139 -0.0768 -0.2191 -0.1430
32792W        W33656   6.542   6.744   5.459 -0.1843  0.0528  0.0371
32793W        W33657   3.836   9.070   4.215 -0.0618  0.2228 -0.2125
32794W        W33658   4.446  10.761   7.562  0.3252  0.1266  0.1021
32795W        W33659   7.343   7.015   5.047 -0.6030 -0.0061 -0.2670
32796W        W33660   4.609   9.293   3.802  0.4418 -0.2759 -0.0665
32797W        W33661   6.939   8.044   6.692  0.0029  0.0025 -0.1374
32798W        W33662   3.811   7.969   4.754 -0.0167  0.0792  0.3877
32799W        W33663   6.511   7.126   5.147  0.0698  0.2160 -0.2047
32800W        W33664   6.006   8.725   4.356 -0.0040 -0.0329  0.1161
32801W        W33665   2.098   5.979   2.733  0.1796  0.0865 -0.0530
32802W        W33666   4.764  10.306   6.413  0.0442  0.1178  0.1912
32803W        W33667   6.894   7.316   4.907 -0.1905  0.2942  0.3156
32804W        W33668   5.599  10.530   7.463  0.0397  0.3328 -0.1576
32805W        W33669   4.004  11.313   3.398  0.0605 -0.1699 -0.0156
32806W        W33670   4.021   9.967   6.294 -0.0381 -0.0871  0.0753
32807W        W33671   1.861  10.911   8.676  0.2836  0.0278  0.0293
32808W        W33672   2.235   9.811   6.471 -0.1091 -0.3737 -0.1814
32809W        W33673   8.326   6.507   4.597 -0.0802  0.2166  0.0429
32810W        W33674   8.062   8.879   6.466  0.1856 -0.3307 -0.1305
32811W        W33675   7.008   7.852   3.617 -0.0040 -0.2710  0.0640
32812W        W33676   7.590  12.098   2.206  0.1738  0.0980  0.1064
32813W        W33677   7.634  10.575   3.886 -0.1110  0.0777  0.1369
32814W        W33678   5.926   9.168   4.744 -0.0698  0.0788  0.0030
32815W        W33679   5.035  10.744  10.630 -0.1571 -0.0799  0.2171
32816W        W33680   6.906   9.100   6.152  0.1233  0.0549 -0.3406
32817W        W33681   9.578   8.279   7.735  0.0152  0.3475  0.1458
32818W        W33682   5.251   9.122  10.121  0.1581  0.2300 -0.1394
32819W        W33683   3.815   8.101   5.997  0.0209  0.1863 -0.0556
32820W        W33684   7.290  10.944   2.584  0.2004 -0.0397 -0.1061
32821W        W33685   2.483  11.084   7.891  0.2843  0.1762 -0.4345
32822W        W33686   5.171  10.948   4.598 -0.1890 -0.1277  0.2732
32823W        W33687   9.171   8.425   6.189  0.2773 -0.1760 -0.0284
32824W        W33688   5.551  11.678   4.061 -0.3594 -0.1890 -0.0759
32825W        W33689   7.142  11.232   5.236 -0.1187  0.1378  0.0588
32826W        W33690   3.450   7.809   6.142  0.2958  0.1156 -0.0208
32827W        W33691   4.651  10.416   7.299  0.0123  0.3325 -0.0685
32828W        W33692   4.233  10.290   3.847 -0.1093  0.1557 -0.0157
32829W        W33693   5.462  10.636   4.357 -0.1353 -0.0309 -0.0226
32830W        W33694   4.627   8.351   6.934  0.1543 -0.0454 -0.1889
32831W        W33695   5.970  10.975   6.098  0.1818 -0.0509 -0.1380
32832W        W33696   8.971   9.377   5.395  0.3159 -0.0551  0.5775
32833W        W33697   3.457   5.917   6.812  0.2031  0.1981  0.0285
32834W        W33698   5.722  11.240   5.721  0.0841 -0.0035  0.1681
32835W        W33699   5.923  10.169   5.191 -0.2289  0.3927 -0.2126
32836W        W33700   5.829  10.108   0.329 -0.2901  0.0268 -0.0992
32837W        W33701   4.477  10.590   6.801 -0.1227  0.1526  0.0497
32838W        W33702   4.807  11.341   3.927 -0.2270 -0.1325 -0.2174
32839W        W33703   5.158   8.783   4.290 -0.0276 -0.2997 -0.0183
32840W        W33704   5.683   7.599   5.111 -0.0393 -0.0889 -0.0670
32841W        W33705   4.682   9.352   4.664 -0.0395 -0.1433 -0.0926
32842W        W33706   7.715   9.248   3.908 -0.0774  0.0909 -0.3693
32843W        W33707   7.371  11.376  10.472 -0.2616 -0.5008  0.1033
32844W        W33708   6.983  11.238   1.831  0.0839  0.0803 -0.2031
32845W        W33709   4.707   8.253   4.203 -0.4403  0.2039 -0.4002
32846W        W33710   5.674  12.592   5.674 -0.0457 -0.4290 -0.1723
32847W        W33711   5.080  13.170   4.298  0.3369  0.0554 -0.2054
32848W        W33712  10.319   8.730   6.251 -0.0813  0.1006 -0.1113
32849W        W33713   6.885   7.030   7.050 -0.0177  0.0238  0.1038
32850W        W33714   3.911   9.758   4.996 -0.0713 -0.2504 -0.0077
32851W        W33715   7.208  11.343   3.836 -0.1783 -0.0401 -0.0738
32852W        W33716   6.516   7.636   5.186  0.0520  0.0584 -0.0516
32853W        W33717   2.822   8.493   8.299 -0.2300  0.1596 -0.2107
32854W        W33718   4.845   7.321   4.568 -0.0201  0.1120 -0.0627
32855W        W33719   6.921  10.128   6.000 -0.0234 -0.0040  0.1557
32856W        W33720   2.493  10.522   4.541  0.0626 -0.1184 -0.3386
32857W        W33721   7.230   9.209   5.801 -0.0424 -0.0149 -0.0998
32858W        W33722   5.186   8.981   7.150  0.0380 -0.0473 -0.0625
32859W        W33723   7.354   8.390   5.619 -0.3921  0.2920  0.0393
32860W        W33724   4.809  13.072   3.811  0.0561 -0.1364 -0.0773
32861W        W33725   3.530  11.367   7.966 -0.0042  0.0621 -0.0540
32862W        W33726   3.590   9.740   4.177  0.1784 -0.1649  0.1296
32863W        W33727   8.373  13.330   4.511  0.0461 -0.0478 -0.0853
32864W        W33728   3.417  10.012   5.765  0.2617  0.1794  0.2157
32865W        W33729   7.839   7.025   5.426  0.2662  0.0076  0.3136
32866W        W33730   4.508   8.986   4.995 -0.2246 -0.0044 -0.0686
32867W        W33731   5.312   9.750   7.560  0.0208 -0.3266 -0.0374
32868W        W33732   6.700   7.624   5.877  0.0140 -0.0513  0.0527
32869W        W33733   4.396  11.431   6.879  0.0281 -0.1568 -0.2588
32870W        W33734   7.769  13.981   6.325 -0.1322 -0.0595  0.1997
32871W        W33735   6.194   7.698   5.969 -0.1120  0.0572 -0.0637
32872W        W33736   2.867   9.708   7.660  0.0437 -0.0614  0.0305
32873W        W33737   4.852   9.006   3.479  0.3123 -0.4278  0.0195
32874W        W33738   6.508   7.618   3.992 -0.1961  0.0144  0.4367
32875W        W33739   3.924  10.444   6.657  0.3152 -0.0022 -0.1351
32876W        W33740   3.016  10.424   4.624  0.1842 -0.0826 -0.1116
32877W        W33741   5.084  10.988   5.078  0.1307  0.1997  0.1907
32878W        W33742   5.131   7.093   4.016 -0.0571 -0.3907 -0.2042
32879W        W33743   5.082  11.358   7.391 -0.0918 -0.1462  0.0183
32880W        W33744   5.564  10.895   4.915  0.0276  0.1004 -0.2595
32881W        W33745   7.304   8.485   6.928 -0.0617  0.1311 -0.1311
32882W        W33746   7.115  10.073   4.639 -0.1185 -0.0566  0.0863
32883W        W33747   4.942   8.952   8.349  0.0173 -0.0722  0.2367
32884W        W33748   4.096   4.353   3.216 -0.0450 -0.1414  0.0895
32885W        W33749   6.276  12.322   3.706  0.0439 -0.0967  0.1985
32886W        W33750   5.010   9.221   4.114 -0.2209  0.2659 -0.3714
32887W        W33751   6.050   7.085   3.344  0.0355 -0.2551  0.2189
32888W        W33752   6.701   7.928   7.547 -0.0708  0.0780 -0.1596
32889W        W33753   3.606  10.048   5.316 -0.3960 -0.0039 -0.2132
32890W        W33754   5.779   5.489   3.022  0.0823 -0.3536  0.1386
32891W        W33755   5.223   9.907   5.510  0.0684 -0.0255 -0.0758
32892W        W33756   6.326   9.458   4.713  0.0104 -0.1601 -0.2417
32893W        W33757  10.454   9.619   6.242  0.2600  0.1424  0.0913
32894W        W33758   7.917   6.837   3.915 -0.2312  0.2392 -0.2063
32895W        W33759   3.484  10.734   4.530  0.1205  0.1539  0.3713
32896W        W33760   4.541  10.906   5.423 -0.1107 -0.1177 -0.2647
32897W        W33761   6.151   9.189   7.651 -0.1939 -0.0101 -0.0870
32898W        W33762   7.721  10.436   8.151 -0.2270 -0.3163 -0.2157
32899W        W33763   7.091  10.767   5.312 -0.3830 -0.1055  0.0795
32900W        W33764   6.188   6.402   5.600  0.1344 -0.0804 -0.1200
32901W        W33765   3.462  12.208   5.328 -0.3053 -0.0722  0.0435
32902W        W33766   7.528  10.358   5.188  0.2463  0.1790 -0.1185
32903W        W33767   4.573   4.700   7.530 -0.0917  0.2211  0.1100
32904W        W33768   8.620   7.502   5.070 -0.0787  0.1650 -0.0398
32905W        W33769   3.393  11.153   7.145 -0.0796  0.0981  0.1669
32906W        W33770   5.100   8.591   6.659  0.1979  0.1953 -0.1298
32907W        W33771   6.004   8.905   6.853  0.2187 -0.1484  0.0975
32908W        W33772   4.121   8.186   6.409 -0.3260  0.1523 -0.0481
32909W        W33773   7.535  11.504   4.879  0.0610 -0.0047  0.1665
32910W        W33774   6.080   9.325   7.145  0.0610  0.0872  0.1585
32911W        W33775   6.993  10.167   5.220 -0.0411 -0.2744 -0.0548
32912W        W33776   6.399  10.051   3.422 -0.1730  0.0252  0.3865
32913W        W33777   8.107   8.530   5.534  0.0951 -0.1174  0.0108
32914W        W33778   8.352   8.432   6.549 -0.3283  0.0853  0.0393
32915W        W33779   3.986   7.390   5.314  0.1094  0.2960 -0.2574
32916W        W33780   6.121  11.765   5.341 -0.2192 -0.1718  0.4282
32917W        W33781   7.214   9.515   4.651  0.0249 -0.1791  0.1035
32918W        W33782   4.446   7.376   5.923 -0.0566  0.0146  0.0811
32919W        W33783   7.215  10.117   6.440  0.1247 -0.1865  0.0536
32920W        W33784   5.711  11.279   3.701  0.2301  0.3191 -0.0742
32921W        W33785   4.745  10.373   7.798  0.0696 -0.1380 -0.0019
32922W        W33786   5.760   7.265   4.141 -0.1311  0.3376  0.0629
32923W        W33787   4.890  10.107   5.982 -0.2778 -0.2843  0.2321
32924W        W33788   3.985   8.025   2.019  0.0732  0.3619  0.4297
32925W        W33789   5.336  10.323   5.868  0.0306  0.0550  0.1269
32926W        W33790   2.186   8.153   7.493  0.1488  0.0267  0.0181
32927W        W33791   5.828   7.036   5.185 -0.1504 -0.1090 -0.0644
32928W        W33792   6.601   7.751   7.073 -0.0637  0.0714  0.3675
32929W        W33793   5.263   9.428   6.524 -0.0689 -0.0690 -0.0843
32930W        W33794  10.452   8.042   7.843  0.0096 -0.0753 -0.0728
32931W        W33795   7.222  10.611   8.336  0.2316  0.5174  0.1388
32932W        W33796   7.232   9.787   3.742  0.1894  0.0472 -0.4920
32933W        W33797   7.491   8.953   7.221  0.0361 -0.3166  0.0113
32934W        W33798   4.230   6.701   4.665 -0.3181 -0.0211 -0.2825
32935W        W33799   4.774   5.730   3.761 -0.0296  0.3211 -0.2149
32936W        W33800   3.929  11.868   3.306 -0.0535 -0.0016 -0.0950
32937W        W33801   6.502   7.256   5.652 -0.2706  0.1883 -0.2562
32938W        W33802   5.604   8.617   4.061 -0.3789  0.0887 -0.0705
32939W        W33803   4.923  10.445   3.963  0.2877  0.1195  0.2613
32940W        W33804   1.824  10.794   7.389  0.1740 -0.0271  0.4733
32941W        W33805   4.892   9.332   6.807 -0.0614  0.0482 -0.1501
32942W        W33806   5.541  10.026   4.447 -0.1330 -0.2845 -0.1203
32943W        W33807   3.130   6.995   5.218  0.0874 -0.0214 -0.2730
32944W        W33808   5.304  12.210   5.755 -0.1116  0.1338  0.0007
32945W        W33809   3.245   5.883   3.120  0.0188  0.0032 -0.1601
32946W        W33810   6.609  10.600   5.753  0.2960 -0.0581  0.1181
32947W        W33811   4.220   7.008   5.690  0.2057 -0.2428  0.0426
32948W        W33812   7.986  11.645   4.874 -0.2580 -0.1506 -0.1139
32949W        W33813   6.749   8.098   4.410  0.3141  0.1913  0.1544
32950W        W33814   2.652  11.884   4.280  0.0245  0.0191  0.0959
32951W        W33815   3.387   6.155   4.891  0.1787 -0.2148 -0.0959
32952W        W33816   3.659  10.958   6.756  0.1459  0.0886 -0.2505
32953W        W33817   4.134   8.998   7.516  0.4927 -0.0199  0.0459
32954W        W33818   3.206   6.962   6.111  0.1768 -0.0764 -0.2992
32955W        W33819   3.361   6.729   2.881 -0.0617 -0.0687 -0.1250
32956W        W33820   4.146   7.429   2.862  0.1830  0.1768  0.1442
32957W        W33821   6.079   6.427   9.171 -0.0182  0.3386 -0.4503
32958W        W33822   3.508  10.224   2.262  0.3128 -0.2354 -0.1904
32959W        W33823   5.290   6.829   6.545  0.0903 -0.0752 -0.2538
32960W        W33824   6.539  13.622   6.481  0.1502  0.0756  0.0524
32961W        W33825   6.077  11.212   6.520 -0.1125 -0.0900 -0.2862
32962W        W33826   7.288   7.422   3.581 -0.0228  0.0616  0.3540
32963W        W33827   8.222   9.245   8.515 -0.4276 -0.0589  0.2293
32964W        W33828   3.679   9.278   4.931 -0.1077  0.0231 -0.1141
32965W        W33829   5.884   6.313   5.966  0.0907 -0.0084 -0.3476
32966W        W33830   4.488   9.663   6.341  0.0649  0.0022 -0.1281
32967W        W33831   6.027   7.996   5.339 -0.1914 -0.2256  0.0335
32968W        W33832   6.000  10.681   6.556 -0.3187 -0.0325  0.0417
32969W        W33833   4.570   9.379   5.338 -0.2832 -0.2746 -0.1243
32970W        W33834   8.626  10.699   2.660  0.1491  0.0667 -0.0419
32971W        W33835   3.372   8.581   7.424 -0.0497  0.3050 -0.2310
32972W        W33836   3.694   8.614   6.688 -0.4388 -0.0143  0.0068
32973W        W33837   7.979  10.349   5.528 -0.1606  0.1408 -0.0416
32974W        W33838   5.664   9.072   7.409  0.0975  0.2072 -0.1082
32975W        W33839   3.168   9.786   8.358  0.3055  0.1229  0.1535
32976W        W33840   4.243   8.751   6.903  0.2453  0.2752  0.0426
32977W        W33841   4.392   8.825   5.580  0.2177  0.3379 -0.1469
32978W        W33842   4.162  10.641   7.112 -0.0529 -0.0683 -0.1244
32979W        W33843   6.541   7.583   4.669 -0.0465  0.0763 -0.5042
32980W        W33844   5.180   9.682   6.034  0.1595  0.1633  0.0111
32981W        W33845   6.921   6.994   5.437  0.0080  0.0996 -0.1855
32982W        W33846   5.531   9.514   5.231  0.1741 -0.1306 -0.1063
32983W        W33847   5.239   9.744   7.006  0.0978  0.0600 -0.5162
32984W        W33848   6.643  10.574   3.365  0.0456 -0.1446  0.1774
32985W        W33849   7.995   7.073   4.345  0.2189  0.1155  0.0388
32986W        W33850   6.005   8.542   7.826 -0.0502  0.1023  0.2974
32987W        W33851   3.560   8.678   5.238 -0.0245 -0.2200 -0.1007
32988W        W33852   5.604  10.383   4.818  0.2431 -0.0882  0.1417
32989W        W33853   7.367  11.034   4.798  0.1156 -0.1480 -0.2108
32990W        W33854   5.914  10.342   8.572 -0.0030  0.0423  0.1498
32991W        W33855   6.124  10.069   7.868 -0.0120 -0.0403 -0.1456
32992W        W33856   2.784   9.368   3.932  0.2302 -0.0124 -0.0750
32993W        W33857   7.098  10.946   6.455 -0.0494 -0.1127 -0.4457
32994W        W33858   5.055  10.060   4.240 -0.2271 -0.2393  0.0292
32995W        W33859   3.743   7.101   3.149 -0.2005  0.1738 -0.0269
32996W        W33860   4.769  10.910  12.206 -0.2695  0.0361  0.1037
32997W        W33861   5.478   7.871   9.751 -0.0637 -0.1852  0.1691
32998W        W33862   7.219   9.545   7.918  0.1248  0.4830 -0.0094
32999W        W33863   7.980   8.806  10.421  0.0448  0.4196  0.0374
33000W        W33864   5.795  11.636   6.521 -0.0393 -0.0087  0.0964
33001W        W33865   3.968   8.814   9.640 -0.1479 -0.0061 -0.2241
33002W        W33866   6.478   7.739   6.492  0.0060 -0.0770 -0.0496
33003W        W33867   7.155   8.725   5.908  0.0358  0.4492  0.0628
33004W        W33868   4.783  12.717  11.124  0.0107 -0.1949 -0.3084
33005W        W33869   2.241   7.346   9.716  0.5207 -0.0382 -0.1023
33006W        W33870   2.643   7.399   8.325  0.0515  0.2762  0.0315
33007W        W33871   7.274   7.219   8.271  0.0564 -0.0590  0.0350
33008W        W33872   6.917   9.464   6.510 -0.1361  0.0293  0.1616
33009W        W33873   5.685   8.237  12.523 -0.0694 -0.1231  0.1914
33010W        W33874   1.807   7.128  11.114  0.3536 -0.0336 -0.0204
33011W        W33875   4.029  11.829   9.185 -0.1662  0.0006  0.2705
33012W        W33876   6.847   9.022   8.247  0.1021  0.0062 -0.1238
33013W        W33877   3.584   7.672   9.927 -0.1068 -0.1329  0.0072
33014W        W33878   6.219   8.511   8.810 -0.2617  0.1119  0.0712
33015W        W33879   5.737   9.453   7.734  0.0916 -0.1173  0.1540
33016W        W33880  11.057  10.823  10.233  0.1018  0.2310 -0.0563
33017W        W33881   4.464  10.001   8.623 -0.1479  0.0490 -0.2227
33018W        W33882   6.039   8.963   6.328  0.0026  0.1299 -0.1453
33019W        W33883   6.132  12.226   9.418 -0.1207  0.1326 -0.2293
33020W        W33884   3.479  10.375   8.212 -0.0938  0.0846 -0.2459
33021W        W33885   4.611  11.779   9.279  0.1043  0.3535 -0.2127
33022W        W33886   6.378   7.580  11.036 -0.3257  0.1601 -0.1259
33023W        W33887   6.853  11.984  11.466  0.0958 -0.1969  0.2496
33024W        W33888   7.536   9.572   9.633  0.0796 -0.0087  0.3602
33025W        W33889   5.986  10.349  10.314  0.1223  0.0031 -0.0972
33026W        W33890   7.779  12.413   8.893  0.0662  0.2138  0.0977
33027W        W33891   9.336   9.061  10.708 -0.0111  0.0126  0.1235
33028W        W33892   5.569   6.913  12.259 -0.1500 -0.3030 -0.0234
33029W        W33893   4.958   8.100  11.467 -0.1837 -0.1181  0.0304
33030W        W33894   3.186   8.491   9.628  0.2379 -0.3851 -0.0551
33031W        W33895   8.255  13.300  10.939  0.2671  0.0301 -0.1224
33032W        W33896   5.697   7.088   6.666 -0.0084 -0.1032  0.0759
33033W        W33897   4.919   7.292  10.219  0.0602 -0.0456  0.0862
33034W        W33898   9.577  11.227   8.975  0.0059 -0.1102  0.2388
33035W        W33899   6.953   8.519   8.459  0.0454  0.0237  0.3397
33036W        W33900   7.749   7.652   8.703  0.1902 -0.3546 -0.0882
33037W        W33901   8.543   8.455   7.898  0.2016  0.1027 -0.0404
33038W        W33902   6.035  14.143  12.225 -0.1760  0.1499  0.3615
33039W        W33903   8.348   9.133   9.731  0.0298 -0.0543 -0.1291
33040W        W33904   6.571  13.122   7.702  0.1904  0.1295  0.1144
33041W        W33905   5.531  10.656   8.470  0.2913 -0.0412 -0.0823
33042W        W33906   7.034   6.393  11.297  0.3735 -0.0736 -0.1469
33043W        W33907   7.773   7.268   8.399  0.1050 -0.2178  0.0718
33044W        W33908   4.955   8.305   9.768  0.0534 -0.0472  0.1647
33045W        W33909   6.431  10.703   7.335 -0.1544 -0.1036  0.0266
33046W        W33910   7.179  10.209   8.847 -0.0736 -0.3328  0.2890
33047W        W33911   5.350   4.265   6.718 -0.1925  0.5280  0.1531
33048W        W33912   9.362  12.194  10.536 -0.2154  0.1052 -0.0012
33049W        W33913   8.118  10.199   8.523 -0.3432  0.1186 -0.4743
33050W        W33914   3.891   7.901   9.603  0.0364  0.1632  0.3491
33051W        W33915   2.346  12.182   9.836 -0.0315 -0.2576  0.0806
33052W        W33916   4.956   7.135   9.700 -0.0653  0.2276  0.0898
33053W        W33917   7.477   9.084   7.743 -0.3931 -0.1589  0.0067
33054W        W33918   4.880  10.539   9.385 -0.1786  0.0362  0.1454
33055W        W33919   5.410  12.407   8.341  0.0302 -0.3771  0.1810
33056W        W33920   7.538   6.393   8.032  0.0386 -0.2980  0.0225
33057W        W33921   7.249  10.025   9.910  0.0923  0.0130  0.0258
33058W        W33922   4.599  11.194   9.516 -0.1418  0.1935  0.1126
33059W        W33923   5.583   8.191   6.181  0.0933 -0.1069  0.0403
33060W        W33924   4.789   8.165  10.262  0.0536  0.3483 -0.1856
33061W        W33925   7.404   7.683   9.580 -0.1152  0.2355 -0.2406
33062W        W33926   5.894   9.318   6.588 -0.2213  0.2363 -0.2325
33063W        W33927   5.431  10.184   8.772  0.1096  0.1660  0.0649
33064W        W33928   6.029  10.598  11.671 -0.0889 -0.0010  0.4709
33065W        W33929   6.705   9.339  10.102 -0.1754 -0.2401 -0.1505
33066W        W33930   9.411  11.790   9.057 -0.0325  0.0769 -0.2409
33067W        W33931   2.829   8.876   7.297 -0.3187  0.1194 -0.2048
33068W        W33932  10.310  11.982  11.494 -0.1247 -0.2353  0.0262
33069W        W33933   7.862  11.676  10.465 -0.0147 -0.3592  0.1241
33070W        W33934   6.679   9.250   8.721  0.1108  0.2743 -0.0955
33071W        W33935   8.425  10.538   9.926 -0.2448 -0.0150 -0.1969
33072W        W33936   3.773   8.692   7.206  0.1265 -0.3512  0.0574
33073W        W33937   7.194   9.811  11.786  0.1193  0.2608 -0.0680
33074W        W33938   5.900   8.055   5.810 -0.2537  0.5762  0.0884
33075W        W33939   6.857   8.631   6.767  0.4203 -0.0102  0.1663
33076W        W33940   4.880  10.788   8.538  0.0243  0.0971 -0.1056
33077W        W33941   1.013   8.366  10.343 -0.1891 -0.0538  0.1318
33078W        W33942   1.513   5.015   9.323 -0.1944  0.1948 -0.0160
33079W        W33943   6.051   9.021  10.101 -0.2060  0.4294 -0.2352
33080W        W33944   7.344  10.679   7.409 -0.1308  0.2921  0.1688
33081W        W33945   7.699   8.053   8.402 -0.2132  0.1508 -0.0401
33082W        W33946   7.615   8.408  10.559 -0.1097  0.0635  0.3309
33083W        W33947   8.473   7.954  11.104 -0.1930 -0.5259  0.3253
33084W        W33948   9.045  10.291  11.723  0.0001 -0.0719 -0.3678
33085W        W33949   7.598   7.183  10.595  0.2405 -0.2388  0.0460
33086W        W33950   8.757   9.728   6.140 -0.2836 -0.2420 -0.0814
33087W        W33951  11.643   7.658  11.281  0.2833  0.0350  0.1309
33088W        W33952   9.302  13.110   8.184 -0.3003 -0.3202  0.2630
33089W        W33953   7.078   9.751   7.006  0.2933  0.6663  0.1561
33090W        W33954   5.187   5.730  10.064  0.2572  0.0361  0.3087
33091W        W33955   7.961   6.838  10.996 -0.1520  0.0085  0.0584
33092W        W33956   7.955   9.982   5.917  0.0792  0.1194 -0.1341
33093W        W33957   5.398  11.049  10.871 -0.1979  0.1407 -0.1561
33094W        W33958   5.669   8.973   7.952  0.0418 -0.3991  0.1923
33095W        W33959   6.612   9.219   9.260 -0.2013 -0.0886 -0.0663
33096W        W33960   8.974   9.317   6.037  0.0429 -0.3721 -0.2688
33097W        W33961   3.861   9.467   7.899  0.0516  0.0017 -0.0846
33098W        W33962   7.229   6.745   8.922  0.1004 -0.1873  0.0864
33099W        W33963   8.018  11.223   8.895  0.0280  0.0374  0.0689
33100W        W33964   6.603   3.031   8.432 -0.3314 -0.1720  0.0094
33101W        W33965   6.810   9.460  11.092 -0.1069 -0.1400 -0.1207
33102W        W33966   5.424   8.703   8.321  0.1559 -0.0269 -0.1894
33103W        W33967   6.735  13.230  10.067 -0.0819  0.0676 -0.1516
33104W        W33968   4.903   8.857   8.895  0.1538  0.1453  0.3459
33105W        W33969   6.916  10.990  10.347  0.2667 -0.0268  0.3101
33106W        W33970   5.268   7.685  11.096 -0.0928 -0.2728 -0.0261
33107W        W33971   6.599   9.013   6.517 -0.0931  0.0754  0.1365
33108W        W33972   7.050   7.783   7.901 -0.2176 -0.1221 -0.2345
33109W        W33973   8.375  12.146   8.895  0.0087 -0.0036 -0.2298
33110W        W33974   5.623   8.313   8.041 -0.1758  0.0400 -0.0006
33111W        W33975   4.901  11.329   8.318 -0.0748 -0.1061 -0.1356
33112W        W33976   9.396   8.521  10.207 -0.0485 -0.0337 -0.1880
33113W        W33977   6.522  10.631   6.747 -0.1264  0.0627  0.4796
33114W        W33978   3.030   8.158   7.199  0.1229 -0.1715 -0.1663
33115W        W33979   6.679   7.511   8.965 -0.0512 -0.1350 -0.2235
33116W        W33980   7.681   8.643   6.629  0.0567 -0.0882 -0.2139
33117W        W33981   6.206   9.842   6.926 -0.1173  0.2637 -0.1060
33118W        W33982   7.683   9.579  10.902 -0.3262 -0.1424  0.0405
33119W        W33983   4.506   6.011   7.193  0.3727 -0.3427  0.2035
33120W        W33984   7.200   8.635   6.397 -0.0543  0.1035  0.2924
33121W        W33985   5.993   7.360   6.311  0.1691  0.1955  0.0958
33122W        W33986   3.069   7.037   8.185  0.0254  0.0481 -0.0684
33123W        W33987   4.403   7.921   8.053 -0.3913 -0.0308  0.0382
33124W        W33988   8.651   8.728   9.856  0.0479 -0.4834 -0.1645
33125W        W33989   6.811  10.549   8.094  0.0295 -0.5029  0.3237
33126W        W33990   8.864  11.255   8.498  0.1710 -0.0493 -0.1731
33127W        W33991   5.316   9.356   8.142 -0.2893 -0.0178 -0.0287
33128W        W33992   7.649  11.482  11.420 -0.1789  0.2957  0.1395
33129W        W33993   4.965   7.906   8.165  0.2485  0.0385  0.0252
33130W        W33994   5.346  10.079   6.320  0.2248  0.0263  0.0026
33131W        W33995   4.452   8.024   9.917  0.2268  0.1922  0.1756
33132W        W33996   5.769   8.506   6.515  0.0712  0.1455  0.1068
33133W        W33997   8.709   7.989   9.779  0.1166  0.0089 -0.1307
33134W        W33998   4.685   8.779   7.166  0.1138  0.0248 -0.0192
33135W        W33999   8.550  12.918   8.237  0.1325 -0.1839 -0.2210
33136W        W34000   2.725   7.055   6.246 -0.2121  0.1801 -0.1092
33137W        W34001   4.389   7.092   8.495 -0.1568  0.3109 -0.2918
33138W        W34002   4.521   9.214   7.169 -0.1407 -0.1191  0.0815
33139W        W34003   4.442   9.670   7.518 -0.0530 -0.1435 -0.0847
33140W        W34004   5.658  11.001   6.633  0.4419  0.2043 -0.1340
33141W        W34005   6.500   9.940   8.173 -0.1113 -0.1601 -0.0140
33142W        W34006   4.130   9.015   8.150  0.2555  0.1568 -0.2366
33143W        W34007   8.162  12.163   9.696  0.5112 -0.0326  0.1285
33144W        W34008  11.361  10.712   9.266 -0.2937 -0.2815  0.1584
33145W        W34009   6.717  10.165   9.048  0.2174  0.0977  0.0338
33146W        W34010   8.948  10.134   7.372 -0.1286 -0.2324 -0.1102
33147W        W34011   3.750   8.162   9.118  0.0340  0.2612  0.2237
33148W        W34012   7.433   9.812   7.556  0.1984  0.1779 -0.2200
33149W        W34013   1.428   7.278   6.385 -0.0442 -0.2604 -0.0161
33150W        W34014   3.445   7.929   8.346  0.3412 -0.1767 -0.1200
33151W        W34015   6.787   9.138   7.758 -0.1624  0.0568  0.0205
33152W        W34016   5.580   8.475  10.772  0.1461  0.0278  0.2206
33153W        W34017   4.669   8.204   7.657  0.0655  0.1095 -0.0275
33154W        W34018   2.444   6.908   8.164 -0.0178  0.0508 -0.0069
33155W        W34019   5.181   7.409   8.955  0.3493  0.1792 -0.0268
33156W        W34020   6.176   7.019   9.009  0.1082 -0.5689  0.0443
33157W        W34021   4.091  11.324  10.936 -0.1897  0.2093  0.2592
33158W        W34022   3.204   9.207  10.245  0.2542 -0.1489  0.0942
33159W        W34023   8.628   9.593  11.460  0.1794  0.4456  0.0939
33160W        W34024   4.727   8.544  10.706 -0.0662  0.0610  0.1129
33161W        W34025   2.858   9.404   9.415  0.0457 -0.2458 -0.0857
33162W        W34026   5.047   6.456   9.296  0.5971 -0.0191 -0.0458
33163W        W34027   3.460  10.902   9.179 -0.2865 -0.0468 -0.0016
33164W        W34028   8.613  10.868   9.571 -0.2359  0.0507 -0.1379
33165W        W34029   6.372  10.297   9.961 -0.2004  0.1980 -0.1046
33166W        W34030   6.920   7.748   8.474  0.4063  0.0108  0.0444
33167W        W34031   8.256   8.742   8.814 -0.0940  0.0268 -0.2400
33168W        W34032   6.675   9.502  10.565  0.1028  0.2437  0.1271
33169W        W34033   7.057   8.933   7.413  0.0122 -0.2447  0.3624
33170W        W34034   5.675   9.708   6.762  0.1198 -0.2470 -0.0437
33171W        W34035   7.351   7.839   9.108 -0.2775  0.1949  0.2761
33172W        W34036   4.941  12.791   9.415 -0.0847 -0.0601 -0.0492
33173W        W34037   4.301   9.382  10.112  0.0223 -0.0769 -0.4243
33174W        W34038   3.157  11.480   7.533  0.0422  0.2221 -0.3273
33175W        W34039   4.283   9.791   9.701 -0.1167 -0.3534 -0.1130
33176W        W34040   4.906  12.375   8.538  0.0133  0.4225 -0.1776
33177W        W34041   7.105   9.416   8.440  0.2940 -0.3064 -0.1630
33178W        W34042   5.160   8.260   7.871  0.2500 -0.0053 -0.1839
33179W        W34043   2.923   7.111   6.670 -0.0252 -0.2523 -0.0705
33180W        W34044   3.903   7.388   5.835 -0.3663 -0.2030 -0.1118
33181W        W34045   7.073   9.047   9.855  0.0543  0.3821  0.2336
33182W        W34046   5.009   7.804   8.630 -0.0962  0.0690 -0.1017
33183W        W34047   4.967   8.169   6.578  0.2400  0.2854  0.0676
33184W        W34048   4.994  11.560   8.947 -0.0822  0.2043  0.0715
33185W        W34049   4.758   8.447   8.192 -0.1383 -0.1815 -0.1581
33186W        W34050   6.180  11.005   6.963 -0.1936 -0.3828 -0.1734
33187W        W34051   6.145  10.178   9.525 -0.2338  0.2056 -0.2340
33188W        W34052   5.222  10.288   7.256 -0.1621 -0.3153  0.0387
33189W        W34053   6.096   7.542  10.094  0.0105  0.1841 -0.0156
33190W        W34054   4.492   6.075   9.781  0.1305 -0.1344 -0.2697
33191W        W34055   5.973   9.885   8.334  0.1324 -0.1061 -0.0105
33192W        W34056   4.242   8.339   8.315 -0.0135 -0.0465 -0.0306
33193W        W34057   3.744   9.269   9.148  0.3677  0.3549  0.3676
33194W        W34058   2.644   7.398   9.386  0.0835  0.0571 -0.3330
33195W        W34059   5.911   6.763   8.011  0.1109 -0.0436 -0.0778
33196W        W34060   4.047   9.696   6.893 -0.0348  0.1120 -0.0932
33197W        W34061   5.743   8.409   8.620  0.1320 -0.1253 -0.2215
33198W        W34062   9.711   7.323   9.634  0.2039 -0.1575  0.2113
33199W        W34063   5.177   7.300   6.823  0.0382  0.3855 -0.0672
33200W        W34064   5.517   9.797   9.123 -0.1963 -0.0417 -0.2313
33201W        W34065   2.333   9.247   8.136  0.1356 -0.3571  0.0041
33202W        W34066   4.042  10.054  11.081 -0.3757 -0.1254  0.1483
33203W        W34067   7.686   8.111   9.395  0.2324  0.3034  0.2631
33204W        W34068   5.743  11.789   7.830 -0.0594 -0.2164 -0.1277
33205W        W34069   3.962   9.495   7.402  0.0461 -0.1251 -0.1034
33206W        W34070   5.291   8.743   9.765  0.0183 -0.0058  0.0130
33207W        W34071   3.752  10.474  11.065  0.0774  0.0200  0.0116
33208W        W34072   6.269   9.495   8.447 -0.3479 -0.1791  0.0425
33209W        W34073   4.584   7.037  11.123  0.0734 -0.0072 -0.0441
33210W        W34074   7.652   9.440   7.225 -0.3069 -0.1306  0.0898
33211W        W34075   7.632   7.306   7.927 -0.0568  0.0830  0.2824
33212W        W34076   7.042   8.692   7.872 -0.2295  0.0339 -0.2032
33213W        W34077   5.591  12.237   7.883  0.1522 -0.1575  0.1407
33214W        W34078   6.224  10.160  12.775 -0.1369  0.0392 -0.0306
33215W        W34079   2.720   9.393  13.156 -0.1807 -0.0720 -0.0482
33216W        W34080   8.399   7.592   9.818 -0.1533 -0.1045  0.1152
33217W        W34081   5.581   9.397   9.407  0.2222  0.0222 -0.1211
33218W        W34082   3.893  10.940  11.241 -0.2849  0.1650  0.0725
33219W        W34083   4.902   9.768   7.848  0.2851  0.2461  0.0779
33220W        W34084   7.267  10.633  10.077  0.0889 -0.1325  0.0041
33221W        W34085   3.004   8.389  10.987  0.3178  0.3524 -0.0377
33222W        W34086   5.290  11.922   9.912  0.1607  0.2050 -0.0667
33223W        W34087   6.797   8.567  11.724 -0.2794 -0.3830 -0.5294
33224W        W34088   7.851  11.140   4.584  0.3393  0.2094  0.3599
33225W        W34089   6.669   9.898  10.070  0.1691 -0.0744  0.2043
33226W        W34090   3.468   6.532   8.215  0.2022 -0.0470 -0.0223
33227W        W34091   5.390   7.403  10.005 -0.4258 -0.2523  0.1167
33228W        W34092   5.930   8.548   6.044 -0.0507 -0.2107 -0.0561
33229W        W34093   7.264   9.702   6.201 -0.0991  0.2364  0.0595
33230W        W34094   6.017   9.655   9.376 -0.0948  0.0046  0.0756
33231W        W34095   8.064   9.768   7.426 -0.1964  0.2796  0.2406
33232W        W34096   7.439  11.291   6.556 -0.4727  0.1409  0.0572
33233W        W34097   4.029   6.915   7.966  0.1953  0.1110 -0.1200
33234W        W34098   8.743   9.694  10.965  0.1121  0.0920 -0.1145
33235W        W34099   8.386   7.592   7.671  0.0221 -0.0289  0.1268
33236W        W34100   6.488  11.336   6.796  0.2582  0.0589 -0.0960
33237W        W34101   5.004   7.803  10.676 -0.0862 -0.1605  0.1481
33238W        W34102   2.888   6.591   9.010 -0.0742 -0.1562  0.2744
33239W        W34103   5.019   8.591   7.459  0.2120  0.0168  0.0067
33240W        W34104   6.750   5.802  10.834  0.0368  0.0327  0.0109
33241W        W34105   6.237  11.155   7.450  0.1890  0.0574 -0.3476
33242W        W34106   6.722   9.501   8.158 -0.2125 -0.2122  0.2472
33243W        W34107   5.462  11.082  11.453 -0.0462 -0.3065 -0.0799
33244W        W34108   9.239   9.740   6.773 -0.1956  0.0137 -0.2020
33245W        W34109   3.855   5.589   8.543 -0.0480  0.2162 -0.1237
33246W        W34110   6.160  10.780   8.200  0.1770  0.2791  0.0067
33247W        W34111   6.190  10.719   9.379 -0.1308 -0.1693 -0.1190
33248W        W34112   8.011  10.635  12.383  0.3160  0.1286  0.2460
33249W        W34113   8.594   8.250  10.631  0.1060  0.1153  0.1188
33250W        W34114   3.264  10.331   9.387 -0.5572  0.0322 -0.1731
33251W        W34115   9.375  10.158   8.125 -0.0113  0.0389 -0.0398
33252W        W34116   8.536   6.984  10.021  0.1072  0.1005  0.1442
33253W        W34117   4.408   8.070  10.587 -0.3437 -0.1633  0.0347
33254W        W34118   7.212   8.825   5.413  0.0062 -0.0834  0.0782
33255W        W34119   9.287   7.467   7.733  0.0496 -0.2202 -0.1685
33256W        W34120   7.827   8.912   8.467  0.0232  0.2389 -0.1188
33257W        W34121   4.623   8.176   8.590  0.5332  0.2094 -0.1725
33258W        W34122   5.684  12.500  11.573  0.0536 -0.1367  0.1753
33259W        W34123   5.133  10.174   9.215  0.1439  0.4514  0.0123
33260W        W34124   5.862  10.142   6.604  0.0582 -0.3390 -0.4089
33261W        W34125   4.993  11.348  11.308 -0.1449 -0.1013  0.0159
33262W        W34126   7.883   9.604   6.793 -0.0444  0.0291 -0.2755
33263W        W34127   8.024  10.078   6.844  0.1331  0.0598 -0.3363
33264W        W34128   5.268   9.134   9.111  0.2534 -0.0076 -0.0788
33265W        W34129   7.564   6.588   9.658 -0.2867  0.4514  0.0819
33266W        W34130   5.766  11.229  10.000  0.1255 -0.1080 -0.0974
33267W        W34131   6.667   8.984  11.297 -0.1009 -0.0712 -0.1024
33268W        W34132   3.606   8.241   8.003 -0.0075  0.0375 -0.0527
33269W        W34133   4.737   8.985   9.856 -0.1548 -0.2718  0.0617
33270W        W34134  10.844  10.416   9.845 -0.0817  0.3857  0.1756
33271W        W34135   6.933   7.645  10.981 -0.0735 -0.0680 -0.1146
33272W        W34136   1.712   8.982  10.134  0.0628  0.4416  0.0056
33273W        W34137   5.410   9.943   9.614  0.1132  0.0333  0.2726
33274W        W34138   5.538   9.265   3.895 -0.3251 -0.0344 -0.2185
33275W        W34139   4.450  10.831  10.255 -0.0757  0.1354 -0.0804
33276W        W34140   5.884   8.874   8.394 -0.1174 -0.2192 -0.0469
33277W        W34141   5.941   7.972   6.433 -0.0708  0.1002  0.0639
33278W        W34142   4.630   7.835   8.951  0.0345 -0.0023 -0.1606
33279W        W34143   5.168  11.958   8.130  0.2726  0.1154  0.0958
33280W        W34144   6.564  10.087   7.632 -0.2763 -0.0265  0.0155
33281W        W34145   8.215   9.673   9.029 -0.1678  0.1407 -0.1861
33282W        W34146   7.578   9.307   8.616  0.1389  0.0404  0.1437
33283W        W34147   6.892  10.184   8.397 -0.0843  0.1339  0.3555
33284W        W34148   7.748   6.498  10.156  0.0324  0.0328  0.2929
33285W        W34149   5.698   9.598   7.283  0.0829 -0.3172  0.1121
33286W        W34150   6.300   8.589   6.512 -0.3977 -0.1177 -0.3581
33287W        W34151   3.976   6.668   7.513  0.0079  0.2216 -0.2784
33288W        W34152   8.897   8.265  11.131  0.2089 -0.2708 -0.2694
33289W        W34153   4.854  10.143   9.773 -0.1390 -0.1169  0.1357
33290W        W34154   8.022  10.133   9.043  0.2512 -0.2619  0.1638
33291W        W34155   6.219   6.801   8.504  0.1392  0.0314  0.3365
33292W        W34156   6.348   8.027  10.253  0.2459  0.1925  0.2631
33293W        W34157   6.398  13.810  10.254  0.1527  0.0457  0.2541
33294W        W34158   6.673   8.374   7.976  0.0104  0.1398 -0.1216
33295W        W34159   5.670  11.488   9.567  0.0403  0.0201 -0.2453
33296W        W34160   3.308  11.248   8.441 -0.0987 -0.1496 -0.5345
33297W        W34161   6.442   5.178   8.763  0.2590  0.0842  0.0623
33298W        W34162   5.799  12.661  10.232 -0.0835  0.0648 -0.1494
33299W        W34163   9.139   9.209   8.288  0.1021 -0.1472 -0.2045
33300W        W34164   5.830  10.654   7.029 -0.1826 -0.0423 -0.1652
33301W        W34165   8.447  10.144  10.309  0.1040 -0.5684 -0.2483
33302W        W34166   8.582   7.397   8.033  0.1155 -0.0438  0.0442
33303W        W34167   5.414   7.839   7.943  0.1170 -0.0343  0.3236
33304W        W34168   6.129   6.343   8.696  0.0517 -0.3132  0.0472
33305W        W34169   3.078  11.598   8.801 -0.3494 -0.1813  0.0121
33306W        W34170   7.606   8.517   6.095 -0.0481 -0.0219 -0.2354
33307W        W34171   5.970   9.178   9.217  0.0040 -0.3031  0.0246
33308W        W34172   5.704  10.029   7.597 -0.0568 -0.1241 -0.3379
33309W        W34173   8.049   8.458   9.185  0.0278  0.0725  0.2442
33310W        W34174   7.266   9.175  11.021  0.1648 -0.4368  0.0938
33311W        W34175   2.250   8.353  11.411 -0.0112  0.0083 -0.2733
33312W        W34176   3.429   7.745   7.242 -0.1173 -0.0038 -0.0934
33313W        W34177   6.850   7.728   9.458  0.0444 -0.1289  0.2846
33314W        W34178   8.103   9.225  10.790  0.0292  0.1511 -0.0400
33315W        W34179   8.594  12.755   9.844  0.3315  0.0879 -0.2221
33316W        W34180   3.423   7.770   7.790 -0.1008 -0.1253  0.0815
33317W        W34181   4.080   8.901   8.677  0.0191 -0.5014 -0.1510
33318W        W34182   2.944   8.512  10.073  0.0884  0.0261  0.0556
33319W        W34183   6.001  10.838   7.709 -0.0895  0.0881  0.3080
33320W        W34184   3.243   9.473   8.712  0.1568  0.0328 -0.0020
33321W        W34185   7.698   9.322  10.034 -0.2680 -0.0812  0.1944
33322W        W34186   3.076   8.333   9.144  0.0658 -0.1215 -0.0500
33323W        W34187   3.506  10.874   8.144  0.0029  0.1115 -0.4182
33324W        W34188   5.238   7.821   6.958  0.0315  0.0713  0.0628
33325W        W34189   2.421  10.521   9.286  0.1114 -0.0359  0.2085
33326W        W34190   3.161   6.766  10.766  0.1000 -0.0395 -0.0057
33327W        W34191   6.503   6.830   8.112  0.1089  0.1902  0.0800
33328W        W34192   6.168   9.291   9.699 -0.0612  0.1174  0.1296
33329W        W34193   5.560  11.541  11.146 -0.1687  0.1758  0.1116
33330W        W34194  11.080   8.891  11.932  0.3272 -0.1379  0.2779
33331W        W34195   4.877  11.825   8.523  0.0593  0.0980 -0.0138
33332W        W34196   3.139  11.193   9.900  0.2497  0.1754  0.0157
33333W        W34197   9.933   8.464   4.276 -0.0453  0.2029 -0.2291
33334W        W34198   6.680   7.316   8.119 -0.3614 -0.4546  0.0508
33335W        W34199   6.765   8.425  10.596 -0.1111 -0.1161 -0.2664
33336W        W34200   7.221  11.994   7.676 -0.3015  0.2115  0.0770
33337W        W34201   5.350   9.645  10.385  0.0306  0.2476  0.0384
33338W        W34202   4.433   8.469  10.129  0.2110  0.1537 -0.2213
33339W        W34203   6.608  11.155   8.752 -0.2151 -0.0484 -0.2958
33340W        W34204   7.627  10.355   7.113 -0.0709  0.4121  0.0251
33341W        W34205   3.591   9.853   8.108  0.1555  0.0137 -0.0840
33342W        W34206   4.911  10.136   6.911  0.1564  0.0327 -0.3860
33343W        W34207   4.260   7.866   8.579 -0.1117 -0.3259 -0.1256
33344W        W34208   7.500   8.857  10.113 -0.0365 -0.1724 -0.1168
33345W        W34209   5.456   9.687   8.524  0.0526  0.0086 -0.2034
33346W        W34210   8.129   9.610   9.861 -0.1628  0.0439 -0.1192
33347W        W34211   7.165   9.041   6.603 -0.0596  0.0754  0.0507
33348W        W34212   6.618   9.819   7.219 -0.2604 -0.0405  0.1360
33349W        W34213   8.512  10.621  10.534 -0.0446  0.1326 -0.1677
33350W        W34214   8.788   9.193   9.453  0.1529 -0.0734 -0.0453
33351W        W34215   8.130   7.254   8.019 -0.3599  0.2895  0.2947
33352W        W34216   2.671  11.162  10.585 -0.0850  0.0910 -0.1453
33353W        W34217   5.232   8.796  10.690  0.0277 -0.1187  0.0380
33354W        W34218   1.388   7.354  11.190  0.1702 -0.0234  0.4236
33355W        W34219   6.753  10.054   9.571 -0.2770  0.2060 -0.0632
33356W        W34220   2.843  12.108   7.636 -0.2377 -0.0050 -0.1436
33357W        W34221   4.198  10.596   8.800 -0.0573  0.2777  0.1635
33358W        W34222   5.248  10.851   9.342  0.1509 -0.0187 -0.0804
33359W        W34223   5.645   7.019   9.772 -0.1647  0.1101  0.0394
33360W        W34224   7.798  10.848   8.464 -0.0904  0.1298  0.0879
33361W        W34225   8.110   9.518   7.893 -0.2261 -0.0662  0.0205
33362W        W34226   8.871  11.820  10.203 -0.1410 -0.1412 -0.2547
33363W        W34227   7.176   8.872   9.243  0.0329 -0.0172 -0.1818
33364W        W34228   4.677  10.429   8.888 -0.2168  0.0720 -0.0761
33365W        W34229   9.811   8.489   7.118  0.2463 -0.4832 -0.4675
33366W        W34230   5.520  10.184   8.279 -0.3540 -0.1264  0.1364
33367W        W34231   5.494   8.984   6.526 -0.3409  0.0238  0.1357
33368W        W34232   7.947   8.997   7.963 -0.0416 -0.0628  0.5270
33369W        W34233   8.579  11.599   8.866  0.2719 -0.0007 -0.0880
33370W        W34234   8.335  10.962   8.509  0.0840  0.1430 -0.0161
33371W        W34235   2.388   8.094  10.836 -0.0737 -0.0640  0.0806
33372W        W34236   4.412   8.113   5.877  0.1849  0.2759  0.1593
33373W        W34237   8.016   8.515  10.840  0.0920  0.1379  0.0104
33374W        W34238   7.163   6.987  12.184  0.2265  0.2387  0.1174
33375W        W34239   6.036   8.530  10.006  0.0219 -0.2205  0.0769
33376W        W34240   6.541   9.893  11.385  0.3709  0.1690 -0.0708
33377W        W34241   3.950  10.680   7.637 -0.2569 -0.0670  0.0782
33378W        W34242   2.757  11.215   9.596  0.2175  0.1575 -0.1284
33379W        W34243   8.102   7.283  10.730 -0.2427  0.0297  0.0781
33380W        W34244   8.456   8.754  10.448  0.2128  0.1551 -0.0586
33381W        W34245   6.507   8.722   8.460 -0.2814  0.3005  0.1347
33382W        W34246   6.678   9.839   5.563 -0.3588 -0.1139 -0.1205
33383W        W34247   6.705   8.637   8.960  0.0235 -0.1397  0.1016
33384W        W34248   6.098  12.215   7.602 -0.0286  0.1217 -0.0837
33385W        W34249   6.033  10.545  10.764 -0.0823 -0.2383  0.0958
33386W        W34250   6.603  10.777   9.984 -0.1825  0.0162  0.0904
33387W        W34251   4.099  11.099  10.480  0.1239  0.1460 -0.1936
33388W        W34252   6.376   7.681   8.473  0.3731 -0.0281  0.2286
33389W        W34253   7.932  10.586   9.770  0.0173 -0.3167  0.0698
33390W        W34254   3.230   9.170   9.151  0.0854  0.0478  0.1488
33391W        W34255   5.974   6.854   9.438  0.0296  0.0362  0.0514
33392W        W34256   7.322  12.820  11.025  0.1875  0.3573  0.0318
33393W        W34257   2.923  11.068  12.147 -0.0406  0.1702  0.0312
33394W        W34258   4.558  11.407   8.755  0.4456  0.1022 -0.2676
33395W        W34259   3.184   9.975   7.211  0.0640 -0.0123  0.1152
33396W        W34260   5.491  12.985  14.658 -0.2012  0.0239 -0.1463
33397W        W34261   5.036   9.721  13.078 -0.1467 -0.1463 -0.0899
33398W        W34262   7.644   9.573  11.914 -0.0150 -0.2827  0.2762
33399W        W34263   7.542  10.654  12.188 -0.2296  0.1278 -0.0993
33400W        W34264   5.007   8.622  10.248  0.0145 -0.3532  0.0218
33401W        W34265   4.461   8.063  12.363  0.2049 -0.1073 -0.0086
33402W        W34266   3.119   9.835  10.871 -0.4558  0.0199 -0.1002
33403W        W34267   6.910  10.134  10.928 -0.1680 -0.0890 -0.0206
33404W        W34268   4.338  11.653  15.570  0.0207  0.0122 -0.2595
33405W        W34269   4.529   7.739  15.063 -0.1137  0.0088  0.0823
33406W        W34270   3.821   8.049  13.353  0.0123  0.1511 -0.0333
33407W        W34271   6.249   7.056   7.705 -0.2594  0.0483 -0.1030
33408W        W34272   6.305   8.724   9.224 -0.3508 -0.0808  0.2306
33409W        W34273   6.914  10.217  11.651 -0.1265 -0.0855 -0.3792
33410W        W34274   4.001   7.484  15.922  0.0924 -0.2251  0.2411
33411W        W34275   4.919  10.511  14.416 -0.1690  0.0635  0.2467
33412W        W34276   5.694   9.309  10.261 -0.1955 -0.2890  0.1634
33413W        W34277   1.196   8.709  13.201  0.1711 -0.4510 -0.2236
33414W        W34278   3.269   9.421  12.999 -0.0348 -0.0997  0.3798
33415W        W34279   7.512   9.123  11.786  0.1753  0.3346 -0.4985
33416W        W34280   7.493  11.117  15.789 -0.0064  0.1356 -0.0137
33417W        W34281   1.935   9.478  11.738 -0.0453 -0.0513  0.3196
33418W        W34282   3.952  13.309  11.066  0.0017 -0.1749  0.1723
33419W        W34283   4.990  10.156  12.832  0.3511  0.0386  0.3637
33420W        W34284   4.232   7.587  12.624  0.1362 -0.0181 -0.0768
33421W        W34285   5.079   7.025  14.394  0.2633 -0.1531 -0.0556
33422W        W34286  10.050   8.231  12.474  0.3175 -0.0162  0.0633
33423W        W34287   4.600   8.986  12.570 -0.2001  0.0358 -0.1443
33424W        W34288   7.030   9.472  12.653 -0.1088 -0.0904 -0.1961
33425W        W34289   3.269   5.787  15.055 -0.1031 -0.1635  0.1847
33426W        W34290   6.202  10.768  12.117  0.2322  0.2898  0.0720
33427W        W34291   4.297   9.539  11.576  0.0327  0.1031  0.0235
33428W        W34292   4.801   7.690  11.238 -0.1616 -0.1837  0.0943
33429W        W34293   5.331   6.799  16.414  0.5031  0.7225  0.0385
33430W        W34294   4.149  10.006  13.270 -0.0579  0.2735 -0.0316
33431W        W34295   7.754   9.855  10.032  0.0369  0.2241  0.0291
33432W        W34296   4.659   6.621  12.384 -0.0008  0.2316 -0.1769
33433W        W34297   7.953  10.624  14.285  0.0887  0.0385  0.2591
33434W        W34298   6.586   8.501  10.074  0.0574  0.2136  0.1843
33435W        W34299   7.114   9.766  13.059 -0.2729  0.0442 -0.2545
33436W        W34300   9.682  10.891  10.847  0.1154  0.6757  0.1466
33437W        W34301   7.136   7.299  13.727  0.2228  0.2244 -0.2745
33438W        W34302   5.709  14.129  12.656  0.0482  0.1606  0.0959
33439W        W34303   6.902  11.175  10.851  0.2134  0.0618 -0.1575
33440W        W34304   6.287  11.200  12.606  0.1229  0.2456  0.2294
33441W        W34305   6.725   8.133   9.771  0.0729 -0.3923 -0.2268
33442W        W34306   4.192   7.101  12.742  0.1312 -0.1989  0.0134
33443W        W34307   7.754  13.988  12.607  0.1521  0.3544 -0.0148
33444W        W34308   8.054  10.151  12.610  0.2469  0.2523 -0.1483
33445W        W34309   6.553   8.936   9.760 -0.1044  0.4111 -0.0853
33446W        W34310   6.112  12.736  13.062  0.2755 -0.1835 -0.2742
33447W        W34311   5.873   9.173  11.967  0.0277 -0.1741 -0.3794
33448W        W34312   4.058  13.525  12.766 -0.0956 -0.0245 -0.1169
33449W        W34313   9.428   6.882   9.550  0.0497  0.2711 -0.0735
33450W        W34314   3.791   8.696   7.742 -0.0586 -0.0439  0.1504
33451W        W34315   1.923   7.275  12.301  0.0330 -0.1051 -0.0660
33452W        W34316   4.366   8.388  11.805  0.0466  0.2377  0.0989
33453W        W34317   9.057   9.471  12.264 -0.2295 -0.0410 -0.1601
33454W        W34318   6.682   9.157  12.898  0.2411  0.5812  0.1779
33455W        W34319   6.498  10.358  11.995 -0.0132 -0.5045 -0.1100
33456W        W34320   8.926  10.292  10.181  0.1780 -0.0730  0.1050
33457W        W34321   4.025  13.035  12.949 -0.3529  0.0454  0.0685
33458W        W34322   4.101  10.743  14.590  0.1680 -0.0833  0.1215
33459W        W34323   6.057  10.354  12.393 -0.2228  0.3032 -0.0417
33460W        W34324   3.205   6.792  12.445  0.4287 -0.2739  0.0221
33461W        W34325   5.054   9.184  14.509 -0.2005 -0.1458 -0.0177
33462W        W34326   0.994   7.619   9.326 -0.1385  0.0234  0.0164
33463W        W34327   0.187   9.886  10.859 -0.0270 -0.0328  0.0218
33464W        W34328   2.245   8.616  14.661  0.0257  0.0907  0.1429
33465W        W34329   6.300  11.555  11.082 -0.4472  0.0044 -0.0947
33466W        W34330   7.370  11.822  13.848  0.1061  0.0560  0.1738
33467W        W34331   5.412   9.263  10.709  0.0207 -0.0624  0.0826
33468W        W34332   9.961  11.418  14.267 -0.3024  0.0748  0.1085
33469W        W34333   7.991   8.038  14.878 -0.0694  0.1476 -0.1069
33470W        W34334   7.947   9.760  12.299  0.2063 -0.2620  0.2982
33471W        W34335   7.870   7.674  11.906  0.0461 -0.1123 -0.1973
33472W        W34336   3.810   9.505  11.882  0.0853  0.0300  0.1264
33473W        W34337   5.888  11.303  12.292  0.1410  0.1739  0.1573
33474W        W34338   7.477  10.987  11.617 -0.1480 -0.0059 -0.2707
33475W        W34339   4.546   8.504   9.616 -0.0854 -0.3814 -0.2785
33476W        W34340   4.072   9.572  13.442  0.1402 -0.0050  0.2273
33477W        W34341   4.193   9.240  12.641  0.2468  0.2638 -0.1684
33478W        W34342   2.895   5.418  10.897  0.3421  0.0911  0.0896
33479W        W34343   2.477   8.753  13.645 -0.1247 -0.1554  0.0051
33480W        W34344   6.363   6.985  13.020 -0.2960 -0.0017  0.1076
33481W        W34345   8.579   8.184  11.554  0.2443 -0.0939  0.0401
33482W        W34346   8.940  12.081  12.827  0.0272  0.2793 -0.0474
33483W        W34347   6.248   7.808  15.709  0.2260  0.0610 -0.2220
33484W        W34348  10.025  10.973  12.219 -0.2064 -0.1694  0.0063
33485W        W34349   5.075   5.148  12.672 -0.2471  0.0387 -0.0060
33486W        W34350   4.997   6.998  12.350 -0.3485  0.2324  0.0057
33487W        W34351   5.100   6.236  15.590  0.0510  0.2302 -0.3036
33488W        W34352   3.486  10.596  10.442 -0.1494  0.0689  0.1072
33489W        W34353   5.262  10.822  11.924  0.1282  0.0908  0.3457
33490W        W34354   6.015   8.015  12.810  0.0146  0.1143 -0.1876
33491W        W34355   8.508   8.532  12.490 -0.1628 -0.2104  0.1401
33492W        W34356   5.956   8.663  11.757  0.1897  0.0716  0.1448
33493W        W34357   7.043  13.236  13.461 -0.1139 -0.0686 -0.3699
33494W        W34358   5.155   8.927  11.580 -0.3679  0.1033  0.0260
33495W        W34359   7.848  10.529  11.794  0.1407 -0.1821  0.0245
33496W        W34360   6.232  10.121  14.509  0.0819  0.0206 -0.1086
33497W        W34361   3.362   9.586  11.246  0.0820  0.0075  0.0050
33498W        W34362   4.450   7.561   9.585  0.2508 -0.0770 -0.0365
33499W        W34363   7.610  10.395  12.842  0.1673  0.2529 -0.0790
33500W        W34364   8.054   8.911   9.397 -0.0229 -0.0833  0.1517
33501W        W34365   7.355   9.004   8.249  0.4214  0.0680  0.0335
33502W        W34366   6.463  12.266  12.105 -0.0056 -0.3309  0.2950
33503W        W34367   5.378   9.344  14.894  0.0582 -0.1745 -0.3445
33504W        W34368   7.466   7.674  10.785 -0.1671  0.4170  0.0622
33505W        W34369   2.746   9.642  13.662 -0.0959  0.4431  0.1637
33506W        W34370   4.816   8.279  13.571  0.1416  0.1419 -0.1109
33507W        W34371   7.299   9.215  12.226  0.2361  0.0525 -0.1491
33508W        W34372   8.417   9.860  12.731 -0.3122 -0.0327 -0.2853
33509W        W34373   7.219   6.823  13.810 -0.0214 -0.0355  0.0745
33510W        W34374   9.585   8.810  11.625  0.2695  0.3236  0.2049
33511W        W34375   6.676   9.946  12.917 -0.0913  0.1961 -0.1394
33512W        W34376   6.682   6.166  13.537 -0.1465 -0.2361 -0.0459
33513W        W34377   8.076  10.177  11.564 -0.0805  0.0402  0.2078
33514W        W34378   5.517   6.424  12.912 -0.3044 -0.2835  0.1906
33515W        W34379   6.107   7.960   8.744 -0.0498 -0.3012 -0.1254
33516W        W34380   6.422   8.669   6.991  0.0091  0.3151 -0.1064
33517W        W34381   7.957  10.532  11.191 -0.0585  0.0776  0.1646
33518W        W34382   6.663  12.788  12.188  0.3556  0.0106 -0.2209
33519W        W34383   6.405  12.025  11.060 -0.0126 -0.2146 -0.3349
33520W        W34384   5.345   7.318  12.560 -0.2084 -0.1229 -0.1017
33521W        W34385   5.448   8.474  11.543 -0.0732 -0.2545  0.0056
33522W        W34386   2.757   6.504  14.475  0.2007 -0.1585 -0.0180
33523W        W34387   5.810   8.609  13.339 -0.3181 -0.2642 -0.0597
33524W        W34388   5.538   9.844  10.833  0.1396  0.0186  0.0402
33525W        W34389   6.391  10.718  14.472  0.0576 -0.0001  0.1077
33526W        W34390   4.393   7.015  15.082 -0.0316 -0.1317 -0.1745
33527W        W34391   6.736  10.120  13.777 -0.1311 -0.1481  0.1538
33528W        W34392   5.776  10.198   9.844  0.0287 -0.1149 -0.0221
33529W        W34393   7.160   6.544  13.002  0.0911 -0.3349  0.0614
33530W        W34394   8.090   9.440  12.623  0.1911 -0.1019 -0.1772
33531W        W34395   3.671   7.455  15.455 -0.0778 -0.3067 -0.3678
33532W        W34396   7.198   7.596  11.418  0.2532  0.0490 -0.1387
33533W        W34397   8.560   9.340  12.534 -0.1804 -0.3171 -0.1134
33534W        W34398   4.770  11.438  12.173  0.2892  0.1199 -0.2040
33535W        W34399   7.270  13.793  12.228  0.1836  0.2380  0.3782
33536W        W34400   3.898   6.929  15.015  0.2321  0.0266  0.0563
33537W        W34401   7.649  10.054  11.875 -0.1473 -0.2558 -0.1334
33538W        W34402   3.762  11.014  11.788  0.1144  0.0838  0.0092
33539W        W34403   5.920  10.941  10.444 -0.0397 -0.1957 -0.0922
33540W        W34404   6.544  11.647  11.606 -0.0530  0.1307 -0.0343
33541W        W34405   4.481   7.357  11.673 -0.0485  0.0372 -0.1531
33542W        W34406   6.434   8.959  10.409 -0.0399  0.0361  0.3242
33543W        W34407   8.271   8.591  11.582  0.1086 -0.1930  0.0468
33544W        W34408   5.425  12.124  11.948 -0.0779  0.4957  0.0810
33545W        W34409   7.362   8.612  14.201  0.1054 -0.2003  0.1172
33546W        W34410  10.018  10.637  11.813 -0.0212 -0.2840  0.0069
33547W        W34411   3.059   8.107   8.652  0.2772 -0.1929  0.0286
33548W        W34412   6.765   9.116  12.325 -0.0321 -0.0708 -0.3067
33549W        W34413   4.200   9.255   9.617 -0.1913 -0.0823  0.1753
33550W        W34414   4.730   9.765  12.659 -0.1265  0.0097 -0.1612
33551W        W34415   5.912   7.434  13.277 -0.1350 -0.3852 -0.0110
33552W        W34416   5.614   7.987  11.337 -0.2598 -0.1710  0.0416
33553W        W34417   6.616   8.240   8.700 -0.0871 -0.1312  0.2131
33554W        W34418   4.141   7.211  10.482  0.0606 -0.1323 -0.0507
33555W        W34419   6.993   8.724  12.211 -0.1870  0.1536 -0.3114
33556W        W34420   5.152   6.144  14.614 -0.1235 -0.1740  0.1843
33557W        W34421   3.321  10.854  13.944 -0.1137  0.1880  0.0201
33558W        W34422   8.023   9.673  14.792 -0.0956 -0.1830 -0.0725
33559W        W34423   7.618   9.230  12.704 -0.1198 -0.3443 -0.2908
33560W        W34424   5.720   5.965  14.474  0.5049  0.2635 -0.0309
33561W        W34425   3.109   6.135  13.155  0.0236  0.1129  0.1841
33562W        W34426   2.218   7.159  14.358 -0.0835 -0.3097  0.0545
33563W        W34427   1.694  11.755  12.569  0.2442  0.3869  0.0183
33564W        W34428   8.927  10.084  12.671  0.0430  0.1006  0.0357
33565W        W34429   3.825   8.883  11.785 -0.2046  0.0655  0.1698
33566W        W34430   4.703   9.443   9.765  0.0993  0.0637 -0.2966
33567W        W34431   6.833   8.780  13.452 -0.3150  0.1231  0.1808
33568W        W34432   7.384   8.704  13.062 -0.2437  0.1110 -0.1784
33569W        W34433   9.721  10.342   7.733 -0.1692 -0.0869  0.1845
33570W        W34434   4.154   7.025  13.312 -0.0127  0.0975  0.0333
33571W        W34435   8.485   8.532  11.066  0.0104 -0.1139  0.0993
33572W        W34436   6.469   8.645  13.746  0.0307  0.0382 -0.0350
33573W        W34437   8.189  10.257  12.030  0.1009  0.0029 -0.3816
33574W        W34438   1.170  10.118  11.422 -0.3037 -0.0465  0.1931
33575W        W34439   4.235   7.762  14.603 -0.0250  0.0934 -0.0187
33576W        W34440   7.403   7.687  11.908 -0.0555 -0.0918 -0.1683
33577W        W34441   8.180   9.720  11.668  0.1716 -0.1808 -0.1891
33578W        W34442   6.562  11.187  11.395  0.0756  0.2364  0.1755
33579W        W34443   2.232   9.652  12.185  0.1339 -0.0039  0.2561
33580W        W34444   7.290   6.705  11.608 -0.3172 -0.1145 -0.2724
33581W        W34445   6.477  12.386  12.992 -0.3795 -0.1203 -0.1566
33582W        W34446   7.123   7.236  10.810 -0.0775 -0.0474 -0.1830
33583W        W34447   5.351   8.320  10.049 -0.0232 -0.0250 -0.2502
33584W        W34448   7.228  12.326  12.791  0.0390  0.0339  0.0841
33585W        W34449   7.626  10.154  11.353  0.2360 -0.0410 -0.1000
33586W        W34450   7.240   8.678  10.721  0.3961 -0.1206  0.1370
33587W        W34451   6.222   8.240  11.933 -0.0485 -0.1321 -0.0630
33588W        W34452   2.476   9.986  13.420 -0.0581 -0.0728 -0.2935
33589W        W34453   6.213   5.700  14.485 -0.0810  0.1770  0.3769
33590W        W34454   5.193   6.543  12.302  0.2253 -0.1047 -0.0371
33591W        W34455   3.965   8.259  11.535 -0.0523  0.1274 -0.1077
33592W        W34456   6.615   8.128  12.179 -0.0898 -0.0254  0.0694
33593W        W34457   3.953   7.712  13.812  0.3491 -0.1356  0.4145
33594W        W34458   6.539   9.192  13.480 -0.1543  0.2349 -0.0028
33595W        W34459   5.072   8.841  12.633 -0.1304 -0.0929  0.3829
33596W        W34460   4.983   9.982  10.291  0.0406  0.1974 -0.1426
33597W        W34461   8.571   7.698  13.318  0.3194 -0.2086  0.0882
33598W        W34462   7.571   9.665  10.442  0.1389 -0.0977  0.0872
33599W        W34463   5.190   7.870  13.655 -0.0461  0.2868  0.3381
33600W        W34464   5.140   6.384  13.286  0.2909 -0.0253 -0.2097
33601W        W34465   5.701  10.129  11.576  0.2331  0.0140  0.0523
33602W        W34466   5.926   8.758  12.347  0.2006  0.1049 -0.2905
33603W        W34467   3.923   8.476  13.649 -0.1053  0.0698  0.0245
33604W        W34468   5.483  12.085  10.702 -0.3392  0.1498 -0.2888
33605W        W34469   6.427   8.666  12.143  0.0049  0.0659 -0.2177
33606W        W34470   4.566   9.505  11.094 -0.0073 -0.1963  0.0089
33607W        W34471   6.132   6.239  14.499  0.2215  0.1336 -0.0022
33608W        W34472   6.704   7.331  12.258 -0.1843  0.0121  0.1533
33609W        W34473   5.843   5.420  12.648 -0.0326  0.0409  0.1630
33610W        W34474   8.494   8.376  14.122 -0.0165 -0.0947 -0.2699
33611W        W34475   8.320   7.361  10.264 -0.1182  0.1280  0.1152
33612W        W34476   6.476  11.661  10.638 -0.0505 -0.2031 -0.1478
33613W        W34477   6.396  11.128  10.235  0.1971 -0.1896 -0.2562
33614W        W34478   8.561  11.017  15.412 -0.1314  0.3145  0.0568
33615W        W34479   4.292   8.130  13.525  0.0715 -0.2553 -0.0000
33616W        W34480   6.503  10.177  13.296 -0.1573 -0.1084 -0.0194
33617W        W34481   6.715   6.996  13.753  0.0149  0.1147 -0.3438
33618W        W34482   4.952  10.364  16.508 -0.0427  0.2185  0.1503
33619W        W34483   3.498   8.790  12.107 -0.0936  0.1835 -0.1379
33620W        W34484   8.945   9.237  10.932  0.0485  0.0795  0.1223
33621W        W34485   6.498   5.876  14.847  0.1217 -0.2140 -0.1548
33622W        W34486   5.248   9.399  15.413  0.3585 -0.1563 -0.0258
33623W        W34487   6.797   8.232  13.437 -0.1680 -0.4383  0.1148
33624W        W34488   3.896   8.243  10.810 -0.2126  0.0387  0.1410
33625W        W34489   7.658  13.040  12.218  0.0767  0.1951 -0.0475
33626W        W34490   1.642   8.891  12.325 -0.4923 -0.1990  0.2925
33627W        W34491   4.063   8.435  13.056  0.0180 -0.0582  0.4493
33628W        W34492   2.685   8.952  11.235  0.1542  0.0026  0.1291
33629W        W34493   6.067  10.291  11.288  0.1684  0.1469  0.1094
33630W        W34494   4.331   8.344  14.017 -0.0785 -0.1640  0.0121
33631W        W34495   4.650   9.583  12.208 -0.1765 -0.2292  0.0074
33632W        W34496  10.208   9.210   9.896 -0.1091  0.0429  0.0778
33633W        W34497   5.850   7.869  14.207 -0.0509  0.3297 -0.2845
33634W        W34498   7.607  10.152  12.374  0.0044 -0.1658 -0.2467
33635W        W34499   6.865  12.479  11.732  0.0725 -0.2360 -0.1442
33636W        W34500   8.376   9.843  10.701  0.0075 -0.3807 -0.1323
33637W        W34501   5.790  11.401  14.542 -0.0021  0.1580 -0.1518
33638W        W34502   2.605   9.183  13.690 -0.2203 -0.0113  0.1120
33639W        W34503   1.851   7.923  13.331 -0.1084 -0.2443 -0.1926
33640W        W34504   3.753   5.391  11.231  0.2045  0.0493  0.2622
33641W        W34505   6.355   7.669   9.636  0.0727 -0.0332  0.3014
33642W        W34506   7.176   9.199  14.314  0.2196  0.1990 -0.2874
33643W        W34507   4.623  11.870  15.878  0.0675 -0.0739 -0.2510
33644W        W34508   8.498  11.143  11.777 -0.0203 -0.0817  0.1574
33645W        W34509   5.486   7.996  14.695 -0.1119  0.1234  0.0117
33646W        W34510   3.075   9.923  12.644  0.1537 -0.2019 -0.0726
33647W        W34511   3.101  12.512  14.624 -0.1522 -0.0827 -0.0433
33648W        W34512   7.642   9.025  14.451 -0.0010  0.0708 -0.2144
33649W        W34513   9.712   9.529  12.349 -0.2045 -0.0051 -0.0342
33650W        W34514   7.697  10.536  10.759 -0.0984 -0.0776  0.0102
33651W        W34515   7.834  12.399  11.762 -0.0568  0.2757 -0.2650
33652W        W34516   6.937   8.465  11.109  0.0952  0.0671  0.0011
33653W        W34517   4.909   5.102  16.181 -0.1412  0.0188  0.0806
33654W        W34518   7.088  11.172  11.338  0.0424 -0.1056  0.4187
33655W        W34519  10.269   8.219  10.879  0.5052  0.0055 -0.1135
33656W        W34520   4.780   8.693  13.052 -0.0804  0.1914  0.3437
33657W        W34521   5.297   8.068  17.342  0.0392 -0.3225  0.0050
33658W        W34522   8.933  11.286  13.732 -0.0084 -0.4054  0.0755
33659W        W34523   3.835   9.540  13.884 -0.0618 -0.0728 -0.0731
33660W        W34524   6.643  10.356  12.485 -0.1702  0.0282 -0.0950
33661W        W34525   5.405   9.191  13.524 -0.0702 -0.0609 -0.2775
33662W        W34526   2.906  10.688  11.459  0.1895  0.0708 -0.1234
33663W        W34527   7.731   8.686  11.468 -0.1114 -0.1356 -0.3437
33664W        W34528   1.682   7.811  14.962 -0.0444 -0.2200  0.1137
33665W        W34529   4.054   7.677  10.074 -0.2862  0.0022 -0.2492
33666W        W34530   7.916   9.556  13.112 -0.2524  0.0822  0.0189
33667W        W34531   6.903   8.621  12.999 -0.0144  0.0152  0.1909
33668W        W34532   7.149   8.029  11.269 -0.0338  0.0133  0.1765
33669W        W34533   5.253  10.094  14.383 -0.2429 -0.1816  0.3117
33670W        W34534   5.382  10.796  12.381 -0.0454  0.2348  0.0646
33671W        W34535   3.860   7.303  12.361 -0.1866 -0.0283 -0.2479
33672W        W34536   2.970   7.000  15.722  0.0078 -0.0310 -0.2778
33673W        W34537   8.094   8.213  11.280 -0.1893  0.0048  0.0372
33674W        W34538   7.228   9.410  11.500 -0.0368  0.1492  0.0604
33675W        W34539   3.146   9.116  11.219 -0.0860  0.2235  0.0310
33676W        W34540   8.513   9.178  11.120  0.1317 -0.0587 -0.3140
33677W        W34541   4.347   6.415  11.161  0.1603  0.2913  0.2344
33678W        W34542   3.684   9.764  10.894  0.0418  0.3820 -0.0558
33679W        W34543   5.247  12.576  13.251  0.3079 -0.3707 -0.4586
33680W        W34544   6.867   8.083  11.683  0.0067 -0.1709 -0.0053
33681W        W34545   7.036   9.315  13.634 -0.0011  0.2153  0.1827
33682W        W34546   6.212   9.488  10.256 -0.0003 -0.2448 -0.0388
33683W        W34547   3.483   9.852  14.140  0.0263 -0.0685  0.2808
33684W        W34548   5.597   5.994  11.432  0.2474  0.3295  0.0636
33685W        W34549   9.834   9.435   9.060 -0.0137 -0.2475  0.0205
33686W        W34550   6.335   8.980  11.776 -0.3736  0.0785 -0.3195
33687W        W34551   7.182   7.906   9.979 -0.1625 -0.0734  0.1673
33688W        W34552   5.891   6.168  11.979  0.0779  0.1339 -0.0736
33689W        W34553   4.787   7.829  13.258  0.1075  0.1033 -0.4599
33690W        W34554   2.430  11.209  13.684 -0.0062  0.2637  0.1491
33691W        W34555   7.417   8.689  11.928  0.0350  0.0542 -0.4388
33692W        W34556   3.804  10.185  10.636 -0.0354  0.0090  0.1133
33693W        W34557   6.496   8.091  12.845  0.0288 -0.3372 -0.3382
33694W        W34558   8.054   7.367  12.429 -0.0092 -0.2290 -0.1736
33695W        W34559   2.258  11.188   9.891 -0.2023  0.2097 -0.2700
33696W        W34560   1.370   9.704  12.821 -0.3465 -0.2497  0.0710
33697W        W34561   6.011   8.145  17.436 -0.0372 -0.1336  0.0968
33698W        W34562   5.739  10.673  12.971  0.5057  0.2093 -0.3267
33699W        W34563   9.449   9.027  12.222 -0.0983 -0.3052  0.3974
33700W        W34564   6.348   9.942  10.464  0.1599  0.0205  0.1613
33701W        W34565   3.779  11.653  13.831 -0.0302  0.2116 -0.0870
33702W        W34566   6.980   8.419  14.804 -0.1161 -0.1591 -0.0326
33703W        W34567   5.453   6.019  12.220 -0.1623 -0.1903 -0.2105
33704W        W34568   3.042   4.780  11.192  0.1012 -0.1488 -0.1572
33705W        W34569   5.643   8.270  13.034 -0.0495 -0.0865  0.1099
33706W        W34570   5.981   8.807   9.585  0.0289  0.3109  0.1619
33707W        W34571   0.911   9.808  12.471 -0.0414 -0.0656 -0.0938
33708W        W34572   7.194   8.221  13.112  0.1700 -0.2604 -0.0037
33709W        W34573   4.616  12.722  14.279 -0.2411 -0.1625  0.0058
33710W        W34574   4.731  10.338  15.288 -0.1779 -0.1959  0.1432
33711W        W34575   5.588   9.340  13.944  0.3824  0.1372 -0.0567
33712W        W34576   5.813   7.956  11.822 -0.1137 -0.0765  0.2704
33713W        W34577   6.007   9.195  14.180 -0.0086  0.2036  0.0019
33714W        W34578   6.721  10.263  14.682  0.0228  0.0176  0.2351
33715W        W34579   3.957   8.471  12.066  0.1801  0.1306 -0.0492
33716W        W34580   6.787  10.557  14.152  0.3626  0.0079 -0.0193
33717W        W34581  10.707  10.070   9.023 -0.1764 -0.0360 -0.0058
33718W        W34582   6.108   7.988  11.420 -0.1990  0.1677 -0.0888
33719W        W34583   5.944  11.254  11.361 -0.0208  0.2071 -0.0185
33720W        W34584   7.637   9.148  10.570  0.3869  0.0136 -0.1798
33721W        W34585   7.208  11.028  12.248  0.1200  0.0596  0.3170
33722W        W34586   3.435   7.658  13.171 -0.1371 -0.2629 -0.0607
33723W        W34587   5.140  10.242  10.636 -0.2036 -0.0146 -0.0442
33724W        W34588   7.243   8.852  11.394  0.2008 -0.2596 -0.0818
33725W        W34589   5.259   8.185  11.020 -0.1728  0.2111 -0.0692
33726W        W34590   5.300   7.811  14.186  0.3750  0.2540 -0.1044
33727W        W34591   6.218   8.486  10.485  0.0867 -0.1016  0.0360
33728W        W34592   7.627  10.027  13.216 -0.1110 -0.0070  0.0175
33729W        W34593   8.245  11.015  13.145  0.1050 -0.0251  0.1590
33730W        W34594   8.191   8.193  13.344  0.1565 -0.1285 -0.1586
33731W        W34595   6.451  10.798  13.222  0.1337 -0.1630 -0.0277
33732W        W34596   6.835  13.067   9.548  0.1216  0.1949 -0.1849
33733W        W34597   6.601   9.558   9.678 -0.1584 -0.0825 -0.1327
33734W        W34598   7.221  10.391  10.528 -0.1121  0.0132  0.0879
33735W        W34599   6.607   7.272   9.384 -0.1434  0.0857  0.1971
33736W        W34600   6.421  10.291  10.916 -0.2754  0.0713  0.1169
33737W        W34601   4.287   9.286  12.086  0.2566  0.1831 -0.1704
33738W        W34602   3.003   7.039   8.785 -0.0367 -0.2250 -0.0583
33739W        W34603   2.681  11.067  11.701  0.1948 -0.1337  0.0005
33740W        W34604   7.962   9.988  11.074  0.1191  0.0612  0.2709
33741W        W34605   3.845  11.792  14.696 -0.0333  0.2021  0.0025
33742W        W34606   3.327  11.306  13.052 -0.0867  0.3352  0.0093
33743W        W34607   3.319   9.273  12.019 -0.0334 -0.3283 -0.1424
33744W        W34608   4.260   9.127  10.891 -0.2237  0.0293  0.1735
33745W        W34609   3.571   5.070  13.043 -0.0763 -0.1118 -0.0142
33746W        W34610   5.823   9.636  11.744  0.0469  0.0436  0.1242
33747W        W34611   8.215   7.894  12.233  0.1567 -0.0034 -0.0872
33748W        W34612   9.249   9.203  14.328  0.1823 -0.0297  0.1595
33749W        W34613   7.314  10.534  11.243  0.1863  0.0036 -0.2689
33750W        W34614   4.992   8.509  11.807 -0.1792  0.1266  0.0411
33751W        W34615   5.757   9.091  11.525 -0.0647 -0.1505  0.1049
33752W        W34616   2.044  11.980  12.052 -0.1621 -0.0232 -0.0866
33753W        W34617   4.964   6.560  13.698 -0.0835  0.0076 -0.2000
33754W        W34618   5.180   8.461  13.801  0.1399  0.0517  0.0881
33755W        W34619   7.132   8.275  12.057 -0.1908 -0.0826 -0.0887
33756W        W34620   5.376   9.144   8.583 -0.0320 -0.2937 -0.0495
33757W        W34621   5.896   6.935  13.220  0.0132  0.0479  0.1444
33758W        W34622   4.296   9.623  13.006  0.0907  0.0302 -0.3599
33759W        W34623   3.105   9.348  10.795 -0.1336  0.1553  0.1282
33760W        W34624   4.867   9.315  11.744  0.0745  0.3519  0.0571
33761W        W34625   8.328  10.631  11.726 -0.0538 -0.0218  0.0820
33762W        W34626   8.168  12.293  14.935  0.1755  0.1826 -0.2004
33763W        W34627   4.997   9.595  10.724  0.0316  0.0740  0.1855
33764W        W34628   7.118   9.548   9.946  0.2151  0.2203  0.1588
33765W        W34629   6.408   9.169  10.869  0.1195  0.0649  0.1524
33766W        W34630   5.996  10.023  10.746  0.3517 -0.0655  0.1158
33767W        W34631   6.091   7.762  10.633 -0.1977 -0.1151  0.0593
33768W        W34632   6.391  12.318   9.988 -0.2926 -0.2249  0.3095
33769W        W34633   7.636   8.262  12.152 -0.3336  0.1056 -0.0705
33770W        W34634   6.157  11.783  12.292 -0.2210  0.3731 -0.0615
33771W        W34635   5.957   7.367  13.961 -0.0998  0.2861  0.2047
33772W        W34636   4.675   9.295  12.941 -0.0929  0.2413  0.2279
33773W        W34637   8.002  11.631  12.272  0.2902  0.1738  0.2448
33774W        W34638   5.833   6.948  14.218  0.0872 -0.2828  0.0463
33775W        W34639   3.758   7.943  12.883  0.3623  0.1247  0.0159
33776W        W34640   8.839  12.144  14.172  0.0531  0.1291  0.0463
33777W        W34641   5.164   9.205  11.192 -0.1726  0.0024 -0.6516
33778W        W34642   4.292  10.586  13.072  0.1811  0.0453 -0.0555
33779W        W34643   8.594  11.357  12.747  0.1018 -0.0903  0.1035
33780W        W34644   5.572  14.691  13.760 -0.1077  0.0270  0.2193
33781W        W34645   3.951   8.310  12.518  0.0676 -0.1292 -0.0406
33782W        W34646   7.178  12.993  14.342  0.1186 -0.2129  0.0569
33783W        W34647   7.693  11.452  13.935 -0.2535 -0.1698 -0.0151
33784W        W34648   4.863   5.906  16.554 -0.3641  0.1080 -0.0237
33785W        W34649   5.020  11.240  15.598 -0.2789 -0.0160  0.1551
33786W        W34650   6.525  13.757  12.291 -0.2138  0.1314  0.2702
33787W        W34651   5.665   8.346  11.994  0.0892  0.1311 -0.0464
33788W        W34652   7.565   9.039   9.644  0.2332 -0.1348 -0.1848
33789W        W34653   7.615  11.837  11.849  0.4504 -0.1746 -0.2939
33790W        W34654   3.005   9.435  11.649 -0.0590  0.1971 -0.3899
33791W        W34655   5.294   8.471  12.262 -0.1699  0.4172 -0.0527
33792W        W34656   3.751  10.304  11.526 -0.3766 -0.0285 -0.1473
33793W        W34657   7.172  12.062  11.984 -0.1521  0.1734 -0.0823
33794W        W34658   5.984  12.091  11.886  0.0640  0.1465 -0.1610
33795W        W34659   4.762   7.938  11.925 -0.0146 -0.1153 -0.0877
33796W        W34660   2.273  11.006  16.063  0.3374 -0.1973  0.1267
33797W        W34661   2.445  11.789  16.348  0.0268 -0.0744  0.0578
33798W        W34662   5.696   9.523  15.635 -0.1302 -0.0063 -0.1596
33799W        W34663   7.684  10.916  12.644 -0.1830 -0.0106 -0.0673
33800W        W34664   6.230  11.983  15.272  0.3322 -0.0034 -0.2336
33801W        W34665   5.845   8.132  15.909  0.2348  0.2916  0.1875
33802W        W34666   3.053   8.426  15.985 -0.1829  0.2192 -0.0468
33803W        W34667   5.958  10.305  13.264  0.0946 -0.1922 -0.1304
33804W        W34668   6.910  10.125  16.755  0.1911 -0.1461  0.0807
33805W        W34669   4.562   8.258  16.778 -0.4405 -0.1203 -0.0836
33806W        W34670   6.108   8.737  18.431  0.1573 -0.1231  0.0913
33807W        W34671   4.543   9.389  16.224  0.0685  0.2569 -0.2773
33808W        W34672   5.258   7.266  16.580  0.0486  0.0876 -0.2856
33809W        W34673   5.332   8.040  18.333 -0.1215 -0.0077 -0.3855
33810W        W34674   3.120   7.116  18.353  0.1380  0.1989  0.3757
33811W        W34675   4.881  10.161  15.804 -0.2752  0.1836 -0.1987
33812W        W34676   6.085   8.515  14.983 -0.2439  0.0766  0.3709
33813W        W34677   4.193   9.326  14.246  0.0877  0.2139 -0.0371
33814W        W34678   4.359   9.909  16.458  0.1496 -0.0665 -0.1993
33815W        W34679   7.466  11.231  13.547 -0.2779 -0.2936  0.0426
33816W        W34680   7.850   9.773  16.461 -0.0543  0.1087  0.1516
33817W        W34681   7.074   7.881  16.762 -0.0927 -0.3840  0.1148
33818W        W34682   3.462  11.319  15.518 -0.0059 -0.3010  0.0013
33819W        W34683   3.555   7.890  14.978 -0.2165  0.0714  0.1245
33820W        W34684   3.950   9.328  14.747  0.1506 -0.1845  0.1187
33821W        W34685   3.335   8.826  15.274  0.2288 -0.1562 -0.3566
33822W        W34686   5.776   6.979  16.657 -0.0397 -0.2432 -0.2172
33823W        W34687   4.002   9.785  17.100 -0.0812 -0.0340 -0.2098
33824W        W34688   6.704   9.805  16.414 -0.0612 -0.0643 -0.0920
33825W        W34689   5.585   8.274  14.089 -0.0383 -0.4284  0.0678
33826W        W34690   3.493   7.628  14.153  0.1050  0.2310  0.2018
33827W        W34691   6.828   9.712  19.033 -0.2709 -0.2314  0.0244
33828W        W34692   2.332   9.373  17.148 -0.3149 -0.0438 -0.3847
33829W        W34693   6.073  10.371  17.712  0.1037  0.0547 -0.1318
33830W        W34694   3.140   9.803  15.960 -0.0839 -0.1546 -0.5629
33831W        W34695   7.437   9.379  16.206 -0.0479 -0.0680 -0.1306
33832W        W34696   1.852   7.984  15.443 -0.0661 -0.0952 -0.1305
33833W        W34697   7.023   9.704  15.050  0.3862  0.1507  0.2680
33834W        W34698   5.829   8.046  15.094 -0.0642  0.1252  0.1028
33835W        W34699   6.165   7.808  16.197 -0.2047  0.2371 -0.1517
33836W        W34700   5.367   6.895  17.005  0.1356 -0.0146 -0.0853
33837W        W34701   9.227  10.364  14.637  0.3138  0.1894 -0.0063
33838W        W34702   5.133  10.517  15.580 -0.0355  0.0534  0.1925
33839W        W34703   5.534   8.273  15.431  0.1786  0.0449  0.1212
33840W        W34704   5.409  12.455  15.880  0.1577 -0.0408 -0.2063
33841W        W34705   4.565  13.334  16.156  0.1229  0.2305  0.0856
33842W        W34706   5.979   5.703  18.004 -0.0840 -0.1387 -0.4165
33843W        W34707   5.031   7.643  18.291  0.1759  0.3273  0.2274
33844W        W34708   7.400   8.969  13.874  0.2809  0.1925 -0.3665
33845W        W34709   4.812   8.781  15.894 -0.1113 -0.1017 -0.1171
33846W        W34710   6.190  10.829  17.327  0.4036  0.2449 -0.0623
33847W        W34711   6.197   7.788  17.158  0.0459 -0.0169 -0.0406
33848W        W34712   4.115  11.209  16.363 -0.1155 -0.1682 -0.0105
33849W        W34713   6.084   9.613  15.215 -0.0383  0.0585  0.2115
33850W        W34714   5.534   7.277  18.540  0.0909  0.1087  0.1945
33851W        W34715   3.780   9.459  12.850  0.0295  0.2836 -0.0320
33852W        W34716   5.332  10.840  14.923  0.1004  0.3781  0.0449
33853W        W34717   6.355   6.739  15.696  0.0728 -0.2971 -0.1390
33854W        W34718   4.904  10.953  14.687 -0.0123 -0.1593  0.3429
33855W        W34719   7.170  13.498  14.404 -0.4091  0.6307 -0.6245
33856W        W34720   7.992   9.604  13.917  0.0212  0.0714 -0.1167
33857W        W34721   1.914   9.197  18.457 -0.5768  0.2146 -0.1300
33858W        W34722   3.523  12.056  15.300 -0.3978  0.2348  0.1563
33859W        W34723   4.450   9.174  13.407 -0.2893  0.4099 -0.0031
33860W        W34724   7.683   6.459  17.369 -0.0063 -0.0408 -0.0200
33861W        W34725   7.559   9.142  16.629  0.1742  0.1925  0.2397
33862W        W34726   5.449   8.176  16.706 -0.2691 -0.0144  0.0513
33863W        W34727   5.298  10.235  16.091  0.1951  0.0327 -0.1802
33864W        W34728   4.094  12.229  17.215  0.0095 -0.0755  0.0400
33865W        W34729   5.358   8.947  18.782  0.1309 -0.4383 -0.2667
33866W        W34730   3.807  11.591  16.627  0.3995  0.0808 -0.1618
33867W        W34731   6.157   7.744  14.750  0.0154  0.2800  0.2331
33868W        W34732   6.392  11.236  15.267  0.0846 -0.0591 -0.0864
33869W        W34733   6.257   8.325  16.311  0.2761  0.1195  0.1578
33870W        W34734   8.772  10.076  15.408 -0.0156 -0.3649  0.0638
33871W        W34735   5.690   7.835  17.000  0.2369  0.0255 -0.0960
33872W        W34736   0.643  11.529  16.946  0.0260  0.4061  0.2232
33873W        W34737   2.338  10.008  16.093  0.0649  0.0059  0.0950
33874W        W34738   4.761   9.988  14.887 -0.2318  0.2176  0.3613
33875W        W34739   7.721   9.554  14.392 -0.1209  0.1071  0.0519
33876W        W34740   3.881   9.569  15.145  0.1719 -0.1013  0.1169
33877W        W34741   6.009  10.576  16.885  0.0253  0.0548  0.0594
33878W        W34742   4.901   6.423  18.023 -0.0104 -0.0188  0.0386
33879W        W34743   2.831   9.134  15.310 -0.0908  0.0300  0.0395
33880W        W34744   4.642   9.470  19.345 -0.0508  0.3091 -0.1609
33881W        W34745   6.208   9.919  13.687  0.0738 -0.0382  0.3157
33882W        W34746   7.045   9.716  19.712  0.0896 -0.0881  0.0854
33883W        W34747   5.273   5.731  16.074 -0.2495  0.0693 -0.1339
33884W        W34748   6.652   8.562  20.283 -0.2143  0.0243  0.1000
33885W        W34749   6.865   6.701  17.400  0.2219  0.2485  0.0452
33886W        W34750   7.861   7.880  15.831 -0.0708 -0.0013 -0.2434
33887W        W34751   9.390  11.104  16.101  0.2147 -0.0801 -0.0609
33888W        W34752   6.579   7.411  17.889  0.0632 -0.1569  0.2421
33889W        W34753   4.701   7.389  12.572  0.0450 -0.0907 -0.0810
33890W        W34754   2.851   7.156  21.016 -0.0989  0.2404 -0.0898
33891W        W34755   8.623   9.772  14.657 -0.2349 -0.1884 -0.0160
33892W        W34756   8.264   8.466  14.591  0.5608  0.0370 -0.2436
33893W        W34757   4.354   9.469  15.412  0.0706  0.2675  0.0566
33894W        W34758   4.328   8.940  14.800 -0.0102 -0.0786  0.3592
33895W        W34759   5.383   6.567  18.243  0.0344 -0.0039 -0.1045
33896W        W34760   6.987  12.136  13.545  0.1754 -0.2392  0.2320
33897W        W34761   6.231   8.600  17.448 -0.0224  0.0832  0.2358
33898W        W34762   5.697   6.743  16.051 -0.3276  0.0956 -0.1664
33899W        W34763   4.370   7.698  18.206  0.0252  0.3401  0.2514
33900W        W34764   8.492   8.241  16.025  0.1649 -0.0542 -0.2328
33901W        W34765   4.614   9.030  14.389 -0.3235  0.1682  0.1158
33902W        W34766   4.499  11.035  13.192  0.0966 -0.2766 -0.0488
33903W        W34767   4.513   9.357  18.883 -0.2124 -0.1388 -0.2906
33904W        W34768   3.401   9.351  15.065  0.0999 -0.0514  0.1272
33905W        W34769   2.104   6.733  22.489 -0.1946  0.0930  0.3677
33906W        W34770   8.015   8.743  14.969  0.0626  0.1065  0.2110
33907W        W34771  10.234   9.710  15.404  0.0402  0.0885 -0.2542
33908W        W34772   4.627   8.880  17.892 -0.0561  0.1940 -0.1168
33909W        W34773   6.336  10.687  12.759  0.1724 -0.0577  0.0854
33910W        W34774   4.589   7.325  15.781 -0.0226 -0.0125 -0.1275
33911W        W34775   5.257   7.924  15.177  0.0964  0.0600  0.1988
33912W        W34776   5.423   9.004  17.456  0.3966 -0.0272 -0.1318
33913W        W34777   9.140   8.511  15.551  0.1292  0.3341  0.1449
33914W        W34778   6.880  10.575  15.041  0.1174  0.2057  0.1395
33915W        W34779   7.359   8.585  15.105 -0.0322  0.0970  0.3214
33916W        W34780   3.635  11.481  16.109 -0.2583  0.2704  0.2484
33917W        W34781   5.955  10.557  14.255 -0.0849 -0.1059 -0.0980
33918W        W34782   5.213   9.136  13.062  0.0755 -0.3282 -0.0045
33919W        W34783   7.641   9.565  17.404  0.0784  0.2907  0.2801
33920W        W34784   9.887  10.204  16.623  0.1980 -0.1315  0.0111
33921W        W34785   5.790   7.271  15.319  0.3842 -0.1425  0.1621
33922W        W34786   5.678   7.439  16.393 -0.1479  0.2640  0.1818
33923W        W34787   6.248  10.317  15.738  0.2201 -0.1426  0.0516
33924W        W34788   5.556   9.509  13.127 -0.1541  0.0497 -0.0510
33925W        W34789   7.463  11.999  17.349  0.1433 -0.0142  0.0577
33926W        W34790   6.416   9.926  14.920 -0.5594 -0.0520 -0.3978
33927W        W34791   6.104  12.890  15.494  0.0773 -0.0683  0.0146
33928W        W34792   6.357   8.872  15.965  0.1787  0.0250  0.1336
33929W        W34793   7.147  10.873  13.912  0.1706 -0.1004 -0.0997
33930W        W34794   5.059   8.365  16.883 -0.1069 -0.0433 -0.0470
33931W        W34795   7.446   8.950  15.960 -0.2269 -0.0158 -0.0858
33932W        W34796   6.503   6.983  20.227  0.1745 -0.2597  0.0403
33933W        W34797   6.278  11.300  14.670 -0.0742 -0.0242 -0.0818
33934W        W34798   8.217  10.147  14.807 -0.0733 -0.4648 -0.0340
33935W        W34799   2.418   9.695  15.047 -0.0738  0.3993  0.1063
33936W        W34800   5.229   7.420  15.100 -0.1248 -0.0517  0.1137
33937W        W34801   5.486  10.416  15.227  0.0793  0.2256  0.0300
33938W        W34802   4.726   9.119  16.757  0.1319  0.2230  0.1214
33939W        W34803   4.223  12.378  18.380 -0.1945 -0.1049  0.2645
33940W        W34804   4.043   8.497  16.748 -0.2111  0.1647 -0.1590
33941W        W34805   7.321   7.570  16.453  0.0947  0.0707 -0.0104
33942W        W34806   4.283  13.795  16.127 -0.3132  0.3183  0.1690
33943W        W34807   6.157   9.193  15.556 -0.0972  0.1439  0.1473
33944W        W34808   6.107   9.630  14.446  0.0731 -0.2348 -0.0518
33945W        W34809   5.370  11.608  16.768 -0.0257 -0.1338  0.0920
33946W        W34810   6.880   7.100  17.001 -0.0460  0.0226  0.3430
33947W        W34811   6.058  11.766  16.894 -0.0329  0.0216  0.0113
33948W        W34812   4.032   7.887  15.195 -0.1109  0.1070 -0.1766
33949W        W34813   2.454   8.753  15.429  0.0422  0.1665 -0.0958
33950W        W34814   5.766   8.983  15.799 -0.4455  0.0867 -0.0341
33951W        W34815   3.677   7.171  14.570 -0.0226  0.0451  0.1400
33952W        W34816   3.838   9.800  16.131  0.1865  0.0519 -0.2079
33953W        W34817   6.249   8.285  13.351  0.1642  0.2530  0.0716
33954W        W34818   6.723   8.061  17.101  0.1386 -0.0407 -0.0008
33955W        W34819   6.024   6.889  17.515 -0.1770 -0.0486 -0.1621
33956W        W34820   3.824   9.334  17.222 -0.0493 -0.1194 -0.1676
33957W        W34821   7.136  10.181  15.720 -0.0536 -0.0564  0.2888
33958W        W34822   5.733   9.694  18.128 -0.0548  0.0253  0.0905
33959W        W34823   6.994   4.769  17.618  0.0220  0.0348  0.1838
33960W        W34824   5.908   5.993  19.351 -0.1932  0.0288  0.0393
33961W        W34825   6.936   8.989  15.945  0.1647  0.1277 -0.0889
33962W        W34826   5.293  14.412  15.110 -0.3341  0.0746  0.0459
33963W        W34827   4.014  12.083  16.749 -0.1298  0.0594  0.0163
33964W        W34828   5.648   7.712  13.800  0.1332  0.1674  0.1300
33965W        W34829   8.314   8.425  15.186 -0.3845 -0.0540  0.1659
33966W        W34830   8.179  11.345  14.062  0.0825 -0.0020  0.0996
33967W        W34831   7.031   9.736  15.507 -0.3251 -0.1543 -0.0980
33968W        W34832   5.368   5.419  15.263  0.4567 -0.1639 -0.2196
33969W        W34833   5.432   9.654  16.985  0.0377  0.0123 -0.0358
33970W        W34834   5.959   6.385  15.853 -0.1552 -0.0319 -0.5264
33971W        W34835   4.669  13.365  18.077  0.0239 -0.1038 -0.0413
33972W        W34836   4.290   7.367  16.288  0.1400 -0.2786 -0.0515
33973W        W34837   3.493  11.016  16.094  0.3582 -0.2560  0.0860
33974W        W34838   6.137   4.237  17.457 -0.0959 -0.1435 -0.1344
33975W        W34839   4.715  10.044  14.330  0.0104 -0.0288 -0.1118
33976W        W34840   9.793   9.626  11.673  0.1879  0.2230 -0.5774
33977W        W34841   4.947   9.377  13.412  0.0620 -0.1810  0.1107
33978W        W34842   5.985   8.181  16.720 -0.0504 -0.0479  0.3051
33979W        W34843   3.806   6.548  15.356  0.1344 -0.0670 -0.3249
33980W        W34844   5.730  12.150  17.626  0.0333  0.3341 -0.1064
33981W        W34845   5.104  11.212  18.118 -0.1077  0.0727 -0.0380
33982W        W34846   4.003   7.439  14.926 -0.0002 -0.2370 -0.4034
33983W        W34847   4.042  10.805  17.544  0.1270  0.2418  0.0737
33984W        W34848   3.026  12.162  14.996  0.2362  0.0039 -0.3418
33985W        W34849   5.680   9.544  12.216  0.2349 -0.1646 -0.0061
33986W        W34850   5.177   8.794  14.948 -0.1335 -0.3745 -0.4434
33987W        W34851   4.953  10.135  18.417 -0.0705  0.0717  0.0329
33988W        W34852   6.541   8.931  18.552 -0.1400 -0.1155 -0.3621
33989W        W34853   8.979   9.016  15.108 -0.3015 -0.1308  0.0817
33990W        W34854   7.264   6.928  17.234  0.3051  0.0096  0.2199
33991W        W34855   6.779   7.750  16.331  0.1481  0.0295  0.0764
33992W        W34856   5.031   9.863  17.086  0.0959 -0.0082  0.3076
33993W        W34857   4.731   8.685  16.469 -0.0706 -0.0382 -0.0151
33994W        W34858   8.546   9.102  15.309  0.2397  0.0509  0.1835
33995W        W34859   6.144   6.197  17.052  0.0128 -0.1885 -0.0168
33996W        W34860   6.173   6.245  17.988  0.1397  0.1967 -0.0937
33997W        W34861   4.297   8.908  13.011  0.0611  0.0058 -0.0722
33998W        W34862   4.085   5.513  18.308  0.0832 -0.2621  0.2659
33999W        W34863   5.096   6.817  17.809  0.3301 -0.0908  0.1102
34000W        W34864   4.768   8.614  14.067 -0.4885  0.3028  0.2330
34001W        W34865   3.287   9.238  17.301  0.0429  0.2891  0.1514
34002W        W34866   8.765  10.022  13.642  0.2460 -0.1838  0.1735
34003W        W34867   7.020  11.910  12.546  0.0434 -0.0673 -0.0180
34004W        W34868   3.052   9.031  14.884  0.0585 -0.1400  0.0079
34005W        W34869   5.605  10.130  17.871 -0.1462  0.4679 -0.0708
34006W        W34870   3.333   7.804  13.602  0.6912 -0.4062 -0.0216
34007W        W34871   3.880   9.045  15.112  0.1138 -0.0483 -0.1441
34008W        W34872   5.524   6.737  17.494 -0.0558 -0.0976 -0.2319
34009W        W34873   7.796   8.354  15.238 -0.0799 -0.0071  0.1463
34010W        W34874   6.936   6.934  14.734 -0.0831 -0.0775 -0.0013
34011W        W34875   5.103  12.108  13.325 -0.2695  0.2993 -0.1905
34012W        W34876   7.210  13.229  13.922  0.0036  0.1049 -0.1777
34013W        W34877   6.371   9.905  20.427 -0.2056  0.0532  0.6108
34014W        W34878   3.633   9.876  18.053  0.1380 -0.1141  0.0452
34015W        W34879   6.924   7.256  17.494 -0.0465 -0.0235 -0.1725
34016W        W34880   7.548   7.199  14.608 -0.0445 -0.3578 -0.0079
34017W        W34881   4.303  11.440  18.757  0.1819  0.1741 -0.0947
34018W        W34882   5.211   7.392  13.549  0.3072 -0.1567  0.2171
34019W        W34883   5.634  10.300  11.034  0.3424  0.0908 -0.4561
34020W        W34884   2.512   8.455  18.684  0.1280  0.1310 -0.1896
34021W        W34885   4.669  11.555  17.373  0.1337 -0.1428  0.2028
34022W        W34886   8.266   9.135  17.325 -0.0902  0.1130 -0.0600
34023W        W34887   7.489  10.520  17.512 -0.1612  0.0004  0.0001
34024W        W34888   5.981  12.104  18.577  0.1796  0.0619 -0.0675
34025W        W34889   5.190   9.462  16.204 -0.0448 -0.1610  0.0505
34026W        W34890   6.592   8.253  19.132  0.0599 -0.0739 -0.2500
34027W        W34891   2.626  11.015  15.750  0.1765 -0.2677 -0.0258
34028W        W34892   8.883   9.596  12.877  0.3098 -0.3227 -0.0894
34029W        W34893   4.413   8.354  16.350 -0.4290 -0.3389  0.2477
34030W        W34894   5.267  10.586  13.159  0.3701 -0.5143 -0.3190
34031W        W34895   8.009   9.230  15.119  0.5046 -0.1315  0.0821
34032W        W34896   7.241   9.260  17.310 -0.0115  0.1190 -0.1158
34033W        W34897   7.144   9.781  17.042  0.1916 -0.0304 -0.2962
34034W        W34898   5.063   9.643  14.706  0.0327 -0.0973 -0.0157
34035W        W34899   6.112   8.983  16.416  0.3187 -0.0342 -0.1538
34036W        W34900   3.701  10.806  18.892  0.1352  0.0692 -0.4618
34037W        W34901   4.172  12.107  15.737  0.2108  0.0405 -0.0729
34038W        W34902   7.130   7.541  17.886  0.0471  0.1198 -0.0203
34039W        W34903   2.794   7.495  14.407 -0.1382 -0.1276 -0.0675
34040W        W34904   4.888  11.656  14.749  0.0441 -0.1416 -0.1074
34041W        W34905   4.717  10.632  18.256  0.1407  0.3058  0.3865
34042W        W34906   2.711  10.084  15.694  0.1384 -0.1152  0.1427
34043W        W34907   4.676  12.158  15.492  0.1512  0.1439  0.4262
34044W        W34908   5.181   9.756  15.741 -0.0759  0.0730  0.2270
34045W        W34909   4.104  10.820  14.090  0.1163  0.2127 -0.3654
34046W        W34910   5.367  12.325  17.277  0.2961  0.5850  0.0940
34047W        W34911   4.840   9.820  13.845  0.1081  0.1274 -0.0045
34048W        W34912   5.598   9.751  15.220 -0.1950  0.1250  0.0005
34049W        W34913   3.041   8.958  13.890 -0.1266 -0.0756  0.0963
34050W        W34914   5.084   8.435  15.578 -0.3559 -0.0775  0.1740
34051W        W34915   6.423  11.036  10.787 -0.4018  0.1253 -0.2598
34052W        W34916   6.493   8.094  17.548 -0.1228 -0.0030 -0.1437
34053W        W34917   4.984  12.388  16.402  0.0088  0.0872 -0.0910
34054W        W34918   6.795   7.254  12.791 -0.1162  0.1041 -0.0148
34055W        W34919   6.669   9.204  17.154  0.0613  0.0289  0.1965
34056W        W34920   2.623  10.142  19.958  0.0453 -0.1191 -0.2827
34057W        W34921   5.435   5.911  19.651 -0.1960 -0.0100  0.0145
34058W        W34922   7.881   6.920  17.622  0.1161 -0.0335  0.1214
34059W        W34923   3.374  14.519  15.181 -0.1941  0.3106  0.1736
34060W        W34924   2.230  11.260  16.683  0.1808  0.0943 -0.0820
34061W        W34925   4.032  11.366  15.295  0.2053 -0.0143 -0.2541
34062W        W34926   7.227   8.823  14.664 -0.0301  0.2549  0.3151
34063W        W34927   7.803   9.874  18.064 -0.1701  0.1897  0.3131
34064W        W34928   8.411   9.578  15.175  0.1648  0.0269  0.3509
34065W        W34929   4.054   9.851  14.218  0.1813  0.2223  0.0327
34066W        W34930   6.184   7.838  17.837 -0.0186 -0.2601 -0.0619
34067W        W34931   4.069   8.913  20.103  0.0889  0.1132 -0.1084
34068W        W34932   3.791  10.094  15.114  0.2427 -0.0645  0.2223
34069W        W34933   3.469  12.150  14.810  0.0189  0.1717 -0.1894
34070W        W34934   6.711   8.709  16.261  0.1755 -0.0614  0.1604
34071W        W34935   2.567  10.523  15.874  0.0451 -0.3899  0.0464
34072W        W34936   7.017   6.907  18.361 -0.0071  0.0287  0.0748
34073W        W34937   5.969   8.517  13.822 -0.0417  0.2096  0.1466
34074W        W34938   1.717   8.836  18.126  0.2377 -0.0954 -0.0888
34075W        W34939   6.440   7.251  15.978  0.2894  0.1580  0.1921
34076W        W34940   2.583   8.053  14.125 -0.0012  0.0492  0.0199
34077W        W34941   3.058   9.462  14.040  0.2726 -0.1663  0.1934
34078W        W34942   3.617   9.304  16.473 -0.0472  0.1364 -0.0851
34079W        W34943   5.011  11.265  13.629  0.0563  0.0393  0.1780
34080W        W34944   5.154   7.612  17.378 -0.0756  0.1187  0.2452
34081W        W34945   7.133   8.976  12.671  0.2170 -0.2247 -0.1799
34082W        W34946   2.759   5.317  17.408  0.1195 -0.1456 -0.1688
34083W        W34947   8.848   5.697  12.494 -0.0607  0.2516  0.0588
34084W        W34948   5.980  10.173  15.284  0.0960  0.0406 -0.3629
34085W        W34949   1.631   9.485  15.901  0.3422  0.3744 -0.1609
34086W        W34950   7.303   9.779  16.477  0.1174 -0.1600  0.3061
34087W        W34951   7.141   8.886  16.433  0.0533 -0.3470 -0.1318
34088W        W34952   7.257   8.057  12.569  0.3268  0.0765  0.2239
34089W        W34953   3.730  10.920  15.466 -0.0507  0.2512  0.0630
34090W        W34954   5.535   6.324  13.699  0.3780  0.2437 -0.1704
34091W        W34955  10.177   9.843  13.150 -0.3100 -0.1611 -0.0821
34092W        W34956   5.583  10.581  18.017  0.1920  0.1448  0.0185
34093W        W34957   5.667   8.502  16.374 -0.2360  0.1003  0.0504
34094W        W34958   2.829  10.078  15.172  0.0029  0.0800  0.1156
34095W        W34959   4.238   9.944  15.104 -0.2030  0.0960 -0.1821
34096W        W34960   5.398   6.809  19.203 -0.3085 -0.0571  0.1671
34097W        W34961   4.256  11.654  16.493  0.2266 -0.0046  0.1270
34098W        W34962   6.788   9.026  17.564 -0.1519  0.0076 -0.1701
34099W        W34963   5.110   8.314  14.915  0.1723  0.2556 -0.3179
34100W        W34964   5.939  12.303  15.615  0.0723  0.2747 -0.2278
34101W        W34965   7.665   8.232  16.106 -0.2341  0.2666  0.0028
34102W        W34966   5.000   6.626  15.931  0.0631 -0.1658  0.2187
34103W        W34967   6.942   9.523  12.107 -0.1769 -0.2035  0.1375
34104W        W34968   5.122   8.956  14.031 -0.1126 -0.0442 -0.2588
34105W        W34969   5.885   9.351  14.814 -0.0476 -0.1221  0.1477
34106W        W34970   3.774   8.587  16.289  0.2201 -0.1278 -0.0928
34107W        W34971   5.010  11.790  14.248  0.0696  0.0307 -0.1280
34108W        W34972   4.752   8.022  17.982 -0.0320 -0.2590  0.1535
34109W        W34973   4.082   9.566  18.978  0.0753  0.2146 -0.3319
34110W        W34974   4.830  10.802  16.664  0.0759 -0.1146 -0.2258
34111W        W34975   6.754   7.798  15.856 -0.2060 -0.1641 -0.0436
34112W        W34976   6.691   7.541  16.824  0.2477 -0.0963 -0.1763
34113W        W34977   5.450   9.409  18.411  0.0222 -0.1685 -0.1057
34114W        W34978   7.131   8.117  15.212  0.2403 -0.0260  0.1539
34115W        W34979   4.000  12.565  16.095  0.0518 -0.2563  0.1234
34116W        W34980   7.126  11.416  14.017  0.0803 -0.2716  0.1950
34117W        W34981   3.958   9.869  15.549  0.1731  0.0625 -0.4003
34118W        W34982   4.237   8.820  14.038  0.3299  0.0950  0.2168
34119W        W34983   7.442   7.793  13.020 -0.0487  0.3309 -0.2278
34120W        W34984   5.083   8.559  17.381 -0.0498  0.1176  0.1410
34121W        W34985   7.081   8.110  18.087  0.1707 -0.1822 -0.0990
34122W        W34986   5.297   9.700  13.519 -0.0671  0.0067  0.2755
34123W        W34987   3.254   7.715  15.343  0.3142  0.0616 -0.3517
34124W        W34988   4.832   7.680  15.565 -0.1063 -0.0310 -0.1084
34125W        W34989   3.523   8.472  14.929  0.0061 -0.0373  0.1049
34126W        W34990   7.256   8.148  13.788 -0.1633  0.0677 -0.1477
34127W        W34991   5.437   8.735  16.899 -0.0311 -0.2685 -0.0517
34128W        W34992   5.720   9.772  19.329 -0.0896 -0.0052  0.1187
34129W        W34993  10.346  10.386  16.220  0.3922 -0.1504 -0.1107
34130W        W34994   6.713   9.624  16.868 -0.1708 -0.0770 -0.3257
34131W        W34995   5.006  11.199  17.082  0.2176 -0.0225 -0.2280
34132W        W34996   8.787  11.711  15.040  0.1220 -0.1696 -0.1799
34133W        W34997   5.476  10.103  13.056 -0.0615  0.0868 -0.1540
34134W        W34998   3.455   8.793  13.615 -0.0739  0.0589 -0.0665
34135W        W34999   6.799  10.984  15.341 -0.1198 -0.0135 -0.4228
34136W        W35000   3.526   9.708  16.967 -0.0228  0.0748  0.1872
34137W        W35001   4.949   6.852  18.309 -0.2642  0.3199 -0.1196
34138W        W35002   4.190  10.465  15.176 -0.1692 -0.1850 -0.1087
34139W        W35003   3.998   8.058  14.278 -0.0847 -0.0630 -0.1060
34140W        W35004   5.180  13.118  17.954 -0.4881  0.0646 -0.2779
34141W        W35005   3.649   6.573  14.793  0.0388 -0.0705 -0.1014
34142W        W35006   2.782   7.913  15.344  0.1926 -0.0955  0.0218
34143W        W35007   7.197  11.376  17.786  0.1514  0.4318  0.1109
34144W        W35008   3.475   7.902  17.489  0.1284 -0.2448 -0.1868
34145W        W35009   8.853   8.701  16.038 -0.1367  0.0565 -0.1190
34146W        W35010   4.680   7.835  12.810 -0.2221  0.1223 -0.0450
34147W        W35011   6.785  10.633  16.504  0.1411 -0.0440 -0.0653
34148W        W35012   4.262   9.557  17.464  0.0787 -0.0435 -0.2572
34149W        W35013   6.317  13.001  15.066  0.0043  0.1231  0.0510
34150W        W35014   5.049   7.456  13.054 -0.2235 -0.2038 -0.1133
34151W        W35015   0.361  10.779  16.377  0.1718  0.1107  0.2193
34152W        W35016   5.654   8.725  21.143  0.1689 -0.0525  0.1731
34153W        W35017   4.114   7.505  17.018  0.0319 -0.2471 -0.1213
34154W        W35018   4.412   7.811  14.115  0.1791  0.0736 -0.1761
34155W        W35019   6.197   7.619  13.643  0.0088  0.1770 -0.1202
34156W        W35020   5.178   8.179  17.819  0.3819 -0.2977 -0.0527
34157W        W35021   4.372   8.940  15.332  0.1429 -0.3918  0.2916
34158W        W35022   6.212   8.722  19.165 -0.2131  0.0954 -0.0660
34159W        W35023   4.984  11.583  17.778 -0.1726 -0.1866  0.0074
34160W        W35024   5.134   9.971  15.288  0.1333 -0.1091 -0.0819
34161W        W35025   6.875   8.346  12.602  0.0045 -0.1591  0.2279
34162W        W35026   7.618   8.061  16.622 -0.1167 -0.3789  0.1229
34163W        W35027   5.715   9.046  13.124  0.0028 -0.1318 -0.0380
34164W        W35028   6.536   9.952  17.663 -0.1047 -0.0410 -0.1092
34165W        W35029   2.840   9.886  14.690  0.0737 -0.1752  0.0183
34166W        W35030   6.010   7.140  16.236  0.1409  0.2077  0.1242
34167W        W35031   4.866   8.125  14.028  0.0040  0.2806  0.0159
34168W        W35032   5.023  10.980  19.463 -0.0729  0.0563  0.1395
34169W        W35033   7.193   9.196  13.119 -0.0151 -0.0768 -0.0939
34170W        W35034   2.882   8.471  16.452 -0.4120  0.1910 -0.4029
34171W        W35035   2.440   7.862  16.928  0.1131 -0.2811  0.2019
34172W        W35036   5.578   9.024  16.337 -0.0611 -0.2561  0.0628
34173W        W35037   4.281   7.103  19.095 -0.0728  0.4586 -0.0274
34174W        W35038   3.595   9.711  19.222  0.0729 -0.3674  0.0230
34175W        W35039   6.142   9.096  19.529  0.0702 -0.0385  0.4357
34176W        W35040   5.258  12.503  14.754 -0.2025  0.1504  0.0146
34177W        W35041   6.587   7.946  14.536 -0.0949 -0.1569 -0.1490
34178W        W35042   8.390  10.042  17.102 -0.2168 -0.0423  0.2387
34179W        W35043   7.683  10.686  15.648 -0.1320 -0.1373  0.1097
34180W        W35044   5.945   9.825  17.040 -0.2548 -0.2257 -0.3071
34181W        W35045   4.366  11.064  14.879  0.0140 -0.1548 -0.0662
34182W        W35046   4.410   9.144  15.792  0.1583 -0.0141 -0.0727
34183W        W35047   6.994  10.236  13.304 -0.1850 -0.2014  0.0174
34184W        W35048   5.681   9.633  16.489 -0.1819 -0.0635  0.0281
34185W        W35049   5.486   7.638  19.186 -0.1691  0.1421 -0.0226
34186W        W35050   4.543  10.940  16.201  0.0279 -0.1842  0.0411
34187W        W35051   5.735   9.930  13.484  0.3693  0.2606  0.0540
34188W        W35052   2.947  12.116  17.758 -0.2053  0.1007 -0.1191
34189W        W35053   3.879  11.207  15.833 -0.0540 -0.0504 -0.0138
34190W        W35054   8.186  10.979  17.221  0.0221 -0.2721 -0.2751
34191W        W35055   4.425  12.146  16.224  0.1543  0.0320  0.0532
34192W        W35056   4.510   9.959  19.192  0.1781  0.3395  0.0515
34193W        W35057   3.102  12.069  14.401  0.3024  0.1671  0.0560
34194W        W35058   2.878   9.559  15.059  0.2321  0.0199  0.4293
34195W        W35059   5.227   9.281  22.646 -0.1457 -0.2087 -0.4370
34196W        W35060   2.219   9.953  19.767  0.3259  0.1968 -0.0398
34197W        W35061   5.916  10.136  16.511 -0.3987 -0.2609 -0.0380
34198W        W35062   6.653  13.019  18.437  0.1587  0.3891  0.0183
34199W        W35063   2.967   9.953  16.972 -0.0800 -0.0473 -0.2755
34200W        W35064   4.009   8.317  19.888 -0.0225 -0.0763 -0.1088
34201W        W35065   3.016   9.817  17.867 -0.2147  0.1478 -0.0167
34202W        W35066   6.939   7.526  20.297 -0.1831  0.1154  0.2238
34203W        W35067   3.673  10.674  18.245 -0.1893 -0.1113 -0.0967
34204W        W35068   1.626   6.931  23.311 -0.4462 -0.1797  0.0034
34205W        W35069   5.234   7.057  21.526  0.1733 -0.3323  0.0771
34206W        W35070   6.973   7.251  21.525  0.2930  0.0818  0.1426
34207W        W35071   6.564   8.061  20.463  0.1353 -0.2685  0.0392
34208W        W35072   5.750  10.059  20.678 -0.0321 -0.0580  0.1823
34209W        W35073   2.914   8.893  23.930  0.0919 -0.0777  0.1938
34210W        W35074   2.759  10.974  20.275  0.0980  0.2496 -0.2251
34211W        W35075   5.804   9.003  19.229 -0.0188 -0.1168  0.0118
34212W        W35076   4.155  10.960  20.632 -0.1511 -0.2166  0.2194
34213W        W35077   5.376   9.835  22.676 -0.1458  0.1921 -0.0089
34214W        W35078   7.360   7.562  22.736  0.0914 -0.1111 -0.0419
34215W        W35079   7.460   9.666  21.482  0.0213 -0.0998 -0.0166
34216W        W35080   7.700   5.938  20.181  0.2729 -0.3727 -0.1407
34217W        W35081   7.344  11.553  20.675 -0.1951 -0.1762 -0.0846
34218W        W35082   2.834   5.906  19.798 -0.0000 -0.2247 -0.2376
34219W        W35083   2.411  10.784  19.302 -0.0964  0.1891  0.2838
34220W        W35084   1.977   8.021  23.615  0.0177 -0.2726  0.1784
34221W        W35085   6.906  10.702  24.757 -0.1885 -0.0286  0.0275
34222W        W35086   6.165   7.832  21.097  0.2069  0.1032 -0.3774
34223W        W35087   5.382  10.382  21.954 -0.0422  0.1495  0.1929
34224W        W35088   3.543   8.245  21.977  0.3156  0.0685  0.3293
34225W        W35089   3.333  10.056  19.521 -0.1881 -0.3767  0.1741
34226W        W35090   3.075   8.349  20.979  0.3894 -0.0514 -0.1933
34227W        W35091   2.769  11.437  20.881 -0.1226  0.0575 -0.1476
34228W        W35092   4.898   7.505  21.564 -0.2281  0.0680 -0.0551
34229W        W35093   3.548   8.261  23.341  0.1464  0.1089 -0.0253
34230W        W35094   4.714   8.247  22.907  0.0875  0.0766  0.1480
34231W        W35095   3.433   7.260  18.807 -0.2509 -0.0437 -0.1799
34232W        W35096   5.147  12.149  19.364 -0.1203 -0.0881 -0.0885
34233W        W35097   4.573  11.251  19.480 -0.1169  0.0517  0.1025
34234W        W35098   8.823   9.003  20.568 -0.0814  0.2586 -0.3070
34235W        W35099   8.252   7.943  18.713 -0.2671 -0.2136  0.0907
34236W        W35100   7.398   7.102  22.955 -0.0447  0.3007  0.1929
34237W        W35101   6.480  11.061  19.695  0.0299  0.0608  0.0740
34238W        W35102   5.130   9.887  18.964 -0.0519 -0.1237  0.2705
34239W        W35103   5.179  11.641  17.283 -0.2023 -0.2997 -0.2222
34240W        W35104   4.160  10.815  19.658 -0.1854  0.0065 -0.4589
34241W        W35105   2.229   7.603  23.431  0.2062  0.1242 -0.3120
34242W        W35106   8.908   9.381  23.161 -0.0016  0.2469 -0.1331
34243W        W35107   8.820   8.917  17.824 -0.2043  0.3085  0.0040
34244W        W35108   7.321   9.012  19.911  0.1646 -0.2046 -0.1624
34245W        W35109   3.560  10.366  19.188 -0.0829  0.2460 -0.1200
34246W        W35110   5.749   7.119  21.422  0.0437 -0.0855 -0.0281
34247W        W35111   5.145  10.486  20.363  0.0423 -0.1385  0.1574
34248W        W35112   7.721   5.972  17.360  0.0072  0.1234  0.0202
34249W        W35113   4.728   6.048  18.296  0.1456  0.3042 -0.2412
34250W        W35114   2.272  12.552  19.332 -0.1613  0.2973 -0.5211
34251W        W35115   4.139   8.333  18.744  0.1655  0.0663  0.2424
34252W        W35116   6.002   9.880  17.620  0.0744 -0.0811  0.0458
34253W        W35117   2.693  11.783  22.849 -0.1413 -0.0499 -0.2952
34254W        W35118   6.990  10.971  18.209 -0.0885 -0.1071 -0.3472
34255W        W35119   6.260   9.535  16.635  0.2037 -0.2328  0.1781
34256W        W35120   2.938  10.412  22.105 -0.1290 -0.1931 -0.1752
34257W        W35121   3.705  12.636  21.410 -0.1177 -0.1074  0.2037
34258W        W35122   3.244   9.039  18.175  0.0752  0.1034 -0.1001
34259W        W35123   6.175   7.892  20.146  0.1367  0.3673  0.1212
34260W        W35124   7.079   9.934  25.216 -0.0506  0.1507 -0.2928
34261W        W35125   4.251  10.179  17.483  0.0671  0.2831  0.1488
34262W        W35126   4.323   9.058  17.560 -0.1209  0.0463  0.1043
34263W        W35127   5.172  10.378  16.983  0.0720 -0.1392  0.1031
34264W        W35128   4.361   9.520  16.775  0.3219 -0.0922  0.1558
34265W        W35129   6.470   8.582  20.724  0.1977 -0.0942 -0.1245
34266W        W35130   7.348   6.187  19.282  0.0555  0.0590 -0.1712
34267W        W35131   3.723  11.646  18.337 -0.1184  0.0033  0.3528
34268W        W35132   5.211  11.284  19.780  0.1570  0.1620  0.0338
34269W        W35133   6.548   9.866  18.456 -0.1064  0.0461 -0.0418
34270W        W35134   4.343   7.942  20.672 -0.0808  0.0152 -0.0406
34271W        W35135   3.094  11.022  20.694  0.0547  0.1156 -0.1760
34272W        W35136   5.037  10.779  19.985  0.1248 -0.0912  0.0935
34273W        W35137   4.669   9.879  18.740  0.0586 -0.0643 -0.3640
34274W        W35138   6.640   7.858  18.037 -0.2957  0.0704 -0.0080
34275W        W35139   2.438   8.770  24.027 -0.0366  0.2323  0.1139
34276W        W35140   2.307   9.195  19.960 -0.0054 -0.0002  0.1499
34277W        W35141   4.769   8.098  21.620 -0.1139 -0.0221  0.0737
34278W        W35142   3.888  10.346  17.784 -0.2749  0.0355  0.0441
34279W        W35143   4.675   8.266  20.527  0.1884  0.0346 -0.1086
34280W        W35144   8.429  10.019  18.226  0.0938 -0.0488  0.5034
34281W        W35145   3.829  11.457  18.886 -0.0548 -0.2335  0.1449
34282W        W35146   5.765   9.221  21.376  0.0072  0.0057  0.0281
34283W        W35147   3.948  11.122  19.283 -0.0078  0.2728  0.0824
34284W        W35148   7.928   7.166  22.104  0.0095  0.1572  0.0336
34285W        W35149   6.844   7.785  18.964 -0.1724  0.0239  0.2508
34286W        W35150   6.059   7.589  24.255 -0.0668 -0.0114  0.1070
34287W        W35151   2.007  10.999  18.932  0.1463  0.1904  0.0503
34288W        W35152   4.937   7.308  16.982 -0.1473 -0.0225 -0.4601
34289W        W35153   5.038   7.281  21.019  0.1997 -0.1934 -0.0079
34290W        W35154   5.680   9.325  18.856 -0.1289  0.1059  0.4544
34291W        W35155   7.416   9.789  17.772  0.2361 -0.2822 -0.0752
34292W        W35156   4.985  11.121  21.590  0.3711  0.0697 -0.1094
34293W        W35157   2.979   7.921  17.652 -0.2338 -0.1591  0.0412
34294W        W35158   6.671   7.654  17.387 -0.0244  0.1383 -0.0015
34295W        W35159   5.822  11.310  19.045 -0.1704 -0.4526  0.1835
34296W        W35160   2.509   7.599  18.887 -0.0481 -0.1045 -0.3336
34297W        W35161   6.095   8.367  17.874 -0.0466  0.0103  0.1240
34298W        W35162   7.333  11.166  21.883  0.4191  0.2840 -0.3230
34299W        W35163   6.419   5.448  22.371 -0.0326  0.1698  0.1680
34300W        W35164   5.723   8.052  21.814  0.1572  0.1868  0.3133
34301W        W35165   6.192  10.327  21.314  0.0920  0.0895 -0.3329
34302W        W35166   6.006   9.882  23.531 -0.2387 -0.0803  0.0112
34303W        W35167   2.848   9.329  18.277 -0.1732 -0.2128  0.0907
34304W        W35168   4.695   7.130  21.897 -0.2650 -0.2465 -0.0434
34305W        W35169   4.471  11.337  20.245  0.2362 -0.1937  0.1465
34306W        W35170   4.927  10.077  17.525 -0.0427  0.1780  0.1616
34307W        W35171   6.899   7.603  22.595  0.1553  0.2787  0.1314
34308W        W35172   5.333  10.621  19.254 -0.2602  0.1698 -0.1147
34309W        W35173   7.006  11.039  16.293 -0.1487 -0.1903  0.0371
34310W        W35174   5.962   6.332  21.516  0.1067  0.3770  0.0559
34311W        W35175   8.516   6.412  21.756  0.2483  0.1454 -0.1227
34312W        W35176   3.793   9.051  19.034  0.2874 -0.0165  0.0529
34313W        W35177   3.861   8.799  19.654  0.3581 -0.3387 -0.1649
34314W        W35178   4.558   7.526  19.134 -0.0342 -0.1744 -0.0195
34315W        W35179   7.346   8.506  19.821 -0.2914 -0.2511 -0.3009
34316W        W35180   6.645  10.257  19.014 -0.1239 -0.1370  0.0247
34317W        W35181   6.198   7.869  19.633  0.1908 -0.4415 -0.0436
34318W        W35182   7.371   7.264  20.399  0.0783 -0.0642 -0.1497
34319W        W35183   5.143   9.393  18.795  0.1727  0.0822  0.3847
34320W        W35184   7.169   7.781  20.655  0.3227 -0.4523 -0.1597
34321W        W35185   2.753   7.625  22.159  0.1125 -0.2299 -0.1855
34322W        W35186   5.917   9.650  21.719  0.1671  0.0323 -0.0094
34323W        W35187   5.512   8.176  18.822 -0.1301  0.0670 -0.1855
34324W        W35188   2.701   9.559  20.072 -0.1189 -0.0560  0.1232
34325W        W35189   8.856   9.555  21.873 -0.1498  0.3071  0.0140
34326W        W35190   6.195   9.596  21.007 -0.0386 -0.0904  0.2347
34327W        W35191   3.017  12.278  19.861 -0.0264 -0.1123  0.0203
34328W        W35192   7.466   7.179  20.853  0.0797 -0.0133 -0.0185
34329W        W35193   7.255  10.250  18.669  0.2203  0.1247  0.1092
34330W        W35194   2.691  11.293  19.855 -0.0345 -0.1772  0.2819
34331W        W35195   5.391   6.001  19.109  0.1080 -0.3806 -0.0046
34332W        W35196   4.564   9.429  20.677  0.0221 -0.1572 -0.1027
34333W        W35197   5.268   8.093  19.234  0.1034  0.0964  0.2392
34334W        W35198   4.827   8.657  18.687 -0.0238  0.0396 -0.0214
34335W        W35199   3.998   9.219  20.490  0.0293 -0.1929  0.0552
34336W        W35200   2.893  10.070  20.934 -0.1196 -0.1278 -0.2434
34337W        W35201   3.006  10.494  19.460 -0.0523 -0.0790 -0.1330
34338W        W35202   7.513   8.976  19.077  0.3043  0.0237 -0.4538
34339W        W35203   4.572   9.097  20.132 -0.2952 -0.0110  0.1526
34340W        W35204   5.650   8.089  20.229  0.1398  0.1267  0.2396
34341W        W35205   3.976   7.824  19.756 -0.0828  0.0918  0.1401
34342W        W35206   6.382  12.860  19.585  0.0140  0.0962  0.0669
34343W        W35207   6.359  13.452  19.601 -0.2827  0.1865  0.0656
34344W        W35208   2.516   7.528  21.261  0.0083 -0.0031  0.0741
34345W        W35209   3.615   9.539  20.564  0.1575 -0.0106  0.1460
34346W        W35210   3.698   9.455  20.043  0.0699 -0.1634  0.0397
34347W        W35211   4.384   8.912  20.627  0.2440 -0.0577  0.1373
34348W        W35212   4.073   9.177  16.536 -0.3793 -0.0028  0.0398
34349W        W35213   2.817  10.574  24.163 -0.0864 -0.2063  0.1026
34350W        W35214   6.063   8.208  18.860  0.0341  0.0810  0.0791
34351W        W35215   2.335   9.878  19.190 -0.1654 -0.1145 -0.1005
34352W        W35216   6.404   9.626  17.305 -0.1213 -0.0685 -0.1738
34353W        W35217   3.279   5.759  17.816 -0.3446  0.3206  0.3852
34354W        W35218   5.317  10.389  17.548  0.4018 -0.2303  0.0838
34355W        W35219   7.992   6.613  20.274  0.0483 -0.1746 -0.0159
34356W        W35220   2.257  12.308  20.002  0.0877 -0.0609  0.1695
34357W        W35221   7.710   7.070  22.587 -0.3195 -0.1211 -0.2321
34358W        W35222   4.328  12.209  21.406  0.2179 -0.0277 -0.1911
34359W        W35223   6.255  10.716  21.815  0.1225 -0.1096  0.4407
34360W        W35224   3.901   8.251  20.399  0.3828 -0.1026  0.2039
34361W        W35225   4.427   9.606  18.402  0.1211 -0.0855  0.1088
34362W        W35226   4.575  11.938  19.432 -0.2370  0.2245 -0.1439
34363W        W35227   5.701  11.256  23.105  0.1682 -0.1090  0.1844
34364W        W35228   4.534  10.736  19.315 -0.1793  0.1020 -0.0616
34365W        W35229   7.106   9.339  17.812 -0.0358  0.0188 -0.4965
34366W        W35230   3.276   7.840  19.522 -0.2932 -0.3239 -0.3108
34367W        W35231   7.339   7.941  18.937  0.1961  0.0662  0.0918
34368W        W35232   4.552   8.707  17.099  0.2873  0.1327  0.3323
34369W        W35233   3.159   9.287  20.781  0.1326 -0.2367  0.0830
34370W        W35234   6.217   8.342  19.486 -0.4846  0.0043 -0.1530
34371W        W35235   5.077  11.472  25.725  0.0303  0.0480  0.0632
34372W        W35236   3.600  11.488  21.434 -0.3553  0.0944 -0.0062
34373W        W35237   3.930  10.029  19.161 -0.2102  0.0097  0.0281
34374W        W35238   4.088   5.832  20.622 -0.0501  0.1346  0.0332
34375W        W35239   4.774   9.461  15.755  0.2195  0.0878  0.1838
34376W        W35240   6.027   7.582  16.678  0.0181  0.2543 -0.1200
34377W        W35241   6.254   6.668  18.340 -0.2248  0.0182  0.1757
34378W        W35242   3.254   9.272  16.825 -0.4197  0.1330 -0.1088
34379W        W35243   5.758   7.113  18.981 -0.0453 -0.0699 -0.0162
34380W        W35244   6.825  10.187  19.651 -0.3940  0.4492  0.3799
34381W        W35245   6.690   6.459  18.274 -0.2898  0.1479  0.1597
34382W        W35246   3.976   7.827  17.421  0.0320  0.0117  0.0824
34383W        W35247   3.402  11.845  18.724  0.0003  0.0385  0.2427
34384W        W35248   2.448   8.512  20.965  0.2277  0.0368 -0.2749
34385W        W35249   5.742   8.658  18.856 -0.0652  0.0985  0.2522
34386W        W35250   1.728  13.109  19.672  0.3001 -0.2170 -0.1936
34387W        W35251   4.888   9.047  20.571  0.0288 -0.2294  0.0946
34388W        W35252   2.264   6.396  22.906  0.2688 -0.0137  0.2708
34389W        W35253   5.967   7.340  22.725 -0.0429  0.0895  0.0017
34390W        W35254   3.049   6.812  22.510 -0.4089 -0.1088  0.1414
34391W        W35255   6.776   8.388  16.692  0.1774  0.1939  0.1387
34392W        W35256   3.186   5.881  22.327  0.2489  0.0207  0.1467
34393W        W35257   3.311   8.254  16.867  0.2355  0.3739  0.2355
34394W        W35258   5.570   6.635  21.656 -0.2425  0.0039  0.2077
34395W        W35259   3.404   8.836  18.594 -0.5103  0.0772  0.0964
34396W        W35260   4.819   9.554  21.998  0.0374 -0.1156  0.3757
34397W        W35261   6.415  10.186  18.139 -0.1367  0.1346 -0.0589
34398W        W35262   1.632   7.075  20.458 -0.0290  0.1151 -0.0070
34399W        W35263   4.272  10.348  20.674 -0.0341 -0.0404  0.2060
34400W        W35264   4.522   7.527  19.720  0.3522 -0.0232  0.1022
34401W        W35265   4.270  11.275  21.064 -0.1106  0.1188 -0.0532
34402W        W35266   5.970   7.828  22.510  0.0694 -0.2707  0.0218
34403W        W35267   5.388  10.585  16.479  0.0475 -0.1385  0.1394
34404W        W35268   3.045   9.211  18.740  0.2026  0.0200 -0.2204
34405W        W35269   4.108  12.803  20.189  0.2885  0.0708 -0.0508
34406W        W35270   4.429  11.702  21.187 -0.0420  0.0661  0.0461
34407W        W35271   4.398   9.128  22.004  0.0119 -0.1206 -0.0311
34408W        W35272   5.819  11.325  21.324 -0.1647 -0.1177  0.2236
34409W        W35273   6.647  11.220  20.210 -0.0410 -0.0758  0.2798
34410W        W35274   4.427   8.643  18.314  0.2290 -0.1513 -0.2696
34411W        W35275   4.679   8.305  19.845  0.1557 -0.2471  0.2499
34412W        W35276   3.866  13.022  18.049  0.1504  0.0103  0.0335
34413W        W35277   5.495   7.751  22.724 -0.1929 -0.1507 -0.0426
34414W        W35278   3.735  11.987  20.768  0.0962  0.0362 -0.2229
34415W        W35279   8.906   9.489  20.367  0.1248 -0.1921  0.1133
34416W        W35280   7.139   9.409  20.878 -0.4273 -0.2545  0.0548
34417W        W35281   4.852  12.889  22.767  0.0983 -0.3868  0.0008
34418W        W35282   5.470   9.217  17.977 -0.3244 -0.0906 -0.3110
34419W        W35283   7.195  10.089  17.433 -0.1129 -0.1100  0.1476
34420W        W35284   6.321   8.171  22.215 -0.2294 -0.0224  0.2637
34421W        W35285   5.023   8.199  22.139 -0.2873  0.0908 -0.1789
34422W        W35286   5.898   9.188  20.073 -0.2254 -0.1358  0.0071
34423W        W35287   4.753   8.932  19.559  0.2467  0.0505  0.0263
34424W        W35288   6.911   8.801  19.003 -0.2150 -0.0634 -0.0158
34425W        W35289   5.514   7.056  21.017 -0.1085  0.1572  0.1350
34426W        W35290   6.143   7.739  20.609 -0.0675  0.1935  0.0963
34427W        W35291   4.757   8.615  15.261  0.1353  0.2180  0.0052
34428W        W35292   6.114   9.977  18.851  0.0199 -0.0786 -0.0105
34429W        W35293   3.655   5.688  22.470 -0.2488 -0.1364  0.0746
34430W        W35294   2.132   9.675  18.749  0.1199  0.2594  0.2574
34431W        W35295   3.983   8.440  22.529  0.2999  0.1553  0.0335
34432W        W35296   6.220   8.625  23.123 -0.3639  0.3084 -0.0055
34433W        W35297   3.897  11.119  21.981 -0.0803  0.2780  0.0112
34434W        W35298   4.893  10.336  19.135  0.2163 -0.2510  0.0166
34435W        W35299   3.582   8.856  16.763 -0.1722  0.0475  0.2327
34436W        W35300   3.230   8.623  23.154  0.0567  0.0676 -0.0404
34437W        W35301   5.313  10.368  19.776  0.2049  0.0738  0.0628
34438W        W35302   6.233   7.983  21.603  0.1945 -0.0621  0.3421
34439W        W35303   7.544   6.578  19.534 -0.1405 -0.0261 -0.1226
34440W        W35304   5.555  10.744  16.915 -0.0362  0.2369 -0.0919
34441W        W35305   6.130   9.654  19.693  0.1753 -0.1178 -0.0957
34442W        W35306   4.616  10.334  17.826 -0.1597  0.0744 -0.0117
34443W        W35307   7.120   9.361  18.897  0.0301 -0.1102 -0.3234
34444W        W35308   4.119  10.452  20.003  0.1604 -0.0267  0.2107
34445W        W35309   5.393   8.843  19.462  0.2706 -0.0974  0.4376
34446W        W35310   3.807  10.556  20.399  0.2874 -0.2861 -0.0758
34447W        W35311   5.955  11.829  19.564  0.1351 -0.0808 -0.0982
34448W        W35312   5.378   8.487  19.904  0.0813 -0.0847 -0.1219
34449W        W35313   3.663   8.177  16.551 -0.2724  0.1562 -0.1014
34450W        W35314   6.663  12.395  20.790 -0.0315  0.3070  0.0877
34451W        W35315   6.297   3.838  17.149 -0.1603  0.2434  0.2621
34452W        W35316   2.070   6.440  20.600  0.1144  0.3470  0.1443
34453W        W35317   9.671  10.428  20.273  0.2069 -0.2457 -0.0376
34454W        W35318   5.818   6.413  18.478 -0.3119 -0.1254 -0.4084
34455W        W35319   6.336   6.245  20.683  0.2825 -0.0289  0.0781
34456W        W35320   3.887   6.231  23.773 -0.3414  0.1124 -0.2033
34457W        W35321   6.354  11.547  20.396 -0.0592 -0.4277  0.0392
34458W        W35322   6.019   8.649  22.029 -0.3262 -0.2363  0.3268
34459W        W35323   4.315   9.060  19.276 -0.0546 -0.0678  0.0502
34460W        W35324   4.435   9.958  20.340 -0.3548 -0.3201  0.2386
34461W        W35325   4.065   9.396  16.121  0.0585 -0.1329 -0.2116
34462W        W35326   4.857   9.015  19.051 -0.0178  0.0763 -0.3762
34463W        W35327   5.538   7.192  24.087 -0.1879 -0.1614 -0.0121
34464W        W35328   5.227  10.389  21.105 -0.2156  0.1604 -0.0145
34465W        W35329   2.811  11.257  17.747  0.3265  0.1030  0.0865
34466W        W35330   9.174   7.572  20.791  0.2501  0.0883  0.1132
34467W        W35331   5.960   8.683  20.777  0.0425  0.0422  0.0949
34468W        W35332   2.635  10.659  19.840  0.1708 -0.3113  0.0354
34469W        W35333   7.859  10.637  20.332 -0.0414  0.3721 -0.1372
34470W        W35334   4.861   9.089  21.067  0.0937  0.2177 -0.2601
34471W        W35335   3.316   7.477  21.279 -0.1031 -0.0389  0.0503
34472W        W35336   3.430   8.721  19.333  0.0395  0.3347 -0.1650
34473W        W35337   2.448   8.315  16.772 -0.3995  0.1144  0.0725
34474W        W35338   3.455  11.827  23.369 -0.0914  0.1185  0.0028
34475W        W35339   4.865   7.798  19.968  0.1466 -0.0622 -0.0320
34476W        W35340   3.757  10.341  18.723 -0.2605 -0.0478  0.1589
34477W        W35341   2.615  10.046  20.518  0.1585  0.0744 -0.0103
34478W        W35342   2.116   9.396  20.828 -0.0435 -0.2890  0.1718
34479W        W35343   6.605   9.065  20.218 -0.0913 -0.1719  0.0987
34480W        W35344   7.036   6.855  20.168 -0.0604 -0.1116 -0.1359
34481W        W35345   5.106   9.477  17.465 -0.0977  0.2571  0.0700
34482W        W35346   2.593   8.502  21.795  0.0629 -0.1002  0.0665
34483W        W35347   8.828   7.103  17.427  0.0210  0.0635 -0.0875
34484W        W35348   5.675   9.864  16.014 -0.0070  0.1787  0.1997
34485W        W35349   5.932   9.295  17.803  0.0211 -0.0117  0.1267
34486W        W35350   6.753  10.203  20.235  0.0696 -0.2817 -0.0492
34487W        W35351   5.927   7.438  20.936 -0.4588  0.1221 -0.1463
34488W        W35352   3.825   9.287  19.540  0.1511 -0.0467  0.1996
34489W        W35353   5.834  11.012  18.129 -0.0728 -0.0523  0.2203
34490W        W35354   7.695   7.629  18.650 -0.3409 -0.0823  0.0174
34491W        W35355   4.334   7.787  21.589  0.0503 -0.1163  0.2503
34492W        W35356   7.054  12.269  19.691 -0.0925 -0.0808 -0.3512
34493W        W35357   6.194   8.989  20.461  0.0059 -0.0110  0.3063
34494W        W35358   1.548  13.124  18.463 -0.2001 -0.0229  0.2568
34495W        W35359   3.218  10.808  19.783 -0.2255  0.0059  0.2062
34496W        W35360   2.699   6.641  22.849  0.0886  0.1556 -0.1139
34497W        W35361   6.690  12.674  20.383 -0.1243  0.1954  0.2443
34498W        W35362   6.470  10.178  21.698 -0.1421  0.0454  0.1994
34499W        W35363   7.726   7.188  18.426 -0.0162 -0.1031  0.3435
34500W        W35364   6.444  12.139  18.808  0.0034  0.1228 -0.0912
34501W        W35365   8.121   9.712  22.332 -0.1125  0.0707 -0.0689
34502W        W35366   5.791   8.246  18.395 -0.1661  0.2147 -0.0592
34503W        W35367   6.669   7.771  19.965  0.1937 -0.2627 -0.2041
34504W        W35368   4.174  10.709  21.088 -0.1291 -0.0240 -0.0442
34505W        W35369   6.877   4.925  18.928  0.0077 -0.1842  0.1360
34506W        W35370   3.435   8.979  21.721  0.0149  0.0415 -0.2099
34507W        W35371   2.146   9.159  16.688  0.0313 -0.3071 -0.5193
34508W        W35372   8.059   8.522  20.895  0.2398  0.3004  0.2079
34509W        W35373   5.886   6.858  22.460  0.0787 -0.0886 -0.1462
34510W        W35374   3.398  11.291  20.139  0.0987 -0.4659  0.1804
34511W        W35375   2.479   6.494  21.291 -0.1365  0.1474  0.4161
34512W        W35376   6.245   7.039  17.896 -0.3907  0.1855  0.0262
34513W        W35377   4.667  10.856  22.212  0.3384  0.1787  0.0649
34514W        W35378   3.765   8.783  17.974  0.1694 -0.0067 -0.0617
34515W        W35379   4.546   8.182  18.496  0.2483 -0.2131 -0.0601
34516W        W35380   4.694   9.881  18.038 -0.1588 -0.0243 -0.1380
34517W        W35381   3.589   9.388  23.346 -0.0209  0.2225 -0.3447
34518W        W35382   5.272   9.025  19.967 -0.2743 -0.0606 -0.1666
34519W        W35383   2.516  10.171  18.817 -0.0572 -0.3651  0.1519
34520W        W35384   4.017  11.916  23.769  0.3251 -0.3044 -0.0268
34521W        W35385   4.934   5.581  18.412  0.4137  0.5259 -0.0697
34522W        W35386   1.488   9.104  17.755  0.0062  0.1887 -0.3231
34523W        W35387   5.664   7.885  20.702 -0.1333 -0.1304  0.0179
34524W        W35388   4.284   8.061  17.726  0.2877 -0.0512  0.1029
34525W        W35389   3.276   9.085  21.236 -0.5972  0.0115  0.1689
34526W        W35390   8.520   8.648  16.497  0.1300 -0.0335 -0.2578
34527W        W35391   7.741   9.360  22.398  0.0161 -0.0415  0.1989
34528W        W35392   4.641  10.372  20.077  0.0435 -0.0134 -0.3160
34529W        W35393   6.671   7.781  20.832 -0.0155  0.0177 -0.0573
34530W        W35394   6.742  13.405  22.167 -0.2328  0.0602  0.2030
34531W        W35395   3.745  13.743  20.036  0.0878 -0.0659 -0.0284
34532W        W35396   5.955   9.130  21.878  0.0816 -0.0947 -0.2091
34533W        W35397   4.962   9.358  19.727 -0.0713 -0.0113 -0.2686
34534W        W35398   3.091   9.174  22.983 -0.0923  0.3513 -0.0027
34535W        W35399   3.445   9.135  15.623 -0.1472  0.0485 -0.2669
34536W        W35400   2.251   9.313  23.034 -0.2274 -0.0930 -0.2067
34537W        W35401   4.665   7.854  21.178 -0.0094  0.0511 -0.0002
34538W        W35402   1.889  13.293  17.278  0.0812  0.1184  0.1572
34539W        W35403   4.347  10.260  19.584 -0.0821  0.2401 -0.2628
34540W        W35404   3.698   7.714  19.344  0.1515  0.2640 -0.1096
34541W        W35405   4.934   9.555  20.220 -0.1527  0.0361 -0.0139
34542W        W35406   3.735  11.047  21.099  0.1610  0.2655 -0.1075
34543W        W35407   5.202   7.274  21.975 -0.1723  0.1922 -0.0749
34544W        W35408   4.134   8.191  18.192 -0.3143 -0.1472  0.0982
34545W        W35409   6.661   9.785  21.928 -0.0252  0.3142  0.0094
34546W        W35410   3.708   7.137  17.796  0.0176  0.3909  0.2287
34547W        W35411   6.823   9.658  20.232 -0.0267 -0.1552 -0.0343
34548W        W35412   7.179  11.854  19.890  0.0838 -0.0378  0.0461
34549W        W35413   4.752  11.485  18.434 -0.0251  0.0912 -0.0542
34550W        W35414   5.266   7.200  18.100  0.2158 -0.0767  0.0259
34551W        W35415   1.860  10.984  23.533  0.0698 -0.1441  0.2101
34552W        W35416   6.098   9.494  23.130  0.0329  0.1237  0.0161
34553W        W35417   5.558   8.446  20.631 -0.0609  0.0208  0.2578
34554W        W35418   5.497   7.269  17.578  0.0508  0.1161  0.2593
34555W        W35419   3.405  11.415  20.921 -0.1534 -0.0602 -0.0100
34556W        W35420   5.015   8.194  18.649  0.0770  0.1684 -0.1484
34557W        W35421   2.511   8.477  18.117 -0.3325  0.0044 -0.0350
34558W        W35422   5.368   8.591  18.431 -0.1042  0.2945  0.4982
34559W        W35423   4.991   9.239  17.931 -0.2158 -0.2501  0.0446
34560W        W35424   7.071  10.197  23.487 -0.0437  0.1071  0.1929
34561W        W35425   4.261  11.707  19.846  0.0484 -0.1033 -0.0800
34562W        W35426   6.888   8.797  19.887  0.0059  0.0937  0.3250
34563W        W35427   5.054   7.542  19.521 -0.1724 -0.0514 -0.0775
34564W        W35428   5.463   7.500  20.829 -0.0040  0.1165 -0.0368
34565W        W35429   5.351  10.948  15.392  0.0225  0.0122 -0.1071
34566W        W35430   7.285   7.429  18.340  0.2283 -0.2282  0.1041
34567W        W35431   5.121   9.045  18.420  0.2499  0.0161 -0.0577
34568W        W35432   5.542  11.255  17.173  0.0173  0.1016 -0.1647
34569W        W35433   7.533  11.033  20.179 -0.2488 -0.3366  0.1560
34570W        W35434   1.683   9.464  20.656 -0.1158  0.0029 -0.1970
34571W        W35435   4.616   7.349  24.683  0.0486 -0.0674 -0.1440
34572W        W35436   4.849   8.734  20.081 -0.1218 -0.1399 -0.0225
34573W        W35437   4.725   8.644  21.955  0.2412 -0.4172  0.2413
34574W        W35438   2.940   9.299  19.648  0.0366 -0.0525 -0.0616
34575W        W35439   5.665   7.492  21.763  0.1262  0.1300  0.3681
34576W        W35440   4.473   9.566  21.175 -0.0285  0.0214 -0.2101
34577W        W35441   2.129  10.208  20.232 -0.0761 -0.0732 -0.0436
34578W        W35442   3.634  10.747  19.526  0.1353 -0.1387  0.1891
34579W        W35443   8.000   9.603  22.805 -0.0647 -0.0633 -0.1424
34580W        W35444   2.951   8.930  23.426  0.0553 -0.1561 -0.1997
34581W        W35445   6.011  10.711  19.818  0.1181  0.0623 -0.0818
34582W        W35446   4.438  13.658  21.667  0.2489  0.2627  0.2844
34583W        W35447   4.873  12.416  20.863  0.0955 -0.1192 -0.2152
34584W        W35448   6.677  12.360  19.263 -0.3842  0.1668  0.1468
34585W        W35449   7.676   6.076  22.380 -0.0465  0.1432  0.0474
34586W        W35450   3.039  12.725  18.906 -0.0828 -0.2133 -0.1945
34587W        W35451   6.371   9.724  21.523 -0.0606  0.3698 -0.1990
34588W        W35452   8.946  10.523  20.238  0.1276  0.1856 -0.1694
34589W        W35453   3.501  11.726  19.913  0.2392 -0.2407 -0.0516
34590W        W35454   5.409   8.340  22.688  0.0161  0.3226 -0.2636
34591W        W35455   5.735   8.495  19.337 -0.1838 -0.0130 -0.2377
34592W        W35456   4.427   9.443  24.658  0.0329 -0.2774 -0.2322
34593W        W35457   4.124  13.009  15.936  0.2261  0.1839 -0.0303
34594W        W35458   4.900   8.481  18.163 -0.1930  0.0430 -0.3218
34595W        W35459   5.364  12.864  24.114  0.1093 -0.1814 -0.1217
34596W        W35460   7.189  12.150  28.425  0.3834 -0.2532 -0.0838
34597W        W35461   3.045  10.951  24.582 -0.0322  0.1457  0.3022
34598W        W35462   6.492  10.657  24.226 -0.1472 -0.1146  0.0104
34599W        W35463   6.283  10.168  23.829  0.0696  0.5457 -0.0734
34600W        W35464   6.351   9.541  22.702  0.1028  0.1428 -0.1056
34601W        W35465   1.704   7.447  23.220  0.0636 -0.0508  0.2159
34602W        W35466   5.881   7.625  23.099  0.0828 -0.1760 -0.0466
34603W        W35467   4.454  12.541  24.301  0.7646  0.0985 -0.0025
34604W        W35468   5.907   6.347  23.123 -0.1251 -0.1127 -0.0312
34605W        W35469   4.967   7.675  24.722  0.1267  0.1688  0.0422
34606W        W35470   6.103   7.037  26.297  0.2324 -0.0841 -0.1444
34607W        W35471   5.278   7.793  21.738 -0.0428  0.0408  0.2356
34608W        W35472   6.075  10.722  25.125 -0.1705  0.0693  0.1344
34609W        W35473   2.018   8.031  24.180  0.2769  0.1859 -0.0657
34610W        W35474   4.413  10.414  25.879 -0.0721 -0.0827  0.2942
34611W        W35475   3.773  10.141  20.847  0.0983 -0.0854  0.0675
34612W        W35476   6.253   7.891  23.360 -0.1648  0.2413 -0.0919
34613W        W35477   4.593  11.174  25.208  0.0283 -0.4396 -0.2113
34614W        W35478   6.631  12.479  19.863 -0.2549 -0.1154 -0.1009
34615W        W35479   4.828  11.365  21.180 -0.1069 -0.1962  0.0965
34616W        W35480   6.499   9.486  24.123  0.1478 -0.0302 -0.1302
34617W        W35481   3.926  11.540  24.568 -0.0533 -0.1409 -0.1312
34618W        W35482   4.176   9.930  24.474 -0.1977 -0.3568 -0.1653
34619W        W35483   5.260  10.674  25.455  0.0920  0.0639  0.1128
34620W        W35484   4.628  11.693  25.529 -0.0757 -0.1119 -0.1537
34621W        W35485   6.752   9.378  24.577  0.4782 -0.0489 -0.1560
34622W        W35486   6.284   9.474  22.048 -0.1938 -0.1742 -0.0854
34623W        W35487   6.189  13.845  24.053 -0.0284 -0.2977  0.5547
34624W        W35488   6.321   5.163  23.679 -0.1054  0.2115 -0.0755
34625W        W35489   6.470  10.624  23.632  0.0006  0.1250  0.0963
34626W        W35490   7.765  10.075  24.664  0.0178  0.1283 -0.0223
34627W        W35491   4.929   9.019  23.520  0.0850  0.3465 -0.1438
34628W        W35492   4.901  11.064  24.728 -0.4894 -0.2956 -0.0959
34629W        W35493   1.846   7.106  22.915 -0.2691 -0.1142 -0.0598
34630W        W35494   7.084   8.785  24.267  0.0355  0.2097  0.0727
34631W        W35495   2.863   9.638  23.870  0.1214 -0.2345 -0.2564
34632W        W35496   5.982  11.578  23.788  0.0058  0.2339  0.2296
34633W        W35497   6.468   8.979  21.896 -0.0839  0.0109 -0.3039
34634W        W35498   7.537   6.898  23.434 -0.0305 -0.1210 -0.1287
34635W        W35499   5.948   6.779  22.943  0.1503  0.2240  0.1190
34636W        W35500   7.361   9.633  22.658  0.1147  0.1209  0.0378
34637W        W35501   6.144  11.031  23.825  0.3081  0.0073  0.0567
34638W        W35502   9.113   9.578  23.670  0.1250  0.1276  0.2029
34639W        W35503   4.758  11.875  24.214  0.0205 -0.0283  0.1174
34640W        W35504   4.106  10.861  21.532  0.1641  0.1010 -0.2001
34641W        W35505   5.715   7.955  23.463  0.1101  0.1560  0.2371
34642W        W35506   8.326   7.427  24.472  0.0675 -0.1334 -0.0522
34643W        W35507   6.999   8.708  22.417 -0.0661 -0.0665 -0.1277
34644W        W35508   4.102   9.200  18.587 -0.0379  0.1081 -0.2373
34645W        W35509   6.467   9.000  23.995  0.0744 -0.0966  0.3430
34646W        W35510   4.323   6.034  23.631 -0.0894 -0.0516 -0.1286
34647W        W35511   7.160   9.699  24.335 -0.2731  0.2145 -0.1896
34648W        W35512   5.033  10.330  21.574  0.0184 -0.0706  0.1209
34649W        W35513   5.049   6.198  21.783 -0.1087 -0.3307 -0.0389
34650W        W35514   4.951  10.758  21.259 -0.1599 -0.3221 -0.3688
34651W        W35515   1.092   9.105  21.408 -0.1218 -0.2323  0.2009
34652W        W35516   6.904   8.844  23.825 -0.0058  0.0619 -0.2000
34653W        W35517   3.467  10.550  22.745 -0.1714 -0.0849 -0.0859
34654W        W35518   4.449  11.210  22.486  0.1179  0.0519 -0.0303
34655W        W35519   5.713  10.757  21.976 -0.2823 -0.1342  0.2254
34656W        W35520   4.180  11.595  24.144 -0.0006  0.0771 -0.1553
34657W        W35521   4.951  12.116  26.874 -0.0927 -0.0119  0.2160
34658W        W35522   6.456   9.932  25.234 -0.0421  0.0876  0.3830
34659W        W35523   2.730   8.500  23.190  0.0427 -0.0876  0.2137
34660W        W35524   8.691   7.024  24.655  0.0575 -0.2206  0.3644
34661W        W35525   3.657  11.005  21.591 -0.0563  0.1069 -0.0194
34662W        W35526   3.388   7.991  20.743 -0.0429 -0.2380  0.2928
34663W        W35527   3.656   7.356  19.959  0.0976 -0.1279 -0.0584
34664W        W35528   4.486   8.360  22.286  0.4438  0.0952 -0.2266
34665W        W35529   5.997  13.844  24.583  0.0989 -0.1696  0.2063
34666W        W35530   4.954   9.948  21.311  0.3434 -0.0875 -0.1660
34667W        W35531   5.375  11.704  22.319  0.0320 -0.0254 -0.0429
34668W        W35532   8.901   9.974  24.062  0.3034 -0.4222  0.2949
34669W        W35533   6.066   9.276  24.691  0.3672 -0.5015 -0.1751
34670W        W35534   5.749  10.653  25.550  0.0183  0.0801  0.2626
34671W        W35535   1.706   8.294  22.627 -0.0811  0.0564 -0.3665
34672W        W35536   3.905  10.560  25.007  0.1904 -0.1582  0.0577
34673W        W35537   5.442   8.609  22.227  0.2006 -0.0344 -0.1730
34674W        W35538   6.191   9.370  23.708 -0.0355 -0.1011  0.3215
34675W        W35539   4.442   8.932  23.894 -0.1036  0.1992  0.0510
34676W        W35540   7.393  10.922  25.822 -0.0573 -0.0880  0.0106
34677W        W35541   2.625   5.441  23.026 -0.1653 -0.2871 -0.3425
34678W        W35542   4.519   7.331  23.673 -0.0863 -0.0365 -0.0480
34679W        W35543   3.625   6.342  24.206  0.0062  0.0480 -0.0292
34680W        W35544   4.644   7.367  22.360 -0.2975 -0.0124  0.1194
34681W        W35545   7.756  11.030  24.317  0.1491  0.0353 -0.0546
34682W        W35546   4.428   7.576  25.223 -0.0719 -0.0073 -0.0887
34683W        W35547   6.714  10.254  24.509 -0.2139 -0.2681  0.2385
34684W        W35548   7.672   9.275  25.065  0.2819  0.0425 -0.0649
34685W        W35549   6.951   7.077  22.724  0.0814  0.0398 -0.0466
34686W        W35550   6.460  11.999  26.129 -0.0044 -0.0669 -0.0869
34687W        W35551   5.144   8.520  23.050 -0.1767 -0.0658 -0.0116
34688W        W35552   5.602   9.089  22.317  0.3629 -0.0476 -0.0885
34689W        W35553   4.063   7.536  25.558  0.1847 -0.0440 -0.1906
34690W        W35554   9.236   9.775  24.401 -0.2934  0.3050 -0.1150
34691W        W35555   7.201   8.122  21.820 -0.0013  0.2914 -0.0807
34692W        W35556   5.171  12.411  24.617 -0.1838 -0.1637 -0.2758
34693W        W35557   3.331   7.776  23.160 -0.1762 -0.3132  0.2531
34694W        W35558   8.321   9.132  25.444 -0.0185 -0.3930 -0.0685
34695W        W35559   6.045  13.089  20.433  0.0966 -0.0089  0.2519
34696W        W35560   5.964  12.317  25.327  0.0553 -0.0038 -0.0442
34697W        W35561   6.868   8.825  21.581 -0.1119 -0.0008  0.0148
34698W        W35562   5.490  10.075  21.501  0.1109 -0.0787 -0.1130
34699W        W35563   9.059  10.124  25.299 -0.0195 -0.1155  0.1768
34700W        W35564   3.858   9.008  21.325 -0.0349 -0.0893 -0.1016
34701W        W35565   5.936  10.746  24.160 -0.2009  0.1076 -0.3403
34702W        W35566   6.048   7.882  26.006  0.0426 -0.3074  0.2141
34703W        W35567   5.676   6.723  25.342 -0.1152  0.2425 -0.0691
34704W        W35568   5.060   9.543  23.640  0.0037  0.2283  0.0304
34705W        W35569   5.401  10.791  24.565 -0.2565 -0.0794  0.2125
34706W        W35570   5.360  12.070  21.539  0.4147  0.1250  0.2467
34707W        W35571   6.238   9.984  22.852 -0.4211 -0.2572  0.2164
34708W        W35572   5.813  10.150  24.760 -0.0262  0.0875 -0.1682
34709W        W35573   4.622  10.871  23.327 -0.0346 -0.0959 -0.0801
34710W        W35574   8.295   9.886  24.629  0.0141 -0.1462  0.0630
34711W        W35575   9.236   8.802  24.928 -0.2755 -0.0185 -0.1588
34712W        W35576   6.987  10.500  23.005  0.0898  0.1544  0.2696
34713W        W35577   5.691   9.505  23.819  0.2102 -0.0847  0.0777
34714W        W35578   4.682   8.679  23.219 -0.0507 -0.1716 -0.2045
34715W        W35579   6.845  11.184  18.680 -0.1418 -0.2814  0.1407
34716W        W35580   5.184  11.899  22.749 -0.0067  0.3103 -0.1383
34717W        W35581   8.029  12.389  26.136 -0.0033  0.2094  0.1092
34718W        W35582   5.354   9.641  21.303 -0.0409  0.2136 -0.1316
34719W        W35583   7.545   9.225  22.906 -0.1017  0.0103  0.1268
34720W        W35584   8.761   9.374  24.124 -0.3683  0.1148  0.1297
34721W        W35585   3.084   9.965  26.069  0.2001 -0.2100 -0.2060
34722W        W35586   6.305  11.392  23.482 -0.1809  0.2159 -0.3288
34723W        W35587   5.912  11.672  23.308 -0.1150  0.0630  0.2969
34724W        W35588   5.062  11.067  25.220 -0.1532  0.0677 -0.1342
34725W        W35589   7.204  11.886  23.959 -0.2621 -0.3159 -0.0343
34726W        W35590   6.843   9.529  25.437  0.0106  0.0802 -0.0771
34727W        W35591   6.667  12.831  21.643  0.4466 -0.1559  0.0644
34728W        W35592   4.530   7.574  24.133  0.0829  0.1652  0.0522
34729W        W35593   5.861   6.550  23.991 -0.2237  0.2124  0.1664
34730W        W35594   6.111   8.367  23.532 -0.0376  0.1808  0.1470
34731W        W35595   5.704   6.000  23.415 -0.1149  0.2014 -0.1459
34732W        W35596   6.338   7.511  23.792 -0.1703  0.0956 -0.1284
34733W        W35597   7.394  10.337  23.866  0.0450  0.3948  0.0726
34734W        W35598   4.872  10.477  23.215  0.0755  0.1378 -0.2077
34735W        W35599   2.823   5.478  19.998  0.3137 -0.0877 -0.2105
34736W        W35600   4.719   8.557  23.719  0.0423  0.0586  0.1265
34737W        W35601   4.283  11.765  21.745 -0.1679  0.0231 -0.0936
34738W        W35602   4.279   8.342  21.666  0.1048  0.0851 -0.0447
34739W        W35603   6.647  11.282  25.644 -0.0582  0.0284  0.2370
34740W        W35604   5.208   6.099  23.727 -0.0658 -0.3724  0.0743
34741W        W35605   9.702   6.892  25.424  0.2264  0.3105  0.2300
34742W        W35606   6.478  11.867  23.888  0.0492  0.0601  0.2738
34743W        W35607   5.922   9.860  21.282 -0.2583 -0.1255  0.0319
34744W        W35608   4.615  11.275  23.644 -0.0193  0.2487  0.1592
34745W        W35609   6.485  10.670  23.020 -0.0387 -0.0487  0.1898
34746W        W35610   4.569   9.433  23.841 -0.1423 -0.1309  0.1212
34747W        W35611   6.037  11.831  22.412 -0.1520 -0.1492  0.3557
34748W        W35612   4.703   9.717  24.277  0.0897 -0.1968 -0.1416
34749W        W35613   4.963   7.732  23.370  0.0419 -0.1615 -0.2278
34750W        W35614   6.030   8.864  23.697  0.0661  0.1365 -0.1859
34751W        W35615   3.047  10.647  25.486 -0.0721  0.0561 -0.1066
34752W        W35616   3.368  10.182  20.590 -0.1309 -0.1410 -0.1165
34753W        W35617   1.229   8.573  21.682 -0.0608  0.0704  0.0440
34754W        W35618   3.350   6.981  23.173  0.0415 -0.2705 -0.1713
34755W        W35619   6.556   6.534  25.512 -0.2198  0.0972 -0.0966
34756W        W35620   4.057   9.208  23.769  0.1815 -0.2688  0.0902
34757W        W35621   6.116  11.232  27.875  0.0037 -0.2040  0.1793
34758W        W35622   6.736   9.978  22.975  0.2725 -0.2016 -0.0416
34759W        W35623   7.244   7.389  27.367 -0.0635  0.0365  0.3312
34760W        W35624   3.966  10.882  23.998  0.2265 -0.2320  0.0714
34761W        W35625   2.714   5.022  23.345 -0.0962 -0.5210  0.2911
34762W        W35626   4.230   9.525  24.179 -0.2966 -0.1314 -0.4775
34763W        W35627   5.888  11.357  22.581  0.2925 -0.3526 -0.1887
34764W        W35628   4.446   7.776  23.394 -0.1595 -0.3356 -0.1536
34765W        W35629   3.887   9.114  21.880  0.1097  0.3223 -0.1632
34766W        W35630   4.732   9.344  22.428  0.0320  0.0025  0.0420
34767W        W35631   5.548  10.299  24.357 -0.1178 -0.1282 -0.0208
34768W        W35632   6.137   9.960  22.079  0.0327  0.2061  0.2300
34769W        W35633   4.999   7.302  25.033  0.0337  0.0265  0.1994
34770W        W35634   7.901  11.067  20.987  0.2881 -0.1500  0.2123
34771W        W35635   3.806   9.565  22.056 -0.4685  0.0151  0.0954
34772W        W35636   4.446   9.033  22.943  0.1647  0.4294 -0.1486
34773W        W35637   2.337  13.121  19.323  0.0049 -0.1713 -0.0440
34774W        W35638   4.987   7.160  24.465 -0.0989 -0.1852  0.1356
34775W        W35639   5.305   9.716  19.642 -0.2267 -0.2074 -0.0771
34776W        W35640   6.530  10.018  22.450  0.2007  0.1388  0.0507
34777W        W35641   5.289   9.116  21.332 -0.1414  0.0835 -0.0018
34778W        W35642   3.057   8.215  22.909  0.2223  0.2312 -0.1147
34779W        W35643   7.464   7.732  25.318  0.3690  0.0768  0.0484
34780W        W35644   4.881  11.624  23.082 -0.0842  0.0326 -0.0364
34781W        W35645   5.169  10.794  21.971 -0.2883 -0.3239 -0.1541
34782W        W35646   3.020   8.545  20.210  0.0781 -0.0147 -0.0366
34783W        W35647   6.794  11.772  25.309  0.0922  0.0581 -0.2776
34784W        W35648   5.721   9.226  22.817 -0.0265  0.2297 -0.2671
34785W        W35649   5.300  11.219  20.640 -0.4165  0.0887  0.0775
34786W        W35650   5.294   7.549  23.719 -0.1772  0.1882  0.0598
34787W        W35651   3.569   8.055  26.296  0.3133 -0.1593 -0.0158
34788W        W35652   3.102   7.417  23.965 -0.1006 -0.1464 -0.0050
34789W        W35653   6.665   5.218  23.098 -0.3172 -0.2839 -0.0792
34790W        W35654   4.798   8.281  25.343  0.0336  0.0251 -0.0262
34791W        W35655   6.028   5.808  22.460  0.1133  0.0362 -0.1785
34792W        W35656   5.447   7.298  24.838  0.0348 -0.1591 -0.0448
34793W        W35657   4.247   7.497  22.034  0.1242  0.0518  0.0328
34794W        W35658   6.125   6.355  22.441  0.4613 -0.0306  0.1728
34795W        W35659   4.512   5.752  23.974 -0.2551 -0.0938 -0.0614
34796W        W35660   5.239   8.670  25.211 -0.0296  0.1456  0.0909
34797W        W35661   3.657  11.100  20.606 -0.1659 -0.0768  0.1795
34798W        W35662   2.963  10.948  25.110 -0.0115  0.1132  0.1215
34799W        W35663   6.949   8.585  25.230  0.0022  0.0430  0.1540
34800W        W35664   1.924   8.950  23.154  0.1972 -0.0665  0.0761
34801W        W35665   4.257  11.628  25.943  0.3333 -0.0780 -0.0330
34802W        W35666   5.113   8.317  23.986 -0.0011 -0.1086 -0.1532
34803W        W35667   5.258   9.951  20.879 -0.1303  0.1181  0.0374
34804W        W35668   3.785   8.594  21.713  0.1562 -0.0362 -0.0385
34805W        W35669   4.990   7.143  23.896  0.2926  0.1190 -0.1756
34806W        W35670   4.414  11.444  24.588  0.0643  0.2743  0.0555
34807W        W35671   5.463  11.128  25.525  0.0718 -0.0807  0.1676
34808W        W35672   6.574   6.328  26.092 -0.1069 -0.0061  0.1572
34809W        W35673   6.775   9.169  25.826  0.0156  0.2214 -0.0085
34810W        W35674   7.798   8.743  21.766 -0.0994 -0.1327  0.0153
34811W        W35675   3.919  10.480  22.902  0.0211 -0.0962 -0.0942
34812W        W35676   4.970  11.346  22.063 -0.2263 -0.1580  0.2617
34813W        W35677   3.830   8.527  25.210 -0.0202  0.1714 -0.0542
34814W        W35678   4.689   8.517  24.240 -0.0687  0.1546  0.1596
34815W        W35679   7.782   7.296  25.519  0.2102  0.2437 -0.0431
34816W        W35680   5.649  10.727  23.106  0.2851  0.0740 -0.0567
34817W        W35681   6.158   9.713  24.928  0.0309 -0.1262 -0.0550
34818W        W35682   4.996   8.669  24.737  0.0307 -0.0009  0.0575
34819W        W35683   3.699  10.889  22.445 -0.0118 -0.2570  0.1818
34820W        W35684   4.851   8.052  24.333  0.2501  0.1430 -0.2080
34821W        W35685   5.792  11.456  25.161 -0.1649 -0.2120 -0.1913
34822W        W35686   6.944   6.355  26.368  0.0417 -0.1147 -0.1634
34823W        W35687   4.596  10.620  21.608 -0.0739  0.0988  0.2013
34824W        W35688   5.927   7.999  26.702  0.0196 -0.0499 -0.1776
34825W        W35689   6.627   9.193  22.405  0.3591 -0.0317  0.1105
34826W        W35690   5.678  10.188  23.927 -0.1386 -0.3038 -0.2103
34827W        W35691   4.792   9.683  22.793  0.1150 -0.1012  0.0454
34828W        W35692   6.313   9.799  24.444 -0.1474  0.0978 -0.0218
34829W        W35693   5.672   8.917  24.196 -0.0234 -0.2732 -0.1420
34830W        W35694   5.420   9.499  23.180 -0.3950 -0.1188  0.0947
34831W        W35695   4.532  11.054  21.419 -0.0519 -0.0496 -0.0061
34832W        W35696   3.007   5.779  26.525  0.0017  0.0260  0.0154
34833W        W35697   7.106   9.202  23.218  0.0464  0.0639  0.1993
34834W        W35698   7.075  10.022  26.194 -0.3334  0.0952  0.2137
34835W        W35699   5.221   8.680  20.432 -0.1859 -0.0533  0.3594
34836W        W35700   6.179  12.504  24.875 -0.1160  0.2361 -0.4788
34837W        W35701   3.679   6.488  23.107  0.0867 -0.1144  0.0287
34838W        W35702   3.030  10.279  23.059 -0.1739 -0.0141 -0.1458
34839W        W35703   7.234   7.224  22.353  0.2633 -0.0012  0.2523
34840W        W35704   4.650  11.769  22.107 -0.2467  0.1485 -0.0401
34841W        W35705   5.190   7.409  22.494  0.0843  0.1113 -0.0368
34842W        W35706   6.874  10.332  23.971  0.0710  0.0041 -0.1973
34843W        W35707   4.340  13.561  22.190  0.2892 -0.0408 -0.2834
34844W        W35708   1.208   8.124  23.929 -0.1948  0.2180  0.0179
34845W        W35709   3.512   9.933  21.842  0.0029 -0.2231 -0.0996
34846W        W35710   5.191  11.756  21.049  0.1267  0.0280  0.0495
34847W        W35711   6.344  13.290  21.909  0.0537 -0.0785  0.0457
34848W        W35712   5.007   8.697  21.466  0.0307  0.5016 -0.2902
34849W        W35713   5.509   7.553  24.403  0.1107 -0.2542 -0.0703
34850W        W35714   5.153  10.745  22.914  0.2440  0.1624  0.0013
34851W        W35715   3.537   8.170  22.810  0.0607  0.2533  0.0025
34852W        W35716   6.475   7.312  26.073  0.2125  0.0801 -0.0859
34853W        W35717   5.770  10.370  22.774  0.0565 -0.1280  0.0286
34854W        W35718   7.027   9.058  22.005 -0.2914  0.1960 -0.0748
34855W        W35719   2.293  11.317  24.522  0.1916  0.2916  0.1496
34856W        W35720   6.671   6.831  26.348 -0.1548 -0.0255 -0.2164
34857W        W35721   5.027   6.562  23.644  0.1325 -0.1793  0.1647
34858W        W35722   4.822  10.208  24.145 -0.3791  0.0623 -0.1376
34859W        W35723   5.346  13.779  21.004  0.1880  0.4472 -0.1873
34860W        W35724   4.122  13.492  23.074  0.0786  0.0073  0.2749
34861W        W35725   4.771  10.638  25.096 -0.0972 -0.0207 -0.1230
34862W        W35726   4.931   9.976  20.490 -0.0930  0.0661 -0.0760
34863W        W35727   5.774   7.381  23.648  0.2147  0.0000  0.0536
34864W        W35728   7.088   7.002  21.103  0.1212  0.1710 -0.1167
34865W        W35729   4.574   9.931  20.875 -0.1587  0.2309 -0.0763
34866W        W35730   7.121  10.663  23.563  0.1560  0.1254  0.0641
34867W        W35731   6.770   8.448  22.833  0.5010  0.0674  0.1104
34868W        W35732   4.013   9.746  22.482 -0.1207  0.2345  0.1109
34869W        W35733   6.900  13.298  25.789  0.2223 -0.1169 -0.1216
34870W        W35734   7.427   9.499  26.897  0.0372  0.1493  0.0769
34871W        W35735   2.334  10.401  25.631  0.1058 -0.0221  0.0844
34872W        W35736   6.034   9.314  24.189  0.1586  0.3932  0.2479
34873W        W35737   3.146   7.448  25.566  0.0836 -0.0927 -0.0798
34874W        W35738   4.243  10.689  25.313  0.3851  0.4199 -0.1309
34875W        W35739   6.031   9.773  24.010  0.2669 -0.0119 -0.3308
34876W        W35740   4.367   8.253  23.355  0.0590  0.3806 -0.2476
34877W        W35741   4.475   5.353  21.270 -0.2270 -0.0310  0.1052
34878W        W35742   3.648  10.334  26.300  0.2935  0.4538  0.2378
34879W        W35743   7.223   9.160  22.502 -0.2831  0.3644  0.0563
34880W        W35744   5.107   8.477  25.666  0.0580  0.1798 -0.0199
34881W        W35745   4.472  12.225  23.966  0.3010  0.0667  0.1929
34882W        W35746   3.915  10.922  27.042  0.1769 -0.2386 -0.3118
34883W        W35747   4.157   9.271  20.980 -0.1742 -0.0100 -0.1421
34884W        W35748   5.029   9.067  21.782 -0.2070 -0.1956  0.2142
34885W        W35749   2.996   6.771  23.456  0.0256 -0.0786  0.3085
34886W        W35750   6.856   6.745  24.093  0.0111 -0.0215 -0.0364
34887W        W35751   6.571   7.707  24.227 -0.0093  0.1495  0.0123
34888W        W35752   4.285   7.510  22.909 -0.2341 -0.0702  0.0054
34889W        W35753   4.155   9.241  22.399  0.1835  0.2074  0.1230
34890W        W35754   3.816   9.623  22.951 -0.2113  0.1230  0.2285
34891W        W35755   4.352   5.051  24.649  0.0272 -0.0662 -0.1407
34892W        W35756  12.011   8.518  23.126 -0.2752  0.1996 -0.0943
34893W        W35757   6.449   7.204  22.837 -0.1406  0.2723  0.2675
34894W        W35758   4.126  11.439  25.037 -0.3476  0.0730  0.0484
34895W        W35759   3.125   9.946  23.442 -0.0415  0.1254  0.4263
34896W        W35760   3.944   7.472  25.087  0.2478  0.0137  0.4001
34897W        W35761   6.388  12.302  22.327  0.0745  0.1983  0.2567
34898W        W35762   8.244   9.216  24.379 -0.1757  0.2727 -0.0283
34899W        W35763   7.024   9.720  23.323  0.0021 -0.0085 -0.2116
34900W        W35764   5.867  12.117  24.530 -0.2410  0.0016  0.0854
34901W        W35765   4.671   9.979  24.701 -0.2730  0.0126 -0.1056
34902W        W35766   4.914   5.184  24.299 -0.0790 -0.0326  0.1624
34903W        W35767   2.473   8.058  24.466  0.2831  0.1337  0.0418
34904W        W35768   4.521   8.872  24.712  0.1743 -0.1309 -0.1187
34905W        W35769   5.235   8.037  23.089  0.3509  0.1553 -0.1001
34906W        W35770   4.953  10.123  23.703 -0.0066 -0.0404  0.2819
34907W        W35771   5.908   6.971  24.870 -0.0651  0.0489 -0.1717
34908W        W35772   6.028   8.231  25.658 -0.2843 -0.0581 -0.0219
34909W        W35773   3.757  11.289  24.167 -0.0869  0.1697 -0.5126
34910W        W35774   4.674  12.457  23.555  0.0467  0.1166  0.0621
34911W        W35775   5.051   7.984  22.629  0.0569  0.3553 -0.0397
34912W        W35776   4.800  10.404  20.728 -0.0549 -0.1689 -0.1804
34913W        W35777   5.803   9.644  24.482  0.3169 -0.4398  0.1400
34914W        W35778   5.152   8.283  21.237  0.2202  0.2670 -0.0659
34915W        W35779   5.657  11.862  22.770  0.2523 -0.5032  0.0394
34916W        W35780   6.385  10.395  20.501 -0.0345  0.1591  0.0457
34917W        W35781   2.923   9.713  25.543  0.2032 -0.1326 -0.0341
34918W        W35782   7.072  11.140  23.680 -0.3224  0.3039  0.2085
34919W        W35783   4.163   7.220  23.360  0.1344 -0.1669  0.4921
34920W        W35784   5.365  12.768  22.856  0.0308  0.0957 -0.1226
34921W        W35785   7.856   9.594  24.636 -0.0363 -0.1050 -0.1953
34922W        W35786   4.943   7.690  22.146  0.0863 -0.0547  0.2179
34923W        W35787   3.950   6.973  24.453  0.0029 -0.0402  0.1222
34924W        W35788   4.395   7.016  22.844 -0.0046  0.2367 -0.2125
34925W        W35789   6.923   8.981  24.773 -0.2328 -0.1731  0.2201
34926W        W35790   4.971  10.004  19.964  0.1086  0.0860  0.0451
34927W        W35791   8.080   8.096  25.949 -0.0540 -0.0698  0.1435
34928W        W35792   6.820  11.263  25.080 -0.0105 -0.0500 -0.0052
34929W        W35793   8.367   9.199  23.053  0.0739 -0.1282  0.0755
34930W        W35794   6.235  11.096  24.423  0.1600 -0.1643 -0.1383
34931W        W35795   5.475  10.883  24.018 -0.0714  0.4023 -0.0963
34932W        W35796   5.460  11.087  21.620 -0.3616 -0.3721 -0.0403
34933W        W35797   6.273   8.121  24.247 -0.0854  0.1713  0.1369
34934W        W35798   7.926   4.667  22.931  0.1420  0.1896 -0.0118
34935W        W35799   2.983  11.314  25.454  0.1000 -0.0415 -0.2955
34936W        W35800   6.191   6.574  26.456 -0.0395 -0.2006 -0.0322
34937W        W35801   4.115   8.722  22.151 -0.1443 -0.2665  0.1604
34938W        W35802   6.753   8.627  21.119 -0.1740  0.0159 -0.3399
34939W        W35803   5.628  11.409  24.117  0.0204  0.0534  0.0111
34940W        W35804   2.086   9.285  24.064  0.0791  0.0981 -0.1000
34941W        W35805   3.493  10.591  23.282  0.1170  0.0409  0.3515
34942W        W35806   4.153   8.542  24.218  0.2102 -0.0466  0.1045
34943W        W35807   4.708  10.455  24.572  0.0151 -0.1710 -0.0906
34944W        W35808   4.234   6.353  22.300  0.1599 -0.0350 -0.1297
34945W        W35809   6.833  10.629  25.539  0.2798 -0.2742  0.1535
34946W        W35810   8.119  10.174  24.223 -0.3024 -0.1001  0.1146
34947W        W35811   8.245   9.205  26.810 -0.3005 -0.0842 -0.2741
34948W        W35812   6.986   7.765  22.171  0.0001 -0.3059  0.1022
34949W        W35813   2.882  12.590  21.203  0.0639 -0.0398 -0.1160
34950W        W35814   5.126   6.666  22.748  0.2315  0.1528 -0.1103
34951W        W35815   6.683   9.947  24.161 -0.0577  0.2196  0.0370
34952W        W35816   5.932   7.526  24.794  0.0553  0.0892  0.0483
34953W        W35817   3.129   9.127  25.057  0.1028  0.1327 -0.2981
34954W        W35818   4.064  10.222  23.414 -0.0958  0.2192  0.1557
34955W        W35819   5.419   8.483  24.380 -0.2877 -0.2581  0.0712
34956W        W35820   6.935  10.890  25.976  0.0156  0.0197  0.0361
34957W        W35821   5.259  14.524  25.495  0.0289  0.1773  0.0120
34958W        W35822   4.081   7.818  22.464  0.0411  0.3717 -0.3648
34959W        W35823   5.315  13.670  20.469  0.2343  0.0447  0.1614
34960W        W35824   6.267  10.318  24.939 -0.4151 -0.2375 -0.1759
34961W        W35825   7.415   9.684  24.808  0.1208 -0.0499  0.4987
34962W        W35826   6.374   9.263  21.360  0.1748 -0.2050 -0.2865
34963W        W35827   4.182   8.088  21.157  0.2821  0.0170  0.2896
34964W        W35828   7.629   6.698  22.179  0.0824 -0.1725  0.2471
34965W        W35829   3.558   9.111  22.929 -0.0889  0.1182  0.2646
34966W        W35830   5.627   8.596  23.057  0.3697 -0.0019 -0.0762
34967W        W35831   4.562  10.496  18.779  0.2147 -0.0997 -0.3477
34968W        W35832   7.234  10.484  25.161  0.1506 -0.1896  0.1470
34969W        W35833   7.492   7.783  21.503  0.0992 -0.0124 -0.1723
34970W        W35834   3.870   8.339  26.583  0.0467 -0.2975  0.0286
34971W        W35835   1.060   6.939  23.358 -0.2236  0.0319 -0.2908
34972W        W35836   9.395   9.372  24.082 -0.1638 -0.1127 -0.1122
34973W        W35837   8.744   8.041  24.941  0.0480  0.0540 -0.0164
34974W        W35838   3.775   6.750  23.889  0.0474  0.1044  0.1573
34975W        W35839   7.074   9.808  23.858  0.0803 -0.0992  0.2767
34976W        W35840   5.295  10.252  22.967  0.1626  0.1306  0.1812
34977W        W35841   4.583   7.850  22.475  0.1435 -0.0423 -0.1761
34978W        W35842   6.611  11.227  23.856  0.0928  0.0293  0.0351
34979W        W35843   6.556  10.776  22.533 -0.0562  0.0765 -0.1879
34980W        W35844   6.379   9.036  23.366 -0.4254  0.2294  0.0135
34981W        W35845   6.399   8.721  22.417  0.0104  0.0836  0.3973
34982W        W35846   8.016  10.536  20.798  0.0780 -0.1971  0.1353
34983W        W35847   5.456   9.872  23.570 -0.0770 -0.0471 -0.0239
34984W        W35848   5.852  10.325  21.709  0.1361 -0.0972  0.1417
34985W        W35849   6.571   8.301  23.265 -0.1671  0.0356  0.0114
34986W        W35850   5.369  12.307  22.393  0.1131 -0.1417 -0.0477
34987W        W35851   7.455   7.455  23.333  0.0737 -0.4465 -0.1898
34988W        W35852   7.489   9.937  23.609  0.0922  0.0546  0.0412
34989W        W35853   0.476  10.363  23.069 -0.3231 -0.3299  0.1203
34990W        W35854   6.635   4.830  23.938  0.0325  0.2723  0.2561
34991W        W35855   5.767  10.332  21.092  0.1761  0.3085  0.1710
34992W        W35856   5.584  12.547  24.428  0.1865 -0.0178 -0.0541
34993W        W35857   3.973   8.559  21.264  0.2357  0.3631  0.2507
34994W        W35858   4.186   6.048  24.369 -0.0463  0.1160  0.1547
34995W        W35859   5.274  10.836  28.136 -0.0552  0.0711 -0.3208
34996W        W35860   3.284  10.903  27.818 -0.0746 -0.0036  0.0470
34997W        W35861   4.997  10.632  26.047  0.2022 -0.3805 -0.1432
34998W        W35862   4.096   9.131  27.020  0.0271 -0.3448 -0.1833
34999W        W35863   3.987  11.946  24.837  0.1699 -0.1069 -0.0241
35000W        W35864   5.092  12.922  27.786  0.2573 -0.3762 -0.3683
35001W        W35865   4.458   5.259  26.299 -0.0710 -0.1571  0.2089
35002W        W35866   5.551  11.442  23.588 -0.3072 -0.1724 -0.2206
35003W        W35867   3.298  12.418  28.982  0.1230  0.1873 -0.0630
35004W        W35868   1.581   6.383  27.671 -0.1500 -0.1291 -0.0808
35005W        W35869   4.787  11.038  28.915 -0.2739 -0.1013  0.1303
35006W        W35870   3.819   7.972  25.814 -0.3384 -0.0363 -0.0182
35007W        W35871   5.560   8.860  24.824  0.0020  0.1791 -0.0353
35008W        W35872   5.852   8.601  28.908 -0.2856 -0.0079 -0.1143
35009W        W35873   4.878   9.352  27.366 -0.0378  0.3200  0.1623
35010W        W35874   1.669  10.351   0.135  0.2374  0.1595 -0.0529
35011W        W35875   4.840   9.471  25.763 -0.0459 -0.1627  0.0870
35012W        W35876   3.579   7.763  25.454  0.1306  0.0480 -0.0456
35013W        W35877   5.871   9.937   1.969  0.2274  0.2777 -0.0646
35014W        W35878   4.677   7.528  27.210 -0.1095 -0.0009 -0.0888
35015W        W35879   5.744   9.961  25.712  0.1432 -0.0163 -0.1639
35016W        W35880   4.629  11.532  28.024 -0.2066 -0.0359 -0.1080
35017W        W35881   7.609   7.883  28.687 -0.1426  0.0219 -0.0304
35018W        W35882   5.261   8.522  26.667  0.3874  0.1229  0.0848
35019W        W35883   0.598  10.738   1.150 -0.1737  0.0898  0.1164
35020W        W35884   3.846   7.281  28.297  0.0897 -0.2453 -0.1408
35021W        W35885   4.506  10.075  27.865  0.3240  0.1946 -0.3257
35022W        W35886   2.124  10.369  27.929  0.2169 -0.4230 -0.2142
35023W        W35887   4.933  10.773  28.496  0.0822 -0.2612  0.0446
35024W        W35888   4.463   9.263  26.513 -0.1926 -0.5137  0.0223
35025W        W35889   4.655   8.520  27.114  0.1086 -0.0547  0.0899
35026W        W35890   2.797  10.603  26.498  0.1192  0.1732 -0.0524
35027W        W35891   5.933   9.350  27.698  0.0338 -0.1753 -0.0438
35028W        W35892   3.085   8.122  26.301  0.1494  0.0802 -0.3193
35029W        W35893   1.521  11.148  28.270  0.2042  0.0510  0.1726
35030W        W35894   5.847  11.832  28.994 -0.1315 -0.2564  0.0298
35031W        W35895   2.273   9.959  28.166 -0.0874  0.1954 -0.0761
35032W        W35896   3.110  14.410  28.418 -0.4571 -0.0762 -0.1835
35033W        W35897   6.977  11.233  27.864  0.1219 -0.1456 -0.1302
35034W        W35898   5.304   8.221  28.997  0.0805 -0.1256  0.1423
35035W        W35899   5.684   8.348  26.396 -0.1320  0.0519 -0.0251
35036W        W35900   3.353   9.594  26.855  0.1809  0.0008  0.2503
35037W        W35901   3.792  11.687  28.040  0.1500  0.0138 -0.1025
35038W        W35902   7.415   8.571  23.996  0.3288 -0.5658 -0.0926
35039W        W35903   5.974  14.825  24.911  0.1860  0.2824 -0.0806
35040W        W35904   3.023  12.451  26.031  0.0448 -0.1764 -0.0475
35041W        W35905   4.166   7.554   1.839 -0.1857  0.0475 -0.0950
35042W        W35906   5.548   8.521   0.174  0.0478 -0.0133 -0.2096
35043W        W35907   6.862   7.586  28.393 -0.2290 -0.0097  0.0844
35044W        W35908   3.647   7.283  25.488  0.2512  0.0347  0.1889
35045W        W35909   4.036   9.916  28.113 -0.2074  0.0270 -0.1006
35046W        W35910   5.517   8.521  25.922 -0.0934  0.1642 -0.1253
35047W        W35911   6.998  12.433  27.500 -0.1692 -0.4003  0.2434
35048W        W35912   5.016   8.935  26.620  0.0553 -0.0524 -0.0247
35049W        W35913   5.957  10.644  26.327 -0.0110 -0.0318 -0.1759
35050W        W35914   5.207  11.890  25.929 -0.1799 -0.1532 -0.2485
35051W        W35915   3.178   9.196  28.616  0.2644  0.2899  0.1845
35052W        W35916   5.876  10.606  23.678 -0.0893  0.0642 -0.3089
35053W        W35917   4.704   9.807  27.468  0.1173  0.1183 -0.0472
35054W        W35918   5.793  12.704  25.758  0.0715 -0.0615 -0.0863
35055W        W35919   4.521  11.768  23.746  0.3849  0.1283 -0.1180
35056W        W35920   2.810  10.429  28.908  0.0681  0.3831  0.1322
35057W        W35921   4.494   9.277   0.175 -0.1451  0.0863 -0.0191
35058W        W35922   5.349  10.354  25.828  0.1323  0.1069  0.0749
35059W        W35923   3.394   8.834  27.666 -0.2185 -0.0117  0.0681
35060W        W35924   8.017   8.353   0.264 -0.2038 -0.2925  0.1882
35061W        W35925   4.326  12.234  27.332 -0.0817  0.2929 -0.0841
35062W        W35926   2.813  10.199  25.690  0.1046  0.0447  0.3718
35063W        W35927   4.649  12.602  27.109 -0.2215  0.0501 -0.0780
35064W        W35928   5.408  11.153  22.211 -0.2338 -0.0457 -0.1354
35065W        W35929   6.776  10.840  28.355  0.0264 -0.1895  0.1206
35066W        W35930   8.155   8.845  26.424 -0.2251  0.1055 -0.1262
35067W        W35931   5.717  11.142  28.193 -0.1729 -0.0789  0.3347
35068W        W35932   4.785   9.053  29.005  0.0142  0.4388 -0.0077
35069W        W35933   7.208  10.211  26.668  0.1845 -0.2186 -0.0081
35070W        W35934   3.533   8.798  26.319 -0.0356  0.0888 -0.2551
35071W        W35935   2.805   9.716  26.830  0.0560 -0.1402 -0.0194
35072W        W35936   4.982  10.021   0.305 -0.3643 -0.0906  0.0961
35073W        W35937   5.046   8.183  24.930 -0.1213 -0.3877 -0.0655
35074W        W35938   6.651   9.749  25.888 -0.0314 -0.1541  0.1153
35075W        W35939   5.107   9.016  28.024  0.2670  0.0140 -0.5077
35076W        W35940   1.655   9.995   1.027  0.0226 -0.0031  0.1897
35077W        W35941   3.405   6.659  24.488 -0.1381 -0.1849  0.1801
35078W        W35942   4.882   6.551  26.280  0.0726 -0.1791  0.0758
35079W        W35943   7.973   6.956   0.792  0.1859  0.0947 -0.0175
35080W        W35944   7.709   8.274  26.992  0.0082 -0.1488  0.4439
35081W        W35945   5.404   7.406  28.118  0.1293  0.1678  0.2869
35082W        W35946   3.009  10.105  26.543  0.0503  0.1050 -0.1063
35083W        W35947   5.958  12.551  26.809  0.1969  0.1266  0.3505
35084W        W35948   7.286   5.965  27.190 -0.0979  0.1528 -0.2299
35085W        W35949   6.639   7.755   0.220 -0.2834 -0.0064 -0.1370
35086W        W35950   5.580   9.127   0.969 -0.1270  0.1588 -0.0339
35087W        W35951   5.441  11.349  26.042  0.0358 -0.0476  0.2284
35088W        W35952   7.269   9.503  28.893  0.1461 -0.3528 -0.2083
35089W        W35953   6.385   9.555  28.006  0.0550  0.0818 -0.1894
35090W        W35954   5.997   7.571  26.915 -0.2298  0.0532 -0.4398
35091W        W35955   7.496   9.961  28.808 -0.0336 -0.0970 -0.1035
35092W        W35956   3.702   9.500   0.303 -0.0412 -0.0485  0.0177
35093W        W35957   5.116   5.749  25.226  0.0098  0.1956 -0.1314
35094W        W35958   6.687   8.065  28.074  0.0372  0.0186  0.2310
35095W        W35959   8.895  12.128  26.297  0.1287 -0.2165  0.3334
35096W        W35960   3.379  11.601  28.606 -0.0301 -0.1143  0.2448
35097W        W35961   5.509   9.464  27.452 -0.0727 -0.0722 -0.1379
35098W        W35962   5.509  12.992  28.748 -0.1978 -0.1707  0.0768
35099W        W35963   8.131   7.941  29.050 -0.1908 -0.1696 -0.2790
35100W        W35964   5.056   6.555   3.275 -0.2069 -0.0849 -0.2170
35101W        W35965   6.972   9.289  24.132  0.0299 -0.1845 -0.0187
35102W        W35966   6.717   9.059   0.262 -0.2910  0.1433 -0.0777
35103W        W35967   7.270   8.928   0.561  0.2539 -0.1656 -0.0470
35104W        W35968   5.171   9.179  25.021 -0.1585 -0.4086  0.0387
35105W        W35969   4.310  13.398  27.539  0.2438  0.4136  0.0260
35106W        W35970   7.660  13.344  26.293 -0.1635 -0.1767 -0.0263
35107W        W35971   6.190   6.909   0.311  0.2700  0.2892  0.5035
35108W        W35972   5.076  10.892  27.157 -0.1404  0.0749  0.0132
35109W        W35973   5.755   9.020  27.381 -0.0497 -0.0188 -0.2178
35110W        W35974   5.804  11.751  26.023 -0.0171  0.1058  0.2970
35111W        W35975   7.619   6.610  27.878 -0.0141 -0.2093  0.0539
35112W        W35976   4.716   8.698  28.038  0.1934  0.2126 -0.2948
35113W        W35977   3.835   7.404  27.474  0.0984 -0.2350 -0.0106
35114W        W35978   5.546  10.512  26.590 -0.0895  0.0040 -0.3656
35115W        W35979   5.032   8.824  27.179 -0.0446  0.0928 -0.1802
35116W        W35980   7.540  12.943  23.522 -0.0771 -0.1246  0.0695
35117W        W35981   5.545   8.650  27.818 -0.0295 -0.0220  0.0887
35118W        W35982   7.398   8.299  23.574 -0.1347  0.5065  0.1516
35119W        W35983   5.166  10.195  26.284  0.0632 -0.0750  0.0350
35120W        W35984   5.748  10.165  28.054  0.0074 -0.1148 -0.2419
35121W        W35985   4.280   7.908  26.027 -0.0051  0.3189 -0.0043
35122W        W35986   6.499   9.414  28.459 -0.1017 -0.0751  0.1800
35123W        W35987   8.332  14.074  27.472  0.3374  0.2517 -0.0197
35124W        W35988   5.431  12.101  28.106 -0.0667 -0.1347 -0.0686
35125W        W35989   6.330   9.140   3.519 -0.0577 -0.4222  0.2250
35126W        W35990   5.646   7.901  26.214 -0.2600  0.0747 -0.1857
35127W        W35991   5.681  14.279  26.807 -0.2343  0.0901  0.0154
35128W        W35992   6.061   6.875  27.612 -0.2152 -0.0348  0.0564
35129W        W35993   4.454  10.883  28.207 -0.1069 -0.1841  0.3819
35130W        W35994   2.064   9.113  29.090  0.2164 -0.1601  0.0867
35131W        W35995   6.428   7.314  27.063  0.1948  0.4105 -0.1563
35132W        W35996   7.052   8.742  28.616  0.1207 -0.1207  0.0047
35133W        W35997   5.778   8.412  26.924  0.1159 -0.0212  0.0492
35134W        W35998   6.458  14.511  26.563  0.0787  0.1511 -0.1538
35135W        W35999   2.733   5.836  25.101 -0.2048 -0.1388  0.2476
35136W        W36000   5.178   8.522  28.148  0.3255 -0.0390 -0.3181
35137W        W36001   5.595  12.296  26.545  0.1012  0.2209 -0.0048
35138W        W36002   6.098   8.830  27.058 -0.0321  0.1067 -0.0637
35139W        W36003   4.146   7.998  29.123  0.2146 -0.2809 -0.0256
35140W        W36004   5.378   7.911  28.144 -0.3530 -0.2211  0.4175
35141W        W36005   4.765   5.923  24.895 -0.1117  0.2132  0.0010
35142W        W36006   6.229  11.764  27.088 -0.1496  0.1985 -0.1525
35143W        W36007   4.616  14.471  24.694 -0.2157  0.1039  0.0771
35144W        W36008   4.633  10.703  27.038  0.1488 -0.1118 -0.3016
35145W        W36009   6.551   9.684  26.366  0.0761  0.3304  0.0374
35146W        W36010   6.626   8.749  24.460  0.2234  0.1686 -0.0528
35147W        W36011   6.560  11.264  28.145  0.3195  0.2972 -0.2637
35148W        W36012   4.736   8.209  25.972  0.2258 -0.2702 -0.1252
35149W        W36013   5.910   8.821  26.611  0.0892 -0.1677 -0.0234
35150W        W36014   7.163   7.725  28.843  0.0535 -0.2269  0.3202
35151W        W36015   2.925   9.668  27.380  0.0108 -0.0120  0.0319
35152W        W36016   5.573   9.523  24.898  0.3320 -0.0584 -0.0723
35153W        W36017   3.234   8.778  27.135 -0.2903 -0.1641  0.2197
35154W        W36018   4.429  11.439  26.490  0.4049 -0.1924  0.0598
35155W        W36019   8.819   6.250  26.480  0.0431  0.2193  0.0413
35156W        W36020   5.282  10.465   3.064  0.2759  0.0253 -0.3695
35157W        W36021   3.267   9.611   0.085  0.2038  0.0370  0.2017
35158W        W36022   7.019  10.848   2.147 -0.1215 -0.0551 -0.1628
35159W        W36023   5.067   8.010  28.536  0.0908 -0.0482 -0.2202
35160W        W36024   5.173   5.334  27.902 -0.0425 -0.1862  0.0515
35161W        W36025   4.458   9.781  28.320  0.0975 -0.0889  0.1220
35162W        W36026   4.923  12.565  22.212  0.0745 -0.0950  0.0567
35163W        W36027   5.195   7.324   0.306  0.1664  0.3141  0.3842
35164W        W36028   7.094  11.368  24.108  0.0726  0.1766 -0.0095
35165W        W36029   5.932   8.534  27.417  0.0736  0.2195  0.0659
35166W        W36030   5.345  11.997  29.117 -0.0188  0.1988  0.0108
35167W        W36031   3.861   8.914  28.086 -0.0674 -0.0566 -0.2246
35168W        W36032   5.483  11.684  24.594  0.1205 -0.3755 -0.1220
35169W        W36033   4.845   8.323  26.547  0.1081  0.2245 -0.0650
35170W        W36034   6.568   8.891  28.706  0.2153  0.1117  0.4665
35171W        W36035   4.993  10.497   0.564 -0.1676  0.2370  0.1582
35172W        W36036   5.069  12.847  28.568  0.1478  0.0369 -0.3483
35173W        W36037   4.297  12.003  24.452 -0.2516 -0.1106  0.3791
35174W        W36038   3.351   8.421  26.046  0.0112 -0.3025 -0.0828
35175W        W36039   5.437   9.372  24.214 -0.2595  0.0786 -0.0354
35176W        W36040   8.420  11.025  25.280 -0.2702 -0.0400  0.0615
35177W        W36041   7.606   9.961  24.145 -0.1963  0.0428 -0.1029
35178W        W36042   3.578   8.885  23.382  0.0762 -0.2305  0.4273
35179W        W36043   5.088   7.595  24.206 -0.0018  0.2597  0.1125
35180W        W36044   5.054  10.040  28.935  0.0484  0.1665 -0.0561
35181W        W36045   6.261   5.915  27.849  0.4031 -0.1663 -0.0143
35182W        W36046   2.403   6.423  26.209  0.4930 -0.3441 -0.0409
35183W        W36047   4.951  11.714  27.515  0.5041  0.0565  0.5094
35184W        W36048   3.976  13.439  28.385  0.1343 -0.0190  0.0363
35185W        W36049   7.847   9.071  24.613 -0.1192  0.0578 -0.1940
35186W        W36050   4.014  10.144  25.265  0.1010 -0.2101 -0.1088
35187W        W36051   4.206   9.413  28.029  0.1284  0.0753  0.1161
35188W        W36052   6.267   9.299  29.087 -0.0601  0.0708 -0.1342
35189W        W36053   5.845   6.195  26.548  0.0790 -0.1696 -0.1946
35190W        W36054   4.484   5.882  23.173  0.0442  0.0137  0.2687
35191W        W36055   6.125   9.205  25.206 -0.1204 -0.0532  0.0605
35192W        W36056   5.587   7.446  27.136 -0.0935  0.0741  0.1510
35193W        W36057   5.296   8.007  24.518  0.1851  0.0087  0.3292
35194W        W36058   7.800   7.478  28.175 -0.0895  0.1045 -0.0105
35195W        W36059   4.238   7.708  24.698 -0.1569 -0.0273 -0.2871
35196W        W36060   5.989   6.521  25.991 -0.2220 -0.0193  0.0795
35197W        W36061   8.656  11.356  26.437  0.1725  0.1970  0.2795
35198W        W36062   3.926  10.114  28.566  0.1301  0.0744  0.1749
35199W        W36063   5.790   7.118  26.669 -0.2531  0.0198 -0.0558
35200W        W36064   3.838   9.485  27.215 -0.0169 -0.3313 -0.0108
35201W        W36065   5.756   8.302  28.074  0.1159  0.0502  0.2841
35202W        W36066   3.734   9.421  28.238  0.0825 -0.0655  0.2046
35203W        W36067   7.131  11.502  26.563 -0.3569 -0.4349 -0.0960
35204W        W36068   5.999   7.741  25.356 -0.2146 -0.1508 -0.0441
35205W        W36069   4.904  10.355  27.223 -0.3062  0.0468 -0.0363
35206W        W36070   4.304   9.720   0.184  0.0439 -0.0898 -0.0040
35207W        W36071   4.322  10.350  28.393 -0.1792  0.0026 -0.3475
35208W        W36072   6.505   6.724  27.394 -0.1910 -0.3233 -0.0133
35209W        W36073   7.226   8.694   1.022  0.2673  0.0401  0.1658
35210W        W36074   5.455   8.880  26.939 -0.0962  0.0288 -0.2098
35211W        W36075   5.243   9.467  25.503 -0.0824 -0.0745 -0.0291
35212W        W36076   9.148  11.769  23.362  0.1827  0.1449  0.1061
35213W        W36077   5.655   9.289   0.535 -0.2484 -0.1339  0.3285
35214W        W36078   3.456  11.340  27.811  0.0513  0.0890 -0.0929
35215W        W36079   6.228  10.694   0.884  0.0824  0.1073 -0.3557
35216W        W36080   7.339   8.200  26.640 -0.1593 -0.2722  0.0725
35217W        W36081   5.508  11.308   1.595  0.0976  0.0031 -0.0790
35218W        W36082   4.153  10.156  26.171 -0.0713 -0.0987 -0.1665
35219W        W36083   7.248  10.171  24.795  0.0382  0.0054  0.1020
35220W        W36084   3.407   7.747  27.640  0.0197  0.0936  0.2696
35221W        W36085   6.384  11.065   1.093  0.1673  0.0004  0.0383
35222W        W36086   5.924   8.039  28.638 -0.1775  0.2090  0.0133
35223W        W36087   6.887   9.520  22.725  0.3701 -0.0765  0.0030
35224W        W36088   4.573   9.046  26.995 -0.0932 -0.0080 -0.3953
35225W        W36089   3.950  12.250  28.277 -0.0308  0.0104 -0.2776
35226W        W36090   2.032   9.892  28.666  0.0965  0.0169 -0.0351
35227W        W36091   3.105  12.471  28.032  0.0840  0.1320  0.0278
35228W        W36092   7.648  12.360  24.862  0.2908  0.3559 -0.0439
35229W        W36093   4.523   9.833   0.635  0.0550  0.0953  0.0754
35230W        W36094   5.524  12.204  25.618  0.0770 -0.4551  0.2380
35231W        W36095   6.017   8.477   0.230  0.1381 -0.1130 -0.2112
35232W        W36096   4.596   7.800  28.992  0.1117  0.1760  0.1202
35233W        W36097   7.341  12.872  27.934 -0.0683 -0.0579  0.3616
35234W        W36098   7.387  11.324  24.901  0.0897 -0.1435  0.1316
35235W        W36099   6.586  10.792  25.160 -0.1042  0.0841  0.2447
35236W        W36100   3.038  10.054   0.913  0.0670 -0.0651 -0.0101
35237W        W36101   5.249   9.409   1.428  0.2130 -0.0428 -0.1777
35238W        W36102   4.812   9.453  26.817 -0.0759  0.0919 -0.0915
35239W        W36103   5.848   6.446  27.908 -0.3330 -0.0301 -0.2828
35240W        W36104   5.671   9.698  26.956  0.3103 -0.1546 -0.0214
35241W        W36105   7.195   7.207  28.366  0.1669 -0.0089 -0.1007
35242W        W36106   2.725  10.497   2.207 -0.0236  0.1649 -0.0778
35243W        W36107   5.085  10.223  25.236  0.0893  0.1459  0.1074
35244W        W36108   2.997   7.107  26.014 -0.0574 -0.2056 -0.0517
35245W        W36109   7.153   9.337  25.043  0.1635  0.0949  0.0885
35246W        W36110   3.312  12.828  27.768 -0.1597 -0.0748 -0.1262
35247W        W36111   5.340  11.390  27.386 -0.0594  0.1887 -0.0098
35248W        W36112   5.050  10.798   0.200 -0.0047 -0.0826  0.1429
35249W        W36113   2.999   8.572  27.557 -0.2724  0.0661  0.0050
35250W        W36114   7.298   8.904  26.988  0.0885  0.1553 -0.4309
35251W        W36115   6.943   9.713  26.715  0.0352  0.0790 -0.1772
35252W        W36116   5.526   8.329   1.217 -0.0023 -0.1738 -0.1634
35253W        W36117   5.362   9.016  25.873 -0.0606 -0.2620 -0.2880
35254W        W36118   5.801  10.066  26.676  0.0057 -0.2833  0.0208
35255W        W36119   5.490   7.843  24.937  0.0530  0.2581  0.0488
35256W        W36120   5.597   7.553   0.047 -0.1911  0.1935  0.1455
35257W        W36121   4.717  11.496   0.033 -0.1192 -0.1850  0.0680
35258W        W36122   0.943  10.248  26.705 -0.1467  0.0060 -0.0490
35259W        W36123   3.936  13.109  27.391 -0.2112 -0.3004  0.1227
35260W        W36124   6.104  14.630   1.600  0.2882 -0.1144 -0.2299
35261W        W36125   6.184  12.772  24.437 -0.1746 -0.0500 -0.1173
35262W        W36126   7.619   9.391  21.898 -0.0793  0.2296 -0.0922
35263W        W36127   3.693  13.740  29.069  0.0430  0.0520 -0.1786
35264W        W36128   8.205  11.704  27.513 -0.0875 -0.2098 -0.1657
35265W        W36129   6.945  10.146  25.602  0.0396  0.0463 -0.1765
35266W        W36130   5.471   8.610   0.737  0.1202  0.0732 -0.1340
35267W        W36131   5.550   9.168  27.923  0.0681 -0.0851  0.0032
35268W        W36132   3.514  11.009  27.387 -0.2864 -0.0708 -0.0080
35269W        W36133   6.953  12.908  24.849  0.1537  0.0769  0.2216
35270W        W36134   6.411   6.593   0.680 -0.0195 -0.2730 -0.0254
35271W        W36135   2.604  10.017  27.175 -0.2299 -0.1155  0.2497
35272W        W36136   1.785   8.872   0.294  0.0641 -0.0372 -0.1022
35273W        W36137   3.994   7.954  25.235 -0.2900 -0.0817 -0.2351
35274W        W36138   5.909  12.728  28.803  0.0626 -0.1737 -0.3256
35275W        W36139   6.461   5.599  26.534 -0.0377  0.0194 -0.0180
35276W        W36140   5.821   7.289  25.267 -0.0655  0.0119 -0.0037
35277W        W36141   1.977   9.982  25.652  0.1269  0.1530  0.1743
35278W        W36142   4.464  13.300   0.164  0.0316  0.1234  0.0744
35279W        W36143   5.337  10.518  27.383  0.0831 -0.0107 -0.0777
35280W        W36144   7.926   7.549   0.137  0.3042  0.0186 -0.1658
35281W        W36145   5.502  10.796  26.128 -0.0018  0.0996 -0.0831
35282W        W36146   3.730   8.186  27.992 -0.0363 -0.2992 -0.2234
35283W        W36147   8.727   7.439  27.401  0.0249 -0.0216  0.1080
35284W        W36148   6.183  10.082  26.244 -0.0949  0.0287 -0.0308
35285W        W36149   6.828  11.143  24.575  0.3115  0.1317 -0.0600
35286W        W36150   5.707   9.440  25.773  0.3698  0.1118  0.1114
35287W        W36151   6.282   8.835   0.997 -0.0440 -0.0755  0.0067
35288W        W36152   4.888   8.477  22.525 -0.1903 -0.2506  0.0886
35289W        W36153   4.907  11.212  27.532  0.1983  0.2364 -0.3400
35290W        W36154   5.922  15.128  23.916 -0.3997  0.1429 -0.0161
35291W        W36155   3.723   8.803  27.339  0.0371  0.2755 -0.0534
35292W        W36156   7.023  10.278  27.620  0.1645 -0.1508  0.3033
35293W        W36157   6.739  10.233  26.491  0.0708 -0.1138 -0.1316
35294W        W36158   4.783  13.182  25.561  0.0323 -0.1126 -0.4341
35295W        W36159   4.740  11.781  26.138  0.1136 -0.0507 -0.1249
35296W        W36160   5.657   9.693  27.953  0.0360 -0.0853 -0.2298
35297W        W36161   5.690  11.311   2.558 -0.4389  0.0098  0.0529
35298W        W36162   3.222   9.279  25.536  0.1550  0.1578 -0.1184
35299W        W36163   6.744  12.471  22.716  0.2959  0.2285  0.0036
35300W        W36164   5.794  13.142   0.473 -0.1128 -0.3659 -0.3151
35301W        W36165   5.615   8.843  28.266  0.0705  0.2207 -0.2180
35302W        W36166   5.246   7.490  25.812 -0.2574 -0.0546 -0.0373
35303W        W36167   3.261   9.592  25.149 -0.0099  0.1186  0.0870
35304W        W36168   4.685  12.691  25.361 -0.0837  0.1072  0.0820
35305W        W36169   5.378   7.176  25.472 -0.3224  0.0270 -0.0445
35306W        W36170   3.855  11.359  27.300 -0.0323  0.0597 -0.2557
35307W        W36171   5.475   8.856  26.374 -0.4403  0.0699 -0.2460
35308W        W36172   4.461   9.812  25.973 -0.2547 -0.1883  0.0661
35309W        W36173   5.246  12.386  28.774  0.1210  0.0660 -0.1884
35310W        W36174   5.652  11.419  28.722  0.2419 -0.0242 -0.0299
35311W        W36175   4.280   6.533  23.718  0.0664 -0.2042 -0.0873
35312W        W36176   8.284   9.591  26.463  0.1674  0.0878  0.1112
35313W        W36177   5.257   9.034  27.536  0.0858  0.2618  0.0326
35314W        W36178   5.482   8.146  27.640  0.1490 -0.1455 -0.0543
35315W        W36179   5.790  12.124  28.521  0.3220 -0.0245 -0.2563
35316W        W36180   6.558  11.632  24.728  0.1250  0.0633 -0.0050
35317W        W36181   4.338  10.515   2.371  0.3867  0.1145  0.1201
35318W        W36182   5.882  11.267   0.368  0.4285  0.0004  0.1801
35319W        W36183   3.705   9.680  27.643  0.1792 -0.2307  0.0682
35320W        W36184   4.329  11.068  27.270  0.2478 -0.0213 -0.2329
35321W        W36185   4.514   9.170  25.539  0.1956  0.1009  0.1012
35322W        W36186   5.725   8.570  25.441 -0.2122  0.0690 -0.0155
35323W        W36187   5.438   9.049  23.627  0.0986 -0.0332 -0.0092
35324W        W36188   4.184   8.870  25.177 -0.0027  0.2487 -0.1791
35325W        W36189   5.119   7.254  27.291 -0.1469 -0.1230 -0.1966
35326W        W36190   7.041   7.225  25.857  0.0255  0.0821  0.1867
35327W        W36191   9.232  10.843   1.320 -0.3173  0.2817  0.5921
35328W        W36192   5.370  10.307   0.143  0.0600 -0.2092  0.3007
35329W        W36193   5.343   9.773  25.935  0.2133  0.1238  0.0024
35330W        W36194   6.782  11.869  27.691 -0.0428  0.2274  0.1761
35331W        W36195   4.320  12.772  27.757  0.2342  0.0190  0.1220
35332W        W36196   7.646  11.355  26.652  0.1103 -0.1026  0.0777
35333W        W36197   5.942   9.196  26.209 -0.0962 -0.0173  0.2315
35334W        W36198   6.984   9.247  28.549 -0.1193 -0.0348  0.1610
35335W        W36199   4.152  10.477  27.046 -0.0049 -0.0263 -0.1437
35336W        W36200   4.240   8.803  27.357  0.0731 -0.3262  0.0305
35337W        W36201   6.351   7.285  27.711 -0.1919  0.0843  0.0566
35338W        W36202   6.294  10.386  27.071  0.0906 -0.1793  0.3262
35339W        W36203   4.007   9.407  28.986  0.1562  0.0773 -0.0440
35340W        W36204   3.859   9.817   1.332  0.2281  0.2308  0.0764
35341W        W36205   6.345   7.732  27.972 -0.0074 -0.3275  0.1173
35342W        W36206   3.709   9.376  24.133 -0.0422 -0.2627  0.1778
35343W        W36207   4.846  10.005  25.736 -0.2979  0.1833  0.1803
35344W        W36208   4.506   9.224  23.419 -0.1684  0.0428 -0.0191
35345W        W36209   5.111   8.739  28.622  0.0306 -0.0920 -0.1007
35346W        W36210   8.726   8.735  26.198 -0.0815  0.0641  0.2119
35347W        W36211   4.621  10.730  26.311 -0.0167  0.2475 -0.3724
35348W        W36212   5.418  12.247  23.066 -0.0896 -0.3576 -0.2760
35349W        W36213   5.348  10.965  26.729 -0.0370 -0.2678 -0.0239
35350W        W36214   7.635   9.184  28.748  0.1266 -0.4117  0.2644
35351W        W36215   3.277  10.097  28.493 -0.0974 -0.1224 -0.0435
35352W        W36216   6.492   7.037  29.061  0.0839  0.3117 -0.2423
35353W        W36217   2.958  10.859  29.125  0.1379  0.1333  0.1169
35354W        W36218   5.830   7.967  24.487 -0.1828  0.2484  0.1357
35355W        W36219   5.127   8.749  24.081  0.1617  0.1092 -0.1069
35356W        W36220   4.368  12.119   0.050  0.0600 -0.1542 -0.1571
35357W        W36221   4.354   9.285  27.475  0.3609  0.0347  0.1100
35358W        W36222   4.046   7.331  26.695 -0.0293  0.2768 -0.0151
35359W        W36223   5.814  13.416  24.846 -0.0101  0.0626  0.0953
35360W        W36224   6.377   6.511  27.822 -0.0013  0.1906  0.1914
35361W        W36225   4.547  13.193  26.046  0.0931  0.0919  0.1372
35362W        W36226   7.217   8.513  27.641 -0.0511  0.0859  0.0624
35363W        W36227   4.097   8.939  25.674  0.0804  0.0469  0.1860
35364W        W36228   6.411   8.592  25.917 -0.0780  0.2329 -0.2160
35365W        W36229   2.494   9.939  25.357  0.0533 -0.1099  0.0861
35366W        W36230   5.925   9.896   1.144  0.0236  0.0462  0.3361
35367W        W36231   5.959  10.219  25.327 -0.3704  0.1223  0.1537
35368W        W36232   5.780  10.841  27.758 -0.1362  0.0754  0.0378
35369W        W36233   7.066  12.375  24.056 -0.0494  0.2840  0.0663
35370W        W36234   5.314   9.319  26.269  0.1709  0.0725  0.0172
35371W        W36235   4.967  10.570  26.646 -0.0693 -0.1840 -0.0707
35372W        W36236   5.048   9.839  27.140 -0.0179  0.1549 -0.1244
35373W        W36237   5.143   8.894   1.853  0.0370 -0.1746  0.0159
35374W        W36238   5.084   8.667   0.029  0.1809  0.2531 -0.1805
35375W        W36239   7.615   8.112  27.536  0.2218 -0.1191 -0.1719
35376W        W36240   2.181  11.387  26.735 -0.0160 -0.0757  0.3092
35377W        W36241   3.226   8.767   0.698 -0.1704  0.0273  0.0152
35378W        W36242   7.465   8.894  28.404 -0.1980 -0.3537  0.1600
35379W        W36243   7.000  11.181  27.259 -0.2081 -0.2095  0.2734
35380W        W36244   5.097   8.567  27.651  0.5638  0.0023 -0.1357
35381W        W36245   4.114   9.363  25.300  0.1796 -0.1470  0.0932
35382W        W36246   3.417  10.730  25.854  0.3353  0.1725  0.0363
35383W        W36247   5.156  11.401  26.647 -0.1799 -0.1874 -0.1858
35384W        W36248   5.968  11.854  25.442 -0.1872 -0.1472 -0.1746
35385W        W36249   4.717   9.377  27.882  0.1772  0.0843 -0.2091
35386W        W36250   5.729  11.135  26.423  0.0011  0.1532  0.1920
35387W        W36251   7.538  11.461  24.385 -0.0356 -0.0380 -0.5621
35388W        W36252   5.560  10.389  25.091  0.1759 -0.0757  0.0372
35389W        W36253   4.474  11.492  27.483 -0.1246 -0.1906  0.1739
35390W        W36254   2.643   7.823  26.998 -0.0089 -0.0467  0.1031
35391W        W36255   5.443  10.493  27.863 -0.0061  0.3915 -0.3254
35392W        W36256   4.524   8.353   2.555 -0.2474 -0.2792 -0.1271
35393W        W36257   6.717  13.353  24.789 -0.1356  0.0728  0.2601
35394W        W36258   4.664   9.139  24.335  0.0278 -0.2396 -0.0900
35395W        W36259   5.269  14.186   1.786 -0.1003  0.1183 -0.2579
35396W        W36260   0.584  11.204   2.383 -0.0222 -0.0606  0.0125
35397W        W36261   8.122  13.746  28.371 -0.0276 -0.0014 -0.0600
35398W        W36262   7.867  14.463   4.051 -0.0845  0.0033  0.1084
35399W        W36263   4.966  14.879   1.005 -0.1233  0.0090 -0.0729
35400W        W36264   5.425   9.220   3.124 -0.0832  0.0321 -0.1504
35401W        W36265   4.642  10.141   2.514  0.0556  0.0217  0.0670
35402W        W36266   7.267  13.823  28.176  0.0843 -0.3709  0.0853
35403W        W36267   5.763  12.908   1.225  0.0019  0.4039 -0.0990
35404W        W36268   6.250  11.357   5.621 -0.1709 -0.2857 -0.0849
35405W        W36269   3.543  12.201   1.208 -0.0281 -0.0090  0.1805
35406W        W36270   7.146  12.470  28.019  0.0664 -0.3061 -0.2178
35407W        W36271   6.492  11.432   0.373 -0.0284 -0.0708 -0.3478
35408W        W36272   4.897   9.952  28.142 -0.0717 -0.0003 -0.4548
35409W        W36273   3.223  10.391   0.376 -0.0704  0.0484  0.2586
35410W        W36274   3.678  14.116   2.394 -0.0421  0.0022  0.1403
35411W        W36275   5.673  15.220  26.143  0.1147  0.2746 -0.0201
35412W        W36276   6.282  12.303   2.673 -0.0450  0.1405 -0.1586
35413W        W36277   5.984  12.163   4.365 -0.2638 -0.0114  0.0129
35414W        W36278   4.468   8.244   3.072 -0.1819  0.0179  0.0307
35415W        W36279   4.433  10.521   2.883 -0.0494 -0.1474  0.1119
35416W        W36280   7.719  12.777   2.610  0.0306  0.0756 -0.1144
35417W        W36281   6.931  13.760   3.120 -0.1586 -0.0640 -0.0114
35418W        W36282   5.738  13.243   2.935  0.0913  0.0918  0.1907
35419W        W36283   5.367  13.344   0.496 -0.1541  0.1849 -0.3189
35420W        W36284   4.697  13.423   2.762 -0.1665 -0.1284 -0.0215
35421W        W36285   6.609  15.474   6.108  0.0614  0.2582  0.2057
35422W        W36286   5.179  14.934   1.972  0.2914  0.0228  0.2132
35423W        W36287   8.246  12.714   1.690  0.0295 -0.0715 -0.0277
35424W        W36288   5.148  13.716   4.405  0.2386 -0.1862  0.0414
35425W        W36289   3.087  14.077   1.232 -0.3131  0.2131 -0.1642
35426W        W36290   6.391  11.484   1.752  0.0578  0.0022 -0.0693
35427W        W36291   4.257   9.879   4.118  0.2067 -0.0328 -0.0448
35428W        W36292   7.092  15.732   5.213  0.1944  0.1822 -0.0491
35429W        W36293   4.534  11.295   3.495 -0.3144 -0.3601 -0.0403
35430W        W36294   8.551  14.327   2.265 -0.0985  0.1314 -0.1612
35431W        W36295   3.794  14.150   1.763 -0.1942 -0.2837 -0.0352
35432W        W36296   6.235  13.461   1.891  0.2085 -0.2360  0.0889
35433W        W36297   5.590  12.226   2.699  0.1244  0.0262  0.0985
35434W        W36298   4.969  12.817   3.420  0.1476  0.1259  0.0678
35435W        W36299   4.899  13.402  27.698 -0.0850 -0.3973 -0.1286
35436W        W36300   7.268  13.106   5.522  0.3316 -0.1299 -0.0115
35437W        W36301   4.277  17.218   2.807  0.0867 -0.4858 -0.1479
35438W        W36302   8.071  15.324  28.322 -0.2280 -0.1615  0.0850
35439W        W36303   2.140  13.751   1.171  0.0361 -0.0037  0.0282
35440W        W36304   6.972  14.924   3.555  0.0009  0.1824 -0.2246
35441W        W36305   7.521  11.477   0.925 -0.0810  0.0563  0.0609
35442W        W36306   5.935  12.709   3.521  0.0536 -0.0332  0.1890
35443W        W36307   7.039  11.657   0.503 -0.0284 -0.2075  0.0917
35444W        W36308   4.033  15.594   2.172  0.1964  0.3304 -0.3393
35445W        W36309   6.858  15.726   2.019  0.4507  0.1416  0.3011
35446W        W36310   5.932  10.989  28.667 -0.3202  0.2152 -0.1326
35447W        W36311   4.780  14.490   3.577 -0.2300 -0.1474  0.0883
35448W        W36312   7.840  14.439  26.903 -0.0685 -0.0848  0.0277
35449W        W36313   4.854  11.729  28.465 -0.2520 -0.1759  0.1967
35450W        W36314   5.462  15.004   2.394 -0.1140  0.4472 -0.1742
35451W        W36315   4.814  11.723   1.191  0.1440 -0.0051  0.0915
35452W        W36316   7.060  11.352   0.971 -0.1793  0.0468 -0.1884
35453W        W36317   6.221  14.478   2.700  0.2821 -0.3045  0.0704
35454W        W36318   5.982  14.459  27.306  0.0515  0.1212  0.2585
35455W        W36319   5.605  10.438  28.796  0.1540 -0.2378  0.3199
35456W        W36320   6.696  13.522   2.157  0.0343  0.0072  0.3711
35457W        W36321   5.428  12.440   5.103  0.1073 -0.0723  0.0241
35458W        W36322   4.623  14.695   3.075 -0.0131 -0.2501  0.2136
35459W        W36323   4.949   8.418   3.355 -0.1920  0.0933  0.3005
35460W        W36324  10.389   9.346   0.216  0.1038 -0.2384  0.1997
35461W        W36325   3.490  15.659   0.794 -0.0772  0.1541  0.0583
35462W        W36326   5.001  13.694   1.588  0.1239  0.2345 -0.3245
35463W        W36327   5.507  15.120   3.208 -0.1229 -0.0140 -0.0871
35464W        W36328   6.359  15.444   0.164 -0.0156 -0.0993 -0.0309
35465W        W36329   8.957  15.257   2.406 -0.0515 -0.0633  0.0904
35466W        W36330   5.023  12.298   3.368  0.6220  0.3368  0.1905
35467W        W36331   8.449  14.043   2.662 -0.0881 -0.3232 -0.5045
35468W        W36332   8.537  13.022   2.046  0.2293 -0.0624 -0.0327
35469W        W36333   9.407  12.595   0.614  0.0364 -0.3122  0.1279
35470W        W36334   7.344  14.249   4.169  0.2479  0.0165 -0.1289
35471W        W36335   5.923  12.503   2.357  0.1596  0.1672 -0.1143
35472W        W36336   5.223  13.930   5.468 -0.1793 -0.1530 -0.2718
35473W        W36337   7.185  12.291  26.439 -0.2726  0.1084  0.0187
35474W        W36338   8.951  13.379  28.034 -0.4024 -0.1759 -0.0412
35475W        W36339   6.816   9.604   2.642 -0.2901 -0.1967  0.2191
35476W        W36340   4.284  12.316   3.710  0.2687 -0.0162 -0.2403
35477W        W36341   4.251  13.713   0.388 -0.0498 -0.0621 -0.1526
35478W        W36342   6.128  11.457  28.453  0.0631 -0.0923 -0.0531
35479W        W36343   3.384   9.511   3.019  0.1990 -0.2236  0.4148
35480W        W36344   5.343  11.771   0.477  0.1703 -0.0212  0.0049
35481W        W36345  10.695  12.991   4.038 -0.2924 -0.1022  0.1320
35482W        W36346   7.899  13.071   1.715  0.7048  0.1544  0.1745
35483W        W36347   6.419  13.839   4.284  0.2065 -0.0154  0.0149
35484W        W36348   6.666  10.592   1.155 -0.2431  0.2410 -0.3799
35485W        W36349   6.493  11.183  28.631 -0.2890  0.2738  0.2065
35486W        W36350   7.084  12.790   2.764 -0.3219  0.2004 -0.0922
35487W        W36351   3.089  14.636   2.717 -0.0236 -0.1969  0.4168
35488W        W36352   3.603  11.607   2.619  0.1458 -0.3296 -0.1001
35489W        W36353   4.429  10.822   3.739 -0.1459  0.0206 -0.1101
35490W        W36354   5.562  15.085   0.362 -0.1503 -0.0703 -0.0323
35491W        W36355  10.765  12.825  28.848 -0.0049  0.2585  0.1503
35492W        W36356   5.289  15.090   5.004 -0.2098  0.3265 -0.0686
35493W        W36357   5.358  11.274   2.224  0.2645  0.2867 -0.4593
35494W        W36358   8.939  11.420   3.232  0.0509 -0.0554  0.0510
35495W        W36359   9.110  14.094  28.782  0.0600 -0.3078  0.1275
35496W        W36360   3.785  12.578   2.543  0.0813  0.1367  0.1782
35497W        W36361   7.539  11.682   0.453 -0.0145  0.0691  0.1371
35498W        W36362   8.867  14.067   3.579  0.0107  0.0958  0.0259
35499W        W36363   6.298  12.020  28.410 -0.0841 -0.0374  0.3520
35500W        W36364   8.537  11.499   1.198  0.4148 -0.0062 -0.1423
35501W        W36365   4.856  13.284   1.258 -0.2991  0.3016 -0.1905
35502W        W36366   4.407  14.364   5.855  0.0464  0.1620  0.0296
35503W        W36367   3.877  10.429   0.608  0.1698 -0.0340  0.0056
35504W        W36368   5.366  12.216   3.984  0.0646  0.1815 -0.1435
35505W        W36369   4.650  13.107   2.383 -0.0743 -0.0470  0.0578
35506W        W36370   9.144  13.337   0.302  0.0634 -0.1585  0.0513
35507W        W36371   5.467   9.764   0.329 -0.0535  0.1393  0.0105
35508W        W36372   4.923  14.391   2.648 -0.2062  0.2634 -0.0348
35509W        W36373   8.157  14.874  27.956  0.0196 -0.0998 -0.1276
35510W        W36374   7.547  12.465  24.200 -0.2390  0.1374 -0.0640
35511W        W36375   8.347  11.213   2.146 -0.0215  0.1951 -0.2021
35512W        W36376   4.093  13.509   2.722  0.0675  0.1839  0.0739
35513W        W36377   5.818  11.151   4.202 -0.1816  0.0938 -0.0810
35514W        W36378   7.372  14.339  28.347  0.0699 -0.0834 -0.1351
35515W        W36379   6.472  14.055  28.424  0.0974  0.1775  0.0049
35516W        W36380   7.479  14.393   0.704  0.5884  0.1928 -0.2779
35517W        W36381   7.746  12.070   2.737  0.1211  0.1454 -0.2205
35518W        W36382   4.227  11.945   1.919  0.1642 -0.0748  0.0797
35519W        W36383   5.621  11.677   2.851 -0.2569 -0.3693  0.0178
35520W        W36384   6.704  10.516   0.103 -0.1138  0.0585  0.0241
35521W        W36385   5.254  11.301   3.695  0.4213 -0.2209  0.0932
35522W        W36386   4.533  14.024   1.958  0.0074  0.3032  0.1338
35523W        W36387   8.253  13.733   0.332  0.0528 -0.0298  0.1661
35524W        W36388   6.583  14.652   0.256  0.4539  0.3499 -0.0423
35525W        W36389   6.717  13.258   3.073 -0.0218  0.0436 -0.2409
35526W        W36390   4.857  10.769   2.810  0.1536 -0.2040  0.2093
35527W        W36391   2.310  15.202   2.700 -0.1274  0.0038 -0.2305
35528W        W36392   7.161  10.478   1.249  0.3691  0.0800  0.4773
35529W        W36393   5.581   9.623   3.460  0.0703  0.0922  0.1665
35530W        W36394   2.931  12.195   2.264 -0.3023 -0.2176 -0.0822
35531W        W36395   3.777  10.212  27.701  0.2058  0.0940  0.0401
35532W        W36396   6.424  12.659   2.358 -0.2080 -0.0506 -0.1975
35533W        W36397   6.495  14.798   2.937 -0.1332  0.0396 -0.0592
35534W        W36398   7.353  17.298  27.937 -0.0473  0.1030 -0.0385
35535W        W36399   2.991  11.579  27.615 -0.1033 -0.2046  0.1111
35536W        W36400   5.440  10.288   0.636  0.2221  0.3519 -0.2395
35537W        W36401   6.018  14.933   0.191 -0.0473 -0.4146  0.0525
35538W        W36402   3.297  14.002  27.011  0.0356 -0.1631 -0.1184
35539W        W36403   5.367  13.633   2.385  0.2327  0.2468 -0.1825
35540W        W36404   7.750  13.288   2.645 -0.1584 -0.1968 -0.0160
35541W        W36405   7.385  12.715   1.128 -0.2245  0.1825  0.2118
35542W        W36406   5.482  14.652   1.077 -0.0681 -0.1016 -0.1391
35543W        W36407   7.054  14.022  28.606  0.0421 -0.0437  0.1938
35544W        W36408   5.498  17.295   2.072  0.1137  0.0590  0.2241
35545W        W36409   7.442  13.375   1.573  0.1048 -0.0945 -0.1058
35546W        W36410   6.516  11.482   3.171 -0.0500 -0.2206  0.1838
35547W        W36411   4.942  13.792   3.257 -0.0764 -0.1295 -0.2143
35548W        W36412   4.695  13.548   0.658 -0.1405 -0.0395 -0.0959
35549W        W36413   5.054  12.811   4.645 -0.0636  0.0127  0.2499
35550W        W36414   6.206  14.758  28.947  0.0184 -0.4478  0.0649
35551W        W36415   3.796  14.892   2.804  0.1764  0.0183 -0.0117
35552W        W36416   5.520  12.109   0.817 -0.2781 -0.1992 -0.0297
35553W        W36417   4.859   9.623  29.044 -0.0277 -0.2280  0.1489
35554W        W36418   5.063  12.155   1.266  0.0901  0.1188  0.2002
35555W        W36419   5.709  10.908   2.230 -0.1901 -0.3732 -0.1984
35556W        W36420   5.577  14.103   2.128 -0.1097  0.0297  0.0503
35557W        W36421   8.702  14.072   3.106 -0.1702 -0.0424  0.2755
35558W        W36422   6.956  12.444   1.370 -0.0200  0.1562 -0.1391
35559W        W36423   8.856  11.027   3.528 -0.3698 -0.0859 -0.2818
35560W        W36424   4.339  13.040   2.793 -0.0430  0.3037  0.1030
35561W        W36425   5.688   9.669   1.615  0.1749  0.3616  0.1884
35562W        W36426   5.770  15.102   3.630  0.1523 -0.1099 -0.2506
35563W        W36427   4.987  14.356   5.211  0.0363 -0.2454  0.0595
35564W        W36428   8.771  13.983   0.510  0.0674  0.0679 -0.0136
35565W        W36429   6.416  11.813   2.763 -0.0140 -0.1690 -0.2153
35566W        W36430   7.204  12.308   4.890 -0.1340  0.1198 -0.0828
35567W        W36431   7.769  14.022  28.103  0.0612  0.1321  0.2590
35568W        W36432   6.505  13.869   1.478 -0.2267  0.2459  0.4212
35569W        W36433   2.954   9.932   0.311 -0.0371 -0.0200 -0.0862
35570W        W36434   8.941  12.364  29.058  0.0243  0.2183  0.0398
35571W        W36435   3.914  13.493   3.181  0.0446  0.0730 -0.1952
35572W        W36436   5.141  11.341   4.312 -0.1960 -0.1246  0.1654
35573W        W36437   6.760  13.977   3.536  0.2196 -0.0861  0.1095
35574W        W36438   6.756   8.910   0.828  0.2891 -0.2628 -0.0986
35575W        W36439   6.176  16.022   2.130 -0.5172 -0.3214 -0.1291
35576W        W36440   6.739  13.075  28.798 -0.1370  0.2022 -0.0502
35577W        W36441   7.064  13.440  28.557 -0.0839  0.1160 -0.3069
35578W        W36442   5.906  11.348   2.044  0.0001 -0.3096  0.0871
35579W        W36443   6.985  12.856   0.907 -0.0568 -0.3365 -0.0842
35580W        W36444   7.473  13.123   3.013  0.0572  0.1586 -0.0073
35581W        W36445   6.158  10.684   3.460  0.0445 -0.0035 -0.2034
35582W        W36446   3.581  13.888   0.702 -0.3066  0.0635 -0.1525
35583W        W36447   5.327  12.478   2.367  0.1923 -0.1055 -0.0750
35584W        W36448   4.883  12.247   2.696  0.1521 -0.0375  0.1183
35585W        W36449   5.434  17.035  26.963 -0.2215  0.2892  0.1088
35586W        W36450   6.006  15.659   1.763 -0.2833 -0.2007 -0.5028
35587W        W36451   4.628  12.568   3.172 -0.0327  0.2833 -0.1426
35588W        W36452   5.506  11.313   0.735 -0.3797 -0.0438  0.0271
35589W        W36453   5.508   9.929  28.426 -0.0452  0.3098 -0.2821
35590W        W36454   4.739  10.508  28.080  0.0338 -0.1108  0.0578
35591W        W36455   5.734  11.754  27.225 -0.0715  0.1192 -0.1366
35592W        W36456   4.520  10.978   1.941  0.0249 -0.1206  0.0400
35593W        W36457   4.589  10.816   3.266  0.0538 -0.0326  0.2236
35594W        W36458   9.622  13.030   1.833  0.0115 -0.1520 -0.0138
35595W        W36459   4.267  13.848  29.042  0.0477 -0.1796 -0.0848
35596W        W36460   5.214   9.468   0.909  0.2519 -0.0440  0.2185
35597W        W36461   6.845  12.880  27.734 -0.2054 -0.1943 -0.0636
35598W        W36462   4.887  11.805   2.884  0.2153 -0.1712 -0.0557
35599W        W36463   6.167  12.812   5.545  0.1091  0.0145  0.3501
35600W        W36464   2.722  12.782  27.003 -0.0028  0.4047  0.0687
35601W        W36465   5.962  11.923   3.876  0.3579 -0.2377  0.0642
35602W        W36466   7.698  13.417   2.141  0.1937 -0.1514 -0.1108
35603W        W36467   7.889  14.170   1.629 -0.0362  0.0203  0.1087
35604W        W36468   3.964  13.418   1.431  0.0479 -0.2611  0.0252
35605W        W36469   4.379  14.680   2.023 -0.0907 -0.3538 -0.1082
35606W        W36470   5.932  14.160   2.913  0.0995  0.1101 -0.0667
35607W        W36471   5.856  13.148   2.474 -0.1258  0.2575  0.0336
35608W        W36472   8.052   9.745   3.360  0.2813 -0.2059  0.0566
35609W        W36473   5.975  12.000   2.455  0.1829  0.2901  0.3057
35610W        W36474   8.075  12.723   0.698  0.0222 -0.1923 -0.1225
35611W        W36475   6.154  15.525   1.342  0.0661  0.0710 -0.0452
35612W        W36476   7.249  15.571  28.702  0.0098  0.2159 -0.1821
35613W        W36477   6.266  11.595   2.340  0.0936  0.1420  0.2256
35614W        W36478   7.411  13.551   3.320 -0.0061 -0.2957 -0.0307
35615W        W36479   6.021  11.157   1.502 -0.1139 -0.1671 -0.1568
35616W        W36480   8.997  12.272   1.482 -0.2871 -0.1186  0.0639
35617W        W36481   6.045  14.199   6.008  0.1413 -0.2327  0.2852
35618W        W36482   3.536   9.912  28.073 -0.2446 -0.3553  0.0355
35619W        W36483   6.008  14.023  27.614 -0.0690  0.1144  0.1662
35620W        W36484   3.103  11.722   3.611  0.1058  0.1567 -0.0277
35621W        W36485   7.520  13.760   1.296 -0.0623 -0.2052 -0.3012
35622W        W36486   8.156  13.316   2.343  0.4173  0.0736  0.2854
35623W        W36487   8.916  11.867   0.027 -0.0035  0.3833 -0.0492
35624W        W36488   4.615  13.094   4.458  0.0569  0.0570  0.1527
35625W        W36489   5.164   9.613   3.133  0.0151 -0.0028 -0.0203
35626W        W36490   4.954  13.330   3.353  0.0348 -0.2208  0.4312
35627W        W36491   3.894  14.591   1.953  0.2301  0.1243 -0.0960
35628W        W36492   5.791  12.130  27.641 -0.1279 -0.3649 -0.0212
35629W        W36493   5.798  10.682   3.849 -0.2012 -0.2460  0.1163
35630W        W36494   7.475  12.897   2.054 -0.0489  0.0578  0.3802
35631W        W36495   6.108  14.208   1.296 -0.0332  0.0341 -0.1114
35632W        W36496   6.591  11.335   5.124 -0.2177  0.1266  0.1211
35633W        W36497   5.925  15.731   0.963 -0.4119 -0.3016  0.2504
35634W        W36498   8.791  14.828   0.770  0.0287  0.2116  0.1630
35635W        W36499   8.170  13.252  27.842  0.0374 -0.0492  0.2251
35636W        W36500   3.418  13.327   3.011 -0.2230  0.0562  0.0683
35637W        W36501   4.137  12.268   3.149 -0.3938  0.0114 -0.2256
35638W        W36502   4.634  12.002   2.254  0.1557  0.1232  0.1281
35639W        W36503   5.561  12.779   2.704  0.0476  0.2484 -0.2089
35640W        W36504   5.722  13.650   0.379 -0.3626 -0.2169  0.0112
35641W        W36505   4.601  15.622   1.831  0.1614  0.0841  0.0963
35642W        W36506   5.451  15.472   3.669 -0.1015  0.1115 -0.1450
35643W        W36507   7.089  14.459   1.040  0.1882  0.0585 -0.1348
35644W        W36508   5.317  11.909  28.569  0.0050  0.0966  0.0509
35645W        W36509   6.516  10.240   1.599 -0.0724  0.0028 -0.1237
35646W        W36510   5.697  16.546   1.332 -0.3404 -0.1820  0.2713
35647W        W36511   4.982  13.765   4.901 -0.1644  0.1233  0.0258
35648W        W36512   7.029  10.801   3.529  0.0782  0.0323 -0.1055
35649W        W36513   6.390  13.519   1.067 -0.0612 -0.1338 -0.3473
35650W        W36514   5.852  14.435  28.942  0.3671  0.2571  0.2238
35651W        W36515   7.455  12.062   0.734 -0.1563  0.1479  0.1106
35652W        W36516   7.489   8.651   2.167 -0.3144 -0.0833  0.4283
35653W        W36517   7.836  14.052   0.907 -0.0007  0.1271 -0.0319
35654W        W36518   5.000  10.624   1.051  0.0596 -0.2588 -0.1559
35655W        W36519   5.839  11.636   3.327  0.2709 -0.0074 -0.2789
35656W        W36520   5.288  11.700   1.006  0.0451  0.0105  0.3686
35657W        W36521   7.223  15.023   0.753 -0.4112 -0.0584  0.1160
35658W        W36522   5.622   9.817   0.786 -0.1549 -0.4787  0.2433
35659W        W36523   6.611  15.876   0.060 -0.1398  0.3817  0.0261
35660W        W36524   4.177  14.432   2.893  0.0016  0.2267 -0.0779
35661W        W36525   6.562  12.026   2.302  0.2368 -0.1676  0.0032
35662W        W36526   5.434  13.387   1.312 -0.1494  0.2156 -0.0660
35663W        W36527   5.402  12.386   4.413  0.0457  0.4210 -0.1898
35664W        W36528   6.826  11.517   1.400 -0.1106  0.0171  0.0602
35665W        W36529   4.849  14.748  27.159 -0.0431  0.0766 -0.0978
35666W        W36530   6.252  13.572   2.452 -0.1426 -0.3530  0.2048
35667W        W36531   7.152  11.875   1.070 -0.5287  0.3275  0.0606
35668W        W36532   5.856  13.634   1.657  0.0943 -0.1276 -0.1618
35669W        W36533   8.290  13.311   2.857 -0.1626  0.0092 -0.2794
35670W        W36534   7.225  11.857   3.602 -0.1534 -0.3406  0.0265
35671W        W36535   4.000  10.759   3.396  0.2412  0.0496 -0.1125
35672W        W36536   4.746  11.812   4.446  0.1480 -0.0940 -0.0467
35673W        W36537   5.214  11.488   2.647  0.0372  0.2254 -0.2005
35674W        W36538   4.220  11.110   4.601  0.1651 -0.0394 -0.1431
35675W        W36539   4.484  11.466   2.660 -0.5343 -0.0450  0.1409
35676W        W36540   5.652  11.185   3.055 -0.1864  0.1687  0.1364
35677W        W36541   3.060  13.177   2.454 -0.0986 -0.1755  0.0889
35678W        W36542   4.646  15.145   0.086  0.1352 -0.1815 -0.1276
35679W        W36543   5.834  12.384  28.092 -0.1184 -0.2780  0.0979
35680W        W36544   6.407   9.768  28.831  0.0312 -0.0841  0.1856
35681W        W36545   5.042  11.643   2.170 -0.2303 -0.0731 -0.2556
35682W        W36546   4.640  13.998   4.249 -0.1664  0.0765 -0.1979
35683W        W36547   5.097  14.317   1.152  0.0518  0.2359 -0.2254
35684W        W36548   5.706  12.142   0.325  0.2669 -0.1855 -0.2773
35685W        W36549   4.271  12.431  26.291 -0.3091  0.2660  0.0479
35686W        W36550   6.435  11.714  28.007 -0.1489  0.0766 -0.1759
35687W        W36551   4.856  10.276   1.763  0.3648 -0.1138 -0.1123
35688W        W36552   4.912  12.010   0.712  0.0053 -0.0012 -0.1692
35689W        W36553   4.337  11.444   1.151  0.0760 -0.0669 -0.1430
35690W        W36554   7.617  13.794   2.867  0.2218  0.1403 -0.0525
35691W        W36555   6.843   8.986   3.439  0.1518 -0.0122  0.0459
35692W        W36556   7.262  14.009   0.878 -0.1697 -0.1090 -0.4532
35693W        W36557   4.644  10.291  29.102 -0.0252 -0.3741 -0.2994
35694W        W36558   2.753  13.538   0.380  0.1590 -0.0621 -0.0273
35695W        W36559   3.888  15.284   1.724  0.3343  0.3937 -0.1196
35696W        W36560   1.260  11.928   4.944 -0.0814  0.0727  0.0468
35697W        W36561   6.651  13.532   3.874  0.1046  0.2282  0.0782
35698W        W36562   5.190  11.709   1.687 -0.4297  0.3163 -0.3875
35699W        W36563   6.196  12.463   1.928 -0.1929  0.2901  0.0418
35700W        W36564   5.629  15.932   3.045  0.1494 -0.1672  0.4336
35701W        W36565   5.480  15.022   4.487 -0.2497 -0.1433  0.3127
35702W        W36566   7.568  13.580   0.782 -0.0905 -0.0895  0.1683
35703W        W36567   3.323  12.414   2.646  0.0514  0.0973 -0.1175
35704W        W36568   5.726  11.935   1.252  0.0257 -0.1602 -0.3243
35705W        W36569   6.499   9.517  26.961 -0.0383 -0.1047  0.0687
35706W        W36570   8.285  14.768   2.919 -0.2637 -0.0743  0.1172
35707W        W36571   5.219  12.504   2.944 -0.2278  0.2818 -0.1893
35708W        W36572   7.657  12.179   3.375  0.0287  0.1277 -0.1892
35709W        W36573   6.073  13.271   1.333  0.1610  0.1126 -0.0452
35710W        W36574   4.845  13.911   1.064  0.0211 -0.1180  0.1041
35711W        W36575   5.768   8.130  29.148 -0.0781  0.1074  0.2919
35712W        W36576   4.941  12.677   1.053  0.0957 -0.1966 -0.2178
35713W        W36577   5.243  14.623   3.722  0.0372 -0.1622 -0.1732
35714W        W36578   6.067  11.410   2.834  0.1165  0.2041  0.0799
35715W        W36579   3.129  13.689   2.555  0.1455  0.0286  0.0275
35716W        W36580   9.407  17.425  26.311 -0.2078 -0.1285  0.0383
35717W        W36581   4.309  13.094   4.076  0.0599 -0.1926  0.1524
35718W        W36582   5.225  11.956   2.511 -0.0527  0.2467 -0.0168
35719W        W36583   7.270  16.981   0.173  0.1522  0.1633  0.2194
35720W        W36584   6.482  15.348   1.771 -0.1085  0.2279  0.2316
35721W        W36585   4.861  12.954   2.928 -0.2071  0.1576 -0.0398
35722W        W36586   4.555  13.014  28.872 -0.0270 -0.1447  0.0829
35723W        W36587   6.014  15.809  28.690  0.1127 -0.2580  0.1794
35724W        W36588   4.752  15.141   1.814  0.0429  0.2706 -0.2845
35725W        W36589   5.241  11.464   3.170  0.0530 -0.0262  0.1618
35726W        W36590   8.238  14.296   0.183  0.1838  0.1408  0.1634
35727W        W36591   8.059  11.036   3.737 -0.1241 -0.1083  0.0866
35728W        W36592   6.736  15.976   4.089 -0.3099  0.1647 -0.0163
35729W        W36593   7.133  11.981   1.530 -0.0958 -0.0785 -0.2574
35730W        W36594   7.035  14.887   5.455  0.1787 -0.1476 -0.0450
35731W        W36595   5.353  15.876   2.626  0.0503 -0.1223 -0.2415
35732W        W36596   5.621  14.607   0.180  0.1845  0.2110 -0.1431
35733W        W36597   6.397   9.714   1.233 -0.0173  0.0155 -0.4641
35734W        W36598   8.151  11.795   1.188  0.0153  0.1000  0.0629
35735W        W36599   5.876  14.252   0.545  0.0395 -0.0278 -0.0853
35736W        W36600   6.307  14.514   0.725  0.0289  0.0208 -0.1790
35737W        W36601   5.366  10.399   1.637  0.3050  0.1025 -0.0852
35738W        W36602   5.034  14.055   0.592 -0.2480 -0.0916 -0.2049
35739W        W36603   6.634  14.853   1.612  0.1456 -0.3362  0.3050
35740W        W36604   5.322  16.733   4.360 -0.0452  0.0366 -0.1084
35741W        W36605   1.005  13.176  28.264  0.0704  0.0383 -0.1037
35742W        W36606   1.711  11.036   3.272 -0.2379 -0.2561  0.0284
35743W        W36607   5.889  15.978   1.410  0.0747 -0.1885 -0.1565
35744W        W36608   4.025  14.028   1.271 -0.0901 -0.2874 -0.0369
35745W        W36609   6.286  11.600   1.291  0.3098 -0.1903  0.0825
35746W        W36610   4.408  10.329  27.452 -0.1750 -0.2011  0.0356
35747W        W36611   9.598  13.867   0.959 -0.4050 -0.1511  0.0489
35748W        W36612   5.407  12.985   0.895  0.0809  0.0801 -0.1764
35749W        W36613   6.190  14.919   2.533 -0.1060  0.0312  0.1982
35750W        W36614   6.752  10.732  28.819  0.3016 -0.3989  0.2752
35751W        W36615   4.767  14.126   1.513 -0.0369 -0.2597 -0.1585
35752W        W36616   4.805  10.610   2.211  0.1987  0.0381  0.5471
35753W        W36617   2.878  10.649   6.377 -0.0273 -0.0659 -0.0790
35754W        W36618   5.674  14.918   1.475 -0.2856  0.2563 -0.2366
35755W        W36619   6.220  15.633  27.794 -0.2802 -0.3528 -0.2962
35756W        W36620   5.416  13.727   1.861  0.2085 -0.0560 -0.0959
35757W        W36621   6.548  12.702   2.871  0.0755 -0.2646 -0.2965
35758W        W36622   6.740   9.735   0.847 -0.1464  0.2704  0.1182
35759W        W36623   6.572  15.066  29.077  0.2421  0.1140  0.0159
35760W        W36624   7.502  15.007   2.900 -0.1305 -0.0561 -0.0335
35761W        W36625   5.828  11.753   0.607  0.0978  0.2098  0.2108
35762W        W36626   4.484  13.728   1.435  0.1477 -0.2049  0.3656
35763W        W36627   3.641  10.916   0.791  0.0705 -0.1906  0.1522
35764W        W36628   6.123  11.345  26.838 -0.2267  0.3550 -0.0025
35765W        W36629   4.683  14.726   1.557  0.2507  0.2569 -0.1639
35766W        W36630   6.627  13.046   0.160  0.2514 -0.2701 -0.1193
35767W        W36631   4.166  14.808   1.560  0.2857 -0.0812 -0.1570
35768W        W36632   5.647  14.768   1.968  0.1651  0.1546  0.2939
35769W        W36633   4.431  16.128  29.017  0.0236  0.0881 -0.0265
35770W        W36634   5.241  11.821   4.472  0.0711 -0.1227 -0.4638
35771W        W36635   5.814  10.918   0.002 -0.0205 -0.3352  0.1253
35772W        W36636   8.744  15.633   2.764  0.0857  0.1330 -0.1478
35773W        W36637   7.034  12.823   4.261 -0.0589 -0.0304 -0.0269
35774W        W36638   4.478  12.365   1.776 -0.0694 -0.0731  0.0971
35775W        W36639   6.372  11.698  28.913 -0.0288  0.0366  0.1609
35776W        W36640   6.728  15.588  27.755 -0.1865  0.1022 -0.1951
35777W        W36641   4.312  13.430   2.170  0.1782  0.1429 -0.0391
35778W        W36642   8.943  13.100   5.068  0.2317 -0.0928  0.0929
35779W        W36643   4.974  16.231   2.723 -0.0768 -0.0631 -0.0966
35780W        W36644   6.612  11.151   2.145 -0.1004 -0.1058 -0.0045
35781W        W36645   5.197  16.339   2.193 -0.0224  0.1474 -0.2616
35782W        W36646   8.399  13.290   3.819 -0.0593 -0.1016 -0.0861
35783W        W36647   4.685  15.276   1.290  0.1797 -0.2255  0.0033
35784W        W36648   5.456  12.134   1.628  0.0481 -0.0751  0.1923
35785W        W36649   5.116  11.438   5.907 -0.1783 -0.0514 -0.1378
35786W        W36650   5.851  13.715   2.672  0.3997 -0.0779 -0.1414
35787W        W36651   9.721  13.712   0.261  0.0932 -0.1802  0.0288
35788W        W36652   6.401  16.220   0.701  0.1366 -0.1277 -0.2094
35789W        W36653   6.414  13.644   3.355  0.1922  0.1743  0.0165
35790W        W36654   5.368  10.623   3.570  0.0779 -0.2421 -0.1393
35791W        W36655   5.808  14.741   0.681  0.2607 -0.1568  0.1005
35792W        W36656   5.169  14.164   3.595 -0.0203  0.2271  0.2142
35793W        W36657   5.541  15.505   2.284 -0.0034  0.1492 -0.1416
35794W        W36658   4.392  13.750   0.949  0.3090  0.1772  0.0929
35795W        W36659   4.096  13.798   7.663 -0.0129  0.0312 -0.0165
35796W        W36660   0.208  10.720   4.117  0.1245 -0.2038 -0.1179
35797W        W36661   7.089  17.386   3.080  0.2372  0.1746 -0.0687
35798W        W36662   4.959  15.528   3.411 -0.0058 -0.2126 -0.1044
35799W        W36663   4.106  14.030   2.607  0.0820 -0.2416  0.1865
35800W        W36664   7.593  11.801   7.372  0.0830 -0.0553  0.3255
35801W        W36665   4.679   9.616   5.753 -0.1328  0.0901  0.2584
35802W        W36666   5.275  10.954   7.039  0.2325  0.1140 -0.2763
35803W        W36667   6.034  15.033   6.726 -0.1591 -0.5364 -0.2097
35804W        W36668   5.283  10.656   8.040 -0.0323  0.0305 -0.0536
35805W        W36669   4.387   8.100   5.013  0.1816 -0.0840 -0.0471
35806W        W36670   6.978   8.862   3.944  0.1134  0.2483  0.2930
35807W        W36671   5.820   9.115   3.437 -0.2183 -0.0591  0.4808
35808W        W36672   6.601  10.494   9.491  0.0140 -0.1692  0.1491
35809W        W36673   2.797  10.954   5.380 -0.0875 -0.2556  0.0052
35810W        W36674   4.740  12.718   7.458 -0.3196 -0.1347 -0.1998
35811W        W36675   5.844  12.684   4.320 -0.4034  0.1264 -0.0713
35812W        W36676   3.240  10.918   4.886 -0.0641 -0.0819  0.0441
35813W        W36677   4.710  12.760   8.257 -0.2482 -0.4067 -0.0273
35814W        W36678   8.572  12.397   7.998  0.3511  0.3286  0.1051
35815W        W36679   6.162  13.717   6.167 -0.1102  0.1314 -0.0092
35816W        W36680   5.786  12.367   7.096 -0.1633 -0.3602 -0.1519
35817W        W36681   5.572  11.929   6.193  0.1043 -0.1613  0.0096
35818W        W36682   3.641  11.856   6.454  0.0177 -0.0219  0.1599
35819W        W36683   4.619  11.529   5.889 -0.2811  0.1147 -0.1535
35820W        W36684   3.380  12.590   8.251  0.0104 -0.1115  0.1300
35821W        W36685   8.316  14.212   7.037  0.0578 -0.2029 -0.0852
35822W        W36686   4.049  12.338   5.193 -0.3536 -0.0812  0.4134
35823W        W36687   6.824  13.109   5.775 -0.2779 -0.2423  0.4372
35824W        W36688   6.268  12.691   7.376  0.1443  0.1352 -0.2021
35825W        W36689   8.119  13.701   4.580  0.1498 -0.2345 -0.0918
35826W        W36690   7.394  11.741   6.248  0.1766 -0.1082 -0.0005
35827W        W36691   7.748  10.048   9.588 -0.0178 -0.0978  0.1334
35828W        W36692   5.718  10.799   9.566  0.2163  0.0426 -0.0737
35829W        W36693   4.601  12.814   4.946 -0.2519  0.0409 -0.0489
35830W        W36694   3.463  12.701   6.840 -0.1946  0.1375  0.3375
35831W        W36695   1.744  10.121   4.260 -0.0310  0.2520  0.1824
35832W        W36696   5.728  14.453   2.529  0.1699  0.1649 -0.0919
35833W        W36697   7.248  13.790   8.154  0.1692  0.0410  0.3396
35834W        W36698   5.986   8.923   3.841 -0.0706  0.2416  0.0677
35835W        W36699   5.327   9.013   3.527 -0.2978  0.0756  0.4499
35836W        W36700   8.623  14.138   6.315  0.1479  0.2397  0.4702
35837W        W36701   3.625  12.132   8.220  0.2904 -0.0464 -0.0712
35838W        W36702   7.253  15.211   3.825  0.2027  0.0868  0.1163
35839W        W36703   5.005  14.832   5.337  0.0001  0.2458  0.1253
35840W        W36704   3.508  11.122   5.275  0.1523  0.0616 -0.0207
35841W        W36705   3.555  11.661   4.340 -0.1322 -0.0447 -0.0655
35842W        W36706   5.990  12.607   6.550 -0.0990  0.0177 -0.0128
35843W        W36707   8.464  11.562   7.324  0.1157  0.0474  0.3990
35844W        W36708   8.395  14.118   3.434  0.0254 -0.1974 -0.0415
35845W        W36709   6.736  13.193   6.794  0.3770  0.0202  0.0230
35846W        W36710   6.203   9.768   6.431 -0.0739  0.2603 -0.3117
35847W        W36711   3.172  15.446   5.661  0.2536 -0.0782  0.1780
35848W        W36712   6.892  13.351   5.082  0.0718 -0.0168 -0.0303
35849W        W36713   4.868   9.984   7.431 -0.0874  0.0418  0.0614
35850W        W36714   3.964  12.687   5.960 -0.0349  0.0402 -0.3501
35851W        W36715   3.116  10.526   5.170 -0.0525 -0.0927 -0.1746
35852W        W36716   6.654  12.571   3.402  0.2050  0.1853 -0.1431
35853W        W36717   4.521  13.086   6.472  0.0605  0.3315  0.2789
35854W        W36718   5.946  14.143   3.450  0.1846 -0.2798 -0.0026
35855W        W36719   8.570  11.928   3.903 -0.4141  0.0813  0.1978
35856W        W36720   3.014  12.237   7.144 -0.1390 -0.1094 -0.0862
35857W        W36721   3.075  11.329   5.030 -0.0400  0.1927  0.1238
35858W        W36722   5.789  12.892   6.128 -0.1621 -0.3530 -0.1009
35859W        W36723   3.687  13.796   6.138 -0.2683  0.3255  0.0760
35860W        W36724   6.270  10.910   4.077  0.2791 -0.2814 -0.1658
35861W        W36725   5.383  12.977   3.134 -0.0235 -0.1849  0.1505
35862W        W36726   3.767  11.391   3.934 -0.0631  0.2760 -0.1714
35863W        W36727   3.009  14.471   5.824 -0.1311  0.0631  0.6056
35864W        W36728   6.979  12.749   2.053  0.2656  0.0058  0.3058
35865W        W36729   7.291  13.907   5.906 -0.1289 -0.0334 -0.0723
35866W        W36730   7.479  14.485   5.438  0.2468 -0.2717 -0.0403
35867W        W36731   7.847  16.660   2.667  0.1345 -0.3148 -0.1269
35868W        W36732   8.957  11.546   9.714 -0.0881 -0.0451  0.2130
35869W        W36733   9.187  14.555   6.937  0.0922  0.1139  0.0134
35870W        W36734   7.656  13.663   6.686 -0.0367  0.1008 -0.1689
35871W        W36735   3.520  10.504   5.725 -0.1256  0.1072 -0.3449
35872W        W36736   4.673  14.972   7.018  0.1348  0.1131 -0.4948
35873W        W36737   8.301  11.379   6.340  0.0759 -0.3872 -0.4343
35874W        W36738   2.847  11.154   7.351  0.0721 -0.2355 -0.1041
35875W        W36739   4.535  12.040   6.010  0.0879 -0.2662 -0.0086
35876W        W36740   2.737   9.357   8.502 -0.0085  0.3332  0.3988
35877W        W36741   3.882  12.071   4.292  0.0598  0.0637  0.2598
35878W        W36742   4.120  13.325   4.568 -0.2344  0.0740 -0.4672
35879W        W36743   4.382  10.090   6.705  0.0062  0.0988  0.2558
35880W        W36744   4.504  13.107   3.258  0.1558 -0.0569 -0.0550
35881W        W36745   8.153  13.562   9.470  0.0215  0.0747  0.3205
35882W        W36746   7.017  12.308   6.630 -0.0133 -0.0029  0.2964
35883W        W36747   7.229  12.081   8.937  0.0022  0.1792 -0.1323
35884W        W36748   9.234  11.523   7.582  0.0550 -0.1600  0.3776
35885W        W36749   4.190  11.952   4.669 -0.0609  0.2492  0.0915
35886W        W36750   8.223  15.648   8.022 -0.2983  0.1235  0.3951
35887W        W36751   5.310  11.955   3.108 -0.1148 -0.0759 -0.2143
35888W        W36752   4.272  13.197   5.138 -0.0652 -0.0504 -0.2862
35889W        W36753   4.461   8.667   7.856 -0.1662  0.1759  0.4941
35890W        W36754   6.689  11.020   5.509  0.2168 -0.1848  0.0304
35891W        W36755   6.624  13.249   4.371 -0.0969  0.3729 -0.1707
35892W        W36756   5.607  13.366   8.436  0.1081 -0.1679  0.1568
35893W        W36757   4.048  11.818   2.365 -0.1483  0.0734 -0.0483
35894W        W36758   8.529  13.841   5.429 -0.1147 -0.1082  0.1417
35895W        W36759   6.511  13.711   0.220 -0.1094  0.0688 -0.2507
35896W        W36760   3.181   9.853   6.699 -0.1404 -0.3178  0.1903
35897W        W36761   5.751  11.731   4.559 -0.2252 -0.0590 -0.1768
35898W        W36762   5.972  10.833   4.540 -0.1290  0.0473  0.3394
35899W        W36763   6.527  12.087   4.354  0.2363 -0.0797 -0.2417
35900W        W36764   4.612  10.817   6.379 -0.4121  0.3302 -0.2385
35901W        W36765   4.649  14.172   4.883  0.0979  0.1403 -0.1176
35902W        W36766   7.171  13.589   5.461  0.3315  0.0453 -0.0120
35903W        W36767   9.345  12.193   8.745 -0.0238 -0.1095 -0.0012
35904W        W36768   4.996  10.221   5.054  0.0378 -0.0760 -0.0893
35905W        W36769   5.840  13.080   6.611 -0.0459 -0.1713 -0.0936
35906W        W36770   6.001  15.644   5.218  0.1682  0.0409  0.3353
35907W        W36771   5.922  14.625   7.045  0.0047  0.0427 -0.1319
35908W        W36772   6.131  14.046   6.947 -0.1325 -0.1640 -0.2648
35909W        W36773   8.468  14.310   3.864 -0.2179  0.3392  0.1456
35910W        W36774   4.773   9.107   5.829 -0.0074 -0.4258 -0.3454
35911W        W36775   6.909  11.138   7.497  0.0979  0.1571 -0.2043
35912W        W36776   3.933  13.515   6.453 -0.0662  0.2268 -0.1722
35913W        W36777   4.883  10.858   4.140 -0.0858  0.3009  0.1851
35914W        W36778   5.853  12.421   1.564 -0.1004  0.2084 -0.3153
35915W        W36779   8.270  10.715   5.098  0.1090 -0.0099  0.0552
35916W        W36780   6.647  14.471   2.246  0.1009 -0.0802 -0.2927
35917W        W36781   5.480  14.718   5.291 -0.0059  0.2445 -0.0046
35918W        W36782   5.320  14.130   5.982 -0.1088  0.1099  0.0618
35919W        W36783   6.294  14.172   5.169 -0.1795  0.0599  0.2746
35920W        W36784   9.397  10.263   5.581 -0.0410 -0.1076  0.3713
35921W        W36785   2.008  11.598   5.915  0.1601 -0.1172 -0.2777
35922W        W36786   4.717  11.847   6.417  0.1901  0.1143 -0.1121
35923W        W36787   6.712  13.914   5.133 -0.0443  0.1634 -0.5967
35924W        W36788   3.050  13.443   3.769  0.0998 -0.2938 -0.3450
35925W        W36789   5.251  14.702   7.898  0.0409  0.1223 -0.2822
35926W        W36790   5.285  13.599   6.028 -0.1518 -0.1620  0.0388
35927W        W36791   5.731  12.401   6.140 -0.0348 -0.2029  0.0805
35928W        W36792   7.251  12.938   6.024 -0.3217 -0.1328 -0.2627
35929W        W36793   6.010  12.381   5.357  0.0758  0.1880 -0.0052
35930W        W36794   2.666   9.824   6.789  0.1774 -0.0668  0.0878
35931W        W36795   8.043  12.644   6.245 -0.0055  0.1087 -0.1377
35932W        W36796   6.492  12.087   7.969 -0.1284 -0.1676 -0.2299
35933W        W36797   4.846  12.286   6.616 -0.3239 -0.2900 -0.0776
35934W        W36798   6.080  12.851   2.874 -0.1396 -0.3510 -0.1562
35935W        W36799   1.895  10.554   3.454 -0.2727  0.0738  0.2364
35936W        W36800   5.300  12.291   6.926  0.0045 -0.2313  0.1124
35937W        W36801   5.157  13.322   1.800 -0.0595 -0.0541  0.0224
35938W        W36802   5.808  12.402   3.855 -0.0359 -0.1977  0.2515
35939W        W36803   7.878   9.935   8.133 -0.2416  0.2254 -0.0246
35940W        W36804   7.926  11.570   4.317  0.0636 -0.0037  0.5347
35941W        W36805   8.427  13.128   5.352  0.1211  0.0619  0.1921
35942W        W36806   4.232  14.020   6.204 -0.2547 -0.1087  0.0435
35943W        W36807   5.087  17.701   5.379 -0.1240 -0.1136 -0.2332
35944W        W36808   3.943  12.488   6.941 -0.2370 -0.0389 -0.2116
35945W        W36809   6.581  13.571   7.022  0.0359  0.0463 -0.1807
35946W        W36810   5.146   9.495   3.683 -0.1333 -0.0644  0.3341
35947W        W36811   4.631  13.730   5.248 -0.1643 -0.1042 -0.0730
35948W        W36812   5.009   9.366   5.072 -0.0832 -0.1609  0.1658
35949W        W36813   3.966  12.206   7.594 -0.2017  0.1392  0.2836
35950W        W36814   4.701  13.933   3.775  0.3157 -0.3276 -0.2408
35951W        W36815   4.927  14.553   7.258  0.0984 -0.0756  0.0906
35952W        W36816   8.065  12.019   4.063 -0.0544  0.0561  0.1080
35953W        W36817   2.201  10.225   3.689  0.1988  0.0009 -0.1425
35954W        W36818   6.211  11.912   1.973  0.3863 -0.1007  0.1206
35955W        W36819   5.794  11.299   7.710 -0.1112  0.2237  0.1152
35956W        W36820   4.664  13.053   7.099  0.1536  0.0041  0.2202
35957W        W36821   6.878   9.133   6.992 -0.0207 -0.1417  0.0011
35958W        W36822   7.468  12.454   8.465 -0.1287  0.4803 -0.0526
35959W        W36823   5.873  12.686   7.609 -0.2289  0.0516 -0.1008
35960W        W36824   4.837  11.691   3.400 -0.2645 -0.1840 -0.0453
35961W        W36825   4.037  12.203   6.222 -0.0211  0.1387  0.0067
35962W        W36826   3.168  16.545   5.216  0.3415  0.3829 -0.1018
35963W        W36827   5.447  15.015   6.656 -0.0010 -0.1389  0.0279
35964W        W36828   4.309  11.128   3.026  0.0741 -0.1760  0.0056
35965W        W36829   3.512  12.211   6.093 -0.0470 -0.0033  0.2529
35966W        W36830   6.250  11.748   6.645  0.2479  0.4561  0.0439
35967W        W36831   4.181  10.898   5.960 -0.1566 -0.0203  0.1525
35968W        W36832   6.673  15.248   3.181 -0.0995  0.1098 -0.2694
35969W        W36833   6.855  10.892   4.906 -0.0394  0.2690 -0.2992
35970W        W36834   3.642   8.656   3.331 -0.2238  0.1307  0.0126
35971W        W36835   3.670  12.447   4.015  0.2964  0.0993 -0.2483
35972W        W36836   4.516  12.472   6.274  0.1810 -0.1418  0.2348
35973W        W36837   1.949  14.026   6.151  0.3141 -0.2387  0.0043
35974W        W36838   6.697  12.063   7.456  0.1660 -0.0063  0.2593
35975W        W36839   8.260  14.054   4.978 -0.1059  0.2618 -0.0241
35976W        W36840   7.446  14.689   3.436 -0.0582 -0.2114 -0.1394
35977W        W36841   4.928  12.254   4.229  0.3079 -0.2471 -0.1125
35978W        W36842   6.250  13.266   3.692  0.1724  0.1688 -0.1600
35979W        W36843   4.842  10.259   2.993  0.2044 -0.1244  0.1122
35980W        W36844   6.663  11.851   6.918 -0.0788  0.0442  0.0576
35981W        W36845   4.701  13.527   4.189  0.0318  0.1780  0.0804
35982W        W36846   3.630  11.681   6.032  0.1991 -0.0864  0.0089
35983W        W36847   2.021  11.126   5.301  0.1200 -0.0504 -0.0739
35984W        W36848   4.399  11.514   4.824 -0.1024  0.1312 -0.0060
35985W        W36849   4.350  14.282   3.339  0.0831  0.2485 -0.2241
35986W        W36850   3.571  13.364   2.468  0.1319 -0.0946  0.0335
35987W        W36851   3.937  14.497   9.664 -0.0168  0.0052  0.0201
35988W        W36852   8.894  11.762   9.292  0.0622 -0.0953 -0.0301
35989W        W36853   6.267  13.274   6.765  0.1094 -0.6227  0.1283
35990W        W36854   5.051  12.849   2.514  0.0488  0.1363  0.0998
35991W        W36855   5.435  11.371   4.739  0.2691 -0.1103  0.1990
35992W        W36856   5.940   8.036   7.666  0.0795 -0.2256 -0.0526
35993W        W36857   5.903  13.494   5.490  0.1290  0.1929 -0.5110
35994W        W36858   6.363  10.348   3.832 -0.1120 -0.3523 -0.1378
35995W        W36859   4.366  12.157   4.251 -0.1015 -0.3353 -0.1276
35996W        W36860   7.765  13.791   5.791  0.0575 -0.0329  0.0087
35997W        W36861   5.366  14.101   5.023 -0.0351  0.1105 -0.0835
35998W        W36862   4.306  11.238   3.965  0.0093 -0.1197  0.1059
35999W        W36863   4.225  11.387   9.259  0.0724  0.0357  0.2227
36000W        W36864   7.197  11.716   5.194  0.3857 -0.0239  0.1540
36001W        W36865   1.468  10.470   6.198  0.2469 -0.2900  0.1041
36002W        W36866   8.014  12.255   9.282 -0.1379 -0.2251  0.1567
36003W        W36867   6.497  14.733   5.248  0.0197 -0.0017 -0.2533
36004W        W36868   3.987  10.838   5.462  0.0134 -0.0284 -0.2734
36005W        W36869   5.902  12.876   7.094  0.2643 -0.3609 -0.0988
36006W        W36870   4.059  12.697   6.484 -0.0723 -0.2391 -0.2635
36007W        W36871   5.138  12.558   8.985  0.1461 -0.2448  0.1252
36008W        W36872   8.399  10.744   5.657  0.0589  0.0166 -0.0764
36009W        W36873   7.807  13.269   7.388 -0.0110  0.3683  0.0731
36010W        W36874   6.965  10.686   3.034  0.0140  0.1487 -0.1022
36011W        W36875   7.852  13.916   2.093 -0.0134  0.1028 -0.0269
36012W        W36876   6.344  12.129   5.082 -0.1761  0.1452 -0.0388
36013W        W36877   5.970  11.444   8.926 -0.3476 -0.1202  0.0990
36014W        W36878   8.483  12.418   5.040 -0.0781  0.3924  0.1506
36015W        W36879   9.619  10.818   6.180 -0.0053  0.1284  0.1837
36016W        W36880   4.908  14.344   6.806  0.4654 -0.0602 -0.3103
36017W        W36881   6.060  10.533   2.355 -0.0782 -0.0246 -0.0453
36018W        W36882   6.616  11.376   2.682 -0.0122 -0.1491 -0.2200
36019W        W36883   7.036  13.459   6.007 -0.4461 -0.0543 -0.0139
36020W        W36884   5.119  11.857   7.648  0.0330  0.2667  0.2588
36021W        W36885  11.039  10.842   4.319 -0.1716 -0.3365  0.2220
36022W        W36886   3.949  15.782   5.992 -0.3000  0.3077 -0.2523
36023W        W36887   7.838  14.329   7.331  0.1464 -0.0242 -0.0059
36024W        W36888   2.406   8.839   6.530 -0.0022  0.2217  0.6477
36025W        W36889   4.928  12.466   5.943  0.2920 -0.2119  0.1002
36026W        W36890   5.917  15.143   5.791 -0.0711 -0.0428 -0.0732
36027W        W36891   5.776  14.897   4.846  0.2686 -0.1448  0.0565
36028W        W36892   0.849  11.179   8.816  0.1135 -0.0289  0.0952
36029W        W36893   5.148  15.969   5.344  0.1885  0.0197 -0.0537
36030W        W36894   6.427  13.560   4.703  0.0288  0.2482 -0.0732
36031W        W36895   4.962   8.773   6.213 -0.3379  0.3173  0.0824
36032W        W36896   6.291  12.271   6.787  0.0650  0.3223  0.1403
36033W        W36897   7.075  18.247   4.093  0.2569 -0.2675 -0.2273
36034W        W36898   7.672  15.624   2.941 -0.2756  0.0452  0.2923
36035W        W36899   3.298  13.617   8.890 -0.1352  0.2439  0.0171
36036W        W36900   5.697  12.203   6.618 -0.3216 -0.0398  0.1514
36037W        W36901   5.377  10.390   5.331  0.2426 -0.0323 -0.2591
36038W        W36902   6.426  11.071   5.941  0.1068  0.0282  0.0668
36039W        W36903   5.661  13.201   1.751  0.2022 -0.0743 -0.0575
36040W        W36904   6.579  14.268   5.534 -0.1094 -0.0554  0.2891
36041W        W36905   4.579  14.427   9.188 -0.1461 -0.0033  0.1675
36042W        W36906   6.505  14.454   6.118  0.2355 -0.1461  0.1019
36043W        W36907   2.160  10.292   5.790  0.0406 -0.0352 -0.0422
36044W        W36908   3.434   9.610   5.286  0.1474  0.0295  0.0784
36045W        W36909   6.895  15.223   6.432 -0.2371 -0.1752 -0.3860
36046W        W36910   4.731  13.391   7.626  0.2257 -0.4845 -0.2230
36047W        W36911   6.836  14.230   6.486 -0.1840  0.1877  0.0810
36048W        W36912   4.818  12.113   3.769  0.1933 -0.1851 -0.3217
36049W        W36913   5.795  14.307   5.015  0.0016 -0.1352 -0.0951
36050W        W36914   7.327  11.335   4.431  0.5114 -0.0628  0.1634
36051W        W36915   6.365  11.625   8.645  0.1790  0.3071 -0.2208
36052W        W36916   7.225  14.971   6.725 -0.1839  0.0207  0.1169
36053W        W36917   6.866  12.306   5.213  0.0631 -0.0754 -0.1872
36054W        W36918   6.907  10.919   5.953 -0.1507 -0.2630 -0.1509
36055W        W36919   5.695  11.080   8.620 -0.0209  0.0505 -0.1598
36056W        W36920   4.771  14.759   5.811 -0.1212 -0.1632  0.0429
36057W        W36921   3.987  11.157   7.847 -0.2487  0.3301  0.1329
36058W        W36922   3.497  14.520   5.784 -0.2360 -0.0279 -0.1704
36059W        W36923   3.898  14.672   8.855  0.2643 -0.4927 -0.0291
36060W        W36924   5.348  12.789   1.934 -0.0041  0.0955  0.3048
36061W        W36925   5.333  16.252   4.923 -0.1171 -0.0695 -0.0513
36062W        W36926   4.818   9.026   7.649  0.1045 -0.0670  0.1680
36063W        W36927   8.432  11.642   4.271 -0.2009 -0.2022  0.2415
36064W        W36928   2.622  11.271   3.297 -0.0959  0.2886  0.1217
36065W        W36929   5.272  12.376   9.381  0.0994  0.0791 -0.2913
36066W        W36930   9.518  11.543   8.590  0.1577  0.4277 -0.0166
36067W        W36931   5.026  11.933   6.085 -0.0373  0.0236 -0.3483
36068W        W36932   5.221  14.109   7.098 -0.1097 -0.1329  0.0692
36069W        W36933   7.760  10.851   7.193  0.1880  0.1787 -0.1052
36070W        W36934   4.712  10.676   4.607  0.1250 -0.1995 -0.0496
36071W        W36935   6.165  10.500   6.066 -0.2923  0.1063  0.0443
36072W        W36936   6.721  13.015   3.808 -0.1269 -0.0157 -0.1021
36073W        W36937   3.508  13.191   6.715  0.0706  0.0127  0.0207
36074W        W36938   4.318  11.226   7.384 -0.2836  0.4578 -0.1387
36075W        W36939   6.185  11.067   2.427 -0.1850 -0.1177  0.4418
36076W        W36940   5.953  11.272   4.731 -0.2209  0.2426  0.1763
36077W        W36941   3.432  12.812   7.812  0.0545  0.0995 -0.0983
36078W        W36942   6.506  15.450   4.346 -0.1541  0.0727  0.0574
36079W        W36943   7.039  12.604   5.657  0.0463  0.0457  0.0724
36080W        W36944   6.246  15.443   2.840  0.2253 -0.2220  0.1541
36081W        W36945   4.145  11.753   5.865  0.0297 -0.0402  0.0062
36082W        W36946   6.947  11.444   4.781 -0.1496 -0.0679 -0.0390
36083W        W36947   7.449  15.036   6.283 -0.3474 -0.2424 -0.0077
36084W        W36948   6.533  14.052   2.566 -0.0304  0.0644 -0.0422
36085W        W36949   4.911   9.814   2.229 -0.1908  0.0106  0.0097
36086W        W36950   7.756  12.705  10.763 -0.1942 -0.1218 -0.0128
36087W        W36951   6.682  12.307   6.037 -0.1710 -0.3801 -0.2246
36088W        W36952   3.223  12.623   7.361  0.2109 -0.0466  0.1743
36089W        W36953   5.492  15.657   5.171 -0.0820 -0.0488  0.0551
36090W        W36954   3.349  10.381   6.925  0.2546 -0.1578  0.1596
36091W        W36955   8.278  13.884   8.120  0.1846  0.1833  0.0432
36092W        W36956   7.685  10.225   7.556 -0.1109 -0.1514 -0.1339
36093W        W36957   6.469  12.781   5.990 -0.3409 -0.1622  0.2121
36094W        W36958   2.273  11.967   3.941 -0.3350 -0.0086 -0.2266
36095W        W36959   4.764  11.154   7.685  0.3410 -0.3757 -0.0148
36096W        W36960   7.077  12.435   7.507 -0.1130  0.2761 -0.0056
36097W        W36961   7.825  10.675   4.902  0.0007  0.0987 -0.1563
36098W        W36962   5.011  14.308   4.023  0.1475 -0.0317  0.2620
36099W        W36963   5.513  13.668   7.275  0.1721 -0.0491 -0.0581
36100W        W36964   7.855  13.427   8.040  0.0797  0.1869 -0.3879
36101W        W36965   4.346  10.035   2.968  0.4232 -0.0877  0.0450
36102W        W36966   5.775  12.527   3.048  0.0266  0.0766 -0.3341
36103W        W36967   3.113  12.850   5.504  0.1592 -0.0329  0.2104
36104W        W36968   6.466  11.853   3.949  0.0193 -0.0247  0.1065
36105W        W36969   3.931  12.962   7.705 -0.0651 -0.2146  0.0615
36106W        W36970   7.385  11.142   5.633  0.2437  0.4506 -0.4159
36107W        W36971   6.289  14.615   6.626  0.2854 -0.1046  0.0874
36108W        W36972   4.826  10.794   8.032  0.3848 -0.1265 -0.0740
36109W        W36973   5.063  13.602   6.978  0.0353 -0.1652 -0.1809
36110W        W36974   4.873  12.783   6.325  0.0861  0.1970  0.0652
36111W        W36975   6.962  11.745   3.182 -0.0053  0.3125 -0.0961
36112W        W36976   5.096  11.776   3.978  0.0733 -0.0783 -0.1245
36113W        W36977   5.042  12.783   5.118  0.0234  0.0038 -0.1861
36114W        W36978   4.119  14.782   7.082 -0.0791 -0.1928  0.0894
36115W        W36979   6.202  15.731   4.689  0.0312 -0.0380  0.0054
36116W        W36980   4.868  14.461   8.348  0.0618 -0.1706  0.2403
36117W        W36981   6.593  11.043   6.403  0.1088 -0.0663 -0.1042
36118W        W36982   3.854  10.655   2.328  0.4348  0.0901 -0.0303
36119W        W36983   4.290  10.288   7.693 -0.3862  0.1012  0.1974
36120W        W36984   4.048  12.435   4.680 -0.0159 -0.0312  0.0845
36121W        W36985   5.646  15.274   7.183 -0.1204 -0.1552 -0.1518
36122W        W36986   5.977  12.827   5.014  0.0317  0.0404  0.0840
36123W        W36987   4.432  11.943   5.478 -0.1048 -0.0037  0.0272
36124W        W36988   6.054  12.428   8.059 -0.0633  0.2608  0.4527
36125W        W36989   7.086   9.045   4.435  0.1643  0.0994 -0.0361
36126W        W36990   9.641  11.276   7.699 -0.1729  0.4880  0.0658
36127W        W36991   3.892  12.914   9.446 -0.0602 -0.0507 -0.1534
36128W        W36992   9.710  11.538   6.771  0.0091 -0.0794 -0.3808
36129W        W36993   7.514  12.954   8.126 -0.0666 -0.2034 -0.0354
36130W        W36994   2.751  10.875   4.889  0.3145 -0.0379  0.1035
36131W        W36995   8.239  13.949   5.995  0.0539 -0.0071 -0.0697
36132W        W36996   3.334  11.489   6.664  0.0817  0.0425 -0.0126
36133W        W36997   6.262  11.499   3.637  0.0146 -0.5315  0.1642
36134W        W36998   4.231  12.821   4.497 -0.1468  0.2152  0.2489
36135W        W36999   5.710   9.603   9.868 -0.0358  0.1495  0.2330
36136W        W37000   5.757  10.461   5.655 -0.1124  0.0274  0.3304
36137W        W37001   3.551  16.082   3.670  0.0352  0.0137  0.3371
36138W        W37002   7.547  13.974   4.540 -0.1512  0.0587 -0.1651
36139W        W37003   4.352  14.718   7.989 -0.1122  0.0708 -0.0575
36140W        W37004   0.750  12.581   4.770  0.3034 -0.0857  0.1088
36141W        W37005   5.522  13.236   4.494  0.0914 -0.0352 -0.1480
36142W        W37006   3.111  11.397   6.164 -0.1724  0.1364  0.0002
36143W        W37007   2.215  10.714   5.008  0.0072 -0.0439  0.1150
36144W        W37008   7.950  10.804   6.305 -0.4277  0.0388 -0.2255
36145W        W37009   6.268  12.418   4.663 -0.2774 -0.0369  0.2944
36146W        W37010   8.271  14.444   5.989 -0.0219  0.0377  0.1737
36147W        W37011   8.091  14.659   7.000  0.0565 -0.2428 -0.1336
36148W        W37012   4.923  15.976   3.894  0.0886 -0.2207 -0.0140
36149W        W37013   6.233   9.459   2.674  0.1779  0.0219  0.0683
36150W        W37014   6.092  13.202   5.842 -0.1871  0.0052  0.0442
36151W        W37015   7.746  14.275   5.883 -0.0101  0.0076 -0.4010
36152W        W37016   1.885   8.560   7.439  0.0731 -0.3372  0.1981
36153W        W37017   6.585  11.542   7.304  0.1152  0.1370  0.1084
36154W        W37018   6.498  12.668   4.316  0.0417 -0.4358 -0.0281
36155W        W37019   6.516  12.501   8.335 -0.2349 -0.1139 -0.0205
36156W        W37020   4.411  14.385   6.935 -0.4047  0.1733 -0.0062
36157W        W37021   7.451  11.451   3.299  0.2479 -0.3224  0.0719
36158W        W37022   4.472  12.906   5.982  0.2393 -0.1556  0.0597
36159W        W37023   5.385  13.073   6.409 -0.0814  0.3239  0.0608
36160W        W37024   6.871  11.803   6.137  0.1579  0.0184 -0.2142
36161W        W37025   4.455  13.801   5.752 -0.3269 -0.0545 -0.0380
36162W        W37026   8.732  11.451   3.860  0.1053 -0.2668 -0.0651
36163W        W37027   7.089  10.389   5.640 -0.2375 -0.0514  0.3232
36164W        W37028   6.190  11.955   7.144  0.0903 -0.0098  0.2874
36165W        W37029   8.302  12.879   2.573 -0.1148 -0.1648  0.0174
36166W        W37030   6.586  11.365   3.962 -0.1181 -0.0237 -0.2383
36167W        W37031   7.090  12.852   6.652  0.1217 -0.1260  0.0577
36168W        W37032   7.682  13.485   4.508  0.0687  0.1112  0.2320
36169W        W37033   3.913  10.700   8.331  0.0096  0.1971  0.2252
36170W        W37034   3.327  11.777   4.756  0.0406  0.2897  0.0645
36171W        W37035   5.948  13.537   4.546 -0.0534  0.2218 -0.1196
36172W        W37036  10.662  10.953  10.562  0.0995  0.0094 -0.0999
36173W        W37037   0.710  12.751   7.336  0.0903  0.1906  0.0745
36174W        W37038   6.314  13.628   5.193  0.2935 -0.2902 -0.0466
36175W        W37039   2.027  12.914   4.322  0.0012 -0.0208  0.1670
36176W        W37040   2.687  12.044   6.748 -0.2043 -0.1142  0.2335
36177W        W37041   7.662  12.066   4.434  0.2737 -0.1234  0.1616
36178W        W37042   4.939  13.186   6.721  0.1528 -0.2394  0.0482
36179W        W37043   5.294  12.761   4.184 -0.1086 -0.0623 -0.0445
36180W        W37044   8.790  13.390   5.490 -0.1319 -0.5724 -0.0884
36181W        W37045   9.285  13.607   7.953  0.1732  0.0531 -0.0276
36182W        W37046   5.358  11.412   6.792  0.1658  0.0347 -0.0783
36183W        W37047   6.236  13.396   2.916  0.0387  0.2998  0.0606
36184W        W37048   5.792  14.715   8.064 -0.3376  0.0282 -0.0405
36185W        W37049   2.326  12.448   5.466  0.2104  0.0586  0.1039
36186W        W37050   8.400  11.388   4.693  0.1771 -0.1753 -0.1497
36187W        W37051   6.893  14.341   5.077  0.0672 -0.1750  0.3074
36188W        W37052   1.228  11.439   7.447 -0.0081 -0.0238  0.1027
36189W        W37053   4.286  13.739   8.434  0.4209  0.7018  0.0790
36190W        W37054   7.039  15.056   4.486 -0.2253 -0.0384 -0.3880
36191W        W37055   3.729  15.326   8.454 -0.2769  0.1223 -0.0556
36192W        W37056   7.749  13.194   6.401 -0.0301  0.2616 -0.3206
36193W        W37057   3.680  12.288   6.596 -0.0125 -0.0973 -0.1513
36194W        W37058   2.646  14.660  11.793 -0.2671  0.1659  0.0046
36195W        W37059   5.119  11.728  11.841 -0.1497 -0.0900  0.0548
36196W        W37060   7.664  12.754   7.649 -0.1716 -0.3561 -0.1017
36197W        W37061   7.219  16.896  12.193 -0.1800  0.1545  0.0238
36198W        W37062   5.671  13.965   6.362 -0.0977 -0.3380  0.0486
36199W        W37063   5.257  12.341   7.460  0.1275 -0.0909  0.0340
36200W        W37064   4.315  12.372   8.448  0.0284 -0.1547 -0.2659
36201W        W37065   6.512  13.394   8.116 -0.1313  0.1768  0.3586
36202W        W37066   6.997  11.869   9.385 -0.0086 -0.0416  0.0977
36203W        W37067   1.752  10.837  10.931 -0.0070 -0.2561  0.0460
36204W        W37068   2.808  10.071   9.137  0.0747  0.2268  0.1546
36205W        W37069   6.908  10.817   7.085 -0.1361  0.1310 -0.1899
36206W        W37070   5.773  13.598   7.682  0.1165  0.0173  0.0181
36207W        W37071   8.529  11.551  11.347 -0.0221 -0.2297 -0.2269
36208W        W37072   2.519   8.705   9.849  0.0491 -0.1805  0.1709
36209W        W37073   5.455  14.488  10.561 -0.2336 -0.0241 -0.0887
36210W        W37074   4.274  12.205   9.348 -0.0870 -0.1179  0.0520
36211W        W37075   2.259  11.475   6.574 -0.0302  0.0197  0.0993
36212W        W37076   4.962  12.702  10.321 -0.1444  0.0131  0.4819
36213W        W37077   8.350  11.812   9.247  0.3317 -0.0157 -0.2385
36214W        W37078   7.329  12.651   8.898  0.5263 -0.0846  0.1458
36215W        W37079   8.401  10.141   7.282 -0.1747 -0.2571 -0.2597
36216W        W37080   6.855  13.206  10.988  0.2422 -0.5087 -0.0324
36217W        W37081   7.427  12.187  10.189 -0.1273 -0.0868 -0.0247
36218W        W37082   3.367  12.864   9.243  0.2695 -0.0374  0.0113
36219W        W37083   7.839  12.249  10.557 -0.3887  0.0762  0.3329
36220W        W37084   7.920  15.509   9.899  0.1664  0.3559  0.0433
36221W        W37085   4.302  12.025  11.512 -0.1518 -0.2301 -0.0103
36222W        W37086   6.070  16.450   8.051  0.0760  0.0654 -0.0350
36223W        W37087   6.936   9.983   7.911 -0.3072  0.0344 -0.1583
36224W        W37088   4.086  12.517   8.918  0.1387  0.0896  0.1409
36225W        W37089   7.792  14.633  11.397 -0.0116  0.0769 -0.0817
36226W        W37090   4.838  14.904  12.115 -0.0497  0.1959 -0.0393
36227W        W37091   5.752  13.081   9.888 -0.0178  0.2246  0.0101
36228W        W37092   3.444  10.746  12.064 -0.1270  0.1358 -0.1404
36229W        W37093   6.282  14.250  10.099 -0.1218  0.0414 -0.0481
36230W        W37094   5.413   8.605   6.157  0.0451  0.0984  0.1152
36231W        W37095   4.851  10.548  11.896  0.0635 -0.0304  0.0063
36232W        W37096   6.816  13.662  10.449  0.0656 -0.0537 -0.4089
36233W        W37097   8.522   9.240   8.096  0.3155 -0.1570 -0.1688
36234W        W37098   8.754  10.084   6.878 -0.1288  0.0652  0.0584
36235W        W37099   6.502  14.021  10.858 -0.0138  0.2833 -0.0232
36236W        W37100   6.098  13.671   9.480 -0.2144 -0.0878 -0.2578
36237W        W37101   5.786  15.477   6.721 -0.1533  0.2084  0.1995
36238W        W37102   2.009  16.548   9.339 -0.3279 -0.0413  0.1019
36239W        W37103   3.372  14.618   9.720  0.1647  0.0852 -0.1497
36240W        W37104   7.128  11.082   9.144  0.1353  0.1794 -0.0525
36241W        W37105   5.425  14.077  13.067  0.2145 -0.0266  0.0106
36242W        W37106   4.048  14.690  10.181  0.2807 -0.1394 -0.3344
36243W        W37107   7.055  11.399   9.548 -0.1382  0.0765 -0.0981
36244W        W37108   5.644  13.733  10.804 -0.1936 -0.2494 -0.0626
36245W        W37109   6.139  12.539  11.415 -0.0729  0.0327 -0.0583
36246W        W37110   8.350  11.511   8.308 -0.1166 -0.0114  0.0464
36247W        W37111   8.178  10.662   8.107 -0.0427 -0.1356 -0.1101
36248W        W37112   5.363  11.043   7.715 -0.1263  0.0040 -0.0797
36249W        W37113   4.857  14.134  10.593  0.0870  0.0233 -0.0191
36250W        W37114   3.716  10.046   6.693 -0.0641 -0.1052 -0.1327
36251W        W37115   8.098  10.551   7.346  0.1630 -0.1436  0.3320
36252W        W37116   4.526  15.909   8.536  0.0254  0.3189  0.2512
36253W        W37117   2.723  13.889   8.660  0.0027  0.0997  0.4621
36254W        W37118   8.132  13.596   7.627 -0.0972  0.2551  0.0163
36255W        W37119   6.427  12.689   9.366 -0.1505  0.1159  0.0077
36256W        W37120   4.229  15.862  10.642  0.1874  0.0077  0.2499
36257W        W37121   4.118  12.098   8.066  0.0090  0.0974  0.1406
36258W        W37122   5.693  11.714  12.105 -0.2361  0.3119 -0.0890
36259W        W37123   6.868  13.693  10.988  0.0096 -0.2128  0.1567
36260W        W37124   5.900  12.000   5.789 -0.2264  0.2474 -0.0609
36261W        W37125   3.629  13.931   7.160 -0.0514 -0.1805  0.1031
36262W        W37126   4.391  14.336  10.534  0.1147 -0.0824 -0.2900
36263W        W37127   3.296  13.951  10.059 -0.0184  0.0452  0.2578
36264W        W37128  10.577  12.325  12.367  0.2887  0.0777  0.1328
36265W        W37129   7.609  13.514   9.800  0.0029  0.0492 -0.0604
36266W        W37130   8.326  13.395   8.477 -0.4170  0.1109  0.0414
36267W        W37131   6.489  10.816  11.728 -0.1594 -0.2414  0.3763
36268W        W37132   6.814  13.235   9.055  0.1499  0.0680 -0.1582
36269W        W37133   8.623  13.074  10.685 -0.2727 -0.1615  0.2109
36270W        W37134   3.382  14.578   8.802  0.0259 -0.1815  0.0380
36271W        W37135   5.659  11.864  10.309  0.4607 -0.0588 -0.1385
36272W        W37136   4.957  14.821   6.633 -0.0461  0.1310 -0.1213
36273W        W37137   7.680   9.774   9.142  0.1272  0.1702 -0.0492
36274W        W37138   5.584  10.600  11.543 -0.1111  0.3187  0.0189
36275W        W37139   4.635  11.104  10.616  0.1993 -0.0476  0.1845
36276W        W37140   5.259   9.178   6.082  0.1161 -0.0985 -0.1618
36277W        W37141   7.203  10.538   6.122 -0.1766  0.2533 -0.0656
36278W        W37142   6.215  11.192   9.797 -0.0017 -0.2121 -0.0499
36279W        W37143   7.930  10.661   6.780  0.0270  0.1607  0.0380
36280W        W37144   7.639  14.659  11.958  0.2104  0.0599 -0.1155
36281W        W37145   6.524  10.420  11.427  0.0352  0.2427  0.0257
36282W        W37146   6.037  15.207  11.179  0.3176 -0.1015  0.1931
36283W        W37147   8.243  12.980  10.120 -0.1488 -0.3194 -0.1695
36284W        W37148   7.110  10.518   9.251 -0.0340 -0.2501  0.0572
36285W        W37149   7.643  11.169   9.637  0.0895 -0.1988 -0.2001
36286W        W37150   7.208  16.249  11.325  0.0690  0.3064 -0.0902
36287W        W37151   8.005   9.437   9.424 -0.1857 -0.0970  0.1312
36288W        W37152   5.192  11.848   7.157  0.0834  0.2241 -0.1783
36289W        W37153   6.811  12.793   7.177 -0.1705 -0.0545 -0.0839
36290W        W37154   7.740  13.885   7.891 -0.0361  0.2683  0.1919
36291W        W37155   5.903  17.401  11.765  0.0533  0.3518 -0.0355
36292W        W37156   3.745  12.632   7.421 -0.0709  0.1003 -0.2588
36293W        W37157   9.401  11.946   9.562 -0.0502 -0.0471  0.0621
36294W        W37158   8.650  13.428   9.388 -0.1094  0.3687  0.1370
36295W        W37159   5.053  13.103   9.997 -0.2537  0.0665  0.0140
36296W        W37160   5.283  12.284   6.362  0.1447  0.1536  0.0392
36297W        W37161   7.803  13.764   7.271  0.1965  0.0220  0.1320
36298W        W37162   7.798  11.965  11.391  0.0916  0.0703  0.0363
36299W        W37163   6.772  11.462   9.155  0.0508 -0.1287  0.3451
36300W        W37164   4.850  12.370   7.155 -0.1005  0.0123  0.1548
36301W        W37165   7.081  14.854  10.391  0.4102 -0.2245  0.0177
36302W        W37166   5.687  11.098   9.153  0.4770 -0.0684  0.0045
36303W        W37167   2.622  10.911   8.954  0.0203  0.1863  0.1810
36304W        W37168   1.579  11.891   8.824  0.2144  0.1678  0.2336
36305W        W37169   7.363  13.497   7.117  0.0046 -0.0190 -0.0107
36306W        W37170   6.558  10.962   7.767 -0.0846  0.2052 -0.2610
36307W        W37171   6.853  15.311   9.839 -0.2801  0.0383 -0.2269
36308W        W37172   9.140  12.816   9.208  0.1081 -0.0932 -0.1271
36309W        W37173   4.348  14.940   9.026 -0.0324  0.1131  0.2349
36310W        W37174  10.167   8.847  10.616 -0.1066 -0.0341 -0.2882
36311W        W37175   7.143  12.878   9.945  0.0258 -0.1815  0.2103
36312W        W37176   5.977  11.825  10.838  0.0999  0.0378 -0.0002
36313W        W37177   9.102  11.089   9.706 -0.0550 -0.2928 -0.0087
36314W        W37178   8.001  14.730   7.533 -0.3703  0.1336  0.1898
36315W        W37179   9.037   9.816  10.094  0.1363 -0.1084 -0.2732
36316W        W37180   7.609  14.017  10.629  0.2969 -0.0878 -0.0398
36317W        W37181   7.093  12.261   9.837  0.5063  0.0937 -0.0588
36318W        W37182   6.563  14.460   9.687  0.0631 -0.0635  0.2726
36319W        W37183   5.688  10.113   7.131 -0.0348  0.4437 -0.1600
36320W        W37184   4.007  11.067   8.844 -0.2253 -0.0704  0.0064
36321W        W37185   6.139  14.780  10.007 -0.0504 -0.1093 -0.0576
36322W        W37186   5.401  14.272   9.262  0.2567  0.0640  0.1254
36323W        W37187   3.396  13.327   6.222 -0.0657  0.2496 -0.0805
36324W        W37188   7.716  15.096  11.555  0.0090  0.0777  0.2361
36325W        W37189   7.429  12.296   9.293 -0.1236  0.1773  0.2131
36326W        W37190   6.426  13.777   8.800  0.0438  0.0828 -0.2289
36327W        W37191   7.960   8.870   9.914  0.0982 -0.2684 -0.0916
36328W        W37192   8.219  16.404  10.382 -0.0043  0.0366  0.0126
36329W        W37193   2.312  11.420  11.848 -0.0984 -0.0773  0.0318
36330W        W37194   8.584  11.370   9.424  0.1140  0.3698 -0.1947
36331W        W37195   9.502   9.872   9.882  0.1246 -0.2136 -0.2244
36332W        W37196   7.406  13.200  11.387  0.1455 -0.1261 -0.4146
36333W        W37197   4.130  16.026   8.103  0.1332  0.1408  0.1577
36334W        W37198   2.449  11.467   7.480 -0.2808 -0.0053  0.2879
36335W        W37199   5.871   9.862  10.264  0.4449 -0.4552  0.2344
36336W        W37200   5.182  12.715   5.585  0.4965  0.0959 -0.2296
36337W        W37201   4.637  14.082  10.092 -0.1454  0.3828  0.1982
36338W        W37202   6.315  15.372  10.766  0.0485 -0.0084  0.1403
36339W        W37203   6.117  10.929   8.902  0.0506  0.0272 -0.0529
36340W        W37204   3.746  12.937   8.236  0.1465 -0.1650 -0.1601
36341W        W37205   5.474  16.399   8.048 -0.2545 -0.1876 -0.1232
36342W        W37206   6.566  15.698   8.766 -0.1439  0.0002 -0.2343
36343W        W37207   4.894  12.097   8.971  0.0765  0.1904  0.1542
36344W        W37208   6.666  13.648   9.394 -0.2826  0.0631  0.0377
36345W        W37209   3.624  13.125   7.269 -0.1577  0.1305 -0.0752
36346W        W37210   3.735  14.005   9.033  0.0147 -0.1749 -0.1242
36347W        W37211   2.724  13.124   8.039  0.0348  0.1016 -0.2600
36348W        W37212   7.264  11.852  11.172 -0.0666 -0.2271 -0.1181
36349W        W37213   9.614  10.723   8.866 -0.4702 -0.0986 -0.0069
36350W        W37214   3.046  13.024   8.901  0.4599 -0.1358  0.0085
36351W        W37215   7.009  13.148   8.161  0.0777  0.0183 -0.0883
36352W        W37216   5.371  11.490   7.965 -0.1987 -0.2479  0.0465
36353W        W37217   5.509  11.638   9.090  0.0653  0.0628  0.1241
36354W        W37218   6.789  13.946   9.965 -0.1822  0.0732  0.3224
36355W        W37219   6.033  12.885  10.592 -0.1356 -0.1500 -0.0989
36356W        W37220   6.405  12.203  10.564  0.3543  0.1201 -0.2561
36357W        W37221   6.428  14.465  12.037  0.0000  0.1608 -0.0856
36358W        W37222   6.323   9.440  11.456  0.0468  0.3302  0.1665
36359W        W37223   5.913  14.440  10.396 -0.0089  0.1679  0.0975
36360W        W37224   6.007  11.939   9.937  0.0051 -0.2540  0.0345
36361W        W37225   4.573  13.174  10.722  0.0458 -0.1186  0.1552
36362W        W37226   9.078  11.476   8.879 -0.1950 -0.0289  0.0930
36363W        W37227   4.506  14.894   8.551  0.2081  0.0426  0.1565
36364W        W37228   7.342   9.756   8.743  0.2140 -0.3163  0.3231
36365W        W37229   4.949  12.529   7.889 -0.0276 -0.0287  0.0423
36366W        W37230   4.434  13.505   8.853  0.0497  0.1415  0.2297
36367W        W37231   6.352  12.753   6.882  0.0317 -0.1271  0.1061
36368W        W37232   6.185  10.358   6.964  0.4810  0.1172 -0.0430
36369W        W37233   7.588  10.425   9.072 -0.0331 -0.1821 -0.0677
36370W        W37234   6.390  17.238  10.537  0.0038 -0.1952  0.0661
36371W        W37235   3.202  12.046   8.683  0.0925 -0.0719 -0.2519
36372W        W37236   4.121  14.286   7.733  0.0218  0.1685  0.4420
36373W        W37237   4.240  16.042   6.684  0.0556 -0.0686 -0.3045
36374W        W37238   7.417  10.868   6.846 -0.3876  0.1986 -0.1610
36375W        W37239   6.641  11.105   9.529  0.0940 -0.2573  0.1965
36376W        W37240   2.439  13.151   9.756  0.2716 -0.2944  0.1587
36377W        W37241   6.952  11.751   9.870  0.0549 -0.0374 -0.1126
36378W        W37242   9.035  10.455  11.246 -0.2678  0.0096  0.1236
36379W        W37243   6.546  12.387   5.580 -0.1661  0.1264  0.2700
36380W        W37244   4.007  10.434   5.859  0.1009 -0.2011  0.1229
36381W        W37245   6.895  12.346   8.630  0.3230  0.1328 -0.0054
36382W        W37246   7.797  11.540   8.356  0.0055 -0.3018  0.1111
36383W        W37247   6.054  13.198   7.697  0.0317  0.1172  0.0812
36384W        W37248   3.501  15.553   6.002 -0.2513 -0.2633  0.0391
36385W        W37249   4.121  13.097   9.841 -0.1711  0.3377  0.1785
36386W        W37250   6.879  10.740  11.449  0.2555  0.1726  0.3536
36387W        W37251   7.298  13.727  11.540  0.1559  0.2705 -0.0614
36388W        W37252   7.871  12.055   8.490 -0.0927 -0.0747  0.0687
36389W        W37253   7.094   8.907   8.782  0.0557 -0.2259  0.2010
36390W        W37254   3.857  13.618   9.809 -0.3104  0.1918 -0.0209
36391W        W37255   8.798   8.693  11.435 -0.1473 -0.0952  0.4038
36392W        W37256   9.572  12.738  10.392 -0.0807 -0.1259  0.2754
36393W        W37257   3.968   9.942   7.647  0.2659 -0.0184  0.0538
36394W        W37258   9.740  12.256  10.808 -0.2302 -0.1239 -0.0898
36395W        W37259   7.157  13.346   6.658 -0.1600  0.1413  0.0076
36396W        W37260   5.335  11.034   9.854  0.2551 -0.1684  0.1578
36397W        W37261   7.363  11.346  11.006 -0.2658  0.0368  0.1758
36398W        W37262   3.322  13.522   7.118 -0.3229  0.1202 -0.2100
36399W        W37263   5.681  11.993   9.431 -0.0638 -0.2504 -0.0452
36400W        W37264   7.460  11.731   9.443  0.1932 -0.0106  0.1286
36401W        W37265   1.805  13.735   6.991 -0.2348  0.0456 -0.3039
36402W        W37266   4.086  11.755   7.333  0.0427 -0.1013  0.0458
36403W        W37267   3.036  13.832  10.487  0.3694 -0.1371  0.3163
36404W        W37268   6.275  12.893   8.063  0.1002 -0.0487  0.2040
36405W        W37269   6.073  13.311   8.571  0.1514 -0.1520  0.1186
36406W        W37270   8.627  10.103   9.226 -0.2860 -0.1438  0.2170
36407W        W37271   9.596  13.104   9.452 -0.0847  0.2829  0.3063
36408W        W37272   7.345  10.876  10.697  0.2226 -0.1244 -0.1712
36409W        W37273   4.960  15.328  11.319 -0.0909 -0.2581 -0.2192
36410W        W37274   7.335  14.138   6.508 -0.0789 -0.0547  0.0885
36411W        W37275   4.618  14.710  13.065 -0.1296  0.1563 -0.0185
36412W        W37276   4.034  12.558  10.458 -0.0244  0.0463 -0.1538
36413W        W37277   6.007  13.413  11.013 -0.0344  0.1408  0.2108
36414W        W37278   7.367  14.255  11.361  0.0818  0.2197  0.1084
36415W        W37279   5.592  11.577  11.635 -0.2296  0.0382 -0.1782
36416W        W37280   8.779  11.474   7.929 -0.2896 -0.2242  0.1078
36417W        W37281   6.012  14.852   8.928 -0.0231 -0.1045  0.0547
36418W        W37282   7.560  11.245   8.715  0.2338  0.0031 -0.0676
36419W        W37283   6.542  15.164  10.174  0.2033  0.0600 -0.1185
36420W        W37284   7.770  11.707  10.930  0.0582 -0.1049 -0.2952
36421W        W37285   6.297  13.142   6.309  0.0896  0.0037  0.2697
36422W        W37286   6.704  15.503  10.453 -0.3539 -0.0307 -0.1609
36423W        W37287   5.805  11.447   8.167 -0.0102 -0.1683  0.0721
36424W        W37288   3.754  10.907  12.417  0.0849 -0.3141 -0.1368
36425W        W37289   7.280  13.151   8.863  0.0018 -0.1355 -0.3025
36426W        W37290   5.859  14.216   8.219  0.0516 -0.0165 -0.1547
36427W        W37291   5.098  10.520  10.180  0.1139  0.0997 -0.1352
36428W        W37292   6.196  11.164   8.504 -0.0437  0.0758  0.0476
36429W        W37293   9.817  11.973   8.560 -0.0395  0.0908 -0.0597
36430W        W37294   5.390  11.266  12.086 -0.0140 -0.4443  0.1305
36431W        W37295   7.281  14.150   9.148 -0.0260 -0.1778 -0.1192
36432W        W37296   5.764  15.538   9.467 -0.0002  0.2604  0.1445
36433W        W37297   6.964  13.547   7.800 -0.0141  0.0978 -0.0075
36434W        W37298   6.089  14.010  10.632  0.0192  0.0085 -0.0433
36435W        W37299   4.403  12.786   9.421 -0.1335  0.2061  0.1219
36436W        W37300   4.958  10.630   6.876 -0.2902  0.1326 -0.0645
36437W        W37301   6.859  14.380  11.726  0.0560  0.2937 -0.2443
36438W        W37302   2.836  14.513   7.868 -0.5853  0.1452  0.1023
36439W        W37303   8.568  12.020   8.441  0.0742 -0.1495  0.1603
36440W        W37304   4.282  11.809  10.972  0.0626 -0.2670 -0.2343
36441W        W37305   7.513  14.596   6.855  0.1156 -0.0630  0.0279
36442W        W37306   5.897  12.680   9.577 -0.1724  0.1189 -0.0272
36443W        W37307   6.198   8.152  10.926  0.3598  0.2729 -0.0297
36444W        W37308   7.296  11.567   8.994  0.2474  0.0260 -0.0063
36445W        W37309   8.422  14.801  13.408  0.0919 -0.0521  0.2457
36446W        W37310   6.645  12.292   9.072 -0.0671 -0.2635  0.0058
36447W        W37311   3.213  10.076   7.817 -0.1104 -0.1698  0.0952
36448W        W37312   7.994  13.553   6.169  0.2136  0.0132  0.2594
36449W        W37313   7.913  11.289   7.389 -0.0327  0.3141  0.0843
36450W        W37314   4.663  12.166   8.157 -0.0687  0.2301 -0.2787
36451W        W37315   6.873  14.436   8.945  0.0534  0.2030 -0.0271
36452W        W37316   9.380  14.172   9.715 -0.2612  0.1417  0.3406
36453W        W37317   5.136  11.899  10.376  0.1234  0.1612  0.1057
36454W        W37318   2.718  11.360   9.085 -0.0313  0.0455  0.0771
36455W        W37319   7.837  14.047  11.158 -0.4934  0.0250  0.2143
36456W        W37320   4.806  12.665  11.947 -0.0843  0.0897 -0.1862
36457W        W37321   5.573  12.836   8.751  0.0751 -0.0925 -0.1037
36458W        W37322   4.143  14.181  10.074  0.0013  0.2742 -0.0446
36459W        W37323   1.858  11.461   8.681  0.1146 -0.0769  0.1610
36460W        W37324   6.310   9.931   9.171  0.0932 -0.0022 -0.0394
36461W        W37325   5.278  11.080   8.362  0.3056  0.0276 -0.1347
36462W        W37326   9.835  10.364  10.675  0.1049 -0.1312 -0.1597
36463W        W37327  10.068  10.283  10.253 -0.1462 -0.2389  0.0088
36464W        W37328   6.317  14.096  12.639 -0.0480 -0.0139  0.0766
36465W        W37329   3.900  12.527   7.960 -0.6221  0.0222 -0.0394
36466W        W37330   6.116   9.802   7.448  0.1969 -0.1444  0.1402
36467W        W37331   5.646  16.835   9.109 -0.0612 -0.1909 -0.0485
36468W        W37332   7.787  11.204  10.777  0.1949  0.1849 -0.5201
36469W        W37333   6.703  10.832   9.129  0.1707  0.0596 -0.3705
36470W        W37334   4.830  13.687   9.759 -0.2602  0.2174  0.1897
36471W        W37335   6.744  12.420   4.016  0.1369  0.2946  0.0279
36472W        W37336   1.940  14.097  10.716 -0.1145  0.2220  0.1336
36473W        W37337   5.150  13.288   9.425  0.0681  0.1443 -0.2357
36474W        W37338   5.757  10.472   7.939  0.0009 -0.0809  0.2752
36475W        W37339   5.411  12.725   7.205  0.1024 -0.0576 -0.1178
36476W        W37340   5.458  12.873   9.256  0.0971  0.1889  0.2120
36477W        W37341   9.253   9.679   6.252  0.1415 -0.1895  0.3668
36478W        W37342   7.589   8.265  11.157 -0.2453 -0.0540 -0.2833
36479W        W37343   7.387  13.327   7.619  0.0203 -0.1153  0.1003
36480W        W37344   3.621  13.176  11.942  0.1703  0.0877  0.0573
36481W        W37345   6.892  11.462   6.546  0.0223 -0.3668 -0.1583
36482W        W37346   9.883  11.739   9.597 -0.1376  0.2818 -0.0106
36483W        W37347   7.995  12.283   5.701  0.0749 -0.3637  0.4932
36484W        W37348   9.257  12.417   6.583  0.1273  0.0534  0.0645
36485W        W37349   6.678  12.700   9.860  0.0202 -0.2303  0.2614
36486W        W37350   2.929  12.701   8.435 -0.1972  0.1057  0.0216
36487W        W37351   5.447  11.040  10.395  0.1746 -0.1121  0.1476
36488W        W37352   5.485  10.934   5.415 -0.3866  0.1152 -0.2174
36489W        W37353   5.977   8.397   7.015 -0.1946  0.4310  0.1438
36490W        W37354   8.075  14.944   9.126 -0.0824 -0.1179  0.1264
36491W        W37355   8.416  12.169  10.436  0.1015 -0.2486  0.0735
36492W        W37356   3.867  15.684  10.991  0.2580 -0.0600  0.0602
36493W        W37357   4.720  13.166   9.107 -0.0790  0.1669 -0.0010
36494W        W37358   6.210  11.749   8.181 -0.3354 -0.0411  0.0984
36495W        W37359   4.468  14.148   7.482  0.0285 -0.2682  0.0557
36496W        W37360   9.904  13.312   8.020  0.2350 -0.3196  0.0377
36497W        W37361   6.905  13.841   8.947  0.4845  0.1184 -0.3969
36498W        W37362   3.372  16.143   9.463 -0.1679 -0.0166  0.0193
36499W        W37363   9.298  11.524  13.032  0.0892 -0.1316 -0.0091
36500W        W37364   7.405  12.433   7.890  0.2253  0.0901  0.1781
36501W        W37365   6.452  13.294  11.272 -0.1902  0.2105  0.1290
36502W        W37366   2.905  12.520  10.355 -0.0333  0.2069  0.0439
36503W        W37367   6.326  10.239   6.455  0.1195 -0.2783 -0.2305
36504W        W37368   6.140  14.222   9.545 -0.1504  0.0983  0.0058
36505W        W37369   6.803  11.828   8.788  0.0216 -0.0687  0.2251
36506W        W37370   6.720  15.731  10.043  0.0160  0.3438 -0.2128
36507W        W37371   6.100  15.045  10.419  0.0686 -0.0309 -0.0222
36508W        W37372   5.302  13.542   9.847  0.0120 -0.0159 -0.1043
36509W        W37373   5.371  10.388   6.785 -0.0684 -0.1335 -0.1377
36510W        W37374   5.119  14.280  11.582 -0.0241  0.3717  0.1260
36511W        W37375   8.407  14.957  11.027 -0.3736 -0.0761 -0.2508
36512W        W37376   5.697  10.963   8.097  0.2977 -0.1503  0.0792
36513W        W37377   6.562  14.929   9.649  0.0015  0.1171 -0.1454
36514W        W37378   7.052  14.853   9.852  0.0411  0.1294 -0.0345
36515W        W37379   4.736  11.873  11.289 -0.0804  0.0280  0.2273
36516W        W37380   7.841  13.030  11.086  0.1429 -0.1920  0.0198
36517W        W37381   5.833  13.846   9.067 -0.0682  0.1673 -0.1658
36518W        W37382   4.775  14.395  11.920 -0.0389 -0.2790 -0.1539
36519W        W37383   7.203   9.372   7.373 -0.0205 -0.0600 -0.2312
36520W        W37384   3.238  12.282   9.231 -0.0538 -0.0898  0.1448
36521W        W37385   2.577  11.609   8.692  0.0267 -0.2069  0.0863
36522W        W37386   4.779  12.895   8.718  0.0985 -0.1628 -0.1608
36523W        W37387   8.563  12.295   9.369 -0.0472  0.0679  0.0915
36524W        W37388   9.948   9.552   6.384  0.3400 -0.1305  0.1201
36525W        W37389  10.083   8.724  11.779 -0.0016  0.1056 -0.2928
36526W        W37390   6.885  14.793   8.569  0.0923  0.0438  0.1813
36527W        W37391   9.860  16.024  10.782 -0.1560 -0.2928 -0.0580
36528W        W37392   7.419  12.671  11.504 -0.0309 -0.3778 -0.3520
36529W        W37393   5.218  13.358  11.570 -0.2637 -0.2602  0.2151
36530W        W37394   6.662  14.937   8.979 -0.0729 -0.5314  0.1416
36531W        W37395   7.528  14.688  10.067 -0.1533  0.1844 -0.2221
36532W        W37396   6.385  10.418   8.414  0.0973 -0.1840 -0.1040
36533W        W37397   4.978  13.072   7.972 -0.1049 -0.3816 -0.0964
36534W        W37398   6.307  11.316   9.224 -0.0351  0.0282  0.0941
36535W        W37399   6.612  12.573   7.730  0.2566  0.1149  0.1905
36536W        W37400   1.858  14.150   8.438 -0.1853  0.1849 -0.1854
36537W        W37401   7.567  11.940   8.029  0.0937 -0.0443  0.0730
36538W        W37402   5.782  14.787  10.779  0.1674 -0.2595  0.2091
36539W        W37403   1.207  11.184   9.523 -0.0175  0.1573  0.4746
36540W        W37404   1.808  11.159  11.515  0.1051  0.2386 -0.0446
36541W        W37405   5.276  13.749   8.588  0.1447 -0.1124  0.0683
36542W        W37406   1.381  11.239   8.686 -0.2690  0.3119  0.1767
36543W        W37407   7.088  14.327   9.927 -0.1654 -0.2410 -0.5871
36544W        W37408   5.920  13.465   8.084  0.0982 -0.4412 -0.1626
36545W        W37409   8.167  12.645   9.595  0.0439  0.0380  0.2130
36546W        W37410   5.230  12.964   8.382 -0.0772  0.0594  0.4437
36547W        W37411   5.575  15.175   9.210 -0.0322  0.0916  0.0813
36548W        W37412   7.197  10.485   6.838 -0.0131  0.2689 -0.0156
36549W        W37413   4.341  16.494  10.215 -0.0970  0.1676  0.4330
36550W        W37414   5.940  12.920   9.103  0.0351  0.0930  0.3177
36551W        W37415   6.015  12.272  12.420 -0.2025  0.0212 -0.2561
36552W        W37416   4.067  11.577   8.752  0.1569 -0.3219 -0.0935
36553W        W37417   5.320  11.449  10.140  0.0666 -0.1468 -0.0302
36554W        W37418   5.484  13.446  10.311 -0.1527 -0.0861  0.2554
36555W        W37419   7.095  10.577  12.399  0.0659  0.1184  0.0980
36556W        W37420   6.364   9.993   8.632  0.1367  0.2460 -0.4373
36557W        W37421   4.346  15.913   9.053  0.0373  0.0397 -0.0147
36558W        W37422   7.703  15.763   7.569  0.0117  0.0099 -0.2452
36559W        W37423   4.499  16.318   8.253  0.2369 -0.2309  0.1944
36560W        W37424   6.931  13.426   8.590  0.0572 -0.0891  0.2678
36561W        W37425   5.522  11.555   7.363 -0.1677 -0.4173 -0.2115
36562W        W37426   8.104  11.826   7.552 -0.2497 -0.1154  0.1530
36563W        W37427   5.634  11.892   8.323  0.0707 -0.1079  0.3308
36564W        W37428   9.320  11.112  10.583 -0.0914  0.1261 -0.1521
36565W        W37429   7.163  13.031  10.600  0.3222  0.2054 -0.0398
36566W        W37430   7.332  14.374  10.439  0.1481  0.0803  0.2101
36567W        W37431   7.616  13.045   6.942  0.2318  0.0813 -0.0112
36568W        W37432   6.490  11.788  10.105 -0.1366 -0.2326 -0.3066
36569W        W37433   9.003  11.646  11.522 -0.3194  0.2418  0.2133
36570W        W37434   5.366  14.638  11.204 -0.1338  0.0193  0.4250
36571W        W37435   4.467  13.334   8.284 -0.0340  0.1026  0.0234
36572W        W37436   5.461  10.171  10.252  0.1030 -0.0493  0.0070
36573W        W37437   7.756  12.704   9.244  0.1388 -0.0879  0.1083
36574W        W37438   1.970  11.814  10.602 -0.0052  0.0447  0.0943
36575W        W37439   4.755  12.280   9.399 -0.0527 -0.3107 -0.0114
36576W        W37440   7.842  13.624  10.842 -0.0164 -0.0668  0.1912
36577W        W37441   6.054  15.074   9.459  0.3260 -0.1327  0.0917
36578W        W37442   6.392  12.130  11.586  0.1118 -0.2235 -0.2832
36579W        W37443   9.036  16.748   8.740 -0.2160 -0.1668 -0.2637
36580W        W37444   5.899  13.009  11.579 -0.3370 -0.1726  0.1134
36581W        W37445   9.372  13.177   7.647  0.0860 -0.0978 -0.1458
36582W        W37446   7.440  13.367  11.848  0.0666  0.0418  0.2868
36583W        W37447   7.840  15.136  11.990  0.0936 -0.2978 -0.0381
36584W        W37448   8.316  11.444   7.817 -0.0720 -0.3000  0.4776
36585W        W37449   6.058  13.549  11.505  0.1727  0.1577  0.2359
36586W        W37450   4.208  15.700   9.553  0.1532 -0.0746  0.2808
36587W        W37451   3.738  14.829  11.282 -0.0116 -0.0590  0.1818
36588W        W37452   6.894  14.550  10.752  0.1783  0.2084 -0.0336
36589W        W37453   6.737  11.727   8.278  0.1691 -0.0019 -0.1210
36590W        W37454   5.247  14.584  12.083  0.0840  0.3005 -0.1174
36591W        W37455   4.348  13.574   9.752  0.1767 -0.1260 -0.0034
36592W        W37456   3.357   9.033   7.108 -0.1812  0.0312  0.2769
36593W        W37457   4.276  11.577  14.841  0.3359  0.0558 -0.0071
36594W        W37458   3.356  13.724  12.185 -0.2709 -0.0122  0.0666
36595W        W37459   9.525  12.358  11.245 -0.0532  0.0561  0.3147
36596W        W37460  10.780  12.285  13.966  0.0761 -0.2639 -0.0409
36597W        W37461   6.092  15.614   8.580  0.1468 -0.0475 -0.0605
36598W        W37462   6.200   9.174  12.375 -0.0272 -0.0281  0.1707
36599W        W37463   3.675  10.543  12.906  0.1018 -0.1991  0.0481
36600W        W37464   4.757  14.707  10.259  0.2570 -0.0458 -0.4721
36601W        W37465   6.670  15.031  10.646 -0.0024  0.1490  0.1247
36602W        W37466   6.315  10.795  13.913  0.1969  0.0438 -0.0771
36603W        W37467   7.701   9.686  11.383 -0.1123  0.2551 -0.0881
36604W        W37468   5.089  11.642  15.976 -0.0549  0.1108  0.2017
36605W        W37469   6.130  12.625  11.958  0.0289  0.1048 -0.0265
36606W        W37470   6.429  10.386  15.119  0.0951  0.1850  0.0756
36607W        W37471   3.744  10.289  14.273  0.1104  0.1245 -0.0548
36608W        W37472   2.919  14.814  15.420 -0.1531  0.1268  0.2796
36609W        W37473   4.816  14.545  12.587  0.1510  0.0274  0.1954
36610W        W37474   3.447  12.140  13.073 -0.2118 -0.2560  0.1135
36611W        W37475   5.441  10.868  13.763 -0.3408 -0.1819 -0.4304
36612W        W37476   8.113  11.434  11.187  0.2820 -0.0417  0.0049
36613W        W37477   9.405  15.378  12.495  0.0149  0.1935  0.2868
36614W        W37478   5.206  11.759  13.753 -0.0235  0.1545 -0.3130
36615W        W37479   6.859  16.018  13.414  0.1563  0.3769  0.0967
36616W        W37480   6.219  12.843  14.091  0.0819  0.0005  0.0321
36617W        W37481   5.919  10.830  13.487  0.0624 -0.1332 -0.1886
36618W        W37482   4.554  13.293  13.715  0.0865  0.0108  0.2878
36619W        W37483   9.022   8.982  15.616 -0.0235  0.2476 -0.0714
36620W        W37484   5.214  12.925  13.733  0.2807 -0.0352  0.2634
36621W        W37485   5.016  13.730  12.894 -0.1832 -0.3162 -0.0382
36622W        W37486   7.260  14.141  11.838  0.1254 -0.0527  0.2724
36623W        W37487   7.434  13.297  13.121  0.2139 -0.0612  0.0238
36624W        W37488   6.459  12.552  14.754  0.2983  0.1675  0.0031
36625W        W37489   6.660  11.771  13.525  0.2606  0.0469  0.1734
36626W        W37490   4.604  15.435  12.276 -0.0671 -0.0913 -0.0582
36627W        W37491   4.186  11.626  16.015 -0.0327 -0.2357 -0.0757
36628W        W37492   6.401  13.846  14.142 -0.2540  0.0619 -0.1645
36629W        W37493   4.445  10.159  12.888 -0.0971  0.0413 -0.4450
36630W        W37494   4.536  13.906  15.499 -0.0365 -0.0724  0.1022
36631W        W37495   8.483  14.028  12.214 -0.1977  0.3356 -0.2768
36632W        W37496   5.051  11.160  16.070  0.0048 -0.1134  0.0437
36633W        W37497   8.143  13.342  11.456 -0.1929  0.0345  0.0175
36634W        W37498  11.801  12.212  13.566 -0.0675  0.0240  0.1090
36635W        W37499   7.377  16.376  15.229 -0.3161  0.1488 -0.2297
36636W        W37500   8.889  13.007  11.627  0.3001  0.2207 -0.1121
36637W        W37501   4.900  16.201  10.086 -0.2499  0.1955 -0.2028
36638W        W37502   7.077  15.641  11.329 -0.2487 -0.1876 -0.1683
36639W        W37503   2.049   9.318  10.858  0.1286 -0.1576  0.0901
36640W        W37504   5.188  12.997  15.560 -0.2271 -0.2455  0.1239
36641W        W37505   8.192  10.347  10.799 -0.1375 -0.1935  0.0094
36642W        W37506   7.545  15.821  11.327 -0.1732 -0.0871 -0.2981
36643W        W37507   7.703  12.573   7.136 -0.3773 -0.0927  0.2116
36644W        W37508   5.617  13.619  12.911  0.1747 -0.1720 -0.0248
36645W        W37509   7.327  12.499  12.012  0.3676 -0.1865 -0.1072
36646W        W37510   7.647  13.524  12.387  0.0841  0.1440  0.0297
36647W        W37511   6.607  12.491  11.266  0.1512 -0.1422  0.1242
36648W        W37512   5.399  15.105  11.181 -0.0691  0.0338  0.1981
36649W        W37513   2.247  11.953  12.524  0.1355 -0.1301 -0.3546
36650W        W37514   8.380  11.918  12.195  0.0508  0.1927 -0.0821
36651W        W37515   2.128  13.668  13.029  0.1587 -0.2238 -0.1716
36652W        W37516   4.186  15.233  10.946  0.4493  0.0313 -0.3583
36653W        W37517   7.461  15.464  10.498  0.2063 -0.1267  0.1861
36654W        W37518   3.654  13.342  13.088 -0.1245  0.1632 -0.2521
36655W        W37519   6.231  11.771  14.457 -0.0273  0.0318  0.3274
36656W        W37520   4.104  12.872  10.952  0.0354  0.1806  0.5403
36657W        W37521   5.770  10.056  12.082 -0.0420 -0.1051  0.0375
36658W        W37522   9.021  11.355  12.019  0.1625 -0.1268 -0.2854
36659W        W37523   3.494  11.451  11.613 -0.0553  0.1457 -0.2852
36660W        W37524   4.256  11.827  12.141 -0.1331 -0.1192  0.2700
36661W        W37525   4.168  13.581  10.216 -0.1409  0.1190  0.0689
36662W        W37526   6.554  13.782  11.375  0.1628 -0.0849  0.2245
36663W        W37527   7.544  11.540  12.402  0.0832  0.0096  0.2282
36664W        W37528   5.708  14.751  12.154  0.1373 -0.1490 -0.1180
36665W        W37529  10.263  13.820  11.414  0.2196 -0.1720  0.1187
36666W        W37530   4.783  10.582  12.970  0.1332 -0.1458  0.0699
36667W        W37531   8.423  14.549  12.297 -0.0549  0.2428 -0.1366
36668W        W37532   7.835  12.658  12.497 -0.0531  0.3799 -0.1935
36669W        W37533   3.902  11.980  11.251  0.1402 -0.0918  0.0584
36670W        W37534   5.582  14.729  11.629 -0.0205  0.1040  0.1201
36671W        W37535   6.687  11.456  12.437  0.1221  0.2064 -0.3272
36672W        W37536   5.261  15.611  10.626 -0.3186  0.1234  0.0507
36673W        W37537   5.098  11.256  12.536  0.0085 -0.2322 -0.1386
36674W        W37538   1.006  13.992  17.813  0.1329 -0.3202  0.4247
36675W        W37539   5.677   9.377  12.677 -0.0321  0.2765  0.0478
36676W        W37540   6.577  11.611   9.561 -0.0343  0.0347 -0.0162
36677W        W37541   4.893  11.668  13.311  0.0752 -0.2180 -0.0939
36678W        W37542   8.004  14.086  13.061 -0.1280 -0.0527  0.0957
36679W        W37543   7.588  12.880  13.977 -0.0232  0.1580  0.0176
36680W        W37544   7.031  12.702  13.970 -0.0275 -0.1086  0.2137
36681W        W37545   7.126  14.565  12.129 -0.1973 -0.1313  0.3048
36682W        W37546   6.960  12.362  12.343  0.0827  0.2928 -0.0277
36683W        W37547   6.982  12.525  13.159  0.1764 -0.2179  0.2032
36684W        W37548   5.700  12.595  14.246 -0.0559  0.1201  0.2224
36685W        W37549   3.068  12.783  12.618  0.4348  0.0419 -0.1243
36686W        W37550   7.991  12.734  12.053 -0.0254 -0.0340 -0.0686
36687W        W37551   4.098  11.824  13.256 -0.0426 -0.1091  0.1912
36688W        W37552   9.647  13.070  14.327  0.0726  0.1826 -0.1165
36689W        W37553   9.925  10.520  12.367  0.1538  0.0845  0.3776
36690W        W37554   5.353  13.854  12.552  0.0859  0.1879 -0.0190
36691W        W37555   5.323  11.981  11.435 -0.1205 -0.0502 -0.0991
36692W        W37556   9.708  12.415  13.302 -0.1453 -0.3476 -0.3623
36693W        W37557   8.091  16.510  12.028  0.0385 -0.1260 -0.2064
36694W        W37558   2.065  11.009  11.966 -0.0446  0.1341  0.2583
36695W        W37559   6.149  12.985  13.581  0.1000 -0.4078 -0.1610
36696W        W37560   7.612  13.784  13.228 -0.0137  0.1752  0.1601
36697W        W37561   9.621   9.981  11.006  0.0401  0.2241 -0.0824
36698W        W37562   6.489  12.243  13.504  0.0708 -0.0315 -0.1212
36699W        W37563   6.880  12.036  10.332 -0.0450  0.0230  0.2125
36700W        W37564   6.712  12.165  14.999  0.0144 -0.2849 -0.0904
36701W        W37565   6.672   9.881  11.908  0.0521  0.1829 -0.0180
36702W        W37566   4.792   8.527  12.336 -0.2031 -0.0969  0.2769
36703W        W37567   3.463  14.773  12.514 -0.1032  0.1440 -0.1559
36704W        W37568   8.956  13.331  12.050  0.0985  0.3732  0.0076
36705W        W37569   9.102  10.097  12.205 -0.2077  0.1131  0.1023
36706W        W37570   5.711  13.241  13.453  0.2479 -0.2942  0.0046
36707W        W37571   9.152  12.149  11.520  0.2773  0.2141 -0.1542
36708W        W37572   4.387  13.259  12.525  0.1407 -0.2072 -0.2144
36709W        W37573   8.328  12.549  13.576 -0.0130  0.0057 -0.2545
36710W        W37574   8.017  14.626  16.694  0.0641  0.0375 -0.2364
36711W        W37575   7.611  14.455  10.901  0.1123  0.0139 -0.2197
36712W        W37576   5.936  13.916  11.155  0.0384  0.0772 -0.3075
36713W        W37577   8.067  11.495  11.820  0.3231  0.1137 -0.0396
36714W        W37578   8.446  15.326  13.330  0.0541  0.2150  0.1118
36715W        W37579   6.005  14.869  13.124 -0.0248 -0.4149  0.0984
36716W        W37580   7.115  11.539  12.150  0.1805 -0.0884  0.0452
36717W        W37581   5.687  14.621  12.726  0.0028 -0.3290 -0.0934
36718W        W37582   5.636  12.228  11.145 -0.0584 -0.0537 -0.1433
36719W        W37583   5.644  11.942  13.036 -0.1905  0.3692  0.3686
36720W        W37584   6.900  13.840  12.635  0.0740 -0.0984  0.1950
36721W        W37585   8.481  13.556  12.199 -0.2613 -0.1054 -0.0817
36722W        W37586   6.260  17.230  10.015  0.0037  0.0449  0.0556
36723W        W37587   8.058  15.359  11.177 -0.0238  0.3300  0.0203
36724W        W37588   4.908  12.134  14.677  0.1714  0.0587 -0.4501
36725W        W37589   5.690  14.310  14.087  0.0883  0.3453 -0.1498
36726W        W37590   9.762  14.606  12.448 -0.0513  0.2015  0.2569
36727W        W37591   7.398  12.163  13.318 -0.2543 -0.0319 -0.2889
36728W        W37592   3.775   9.386  12.335  0.0604  0.0863 -0.3271
36729W        W37593   8.734  10.848  13.166  0.2229  0.0404  0.0208
36730W        W37594   7.711  12.278  12.891 -0.0842  0.0977 -0.1667
36731W        W37595   6.959  12.585   9.374  0.1341 -0.2662 -0.0649
36732W        W37596   5.777  13.954  10.225 -0.2579  0.0556 -0.0992
36733W        W37597   2.303  10.797  10.156 -0.1571 -0.0859 -0.0654
36734W        W37598   6.382  11.237  11.965 -0.1549  0.1664 -0.0671
36735W        W37599   4.121  17.331  11.865 -0.1216 -0.0824  0.1711
36736W        W37600   6.036  13.800  13.043  0.3092  0.1227 -0.0147
36737W        W37601   6.169  14.611  12.428 -0.1350 -0.1744 -0.0092
36738W        W37602   6.216   9.512  12.033  0.2481  0.0929 -0.1150
36739W        W37603   8.944  12.860  12.784  0.0169  0.0928  0.0136
36740W        W37604   6.082  15.433  12.291  0.0302 -0.2422 -0.1566
36741W        W37605  10.069  14.539  13.092 -0.0020  0.1095 -0.0104
36742W        W37606   3.992  13.256  11.552 -0.0871 -0.2199 -0.0783
36743W        W37607   7.058  15.162  11.481 -0.1219  0.2136 -0.2453
36744W        W37608   5.160  13.992  14.726  0.0158 -0.0665 -0.4205
36745W        W37609   5.618  15.283  12.335  0.0450  0.5729  0.0982
36746W        W37610   8.540  11.859   9.695 -0.0467 -0.2232 -0.1797
36747W        W37611   6.350  10.291  14.067  0.0580 -0.0699 -0.1251
36748W        W37612   8.833  11.347  13.223 -0.2106  0.0659  0.0229
36749W        W37613   2.816  13.222  15.061 -0.2615  0.1113 -0.1499
36750W        W37614   4.809  15.724  10.775 -0.0450 -0.0406 -0.2542
36751W        W37615   3.461  10.493   8.965 -0.0274 -0.3856 -0.0299
36752W        W37616   6.152  14.381  11.007 -0.3621  0.0958  0.2930
36753W        W37617   7.819  10.084  10.527  0.0924  0.1748  0.0731
36754W        W37618   4.309  15.458  11.805 -0.0878 -0.0059 -0.1819
36755W        W37619   7.164  11.057  15.042 -0.3609  0.0777 -0.0918
36756W        W37620   6.022  12.367  16.260  0.0557  0.0312  0.2215
36757W        W37621   7.886  11.124  14.472 -0.0452 -0.2254  0.0550
36758W        W37622   4.713  13.623  13.310  0.0206  0.1766 -0.0305
36759W        W37623   4.201   9.884  11.945 -0.1040  0.0422 -0.1205
36760W        W37624   4.291  12.300  13.045  0.3244  0.0112  0.0891
36761W        W37625   8.612  15.145  10.295  0.0496  0.0314  0.0767
36762W        W37626   3.953  14.657  12.217  0.2071  0.4660 -0.1340
36763W        W37627  10.531  14.952  11.273 -0.0196  0.0832 -0.0388
36764W        W37628   7.635  12.437  15.067 -0.3587  0.2202  0.2399
36765W        W37629   6.997  13.024  12.984  0.4546  0.0355 -0.0002
36766W        W37630   7.943  13.399  14.615 -0.3193  0.2825  0.1237
36767W        W37631   7.134   9.839  11.301  0.0381 -0.1773  0.0909
36768W        W37632   7.316  13.613  10.644 -0.4232 -0.0740  0.2356
36769W        W37633   3.384  15.951  14.380 -0.0876  0.2523 -0.1167
36770W        W37634   4.889  13.828  11.349 -0.1000 -0.0248 -0.1217
36771W        W37635   5.695  13.329   9.426 -0.1910  0.0566 -0.1607
36772W        W37636   3.305  10.865  12.590  0.0243 -0.0542 -0.1053
36773W        W37637   5.963  14.759  11.282 -0.4215  0.2639 -0.0984
36774W        W37638   7.849  16.696  11.028 -0.0821  0.2021 -0.2342
36775W        W37639   8.108  13.983  10.642 -0.3849  0.0906  0.0201
36776W        W37640   5.468  10.471  14.111  0.1327  0.0707  0.2190
36777W        W37641   8.339  12.420  11.963 -0.1594  0.1559 -0.2337
36778W        W37642   8.540  16.637  12.226 -0.0122  0.0850 -0.1544
36779W        W37643   8.549   9.608  10.099 -0.1371 -0.1995  0.0093
36780W        W37644   5.023   8.551   9.347 -0.1068  0.1926 -0.3867
36781W        W37645   5.638  13.676  12.216 -0.1388 -0.3142  0.1849
36782W        W37646   2.812  12.083  12.409  0.3683  0.2609  0.1607
36783W        W37647   4.147  13.369  10.650  0.0194 -0.0176 -0.1723
36784W        W37648   4.556  13.444  11.717 -0.3861 -0.0499  0.0310
36785W        W37649   5.248  16.499  16.440  0.2173  0.0033 -0.1103
36786W        W37650   6.815  10.531  12.934 -0.0462  0.1678  0.0895
36787W        W37651   6.426  13.619  12.779 -0.0966 -0.0099  0.1157
36788W        W37652   5.238   8.565  13.215  0.3375  0.1732  0.2613
36789W        W37653   5.220  13.252  12.625  0.2727  0.0661 -0.0647
36790W        W37654   3.957  10.943  13.252 -0.4361  0.1796  0.1538
36791W        W37655   4.854   9.365  10.258  0.0635  0.0885 -0.2433
36792W        W37656  11.492  11.796  12.798 -0.0042 -0.1188 -0.0744
36793W        W37657   6.337  12.917  10.975 -0.1317 -0.0375  0.0304
36794W        W37658   9.451  13.514  14.323  0.0089 -0.0548 -0.0487
36795W        W37659  10.871  13.054  10.558  0.1472 -0.1374 -0.1608
36796W        W37660   2.150  11.863  11.053 -0.0671  0.2941 -0.2315
36797W        W37661   5.882   9.932  14.833  0.1381 -0.3728  0.3320
36798W        W37662   6.853  12.053  10.811  0.3703 -0.1365  0.0804
36799W        W37663   5.285  14.344  12.623  0.0616  0.0162 -0.2222
36800W        W37664   6.298  10.811  11.211 -0.1417  0.3504 -0.1291
36801W        W37665   5.212  15.324  10.131  0.2939 -0.0740  0.1528
36802W        W37666   6.264  13.170  10.184 -0.3762 -0.1273 -0.0066
36803W        W37667   5.280  13.971  16.126 -0.1619 -0.1361  0.0033
36804W        W37668   3.349   8.338  13.433  0.1653 -0.0911  0.0020
36805W        W37669   4.515  12.802  12.850 -0.2371 -0.0216  0.0199
36806W        W37670   9.214  10.012  13.058 -0.0726  0.1293 -0.1832
36807W        W37671  10.537  10.923  13.547  0.0416 -0.2710  0.4233
36808W        W37672   9.713  11.351  13.182 -0.2387 -0.0401 -0.0654
36809W        W37673   5.828  12.791  11.120  0.0861 -0.2456  0.1078
36810W        W37674   9.204  16.177  12.565  0.1437 -0.2562  0.1467
36811W        W37675   6.154  13.499  17.639  0.0514  0.0983 -0.2938
36812W        W37676   6.576  15.321  16.259 -0.1522  0.1187  0.1738
36813W        W37677   9.790  10.487  15.939 -0.0278 -0.0444 -0.1525
36814W        W37678   8.512  12.969  13.740 -0.1516 -0.0261  0.0216
36815W        W37679   6.484  14.302  15.410  0.0165 -0.1325 -0.2162
36816W        W37680   5.732   9.355  11.088  0.0805 -0.0848 -0.1722
36817W        W37681   8.303  14.148  11.350 -0.0232  0.1080  0.0085
36818W        W37682   4.769  13.094  17.665  0.1977 -0.1037 -0.0590
36819W        W37683   5.436  13.706  14.243  0.0128  0.1305 -0.3118
36820W        W37684   6.009  12.301  13.349 -0.3339 -0.1326 -0.3201
36821W        W37685   6.700  14.299  14.250 -0.0293  0.0126 -0.0429
36822W        W37686   8.265  13.711  13.239  0.0519 -0.1180  0.0021
36823W        W37687   2.942   8.915  10.736  0.0919  0.0224 -0.2907
36824W        W37688   5.718  14.633  17.184 -0.0160  0.0183 -0.1098
36825W        W37689   7.245  12.756  13.530 -0.0558  0.1324  0.1891
36826W        W37690   6.397  14.958  11.493  0.1690  0.3146 -0.2903
36827W        W37691   2.947  12.026  11.806  0.2199 -0.1152 -0.0790
36828W        W37692   5.275  14.845  12.468  0.1380 -0.2904 -0.0336
36829W        W37693   9.987  15.565  12.501 -0.0344 -0.2484 -0.0569
36830W        W37694   3.752  11.874  12.298 -0.4428 -0.1598  0.0942
36831W        W37695   6.453  13.497  10.761  0.2204 -0.1556  0.2815
36832W        W37696   4.890  15.847  11.974 -0.2045 -0.0545  0.1046
36833W        W37697   7.455  12.686  10.342 -0.3205 -0.2242 -0.3381
36834W        W37698   6.036  12.501  13.792  0.0198  0.4046  0.0407
36835W        W37699   5.219  10.267  11.518  0.2573 -0.0134  0.1372
36836W        W37700   5.053   8.964  12.133  0.3983  0.1083  0.2950
36837W        W37701   6.941  15.402  11.927  0.1440 -0.3517 -0.0083
36838W        W37702   2.561  11.511  11.415  0.0108 -0.1011 -0.0122
36839W        W37703   5.318  12.899  11.208 -0.2317  0.0552 -0.0570
36840W        W37704   3.415  14.258  16.085  0.0620  0.1753  0.0458
36841W        W37705   7.654  15.689  14.329 -0.1204  0.0329  0.0860
36842W        W37706   2.921   9.610  12.083 -0.1675  0.1071 -0.1700
36843W        W37707   5.741  10.589  12.050  0.2803  0.0113  0.0486
36844W        W37708   4.687  13.270  12.918  0.0453  0.1768  0.1977
36845W        W37709   5.193  13.450  12.125 -0.1103  0.0871 -0.0574
36846W        W37710   6.901  12.892  11.339 -0.1018 -0.1990  0.0001
36847W        W37711   5.614  12.626  10.730  0.0990 -0.1303 -0.2949
36848W        W37712   9.224  15.060  13.504  0.1073 -0.2291  0.0203
36849W        W37713   6.817  14.142  12.156 -0.1142 -0.1064  0.0323
36850W        W37714   7.633   9.750  12.785 -0.0165  0.1780  0.1546
36851W        W37715   9.766   9.338  10.817 -0.0365  0.1213 -0.0906
36852W        W37716  10.597  11.913  13.132  0.2877  0.1479  0.2065
36853W        W37717   7.458  12.372  13.790 -0.3909  0.1670  0.1158
36854W        W37718   6.390  13.960  11.837  0.0515  0.3483 -0.0223
36855W        W37719   6.910  15.563  12.500  0.2755 -0.1894  0.1076
36856W        W37720   6.484  13.109  17.184  0.2650  0.0475 -0.0200
36857W        W37721   6.971  16.131  14.992  0.1610 -0.2834  0.0149
36858W        W37722   3.320  13.310  15.188 -0.2308 -0.0532 -0.1748
36859W        W37723   6.180  12.769   9.929 -0.2451  0.2652  0.0516
36860W        W37724   9.262  13.160  11.257 -0.1797 -0.2711 -0.1933
36861W        W37725   5.943  12.798  12.525  0.1161 -0.1498  0.0343
36862W        W37726   9.080  13.747  13.939  0.0632 -0.0521  0.1724
36863W        W37727   4.117  13.334  12.087 -0.1664 -0.2148  0.2458
36864W        W37728   5.967  15.010  11.774 -0.3646  0.0372 -0.1380
36865W        W37729   8.946  11.871  13.705  0.2323 -0.0086 -0.1959
36866W        W37730   4.841  13.819  13.844 -0.1961 -0.2500  0.1644
36867W        W37731   6.516  14.333  13.263  0.1429  0.1339  0.1255
36868W        W37732   5.255  11.367  14.608  0.4451 -0.1561  0.4985
36869W        W37733   6.816   9.853  12.445 -0.1126 -0.0281 -0.2448
36870W        W37734   4.502  13.894  12.803  0.1821 -0.1287 -0.1108
36871W        W37735   5.578  10.631  10.157  0.0516 -0.1982 -0.0737
36872W        W37736   3.082  14.920  14.925 -0.1329  0.0778 -0.1410
36873W        W37737   7.447  12.722  13.028 -0.0398  0.1306  0.1823
36874W        W37738   5.802  10.770  11.125  0.1402  0.1468  0.2309
36875W        W37739   4.596  12.484  11.513 -0.1071 -0.2592 -0.1305
36876W        W37740   6.265  13.130  14.518  0.2060 -0.0577  0.2930
36877W        W37741   9.536  12.799  12.223  0.1669  0.0134 -0.1573
36878W        W37742   6.835  11.084  14.309 -0.0335 -0.0170 -0.0359
36879W        W37743   8.371  13.720  12.715  0.0198  0.0500 -0.0307
36880W        W37744   5.633  13.006  13.042  0.0474 -0.2901 -0.0563
36881W        W37745   7.117  12.974  11.819  0.1501  0.1645  0.0217
36882W        W37746   8.926  13.232   9.764 -0.0301  0.0996  0.0883
36883W        W37747   5.652  14.223  10.872 -0.4625  0.0449  0.4000
36884W        W37748   5.907  12.236  10.455  0.2726 -0.1794 -0.1772
36885W        W37749   5.423  13.221  15.111 -0.1335  0.1442  0.1556
36886W        W37750   5.882  10.807  12.510 -0.0465 -0.3902 -0.1722
36887W        W37751   3.543  14.920  13.858 -0.0436 -0.0219  0.0008
36888W        W37752   6.156  11.808  13.358 -0.1117  0.1122  0.1592
36889W        W37753   4.622  11.425  15.236  0.0754 -0.1823  0.1831
36890W        W37754   9.251  14.520  13.381 -0.0061  0.0543  0.0322
36891W        W37755   9.423  10.883  12.417  0.0341  0.0328  0.2096
36892W        W37756   3.615  13.681  11.761  0.2448 -0.1298  0.1050
36893W        W37757  28.848  12.350  12.586 -0.2288  0.0420  0.2282
36894W        W37758   5.545  10.302  12.521 -0.3002  0.2116 -0.2673
36895W        W37759   4.912  12.364  15.119  0.2069 -0.0624  0.1526
36896W        W37760   7.229  13.243  12.624 -0.1903  0.1987  0.4845
36897W        W37761   8.483  16.021  13.882  0.1507 -0.3920 -0.1578
36898W        W37762   4.394  12.931  11.848 -0.0142 -0.1946  0.1936
36899W        W37763   7.280  13.641  13.571  0.2128  0.1381  0.2788
36900W        W37764   5.889   9.820  11.242  0.0305  0.2475 -0.2398
36901W        W37765  11.538   9.580  12.916 -0.3576 -0.1151  0.0858
36902W        W37766   4.890  12.113  11.719 -0.1295  0.1171 -0.3667
36903W        W37767   6.851  13.848  11.815 -0.1687  0.2409  0.3144
36904W        W37768   4.219  10.943  15.346  0.1123  0.2873  0.0063
36905W        W37769   9.707  10.297  13.151  0.3742 -0.0018 -0.0442
36906W        W37770   5.879  10.906  14.581  0.0773 -0.0221 -0.1575
36907W        W37771   2.543  14.093  13.880 -0.0287  0.1902  0.1427
36908W        W37772   5.080  16.040  13.462  0.0636  0.0659  0.0527
36909W        W37773   4.247  15.351  12.740 -0.0521  0.2099  0.1841
36910W        W37774   6.891  15.161  12.839  0.6088  0.1529  0.1175
36911W        W37775  10.227  14.074  12.885  0.0447  0.1957 -0.1385
36912W        W37776   4.834  13.528  12.493  0.0281  0.1098  0.3700
36913W        W37777   2.782  13.883  12.274  0.4314 -0.1403 -0.1681
36914W        W37778   5.658  13.403  11.771  0.1444  0.0736 -0.3096
36915W        W37779   4.432  11.480  13.470  0.2515 -0.0728  0.1444
36916W        W37780   6.882  15.986  10.596  0.2604 -0.3610 -0.0347
36917W        W37781   3.897  11.363  12.192 -0.3445 -0.2121 -0.3852
36918W        W37782   4.112  16.613  11.708 -0.1453  0.2516  0.1775
36919W        W37783   5.819  12.069  14.169 -0.5292  0.2502  0.3832
36920W        W37784   5.607  12.599  12.144  0.3415 -0.0226  0.2542
36921W        W37785   4.668  10.999  12.651  0.2825  0.0763 -0.0603
36922W        W37786   3.855  13.105  12.492  0.0549  0.1487  0.3003
36923W        W37787   5.408  14.453  14.599 -0.0050  0.0420 -0.0307
36924W        W37788   7.335  12.726  12.465  0.1506  0.2415  0.1446
36925W        W37789   5.744  15.201  16.405 -0.1540 -0.0882  0.0291
36926W        W37790   5.960  12.740  14.700 -0.0563 -0.1760  0.4202
36927W        W37791  11.272  10.521  13.945 -0.0011  0.0038 -0.0864
36928W        W37792   7.466  14.824  12.507  0.0512 -0.0779 -0.1102
36929W        W37793   5.362  11.534   8.513 -0.0549  0.2652  0.0237
36930W        W37794   6.671  15.192  14.453 -0.0714  0.1189 -0.0335
36931W        W37795   6.637  13.634  13.741  0.0182  0.2500  0.0806
36932W        W37796   5.493   9.029  12.376 -0.0327  0.0340 -0.0607
36933W        W37797   3.203  10.995  11.728 -0.2608  0.1560  0.0147
36934W        W37798   5.595   8.840  13.902  0.1194  0.0536  0.1639
36935W        W37799   4.798  11.119  11.740  0.0990 -0.0589  0.0211
36936W        W37800   3.364  15.311  12.610 -0.1603 -0.3399 -0.0366
36937W        W37801   8.676  13.283  11.225 -0.1658  0.2051  0.0919
36938W        W37802   5.121  15.309  12.739  0.1089 -0.2262 -0.1384
36939W        W37803   5.095  12.436  12.261 -0.1793  0.0469  0.0638
36940W        W37804   4.279  12.110  10.537  0.0084  0.4229  0.0002
36941W        W37805   4.200  12.232  12.424 -0.3379 -0.1218  0.2732
36942W        W37806   0.315  12.160  11.205  0.1253 -0.0046  0.2417
36943W        W37807   6.096  11.563  11.757 -0.1723  0.0575 -0.2852
36944W        W37808   9.102  13.180  10.539  0.0630 -0.1263  0.2384
36945W        W37809   5.558  15.968  11.673 -0.1239  0.0543 -0.0117
36946W        W37810   4.647  13.338  10.302 -0.2112 -0.1951  0.3075
36947W        W37811   7.846  13.511  12.839 -0.3116  0.0741  0.0753
36948W        W37812   7.716  11.925   9.064 -0.1000 -0.1375 -0.0265
36949W        W37813   4.498  15.252  11.394 -0.2765  0.0284 -0.0797
36950W        W37814   5.595  11.235  14.992  0.6043 -0.1058  0.1972
36951W        W37815   4.081  12.622  12.700 -0.2140 -0.1001  0.0466
36952W        W37816   4.624  10.485  13.888 -0.1143  0.1733 -0.0509
36953W        W37817   3.477  11.801  10.411 -0.0323 -0.1274 -0.0531
36954W        W37818   7.025  14.461  13.265  0.1766 -0.0291 -0.1201
36955W        W37819   4.494  14.195  13.399 -0.0723  0.0688 -0.0383
36956W        W37820   7.732  10.881   9.248  0.0369  0.2446  0.1389
36957W        W37821   3.225  14.283  12.322 -0.0315 -0.0922  0.1483
36958W        W37822   7.490  13.809  14.673 -0.0636  0.0572  0.1604
36959W        W37823   8.343  15.049  13.845  0.1624 -0.2016 -0.2882
36960W        W37824   4.647  15.726  11.518 -0.1108 -0.0054 -0.1370
36961W        W37825   5.350  13.867  11.794  0.1481 -0.0117 -0.3390
36962W        W37826   7.070  10.122  14.336  0.2123 -0.1689  0.2459
36963W        W37827   7.326  11.851  10.614  0.1813  0.5419 -0.1840
36964W        W37828   7.952  13.957   9.708  0.0209 -0.3011 -0.0547
36965W        W37829   5.395  15.055  10.654  0.1374 -0.0580 -0.0949
36966W        W37830   5.464  13.887  11.316 -0.1432  0.1490  0.0699
36967W        W37831   5.661  14.727  14.964 -0.2640  0.0073 -0.0478
36968W        W37832   5.776  13.058  12.129 -0.0303 -0.1811  0.0357
36969W        W37833   7.795  13.009  11.610 -0.2923 -0.1634 -0.1220
36970W        W37834   7.963  14.695  12.399 -0.0181  0.3257  0.1925
36971W        W37835   6.207   9.995  11.713  0.0073  0.2647  0.1728
36972W        W37836   4.107  12.826  13.769  0.0137 -0.0929 -0.0015
36973W        W37837   6.526  12.083  12.610 -0.1450 -0.1562 -0.1076
36974W        W37838   2.740  12.627  11.467 -0.4426 -0.2958  0.2675
36975W        W37839   5.678  14.893  10.184 -0.0307  0.2070  0.0555
36976W        W37840   6.040  13.288  13.086 -0.1115 -0.1953  0.1906
36977W        W37841   6.873  15.134  15.085 -0.1314 -0.0265 -0.1106
36978W        W37842   7.718  13.004  14.513 -0.1732  0.0520 -0.1179
36979W        W37843   8.243  13.726  11.121  0.2375  0.2103 -0.2200
36980W        W37844   4.901  13.996  12.425 -0.1580 -0.0613  0.0938
36981W        W37845   6.232  17.233  14.747  0.3995 -0.0827  0.2147
36982W        W37846   7.856  16.076  13.181 -0.1462 -0.0814 -0.3133
36983W        W37847   4.849  13.099  13.366 -0.3774 -0.0307 -0.0715
36984W        W37848   3.873  15.341  13.039  0.2300 -0.0619  0.1516
36985W        W37849   5.854  13.932  11.768 -0.0231 -0.0537  0.2456
36986W        W37850   8.740  14.518  10.889 -0.0862  0.0905 -0.3718
36987W        W37851   1.702  16.432  13.228  0.1977 -0.2258 -0.0277
36988W        W37852   5.947  15.632  13.503  0.2244  0.3304 -0.1682
36989W        W37853   6.878  14.756  11.307 -0.3109  0.0665  0.1122
36990W        W37854   7.553  13.116  13.568  0.0535  0.2118 -0.3303
36991W        W37855   4.352  10.809  11.761 -0.2184 -0.0069 -0.1149
36992W        W37856   3.355  10.316  13.296  0.0794  0.2415 -0.0429
36993W        W37857   0.503  13.884  17.977  0.0832  0.0031  0.0839
36994W        W37858   5.512  16.665  18.014 -0.0055 -0.0613  0.0418
36995W        W37859   6.183  13.371  15.372 -0.1917  0.0205  0.2155
36996W        W37860   7.835  15.019  17.706  0.1506  0.0637  0.0292
36997W        W37861   5.561  13.988  15.691 -0.3990 -0.2566  0.1879
36998W        W37862   6.755  12.473  16.656 -0.3377  0.2537  0.0698
36999W        W37863   7.357  13.499  16.159 -0.0483 -0.3689 -0.1657
37000W        W37864   6.775  14.492  18.145  0.0907  0.0425 -0.0188
37001W        W37865   3.332  14.673  16.988 -0.0898  0.0226 -0.1231
37002W        W37866   4.019  10.688  16.299 -0.1167 -0.4136  0.1487
37003W        W37867   3.817  13.494  17.339 -0.2247  0.1617 -0.2329
37004W        W37868   7.068   9.173  15.235 -0.1687 -0.1491 -0.1181
37005W        W37869   5.645  12.754  15.533 -0.0974 -0.2171  0.2315
37006W        W37870   6.728  10.141  17.245  0.0296 -0.0057  0.4025
37007W        W37871   5.704  13.625  17.152  0.0951  0.2181  0.2026
37008W        W37872   2.445  12.825  17.638  0.0755 -0.0870 -0.0683
37009W        W37873   7.610  14.271  14.388 -0.0928 -0.0662  0.3250
37010W        W37874   2.635  11.263  16.270  0.2481 -0.1363  0.2814
37011W        W37875   4.789  12.645  16.725 -0.0628 -0.1154  0.1992
37012W        W37876   6.827  11.422  17.277 -0.1275  0.2537  0.0694
37013W        W37877   7.992  10.411  17.127 -0.0673  0.0976 -0.2078
37014W        W37878   4.954  13.576  17.711  0.0587  0.3835 -0.1005
37015W        W37879   6.091  15.678  19.214 -0.0551  0.1488  0.2091
37016W        W37880   1.101  11.934  16.190  0.1998  0.0460 -0.0824
37017W        W37881   3.368  10.428  15.140  0.0480  0.0373 -0.1130
37018W        W37882   2.766  11.089  17.263 -0.1060  0.2095  0.2185
37019W        W37883   6.843  10.688  19.863 -0.1860  0.2617  0.1944
37020W        W37884   5.291  14.083  17.909  0.1670 -0.1638  0.0868
37021W        W37885   8.305  14.081  17.026 -0.0012 -0.3890  0.0715
37022W        W37886   5.543  13.511  17.739  0.0451  0.0682 -0.1371
37023W        W37887   3.781  14.414  16.486  0.0412 -0.2826  0.4112
37024W        W37888   7.125  12.767  15.867  0.2647  0.3373  0.0206
37025W        W37889   4.243  13.210  17.740  0.0547  0.2311 -0.0575
37026W        W37890   5.018  12.237  16.890 -0.2855 -0.0054 -0.0142
37027W        W37891   4.004  11.109  16.928 -0.0488 -0.2613 -0.2194
37028W        W37892   6.501  14.164  17.012  0.2531 -0.0389  0.2157
37029W        W37893   4.592  11.379  14.474  0.2231  0.1948 -0.0208
37030W        W37894   5.795  13.305  14.350 -0.0116 -0.1267 -0.1535
37031W        W37895   5.640  11.788  17.147 -0.1150 -0.3161 -0.0839
37032W        W37896   7.015  10.677  14.569 -0.0671  0.0792 -0.0824
37033W        W37897   7.268  10.666  13.396 -0.5004  0.0993  0.3521
37034W        W37898   8.946  12.718  16.979  0.1383 -0.1016  0.0118
37035W        W37899   4.275  17.057  16.795 -0.1069  0.0152 -0.0367
37036W        W37900   6.563  13.993  18.462  0.3271 -0.1034 -0.0835
37037W        W37901   1.655  14.624  14.792  0.2996  0.3074  0.1292
37038W        W37902   2.754  16.768  16.742  0.1475  0.0702 -0.1494
37039W        W37903   1.577  14.061  13.908 -0.1720 -0.0843 -0.1197
37040W        W37904   5.724  12.034  15.222  0.3904 -0.1249  0.0197
37041W        W37905   5.687  14.283  16.463 -0.3245  0.2257  0.2335
37042W        W37906   7.075  11.098  13.248  0.1439 -0.0407  0.0539
37043W        W37907   5.159  15.533  16.592  0.1869 -0.3096  0.3537
37044W        W37908   6.819  10.108  15.202  0.0102  0.1824  0.0811
37045W        W37909   8.077  15.796  17.898  0.0017  0.0907  0.2905
37046W        W37910   7.135  10.723  15.690 -0.0353 -0.1460  0.3508
37047W        W37911   5.039  10.441  12.425  0.0270 -0.1154  0.1049
37048W        W37912   4.647  15.748  16.671 -0.2061  0.3857 -0.0153
37049W        W37913   2.065  13.833  13.977  0.0577 -0.2504 -0.0644
37050W        W37914   6.676  11.888  16.699 -0.1399  0.1310  0.2259
37051W        W37915   0.331  16.456  15.423 -0.2629  0.1018 -0.0646
37052W        W37916   6.259  14.135  14.538 -0.0094 -0.2845 -0.1072
37053W        W37917   6.235  10.443  13.606  0.1473  0.2500  0.2062
37054W        W37918   4.556  16.387  19.784  0.4501 -0.2484 -0.2332
37055W        W37919   3.967  13.836  15.471 -0.0738 -0.0856  0.2321
37056W        W37920   5.353  13.487  15.596  0.1068 -0.1881  0.1559
37057W        W37921   4.329  13.092  16.777  0.0427  0.0489  0.1924
37058W        W37922   6.500   9.942  15.483  0.1094 -0.0647 -0.1061
37059W        W37923   4.118  12.859  15.469 -0.1125 -0.0477  0.2283
37060W        W37924   3.239  11.742  14.777 -0.1260  0.4149  0.1004
37061W        W37925   3.097  15.896  15.900  0.1919  0.0280 -0.1307
37062W        W37926   3.195  12.512  15.703 -0.2955  0.0076 -0.0833
37063W        W37927   6.009  14.725  18.115  0.2191 -0.0910 -0.1103
37064W        W37928   5.823  13.485  16.683  0.1345 -0.5105 -0.2726
37065W        W37929   7.882  15.299  16.732  0.0182  0.3026 -0.2314
37066W        W37930   4.210  11.662  17.543 -0.0268 -0.1650 -0.1287
37067W        W37931   7.684  12.132  14.198 -0.2087 -0.0297  0.0184
37068W        W37932   6.222  15.465  15.719  0.1010 -0.1717  0.4192
37069W        W37933   3.824  14.454  15.910  0.2582 -0.0984 -0.2877
37070W        W37934   6.659  14.154  17.770  0.1920 -0.0855  0.1442
37071W        W37935   4.173   9.030  17.070  0.1946 -0.3740  0.1510
37072W        W37936   6.929  13.553  14.938 -0.0201  0.1047 -0.0976
37073W        W37937   3.672  10.991  16.582  0.0588 -0.1910  0.3228
37074W        W37938   3.819  12.557  17.512 -0.0542  0.0506  0.4226
37075W        W37939   3.452  12.615  18.295  0.0823 -0.0037  0.0173
37076W        W37940   5.459  11.030  13.220 -0.0752  0.0285  0.0666
37077W        W37941   6.390   7.560  18.714  0.0577  0.3227  0.3011
37078W        W37942   5.864  11.083  14.121  0.0943 -0.2738 -0.0901
37079W        W37943   9.126  11.152  18.338 -0.2185 -0.0027  0.0471
37080W        W37944   4.196  10.971  18.897  0.1010 -0.4404  0.0192
37081W        W37945   8.198  12.543  16.253 -0.2365  0.0152 -0.1080
37082W        W37946   5.372  12.489  17.738  0.0456 -0.1408  0.3904
37083W        W37947   5.176  13.116  16.429 -0.0999 -0.1371 -0.0565
37084W        W37948   6.257  11.455  19.396  0.2598 -0.1983 -0.0172
37085W        W37949   3.945  15.831  16.356 -0.0698  0.1093 -0.3146
37086W        W37950   6.005  13.667  15.772 -0.2244  0.1621  0.2562
37087W        W37951   4.999  12.038  17.557 -0.3363 -0.2872 -0.4145
37088W        W37952   6.665  12.900  15.724 -0.1160  0.3278 -0.1073
37089W        W37953   7.912  10.181  15.571 -0.0495 -0.0282  0.0635
37090W        W37954   3.709  14.979  17.238 -0.1046  0.1426  0.0122
37091W        W37955   5.419   9.750  11.299 -0.1693  0.1509  0.0490
37092W        W37956   7.112   9.417  16.723 -0.1703 -0.3258  0.0778
37093W        W37957   6.062   9.820  15.692  0.2596 -0.0656 -0.0804
37094W        W37958   3.826  14.456  17.287  0.0812  0.0966 -0.3104
37095W        W37959   6.111  11.241  13.689 -0.1322 -0.2136 -0.2121
37096W        W37960   8.950  13.113  16.660  0.1571  0.1178 -0.3621
37097W        W37961   4.853  11.869  16.385  0.3424  0.1506  0.0862
37098W        W37962   5.205  13.553  18.263  0.2660  0.0211 -0.1042
37099W        W37963   3.554  15.609  16.057  0.0052 -0.1261 -0.1297
37100W        W37964   6.396  15.220  18.218  0.0331 -0.1348  0.0504
37101W        W37965   4.843  10.810  15.167 -0.2045  0.1427 -0.1600
37102W        W37966   3.508  12.193  15.949  0.0921 -0.0669 -0.2370
37103W        W37967   3.068  14.293  15.664 -0.2559 -0.2055 -0.1393
37104W        W37968   5.180  14.171  16.573 -0.0327 -0.0164 -0.4866
37105W        W37969   4.300  11.677  16.995  0.0902  0.0730  0.3074
37106W        W37970   5.426  16.003  17.149  0.0953  0.0328  0.1322
37107W        W37971   6.549  10.977  15.814  0.0386 -0.0536  0.3889
37108W        W37972   8.390  10.490  14.462 -0.1601  0.0424  0.0800
37109W        W37973   6.705  10.449  15.567  0.0815 -0.4703 -0.0113
37110W        W37974   3.114  14.490  17.973  0.0546  0.2582 -0.2452
37111W        W37975   4.568  12.036  17.302  0.3031  0.2892 -0.0748
37112W        W37976   5.975  11.112  16.960  0.1630  0.3352  0.0650
37113W        W37977   5.368  12.030  15.680  0.0123 -0.1485 -0.1629
37114W        W37978   6.960  14.758  14.170 -0.1687  0.0401  0.0935
37115W        W37979   6.732  16.159  18.180  0.3621 -0.3545 -0.0680
37116W        W37980   6.202  11.926  16.004  0.0644  0.0258 -0.1593
37117W        W37981   6.071  13.971  16.603 -0.1894 -0.0829  0.1455
37118W        W37982   5.455  11.821  14.777  0.2180  0.2579 -0.2066
37119W        W37983   4.900  11.151  17.582 -0.1471 -0.0139 -0.2172
37120W        W37984   4.503  12.165  16.742  0.2107 -0.0766  0.0737
37121W        W37985   6.638  11.725  16.068  0.0797 -0.0120  0.2558
37122W        W37986   3.687  16.130  17.567 -0.0527  0.2135 -0.1879
37123W        W37987   7.893  14.408  19.002 -0.3839 -0.1746  0.0755
37124W        W37988   4.814  13.898  18.177 -0.0721  0.3088 -0.1223
37125W        W37989   6.938  13.590  19.403  0.0615  0.0775 -0.0403
37126W        W37990   4.811  13.256  15.010  0.0442  0.1265 -0.2494
37127W        W37991   6.207  13.564  17.091 -0.1576 -0.0811 -0.2234
37128W        W37992   4.242  11.951  14.379 -0.1453  0.0799 -0.1534
37129W        W37993   7.070  10.731  18.770 -0.2197 -0.0346 -0.1149
37130W        W37994   6.183  10.471  18.815 -0.2277 -0.0119  0.0144
37131W        W37995   8.002  12.931  13.593  0.2933  0.1840 -0.1565
37132W        W37996   4.866  15.211  15.487 -0.2667  0.0561 -0.1195
37133W        W37997   5.874  10.221  13.831  0.4742  0.0753  0.1183
37134W        W37998   4.184  10.401  13.779 -0.2378  0.0858  0.1562
37135W        W37999   3.435  13.103  16.219 -0.2536  0.0521  0.1814
37136W        W38000   4.145  12.354  13.559 -0.1554  0.0147  0.2358
37137W        W38001   7.032  14.632  15.066  0.1425 -0.1119 -0.2274
37138W        W38002   5.682  12.481  12.995  0.1437  0.3250 -0.0511
37139W        W38003   6.364   9.934  12.299  0.0731  0.2759 -0.0641
37140W        W38004   6.121  15.215  16.117 -0.0963  0.3347 -0.2057
37141W        W38005   2.651  14.875  14.518  0.2157  0.2479 -0.0146
37142W        W38006   5.543  12.809  18.175  0.4028 -0.1184 -0.4179
37143W        W38007   5.319  15.092  16.770 -0.3585 -0.1316  0.0145
37144W        W38008   5.927  14.555  14.514 -0.1942 -0.1255  0.0410
37145W        W38009   4.003  14.414  15.341  0.0405  0.2048 -0.3993
37146W        W38010   3.415  12.049  13.891 -0.0237 -0.1463 -0.0321
37147W        W38011   3.943  13.325  18.497  0.0733  0.0030  0.1418
37148W        W38012   6.286  11.236  16.281 -0.0480 -0.0827 -0.0820
37149W        W38013   3.787  12.472  17.964  0.1214 -0.0118 -0.0160
37150W        W38014   5.807  13.902  16.129 -0.0808  0.0690  0.1126
37151W        W38015   4.297  13.772  13.685 -0.1660 -0.0444 -0.3968
37152W        W38016   3.101  11.266  16.089 -0.2526 -0.3855 -0.1135
37153W        W38017   6.224  12.204  18.132 -0.1233 -0.3216  0.2558
37154W        W38018   4.828  14.930  17.663 -0.3170  0.0491 -0.1539
37155W        W38019   4.755  13.969  18.700  0.2283 -0.0536  0.1969
37156W        W38020   6.460  15.612  17.442 -0.2507 -0.2730  0.1294
37157W        W38021   6.347   9.322  18.288  0.1056  0.0192  0.1514
37158W        W38022   3.855  12.060  17.664 -0.0371  0.2930 -0.1758
37159W        W38023   4.711   9.957  16.745  0.1050 -0.2415 -0.2177
37160W        W38024   4.735  14.238  15.823  0.3978 -0.1895  0.0416
37161W        W38025   6.269  16.952  21.887  0.1230  0.1067  0.3856
37162W        W38026   4.430  14.447  14.381 -0.0008  0.0036 -0.1688
37163W        W38027   7.889  14.227  15.368  0.1827  0.0799  0.1165
37164W        W38028   6.848  12.733  15.002 -0.1049  0.2772  0.0739
37165W        W38029   4.585  10.531  14.843  0.0594  0.4907 -0.1034
37166W        W38030   4.441  14.645  13.618  0.0861 -0.2025  0.2834
37167W        W38031   5.445  11.603  15.345  0.0574  0.0780  0.1428
37168W        W38032   7.959  10.034  13.565 -0.2453 -0.3638  0.3084
37169W        W38033   4.514  15.820  17.871 -0.1979  0.0500 -0.0856
37170W        W38034   6.936  15.096  17.054 -0.2588  0.0128 -0.0967
37171W        W38035   0.369  15.112  12.842 -0.1655 -0.3225 -0.1310
37172W        W38036   5.277  12.020  16.499  0.1032  0.0566  0.0587
37173W        W38037   4.025  14.401  18.058  0.0632 -0.1862  0.0216
37174W        W38038   6.444  16.254  13.674  0.4080  0.1807  0.1356
37175W        W38039   5.930  12.777  15.987  0.0717 -0.2736 -0.0550
37176W        W38040   5.656  10.239  16.904  0.0134 -0.0707 -0.1039
37177W        W38041   6.298  11.982  13.924 -0.0048  0.0362  0.0605
37178W        W38042   6.698  17.202  18.587 -0.2267  0.2061 -0.0625
37179W        W38043   7.400  11.110  14.348 -0.1533 -0.1874 -0.0103
37180W        W38044   3.063  12.917  14.290 -0.1281  0.1546 -0.0420
37181W        W38045   4.120  16.020  16.822 -0.2323  0.3835 -0.5274
37182W        W38046   3.953  17.327  17.140 -0.0784 -0.2381 -0.0233
37183W        W38047   6.512  14.536  17.378  0.2614 -0.0230 -0.1777
37184W        W38048   3.011  13.368  18.447 -0.0436  0.2311 -0.1508
37185W        W38049   6.691  13.256  15.323 -0.0052  0.1360 -0.2244
37186W        W38050   4.922  11.369  16.533  0.0016  0.2228 -0.2187
37187W        W38051   3.590  12.623  19.863  0.0849  0.0590 -0.0026
37188W        W38052   3.441  11.703  14.343 -0.3800  0.1153  0.1570
37189W        W38053   8.220  10.278  13.985 -0.3610 -0.2807 -0.0927
37190W        W38054   2.240  11.538  17.070 -0.0209 -0.0995 -0.1510
37191W        W38055   5.311  14.737  14.140  0.3815 -0.0789 -0.1880
37192W        W38056   3.674   8.481  14.457  0.1668 -0.0059  0.1230
37193W        W38057   5.979  13.104  17.245 -0.1176 -0.2706  0.2410
37194W        W38058   6.599  12.208  17.720  0.0385 -0.1634 -0.0669
37195W        W38059   3.810  10.398  15.507  0.3236 -0.0801 -0.0253
37196W        W38060   6.183  13.907  17.988  0.0455  0.3766 -0.2316
37197W        W38061   6.546  13.473  16.672  0.0430 -0.0137  0.1445
37198W        W38062   2.020  11.486  16.286  0.0277 -0.0522  0.2034
37199W        W38063   3.784  11.322  17.450  0.0405 -0.0310  0.3274
37200W        W38064   4.974  10.730  17.344  0.3468  0.0644  0.4090
37201W        W38065   6.665  13.081  13.875 -0.0269 -0.1204  0.0568
37202W        W38066   4.911  14.095  15.201 -0.0627  0.0244  0.3755
37203W        W38067  28.689  12.554  16.936 -0.1342 -0.0128  0.1789
37204W        W38068   5.649  13.880  18.268 -0.1091  0.0988  0.1448
37205W        W38069   4.406  13.569  17.197  0.2310 -0.4086 -0.1752
37206W        W38070   8.207  10.227  20.406  0.1854 -0.0468  0.0154
37207W        W38071   8.148  12.196  17.749  0.0404  0.0334  0.1968
37208W        W38072   5.587  10.115  15.634  0.3080  0.0995 -0.0151
37209W        W38073   4.162  10.946  12.752 -0.2078 -0.0942 -0.2079
37210W        W38074   7.434  15.466  11.686  0.3091  0.1341 -0.1623
37211W        W38075   6.341  13.076  16.309 -0.0920  0.1141 -0.0152
37212W        W38076   1.477  13.701  22.096 -0.2592 -0.0783  0.1194
37213W        W38077   9.281  10.667  19.108 -0.0209 -0.3739 -0.0087
37214W        W38078   6.517  13.227  13.253  0.1134 -0.5030 -0.0719
37215W        W38079   3.311  13.995  17.910 -0.1987 -0.2035 -0.1830
37216W        W38080   6.922   9.361  16.275 -0.2383  0.2330 -0.4219
37217W        W38081   6.403  14.665  12.911 -0.1548 -0.0621 -0.0934
37218W        W38082   6.493  12.670  18.031  0.2872  0.1923 -0.4025
37219W        W38083   5.312  14.231  17.440  0.1157  0.0131 -0.1686
37220W        W38084   6.305  13.242  15.847 -0.0345  0.1786 -0.0116
37221W        W38085   4.220  14.343  16.227  0.0086  0.0664  0.1531
37222W        W38086   6.130  14.333  16.252  0.0542 -0.2196 -0.1058
37223W        W38087   4.152  11.485  18.265 -0.2243 -0.0887 -0.2554
37224W        W38088   4.233  14.670  19.789  0.1131  0.1123 -0.0984
37225W        W38089   3.520  13.947  17.449  0.0007 -0.6212  0.0222
37226W        W38090   5.640  13.725  13.395 -0.1950  0.0813  0.2029
37227W        W38091   3.603  13.049  17.639  0.0404  0.3351  0.0461
37228W        W38092   6.417  15.235  15.216  0.0261 -0.1730 -0.0720
37229W        W38093   7.252  15.536  16.930  0.3528  0.0269 -0.1973
37230W        W38094   4.943   7.636  16.050 -0.3752 -0.0612 -0.1691
37231W        W38095   4.088  16.057  14.734  0.0832  0.0434  0.0690
37232W        W38096   7.021  11.913  15.302 -0.0011 -0.0410  0.0779
37233W        W38097   7.140  12.153  14.186  0.0834 -0.1854 -0.1579
37234W        W38098   2.790  13.503  17.131 -0.0966  0.3567  0.0409
37235W        W38099   4.951   9.623  18.396  0.1142  0.0131  0.0371
37236W        W38100   6.851  11.513  12.939  0.0889  0.0007  0.4533
37237W        W38101   6.481  11.795  17.265  0.1677  0.2509 -0.1579
37238W        W38102   5.952  12.484  15.144 -0.2696 -0.3089 -0.3271
37239W        W38103   4.727  16.032  16.079  0.0079 -0.0292  0.4138
37240W        W38104   6.564  14.029  18.994 -0.1133 -0.0525  0.2418
37241W        W38105   7.170  14.262  14.034 -0.2757 -0.1394  0.0609
37242W        W38106   2.518  11.591  18.530 -0.2171  0.2621 -0.0784
37243W        W38107   3.003  11.431  14.492  0.2087  0.3883  0.2631
37244W        W38108   3.565  17.648  16.317 -0.1609  0.1986  0.0058
37245W        W38109   6.597  16.528  16.954 -0.0301  0.1432  0.0013
37246W        W38110   5.087  15.559  19.366 -0.1336  0.0562 -0.1097
37247W        W38111   5.872  10.355  16.094 -0.2402 -0.1515  0.1653
37248W        W38112   7.954  12.499  14.523 -0.0631  0.0713  0.0679
37249W        W38113   4.576  13.043  15.723  0.0445 -0.0947  0.1216
37250W        W38114   4.659  14.533  16.215  0.0183  0.1898  0.1663
37251W        W38115   6.191  12.076  14.799  0.3061  0.2200 -0.0440
37252W        W38116   6.384  12.532  15.853 -0.0188 -0.0251 -0.0078
37253W        W38117   6.901  14.213  17.343  0.0968  0.1026 -0.1481
37254W        W38118   5.345  14.444  18.900  0.1911 -0.0177  0.2464
37255W        W38119   6.086  14.878  17.530 -0.1200 -0.3957 -0.0350
37256W        W38120   5.728  13.033  17.759 -0.0120  0.1560  0.0675
37257W        W38121   4.740  15.131  16.663  0.2094  0.1493  0.0677
37258W        W38122   5.442  10.830  15.943 -0.0563 -0.0436 -0.0374
37259W        W38123   3.375  12.599  16.163  0.0144  0.3713 -0.0167
37260W        W38124   5.774  10.676  15.585  0.1770 -0.4968 -0.1297
37261W        W38125   1.452  12.009  15.741 -0.2040 -0.1017  0.1912
37262W        W38126   8.303  11.592  14.537 -0.0176 -0.0415  0.1156
37263W        W38127   2.925  13.992  14.619 -0.2018  0.2511  0.2122
37264W        W38128   5.844  11.156  17.564  0.0510  0.2303 -0.0793
37265W        W38129   7.553  11.735  16.889  0.0660 -0.1302 -0.2864
37266W        W38130   4.446  11.075  18.439  0.0721  0.2955  0.1552
37267W        W38131   6.919  12.499  15.466 -0.2727 -0.0610 -0.4967
37268W        W38132   7.682  12.446  19.215  0.0651 -0.4350 -0.1230
37269W        W38133   2.693   9.582  16.067  0.0910  0.2045 -0.1025
37270W        W38134   2.561  13.980  14.943 -0.0095 -0.1917  0.4291
37271W        W38135   5.248  12.305  12.794 -0.0796  0.0660  0.3748
37272W        W38136   4.757  14.080  19.174 -0.2044 -0.3622 -0.0251
37273W        W38137   3.775  13.220  14.913 -0.0644 -0.0577  0.2902
37274W        W38138   5.103  11.949  12.311  0.1095  0.2722  0.4436
37275W        W38139   3.367  14.728  15.605  0.0311 -0.0390  0.1552
37276W        W38140   2.661  15.888  16.402 -0.0511 -0.1564 -0.1278
37277W        W38141   5.912   9.443  13.576 -0.0236 -0.0374  0.1399
37278W        W38142   5.360  11.150  16.518 -0.1095 -0.0728 -0.0639
37279W        W38143   6.893  14.548  15.598  0.0531 -0.1420  0.0033
37280W        W38144   2.968  13.396  15.557  0.0875  0.0718  0.5345
37281W        W38145   6.809  10.502  16.017  0.0115  0.1829 -0.0644
37282W        W38146   5.322  13.794  15.158 -0.2127 -0.1300 -0.0946
37283W        W38147   4.931  12.749  16.061  0.2079 -0.2744 -0.1829
37284W        W38148   4.552  10.910  14.343  0.1943 -0.3224 -0.0248
37285W        W38149   4.575   8.549  19.212 -0.2841  0.0120 -0.0034
37286W        W38150   6.618  12.404  13.940 -0.1115 -0.3037 -0.3980
37287W        W38151   1.939  15.654  15.405  0.1925  0.2142 -0.1066
37288W        W38152   5.483  11.328  15.798 -0.1262  0.2732 -0.3656
37289W        W38153   3.379  11.847  16.872 -0.0397  0.0485 -0.1385
37290W        W38154   6.814  14.821  14.661  0.1165  0.0396 -0.2573
37291W        W38155   7.143  14.124  14.645  0.4898  0.0787  0.0887
37292W        W38156   3.602  15.322  15.633 -0.3326  0.2731 -0.2017
37293W        W38157   5.023  13.876  15.604  0.3261  0.0257  0.1761
37294W        W38158   3.080  12.052  17.256  0.0652  0.4408 -0.0282
37295W        W38159   5.234  14.696  17.777  0.2769 -0.1747 -0.0079
37296W        W38160   5.651  11.698  18.684  0.1255  0.1733  0.0983
37297W        W38161   5.454  11.609  16.259  0.0081 -0.1896 -0.1083
37298W        W38162   3.979  14.819  16.147 -0.1466  0.2182 -0.2541
37299W        W38163   5.357  12.684  16.736 -0.1297 -0.2429 -0.2206
37300W        W38164   7.355  11.803  12.889  0.0124 -0.2794 -0.2529
37301W        W38165   7.259  12.195  18.266  0.3149  0.1930 -0.0263
37302W        W38166   3.138  15.790  14.817 -0.0256  0.1963 -0.1665
37303W        W38167   5.791  10.836  16.464  0.1864 -0.0701  0.3056
37304W        W38168   7.284  13.160  17.075  0.1972 -0.0585  0.0220
37305W        W38169   5.981   8.572  15.934 -0.1358  0.0999 -0.0112
37306W        W38170   6.653  13.078  17.904  0.0050  0.1177  0.0413
37307W        W38171   2.742  16.396  17.282 -0.1942  0.0143  0.0564
37308W        W38172   6.147  12.300  19.724 -0.0695  0.1821 -0.0889
37309W        W38173   4.717  11.422  12.906  0.0077 -0.0272  0.1223
37310W        W38174   5.745  12.225  14.656  0.1862 -0.1357  0.2986
37311W        W38175   5.373  17.033  19.754 -0.3686  0.0197  0.0837
37312W        W38176   2.559  14.297  14.500 -0.1383 -0.0129 -0.1753
37313W        W38177   4.991  16.391  18.422 -0.3370 -0.0068  0.1710
37314W        W38178   7.849  13.642  15.705 -0.1158  0.0989 -0.0278
37315W        W38179   0.550  14.149  17.578  0.0906 -0.1037  0.0957
37316W        W38180   4.708  14.853  18.281 -0.0763 -0.1195 -0.2215
37317W        W38181   4.115  13.330  16.412  0.3112 -0.1342  0.1954
37318W        W38182   4.312  12.648  17.511  0.1026 -0.2072  0.3526
37319W        W38183   4.790   7.554  16.567  0.0286 -0.4615  0.2857
37320W        W38184   1.622  15.468  13.691  0.1017  0.1732  0.1447
37321W        W38185   4.641  10.057  12.278  0.0464  0.1398  0.0303
37322W        W38186   4.408  11.901  18.499 -0.0187 -0.1824 -0.2528
37323W        W38187   5.836  13.968  17.590 -0.0582  0.2287  0.0846
37324W        W38188   7.153  11.660  13.414 -0.1783 -0.1431 -0.0157
37325W        W38189   6.397  10.899  16.680 -0.2527  0.1370  0.0766
37326W        W38190   4.864  14.338  17.657  0.2335  0.3921  0.0951
37327W        W38191   9.039  13.187  17.455 -0.0684  0.2942 -0.1984
37328W        W38192   3.572  14.130  16.918 -0.0888  0.1662 -0.0420
37329W        W38193   2.261  18.013  17.226  0.0615  0.2150  0.2863
37330W        W38194   6.869  14.054  15.618  0.1226 -0.0407 -0.0252
37331W        W38195   3.997  11.920  15.220  0.1230 -0.1663 -0.2343
37332W        W38196   4.063  11.956  18.106 -0.1338  0.1454  0.0754
37333W        W38197   4.770  13.261  16.665  0.0019 -0.0801  0.2944
37334W        W38198   4.683  12.760  14.813 -0.0752  0.1682  0.2408
37335W        W38199   2.842  10.193  16.198 -0.1750  0.2105 -0.1056
37336W        W38200   4.597  14.422  15.397  0.1753 -0.0203  0.0936
37337W        W38201   5.755  13.191  15.679  0.0959 -0.1987 -0.0538
37338W        W38202   5.034  13.660  16.433 -0.3781 -0.2264  0.5077
37339W        W38203   6.530  13.801  15.291  0.1279 -0.0826  0.0738
37340W        W38204   2.649  11.855  15.126  0.0026 -0.4625  0.0203
37341W        W38205   3.017  13.673  15.087 -0.0210  0.4663  0.3875
37342W        W38206   3.341  13.197  12.740  0.0145  0.0831 -0.1597
37343W        W38207   6.633  13.609  17.686  0.0112  0.0358  0.3226
37344W        W38208   5.744  11.884  16.493  0.3229 -0.0686  0.1323
37345W        W38209   6.155  14.878  14.950 -0.1399 -0.1080  0.2459
37346W        W38210   4.156  15.225  16.421  0.0660 -0.1100  0.0863
37347W        W38211   6.384  14.772  18.436  0.1368 -0.1946  0.0314
37348W        W38212   7.952   9.788  15.258 -0.1321 -0.3106 -0.0330
37349W        W38213   4.327  14.090  15.054 -0.1274 -0.1305  0.5413
37350W        W38214   6.134   9.109  18.822 -0.0169 -0.0335  0.0354
37351W        W38215   4.288  13.660  18.680  0.1587  0.0918  0.2025
37352W        W38216   0.742  14.131  15.624  0.1485  0.1752  0.1930
37353W        W38217   6.403  11.387  14.199 -0.0789 -0.1857  0.1782
37354W        W38218   4.239  11.561  19.293 -0.0859  0.4525 -0.1221
37355W        W38219   5.519  13.498  16.050  0.0324  0.0631  0.0553
37356W        W38220   1.818  12.500  14.663  0.1424  0.1352  0.1403
37357W        W38221   6.687  12.720  14.312  0.0022  0.1845  0.0292
37358W        W38222   4.740  12.496  18.532 -0.2503 -0.0010  0.0118
37359W        W38223   7.824  14.156  13.954  0.1096 -0.1236  0.1820
37360W        W38224   0.872  15.290  15.619 -0.1603 -0.1105 -0.0301
37361W        W38225   8.343  10.837  14.039  0.1638  0.2401 -0.1558
37362W        W38226   5.907  10.982  15.922 -0.1434 -0.0672  0.2868
37363W        W38227   4.617  12.747  15.315  0.0542 -0.0702  0.0808
37364W        W38228   8.021  10.981  15.894 -0.0444 -0.0146  0.0003
37365W        W38229   4.289  13.911  14.572 -0.0184  0.0513 -0.1672
37366W        W38230   6.003  14.024  17.118 -0.0114 -0.0770 -0.1873
37367W        W38231   4.711  14.065  14.362  0.3188 -0.2376 -0.4339
37368W        W38232   2.828  11.950  16.789 -0.2173 -0.0289 -0.1961
37369W        W38233   4.307  13.220  18.959 -0.0551  0.0072  0.0293
37370W        W38234   5.706  12.289  18.083 -0.1243 -0.0192  0.1724
37371W        W38235   4.919  11.999  18.465 -0.2029 -0.0352  0.0275
37372W        W38236   2.689  13.730  16.643 -0.0278  0.3633 -0.3682
37373W        W38237   8.549  13.398  16.498  0.0905 -0.1110 -0.2056
37374W        W38238   2.423  13.864  14.342  0.1129 -0.0878 -0.1649
37375W        W38239   7.549  13.319  15.403 -0.1657 -0.2417 -0.0067
37376W        W38240   6.672  12.708  17.573  0.0146  0.2912 -0.2709
37377W        W38241   6.572  13.562  18.201 -0.1770  0.2647  0.0137
37378W        W38242   5.582   9.940  18.811 -0.3725 -0.1118 -0.1195
37379W        W38243   5.168  13.468  14.702 -0.1004 -0.0582 -0.0740
37380W        W38244   5.527  15.765  15.476  0.0571 -0.3623 -0.0906
37381W        W38245   3.414  14.175  14.816  0.0150  0.1762  0.1299
37382W        W38246   6.229  11.720  16.457  0.1136 -0.2862 -0.2540
37383W        W38247   3.803  13.332  15.404  0.0275 -0.0637 -0.0890
37384W        W38248   4.986  15.845  18.025  0.0024  0.0081  0.0047
37385W        W38249   5.210  11.971  15.176 -0.0410 -0.1963 -0.0139
37386W        W38250   7.337  12.833  14.820 -0.2098  0.2384 -0.1702
37387W        W38251   5.828  15.313  18.187 -0.1744 -0.0313 -0.0691
37388W        W38252   8.130  11.166  17.752 -0.0170  0.5964 -0.0364
37389W        W38253   1.464  14.209  14.626 -0.3721  0.1793  0.0767
37390W        W38254   8.338  16.595  18.268 -0.2489 -0.1793  0.2002
37391W        W38255   4.774  13.738  15.972  0.3956  0.2422 -0.1215
37392W        W38256   5.455  12.768  12.596  0.1163 -0.0424 -0.0806
37393W        W38257   4.517  16.393  20.741  0.0066 -0.1974 -0.1187
37394W        W38258   4.331  15.889  23.231  0.0628 -0.1072 -0.0431
37395W        W38259   7.210   9.322  15.731 -0.3259 -0.0345  0.1420
37396W        W38260   5.108  17.904  21.441 -0.2347  0.1984 -0.0262
37397W        W38261   3.398  15.003  18.033  0.2575 -0.0984  0.2904
37398W        W38262   4.753  15.099  22.068  0.2825 -0.0338 -0.1568
37399W        W38263   3.193  12.889  20.583 -0.0010 -0.1386 -0.0281
37400W        W38264   4.844  13.092  18.828  0.3044 -0.1750  0.0130
37401W        W38265   5.633  15.169  21.541 -0.0149 -0.0990  0.0574
37402W        W38266   3.112  11.778  22.479  0.1322  0.2504 -0.0771
37403W        W38267   4.694  12.538  21.341  0.0321 -0.0440  0.2145
37404W        W38268   4.721  14.073  20.374  0.0727  0.0056 -0.0589
37405W        W38269   5.991  11.369  18.442  0.1908  0.2057  0.1779
37406W        W38270   6.759  11.718  20.146  0.3394  0.3234 -0.2236
37407W        W38271   3.627  11.302  19.608  0.0036 -0.1761 -0.0079
37408W        W38272   2.383  14.629  18.889  0.0427  0.3190  0.0417
37409W        W38273   6.105  15.674  17.744 -0.0030 -0.3016 -0.1067
37410W        W38274   2.277  13.702  17.118  0.0902  0.0092  0.2432
37411W        W38275   4.089  11.372  21.502  0.0442 -0.0062  0.0314
37412W        W38276   4.298  14.028  18.267 -0.2131  0.1803  0.0749
37413W        W38277   5.185  12.388  18.244 -0.3494 -0.2145  0.2038
37414W        W38278   2.651  12.356  20.336 -0.0851  0.1957  0.1437
37415W        W38279   7.039  15.567  19.987  0.1458 -0.0720  0.3242
37416W        W38280   5.100  11.500  20.245 -0.0599  0.1100  0.0487
37417W        W38281   3.983  12.194  19.938 -0.0975  0.0483  0.0366
37418W        W38282   2.828  12.808  20.143  0.0569  0.0608 -0.1456
37419W        W38283   5.678  11.665  17.630 -0.1155 -0.2263  0.0148
37420W        W38284   4.690  15.206  19.194 -0.1221 -0.0645 -0.0545
37421W        W38285   6.267  14.592  20.229 -0.0401  0.0028  0.0791
37422W        W38286   4.656  15.966  19.506 -0.0983 -0.0463 -0.0676
37423W        W38287   2.485  13.061  19.778  0.1477 -0.0722 -0.0859
37424W        W38288   8.581  13.904  21.544 -0.1040 -0.1495  0.1072
37425W        W38289   4.879  13.351  21.592 -0.2121 -0.1885 -0.0890
37426W        W38290   3.942  12.356  21.099  0.3901 -0.1292 -0.0122
37427W        W38291   4.271  11.527  20.676 -0.1693  0.1947 -0.0568
37428W        W38292   6.424  14.239  19.842 -0.0048 -0.2297 -0.0443
37429W        W38293   2.998  12.002  20.268  0.0106  0.0924 -0.2532
37430W        W38294   8.043  15.095  19.521 -0.0160  0.0658  0.1601
37431W        W38295   8.215  12.587  20.732  0.1152  0.0969  0.1856
37432W        W38296   5.424  13.564  19.940 -0.0857 -0.0860  0.0699
37433W        W38297   6.371  11.362  18.888  0.0523  0.0306  0.1846
37434W        W38298   8.231  13.133  20.499  0.3059 -0.0610  0.0257
37435W        W38299   6.978  13.803  18.660  0.0856 -0.0484  0.4395
37436W        W38300   8.009  13.568  18.390  0.1921  0.1076  0.1365
37437W        W38301   5.563  13.115  19.511 -0.0145 -0.1834  0.0093
37438W        W38302   2.628  14.184  20.402 -0.0453 -0.2458 -0.0731
37439W        W38303   4.655  10.343  21.210  0.1315  0.0349 -0.1096
37440W        W38304   7.415  12.095  20.216 -0.0480 -0.0647 -0.0177
37441W        W38305   5.259  13.213  20.722 -0.2755  0.0464  0.0624
37442W        W38306   6.591  11.072  19.211 -0.4143  0.1690  0.0977
37443W        W38307   4.312  15.154  19.519 -0.4295 -0.1953 -0.1519
37444W        W38308   5.805  12.467  20.575 -0.3935  0.1217 -0.0282
37445W        W38309   5.418  14.682  20.824  0.2024 -0.1765  0.1877
37446W        W38310   5.657  14.389  18.253 -0.0474 -0.4169  0.0406
37447W        W38311   5.968  11.555  15.071 -0.4056  0.1612  0.3915
37448W        W38312   5.382  13.038  17.415 -0.1453  0.0778  0.1756
37449W        W38313   3.496  11.717  19.203  0.2580  0.1058  0.0091
37450W        W38314   5.725  13.248  18.969 -0.3214  0.3671  0.0115
37451W        W38315   3.470  14.326  18.335 -0.1328 -0.1044  0.0434
37452W        W38316   3.197  16.331  17.600  0.2016  0.1680  0.0998
37453W        W38317   6.016  11.499  17.288  0.1241  0.1831  0.2316
37454W        W38318   4.341  13.287  20.716 -0.1346 -0.2163  0.1679
37455W        W38319   4.628  16.818  21.155  0.1085  0.0606  0.0808
37456W        W38320   4.723  13.710  20.054  0.1576 -0.2076  0.0293
37457W        W38321   3.458  12.934  21.039 -0.0454  0.0858  0.1188
37458W        W38322   4.865  10.397  22.044 -0.1900 -0.0117  0.0834
37459W        W38323   2.889  15.633  18.123 -0.2644 -0.0949  0.0080
37460W        W38324   3.727  13.179  16.795  0.0309 -0.0465  0.2422
37461W        W38325   3.562  12.519  20.761  0.1884 -0.0275 -0.0646
37462W        W38326   4.529  13.666  16.597 -0.1117  0.1312 -0.1531
37463W        W38327   7.545  12.597  20.084  0.0215  0.0486  0.1424
37464W        W38328   5.446  10.166  18.360 -0.3631 -0.1722  0.1267
37465W        W38329   8.414  14.211  18.857 -0.0871 -0.0172  0.2726
37466W        W38330   5.376  12.313  20.732 -0.2276  0.0209  0.2699
37467W        W38331   7.429  13.776  18.496 -0.0341  0.2032 -0.1671
37468W        W38332   7.885  14.435  20.309  0.0768  0.2232 -0.2640
37469W        W38333   4.196  15.298  20.660  0.3156  0.2872 -0.1689
37470W        W38334   3.929  14.922  19.240 -0.1457 -0.0272 -0.0116
37471W        W38335   4.701  12.504  19.514  0.0851  0.1744 -0.4338
37472W        W38336   6.254  13.485  21.037  0.0048  0.2190  0.2851
37473W        W38337   4.889  13.477  21.124 -0.0230 -0.0154  0.0940
37474W        W38338   4.506  14.953  21.043 -0.0183  0.0459  0.2337
37475W        W38339   5.389  12.920  19.933 -0.0083  0.1160  0.2332
37476W        W38340   5.342  12.611  19.220  0.0097 -0.0319  0.3337
37477W        W38341   6.777  13.215  19.720  0.2398  0.1179 -0.0846
37478W        W38342   5.229  12.336  18.727  0.1493  0.1479 -0.1711
37479W        W38343   8.738  13.892  23.320 -0.1804 -0.4073  0.1149
37480W        W38344   5.183  12.936  22.385  0.0176  0.1087 -0.4629
37481W        W38345   5.557  15.888  19.909  0.0907 -0.1801 -0.0939
37482W        W38346   6.595  11.935  21.059  0.0072  0.0063  0.3921
37483W        W38347   4.033  12.826  20.665  0.2413  0.1235 -0.2251
37484W        W38348   6.680  13.706  19.869 -0.2460 -0.1269  0.0807
37485W        W38349   1.745  15.801  19.164  0.0602  0.1457  0.0843
37486W        W38350   4.193  10.950  20.172  0.3798  0.2552  0.2938
37487W        W38351   3.751  10.598  21.931 -0.1477  0.0200 -0.0018
37488W        W38352   4.949  10.793  19.000 -0.3079 -0.1026 -0.2698
37489W        W38353   7.669  12.445  20.614 -0.1620  0.1018  0.0487
37490W        W38354   4.856  15.540  25.714 -0.2436 -0.1637  0.1566
37491W        W38355   4.208   9.994  17.931  0.1027 -0.0355  0.0975
37492W        W38356   4.887   9.904  19.466 -0.3315 -0.0431 -0.0151
37493W        W38357   4.599  13.530  19.556 -0.0062  0.0411 -0.1303
37494W        W38358   3.783  13.743  18.670  0.0968 -0.4982 -0.0240
37495W        W38359   5.119  10.798  17.882  0.1012  0.2122 -0.1614
37496W        W38360   9.855  12.079  18.118 -0.0415  0.1872  0.0095
37497W        W38361   3.957  13.109  21.041 -0.1238  0.0285  0.0987
37498W        W38362   3.526  14.265  21.880 -0.0539 -0.0382  0.3494
37499W        W38363   7.131  14.860  19.831  0.1191  0.0390  0.6331
37500W        W38364   4.165  13.645  21.193  0.1550 -0.1789  0.1098
37501W        W38365   3.351  13.048  19.236 -0.1161 -0.1158  0.0146
37502W        W38366   3.190  11.235  21.628 -0.1000 -0.3657  0.1635
37503W        W38367   7.113  15.215  19.469 -0.0706  0.0108  0.3385
37504W        W38368   5.786  15.903  18.166  0.0661 -0.0505 -0.1951
37505W        W38369   6.854  13.390  20.984  0.0790 -0.2674 -0.0495
37506W        W38370   6.509  16.498  19.235 -0.1143  0.2311 -0.1629
37507W        W38371   6.644  10.008  15.975 -0.1830  0.0846 -0.1103
37508W        W38372   5.985  13.071  19.818 -0.0413  0.2568  0.2370
37509W        W38373   4.783  11.605  21.614  0.2754 -0.0957 -0.1284
37510W        W38374   4.376  13.817  20.782 -0.1464  0.0743  0.0950
37511W        W38375   3.927  12.042  22.170  0.1080 -0.4028  0.2872
37512W        W38376   6.537  13.520  18.748 -0.0173  0.2783 -0.1026
37513W        W38377   9.537   9.706  18.614  0.2478  0.1494 -0.1148
37514W        W38378   4.954  13.840  19.559  0.1846 -0.3054  0.1609
37515W        W38379   5.197  14.808  19.922 -0.1643 -0.2239 -0.2902
37516W        W38380   4.473  11.253  16.751 -0.1723 -0.1046  0.1429
37517W        W38381   4.877  13.385  17.291  0.2049  0.0025  0.0348
37518W        W38382   6.135  14.084  20.333  0.1128 -0.0861 -0.0120
37519W        W38383   3.950  14.227  18.605  0.1808 -0.3693 -0.1310
37520W        W38384   7.527  10.195  21.334 -0.0515  0.0814  0.0230
37521W        W38385   5.219  13.193  19.130  0.1490  0.0428  0.2879
37522W        W38386   2.714  13.774  17.606  0.1291  0.0403 -0.3976
37523W        W38387   6.659  15.733  19.773  0.1411 -0.2502  0.1275
37524W        W38388   8.446  11.072  19.671  0.0016 -0.3488 -0.0657
37525W        W38389   4.897  14.721  20.706  0.0661 -0.1475 -0.2068
37526W        W38390   6.410  11.545  19.846 -0.2249 -0.1426 -0.0240
37527W        W38391   4.962  12.893  18.324  0.0299 -0.0804 -0.2044
37528W        W38392   4.630  12.967  22.234  0.1748  0.2286  0.3456
37529W        W38393   6.147  12.219  19.255  0.3468 -0.2136 -0.0878
37530W        W38394   3.943  12.352  20.453 -0.0135  0.2381 -0.0771
37531W        W38395   5.091  14.492  19.353  0.2252  0.1050  0.0822
37532W        W38396   7.445  12.728  18.131 -0.2773 -0.0447  0.1634
37533W        W38397   4.806  10.467  19.587 -0.1071  0.2324 -0.0575
37534W        W38398   5.633   9.944  22.019 -0.0455  0.1639 -0.1776
37535W        W38399   5.193  14.984  19.465  0.1141  0.5127  0.2048
37536W        W38400   4.402  14.626  17.785 -0.6218 -0.0588  0.3949
37537W        W38401   4.079  14.015  21.932  0.1619  0.0900  0.0311
37538W        W38402   3.432  13.051  18.612 -0.0147  0.1060 -0.0348
37539W        W38403   5.110  10.768  20.809 -0.0082  0.0196  0.1252
37540W        W38404   6.710  14.040  19.501 -0.0250  0.1615  0.0427
37541W        W38405   4.135  15.951  17.467 -0.1587  0.4455 -0.0148
37542W        W38406   5.152  11.855  20.593 -0.3120  0.0610 -0.0160
37543W        W38407   4.876  15.111  20.152 -0.2412 -0.1932 -0.1166
37544W        W38408   3.822  11.587  17.855 -0.1741  0.0215 -0.1448
37545W        W38409   4.050  13.655  19.660  0.3799  0.2644 -0.0910
37546W        W38410   3.770  13.997  18.184  0.1964 -0.2954 -0.0066
37547W        W38411   4.657  10.958  20.916  0.1348  0.1652 -0.3169
37548W        W38412   7.473  13.501  20.284 -0.0453  0.1825 -0.4067
37549W        W38413   5.166  12.625  23.754 -0.0629 -0.1299  0.0728
37550W        W38414   5.146  14.476  18.219 -0.2226 -0.1461 -0.2226
37551W        W38415   7.224  14.297  17.827 -0.0935  0.3256  0.0691
37552W        W38416   2.820   9.247  22.067 -0.0445  0.1795  0.0150
37553W        W38417   6.047  11.779  18.965  0.1526  0.2399 -0.0415
37554W        W38418   5.800  15.553  23.062  0.0720 -0.0956 -0.1806
37555W        W38419   3.643  13.202  21.451 -0.2415  0.1816 -0.1777
37556W        W38420   6.376  13.342  20.104  0.1631  0.0808 -0.0965
37557W        W38421   5.941  10.784  21.441 -0.0373  0.2522  0.0897
37558W        W38422   4.792  13.130  20.754 -0.1699 -0.1868  0.2041
37559W        W38423   4.293  10.654  18.033 -0.0797 -0.0960 -0.2438
37560W        W38424   3.183  11.408  19.485 -0.0080 -0.0123 -0.0076
37561W        W38425   4.498  14.288  22.798 -0.0324 -0.2564  0.3749
37562W        W38426   5.086  12.853  19.523  0.0756 -0.1820  0.3182
37563W        W38427   7.633  14.890  19.091  0.1522 -0.2012 -0.1419
37564W        W38428   5.863  16.257  19.812  0.1961 -0.4683 -0.1543
37565W        W38429   4.393  12.779  18.737  0.0405 -0.0076 -0.0439
37566W        W38430   7.908  15.631  19.413 -0.1806 -0.1819  0.2948
37567W        W38431   4.548  13.234  20.239  0.0002  0.0334  0.0052
37568W        W38432   7.481  11.813  18.970 -0.3442 -0.0503  0.4001
37569W        W38433   4.781  15.977  21.593 -0.0654  0.1327 -0.0563
37570W        W38434   5.601  14.358  22.106 -0.0685  0.1077  0.1552
37571W        W38435   4.104  14.436  16.879  0.2690 -0.3644 -0.0468
37572W        W38436   5.506  13.313  21.135  0.1464  0.1361  0.0018
37573W        W38437   4.486  16.548  19.258 -0.0510 -0.1878 -0.1358
37574W        W38438   4.716  14.915  19.670  0.1285 -0.3481 -0.1557
37575W        W38439   6.356  12.671  16.617  0.0793  0.0203  0.2623
37576W        W38440   2.030  14.064  21.339 -0.2327 -0.0535 -0.0361
37577W        W38441   4.526  11.716  17.973  0.0442 -0.0785  0.0722
37578W        W38442   3.013  13.817  18.810 -0.2485  0.1081 -0.1624
37579W        W38443   7.842   9.511  19.041  0.2090 -0.1090  0.0267
37580W        W38444   3.594  12.251  17.132  0.2938  0.2101 -0.0780
37581W        W38445   4.608  14.733  17.060 -0.3107  0.1118 -0.1536
37582W        W38446   3.069  15.477  18.725  0.2309 -0.1105  0.0697
37583W        W38447   5.841  12.986  18.550 -0.1926  0.0112  0.2591
37584W        W38448   3.807  15.358  18.153 -0.2503 -0.2525  0.1079
37585W        W38449   2.513  13.888  19.983  0.0385  0.1658 -0.0105
37586W        W38450   4.377  12.779  23.847 -0.0314  0.0552  0.1371
37587W        W38451   3.539  12.467  21.914  0.0942  0.1940 -0.2558
37588W        W38452   5.629  11.546  20.349  0.2928 -0.0034  0.4387
37589W        W38453   7.688  11.946  18.495  0.3067  0.0985 -0.0726
37590W        W38454   4.811  13.606  20.571 -0.2067 -0.3659 -0.0137
37591W        W38455   3.718  12.957  22.726  0.1885 -0.0075  0.1060
37592W        W38456   6.181  13.815  19.915  0.0920  0.1079  0.1513
37593W        W38457   2.601  15.219  18.873 -0.0983 -0.1798 -0.0864
37594W        W38458   4.721  13.813  22.413 -0.0341 -0.0644 -0.2191
37595W        W38459   6.699  13.012  16.638  0.1024 -0.2989  0.0186
37596W        W38460   4.197  10.934  23.031  0.1354 -0.0755  0.1163
37597W        W38461   3.849  12.905  21.878  0.2742  0.1312 -0.1202
37598W        W38462   2.816  12.492  16.623 -0.1913  0.0382  0.0990
37599W        W38463   4.025  14.153  20.954 -0.2106 -0.0527 -0.0605
37600W        W38464   4.530  14.566  20.203  0.0509 -0.3610  0.2608
37601W        W38465   6.005  17.278  20.505 -0.4397  0.1652  0.0745
37602W        W38466   6.351  16.115  17.703 -0.0187 -0.2778 -0.4012
37603W        W38467   3.128  13.167  22.884 -0.0833 -0.0793 -0.2494
37604W        W38468   3.991  14.153  20.472 -0.1093  0.1550 -0.2153
37605W        W38469   4.183  14.162  21.477  0.0978 -0.0365 -0.0912
37606W        W38470   7.237  14.556  21.532 -0.2807 -0.1288  0.2458
37607W        W38471   8.790  12.247  22.072 -0.0810  0.2029  0.0214
37608W        W38472   6.113  10.245  17.262  0.0382 -0.1260 -0.0474
37609W        W38473   6.071  13.444  18.610 -0.1250 -0.2715 -0.3460
37610W        W38474   5.637  13.082  16.927  0.0590 -0.0826 -0.0531
37611W        W38475   6.070  15.271  23.455  0.0247 -0.2840 -0.2306
37612W        W38476   2.993  15.157  21.355  0.2157 -0.1268 -0.1140
37613W        W38477   6.600  11.864  19.198  0.0081 -0.0992  0.0140
37614W        W38478   6.232  10.868  17.863 -0.0793  0.3392 -0.0654
37615W        W38479   7.277  13.236  19.498  0.5532 -0.2291  0.0601
37616W        W38480   3.009  10.880  18.008 -0.0218 -0.0617  0.3704
37617W        W38481   6.254   9.088  15.092 -0.1931  0.1410  0.0707
37618W        W38482   3.886  15.773  23.272  0.1341  0.1187 -0.1416
37619W        W38483   3.932  14.596  18.930 -0.0501  0.2726  0.0233
37620W        W38484   7.259  13.660  21.319  0.1027 -0.1076 -0.2150
37621W        W38485   5.214  14.807  17.225  0.0419 -0.1571  0.1758
37622W        W38486   5.943  15.165  22.398  0.0049  0.2270 -0.1463
37623W        W38487   4.431  14.881  20.529  0.0259 -0.0524  0.0350
37624W        W38488   4.136  14.364  19.287  0.1128  0.1070 -0.0913
37625W        W38489   2.444  10.777  18.451 -0.1217  0.4076 -0.0496
37626W        W38490   3.396  13.236  17.159 -0.2804 -0.1704  0.1938
37627W        W38491   4.536  13.692  24.238 -0.2904  0.3253 -0.6573
37628W        W38492  10.331  11.779  18.114  0.1011 -0.4792  0.2145
37629W        W38493   6.147  12.584  18.538  0.0756 -0.1811  0.1208
37630W        W38494   5.865  13.443  20.146 -0.2464  0.0677  0.1491
37631W        W38495   5.315  12.849  18.727  0.1780  0.0129 -0.5608
37632W        W38496   6.188  14.331  18.328 -0.2098  0.0292 -0.0774
37633W        W38497   7.150  15.579  17.882  0.0873  0.2590  0.0492
37634W        W38498   2.220  13.189  20.619 -0.4673 -0.3060 -0.2611
37635W        W38499   2.337  11.192  20.204 -0.0876  0.1913  0.0821
37636W        W38500   4.877  12.583  17.281 -0.2315 -0.1330  0.2589
37637W        W38501   3.906  13.685  20.691  0.0492 -0.2477  0.1034
37638W        W38502   5.669  12.969  16.424 -0.1754 -0.3058  0.2248
37639W        W38503   8.068  12.626  18.813  0.2304  0.0075  0.3019
37640W        W38504   1.631  14.666  23.746  0.1343  0.0587  0.2350
37641W        W38505   7.575  15.203  18.115 -0.1496  0.0398 -0.0767
37642W        W38506   5.208  11.959  20.067 -0.1861 -0.0105 -0.0279
37643W        W38507   4.186  15.527  19.808 -0.4706  0.0886 -0.1860
37644W        W38508   5.835  16.496  18.817 -0.1429 -0.4197  0.3206
37645W        W38509   7.486  13.698  20.835  0.0722 -0.0370 -0.3734
37646W        W38510   6.635  14.213  20.307  0.0365  0.0093  0.2330
37647W        W38511   3.932  13.471  15.938  0.0000 -0.1975 -0.1028
37648W        W38512   8.918  14.349  19.093  0.1490 -0.0127 -0.0519
37649W        W38513   5.382  11.920  17.970 -0.0095 -0.1344  0.2700
37650W        W38514   4.659  11.349  24.153  0.0755  0.0437 -0.2601
37651W        W38515   7.119  13.392  16.678  0.0368  0.0141 -0.1144
37652W        W38516   6.196  14.002  19.450  0.1184 -0.0407 -0.2073
37653W        W38517   4.649   9.884  15.503  0.1446  0.2080 -0.0138
37654W        W38518   4.621  15.162  18.708  0.1619 -0.0715  0.2547
37655W        W38519   6.921  15.477  18.301 -0.0834  0.2698  0.0920
37656W        W38520   2.969  11.406  22.881  0.1759 -0.1728  0.0417
37657W        W38521   6.794  15.344  19.092 -0.2507 -0.1201 -0.0158
37658W        W38522   2.925  15.361  20.434  0.0579 -0.1690 -0.0993
37659W        W38523   2.606  12.574  19.721 -0.0685  0.3247  0.1042
37660W        W38524   9.109  12.713  21.512 -0.0630 -0.1439 -0.0806
37661W        W38525   6.623  14.471  23.003  0.0225  0.0175 -0.0423
37662W        W38526   6.809   9.674  18.078  0.0611  0.3469  0.3298
37663W        W38527   5.353  15.938  20.455 -0.1932 -0.3091 -0.3119
37664W        W38528   5.988  13.850  21.108  0.5896 -0.3239 -0.0040
37665W        W38529   4.898  12.365  20.289  0.0073 -0.2768 -0.0903
37666W        W38530   1.504  14.075  23.485  0.3038  0.0882 -0.0621
37667W        W38531   4.235  15.477  18.446  0.0127  0.0498  0.0827
37668W        W38532   7.004  11.145  19.846  0.0696 -0.0389 -0.0764
37669W        W38533   3.867  11.544  20.979 -0.0608  0.0480  0.2162
37670W        W38534   4.465  12.000  23.284 -0.0370 -0.1344 -0.1362
37671W        W38535   5.485  10.887  19.707 -0.0612 -0.5777 -0.0217
37672W        W38536   3.322  15.037  19.716 -0.0053 -0.0379 -0.2387
37673W        W38537   2.693  13.085  21.400  0.2138  0.2030 -0.3379
37674W        W38538   5.407  10.908  18.865 -0.1711  0.0788  0.1121
37675W        W38539   2.883  14.232  19.928  0.0849 -0.1103  0.1517
37676W        W38540   2.868  13.664  20.266  0.0219  0.0438 -0.0977
37677W        W38541   8.211  14.531  15.044  0.2269 -0.0309 -0.0518
37678W        W38542   6.437  11.118  18.342  0.0735  0.4103 -0.2230
37679W        W38543   4.395  14.801  19.010  0.0564  0.1723  0.2892
37680W        W38544   6.501  13.155  20.607 -0.0085 -0.1125 -0.1996
37681W        W38545  10.274  11.332  19.053 -0.2599 -0.1906  0.2814
37682W        W38546   7.044  12.397  17.493 -0.0202  0.0278 -0.0748
37683W        W38547   3.292  15.286  19.133 -0.1840 -0.1023 -0.1233
37684W        W38548   7.250  12.038  17.803 -0.2792  0.2666 -0.0449
37685W        W38549   5.883  13.555  19.579 -0.2076  0.0708  0.1520
37686W        W38550   2.387  14.451  17.006 -0.4226 -0.3615  0.2651
37687W        W38551   1.863  14.319  20.851 -0.1614  0.0253 -0.1803
37688W        W38552   6.450  10.753  20.121 -0.2356 -0.0201 -0.0634
37689W        W38553   1.439  14.429  19.784  0.1150  0.0597 -0.0031
37690W        W38554   6.741  15.174  19.833  0.2166 -0.2336 -0.2001
37691W        W38555   6.240   9.746  18.023 -0.1280  0.0882 -0.1758
37692W        W38556   2.856  17.603  19.814 -0.1823  0.0903 -0.0125
37693W        W38557   4.904  14.803  19.078  0.0101  0.0293  0.0234
37694W        W38558   4.644  10.768  22.738  0.0238 -0.0301 -0.0705
37695W        W38559   5.736  17.221  20.964  0.1909 -0.0149 -0.1253
37696W        W38560   7.197  11.042  17.354 -0.4886 -0.2482  0.0876
37697W        W38561   7.593  13.224  16.526  0.1728 -0.1452  0.2228
37698W        W38562   7.506  14.789  20.389 -0.0073 -0.1457 -0.1670
37699W        W38563   6.508  15.406  21.715 -0.2515 -0.2483  0.1290
37700W        W38564   5.017  11.668  19.376  0.0632 -0.0058  0.2749
37701W        W38565   7.301  14.454  18.885  0.1831 -0.0571 -0.4797
37702W        W38566   4.391  14.349  17.311 -0.0020 -0.1222 -0.3523
37703W        W38567   4.921  11.062  18.540 -0.1361  0.2335  0.0366
37704W        W38568   4.240  14.054  22.441  0.2585 -0.1095 -0.1944
37705W        W38569   5.820  12.756  19.054 -0.1222 -0.0550 -0.0263
37706W        W38570   5.386  14.096  19.297  0.0212  0.0183 -0.2946
37707W        W38571   4.751  16.758  22.634 -0.3548 -0.0522 -0.0771
37708W        W38572   7.862  14.777  20.712  0.1437  0.0260 -0.2231
37709W        W38573   3.072  12.162  16.152  0.0974 -0.0576  0.2502
37710W        W38574   4.289  11.211  17.325 -0.1415  0.3400 -0.1328
37711W        W38575   7.857  15.762  20.663 -0.2073  0.1009 -0.0108
37712W        W38576   4.574  13.963  21.243  0.0617 -0.2501  0.1019
37713W        W38577   3.810  14.277  22.290  0.1466  0.1958  0.1588
37714W        W38578   9.435  11.897  18.389  0.1216  0.0776 -0.0929
37715W        W38579   2.792  13.251  20.529 -0.0674  0.1891 -0.2604
37716W        W38580   3.393  14.507  18.833 -0.1815 -0.0084 -0.2058
37717W        W38581   4.396  12.501  21.845  0.1074 -0.4030  0.0110
37718W        W38582   6.802  15.180  22.561  0.1239 -0.0951 -0.1847
37719W        W38583   5.242  12.462  19.810  0.1417 -0.0786 -0.3107
37720W        W38584   2.132  11.666  18.234  0.0730 -0.2666 -0.1060
37721W        W38585   5.171   8.778  17.846  0.1830  0.1011 -0.1627
37722W        W38586   3.379  13.688  18.366 -0.2038  0.1277 -0.1464
37723W        W38587   4.506  11.234  21.941  0.0094 -0.0030 -0.2339
37724W        W38588   5.801   8.739  19.767  0.1236  0.1052  0.1137
37725W        W38589   8.265  13.004  19.956 -0.0371 -0.0144  0.1495
37726W        W38590   5.242  16.068  19.420 -0.4854  0.2858 -0.1985
37727W        W38591   5.356  13.469  18.723 -0.1302 -0.4066  0.0411
37728W        W38592   4.515  14.449  21.218  0.0724 -0.1537  0.0819
37729W        W38593   4.441  14.692  21.701  0.6524  0.5323 -0.3253
37730W        W38594   7.226  13.959  19.654  0.1201 -0.3502  0.0013
37731W        W38595   6.565  12.288  17.180 -0.1946  0.3199 -0.1864
37732W        W38596   7.288   9.990  18.184  0.2385 -0.1534 -0.2647
37733W        W38597   5.254  13.731  17.311 -0.1359 -0.1467 -0.2113
37734W        W38598   4.547   9.922  21.536 -0.1401  0.2551  0.0125
37735W        W38599   7.055  10.830  20.929  0.2989 -0.1576  0.3029
37736W        W38600   2.904  15.195  19.498  0.0426 -0.1599  0.2489
37737W        W38601   2.986  10.420  20.149 -0.2418  0.1118 -0.0060
37738W        W38602   6.283  15.871  21.239 -0.3215  0.0116  0.1143
37739W        W38603   4.067  13.514  16.871  0.0075  0.0981 -0.1964
37740W        W38604   4.172  12.835  21.382 -0.2063  0.0255  0.0203
37741W        W38605   5.579  11.442  18.062 -0.1217  0.1320 -0.1876
37742W        W38606   4.189  12.485  16.542  0.0681  0.0964  0.0086
37743W        W38607   7.384  10.331  22.288 -0.0663 -0.1968 -0.2973
37744W        W38608   5.217  11.881  18.879  0.3387  0.3840  0.0957
37745W        W38609   7.261  14.896  18.626 -0.2200  0.1491 -0.3320
37746W        W38610   6.940  14.351  19.798  0.3134 -0.1676 -0.2254
37747W        W38611   5.171  15.398  19.835 -0.0693 -0.2094  0.0903
37748W        W38612   5.904  10.201  19.692  0.0670  0.1210  0.3394
37749W        W38613   3.914  13.938  19.223 -0.1129  0.1166 -0.0704
37750W        W38614   5.024  14.487  20.262 -0.0143 -0.2085 -0.0099
37751W        W38615   3.565  12.687  22.330  0.3737 -0.1278  0.1496
37752W        W38616   4.784  14.444  18.625  0.0069 -0.0805 -0.1477
37753W        W38617   4.883  13.546  19.117  0.2272  0.1940  0.1636
37754W        W38618   4.222  13.204  19.433  0.0419  0.3170  0.0889
37755W        W38619   5.940  15.000  20.214 -0.0178 -0.1625  0.1869
37756W        W38620   8.647  12.455  18.354 -0.0811 -0.1986 -0.0245
37757W        W38621   6.708  14.756  19.531 -0.1731  0.3450  0.0462
37758W        W38622   7.052  16.621  19.092 -0.0406  0.1709  0.0844
37759W        W38623   5.723  13.717  19.067 -0.3811  0.0623  0.2626
37760W        W38624   6.056  11.175  20.109 -0.0478  0.1169  0.2912
37761W        W38625   4.146  11.266  19.766  0.0876  0.2922 -0.2992
37762W        W38626   7.714   8.617  18.041  0.1372 -0.0249 -0.2109
37763W        W38627   2.499  13.425  18.072 -0.0708 -0.2327 -0.1588
37764W        W38628   9.098  11.404  19.660 -0.1338 -0.0453  0.0433
37765W        W38629   6.321  13.996  17.469 -0.2293  0.0068 -0.0602
37766W        W38630   5.273  11.130  21.169 -0.2649  0.0395 -0.0727
37767W        W38631   8.601  13.236  19.176 -0.0077 -0.0132 -0.2217
37768W        W38632   4.677  12.122  21.809  0.0304 -0.3470  0.3034
37769W        W38633   4.924  13.753  21.951  0.0203  0.0836  0.2935
37770W        W38634   5.483  14.838  20.351  0.0207 -0.0388  0.0494
37771W        W38635   7.242  14.143  21.175 -0.0357 -0.0832  0.1838
37772W        W38636   2.297  11.416  21.045  0.0286 -0.2208 -0.1619
37773W        W38637   5.392  14.424  19.727 -0.1515 -0.1409  0.2694
37774W        W38638   1.347  12.612  19.290 -0.1635 -0.2258 -0.3941
37775W        W38639   4.411  12.117  22.316  0.0442 -0.0993 -0.0963
37776W        W38640   2.366  12.814  18.202  0.3165  0.2070 -0.1626
37777W        W38641   6.286  12.463  21.641  0.0700 -0.2307 -0.1890
37778W        W38642   3.380  12.076  19.583  0.3081 -0.0554 -0.0031
37779W        W38643   5.636  15.121  19.325 -0.4810 -0.3353  0.4260
37780W        W38644   5.615  14.861  22.135 -0.0389 -0.4254  0.0191
37781W        W38645   6.871  13.124  20.233 -0.4229 -0.1228  0.1844
37782W        W38646   4.997  13.317  19.684 -0.0431  0.1855  0.1242
37783W        W38647   4.069  13.032  22.379  0.0996  0.2033 -0.0256
37784W        W38648   4.119  16.590  21.018  0.3060 -0.0183 -0.0819
37785W        W38649   6.331  12.658  19.092  0.2524 -0.1136 -0.1587
37786W        W38650   7.375  16.974  19.045  0.1192  0.0238  0.0810
37787W        W38651   3.970  15.601  20.258  0.0496  0.2463  0.0732
37788W        W38652   4.156  10.770  22.518  0.0257 -0.0010 -0.0343
37789W        W38653   5.730  14.054  19.652 -0.2022  0.0373  0.3135
37790W        W38654   5.847  12.642  20.049  0.0451 -0.0975  0.1142
37791W        W38655   3.519  14.568  21.050  0.0164  0.0772  0.1288
37792W        W38656   4.006  11.921  18.955 -0.2457  0.0193  0.0849
37793W        W38657   4.757  14.828  26.246  0.1734 -0.1398  0.2695
37794W        W38658   3.938  12.655  23.100 -0.1223 -0.0032 -0.0464
37795W        W38659   7.297  14.517  19.372 -0.2305  0.2417 -0.0703
37796W        W38660   5.449  15.426  24.065  0.0318 -0.0191  0.2142
37797W        W38661   5.290  13.889  22.386 -0.0044 -0.0823  0.1890
37798W        W38662   3.682  13.773  23.233  0.2399 -0.1475  0.2162
37799W        W38663   6.587  14.097  23.816  0.0633 -0.0722  0.3072
37800W        W38664   8.959  12.613  23.407 -0.1010  0.2795  0.1274
37801W        W38665   5.091  15.339  24.408  0.3860 -0.0831  0.3406
37802W        W38666   5.580  13.221  24.431 -0.0364  0.1135 -0.0913
37803W        W38667   3.093  12.607  23.765  0.1014 -0.0568 -0.0912
37804W        W38668   6.290  11.590  25.846 -0.0837  0.0280 -0.2565
37805W        W38669   3.359  12.393  21.212 -0.0869  0.1890  0.0836
37806W        W38670   6.352  11.980  24.475  0.1390  0.1266  0.0903
37807W        W38671   1.433  13.820  24.151 -0.2021 -0.0365  0.1656
37808W        W38672   4.478  14.930  24.850 -0.1169 -0.0644 -0.0774
37809W        W38673   3.585  13.410  22.834 -0.0313 -0.0149  0.1372
37810W        W38674   5.023  12.415  22.755 -0.0924  0.0826 -0.2448
37811W        W38675   2.397  15.349  23.705 -0.2422 -0.3083  0.0113
37812W        W38676   7.553  10.311  17.916 -0.1989 -0.2414 -0.0453
37813W        W38677   8.534  10.983  23.750  0.0093 -0.0285  0.0871
37814W        W38678   6.533   9.824  23.519  0.0646  0.2643 -0.1838
37815W        W38679   5.136  13.050  23.265  0.0489 -0.2745 -0.1931
37816W        W38680   5.048  15.313  26.155 -0.1047 -0.1333 -0.0047
37817W        W38681   1.348  13.595  22.693  0.1902  0.1066  0.0239
37818W        W38682   3.049  14.463  22.758  0.5045 -0.1312 -0.0148
37819W        W38683   7.808  15.060  23.541  0.2024 -0.2569 -0.0158
37820W        W38684   3.517  13.565  21.078 -0.1016 -0.3843 -0.0669
37821W        W38685   6.351  15.361  24.219  0.0824 -0.1746  0.2276
37822W        W38686   6.361  13.721  22.210  0.0908 -0.1486  0.0643
37823W        W38687   5.090  11.838  21.861  0.0187  0.2075 -0.0152
37824W        W38688   5.210  16.852  25.317  0.1270 -0.0225  0.1943
37825W        W38689   4.918  14.285  27.564 -0.1428 -0.0029 -0.1900
37826W        W38690   6.755  16.227  24.592 -0.0040  0.2232 -0.2552
37827W        W38691   4.313  14.062  24.955  0.0219  0.1319  0.2386
37828W        W38692   8.607  12.430  25.676  0.0399 -0.1345  0.0517
37829W        W38693   3.464  11.944  23.881  0.0016  0.0480 -0.2748
37830W        W38694   5.727  14.256  24.688 -0.3825 -0.0382 -0.1601
37831W        W38695   8.338  16.939  24.797  0.0337  0.2378  0.0624
37832W        W38696   6.790  11.037  21.737  0.1755 -0.0826 -0.0090
37833W        W38697   5.203  11.367  18.846 -0.1302  0.1314  0.1068
37834W        W38698   8.426  12.151  20.865  0.3428  0.2305 -0.0786
37835W        W38699   7.054  16.168  25.487  0.2707 -0.0895  0.0238
37836W        W38700   6.804  15.702  21.432  0.3125 -0.0177 -0.1817
37837W        W38701   1.503  15.470  21.531 -0.1842  0.2706  0.0445
37838W        W38702   5.102  14.399  21.158 -0.0463  0.1124 -0.1651
37839W        W38703   6.377  10.450  25.456  0.1316  0.4180 -0.0804
37840W        W38704   9.225  13.054  23.083 -0.1980  0.1079  0.0954
37841W        W38705   7.239  12.271  22.815  0.1824 -0.1774 -0.2387
37842W        W38706   4.375  14.278  18.882 -0.0602 -0.1259 -0.0432
37843W        W38707   7.617  14.526  23.432 -0.3143  0.0998  0.1373
37844W        W38708   4.280  14.169  19.977  0.0271  0.1780 -0.2743
37845W        W38709   6.876  14.185  22.391 -0.2099  0.0946 -0.0845
37846W        W38710   5.542  12.894  20.435 -0.0145 -0.1836 -0.2417
37847W        W38711   4.890  12.521  19.042  0.1936 -0.1503 -0.0908
37848W        W38712   1.740  13.220  20.909 -0.5384  0.2807  0.1845
37849W        W38713   4.101  12.556  22.248  0.3270 -0.2821 -0.1138
37850W        W38714   6.000  10.348  23.230  0.0147  0.1588 -0.1935
37851W        W38715   2.764  15.317  22.741  0.3137  0.1796 -0.2402
37852W        W38716   5.577  17.132  20.343  0.0721 -0.2180  0.0095
37853W        W38717   6.914  12.201  20.225  0.1893  0.0379  0.1899
37854W        W38718   5.281  13.577  26.273 -0.0868  0.1055 -0.2281
37855W        W38719   5.174  15.149  22.446  0.0363  0.2849 -0.2831
37856W        W38720   5.564  15.466  23.529 -0.0390 -0.0138  0.0685
37857W        W38721   5.840   9.509  22.192 -0.0624 -0.1755  0.1668
37858W        W38722   5.782  11.791  21.454 -0.0445  0.1367 -0.3008
37859W        W38723   4.246  12.020  20.887 -0.0372 -0.6012 -0.2549
37860W        W38724   3.389  10.667  23.821 -0.2438  0.1580 -0.1456
37861W        W38725   5.605  16.661  22.796 -0.1674 -0.1199  0.0474
37862W        W38726   5.330  14.631  24.718  0.0529  0.0441 -0.0679
37863W        W38727  10.206  14.007  24.943  0.0450 -0.3111 -0.1672
37864W        W38728   6.560  13.152  23.585 -0.0586  0.1245  0.0458
37865W        W38729   6.847  14.199  23.355 -0.0190  0.1577  0.0002
37866W        W38730   6.123  12.310  24.123 -0.0927  0.3146 -0.0327
37867W        W38731   5.551  14.265  22.650  0.1511 -0.1121 -0.2955
37868W        W38732   6.272  14.167  22.073  0.1345 -0.1323 -0.0980
37869W        W38733   2.667  14.415  21.797  0.2180 -0.1602 -0.0940
37870W        W38734   5.053  13.806  24.300 -0.1102  0.0189 -0.2188
37871W        W38735   5.231  11.240  24.394  0.1701 -0.2032  0.0010
37872W        W38736   3.925  14.585  21.277 -0.0104 -0.1305 -0.1633
37873W        W38737   5.270  10.434  23.996 -0.1760  0.1898 -0.0287
37874W        W38738   5.128  11.227  23.858  0.3422  0.0358  0.0538
37875W        W38739   3.077  13.412  21.402 -0.2053  0.0839 -0.0697
37876W        W38740   7.446  14.552  20.831 -0.0743 -0.0553 -0.1785
37877W        W38741   5.521  13.370  23.921  0.0363  0.0705 -0.0341
37878W        W38742   7.639  13.617  19.250  0.1930 -0.0936 -0.2322
37879W        W38743   7.576  14.925  26.015  0.1610 -0.0055 -0.1156
37880W        W38744   5.832  13.204  25.594  0.1599 -0.0539 -0.1967
37881W        W38745   6.600  12.590  24.148  0.1899 -0.0432  0.1894
37882W        W38746   7.910  12.872  20.294 -0.2820  0.0275  0.0247
37883W        W38747   6.534  13.859  20.829 -0.0081 -0.4237  0.2237
37884W        W38748   6.999  14.958  23.708  0.1558 -0.1097 -0.0747
37885W        W38749   6.708  15.233  20.700 -0.1018  0.0349 -0.0667
37886W        W38750   3.811  11.610  21.868 -0.0525 -0.2209  0.0748
37887W        W38751   4.179   8.758  23.382 -0.1575  0.1871  0.0474
37888W        W38752   4.446  12.496  19.935  0.0043  0.0910 -0.0586
37889W        W38753   5.498  12.647  21.997  0.1854 -0.1177 -0.0564
37890W        W38754   5.434  16.681  24.902  0.4639 -0.0797  0.1087
37891W        W38755   4.419  13.339  22.584 -0.3354 -0.1325 -0.2265
37892W        W38756   8.178  10.597  23.559  0.3692 -0.1369 -0.1381
37893W        W38757   5.510  11.180  18.491 -0.0296  0.0488  0.1881
37894W        W38758   2.901  12.324  22.674 -0.0640  0.1387  0.0177
37895W        W38759   4.784  12.775  21.769 -0.0431  0.1571  0.1594
37896W        W38760   4.892  13.393  22.280  0.1130 -0.0561 -0.1570
37897W        W38761   8.761   8.817  22.939 -0.0699 -0.1725  0.0121
37898W        W38762   3.168  14.194  26.020 -0.0635 -0.1094  0.1080
37899W        W38763   6.924  17.398  24.674  0.0764  0.1379  0.6427
37900W        W38764   7.676  14.515  24.594 -0.3099 -0.0184 -0.1221
37901W        W38765   7.224  10.504  24.371  0.0757  0.2255  0.0159
37902W        W38766   3.200  13.387  23.407 -0.3151 -0.1513  0.0413
37903W        W38767   3.237  13.880  23.523  0.0963  0.0904 -0.0702
37904W        W38768   7.070  14.759  21.918 -0.0590  0.1059  0.1843
37905W        W38769   6.535  11.847  22.137 -0.0033  0.2735  0.1850
37906W        W38770   6.666  14.840  26.265 -0.3165  0.1938  0.0117
37907W        W38771   6.977  12.033  21.514  0.2258  0.0117 -0.1163
37908W        W38772   4.022  13.424  21.832 -0.2103  0.0961  0.2905
37909W        W38773   7.557  10.740  24.824  0.3278 -0.1022  0.1754
37910W        W38774   7.059  13.239  24.400  0.1302 -0.1924 -0.1750
37911W        W38775   7.013  12.477  26.917  0.1741  0.0683  0.3128
37912W        W38776   8.013  14.230  21.663 -0.0235  0.1987  0.1041
37913W        W38777   5.800  12.404  21.135 -0.0037 -0.0797 -0.1920
37914W        W38778   5.164  16.803  24.525 -0.2696  0.1948 -0.0722
37915W        W38779   5.067  12.581  23.221  0.1400 -0.1426  0.0666
37916W        W38780   3.339  13.490  19.882  0.2262  0.2723 -0.3177
37917W        W38781   4.810  12.913  24.047 -0.1269  0.2309  0.3091
37918W        W38782   8.416  14.930  22.692 -0.0057  0.0718  0.0235
37919W        W38783   3.641  12.954  24.560  0.1326  0.2492  0.2428
37920W        W38784   6.794  12.728  23.716 -0.1113  0.0046  0.4167
37921W        W38785   8.342  16.580  25.169 -0.3414  0.1113 -0.2743
37922W        W38786   5.169  15.608  24.907 -0.0275 -0.2049 -0.1344
37923W        W38787   7.934  17.548  25.224  0.2616  0.2009 -0.1378
37924W        W38788   5.759  12.053  20.116 -0.0781  0.1110 -0.0179
37925W        W38789   5.973  15.311  25.037  0.1182 -0.0827 -0.0520
37926W        W38790   5.800   8.296  22.377  0.0468 -0.1450 -0.2619
37927W        W38791   5.748  12.376  21.645  0.2516  0.2374  0.0889
37928W        W38792   5.871  12.484  22.284  0.0575  0.0406  0.0736
37929W        W38793   3.981  10.616  24.511  0.0985 -0.1098 -0.0015
37930W        W38794   6.646  13.661  20.377  0.0377 -0.0488  0.2208
37931W        W38795   4.907  14.328  21.589 -0.0878 -0.0153 -0.1333
37932W        W38796   5.858  16.002  22.140 -0.1766  0.0977 -0.0702
37933W        W38797   3.408  10.643  20.809 -0.1545 -0.0107  0.0898
37934W        W38798   6.289  12.014  25.017  0.2914 -0.0509 -0.1368
37935W        W38799   5.335  13.923  23.068  0.0741  0.0747 -0.3906
37936W        W38800   6.363  13.106  24.069 -0.1561 -0.2365  0.1099
37937W        W38801   6.625  13.990  22.854  0.3034 -0.0396  0.3343
37938W        W38802   5.030  12.862  21.069  0.0237  0.0297  0.0037
37939W        W38803   5.933  13.487  21.439 -0.0998  0.0084 -0.0397
37940W        W38804   7.092  13.147  23.513  0.0121 -0.3143 -0.0724
37941W        W38805   5.224  15.766  21.932  0.4236 -0.0298  0.0393
37942W        W38806   5.962  14.060  25.128  0.1414  0.1803  0.0712
37943W        W38807   8.107  15.648  23.879  0.1987  0.0688  0.2153
37944W        W38808   4.231  12.391  25.466  0.4460 -0.0009 -0.0696
37945W        W38809   5.777  13.174  26.442  0.0345  0.5877  0.0211
37946W        W38810   7.260   8.593  21.743  0.0037  0.3856 -0.1107
37947W        W38811   7.515  11.360  23.909 -0.3279 -0.0515  0.0193
37948W        W38812   6.530  10.432  22.190 -0.0289  0.1164 -0.3305
37949W        W38813   6.148  12.084  21.307 -0.0293 -0.0783 -0.1500
37950W        W38814   4.502  12.281  20.569  0.0705 -0.4700 -0.2219
37951W        W38815   4.150   9.058  24.325 -0.0776  0.0616  0.0880
37952W        W38816   5.553  12.823  21.502 -0.1085  0.1149 -0.0518
37953W        W38817   6.127   9.205  22.446  0.0799  0.0654 -0.1711
37954W        W38818   7.397  15.292  22.779  0.0903 -0.2688 -0.1385
37955W        W38819   8.083  15.754  23.065  0.1167  0.0069 -0.1310
37956W        W38820   6.295  14.260  25.436  0.0959 -0.0037 -0.2932
37957W        W38821   7.355  13.870  24.219 -0.0997  0.2028  0.0905
37958W        W38822   2.871  11.796  23.995  0.0250  0.2374 -0.2097
37959W        W38823   3.567  12.322  23.093  0.2874 -0.1541 -0.0412
37960W        W38824   3.582  13.312  22.291 -0.3219 -0.2554 -0.0601
37961W        W38825   8.465  14.287  23.573 -0.1765 -0.2429 -0.1827
37962W        W38826   5.849  14.712  21.111 -0.0779 -0.1193 -0.2586
37963W        W38827   5.728  14.414  20.112 -0.0321 -0.0947  0.1662
37964W        W38828   7.323  12.814  22.812 -0.0520 -0.2060 -0.0255
37965W        W38829   4.949  11.487  22.531 -0.0742 -0.1260  0.0749
37966W        W38830   6.134  14.293  20.893 -0.1095  0.2263 -0.2618
37967W        W38831   5.962  12.239  23.248 -0.2171  0.0112 -0.0473
37968W        W38832   5.841  13.595  21.978 -0.0689 -0.1340 -0.0319
37969W        W38833   4.023  14.503  22.684 -0.0949  0.3555 -0.2488
37970W        W38834   3.501  13.608  25.377 -0.0998 -0.1990 -0.0578
37971W        W38835   1.851  16.745  22.783 -0.0666 -0.1146  0.2818
37972W        W38836   6.192  12.720  22.652 -0.1367  0.3900  0.0018
37973W        W38837   5.217  17.100  22.946 -0.0100 -0.0274  0.0201
37974W        W38838   7.619  16.166  20.577  0.0847 -0.0664  0.0471
37975W        W38839   4.510  15.832  22.062  0.0889  0.0746  0.1874
37976W        W38840   3.460  11.786  24.796 -0.0730 -0.4006 -0.2220
37977W        W38841   6.277  12.704  20.647  0.0332 -0.1196 -0.0499
37978W        W38842   5.119  14.481  22.922 -0.2811 -0.1320  0.0279
37979W        W38843   6.225  11.276  22.945 -0.2915  0.3873 -0.1133
37980W        W38844   5.039  11.692  23.598 -0.0342  0.2292  0.2559
37981W        W38845   6.226  11.866  22.953  0.1717  0.2544 -0.0140
37982W        W38846   3.911  13.473  23.622  0.1021  0.5162 -0.1650
37983W        W38847   3.855  14.086  19.722  0.1798  0.1216 -0.0147
37984W        W38848   4.413  14.349  20.692 -0.3738  0.0018 -0.0157
37985W        W38849   3.596  15.033  24.322  0.3838 -0.1731  0.2561
37986W        W38850   6.173  11.479  26.338 -0.1231 -0.1608 -0.1626
37987W        W38851   2.510   9.301  23.700 -0.1429 -0.1939  0.2095
37988W        W38852   4.556  12.639  23.104 -0.2368 -0.3772 -0.1753
37989W        W38853   5.962   8.466  24.071 -0.1578  0.0221  0.1042
37990W        W38854   4.803  13.462  24.590 -0.1319  0.1684 -0.0827
37991W        W38855   3.280  13.293  24.250 -0.0168  0.1360  0.0527
37992W        W38856   6.252  10.431  22.691  0.0348 -0.2236 -0.1387
37993W        W38857   5.010  14.101  23.891 -0.0986 -0.0510  0.4296
37994W        W38858   8.434  12.591  19.712  0.1896 -0.0205  0.3504
37995W        W38859   6.168  11.852  20.080  0.1784 -0.2562  0.2147
37996W        W38860   5.758   9.841  22.965  0.1801 -0.0346 -0.0683
37997W        W38861   5.903  12.804  23.078  0.2213  0.3018  0.4815
37998W        W38862   0.968  13.076  21.762 -0.1796  0.0168  0.0833
37999W        W38863   4.785  14.149  25.069 -0.1657  0.3221  0.0608
38000W        W38864   6.845  13.328  23.148  0.4262  0.0971  0.1010
38001W        W38865   4.923  15.337  23.441 -0.0194 -0.3191 -0.1839
38002W        W38866   3.338  12.824  23.177 -0.0974 -0.0399 -0.1259
38003W        W38867   5.658  14.149  25.639 -0.3063 -0.0291  0.0962
38004W        W38868   1.644  13.370  23.858  0.1467 -0.1805 -0.1694
38005W        W38869   7.198  13.634  21.865 -0.0778  0.1478  0.1816
38006W        W38870   6.091  10.955  23.300 -0.1741 -0.0984  0.2715
38007W        W38871   6.242  12.622  21.171  0.0721  0.0015  0.1119
38008W        W38872   7.402  13.071  19.956 -0.1158 -0.0036  0.0377
38009W        W38873   7.111  14.014  20.705 -0.0226  0.2877  0.2584
38010W        W38874   5.273  15.222  21.914 -0.0064  0.1440 -0.1640
38011W        W38875   5.878  12.897  24.774 -0.0409  0.0851  0.0173
38012W        W38876   3.324  16.828  25.722 -0.1733  0.0081  0.0095
38013W        W38877   8.748  11.412  24.009  0.0040 -0.1597  0.0559
38014W        W38878   8.743  11.875  21.159 -0.0037 -0.1000  0.1545
38015W        W38879   7.096  14.755  22.817  0.1140  0.0737  0.1808
38016W        W38880   5.319  14.854  21.274 -0.0894  0.1699 -0.0611
38017W        W38881   7.074  13.420  20.530 -0.0522 -0.4674 -0.3989
38018W        W38882   4.603  16.807  25.398 -0.1752  0.0011  0.2382
38019W        W38883   5.949  16.278  23.597  0.0646  0.0804  0.2108
38020W        W38884   5.391  10.374  23.462 -0.2466  0.0844  0.1716
38021W        W38885   7.228  15.118  24.126  0.0661 -0.2108 -0.0129
38022W        W38886   5.618  12.048  22.040 -0.0701  0.0329  0.1031
38023W        W38887   5.999  13.292  22.843 -0.0266 -0.2289 -0.1375
38024W        W38888   7.933  17.622  24.523  0.0890  0.2387 -0.0433
38025W        W38889   4.007  12.380  23.989  0.1243  0.1640 -0.2132
38026W        W38890   5.603  13.871  21.443 -0.3355 -0.2531 -0.0028
38027W        W38891   5.306  12.455  21.228 -0.1070  0.4905 -0.1150
38028W        W38892   5.604  13.540  25.282 -0.2591 -0.2277  0.2020
38029W        W38893   7.906  11.665  22.117 -0.2034  0.1934 -0.3425
38030W        W38894   6.302  12.354  22.947 -0.2335  0.0673 -0.0442
38031W        W38895   7.877  15.204  21.881  0.1246  0.0602 -0.1736
38032W        W38896   6.378  13.085  23.081  0.1010  0.0772 -0.0839
38033W        W38897   7.638  12.867  21.766  0.3385 -0.0159  0.2232
38034W        W38898   4.012  15.445  24.273  0.0407  0.0175 -0.0131
38035W        W38899   2.819  11.817  25.682 -0.2497  0.2480 -0.3203
38036W        W38900   3.587   9.408  22.504  0.2516 -0.1563  0.0180
38037W        W38901   5.580  11.512  20.967  0.0648 -0.2622 -0.0437
38038W        W38902   5.744  14.884  23.345  0.1017 -0.1515 -0.1607
38039W        W38903   7.559  14.812  23.863 -0.2692  0.1983 -0.2080
38040W        W38904   6.180  15.040  26.522  0.0886 -0.1611  0.0066
38041W        W38905   7.402  13.220  20.927  0.1039  0.4828  0.4472
38042W        W38906   7.576  11.986  24.272  0.0552 -0.2392  0.0190
38043W        W38907   3.652  12.294  23.591  0.0023 -0.1385  0.1373
38044W        W38908   5.447  14.156  23.715 -0.0041  0.1367  0.1799
38045W        W38909   8.261  15.690  22.338  0.0758 -0.0633  0.2503
38046W        W38910   5.895  14.126  21.799  0.1960 -0.2203  0.1236
38047W        W38911   5.026  12.150  23.811 -0.0278 -0.1656 -0.1682
38048W        W38912   7.065  16.086  21.257 -0.0474 -0.1222  0.0528
38049W        W38913   6.070  11.617  21.882  0.0558  0.0055 -0.3363
38050W        W38914   7.970  11.701  24.196 -0.0158  0.3726  0.0802
38051W        W38915   5.428  13.835  21.927 -0.1223  0.0320  0.3192
38052W        W38916   7.920  12.220  20.185 -0.0480  0.1001  0.1600
38053W        W38917   5.433  13.403  22.285  0.2959  0.0308 -0.3339
38054W        W38918   5.139  14.242  22.024  0.0300 -0.1093  0.2517
38055W        W38919   6.997  14.654  23.321  0.0982 -0.2949  0.1808
38056W        W38920   7.842  11.587  23.567 -0.1098  0.2133 -0.0117
38057W        W38921   5.889  16.841  23.480  0.1403 -0.1403  0.1338
38058W        W38922   6.161  16.398  22.368 -0.1736  0.2867  0.0238
38059W        W38923   3.458  12.105  22.616  0.0940  0.0323 -0.0287
38060W        W38924   8.925  15.239  22.614  0.0007  0.0270  0.1419
38061W        W38925   6.490  14.462  25.039 -0.0748 -0.1516 -0.0350
38062W        W38926   5.752  12.662  19.568  0.1622  0.1208 -0.0934
38063W        W38927   4.543  14.816  23.012  0.0824  0.0143 -0.1295
38064W        W38928   3.709  14.846  23.492 -0.1093 -0.1469 -0.4606
38065W        W38929   6.756  12.774  25.625  0.0829  0.0024  0.2655
38066W        W38930   3.188  13.297  24.813 -0.0265  0.1336  0.1503
38067W        W38931   7.851  13.850  22.004  0.2495  0.2995  0.3123
38068W        W38932   6.908  12.260  22.299 -0.0453  0.0624 -0.0307
38069W        W38933   4.184  13.001  22.878  0.0356  0.1956 -0.1039
38070W        W38934   6.435  14.997  23.819  0.0422  0.1293 -0.2192
38071W        W38935   3.819  12.792  23.590  0.3956  0.6201 -0.2311
38072W        W38936   2.899  14.420  23.271 -0.0417  0.0663  0.0667
38073W        W38937   0.234  12.629  23.978 -0.3299 -0.0563  0.3854
38074W        W38938   6.296  14.813  23.286  0.0636  0.1200  0.1905
38075W        W38939   5.080  12.710  20.514  0.1187  0.0800 -0.1951
38076W        W38940   4.052  14.863  25.113 -0.3749 -0.2286 -0.0187
38077W        W38941   5.936  14.531  22.423 -0.3473 -0.0172 -0.1278
38078W        W38942   5.916  10.419  22.274 -0.0742  0.2548 -0.1512
38079W        W38943   4.751  14.829  23.428 -0.1479  0.1217  0.1046
38080W        W38944   2.759  10.146  23.878  0.1445  0.0320 -0.0966
38081W        W38945   8.318  12.548  20.212 -0.1248 -0.4000 -0.1282
38082W        W38946   5.262  14.711  21.793  0.1819  0.0550 -0.3900
38083W        W38947   3.834  12.414  22.659 -0.0448  0.1640  0.1222
38084W        W38948   3.979  11.940  22.667 -0.0445 -0.0301 -0.0216
38085W        W38949   7.132  13.989  19.137  0.0160  0.0371  0.3486
38086W        W38950   3.146  12.802  24.410  0.3011  0.0933  0.0450
38087W        W38951   4.135  12.359  23.477 -0.3525  0.2300  0.1071
38088W        W38952   7.312  13.944  22.278 -0.0102  0.3157  0.2802
38089W        W38953   5.597  12.771  20.932  0.1627  0.2472 -0.1475
38090W        W38954   7.617  14.430  21.809  0.1139 -0.0975  0.0555
38091W        W38955   7.010  12.885  21.260 -0.1452  0.1340 -0.1002
38092W        W38956   6.757  17.542  23.355  0.0510  0.2010  0.5336
38093W        W38957   4.900  12.449  24.187 -0.2988  0.1924  0.1989
38094W        W38958   5.748  13.463  26.958  0.0202  0.0840  0.1526
38095W        W38959   4.473  14.619  25.905  0.1664 -0.0202 -0.0155
38096W        W38960   6.975  13.626  22.557 -0.1169  0.1229  0.0393
38097W        W38961   6.473  13.591  23.277  0.0503  0.3397  0.1902
38098W        W38962   6.692  14.727  22.363 -0.0782 -0.0035 -0.2103
38099W        W38963   6.922  16.909  23.911 -0.1045 -0.0108 -0.2611
38100W        W38964   5.268   9.507  22.229 -0.2343 -0.0572  0.2941
38101W        W38965   5.270  13.356  24.796 -0.1682 -0.0428 -0.1230
38102W        W38966   1.253  13.478  24.510 -0.0345 -0.1522 -0.0018
38103W        W38967   4.489  12.783  20.986  0.0132  0.1743  0.0584
38104W        W38968   4.291  10.322  24.143 -0.0035 -0.0109 -0.2176
38105W        W38969   7.091  11.332  23.178 -0.1067  0.1680  0.2184
38106W        W38970   7.496  14.882  23.072  0.0088  0.0013  0.3506
38107W        W38971   4.319  15.375  25.254  0.1677 -0.1013  0.1556
38108W        W38972   6.413  13.783  24.921  0.0560 -0.1413  0.0104
38109W        W38973   5.928  11.375  25.620  0.2768 -0.1622  0.2169
38110W        W38974   8.121  14.843  22.248  0.4820 -0.1414  0.0474
38111W        W38975   6.110  14.619  23.907  0.2383 -0.3858 -0.0780
38112W        W38976   1.826  13.594  24.359  0.1681  0.1114 -0.1174
38113W        W38977   4.229  15.347  24.792  0.0194  0.2203 -0.0908
38114W        W38978   8.130  16.031  22.640 -0.1739 -0.0208 -0.0463
38115W        W38979   5.033  17.388  25.363  0.1456 -0.1461  0.1087
38116W        W38980   6.105  13.912  22.704  0.0335 -0.0649  0.0463
38117W        W38981   4.479  13.755  22.825  0.1574  0.1413 -0.0368
38118W        W38982   6.637  12.466  24.623  0.1862 -0.1087 -0.0420
38119W        W38983   5.852  11.185  20.614  0.1348  0.2585 -0.0907
38120W        W38984   2.748  13.394  23.173  0.1024 -0.0032 -0.0665
38121W        W38985   4.477  13.236  21.260 -0.2683  0.1169 -0.1815
38122W        W38986   5.508  13.329  23.213  0.1606  0.0170  0.0684
38123W        W38987   5.398  11.419  22.727 -0.1741 -0.1267 -0.1080
38124W        W38988   4.941   9.484  21.511 -0.0449 -0.0579 -0.0932
38125W        W38989   7.296  15.866  22.753  0.5236  0.0665  0.0932
38126W        W38990   6.984  14.072  26.130 -0.0984  0.0222  0.0821
38127W        W38991   9.106  15.372  24.040 -0.2264 -0.2639  0.1629
38128W        W38992   8.239  13.046  24.278  0.0753 -0.2287 -0.3261
38129W        W38993   5.654  14.607  23.790  0.1083 -0.3277 -0.0366
38130W        W38994   8.052  14.611  23.697  0.0381 -0.0622 -0.1203
38131W        W38995   4.657  13.952  23.281  0.1564 -0.1137  0.0754
38132W        W38996   6.029  12.937  21.688 -0.1864  0.0414 -0.1395
38133W        W38997   5.565  15.234  22.701 -0.1577  0.0174  0.0179
38134W        W38998   7.522  12.022  20.835 -0.0800 -0.1145  0.2314
38135W        W38999   3.331   9.461  21.969 -0.0659 -0.2257  0.1192
38136W        W39000   3.757  15.262  23.036 -0.1155 -0.0449 -0.0510
38137W        W39001   5.088  12.392  21.772  0.0669  0.1808  0.0495
38138W        W39002   6.080  12.582  23.651 -0.0832 -0.1453  0.2363
38139W        W39003   3.147  13.269  20.896  0.1468 -0.0999  0.1288
38140W        W39004   4.578  14.509  23.767  0.2331 -0.0312  0.2520
38141W        W39005   5.830  13.979  22.295  0.3516  0.1387 -0.1386
38142W        W39006   3.067   9.336  21.608 -0.1252 -0.0266  0.0213
38143W        W39007   7.939  13.151  24.696 -0.2894 -0.0748  0.0231
38144W        W39008   6.309  14.473  21.632 -0.4316  0.0282  0.0868
38145W        W39009   6.064  13.374  22.395 -0.2335 -0.1453  0.0304
38146W        W39010   6.720  14.600  24.545 -0.0335 -0.2762  0.0218
38147W        W39011   4.356  16.396  23.914 -0.0230  0.0674  0.1215
38148W        W39012   6.084  10.908  22.255  0.1311 -0.3056 -0.1087
38149W        W39013   4.975  14.300  23.356 -0.1017 -0.0800 -0.3474
38150W        W39014   4.772  14.418  25.532 -0.0099  0.1535  0.4338
38151W        W39015   6.408  12.057  27.453 -0.0281  0.2535  0.0607
38152W        W39016   1.926  13.768  25.810  0.0791  0.1163  0.1786
38153W        W39017   7.040  11.648  21.167 -0.3038 -0.1375  0.0713
38154W        W39018   4.193  11.558  22.263  0.0216  0.0605 -0.3158
38155W        W39019   3.487  14.147  20.804  0.1259  0.0564  0.0844
38156W        W39020   4.973  12.100  22.291 -0.0303 -0.1107 -0.4383
38157W        W39021   3.046  14.186  24.723  0.0889 -0.0993 -0.1703
38158W        W39022   7.927  12.696  24.495  0.0331  0.2169 -0.0150
38159W        W39023   5.471  14.330  21.567  0.1828  0.0307  0.0335
38160W        W39024   7.613  13.969  20.415  0.0995  0.0707 -0.0414
38161W        W39025   5.406  12.449  20.227  0.0788 -0.0983 -0.0901
38162W        W39026   4.932   9.481  24.693 -0.0844  0.2368  0.1497
38163W        W39027   4.003  14.785  20.798  0.0957 -0.1053  0.0156
38164W        W39028   6.025  10.869  22.729 -0.1430 -0.0870  0.1935
38165W        W39029   5.012  13.828  21.499 -0.3454 -0.1763  0.1218
38166W        W39030   9.032  14.102  23.768 -0.0939 -0.3215  0.0709
38167W        W39031   5.939  14.259  21.331  0.0322  0.1508  0.1927
38168W        W39032   5.172  13.016  21.885  0.1479  0.1766  0.0745
38169W        W39033   3.135  11.992  22.982 -0.2797 -0.3168  0.0722
38170W        W39034   8.392  13.921  26.137  0.0626  0.0611 -0.3286
38171W        W39035   6.313  14.810  24.347 -0.1828  0.1332 -0.1544
38172W        W39036   2.484  12.796  24.449  0.2147 -0.1470  0.1589
38173W        W39037   6.127  11.556  24.267 -0.0077  0.1110  0.0127
38174W        W39038   3.969  14.464  21.803 -0.2402  0.1600 -0.0578
38175W        W39039   5.531  10.883  25.112 -0.0166  0.1458  0.2448
38176W        W39040   8.281  12.621  21.998 -0.0184  0.3981 -0.0249
38177W        W39041   4.711  16.078  25.844 -0.2191 -0.0099 -0.0670
38178W        W39042   7.042  13.803  25.127 -0.0389 -0.1925  0.1456
38179W        W39043   6.244  15.027  21.386 -0.0545  0.1454 -0.1931
38180W        W39044   5.035  13.463  22.780  0.1873 -0.0753 -0.1105
38181W        W39045   5.066  12.369  25.121  0.0993 -0.1768 -0.3089
38182W        W39046   6.674  12.949  24.474 -0.0525 -0.1528  0.0389
38183W        W39047   7.271  15.169  26.851  0.0555 -0.0025 -0.2386
38184W        W39048   4.784  12.703  24.674 -0.0397  0.0422  0.0700
38185W        W39049   6.580  12.625  23.222 -0.0921  0.3042 -0.2290
38186W        W39050   6.624  14.863  21.709 -0.1423 -0.0851  0.0861
38187W        W39051   3.164  15.199  23.063 -0.0316 -0.0851  0.0553
38188W        W39052   5.306  13.710  23.530  0.3194  0.2808 -0.2123
38189W        W39053   4.960  13.491  23.262  0.2098  0.2113  0.2309
38190W        W39054   5.334  15.769  23.201 -0.1911  0.1173 -0.1110
38191W        W39055   8.714  14.650  20.485  0.1957  0.1293 -0.1034
38192W        W39056   3.033  14.087  22.004 -0.0067 -0.0794  0.0707
38193W        W39057   1.797  12.617   0.487  0.2706  0.0887 -0.2834
38194W        W39058   3.243  13.479  28.983 -0.1552  0.3396 -0.1134
38195W        W39059   8.674  13.369  24.467 -0.0341  0.1374  0.3769
38196W        W39060   8.071  13.414  26.982 -0.0619 -0.0119 -0.0884
38197W        W39061   3.924  14.661  24.188 -0.1225 -0.2153  0.2177
38198W        W39062   5.539  12.508  25.025  0.1785  0.0263 -0.4323
38199W        W39063   6.161  13.399  25.178  0.1951 -0.2233  0.0973
38200W        W39064   6.056  14.172  26.498 -0.0289 -0.3246 -0.1468
38201W        W39065   7.379  14.068  26.910  0.1562 -0.1081 -0.0208
38202W        W39066   4.713  12.334   0.418 -0.0136 -0.0188  0.1258
38203W        W39067   3.991  13.223  26.334  0.1055 -0.4187  0.0590
38204W        W39068   7.549  12.823  24.817  0.0535  0.0490 -0.1933
38205W        W39069   8.421  13.176  26.578 -0.1478  0.2979  0.0973
38206W        W39070   5.971  12.965  28.282  0.2767 -0.0880  0.0062
38207W        W39071   5.427  10.347   1.126  0.2481  0.0626 -0.2298
38208W        W39072   5.564  15.429  28.675  0.1526  0.0429 -0.0272
38209W        W39073   7.656  13.518  24.397 -0.3444  0.1677  0.0799
38210W        W39074   2.857  10.532   0.812 -0.0923  0.1797 -0.1206
38211W        W39075   4.490  14.256   1.078 -0.1011 -0.0386  0.0082
38212W        W39076   7.145  10.653  28.579 -0.2629 -0.1106  0.0884
38213W        W39077   7.285  13.422  25.378  0.0154 -0.0113  0.1185
38214W        W39078   6.335  12.215  26.810 -0.0566 -0.1524  0.0653
38215W        W39079   7.024  13.762  25.641  0.0954 -0.0674  0.0117
38216W        W39080   4.792  13.265  28.446 -0.2256  0.1144  0.2051
38217W        W39081   4.062  12.420  26.853 -0.2996  0.0776  0.0150
38218W        W39082   5.033  13.334   0.070 -0.2903 -0.3877 -0.1608
38219W        W39083   6.496   9.560   0.399  0.2275  0.1022 -0.1407
38220W        W39084   3.802  12.379  26.434 -0.3558  0.1451  0.0806
38221W        W39085   5.652  14.618  25.854  0.1178 -0.0258  0.1964
38222W        W39086   4.855  13.010  26.896 -0.0526 -0.0562 -0.1995
38223W        W39087   5.144  13.555   0.895 -0.0718 -0.0315 -0.0528
38224W        W39088   9.352  14.232  26.116  0.0506 -0.0220 -0.2233
38225W        W39089   4.007  14.527  28.567 -0.1698 -0.0993  0.2499
38226W        W39090   4.297  14.554   0.650  0.0138  0.1127  0.0267
38227W        W39091   4.183   9.648   1.667  0.2201 -0.1841  0.2459
38228W        W39092   7.779  16.749  27.172  0.0259 -0.0167  0.0614
38229W        W39093   3.729  13.174  23.281 -0.5039  0.4687  0.1278
38230W        W39094   4.302  15.886  27.985 -0.0775  0.3013 -0.1529
38231W        W39095   7.427  14.087  25.170  0.1884 -0.1570  0.3089
38232W        W39096   5.899  10.870  26.785 -0.0085  0.3555  0.3499
38233W        W39097   8.823  12.175  23.630  0.0373 -0.0344  0.2572
38234W        W39098   7.899  13.078  25.619 -0.0128  0.1393  0.1186
38235W        W39099   7.040  13.837  27.676  0.4033 -0.1091 -0.0601
38236W        W39100   6.915  14.138  24.225 -0.0978 -0.2089 -0.0725
38237W        W39101   2.879  14.117  27.357  0.0352 -0.2189  0.1485
38238W        W39102   5.422  14.316  24.249  0.0123 -0.0106  0.2474
38239W        W39103   6.149  12.830   1.527  0.0988 -0.1200 -0.1495
38240W        W39104   5.768  13.337  27.982  0.0222 -0.0930  0.0334
38241W        W39105   6.176  14.415  24.690  0.0794 -0.0410 -0.0901
38242W        W39106   7.016  15.124  20.265  0.0244 -0.0402  0.0258
38243W        W39107   6.630  12.514  28.247  0.1852  0.0193  0.2012
38244W        W39108   6.774  13.597  26.166 -0.3211 -0.2084 -0.0694
38245W        W39109   9.252  14.363  27.463 -0.0481 -0.2805  0.0829
38246W        W39110   7.155  14.782  24.485 -0.4282 -0.1657  0.0275
38247W        W39111   6.546  11.436  27.617  0.2261  0.1389 -0.0316
38248W        W39112   5.631  12.470  23.477 -0.0729  0.0857 -0.1581
38249W        W39113   4.516  10.867  23.980  0.2529  0.0890 -0.0840
38250W        W39114   5.365  11.882  27.676 -0.1476 -0.1638 -0.2096
38251W        W39115   4.100  14.463  24.598 -0.1177  0.1123 -0.0733
38252W        W39116   5.815  16.098  24.175  0.0150 -0.0677 -0.2745
38253W        W39117   8.120  12.597  25.720 -0.3191  0.1026 -0.2861
38254W        W39118   4.357  14.466  28.947 -0.1693  0.2635  0.3304
38255W        W39119   5.517  15.133  27.637  0.1420  0.2014 -0.5050
38256W        W39120   8.897  14.276  26.329 -0.2392 -0.0431 -0.2563
38257W        W39121   5.159  15.573  28.949  0.1948  0.3008 -0.1708
38258W        W39122   8.173  11.390  26.514  0.3960  0.2586 -0.3500
38259W        W39123   3.978  14.553  26.171 -0.1023 -0.0794 -0.0357
38260W        W39124   4.076  14.422  23.750  0.0528  0.2293  0.0608
38261W        W39125   4.605  14.986  27.830 -0.0622  0.0147 -0.0024
38262W        W39126   7.282  13.293  26.726 -0.1176  0.0406  0.0608
38263W        W39127   4.381  12.070  28.551  0.1905 -0.2695 -0.0393
38264W        W39128   7.084  14.369  26.528 -0.0807  0.1629  0.0305
38265W        W39129   6.640  17.779  26.249 -0.4698  0.1462 -0.0277
38266W        W39130   7.427  12.574   0.663 -0.1140  0.0572  0.1284
38267W        W39131   9.139  15.312  25.887 -0.0834 -0.2196 -0.1166
38268W        W39132   3.172  14.756  27.376  0.1731  0.0134 -0.0014
38269W        W39133   4.318  11.958  26.306  0.0487  0.2219 -0.2031
38270W        W39134   4.929  13.833  27.120 -0.0548  0.4084 -0.1917
38271W        W39135   6.975  11.947  26.765  0.0068 -0.3498  0.2362
38272W        W39136   5.594  13.036  25.163  0.0270 -0.3608 -0.1431
38273W        W39137   5.126  14.109  28.278  0.0192  0.1659 -0.1567
38274W        W39138   8.081  13.256  28.560  0.0266  0.3366 -0.3854
38275W        W39139   3.929  13.790  25.065  0.2790 -0.1204 -0.3791
38276W        W39140   8.206  12.875  28.919 -0.1083 -0.1756  0.2012
38277W        W39141   6.021  12.223  25.890  0.0278 -0.1925  0.2610
38278W        W39142   7.118  12.745  26.025 -0.0598 -0.0326 -0.2283
38279W        W39143   8.283  18.284  26.365 -0.1095  0.1203 -0.2640
38280W        W39144   5.568   9.920  25.224  0.5572 -0.0169  0.0072
38281W        W39145   6.881  14.834  27.309  0.0821  0.0895 -0.0615
38282W        W39146   6.742  11.774   0.076  0.0004 -0.1544  0.4669
38283W        W39147   7.579  13.281  27.126 -0.1720  0.0365 -0.1724
38284W        W39148   7.449  12.439  27.169 -0.2525  0.0487  0.0242
38285W        W39149   4.922  16.098  25.247  0.0952  0.4006 -0.0892
38286W        W39150   6.305  12.243  27.959 -0.1397 -0.2596  0.0878
38287W        W39151   7.722  11.629  27.630 -0.2324  0.2537 -0.0191
38288W        W39152   7.781  12.098  27.336  0.0130 -0.0980  0.2335
38289W        W39153   7.716  12.011  23.803  0.1328  0.0382 -0.2138
38290W        W39154   4.773  15.795  28.720  0.0126  0.2252  0.2445
38291W        W39155   6.651  11.539  24.241 -0.2413 -0.2454  0.3662
38292W        W39156   5.902  10.713  24.648 -0.4931  0.3146 -0.0180
38293W        W39157   6.944  15.488  24.371  0.1672  0.1004  0.1414
38294W        W39158   1.345  12.703  25.461  0.0861 -0.1484 -0.0526
38295W        W39159   6.747  10.298  25.074  0.3201 -0.2014  0.1231
38296W        W39160   8.201  14.846   0.348 -0.0250  0.1338 -0.4500
38297W        W39161   7.802  12.404  26.751 -0.0584 -0.0328 -0.1488
38298W        W39162   6.395  15.041  28.620 -0.1850  0.0088  0.1256
38299W        W39163   4.105  13.610  26.062 -0.2103  0.0806  0.2002
38300W        W39164   8.061  14.425  28.150 -0.2251 -0.0586  0.1315
38301W        W39165   6.741  13.668  28.279 -0.1499  0.1281 -0.0651
38302W        W39166   5.721  13.399   0.867  0.3565 -0.0240 -0.2818
38303W        W39167   4.064  14.484   1.096 -0.3661 -0.2639  0.1011
38304W        W39168   3.931  14.121  25.916  0.1870  0.0998 -0.0922
38305W        W39169   4.416  14.630  26.571 -0.0900 -0.2486  0.1880
38306W        W39170   8.159  13.800  27.884 -0.2539  0.0713 -0.2340
38307W        W39171   6.452  13.540  22.730 -0.0440  0.0593  0.1594
38308W        W39172   6.929  15.126  25.258  0.3442 -0.0485 -0.2748
38309W        W39173   5.711  11.641  26.521  0.0980  0.3715  0.0262
38310W        W39174   6.679  14.586  28.860  0.0342  0.1991  0.1725
38311W        W39175   8.496  13.417  28.233 -0.0450 -0.0205 -0.0357
38312W        W39176   6.807  12.091  24.865 -0.1344 -0.0023 -0.0314
38313W        W39177   6.507  13.133  27.461 -0.3097 -0.0045 -0.0051
38314W        W39178   8.272  13.870  25.656 -0.1956  0.4114  0.2424
38315W        W39179   6.370  12.980  27.953  0.2107 -0.0132  0.1053
38316W        W39180   6.382  14.081  23.315  0.3388  0.1169  0.1248
38317W        W39181   3.561  12.306  26.880 -0.1983 -0.2377  0.0767
38318W        W39182   6.841  14.257  27.220 -0.0140 -0.4071 -0.1834
38319W        W39183   5.185  12.359   0.218 -0.1412  0.0213  0.0789
38320W        W39184   7.325  14.355  27.391  0.0286  0.0691 -0.0503
38321W        W39185   6.410  14.304  22.529  0.1247 -0.2813  0.0355
38322W        W39186   5.865  14.849  28.458 -0.3556  0.1003  0.2163
38323W        W39187   9.818  16.068  28.249 -0.1787  0.4657  0.0287
38324W        W39188   5.521  11.646  25.574  0.1514  0.1168 -0.1547
38325W        W39189   4.992  15.195  25.328  0.0505 -0.4111 -0.0496
38326W        W39190   9.517  12.398  26.883 -0.0941  0.2262 -0.0615
38327W        W39191   7.510  11.959  26.901 -0.3519  0.1921  0.0438
38328W        W39192   5.945  11.895  28.048  0.1439  0.2980 -0.2283
38329W        W39193   7.838  13.373  29.135 -0.0616  0.1934 -0.5956
38330W        W39194   8.599  12.499  27.908 -0.1280  0.1362  0.2007
38331W        W39195   7.123  14.336  25.585  0.3292  0.0038  0.3847
38332W        W39196   6.126  13.730  26.765  0.0737 -0.1948  0.0255
38333W        W39197   3.340  10.278  25.660 -0.1440 -0.1287 -0.0545
38334W        W39198   5.923   9.642  25.377  0.0663 -0.1100  0.0351
38335W        W39199   4.142  14.470  25.595 -0.0986 -0.1705  0.0725
38336W        W39200   5.659  13.803  26.566  0.2253  0.0962 -0.2784
38337W        W39201   8.947  14.168   0.080  0.0867  0.2511  0.0607
38338W        W39202   5.983  14.046  28.620 -0.1541  0.1056  0.1004
38339W        W39203   8.319  14.337  25.788 -0.1632  0.0671  0.2596
38340W        W39204   6.762  14.876  27.817  0.1932 -0.1657  0.1206
38341W        W39205   8.320  13.452  29.063  0.0470  0.0013 -0.1282
38342W        W39206   4.840  15.512   0.806  0.0286  0.2263 -0.3852
38343W        W39207   8.512  12.885  25.554  0.2055 -0.1205 -0.0299
38344W        W39208   6.526  12.710  26.765  0.1837 -0.1028  0.1273
38345W        W39209   6.323  13.399  26.387 -0.2167 -0.1839  0.1074
38346W        W39210   5.838  11.996  26.844 -0.1260 -0.0410 -0.0296
38347W        W39211   6.105  12.171  21.977  0.0532 -0.1673  0.1562
38348W        W39212   3.622  11.730  27.563  0.3062 -0.0155  0.0276
38349W        W39213   4.163  12.758   0.875  0.2061 -0.3790 -0.1196
38350W        W39214   7.665  14.957  24.374 -0.3629  0.3051 -0.0869
38351W        W39215   5.053  11.006  22.500  0.2640  0.5256  0.0253
38352W        W39216   5.981  14.612  25.477  0.4234 -0.0029  0.0306
38353W        W39217   5.910  11.693   1.627  0.1284 -0.1491  0.2395
38354W        W39218   5.561  15.935  29.013 -0.0751  0.1768  0.0290
38355W        W39219   5.132  12.749  27.313  0.0184  0.1658  0.3124
38356W        W39220   6.393  14.173  28.935 -0.1048 -0.1711 -0.0019
38357W        W39221   4.496   9.509   2.100 -0.0591  0.1283 -0.1405
38358W        W39222   4.571  13.253  27.998  0.2760  0.2516  0.3819
38359W        W39223   6.940  13.625  24.087 -0.1905 -0.0346  0.0997
38360W        W39224   5.546  13.907  28.430 -0.0680 -0.2293 -0.0344
38361W        W39225   5.366  16.875  27.490 -0.1010 -0.4458  0.2665
38362W        W39226   7.628  13.059  24.322  0.1701 -0.0410 -0.1903
38363W        W39227   6.130  12.948   0.077  0.0981 -0.0185  0.1961
38364W        W39228   7.816  14.124  27.603  0.2090 -0.1403  0.0435
38365W        W39229   5.296  13.733   0.149 -0.0303  0.1607 -0.0472
38366W        W39230   6.065  14.265  25.858 -0.1125 -0.0301 -0.1764
38367W        W39231   4.865  13.570  23.869 -0.2511  0.1795 -0.1242
38368W        W39232   7.617  12.130  26.316  0.0167  0.0981 -0.2399
38369W        W39233   3.793  13.259  24.054  0.0292 -0.2097  0.1965
38370W        W39234   4.489  13.501  26.985 -0.1514  0.2320  0.1456
38371W        W39235   2.788  16.694  25.753 -0.2343 -0.1565 -0.0827
38372W        W39236   8.496  14.031  28.382  0.1976 -0.3117 -0.0730
38373W        W39237   9.036  13.627  23.705 -0.4890  0.0173  0.1190
38374W        W39238   6.453  15.443  26.627  0.1169 -0.1579  0.0303
38375W        W39239   6.336  13.024  25.485 -0.0279 -0.1735 -0.0711
38376W        W39240   6.281  12.557  25.622  0.1243 -0.1098  0.2497
38377W        W39241   5.171  10.293  24.690  0.2293  0.4141  0.1282
38378W        W39242   5.954  13.044  26.973 -0.0113  0.2907  0.0657
38379W        W39243   6.091  13.295  23.580 -0.0537  0.1913 -0.2480
38380W        W39244   7.199  14.388  23.739 -0.0978  0.0281 -0.0576
38381W        W39245   5.664  14.972  28.935  0.3756 -0.1183  0.2449
38382W        W39246   3.448  11.289  24.579  0.0435 -0.1480  0.2924
38383W        W39247   5.810  12.670  26.318  0.0303  0.0612 -0.3613
38384W        W39248   2.985  16.993  26.744 -0.1357 -0.1002 -0.0340
38385W        W39249   4.155  13.287  25.188 -0.1859 -0.1100  0.0684
38386W        W39250   5.486  10.777   0.814  0.1722  0.0341 -0.0868
38387W        W39251   6.275  12.526  26.192 -0.1385 -0.0829  0.1408
38388W        W39252   8.184  13.442  25.373  0.0602  0.3172 -0.3125
38389W        W39253   6.013  12.116  26.393 -0.0878 -0.0136  0.1446
38390W        W39254   3.862  12.770  26.192  0.0717 -0.1839  0.2030
38391W        W39255   3.568  13.082  28.228 -0.2278 -0.0680 -0.1410
38392W        W39256   9.019  12.292  26.814  0.4382  0.0708  0.0154
38393W        W39257   2.766   9.336  25.861 -0.2201 -0.2224  0.0643
38394W        W39258   6.681  12.181  27.123  0.1394  0.1234 -0.0297
38395W        W39259   9.115  12.890  23.968 -0.0886 -0.1820 -0.0318
38396W        W39260   4.933  13.511  25.934  0.4205 -0.2315 -0.0131
38397W        W39261   8.206  12.595   0.274  0.1416 -0.0455 -0.1831
38398W        W39262   1.944  10.495  24.652  0.1080  0.2397 -0.0467
38399W        W39263   6.560  13.938  27.940  0.0263 -0.1877  0.2536
38400W        W39264   6.431  13.173  26.902 -0.2246  0.1068 -0.3749
38401W        W39265   7.614  14.578  25.303 -0.1413 -0.1641 -0.3359
38402W        W39266   5.016  13.473  25.175  0.0171 -0.0188  0.0799
38403W        W39267   5.517  15.699   1.704  0.0175 -0.0210 -0.0451
38404W        W39268   6.284  14.486  28.554 -0.1687 -0.2677 -0.0705
38405W        W39269   6.624  12.923  26.129 -0.3826 -0.1373 -0.2648
38406W        W39270   4.139  11.776  27.355 -0.2010 -0.2343  0.3413
38407W        W39271   9.515  14.620  24.636  0.0025  0.2003  0.1085
38408W        W39272   8.719  12.229  27.205  0.1924  0.0377 -0.0002
38409W        W39273   6.031  13.768  25.532 -0.2588 -0.0686  0.1139
38410W        W39274   6.955  15.618  23.457  0.0603 -0.2882 -0.2191
38411W        W39275   6.182  12.106   1.459  0.2466  0.1788 -0.0545
38412W        W39276   4.417  13.642  28.355 -0.0918 -0.1447 -0.0569
38413W        W39277   7.458  11.386  27.994  0.3368  0.2070  0.2637
38414W        W39278   6.654  11.472  26.153  0.2227  0.0066  0.1164
38415W        W39279   7.426  15.483  27.692  0.1145 -0.4607 -0.0149
38416W        W39280   2.613  10.905  28.688  0.2819  0.1916  0.1438
38417W        W39281   6.986  13.624  26.598 -0.4030  0.2751  0.0630
38418W        W39282   3.980  10.678   4.525 -0.0870 -0.0455  0.3406
38419W        W39283   6.040  15.273  28.315 -0.0090 -0.2738  0.1222
38420W        W39284   6.829  14.788  26.804  0.1074  0.0855 -0.0059
38421W        W39285   7.465  17.160  23.844  0.0216 -0.1094  0.2272
38422W        W39286   6.044  15.789  25.928 -0.0460 -0.0819 -0.0856
38423W        W39287   3.947  11.622  28.513 -0.2871  0.1289  0.1176
38424W        W39288   5.585  13.813  27.872  0.0460  0.0946  0.1139
38425W        W39289   3.566  16.316  25.542 -0.0836  0.1998  0.2462
38426W        W39290   6.581  13.932  25.775 -0.2559 -0.1718 -0.2004
38427W        W39291   6.108  11.708  27.627 -0.0013 -0.3484  0.1915
38428W        W39292   6.708  14.582  25.556  0.0483  0.2939 -0.1474
38429W        W39293   6.726  13.160  26.549  0.0895  0.1725  0.0374
38430W        W39294   4.763  12.803   0.200  0.3006 -0.0323  0.1312
38431W        W39295   7.159  10.999  25.319  0.1978 -0.2386 -0.1397
38432W        W39296   4.939  14.953  26.740 -0.3727 -0.1062  0.0116
38433W        W39297   6.374  15.381  22.721  0.1776  0.1653  0.1783
38434W        W39298   4.925  11.930   0.230 -0.1159  0.1596 -0.2246
38435W        W39299   5.905  14.211  28.067  0.0840 -0.2419 -0.1066
38436W        W39300   4.972  10.830  24.214 -0.0953 -0.1488  0.0904
38437W        W39301   4.421  11.627  28.807  0.1931  0.1841  0.1105
38438W        W39302   4.972  14.715  25.162 -0.2143 -0.0312 -0.0198
38439W        W39303   6.876  14.415  27.716 -0.0640  0.1826 -0.1172
38440W        W39304   3.673  14.431   0.640 -0.1728  0.0959  0.1047
38441W        W39305   7.427  14.419  24.187 -0.0529  0.0292  0.0718
38442W        W39306   5.387  13.315  27.701 -0.0588 -0.1139 -0.0124
38443W        W39307   3.973  15.400  27.200 -0.3353 -0.0846 -0.4412
38444W        W39308   4.075  15.850  29.145 -0.1487 -0.3004  0.2010
38445W        W39309   8.822  14.506  27.326 -0.0569 -0.2447  0.0208
38446W        W39310   4.171  15.025  26.735  0.2122 -0.3739 -0.0834
38447W        W39311   5.338  11.313  24.896  0.3866 -0.1135  0.2923
38448W        W39312   7.016  12.754  26.489  0.0525 -0.0418 -0.3226
38449W        W39313   7.337  11.824  25.755 -0.1719  0.1002 -0.2733
38450W        W39314   4.111   9.385   0.565  0.0806 -0.0855 -0.2143
38451W        W39315   7.358  14.616  26.855  0.0128 -0.2051  0.0783
38452W        W39316   6.407  14.314  27.517 -0.3169 -0.1937 -0.4401
38453W        W39317   6.295  13.291  24.609 -0.1726  0.0044 -0.0289
38454W        W39318   5.120  13.842  27.691  0.1700  0.1230 -0.0734
38455W        W39319   6.580  15.751  26.170 -0.0081  0.1419  0.2818
38456W        W39320   6.519  11.796  26.588 -0.1398 -0.1770 -0.0146
38457W        W39321   5.383  15.184  26.565 -0.1377 -0.0547 -0.2141
38458W        W39322   5.674  13.386  28.496  0.0529 -0.1911 -0.0857
38459W        W39323   5.104  12.926  25.062  0.0190  0.0667  0.0715
38460W        W39324   7.413  15.372  25.180  0.2324  0.1658  0.2458
38461W        W39325   4.343  13.105  28.401 -0.1051  0.2812 -0.0922
38462W        W39326   6.783  11.612  23.512  0.2486 -0.1758  0.0078
38463W        W39327   4.527  13.997  23.838  0.2303 -0.1309  0.0714
38464W        W39328   5.642  14.331   1.474 -0.0615 -0.2272  0.0166
38465W        W39329   4.212  11.900  26.896 -0.0451 -0.2132 -0.0030
38466W        W39330   4.418  14.008  25.915 -0.0094 -0.1636  0.2323
38467W        W39331   4.642  11.888  27.183 -0.0506  0.1327 -0.2574
38468W        W39332   7.758  13.376  28.091  0.1105  0.2316  0.2658
38469W        W39333   3.757  11.212  28.215 -0.0475  0.0125  0.1567
38470W        W39334   5.791  13.652  26.110 -0.0688  0.0577 -0.0437
38471W        W39335   3.603  14.479  25.850  0.2241 -0.0115  0.2462
38472W        W39336   6.181  11.964   0.915 -0.0399 -0.0672  0.0763
38473W        W39337   3.587  13.096  25.520  0.0519  0.0122  0.0926
38474W        W39338   7.500  12.003  23.253 -0.3301  0.1800  0.1923
38475W        W39339   4.187  14.849  23.547  0.0729 -0.4801  0.0967
38476W        W39340   4.218  16.100  25.995  0.0229  0.1465 -0.1378
38477W        W39341   7.939  10.813  25.152 -0.2014 -0.0541  0.0586
38478W        W39342   7.404  12.839  28.431  0.3206  0.2542 -0.2636
38479W        W39343   6.529  13.586  23.776  0.2082 -0.0295 -0.1371
38480W        W39344   3.285  12.515   2.170  0.0661 -0.3087 -0.2118
38481W        W39345   5.701  11.941  25.031  0.0483  0.0793 -0.3475
38482W        W39346   5.345  11.673  23.175 -0.1049 -0.1223 -0.0891
38483W        W39347   6.921  15.144  24.774  0.1679  0.3485  0.2226
38484W        W39348   6.560  13.629  25.397 -0.2329  0.3778 -0.1753
38485W        W39349   5.536  14.129  27.507  0.0241  0.4392  0.0978
38486W        W39350   5.018  15.327  27.927  0.3756 -0.1553  0.1676
38487W        W39351   5.638  14.465  25.164  0.1268  0.0244  0.0767
38488W        W39352   7.042   9.484  26.224  0.0917  0.3562  0.0862
38489W        W39353   5.528  13.131  27.220 -0.0979  0.0657 -0.0288
38490W        W39354   7.452  13.060  25.849  0.0296 -0.2916  0.1846
38491W        W39355   7.139  12.014  27.302 -0.3148 -0.0382  0.4382
38492W        W39356   4.451  14.810  28.599 -0.0998 -0.0261  0.0486
38493W        W39357   2.679  13.549  26.697  0.0517  0.0831  0.1171
38494W        W39358   6.019  11.332  29.057  0.2935 -0.1598 -0.3437
38495W        W39359   5.699  16.242   1.764 -0.1524  0.2000  0.3566
38496W        W39360   6.552  13.780  27.428 -0.1015 -0.2877  0.2546
38497W        W39361   6.391  11.949  23.402  0.1231 -0.4900  0.1877
38498W        W39362   8.112  12.627  27.585 -0.3647  0.1741 -0.0430
38499W        W39363   6.876  15.102  28.672  0.1429  0.0187  0.2550
38500W        W39364   7.182  12.695  24.405 -0.1703  0.0672 -0.0967
38501W        W39365   5.381  13.712  27.166 -0.1975  0.1932  0.0206
38502W        W39366   5.362  14.523  28.879 -0.2728  0.0706  0.2043
38503W        W39367   7.543  10.135  26.108  0.0906  0.2996 -0.0497
38504W        W39368   6.890  12.665  29.109 -0.1731 -0.0420  0.0400
38505W        W39369   6.398  13.311  28.334 -0.0900  0.1205 -0.1632
38506W        W39370   8.182  13.986  28.823  0.1618  0.1698  0.0360
38507W        W39371   3.612  14.279  28.220 -0.2022 -0.1766 -0.2545
38508W        W39372   8.158  11.895   2.559  0.0302  0.0915 -0.2441
38509W        W39373   7.313  12.583  25.562  0.0032  0.1846 -0.2272
38510W        W39374   5.571  10.012  27.349  0.2492 -0.0509  0.3575
38511W        W39375   8.076  16.602  26.360  0.0272 -0.0719  0.0055
38512W        W39376   5.604  14.400  28.497 -0.0059  0.3914  0.0702
38513W        W39377   2.190  13.490  27.095 -0.1147  0.2743  0.1668
38514W        W39378   9.332  14.072  26.579  0.0245 -0.2448 -0.0100
38515W        W39379   7.338  11.000  26.332  0.1917 -0.4214  0.0027
38516W        W39380   5.738  15.594  27.796 -0.1910 -0.1986 -0.0840
38517W        W39381   6.511  13.970  26.330 -0.0183 -0.0298  0.2106
38518W        W39382   5.032  16.410  27.348  0.0825 -0.2271 -0.1701
38519W        W39383   6.202  12.203  28.858  0.1779  0.3824 -0.1175
38520W        W39384   1.522  12.776  28.373 -0.1540  0.0581  0.1780
38521W        W39385   6.867  12.960  28.259  0.0509 -0.1787 -0.1596
38522W        W39386   4.129  13.690  26.565  0.2328  0.0756 -0.1567
38523W        W39387   5.679  12.334  28.971 -0.0050  0.0762 -0.0183
38524W        W39388   5.988  12.795  25.247 -0.2552  0.3109 -0.1068
38525W        W39389   7.135  14.654  28.637  0.3722  0.2797  0.0851
38526W        W39390   6.387  14.390  28.033  0.1198 -0.0986 -0.0940
38527W        W39391   7.548  13.030   0.750  0.1749 -0.0427 -0.0250
38528W        W39392   7.874  12.717  28.552 -0.0115 -0.2614 -0.0040
38529W        W39393   5.254  14.857  26.202  0.0687 -0.0533 -0.0272
38530W        W39394   7.726  14.205  23.782  0.2190 -0.1045  0.2147
38531W        W39395   8.207  13.044  27.397 -0.0220  0.0331 -0.1243
38532W        W39396   8.329  11.120  26.117 -0.2399  0.1159  0.3834
38533W        W39397   2.769  11.044  26.283 -0.1569 -0.1341  0.0887
38534W        W39398   5.288  11.767  27.008  0.2845  0.0995  0.0031
38535W        W39399   4.711  11.271  28.425  0.3423  0.0120 -0.0077
38536W        W39400   5.275  13.245  25.485  0.1015  0.1414  0.1905
38537W        W39401   6.226  12.934  26.511  0.0141 -0.0767  0.1087
38538W        W39402   6.643  13.199   0.666 -0.0330 -0.0949  0.0185
38539W        W39403   3.351  12.915  25.885 -0.1070  0.0762 -0.1424
38540W        W39404   3.454   9.777  25.607  0.0222 -0.1344  0.2210
38541W        W39405   4.963  12.804  25.910 -0.1821  0.1487  0.0313
38542W        W39406   3.482  13.789  25.860 -0.2174 -0.2059  0.0921
38543W        W39407   4.964  12.123  23.256 -0.0280  0.1088 -0.2974
38544W        W39408   7.132  11.382  26.024  0.0826  0.0776 -0.0390
38545W        W39409   8.580  13.475  26.203  0.0098 -0.0184 -0.0369
38546W        W39410   7.909  14.301  26.062 -0.1097  0.0282  0.0807
38547W        W39411   6.668  17.752  25.498  0.1518  0.0583  0.1983
38548W        W39412   4.673   9.254  25.079  0.0522  0.1613  0.0203
38549W        W39413   4.775  14.172  29.026  0.1519  0.2045  0.0201
38550W        W39414   6.047  15.128   1.686  0.0002 -0.0328  0.1712
38551W        W39415   4.342  12.469   2.721  0.1376  0.4068 -0.2710
38552W        W39416   5.659  12.681   0.173 -0.2728 -0.1108 -0.1004
38553W        W39417   2.547  12.654  23.415  0.2776  0.0966 -0.1521
38554W        W39418   5.559  13.278  29.118 -0.3144  0.0372 -0.1133
38555W        W39419   3.714  15.955  27.222 -0.2151  0.0458 -0.2306
38556W        W39420   5.203   9.067  24.480  0.2192  0.0414  0.2085
38557W        W39421   4.388  17.186  25.140  0.1005  0.3504 -0.0628
38558W        W39422   7.530  13.317  28.668 -0.1666  0.1677 -0.6893
38559W        W39423   7.415  14.282  28.857 -0.2372 -0.0359 -0.0233
38560W        W39424   6.502  13.733  24.410 -0.1386 -0.0227  0.0660
38561W        W39425   5.001  10.993  25.723  0.0937 -0.0511 -0.0834
38562W        W39426   7.874  12.905  26.102  0.0376  0.3693 -0.3943
38563W        W39427   5.303  14.723  23.335  0.1456 -0.3458  0.1257
38564W        W39428   8.471  12.303  28.948 -0.1361 -0.0649 -0.1220
38565W        W39429   7.316  16.533  25.719  0.1495  0.0199 -0.0250
38566W        W39430   8.733  13.658   0.088  0.0194  0.4166 -0.1379
38567W        W39431   9.324  14.696  26.532  0.3666  0.2206 -0.0911
38568W        W39432   5.835  13.752   1.192  0.1663 -0.0175  0.0515
38569W        W39433   6.195  13.530  27.210  0.2279  0.0995  0.1106
38570W        W39434   7.144  13.358  28.039 -0.1896 -0.1824  0.0109
38571W        W39435   7.504  14.760   0.157 -0.0517  0.0746 -0.1728
38572W        W39436   3.503  16.324   0.517 -0.0233  0.0816  0.0387
38573W        W39437   8.932  11.313  27.869  0.0277 -0.2633  0.0757
38574W        W39438   5.207  12.806  29.074  0.2616 -0.0994  0.0536
38575W        W39439   6.164  13.491  27.729 -0.1563  0.2770 -0.2441
38576W        W39440   5.525  14.144   0.189 -0.1245  0.1231  0.0162
38577W        W39441   5.353  13.895   1.252  0.3045  0.2592 -0.1246
38578W        W39442   3.055  11.307   0.269  0.0326  0.0706 -0.0323
38579W        W39443   7.723  13.665  26.724  0.0335  0.0169 -0.1070
38580W        W39444   3.613  14.650  26.514 -0.1515 -0.1300  0.1960
38581W        W39445   5.094  15.831  26.215 -0.0815  0.0540 -0.1504
38582W        W39446   9.262  13.745  25.771  0.0362  0.0823  0.0114
38583W        W39447   7.356  12.824  26.896  0.5071  0.2390  0.1962
38584W        W39448   3.667  12.050  28.669  0.1059  0.0807  0.2622
38585W        W39449   8.453  14.720  24.989  0.0534 -0.0436 -0.1216
38586W        W39450   8.082  14.975  27.097 -0.0260  0.1112 -0.1270
38587W        W39451   5.181  14.077  28.778  0.0039  0.1540 -0.1690
38588W        W39452   5.715  10.212  26.158  0.0342 -0.1157  0.1285
38589W        W39453   7.248  14.289  24.688  0.2392 -0.0785  0.0754
38590W        W39454   5.250  15.703  25.451 -0.2770 -0.0343  0.2183
38591W        W39455   5.806  15.263  26.878 -0.3607  0.3884 -0.0090
38592W        W39456   4.571  13.250  23.083 -0.0001 -0.0260  0.0891
38593W        W39457   0.035  17.639   2.602  0.0913 -0.1333 -0.0632
38594W        W39458   6.272  16.771   3.977 -0.0804 -0.0216 -0.0541
38595W        W39459   7.066  18.905   0.339 -0.0401 -0.0699  0.3410
38596W        W39460   8.250  15.922   1.440  0.0437 -0.2218  0.4667
38597W        W39461   4.674  17.095  26.749  0.0141 -0.1830 -0.1607
38598W        W39462   6.250  16.861   1.538 -0.0653  0.1131  0.0288
38599W        W39463   3.438  17.045   0.637 -0.1133  0.2009  0.2102
38600W        W39464   7.987  15.576  29.040 -0.1281 -0.1018  0.1847
38601W        W39465   8.042  17.430   2.581  0.1694 -0.0721 -0.0207
38602W        W39466   3.471  15.196   4.675 -0.0164  0.2834  0.2706
38603W        W39467   3.507  15.148   5.392 -0.1161  0.1433 -0.1484
38604W        W39468   7.325  15.202   3.316 -0.0619  0.4003 -0.1471
38605W        W39469   5.521  13.837   0.737  0.1104  0.1401 -0.2628
38606W        W39470   7.597  17.166   3.340 -0.1791 -0.0084 -0.0531
38607W        W39471   3.464  14.486   3.614  0.2246 -0.1146  0.1350
38608W        W39472   5.512  17.351   6.360 -0.2008 -0.3091 -0.0152
38609W        W39473   5.442  16.589   0.917  0.3798 -0.0798  0.0071
38610W        W39474   2.629  15.334   3.130 -0.2620 -0.2168  0.3216
38611W        W39475   4.311  14.322   1.610  0.0010 -0.1763  0.1710
38612W        W39476   8.089  15.215   2.183  0.0956  0.0219 -0.3182
38613W        W39477   9.013  12.564   3.273  0.0209 -0.1611  0.1182
38614W        W39478   7.335  16.553   1.291  0.2651 -0.0024  0.0130
38615W        W39479   6.910  17.252   0.897 -0.0960  0.2177 -0.0919
38616W        W39480   7.968  17.102   2.946 -0.1255 -0.1008 -0.1546
38617W        W39481   3.559  17.438  28.512  0.3753  0.0130  0.1950
38618W        W39482   7.936  15.630   2.489 -0.0779 -0.0659 -0.3608
38619W        W39483   7.916  15.540   3.922 -0.0362  0.0064  0.0608
38620W        W39484   7.056  18.466   1.154  0.3164  0.1305 -0.1121
38621W        W39485   6.755  14.742  28.345 -0.0055  0.1812  0.0358
38622W        W39486   5.590  17.591   2.576  0.4681  0.0340 -0.0343
38623W        W39487   5.013  19.340   2.909 -0.1028  0.0261  0.0278
38624W        W39488   6.727  18.002   1.317 -0.0087  0.2724 -0.1263
38625W        W39489   7.114  15.484   1.096  0.0386  0.1177  0.2510
38626W        W39490   8.065  14.338   2.072 -0.3567  0.2531  0.2209
38627W        W39491   4.982  15.293   2.454 -0.4892 -0.0985  0.0857
38628W        W39492   5.250  16.355   3.166  0.0754 -0.1902 -0.1500
38629W        W39493   4.039  16.624  28.843 -0.0173 -0.2091  0.0057
38630W        W39494   4.580  18.143   3.019  0.1162 -0.0178 -0.1433
38631W        W39495   7.657  16.456  28.593  0.2545 -0.2321  0.2438
38632W        W39496   6.860  15.672   2.570 -0.1007  0.0840 -0.2580
38633W        W39497   7.845  17.616   0.570  0.2003 -0.0024 -0.5735
38634W        W39498   9.218  14.443  28.088  0.0432  0.2075 -0.1446
38635W        W39499   7.510  18.364   3.348 -0.2200  0.1180 -0.0018
38636W        W39500   8.512  16.408   0.729  0.0352  0.0493  0.1115
38637W        W39501   5.742  18.452   0.670 -0.0432  0.2774 -0.0217
38638W        W39502   4.373  19.336   0.855 -0.0856 -0.0936  0.0744
38639W        W39503   3.526  14.763   2.359  0.0868 -0.0608 -0.2020
38640W        W39504   6.781  17.374   3.531 -0.4533 -0.2330 -0.2885
38641W        W39505   7.109  17.561   0.504 -0.0198 -0.1837 -0.3013
38642W        W39506   6.435  15.490   2.295 -0.2115 -0.1491 -0.0446
38643W        W39507   7.544  15.874   2.129 -0.0315 -0.0056  0.1313
38644W        W39508   7.833  17.486  27.407  0.1925  0.2371 -0.0623
38645W        W39509   6.590  17.187   3.122 -0.0616 -0.0032  0.0241
38646W        W39510   7.747  20.018   4.524 -0.3508 -0.0469  0.1350
38647W        W39511   4.783  16.477   0.856 -0.0382 -0.0734 -0.1403
38648W        W39512   7.027  19.973  27.534  0.0651  0.3791  0.3182
38649W        W39513   4.442  16.467   1.277 -0.0713  0.0911 -0.0372
38650W        W39514   7.153  15.903  29.129  0.2011 -0.1143 -0.1697
38651W        W39515   8.693  17.962   3.940  0.1613  0.1760 -0.0384
38652W        W39516   8.219  15.649   1.909 -0.3792 -0.2288  0.5183
38653W        W39517   7.585  15.293   0.912  0.0863  0.1297  0.4827
38654W        W39518   4.482  17.879   1.774  0.0819 -0.3381  0.2993
38655W        W39519   4.863  17.286   3.036  0.3531  0.4323 -0.0680
38656W        W39520   3.690  15.525   2.785  0.0268  0.2084 -0.3089
38657W        W39521   7.023  16.494   3.130  0.1537 -0.0485  0.2946
38658W        W39522   8.184  16.273   2.654  0.0836  0.1322  0.2931
38659W        W39523   6.744  16.872   3.794  0.2146 -0.0490  0.3534
38660W        W39524   4.983  15.675   1.455 -0.3771  0.1034 -0.2151
38661W        W39525   5.225  14.658   1.599 -0.2201  0.0681  0.2308
38662W        W39526   6.650  15.708   3.107  0.0955 -0.3329  0.1206
38663W        W39527   9.337  17.395   2.054 -0.0451  0.1721 -0.0714
38664W        W39528   6.182  13.616  28.669 -0.2531 -0.0292 -0.1898
38665W        W39529   6.116  16.968   2.167  0.0400  0.1235  0.0640
38666W        W39530   8.220  17.399   3.266 -0.3534  0.1825  0.1311
38667W        W39531   6.238  17.323   1.678 -0.2018  0.1306 -0.1686
38668W        W39532   7.567  16.462   5.285 -0.1888  0.3109  0.3259
38669W        W39533   2.408  15.729   1.985  0.0693  0.1308  0.1816
38670W        W39534   3.603  15.195   3.152  0.2940  0.0765  0.1269
38671W        W39535   7.080  16.167   1.817  0.1637  0.0821  0.2848
38672W        W39536   5.984  20.732   0.104 -0.1305  0.3765 -0.3272
38673W        W39537   7.265  16.161   3.488 -0.0917  0.1324 -0.0453
38674W        W39538   6.718  15.199   3.919  0.2714 -0.0446 -0.1325
38675W        W39539   4.814  15.959   0.588 -0.0790  0.1153 -0.1294
38676W        W39540   5.496  14.044   3.277  0.3981 -0.0333  0.3341
38677W        W39541   9.118  15.820   4.542 -0.0211  0.1867  0.1739
38678W        W39542   6.879  15.927  27.341  0.0073  0.1855 -0.1518
38679W        W39543   7.953  18.088   1.928 -0.0547  0.2222 -0.0496
38680W        W39544   7.259  18.129   5.263  0.3380 -0.1681  0.0150
38681W        W39545   8.363  18.873   3.777 -0.0887  0.2978 -0.0810
38682W        W39546   6.636  15.863   4.555  0.1214  0.2453 -0.1903
38683W        W39547   8.610  15.062  27.936  0.5191  0.3239 -0.0920
38684W        W39548   8.061  16.337   4.732 -0.0342  0.1323  0.0426
38685W        W39549   3.357  19.472   2.007 -0.5472  0.0061  0.0594
38686W        W39550   5.208  15.229   1.409 -0.0171  0.1502 -0.2277
38687W        W39551   1.578  14.551   1.348  0.2068  0.2568  0.0312
38688W        W39552   8.168  15.470  27.868  0.1225 -0.0739 -0.1588
38689W        W39553   6.986  15.212   1.786 -0.3899  0.0731  0.2029
38690W        W39554   7.024  18.461   3.189  0.2324  0.1532 -0.0334
38691W        W39555   5.533  15.503   0.085  0.1019 -0.1244 -0.2503
38692W        W39556   5.681  14.203   1.016  0.0262 -0.0372  0.0083
38693W        W39557   7.048  18.637   1.874  0.1341  0.0609  0.0211
38694W        W39558   3.140  14.678   0.484  0.5932 -0.3817  0.0746
38695W        W39559   5.356  15.540  27.502  0.2176 -0.5753  0.0444
38696W        W39560   8.748  16.802   1.978 -0.2440  0.0515 -0.0297
38697W        W39561   8.770  13.414   2.973 -0.2565 -0.1710 -0.0637
38698W        W39562   5.209  16.394   3.664  0.0254  0.0299  0.0939
38699W        W39563   6.232  17.131  28.751 -0.0968 -0.0190 -0.2558
38700W        W39564   8.008  16.072   2.081 -0.0575 -0.0357  0.0301
38701W        W39565   5.954  15.168   0.999  0.0883 -0.0948  0.1150
38702W        W39566   4.480  15.253   2.236  0.3358 -0.1509 -0.0894
38703W        W39567   3.210  16.081   5.082 -0.3157 -0.3723  0.2397
38704W        W39568   7.350  15.232   0.278 -0.3141  0.0917 -0.1250
38705W        W39569   4.328  15.401   0.853 -0.2522  0.0380  0.2410
38706W        W39570   7.788  17.564   3.078  0.0999 -0.0027 -0.1099
38707W        W39571   9.185  17.726  27.373  0.1553  0.1034 -0.2504
38708W        W39572   7.651  14.447   2.514  0.3914 -0.1089 -0.0730
38709W        W39573   8.382  13.498   1.269 -0.1601 -0.3910 -0.1658
38710W        W39574   4.887  18.798   1.938  0.0237  0.0962  0.3526
38711W        W39575   8.251  15.874   3.869 -0.2368  0.1108 -0.0948
38712W        W39576   7.355  16.284   0.841 -0.1640  0.2911  0.1020
38713W        W39577   5.652  13.795  28.903 -0.0055  0.0663  0.2193
38714W        W39578   9.881  16.520   2.333 -0.0996  0.1513  0.0942
38715W        W39579   9.279  17.311   3.564 -0.1110  0.3314  0.0084
38716W        W39580   8.193  18.872  28.911  0.1300  0.1513 -0.2016
38717W        W39581   3.422  17.037   1.445  0.2473  0.1821 -0.2845
38718W        W39582   6.669  17.057   1.772 -0.1690  0.0253 -0.1236
38719W        W39583   4.685  16.954   2.007 -0.1631  0.1026  0.1165
38720W        W39584   8.038  16.784   3.944  0.1867  0.0575  0.0020
38721W        W39585   9.939  19.036   4.612 -0.2308 -0.1696 -0.2606
38722W        W39586   6.285  17.774   1.920 -0.0611  0.1806  0.0594
38723W        W39587   7.003  17.027   2.733 -0.1139 -0.2462 -0.1158
38724W        W39588   7.448  16.858   3.008 -0.0283 -0.1459  0.1692
38725W        W39589   3.733  18.324   3.362  0.2676  0.1118 -0.0255
38726W        W39590   8.102  16.642   0.911 -0.3979 -0.2881 -0.0237
38727W        W39591   7.959  15.118   4.238  0.1843 -0.2807 -0.0323
38728W        W39592   2.906  15.291   2.633 -0.2554  0.0674 -0.1234
38729W        W39593   7.478  14.807   1.134  0.0259 -0.0564 -0.3365
38730W        W39594   8.143  14.636   4.403  0.1173 -0.1091  0.0335
38731W        W39595   5.757  17.281   2.982 -0.0962 -0.1003  0.2465
38732W        W39596   2.885  20.369   0.416  0.1457  0.2770  0.1373
38733W        W39597   5.857  15.691   2.598  0.2591  0.1619 -0.0220
38734W        W39598   6.297  14.495   3.288 -0.0211  0.2324 -0.1127
38735W        W39599   6.563  18.287  28.762  0.1337 -0.0124 -0.1468
38736W        W39600   5.021  16.867  29.099 -0.4041  0.2392  0.0760
38737W        W39601   8.134  16.345   3.789 -0.0328  0.1390  0.0096
38738W        W39602   5.140  17.274   0.597  0.0297 -0.3323 -0.2194
38739W        W39603   7.859  15.755   0.660 -0.1495 -0.1765  0.3027
38740W        W39604   7.065  18.978   2.228  0.0737 -0.0836 -0.0779
38741W        W39605   6.532  18.396   1.013 -0.1056  0.0677  0.2606
38742W        W39606   7.379  16.411   2.813 -0.1950 -0.1970 -0.0432
38743W        W39607   7.795  18.085   1.433  0.0853  0.2690 -0.2989
38744W        W39608   3.181  16.024   1.345  0.0536 -0.0832  0.3075
38745W        W39609   3.133  16.720  27.923 -0.2949  0.1795 -0.4268
38746W        W39610   5.939  16.328  27.135  0.1915  0.2384 -0.2519
38747W        W39611   5.384  15.036   4.005  0.1855  0.0186 -0.1144
38748W        W39612   6.978  13.686   1.761 -0.0275 -0.0213  0.0368
38749W        W39613   3.036  17.490   1.938 -0.1724 -0.2444  0.1086
38750W        W39614   6.804  16.133   3.390  0.0821 -0.0145 -0.1029
38751W        W39615   6.571  14.393  26.058  0.0007 -0.2163  0.1195
38752W        W39616   8.023  16.887   3.376  0.3956 -0.1232  0.0281
38753W        W39617   7.737  14.807   2.099 -0.0671  0.1802  0.1338
38754W        W39618   4.433  15.470   5.886 -0.2415 -0.1439  0.4569
38755W        W39619   4.520  15.556   4.597 -0.0264  0.0027  0.1695
38756W        W39620   6.732  16.928   4.864  0.1313  0.1696 -0.1712
38757W        W39621   6.514  15.989   6.841 -0.0394  0.3488  0.1445
38758W        W39622   6.978  14.953   1.163  0.4129  0.1247 -0.0173
38759W        W39623   4.855  15.982   1.108 -0.3779  0.0380  0.0600
38760W        W39624   5.644  15.387   1.342 -0.2225  0.0957  0.2667
38761W        W39625   7.117  16.800   0.880 -0.2194  0.2865 -0.0695
38762W        W39626   7.113  14.565   1.543  0.2029  0.0085 -0.0893
38763W        W39627   6.736  18.121   1.856 -0.1451 -0.3329  0.0386
38764W        W39628   7.787  15.690   1.676 -0.1628  0.0485 -0.1036
38765W        W39629   5.845  17.058   3.372 -0.3295 -0.1625  0.3208
38766W        W39630   7.124  15.859  27.773  0.1722  0.1789 -0.0196
38767W        W39631   5.812  13.568   2.170  0.2934 -0.0911  0.0008
38768W        W39632   8.602  13.530   0.606  0.0550  0.1426  0.0245
38769W        W39633   2.098  16.005   3.705 -0.0409  0.1287 -0.2974
38770W        W39634   3.484  16.772   3.633  0.0612  0.1566 -0.2050
38771W        W39635   3.303  18.336   2.090  0.0407 -0.2680 -0.2733
38772W        W39636   6.237  12.438   3.158 -0.0540 -0.3795  0.0329
38773W        W39637   5.875  16.916  29.117  0.0899  0.4677  0.2303
38774W        W39638   7.166  19.233  28.156 -0.0239 -0.3659 -0.0426
38775W        W39639   5.754  15.757  28.272  0.2380 -0.1924  0.1195
38776W        W39640   3.107  15.358   1.715 -0.0091 -0.0941  0.0469
38777W        W39641   5.312  15.713  28.048  0.1194 -0.1222  0.1983
38778W        W39642   6.411  18.708   5.137  0.0927  0.0958 -0.2552
38779W        W39643   7.804  16.264   0.640  0.1286  0.0917  0.0686
38780W        W39644   3.402  18.234   1.453  0.0689  0.0157  0.2285
38781W        W39645   5.591  18.021   4.575 -0.0528  0.1987 -0.2502
38782W        W39646   5.887  16.130   3.513  0.3321 -0.1311  0.1769
38783W        W39647   3.623  16.741   0.067 -0.2339  0.1423  0.4125
38784W        W39648   4.267  19.152  28.398 -0.0300 -0.2588  0.1581
38785W        W39649   3.219  15.764   4.432  0.1965  0.0083 -0.1807
38786W        W39650   6.174  16.690   6.616 -0.0672 -0.0353  0.1027
38787W        W39651   6.493  15.866   1.651  0.0393  0.0542 -0.1739
38788W        W39652   2.540  13.023   2.708 -0.4105 -0.0759  0.2037
38789W        W39653   7.136  14.644   0.479 -0.0388 -0.4697  0.1422
38790W        W39654   4.967  14.271   3.141 -0.2151  0.0018  0.2310
38791W        W39655   7.336  14.937   2.367  0.3531  0.0758  0.1412
38792W        W39656   8.566  12.741   0.857 -0.1998 -0.1047  0.2888
38793W        W39657   3.697  14.802  28.879  0.2297  0.0797  0.0293
38794W        W39658   7.797  14.309  28.548  0.2131  0.3201  0.4978
38795W        W39659   6.107  16.504  27.520  0.2306  0.0371 -0.1254
38796W        W39660   4.659  15.192   4.920 -0.2884  0.0251  0.1308
38797W        W39661   5.609  18.156   5.918  0.2792  0.0685  0.2698
38798W        W39662   5.055  16.074   1.770 -0.0122 -0.1446  0.1530
38799W        W39663   5.247  17.251   2.712  0.0703  0.0966  0.2975
38800W        W39664   6.942  15.275   2.286  0.0495  0.0154 -0.0364
38801W        W39665   4.476  18.469  29.027 -0.2854  0.3114 -0.0285
38802W        W39666   3.508  18.661   2.394 -0.1829  0.2533 -0.0414
38803W        W39667   6.838  16.467   4.184 -0.3990 -0.1677 -0.2687
38804W        W39668   4.467  15.690   4.071 -0.0454  0.2849 -0.3888
38805W        W39669   5.044  17.857   2.714 -0.1927 -0.0636  0.0181
38806W        W39670   7.312  14.523   2.906  0.1165  0.0060 -0.2127
38807W        W39671   8.746  15.465   6.240  0.1653  0.1190 -0.2120
38808W        W39672   8.560  16.269  28.826 -0.0107  0.0893 -0.6969
38809W        W39673   6.891  16.627  28.244  0.0838  0.0637  0.2334
38810W        W39674   8.263  16.842   1.791 -0.1716  0.1871 -0.0859
38811W        W39675   8.549  18.344   4.809 -0.1424  0.1033  0.0157
38812W        W39676   3.391  14.416   6.541  0.0086  0.1245  0.1122
38813W        W39677   8.380  15.450   1.465  0.1431  0.1708 -0.2093
38814W        W39678   7.712  14.861   0.627 -0.1337  0.2279  0.0635
38815W        W39679   6.444  18.578   4.407  0.1488 -0.1352 -0.3570
38816W        W39680   5.123  14.462   0.142  0.1770 -0.1428 -0.1817
38817W        W39681   6.754  15.778   0.829  0.0417  0.2109  0.0265
38818W        W39682   4.913  15.548   6.161 -0.0338  0.3661 -0.0829
38819W        W39683   3.906  14.761   3.866  0.1647 -0.2549  0.1358
38820W        W39684   7.032  14.738   4.081 -0.1507  0.0738 -0.0130
38821W        W39685   5.536  17.555   0.500 -0.2108 -0.3121  0.0551
38822W        W39686   6.400  15.905   1.130  0.4404 -0.1774  0.1106
38823W        W39687   5.236  15.969   3.494 -0.1368 -0.3148  0.2225
38824W        W39688   3.768  15.606   6.594  0.0546 -0.2639 -0.1177
38825W        W39689   6.027  16.824   1.037  0.0346 -0.1152 -0.0011
38826W        W39690   8.362  17.415   1.001 -0.0218 -0.0765  0.0467
38827W        W39691   5.786  15.554   4.355  0.0722  0.0185  0.1782
38828W        W39692   5.328  18.699   0.339 -0.3734 -0.0928  0.0804
38829W        W39693   9.374  15.936   2.147  0.1989 -0.1544  0.2877
38830W        W39694   6.803  14.492   3.235  0.0486 -0.0890 -0.3308
38831W        W39695   5.935  17.855   0.370  0.0265 -0.0446  0.0137
38832W        W39696   8.907  18.553   5.083  0.5259  0.2406 -0.0492
38833W        W39697   4.825  18.213  28.749  0.1959 -0.0263 -0.0635
38834W        W39698   4.660  18.631   2.768  0.4538 -0.0993  0.0032
38835W        W39699   5.138  15.035   6.177  0.2129 -0.0722  0.0595
38836W        W39700   7.448  16.409   2.147 -0.4418  0.2208 -0.1085
38837W        W39701   7.258  14.136   3.212  0.2817  0.1462  0.4026
38838W        W39702   6.977  17.115   2.196 -0.0580 -0.0446  0.0684
38839W        W39703   7.407  17.191   1.229 -0.1347  0.2235 -0.0489
38840W        W39704   5.970  17.424   3.854  0.2059  0.0812  0.0099
38841W        W39705   7.509  17.989   0.581  0.0026 -0.1704 -0.0492
38842W        W39706   5.059  16.130  28.942 -0.1493 -0.1174 -0.3177
38843W        W39707   4.497  18.389   1.453 -0.0584 -0.3252  0.3263
38844W        W39708   6.652  16.666   2.865  0.1878  0.2556 -0.4002
38845W        W39709   8.424  17.405   5.319 -0.1304 -0.1162 -0.1655
38846W        W39710   8.393  13.740   3.044  0.3552  0.3247 -0.0691
38847W        W39711   5.036  16.906   0.946 -0.0876 -0.0615 -0.2529
38848W        W39712   7.460  18.502   0.219 -0.1131 -0.0274  0.0268
38849W        W39713   9.288  15.436   1.360 -0.0247  0.2338  0.2939
38850W        W39714   7.610  16.138   1.709  0.0725  0.1738  0.0471
38851W        W39715   6.805  16.448  28.754 -0.2638 -0.2538  0.1590
38852W        W39716   8.048  15.258   0.784  0.2391  0.1596  0.0408
38853W        W39717   4.894  15.935   3.152 -0.0797 -0.1702 -0.0070
38854W        W39718   6.861  14.644   5.834  0.0527  0.1730  0.0315
38855W        W39719   8.346  17.226   4.815  0.1369  0.0122  0.2679
38856W        W39720   5.772  15.162   5.285 -0.0966  0.2313 -0.0236
38857W        W39721   6.306  17.239   1.155 -0.1138  0.0665  0.0767
38858W        W39722   6.288  16.298   2.959  0.0319 -0.0388  0.0075
38859W        W39723   6.239  19.518  28.141  0.2298 -0.0896 -0.1422
38860W        W39724   7.031  17.497  29.133  0.1672 -0.1814 -0.0378
38861W        W39725   5.668  14.510   4.047  0.2799 -0.0243 -0.0404
38862W        W39726   8.345  16.956   0.540 -0.2499  0.2587  0.1214
38863W        W39727   6.841  15.543  28.424 -0.0795 -0.2160 -0.2393
38864W        W39728   4.076  14.480   8.336  0.2175 -0.0327  0.1487
38865W        W39729   7.569  15.330   1.982  0.2772  0.1152  0.2939
38866W        W39730   5.861  14.515   4.494  0.0057  0.0458  0.1041
38867W        W39731   7.332  19.417   1.914  0.0870 -0.1400  0.0813
38868W        W39732   7.998  14.388   3.473  0.2136  0.0065 -0.0388
38869W        W39733   5.235  16.908   3.829  0.0463  0.0164 -0.4546
38870W        W39734   2.229  16.562   3.675  0.0059 -0.0414  0.0404
38871W        W39735   5.847  16.524  26.294 -0.0075  0.0300 -0.0439
38872W        W39736   5.019  16.818   2.877 -0.1104 -0.1677  0.1899
38873W        W39737   5.721  16.507   0.509  0.0895 -0.0990  0.1730
38874W        W39738   8.715  14.457  28.197  0.1397  0.0933 -0.1522
38875W        W39739   1.934  15.415   2.948 -0.2409  0.1968 -0.1165
38876W        W39740   6.047  17.920   3.838 -0.0526 -0.2948 -0.0069
38877W        W39741   5.840  18.106  28.940  0.1511 -0.0569 -0.0402
38878W        W39742   8.328  15.679   0.985 -0.0265  0.0934 -0.0435
38879W        W39743   5.117  18.714   0.838 -0.0754  0.3221 -0.0358
38880W        W39744   4.093  16.167   4.030  0.0006 -0.2518  0.0263
38881W        W39745   4.293  15.141  28.276 -0.0384 -0.3247 -0.0942
38882W        W39746   7.196  18.329  28.870 -0.1519 -0.0633 -0.2550
38883W        W39747   7.401  14.938   1.645 -0.1390  0.2984 -0.1676
38884W        W39748   4.672  17.774  28.557  0.0778  0.0529 -0.1339
38885W        W39749   7.414  15.936  27.262  0.1394 -0.0278  0.0395
38886W        W39750   4.442  16.816   0.946 -0.1030  0.1596  0.1460
38887W        W39751   4.378  14.993   5.669 -0.1913  0.1569  0.3793
38888W        W39752   7.908  14.976   2.639  0.2276  0.0488 -0.2926
38889W        W39753   5.646  16.026   2.229 -0.0373  0.0820  0.1271
38890W        W39754   8.161  17.863   5.388 -0.0030 -0.0702  0.1522
38891W        W39755   6.323  15.427   3.517  0.1138  0.1034 -0.1518
38892W        W39756   3.037  15.548  28.598  0.1025 -0.1001  0.1554
38893W        W39757   6.161  15.350   3.986  0.2953 -0.2137  0.1446
38894W        W39758   3.251  13.972   3.785 -0.0290 -0.3900 -0.0475
38895W        W39759   1.870  17.771   2.260  0.0041  0.2235 -0.1390
38896W        W39760   8.802  17.620   2.038  0.0702  0.3105  0.1355
38897W        W39761   5.977  17.363   0.245  0.2704  0.3433  0.0598
38898W        W39762   5.344  19.090   5.979  0.1236 -0.1685 -0.1559
38899W        W39763   8.148  18.504   3.474 -0.2155 -0.1083 -0.2204
38900W        W39764   6.408  14.068   0.448  0.1347 -0.1832  0.0901
38901W        W39765   9.958  14.212   2.544  0.0864  0.1448  0.1040
38902W        W39766   2.693  14.479   3.042 -0.0958  0.0054  0.0914
38903W        W39767   5.171  12.909   1.456  0.0140  0.3207 -0.1100
38904W        W39768   4.697  17.622   5.880  0.0997  0.0202  0.1241
38905W        W39769   5.385  16.872   0.497  0.1721 -0.0028 -0.1821
38906W        W39770   5.468  18.531   3.019 -0.3259  0.2186 -0.1621
38907W        W39771   4.527  16.851   3.030  0.1906 -0.3096  0.1109
38908W        W39772   4.525  14.061   2.959 -0.0732  0.1727 -0.2595
38909W        W39773   4.342  15.609  27.438 -0.0086  0.0148  0.2301
38910W        W39774   8.043  16.374  28.960 -0.3110 -0.0734  0.0958
38911W        W39775   8.331  17.632   3.740 -0.0126 -0.0973  0.0335
38912W        W39776   5.410  16.112   1.322 -0.0705 -0.0505  0.1697
38913W        W39777   6.388  16.462   2.496  0.1198  0.2523  0.0278
38914W        W39778   6.635  18.677   2.114 -0.0223 -0.0640  0.0436
38915W        W39779   4.487  15.755   2.329 -0.0214  0.0960  0.0694
38916W        W39780   6.747  16.217   2.724  0.0537  0.0459 -0.0066
38917W        W39781   2.905  15.069   0.266 -0.1148  0.0219 -0.0168
38918W        W39782   8.667  17.574   3.384  0.2191 -0.0904 -0.2326
38919W        W39783   5.550  15.192  28.268 -0.0390 -0.0333  0.0723
38920W        W39784   4.121  18.396   0.902  0.0695  0.0721 -0.0159
38921W        W39785   5.822  17.193   1.317  0.1815  0.0356 -0.2149
38922W        W39786   3.350  15.111   2.716 -0.1475  0.0423 -0.2359
38923W        W39787   8.406  17.311   2.012 -0.0422 -0.2465 -0.0667
38924W        W39788   8.055  12.097   1.964 -0.2172  0.0754  0.1621
38925W        W39789   9.587  17.724   2.553  0.0342  0.1998 -0.3464
38926W        W39790   4.749  17.667   4.977 -0.0114 -0.0323 -0.0126
38927W        W39791   6.700  17.870   4.900 -0.1619 -0.0033  0.1186
38928W        W39792   6.251  18.180   4.937  0.1023  0.1479  0.0460
38929W        W39793   3.497  17.382   1.798 -0.2468 -0.1726 -0.4295
38930W        W39794   8.312  16.184   0.350 -0.2202  0.4086 -0.2334
38931W        W39795   6.030  14.654   1.132 -0.1901 -0.2154  0.0733
38932W        W39796   6.664  15.198   2.707 -0.3276 -0.2198  0.0513
38933W        W39797   3.754  18.746   3.047 -0.2888 -0.0595  0.1377
38934W        W39798   5.859  16.372  29.026  0.1301 -0.1465 -0.0454
38935W        W39799   4.420  15.750   1.256 -0.0336 -0.2588 -0.1630
38936W        W39800   4.482  17.588   0.471 -0.1941 -0.0296  0.1218
38937W        W39801   6.026  16.526   2.034 -0.1639 -0.0692  0.0487
38938W        W39802   5.407  19.525   3.082 -0.1837  0.1080  0.1380
38939W        W39803   5.254  15.541   3.062 -0.4338  0.0654 -0.0480
38940W        W39804   4.715  15.051   3.435 -0.0416  0.0753 -0.1181
38941W        W39805   4.421  17.216   3.395  0.0439 -0.2072 -0.0402
38942W        W39806   4.343  16.570   2.129 -0.0389  0.1861  0.0867
38943W        W39807   7.887  15.201   1.654 -0.1025 -0.1043  0.2551
38944W        W39808   7.222  16.133  28.600 -0.2360  0.1815  0.2112
38945W        W39809   7.121  15.408   2.910  0.1732  0.0947  0.0604
38946W        W39810   5.906  17.011   0.580  0.3058  0.0506  0.3517
38947W        W39811   7.228  18.825  29.002  0.2061 -0.0734  0.0948
38948W        W39812   4.821  14.731  28.918 -0.1733  0.2298 -0.1950
38949W        W39813   4.820  15.684   2.693 -0.2316 -0.2330  0.0825
38950W        W39814   7.117  15.655   3.372 -0.3003  0.3425  0.0293
38951W        W39815   5.457  16.374   2.635 -0.2453 -0.0753 -0.1505
38952W        W39816   6.899  16.381   0.993 -0.1132  0.1799  0.1373
38953W        W39817   0.911  15.038  28.478 -0.2783 -0.0196 -0.2219
38954W        W39818   7.519  17.399   3.971  0.2131  0.0541 -0.0384
38955W        W39819   4.906  17.699  29.005 -0.4403 -0.0863 -0.3284
38956W        W39820   8.159  13.674   0.855  0.1000 -0.1592  0.1709
38957W        W39821   2.661  19.477   1.584  0.1401  0.4866  0.2237
38958W        W39822   7.244  18.061   3.644 -0.0671 -0.2933 -0.1128
38959W        W39823   7.525  18.660   1.117 -0.0089  0.0378  0.0946
38960W        W39824   6.422  18.742  28.511 -0.1561  0.1301  0.2938
38961W        W39825   8.246  16.048  27.307  0.1499  0.2449 -0.0001
38962W        W39826   7.104  15.967   2.968 -0.4580  0.0598  0.1700
38963W        W39827   7.054  16.656   1.939 -0.0660 -0.5951 -0.0779
38964W        W39828   5.716  15.971   0.409  0.4330  0.1374 -0.1362
38965W        W39829   5.012  19.988   0.401 -0.2326  0.2221 -0.2320
38966W        W39830   7.063  16.570   3.619  0.1254 -0.1822  0.1857
38967W        W39831   9.300  20.914  28.665  0.2942  0.0059  0.5617
38968W        W39832   5.192  15.084   7.047 -0.0749  0.0702  0.1740
38969W        W39833   7.807  16.609   1.586 -0.0642 -0.0576 -0.2703
38970W        W39834   5.712  16.906   1.799 -0.0481  0.4646 -0.4191
38971W        W39835   8.191  14.865   3.896  0.3355  0.1035  0.2327
38972W        W39836   2.705  16.252   5.207  0.1309 -0.0857  0.2627
38973W        W39837   6.357  18.705   0.144  0.3538 -0.1557 -0.0205
38974W        W39838   4.786  14.838   2.302 -0.2044 -0.0088  0.1883
38975W        W39839   3.714  16.945   2.718 -0.1506  0.0841  0.2078
38976W        W39840   6.409  14.981   2.078  0.2572  0.0000  0.1759
38977W        W39841   5.829  19.213   3.013  0.3283 -0.0706 -0.1283
38978W        W39842   6.729  15.649   5.597  0.0680 -0.0086  0.0836
38979W        W39843   6.997  19.010   4.069  0.0241  0.3953  0.2519
38980W        W39844   7.622  16.771   4.785 -0.0736  0.0758  0.2842
38981W        W39845   7.711  16.173   2.561  0.0278 -0.0338  0.1494
38982W        W39846   8.110  16.466   3.125 -0.2591  0.0859 -0.2463
38983W        W39847   4.765  16.879   4.406 -0.0924  0.0078  0.0739
38984W        W39848   2.989  17.025   1.685 -0.0633  0.0920 -0.0104
38985W        W39849   4.742  16.396   0.179  0.2077  0.0393 -0.0356
38986W        W39850   5.992  20.075   1.821  0.0754 -0.2166  0.1396
38987W        W39851   6.368  15.933   2.550 -0.2263 -0.1078  0.1782
38988W        W39852   6.340  14.102   3.805  0.1386  0.1393 -0.0035
38989W        W39853   6.636  16.714   0.686  0.1552  0.1271 -0.0832
38990W        W39854   3.546  15.689   5.501  0.3322  0.1123 -0.1411
38991W        W39855   6.446  14.073   3.075  0.1754  0.0532  0.0510
38992W        W39856   4.318  17.182   1.285 -0.1804  0.0524  0.1556
38993W        W39857   3.234  18.113   6.315 -0.0260  0.0681  0.1150
38994W        W39858   5.633  16.623   5.257  0.5665  0.2582 -0.1166
38995W        W39859   5.418  17.328   3.730  0.0756 -0.1581 -0.0765
38996W        W39860   8.836  19.192   5.920  0.0025 -0.3107  0.3243
38997W        W39861   5.109  17.350   4.999  0.0914 -0.1700  0.3729
38998W        W39862   5.919  16.954   5.550 -0.0883 -0.2953  0.1222
38999W        W39863   4.575  15.834   5.265  0.2363  0.0008  0.2374
39000W        W39864   4.150  18.356   7.343 -0.2744  0.1092 -0.0356
39001W        W39865   6.031  17.539   6.255  0.4141  0.0388  0.0536
39002W        W39866   5.340  12.052   8.710 -0.0220  0.2476 -0.1871
39003W        W39867   4.149  15.558   8.361  0.2127 -0.1826 -0.0132
39004W        W39868   4.082  14.938   5.123 -0.0401 -0.1532  0.0183
39005W        W39869   6.250  16.785   4.758  0.1163  0.1323 -0.2768
39006W        W39870   4.274  12.848   8.305 -0.2993  0.1566 -0.1269
39007W        W39871   3.510  12.287   7.076  0.2023 -0.1669  0.0723
39008W        W39872   3.604  17.836   5.479  0.2599  0.0638 -0.0057
39009W        W39873   7.345  13.609   4.973  0.2164 -0.1552 -0.0100
39010W        W39874   3.859  16.703   4.049  0.3415 -0.0660 -0.2246
39011W        W39875   4.361  16.167   7.685 -0.0526  0.2327  0.1928
39012W        W39876   4.232  15.557   6.423 -0.1711 -0.0768  0.1516
39013W        W39877   5.595  15.128   6.183 -0.0761 -0.0631 -0.0779
39014W        W39878   7.139  17.030   4.183 -0.0510 -0.0226 -0.0641
39015W        W39879   6.762  19.356   7.455 -0.3007 -0.2213 -0.1412
39016W        W39880   3.002  16.857   4.941 -0.0880 -0.1350 -0.1453
39017W        W39881   4.691  15.103   4.410  0.1670 -0.0233 -0.3032
39018W        W39882   6.617  14.390   8.488 -0.2377  0.1230 -0.0787
39019W        W39883   7.717  12.934   8.692  0.1429  0.0225  0.0242
39020W        W39884   3.683  14.950   4.245  0.0162  0.0032  0.0946
39021W        W39885   4.889  16.663   5.894 -0.1456 -0.1243 -0.0043
39022W        W39886   1.801  16.504   6.589  0.0154  0.0304 -0.0715
39023W        W39887   6.557  18.879   5.573  0.1661  0.1176 -0.2695
39024W        W39888   6.309  18.743   6.537  0.0264 -0.0504 -0.0523
39025W        W39889   5.844  16.105   7.114 -0.1468 -0.0210  0.2904
39026W        W39890   4.173  13.995   6.725  0.0715 -0.0934 -0.0488
39027W        W39891   4.837  14.956   9.866 -0.1908  0.0445 -0.1509
39028W        W39892   6.532  16.851   6.285  0.2475  0.1195  0.3284
39029W        W39893   6.309  13.115   2.263  0.2392 -0.4020  0.0888
39030W        W39894   3.055  16.211   5.552  0.0251 -0.1241 -0.1050
39031W        W39895   5.687  14.536   5.930 -0.1372  0.3083 -0.0402
39032W        W39896   5.815  14.129   5.493 -0.2700  0.0342  0.0585
39033W        W39897   5.569  13.510   4.052  0.4159 -0.0201 -0.2295
39034W        W39898   9.507  14.329   5.735 -0.3090 -0.0422 -0.0022
39035W        W39899   4.273  14.268   4.536 -0.0193 -0.0563 -0.1580
39036W        W39900   7.858  20.472   4.210  0.2327  0.3227 -0.0169
39037W        W39901   1.657  19.705   6.506 -0.0709 -0.0382  0.0266
39038W        W39902   4.765  17.827   4.470  0.4113 -0.1625  0.4294
39039W        W39903   4.562  13.466   4.779 -0.1337 -0.0481 -0.2203
39040W        W39904   5.203  13.594   7.628 -0.2699 -0.3275 -0.0048
39041W        W39905   5.842  16.059   4.413  0.0312  0.3970  0.0251
39042W        W39906   5.713  17.430   4.729 -0.2352 -0.1399  0.1404
39043W        W39907   1.953  19.583   2.388 -0.1998 -0.2561 -0.1414
39044W        W39908   5.081  13.524   3.858 -0.2397  0.1110  0.0294
39045W        W39909   5.810  14.165   7.295  0.1605  0.0915 -0.1494
39046W        W39910   7.630  13.473   5.381 -0.1653 -0.2566  0.2833
39047W        W39911   5.684  15.668   6.120  0.0693 -0.3650 -0.1685
39048W        W39912   6.471  17.359   2.193  0.1084  0.3269 -0.1872
39049W        W39913   3.478  14.596   4.532 -0.0680  0.0773  0.1911
39050W        W39914   4.977  15.007   7.611 -0.2055 -0.1812  0.0074
39051W        W39915   3.516  16.935   3.183  0.0291 -0.2243 -0.0442
39052W        W39916   6.581  17.843   2.319  0.2324 -0.1284 -0.0996
39053W        W39917   7.467  13.314   3.736 -0.2001  0.0088  0.3320
39054W        W39918   4.236  17.722   6.190 -0.1657  0.1539  0.1358
39055W        W39919   3.956  15.393   5.558 -0.1940  0.1409 -0.3715
39056W        W39920   2.255  15.590   6.187  0.4162  0.0726 -0.0645
39057W        W39921   4.493  14.472   6.382  0.0484 -0.1310  0.2025
39058W        W39922   7.365  14.150   4.993  0.0493  0.2287  0.1732
39059W        W39923   4.498  16.432   6.170  0.2504  0.1418 -0.0309
39060W        W39924   3.431  13.550   4.061 -0.0242  0.0809 -0.1250
39061W        W39925   3.220  18.002   3.163  0.1050  0.1085  0.1158
39062W        W39926   4.416  15.346   5.304 -0.3223 -0.0268  0.0371
39063W        W39927   7.000  17.702   6.917 -0.4112  0.1613 -0.2592
39064W        W39928   6.764  14.576   4.469  0.0509 -0.0867 -0.0802
39065W        W39929   5.321  16.442   6.249  0.2802  0.1258 -0.2150
39066W        W39930   8.472  14.262   8.332 -0.1298  0.1176  0.2009
39067W        W39931  10.601  18.404   2.863 -0.0849  0.0910  0.3901
39068W        W39932   4.263  16.763   4.288 -0.0152  0.3700  0.0411
39069W        W39933   5.884  14.958   4.158  0.2270  0.0118  0.0267
39070W        W39934   4.852  17.739   3.167 -0.0848 -0.0334  0.1457
39071W        W39935   4.534  14.597   5.139 -0.1294  0.2285 -0.2929
39072W        W39936   5.319  15.420   6.435 -0.0425  0.2228  0.5074
39073W        W39937   4.984  16.477   4.130 -0.0434 -0.0575  0.2004
39074W        W39938   2.361  14.929   9.636 -0.2099 -0.0001  0.2158
39075W        W39939   2.563  14.307   5.574 -0.1117 -0.0069  0.0623
39076W        W39940   6.951  12.013   5.671 -0.0094 -0.0166  0.0279
39077W        W39941   3.528  15.194   6.395  0.0823 -0.1538 -0.1662
39078W        W39942   7.016  16.549   2.433 -0.0922  0.2410 -0.1002
39079W        W39943   5.575  18.498   4.574 -0.2210 -0.2322  0.0872
39080W        W39944   7.647  12.138   9.702  0.0227  0.0204  0.0300
39081W        W39945   6.674  18.557   6.975  0.3750  0.4697 -0.2866
39082W        W39946   5.934  13.644   6.660 -0.0362  0.2342 -0.0952
39083W        W39947   5.476  17.109   5.281 -0.1108  0.1305 -0.0398
39084W        W39948   7.118  15.758   7.401 -0.1056 -0.1709 -0.0442
39085W        W39949   5.554  17.141   6.855 -0.0496 -0.1370  0.2583
39086W        W39950   6.246  18.482   5.579  0.2410  0.0693 -0.1109
39087W        W39951   3.720  17.076   5.814 -0.1748 -0.3021 -0.0828
39088W        W39952   4.606  15.706   6.951  0.2764  0.1252 -0.0684
39089W        W39953   7.231  17.134   3.675  0.0493 -0.3384 -0.2620
39090W        W39954   3.725  19.943   5.902  0.1449  0.1152 -0.2513
39091W        W39955   6.683  12.157   3.080  0.0907  0.0284 -0.0484
39092W        W39956   7.636  12.762   5.729  0.1917  0.1057 -0.0352
39093W        W39957   6.715  18.166   3.757  0.2647 -0.1000 -0.1803
39094W        W39958   5.647  19.141   3.662  0.0347 -0.1502 -0.0644
39095W        W39959   7.611  16.139   3.112 -0.0516  0.0390  0.1139
39096W        W39960   6.497  18.108   4.512 -0.5562  0.1295 -0.0297
39097W        W39961   5.761  16.256   6.379 -0.1578  0.4663 -0.0563
39098W        W39962   2.417  15.523   7.537 -0.0440 -0.0758  0.0504
39099W        W39963   7.035  20.270   3.876  0.1015 -0.0812  0.1170
39100W        W39964   5.812  17.741   4.244  0.0542  0.1698 -0.2860
39101W        W39965   5.314  13.103   3.595 -0.3209  0.0872  0.2459
39102W        W39966   2.790  10.699   7.520 -0.1514 -0.0862 -0.1861
39103W        W39967   4.506  16.982   7.392  0.0941  0.2534  0.0592
39104W        W39968   4.979  16.152   6.867  0.2793  0.1682  0.0047
39105W        W39969   6.351  16.394   4.278 -0.0235 -0.3143  0.3094
39106W        W39970   7.727  15.877   8.106  0.0161  0.0114  0.1523
39107W        W39971   6.207  15.859   4.190 -0.0066 -0.1742 -0.0615
39108W        W39972   5.465  18.064   5.447  0.2833  0.1586 -0.0834
39109W        W39973   9.971  14.255   8.230  0.0176  0.0372 -0.2885
39110W        W39974   6.446  13.223   5.351  0.0864  0.2512 -0.1301
39111W        W39975   6.688  14.109   6.942  0.0196  0.2887 -0.0901
39112W        W39976   5.506  12.784   4.739  0.2520  0.0755 -0.0850
39113W        W39977   5.590  14.567   3.395  0.0055 -0.0464 -0.3188
39114W        W39978   5.737  18.483   5.537  0.1204  0.0777 -0.0773
39115W        W39979   6.157  16.281   4.734 -0.2012  0.1321 -0.1479
39116W        W39980   5.915  15.706   3.745  0.2349  0.0319  0.0302
39117W        W39981   5.760  16.523   6.788 -0.2738  0.2084  0.1369
39118W        W39982   6.396  14.202   7.369 -0.3661 -0.2489  0.4796
39119W        W39983   2.183  14.508   6.305  0.2182 -0.2174 -0.0283
39120W        W39984   8.675  16.787   6.091 -0.0684 -0.0177 -0.0244
39121W        W39985   9.041  18.453   6.275  0.0870 -0.1304 -0.3254
39122W        W39986   4.116  20.111   2.137  0.0949 -0.2045  0.3259
39123W        W39987   6.179  17.051   5.971  0.3041  0.3028  0.4423
39124W        W39988   6.639  13.985   6.035 -0.0195  0.2428 -0.1007
39125W        W39989   4.015  17.919   6.578 -0.1317 -0.2153  0.0948
39126W        W39990   6.945  15.451   4.791 -0.0983  0.0002 -0.1814
39127W        W39991   4.336  17.646   4.698 -0.2219 -0.2304 -0.0306
39128W        W39992   3.189  16.158   6.304  0.0993  0.3078 -0.1448
39129W        W39993   5.002  16.205   8.407 -0.0678 -0.1613 -0.2148
39130W        W39994   5.358  12.751   7.794  0.0232  0.1685 -0.1122
39131W        W39995   4.287  18.065   3.396  0.2272 -0.0837  0.1037
39132W        W39996   6.053  14.738   6.198 -0.2753 -0.0807 -0.0425
39133W        W39997   3.672  14.349   2.870  0.0437 -0.0747  0.2116
39134W        W39998   4.890  13.394   6.264 -0.3697  0.0001  0.3946
39135W        W39999   3.025  20.560   3.655  0.1659 -0.1433  0.0180
39136W        W40000   6.022  18.754   4.217 -0.0495  0.2461  0.0031
39137W        W40001   4.020  16.735   6.090 -0.0007 -0.0416  0.2578
39138W        W40002   4.231  16.989   5.506  0.1150 -0.1030 -0.1377
39139W        W40003   7.236  16.237   4.100  0.0499 -0.1268  0.0860
39140W        W40004   7.653  18.088   5.754  0.0175 -0.3066 -0.1675
39141W        W40005   7.461  17.241   6.271  0.2514 -0.0191  0.1996
39142W        W40006   6.323  17.636   4.147 -0.1479  0.3727  0.0088
39143W        W40007   6.932  18.625   6.571  0.1216  0.0783 -0.2672
39144W        W40008   4.899  15.213   5.789  0.1206  0.0403 -0.2267
39145W        W40009   4.028  15.981   5.473  0.0872  0.1530  0.1463
39146W        W40010   5.197  17.405   5.885 -0.3604  0.1229 -0.0832
39147W        W40011   5.926  19.401   7.176  0.0532 -0.1286 -0.0122
39148W        W40012   5.026  14.200   8.827  0.0973  0.2347 -0.1858
39149W        W40013   2.707  19.062   5.665 -0.1249  0.1252  0.0906
39150W        W40014   6.741  15.646   3.657 -0.1717  0.0306  0.0538
39151W        W40015   6.160  14.706   3.822 -0.1378 -0.0883 -0.1424
39152W        W40016   4.608  16.674   5.404 -0.0585  0.1886 -0.0170
39153W        W40017   6.530  12.573   6.441 -0.1118 -0.0081 -0.2106
39154W        W40018   5.032  16.999   5.578  0.2179 -0.0841 -0.0202
39155W        W40019   7.327  18.981   8.016  0.0526  0.1767  0.1550
39156W        W40020   5.367  15.921   6.551 -0.0069 -0.0653  0.0761
39157W        W40021   4.862  13.245   5.295 -0.1358  0.1560 -0.0240
39158W        W40022   3.492  13.108   5.728  0.0711  0.0884  0.1352
39159W        W40023   4.909  18.762   4.762 -0.0583 -0.1286  0.0829
39160W        W40024   5.481  18.806   6.965 -0.0546  0.3179  0.0440
39161W        W40025   7.343  17.325   6.958 -0.0295 -0.2897 -0.0093
39162W        W40026   3.605  13.091   4.804 -0.2208  0.3051 -0.1192
39163W        W40027   7.936  14.769   4.837  0.0751  0.1655 -0.0534
39164W        W40028   2.860  15.775   5.235 -0.0823  0.0612  0.1716
39165W        W40029   5.393  15.888   7.125  0.0512  0.0287  0.1342
39166W        W40030   7.337  19.099   3.690 -0.2522  0.2634 -0.0092
39167W        W40031   7.208  13.337   4.298  0.1085 -0.1894 -0.0362
39168W        W40032   5.577  16.030   3.868 -0.0143  0.3008  0.2669
39169W        W40033   6.438  15.396   6.614  0.0030  0.1888 -0.0492
39170W        W40034   4.833  17.277   3.680  0.0181 -0.0480  0.4305
39171W        W40035   4.165  18.492   3.075  0.2121 -0.1300 -0.2474
39172W        W40036   7.335  13.839   7.648 -0.1914  0.3004 -0.1255
39173W        W40037   3.352  15.603   5.036 -0.0067  0.3084  0.1929
39174W        W40038   7.828  18.727   3.051 -0.0714  0.0535 -0.1468
39175W        W40039   3.907  14.931   5.697  0.0626  0.3174 -0.2469
39176W        W40040   3.736  12.788   4.414  0.1895 -0.0231  0.1809
39177W        W40041   3.629  15.987   4.222  0.0790  0.1298  0.1818
39178W        W40042   5.796  17.471   7.139  0.1487  0.1659  0.3419
39179W        W40043   3.848  13.116   6.201 -0.0953  0.2041 -0.3552
39180W        W40044   5.131  15.472   1.937 -0.0155  0.0119  0.1114
39181W        W40045   4.356  17.212   3.922  0.0560 -0.1071  0.0268
39182W        W40046   4.933  16.147   6.142  0.0013  0.2084 -0.0061
39183W        W40047   5.885  18.421   6.244 -0.2342 -0.1763  0.2511
39184W        W40048   0.720  18.020   3.833 -0.1026 -0.0635  0.1292
39185W        W40049   5.117  14.188   7.603  0.0778 -0.3170 -0.2380
39186W        W40050   2.903  15.011   7.943  0.0824  0.0544 -0.1501
39187W        W40051   2.909  15.282   5.238  0.2411  0.2063  0.1100
39188W        W40052   3.667  13.565   4.514 -0.0880 -0.0157  0.2378
39189W        W40053   6.815  14.401   2.773 -0.1531 -0.0074 -0.2266
39190W        W40054   6.587  13.028   8.431  0.0384  0.0926  0.0705
39191W        W40055   3.850  14.347   6.120 -0.0593  0.1851  0.0020
39192W        W40056   6.032  14.689   5.198  0.3591 -0.0710  0.5440
39193W        W40057   4.622  15.047   6.246 -0.0462 -0.2336  0.1314
39194W        W40058   5.400  13.379   5.355  0.0224  0.0258 -0.0221
39195W        W40059   7.851  14.341   5.143  0.1499  0.1754 -0.0550
39196W        W40060   5.380  15.612   4.138  0.0425  0.1605 -0.1521
39197W        W40061   3.437  17.036   6.225 -0.1528  0.1636  0.1039
39198W        W40062   1.331  15.719   6.440 -0.0685 -0.2207 -0.0443
39199W        W40063   4.653  15.971   9.512 -0.1838 -0.3310 -0.1575
39200W        W40064   6.546  17.694   7.785  0.0300  0.1834 -0.0122
39201W        W40065   6.618  17.711   2.985 -0.0773  0.0263 -0.1662
39202W        W40066   5.777  15.227   2.728  0.1458  0.2786  0.0211
39203W        W40067   4.260  19.352   7.040  0.0480  0.2003 -0.0908
39204W        W40068   3.589  14.823   5.064 -0.0386 -0.1412 -0.1741
39205W        W40069   5.764  15.767   7.505 -0.2881 -0.3486 -0.0078
39206W        W40070   4.912  13.499   5.706  0.0101  0.0329  0.1880
39207W        W40071   9.344  18.326   5.596 -0.1410 -0.0850 -0.0235
39208W        W40072  10.581  17.210   5.361  0.0504 -0.0068  0.1166
39209W        W40073   7.809  18.166   2.888  0.2844 -0.1434 -0.3529
39210W        W40074   6.841  21.697   2.610 -0.0387 -0.0299 -0.0990
39211W        W40075   1.969  18.839   5.339 -0.1081  0.1547  0.0179
39212W        W40076   4.165  18.783   9.329  0.0024  0.4259 -0.0152
39213W        W40077   9.443  13.665   8.954 -0.0774 -0.3264 -0.1772
39214W        W40078   6.111  16.369   5.198 -0.1271 -0.0032 -0.1184
39215W        W40079   3.521  20.185   7.283  0.1791 -0.1244  0.0297
39216W        W40080   6.785  14.195   4.127  0.0313  0.0319  0.4516
39217W        W40081   6.694  17.611   1.650 -0.1912 -0.2752 -0.1428
39218W        W40082   3.425  16.879  10.369 -0.0448  0.3344 -0.1961
39219W        W40083   3.447  17.322   8.693 -0.0444 -0.0190 -0.1743
39220W        W40084   6.668  13.672   5.568  0.1740  0.0785  0.0959
39221W        W40085   4.679  19.520   3.356  0.2121 -0.0695 -0.1957
39222W        W40086   6.505  15.115   4.787 -0.0567 -0.1056  0.3103
39223W        W40087   5.682  15.637   8.022  0.2303 -0.0694 -0.0654
39224W        W40088   4.641  16.807   8.958  0.1203  0.0831 -0.1092
39225W        W40089   5.362  18.575   6.131 -0.0058 -0.0185  0.0143
39226W        W40090   6.983  15.128   5.944  0.4710  0.1330 -0.0520
39227W        W40091   2.832  15.705   6.318 -0.1143  0.1446 -0.0573
39228W        W40092   8.890  16.959   3.379 -0.2553  0.2297  0.0400
39229W        W40093   5.321  15.787   4.657 -0.1683 -0.1399  0.2774
39230W        W40094   4.281  15.621   7.904 -0.0084  0.0390 -0.3016
39231W        W40095   6.835  15.780   6.410 -0.2540 -0.1896 -0.1595
39232W        W40096   6.486  17.254   5.518 -0.1672  0.0643 -0.1462
39233W        W40097   6.693  16.178   2.146 -0.2134  0.1713  0.0777
39234W        W40098   5.001  17.713   6.244  0.1935 -0.2010 -0.5035
39235W        W40099   2.694  14.772   6.526  0.1243 -0.0090 -0.3976
39236W        W40100   5.527  13.136   5.793 -0.2597  0.0229  0.2608
39237W        W40101   3.714  15.821   8.338  0.1363 -0.1139 -0.0977
39238W        W40102   3.404  16.426   3.977  0.0620  0.1058  0.0982
39239W        W40103   6.497  16.073   5.082 -0.0451  0.2723 -0.4598
39240W        W40104   3.822  15.687  10.430 -0.0253 -0.3258  0.1589
39241W        W40105   5.957  17.399   5.235 -0.1704 -0.1619 -0.2326
39242W        W40106   4.877  15.719   5.664 -0.0011  0.1537 -0.0124
39243W        W40107   4.067  16.528   5.620  0.2535  0.0796  0.0243
39244W        W40108   4.320  18.603   4.575  0.1851  0.0926  0.0653
39245W        W40109   6.913  14.878   7.183  0.0199  0.0850  0.1992
39246W        W40110   6.999  14.039   5.524  0.3355 -0.0156 -0.1663
39247W        W40111   2.997  14.977   5.733  0.2318  0.0450  0.1284
39248W        W40112   6.228  19.182   5.187 -0.1567  0.0560  0.0912
39249W        W40113   6.059  16.007   6.040 -0.2572 -0.0754  0.1204
39250W        W40114   3.931  15.866   7.494  0.0394  0.1705 -0.3468
39251W        W40115   7.199  15.772   3.901 -0.0704 -0.1591 -0.0328
39252W        W40116   4.784  15.280   6.627  0.0244 -0.2814 -0.2668
39253W        W40117   4.574  17.881   6.537 -0.1649 -0.2403  0.0322
39254W        W40118   4.597  16.334   8.734 -0.1967  0.2534  0.2632
39255W        W40119   7.192  17.492   4.361  0.2489  0.0583  0.0049
39256W        W40120   4.910  13.521   8.102 -0.2906  0.0032  0.0908
39257W        W40121   5.157  16.502   5.416 -0.3407  0.0605 -0.0133
39258W        W40122   5.037  19.547   5.078 -0.1373 -0.0050 -0.1239
39259W        W40123   4.997  17.370   2.137  0.1732 -0.0670  0.0098
39260W        W40124   7.268  20.555   4.221 -0.3377  0.0128 -0.0689
39261W        W40125   2.932  14.279   6.332 -0.3372  0.1183 -0.0208
39262W        W40126   8.587  16.092   2.846 -0.2620  0.2251  0.1671
39263W        W40127   4.854  18.080   3.978  0.0197  0.2166  0.1135
39264W        W40128   9.251  14.476   5.062 -0.0389 -0.1244 -0.1016
39265W        W40129   6.227  14.651   8.375 -0.0313 -0.0065  0.1374
39266W        W40130   2.970  14.413   6.887 -0.1213  0.1965 -0.1294
39267W        W40131   8.763  17.075   5.113 -0.0240 -0.1815 -0.2763
39268W        W40132   7.734  14.134   6.852 -0.0677  0.0343 -0.1126
39269W        W40133   2.733  14.046   8.131  0.1084  0.0641  0.0749
39270W        W40134   3.130  14.902   4.898  0.3254 -0.2029 -0.2406
39271W        W40135   4.528  15.993   4.830  0.0123  0.2460 -0.0100
39272W        W40136   4.073  18.317  10.070 -0.0131  0.1012  0.0997
39273W        W40137   6.210  14.563   5.655  0.0248 -0.0536 -0.1677
39274W        W40138   4.728  16.901   4.928  0.2424 -0.1910 -0.1780
39275W        W40139   4.859  13.861   6.041 -0.1886  0.3643 -0.1279
39276W        W40140   3.513  18.860   6.577 -0.2992  0.2146  0.0097
39277W        W40141   8.768  17.186   2.461  0.3559 -0.1005 -0.2298
39278W        W40142   4.467  11.886   8.820 -0.0436 -0.2818 -0.0833
39279W        W40143   7.103  16.279   6.753  0.1385  0.2988  0.2528
39280W        W40144   6.203  17.136   8.003 -0.1497 -0.1893 -0.1404
39281W        W40145   6.729  17.337   4.047 -0.1224  0.1210  0.2838
39282W        W40146   6.052  17.520   5.694  0.0035  0.0306  0.3484
39283W        W40147   2.945  17.210   6.381 -0.3019 -0.0998  0.2430
39284W        W40148   8.335  13.892   1.571  0.0886  0.1553  0.1321
39285W        W40149   4.903  14.367   6.100 -0.0301  0.0785 -0.1213
39286W        W40150   2.927  16.398   6.707  0.4138 -0.0970  0.0744
39287W        W40151   5.295  15.466   5.904  0.1291  0.3045 -0.1254
39288W        W40152   4.754  15.930   6.523 -0.0363  0.1241  0.4141
39289W        W40153   4.352  14.153   5.376  0.1133 -0.3531 -0.0470
39290W        W40154   7.605  15.551   5.273  0.0934  0.1738 -0.1924
39291W        W40155   4.875  14.969   8.108  0.1078  0.1226 -0.0005
39292W        W40156   4.805  17.208   6.285 -0.1311  0.3137  0.1467
39293W        W40157   1.769  18.268   3.737  0.1664  0.1016 -0.0312
39294W        W40158   3.208  13.789   8.455  0.0740  0.0147  0.0523
39295W        W40159   3.320  15.126   8.142 -0.0523 -0.1107  0.3462
39296W        W40160   8.125  19.739   4.712  0.0755  0.0723 -0.2333
39297W        W40161   6.599  19.163   3.639 -0.3179 -0.4012 -0.1877
39298W        W40162   6.305  17.175   3.559 -0.1219  0.1848  0.1402
39299W        W40163   7.036  14.509   6.883  0.4434 -0.1796 -0.2934
39300W        W40164   6.468  14.913   4.234  0.3585  0.2023 -0.2972
39301W        W40165   5.333  12.700   6.069 -0.0878  0.1393 -0.0418
39302W        W40166   3.256  16.654   4.469  0.0226 -0.0492  0.1367
39303W        W40167   3.170  15.421   3.080  0.0721 -0.0973 -0.0315
39304W        W40168   3.604  17.989   7.686 -0.0504 -0.2396 -0.5742
39305W        W40169   5.520  12.700   6.654 -0.0442  0.0932  0.1112
39306W        W40170   5.529  14.150   8.734 -0.0777  0.2349  0.0265
39307W        W40171   3.908  18.904   4.904 -0.1780 -0.2723  0.0985
39308W        W40172   2.947  17.132   8.507  0.3085  0.4745 -0.0450
39309W        W40173   6.842  14.811   2.514  0.0002 -0.0485 -0.0017
39310W        W40174   5.388  13.164   2.284  0.0452 -0.2882 -0.0122
39311W        W40175   7.701  16.605   9.665 -0.1083 -0.2954  0.1362
39312W        W40176   4.483  14.210   8.102 -0.1420  0.0456 -0.1296
39313W        W40177   3.425  18.890   7.391  0.0436 -0.0828  0.2910
39314W        W40178   7.749  19.093   3.992  0.0931  0.0854 -0.0218
39315W        W40179   3.112  17.241   5.887  0.2055  0.0518  0.1657
39316W        W40180   6.187  15.976   5.515  0.1134 -0.2441 -0.0015
39317W        W40181   4.302  18.222   6.822 -0.0913 -0.1339  0.1960
39318W        W40182   5.717  17.813   5.091 -0.2327  0.0695  0.5000
39319W        W40183   3.504  16.086   5.897  0.2266  0.0020  0.0654
39320W        W40184   3.956  16.464   3.611  0.1048 -0.2195  0.0353
39321W        W40185   6.584  16.380   3.771  0.2258 -0.2726  0.0828
39322W        W40186   2.436  16.317   4.543  0.2712  0.1454 -0.2424
39323W        W40187   5.436  13.569   6.624 -0.1895  0.1850  0.2214
39324W        W40188   8.906  12.307   3.826  0.1714 -0.2649 -0.0529
39325W        W40189   8.946  15.693   5.879 -0.0555  0.1188 -0.2162
39326W        W40190   3.031  19.504   6.768  0.1077  0.2312  0.2032
39327W        W40191   7.455  16.655   3.869  0.0680 -0.2433  0.2135
39328W        W40192   7.166  17.951   5.792  0.0762 -0.2096  0.2007
39329W        W40193   5.275  18.544   4.995  0.2825 -0.3130  0.0859
39330W        W40194   3.566  16.202   5.406 -0.0952  0.1401  0.0515
39331W        W40195   5.714  16.502   4.684  0.1480  0.1051 -0.0585
39332W        W40196   4.913  14.762   4.850  0.1300 -0.0747  0.1952
39333W        W40197   2.703  19.251   2.872 -0.1145  0.2718 -0.2909
39334W        W40198   4.998  13.699   8.973 -0.3697  0.0380  0.0349
39335W        W40199   4.522  12.099   7.598  0.1264  0.1707 -0.0922
39336W        W40200   5.171  18.156   4.400 -0.1302  0.0872 -0.3636
39337W        W40201   8.516  17.394   2.835  0.0167 -0.0375  0.0718
39338W        W40202   4.178  17.769   7.058 -0.0170 -0.3239 -0.2130
39339W        W40203   5.733  13.802   5.804 -0.0648 -0.3623 -0.3152
39340W        W40204   4.112  15.723   4.993 -0.2865  0.2495  0.0207
39341W        W40205   9.383  17.566   6.253 -0.2842  0.0793 -0.0179
39342W        W40206   3.734  15.612   4.625 -0.1403 -0.1440 -0.0468
39343W        W40207   5.585  12.936   5.341 -0.0342  0.0752 -0.1006
39344W        W40208   4.989  15.653   4.964 -0.2330 -0.0430  0.0210
39345W        W40209   8.774  16.499   1.614 -0.1399 -0.0849  0.0956
39346W        W40210   6.069  16.241   3.907 -0.2142 -0.0064  0.0754
39347W        W40211   4.385  16.349   3.099  0.3225 -0.1027 -0.0246
39348W        W40212   4.364  17.656   3.070 -0.0319  0.2771 -0.2920
39349W        W40213   5.488  14.766   7.355 -0.0510  0.1951  0.0919
39350W        W40214   4.713  14.904   9.387 -0.0962 -0.0908 -0.1946
39351W        W40215   2.584  15.487   8.030  0.0987  0.0335  0.0250
39352W        W40216   3.492  14.070   4.298  0.0181  0.2677  0.3562
39353W        W40217   2.231  16.254   4.985 -0.1515  0.0225  0.0282
39354W        W40218   4.995  18.846   6.969 -0.2521 -0.0806 -0.1201
39355W        W40219   3.245  16.284   7.820  0.0596 -0.1659  0.0260
39356W        W40220   8.455  15.605   3.249 -0.1867 -0.1345 -0.2297
39357W        W40221   5.881  17.051   6.440  0.2723  0.2211  0.0717
39358W        W40222   6.088  17.080   6.883 -0.3680 -0.0843  0.0640
39359W        W40223   9.754  15.257   3.950  0.0138 -0.0474  0.0785
39360W        W40224   3.979  15.110   6.492  0.4240  0.0834 -0.0074
39361W        W40225   5.392  14.609   2.866 -0.0176  0.1313  0.0148
39362W        W40226   6.334  14.633   4.725  0.0856  0.0739 -0.0012
39363W        W40227   4.371  14.794   4.729 -0.3443  0.1137 -0.0730
39364W        W40228   8.879  13.255   3.670 -0.0216 -0.0012 -0.0300
39365W        W40229   5.822  16.951   3.840 -0.0316 -0.0798  0.5657
39366W        W40230   5.790  15.877   4.860  0.1821 -0.2957 -0.0024
39367W        W40231   6.866  17.883   3.369  0.2626 -0.0055 -0.1533
39368W        W40232   2.637  16.095   7.446  0.3438 -0.1844  0.1527
39369W        W40233   4.116  18.079   2.752 -0.3401  0.2614  0.0177
39370W        W40234   6.041  17.597   6.735 -0.2994 -0.1048  0.1364
39371W        W40235   5.607  14.022   6.842 -0.2822 -0.2079 -0.2838
39372W        W40236   6.988  17.175   7.290 -0.0121 -0.1120  0.2181
39373W        W40237   6.501  16.341   5.627 -0.2551  0.2589 -0.2107
39374W        W40238   4.506  17.690   3.656 -0.0381 -0.0944  0.0652
39375W        W40239   4.932  15.843   4.351  0.0118 -0.1304 -0.3336
39376W        W40240   6.945  17.018   5.423  0.0562  0.2575 -0.2433
39377W        W40241   6.429  17.843   6.374 -0.2323 -0.2447  0.0893
39378W        W40242   4.671  16.608   7.745 -0.0702  0.2825 -0.4132
39379W        W40243   7.215  15.511   5.664  0.0891  0.1578  0.1352
39380W        W40244   5.938  14.605   7.547 -0.0342 -0.0331 -0.0143
39381W        W40245   4.114  15.660   7.100 -0.2092  0.0492  0.1709
39382W        W40246   4.446  16.149   7.157 -0.2360  0.0689  0.2739
39383W        W40247   8.052  13.055   7.806  0.2588  0.1206  0.0377
39384W        W40248   4.131  15.166   7.414 -0.1762 -0.1897  0.1596
39385W        W40249   6.246  16.008   7.393  0.1085 -0.3023 -0.0879
39386W        W40250   5.395  16.406   7.088 -0.3722 -0.0150  0.2520
39387W        W40251   7.701  17.280   4.662  0.1458 -0.0722  0.2013
39388W        W40252   5.088  12.265   4.769 -0.0688  0.1514  0.1274
39389W        W40253   4.937  18.248   5.266 -0.2213 -0.1766  0.2520
39390W        W40254   3.755  19.158   9.488 -0.0559  0.1155 -0.0442
39391W        W40255   4.621  18.648   3.270 -0.2695  0.0092 -0.0156
39392W        W40256   3.449  14.520   7.079  0.2501 -0.0930  0.0512
39393W        W40257   4.582  18.890   9.672  0.1587  0.0642  0.3312
39394W        W40258   3.400  17.822  10.670  0.0327 -0.1553 -0.1821
39395W        W40259  11.411  15.718  11.241 -0.3760 -0.0410 -0.1512
39396W        W40260   8.979  19.939  10.150  0.3321  0.1145 -0.1373
39397W        W40261   6.915  18.416   7.546 -0.0821 -0.1227 -0.0431
39398W        W40262   4.433  16.863   6.381  0.0384 -0.0628  0.0884
39399W        W40263   3.108  15.868   9.888 -0.0084  0.1563  0.2593
39400W        W40264   6.059  17.736   9.738 -0.0706  0.0944  0.0545
39401W        W40265   7.724  15.951  14.826 -0.0364  0.0358  0.2725
39402W        W40266   5.640  16.095  12.236 -0.0568  0.2089 -0.1365
39403W        W40267   5.301  15.900  10.207  0.1743 -0.4525 -0.0563
39404W        W40268   7.398  14.060   7.185 -0.0374  0.1394  0.0507
39405W        W40269   6.838  17.832   5.395  0.0153  0.0355 -0.0022
39406W        W40270   8.527  17.213  12.253 -0.1445  0.1677  0.0266
39407W        W40271   4.489  14.401   8.687  0.2111 -0.1173 -0.3107
39408W        W40272   3.820  16.355  12.995 -0.3376  0.1636 -0.0568
39409W        W40273   5.600  16.237   5.834  0.1043 -0.1307  0.1032
39410W        W40274   7.578  14.881  10.529  0.1272  0.0538 -0.4426
39411W        W40275   5.968  18.078   9.007 -0.2543 -0.1560 -0.1670
39412W        W40276   6.513  17.825   6.872 -0.0772  0.0436 -0.0650
39413W        W40277   6.238  17.792   9.253 -0.0358  0.0539  0.2628
39414W        W40278   5.275  16.689   8.437 -0.0866  0.1787 -0.1401
39415W        W40279   5.717  17.869   9.366 -0.0244 -0.2699  0.2395
39416W        W40280   1.880  16.058  10.113  0.1044 -0.0979  0.2302
39417W        W40281   2.500  17.674  10.126  0.2373  0.1319 -0.0463
39418W        W40282   5.235  17.895   8.146 -0.0762 -0.1221 -0.0632
39419W        W40283   8.478  15.394  10.708 -0.0008  0.0929  0.0888
39420W        W40284   5.157  15.951  11.329  0.0300 -0.0959 -0.2677
39421W        W40285   5.046  18.842  10.474 -0.0696  0.0429  0.0478
39422W        W40286   6.120  17.530   8.806 -0.3029 -0.1110 -0.3730
39423W        W40287   5.000  16.774  11.728  0.0375 -0.0118  0.1076
39424W        W40288   6.974  16.526  11.645 -0.0258 -0.1669 -0.1830
39425W        W40289   5.122  15.123  13.211 -0.0805 -0.0308 -0.3277
39426W        W40290   5.333  16.982  10.260 -0.0103 -0.0720  0.0337
39427W        W40291   5.651  16.422  14.675 -0.0847  0.3114  0.2129
39428W        W40292   7.635  17.426  10.109 -0.2640  0.0307 -0.3006
39429W        W40293   7.041  12.892   8.563 -0.0258 -0.0141  0.0085
39430W        W40294   4.964  14.046   9.304 -0.1007  0.3311  0.0164
39431W        W40295   8.596  15.963   8.555 -0.2457  0.0392  0.0129
39432W        W40296   8.206  15.905   9.999 -0.0439 -0.1059 -0.0298
39433W        W40297   4.830  13.845   7.401  0.1100 -0.0833  0.0879
39434W        W40298   6.408  16.109  10.142 -0.0421  0.0670  0.3205
39435W        W40299   7.119  16.589   9.055  0.2820 -0.0563 -0.2156
39436W        W40300   5.914  14.372   8.991  0.2334 -0.1822  0.2558
39437W        W40301   3.733  17.612   7.323  0.0156  0.1779  0.0718
39438W        W40302   7.193  18.490   7.931  0.2336  0.0861  0.0014
39439W        W40303   5.407  12.386  10.325 -0.1629 -0.0931 -0.1014
39440W        W40304  10.067  14.974  11.654 -0.1567 -0.1168 -0.0749
39441W        W40305   5.203  15.747   9.299  0.0246 -0.2774 -0.0925
39442W        W40306   7.662  16.445   8.219  0.1341  0.1357 -0.0715
39443W        W40307   7.400  16.031   8.531 -0.0603 -0.0747  0.1310
39444W        W40308   4.990  15.720   9.859 -0.1277  0.3354  0.0941
39445W        W40309   8.192  16.700   9.203  0.1602  0.0919 -0.2006
39446W        W40310   7.165  15.060   9.416 -0.0343 -0.0470 -0.0184
39447W        W40311   3.079  12.952  10.042 -0.0989 -0.0849 -0.1032
39448W        W40312   6.698  19.062   6.710 -0.0152  0.2480 -0.3259
39449W        W40313   2.801  13.317  10.620  0.0957  0.1636  0.0796
39450W        W40314   5.743  16.624  10.285 -0.0086 -0.4852 -0.0338
39451W        W40315   4.254  19.276   9.533  0.1317  0.0683 -0.2267
39452W        W40316   2.938  16.334   9.651 -0.3437 -0.1435 -0.2885
39453W        W40317   5.633  16.109   5.303 -0.0225 -0.0922 -0.2522
39454W        W40318   4.678  19.996  11.177  0.2750 -0.0322  0.0409
39455W        W40319   4.728  18.937   7.954 -0.0705  0.0948  0.1351
39456W        W40320   4.170  16.226   9.604 -0.0323  0.1207  0.3517
39457W        W40321   6.244  13.356   9.110 -0.0440  0.2131 -0.1232
39458W        W40322   9.339  14.840  10.323  0.1301  0.2774 -0.1589
39459W        W40323   2.853  15.915   9.347  0.0588 -0.2001  0.3885
39460W        W40324   2.457  13.498   7.830  0.2388 -0.1720  0.2535
39461W        W40325   4.584  17.691   8.627  0.3382 -0.2012 -0.3666
39462W        W40326   5.567  14.212   7.767 -0.1866 -0.0350  0.1761
39463W        W40327   7.051  17.139   8.405  0.2192  0.0106 -0.5104
39464W        W40328   3.689  16.840   9.092  0.1802  0.1678 -0.0316
39465W        W40329   6.919  16.021   9.182 -0.3643 -0.2675  0.2010
39466W        W40330   8.847  15.733  10.470 -0.1325  0.4090  0.3061
39467W        W40331   8.820  16.480   9.867  0.1526  0.1813 -0.1481
39468W        W40332   8.224  16.325  10.921  0.1056 -0.3851  0.0315
39469W        W40333   2.627  14.910   9.158  0.1505  0.2405  0.2618
39470W        W40334   6.601  16.946   9.753  0.1443 -0.2435 -0.0020
39471W        W40335   3.998  18.057   8.561 -0.2168  0.0829 -0.2087
39472W        W40336   6.418  18.598   8.243 -0.0223 -0.1129  0.2900
39473W        W40337   5.602  18.304  12.662  0.2576 -0.2474 -0.1614
39474W        W40338   6.502  18.745   9.583 -0.0229  0.0025 -0.2069
39475W        W40339   4.525  16.927  10.921 -0.0882  0.1532 -0.0500
39476W        W40340   5.269  15.512   8.864 -0.2479  0.3287  0.1075
39477W        W40341   6.338  13.948   8.161 -0.2916  0.0297 -0.1046
39478W        W40342   2.981  16.427   7.336  0.3360  0.0292 -0.2644
39479W        W40343   7.492  15.351  11.141  0.0767  0.3530  0.3033
39480W        W40344   6.413  14.787  11.004  0.3610  0.0386 -0.2129
39481W        W40345   7.657  16.682  12.226  0.0456  0.0449 -0.0702
39482W        W40346   3.711  13.877  10.279  0.3506 -0.0615 -0.0123
39483W        W40347   6.296  14.586   9.254 -0.2499  0.0823 -0.0231
39484W        W40348   9.017  15.664  11.596 -0.2149 -0.0277 -0.4663
39485W        W40349   3.913  17.131   8.609  0.0265  0.2753 -0.1642
39486W        W40350   4.921  13.384   8.587  0.0495 -0.1845 -0.2428
39487W        W40351   7.371  17.000  10.098 -0.1464  0.0194  0.2382
39488W        W40352   4.813  16.740   8.505  0.4030  0.0608  0.0649
39489W        W40353   4.702  15.401   9.308 -0.2151  0.1122 -0.0035
39490W        W40354   6.930  16.311  13.824 -0.0820  0.3696 -0.0012
39491W        W40355   3.812  12.063  10.164 -0.3800 -0.1080 -0.0361
39492W        W40356   3.754  13.436   7.666  0.0087 -0.1369  0.0681
39493W        W40357   6.590  16.258   6.381 -0.2811 -0.1143  0.0218
39494W        W40358   4.994  17.573   9.571  0.3443 -0.1086 -0.2967
39495W        W40359   5.916  17.389   9.246  0.1347 -0.1000 -0.1463
39496W        W40360   7.936  18.112   9.258  0.0337 -0.0394  0.2026
39497W        W40361   6.834  16.505   9.499 -0.1712 -0.0551 -0.1088
39498W        W40362   5.734  18.061   9.807 -0.1225 -0.2619 -0.0800
39499W        W40363   8.031  18.054   6.084 -0.0491 -0.0223 -0.3265
39500W        W40364   6.115  18.475  10.953  0.1631  0.1391 -0.0954
39501W        W40365   7.581  12.660   9.689  0.1011 -0.1276 -0.2180
39502W        W40366   4.443  13.136  11.280 -0.3545  0.0010  0.4496
39503W        W40367   4.091  17.839  11.028 -0.1097  0.0884  0.1111
39504W        W40368   6.504  18.051   5.724 -0.3335  0.1964  0.0311
39505W        W40369   4.627  16.072  10.450 -0.2750 -0.2301 -0.2007
39506W        W40370   6.331  16.495   8.504 -0.2004  0.4132  0.3398
39507W        W40371   7.357  16.784   7.435 -0.2259  0.1994  0.3826
39508W        W40372   3.781  14.867   9.354 -0.0011 -0.0115 -0.0645
39509W        W40373   5.518  13.389  11.210 -0.0347  0.1946 -0.0250
39510W        W40374   5.608  16.030   9.616 -0.0053 -0.0716  0.1870
39511W        W40375   6.041  15.034   7.341  0.0435 -0.0039 -0.0029
39512W        W40376   8.137  13.866   8.588  0.1286  0.1234 -0.0245
39513W        W40377   7.659  14.900   7.835  0.1453  0.0958 -0.1060
39514W        W40378   8.130  17.647   9.308 -0.0079  0.0068  0.0852
39515W        W40379   4.259  17.687   8.959 -0.2006  0.0003  0.2629
39516W        W40380   5.038  12.749   6.885  0.1116 -0.0898 -0.2816
39517W        W40381   6.201  18.354   9.506  0.2057 -0.0011 -0.0473
39518W        W40382   8.376  14.874   5.707  0.0895  0.0989 -0.1869
39519W        W40383   4.711  15.211  10.918  0.0686  0.0011 -0.3529
39520W        W40384   5.226  16.541  10.425 -0.1228  0.0007 -0.3384
39521W        W40385   9.309  16.203   9.881 -0.0288  0.2013  0.0924
39522W        W40386   3.706  16.073   7.886  0.1042  0.0067 -0.4250
39523W        W40387   4.946  18.155   8.521  0.0291 -0.2276  0.2261
39524W        W40388   6.050  14.010   7.758 -0.1969 -0.0267  0.0240
39525W        W40389   6.405  19.638   8.269 -0.1586 -0.0762 -0.1958
39526W        W40390   6.517  13.471   5.991  0.0604  0.0209  0.3535
39527W        W40391   7.223  15.183   8.767  0.0881 -0.1668 -0.2789
39528W        W40392   4.131  15.047   8.257 -0.0453  0.0768 -0.3259
39529W        W40393   7.499  14.477   9.661  0.1997 -0.2435  0.0879
39530W        W40394   8.237  16.430   9.778  0.0486  0.1432 -0.4352
39531W        W40395   6.117  16.159   6.666  0.0948  0.1465  0.1746
39532W        W40396   3.226  18.694   6.975  0.2229 -0.0035  0.0540
39533W        W40397   3.564  13.662   8.083  0.3349  0.0866  0.4103
39534W        W40398   6.253  12.090   8.596  0.0021  0.0924  0.1355
39535W        W40399   4.735  19.246   8.417  0.2716  0.1135  0.0817
39536W        W40400   6.662  15.056   8.066 -0.0628 -0.2545  0.2192
39537W        W40401   5.784  17.412  12.299  0.0639 -0.0806 -0.1475
39538W        W40402   5.579  14.199  12.145  0.0953  0.0154 -0.2918
39539W        W40403   5.352  14.026  10.491 -0.0718  0.0613 -0.0548
39540W        W40404   7.414  18.318  10.054  0.1801 -0.0174 -0.0463
39541W        W40405   5.536  15.637   8.498  0.1850 -0.0213  0.0112
39542W        W40406   4.486  17.688   7.938 -0.1086  0.1720 -0.2027
39543W        W40407   5.897  15.760  11.995  0.2787  0.0007 -0.0118
39544W        W40408   3.290  15.613   8.593 -0.0338 -0.1789  0.4770
39545W        W40409   5.162  15.308   9.563 -0.2273  0.0039 -0.1837
39546W        W40410   4.374  16.868   8.024  0.0416  0.1974 -0.0750
39547W        W40411   3.524  15.212  12.166 -0.0994 -0.0860  0.0990
39548W        W40412   7.253  15.856  10.879 -0.0056  0.0246 -0.3726
39549W        W40413   1.800  15.210  10.817  0.1108  0.3114 -0.4405
39550W        W40414   7.078  15.809   6.884 -0.1824  0.1133  0.2885
39551W        W40415   4.907  14.724   8.911  0.0031 -0.0165  0.0415
39552W        W40416   6.379  14.646  10.510  0.1506 -0.2545  0.0941
39553W        W40417   7.448  15.884   9.373  0.0864 -0.3474 -0.1142
39554W        W40418   5.331  18.061   8.902 -0.1443  0.0142  0.0118
39555W        W40419   7.570  17.681   9.197  0.1138 -0.2176  0.0563
39556W        W40420   8.221  19.313  12.908  0.0191  0.1539 -0.0546
39557W        W40421   6.198  16.694  11.839 -0.1207  0.0667 -0.0240
39558W        W40422   6.723  16.010  11.261 -0.0576  0.2819 -0.2639
39559W        W40423   4.128  15.493   9.144  0.2729  0.0920 -0.1726
39560W        W40424   4.548  18.099   5.967 -0.3632  0.3294  0.3150
39561W        W40425   6.765  16.869  10.737 -0.2718  0.2758  0.0482
39562W        W40426   3.333  14.721   7.707  0.3576 -0.2438  0.0609
39563W        W40427   6.597  17.598   8.516 -0.1047 -0.3230 -0.2107
39564W        W40428   7.860  15.318   7.526  0.3591  0.3789 -0.1209
39565W        W40429   5.477  15.612   9.845  0.0644  0.0075 -0.1256
39566W        W40430   5.444  17.248   7.439  0.0498  0.1019  0.0251
39567W        W40431   8.137  13.115   9.178 -0.0106 -0.0319 -0.0870
39568W        W40432   8.921  16.125   6.799 -0.1016 -0.2374 -0.2060
39569W        W40433   3.621  18.041  12.957  0.1462 -0.3014 -0.1790
39570W        W40434   4.901  16.252  11.650  0.0210  0.0245  0.0688
39571W        W40435   2.791  17.205   5.450 -0.1856  0.0363  0.0952
39572W        W40436   4.334  17.175   8.813 -0.0294  0.1556  0.0731
39573W        W40437   6.520  16.407   7.527  0.2943 -0.0494  0.1102
39574W        W40438   5.881  17.104   8.792 -0.0079  0.2023 -0.6186
39575W        W40439   5.610  12.314   9.868  0.0720 -0.3631  0.0302
39576W        W40440   4.958  16.796   8.060 -0.1187  0.3065 -0.0589
39577W        W40441   5.766  14.377   9.933  0.0190  0.0004 -0.0227
39578W        W40442  11.590  16.250  11.351 -0.0333 -0.0419 -0.0702
39579W        W40443   5.665  12.041   7.458 -0.2195  0.0519 -0.2020
39580W        W40444   5.213  13.218   8.950 -0.2450 -0.1801 -0.3673
39581W        W40445   6.387  16.956  11.049 -0.0470 -0.0402 -0.0501
39582W        W40446   3.835  17.038  10.123  0.1522 -0.0646 -0.0322
39583W        W40447   5.328  14.239   8.312 -0.1646  0.0313 -0.0818
39584W        W40448   3.616  17.770   8.879  0.1215 -0.2888  0.5363
39585W        W40449   6.922  15.021  12.297  0.1371 -0.0690 -0.1046
39586W        W40450   6.434  17.416   9.533  0.0426  0.2931 -0.0561
39587W        W40451   6.749  15.768   7.760 -0.2599 -0.0641  0.0363
39588W        W40452   3.901  14.314  10.492 -0.0432  0.3008 -0.0445
39589W        W40453   6.802  13.033   6.270  0.1203  0.0868  0.0922
39590W        W40454   5.494  15.089   8.718 -0.2873  0.1684  0.1100
39591W        W40455   3.660  13.231  10.649  0.0351  0.3465  0.2550
39592W        W40456   7.257  14.274   7.871 -0.1135  0.1740  0.0300
39593W        W40457   2.920  13.616   7.946  0.2980  0.1024  0.1438
39594W        W40458   6.076  15.279   9.970 -0.2510  0.0049 -0.0887
39595W        W40459   6.474  14.960   6.213 -0.0517 -0.2784  0.1511
39596W        W40460   6.793  10.687  10.961 -0.0196 -0.1101 -0.2129
39597W        W40461   4.551  17.188   8.378 -0.0980  0.2200  0.0405
39598W        W40462   3.861  15.677   8.780  0.1116  0.1186  0.0377
39599W        W40463   4.805  17.111  12.627 -0.1341 -0.0402 -0.2209
39600W        W40464   3.401  17.964   9.668  0.2887  0.3039  0.1258
39601W        W40465   6.354  19.621   7.222 -0.0603 -0.1264 -0.0688
39602W        W40466   3.790  17.388   6.326 -0.1890 -0.2026 -0.0629
39603W        W40467   6.750  17.936   7.324  0.0662 -0.1361  0.2068
39604W        W40468   2.082  18.235  10.915 -0.2966  0.1820  0.2566
39605W        W40469   4.119  15.471  10.017 -0.1139 -0.2342  0.1245
39606W        W40470   5.213  14.823  10.227  0.2438 -0.0920  0.0584
39607W        W40471   9.378  14.973  11.540 -0.2242  0.3326  0.0083
39608W        W40472   8.289  15.437   6.563  0.5093 -0.1106 -0.2470
39609W        W40473   6.103  18.338   8.515  0.3296  0.2556  0.0370
39610W        W40474   5.444  16.722   5.709  0.1349  0.3955 -0.1885
39611W        W40475   5.669  15.373  10.236 -0.3759  0.0923  0.1779
39612W        W40476   3.863  16.175  11.666 -0.2293 -0.1611  0.0406
39613W        W40477   5.942  15.844  10.832 -0.0385 -0.0125  0.1530
39614W        W40478   9.127  16.254  10.966  0.0635 -0.0161 -0.1250
39615W        W40479   6.479  15.002  12.475 -0.0596 -0.0212 -0.3001
39616W        W40480   8.404  13.617   8.932 -0.2539 -0.2519  0.0511
39617W        W40481   4.584  15.451   8.846  0.2512  0.1736 -0.0717
39618W        W40482   2.341  17.115   9.841  0.0857  0.0629 -0.3081
39619W        W40483   8.562  19.040   8.543  0.1240  0.1354 -0.3288
39620W        W40484   8.047  15.189   8.399 -0.0111  0.0427 -0.0755
39621W        W40485   8.967  14.989   8.268 -0.0744  0.2042  0.0550
39622W        W40486   8.517  15.749  11.493 -0.2014 -0.2785 -0.2405
39623W        W40487   7.385  16.131  10.477 -0.0113 -0.1151 -0.1155
39624W        W40488   6.955  17.452  11.866  0.0548 -0.2517 -0.3245
39625W        W40489   7.480  17.682   5.479 -0.0951 -0.2278 -0.4874
39626W        W40490   7.050  16.722   7.819  0.1434  0.0036  0.2977
39627W        W40491   6.573  15.694  12.127  0.0708 -0.0820  0.0169
39628W        W40492   3.818  15.788   9.808  0.2349 -0.4167 -0.0910
39629W        W40493   4.762  15.620  10.255  0.1612 -0.3031 -0.0795
39630W        W40494   3.955  14.727  10.833 -0.2191  0.0214  0.0657
39631W        W40495   8.273  17.269   9.028 -0.2949 -0.0208  0.1354
39632W        W40496   8.182  17.820   8.822 -0.0236 -0.1804  0.1352
39633W        W40497   2.622  17.140   7.241 -0.0266 -0.1528  0.1957
39634W        W40498   3.881  16.911  13.645 -0.4553 -0.1685  0.2896
39635W        W40499   3.324  15.651   9.532 -0.0476 -0.0804  0.1393
39636W        W40500   3.777  15.452   7.954 -0.3837 -0.1228  0.0027
39637W        W40501   4.242  15.082   9.578 -0.1953  0.2634  0.0073
39638W        W40502   7.359  15.563   8.295  0.1298 -0.1395  0.1794
39639W        W40503   4.985  17.580   7.678  0.0212 -0.1412 -0.2507
39640W        W40504   5.613  17.844  10.685  0.1753  0.3408  0.1320
39641W        W40505   6.462  17.297   6.500 -0.0192  0.1113  0.1258
39642W        W40506   5.839  12.335   8.562  0.1295  0.1572  0.1939
39643W        W40507   5.608  16.855   9.782 -0.2742  0.2432  0.2574
39644W        W40508   5.052  16.717   9.891  0.1770 -0.1574 -0.1751
39645W        W40509   7.221  20.748  13.019  0.0344 -0.0430  0.3895
39646W        W40510   6.492  15.190  11.996  0.4461  0.1735  0.1804
39647W        W40511   3.275  14.121   8.109 -0.2199  0.3440  0.2897
39648W        W40512   8.294  16.214   8.851  0.1846  0.0068 -0.2817
39649W        W40513   6.671  15.647   7.250 -0.1194  0.0699 -0.1899
39650W        W40514   6.089  15.786   9.803 -0.0639 -0.0389 -0.0435
39651W        W40515   7.013  17.243  10.407 -0.0256 -0.1742  0.0595
39652W        W40516   8.861  14.942   9.263  0.1714  0.1383  0.0506
39653W        W40517   6.147  12.836   8.572 -0.2639  0.3330  0.1223
39654W        W40518   5.866  13.812   8.533  0.2998 -0.1242 -0.2532
39655W        W40519   6.392  17.111   8.525  0.0176 -0.5117 -0.0385
39656W        W40520   6.182  15.050   7.998  0.0609 -0.1125 -0.0487
39657W        W40521   5.180  19.027   8.376  0.0930  0.1850  0.1068
39658W        W40522   5.707  18.725  12.343  0.1089 -0.2397 -0.2546
39659W        W40523   3.380  18.909   9.032  0.0271 -0.0025 -0.0068
39660W        W40524   8.568  16.047   8.034  0.0885 -0.1221 -0.1342
39661W        W40525   2.429  14.378   6.714 -0.3985  0.2181 -0.2774
39662W        W40526   8.262  15.109   7.285  0.0328  0.1417  0.1089
39663W        W40527   2.611  19.549   6.432  0.0266 -0.1408  0.3689
39664W        W40528   5.396  15.707  12.108 -0.0088  0.2505 -0.1595
39665W        W40529   5.092  15.133   9.109 -0.4966 -0.0101  0.2117
39666W        W40530   4.577  18.261   8.871  0.1133 -0.0430  0.1379
39667W        W40531  10.389  16.824  11.445  0.0599  0.2943 -0.1449
39668W        W40532   8.069  17.297  10.851  0.0575 -0.0084 -0.1983
39669W        W40533   3.112  14.705  10.547 -0.2681  0.1043  0.0746
39670W        W40534   4.728  16.119  11.190 -0.0691  0.0861 -0.0361
39671W        W40535   4.883  16.643   6.420 -0.0332 -0.0086 -0.0516
39672W        W40536   1.163  19.030   7.127  0.1814 -0.0200  0.1834
39673W        W40537   3.725  15.830   9.276 -0.2349 -0.0414 -0.1559
39674W        W40538   4.513  12.678  10.627  0.1804  0.1647 -0.1186
39675W        W40539   6.925  13.275   7.393 -0.2486  0.2633  0.0138
39676W        W40540   4.562  21.420  11.226 -0.0833  0.4652 -0.1291
39677W        W40541   8.230  14.075   7.524  0.0389 -0.0581 -0.0163
39678W        W40542   7.431  16.890  13.590 -0.2950  0.1842 -0.1557
39679W        W40543   3.315  17.608   7.034  0.2432 -0.4208  0.0122
39680W        W40544   5.947  16.262   9.979  0.0915 -0.1982  0.0274
39681W        W40545   9.039  12.713   7.962 -0.0246  0.2780 -0.2427
39682W        W40546   7.144  15.372   7.893 -0.1249 -0.1109 -0.1228
39683W        W40547   6.125  15.983   7.882 -0.4293 -0.2462 -0.1182
39684W        W40548   4.338  14.464  11.008 -0.2826  0.1538 -0.3667
39685W        W40549   8.292  14.498   9.020 -0.0436 -0.0633  0.0577
39686W        W40550   4.504  17.163  10.128  0.1240  0.0636  0.1539
39687W        W40551   4.765  16.696  10.345 -0.0470  0.0961  0.4335
39688W        W40552   6.357  15.801   6.412  0.0484  0.0486 -0.1501
39689W        W40553   6.980  12.629   8.150 -0.1356  0.0547  0.0623
39690W        W40554   6.318  15.673  11.237  0.1079 -0.0157 -0.0881
39691W        W40555   8.037  15.521   7.084 -0.2031  0.0293 -0.0940
39692W        W40556   5.244  16.885   7.137  0.1326  0.3775  0.1037
39693W        W40557   3.792  17.032   9.623 -0.0974 -0.0241 -0.3352
39694W        W40558   5.848  16.707  13.088 -0.1232 -0.2789 -0.2613
39695W        W40559   6.493  16.395  11.574 -0.2728  0.0711  0.2165
39696W        W40560   9.559  15.524   7.875 -0.0522 -0.1204  0.1319
39697W        W40561   5.931  16.795   4.358  0.0295  0.3137  0.0645
39698W        W40562   6.654  18.472   8.620 -0.0620 -0.0389 -0.0027
39699W        W40563   8.972  15.806   8.173 -0.1642 -0.1613 -0.2046
39700W        W40564   7.336  13.084   9.493 -0.2318  0.0578  0.0339
39701W        W40565   7.990  16.842   6.543  0.0489  0.0590 -0.1329
39702W        W40566   2.350  16.625   9.793 -0.1473  0.0198 -0.3983
39703W        W40567   4.014  14.030   8.120 -0.0728  0.1669 -0.0355
39704W        W40568   4.391  16.496  16.012  0.4672  0.0947 -0.1117
39705W        W40569   7.571  15.398   9.154  0.1901  0.1017  0.1833
39706W        W40570   7.390  18.785   9.673 -0.2187  0.0810 -0.3656
39707W        W40571   4.925  18.444  12.938 -0.0716  0.1230  0.1404
39708W        W40572   5.796  19.254  10.476  0.3632 -0.1227 -0.3876
39709W        W40573   5.407  13.669   9.273 -0.0642 -0.1217  0.0863
39710W        W40574   3.810  17.705   4.446 -0.1919 -0.0268  0.5014
39711W        W40575   4.551  18.095   9.937 -0.0282  0.1638 -0.1516
39712W        W40576   2.239  15.842  10.926  0.0165  0.0221  0.1574
39713W        W40577   5.271  16.659   9.422  0.1866  0.0145 -0.2281
39714W        W40578   6.081  15.369   6.246 -0.0311  0.0867  0.3423
39715W        W40579   3.240  15.500  11.749  0.2465  0.0278 -0.3276
39716W        W40580   4.871  15.969   8.973  0.4196 -0.1072 -0.0456
39717W        W40581   3.410  15.558  10.912 -0.1510  0.3660 -0.3121
39718W        W40582   6.833  16.902  11.284 -0.0083 -0.1147 -0.1557
39719W        W40583   3.676  14.445   8.010  0.0522  0.0199  0.1064
39720W        W40584   5.421  17.478   7.919 -0.2432 -0.0032  0.3173
39721W        W40585   7.206  12.498   7.025 -0.0498  0.0103  0.1458
39722W        W40586   5.011  17.157   9.249 -0.0582  0.4683 -0.0900
39723W        W40587   5.458  12.920  11.744  0.1986  0.1162 -0.0947
39724W        W40588   5.238  15.938   5.879  0.0059  0.1375  0.1271
39725W        W40589   7.706  16.515  10.329  0.1147  0.0825  0.0830
39726W        W40590   6.686  18.575  10.129  0.1430 -0.0455  0.3907
39727W        W40591   8.264  15.834   9.147  0.1118  0.2097 -0.1168
39728W        W40592   6.252  18.193   9.975 -0.1818  0.2841  0.2168
39729W        W40593   5.927  16.303  11.625 -0.2071 -0.0730 -0.2875
39730W        W40594   8.495  15.098   8.673 -0.3385 -0.2556 -0.0847
39731W        W40595   3.162  18.031   7.349 -0.1361 -0.3021 -0.1088
39732W        W40596   4.668  13.898   6.933  0.1087  0.3792  0.0625
39733W        W40597   4.873  18.430  10.143 -0.1256 -0.3173 -0.0507
39734W        W40598   4.193  18.136   9.239 -0.1438  0.3570  0.3694
39735W        W40599   3.445  15.457   9.063  0.2448 -0.3470 -0.0164
39736W        W40600   3.835  19.059   7.709 -0.1673 -0.0350 -0.3189
39737W        W40601   5.347  16.965  11.192  0.0999 -0.0359 -0.0300
39738W        W40602   7.708  17.101  10.503  0.0316 -0.1576 -0.3313
39739W        W40603   5.898  16.870   7.759  0.0140 -0.3172 -0.0201
39740W        W40604   2.926  14.505  11.072 -0.3439  0.0519 -0.0071
39741W        W40605   3.202  19.013   8.573  0.2865 -0.1450 -0.1536
39742W        W40606   5.375  16.073   8.728  0.0730  0.0323 -0.1718
39743W        W40607   6.404  16.086   9.604  0.3017 -0.0901  0.5009
39744W        W40608   4.981  13.044   5.883  0.1401 -0.0190  0.1587
39745W        W40609   6.083  13.555  12.046 -0.1622  0.0571 -0.0526
39746W        W40610   4.050  17.961   9.740 -0.0336 -0.4072 -0.1307
39747W        W40611   3.818  16.627   8.590 -0.0655  0.3034 -0.1050
39748W        W40612   6.872  13.870   7.351  0.0526 -0.0213 -0.3055
39749W        W40613   5.474  16.681   7.604  0.1360  0.2464  0.3590
39750W        W40614   4.883  14.445   9.619 -0.0603  0.4292  0.1341
39751W        W40615   6.055  16.496   9.025 -0.0477  0.0008  0.0534
39752W        W40616   5.326  16.521  10.964  0.1550  0.3242  0.0860
39753W        W40617   3.198  15.269   7.204  0.2082 -0.0467  0.2391
39754W        W40618   5.210  15.573  11.652 -0.0538 -0.4010 -0.0352
39755W        W40619   4.489  17.730   9.605 -0.1685  0.1751  0.0349
39756W        W40620   7.411  13.989   9.681 -0.2117  0.1808 -0.0592
39757W        W40621   4.347  18.402   9.638  0.1937 -0.0722  0.1786
39758W        W40622   7.043  17.715   8.330 -0.2008  0.0187  0.0394
39759W        W40623   6.081  18.189   7.535  0.2143  0.1469 -0.1542
39760W        W40624   6.214  16.467   7.110 -0.1871  0.1748 -0.3179
39761W        W40625   5.830  14.433   6.487 -0.1813  0.2297 -0.0277
39762W        W40626   7.745  15.372   7.978  0.0087 -0.1802  0.4034
39763W        W40627   5.900  16.864   8.293  0.2750 -0.2597  0.0343
39764W        W40628   6.596  16.471   9.909 -0.0914  0.0288  0.4210
39765W        W40629   4.974  15.724   8.447 -0.0106  0.0335  0.1403
39766W        W40630  12.368  14.181  10.828  0.0929 -0.0456 -0.0207
39767W        W40631   7.200  17.579   8.874  0.0811 -0.2870 -0.0067
39768W        W40632   5.195  16.748   8.926 -0.6484  0.1086 -0.2862
39769W        W40633   4.612  17.486  13.754 -0.3693  0.1617 -0.0373
39770W        W40634   7.009  17.228   9.763  0.3230  0.0347 -0.0104
39771W        W40635   9.330  17.328   9.794 -0.0788 -0.1872  0.3213
39772W        W40636   4.248  15.137  12.215  0.1738  0.1458 -0.1213
39773W        W40637   5.969  16.624  12.432 -0.1598 -0.1727  0.0171
39774W        W40638   4.182  19.107  10.374  0.0307 -0.2058  0.1281
39775W        W40639   4.650  17.938  10.901  0.1741  0.2710  0.1837
39776W        W40640   8.748  14.723  12.642  0.1960  0.0192 -0.2542
39777W        W40641   4.723  16.735   9.410 -0.1573 -0.1733 -0.0906
39778W        W40642  10.131  15.185  13.304 -0.1118  0.1426 -0.0130
39779W        W40643   9.376  15.545   8.782  0.0938 -0.3864  0.0309
39780W        W40644   8.414  15.745   9.628  0.0059  0.0746 -0.0396
39781W        W40645   5.128  16.175   9.633  0.0763  0.0032  0.0546
39782W        W40646   8.434  17.255  10.276  0.3185  0.0202 -0.1229
39783W        W40647   7.519  18.272   9.575 -0.4395 -0.0464  0.1121
39784W        W40648   3.271  15.113  11.213  0.0798  0.0240 -0.1274
39785W        W40649   8.292  17.435   8.517 -0.0107 -0.0239  0.0539
39786W        W40650  10.192  14.266  12.402  0.1923  0.4134 -0.0988
39787W        W40651   4.276  16.997   9.327  0.1326 -0.1943  0.1333
39788W        W40652   4.623  14.380  11.401  0.0070 -0.1800 -0.3002
39789W        W40653   4.652  18.490   8.228 -0.1343 -0.1214 -0.4110
39790W        W40654   8.810  15.003  13.194  0.2044  0.0045  0.1324
39791W        W40655   7.384  19.336   9.791 -0.2676  0.2774  0.0478
39792W        W40656   3.969  14.477   5.493 -0.1396 -0.0453  0.1177
39793W        W40657   5.896  18.005  12.309 -0.1192  0.0495 -0.1180
39794W        W40658   3.553  17.292  14.450 -0.0384 -0.2140 -0.0638
39795W        W40659   6.646  17.838   9.615 -0.1430  0.4560  0.0235
39796W        W40660   5.405  18.072  15.731 -0.0641  0.4303 -0.1184
39797W        W40661   5.067  18.414   9.074 -0.1174  0.3327  0.0780
39798W        W40662   4.085  19.518  11.739 -0.2322 -0.0234  0.0416
39799W        W40663   3.405  16.755  13.693  0.0748  0.1358  0.0536
39800W        W40664   4.942  17.345  13.369  0.1651 -0.1288  0.2744
39801W        W40665   4.599  15.884  13.408  0.1499 -0.0562  0.1365
39802W        W40666   2.113  14.756  11.229  0.2623  0.3662  0.1930
39803W        W40667   3.739  16.465  13.968  0.1159 -0.1548  0.0367
39804W        W40668   7.808  16.846  11.721  0.0801 -0.2356 -0.0831
39805W        W40669   6.316  17.653  10.269  0.1251 -0.0312 -0.1080
39806W        W40670   4.304  18.536  14.857  0.2394 -0.1385  0.0962
39807W        W40671   3.165  14.663  16.056  0.1577  0.0449  0.4081
39808W        W40672   4.277  18.022  12.429 -0.0651 -0.0679 -0.1074
39809W        W40673   8.259  17.898  10.147  0.0021 -0.0430  0.3307
39810W        W40674   2.483  15.741  13.410 -0.1077 -0.2022  0.0647
39811W        W40675   4.596  16.061  14.787 -0.1032  0.1203 -0.3247
39812W        W40676   7.630  14.661  14.050  0.0783 -0.0168  0.3288
39813W        W40677   6.151  16.231  12.837 -0.1415 -0.2428  0.0098
39814W        W40678   2.761  14.609  14.121 -0.3949 -0.0514  0.1542
39815W        W40679   9.210  18.474  13.860 -0.1465 -0.0107 -0.0360
39816W        W40680   4.466  16.740  14.094  0.1153  0.0603  0.1080
39817W        W40681   3.672  13.868  13.130 -0.1305 -0.1239  0.2857
39818W        W40682   5.258  16.040  16.124 -0.0095 -0.0029 -0.0952
39819W        W40683   7.441  14.181  16.795  0.1750  0.2380  0.0138
39820W        W40684   5.240  17.725  15.070  0.1206  0.2373 -0.1919
39821W        W40685   4.265  17.906  13.562  0.2203 -0.1669  0.1684
39822W        W40686   4.104  13.637  15.030 -0.2834  0.0058 -0.0185
39823W        W40687   7.697  16.348  11.596  0.2999 -0.3556  0.0464
39824W        W40688   7.035  19.453  14.488  0.0104  0.0022  0.1416
39825W        W40689   6.532  16.180  14.746 -0.0382 -0.0058 -0.0893
39826W        W40690   4.130  17.305  16.281  0.1144  0.0343  0.0098
39827W        W40691   4.985  16.046  14.009  0.0330  0.0194  0.2827
39828W        W40692   4.929  17.190  14.792 -0.0068  0.0174 -0.0606
39829W        W40693   4.788  15.339  14.021  0.0654 -0.0780 -0.1620
39830W        W40694   4.722  16.774  15.752 -0.2519 -0.0804 -0.1719
39831W        W40695   5.194  17.198   9.783  0.2622  0.0232  0.1473
39832W        W40696   5.940  15.363  13.001 -0.0183 -0.1431 -0.2957
39833W        W40697   8.489  14.346  10.521  0.0889  0.1547 -0.0186
39834W        W40698   7.987  14.906  13.135  0.1828 -0.1258 -0.3949
39835W        W40699   9.112  18.173  10.185  0.0941  0.0601 -0.2469
39836W        W40700   8.784  17.541  11.926 -0.4702  0.0760  0.2434
39837W        W40701   5.536  16.634  12.073  0.0263 -0.2209 -0.0622
39838W        W40702   3.826  15.167  12.564 -0.2051 -0.1793 -0.3265
39839W        W40703   4.329  17.536  14.682  0.0820 -0.1242 -0.0950
39840W        W40704   8.595  14.057  13.068 -0.0554 -0.1374 -0.0140
39841W        W40705   7.078  17.339  11.288 -0.3754  0.0419 -0.0318
39842W        W40706   6.614  17.800  12.200  0.1834  0.1980 -0.2031
39843W        W40707   4.891  18.356  11.798  0.1195  0.0927  0.2040
39844W        W40708   5.126  14.730  12.891  0.3533 -0.0893  0.2006
39845W        W40709   6.476  18.799  12.836  0.3695 -0.3436 -0.0460
39846W        W40710   5.087  15.331  12.249 -0.4327  0.0825 -0.1387
39847W        W40711   5.272  14.763   8.401 -0.0919  0.0855 -0.1507
39848W        W40712   5.504  16.901  10.723 -0.1873 -0.2012  0.0051
39849W        W40713   3.630  13.640  13.541  0.1965 -0.1317 -0.2864
39850W        W40714   5.771  17.076  12.694  0.4002 -0.0614 -0.2357
39851W        W40715   6.068  15.860  13.943  0.3823  0.0525 -0.2646
39852W        W40716   7.652  19.076  10.129  0.1233  0.1534 -0.2352
39853W        W40717   4.992  18.800  12.529  0.2240 -0.0680  0.0795
39854W        W40718   5.824  17.625  15.950  0.0801  0.1290  0.0548
39855W        W40719   5.209  19.670  13.414  0.0432  0.0632  0.0927
39856W        W40720   5.817  17.612  13.386 -0.1010 -0.1584 -0.3058
39857W        W40721   6.115  16.369  14.969  0.0916 -0.2903  0.0520
39858W        W40722   5.378  16.199  15.176  0.1385 -0.0474  0.0656
39859W        W40723   5.448  17.669   9.692 -0.0382  0.3044  0.0050
39860W        W40724   3.045  13.382  14.560  0.3530  0.1692  0.1534
39861W        W40725   5.141  18.282  13.450  0.1705 -0.0428  0.1214
39862W        W40726   3.766  16.007  12.171  0.1685  0.1967 -0.1108
39863W        W40727   9.150  14.679  15.141 -0.2625 -0.0931 -0.1123
39864W        W40728   6.215  14.099  13.676  0.2430 -0.1057 -0.1605
39865W        W40729   5.439  17.850  12.516  0.2169  0.0948  0.3287
39866W        W40730   6.559  16.301  13.128  0.1362  0.2687 -0.0075
39867W        W40731   8.120  17.474  13.262  0.1556 -0.3823  0.0556
39868W        W40732   8.421  16.621  15.110 -0.1347 -0.2225 -0.2184
39869W        W40733   1.907  13.965  11.879 -0.0075 -0.0933 -0.0322
39870W        W40734   4.229  18.009  14.486  0.3544  0.2426 -0.2303
39871W        W40735   6.178  15.877  12.420  0.1736 -0.0505  0.0040
39872W        W40736   7.086  16.482  13.376 -0.4092  0.1180  0.1802
39873W        W40737   1.900  15.937  12.184 -0.2387 -0.3039  0.0536
39874W        W40738   3.589  16.001  14.883 -0.2915 -0.0472  0.1042
39875W        W40739   5.390  12.759   9.794  0.0803 -0.2561  0.1322
39876W        W40740   6.210  15.996  13.307 -0.0848 -0.4240  0.3690
39877W        W40741   5.209  14.785  15.412  0.2914 -0.3769 -0.2269
39878W        W40742   3.622  15.342  13.576 -0.1810  0.2459 -0.5146
39879W        W40743   6.911  17.244  16.315  0.0578  0.0505  0.1161
39880W        W40744   3.916  14.800  13.460  0.1314  0.1800  0.0410
39881W        W40745   7.649  15.756  13.833 -0.0279  0.2098 -0.0096
39882W        W40746   5.374  16.904  13.974  0.1658  0.0741  0.0027
39883W        W40747   8.557  13.379  11.782 -0.4123 -0.1993  0.0858
39884W        W40748   5.106  17.203  15.311  0.1051  0.0430  0.2017
39885W        W40749   5.445  18.194  14.062 -0.2970 -0.0328 -0.0413
39886W        W40750   3.563  16.050  11.229  0.1414 -0.2264  0.2578
39887W        W40751   3.049  14.859  12.247  0.1825 -0.2382 -0.2913
39888W        W40752   8.436  16.744  11.040 -0.3088 -0.2252 -0.0028
39889W        W40753   6.962  16.190  10.147  0.2125  0.1597  0.1749
39890W        W40754   2.868  16.327  15.497 -0.0846  0.1948  0.1239
39891W        W40755   3.978  14.847  11.784  0.1531  0.0800 -0.1501
39892W        W40756   8.106  14.798  14.286  0.4487 -0.1792  0.2117
39893W        W40757   8.454  17.255   9.543  0.4378 -0.2030  0.2654
39894W        W40758   2.170  15.367   9.639  0.0115  0.0647  0.1777
39895W        W40759   5.099  14.232  10.151 -0.1488 -0.0182  0.0253
39896W        W40760   6.655  17.427  14.595  0.0462  0.0934 -0.0959
39897W        W40761   9.943  14.386  15.539 -0.2205 -0.0498  0.0705
39898W        W40762   4.913  14.552  14.277  0.0434 -0.0680 -0.0293
39899W        W40763   6.763  17.718  12.688 -0.0798 -0.0338 -0.3272
39900W        W40764   7.875  12.962  14.992  0.1957 -0.0910 -0.0442
39901W        W40765   4.913  15.727  12.644  0.1054  0.1430  0.1002
39902W        W40766   2.018  14.605  13.176 -0.0818 -0.1649  0.4253
39903W        W40767   4.346  16.955  15.487  0.0687  0.0960  0.2221
39904W        W40768   6.008  18.139  10.521  0.1588  0.1275 -0.1371
39905W        W40769   5.761  14.066  14.497  0.2424  0.0850  0.0659
39906W        W40770   6.055  19.312  13.646 -0.0774 -0.1432 -0.1849
39907W        W40771   9.131  16.176  11.503  0.0657  0.0600 -0.0964
39908W        W40772   5.802  18.686  11.784 -0.1713 -0.0804  0.0418
39909W        W40773   6.743  13.306  12.476 -0.1365 -0.0626 -0.1704
39910W        W40774   5.145  16.818  13.507 -0.2996 -0.1609  0.4784
39911W        W40775   4.487  14.932  14.188  0.1053  0.3965 -0.0749
39912W        W40776   7.340  16.071  13.000 -0.5688  0.2211  0.0107
39913W        W40777   8.170  16.544  11.449  0.1961 -0.0444 -0.0240
39914W        W40778   5.452  16.423   9.986  0.2281 -0.0462  0.0114
39915W        W40779   6.835  18.174  12.573  0.0866 -0.0606  0.0892
39916W        W40780   4.259  16.482  10.750  0.0870 -0.1378  0.0597
39917W        W40781   5.325  16.044  14.489  0.0010  0.1935  0.0500
39918W        W40782   4.527  13.260  14.581  0.2657  0.1567  0.2308
39919W        W40783   3.947  14.051  12.767  0.0975  0.0870 -0.1762
39920W        W40784   8.196  14.855  16.298  0.0587  0.1320 -0.2630
39921W        W40785   6.773  17.083  14.966 -0.2451 -0.3446 -0.1779
39922W        W40786   1.490  16.183  12.062  0.0805 -0.0693 -0.2998
39923W        W40787   7.024  18.475  14.063 -0.0634  0.0527  0.2332
39924W        W40788   3.851  14.815  15.597 -0.0178  0.1630 -0.3131
39925W        W40789   5.611  16.892  11.594 -0.0529  0.0854 -0.2166
39926W        W40790   6.042  17.032   9.586 -0.0349 -0.0641  0.1907
39927W        W40791   5.448  15.695  12.601 -0.0695  0.0293 -0.0072
39928W        W40792   4.565  15.731  15.689 -0.2283  0.0426  0.0148
39929W        W40793   6.063  16.753  15.473  0.4141 -0.1523  0.2418
39930W        W40794   7.248  14.708  13.686 -0.1206 -0.0544 -0.2381
39931W        W40795   6.097  17.746  11.435 -0.2690  0.1322 -0.2619
39932W        W40796   6.810  19.623  11.282 -0.1480  0.0849  0.0193
39933W        W40797   7.271  16.352  11.984  0.0560  0.1506 -0.0268
39934W        W40798   5.255  15.107  13.699 -0.1682 -0.2091  0.1216
39935W        W40799   4.070  15.752  11.447  0.1629 -0.1960  0.3490
39936W        W40800   5.407  19.078   9.792  0.4389 -0.1324  0.0568
39937W        W40801   4.666  18.881  13.999  0.0750  0.1424 -0.0527
39938W        W40802   4.828  15.335  11.836  0.1114  0.1051  0.2682
39939W        W40803   7.990  15.385  14.601 -0.1310  0.1469 -0.2518
39940W        W40804   7.135  19.195  11.179 -0.0394 -0.1044  0.1006
39941W        W40805   6.957  19.427  10.764  0.1464  0.0334 -0.5317
39942W        W40806   7.378  19.540  14.946 -0.1110  0.0899 -0.1686
39943W        W40807   7.795  16.778  15.448 -0.0526  0.4250 -0.2210
39944W        W40808   3.574  14.372  13.325  0.1447  0.0180 -0.2967
39945W        W40809   4.299  16.853  12.070 -0.1701  0.0675  0.0024
39946W        W40810   3.465  12.767  12.100 -0.0929 -0.1054  0.0527
39947W        W40811   3.583  14.195  13.815  0.0469 -0.1544  0.0104
39948W        W40812   5.703  12.035  16.046 -0.0596 -0.1098 -0.0906
39949W        W40813   5.813  15.307  10.733  0.0602 -0.3753 -0.0505
39950W        W40814   4.837  17.371  10.886  0.0507  0.0340 -0.0284
39951W        W40815   5.440  16.695  12.541  0.0698 -0.1651  0.2537
39952W        W40816   5.698  14.357  15.993 -0.1855  0.0653 -0.0162
39953W        W40817   7.380  13.751  12.800  0.0214  0.0410 -0.0821
39954W        W40818   5.615  15.844  14.809  0.0242  0.1324  0.0262
39955W        W40819   7.737  18.978  11.417  0.0308 -0.0789 -0.2102
39956W        W40820   7.672  17.693  14.041 -0.1552  0.0207  0.3251
39957W        W40821   7.189  13.254  15.776 -0.1609 -0.0160 -0.3512
39958W        W40822   6.780  15.607  10.946  0.4760 -0.0333  0.0875
39959W        W40823   5.856  15.698  11.397 -0.1921 -0.1153  0.2837
39960W        W40824   3.172  18.143  15.534  0.1726  0.0945 -0.0485
39961W        W40825   7.317  18.562  13.323 -0.2369 -0.0674 -0.3594
39962W        W40826   6.782  16.532  12.125  0.1246 -0.0339  0.0650
39963W        W40827   6.599  17.258  12.727 -0.3570 -0.1630 -0.1048
39964W        W40828   7.448  10.600  14.280  0.0232  0.2868  0.0076
39965W        W40829   4.274  15.513  13.288  0.0106 -0.2734  0.1150
39966W        W40830   6.741  17.222  12.217 -0.3746  0.0911  0.0452
39967W        W40831   7.106  15.747  13.785 -0.2836  0.0475 -0.0777
39968W        W40832  10.278  18.012  10.539  0.0209 -0.1660  0.1026
39969W        W40833   3.044  18.131  15.059  0.1322  0.2671 -0.2201
39970W        W40834   7.808  16.457  15.013  0.5425  0.0338  0.1096
39971W        W40835   4.819  14.243  12.978 -0.3277 -0.0404  0.2530
39972W        W40836   3.565  17.091  12.811  0.0568  0.1533 -0.1742
39973W        W40837   6.416  15.990   8.397  0.3356  0.0264 -0.0643
39974W        W40838   7.636  17.542  11.006  0.1044 -0.2240 -0.1082
39975W        W40839   6.440  16.146   8.997  0.1235 -0.1564  0.1399
39976W        W40840   5.970  13.699  12.561 -0.0780  0.2446  0.3563
39977W        W40841   7.067  15.268  10.786  0.1843  0.0434 -0.2825
39978W        W40842   8.291  17.622  15.512 -0.1540 -0.3723  0.2790
39979W        W40843  10.532  14.899  11.843 -0.2133  0.2838  0.2839
39980W        W40844   6.302  16.628  14.033  0.0442  0.1007 -0.1787
39981W        W40845   6.063  18.497  12.653 -0.4610 -0.0032 -0.4196
39982W        W40846   4.959  17.828  13.203  0.0636  0.0154  0.0385
39983W        W40847   2.914  17.895   9.957 -0.1375  0.1461 -0.0204
39984W        W40848   6.270  19.145   9.694  0.2019  0.0598  0.2822
39985W        W40849   4.726  17.239  15.644 -0.0851  0.0709 -0.0949
39986W        W40850   5.780  14.943  16.815 -0.0546 -0.3625 -0.4025
39987W        W40851   5.662  17.661  15.454 -0.0256 -0.2768  0.2858
39988W        W40852   5.422  12.948  10.311 -0.3276 -0.0047  0.1794
39989W        W40853   6.138  16.203  11.200 -0.5579 -0.2226  0.0398
39990W        W40854   5.768  13.002  13.889  0.3787  0.0944  0.0130
39991W        W40855   3.187  16.100  12.161  0.0949  0.4555  0.1748
39992W        W40856   5.342  13.207  14.123 -0.0392 -0.1811 -0.2894
39993W        W40857   0.841  15.253  12.747  0.0274  0.1586  0.0932
39994W        W40858   7.774  12.553  13.393  0.1483 -0.1215  0.0890
39995W        W40859   9.127  18.681  10.328  0.1096 -0.0816 -0.1974
39996W        W40860   3.240  13.236  12.288 -0.0064  0.2638 -0.0408
39997W        W40861   4.675  16.847  13.154 -0.0240  0.0220 -0.0048
39998W        W40862   3.997  14.317  14.669 -0.0683  0.0887  0.3221
39999W        W40863   4.533  16.567  14.754 -0.1569 -0.1113 -0.1236
40000W        W40864   5.248  17.367  14.358 -0.1290  0.1778  0.0126
40001W        W40865   5.892  19.118  12.040  0.1064 -0.1139  0.1274
40002W        W40866   4.219  14.822  12.682  0.1579  0.0896  0.0964
40003W        W40867   4.837  17.858  15.297  0.2130  0.0529  0.1520
40004W        W40868   3.614  16.754  13.230  0.0106  0.0034 -0.0642
40005W        W40869   6.999  17.291  13.099  0.1006 -0.1587 -0.0296
40006W        W40870   2.916  15.811  12.483 -0.0068  0.2529 -0.1423
40007W        W40871   7.922  17.660  15.118  0.0893  0.1055  0.3700
40008W        W40872  10.447  17.441  12.285 -0.0800  0.2633 -0.0416
40009W        W40873   5.503  15.029   9.760  0.0827 -0.0272 -0.1713
40010W        W40874   5.489  15.580  11.088 -0.0260  0.0408 -0.0320
40011W        W40875   5.471  17.327  14.932  0.3999 -0.0885 -0.0005
40012W        W40876   4.726  17.909  11.641  0.0905 -0.1891 -0.0491
40013W        W40877   7.921  15.331  14.081 -0.4538  0.1560  0.2058
40014W        W40878   6.270  16.275  12.133 -0.2060  0.1322  0.3902
40015W        W40879   4.430  18.104  16.045  0.1583 -0.0380 -0.0907
40016W        W40880   6.840  15.326   8.433  0.3618  0.0155 -0.1476
40017W        W40881   7.342  17.086   8.939  0.0650  0.1652 -0.2924
40018W        W40882   3.477  16.373  17.145 -0.0215 -0.0802 -0.2515
40019W        W40883   6.631  17.955  13.408 -0.0031  0.0377 -0.2018
40020W        W40884   7.929  13.373  13.354 -0.1808  0.2553 -0.2412
40021W        W40885   9.093  20.693  10.097  0.4139  0.0226 -0.0637
40022W        W40886   7.279  16.748  11.228 -0.1866  0.0106  0.3603
40023W        W40887   5.745  14.207  13.464 -0.3677 -0.1379 -0.1092
40024W        W40888   4.950  17.513  12.333  0.0602 -0.1333 -0.2644
40025W        W40889   5.598  16.133  11.135  0.0149 -0.1070 -0.4373
40026W        W40890   6.485  18.108  12.953  0.0202 -0.1186  0.3477
40027W        W40891   6.158  17.676  14.578  0.1902 -0.1341  0.0630
40028W        W40892   6.264  16.720  13.281 -0.0691 -0.0323  0.2696
40029W        W40893   7.843  16.223  12.510  0.2188  0.2060 -0.1772
40030W        W40894   5.792  15.574  14.419 -0.0839 -0.3392  0.1358
40031W        W40895   6.758  16.632  14.182 -0.1283  0.2323  0.1498
40032W        W40896   7.429  14.241  13.029 -0.1316 -0.3157  0.0833
40033W        W40897   7.389  17.549  10.465  0.1747  0.2272  0.1125
40034W        W40898   1.048  20.072  15.498  0.1048  0.0779  0.1620
40035W        W40899   5.961  14.865  13.997  0.0776 -0.0285 -0.0906
40036W        W40900   5.168  10.541  11.051  0.1666 -0.1148  0.0386
40037W        W40901   5.579  13.151  10.743 -0.0937  0.0405 -0.2105
40038W        W40902   3.516  16.194   9.916 -0.0694 -0.0151 -0.0460
40039W        W40903   3.470  14.188  14.342  0.1395 -0.1011 -0.0815
40040W        W40904   6.748  17.669  15.679 -0.2619  0.0390 -0.0166
40041W        W40905   3.983  17.105  11.438  0.0723 -0.1223 -0.3350
40042W        W40906   2.450  15.457  14.261  0.0592 -0.1265  0.2002
40043W        W40907   6.374  14.959  17.044 -0.0440 -0.1808  0.3468
40044W        W40908   4.342  18.434  13.739  0.2069 -0.0142 -0.0682
40045W        W40909   5.550  15.085  12.872 -0.2830  0.1844  0.1290
40046W        W40910   6.017  17.159  15.757 -0.0240  0.0509 -0.2461
40047W        W40911   5.636  15.385  11.765 -0.1310  0.1098  0.1597
40048W        W40912   4.144  16.687  13.229  0.5617  0.2568  0.0072
40049W        W40913   7.675  17.891  10.142 -0.0409  0.2748 -0.1139
40050W        W40914   5.513  14.612  13.262 -0.0504  0.0904 -0.2283
40051W        W40915   5.878  16.981  12.094 -0.0282 -0.3470  0.0916
40052W        W40916   7.315  15.029  11.977  0.0271 -0.3986 -0.0961
40053W        W40917   3.270  16.061  10.820  0.2782  0.0120  0.0990
40054W        W40918   4.666  13.724  14.949  0.1403 -0.2362  0.0457
40055W        W40919   5.332  17.186  12.510 -0.0480 -0.2124  0.0852
40056W        W40920   3.440  15.815  13.544 -0.1553  0.3623  0.0031
40057W        W40921   5.410  18.075  10.259 -0.0252 -0.0518  0.2059
40058W        W40922   1.854  18.236  11.365 -0.0315  0.1280 -0.1128
40059W        W40923   5.653  17.265  13.702 -0.0104 -0.0785 -0.1150
40060W        W40924   6.026  17.542  10.630  0.0812  0.0518 -0.0650
40061W        W40925   5.094  18.156  14.930  0.1433  0.0727 -0.0306
40062W        W40926   7.905  17.667  11.887  0.0010  0.1944  0.0852
40063W        W40927   6.206  16.769  10.600  0.1205 -0.1502 -0.2300
40064W        W40928   5.313  15.447  14.540  0.0761 -0.2291 -0.1235
40065W        W40929   3.193  13.579  13.088 -0.0075 -0.0200  0.0918
40066W        W40930   4.998  16.399  17.110  0.3592 -0.0346 -0.0678
40067W        W40931   6.402  17.517  15.128  0.1686  0.0981  0.1406
40068W        W40932   7.716  15.188  12.864 -0.0824  0.2753  0.0596
40069W        W40933   6.517  16.326  15.255  0.3942 -0.1199  0.0044
40070W        W40934   5.452  17.880  13.088 -0.0817  0.0943 -0.3291
40071W        W40935   3.433  16.657  10.815 -0.0450 -0.1833 -0.0024
40072W        W40936   3.721  18.165  14.349  0.2410 -0.1253 -0.0552
40073W        W40937   3.635  18.558  13.209 -0.0666 -0.2042 -0.0017
40074W        W40938   7.628  16.208  11.024  0.2794 -0.1372  0.0277
40075W        W40939   3.071  15.610  13.295 -0.2497  0.0826  0.4051
40076W        W40940   5.687  17.534  14.470 -0.0819 -0.1697 -0.0814
40077W        W40941   4.915  16.555  13.947 -0.0858  0.0638 -0.2054
40078W        W40942   5.987  14.359  13.029 -0.0304  0.0754 -0.1429
40079W        W40943   6.560  17.247  11.470 -0.0619 -0.1488 -0.0234
40080W        W40944   6.973  17.204  15.660  0.1361 -0.1182 -0.1646
40081W        W40945   8.854  14.315  11.315 -0.2420 -0.2330 -0.0144
40082W        W40946   7.320  17.852   9.805  0.0859  0.0603 -0.2371
40083W        W40947   5.953  13.393  10.510  0.0232 -0.0703 -0.0912
40084W        W40948   7.299  14.840  10.955  0.0643  0.0796  0.1898
40085W        W40949   4.634  15.109  13.498  0.0430 -0.0217  0.1962
40086W        W40950   2.368  16.733  13.361 -0.2078 -0.0045 -0.0389
40087W        W40951   2.240  16.037  11.754  0.0246  0.1382  0.2988
40088W        W40952   8.648  13.366  13.342  0.2894 -0.5369 -0.0287
40089W        W40953   4.902  16.167  13.003 -0.1310 -0.2609  0.3352
40090W        W40954   8.048  20.574  13.105  0.3218 -0.1946 -0.1434
40091W        W40955   6.880  15.064  13.371 -0.2583  0.3196  0.1339
40092W        W40956   4.210  16.106  11.085  0.1121 -0.2393  0.2420
40093W        W40957   4.097  16.334  12.161  0.4150 -0.0408 -0.1009
40094W        W40958   2.459  14.912  13.884  0.1649  0.0792  0.3068
40095W        W40959   4.333  18.617  15.983  0.2025  0.0655 -0.0974
40096W        W40960   6.524  18.178  11.879 -0.3346  0.0162 -0.0937
40097W        W40961   5.255  16.182  12.612 -0.0358  0.1621 -0.0317
40098W        W40962   4.743  16.988  13.741  0.4009  0.0706  0.3623
40099W        W40963   5.089  15.900  14.913  0.1756 -0.3105 -0.0169
40100W        W40964   7.876  15.756  10.884  0.2700 -0.0268  0.0968
40101W        W40965   4.202  14.192  15.768  0.1997 -0.1938  0.1941
40102W        W40966   2.999  17.176  14.483 -0.3174  0.0743  0.0790
40103W        W40967   6.095  17.789  11.917 -0.0288  0.1409 -0.0183
40104W        W40968   3.639  17.843  15.450 -0.1037 -0.1527 -0.0664
40105W        W40969   7.903  15.292  10.647 -0.1646 -0.3579 -0.4146
40106W        W40970   6.210  18.520  13.193  0.2387  0.0738  0.0699
40107W        W40971   5.484  17.329  13.117 -0.2843  0.3106  0.3169
40108W        W40972   5.963  21.151  14.772 -0.0213 -0.1329 -0.1179
40109W        W40973   5.315  18.462   9.915  0.1450 -0.3420  0.1674
40110W        W40974   9.947  16.530  10.755  0.0473  0.1060 -0.1454
40111W        W40975   7.727  17.569  12.977 -0.0142  0.3073  0.2524
40112W        W40976   6.758  16.741  13.130  0.0760  0.2980 -0.4665
40113W        W40977   5.231  18.768  13.323 -0.0067 -0.2099 -0.1499
40114W        W40978   4.715  15.361  13.074 -0.2377 -0.1360 -0.1050
40115W        W40979   5.198  19.178  15.748 -0.0341 -0.1276 -0.0977
40116W        W40980   5.013  16.927  10.783  0.0213 -0.1484  0.0090
40117W        W40981   5.811  17.614  12.795  0.0352  0.0706 -0.2572
40118W        W40982   5.740  16.592  14.106 -0.1570 -0.3110 -0.0889
40119W        W40983   4.368  14.363  12.683  0.0424  0.1138  0.0968
40120W        W40984   4.563  17.055  16.113 -0.0462 -0.0452  0.0931
40121W        W40985   6.661  15.448  11.554  0.0495 -0.0165 -0.1590
40122W        W40986   3.263  14.990  14.243  0.0173 -0.0812  0.2354
40123W        W40987   7.882  14.885  10.968 -0.0665 -0.2028 -0.1065
40124W        W40988  10.109  15.225  13.868 -0.2945 -0.1850  0.3388
40125W        W40989   8.193  18.266  12.798 -0.1223 -0.0635 -0.1233
40126W        W40990   6.426  20.643  14.055  0.0216 -0.2870  0.0276
40127W        W40991   9.759  19.305  12.475  0.2436  0.0694  0.0704
40128W        W40992   6.300  17.511  17.051 -0.3067  0.3605  0.0133
40129W        W40993   4.321  16.980  12.794  0.2403 -0.0184 -0.1009
40130W        W40994   6.721  17.549  13.741  0.0070  0.2153 -0.0909
40131W        W40995   4.133  16.150  12.618 -0.0574  0.0292  0.1705
40132W        W40996   4.459  15.837  12.908 -0.1713  0.1059  0.1529
40133W        W40997   6.545  19.237  11.595 -0.1141 -0.1582  0.2318
40134W        W40998   4.411  15.084  14.801  0.0112  0.2320  0.0981
40135W        W40999   3.408  15.322  14.633 -0.1602 -0.0481  0.2618
40136W        W41000   6.973  17.162  13.607  0.2335 -0.2215 -0.1279
40137W        W41001   6.532  16.899  14.549 -0.0415  0.0074 -0.0195
40138W        W41002   4.577  18.388  14.212  0.0829  0.2285 -0.0755
40139W        W41003   2.600  15.141  12.049  0.1261  0.2371 -0.0080
40140W        W41004   4.943  14.475  14.783 -0.1907 -0.0460 -0.0609
40141W        W41005   5.230  17.093  12.008 -0.2365 -0.0089 -0.0255
40142W        W41006   3.264  15.741  12.846 -0.1417 -0.1718  0.0158
40143W        W41007   5.444  13.958  13.824 -0.0766  0.1665 -0.0230
40144W        W41008   6.664  16.722  13.689  0.3289  0.3247 -0.1565
40145W        W41009   7.148  17.706  13.374  0.1086 -0.1534  0.1420
40146W        W41010   4.950  17.637  11.286 -0.1692 -0.0943 -0.2390
40147W        W41011   5.406  17.374  11.516  0.0634 -0.0439 -0.1147
40148W        W41012   9.198  14.747  12.899  0.0632 -0.0745 -0.4315
40149W        W41013   3.501  17.398  11.483  0.0002 -0.0597 -0.0514
40150W        W41014   6.929  18.120  15.875  0.0781 -0.0450 -0.4292
40151W        W41015   3.951  15.660  15.612 -0.0562  0.0860 -0.1345
40152W        W41016   3.085  14.521  13.184  0.0884  0.1790  0.2873
40153W        W41017   2.687  16.314  11.976  0.2653 -0.3812  0.0093
40154W        W41018   6.159  15.370  13.943 -0.0573 -0.6328  0.2221
40155W        W41019   3.697  15.690  12.652 -0.2189  0.3321  0.0177
40156W        W41020   6.355  15.045  13.510  0.1951  0.1880  0.0264
40157W        W41021   4.487  16.423  12.962 -0.0464 -0.1132  0.1594
40158W        W41022   6.967  18.234  13.617 -0.0401  0.1229 -0.1482
40159W        W41023   6.537  17.728  11.677  0.1729  0.0629  0.1301
40160W        W41024   4.701  15.058  12.665 -0.3895  0.0706  0.1490
40161W        W41025   6.465  15.937  10.802 -0.1404 -0.1803  0.3034
40162W        W41026   5.663  13.516  13.832 -0.1980  0.0390 -0.1068
40163W        W41027   4.544  14.273  13.903  0.1256  0.3799 -0.1259
40164W        W41028   6.893  13.849  14.146 -0.3089 -0.1292 -0.2187
40165W        W41029   5.000  17.261  10.409 -0.3116  0.1014  0.1593
40166W        W41030   5.211  14.142  14.275 -0.4535  0.1101 -0.0717
40167W        W41031   8.944  15.471  13.274 -0.1146 -0.1394  0.1930
40168W        W41032   5.884  15.460  15.373 -0.2682 -0.0945  0.1919
40169W        W41033   5.572  17.152  15.549  0.0713  0.0037 -0.1390
40170W        W41034   7.954  19.125  12.501 -0.0786 -0.3251  0.0998
40171W        W41035   5.267  15.013  14.854 -0.0857  0.2862  0.1240
40172W        W41036   4.021  13.360  13.714  0.1556  0.2065  0.4354
40173W        W41037   7.130  17.961  15.413 -0.1524  0.0842  0.1809
40174W        W41038   6.028  16.040  14.523 -0.0736 -0.1035  0.0569
40175W        W41039   5.799  16.639  16.449  0.1824 -0.0152  0.0359
40176W        W41040   8.734  15.915  15.689 -0.1549  0.1207 -0.0705
40177W        W41041   7.824  18.244  14.889 -0.3509 -0.2301 -0.0331
40178W        W41042   5.635  16.122  13.407 -0.2632 -0.1444 -0.1161
40179W        W41043   7.536  18.333  12.029  0.2217 -0.1657  0.1265
40180W        W41044   7.645  19.297  10.998  0.0695 -0.0232 -0.0940
40181W        W41045   3.932  17.490  13.695 -0.2379 -0.1694  0.0382
40182W        W41046   6.034  16.701  14.531  0.2705  0.0031 -0.2376
40183W        W41047   4.878  19.191  16.412 -0.0508 -0.0835  0.0921
40184W        W41048   5.188  16.944  13.027  0.0415 -0.1471 -0.2076
40185W        W41049   4.657  16.165  12.448  0.2060 -0.0945  0.0020
40186W        W41050   4.918  17.372  11.706 -0.3115 -0.1540  0.0663
40187W        W41051   4.693  18.378  15.729  0.2531 -0.1016  0.0996
40188W        W41052   6.798  15.652  14.729 -0.2671 -0.1719 -0.0824
40189W        W41053   5.076  17.505  12.864  0.4769 -0.0150 -0.2806
40190W        W41054   8.099  19.128  15.325  0.3417  0.3924  0.3701
40191W        W41055   7.456  17.315  13.330 -0.3290  0.1467  0.0835
40192W        W41056   3.742  16.481  11.290 -0.0941  0.0058  0.1680
40193W        W41057   5.191  17.965  16.542 -0.0705 -0.3989 -0.4336
40194W        W41058   4.835  15.203  17.178 -0.0887 -0.0995 -0.1507
40195W        W41059   4.112  15.163  13.854 -0.0358 -0.0420  0.1657
40196W        W41060   6.044  18.985  16.123  0.1872  0.1629  0.0091
40197W        W41061   2.525  20.312  14.091 -0.2652 -0.1558  0.0164
40198W        W41062   2.709  15.518  15.987 -0.1882 -0.0370  0.0930
40199W        W41063   4.020  15.988  17.954 -0.1513 -0.1020 -0.0896
40200W        W41064   7.840  15.615  15.990 -0.0828  0.2099  0.1350
40201W        W41065   7.115  21.085  20.455 -0.0067 -0.0945 -0.0714
40202W        W41066   1.753  16.571  18.272  0.1485  0.3406  0.0415
40203W        W41067   5.449  15.559  17.967  0.0803 -0.2026  0.0695
40204W        W41068   5.773  13.698  15.295  0.3176 -0.1893  0.0467
40205W        W41069   5.138  14.457  16.114  0.1372  0.0779 -0.0415
40206W        W41070   9.518  14.901  17.971  0.0151 -0.0583  0.1578
40207W        W41071   3.360  15.645  18.357  0.0792  0.0696  0.0080
40208W        W41072   3.729  20.755  15.989 -0.2054 -0.1527  0.2415
40209W        W41073   6.208  15.739  16.193  0.2214  0.0860 -0.0054
40210W        W41074   5.439  18.312  18.197 -0.3350 -0.0820  0.0229
40211W        W41075   6.021  17.173  17.619  0.1194  0.2058  0.1135
40212W        W41076   7.617  16.899  16.279 -0.4056  0.2619 -0.2968
40213W        W41077   6.612  17.063  17.538  0.1666  0.0337  0.0114
40214W        W41078   3.325  16.667  15.414 -0.0279 -0.0124  0.1041
40215W        W41079   5.355  18.843  15.340  0.2043  0.1900  0.0153
40216W        W41080   5.051  14.940  16.219 -0.4571 -0.3265 -0.1105
40217W        W41081   3.297  16.575  14.177 -0.2644 -0.0523  0.1265
40218W        W41082   3.702  16.643  18.601 -0.2808 -0.0243  0.2680
40219W        W41083   6.982  13.374  18.947  0.0858  0.0316 -0.0743
40220W        W41084   4.678  18.481  16.376 -0.3670 -0.0245  0.2844
40221W        W41085   5.725  21.218  16.201 -0.0184  0.0286 -0.1519
40222W        W41086   5.814  16.868  14.964  0.1546  0.0791 -0.1743
40223W        W41087   5.692  16.819  15.946  0.0827  0.3564  0.2623
40224W        W41088   3.347  17.684  19.098  0.0250 -0.1120 -0.0198
40225W        W41089   4.417  20.131  18.498 -0.0816 -0.1421  0.1035
40226W        W41090   5.755  18.529  15.452  0.2365 -0.0674 -0.0436
40227W        W41091   4.367  15.945  18.439  0.1724  0.0205  0.1728
40228W        W41092   4.007  16.291  18.695  0.1492 -0.0057  0.5055
40229W        W41093   3.456  16.554  16.295 -0.2731  0.2709 -0.1701
40230W        W41094   6.136  19.560  15.552 -0.1546  0.1417 -0.1885
40231W        W41095   5.887  16.151  17.636 -0.1301  0.1093  0.1659
40232W        W41096   4.497  14.998  16.154 -0.1703  0.2352  0.1152
40233W        W41097   7.046  17.350  16.826  0.0344  0.2487  0.1426
40234W        W41098   6.781  15.742  16.159 -0.1512  0.1039 -0.0226
40235W        W41099   6.482  17.988  17.086 -0.0471  0.1675  0.0706
40236W        W41100   6.337  16.371  16.224 -0.0490 -0.0345 -0.1649
40237W        W41101   3.670  16.425  15.119  0.2024  0.0780  0.0233
40238W        W41102   4.538  16.236  15.610  0.3140 -0.0694 -0.1675
40239W        W41103   1.783  15.290  15.627 -0.1279 -0.0270 -0.3132
40240W        W41104   9.280  16.764  18.501 -0.0122  0.0038 -0.1438
40241W        W41105   6.920  14.930  16.606  0.2107  0.0429  0.2915
40242W        W41106   5.564  15.384  13.294 -0.0244 -0.0743  0.1356
40243W        W41107   4.948  17.393  16.107 -0.1096  0.0063  0.1239
40244W        W41108   6.009  14.102  15.380 -0.3135  0.3269  0.4022
40245W        W41109   4.951  17.521  19.097 -0.0452  0.1584 -0.0150
40246W        W41110   8.407  17.052  14.683  0.1419  0.2227  0.1820
40247W        W41111   7.818  13.314  16.086  0.3191  0.3051 -0.1730
40248W        W41112   2.686  16.905  17.261  0.0959 -0.2223  0.1021
40249W        W41113   5.204  14.334  15.633 -0.0195  0.0144 -0.2721
40250W        W41114   5.250  15.485  17.130  0.1335  0.0399 -0.0613
40251W        W41115   4.079  17.414  18.326  0.1554  0.0829 -0.0226
40252W        W41116   4.271  19.961  17.533  0.1148  0.1986  0.1126
40253W        W41117   6.405  15.722  15.300 -0.2809 -0.1172 -0.1454
40254W        W41118   3.144  18.329  16.650  0.0925 -0.1253  0.1213
40255W        W41119   5.227  18.483  16.767  0.1102  0.1785 -0.0786
40256W        W41120   6.858  17.949  14.969 -0.0726 -0.2266 -0.0424
40257W        W41121   7.421  13.887  15.780 -0.2538 -0.1296 -0.0904
40258W        W41122   6.928  15.661  15.205 -0.1435  0.2883  0.0324
40259W        W41123   4.905  15.758  14.452 -0.0845 -0.1123 -0.0866
40260W        W41124   4.851  16.219  15.180  0.0184 -0.2868 -0.0348
40261W        W41125   5.133  17.468  16.560 -0.0960  0.0870 -0.1261
40262W        W41126   5.452  18.011  14.605  0.4758  0.1304 -0.0400
40263W        W41127   4.798  18.835  16.007  0.2113 -0.0290 -0.3414
40264W        W41128   7.221  16.567  16.347 -0.0146  0.0327  0.1846
40265W        W41129   8.213  17.710  16.296  0.1459  0.0884 -0.1152
40266W        W41130   6.762  16.667  17.906 -0.1775  0.1193 -0.1075
40267W        W41131   8.130  19.234  17.992 -0.0441 -0.0676 -0.0330
40268W        W41132   8.024  16.836  17.224  0.0855  0.2282 -0.0195
40269W        W41133   5.694  15.677  16.393  0.0492 -0.2145  0.2091
40270W        W41134   6.913  16.781  17.333  0.1616 -0.0796 -0.4011
40271W        W41135   8.643  17.693  16.004  0.3454  0.4329 -0.0940
40272W        W41136   7.401  15.881  15.180  0.0936 -0.0535  0.4729
40273W        W41137   4.931  17.793  20.491 -0.3983  0.0601  0.3213
40274W        W41138   2.784  14.604  20.669  0.1663 -0.0689 -0.3154
40275W        W41139   2.015  14.972  17.861  0.2740 -0.0605  0.1133
40276W        W41140   4.316  15.576  14.757 -0.1210 -0.0511  0.0230
40277W        W41141   4.645  16.191  18.129 -0.1374 -0.0342 -0.1464
40278W        W41142   4.936  14.596  16.576 -0.1580 -0.0975 -0.0416
40279W        W41143   8.320  18.165  16.542 -0.0963 -0.0280 -0.1934
40280W        W41144   5.604  14.069  18.720 -0.0587 -0.0680  0.1024
40281W        W41145   3.797  17.257  17.642  0.0824  0.0727 -0.0169
40282W        W41146   7.555  17.347  18.297  0.4005  0.0372  0.0316
40283W        W41147   5.885  15.825  12.840  0.0074  0.2109 -0.2352
40284W        W41148   6.864  14.971  18.155  0.0728  0.0500  0.4434
40285W        W41149   5.002  16.475  16.065 -0.0027  0.2028  0.0605
40286W        W41150   4.864  15.388  14.779  0.2682  0.0598  0.1204
40287W        W41151   4.367  15.988  19.086 -0.4540  0.0046 -0.0148
40288W        W41152   6.229  16.960  17.201 -0.1904  0.0441 -0.2878
40289W        W41153   7.017  15.005  15.643 -0.0741  0.1838 -0.0630
40290W        W41154   5.204  17.195  18.837 -0.1383 -0.0326 -0.0324
40291W        W41155   4.536  12.006  15.041 -0.2033 -0.3423  0.1936
40292W        W41156   9.012  17.714  15.529  0.1018 -0.0819 -0.1201
40293W        W41157   7.345  16.041  14.081 -0.1114  0.1057 -0.0418
40294W        W41158   2.204  17.696  15.619  0.2350  0.0206 -0.3148
40295W        W41159   4.032  14.250  13.526 -0.1160  0.0603 -0.0351
40296W        W41160   7.244  18.527  16.670  0.2359  0.2105  0.4046
40297W        W41161   6.175  13.374  14.028  0.1997  0.1790  0.0231
40298W        W41162   4.298  17.875  19.091  0.2514  0.1175 -0.0724
40299W        W41163   4.839  16.972  17.869  0.0259  0.0938  0.3117
40300W        W41164   7.483  17.863  18.229 -0.1625  0.3849 -0.0504
40301W        W41165   6.499  17.825  18.012 -0.0950 -0.1657 -0.1492
40302W        W41166   3.181  16.006  17.101 -0.1423  0.1860 -0.1373
40303W        W41167   3.785  19.788  17.777 -0.0862 -0.1302 -0.0469
40304W        W41168   5.849  20.454  16.691  0.1403 -0.1142  0.3920
40305W        W41169   6.664  15.182  18.625  0.1153  0.0374 -0.0794
40306W        W41170   8.406  19.253  19.106  0.1296  0.0707  0.0912
40307W        W41171   3.391  16.107  15.500 -0.0077 -0.1187  0.0577
40308W        W41172   6.921  11.063  16.795  0.0984 -0.2033  0.0833
40309W        W41173   6.860  19.145  14.912 -0.3314  0.0693 -0.2195
40310W        W41174   8.324  18.481  14.895 -0.1281  0.1736  0.1147
40311W        W41175   6.829  14.143  13.622 -0.4177 -0.1059 -0.1191
40312W        W41176   6.556  15.482  13.362 -0.0170  0.1938 -0.0015
40313W        W41177   6.393  15.809  18.151 -0.2101  0.0753 -0.5179
40314W        W41178   6.104  15.382  17.159  0.0340  0.3671 -0.0082
40315W        W41179   7.032  18.905  15.429 -0.1327  0.0819 -0.3096
40316W        W41180   5.846  14.242  19.119 -0.2798  0.1747 -0.0066
40317W        W41181   5.474  16.493  17.392  0.2984  0.2938 -0.3174
40318W        W41182   2.538  14.482  15.769 -0.0971 -0.1868 -0.1005
40319W        W41183   7.344  16.907  17.044 -0.1545 -0.1589 -0.0165
40320W        W41184   5.147  19.090  17.524  0.1472 -0.0125 -0.1757
40321W        W41185   3.945  20.208  14.537  0.0985  0.2561 -0.2257
40322W        W41186   4.263  19.414  15.262  0.2511  0.0592 -0.2667
40323W        W41187   5.697  15.037  15.374 -0.0495  0.0485  0.0301
40324W        W41188   6.199  18.450  14.644  0.3290 -0.2146 -0.3770
40325W        W41189   6.655  14.998  17.446 -0.1765  0.1503 -0.0728
40326W        W41190   8.655  18.827  17.299  0.0154 -0.1116 -0.3161
40327W        W41191   4.755  16.204  16.604  0.1387 -0.0153 -0.1168
40328W        W41192   7.802  16.824  16.737  0.0415 -0.1865 -0.0136
40329W        W41193   6.658  15.364  17.832  0.1527 -0.1039 -0.0356
40330W        W41194   7.299  17.522  15.955  0.0472  0.1827  0.1776
40331W        W41195   4.675  18.102  13.511 -0.0859  0.1886 -0.2267
40332W        W41196   1.778  18.641  17.250  0.0792 -0.4868 -0.2189
40333W        W41197   4.299  16.779  16.402 -0.1422  0.0264  0.0132
40334W        W41198   3.172  18.308  12.932  0.1409  0.0948  0.0618
40335W        W41199   7.484  16.645  17.988  0.0080 -0.1108 -0.3406
40336W        W41200   5.639  15.040  17.820  0.0596 -0.2901 -0.2764
40337W        W41201   4.215  16.370  15.091 -0.0992 -0.0056  0.0994
40338W        W41202   6.868  15.953  11.790  0.0455  0.0769  0.0525
40339W        W41203   5.765  19.780  15.272 -0.2956 -0.4622 -0.3147
40340W        W41204   6.552  18.698  19.310 -0.3065 -0.0653 -0.0884
40341W        W41205   4.130  16.443  18.259  0.2535 -0.0981  0.3102
40342W        W41206   6.829  18.797  17.010  0.1341 -0.2782 -0.3298
40343W        W41207   4.814  16.743  17.446  0.3688  0.0867 -0.0418
40344W        W41208   6.373  18.556  16.127 -0.0881 -0.0219  0.1270
40345W        W41209   6.340  13.642  16.216  0.0412 -0.2443 -0.1849
40346W        W41210   6.505  17.265  16.002 -0.1095  0.2679  0.2480
40347W        W41211   4.496  16.317  17.632 -0.3124 -0.0778  0.0219
40348W        W41212   4.517  16.221  17.083  0.1975 -0.3014 -0.1927
40349W        W41213   8.415  17.869  14.149 -0.1774 -0.2230  0.0526
40350W        W41214   1.900  15.489  14.087  0.1057 -0.0305 -0.3721
40351W        W41215   3.913  14.953  16.766 -0.3880 -0.1403 -0.4549
40352W        W41216   8.348  15.387  16.893 -0.1557  0.1697  0.0781
40353W        W41217   5.401  20.156  16.575  0.1626  0.0120  0.0754
40354W        W41218   5.984  16.785  16.861  0.0462  0.0060 -0.0231
40355W        W41219   5.021  19.526  17.343  0.3432 -0.3337 -0.0241
40356W        W41220   5.516  14.876  18.351  0.0941 -0.8518 -0.0618
40357W        W41221   4.414  17.586  17.133  0.0870  0.0933  0.1294
40358W        W41222   5.311  16.818  15.090 -0.1684 -0.1118 -0.2163
40359W        W41223   4.357  18.139  17.127 -0.1694  0.1265  0.1166
40360W        W41224   6.806  18.776  17.848  0.1967  0.5334 -0.2103
40361W        W41225   4.453  17.043  14.496  0.3899  0.0008 -0.0881
40362W        W41226   8.792  15.223  16.771  0.0431 -0.0428  0.1026
40363W        W41227   5.887  15.866  15.812  0.2407  0.2751 -0.1433
40364W        W41228   4.983  16.125  17.590 -0.0555  0.0163 -0.3268
40365W        W41229   4.569  19.326  13.913 -0.2426  0.0887 -0.3771
40366W        W41230   5.430  14.577  16.782  0.2085 -0.0500  0.1799
40367W        W41231   7.365  15.674  16.187 -0.1335  0.0821  0.1457
40368W        W41232   4.224  19.302  18.520 -0.3399  0.0257  0.0793
40369W        W41233   5.223  16.021  16.688  0.1185  0.0655 -0.0898
40370W        W41234   4.881  15.851  17.101  0.2441  0.0266  0.2045
40371W        W41235   3.214  14.306  16.575  0.1929 -0.0633  0.1612
40372W        W41236   4.301  18.553  15.385 -0.1298 -0.2771 -0.0973
40373W        W41237   4.823  18.590  14.733  0.0682 -0.2472 -0.1307
40374W        W41238   4.332  17.425  15.408  0.0017 -0.0169  0.4349
40375W        W41239   8.160  16.429  15.550  0.4565 -0.1847  0.4213
40376W        W41240   5.657  16.258  12.905  0.1196  0.1811  0.0116
40377W        W41241   7.195  19.488  18.262  0.2567 -0.0472  0.3985
40378W        W41242   5.687  13.669  14.819  0.4299 -0.5045  0.1527
40379W        W41243   2.658  14.518  14.979  0.0682 -0.1589  0.1988
40380W        W41244   6.997  18.207  16.405  0.1774  0.2951 -0.0136
40381W        W41245   7.625  15.680  16.618  0.0087 -0.2307  0.1312
40382W        W41246   2.840  16.326  13.936  0.2115 -0.1866  0.2795
40383W        W41247   2.059  17.849  15.169  0.1873  0.1865  0.0974
40384W        W41248   5.595  16.855  19.128 -0.1685  0.0079 -0.1133
40385W        W41249   5.637  15.165  17.247  0.0411 -0.0052 -0.1261
40386W        W41250   5.156  16.938  19.339  0.0216 -0.1436  0.1095
40387W        W41251   6.449  13.456  14.841 -0.0300 -0.0808 -0.1969
40388W        W41252   4.889  15.718  15.304 -0.0536  0.1488 -0.2075
40389W        W41253   3.159  18.140  17.155 -0.2480  0.1675  0.0563
40390W        W41254   5.730  15.468  16.825 -0.0211 -0.0516  0.2284
40391W        W41255   6.414  14.653  14.492 -0.1539  0.0487 -0.0125
40392W        W41256   6.667  13.872  14.610  0.4047 -0.0423  0.0494
40393W        W41257   6.784  13.330  16.197 -0.0768 -0.0107 -0.0590
40394W        W41258   6.118  15.486  14.800  0.1405  0.0121  0.1627
40395W        W41259   0.626  15.464  18.239  0.1224 -0.1902 -0.0885
40396W        W41260   5.399  14.836  15.883  0.0441 -0.0078 -0.3079
40397W        W41261   6.365  14.989  15.621 -0.0689  0.1207  0.0828
40398W        W41262   5.403  15.818  18.458 -0.2117  0.0738 -0.3421
40399W        W41263   5.509  16.554  16.858  0.1640  0.0024 -0.1547
40400W        W41264   7.999  18.865  15.803 -0.3586  0.0233 -0.0801
40401W        W41265   4.903  17.018  14.266  0.1521 -0.0271  0.0728
40402W        W41266   4.996  19.456  16.831 -0.1763  0.0364  0.0129
40403W        W41267   2.510  18.581  17.676 -0.2936 -0.2033 -0.0929
40404W        W41268   3.778  19.501  14.633 -0.1437 -0.0945 -0.1067
40405W        W41269   7.708  12.126  17.986  0.0568 -0.2310  0.1942
40406W        W41270   6.564  15.807  16.566  0.0284  0.1001  0.2105
40407W        W41271   6.366  16.824  15.035 -0.3595 -0.1366 -0.0552
40408W        W41272   5.975  17.260  16.768 -0.0735 -0.0424  0.0482
40409W        W41273   4.046  16.815  15.143  0.1799 -0.2859  0.1264
40410W        W41274   4.694  20.018  18.908  0.4636  0.2019  0.1899
40411W        W41275   3.093  19.781  17.897 -0.1938  0.1542  0.1914
40412W        W41276  10.143  14.992  16.895  0.0870  0.2209 -0.0964
40413W        W41277   5.702  15.303  15.796  0.2947 -0.0468  0.1553
40414W        W41278   8.037  17.377  19.001  0.3486 -0.0836 -0.1088
40415W        W41279   7.207  14.329  15.992  0.2430 -0.1773 -0.4978
40416W        W41280   7.543  16.925  14.150  0.0652  0.1272  0.1129
40417W        W41281   7.093  15.908  16.542 -0.0891 -0.0024  0.0110
40418W        W41282   5.366  16.270  18.877  0.2009 -0.2016  0.1016
40419W        W41283   4.407  14.766  16.579  0.2397  0.0930  0.1321
40420W        W41284   7.796  17.788  14.612 -0.2821  0.0011 -0.2245
40421W        W41285   6.077  18.791  19.265  0.2281 -0.0455  0.0529
40422W        W41286   4.935  13.859  16.914  0.1456 -0.1901  0.1661
40423W        W41287   3.451  17.442  15.856 -0.2437 -0.1396 -0.1701
40424W        W41288   4.388  17.920  15.604 -0.0278  0.2056 -0.0116
40425W        W41289   6.877  16.580  14.816  0.1503  0.0135 -0.0703
40426W        W41290   7.328  14.729  18.132  0.1803 -0.1157 -0.1268
40427W        W41291   8.605  17.454  18.449 -0.0834  0.0148  0.2760
40428W        W41292   8.568  15.625  12.923 -0.0220  0.3634  0.1739
40429W        W41293   6.667  15.753  18.611  0.3227 -0.0718 -0.1877
40430W        W41294   4.845  17.814  15.836  0.5720 -0.0012 -0.0232
40431W        W41295   7.581  19.806  16.463 -0.0204  0.0256 -0.1158
40432W        W41296   6.100  17.908  16.769  0.0756 -0.1705 -0.3678
40433W        W41297   4.768  18.791  18.416  0.2910  0.0143  0.1412
40434W        W41298   3.586  15.231  17.609  0.0012 -0.0677  0.0224
40435W        W41299   4.349  17.600  17.712  0.2572  0.3090 -0.0391
40436W        W41300   5.693  16.111  16.755 -0.0693 -0.0011  0.2068
40437W        W41301   5.033  18.229  16.076  0.0254 -0.0081  0.1553
40438W        W41302   7.394  20.050  16.031  0.0799 -0.1317 -0.0458
40439W        W41303   2.720  18.123  16.322  0.2334  0.4371  0.1439
40440W        W41304   8.358  19.565  16.100 -0.0851 -0.3115  0.0454
40441W        W41305   5.954  15.973  15.286 -0.0843  0.0244  0.2679
40442W        W41306   6.032  14.445  16.768  0.0220 -0.0519  0.1725
40443W        W41307   4.742  16.350  14.362  0.1604 -0.1508  0.0445
40444W        W41308   8.066  20.029  19.572 -0.1043  0.1411 -0.0998
40445W        W41309   7.336  16.015  17.016  0.1152  0.3730  0.0278
40446W        W41310   3.255  16.288  13.723 -0.1566  0.2747 -0.1217
40447W        W41311   7.358  19.023  15.070 -0.0877 -0.1530 -0.2877
40448W        W41312   7.018  13.606  15.442  0.0973  0.1842  0.1505
40449W        W41313   5.042  14.349  17.003 -0.0136  0.0289  0.1379
40450W        W41314   4.245  17.865  19.605 -0.1505 -0.0895 -0.0389
40451W        W41315   5.310  16.918  17.506  0.0404  0.1289  0.0447
40452W        W41316   5.463  18.814  14.162  0.2296  0.3570  0.0005
40453W        W41317   2.208  17.145  17.128 -0.3440 -0.2372 -0.2998
40454W        W41318   5.340  17.766  17.294  0.2961 -0.1625 -0.0133
40455W        W41319   2.310  15.927  17.782 -0.1886  0.1470 -0.1453
40456W        W41320   3.620  16.938  14.946  0.0883  0.2498 -0.1041
40457W        W41321   2.471  21.512  17.415  0.1106  0.1271  0.2594
40458W        W41322   5.813  19.325  13.157 -0.0982 -0.1551  0.0013
40459W        W41323   6.321  16.774  16.487 -0.1737 -0.0740 -0.0613
40460W        W41324   3.842  15.765  18.447  0.0271  0.0824 -0.2456
40461W        W41325   9.053  18.126  15.823 -0.2512  0.1425 -0.0578
40462W        W41326   7.247  15.302  15.338  0.4859  0.2818 -0.0137
40463W        W41327   5.238  15.443  15.668 -0.0539  0.0139 -0.2001
40464W        W41328   6.488  17.259  16.552 -0.1947 -0.0912 -0.3159
40465W        W41329   7.889  17.667  18.055  0.0032  0.2559 -0.0835
40466W        W41330   8.455  20.843  19.640 -0.2525 -0.1087 -0.0735
40467W        W41331   6.776  17.167  18.015  0.0386  0.0256  0.1779
40468W        W41332   1.232  15.457  17.463 -0.2757 -0.0208 -0.1476
40469W        W41333   3.654  16.236  16.695 -0.0926  0.0788  0.2198
40470W        W41334   5.263  13.443  16.856 -0.1100 -0.1490 -0.2351
40471W        W41335   2.175  19.751  18.203  0.1238  0.0375  0.2018
40472W        W41336   7.701  15.292  16.296  0.0444  0.1430 -0.0306
40473W        W41337   5.352  17.605  13.548  0.0686 -0.2033  0.0137
40474W        W41338   3.602  18.145  16.557  0.1448 -0.1518  0.0889
40475W        W41339   4.742  17.854  19.496 -0.0200  0.2142 -0.0542
40476W        W41340   7.711  17.675  17.598 -0.0763  0.2707 -0.1918
40477W        W41341   8.207  15.388  16.402  0.1847 -0.2240  0.1451
40478W        W41342   6.811  18.773  13.694  0.0386  0.0158  0.0055
40479W        W41343   1.680  18.193  17.584  0.0997  0.0868 -0.2202
40480W        W41344   9.022  14.569  16.188  0.2101  0.0141 -0.4847
40481W        W41345   5.464  17.258  16.214 -0.3379  0.2458 -0.0877
40482W        W41346   5.048  16.460  14.766  0.4636 -0.0796 -0.2678
40483W        W41347   6.717  14.631  13.730 -0.1675  0.3026  0.0426
40484W        W41348   3.264  16.876  16.601  0.0971 -0.1591  0.0066
40485W        W41349   3.696  17.048  15.586  0.1004  0.0268  0.0554
40486W        W41350   1.993  19.084  15.449 -0.0296 -0.1671  0.0477
40487W        W41351   8.849  14.286  18.017  0.2257 -0.1088 -0.0546
40488W        W41352   8.123  17.936  17.547 -0.3295 -0.1082 -0.2595
40489W        W41353   8.257  13.554  17.013  0.0891 -0.0676 -0.1782
40490W        W41354   7.668  17.717  15.684  0.0731 -0.1087  0.0799
40491W        W41355   1.931  17.550  17.233  0.4155 -0.1591  0.0301
40492W        W41356   3.865  17.559  16.690 -0.0799 -0.2335  0.1349
40493W        W41357   3.026  14.401  19.183  0.0633  0.0206  0.1510
40494W        W41358   4.367  20.176  17.968  0.2536  0.3884 -0.2649
40495W        W41359   5.917  16.668  17.571  0.1009  0.1043  0.1037
40496W        W41360   8.534  16.215  13.401 -0.0550 -0.1352 -0.0338
40497W        W41361   6.428  17.546  17.518  0.0200 -0.2065 -0.3633
40498W        W41362   8.725  17.057  20.515 -0.0369 -0.0570  0.3011
40499W        W41363   7.081  15.741  15.763 -0.0229  0.0761 -0.2508
40500W        W41364   7.440  15.225  13.947  0.1962 -0.1091  0.0374
40501W        W41365   3.486  15.787  16.611  0.0921  0.0215 -0.1675
40502W        W41366   4.727  13.510  18.553 -0.3364  0.2807  0.2060
40503W        W41367   5.964  18.103  15.594  0.0035  0.3067  0.1091
40504W        W41368   5.912  14.856  15.890  0.1670  0.0734  0.0541
40505W        W41369   8.754  16.466  18.453  0.2261 -0.1704  0.0551
40506W        W41370   5.045  21.766  17.257  0.0549 -0.0331 -0.0916
40507W        W41371   2.215  17.992  16.714  0.1962  0.0791  0.1512
40508W        W41372   6.084  13.588  13.581  0.3477  0.0731  0.2579
40509W        W41373   9.139  17.374  12.920 -0.0211  0.1892 -0.0083
40510W        W41374   7.340  18.902  18.094  0.2793  0.2245  0.0626
40511W        W41375   5.891  18.297  16.634 -0.2806 -0.2695  0.0113
40512W        W41376   7.617  18.879  20.109  0.4007 -0.0319  0.1078
40513W        W41377   6.857  19.172  14.080 -0.0110 -0.0982 -0.2257
40514W        W41378   5.337  19.320  19.210 -0.1430  0.1758 -0.0434
40515W        W41379   5.203  15.131  18.074  0.1469  0.1844  0.0486
40516W        W41380   2.687  17.395  11.696 -0.0039  0.2499  0.0535
40517W        W41381   4.860  19.855  15.283 -0.0673 -0.2489 -0.3520
40518W        W41382   3.488  14.705  14.687 -0.2297  0.2418  0.2981
40519W        W41383   2.620  17.330  12.724 -0.1090 -0.1869 -0.1149
40520W        W41384   6.677  15.439  15.603  0.3262  0.2406 -0.2731
40521W        W41385   5.600  18.141  15.140  0.2100  0.1706 -0.0008
40522W        W41386   2.893  17.142  17.970 -0.1266  0.0329  0.0248
40523W        W41387   7.507  15.211  13.381 -0.1911  0.0349  0.0151
40524W        W41388   5.414  17.351  19.250  0.0636  0.0273 -0.0519
40525W        W41389   7.239  17.196  18.657 -0.0749  0.2562 -0.0682
40526W        W41390   4.495  16.709  18.076 -0.1990 -0.1875 -0.3969
40527W        W41391   4.812  19.941  18.162  0.1641 -0.1350 -0.0066
40528W        W41392   5.384  20.522  14.237  0.0334  0.1109 -0.2636
40529W        W41393   8.225  15.834  15.565 -0.0500 -0.3886 -0.0133
40530W        W41394   4.594  20.903  14.151 -0.0685 -0.0716 -0.0131
40531W        W41395   6.409  12.524  15.291 -0.0940  0.2000 -0.1505
40532W        W41396   5.691  18.755  16.861 -0.0932 -0.1367  0.0533
40533W        W41397   6.191  16.809  16.041 -0.0315  0.1633  0.1446
40534W        W41398   3.160  16.111  16.346  0.1422  0.0769 -0.2914
40535W        W41399   3.794  15.644  14.550 -0.0912  0.1644 -0.1338
40536W        W41400   8.008  16.115  15.947  0.3152  0.1481 -0.0490
40537W        W41401   5.972  18.137  17.196  0.1239 -0.0727  0.1361
40538W        W41402   5.289  16.438  13.221  0.1850 -0.0194 -0.1049
40539W        W41403   3.732  15.909  17.078 -0.1125 -0.0870 -0.1320
40540W        W41404   6.617  19.625  17.583 -0.3467  0.1520 -0.2353
40541W        W41405   3.865  15.666  13.982 -0.1604  0.2312 -0.1440
40542W        W41406   8.876  18.572  19.072 -0.0856  0.0446  0.2654
40543W        W41407   3.680  14.858  12.970  0.2844 -0.0704  0.2477
40544W        W41408   6.236  19.482  16.563 -0.2827 -0.2005 -0.0432
40545W        W41409   5.979  19.080  17.863 -0.3133  0.4116  0.1134
40546W        W41410   5.859  17.676  15.017  0.0454  0.2757  0.0558
40547W        W41411   4.146  14.410  13.101 -0.5636 -0.1840  0.1219
40548W        W41412   4.691  16.735  16.907  0.0022 -0.0474  0.0660
40549W        W41413   5.259  15.225  17.578 -0.1093 -0.0820  0.0801
40550W        W41414   5.799  15.961  18.817 -0.2296  0.1786  0.1361
40551W        W41415   2.365  16.579  17.044 -0.1989  0.2861  0.3733
40552W        W41416   3.238  14.561  13.967 -0.0680 -0.1468  0.0952
40553W        W41417   5.780  16.741  20.594 -0.3368  0.2508 -0.2647
40554W        W41418   4.754  19.076  17.160 -0.0167  0.0107 -0.1674
40555W        W41419   5.760  17.680  16.445 -0.0608 -0.0061  0.1012
40556W        W41420   4.712  18.367  15.196  0.0260  0.5527 -0.0994
40557W        W41421   7.429  19.325  16.625 -0.1154 -0.3507 -0.0783
40558W        W41422   6.787  18.314  14.593 -0.2455  0.1408 -0.1496
40559W        W41423   6.790  17.622  17.194 -0.0649 -0.1637 -0.1374
40560W        W41424   5.958  13.339  16.181  0.3235  0.0379 -0.0750
40561W        W41425   3.677  14.618  14.218 -0.3164  0.0320 -0.1257
40562W        W41426   5.856  16.158  16.225  0.0999  0.1612 -0.0818
40563W        W41427   6.217  17.641  16.240 -0.0490 -0.0402 -0.2244
40564W        W41428   7.301  19.313  15.675  0.1001 -0.0026  0.3487
40565W        W41429   8.077  19.984  17.440  0.2857  0.0175  0.2513
40566W        W41430   7.264  20.082  13.800  0.1534  0.1857 -0.0281
40567W        W41431   4.018  15.567  16.775 -0.1117  0.3693 -0.0296
40568W        W41432   4.215  16.513  16.792 -0.0315 -0.0953  0.0389
40569W        W41433   5.932  19.576  20.280  0.0138  0.1342  0.1296
40570W        W41434   6.368  20.351  16.091  0.0342 -0.1926 -0.0089
40571W        W41435   2.084  15.158  14.793 -0.1302 -0.0680 -0.0478
40572W        W41436   5.128  18.742  19.812  0.0114 -0.0869 -0.3383
40573W        W41437   5.939  18.473  13.626 -0.1396  0.2366 -0.1492
40574W        W41438   4.336  15.829  15.256 -0.0024  0.0348  0.1604
40575W        W41439   7.928  19.227  16.669  0.1848 -0.0754  0.0385
40576W        W41440   4.090  18.346  18.422  0.0945  0.2536 -0.2071
40577W        W41441   7.691  11.454  18.552  0.1422 -0.1464 -0.2612
40578W        W41442   9.063  15.370  14.961  0.1278  0.0516 -0.2562
40579W        W41443   5.980  21.457  19.002 -0.1112  0.0403  0.0387
40580W        W41444   3.171  18.281  16.139  0.1035 -0.0337  0.1136
40581W        W41445   5.975  17.257  15.260  0.1060  0.2302  0.0276
40582W        W41446   6.116  20.025  18.800 -0.0958  0.0019 -0.0506
40583W        W41447   5.528  14.753  16.363 -0.1308 -0.2453 -0.0217
40584W        W41448   8.641  15.631  16.488 -0.0809  0.1788  0.0577
40585W        W41449   5.620  18.438  14.508 -0.2510 -0.1681  0.1417
40586W        W41450   1.479  17.494  18.863  0.1897 -0.1213  0.0547
40587W        W41451   3.791  18.576  18.853  0.0855 -0.1633  0.0777
40588W        W41452   5.214  19.197  13.070  0.0230  0.0767 -0.2254
40589W        W41453   7.242  17.713  18.665 -0.0348  0.0064 -0.0670
40590W        W41454   3.564  19.280  16.507 -0.4058  0.1318 -0.0671
40591W        W41455   4.812  16.791  15.179 -0.1064 -0.0944  0.1652
40592W        W41456   4.858  21.545  18.721  0.0553 -0.0306  0.4343
40593W        W41457   6.510  18.106  20.105  0.0233 -0.0753 -0.2265
40594W        W41458   7.728  17.661  18.690 -0.1817 -0.1870 -0.0975
40595W        W41459   6.732  16.118  23.563  0.1553 -0.0510 -0.2309
40596W        W41460   7.710  19.414  18.302  0.0241 -0.2906 -0.0085
40597W        W41461   6.640  16.227  18.695 -0.1009 -0.1517  0.1776
40598W        W41462   3.922  16.194  20.625  0.1170  0.0114 -0.0469
40599W        W41463   5.973  15.413  21.048 -0.0570 -0.0533  0.0161
40600W        W41464   4.010  19.028  20.808 -0.0903 -0.2801 -0.1965
40601W        W41465   5.733  15.393  19.903 -0.0848  0.1705 -0.2209
40602W        W41466   4.289  14.612  18.520  0.0586  0.0363 -0.1042
40603W        W41467   6.098  15.788  16.734  0.1627 -0.0738  0.1440
40604W        W41468   9.837  17.733  19.672  0.0785  0.0372 -0.0403
40605W        W41469   7.005  16.889  19.947 -0.0190 -0.1463 -0.1611
40606W        W41470   4.967  16.398  20.076 -0.0007  0.4229 -0.0237
40607W        W41471   3.557  17.221  21.370 -0.0842  0.1170 -0.1618
40608W        W41472   6.843  18.092  18.404  0.2168  0.0208  0.0367
40609W        W41473   5.079  16.417  20.565 -0.1988  0.0552  0.0688
40610W        W41474   4.710  19.341  21.943 -0.3727  0.1442  0.2234
40611W        W41475   9.586  14.135  17.300 -0.0702 -0.1239  0.3412
40612W        W41476   8.828  15.581  22.286 -0.0196  0.2663  0.2277
40613W        W41477   4.924  16.943  19.817  0.3348  0.1942  0.3724
40614W        W41478   8.177  16.550  20.355 -0.1210 -0.2593  0.1862
40615W        W41479   3.660  14.373  20.133 -0.0491  0.1167 -0.1513
40616W        W41480   6.808  14.937  21.143  0.0734 -0.0182  0.2604
40617W        W41481   0.953  18.016  22.416 -0.0239  0.0339  0.0812
40618W        W41482   9.841  15.287  21.537 -0.1781  0.0874  0.1778
40619W        W41483   5.046  20.223  19.201  0.1248 -0.4252 -0.0256
40620W        W41484   6.202  16.117  19.016 -0.1373 -0.0594 -0.3725
40621W        W41485   5.017  15.532  20.316  0.2327 -0.0042  0.1463
40622W        W41486   3.961  17.778  20.550  0.0128  0.1864 -0.2014
40623W        W41487   4.855  20.640  23.951  0.1426 -0.0209  0.1201
40624W        W41488   5.952  16.215  21.109 -0.0434  0.1186  0.1049
40625W        W41489   4.155  17.172  22.860 -0.2877 -0.2260 -0.1158
40626W        W41490   4.067  14.626  20.314  0.2440 -0.2413 -0.0446
40627W        W41491   3.347  19.010  21.439  0.2076  0.1081 -0.1471
40628W        W41492   3.181  13.608  17.538  0.0612  0.0196 -0.0140
40629W        W41493   4.207  16.908  21.440 -0.1762 -0.0349 -0.0445
40630W        W41494   6.425  18.245  19.558  0.0772  0.3914 -0.1288
40631W        W41495   5.849  15.836  20.348 -0.1688  0.2759  0.1671
40632W        W41496   8.723  19.116  18.721 -0.1467 -0.0936 -0.1900
40633W        W41497   8.533  16.354  19.346  0.0213 -0.0328  0.1636
40634W        W41498   6.065  18.215  18.171 -0.1256 -0.0057 -0.0945
40635W        W41499   5.566  16.656  20.038 -0.0779 -0.0011  0.2837
40636W        W41500   1.283  17.019  18.809  0.0496 -0.2483  0.0673
40637W        W41501   5.763  19.483  18.401 -0.1003  0.2860 -0.1660
40638W        W41502   5.715  15.838  20.800  0.0167 -0.2160  0.0682
40639W        W41503   8.260  17.961  19.391 -0.1753 -0.1319  0.3158
40640W        W41504   8.989  10.746  17.389  0.1279 -0.0240 -0.2996
40641W        W41505   4.382  18.970  18.062  0.0453  0.2579 -0.4756
40642W        W41506   6.451  16.572  18.287  0.1112  0.2004 -0.0302
40643W        W41507   5.675  16.280  20.333  0.1235  0.0218 -0.0510
40644W        W41508   6.156  19.102  20.275 -0.0614 -0.2082 -0.0097
40645W        W41509   5.181  16.887  17.027 -0.0774 -0.0393  0.0638
40646W        W41510   3.260  15.580  17.462  0.1558  0.1190 -0.1563
40647W        W41511   4.762  17.760  18.429 -0.0255 -0.2635 -0.4652
40648W        W41512   3.274  17.348  18.759 -0.0535  0.0692  0.1762
40649W        W41513   8.397  16.669  20.788  0.1117 -0.1458  0.0607
40650W        W41514   5.026  17.591  22.117  0.0107 -0.2757  0.2392
40651W        W41515   3.376  17.754  18.452  0.1301  0.1780 -0.0275
40652W        W41516   8.607  17.276  18.867  0.2402  0.0786  0.0642
40653W        W41517   3.751  17.351  22.136 -0.1199  0.0206  0.2079
40654W        W41518   4.726  18.152  20.773  0.0165 -0.0897  0.1874
40655W        W41519   4.913  16.487  19.439 -0.0875  0.3118  0.0140
40656W        W41520   6.202  17.172  18.445 -0.2089 -0.0520  0.1086
40657W        W41521   7.107  13.482  19.982  0.0956  0.0476  0.0128
40658W        W41522   3.880  19.673  18.486  0.1041  0.0344  0.3724
40659W        W41523   4.577  14.252  16.750 -0.1189  0.0989  0.3248
40660W        W41524   1.167  19.282  18.406 -0.1308  0.1377  0.0375
40661W        W41525   2.907  18.639  20.611  0.0797 -0.1679 -0.0501
40662W        W41526   6.090  17.482  22.395 -0.0950  0.2741  0.1049
40663W        W41527   8.400  17.498  19.321 -0.1449  0.1353  0.2036
40664W        W41528   6.022  16.824  20.205 -0.2616  0.1310  0.0433
40665W        W41529   7.485  16.303  21.060 -0.0620  0.1083 -0.2273
40666W        W41530   6.231  22.590  21.122 -0.3815 -0.1803 -0.2823
40667W        W41531   7.564  17.131  20.042  0.0930  0.1180 -0.1405
40668W        W41532   6.259  16.505  19.769  0.4307 -0.1285  0.1012
40669W        W41533   4.448  19.113  21.060 -0.0203  0.4289  0.1727
40670W        W41534   4.619  16.895  18.906  0.1847 -0.0367  0.1280
40671W        W41535   5.282  17.853  19.392 -0.0574  0.2060 -0.0442
40672W        W41536   5.140  16.301  23.544  0.1841  0.1680 -0.1969
40673W        W41537   2.205  15.032  20.775  0.1022 -0.2022  0.1886
40674W        W41538   4.702  15.301  17.975 -0.2326 -0.0062 -0.2031
40675W        W41539   4.476  17.810  20.609  0.0697  0.0316 -0.1359
40676W        W41540   6.842  15.757  20.873  0.0013  0.2391 -0.0251
40677W        W41541   7.071  16.376  16.867  0.2772  0.0103  0.1336
40678W        W41542   6.208  20.006  21.518  0.2834  0.1821 -0.0583
40679W        W41543   6.435  15.432  19.498  0.1263 -0.1217  0.1155
40680W        W41544   6.574  17.822  22.509  0.0563  0.1415 -0.1335
40681W        W41545   7.832  14.247  20.793 -0.0963  0.2914 -0.0306
40682W        W41546   8.744  16.639  17.955  0.0198  0.0424  0.2625
40683W        W41547   7.417  17.506  22.686 -0.1817 -0.2112  0.0115
40684W        W41548   3.781  17.803  19.252  0.1750 -0.0125 -0.1455
40685W        W41549   5.108  16.710  18.857 -0.0168 -0.0528  0.2841
40686W        W41550   2.657  15.141  20.881  0.1015 -0.1303  0.3327
40687W        W41551   8.673  16.136  18.057  0.2854  0.0355 -0.1129
40688W        W41552   6.760  18.024  21.110 -0.4122  0.1131  0.2621
40689W        W41553   4.981  19.633  19.975  0.2240 -0.0401  0.1451
40690W        W41554   5.307  15.522  21.453 -0.1108  0.1811 -0.1075
40691W        W41555   8.474  13.062  16.164 -0.1009  0.0558  0.0220
40692W        W41556   9.131  17.145  18.916  0.3527  0.2187  0.0016
40693W        W41557   5.538  17.965  19.822 -0.0401  0.0788  0.3060
40694W        W41558   3.091  16.358  16.789  0.0158 -0.0873  0.2107
40695W        W41559   9.189  17.137  23.355 -0.0369  0.0226 -0.0803
40696W        W41560   5.921  11.851  18.096  0.1393  0.1945 -0.1049
40697W        W41561   5.197  16.040  21.284  0.0950  0.0532 -0.1645
40698W        W41562   4.625  20.643  17.981  0.0689 -0.0383 -0.0217
40699W        W41563   6.816  18.244  23.209 -0.0782  0.2373 -0.2617
40700W        W41564   6.249  14.919  19.729  0.0011 -0.1602 -0.0988
40701W        W41565   4.057  16.792  18.985  0.2584  0.1038 -0.0461
40702W        W41566   5.594  14.753  22.808  0.1938  0.1284  0.2763
40703W        W41567   5.831  17.132  18.095  0.2177  0.2858  0.0989
40704W        W41568   4.522  19.123  20.539  0.2974 -0.2106  0.0768
40705W        W41569   6.070  18.653  22.734  0.3773  0.1513  0.0799
40706W        W41570   8.167  16.136  20.576 -0.2437  0.3918 -0.0971
40707W        W41571   6.971  16.200  19.385 -0.0854 -0.0852 -0.3159
40708W        W41572   7.089  12.580  23.263  0.0000 -0.2041 -0.3674
40709W        W41573   4.627  15.975  21.026  0.3511 -0.3808 -0.2560
40710W        W41574   5.502  16.298  18.363  0.0688  0.2110 -0.0583
40711W        W41575   6.357  16.054  19.537  0.1011 -0.1823 -0.0194
40712W        W41576   4.180  16.007  19.592 -0.0635 -0.1463 -0.1855
40713W        W41577   6.790  16.675  21.752 -0.0109  0.0803  0.3883
40714W        W41578   6.385  17.512  20.285 -0.0282 -0.2245 -0.2450
40715W        W41579   5.727  16.972  17.230  0.2001  0.2214  0.0162
40716W        W41580   5.969  15.742  19.679 -0.1893 -0.0279 -0.2055
40717W        W41581   5.696  12.181  19.014  0.0737  0.0261 -0.1531
40718W        W41582   2.304  17.523  23.168 -0.0009 -0.0434  0.0079
40719W        W41583   6.484  17.588  21.852 -0.0210 -0.2777  0.1312
40720W        W41584   6.442  21.353  21.645 -0.0079  0.0168 -0.2375
40721W        W41585   4.564  17.233  21.542  0.0798 -0.0306  0.0268
40722W        W41586   7.882  16.627  21.872 -0.2362 -0.0010  0.0193
40723W        W41587   7.032  16.204  21.815 -0.1261 -0.0792 -0.1176
40724W        W41588   5.101  17.806  19.858  0.0240 -0.1365 -0.0662
40725W        W41589   5.674  14.873  19.795 -0.0662  0.3350 -0.3680
40726W        W41590   3.117  16.567  19.240 -0.3999  0.0831 -0.0797
40727W        W41591   3.987  16.139  21.218  0.1294  0.0054  0.1503
40728W        W41592   7.787  15.059  18.606 -0.0156  0.0361  0.1338
40729W        W41593   7.422  15.780  20.943  0.1400  0.0860  0.1278
40730W        W41594   4.889  16.574  23.138 -0.0444 -0.1332 -0.0881
40731W        W41595   4.997  19.039  18.839  0.1627 -0.2823  0.0114
40732W        W41596   5.983  15.017  18.582 -0.0850 -0.0722  0.1596
40733W        W41597   4.688  11.221  19.010 -0.0810 -0.2881 -0.0935
40734W        W41598   3.905  19.250  18.093  0.1376 -0.1262 -0.0021
40735W        W41599   1.739  16.846  15.585 -0.0326 -0.2887  0.0152
40736W        W41600   6.128  17.966  22.666  0.1978 -0.0899  0.0491
40737W        W41601   2.335  15.064  17.408 -0.0669  0.0664 -0.1434
40738W        W41602   5.565  15.616  19.467  0.0847 -0.1296 -0.0418
40739W        W41603   5.232  18.618  17.515 -0.0862  0.0959  0.1143
40740W        W41604   3.420  16.099  20.012 -0.1760 -0.3639 -0.1192
40741W        W41605   2.951  16.111  18.968  0.0190  0.0499  0.2354
40742W        W41606   6.230  17.838  19.066 -0.2202 -0.0495 -0.1804
40743W        W41607   4.366  14.476  22.168  0.0149  0.0316  0.1962
40744W        W41608   8.698  18.043  19.036  0.0288 -0.1458 -0.3676
40745W        W41609   2.683  15.872  16.976 -0.0504 -0.4663 -0.5019
40746W        W41610   6.121  13.960  18.712  0.1235 -0.2481 -0.2162
40747W        W41611   5.861  14.550  18.693 -0.0748 -0.0910 -0.0936
40748W        W41612   4.518  18.127  18.666 -0.1783  0.1415 -0.2277
40749W        W41613   9.598  18.204  18.738 -0.0797  0.3277 -0.1882
40750W        W41614   3.712  16.457  17.975 -0.1892 -0.0881 -0.0461
40751W        W41615   7.102  15.901  18.417  0.0361  0.2729 -0.1691
40752W        W41616   6.756  14.682  20.120  0.4248  0.3217  0.2519
40753W        W41617   7.247  18.994  20.994 -0.1809 -0.2144  0.1023
40754W        W41618   9.281  16.457  22.186 -0.1053  0.2758  0.1480
40755W        W41619   4.237  17.795  21.024  0.0692  0.2124  0.1625
40756W        W41620   5.567  15.433  20.341 -0.0846  0.0444 -0.0464
40757W        W41621   6.245  16.466  21.928 -0.1306 -0.0038 -0.0338
40758W        W41622   2.653  16.127  18.052 -0.2318  0.2324 -0.3595
40759W        W41623   3.193  17.347  16.489  0.1114  0.1522 -0.2837
40760W        W41624   6.496  18.627  20.211  0.0065 -0.1015  0.1393
40761W        W41625   4.401  15.137  17.510  0.0225 -0.1620 -0.1923
40762W        W41626   7.276  16.138  17.736  0.2437 -0.3857  0.1141
40763W        W41627   6.144  18.692  18.733  0.0564  0.0795 -0.3471
40764W        W41628   4.326  17.657  18.661  0.1008 -0.0384 -0.1739
40765W        W41629   9.238  15.421  19.981  0.1824  0.0877 -0.0265
40766W        W41630   6.077  16.965  19.026 -0.0784  0.0573 -0.3852
40767W        W41631   8.665  18.129  16.218  0.0578 -0.0741 -0.0155
40768W        W41632   2.622  19.448  20.261 -0.1532  0.0315 -0.0626
40769W        W41633   3.668  17.691  20.169  0.0865 -0.0748 -0.3645
40770W        W41634   2.094  19.048  17.025 -0.3120  0.0180  0.2148
40771W        W41635   3.916  15.837  19.096 -0.3758 -0.2299 -0.0255
40772W        W41636   5.831  19.616  16.898  0.0702  0.1025  0.1361
40773W        W41637   4.987  16.517  17.876 -0.1498 -0.2139  0.1616
40774W        W41638   7.856  14.496  18.076  0.2579 -0.4306 -0.0710
40775W        W41639   6.337  16.634  18.771  0.1860 -0.0635 -0.0384
40776W        W41640   7.143  13.850  17.524 -0.0547 -0.1225 -0.1376
40777W        W41641   5.745  17.180  18.661 -0.2256 -0.3828 -0.3070
40778W        W41642   8.972  12.282  17.200 -0.3821 -0.1076 -0.3463
40779W        W41643   3.924  11.996  16.209  0.0064 -0.3129  0.0872
40780W        W41644   8.338  17.022  21.797 -0.0379  0.1149 -0.2764
40781W        W41645   3.698  17.302  19.308  0.1161  0.1167  0.0766
40782W        W41646   7.048  18.544  18.214 -0.0100 -0.0439 -0.0831
40783W        W41647   3.079  22.195  19.207 -0.1460  0.1021 -0.4485
40784W        W41648   6.725  17.488  21.160  0.1060 -0.2139  0.0597
40785W        W41649   7.385  15.906  23.611  0.1046  0.0904  0.1580
40786W        W41650   6.316  15.319  18.912 -0.0204  0.0350  0.1626
40787W        W41651   6.301  17.416  18.853  0.0815 -0.1095 -0.3309
40788W        W41652   7.643  13.871  17.630  0.2823  0.1411 -0.2950
40789W        W41653   3.766  15.586  21.940 -0.0131 -0.2765 -0.1889
40790W        W41654   5.221  14.628  22.337  0.2410 -0.3078 -0.2297
40791W        W41655   4.898  12.631  17.886  0.0858 -0.4036  0.0177
40792W        W41656   5.474  16.826  18.466  0.0703 -0.1721 -0.0459
40793W        W41657   5.153  16.856  20.292  0.0324 -0.0634 -0.0733
40794W        W41658   8.304  16.262  17.736  0.0451  0.3034  0.1294
40795W        W41659   3.316  13.884  20.240 -0.0078 -0.0890  0.4938
40796W        W41660   6.261  18.083  18.644 -0.1562  0.0442  0.1235
40797W        W41661   3.674  14.872  20.165 -0.0127 -0.0411  0.2394
40798W        W41662   2.428  19.472  19.480  0.1161 -0.0075 -0.1612
40799W        W41663   7.568  16.109  16.349  0.1806 -0.2688  0.0557
40800W        W41664   3.802  18.238  17.346 -0.0073  0.0712 -0.1979
40801W        W41665   2.558  16.285  16.675 -0.0832 -0.1626  0.0069
40802W        W41666   5.451  18.747  20.713  0.0985 -0.0310 -0.0720
40803W        W41667   6.228  17.265  21.012 -0.1330  0.1045  0.1176
40804W        W41668   5.452  19.112  20.116 -0.1792 -0.3728 -0.1842
40805W        W41669   7.170  11.892  19.337 -0.0532 -0.0574  0.0207
40806W        W41670   8.146  15.721  20.202  0.3175 -0.0227  0.1965
40807W        W41671   8.082  13.917  19.029  0.0653 -0.1617 -0.0831
40808W        W41672   5.804  17.658  18.853  0.0722 -0.0312 -0.0380
40809W        W41673   7.508  19.616  19.366  0.1749  0.0220 -0.1419
40810W        W41674   5.853  17.543  21.294 -0.1929  0.0716  0.1984
40811W        W41675   6.483  16.655  24.315 -0.1341 -0.0193  0.0765
40812W        W41676   8.418  13.113  22.479 -0.0185  0.2937 -0.0681
40813W        W41677   7.572  15.783  20.097  0.0453  0.0872  0.0015
40814W        W41678   6.003  18.720  19.942 -0.2950 -0.3826  0.0647
40815W        W41679   4.242  15.434  19.089 -0.4551 -0.0694  0.2668
40816W        W41680   2.765  16.071  19.940 -0.0721  0.2552 -0.0707
40817W        W41681   3.502  17.646  20.662 -0.2687  0.1330  0.3130
40818W        W41682   6.800  16.905  20.666 -0.0359 -0.0654 -0.1443
40819W        W41683   7.173  14.939  22.372  0.1540  0.1182 -0.0937
40820W        W41684   7.785  18.850  18.683 -0.1589  0.3105 -0.0893
40821W        W41685   6.653  16.196  20.484 -0.0140 -0.2618  0.0448
40822W        W41686   4.812  16.638  23.731 -0.1658 -0.1788 -0.0230
40823W        W41687   5.465  18.578  24.191 -0.1939  0.1379 -0.0558
40824W        W41688   4.221  20.995  16.883 -0.2165 -0.3538  0.0122
40825W        W41689   8.779  16.705  18.922  0.0313 -0.1250  0.0142
40826W        W41690   2.312  17.817  22.685 -0.0348 -0.1203  0.2451
40827W        W41691   4.544  15.838  19.978 -0.1812  0.0941  0.2249
40828W        W41692   5.958  16.749  18.401  0.1861 -0.1626 -0.1338
40829W        W41693   4.647  15.272  22.661  0.1877 -0.0747 -0.1542
40830W        W41694   7.388  18.385  24.166 -0.2792 -0.0584  0.0461
40831W        W41695   7.590  17.923  19.138  0.1114  0.0094 -0.0131
40832W        W41696   6.607  18.320  17.922 -0.2100 -0.0288  0.3976
40833W        W41697   4.485  16.407  21.349 -0.2047 -0.2224 -0.0371
40834W        W41698   5.143  15.232  18.972 -0.1270 -0.0361 -0.2260
40835W        W41699   4.303  15.874  21.506 -0.0077 -0.2439  0.0300
40836W        W41700   8.239  16.793  19.063  0.0065  0.1037 -0.0410
40837W        W41701   3.905  17.960  16.943  0.0531  0.2078  0.1219
40838W        W41702   8.949  14.374  21.432 -0.0729  0.3245  0.1059
40839W        W41703   5.090  18.923  22.407  0.2150  0.2622 -0.1760
40840W        W41704   5.762  18.051  18.515 -0.0547 -0.0082  0.0294
40841W        W41705   4.492  16.280  21.863  0.1602  0.0315  0.3593
40842W        W41706   4.892  18.287  18.326 -0.1527 -0.1600 -0.1466
40843W        W41707   9.762  20.259  19.250 -0.0531 -0.1424  0.1211
40844W        W41708   8.109  14.848  23.179 -0.0032  0.0305  0.0504
40845W        W41709   6.819  17.157  19.511  0.0641 -0.0900 -0.0816
40846W        W41710   0.996  18.286  15.746 -0.1804  0.4411 -0.0096
40847W        W41711   7.236  19.327  21.535  0.1947  0.1074  0.1634
40848W        W41712   6.477  14.873  17.889  0.0839  0.1710  0.0303
40849W        W41713   4.008  18.273  21.193  0.3103  0.2062  0.0109
40850W        W41714   7.346  16.488  17.409 -0.2466 -0.1876 -0.0712
40851W        W41715   7.594  14.535  18.489  0.3237 -0.0440 -0.1082
40852W        W41716   6.146  16.291  16.693 -0.0111 -0.0714  0.0575
40853W        W41717   4.060  15.104  21.184  0.2297  0.0176  0.1981
40854W        W41718   6.141  17.830  19.861  0.1622  0.0354 -0.2941
40855W        W41719   7.405  15.364  18.556 -0.3310 -0.2396 -0.2732
40856W        W41720   5.737  20.504  19.465  0.0931 -0.1759 -0.0684
40857W        W41721   4.411  19.122  22.256 -0.2876  0.2796 -0.0540
40858W        W41722   3.009  17.886  18.752 -0.0629 -0.0956  0.1208
40859W        W41723   7.567  14.594  17.673 -0.0018 -0.2404 -0.0027
40860W        W41724   7.840  15.258  20.387 -0.0632  0.1268  0.1378
40861W        W41725   8.496  17.597  19.856  0.0562  0.0375  0.2103
40862W        W41726   4.923  16.912  18.402 -0.1259 -0.2117  0.0767
40863W        W41727   7.971  13.545  20.650 -0.2909  0.2432  0.2727
40864W        W41728   5.344  17.119  22.026 -0.2817  0.1041 -0.2950
40865W        W41729   7.207  15.992  19.750 -0.0684  0.1081  0.1700
40866W        W41730   5.852  17.927  19.418  0.1499 -0.0083  0.1652
40867W        W41731   6.040  15.476  21.508 -0.0841 -0.0234 -0.0017
40868W        W41732   8.508  16.204  21.117 -0.1107 -0.4085 -0.3545
40869W        W41733   6.126  15.432  20.579  0.1535  0.0196 -0.3221
40870W        W41734   3.736  14.770  22.061  0.1519  0.3078  0.2725
40871W        W41735   5.587  18.686  21.229 -0.2127 -0.3563 -0.0131
40872W        W41736   7.467  17.437  19.048  0.2617  0.0327 -0.2033
40873W        W41737   5.960  15.855  17.303  0.1193 -0.1110 -0.1505
40874W        W41738   5.089  17.392  20.142  0.0274  0.0937  0.3298
40875W        W41739   2.560  17.004  22.887  0.2876 -0.1297  0.1036
40876W        W41740   6.980  15.516  17.395  0.2274 -0.2413  0.0374
40877W        W41741   6.744  12.793  18.891  0.1183  0.0059 -0.1100
40878W        W41742   7.782  17.033  18.668 -0.3249 -0.1711 -0.1171
40879W        W41743   3.480  14.784  21.602  0.3318 -0.0281  0.1734
40880W        W41744   9.059  15.620  18.099 -0.0535 -0.3255  0.0034
40881W        W41745   5.981  18.303  19.112 -0.0651 -0.2331 -0.1551
40882W        W41746   5.187  21.299  18.020 -0.0651 -0.0249  0.1019
40883W        W41747   6.279  14.410  17.835  0.3065 -0.0049 -0.2007
40884W        W41748   7.584  14.001  18.894 -0.2171  0.2482 -0.0779
40885W        W41749   4.123  16.695  20.307  0.1020 -0.2540 -0.2112
40886W        W41750   4.627  16.327  22.402  0.2893  0.2194  0.2187
40887W        W41751   7.915  16.908  18.082 -0.2768 -0.0274 -0.0428
40888W        W41752   5.793  13.334  20.767  0.0956  0.1038  0.4762
40889W        W41753   5.982  17.290  19.849  0.0167 -0.1127  0.2054
40890W        W41754   6.173  13.608  20.532  0.2881 -0.5377 -0.1240
40891W        W41755   4.347  18.202  21.943  0.3047  0.0629  0.0379
40892W        W41756   4.727  19.333  18.270  0.1997  0.2193 -0.1762
40893W        W41757   3.181  14.311  20.380  0.2009 -0.1141  0.1313
40894W        W41758   6.534  21.021  19.717  0.3088 -0.0110 -0.0059
40895W        W41759   8.824  17.008  18.480  0.3214  0.2120  0.1382
40896W        W41760   8.383  17.659  18.076 -0.3332 -0.0327 -0.0253
40897W        W41761   7.572  20.726  20.286  0.2262  0.1705 -0.0365
40898W        W41762   7.536  13.965  21.600  0.0463 -0.2930  0.1335
40899W        W41763   5.702  13.356  18.224 -0.2387  0.1802  0.0404
40900W        W41764   4.383  16.250  20.260 -0.0682 -0.1334 -0.1781
40901W        W41765   3.022  16.524  18.706 -0.3839 -0.0549 -0.2285
40902W        W41766   3.825  13.950  15.953  0.2060  0.0636  0.1855
40903W        W41767   4.469  17.682  22.237 -0.0282 -0.0746 -0.1030
40904W        W41768   5.375  13.591  19.385 -0.3587  0.0786 -0.0130
40905W        W41769   7.180  18.490  20.840  0.2013  0.1582  0.1768
40906W        W41770   3.729  19.042  18.559 -0.1991 -0.0310  0.0541
40907W        W41771   4.667  17.676  21.263  0.0196  0.0167 -0.3146
40908W        W41772   3.458  17.953  17.587  0.2137 -0.0113 -0.0992
40909W        W41773   7.504  15.184  17.365  0.1451 -0.0043  0.0185
40910W        W41774   7.517  17.043  23.091 -0.4341 -0.1752 -0.1738
40911W        W41775   6.542  14.852  19.027  0.3077  0.0622 -0.0071
40912W        W41776   3.734  18.226  20.394 -0.2591 -0.1492  0.0157
40913W        W41777   5.589  18.439  17.234  0.1845  0.1716 -0.0103
40914W        W41778   5.543  17.993  21.147  0.0500  0.0489  0.0048
40915W        W41779   6.854  17.751  20.346 -0.2428 -0.1240  0.0363
40916W        W41780   5.607  19.075  18.734  0.3218 -0.2761  0.4446
40917W        W41781   4.346  17.208  21.041  0.1778 -0.0864 -0.1562
40918W        W41782   5.909  14.647  20.569 -0.0515 -0.2866 -0.2435
40919W        W41783   2.978  18.703  16.967  0.2102  0.4662  0.1595
40920W        W41784   5.445  18.413  19.580 -0.0999  0.0540 -0.1199
40921W        W41785   3.306  16.911  20.265  0.1118 -0.1182  0.2657
40922W        W41786   3.126  16.140  19.557 -0.3028  0.1527 -0.2820
40923W        W41787   8.127  14.993  18.194  0.3335  0.1647  0.1559
40924W        W41788   7.372  15.316  22.000  0.0604  0.0964 -0.1150
40925W        W41789   4.416  21.147  22.715  0.2116  0.0542 -0.0107
40926W        W41790   6.975  17.399  21.560  0.1543  0.0740 -0.2190
40927W        W41791   6.399  18.827  20.648  0.1723  0.0923  0.2354
40928W        W41792   3.150  19.581  19.642 -0.0243  0.2308 -0.0350
40929W        W41793  11.673  17.749  18.403  0.0700 -0.0474 -0.1549
40930W        W41794   6.960  14.624  17.604  0.0308 -0.1524  0.3483
40931W        W41795   2.676  14.091  19.465  0.0435 -0.1747  0.2792
40932W        W41796   4.132  18.036  20.157 -0.3239  0.1121 -0.3926
40933W        W41797   6.837  16.244  19.908  0.0893  0.0208 -0.0126
40934W        W41798   4.926  12.807  20.079  0.3538 -0.0661  0.1578
40935W        W41799   3.410  18.542  17.211  0.0348  0.0886  0.0032
40936W        W41800   4.242  18.920  19.776 -0.0881  0.2007 -0.2050
40937W        W41801   5.380  17.893  20.277  0.2491 -0.0692  0.0002
40938W        W41802   4.893  15.944  18.555 -0.1857  0.0321 -0.1446
40939W        W41803   4.183  15.104  20.166 -0.0807 -0.4138  0.1263
40940W        W41804   4.244  18.477  18.939 -0.3041 -0.1926 -0.0567
40941W        W41805   1.967  15.019  20.365  0.0869  0.1129 -0.0455
40942W        W41806   6.707  18.583  19.764  0.4295  0.2157 -0.1601
40943W        W41807   5.768  16.054  19.333  0.0932  0.1044 -0.4835
40944W        W41808   9.837  17.145  22.489 -0.1676  0.1443 -0.1502
40945W        W41809   6.250  16.389  20.615  0.3297 -0.0213 -0.0662
40946W        W41810   4.211  17.520  20.161 -0.2725  0.0114 -0.0932
40947W        W41811   6.832  13.815  16.108 -0.0135 -0.0870  0.0826
40948W        W41812   5.509  18.792  19.160  0.0667 -0.2784  0.0322
40949W        W41813   7.689  16.746  20.322  0.1985  0.0908 -0.1386
40950W        W41814   4.611  17.137  22.994 -0.0902  0.0116 -0.0838
40951W        W41815   4.007  15.400  17.228 -0.2274  0.0549 -0.3789
40952W        W41816   3.710  16.586  20.040  0.1294  0.3413 -0.0622
40953W        W41817   5.644  18.229  20.703 -0.2520 -0.0567  0.1430
40954W        W41818   1.733  18.185  19.548 -0.0947 -0.3232 -0.0131
40955W        W41819   7.739  16.240  17.995  0.0435  0.0467  0.1933
40956W        W41820   3.261  19.863  18.771  0.2304 -0.1456  0.0413
40957W        W41821   6.455  17.042  20.029  0.2691  0.0666 -0.1950
40958W        W41822   8.750  17.060  17.728 -0.0701 -0.0922 -0.0976
40959W        W41823   5.428  16.145  17.863  0.0751  0.2060  0.1619
40960W        W41824   6.166  15.225  16.644 -0.0710  0.1789  0.2598
40961W        W41825   8.367  16.335  18.828  0.0902 -0.1505  0.2884
40962W        W41826   4.902  15.479  18.407 -0.0573  0.1114 -0.1720
40963W        W41827   8.163  17.408  21.475  0.1615  0.0377  0.1544
40964W        W41828   5.916  16.381  17.182 -0.1236 -0.0244  0.0838
40965W        W41829   7.543  16.467  19.153 -0.3067 -0.0828  0.1768
40966W        W41830   7.483  18.441  19.120 -0.0024  0.3515 -0.2173
40967W        W41831   5.085  18.696  21.957  0.0311 -0.0165 -0.3521
40968W        W41832   5.312  16.916  21.377 -0.1134 -0.0702  0.1536
40969W        W41833   8.477  16.399  21.609  0.1320  0.0835  0.1807
40970W        W41834   6.084  14.890  19.206 -0.0054  0.0341 -0.0623
40971W        W41835   3.878  15.650  21.399 -0.0301  0.1189  0.0269
40972W        W41836   8.026  21.842  20.879  0.0789  0.2159 -0.0359
40973W        W41837   0.703  20.349  17.273  0.1554  0.1678 -0.0265
40974W        W41838   6.619  14.569  23.612 -0.1133  0.3944 -0.0963
40975W        W41839   7.504  16.814  21.217 -0.3273  0.0202 -0.6359
40976W        W41840   6.714  16.953  22.606 -0.0314  0.4231  0.2143
40977W        W41841   7.466  12.610  21.347 -0.2363  0.0052 -0.0526
40978W        W41842   4.992  18.244  20.054  0.4016  0.2060 -0.0177
40979W        W41843   3.301  17.058  19.358  0.0008 -0.2615 -0.1365
40980W        W41844   3.149  20.297  18.495  0.0862  0.2249  0.0330
40981W        W41845   6.466  16.584  20.252 -0.2605  0.2631  0.1682
40982W        W41846   6.434  18.141  24.177  0.6065  0.0395 -0.0258
40983W        W41847   3.337  20.094  19.896 -0.2615 -0.1067 -0.0544
40984W        W41848   6.661  15.859  19.094  0.0378 -0.1212  0.0579
40985W        W41849   7.859  17.595  19.473  0.0472  0.2631  0.3649
40986W        W41850   3.862  17.874  18.321  0.2069  0.4473  0.0514
40987W        W41851   7.324  17.866  21.755 -0.0502 -0.1159 -0.2285
40988W        W41852   6.469  17.842  20.765 -0.0883 -0.0908  0.0082
40989W        W41853   4.687  16.802  20.222 -0.1514 -0.2112 -0.2667
40990W        W41854   4.995  19.213  20.329 -0.1926 -0.0015  0.0021
40991W        W41855   1.430  19.502  17.586  0.2907  0.2158 -0.0207
40992W        W41856   5.707  18.502  23.693 -0.0159  0.0914  0.0889
40993W        W41857   5.655  16.037  27.857 -0.0653 -0.1159  0.0469
40994W        W41858   5.498  18.091  23.530  0.1341 -0.0552  0.2155
40995W        W41859   8.043  16.901  25.941 -0.0980 -0.0154  0.3306
40996W        W41860   4.914  17.034  23.393  0.0015  0.2035 -0.0356
40997W        W41861   5.186  17.968  22.464 -0.1925 -0.1030 -0.0018
40998W        W41862   3.304  14.526  24.395  0.5043 -0.0439 -0.2768
40999W        W41863   7.739  16.108  23.068 -0.2189  0.0974 -0.1092
41000W        W41864   6.859  18.363  24.844  0.4116  0.0944 -0.1122
41001W        W41865   2.380  13.118  23.371  0.0691 -0.2996 -0.1251
41002W        W41866   4.417  14.483  25.192  0.1471  0.3642 -0.4585
41003W        W41867   7.987  15.383  24.446 -0.1263  0.0509 -0.0129
41004W        W41868   4.251  17.289  21.934  0.0151  0.0705  0.4392
41005W        W41869   5.527  15.588  24.546  0.0584  0.0164  0.1619
41006W        W41870   4.431  14.615  24.247  0.1085 -0.0001  0.1328
41007W        W41871   3.775  19.285  26.639  0.1479 -0.1348 -0.2928
41008W        W41872   4.582  19.767  21.709  0.0646  0.0681 -0.1464
41009W        W41873   1.827  16.871  21.929 -0.1659  0.0044 -0.2861
41010W        W41874   5.629  14.348  23.229  0.2534 -0.2404  0.2129
41011W        W41875   7.070  14.655  25.033 -0.1919 -0.1300  0.2019
41012W        W41876   5.347  15.199  25.721 -0.0775 -0.5622  0.0050
41013W        W41877   4.726  15.966  24.846  0.0075  0.1757 -0.1129
41014W        W41878   8.918  18.855  25.994  0.0745  0.1867  0.0730
41015W        W41879   3.757  16.376  22.740  0.0340  0.3383 -0.1482
41016W        W41880   5.492  16.293  20.810  0.1672  0.2252  0.0492
41017W        W41881   4.055  16.281  23.197 -0.2821  0.2250  0.0437
41018W        W41882   6.778  15.380  23.896  0.2591  0.2350 -0.1509
41019W        W41883   5.938  19.054  20.955 -0.0557 -0.2620 -0.0719
41020W        W41884   6.722  18.718  25.458 -0.1036 -0.3692 -0.1357
41021W        W41885   1.821  16.108  24.897  0.0690 -0.0181 -0.1677
41022W        W41886   4.755  18.149  22.301 -0.0451 -0.3411 -0.0347
41023W        W41887   6.026  19.621  26.707 -0.0004 -0.0940  0.1901
41024W        W41888   4.361  17.686  25.916 -0.0533 -0.0571 -0.0639
41025W        W41889   5.781  17.926  24.782  0.0722 -0.1864 -0.0533
41026W        W41890   4.852  15.131  23.952  0.1030 -0.0494 -0.0403
41027W        W41891   6.367  18.825  25.842  0.1179 -0.0817 -0.0024
41028W        W41892   3.191  16.874  21.221  0.0240  0.0252  0.0592
41029W        W41893   5.990  15.809  23.465  0.0373  0.1815  0.3598
41030W        W41894   8.140  15.336  22.705  0.0332 -0.5802 -0.0563
41031W        W41895   6.959  15.791  25.808 -0.1180 -0.0906 -0.0090
41032W        W41896   6.298  16.575  21.431  0.3678 -0.0847 -0.3190
41033W        W41897   7.690  17.968  24.360 -0.0568 -0.2449 -0.1313
41034W        W41898   5.608  20.362  23.777  0.0802 -0.2966 -0.1730
41035W        W41899   7.276  16.329  22.849  0.0410 -0.0267 -0.1365
41036W        W41900   7.003  19.612  24.345 -0.0011  0.2329 -0.0421
41037W        W41901   4.755  19.388  22.462  0.1075 -0.0654  0.1966
41038W        W41902   6.043  14.402  23.480 -0.1443  0.0774  0.0309
41039W        W41903   7.241  16.194  26.014  0.0705  0.1506  0.2312
41040W        W41904   6.362  18.149  23.436  0.2213 -0.3301  0.0354
41041W        W41905   5.403  16.878  20.859  0.0264  0.1761 -0.2558
41042W        W41906   5.969  17.597  22.953 -0.1064 -0.0142  0.0527
41043W        W41907   7.065  15.132  21.556  0.0160  0.0401 -0.0589
41044W        W41908   3.973  17.867  27.696 -0.2029  0.1554  0.0703
41045W        W41909   6.235  14.990  20.854  0.0041  0.2828  0.0250
41046W        W41910   5.410  18.380  22.264 -0.1057  0.0790  0.1223
41047W        W41911   2.803  20.095  22.172 -0.1852 -0.2533  0.0619
41048W        W41912   5.726  15.705  21.791 -0.1508 -0.1987  0.3202
41049W        W41913   7.456  15.401  21.392 -0.1579 -0.0135  0.0992
41050W        W41914   3.964  18.945  22.399 -0.1147  0.1463  0.2263
41051W        W41915   5.188  18.098  17.737 -0.0851  0.0281  0.0328
41052W        W41916   4.930  17.193  21.114  0.1265  0.0173  0.0533
41053W        W41917   4.068  16.435  21.612  0.0264  0.0960 -0.1015
41054W        W41918   6.085  16.753  25.032  0.2742  0.2863 -0.0467
41055W        W41919   2.273  16.596  22.871 -0.0519 -0.1391 -0.1283
41056W        W41920   2.719  13.360  23.684  0.2355 -0.2854 -0.1339
41057W        W41921   5.764  18.519  21.919  0.0495  0.2170  0.0777
41058W        W41922   5.812  17.630  20.190  0.0843 -0.0195  0.0196
41059W        W41923   4.442  14.373  23.331  0.0270  0.0176 -0.2804
41060W        W41924   3.478  18.418  21.339 -0.1408 -0.2325 -0.2939
41061W        W41925   7.568  18.116  22.169  0.0526  0.2405 -0.1103
41062W        W41926   7.913  17.926  26.223  0.0159 -0.3750 -0.1642
41063W        W41927   7.132  16.225  23.867  0.2365 -0.1008  0.4128
41064W        W41928   8.612  18.420  25.357  0.3895 -0.0020  0.0330
41065W        W41929   5.333  14.024  25.241 -0.1285 -0.0687  0.0595
41066W        W41930   6.076  19.985  24.357  0.0055  0.2736  0.0163
41067W        W41931   5.414  17.160  24.284  0.1141  0.3191  0.0641
41068W        W41932   4.108  17.245  20.567  0.1456 -0.0806 -0.3281
41069W        W41933   2.654  18.710  24.456 -0.0861  0.0236  0.0514
41070W        W41934   8.242  18.055  22.300  0.0129  0.1844  0.0857
41071W        W41935   5.468  16.181  22.412  0.0735 -0.0990 -0.2410
41072W        W41936   2.333  18.144  20.955 -0.0765  0.2260 -0.2147
41073W        W41937   4.850  16.925  24.206  0.1482 -0.1774  0.0010
41074W        W41938   4.890  14.314  22.472  0.2300  0.2360  0.0214
41075W        W41939   5.042  15.882  19.884  0.0595 -0.0972  0.2009
41076W        W41940   5.271  14.378  26.373 -0.0114 -0.0178  0.2294
41077W        W41941   6.256  15.503  20.109 -0.3610  0.0570  0.1950
41078W        W41942   7.074  17.343  24.220 -0.0936  0.1648 -0.1392
41079W        W41943   4.911  14.010  25.959 -0.0028 -0.0367 -0.0363
41080W        W41944   5.264  17.899  25.986 -0.1610 -0.1423  0.1072
41081W        W41945   4.763  17.536  23.541 -0.0646  0.0416 -0.0311
41082W        W41946   7.711  15.680  22.193  0.0375 -0.0411 -0.1172
41083W        W41947  10.046  18.354  26.512 -0.2626  0.2901 -0.1202
41084W        W41948   2.848  15.394  26.819 -0.1893  0.1904  0.1225
41085W        W41949   2.153  17.980  20.536  0.1700  0.0349  0.1470
41086W        W41950   5.753  17.066  25.295  0.1706 -0.1215 -0.1266
41087W        W41951   8.940  17.537  23.126  0.1540 -0.3280  0.1922
41088W        W41952   9.910  17.594  21.907  0.0555  0.0228 -0.0197
41089W        W41953   7.311  16.258  26.509 -0.0626  0.4574 -0.4316
41090W        W41954   2.843  15.322  22.254 -0.2193  0.2510 -0.0965
41091W        W41955   5.337  19.200  20.843  0.0161 -0.2219 -0.0365
41092W        W41956   8.482  17.954  23.242  0.0461  0.2427  0.0840
41093W        W41957   2.383  16.251  23.670  0.0363  0.0462 -0.3978
41094W        W41958   6.227  16.182  18.495 -0.1505  0.2064 -0.0263
41095W        W41959   7.970  14.698  24.986  0.3912  0.0623  0.2205
41096W        W41960  10.200  15.320  22.342  0.2717 -0.0809 -0.1477
41097W        W41961   6.113  16.511  23.979 -0.1967 -0.1488  0.2023
41098W        W41962   6.282  18.936  22.325  0.0283 -0.0194  0.0217
41099W        W41963   7.532  18.679  25.441  0.0227 -0.0427  0.4350
41100W        W41964   6.322  16.131  23.123  0.0499 -0.2159 -0.3598
41101W        W41965   5.539  16.432  21.308  0.3458 -0.0989  0.3164
41102W        W41966   3.778  18.263  24.215  0.1225 -0.1089 -0.1722
41103W        W41967   7.329  15.306  23.572 -0.1175  0.0809 -0.0377
41104W        W41968   7.620  16.643  26.095 -0.1296 -0.0237  0.1181
41105W        W41969   4.244  18.535  24.018 -0.1339  0.0470  0.0317
41106W        W41970   5.936  16.847  21.213 -0.3182 -0.0821  0.2798
41107W        W41971   6.015  15.038  22.954  0.2846 -0.3124 -0.2835
41108W        W41972   9.915  16.911  23.095  0.1522 -0.0917 -0.0994
41109W        W41973   4.274  18.575  27.091 -0.1464 -0.0040  0.1497
41110W        W41974   7.108  14.245  22.872  0.1008 -0.1657  0.0546
41111W        W41975   6.571  16.687  22.224 -0.2311  0.0065 -0.2234
41112W        W41976   6.632  16.218  21.591 -0.0438 -0.0173  0.1695
41113W        W41977   4.945  15.040  21.559  0.2933  0.0533 -0.0212
41114W        W41978   6.600  17.160  24.231  0.1916  0.1133  0.3202
41115W        W41979   5.553  18.131  24.093  0.0020  0.3132 -0.0490
41116W        W41980   5.759  16.633  25.452  0.2924  0.4397 -0.1033
41117W        W41981   6.444  17.858  23.012 -0.0327 -0.4400 -0.1156
41118W        W41982   3.489  17.270  25.656  0.0728  0.0538 -0.0975
41119W        W41983   5.721  17.487  24.568  0.1442  0.1517  0.3537
41120W        W41984   7.606  18.446  25.049 -0.0182 -0.3126  0.0317
41121W        W41985   2.711  17.967  22.923  0.2063  0.3811  0.1070
41122W        W41986   4.839  20.275  24.278  0.1378 -0.1395 -0.0211
41123W        W41987   1.071  15.625  20.510 -0.3142 -0.1231 -0.1765
41124W        W41988   4.123  18.748  25.039  0.0509 -0.2463  0.3373
41125W        W41989   6.547  16.281  21.051  0.1666  0.2015 -0.0629
41126W        W41990   8.300  17.082  23.679 -0.1334  0.1149 -0.1279
41127W        W41991   3.913  15.272  22.251 -0.1878  0.0916 -0.1954
41128W        W41992   8.205  18.377  23.348 -0.2023 -0.2033  0.1382
41129W        W41993   5.366  15.534  26.960 -0.1022 -0.0771  0.0507
41130W        W41994   6.558  16.575  26.183  0.0656 -0.2117 -0.3008
41131W        W41995   3.504  16.679  22.353 -0.1196 -0.0809  0.2334
41132W        W41996   5.664  15.817  21.299 -0.3043  0.2093  0.0231
41133W        W41997   8.993  13.738  24.199  0.3521  0.0276 -0.3325
41134W        W41998   2.504  19.088  23.202 -0.1046  0.0931  0.3285
41135W        W41999   2.945  17.784  24.589 -0.1006 -0.1089 -0.0361
41136W        W42000   7.234  19.346  26.146  0.1279  0.1218  0.0061
41137W        W42001   5.613  17.117  22.553 -0.0215 -0.2591 -0.2625
41138W        W42002   7.085  16.508  24.253  0.0975 -0.2279  0.1475
41139W        W42003   6.120  16.889  26.402  0.2457 -0.1502  0.0866
41140W        W42004   6.391  18.358  22.987  0.2478  0.0707  0.0722
41141W        W42005   5.875  17.549  25.796  0.0951  0.0945 -0.1002
41142W        W42006   8.460  19.081  25.943 -0.3528 -0.3109  0.1095
41143W        W42007   4.365  16.773  21.907 -0.0276  0.0471 -0.0226
41144W        W42008   5.142  18.012  23.011  0.2335 -0.3067  0.1911
41145W        W42009   4.160  15.003  22.632  0.4634  0.0429 -0.1734
41146W        W42010   5.478  15.759  22.712 -0.0259 -0.0721  0.2839
41147W        W42011   6.550  17.238  22.197  0.0355 -0.2581  0.2286
41148W        W42012   4.780  16.069  23.935  0.2265  0.1271 -0.1055
41149W        W42013   4.893  15.552  22.309 -0.1397 -0.1215 -0.0093
41150W        W42014   2.875  13.326  19.954 -0.0678  0.0428  0.2183
41151W        W42015   5.114  19.394  22.946 -0.0388  0.2625  0.0503
41152W        W42016   4.906  15.797  24.438 -0.2837 -0.4486 -0.0083
41153W        W42017   3.824  15.844  22.809 -0.0524  0.0027 -0.1656
41154W        W42018   5.694  17.814  26.219  0.0809 -0.1671 -0.2503
41155W        W42019   8.201  17.682  25.632  0.2913 -0.1129  0.0018
41156W        W42020   6.398  14.970  25.161 -0.0431 -0.0344 -0.0041
41157W        W42021   4.029  16.926  22.264 -0.1799 -0.1354 -0.2588
41158W        W42022   3.919  15.154  21.698 -0.0025 -0.2534  0.1556
41159W        W42023   2.439  16.474  22.311  0.2470  0.3211  0.0776
41160W        W42024   5.603  18.536  24.672 -0.2432 -0.1332 -0.2373
41161W        W42025   5.066  17.362  21.593  0.0200  0.0740  0.1869
41162W        W42026   7.554  15.787  26.065 -0.1848 -0.1665  0.1493
41163W        W42027   5.494  15.128  24.742  0.0882 -0.1469 -0.1273
41164W        W42028   4.769  18.744  25.834  0.0266 -0.0515  0.0143
41165W        W42029   6.740  18.630  22.061  0.3605  0.0004 -0.2453
41166W        W42030   5.914  13.963  23.642  0.1161 -0.0129 -0.0626
41167W        W42031   8.666  14.270  24.141 -0.0694 -0.0236 -0.2406
41168W        W42032   3.868  17.561  22.912 -0.4668 -0.1565 -0.1881
41169W        W42033   3.358  17.177  25.110  0.1009  0.0183 -0.3140
41170W        W42034   3.831  18.531  20.819 -0.1090 -0.1106 -0.1027
41171W        W42035   2.574  16.703  23.768  0.1961  0.0792 -0.0751
41172W        W42036   4.814  18.183  21.773 -0.0634  0.0005 -0.2197
41173W        W42037   7.846  18.665  23.649 -0.2194  0.0679  0.0948
41174W        W42038   4.231  18.202  20.683  0.1792 -0.0456  0.0967
41175W        W42039   4.623  14.804  22.428  0.0820  0.0330 -0.2445
41176W        W42040   5.035  16.491  21.074 -0.3218 -0.0353  0.0484
41177W        W42041   7.870  20.245  25.928  0.0064 -0.4715 -0.0465
41178W        W42042   6.369  16.913  23.838  0.0937 -0.2957  0.1304
41179W        W42043   4.560  12.958  19.761  0.1047 -0.3655  0.2724
41180W        W42044   5.208  17.822  23.870 -0.1011 -0.0517  0.0762
41181W        W42045   4.417  16.404  24.953 -0.4633  0.1474 -0.2794
41182W        W42046   4.910  20.969  23.462 -0.0982 -0.0383  0.1003
41183W        W42047   3.891  19.196  19.523  0.0965 -0.1952 -0.0364
41184W        W42048   5.584  17.583  27.041  0.4204 -0.0292 -0.1811
41185W        W42049   3.564  15.517  22.529  0.0657  0.0180 -0.1011
41186W        W42050   6.029  16.584  23.059 -0.0412 -0.0203  0.1933
41187W        W42051   4.739  15.236  20.716  0.0547  0.1498  0.0401
41188W        W42052   6.254  15.914  20.751  0.2303  0.2003 -0.0244
41189W        W42053   5.010  15.207  21.103  0.0231 -0.2598 -0.1428
41190W        W42054   4.440  13.142  21.804  0.0372  0.1156  0.0208
41191W        W42055   6.599  15.217  23.413 -0.1661  0.0207 -0.1734
41192W        W42056   5.998  17.529  21.909 -0.0743  0.0832 -0.0338
41193W        W42057   7.074  16.010  23.208 -0.3641 -0.2208 -0.2475
41194W        W42058   6.200  14.650  22.050  0.2208  0.1103 -0.1418
41195W        W42059   3.581  16.367  24.834 -0.0053 -0.0750  0.4760
41196W        W42060   5.578  15.382  25.314  0.1966  0.3800  0.2291
41197W        W42061   2.925  14.473  18.709 -0.1061  0.1192  0.2618
41198W        W42062   4.357  17.673  22.806  0.0041 -0.2441 -0.0508
41199W        W42063   8.856  15.727  26.013 -0.0981 -0.2767 -0.0296
41200W        W42064   7.753  17.913  22.661  0.0593  0.2631 -0.1831
41201W        W42065   2.855  17.496  22.895 -0.1176  0.0641 -0.1776
41202W        W42066   5.043  16.978  25.890 -0.4425  0.0798  0.1702
41203W        W42067   4.147  15.116  26.231  0.2210  0.2085 -0.2261
41204W        W42068   3.405  15.914  25.854  0.3218 -0.3962  0.1435
41205W        W42069   7.473  15.521  24.445 -0.2595  0.4104 -0.1361
41206W        W42070   9.799  17.862  23.464  0.2271 -0.2259  0.1431
41207W        W42071   8.386  17.449  23.219  0.0479 -0.1078  0.2661
41208W        W42072   6.573  17.531  25.073  0.0801 -0.1031 -0.0178
41209W        W42073   7.412  19.353  20.147 -0.0757 -0.2317 -0.1424
41210W        W42074   3.030  15.769  22.547  0.0978 -0.0431  0.0395
41211W        W42075   5.591  19.020  26.358  0.1910  0.1378 -0.2610
41212W        W42076   8.100  12.469  24.910  0.3295  0.1809 -0.3622
41213W        W42077   6.405  14.246  24.268 -0.0743  0.0287 -0.3774
41214W        W42078   5.479  19.483  25.915  0.2000  0.1231 -0.0215
41215W        W42079   7.852  13.329  21.072 -0.3249  0.1060 -0.0564
41216W        W42080   6.418  19.395  22.102 -0.0845  0.0121 -0.1818
41217W        W42081   4.904  14.776  24.380 -0.2256  0.2105 -0.2263
41218W        W42082   7.681  18.239  27.190  0.0911  0.2671 -0.0582
41219W        W42083   6.957  13.635  23.551  0.4197  0.0002  0.0569
41220W        W42084   5.897  19.448  24.314 -0.1105  0.3031 -0.2788
41221W        W42085   6.669  17.054  23.475 -0.4536 -0.0021  0.0746
41222W        W42086   3.068  16.262  25.057  0.0266  0.3516  0.0429
41223W        W42087   4.537  18.336  24.302  0.1882  0.1987  0.1424
41224W        W42088   4.858  16.865  21.611 -0.3643 -0.1658  0.1648
41225W        W42089   2.474  18.992  22.733  0.1239 -0.4094  0.0271
41226W        W42090   5.707  15.816  24.960  0.1118 -0.1680  0.0683
41227W        W42091   6.246  17.271  21.513  0.2827  0.0055  0.0759
41228W        W42092  10.711  16.277  21.583  0.2884  0.0242  0.2366
41229W        W42093   6.130  14.735  26.134  0.0651 -0.0579 -0.4547
41230W        W42094   6.308  17.300  23.197  0.2270  0.1386 -0.2079
41231W        W42095   8.227  16.876  23.096 -0.0711 -0.0391  0.2756
41232W        W42096   9.088  17.316  22.035  0.1385  0.3495 -0.0739
41233W        W42097   3.893  18.346  28.743  0.0392  0.0121  0.4907
41234W        W42098   5.345  16.038  24.734  0.0954  0.1748 -0.0873
41235W        W42099   4.671  15.452  24.828 -0.0872 -0.1288  0.1159
41236W        W42100   4.528  17.155  22.472 -0.0563  0.3271  0.1881
41237W        W42101   3.554  18.651  21.790 -0.0394 -0.0703  0.2402
41238W        W42102   8.280  17.005  20.142  0.3950 -0.0946 -0.2099
41239W        W42103   3.083  17.582  25.078  0.1578  0.0557  0.1111
41240W        W42104   4.941  18.294  19.545 -0.0142  0.1349  0.2215
41241W        W42105   4.868  16.019  23.020 -0.1823  0.0617  0.0373
41242W        W42106   6.606  18.251  19.059 -0.0246 -0.0489 -0.1807
41243W        W42107   5.644  16.195  23.190  0.0146  0.1484 -0.2102
41244W        W42108   7.177  17.986  25.636  0.0601  0.1505  0.0569
41245W        W42109   5.765  16.978  24.602 -0.1573  0.0483  0.1302
41246W        W42110   6.398  15.110  22.192  0.2126 -0.0032 -0.3281
41247W        W42111   7.157  17.968  23.440  0.0388  0.1581  0.2325
41248W        W42112   4.780  15.581  21.317  0.0248  0.1991  0.2269
41249W        W42113   7.081  16.918  25.420  0.3176 -0.1906 -0.0755
41250W        W42114   9.476  16.342  25.606  0.1097  0.0377 -0.1582
41251W        W42115   5.576  19.196  21.306  0.3584 -0.0362 -0.1095
41252W        W42116   6.419  16.415  24.919 -0.3269 -0.1184  0.1230
41253W        W42117   7.410  15.816  25.475  0.1993 -0.2017  0.0272
41254W        W42118   5.923  18.818  24.042  0.2408 -0.0307 -0.1193
41255W        W42119   4.241  16.173  22.757 -0.0734 -0.2996  0.1799
41256W        W42120   5.980  17.078  22.919 -0.0611  0.0897 -0.1549
41257W        W42121   3.798  21.232  24.873  0.1044 -0.1832 -0.1732
41258W        W42122   6.012  18.006  20.986 -0.2548 -0.1064  0.4183
41259W        W42123   8.634  18.278  24.121  0.0702 -0.2366 -0.1057
41260W        W42124   3.185  15.170  24.607 -0.4707 -0.2511  0.0285
41261W        W42125   9.122  15.661  21.828 -0.2190  0.0500 -0.0688
41262W        W42126   5.012  16.390  21.589  0.2170  0.1911  0.5824
41263W        W42127   8.192  18.088  25.289 -0.2675 -0.3900 -0.3850
41264W        W42128   5.722  16.607  22.180 -0.0799  0.1015 -0.3779
41265W        W42129   0.533  15.890  25.071  0.1008  0.0557  0.0271
41266W        W42130   6.345  15.862  21.780  0.1375  0.2081  0.1404
41267W        W42131   7.550  14.474  25.806 -0.2946 -0.3241 -0.0779
41268W        W42132   4.308  15.546  21.119  0.1891 -0.3361 -0.1367
41269W        W42133   6.940  17.729  22.065 -0.0716  0.1234  0.5180
41270W        W42134   6.229  13.586  19.162  0.0039 -0.0425 -0.0420
41271W        W42135   4.927  17.380  24.526 -0.0662 -0.0256  0.1472
41272W        W42136   5.577  16.500  23.792  0.0784 -0.2948  0.2797
41273W        W42137   3.258  13.366  20.376  0.2388 -0.2263 -0.1937
41274W        W42138   6.840  15.748  21.960  0.0439  0.0050 -0.0793
41275W        W42139   4.496  19.047  27.122  0.1576  0.0328  0.0010
41276W        W42140   7.276  17.046  20.395  0.2117 -0.1281  0.1335
41277W        W42141   3.417  16.291  23.855  0.0054 -0.1576  0.0781
41278W        W42142   6.379  19.774  25.615 -0.0697  0.2030 -0.2318
41279W        W42143   3.109  17.159  22.656 -0.1138  0.2246 -0.0564
41280W        W42144   7.562  16.290  24.143  0.3089 -0.2758  0.1820
41281W        W42145   9.912  17.001  24.677 -0.1732 -0.0777  0.0467
41282W        W42146   6.683  16.506  25.356 -0.3007 -0.0105 -0.2448
41283W        W42147   5.347  16.694  21.834 -0.1887 -0.1598 -0.0767
41284W        W42148   5.609  18.524  25.424 -0.0604  0.3121 -0.1449
41285W        W42149   3.561  16.599  21.862  0.0424 -0.2326  0.1721
41286W        W42150   4.181  15.523  22.767  0.2084 -0.1590  0.0542
41287W        W42151   6.619  18.764  24.644  0.4104  0.2432  0.0396
41288W        W42152   4.419  15.187  25.840  0.0466  0.0439  0.1340
41289W        W42153   6.125  19.294  25.864 -0.0761 -0.0171  0.1295
41290W        W42154   5.169  14.021  20.079 -0.2253  0.1303 -0.1732
41291W        W42155   3.936  18.891  22.867  0.0848  0.1797 -0.4076
41292W        W42156   5.076  18.851  21.124  0.2726 -0.0626  0.1670
41293W        W42157   3.672  15.292  25.890  0.1322 -0.2445 -0.3091
41294W        W42158   6.444  19.075  27.082 -0.0103 -0.0638 -0.0448
41295W        W42159   6.471  15.078  20.269 -0.1302  0.0169 -0.0355
41296W        W42160   5.541  19.644  19.959 -0.2988  0.2069 -0.2474
41297W        W42161   5.266  18.986  24.638 -0.2225 -0.3750 -0.1614
41298W        W42162   6.024  16.539  24.473  0.1526 -0.0796  0.2257
41299W        W42163   6.977  13.722  24.571  0.0653 -0.0648  0.0999
41300W        W42164   7.662  15.745  24.980 -0.3061  0.2745  0.3555
41301W        W42165   3.630  18.022  22.987  0.3912 -0.2400  0.1902
41302W        W42166   6.005  15.114  21.891  0.0578 -0.0113 -0.0261
41303W        W42167   5.759  20.334  28.813 -0.0592 -0.2127  0.1580
41304W        W42168   7.116  15.565  22.409  0.2060  0.0634 -0.1528
41305W        W42169   6.275  17.585  24.548 -0.3650 -0.2274  0.1827
41306W        W42170   3.592  18.909  27.011  0.1299 -0.1785 -0.1575
41307W        W42171   5.422  18.701  28.138  0.0490  0.1525 -0.3606
41308W        W42172   6.562  16.183  22.181 -0.0589  0.0785  0.0640
41309W        W42173   6.276  16.025  23.934  0.0946 -0.0333  0.1937
41310W        W42174   5.444  19.382  23.392  0.3169 -0.0357 -0.0590
41311W        W42175   4.896  16.690  22.173 -0.3340  0.1345 -0.0181
41312W        W42176   6.788  15.914  22.667  0.0865  0.1827 -0.1347
41313W        W42177   7.936  18.800  21.330 -0.0991 -0.1846  0.1427
41314W        W42178   3.549  17.617  25.247 -0.2097  0.0982 -0.1106
41315W        W42179   7.547  17.608  26.023  0.0477  0.1766 -0.0543
41316W        W42180   6.014  17.269  23.737 -0.0754  0.1382  0.0051
41317W        W42181   4.542  17.638  26.886 -0.3070  0.0602  0.1392
41318W        W42182   6.866  15.252  22.037  0.2767 -0.1730 -0.1308
41319W        W42183   2.116  16.844  19.952  0.1519 -0.3111  0.1249
41320W        W42184   7.372  16.673  20.744  0.1845 -0.1252 -0.0531
41321W        W42185   3.311  15.730  22.977 -0.0158 -0.0264  0.0113
41322W        W42186   7.173  14.867  26.441 -0.2914  0.2663  0.2218
41323W        W42187   6.710  16.448  23.924 -0.2028  0.1429  0.1680
41324W        W42188   4.459  18.195  26.757  0.0850 -0.1047  0.1415
41325W        W42189   4.790  17.101  24.897  0.6524 -0.3351 -0.0830
41326W        W42190   7.701  19.373  25.414  0.2207 -0.1816 -0.1378
41327W        W42191   5.917  18.747  26.603  0.0751 -0.1260  0.1208
41328W        W42192   4.275  19.391  22.788 -0.2929  0.1139 -0.0088
41329W        W42193   7.493  17.549  24.900 -0.0500  0.2070  0.1728
41330W        W42194   7.121  16.103  22.280 -0.0560  0.1422 -0.1162
41331W        W42195   6.029  14.427  22.936  0.0160 -0.0713  0.0050
41332W        W42196   3.164  17.856  23.144 -0.0458 -0.1589 -0.3820
41333W        W42197   3.504  15.326  23.470 -0.2852  0.0432  0.0018
41334W        W42198   4.797  15.833  23.502  0.2552  0.0338 -0.2696
41335W        W42199   5.482  17.538  21.728  0.3127  0.1677 -0.0250
41336W        W42200   7.928  18.105  26.800  0.0882  0.2712  0.0045
41337W        W42201   2.058  15.572  24.119 -0.0397 -0.0596  0.2505
41338W        W42202   2.698  16.387  21.909  0.2929 -0.0429  0.1381
41339W        W42203  28.479  14.362  23.729  0.3053 -0.0309 -0.0783
41340W        W42204   5.807  17.629  25.253  0.1724 -0.0096  0.1235
41341W        W42205   3.544  15.142  21.100  0.0541 -0.1420 -0.0967
41342W        W42206   6.072  15.647  24.580  0.2690 -0.2119 -0.0717
41343W        W42207   7.515  15.723  18.208  0.0736  0.0925 -0.1441
41344W        W42208   6.062  18.791  24.627  0.2722  0.0074 -0.0966
41345W        W42209   6.709  16.955  25.081  0.0739  0.0110 -0.3077
41346W        W42210   7.547  20.481  22.783 -0.0520 -0.0241  0.3195
41347W        W42211   7.113  14.963  20.734  0.1658 -0.0153 -0.0318
41348W        W42212   1.956  17.138  23.693 -0.0141 -0.1668 -0.1008
41349W        W42213   8.443  14.663  28.999  0.0510 -0.3268 -0.2781
41350W        W42214   5.766  16.897  23.951 -0.1905  0.0164 -0.3067
41351W        W42215   5.858  16.149  22.719  0.1646  0.0183  0.0912
41352W        W42216   3.152  16.711  24.802 -0.0049  0.1366  0.0470
41353W        W42217   7.698  17.125  26.344  0.0696 -0.1083 -0.0289
41354W        W42218   5.162  18.067  27.374  0.0508 -0.1908  0.0350
41355W        W42219   7.442  15.233  20.001 -0.0445 -0.2711  0.0199
41356W        W42220   5.878  18.630  23.193 -0.1829 -0.2030 -0.2398
41357W        W42221   9.045  16.471  25.486 -0.1664  0.0887  0.2773
41358W        W42222   8.300  17.707  24.842  0.0079  0.1773 -0.1179
41359W        W42223   6.242  18.563  21.951 -0.1386 -0.0734  0.1793
41360W        W42224   5.233  15.121  20.673  0.0552  0.0104 -0.0171
41361W        W42225   6.510  16.843  23.078  0.2930  0.0702  0.1023
41362W        W42226   2.924  18.955  23.926  0.0532  0.0509  0.0403
41363W        W42227   9.332  16.115  21.841 -0.0206 -0.0359 -0.2222
41364W        W42228   5.945  18.607  20.474 -0.2515 -0.3573  0.0803
41365W        W42229   6.439  15.947  25.618 -0.0225 -0.0415 -0.2125
41366W        W42230   5.191  18.879  22.987 -0.1734  0.1734 -0.0650
41367W        W42231   6.757  14.112  24.784  0.2193  0.0153 -0.1236
41368W        W42232   4.795  17.150  22.056  0.0213 -0.2236  0.1435
41369W        W42233   7.063  17.438  25.787  0.0985 -0.0243 -0.1326
41370W        W42234   7.397  13.390  23.953 -0.1191  0.1109  0.1213
41371W        W42235   1.691  15.612  24.884 -0.1526  0.0990 -0.0269
41372W        W42236   3.587  16.562  23.441  0.3804  0.0272 -0.1143
41373W        W42237   4.925  16.548  25.006 -0.2500 -0.4219 -0.3260
41374W        W42238   2.224  16.002  22.169 -0.1155 -0.0133 -0.2366
41375W        W42239   7.402  18.222  27.591  0.2086  0.1941  0.1874
41376W        W42240   6.131  16.908  22.507  0.2858  0.5711  0.0751
41377W        W42241   5.852  17.097  22.121  0.2771  0.1814  0.1787
41378W        W42242   5.925  18.115  23.089  0.1574 -0.1635  0.0374
41379W        W42243   4.262  20.493  24.885 -0.0970 -0.0236 -0.1478
41380W        W42244   6.588  15.585  22.320 -0.2365 -0.1348  0.2066
41381W        W42245   6.585  15.718  24.664  0.0879 -0.2228 -0.2330
41382W        W42246   9.215  15.059  24.435  0.0043  0.2689  0.1348
41383W        W42247   7.681  15.836  23.985 -0.2613  0.3838 -0.2490
41384W        W42248   5.367  18.109  24.570  0.1670  0.1718 -0.4162
41385W        W42249   8.798  20.353  23.702  0.0374 -0.0705 -0.2976
41386W        W42250   6.210  18.549  26.233  0.0106  0.3289 -0.2508
41387W        W42251   8.040  17.331  24.018  0.1832  0.1022 -0.1843
41388W        W42252   7.087  20.465  21.652 -0.2002  0.0427  0.2536
41389W        W42253   4.840  22.400  26.048 -0.4287 -0.0111  0.3182
41390W        W42254   6.609  17.364  23.833  0.0387 -0.1484 -0.3010
41391W        W42255   3.844  18.274  22.212  0.1598  0.1444  0.1359
41392W        W42256   3.201  20.988  27.955  0.0405 -0.0194  0.1137
41393W        W42257   5.882  18.828   0.182 -0.0941 -0.0851  0.2220
41394W        W42258   8.917  16.678  27.455  0.0349 -0.0123 -0.2466
41395W        W42259   7.973  18.109  27.974 -0.1917 -0.1829  0.1396
41396W        W42260   1.961  17.235  26.490  0.3041 -0.0360 -0.3943
41397W        W42261   4.425  16.230  25.462 -0.4525 -0.1699  0.1752
41398W        W42262   5.467  15.716  26.476 -0.2727  0.1001  0.0702
41399W        W42263   3.317  15.468   0.162 -0.2973  0.1132  0.0995
41400W        W42264   5.667  21.094  28.951 -0.1659  0.0796  0.0833
41401W        W42265   4.015  16.171   1.276 -0.0717  0.1330 -0.0679
41402W        W42266   5.204  13.286   2.822  0.1739 -0.2368 -0.2101
41403W        W42267   6.222  15.918  25.003 -0.1730  0.0055  0.0712
41404W        W42268   6.208  15.317  26.076  0.0183  0.0965  0.2165
41405W        W42269   8.200  13.603  26.546 -0.2219 -0.2485 -0.0372
41406W        W42270   5.217  14.953   0.007  0.1548  0.0151 -0.0487
41407W        W42271   4.420  14.542  27.655 -0.1879 -0.1369  0.1705
41408W        W42272   6.199  16.633   0.490  0.2701 -0.2648 -0.2628
41409W        W42273   5.880  14.945  27.294  0.2736 -0.1106 -0.0798
41410W        W42274   5.410  16.949  28.776  0.1597 -0.2727  0.0289
41411W        W42275   8.807  15.412  26.487 -0.1350 -0.2069  0.2935
41412W        W42276   8.629  14.736   1.253 -0.1827  0.0038  0.0557
41413W        W42277   7.692  17.036  28.463  0.3594 -0.1870 -0.0611
41414W        W42278   8.129  19.149  26.462  0.0994  0.1453 -0.2569
41415W        W42279   5.782  14.714  27.899  0.0461 -0.0586 -0.3175
41416W        W42280   5.446  16.678   0.035  0.0702  0.0920  0.2474
41417W        W42281   6.537  16.065  27.661 -0.1463 -0.0240  0.2473
41418W        W42282   9.248  15.652   0.180  0.0030  0.2541  0.1007
41419W        W42283   7.670  19.052  28.604  0.0754  0.1725 -0.3226
41420W        W42284   5.693  20.425  27.173  0.0660  0.0804  0.2650
41421W        W42285   5.910  16.011  26.447 -0.4987  0.3044 -0.1142
41422W        W42286   3.380  17.747  26.157  0.0949 -0.2213 -0.1282
41423W        W42287   9.483  19.356   0.296  0.2696  0.3776  0.2199
41424W        W42288   6.131  16.193   0.252  0.1923  0.0367  0.2082
41425W        W42289   5.971  15.413   0.458  0.0315  0.0075 -0.0363
41426W        W42290   3.245  17.078   0.076 -0.4898 -0.2671  0.1195
41427W        W42291   7.617  19.673  28.296 -0.0549 -0.0488 -0.2298
41428W        W42292   2.993  13.008  26.199  0.2716 -0.2367  0.2126
41429W        W42293   7.498  17.920  25.224 -0.2101 -0.0180  0.1415
41430W        W42294   5.331  17.172  27.905  0.0763  0.1761 -0.4053
41431W        W42295   5.887  15.212  24.415 -0.0209  0.0056  0.2097
41432W        W42296   7.745  15.647  22.736 -0.3166 -0.2305  0.1758
41433W        W42297   7.167  13.141  29.015 -0.0938 -0.0904  0.1815
41434W        W42298   5.475  18.881  23.431 -0.0773 -0.0888  0.0708
41435W        W42299   4.553  16.295  26.842  0.2857  0.1045  0.0684
41436W        W42300   6.222  18.629  27.038  0.1496 -0.0308 -0.1833
41437W        W42301   6.884  17.096  26.121 -0.1425 -0.1531  0.0240
41438W        W42302   3.644  14.898  27.619 -0.0998 -0.0331 -0.1898
41439W        W42303   9.669  14.774  28.971  0.0896  0.4472  0.0629
41440W        W42304   8.029  15.341  26.784 -0.0476  0.2047  0.0360
41441W        W42305   7.495  16.951  24.724 -0.0672  0.0849  0.0274
41442W        W42306   7.399  19.744  28.751  0.1217  0.0391  0.3550
41443W        W42307   4.303  15.365  27.851  0.4465  0.0673 -0.4357
41444W        W42308   7.336  14.246  27.878  0.2587 -0.1064 -0.1414
41445W        W42309   6.177  16.615  25.846 -0.3205 -0.0398 -0.0226
41446W        W42310   7.310  15.779  26.764 -0.0292  0.2182 -0.0528
41447W        W42311   4.332  14.724  27.139  0.1956 -0.0179  0.0740
41448W        W42312   2.568  12.327  26.725  0.0221 -0.2588 -0.4918
41449W        W42313   5.868  16.862  27.274 -0.0186  0.0117  0.0064
41450W        W42314   3.007  16.040  27.018  0.2330 -0.1875  0.0135
41451W        W42315   6.803  15.710  26.811 -0.0829 -0.2033 -0.0755
41452W        W42316   8.752  15.665  25.081  0.1143 -0.4122 -0.2011
41453W        W42317   6.143  18.810   0.812  0.1799  0.1431  0.3267
41454W        W42318   6.331  15.769  28.315  0.0846 -0.0552  0.1879
41455W        W42319   5.741  15.899  25.476 -0.0829  0.1292  0.0638
41456W        W42320   4.949  15.351  27.145 -0.4540  0.1187  0.1007
41457W        W42321   6.541  15.287  28.130 -0.3156 -0.0802  0.0685
41458W        W42322   3.556  17.273  23.951  0.2850  0.1951  0.1041
41459W        W42323   2.291  14.645  24.511  0.2468  0.1195  0.1310
41460W        W42324   6.068  18.193  25.952 -0.2781  0.1414 -0.0137
41461W        W42325   6.010  17.934  27.073  0.1548  0.2847 -0.0800
41462W        W42326   7.622  19.665   0.991 -0.0219  0.0636 -0.0093
41463W        W42327   6.274  16.166  26.154  0.1615 -0.0930 -0.1305
41464W        W42328   9.296  17.904  28.925 -0.2337  0.2370  0.0564
41465W        W42329   6.208  14.841  28.094  0.0379 -0.0973 -0.1418
41466W        W42330   6.191  16.279  25.356 -0.1325  0.1413  0.1078
41467W        W42331   4.371  16.523   0.527  0.0298  0.0379 -0.0017
41468W        W42332   5.537  16.918  26.268  0.3031 -0.0630 -0.1161
41469W        W42333   6.842  16.803  29.107  0.3238 -0.1928 -0.2357
41470W        W42334   6.551  18.315  25.809 -0.1047  0.1995  0.0359
41471W        W42335   3.994  17.835  25.445 -0.0638  0.3273 -0.2289
41472W        W42336   5.056  16.181  26.636  0.1260  0.0075  0.0997
41473W        W42337   6.178  17.238  27.924  0.2502  0.2519 -0.1831
41474W        W42338   3.072  13.582  26.157  0.2985  0.0891  0.2691
41475W        W42339   7.444  13.715  24.791  0.0015 -0.2077 -0.2655
41476W        W42340   5.399  17.371  26.114  0.0185  0.0041 -0.0237
41477W        W42341   6.932  15.698  25.317 -0.4255 -0.1482 -0.1363
41478W        W42342   8.647  19.886   0.334  0.0256  0.0239  0.1196
41479W        W42343   5.378  15.036  27.155 -0.1855 -0.1122  0.1170
41480W        W42344   7.295  15.677   0.592  0.1254 -0.0471  0.4235
41481W        W42345   9.242  13.098  28.372 -0.1074  0.0290  0.0395
41482W        W42346   6.978  18.539  27.535  0.1566  0.1756  0.0471
41483W        W42347   6.249  14.784  27.595 -0.2470 -0.0503 -0.1103
41484W        W42348   7.561  18.350  28.058  0.0905  0.1319 -0.1051
41485W        W42349   4.110  17.351  25.650 -0.2576 -0.2395  0.1078
41486W        W42350   6.606  17.350  28.990  0.0157 -0.2946 -0.1789
41487W        W42351   9.970  14.158  28.422 -0.2807  0.1566 -0.0642
41488W        W42352   9.089  18.039  24.128  0.0308  0.1588  0.1641
41489W        W42353   4.876  16.276  28.506  0.0741  0.1655  0.0382
41490W        W42354   7.555  13.709  27.775 -0.0056 -0.1649 -0.1870
41491W        W42355   9.301  13.286  27.020 -0.1308 -0.0014 -0.1610
41492W        W42356   9.095  18.841  28.835 -0.0599 -0.1839 -0.2192
41493W        W42357   3.063  16.279  25.591  0.0641 -0.0096  0.0795
41494W        W42358   7.259  16.093  25.018  0.1167 -0.2243 -0.0030
41495W        W42359   8.056  18.433  28.355 -0.2512  0.0092  0.0074
41496W        W42360   9.121  13.693  26.300 -0.3205  0.2063  0.0668
41497W        W42361   6.819  16.102  28.241  0.1022  0.2140  0.1073
41498W        W42362   6.959  18.204  24.346 -0.1890  0.0347  0.2125
41499W        W42363   7.517  15.215  28.946  0.0772  0.0737 -0.1145
41500W        W42364   6.338  14.114  27.012  0.1346 -0.1184  0.0131
41501W        W42365   3.694  14.233  24.211 -0.2822  0.2693  0.2828
41502W        W42366   6.777  17.883  27.647 -0.1972  0.2984 -0.2013
41503W        W42367   5.876  18.605  27.781 -0.0169  0.0069 -0.3392
41504W        W42368   4.376  15.969   0.368 -0.1723  0.2842  0.1536
41505W        W42369   6.438  17.771  28.757 -0.0509 -0.1091  0.0093
41506W        W42370  10.671  18.955  23.760 -0.1420 -0.1356  0.3399
41507W        W42371   5.181  13.932  26.702  0.0009  0.1330  0.0043
41508W        W42372   9.290  15.501  26.316  0.3352  0.2288  0.1418
41509W        W42373   7.711  19.428  28.958  0.1143  0.1728  0.0361
41510W        W42374   7.431  17.778  27.099  0.0400 -0.0592  0.0447
41511W        W42375   6.386  15.940  26.649 -0.3968  0.0454 -0.2291
41512W        W42376   8.960  17.040  25.793 -0.3049 -0.3156  0.3795
41513W        W42377   5.783  19.123  27.856 -0.0684  0.1105 -0.0118
41514W        W42378   6.285  16.882  25.484 -0.0339 -0.0918  0.1962
41515W        W42379   5.454  18.556  27.368 -0.2214 -0.1732  0.0189
41516W        W42380   5.413  16.495  27.048  0.0500 -0.1677 -0.1475
41517W        W42381   6.959  16.640  23.514 -0.0068 -0.0534 -0.0390
41518W        W42382   4.350  15.766  26.910 -0.4672  0.3801 -0.0839
41519W        W42383   6.868  17.634  28.607 -0.4496  0.1538 -0.1003
41520W        W42384   6.280  18.943  28.010  0.2027  0.0114  0.1841
41521W        W42385   6.901  19.652  28.323  0.0555  0.2826 -0.1091
41522W        W42386   6.821  17.900  29.057  0.5247  0.1834 -0.1046
41523W        W42387   9.392  15.929  25.196  0.0854 -0.0484  0.0591
41524W        W42388   7.739  16.893  29.003  0.2875  0.1012 -0.0223
41525W        W42389   8.551  12.585  25.129  0.0971  0.0155 -0.0399
41526W        W42390   5.921  14.721  26.818 -0.1529 -0.0286  0.1628
41527W        W42391   6.400  14.640  27.058  0.1145  0.2556  0.0446
41528W        W42392   7.798  19.521  26.533  0.2326  0.1688 -0.0166
41529W        W42393   6.311  16.142  28.879 -0.0159 -0.1065  0.0999
41530W        W42394   7.227  17.643  27.512 -0.0134  0.0984 -0.2940
41531W        W42395   4.632  18.147  28.249  0.4568  0.3390 -0.0926
41532W        W42396   2.109  15.805  23.625 -0.1086  0.1860 -0.1197
41533W        W42397   7.596  17.402  28.886 -0.0010  0.0052  0.1231
41534W        W42398   3.800  18.121  25.080  0.2414  0.1244  0.0560
41535W        W42399   5.882  16.995  25.879 -0.2312  0.1513 -0.0490
41536W        W42400   6.094  18.545  28.854 -0.0063  0.0438 -0.2629
41537W        W42401   4.975  16.487  25.582 -0.4088  0.0656 -0.0657
41538W        W42402   7.957  15.264  26.199 -0.2100 -0.3657 -0.2370
41539W        W42403   4.048  19.777  26.805  0.1188 -0.0181 -0.3299
41540W        W42404   5.389  19.907   0.785  0.3409  0.0579 -0.3234
41541W        W42405   4.909  17.896  25.388  0.2786 -0.2328 -0.1456
41542W        W42406   6.358  17.046  27.485 -0.1996  0.1314  0.3287
41543W        W42407   2.714  11.890  26.659  0.0479 -0.2001  0.3323
41544W        W42408   4.080  18.316  27.529 -0.0086  0.0362  0.2307
41545W        W42409   4.449  17.153  24.546 -0.1155  0.0446 -0.0465
41546W        W42410   6.628  16.585  27.412 -0.0229  0.1791 -0.1030
41547W        W42411   7.276  15.724  28.226  0.1200 -0.1561  0.1654
41548W        W42412   5.092  15.439  28.360 -0.2133  0.0606 -0.4596
41549W        W42413   5.067  15.872  27.027  0.0336  0.0612 -0.0937
41550W        W42414   4.533  15.141  27.367 -0.0101  0.1941 -0.1773
41551W        W42415   5.399  18.223  27.803  0.1979  0.0828  0.1844
41552W        W42416   5.991  15.301  28.986  0.1917 -0.1224 -0.0430
41553W        W42417   5.995  19.902  29.006  0.5254  0.0943  0.1222
41554W        W42418   5.284  17.345  28.401  0.0208  0.1040 -0.3974
41555W        W42419   7.229  17.356  26.962 -0.2567  0.0502  0.1331
41556W        W42420   7.608  13.796  28.504 -0.0257  0.3110  0.0714
41557W        W42421   5.408  12.991  25.967 -0.1534  0.0537 -0.1220
41558W        W42422   4.113  17.502  27.341  0.2663  0.0378 -0.0407
41559W        W42423   4.129  16.734  24.688  0.0285  0.1461 -0.2385
41560W        W42424   6.298  16.897  28.324 -0.3264  0.1967 -0.1469
41561W        W42425   3.574  16.114  23.197 -0.0957 -0.2679  0.1779
41562W        W42426   6.852  18.453   0.231  0.0045 -0.0229  0.1281
41563W        W42427   5.558  17.294  27.470 -0.2421 -0.2127 -0.3245
41564W        W42428   6.626  18.786   0.705  0.0525 -0.0110  0.2547
41565W        W42429   3.666  16.882  24.792  0.0659  0.1326  0.2215
41566W        W42430   7.862  15.302   0.349  0.1909  0.0299 -0.0371
41567W        W42431  10.874  17.811  27.198 -0.1015  0.1704  0.2985
41568W        W42432   3.752  17.911   3.084  0.3389  0.1098 -0.2690
41569W        W42433   6.412  17.351  27.040  0.3946  0.0051  0.1392
41570W        W42434   2.800  17.552  27.443  0.1852  0.1312 -0.1836
41571W        W42435   8.191  17.705  26.518 -0.1472 -0.0811 -0.2871
41572W        W42436   4.884  16.725  27.014 -0.1901  0.0197  0.1286
41573W        W42437   8.865  18.837  24.145 -0.1007  0.2650 -0.0715
41574W        W42438   6.319  16.453  26.685  0.2109 -0.0918  0.4796
41575W        W42439   1.532  15.940  25.334 -0.0404 -0.2655 -0.2679
41576W        W42440   5.201  17.626  26.513  0.1113 -0.2986 -0.1682
41577W        W42441   7.544  15.786   1.048 -0.0080 -0.1324 -0.2936
41578W        W42442   5.214  13.568  28.787 -0.0246  0.3404 -0.2442
41579W        W42443   3.244  13.663  26.663  0.4567 -0.0209  0.2204
41580W        W42444   8.743  19.739  28.867  0.1341 -0.0769  0.2137
41581W        W42445   4.527  15.327  26.898 -0.0683  0.2200 -0.0353
41582W        W42446   5.957  15.821  26.931 -0.3398 -0.0852  0.0529
41583W        W42447   4.965  18.347  24.990 -0.2720 -0.1810 -0.4018
41584W        W42448   5.809  17.649   1.789  0.0021  0.0433 -0.3710
41585W        W42449   4.375  14.107  28.606  0.0899 -0.1208 -0.1879
41586W        W42450   7.350  13.902  26.418 -0.1127 -0.2948 -0.1635
41587W        W42451   7.540  14.394  26.395 -0.1490 -0.0348  0.1544
41588W        W42452   7.422  17.193  27.404  0.0651  0.1964  0.2481
41589W        W42453   4.801  16.820   0.475  0.1562  0.0284  0.2193
41590W        W42454   3.038  18.287  28.414 -0.3130  0.2395 -0.0046
41591W        W42455   6.768  16.274  25.860 -0.2972 -0.2948 -0.0458
41592W        W42456   5.321  15.061  23.671 -0.1004  0.0386 -0.3184
41593W        W42457   7.242  12.842  27.427 -0.2141 -0.0444 -0.0469
41594W        W42458   9.046  16.440  24.440 -0.0818 -0.1351 -0.2149
41595W        W42459   5.123  14.639  23.836  0.1305 -0.3634 -0.2586
41596W        W42460   8.274  14.494  27.237 -0.1410 -0.0926  0.0836
41597W        W42461   3.474  16.781  23.887 -0.0927  0.2335 -0.1367
41598W        W42462   5.047  18.575  29.058  0.0198  0.0979 -0.1044
41599W        W42463   8.369  15.127  26.443 -0.2196 -0.1614 -0.1665
41600W        W42464   6.801  19.630  26.426  0.2303  0.0845 -0.2259
41601W        W42465   3.042  16.607  24.051  0.1650  0.0416 -0.2519
41602W        W42466   5.595  17.741   0.021 -0.1124 -0.2657 -0.0352
41603W        W42467   3.439  18.148  28.731  0.2131 -0.0572 -0.0135
41604W        W42468   6.611  16.433   0.161  0.2393  0.2776  0.1022
41605W        W42469   6.441  15.012   1.158  0.0619  0.0044 -0.1195
41606W        W42470  11.912  17.298  26.563  0.0051 -0.2393 -0.0563
41607W        W42471   7.020  19.081  24.457 -0.0911  0.1002  0.0779
41608W        W42472   4.620  17.898  26.330 -0.1940  0.0403  0.1054
41609W        W42473   5.493  18.426  26.004 -0.0065  0.0342  0.0436
41610W        W42474   8.354  15.075   3.449 -0.0702 -0.0920  0.0109
41611W        W42475   6.162  14.436   0.190  0.1460 -0.1824 -0.0884
41612W        W42476   6.601  18.244  26.397 -0.0001  0.0249 -0.0816
41613W        W42477   8.189  16.907  29.138 -0.0836  0.0483 -0.0059
41614W        W42478   5.977  19.613   0.242  0.0936 -0.3589 -0.1729
41615W        W42479   5.010  15.116  24.856 -0.1138  0.2638 -0.0715
41616W        W42480   7.468  16.664  27.570 -0.2352  0.0724  0.0850
41617W        W42481   4.331  16.869   1.653 -0.2556  0.1982 -0.0201
41618W        W42482   7.150  21.724  26.818  0.0488  0.1755 -0.0498
41619W        W42483   7.534  16.059  27.740 -0.1607 -0.0210 -0.1839
41620W        W42484   7.939  18.465  27.595  0.0754 -0.1146  0.1337
41621W        W42485   8.272  15.612  26.420  0.1079 -0.1934  0.0346
41622W        W42486   6.062  15.787   0.055 -0.0494 -0.2319 -0.1681
41623W        W42487   5.462  15.106   0.886  0.0629 -0.0920  0.1215
41624W        W42488   3.233  16.239  22.640 -0.0055 -0.0934 -0.0128
41625W        W42489   5.870  20.118  27.546  0.0997 -0.0196  0.2947
41626W        W42490   5.332  13.099  28.230 -0.0773 -0.2079  0.2864
41627W        W42491   6.260  15.114  27.053 -0.2465 -0.1260 -0.2822
41628W        W42492   7.235  15.371  25.940  0.0672  0.3111 -0.1034
41629W        W42493   7.941  15.817  27.584  0.0869 -0.0213 -0.1419
41630W        W42494   7.102  19.930  26.055  0.2197  0.2844 -0.1425
41631W        W42495   8.466  18.948  25.436  0.0772 -0.3388  0.1077
41632W        W42496   6.761  16.606  26.885 -0.1187 -0.2522  0.1062
41633W        W42497   4.557  12.126   3.368  0.1572  0.2996  0.0223
41634W        W42498   5.963  15.659  23.972  0.0461  0.0107 -0.0435
41635W        W42499   4.041  12.209  25.914 -0.0221 -0.1839  0.0248
41636W        W42500   6.771  15.269   0.818 -0.0798  0.2694  0.0677
41637W        W42501   6.654  16.044  25.135  0.0721  0.0358 -0.3038
41638W        W42502   8.058  17.261  28.664 -0.2359 -0.0201 -0.2776
41639W        W42503   5.481  17.203   0.135 -0.0118  0.0331  0.1308
41640W        W42504   8.614  19.267  26.427 -0.0419 -0.1807  0.0234
41641W        W42505   4.323  18.189  22.418  0.1488 -0.0113  0.0546
41642W        W42506   5.875  17.194  28.309 -0.1998 -0.1262  0.0332
41643W        W42507   5.280  20.152  29.037 -0.0021 -0.0057 -0.1767
41644W        W42508   9.361  18.146   1.037 -0.0549  0.0498  0.2730
41645W        W42509   8.649  18.868   0.120 -0.1990 -0.0356 -0.2106
41646W        W42510   3.488  14.650  23.944 -0.1591 -0.1082 -0.2824
41647W        W42511   6.401  19.331  26.687  0.4118  0.3213 -0.2947
41648W        W42512   5.528  16.034  27.255  0.0536  0.1045  0.0093
41649W        W42513   5.441  12.751  26.845 -0.0600  0.1346  0.1656
41650W        W42514   6.688  21.006  26.392  0.2719 -0.3331 -0.1852
41651W        W42515   8.242  20.268  27.288 -0.0455  0.0717 -0.0415
41652W        W42516   5.842  16.229  28.529  0.0011 -0.4678  0.3670
41653W        W42517   5.876  16.796  28.619 -0.2568  0.4454 -0.0257
41654W        W42518   6.791  19.287   0.653 -0.0214  0.0000  0.1583
41655W        W42519   5.390  14.689  26.781 -0.0806  0.3289 -0.1082
41656W        W42520   5.563  19.448  26.904  0.3613  0.0538 -0.1934
41657W        W42521   5.917  18.193   1.126 -0.0218 -0.0491 -0.3700
41658W        W42522   4.646  17.251   0.807  0.4137 -0.0638 -0.0399
41659W        W42523   7.225  17.787  24.497  0.0235 -0.4527  0.1977
41660W        W42524   7.241  15.673   1.701 -0.0607 -0.0870 -0.2158
41661W        W42525   8.074  16.238  25.460 -0.1015 -0.0364  0.2430
41662W        W42526   6.582  18.833  26.603 -0.3746  0.0529 -0.0644
41663W        W42527   6.662  17.081  27.988 -0.1369 -0.0159 -0.2589
41664W        W42528   5.944  15.512  27.337 -0.1231  0.1386  0.1144
41665W        W42529   4.840  17.278   0.183  0.0824 -0.1322 -0.0222
41666W        W42530   6.624  18.261  25.265 -0.0737 -0.0357 -0.2172
41667W        W42531   6.016  17.609  26.669 -0.0336  0.2247  0.0164
41668W        W42532   5.273  15.874  28.578 -0.1685  0.0111 -0.2802
41669W        W42533   5.808  16.321  24.945  0.2181  0.0916  0.4183
41670W        W42534   4.620  15.187  24.396  0.0784 -0.1775 -0.1062
41671W        W42535   5.028  16.819  28.535 -0.2141 -0.0475 -0.3013
41672W        W42536   6.773  15.551   0.396  0.0430 -0.0827 -0.1845
41673W        W42537   5.438  16.227  26.244  0.1472  0.0829 -0.0570
41674W        W42538   4.805  15.606  27.575 -0.0201 -0.0934  0.0540
41675W        W42539   3.339  19.051  28.986  0.0117  0.2166  0.0934
41676W        W42540   8.383  18.959  26.824 -0.2632  0.0494  0.1375
41677W        W42541   7.817  12.951  26.840  0.0293  0.2530 -0.3039
41678W        W42542   5.761  17.303  28.832 -0.0886  0.0511 -0.2010
41679W        W42543   5.941  17.461   0.861  0.0649  0.0079  0.0768
41680W        W42544   8.317  12.907  28.219  0.2087  0.3010 -0.1832
41681W        W42545   4.488  17.828  27.780  0.0995  0.0616 -0.2045
41682W        W42546   3.927  18.298  26.900  0.2627 -0.1271  0.0182
41683W        W42547   5.662  14.661  26.370  0.1588 -0.1252  0.3433
41684W        W42548   7.145  17.179  28.802  0.1156  0.1010 -0.1551
41685W        W42549   4.812  15.039  28.294 -0.0796  0.0941  0.0333
41686W        W42550   5.618  16.469  27.554 -0.0802  0.0227  0.1984
41687W        W42551   8.106  16.405  25.915 -0.1056 -0.2764 -0.0854
41688W        W42552   4.874  15.621  26.624 -0.0729 -0.2889  0.1845
41689W        W42553   8.052  18.667  26.149  0.3030 -0.1494  0.3696
41690W        W42554   8.043  15.837  25.918  0.1581 -0.2985  0.2683
41691W        W42555   4.848  15.989  28.082  0.2604 -0.0690  0.0496
41692W        W42556   3.452  20.818  25.720  0.1074 -0.0423  0.1605
41693W        W42557   7.503  18.720  27.628  0.0536  0.1487  0.3145
41694W        W42558   5.794  17.527  27.946  0.2122 -0.0931 -0.0723
41695W        W42559   8.656  16.985  28.868 -0.0077 -0.0511  0.2772
41696W        W42560   4.922  18.445  26.799 -0.0167  0.0876  0.0366
41697W        W42561   6.934  16.309  27.822 -0.0245 -0.0099  0.4404
41698W        W42562   7.842  16.633  28.154  0.0193  0.1377 -0.1979
41699W        W42563   5.793  16.948  27.780 -0.0551  0.0043 -0.3735
41700W        W42564   8.502  17.401  28.309  0.1938  0.1945 -0.0741
41701W        W42565   3.522  17.098  26.649 -0.2163  0.0719  0.1889
41702W        W42566   6.139  17.874  25.547 -0.0154 -0.0994 -0.2895
41703W        W42567   7.337  17.516  28.426  0.1088  0.0720  0.1240
41704W        W42568   6.048  13.736  28.195 -0.0755  0.0175 -0.0143
41705W        W42569   7.923  19.260  26.942  0.1645 -0.0973  0.4478
41706W        W42570   3.944  18.793  28.357  0.1396  0.0004  0.0333
41707W        W42571   6.250  18.617   1.805 -0.2719 -0.2513 -0.2622
41708W        W42572   5.411  15.218  23.164 -0.1318  0.0683  0.0288
41709W        W42573   7.221  16.002  24.457 -0.0331 -0.0528 -0.1968
41710W        W42574   4.990  17.129  27.341 -0.1315  0.1809 -0.2386
41711W        W42575   4.712  16.902  27.660 -0.1440 -0.1807  0.1600
41712W        W42576   4.204  18.905   0.236  0.0688 -0.1018 -0.2031
41713W        W42577   8.293  20.664  23.481  0.1673 -0.1576 -0.1045
41714W        W42578   5.374  16.281  28.226 -0.0838  0.0267 -0.1930
41715W        W42579   6.314  15.783   0.509  0.2045 -0.0836 -0.1086
41716W        W42580   2.651  16.292  24.098 -0.1016 -0.1130 -0.2871
41717W        W42581   4.726  20.350   0.647  0.2368 -0.1672 -0.0197
41718W        W42582   8.405  16.547  28.038  0.0509 -0.0912  0.1982
41719W        W42583   5.362  17.502  22.448  0.0631  0.1560 -0.0018
41720W        W42584   3.194  17.363  27.002  0.0400 -0.1481  0.0976
41721W        W42585   4.985  17.559  25.789 -0.0227 -0.1699 -0.0889
41722W        W42586   4.116  15.000  27.568 -0.1245  0.1853 -0.1995
41723W        W42587   7.919  15.247  24.916 -0.3368  0.0345 -0.0355
41724W        W42588   6.970  18.509  26.589  0.2108  0.2670 -0.1728
41725W        W42589   7.193  17.589   2.599 -0.4644 -0.2390 -0.0281
41726W        W42590   5.968  19.131  26.884 -0.0927  0.0006  0.0019
41727W        W42591   7.881  16.635   2.131  0.2632  0.4565  0.1868
41728W        W42592   4.311  18.503  28.535 -0.1414  0.2524  0.1407
41729W        W42593   5.757  13.577  27.461 -0.0859 -0.0669  0.0884
41730W        W42594   6.401  15.244  24.699  0.2143 -0.0681 -0.2351
41731W        W42595   6.731  12.406  25.928  0.0305  0.1094  0.0249
41732W        W42596   3.189  17.579  29.077  0.1045 -0.1301  0.2627
41733W        W42597   7.049  13.762  27.125 -0.0281  0.0609  0.0554
41734W        W42598   3.420  17.383  24.568 -0.2338  0.0353  0.0633
41735W        W42599   5.030  16.425  26.067 -0.0823  0.0359 -0.0021
41736W        W42600   8.500  17.555  27.365  0.1422  0.2731  0.0641
41737W        W42601   4.523  18.008   0.687 -0.2463 -0.0232 -0.0553
41738W        W42602   5.416  17.212  25.640 -0.0558  0.2932  0.1202
41739W        W42603   5.208  16.030  27.695 -0.1712  0.0046  0.1319
41740W        W42604   5.318  17.767  28.069  0.2290  0.0720 -0.3076
41741W        W42605   2.842  12.638  25.268  0.1169  0.0977 -0.0891
41742W        W42606   6.550  18.907   1.224 -0.1736 -0.3737 -0.3380
41743W        W42607   4.708  17.619  24.913 -0.0330 -0.0044 -0.0925
41744W        W42608   7.688  14.962  26.653  0.0925  0.1877  0.1060
41745W        W42609   6.057  17.897  27.666 -0.0917 -0.2259 -0.2495
41746W        W42610   4.970  17.940  26.902  0.1150 -0.0898 -0.4425
41747W        W42611   5.531  15.650  25.928  0.1555  0.2697  0.0398
41748W        W42612   2.796  20.451   0.994 -0.0260 -0.1677 -0.1327
41749W        W42613   7.153  14.446   2.346  0.2129  0.0691  0.1076
41750W        W42614   5.511  12.587  28.400  0.1054 -0.0031 -0.0890
41751W        W42615   3.702  15.599  26.278  0.2177 -0.2607  0.0441
41752W        W42616   4.198  15.515  26.540  0.2074 -0.2141 -0.4946
41753W        W42617   6.771  15.908  28.746  0.0439  0.2563  0.1035
41754W        W42618   3.064  17.455  26.402 -0.0625  0.2277  0.2344
41755W        W42619   4.598  15.580  28.265  0.0749  0.0864  0.1587
41756W        W42620   6.694  18.943  27.595  0.1173  0.0571 -0.3637
41757W        W42621   6.703  18.026   0.458 -0.0216  0.0057  0.1203
41758W        W42622   5.640  19.929  26.716  0.0504  0.0211 -0.1120
41759W        W42623   5.033  15.595  23.906 -0.2511  0.3254  0.2096
41760W        W42624   8.199  15.264  25.737 -0.3148  0.1479 -0.0044
41761W        W42625   6.410  17.370  26.373 -0.1221  0.0563  0.1268
41762W        W42626   7.822  16.302  27.395 -0.1204  0.0869  0.0818
41763W        W42627   9.774  17.876  28.834  0.0055 -0.2607  0.0587
41764W        W42628   5.825  16.705  26.761  0.1134  0.1411 -0.0826
41765W        W42629   8.089  15.084  28.776 -0.0204 -0.1216  0.1774
41766W        W42630   6.798  17.598  27.180  0.1582 -0.1151 -0.0831
41767W        W42631   5.620  12.842  27.931  0.1319 -0.1279 -0.5836
41768W        W42632   5.483  15.536   0.622  0.0129 -0.0300 -0.0678
41769W        W42633   9.563  17.848  27.873 -0.0122 -0.1012 -0.0757
41770W        W42634   4.648  15.288  26.416 -0.0249 -0.0290  0.0170
41771W        W42635   3.871  14.875  27.107  0.1545  0.2581  0.0482
41772W        W42636   8.308  17.844   0.741  0.2314 -0.1599 -0.1030
41773W        W42637   5.937  18.854  27.336 -0.1430 -0.0331 -0.3563
41774W        W42638   3.151  15.725  27.948  0.0890 -0.2023  0.2475
41775W        W42639   8.092  16.727  28.632 -0.5124 -0.2421  0.1065
41776W        W42640   5.303  18.799   1.672 -0.1547  0.2065  0.1497
41777W        W42641   8.985  17.364  27.637 -0.5408  0.3593  0.1776
41778W        W42642   6.462  17.375  28.358 -0.0632  0.0360 -0.1454
41779W        W42643   5.798  21.255  27.680  0.2638  0.1076 -0.3372
41780W        W42644   4.997  22.156  26.635  0.0360  0.1258 -0.2625
41781W        W42645   6.412  16.526  27.959  0.2223 -0.0037  0.0564
41782W        W42646   5.423  18.401   1.108  0.0545  0.2513 -0.0319
41783W        W42647   5.091  17.680   0.333  0.1462 -0.0181 -0.2415
41784W        W42648   8.316  17.451   0.497  0.0621 -0.2372  0.1315
41785W        W42649   5.581  21.793  27.105 -0.1474 -0.2043  0.1533
41786W        W42650   4.723  18.284  27.260  0.2978  0.2086 -0.1082
41787W        W42651   6.848  14.985  25.802  0.1382 -0.4047  0.0654
41788W        W42652   5.726  18.259  26.435 -0.0167 -0.1630  0.2543
41789W        W42653   6.178  20.487   0.505 -0.1053  0.4144  0.0352
41790W        W42654   6.135  20.040  27.997 -0.2091 -0.0087  0.0387
41791W        W42655   3.537  15.917  26.752  0.1726 -0.0397  0.0565
41792W        W42656   4.153  18.988   3.193 -0.1414 -0.0551 -0.1074
41793W        W42657   3.469  20.449   1.510  0.2251 -0.2204 -0.0246
41794W        W42658   6.794  23.065   0.539 -0.0297  0.0123 -0.0860
41795W        W42659  10.139  21.207   3.333  0.0526  0.0912  0.0767
41796W        W42660   6.337  24.698  26.847  0.2530  0.1295 -0.2166
41797W        W42661   4.140  19.590   0.495  0.0357  0.3358 -0.2660
41798W        W42662   5.918  20.682   2.454  0.0199  0.0293 -0.1734
41799W        W42663   2.462  18.257   0.560  0.1912 -0.1071  0.2270
41800W        W42664   5.482  22.375   2.536  0.1584  0.2003 -0.2061
41801W        W42665   0.807  18.140   1.508 -0.2635  0.1891 -0.0248
41802W        W42666   5.297  18.082   3.383  0.3070  0.0930  0.2155
41803W        W42667   3.768  18.173   2.328 -0.2851  0.2366 -0.1423
41804W        W42668   3.827  17.310   1.343 -0.3465  0.0314 -0.0992
41805W        W42669   7.646  19.549   4.856 -0.0046 -0.1844 -0.0705
41806W        W42670   4.275  19.648   4.444  0.0824 -0.0337  0.2197
41807W        W42671   2.716  21.546   4.274  0.1590  0.0626  0.1164
41808W        W42672   5.876  19.270  29.008  0.0298 -0.2562  0.2332
41809W        W42673   4.690  18.346   4.351  0.1525  0.2203  0.0653
41810W        W42674   5.823  19.579   4.221  0.0403 -0.2321 -0.1235
41811W        W42675   7.175  19.467   2.445  0.4178  0.3483  0.1218
41812W        W42676   7.686  19.427   2.274 -0.2470 -0.1228  0.0751
41813W        W42677   7.689  20.283   1.697  0.0385  0.0965  0.1918
41814W        W42678   5.055  21.758   2.316  0.1213 -0.0474  0.0308
41815W        W42679   3.192  19.347   3.439 -0.0658  0.0280  0.0506
41816W        W42680   4.806  20.203   2.430 -0.0214 -0.1507  0.0212
41817W        W42681   5.010  17.747   1.748  0.0357  0.3061 -0.1637
41818W        W42682   6.219  19.795   3.439 -0.0408  0.0684 -0.0556
41819W        W42683   2.689  19.860   1.968 -0.0962  0.1011  0.0281
41820W        W42684   3.916  23.640  28.661  0.2744  0.0017 -0.0279
41821W        W42685   4.001  19.753   5.444  0.0388  0.2693  0.0217
41822W        W42686   6.603  20.682   0.073 -0.0241 -0.1377  0.0212
41823W        W42687   5.118  20.737   0.653 -0.0790  0.2270  0.1665
41824W        W42688   5.879  18.129   1.803 -0.0635  0.0856 -0.1956
41825W        W42689   6.398  19.553   1.874 -0.2997 -0.1181 -0.0867
41826W        W42690   3.340  20.425   2.263 -0.0473  0.2469  0.1555
41827W        W42691   5.245  20.878   3.710  0.2351  0.0423 -0.0244
41828W        W42692   1.757  19.305   2.039  0.2873 -0.0449  0.0374
41829W        W42693   5.640  19.564   1.922  0.0431  0.0725  0.2841
41830W        W42694   7.393  19.912   5.460 -0.2363  0.1446 -0.0085
41831W        W42695   3.995  18.707   1.505  0.2847 -0.3372  0.5682
41832W        W42696   8.478  19.008   1.093 -0.1850 -0.0536  0.2074
41833W        W42697   4.567  19.645   5.546 -0.1653 -0.2234 -0.0366
41834W        W42698   3.276  21.275   1.338 -0.1167  0.3387 -0.0579
41835W        W42699   6.681  20.408   2.200 -0.0001  0.0492 -0.1061
41836W        W42700   3.114  22.053  27.589 -0.2748  0.0468  0.1682
41837W        W42701   3.956  23.631  28.151 -0.0536  0.1478  0.1485
41838W        W42702   3.232  15.799   3.909 -0.0284  0.0271 -0.0672
41839W        W42703   6.077  20.562   1.823 -0.0011 -0.3523 -0.2290
41840W        W42704   4.301  18.033   2.182 -0.1121 -0.4315 -0.0044
41841W        W42705   7.649  19.595   2.883 -0.0457  0.2115 -0.1362
41842W        W42706   5.021  23.236  27.865 -0.2081  0.3526 -0.1363
41843W        W42707   4.675  19.141  27.970 -0.0183  0.1654  0.0013
41844W        W42708   5.718  20.669   0.535 -0.1354  0.2517 -0.3609
41845W        W42709   5.259  22.307   0.592 -0.3180  0.1592  0.1452
41846W        W42710   6.647  19.775  27.851  0.2575 -0.0157 -0.1959
41847W        W42711   3.631  22.199   0.893  0.1967 -0.0671  0.2243
41848W        W42712   3.003  19.201   4.688 -0.0349 -0.1100  0.1429
41849W        W42713   5.623  20.344   2.049 -0.2488  0.1781  0.0028
41850W        W42714   3.040  21.356   5.461  0.1806  0.3197  0.1925
41851W        W42715   8.319  21.071  28.323 -0.0746  0.1103  0.1117
41852W        W42716   6.948  20.504  27.695  0.0963 -0.0433  0.0987
41853W        W42717   5.081  20.766   3.239 -0.0639 -0.2104 -0.1864
41854W        W42718   5.169  19.073   5.040  0.2349  0.0857 -0.3187
41855W        W42719   5.864  22.210   6.588 -0.0600  0.1604  0.1765
41856W        W42720   3.212  17.400   1.186  0.2812  0.2631  0.0338
41857W        W42721   6.312  18.055   0.065  0.0127  0.1794  0.3115
41858W        W42722   2.796  21.571  28.484  0.1563 -0.0973 -0.1319
41859W        W42723   5.485  17.961  26.765  0.2147 -0.1049  0.1878
41860W        W42724   4.449  18.833   1.705  0.1037 -0.0240  0.1678
41861W        W42725   4.376  20.546   2.480  0.1748 -0.2196 -0.2056
41862W        W42726   7.819  20.960   1.480 -0.0302  0.3887  0.0194
41863W        W42727   6.119  18.637   1.287 -0.1877  0.0415 -0.1875
41864W        W42728   8.626  22.277   1.420  0.2898  0.2526 -0.0863
41865W        W42729   6.732  17.409   2.611  0.1532  0.0885  0.2164
41866W        W42730   5.190  21.412   1.495 -0.1293 -0.3000 -0.0869
41867W        W42731   7.078  16.942   1.475 -0.0755  0.1457  0.2619
41868W        W42732   3.547  18.987   0.402  0.1338  0.2243 -0.0103
41869W        W42733   2.515  20.683   3.521  0.2975  0.0668 -0.3062
41870W        W42734   6.259  19.137   1.570 -0.2516 -0.6449  0.3580
41871W        W42735   3.088  18.801   0.157 -0.0565  0.0691  0.0609
41872W        W42736   7.353  17.634   3.473  0.0667  0.3316 -0.0865
41873W        W42737   5.761  21.340   4.309 -0.2226  0.0043  0.0688
41874W        W42738   2.394  13.305   1.098  0.2161 -0.1342  0.0753
41875W        W42739   4.024  17.069   0.861 -0.1616  0.2594  0.0075
41876W        W42740   7.969  17.262   3.712  0.0378 -0.1130  0.0404
41877W        W42741   6.212  17.928   0.780  0.4370  0.0587  0.1727
41878W        W42742   8.927  23.114   4.313  0.1772  0.3303  0.0761
41879W        W42743   4.912  18.130   1.224 -0.4121  0.2263  0.0429
41880W        W42744  10.197  20.905   5.077  0.0034 -0.0274 -0.2889
41881W        W42745  10.304  18.265   6.117  0.0251 -0.0905  0.1876
41882W        W42746   6.488  20.047   1.863 -0.1341 -0.0934 -0.4185
41883W        W42747   5.987  20.306   3.231  0.1870 -0.3952 -0.0179
41884W        W42748   4.818  21.441   0.515 -0.2057 -0.1280 -0.1382
41885W        W42749   4.202  19.863   1.015  0.1649  0.1226 -0.1873
41886W        W42750   3.485  17.748   6.588  0.2431 -0.1656 -0.0839
41887W        W42751   7.385  19.846   1.615  0.4351 -0.0555  0.0514
41888W        W42752   4.910  22.492   0.949  0.0664 -0.0374 -0.3065
41889W        W42753   6.137  21.606   2.566 -0.1112  0.2857 -0.2053
41890W        W42754   3.811  19.004   2.644 -0.2070  0.2300  0.2005
41891W        W42755   8.015  18.733   0.955 -0.1474  0.1638 -0.1913
41892W        W42756   9.982  20.582  28.589 -0.0367 -0.1909  0.0142
41893W        W42757   4.673  19.240   1.970  0.1341 -0.0549 -0.0249
41894W        W42758   5.112  19.159  28.246  0.0699  0.0140 -0.0800
41895W        W42759   5.238  20.703   2.084 -0.2175  0.0167  0.0790
41896W        W42760   7.326  17.999   3.047  0.1533  0.0928 -0.4316
41897W        W42761   7.689  18.756   3.603 -0.1653 -0.0459 -0.1096
41898W        W42762   3.289  19.907  28.683  0.1888  0.1875  0.0654
41899W        W42763   5.300  19.841   3.822 -0.0453 -0.1948  0.0446
41900W        W42764   5.381  17.396   1.566 -0.1509  0.0675  0.2073
41901W        W42765   5.167  19.330   2.407  0.1420 -0.1354 -0.1829
41902W        W42766   5.592  18.585   2.514  0.1859  0.0271  0.1278
41903W        W42767   4.889  19.142   1.003  0.0552  0.1087  0.2254
41904W        W42768   5.659  18.946  28.708 -0.0798 -0.0379  0.1733
41905W        W42769   4.475  22.510   2.114  0.1649  0.0738 -0.3638
41906W        W42770   6.718  19.691   0.915  0.0939  0.0968  0.2792
41907W        W42771   5.491  21.670  28.875  0.1280 -0.0612 -0.0028
41908W        W42772   8.254  18.145   2.460  0.1869 -0.0611 -0.0132
41909W        W42773   5.597  17.976   0.722 -0.3677  0.1854 -0.0174
41910W        W42774   7.973  19.138   2.654 -0.0706 -0.0172  0.1800
41911W        W42775   7.441  20.078   0.838 -0.0034  0.1801  0.1251
41912W        W42776   7.273  20.230   2.533 -0.0829 -0.2878 -0.1466
41913W        W42777   7.122  20.330   1.734 -0.0197 -0.2842 -0.0474
41914W        W42778   5.754  19.067   1.721 -0.3331 -0.1614 -0.1589
41915W        W42779   4.755  21.197   1.415 -0.0410  0.0671  0.1892
41916W        W42780   7.196  19.277  28.673 -0.0246  0.0620  0.2244
41917W        W42781   3.716  20.757   1.078 -0.0452  0.0241  0.3153
41918W        W42782   3.095  17.882   2.232  0.0455  0.2070  0.0229
41919W        W42783   8.399  20.621   4.445  0.1709 -0.0142  0.1937
41920W        W42784   5.868  22.676   2.318 -0.0782 -0.3985 -0.0238
41921W        W42785   6.883  23.346   2.634  0.3248  0.1209 -0.1325
41922W        W42786   6.415  22.007   2.714 -0.0880  0.2453 -0.0769
41923W        W42787   6.756  19.437   2.223  0.2487 -0.0699  0.2510
41924W        W42788   7.224  21.547   3.006 -0.0700  0.2595 -0.1800
41925W        W42789   8.316  16.313   1.736  0.0538 -0.0530 -0.1536
41926W        W42790   4.632  21.146   3.154 -0.1624 -0.0620 -0.1691
41927W        W42791   3.969  19.541   4.071  0.0901 -0.1167 -0.0393
41928W        W42792   5.023  18.307   2.960 -0.1386 -0.3177  0.0705
41929W        W42793   8.237  20.169   0.325  0.0548 -0.0142 -0.1931
41930W        W42794   7.492  18.884   1.937 -0.1437  0.3218 -0.1039
41931W        W42795   3.442  22.044  28.011  0.2786  0.0835  0.1487
41932W        W42796   4.469  19.810  28.654 -0.2850 -0.0656  0.2032
41933W        W42797   6.032  18.636   4.771 -0.1573  0.2993  0.0665
41934W        W42798   4.655  19.733   0.002  0.2011  0.2893  0.1009
41935W        W42799   5.321  21.790   1.202 -0.1723 -0.3994 -0.0415
41936W        W42800   5.351  19.404   4.029  0.1892  0.1104  0.3140
41937W        W42801   2.990  20.204  29.070 -0.2674  0.0821  0.2788
41938W        W42802   8.865  16.586   1.145 -0.1254  0.2637  0.0813
41939W        W42803   4.268  21.567   1.380  0.1348 -0.0102 -0.1668
41940W        W42804   6.056  19.191   3.956 -0.3231  0.0676  0.1773
41941W        W42805   4.384  19.218   4.127  0.0535  0.0537  0.0204
41942W        W42806   6.697  19.910   3.671 -0.2553 -0.2095 -0.2440
41943W        W42807   4.196  18.482   2.404  0.0055 -0.1070  0.0519
41944W        W42808   5.403  22.071   0.051  0.0056 -0.0613  0.2015
41945W        W42809   2.236  18.063  29.028  0.0498 -0.2153 -0.1214
41946W        W42810   5.430  17.588   0.997  0.2544  0.0393 -0.1588
41947W        W42811   7.951  17.407   5.510 -0.2253  0.1299 -0.2452
41948W        W42812   4.936  18.300   1.699 -0.2049  0.4728 -0.0478
41949W        W42813   5.912  21.509  29.020  0.1102  0.1460  0.0190
41950W        W42814   4.881  17.907   2.207 -0.0782  0.1345  0.1785
41951W        W42815   3.116  19.323   0.179  0.0634 -0.1167  0.1933
41952W        W42816   4.618  19.636   2.814  0.0556  0.2791  0.2942
41953W        W42817   5.548  22.186   3.020 -0.0173  0.1266 -0.1044
41954W        W42818   4.052  23.312   1.554 -0.0240 -0.1743 -0.1899
41955W        W42819   8.580  19.971   2.749 -0.2520 -0.1961  0.0258
41956W        W42820   8.493  17.721   2.467 -0.1451  0.3747 -0.1146
41957W        W42821   5.386  17.861   2.049 -0.1425  0.2982 -0.0795
41958W        W42822   1.503  16.341  28.830 -0.1389 -0.0332 -0.0697
41959W        W42823   1.515  24.299  28.585  0.5211 -0.0531 -0.0317
41960W        W42824   3.931  19.091   4.312  0.0873 -0.1128 -0.0258
41961W        W42825   4.447  20.938   1.741 -0.3120 -0.0767 -0.0236
41962W        W42826   6.173  17.451   3.165  0.0956 -0.4732 -0.2465
41963W        W42827   7.137  18.638   3.686  0.0304 -0.2992  0.0940
41964W        W42828   6.647  18.534   1.509  0.3162  0.4831 -0.1711
41965W        W42829   5.711  22.921   1.896  0.0096  0.1516 -0.2814
41966W        W42830   8.558  16.906   0.969  0.2898 -0.0735  0.0423
41967W        W42831   7.467  18.486   2.799  0.1932  0.1580  0.1522
41968W        W42832   5.141  18.635   4.310 -0.1040  0.0683 -0.1379
41969W        W42833   6.062  21.219   2.932 -0.2359 -0.3203 -0.0430
41970W        W42834   3.413  24.352   2.222  0.4336  0.1183 -0.1318
41971W        W42835   5.141  19.256   1.834 -0.0605  0.1405 -0.2855
41972W        W42836   4.838  23.396   1.963 -0.2360 -0.0386 -0.1338
41973W        W42837   5.509  23.102  27.919 -0.0436 -0.1337  0.1783
41974W        W42838   4.027  19.710   2.467  0.4288  0.3055 -0.0282
41975W        W42839   3.859  19.448   2.069  0.0058 -0.3179  0.0499
41976W        W42840   5.971  19.920   0.727 -0.0874 -0.2716 -0.2640
41977W        W42841   5.615  17.680   5.983 -0.1349 -0.1895 -0.0273
41978W        W42842   7.838  19.435   1.675  0.1801 -0.0704  0.1305
41979W        W42843   3.803  18.506   0.486 -0.2489  0.0365 -0.4318
41980W        W42844   5.708  18.551   1.505 -0.0284  0.1090 -0.2734
41981W        W42845   5.065  21.511   0.924  0.1968 -0.2597  0.0955
41982W        W42846   4.179  20.623   2.011  0.0296  0.1205 -0.0265
41983W        W42847   2.473  20.062   1.006 -0.3184 -0.0909  0.3595
41984W        W42848   3.631  20.955   1.636  0.1304 -0.1209 -0.0298
41985W        W42849   5.214  18.862   3.747 -0.1000  0.0891  0.2013
41986W        W42850   8.210  19.608   2.601 -0.1373  0.1346 -0.2123
41987W        W42851   3.855  17.961   1.852 -0.1628 -0.1251  0.2003
41988W        W42852   5.567  19.676  28.815 -0.1775 -0.0858 -0.1657
41989W        W42853   2.692  18.166  28.782 -0.2499  0.1521 -0.2002
41990W        W42854   3.568  16.419  28.641  0.1173  0.1386 -0.0410
41991W        W42855   8.892  19.279   1.572 -0.0594 -0.1600 -0.0079
41992W        W42856   2.617  19.652   0.595  0.2685  0.2694  0.2980
41993W        W42857   5.078  18.200   0.745  0.0390 -0.2254 -0.0443
41994W        W42858   6.977  20.103   0.813  0.1696 -0.0955  0.1234
41995W        W42859   1.853  18.761   3.755  0.2710 -0.3110  0.1839
41996W        W42860   6.484  16.655   1.984 -0.1797 -0.2448  0.2221
41997W        W42861   3.732  17.467   2.744  0.0358  0.2588 -0.1681
41998W        W42862   5.286  19.750   2.200 -0.2026 -0.3525  0.2908
41999W        W42863   9.254  17.978   2.045 -0.0768  0.0780  0.2127
42000W        W42864   4.897  21.990   0.786  0.0065 -0.0850 -0.2195
42001W        W42865   2.758  19.556  27.882  0.1545  0.2346 -0.3366
42002W        W42866   6.956  23.501   1.389 -0.2060  0.0689  0.5128
42003W        W42867   6.068  22.605   5.640 -0.2897  0.0546 -0.2626
42004W        W42868   7.122  17.406   1.771 -0.1431  0.0865  0.3486
42005W        W42869   9.717  18.614   3.310  0.1779 -0.2676 -0.1914
42006W        W42870   6.269  19.712   1.105 -0.1769 -0.0499 -0.1072
42007W        W42871   4.759  20.271  28.499 -0.0854 -0.1269 -0.2332
42008W        W42872   4.721  19.316  28.704 -0.0707  0.0421 -0.0034
42009W        W42873   6.444  21.631   1.658 -0.0544  0.2643 -0.0383
42010W        W42874   7.581  17.748   6.095  0.0450  0.1075 -0.2306
42011W        W42875   4.793  19.925   3.761 -0.0461  0.0132  0.0881
42012W        W42876  10.545  18.690   4.161  0.0010  0.1543  0.1787
42013W        W42877   6.962  20.124   3.221 -0.0948  0.2064 -0.1645
42014W        W42878   5.759  20.762   2.984  0.1070  0.0157  0.1214
42015W        W42879   3.648  17.872  29.134  0.2004 -0.1260 -0.1109
42016W        W42880   7.233  20.225  28.940 -0.0147  0.2399 -0.1057
42017W        W42881   6.367  21.181   4.292 -0.1655 -0.2010 -0.1582
42018W        W42882   4.229  19.244   2.320  0.1227 -0.0397  0.0136
42019W        W42883   9.070  20.300   2.779 -0.2326 -0.1410 -0.2088
42020W        W42884   6.686  21.850   0.405 -0.0410  0.3491  0.2202
42021W        W42885   2.645  20.527   4.669 -0.0529  0.1159 -0.0118
42022W        W42886   0.520  17.813   2.440 -0.3709 -0.0525  0.4761
42023W        W42887   5.601  19.521   2.589  0.0058  0.2278  0.4466
42024W        W42888   6.763  22.199   2.430  0.0034  0.1777 -0.2068
42025W        W42889   6.354  19.236   0.895 -0.3228  0.1961  0.1341
42026W        W42890   3.647  18.725   0.923  0.1758 -0.2333  0.0132
42027W        W42891   5.053  19.565   0.660  0.1607  0.3824  0.0789
42028W        W42892   7.030  17.929   0.851  0.2467 -0.0668 -0.0619
42029W        W42893   2.808  18.151   3.424  0.1580  0.0041 -0.0413
42030W        W42894   7.657  17.757   2.618  0.2536  0.0460 -0.0299
42031W        W42895   7.537  20.492   3.823  0.0459 -0.0208  0.0063
42032W        W42896   5.619  22.057  28.192  0.2755 -0.1118  0.0928
42033W        W42897   6.964  21.244   4.341 -0.1572  0.0309  0.0750
42034W        W42898   4.161  17.329   1.742  0.2120  0.0541 -0.0739
42035W        W42899   4.314  16.686   2.637 -0.1063  0.1010  0.0235
42036W        W42900   5.924  21.208   0.270  0.1102 -0.0972 -0.0723
42037W        W42901   6.042  20.511  27.826 -0.2390  0.1183 -0.0140
42038W        W42902   6.863  19.908   2.324 -0.1020 -0.0386 -0.0659
42039W        W42903   6.950  21.222   3.426  0.1717  0.1916  0.3734
42040W        W42904   4.107  19.178   1.722  0.3744 -0.1007  0.2043
42041W        W42905   5.085  18.819   2.913 -0.0368 -0.0464  0.3888
42042W        W42906   3.961  20.618   1.495  0.2409 -0.0378 -0.0946
42043W        W42907   5.043  22.995   1.213  0.0329  0.0220 -0.2681
42044W        W42908   7.684  21.491   4.231 -0.0102  0.2496 -0.0839
42045W        W42909   6.884  16.087   0.457  0.1926  0.0708  0.0931
42046W        W42910   2.816  20.655  28.618  0.1017 -0.1966 -0.2764
42047W        W42911   7.940  19.990   0.761  0.0409 -0.0271 -0.2514
42048W        W42912  10.356  20.313   0.303  0.1407  0.1130  0.2781
42049W        W42913   5.445  18.945   4.665  0.1336 -0.1624 -0.3219
42050W        W42914   5.398  20.460   3.941  0.1105  0.1705 -0.1282
42051W        W42915   8.749  20.253   4.187 -0.0782 -0.0928 -0.0009
42052W        W42916   7.353  19.972   2.137 -0.2253 -0.2629 -0.2731
42053W        W42917   5.066  17.709   3.611 -0.3463 -0.0756  0.0630
42054W        W42918   4.682  21.451   3.782  0.2918  0.1121  0.0989
42055W        W42919   3.909  17.024   3.689  0.2129  0.3628 -0.2852
42056W        W42920   6.514  18.965   2.573  0.0405 -0.0552  0.2116
42057W        W42921   2.639  20.491   4.034 -0.0650  0.2501  0.0794
42058W        W42922   4.535  19.808   0.699 -0.0752 -0.1210  0.0778
42059W        W42923   7.691  19.274   3.301  0.1043  0.0704 -0.2128
42060W        W42924   4.328  17.325   5.091  0.0369 -0.2656  0.0085
42061W        W42925   9.029  19.264   3.327  0.1746 -0.0788 -0.1534
42062W        W42926   4.435  18.024   0.162  0.1991 -0.0853  0.0165
42063W        W42927   7.292  20.473   3.396 -0.4111  0.0825  0.0238
42064W        W42928   6.013  19.856   2.696  0.3040 -0.0998 -0.3250
42065W        W42929   6.384  22.082   4.140  0.2722  0.0572  0.3517
42066W        W42930   6.506  20.002   1.366  0.1352  0.2831 -0.0084
42067W        W42931   6.806  19.878   4.707  0.1514 -0.2732  0.2338
42068W        W42932   5.917  17.989   2.335  0.0628  0.1604  0.0073
42069W        W42933   3.940  19.127   3.712 -0.1782 -0.2478  0.2780
42070W        W42934   5.554  21.384  28.510  0.2931  0.1760  0.0002
42071W        W42935   3.620  23.136   0.742 -0.2118 -0.1627 -0.0513
42072W        W42936   5.523  16.804   2.949 -0.2137  0.0970  0.0465
42073W        W42937   6.595  17.637   0.896  0.2540  0.0364  0.0863
42074W        W42938   3.725  19.247   3.129  0.1403  0.0475  0.0948
42075W        W42939   2.674  21.859   1.963  0.1487 -0.1291  0.2017
42076W        W42940   8.712  21.517   0.790  0.0415 -0.2028  0.1811
42077W        W42941   6.957  18.291   2.266 -0.2357 -0.0697 -0.0329
42078W        W42942   4.058  18.815   2.052 -0.0606 -0.0542  0.0525
42079W        W42943   3.317  21.145   4.609 -0.1524 -0.0470 -0.2786
42080W        W42944   5.464  20.194   1.303  0.0024  0.1873 -0.0694
42081W        W42945   4.983  23.292  27.375  0.3199 -0.0665 -0.3142
42082W        W42946   3.638  22.091  27.451 -0.0017  0.0023  0.0747
42083W        W42947   7.608  16.455   0.030 -0.1375 -0.3361  0.1356
42084W        W42948   8.429  18.982   4.942 -0.0614  0.0756  0.0197
42085W        W42949   6.077  22.447   6.122  0.0456 -0.0479  0.0171
42086W        W42950   3.107  19.111   1.120  0.1430  0.3253  0.2507
42087W        W42951   5.418  18.145   0.315  0.2779  0.0564  0.0606
42088W        W42952   4.036  18.053   0.569 -0.0296 -0.2107 -0.0169
42089W        W42953   7.012  18.667   2.675  0.0598  0.1356  0.0372
42090W        W42954   8.133  18.610   2.565  0.2603 -0.0291 -0.1903
42091W        W42955   4.162  22.050   1.256  0.3060 -0.1218 -0.0248
42092W        W42956   4.471  21.735   0.925 -0.1144 -0.3151  0.2194
42093W        W42957   3.727  20.162   5.419  0.0511  0.0919  0.2653
42094W        W42958   7.342  18.868   3.242 -0.0715 -0.1824 -0.2063
42095W        W42959   8.860  18.613   3.171  0.0641 -0.2794  0.0952
42096W        W42960   4.958  20.178   1.477 -0.2157  0.2659  0.4265
42097W        W42961   4.648  23.020   0.886  0.0276 -0.1984  0.0404
42098W        W42962   6.015  18.948   5.567  0.3625  0.2160 -0.4727
42099W        W42963   4.376  18.058   1.145 -0.1833 -0.0683 -0.0323
42100W        W42964   4.616  21.410   0.105  0.0276  0.4044  0.2852
42101W        W42965   2.271  21.828   1.626 -0.1134  0.3276  0.2568
42102W        W42966   5.721  19.713   1.140 -0.0129 -0.0384  0.1114
42103W        W42967   5.383  20.295   2.470  0.0699  0.1570 -0.1213
42104W        W42968   3.283  18.494   0.481  0.1542 -0.0496 -0.0451
42105W        W42969   7.178  22.071   2.649 -0.1236 -0.2775 -0.1318
42106W        W42970   4.513  18.820   2.295 -0.1096 -0.1806  0.1315
42107W        W42971   6.695  21.229   3.902 -0.1209 -0.4313 -0.1543
42108W        W42972   3.426  17.875   2.678  0.0465  0.0046  0.1387
42109W        W42973   5.680  20.232   2.831  0.0208 -0.0462 -0.1059
42110W        W42974   5.747  21.702   2.878 -0.0620  0.1126 -0.1280
42111W        W42975   5.379  19.795   4.346  0.0090 -0.1821 -0.0005
42112W        W42976   3.595  19.917   2.309 -0.1032  0.1412 -0.1127
42113W        W42977   7.183  22.358   2.093 -0.2013  0.3643 -0.1843
42114W        W42978   4.641  21.584   3.295  0.0701 -0.1414  0.0241
42115W        W42979   4.930  18.651   1.402 -0.0265 -0.0963  0.3322
42116W        W42980   3.555  19.224   0.826  0.2939  0.1434 -0.0266
42117W        W42981   4.591  20.115   1.864 -0.2660 -0.1370  0.1539
42118W        W42982   5.928  21.040   0.790  0.0397 -0.0736 -0.0216
42119W        W42983   2.591  21.307   1.908  0.0130 -0.2499 -0.1927
42120W        W42984   7.744  20.995   0.288  0.0275  0.0083 -0.2019
42121W        W42985   5.659  20.068   3.575  0.0192  0.1351  0.0885
42122W        W42986   6.313  18.262   2.116 -0.2506  0.2045  0.0706
42123W        W42987  10.003  17.154   0.339 -0.2824  0.0784 -0.3109
42124W        W42988   6.530  18.303   3.099 -0.0960  0.1931 -0.0228
42125W        W42989   5.151  20.231   3.529  0.1617 -0.0173 -0.0977
42126W        W42990   4.871  21.597   1.837 -0.1432  0.0306  0.0194
42127W        W42991   5.459  23.071   4.139 -0.1391 -0.1006 -0.1407
42128W        W42992   2.807  20.578   1.472  0.1516 -0.2154 -0.1988
42129W        W42993   5.727  18.974   0.633  0.0422 -0.2333 -0.2317
42130W        W42994   3.958  20.060   0.504 -0.0007  0.1254 -0.0902
42131W        W42995   2.641  17.849   0.048  0.0231  0.2760 -0.0466
42132W        W42996   4.162  21.341  27.882  0.1307  0.0182 -0.0207
42133W        W42997   3.638  19.525   3.538 -0.1949 -0.0616  0.1278
42134W        W42998   3.330  18.841   2.834  0.2534  0.3820 -0.1217
42135W        W42999   4.090  19.624   1.563  0.1315 -0.0891 -0.0839
42136W        W43000   7.098  18.857   0.867 -0.1607 -0.2055  0.0021
42137W        W43001   1.969  20.358   1.849 -0.0239  0.1906  0.1330
42138W        W43002   2.812  21.055   1.556 -0.0409  0.0816 -0.0283
42139W        W43003   2.670  19.755   2.816 -0.2637  0.3097  0.2221
42140W        W43004   2.681  19.195   0.323  0.4967 -0.1821  0.4064
42141W        W43005   2.609  18.740  28.643 -0.0468  0.2314 -0.2267
42142W        W43006   7.743  21.505   2.768 -0.0745 -0.1002 -0.0808
42143W        W43007   5.389  20.934   1.497  0.0037  0.0934  0.0017
42144W        W43008   8.634  20.801   3.317 -0.0994  0.0953  0.0687
42145W        W43009   6.597  18.616   3.498 -0.1111  0.2517 -0.0560
42146W        W43010   6.181  20.343   2.754 -0.1456  0.0338 -0.2831
42147W        W43011   4.258  20.492  26.182 -0.0363 -0.0295 -0.1116
42148W        W43012   8.064  20.307  29.026  0.3619  0.0329  0.2448
42149W        W43013   4.716  19.234   5.221 -0.1275 -0.0546 -0.2033
42150W        W43014   4.264  18.895   2.718 -0.4198 -0.1591 -0.0002
42151W        W43015   4.659  19.399   0.387 -0.1043 -0.1883  0.2469
42152W        W43016   3.132  19.444   0.669 -0.2199  0.1668 -0.4871
42153W        W43017   6.600  19.436   1.386  0.1490 -0.1309  0.2317
42154W        W43018   6.996  19.889   2.802  0.3202  0.1667 -0.0602
42155W        W43019   6.353  18.379   0.513 -0.0801 -0.2139 -0.3171
42156W        W43020   3.280  20.694  28.439  0.2838 -0.1920  0.3129
42157W        W43021   6.356  20.833   3.788  0.2407  0.1075  0.2871
42158W        W43022   5.041  22.079  28.832  0.0793 -0.1362  0.0786
42159W        W43023   5.094  20.974   1.085 -0.2596 -0.2358  0.0051
42160W        W43024   6.661  16.902   1.206  0.3790 -0.3597  0.0384
42161W        W43025   8.803  18.516   1.806 -0.0255 -0.2907  0.0377
42162W        W43026   2.746  19.968  28.674  0.1431 -0.0392  0.2835
42163W        W43027   6.921  19.657   1.755 -0.3772  0.1410  0.3165
42164W        W43028   4.442  20.129   0.239 -0.0974  0.1180 -0.2889
42165W        W43029   6.319  21.756   3.645 -0.1998  0.3177  0.1475
42166W        W43030   6.980  23.563   0.572 -0.2336 -0.0101 -0.1125
42167W        W43031   5.132  17.690   4.176  0.1741  0.1072  0.0961
42168W        W43032   5.448  18.905   2.108 -0.2502  0.0253 -0.0231
42169W        W43033   5.888  21.908   3.364  0.1269 -0.1424  0.2439
42170W        W43034   5.839  19.127   2.280 -0.1222 -0.1454 -0.1506
42171W        W43035   4.259  18.783   4.096  0.0148  0.1194  0.0650
42172W        W43036   4.004  20.747   3.648  0.2012 -0.1934 -0.2069
42173W        W43037   4.700  18.184   2.562 -0.0533  0.1364 -0.4165
42174W        W43038   5.198  19.747   1.319 -0.1602 -0.1860 -0.1583
42175W        W43039   6.344  19.561   4.426 -0.6251 -0.1066  0.3710
42176W        W43040   5.465  19.321   0.905 -0.1529 -0.2450 -0.1299
42177W        W43041   6.317  18.264   6.758  0.1086 -0.1332 -0.1005
42178W        W43042   4.427  22.256   0.782 -0.0243 -0.0699  0.1335
42179W        W43043   6.159  18.761   3.689 -0.0657 -0.3742 -0.0370
42180W        W43044   4.798  23.199   0.417  0.0261 -0.0944 -0.5456
42181W        W43045   8.416  20.500   2.071 -0.1027  0.0040  0.0956
42182W        W43046   5.216  19.459   6.245 -0.1612 -0.0596 -0.3776
42183W        W43047   5.093  21.084   2.880 -0.0691 -0.1246  0.1245
42184W        W43048   8.300  20.992   3.627 -0.2049 -0.0725 -0.0764
42185W        W43049   4.333  19.664   1.970  0.2996 -0.1902  0.3725
42186W        W43050   5.381  21.415   1.998 -0.4186  0.2131  0.1696
42187W        W43051   3.586  17.687   2.202  0.0435  0.0116  0.0064
42188W        W43052   9.154  21.678   1.671  0.0702 -0.2656 -0.0079
42189W        W43053   2.963  18.916   3.297 -0.0726  0.2441  0.1175
42190W        W43054   5.965  23.263   2.234  0.0106 -0.0307 -0.2391
42191W        W43055   2.136  20.266  28.468  0.1588 -0.0593 -0.2329
42192W        W43056   2.413  20.250   8.101 -0.0275  0.0972 -0.1650
42193W        W43057   5.307  21.409   4.414  0.2408  0.1100 -0.1466
42194W        W43058   7.623  19.948   5.883  0.2910 -0.0759 -0.2565
42195W        W43059   7.283  21.936   7.080 -0.1560 -0.0256 -0.1829
42196W        W43060   4.536  22.442   3.644  0.1469  0.1104  0.4457
42197W        W43061   7.086  19.761   7.141 -0.0425  0.1382 -0.3063
42198W        W43062   6.323  20.484   8.246 -0.0849 -0.2111  0.1502
42199W        W43063   7.389  19.489   5.698  0.1325  0.0320 -0.1858
42200W        W43064   3.684  22.898   9.775 -0.0809 -0.0704  0.0233
42201W        W43065   4.026  18.611   6.527  0.0640 -0.2758 -0.0235
42202W        W43066   5.233  20.270   7.209 -0.0717 -0.1238  0.1627
42203W        W43067  10.536  18.239   3.390 -0.2969  0.3453  0.1768
42204W        W43068  10.545  20.325   5.058  0.0774 -0.0303 -0.5615
42205W        W43069   3.453  19.361   7.679 -0.1349  0.0529  0.4352
42206W        W43070   4.272  17.338   6.480  0.2986  0.2899  0.1376
42207W        W43071   3.639  21.950   5.920 -0.2776  0.0269  0.0023
42208W        W43072   4.742  20.434   3.372  0.0698 -0.0718  0.2358
42209W        W43073   1.425  18.339   4.203  0.1412 -0.4450 -0.1222
42210W        W43074   4.447  18.183   4.885 -0.0864 -0.2981  0.2729
42211W        W43075   7.255  19.003   4.870  0.0197 -0.1852 -0.0043
42212W        W43076   8.464  18.658   5.289  0.1625 -0.0046  0.2035
42213W        W43077   6.150  21.273   3.815 -0.1514 -0.0518  0.1321
42214W        W43078   5.763  23.006   4.886 -0.0759  0.3616  0.1893
42215W        W43079   8.017  19.324   6.972 -0.2771  0.0456  0.4104
42216W        W43080   5.308  18.417   6.674  0.1269  0.0948 -0.2966
42217W        W43081   3.383  19.685   5.403 -0.0500  0.1578 -0.0422
42218W        W43082   6.005  18.074   5.464 -0.4277  0.0725  0.2410
42219W        W43083   6.147  20.009   3.862  0.1658  0.2521 -0.3906
42220W        W43084   7.451  18.578   5.468 -0.3666 -0.1133 -0.1378
42221W        W43085   6.586  16.741   7.988  0.2604  0.0634 -0.0497
42222W        W43086   3.598  20.650   5.650  0.4161  0.0034  0.1436
42223W        W43087   5.212  18.500   7.355  0.0273 -0.2419 -0.0146
42224W        W43088   3.128  21.019   7.819 -0.2166  0.0258 -0.1692
42225W        W43089   7.313  21.722   4.529  0.1863  0.1625  0.1334
42226W        W43090   1.094  21.255   6.898  0.0222 -0.5514 -0.0192
42227W        W43091   7.263  21.623   7.530  0.2520 -0.3058  0.1405
42228W        W43092   3.722  16.731   5.350 -0.0184  0.3763 -0.2085
42229W        W43093   5.738  20.233   5.756 -0.2296 -0.1606  0.0713
42230W        W43094   8.307  19.675   3.632 -0.0613  0.1384 -0.0505
42231W        W43095   7.203  16.866   6.877  0.0893  0.0964 -0.0672
42232W        W43096   7.391  19.165   4.387  0.2496 -0.2307  0.2381
42233W        W43097   9.918  17.434   5.893  0.0618 -0.0391  0.0097
42234W        W43098   6.471  19.082   4.165  0.4641  0.0009 -0.1242
42235W        W43099   7.236  20.599   2.104 -0.0447 -0.2481  0.0434
42236W        W43100   3.828  21.068   3.086 -0.0144 -0.0992  0.1201
42237W        W43101   6.043  23.078   3.990 -0.4386 -0.1316  0.2494
42238W        W43102   3.151  19.861   6.368  0.0050  0.1162  0.0440
42239W        W43103   6.924  20.568   9.599 -0.0828 -0.0308 -0.1869
42240W        W43104   6.438  20.036   4.294  0.1590  0.0304  0.2458
42241W        W43105   7.166  20.188   4.548 -0.0154 -0.0727  0.2829
42242W        W43106   5.892  22.105   2.523 -0.0485  0.1448  0.0263
42243W        W43107   9.481  18.496   5.154 -0.4458  0.0576 -0.0424
42244W        W43108   4.857  22.536   6.248 -0.1077 -0.2267  0.2567
42245W        W43109   7.668  16.871   4.258  0.0152 -0.1171  0.3715
42246W        W43110   6.803  19.287   5.848 -0.0429 -0.2703 -0.1451
42247W        W43111   6.513  21.717   2.224 -0.0389 -0.1730 -0.1263
42248W        W43112   3.912  18.416   4.857  0.0790  0.0333  0.1467
42249W        W43113   5.687  17.874   7.484 -0.3138  0.2429 -0.1674
42250W        W43114   6.069  23.562   3.740 -0.0649  0.0718 -0.2484
42251W        W43115   3.674  21.038   2.605 -0.2188  0.1989 -0.0179
42252W        W43116   6.849  19.408   4.270  0.2912 -0.2665 -0.1457
42253W        W43117   4.807  21.912   6.111 -0.0727  0.1469  0.2097
42254W        W43118   5.798  21.594   6.362  0.1407 -0.0970  0.1375
42255W        W43119   4.157  20.994   8.013 -0.0562 -0.1733 -0.2024
42256W        W43120   5.934  17.980   7.064  0.0240 -0.2149  0.0152
42257W        W43121   7.982  17.886   4.164  0.2143 -0.2315  0.1295
42258W        W43122   4.726  18.599   3.770 -0.0945  0.0484 -0.1359
42259W        W43123   4.817  19.173   3.859  0.2571  0.2250  0.3643
42260W        W43124   7.039  24.054   2.128  0.1653 -0.0838 -0.1650
42261W        W43125   4.725  21.115   5.640  0.0914 -0.4421 -0.2657
42262W        W43126   8.803  23.845   7.679 -0.2754  0.0453  0.0044
42263W        W43127   7.210  19.922   4.993  0.1334  0.1793 -0.2187
42264W        W43128   8.786  23.284   2.272  0.2720 -0.1969  0.0464
42265W        W43129   7.304  17.767   7.919  0.0657  0.0147 -0.1689
42266W        W43130   6.219  21.647   4.356 -0.1439  0.1465  0.0565
42267W        W43131   8.995  17.811   6.481  0.3068  0.1621 -0.1795
42268W        W43132   8.154  20.721   3.172 -0.2285 -0.1510 -0.0489
42269W        W43133   4.778  20.272   4.631 -0.1076 -0.0959  0.0888
42270W        W43134   8.338  18.953   3.267  0.2621  0.2138  0.4193
42271W        W43135   6.024  18.252   4.432 -0.4225 -0.1902  0.1535
42272W        W43136   4.455  18.431   6.367 -0.5359  0.0207 -0.0803
42273W        W43137   5.677  20.466   6.716 -0.0072 -0.2905 -0.3366
42274W        W43138   7.695  18.137   6.435  0.2294 -0.0964 -0.0771
42275W        W43139   7.862  20.059   3.779 -0.1797  0.0705  0.1593
42276W        W43140   5.521  19.900   6.871 -0.1011 -0.0481 -0.0491
42277W        W43141   6.003  20.131   4.450  0.2834  0.1500 -0.2231
42278W        W43142   7.780  19.924   8.084 -0.2574 -0.2986 -0.0294
42279W        W43143   7.918  17.224   8.283 -0.1591  0.2525  0.2788
42280W        W43144   9.066  18.322   7.322  0.1881 -0.1263 -0.0190
42281W        W43145   5.660  17.705   8.808 -0.0440 -0.2965 -0.3956
42282W        W43146   7.696  19.571   3.879 -0.1754  0.1269  0.2669
42283W        W43147   7.791  20.287   3.338 -0.0571 -0.0787  0.1080
42284W        W43148   2.425  21.004   4.803  0.0356  0.1855 -0.1061
42285W        W43149   6.813  18.739   5.986 -0.0942 -0.2594  0.0475
42286W        W43150   4.305  19.329   6.501  0.2858 -0.1679  0.0239
42287W        W43151   9.439  17.442   5.197 -0.1015 -0.2097 -0.0320
42288W        W43152   7.562  17.289   5.766  0.1869  0.0858  0.0984
42289W        W43153   6.304  21.145   9.274 -0.0589  0.0379 -0.1324
42290W        W43154   4.479  14.778   7.470 -0.2670  0.0383  0.0139
42291W        W43155   7.275  17.618   4.836 -0.1820  0.2847 -0.0331
42292W        W43156   6.880  21.410   1.546 -0.1818 -0.1880 -0.2311
42293W        W43157   3.654  21.554   4.723 -0.1835 -0.0102  0.0549
42294W        W43158   6.814  19.880   5.223  0.0354  0.0713  0.3213
42295W        W43159   8.890  20.432   6.241 -0.0170  0.1068  0.1480
42296W        W43160   7.655  17.777   4.532  0.1898 -0.4153  0.2125
42297W        W43161   5.710  18.461   7.281  0.1632 -0.4001  0.0318
42298W        W43162   3.881  19.408   4.793  0.2402 -0.1173 -0.1407
42299W        W43163   5.226  20.596   8.089  0.3797  0.1782 -0.1600
42300W        W43164   8.612  20.394   2.526 -0.1159 -0.2206  0.1486
42301W        W43165   5.956  20.415   3.697 -0.0682  0.1956 -0.5025
42302W        W43166   0.738  20.976   7.948  0.0663 -0.0278 -0.0509
42303W        W43167   6.230  23.217   6.347  0.2463  0.0574  0.0772
42304W        W43168   5.741  19.465   6.618 -0.0686 -0.0167  0.1053
42305W        W43169   7.321  19.979   6.678  0.3099 -0.0481  0.0982
42306W        W43170   6.385  20.873   2.064 -0.2789 -0.2134  0.1126
42307W        W43171   6.196  18.572   7.117  0.0006 -0.3216  0.0905
42308W        W43172   9.842  18.221   5.771 -0.0701  0.2128  0.1093
42309W        W43173   6.093  19.218   3.472 -0.0718  0.0500  0.0570
42310W        W43174   5.803  18.849   7.782 -0.0823 -0.1753  0.0285
42311W        W43175   6.150  18.700   2.360 -0.0856  0.3203 -0.0999
42312W        W43176   8.281  18.275   5.712  0.1765  0.0907  0.4906
42313W        W43177  10.010  20.113   5.592  0.3212 -0.0574  0.1212
42314W        W43178   6.794  20.350   2.738  0.1982 -0.2488 -0.0606
42315W        W43179   8.759  19.993   5.955  0.3428  0.0728  0.2360
42316W        W43180   5.851  20.473   4.801  0.1991  0.1230  0.1814
42317W        W43181   6.112  18.043   6.014 -0.2287 -0.1030 -0.1257
42318W        W43182   7.132  18.505   7.117 -0.0020 -0.0823  0.2296
42319W        W43183   7.562  18.145   8.190  0.3159  0.1352 -0.2100
42320W        W43184   8.432  21.468   7.947  0.0769  0.1668 -0.1397
42321W        W43185   5.147  20.080   4.936 -0.4030 -0.2154  0.1102
42322W        W43186   8.644  20.435   3.696  0.2764 -0.0141  0.2709
42323W        W43187   7.778  19.542   5.328 -0.3663 -0.2176  0.0324
42324W        W43188   7.235  22.462   8.027  0.2525 -0.2599 -0.0000
42325W        W43189   9.028  19.833   4.502  0.1583 -0.2203 -0.0571
42326W        W43190   6.876  15.255   7.483  0.2002 -0.1398  0.2387
42327W        W43191   2.942  20.376   7.248 -0.0390  0.0255 -0.3987
42328W        W43192   8.450  20.397   6.072  0.2731 -0.0128  0.0990
42329W        W43193   6.437  15.163   7.086 -0.0776 -0.2627 -0.1011
42330W        W43194   6.114  21.926   8.043  0.4099  0.1442  0.0759
42331W        W43195   4.614  22.247   5.125  0.0521  0.0526 -0.0257
42332W        W43196   6.356  17.346   4.976 -0.3197 -0.0452  0.0865
42333W        W43197   8.208  18.908   4.376 -0.1827 -0.0010  0.2607
42334W        W43198   3.199  20.879   5.368 -0.1977 -0.0516  0.1649
42335W        W43199   4.639  20.498   6.602 -0.0845 -0.0185  0.1029
42336W        W43200   5.306  19.966   3.116 -0.0325 -0.2192 -0.0987
42337W        W43201   9.359  18.175   4.676 -0.1941  0.2001  0.3246
42338W        W43202   7.892  17.993   3.327 -0.0854  0.3823  0.0950
42339W        W43203   4.659  24.468   9.095 -0.0665  0.1217  0.0165
42340W        W43204   7.691  21.430   4.885  0.0568 -0.0670 -0.1087
42341W        W43205   5.459  20.669   5.840 -0.1584  0.0511 -0.0607
42342W        W43206   6.854  18.103   7.894  0.1346 -0.1213 -0.0718
42343W        W43207   8.417  19.349   4.561 -0.2012  0.2569 -0.1111
42344W        W43208   4.104  23.155   3.495 -0.1331  0.2491  0.1564
42345W        W43209   8.251  17.821   6.959  0.0911  0.0509 -0.1908
42346W        W43210   5.516  20.896   4.625 -0.0746 -0.0690  0.2792
42347W        W43211   5.735  18.804   5.951 -0.3429 -0.0270  0.0884
42348W        W43212   4.289  21.439   6.971 -0.1326 -0.1872 -0.0983
42349W        W43213   5.119  18.362   2.249  0.0183 -0.3250  0.2340
42350W        W43214   3.919  19.623   6.656 -0.0135  0.1322 -0.0127
42351W        W43215   5.437  17.985   6.386 -0.1619  0.2270  0.0590
42352W        W43216   6.000  18.958   7.345 -0.0782 -0.1732  0.2190
42353W        W43217   6.510  21.599   9.011 -0.2486  0.1143 -0.1076
42354W        W43218   6.722  19.240   8.181 -0.1149 -0.1060  0.0061
42355W        W43219   8.284  20.320   4.064  0.1507  0.2372 -0.3157
42356W        W43220   6.638  14.932   6.747 -0.2019  0.0928  0.0144
42357W        W43221   7.404  20.962   5.048 -0.0365 -0.1860  0.1981
42358W        W43222   4.974  19.712   6.620 -0.2392 -0.0201 -0.0899
42359W        W43223   4.969  21.479   5.769  0.0995  0.0533 -0.1898
42360W        W43224   8.864  20.428   6.759 -0.0319  0.1821 -0.2826
42361W        W43225   2.544  21.801   4.735  0.0078  0.1303 -0.2538
42362W        W43226   7.074  19.395   6.468  0.1518 -0.2667 -0.3022
42363W        W43227   6.352  17.784   5.272 -0.0152 -0.0856  0.1362
42364W        W43228   7.966  20.438   5.979  0.1333 -0.0536  0.0957
42365W        W43229   5.796  18.809   3.293 -0.0854  0.0264  0.0535
42366W        W43230   5.856  14.744   2.944  0.2670 -0.0767 -0.4039
42367W        W43231  10.743  17.842   6.016  0.1675  0.1464 -0.1072
42368W        W43232   4.097  21.999   7.668 -0.0468  0.2551 -0.0489
42369W        W43233   4.665  20.136   7.406 -0.2295 -0.4304  0.0681
42370W        W43234   2.992  21.053   2.268 -0.0234 -0.1617 -0.5202
42371W        W43235   8.137  16.219   8.314  0.0379  0.1118  0.5772
42372W        W43236   3.188  20.721   1.867  0.0158  0.1806  0.3149
42373W        W43237   6.501  21.268   5.120 -0.1601  0.1896  0.4324
42374W        W43238   5.664  17.975   2.982  0.0795  0.0609 -0.0615
42375W        W43239  10.241  18.641   4.578  0.1602  0.1132 -0.0818
42376W        W43240   5.047  20.132   4.136  0.0681 -0.4713 -0.0404
42377W        W43241   5.297  22.315   6.924 -0.0088 -0.0421  0.2944
42378W        W43242   6.253  17.208   2.703 -0.3223  0.1083  0.1312
42379W        W43243   2.732  18.027   2.916  0.1459 -0.0457  0.1164
42380W        W43244   2.705  21.317   7.746 -0.2389 -0.1354  0.0975
42381W        W43245   4.764  23.107   6.855 -0.4444  0.0732 -0.1864
42382W        W43246   5.911  20.068   6.459  0.1309 -0.0136  0.0608
42383W        W43247   1.399  21.631   1.181 -0.1706 -0.3953  0.1164
42384W        W43248   6.194  21.661   6.666 -0.1004 -0.1253 -0.0382
42385W        W43249   5.593  21.911   7.171  0.0398  0.1037 -0.0534
42386W        W43250   4.899  17.249   7.102 -0.1464  0.0239 -0.1327
42387W        W43251   6.508  18.309   6.229  0.1210  0.2037  0.3544
42388W        W43252   7.457  19.024   2.640  0.1953 -0.1534 -0.2543
42389W        W43253   4.737  19.199   6.226  0.3471  0.1251  0.0525
42390W        W43254   3.715  20.339   3.851  0.4593 -0.0179 -0.2630
42391W        W43255   7.566  19.085   5.291  0.0043 -0.0612 -0.0069
42392W        W43256   3.539  18.188   4.651 -0.0042  0.0812  0.2127
42393W        W43257   5.985  18.594   8.945 -0.0772 -0.4091 -0.0817
42394W        W43258   8.231  19.577   5.562  0.1051 -0.1294 -0.1989
42395W        W43259   6.303  19.254   5.807  0.1712 -0.0976  0.1711
42396W        W43260   7.847  21.744   2.367 -0.3797  0.0687 -0.3149
42397W        W43261   2.830  18.510   2.982  0.4843 -0.0428  0.1547
42398W        W43262   4.122  21.091   7.466  0.0922  0.0480  0.0627
42399W        W43263   6.344  21.045   6.295 -0.3202  0.0245 -0.1454
42400W        W43264   6.033  22.236   2.986  0.1644  0.2035  0.0958
42401W        W43265   3.425  21.245   5.082 -0.0599  0.0349  0.0974
42402W        W43266   6.545  19.101   6.235  0.1779 -0.2785  0.0002
42403W        W43267   4.850  20.386   5.295 -0.1405 -0.0463 -0.0855
42404W        W43268   5.919  23.043   8.619 -0.0402 -0.2671  0.0191
42405W        W43269   9.034  17.772   5.945  0.2470 -0.0070 -0.2434
42406W        W43270  10.581  18.675   5.143 -0.0056 -0.0488  0.0279
42407W        W43271   9.414  18.094   6.055  0.0987  0.1821  0.0918
42408W        W43272   5.536  20.452   6.253  0.1175  0.0726 -0.0902
42409W        W43273   7.989  23.131   2.075  0.0853 -0.0078  0.1858
42410W        W43274   5.455  20.859   6.500 -0.0357  0.3458  0.2943
42411W        W43275   2.473  20.654   5.140 -0.2116  0.3051  0.0118
42412W        W43276   7.126  18.565   4.466 -0.2205 -0.0148  0.0790
42413W        W43277   7.119  18.133   4.724  0.0344  0.2214 -0.0265
42414W        W43278   6.895  23.695   4.055  0.2388 -0.0916  0.0348
42415W        W43279   6.688  18.472   4.827 -0.1110  0.1292 -0.1031
42416W        W43280   5.128  18.457   5.688  0.0832 -0.1163  0.2743
42417W        W43281   5.458  18.955   5.470 -0.1903  0.1127 -0.2582
42418W        W43282   1.915  20.145   6.353 -0.0608  0.1756  0.1915
42419W        W43283   8.667  16.137   4.638  0.4849 -0.0164 -0.0907
42420W        W43284   6.459  20.503   6.456  0.0170 -0.2692 -0.1078
42421W        W43285   4.903  18.781   5.402  0.1302  0.0617  0.4225
42422W        W43286   3.829  17.498   6.791  0.0708  0.0859 -0.3385
42423W        W43287   6.515  19.613   7.777 -0.3309 -0.2981  0.1481
42424W        W43288   3.988  21.307   6.105  0.1783  0.1406 -0.0056
42425W        W43289   6.939  21.175   2.813  0.0568 -0.0937  0.1086
42426W        W43290   4.758  17.370   5.400 -0.0045 -0.1123 -0.2254
42427W        W43291   4.947  20.555   5.821 -0.0056  0.2535 -0.3422
42428W        W43292  10.653  19.130   7.278  0.0817 -0.2145  0.1558
42429W        W43293   5.144  15.555   6.858  0.1663 -0.1316 -0.1880
42430W        W43294   5.205  21.643   4.874  0.1349 -0.2342  0.3350
42431W        W43295   6.598  20.693   5.144  0.0568 -0.2464  0.0641
42432W        W43296   4.943  22.518   3.376 -0.1837 -0.1359  0.3182
42433W        W43297   3.133  21.195   7.220 -0.0853  0.1033 -0.2761
42434W        W43298   4.611  17.043   5.823  0.0527 -0.1037 -0.1091
42435W        W43299   3.501  17.295   3.598 -0.2726 -0.2373  0.0743
42436W        W43300   6.976  15.533   9.261 -0.0819 -0.1482  0.5217
42437W        W43301   4.982  19.209   4.591 -0.1434 -0.1622 -0.0670
42438W        W43302   6.607  19.436   5.408 -0.0045  0.2087 -0.3048
42439W        W43303   3.808  21.005   5.248 -0.0145 -0.1753  0.0709
42440W        W43304   5.566  17.550   5.503  0.2283 -0.1334 -0.0959
42441W        W43305   6.461  19.577   3.976  0.1739 -0.0450 -0.2189
42442W        W43306   5.353  20.315   4.505 -0.0662 -0.0707  0.2634
42443W        W43307   5.351  21.930   4.357 -0.1898  0.1985 -0.1400
42444W        W43308   9.764  23.606   6.576 -0.3369 -0.0756 -0.1733
42445W        W43309   6.335  19.962   4.788  0.0024  0.0460  0.4417
42446W        W43310   5.066  17.205   4.190 -0.0117 -0.0293 -0.1255
42447W        W43311   9.551  22.747   4.493  0.3103  0.3902  0.0639
42448W        W43312   9.621  15.026   4.407  0.3496 -0.0356  0.2855
42449W        W43313   7.775  17.420   8.798  0.0850 -0.1861  0.3250
42450W        W43314   5.094  17.950   5.801  0.0532 -0.0885  0.1026
42451W        W43315   9.799  18.362   6.309 -0.0049  0.2308  0.2254
42452W        W43316   5.190  21.047   6.043 -0.0032 -0.1869 -0.0212
42453W        W43317   4.468  22.913   3.834 -0.1064 -0.0674 -0.2301
42454W        W43318   5.220  20.163   5.976 -0.1352 -0.2154 -0.2035
42455W        W43319   4.608  17.886   5.430  0.0138  0.0145  0.0559
42456W        W43320   6.005  22.668   5.147 -0.2083 -0.1907 -0.1664
42457W        W43321   5.285  21.780   7.593  0.5940 -0.1789  0.2048
42458W        W43322   5.578  21.219   2.842  0.2329  0.2917  0.3277
42459W        W43323   8.587  19.208   5.413 -0.1288  0.2076 -0.0711
42460W        W43324   4.005  18.823   7.331  0.0759 -0.1523 -0.0722
42461W        W43325   5.824  19.734   3.154 -0.3687  0.1378  0.0529
42462W        W43326   4.517  22.342   4.642 -0.1346  0.1894 -0.2145
42463W        W43327   5.074  19.786   7.184  0.0923 -0.2766 -0.0407
42464W        W43328   4.296  22.361   5.467 -0.3508 -0.2057 -0.1413
42465W        W43329   4.034  23.214   4.128 -0.2950 -0.1874 -0.0719
42466W        W43330   9.840  19.767   4.903 -0.0527  0.2709  0.0779
42467W        W43331   4.869  17.185   8.741 -0.0899  0.2879  0.0549
42468W        W43332   4.236  17.529   5.567  0.1350  0.1050  0.1868
42469W        W43333   4.931  20.680   7.585  0.0586 -0.2146 -0.3311
42470W        W43334   4.535  19.709   6.231  0.0241 -0.0788  0.2760
42471W        W43335   4.445  22.339   7.386 -0.1931 -0.1564  0.3306
42472W        W43336   6.150  17.934   3.309 -0.3142 -0.2704 -0.2953
42473W        W43337   5.349  17.565   3.134  0.0589 -0.2443  0.1557
42474W        W43338   4.774  18.412   6.857  0.0147 -0.2181 -0.0996
42475W        W43339   3.682  20.953   7.171 -0.3306 -0.1736 -0.2242
42476W        W43340   8.311  18.707   6.685  0.3975  0.0533 -0.1493
42477W        W43341   8.344  17.097   6.279  0.3941  0.0097 -0.1056
42478W        W43342   7.038  21.344   6.504  0.0229 -0.1549 -0.1135
42479W        W43343   5.492  20.651   7.333 -0.4645  0.1589 -0.0068
42480W        W43344   8.623  18.426   3.672 -0.5123  0.2497  0.0069
42481W        W43345   7.541  20.584   4.619  0.1231 -0.0610  0.0789
42482W        W43346   6.696  18.617   4.018  0.1560 -0.2078  0.0112
42483W        W43347   5.798  17.592   3.457 -0.1872  0.0943  0.1236
42484W        W43348   7.470  17.418   8.341  0.0825  0.0265  0.0171
42485W        W43349   3.723  18.695   4.458 -0.0818 -0.2113 -0.0553
42486W        W43350   3.629  22.464   5.256 -0.1939  0.1274  0.2170
42487W        W43351   7.535  18.580   4.928 -0.2216 -0.1299 -0.2737
42488W        W43352   6.255  16.893   7.443  0.1236 -0.3686 -0.1552
42489W        W43353   7.310  22.395   6.354 -0.1707  0.3483  0.0538
42490W        W43354   8.636  18.030   6.137  0.0094 -0.1214  0.1404
42491W        W43355   2.264  21.439   4.909  0.0101 -0.1611  0.0904
42492W        W43356   5.699  18.284   5.050 -0.5166 -0.2470 -0.1808
42493W        W43357   3.636  17.125   7.650 -0.1150  0.0131 -0.1822
42494W        W43358   8.619  19.995   6.959 -0.5217 -0.1315  0.1061
42495W        W43359   7.943  21.439  10.154  0.0495  0.1004 -0.0464
42496W        W43360   5.753  19.353   5.330  0.3665  0.1344 -0.0406
42497W        W43361   5.997  23.710   4.171 -0.1680  0.2499  0.1712
42498W        W43362   7.353  18.493   8.603  0.1738 -0.1821 -0.1751
42499W        W43363   8.191  18.501   2.056  0.3179  0.1614 -0.1172
42500W        W43364   5.245  17.663   4.641 -0.1612  0.3152  0.0115
42501W        W43365   4.257  20.137   4.703 -0.2153 -0.2809  0.0334
42502W        W43366   4.947  18.254   6.302  0.1146 -0.0057  0.2952
42503W        W43367   3.301  20.652   4.668 -0.0750 -0.0278 -0.0135
42504W        W43368  10.648  18.729   3.565  0.2292  0.0464 -0.1297
42505W        W43369   5.799  19.597   3.737  0.3186 -0.2429 -0.2537
42506W        W43370   4.524  21.924   7.001 -0.0558 -0.0978  0.2663
42507W        W43371   6.063  22.012   7.006  0.0783 -0.2140 -0.0197
42508W        W43372   5.328  22.773   5.557 -0.3422  0.3902 -0.1781
42509W        W43373   5.914  22.462   1.891  0.0751 -0.0791 -0.4292
42510W        W43374   4.975  21.402   7.521  0.1689  0.2282 -0.1796
42511W        W43375   5.607  18.987   4.088  0.1065 -0.1585 -0.0063
42512W        W43376   5.186  20.891   8.554 -0.3929 -0.3702 -0.2193
42513W        W43377   5.564  23.206   5.354  0.1154  0.2378  0.0050
42514W        W43378   5.074  15.422   7.842  0.2521 -0.1162 -0.1187
42515W        W43379   4.786  21.415   4.791 -0.3234  0.1925 -0.2460
42516W        W43380   5.356  20.315   5.337  0.0427 -0.1314  0.1975
42517W        W43381   5.108  20.956   7.186 -0.3942 -0.2066 -0.0624
42518W        W43382   9.644  18.304   3.816  0.2532 -0.3230  0.0520
42519W        W43383   5.641  22.017   6.132 -0.1231  0.0303  0.2480
42520W        W43384   6.769  20.214   6.021 -0.0835 -0.1409 -0.1150
42521W        W43385   2.061  18.374   4.958 -0.2533 -0.1131 -0.0959
42522W        W43386   4.135  19.998   6.395 -0.0593 -0.2207 -0.2835
42523W        W43387   8.347  18.321   3.016  0.4697 -0.2812 -0.0321
42524W        W43388   5.792  18.470   6.769  0.2361  0.2242 -0.0406
42525W        W43389   5.725  22.672   3.881  0.1701 -0.3440  0.0209
42526W        W43390   8.018  19.508   7.800  0.1085 -0.1893 -0.2246
42527W        W43391   9.823  20.322   6.511  0.1874 -0.1993 -0.0057
42528W        W43392   5.093  22.854   6.543  0.0341 -0.0308 -0.2333
42529W        W43393   9.169  20.007   4.077 -0.2842 -0.0063 -0.0778
42530W        W43394   6.970  17.485   5.724 -0.0578  0.1397 -0.4057
42531W        W43395   6.161  19.627   6.133 -0.0424 -0.0400  0.2939
42532W        W43396   6.039  20.885   4.613  0.3218 -0.3471 -0.1480
42533W        W43397   6.591  17.459   7.191  0.3417  0.1160  0.1253
42534W        W43398   5.558  17.727   6.775 -0.3489 -0.1407 -0.2738
42535W        W43399   2.014  20.840   5.201  0.2273 -0.0948  0.0893
42536W        W43400   5.808  23.603   5.490 -0.0850 -0.1192  0.2198
42537W        W43401   7.574  21.190   7.255 -0.0283  0.0031  0.1774
42538W        W43402   3.990  19.565   6.110  0.0869  0.1907  0.1491
42539W        W43403   2.928  19.863   5.210 -0.1940  0.2505 -0.1267
42540W        W43404   6.387  22.143   6.623  0.1255 -0.1858  0.2827
42541W        W43405   4.350  16.707   3.520  0.1639 -0.1989 -0.1082
42542W        W43406   6.305  19.144   7.703 -0.0459 -0.0517 -0.2064
42543W        W43407   5.499  19.802   5.231  0.0172 -0.1099 -0.1910
42544W        W43408   6.272  19.535   3.018  0.1173 -0.2059 -0.1288
42545W        W43409   7.612  20.330   5.441  0.0648 -0.1192 -0.1908
42546W        W43410   5.261  21.557   3.052  0.1105  0.2476 -0.0025
42547W        W43411   4.689  19.231   2.500  0.1331  0.2411 -0.1408
42548W        W43412   4.151  21.094   9.425  0.0934  0.0618 -0.0753
42549W        W43413   3.512  17.774   8.344  0.1045 -0.1914 -0.4266
42550W        W43414   4.175  19.603  10.386 -0.0651  0.0885  0.1477
42551W        W43415   4.404  19.201   4.713 -0.0039  0.2990  0.1221
42552W        W43416   4.769  18.686   5.953  0.0519  0.1669 -0.0046
42553W        W43417   6.190  17.694   7.369 -0.0480  0.4290  0.4459
42554W        W43418   4.981  24.038   7.798  0.0195 -0.2046  0.0622
42555W        W43419   7.780  17.706   3.723  0.1847 -0.1242 -0.0153
42556W        W43420   7.560  20.930   4.143  0.0107  0.3601  0.1201
42557W        W43421   5.444  20.957   4.142 -0.0939 -0.0961  0.1574
42558W        W43422   8.248  21.418   4.035 -0.2009 -0.0660  0.1153
42559W        W43423   6.980  19.816   5.741  0.0927  0.0120 -0.1431
42560W        W43424   4.149  19.251   5.300  0.0062  0.1036 -0.0810
42561W        W43425   8.690  19.703   5.524  0.0250 -0.0543  0.1080
42562W        W43426   4.341  20.952   3.978  0.2112  0.0281 -0.2183
42563W        W43427   9.843  20.122   4.377  0.4516 -0.0958  0.0375
42564W        W43428   6.233  18.363   3.940  0.1307 -0.1413 -0.1413
42565W        W43429   6.839  18.987   4.566  0.0154  0.0881  0.1369
42566W        W43430   4.974  21.101   4.103 -0.3684 -0.1603 -0.0874
42567W        W43431   4.085  17.861   7.572 -0.1398  0.0698  0.2052
42568W        W43432   6.443  20.199   5.199 -0.1854  0.2023  0.1661
42569W        W43433   8.039  19.509   8.361 -0.0241  0.0822 -0.1550
42570W        W43434   3.639  18.752   8.367  0.0460 -0.0101  0.1941
42571W        W43435   2.532  19.653   7.473  0.0148 -0.2597  0.0536
42572W        W43436   6.824  18.874   7.310  0.0021  0.0226  0.2538
42573W        W43437   5.458  18.917   7.456  0.3601  0.0222  0.0572
42574W        W43438   6.457  19.842   5.799  0.0193 -0.0754 -0.0425
42575W        W43439   9.064  19.798   5.159 -0.2248 -0.0007  0.2788
42576W        W43440   6.909  21.713   3.617 -0.0649  0.2003 -0.0491
42577W        W43441   5.517  21.851   6.664  0.3752  0.0742  0.5180
42578W        W43442   8.113  21.535   4.569 -0.2981  0.0781 -0.0812
42579W        W43443   4.932  21.372   5.260 -0.2266  0.0911 -0.2269
42580W        W43444   5.985  21.738   5.017 -0.3421 -0.1425  0.2430
42581W        W43445   7.558  21.067   8.007 -0.1118 -0.1912  0.0387
42582W        W43446   4.641  23.034   6.193 -0.2808  0.0397 -0.0856
42583W        W43447   4.809  21.276   8.566 -0.0274 -0.0963  0.0746
42584W        W43448   6.282  22.001   4.676 -0.0904 -0.3177 -0.0708
42585W        W43449   7.844  22.777   6.431 -0.3102 -0.1053  0.0950
42586W        W43450   5.810  21.343   7.816 -0.3047  0.0536 -0.1201
42587W        W43451   4.245  18.732   7.829  0.2955  0.0173  0.1183
42588W        W43452   4.918  22.283   4.351 -0.0427  0.2524 -0.0611
42589W        W43453   5.475  19.477   4.806 -0.0279 -0.1356  0.0944
42590W        W43454   7.412  22.149   5.320  0.0019 -0.1537 -0.2501
42591W        W43455   6.245  19.530   6.673  0.0846 -0.1635 -0.2451
42592W        W43456   2.013  19.489   9.531  0.2170 -0.0543 -0.1017
42593W        W43457   5.439  20.855   9.013  0.1877  0.1102  0.0155
42594W        W43458   7.127  18.937   5.593  0.0517  0.2326  0.4070
42595W        W43459   7.328  24.176  10.786 -0.0809  0.2201 -0.1147
42596W        W43460   4.218  20.590   8.285  0.1045 -0.1979 -0.1151
42597W        W43461   1.612  22.041   9.462 -0.2476 -0.0951  0.1303
42598W        W43462   2.592  18.851   9.324  0.0193 -0.0649  0.2076
42599W        W43463   5.563  22.846   7.399  0.2405 -0.2069  0.0094
42600W        W43464   6.098  22.698   8.994  0.1064  0.2385 -0.0043
42601W        W43465   4.238  16.605  11.236  0.1779 -0.1949 -0.0720
42602W        W43466   6.671  15.205  11.144  0.0626  0.1706  0.2010
42603W        W43467   5.229  17.583  10.102  0.0389 -0.4584  0.2158
42604W        W43468   4.917  19.719   5.875  0.1977  0.3531 -0.0962
42605W        W43469   7.823  18.959   7.526 -0.1051 -0.0339 -0.0660
42606W        W43470   4.765  20.372  10.383  0.0286  0.0225  0.1944
42607W        W43471   3.465  20.728  11.494  0.0805  0.0097 -0.0307
42608W        W43472   4.938  22.774   8.111 -0.0233  0.0593  0.0572
42609W        W43473   2.691  19.908  11.248 -0.2488  0.0117 -0.7315
42610W        W43474   4.571  18.031   7.309  0.0090 -0.2707 -0.3409
42611W        W43475   6.973  17.679  10.176  0.0821 -0.0615 -0.0390
42612W        W43476   6.584  19.031  10.050 -0.2262  0.1558 -0.3430
42613W        W43477   5.514  20.072   9.571  0.0211 -0.1585 -0.2556
42614W        W43478   4.467  19.879   7.776 -0.0955  0.2412  0.2287
42615W        W43479   4.626  19.529   9.010 -0.0955  0.1096 -0.0845
42616W        W43480   2.002  19.973   9.362  0.1743  0.1423 -0.0936
42617W        W43481   5.269  19.360   9.383 -0.2585  0.1199 -0.1310
42618W        W43482   9.612  18.329  11.845  0.1536  0.0929 -0.1747
42619W        W43483   5.600  20.696   7.792 -0.3221  0.2471  0.2092
42620W        W43484   5.816  18.412  10.177  0.1833  0.1294  0.0049
42621W        W43485   4.967  16.391   9.173  0.1305 -0.1041 -0.2411
42622W        W43486   2.929  19.431   7.840  0.0768 -0.2342  0.0643
42623W        W43487   2.765  22.061  10.406 -0.0182  0.3028  0.0991
42624W        W43488   4.079  20.210  10.954 -0.3163  0.1090 -0.0003
42625W        W43489   5.942  18.771  10.567 -0.1762  0.0477  0.0064
42626W        W43490   3.764  18.670  11.749  0.0062  0.1507 -0.0962
42627W        W43491   6.779  21.366  12.664 -0.0932  0.1150 -0.2415
42628W        W43492   6.234  19.448  10.179 -0.1626  0.2157 -0.0925
42629W        W43493   3.743  19.304   8.473 -0.0266  0.0224 -0.0477
42630W        W43494   6.641  19.784   9.105 -0.0729  0.0502 -0.3118
42631W        W43495   8.258  18.999   9.258 -0.0308 -0.0087  0.1117
42632W        W43496   8.311  17.915   8.296 -0.0467 -0.1569 -0.0498
42633W        W43497   8.817  19.363  11.041  0.0091 -0.2039 -0.2627
42634W        W43498   5.230  20.533   6.799  0.2632  0.1527 -0.0169
42635W        W43499   7.080  16.314   8.157 -0.3557  0.1710 -0.0219
42636W        W43500   3.872  21.482   8.211  0.2948  0.1814  0.1161
42637W        W43501   6.057  22.919  10.549  0.2953 -0.0963  0.2439
42638W        W43502   4.953  18.176  11.294 -0.2643  0.1418  0.0736
42639W        W43503   7.239  17.164  10.826 -0.0462  0.1457 -0.1155
42640W        W43504   7.427  17.299   7.525  0.5607  0.2691  0.3361
42641W        W43505   5.404  18.106   7.110 -0.0998  0.1616 -0.1838
42642W        W43506   4.435  18.043   8.311 -0.0325  0.1244 -0.0120
42643W        W43507   6.899  21.169   8.126 -0.0161  0.0093  0.0988
42644W        W43508   5.314  20.313   7.704  0.0454  0.0549 -0.3101
42645W        W43509   6.384  19.968   6.526  0.0429  0.3371  0.1228
42646W        W43510   6.914  16.247   8.652 -0.0690  0.1679 -0.0731
42647W        W43511   1.445  22.753   9.002 -0.0002  0.3679 -0.2304
42648W        W43512   5.607  19.113   8.680  0.1834 -0.1010  0.0327
42649W        W43513   4.839  20.104   6.288  0.3012 -0.0598  0.0561
42650W        W43514   5.281  21.458   7.150 -0.0271  0.2542  0.1842
42651W        W43515   6.503  22.298   8.437  0.2106  0.1648 -0.0786
42652W        W43516   6.575  16.169   7.986  0.0685  0.0099  0.1226
42653W        W43517   1.988  22.560  10.270 -0.2081  0.1297 -0.1784
42654W        W43518   7.086  21.662  10.662 -0.0720  0.0864 -0.2368
42655W        W43519   2.385  22.014   8.499 -0.0425 -0.2297  0.1436
42656W        W43520   8.532  15.514   7.170  0.0289  0.1368 -0.0863
42657W        W43521   3.660  16.586   7.822  0.2450 -0.0616  0.0206
42658W        W43522   4.601  23.109   8.458 -0.0935 -0.0649  0.0104
42659W        W43523   6.126  20.734   5.828 -0.0084  0.2679 -0.0693
42660W        W43524   6.556  22.156   7.171 -0.0467 -0.1931  0.0330
42661W        W43525   7.906  19.058   8.056 -0.0869  0.1940 -0.2034
42662W        W43526   8.050  21.100   8.782 -0.1382  0.2537  0.1771
42663W        W43527   8.113  20.153  11.165 -0.1756  0.3500  0.0899
42664W        W43528   5.062  21.864  10.572 -0.1624  0.1976 -0.1430
42665W        W43529   6.033  19.162  11.028  0.0436  0.1945 -0.0114
42666W        W43530  10.245  21.615   6.618 -0.0078 -0.2097  0.0890
42667W        W43531   5.159  20.011  10.381 -0.4429  0.2411 -0.0279
42668W        W43532   4.559  15.280   7.701 -0.1602 -0.2305 -0.1573
42669W        W43533   3.820  19.294  10.067  0.2765  0.1898  0.2533
42670W        W43534   5.976  19.445   8.526 -0.0590 -0.1251  0.4572
42671W        W43535   6.997  19.565   7.917 -0.0216  0.3096 -0.0589
42672W        W43536   4.047  19.446  12.230 -0.1413 -0.3451 -0.2282
42673W        W43537   6.144  18.728  10.018 -0.2748 -0.2038  0.0967
42674W        W43538   3.839  16.898   4.534  0.1003 -0.2405  0.2397
42675W        W43539   8.097  16.727   8.693  0.0396 -0.0245 -0.1709
42676W        W43540   4.758  16.454  10.762 -0.0482  0.0314 -0.0008
42677W        W43541   7.207  20.391   7.784  0.1436 -0.0684 -0.2960
42678W        W43542   7.714  21.814   7.336  0.7143  0.0775  0.2001
42679W        W43543   6.593  17.238   7.644 -0.3437  0.1158 -0.2262
42680W        W43544   6.863  21.650  11.523 -0.3141 -0.4416 -0.0855
42681W        W43545   7.936  15.874   9.569  0.1216 -0.2049 -0.0706
42682W        W43546   5.477  16.280   9.186  0.1225 -0.1446  0.2797
42683W        W43547   6.816  21.426  10.022  0.0162  0.2542 -0.0819
42684W        W43548   3.406  20.200   7.824  0.0153  0.2361  0.4018
42685W        W43549   5.476  21.364   8.599  0.1376  0.0668  0.1498
42686W        W43550   5.388  17.218   8.888  0.5652  0.0220 -0.1246
42687W        W43551   7.913  18.629   8.922 -0.2437  0.1943 -0.5490
42688W        W43552   9.160  17.319   7.350 -0.3312 -0.0415 -0.1277
42689W        W43553   3.297  20.880  10.343 -0.3001 -0.1460  0.1427
42690W        W43554   4.325  16.714   8.522 -0.2678  0.1460 -0.1086
42691W        W43555   5.115  16.076  10.730  0.0252  0.1055  0.0542
42692W        W43556   9.544  20.911   9.206 -0.2241 -0.1009 -0.2574
42693W        W43557   4.667  19.566   7.307  0.0192  0.0790  0.0271
42694W        W43558   6.277  18.614   7.758  0.0297  0.0743  0.0161
42695W        W43559   6.868  23.203   6.496 -0.4031  0.1112  0.0148
42696W        W43560   8.822  16.555   7.845  0.0938  0.2401 -0.0038
42697W        W43561   7.038  21.680   9.040 -0.2223  0.0032 -0.2109
42698W        W43562   6.650  22.254   7.846  0.1180  0.2249  0.2084
42699W        W43563   4.973  22.280  11.248  0.0057  0.0875  0.1126
42700W        W43564   9.857  16.052   7.086  0.0718  0.2652 -0.0602
42701W        W43565   6.349  18.157  11.395  0.0290  0.1699  0.0712
42702W        W43566   2.857  23.402  10.508 -0.0506  0.0677 -0.0443
42703W        W43567   6.733  21.457   8.571  0.0886  0.2039 -0.0631
42704W        W43568   7.082  19.859   8.866  0.3759  0.1221  0.0863
42705W        W43569   5.840  21.171  10.020  0.0490  0.1637  0.3608
42706W        W43570   8.296  18.826   7.816  0.0199  0.0126  0.0209
42707W        W43571   3.600  17.547   7.845  0.0094  0.0117 -0.2739
42708W        W43572   7.705  17.955  10.645 -0.2791  0.0371  0.0524
42709W        W43573   3.292  21.388  10.895  0.2090  0.2672 -0.1362
42710W        W43574   6.390  17.077   9.119  0.0258 -0.4157  0.2551
42711W        W43575   7.477  18.661   9.183 -0.2616  0.2856 -0.1812
42712W        W43576   8.054  18.479   7.583  0.1792  0.1123  0.1319
42713W        W43577   7.413  21.671   9.888 -0.1144 -0.1759  0.0645
42714W        W43578   7.266  20.199   9.330 -0.1218 -0.1129 -0.4394
42715W        W43579   8.182  17.999   7.724 -0.0465  0.1662  0.1249
42716W        W43580   6.111  18.228   8.019  0.2561  0.2086 -0.2302
42717W        W43581   5.335  19.526   8.407  0.1660  0.3042 -0.1431
42718W        W43582   4.867  19.066  12.076  0.0389  0.0652  0.2101
42719W        W43583   6.859  19.773   8.434 -0.0792 -0.1747  0.1638
42720W        W43584   4.981  21.553   8.937 -0.0678  0.2002 -0.1264
42721W        W43585   5.633  21.005   6.951 -0.1450 -0.1778  0.0239
42722W        W43586   7.318  21.919  10.292 -0.0419 -0.3828  0.0605
42723W        W43587   8.717  20.345   8.989  0.2124  0.1830 -0.0438
42724W        W43588   3.914  23.016   7.567  0.2062 -0.0293 -0.0565
42725W        W43589   7.440  18.405  10.702 -0.4533  0.2312 -0.2711
42726W        W43590   8.580  21.291   8.980 -0.2556  0.3793  0.2426
42727W        W43591   3.021  18.907   6.018 -0.1439 -0.3416  0.0746
42728W        W43592   4.822  18.072   8.022  0.0075  0.2825 -0.0972
42729W        W43593   8.590  21.892   8.278 -0.0497 -0.1740  0.1542
42730W        W43594   9.023  17.086   7.947  0.1978 -0.2146  0.1522
42731W        W43595   4.444  19.093   7.442  0.2692 -0.1037  0.2701
42732W        W43596   3.594  20.932   7.819  0.1936 -0.2650  0.3142
42733W        W43597   6.671  17.685   9.065 -0.0585 -0.2068  0.0734
42734W        W43598   5.741  21.807   8.335 -0.0340  0.0203 -0.0571
42735W        W43599   6.238  18.700   6.032 -0.3055 -0.0573  0.1543
42736W        W43600   3.944  19.636   9.689  0.1847  0.1284 -0.0162
42737W        W43601   5.366  19.614  10.798  0.0138  0.3028 -0.1144
42738W        W43602   7.812  18.148   7.170 -0.2918 -0.2291  0.2072
42739W        W43603   6.976  22.184   8.302  0.0164 -0.1981  0.0486
42740W        W43604   6.299  21.028   8.769  0.0922 -0.0342 -0.3014
42741W        W43605   4.488  18.797  10.607  0.1188  0.1538 -0.0319
42742W        W43606   6.246  21.233   7.595  0.0419  0.0840 -0.1790
42743W        W43607   2.540  20.140   7.455  0.0525 -0.1478 -0.2745
42744W        W43608   5.797  22.450   9.252  0.1710 -0.2168  0.0317
42745W        W43609   7.070  17.627   7.503 -0.1347 -0.0374  0.1546
42746W        W43610   4.420  18.680  10.097 -0.1264 -0.0284  0.2426
42747W        W43611   6.779  16.751   8.552  0.1876 -0.1436  0.2795
42748W        W43612   2.928  21.283   8.197  0.1241 -0.0893 -0.2389
42749W        W43613   5.514  19.633   7.872  0.1656  0.0560 -0.0450
42750W        W43614   2.758  17.966   7.005 -0.2392  0.0958  0.2534
42751W        W43615   7.092  18.505   8.994  0.0040 -0.1006 -0.4699
42752W        W43616   5.707  17.927   8.049  0.3892 -0.4483 -0.3075
42753W        W43617   7.408  19.969   7.601  0.2627  0.1585 -0.3912
42754W        W43618   4.766  22.192  10.191 -0.0474 -0.1761 -0.2804
42755W        W43619   8.524  20.399   8.529  0.0499 -0.1294  0.0562
42756W        W43620   8.004  18.604   9.443 -0.1441 -0.2796  0.0876
42757W        W43621   5.034  16.919   7.555 -0.2248 -0.0992  0.1816
42758W        W43622   5.492  16.991   8.019 -0.0537 -0.4623 -0.0696
42759W        W43623   1.668  22.487   9.405  0.1170  0.1994 -0.3998
42760W        W43624   6.868  21.887  10.122  0.2528 -0.0386  0.1239
42761W        W43625   6.159  21.205   7.102  0.0337  0.0421  0.0411
42762W        W43626   6.614  16.642   9.023 -0.1876  0.0526 -0.2157
42763W        W43627   5.876  19.180  10.003  0.3371  0.0294 -0.2248
42764W        W43628   4.862  20.891  10.104 -0.2102  0.0197  0.0118
42765W        W43629   6.799  20.928   6.503 -0.1199  0.1366  0.2858
42766W        W43630   5.858  17.754  10.236 -0.0181 -0.0301 -0.2169
42767W        W43631   8.549  16.975   7.758 -0.0027  0.1140  0.2042
42768W        W43632   4.201  22.001  10.746  0.0274 -0.1384  0.1212
42769W        W43633   5.292  21.439   9.336 -0.0276  0.3633  0.1356
42770W        W43634   0.419  21.695   9.164 -0.0606  0.0654  0.1270
42771W        W43635   7.222  18.040  10.452 -0.0457 -0.1000 -0.0009
42772W        W43636   4.569  21.433   7.989 -0.1760 -0.0275  0.0606
42773W        W43637   7.812  19.969   6.662  0.1474  0.0201  0.4353
42774W        W43638   5.073  19.829   7.647  0.0696 -0.1334 -0.1000
42775W        W43639   4.942  19.702   8.127  0.0673  0.1164 -0.2526
42776W        W43640   6.066  20.598   9.181 -0.3184  0.1762 -0.1882
42777W        W43641   7.039  19.793  10.383 -0.4992 -0.1141  0.0381
42778W        W43642   5.278  15.898   8.103 -0.2664  0.1295 -0.0079
42779W        W43643   4.931  18.906   7.485 -0.1769  0.0481 -0.1665
42780W        W43644   6.080  18.897   8.585  0.1642  0.0255  0.0716
42781W        W43645   4.509  17.479   7.430  0.0456 -0.1814  0.0846
42782W        W43646   5.392  19.958   8.561 -0.0358 -0.1391  0.1136
42783W        W43647   3.327  21.027   6.746 -0.0008  0.1797 -0.1108
42784W        W43648   4.495  20.887   9.722  0.0886  0.1028 -0.1718
42785W        W43649   4.495  17.494  11.482 -0.1554 -0.0594  0.1589
42786W        W43650   3.765  16.459   9.451  0.4226 -0.2805  0.2659
42787W        W43651   4.879  15.119  10.455  0.1531 -0.1908 -0.3189
42788W        W43652   8.571  16.740   9.476 -0.1837  0.1174 -0.4461
42789W        W43653   5.313  15.529   7.473 -0.2038 -0.4289  0.2468
42790W        W43654   3.782  18.435  10.449  0.0085  0.0477  0.0876
42791W        W43655   7.081  17.703  10.829 -0.0125  0.3201 -0.0487
42792W        W43656   5.678  18.660   8.318 -0.2614  0.0259  0.0184
42793W        W43657   8.163  18.170   9.715  0.4339  0.1869 -0.3239
42794W        W43658   6.844  18.141   6.718 -0.0856  0.0884 -0.2124
42795W        W43659   4.874  18.437   9.615 -0.0391 -0.1372  0.0719
42796W        W43660   6.983  20.962   9.341 -0.0244 -0.1269 -0.1417
42797W        W43661   3.330  17.433   5.465  0.0757  0.0524 -0.0020
42798W        W43662   2.006  21.188  10.717 -0.0819  0.2416  0.0704
42799W        W43663   6.047  19.906   6.926  0.0472 -0.1020  0.0956
42800W        W43664   8.063  21.845   8.158  0.3109  0.1122  0.2019
42801W        W43665   5.648  19.680   6.110 -0.3260  0.1324  0.0205
42802W        W43666   6.074  19.851  10.340 -0.1114  0.1865  0.2320
42803W        W43667   4.676  18.472  10.932 -0.0609 -0.0617 -0.0548
42804W        W43668   4.919  20.158   6.800 -0.3750  0.0242 -0.1522
42805W        W43669   8.244  20.265   9.017  0.2878 -0.2491 -0.0432
42806W        W43670   3.824  19.734   8.720 -0.1403  0.1840 -0.2819
42807W        W43671   7.284  22.821   7.370  0.0541  0.5721  0.1823
42808W        W43672   6.076  19.168   6.332 -0.1260 -0.2226 -0.2320
42809W        W43673   7.794  21.051   6.782 -0.0038  0.0687  0.2988
42810W        W43674   4.769  19.760   8.599  0.2152 -0.1606  0.0879
42811W        W43675   6.432  20.151  12.656 -0.0512  0.5183 -0.1998
42812W        W43676   7.135  21.037  11.790  0.0317  0.0123 -0.1870
42813W        W43677   8.981  17.065   9.349  0.0159 -0.1262  0.2541
42814W        W43678   7.564  20.538  10.428  0.1831  0.2192 -0.0985
42815W        W43679   4.571  16.408   6.725  0.0353  0.1383 -0.0776
42816W        W43680   9.705  20.165   6.955  0.4669  0.3180 -0.0743
42817W        W43681   4.877  19.748  10.744  0.1815  0.1320  0.0512
42818W        W43682   3.611  21.833  11.937  0.1496 -0.3446 -0.0437
42819W        W43683   8.583  17.100  10.722 -0.1695  0.1762  0.2386
42820W        W43684   6.247  23.183   8.066  0.0606  0.1621  0.0294
42821W        W43685   7.696  18.591   7.864 -0.0954 -0.0826 -0.0071
42822W        W43686   7.139  20.302   9.956 -0.0061 -0.0115  0.0351
42823W        W43687   6.337  18.092  12.464 -0.0142 -0.0367  0.1549
42824W        W43688   4.870  19.234   5.732  0.1998 -0.0745  0.0951
42825W        W43689   5.849  20.408   8.206  0.0038  0.0267  0.4480
42826W        W43690   4.053  18.963  12.520 -0.2044  0.0775 -0.1432
42827W        W43691   4.996  19.921   5.427 -0.0085 -0.0675  0.1187
42828W        W43692   6.743  17.313  10.907  0.1259  0.1079 -0.1561
42829W        W43693   5.351  17.408  10.966  0.1479  0.0319  0.1916
42830W        W43694   6.369  19.548  10.642 -0.1036 -0.2808 -0.0235
42831W        W43695   5.596  20.584   9.385  0.0928  0.0044 -0.2480
42832W        W43696   9.141  21.914   7.353 -0.3786  0.0270  0.0422
42833W        W43697   3.776  19.775  10.156  0.2008  0.4199 -0.0962
42834W        W43698   4.354  18.265   7.850 -0.0568  0.0818 -0.0573
42835W        W43699   7.271  15.872   7.865 -0.1229 -0.2612  0.0069
42836W        W43700   7.996  21.316   8.120 -0.0580  0.0580 -0.0082
42837W        W43701   6.059  20.859   7.937  0.0451 -0.0303  0.4058
42838W        W43702  10.189  20.154   9.219  0.1277  0.2981  0.2721
42839W        W43703   3.481  22.472   9.600  0.1330  0.3500 -0.0564
42840W        W43704   7.952  22.093   7.649  0.2874 -0.1753  0.1231
42841W        W43705   2.142  19.145   7.031 -0.4194 -0.0393 -0.1139
42842W        W43706   4.888  17.541   8.264 -0.2375  0.0913  0.1844
42843W        W43707   4.532  20.852   8.641 -0.0833 -0.0188  0.0716
42844W        W43708   7.019  22.486   9.199 -0.0129  0.3125  0.2441
42845W        W43709   8.737  19.530   8.488 -0.5636 -0.0639 -0.1933
42846W        W43710   5.041  19.811   9.462 -0.1854 -0.0919  0.2951
42847W        W43711   8.177  21.159   7.601 -0.2169 -0.0850 -0.0083
42848W        W43712   6.014  21.188   6.625 -0.3120 -0.0264  0.0348
42849W        W43713   4.809  18.924  11.065 -0.0828  0.1597 -0.2527
42850W        W43714   9.249  21.803   8.939 -0.0788 -0.0282  0.3671
42851W        W43715   8.021  18.278   8.117 -0.1368  0.1106  0.0771
42852W        W43716   6.138  17.692   8.067  0.2561 -0.0592  0.1049
42853W        W43717   3.205  21.503   8.674  0.3068 -0.0944  0.1637
42854W        W43718   7.122  21.598   8.281 -0.3533  0.0784  0.0392
42855W        W43719   5.758  18.696   9.726  0.1919  0.2378  0.0101
42856W        W43720   2.742  22.571   9.215 -0.0389  0.1384  0.3982
42857W        W43721   3.049  24.919   9.299  0.0872  0.0578  0.0896
42858W        W43722   5.962  20.633   7.091 -0.2531 -0.1546 -0.2994
42859W        W43723   7.296  21.175  10.779 -0.2103  0.0527  0.1019
42860W        W43724   5.114  19.296   7.951  0.2864 -0.0386  0.5050
42861W        W43725   9.108  19.447   5.546  0.2521 -0.0720 -0.0022
42862W        W43726   5.978  19.010   6.855 -0.0422 -0.2723  0.2556
42863W        W43727   3.910  20.578   8.663 -0.1911  0.2316  0.0687
42864W        W43728   5.618  19.216   8.147 -0.2074  0.0292  0.0478
42865W        W43729   5.913  19.708  10.790  0.1371 -0.1262  0.0150
42866W        W43730   6.841  21.422  11.080 -0.0977  0.0905 -0.0614
42867W        W43731   7.498  19.589  10.538  0.0667 -0.1738 -0.0737
42868W        W43732   5.256  15.621  13.929 -0.0978  0.1618 -0.1720
42869W        W43733   2.968  16.121  11.365 -0.0321 -0.1250  0.4218
42870W        W43734   5.521  18.607   8.785  0.2365  0.0057  0.1011
42871W        W43735   4.147  18.529  11.099  0.1783 -0.1234 -0.0710
42872W        W43736   4.181  18.592   8.854 -0.0868 -0.0788 -0.0188
42873W        W43737   3.291  20.633   7.508 -0.1487 -0.3161  0.0865
42874W        W43738   5.597  20.896   8.243 -0.0864 -0.2478 -0.1505
42875W        W43739   4.477  23.206   8.965  0.2950  0.3439 -0.1255
42876W        W43740   5.535  19.744   7.381  0.2235  0.1130 -0.0282
42877W        W43741   8.482  20.520   9.446  0.0946  0.1999  0.1653
42878W        W43742   5.512  20.482   8.545 -0.0637  0.0610 -0.0544
42879W        W43743   6.856  20.020   9.530 -0.0739  0.0182  0.0392
42880W        W43744   7.305  18.965   8.844  0.2453 -0.2215  0.2013
42881W        W43745   6.751  20.060   7.017  0.1589  0.0424 -0.0785
42882W        W43746   2.476  20.479   6.950  0.2229  0.0194 -0.3518
42883W        W43747   3.747  16.954   6.666 -0.4572  0.0609  0.3413
42884W        W43748   8.421  19.860   8.455 -0.0801 -0.1885 -0.0797
42885W        W43749   5.337  21.113   7.652 -0.1021 -0.0770 -0.2864
42886W        W43750   4.471  19.776   6.736 -0.1643  0.1606  0.1427
42887W        W43751   5.916  17.413   7.700  0.1411 -0.1261  0.1186
42888W        W43752   4.708  17.700   6.993  0.0381  0.0028 -0.1720
42889W        W43753   9.457  18.298   9.037 -0.1487  0.2579  0.0287
42890W        W43754   6.057  16.131   8.721  0.0653  0.1035 -0.2799
42891W        W43755   2.897  20.723   8.312  0.0850 -0.1789 -0.1933
42892W        W43756   5.033  20.272   8.519 -0.1379  0.0378  0.0889
42893W        W43757   6.209  19.620   9.366 -0.1553 -0.1101 -0.2296
42894W        W43758   7.745  20.387  11.453  0.1376  0.1945  0.0018
42895W        W43759   9.378  18.032   7.073 -0.0998 -0.0833 -0.1160
42896W        W43760   6.955  21.484   7.165  0.0134 -0.3141 -0.0015
42897W        W43761   6.842  22.700   8.169  0.1136 -0.2129  0.1843
42898W        W43762  10.150  20.851   7.638  0.1491  0.2456  0.1352
42899W        W43763   7.030  18.203   8.306  0.0980 -0.0446 -0.0757
42900W        W43764   7.979  19.891   9.215 -0.3746 -0.2186  0.3072
42901W        W43765   2.556  20.526   8.622 -0.1092 -0.0277 -0.2558
42902W        W43766   6.986  18.545   9.536 -0.3612 -0.2547 -0.1143
42903W        W43767   4.905  19.691  10.126  0.0492 -0.1044  0.0572
42904W        W43768   4.600  19.394   7.847  0.0522 -0.0250 -0.0814
42905W        W43769   4.579  21.357  10.039 -0.0478 -0.1481 -0.0377
42906W        W43770   6.042  21.479   8.794 -0.2078 -0.2285  0.2582
42907W        W43771   8.200  20.532   9.870 -0.0073  0.3238 -0.0603
42908W        W43772   6.008  20.487   7.613  0.0322 -0.0594 -0.1578
42909W        W43773   4.619  18.544   7.342  0.1823  0.2570  0.0610
42910W        W43774   6.587  21.863   8.181 -0.2513  0.0792  0.0693
42911W        W43775   5.614  19.625   8.838  0.0890  0.1061 -0.0155
42912W        W43776   6.095  22.381  10.513 -0.0915 -0.0291 -0.1491
42913W        W43777   8.534  20.967   7.944 -0.1593  0.1479 -0.2238
42914W        W43778   4.500  19.736   9.548  0.2881 -0.1294 -0.3015
42915W        W43779   8.955  19.652   9.741  0.2146 -0.2936 -0.1651
42916W        W43780   5.129  19.532   8.909  0.3567  0.1057  0.0857
42917W        W43781   3.442  23.783   7.371 -0.1717  0.3998  0.1492
42918W        W43782   3.841  17.148   8.099 -0.1724 -0.1142  0.0242
42919W        W43783   3.593  19.823   9.336 -0.1782  0.2047  0.0738
42920W        W43784   6.084  15.669   7.062  0.2572  0.0978 -0.1830
42921W        W43785   2.539  20.990   8.576 -0.2403 -0.0151  0.1205
42922W        W43786   4.242  17.692  10.119  0.3033 -0.1215  0.0085
42923W        W43787   5.220  17.200   8.350  0.2402 -0.0947 -0.0854
42924W        W43788   7.975  19.497   8.870  0.2438  0.1911  0.1687
42925W        W43789   4.317  20.988  10.389 -0.2068  0.0938 -0.0800
42926W        W43790   9.983  19.909  12.923  0.0425  0.1902  0.1383
42927W        W43791   8.263  21.498   9.560 -0.2427 -0.2428  0.0939
42928W        W43792   5.997  19.513   7.960  0.3335  0.1453 -0.2777
42929W        W43793   6.070  18.888   9.365  0.0420  0.2232  0.1098
42930W        W43794   4.690  17.223   7.863  0.0556  0.0669  0.0423
42931W        W43795   6.835  18.928   9.241  0.0578  0.0398  0.0107
42932W        W43796   3.201  22.594   8.988 -0.3113 -0.2111  0.2016
42933W        W43797   5.122  17.395   6.648  0.1326 -0.0090  0.0582
42934W        W43798   8.472  19.807   8.998  0.1687  0.1016  0.0418
42935W        W43799   3.697  19.297   7.228 -0.1102 -0.1322 -0.0455
42936W        W43800   5.995  19.775   7.542  0.3139  0.0638  0.1513
42937W        W43801   4.276  22.211   8.654  0.0803  0.3268  0.4372
42938W        W43802   2.569  22.040   9.391 -0.0648  0.1831  0.2636
42939W        W43803   8.054  19.460   9.866 -0.3983  0.0480  0.1292
42940W        W43804   5.991  19.218   9.055  0.2228  0.1260  0.1839
42941W        W43805   3.292  19.297   8.162 -0.2665  0.2019 -0.3869
42942W        W43806   6.827  18.965  10.526 -0.0122 -0.1429  0.0614
42943W        W43807   7.092  19.492   4.817 -0.1705  0.1515  0.0182
42944W        W43808   6.451  21.019   8.338 -0.0399  0.0519  0.3528
42945W        W43809   7.864  17.726   8.414  0.1581  0.1871  0.0874
42946W        W43810   5.657  21.063   5.586  0.3153 -0.0694 -0.2436
42947W        W43811   4.428  15.919   6.078  0.0451  0.2383 -0.1822
42948W        W43812   3.159  22.155   9.298 -0.1013 -0.0483 -0.0911
42949W        W43813   4.803  19.375   9.680 -0.0530 -0.0064 -0.2388
42950W        W43814   4.047  18.806  13.067  0.0634  0.0084  0.1344
42951W        W43815   3.485  19.442   9.073 -0.0939 -0.0840 -0.0483
42952W        W43816   3.865  18.386   9.567 -0.4014  0.0726  0.0929
42953W        W43817   6.399  21.190  11.050 -0.1402  0.1824  0.1404
42954W        W43818   5.069  19.273  10.741 -0.1469 -0.1940 -0.3471
42955W        W43819   5.755  16.090   8.289 -0.1787  0.1350 -0.1167
42956W        W43820   7.863  19.079   4.848  0.2203 -0.3861 -0.0143
42957W        W43821   5.937  20.192   8.700  0.2597 -0.2925 -0.0215
42958W        W43822   7.159  19.398   8.410  0.0674  0.3598 -0.0944
42959W        W43823   7.099  19.224  10.194  0.2009 -0.3068 -0.3342
42960W        W43824   7.899  18.658   5.277  0.1709  0.0655 -0.3220
42961W        W43825   9.178  17.244   8.853 -0.1932  0.1831 -0.1206
42962W        W43826   5.624  18.394   7.843  0.0904  0.3262 -0.1608
42963W        W43827   6.741  18.856   7.849 -0.1626  0.1069  0.2075
42964W        W43828   5.729  20.212   7.236  0.0200 -0.2088  0.2335
42965W        W43829   7.278  19.108   9.333  0.0010 -0.4181 -0.1577
42966W        W43830   7.173  21.084   6.955 -0.1085  0.1309 -0.1179
42967W        W43831   9.124  18.467  11.139  0.2122  0.2155  0.1742
42968W        W43832   7.184  21.219   9.766  0.0288  0.2280 -0.1034
42969W        W43833   7.553  19.733   8.470 -0.2051 -0.2580 -0.4066
42970W        W43834   5.751  20.115   7.797 -0.1889  0.1603 -0.1872
42971W        W43835   3.932  20.693   9.693  0.2566 -0.0650  0.0471
42972W        W43836   7.624  16.689   9.080  0.0424  0.1732  0.2347
42973W        W43837   4.076  20.108   8.465  0.0826 -0.3439 -0.0377
42974W        W43838   3.710  20.961  10.651 -0.3858  0.0920 -0.2642
42975W        W43839   8.153  18.967  10.214  0.0289  0.2200 -0.0003
42976W        W43840   5.353  22.588  11.635  0.0543  0.1573  0.0606
42977W        W43841   8.368  18.382   8.861 -0.0300 -0.2945  0.0293
42978W        W43842   6.008  20.152   9.481  0.0083 -0.1113 -0.0040
42979W        W43843   4.075  18.932   8.498  0.2865  0.5146 -0.2043
42980W        W43844   4.272  19.924   8.894 -0.0348 -0.2813 -0.3996
42981W        W43845   6.394  20.502   9.524  0.0957  0.1807 -0.1380
42982W        W43846   6.182  19.596  12.330  0.1685 -0.2980  0.0253
42983W        W43847   1.720  20.013  11.037  0.1784 -0.2225 -0.0865
42984W        W43848   6.934  17.736   6.225 -0.3245 -0.0822  0.2950
42985W        W43849   6.107  21.346   5.934 -0.1199  0.3701 -0.0558
42986W        W43850   2.669  20.813  11.667  0.1578  0.3226 -0.0099
42987W        W43851   6.478  19.447   8.705 -0.3495  0.0830  0.0061
42988W        W43852   5.922  21.275   8.317 -0.1502 -0.0296 -0.1717
42989W        W43853   3.423  21.843   9.584 -0.0584 -0.2408 -0.2616
42990W        W43854   4.978  18.869   9.959  0.0506  0.2450  0.0119
42991W        W43855   2.972  19.057   7.572  0.1011  0.1913 -0.1521
42992W        W43856   1.363  21.259  13.373  0.2614 -0.0544  0.2655
42993W        W43857   4.007  25.763  14.775 -0.1386  0.0533 -0.0837
42994W        W43858   6.954  19.503  15.259 -0.1128 -0.1854  0.0947
42995W        W43859   7.915  21.553  15.073  0.3144  0.3815 -0.1585
42996W        W43860   3.193  19.710  10.147  0.0680 -0.0909 -0.1016
42997W        W43861   7.261  18.887   7.524 -0.3249  0.2252  0.1774
42998W        W43862   6.568  18.246  10.896  0.0347  0.2173  0.1948
42999W        W43863   6.231  19.163   8.212  0.0544  0.0243 -0.1438
43000W        W43864   3.859  20.441  13.623 -0.1566  0.0980  0.0530
43001W        W43865   5.345  20.559  12.590  0.1465  0.0211 -0.0249
43002W        W43866   4.643  18.641  11.429 -0.1406  0.3101 -0.1534
43003W        W43867   5.336  20.540   9.791  0.0487 -0.3060  0.0046
43004W        W43868   3.635  18.920  10.377 -0.1383  0.0647 -0.2306
43005W        W43869   6.912  19.875  13.096 -0.0400 -0.1141 -0.0357
43006W        W43870   3.978  15.880  12.956  0.0889 -0.1730  0.1101
43007W        W43871   2.766  20.699  14.591 -0.0727  0.0716 -0.2093
43008W        W43872   5.581  20.176  11.626 -0.2379  0.0982 -0.0203
43009W        W43873   5.873  18.925  13.938  0.2017  0.0606 -0.2709
43010W        W43874   4.171  20.589  11.848  0.1221 -0.0646  0.0540
43011W        W43875   7.801  20.071  10.617  0.1684  0.1013 -0.2587
43012W        W43876   6.129  20.976  15.416 -0.3271  0.2845  0.2678
43013W        W43877   5.876  21.132  11.876 -0.2259 -0.0721 -0.2475
43014W        W43878   6.370  20.505  11.620 -0.1635  0.0964  0.3316
43015W        W43879   7.818  18.421  13.121 -0.1221  0.2167 -0.3144
43016W        W43880   2.691  20.250  13.379  0.0187 -0.0779  0.2066
43017W        W43881   6.395  20.069  13.156 -0.1893  0.1499 -0.0520
43018W        W43882   4.160  18.870  13.960  0.0971  0.0697 -0.0392
43019W        W43883   5.475  22.185  11.967 -0.2484 -0.0953 -0.3116
43020W        W43884   5.480  22.403  13.007 -0.2128 -0.1649  0.2268
43021W        W43885   6.305  18.660  11.504  0.1031  0.1725 -0.0085
43022W        W43886   8.138  20.756  11.433 -0.2438 -0.0137 -0.2665
43023W        W43887   3.886  19.767  13.777 -0.2441 -0.1871  0.1102
43024W        W43888   5.064  20.635  16.596 -0.0540  0.1914  0.3756
43025W        W43889   6.459  22.821  13.917  0.2055 -0.0741  0.0267
43026W        W43890   4.753  19.281  12.749  0.1480  0.1363  0.0822
43027W        W43891   5.109  19.996  12.982  0.1588  0.0398  0.3076
43028W        W43892   3.770  18.077  12.409 -0.0002  0.1492 -0.0540
43029W        W43893   4.060  20.721  12.749 -0.0657 -0.0606  0.2956
43030W        W43894   9.767  22.138  14.891 -0.3249 -0.0312  0.1252
43031W        W43895   7.452  20.527   9.645  0.1224 -0.2845 -0.2114
43032W        W43896   7.197  18.728  10.261  0.0711 -0.0157  0.1775
43033W        W43897   6.236  21.811  14.740 -0.0244 -0.0184  0.1291
43034W        W43898   4.533  20.465  10.849  0.1943  0.2633 -0.2512
43035W        W43899   6.329  21.397  11.530  0.2744  0.1397 -0.1239
43036W        W43900   4.890  22.644   9.438 -0.2144  0.0487  0.1008
43037W        W43901   3.858  24.007  10.307  0.1566  0.0878  0.2407
43038W        W43902   3.571  17.207  11.942  0.1832 -0.0815  0.1445
43039W        W43903   7.104  21.832  11.127  0.0230  0.2465  0.3223
43040W        W43904   9.005  22.100   9.669 -0.1804  0.0543 -0.0836
43041W        W43905   5.111  19.763  11.438  0.3356  0.1350 -0.1408
43042W        W43906   4.759  17.578  10.052 -0.1942  0.1874  0.1513
43043W        W43907   5.360  21.202  12.028  0.0476  0.0156 -0.1174
43044W        W43908   4.964  21.727   9.619  0.2446  0.0633 -0.0188
43045W        W43909   5.673  21.045  10.591  0.2696  0.0164  0.4162
43046W        W43910   8.700  16.599  12.690  0.2057 -0.0702 -0.0542
43047W        W43911   6.223  22.587  12.787 -0.1980 -0.2374 -0.1970
43048W        W43912   3.030  17.180  10.403 -0.2473 -0.1886 -0.3364
43049W        W43913   8.222  18.781  12.150  0.2661  0.0648 -0.0832
43050W        W43914   6.551  18.542  12.337  0.2284 -0.0024 -0.1696
43051W        W43915   5.395  18.718  12.826  0.1720  0.2366  0.0083
43052W        W43916   8.743  20.834  11.229  0.0335  0.0663 -0.0732
43053W        W43917   5.059  18.532  13.965  0.0188 -0.1585 -0.0524
43054W        W43918   5.267  21.990  11.019  0.3108 -0.1744  0.0510
43055W        W43919   5.690  16.779  13.597  0.0895 -0.2407  0.2552
43056W        W43920   4.936  20.162  13.460  0.0258  0.1637 -0.3033
43057W        W43921   8.648  17.765  11.505 -0.0060 -0.2119  0.2154
43058W        W43922   4.942  21.380  10.913 -0.2749  0.0208  0.0469
43059W        W43923   5.160  19.017   8.873  0.1879  0.0081 -0.1047
43060W        W43924   2.799  17.807  12.772  0.0791  0.0578  0.0488
43061W        W43925   5.597  19.714  10.327 -0.0217  0.1076  0.0719
43062W        W43926   3.162  20.173  13.215 -0.0023  0.2005 -0.1146
43063W        W43927   2.640  20.109  12.844 -0.1616  0.1026 -0.5148
43064W        W43928   8.450  21.102  15.839  0.0893 -0.0789 -0.3099
43065W        W43929   5.524  20.568  10.839 -0.1487  0.4167 -0.1918
43066W        W43930   8.377  22.472  11.779  0.0975  0.1293  0.2038
43067W        W43931   2.283  20.399  14.916  0.0354  0.2535 -0.1899
43068W        W43932   4.700  20.068  12.191  0.1895  0.1853  0.5224
43069W        W43933   6.918  20.768  12.616  0.0738  0.1492 -0.0488
43070W        W43934   7.649  19.679   9.949 -0.3226  0.2387 -0.1328
43071W        W43935   6.889  20.278  10.375  0.2973  0.1331  0.0952
43072W        W43936   3.925  20.362  12.311 -0.0246 -0.0446 -0.4676
43073W        W43937   4.767  21.416  14.320  0.1524  0.4192  0.3409
43074W        W43938   2.854  19.711  11.644 -0.0554 -0.2159  0.1917
43075W        W43939   4.576  18.366  12.534  0.2252 -0.2016  0.0490
43076W        W43940   4.078  19.352  14.168 -0.2182 -0.1730  0.0610
43077W        W43941   6.510  19.276  11.055 -0.0625 -0.2119 -0.0571
43078W        W43942   6.806  19.167  12.688  0.1830 -0.3587  0.0760
43079W        W43943   5.981  18.058  16.205  0.0190  0.3101 -0.0310
43080W        W43944   4.844  20.268  12.689  0.0176 -0.0535 -0.1949
43081W        W43945   6.222  17.614  15.597  0.0171 -0.1769  0.0323
43082W        W43946   7.077  17.548   9.380 -0.1366 -0.1641  0.2417
43083W        W43947   7.301  20.405  14.633 -0.1711 -0.0403  0.1275
43084W        W43948   3.120  20.939   9.824  0.1950  0.0828 -0.1015
43085W        W43949   4.538  20.041   9.975  0.2092 -0.1374 -0.0206
43086W        W43950   5.087  17.346  13.879  0.0083 -0.3865 -0.0396
43087W        W43951   7.389  19.755  13.425 -0.0835 -0.2633 -0.4063
43088W        W43952   7.776  19.782  15.170 -0.1330  0.2178  0.0015
43089W        W43953   4.078  23.730  16.123 -0.2057 -0.2808  0.2698
43090W        W43954   4.498  18.183  12.005  0.3076 -0.3717  0.0193
43091W        W43955   8.315  19.547   9.406  0.0734 -0.3365  0.0408
43092W        W43956   8.823  19.438  12.062 -0.1107  0.0252  0.0588
43093W        W43957   2.787  22.524  10.217 -0.1344  0.2161 -0.2999
43094W        W43958   8.454  17.788   9.638 -0.1722  0.0329  0.0680
43095W        W43959   7.557  22.811  11.508 -0.2483 -0.0951  0.1078
43096W        W43960   9.422  16.248   9.381  0.0631  0.0928  0.2575
43097W        W43961   4.797  21.200  13.748 -0.1648 -0.0395 -0.3348
43098W        W43962   5.299  19.182  11.191 -0.0797  0.0937 -0.1654
43099W        W43963   8.431  19.699  17.783  0.2206  0.0552 -0.2677
43100W        W43964   4.752  20.841  10.597  0.2558  0.1333  0.1400
43101W        W43965   6.684  20.659  14.510  0.4363  0.1208  0.0659
43102W        W43966   4.447  20.367  13.464  0.3823 -0.0968 -0.0375
43103W        W43967   3.255  21.402  13.092 -0.0221  0.0808 -0.0498
43104W        W43968   6.100  17.021  11.472  0.1040  0.0867  0.0014
43105W        W43969   4.224  21.957  12.084 -0.1168  0.0815 -0.1394
43106W        W43970   5.708  19.570  11.323  0.1205 -0.3094  0.1272
43107W        W43971   6.772  20.519  11.376  0.1012 -0.2704 -0.1245
43108W        W43972   5.779  18.860  13.359 -0.1097  0.0663  0.3229
43109W        W43973   3.152  19.274  12.265 -0.0359  0.0883  0.1618
43110W        W43974   5.517  18.029  16.919 -0.4625  0.0152  0.0561
43111W        W43975   6.575  19.891  12.205  0.0371 -0.1603  0.3016
43112W        W43976   6.603  17.760  10.745 -0.5242 -0.2054 -0.0418
43113W        W43977   5.114  20.939  13.437  0.3455 -0.1455 -0.1738
43114W        W43978   7.647  21.014  12.144 -0.1775  0.0638  0.0907
43115W        W43979   5.457  21.501  10.158 -0.0375  0.0438 -0.0601
43116W        W43980   7.603  18.762  10.973 -0.1294  0.0552 -0.0364
43117W        W43981   4.455  21.103  12.970  0.1515 -0.1442  0.2378
43118W        W43982   4.757  21.537  11.820  0.0000  0.2856 -0.0408
43119W        W43983   4.470  18.502  13.152 -0.2900 -0.1040 -0.1900
43120W        W43984   7.612  20.718  14.222  0.1773 -0.1824 -0.2378
43121W        W43985   7.665  21.999  15.144 -0.0583  0.0200  0.0662
43122W        W43986   7.845  22.580  13.984 -0.1095 -0.2138 -0.1929
43123W        W43987   5.549  19.738  13.057  0.0442  0.2234 -0.0074
43124W        W43988   6.504  20.596  10.547 -0.4214  0.0237 -0.0589
43125W        W43989   6.859  18.339  11.486  0.0269 -0.0221 -0.1823
43126W        W43990   6.949  21.176  13.088 -0.0272 -0.1451 -0.1403
43127W        W43991   4.050  16.075  13.797 -0.0819 -0.0102  0.1610
43128W        W43992   6.731  20.421  12.954  0.1286  0.4373 -0.0271
43129W        W43993   6.089  18.431  12.156 -0.0806 -0.0831 -0.0895
43130W        W43994   5.335  20.054   8.093  0.0742  0.1636 -0.0481
43131W        W43995   5.693  21.205  15.204  0.3037 -0.0888 -0.0160
43132W        W43996   3.699  18.210  11.939  0.0436  0.0657  0.2915
43133W        W43997   5.002  16.715  12.247  0.0542 -0.0341 -0.3655
43134W        W43998   5.102  20.097   9.866 -0.0609 -0.0163 -0.1189
43135W        W43999   4.673  17.922  10.411  0.0093 -0.0338 -0.0871
43136W        W44000   6.384  19.476  14.033  0.1300 -0.2262 -0.0381
43137W        W44001   9.572  18.111  13.067  0.0404 -0.1646  0.0581
43138W        W44002   4.632  17.926  14.015  0.0694  0.0213 -0.0800
43139W        W44003   3.507  20.420  10.724 -0.2734 -0.1835  0.1244
43140W        W44004   6.093  21.827  13.053  0.4705  0.0888  0.1754
43141W        W44005   6.263  19.673  11.791 -0.1285 -0.1177  0.0852
43142W        W44006   7.187  22.007  15.792 -0.0084 -0.1247 -0.2306
43143W        W44007   2.639  20.378  11.467  0.2111  0.0762 -0.0984
43144W        W44008   2.277  21.554  12.307  0.3044 -0.2462  0.0680
43145W        W44009   5.604  18.464   9.230  0.1004  0.4872  0.1695
43146W        W44010   5.715  20.084  14.356 -0.0587 -0.1583 -0.3620
43147W        W44011   5.701  19.739  12.381 -0.1105  0.2511  0.0154
43148W        W44012   5.441  16.391  13.790  0.1293  0.0262  0.0052
43149W        W44013   4.786  20.465   9.780 -0.2135  0.1907  0.0716
43150W        W44014   4.806  18.666   8.651  0.0728 -0.0434 -0.1708
43151W        W44015   5.810  20.653  10.214 -0.1315  0.1905 -0.1240
43152W        W44016   3.323  18.646  15.723  0.1438  0.0922  0.3078
43153W        W44017   4.988  19.163  14.950 -0.1954  0.1991 -0.0121
43154W        W44018   2.787  24.434  14.535  0.0284 -0.0395  0.0537
43155W        W44019   3.381  18.838  13.740 -0.1541 -0.2081 -0.1087
43156W        W44020   5.721  18.664  11.155 -0.5658 -0.1883  0.0418
43157W        W44021   4.352  19.241  13.067  0.0863  0.1189 -0.0115
43158W        W44022   2.258  19.522  13.381 -0.2245  0.2836 -0.0468
43159W        W44023   1.365  21.590  12.512 -0.2444  0.1070  0.0548
43160W        W44024   4.435  20.429  12.486 -0.0535 -0.0252  0.1032
43161W        W44025   3.835  19.712  11.064 -0.4009 -0.1336  0.1771
43162W        W44026   5.117  20.357  12.137  0.1755 -0.0308  0.0165
43163W        W44027   8.380  18.328  13.229 -0.2737  0.1545  0.0554
43164W        W44028   4.300  19.466  13.550 -0.1148  0.4850 -0.0773
43165W        W44029   6.289  20.802  10.086 -0.1543  0.1462  0.1945
43166W        W44030   7.972  17.544  10.455  0.0089 -0.0511  0.0446
43167W        W44031   9.430  21.096  10.103 -0.0683  0.0160 -0.2092
43168W        W44032   2.612  22.634  14.003  0.0749 -0.2668 -0.1307
43169W        W44033   6.526  20.402  12.109 -0.1746  0.1017  0.0482
43170W        W44034  29.121  23.882  12.696 -0.0476 -0.0286  0.1124
43171W        W44035   6.651  19.537   9.547  0.4031 -0.0598 -0.0800
43172W        W44036   3.524  20.897   9.508  0.2502  0.0353  0.0833
43173W        W44037   5.994  20.587  10.699  0.0601  0.0190  0.1093
43174W        W44038   5.260  19.441  14.467 -0.2324  0.1780 -0.1018
43175W        W44039   3.319  19.684  13.332 -0.3197  0.0446 -0.0450
43176W        W44040   3.455  18.713   9.520  0.3112  0.1060 -0.4284
43177W        W44041   4.389  20.974  12.494 -0.0154  0.0455 -0.0400
43178W        W44042   3.748  18.050  13.714  0.1016  0.0599 -0.0174
43179W        W44043   1.775  18.850  12.186  0.2112 -0.1700  0.1116
43180W        W44044   4.938  21.749  15.239  0.2082 -0.4119 -0.3150
43181W        W44045   5.104  22.773  12.912  0.1927 -0.2300  0.0280
43182W        W44046   4.554  21.795  10.390  0.0016 -0.0736 -0.1312
43183W        W44047   4.228  19.918  11.338  0.0768  0.3015  0.2642
43184W        W44048   4.698  20.697  15.602  0.2032 -0.3288 -0.1061
43185W        W44049   4.937  19.205  13.511  0.0584 -0.0761  0.1193
43186W        W44050   4.904  16.605  12.784 -0.1506  0.1833  0.3356
43187W        W44051   9.409  18.249   9.748 -0.1170  0.1038 -0.0748
43188W        W44052   6.952  18.460  10.597  0.1031  0.2043  0.0494
43189W        W44053   3.017  19.307  13.161 -0.1715  0.0019 -0.5251
43190W        W44054   6.743  19.930  10.766 -0.1242 -0.0208  0.0559
43191W        W44055   6.131  18.022  13.349 -0.1250  0.0362  0.2388
43192W        W44056   3.029  16.621  12.219 -0.0199  0.2437  0.1295
43193W        W44057   6.073  20.355  11.171  0.0871 -0.5028  0.0503
43194W        W44058   7.285  20.597  11.470  0.0415 -0.1306  0.2581
43195W        W44059   3.878  19.560  13.320 -0.3626 -0.0378  0.2717
43196W        W44060   5.311  21.359  15.873 -0.0583 -0.2058  0.2298
43197W        W44061   3.418  15.973  11.704 -0.2672 -0.0771 -0.0898
43198W        W44062   4.503  22.044  14.991  0.0373  0.2268 -0.0946
43199W        W44063   6.247  19.652  11.168 -0.2197  0.0019 -0.2544
43200W        W44064   3.993  22.164  12.805 -0.1555 -0.1467  0.0293
43201W        W44065   4.071  20.620   9.148 -0.0482  0.0162 -0.2752
43202W        W44066   3.973  22.423  14.241 -0.0091 -0.0295  0.0544
43203W        W44067   4.212  20.281  13.004  0.1998  0.1508  0.2251
43204W        W44068   5.260  18.727  12.007 -0.1979  0.1235  0.1957
43205W        W44069   6.017  18.040  12.849 -0.0494 -0.0498  0.0072
43206W        W44070   8.595  22.648  15.608  0.1891  0.1991 -0.2939
43207W        W44071   9.616  17.571  10.101 -0.1025  0.1104  0.4648
43208W        W44072   7.177  21.234  10.292  0.1415 -0.0578  0.1528
43209W        W44073   3.597  21.016   9.998  0.0923 -0.1361 -0.1976
43210W        W44074   2.242  21.865  12.719  0.0243 -0.0816  0.1542
43211W        W44075   3.383  20.862  13.984  0.3594  0.1101 -0.0797
43212W        W44076   6.496  17.202  15.463 -0.1038 -0.0032  0.0947
43213W        W44077   5.130  17.736  10.579  0.4886  0.0741 -0.2201
43214W        W44078   5.207  19.949  12.395 -0.2179  0.1292 -0.1390
43215W        W44079   4.103  18.405  12.799  0.1916 -0.0240  0.1208
43216W        W44080   8.221  21.964  11.820  0.0674  0.1025 -0.4103
43217W        W44081   1.667  20.403  12.888 -0.1700  0.3404  0.1948
43218W        W44082   2.963  23.518  13.993  0.0724  0.1789  0.1894
43219W        W44083   8.258  20.108  10.239 -0.1281 -0.1452 -0.1975
43220W        W44084   6.863  20.394  10.852 -0.1087  0.2072 -0.1370
43221W        W44085   5.951  20.960  12.878 -0.2275  0.0537 -0.0240
43222W        W44086   4.431  17.950  14.953  0.1098 -0.1762 -0.0735
43223W        W44087   3.792  18.497  13.924 -0.0598  0.1067  0.1899
43224W        W44088   1.919  17.918  11.754 -0.0338  0.0761  0.2214
43225W        W44089   7.883  21.793  14.131 -0.1733 -0.1251 -0.0528
43226W        W44090   5.135  17.857  14.311 -0.0850 -0.0953  0.3803
43227W        W44091   6.514  20.038  11.683  0.0730 -0.1765 -0.0500
43228W        W44092   8.673  18.572  12.317 -0.0492 -0.3168  0.2208
43229W        W44093   4.738  22.138  16.587 -0.0685 -0.0102 -0.1837
43230W        W44094   7.519  21.081  14.608  0.3497 -0.1800  0.1654
43231W        W44095   3.974  23.872  14.722  0.1286 -0.0312 -0.3354
43232W        W44096   4.627  20.589  14.731  0.0267 -0.0170  0.0675
43233W        W44097   0.541  23.145  13.773  0.0909 -0.1484  0.0932
43234W        W44098   5.735  18.183  11.210 -0.1172  0.0825  0.1363
43235W        W44099   6.668  18.178   9.235 -0.0655 -0.2192 -0.0546
43236W        W44100   8.905  17.052  13.855 -0.0736 -0.0323  0.3661
43237W        W44101   4.748  19.210  10.283  0.0789 -0.2891 -0.2307
43238W        W44102   8.921  18.965  12.483 -0.0571  0.0259 -0.2225
43239W        W44103   5.726  21.604  15.870 -0.1631  0.3178 -0.2414
43240W        W44104   6.204  20.930  11.451 -0.5234  0.2159  0.0335
43241W        W44105   6.019  17.494  14.023 -0.0762  0.0841 -0.1185
43242W        W44106   6.028  19.215  11.570  0.0740 -0.0039  0.0786
43243W        W44107   4.923  23.325   9.706 -0.1044 -0.0422 -0.2823
43244W        W44108   6.866  23.122  14.715  0.2505 -0.1417 -0.0163
43245W        W44109   6.963  21.304  14.600 -0.0267  0.0609  0.0593
43246W        W44110   4.171  18.402  11.703 -0.2122 -0.0569  0.2590
43247W        W44111   5.572  20.628  15.500 -0.0726 -0.1703 -0.0370
43248W        W44112   6.592  19.458  13.165 -0.2134 -0.0170 -0.0114
43249W        W44113   4.582  20.904  11.617 -0.1761  0.2827  0.1711
43250W        W44114   5.749  23.516  13.826 -0.1001  0.0553 -0.2985
43251W        W44115   9.231  20.949   8.808 -0.2028 -0.0049  0.1060
43252W        W44116   3.661  18.709  12.738  0.0931  0.1302  0.0635
43253W        W44117   5.599  19.300  14.134  0.1336 -0.0036 -0.0976
43254W        W44118   5.409  20.979  10.128  0.2668 -0.1414  0.1634
43255W        W44119   5.172  18.369  15.421  0.0294  0.2809 -0.1234
43256W        W44120   4.177  22.408  11.027 -0.1363 -0.3186 -0.0928
43257W        W44121   4.469  23.721  14.236  0.0252  0.1885 -0.1738
43258W        W44122   3.038  20.585  11.846  0.0404 -0.0538  0.0626
43259W        W44123   6.514  18.808  10.864 -0.0735  0.1798 -0.1393
43260W        W44124   5.413  18.578  15.842  0.0468 -0.0046 -0.1020
43261W        W44125   9.349  17.499   7.787 -0.0082  0.0064  0.2439
43262W        W44126   4.332  20.472   9.560 -0.2675  0.3727  0.2921
43263W        W44127   6.521  20.106  11.178 -0.1074  0.0369  0.2270
43264W        W44128   9.289  20.350  12.529 -0.0186  0.2411  0.2261
43265W        W44129   4.927  20.551  13.686  0.0206  0.2609  0.0421
43266W        W44130   8.003  20.975  12.623  0.3767  0.1809 -0.0494
43267W        W44131   5.856  20.639  11.614  0.1133 -0.0272  0.3272
43268W        W44132   6.048  17.178  13.121  0.3530 -0.1179 -0.2588
43269W        W44133   4.343  19.476  12.637 -0.1911 -0.0121  0.0422
43270W        W44134   4.888  20.557  11.348  0.0041 -0.0273  0.1413
43271W        W44135   5.096  20.383   9.348 -0.1401  0.4694  0.2688
43272W        W44136   5.041  20.759  11.831  0.1284  0.1582 -0.2098
43273W        W44137   2.790  20.774  11.171 -0.1141 -0.2011  0.2382
43274W        W44138   3.031  17.874  13.258 -0.2739 -0.3573  0.1848
43275W        W44139   3.443  22.674  14.031  0.0133  0.1276  0.1138
43276W        W44140   7.356  19.083  10.642 -0.0375 -0.0989 -0.0375
43277W        W44141   4.835  22.151  17.473 -0.0851  0.0709 -0.0939
43278W        W44142   7.133  22.807  13.740  0.0180  0.0525 -0.1743
43279W        W44143   5.147  20.619  14.718  0.2843 -0.3168 -0.1444
43280W        W44144   4.275  20.656  11.352  0.1719  0.1748  0.0143
43281W        W44145   4.652  19.678  11.572 -0.2134 -0.1959 -0.0414
43282W        W44146   2.033  21.048   9.355  0.2962 -0.0832 -0.2505
43283W        W44147   7.503  18.178   9.000  0.0427  0.1109  0.0037
43284W        W44148   5.580  21.873  12.861 -0.1594  0.1427 -0.3301
43285W        W44149   4.048  17.747  12.770  0.0821 -0.1666 -0.0398
43286W        W44150   4.015  19.029  11.977 -0.0938 -0.0092 -0.2060
43287W        W44151   4.082  20.599  10.638 -0.0794  0.2727 -0.0822
43288W        W44152   6.047  19.741  12.784  0.0110 -0.1241 -0.0122
43289W        W44153   6.531  20.654  17.091  0.0015 -0.0126  0.1327
43290W        W44154   8.564  20.333  12.022  0.0665 -0.1950 -0.2815
43291W        W44155   4.462  23.119  13.210  0.1926 -0.2193 -0.1575
43292W        W44156   2.993  20.586  10.707 -0.3800 -0.0359 -0.0021
43293W        W44157   3.404  17.555  12.321  0.0767  0.1906  0.0624
43294W        W44158   7.057  21.887  14.094  0.2341 -0.0018  0.1991
43295W        W44159   8.865  20.635  12.531  0.1383 -0.0583  0.0139
43296W        W44160   9.106  21.210  11.343 -0.2564 -0.1140 -0.0624
43297W        W44161   6.392  22.476  15.498 -0.3054  0.1503 -0.0661
43298W        W44162   5.589  20.142  13.860  0.2807 -0.0442 -0.0059
43299W        W44163   5.764  19.573  11.891  0.0614 -0.0418 -0.1269
43300W        W44164   5.080  20.195  11.629 -0.0915 -0.3252 -0.2952
43301W        W44165   2.724  22.971  10.810  0.2780  0.1890 -0.1337
43302W        W44166   3.673  19.219  11.100 -0.1181 -0.3747  0.2078
43303W        W44167   3.617  20.837  13.471  0.0751 -0.0143  0.1421
43304W        W44168   4.439  18.973  13.554 -0.3449  0.0539  0.0921
43305W        W44169   5.435  20.595  11.294  0.0403 -0.1096  0.2572
43306W        W44170   5.383  21.556  11.684 -0.6241 -0.3579  0.1026
43307W        W44171   6.022  22.658  15.184 -0.0527  0.2607  0.1388
43308W        W44172   3.136  15.343  13.678 -0.1378  0.0413  0.0216
43309W        W44173   6.380  18.497  10.476 -0.2103  0.0727  0.0742
43310W        W44174   4.295  19.969  12.447  0.3706 -0.1097  0.1589
43311W        W44175   3.781  20.568  10.251  0.0317  0.2702 -0.0062
43312W        W44176   1.776  22.753  13.400 -0.2389 -0.1063  0.0870
43313W        W44177   8.507  19.707  10.010  0.1300  0.0733  0.3822
43314W        W44178   2.726  22.089  12.974  0.0758 -0.1405  0.3876
43315W        W44179   4.205  21.561  11.714 -0.0741  0.1333  0.0680
43316W        W44180   2.856  18.873  11.601 -0.0302  0.0690  0.3391
43317W        W44181   4.118  21.663  13.598  0.3283  0.0249 -0.1373
43318W        W44182   6.500  18.394  13.654  0.0219  0.0537 -0.0361
43319W        W44183   5.778  19.323  12.632 -0.0947 -0.1799 -0.2991
43320W        W44184   4.997  19.300  11.670 -0.3443 -0.2011  0.0260
43321W        W44185   1.984  19.639  12.923  0.1057  0.1048 -0.0242
43322W        W44186   5.817  19.556  16.217 -0.2779 -0.1359 -0.0612
43323W        W44187   8.926  15.789  10.947 -0.3098  0.2636 -0.0976
43324W        W44188   9.143  18.464  12.562 -0.1448  0.1854 -0.0763
43325W        W44189   2.995  20.568  14.095 -0.3162  0.0311  0.0197
43326W        W44190   4.714  18.049  14.493  0.0333 -0.1839  0.0181
43327W        W44191   6.914  24.426  14.092 -0.3810 -0.1880 -0.0738
43328W        W44192   4.378  21.395  15.155 -0.1361 -0.2830 -0.4810
43329W        W44193   7.981  22.017  10.956 -0.2110 -0.0363  0.0662
43330W        W44194   7.676  18.461  11.391 -0.1048 -0.0810 -0.4303
43331W        W44195   6.139  17.954  10.964 -0.0081 -0.0289 -0.2640
43332W        W44196   4.499  22.372  12.034 -0.0432 -0.3820  0.5238
43333W        W44197   3.898  19.315  12.839  0.2078 -0.0634  0.1294
43334W        W44198   3.250  19.264  10.441 -0.0974  0.4479  0.0206
43335W        W44199   5.102  22.350  12.558 -0.3449  0.2299  0.0901
43336W        W44200   5.428  21.976  12.402  0.2008 -0.1622 -0.0339
43337W        W44201   4.364  19.908  15.412  0.0581 -0.3671  0.0933
43338W        W44202   1.750  22.194  10.627  0.0703  0.0690 -0.0908
43339W        W44203   4.043  18.968  11.379  0.2271 -0.3907 -0.1764
43340W        W44204   4.337  17.088  13.490 -0.0544 -0.0577  0.0114
43341W        W44205   4.790  19.515  13.166  0.0661  0.1193  0.3836
43342W        W44206   8.455  20.809  12.185  0.1095 -0.0929  0.0449
43343W        W44207   4.965  21.148  11.526  0.0976 -0.0071  0.1158
43344W        W44208   8.638  22.893  14.573 -0.1966 -0.0799 -0.0257
43345W        W44209   7.270  21.571  12.042  0.0227  0.0528  0.1893
43346W        W44210   3.185  22.774  11.920  0.2538  0.3885  0.0634
43347W        W44211   7.652  20.424   9.125  0.0045 -0.1986 -0.0972
43348W        W44212   1.583  22.280  10.158  0.1032  0.1481  0.1355
43349W        W44213   6.311  18.844  13.620  0.2433  0.0387 -0.0783
43350W        W44214   4.144  18.074  14.011 -0.0381 -0.0863 -0.2557
43351W        W44215   2.152  19.655  10.935 -0.0573  0.2306  0.0114
43352W        W44216   4.063  20.116  10.040 -0.3450  0.0483  0.1658
43353W        W44217   6.418  21.567  10.680 -0.0336 -0.0542  0.0346
43354W        W44218   4.631  20.655  12.054  0.3254 -0.1372  0.1144
43355W        W44219   8.082  17.059  14.224  0.3158 -0.0640  0.0222
43356W        W44220   5.723  20.169  10.603 -0.4266  0.0607  0.3454
43357W        W44221   8.194  22.269  13.593 -0.0092 -0.1496  0.2067
43358W        W44222   5.265  22.203  13.688  0.2203  0.0376 -0.0103
43359W        W44223   2.760  20.817  12.595 -0.1240 -0.0348 -0.0452
43360W        W44224   7.591  20.026   9.625  0.1436  0.2755  0.2377
43361W        W44225   8.297  18.179  10.627 -0.2435  0.2473  0.1001
43362W        W44226   6.774  20.021   8.038 -0.0808  0.0992  0.0428
43363W        W44227   4.026  21.012  11.581 -0.3027  0.1657  0.1878
43364W        W44228   5.685  21.857  11.194  0.2197  0.2017  0.0158
43365W        W44229   7.308  20.503  12.412 -0.0545  0.2028  0.2897
43366W        W44230   5.062  20.253  10.906 -0.3260 -0.1872 -0.1430
43367W        W44231   2.843  17.431  13.194 -0.3895  0.0129 -0.2655
43368W        W44232   5.488  18.633  13.715 -0.0767 -0.1178  0.2124
43369W        W44233   6.762  20.706  16.160  0.3697 -0.0718 -0.3476
43370W        W44234   5.606  18.054  13.558  0.0397  0.0137 -0.0736
43371W        W44235   1.960  22.105  15.159  0.0993 -0.1373  0.3042
43372W        W44236   7.662  19.345  12.861 -0.2223 -0.1019  0.0695
43373W        W44237   2.275  17.367  13.345  0.1145  0.1067 -0.1461
43374W        W44238   0.297  18.729  11.608 -0.1190  0.2035  0.0932
43375W        W44239   6.064  20.987  13.875 -0.0941 -0.2611 -0.1482
43376W        W44240   5.084  19.556  16.171 -0.3565 -0.1069 -0.1428
43377W        W44241   6.852  18.923  12.246 -0.1335  0.1642  0.0754
43378W        W44242   5.417  21.409  11.090 -0.0905  0.2131  0.0277
43379W        W44243   3.259  20.899  12.163  0.0089 -0.0267 -0.1580
43380W        W44244   1.303  18.484  11.648  0.1466 -0.5179  0.4777
43381W        W44245   7.159  21.381  16.060 -0.2334 -0.0013 -0.1257
43382W        W44246   3.524  21.688  13.832  0.0726 -0.1497 -0.1218
43383W        W44247   3.728  21.835  10.412 -0.2225 -0.1301  0.0954
43384W        W44248   7.217  21.788  14.763 -0.2319  0.2098  0.0080
43385W        W44249   5.468  23.035  12.692  0.1169  0.0108  0.2015
43386W        W44250   4.716  22.811  12.140 -0.1072  0.0920 -0.0247
43387W        W44251   5.933  22.562  15.697 -0.3552  0.2058  0.0539
43388W        W44252   6.264  21.377  12.888 -0.1756 -0.0686  0.0221
43389W        W44253   1.847  22.892  14.774 -0.2283  0.0038 -0.0061
43390W        W44254   5.474  18.982  10.766 -0.2592 -0.2358 -0.1184
43391W        W44255   5.017  18.236  10.694  0.6924 -0.3947 -0.2329
43392W        W44256   4.656  24.081  17.972 -0.1034 -0.0449 -0.0981
43393W        W44257   5.157  21.768  18.254  0.0627  0.0352 -0.1641
43394W        W44258  10.222  20.948  15.088  0.0340  0.1194  0.1591
43395W        W44259   6.687  21.081  17.302  0.0364 -0.1676  0.0431
43396W        W44260   3.977  21.164  14.937 -0.0136 -0.1355  0.2498
43397W        W44261   2.765  20.548  15.070  0.0518 -0.1043  0.2753
43398W        W44262   2.921  20.548  17.428  0.3256  0.0234 -0.0838
43399W        W44263   7.663  22.308  11.802 -0.1880 -0.1711 -0.3768
43400W        W44264   5.740  22.947  17.084  0.3030 -0.0633  0.0638
43401W        W44265   2.547  18.222  15.849  0.0601 -0.1208 -0.1905
43402W        W44266   4.691  19.325  15.955 -0.3023 -0.0652 -0.0540
43403W        W44267   3.341  18.943  17.735 -0.0984  0.0777  0.2112
43404W        W44268   2.924  20.158  13.788  0.0147  0.1203  0.3190
43405W        W44269   5.670  19.738  17.850 -0.2004 -0.0079 -0.4693
43406W        W44270   5.192  17.898  18.243 -0.0167 -0.1096  0.3485
43407W        W44271   2.302  21.418  16.109 -0.0160 -0.0626  0.1223
43408W        W44272   4.141  22.009  15.834  0.2966  0.0842 -0.0704
43409W        W44273   4.295  21.132  17.934 -0.1636 -0.3694 -0.0569
43410W        W44274   7.537  18.385  18.180 -0.3977 -0.0744 -0.0965
43411W        W44275   9.611  22.731  16.467 -0.0298 -0.0476 -0.1229
43412W        W44276   8.877  22.476  16.027  0.1180 -0.3867  0.0504
43413W        W44277   2.452  18.879  16.169  0.3623  0.1027  0.3799
43414W        W44278   5.744  18.911  17.399  0.0023 -0.0666 -0.0515
43415W        W44279   4.867  20.169  16.653  0.0138  0.3163  0.1084
43416W        W44280   3.031  22.532  17.482 -0.0632  0.0817  0.0993
43417W        W44281   4.759  21.771  19.890 -0.2594 -0.1371  0.2655
43418W        W44282   7.221  17.810  17.468 -0.0022 -0.0579 -0.0813
43419W        W44283   2.467  19.545  12.924  0.0783 -0.0922  0.0283
43420W        W44284   6.603  19.304  19.137 -0.1235  0.1072  0.0758
43421W        W44285   3.018  20.346  17.980 -0.0160 -0.0218 -0.1608
43422W        W44286   4.735  17.231  17.017  0.0798 -0.1903 -0.1414
43423W        W44287   7.802  21.165  18.270 -0.2651 -0.1738 -0.0836
43424W        W44288   5.419  21.743  18.711 -0.1042 -0.0205  0.2689
43425W        W44289   4.188  22.241  16.793 -0.2960  0.0478 -0.2318
43426W        W44290   4.732  20.469  18.459 -0.5203 -0.0238 -0.1519
43427W        W44291   6.391  22.360  20.187 -0.2384  0.0977 -0.0248
43428W        W44292   5.621  17.911  17.964 -0.0636 -0.1120  0.2235
43429W        W44293   5.127  22.858  17.038  0.1113 -0.4251 -0.0306
43430W        W44294   7.116  21.494  16.520  0.0929 -0.1086 -0.1231
43431W        W44295   3.367  17.724  14.381  0.2087 -0.0035 -0.0901
43432W        W44296   6.726  18.533  13.234 -0.1293  0.0215  0.1563
43433W        W44297   6.027  17.641  17.865  0.1178  0.2689  0.2230
43434W        W44298   5.592  20.685  17.444  0.1735 -0.1908  0.0011
43435W        W44299   6.675  20.968  15.116 -0.2569 -0.0859 -0.0575
43436W        W44300   3.634  21.958  14.476  0.0768  0.0227  0.0356
43437W        W44301   4.193  21.546  14.690  0.2005  0.0180  0.2952
43438W        W44302   2.882  18.788  19.443 -0.0429  0.3055 -0.0849
43439W        W44303   6.628  20.411  19.548  0.2292  0.0883 -0.0791
43440W        W44304   4.642  20.055  14.444 -0.0369  0.0307 -0.2982
43441W        W44305   9.522  21.187  12.931  0.0649 -0.1261 -0.0745
43442W        W44306   8.464  19.920  16.882  0.1029 -0.2215 -0.2908
43443W        W44307   4.702  17.334  18.651 -0.0600  0.3596  0.3762
43444W        W44308  10.130  23.069  16.396 -0.2674  0.2761 -0.1839
43445W        W44309   4.328  20.497  14.279 -0.0582  0.1683  0.1930
43446W        W44310   6.212  20.503  12.975 -0.1242  0.1578  0.0361
43447W        W44311   1.642  21.728  13.505 -0.0481  0.2000 -0.2095
43448W        W44312   3.604  17.151  13.954 -0.1065  0.0491 -0.0261
43449W        W44313   3.992  18.725  16.457  0.1222  0.2627 -0.1088
43450W        W44314   1.470  23.164  16.524 -0.2393 -0.0162  0.3106
43451W        W44315   5.805  20.317  16.219 -0.1080 -0.0608  0.0747
43452W        W44316   1.201  20.437  13.583  0.0209  0.1394  0.0393
43453W        W44317   3.482  21.556  16.574 -0.1225  0.0597 -0.1083
43454W        W44318   3.568  22.081  17.254 -0.3219 -0.0830 -0.0535
43455W        W44319   4.588  23.679  16.177 -0.0070 -0.0252  0.0348
43456W        W44320   4.688  19.794  15.860  0.2062 -0.1066 -0.0385
43457W        W44321   4.996  18.995  14.436 -0.3063  0.0152  0.0006
43458W        W44322   1.411  21.735  16.232 -0.1639  0.0062  0.1578
43459W        W44323   4.798  18.945  13.088  0.0469  0.1882  0.3778
43460W        W44324   2.300  22.749  15.122 -0.2340 -0.2915  0.0967
43461W        W44325   4.872  21.545  15.669  0.1048  0.0009 -0.1273
43462W        W44326   6.494  23.415  15.636  0.2458  0.0719 -0.1168
43463W        W44327   6.513  19.140  16.870  0.0678 -0.2533 -0.1565
43464W        W44328   5.625  21.906  16.931 -0.1757 -0.1556  0.1713
43465W        W44329   7.987  22.235  19.643  0.0548  0.3286  0.3789
43466W        W44330   9.975  23.636  16.233 -0.1039  0.2086 -0.0278
43467W        W44331   5.502  22.463  16.961 -0.2863 -0.0031  0.3173
43468W        W44332   0.965  20.008  15.985  0.1119  0.0920  0.3889
43469W        W44333   4.704  20.940  16.857 -0.1357  0.0111  0.0551
43470W        W44334   6.524  22.362  17.072  0.0965 -0.2051 -0.1505
43471W        W44335   5.206  20.266  15.269  0.0688 -0.1200 -0.0672
43472W        W44336   4.286  20.663  17.606  0.0410 -0.0930 -0.2477
43473W        W44337   7.767  21.603  18.837  0.2126 -0.0151 -0.1694
43474W        W44338   4.935  16.925  16.454  0.5556  0.1082 -0.3800
43475W        W44339   7.027  17.956  17.960 -0.1667  0.2460 -0.1825
43476W        W44340   2.771  18.626  16.425 -0.1254 -0.2415 -0.1045
43477W        W44341   7.208  17.007  15.218  0.0588 -0.0171 -0.1188
43478W        W44342   7.970  20.647  16.882 -0.1273 -0.1043  0.0037
43479W        W44343   5.420  19.637  16.576 -0.2073 -0.1024 -0.1596
43480W        W44344   6.703  22.038  17.402  0.0757  0.4472  0.1741
43481W        W44345   5.270  18.632  14.866 -0.3476 -0.1530  0.4713
43482W        W44346   5.606  19.483  15.668 -0.0874  0.0343 -0.1789
43483W        W44347   7.006  20.559  16.969 -0.2115 -0.1436 -0.0930
43484W        W44348   1.554  22.321  14.856 -0.1211  0.0020  0.0482
43485W        W44349   3.011  18.491  13.746  0.2228 -0.0975 -0.0565
43486W        W44350   2.446  20.562  17.605  0.0887 -0.0213 -0.1313
43487W        W44351   4.841  17.682  14.810  0.0406  0.1207 -0.0347
43488W        W44352   6.523  18.942  15.725  0.0117  0.1527  0.0460
43489W        W44353   7.376  21.495  16.971  0.1739  0.0840 -0.0885
43490W        W44354   4.457  17.543  16.004 -0.1567 -0.1974  0.1210
43491W        W44355   6.385  17.999  14.902  0.1417 -0.1379  0.0665
43492W        W44356   8.486  22.162  15.833 -0.0213  0.0291  0.4601
43493W        W44357   4.933  20.150  14.849  0.2018 -0.1831 -0.1019
43494W        W44358   7.279  20.542  13.880 -0.3061  0.1869  0.3552
43495W        W44359   8.608  20.061  18.378 -0.2518 -0.2469  0.0347
43496W        W44360   7.199  18.946  16.364 -0.0549 -0.1347 -0.3742
43497W        W44361   7.719  18.723  16.998 -0.2037 -0.2261  0.0640
43498W        W44362   2.968  19.689  12.876 -0.0766  0.1289 -0.3356
43499W        W44363   6.518  21.231  17.752 -0.0971  0.4265  0.1162
43500W        W44364   6.459  19.894  15.787  0.0245  0.2320 -0.2969
43501W        W44365   3.340  21.755  17.553  0.2928  0.1155  0.0876
43502W        W44366   4.168  19.897  16.058 -0.0998  0.0436 -0.3044
43503W        W44367   5.965  17.714  17.414  0.2865 -0.3450 -0.1890
43504W        W44368   4.489  18.801  14.478  0.3191 -0.1313 -0.3846
43505W        W44369   8.104  22.436  18.338 -0.2380 -0.2119 -0.2783
43506W        W44370   5.695  20.918  13.371 -0.0833 -0.1425 -0.2276
43507W        W44371   3.025  21.383  18.347 -0.2935  0.3622  0.1813
43508W        W44372   7.258  20.250  17.435  0.1870 -0.2907 -0.3254
43509W        W44373   6.727  20.968  16.685  0.0543  0.0487  0.0364
43510W        W44374   5.606  17.436  17.613  0.0445  0.3237  0.1107
43511W        W44375   2.204  20.499  13.734  0.1994  0.1754  0.1417
43512W        W44376   4.603  19.366  14.431 -0.2776 -0.3005  0.1076
43513W        W44377   5.942  20.456  14.006 -0.1481  0.0807 -0.3219
43514W        W44378   5.834  21.439  16.741 -0.1264  0.0008 -0.0732
43515W        W44379   5.778  18.710  14.918  0.0207  0.1468  0.0820
43516W        W44380   3.882  19.292  15.568 -0.4097 -0.1593 -0.4556
43517W        W44381   7.101  20.689  18.008 -0.1631 -0.0394 -0.0109
43518W        W44382   5.311  20.412  16.087 -0.3098 -0.0695  0.1715
43519W        W44383   7.126  19.799  17.470  0.1668 -0.1175 -0.1410
43520W        W44384   6.223  24.298  17.542 -0.0412 -0.0011  0.0982
43521W        W44385   7.107  21.116  15.575 -0.0972 -0.3483 -0.0597
43522W        W44386   4.178  24.020  19.625 -0.1364  0.0053  0.1069
43523W        W44387   5.249  18.847  17.102  0.2445  0.4330 -0.2720
43524W        W44388   4.437  21.802  16.460  0.2421  0.1679 -0.0847
43525W        W44389   3.957  20.161  14.036  0.1842  0.2039 -0.1153
43526W        W44390   7.412  21.402  15.001  0.2242 -0.1345  0.1047
43527W        W44391   2.693  19.783  16.746  0.1452  0.0650 -0.0194
43528W        W44392  10.113  21.129  17.338  0.2242 -0.0257 -0.0382
43529W        W44393   8.849  19.736  18.090 -0.0436  0.0460 -0.1481
43530W        W44394   6.541  20.828  15.755 -0.2606 -0.0842 -0.1660
43531W        W44395   4.504  21.818  14.349  0.2694  0.1306 -0.0177
43532W        W44396   2.846  19.383  14.790 -0.0406  0.0269  0.2276
43533W        W44397   7.490  18.076  17.777  0.0084 -0.0557 -0.1976
43534W        W44398   2.129  22.634  13.768  0.1427 -0.2883  0.2159
43535W        W44399   6.359  22.264  14.976 -0.0455 -0.0569  0.0736
43536W        W44400   3.849  20.602  14.268  0.2033 -0.1926  0.3409
43537W        W44401   5.156  19.243  13.964 -0.1486 -0.0898  0.1240
43538W        W44402   8.042  18.453  18.438  0.0514  0.1223 -0.2266
43539W        W44403   9.802  22.681  15.549 -0.0250  0.2035 -0.1784
43540W        W44404   5.767  20.765  16.082 -0.4383 -0.2346  0.1488
43541W        W44405   2.983  23.552  17.494 -0.1363 -0.2561 -0.0401
43542W        W44406   7.838  21.315  17.515  0.0143 -0.0831  0.2652
43543W        W44407   4.117  19.793  14.990 -0.1418 -0.1130 -0.4240
43544W        W44408   2.623  19.350  16.504  0.0959 -0.1053 -0.0151
43545W        W44409   4.577  21.697  13.873 -0.3452  0.2663  0.1465
43546W        W44410   4.774  21.430  18.227  0.2653  0.0312  0.2967
43547W        W44411   5.990  19.990  18.286 -0.2275  0.0580 -0.0328
43548W        W44412   4.647  21.963  15.932 -0.0200  0.0453  0.1677
43549W        W44413   3.288  21.321  15.093  0.3720 -0.2115  0.0453
43550W        W44414   5.250  18.594  11.004  0.0067  0.0621 -0.1164
43551W        W44415   2.230  20.277  15.480  0.0641  0.4142  0.3331
43552W        W44416   8.641  21.115  18.801  0.0584 -0.1187  0.3080
43553W        W44417   4.286  22.610  18.077 -0.0829  0.0190  0.0554
43554W        W44418   5.960  23.196  18.761  0.1981 -0.2473 -0.0893
43555W        W44419   6.760  21.067  18.256 -0.2646  0.0245  0.0370
43556W        W44420   4.741  21.065  18.754 -0.0486  0.1644  0.1632
43557W        W44421   1.873  20.149  14.333  0.0380  0.1375 -0.2066
43558W        W44422   1.462  19.029  13.357 -0.3020  0.0010  0.4367
43559W        W44423   3.026  22.415  14.276  0.0695 -0.0289  0.1471
43560W        W44424   5.168  23.316  17.258  0.0133 -0.1772 -0.0883
43561W        W44425   2.641  21.628  13.076 -0.1384  0.2161 -0.1696
43562W        W44426   5.693  19.212  15.106 -0.0183 -0.1894 -0.0730
43563W        W44427   4.744  21.622  14.821 -0.1109  0.2535  0.0167
43564W        W44428   4.962  22.611  18.144  0.0901 -0.3065  0.2255
43565W        W44429   6.065  20.534  15.710  0.0261  0.0273  0.1639
43566W        W44430   4.753  22.588  16.932  0.1270  0.1448  0.1125
43567W        W44431   5.341  19.695  13.904  0.0056  0.2437  0.0345
43568W        W44432   5.619  22.080  18.004  0.2956  0.1194  0.0946
43569W        W44433   1.740  21.394  14.731  0.1370 -0.0386 -0.0441
43570W        W44434  28.427  21.820  15.683  0.0431 -0.0733 -0.2317
43571W        W44435   7.133  19.371  19.165 -0.1969 -0.0996 -0.3175
43572W        W44436   2.723  21.653  14.902 -0.0633 -0.0906  0.0174
43573W        W44437   8.511  20.211  14.341 -0.2792  0.0385  0.2124
43574W        W44438   5.473  18.238  12.063  0.2245  0.2739 -0.3736
43575W        W44439   2.335  21.308  13.874  0.0141  0.3078  0.0595
43576W        W44440   5.754  20.621  14.594 -0.4307 -0.2185  0.2267
43577W        W44441   7.683  19.133  17.824  0.1424  0.2432 -0.1527
43578W        W44442   6.868  15.850  16.977 -0.1675 -0.0776  0.0313
43579W        W44443   2.993  19.074  15.984 -0.2440  0.0583 -0.1544
43580W        W44444   3.519  22.642  17.389  0.0696 -0.2125 -0.4520
43581W        W44445   3.024  22.647  13.648  0.2348 -0.2552 -0.0849
43582W        W44446   3.818  19.874  12.401  0.1159  0.1207 -0.0181
43583W        W44447   4.449  21.829  15.472 -0.0265  0.1071 -0.3430
43584W        W44448   6.316  21.712  16.140 -0.1979 -0.0342 -0.1245
43585W        W44449   4.171  18.613  17.273  0.0396  0.0423 -0.3045
43586W        W44450   2.076  19.172  15.945  0.1077 -0.3895  0.0362
43587W        W44451   2.986  20.239  16.368  0.4806 -0.4274 -0.0136
43588W        W44452   9.250  16.235  16.451  0.4058 -0.1353 -0.3368
43589W        W44453   3.987  19.163  16.705  0.0314 -0.2663  0.2653
43590W        W44454   2.442  19.243  15.509  0.0583  0.2398  0.1365
43591W        W44455   5.864  21.616  18.363 -0.3357 -0.0679  0.0408
43592W        W44456   3.813  18.483  16.849 -0.0392  0.2985 -0.0288
43593W        W44457   6.936  19.477  18.674 -0.2395 -0.2744  0.2003
43594W        W44458   5.644  20.138  12.730 -0.2831 -0.0546  0.0021
43595W        W44459   5.352  17.173  17.962 -0.4186 -0.1299  0.0732
43596W        W44460   6.972  20.292  19.155 -0.2394  0.2381 -0.1067
43597W        W44461   3.524  17.383  15.225 -0.0295  0.0284  0.0361
43598W        W44462   4.437  21.546  19.080  0.1494 -0.0596 -0.0129
43599W        W44463   3.335  20.948  15.741  0.0271 -0.1232 -0.1088
43600W        W44464   7.520  22.260  16.619 -0.1209  0.0448  0.0399
43601W        W44465   2.425  19.817  14.287  0.0215  0.2706 -0.0657
43602W        W44466   4.976  21.210  19.241  0.1120 -0.1700  0.0781
43603W        W44467   6.763  23.701  18.385  0.3996  0.2472 -0.1226
43604W        W44468   4.466  18.968  16.357 -0.1219 -0.2344 -0.1098
43605W        W44469   7.438  18.409  15.252  0.2378  0.1637  0.1968
43606W        W44470   9.054  19.851  17.640 -0.2581  0.0618 -0.2875
43607W        W44471   6.868  20.134  15.324  0.1305  0.1763  0.1195
43608W        W44472   7.072  23.383  16.224  0.3046  0.0201 -0.0696
43609W        W44473   6.908  20.219  12.472  0.1726  0.0454  0.1867
43610W        W44474   4.402  19.937  16.835 -0.0986  0.0964  0.1434
43611W        W44475   2.411  20.912  16.062 -0.0908 -0.2843  0.1599
43612W        W44476   8.813  20.512  18.204  0.1354 -0.1509 -0.0342
43613W        W44477   3.785  19.525  16.044  0.0549  0.1397 -0.1303
43614W        W44478   5.678  22.497  17.462  0.2248  0.1947 -0.2321
43615W        W44479   7.634  17.820  13.568 -0.2467  0.1143 -0.0326
43616W        W44480   4.563  18.904  15.064  0.0813 -0.0983  0.1869
43617W        W44481   7.974  21.438  17.071 -0.0284 -0.1103 -0.0784
43618W        W44482   3.600  21.859  19.891  0.0781 -0.4965 -0.2817
43619W        W44483   1.945  19.612  14.353 -0.0376  0.1115  0.4389
43620W        W44484   8.502  20.728  19.118 -0.0091  0.0298 -0.0627
43621W        W44485   5.209  19.922  16.978  0.3871  0.0578  0.0491
43622W        W44486   6.904  19.008  18.884  0.0762 -0.1880 -0.1933
43623W        W44487   2.841  21.970  15.229 -0.4241 -0.0172 -0.0757
43624W        W44488   5.912  20.071  14.835  0.0130 -0.1771  0.0537
43625W        W44489   0.763  20.657  14.377 -0.0463  0.1494 -0.0307
43626W        W44490   7.666  23.041  14.715  0.1064  0.0823 -0.1475
43627W        W44491   6.170  23.046  15.833 -0.1674  0.0581 -0.1266
43628W        W44492   3.707  19.228  17.547 -0.1265 -0.1070  0.2901
43629W        W44493   5.362  23.793  16.214  0.0393 -0.0061  0.2676
43630W        W44494   4.984  22.968  16.239  0.0081  0.1691 -0.0434
43631W        W44495   2.247  21.708  15.187  0.0222 -0.1551  0.0648
43632W        W44496   5.214  20.930  17.208  0.0861  0.0583  0.1250
43633W        W44497   4.220  19.329  14.749  0.3045 -0.1685  0.1943
43634W        W44498   5.532  18.241  16.294 -0.1324 -0.0386 -0.2378
43635W        W44499   3.821  19.181  13.727  0.0911  0.1272  0.1078
43636W        W44500   3.383  21.723  12.377 -0.0476 -0.0654  0.3283
43637W        W44501   7.005  21.769  18.451 -0.1142  0.0714  0.0152
43638W        W44502   6.706  22.518  17.575 -0.1643  0.0167 -0.0092
43639W        W44503   8.091  20.119  14.622 -0.1172 -0.0790  0.1681
43640W        W44504   3.678  20.025  13.384  0.0258 -0.4272  0.0825
43641W        W44505   2.692  18.194  17.361 -0.2261 -0.0424 -0.1666
43642W        W44506   3.538  20.860  15.235  0.2868 -0.1871  0.3481
43643W        W44507   8.260  21.090  16.701 -0.2597  0.3559 -0.1027
43644W        W44508   6.434  19.619  17.070 -0.0928  0.0761  0.0458
43645W        W44509   5.135  20.487  13.168  0.2777  0.1671 -0.3457
43646W        W44510   5.665  22.156  16.056  0.0894  0.0906 -0.2625
43647W        W44511   6.615  18.798  14.592 -0.0151  0.0709 -0.0693
43648W        W44512   4.788  17.813  16.339 -0.0616 -0.1046  0.0058
43649W        W44513   9.339  22.738  16.893 -0.2928  0.3576 -0.0166
43650W        W44514   6.550  19.274  14.478 -0.1344 -0.0124  0.0128
43651W        W44515   4.488  18.814  12.684 -0.0677  0.0168 -0.1635
43652W        W44516   3.827  20.162  15.231  0.2378  0.1617 -0.0992
43653W        W44517   7.255  21.160  18.376 -0.4740 -0.1109 -0.3903
43654W        W44518   7.672  17.601  16.268  0.0313 -0.1499  0.0906
43655W        W44519   4.581  19.750  14.819 -0.2415 -0.2177  0.0333
43656W        W44520   3.193  24.308  20.935 -0.1384 -0.2653 -0.4471
43657W        W44521   2.876  21.522  15.407  0.2972 -0.2966  0.1851
43658W        W44522   9.368  20.634  17.320  0.2233 -0.0344  0.0276
43659W        W44523   4.057  18.245  15.741  0.0008 -0.1639  0.2157
43660W        W44524   5.884  20.487  13.510  0.3152 -0.2511  0.1383
43661W        W44525   2.853  15.345  14.686  0.0067 -0.1988 -0.1789
43662W        W44526   6.832  21.573  17.544 -0.2061  0.1658  0.0409
43663W        W44527   6.231  22.122  18.105 -0.0413  0.0970 -0.0018
43664W        W44528   2.830  21.683  17.796  0.1473  0.0564 -0.1854
43665W        W44529   7.346  22.794  15.481  0.0557  0.3196 -0.2795
43666W        W44530   7.552  17.659  19.928 -0.2028 -0.0807  0.2508
43667W        W44531   5.484  19.146  16.146  0.3719 -0.0975  0.0519
43668W        W44532   6.946  20.215  16.131 -0.0106 -0.0361 -0.0504
43669W        W44533   4.299  19.743  14.054 -0.1517 -0.1339  0.1542
43670W        W44534   3.316  23.237  17.915  0.0715 -0.0053  0.1306
43671W        W44535   8.297  21.785  16.116  0.0351 -0.3899  0.2469
43672W        W44536   3.116  19.609  16.548 -0.1541  0.0678 -0.0768
43673W        W44537   3.168  19.418  14.234 -0.1408 -0.1651 -0.2919
43674W        W44538   4.069  21.548  15.571  0.0690  0.2305  0.0650
43675W        W44539   5.821  19.929  16.540 -0.0179 -0.2158 -0.0580
43676W        W44540   6.749  17.714  16.178  0.1455  0.2710 -0.1069
43677W        W44541   8.240  19.052  11.715  0.2658 -0.0543 -0.3029
43678W        W44542   5.554  20.124  15.601  0.3442 -0.3619  0.0599
43679W        W44543   7.789  20.204  15.533  0.2072 -0.0758  0.0469
43680W        W44544   6.105  23.482  14.305 -0.2385  0.0576 -0.3604
43681W        W44545   4.020  18.260  13.300  0.0752  0.0945 -0.2386
43682W        W44546   7.594  17.272  14.972  0.2534  0.2938 -0.0420
43683W        W44547   3.962  18.954  14.610 -0.2525  0.0678  0.1362
43684W        W44548   3.207  19.323  11.727 -0.0431 -0.3798  0.0351
43685W        W44549   2.933  17.863  15.888  0.0316  0.1870 -0.1807
43686W        W44550   6.089  19.522  14.956 -0.1977 -0.2283  0.0728
43687W        W44551   4.897  20.232  15.630  0.0384 -0.1416  0.1683
43688W        W44552   7.499  20.182  17.919  0.0951 -0.1607  0.0367
43689W        W44553   7.401  17.612  17.050 -0.5892  0.1452  0.3287
43690W        W44554   3.680  21.385  15.370  0.1920  0.0659 -0.0888
43691W        W44555   2.337  21.103  11.893 -0.1986 -0.4820 -0.1164
43692W        W44556   3.717  18.931  17.127  0.0632 -0.0877  0.2340
43693W        W44557   6.337  23.010  18.179  0.0427 -0.1298  0.0867
43694W        W44558   7.598  20.000  14.717 -0.0583  0.0501  0.0271
43695W        W44559   6.636  22.640  14.550 -0.1070  0.1428  0.0683
43696W        W44560   6.418  23.922  17.368 -0.2394 -0.0769 -0.0558
43697W        W44561   6.334  22.958  16.323 -0.0723  0.1237 -0.1208
43698W        W44562   6.532  20.978  12.856 -0.1129 -0.0976 -0.3249
43699W        W44563   3.415  21.259  17.429  0.0539 -0.0668 -0.0498
43700W        W44564   5.146  22.593  14.763  0.0385 -0.3720  0.3978
43701W        W44565   3.019  15.835  13.844  0.1967 -0.0248  0.0225
43702W        W44566   7.463  22.171  17.610  0.0809 -0.1902 -0.2890
43703W        W44567   3.197  20.056  11.508  0.0137 -0.1267 -0.1381
43704W        W44568   8.532  22.655  20.319  0.0180 -0.2660  0.1041
43705W        W44569   4.765  22.092  18.952  0.2064  0.1107  0.0673
43706W        W44570   3.047  22.025  17.224 -0.1060  0.1604 -0.0169
43707W        W44571   6.730  20.147  14.636 -0.0914  0.1444 -0.1421
43708W        W44572   6.128  22.242  16.197  0.0172 -0.0182 -0.0975
43709W        W44573   9.059  23.757  17.452  0.0727  0.1155  0.1325
43710W        W44574   4.433  19.027  15.630 -0.0201 -0.1362  0.2226
43711W        W44575   4.718  22.127  18.048 -0.0542  0.1366 -0.3980
43712W        W44576   6.963  22.722  15.178  0.2947 -0.0370  0.1282
43713W        W44577   5.073  21.492  20.380 -0.0733 -0.2620 -0.2037
43714W        W44578   5.356  21.432  16.395 -0.2701 -0.0885 -0.1928
43715W        W44579   4.608  19.972  13.114  0.1484 -0.0002 -0.1189
43716W        W44580   1.764  19.800  14.743  0.1893 -0.3598  0.0145
43717W        W44581   3.325  20.380  12.301  0.3197  0.0829  0.0444
43718W        W44582   1.946  20.845  13.935 -0.1787  0.0904 -0.2126
43719W        W44583   4.419  15.910  11.994  0.1019  0.2371 -0.2649
43720W        W44584   5.282  21.976  16.561 -0.0098  0.1708  0.0527
43721W        W44585   2.576  20.690  16.989  0.1584  0.1860 -0.1296
43722W        W44586   6.141  17.055  13.721 -0.0523 -0.1514  0.0647
43723W        W44587   6.943  21.085  17.752  0.0425  0.0334  0.1485
43724W        W44588   6.752  22.204  18.680  0.0752  0.0466  0.0202
43725W        W44589   6.206  21.765  16.711 -0.0770  0.1093 -0.1371
43726W        W44590   7.551  21.116  18.753 -0.3418 -0.1335 -0.3785
43727W        W44591   3.654  22.755  16.189  0.2508 -0.0783 -0.1429
43728W        W44592   7.811  23.103  15.277  0.1142  0.1487 -0.1321
43729W        W44593   2.881  18.232  14.173 -0.0337 -0.1176 -0.0104
43730W        W44594   4.284  19.513  15.760 -0.0281  0.0318  0.1427
43731W        W44595   4.106  21.067  15.420 -0.1461 -0.2361  0.0453
43732W        W44596   6.448  19.104  17.960 -0.1085 -0.2496  0.0752
43733W        W44597   5.234  21.313  18.521 -0.4235  0.2028 -0.0251
43734W        W44598   3.126  21.814  14.264  0.0389 -0.2300  0.2253
43735W        W44599   5.011  20.349  17.084 -0.3400  0.0950 -0.2856
43736W        W44600   5.988  22.877  17.710 -0.2218  0.2579  0.0720
43737W        W44601   3.300  19.633  14.677 -0.1617 -0.1804 -0.0143
43738W        W44602   2.970  19.025  13.935  0.0399 -0.1797  0.2311
43739W        W44603   6.098  22.624  17.133  0.0460  0.0023 -0.2606
43740W        W44604   3.878  18.670  15.082  0.1428 -0.1495 -0.3812
43741W        W44605   7.025  19.884  14.893 -0.0591  0.0453 -0.1899
43742W        W44606   5.916  18.830  14.477 -0.0007  0.2201  0.2050
43743W        W44607   8.932  20.901  19.739  0.0618  0.2790 -0.0657
43744W        W44608   6.945  23.482  14.328 -0.4174  0.0611  0.0949
43745W        W44609   1.797  18.633  15.597  0.2335 -0.1416 -0.2713
43746W        W44610   5.423  16.413  15.837 -0.0137 -0.0670  0.2249
43747W        W44611   2.672  21.326  15.792 -0.1921 -0.0063  0.2298
43748W        W44612   7.540  20.112  19.427  0.4544  0.0859  0.0170
43749W        W44613   3.609  23.445  18.927 -0.0004 -0.0352  0.1801
43750W        W44614   3.154  17.081  15.572  0.1384  0.1669  0.2328
43751W        W44615   3.186  18.812  12.982 -0.0530  0.1338  0.0131
43752W        W44616   7.380  23.895  17.851 -0.1487 -0.1392  0.1032
43753W        W44617   6.684  20.092  17.122  0.4184  0.0729  0.1005
43754W        W44618   4.104  18.475  12.243 -0.2405  0.0753 -0.1683
43755W        W44619   3.352  19.847  13.871 -0.0303  0.1160 -0.1086
43756W        W44620  10.898  20.718  17.651 -0.1744 -0.0624  0.2153
43757W        W44621  10.070  22.531  16.555 -0.2980  0.3414  0.0219
43758W        W44622   3.365  19.957  16.238 -0.1276  0.0868 -0.1508
43759W        W44623   4.711  19.512  11.143  0.1150 -0.0795  0.0881
43760W        W44624   7.443  21.709  17.813  0.1184 -0.1809  0.0600
43761W        W44625   2.441  20.957  12.955 -0.0946  0.1647  0.0445
43762W        W44626   3.029  17.480  14.076  0.2003  0.0850  0.0026
43763W        W44627   3.101  19.875  15.073  0.2237 -0.2195 -0.1666
43764W        W44628   5.647  24.087  18.429 -0.0264 -0.1512 -0.1207
43765W        W44629   6.796  22.454  16.179  0.0758 -0.2525  0.2461
43766W        W44630   7.132  19.877  18.957  0.2457  0.0663 -0.2863
43767W        W44631   3.261  19.310  13.632  0.0819  0.3106  0.3207
43768W        W44632   7.557  25.575  18.495  0.1206 -0.1508  0.3054
43769W        W44633   5.189  21.318  17.528  0.0049  0.0335 -0.2335
43770W        W44634  28.950  21.754  13.943  0.1295 -0.0889 -0.1664
43771W        W44635   6.801  20.166  17.641  0.0334  0.0243 -0.0406
43772W        W44636   3.978  21.613  16.290  0.0913 -0.1212  0.0927
43773W        W44637   3.360  19.537  15.727 -0.2826  0.0516  0.1523
43774W        W44638   6.666  19.512  18.214  0.1623 -0.0079  0.0493
43775W        W44639   6.963  24.520  19.310  0.0166 -0.3921 -0.2236
43776W        W44640   9.850  21.870  17.755 -0.0272  0.0816 -0.5182
43777W        W44641   3.693  22.023  16.300 -0.1395  0.1760  0.1806
43778W        W44642   5.929  21.484  17.331  0.0036 -0.1811  0.2701
43779W        W44643   4.196  22.256  15.319 -0.1307  0.2330 -0.0865
43780W        W44644   7.654  21.479  16.233 -0.0319  0.3310 -0.3439
43781W        W44645   5.802  24.579  17.759  0.0019  0.0484  0.0197
43782W        W44646   0.101  19.983  15.666 -0.2185  0.0291 -0.1509
43783W        W44647   3.102  17.606  15.455 -0.1503 -0.1954  0.0340
43784W        W44648   5.152  22.268  17.797  0.0234  0.3499  0.1178
43785W        W44649   5.290  21.100  15.446 -0.1771  0.3092  0.0907
43786W        W44650   6.370  18.281  21.219  0.0563 -0.3076 -0.0191
43787W        W44651   6.624  21.572  16.585 -0.0050 -0.1643  0.1279
43788W        W44652   6.498  20.695  17.757 -0.1087  0.3313 -0.1278
43789W        W44653   6.173  18.750  16.544 -0.2884 -0.0299  0.2935
43790W        W44654   5.295  17.943  11.027  0.0763  0.4100 -0.0275
43791W        W44655   4.530  23.123  22.107  0.1029  0.1173 -0.3294
43792W        W44656   4.972  19.808  24.474  0.3796  0.3589  0.0322
43793W        W44657  10.585  21.688  16.906 -0.1328 -0.1723  0.0411
43794W        W44658   6.427  22.575  18.000  0.0462  0.0255 -0.3519
43795W        W44659   4.036  22.809  20.203  0.0227 -0.0714 -0.2252
43796W        W44660   2.954  20.775  21.089 -0.0155 -0.3032  0.0435
43797W        W44661   4.113  21.896  17.272  0.1225  0.3301  0.0170
43798W        W44662   8.497  21.593  21.374 -0.0162 -0.1885 -0.0376
43799W        W44663   6.643  23.706  21.700  0.0656  0.1171 -0.2285
43800W        W44664   2.080  21.478  21.089  0.0702 -0.0289  0.1085
43801W        W44665   5.646  20.498  18.928  0.2325  0.1412 -0.1532
43802W        W44666   7.080  20.243  19.622 -0.0380 -0.1112 -0.2873
43803W        W44667   4.563  21.818  16.975 -0.4195 -0.1490  0.0097
43804W        W44668   6.787  17.254  20.312  0.1634  0.1468 -0.1700
43805W        W44669   4.596  19.605  20.382 -0.2467  0.1849 -0.4268
43806W        W44670   3.907  20.938  23.517 -0.2592  0.0907 -0.2434
43807W        W44671   8.034  21.002  17.855  0.1622  0.0315  0.0464
43808W        W44672   1.281  19.823  18.333  0.3459 -0.2598  0.3494
43809W        W44673   5.223  19.768  22.616 -0.0340  0.2170 -0.1418
43810W        W44674   6.881  20.648  17.434 -0.1786  0.1445 -0.0900
43811W        W44675   6.918  20.638  18.557 -0.1485  0.1475 -0.1746
43812W        W44676   5.661  20.646  21.417  0.1757  0.0954  0.1724
43813W        W44677   5.378  21.557  21.670 -0.2393  0.1914  0.0163
43814W        W44678   4.131  20.074  21.752  0.2598 -0.1779 -0.4289
43815W        W44679   4.689  19.710  17.696 -0.0549  0.2819 -0.4625
43816W        W44680   4.249  22.900  24.015  0.2279 -0.2793  0.2491
43817W        W44681   7.764  19.689  23.444  0.0442  0.2711  0.0348
43818W        W44682   6.102  23.539  20.978  0.3483 -0.0264  0.0648
43819W        W44683   5.248  21.005  20.338  0.4457 -0.1149 -0.1311
43820W        W44684   5.858  20.946  19.129 -0.0773  0.1594 -0.3040
43821W        W44685   4.919  20.636  21.625  0.0506 -0.0002 -0.1426
43822W        W44686   7.871  22.104  21.737 -0.0498  0.3781 -0.2918
43823W        W44687   4.353  16.873  24.138 -0.1211  0.1626 -0.2857
43824W        W44688   4.252  19.955  21.256 -0.1868 -0.1787 -0.0735
43825W        W44689   6.042  20.521  23.047  0.2762  0.1857 -0.2464
43826W        W44690   5.459  20.267  20.475 -0.1830 -0.0014  0.0353
43827W        W44691   4.731  20.251  17.650  0.1867  0.1361 -0.2443
43828W        W44692   6.011  22.516  18.879 -0.2975  0.0594 -0.1498
43829W        W44693   6.424  21.336  16.930  0.1197  0.1753  0.1121
43830W        W44694   5.779  21.694  22.196  0.2064 -0.1942  0.1361
43831W        W44695   7.546  19.542  18.839 -0.0377  0.0629  0.1812
43832W        W44696   4.167  19.745  19.406 -0.0024 -0.2771  0.0473
43833W        W44697   4.159  22.518  20.872  0.0978 -0.2133  0.1740
43834W        W44698   7.684  22.232  19.163  0.1822  0.1063  0.1805
43835W        W44699   0.539  20.015  18.712  0.3422 -0.0478 -0.0196
43836W        W44700   4.630  21.885  18.476  0.0723 -0.0953  0.1209
43837W        W44701   5.147  17.369  20.627  0.1739  0.3808 -0.0313
43838W        W44702   6.245  21.685  21.947  0.0443 -0.1485  0.2423
43839W        W44703   9.289  20.417  19.014  0.2136 -0.3861  0.0791
43840W        W44704   5.312  18.721  18.416 -0.2193  0.0588 -0.1452
43841W        W44705   6.273  22.663  19.794 -0.2626  0.4757 -0.1605
43842W        W44706   3.330  19.049  18.221  0.1452 -0.0526 -0.1846
43843W        W44707   6.001  25.471  20.731  0.2145 -0.2078  0.2706
43844W        W44708   4.341  18.999  21.649 -0.4340  0.1998  0.0077
43845W        W44709   5.777  20.079  17.017 -0.2706 -0.0811  0.0650
43846W        W44710   4.985  20.857  18.213  0.2071 -0.0363  0.2140
43847W        W44711   3.918  17.453  19.708  0.0701  0.2224 -0.0537
43848W        W44712   6.795  22.334  20.466  0.0326 -0.2072 -0.0981
43849W        W44713   4.798  20.145  21.406  0.3360 -0.3292  0.1380
43850W        W44714   4.967  21.613  16.713 -0.2335  0.0529  0.2193
43851W        W44715   5.719  19.134  20.523  0.0007 -0.1959 -0.1473
43852W        W44716   5.831  20.988  18.540 -0.1412  0.1054  0.1486
43853W        W44717   3.683  18.885  20.104 -0.1654  0.0197  0.0115
43854W        W44718   3.687  21.409  19.613 -0.0782  0.1906  0.0217
43855W        W44719   3.372  17.170  17.454 -0.3077  0.1112 -0.1872
43856W        W44720   6.883  18.778  20.512  0.2330 -0.1077 -0.3983
43857W        W44721   4.129  20.326  17.201  0.1296  0.0630  0.0955
43858W        W44722   3.867  18.278  17.914 -0.2022 -0.1531  0.1641
43859W        W44723   4.465  20.955  18.352 -0.3483 -0.3093 -0.1519
43860W        W44724   7.202  20.349  18.306 -0.3500 -0.2480 -0.2192
43861W        W44725   6.589  22.080  19.156 -0.1623  0.2936  0.0475
43862W        W44726   5.566  19.113  18.191  0.1494  0.1302  0.5011
43863W        W44727   7.216  22.902  19.153 -0.2323  0.1110  0.4531
43864W        W44728   6.425  19.562  20.189 -0.0760 -0.0307  0.2611
43865W        W44729   8.022  20.539  19.738  0.1078  0.0203 -0.1355
43866W        W44730   7.186  17.910  22.474  0.0500 -0.0481  0.1823
43867W        W44731   2.895  20.000  19.607  0.0146  0.5643 -0.1069
43868W        W44732   4.837  22.040  21.055 -0.0620 -0.0419 -0.2569
43869W        W44733   6.375  20.320  18.520  0.3660  0.1865 -0.0806
43870W        W44734   5.090  20.711  19.172  0.2493 -0.0203 -0.1636
43871W        W44735   2.858  18.193  20.765 -0.0647 -0.2882  0.0138
43872W        W44736   4.109  19.459  19.862 -0.0938  0.3281 -0.0422
43873W        W44737   2.783  20.690  16.374  0.0977 -0.0570 -0.1717
43874W        W44738   7.292  19.908  19.906 -0.1457 -0.2124  0.4375
43875W        W44739   7.284  18.876  19.689  0.0398 -0.0378 -0.1543
43876W        W44740   5.072  22.619  18.664 -0.1181 -0.0363 -0.0097
43877W        W44741   8.287  21.237  22.602 -0.0397 -0.1575 -0.1139
43878W        W44742   4.703  17.465  20.818  0.0357 -0.0209 -0.0298
43879W        W44743   7.074  19.945  20.749  0.1119 -0.0490  0.0815
43880W        W44744   5.388  21.100  19.018 -0.0719  0.1339  0.2437
43881W        W44745   6.101  20.105  19.456  0.1228 -0.2415  0.2205
43882W        W44746   5.985  20.467  20.582 -0.0819  0.2537  0.0438
43883W        W44747   5.233  22.057  19.041  0.0328  0.2403  0.0773
43884W        W44748   6.242  21.345  19.452  0.2579 -0.0183 -0.2456
43885W        W44749   4.633  19.280  20.005  0.0035  0.1992 -0.3306
43886W        W44750   7.375  18.620  18.570 -0.0529  0.1259  0.2290
43887W        W44751   3.948  21.602  18.761  0.2393 -0.1227 -0.0955
43888W        W44752   5.372  19.831  23.636 -0.1746  0.0564  0.1315
43889W        W44753   4.654  19.649  16.433 -0.1511 -0.0369 -0.0413
43890W        W44754   4.852  19.309  20.859 -0.0727 -0.3523  0.1378
43891W        W44755   8.817  19.956  21.053 -0.1814 -0.1051  0.0090
43892W        W44756   2.024  20.295  21.079  0.0380 -0.1731  0.2176
43893W        W44757   7.121  21.058  17.007  0.1770  0.0506  0.1001
43894W        W44758   7.404  21.971  21.628  0.2481  0.0303  0.1139
43895W        W44759   7.143  19.268  20.570 -0.0496  0.0984  0.0821
43896W        W44760   6.733  21.090  23.105 -0.1032  0.1846 -0.0170
43897W        W44761   7.151  21.930  16.830  0.0618 -0.3043  0.3556
43898W        W44762   6.530  19.843  22.420  0.1662 -0.3507 -0.0152
43899W        W44763   3.696  21.609  17.152  0.2506 -0.1481 -0.4562
43900W        W44764   4.177  20.635  19.401 -0.2434 -0.1778 -0.1396
43901W        W44765   4.645  20.435  19.450  0.0707 -0.1393 -0.3001
43902W        W44766   6.115  20.685  19.926  0.1354  0.0334  0.0985
43903W        W44767   6.649  21.694  19.462  0.3068  0.3973  0.3129
43904W        W44768   6.422  23.332  21.449 -0.0637 -0.0626 -0.2637
43905W        W44769   8.320  21.973  18.134  0.4050 -0.0507  0.2945
43906W        W44770   4.765  20.698  17.396  0.0917  0.2457  0.0707
43907W        W44771   9.763  17.787  20.530 -0.0957 -0.0448 -0.0330
43908W        W44772   5.073  20.307  22.760  0.2363  0.0356  0.2480
43909W        W44773   3.144  21.229  20.855  0.2834  0.0892  0.1715
43910W        W44774   8.446  18.364  18.190 -0.0894 -0.2012 -0.0953
43911W        W44775   8.136  21.599  18.451 -0.0275 -0.2138 -0.0560
43912W        W44776   8.717  23.318  19.343 -0.1171 -0.1211  0.1004
43913W        W44777   5.431  21.530  21.125  0.3263 -0.2296 -0.4042
43914W        W44778   5.812  21.962  21.678 -0.0463  0.1203 -0.1267
43915W        W44779   4.286  20.117  20.209 -0.4332 -0.0292  0.0252
43916W        W44780   6.372  21.950  20.564  0.2534 -0.0954  0.2015
43917W        W44781   3.884  18.344  19.332  0.3385 -0.0775  0.0365
43918W        W44782   5.668  18.535  18.783 -0.1416 -0.0778 -0.0480
43919W        W44783   7.121  24.204  21.104  0.2085 -0.0387  0.1625
43920W        W44784   4.307  21.608  22.602 -0.2297  0.0812  0.1000
43921W        W44785   5.756  22.608  19.728  0.2093 -0.0256  0.1402
43922W        W44786   5.398  19.617  20.464  0.2245 -0.0274 -0.4393
43923W        W44787   5.523  23.404  21.841  0.0916 -0.1150  0.0776
43924W        W44788   6.392  21.122  19.029  0.1014 -0.1294  0.0618
43925W        W44789   7.572  20.592  19.207 -0.0464 -0.0988  0.1334
43926W        W44790   3.941  18.516  19.892 -0.1817  0.2817  0.1462
43927W        W44791   6.488  21.750  18.367 -0.3102  0.1868 -0.0536
43928W        W44792   7.939  16.536  21.336 -0.0602 -0.1845  0.2079
43929W        W44793   4.701  22.469  20.815  0.0249 -0.2906  0.0780
43930W        W44794   5.575  20.841  18.107  0.1342  0.1578 -0.2464
43931W        W44795   4.340  19.692  18.193  0.3442  0.1628  0.0110
43932W        W44796   7.716  19.246  19.704 -0.3826 -0.2304  0.0290
43933W        W44797   6.437  20.788  18.522  0.0843  0.1229 -0.1524
43934W        W44798   7.014  21.487  17.982 -0.1551  0.2834 -0.3358
43935W        W44799   5.484  22.345  22.883  0.1950  0.0510 -0.1525
43936W        W44800   4.773  19.319  19.185  0.2078  0.4295  0.0908
43937W        W44801   7.312  19.123  18.612 -0.1325 -0.0234  0.2597
43938W        W44802   6.877  23.653  17.533  0.0595 -0.1603  0.2127
43939W        W44803   4.910  22.338  21.747 -0.0159  0.4145 -0.0363
43940W        W44804   5.202  20.547  19.679 -0.2888 -0.0542  0.0020
43941W        W44805   5.210  20.692  21.141  0.0781 -0.1694  0.2207
43942W        W44806   2.784  20.856  17.775 -0.0187 -0.0814  0.0574
43943W        W44807   8.429  21.682  22.747 -0.1243 -0.0937 -0.0628
43944W        W44808   3.595  21.204  16.246  0.1170  0.3491 -0.0353
43945W        W44809   5.990  21.605  21.279  0.0695  0.0349  0.0991
43946W        W44810   5.124  17.780  20.944 -0.0770  0.2233 -0.0301
43947W        W44811   5.221  18.420  21.520 -0.1337 -0.0806 -0.3163
43948W        W44812   4.984  21.232  21.897 -0.2590 -0.2152 -0.3182
43949W        W44813   1.613  16.785  16.064 -0.0657 -0.2180 -0.1116
43950W        W44814   7.516  18.680  17.686 -0.0134  0.1509  0.0980
43951W        W44815   5.185  19.367  18.427  0.0874  0.1594  0.0720
43952W        W44816   5.528  21.869  24.102  0.0482  0.1446  0.1418
43953W        W44817   5.976  19.156  22.631 -0.1349  0.3160 -0.2292
43954W        W44818   4.760  20.070  22.383 -0.0228 -0.0723 -0.4013
43955W        W44819   6.994  20.549  21.181  0.0765 -0.1633  0.3175
43956W        W44820   5.220  18.378  19.117  0.0551  0.1350  0.0482
43957W        W44821   2.523  18.324  20.466 -0.0305  0.0360  0.0563
43958W        W44822   4.956  21.758  21.902 -0.0093 -0.4038 -0.1420
43959W        W44823   5.627  19.610  22.942  0.3019  0.3495 -0.1074
43960W        W44824   6.135  21.211  15.954 -0.1491  0.0100  0.1387
43961W        W44825   6.210  19.717  19.175 -0.0288  0.0536 -0.0999
43962W        W44826   6.352  21.716  19.952  0.1242 -0.3575 -0.2392
43963W        W44827   4.320  18.542  21.487 -0.2683 -0.0744  0.1909
43964W        W44828   6.367  22.450  18.481  0.1932  0.0356 -0.5373
43965W        W44829   4.271  14.961  22.078  0.2714 -0.1664 -0.0986
43966W        W44830   5.106  17.423  18.399  0.2249  0.0229 -0.0832
43967W        W44831   2.028  23.322  20.996 -0.1573  0.0022  0.1592
43968W        W44832   1.871  21.674  17.739 -0.1173 -0.2951 -0.0381
43969W        W44833   2.463  21.786  20.215  0.0025  0.0586  0.1000
43970W        W44834   4.183  19.420  21.828  0.4314 -0.1679 -0.1876
43971W        W44835   5.057  22.177  18.464 -0.1467 -0.0946 -0.4249
43972W        W44836   4.684  23.005  21.035 -0.0524  0.1383  0.1100
43973W        W44837   6.865  20.050  18.493 -0.1014  0.2283  0.1717
43974W        W44838   2.508  19.378  18.264  0.0358  0.0762 -0.1069
43975W        W44839   6.152  17.672  18.340  0.1233  0.2260  0.3357
43976W        W44840   4.980  19.708  22.132 -0.1090 -0.0736  0.0593
43977W        W44841   6.505  19.271  20.876 -0.0618 -0.0294 -0.2088
43978W        W44842   5.792  19.663  18.883 -0.1052 -0.1579  0.1445
43979W        W44843   3.870  22.806  23.489  0.1270  0.1138  0.2755
43980W        W44844   3.319  19.501  19.134  0.2435  0.0241 -0.1321
43981W        W44845   4.964  21.232  19.952  0.2445 -0.0764 -0.1219
43982W        W44846   4.290  21.015  19.818 -0.0887 -0.1177  0.2985
43983W        W44847   5.728  22.547  21.912  0.1600 -0.1128 -0.0891
43984W        W44848   8.080  16.658  22.564  0.0094  0.0921 -0.1088
43985W        W44849   7.261  22.590  22.385  0.0233 -0.1075 -0.1132
43986W        W44850   5.277  21.636  19.293  0.3995 -0.2262  0.0740
43987W        W44851   6.051  19.077  16.991  0.1072  0.1916  0.0710
43988W        W44852   5.043  18.987  18.035  0.0756 -0.0563 -0.0509
43989W        W44853   2.520  21.017  19.637 -0.1108 -0.0514  0.3199
43990W        W44854   6.797  21.549  20.877  0.3679 -0.0243  0.1273
43991W        W44855   5.552  18.744  17.880  0.1750 -0.0402 -0.2026
43992W        W44856   5.493  18.432  20.175 -0.0265 -0.1038  0.0591
43993W        W44857   8.013  19.876  18.040  0.1534 -0.2009  0.1996
43994W        W44858   3.003  18.260  19.133  0.3713 -0.1879 -0.0597
43995W        W44859   4.795  18.868  21.574 -0.3114  0.2072 -0.2009
43996W        W44860   7.149  19.410  19.704  0.2355 -0.1343  0.2474
43997W        W44861   2.892  18.842  23.016 -0.0722  0.1886  0.0948
43998W        W44862   6.476  21.622  18.968 -0.1717 -0.1912  0.2759
43999W        W44863   4.270  22.218  17.715  0.0639 -0.0316 -0.0490
44000W        W44864   4.702  20.885  20.249  0.1718  0.0972  0.0215
44001W        W44865   1.145  20.090  20.893 -0.1226 -0.1792  0.1806
44002W        W44866   5.737  20.743  22.080 -0.1319 -0.0323  0.2088
44003W        W44867   3.628  20.801  21.673  0.0841 -0.3146  0.0709
44004W        W44868   6.620  19.582  23.680  0.0517 -0.2965  0.0262
44005W        W44869   5.858  23.492  21.460 -0.0139  0.3136  0.3066
44006W        W44870   6.162  19.574  17.975 -0.2734  0.1061  0.0140
44007W        W44871   7.999  22.286  15.907 -0.2777  0.0641 -0.2267
44008W        W44872   5.495  21.990  17.464  0.2731 -0.0621 -0.0073
44009W        W44873   4.354  19.497  20.787 -0.0248 -0.2508 -0.1843
44010W        W44874   5.837  19.653  23.477 -0.0057  0.0479  0.0246
44011W        W44875   7.507  20.495  21.268  0.1238 -0.0945  0.2751
44012W        W44876   4.383  20.569  19.991 -0.2765  0.0789  0.1955
44013W        W44877   5.701  23.911  22.054 -0.1823  0.2662 -0.0564
44014W        W44878   7.554  18.151  18.718  0.1080  0.2671  0.1666
44015W        W44879   3.958  20.303  17.762  0.0857 -0.0542 -0.2347
44016W        W44880   5.170  19.231  21.630 -0.3129  0.0454 -0.0465
44017W        W44881   6.103  21.138  23.780 -0.2307 -0.1903 -0.0818
44018W        W44882   7.668  19.241  21.235 -0.2716  0.0315 -0.2435
44019W        W44883   9.300  20.157  19.457 -0.1552 -0.4218 -0.0184
44020W        W44884   5.794  21.523  19.545 -0.1009  0.1280 -0.0483
44021W        W44885   4.518  21.436  21.776 -0.0557 -0.0241  0.0092
44022W        W44886   6.781  22.675  23.339 -0.1112  0.0474 -0.2332
44023W        W44887   6.486  20.247  19.050  0.3769  0.0255 -0.1869
44024W        W44888   6.171  22.297  17.650  0.1135  0.1611  0.0013
44025W        W44889   3.833  19.046  21.899 -0.2968 -0.1537  0.1889
44026W        W44890   6.078  21.809  17.678  0.3338 -0.0051  0.0409
44027W        W44891  10.266  18.619  19.650  0.2548  0.0899 -0.2381
44028W        W44892   5.819  19.239  19.218  0.1827  0.1816 -0.1040
44029W        W44893   4.017  20.799  20.838  0.1316 -0.3041 -0.0126
44030W        W44894   5.214  23.070  24.024 -0.1627  0.1751 -0.1721
44031W        W44895   7.703  25.657  17.255  0.0904  0.0933 -0.1433
44032W        W44896   3.090  21.880  21.803  0.3071  0.1988  0.1226
44033W        W44897   4.993  17.510  17.852 -0.0295 -0.0005  0.0642
44034W        W44898   2.021  20.779  17.425 -0.1372 -0.1885 -0.0877
44035W        W44899   5.262  20.669  18.723 -0.1803 -0.1742  0.4026
44036W        W44900   5.937  22.061  20.314  0.1702 -0.0406  0.0218
44037W        W44901   7.211  18.534  20.008  0.0273  0.1920  0.1890
44038W        W44902   4.453  23.981  19.223  0.0491  0.5664 -0.1268
44039W        W44903   6.648  19.810  18.900 -0.2767  0.1841  0.1647
44040W        W44904   4.435  21.538  16.006  0.1191  0.1157 -0.4352
44041W        W44905   4.913  21.495  16.155  0.2444  0.0804  0.1724
44042W        W44906   6.796  22.657  20.022  0.0674  0.0489  0.0805
44043W        W44907   7.568  23.473  18.151 -0.2681  0.3556  0.0038
44044W        W44908   8.053  19.930  20.865  0.0155  0.0656 -0.0295
44045W        W44909   6.299  19.562  18.520  0.1694 -0.1412 -0.1024
44046W        W44910   6.061  21.294  19.965  0.2347 -0.2667 -0.2954
44047W        W44911   6.469  19.918  18.139  0.3308  0.2229 -0.0575
44048W        W44912   3.819  17.065  20.961  0.2942  0.0646 -0.0009
44049W        W44913   8.380  22.524  18.730  0.2289  0.0721 -0.0221
44050W        W44914   7.084  20.878  20.029 -0.1391  0.0122 -0.1527
44051W        W44915   2.722  20.568  20.436  0.1999  0.1297 -0.1313
44052W        W44916   5.995  22.303  19.352  0.3844  0.0885  0.1850
44053W        W44917   4.377  19.689  22.188 -0.0450 -0.1814 -0.0028
44054W        W44918   2.863  19.296  19.231  0.1163  0.0966 -0.2452
44055W        W44919   5.608  20.609  20.024  0.0616  0.2447 -0.0638
44056W        W44920   4.626  22.864  21.593  0.0228  0.4391  0.0056
44057W        W44921   5.673  20.960  16.601 -0.1594  0.3342  0.0573
44058W        W44922   4.785  24.247  21.373 -0.4278  0.2499  0.2668
44059W        W44923   5.901  18.321  21.379 -0.0501 -0.2353  0.1024
44060W        W44924   5.198  16.954  15.808  0.3599 -0.0552  0.0314
44061W        W44925   3.119  21.926  19.697  0.1389  0.2245 -0.5220
44062W        W44926   5.889  23.027  20.194  0.0423  0.0566 -0.0979
44063W        W44927   7.229  21.566  20.517 -0.1393 -0.2268  0.0670
44064W        W44928   4.560  20.585  18.934  0.2118  0.2038  0.1423
44065W        W44929   7.542  24.499  19.720  0.2692 -0.1161  0.1034
44066W        W44930   8.609  16.259  25.588  0.1085 -0.1470  0.0007
44067W        W44931   5.280  19.328  22.143  0.0482  0.0917 -0.2453
44068W        W44932   5.220  20.876  17.739 -0.1428  0.0064 -0.2459
44069W        W44933   5.833  19.139  16.541 -0.2648 -0.2595 -0.2692
44070W        W44934   3.932  20.144  18.264  0.2673 -0.0768 -0.0284
44071W        W44935   7.655  23.167  19.401  0.1124  0.1342  0.0220
44072W        W44936   6.253  19.188  19.525 -0.0376 -0.0569  0.0206
44073W        W44937   3.062  19.360  17.555 -0.1341  0.0126  0.1165
44074W        W44938   3.957  20.862  21.348 -0.0985 -0.2162  0.2406
44075W        W44939   6.594  20.387  16.571 -0.1579  0.2437 -0.1405
44076W        W44940   5.817  21.326  23.156 -0.1820  0.1157 -0.2005
44077W        W44941   6.564  23.249  19.621 -0.1587 -0.0177  0.2349
44078W        W44942   5.817  22.096  18.446 -0.3647 -0.0793  0.0819
44079W        W44943   8.548  18.042  17.807  0.2658  0.1443  0.1686
44080W        W44944   6.143  21.404  18.025  0.3009  0.0528  0.0281
44081W        W44945   6.923  21.198  19.253 -0.2496 -0.1803 -0.2621
44082W        W44946   6.179  20.909  16.780 -0.0499  0.0773  0.1113
44083W        W44947   7.164  22.431  18.448  0.1557  0.0343 -0.2642
44084W        W44948   2.606  20.035  18.097  0.0184 -0.2561 -0.0563
44085W        W44949   6.239  20.322  17.986 -0.2053  0.1833  0.1280
44086W        W44950   7.483  21.190  17.881 -0.2199 -0.1526  0.1887
44087W        W44951   3.913  22.063  19.564 -0.0043 -0.1908  0.1270
44088W        W44952   7.127  21.220  22.587  0.0364  0.0461  0.2184
44089W        W44953   7.104  18.843  21.744 -0.0922 -0.2181  0.0446
44090W        W44954   4.676  23.574  19.593  0.0568  0.2477  0.2669
44091W        W44955   4.407  20.698  16.460  0.0450  0.1198  0.1821
44092W        W44956   4.328  18.612  20.975  0.2215 -0.0834 -0.0514
44093W        W44957   6.036  24.121  23.794  0.0288 -0.1481 -0.0160
44094W        W44958   8.239  21.692  20.118  0.1184  0.1481  0.0877
44095W        W44959   6.288  23.174  16.756  0.0787 -0.1202 -0.0186
44096W        W44960   7.684  24.170  18.397  0.0070 -0.0813 -0.3018
44097W        W44961   4.980  19.971  20.433  0.1356  0.0845 -0.1730
44098W        W44962   4.222  18.830  18.537  0.1157  0.0510  0.2584
44099W        W44963   4.665  20.365  20.430 -0.3751 -0.1764  0.1815
44100W        W44964  28.884  21.184  17.927  0.3335 -0.3067  0.2740
44101W        W44965   3.717  17.657  17.866  0.0360 -0.1453  0.2744
44102W        W44966   5.679  21.011  22.749  0.0518 -0.0200 -0.1549
44103W        W44967   6.997  19.790  19.432  0.0999  0.1047  0.0265
44104W        W44968   7.466  21.795  19.188  0.1055 -0.1254 -0.0350
44105W        W44969   4.407  20.566  23.191 -0.2368 -0.0458  0.0491
44106W        W44970   5.022  20.661  23.107  0.1757 -0.1973 -0.0068
44107W        W44971   7.005  17.944  19.082  0.0877 -0.0799 -0.0865
44108W        W44972   8.244  21.678  17.437 -0.6518 -0.2314  0.3251
44109W        W44973   7.001  20.260  23.559  0.2666 -0.2207  0.0092
44110W        W44974   3.768  20.946  19.408 -0.0100  0.1382  0.2252
44111W        W44975   5.996  20.823  21.057 -0.1064  0.0051  0.1518
44112W        W44976   5.643  24.239  17.315 -0.0461 -0.1279  0.1765
44113W        W44977   3.183  19.838  23.802 -0.1275 -0.0054 -0.4711
44114W        W44978   5.902  20.937  20.345  0.0516 -0.3430  0.1220
44115W        W44979   4.768  24.784  21.721 -0.0975 -0.0978  0.0444
44116W        W44980   7.588  18.071  19.626 -0.2103  0.3406  0.2065
44117W        W44981   6.209  19.768  19.835  0.0481 -0.0412 -0.2586
44118W        W44982   1.130  20.704  17.267  0.3189 -0.3537  0.1754
44119W        W44983   6.254  20.686  19.450 -0.0148 -0.2134  0.0261
44120W        W44984   4.264  19.700  18.887  0.1532 -0.1790 -0.2414
44121W        W44985   5.266  20.139  21.320 -0.1273  0.2789 -0.1914
44122W        W44986   4.133  20.377  16.701  0.1569  0.0753 -0.4101
44123W        W44987   6.553  20.519  21.815 -0.2582 -0.0597 -0.1116
44124W        W44988   8.212  23.179  23.099 -0.1073 -0.0104 -0.1068
44125W        W44989   5.706  19.470  21.899  0.2146  0.0961  0.0529
44126W        W44990   6.727  18.540  20.916  0.3440  0.0287 -0.2295
44127W        W44991   5.717  19.650  19.502  0.2063  0.0520 -0.2425
44128W        W44992   5.979  20.594  17.175  0.3369 -0.0496  0.0597
44129W        W44993   4.468  22.660  19.948 -0.3143  0.1084 -0.1975
44130W        W44994   6.357  18.659  18.307  0.0767 -0.4040  0.0310
44131W        W44995   4.468  22.244  17.220  0.0210 -0.0421 -0.1126
44132W        W44996   5.808  21.011  19.587  0.0339  0.2315  0.3138
44133W        W44997   4.866  16.925  20.676  0.2667 -0.0507 -0.0849
44134W        W44998   2.513  22.611  15.925  0.2399 -0.1722 -0.1362
44135W        W44999   4.594  21.995  22.543 -0.1562 -0.1968 -0.2036
44136W        W45000   5.146  21.010  21.489 -0.3868 -0.2510  0.3664
44137W        W45001   1.022  20.365  18.565 -0.0877 -0.2271  0.1724
44138W        W45002   2.079  20.585  19.725  0.1648  0.3200 -0.0039
44139W        W45003   6.187  22.734  22.147 -0.2518 -0.0712 -0.0897
44140W        W45004   4.340  21.765  17.851 -0.1020  0.0317 -0.1107
44141W        W45005   7.732  20.256  18.399  0.0687 -0.0321 -0.2607
44142W        W45006   7.859  19.247  19.074 -0.1774 -0.5453 -0.0804
44143W        W45007   7.188  22.076  20.724  0.2442 -0.0567  0.1061
44144W        W45008   6.620  19.706  21.272 -0.3288 -0.3535  0.1893
44145W        W45009   5.939  22.784  19.288  0.1187 -0.2704 -0.0689
44146W        W45010   5.794  18.668  18.334 -0.1962 -0.0390 -0.1177
44147W        W45011   3.335  21.217  23.349  0.2929 -0.0783 -0.0450
44148W        W45012   4.996  17.376  19.587 -0.1957  0.0369  0.0260
44149W        W45013   7.199  21.447  18.881 -0.0200 -0.1145  0.2920
44150W        W45014   4.228  21.474  17.057  0.3067 -0.1178 -0.0794
44151W        W45015   5.824  22.434  20.750 -0.1138  0.1201  0.3758
44152W        W45016   5.621  20.100  19.678  0.0622  0.2218  0.0767
44153W        W45017   1.949  20.032  21.560 -0.2922  0.2264 -0.1552
44154W        W45018   6.281  16.892  20.674  0.0253 -0.0769 -0.1045
44155W        W45019   6.997  20.707  19.519  0.0775 -0.2087 -0.1085
44156W        W45020   6.151  22.078  21.086 -0.2055 -0.3848 -0.0724
44157W        W45021   3.600  23.598  22.520  0.0616  0.1669 -0.0124
44158W        W45022   7.539  21.109  19.823  0.0175  0.0388  0.2705
44159W        W45023   6.981  19.359  17.813 -0.2699  0.0560  0.0546
44160W        W45024   8.041  20.428  19.245 -0.2874 -0.2764  0.1558
44161W        W45025   4.252  20.391  20.983  0.0587 -0.0403  0.2344
44162W        W45026   5.391  15.323  18.550 -0.1615 -0.2553  0.1120
44163W        W45027   6.788  21.920  20.255  0.2951 -0.1984 -0.0903
44164W        W45028   7.922  20.344  20.562  0.0459 -0.0160 -0.1346
44165W        W45029   5.889  22.482  18.044 -0.1332  0.2031 -0.1856
44166W        W45030   5.847  21.460  21.739  0.3597  0.0892  0.2006
44167W        W45031   3.744  20.240  20.258 -0.1464 -0.0243 -0.3369
44168W        W45032   6.096  19.817  22.146 -0.1203  0.0689 -0.0677
44169W        W45033   5.965  22.575  20.311  0.2203 -0.1726 -0.2578
44170W        W45034   4.177  21.523  20.550  0.3478  0.0280 -0.0063
44171W        W45035   6.553  19.023  21.801  0.0223 -0.1627 -0.0802
44172W        W45036   6.956  22.771  20.510 -0.1468  0.2161  0.0229
44173W        W45037   5.011  18.818  19.347 -0.0057 -0.0677 -0.1139
44174W        W45038   7.315  21.545  22.054 -0.1047 -0.1141 -0.2472
44175W        W45039   4.404  23.897  21.417  0.0275 -0.4907  0.1079
44176W        W45040   6.557  20.963  20.271 -0.0466 -0.0943  0.1648
44177W        W45041   6.255  23.533  18.381 -0.3091 -0.1411  0.1568
44178W        W45042   4.178  21.486  23.083 -0.0004 -0.0244 -0.0063
44179W        W45043   2.613  23.607  19.610 -0.1560  0.1809  0.1597
44180W        W45044   6.878  19.723  22.786  0.0397  0.1490  0.2044
44181W        W45045   7.108  20.748  22.604  0.0126  0.0520  0.0318
44182W        W45046   3.316  20.949  19.725 -0.2102  0.1283  0.1725
44183W        W45047   6.908  22.989  17.907 -0.1490  0.1005  0.1515
44184W        W45048   5.319  21.080  19.562 -0.1440 -0.2111 -0.0469
44185W        W45049   3.308  19.977  19.294 -0.3444 -0.0599  0.1507
44186W        W45050   5.133  18.327  21.059  0.1143 -0.1426 -0.0390
44187W        W45051   4.709  23.319  17.125 -0.3891  0.0734  0.0151
44188W        W45052   5.084  21.343  25.229  0.0827  0.1965 -0.0881
44189W        W45053   6.351  22.464  20.681 -0.0374  0.1194 -0.2043
44190W        W45054   5.939  20.500  18.366  0.2808  0.1139  0.1325
44191W        W45055   5.790  24.439  21.771  0.0549  0.1188  0.0534
44192W        W45056   5.731  20.775  23.387  0.0080  0.2055 -0.1450
44193W        W45057   8.371  22.396  22.486  0.0553  0.4741 -0.0536
44194W        W45058   8.041  22.559  26.289 -0.1234 -0.2904 -0.4044
44195W        W45059   4.717  22.384  23.358  0.1081 -0.0620  0.2637
44196W        W45060   7.058  20.160  25.299 -0.1634 -0.1756 -0.3258
44197W        W45061   3.302  17.986  21.631 -0.2768 -0.1047  0.2099
44198W        W45062   3.527  17.886  22.102 -0.0332 -0.2586  0.1276
44199W        W45063   6.362  21.441  24.473 -0.2012  0.2422  0.3636
44200W        W45064   4.184  19.964  26.332 -0.0099 -0.2071  0.2077
44201W        W45065   6.094  19.463  23.074  0.2191  0.0106 -0.0269
44202W        W45066   5.041  20.027  25.050 -0.1362  0.0829 -0.0718
44203W        W45067   5.077  20.120  18.622  0.0126  0.0611 -0.1310
44204W        W45068   6.789  20.353  22.502  0.0307  0.1232  0.0853
44205W        W45069   3.757  18.833  24.140 -0.2319 -0.0990  0.0734
44206W        W45070   4.563  20.922  25.417 -0.0338  0.0010 -0.4314
44207W        W45071   2.750  19.875  21.763 -0.2852  0.0501 -0.0599
44208W        W45072   2.928  19.919  25.849 -0.0511  0.1101  0.2410
44209W        W45073   4.119  18.212  28.066  0.0231 -0.1592 -0.2348
44210W        W45074   7.951  18.971  25.233 -0.1851  0.0935  0.0773
44211W        W45075   6.237  20.431  25.604  0.1247 -0.0917 -0.1111
44212W        W45076   5.142  20.850  24.849 -0.0233  0.1022 -0.0416
44213W        W45077   4.910  20.215  25.546  0.1239 -0.3386 -0.0675
44214W        W45078   6.781  20.155  25.768 -0.0662  0.2901  0.2600
44215W        W45079   3.219  21.674  22.758  0.1799  0.0062 -0.0108
44216W        W45080   3.512  18.418  24.710 -0.0199 -0.2150  0.2203
44217W        W45081   6.537  21.718  25.070 -0.1354  0.1358  0.0142
44218W        W45082   3.903  20.806  24.519  0.0280  0.0068  0.2859
44219W        W45083   4.507  20.061  24.957  0.0784 -0.0696 -0.1716
44220W        W45084   4.537  18.082  25.646  0.1775 -0.0495  0.0580
44221W        W45085   2.878  19.322  25.381 -0.0045  0.3094  0.0711
44222W        W45086   7.067  21.325  26.333  0.0047 -0.3277  0.2044
44223W        W45087   5.310  18.919  25.944  0.3229 -0.1979 -0.0541
44224W        W45088   6.732  21.053  20.752 -0.3478  0.2736 -0.2313
44225W        W45089   3.872  20.652  27.431 -0.1449 -0.1384 -0.3421
44226W        W45090   5.060  21.957  26.206  0.1097 -0.0404  0.1420
44227W        W45091   3.854  17.886  22.509 -0.3981  0.0354 -0.3379
44228W        W45092   4.372  17.666  24.505 -0.1754  0.1912 -0.2454
44229W        W45093   6.913  22.204  22.594  0.0495  0.1519 -0.3438
44230W        W45094   7.091  18.435  22.380 -0.1524  0.4241 -0.0089
44231W        W45095   7.070  23.030  23.755 -0.0283 -0.1227  0.2235
44232W        W45096   3.693  19.135  23.211 -0.0598  0.5909  0.1294
44233W        W45097   5.049  23.417  24.975 -0.0326  0.1025 -0.0597
44234W        W45098   8.799  23.799  21.579 -0.1135 -0.5365 -0.1778
44235W        W45099   3.622  22.894  21.939  0.3288 -0.0172  0.0346
44236W        W45100   4.750  22.434  23.877  0.1450  0.0766 -0.0191
44237W        W45101   3.178  19.101  23.344  0.1980  0.0347  0.1985
44238W        W45102   6.673  20.101  26.253  0.2195 -0.4041  0.0684
44239W        W45103   4.900  18.433  23.124  0.4248 -0.1842 -0.0706
44240W        W45104   8.586  21.467  22.256  0.1056 -0.0629 -0.0708
44241W        W45105   6.254  20.480  26.256  0.2569 -0.1235 -0.2660
44242W        W45106   5.016  18.628  26.286 -0.3546  0.0602 -0.1680
44243W        W45107   7.971  20.647  24.938  0.0417 -0.0100  0.0648
44244W        W45108   8.039  23.245  24.556 -0.0268  0.2308  0.2949
44245W        W45109   6.759  19.907  23.292 -0.2487  0.1317 -0.0808
44246W        W45110   4.490  19.794  19.882 -0.2912  0.1050  0.1935
44247W        W45111   3.234  20.194  22.623 -0.0287 -0.2897 -0.0921
44248W        W45112   5.792  20.177  24.732 -0.2272  0.0679  0.2684
44249W        W45113   3.074  20.036  23.288 -0.1196  0.0374 -0.0178
44250W        W45114   5.339  21.056  23.209  0.0644  0.1428  0.1246
44251W        W45115   6.621  19.814  21.814 -0.1601 -0.0116  0.1268
44252W        W45116   0.726  23.725  24.264 -0.0351 -0.0633 -0.3149
44253W        W45117   5.081  24.668  25.320  0.0419  0.0162  0.1552
44254W        W45118   5.013  20.825  25.332 -0.0286 -0.2812  0.1384
44255W        W45119   5.278  17.660  23.393 -0.0552  0.4497  0.0378
44256W        W45120   7.990  21.151  24.740 -0.1391  0.0812 -0.0905
44257W        W45121   5.140  18.457  22.694 -0.0325 -0.1284 -0.1605
44258W        W45122   4.578  19.898  23.622  0.1493 -0.3731  0.4890
44259W        W45123   2.588  20.611  22.317 -0.1148  0.2456  0.2851
44260W        W45124   4.079  18.640  24.467 -0.2066  0.2726 -0.1505
44261W        W45125   7.585  20.301  24.479  0.2060 -0.0605 -0.1430
44262W        W45126   5.120  18.732  20.312  0.0657  0.1026  0.1280
44263W        W45127   7.983  21.633  24.892 -0.0372  0.1498  0.3288
44264W        W45128   6.143  19.119  26.320 -0.0754  0.3250  0.1871
44265W        W45129   6.681  20.949  22.530  0.4734  0.0847  0.1190
44266W        W45130   2.312  18.760  22.260 -0.0942 -0.1751 -0.2883
44267W        W45131   3.939  19.670  23.086 -0.1458 -0.0392  0.0971
44268W        W45132   6.260  23.533  24.924  0.0702 -0.0689  0.2856
44269W        W45133   3.663  20.245  22.471 -0.0177 -0.1789  0.2916
44270W        W45134   7.313  19.904  22.935  0.0909  0.0761 -0.1182
44271W        W45135   4.353  19.045  24.124  0.0588  0.2171  0.1241
44272W        W45136   4.972  17.324  23.963 -0.1628  0.3906  0.2007
44273W        W45137   3.674  21.380  23.049 -0.2162 -0.1781  0.1804
44274W        W45138   3.261  23.239  25.686  0.0820 -0.0635 -0.0284
44275W        W45139   6.379  21.011  21.944  0.3041 -0.0601 -0.0268
44276W        W45140   7.100  22.002  23.887  0.0720 -0.1451  0.1661
44277W        W45141   7.898  17.207  24.868  0.0244  0.0241 -0.1390
44278W        W45142   4.922  18.238  25.858 -0.1721  0.0144  0.2960
44279W        W45143   5.355  21.648  25.600 -0.0419  0.1937  0.0303
44280W        W45144   7.358  16.930  24.257  0.4712  0.1069  0.1878
44281W        W45145   4.864  19.810  25.823 -0.1094 -0.0313 -0.0924
44282W        W45146   6.149  23.899  22.423 -0.2712  0.0625  0.1126
44283W        W45147   2.996  20.694  18.817  0.0855  0.1267 -0.1317
44284W        W45148   5.015  18.602  24.527  0.2151 -0.3602 -0.2013
44285W        W45149   3.974  17.155  23.390 -0.0874  0.1171  0.0116
44286W        W45150   2.251  18.345  23.605 -0.1422 -0.1979  0.2895
44287W        W45151   3.660  23.555  25.970 -0.1971  0.1635 -0.1444
44288W        W45152   5.266  19.598  21.203 -0.0976 -0.5439 -0.1132
44289W        W45153   5.066  18.559  25.498 -0.0559 -0.1382  0.1978
44290W        W45154   8.952  22.682  23.418 -0.0761  0.1023  0.0373
44291W        W45155   3.643  19.495  24.611 -0.0807  0.2547  0.4734
44292W        W45156   6.185  20.890  18.092  0.1218 -0.1842  0.3777
44293W        W45157   7.153  22.838  25.414 -0.0746 -0.0404  0.1106
44294W        W45158   8.084  19.974  23.824 -0.2096 -0.1342 -0.0306
44295W        W45159   3.985  20.336  24.439  0.1895  0.0527  0.2602
44296W        W45160   3.665  17.572  23.417  0.0987 -0.0583  0.0439
44297W        W45161   4.062  19.831  24.756 -0.0781 -0.1411 -0.2011
44298W        W45162   5.843  20.105  23.229  0.1646 -0.3293  0.0984
44299W        W45163   5.689  18.033  25.713 -0.0432  0.1179 -0.0097
44300W        W45164   2.998  19.389  23.730  0.0261 -0.0014 -0.3467
44301W        W45165   5.689  20.045  22.669  0.0361  0.1007  0.1101
44302W        W45166   5.719  17.622  23.979  0.1821  0.0888  0.0818
44303W        W45167   7.429  20.303  23.244 -0.0884  0.1916  0.2990
44304W        W45168   4.349  20.759  22.376  0.0359  0.0230 -0.0847
44305W        W45169   6.892  19.379  21.883  0.2824 -0.0597  0.0202
44306W        W45170   4.507  19.027  23.631 -0.2072 -0.3872  0.0518
44307W        W45171   5.309  20.040  25.752 -0.2290  0.0905 -0.0967
44308W        W45172   4.040  20.412  23.511  0.2944  0.1662  0.1402
44309W        W45173   8.536  21.121  23.496  0.1478  0.1640 -0.1324
44310W        W45174   4.285  21.129  21.044 -0.0170  0.1106  0.3500
44311W        W45175   7.481  21.287  24.796  0.1089  0.2165 -0.4050
44312W        W45176   4.638  21.439  25.104 -0.0119  0.2043  0.0484
44313W        W45177   7.316  20.407  23.884  0.2525 -0.1205  0.1267
44314W        W45178   6.124  17.141  24.270 -0.2562  0.0628  0.3197
44315W        W45179   5.397  19.580  24.058  0.1157 -0.1001 -0.2811
44316W        W45180   4.651  16.647  24.597  0.1488  0.0509 -0.0070
44317W        W45181   5.769  21.394  25.429 -0.3307 -0.0447 -0.2345
44318W        W45182   8.649  23.530  24.083  0.1739 -0.0323 -0.0290
44319W        W45183   7.326  20.075  24.790 -0.1196 -0.0419 -0.1625
44320W        W45184   6.463  22.165  23.980  0.0473  0.0034  0.1553
44321W        W45185   5.627  17.226  23.243  0.0960  0.0741 -0.0472
44322W        W45186   7.087  22.801  25.962  0.1012 -0.0812  0.0208
44323W        W45187   8.617  22.325  23.299  0.1723 -0.0140 -0.1537
44324W        W45188   3.838  20.977  22.169 -0.0341  0.0846  0.0336
44325W        W45189   5.832  20.873  24.076  0.1349  0.0696  0.0865
44326W        W45190   4.029  16.272  24.640 -0.1252 -0.0728 -0.2136
44327W        W45191   5.334  16.624  26.587  0.1230 -0.2145 -0.2986
44328W        W45192   7.556  19.866  26.888  0.0899 -0.1801  0.1556
44329W        W45193   3.617  20.010  24.570 -0.0962 -0.3703 -0.0856
44330W        W45194   2.168  18.542  21.275 -0.1810 -0.2098 -0.0660
44331W        W45195   5.979  18.028  23.807  0.1965  0.0354  0.4248
44332W        W45196   3.403  21.017  23.802 -0.2989 -0.0425 -0.0128
44333W        W45197   4.966  19.138  23.393  0.0000  0.1459  0.2698
44334W        W45198   5.870  20.756  25.524 -0.2847  0.1127 -0.2625
44335W        W45199   6.566  19.243  21.381 -0.1360  0.0854 -0.0398
44336W        W45200   8.278  19.611  26.629 -0.1602 -0.3257  0.0760
44337W        W45201   6.120  23.801  23.209  0.1315  0.0354  0.0507
44338W        W45202   5.431  20.388  21.852  0.1043 -0.0640 -0.1658
44339W        W45203   7.286  19.438  22.552  0.0774 -0.1574 -0.1023
44340W        W45204   7.647  21.154  23.321 -0.0333 -0.0610  0.1068
44341W        W45205   2.554  20.552  20.899  0.1383 -0.0265  0.3402
44342W        W45206   7.494  19.938  23.775 -0.6092 -0.2260 -0.0431
44343W        W45207   4.555  20.402  23.609  0.2616 -0.1183  0.1843
44344W        W45208   3.300  19.421  22.897  0.1225  0.4630  0.0503
44345W        W45209   5.780  17.670  23.446  0.3036  0.2403  0.0866
44346W        W45210   1.891  21.553  25.020 -0.1205 -0.0258  0.0583
44347W        W45211   4.559  20.332  21.964 -0.1638 -0.1990 -0.2031
44348W        W45212   5.916  18.353  22.381 -0.0184 -0.2077  0.1922
44349W        W45213   5.219  19.521  24.793  0.0620  0.0945  0.1260
44350W        W45214   6.625  21.259  23.571  0.1075  0.1357 -0.1278
44351W        W45215   4.532  22.977  26.050 -0.1166  0.2325  0.0200
44352W        W45216   5.418  21.179  24.269  0.0933 -0.1613  0.2681
44353W        W45217   6.341  20.054  24.836  0.1745 -0.1547 -0.2085
44354W        W45218   3.325  18.113  22.536  0.2342  0.0802 -0.1030
44355W        W45219   5.174  19.884  23.094 -0.0549 -0.0435 -0.1905
44356W        W45220   1.991  19.464  21.472  0.0237  0.0559  0.2505
44357W        W45221   5.216  20.791  22.023 -0.3661 -0.1835 -0.1630
44358W        W45222   9.408  19.749  24.316  0.2455  0.2503 -0.2917
44359W        W45223   4.067  18.894  23.663 -0.1024  0.1536 -0.0934
44360W        W45224   6.691  19.364  23.178 -0.1963  0.0300  0.1417
44361W        W45225   4.451  19.568  23.283 -0.2362 -0.0576  0.0429
44362W        W45226   5.274  20.071  24.102 -0.3431  0.0626  0.1218
44363W        W45227   5.610  20.643  24.673 -0.0505 -0.3134 -0.0002
44364W        W45228   5.574  18.046  22.761 -0.2872 -0.1112  0.1685
44365W        W45229   6.322  17.660  23.527  0.0322  0.0432  0.0008
44366W        W45230   2.772  22.500  25.582 -0.0969 -0.0691 -0.0908
44367W        W45231   3.775  19.361  22.733  0.1694 -0.1127  0.0920
44368W        W45232   1.580  21.265  20.892 -0.1465  0.2393 -0.3273
44369W        W45233   2.988  20.520  25.043 -0.1742 -0.0931 -0.0443
44370W        W45234   4.359  19.526  23.934 -0.1410  0.1892  0.0191
44371W        W45235   6.170  20.414  24.065 -0.5962  0.0251  0.1058
44372W        W45236   7.569  20.982  21.125  0.0410 -0.1056 -0.1559
44373W        W45237   5.902  19.309  19.893  0.2236  0.1134 -0.0225
44374W        W45238   4.656  20.751  22.775 -0.0372 -0.0627 -0.0342
44375W        W45239   8.575  21.997  24.591 -0.1106 -0.3022 -0.2966
44376W        W45240   8.463  18.543  21.152  0.0802 -0.1768 -0.2260
44377W        W45241   5.589  21.773  23.419 -0.0666  0.1781 -0.1275
44378W        W45242   6.208  21.870  24.697 -0.0678  0.2754  0.0841
44379W        W45243   7.289  21.387  23.053 -0.0365  0.1447 -0.0651
44380W        W45244   7.450  21.618  22.611  0.1575 -0.1796 -0.0419
44381W        W45245   5.287  21.113  20.887 -0.1632  0.0063  0.0630
44382W        W45246   6.860  21.545  25.462  0.3518 -0.3412 -0.2674
44383W        W45247   4.605  20.119  26.128  0.2590 -0.1672  0.1018
44384W        W45248   7.521  19.016  24.933 -0.0236 -0.1160 -0.0218
44385W        W45249   4.352  17.468  23.258 -0.0721  0.2865 -0.0840
44386W        W45250   6.432  16.544  22.737  0.0206 -0.2401 -0.0715
44387W        W45251   4.522  18.101  23.271  0.0575 -0.0633  0.1825
44388W        W45252   3.310  19.450  25.013 -0.0626 -0.0548 -0.0876
44389W        W45253   3.880  20.297  21.231  0.0036  0.0249 -0.1728
44390W        W45254   4.173  20.987  23.117  0.0687 -0.2391  0.1775
44391W        W45255   7.257  18.650  24.623 -0.2103  0.0425  0.0818
44392W        W45256   7.864  19.566  24.075  0.3669  0.0630  0.1972
44393W        W45257   4.148  18.217  22.872  0.0546 -0.1227 -0.2239
44394W        W45258   4.618  18.485  25.319  0.0263 -0.1150  0.1630
44395W        W45259   3.471  19.984  21.054 -0.2812  0.1373  0.0821
44396W        W45260   4.452  23.684  26.723 -0.3686  0.0572 -0.0137
44397W        W45261   7.234  19.803  23.387 -0.3622 -0.1402  0.2137
44398W        W45262   4.486  21.604  21.225  0.0480  0.2239  0.1979
44399W        W45263   5.074  22.997  22.868  0.3203 -0.2373  0.0883
44400W        W45264   4.456  21.532  25.592 -0.4430  0.0192 -0.4634
44401W        W45265   5.643  22.383  23.458 -0.2379 -0.0229  0.1622
44402W        W45266   3.015  19.886  24.963 -0.0105 -0.0079  0.1592
44403W        W45267   6.769  17.400  26.695  0.0456 -0.0268 -0.0581
44404W        W45268   6.261  19.777  27.510  0.3101  0.2049  0.0276
44405W        W45269   6.827  21.218  21.197 -0.0531  0.2524 -0.0402
44406W        W45270   5.478  24.297  25.131 -0.0869 -0.0971 -0.1859
44407W        W45271   6.041  22.147  22.098 -0.0087 -0.1851  0.4055
44408W        W45272   5.669  20.337  24.281 -0.0289  0.4504 -0.1637
44409W        W45273   4.922  21.818  25.546  0.0531  0.2682 -0.2180
44410W        W45274   8.388  17.971  26.887  0.5174 -0.0115  0.0651
44411W        W45275   6.495  20.659  22.907 -0.1958 -0.0527  0.0800
44412W        W45276   2.430  18.354  25.026 -0.1411  0.0754 -0.0224
44413W        W45277   5.484  19.973  22.161 -0.0080  0.1009 -0.2340
44414W        W45278   2.671  25.490  21.374 -0.3743 -0.0615  0.0416
44415W        W45279   2.756  19.781  23.553 -0.0725  0.0147 -0.0580
44416W        W45280   3.455  20.695  24.148  0.1192  0.3328  0.2694
44417W        W45281   7.449  20.788  24.638  0.0679 -0.0496  0.2361
44418W        W45282   5.539  24.466  23.899 -0.2581 -0.3003  0.0376
44419W        W45283   5.162  21.310  24.670  0.1804 -0.0181  0.5518
44420W        W45284   4.467  17.369  24.116  0.0401  0.0356  0.1122
44421W        W45285   4.989  20.755  27.215  0.2385  0.1745 -0.2866
44422W        W45286   4.708  18.790  22.730 -0.1682  0.0997  0.2997
44423W        W45287   6.854  19.525  22.361  0.1339  0.1476  0.1546
44424W        W45288   3.484  22.925  25.320  0.0342 -0.1202 -0.3392
44425W        W45289   9.529  23.108  24.248 -0.2649  0.0089  0.1916
44426W        W45290   7.319  18.897  23.936 -0.0740  0.1609  0.2678
44427W        W45291   4.083  17.464  22.463  0.0289 -0.0801 -0.3759
44428W        W45292   3.492  21.119  24.394 -0.0050 -0.1908 -0.0194
44429W        W45293   6.188  20.988  25.082  0.0174 -0.0569  0.0228
44430W        W45294   4.934  19.641  23.435 -0.3145  0.1424 -0.1868
44431W        W45295   4.959  22.012  24.113 -0.2486 -0.0974 -0.2616
44432W        W45296   4.013  20.280  26.692 -0.0733  0.2290  0.3239
44433W        W45297   5.412  18.463  23.193  0.0242 -0.1109 -0.1768
44434W        W45298   4.814  19.328  23.927 -0.0413 -0.1735  0.1695
44435W        W45299   4.797  19.405  21.334  0.1102 -0.1769 -0.0663
44436W        W45300   6.236  21.049  27.779 -0.0618  0.2422 -0.0742
44437W        W45301   3.926  21.417  24.422  0.0630 -0.0535  0.0685
44438W        W45302   6.822  22.164  24.277  0.0055  0.0704  0.1862
44439W        W45303   5.515  18.928  21.725  0.1070  0.2183 -0.1355
44440W        W45304   4.400  19.513  24.470 -0.2675  0.1778 -0.3120
44441W        W45305   3.621  22.097  25.138 -0.2723 -0.1090 -0.1817
44442W        W45306   5.249  21.808  24.522 -0.0969  0.4175  0.1210
44443W        W45307   2.459  18.896  25.534  0.0261 -0.0872  0.2435
44444W        W45308   6.088  23.046  21.251 -0.0655 -0.0404  0.2248
44445W        W45309   5.333  20.639  25.646  0.3267 -0.0914 -0.3083
44446W        W45310   5.244  18.227  18.639 -0.3235 -0.2176 -0.2005
44447W        W45311   5.716  19.260  23.799  0.1142  0.1788  0.1341
44448W        W45312   8.464  21.969  24.074  0.0473  0.1601  0.1350
44449W        W45313   6.217  20.245  22.671  0.0917  0.0593  0.0821
44450W        W45314   3.191  16.070  22.000 -0.1251 -0.2548 -0.2582
44451W        W45315   5.106  18.231  28.328 -0.1813 -0.0853  0.0543
44452W        W45316   9.084  20.671  26.793 -0.1721  0.1519  0.1613
44453W        W45317   7.163  19.504  24.820  0.0631 -0.1958  0.1924
44454W        W45318   7.211  22.614  24.841 -0.1547  0.0335  0.0025
44455W        W45319   3.549  20.467  26.001  0.0343  0.2598 -0.1137
44456W        W45320   5.078  21.632  23.815 -0.0555  0.0356  0.0630
44457W        W45321   6.699  21.641  24.172 -0.1281 -0.0057  0.2261
44458W        W45322   1.663  22.131  25.109  0.3604  0.1555  0.3176
44459W        W45323   6.131  19.519  21.164  0.0830  0.0628 -0.1200
44460W        W45324   4.353  21.272  24.172 -0.0309  0.0733 -0.1449
44461W        W45325   4.664  20.479  25.204  0.1424  0.2433 -0.2334
44462W        W45326   4.791  17.755  24.228 -0.2010  0.2149 -0.1064
44463W        W45327   4.146  23.232  25.864  0.1310 -0.0559  0.2688
44464W        W45328   7.116  23.247  26.191  0.2231 -0.0136 -0.0400
44465W        W45329   7.106  16.653  26.216  0.4276  0.1195  0.1190
44466W        W45330   5.009  20.154  21.862  0.1733 -0.1290  0.2098
44467W        W45331   4.655  19.153  23.029  0.4487  0.2338  0.0813
44468W        W45332   3.022  19.539  22.135  0.1940  0.1013 -0.1407
44469W        W45333   2.032  19.297  22.898 -0.1182 -0.0196  0.0599
44470W        W45334   4.334  22.408  26.184 -0.2262  0.1656  0.4428
44471W        W45335   4.728  19.781  20.978  0.1617  0.0425 -0.0516
44472W        W45336   4.272  19.494  21.364 -0.4090 -0.1079 -0.0635
44473W        W45337   4.800  21.171  23.883  0.0986  0.0472  0.1595
44474W        W45338   6.480  20.063  23.899 -0.0258 -0.0297 -0.0763
44475W        W45339   3.853  19.269   0.104  0.0900  0.1174  0.1019
44476W        W45340   7.988  20.279  23.461 -0.0459 -0.0677 -0.0624
44477W        W45341   4.461  20.940  23.614 -0.0249  0.4626  0.2245
44478W        W45342   6.201  19.537  21.674  0.1010  0.2241 -0.0004
44479W        W45343   6.144  18.514  25.497  0.2629  0.2427 -0.2605
44480W        W45344   7.771  18.441  24.534 -0.1964  0.1108  0.0108
44481W        W45345   4.147  18.187  24.750 -0.2820 -0.0253  0.1832
44482W        W45346   4.171  18.295  25.374 -0.0344  0.3088 -0.0489
44483W        W45347   2.858  19.446  23.141 -0.1328  0.1591  0.3000
44484W        W45348   3.229  19.021  22.025  0.0829  0.2659 -0.0920
44485W        W45349   6.296  19.204  24.332  0.3812 -0.0920 -0.1712
44486W        W45350   7.529  22.312  23.891 -0.5202 -0.4015 -0.0082
44487W        W45351   7.169  18.323  25.277  0.1760  0.0071 -0.1478
44488W        W45352   5.267  20.678  23.592  0.0475 -0.1664 -0.1929
44489W        W45353   5.582  20.749  20.735 -0.1290  0.1126  0.0173
44490W        W45354   3.717  18.435  25.431 -0.1658 -0.0216 -0.2855
44491W        W45355   5.625  25.773  27.045 -0.3037  0.0051 -0.0638
44492W        W45356   8.195  18.155  25.816  0.1614 -0.1385  0.0993
44493W        W45357   4.809  21.065  22.391  0.1424  0.0093  0.0222
44494W        W45358   3.545  23.377  22.955  0.0793  0.0231 -0.0716
44495W        W45359   7.965  20.317  27.670 -0.2412 -0.0594 -0.1837
44496W        W45360   3.738  16.932  24.299  0.3317 -0.1336  0.0898
44497W        W45361   5.272  21.148  23.756 -0.1802  0.0685  0.0357
44498W        W45362   1.789  20.281  23.935  0.0136 -0.1672  0.0922
44499W        W45363   4.090  16.699  22.675  0.0565 -0.2007  0.0480
44500W        W45364   3.028  17.190  25.438 -0.2376  0.2036 -0.0214
44501W        W45365   5.758  19.887  23.948 -0.2206 -0.2876 -0.1613
44502W        W45366   5.916  22.727  24.290 -0.2577 -0.1262  0.0544
44503W        W45367   5.454  19.278  22.608  0.0800  0.1587 -0.3315
44504W        W45368   7.410  22.146  26.996  0.0437  0.1538  0.0799
44505W        W45369   5.236  16.903  23.874  0.0438 -0.2795 -0.0466
44506W        W45370   7.075  21.473  21.546  0.2274  0.1061 -0.0351
44507W        W45371   7.461  22.067  24.352  0.0877 -0.2008  0.2714
44508W        W45372   6.425  20.955  25.564  0.2153 -0.0627  0.1617
44509W        W45373   3.771  20.280  23.962 -0.0269 -0.1476 -0.0789
44510W        W45374   7.668  18.817  22.884 -0.0344  0.3797 -0.0930
44511W        W45375   2.306  19.220  25.154 -0.1356  0.5147 -0.1775
44512W        W45376   4.838  18.976  26.784 -0.1827  0.2737  0.0905
44513W        W45377   5.802  19.945  20.633  0.1250 -0.0549  0.1862
44514W        W45378   4.143  21.524  25.145 -0.0044  0.1598  0.1075
44515W        W45379   4.774  20.186  23.165  0.1882 -0.2649 -0.0683
44516W        W45380   5.410  20.267  23.343  0.1802  0.2830 -0.1054
44517W        W45381   5.898  20.230  22.267  0.4235 -0.1786 -0.2519
44518W        W45382   3.753  18.988  24.632 -0.0165 -0.0822  0.0218
44519W        W45383   6.361  18.772  25.117 -0.0699 -0.0894  0.0918
44520W        W45384   6.405  20.563  20.855 -0.3532 -0.4171 -0.0672
44521W        W45385   7.255  20.554  24.988  0.1870 -0.3030  0.0973
44522W        W45386   3.096  20.756  22.650  0.1135 -0.0635 -0.1687
44523W        W45387   5.829  18.884  25.033  0.2440 -0.1591  0.1120
44524W        W45388   7.971  23.657  28.238  0.1921  0.0315  0.0538
44525W        W45389   4.930  24.759  23.451 -0.4273 -0.0508 -0.0502
44526W        W45390   8.894  18.917  22.644  0.0715  0.0363  0.2208
44527W        W45391   3.120  18.383  23.035  0.1972  0.0065 -0.1403
44528W        W45392   8.482  17.776  24.097  0.1110 -0.2462  0.0473
44529W        W45393   4.407  20.296  22.658 -0.1605 -0.2168 -0.1260
44530W        W45394   3.564  18.911  25.119 -0.0477 -0.0158 -0.1118
44531W        W45395   5.461  16.194  21.845 -0.0504  0.0725 -0.1354
44532W        W45396   1.494  20.802  21.612 -0.0871  0.0275  0.1718
44533W        W45397   7.885  21.176  24.186  0.2224 -0.2992  0.1902
44534W        W45398   2.804  22.030  24.916 -0.2258  0.2529  0.0107
44535W        W45399   4.087  20.660  22.773 -0.0050 -0.0912  0.0562
44536W        W45400   3.079  16.211  23.161  0.0507 -0.2643  0.1168
44537W        W45401   7.180  21.676  24.370 -0.0565 -0.3946 -0.4941
44538W        W45402   4.562  18.738  21.985  0.0544  0.0931  0.1032
44539W        W45403   6.800  19.598  25.828 -0.0532 -0.1229  0.2933
44540W        W45404   6.816  18.243  22.724  0.0241  0.0981 -0.0927
44541W        W45405   5.928  21.360  24.276  0.1207 -0.0832 -0.0110
44542W        W45406   5.524  19.781  24.507  0.1101  0.1181  0.1462
44543W        W45407   6.766  22.777  24.596 -0.0874  0.3014 -0.0859
44544W        W45408   5.673  17.846  22.261 -0.1841  0.1953  0.0165
44545W        W45409   2.418  23.588  26.699  0.4289  0.0542  0.0759
44546W        W45410   6.064  20.219  23.659  0.0567  0.2733 -0.1542
44547W        W45411   3.240  18.921  24.537 -0.1272 -0.1289  0.0344
44548W        W45412   5.828  17.977  21.756  0.0529  0.1238  0.2618
44549W        W45413   5.971  19.047  21.946  0.1152  0.1283  0.0015
44550W        W45414   7.719  19.564  22.934 -0.2299 -0.0898  0.2293
44551W        W45415   4.049  20.097  25.192 -0.0185 -0.1797 -0.2886
44552W        W45416   6.296  19.895  23.405  0.0108 -0.0971  0.1549
44553W        W45417   3.963  22.128  24.341 -0.0007 -0.0413  0.3341
44554W        W45418   6.368  22.515  23.508 -0.1272 -0.1275 -0.1509
44555W        W45419   6.139  20.447  24.523  0.2119  0.1683  0.1425
44556W        W45420   3.155  18.655  23.565 -0.0747  0.4623  0.0494
44557W        W45421   3.483  19.380  21.743  0.2436  0.0020 -0.0647
44558W        W45422   6.519  20.758  21.373  0.4281 -0.0783 -0.0423
44559W        W45423   6.792  20.352  24.848  0.1876 -0.0968  0.2925
44560W        W45424   3.630  20.726  22.546  0.0762 -0.1009 -0.2422
44561W        W45425   8.575  21.531  27.536 -0.0932  0.1051  0.1739
44562W        W45426   6.787  18.799  23.119 -0.2038  0.0375  0.2443
44563W        W45427   5.627  19.041  25.500 -0.3147  0.1351 -0.0414
44564W        W45428   1.783  19.405  24.524  0.2381 -0.2119 -0.1497
44565W        W45429   5.330  20.498  25.096 -0.0042 -0.0178 -0.1011
44566W        W45430   7.003  16.520  24.901  0.3198  0.1118  0.1467
44567W        W45431   3.595  19.025  23.694  0.0799 -0.0026  0.2843
44568W        W45432   5.526  16.463  24.416  0.0101  0.0428 -0.3901
44569W        W45433   1.636  20.285  20.682  0.1008 -0.4398  0.2707
44570W        W45434   2.362  18.944  21.468 -0.0414  0.0231  0.0342
44571W        W45435   5.115  21.839  25.075 -0.0199 -0.0782 -0.0830
44572W        W45436   6.940  20.451  23.040  0.2611  0.3248  0.1125
44573W        W45437   6.496  19.383  22.705 -0.1951 -0.1276  0.1592
44574W        W45438   4.275  22.917  26.491 -0.1038 -0.0450  0.1230
44575W        W45439   7.999  22.811  23.786  0.0269  0.4529 -0.1960
44576W        W45440   6.457  22.763  22.970  0.0661  0.0145 -0.1099
44577W        W45441   6.998  20.691  24.448  0.0204  0.2134 -0.0245
44578W        W45442   7.793  21.486  25.723  0.1043 -0.2078  0.0192
44579W        W45443   5.986  22.542  26.791  0.2641 -0.0156  0.0869
44580W        W45444   9.861  22.213  23.848 -0.0630 -0.3121  0.1827
44581W        W45445   7.106  22.122  24.645  0.0421  0.1157  0.1758
44582W        W45446   3.388  21.867  25.532 -0.0784 -0.1096  0.0468
44583W        W45447   5.187  21.227  26.628  0.3680 -0.0351 -0.0372
44584W        W45448   5.245  20.668  24.329 -0.4125 -0.1643 -0.3515
44585W        W45449   5.887  20.618  22.598  0.0754  0.1879 -0.3002
44586W        W45450   4.535  22.901  24.425 -0.0657 -0.1490 -0.0939
44587W        W45451   5.878  20.615  17.814 -0.0010  0.1885 -0.0580
44588W        W45452   3.437  22.424  28.346 -0.2193 -0.1927 -0.0995
44589W        W45453   5.524  19.860   0.181 -0.1020  0.1878  0.0689
44590W        W45454   7.323  21.398  28.593 -0.2395  0.0616 -0.0345
44591W        W45455   5.259  23.567  28.943  0.2073 -0.0519 -0.1264
44592W        W45456   3.790  21.688  25.445 -0.2276 -0.0997  0.1064
44593W        W45457   4.302  20.990  26.454 -0.0312  0.2364 -0.1796
44594W        W45458   4.012  20.836  26.779 -0.0813  0.1041 -0.2862
44595W        W45459   4.932  20.729  26.734  0.2055 -0.1171 -0.0896
44596W        W45460   8.161  20.984   1.139  0.0155 -0.1930  0.1147
44597W        W45461   3.511  18.735  28.647  0.1455 -0.0150  0.2749
44598W        W45462   3.609  17.630  27.985  0.1884  0.1218 -0.1005
44599W        W45463   6.430  18.186  27.354  0.0206 -0.0596  0.0960
44600W        W45464   4.850  19.810  23.997  0.1280 -0.1305 -0.0897
44601W        W45465   7.411  18.173   1.992 -0.0481 -0.2346  0.1662
44602W        W45466   3.813  16.972  27.697  0.2413  0.0785  0.0330
44603W        W45467   5.446  21.794   1.704 -0.2119 -0.2389 -0.1737
44604W        W45468   6.384  21.760  26.585 -0.0233  0.2036  0.0091
44605W        W45469   3.992  16.696  28.343  0.1316  0.0831  0.3180
44606W        W45470   4.474  20.601  29.101  0.1184 -0.3266  0.0133
44607W        W45471   7.469  23.564  28.057 -0.0388 -0.0134  0.2998
44608W        W45472   6.444  22.326  28.103  0.1889  0.1760  0.0802
44609W        W45473   5.783  18.080  28.149  0.1859 -0.2021 -0.2039
44610W        W45474   4.630  20.522  28.020 -0.1145 -0.2165 -0.0619
44611W        W45475   3.960  19.326  24.222 -0.1403 -0.4458  0.2033
44612W        W45476   3.223  18.186  25.325 -0.0468 -0.0062  0.1507
44613W        W45477   4.718  18.851  28.545  0.1042  0.2648  0.1339
44614W        W45478   8.978  21.006   0.626  0.2805 -0.1961 -0.1720
44615W        W45479   4.704  21.053  28.916 -0.0447  0.4759 -0.4071
44616W        W45480   3.651  22.128  26.938 -0.2793  0.0553 -0.2704
44617W        W45481   6.565  19.328  28.558 -0.1397 -0.1920 -0.3595
44618W        W45482   6.651  18.345  26.952  0.4343 -0.2453  0.0983
44619W        W45483   4.381  23.947   0.884 -0.0443 -0.1540  0.0926
44620W        W45484   6.081  20.695  28.770 -0.0424 -0.1843 -0.0860
44621W        W45485   1.943  21.228  29.086  0.0749 -0.2272 -0.3118
44622W        W45486   3.767  17.879  28.527 -0.1530  0.1616  0.0171
44623W        W45487   4.991  20.547   0.122 -0.0308  0.0628 -0.2552
44624W        W45488   1.269  17.775  27.427 -0.1838 -0.1044 -0.1342
44625W        W45489   4.840  23.979  29.027  0.1444  0.0514 -0.0584
44626W        W45490   7.913  23.236  27.927 -0.2179 -0.1777  0.0600
44627W        W45491   5.790  21.819   0.242 -0.0518  0.0108 -0.3114
44628W        W45492   4.531  22.032  26.470  0.0006 -0.1512  0.2027
44629W        W45493   5.074  21.099   0.209 -0.1350 -0.0031 -0.3332
44630W        W45494   4.299  17.937  27.203 -0.3580 -0.2583  0.2892
44631W        W45495   6.774  20.476  23.989 -0.1146  0.0772  0.2381
44632W        W45496   5.211  23.533  25.965 -0.0058 -0.1588 -0.2389
44633W        W45497   5.611  21.050  25.843  0.1266 -0.1223  0.0755
44634W        W45498   4.125  18.916  26.706  0.0322 -0.0690 -0.1134
44635W        W45499   8.694  19.370  26.920  0.1479  0.1180  0.0704
44636W        W45500   4.820  19.586  28.207  0.0184 -0.0547  0.1253
44637W        W45501   5.406  20.870  26.352 -0.0996  0.2895  0.0351
44638W        W45502   4.779  20.437  24.740 -0.1384  0.0624  0.3558
44639W        W45503   4.489  20.999  25.918 -0.2914 -0.0089  0.1635
44640W        W45504   4.598  21.796  26.954  0.0401  0.1108 -0.4614
44641W        W45505   6.988  21.456  28.144  0.3155  0.0421 -0.0871
44642W        W45506   8.671  21.150  24.488 -0.1308  0.0864 -0.1731
44643W        W45507   2.797  23.087  24.944  0.0287 -0.0576  0.2105
44644W        W45508   4.284  17.493  26.401 -0.0458  0.7012  0.1629
44645W        W45509   5.232  22.617  26.621 -0.0107 -0.2148  0.1580
44646W        W45510   3.403  20.939  27.494  0.1283  0.1293  0.2441
44647W        W45511   6.935  22.003  25.160  0.2725  0.2763  0.0152
44648W        W45512   5.858  19.723  25.725 -0.2783  0.0142  0.0045
44649W        W45513   4.377  21.429  27.174  0.1216 -0.5398  0.2504
44650W        W45514   5.899  23.368  28.294 -0.2359 -0.0845 -0.0330
44651W        W45515   5.506  19.799  27.362  0.2186  0.1268 -0.4331
44652W        W45516   4.999  18.532  27.628 -0.1074 -0.0913 -0.2987
44653W        W45517   7.790  20.296  27.137 -0.1435 -0.2462  0.0347
44654W        W45518   7.467  21.255  26.624 -0.0833  0.0470  0.1802
44655W        W45519   5.911  19.405  27.284  0.1435  0.1054 -0.1144
44656W        W45520   2.172  23.056  27.402  0.0998 -0.3684  0.2382
44657W        W45521   6.876  21.948   1.410  0.0800 -0.1421 -0.0725
44658W        W45522   4.480  21.711   2.305  0.0766 -0.0382 -0.1103
44659W        W45523   8.260  18.687  27.947  0.2804 -0.0182 -0.1145
44660W        W45524   4.460  20.084  24.499 -0.1871 -0.1765 -0.0617
44661W        W45525   7.158  22.659  28.468  0.0019  0.1354 -0.2280
44662W        W45526   7.073  21.967   0.811  0.0470  0.1672  0.3043
44663W        W45527   3.313  18.841  26.097  0.1518  0.0165  0.0417
44664W        W45528   3.739  23.220  27.053 -0.0416 -0.0146 -0.3614
44665W        W45529   3.373  18.443  26.407 -0.2899 -0.0688 -0.1298
44666W        W45530   6.149  19.218  24.905  0.0684  0.1395  0.0707
44667W        W45531   5.172  21.449  26.140 -0.0709  0.0508 -0.0071
44668W        W45532   3.763  19.100  27.829  0.1125  0.0691 -0.0086
44669W        W45533   5.658  19.309  28.310 -0.2396  0.2881  0.2436
44670W        W45534   4.654  17.387  27.622  0.1527  0.0901  0.0474
44671W        W45535   4.849  18.872  25.009  0.1129 -0.0021 -0.0549
44672W        W45536   5.270  19.607  25.482  0.1618 -0.1818 -0.3959
44673W        W45537   5.994  18.378  24.277 -0.0010 -0.0002  0.2900
44674W        W45538   5.154  21.628  28.448 -0.0720 -0.0856 -0.0662
44675W        W45539   6.890  20.505  28.313 -0.4402 -0.1545  0.0308
44676W        W45540   4.371  22.673   0.411 -0.0697  0.1337  0.0574
44677W        W45541   8.637  19.388   0.159 -0.0084 -0.0776  0.1589
44678W        W45542   5.544  17.806  27.524  0.1016 -0.0559 -0.1385
44679W        W45543   9.109  17.722   3.761  0.1293 -0.1129  0.1190
44680W        W45544   3.753  23.426  24.702  0.0087  0.2280 -0.0064
44681W        W45545   4.970  19.416  26.956  0.0004  0.0309 -0.2035
44682W        W45546   3.693  19.725   0.903  0.0688  0.0835 -0.0956
44683W        W45547   3.425  17.904  24.402 -0.1245 -0.3750  0.0454
44684W        W45548   2.875  18.893  27.437  0.2836 -0.0787 -0.2479
44685W        W45549   2.790  24.836  29.082  0.1492  0.0327 -0.0976
44686W        W45550   3.815  18.580  25.975  0.0112 -0.1005  0.0809
44687W        W45551   5.162  21.509  27.011 -0.0072  0.2763  0.1891
44688W        W45552   9.494  23.053  25.285  0.1137  0.0155 -0.0941
44689W        W45553   5.345  20.131  28.525 -0.1873  0.1587  0.1980
44690W        W45554   8.934  21.335  25.653 -0.3265  0.2300  0.1467
44691W        W45555  10.053  19.152  27.174 -0.5684  0.0407  0.3556
44692W        W45556   6.131  21.191  28.647  0.0478 -0.0752  0.0268
44693W        W45557   4.138  20.396  28.115  0.0882  0.1703  0.0275
44694W        W45558   4.980  18.859  27.254 -0.1067 -0.1861 -0.0718
44695W        W45559   6.896  20.974   0.725 -0.1769  0.1858 -0.1654
44696W        W45560   6.493  20.361  27.850 -0.2904  0.0200  0.1592
44697W        W45561   4.517  18.372  27.788  0.0398  0.0354 -0.0316
44698W        W45562   5.387  20.955  27.477  0.2125  0.2290 -0.1921
44699W        W45563   6.875  22.873  29.059  0.0764  0.0102  0.3199
44700W        W45564   9.514  18.598   0.486  0.1755  0.3227  0.0293
44701W        W45565   5.255  24.871  29.001  0.3261 -0.1952 -0.1639
44702W        W45566   7.480  19.810  24.441  0.0749 -0.1274 -0.1994
44703W        W45567   3.659  19.750  23.983  0.1285 -0.1267  0.0209
44704W        W45568   9.958  18.490   1.619 -0.1771  0.0469 -0.1438
44705W        W45569   5.838  19.661  27.772 -0.0621 -0.1439  0.0658
44706W        W45570   3.991  19.388  24.954  0.3634 -0.0152  0.1810
44707W        W45571   5.075  20.521  28.739 -0.0661 -0.0484  0.0653
44708W        W45572   7.948  22.678   0.393  0.1254 -0.1797  0.0095
44709W        W45573   5.527  19.875  25.039 -0.0319 -0.0750 -0.0437
44710W        W45574   5.840  20.790  27.504 -0.2158 -0.1543  0.1369
44711W        W45575   4.060  19.963  23.751  0.0403 -0.0649 -0.0404
44712W        W45576   5.229  17.397  28.901 -0.0550  0.2964  0.0664
44713W        W45577   7.264  21.378  27.659 -0.0379  0.2138  0.1451
44714W        W45578   5.394  19.973   1.725  0.0319 -0.1417 -0.0054
44715W        W45579   7.768  18.221   2.383  0.0814 -0.0116  0.0050
44716W        W45580   7.011  21.911   0.025  0.1413  0.0808 -0.0084
44717W        W45581   4.459  22.135  25.739 -0.0778 -0.0822  0.0455
44718W        W45582   6.140  22.536  29.006 -0.0780 -0.3124  0.0752
44719W        W45583   7.939  21.067  28.019  0.1993  0.0691  0.2713
44720W        W45584   3.245  23.889  27.076 -0.0393 -0.0782 -0.1290
44721W        W45585   6.399  18.189  27.853 -0.1794  0.0373  0.0747
44722W        W45586   6.769  20.552  27.028  0.0155 -0.0698 -0.0930
44723W        W45587   3.258  17.024  24.295 -0.0804  0.0875  0.2438
44724W        W45588   8.079  20.193  25.439 -0.4667 -0.2910 -0.0317
44725W        W45589   5.562  20.005  27.990  0.3408 -0.1784 -0.1595
44726W        W45590   5.820  18.716  25.849 -0.1765 -0.0708  0.2351
44727W        W45591   4.030  21.791  27.218 -0.0369 -0.0900 -0.1397
44728W        W45592   1.974  19.276  23.497  0.3462  0.4824 -0.1041
44729W        W45593   8.816  19.000   0.579  0.3832 -0.3217  0.0353
44730W        W45594   5.297  23.362  25.438 -0.1357 -0.1143 -0.0228
44731W        W45595   4.344  19.297  29.072  0.0328 -0.3295  0.1486
44732W        W45596   5.527  20.956  28.019 -0.2455  0.0047  0.2599
44733W        W45597   6.186  20.093  25.926  0.1547 -0.0692  0.2337
44734W        W45598   4.234  20.557  25.396  0.2398  0.1993 -0.0288
44735W        W45599   5.672  21.254  26.712  0.3659 -0.1112  0.2283
44736W        W45600   8.470  22.614   0.355 -0.1819  0.1626 -0.0448
44737W        W45601   2.002  19.793  26.564  0.2445 -0.0564  0.0886
44738W        W45602   6.056  22.555   0.668  0.0859  0.0773 -0.1095
44739W        W45603   5.148  17.776  28.564 -0.0773 -0.1410  0.0721
44740W        W45604   2.416  20.288   0.523 -0.0491 -0.3845 -0.1316
44741W        W45605   3.667  21.593  26.002  0.2712  0.2618 -0.0009
44742W        W45606   4.424  17.346  29.045 -0.2289  0.1833 -0.2625
44743W        W45607   6.257  21.261  26.363  0.0370  0.0696  0.0502
44744W        W45608   3.487  20.029   0.088  0.1120 -0.0373 -0.3959
44745W        W45609   5.161  19.053  25.448 -0.0076  0.2161 -0.3264
44746W        W45610   6.803  17.067  27.141 -0.0306  0.0818 -0.0298
44747W        W45611   4.907  20.217  26.553 -0.2997  0.2108  0.0089
44748W        W45612   7.845  17.922   0.964  0.0506 -0.0063 -0.1942
44749W        W45613   3.213  21.767   1.521  0.0046 -0.1083  0.3402
44750W        W45614   3.842  18.737  29.103 -0.0798 -0.0092  0.1366
44751W        W45615   8.020  21.879   0.039  0.0478  0.1830  0.0720
44752W        W45616   4.251  18.864  28.832  0.3722 -0.0079 -0.2549
44753W        W45617   5.472  16.827  28.291  0.0897  0.0744  0.0284
44754W        W45618   6.088  17.690  28.391  0.0228 -0.1694 -0.0975
44755W        W45619   5.433  20.650  29.061 -0.1178 -0.1906 -0.2176
44756W        W45620   4.718  19.007   0.019  0.1314 -0.2042 -0.0819
44757W        W45621   2.277  17.400  26.044 -0.0481  0.4145  0.1851
44758W        W45622   4.095  21.279  28.376 -0.1082  0.0597  0.1203
44759W        W45623   5.749  20.391  26.679 -0.4267  0.2584  0.0659
44760W        W45624   6.218  22.750  28.507 -0.0147 -0.2608  0.1067
44761W        W45625   5.834  20.467  25.116 -0.0216  0.4122 -0.1901
44762W        W45626   6.396  17.044  26.000 -0.0206 -0.1985  0.1775
44763W        W45627   9.529  19.929  27.863  0.1911  0.1320  0.1236
44764W        W45628   5.337  20.377  26.169  0.1201  0.0407  0.0341
44765W        W45629   4.877  18.690  28.117  0.1588  0.0126  0.0875
44766W        W45630   5.421  21.803  26.562 -0.0100  0.0928 -0.0123
44767W        W45631   5.848  19.531  26.259 -0.0924  0.0280  0.2855
44768W        W45632   6.041  21.343  25.878  0.1512  0.0143 -0.1560
44769W        W45633   6.213  22.999  23.403  0.2018 -0.1779  0.0175
44770W        W45634   5.665  19.339  24.730 -0.3353 -0.1696  0.0009
44771W        W45635   5.215  18.522  23.707  0.0533 -0.1800 -0.0282
44772W        W45636   6.613  19.197  25.587  0.0339 -0.0844  0.0558
44773W        W45637   4.992  21.569  29.023 -0.1160 -0.0911 -0.4477
44774W        W45638   7.756  18.355  26.383  0.1004  0.0317 -0.1423
44775W        W45639   2.081  17.597  27.729  0.2055 -0.2102  0.1285
44776W        W45640   6.496  23.001  27.709  0.1150  0.0710  0.1298
44777W        W45641   3.529  17.132  28.052 -0.2864 -0.2879 -0.0108
44778W        W45642   5.092  23.867  25.253  0.2914 -0.5571 -0.1074
44779W        W45643   6.020  22.265  26.372  0.0315  0.0735 -0.0526
44780W        W45644   3.037  17.177  28.122  0.0189 -0.3219 -0.4228
44781W        W45645   5.919  18.310  27.427 -0.2094 -0.0015 -0.1091
44782W        W45646   6.301  19.039  28.883  0.1128  0.0884  0.1842
44783W        W45647   4.491  17.297  28.210  0.1977  0.2670  0.0862
44784W        W45648   7.113  17.500  26.305 -0.1930 -0.2386 -0.1639
44785W        W45649   5.486  22.115  28.639 -0.1379 -0.0588  0.2849
44786W        W45650   6.246  23.027  25.706 -0.0333 -0.1371  0.3642
44787W        W45651   5.149  19.921  26.857  0.3327  0.3188  0.0633
44788W        W45652   2.301  20.881  28.836 -0.2190  0.1253 -0.1276
44789W        W45653   9.052  20.018   0.033 -0.0113 -0.1830  0.0137
44790W        W45654   8.568  21.515  28.522 -0.1337 -0.3541 -0.0015
44791W        W45655   4.926  18.149   0.240  0.2716  0.0349 -0.1942
44792W        W45656   2.251  19.902  28.829  0.0327 -0.2374 -0.0240
44793W        W45657   4.926  23.067  25.757  0.1810  0.0231 -0.1998
44794W        W45658   2.803  19.014  28.972  0.0066  0.1478 -0.0921
44795W        W45659   8.859  20.952   0.114 -0.2950  0.1190  0.3564
44796W        W45660   5.316  21.577  27.509  0.2798 -0.0644 -0.2448
44797W        W45661   3.166  22.076  26.693 -0.0268 -0.2382 -0.4435
44798W        W45662   6.379  23.001  28.961 -0.0657 -0.1369 -0.0342
44799W        W45663   4.804  19.709  25.346 -0.3558 -0.0733 -0.0858
44800W        W45664   4.998  21.927  27.669 -0.2407  0.3433 -0.2531
44801W        W45665   6.692  16.940  28.624  0.1378 -0.1706  0.0601
44802W        W45666   4.791  21.611  28.039  0.0111 -0.1040  0.1686
44803W        W45667   6.434  17.868  26.796  0.0986  0.0138  0.1486
44804W        W45668   5.049  19.277  24.329 -0.2485 -0.1850  0.0530
44805W        W45669   4.548  22.683  25.592  0.0841  0.0691  0.1323
44806W        W45670   6.321  18.186   1.549 -0.2554  0.3835  0.0548
44807W        W45671   5.429  18.916   1.210  0.0364  0.3088 -0.1538
44808W        W45672   7.115  19.323   1.038 -0.0604  0.1597 -0.0415
44809W        W45673   8.857  19.825  28.345 -0.2540 -0.1262  0.0076
44810W        W45674   3.744  20.536   0.622  0.1077 -0.0923 -0.5173
44811W        W45675   4.058  15.584  25.932  0.3327  0.1688  0.0163
44812W        W45676   6.334  22.566  25.900  0.0346 -0.0807 -0.2497
44813W        W45677   4.211  17.572   0.945 -0.0374 -0.1455 -0.4355
44814W        W45678   4.589  22.677  29.069  0.1231  0.0499 -0.2793
44815W        W45679   6.452  19.616  27.068  0.3886  0.0236  0.3248
44816W        W45680   6.085  22.141  23.539  0.0583 -0.1572  0.0595
44817W        W45681   6.230  21.174  27.318  0.2350  0.1149 -0.0113
44818W        W45682   7.329  20.545  26.788  0.1124 -0.0588 -0.1674
44819W        W45683   5.222  19.627  27.819 -0.1441  0.0175 -0.1352
44820W        W45684   4.502  22.246  26.912 -0.0673 -0.0041  0.0145
44821W        W45685   5.543  21.626  25.083  0.0052 -0.1767  0.1721
44822W        W45686   3.568  19.761  28.311  0.1835  0.1804 -0.0077
44823W        W45687   4.181  21.379  28.973  0.0559 -0.0519 -0.2839
44824W        W45688   6.701  17.984  28.272  0.2085  0.1148 -0.1074
44825W        W45689   6.257  20.355  29.090  0.0148 -0.1530  0.1352
44826W        W45690   6.160  20.032  26.504 -0.0562  0.0524  0.1536
44827W        W45691   4.583  20.976  27.631  0.0596 -0.0379  0.1645
44828W        W45692   5.380  22.618  25.988 -0.1452 -0.0554  0.0187
44829W        W45693   3.642  19.745   2.815  0.1499  0.0579 -0.0334
44830W        W45694   6.220  19.094   0.439  0.3367 -0.2725  0.1125
44831W        W45695   4.297  16.813  27.964  0.0272  0.2320  0.1376
44832W        W45696   6.771  19.454  27.485  0.0374  0.0279  0.1003
44833W        W45697   4.187  20.868  28.011  0.0459  0.0480  0.0678
44834W        W45698   8.413  21.076  28.801 -0.1986  0.0058 -0.0658
44835W        W45699   3.437  20.432  28.849  0.1516 -0.0130  0.1960
44836W        W45700   6.045  19.699  22.611  0.4322 -0.2813 -0.0499
44837W        W45701   7.530  21.350  28.091 -0.0035  0.1866 -0.1223
44838W        W45702   5.169  19.570   0.024 -0.1224 -0.1194 -0.2205
44839W        W45703   4.149  18.355   1.847  0.0515 -0.3316 -0.3881
44840W        W45704   8.982  20.711   2.468  0.0748  0.0216 -0.0140
44841W        W45705   1.633  20.499   0.647  0.1478  0.1300 -0.1768
44842W        W45706   3.768  19.251  28.271  0.1297 -0.1151 -0.2839
44843W        W45707   8.818  21.091  28.319  0.2626  0.0475  0.0859
44844W        W45708   6.128  21.372  26.895 -0.1740  0.1110  0.3451
44845W        W45709   6.114  16.079  28.028  0.0051  0.1801  0.0991
44846W        W45710   7.489  22.281  28.320 -0.0030 -0.0287 -0.1743
44847W        W45711   8.526  20.162  28.204 -0.1314  0.2609 -0.2808
44848W        W45712   3.694  18.500  27.259 -0.0944  0.3534 -0.1387
44849W        W45713   5.512  19.392   1.432 -0.1992 -0.1828 -0.3818
44850W        W45714   7.056  24.161  27.316 -0.2797 -0.1475  0.3196
44851W        W45715   4.284  22.616  27.553 -0.2540  0.0661 -0.0345
44852W        W45716   5.925  21.417  28.173  0.1266 -0.2600 -0.0710
44853W        W45717   4.194  20.576   1.046 -0.1564 -0.0645 -0.0828
44854W        W45718   3.986  19.404  23.613  0.4450 -0.1924  0.0631
44855W        W45719   5.474  19.077  27.321  0.2010 -0.2068 -0.1022
44856W        W45720   4.276  21.126  24.665 -0.1760  0.0223  0.1829
44857W        W45721   7.790  20.289  26.626 -0.1931 -0.1800  0.1429
44858W        W45722   5.135  22.945  28.213 -0.0943 -0.0364 -0.2836
44859W        W45723   6.712  21.285  27.727 -0.1617  0.0157  0.0251
44860W        W45724   4.774  20.183  27.676 -0.0047 -0.2033  0.0537
44861W        W45725   3.092  21.516  28.927 -0.2108 -0.0387 -0.0917
44862W        W45726   7.540  21.028  28.965  0.0611  0.0662 -0.0794
44863W        W45727   6.756  19.880   0.419 -0.0046  0.0509  0.1451
44864W        W45728   5.338  18.920  26.851  0.0890 -0.1484  0.0942
44865W        W45729   6.721  21.427  26.751 -0.0280 -0.2291  0.0005
44866W        W45730   5.070  18.278  24.090  0.0037 -0.2618  0.0699
44867W        W45731   2.578  18.980  26.848 -0.0549 -0.1031  0.1558
44868W        W45732   3.661  20.267  28.173 -0.0160  0.1350  0.0309
44869W        W45733   5.926  18.298   0.252 -0.1921  0.1609 -0.2816
44870W        W45734   5.314  18.711  25.079  0.4814  0.2253  0.0965
44871W        W45735   4.539  18.753  27.526  0.0964 -0.1702 -0.1338
44872W        W45736   7.666  20.361  25.229 -0.1341 -0.2391 -0.0597
44873W        W45737   6.481  22.775   0.840  0.1152  0.1708 -0.0791
44874W        W45738   5.776  20.405  28.274 -0.1010  0.0788  0.0904
44875W        W45739   2.216  21.211   0.893 -0.0174  0.4261 -0.2026
44876W        W45740   7.342  18.617  26.204 -0.0769 -0.0798 -0.3213
44877W        W45741   5.851  22.857  25.851  0.1196  0.0807  0.0900
44878W        W45742   4.570  19.932  26.727  0.0618  0.1364  0.2120
44879W        W45743   4.559  18.778  26.441 -0.0619 -0.0106 -0.1284
44880W        W45744   8.203  19.614  27.356  0.2669  0.0580 -0.1219
44881W        W45745   6.043  17.690  28.999 -0.0419  0.1375 -0.1227
44882W        W45746   3.336  20.988   0.281  0.0524 -0.0498 -0.0713
44883W        W45747   4.679  18.923  24.486  0.1970  0.0804 -0.3077
44884W        W45748   5.616  17.735  28.592 -0.3643 -0.1230 -0.1596
44885W        W45749   5.765  20.643   1.399 -0.0997  0.0232  0.0389
44886W        W45750   7.786  20.031  28.639 -0.3678  0.0459  0.1699
44887W        W45751   3.798  22.676  27.115 -0.1422 -0.1146 -0.2722
44888W        W45752   6.059  23.148  26.227 -0.0549 -0.0627  0.1702
44889W        W45753   5.601  18.317  28.564  0.3206  0.1558 -0.1050
44890W        W45754   5.223  18.992  27.787 -0.0698  0.1310  0.6145
44891W        W45755   9.986  20.771  27.880  0.0975 -0.0896  0.0878
44892W        W45756   7.244  20.816  26.325 -0.0518 -0.1822  0.2272
44893W        W45757   6.883  21.187  24.378  0.2451 -0.2326 -0.0266
44894W        W45758   5.522  23.073   1.182 -0.2446 -0.0307 -0.0508
44895W        W45759   3.815  17.601  25.951  0.3527 -0.0768  0.1011
44896W        W45760   4.283  20.900  27.210 -0.0236  0.0318 -0.0367
44897W        W45761   3.509  22.445  26.614  0.0624  0.3003 -0.0625
44898W        W45762   4.264  17.988  28.748 -0.0969 -0.2381  0.2104
44899W        W45763   4.313  19.506  28.076 -0.0679  0.0915  0.0361
44900W        W45764   4.437  20.051  25.585 -0.4363 -0.1437  0.0713
44901W        W45765   4.385  21.485  26.608  0.0814  0.3190 -0.0805
44902W        W45766   3.258  22.775  25.765  0.1733 -0.1385 -0.0953
44903W        W45767   6.261  21.636   0.176  0.0058 -0.0223  0.1276
44904W        W45768   4.222  19.116  23.237  0.0987 -0.0450 -0.2453
44905W        W45769   5.543  18.518  29.102 -0.2737  0.3645  0.0964
44906W        W45770   3.628  22.048   0.340 -0.0533 -0.0027  0.2124
44907W        W45771   4.663  19.690  27.749  0.1342  0.0371 -0.2452
44908W        W45772   4.571  20.015  28.133  0.1190  0.2765  0.1199
44909W        W45773   6.710  22.547  26.274  0.1553 -0.0418 -0.2263
44910W        W45774   4.584  21.194   0.934  0.1749 -0.0859 -0.1018
44911W        W45775   5.364  22.101  25.809 -0.0016 -0.0802 -0.1805
44912W        W45776   2.184  19.383   0.434 -0.0037  0.0543  0.1568
44913W        W45777   7.540  20.648  25.893 -0.2742 -0.6400  0.2209
44914W        W45778   6.457  20.951  26.882  0.1820  0.3614 -0.1948
44915W        W45779   4.057  19.877  24.245 -0.0239  0.0263  0.0522
44916W        W45780   4.423  20.647  24.409  0.0306 -0.0327 -0.0861
44917W        W45781   1.758  20.189  27.566  0.0475  0.0047  0.3084
44918W        W45782   4.616  20.745   0.428 -0.0134  0.1571 -0.2289
44919W        W45783   8.482  20.889  24.906 -0.1337  0.1692  0.2800
44920W        W45784   5.304  19.669  28.341  0.0889 -0.0084  0.1272
44921W        W45785   5.245  25.601  28.530  0.1239  0.3310 -0.3388
44922W        W45786   6.291  22.185  28.599  0.1811 -0.0677 -0.1496
44923W        W45787   7.384  18.355   1.553  0.0509 -0.1542 -0.2349
44924W        W45788   3.979  21.432  26.932  0.0644  0.2444  0.2092
44925W        W45789   7.821  21.220  28.473 -0.1038  0.0018 -0.0722
44926W        W45790   4.757  19.665  26.348  0.0779 -0.0457  0.1548
44927W        W45791   5.451  20.810  26.890 -0.0938 -0.3592  0.2238
44928W        W45792   4.812  21.515  24.285 -0.0479  0.0169 -0.3024
44929W        W45793   5.386  16.420  28.678  0.1036 -0.0921 -0.3452
44930W        W45794   6.153  17.835  26.270 -0.0472  0.1527  0.0537
44931W        W45795   4.503  18.384  26.094  0.2964  0.2734  0.1644
44932W        W45796   2.946  19.926  27.550  0.0096 -0.1297  0.0641
44933W        W45797   3.850  23.831  26.335  0.1777  0.1575  0.1137
44934W        W45798   6.599  22.126  25.952 -0.1998 -0.1992  0.0703
44935W        W45799   4.544  18.563  24.791 -0.0391  0.1317  0.2276
44936W        W45800   4.574  19.516  27.199  0.0584 -0.0941 -0.3332
44937W        W45801   3.125  18.750  26.881  0.0304 -0.3163  0.0632
44938W        W45802   7.350  19.297   0.098 -0.0458  0.1196  0.1830
44939W        W45803   4.880  21.021  24.369 -0.2921 -0.1261  0.2415
44940W        W45804   7.015  24.653  28.219 -0.0533 -0.0661 -0.0069
44941W        W45805   5.770  20.534  26.018 -0.0104  0.1131 -0.1689
44942W        W45806   5.948  21.979  26.824 -0.0569  0.0672 -0.0748
44943W        W45807   6.430  19.049  23.837 -0.0396  0.1194 -0.0351
44944W        W45808   4.124  22.671  25.804  0.1503  0.1333 -0.0908
44945W        W45809   6.569  20.044  28.237 -0.2941 -0.2986 -0.0173
44946W        W45810   4.944  19.305  27.512  0.3167  0.1937  0.0022
44947W        W45811   3.118  18.082  27.880 -0.1464  0.0824  0.2690
44948W        W45812   4.987  19.758  27.422 -0.0288  0.0358  0.2823
44949W        W45813   5.093  20.616  28.268 -0.0908  0.0038  0.0083
44950W        W45814   3.826  20.224   1.067 -0.0325  0.0357  0.5204
44951W        W45815   6.597  15.366  25.603  0.1375 -0.1857 -0.1221
44952W        W45816   6.430  21.676  25.743  0.3159  0.1259  0.2658
44953W        W45817   8.732  21.391   0.314 -0.0995  0.3741 -0.0829
44954W        W45818   7.261  21.224  27.133  0.1447  0.0053  0.2614
44955W        W45819   6.504  22.128  25.378  0.0337 -0.0333 -0.0933
44956W        W45820   6.733  20.554  25.452 -0.1751  0.0293  0.1234
44957W        W45821   8.656  19.750  25.163  0.1659  0.0445 -0.0711
44958W        W45822   4.062  19.558  28.667 -0.1467 -0.0048  0.1517
44959W        W45823   8.583  23.009  28.503 -0.0505  0.0686 -0.0118
44960W        W45824   5.752  22.796  26.380 -0.1207 -0.1670 -0.3400
44961W        W45825   7.983  22.446  28.326 -0.2318  0.1590  0.2475
44962W        W45826   8.483  23.375  25.573 -0.2483 -0.1906  0.0597
44963W        W45827   4.998  19.785  28.710 -0.2630 -0.0540 -0.3204
44964W        W45828   4.526  19.338  26.706  0.1860 -0.0174 -0.1696
44965W        W45829   6.692  22.848  28.215  0.0698 -0.0179  0.4470
44966W        W45830   6.692  21.923  27.837 -0.0320 -0.1609  0.2663
44967W        W45831   2.564  18.747  28.048 -0.1744 -0.2340  0.1001
44968W        W45832   5.152  18.663  28.573 -0.0937  0.0913  0.4103
44969W        W45833   4.221  19.996  27.727  0.3851  0.0024 -0.1925
44970W        W45834   4.201  20.363  27.127  0.2076 -0.1625  0.1060
44971W        W45835   6.612  21.216  25.913 -0.0837  0.1844 -0.2204
44972W        W45836   5.713  22.881  28.323 -0.1874 -0.0403  0.3748
44973W        W45837   5.213  19.222  28.745 -0.4400 -0.0365 -0.1508
44974W        W45838   5.005  20.671  27.686  0.0819 -0.0874 -0.0888
44975W        W45839   7.179  22.625  27.403  0.1079 -0.1582  0.1390
44976W        W45840   5.943  23.859  28.279  0.0439 -0.2491  0.0824
44977W        W45841   5.104  22.021  28.121  0.0793  0.0713  0.1797
44978W        W45842   5.633  24.695   0.667 -0.2128 -0.2753 -0.2177
44979W        W45843   3.259  17.092  27.582  0.0391  0.1613  0.1713
44980W        W45844   6.159  20.192  28.541  0.0303  0.1572  0.1720
44981W        W45845   7.603  22.645  26.417  0.0200  0.2855  0.0466
44982W        W45846   4.451  20.709  28.450  0.1483  0.1686 -0.0950
44983W        W45847   7.408  19.411   1.412  0.3298  0.0010 -0.2457
44984W        W45848   7.180  23.583  26.974  0.0866 -0.0328  0.3677
44985W        W45849   5.233  22.821   0.809 -0.2592 -0.0813  0.0059
44986W        W45850   4.762  22.827  27.801  0.2491 -0.2241  0.2015
44987W        W45851   4.488  21.914  25.298 -0.3039  0.1619 -0.0091
44988W        W45852   5.443  26.566   6.682 -0.4252 -0.1396 -0.0681
44989W        W45853   6.692  27.878   2.950 -0.3276 -0.0215  0.2214
44990W        W45854   5.264  24.377   0.671 -0.2781 -0.1836  0.0094
44991W        W45855   6.121  25.352   3.637  0.1041 -0.2103  0.1269
44992W        W45856   4.382  22.618   1.242  0.0612 -0.0613  0.1522
44993W        W45857   4.077  21.921   0.069  0.3837  0.4353 -0.1768
44994W        W45858   3.210  21.647   1.008  0.0272 -0.2510  0.0698
44995W        W45859   5.362  24.022  28.945  0.2747  0.0534 -0.2618
44996W        W45860   4.492  25.175   3.241 -0.3746 -0.1755 -0.1867
44997W        W45861   3.431  23.413   2.063  0.1388 -0.1853 -0.1781
44998W        W45862   3.275  21.128   3.180 -0.1134  0.0691  0.1438
44999W        W45863   6.737  24.301   1.776  0.1769  0.0981  0.4485
45000W        W45864   5.585  25.305  28.246  0.0278 -0.1707 -0.2455
45001W        W45865   3.834  23.316   0.288  0.1423 -0.3117 -0.1879
45002W        W45866   3.892  24.072   3.749 -0.3351 -0.0451  0.1521
45003W        W45867   2.378  25.878   4.587  0.1527  0.0854 -0.0464
45004W        W45868   6.899  24.015   2.716  0.1604 -0.0215 -0.0553
45005W        W45869   1.213  24.301   3.611  0.5009 -0.1935  0.0465
45006W        W45870   5.377  23.438   2.656 -0.1261  0.1428 -0.1392
45007W        W45871   3.881  25.120   0.808 -0.1964  0.0858  0.1419
45008W        W45872   5.744  23.282   0.429 -0.0317 -0.0063  0.1483
45009W        W45873   7.395  24.252   2.857  0.5341 -0.0208  0.1845
45010W        W45874   7.603  25.823   0.956 -0.1338  0.2272  0.0976
45011W        W45875   5.348  25.192   2.497  0.2673  0.0218  0.0481
45012W        W45876   5.858  24.345   3.337  0.0747  0.0667  0.1344
45013W        W45877   4.271  24.655   1.206 -0.3420 -0.2351 -0.2552
45014W        W45878   8.111  24.614   3.925 -0.0868 -0.1474  0.0993
45015W        W45879   3.854  27.137  29.023  0.4074  0.0220  0.2207
45016W        W45880   4.980  24.366   2.849  0.0836  0.0814 -0.2295
45017W        W45881   4.708  24.895   1.136  0.0879 -0.0983  0.0782
45018W        W45882   4.783  24.683   0.672  0.2580  0.0545 -0.0522
45019W        W45883   5.630  25.389   3.973 -0.0450 -0.1552 -0.0641
45020W        W45884   3.497  23.744   0.816 -0.1824  0.1560 -0.0729
45021W        W45885   4.707  24.588   2.473 -0.0982 -0.1584  0.1196
45022W        W45886   2.724  26.262   4.550  0.2770 -0.1830  0.1467
45023W        W45887   8.311  24.831   4.323 -0.0054  0.0598  0.1095
45024W        W45888   4.880  23.907  26.423 -0.0082  0.2073  0.0354
45025W        W45889   4.553  23.186   2.843 -0.2231 -0.0347 -0.0405
45026W        W45890   7.426  22.949   3.969  0.2135  0.4320 -0.2909
45027W        W45891   5.060  19.793   2.733  0.1983 -0.2319  0.0056
45028W        W45892   6.153  22.055   1.105 -0.1087  0.1317  0.2806
45029W        W45893   6.528  24.020   1.429 -0.0287  0.1004  0.2613
45030W        W45894   4.229  26.886   2.286 -0.1496  0.3699  0.1041
45031W        W45895   7.117  23.904   1.035 -0.0745  0.0254  0.0447
45032W        W45896   2.209  26.925   1.857  0.1314 -0.0181  0.0531
45033W        W45897   4.850  26.506   2.710  0.1052 -0.0933 -0.0807
45034W        W45898   5.294  22.886   2.653  0.2032  0.2669 -0.2730
45035W        W45899   5.784  22.599   2.820  0.0928 -0.1443 -0.1929
45036W        W45900   5.790  24.382  28.981  0.1386  0.0634  0.0247
45037W        W45901   4.528  21.874  28.967 -0.0628  0.1852 -0.2631
45038W        W45902   6.216  25.227   1.216  0.0860  0.1721 -0.0097
45039W        W45903   5.047  26.039   0.124  0.3240  0.0760  0.1894
45040W        W45904   4.136  24.721   2.945  0.0682 -0.3173  0.1510
45041W        W45905   8.052  22.824   4.037 -0.0902  0.1766  0.1373
45042W        W45906   6.729  19.460   2.716  0.2094 -0.1264 -0.2682
45043W        W45907   5.456  25.704   0.230 -0.0103 -0.0029  0.0020
45044W        W45908   5.469  22.713   0.387 -0.2845  0.2752  0.0029
45045W        W45909   6.729  23.992  27.720 -0.0176  0.0081 -0.2461
45046W        W45910   4.772  24.056   3.169 -0.0473  0.0718 -0.0174
45047W        W45911   5.324  24.425  28.136 -0.0508 -0.0577  0.0087
45048W        W45912   6.203  23.431   0.909  0.1686 -0.1650  0.2485
45049W        W45913   3.681  24.107   5.492 -0.0892 -0.0598 -0.1652
45050W        W45914   4.786  23.900   3.648 -0.0424 -0.2339 -0.1149
45051W        W45915   2.780  24.383   1.360  0.0053  0.0944 -0.2518
45052W        W45916   3.885  23.164   2.204  0.0243  0.0516  0.0850
45053W        W45917   5.228  21.931   2.749  0.3071  0.0588 -0.0475
45054W        W45918   4.625  25.411   1.462 -0.0347 -0.3266  0.3140
45055W        W45919   5.198  22.783  27.410 -0.0492  0.1237  0.1412
45056W        W45920   5.106  25.116  28.219  0.1335 -0.1416 -0.2328
45057W        W45921   4.189  25.647  29.092  0.0137 -0.0972  0.0475
45058W        W45922   7.617  24.377   4.186  0.0232 -0.1178 -0.1906
45059W        W45923   4.808  24.806   0.148  0.0064  0.3347  0.1152
45060W        W45924   8.491  28.062  27.856 -0.1013  0.0922  0.0425
45061W        W45925   6.860  24.786   4.866 -0.3292 -0.1272  0.0094
45062W        W45926   8.093  23.979   1.033 -0.1437  0.2434  0.0708
45063W        W45927   4.031  24.199   1.857 -0.1926  0.0209 -0.3153
45064W        W45928   3.162  23.182   1.598 -0.0352 -0.1204 -0.1207
45065W        W45929   4.451  22.271   5.972  0.2074  0.2029  0.0633
45066W        W45930   6.678  24.853   2.564  0.3477 -0.1355  0.2347
45067W        W45931   7.614  23.521   2.128  0.0619 -0.0537 -0.0376
45068W        W45932   4.018  22.626   0.825  0.1129 -0.0095  0.0837
45069W        W45933   4.119  23.796   2.353  0.2546 -0.0880  0.1086
45070W        W45934   4.237  23.095   0.663 -0.0167  0.1233  0.0117
45071W        W45935   5.296  21.801   0.553 -0.0166 -0.2209 -0.1524
45072W        W45936   7.928  24.323   2.596 -0.2182  0.1096 -0.0622
45073W        W45937   6.280  24.237  28.255 -0.2131  0.2087  0.0394
45074W        W45938   6.384  24.777   3.091  0.1088  0.0255 -0.0754
45075W        W45939   6.713  21.556   3.070  0.2784  0.0742 -0.1739
45076W        W45940   5.508  24.408   2.827  0.0581 -0.0318  0.0576
45077W        W45941   7.511  21.452   1.429 -0.1234  0.0586  0.0661
45078W        W45942   7.642  24.723  27.976  0.0945  0.0119 -0.3077
45079W        W45943   6.985  22.270   5.901 -0.1687 -0.0053  0.0150
45080W        W45944   4.868  28.366  27.943  0.1952 -0.0885  0.0748
45081W        W45945   6.889  25.072  28.521 -0.0333 -0.0161  0.0352
45082W        W45946   2.076  21.492  27.796  0.2679 -0.4704  0.0490
45083W        W45947   5.173  23.121   1.740 -0.1943 -0.2427  0.0113
45084W        W45948   6.344  22.981   1.217 -0.1821  0.1033  0.1264
45085W        W45949   3.263  23.372   3.776  0.1483 -0.1090  0.1599
45086W        W45950   1.792  22.220   0.400  0.1440  0.0526 -0.1895
45087W        W45951   9.389  22.568   1.495 -0.2902 -0.1817  0.2071
45088W        W45952   4.940  25.548  29.102  0.2198 -0.2643 -0.1734
45089W        W45953   3.180  21.521   2.816 -0.0199 -0.1595 -0.0817
45090W        W45954   5.407  21.572  28.024  0.1118  0.2830  0.0157
45091W        W45955   8.270  24.186   0.541 -0.0432 -0.2848 -0.3036
45092W        W45956   8.724  21.596   2.761  0.1560 -0.4082  0.0167
45093W        W45957   5.868  21.425   3.330  0.3878 -0.0099 -0.1504
45094W        W45958   4.986  23.652  28.135  0.3327 -0.1122 -0.2226
45095W        W45959   7.255  22.778   3.473 -0.0198 -0.4300  0.0524
45096W        W45960   4.904  19.039   3.361  0.0756 -0.1085  0.0550
45097W        W45961   5.807  25.370   1.529 -0.1454  0.2030  0.0682
45098W        W45962   3.901  21.843   3.059 -0.0784  0.0365  0.2359
45099W        W45963   6.681   0.043   1.032 -0.3786  0.0330  0.0637
45100W        W45964   5.364  22.682   1.572  0.1462 -0.1868  0.0123
45101W        W45965   3.688  27.711   2.690 -0.2500 -0.0431  0.0357
45102W        W45966   7.812  23.344   2.991  0.0516 -0.3129  0.0842
45103W        W45967   5.355  24.551  27.614 -0.2950  0.1006  0.0205
45104W        W45968   7.530  21.949   2.067 -0.2053 -0.4301  0.1175
45105W        W45969   4.445  21.009   2.244  0.1405 -0.1045  0.4424
45106W        W45970   5.548  24.030   0.315 -0.1888 -0.1433 -0.0699
45107W        W45971   8.871  24.372   2.242  0.1868  0.0764 -0.2865
45108W        W45972   5.643  23.278  29.097  0.0526 -0.0295  0.0669
45109W        W45973   8.133  23.103   1.114  0.0569 -0.0257 -0.0254
45110W        W45974   6.165  25.138   2.689 -0.0306 -0.1093  0.3365
45111W        W45975   6.271  24.171   0.676  0.1530 -0.0376  0.0072
45112W        W45976   4.679  21.996  28.430 -0.1844  0.1069  0.1090
45113W        W45977   6.282  23.119   0.549 -0.0705 -0.0405  0.0536
45114W        W45978   4.106  22.647   3.517 -0.1759 -0.1533 -0.1877
45115W        W45979   3.243  21.823   2.037 -0.0589 -0.0785  0.0660
45116W        W45980   6.480  25.398   2.945  0.0778 -0.2680 -0.0434
45117W        W45981   2.251  24.563   0.610  0.2555 -0.0643  0.1496
45118W        W45982   6.029  26.678   4.521  0.1850 -0.0753  0.0811
45119W        W45983   6.200  22.527   1.152 -0.1624  0.0582 -0.0448
45120W        W45984   5.372  25.275   0.624  0.1530  0.0409  0.3040
45121W        W45985   6.308  20.025   0.326 -0.1383 -0.2583  0.0543
45122W        W45986   6.384  20.967   0.980  0.0041  0.1608  0.0551
45123W        W45987   4.859  23.442   1.409  0.1499  0.0571  0.0655
45124W        W45988   9.236  24.062   2.017 -0.0343 -0.0304 -0.1054
45125W        W45989   6.610  22.620   3.278 -0.2068  0.0124  0.0737
45126W        W45990   5.684  23.970   1.344 -0.0089 -0.0605 -0.0198
45127W        W45991   5.695  23.560   3.354  0.1993 -0.1459  0.3674
45128W        W45992   6.384  23.526  25.737  0.0365 -0.1511 -0.0768
45129W        W45993   5.896  23.026   0.857 -0.2113 -0.0029  0.1724
45130W        W45994   3.612  24.199   0.212  0.1316 -0.3160  0.0771
45131W        W45995   2.865  21.120  27.262  0.0078 -0.2365  0.0487
45132W        W45996   6.225  27.703   0.158 -0.3158  0.0729 -0.1060
45133W        W45997   2.128  23.096   0.720  0.2409  0.2777  0.2449
45134W        W45998   6.705  22.071   1.826  0.0362 -0.2923  0.0353
45135W        W45999   8.663  22.236   3.274 -0.1708  0.1268  0.1697
45136W        W46000   4.266  24.787   0.286 -0.1443  0.0320  0.4115
45137W        W46001   3.054  24.067   1.013 -0.3737  0.0740 -0.2818
45138W        W46002   5.230  24.948   6.529 -0.0551 -0.0525  0.2736
45139W        W46003   2.275  22.358   0.338 -0.0393 -0.0528  0.1802
45140W        W46004   3.550  23.337   3.387  0.0862  0.0594 -0.0308
45141W        W46005   5.870  25.511  27.876 -0.0757  0.2302 -0.0812
45142W        W46006   3.451  24.096   1.712 -0.3818 -0.2022  0.0751
45143W        W46007   6.990  19.151   3.078  0.2402  0.4553  0.2391
45144W        W46008   3.698  24.832   2.655 -0.1216 -0.2425  0.0903
45145W        W46009   5.637  24.923   0.189 -0.2754  0.0647 -0.0358
45146W        W46010   5.150  22.502   0.008  0.1008 -0.2450 -0.1890
45147W        W46011   4.566  23.315  27.712 -0.1643 -0.1629 -0.0871
45148W        W46012   7.214  21.681   1.753 -0.2886 -0.2786 -0.0717
45149W        W46013   7.335  24.947   2.030 -0.3518 -0.0075  0.2420
45150W        W46014   7.720  24.940   3.471 -0.0684 -0.0497 -0.2859
45151W        W46015   5.290  24.749   3.147 -0.0627 -0.1137 -0.1369
45152W        W46016   4.900  20.576   3.861  0.1574 -0.2807  0.1600
45153W        W46017   3.988  24.013   0.525  0.4958  0.1017  0.3641
45154W        W46018   2.717  22.975   1.748 -0.1823  0.0705  0.1562
45155W        W46019   5.181  24.783   2.673 -0.0608 -0.1494 -0.2595
45156W        W46020   5.893  23.270   4.462 -0.1949 -0.2512 -0.0368
45157W        W46021   2.674  22.380   1.949  0.0073 -0.1425  0.1623
45158W        W46022   6.424  23.349  28.072 -0.0553  0.1556 -0.1042
45159W        W46023   4.453  25.138   2.135 -0.1406 -0.2145 -0.0195
45160W        W46024   7.438  24.205   1.374  0.3717  0.0767 -0.0703
45161W        W46025   6.786  26.242  25.989  0.1417  0.1423 -0.1161
45162W        W46026   6.260  22.907   2.104 -0.1908 -0.0252  0.3351
45163W        W46027   7.347  20.687   1.405 -0.0620  0.2674 -0.1269
45164W        W46028   4.077  26.912   2.755  0.2087 -0.0742  0.0411
45165W        W46029   5.289  26.465   2.513 -0.0335  0.0273 -0.2150
45166W        W46030   4.523  27.509   0.781 -0.1466 -0.0935  0.1083
45167W        W46031   4.054  24.315   0.089  0.0551  0.1618 -0.1012
45168W        W46032   5.436  24.458   0.166  0.0344  0.3865 -0.0660
45169W        W46033   6.407  28.610  26.748 -0.1368  0.0356 -0.4507
45170W        W46034   5.158  24.431  28.816 -0.0140  0.1445  0.1848
45171W        W46035   3.123  23.020   0.654  0.1396  0.3033 -0.0744
45172W        W46036   7.585  23.472   0.541 -0.1111 -0.2094 -0.2738
45173W        W46037   4.339  26.731   3.569 -0.1674  0.1122 -0.0379
45174W        W46038   6.614  23.304   0.118  0.0268 -0.0219  0.0356
45175W        W46039   2.638  21.130  27.771 -0.1113 -0.0256 -0.0010
45176W        W46040   5.002  27.370   2.578 -0.0966 -0.1817 -0.0477
45177W        W46041   1.736  24.471   3.883 -0.3360  0.2845 -0.1516
45178W        W46042   1.818  21.928   1.817 -0.1649  0.0314  0.6405
45179W        W46043   3.190  25.686   1.904 -0.2540 -0.0571 -0.0553
45180W        W46044   3.336  22.461   3.232  0.0444 -0.1642  0.0419
45181W        W46045   4.249  21.243   3.588  0.0049  0.0433 -0.0530
45182W        W46046   4.135  22.049   2.206  0.1348 -0.4600  0.0459
45183W        W46047   3.018  23.642  26.633  0.0026  0.1348 -0.0844
45184W        W46048   3.651  21.100  28.299  0.1396  0.0420  0.2264
45185W        W46049   4.930  22.761   4.094 -0.0620  0.2209  0.1679
45186W        W46050   4.005  22.715  29.076  0.0550 -0.0041  0.0563
45187W        W46051   4.909  20.695   2.509  0.0524 -0.2334  0.0918
45188W        W46052   2.891  23.481   1.879 -0.3284  0.0987 -0.3529
45189W        W46053   6.491  21.349   3.433  0.1159 -0.1147  0.3151
45190W        W46054   6.554  26.001  28.779  0.2275  0.0090  0.4056
45191W        W46055   4.159  21.716   3.494  0.1141  0.3162  0.0273
45192W        W46056   3.685  22.995   2.825  0.1853  0.2523  0.1600
45193W        W46057   4.923  21.048   1.892  0.1056 -0.1909  0.0202
45194W        W46058   3.661  23.062   1.774 -0.2750  0.1082  0.3812
45195W        W46059   5.725  22.160   1.414 -0.3532 -0.4847 -0.4146
45196W        W46060   6.763  24.160  28.205  0.0317  0.2128  0.4150
45197W        W46061   3.397  25.815   1.407  0.0863 -0.0362  0.1033
45198W        W46062   4.788  24.799   4.900  0.0794  0.0135  0.1541
45199W        W46063   2.117  23.312   5.028  0.2482  0.0155  0.1908
45200W        W46064   4.442  24.311   2.166 -0.2104  0.1399 -0.0929
45201W        W46065  10.361  20.450   3.724 -0.2319  0.1368  0.2431
45202W        W46066   5.042  25.647   2.188 -0.1196 -0.5138 -0.2640
45203W        W46067   5.804  21.780  27.777  0.0846 -0.0313  0.1625
45204W        W46068   5.889  24.396   1.550  0.0637 -0.0681 -0.0091
45205W        W46069   6.282  26.437  28.326 -0.0778  0.0007  0.4924
45206W        W46070   3.917  21.263   2.192  0.0990  0.0654 -0.1572
45207W        W46071   3.685  22.994   3.757 -0.2149 -0.1796  0.4307
45208W        W46072   6.630  23.768   0.991  0.0259 -0.0340 -0.1475
45209W        W46073   7.396  23.775   2.823 -0.0594  0.3099 -0.5706
45210W        W46074   4.931  25.605   3.138 -0.0203  0.0565  0.0939
45211W        W46075   6.824  22.398   0.074  0.0978 -0.0827 -0.0224
45212W        W46076   7.881  26.085  28.154  0.3749  0.1410  0.1586
45213W        W46077   4.334  21.953   2.868 -0.4150 -0.2317  0.3210
45214W        W46078   7.242  24.313   3.810  0.0857 -0.2695 -0.4135
45215W        W46079   6.752  21.321   1.100  0.0174 -0.1149 -0.4062
45216W        W46080   7.169  27.879  28.269  0.1102 -0.0592 -0.0344
45217W        W46081   6.675  23.274   2.077  0.2522  0.1794  0.0560
45218W        W46082   4.692  23.140  29.023  0.2180 -0.1174  0.3787
45219W        W46083   6.346  23.238   3.477 -0.0094  0.3898 -0.0438
45220W        W46084   4.089  25.963  27.946 -0.0150  0.1331  0.2266
45221W        W46085   6.671  27.260  28.670  0.0801  0.0532 -0.2446
45222W        W46086   4.836  24.021   0.656 -0.2549  0.0446  0.0737
45223W        W46087   4.931  25.219   1.810  0.0367  0.3517  0.0104
45224W        W46088   6.679  23.284   0.974  0.0346 -0.2112  0.3956
45225W        W46089   4.398  20.050   2.592 -0.2671 -0.2738 -0.3466
45226W        W46090   5.814  26.945   1.273 -0.0557 -0.0574 -0.0421
45227W        W46091   7.123  27.461   1.302  0.1354  0.2412 -0.1649
45228W        W46092   5.954  25.304   0.226  0.1492 -0.0036  0.0353
45229W        W46093   2.832  25.091   4.095 -0.3165  0.0041 -0.0707
45230W        W46094   3.066  20.807  29.041  0.2216  0.3756 -0.0136
45231W        W46095   5.800  19.922   2.254  0.0130 -0.3228 -0.2347
45232W        W46096   6.016  21.052   1.334  0.2824 -0.0610 -0.1319
45233W        W46097   6.665  25.338  29.004  0.0781 -0.0979 -0.1240
45234W        W46098   7.548  23.959   2.368 -0.0895  0.0403  0.1963
45235W        W46099   3.939  24.153   0.999 -0.0598  0.2955  0.0351
45236W        W46100   8.059  25.170   3.764  0.0517  0.2300  0.1877
45237W        W46101   4.705  22.540   1.659  0.4211 -0.0587  0.0982
45238W        W46102   3.676  23.681  27.456 -0.3160  0.0332 -0.1044
45239W        W46103   4.066  25.596   0.934 -0.0807 -0.0984 -0.1580
45240W        W46104   5.873  25.046   4.388  0.0549 -0.0135  0.2857
45241W        W46105   5.294  25.498   3.477  0.1851  0.1414  0.4445
45242W        W46106   3.585  20.910  28.781 -0.2201  0.1614 -0.1334
45243W        W46107   8.013  23.494  26.475  0.2866 -0.0651  0.0973
45244W        W46108   6.734  23.054   1.508 -0.0568  0.0306 -0.0588
45245W        W46109   4.963  22.805  28.676  0.1042 -0.0686  0.0355
45246W        W46110   7.304  25.110   1.278 -0.0574  0.0618  0.1008
45247W        W46111   5.237  22.248   1.300  0.0711 -0.0994  0.1867
45248W        W46112   5.374  25.946  28.894 -0.0596  0.2526 -0.1586
45249W        W46113   2.544  21.611   5.319 -0.0152 -0.2547 -0.1077
45250W        W46114   5.204  24.095   1.463  0.2480  0.1668 -0.0300
45251W        W46115   6.585  23.867   4.871  0.1879 -0.2687  0.0670
45252W        W46116   4.681  24.793  28.806 -0.2399  0.2017 -0.0088
45253W        W46117   4.379  24.413   4.525 -0.0043  0.1418  0.0260
45254W        W46118   3.221  23.348   0.999 -0.2379 -0.3545  0.0301
45255W        W46119   7.802  24.438   3.177  0.4190  0.1301 -0.4622
45256W        W46120   4.025  21.201   1.700 -0.2677 -0.1730  0.0612
45257W        W46121   8.575  21.246   1.225  0.1857 -0.1323 -0.3373
45258W        W46122   4.417  24.358   0.478  0.1203 -0.2302  0.0033
45259W        W46123   5.900  24.497   2.061 -0.1524 -0.0249  0.0429
45260W        W46124   3.027  25.755  28.265 -0.3647  0.1144 -0.2110
45261W        W46125   6.721  23.565   3.547  0.0276  0.2753  0.2382
45262W        W46126   7.329  24.514   3.368  0.0062  0.1180  0.1051
45263W        W46127   6.806  22.889   2.410 -0.0079 -0.0248  0.4366
45264W        W46128   4.473  20.489   1.458 -0.1255  0.1749 -0.2177
45265W        W46129   5.819  21.588   2.159 -0.0359  0.0178  0.0657
45266W        W46130   4.160  21.495   0.366 -0.0392 -0.1592  0.2382
45267W        W46131   3.063  25.167   4.546 -0.3263  0.2551  0.3493
45268W        W46132   2.939  23.949   1.616 -0.3019  0.1534 -0.1585
45269W        W46133   4.781  22.712   2.643 -0.1122 -0.0296 -0.0617
45270W        W46134   6.086  21.141   2.398  0.2460  0.1673  0.0568
45271W        W46135   2.808  26.455   2.757  0.4092 -0.2779  0.1196
45272W        W46136   7.723  22.406   1.373 -0.1370  0.1447  0.0276
45273W        W46137   9.953  23.299   2.272  0.1713  0.0515 -0.4661
45274W        W46138   3.593  27.390   0.848 -0.2507  0.0264 -0.1797
45275W        W46139   4.110  21.636   2.587 -0.3896 -0.1520 -0.1070
45276W        W46140   6.747  22.057   3.119  0.2536 -0.0706 -0.0825
45277W        W46141   5.476  25.799  28.150  0.1367 -0.0505 -0.1506
45278W        W46142   2.420  24.132   1.620  0.4837 -0.2830  0.3692
45279W        W46143   3.850  22.463  28.022 -0.0001  0.0822  0.1478
45280W        W46144   7.698  21.464   1.899 -0.0489  0.1181  0.2189
45281W        W46145   5.100  22.386   2.908  0.4308  0.1714  0.0812
45282W        W46146   5.927  27.285   0.925  0.2779 -0.2049 -0.1661
45283W        W46147   6.911  24.616   2.191  0.1828  0.2159  0.1748
45284W        W46148   4.297  23.576   0.428 -0.0154  0.3286 -0.2947
45285W        W46149   3.106  23.884   2.096  0.0212 -0.0951  0.0461
45286W        W46150   5.730  24.106   0.829  0.0537  0.1723  0.3034
45287W        W46151   3.318  24.373   1.368 -0.0635  0.0868 -0.0099
45288W        W46152   7.647  25.492   1.362 -0.2046  0.3009 -0.1891
45289W        W46153   7.222  22.395   3.066  0.0175 -0.0091  0.0983
45290W        W46154   4.371  24.277   3.115 -0.0056  0.1867  0.2269
45291W        W46155   6.492  22.310   0.555 -0.1206  0.1701 -0.1055
45292W        W46156   6.723  23.659  27.132  0.1258  0.3381 -0.0053
45293W        W46157   6.667  25.530   4.278  0.1840 -0.0286  0.1134
45294W        W46158   3.945  25.098   7.863 -0.0435  0.0246  0.0655
45295W        W46159   6.357  22.537   2.516  0.2642 -0.0978 -0.2352
45296W        W46160   7.633  25.712   1.851 -0.1451 -0.0562 -0.1416
45297W        W46161   4.235  23.701   1.827  0.1635 -0.0394 -0.0221
45298W        W46162   4.348  21.737  28.175  0.1853 -0.1055  0.1413
45299W        W46163   4.529  22.058   1.799 -0.0757 -0.0660  0.0014
45300W        W46164   4.570  24.381   0.933 -0.0512  0.5819 -0.1171
45301W        W46165   6.501  24.282   2.352  0.1621 -0.0284  0.0903
45302W        W46166   5.344  26.564   4.011  0.0690 -0.2619 -0.0266
45303W        W46167   4.588  24.441   5.553  0.3326  0.2819 -0.0039
45304W        W46168   4.166  20.921  28.806 -0.1132  0.2755  0.1043
45305W        W46169   5.837  20.247   0.156  0.0412 -0.1857 -0.1827
45306W        W46170   7.280  26.018   5.133 -0.4349 -0.0508  0.0512
45307W        W46171   1.699  23.688  27.952  0.2349  0.0411 -0.1932
45308W        W46172   5.029  23.427   3.793 -0.2874 -0.0595 -0.1401
45309W        W46173   6.341  25.930  28.321 -0.0556  0.3031 -0.1714
45310W        W46174   3.395  23.114   4.164 -0.0118 -0.1109  0.1465
45311W        W46175   8.051  25.770   1.512  0.0395  0.0882 -0.0809
45312W        W46176   5.265  23.875   0.996 -0.3713 -0.0093 -0.0459
45313W        W46177   6.622  24.384   2.881  0.0179  0.0728 -0.0269
45314W        W46178   4.903  22.586  26.985 -0.0327 -0.0285  0.1866
45315W        W46179   4.060  23.053   1.099 -0.0208  0.1872  0.1637
45316W        W46180   7.034  21.026  28.436 -0.0166 -0.2212 -0.0774
45317W        W46181   3.653  22.109   1.890 -0.3992  0.1633  0.0402
45318W        W46182   3.462  23.829   3.652  0.1161 -0.1135  0.1696
45319W        W46183   5.203  23.031   0.076 -0.0691  0.0307  0.1615
45320W        W46184   7.246  24.416   1.865  0.3501  0.2010  0.3120
45321W        W46185   5.743  24.369   5.224  0.1543  0.0442  0.1865
45322W        W46186   7.453  23.719   1.430 -0.0461 -0.0361 -0.3781
45323W        W46187   4.546  25.502   0.899  0.0663 -0.2045 -0.1868
45324W        W46188   5.948  25.168   0.755 -0.3618 -0.2180 -0.0300
45325W        W46189   8.323  22.809  28.125  0.0541  0.1938 -0.2341
45326W        W46190   6.610  23.570   2.978 -0.1363 -0.1750  0.0708
45327W        W46191   5.737  21.377   1.624 -0.1969 -0.2998  0.2256
45328W        W46192   5.844  24.195   2.457  0.1238 -0.0946  0.0775
45329W        W46193   4.756  22.923   1.959 -0.0049 -0.3022  0.1363
45330W        W46194   4.347  23.267   1.974 -0.1697  0.2251 -0.0787
45331W        W46195   3.474  24.914   0.494  0.0375  0.0493  0.0191
45332W        W46196   5.258  25.437  27.857 -0.0412 -0.3933 -0.0780
45333W        W46197   5.384  25.744   1.280 -0.0088  0.0415  0.1094
45334W        W46198   2.821  21.227   0.103 -0.1841  0.1325  0.3081
45335W        W46199   4.174  22.339   1.663  0.2259 -0.4278 -0.1036
45336W        W46200   4.437  25.128   2.705 -0.1998 -0.2282  0.0157
45337W        W46201   3.074  22.905  27.820 -0.0824 -0.0684  0.1570
45338W        W46202   5.248  24.872   0.972 -0.3283  0.1314  0.0509
45339W        W46203   6.448  23.619   0.525 -0.1115  0.1396 -0.2068
45340W        W46204   7.822  25.056   2.029  0.2343  0.1711 -0.0678
45341W        W46205   6.642  24.364   4.175 -0.0124 -0.1019 -0.0488
45342W        W46206   3.300  25.349   0.309  0.3558  0.2878 -0.2249
45343W        W46207   7.793  22.191   0.407  0.2752  0.1126  0.4211
45344W        W46208   3.444  25.785   2.999 -0.2522 -0.3813 -0.1226
45345W        W46209   6.364  23.365   2.538 -0.1242 -0.1574 -0.0863
45346W        W46210   4.054  22.054   3.858  0.0249  0.0263  0.0851
45347W        W46211   0.617  25.265   0.325 -0.0770  0.0971  0.2120
45348W        W46212   4.277  22.381  28.806  0.1804  0.3982 -0.2827
45349W        W46213   4.507  26.190   4.209  0.0505  0.0873 -0.0907
45350W        W46214   3.869  24.392   1.384  0.0068 -0.1996 -0.0787
45351W        W46215   4.922  19.690   1.756 -0.4636  0.3862  0.2002
45352W        W46216   3.685  25.186   3.796  0.1889  0.1721 -0.1235
45353W        W46217   3.697  25.332   1.684  0.3180  0.1578  0.1705
45354W        W46218   6.795  25.274   0.774 -0.1907  0.0023 -0.2240
45355W        W46219   7.513  25.616   0.541  0.2969 -0.1119  0.2856
45356W        W46220   4.738  25.159   0.592 -0.1780 -0.3007 -0.2908
45357W        W46221   9.100  21.175   2.549 -0.0228 -0.0267 -0.1199
45358W        W46222   3.794  24.786   0.050  0.0085  0.1168 -0.0057
45359W        W46223   9.661  23.258   3.704 -0.1763  0.0497 -0.2767
45360W        W46224   6.594  26.134  27.929  0.0804  0.1864 -0.0799
45361W        W46225   7.127  25.473   4.029 -0.0555  0.3035 -0.0749
45362W        W46226   7.057  27.056   0.755 -0.2703  0.1544 -0.2002
45363W        W46227   6.997  22.330   3.544 -0.0660  0.2795  0.1818
45364W        W46228   3.905  24.545   0.554  0.0400  0.1744 -0.1143
45365W        W46229   8.575  23.183   3.308 -0.1161  0.0132 -0.5986
45366W        W46230   6.750  22.542   1.521  0.1699  0.1820 -0.0438
45367W        W46231   1.177  18.614   3.140  0.1503 -0.0607 -0.1114
45368W        W46232   3.605  22.287   1.446 -0.1829  0.1507 -0.0624
45369W        W46233   5.534  24.305  27.167  0.0297 -0.2140  0.2861
45370W        W46234   3.250  24.944   2.848 -0.0624 -0.4015 -0.4092
45371W        W46235   7.746  24.954   2.504  0.0568  0.2515 -0.1037
45372W        W46236   7.037  25.619   5.372 -0.0394  0.0311 -0.2792
45373W        W46237   3.102  21.369   1.856 -0.3649  0.1703  0.0836
45374W        W46238   7.139  28.283   1.660  0.0622 -0.6208 -0.2453
45375W        W46239   5.216  25.122   1.423  0.0392 -0.0544 -0.0788
45376W        W46240   5.157  26.572   2.016 -0.1497 -0.2353 -0.1997
45377W        W46241   7.228  25.013   2.484  0.0773 -0.2376  0.1232
45378W        W46242   5.490  24.420   1.272 -0.0319  0.2987 -0.1305
45379W        W46243   3.436  23.868   5.057 -0.0997 -0.0477 -0.1969
45380W        W46244   5.705  24.556   3.758  0.3036 -0.0592 -0.1943
45381W        W46245   5.772  27.541  28.724 -0.3049 -0.2555  0.1343
45382W        W46246   2.558  24.808   1.446  0.0718 -0.2845  0.1893
45383W        W46247   5.820  21.707   1.274  0.0132  0.4589 -0.0338
45384W        W46248   7.101  25.414   0.187 -0.0265 -0.1036 -0.0797
45385W        W46249   5.628  22.015   5.252 -0.1310 -0.2819  0.0294
45386W        W46250   6.192  26.556   1.594 -0.2031  0.0952  0.3301
45387W        W46251   2.697  24.895  28.551 -0.2936  0.1561 -0.0709
45388W        W46252   4.172  27.143   7.639 -0.1057  0.1743 -0.0969
45389W        W46253   5.006  23.121   5.473 -0.2684 -0.1671 -0.0625
45390W        W46254   6.943  22.694   3.869  0.1277 -0.0797 -0.2589
45391W        W46255   7.760  24.289   5.826  0.1078 -0.0956 -0.2855
45392W        W46256   4.507  24.950   1.597 -0.0537 -0.0572  0.1068
45393W        W46257   5.271  21.899   5.583  0.0321 -0.0896 -0.2519
45394W        W46258   6.797  22.064   4.484  0.0139  0.0442 -0.0197
45395W        W46259   6.551  22.654   5.182 -0.1377  0.0082 -0.0407
45396W        W46260   7.568  24.579   6.889  0.0187  0.1905 -0.0951
45397W        W46261   4.304  20.469   7.836 -0.0785 -0.2713  0.1716
45398W        W46262   6.854  24.092   4.483 -0.0894 -0.2078  0.1713
45399W        W46263   6.615  23.353   5.128  0.0674  0.2309  0.1751
45400W        W46264   6.231  21.676   3.090 -0.0140 -0.1629 -0.3618
45401W        W46265   6.725  25.240   5.985  0.1641  0.1126 -0.4271
45402W        W46266   3.522  23.025   6.741 -0.1728 -0.2372 -0.0116
45403W        W46267   5.010  24.605   9.805 -0.0261  0.0845  0.1895
45404W        W46268   3.387  24.618   4.496 -0.2591 -0.0146 -0.1670
45405W        W46269   4.326  21.224   8.421  0.0204  0.0677 -0.3144
45406W        W46270   4.631  22.621   6.723  0.0717  0.2128 -0.1081
45407W        W46271   7.863  24.056   6.330 -0.2512  0.1306  0.0041
45408W        W46272   4.470  24.979   7.868 -0.1113  0.2003  0.2263
45409W        W46273   5.017  21.830   3.651 -0.0614  0.0049 -0.0395
45410W        W46274   4.684  23.025   4.668 -0.0251  0.1755 -0.2278
45411W        W46275   5.012  25.755   6.926 -0.0738  0.0489 -0.2329
45412W        W46276   4.327  23.415   7.586 -0.4713 -0.1058 -0.0101
45413W        W46277   7.233  22.556   5.569  0.0556  0.1292 -0.1808
45414W        W46278   8.094  23.459   4.504  0.0812 -0.1898  0.0075
45415W        W46279   6.894  25.200   7.303  0.0132  0.0604  0.1667
45416W        W46280   7.232  24.858   7.318 -0.0823  0.0448  0.1169
45417W        W46281   2.962  23.181   7.038 -0.2626  0.3773 -0.0873
45418W        W46282   6.291  24.424   3.503 -0.0986 -0.0131  0.1831
45419W        W46283   4.825  24.574  11.342 -0.0800  0.2115 -0.1928
45420W        W46284   7.186  23.346   7.440  0.2439  0.0068  0.1863
45421W        W46285   6.477  22.724   6.485 -0.0833  0.0897  0.0717
45422W        W46286   2.104  21.440   7.114  0.1007 -0.3144 -0.3375
45423W        W46287   8.493  25.670   8.614 -0.1843 -0.0723 -0.1161
45424W        W46288   2.273  22.274   4.597 -0.2533 -0.0683  0.0881
45425W        W46289   6.482  23.173   7.286  0.0630 -0.0212 -0.1638
45426W        W46290   6.848  22.561   4.698 -0.0124  0.0545  0.2475
45427W        W46291   8.283  22.950   5.019 -0.3416 -0.2447 -0.5123
45428W        W46292   7.763  21.307   3.775  0.3014 -0.1906  0.3570
45429W        W46293   7.257  28.188   6.380  0.1345 -0.3491 -0.1584
45430W        W46294   5.730  23.256   8.117  0.1031  0.3268 -0.3631
45431W        W46295   3.747  25.696   2.625  0.0565  0.0873  0.0290
45432W        W46296   3.375  26.153   6.161  0.5308 -0.1993  0.1765
45433W        W46297   3.193  26.422   4.733  0.2309  0.1718  0.1333
45434W        W46298   4.892  23.397   3.329  0.1428  0.1505 -0.0610
45435W        W46299   6.983  24.375   6.195  0.4383  0.0685  0.0392
45436W        W46300   6.599  22.809   7.722  0.1229  0.0649  0.0979
45437W        W46301   6.413  23.963   4.373  0.2046 -0.1734  0.0946
45438W        W46302   6.310  24.788   7.667  0.0625  0.0733 -0.1637
45439W        W46303   3.740  23.396   4.527  0.1250  0.0271 -0.4247
45440W        W46304   7.573  23.597   7.019  0.2497 -0.3374  0.1445
45441W        W46305   7.093  24.660   6.657  0.0014  0.0737  0.3031
45442W        W46306   5.012  22.253   3.847 -0.2329 -0.1931 -0.2570
45443W        W46307   3.147  25.261   3.754 -0.2210  0.2607 -0.0896
45444W        W46308   3.527  26.495   5.757 -0.0857  0.1214  0.2715
45445W        W46309   6.673  22.154   4.957 -0.1575 -0.0837 -0.0320
45446W        W46310   3.637  25.470   7.575  0.0261 -0.1578  0.2257
45447W        W46311   2.469  24.824   4.881 -0.1679 -0.4037  0.1951
45448W        W46312   6.256  22.174   2.118 -0.1579  0.0731  0.2608
45449W        W46313   3.785  25.140   7.117  0.3236  0.2270  0.0149
45450W        W46314   4.229  23.680   9.129 -0.3892 -0.0011 -0.0616
45451W        W46315   4.163  21.572   3.953 -0.0514  0.0184  0.0215
45452W        W46316   5.682  23.077   2.978  0.1119  0.3009 -0.0875
45453W        W46317   6.243  23.437   5.860  0.0580 -0.1464 -0.1110
45454W        W46318   4.262  23.234   5.328 -0.2392 -0.2056 -0.0608
45455W        W46319   4.460  21.942   4.349 -0.1257  0.1418 -0.2019
45456W        W46320   5.157  24.215   6.632 -0.2486  0.0228 -0.2874
45457W        W46321   2.448  25.990   7.052  0.1855  0.1439  0.2323
45458W        W46322   5.014  25.675   5.661 -0.1250  0.1159 -0.1811
45459W        W46323   6.812  25.125   3.862 -0.0844 -0.0926  0.0372
45460W        W46324   7.406  25.379   5.131 -0.0616  0.1079  0.1754
45461W        W46325   7.411  25.128   8.675 -0.0715 -0.3372 -0.0929
45462W        W46326   6.541  24.419   4.670 -0.3895 -0.0862  0.0543
45463W        W46327   9.200  23.946   5.432  0.2011 -0.3209  0.0100
45464W        W46328   3.931  24.523   6.736  0.1573  0.2267  0.0772
45465W        W46329   7.723  21.955   4.904  0.1226 -0.1041 -0.1177
45466W        W46330   5.911  23.108   3.455  0.1253 -0.2359  0.1276
45467W        W46331   4.257  24.698   5.809 -0.1945 -0.1204 -0.1255
45468W        W46332   6.572  22.368   3.770  0.5276  0.1146  0.1870
45469W        W46333   4.874  21.854   5.267  0.1044  0.2757 -0.0280
45470W        W46334   5.652  21.227   3.769  0.1110 -0.0951  0.3188
45471W        W46335   8.227  19.928   5.185 -0.1903 -0.1743  0.2417
45472W        W46336   8.799  23.466  10.655 -0.0846  0.1837 -0.4015
45473W        W46337   5.322  22.621   3.671 -0.1401  0.0234 -0.0036
45474W        W46338   6.974  22.899   5.249  0.0794 -0.0167  0.0012
45475W        W46339   5.650  21.272   4.912 -0.0273  0.0644  0.1188
45476W        W46340  10.172  25.900   6.681 -0.4536  0.1933 -0.1727
45477W        W46341   9.223  20.856   6.825  0.0682  0.0637 -0.1884
45478W        W46342   7.977  23.209   5.319 -0.0370 -0.2025 -0.0403
45479W        W46343   4.322  25.153   8.824  0.6024 -0.1433  0.4308
45480W        W46344   2.636  23.818   8.224  0.1107  0.0239  0.0733
45481W        W46345   6.831  23.939   6.003  0.0267 -0.0881 -0.5905
45482W        W46346   4.113  23.860   7.761  0.1326  0.0068 -0.1757
45483W        W46347   3.733  22.093   3.469  0.0778  0.4136  0.0115
45484W        W46348   6.198  22.218   5.128  0.0780 -0.2321 -0.2846
45485W        W46349   5.859  22.372   7.789 -0.0427 -0.0988 -0.2135
45486W        W46350   4.616  23.981   4.582  0.1845  0.4771 -0.0427
45487W        W46351   8.749  22.844   5.772  0.3043 -0.0172 -0.1314
45488W        W46352   7.027  27.062   4.865 -0.2492  0.2800 -0.3307
45489W        W46353   6.264  23.766   5.294  0.1884  0.1404 -0.1431
45490W        W46354   7.164  22.575   2.529  0.1749  0.1210 -0.0032
45491W        W46355  10.239  26.492   6.559  0.0197  0.0748 -0.0288
45492W        W46356   6.108  19.722   8.926 -0.3134 -0.2613  0.2426
45493W        W46357   3.895  25.410   9.903 -0.2090 -0.2574 -0.3203
45494W        W46358   5.267  26.653   1.522  0.1855  0.0660  0.2560
45495W        W46359   5.757  23.371   7.626 -0.0545 -0.2820 -0.0260
45496W        W46360   6.866  21.378   2.094 -0.0913  0.0922 -0.1456
45497W        W46361   1.357  22.940   5.723  0.1044 -0.2154  0.1647
45498W        W46362   4.039  24.365   6.231  0.0783 -0.1932  0.2783
45499W        W46363   7.402  23.127   6.378 -0.0804  0.1549 -0.0994
45500W        W46364   7.869  25.593   6.049  0.0390  0.1905 -0.0583
45501W        W46365   6.327  26.855   5.741  0.0896  0.2112  0.1117
45502W        W46366   4.077  26.475   4.066  0.0876 -0.0379 -0.2295
45503W        W46367   5.663  23.963   3.629 -0.1228  0.0395  0.4855
45504W        W46368   8.354  23.713   5.358  0.2695 -0.1086 -0.1239
45505W        W46369   6.382  22.829   6.043  0.1834 -0.0188 -0.0223
45506W        W46370   3.408  22.643   4.185 -0.2559  0.0973 -0.0873
45507W        W46371   7.283  20.973   3.172  0.0163 -0.2052  0.1312
45508W        W46372   4.057  20.334   3.409 -0.0931 -0.0817 -0.1368
45509W        W46373   7.271  25.613   3.163 -0.1296 -0.1051 -0.0472
45510W        W46374   9.002  26.139   5.023 -0.0697 -0.1017 -0.0959
45511W        W46375   5.100  24.006   4.587  0.3068 -0.0743  0.2719
45512W        W46376   5.241  22.127   4.871 -0.1315  0.1660 -0.1046
45513W        W46377   6.419  23.460   4.068  0.0874 -0.3047 -0.1040
45514W        W46378   5.818  22.145   4.304  0.3425 -0.1466  0.0015
45515W        W46379   7.429  24.740   7.901 -0.0903  0.0681 -0.0136
45516W        W46380   7.590  24.971   5.575 -0.2979  0.2026  0.0222
45517W        W46381   5.283  23.655   5.362 -0.4520  0.2532 -0.4065
45518W        W46382   7.087  24.321   8.128 -0.0159 -0.1624 -0.0970
45519W        W46383   7.031  23.344   5.457  0.1004  0.0568 -0.1884
45520W        W46384   6.877  23.963   6.568 -0.1188 -0.0685 -0.0297
45521W        W46385   6.535  22.610   7.000 -0.3318 -0.0042  0.2208
45522W        W46386   8.136  21.746   5.018 -0.1742 -0.2569  0.0867
45523W        W46387   2.923  23.863   8.608 -0.0668 -0.2188  0.1340
45524W        W46388   5.847  19.334   5.858 -0.4274 -0.0552 -0.1615
45525W        W46389   9.102  23.906   4.868 -0.2139  0.3003 -0.4593
45526W        W46390   4.711  23.320   5.078 -0.2796 -0.1684  0.1063
45527W        W46391   3.764  24.283   2.904 -0.1333 -0.0362 -0.1442
45528W        W46392   4.111  23.394   2.588 -0.1088 -0.1003 -0.4474
45529W        W46393   8.312  22.667   6.591  0.0652 -0.0723  0.0039
45530W        W46394   4.229  21.463   3.029  0.0285 -0.2101 -0.0804
45531W        W46395   2.823  21.059   4.486  0.0988 -0.3424  0.1057
45532W        W46396   4.362  22.453  10.404  0.1463 -0.2010 -0.0683
45533W        W46397   6.694  22.133   5.457  0.0518 -0.0101  0.0901
45534W        W46398   9.736  20.691   4.421  0.2653 -0.1139  0.3282
45535W        W46399   6.859  25.750   5.875  0.3734 -0.2467 -0.2463
45536W        W46400   5.514  24.609   5.634  0.0259  0.0972 -0.0833
45537W        W46401   7.612  23.535   4.729 -0.2550 -0.1189 -0.0470
45538W        W46402   6.467  26.462   5.460  0.0861  0.3708 -0.1496
45539W        W46403   2.823  20.657   5.544  0.3417  0.0443  0.1195
45540W        W46404   6.038  24.579   5.721 -0.3819 -0.1177  0.1124
45541W        W46405   3.738  21.735   2.197 -0.1484  0.1811 -0.4237
45542W        W46406   8.043  25.258   5.675  0.0197  0.1685  0.0789
45543W        W46407   4.903  23.251   7.332  0.0245  0.0883  0.0181
45544W        W46408   4.430  23.064   7.940 -0.0315 -0.1987 -0.3952
45545W        W46409   3.056  21.527   3.350  0.2789 -0.1006 -0.0314
45546W        W46410   4.915  22.963   3.574 -0.0471 -0.0586 -0.1773
45547W        W46411   5.065  21.279   3.496  0.2482  0.1180  0.0783
45548W        W46412   6.335  22.170   3.370  0.2719 -0.0799 -0.0379
45549W        W46413   4.696  25.357  10.484 -0.0996 -0.2468  0.1032
45550W        W46414   6.258  23.527   6.757 -0.1748 -0.1030 -0.0023
45551W        W46415   9.923  24.761   6.543 -0.2137 -0.0133  0.0310
45552W        W46416   3.776  21.959   8.656  0.0024  0.1185  0.1040
45553W        W46417   6.536  23.114   5.585  0.0217 -0.0627 -0.0939
45554W        W46418   6.683  23.664   8.377 -0.1281  0.2632  0.0312
45555W        W46419   4.018  24.475   5.443 -0.0456 -0.0832 -0.0600
45556W        W46420   5.343  24.566   7.836  0.2493  0.3612 -0.0054
45557W        W46421   3.483  25.226   4.265 -0.0641  0.3661 -0.0500
45558W        W46422   7.963  23.759   6.755 -0.2034  0.3770  0.1064
45559W        W46423   5.043  21.810   6.593  0.3046  0.1028  0.1390
45560W        W46424   4.460  23.973   5.396 -0.1877 -0.2424  0.1889
45561W        W46425   4.744  24.763   1.993  0.1117  0.1126  0.1657
45562W        W46426   8.134  21.249   4.985  0.2104 -0.0537 -0.0661
45563W        W46427   6.720  20.427   4.466 -0.2008  0.2018  0.3094
45564W        W46428   3.977  24.284   8.542 -0.1358  0.2460  0.0627
45565W        W46429   2.604  26.512   7.332 -0.0076 -0.1875 -0.0253
45566W        W46430   2.677  24.074   3.973 -0.0270  0.1834 -0.0757
45567W        W46431   8.245  23.960   4.497 -0.0363 -0.0505 -0.1146
45568W        W46432   6.683  23.608   5.686 -0.0230  0.1383  0.0405
45569W        W46433   7.850  24.830   4.661  0.2526  0.1500  0.3599
45570W        W46434   3.626  22.602   1.908  0.1565 -0.1732 -0.1624
45571W        W46435   5.274  22.870   5.046  0.1531 -0.1659 -0.1193
45572W        W46436   6.618  23.015   2.866 -0.0415  0.2446 -0.0495
45573W        W46437   4.646  19.964   5.090 -0.0917 -0.0770  0.2318
45574W        W46438   7.820  23.068   0.740 -0.1661 -0.1182  0.0025
45575W        W46439   4.433  21.575   5.186 -0.3286  0.1975  0.2848
45576W        W46440   6.703  22.140   9.298  0.1192 -0.0709 -0.0620
45577W        W46441   5.073  24.739   3.807 -0.2335  0.1634 -0.0913
45578W        W46442   5.291  22.179   3.409 -0.2256  0.3106  0.1045
45579W        W46443   5.265  23.495   4.321 -0.0063  0.3653 -0.2865
45580W        W46444   3.906  21.553   5.160 -0.3294  0.2557 -0.0457
45581W        W46445   7.535  20.289   6.387 -0.1393 -0.0641  0.1571
45582W        W46446   5.451  22.564   4.708  0.1239  0.2640  0.1769
45583W        W46447   9.086  22.460   3.721 -0.2527  0.1331 -0.0729
45584W        W46448   4.320  22.108   3.304  0.0510  0.3339  0.0375
45585W        W46449   3.128  21.643   7.879  0.2124 -0.0857 -0.1248
45586W        W46450   2.835  23.154   4.391 -0.0029 -0.0453  0.0955
45587W        W46451   7.966  22.059   5.407  0.1359  0.3128  0.2571
45588W        W46452   6.328  22.516   4.668  0.4644  0.0578 -0.2365
45589W        W46453   7.151  19.829   6.186  0.0163  0.1220  0.1455
45590W        W46454   4.829  21.999   3.122  0.0668  0.1152  0.0195
45591W        W46455   7.044  23.699   5.053 -0.0197  0.2165 -0.2715
45592W        W46456   3.212  22.299  10.027  0.0149  0.0682 -0.1953
45593W        W46457   4.412  22.455   4.107  0.0917  0.1097  0.1777
45594W        W46458   4.987  23.819   9.783 -0.0863  0.0732 -0.0122
45595W        W46459   5.394  21.552   5.287  0.0980  0.1250 -0.3476
45596W        W46460   4.421  24.985   4.466 -0.1290 -0.0610  0.1987
45597W        W46461   4.106  22.953   3.045 -0.0662  0.1033  0.1367
45598W        W46462   3.917  25.640   7.090 -0.1688 -0.3129 -0.1267
45599W        W46463   4.941  23.333   6.445 -0.2017  0.1163 -0.1643
45600W        W46464   5.668  23.851   5.936  0.0455 -0.1650  0.1296
45601W        W46465   7.495  23.108   7.736 -0.0601 -0.0964  0.1404
45602W        W46466   9.055  24.934   5.700  0.0707  0.1579 -0.1044
45603W        W46467   7.791  21.723   3.388 -0.1642  0.0356 -0.2724
45604W        W46468   5.349  23.202   3.318 -0.2057  0.1281  0.2009
45605W        W46469   5.681  24.559   4.396 -0.0034 -0.2916 -0.0020
45606W        W46470   7.741  18.152   5.250  0.1777  0.3401 -0.1943
45607W        W46471   4.898  25.012   8.786  0.0070 -0.1865 -0.1629
45608W        W46472   7.770  21.377   7.678  0.1177 -0.0058  0.3411
45609W        W46473   8.821  24.010   2.926  0.0877 -0.0774 -0.0554
45610W        W46474   7.148  23.865   8.264  0.1475 -0.1713  0.0796
45611W        W46475   4.186  21.669   4.680  0.0775 -0.1188 -0.2670
45612W        W46476   8.184  24.613   0.878  0.2767 -0.1624  0.2890
45613W        W46477   3.632  21.384   9.449  0.2385  0.0531  0.0045
45614W        W46478   6.105  22.599   6.827  0.0374 -0.0968 -0.1464
45615W        W46479  10.358  23.226   4.721  0.1856  0.3773  0.2916
45616W        W46480   6.064  22.162   3.820  0.0610 -0.0309  0.2346
45617W        W46481   7.698  26.263   4.869  0.0125 -0.4540 -0.0660
45618W        W46482   5.501  23.330   8.668 -0.2683 -0.0276  0.2684
45619W        W46483   4.285  21.718   8.345 -0.1859  0.1471 -0.0775
45620W        W46484   5.934  23.469   4.956 -0.1789  0.0882 -0.0716
45621W        W46485   5.552  23.785   2.356 -0.2554 -0.1261  0.2162
45622W        W46486   7.607  21.905   8.475  0.1854  0.2069  0.0907
45623W        W46487   5.600  23.502   3.919  0.3744  0.1172 -0.1296
45624W        W46488   7.021  22.957   5.754 -0.0746 -0.0178 -0.1254
45625W        W46489   5.881  22.779   4.461  0.1513  0.2065  0.1233
45626W        W46490   7.260  23.890   4.642  0.0875  0.2465  0.1959
45627W        W46491   5.994  24.519   6.631 -0.0287 -0.1252  0.1221
45628W        W46492   4.674  26.801   1.243 -0.2251 -0.1434  0.0827
45629W        W46493   5.425  23.398   5.842 -0.1819  0.0555  0.1668
45630W        W46494   4.695  20.910   4.623  0.1640 -0.1705  0.0492
45631W        W46495   6.537  22.285   6.137  0.0830  0.3262  0.0161
45632W        W46496   5.969  22.974   7.184  0.0791  0.4161  0.0825
45633W        W46497   4.351  23.643   1.310 -0.0679 -0.0109  0.2833
45634W        W46498   7.506  24.031   3.422  0.2850 -0.0642  0.0791
45635W        W46499   4.946  24.443   8.157 -0.0290  0.1817 -0.0196
45636W        W46500   5.930  25.102   6.628 -0.0252 -0.0839 -0.0753
45637W        W46501   5.366  22.526   4.167 -0.0424  0.2548  0.5118
45638W        W46502   4.520  24.242   7.949 -0.1722  0.0898  0.2605
45639W        W46503   6.352  23.773   8.831 -0.1349 -0.2073 -0.1454
45640W        W46504   9.016  26.657   6.412  0.0243  0.1891  0.1212
45641W        W46505   9.468  24.300   4.974 -0.2109  0.3261  0.0368
45642W        W46506   5.446  24.394   1.916  0.1261  0.0942  0.3622
45643W        W46507   5.781  25.215   4.913  0.0321  0.1021 -0.4044
45644W        W46508   6.197  23.911   2.644  0.0291  0.3469  0.1058
45645W        W46509   4.357  20.605   7.380 -0.3066  0.2305  0.4626
45646W        W46510   8.127  26.532   4.016 -0.1980  0.1905  0.0798
45647W        W46511   6.079  22.990   2.617 -0.0843 -0.0275 -0.0406
45648W        W46512   5.501  24.569   6.796 -0.0693 -0.0095  0.0495
45649W        W46513   5.052  21.909   7.135 -0.0000  0.0190 -0.3522
45650W        W46514   5.618  24.229   4.713  0.3231 -0.0896  0.1607
45651W        W46515   3.186  26.038   9.971  0.0335 -0.0933 -0.0250
45652W        W46516   7.055  21.841   5.582 -0.0853  0.0842 -0.1272
45653W        W46517   3.936  23.062   7.042 -0.0839  0.1370  0.2481
45654W        W46518   5.655  24.063   4.127  0.0741 -0.0481  0.3726
45655W        W46519   5.889  26.098   3.339 -0.1324 -0.0968  0.2868
45656W        W46520   5.998  24.648   8.466 -0.0929  0.0110  0.1263
45657W        W46521   4.066  21.880   1.735  0.1303  0.1868 -0.0636
45658W        W46522   4.878  25.189   2.924  0.1969 -0.0846 -0.4079
45659W        W46523   6.803  25.578   6.347 -0.2184  0.1026  0.2642
45660W        W46524   8.190  22.162   8.492  0.3006  0.0250  0.2572
45661W        W46525   3.055  24.801   7.165 -0.2036 -0.0465 -0.2080
45662W        W46526   8.812  25.660   6.321 -0.0108 -0.0245 -0.0296
45663W        W46527   5.342  22.374   6.466 -0.0357 -0.0112  0.2569
45664W        W46528   4.190  23.905   6.874  0.4186  0.0943 -0.1028
45665W        W46529   4.549  22.531   7.833 -0.2027  0.3641 -0.1863
45666W        W46530   4.761  23.201   4.176 -0.1899 -0.0056 -0.0975
45667W        W46531   2.062  25.427   6.192 -0.2670  0.2481  0.0764
45668W        W46532   8.181  22.127   6.479 -0.2085 -0.1916 -0.2296
45669W        W46533   5.464  21.087   3.290  0.3655  0.0424  0.0398
45670W        W46534   2.878  22.536   6.216  0.1059  0.0541 -0.0374
45671W        W46535   4.317  27.684   7.499  0.3196 -0.0355 -0.0176
45672W        W46536   7.517  23.944   1.858  0.2150  0.1971  0.2327
45673W        W46537   6.180  23.918   7.563 -0.1102 -0.0326  0.0592
45674W        W46538   4.795  27.548   6.186  0.0667 -0.0774 -0.2999
45675W        W46539   2.099  24.729   7.253  0.3263  0.0095  0.1921
45676W        W46540   7.256  21.959   3.278 -0.0430  0.3508 -0.1505
45677W        W46541   5.989  24.560   4.861  0.2069  0.1330  0.2406
45678W        W46542   7.202  23.247   4.953  0.2127  0.0303  0.3683
45679W        W46543   7.327  21.574   5.218 -0.1953 -0.1065 -0.0788
45680W        W46544   8.192  20.060   5.713 -0.0407  0.0731 -0.1124
45681W        W46545   6.408  22.931   4.335  0.1633 -0.2147 -0.1355
45682W        W46546   6.411  26.048   5.738 -0.1295 -0.0081 -0.1094
45683W        W46547   7.513  21.057   2.721  0.2863  0.1217 -0.3057
45684W        W46548   4.309  21.219   4.857  0.1752  0.0243  0.3037
45685W        W46549   7.797  24.706   6.102 -0.2131  0.0812  0.2694
45686W        W46550   7.775  23.204   4.222  0.0693 -0.0532  0.1206
45687W        W46551   2.570  26.003   5.492  0.0407  0.0769 -0.1387
45688W        W46552   4.489  21.391   6.077 -0.1831 -0.3180  0.1397
45689W        W46553   2.973  24.991   8.289  0.0389  0.0425  0.1729
45690W        W46554   4.962  24.965   7.939 -0.3081 -0.0976  0.0950
45691W        W46555   7.830  22.982   4.707 -0.1808 -0.2835  0.0788
45692W        W46556   6.320  23.540   4.582 -0.2587  0.1585  0.1037
45693W        W46557   6.754  23.558   6.850 -0.1663 -0.1730 -0.1434
45694W        W46558   7.754  23.330   6.634 -0.1600 -0.2141 -0.0046
45695W        W46559   6.338  21.685   5.368 -0.1643  0.3450 -0.0690
45696W        W46560   9.718  22.715   7.656 -0.0978 -0.0677 -0.4166
45697W        W46561   3.718  23.063   6.293  0.1759  0.0332  0.1180
45698W        W46562   6.619  21.774   5.893  0.0136  0.0925 -0.3310
45699W        W46563   4.551  22.573   9.955 -0.3171  0.0107 -0.2232
45700W        W46564   4.252  23.803   2.836 -0.3086  0.2895  0.0365
45701W        W46565   4.806  23.374   7.784 -0.1210  0.1955 -0.2653
45702W        W46566   4.881  25.856   8.152  0.4189 -0.0511  0.1143
45703W        W46567   4.819  22.671   5.736 -0.1213 -0.0775  0.2486
45704W        W46568   4.853  23.558   2.799  0.0088  0.3091  0.0706
45705W        W46569   5.646  24.730   2.510  0.1369 -0.0578  0.0121
45706W        W46570   5.410  22.604   7.869 -0.1636 -0.0635 -0.3185
45707W        W46571   7.331  24.687   5.945 -0.2977 -0.1666  0.1143
45708W        W46572   2.941  26.971   8.251  0.0562  0.0832  0.2662
45709W        W46573   7.035  26.363   3.524  0.0966  0.0594  0.4952
45710W        W46574   6.302  22.819   8.440 -0.0184  0.3080  0.3554
45711W        W46575   7.559  22.906   3.076  0.0819  0.2893  0.3828
45712W        W46576   4.384  23.660   4.945 -0.2176 -0.0528  0.1529
45713W        W46577   7.180  23.599   6.433 -0.0473  0.0274  0.0411
45714W        W46578   2.798  21.074   3.426  0.1486 -0.2619 -0.2876
45715W        W46579   5.301  25.179   4.770  0.6132  0.0083 -0.0120
45716W        W46580   4.957  25.060   3.415 -0.2190 -0.1274  0.3802
45717W        W46581   3.761  22.830   4.473  0.1592 -0.1149 -0.1557
45718W        W46582   4.655  20.927   6.112 -0.1696  0.0636  0.3918
45719W        W46583   6.944  19.876   4.142 -0.2250  0.0870 -0.3172
45720W        W46584   8.271  24.710   7.007  0.3505  0.1561  0.0922
45721W        W46585   4.774  24.135  10.691 -0.0291 -0.0302  0.0421
45722W        W46586   8.440  23.772   4.079 -0.4736 -0.1241  0.0148
45723W        W46587   3.988  27.203   5.772 -0.1568  0.0654 -0.0746
45724W        W46588   3.108  25.558   4.201  0.2336 -0.1553  0.1056
45725W        W46589   5.845  25.429   6.232  0.0437  0.1551  0.0354
45726W        W46590   4.651  20.680   2.928  0.1605 -0.0902  0.1619
45727W        W46591   7.901  21.007   4.516 -0.2336  0.2401 -0.1481
45728W        W46592   5.427  24.943   4.118  0.1198 -0.1017  0.0282
45729W        W46593   7.315  20.914   5.997  0.0343 -0.0951  0.2745
45730W        W46594   5.274  19.417   5.495 -0.3188  0.1157 -0.0024
45731W        W46595   4.858  25.081   2.350  0.2521  0.0936 -0.1693
45732W        W46596   4.381  23.416   4.440  0.1997 -0.0851 -0.3674
45733W        W46597   6.930  22.931   4.311  0.3211  0.1025 -0.1432
45734W        W46598   5.927  24.866   5.283  0.1704 -0.0179  0.1864
45735W        W46599   7.112  23.917   7.020 -0.0110  0.0765  0.0547
45736W        W46600   5.007  23.665   2.345  0.2816  0.1887 -0.0288
45737W        W46601   3.487  21.650   5.568  0.1050  0.1336  0.2745
45738W        W46602   8.152  23.581   6.235  0.2945  0.1489 -0.0158
45739W        W46603   5.701  22.020   0.785 -0.2775  0.0197 -0.0564
45740W        W46604   8.934  21.189   4.127 -0.2310  0.0134 -0.0942
45741W        W46605   6.089  23.123   5.341  0.4004 -0.2512  0.0437
45742W        W46606   6.270  24.750   6.138  0.3454  0.2023  0.2070
45743W        W46607   6.143  18.875   2.931 -0.0957 -0.0445  0.1372
45744W        W46608   3.863  23.995   6.490 -0.3091 -0.2743  0.1441
45745W        W46609   6.643  21.108   7.298  0.3631 -0.1582  0.1109
45746W        W46610   6.361  22.733   9.788  0.1712 -0.0565 -0.0785
45747W        W46611   3.138  24.647   3.250  0.0631  0.0697  0.2936
45748W        W46612   1.533  20.939   6.611 -0.0757 -0.2549 -0.1707
45749W        W46613   6.676  24.393   9.518  0.0408  0.0476  0.0237
45750W        W46614   6.148  22.601   4.079  0.1960 -0.2544 -0.1375
45751W        W46615   6.281  20.761   3.163 -0.4671  0.0476 -0.2387
45752W        W46616   6.136  23.058   9.427 -0.2136 -0.2646  0.2035
45753W        W46617   7.807  25.516   7.571  0.0527  0.0747  0.0163
45754W        W46618   6.641  24.871   4.370  0.2006  0.2653 -0.0040
45755W        W46619   7.465  22.897   5.183 -0.0015 -0.2192  0.0909
45756W        W46620   4.168  20.482   0.443 -0.0189 -0.0518 -0.1677
45757W        W46621   6.867  20.298   4.979 -0.2543  0.0504 -0.1523
45758W        W46622   6.316  25.575   5.958  0.1300  0.1815  0.1417
45759W        W46623   5.849  22.800   6.366 -0.2126 -0.0811  0.0385
45760W        W46624   5.811  23.410   6.200 -0.0725 -0.0001  0.0296
45761W        W46625   6.628  22.622   5.649  0.2107  0.1702  0.3045
45762W        W46626   4.211  23.134   4.806 -0.1882 -0.2068  0.0473
45763W        W46627   5.607  22.510   6.000 -0.1584 -0.0189  0.2628
45764W        W46628   5.343  23.650   6.271 -0.3724  0.0267 -0.2842
45765W        W46629   6.721  24.139   5.537  0.0759  0.0467 -0.1691
45766W        W46630   7.188  23.477   5.902 -0.1214 -0.2346 -0.0782
45767W        W46631   3.642  23.506   8.386 -0.0157 -0.2818  0.0437
45768W        W46632   7.848  24.324   7.727  0.0234  0.1988  0.3712
45769W        W46633   4.534  25.780   6.728 -0.0938 -0.1425 -0.1326
45770W        W46634   6.008  23.517   7.199 -0.2230  0.1920 -0.0543
45771W        W46635   5.371  23.501   4.863 -0.0250  0.0659 -0.3578
45772W        W46636   6.444  23.098   6.806  0.0728  0.2670 -0.0380
45773W        W46637   7.380  21.927   6.065  0.0246 -0.0858 -0.1057
45774W        W46638   4.540  25.281   6.491  0.0727  0.1546  0.1809
45775W        W46639   4.502  22.834   7.154 -0.0674 -0.2691 -0.0367
45776W        W46640   5.512  26.741   8.164  0.0117 -0.1911 -0.1372
45777W        W46641   8.000  25.811   8.433  0.1274 -0.1940 -0.4915
45778W        W46642   6.321  24.020   6.532  0.2198  0.1087  0.0318
45779W        W46643   3.541  25.112   4.746 -0.0484  0.0194 -0.5556
45780W        W46644   4.042  25.857   4.368  0.0823 -0.2026  0.0973
45781W        W46645   7.588  24.929   6.467 -0.2901  0.0502 -0.1081
45782W        W46646   3.585  25.487   8.666  0.0795  0.1721 -0.2174
45783W        W46647   6.946  20.337   5.488 -0.0351 -0.0173 -0.1136
45784W        W46648   5.268  24.455   4.152  0.0932 -0.3779  0.1099
45785W        W46649   5.391  23.464   9.773  0.0575  0.2325  0.0852
45786W        W46650   5.404  24.113   5.544 -0.0914 -0.0809 -0.0613
45787W        W46651   6.696  21.703   4.110  0.2177 -0.2085  0.2120
45788W        W46652   4.619  24.550  12.029  0.1200 -0.3494  0.0736
45789W        W46653   4.532  24.088  11.546  0.1331  0.0442 -0.2755
45790W        W46654   5.702  25.230   8.137 -0.0060 -0.0853  0.0285
45791W        W46655   6.743  23.016  11.271 -0.1972  0.0352  0.2784
45792W        W46656   7.004  24.460   9.126 -0.1028  0.1943 -0.1335
45793W        W46657   7.449  24.292   8.502  0.0953 -0.0908 -0.2280
45794W        W46658   5.573  22.757   6.828 -0.0897  0.1359  0.0078
45795W        W46659   5.089  24.835   8.404  0.1462  0.1764 -0.1953
45796W        W46660   4.315  25.448  12.439  0.0371  0.0973  0.0008
45797W        W46661   2.275  22.540   9.434 -0.1819  0.0977  0.2308
45798W        W46662   3.922  22.518  10.080 -0.3708  0.0116 -0.0457
45799W        W46663   6.483  20.560   7.272  0.0460 -0.2050 -0.2712
45800W        W46664   8.464  24.960  10.448 -0.1409  0.0380  0.0664
45801W        W46665   6.695  24.018  10.947  0.2310  0.0613  0.1833
45802W        W46666   4.549  21.833   9.344 -0.4970 -0.3348  0.0850
45803W        W46667   6.099  23.795  12.281  0.3121  0.0826 -0.0295
45804W        W46668   3.380  25.349   9.191 -0.0660  0.4037  0.1500
45805W        W46669   2.374  21.348   8.110 -0.2361  0.1287 -0.0738
45806W        W46670   3.557  24.420  11.953 -0.0696  0.0266 -0.0817
45807W        W46671   7.557  25.220  10.611  0.0847 -0.1214 -0.3068
45808W        W46672   7.747  23.438  11.449 -0.2537 -0.1207 -0.0011
45809W        W46673   8.456  24.169   8.541  0.0182  0.0478 -0.1696
45810W        W46674   6.728  22.365  11.063  0.3613 -0.2305 -0.3734
45811W        W46675   3.683  21.528   9.888 -0.0845 -0.4374 -0.0006
45812W        W46676   3.751  25.152  10.889 -0.1891 -0.2491  0.0324
45813W        W46677   6.290  24.508  10.443 -0.1212 -0.3068 -0.2905
45814W        W46678   6.955  22.870  11.846 -0.0432 -0.0642 -0.1478
45815W        W46679   5.648  22.655   8.780  0.3727  0.2282  0.0067
45816W        W46680   5.695  22.394  12.545  0.0364 -0.0308 -0.3430
45817W        W46681   4.592  23.623   8.719 -0.0682 -0.2447 -0.1274
45818W        W46682   5.093  22.025   9.238  0.1990  0.0838  0.0934
45819W        W46683   5.151  20.871  10.927  0.0085 -0.0124  0.2672
45820W        W46684   3.848  21.431  10.723  0.1919  0.1590  0.0081
45821W        W46685   7.060  22.779   9.840  0.4339 -0.1614  0.0521
45822W        W46686   4.885  25.101   9.650  0.0713  0.1414 -0.0143
45823W        W46687   7.175  24.599  12.682 -0.2014  0.2128 -0.1538
45824W        W46688   2.936  22.494  10.712  0.1589  0.2502 -0.0375
45825W        W46689   4.793  25.926   8.646  0.0994 -0.1166 -0.0111
45826W        W46690   7.703  23.497   8.782  0.1538 -0.1993 -0.2354
45827W        W46691   7.248  23.808   7.719 -0.1631 -0.0981  0.1017
45828W        W46692   9.283  22.711   6.388 -0.0823 -0.3213 -0.2319
45829W        W46693   6.899  23.684  10.436  0.1232 -0.1205  0.1876
45830W        W46694   5.183  25.297   9.323 -0.4892  0.0885  0.0011
45831W        W46695   5.299  23.195   7.798 -0.0220  0.1401  0.3527
45832W        W46696   4.924  26.754   9.654  0.0333  0.0410 -0.0195
45833W        W46697   4.610  25.475   9.939  0.2729 -0.0152 -0.0938
45834W        W46698   4.700  22.654  11.113 -0.4226  0.1423  0.0854
45835W        W46699   4.349  23.871  10.427 -0.0013 -0.1028 -0.0385
45836W        W46700   6.328  23.679   9.321 -0.2727 -0.3497  0.3743
45837W        W46701   6.888  22.960   7.148 -0.0791 -0.1280 -0.2410
45838W        W46702   5.864  23.429  10.888  0.4131  0.0014 -0.0231
45839W        W46703   4.771  21.909   4.773 -0.2216 -0.2849  0.0625
45840W        W46704   4.967  27.843  12.380 -0.1753  0.1887  0.2420
45841W        W46705   6.748  23.921   9.124 -0.1515  0.0736  0.0883
45842W        W46706   5.613  23.251  10.325  0.1163 -0.4543 -0.2112
45843W        W46707   5.099  24.556   8.896  0.2516 -0.0852 -0.0070
45844W        W46708   1.890  24.978  10.048  0.2879 -0.3785 -0.0262
45845W        W46709   7.656  22.531   8.531  0.2562  0.2180 -0.1658
45846W        W46710   4.514   0.108   8.118 -0.0881  0.2089 -0.0376
45847W        W46711   7.104  24.824   8.257  0.0336  0.0574  0.1514
45848W        W46712   6.775  23.647   7.395 -0.1313 -0.3782  0.2059
45849W        W46713   5.314  25.802   9.302  0.1814  0.1887  0.1753
45850W        W46714   4.274  25.265  10.736  0.1768 -0.0024 -0.0759
45851W        W46715   3.665  24.130   7.029 -0.3542 -0.2035 -0.1492
45852W        W46716   4.197  22.031  10.157 -0.1391 -0.1006 -0.2028
45853W        W46717  11.105  20.399   6.988 -0.0507 -0.0887  0.0860
45854W        W46718   3.125  23.052   8.744 -0.3840  0.0330  0.1465
45855W        W46719   4.028  23.862   8.276 -0.1955 -0.2284  0.0311
45856W        W46720   2.146  27.436   9.728  0.1200  0.2552 -0.0228
45857W        W46721   5.846  24.680  11.148  0.0277 -0.2204  0.0324
45858W        W46722   6.705  23.459  10.864  0.1158  0.0255  0.0373
45859W        W46723   6.221  24.610   9.531 -0.2326  0.0949  0.1699
45860W        W46724   5.997  23.734  11.564 -0.0784 -0.0808 -0.0130
45861W        W46725   5.701  23.764  10.589 -0.0753 -0.0193 -0.1699
45862W        W46726   4.742  25.066   7.368 -0.2119 -0.2324 -0.0103
45863W        W46727   6.478  25.262  13.041 -0.1043 -0.0097 -0.0522
45864W        W46728   4.846  23.714  11.590 -0.1075 -0.3231  0.1719
45865W        W46729   6.561  23.582  10.096  0.0268 -0.3700  0.1589
45866W        W46730   6.732  25.601   9.606 -0.1132  0.0317  0.2692
45867W        W46731   5.154  24.169   7.345  0.0865  0.0050  0.0264
45868W        W46732   6.031  23.051  12.252  0.1352  0.0662  0.1359
45869W        W46733   5.518  23.239  12.169  0.1770  0.1401  0.0821
45870W        W46734   4.082  21.499   7.773 -0.0086 -0.1710 -0.1966
45871W        W46735   5.737  22.771   9.585 -0.1737  0.0905  0.0062
45872W        W46736   3.632  20.045   9.807 -0.3383  0.1917 -0.0076
45873W        W46737   4.534  21.708   8.836 -0.2070 -0.2750 -0.0795
45874W        W46738   7.094  24.875  12.251  0.1540  0.0779  0.1981
45875W        W46739   5.730  19.725   9.303 -0.2627 -0.0636 -0.1285
45876W        W46740   6.903  22.931  10.808 -0.1580 -0.3522 -0.3374
45877W        W46741   6.226  21.329   9.723  0.1323 -0.2615  0.1932
45878W        W46742   6.488  20.464   7.758 -0.2928 -0.2863 -0.0071
45879W        W46743   7.275  22.647  12.778  0.1366 -0.1829  0.3457
45880W        W46744   5.599  22.996  10.938 -0.0402 -0.0133  0.2651
45881W        W46745   6.603  23.225   9.767  0.0640 -0.1158 -0.1861
45882W        W46746   3.625  19.645  12.015 -0.0810 -0.0444  0.1357
45883W        W46747   7.284  23.295   8.748 -0.2647 -0.0359 -0.2189
45884W        W46748   7.331  20.465   6.768 -0.1669 -0.2315 -0.0648
45885W        W46749   5.759  24.617  11.692 -0.3649 -0.0971 -0.0565
45886W        W46750   5.774  23.768   7.920 -0.0175  0.0094  0.0107
45887W        W46751   6.040  21.890  10.672  0.3851 -0.2442  0.0606
45888W        W46752   8.214  25.970   6.034 -0.4866 -0.4132 -0.0173
45889W        W46753   1.200  24.803   9.389  0.1755 -0.0329 -0.0897
45890W        W46754   7.365  21.892   6.545  0.0950  0.0134  0.0229
45891W        W46755   7.807  21.803  11.521 -0.1326 -0.1145  0.2395
45892W        W46756   8.039  18.958  10.987 -0.1257  0.0613 -0.2991
45893W        W46757   5.599  21.500   9.715 -0.2511  0.3850  0.0395
45894W        W46758   5.667  24.466   8.831  0.0618  0.1893 -0.1862
45895W        W46759   7.823  21.780   6.425 -0.1289 -0.0927 -0.0691
45896W        W46760   3.471  21.769   8.320 -0.2175 -0.1672 -0.0523
45897W        W46761   5.586  23.503  12.940  0.0944 -0.0800 -0.0312
45898W        W46762   5.471  22.219   8.175  0.0518 -0.2345 -0.2384
45899W        W46763   6.738  21.537   7.698 -0.0141  0.2968  0.0184
45900W        W46764   3.775  25.703  12.610 -0.0360  0.0379  0.0898
45901W        W46765   7.802  27.316   6.512 -0.1500  0.0791  0.0407
45902W        W46766   3.636  22.387   8.836 -0.1703 -0.3086  0.0554
45903W        W46767   7.265  22.945  10.264 -0.3098 -0.1754 -0.2086
45904W        W46768   5.029  27.724   9.920  0.1013 -0.0217 -0.2523
45905W        W46769   6.242  23.434   7.641 -0.0979 -0.2774 -0.0197
45906W        W46770   6.912  22.133  11.520  0.3868  0.1130  0.0758
45907W        W46771   8.436  22.155   7.300 -0.2741 -0.2168 -0.0699
45908W        W46772   5.121  23.817  11.957  0.0502  0.0033 -0.3176
45909W        W46773   5.899  21.055   9.051  0.2921  0.2624 -0.1812
45910W        W46774   7.830  24.270  10.508  0.1750 -0.2068  0.0278
45911W        W46775   4.784  23.041  10.834  0.0588  0.2026  0.0707
45912W        W46776   8.831  24.836  12.129  0.2699  0.0032 -0.0795
45913W        W46777   3.317  22.206  10.465  0.0642  0.0685  0.0098
45914W        W46778   7.521  23.540  11.027 -0.4216 -0.2247  0.1068
45915W        W46779   7.989  24.426  11.122  0.1596 -0.4515 -0.1090
45916W        W46780   3.686  23.637   9.213 -0.1750 -0.2749  0.1466
45917W        W46781   6.470  27.926  11.565 -0.0868  0.2455  0.3796
45918W        W46782   6.927  21.909  11.969  0.0622 -0.0617  0.1124
45919W        W46783   5.351  23.922  11.454 -0.1398  0.0775  0.1229
45920W        W46784   7.424  22.087   7.630  0.2704  0.1461  0.1608
45921W        W46785   8.046  25.061  11.154  0.1109 -0.3141 -0.1904
45922W        W46786   3.388  24.703   9.666  0.0543 -0.1299 -0.1841
45923W        W46787   7.852  24.596   7.286 -0.3364 -0.0732 -0.0750
45924W        W46788   8.329  20.981   9.404 -0.4271 -0.0920  0.1373
45925W        W46789   8.701  24.686   8.302  0.3040  0.1769  0.1319
45926W        W46790   6.731  27.679   8.046  0.3043 -0.1363  0.0752
45927W        W46791   2.755  20.852   7.254  0.1712  0.2628 -0.1489
45928W        W46792   4.543  20.644   5.561 -0.1193 -0.1677 -0.1054
45929W        W46793   4.225  24.674   8.733 -0.2111  0.1271 -0.1879
45930W        W46794   4.481  21.799   5.580 -0.3612  0.0998  0.1055
45931W        W46795   6.853  24.681  10.339 -0.1078  0.0843  0.1161
45932W        W46796   5.512  20.158  11.129  0.0104  0.3891 -0.0663
45933W        W46797   5.409  21.940   9.812 -0.1027  0.1522 -0.0273
45934W        W46798   2.756  23.250   7.928  0.0962 -0.1468 -0.0865
45935W        W46799   5.581  26.114  10.062  0.0241 -0.3519  0.2589
45936W        W46800   6.506  23.290  11.672 -0.4548  0.0298  0.0835
45937W        W46801   8.510  25.406  12.749 -0.1523 -0.1746  0.4043
45938W        W46802   5.304  21.313   6.615  0.4567  0.1002 -0.2747
45939W        W46803   4.544  23.385  11.871 -0.1238 -0.2793  0.1821
45940W        W46804   6.558  20.937   7.819  0.0304 -0.0144  0.0968
45941W        W46805   7.153  22.647  11.319 -0.1058  0.1357  0.0647
45942W        W46806   6.031  21.606   7.375  0.2224  0.0419 -0.0636
45943W        W46807   6.603  24.105  10.402 -0.0101 -0.1124  0.2970
45944W        W46808   3.898  24.173   4.247 -0.4615  0.2935 -0.0189
45945W        W46809   7.578  21.804   9.037 -0.0817 -0.0707  0.0987
45946W        W46810   3.701  24.644  11.037  0.1371 -0.0653 -0.0241
45947W        W46811   7.085  22.904   7.792 -0.2720  0.0077  0.0079
45948W        W46812   4.745  23.027  11.449 -0.0105  0.0487 -0.1268
45949W        W46813   6.581  20.333   9.976 -0.0612 -0.0557 -0.3953
45950W        W46814   7.309  22.255  13.282  0.0522 -0.0956  0.1145
45951W        W46815   6.190  20.356  10.306 -0.1990 -0.2507  0.1513
45952W        W46816   5.014  21.817   7.995 -0.1639 -0.0881  0.2381
45953W        W46817   4.461  24.357  11.054  0.0547 -0.0720 -0.2081
45954W        W46818   2.626  25.973   9.049 -0.0376  0.1042  0.2008
45955W        W46819   6.861  22.330  12.884 -0.4105 -0.0537  0.3265
45956W        W46820   2.948  21.991   8.325  0.0649  0.2499 -0.0362
45957W        W46821   6.937  24.192   8.656 -0.1136 -0.0481  0.0690
45958W        W46822   5.376  24.999   9.780  0.1059 -0.0070  0.0924
45959W        W46823   6.537  24.771   9.152 -0.3395  0.0670 -0.0560
45960W        W46824   7.858  25.993   7.927 -0.1256  0.0771 -0.1906
45961W        W46825   5.777  23.488   9.481  0.1359 -0.0929 -0.3889
45962W        W46826   6.909  24.370  10.687 -0.2000 -0.5817 -0.0501
45963W        W46827   3.705  27.187   9.772 -0.2398  0.0589  0.2842
45964W        W46828   4.856  24.076   8.796 -0.2102  0.1491 -0.0876
45965W        W46829   4.319  25.909   7.154 -0.0661 -0.3067 -0.1485
45966W        W46830   3.745  22.434  11.303  0.0984  0.2391  0.2052
45967W        W46831   5.542  25.600  10.214  0.1742 -0.0373 -0.0702
45968W        W46832   8.129  28.371   8.697  0.0716  0.0254  0.2998
45969W        W46833   7.092  24.048   9.504 -0.2721 -0.0339 -0.1170
45970W        W46834   5.149  23.266   9.215  0.1428  0.1584  0.2546
45971W        W46835   5.778  22.747   8.208  0.1109  0.1506  0.1331
45972W        W46836   8.094  24.735  10.735  0.0731  0.0612  0.5568
45973W        W46837   9.063  23.470   8.726 -0.0661  0.2162 -0.1528
45974W        W46838   2.620  21.603   8.506 -0.0975 -0.0251 -0.2136
45975W        W46839   7.076  23.674  12.919  0.0924 -0.2936  0.0600
45976W        W46840   3.273  24.120   8.865 -0.2266  0.4281 -0.2640
45977W        W46841   4.032  23.174   9.208 -0.4925  0.0007 -0.0653
45978W        W46842   5.340  24.191   9.849 -0.2338  0.2962  0.0714
45979W        W46843   5.048  22.089  13.038 -0.0743  0.1098  0.1377
45980W        W46844   4.596  22.485  13.122 -0.0706  0.0170  0.1228
45981W        W46845   7.872  20.540  10.900  0.0511  0.1048 -0.0501
45982W        W46846   4.751  20.634   8.190  0.2755  0.0377  0.2446
45983W        W46847   7.565  23.523   8.125  0.2038 -0.2685  0.2241
45984W        W46848   4.719  21.370   9.402 -0.2557 -0.1031  0.2867
45985W        W46849   4.775  22.711   8.740  0.2582 -0.0556 -0.0809
45986W        W46850   4.323  22.381   9.568 -0.3869 -0.1205 -0.0148
45987W        W46851   3.105  23.494   8.288 -0.0151  0.0798  0.2479
45988W        W46852   7.953  23.887  10.875 -0.1368 -0.0610  0.0448
45989W        W46853   7.503  20.189  11.117  0.5104  0.1641  0.0994
45990W        W46854   5.274  23.780   9.380 -0.2079  0.1090  0.2135
45991W        W46855   3.764  22.936  10.771  0.1736  0.1323 -0.0355
45992W        W46856   1.803  22.805   9.795 -0.0617  0.1164  0.0237
45993W        W46857   5.569  23.393  11.358  0.0544 -0.1870  0.0626
45994W        W46858   6.484  21.877   9.747 -0.2288 -0.0400 -0.0067
45995W        W46859   4.323  27.304   9.085  0.1047 -0.0622 -0.2272
45996W        W46860   3.815  22.579   6.717  0.0025  0.0681  0.1705
45997W        W46861   4.679  24.184  13.897 -0.1487 -0.1759 -0.2632
45998W        W46862   4.235  24.589  12.331 -0.0318 -0.0312 -0.1980
45999W        W46863   4.198  23.993   9.941 -0.0695 -0.0475 -0.2048
46000W        W46864   6.594  22.720   9.364  0.0834 -0.0337 -0.1207
46001W        W46865   9.345  22.670  11.741  0.0178  0.0443 -0.1748
46002W        W46866   5.149  23.685   6.712  0.0280  0.2695  0.0066
46003W        W46867   4.104  23.282   8.477  0.0407 -0.0128  0.1069
46004W        W46868   8.104  24.738   5.645  0.2196  0.2145  0.4300
46005W        W46869   4.663  21.822  10.931  0.2337  0.0985  0.1785
46006W        W46870   3.969  24.905  11.399  0.2549  0.0548 -0.1328
46007W        W46871   8.476  21.202  11.497  0.2525  0.0075 -0.0272
46008W        W46872   5.520  22.177   8.681  0.0936  0.3155  0.0131
46009W        W46873   6.783  21.488  13.877  0.1156 -0.1916  0.0647
46010W        W46874   8.022  21.766   5.934  0.0041 -0.0719  0.0767
46011W        W46875   9.332  23.582   5.744 -0.1829  0.3523 -0.1244
46012W        W46876   4.072  21.690   9.176 -0.1054  0.0462  0.1443
46013W        W46877   6.720  24.312  12.544 -0.3253  0.2913 -0.1717
46014W        W46878   9.713  20.070  12.535 -0.0606  0.0356  0.0596
46015W        W46879   6.082  24.564   9.036  0.1394 -0.1019  0.0912
46016W        W46880   5.722  23.657   6.639  0.2582 -0.2464 -0.1210
46017W        W46881   3.886  21.839  12.456 -0.0348  0.1685  0.0677
46018W        W46882   8.652  23.964  11.400  0.1663 -0.2699  0.2319
46019W        W46883   4.112  25.991   9.343  0.2342  0.2314 -0.2883
46020W        W46884   6.537  24.692   9.916  0.2969 -0.0108  0.4451
46021W        W46885   5.817  21.430  13.972 -0.1748  0.1141  0.3552
46022W        W46886   7.976  23.107   9.055 -0.0756  0.1293 -0.2722
46023W        W46887   5.201  23.699   8.870 -0.0788  0.0439 -0.2030
46024W        W46888   5.150  23.063  10.066  0.2777  0.5235 -0.2786
46025W        W46889   7.887  24.590  12.026  0.0256 -0.2025 -0.0463
46026W        W46890   7.683  23.543  12.218  0.4592  0.0971  0.1965
46027W        W46891   6.602  24.832  11.768  0.0574 -0.3942  0.1928
46028W        W46892   3.377  24.854  10.546 -0.0669  0.2643 -0.1522
46029W        W46893   3.489  22.710   8.008  0.0744 -0.1211 -0.0063
46030W        W46894   4.792  22.199   9.689  0.0509 -0.0894 -0.2240
46031W        W46895   5.835  22.566  10.871 -0.1814  0.1981  0.0802
46032W        W46896   5.965  24.069   7.028  0.0212 -0.0345 -0.2883
46033W        W46897   8.635  25.203   7.114 -0.0573 -0.3628  0.0419
46034W        W46898   5.638  23.816  11.060  0.0175  0.0786 -0.1908
46035W        W46899   7.748  24.894  13.635 -0.0395 -0.0238  0.0693
46036W        W46900   4.966  21.057   9.055  0.4249  0.0324 -0.2228
46037W        W46901   7.857  23.553   9.706 -0.2262 -0.1078 -0.0298
46038W        W46902   6.994  26.343  13.429 -0.0834 -0.2277 -0.2671
46039W        W46903   7.247  23.209  11.563  0.1034  0.2191 -0.0632
46040W        W46904   8.242  24.684  11.480 -0.2096 -0.0519 -0.0641
46041W        W46905   1.566  21.884   8.396 -0.0118 -0.2151  0.1354
46042W        W46906   5.941  26.711   6.868  0.1978 -0.0656  0.0244
46043W        W46907   7.150  22.290   8.750 -0.1431  0.0450 -0.1495
46044W        W46908   6.195  22.090   7.529 -0.2394 -0.0187  0.0972
46045W        W46909   7.351  25.686   9.534  0.0438 -0.0964 -0.2683
46046W        W46910   6.465  24.299   8.920  0.1861 -0.1693 -0.3185
46047W        W46911   5.798  22.224   9.681  0.0155 -0.0506 -0.3989
46048W        W46912   4.638  23.049  10.138  0.0527  0.3209  0.0476
46049W        W46913   5.734  23.975   9.590 -0.3397  0.1684  0.2093
46050W        W46914   4.947  21.352  10.365  0.1605 -0.0884  0.0425
46051W        W46915   4.180  24.807   9.236  0.1385 -0.2579 -0.0029
46052W        W46916   5.240  24.725  11.815 -0.1029  0.1861  0.1615
46053W        W46917   5.522  24.809   5.054  0.1160  0.0732  0.0642
46054W        W46918   6.292  26.957   8.779  0.1339  0.0678  0.1605
46055W        W46919   5.622  23.103  11.721 -0.0939  0.1754  0.0352
46056W        W46920   8.142  23.873   8.182  0.0874  0.2986 -0.0363
46057W        W46921   4.378  23.937   6.321  0.2996 -0.1253  0.2017
46058W        W46922   7.222  24.657   8.730  0.0180  0.0631 -0.1493
46059W        W46923   6.055  20.866   9.627 -0.1234 -0.3079  0.0530
46060W        W46924   5.785  21.530   9.231 -0.3368  0.0328  0.2254
46061W        W46925   7.334  25.651  12.479 -0.1076 -0.1500 -0.2361
46062W        W46926   7.973  23.215  11.838 -0.1111 -0.0725  0.0345
46063W        W46927   5.447  21.722   8.949 -0.1683 -0.1320  0.1052
46064W        W46928   4.987  24.012  10.289 -0.3945  0.2849  0.3022
46065W        W46929   5.568  23.983   8.611 -0.2570 -0.0994 -0.0344
46066W        W46930   6.892  24.935  11.292  0.1087 -0.2929 -0.1028
46067W        W46931   6.190  22.599   7.438 -0.0858  0.0082  0.1711
46068W        W46932   5.738  22.168   5.669 -0.1655 -0.0159  0.0907
46069W        W46933   6.270  23.090  10.140  0.0550  0.3010 -0.0221
46070W        W46934   3.213  25.470   8.311 -0.1014 -0.1817  0.1954
46071W        W46935   6.727  22.422   9.776  0.1313  0.1393 -0.0839
46072W        W46936   5.016  20.033   8.959  0.0142  0.1581 -0.2205
46073W        W46937   7.320  22.742   9.431  0.2482 -0.0554 -0.0806
46074W        W46938   4.431  23.331  10.535  0.2121  0.1602 -0.0419
46075W        W46939   8.256  23.112   6.370 -0.0928  0.1224 -0.3392
46076W        W46940   7.317  23.999   6.073 -0.2406  0.0245  0.0605
46077W        W46941   6.259  23.399   8.561  0.1213  0.0463  0.0801
46078W        W46942   6.430  21.248  10.206  0.1740 -0.2533 -0.0687
46079W        W46943   4.878  24.041  11.190 -0.1973 -0.1981 -0.0232
46080W        W46944   5.472  24.277  11.893 -0.0627  0.2743  0.0259
46081W        W46945   5.177  22.563  10.830  0.1831  0.0611 -0.3680
46082W        W46946   6.419  20.676  11.022  0.3604  0.0013 -0.0915
46083W        W46947   6.782  20.577   8.110 -0.1417  0.0990  0.3258
46084W        W46948   7.718  25.384  11.432 -0.2321  0.3656  0.1177
46085W        W46949   6.402  21.784  10.232 -0.0116  0.3139  0.1194
46086W        W46950   3.277  25.038   8.736  0.1832  0.0984  0.1373
46087W        W46951   3.551  22.917   8.497 -0.0109  0.0712 -0.2167
46088W        W46952   6.063  23.492  10.283  0.0124 -0.2068 -0.0915
46089W        W46953   3.481  24.864  12.759  0.1309 -0.0769 -0.1779
46090W        W46954   6.672  23.246   9.255  0.1019  0.0088 -0.3141
46091W        W46955   8.916  25.909  10.127 -0.3249  0.1300 -0.1107
46092W        W46956   6.557  25.256  12.117  0.1094  0.1022 -0.0187
46093W        W46957   6.464  20.047   8.543  0.0290 -0.4090  0.1425
46094W        W46958   3.614  22.910   9.161  0.4402  0.1509  0.1362
46095W        W46959   4.572  22.558   8.326  0.1316 -0.0818 -0.1040
46096W        W46960   6.764  21.878   6.769  0.3474 -0.3354  0.0032
46097W        W46961   2.155  25.191   8.578  0.1333 -0.1766  0.0251
46098W        W46962   5.757  21.481   6.954  0.1474  0.1452  0.1088
46099W        W46963   8.490  24.918  11.021 -0.0404  0.1176  0.0367
46100W        W46964   6.514  22.673  10.252  0.1507  0.1744  0.1011
46101W        W46965   3.096  26.476  10.291 -0.2492 -0.0388  0.0664
46102W        W46966   5.312  22.374   9.570  0.0253  0.3177 -0.0769
46103W        W46967   5.968  22.954   7.728  0.0515 -0.3554 -0.0184
46104W        W46968   5.020  26.591  12.214  0.3238  0.2184  0.1531
46105W        W46969   7.466  24.742   9.589  0.0825  0.1459  0.0164
46106W        W46970   3.530  26.428   8.628 -0.0336  0.2694  0.1391
46107W        W46971   5.011  25.155  10.794  0.2529 -0.2622 -0.0685
46108W        W46972   2.380  24.615   9.373 -0.1464  0.0912 -0.0042
46109W        W46973   6.137  23.691   9.803  0.0437  0.2065 -0.1343
46110W        W46974   3.982  24.795   9.672 -0.2011 -0.2317 -0.1441
46111W        W46975   6.464  22.846  12.008  0.1846 -0.1119 -0.1858
46112W        W46976   4.934  23.199   8.809 -0.1280 -0.3016 -0.0037
46113W        W46977   3.568  22.170   6.555 -0.0252  0.4886  0.0461
46114W        W46978   6.263  21.841   8.545  0.1396  0.1583  0.1328
46115W        W46979   4.213  24.351   7.083  0.2125 -0.3032 -0.2208
46116W        W46980   5.165  19.350   7.486  0.1145 -0.1583 -0.1530
46117W        W46981   8.799  19.771   8.097 -0.1290 -0.1799  0.1348
46118W        W46982   8.927  22.474  12.019  0.3227  0.0220 -0.0402
46119W        W46983   7.308  26.913  13.098 -0.1571 -0.0193  0.2095
46120W        W46984   9.596  23.893  11.453 -0.3316 -0.0364 -0.2027
46121W        W46985   6.612  24.700  12.278  0.0380 -0.4060 -0.2333
46122W        W46986   3.685  23.261   8.773  0.1049  0.1822  0.1343
46123W        W46987   6.742  23.301   7.735 -0.0416  0.2409  0.2172
46124W        W46988   5.484  26.353  11.456 -0.1279 -0.1019  0.0102
46125W        W46989   8.669  17.315   7.316 -0.3761 -0.1125  0.2027
46126W        W46990   5.128  22.480   8.448  0.0383  0.0651  0.3625
46127W        W46991   5.181  22.503   8.946  0.0346  0.2007 -0.2742
46128W        W46992   5.304  19.267  10.275  0.0580 -0.2491  0.1326
46129W        W46993   4.848  23.609  10.646 -0.2200 -0.1323  0.1976
46130W        W46994   7.202  27.212  10.063  0.0970  0.0271 -0.1632
46131W        W46995   6.100  25.385  12.090  0.1223  0.2106 -0.2349
46132W        W46996   3.297  24.941  11.088  0.0243  0.2167 -0.0092
46133W        W46997   3.655  21.251   8.665  0.0960 -0.0646  0.3134
46134W        W46998   6.689  25.135   7.770  0.0916  0.2551 -0.0887
46135W        W46999   2.845  20.040  10.027  0.1552 -0.1544  0.0226
46136W        W47000   6.033  21.724   9.942 -0.0109 -0.0009  0.2596
46137W        W47001   6.860  22.304   6.540  0.1720  0.5588 -0.0071
46138W        W47002   5.920  23.888  12.797  0.0052 -0.2920 -0.0789
46139W        W47003   4.942  26.483  11.592  0.1420  0.1224 -0.0220
46140W        W47004   3.372  23.945   6.643  0.2505  0.0357 -0.0076
46141W        W47005   8.258  22.810   5.950  0.4280 -0.1395 -0.1140
46142W        W47006   3.110  23.837   9.281 -0.0355 -0.0559 -0.1702
46143W        W47007   6.565  20.504   8.715 -0.1364 -0.2435 -0.0815
46144W        W47008   3.328  25.454  10.047 -0.0970 -0.1923  0.1831
46145W        W47009   4.395  22.708   9.124 -0.0370  0.1294  0.2743
46146W        W47010   2.351  24.284   9.790  0.1657 -0.2482 -0.0089
46147W        W47011   7.540  22.693   9.957  0.3059 -0.0316 -0.3447
46148W        W47012   7.038  23.178   9.550  0.0614  0.0129 -0.0976
46149W        W47013   9.618  19.447   9.152  0.1439  0.1456  0.3594
46150W        W47014   6.671  26.273  11.948  0.3177 -0.0210 -0.2298
46151W        W47015   5.152  25.310  10.173 -0.1058 -0.3307 -0.2114
46152W        W47016   6.706  25.095   8.388 -0.1102 -0.0193 -0.0306
46153W        W47017   7.153  25.504   8.787  0.0454  0.0171  0.0043
46154W        W47018   5.571  20.769   5.145 -0.2509  0.3143  0.2051
46155W        W47019   7.031  22.376   7.567 -0.0850 -0.3202  0.4283
46156W        W47020   5.079  20.588   6.314 -0.3971  0.1802 -0.0382
46157W        W47021   8.365  23.060   7.460  0.2040  0.1822  0.1657
46158W        W47022   5.873  24.619   8.014  0.0625 -0.2575  0.0683
46159W        W47023   5.891  20.553  12.579  0.3762 -0.1990  0.3824
46160W        W47024   5.454  24.265   6.019 -0.1064 -0.3395  0.1398
46161W        W47025   7.164  20.604   9.056 -0.1126  0.1696 -0.1757
46162W        W47026   4.667  24.160   9.972 -0.0765  0.0338 -0.0981
46163W        W47027   6.478  25.954   7.877 -0.1389  0.0764  0.3104
46164W        W47028   4.964  22.294   7.976 -0.3309 -0.1453  0.0401
46165W        W47029   3.442  22.233   8.073 -0.1228  0.0172 -0.2082
46166W        W47030   8.188  22.301   9.438 -0.0735 -0.0514 -0.2760
46167W        W47031   1.911  22.242   9.809  0.3487 -0.0987 -0.0710
46168W        W47032   2.394  23.487  10.759  0.1328 -0.2280 -0.0374
46169W        W47033   6.410  24.308   7.903  0.0434  0.1828 -0.1859
46170W        W47034   7.012  23.201  12.954 -0.4257  0.0023  0.0372
46171W        W47035   5.001  21.750  10.119 -0.2120 -0.1095  0.0016
46172W        W47036   6.056  24.196   8.697  0.0466 -0.2331  0.2590
46173W        W47037   5.542  25.443  10.691  0.2764 -0.0183  0.0098
46174W        W47038   6.322  22.355  13.955  0.0587 -0.1802  0.1021
46175W        W47039   4.990  23.324   8.303  0.0785 -0.1443  0.1365
46176W        W47040   5.752  24.583  12.220  0.0971  0.0875 -0.2871
46177W        W47041   4.206  22.942   9.734 -0.1806  0.2029  0.1202
46178W        W47042   9.283  25.741   6.368  0.0288  0.1382 -0.1127
46179W        W47043   7.583  25.974  10.688 -0.1898  0.0512 -0.1061
46180W        W47044   3.396  26.263   9.599  0.2443  0.1062 -0.0781
46181W        W47045   4.017  21.985   9.649  0.0392  0.0493 -0.0298
46182W        W47046   5.980  24.147   8.215  0.1715  0.2303  0.0288
46183W        W47047   4.099  23.307  12.871 -0.0539  0.0028  0.1533
46184W        W47048   4.804  26.177   9.198  0.0270 -0.1889 -0.2180
46185W        W47049   4.906  22.716   7.530 -0.1572 -0.1908 -0.0862
46186W        W47050   3.606  28.261  17.881  0.1430  0.0223  0.0158
46187W        W47051   5.117  24.602  15.282  0.0687  0.2441  0.0759
46188W        W47052   6.752  23.119  13.445 -0.2925  0.3456  0.1915
46189W        W47053   5.965  26.167  14.593 -0.1985 -0.0990  0.0019
46190W        W47054   5.080  25.621  10.584  0.2827  0.2104  0.0399
46191W        W47055   7.041  24.225  13.651 -0.1228  0.2381 -0.0117
46192W        W47056   5.976  21.994   8.891 -0.1938 -0.1063 -0.3045
46193W        W47057   6.506  22.658  10.747  0.1352 -0.0482 -0.0504
46194W        W47058   5.620  25.821  16.743 -0.1198 -0.0801  0.2218
46195W        W47059   5.754  23.289  13.327 -0.0651 -0.0098 -0.0144
46196W        W47060   4.781  22.154  13.741  0.1164  0.3234  0.3400
46197W        W47061   3.483  21.363  10.395 -0.0771  0.0325  0.3150
46198W        W47062   6.289  22.344  11.848  0.2496 -0.0822 -0.0291
46199W        W47063   7.761  22.081  14.697 -0.1542 -0.2511  0.3638
46200W        W47064   4.149  22.082  13.898  0.0450 -0.1469 -0.1411
46201W        W47065   3.759  22.464  13.212 -0.1331 -0.2748 -0.1441
46202W        W47066   7.074  23.451  10.019 -0.0120 -0.2076  0.2121
46203W        W47067   3.058  22.285  12.674 -0.0967  0.0524  0.2468
46204W        W47068   3.567  23.365  14.154  0.3401  0.0072 -0.0614
46205W        W47069   7.375  19.807  12.082 -0.0801 -0.2866 -0.1700
46206W        W47070   8.540  23.837  11.843  0.1310  0.3579  0.2192
46207W        W47071   5.788  22.764  11.323  0.1343  0.3488 -0.2391
46208W        W47072   4.394  25.884  12.908  0.0900 -0.2766  0.2133
46209W        W47073   4.814  25.220  15.916 -0.1610 -0.0042 -0.2237
46210W        W47074   2.114  25.118  16.034 -0.1304 -0.1652 -0.1021
46211W        W47075   2.221  24.827  15.173  0.0454 -0.0778  0.0414
46212W        W47076   4.211  24.408  14.529  0.1298 -0.0612 -0.0064
46213W        W47077   5.894  24.264  10.728 -0.2608  0.1123  0.0941
46214W        W47078   2.530  23.658  13.757  0.4965 -0.1069  0.0874
46215W        W47079   3.647  20.628  11.984 -0.1706  0.1411 -0.2052
46216W        W47080   4.305  25.168  15.227 -0.3020 -0.2991 -0.1580
46217W        W47081   5.285  25.122  15.578  0.1781 -0.0136 -0.3413
46218W        W47082   4.026  24.261  16.591 -0.1303  0.2319  0.1145
46219W        W47083   5.418  23.820  17.470 -0.1224 -0.1752 -0.1677
46220W        W47084   4.633  24.617  13.595  0.1833 -0.1453 -0.0308
46221W        W47085   5.628  25.085  16.506 -0.2714  0.0385 -0.0903
46222W        W47086   3.862  20.383  11.521 -0.1290 -0.0796  0.2127
46223W        W47087   2.677  25.455  13.178  0.0878  0.2707 -0.3555
46224W        W47088   7.509  22.402  10.354  0.1690 -0.1838 -0.0638
46225W        W47089   7.153  21.169  13.931  0.1951 -0.0231  0.0919
46226W        W47090   5.478  21.092  11.510  0.3953  0.0545 -0.0523
46227W        W47091   8.223  22.382  14.728 -0.1329 -0.3059 -0.4152
46228W        W47092   3.865  24.753  13.131 -0.1056 -0.0556  0.1592
46229W        W47093   6.596  23.441  13.108  0.0882  0.2352  0.2358
46230W        W47094   3.422  25.559  13.013 -0.1210 -0.0840 -0.1968
46231W        W47095   3.833  24.169  12.330 -0.0328 -0.1133 -0.0983
46232W        W47096   5.134  23.997  13.663  0.2521  0.0496 -0.2935
46233W        W47097   6.605  21.052  12.330 -0.2491 -0.0259  0.0803
46234W        W47098   9.611  21.012  11.444  0.1275 -0.0040  0.0264
46235W        W47099   5.667  20.951  12.404 -0.1447  0.0903  0.0334
46236W        W47100   3.122  25.177  12.873 -0.2132 -0.1444 -0.1550
46237W        W47101   4.174  22.880  11.276 -0.1909  0.1117  0.3159
46238W        W47102   8.146  24.625  13.779 -0.0560 -0.0518 -0.0120
46239W        W47103   5.942  23.049  12.870  0.0182 -0.1522 -0.1140
46240W        W47104   6.373  24.072  11.366  0.1206  0.1577 -0.1510
46241W        W47105   5.938  25.542  11.550  0.1366 -0.1284  0.1294
46242W        W47106   3.640  21.363  13.414  0.0739  0.2680 -0.0288
46243W        W47107   6.268  21.390  12.008 -0.0739 -0.4986 -0.1026
46244W        W47108   5.328  21.350  12.528 -0.2566 -0.2599  0.0133
46245W        W47109   6.043  24.568  13.573  0.0423  0.1106 -0.2132
46246W        W47110   7.286  23.280  10.647 -0.1044  0.0950  0.0717
46247W        W47111   2.028  25.505  13.103  0.0119  0.0319  0.0749
46248W        W47112   2.669  26.266  12.708  0.2057 -0.1337  0.1240
46249W        W47113   3.876  24.140  10.829 -0.0576 -0.0435 -0.1390
46250W        W47114   3.803  23.163  12.448  0.0215 -0.2012 -0.1901
46251W        W47115   6.250  23.754  15.376 -0.2722 -0.0058 -0.1679
46252W        W47116   5.354  23.501  10.813  0.3734 -0.0308  0.2074
46253W        W47117   3.648  22.254  12.429  0.1201  0.2985 -0.1666
46254W        W47118   4.425  26.338  10.788 -0.2077 -0.1604 -0.0815
46255W        W47119   5.807  23.450  12.529 -0.2900  0.0395  0.1127
46256W        W47120   4.185  25.200  11.731 -0.3325  0.1671 -0.1510
46257W        W47121   6.110  21.866   9.416 -0.1774 -0.2382  0.0812
46258W        W47122   8.778  25.077  14.305  0.0358 -0.1843 -0.0101
46259W        W47123   8.110  23.712  14.863 -0.0259 -0.1254  0.1030
46260W        W47124   8.226  23.933  14.390 -0.1808  0.1612  0.0560
46261W        W47125   5.323  24.534  12.717 -0.0064 -0.1565 -0.1209
46262W        W47126   5.121  25.047  12.792  0.1598  0.1173  0.0777
46263W        W47127   3.504  24.366  13.024 -0.2389 -0.1164  0.2047
46264W        W47128   6.016  21.441  10.390  0.0483 -0.2327  0.0502
46265W        W47129   4.426  24.822  14.573  0.0055  0.5788  0.1988
46266W        W47130   6.216  20.840  13.310 -0.2133 -0.1820  0.0671
46267W        W47131   3.768  22.729  15.103 -0.0705 -0.1184 -0.1135
46268W        W47132   2.993  20.072  10.518  0.1781 -0.0846  0.1651
46269W        W47133   4.000  25.149  13.368  0.2337 -0.0771 -0.0689
46270W        W47134   6.884  22.915  14.181 -0.1417 -0.0620 -0.0131
46271W        W47135   7.473  19.430   8.871 -0.0968  0.0200 -0.0958
46272W        W47136   5.503  24.675  15.681  0.0410  0.3348  0.0372
46273W        W47137   4.339  24.723  14.112 -0.4105  0.0958  0.0481
46274W        W47138   7.269  24.824  14.309 -0.3647 -0.2986  0.2352
46275W        W47139   4.702  24.426  13.107 -0.1562 -0.0911 -0.1336
46276W        W47140   6.921  21.949  13.516 -0.3474 -0.1595  0.0708
46277W        W47141   9.147  22.424  16.489 -0.1449 -0.0486  0.2514
46278W        W47142   3.356  28.375  12.094 -0.0490  0.0422  0.3385
46279W        W47143   3.781  20.668  11.110 -0.2179 -0.0547  0.0220
46280W        W47144   2.343  22.182  13.757 -0.0673 -0.2343  0.0262
46281W        W47145   5.582  23.798  13.454 -0.1528  0.1139 -0.1984
46282W        W47146   5.653  22.144  10.786 -0.0380  0.0768  0.0664
46283W        W47147   4.464  24.726  15.057 -0.1030 -0.1139 -0.0144
46284W        W47148   2.838  22.858  11.246  0.0085 -0.1980 -0.2052
46285W        W47149   3.658  21.576  14.852 -0.0629 -0.1668 -0.0863
46286W        W47150   9.497  25.213  11.801 -0.3499  0.0084 -0.3028
46287W        W47151   5.030  26.728  13.184  0.3031 -0.2134  0.2701
46288W        W47152   6.209  22.253  10.986 -0.2033  0.0183 -0.0475
46289W        W47153   7.904  25.945  12.566 -0.2600 -0.2149 -0.1205
46290W        W47154   8.257  22.965  11.500  0.2423  0.0017 -0.0324
46291W        W47155   4.655  22.299  15.483 -0.1215  0.0340 -0.0096
46292W        W47156   8.142  21.378  12.266 -0.1054 -0.0270  0.1104
46293W        W47157   6.418  24.277  14.223 -0.0043  0.1687  0.2425
46294W        W47158   4.461  21.536  12.270 -0.1010 -0.0746 -0.3240
46295W        W47159   3.059  23.597  12.848  0.0450 -0.0645 -0.0259
46296W        W47160   7.820  23.210  15.818 -0.1051  0.0062  0.0327
46297W        W47161   3.315  22.686  12.469 -0.1963 -0.2580  0.0112
46298W        W47162   6.555  22.145  15.870 -0.0938 -0.1418 -0.2844
46299W        W47163   2.943  24.065  13.834  0.0669 -0.0514  0.0274
46300W        W47164   8.507  25.186  13.350 -0.3213  0.0521  0.1124
46301W        W47165   5.613  21.983  13.330 -0.1782 -0.0613  0.2389
46302W        W47166   5.672  24.907  12.748  0.2435  0.1957  0.0579
46303W        W47167   4.532  22.392  14.390  0.0190  0.0110 -0.1319
46304W        W47168   5.603  22.744  10.499  0.1047 -0.1354 -0.0527
46305W        W47169   5.015  20.586   8.875 -0.3179  0.1986  0.1418
46306W        W47170   8.346  22.137  11.350  0.2556  0.0657 -0.3061
46307W        W47171   6.980  26.529  11.498  0.1283  0.1404  0.2657
46308W        W47172   9.051  22.528  14.533 -0.2002 -0.0753 -0.2960
46309W        W47173   7.269  21.515  14.312 -0.2394 -0.1100  0.1062
46310W        W47174   5.889  22.116  12.119 -0.0934 -0.1653  0.0495
46311W        W47175   5.106  19.741  11.935 -0.1843  0.0150 -0.0149
46312W        W47176   4.850  23.651  13.938  0.1652  0.0746  0.1972
46313W        W47177   5.276  22.839  14.377  0.2489 -0.1707 -0.0198
46314W        W47178   9.173  27.577  14.293  0.0582  0.0573  0.0615
46315W        W47179   7.539  25.419  12.916  0.0726 -0.0727 -0.0595
46316W        W47180   3.978  25.715  13.138  0.1430  0.0249 -0.1683
46317W        W47181   3.587  20.226  11.143 -0.2599  0.1449 -0.0155
46318W        W47182   4.698  25.606  13.253 -0.1288  0.0641  0.4084
46319W        W47183   6.203  21.757  11.185 -0.1794  0.0853  0.0227
46320W        W47184   8.724  21.345  15.188 -0.0596 -0.1235  0.0147
46321W        W47185   0.880  21.312  13.199  0.2194  0.1465 -0.2497
46322W        W47186   5.829  22.251  11.582 -0.1444 -0.1430  0.1866
46323W        W47187   4.112  20.699  13.261 -0.3079  0.0972 -0.1196
46324W        W47188   7.647  22.984  12.526  0.1321  0.3889 -0.2719
46325W        W47189   5.644  25.127  11.636 -0.1085 -0.0991 -0.2467
46326W        W47190   3.760  23.241  13.285 -0.0820 -0.1611  0.3052
46327W        W47191   5.403  20.606  13.753 -0.3219  0.0441 -0.0186
46328W        W47192   5.300  24.504  11.286  0.0102 -0.0366 -0.3793
46329W        W47193   1.067  24.399  14.101 -0.0255  0.6237  0.1237
46330W        W47194   5.680  23.290  14.570  0.2628  0.0215  0.0761
46331W        W47195   5.470  21.001  12.857  0.1377 -0.2664 -0.1742
46332W        W47196   5.652  22.638  14.662 -0.0324  0.0941  0.2565
46333W        W47197   6.749  23.838  13.359  0.0032 -0.0967 -0.2866
46334W        W47198   4.831  25.226  12.239  0.0721 -0.0001  0.5114
46335W        W47199   1.787  22.322  12.174  0.0592 -0.0288  0.0140
46336W        W47200   8.095  24.161  12.588  0.2201  0.0359 -0.0645
46337W        W47201   6.017  22.777  14.233 -0.3776 -0.1317  0.0942
46338W        W47202   5.236  24.858  12.322 -0.1621 -0.3354 -0.0244
46339W        W47203   5.557  21.012   9.572 -0.1278 -0.2778  0.2376
46340W        W47204   5.084  20.934  14.311 -0.0279  0.0436  0.2052
46341W        W47205   5.074  19.652  14.871  0.3497 -0.1919 -0.1400
46342W        W47206   0.782  24.838  13.046  0.1817 -0.2457  0.1949
46343W        W47207   4.328  20.549  10.033 -0.2770  0.1962 -0.1205
46344W        W47208   3.666  21.160  11.224 -0.0891 -0.3587  0.2753
46345W        W47209   6.972  22.160  10.687 -0.0922  0.1688 -0.0175
46346W        W47210   9.047  20.112  16.110 -0.1829 -0.0262  0.2428
46347W        W47211   6.329  23.580  13.577 -0.0190  0.0270 -0.0737
46348W        W47212   5.616  27.073  12.559 -0.0316  0.0830 -0.0136
46349W        W47213   9.027  26.633  14.311 -0.6273  0.1206  0.0506
46350W        W47214   6.227  19.875  14.493  0.0518  0.2235 -0.1775
46351W        W47215   5.005  21.777  12.607 -0.0169 -0.2642 -0.1199
46352W        W47216   2.210  20.985  13.543  0.0301 -0.1011 -0.1771
46353W        W47217   1.629  26.581   9.423 -0.0924 -0.1238 -0.2761
46354W        W47218   7.754  24.753  14.166  0.0837 -0.1786 -0.4140
46355W        W47219   3.162  24.780  13.745  0.0281 -0.0006  0.0833
46356W        W47220   6.842  23.304  15.188 -0.0885 -0.0209 -0.1697
46357W        W47221   5.188  23.231  14.708  0.1288  0.1437 -0.0920
46358W        W47222   8.002  24.711  12.551  0.2784 -0.1722  0.0219
46359W        W47223   8.916  22.905  10.573  0.1371  0.0817 -0.1181
46360W        W47224   4.834  20.717  12.504 -0.0625  0.0641 -0.0547
46361W        W47225   7.100  24.078  11.357  0.1697  0.0303 -0.0480
46362W        W47226   4.969  23.865  15.926  0.0641 -0.1195  0.1670
46363W        W47227   5.842  24.427  12.678 -0.3218 -0.1593  0.0366
46364W        W47228   2.262  27.420  11.341 -0.0730 -0.0034  0.1344
46365W        W47229   5.106  23.443  15.580 -0.0420 -0.0244  0.3658
46366W        W47230   6.842  23.406  12.460  0.0430 -0.2696 -0.2886
46367W        W47231   5.991  23.943  13.672 -0.0349  0.2049  0.2167
46368W        W47232   5.690  23.068  15.020 -0.1066 -0.0993 -0.3146
46369W        W47233   4.700  20.164   9.369 -0.1399 -0.1623  0.0426
46370W        W47234   2.673  23.681   9.147 -0.0232 -0.0390  0.0473
46371W        W47235   6.839  25.207  14.288 -0.0368  0.3459  0.1326
46372W        W47236   6.760  22.480  13.554 -0.5000  0.1221  0.0867
46373W        W47237   5.658  23.054   9.063 -0.1377 -0.2253 -0.1031
46374W        W47238   2.693  24.920  11.695  0.0068  0.1281  0.4811
46375W        W47239   3.762  20.444  13.093  0.2699 -0.1604  0.2060
46376W        W47240   7.787  27.043  11.878 -0.2526  0.0505  0.1078
46377W        W47241   1.916  27.887  12.078  0.0088 -0.0814  0.0367
46378W        W47242   4.677  27.800  11.918  0.1801 -0.0414 -0.1594
46379W        W47243   4.846  21.246  15.262 -0.0111  0.0933  0.3280
46380W        W47244   7.712  22.517  13.477  0.0572  0.1147  0.1184
46381W        W47245   5.947  21.419  10.889  0.0739  0.2349 -0.1865
46382W        W47246   5.296  20.534  10.349 -0.1777  0.0015 -0.1209
46383W        W47247   3.332  24.010  10.267 -0.0180  0.1610 -0.2662
46384W        W47248   3.602  21.229  12.460  0.1153 -0.0309 -0.1295
46385W        W47249   4.988  21.658  11.347  0.1436  0.1316 -0.0468
46386W        W47250   6.865  20.776  13.895 -0.2292 -0.0492 -0.0180
46387W        W47251   5.245  21.607  14.547 -0.0798 -0.2288 -0.0600
46388W        W47252   9.782  24.342  11.853  0.3440 -0.2516  0.2192
46389W        W47253   2.351  21.554  11.737  0.2374  0.1027  0.1320
46390W        W47254   4.097  22.069  14.575  0.0479  0.0798 -0.1526
46391W        W47255   2.696  20.314  10.961  0.0362 -0.1794 -0.3029
46392W        W47256   4.749  27.240  13.183  0.0350 -0.0732 -0.1226
46393W        W47257   6.227  23.930  14.608 -0.2187  0.1782 -0.1485
46394W        W47258   6.999  25.980  11.500 -0.1971 -0.2068 -0.2351
46395W        W47259   0.989  24.478  14.659  0.0681 -0.0546 -0.0767
46396W        W47260   4.937  26.993  11.441 -0.0045 -0.1425  0.0816
46397W        W47261   0.948  25.700  13.923  0.0944 -0.1837  0.0316
46398W        W47262   4.578  24.163  15.108 -0.2456 -0.2354 -0.0227
46399W        W47263   7.244  23.390  13.909  0.1953  0.2441 -0.2385
46400W        W47264   8.123  24.792  14.635 -0.1389 -0.2670 -0.1076
46401W        W47265   6.835  20.885  10.093  0.1824 -0.0472  0.1132
46402W        W47266  10.621  21.995  11.750 -0.0944 -0.3640 -0.1366
46403W        W47267   9.756  23.134  10.215  0.2008 -0.0807  0.0112
46404W        W47268   6.650  23.818  12.768 -0.0854 -0.3082  0.0877
46405W        W47269   3.443  23.790  17.057 -0.0163 -0.0849 -0.2739
46406W        W47270   6.518  24.137  13.780  0.1367 -0.0746 -0.1436
46407W        W47271   7.474  23.860  13.979  0.0729 -0.0671  0.0246
46408W        W47272   5.330  24.923  14.137 -0.0739  0.0320  0.1160
46409W        W47273   5.748  19.287   9.518  0.0688  0.0482 -0.0918
46410W        W47274   5.476  21.122  14.652 -0.1168 -0.3555  0.4504
46411W        W47275   6.810  23.965  14.550  0.3801  0.1726 -0.0077
46412W        W47276   6.068  23.643  13.190 -0.0235 -0.4167 -0.0690
46413W        W47277   2.909  21.103  10.681 -0.0569 -0.0296 -0.1261
46414W        W47278   6.036  24.170  11.835 -0.1553  0.2661 -0.0039
46415W        W47279   9.080  23.057  13.880 -0.1510 -0.2870 -0.3569
46416W        W47280   5.637  19.602  14.828  0.1750  0.1819 -0.1353
46417W        W47281   5.402  23.552  15.044  0.1312 -0.4030  0.0414
46418W        W47282   5.894  24.373  14.513 -0.1190  0.0393 -0.0115
46419W        W47283   7.450  26.455  13.071 -0.0587 -0.1167 -0.0857
46420W        W47284   3.933  23.004  14.791 -0.1566 -0.0757  0.1521
46421W        W47285   7.348  24.589  13.809 -0.3544  0.0762 -0.0650
46422W        W47286   8.107  23.491  13.133  0.1881  0.0106  0.0386
46423W        W47287   5.699  25.563  13.422 -0.2159 -0.2540 -0.0745
46424W        W47288   8.750  24.724  15.584  0.3206 -0.0505  0.1781
46425W        W47289   7.276  23.245  13.416 -0.1046 -0.0301  0.1949
46426W        W47290   6.250  22.650  11.220  0.0685  0.0071  0.0783
46427W        W47291   5.673  23.797  14.657 -0.0736 -0.1897  0.3375
46428W        W47292   3.353  19.334  12.748 -0.3013 -0.1262 -0.1483
46429W        W47293   6.404  20.413  13.587 -0.1087  0.0047  0.4370
46430W        W47294   5.352  22.066  11.501  0.1358  0.0921  0.3401
46431W        W47295   6.071  22.129  12.675  0.0893  0.2200 -0.3510
46432W        W47296   7.583  23.996  12.563 -0.0627 -0.0713 -0.2000
46433W        W47297   4.438  26.229  13.994  0.1075 -0.2330  0.2533
46434W        W47298   6.570  22.769  13.135  0.0760 -0.2026  0.3767
46435W        W47299   4.603  20.299   8.841  0.0598 -0.0362 -0.2850
46436W        W47300   5.632  20.956  14.135 -0.1981  0.0329  0.0822
46437W        W47301   3.908  25.695  15.858  0.1258  0.0658 -0.0231
46438W        W47302   9.612  26.712  15.187  0.1265  0.0758 -0.1370
46439W        W47303   4.306  23.330  15.353  0.1508 -0.0744 -0.0672
46440W        W47304   3.652  21.758   7.843  0.1430  0.3031 -0.0739
46441W        W47305   7.786  26.637  13.459 -0.1440  0.0781  0.0138
46442W        W47306   6.755  22.357  11.915  0.1249  0.0874 -0.1420
46443W        W47307   2.646  21.278  13.496 -0.1750  0.1128  0.0469
46444W        W47308   9.516  24.572  13.281 -0.0110 -0.0533 -0.0474
46445W        W47309   8.640  21.536  15.893  0.0415 -0.1738  0.0002
46446W        W47310   4.512  21.374  10.683 -0.1817 -0.0167  0.2674
46447W        W47311   5.100  23.176  14.095  0.0208  0.0803 -0.0027
46448W        W47312   7.060  23.827  15.822 -0.1666 -0.0641 -0.0490
46449W        W47313   6.179  18.936  12.394  0.1826 -0.1573 -0.1771
46450W        W47314   5.979  27.092  12.944 -0.0566  0.0022 -0.0705
46451W        W47315   2.569  25.775  15.355  0.0994  0.0907 -0.0774
46452W        W47316   4.226  25.838   9.972 -0.0921 -0.3084  0.0067
46453W        W47317   7.382  23.406  12.598 -0.1303 -0.0461  0.0205
46454W        W47318   1.801  25.608  14.830  0.2336 -0.3538 -0.0476
46455W        W47319   7.608  21.532  10.505 -0.1033 -0.0932 -0.1131
46456W        W47320   5.263  22.956   9.609 -0.0155  0.2043  0.2071
46457W        W47321   5.618  20.266  12.207  0.1303  0.0689 -0.1606
46458W        W47322   6.689  23.358  13.926 -0.0043 -0.1918  0.0800
46459W        W47323   5.536  24.299  13.636 -0.1482 -0.1526  0.2010
46460W        W47324   8.568  24.884  12.935  0.2028 -0.2244  0.2345
46461W        W47325   3.913  23.129  16.446 -0.0528 -0.0268 -0.2089
46462W        W47326   5.622  23.068  14.086  0.0025  0.2768  0.1943
46463W        W47327   6.450  22.212  13.109  0.1864  0.2441  0.3557
46464W        W47328   2.370  20.795   9.037 -0.0320 -0.1111  0.5762
46465W        W47329   4.568  22.908  12.780 -0.0434 -0.0683 -0.1300
46466W        W47330   5.298  23.617  14.365  0.0687 -0.1628  0.2351
46467W        W47331   3.342  20.833  11.002  0.0711  0.1395 -0.3275
46468W        W47332   7.111  23.018  12.437  0.2664 -0.4592 -0.0004
46469W        W47333   3.926  24.761  11.920 -0.0190 -0.0755  0.0516
46470W        W47334   7.891  23.667  12.720 -0.0184 -0.1462 -0.0675
46471W        W47335   9.795  24.690  15.717  0.3731 -0.0078  0.0630
46472W        W47336   7.223  23.755  13.489 -0.0280 -0.1580  0.0762
46473W        W47337   4.017  21.151  14.388  0.1081 -0.0833 -0.1349
46474W        W47338   7.049  20.752  10.473 -0.0977 -0.1097  0.3027
46475W        W47339   5.990  24.202  13.242  0.1402  0.1069 -0.0739
46476W        W47340   7.465  22.123  12.804  0.3360 -0.0586 -0.1756
46477W        W47341   7.179  21.675  12.604  0.3056 -0.1070  0.0897
46478W        W47342   2.117  21.108  14.328 -0.0927  0.2582 -0.1404
46479W        W47343   3.402  22.241  13.538  0.0545  0.2661 -0.2957
46480W        W47344   5.154  22.903  12.366  0.2129 -0.1391  0.1212
46481W        W47345   4.231  22.315  13.428 -0.1333 -0.4364  0.1242
46482W        W47346   6.135  23.868  10.943  0.2567  0.1253  0.0793
46483W        W47347   9.691  24.118  12.362  0.1231 -0.0984  0.0206
46484W        W47348   6.642  21.888  11.012  0.0238  0.0266 -0.1200
46485W        W47349   0.980  26.944  13.981 -0.2892  0.3856  0.1619
46486W        W47350   3.566  22.187  14.032  0.0987  0.3018  0.1192
46487W        W47351   2.458  23.305  15.554  0.1711 -0.0661  0.2274
46488W        W47352   6.289  23.913  15.850  0.1360 -0.1236  0.0995
46489W        W47353   8.135  22.597  13.191 -0.0447  0.0669 -0.0460
46490W        W47354   6.531  24.323  11.790  0.0294 -0.0341  0.3062
46491W        W47355   9.209  22.946  14.302 -0.1250 -0.1587  0.4075
46492W        W47356   8.021  22.771  15.038 -0.1048 -0.1927  0.0415
46493W        W47357   5.684  21.576  12.176 -0.2004 -0.2543  0.1070
46494W        W47358   6.916  24.630  13.449  0.1005 -0.2593  0.2898
46495W        W47359   4.454  25.719  14.009  0.1966  0.0525  0.2699
46496W        W47360   4.287  23.759  13.693 -0.0349 -0.3496 -0.1607
46497W        W47361   4.444  24.037  16.515 -0.0793  0.1488 -0.1239
46498W        W47362   4.585  22.463  12.529  0.1237 -0.0692  0.0102
46499W        W47363   2.821  24.596  12.918  0.1188  0.0525 -0.0526
46500W        W47364   4.712  25.786  12.467 -0.0172  0.0543  0.1480
46501W        W47365   3.913  23.769  14.195 -0.2114 -0.1029 -0.0271
46502W        W47366   4.295  21.254  13.962  0.2167  0.0170 -0.0162
46503W        W47367   7.525  20.244  14.209  0.2321  0.1131  0.0362
46504W        W47368   5.093  26.118  12.425 -0.1078 -0.1913  0.0372
46505W        W47369   5.564  24.507  13.186 -0.4093 -0.0053  0.4334
46506W        W47370   5.805  25.870  13.856  0.1134 -0.1113  0.1045
46507W        W47371   7.152  27.307  12.559 -0.2199 -0.1713 -0.0588
46508W        W47372   4.407  27.838  12.414  0.2736  0.0135  0.2069
46509W        W47373   6.958  24.375  12.044  0.2039  0.0690 -0.3687
46510W        W47374   6.501  21.800  12.745 -0.2277  0.2233  0.2058
46511W        W47375   3.387  27.854  12.250 -0.1357 -0.0450 -0.1706
46512W        W47376   3.979  21.460  12.160 -0.1243 -0.1155  0.1516
46513W        W47377   4.570  26.320  12.570  0.0316  0.2217  0.1114
46514W        W47378   5.328  22.287  10.403 -0.0644  0.5471 -0.2684
46515W        W47379   2.234  24.663  13.362  0.0963 -0.2641 -0.0216
46516W        W47380   6.572  21.139  14.181 -0.0030 -0.1092 -0.0056
46517W        W47381   7.340  23.057  11.087 -0.2763 -0.1010 -0.0311
46518W        W47382   6.497  22.147  14.463  0.5147  0.0583 -0.1434
46519W        W47383   3.237  26.160  11.929  0.1819  0.0237  0.0782
46520W        W47384   7.524  22.296  15.495 -0.1934  0.0803 -0.0785
46521W        W47385   7.101  21.458  13.484  0.2063 -0.1352  0.0377
46522W        W47386   8.727  24.991  13.773 -0.2496 -0.0571  0.3240
46523W        W47387   8.041  26.024  14.367  0.2122 -0.1358  0.3352
46524W        W47388   6.779  21.369  11.909 -0.1288 -0.1374 -0.0410
46525W        W47389   4.148  22.662  12.912  0.0347 -0.1373  0.0091
46526W        W47390   4.269  25.332  11.222 -0.2655 -0.0702 -0.2886
46527W        W47391   3.748  21.250  13.883  0.2079 -0.2652 -0.0299
46528W        W47392   5.534  22.257  15.578  0.1938 -0.2663 -0.2046
46529W        W47393   3.448  24.531  10.219  0.1784  0.3609  0.0149
46530W        W47394   7.878  22.145  13.155  0.2337  0.0440 -0.0445
46531W        W47395   4.380  26.314  16.090  0.2172 -0.3156 -0.0279
46532W        W47396   2.546  25.623  13.647  0.2369 -0.0836  0.0294
46533W        W47397   3.431  23.860  14.076 -0.0466  0.1613  0.0775
46534W        W47398   3.802  26.046  11.832  0.2490  0.2333  0.3249
46535W        W47399   1.286  22.886  11.039  0.0407 -0.1891 -0.1130
46536W        W47400   3.486  24.382  13.846 -0.1276  0.0502  0.2450
46537W        W47401   7.526  19.424  11.500  0.2128 -0.1244  0.1257
46538W        W47402   4.618  20.925  11.073 -0.1467  0.0839  0.2489
46539W        W47403   3.477  23.847  12.566 -0.1267 -0.1637 -0.3997
46540W        W47404   6.401  23.526  11.249 -0.0638 -0.0263  0.1308
46541W        W47405   4.773  22.303  10.722  0.1150  0.1382  0.1306
46542W        W47406   3.362  28.479  10.869  0.2796  0.1528  0.1164
46543W        W47407   5.270  23.356  16.578 -0.2149  0.1336  0.0322
46544W        W47408   3.904  24.843  14.448  0.0601 -0.1181 -0.0643
46545W        W47409   1.579  23.188  15.092 -0.2140  0.2117  0.1098
46546W        W47410   5.767  20.158  10.071 -0.0676 -0.0392  0.4334
46547W        W47411   6.668  20.367  15.684 -0.3066  0.0101  0.0681
46548W        W47412   7.065  22.699  13.218  0.0036  0.2920  0.2685
46549W        W47413   5.227  23.440  11.726  0.1507  0.3464  0.2228
46550W        W47414   6.289  26.343  12.349  0.2181 -0.0123  0.0004
46551W        W47415   5.145  22.716  13.857 -0.0242  0.0703  0.4367
46552W        W47416   6.156  23.224  13.904  0.0052 -0.4285 -0.2754
46553W        W47417   7.499  23.493  13.048 -0.2034  0.0611  0.3831
46554W        W47418   5.799  20.960  11.137  0.0188  0.0070  0.1653
46555W        W47419   6.458  20.937  11.870 -0.7014 -0.2642 -0.3735
46556W        W47420   3.643  22.835  12.793  0.3617  0.2984 -0.2440
46557W        W47421  10.103  23.205  13.131 -0.0781 -0.2003  0.1802
46558W        W47422   8.835  24.036  10.700  0.1636 -0.2482 -0.2501
46559W        W47423   6.505  22.715  15.020 -0.0175 -0.2501 -0.3348
46560W        W47424   8.307  22.626  11.139 -0.1670 -0.1744 -0.0645
46561W        W47425   4.933  21.881  14.118  0.3118  0.0160 -0.0659
46562W        W47426   3.263  23.334  12.354 -0.0961 -0.2146 -0.2038
46563W        W47427   7.733  23.406  13.906 -0.0378  0.1176  0.1802
46564W        W47428   9.636  22.185  16.484  0.0821  0.2160 -0.0512
46565W        W47429   1.937  22.568  16.020  0.1028 -0.0605 -0.0996
46566W        W47430   3.942  21.683  14.153  0.1361  0.0303  0.0161
46567W        W47431   7.849  21.801  12.716 -0.2360 -0.0946  0.1347
46568W        W47432   5.621  22.685  12.176 -0.1246 -0.2022 -0.1951
46569W        W47433   6.161  21.758  12.383 -0.1176  0.2882 -0.1180
46570W        W47434   8.270  24.253  14.801  0.0614  0.2710 -0.1572
46571W        W47435   4.522  20.160  16.322  0.1098 -0.2586 -0.3128
46572W        W47436   8.211  23.650  14.010 -0.1269 -0.1992  0.1722
46573W        W47437   3.900  24.110  12.814 -0.1660 -0.0037  0.0047
46574W        W47438   3.610  25.150  11.872  0.1149  0.0624 -0.0497
46575W        W47439   6.494  23.805  14.205  0.0482  0.3053 -0.1440
46576W        W47440   6.492  23.473  14.832 -0.2532 -0.0775  0.0375
46577W        W47441   3.503  25.125  13.267  0.0470 -0.2014  0.2451
46578W        W47442   6.990  23.950  11.788  0.3913 -0.3657 -0.1731
46579W        W47443   5.495  23.998  12.955  0.0429  0.0849  0.0281
46580W        W47444   2.664  24.603  13.580 -0.2347 -0.1354 -0.1346
46581W        W47445   5.124  22.502  12.064  0.0715 -0.0394 -0.0851
46582W        W47446   4.603  20.562  13.004  0.4605 -0.1281  0.1488
46583W        W47447   5.097  24.796  13.235 -0.2171 -0.2663  0.0906
46584W        W47448   3.870  24.780  10.549 -0.0765  0.2661  0.1571
46585W        W47449   6.407  22.157  11.437  0.2335 -0.2940  0.1486
46586W        W47450   3.297  25.003  15.311  0.1113 -0.0398  0.0530
46587W        W47451   5.511  24.148  17.842  0.0101  0.1434 -0.0412
46588W        W47452   5.262  24.221  16.897 -0.1127  0.0439  0.1271
46589W        W47453   9.203  27.203  18.481 -0.0182  0.1587  0.3377
46590W        W47454   4.337  26.337  17.075  0.1582  0.3340 -0.2119
46591W        W47455   4.347  23.593  17.755  0.0233 -0.1432 -0.1406
46592W        W47456   4.519  23.653  14.844  0.1350  0.0851  0.1388
46593W        W47457   4.437  23.778  16.963  0.0734  0.0971 -0.0435
46594W        W47458   7.363  23.576  19.852  0.2639 -0.5091  0.0289
46595W        W47459   6.148  24.327  16.452  0.3672 -0.3659  0.1463
46596W        W47460   6.554  21.308  15.549 -0.1427  0.1114 -0.2680
46597W        W47461   8.826  23.462  16.364  0.3602 -0.0432 -0.0384
46598W        W47462   9.879  24.466  14.992 -0.0014  0.2779 -0.1484
46599W        W47463   7.153  22.766  17.463  0.0853 -0.2629 -0.0337
46600W        W47464   4.645  19.214  17.691  0.3515 -0.3556 -0.4307
46601W        W47465   3.452  23.462  17.441 -0.0540 -0.1146 -0.0043
46602W        W47466   6.297  25.205  14.306 -0.3227  0.1507 -0.0863
46603W        W47467   7.230  23.471  18.538 -0.1016  0.1339 -0.0986
46604W        W47468   5.981  23.794  17.492  0.3033  0.0358 -0.0269
46605W        W47469   6.458  21.901  15.331 -0.0194 -0.1855 -0.0514
46606W        W47470   7.091  26.768  16.914  0.2747 -0.1386 -0.0050
46607W        W47471   9.143  22.971  16.406 -0.0957 -0.1517  0.0484
46608W        W47472   5.800  23.765  18.047 -0.1948 -0.0756  0.2572
46609W        W47473   3.257  24.732  17.776  0.1640  0.1873 -0.0284
46610W        W47474   3.362  20.224  17.107 -0.1566 -0.0519 -0.1357
46611W        W47475   1.685  24.959  16.839 -0.1444  0.2203 -0.2620
46612W        W47476  10.891  23.903  18.539 -0.0885  0.0713  0.1071
46613W        W47477   4.342  25.801  17.133 -0.3927 -0.2247 -0.3407
46614W        W47478   5.445  24.463  20.152  0.1770 -0.0781  0.3628
46615W        W47479   6.185  21.330  16.471 -0.1778  0.2365 -0.1097
46616W        W47480   4.329  22.782  15.317 -0.0795  0.0386 -0.0951
46617W        W47481   7.701  27.034  19.567  0.0512  0.1144  0.0792
46618W        W47482   6.478  22.956  17.639  0.0281 -0.2857 -0.2325
46619W        W47483   5.439  22.485  18.316 -0.0326 -0.0924 -0.0749
46620W        W47484   5.126  23.714  19.823 -0.1644  0.0272  0.1224
46621W        W47485   9.871  23.147  18.305 -0.2847  0.0546 -0.0683
46622W        W47486   7.449  23.419  14.469 -0.0330 -0.3020 -0.0698
46623W        W47487   6.419  24.712  17.178 -0.0797  0.1605  0.0945
46624W        W47488   5.648  23.526  17.188 -0.2134 -0.0314 -0.5005
46625W        W47489   6.523  21.743  17.875 -0.1180  0.1822 -0.1145
46626W        W47490   5.845  22.116  14.862 -0.0748 -0.0436 -0.1390
46627W        W47491   6.726  24.243  15.983 -0.0154 -0.0440 -0.1481
46628W        W47492   2.895  24.538  17.515 -0.0921  0.2206 -0.3757
46629W        W47493   6.408  24.681  15.663  0.2300  0.1280 -0.0623
46630W        W47494   4.008  24.763  14.936  0.3635  0.1476  0.2311
46631W        W47495   5.052  23.892  17.787  0.1567 -0.0867 -0.6927
46632W        W47496   5.285  21.412  14.988 -0.1066  0.1330 -0.0874
46633W        W47497   5.860  27.116  17.672  0.2229 -0.0583  0.4305
46634W        W47498   6.933  22.504  15.708 -0.1321 -0.4413 -0.1327
46635W        W47499  10.182  24.143  16.459  0.2876  0.1568  0.0579
46636W        W47500   5.398  24.790  16.822 -0.2745 -0.1788  0.1581
46637W        W47501   5.042  22.174  16.942 -0.0348  0.0688  0.0417
46638W        W47502   6.057  23.249  17.219  0.2737 -0.0452 -0.1509
46639W        W47503   7.121  22.710  14.694  0.1014  0.1315 -0.1188
46640W        W47504   8.741  23.637  13.987  0.1197  0.3288  0.2608
46641W        W47505   2.785  25.186  15.162  0.0465 -0.0045 -0.2507
46642W        W47506   6.418  19.009  17.445  0.0629 -0.1722  0.1078
46643W        W47507   7.859  22.029  18.456  0.2232 -0.2145 -0.0513
46644W        W47508   2.836  25.559  14.744 -0.4418 -0.0330  0.1971
46645W        W47509   4.683  25.363  16.390  0.1061  0.0205 -0.1844
46646W        W47510   4.745  24.216  16.934  0.0801 -0.3232 -0.3060
46647W        W47511   3.717  28.299  18.854 -0.1756  0.1494 -0.1366
46648W        W47512   5.628  25.001  17.595  0.1345  0.2310  0.0311
46649W        W47513   6.918  24.622  17.384 -0.2082  0.2651 -0.2227
46650W        W47514   4.642  23.354  19.126  0.1934  0.5247 -0.0679
46651W        W47515   6.334  18.424  15.631 -0.0580 -0.1621  0.1221
46652W        W47516   3.993  26.515  14.125  0.2741  0.0393  0.1993
46653W        W47517   2.724  22.335  13.468  0.1606 -0.4114 -0.0554
46654W        W47518   5.987  25.830  17.185  0.2240  0.1266  0.3979
46655W        W47519   1.296  23.675  14.949 -0.0842 -0.3390  0.0119
46656W        W47520   5.593  24.975  18.886  0.2005  0.0653 -0.0790
46657W        W47521   5.301  20.891  16.192 -0.3123 -0.1652 -0.2544
46658W        W47522   7.638  23.919  14.811  0.0741  0.0564  0.0522
46659W        W47523   8.763  24.853  16.584  0.1417  0.2345 -0.1004
46660W        W47524   7.532  23.001  14.222 -0.1309 -0.0163  0.0810
46661W        W47525   6.128  26.764  17.302 -0.0212 -0.1527 -0.1492
46662W        W47526   8.019  23.318  14.531  0.0463  0.0632  0.5223
46663W        W47527   5.314  25.536  18.237  0.0432  0.1415  0.3538
46664W        W47528   8.701  23.936  17.207  0.1403 -0.0275 -0.1907
46665W        W47529   6.014  23.538  14.963  0.1613 -0.0473  0.1784
46666W        W47530   5.245  21.826  16.016 -0.2210  0.0111  0.1430
46667W        W47531   4.486  24.619  18.871  0.3346 -0.1305 -0.0051
46668W        W47532   6.125  21.954  15.724  0.0739  0.1101 -0.1924
46669W        W47533   3.322  20.399  15.168 -0.3525 -0.0755 -0.1619
46670W        W47534   4.218  23.783  18.249  0.0145 -0.2000  0.0493
46671W        W47535   7.824  23.770  13.527  0.1495  0.1834 -0.2727
46672W        W47536   6.459  24.672  16.663  0.0805  0.0429 -0.2774
46673W        W47537   5.649  25.460  18.942 -0.0755 -0.0258 -0.1653
46674W        W47538   8.239  24.473  19.061  0.0323 -0.0287 -0.1520
46675W        W47539   7.576  21.031  17.089 -0.1466  0.0249  0.0245
46676W        W47540   9.536  22.380  15.310 -0.1059  0.0529 -0.3736
46677W        W47541   9.496  22.753  15.976 -0.0948  0.4135 -0.0229
46678W        W47542   0.808  25.015  16.903  0.1069 -0.2580  0.2807
46679W        W47543   6.940  21.825  13.005  0.0182 -0.2554 -0.1437
46680W        W47544   2.965  20.952  16.817  0.3012 -0.0342 -0.1390
46681W        W47545   8.486  22.835  17.511  0.0090  0.1193 -0.2704
46682W        W47546   6.014  23.514  15.839  0.0470  0.0388 -0.2817
46683W        W47547   7.549  24.868  17.702 -0.0712  0.0639  0.0545
46684W        W47548   2.828  22.167  14.741  0.0230  0.3448  0.1186
46685W        W47549   6.760  23.209  18.480 -0.5501 -0.1741 -0.1944
46686W        W47550   5.151  25.030  14.969 -0.1508  0.0131  0.0724
46687W        W47551   4.095  23.207  15.744  0.1233 -0.0085 -0.1528
46688W        W47552   7.870  21.473  15.797  0.0266 -0.0193  0.2699
46689W        W47553   7.547  22.947  13.129 -0.0368  0.0473 -0.1877
46690W        W47554   7.652  23.134  17.279 -0.0152 -0.1038 -0.0166
46691W        W47555   7.915  24.943  18.877 -0.1030  0.1325 -0.4001
46692W        W47556   5.588  22.740  15.427 -0.1538 -0.1304 -0.0086
46693W        W47557   5.866  23.855  19.451  0.2878  0.4219 -0.1100
46694W        W47558   7.911  20.807  17.387 -0.2444 -0.2537  0.0138
46695W        W47559   5.410  21.413  17.091 -0.1832  0.2415 -0.0270
46696W        W47560   5.042  22.927  17.557 -0.2106  0.1965 -0.1293
46697W        W47561   5.731  26.296  16.583  0.1388  0.2888 -0.0480
46698W        W47562   9.428  22.047  16.982 -0.2228  0.1377  0.1147
46699W        W47563   4.586  26.699  17.966 -0.0015 -0.0602 -0.1743
46700W        W47564   8.068  23.080  14.107  0.0106  0.1134  0.1175
46701W        W47565   3.968  25.901  16.270  0.1048 -0.1649 -0.0918
46702W        W47566   7.234  23.947  18.412  0.0622  0.1094  0.0059
46703W        W47567   6.009  24.194  17.993  0.0058  0.1575  0.4170
46704W        W47568   6.323  23.794  17.863 -0.0083 -0.3106 -0.1494
46705W        W47569   8.864  23.209  13.489 -0.0246 -0.2153  0.0241
46706W        W47570   5.913  20.538  15.093 -0.1455 -0.1307  0.0650
46707W        W47571   6.217  25.902  15.039  0.3204  0.1165 -0.0300
46708W        W47572   5.949  25.451  16.681  0.2041 -0.1122  0.0554
46709W        W47573   5.571  23.370  16.182 -0.0431  0.3231 -0.1496
46710W        W47574   4.630  23.491  15.729 -0.0966  0.1176  0.0632
46711W        W47575   4.916  21.040  15.875 -0.3240  0.0490 -0.0339
46712W        W47576   6.496  24.818  18.435  0.0388 -0.1014 -0.1834
46713W        W47577   7.888  24.471  16.677  0.1002 -0.3499 -0.0577
46714W        W47578   4.820  24.909  13.978 -0.0537  0.0914  0.0864
46715W        W47579   6.190  26.226  17.413 -0.0324 -0.0380  0.1366
46716W        W47580   6.522  27.382  20.283  0.0081 -0.1360  0.1704
46717W        W47581   5.377  24.180  19.632  0.0033  0.2600  0.0252
46718W        W47582   4.613  26.473  18.437  0.0728  0.0953 -0.2115
46719W        W47583   7.999  21.892  15.510 -0.0660 -0.3155  0.0989
46720W        W47584   5.397  22.608  16.052  0.0918 -0.0855  0.0026
46721W        W47585   3.178  24.179  16.296  0.0168  0.0876  0.3048
46722W        W47586   6.634  21.191  16.164 -0.0784  0.2984 -0.1793
46723W        W47587   5.757  23.861  15.320  0.2310 -0.1392  0.0008
46724W        W47588   6.603  25.884  17.973 -0.2403 -0.0193  0.0593
46725W        W47589   5.968  25.291  13.028  0.1212 -0.2332 -0.1447
46726W        W47590   1.230  25.243  17.050  0.0284  0.2359  0.1061
46727W        W47591   6.794  22.930  16.012 -0.1046 -0.1052 -0.3375
46728W        W47592   4.565  25.955  16.513 -0.1941  0.0794  0.0865
46729W        W47593   3.000  26.214  13.619  0.0653 -0.0184  0.0327
46730W        W47594   9.388  25.265  18.731  0.0523  0.0872  0.1760
46731W        W47595   5.129  22.583  16.590 -0.0233 -0.0891 -0.0912
46732W        W47596   6.855  21.767  16.159  0.1297 -0.0240  0.0829
46733W        W47597   6.791  26.395  15.714 -0.0380 -0.3619  0.1664
46734W        W47598   6.247  26.394  16.396 -0.1440 -0.3514  0.2072
46735W        W47599   3.897  25.615  17.003 -0.0932 -0.2516 -0.0506
46736W        W47600   6.993  27.805  15.366  0.3964  0.2274  0.0309
46737W        W47601   3.631  19.886  14.339  0.3763 -0.2299 -0.1239
46738W        W47602   4.838  25.647  17.931 -0.0742 -0.1181 -0.0138
46739W        W47603   5.584  22.412  16.461 -0.0171  0.0277 -0.1210
46740W        W47604   4.585  24.020  18.509 -0.3512  0.0403 -0.2851
46741W        W47605   7.779  22.712  15.741  0.0911 -0.4086  0.1415
46742W        W47606   4.502  24.611  16.523 -0.0342  0.1162  0.1874
46743W        W47607   4.394  23.084  14.934 -0.0729  0.1622 -0.0117
46744W        W47608   6.763  23.773  15.407 -0.0914  0.2538 -0.2602
46745W        W47609   4.327  22.540  15.751 -0.2880 -0.0260 -0.1282
46746W        W47610   4.729  24.516  18.460 -0.1427 -0.1607  0.1093
46747W        W47611   4.261  23.238  16.897 -0.2084 -0.0341 -0.0167
46748W        W47612   5.835  23.152  18.194  0.0700 -0.2917 -0.0476
46749W        W47613   6.125  25.718  18.822  0.1960  0.1220  0.0670
46750W        W47614   7.698  24.643  19.272  0.0019  0.2518 -0.1116
46751W        W47615   6.787  22.256  15.262  0.0397  0.0987 -0.4024
46752W        W47616   7.237  24.222  16.075 -0.0228  0.1326 -0.1620
46753W        W47617   3.693  23.892  17.501 -0.0380 -0.0852 -0.0175
46754W        W47618   2.318  24.235  17.177  0.0976  0.0928  0.4563
46755W        W47619   3.806  23.542  13.712  0.1810  0.0980 -0.1929
46756W        W47620   6.232  25.215  15.623  0.0500  0.1251 -0.0584
46757W        W47621   7.644  24.009  16.871  0.0244 -0.0627 -0.2654
46758W        W47622   5.619  28.440  16.002  0.0697 -0.0561  0.6045
46759W        W47623   4.397  23.950  15.762 -0.0881 -0.1236  0.2197
46760W        W47624   6.992  23.260  17.200  0.4662 -0.3013  0.1002
46761W        W47625   6.588  21.966  13.861 -0.1190  0.1791  0.0947
46762W        W47626   3.267  26.980  18.533  0.0225 -0.0508 -0.2095
46763W        W47627   4.671  23.011  16.730  0.0343 -0.0082 -0.0339
46764W        W47628   1.698  24.756  15.274 -0.0686  0.1585  0.1245
46765W        W47629   7.139  21.587  19.575 -0.0698  0.2325  0.0668
46766W        W47630   5.033  23.439  16.125  0.0519 -0.1357 -0.2436
46767W        W47631   7.377  21.975  11.572 -0.0426  0.0502 -0.2493
46768W        W47632   8.198  23.224  14.998 -0.0510  0.2369 -0.0668
46769W        W47633   4.596  22.559  14.939  0.2941 -0.0369 -0.0269
46770W        W47634   3.861  22.393  15.933 -0.3779 -0.2143 -0.0524
46771W        W47635   5.149  24.196  17.393 -0.1103  0.1615  0.0644
46772W        W47636   5.465  21.606  13.629  0.1371  0.1887 -0.3652
46773W        W47637   4.888  19.671  14.134  0.2677 -0.2590 -0.2996
46774W        W47638   4.241  24.481  16.114 -0.0653  0.1822 -0.2961
46775W        W47639   6.007  24.092  16.867 -0.2864 -0.3064  0.0893
46776W        W47640   4.911  24.928  14.528 -0.1216 -0.1665  0.3084
46777W        W47641   2.544  27.150  16.825 -0.1166  0.2018  0.1987
46778W        W47642   5.590  22.693  21.078  0.1033 -0.3433  0.2038
46779W        W47643   5.368  23.764  19.292  0.0123 -0.0917 -0.0026
46780W        W47644   5.526  23.030  19.654  0.1056  0.2136 -0.2752
46781W        W47645   4.879  21.062  16.365  0.1934 -0.0593  0.3196
46782W        W47646   6.879  25.017  16.978 -0.0103  0.0815  0.2014
46783W        W47647   6.876  19.358  17.253  0.0579 -0.0694 -0.0795
46784W        W47648   5.490  24.448  14.140 -0.1076 -0.2453  0.0272
46785W        W47649  11.099  20.961  16.347 -0.2133  0.1929  0.3973
46786W        W47650   3.748  24.226  14.224 -0.0278 -0.2148  0.2657
46787W        W47651   9.201  23.824  18.714  0.0690 -0.1555  0.3379
46788W        W47652   9.834  20.863  15.474  0.4771  0.3499  0.1055
46789W        W47653   3.576  22.415  15.489 -0.1519  0.2631  0.1119
46790W        W47654   5.964  24.510  19.908 -0.1282  0.1066  0.2976
46791W        W47655   4.663  22.727  14.074  0.1851  0.0128 -0.1577
46792W        W47656   3.158  25.816  19.984  0.2487  0.3543  0.1231
46793W        W47657   8.559  20.925  16.307 -0.2687  0.1877 -0.2309
46794W        W47658   5.120  24.271  15.652  0.4352 -0.1019  0.1578
46795W        W47659   3.828  23.202  15.357 -0.2857 -0.1195  0.0802
46796W        W47660   2.421  25.869  17.584 -0.2585  0.2566 -0.0383
46797W        W47661   3.231  23.759  15.428 -0.3332 -0.3021  0.2576
46798W        W47662   3.067  24.933  19.614  0.0586  0.0232  0.0479
46799W        W47663   8.512  22.544  17.960  0.0856 -0.2308 -0.1432
46800W        W47664   9.478  23.670  15.396 -0.0694  0.0059  0.0797
46801W        W47665   5.448  21.943  15.163 -0.0158 -0.1013 -0.0753
46802W        W47666   5.982  25.069  13.479 -0.0305 -0.2352 -0.4103
46803W        W47667   7.048  26.287  12.860  0.0125  0.0985 -0.1360
46804W        W47668   6.824  22.664  18.857  0.0531 -0.0935 -0.0005
46805W        W47669   5.530  23.275  19.144 -0.0591  0.2257  0.0332
46806W        W47670   8.648  23.997  17.845 -0.0070 -0.0661  0.0325
46807W        W47671   9.013  22.389  17.035 -0.3625 -0.0597 -0.1320
46808W        W47672   6.465  24.495  17.956  0.0945  0.2028  0.1891
46809W        W47673   3.141  21.906  16.363 -0.3393 -0.0609  0.3872
46810W        W47674   8.235  24.106  13.549 -0.0152  0.2000  0.0713
46811W        W47675   4.648  21.246  20.607  0.1186 -0.1184  0.1807
46812W        W47676   6.045  26.450  16.981  0.1535 -0.2423 -0.1771
46813W        W47677   8.069  22.214  14.278 -0.1602 -0.3002 -0.3199
46814W        W47678   4.534  24.472  15.519 -0.0140  0.0564  0.0257
46815W        W47679   7.268  23.132  15.030 -0.1760 -0.2428 -0.0029
46816W        W47680   5.608  22.818  18.862 -0.3538  0.1942  0.0772
46817W        W47681   5.813  25.065  19.389  0.0050  0.1957  0.1054
46818W        W47682   3.757  24.212  13.483 -0.0903  0.1293 -0.3389
46819W        W47683   6.648  22.942  15.511 -0.0817  0.3834  0.0327
46820W        W47684   6.068  23.351  17.759 -0.0567  0.2401 -0.0932
46821W        W47685   3.854  25.160  16.766  0.3668  0.0080  0.2735
46822W        W47686   5.768  24.912  14.387  0.1291  0.0774 -0.0991
46823W        W47687   4.558  20.452  16.945  0.2080  0.1532  0.1484
46824W        W47688   4.257  24.783  18.372 -0.0597  0.1862  0.2050
46825W        W47689   5.130  27.418  17.592  0.1085  0.2031  0.0540
46826W        W47690   6.789  25.323  15.696 -0.3363 -0.0848  0.0356
46827W        W47691   2.402  27.094  17.360 -0.1641 -0.0456 -0.2624
46828W        W47692   8.883  22.686  19.948 -0.1036 -0.1196  0.1823
46829W        W47693   5.774  21.700  14.495  0.2433 -0.2914 -0.2382
46830W        W47694   5.454  22.813  17.939  0.1135  0.3052  0.3545
46831W        W47695   5.499  21.970  14.112  0.2742 -0.2774 -0.2136
46832W        W47696   6.249  23.667  16.961  0.0419 -0.1482 -0.1116
46833W        W47697   5.303  23.521  18.827  0.0853 -0.0413 -0.0055
46834W        W47698   7.541  26.112  16.927  0.4246  0.1120 -0.0636
46835W        W47699   4.098  20.538  15.401  0.0057 -0.1372  0.1368
46836W        W47700   7.016  23.604  14.817 -0.1326  0.0916 -0.1507
46837W        W47701   6.636  27.323  16.523  0.3435 -0.0692  0.1386
46838W        W47702   6.814  23.918  16.972  0.1836  0.3955 -0.0306
46839W        W47703   5.167  25.076  17.203  0.0841  0.1543  0.2886
46840W        W47704   1.596  25.120  14.511 -0.0165 -0.0171  0.3139
46841W        W47705   8.296  26.357  14.718 -0.2343  0.0094  0.0282
46842W        W47706   9.176  20.985  14.269 -0.1900 -0.0649  0.1741
46843W        W47707   5.673  21.057  15.718  0.0136  0.0613  0.0898
46844W        W47708   8.625  23.837  14.750 -0.0277  0.1573 -0.0588
46845W        W47709   6.353  23.828  16.485 -0.1701 -0.0282  0.0724
46846W        W47710   5.631  24.154  15.756 -0.0322 -0.0549  0.0269
46847W        W47711   5.126  26.076  20.227 -0.2318  0.3073  0.0086
46848W        W47712   7.364  23.693  16.632  0.2115 -0.1249  0.2594
46849W        W47713   7.846  23.555  17.083  0.1972  0.1539  0.0486
46850W        W47714   2.241  26.338  15.930 -0.2580 -0.1520 -0.0776
46851W        W47715   4.343  25.416  19.246  0.1563 -0.0624  0.1076
46852W        W47716   3.351  25.924  13.320 -0.1408 -0.2007 -0.2079
46853W        W47717   3.747  24.285  17.188 -0.0592  0.1529  0.3061
46854W        W47718   3.440  22.860  15.720 -0.0988  0.4615  0.1520
46855W        W47719   3.557  24.577  15.295  0.0031 -0.1862  0.0276
46856W        W47720   7.801  23.257  13.447  0.1645  0.1553  0.1472
46857W        W47721   7.841  26.141  18.461 -0.1101  0.2910 -0.0398
46858W        W47722   6.637  25.068  17.445  0.2670 -0.1580 -0.0871
46859W        W47723   5.930  22.801  16.664  0.2393  0.0030 -0.0864
46860W        W47724   6.554  26.591  17.132 -0.1052  0.0146  0.0447
46861W        W47725   7.800  25.122  19.581  0.3375  0.0756  0.2415
46862W        W47726   4.666  22.586  16.302 -0.0338  0.1391 -0.0781
46863W        W47727   6.787  22.716  18.313 -0.1295  0.0295 -0.1184
46864W        W47728   6.540  24.007  15.041  0.1874 -0.0092  0.2225
46865W        W47729   1.521  24.327  15.709 -0.0946  0.0014 -0.2191
46866W        W47730   5.153  26.131  16.780 -0.3032 -0.0029 -0.0763
46867W        W47731   8.093  22.809  13.615  0.0910  0.3906  0.0613
46868W        W47732   6.494  24.620  16.142  0.2133  0.0249  0.1548
46869W        W47733   3.643  23.336  16.803 -0.1800 -0.1789  0.1312
46870W        W47734  10.521  24.170  14.091 -0.0489  0.2153 -0.0553
46871W        W47735   9.011  23.430  18.921 -0.2404 -0.0289  0.0638
46872W        W47736   4.920  24.807  17.596 -0.2052  0.3902  0.3050
46873W        W47737   3.403  24.613  18.865  0.0906 -0.0838 -0.0336
46874W        W47738   8.625  22.201  14.294 -0.0095  0.0326  0.0425
46875W        W47739   1.816  23.652  15.188 -0.0236 -0.2940  0.0373
46876W        W47740   5.780  26.484  17.504  0.2834 -0.0924 -0.1632
46877W        W47741   3.950  21.306  16.657 -0.0825  0.0951 -0.1014
46878W        W47742   4.514  21.375  16.669 -0.2495 -0.1979  0.1064
46879W        W47743   4.771  22.962  14.571  0.2343 -0.3721 -0.0340
46880W        W47744   5.579  26.164  17.145 -0.2800 -0.0927  0.0934
46881W        W47745   6.116  22.512  14.633 -0.2866 -0.2166 -0.3384
46882W        W47746   5.921  22.252  16.705 -0.1143 -0.2740 -0.1635
46883W        W47747   8.876  23.803  19.216  0.0226 -0.2513  0.0200
46884W        W47748   8.242  22.703  15.939  0.0814  0.1172  0.2860
46885W        W47749   1.932  23.467  15.690  0.1275  0.0372  0.0078
46886W        W47750   3.177  26.415  17.133 -0.3797 -0.2979 -0.2510
46887W        W47751   4.777  21.163  17.744  0.1426 -0.2148  0.0518
46888W        W47752   3.703  23.878  18.222  0.1239 -0.2352  0.2824
46889W        W47753   4.760  26.057  17.111 -0.2495 -0.0944 -0.1222
46890W        W47754   8.033  25.275  17.148 -0.2256  0.4900 -0.4126
46891W        W47755   5.055  27.035  16.377 -0.6010  0.0062 -0.1938
46892W        W47756   8.495  22.291  17.128 -0.4349 -0.0739  0.0091
46893W        W47757   5.168  22.501  17.343  0.0351  0.0077  0.0868
46894W        W47758   3.518  23.972  14.557 -0.1410 -0.1211  0.0123
46895W        W47759   6.192  24.956  17.737 -0.2187  0.1399  0.0351
46896W        W47760   6.611  24.937  21.906 -0.1556 -0.2168 -0.1387
46897W        W47761   5.915  23.864  16.254  0.1178 -0.0346  0.1229
46898W        W47762   4.253  24.284  17.046  0.1620  0.2270 -0.0965
46899W        W47763   1.541  22.833  15.675  0.0300  0.1142  0.1016
46900W        W47764   1.849  23.705  16.132  0.0869  0.2322  0.1759
46901W        W47765   3.938  21.211  15.923 -0.1419 -0.1495  0.0758
46902W        W47766   5.366  21.609  15.498  0.1978 -0.0736 -0.0058
46903W        W47767   5.582  25.529  16.326  0.1774 -0.1614  0.2292
46904W        W47768   4.948  23.949  16.511  0.2933 -0.3908  0.3178
46905W        W47769   2.485  24.109  16.035  0.1747 -0.0308 -0.0227
46906W        W47770   9.761  23.057  14.879 -0.0884  0.0955  0.0446
46907W        W47771   7.405  24.827  17.231  0.1558 -0.0796 -0.2145
46908W        W47772   8.525  27.059  19.279  0.1772 -0.0243  0.1610
46909W        W47773   3.560  25.123  16.291 -0.2017 -0.1518  0.1657
46910W        W47774   5.039  26.993  16.866 -0.1553 -0.3613 -0.2857
46911W        W47775   5.210  20.395  17.512 -0.0660 -0.1140 -0.1910
46912W        W47776   4.765  24.309  16.084 -0.1478  0.3547  0.1451
46913W        W47777   5.933  22.266  14.218  0.3157 -0.0766 -0.1041
46914W        W47778   4.029  21.842  15.075 -0.0221  0.1425 -0.1934
46915W        W47779   6.056  22.945  20.655  0.0011  0.3545  0.0182
46916W        W47780   6.500  23.170  14.399  0.0657  0.2154  0.0641
46917W        W47781   7.606  26.913  20.036 -0.1134  0.1515  0.0943
46918W        W47782   6.064  25.214  18.965 -0.1833  0.0252 -0.3051
46919W        W47783   7.253  23.704  15.291 -0.0834 -0.1757  0.1069
46920W        W47784   4.103  27.160  17.065 -0.1460  0.0384  0.1798
46921W        W47785   6.449  27.067  14.342  0.0589 -0.1780  0.0168
46922W        W47786   4.531  23.117  17.546 -0.0098  0.4896  0.2262
46923W        W47787   6.181  21.446  14.354  0.0980 -0.2147  0.0123
46924W        W47788   7.001  24.079  15.027  0.0672 -0.1939 -0.1190
46925W        W47789   4.238  23.547  16.550 -0.0481 -0.0992 -0.2748
46926W        W47790   4.592  22.968  18.010 -0.0675 -0.0723  0.0282
46927W        W47791   3.001  25.478  15.533 -0.0698  0.0950 -0.1973
46928W        W47792   7.617  23.490  14.984 -0.0779 -0.1643 -0.3504
46929W        W47793   2.460  24.734  17.413 -0.3257 -0.0967  0.4525
46930W        W47794   5.115  22.558  15.411  0.2544 -0.1026  0.0383
46931W        W47795   3.515  21.442  14.409  0.0750 -0.1646  0.0380
46932W        W47796   5.622  24.261  16.526 -0.0589 -0.4291 -0.0280
46933W        W47797   2.032  23.570  14.018 -0.0682 -0.0936 -0.3036
46934W        W47798   7.447  22.010  18.722  0.1097 -0.0080  0.0264
46935W        W47799   5.983  23.939  14.200 -0.0066  0.3325  0.1599
46936W        W47800   9.169  24.540  18.313  0.0010  0.1517 -0.0377
46937W        W47801   3.896  22.912  17.019  0.2305 -0.2306 -0.1022
46938W        W47802   6.391  26.895  14.819 -0.1217  0.2638  0.0579
46939W        W47803   4.788  24.496  14.277  0.2699  0.1458  0.0215
46940W        W47804   4.861  25.895  15.510 -0.0843 -0.0798  0.4235
46941W        W47805   7.098  22.551  17.910  0.2197 -0.0502  0.0707
46942W        W47806   5.473  22.934  16.411  0.0367  0.2080  0.1124
46943W        W47807   2.880  23.002  15.675 -0.1758 -0.0701  0.1833
46944W        W47808   4.678  24.109  14.587 -0.2295 -0.0582  0.3341
46945W        W47809   9.002  24.764  19.017  0.0600 -0.0944 -0.0585
46946W        W47810   3.114  21.533  17.050 -0.1115  0.2640 -0.1851
46947W        W47811   7.329  22.931  15.994  0.0162  0.2286  0.0673
46948W        W47812   3.255  24.360  17.134  0.1430  0.0886 -0.0444
46949W        W47813   8.924  24.883  18.017  0.1378 -0.1066  0.1408
46950W        W47814   5.628  24.983  15.255 -0.0277  0.0817 -0.3569
46951W        W47815   6.062  25.157  17.281 -0.0123 -0.0742 -0.2448
46952W        W47816   6.556  19.147  16.291  0.1503 -0.0645  0.1836
46953W        W47817   7.160  21.842  17.295 -0.0913 -0.1839 -0.0298
46954W        W47818   3.815  23.432  14.566  0.1967  0.0058  0.0518
46955W        W47819   8.247  21.465  15.444 -0.1403 -0.0957 -0.1081
46956W        W47820   5.410  26.048  16.317  0.0917 -0.0022  0.1505
46957W        W47821   7.614  26.636  16.979 -0.1546 -0.1577  0.3408
46958W        W47822   5.354  24.675  14.578 -0.2059 -0.1436 -0.0441
46959W        W47823   5.026  25.151  21.444  0.1692  0.0351 -0.1172
46960W        W47824   6.585  23.022  19.167 -0.0305 -0.1776  0.0300
46961W        W47825   8.690  23.959  18.737 -0.4936  0.0554 -0.0905
46962W        W47826   7.348  21.364  17.418 -0.1026 -0.0381 -0.1051
46963W        W47827   6.193  24.237  19.098 -0.0342  0.0790 -0.1707
46964W        W47828   5.761  27.181  17.159 -0.1624 -0.0868 -0.1461
46965W        W47829   5.655  25.731  15.868 -0.0091 -0.1084 -0.0523
46966W        W47830   3.405  24.640  15.852 -0.0785 -0.0838  0.1258
46967W        W47831   6.074  25.519  19.835  0.0280 -0.1183 -0.1070
46968W        W47832   5.944  24.630  16.793  0.1703 -0.0597  0.2277
46969W        W47833   5.294  25.597  15.515  0.0765 -0.1379  0.1584
46970W        W47834   6.396  25.282  20.164 -0.2008 -0.1888  0.3262
46971W        W47835   3.624  24.381  17.713  0.1972 -0.1173  0.0722
46972W        W47836   8.279  24.099  16.663 -0.2109 -0.2681  0.0180
46973W        W47837   6.429  24.548  19.404  0.0512 -0.1296 -0.3424
46974W        W47838   6.343  25.176  16.849 -0.2290 -0.1810 -0.1772
46975W        W47839   6.601  23.397  16.147  0.1355  0.1116  0.0513
46976W        W47840   2.220  26.190  15.261 -0.0589 -0.1186 -0.1014
46977W        W47841   4.283  27.685  16.124 -0.0864  0.0302  0.3069
46978W        W47842   7.033  22.322  17.155 -0.0380 -0.1888 -0.0400
46979W        W47843   3.341  23.916  13.543 -0.1992  0.0217 -0.2366
46980W        W47844   3.240  26.226  19.001  0.3510  0.2785  0.0132
46981W        W47845   6.523  24.653  13.798 -0.0447  0.3068  0.1206
46982W        W47846   5.214  25.284  16.743 -0.1343 -0.3322 -0.1139
46983W        W47847   2.023  26.731  21.286 -0.2554 -0.0318  0.3277
46984W        W47848   3.215  25.073  20.154  0.1399  0.1424  0.0472
46985W        W47849   7.866  22.021  20.050  0.3762 -0.0687 -0.1002
46986W        W47850   5.987  24.391  22.320  0.0038 -0.2848  0.0616
46987W        W47851   5.811  23.664  19.004  0.2535  0.0141 -0.1672
46988W        W47852   5.217  23.696  18.345 -0.0942 -0.0307  0.3155
46989W        W47853   4.648  22.973  18.515  0.2760 -0.2499 -0.3317
46990W        W47854   6.535  23.026  21.846 -0.0090 -0.0170  0.2772
46991W        W47855   6.560  27.716  21.280  0.1447  0.1694 -0.2423
46992W        W47856   3.855  23.243  22.257 -0.1943  0.0230 -0.1205
46993W        W47857   5.127  21.468  23.326 -0.0215 -0.1999  0.4434
46994W        W47858   7.621  22.591  17.385  0.0861  0.1884  0.1779
46995W        W47859   7.668  23.945  17.422  0.1241  0.0968  0.0839
46996W        W47860   6.528  23.030  20.812  0.1155  0.0396 -0.1402
46997W        W47861   3.465  23.699  20.353  0.0228  0.1510 -0.1915
46998W        W47862   4.246  25.744  20.268 -0.3413 -0.4086 -0.0405
46999W        W47863   8.197  23.782  20.257 -0.1580 -0.1463  0.0259
47000W        W47864   2.632  22.937  21.633 -0.2845 -0.0211 -0.2609
47001W        W47865   4.752  25.490  20.075  0.1168 -0.1433  0.0522
47002W        W47866   3.851  25.622  20.663 -0.0181  0.1625  0.0574
47003W        W47867   6.025  25.506  22.808  0.1670 -0.0354  0.2897
47004W        W47868   5.648  24.302  20.829 -0.0090  0.1283 -0.0824
47005W        W47869   4.375  24.940  20.293 -0.2354  0.2387  0.0546
47006W        W47870   4.280  25.732  21.277  0.0799 -0.2434 -0.1636
47007W        W47871   4.498  21.867  20.292 -0.2327  0.2466 -0.0047
47008W        W47872   5.644  24.730  22.123 -0.0246  0.0995  0.0575
47009W        W47873   8.385  23.928  22.846  0.3775  0.0292 -0.1012
47010W        W47874   2.845  25.451  20.864  0.1769  0.0913 -0.1924
47011W        W47875   6.506  25.511  21.986 -0.0328  0.0182 -0.2479
47012W        W47876   3.997  25.085  21.478  0.1072 -0.1568  0.1179
47013W        W47877   4.153  26.572  20.570  0.1713  0.1287  0.0154
47014W        W47878   8.795  24.533  24.296 -0.1255 -0.0663 -0.2413
47015W        W47879   7.289  25.292  22.211 -0.1294  0.0332  0.2020
47016W        W47880   6.236  24.373  18.551 -0.1888  0.1167  0.1440
47017W        W47881   3.105  23.826  20.901 -0.0553 -0.0611  0.1168
47018W        W47882   5.040  26.673  22.669 -0.2220 -0.2897  0.1881
47019W        W47883   4.112  23.745  20.762  0.2574 -0.0817  0.2809
47020W        W47884   7.315  22.910  19.803  0.0828 -0.3122 -0.1266
47021W        W47885   5.553  25.135  23.473 -0.2028 -0.1073  0.1029
47022W        W47886   9.156  22.931  19.512 -0.3298 -0.0305 -0.2201
47023W        W47887   9.475  23.192  16.714 -0.2600 -0.2497  0.1974
47024W        W47888   6.640  24.381  21.080 -0.2150 -0.0927  0.1611
47025W        W47889   5.132  23.624  20.559 -0.3633 -0.0901 -0.2561
47026W        W47890   6.327  25.706  17.588  0.0691  0.2014  0.0606
47027W        W47891   4.189  23.942  17.396 -0.0108  0.0205  0.2533
47028W        W47892   5.630  26.278  21.021  0.1538  0.1084  0.4345
47029W        W47893   6.912  23.300  19.991  0.0595  0.0717 -0.0742
47030W        W47894   9.631  24.446  18.036 -0.1020 -0.0113  0.1146
47031W        W47895   7.081  22.865  21.268  0.2968  0.0393  0.0860
47032W        W47896   9.052  24.313  19.257 -0.3829  0.0942 -0.2480
47033W        W47897   3.819  25.639  21.277 -0.1451 -0.2506 -0.0587
47034W        W47898   3.559  24.893  19.727  0.0451  0.0983 -0.1463
47035W        W47899   7.740  25.684  22.103  0.0996 -0.3743  0.2346
47036W        W47900   7.562  21.591  18.382  0.0130 -0.0298  0.0399
47037W        W47901   9.491  22.789  18.124 -0.3040 -0.0174 -0.1866
47038W        W47902   3.997  24.657  18.800 -0.1039 -0.1788 -0.0339
47039W        W47903   5.394  23.117  18.488  0.1068 -0.3341  0.1155
47040W        W47904   5.935  24.345  20.400 -0.0480  0.1063  0.0415
47041W        W47905   1.185  25.109  20.227 -0.0529  0.0770  0.0872
47042W        W47906   4.950  25.453  20.565  0.3059  0.0187  0.1225
47043W        W47907   8.664  22.778  17.029  0.1321 -0.0056  0.1963
47044W        W47908   4.610  24.782  23.003  0.0416  0.1495 -0.4029
47045W        W47909   5.409  25.013  20.098 -0.2010 -0.3533 -0.0520
47046W        W47910   2.207  25.685  21.387  0.1437 -0.2363 -0.1300
47047W        W47911   6.751  22.193  18.175  0.0246 -0.0906  0.0574
47048W        W47912   7.233  21.301  20.994  0.0183 -0.1541  0.0255
47049W        W47913   5.556  24.736  19.715  0.0460 -0.2901 -0.0402
47050W        W47914   5.274  21.886  20.825 -0.1251 -0.0457 -0.1247
47051W        W47915   3.614  25.168  21.128  0.0303 -0.0908 -0.3883
47052W        W47916   4.258  23.326  18.428 -0.2547 -0.0725  0.0648
47053W        W47917   5.522  26.988  22.744  0.1203 -0.1460 -0.0627
47054W        W47918   6.112  23.269  19.194  0.1412 -0.1340 -0.2143
47055W        W47919   4.812  24.901  19.504  0.0566 -0.1191  0.2411
47056W        W47920   5.305  21.926  22.507 -0.0791  0.0598 -0.1879
47057W        W47921   9.740  25.046  19.005 -0.1631  0.1202 -0.0393
47058W        W47922   6.310  23.861  20.021  0.0663  0.0253 -0.0321
47059W        W47923   2.251  22.459  17.515 -0.1846  0.0069 -0.0260
47060W        W47924   6.525  24.295  19.933 -0.0955  0.1766 -0.4025
47061W        W47925   7.458  25.101  18.716  0.0581 -0.1238  0.1493
47062W        W47926   5.136  26.553  21.003  0.0559 -0.0495  0.0701
47063W        W47927   4.952  23.802  23.137  0.2168 -0.1458 -0.1879
47064W        W47928   4.257  24.818  21.835 -0.1126 -0.0506  0.0792
47065W        W47929   4.636  22.217  19.803  0.1503 -0.0096 -0.1623
47066W        W47930   5.321  21.712  22.967  0.0065 -0.2031  0.0636
47067W        W47931   6.880  20.997  21.664  0.3219 -0.1522 -0.0175
47068W        W47932   6.541  21.442  20.426  0.1004  0.1527 -0.0033
47069W        W47933   6.834  23.258  20.495  0.1211  0.0031  0.1283
47070W        W47934   7.200  22.414  23.026 -0.1185  0.2846 -0.1507
47071W        W47935   8.202  23.768  23.790  0.0190 -0.1586 -0.0015
47072W        W47936   5.813  23.979  21.243  0.1708 -0.3983 -0.0734
47073W        W47937   7.962  22.233  17.391  0.2116 -0.2501 -0.1444
47074W        W47938   6.164  22.269  23.025 -0.1218  0.0860  0.1291
47075W        W47939   1.539  25.864  20.662 -0.3704 -0.0725 -0.2560
47076W        W47940   5.835  21.269  20.895  0.1206 -0.1490 -0.0775
47077W        W47941   4.950  22.219  22.225 -0.1731  0.0043  0.1099
47078W        W47942   6.577  22.959  17.161  0.0852 -0.2511  0.3192
47079W        W47943  10.112  25.620  18.451  0.2264  0.1133 -0.1536
47080W        W47944   5.497  26.074  21.786  0.1562  0.0257 -0.0533
47081W        W47945   2.863  22.579  18.330  0.2019  0.1685  0.1207
47082W        W47946   4.921  22.454  20.160  0.1927 -0.4758  0.2867
47083W        W47947   7.076  25.127  17.812  0.0847  0.0471  0.1534
47084W        W47948   6.847  25.067  20.360  0.2561 -0.0383  0.3506
47085W        W47949   6.660  23.645  22.411  0.1894  0.1775  0.0803
47086W        W47950   7.885  26.325  19.186 -0.0494  0.2913  0.0665
47087W        W47951   6.615  25.980  21.800  0.1800  0.0525  0.0545
47088W        W47952   3.343  26.511  21.900  0.3235 -0.0473  0.0404
47089W        W47953   6.565  23.764  20.465 -0.1208 -0.0764  0.1447
47090W        W47954   6.311  22.462  24.359  0.1568  0.3143  0.0982
47091W        W47955   6.435  22.551  19.178  0.0850  0.2652  0.1346
47092W        W47956   4.003  22.003  22.280  0.0974  0.0240  0.0006
47093W        W47957   4.269  23.050  20.750 -0.2479  0.2045 -0.0360
47094W        W47958   7.318  23.231  16.766  0.4854  0.0131  0.1413
47095W        W47959   6.988  23.754  20.183  0.1963 -0.1703 -0.0733
47096W        W47960   3.822  26.921  21.763 -0.2071  0.0203 -0.1436
47097W        W47961  11.558  22.471  17.865 -0.4116  0.0507  0.2350
47098W        W47962   4.661  25.389  21.023 -0.0304 -0.2535  0.2687
47099W        W47963   5.567  23.817  21.604 -0.0502  0.1175 -0.1820
47100W        W47964   8.310  22.826  21.967  0.0621 -0.0772  0.0416
47101W        W47965   6.817  24.782  22.736  0.0681 -0.1690  0.1627
47102W        W47966   8.419  24.902  17.308 -0.2074  0.3671 -0.1620
47103W        W47967   6.289  23.721  19.182 -0.0703  0.2023 -0.2632
47104W        W47968   6.452  23.465  17.427 -0.3310  0.0486 -0.0671
47105W        W47969   3.450  25.409  18.366  0.0768  0.0263 -0.1124
47106W        W47970   8.726  24.237  21.946  0.1119 -0.0083  0.0490
47107W        W47971   5.828  24.833  20.420 -0.4236  0.1054 -0.1469
47108W        W47972   7.164  25.572  21.315  0.0070 -0.0800 -0.1816
47109W        W47973   4.197  24.141  22.188 -0.2274  0.2025 -0.1149
47110W        W47974   7.662  26.248  23.520  0.0939 -0.5636 -0.1810
47111W        W47975   8.881  25.353  19.774 -0.1742 -0.1069  0.2165
47112W        W47976   3.892  25.126  18.392  0.1835  0.2899 -0.1888
47113W        W47977   7.386  25.969  20.403 -0.0809  0.0777  0.1466
47114W        W47978   5.377  24.889  21.671  0.0298 -0.1379  0.1141
47115W        W47979   3.651  27.490  21.132 -0.0605  0.0804 -0.0721
47116W        W47980   9.464  20.909  20.451 -0.0794 -0.1991 -0.0299
47117W        W47981   6.099  23.914  18.677 -0.0036 -0.0662 -0.1484
47118W        W47982   4.207  20.997  18.916  0.0472  0.1451 -0.2144
47119W        W47983   5.560  21.354  20.478 -0.2028 -0.0892  0.0687
47120W        W47984   6.393  23.334  20.093  0.1008 -0.1576 -0.1605
47121W        W47985   9.413  23.402  17.572  0.0522  0.0952  0.1525
47122W        W47986   5.410  25.583  21.514 -0.0227 -0.1863  0.0931
47123W        W47987   6.492  24.895  19.826 -0.0589 -0.0743 -0.3149
47124W        W47988   6.105  24.191  22.815 -0.1338 -0.0316 -0.2399
47125W        W47989   4.202  25.155  18.842  0.0736  0.1344  0.5203
47126W        W47990   7.271  24.795  16.767 -0.0070 -0.0008 -0.2141
47127W        W47991   6.218  24.846  22.204 -0.0147  0.1711 -0.0544
47128W        W47992   4.720  22.819  19.200  0.2146  0.0234  0.2153
47129W        W47993   6.576  23.931  18.806  0.0173  0.0393 -0.0566
47130W        W47994   4.067  24.504  20.239  0.0518 -0.1109 -0.2393
47131W        W47995   4.790  26.376  21.393 -0.0907  0.0683  0.2367
47132W        W47996   6.344  23.863  21.272 -0.0839 -0.0022  0.3135
47133W        W47997   7.575  23.814  21.098  0.1605  0.0072 -0.0159
47134W        W47998   6.681  20.436  18.146  0.3189 -0.2138  0.1162
47135W        W47999   6.885  26.519  20.628  0.3423 -0.0584  0.2419
47136W        W48000   3.641  23.399  15.958 -0.5180 -0.0371  0.3877
47137W        W48001   3.862  24.570  21.108 -0.4015  0.2823  0.0908
47138W        W48002   7.924  20.343  22.438  0.0314  0.2728 -0.2190
47139W        W48003   3.609  25.135  20.581 -0.1663 -0.0215  0.1702
47140W        W48004   5.843  24.077  19.990 -0.0686  0.4326 -0.1281
47141W        W48005   5.766  25.464  18.471 -0.1628 -0.1749  0.0317
47142W        W48006   6.173  21.848  19.410 -0.1475  0.2859 -0.0575
47143W        W48007   6.704  23.728  19.760  0.1135 -0.4477  0.2010
47144W        W48008   6.474  25.660  20.544  0.1465 -0.1531 -0.2700
47145W        W48009   8.494  25.063  20.756  0.1435 -0.0601  0.1704
47146W        W48010   9.547  24.334  20.164  0.2462 -0.0279 -0.1247
47147W        W48011   7.489  21.167  23.792 -0.2795  0.3712 -0.2125
47148W        W48012   3.098  23.347  19.476 -0.1902  0.3044 -0.0572
47149W        W48013   4.704  22.766  22.612 -0.0498  0.0852  0.0585
47150W        W48014   5.228  25.785  18.751  0.0775  0.0550 -0.1584
47151W        W48015   5.754  26.126  22.314  0.1152  0.0599 -0.0472
47152W        W48016   7.162  23.255  19.506 -0.1988  0.1492  0.0118
47153W        W48017   4.769  24.245  18.885  0.2590 -0.0335  0.4808
47154W        W48018   8.269  21.516  21.893 -0.4539  0.0440 -0.0299
47155W        W48019   6.054  25.279  22.035 -0.3251 -0.1836  0.3082
47156W        W48020   8.068  24.608  18.550 -0.0004 -0.1001  0.1682
47157W        W48021   4.185  23.508  19.895  0.2131 -0.1271  0.0368
47158W        W48022   8.383  23.039  18.059  0.4545 -0.3215  0.0359
47159W        W48023   5.011  26.090  21.923  0.0789  0.0892  0.1018
47160W        W48024   0.654  26.293  20.618  0.2066  0.1832  0.0888
47161W        W48025   2.052  25.893  18.577 -0.0690  0.1714  0.2695
47162W        W48026   4.529  25.119  19.833  0.2436 -0.0324  0.1850
47163W        W48027   3.369  25.933  20.581 -0.3663 -0.1354  0.1352
47164W        W48028   6.117  26.992  21.061 -0.0281 -0.1583  0.0112
47165W        W48029   8.512  26.063  20.479  0.0477 -0.1840  0.0514
47166W        W48030   7.504  24.195  21.514 -0.1232 -0.0491 -0.1613
47167W        W48031   7.793  24.340  18.871  0.0445  0.0032 -0.1376
47168W        W48032   7.318  23.391  24.023  0.1985 -0.0926 -0.1033
47169W        W48033   7.836  20.603  18.807  0.2134 -0.0241  0.0313
47170W        W48034   4.796  21.925  19.409 -0.1654  0.2417 -0.3278
47171W        W48035   6.691  25.752  21.299  0.0321  0.0900 -0.2305
47172W        W48036   2.271  26.304  20.967 -0.3503  0.0902 -0.0918
47173W        W48037   3.972  23.483  17.239  0.1804  0.0449 -0.3826
47174W        W48038   2.434  23.841  17.444 -0.4048  0.1724  0.1384
47175W        W48039   4.616  24.914  21.277 -0.0254  0.0749 -0.3619
47176W        W48040   5.624  23.383  22.654 -0.1994  0.0579 -0.2317
47177W        W48041   4.140  25.300  21.022  0.2055  0.2463  0.0958
47178W        W48042   5.404  22.393  21.572 -0.0081  0.0007  0.2538
47179W        W48043   6.381  22.923  18.660  0.1232 -0.2608 -0.2671
47180W        W48044   4.381  22.408  22.256 -0.2214  0.1071  0.1516
47181W        W48045   5.211  24.268  19.199 -0.0765  0.0057  0.0067
47182W        W48046   6.051  22.134  19.811  0.1048  0.0545 -0.2176
47183W        W48047   3.979  21.973  20.330 -0.3691 -0.0697 -0.0239
47184W        W48048   6.394  20.507  20.340 -0.0018  0.1300  0.0267
47185W        W48049   9.620  22.631  20.267  0.0393  0.2131 -0.0836
47186W        W48050   3.880  22.643  17.837 -0.0452 -0.0942 -0.0998
47187W        W48051   3.408  21.426  25.098  0.1829 -0.1104  0.0348
47188W        W48052   3.802  25.750  22.219 -0.2735 -0.1161 -0.3149
47189W        W48053   7.194  25.925  19.834  0.0521  0.0667 -0.2061
47190W        W48054   5.568  25.443  19.657  0.1263 -0.0432  0.2125
47191W        W48055   5.882  24.681  17.307  0.0683 -0.0732  0.1247
47192W        W48056   2.600  24.595  19.893 -0.0724 -0.2591 -0.0982
47193W        W48057   3.785  26.982  21.220 -0.2003  0.0110 -0.0026
47194W        W48058   4.092  23.954  21.750 -0.0047 -0.0463 -0.2650
47195W        W48059   6.355  25.149  22.817  0.2090  0.2437  0.0397
47196W        W48060   6.815  22.167  23.472 -0.0525  0.0208 -0.1911
47197W        W48061   7.419  25.582  21.724  0.3735 -0.2584 -0.0550
47198W        W48062   8.870  22.405  18.783  0.1376 -0.0791 -0.0737
47199W        W48063   5.807  25.983  21.400  0.0978 -0.2641  0.1411
47200W        W48064   6.291  25.962  18.405 -0.1322  0.1358  0.1814
47201W        W48065   7.703  24.372  20.383  0.0815 -0.3317 -0.2481
47202W        W48066   6.437  26.459  21.848 -0.0338  0.0105  0.1176
47203W        W48067   7.742  23.379  21.704 -0.2747  0.2621 -0.2263
47204W        W48068   5.749  23.862  22.777 -0.1659  0.3444  0.1516
47205W        W48069   3.012  27.127  19.489 -0.0324 -0.2727  0.4755
47206W        W48070   6.403  21.612  17.360  0.0144  0.2345  0.2686
47207W        W48071   6.028  24.724  18.188  0.0787  0.1594  0.1198
47208W        W48072   3.903  24.361  21.578 -0.0041  0.0724  0.1802
47209W        W48073   3.995  25.971  23.394 -0.0488  0.0844  0.0031
47210W        W48074   4.347  24.416  22.595 -0.4313  0.0870  0.0658
47211W        W48075   8.360  25.437  18.095 -0.0052 -0.2749 -0.0638
47212W        W48076   6.735  22.719  22.501  0.0322 -0.1581 -0.0573
47213W        W48077   7.161  21.833  21.163 -0.2577  0.1516  0.1890
47214W        W48078   5.165  21.352  22.682 -0.1849  0.1354  0.2271
47215W        W48079   3.820  25.592  19.132  0.0748 -0.1323 -0.2760
47216W        W48080   6.840  24.448  18.411 -0.4310  0.2353  0.1765
47217W        W48081   4.807  21.647  22.900 -0.0771 -0.1205  0.0182
47218W        W48082   4.883  23.858  20.961 -0.1664 -0.0604 -0.0197
47219W        W48083   8.481  23.267  18.923 -0.0607  0.2018 -0.0986
47220W        W48084   6.046  20.923  21.615 -0.1326  0.0542 -0.1513
47221W        W48085   9.289  25.802  18.848 -0.0811  0.0277 -0.2830
47222W        W48086   6.316  24.505  21.832  0.2934 -0.2137 -0.0476
47223W        W48087   9.536  23.973  17.674 -0.1604 -0.0146  0.0032
47224W        W48088   4.871  22.534  21.295  0.0993 -0.0128 -0.1418
47225W        W48089   6.217  21.042  17.384  0.0867 -0.1496  0.1540
47226W        W48090   6.602  23.513  20.966  0.0351 -0.1021  0.4842
47227W        W48091   6.678  24.750  21.427  0.2448 -0.0910  0.0765
47228W        W48092   5.262  25.029  19.314  0.0989  0.0567 -0.1015
47229W        W48093   7.711  23.131  18.581 -0.0063 -0.0818  0.3326
47230W        W48094   2.797  24.298  20.247  0.0197  0.5970  0.2060
47231W        W48095   5.731  25.522  17.502 -0.1719  0.0013 -0.1529
47232W        W48096   2.261  25.395  20.875 -0.3689  0.0559 -0.0580
47233W        W48097   3.039  22.878  21.993  0.1154 -0.0617  0.0733
47234W        W48098   3.001  23.775  22.429 -0.1517 -0.3280 -0.0961
47235W        W48099   8.134  26.514  23.535  0.1292  0.1366  0.0130
47236W        W48100   7.554  23.989  22.487 -0.1791 -0.1917 -0.2699
47237W        W48101   7.279  23.028  18.284 -0.5002 -0.1787 -0.0896
47238W        W48102   7.085  25.396  20.010  0.1832  0.0341  0.3007
47239W        W48103   5.340  24.695  20.840 -0.0799 -0.0299 -0.3250
47240W        W48104   6.258  21.017  20.661  0.1231 -0.0436  0.2641
47241W        W48105   5.550  25.856  22.802  0.2734  0.3674 -0.0313
47242W        W48106   8.792  21.750  19.887 -0.0817  0.1647  0.2110
47243W        W48107   3.990  24.841  20.570 -0.0123  0.2910 -0.2948
47244W        W48108   5.837  23.673  24.487  0.0735 -0.5596 -0.1470
47245W        W48109   9.447  23.131  22.555 -0.1654  0.0916  0.1501
47246W        W48110   5.604  25.742  20.949  0.1557 -0.0909 -0.1805
47247W        W48111   3.588  23.928  20.822  0.0024  0.1298 -0.2921
47248W        W48112   4.267  25.960  20.802 -0.2852  0.3162 -0.0450
47249W        W48113   7.251  24.921  19.446 -0.2250 -0.1442  0.1064
47250W        W48114   9.708  25.423  20.949  0.0131  0.1276 -0.0695
47251W        W48115   5.283  23.444  21.382 -0.0030 -0.5911 -0.0977
47252W        W48116   9.927  23.491  16.796  0.1953 -0.0097  0.0741
47253W        W48117   4.781  27.053  19.859 -0.1037  0.3575  0.0308
47254W        W48118   7.601  24.294  22.933  0.0460 -0.0953  0.0350
47255W        W48119   5.204  25.435  22.561 -0.0136 -0.3935  0.1831
47256W        W48120   4.822  22.717  22.070  0.0178 -0.1977 -0.2295
47257W        W48121   6.163  26.535  22.228  0.0202  0.1479  0.0780
47258W        W48122   6.488  21.877  23.185  0.1210  0.1065  0.2990
47259W        W48123   6.055  23.059  19.673 -0.1910  0.0800  0.0336
47260W        W48124   3.894  26.031  19.452  0.2341 -0.0709 -0.0409
47261W        W48125   6.583  23.377  17.948 -0.1899  0.2572  0.1499
47262W        W48126   1.966  25.546  20.532  0.0298  0.4067  0.0709
47263W        W48127   4.890  24.395  20.845 -0.2978  0.0878 -0.0236
47264W        W48128   7.368  22.682  16.481  0.0057 -0.0369  0.0606
47265W        W48129   4.660  23.743  20.075 -0.1786  0.1504 -0.0372
47266W        W48130   4.209  28.640  22.907 -0.3784 -0.0852 -0.0152
47267W        W48131   8.294  26.555  20.439 -0.0921  0.2882 -0.2642
47268W        W48132   7.607  22.578  18.283  0.0329  0.1419 -0.0362
47269W        W48133   5.603  24.478  21.333 -0.0498  0.0613  0.2589
47270W        W48134   6.223  24.671  22.776 -0.0289 -0.0779 -0.0638
47271W        W48135   8.348  21.572  18.956  0.2662  0.3269  0.2655
47272W        W48136   7.151  26.581  18.879  0.0805 -0.1675  0.0658
47273W        W48137   4.982  24.258  20.136  0.0287  0.0440 -0.1330
47274W        W48138   8.633  21.568  18.367 -0.1009  0.0649 -0.0892
47275W        W48139   6.657  22.406  21.399 -0.2516  0.0633 -0.1321
47276W        W48140   1.436  22.953  18.111  0.1978 -0.0151  0.1124
47277W        W48141   5.143  25.795  19.766 -0.1898 -0.0621 -0.3291
47278W        W48142   7.472  22.881  17.839 -0.0435  0.2352  0.0021
47279W        W48143   5.588  23.502  19.711  0.3571 -0.1268 -0.2471
47280W        W48144   7.802  26.107  21.703  0.1045 -0.1111  0.2141
47281W        W48145   7.403  25.138  21.491 -0.0616 -0.2533 -0.0876
47282W        W48146   3.501  27.706  20.085 -0.0826  0.0354 -0.0293
47283W        W48147   4.207  23.015  21.247  0.2561  0.0816 -0.2323
47284W        W48148   5.240  22.356  21.047 -0.2130 -0.0188 -0.2307
47285W        W48149   4.052  27.671  23.981  0.1202  0.0488 -0.1628
47286W        W48150   6.137  24.708  18.976  0.1614  0.0715 -0.3897
47287W        W48151   8.521  25.388  17.159 -0.1995  0.0012 -0.1584
47288W        W48152   7.942  24.933  21.088  0.0700  0.0700 -0.3192
47289W        W48153   6.217  26.201  23.195  0.1619  0.1225  0.1379
47290W        W48154   4.990  23.103  18.893 -0.1297  0.1743  0.2309
47291W        W48155   5.238  24.136  20.619 -0.1241  0.1192 -0.1053
47292W        W48156   2.627  25.161  19.857  0.2590 -0.3131 -0.1595
47293W        W48157   6.299  20.241  19.972  0.1830  0.2342  0.0247
47294W        W48158   6.679  22.094  20.960  0.1408 -0.0915  0.1045
47295W        W48159   6.496  23.401  18.810  0.1177  0.3176 -0.0480
47296W        W48160   6.597  24.204  21.537  0.0868  0.2772 -0.1477
47297W        W48161   4.451  24.096  20.958  0.1294  0.0012 -0.0028
47298W        W48162   3.430  27.219  22.185  0.2086  0.0821 -0.1090
47299W        W48163   5.515  24.622  19.208 -0.0895 -0.1666 -0.4640
47300W        W48164   7.008  21.891  18.955 -0.1316  0.0896 -0.1285
47301W        W48165   6.647  24.718  20.704 -0.0235  0.1366 -0.2281
47302W        W48166   5.001  23.837  21.577 -0.2627  0.0817  0.0642
47303W        W48167   5.667  27.666  19.994 -0.1290  0.0334  0.0446
47304W        W48168   9.166  26.204  18.566 -0.0329  0.1991  0.0289
47305W        W48169   6.205  23.443  20.527  0.2367 -0.1232 -0.0227
47306W        W48170   6.796  27.054  20.574 -0.1235 -0.1097 -0.2542
47307W        W48171   3.094  22.969  19.155 -0.1332  0.1064  0.1856
47308W        W48172   5.698  25.498  22.443 -0.2810  0.3479 -0.1267
47309W        W48173   7.447  23.415  22.110 -0.0017  0.1482  0.0984
47310W        W48174   4.822  23.591  18.630  0.0391 -0.2594 -0.0056
47311W        W48175   5.796  25.326  20.247  0.0581 -0.1043  0.1435
47312W        W48176   2.516  25.766  19.261  0.1410 -0.0863  0.1042
47313W        W48177   4.948  22.121  22.841  0.0277  0.5147  0.1866
47314W        W48178   8.934  23.032  15.329  0.0824 -0.0294  0.0819
47315W        W48179   8.230  25.328  22.122  0.1282 -0.2496  0.0184
47316W        W48180   7.870  24.355  21.856 -0.1453  0.1412  0.2322
47317W        W48181   8.393  27.339  20.219  0.4273  0.1155  0.3372
47318W        W48182   5.216  26.563  21.928 -0.0874  0.0778  0.1065
47319W        W48183   5.996  25.599  19.304  0.3273 -0.0249 -0.4839
47320W        W48184   8.605  24.669  19.306 -0.0875  0.3087 -0.0890
47321W        W48185   5.141  23.305  20.938 -0.0445 -0.1791 -0.2215
47322W        W48186   7.545  24.612  18.535  0.0101  0.1299 -0.1946
47323W        W48187   6.366  25.491  16.478  0.0157 -0.0594 -0.0816
47324W        W48188   7.695  22.712  20.432  0.0303  0.0057 -0.1831
47325W        W48189   6.803  24.584  20.255  0.3297  0.1681  0.1816
47326W        W48190   3.354  25.550  20.921  0.2592 -0.0465 -0.3567
47327W        W48191   5.114  24.594  19.633 -0.2218  0.1655  0.0635
47328W        W48192   6.966  25.530  21.851 -0.1707 -0.0920  0.0165
47329W        W48193   4.367  23.488  21.116  0.1582 -0.0750  0.2543
47330W        W48194   2.627  21.980  19.678  0.2319  0.1872  0.1067
47331W        W48195   9.467  25.811  20.373  0.0017  0.0995 -0.0393
47332W        W48196   7.220  23.749  19.415  0.1163 -0.0721  0.1573
47333W        W48197   2.114  25.045  22.126 -0.0336  0.0336  0.0391
47334W        W48198   9.598  20.162  17.408  0.0071  0.0045 -0.0908
47335W        W48199   8.597  25.780  21.631 -0.0703  0.0280  0.1350
47336W        W48200   7.438  26.080  22.587 -0.1340 -0.2904  0.1276
47337W        W48201   5.893  26.856  18.644 -0.0518  0.2703 -0.0774
47338W        W48202  10.182  21.925  19.527 -0.2292  0.0714 -0.0464
47339W        W48203   3.705  24.394  18.504  0.0677 -0.1891  0.1071
47340W        W48204   5.660  23.272  21.075  0.1882  0.1119  0.2733
47341W        W48205   5.219  24.074  18.746 -0.3826 -0.1269 -0.3371
47342W        W48206   6.214  21.288  18.489  0.1157  0.1873  0.1731
47343W        W48207   3.646  25.323  19.931  0.0495  0.0189 -0.1975
47344W        W48208   5.431  27.775  22.215 -0.0352  0.1052 -0.0373
47345W        W48209   4.910  23.286  19.973 -0.1160  0.0936  0.4245
47346W        W48210   6.428  24.073  18.247  0.0629 -0.0820 -0.0751
47347W        W48211   4.518  25.223  21.705  0.4291 -0.0636  0.1224
47348W        W48212   7.617  23.431  22.618  0.0069  0.0906 -0.0891
47349W        W48213   8.191  25.356  21.180 -0.1555  0.1148  0.0764
47350W        W48214   4.644  24.482  19.378 -0.1658  0.2015 -0.0815
47351W        W48215   4.881  23.406  17.753 -0.2125 -0.1261 -0.1645
47352W        W48216   7.622  21.216  20.554 -0.1532  0.3521 -0.0539
47353W        W48217   3.340  25.555  21.516  0.1303  0.0735  0.0103
47354W        W48218   7.378  24.136  20.670  0.1639 -0.4447  0.2441
47355W        W48219   9.334  25.287  19.745 -0.3134  0.2852  0.1079
47356W        W48220   8.790  25.415  21.070  0.1175 -0.2149  0.1411
47357W        W48221   8.241  25.799  18.535  0.3808 -0.0360  0.1137
47358W        W48222   5.434  22.014  22.020  0.1437  0.0378 -0.0376
47359W        W48223   5.906  22.401  21.428  0.1299 -0.0537  0.2013
47360W        W48224   8.971  25.719  22.480  0.0927 -0.1458  0.1145
47361W        W48225   4.936  26.261  22.413  0.1197 -0.0935  0.2303
47362W        W48226   5.437  23.743  20.931 -0.3424 -0.2328  0.0895
47363W        W48227   6.127  23.483  22.755  0.0660  0.0255  0.3177
47364W        W48228   3.785  22.438  20.511 -0.4154  0.3281  0.1977
47365W        W48229   5.681  23.444  20.585 -0.0702  0.0919 -0.2467
47366W        W48230   5.913  23.583  20.117  0.1438 -0.2424  0.1853
47367W        W48231   7.160  25.567  23.622  0.2692 -0.0976 -0.0311
47368W        W48232   6.668  23.205  22.738  0.0591 -0.0762  0.0965
47369W        W48233   5.465  25.120  21.202  0.3306  0.0180 -0.1069
47370W        W48234   3.523  26.019  21.405 -0.0742 -0.0199  0.1283
47371W        W48235   7.679  25.463  19.107 -0.0967  0.3279  0.1743
47372W        W48236   8.567  24.886  21.320 -0.0360  0.2486 -0.1467
47373W        W48237   7.141  26.925  21.990 -0.1398  0.2188  0.1979
47374W        W48238   2.904  26.182  19.829  0.1974  0.0275  0.0888
47375W        W48239   7.326  24.656  18.957  0.0574 -0.1401 -0.4502
47376W        W48240   0.854  26.018  21.010 -0.2548  0.1223  0.2687
47377W        W48241   4.896  25.050  20.323  0.3632 -0.0233 -0.2291
47378W        W48242   3.514  25.445  21.972 -0.1036  0.2676 -0.4018
47379W        W48243   3.835  25.216  19.464  0.1631  0.0973  0.2826
47380W        W48244   5.860  24.992  22.504 -0.0649  0.1500  0.1351
47381W        W48245   3.529  23.659  21.235 -0.1302  0.1012 -0.1568
47382W        W48246   6.114  23.061  14.686 -0.1211  0.1023 -0.0075
47383W        W48247   2.223  28.405  25.427  0.1150  0.3820 -0.1234
47384W        W48248   1.727  25.677  22.563 -0.1681  0.1310  0.1454
47385W        W48249   6.476  25.237  23.337  0.0125  0.0203 -0.0345
47386W        W48250   9.190  24.575  23.590  0.1057 -0.0214  0.0352
47387W        W48251   6.109  26.396  21.006  0.1547 -0.2817  0.0142
47388W        W48252   2.851  26.786  21.713 -0.0525  0.0246 -0.0673
47389W        W48253   5.781  22.059  22.503 -0.3498  0.0334 -0.3448
47390W        W48254   4.252  26.618  21.516 -0.1331  0.1686 -0.3750
47391W        W48255   6.240  25.718  24.572  0.2770  0.2543 -0.0986
47392W        W48256   3.187  22.679  24.808 -0.1031  0.0759 -0.1311
47393W        W48257   3.319  23.831  26.298 -0.0008 -0.1142 -0.2219
47394W        W48258   5.510  20.523  22.960 -0.3436  0.0912  0.2761
47395W        W48259  10.151  23.651  22.864  0.0139 -0.1499  0.1660
47396W        W48260   5.656  21.160  24.712  0.2004 -0.1769  0.0215
47397W        W48261   4.155  22.962  25.373 -0.1104  0.1819 -0.0288
47398W        W48262   5.445  24.498  26.293  0.1356 -0.1852  0.1227
47399W        W48263   8.189  24.474  22.848 -0.3244  0.1181  0.0719
47400W        W48264   3.662  22.604  24.986  0.2319 -0.3457  0.3040
47401W        W48265   6.415  22.967  24.244 -0.0486  0.3210  0.1723
47402W        W48266   8.480  22.769  23.163  0.1112  0.1316  0.2533
47403W        W48267   7.049  26.842  23.661 -0.2926 -0.3939 -0.0609
47404W        W48268   4.543  24.150  26.929  0.0562  0.1729  0.0295
47405W        W48269   5.113  24.627  22.973  0.4281  0.0310  0.1115
47406W        W48270   1.405  25.957  21.806 -0.0180 -0.2780  0.0467
47407W        W48271   3.665  22.781  24.125 -0.0338  0.3573 -0.0434
47408W        W48272   5.964  22.635  23.770 -0.4894  0.4781  0.1070
47409W        W48273   5.508  23.964  27.933 -0.0740 -0.0751  0.0377
47410W        W48274   2.861  25.210  25.377 -0.0305  0.2446  0.0679
47411W        W48275   6.415  24.745  24.216 -0.0396 -0.2679  0.0188
47412W        W48276   5.387  22.975  25.056 -0.1116  0.0066 -0.0304
47413W        W48277   2.943  25.293  22.814  0.3909 -0.0882 -0.2489
47414W        W48278   7.395  25.437  23.115 -0.1901  0.2992 -0.1174
47415W        W48279   6.112  24.719  27.886 -0.0172 -0.2007 -0.0219
47416W        W48280   5.821  22.971  24.802 -0.1149  0.0531  0.0414
47417W        W48281   3.690  24.137  27.058 -0.0344 -0.2639 -0.1495
47418W        W48282   6.429  23.164  25.263 -0.0308  0.1827  0.1385
47419W        W48283   5.278  20.233  24.636  0.0539  0.1874  0.3922
47420W        W48284   4.768  26.082  27.327 -0.1960  0.1028  0.0804
47421W        W48285   6.785  25.200  22.327 -0.0470 -0.0040  0.1617
47422W        W48286   5.943  22.214  24.025 -0.2283 -0.0239  0.0420
47423W        W48287   5.251  24.299  21.639  0.1588  0.2572 -0.1176
47424W        W48288   7.986  24.169  23.251  0.1035  0.0450  0.0986
47425W        W48289   6.053  25.748  20.259 -0.1612  0.1539 -0.0143
47426W        W48290   6.273  24.815  23.228 -0.1930  0.1553 -0.1213
47427W        W48291   2.467  27.488  21.581  0.0559  0.2478  0.3846
47428W        W48292   3.920  25.861  21.781  0.0426 -0.1825  0.2000
47429W        W48293   4.044  21.716  23.961  0.4578  0.0419  0.1783
47430W        W48294   6.024  24.924  25.945  0.0890  0.0550  0.1621
47431W        W48295   4.151  21.909  24.727  0.2109  0.0798  0.2985
47432W        W48296   6.236  21.656  22.707  0.0208 -0.0931 -0.0097
47433W        W48297   3.630  26.327  25.302  0.2493  0.1626  0.2761
47434W        W48298   3.332  25.663  22.964 -0.2379  0.1436 -0.2047
47435W        W48299   5.050  25.247  23.412  0.0719  0.1970  0.0682
47436W        W48300   5.697  25.609  21.948  0.1227 -0.0180 -0.2050
47437W        W48301   5.599  23.886  25.771 -0.1488 -0.0303  0.0236
47438W        W48302   4.238  26.276  22.970 -0.0825 -0.1603  0.1331
47439W        W48303   3.911  22.210  21.269  0.0338  0.2526 -0.1934
47440W        W48304   7.832  22.880  23.221  0.1914  0.2951  0.0422
47441W        W48305   4.845  24.779  22.552  0.1049 -0.3271  0.2898
47442W        W48306   8.234  25.344  22.654 -0.2585  0.1316 -0.2257
47443W        W48307   6.775  24.471  26.021 -0.0859 -0.3256 -0.1272
47444W        W48308   4.531  26.044  26.444 -0.0040 -0.1468 -0.2755
47445W        W48309   3.254  25.395  25.685  0.1299 -0.0511 -0.0431
47446W        W48310   4.056  23.502  22.826  0.2408  0.0086 -0.3003
47447W        W48311   4.168  23.672  23.784 -0.2003  0.3131 -0.1756
47448W        W48312  10.277  24.353  24.033 -0.0158 -0.2349  0.2071
47449W        W48313   3.469  26.458  20.583 -0.1429  0.0204 -0.1488
47450W        W48314   1.656  22.867  22.990  0.0217  0.2189  0.2974
47451W        W48315  28.891  25.643  21.318 -0.1523 -0.2928  0.4102
47452W        W48316   5.067  24.724  22.100  0.0252  0.2337 -0.2733
47453W        W48317   6.066  26.106  21.941  0.0693  0.1844 -0.0876
47454W        W48318   6.998  25.563  20.480 -0.0716  0.0775 -0.1162
47455W        W48319   5.951  27.644  22.183  0.1380 -0.1917 -0.1448
47456W        W48320   4.629  24.111  24.660 -0.0645 -0.0878 -0.2361
47457W        W48321   9.671  26.725  22.722 -0.1252  0.4184 -0.2217
47458W        W48322   5.229  25.039  23.925  0.0430 -0.2217  0.2077
47459W        W48323   0.699  24.494  22.803 -0.1119 -0.0982 -0.0845
47460W        W48324   3.749  24.746  24.403 -0.0885 -0.3085 -0.2362
47461W        W48325   6.046  23.174  21.795  0.0119  0.0091  0.3913
47462W        W48326   3.758  23.900  23.022  0.1387  0.1432  0.0882
47463W        W48327   1.236  23.657  26.647  0.1545 -0.1007  0.1642
47464W        W48328   3.517  22.265  24.677 -0.0014  0.1919  0.1107
47465W        W48329   1.863  21.188  22.962 -0.0536 -0.0054 -0.0106
47466W        W48330   2.991  22.938  25.353  0.3911 -0.3011 -0.0110
47467W        W48331   6.044  21.425  24.954  0.0941  0.0390  0.1077
47468W        W48332   4.941  23.661  24.108  0.1463  0.0264 -0.2011
47469W        W48333   5.930  26.505  21.518  0.2310 -0.0155  0.0063
47470W        W48334   8.532  24.106  24.555 -0.1129  0.1090  0.1779
47471W        W48335   7.152  24.368  24.730  0.1236 -0.1222  0.0727
47472W        W48336   9.150  22.838  24.503  0.0122  0.1193  0.3702
47473W        W48337   6.196  25.717  23.302  0.2270  0.2160  0.0513
47474W        W48338   7.657  23.722  25.662  0.1294  0.1382  0.0629
47475W        W48339   4.760  27.691  22.775  0.0888 -0.0585  0.3085
47476W        W48340   6.058  20.943  24.512 -0.0563 -0.0519 -0.0794
47477W        W48341   5.729  23.404  24.983 -0.0594 -0.3155  0.3121
47478W        W48342   7.979  22.439  22.057  0.0596  0.2556 -0.0109
47479W        W48343   8.203  23.133  22.317  0.4769 -0.1687 -0.0915
47480W        W48344   3.760  25.095  24.853  0.0569 -0.1610 -0.1823
47481W        W48345   6.416  24.262  25.416 -0.0930 -0.2034  0.1365
47482W        W48346   5.987  19.953  25.209  0.3080 -0.0791  0.2015
47483W        W48347   7.060  26.124  20.825  0.2069 -0.0194 -0.1149
47484W        W48348   2.678  25.679  22.460 -0.0055  0.2961  0.0598
47485W        W48349   6.438  20.176  22.105 -0.1452 -0.2775 -0.1653
47486W        W48350   9.572  23.518  21.545 -0.1307 -0.1939  0.3056
47487W        W48351   7.131  21.163  23.465  0.0028  0.0809 -0.1813
47488W        W48352   6.292  24.796  25.506 -0.0573 -0.0183 -0.2385
47489W        W48353   8.477  27.484  22.912  0.0940  0.1891 -0.2960
47490W        W48354   6.337  25.229  26.858  0.0997  0.5519  0.0883
47491W        W48355   6.942  18.774  21.273 -0.2315  0.2398 -0.3120
47492W        W48356   4.154  22.590  21.506 -0.0073 -0.0068 -0.0990
47493W        W48357   3.699  21.652  22.571 -0.0086 -0.1350 -0.5807
47494W        W48358   6.485  25.534  22.489  0.0829 -0.1943 -0.1619
47495W        W48359   7.844  24.480  24.366 -0.0794  0.0680 -0.0812
47496W        W48360   3.011  26.272  24.675 -0.0509  0.3188 -0.1120
47497W        W48361   9.744  24.668  23.309  0.0940 -0.1100 -0.0464
47498W        W48362   5.489  23.977  24.288  0.0580 -0.0224  0.0100
47499W        W48363   7.702  22.528  24.361 -0.0596 -0.0596 -0.0804
47500W        W48364   1.612  24.290  23.199  0.0109 -0.2109 -0.0516
47501W        W48365   5.911  22.689  23.034  0.0395  0.0259  0.1586
47502W        W48366   4.546  24.605  22.175 -0.2460  0.0599 -0.2128
47503W        W48367   6.549  24.355  23.001  0.0451 -0.3196 -0.1078
47504W        W48368   5.967  27.811  21.258 -0.0532  0.1183  0.2041
47505W        W48369   7.002  24.273  24.249 -0.0807  0.0261  0.3030
47506W        W48370   4.392  23.434  21.732  0.1227 -0.2929  0.1934
47507W        W48371   6.147  23.692  21.921 -0.0555  0.1539  0.0716
47508W        W48372   4.014  24.967  19.859  0.0584  0.1572 -0.0412
47509W        W48373   2.803  24.180  22.040 -0.1856 -0.1343  0.0745
47510W        W48374   7.134  23.073  24.788 -0.2682  0.0697  0.3389
47511W        W48375   7.503  26.487  21.781  0.4156 -0.1181  0.3222
47512W        W48376   4.169  25.430  23.366 -0.0526  0.1178 -0.2010
47513W        W48377   5.377  24.925  22.669 -0.2467  0.0719  0.0358
47514W        W48378   4.630  23.793  25.054 -0.0167  0.0856 -0.2127
47515W        W48379   2.100  23.795  22.010  0.1025 -0.0797 -0.1506
47516W        W48380   6.868  24.032  23.264  0.1221 -0.0459  0.1862
47517W        W48381   6.999  21.942  25.733  0.0002 -0.0252  0.4178
47518W        W48382   3.446  25.404  24.693  0.0321 -0.0027  0.2525
47519W        W48383   7.457  25.105  19.873 -0.2656 -0.1856  0.0736
47520W        W48384   7.631  22.188  26.235 -0.0480 -0.2314 -0.1161
47521W        W48385   7.203  26.511  22.258 -0.2689  0.2321  0.0996
47522W        W48386   4.994  22.828  24.768  0.2846 -0.2203  0.3136
47523W        W48387   6.355  24.913  21.137 -0.0412  0.0888 -0.0764
47524W        W48388   4.532  21.667  23.831  0.0076 -0.0390 -0.0098
47525W        W48389   1.845  25.285  21.226 -0.2424 -0.0933 -0.4240
47526W        W48390   3.961  24.744  22.280 -0.1900 -0.4921  0.0774
47527W        W48391   5.222  25.710  26.780 -0.1325  0.1223  0.1503
47528W        W48392   6.322  22.067  21.567  0.2301 -0.1438 -0.0083
47529W        W48393   8.254  21.590  24.456 -0.1343  0.0815 -0.2323
47530W        W48394   6.681  25.481  24.265  0.2579 -0.4405  0.0113
47531W        W48395   4.861  24.283  21.934  0.2794 -0.1575 -0.1459
47532W        W48396   6.646  27.097  23.376  0.1672  0.1277  0.1508
47533W        W48397   8.133  23.482  22.700  0.1256  0.2629 -0.1428
47534W        W48398   3.954  25.383  25.252 -0.2396 -0.1202  0.2718
47535W        W48399   5.883  24.670  23.511  0.1564  0.1569  0.0409
47536W        W48400   3.805  24.391  22.765  0.1691  0.0046 -0.1665
47537W        W48401   3.114  23.899  23.962 -0.4398 -0.1122  0.2216
47538W        W48402   6.157  20.962  23.292 -0.1114  0.2515 -0.1388
47539W        W48403   1.206  25.897  22.867  0.2083 -0.0127 -0.1720
47540W        W48404   7.103  24.549  21.509  0.0407  0.0450 -0.1002
47541W        W48405   6.164  24.466  21.290  0.1742 -0.0311 -0.2327
47542W        W48406   5.859  24.915  21.516  0.2416  0.1269  0.0845
47543W        W48407   6.722  23.947  25.701 -0.0662 -0.1655  0.2037
47544W        W48408   6.504  25.968  24.946  0.0628  0.1994 -0.4853
47545W        W48409   7.717  25.847  25.822 -0.0842 -0.2627  0.0931
47546W        W48410   3.769  24.245  24.174  0.1031  0.0311  0.0059
47547W        W48411   3.551  22.313  24.160  0.0388  0.2210 -0.1611
47548W        W48412   2.693  24.400  22.564 -0.2693 -0.1006  0.0191
47549W        W48413   3.624  24.744  23.033 -0.0866 -0.0280 -0.4176
47550W        W48414   4.644  26.491  21.872 -0.1969 -0.2708  0.1711
47551W        W48415   5.671  24.681  25.410 -0.0881  0.0482 -0.5482
47552W        W48416   4.909  27.395  21.424  0.0880  0.2509  0.3403
47553W        W48417   7.094  20.973  24.848 -0.1311 -0.1421 -0.0721
47554W        W48418   5.349  23.579  24.566  0.1926 -0.1142 -0.1174
47555W        W48419   9.421  23.692  24.917 -0.1547  0.1918  0.2820
47556W        W48420   7.633  26.215  20.041 -0.2953 -0.0998  0.1559
47557W        W48421   5.211  20.830  22.701 -0.2573  0.0092 -0.1319
47558W        W48422   6.202  24.317  23.359  0.1540  0.3165 -0.0438
47559W        W48423   2.422  25.175  22.600 -0.3731 -0.0366  0.2075
47560W        W48424   2.668  26.208  22.481  0.0751 -0.1442  0.0021
47561W        W48425   3.704  27.637  22.107 -0.2198 -0.0627  0.0111
47562W        W48426   4.273  24.158  25.090 -0.1314 -0.2760 -0.1392
47563W        W48427   4.190  25.548  22.437  0.0376 -0.0884  0.0475
47564W        W48428   4.713  26.323  23.511 -0.0994  0.0334  0.1914
47565W        W48429   7.317  23.862  24.263  0.0569  0.2583  0.3792
47566W        W48430   4.826  22.967  23.426 -0.0913 -0.1406  0.2257
47567W        W48431   5.810  23.901  20.545 -0.1052 -0.2684 -0.0009
47568W        W48432   7.339  23.845  23.109  0.0264  0.3951 -0.1724
47569W        W48433   5.276  22.293  23.787  0.1437  0.0862 -0.0388
47570W        W48434   4.106  23.089  23.177 -0.2907  0.0913 -0.0773
47571W        W48435   7.423  25.720  24.986 -0.2934  0.0532 -0.2449
47572W        W48436   4.432  25.027  22.413 -0.0409 -0.0220 -0.1340
47573W        W48437   3.305  26.953  21.691 -0.1550  0.2381 -0.1940
47574W        W48438   4.732  25.874  21.048 -0.2610  0.2322 -0.0455
47575W        W48439   5.683  24.457  24.675 -0.1183  0.1476 -0.0293
47576W        W48440   3.285  24.262  25.295  0.2248 -0.0603 -0.0911
47577W        W48441   6.844  20.736  23.489 -0.2406 -0.1534  0.1320
47578W        W48442   5.687  22.917  21.521  0.1346 -0.0006 -0.1429
47579W        W48443   6.085  21.423  20.465  0.0996 -0.1383 -0.0319
47580W        W48444   3.913  22.330  23.768  0.1024 -0.3187 -0.1376
47581W        W48445   4.687  24.490  24.257 -0.0141 -0.1524  0.2113
47582W        W48446   2.001  24.540  21.640  0.0762 -0.0958 -0.3535
47583W        W48447   7.110  24.778  25.024 -0.1424  0.2077  0.1249
47584W        W48448   7.493  24.742  21.188  0.1649  0.2010 -0.0823
47585W        W48449   4.349  23.497  25.487 -0.2852  0.0509 -0.0390
47586W        W48450   4.024  26.106  22.560  0.2619  0.2074 -0.0054
47587W        W48451   2.385  23.992  22.894 -0.2292 -0.1686  0.2106
47588W        W48452   3.561  24.176  26.585  0.0463 -0.0327  0.0509
47589W        W48453   6.655  22.654  25.097 -0.1809  0.0070 -0.0018
47590W        W48454   2.690  27.145  22.690 -0.1518  0.0778  0.1013
47591W        W48455   5.150  25.518  21.130 -0.0579  0.2569 -0.0952
47592W        W48456   4.143  24.848  23.263  0.0015 -0.0383 -0.1297
47593W        W48457   4.834  25.033  25.703 -0.0494  0.0157 -0.3334
47594W        W48458   5.977  27.770  24.061 -0.1862  0.0295 -0.0149
47595W        W48459   6.962  22.828  22.926  0.0756  0.2879 -0.0917
47596W        W48460   4.863  21.951  23.525  0.0579 -0.3676  0.0146
47597W        W48461   7.803  26.400  24.432 -0.2719  0.1120  0.1000
47598W        W48462   1.849  24.095  22.445  0.0197  0.0240  0.3914
47599W        W48463  10.164  27.206  21.851  0.0517 -0.3203 -0.3097
47600W        W48464   5.153  26.608  26.699 -0.1128 -0.1808 -0.0070
47601W        W48465   6.974  26.219  22.714 -0.1294 -0.2786  0.1458
47602W        W48466   6.597  23.632  25.258  0.1076 -0.2133  0.0668
47603W        W48467   6.918  23.204  25.700  0.0068  0.4603  0.0727
47604W        W48468   5.004  25.742  23.552 -0.0592  0.0094 -0.2013
47605W        W48469   4.760  22.972  23.942 -0.1014  0.2268 -0.1985
47606W        W48470   5.608  28.901  23.572 -0.0057  0.1802 -0.3575
47607W        W48471   2.353  23.743  25.405 -0.1969  0.1927  0.1147
47608W        W48472   4.576  24.889  23.954  0.0486  0.0634 -0.1776
47609W        W48473   6.228  21.109  22.799 -0.1335 -0.0911 -0.0502
47610W        W48474   5.742  27.405  22.552  0.0191 -0.1079 -0.2821
47611W        W48475   5.780  22.959  25.343 -0.0427 -0.0694  0.1260
47612W        W48476   3.301  24.738  23.560 -0.2005 -0.1633 -0.1635
47613W        W48477   4.269  25.802  24.319 -0.0026  0.0880  0.0642
47614W        W48478   5.403  26.420  21.447 -0.3018  0.1761 -0.3657
47615W        W48479   6.888  23.565  22.989 -0.2689 -0.3598  0.1650
47616W        W48480   2.391  23.076  25.610 -0.2704 -0.0750  0.2357
47617W        W48481   6.017  23.014  22.574 -0.0464  0.1948  0.1919
47618W        W48482   5.685  26.515  22.000  0.0203  0.0747  0.2083
47619W        W48483   6.054  24.083  24.888 -0.1026 -0.4612 -0.2980
47620W        W48484   5.536  26.075  23.747 -0.0154 -0.1674  0.1221
47621W        W48485   5.543  25.339  22.896  0.2000 -0.1774 -0.1060
47622W        W48486   6.551  25.407  24.858 -0.0941  0.3365  0.1918
47623W        W48487   5.161  25.112  27.219 -0.1156  0.0934  0.0146
47624W        W48488   4.502  25.810  23.481 -0.2416  0.1699  0.1637
47625W        W48489   4.023  23.173  24.395  0.1460 -0.1283  0.2451
47626W        W48490   8.215  22.344  24.768 -0.0020  0.0428  0.1163
47627W        W48491   5.269  24.091  21.216  0.0990 -0.0785 -0.2513
47628W        W48492   7.029  24.755  24.255 -0.1198 -0.1125  0.1208
47629W        W48493   4.984  25.145  22.966  0.0102 -0.0209 -0.2582
47630W        W48494   8.082  23.984  22.417 -0.1665 -0.1286 -0.0140
47631W        W48495   5.256  22.812  25.544  0.0953  0.1793 -0.0436
47632W        W48496   1.605  26.142  22.304 -0.3041  0.3402 -0.4201
47633W        W48497   5.684  28.050  25.324 -0.3423 -0.0476 -0.1365
47634W        W48498   8.008  26.222  24.865  0.0882 -0.0446  0.0846
47635W        W48499   4.116  23.521  25.046  0.0685  0.0205  0.1703
47636W        W48500   3.275  25.973  23.360 -0.0149 -0.0931  0.4076
47637W        W48501   8.603  25.027  25.407  0.0578 -0.0042  0.0334
47638W        W48502   7.343  25.076  22.644  0.0359  0.2829 -0.2870
47639W        W48503   4.423  21.969  24.210  0.0079 -0.2012  0.1634
47640W        W48504   5.323  26.903  22.253 -0.2066 -0.3437 -0.0100
47641W        W48505   6.410  23.398  23.166  0.0000 -0.0456  0.0371
47642W        W48506   4.149  24.401  25.511  0.0887  0.2209 -0.0161
47643W        W48507   5.226  22.173  23.277  0.2278 -0.0063 -0.0047
47644W        W48508   3.498  24.280  23.173 -0.0025  0.1917  0.2185
47645W        W48509   4.263  23.780  24.681 -0.0585  0.1071 -0.0455
47646W        W48510   4.225  26.429  23.515 -0.0818  0.0300 -0.2309
47647W        W48511   5.357  25.070  25.427 -0.0205  0.0402 -0.0595
47648W        W48512   3.456  26.183  20.129  0.1649  0.0668 -0.1717
47649W        W48513   3.593  23.943  21.691 -0.0128  0.3730  0.2687
47650W        W48514   4.246  24.379  24.407  0.1700 -0.0780  0.2731
47651W        W48515  10.463  23.477  23.896  0.0693 -0.1226 -0.0362
47652W        W48516   6.191  27.435  21.838  0.0601  0.2322 -0.1070
47653W        W48517   5.384  23.053  24.514  0.1537 -0.1026  0.1940
47654W        W48518   7.876  23.255  25.703  0.1128 -0.2492 -0.2059
47655W        W48519   4.219  25.771  22.920  0.1272  0.0715 -0.1352
47656W        W48520   6.967  26.354  24.142  0.1026 -0.1270 -0.0306
47657W        W48521   7.473  23.304  23.535  0.3683 -0.0999  0.3528
47658W        W48522   2.795  23.151  23.735  0.0858  0.0524 -0.2033
47659W        W48523   2.901  24.856  22.461 -0.2028  0.0036 -0.1546
47660W        W48524   5.503  22.699  24.046 -0.0688 -0.5414 -0.0578
47661W        W48525   5.391  25.839  26.064 -0.1078 -0.1779  0.0129
47662W        W48526   3.408  24.969  21.526  0.0160  0.0880 -0.2306
47663W        W48527   5.638  21.471  23.830  0.0228  0.0072 -0.2699
47664W        W48528   4.111  22.270  25.057  0.0040  0.1034 -0.1234
47665W        W48529   1.889  25.828  23.302 -0.0037  0.1258 -0.1542
47666W        W48530   7.515  24.190  23.505 -0.0330  0.0504  0.0984
47667W        W48531   7.306  23.247  22.999 -0.3370 -0.0299 -0.2335
47668W        W48532   6.827  24.639  23.384 -0.1506 -0.0311  0.2604
47669W        W48533   1.415  25.959  25.853  0.0115  0.1097 -0.0321
47670W        W48534   9.194  20.894  24.453 -0.1895  0.0571  0.1969
47671W        W48535   6.999  24.048  22.754 -0.1988 -0.2056  0.0924
47672W        W48536   3.428  22.054  22.985 -0.0182 -0.1571 -0.0719
47673W        W48537   7.613  20.937  22.620  0.1254  0.1368  0.2029
47674W        W48538   5.269  22.387  25.204 -0.1403  0.1028  0.0917
47675W        W48539   3.330  25.463  24.210 -0.0530 -0.2517  0.0066
47676W        W48540   2.433  27.039  21.766  0.0080  0.2834  0.1871
47677W        W48541   6.471  23.835  22.862  0.0988  0.0029 -0.0416
47678W        W48542   5.644  23.332  24.178  0.2256  0.0224 -0.1714
47679W        W48543   6.692  23.407  24.239  0.1389  0.4498  0.3008
47680W        W48544   6.891  23.782  21.260 -0.0641 -0.1056 -0.0534
47681W        W48545   4.139  24.351  23.161  0.1504 -0.1486 -0.0032
47682W        W48546   3.681  26.234  22.188 -0.1890  0.1446  0.0209
47683W        W48547   2.819  25.790   0.497  0.1416  0.0707 -0.0056
47684W        W48548   6.451  25.855  25.921 -0.3439 -0.2161  0.0235
47685W        W48549   5.400  24.626  23.386 -0.1472 -0.2798  0.1219
47686W        W48550   8.254  23.675  23.232 -0.2174 -0.0106  0.0448
47687W        W48551   2.485  26.606  21.356 -0.2483 -0.1056 -0.3175
47688W        W48552   8.284  23.880  25.755 -0.0868 -0.0934  0.0325
47689W        W48553   4.423  20.181  24.011  0.1781  0.1656  0.0213
47690W        W48554   4.006  23.895  25.425 -0.1468 -0.2586  0.1690
47691W        W48555   4.151  22.979  22.655  0.0351 -0.0352 -0.3953
47692W        W48556   3.809  22.498  25.461 -0.1488 -0.2866 -0.0116
47693W        W48557   4.110  26.123  24.739 -0.0097 -0.0327  0.1682
47694W        W48558   5.396  22.435  22.294 -0.0019 -0.2698 -0.1295
47695W        W48559   3.502  24.688  22.508  0.2282 -0.0696 -0.4610
47696W        W48560   5.689  23.749  23.851  0.2070 -0.2482 -0.0854
47697W        W48561   3.024  26.763  24.781 -0.0209 -0.0276 -0.0546
47698W        W48562   3.891  24.039  23.504 -0.0046  0.1971 -0.2639
47699W        W48563   5.764  24.379  23.100  0.1249  0.2179  0.1308
47700W        W48564   4.517  26.242  25.000 -0.0705  0.1767  0.1166
47701W        W48565   4.551  23.291  22.565 -0.0865  0.2063  0.1228
47702W        W48566   3.427  23.766  23.438  0.0853 -0.0689 -0.2893
47703W        W48567   7.507  25.904  21.152  0.2172  0.1203 -0.0679
47704W        W48568   5.139  25.124  24.876 -0.1068 -0.0538 -0.1011
47705W        W48569   5.830  22.568  22.478  0.1057  0.1006 -0.3273
47706W        W48570   4.488  23.357  24.113  0.2333 -0.0084 -0.1181
47707W        W48571   4.881  24.907  24.415 -0.1618 -0.3838 -0.0018
47708W        W48572   4.611  24.603  24.772 -0.0098 -0.1415 -0.3065
47709W        W48573   3.047  23.629  22.886 -0.1667 -0.1901 -0.6492
47710W        W48574   7.842  21.536  22.326  0.2352 -0.0026  0.2417
47711W        W48575   4.776  23.530  22.191  0.1043  0.1182  0.1856
47712W        W48576   4.484  22.308  24.619  0.2339 -0.1432 -0.1193
47713W        W48577   7.983  22.090  22.604 -0.3137  0.1115  0.1857
47714W        W48578   6.541  24.632  25.066  0.0552  0.2515 -0.1727
47715W        W48579   7.735  26.834  24.666  0.2116  0.0673 -0.0664
47716W        W48580   8.657  24.902  24.886  0.1008  0.3903  0.1183
47717W        W48581   6.713  26.469  25.097 -0.1358 -0.1495 -0.0181
47718W        W48582   3.808  24.981  26.365  0.1466  0.1622  0.1989
47719W        W48583   5.222  23.466  23.656  0.1714 -0.2579  0.0118
47720W        W48584   6.539  21.781  23.699  0.1234  0.2460 -0.0289
47721W        W48585   6.087  23.088  23.895 -0.1884  0.0718  0.1034
47722W        W48586   4.862  27.399  20.745 -0.1982 -0.2582  0.0338
47723W        W48587   3.458  24.489  24.683 -0.1050  0.3363  0.1005
47724W        W48588   5.006  22.664  24.286  0.0580  0.0792 -0.0680
47725W        W48589   2.563  26.314  20.568  0.1820 -0.1725  0.0513
47726W        W48590   6.546  25.346  26.301  0.0952 -0.0713  0.0184
47727W        W48591   6.077  26.168  24.274  0.0718  0.0111 -0.3650
47728W        W48592   2.831  23.886  21.629 -0.2022 -0.0574 -0.2209
47729W        W48593   2.936  20.108  24.508 -0.0436 -0.0522  0.1349
47730W        W48594   4.507  26.674  25.406  0.1082  0.1601  0.2597
47731W        W48595   2.997  22.076  21.257 -0.1386  0.2898 -0.0660
47732W        W48596   5.789  24.420  25.841 -0.5199 -0.3124 -0.0618
47733W        W48597   5.957  21.820  23.077  0.1107 -0.2890 -0.2878
47734W        W48598   8.388  24.419  26.590  0.1418 -0.0273 -0.0585
47735W        W48599   6.193  25.880  21.090 -0.2803 -0.1200  0.0098
47736W        W48600   4.803  26.863  22.241  0.2398 -0.0110 -0.0663
47737W        W48601   5.537  22.925  20.625  0.3599 -0.2424 -0.1810
47738W        W48602   4.051  26.504  25.083 -0.1528  0.0227  0.2426
47739W        W48603   4.774  25.004  25.162  0.3343 -0.1325  0.1292
47740W        W48604   3.039  24.183  26.590  0.0016  0.4967  0.0117
47741W        W48605   5.074  24.373  22.487 -0.2759 -0.0563 -0.2777
47742W        W48606   4.126  27.283  21.014  0.0591 -0.3680 -0.0532
47743W        W48607   6.155  21.832  24.209 -0.1004  0.1233  0.1719
47744W        W48608   2.378  24.035  22.393  0.2435  0.1130  0.3655
47745W        W48609   7.409  22.212  22.616 -0.1509 -0.0358 -0.1846
47746W        W48610   6.055  26.984  24.491 -0.1591  0.2436 -0.2708
47747W        W48611   7.409  24.809  23.189 -0.2392 -0.2504  0.3701
47748W        W48612   5.591  23.930  24.790  0.0553 -0.2642  0.0909
47749W        W48613   8.085  22.007  23.094  0.1461  0.1189  0.0875
47750W        W48614   2.533  24.714  22.146  0.0392  0.1538  0.1770
47751W        W48615   6.534  21.970  22.339 -0.1326  0.2667 -0.0134
47752W        W48616   5.364  25.149  22.191  0.0367  0.1981 -0.0867
47753W        W48617   7.861  23.411  21.146  0.0574 -0.3437 -0.0164
47754W        W48618   4.841  25.160  22.120  0.0812 -0.0342  0.1704
47755W        W48619   6.882  25.347  22.794  0.0427 -0.0551 -0.2551
47756W        W48620   6.787  25.213  20.844  0.1675  0.2943 -0.0378
47757W        W48621   3.336  25.144  26.548 -0.3399 -0.1171  0.0534
47758W        W48622   3.916  22.451  22.460 -0.1350  0.1405 -0.0748
47759W        W48623   8.638  26.368  23.498 -0.2834  0.0013  0.2321
47760W        W48624   4.832  22.812  25.232 -0.0319 -0.1653  0.1398
47761W        W48625   4.183  21.350  23.671 -0.0798  0.0666  0.0782
47762W        W48626   2.786  23.591  24.943 -0.0862 -0.5514 -0.1219
47763W        W48627   2.750  24.310  26.012 -0.1973 -0.1806  0.2264
47764W        W48628   3.351  22.370  21.914 -0.1700 -0.0237  0.1167
47765W        W48629  10.426  22.326  23.435  0.2891 -0.2781 -0.2853
47766W        W48630   5.986  25.931  23.732  0.3047 -0.1992  0.0901
47767W        W48631   7.071  23.675  25.457 -0.1645 -0.0877 -0.3176
47768W        W48632   5.312  27.010  23.837  0.0103 -0.0776  0.1600
47769W        W48633   5.792  25.033  23.956 -0.0123  0.1690  0.1642
47770W        W48634   4.061  27.663  25.589 -0.2078  0.3403  0.0864
47771W        W48635   5.917  26.617  24.121 -0.1265  0.1766 -0.0722
47772W        W48636   4.916  25.279  26.728 -0.0237 -0.0080 -0.1958
47773W        W48637   2.820  27.848  26.270  0.3371  0.0789 -0.0439
47774W        W48638   5.405  21.084  22.319 -0.0542 -0.1712  0.1391
47775W        W48639   5.292  26.649  24.538 -0.3830 -0.0118  0.1602
47776W        W48640   5.281  24.505  24.303 -0.1950 -0.2935 -0.2694
47777W        W48641   6.077  21.836  25.415 -0.1163 -0.0285  0.0588
47778W        W48642   5.189  23.997  23.883 -0.3634  0.0080  0.4359
47779W        W48643   6.840  23.879  24.446  0.0387  0.2279 -0.1400
47780W        W48644   6.356  27.489  23.658 -0.3415  0.0527 -0.1507
47781W        W48645   6.663  22.289  22.986 -0.1987  0.0803  0.0274
47782W        W48646   4.070  26.403  28.219  0.1322  0.0436 -0.1698
47783W        W48647   5.538  23.164  27.375  0.0824  0.0635  0.0454
47784W        W48648   4.492  23.874  24.207 -0.0436 -0.1326  0.0789
47785W        W48649   7.313  26.546  26.941  0.0814 -0.0227 -0.0494
47786W        W48650   6.352  23.781  24.502  0.0074 -0.1577  0.1566
47787W        W48651   6.223  24.121  26.686  0.2932  0.0019  0.0994
47788W        W48652   2.893  22.572  26.861 -0.1234  0.1764  0.2120
47789W        W48653   6.949  24.175  25.219  0.1482 -0.1994  0.0687
47790W        W48654   7.064  24.174  26.778 -0.2047 -0.1327  0.1857
47791W        W48655   4.024  21.805  27.699  0.3542 -0.0328 -0.0369
47792W        W48656   5.888  20.871  26.493 -0.0058  0.1979 -0.1421
47793W        W48657   7.006  23.076  27.901 -0.1599 -0.1449  0.4329
47794W        W48658   3.603  24.616  27.133 -0.2618  0.4538  0.0288
47795W        W48659   5.293  23.623  26.548  0.0537  0.1680  0.2232
47796W        W48660   3.470  21.626  27.738 -0.0987  0.0548 -0.1952
47797W        W48661   5.924  27.074  28.135  0.0237 -0.1495  0.1601
47798W        W48662   7.935  24.999  24.493 -0.4187  0.2256 -0.2368
47799W        W48663   4.552  23.201  25.131  0.1557  0.3292 -0.1297
47800W        W48664   4.975  24.429  26.521  0.1464  0.0865  0.1056
47801W        W48665   6.181  23.677  26.881  0.0780  0.1901 -0.1258
47802W        W48666   5.449  22.547  28.120  0.2131 -0.0556  0.1283
47803W        W48667   4.294  25.063  28.860  0.0174  0.3037  0.1107
47804W        W48668   6.673  24.296  26.524  0.1388 -0.5082  0.1713
47805W        W48669   3.158  25.978  26.311  0.2608  0.2515 -0.0647
47806W        W48670   3.615  23.725  26.778  0.2850  0.0656 -0.0145
47807W        W48671   5.871  24.912  26.862 -0.1386  0.1032  0.3927
47808W        W48672   3.811  21.659  28.115  0.1293 -0.0142 -0.0075
47809W        W48673   5.532  27.280  28.395 -0.0458  0.1685  0.0586
47810W        W48674   7.522  24.172  26.975  0.1559 -0.0931  0.4106
47811W        W48675   5.965  22.334  27.917  0.2032 -0.1859  0.2132
47812W        W48676   6.515  23.754  28.346 -0.2696 -0.3144  0.2736
47813W        W48677   8.153  28.489   0.302 -0.2055 -0.0086 -0.6524
47814W        W48678   5.974  26.047   2.211 -0.0488 -0.2376 -0.2300
47815W        W48679   6.931  27.625  28.813 -0.2859  0.2275 -0.0411
47816W        W48680   2.147  22.604  28.383  0.0696  0.2336  0.2316
47817W        W48681   4.181  25.200   1.218 -0.0149  0.2082 -0.0749
47818W        W48682   4.059  19.907  28.270 -0.3241  0.4429  0.0874
47819W        W48683   2.700  26.167  28.001  0.1290 -0.0912  0.0716
47820W        W48684   9.150  24.690  25.305  0.3739  0.1526  0.3682
47821W        W48685   5.838  24.414  27.561  0.0564  0.0984 -0.4233
47822W        W48686  10.211  23.501  24.367  0.1677 -0.0721 -0.0172
47823W        W48687   7.020  26.130  28.851 -0.3191  0.3444  0.1348
47824W        W48688   7.751  26.664  27.134  0.2849 -0.3140  0.0777
47825W        W48689   8.043  24.091  24.865 -0.0766  0.3077  0.0852
47826W        W48690   5.213  24.040  27.490 -0.1898  0.1331  0.2135
47827W        W48691   5.960  26.870  25.094 -0.2658  0.1368  0.2430
47828W        W48692   3.680  23.302  28.345 -0.0687 -0.1764  0.2526
47829W        W48693   7.239  23.527  27.636  0.2760 -0.3585 -0.1100
47830W        W48694   4.626  22.983  27.258 -0.0382  0.0098  0.1881
47831W        W48695   6.669  22.781  27.276  0.0628  0.1941 -0.2439
47832W        W48696   3.572  25.240  28.467 -0.2364  0.0545 -0.0234
47833W        W48697   5.474  22.603  24.686 -0.1120 -0.2698  0.0159
47834W        W48698   7.916  24.679  28.795 -0.1151  0.0320  0.0401
47835W        W48699   6.701  21.659  26.140  0.1149  0.0253 -0.0256
47836W        W48700   6.103  22.163  25.774  0.0465 -0.1352 -0.0267
47837W        W48701   6.404  23.276  27.118 -0.0543  0.5289 -0.2040
47838W        W48702   3.151  24.120  25.810 -0.0121 -0.4198  0.4780
47839W        W48703   8.573  25.844  26.269  0.0498  0.1357  0.0691
47840W        W48704   6.388  26.094  27.296  0.0258  0.0522  0.1708
47841W        W48705   7.091  25.208  24.567 -0.3178 -0.2380  0.2687
47842W        W48706   5.472  22.232  26.307 -0.0537  0.3001  0.0982
47843W        W48707   3.813  23.975  27.802 -0.0384  0.0159  0.0942
47844W        W48708   7.966  25.651  26.244  0.0913  0.1350 -0.0705
47845W        W48709   6.386  24.428  28.970 -0.1507 -0.1986  0.4493
47846W        W48710   4.886  24.568  27.718  0.1499  0.3446  0.2879
47847W        W48711   7.394  22.977  28.889  0.1019  0.3257  0.0926
47848W        W48712   3.708  25.601  23.259 -0.1385 -0.0598 -0.0013
47849W        W48713   4.972  22.840  26.242 -0.1301 -0.0873  0.1362
47850W        W48714   2.569  23.354  29.058  0.2586 -0.2582 -0.0582
47851W        W48715   6.807  24.588  25.529  0.1953  0.1133 -0.1405
47852W        W48716   6.820  27.318  27.161  0.0586  0.2791  0.1382
47853W        W48717   7.556  22.729  25.903  0.0474  0.0119 -0.0167
47854W        W48718   5.128  25.831  25.585 -0.0358 -0.1452 -0.1084
47855W        W48719   6.295  23.856  27.864  0.2369  0.4090 -0.0248
47856W        W48720   6.278  25.137  27.641 -0.0670  0.5600  0.0191
47857W        W48721   4.763  25.806  26.859 -0.2387 -0.2146  0.2821
47858W        W48722   5.799  26.543   0.484  0.1044  0.0235 -0.0557
47859W        W48723   2.919  23.623  28.239  0.0978 -0.0164 -0.0326
47860W        W48724   5.131  23.060  26.965 -0.1921  0.2227  0.3082
47861W        W48725   3.465  24.464  26.087  0.3130  0.2660  0.1956
47862W        W48726   4.340  24.628  27.728 -0.1371 -0.0958  0.0069
47863W        W48727   4.478  21.831  27.515 -0.3595 -0.0369 -0.0988
47864W        W48728   3.315  23.152  28.722 -0.1300  0.2453  0.2690
47865W        W48729   5.473  23.565  28.216  0.1008  0.2240 -0.0749
47866W        W48730   5.812  25.051  27.637  0.0521 -0.3142 -0.2393
47867W        W48731   6.646  25.657  26.811 -0.0761  0.5360 -0.0425
47868W        W48732   6.304  26.462   0.450 -0.2292 -0.0212 -0.2121
47869W        W48733   5.980  23.379  28.761  0.3112  0.1749 -0.3135
47870W        W48734   6.494  24.495   0.371 -0.1745 -0.0238 -0.1006
47871W        W48735   6.960  25.601  25.857 -0.1178  0.3105 -0.0088
47872W        W48736   6.059  22.877  27.246 -0.0908 -0.1957  0.0710
47873W        W48737   6.039  24.528  28.577  0.0400 -0.1904 -0.4533
47874W        W48738   5.033  26.655  27.171  0.1321 -0.2296  0.0920
47875W        W48739   4.296  23.436  26.303  0.0541  0.1299 -0.0517
47876W        W48740   4.363  20.444  27.570 -0.0754 -0.2804  0.1099
47877W        W48741   7.751  21.642  26.178 -0.0938 -0.1741 -0.0698
47878W        W48742   6.585  24.026  24.945 -0.0086 -0.0888 -0.0501
47879W        W48743   2.401  22.646   1.427 -0.2770 -0.0088 -0.1009
47880W        W48744   3.918  24.470  26.354  0.1034 -0.1084  0.2190
47881W        W48745   9.639  22.441  25.438  0.2676  0.1431 -0.2675
47882W        W48746   5.853  23.391  23.529  0.1698 -0.3373 -0.4243
47883W        W48747   2.504  24.814  26.288  0.0584  0.1296  0.2929
47884W        W48748   6.498  22.304  26.669 -0.0169  0.0782 -0.1635
47885W        W48749   7.144  24.167  25.736  0.4256 -0.2007  0.0934
47886W        W48750   5.641  22.538  29.060  0.0841 -0.2006 -0.2340
47887W        W48751   6.604  23.753   1.825 -0.0672 -0.1362 -0.2768
47888W        W48752   7.676  25.376  24.744  0.0661 -0.3326 -0.0241
47889W        W48753   7.323  25.349   1.745 -0.0189  0.0526 -0.1169
47890W        W48754   5.050  24.667  26.011  0.2600 -0.3371 -0.3857
47891W        W48755   5.464  26.311  28.030 -0.1023 -0.0510 -0.2069
47892W        W48756   6.144  24.826   1.447 -0.0597 -0.0579  0.0881
47893W        W48757   7.463  23.437  25.313 -0.0701 -0.2443 -0.2790
47894W        W48758   8.508  22.620  26.496  0.2075 -0.1534  0.1604
47895W        W48759  10.454  26.407   0.640 -0.0605  0.1000 -0.1733
47896W        W48760   5.568  22.846  26.885 -0.0497 -0.2887  0.1443
47897W        W48761   8.061  23.432  25.210  0.3933  0.0841  0.1693
47898W        W48762   5.910  20.829  27.008  0.0547  0.0590 -0.0688
47899W        W48763   7.922  23.849  26.080 -0.0665  0.1072 -0.2609
47900W        W48764   5.929  23.471  27.320 -0.2735 -0.2163  0.0972
47901W        W48765   3.688  25.115  25.567 -0.4844 -0.2849  0.0604
47902W        W48766   8.727  23.802  27.181  0.2009 -0.1074  0.1332
47903W        W48767   6.451  23.890  23.549 -0.1440 -0.0968  0.0641
47904W        W48768   7.245  25.057  28.049  0.2567 -0.0688 -0.1384
47905W        W48769   4.664  24.536  25.613  0.0066 -0.1509  0.1173
47906W        W48770   5.735  23.851  26.904 -0.2112 -0.2813  0.1752
47907W        W48771   4.122  23.218  27.443  0.1046 -0.1847  0.3772
47908W        W48772   5.881  25.592  28.459  0.2283 -0.1250  0.4199
47909W        W48773   5.368  23.582   0.250  0.0835  0.1675  0.1247
47910W        W48774   8.152  26.731  25.474  0.0891 -0.3849  0.0045
47911W        W48775   6.615  23.488  27.596  0.3906 -0.3425 -0.1723
47912W        W48776   7.198  26.759  25.883 -0.2750  0.0389 -0.2420
47913W        W48777   7.302  24.596  26.011  0.0046  0.2415 -0.1666
47914W        W48778   6.153   0.364  27.845  0.1306  0.1491 -0.1395
47915W        W48779   6.418  24.040  26.156  0.0366  0.1823 -0.3153
47916W        W48780   7.714  24.773  27.336 -0.1639 -0.0498  0.2402
47917W        W48781   4.820  21.504  27.459 -0.1705  0.0714 -0.0130
47918W        W48782   7.188  22.501  24.234 -0.2209  0.0381 -0.0315
47919W        W48783   6.935  22.890   1.045 -0.0154  0.1952  0.0660
47920W        W48784   4.754  27.715  27.360  0.0260  0.1157 -0.1584
47921W        W48785   6.955  26.201  24.662  0.1983 -0.2370 -0.1582
47922W        W48786   3.329  20.238  27.298  0.0517 -0.0346  0.3447
47923W        W48787   6.210  20.442  26.836 -0.2809  0.2234 -0.0319
47924W        W48788   5.855  26.348  25.157 -0.0666  0.3541  0.0163
47925W        W48789   4.515  23.512  27.243  0.4865 -0.0117 -0.0433
47926W        W48790   5.802  23.769  29.120 -0.1597 -0.1669 -0.0112
47927W        W48791   6.733  25.928  26.393  0.2688  0.1102 -0.1613
47928W        W48792   6.103  24.635  24.621 -0.2654 -0.2759 -0.0865
47929W        W48793   6.176  26.073  25.354 -0.1600 -0.2998  0.1082
47930W        W48794   7.215  28.033   0.791 -0.2228  0.3274 -0.0699
47931W        W48795   4.270  24.281  25.965 -0.1176  0.0140 -0.2948
47932W        W48796   7.530  25.559  28.909 -0.0095  0.2611  0.0548
47933W        W48797   6.213  22.661  24.832 -0.1177  0.1811  0.2058
47934W        W48798   6.532  24.894   0.940  0.1537 -0.2510  0.0585
47935W        W48799   4.599  22.393  25.105  0.0067 -0.0083  0.0312
47936W        W48800   8.224  24.166  24.174  0.3648  0.2091 -0.3302
47937W        W48801   4.184  22.225  28.343  0.2894  0.2535  0.3088
47938W        W48802   4.557  27.065  28.366 -0.1734  0.0299 -0.1335
47939W        W48803   8.254  23.661  24.334 -0.2697  0.0839  0.0254
47940W        W48804   6.669  23.782  26.602  0.0585  0.0099  0.0389
47941W        W48805   5.793  22.549  25.104  0.0724 -0.0558 -0.0147
47942W        W48806   5.468  23.237  28.615  0.1937  0.0719 -0.0539
47943W        W48807   5.763  23.939   2.999  0.2971  0.0986  0.1368
47944W        W48808   3.761  24.171  28.846  0.0667  0.1233 -0.0422
47945W        W48809   4.356  22.873  28.706 -0.2070 -0.2692 -0.0471
47946W        W48810   5.478  21.369   0.208  0.0886 -0.0979  0.1754
47947W        W48811   5.626  22.036  25.335  0.0029 -0.3253  0.2095
47948W        W48812   1.622  23.124  26.639  0.3348  0.2913 -0.1330
47949W        W48813   3.786  26.325  27.294  0.2284 -0.3629  0.0247
47950W        W48814   4.912  23.519   0.845  0.2925  0.2002  0.2000
47951W        W48815   3.981  24.808  25.237 -0.0351 -0.3167 -0.2492
47952W        W48816   7.609  25.882  26.531  0.0624 -0.2514  0.2793
47953W        W48817   8.448  23.298  27.960 -0.0763 -0.3258  0.0656
47954W        W48818   2.261  24.396  26.106  0.2736  0.1483 -0.3762
47955W        W48819   6.216  27.566  22.669  0.0306 -0.1037 -0.1313
47956W        W48820   5.520  22.263  26.808 -0.2137 -0.1018 -0.1779
47957W        W48821   6.947  24.005  26.189  0.0117 -0.2836 -0.0374
47958W        W48822   1.592  24.289   0.473 -0.1224 -0.1931 -0.1525
47959W        W48823   3.894  24.455  27.574  0.1077  0.0382 -0.0791
47960W        W48824   5.545  25.403  27.348  0.1089 -0.1224 -0.0643
47961W        W48825   6.171  23.977  28.676  0.1282 -0.0896 -0.1740
47962W        W48826   4.894  26.758  25.886  0.2326  0.1056 -0.0018
47963W        W48827   7.022  25.058  26.811  0.0017 -0.2576 -0.3661
47964W        W48828   5.316  23.107  26.485 -0.2900 -0.1961  0.0786
47965W        W48829   4.787  24.267  25.141  0.2052 -0.1465  0.0402
47966W        W48830   5.675  22.487  25.584 -0.1318 -0.0245  0.1345
47967W        W48831   4.512  27.223   0.070  0.2605 -0.0591  0.0064
47968W        W48832   7.319  22.597  28.003  0.2148  0.2511  0.3166
47969W        W48833   3.117  25.000  23.968  0.1036 -0.1074 -0.0525
47970W        W48834   6.759  26.618  28.065  0.1358 -0.0300  0.1010
47971W        W48835   3.474  25.830  27.917 -0.0667  0.1237  0.3057
47972W        W48836   6.583  25.327  25.706 -0.0043  0.1246  0.2482
47973W        W48837   7.263  26.391  26.263 -0.1784  0.1988 -0.0122
47974W        W48838   5.729  23.984   1.933  0.1590 -0.0045 -0.0357
47975W        W48839   5.744  24.333  26.684  0.1979  0.2451  0.2197
47976W        W48840   4.049  24.036  26.727  0.0668  0.0975  0.0051
47977W        W48841   5.375  22.279  24.325  0.2210 -0.3424 -0.1787
47978W        W48842   6.377  19.606  25.160 -0.0382 -0.2702 -0.2828
47979W        W48843   2.653  24.019  26.845 -0.0565  0.1558  0.1435
47980W        W48844   4.124  23.173  27.944  0.2976 -0.3666 -0.0391
47981W        W48845   6.335  20.498  25.122  0.0078 -0.2104  0.0792
47982W        W48846   5.383  24.644  26.817  0.0850  0.3421 -0.1328
47983W        W48847   6.591  20.642  25.920 -0.3822  0.0525  0.0483
47984W        W48848   5.878  25.555  26.088  0.0713 -0.1663 -0.0193
47985W        W48849   6.163  25.768  26.416  0.0426  0.0461  0.0747
47986W        W48850   4.152  22.245  27.280 -0.2004  0.0437 -0.1646
47987W        W48851   5.108  25.003  27.696 -0.1799  0.0351  0.0965
47988W        W48852   3.569  21.923  28.475  0.1254 -0.2654 -0.1061
47989W        W48853   7.568  25.228   0.241 -0.2665 -0.0822  0.1892
47990W        W48854   7.502  25.273  24.262  0.1086 -0.0982 -0.0719
47991W        W48855   5.986  25.209  25.423  0.1938  0.1465  0.1077
47992W        W48856   4.493  22.713  28.233 -0.1167  0.1878 -0.0884
47993W        W48857   3.487  21.250   0.836  0.0321 -0.0372  0.1954
47994W        W48858   7.621  24.780  25.690 -0.0662 -0.0562 -0.0093
47995W        W48859   9.500  20.815  27.690  0.2090 -0.0953  0.1316
47996W        W48860   8.036  22.376  29.129 -0.2637 -0.2397  0.0326
47997W        W48861   8.291  23.677  27.550 -0.0479 -0.2415 -0.1555
47998W        W48862   6.275  23.879  27.343  0.0634  0.1990 -0.0363
47999W        W48863   9.535  28.474  23.934  0.1260  0.1743  0.0676
48000W        W48864   6.858  24.605  26.937  0.0140 -0.2672  0.3755
48001W        W48865   3.252  25.044   0.937  0.0818 -0.1815  0.1523
48002W        W48866   7.483  20.585   0.084 -0.1683 -0.0055 -0.0308
48003W        W48867   7.236  21.499  25.852 -0.2608  0.0628  0.2934
48004W        W48868   5.554   0.281  29.103  0.1682  0.0637 -0.0535
48005W        W48869   7.520  21.148  26.141 -0.2946  0.3048 -0.2088
48006W        W48870   5.898  24.012  26.230  0.2363 -0.0876  0.2715
48007W        W48871   4.524  23.569  29.081  0.0458 -0.0192  0.1924
48008W        W48872   5.109  25.221   0.215 -0.0506  0.3402 -0.1364
48009W        W48873   7.917  22.877  29.057  0.3553  0.0114 -0.0273
48010W        W48874   5.291  26.339  25.877  0.0594  0.0560 -0.1689
48011W        W48875   6.581  22.836  26.738  0.4130  0.1773  0.0079
48012W        W48876   2.202  21.556  26.778  0.0464 -0.1329 -0.3074
48013W        W48877   6.009  24.290  27.098  0.2456 -0.1672  0.1157
48014W        W48878   4.586  23.774  28.582  0.1008 -0.0624  0.1591
48015W        W48879   6.806  21.045  25.295 -0.0982  0.0115  0.2366
48016W        W48880   5.657  23.497  26.189 -0.3086  0.0224 -0.1587
48017W        W48881   5.579  25.543  25.658 -0.0435 -0.1235  0.0253
48018W        W48882   8.435  24.588  28.629 -0.1418  0.0453 -0.0061
48019W        W48883   5.145  23.908  28.522 -0.0818  0.2370 -0.1317
48020W        W48884   6.912  25.312  27.297  0.0570  0.0102  0.0971
48021W        W48885   5.691  23.914  27.450 -0.3329 -0.1616 -0.3859
48022W        W48886   7.367  23.843  23.781  0.1372 -0.1186  0.0548
48023W        W48887   2.210  23.699   0.091  0.0663 -0.1177  0.2799
48024W        W48888   7.631  23.388  28.709 -0.0600 -0.1264  0.1060
48025W        W48889   3.280  22.898  26.949  0.0390  0.3283 -0.1005
48026W        W48890   6.570  24.536  27.928  0.0113 -0.0044 -0.0473
48027W        W48891   4.433  24.640  28.332 -0.1449  0.1795 -0.4886
48028W        W48892   6.277  22.589  27.548 -0.3021 -0.1959  0.0517
48029W        W48893   3.220  24.510   0.423 -0.2920 -0.0334 -0.2290
48030W        W48894   7.092  26.109  26.692 -0.1510  0.0250  0.2411
48031W        W48895   4.670  24.275  28.629  0.3358 -0.0782 -0.0560
48032W        W48896   5.057  24.595  27.263 -0.1783  0.0053  0.1020
48033W        W48897   4.792  26.530  26.338 -0.0928 -0.1863 -0.0730
48034W        W48898   5.099  26.449   0.387 -0.2221  0.1770  0.0638
48035W        W48899   6.957  27.167  25.718  0.0033 -0.0086 -0.1020
48036W        W48900   2.320  24.083  28.817  0.0687  0.1316 -0.3164
48037W        W48901   8.749  25.057  26.008  0.2362  0.0919 -0.1501
48038W        W48902   6.281  22.393  22.576 -0.1802  0.2432  0.1282
48039W        W48903   5.113  22.414  27.803 -0.1478 -0.2141  0.0714
48040W        W48904   6.471  24.522  23.767 -0.2587  0.2325  0.0714
48041W        W48905   7.088  22.912  26.980 -0.0819 -0.2710  0.2351
48042W        W48906   4.161  24.207  28.399  0.3187 -0.0115 -0.0187
48043W        W48907   6.081  23.707  25.386 -0.3640  0.0362  0.1552
48044W        W48908   8.433  25.475   1.347 -0.0131  0.2512 -0.1719
48045W        W48909   4.934  24.622  28.286  0.0902  0.0288 -0.1503
48046W        W48910   4.530  24.442  29.118  0.0361  0.0275 -0.4507
48047W        W48911   4.299  23.194  26.951  0.3788 -0.0168  0.2722
48048W        W48912   6.169  26.348  25.800 -0.0432 -0.1104  0.1841
48049W        W48913   7.325  26.534  24.968 -0.1307  0.0575 -0.3115
48050W        W48914   3.102  23.440  27.764 -0.0657 -0.1561  0.1493
48051W        W48915   7.156  23.940  27.973 -0.4714 -0.0727 -0.0718
48052W        W48916   6.608  25.505   0.394 -0.2927 -0.0539  0.0563
48053W        W48917   8.089  25.503  29.007  0.0451  0.0611 -0.1512
48054W        W48918   8.142  25.561  27.520 -0.0686  0.2962  0.0045
48055W        W48919   6.638  24.919  26.564 -0.1076  0.2288  0.1164
48056W        W48920   6.991  25.645  28.831 -0.4445  0.0424 -0.1622
48057W        W48921   4.756  23.944   1.238 -0.1060  0.0554 -0.1574
48058W        W48922   5.858  22.406  28.442  0.0374 -0.5604  0.0072
48059W        W48923   6.166  25.102  26.401  0.0712 -0.3269 -0.0139
48060W        W48924   3.491  24.694  25.096  0.0182  0.0076 -0.1880
48061W        W48925   2.511  24.294  27.633 -0.0937  0.2867  0.2160
48062W        W48926   4.028  23.640  27.096 -0.0644 -0.0642  0.1739
48063W        W48927   5.456  25.208  26.861  0.0978 -0.0510  0.0610
48064W        W48928   3.697  26.246  26.804 -0.0419 -0.1555 -0.0448
48065W        W48929   3.559  24.226   0.727  0.0007 -0.0185  0.3358
48066W        W48930   6.906  22.431  26.956  0.2295  0.0592  0.0913
48067W        W48931   4.023  20.320  29.108 -0.0903  0.0289 -0.1413
48068W        W48932   7.468  25.421  26.100  0.2005 -0.1557 -0.1563
48069W        W48933   2.862  24.111  27.308 -0.3541  0.0935 -0.0059
48070W        W48934   6.528  24.867  25.984  0.0707 -0.1272 -0.0807
48071W        W48935   6.034  27.203  24.040  0.2327 -0.0521 -0.1259
48072W        W48936   5.177  24.955  26.465 -0.1466  0.2313 -0.3041
48073W        W48937   7.850  23.942  24.400 -0.0670  0.2991 -0.2310
48074W        W48938   7.212  25.631  26.921  0.2727  0.2485 -0.1816
48075W        W48939   4.550  25.132  28.401  0.0596 -0.3094  0.2285
48076W        W48940   6.012  25.685  25.051  0.4591 -0.1101  0.0457
48077W        W48941   5.388  23.089  25.983 -0.0413 -0.1723 -0.1130
48078W        W48942   4.148  21.760  28.635 -0.5502 -0.0209 -0.0149
48079W        W48943   6.326  25.418  28.093  0.0827  0.2636 -0.1339
48080W        W48944   6.729  21.984  27.016  0.2299  0.0664  0.0046
48081W        W48945   4.244  26.749   0.414 -0.1296 -0.1461  0.2298
48082W        W48946   4.325  25.801  25.052 -0.2447 -0.0186 -0.1375
48083W        W48947   3.662  21.008  27.096  0.0181 -0.0526  0.0614
48084W        W48948   5.349  23.520  27.681 -0.0706 -0.2290 -0.0538
48085W        W48949   5.108  25.449  25.263 -0.0249  0.2493  0.1028
48086W        W48950   5.979  25.203  23.274  0.2351 -0.1065 -0.1053
48087W        W48951   7.285  26.348   0.057  0.3943  0.0370 -0.0786
48088W        W48952   7.255  24.414  27.746  0.2117 -0.0538  0.1643
48089W        W48953   6.120  23.020  26.741  0.1580  0.2183  0.2210
48090W        W48954   6.244  22.717  26.379  0.2043  0.0990 -0.0236
48091W        W48955   3.957  25.576  28.638  0.2534  0.0085  0.1938
48092W        W48956   6.151  20.909  26.004  0.1393  0.1929 -0.1479
48093W        W48957   4.111  24.573  28.798  0.0008  0.1936 -0.2285
48094W        W48958   6.401  26.094  26.774  0.0079  0.0424  0.2171
48095W        W48959   5.263  20.393  26.904  0.0862  0.1857 -0.1299
48096W        W48960   5.809  28.204  27.635  0.3096 -0.2750 -0.0045
48097W        W48961   5.246  26.264   1.184  0.0543 -0.0943 -0.0766
48098W        W48962   6.993  21.695  27.362 -0.2071 -0.1970  0.0379
48099W        W48963   5.875  24.171  25.401 -0.2993 -0.1119 -0.1136
48100W        W48964   6.300  25.677  27.717  0.1584 -0.2047 -0.2218
48101W        W48965   6.093  27.203  27.538  0.0888 -0.2768  0.1338
48102W        W48966   2.911  24.542  28.264 -0.1478 -0.0845 -0.1599
48103W        W48967   6.954  25.556  25.315  0.1373  0.0029  0.0966
48104W        W48968   3.018  23.117   0.039 -0.2378  0.2258 -0.2483
48105W        W48969   5.230  25.270  25.929 -0.2781  0.0840 -0.1091
48106W        W48970   7.367  25.176  27.115 -0.0082  0.1947 -0.0787
48107W        W48971   4.305  23.358  28.544  0.0844  0.0183 -0.1597
48108W        W48972   3.125  23.381  26.203  0.1524 -0.1887  0.0736
48109W        W48973   4.717  24.303  22.949 -0.1292 -0.2176 -0.0976
48110W        W48974   4.852  26.981  26.669  0.0919 -0.1690  0.1405
48111W        W48975   5.586  27.360  27.786 -0.0309  0.3149 -0.0843
48112W        W48976   3.631  23.742  25.105  0.3781  0.1361  0.0205
48113W        W48977   6.906  23.790  23.954 -0.2212  0.1172  0.2877
48114W        W48978   7.043  25.797   0.568 -0.1123  0.1424  0.0951
48115W        W48979   6.852  28.466  29.125  0.1262 -0.0786  0.0407
48116W        W48980   6.587  24.525  28.507  0.0927  0.1735 -0.0816
48117W        W48981   6.380  25.120   2.204  0.0438  0.0042  0.0522
48118W        W48982   4.521  25.979  27.742 -0.1685  0.2565  0.2089
48119W        W48983   6.791  25.121  25.178 -0.1564 -0.0087 -0.3236
48120W        W48984   2.833  22.504  25.090 -0.0750 -0.1013 -0.1123
48121W        W48985   7.467  20.428  27.556 -0.0433 -0.0450  0.2775
48122W        W48986   6.496  26.726  25.999 -0.2552 -0.5919 -0.1134
48123W        W48987   0.635  22.503  29.100 -0.1537  0.2725  0.0165
48124W        W48988   4.881  21.214  25.642  0.0873  0.2563 -0.0445
48125W        W48989   2.927  26.477  27.389  0.1011 -0.1656  0.2636
48126W        W48990   5.532  24.801  27.255 -0.0814 -0.0398 -0.4150
48127W        W48991   5.714  26.341  27.370 -0.3099 -0.0516  0.2078
48128W        W48992   1.959  24.221  27.486  0.1085  0.2017  0.0528
48129W        W48993   5.686  22.669  27.587 -0.3733  0.0421  0.1662
48130W        W48994   4.269  24.148  27.933 -0.0234 -0.3214 -0.0511
48131W        W48995   3.206  23.431  25.194 -0.1134  0.1365  0.2026
48132W        W48996   6.250  27.197  28.963 -0.5030 -0.2389 -0.5097
48133W        W48997   4.688  25.478  22.625 -0.0788  0.2294 -0.1794
48134W        W48998   5.802  25.434  26.571 -0.2993 -0.1198 -0.2674
48135W        W48999   5.516  25.913  27.675 -0.0554  0.0532  0.0094
48136W        W49000   7.819  25.299  25.754 -0.1650 -0.0776  0.0440
48137W        W49001   4.847  23.491  25.487 -0.0620  0.0028  0.1101
48138W        W49002   2.500  26.671  27.145 -0.0852  0.0978  0.0001
48139W        W49003   6.246  24.119   1.953 -0.1091  0.0889 -0.0962
48140W        W49004   3.026  23.711   0.690  0.2520  0.2101  0.1147
48141W        W49005   0.873  25.032  26.283 -0.1821  0.1792 -0.1127
48142W        W49006   2.194  24.867  25.905 -0.1068  0.4892  0.2767
48143W        W49007   4.917  24.371   0.274  0.0403  0.0475  0.0601
48144W        W49008   5.317  23.584  27.067  0.1247  0.1168  0.3380
48145W        W49009   6.715  21.876  28.358  0.0876  0.0082  0.0397
48146W        W49010   4.526  24.751  26.009 -0.1837 -0.0406  0.0622
48147W        W49011   7.645  26.414  28.390  0.0462 -0.0796 -0.0929
48148W        W49012   9.141  24.924  26.549 -0.0716  0.0690 -0.0374
48149W        W49013   5.647  25.899  26.582  0.0479  0.3299 -0.1950
48150W        W49014   4.685  25.476  24.923  0.0460 -0.3715  0.0003
48151W        W49015   8.865  21.913  25.894 -0.0542 -0.0243 -0.0830
48152W        W49016   4.576  24.198  27.477  0.0799  0.3310  0.0470
48153W        W49017   5.770  21.789  25.826 -0.0450 -0.1849  0.5374
48154W        W49018   4.666  24.188  23.876  0.0152  0.0801 -0.0009
48155W        W49019   6.837  24.334   0.011 -0.0249  0.1908 -0.2282
48156W        W49020   7.505  27.217  25.545  0.2407  0.5094 -0.0529
48157W        W49021   4.023  22.894  28.340  0.0808 -0.3104  0.0474
48158W        W49022   5.814  24.306  28.068 -0.0784 -0.0422 -0.1446
48159W        W49023   7.119  26.565   0.831  0.0408  0.2757 -0.0773
48160W        W49024   6.842  25.410  28.137 -0.0316  0.2259 -0.1240
48161W        W49025   3.674  23.992  28.364 -0.2111  0.0630 -0.2531
48162W        W49026   5.763  24.886  28.879 -0.1632 -0.0561  0.1227
48163W        W49027   6.223  27.389  28.458 -0.3233  0.2175  0.0412
48164W        W49028   5.798  23.416  26.655 -0.0957 -0.1056  0.1791
48165W        W49029   6.300  26.119   1.841  0.1815 -0.1015  0.1901
48166W        W49030   7.950  26.964  28.141  0.0610 -0.1115  0.1160
48167W        W49031   6.370  24.416  27.498 -0.1159  0.1895 -0.1673
48168W        W49032   6.697  23.510  26.121 -0.2386  0.0807  0.0917
48169W        W49033   5.949  25.863  27.402  0.0921  0.2993 -0.1827
48170W        W49034   6.862  25.897  28.367 -0.0201 -0.0881  0.0781
48171W        W49035   4.224  22.862   1.687  0.3936  0.1427  0.2389
48172W        W49036   7.499  24.784  26.746  0.0581  0.2742 -0.1417
48173W        W49037   3.550  26.581  28.093  0.0425  0.1933  0.0688
48174W        W49038   6.044  24.580  26.305 -0.0132  0.1045 -0.0401
48175W        W49039   6.329  27.394  27.951  0.2126  0.0317  0.0405
48176W        W49040   3.252  27.497  27.779  0.2100 -0.0895 -0.0209
48177W        W49041   5.330  24.106  26.574 -0.0047  0.0240  0.0761
48178W        W49042   6.484  26.033  23.635  0.0536  0.1637 -0.3083
48179W        W49043   3.166  24.039  28.246 -0.2344  0.3609 -0.2297
48180W        W49044   4.530  26.321  24.479 -0.0822  0.0623 -0.2833
48181W        W49045   2.763  23.628  27.117 -0.2031  0.1860  0.1200
48182W        W49046   5.090  28.059   4.032 -0.0218 -0.1475  0.1613
48183W        W49047   3.031  26.805   3.757 -0.1262  0.0165  0.3076
48184W        W49048   6.970  29.012   1.942 -0.0001 -0.2848  0.1137
48185W        W49049   6.543   0.115   3.087  0.3607  0.1757 -0.0524
48186W        W49050   3.445   1.689  28.578  0.1276 -0.0233 -0.1174
48187W        W49051   6.875  26.756  29.003 -0.0138  0.1549 -0.0150
48188W        W49052   4.259  25.652   2.753 -0.0121  0.0098  0.0874
48189W        W49053   5.341  27.397  28.912  0.2289 -0.0087 -0.1300
48190W        W49054   6.226   0.736   2.639  0.1329  0.1235  0.0771
48191W        W49055   2.123  24.239   4.567 -0.3045 -0.0817 -0.0418
48192W        W49056   5.661  26.814   2.283 -0.1773  0.1334 -0.2765
48193W        W49057   7.194  24.871  27.590  0.1074 -0.1284  0.2597
48194W        W49058   7.178  27.906   0.316  0.0659 -0.0492 -0.1437
48195W        W49059   4.203  25.369   1.749  0.1096  0.0746  0.1294
48196W        W49060   5.982  25.932   2.843  0.0622  0.2075  0.0751
48197W        W49061   5.130   0.463   3.312 -0.3381  0.0779  0.0207
48198W        W49062   4.345  27.821  26.814  0.1713  0.2178  0.0046
48199W        W49063   2.952  28.905   3.536 -0.1279  0.0992  0.0205
48200W        W49064   4.794  27.363   3.104  0.1918 -0.0465 -0.1569
48201W        W49065   9.735  28.820   0.932  0.0421  0.1334  0.0412
48202W        W49066   8.507  27.780   1.280  0.3643  0.2570  0.1115
48203W        W49067   5.298  27.020   1.135  0.0043  0.1958  0.0215
48204W        W49068   7.145   2.976   2.622 -0.0227 -0.0097  0.4775
48205W        W49069   2.994  27.401   2.207 -0.2469 -0.0554 -0.1610
48206W        W49070   4.081  27.401   2.920 -0.2508 -0.1054 -0.1795
48207W        W49071   2.568  26.403   3.615 -0.0909  0.0606  0.1341
48208W        W49072   5.259  26.983   5.608 -0.1267 -0.2366 -0.0314
48209W        W49073   4.242   0.463  28.886 -0.1204  0.3317 -0.0050
48210W        W49074   4.067  28.352   0.721 -0.0024 -0.1269 -0.1365
48211W        W49075   5.043  26.870   2.383  0.0328  0.1796  0.0569
48212W        W49076   3.729   0.074   2.561 -0.1277 -0.2363  0.2106
48213W        W49077   4.318  29.132   2.536 -0.0573 -0.1088  0.3910
48214W        W49078   5.476  25.205   5.401  0.2352 -0.0371  0.1764
48215W        W49079   5.823  26.297   5.481 -0.0169 -0.0402  0.0424
48216W        W49080   6.190  24.644   4.290 -0.2157 -0.0962 -0.3514
48217W        W49081   7.905  27.235   1.781 -0.1649  0.2981  0.0980
48218W        W49082   6.407  28.212   0.258 -0.1718  0.0099 -0.0852
48219W        W49083   3.856  28.492   0.316  0.0419  0.1703  0.1264
48220W        W49084   5.344  28.713   1.540  0.1016  0.2694  0.2350
48221W        W49085   6.193  27.237   0.351  0.2232 -0.0171 -0.0024
48222W        W49086   5.538  27.785   0.055  0.1012  0.0427 -0.1462
48223W        W49087   5.267  26.234   4.790 -0.2863 -0.1705  0.1144
48224W        W49088   4.657   0.549   0.364 -0.0575 -0.3458 -0.3526
48225W        W49089   8.674   2.263  28.932  0.0883 -0.1568 -0.1251
48226W        W49090   3.043   0.271  28.368 -0.0651 -0.0018 -0.0050
48227W        W49091   3.814   0.087   0.342 -0.0475  0.3548  0.1926
48228W        W49092   5.034  26.069   2.992  0.1278  0.1966  0.1375
48229W        W49093   7.718  28.347   2.164  0.1815 -0.2917 -0.0902
48230W        W49094   5.443  27.887   3.191 -0.0878 -0.0462  0.2422
48231W        W49095   6.027  28.146   1.315  0.1882  0.2575 -0.1557
48232W        W49096   6.390  27.990   2.248  0.0920  0.1721  0.0468
48233W        W49097   6.730  26.481  28.575  0.2836  0.1337  0.2877
48234W        W49098   5.670  27.770   0.987  0.0327  0.1506 -0.0993
48235W        W49099   8.351   0.823  28.223  0.0255 -0.0618 -0.2980
48236W        W49100   6.792  25.969   2.388 -0.1547 -0.0366 -0.0059
48237W        W49101   6.666  28.771   0.355 -0.0623  0.3765  0.1478
48238W        W49102   4.506  26.075   2.866 -0.0334  0.0624 -0.1824
48239W        W49103   6.916  27.922   1.247 -0.0159 -0.1048 -0.1056
48240W        W49104   5.232   0.051   1.852  0.0542  0.2612 -0.0729
48241W        W49105   6.705  28.974  28.984  0.0855 -0.2349  0.1932
48242W        W49106   6.292  27.578   0.707  0.1450  0.1336  0.3026
48243W        W49107   3.421   0.366   1.766  0.1168  0.1085  0.1060
48244W        W49108   4.714  26.558   4.621  0.1989  0.0631 -0.1417
48245W        W49109   5.358  26.939  28.784  0.0456 -0.0221  0.1150
48246W        W49110   3.924  26.016  28.842 -0.1176  0.1157 -0.1055
48247W        W49111   9.020  24.438   3.216  0.0626  0.1015 -0.0259
48248W        W49112   4.553  27.931  29.109  0.0473  0.0459 -0.0328
48249W        W49113   5.744  28.717  28.686 -0.2444 -0.0320  0.2228
48250W        W49114   4.677  26.593   2.182  0.0309  0.4170 -0.1468
48251W        W49115   4.391   0.635   2.060 -0.2840  0.0783  0.1153
48252W        W49116   6.886  27.814   2.283  0.0178  0.2256 -0.1380
48253W        W49117   6.177  28.070   0.716  0.0530 -0.0033  0.1875
48254W        W49118   7.134   1.183   1.360 -0.0026  0.4206  0.1628
48255W        W49119   7.786   1.791   0.849 -0.1172  0.0562  0.1497
48256W        W49120   7.646   0.527   2.877 -0.0822  0.0741  0.2277
48257W        W49121   5.582  28.205   3.686  0.1898  0.0151 -0.0589
48258W        W49122   3.801  26.702   2.431  0.0165 -0.0024  0.0675
48259W        W49123   4.966  27.734   0.745 -0.4529  0.0763 -0.1258
48260W        W49124   4.040  26.677  29.102 -0.0933  0.4051  0.0492
48261W        W49125   4.893  27.573  29.070  0.0616 -0.0766 -0.0284
48262W        W49126   1.864  25.922   1.953  0.2567  0.2152  0.2396
48263W        W49127   2.832  28.592   3.876 -0.1807 -0.0354 -0.0237
48264W        W49128   2.349  26.017   1.807  0.0543 -0.1885  0.0847
48265W        W49129   6.807  24.077  28.764  0.2167  0.0944  0.0776
48266W        W49130   6.178  22.821   3.084 -0.0895 -0.1000  0.1313
48267W        W49131   7.273  25.880   0.152 -0.2558 -0.2399  0.0457
48268W        W49132   5.909  26.759   3.904  0.0358 -0.3578  0.0688
48269W        W49133   5.464  25.650   1.847  0.0298  0.0313  0.1700
48270W        W49134   5.152  27.705   4.388 -0.3058  0.1124  0.0588
48271W        W49135   6.009  27.120   2.150 -0.0432 -0.0543 -0.0545
48272W        W49136   5.639  26.012   0.994  0.0172 -0.0873  0.0864
48273W        W49137   5.392  26.629   5.183 -0.2195 -0.2402  0.0056
48274W        W49138   5.869   2.068   0.444 -0.0191  0.3436  0.1600
48275W        W49139   4.905  27.275   1.371  0.3237  0.4835  0.1850
48276W        W49140   6.340  27.108   2.951 -0.1796  0.1036 -0.1106
48277W        W49141   7.003   0.914  28.186 -0.0901  0.0092 -0.0728
48278W        W49142   8.163  28.386  28.015 -0.0752 -0.0161  0.3342
48279W        W49143   5.099  28.937   3.766  0.1201 -0.0181 -0.1955
48280W        W49144   3.876  26.574   3.652 -0.0724 -0.0177  0.3752
48281W        W49145   7.356  25.964   1.430 -0.3223  0.4391 -0.0338
48282W        W49146   6.123   1.896   2.790 -0.0965  0.0563  0.2543
48283W        W49147   4.499  25.491  28.800  0.1437  0.1196  0.1522
48284W        W49148   3.999  28.211  26.860 -0.0537 -0.1079 -0.0497
48285W        W49149   4.710  28.719   3.533 -0.1108 -0.1405 -0.0684
48286W        W49150   8.225  26.572   3.032  0.0492 -0.0869  0.0074
48287W        W49151   5.259  25.746   0.723  0.1761  0.3157 -0.0414
48288W        W49152   8.859   0.435   1.448  0.0556 -0.0598  0.1830
48289W        W49153   2.465  27.476   4.361  0.3270  0.3887  0.3833
48290W        W49154   8.363  25.566   3.407  0.0270 -0.0457 -0.3018
48291W        W49155   3.692  27.250   4.286 -0.1679 -0.2037  0.0931
48292W        W49156   4.265  26.526   3.039  0.2448 -0.0673  0.0022
48293W        W49157   5.842   1.566   1.246  0.1850  0.1252  0.0449
48294W        W49158   7.151  27.518   0.749 -0.0675 -0.1683 -0.1300
48295W        W49159   6.677   1.335   2.244  0.1251  0.0977 -0.1440
48296W        W49160   8.802  28.844   1.038 -0.3080 -0.0840  0.5578
48297W        W49161   5.618  28.156   2.686  0.1072 -0.0814  0.1120
48298W        W49162   7.802  25.480   6.982 -0.1696 -0.0751 -0.2579
48299W        W49163   4.245  26.316   1.287 -0.1881 -0.0385 -0.0869
48300W        W49164   7.714  25.045   1.548 -0.1953 -0.0452 -0.0236
48301W        W49165   6.179  25.722   3.257 -0.3391 -0.1451 -0.0916
48302W        W49166   4.909  25.230  28.676 -0.0280  0.1446 -0.2854
48303W        W49167   7.599   0.812  28.908 -0.2911 -0.3590  0.0990
48304W        W49168   4.717   0.409  28.174  0.0022  0.1076  0.0193
48305W        W49169   6.826  29.065  27.105 -0.0207 -0.1369 -0.3526
48306W        W49170   5.355  28.250   1.251 -0.0414  0.1409  0.2430
48307W        W49171   6.453  28.539   2.421 -0.1264  0.0478  0.3702
48308W        W49172   3.834  28.250   2.170 -0.2488 -0.0451 -0.0975
48309W        W49173   6.943  25.164   2.932  0.0571 -0.0619  0.3041
48310W        W49174   6.972  29.129   4.789  0.2816 -0.0950  0.2645
48311W        W49175   7.337  28.681   4.668  0.2409 -0.0066  0.0766
48312W        W49176   7.718   1.223   2.131 -0.0397  0.2229 -0.1608
48313W        W49177   5.028  28.019  28.791  0.0061 -0.1717 -0.0693
48314W        W49178   5.903   0.071   1.407 -0.0012 -0.2140 -0.2115
48315W        W49179   7.512  28.692  28.844 -0.1006 -0.0354  0.0002
48316W        W49180   8.103  25.279   1.665 -0.2304 -0.4233 -0.1068
48317W        W49181   4.484  26.518   0.845  0.2979 -0.0979  0.2281
48318W        W49182   8.012  27.484   0.531  0.0682  0.4504 -0.0366
48319W        W49183   5.026  25.475   6.429 -0.0544 -0.2988 -0.0721
48320W        W49184   8.432   2.225  27.591  0.1578  0.3259  0.0671
48321W        W49185   5.206  29.134   0.683 -0.2604  0.1947 -0.0599
48322W        W49186   3.181  25.514   0.779 -0.2623 -0.0312 -0.0268
48323W        W49187   8.074  24.155   4.017 -0.1331  0.1951  0.1288
48324W        W49188   3.225  28.825  28.796 -0.2006 -0.1615 -0.1310
48325W        W49189   2.942  26.847   0.069 -0.0946 -0.0699 -0.3048
48326W        W49190   5.702  28.310   0.904 -0.4552  0.4378 -0.0330
48327W        W49191   7.670  25.260   0.883 -0.1412 -0.2541  0.1945
48328W        W49192   7.035  24.521   0.465  0.1753  0.0871 -0.1322
48329W        W49193   5.484  26.805   0.106  0.1134  0.0787  0.2823
48330W        W49194   5.784   1.083   3.813 -0.1518  0.0482 -0.1932
48331W        W49195   5.901  28.787   4.318 -0.0891 -0.2002 -0.0997
48332W        W49196   6.989   0.365  28.286  0.0049  0.1616 -0.1925
48333W        W49197   5.590  27.398   1.355  0.0547 -0.2236  0.0761
48334W        W49198   4.196  28.727   4.124 -0.4224 -0.0022 -0.3123
48335W        W49199   3.064  27.939   0.034  0.1958  0.2373 -0.1743
48336W        W49200   7.254   0.693   2.510 -0.1538 -0.3097  0.1791
48337W        W49201   7.998  24.761   2.897  0.2377  0.0984 -0.3399
48338W        W49202   2.929  29.146   0.691 -0.0877 -0.2098  0.1409
48339W        W49203   7.454   0.405  28.570 -0.0815  0.0456  0.0507
48340W        W49204   6.166  27.913  28.462  0.0004  0.3720  0.0777
48341W        W49205   5.536  25.316   1.092  0.2727  0.4028  0.0196
48342W        W49206   4.371  28.296   3.860  0.1553  0.0111 -0.4132
48343W        W49207   5.701  26.451   1.862  0.1590 -0.2226 -0.0718
48344W        W49208   5.204  25.345   4.340 -0.1114 -0.2144 -0.2289
48345W        W49209   6.195  25.605   5.006  0.0979 -0.0826  0.3281
48346W        W49210   1.453  25.271   3.637 -0.2240 -0.1783 -0.1788
48347W        W49211   4.109  26.771   1.553 -0.1392  0.0406 -0.1092
48348W        W49212   3.133  26.371   2.357  0.1372  0.0204 -0.3659
48349W        W49213   1.520   2.064  28.438 -0.1084 -0.3446 -0.0673
48350W        W49214   5.018  27.837   1.621  0.0354 -0.1135 -0.4054
48351W        W49215   5.962   0.486  28.470  0.2426  0.1096  0.2064
48352W        W49216   6.242  25.571   0.768  0.0440 -0.0248  0.2553
48353W        W49217   6.177  26.604   0.982  0.5487 -0.3697 -0.2014
48354W        W49218   4.259  28.379   2.751  0.0191  0.1921 -0.1202
48355W        W49219   5.423  29.134  27.474 -0.1055 -0.3233 -0.1135
48356W        W49220   6.532  25.581   2.068  0.0148  0.3447  0.1757
48357W        W49221   6.150  28.521   1.024 -0.0138  0.2337  0.0191
48358W        W49222   2.407  28.803   2.095 -0.0532 -0.1239  0.0712
48359W        W49223   1.965   0.030   1.220  0.0532  0.3297  0.1254
48360W        W49224   0.806   0.621  28.413 -0.3412  0.2621  0.3282
48361W        W49225   4.750  26.534   3.202  0.1803  0.0826 -0.1466
48362W        W49226   5.832   1.196  29.081 -0.1954 -0.0009  0.4183
48363W        W49227   8.849   0.881  27.789 -0.0057  0.4115 -0.0769
48364W        W49228   7.352   0.231   1.228  0.0265  0.1974  0.2553
48365W        W49229   5.978  25.931   0.418 -0.2281  0.0910 -0.0806
48366W        W49230   4.200  26.186  26.835 -0.0068 -0.1017 -0.0968
48367W        W49231   5.890  28.597   5.631  0.0722  0.0771 -0.2793
48368W        W49232   8.781  24.374   0.124  0.2106 -0.0331 -0.0261
48369W        W49233   3.265  24.443  29.075 -0.0693  0.3441 -0.0362
48370W        W49234   7.236  29.123   4.356 -0.2861 -0.0038  0.1881
48371W        W49235   4.552  28.575   0.681 -0.2254 -0.1870 -0.0009
48372W        W49236   4.711  28.154   2.563 -0.0640  0.2667  0.1980
48373W        W49237   4.398  29.100  28.111  0.1840 -0.1424  0.4214
48374W        W49238   2.909  25.826   6.042  0.2392  0.0622 -0.3140
48375W        W49239   4.036  23.784   5.264 -0.2764  0.1423  0.0328
48376W        W49240   5.603  27.902   1.516  0.0520 -0.2759  0.0934
48377W        W49241   4.364  25.963  28.572 -0.0600  0.1068 -0.5579
48378W        W49242   7.009  24.530   2.648  0.2822  0.0611 -0.1864
48379W        W49243   4.570  25.632   1.915  0.2415  0.0570 -0.4804
48380W        W49244   3.646  28.093  28.566 -0.1869 -0.1793 -0.0309
48381W        W49245   6.429  26.975  28.268 -0.0731 -0.1765  0.0226
48382W        W49246   3.653  25.603   0.582 -0.0752  0.0153 -0.0313
48383W        W49247   7.032  23.233   3.866  0.0467 -0.0141  0.1427
48384W        W49248   7.857  28.784   0.565 -0.2421  0.2315 -0.0728
48385W        W49249   4.033  28.075   3.070 -0.0824 -0.0758  0.1123
48386W        W49250   4.853  26.017   2.504  0.2507 -0.1520 -0.3633
48387W        W49251   4.670  25.524   2.500  0.0890 -0.0567  0.1447
48388W        W49252   3.765  25.535   5.162  0.0715 -0.0033  0.4080
48389W        W49253   6.815  25.100   1.290  0.1616 -0.2476  0.0816
48390W        W49254   5.141   0.398   0.400  0.0189 -0.2279 -0.0556
48391W        W49255   5.249   2.853   1.588 -0.0865  0.0991 -0.1886
48392W        W49256   4.726   0.275   1.944 -0.0584 -0.1294  0.2020
48393W        W49257   4.007  26.630   1.043  0.0959  0.2960  0.0723
48394W        W49258   5.071  27.105   4.013 -0.1013 -0.0378  0.2238
48395W        W49259   8.907  24.867   2.010 -0.1713 -0.1869 -0.1978
48396W        W49260   9.376  28.284   1.803  0.0604 -0.0191 -0.0842
48397W        W49261   6.772  27.949   0.011  0.1040  0.0585  0.2389
48398W        W49262   7.908   1.970  28.011 -0.3976 -0.1280  0.2522
48399W        W49263   6.683  28.828   1.378 -0.0316 -0.0911  0.0703
48400W        W49264   3.553  27.001   5.840 -0.0071  0.0721  0.1859
48401W        W49265   3.313  26.705   2.771  0.0245 -0.0187 -0.1044
48402W        W49266   7.849  23.992   3.028  0.1007  0.2889 -0.2512
48403W        W49267   5.348  27.727  28.021  0.1079  0.1797  0.0126
48404W        W49268   3.335  25.627   6.010 -0.2256  0.0094 -0.3039
48405W        W49269   4.587  26.217   0.361 -0.1975  0.0747 -0.0605
48406W        W49270   9.122   0.109   0.826 -0.2253 -0.1901 -0.0835
48407W        W49271   6.735  27.833   0.532  0.3595 -0.1077 -0.4511
48408W        W49272   3.105  27.117   1.729 -0.0198  0.0505  0.3997
48409W        W49273   6.076  27.543   1.318 -0.2665  0.1343 -0.1563
48410W        W49274   5.448   2.226   2.350 -0.3273  0.1565  0.0593
48411W        W49275   6.741  27.949   4.276  0.4553  0.0471  0.1087
48412W        W49276   4.785  25.517   3.678 -0.3285  0.1630 -0.1139
48413W        W49277   5.789  27.600   1.833  0.0628 -0.2803 -0.2560
48414W        W49278   5.372  27.261   0.250 -0.3398 -0.1866  0.3317
48415W        W49279   5.958  27.985  28.982  0.0655 -0.2533 -0.1903
48416W        W49280   5.337  26.144   1.659  0.1024 -0.2892 -0.2394
48417W        W49281   5.987  27.210  26.635  0.0001 -0.2224  0.4307
48418W        W49282   8.981  28.537  29.009  0.1971 -0.2000 -0.3372
48419W        W49283   3.331  25.607   5.474  0.0286 -0.0626 -0.1127
48420W        W49284   6.744  25.781   3.275  0.0357 -0.0008  0.1254
48421W        W49285   6.406  27.571   2.670  0.0027  0.1252 -0.1712
48422W        W49286   5.634   1.761   0.744 -0.0181 -0.0046  0.2206
48423W        W49287   2.657  28.426   2.360 -0.0934  0.1387 -0.2003
48424W        W49288   6.252  28.267   1.838 -0.0091  0.0740 -0.4624
48425W        W49289   3.549  25.632   3.980 -0.1567 -0.3775  0.0630
48426W        W49290   6.832  28.768   0.807 -0.0994  0.1087 -0.2036
48427W        W49291   5.021  25.943  27.837  0.1708 -0.2632 -0.1681
48428W        W49292   6.931   0.105   1.512 -0.1260  0.1661 -0.2519
48429W        W49293   2.492   0.201   1.222 -0.0150 -0.1068 -0.3242
48430W        W49294   9.085   1.033   2.747  0.1534  0.2694  0.0120
48431W        W49295   2.622  27.111   2.008  0.0553 -0.3071 -0.0695
48432W        W49296   5.850  26.435   2.594  0.2530  0.1821  0.0133
48433W        W49297   3.872   0.594   0.514  0.4226 -0.2086 -0.1524
48434W        W49298   6.254  28.404   4.727 -0.0349 -0.1184  0.1237
48435W        W49299   7.059  28.416   1.173 -0.0057  0.1872 -0.0969
48436W        W49300   4.739   0.254  26.848  0.2773  0.0231  0.0113
48437W        W49301   8.249   0.324  28.054  0.1712 -0.3887 -0.2963
48438W        W49302   6.760  25.580   1.576 -0.0370  0.1664 -0.1131
48439W        W49303   4.164  28.076   5.337 -0.2439  0.0545 -0.1204
48440W        W49304   8.089  28.327   4.736  0.2959 -0.0697  0.3345
48441W        W49305   6.142  28.649   1.561  0.1277  0.1066  0.0811
48442W        W49306   3.905  26.897   3.264  0.2703  0.1445  0.3204
48443W        W49307   2.991  27.872   1.353 -0.1779  0.0603 -0.0562
48444W        W49308   5.578  27.444   3.439 -0.0767  0.1554 -0.0042
48445W        W49309   4.999  25.731   1.630  0.1753  0.1203  0.1466
48446W        W49310   4.078   0.399   2.602  0.3094  0.2456  0.0349
48447W        W49311   1.984  27.138   3.509  0.2098  0.0245 -0.0082
48448W        W49312   4.162  28.572  29.029 -0.0022  0.0955  0.0930
48449W        W49313   7.477   0.268   0.395 -0.1438  0.0473  0.0431
48450W        W49314   3.312  26.183   1.729  0.0085 -0.0764 -0.1589
48451W        W49315   6.666  27.292   0.526 -0.1992  0.2936 -0.0105
48452W        W49316   7.250  27.389   2.397 -0.0579  0.1100  0.0047
48453W        W49317   7.752   0.083   1.485 -0.2662  0.0945 -0.1119
48454W        W49318   5.493  28.374  28.368  0.0333 -0.1849 -0.1624
48455W        W49319   4.701  27.486   3.599 -0.2185 -0.0115  0.2572
48456W        W49320   5.997   0.114   1.897 -0.0076 -0.1993 -0.0784
48457W        W49321   1.900  26.371   6.240  0.2075 -0.2523 -0.1239
48458W        W49322   2.320  24.244   0.151 -0.0645 -0.0663 -0.1021
48459W        W49323   3.410  27.418  29.066 -0.3062  0.1875 -0.2059
48460W        W49324   6.341  28.737   0.020  0.2425 -0.1749  0.3303
48461W        W49325   4.360  28.207   2.206  0.2485  0.0869 -0.1921
48462W        W49326   6.191  26.500   3.619 -0.0153  0.0421  0.2607
48463W        W49327   4.040  26.870  28.374 -0.1724  0.2367 -0.2620
48464W        W49328   4.088  27.249   3.615  0.0203  0.0034  0.2677
48465W        W49329   4.151   2.198   1.076 -0.1393  0.3152  0.0129
48466W        W49330   3.050  25.266  28.777 -0.0249 -0.0149 -0.2184
48467W        W49331   3.771  26.771   4.489  0.0163 -0.1688 -0.0748
48468W        W49332   5.394   0.595   2.832 -0.0088  0.0034  0.3256
48469W        W49333   6.064  28.542   2.782 -0.2546 -0.1802  0.1960
48470W        W49334   6.450  24.925  28.795 -0.0111 -0.1477  0.3052
48471W        W49335   7.763   0.902   2.501  0.0448  0.1521 -0.1595
48472W        W49336   5.563   0.515  27.763 -0.3935 -0.1394 -0.0070
48473W        W49337   6.393   0.042   1.638 -0.0629  0.1122  0.1854
48474W        W49338   5.588  27.943   4.162  0.1529  0.0503 -0.2414
48475W        W49339   5.279  26.887   0.519  0.3723  0.0746 -0.0734
48476W        W49340   6.026  27.439   3.224  0.1035  0.0215 -0.0715
48477W        W49341   5.139  25.695  27.425  0.2206  0.1813 -0.0736
48478W        W49342   5.747  25.591   0.654  0.1215  0.3952  0.1853
48479W        W49343   8.273  27.394   1.099  0.4062 -0.1578 -0.2196
48480W        W49344   6.969  26.924  28.440  0.0124 -0.0704  0.0300
48481W        W49345   3.485  28.144   1.260 -0.0486 -0.2130 -0.1857
48482W        W49346   5.569  26.608   0.925 -0.1576  0.3224 -0.1882
48483W        W49347   6.116  25.767   4.054 -0.3017  0.1825  0.0548
48484W        W49348   5.878   1.430   2.788 -0.2251 -0.1208  0.0397
48485W        W49349   5.123   0.337   2.418 -0.1370  0.2532 -0.2357
48486W        W49350   5.490   0.005   1.153 -0.0919  0.2049 -0.1007
48487W        W49351   4.368   1.758   1.028  0.2047 -0.0643 -0.2594
48488W        W49352   4.419  26.190   6.479 -0.0683  0.3259  0.1402
48489W        W49353   4.538  25.307   0.093 -0.2997  0.0362  0.1061
48490W        W49354   6.065  26.571   2.174  0.2167 -0.0382  0.1768
48491W        W49355   1.917  27.717   1.826  0.0916  0.0866  0.0716
48492W        W49356   5.265  27.477   1.789  0.2913  0.2324  0.1908
48493W        W49357   5.563  24.775   1.630  0.1175 -0.3360 -0.2191
48494W        W49358   6.954   0.459   1.092  0.0800  0.0203  0.0330
48495W        W49359   5.887  28.134   3.176  0.0255  0.1126 -0.0448
48496W        W49360   4.748   0.879   3.942 -0.2334 -0.0029  0.2477
48497W        W49361   5.314   1.465   2.957 -0.2510  0.3574 -0.1750
48498W        W49362   5.837  26.590  28.230 -0.0161  0.0173 -0.2823
48499W        W49363   6.307  25.654   1.590  0.1942 -0.2487 -0.5398
48500W        W49364   5.768  26.357   4.866 -0.4251 -0.0882 -0.0259
48501W        W49365   6.685  26.725   3.304  0.3273 -0.0002  0.0113
48502W        W49366   5.143   2.427  29.095 -0.1893 -0.1862 -0.1087
48503W        W49367   8.868  27.999   0.464 -0.0658  0.2880  0.0745
48504W        W49368   4.858  24.424   4.493  0.1424 -0.0669  0.1735
48505W        W49369   5.555   1.269   3.328 -0.0909 -0.2119 -0.0878
48506W        W49370   6.399  24.636   1.954  0.1012  0.1460 -0.2210
48507W        W49371   5.735  28.639  27.991  0.0275 -0.0293  0.1825
48508W        W49372   5.370  24.840  28.547 -0.2764  0.0276  0.3048
48509W        W49373   3.619  28.425   0.789 -0.3123 -0.0589  0.2477
48510W        W49374   5.063  27.065  28.328  0.3300 -0.0524  0.1969
48511W        W49375   3.905  26.036   1.060  0.2639 -0.0507  0.1159
48512W        W49376   6.314  25.698  29.131  0.2738 -0.0716 -0.1271
48513W        W49377   4.739  26.379  26.849  0.2553 -0.0272  0.1283
48514W        W49378   6.981  25.744   4.870  0.0269 -0.1940 -0.2153
48515W        W49379   5.912  27.730   3.686 -0.0514  0.1455 -0.1326
48516W        W49380   4.187  27.324   4.309  0.1040 -0.1600  0.1118
48517W        W49381   6.137  27.160   6.154 -0.1150 -0.0048  0.1713
48518W        W49382   4.036  26.139   2.801  0.4658  0.0781 -0.0831
48519W        W49383   7.904  28.838  29.129 -0.0538 -0.1097 -0.1079
48520W        W49384   4.860  26.324   3.846 -0.0577  0.2705  0.0004
48521W        W49385   6.631  26.346   0.024  0.1213  0.4527 -0.1017
48522W        W49386   4.350  27.333   2.485 -0.2195  0.1060 -0.0604
48523W        W49387   3.605  26.884   0.834 -0.1969  0.0420  0.0697
48524W        W49388   6.140  26.194   0.035 -0.0569 -0.0005 -0.1028
48525W        W49389   2.546   1.254   0.998 -0.0803 -0.1647 -0.0790
48526W        W49390   7.302  28.671   0.617 -0.0009 -0.4085 -0.2026
48527W        W49391   2.872   1.931   1.591 -0.0060  0.0167  0.1059
48528W        W49392   6.021  29.088  28.398 -0.0761  0.1075  0.0503
48529W        W49393   3.351  27.174   1.240 -0.2715 -0.1680  0.2384
48530W        W49394   5.419  27.727   2.476  0.0693  0.0143 -0.1206
48531W        W49395   2.605  22.883  28.844  0.1917  0.0299  0.2293
48532W        W49396   6.829  26.136   1.411 -0.1787  0.0255 -0.0842
48533W        W49397   9.441  27.706   1.807  0.2044  0.0588 -0.3220
48534W        W49398   6.697  26.488   1.739  0.1573  0.3106 -0.2885
48535W        W49399   7.532  29.084   0.811  0.1784 -0.0903  0.0542
48536W        W49400   4.012   0.013  28.541  0.1083 -0.0825 -0.2015
48537W        W49401   5.117  26.107  28.314  0.1470 -0.0134 -0.1334
48538W        W49402   1.393  28.807   1.138 -0.1324  0.2320 -0.3430
48539W        W49403   5.301  25.634   5.134  0.0527 -0.2632 -0.1550
48540W        W49404   4.664  27.501   1.727  0.1947 -0.1456 -0.0918
48541W        W49405   3.561  26.390   0.680  0.1008 -0.1371  0.1180
48542W        W49406   7.968  29.000   1.065 -0.0519  0.1739  0.1089
48543W        W49407   7.509  24.846   2.918  0.1562  0.0488 -0.1793
48544W        W49408   4.312  28.723   1.382 -0.1639 -0.0341  0.0997
48545W        W49409   6.099  24.374   2.895 -0.0253  0.1405 -0.2275
48546W        W49410   5.526   0.508   0.926  0.0654 -0.2630  0.0752
48547W        W49411   7.346  28.579   4.162 -0.1449 -0.2943 -0.1113
48548W        W49412   5.172  26.498  28.965 -0.1735  0.1608 -0.0230
48549W        W49413   7.898   0.656   1.534  0.1532 -0.1358 -0.0215
48550W        W49414   6.479  28.574  27.233  0.0123 -0.1636 -0.0434
48551W        W49415   8.132  25.577   0.884  0.0283  0.0059  0.2156
48552W        W49416   5.715  24.815   1.141 -0.1841  0.3240 -0.1023
48553W        W49417   7.135  26.803   1.687 -0.3368 -0.0206  0.0910
48554W        W49418   5.857  28.911   0.814  0.1030 -0.0676 -0.0395
48555W        W49419   6.772  25.325   2.462 -0.0651  0.1380 -0.1694
48556W        W49420   5.497  28.220  28.848 -0.3179  0.0575 -0.2140
48557W        W49421   9.093  23.528   4.113 -0.0959  0.1215 -0.0016
48558W        W49422   7.122  26.364   2.555  0.0129 -0.4348  0.1977
48559W        W49423   7.468   2.539   3.861 -0.0333  0.0632 -0.2906
48560W        W49424   7.409  24.903   3.864  0.1797  0.4954  0.1104
48561W        W49425   4.422  25.863   1.401 -0.0127 -0.0229 -0.1935
48562W        W49426   5.912  27.218   2.691  0.2046  0.0357  0.3372
48563W        W49427   4.903  29.090   2.280 -0.2186  0.1627  0.3361
48564W        W49428   5.505  26.955   4.270 -0.0452 -0.2494 -0.0425
48565W        W49429   7.742  27.817   2.418 -0.3275 -0.0883  0.1946
48566W        W49430   7.707   1.413   3.190 -0.2034 -0.1460  0.1340
48567W        W49431   4.583   0.092  28.556  0.2890 -0.0087 -0.1533
48568W        W49432   7.863   0.427  28.947 -0.0873 -0.0627  0.1057
48569W        W49433   5.195  28.204   2.437 -0.0648 -0.2257  0.1659
48570W        W49434   5.008  26.984   0.063  0.0757  0.0664 -0.3617
48571W        W49435   8.416  28.684   0.741 -0.4069  0.1395 -0.1341
48572W        W49436   4.730  27.936   5.240 -0.3157  0.1035 -0.1974
48573W        W49437   6.016   0.682   0.892  0.0954 -0.0660  0.1542
48574W        W49438   7.792  29.092  28.698 -0.4077 -0.0082  0.1780
48575W        W49439   5.724  28.114   0.361  0.0066 -0.0291  0.1865
48576W        W49440   4.360   1.193   1.123  0.0033 -0.0720 -0.1566
48577W        W49441   2.369  25.131   6.840 -0.0264 -0.1543 -0.1110
48578W        W49442   4.978  26.962   1.762 -0.2072  0.0652  0.2265
48579W        W49443   2.037  28.492   2.207 -0.0405  0.1340  0.1560
48580W        W49444   2.020   0.933   0.229  0.0553 -0.0975 -0.0714
48581W        W49445   7.185   1.628  29.088 -0.0551 -0.0052  0.2733
48582W        W49446   5.213  28.714   7.047 -0.2127 -0.1496 -0.1326
48583W        W49447   3.899  28.934   4.452  0.2819  0.1596 -0.1917
48584W        W49448   5.523  27.428   5.705 -0.2221  0.3207 -0.4312
48585W        W49449   7.488  25.866   6.813  0.0457  0.4164 -0.2746
48586W        W49450   3.419  27.528   3.102 -0.0577 -0.5205  0.0269
48587W        W49451   6.402  25.025   5.206 -0.3280 -0.3016  0.3546
48588W        W49452   5.203  27.189   4.576  0.7421 -0.2426  0.2804
48589W        W49453   3.517  27.084   3.678 -0.3191  0.1645 -0.0594
48590W        W49454   5.345   0.362   7.679 -0.2074 -0.4277 -0.0063
48591W        W49455   3.392  27.534   7.786  0.1002 -0.0458 -0.0324
48592W        W49456   4.978  25.951   6.471 -0.2231  0.2231  0.1274
48593W        W49457   6.784  26.513   6.511 -0.0078  0.2089  0.0214
48594W        W49458   5.252  23.767   3.515  0.0125 -0.1197  0.0967
48595W        W49459   8.035  26.530   7.900 -0.3672  0.5334 -0.3624
48596W        W49460   4.799  23.700   7.109 -0.1409 -0.0261  0.1277
48597W        W49461   5.858  27.708   7.619  0.1467  0.0233  0.1017
48598W        W49462   4.613  27.631   2.736 -0.1412  0.0824  0.0969
48599W        W49463   2.615  25.180   5.426 -0.1241 -0.0782 -0.0911
48600W        W49464   3.678  28.368   8.623 -0.2125  0.0218  0.1253
48601W        W49465   7.087  26.755   6.147  0.2018  0.0557  0.0704
48602W        W49466   6.264  25.251   4.174 -0.1497  0.1601  0.0130
48603W        W49467   4.812  25.283   4.646  0.0395 -0.0137  0.0467
48604W        W49468   5.535  25.807   6.284 -0.1913  0.1407 -0.2977
48605W        W49469   4.696  27.385   8.676  0.0501  0.1901  0.1264
48606W        W49470   4.518  23.511   6.152 -0.0654 -0.3633  0.1077
48607W        W49471   5.322  27.198   8.025  0.0800 -0.1029  0.0918
48608W        W49472   4.893  26.311   8.403  0.5225 -0.1888 -0.0732
48609W        W49473   4.634  26.377   6.044  0.3233 -0.0284  0.4896
48610W        W49474   4.521  28.140   7.467 -0.0718  0.4055 -0.3089
48611W        W49475   3.759  26.338   4.937 -0.1064  0.1315  0.1036
48612W        W49476   3.623  25.479   6.735 -0.0025  0.0667  0.0008
48613W        W49477   3.803  28.334   8.117  0.0366 -0.1376 -0.0566
48614W        W49478   8.454  26.186   7.140 -0.0405 -0.0155  0.3519
48615W        W49479   9.104  27.860   6.651 -0.2566  0.2391 -0.0037
48616W        W49480   4.554  24.440   6.124  0.2429  0.0315  0.1246
48617W        W49481   7.507  26.912   5.235 -0.1125 -0.2060  0.1376
48618W        W49482   2.842  23.647   6.513  0.0063 -0.1217  0.1284
48619W        W49483   6.421  26.834   6.906 -0.1800  0.3525  0.1428
48620W        W49484   4.113  25.363   3.508  0.1724  0.0766  0.1691
48621W        W49485   7.141  25.568   6.718  0.1933  0.0549  0.1418
48622W        W49486   6.189  26.394   4.137  0.2525 -0.1049 -0.0917
48623W        W49487   7.220  26.214   4.696  0.0521 -0.1461 -0.0238
48624W        W49488   2.114  27.522   7.017 -0.0477 -0.2567  0.0265
48625W        W49489   4.123  26.378   4.570  0.0418 -0.0055  0.1007
48626W        W49490   3.871  27.813   5.079 -0.0857 -0.0900  0.5378
48627W        W49491   4.342  28.080   6.713 -0.0641 -0.3775 -0.0251
48628W        W49492   5.369  26.703   8.684  0.2326  0.2142 -0.0911
48629W        W49493   7.488  26.764   7.138 -0.1785  0.0455  0.0888
48630W        W49494   5.303  26.094   3.597  0.0199  0.1077  0.0652
48631W        W49495   5.096  27.847   2.835 -0.2381  0.3962  0.1298
48632W        W49496   6.254  28.889   3.904  0.1717 -0.0513 -0.0828
48633W        W49497   6.017  24.224   4.427 -0.1345  0.1685 -0.1611
48634W        W49498   4.695  27.814   7.110 -0.1877  0.0743  0.0027
48635W        W49499   7.278  24.573   5.074  0.1014 -0.0723 -0.1914
48636W        W49500   6.120  24.038   4.873 -0.3954  0.1944  0.2044
48637W        W49501   3.038  28.126   5.362 -0.3891  0.0562 -0.1330
48638W        W49502   2.077  25.253   4.383  0.1743 -0.0311  0.0856
48639W        W49503   4.334  24.827   6.314  0.2845  0.0967  0.0548
48640W        W49504   0.470  27.112   4.904  0.0291  0.2799  0.1952
48641W        W49505   6.656  27.228   2.440 -0.0227  0.0173 -0.2549
48642W        W49506   5.219  27.567   3.812  0.0748 -0.0386  0.0141
48643W        W49507   3.215  28.038   6.952 -0.1876  0.2109 -0.0399
48644W        W49508   5.930  28.124   6.409  0.1470 -0.1693  0.0785
48645W        W49509   9.180  28.595   3.392 -0.3026 -0.3252 -0.0851
48646W        W49510   6.762  24.787   7.013  0.0361  0.1037 -0.1702
48647W        W49511   4.368  24.368   6.612  0.0519 -0.1182 -0.0147
48648W        W49512   3.946  28.262   1.536  0.0733  0.4229  0.3155
48649W        W49513   4.262  25.613   5.823 -0.5567  0.3585  0.2241
48650W        W49514   5.070  28.272   3.432  0.2991 -0.0690  0.0262
48651W        W49515   4.520  28.359   5.159 -0.3427  0.2127  0.1645
48652W        W49516   6.363  28.899   5.663 -0.2599  0.3051 -0.2607
48653W        W49517   4.988  24.424   5.863 -0.1004 -0.1421 -0.0816
48654W        W49518   4.483  26.922   5.866 -0.0890 -0.6009  0.1659
48655W        W49519   9.056  23.439   7.731  0.4037 -0.1831  0.2651
48656W        W49520   7.392  26.850   6.669 -0.1623 -0.1629  0.2887
48657W        W49521   6.810  25.682   7.114  0.3430  0.2998 -0.2201
48658W        W49522   4.347  26.302   7.455  0.0933 -0.1162 -0.1119
48659W        W49523   3.696  28.355   6.016  0.1625  0.3352  0.2227
48660W        W49524   4.141  25.877   6.243  0.2060 -0.0862 -0.3665
48661W        W49525   4.136  26.884   6.275 -0.3112  0.3180  0.0759
48662W        W49526   1.066   1.794   6.930  0.0849 -0.3378  0.1719
48663W        W49527   6.604  25.517   8.854  0.1941 -0.1340  0.2303
48664W        W49528   3.974  26.282   9.829 -0.0127 -0.0846 -0.0435
48665W        W49529   5.469  26.046   2.643  0.3336 -0.1780  0.2095
48666W        W49530   4.702  24.593   8.582  0.0438  0.2025 -0.0267
48667W        W49531   3.047  28.204   2.625  0.0072 -0.1502  0.1439
48668W        W49532  10.692   1.005   8.813  0.0938  0.2615 -0.1084
48669W        W49533   6.390  25.242   6.379  0.0570 -0.0161  0.0836
48670W        W49534   7.161  25.161   6.307  0.2215 -0.0144  0.1546
48671W        W49535   8.284  28.679   8.233  0.1715 -0.1221  0.0693
48672W        W49536   8.762  25.558   4.972 -0.0332  0.2747 -0.0165
48673W        W49537   8.724  27.807   7.415 -0.3031  0.0223  0.1459
48674W        W49538   5.741  24.818   7.571  0.0776  0.2035 -0.2270
48675W        W49539   4.109  26.528   6.732  0.1078 -0.2672 -0.0197
48676W        W49540   5.917  25.695   6.681  0.2083  0.0990 -0.0232
48677W        W49541   4.811  26.015   3.414  0.1204 -0.0073 -0.0302
48678W        W49542   7.785  28.603   6.707 -0.1279 -0.1092 -0.1089
48679W        W49543   1.785   0.334   7.702 -0.0632  0.0661 -0.0373
48680W        W49544   4.895  23.825   5.023 -0.1818  0.1414 -0.5028
48681W        W49545   6.851  27.579   4.657  0.1635 -0.0576  0.2993
48682W        W49546   7.196  26.568   2.992  0.3646  0.0667 -0.2032
48683W        W49547   3.127  26.170   6.647  0.1243  0.1167  0.0119
48684W        W49548   6.369  26.032   1.231 -0.1552 -0.0651  0.3642
48685W        W49549   5.313  26.587   7.190  0.0003  0.3438 -0.0002
48686W        W49550   8.372  25.536   6.042  0.3197  0.1422  0.0829
48687W        W49551   5.231  24.818  10.412  0.0580  0.2729 -0.0964
48688W        W49552   4.868  29.141   5.434 -0.2062 -0.0170 -0.1134
48689W        W49553   5.330  28.824   5.530  0.0008  0.0433 -0.0952
48690W        W49554   8.124  25.505   6.567  0.0048 -0.1449  0.0548
48691W        W49555   6.732  24.876   6.309 -0.0139 -0.0060 -0.2782
48692W        W49556   6.193  28.248   6.985 -0.3786 -0.2474  0.2437
48693W        W49557   5.508  27.940   6.631  0.1973 -0.2634  0.2267
48694W        W49558   3.991  26.728   5.783 -0.1467  0.0732  0.0749
48695W        W49559   5.367   0.488   6.170 -0.1091  0.1823  0.1160
48696W        W49560   6.903  26.167   5.531  0.1549 -0.0855  0.2761
48697W        W49561   5.065  27.025   6.541  0.0173  0.3143  0.1440
48698W        W49562   7.965  25.213   8.428 -0.1092 -0.0186 -0.1869
48699W        W49563   6.043  25.845   7.279 -0.0884 -0.0828  0.0105
48700W        W49564   6.538  24.440   6.416 -0.0020  0.0157  0.2016
48701W        W49565   6.337  25.344   6.860  0.2406 -0.1078 -0.1105
48702W        W49566   5.006  27.681   2.153  0.2077  0.0615 -0.1923
48703W        W49567   4.788   1.841   2.741 -0.3582 -0.1111  0.2449
48704W        W49568   8.005  27.189   8.563 -0.4488  0.0907 -0.0713
48705W        W49569   2.863  26.355   6.285 -0.1109 -0.1774  0.4309
48706W        W49570   4.168  25.546   8.579 -0.2898 -0.2871 -0.2578
48707W        W49571   6.089  28.701   6.672 -0.3618 -0.1925 -0.0785
48708W        W49572   4.181  24.960   7.459 -0.1784 -0.1093  0.0162
48709W        W49573   7.819  27.092   6.972  0.1464 -0.2588  0.1388
48710W        W49574   4.846  28.487   6.171 -0.0543 -0.0278 -0.1956
48711W        W49575   4.325  27.694   3.892 -0.0636 -0.0412 -0.1254
48712W        W49576   6.157  27.129   5.392  0.0322  0.1202  0.1580
48713W        W49577   4.748  28.377   8.270 -0.1575  0.1427 -0.0330
48714W        W49578   7.963   1.907   9.227 -0.1235  0.0056 -0.0810
48715W        W49579   7.102  24.980   4.269  0.1223 -0.3082  0.2422
48716W        W49580   4.817  25.716   5.147 -0.0185 -0.0006  0.2032
48717W        W49581   4.437  26.158   5.180 -0.3318 -0.0353  0.1564
48718W        W49582   4.979  26.274   6.833 -0.2852  0.1308 -0.0105
48719W        W49583   9.137  25.428   6.816 -0.1047 -0.2136  0.1327
48720W        W49584   4.348  26.957   6.843 -0.2849 -0.1512 -0.0027
48721W        W49585   5.469   0.232   3.705 -0.3701  0.1857 -0.1558
48722W        W49586   1.530  23.823   3.095  0.0595 -0.1292  0.3921
48723W        W49587   3.500  23.888   5.915  0.0644 -0.0091  0.1408
48724W        W49588   5.000  27.661   5.736  0.1000 -0.1040 -0.2314
48725W        W49589   3.918  25.708   3.139  0.2315  0.1716  0.2620
48726W        W49590   5.150  26.612   3.547 -0.3054 -0.4624 -0.1416
48727W        W49591   5.230  24.877   7.456 -0.0745  0.0738  0.0976
48728W        W49592   6.462  23.938   3.856  0.0711 -0.2140  0.0685
48729W        W49593   4.923  28.584   5.360 -0.2627 -0.1286 -0.1907
48730W        W49594   7.008  29.064   6.366 -0.1750 -0.1744  0.4256
48731W        W49595   5.266  24.844   6.031  0.0651 -0.6243 -0.1821
48732W        W49596   4.638  27.372   5.752  0.0995 -0.0668  0.0511
48733W        W49597   7.483  24.436   6.381 -0.1507  0.2315  0.2003
48734W        W49598   5.342  26.174   5.480  0.1572  0.2855  0.2577
48735W        W49599   5.331  24.152   3.232  0.2778  0.3044  0.1260
48736W        W49600   5.726  26.478   8.911 -0.0571 -0.1788 -0.1247
48737W        W49601   8.003  24.253   6.950 -0.0390  0.1621 -0.1033
48738W        W49602   4.412  27.075   3.172  0.1343 -0.0104 -0.0291
48739W        W49603   3.628  26.529   1.999  0.4222 -0.2224 -0.2155
48740W        W49604   6.116  27.691   4.151  0.1021 -0.0780  0.0672
48741W        W49605   5.501  26.967   3.721 -0.0453  0.1229  0.1496
48742W        W49606   5.801  27.520   6.589  0.1107 -0.1136 -0.1114
48743W        W49607   5.637  25.817   8.094 -0.0969 -0.0402 -0.1361
48744W        W49608   5.355  28.011   5.633  0.0070 -0.3522 -0.3460
48745W        W49609   6.645  27.111   7.816 -0.0290  0.0926 -0.2751
48746W        W49610   6.794  25.233   6.716 -0.1513  0.1381 -0.3469
48747W        W49611   7.995  26.381   6.277 -0.1973  0.0567  0.2109
48748W        W49612   3.643  26.362   7.548 -0.1458 -0.5436  0.0190
48749W        W49613   3.960  26.985   3.987  0.1316 -0.1588 -0.2467
48750W        W49614   7.130  27.737   7.652  0.2671  0.0087  0.3999
48751W        W49615   2.261  27.297   3.106 -0.0108 -0.3022 -0.0030
48752W        W49616   6.991  27.502   6.090 -0.0786 -0.0807  0.3282
48753W        W49617  10.205  26.348   5.934 -0.1210  0.0301 -0.1116
48754W        W49618   6.085  27.654   6.203  0.1019 -0.1417 -0.1201
48755W        W49619   4.360  26.651   4.996 -0.2316  0.0894 -0.0702
48756W        W49620   8.143  20.963   5.443 -0.1422 -0.2925  0.1228
48757W        W49621   5.639  27.091   6.725 -0.0935  0.1109  0.1462
48758W        W49622   3.793  28.819   6.834 -0.1930  0.1083 -0.0548
48759W        W49623   4.594   1.110   8.076 -0.2644 -0.0279 -0.0311
48760W        W49624   5.937  28.596   3.327  0.3107 -0.1200 -0.2757
48761W        W49625   4.696  24.088   6.760 -0.0874  0.1042 -0.0015
48762W        W49626   3.556  27.516   5.683  0.0415  0.3224 -0.0423
48763W        W49627   5.888  29.063   3.567  0.0324  0.1113 -0.0069
48764W        W49628   4.841  24.277   3.966 -0.0683  0.0317 -0.0351
48765W        W49629   3.921  24.821   4.686 -0.1653 -0.0127  0.0790
48766W        W49630   5.833  26.206   6.864 -0.0266 -0.0246  0.2479
48767W        W49631   6.577  26.807   8.269  0.0232  0.3748 -0.2956
48768W        W49632   5.770  27.576   0.464 -0.1095 -0.2788  0.1119
48769W        W49633   4.252  24.684   4.969  0.3342  0.0907 -0.2968
48770W        W49634   5.645  25.646   4.717 -0.0939 -0.0039 -0.2238
48771W        W49635   4.796  25.760   4.241 -0.2531 -0.0436 -0.0654
48772W        W49636   5.394  27.450   2.946  0.2510 -0.0753 -0.0282
48773W        W49637   1.639  26.585   4.856  0.0614 -0.0158  0.2570
48774W        W49638   5.293  26.186   8.223  0.3905  0.4337  0.1544
48775W        W49639   5.592  24.452   7.249  0.1380 -0.2114 -0.0697
48776W        W49640   6.874  24.774   5.834  0.0724  0.2466  0.0865
48777W        W49641   7.158  22.511   4.307 -0.1595 -0.0751  0.0409
48778W        W49642   4.894  24.519   7.602 -0.5316  0.1174  0.1369
48779W        W49643   3.976  26.050   6.729 -0.2440  0.1333  0.1137
48780W        W49644   3.393  26.964   9.369  0.1722  0.1589 -0.2246
48781W        W49645   7.517  27.281   7.345 -0.2228 -0.0356 -0.3513
48782W        W49646   3.809  24.693   8.238  0.1954  0.1438  0.0826
48783W        W49647   8.496  24.204   5.714 -0.2624  0.4406 -0.4051
48784W        W49648   5.002  25.015   5.651  0.1975  0.0123  0.0421
48785W        W49649   5.909  24.336   7.579 -0.0466 -0.1981 -0.0928
48786W        W49650   5.234  28.140   7.028  0.2062 -0.0863  0.1529
48787W        W49651   4.518  26.684   4.048 -0.0979  0.0319  0.1991
48788W        W49652   5.673   0.224   5.836  0.0001  0.2668 -0.1734
48789W        W49653   8.057  25.904   4.757  0.0938  0.0595  0.0819
48790W        W49654   4.587  28.186   3.099 -0.2528  0.0607  0.0058
48791W        W49655   1.611  26.732   3.068  0.3178 -0.3273 -0.0277
48792W        W49656   6.497  27.445   6.410 -0.1847  0.0201  0.1150
48793W        W49657   4.987  26.494   5.621  0.1713 -0.1403 -0.0697
48794W        W49658   5.045  26.907   2.995 -0.1696 -0.0528  0.0570
48795W        W49659  10.149  28.033   6.442 -0.0404 -0.0807  0.1737
48796W        W49660   7.060  26.037   7.339  0.1164 -0.0096  0.0111
48797W        W49661   3.664  26.125   3.940 -0.1106  0.1656 -0.0719
48798W        W49662   3.904   0.003   5.468  0.0617  0.1319 -0.0016
48799W        W49663   5.693   0.375   3.186 -0.0944  0.0669 -0.0399
48800W        W49664   5.447  27.392   7.559  0.1888 -0.3580 -0.3249
48801W        W49665   0.718  27.897   9.031  0.0026 -0.0254  0.0876
48802W        W49666   8.870  27.059   6.750  0.3518  0.0506 -0.2890
48803W        W49667   8.956  25.619   7.237  0.2513  0.1468  0.0951
48804W        W49668   6.029   0.071   8.581 -0.2752 -0.0354  0.6507
48805W        W49669   3.048  25.810   3.798 -0.2093  0.0121 -0.1304
48806W        W49670   3.590  25.559   3.442  0.3656 -0.2520  0.0263
48807W        W49671   2.801  27.776   8.277  0.3585  0.0079 -0.1557
48808W        W49672   5.835   1.319   5.922 -0.0483  0.1369  0.1544
48809W        W49673   9.283  26.503   6.825 -0.1431  0.3657 -0.0985
48810W        W49674   6.933   1.107   3.092 -0.0774  0.0177 -0.2470
48811W        W49675   3.921  27.372   4.738  0.0143  0.2390  0.2314
48812W        W49676   5.012  26.484   6.376  0.1570 -0.2646  0.1295
48813W        W49677   6.053  27.544   5.699 -0.4219 -0.4159 -0.1744
48814W        W49678   2.419  24.940   3.444  0.0239  0.0605  0.2559
48815W        W49679   4.641  28.075   4.736  0.2611 -0.0449 -0.0465
48816W        W49680   3.309  27.053   7.843 -0.0012 -0.2934 -0.0911
48817W        W49681   5.124   0.247   5.832 -0.0115  0.3873 -0.0355
48818W        W49682   5.621  28.026   2.089  0.1747  0.0064 -0.1247
48819W        W49683   5.691  24.076   6.435  0.1935  0.0261 -0.1039
48820W        W49684   8.038  28.238   7.506 -0.1424 -0.0730 -0.1431
48821W        W49685   6.434  28.110   6.471  0.3583  0.1560  0.2402
48822W        W49686   3.617  26.238   4.447 -0.0509  0.0576 -0.0198
48823W        W49687   3.749   0.996   7.145 -0.2358  0.1774  0.1679
48824W        W49688   6.890  24.639   7.675 -0.2657 -0.1046  0.0761
48825W        W49689   2.918  25.283   7.317  0.0193  0.0477  0.1609
48826W        W49690   7.202  27.536   8.098  0.2641  0.3245 -0.0744
48827W        W49691   7.815  27.949   6.072  0.2673 -0.1084  0.2344
48828W        W49692   5.609  27.405   4.077  0.1049  0.0920 -0.0450
48829W        W49693   5.962  26.725   8.506  0.5180  0.0400  0.0794
48830W        W49694   4.287   0.098   4.222 -0.1446 -0.1604  0.0608
48831W        W49695   6.596  23.611   6.339  0.1469  0.0884  0.0134
48832W        W49696   4.462  26.751   7.264 -0.3242 -0.0204  0.1861
48833W        W49697   5.615  28.392   5.268 -0.0210  0.1325 -0.1239
48834W        W49698   8.190   0.871   9.913 -0.0160  0.1335  0.2007
48835W        W49699   5.544  25.679   5.587  0.2414 -0.3330 -0.1202
48836W        W49700   3.131  26.073   4.178  0.0467  0.2073 -0.0614
48837W        W49701   6.424  27.056   3.543  0.1466 -0.0256 -0.0752
48838W        W49702   4.079  26.382   6.163  0.1549 -0.2004  0.1639
48839W        W49703   5.293  24.253   5.055 -0.0996  0.1460  0.2464
48840W        W49704   5.596  25.839   4.239 -0.2283  0.2335  0.2929
48841W        W49705   6.240  27.018   4.830  0.1428  0.0572 -0.0524
48842W        W49706   3.413  26.695   3.411  0.0364  0.2102  0.1674
48843W        W49707   4.827  25.277   6.879 -0.0480 -0.7207  0.5033
48844W        W49708   4.483   1.697   8.226 -0.2361  0.0939  0.1764
48845W        W49709   6.866  26.030   6.757  0.2496  0.0509 -0.0414
48846W        W49710   3.689  26.014   5.395 -0.1226  0.1143  0.0466
48847W        W49711   2.924   1.926   7.053  0.3628  0.0558 -0.2613
48848W        W49712   1.832  28.242   3.395 -0.1159 -0.2147  0.0806
48849W        W49713   3.241  28.069   5.984 -0.1591 -0.2014  0.1098
48850W        W49714   5.168  27.732   7.383  0.1002 -0.1135  0.0606
48851W        W49715   6.141  24.291   6.188 -0.1058 -0.0301 -0.0955
48852W        W49716   3.094  27.202   2.798  0.0398  0.1096 -0.0674
48853W        W49717   4.323  28.506   8.099 -0.1737  0.0590 -0.0054
48854W        W49718   4.683  25.645   7.280 -0.2653 -0.2386 -0.1617
48855W        W49719   5.765  24.676   6.232  0.2436 -0.1282  0.0289
48856W        W49720   5.840   0.877   7.249  0.0557  0.0315 -0.1098
48857W        W49721   7.559  25.501   5.573  0.2554  0.0529  0.0866
48858W        W49722   4.907  23.909   8.257 -0.0548 -0.0724  0.2803
48859W        W49723   6.954  22.141   4.010 -0.0468  0.2941 -0.2569
48860W        W49724   1.054  25.266   5.693  0.0365  0.1554 -0.1073
48861W        W49725   3.884   0.225   6.634  0.2356 -0.0161  0.0440
48862W        W49726   4.747  26.151   7.311 -0.2139 -0.0392  0.1184
48863W        W49727   3.924  26.198   3.290  0.4092  0.0262  0.1516
48864W        W49728   2.851  25.617   5.606  0.1396 -0.2312  0.0302
48865W        W49729   4.528   1.161   3.439 -0.1787  0.2159  0.1339
48866W        W49730   4.443  26.535   5.592 -0.0619  0.1641  0.1880
48867W        W49731   6.850  28.314   7.977  0.1040  0.2279 -0.0665
48868W        W49732   4.729  28.957   4.070  0.0588  0.1130 -0.1192
48869W        W49733   4.113  28.192   6.241  0.0030 -0.0231  0.2658
48870W        W49734   7.640  26.922   4.256  0.0222 -0.1901  0.1206
48871W        W49735   5.299   0.950   1.099 -0.0248 -0.0637  0.3222
48872W        W49736   3.253  24.777   4.056  0.3347 -0.1202 -0.0273
48873W        W49737   6.497  25.901   4.706  0.3661  0.1979 -0.0417
48874W        W49738   6.924  25.614   7.609 -0.0592 -0.2410 -0.0073
48875W        W49739   3.971  26.708   7.659  0.0561  0.2904 -0.1156
48876W        W49740   4.605  28.948   5.045  0.0902 -0.1016  0.4084
48877W        W49741   7.329  27.146   6.301  0.1912  0.1883  0.0466
48878W        W49742   4.971  28.800   6.588 -0.0817 -0.1550 -0.1180
48879W        W49743   6.179  27.193   6.688  0.2889  0.0201  0.1560
48880W        W49744   5.491  25.799   3.079 -0.0931  0.1236 -0.1225
48881W        W49745   4.618  28.465   4.331  0.0750  0.1392 -0.0140
48882W        W49746   3.087  26.721   5.514 -0.0826 -0.1039 -0.0318
48883W        W49747   6.190  25.181   7.949  0.4363  0.0625 -0.0768
48884W        W49748   4.857   1.625   7.306  0.0668  0.3005  0.0728
48885W        W49749   4.824  26.396   5.096 -0.4224 -0.2296 -0.0809
48886W        W49750   3.979  25.403   6.179 -0.1597 -0.3773  0.1021
48887W        W49751   3.717  28.513   4.285  0.0205 -0.0056  0.1645
48888W        W49752   8.036  28.759   7.142  0.1104 -0.0162  0.1365
48889W        W49753   6.316  25.055   5.759  0.0474 -0.1084  0.1563
48890W        W49754   6.533  27.642   5.946 -0.0010 -0.2699  0.1173
48891W        W49755   3.212  26.091   5.644 -0.1789  0.1442 -0.1191
48892W        W49756   9.180  25.334   4.888 -0.1346 -0.2920 -0.0645
48893W        W49757   4.768  24.830   6.706  0.2641 -0.1406  0.0693
48894W        W49758   5.021  24.589   5.365  0.1499  0.0888  0.0655
48895W        W49759   4.185  25.778   8.059  0.1689  0.1867  0.0101
48896W        W49760   4.571  28.566   7.687  0.1997 -0.0425 -0.1808
48897W        W49761   5.871  29.119   5.435  0.1042 -0.4097 -0.0274
48898W        W49762   2.931  24.921   6.418 -0.2951 -0.1088  0.1856
48899W        W49763   6.974  26.852   6.952 -0.0176 -0.2011  0.1932
48900W        W49764   6.346  28.093   7.860  0.0559 -0.2012  0.5809
48901W        W49765   5.092  25.249   3.860 -0.2096  0.2353 -0.1931
48902W        W49766   3.774  26.540   2.939 -0.0028  0.1170 -0.1680
48903W        W49767   6.569  27.491   4.199 -0.1279 -0.1456  0.0668
48904W        W49768   3.033  27.310   8.707 -0.0970  0.0606  0.0238
48905W        W49769   5.630  25.820   7.590  0.0078  0.0272  0.0215
48906W        W49770   3.944  25.823   3.659  0.1116  0.2456 -0.1354
48907W        W49771   3.235  28.281   4.520  0.0853  0.1319 -0.1538
48908W        W49772   4.564  24.945   3.669  0.2045  0.0979  0.0259
48909W        W49773   3.056   0.543   2.629  0.2316  0.3086 -0.1910
48910W        W49774   5.574   0.268   2.174  0.0648  0.0942 -0.0321
48911W        W49775   7.201  25.913   6.353  0.0397 -0.1066 -0.0460
48912W        W49776   4.446  22.076   8.040 -0.0469  0.2395 -0.0723
48913W        W49777   5.504  28.537   2.258  0.1599 -0.0042  0.4230
48914W        W49778   7.669  27.450   7.799  0.1237 -0.1590  0.0219
48915W        W49779   6.931  29.018   7.705 -0.2293  0.0185  0.1420
48916W        W49780   4.900  26.773   6.966  0.0790 -0.1370  0.2403
48917W        W49781  10.503  27.467   7.241  0.1329  0.3534 -0.1423
48918W        W49782   3.629  29.050   6.072 -0.0779 -0.0823 -0.1534
48919W        W49783   5.414  25.502   8.924 -0.1899  0.2194 -0.0960
48920W        W49784   2.876  26.570   5.091  0.0124  0.2669  0.0182
48921W        W49785   5.207  23.044   4.557 -0.1692  0.2188 -0.0899
48922W        W49786   4.696   0.638   4.583  0.2391 -0.0450  0.2886
48923W        W49787   5.658  26.994   7.281 -0.2283  0.1859  0.2759
48924W        W49788   8.284  24.486   8.124  0.0456 -0.0559  0.1561
48925W        W49789   0.799  29.129   4.117 -0.2086 -0.0221 -0.1784
48926W        W49790   7.210  27.112   5.775  0.3972 -0.0179  0.0019
48927W        W49791   1.932   2.219   7.017  0.2020  0.3847 -0.0720
48928W        W49792   2.699  25.887   6.524  0.0627  0.1184 -0.4773
48929W        W49793   3.230  27.440   8.272 -0.3868 -0.1977 -0.2470
48930W        W49794   4.916  26.810   6.034  0.3053 -0.3014 -0.0290
48931W        W49795   2.335  26.223   6.404 -0.3640 -0.2147 -0.1818
48932W        W49796   6.827   1.285   7.094 -0.0977 -0.0820 -0.2136
48933W        W49797   4.305  26.233   3.654  0.0278 -0.1444 -0.0277
48934W        W49798   5.579  26.359   6.260 -0.1812  0.0287 -0.2649
48935W        W49799   5.256   0.084   6.758 -0.4139  0.0705  0.0026
48936W        W49800   5.970  28.280   2.317  0.3241  0.0528 -0.0860
48937W        W49801   4.396  27.138   1.384  0.1148  0.0197 -0.2803
48938W        W49802   5.412  28.624   4.711 -0.4072 -0.2147  0.0747
48939W        W49803   4.057  26.835   9.639 -0.0867 -0.1420 -0.0402
48940W        W49804   4.444  26.726   7.823  0.0057  0.3319 -0.0580
48941W        W49805   3.412  28.922   3.102  0.1517 -0.2495 -0.4220
48942W        W49806   5.816  26.938   5.839 -0.0675 -0.1650 -0.1137
48943W        W49807   5.104  25.452   8.013  0.0945 -0.3265  0.0558
48944W        W49808   2.883  28.833   7.375  0.0458 -0.0268 -0.0219
48945W        W49809   5.120  22.261   5.961  0.1302  0.2062 -0.0045
48946W        W49810   4.775  27.448   6.774  0.0201  0.0739  0.2244
48947W        W49811   6.847  28.455   3.302  0.2626 -0.1319  0.1797
48948W        W49812   7.699   0.639   7.203 -0.1128 -0.0972 -0.1642
48949W        W49813   5.518  28.072   7.544  0.2011  0.1900  0.1711
48950W        W49814   5.714  25.025   5.819 -0.3207  0.1554 -0.2435
48951W        W49815   8.999  24.749   6.222 -0.0262  0.0787  0.1888
48952W        W49816   3.100  27.604   5.532 -0.2108 -0.2253  0.2139
48953W        W49817   6.411  26.893   4.075  0.0431 -0.1769 -0.2872
48954W        W49818   3.154  28.317   3.459  0.2180  0.1745 -0.1727
48955W        W49819   9.437  25.733   7.276  0.2475  0.1486 -0.3622
48956W        W49820   6.583  28.554   3.713  0.0222  0.2228 -0.0614
48957W        W49821   6.296  28.597   6.067  0.0737  0.0029  0.1207
48958W        W49822   5.910  25.398   9.875  0.0213 -0.0013  0.1541
48959W        W49823   6.753  26.371   8.437 -0.0002  0.2811 -0.1260
48960W        W49824   7.650  27.990   6.609 -0.0509  0.2103  0.1014
48961W        W49825   4.846  28.203   5.645 -0.1052  0.1034  0.3099
48962W        W49826   6.105  25.445   8.960  0.0986 -0.1514 -0.1738
48963W        W49827   1.223  24.364   6.955 -0.0764  0.2240 -0.0686
48964W        W49828   3.477  28.769   7.335 -0.0715 -0.1787 -0.4693
48965W        W49829   5.695  28.404   6.937  0.3223  0.0843 -0.0559
48966W        W49830   5.001   0.059   6.330 -0.1616  0.2264 -0.1952
48967W        W49831   6.731  26.133   8.843 -0.0096  0.0030 -0.1246
48968W        W49832   5.212  27.483   6.478 -0.0912 -0.1397 -0.0986
48969W        W49833   7.099  26.709   8.355 -0.2214 -0.0496  0.2218
48970W        W49834   3.413  26.817   4.900 -0.3289  0.1279 -0.0492
48971W        W49835   3.434  26.027   3.466 -0.2048  0.0203 -0.1540
48972W        W49836   5.670   0.632   7.985  0.0889  0.1629 -0.0063
48973W        W49837   6.538  28.630   6.847 -0.1258 -0.2551  0.0942
48974W        W49838   6.859  28.339   2.815 -0.0819  0.1092 -0.2613
48975W        W49839   3.491  29.039   6.546  0.1754 -0.0130 -0.1542
48976W        W49840   2.678   0.016   5.835 -0.2893  0.1856 -0.0820
48977W        W49841   4.441  25.724   8.973 -0.1306 -0.1682 -0.0142
48978W        W49842   4.027  25.352   4.672  0.2859 -0.2144  0.0016
48979W        W49843   5.255  26.077   7.308  0.0343 -0.2360  0.0429
48980W        W49844   3.425  25.941   4.929  0.0289 -0.0265  0.0732
48981W        W49845   4.440   0.813   2.631  0.1933 -0.0192  0.1738
48982W        W49846   4.510  26.657  11.828 -0.1886 -0.1590  0.3413
48983W        W49847   4.603   0.546  10.308 -0.1263  0.1401  0.0725
48984W        W49848   6.412  27.297   8.353 -0.1227  0.0515  0.2337
48985W        W49849   5.559  27.681  11.082  0.3384 -0.1574 -0.0631
48986W        W49850   5.411   1.222   8.029  0.0527 -0.0037 -0.0555
48987W        W49851   5.594  24.155  10.337  0.4755  0.1973 -0.0458
48988W        W49852   5.734  26.122   8.504 -0.2198 -0.0001 -0.0446
48989W        W49853   6.064  25.167  10.732 -0.3115  0.0861 -0.2628
48990W        W49854   4.630  27.701  11.430  0.3747  0.0294 -0.2898
48991W        W49855   4.244  26.805  10.718  0.0837 -0.0521 -0.1829
48992W        W49856   4.170  23.499  10.048  0.0087  0.1704  0.0223
48993W        W49857   9.478  26.354  11.739 -0.1104 -0.1763 -0.1624
48994W        W49858   7.147  25.388   8.267 -0.0970  0.1578  0.2270
48995W        W49859   7.941   1.986  11.237 -0.0358  0.0767 -0.0927
48996W        W49860   4.248  24.380   9.542  0.2441  0.2673 -0.1896
48997W        W49861   3.683   0.781  10.783  0.3655 -0.0032 -0.2144
48998W        W49862   5.403  26.970   9.936 -0.1022 -0.0617 -0.1485
48999W        W49863   3.872  27.618   7.715 -0.0124 -0.0206  0.0938
49000W        W49864   3.616  27.263  11.314  0.0510  0.0307 -0.1448
49001W        W49865   7.157  26.931   8.827 -0.0792 -0.2421  0.2147
49002W        W49866   5.802  27.895   9.792 -0.0020 -0.2803 -0.2536
49003W        W49867   4.662  25.024  11.755  0.1039  0.2037 -0.2452
49004W        W49868   5.772  29.037   8.955  0.1692 -0.1081  0.0674
49005W        W49869   2.681  26.108  10.151 -0.0486 -0.1611 -0.0318
49006W        W49870   2.839  27.876  11.181 -0.1303  0.0535 -0.1671
49007W        W49871   4.823  24.514  10.371  0.0194 -0.2385 -0.0984
49008W        W49872   8.394  27.930  11.442  0.0215  0.0508  0.2481
49009W        W49873   2.247  26.958   9.885  0.0404 -0.0386 -0.1031
49010W        W49874   3.682  28.085  10.760 -0.0479  0.0274 -0.0926
49011W        W49875   5.728  25.440   9.364  0.0417 -0.4003 -0.0093
49012W        W49876   5.534  25.041   7.042  0.3215  0.0825 -0.2498
49013W        W49877   6.520  27.335  11.092  0.2354  0.1524  0.0452
49014W        W49878   7.233  26.533  10.651 -0.0316 -0.0914  0.4569
49015W        W49879   8.008  25.882   9.956 -0.1247 -0.0275 -0.0546
49016W        W49880   4.572  27.938  10.148  0.0255 -0.2158  0.0362
49017W        W49881   7.364  27.742   9.177  0.2195  0.2533 -0.1124
49018W        W49882   6.285  26.450   8.925  0.0737 -0.0051  0.1250
49019W        W49883   5.991  27.557  10.882  0.1499 -0.0140 -0.0034
49020W        W49884   6.834  26.541   9.341  0.2686 -0.2727  0.1029
49021W        W49885   5.277   0.386   8.207 -0.1126 -0.0439  0.0631
49022W        W49886   8.137  26.701   8.866 -0.0189  0.2013 -0.0122
49023W        W49887   6.185  26.923   7.983  0.0199  0.0351  0.2915
49024W        W49888   6.507  26.146   9.302  0.1127 -0.0994  0.0114
49025W        W49889   4.784   0.493   8.296 -0.0112  0.1744  0.0363
49026W        W49890   6.748   2.718   7.948  0.1682 -0.1536 -0.3189
49027W        W49891   4.325   0.263   7.349 -0.0178 -0.2836  0.0201
49028W        W49892   3.693  25.841   9.947  0.1138  0.0062  0.0535
49029W        W49893   4.683  26.799  10.994 -0.2473  0.0788 -0.0525
49030W        W49894   3.658  28.599   9.047 -0.0827 -0.1029 -0.1274
49031W        W49895   6.406  27.715   9.476  0.0696  0.1715 -0.2491
49032W        W49896   4.902  28.522  10.152  0.2869  0.1269 -0.1045
49033W        W49897   5.762  27.916   7.170  0.2269  0.2607  0.1090
49034W        W49898   5.034  25.845   7.624  0.0134  0.0823  0.1874
49035W        W49899   7.210   1.079   7.391  0.0539 -0.2130  0.1411
49036W        W49900   7.829  27.651   8.226  0.1508  0.0217 -0.0813
49037W        W49901   6.884  28.614   7.230 -0.1721  0.0196  0.0722
49038W        W49902   2.017  27.471   8.710 -0.1170  0.1010  0.0506
49039W        W49903   7.314  26.744   9.315  0.0212 -0.1725  0.2279
49040W        W49904   4.959  26.732   8.041  0.1181  0.2348 -0.0370
49041W        W49905   5.433  26.384   7.790 -0.2142 -0.2658 -0.0677
49042W        W49906   5.423   0.840   7.576 -0.1568  0.0822 -0.0281
49043W        W49907   5.866  24.943   9.687  0.1535 -0.3458 -0.1453
49044W        W49908   5.016  24.078  12.770 -0.0714 -0.2238  0.2749
49045W        W49909   6.627  27.854   6.962 -0.3036 -0.1372 -0.1133
49046W        W49910   6.923  25.328  10.437 -0.1337  0.1654 -0.1019
49047W        W49911   8.388  23.498  11.460 -0.2459  0.1050  0.0251
49048W        W49912   6.399  25.875   6.924  0.3069  0.0253 -0.2534
49049W        W49913   3.410  28.624   6.352  0.2093  0.0874  0.1635
49050W        W49914   4.002   0.010   8.306 -0.2027 -0.0438 -0.1589
49051W        W49915   6.084  25.891   9.962  0.0426 -0.3237  0.2385
49052W        W49916   7.762   0.565   8.833  0.0580 -0.3136  0.1358
49053W        W49917   5.669   0.127   8.146  0.0094 -0.0348  0.3099
49054W        W49918   6.053  28.042   9.397  0.2433  0.0006  0.3085
49055W        W49919   4.515  28.462  12.410 -0.1436  0.0434  0.2119
49056W        W49920   7.695  25.027   7.390  0.2495 -0.0464  0.0015
49057W        W49921   4.441  26.578   9.703 -0.1679 -0.1999 -0.2657
49058W        W49922   5.131  27.159   8.480  0.0693  0.2456 -0.0976
49059W        W49923   3.466   0.243   9.523  0.1291 -0.3579 -0.1684
49060W        W49924   7.223  25.169   7.720 -0.0633 -0.3198 -0.1824
49061W        W49925   7.878  26.718   9.248 -0.0678 -0.0158 -0.0776
49062W        W49926   2.910  25.252   9.709  0.1211  0.0174 -0.0907
49063W        W49927   3.998  26.152  12.967 -0.0358 -0.1273 -0.1062
49064W        W49928   1.836  27.899  10.866  0.1757 -0.0208  0.0412
49065W        W49929   5.411  24.203   9.157  0.1146  0.0437  0.1777
49066W        W49930   6.746  21.460   9.480 -0.1388 -0.2799  0.1564
49067W        W49931   5.414   0.636   6.682  0.0070 -0.1739  0.0933
49068W        W49932   5.809   0.589   8.937 -0.2409 -0.3887 -0.1405
49069W        W49933   7.115  25.117  12.910  0.1418  0.0260  0.2133
49070W        W49934   8.082  27.869   8.567  0.3612  0.0175 -0.1293
49071W        W49935   4.774  25.459  11.505 -0.2985  0.4485 -0.1526
49072W        W49936   3.453  27.666   9.583 -0.3021 -0.1726 -0.0177
49073W        W49937   6.567  27.595  11.969  0.1128 -0.1981 -0.0868
49074W        W49938   6.141   1.685  11.648  0.0462  0.0599 -0.0601
49075W        W49939   3.834  24.998   8.842 -0.0384  0.1245 -0.1725
49076W        W49940   5.590  24.995  13.240  0.0537  0.1820 -0.0515
49077W        W49941   7.054  24.593  11.610  0.2097 -0.1292 -0.0054
49078W        W49942   7.890  27.302   9.346 -0.0944  0.1501 -0.0349
49079W        W49943   6.109   0.080  11.941  0.1614  0.2682 -0.2172
49080W        W49944   2.159  25.887   9.105  0.0031  0.1073 -0.0427
49081W        W49945   5.030  24.230   9.484 -0.2543 -0.1570  0.1714
49082W        W49946   7.748  28.607   7.749 -0.2610  0.3307  0.1570
49083W        W49947   3.513  27.158   8.943  0.0551 -0.0134 -0.0916
49084W        W49948   6.252  26.352   7.143  0.1047  0.3685 -0.1401
49085W        W49949   6.438  27.733   8.724 -0.2283  0.0226 -0.0137
49086W        W49950   7.843  25.637  10.418  0.1201 -0.0584  0.3759
49087W        W49951   6.694  27.628   7.538 -0.1535  0.1736 -0.1137
49088W        W49952   6.780   1.566  10.136  0.1077 -0.1341  0.2454
49089W        W49953   8.534  27.318  12.191 -0.0200 -0.3305 -0.1984
49090W        W49954   6.205  24.979  12.590 -0.0345  0.2562 -0.2570
49091W        W49955   1.906  26.830  10.513 -0.1302  0.2324 -0.0117
49092W        W49956   3.026  28.470   9.226  0.3634 -0.4143  0.0807
49093W        W49957   7.565   0.310   7.724 -0.4774 -0.0575  0.1427
49094W        W49958   4.714  27.387  10.353 -0.0158  0.0291 -0.0673
49095W        W49959   6.684  28.648  12.231 -0.1739 -0.0208  0.1274
49096W        W49960   7.551   0.966   9.196 -0.0998  0.1157 -0.1641
49097W        W49961   4.453  26.975   9.367  0.1640 -0.2723 -0.1886
49098W        W49962   4.758  25.982  11.593  0.0665  0.3436 -0.0545
49099W        W49963   8.178  25.387  10.113 -0.1703 -0.1943  0.5501
49100W        W49964   4.537  27.856   8.351 -0.1538  0.2526  0.3764
49101W        W49965   6.112  25.083  11.531  0.0780 -0.0908  0.1349
49102W        W49966   4.201  25.452   7.650  0.1106  0.1409 -0.0852
49103W        W49967   6.461  26.762   9.621 -0.4424  0.0477  0.3239
49104W        W49968   6.794  28.658   9.286  0.3575  0.1735 -0.0974
49105W        W49969   8.655  26.801   8.642  0.0358 -0.2178  0.3183
49106W        W49970   4.933  26.349  11.107 -0.3105  0.0544  0.0826
49107W        W49971   8.486  28.484   9.032 -0.0434  0.0869 -0.0370
49108W        W49972   5.876  26.567   9.834  0.0144  0.2741 -0.2828
49109W        W49973   6.294  26.288   9.702 -0.2295 -0.1397 -0.1335
49110W        W49974   7.500   1.695   7.860 -0.1809  0.1720  0.1023
49111W        W49975   4.833   0.508   9.111 -0.1246 -0.0707 -0.2012
49112W        W49976   9.110  28.832  10.371  0.0564 -0.1466  0.0328
49113W        W49977   4.985  26.672   9.152 -0.2466  0.1741  0.0306
49114W        W49978   5.015   0.098   7.952  0.3209  0.0297 -0.0402
49115W        W49979   4.257  24.954  10.247  0.3077 -0.2452  0.0865
49116W        W49980   5.262  27.179   8.947 -0.1693  0.2780 -0.0843
49117W        W49981   5.407  27.620   8.392  0.1453 -0.1227 -0.2201
49118W        W49982   6.866  27.011   9.199 -0.0224  0.2183  0.0621
49119W        W49983   6.353  28.735  11.399 -0.2028 -0.1843 -0.0161
49120W        W49984   6.550  25.892   8.399 -0.0159 -0.0984 -0.1158
49121W        W49985   4.240   1.125   8.908 -0.1566  0.0031 -0.1128
49122W        W49986   5.150  26.242   8.875  0.0254  0.0264  0.0073
49123W        W49987   7.077  25.641   9.958  0.1337  0.1360 -0.1320
49124W        W49988   7.152  28.544   7.636 -0.1608 -0.1800  0.0911
49125W        W49989   6.664  26.113  11.029  0.0633  0.0613 -0.1240
49126W        W49990   6.504  29.112   9.036 -0.0246  0.1476  0.0016
49127W        W49991   5.072  26.134   9.610 -0.0547 -0.0322  0.1836
49128W        W49992   6.378  23.717  10.548 -0.1424 -0.1008  0.3758
49129W        W49993   9.972  26.435   9.295 -0.2725  0.1201 -0.1022
49130W        W49994   5.465   0.457  11.116  0.0030  0.0912  0.1231
49131W        W49995   6.095  28.713   8.703 -0.2019 -0.5206  0.0791
49132W        W49996   6.651   1.477   6.677  0.3080  0.2919 -0.0553
49133W        W49997   5.154  25.941  11.236 -0.2469 -0.0836 -0.1445
49134W        W49998   5.656  24.648  10.098  0.3638  0.0763 -0.1302
49135W        W49999   6.607  27.326   6.968 -0.0680 -0.2156  0.0242
49136W        W50000   5.069  27.691   9.345  0.1463 -0.3472 -0.1064
49137W        W50001   7.384  25.346  11.817 -0.1726 -0.3494  0.0165
49138W        W50002   4.936  27.522   8.209 -0.0853 -0.0400  0.0012
49139W        W50003   6.709  26.982   7.355 -0.0040  0.0883  0.1678
49140W        W50004   6.604  24.324   6.881  0.0526  0.2421 -0.0491
49141W        W50005   7.557  25.670   8.231 -0.1194  0.0593  0.0415
49142W        W50006   5.226  25.723  11.624 -0.1321  0.0201  0.0610
49143W        W50007   5.907  27.562   9.460  0.1618 -0.1174 -0.0331
49144W        W50008   5.652  27.743  12.312 -0.1369 -0.5133  0.2628
49145W        W50009   9.308   0.116  10.626 -0.1180  0.0592  0.0694
49146W        W50010   5.983  25.770  10.818  0.1692  0.0561  0.2078
49147W        W50011   6.301  24.932   8.737 -0.1512 -0.1178 -0.3136
49148W        W50012   3.984  26.455   8.357  0.3173  0.0672  0.2646
49149W        W50013   5.782  27.306  10.140  0.1788  0.1033  0.0059
49150W        W50014   5.300   0.303  12.873 -0.1492  0.0316 -0.0530
49151W        W50015   2.699  28.919   8.987 -0.0711  0.0120 -0.1839
49152W        W50016   7.550  29.009   8.942 -0.0570  0.1443  0.0776
49153W        W50017   5.662  26.169  11.067 -0.1013 -0.0955 -0.2506
49154W        W50018   6.441  28.635   8.279 -0.0063  0.3348  0.0535
49155W        W50019   6.044  28.696   7.201 -0.0687 -0.1193 -0.0388
49156W        W50020   3.864  24.412   9.063  0.2863 -0.1704  0.2766
49157W        W50021   8.047  27.323   7.507  0.1510  0.1510  0.1712
49158W        W50022   2.534   1.357  10.911 -0.1381 -0.0208  0.0865
49159W        W50023   3.614  26.654   9.801 -0.0144 -0.0465 -0.0951
49160W        W50024   2.895   0.146  11.210 -0.1899 -0.0670  0.0695
49161W        W50025   4.670  25.797   6.109 -0.1098  0.3344 -0.0747
49162W        W50026   5.034  26.712  10.182 -0.0636  0.1552  0.1432
49163W        W50027   7.989   1.885   6.440 -0.1057 -0.1675  0.2459
49164W        W50028   7.341  27.071   7.972 -0.1729  0.0463 -0.0417
49165W        W50029   2.737  27.682   8.774 -0.0426 -0.0431  0.0825
49166W        W50030   6.073  25.625   7.731  0.1836  0.0090 -0.0804
49167W        W50031   6.058  27.777  10.439  0.3270 -0.1027  0.1244
49168W        W50032   6.233  25.963   8.861  0.0435  0.0748  0.1643
49169W        W50033   3.897  26.834   7.183 -0.1201 -0.1638 -0.2900
49170W        W50034   6.441  28.300  11.178 -0.1619  0.1237 -0.0673
49171W        W50035   4.778  27.884   7.914  0.2383  0.1038 -0.0631
49172W        W50036   2.759  27.850   4.565 -0.1046 -0.1454  0.0110
49173W        W50037   2.936   1.926   9.562  0.0714 -0.2550 -0.0567
49174W        W50038   3.252  27.406  13.201 -0.0209 -0.4666 -0.0162
49175W        W50039   6.973  23.903  14.046  0.3860  0.0199  0.0890
49176W        W50040   6.354  24.854  11.169  0.0305  0.0728  0.1486
49177W        W50041   5.808  25.621   8.578  0.0252  0.0009  0.0407
49178W        W50042   7.515  23.148   5.609 -0.1046 -0.1966 -0.1072
49179W        W50043   2.319  26.418   8.706 -0.0248 -0.2482  0.3098
49180W        W50044   5.894  26.157  10.440 -0.1941  0.1363 -0.0954
49181W        W50045   7.523  25.798  10.072  0.0670  0.1083  0.1367
49182W        W50046   5.826  28.189  10.196 -0.0839 -0.2317  0.1324
49183W        W50047   5.926  27.200   7.643 -0.1552 -0.0890 -0.0795
49184W        W50048   6.984  26.910   9.673 -0.0885  0.0009  0.1603
49185W        W50049   7.634  27.292  11.103  0.0581 -0.2277 -0.1511
49186W        W50050   7.839  24.927  11.664 -0.0476  0.1101 -0.1814
49187W        W50051   3.183  26.803   8.785  0.1564  0.0798 -0.1359
49188W        W50052   6.198  28.180   8.633  0.0798  0.2320 -0.1825
49189W        W50053   6.047  25.008   9.197  0.2020 -0.1281 -0.0873
49190W        W50054   4.460  26.620   8.349  0.2098 -0.1770  0.2858
49191W        W50055   2.008  27.378   8.187 -0.2900 -0.0674 -0.1318
49192W        W50056   5.040   0.289  10.106 -0.0712 -0.2402  0.1331
49193W        W50057   1.154  28.264  11.463 -0.1336 -0.0715  0.0049
49194W        W50058   6.764  26.662   8.870  0.1454 -0.1211 -0.0293
49195W        W50059   6.816  25.783  10.396  0.0014 -0.1591 -0.2243
49196W        W50060   7.216  28.393   9.920  0.2252  0.1741  0.0796
49197W        W50061   6.556  28.305   9.561 -0.2621 -0.0598  0.1835
49198W        W50062   5.862  26.388   8.096 -0.0121 -0.0949  0.1452
49199W        W50063   8.256   0.867   6.874  0.0594 -0.0078  0.0485
49200W        W50064   6.979   0.140  12.540  0.2440 -0.0678 -0.0211
49201W        W50065   6.872   0.531  10.391 -0.0401  0.0510 -0.1516
49202W        W50066   8.435  25.999  11.602 -0.0268  0.1880  0.1190
49203W        W50067   5.852  28.490  10.593 -0.0415  0.0959 -0.2121
49204W        W50068   5.554   0.739   8.538  0.0079 -0.1149  0.1722
49205W        W50069   4.741  26.880   8.732  0.2987  0.1112  0.1074
49206W        W50070   6.765  28.512   6.364  0.0756  0.0638  0.1662
49207W        W50071   5.387  26.903  13.490 -0.0307  0.1355  0.0411
49208W        W50072   4.726   0.079  11.514  0.3253 -0.0475  0.0179
49209W        W50073   5.074  24.625  10.864 -0.1267  0.7235  0.1500
49210W        W50074   7.087  26.601   7.388 -0.1373  0.2446  0.1245
49211W        W50075   4.572  27.759   9.162  0.0752  0.1833 -0.1152
49212W        W50076   3.693  25.935   8.452 -0.0259  0.0833 -0.2069
49213W        W50077   4.376  24.662  11.577  0.0511  0.2532  0.0536
49214W        W50078   1.415  27.211  11.289  0.1097  0.0495 -0.0357
49215W        W50079   5.964  28.411   8.283 -0.1775 -0.0605 -0.0390
49216W        W50080   2.252  25.487   9.430  0.1514  0.0553  0.3536
49217W        W50081   5.812  28.862   9.512  0.0199 -0.1026  0.0095
49218W        W50082   8.053  28.899   8.855  0.2828  0.1235 -0.0446
49219W        W50083   4.803  26.945  10.527 -0.1104 -0.1670  0.0210
49220W        W50084   7.260  28.947  10.913  0.1151  0.2275  0.2694
49221W        W50085   7.567  28.537   8.647 -0.0711  0.0003  0.0480
49222W        W50086   6.809  27.034   6.521 -0.0251  0.0875  0.1201
49223W        W50087   6.260   1.212   9.446 -0.0830  0.0890  0.0579
49224W        W50088   3.306  26.771  10.639 -0.0450 -0.1991  0.1597
49225W        W50089   4.295  27.124  10.347 -0.1466 -0.0854 -0.1178
49226W        W50090   4.522  26.090   9.638  0.0152  0.0448 -0.1762
49227W        W50091   3.340   1.230   6.859 -0.3746  0.3210  0.0583
49228W        W50092   6.140  27.384  11.401  0.2328  0.0655  0.2381
49229W        W50093   3.886  28.796  12.557  0.1994 -0.1016  0.1183
49230W        W50094   5.900   1.563   9.313  0.0181 -0.1850 -0.0333
49231W        W50095   4.634  25.838  10.310  0.2985  0.2557  0.0492
49232W        W50096   3.938  26.487   8.903  0.0873 -0.0684  0.1970
49233W        W50097   4.053   0.276  10.253  0.0818  0.1848  0.0977
49234W        W50098   7.520  28.183  12.993  0.1452  0.1107 -0.0858
49235W        W50099   6.725  27.147  10.039  0.0324  0.0710 -0.1596
49236W        W50100   2.299  27.945   8.968 -0.1904 -0.1923  0.2868
49237W        W50101   6.290  27.811   7.353 -0.1754  0.1089 -0.2406
49238W        W50102   5.054  25.677  12.100  0.1716 -0.1528  0.1419
49239W        W50103   5.021  27.734  10.469 -0.0707 -0.1173  0.1732
49240W        W50104   8.094   0.407   7.725 -0.1773  0.0314  0.0205
49241W        W50105   3.581  26.245  10.219  0.3099  0.3558 -0.0633
49242W        W50106   2.494  26.533  11.674 -0.2323  0.3133  0.0205
49243W        W50107   5.607  23.712  11.952  0.1497 -0.2402  0.2521
49244W        W50108   6.992  27.532  10.442 -0.2196 -0.3040 -0.0783
49245W        W50109   3.551  26.442  11.041 -0.3211  0.0857  0.2335
49246W        W50110   4.880   2.785   7.839 -0.0288 -0.2699  0.1633
49247W        W50111   3.300  28.807   9.498 -0.1124 -0.0250 -0.1051
49248W        W50112   4.902  28.539   8.933  0.3228  0.2283 -0.2333
49249W        W50113   9.163   0.956   9.488  0.1683  0.0266 -0.1848
49250W        W50114   6.186  27.430   9.851  0.1221 -0.0144  0.0969
49251W        W50115   6.884  28.781   8.130  0.0892  0.3297  0.0480
49252W        W50116   5.389  28.109   8.825 -0.0511  0.2741 -0.0785
49253W        W50117   6.571  25.265   9.248 -0.2694  0.0539 -0.1150
49254W        W50118   4.299  25.859  11.669 -0.2296  0.2282  0.0896
49255W        W50119   7.086  27.167   7.539  0.1987  0.1164  0.0532
49256W        W50120   7.713  26.647  11.121 -0.2081 -0.4896  0.4045
49257W        W50121   7.589  22.902  13.722  0.1348  0.0169 -0.2328
49258W        W50122   5.455  26.273   9.346  0.1056 -0.2996  0.1712
49259W        W50123   3.436   0.892  11.645  0.0681  0.2888  0.0846
49260W        W50124   5.793  26.320   7.384  0.2491 -0.0864  0.0502
49261W        W50125   6.663  29.100  11.697 -0.3388 -0.0465  0.0891
49262W        W50126   5.845  26.929  10.439 -0.0288 -0.0531 -0.1033
49263W        W50127   2.895  24.522   6.666 -0.0624  0.0264  0.2124
49264W        W50128   5.606  25.688   7.104  0.0782 -0.2818 -0.0104
49265W        W50129   2.474   0.135   9.293  0.2035 -0.0370  0.1015
49266W        W50130   7.920  28.106   7.056  0.0824  0.1054  0.2108
49267W        W50131   7.101  26.027  10.681 -0.0829  0.1168 -0.1327
49268W        W50132   8.255  26.642  10.283  0.0780  0.0769  0.2904
49269W        W50133   3.260  28.485  11.409 -0.0917 -0.0737  0.0417
49270W        W50134   7.273  24.950  10.246 -0.0072 -0.1301  0.0646
49271W        W50135   7.159   2.307   9.238  0.1959 -0.3974  0.2606
49272W        W50136   5.747   1.228   7.643  0.1158 -0.0353 -0.1587
49273W        W50137   7.079  25.802   8.046 -0.1367  0.1389 -0.0826
49274W        W50138   5.516  28.139  11.327  0.2573  0.0809  0.0827
49275W        W50139   4.442  26.639  10.315 -0.1093 -0.2706 -0.1613
49276W        W50140   5.624  27.164   8.440 -0.1167 -0.1423  0.0096
49277W        W50141   6.929  26.731   7.843 -0.1386  0.1076  0.2119
49278W        W50142   3.492  24.238  11.339 -0.0900 -0.0031  0.1205
49279W        W50143   9.598  27.040   9.973 -0.0104  0.1275 -0.0046
49280W        W50144   6.076  24.379   9.927 -0.0018  0.2772 -0.1261
49281W        W50145   5.298  29.098   9.533 -0.0497 -0.2538  0.1718
49282W        W50146   2.785   0.169   8.357  0.1175  0.3799  0.0822
49283W        W50147   4.717  25.044  11.158 -0.0667  0.1530 -0.4640
49284W        W50148   4.133  27.421  11.407  0.0892 -0.0477 -0.1977
49285W        W50149   9.063   0.528  11.623 -0.0514 -0.1060 -0.2848
49286W        W50150   4.523  28.225   9.154 -0.1416 -0.0232  0.1914
49287W        W50151   5.394  28.503  10.406 -0.0474 -0.2233  0.1860
49288W        W50152   6.157  28.793  10.391  0.1111  0.0952  0.3577
49289W        W50153   6.219  24.542  11.535  0.0325 -0.1391 -0.0659
49290W        W50154   7.054  28.075   7.267 -0.0419 -0.2658 -0.0995
49291W        W50155   5.365  28.174   9.951  0.2297 -0.1784 -0.1230
49292W        W50156   6.054  24.091   9.192  0.0965 -0.2010 -0.2023
49293W        W50157   3.557  27.299  12.199  0.0186  0.0429  0.1832
49294W        W50158   6.767  23.691   9.601 -0.3520  0.0660 -0.1362
49295W        W50159   5.443  27.484   9.724  0.0054  0.1259  0.2485
49296W        W50160   4.133  28.453  11.664 -0.0394  0.1309 -0.0400
49297W        W50161   6.789   1.566  12.933  0.0186  0.2500 -0.4246
49298W        W50162   5.352  25.865   8.587 -0.0728 -0.3241  0.0528
49299W        W50163   6.681  24.630   8.578 -0.0400  0.0062 -0.1145
49300W        W50164   8.838  28.593  10.900  0.3960 -0.2065  0.1962
49301W        W50165   5.934  27.774   8.990  0.3313 -0.1239  0.0258
49302W        W50166   6.255  28.601   7.828  0.0164 -0.1318  0.1934
49303W        W50167   6.143   1.324   7.322 -0.1913  0.1412 -0.1611
49304W        W50168   4.836  28.924   9.804 -0.1956  0.0060 -0.0166
49305W        W50169   5.824  27.873   8.484  0.2736  0.3474 -0.1771
49306W        W50170   5.423   1.228   7.214 -0.1255 -0.1330 -0.1447
49307W        W50171   4.510  28.842   9.066  0.4246 -0.3557 -0.2580
49308W        W50172   7.440  25.102   6.916  0.1498  0.2454  0.0446
49309W        W50173   2.756  27.650  11.622  0.1568  0.2400  0.2765
49310W        W50174   6.110   0.179   6.514  0.0860  0.0924  0.3216
49311W        W50175   2.635  27.909   7.742 -0.3888 -0.3095 -0.1152
49312W        W50176   5.522  25.888  12.481  0.0543 -0.1647 -0.2338
49313W        W50177   5.144  25.379   8.517  0.0235  0.0451 -0.1096
49314W        W50178   8.356   1.031   9.412  0.0208 -0.1500  0.2078
49315W        W50179   7.000  29.125  10.248  0.0089 -0.1908  0.2239
49316W        W50180   9.707  28.724  12.091  0.2107  0.2969 -0.2932
49317W        W50181   7.012   1.345  12.548  0.0520 -0.0945  0.0244
49318W        W50182   1.550  28.269  11.792 -0.1478  0.2525 -0.0410
49319W        W50183   8.890  26.489   8.315  0.0798  0.0437  0.4490
49320W        W50184   5.137  26.175  10.276 -0.0220 -0.0618  0.2495
49321W        W50185   7.267  24.381  10.309  0.0867  0.0160  0.0094
49322W        W50186   4.285  27.742   8.739  0.0452 -0.0087 -0.1021
49323W        W50187   4.508  26.795  12.325  0.3309 -0.0753  0.0025
49324W        W50188   5.677  26.459  11.916  0.2264 -0.0513  0.2050
49325W        W50189   3.705  26.833   6.694 -0.1522  0.0884 -0.1323
49326W        W50190   6.375  27.306   7.359  0.3176  0.4028  0.0535
49327W        W50191   5.335  26.386  10.763  0.1989  0.1651  0.1755
49328W        W50192   3.089  28.278   7.351 -0.2231  0.2586 -0.2801
49329W        W50193   4.362  25.090   9.782  0.0291 -0.2196 -0.0236
49330W        W50194   5.080  28.090  11.628  0.0784  0.2098  0.0473
49331W        W50195   6.028  26.146   6.366 -0.0409  0.3116 -0.1543
49332W        W50196   6.347  26.407  10.156 -0.1581  0.0166 -0.2106
49333W        W50197   8.377  24.809   9.492 -0.1831  0.1269  0.3183
49334W        W50198   7.036   1.890   7.973  0.1654 -0.0247 -0.1210
49335W        W50199   7.974   1.679   7.658  0.2283  0.2576 -0.0130
49336W        W50200   3.664   0.684   9.062 -0.1675 -0.0993  0.1099
49337W        W50201   8.946  28.112   8.641  0.0840  0.3352 -0.1617
49338W        W50202   6.696  28.545  11.672 -0.0205  0.2253 -0.2435
49339W        W50203   6.474  28.140  13.148 -0.2363 -0.1564  0.0042
49340W        W50204   6.239  27.184  13.864  0.4212 -0.2322  0.0508
49341W        W50205   2.736  26.783  11.267  0.1062  0.0096  0.2099
49342W        W50206   5.951  27.392   7.085 -0.1328 -0.0430  0.2400
49343W        W50207   3.033   0.315  12.532  0.1157  0.5294 -0.1069
49344W        W50208   5.975  26.358   9.360 -0.1261 -0.1299  0.0145
49345W        W50209   5.447  25.479   6.718  0.1554  0.1454 -0.2398
49346W        W50210   7.042   0.926   9.077 -0.1160  0.1183  0.4159
49347W        W50211   6.525  27.637  10.593  0.0770 -0.3504  0.0951
49348W        W50212   5.845  28.522  11.146 -0.0066  0.1553 -0.0029
49349W        W50213   7.367  28.548   8.116 -0.1999 -0.1702 -0.0091
49350W        W50214   5.753  24.470   9.412 -0.0554 -0.0208  0.0374
49351W        W50215   5.829  25.095   8.686  0.0701 -0.1056 -0.0004
49352W        W50216   3.960  26.307   7.158 -0.0009  0.0416  0.3890
49353W        W50217   7.496  27.119   8.453 -0.2288 -0.0426  0.0058
49354W        W50218   4.012  29.008   7.357 -0.0171  0.1919  0.0399
49355W        W50219   6.465  27.800  11.054 -0.3002  0.1081  0.0822
49356W        W50220   7.386  28.354   6.831 -0.1799  0.0223  0.1291
49357W        W50221   3.718  26.887  10.925 -0.1048  0.1750  0.1131
49358W        W50222   5.515  27.424  10.643  0.3740  0.1118  0.4209
49359W        W50223   8.294  27.116   9.897  0.2196 -0.1269  0.0655
49360W        W50224   5.815  27.381  12.032  0.0075  0.3872 -0.1706
49361W        W50225   4.042  27.012  11.787  0.2359 -0.1117 -0.2788
49362W        W50226   4.085  26.540  11.138 -0.0497 -0.2714 -0.0736
49363W        W50227   5.652  25.279   7.562  0.0512 -0.2088 -0.0071
49364W        W50228   2.845  26.961  10.237 -0.4018  0.0328 -0.0805
49365W        W50229   7.252  26.436   9.665  0.0864 -0.0007  0.2383
49366W        W50230   4.321   0.346   8.560  0.0667 -0.1463 -0.0220
49367W        W50231   6.974   1.081  10.717  0.0344 -0.0037  0.2382
49368W        W50232   7.321   0.986   8.253  0.1296  0.1322  0.0959
49369W        W50233   6.476   0.363   8.375 -0.0867 -0.0032 -0.2527
49370W        W50234   4.552   1.336   8.556  0.0226  0.0969 -0.5011
49371W        W50235   5.521  27.537   9.153  0.2700 -0.0089  0.2502
49372W        W50236   4.897  27.180   9.920  0.0599 -0.7646  0.0808
49373W        W50237   2.823  28.658   8.570  0.0653 -0.1570  0.1196
49374W        W50238   7.378  28.458  10.779 -0.0694  0.1000 -0.0140
49375W        W50239   6.732   1.550   8.186 -0.2252 -0.1537  0.0289
49376W        W50240   2.172  26.877  11.385  0.0127  0.0120  0.0999
49377W        W50241   6.326  26.549  10.918  0.1494  0.3886 -0.3593
49378W        W50242   6.017   0.601   8.477  0.0767  0.4379 -0.1379
49379W        W50243   4.180  29.062  11.590 -0.0815  0.0196 -0.2118
49380W        W50244   7.655   1.461   9.269  0.0953  0.1902 -0.1300
49381W        W50245   3.192  27.968   7.932  0.0172  0.2223 -0.2664
49382W        W50246   4.144  28.747  14.483 -0.2299  0.0613 -0.0185
49383W        W50247   2.995   0.851  12.541 -0.1522 -0.2603 -0.1025
49384W        W50248   7.663  26.327  14.395 -0.0265 -0.0501  0.0236
49385W        W50249   8.135  27.400  12.829 -0.0347 -0.3097  0.2566
49386W        W50250   4.967   1.714  10.418  0.2064 -0.0824  0.1692
49387W        W50251   7.949  26.910  10.711  0.1499 -0.4092 -0.1578
49388W        W50252   6.091  26.765  12.574  0.1582 -0.0801  0.1477
49389W        W50253   7.411  27.365  12.099  0.1751 -0.0477 -0.1272
49390W        W50254   5.070   1.191  16.616 -0.1014 -0.1544 -0.1524
49391W        W50255   3.092  26.234  16.160  0.5533  0.1788  0.4658
49392W        W50256   5.275  26.022  14.598  0.2510  0.1171  0.0589
49393W        W50257   4.677  24.827  12.714  0.0418 -0.0106  0.2877
49394W        W50258   4.997  27.279  10.824  0.0350 -0.0945  0.1089
49395W        W50259   7.105  26.425  15.287 -0.0663  0.1830 -0.0895
49396W        W50260   2.080  24.060  14.008  0.3849 -0.0167 -0.1339
49397W        W50261   2.505  28.186  15.852 -0.2825  0.0135  0.1807
49398W        W50262   6.703   1.598   9.632 -0.0587 -0.2582  0.0879
49399W        W50263   4.088  26.383  15.663  0.0631 -0.0100  0.0826
49400W        W50264   3.975  25.646  12.058  0.1764 -0.0461 -0.0286
49401W        W50265   5.557  27.371  13.107  0.0287 -0.0031 -0.4248
49402W        W50266   7.261  27.863  13.860 -0.0971  0.0486 -0.0379
49403W        W50267   5.266  25.645  13.730  0.4074  0.0934  0.1710
49404W        W50268   8.266  27.279  13.928  0.1465 -0.0066 -0.0699
49405W        W50269   1.558  29.024  13.610  0.2433 -0.3509  0.0323
49406W        W50270   3.896  27.342  16.167  0.0976 -0.0241 -0.0795
49407W        W50271   4.426  25.967  11.156 -0.3237 -0.0173  0.0834
49408W        W50272   6.948  26.108  14.927  0.2326  0.0588 -0.3405
49409W        W50273   2.536   0.104  14.621 -0.1185 -0.0615  0.0152
49410W        W50274   6.899  26.498  12.292  0.2398  0.3058  0.0476
49411W        W50275   6.463  27.132  13.342 -0.2172 -0.0930  0.0825
49412W        W50276   8.296   1.923  11.561 -0.0379  0.0824 -0.3327
49413W        W50277   5.417  28.673  18.025 -0.3396  0.2756 -0.4368
49414W        W50278   5.448  27.777  15.384 -0.0147 -0.0143  0.1508
49415W        W50279   4.313  28.698  12.889  0.1119 -0.1066 -0.0988
49416W        W50280   3.569  26.097  16.477 -0.2348  0.0806  0.1821
49417W        W50281   4.225  27.379  16.523 -0.3342 -0.1185  0.0149
49418W        W50282   2.416  27.978  11.912 -0.0789  0.0672  0.1162
49419W        W50283   7.036  28.243  12.496  0.0980 -0.1454  0.1223
49420W        W50284  11.478  27.858  12.783 -0.0265  0.0039  0.1701
49421W        W50285   7.155  25.881  13.164 -0.1386 -0.1382 -0.1501
49422W        W50286   4.564  26.108  12.027 -0.1046 -0.0120 -0.1004
49423W        W50287   9.518   0.040  12.824  0.1440 -0.0641 -0.2125
49424W        W50288   8.912  28.710  12.458 -0.1218 -0.1299 -0.0919
49425W        W50289   7.749  27.716  13.108 -0.3412  0.0206 -0.0807
49426W        W50290   5.412   1.301  13.980 -0.3783  0.2222 -0.2679
49427W        W50291   6.997  28.310  12.975 -0.0512 -0.0524  0.0916
49428W        W50292   3.914  26.460  14.608 -0.1216  0.0379  0.2663
49429W        W50293   8.099  28.268  14.409 -0.2675 -0.1888  0.1308
49430W        W50294   7.046  26.812  12.618  0.1926  0.0970  0.3514
49431W        W50295   6.461  26.961  12.255 -0.0556 -0.1648  0.0819
49432W        W50296   8.306  26.462  14.238  0.0584 -0.0146  0.2384
49433W        W50297   7.230  26.721  13.583 -0.1459  0.1148  0.3970
49434W        W50298   5.873   1.130  12.770  0.2941  0.2234  0.0124
49435W        W50299   6.932  26.524  13.939  0.0324  0.0828 -0.3298
49436W        W50300   4.711  28.109  11.107 -0.1650  0.0877 -0.0720
49437W        W50301   5.700  29.077  10.467  0.1023  0.0425  0.0117
49438W        W50302   3.759  26.765  11.404 -0.1422 -0.2599  0.0128
49439W        W50303   5.555  28.501  15.124 -0.3878 -0.0079  0.1157
49440W        W50304   2.544  25.982  14.829  0.1036  0.0332  0.0872
49441W        W50305   5.995  28.995  12.384  0.0538  0.1137 -0.2169
49442W        W50306   6.444  27.020  12.822 -0.1596 -0.0979 -0.1466
49443W        W50307   1.187  29.059  14.524 -0.0408 -0.1449 -0.1285
49444W        W50308   7.358   0.284  11.013 -0.2088  0.0038  0.0698
49445W        W50309   5.700  27.192  13.729 -0.1748 -0.1708  0.3067
49446W        W50310   6.294  27.176  11.847  0.1052  0.2293  0.0757
49447W        W50311   6.037  24.738  13.062 -0.0598 -0.2975 -0.1937
49448W        W50312   3.696  25.752   9.418  0.2893 -0.1287 -0.1224
49449W        W50313   3.214  27.228  10.947  0.1311  0.0983  0.2658
49450W        W50314   6.051   0.373  13.239 -0.0184  0.0337  0.0222
49451W        W50315   5.552  27.962  10.675  0.1101  0.0638 -0.1205
49452W        W50316   7.575   0.694  14.302  0.2526  0.0110 -0.0330
49453W        W50317   6.935  25.724  11.025  0.2719  0.1677  0.1115
49454W        W50318   7.412  27.498  13.577  0.2275 -0.0618 -0.1777
49455W        W50319   8.385  26.556  12.779  0.0677  0.1431 -0.0057
49456W        W50320   7.440  27.562  10.711 -0.0763  0.1617 -0.1437
49457W        W50321   7.951  29.030  11.750 -0.2431 -0.1586 -0.0961
49458W        W50322   3.817  23.856   8.737 -0.2247 -0.3134 -0.1022
49459W        W50323   3.753   0.479  11.792  0.3519 -0.1738  0.0441
49460W        W50324   5.553  27.183  15.390  0.2442  0.0652  0.0781
49461W        W50325   4.644   0.007  13.739  0.0094  0.4429  0.1555
49462W        W50326   3.068  24.887  13.269 -0.0132  0.1816  0.0623
49463W        W50327   4.170  27.681  12.856  0.2844  0.0270 -0.1218
49464W        W50328   4.089  26.491  11.701 -0.0508  0.3402 -0.2173
49465W        W50329   5.964  26.854  13.463  0.0977 -0.0998 -0.2372
49466W        W50330   8.626  24.209  14.407 -0.0943 -0.0850 -0.1105
49467W        W50331   9.314  25.612  13.235  0.0708 -0.0676 -0.1540
49468W        W50332   5.928  28.286  13.496  0.1236  0.0290  0.0862
49469W        W50333   3.994  26.659  17.107  0.1191 -0.0607  0.1753
49470W        W50334   4.483  25.687  14.574 -0.0123 -0.4480 -0.1153
49471W        W50335   9.619  27.955  15.188  0.0677 -0.2647  0.1445
49472W        W50336   3.685  26.523  11.978 -0.0703  0.0103 -0.2284
49473W        W50337   6.593  27.767  14.073 -0.0959  0.2622 -0.2399
49474W        W50338   4.152  28.207  12.766 -0.1208 -0.3545  0.0236
49475W        W50339   8.870  26.379  13.960  0.0269 -0.2521  0.0696
49476W        W50340   6.287  28.443  17.459  0.2006  0.0660  0.3142
49477W        W50341   8.653  27.589  15.154 -0.0312 -0.3956 -0.0855
49478W        W50342   7.503  25.190  13.959 -0.0849 -0.0174  0.1329
49479W        W50343   3.733  27.555  13.049 -0.1312  0.1111 -0.0037
49480W        W50344   6.177  26.046  11.204  0.1021 -0.1391  0.0329
49481W        W50345   7.485  25.545  14.966 -0.0421 -0.0000  0.1080
49482W        W50346   8.556   0.252  11.066 -0.2489 -0.1087  0.2070
49483W        W50347   2.193   0.946  13.252 -0.1113 -0.0981  0.1215
49484W        W50348   6.147  25.737   9.402  0.2781 -0.0836 -0.2168
49485W        W50349  10.088  28.092  11.757 -0.1585  0.0560  0.2668
49486W        W50350   9.492  26.573  14.649  0.0886  0.0079 -0.0483
49487W        W50351   5.240  27.463  13.590 -0.3286  0.1748  0.0265
49488W        W50352   6.144  26.851   9.258 -0.0811 -0.0034 -0.1291
49489W        W50353   7.876  27.331  15.731  0.3323  0.0148 -0.0014
49490W        W50354   5.814  26.194  12.266  0.0006 -0.0698  0.0652
49491W        W50355   3.486  26.345  11.561  0.1752 -0.1276  0.3067
49492W        W50356   3.819  28.264  12.324 -0.0052 -0.0538 -0.0382
49493W        W50357   8.209  27.578  11.774  0.1914  0.2839  0.0414
49494W        W50358   6.771  24.768  12.957  0.1054  0.0770  0.0012
49495W        W50359   7.791  27.157  13.602 -0.1157  0.1924 -0.1465
49496W        W50360   8.841  28.168  11.571 -0.1004 -0.0540  0.0199
49497W        W50361   3.430  27.287  15.172  0.0432  0.3106 -0.2703
49498W        W50362   8.294  23.316  13.660 -0.0307  0.1239  0.0877
49499W        W50363   4.079  25.255  14.748  0.1910 -0.0439  0.1789
49500W        W50364   7.127  27.783  12.291 -0.0786 -0.0723 -0.0105
49501W        W50365   8.788  27.685  11.195 -0.0465  0.0169 -0.1097
49502W        W50366   7.677  24.408  12.866 -0.0923  0.1969 -0.1375
49503W        W50367   7.934  29.019  13.355 -0.2090  0.1993 -0.0103
49504W        W50368   5.311  26.164  11.991 -0.1416 -0.0606  0.0016
49505W        W50369   5.795  29.082  16.358 -0.1655 -0.2148 -0.1528
49506W        W50370   6.710  26.774  11.872  0.0153 -0.1335  0.2431
49507W        W50371   8.087  25.234  13.730  0.0763  0.0124  0.0078
49508W        W50372   5.494  27.747  10.226  0.0700  0.1108 -0.1407
49509W        W50373   7.255  27.887  13.313 -0.1438 -0.0562  0.1213
49510W        W50374   8.077   0.477  15.615  0.1563  0.3029  0.1483
49511W        W50375   4.297  28.155  12.057  0.0779 -0.2765 -0.0151
49512W        W50376   7.779  29.039  12.847  0.1203 -0.1045 -0.0389
49513W        W50377   5.601  25.906  12.958  0.2417 -0.0178  0.0404
49514W        W50378   4.823  27.650  14.535  0.0750 -0.0941 -0.4646
49515W        W50379   9.027  26.051  14.339 -0.2252  0.0909  0.2490
49516W        W50380   7.585  27.430  16.287 -0.0488 -0.2614  0.0353
49517W        W50381   2.237  25.652  15.032  0.2468 -0.1414  0.2260
49518W        W50382   5.702  26.359  12.770  0.3970 -0.0045  0.1211
49519W        W50383   5.480  28.044  14.832  0.0102  0.1346  0.2529
49520W        W50384   7.686  29.067  13.847 -0.2947 -0.0645  0.0250
49521W        W50385   4.929  28.932  11.128  0.1488  0.0534  0.1245
49522W        W50386   2.035  25.465  13.880 -0.1063 -0.2745  0.3997
49523W        W50387   5.820  25.146  14.824 -0.1350  0.0500  0.2126
49524W        W50388   3.254   1.149  12.133  0.1764  0.0504  0.0296
49525W        W50389   3.786  29.083  14.158 -0.2120  0.0959  0.2037
49526W        W50390   5.273  26.771  11.124 -0.0674  0.1096 -0.2999
49527W        W50391   5.205  25.415  11.187 -0.1303 -0.4151 -0.0245
49528W        W50392   5.964  24.391  14.006  0.3662  0.2281 -0.1807
49529W        W50393   8.541   1.313  10.548  0.0522 -0.1382  0.2806
49530W        W50394   7.584  28.259  14.010  0.0371  0.1684  0.1818
49531W        W50395   4.297  28.295  14.274 -0.3489 -0.2666  0.3278
49532W        W50396   9.699   1.078  14.855 -0.0854 -0.1597  0.0548
49533W        W50397   3.296  25.863  12.421 -0.0678  0.2070  0.2589
49534W        W50398   5.859  26.815  14.046  0.0758  0.2262 -0.1238
49535W        W50399   4.844  26.024  13.688  0.0135  0.2652  0.2236
49536W        W50400   5.201  28.550  14.736  0.1727  0.3122 -0.0258
49537W        W50401   5.795  25.221  11.169  0.1384  0.1211 -0.4747
49538W        W50402   4.122  29.030  10.683  0.3345 -0.1371 -0.1129
49539W        W50403   4.520   0.011  11.989  0.0937  0.1174  0.1693
49540W        W50404   2.340  27.404  13.381  0.0003  0.0017 -0.2108
49541W        W50405   6.997  25.438  11.508 -0.2093 -0.0201 -0.1380
49542W        W50406   6.372  27.693  13.670  0.1090 -0.0997  0.0455
49543W        W50407   6.275  26.439  13.602  0.1515  0.0887  0.0213
49544W        W50408   6.029  27.359  13.387  0.1453 -0.2270 -0.1412
49545W        W50409   7.571  28.586  12.712 -0.0204 -0.0556  0.0291
49546W        W50410   3.887  27.604  12.436 -0.0534  0.1332  0.0554
49547W        W50411   3.729  27.106  13.340 -0.0057 -0.3789  0.2237
49548W        W50412   2.780  26.542  14.010 -0.0972  0.0956  0.2393
49549W        W50413   3.845   0.099  13.721 -0.1759  0.0056 -0.0479
49550W        W50414   6.501  25.139  13.856  0.2456  0.2148 -0.1151
49551W        W50415   4.850  28.912  12.329 -0.1231  0.0102 -0.1568
49552W        W50416   6.238  26.607  11.937 -0.0793 -0.1104 -0.2480
49553W        W50417   8.347  25.528  14.281  0.0178  0.0607  0.1255
49554W        W50418   4.663  28.109  12.771  0.0829  0.1913  0.1563
49555W        W50419   8.362  28.413  11.627 -0.0306  0.1086  0.0640
49556W        W50420   6.714  25.725  12.000 -0.0747 -0.1274 -0.0620
49557W        W50421   7.861  27.717  11.208 -0.1531  0.3368  0.0523
49558W        W50422   6.373  26.688  14.014  0.3860 -0.2266  0.0062
49559W        W50423   3.381  27.952  13.116 -0.0802 -0.2539 -0.2047
49560W        W50424   1.223   4.805  12.507 -0.1288 -0.0807  0.1586
49561W        W50425   5.533  26.569  10.309 -0.3490  0.0766 -0.1047
49562W        W50426   5.890  28.838  11.561  0.2415  0.1771 -0.1617
49563W        W50427   6.220  27.339  10.396 -0.0099  0.1228  0.3433
49564W        W50428   5.249  28.347  10.853  0.0521 -0.2102 -0.0891
49565W        W50429   5.843  26.537  10.783 -0.0487 -0.0186  0.0820
49566W        W50430   6.197  25.862  11.983  0.0423  0.0112 -0.0831
49567W        W50431   5.107  27.614  13.130  0.1792 -0.2730  0.1702
49568W        W50432   6.355  25.160   9.692  0.2438 -0.1916 -0.2269
49569W        W50433   4.313  27.849  13.651  0.0779  0.0443 -0.1537
49570W        W50434   7.914  28.586  11.461  0.0282  0.4081 -0.0956
49571W        W50435   2.341  26.915  13.473 -0.2274 -0.2679  0.0105
49572W        W50436   3.950   0.048  11.106  0.1767 -0.0760  0.0559
49573W        W50437   3.930  27.944  13.229  0.0499  0.2692  0.2292
49574W        W50438   2.206  26.686  15.441 -0.1684 -0.0587 -0.2998
49575W        W50439   3.491  25.964  16.932 -0.2411 -0.1142  0.1290
49576W        W50440   5.426  26.621  13.965 -0.0235  0.1333 -0.1775
49577W        W50441   5.681  25.083  12.218 -0.4633  0.2125 -0.0976
49578W        W50442   7.261  25.073  13.480  0.0077  0.4778  0.0313
49579W        W50443   5.012  28.186   9.294  0.0593  0.1711 -0.0522
49580W        W50444   4.332  27.124  12.917  0.1373  0.2087  0.2208
49581W        W50445   6.488  24.311  13.293 -0.0234 -0.3121  0.2047
49582W        W50446   5.776  25.959  11.744  0.0608  0.1396 -0.2033
49583W        W50447   6.588  26.294  13.221  0.0992  0.0426  0.0079
49584W        W50448   7.997  25.317  12.651  0.1239  0.0607  0.4968
49585W        W50449   3.431  27.020  11.743  0.0372  0.1152 -0.1961
49586W        W50450   6.991  28.246  15.064  0.0630  0.0167 -0.0198
49587W        W50451   5.567  27.819  11.660 -0.1009  0.0128 -0.0569
49588W        W50452   2.746  25.637  12.000 -0.0672 -0.0032 -0.0830
49589W        W50453   7.933  28.030  11.607  0.2232  0.0728  0.4374
49590W        W50454   6.821  27.008  13.909 -0.0082  0.3278  0.1054
49591W        W50455   4.677  26.284  10.076  0.1235  0.1258 -0.0008
49592W        W50456   5.335  28.322  14.299 -0.0790  0.0418  0.2840
49593W        W50457   3.775  25.096  15.259  0.0006  0.3769 -0.1934
49594W        W50458   5.919  26.362  15.067 -0.0728  0.1747 -0.0607
49595W        W50459   5.792  25.385  14.239 -0.1756  0.1029 -0.1476
49596W        W50460   5.252  25.903  13.311  0.2182 -0.4132  0.1361
49597W        W50461   7.456  27.696   8.523  0.2366 -0.1992 -0.1933
49598W        W50462   4.876  27.002  11.969  0.0299 -0.2151 -0.0819
49599W        W50463   8.163   0.562  11.096  0.0183 -0.1737  0.1233
49600W        W50464   5.175  25.091  13.669  0.2463 -0.2010  0.0538
49601W        W50465   4.216  29.026  14.907  0.0910 -0.3123  0.1245
49602W        W50466   6.429  25.130  16.089  0.1435 -0.0198  0.0624
49603W        W50467   6.640  26.503  12.693  0.1442 -0.1625  0.1110
49604W        W50468   8.632  28.250  12.613  0.0490 -0.3126  0.1285
49605W        W50469   5.965  25.492  15.206 -0.0748 -0.2086  0.0613
49606W        W50470   6.094  25.806   8.217  0.0375 -0.2863  0.2022
49607W        W50471   6.520  25.984  14.621 -0.0152  0.2348  0.0082
49608W        W50472   5.731  28.144  12.965 -0.1096  0.0283 -0.0823
49609W        W50473   4.849  24.486  14.833 -0.2278 -0.0147 -0.1930
49610W        W50474   3.571  28.865  12.061 -0.0392  0.5117 -0.1323
49611W        W50475   6.519  25.370  11.613  0.2461 -0.0263 -0.1585
49612W        W50476   6.400  28.446  15.151 -0.2893 -0.0665 -0.2767
49613W        W50477   6.411  25.571  15.940 -0.2144  0.0694 -0.2192
49614W        W50478   2.117  26.479   9.751 -0.0448 -0.0642  0.2346
49615W        W50479   7.210  26.814  12.027 -0.0251 -0.1758 -0.2146
49616W        W50480   4.424  26.459  13.043  0.0518 -0.1344  0.0426
49617W        W50481   6.716  26.331  10.496 -0.0978  0.0150  0.2772
49618W        W50482   6.915  26.630  14.850 -0.1146  0.2719 -0.1218
49619W        W50483   4.491  27.229  11.784  0.2102  0.0868 -0.4948
49620W        W50484   7.336   1.383  16.556  0.0804  0.3100 -0.0748
49621W        W50485   7.553  26.015  12.209  0.2476 -0.2087  0.1242
49622W        W50486   6.792   0.997  12.825  0.0910 -0.1655 -0.3246
49623W        W50487   2.250   0.090  16.235  0.1311 -0.1309  0.2777
49624W        W50488   4.025  25.698  15.337 -0.3491  0.1869 -0.1645
49625W        W50489   3.468  25.206  13.739  0.0681  0.1303 -0.4029
49626W        W50490   7.683  28.023  13.604  0.1361 -0.1300 -0.3168
49627W        W50491   6.176  27.707  12.319 -0.1248  0.0906  0.3134
49628W        W50492   7.784  26.688  15.112  0.0972 -0.1532  0.0419
49629W        W50493   5.746  26.407  13.668  0.2131 -0.0696  0.0745
49630W        W50494   6.528  29.137  12.338 -0.3775  0.1881 -0.1113
49631W        W50495   5.244  25.234  11.864  0.0615 -0.1069 -0.1830
49632W        W50496   3.831  27.125  12.787  0.2269  0.3270 -0.4718
49633W        W50497   7.173   0.782  14.792 -0.0467  0.0917  0.3284
49634W        W50498   5.775  27.935  14.284  0.0073  0.0105  0.1989
49635W        W50499   6.387   1.272  15.257  0.3344  0.0303 -0.0196
49636W        W50500   2.543  28.227  10.294 -0.1224 -0.0316 -0.0093
49637W        W50501   7.952   1.714   9.726 -0.2457  0.0010  0.1647
49638W        W50502   6.046  26.264  14.060 -0.3334  0.0563  0.4238
49639W        W50503   5.585  26.285  14.262  0.0682  0.1428 -0.0045
49640W        W50504   8.749  28.321  12.144  0.1974  0.3320 -0.1737
49641W        W50505   7.725  26.229  11.514  0.0363 -0.0288  0.0623
49642W        W50506   5.269  25.380  12.434 -0.0265  0.3871 -0.0311
49643W        W50507   6.623  27.390  12.476  0.1069 -0.0135 -0.2589
49644W        W50508   7.414  26.819  14.353 -0.1430  0.2428  0.0285
49645W        W50509   7.882  24.697  15.995  0.4008 -0.1369  0.0854
49646W        W50510   7.373  26.467  12.454 -0.1549 -0.0510 -0.2269
49647W        W50511   5.089  26.356  15.104  0.0723  0.0373 -0.0713
49648W        W50512   4.277   0.600   9.487 -0.0064 -0.2391  0.2877
49649W        W50513   7.548  27.035   9.657  0.3687  0.4236 -0.0101
49650W        W50514   5.428  25.231  14.540 -0.1566  0.0037  0.3000
49651W        W50515   7.892  24.442  13.398  0.1245 -0.0636 -0.2762
49652W        W50516   8.014   1.090  11.974  0.2089 -0.3460 -0.0313
49653W        W50517   6.606  25.944  12.533  0.0940 -0.0748 -0.2496
49654W        W50518   5.468  28.144  13.877  0.0659  0.2588  0.0668
49655W        W50519   4.832  26.209  13.141  0.0146  0.1216  0.2690
49656W        W50520   7.121  28.396  14.551  0.2025  0.1951 -0.2529
49657W        W50521   4.393  25.916  15.677 -0.1258 -0.0394 -0.1169
49658W        W50522   3.776  26.095  13.462 -0.0478 -0.0201 -0.2140
49659W        W50523   3.939  25.312  13.877 -0.0726  0.4465 -0.2866
49660W        W50524   5.206  27.302  10.260  0.1009  0.0864  0.2254
49661W        W50525   0.058  26.756  13.804  0.2779 -0.0380  0.0068
49662W        W50526   4.066  28.805  13.644 -0.4235 -0.2304  0.0526
49663W        W50527   9.322  24.776  11.738 -0.1772  0.0135 -0.1594
49664W        W50528   3.478  26.061  12.853 -0.3626  0.0909  0.0207
49665W        W50529   2.917  29.133  14.947 -0.0076 -0.0029  0.0605
49666W        W50530   8.609  26.760  11.333 -0.0877 -0.0672  0.2168
49667W        W50531   7.916  25.571  15.164  0.1120  0.2490 -0.3438
49668W        W50532   7.193  26.247  11.870 -0.2369  0.2094 -0.0682
49669W        W50533   3.325  26.376  15.096 -0.0190 -0.2075  0.0984
49670W        W50534   8.502  23.776  10.394 -0.0159 -0.0346  0.2073
49671W        W50535   8.225   0.299  11.578 -0.1198  0.1099 -0.0446
49672W        W50536   5.064  27.034  12.453 -0.1784 -0.2490 -0.0919
49673W        W50537   9.437  26.226  10.966  0.3038  0.3278  0.0138
49674W        W50538   6.476  25.446  13.475  0.0176 -0.0670  0.1880
49675W        W50539   4.181  24.966  12.663 -0.0077 -0.0364 -0.0395
49676W        W50540   6.196  28.056  12.696 -0.1562 -0.0689  0.1225
49677W        W50541   4.375  25.019  12.149  0.0890 -0.2783  0.1634
49678W        W50542   6.811  26.584  11.009  0.0070 -0.2658 -0.0142
49679W        W50543   7.858  25.685  13.921 -0.3783  0.3772 -0.2668
49680W        W50544   4.674  26.783  12.773 -0.2485  0.0679 -0.2078
49681W        W50545   1.388  27.650  13.700  0.0502  0.0011  0.3141
49682W        W50546   5.229   0.201  11.480  0.1126 -0.1623  0.2373
49683W        W50547   6.592  28.836  17.297 -0.0986  0.0205  0.1190
49684W        W50548   6.310  28.177  13.831  0.3028 -0.0837 -0.0708
49685W        W50549   8.927  23.874  12.145  0.0250  0.1657 -0.3065
49686W        W50550   6.211  27.000  10.916 -0.1594  0.0352 -0.2961
49687W        W50551   6.209  28.462  14.633  0.2733 -0.2914 -0.3177
49688W        W50552   6.855  28.218  16.289  0.2980  0.2179 -0.0795
49689W        W50553   7.439  25.624  13.564 -0.0585 -0.0242  0.1448
49690W        W50554   6.233  24.351  12.318  0.0149 -0.0860 -0.1262
49691W        W50555   4.990  28.102  14.825  0.1050  0.2524  0.2006
49692W        W50556   4.801  27.275   9.179 -0.3355  0.1668 -0.1072
49693W        W50557   4.530  26.316  15.329 -0.1528  0.0362 -0.1574
49694W        W50558   7.069  26.034  13.791 -0.2390 -0.2603 -0.0170
49695W        W50559   6.622  28.619  13.036  0.2217  0.1387  0.0815
49696W        W50560   3.934   2.451  14.188 -0.0992  0.0655  0.2455
49697W        W50561   5.715  28.637  12.072  0.1395  0.0839 -0.0817
49698W        W50562   6.848  27.612  11.498 -0.0937 -0.3491 -0.1609
49699W        W50563   6.297  27.990  10.039  0.4870  0.0519  0.0519
49700W        W50564  11.038  28.621  12.197  0.1174  0.1376  0.1877
49701W        W50565   3.745  27.957   9.263 -0.1800 -0.0807  0.2489
49702W        W50566   3.871  27.762  15.830 -0.1633  0.1003  0.0317
49703W        W50567  10.262   0.074  12.081 -0.1517  0.1853 -0.2153
49704W        W50568   5.924  28.508  14.214  0.1356 -0.0315 -0.2535
49705W        W50569   8.249  26.781  12.205  0.1018 -0.1975  0.1644
49706W        W50570   3.791  28.987   9.288 -0.0149  0.2365 -0.2370
49707W        W50571   2.518  28.793  14.818 -0.0179 -0.0601  0.4128
49708W        W50572   7.263  26.859  11.073 -0.1115  0.2969 -0.0598
49709W        W50573   3.989   1.034  12.872  0.0277 -0.0869  0.1862
49710W        W50574   7.780  27.192  13.070 -0.3049  0.3360  0.0181
49711W        W50575   3.718  25.330  10.404  0.0323  0.1563  0.0947
49712W        W50576   8.238  25.779  14.791 -0.2530  0.0157 -0.0025
49713W        W50577   9.074  25.564  11.997  0.4438  0.2450 -0.2336
49714W        W50578   7.547  26.546  13.921  0.2387  0.1374  0.1657
49715W        W50579   5.355  28.088  12.062 -0.1675  0.1122  0.0350
49716W        W50580   8.270  29.080  12.973 -0.0489  0.0784  0.0317
49717W        W50581   6.125  26.624  14.443  0.0050  0.0132 -0.0717
49718W        W50582   3.041   0.344  13.633 -0.0020 -0.1451 -0.0257
49719W        W50583   7.751  25.534  12.214  0.3071 -0.0430  0.0080
49720W        W50584   6.275  26.653  13.145 -0.0004 -0.2505 -0.1109
49721W        W50585   3.036  25.141  14.114 -0.0119  0.0461 -0.1288
49722W        W50586   5.023  28.483  11.249  0.2507  0.1318  0.0596
49723W        W50587   5.051  27.912  13.551 -0.0998 -0.0644 -0.2229
49724W        W50588   4.335  24.768  13.187  0.1232  0.0116  0.1272
49725W        W50589   3.773  28.459  10.180 -0.0754  0.3127  0.0342
49726W        W50590   6.290  28.788  11.957 -0.0557 -0.3103 -0.2064
49727W        W50591   3.256  27.015  13.504  0.2645 -0.2168  0.0486
49728W        W50592   3.357  28.696  12.538 -0.0358 -0.1169  0.1842
49729W        W50593   3.972  27.822  16.486 -0.1921  0.4612  0.1086
49730W        W50594   5.835  27.580  12.713  0.2787  0.2052 -0.2672
49731W        W50595   5.131  24.283  12.227 -0.0036  0.0894  0.0160
49732W        W50596   8.265  26.414  11.323 -0.1174  0.2590 -0.2030
49733W        W50597   5.520  27.317  11.685  0.0190 -0.1956  0.1444
49734W        W50598   5.988  27.897  11.318 -0.0069  0.1070  0.0143
49735W        W50599   6.942  27.238  12.053  0.2022 -0.2936  0.0640
49736W        W50600   5.581   0.612  11.621  0.0734 -0.1476  0.0797
49737W        W50601   5.906  26.216  13.244  0.0331  0.0816 -0.1370
49738W        W50602   5.313   1.982  10.785 -0.1901  0.0234  0.0898
49739W        W50603   3.147  22.421  13.146 -0.1629  0.1629 -0.2183
49740W        W50604   1.791  25.289  17.876 -0.1851 -0.1378 -0.3846
49741W        W50605   4.124  27.084  14.317 -0.2607  0.2429  0.0526
49742W        W50606   1.908   0.659  14.444 -0.3278  0.0579  0.1655
49743W        W50607   8.489  27.450  14.605 -0.2543  0.0322  0.0462
49744W        W50608   3.041  26.429  11.019 -0.1362 -0.0386 -0.0315
49745W        W50609   7.879  25.288  14.237 -0.0292 -0.0251  0.0531
49746W        W50610   6.563  28.363  12.623 -0.1197 -0.1017  0.1097
49747W        W50611   8.521   0.413  12.838  0.0120 -0.1666  0.0141
49748W        W50612   7.422   1.557  11.833 -0.1526  0.2478 -0.0865
49749W        W50613   5.522  26.562  12.372 -0.0850 -0.4303 -0.2918
49750W        W50614   8.510  24.063  13.958 -0.0290  0.1034  0.0913
49751W        W50615   6.120  24.902  12.028 -0.2142  0.0033  0.0661
49752W        W50616   5.332  27.271  11.220  0.0584  0.2112 -0.1805
49753W        W50617   8.014  25.452  13.214 -0.1988  0.0066  0.0102
49754W        W50618   7.898  28.826  12.346  0.0098 -0.0601  0.0442
49755W        W50619   6.149  28.754  16.030  0.0248  0.0097  0.1435
49756W        W50620   8.413  28.780  12.489  0.0357 -0.1747 -0.1533
49757W        W50621   4.130  24.330  15.165  0.4331  0.1169  0.1153
49758W        W50622   3.664  27.246  15.717  0.0950  0.0423 -0.0345
49759W        W50623   9.147  28.843  12.836 -0.1675 -0.1442  0.0863
49760W        W50624   6.335  26.896  11.440 -0.1072  0.1257 -0.0658
49761W        W50625   2.476  24.910  15.656  0.2287  0.1831  0.0561
49762W        W50626   6.223  25.855  13.650  0.1226 -0.2713 -0.2974
49763W        W50627   3.449  27.147  14.083  0.0047 -0.1094  0.2807
49764W        W50628   3.467  28.555  14.289  0.1114  0.0596  0.2513
49765W        W50629   6.159  27.610  14.243 -0.3284  0.0302  0.1038
49766W        W50630   6.933  28.145  11.285  0.1660  0.2545 -0.2043
49767W        W50631  10.252  24.601  14.321 -0.3402  0.0662 -0.0206
49768W        W50632   7.303  28.323  13.478  0.1854  0.0254 -0.0627
49769W        W50633   6.988  27.695  14.800 -0.1704 -0.2313 -0.1316
49770W        W50634   6.540   0.395  13.134 -0.0981 -0.3447  0.1536
49771W        W50635   8.885  27.883  12.854  0.0196  0.0155 -0.0202
49772W        W50636   6.072  28.104  10.861  0.1540  0.0880  0.1229
49773W        W50637   4.350  26.952  13.489 -0.1807  0.2991  0.1954
49774W        W50638   6.211  26.251  12.846  0.1558 -0.1312 -0.1550
49775W        W50639   5.947   1.564  13.260  0.2263 -0.2769  0.0257
49776W        W50640   7.318   0.573  11.423  0.2878 -0.0011  0.0115
49777W        W50641   4.605  26.462  13.496 -0.2371  0.1233  0.1938
49778W        W50642   6.919   0.208  10.755 -0.0506  0.1884 -0.1552
49779W        W50643   3.949  28.520  13.219 -0.0889 -0.2433 -0.0306
49780W        W50644   5.542   0.267   8.628 -0.1824 -0.2004 -0.1225
49781W        W50645   3.524  25.402  12.357 -0.0469 -0.1742  0.0735
49782W        W50646   5.758   0.505  16.358  0.0256  0.1453 -0.1541
49783W        W50647   4.800  27.921  16.273 -0.1039 -0.0664 -0.0383
49784W        W50648   6.862  25.900  14.287 -0.1183 -0.0426  0.1110
49785W        W50649   4.430   1.052  15.395 -0.0173  0.4097 -0.1522
49786W        W50650   3.312   0.352  14.058 -0.0200  0.0849  0.0151
49787W        W50651   2.904  27.185  15.209 -0.4319  0.0821  0.1989
49788W        W50652   4.586  27.173  15.330  0.1927 -0.0360 -0.3120
49789W        W50653   6.107  28.453  12.421  0.0450  0.3009 -0.0567
49790W        W50654   5.070  28.270  17.775  0.2030 -0.0468 -0.2859
49791W        W50655   5.718  26.016  17.569 -0.0633  0.1271 -0.0960
49792W        W50656   3.979  27.242  18.292  0.1911  0.1332  0.1601
49793W        W50657   5.391  26.871  14.441  0.1330  0.2774  0.0742
49794W        W50658   6.867  28.053  16.795 -0.1957 -0.1705  0.1642
49795W        W50659   6.065  26.454  18.331  0.2602 -0.0091  0.0245
49796W        W50660   4.437  24.951  15.671 -0.0998 -0.1195  0.1608
49797W        W50661   2.151  28.770  18.423  0.0021 -0.0689 -0.1631
49798W        W50662   3.321  27.240  14.626 -0.2709 -0.0950  0.1218
49799W        W50663   4.775  25.866  19.071  0.1375 -0.1194 -0.0155
49800W        W50664   5.677  28.606  18.960 -0.0207  0.1849 -0.4993
49801W        W50665   6.353   0.066  16.916 -0.1015 -0.2078 -0.1863
49802W        W50666   3.727  26.809  15.851 -0.0975  0.2542 -0.1041
49803W        W50667   5.364  27.014  17.382 -0.2306 -0.1824  0.1656
49804W        W50668   4.902  28.856  16.121 -0.1576 -0.0163 -0.2957
49805W        W50669   4.512  29.071  17.615  0.0521  0.1150 -0.4673
49806W        W50670   3.575  27.859  13.566 -0.0010 -0.2288  0.0605
49807W        W50671   3.802  27.000  17.486 -0.0340  0.1621 -0.3377
49808W        W50672   6.932  27.005  18.474  0.0358 -0.1910  0.0281
49809W        W50673   5.944   1.498  15.000  0.3155  0.1102 -0.1418
49810W        W50674   3.320  28.363  14.731 -0.3293  0.0619  0.0472
49811W        W50675   4.745  24.700  20.022  0.2097 -0.1170  0.0963
49812W        W50676   5.592  26.812  13.024  0.0629 -0.0571 -0.2598
49813W        W50677   5.258  28.099  18.204  0.0107  0.0394 -0.2890
49814W        W50678   4.037  28.180  18.131  0.0789 -0.2308 -0.2803
49815W        W50679   4.760  27.793  17.740 -0.0205  0.0378 -0.0221
49816W        W50680   6.972  27.610  18.345 -0.4061 -0.1809  0.3141
49817W        W50681   8.122  28.391  20.310 -0.2969  0.1012  0.4968
49818W        W50682   5.002  22.201  15.063  0.1509  0.1257  0.2152
49819W        W50683   5.477  26.822  17.943 -0.0358 -0.3130 -0.2920
49820W        W50684   7.912  26.606  17.388  0.0772 -0.3134 -0.0769
49821W        W50685   4.303  26.578  19.522  0.0670 -0.1652  0.1337
49822W        W50686   6.957  24.258  13.133 -0.0521 -0.1381  0.1730
49823W        W50687   6.919  24.436  16.868 -0.4474  0.0687 -0.2342
49824W        W50688   4.481   1.557  16.098  0.2396  0.0308 -0.2470
49825W        W50689   7.129   0.562  13.946  0.3680 -0.0751  0.2240
49826W        W50690   5.290  27.084  13.953 -0.3992 -0.0801  0.2783
49827W        W50691   4.285   0.577  15.495 -0.0995 -0.0346  0.0465
49828W        W50692   4.307  23.697  18.756 -0.0128 -0.3687  0.2821
49829W        W50693   7.124  27.721  16.463  0.1272  0.0239 -0.0018
49830W        W50694   6.091  24.907  16.373  0.1137 -0.1197 -0.0759
49831W        W50695   5.174  27.089  12.913 -0.0406 -0.0483  0.1246
49832W        W50696   2.527  27.600  15.234 -0.0587  0.1209 -0.2356
49833W        W50697   4.480  26.735  15.590 -0.1944 -0.0829 -0.1819
49834W        W50698   7.415  27.093  17.149 -0.0418  0.1915 -0.0076
49835W        W50699   7.008   0.232  15.586 -0.0643  0.2417 -0.2174
49836W        W50700   5.318  26.538  16.058  0.0903 -0.0078 -0.1311
49837W        W50701   3.094  28.818  14.655 -0.1850 -0.3853  0.3534
49838W        W50702   3.519  26.843  16.797  0.1338 -0.1344  0.2577
49839W        W50703   5.396  26.328  15.500 -0.1292  0.0810 -0.1961
49840W        W50704   4.292   0.099  16.667 -0.0318 -0.0719  0.0891
49841W        W50705   4.370  25.470  16.035 -0.0943 -0.0218  0.0663
49842W        W50706   5.315   0.990  17.070 -0.0639 -0.3575  0.0990
49843W        W50707   5.114  26.460  18.172  0.3999  0.0727  0.3027
49844W        W50708   5.840  27.393  15.066 -0.2767 -0.0562 -0.1289
49845W        W50709   3.510  28.753  13.814 -0.0846  0.0958 -0.0397
49846W        W50710   7.189  26.101  16.063  0.1726  0.2436  0.0318
49847W        W50711   5.143  26.610  12.721 -0.2429 -0.0738 -0.1195
49848W        W50712   2.511  26.113  16.726 -0.0976  0.1329  0.0696
49849W        W50713   4.221  25.976  18.953  0.0241 -0.0913 -0.2229
49850W        W50714   6.696  27.435  17.371  0.0510 -0.1849 -0.5427
49851W        W50715   9.439  26.465  18.119  0.0155  0.1693 -0.0329
49852W        W50716   4.182  26.042  14.359 -0.3045 -0.1217  0.1907
49853W        W50717   9.132   0.571  15.724  0.1570 -0.0565 -0.0334
49854W        W50718   8.469  27.704  18.062  0.2714 -0.4656  0.0378
49855W        W50719   7.959  25.901  17.648 -0.1937 -0.0059  0.1572
49856W        W50720   6.448  28.479  20.922  0.0312 -0.1075  0.1511
49857W        W50721   4.813  28.717  17.063  0.1983  0.1165 -0.4177
49858W        W50722   2.450  27.145  15.417  0.1874 -0.1262 -0.3447
49859W        W50723   4.175  27.475  13.281  0.0699  0.0381  0.2622
49860W        W50724   6.400  26.359  14.925 -0.3504  0.3689  0.1964
49861W        W50725   4.815  27.116  17.384 -0.2576  0.0689  0.3501
49862W        W50726   5.166  28.647  17.421  0.0919 -0.1200 -0.1381
49863W        W50727   3.243  24.115  14.948 -0.0423 -0.1309 -0.1516
49864W        W50728   5.636  24.371  15.301 -0.1040 -0.0301 -0.1499
49865W        W50729   6.128  28.358  16.410 -0.0980  0.0365  0.1358
49866W        W50730   5.981  24.143  15.009 -0.2565 -0.0181 -0.6325
49867W        W50731   4.795  28.993  15.539 -0.1528 -0.1153 -0.1843
49868W        W50732   5.148  25.221  18.816 -0.0962 -0.0384 -0.0480
49869W        W50733   4.209   0.348  17.671 -0.1102  0.0600 -0.2662
49870W        W50734   6.453  26.774  16.653 -0.0952 -0.2346 -0.0911
49871W        W50735   6.269  27.131  16.246  0.4136 -0.1444  0.0111
49872W        W50736   8.154  27.673  20.781 -0.0201 -0.0946  0.0987
49873W        W50737   3.798  28.124  14.390 -0.1234  0.2888  0.0899
49874W        W50738   3.094  26.206  16.648 -0.1940 -0.0984  0.0324
49875W        W50739   4.536  28.331  16.879  0.0724  0.1164  0.1253
49876W        W50740   6.975  24.617  15.054  0.0905 -0.4238 -0.0215
49877W        W50741   5.163  27.620  14.948 -0.2968  0.1897  0.3135
49878W        W50742   6.101  29.097  17.382 -0.1372 -0.1279 -0.1934
49879W        W50743   4.055  26.852  17.988 -0.0106 -0.0867  0.1667
49880W        W50744   5.429  25.433  15.076  0.0646 -0.0895 -0.0646
49881W        W50745   5.775  26.031  15.430  0.1078  0.0952 -0.1794
49882W        W50746   3.227  28.007  14.345  0.0229 -0.2701  0.0139
49883W        W50747   4.636  26.669  14.957  0.1533 -0.0058 -0.2303
49884W        W50748   5.650   0.904  16.623  0.0700  0.1711 -0.0525
49885W        W50749   6.425  27.550  17.803  0.1913 -0.2929  0.0374
49886W        W50750   6.181  28.169  16.842  0.1775  0.1187 -0.1198
49887W        W50751   4.227  28.594  16.309  0.0859 -0.0252 -0.0787
49888W        W50752   6.313  26.439  20.527 -0.0417  0.0273 -0.0332
49889W        W50753   5.740  25.697  14.644 -0.1484  0.0159 -0.2721
49890W        W50754   5.358  27.480  17.149  0.1063 -0.0225 -0.1044
49891W        W50755   4.311  27.541  18.548 -0.2132 -0.0795 -0.0913
49892W        W50756   9.791  26.752  19.320 -0.0776 -0.0055 -0.0156
49893W        W50757   8.190  26.909  15.003 -0.0527  0.0236  0.0293
49894W        W50758   7.309  29.111  16.910  0.2031  0.1805  0.0488
49895W        W50759   5.974  27.781  15.567 -0.0233 -0.0182 -0.0565
49896W        W50760   3.590  26.301  15.910  0.1483  0.0159  0.0496
49897W        W50761   9.196  23.978  15.649 -0.3348  0.0906 -0.0906
49898W        W50762   6.659  27.059  17.019 -0.0272  0.2790 -0.0866
49899W        W50763   6.811  28.980  15.930  0.1181 -0.3272  0.1056
49900W        W50764   6.786  26.338  16.318  0.3955  0.2666 -0.0989
49901W        W50765   6.949  25.446  16.706 -0.1281 -0.1150  0.1637
49902W        W50766   5.544  26.730  15.188 -0.1061  0.0879  0.0471
49903W        W50767   8.088  27.278  17.766  0.4301  0.0863  0.1234
49904W        W50768   5.930  26.620  11.245  0.2152  0.0928 -0.2661
49905W        W50769   6.122  26.619  17.823 -0.1111  0.0101 -0.2940
49906W        W50770   7.861  27.113  16.631  0.1625 -0.3407  0.2182
49907W        W50771   4.770  26.534  16.745  0.3278  0.0862  0.0218
49908W        W50772   7.550  28.104  18.733  0.0234  0.2338 -0.0138
49909W        W50773   8.969  29.147  20.076  0.0738 -0.0371  0.1150
49910W        W50774   4.639  27.626  19.878  0.2182  0.1398  0.1797
49911W        W50775   8.315   0.029  15.350  0.1694 -0.1060  0.1067
49912W        W50776   5.245  28.422  17.014 -0.1524  0.0828  0.0438
49913W        W50777   3.978   0.679  15.886 -0.1378 -0.0175  0.0057
49914W        W50778   7.466  26.249  17.466 -0.0374  0.2239 -0.0713
49915W        W50779   4.859  25.433  18.410 -0.2842 -0.0047  0.0019
49916W        W50780   4.434  25.917  18.094  0.2225  0.0422 -0.1324
49917W        W50781   6.944  25.977  18.289 -0.0968  0.1416  0.1428
49918W        W50782   8.508  24.924  18.330 -0.3097 -0.3799 -0.2476
49919W        W50783   5.131   0.216  15.664 -0.1290 -0.1816  0.1491
49920W        W50784   3.387  28.897  16.072 -0.2160 -0.0544 -0.0152
49921W        W50785   4.335  24.901  17.581 -0.1059  0.0956  0.1913
49922W        W50786   5.753  28.679  16.615 -0.0118 -0.2485 -0.2180
49923W        W50787   2.563  28.152  16.376  0.0749  0.1292  0.2110
49924W        W50788   5.978   0.230  15.969  0.0730 -0.0774 -0.0453
49925W        W50789   6.879  26.332  16.812 -0.2928 -0.0525 -0.0136
49926W        W50790   5.891  24.954  15.889  0.1514  0.4084  0.1881
49927W        W50791   4.715  27.787  15.237 -0.1806  0.1200  0.1603
49928W        W50792   4.596  27.904  14.113 -0.1159 -0.0405  0.2167
49929W        W50793   8.336  26.905  18.846  0.0781 -0.2133 -0.1198
49930W        W50794   4.368  27.784  18.068 -0.0260  0.0426 -0.2084
49931W        W50795   7.603   0.292  16.631  0.2145 -0.2708  0.0632
49932W        W50796   3.319  24.968  16.684 -0.1156  0.0339  0.0185
49933W        W50797   5.088  28.368  15.873  0.3824 -0.1790 -0.0955
49934W        W50798   5.043  28.388  12.606  0.0087 -0.1510  0.2247
49935W        W50799   6.903  26.800  16.431  0.0341  0.0528  0.1590
49936W        W50800   4.625  27.792  16.697  0.2341  0.0307 -0.0944
49937W        W50801   3.953  27.882  18.573  0.2077  0.1263  0.1427
49938W        W50802   5.405  28.657  15.604 -0.0535  0.0922  0.1848
49939W        W50803   4.889  24.702  15.830  0.0236  0.3199 -0.0837
49940W        W50804   2.586  28.472  14.092 -0.0212  0.0327  0.1764
49941W        W50805   4.926  25.477  15.202  0.0533  0.0861  0.0007
49942W        W50806   5.891  27.992  20.273 -0.5733  0.1527  0.0955
49943W        W50807   7.311   0.761  18.883 -0.2261  0.0195  0.1212
49944W        W50808   8.170  26.282  19.553 -0.0735 -0.2447 -0.0927
49945W        W50809   6.628  27.748  18.721 -0.1449  0.0016  0.0650
49946W        W50810   4.149  24.192  18.836  0.1777  0.0627 -0.0609
49947W        W50811   6.209  27.873  17.307 -0.0730 -0.1244  0.4010
49948W        W50812   4.185  26.418  17.647 -0.2177 -0.0120 -0.0742
49949W        W50813   4.786   0.067  18.092 -0.1262 -0.2444 -0.1865
49950W        W50814   7.652   0.200  14.288 -0.0404  0.4021 -0.2426
49951W        W50815   9.630  28.483  16.416  0.4304 -0.1607  0.2126
49952W        W50816   7.170  25.901  16.610  0.0020  0.0713  0.1426
49953W        W50817   6.596  26.668  15.270  0.3611  0.0232  0.0936
49954W        W50818   5.951  28.223  15.172  0.1945  0.1981  0.0589
49955W        W50819   5.405  27.053  12.067  0.1463  0.0442  0.0340
49956W        W50820   7.312  24.224  16.619  0.0633 -0.0059 -0.2642
49957W        W50821   1.493  27.502  16.208 -0.0027 -0.1692 -0.1645
49958W        W50822   4.307  26.494  16.583 -0.0725  0.0737 -0.0739
49959W        W50823   3.415  27.751  15.518 -0.0857  0.0355 -0.0611
49960W        W50824   4.623  27.463  15.747  0.0314  0.0661 -0.0756
49961W        W50825   7.257   0.626  15.299 -0.0878  0.1431  0.4278
49962W        W50826   6.502   0.581  16.863  0.0329  0.0306  0.1405
49963W        W50827   7.574   0.457  14.787  0.0310 -0.0802 -0.0508
49964W        W50828   4.446  28.713  18.248  0.4300  0.2202  0.1440
49965W        W50829   4.462  25.736  15.076 -0.0445 -0.0299 -0.0465
49966W        W50830   4.597  25.474  15.552  0.3192 -0.0284 -0.1591
49967W        W50831   6.200  24.772  14.525  0.2020  0.0524 -0.0765
49968W        W50832   3.544  24.179  16.698 -0.2213 -0.1714  0.2357
49969W        W50833   8.565   0.484  18.103  0.3679 -0.0137  0.0869
49970W        W50834   6.667   0.209  16.502  0.1427 -0.0079 -0.0722
49971W        W50835   3.468   0.022  14.694  0.1514 -0.1934  0.0236
49972W        W50836   6.133  27.322  14.669 -0.1036 -0.1129  0.1239
49973W        W50837   4.981  25.990  18.372  0.2318 -0.0892  0.3069
49974W        W50838   7.159  28.456  18.823  0.4555 -0.2481  0.0969
49975W        W50839   4.557  27.281  16.908 -0.3381 -0.0852 -0.2311
49976W        W50840   4.530  26.797  17.141  0.0834  0.2776  0.1188
49977W        W50841   6.269  25.145  15.053  0.3065  0.3233 -0.0514
49978W        W50842   1.194  24.149  19.156  0.0690 -0.0420  0.2169
49979W        W50843   4.804  28.422  16.378 -0.1247  0.0102  0.1677
49980W        W50844   3.875  27.498  17.336 -0.2511 -0.1793  0.0850
49981W        W50845   3.163  26.772  14.774 -0.0168  0.1057  0.2069
49982W        W50846   6.942  27.334  15.424  0.1527 -0.0832 -0.1031
49983W        W50847   8.188  26.436  15.174 -0.3234  0.0123  0.3196
49984W        W50848   7.589  24.732  14.749 -0.1060  0.0023 -0.1486
49985W        W50849   7.288   1.042  19.353  0.1031  0.2542  0.1897
49986W        W50850   5.898  26.827  16.595 -0.0945 -0.0959  0.0757
49987W        W50851   3.029  27.222  18.887 -0.0464 -0.0374  0.3013
49988W        W50852   5.379  25.926  15.077 -0.1131  0.0864 -0.0393
49989W        W50853   6.531  27.684  14.574 -0.0636 -0.2855 -0.1060
49990W        W50854   4.328  27.059  14.786 -0.2492  0.0236 -0.1689
49991W        W50855   4.809  27.812  18.365  0.0225 -0.0536  0.0803
49992W        W50856   4.639  26.364  18.933 -0.1176 -0.0159 -0.1013
49993W        W50857   4.901  27.746  17.104  0.2357  0.1083  0.1078
49994W        W50858   6.771  25.502  17.665  0.1483 -0.2444 -0.2168
49995W        W50859   9.114  26.100  16.325  0.2440 -0.1365  0.0588
49996W        W50860   5.849   0.006  14.506 -0.2474 -0.1168 -0.0537
49997W        W50861   5.594  27.589  14.687 -0.0776 -0.1755 -0.0211
49998W        W50862   5.645   0.893  14.251 -0.0973  0.2789  0.1232
49999W        W50863   4.282  25.608  17.755  0.2439  0.1680 -0.0740
50000W        W50864   2.637  29.091  18.613 -0.0597 -0.2534  0.2250
50001W        W50865   8.759  27.815  18.915 -0.3339 -0.0345  0.0013
50002W        W50866   5.626  25.282  13.815 -0.2045 -0.1139  0.2424
50003W        W50867   8.083  28.585  17.778  0.3201 -0.1934 -0.0470
50004W        W50868   5.194  25.577  16.043 -0.3480 -0.1230 -0.0756
50005W        W50869   8.112  28.661  12.817 -0.0874 -0.0660 -0.1066
50006W        W50870   6.755  28.844  16.384  0.1071  0.2818 -0.2221
50007W        W50871   5.197  27.733  19.140  0.0235  0.0084 -0.0058
50008W        W50872   9.351  28.505  15.548 -0.0314 -0.1267 -0.2450
50009W        W50873   7.467   0.091  15.170 -0.1179 -0.0322  0.2392
50010W        W50874   6.229  28.178  15.696 -0.1741  0.0579  0.0060
50011W        W50875   4.444  27.962  17.287  0.1910 -0.0027  0.0762
50012W        W50876   6.993  29.138  19.479 -0.2849  0.2051 -0.0876
50013W        W50877   4.755  28.536  15.284  0.2001  0.1898  0.0106
50014W        W50878   7.288   1.306  17.083  0.2596  0.1030 -0.0214
50015W        W50879   3.686  23.939  18.725 -0.0630  0.2213  0.1162
50016W        W50880   4.191  27.121  15.720  0.0019 -0.0007  0.0813
50017W        W50881   7.183  25.298  17.345 -0.2724  0.1075 -0.1260
50018W        W50882   3.738  26.432  17.896  0.0313  0.2164  0.0786
50019W        W50883   5.638  26.746  15.739 -0.0612  0.3919  0.0254
50020W        W50884   6.695  28.459  13.535 -0.1714  0.1974 -0.1025
50021W        W50885   6.971  29.014  15.256  0.3380  0.0300  0.0865
50022W        W50886   4.483  24.566  17.919 -0.2882 -0.0506 -0.1465
50023W        W50887   5.103  26.262  18.787  0.0170  0.0343  0.0991
50024W        W50888   5.674  22.949  15.868  0.0221 -0.1189 -0.1916
50025W        W50889   3.501  27.400  18.571  0.0224 -0.2106 -0.3302
50026W        W50890   6.138  28.740  13.604 -0.0869  0.0316 -0.0053
50027W        W50891   7.948  24.178  19.381 -0.0691  0.1539  0.2071
50028W        W50892   5.615  28.893  18.407  0.2214  0.0952 -0.0349
50029W        W50893   4.218  29.130  13.966  0.1448  0.0132  0.1235
50030W        W50894   4.010  24.262  15.671 -0.0926 -0.1486  0.1294
50031W        W50895   5.394  28.322  13.367 -0.0751  0.1640  0.0329
50032W        W50896   2.629   0.813  15.618 -0.0469 -0.3104 -0.0254
50033W        W50897   5.634   0.995  15.619 -0.1255 -0.1220 -0.1500
50034W        W50898   4.467  25.211  14.237 -0.1086  0.2841  0.1555
50035W        W50899   6.490   2.536  12.445 -0.2279 -0.2923  0.0614
50036W        W50900   7.898   4.113  16.779 -0.1514  0.1424  0.1337
50037W        W50901   6.550  25.628  13.932  0.2140  0.0094 -0.1864
50038W        W50902   4.620  25.107  18.032 -0.0649 -0.1277 -0.1309
50039W        W50903   7.094  28.622  16.068 -0.1731  0.0141 -0.1525
50040W        W50904   7.325  24.963  15.917 -0.0234 -0.2858  0.2664
50041W        W50905   4.234  25.935  12.458 -0.2396 -0.0860  0.1002
50042W        W50906   4.448  28.560  18.880  0.0112 -0.1836  0.0743
50043W        W50907   3.799   1.185  14.940 -0.2622  0.3755  0.3736
50044W        W50908   5.101  26.870  15.698  0.1002 -0.1438 -0.1193
50045W        W50909   2.743  28.538  15.532 -0.1174 -0.0230 -0.1079
50046W        W50910   3.033  29.116  18.049 -0.2717 -0.5213  0.2006
50047W        W50911   5.176  28.990  13.806 -0.0841  0.0323  0.0775
50048W        W50912   5.927   0.872  13.246 -0.2249  0.1608  0.2868
50049W        W50913   4.876  28.349  18.496 -0.3532  0.1043 -0.1767
50050W        W50914  10.864  28.483  15.298  0.3196 -0.0223  0.1758
50051W        W50915   4.685  27.386  16.312  0.0987 -0.1880 -0.2550
50052W        W50916   7.145  28.128  19.274 -0.0393  0.0896 -0.1476
50053W        W50917   8.872  27.932  16.993 -0.0048  0.1584 -0.0626
50054W        W50918   5.931  27.672  16.925  0.3254 -0.1907  0.1664
50055W        W50919   3.379   1.259  17.259  0.2224  0.1980  0.2333
50056W        W50920   6.681  25.870  16.747  0.0754  0.2628  0.2449
50057W        W50921   3.581  22.890  18.307  0.1150 -0.2400  0.1220
50058W        W50922   6.251  27.329  15.392 -0.0027  0.0972  0.1136
50059W        W50923   6.109  25.393  13.868  0.1375 -0.0196  0.1753
50060W        W50924   5.250   0.639  16.379 -0.0825  0.1661  0.2607
50061W        W50925   4.757  25.829  16.044 -0.4102 -0.2216 -0.2562
50062W        W50926   4.700   1.336  15.040 -0.2384 -0.0455 -0.0143
50063W        W50927   4.364  28.962  12.435  0.0145  0.0734  0.1992
50064W        W50928   3.596  28.420  19.706 -0.2366  0.1665 -0.1436
50065W        W50929   6.139   0.263  15.006 -0.0863  0.1026  0.1508
50066W        W50930   8.215  25.984  19.076 -0.0289 -0.0727 -0.3107
50067W        W50931   4.035   0.739  17.274  0.0415  0.3077 -0.0236
50068W        W50932   5.586  27.341  17.965 -0.0901  0.1903 -0.1590
50069W        W50933   4.769  25.395  12.750 -0.2978 -0.0839 -0.1093
50070W        W50934   6.589  28.526  15.940  0.1516 -0.0043  0.0054
50071W        W50935   3.891  26.857  16.499  0.1222  0.0566 -0.2363
50072W        W50936   6.033  24.459  15.946  0.1139  0.2741 -0.0332
50073W        W50937   8.699   0.270  15.653  0.0057  0.0885 -0.0078
50074W        W50938   4.268  25.518  16.607 -0.1443 -0.2018  0.1700
50075W        W50939   5.306   0.081  16.502  0.0329 -0.0432  0.1767
50076W        W50940   6.126  25.773  13.044  0.1062  0.0575  0.2863
50077W        W50941   2.717  23.715  15.263  0.1223  0.0526 -0.0624
50078W        W50942   8.937  25.602  17.482  0.3209  0.1300 -0.0346
50079W        W50943   4.558  26.027  18.628  0.0203 -0.0739  0.0451
50080W        W50944   6.694  28.201  15.521  0.3236  0.2216 -0.0594
50081W        W50945   5.010  25.337  14.154 -0.2190  0.0640  0.4988
50082W        W50946   2.837  23.800  16.199  0.2994  0.3042  0.0539
50083W        W50947   3.976  28.836  18.943  0.0206  0.2193 -0.2783
50084W        W50948   8.146   0.179  18.936 -0.0393 -0.0853 -0.0472
50085W        W50949   7.787   0.009  14.754 -0.0282 -0.0438  0.0261
50086W        W50950   4.794   0.155  16.685  0.0017 -0.0728  0.1524
50087W        W50951   5.433   1.784  16.062  0.0050 -0.1511 -0.0619
50088W        W50952   6.987  23.875  16.308 -0.5746  0.0986  0.2861
50089W        W50953   4.205  27.676  16.903 -0.1377 -0.1283  0.2210
50090W        W50954   3.098  24.717  16.206  0.0153  0.1421  0.0856
50091W        W50955   6.195  25.741  14.226 -0.1940  0.3737  0.0382
50092W        W50956   4.224  26.787  16.133  0.1040  0.1496  0.0504
50093W        W50957   5.267  27.969  17.367 -0.4193  0.2113 -0.1080
50094W        W50958   4.851  25.969  14.895 -0.0014  0.1783 -0.0528
50095W        W50959   3.516   0.716  15.659 -0.1312  0.0390 -0.2941
50096W        W50960   4.580  28.178  19.269  0.2675 -0.1190 -0.0471
50097W        W50961   5.186  27.867  14.364  0.1394 -0.1128 -0.3781
50098W        W50962   5.510  26.396  14.787  0.1265  0.3436  0.0007
50099W        W50963   5.723  28.118  17.131 -0.0445  0.0962 -0.1926
50100W        W50964   4.821  28.244  17.354 -0.2413 -0.3329  0.2271
50101W        W50965   4.966   1.574  15.984 -0.0844 -0.1621 -0.1162
50102W        W50966   8.179   0.169  13.729 -0.1757 -0.3187 -0.2349
50103W        W50967   3.733   0.484  17.654 -0.0868  0.0099 -0.1169
50104W        W50968   8.706   0.302  18.969 -0.3583 -0.2019 -0.2684
50105W        W50969   4.071  26.472  13.617 -0.1870 -0.2713  0.1804
50106W        W50970   3.901   0.156  18.793 -0.2582 -0.0569  0.2014
50107W        W50971   5.451  25.158  16.039  0.0940  0.0309 -0.0842
50108W        W50972   6.142   0.028  15.546 -0.0127 -0.3295  0.1056
50109W        W50973   4.856  27.948  15.746  0.0301 -0.3296  0.1849
50110W        W50974   3.793  27.282  14.805 -0.0536  0.2274 -0.0699
50111W        W50975   5.685  28.850  17.429 -0.4572 -0.3055  0.0237
50112W        W50976   8.654  24.622  14.579 -0.1669 -0.1483 -0.2519
50113W        W50977   5.704   1.856  19.721 -0.1042 -0.0793  0.1563
50114W        W50978   4.411   0.347  17.160  0.0409 -0.0900 -0.4467
50115W        W50979   6.595  28.021  17.542 -0.2116  0.3494 -0.0694
50116W        W50980   4.877   2.448  15.988 -0.2111 -0.2024  0.1629
50117W        W50981   4.825  28.304  14.392  0.0594  0.2556  0.0112
50118W        W50982   4.767  26.308  15.798  0.1668 -0.0153 -0.0734
50119W        W50983   6.364  25.517  14.791  0.3259  0.1003  0.0206
50120W        W50984   5.986  25.876  16.256  0.2418  0.0990 -0.0951
50121W        W50985   5.409  28.822  16.264 -0.1214  0.3914  0.0426
50122W        W50986   5.030  25.714  16.491 -0.2806 -0.1944 -0.0651
50123W        W50987   6.028  27.827  18.440  0.1012 -0.2111 -0.0526
50124W        W50988   5.179  26.032  15.889  0.2422  0.0023  0.1491
50125W        W50989   7.285  28.855  16.466 -0.3053  0.4916 -0.0622
50126W        W50990   4.958  27.034  14.671  0.0737 -0.1880  0.1825
50127W        W50991   3.050  27.569  14.184 -0.1713  0.2132  0.2433
50128W        W50992   5.080  26.612  19.131 -0.0305  0.1553 -0.0694
50129W        W50993   6.029  26.925  15.193  0.2079  0.0576 -0.1819
50130W        W50994   1.131  25.922  15.096  0.1963 -0.1929 -0.1552
50131W        W50995   7.403  27.175  15.564  0.3537 -0.1733  0.1350
50132W        W50996   5.235  24.053  15.212 -0.0162  0.0392  0.2916
50133W        W50997   6.459   0.082  14.132  0.0543 -0.0965 -0.2526
50134W        W50998   4.683  28.979  15.074  0.3132 -0.0691  0.2738
50135W        W50999   7.959   1.021  13.942  0.0434  0.2214 -0.0717
50136W        W51000   4.680  22.620  13.597  0.1310  0.0827  0.0440
50137W        W51001   5.295  26.462  17.612  0.3041 -0.2309 -0.0603
50138W        W51002   6.811  26.000  17.558 -0.2468  0.0220 -0.1774
50139W        W51003   4.056  26.429  19.163  0.3853 -0.0517  0.0048
50140W        W51004   6.608  26.430  14.374  0.0180  0.1061 -0.0278
50141W        W51005   4.643  27.213  14.287  0.1265  0.1349 -0.1415
50142W        W51006   7.596  29.023  19.088  0.0686  0.0918 -0.0575
50143W        W51007   4.371  25.058  13.729 -0.1137  0.1063  0.2837
50144W        W51008   3.467  28.248  13.934  0.0382  0.1564  0.0178
50145W        W51009   4.988   0.618  15.863  0.0805 -0.0183 -0.3215
50146W        W51010   4.956  28.394  19.043  0.2077  0.0514 -0.0954
50147W        W51011   5.415   1.930  17.075  0.1219 -0.1156 -0.2328
50148W        W51012   7.388  26.901  16.510 -0.0111 -0.0814 -0.0207
50149W        W51013   4.650  25.964  19.926 -0.0551 -0.0945 -0.0186
50150W        W51014   6.348  26.086  15.961 -0.0631  0.2996  0.2393
50151W        W51015   4.751  27.384  14.949 -0.1347 -0.1485 -0.2049
50152W        W51016   7.100  25.599  15.324  0.1304 -0.3324  0.2884
50153W        W51017   5.615   0.330  15.599 -0.0501  0.0062  0.0524
50154W        W51018   8.515  29.007  19.089 -0.0212 -0.2495  0.1732
50155W        W51019   5.129  28.793  15.145  0.1461  0.1102  0.1902
50156W        W51020   4.411  25.572  18.749  0.0260  0.2261 -0.0362
50157W        W51021   5.213  27.364  14.429  0.1428  0.1562 -0.3631
50158W        W51022   8.504  26.491  19.146  0.0852 -0.1835  0.2828
50159W        W51023   5.571  26.578  18.397 -0.1988  0.0479 -0.0237
50160W        W51024   3.945  28.339  19.355 -0.3729 -0.1807 -0.0166
50161W        W51025   9.763  27.996  16.673  0.2086 -0.1284  0.0562
50162W        W51026   3.599  28.208  15.640  0.2327 -0.0142  0.2614
50163W        W51027   4.001  25.587  14.322  0.1328  0.1022 -0.0913
50164W        W51028   4.285   0.098  15.358  0.2056  0.2216 -0.2894
50165W        W51029   6.619   0.947  15.941 -0.1318 -0.1318  0.0125
50166W        W51030   6.837  27.272  18.013  0.1042  0.0182  0.1564
50167W        W51031   7.944   0.324  15.102 -0.0083 -0.2134  0.0600
50168W        W51032   5.239   0.903  18.156 -0.1153 -0.1914  0.4036
50169W        W51033   3.153   0.573  16.392 -0.1101  0.0992  0.2365
50170W        W51034   4.116  28.653  17.897  0.1935  0.0655 -0.0837
50171W        W51035   7.737  28.438  19.720  0.0452 -0.1730  0.1263
50172W        W51036   4.280   1.215  17.487  0.1480 -0.0576  0.2327
50173W        W51037   5.920   0.554  16.847 -0.3773 -0.1803 -0.5446
50174W        W51038   5.109   0.442  18.252 -0.0809 -0.3141  0.2493
50175W        W51039   7.048  27.247  16.269  0.0268  0.2398  0.1439
50176W        W51040   5.803  27.453  18.661 -0.4165  0.1238  0.2339
50177W        W51041   6.197  27.567  15.919  0.0607 -0.1204 -0.2574
50178W        W51042   5.689   1.066  18.829 -0.0993  0.1787 -0.2257
50179W        W51043   5.438  27.861  16.870 -0.1628  0.0068  0.2446
50180W        W51044   5.099  25.541  14.681 -0.0629  0.0908 -0.0187
50181W        W51045   2.723   1.838  21.772  0.1714  0.3618  0.0904
50182W        W51046   3.079   0.331  21.189  0.0825  0.1794 -0.1290
50183W        W51047   7.342  28.164  19.942 -0.0276  0.1933  0.1873
50184W        W51048   7.442  28.724  20.012 -0.1485 -0.0566  0.1826
50185W        W51049   4.139   0.595  16.833 -0.1980  0.4985 -0.1220
50186W        W51050   6.372  26.827  18.249 -0.1763  0.4617  0.3545
50187W        W51051   2.924  28.190  18.528 -0.0480  0.2598 -0.0516
50188W        W51052   5.643  26.600  19.014  0.0085 -0.3853 -0.3462
50189W        W51053   6.168  28.931  21.035  0.0478  0.1842  0.2518
50190W        W51054   6.090  29.095  21.926  0.1087  0.2852  0.3916
50191W        W51055   3.837  23.757  19.272  0.0519 -0.2472 -0.0476
50192W        W51056   6.198  26.928  20.555  0.0766  0.4163  0.2226
50193W        W51057   6.774  26.848  19.059  0.0845  0.1125 -0.0313
50194W        W51058   8.911   0.345  19.585 -0.2125 -0.0057  0.4051
50195W        W51059   2.049  27.346  19.281  0.0017 -0.0564 -0.1094
50196W        W51060   4.711   1.226  21.442  0.1196  0.1265  0.2488
50197W        W51061   7.241  26.367  21.306 -0.1111  0.1913 -0.0130
50198W        W51062   2.980  28.751  21.511  0.0423  0.3014 -0.1024
50199W        W51063   6.046  27.115  19.060 -0.0289  0.4173 -0.1996
50200W        W51064   6.252  24.099  19.604  0.1156  0.0828 -0.0698
50201W        W51065   5.457  27.796  22.766 -0.1642 -0.0550 -0.0908
50202W        W51066   4.833  29.142  19.435  0.0480  0.0393  0.1124
50203W        W51067   5.966  28.246  19.337  0.0716  0.0972 -0.0387
50204W        W51068   6.674  25.463  18.233  0.2481  0.3014 -0.0801
50205W        W51069   4.926  23.749  19.089  0.2982 -0.0412 -0.2407
50206W        W51070   5.583  27.176  20.216  0.0905 -0.0081  0.2337
50207W        W51071   6.880  26.042  20.385 -0.1362  0.0014 -0.0127
50208W        W51072   5.804  28.683  19.790  0.2404  0.1985 -0.0251
50209W        W51073   4.407  27.284  20.139  0.0657  0.3002  0.2511
50210W        W51074   6.065  28.348  21.151 -0.0720 -0.2623  0.2854
50211W        W51075   5.872   0.025  19.784 -0.1575 -0.0362 -0.1392
50212W        W51076   8.741  28.852  21.203 -0.1610  0.2019 -0.0740
50213W        W51077   4.982  27.947  23.721  0.1123  0.0554 -0.1490
50214W        W51078   7.429  28.209  21.196 -0.0360  0.0221 -0.1102
50215W        W51079   1.378  26.408  20.643 -0.5356  0.0731 -0.2333
50216W        W51080   5.869   0.659  20.118  0.0767  0.0129 -0.0279
50217W        W51081   5.279  25.492  20.103 -0.2040  0.2497  0.1817
50218W        W51082   3.568  26.535  19.249 -0.2125 -0.3560 -0.1189
50219W        W51083   7.765  27.934  20.514  0.0572  0.1276 -0.1252
50220W        W51084   7.007  24.717  22.289  0.0443 -0.1279  0.0123
50221W        W51085   7.346  27.364  19.866 -0.1531  0.1352 -0.0932
50222W        W51086   8.139  26.894  22.131 -0.0505  0.0976 -0.1068
50223W        W51087   5.661   2.718  19.334  0.0851  0.0333  0.0457
50224W        W51088   7.400  26.915  18.593  0.3074  0.0704 -0.1937
50225W        W51089   4.680   1.274  16.940  0.0587 -0.0842 -0.1902
50226W        W51090   4.518   3.309  20.644  0.0638  0.0543  0.1258
50227W        W51091   1.585  26.723  21.109  0.2327 -0.0531 -0.0166
50228W        W51092   6.683  28.255  22.555 -0.1948  0.1457  0.0476
50229W        W51093   8.321  25.612  20.253  0.2290 -0.0278 -0.1333
50230W        W51094   5.327  26.621  16.598  0.1312 -0.0193 -0.1142
50231W        W51095   1.706   0.256  21.301  0.0179 -0.0622  0.0164
50232W        W51096   5.301  23.459  22.263  0.4072 -0.0480 -0.4742
50233W        W51097   3.408   1.589  21.056 -0.0685  0.0153  0.1478
50234W        W51098   6.370   0.611  20.175  0.0837  0.2757 -0.0322
50235W        W51099   5.519  26.081  18.476 -0.0237 -0.0232  0.0876
50236W        W51100   4.837   0.645  20.625 -0.0190  0.1297  0.2473
50237W        W51101   5.462  25.182  20.685  0.1626  0.2541  0.2060
50238W        W51102   6.776  28.865  19.839  0.1663  0.1193  0.0642
50239W        W51103   5.360  28.473  18.584 -0.1149 -0.0145 -0.0566
50240W        W51104   5.132  27.919  20.754 -0.0239 -0.1322  0.0640
50241W        W51105   5.405  28.625  19.368 -0.0718 -0.0614 -0.2191
50242W        W51106   2.543   0.359  17.197  0.0236  0.1687 -0.2490
50243W        W51107   5.173   1.832  20.592  0.1454 -0.2943  0.3566
50244W        W51108   4.679   0.082  20.384  0.0131 -0.0115  0.0414
50245W        W51109   5.570  26.462  19.456 -0.0410 -0.1565  0.0423
50246W        W51110   7.708  25.949  18.891 -0.0138 -0.0206 -0.2682
50247W        W51111   5.011  28.080  16.721  0.0523 -0.0103  0.1509
50248W        W51112   3.005  24.951  19.069 -0.3774  0.2138 -0.1392
50249W        W51113   4.777  27.011  20.380 -0.0831 -0.0446  0.0403
50250W        W51114   6.440  27.044  19.886  0.1220 -0.0473 -0.0878
50251W        W51115   7.463  27.620  21.691  0.2062 -0.0028  0.2533
50252W        W51116   6.234  28.379  18.118 -0.1019  0.1806 -0.0818
50253W        W51117   6.446   1.019  20.824 -0.0161 -0.1520  0.0900
50254W        W51118   6.796  24.897  23.781 -0.0653 -0.0333 -0.2396
50255W        W51119   7.284   0.432  21.555  0.3190 -0.0634 -0.4651
50256W        W51120   6.871  28.944  22.277  0.3443  0.0115 -0.0173
50257W        W51121   3.418   0.830  18.718 -0.0871  0.1644  0.0547
50258W        W51122   5.536   0.261  20.078 -0.3497 -0.0204 -0.1923
50259W        W51123   6.555  28.444  21.468  0.3127  0.0518 -0.0694
50260W        W51124   6.556  28.494  16.758 -0.1056  0.0920 -0.1790
50261W        W51125   2.486  27.156  19.006  0.2588 -0.0261 -0.2226
50262W        W51126   0.932  28.936  20.955 -0.2526 -0.0138  0.0545
50263W        W51127   4.511  24.235  20.024  0.0480  0.0982 -0.0720
50264W        W51128   5.132  27.025  21.103  0.0296  0.3692  0.2070
50265W        W51129   3.835  27.186  23.148  0.0858  0.0421  0.2367
50266W        W51130   8.058  26.936  20.291 -0.1572  0.1278  0.2496
50267W        W51131   7.456   1.373  19.784 -0.1988 -0.0412 -0.0393
50268W        W51132   4.741  25.806  24.113 -0.2320  0.1311  0.1978
50269W        W51133   9.017   2.834  21.326  0.0564 -0.2339 -0.1648
50270W        W51134   3.813  26.482  20.939  0.3260  0.1769 -0.0866
50271W        W51135   5.382  27.296  19.777 -0.2395  0.0189 -0.0652
50272W        W51136   8.473  26.716  21.796  0.0826  0.0205  0.2133
50273W        W51137   5.590   1.253  19.467  0.2438 -0.2566  0.0890
50274W        W51138   4.981  24.734  19.060  0.0953  0.2414 -0.0682
50275W        W51139   4.029  26.596  22.146  0.3481  0.1922 -0.0321
50276W        W51140   4.720  25.002  18.600 -0.5327  0.1256  0.1537
50277W        W51141   3.712   0.470  19.326 -0.1309  0.1923 -0.0784
50278W        W51142   5.077   0.489  21.183 -0.0268  0.2265 -0.4860
50279W        W51143   4.395  27.011  18.344 -0.2680  0.2122  0.3926
50280W        W51144   8.838  24.395  21.408 -0.1352  0.1914  0.1517
50281W        W51145   6.037   0.071  18.484  0.1327 -0.1300  0.0675
50282W        W51146   3.893  28.090  19.932 -0.1248  0.0835 -0.2240
50283W        W51147   6.692  24.994  15.284  0.0273  0.1498 -0.1598
50284W        W51148   8.401   1.668  21.352  0.0748 -0.3314 -0.1044
50285W        W51149  10.035  25.982  21.744  0.1265  0.1460 -0.0509
50286W        W51150   4.214  26.810  21.092  0.0472  0.2694  0.1755
50287W        W51151   5.730  28.627  20.679 -0.1604  0.0510 -0.3965
50288W        W51152   4.456  26.230  20.344  0.0802  0.1966  0.0594
50289W        W51153   3.006  26.023  22.818  0.0361 -0.1199 -0.1710
50290W        W51154   1.710  27.855  15.414  0.1646 -0.0001 -0.0527
50291W        W51155   4.296  28.499  19.802  0.3280  0.1984  0.0505
50292W        W51156   3.653   1.011  17.601 -0.4217 -0.2239  0.0842
50293W        W51157   8.435  28.276  19.019  0.1984  0.0947 -0.0686
50294W        W51158   4.297  28.605  20.731  0.1169 -0.3429  0.0128
50295W        W51159  10.012  26.827  21.108  0.2002 -0.0483  0.1567
50296W        W51160   6.739  28.861  18.167  0.2852 -0.0969  0.1243
50297W        W51161  10.320  25.711  22.061 -0.4194 -0.2133 -0.0258
50298W        W51162   3.337  28.304  20.763  0.1363  0.0514  0.0200
50299W        W51163   7.071  26.343  17.834 -0.2850 -0.1273 -0.1200
50300W        W51164   7.319  26.152  18.548 -0.1162  0.0212  0.1145
50301W        W51165   6.597  27.305  15.864 -0.0865  0.2547 -0.3289
50302W        W51166   6.469   0.225  18.240  0.0425 -0.0406  0.1177
50303W        W51167   4.449   1.073  22.343 -0.1424 -0.1939 -0.3915
50304W        W51168   7.864  27.995  19.979  0.0194 -0.0589  0.0690
50305W        W51169   5.247   0.422  18.935 -0.0375  0.1644  0.1563
50306W        W51170   6.273  26.518  19.925 -0.3190  0.0321 -0.2445
50307W        W51171   5.577  28.139  21.540  0.1368 -0.5341 -0.4074
50308W        W51172   6.726   1.766  21.327 -0.1749  0.3165  0.1355
50309W        W51173   6.631   0.216  19.125 -0.2092 -0.1741 -0.2250
50310W        W51174   6.896  28.115  20.988  0.0294 -0.1405  0.3614
50311W        W51175   5.273  28.916  20.725  0.2422  0.0021 -0.0229
50312W        W51176   4.975  26.146  19.433 -0.1432 -0.1552 -0.1173
50313W        W51177   3.280   2.848  20.847 -0.2420 -0.0887 -0.0768
50314W        W51178   6.285  25.059  20.619 -0.0147  0.2306 -0.0502
50315W        W51179   8.822   0.449  20.964  0.2537  0.0300  0.2145
50316W        W51180   2.519  28.449  20.624 -0.1036 -0.0160  0.1230
50317W        W51181   6.677  25.686  20.105 -0.0140 -0.1222 -0.1255
50318W        W51182   7.842  25.244  22.996  0.1437 -0.0063 -0.0882
50319W        W51183   6.118  27.535  19.357 -0.1342  0.4246  0.0722
50320W        W51184   5.739   0.480  18.874  0.1337 -0.1357  0.3602
50321W        W51185   3.317  25.289  19.290 -0.4320 -0.0015  0.1646
50322W        W51186   5.165  27.415  22.900 -0.0935  0.2959 -0.2958
50323W        W51187   6.725  28.359  17.221  0.1730  0.0808 -0.0915
50324W        W51188   5.280  27.503  18.682  0.1705  0.1708 -0.1758
50325W        W51189   2.498  26.749  20.915  0.3887 -0.0378 -0.0755
50326W        W51190   5.148  25.485  19.291 -0.0723 -0.2030  0.1921
50327W        W51191   6.386  26.440  19.393 -0.0983  0.1788  0.0535
50328W        W51192   6.774   1.305  19.457 -0.1209  0.3035 -0.0176
50329W        W51193   4.797   0.625  18.609  0.2181 -0.0323 -0.2387
50330W        W51194   6.319   0.174  20.699  0.2583  0.3741 -0.1737
50331W        W51195   6.861   1.055  19.888 -0.0848 -0.2417 -0.2000
50332W        W51196   4.703  25.620  19.522 -0.1177 -0.0916  0.2958
50333W        W51197   7.656   1.778  20.081 -0.2284 -0.0928 -0.1102
50334W        W51198   6.382  27.019  18.691  0.3124  0.0106  0.0743
50335W        W51199   7.503  28.540  19.170 -0.4519  0.3198  0.0827
50336W        W51200   4.516  25.962  22.442 -0.0017 -0.0547 -0.0742
50337W        W51201   3.316  27.473  19.248  0.2141  0.0275 -0.1498
50338W        W51202   5.481  25.025  18.333 -0.0960  0.3564 -0.1011
50339W        W51203   5.805  26.625  20.677  0.1247 -0.1193  0.0229
50340W        W51204   6.596  26.148  19.783  0.0250  0.0565  0.1376
50341W        W51205   3.477  28.087  22.262  0.0623  0.1027  0.1609
50342W        W51206   4.674  27.895  18.851  0.2076  0.0587  0.3190
50343W        W51207   7.673   0.386  18.946  0.1038 -0.1873  0.1111
50344W        W51208   3.761  29.141  22.281 -0.1999  0.1756  0.1861
50345W        W51209   7.316  27.208  23.885 -0.1676 -0.1074  0.3281
50346W        W51210   5.138  25.933  20.767  0.0879  0.1081  0.4224
50347W        W51211   5.088  27.361  18.078  0.2306  0.0569  0.2600
50348W        W51212   4.451   0.936  18.753  0.2407 -0.0804 -0.0172
50349W        W51213   5.295  28.692  22.112  0.1022  0.1069 -0.0436
50350W        W51214   6.184  27.746  16.515 -0.0965  0.1296 -0.4155
50351W        W51215   8.037  26.890  24.270  0.1814 -0.2595 -0.1941
50352W        W51216   8.240  28.767  21.211  0.0973 -0.1078  0.0340
50353W        W51217   5.502  26.210  20.489 -0.0645  0.2877 -0.0075
50354W        W51218   6.552  28.747  19.261  0.0216  0.1646 -0.0808
50355W        W51219   4.700  26.802  20.877  0.2714 -0.0060 -0.0068
50356W        W51220   8.940  24.960  20.552  0.3374  0.4035 -0.0449
50357W        W51221   5.138   1.208  22.796 -0.0386 -0.1788 -0.0301
50358W        W51222   3.567   1.162  20.815 -0.1557 -0.1152  0.1291
50359W        W51223   6.078   1.051  21.170  0.3049  0.1993 -0.1044
50360W        W51224   4.758  23.967  20.482 -0.0403  0.4476  0.1502
50361W        W51225   5.657   1.651  18.728  0.0496 -0.0056  0.0052
50362W        W51226  10.629  28.015  17.278  0.2068 -0.1294  0.1166
50363W        W51227   6.239  28.831  21.510  0.1729 -0.0557 -0.5502
50364W        W51228   4.644  24.337  17.414 -0.1203 -0.1203  0.2177
50365W        W51229   4.552  26.676  22.939 -0.1424  0.1646 -0.1631
50366W        W51230   5.907  27.652  20.710 -0.3758  0.0889 -0.0380
50367W        W51231   6.626  27.254  19.384  0.2700 -0.2076 -0.4829
50368W        W51232   4.353  24.536  21.249 -0.2198 -0.0608  0.3788
50369W        W51233   3.844  27.412  19.351  0.1644 -0.2302  0.0186
50370W        W51234   6.819   0.555  18.771 -0.3501 -0.3177  0.0198
50371W        W51235   6.737  25.450  19.565  0.0906  0.1121  0.1677
50372W        W51236   4.353  27.858  15.622 -0.1176  0.0858 -0.1690
50373W        W51237   2.893  27.999  21.352 -0.2327  0.1972 -0.0974
50374W        W51238   3.772  26.604  20.224  0.1192 -0.0184 -0.1260
50375W        W51239   5.197  26.636  20.560 -0.2740  0.1669  0.0458
50376W        W51240   3.670  24.162  20.286  0.0056  0.1162  0.0257
50377W        W51241   5.347  24.649  17.427  0.0105 -0.0078 -0.1002
50378W        W51242   5.425  27.537  20.632 -0.0085 -0.2325 -0.0286
50379W        W51243   3.113  27.155  19.980  0.1191  0.1410  0.1055
50380W        W51244   8.249  24.666  21.661  0.1059 -0.1843 -0.1870
50381W        W51245   3.932  25.541  18.616  0.1577  0.0945  0.3530
50382W        W51246   5.027  26.597  23.210 -0.0924 -0.1035  0.1022
50383W        W51247   7.186  27.695  18.917 -0.2634  0.0195  0.1022
50384W        W51248   3.605  27.106  20.211  0.1187 -0.3321 -0.0594
50385W        W51249   5.119  27.822  21.679 -0.2916  0.0265  0.1098
50386W        W51250   3.700  28.009  20.425  0.0501 -0.1285 -0.0220
50387W        W51251   5.382  27.827  21.200 -0.0304 -0.2234  0.1915
50388W        W51252   6.003  27.404  20.229 -0.0851 -0.1562 -0.2538
50389W        W51253   7.050   1.616  19.823 -0.0147 -0.0902 -0.0112
50390W        W51254   5.691  28.896  20.257 -0.2677 -0.1373 -0.1898
50391W        W51255   5.562  25.708  20.483  0.0982  0.3597  0.0623
50392W        W51256   1.576  27.537  20.403 -0.0591  0.1969  0.0524
50393W        W51257   2.870  27.304  21.852  0.2526 -0.1679  0.0742
50394W        W51258   7.815  26.361  21.309  0.1117 -0.1203  0.1059
50395W        W51259   4.305  28.203  21.053  0.0044 -0.0268  0.1378
50396W        W51260   7.759  27.161  20.846 -0.0922 -0.3310  0.0395
50397W        W51261   6.543  26.391  17.724 -0.1744  0.0983  0.2410
50398W        W51262   3.855   1.917  17.061 -0.0879 -0.1912 -0.0770
50399W        W51263   7.094  26.973  22.539 -0.0981 -0.1817 -0.1681
50400W        W51264   2.581  27.987  20.399 -0.3691  0.0278 -0.1344
50401W        W51265   8.711  28.904  22.115 -0.0595  0.0346 -0.1203
50402W        W51266   6.856  27.334  19.827 -0.0014  0.2467 -0.0727
50403W        W51267   4.156   1.114  23.155  0.3124 -0.0331  0.1894
50404W        W51268   5.715  28.250  18.120 -0.2179  0.2784  0.1806
50405W        W51269   8.002   0.837  17.436 -0.0287 -0.0390  0.0773
50406W        W51270   5.161  27.048  24.919 -0.1206  0.1529 -0.0633
50407W        W51271  10.388  26.684  21.926  0.4082 -0.1872 -0.0694
50408W        W51272   7.133  28.834  18.461 -0.1363 -0.1127  0.1035
50409W        W51273   7.457  27.784  22.167  0.2159 -0.1426 -0.0296
50410W        W51274   3.417  24.728  21.067 -0.0108 -0.2508 -0.0340
50411W        W51275   7.054  28.898  20.348 -0.0066  0.0829 -0.0079
50412W        W51276   3.586  28.898  17.162 -0.1754  0.3747  0.1476
50413W        W51277   6.500   0.666  19.295  0.1193  0.1328  0.2319
50414W        W51278   6.289  24.734  20.253 -0.1601  0.0411  0.1879
50415W        W51279   6.566  27.815  16.147 -0.1008  0.2354 -0.0077
50416W        W51280   6.670  22.451  22.082 -0.0446  0.1428 -0.2023
50417W        W51281   6.019   1.728  23.108  0.0839  0.0402  0.2160
50418W        W51282   3.608  28.476  20.223  0.1147  0.2303  0.3018
50419W        W51283   9.110   2.265  21.474 -0.0638  0.3689 -0.1234
50420W        W51284   6.627   0.302  19.870 -0.1326 -0.4927  0.0974
50421W        W51285   1.449   0.027  19.096 -0.0026 -0.2147  0.1263
50422W        W51286   3.748  25.820  20.024 -0.0851  0.0604  0.0534
50423W        W51287   7.069  25.406  18.489 -0.1342 -0.1296 -0.1799
50424W        W51288   8.168   0.179  21.226  0.1163  0.0557 -0.0903
50425W        W51289   6.118   0.506  18.107  0.3189  0.1554  0.1302
50426W        W51290   5.998  26.054  20.625 -0.2224  0.1313 -0.0869
50427W        W51291   3.227   0.482  21.622 -0.0215 -0.1311  0.0798
50428W        W51292  10.359  28.845  20.127  0.0245 -0.1512 -0.1132
50429W        W51293   5.070  24.618  20.433  0.0680  0.0991 -0.0563
50430W        W51294   6.164  28.506  19.003 -0.0342 -0.0492  0.0080
50431W        W51295   3.722   1.549  19.426  0.0740 -0.1676  0.1238
50432W        W51296   9.280   2.143  19.685 -0.1385 -0.0855  0.2418
50433W        W51297   5.791   0.344  21.793  0.1792 -0.0968 -0.1491
50434W        W51298   3.792  26.486  19.695 -0.0363  0.0722  0.0321
50435W        W51299   6.699  28.188  18.983 -0.1326 -0.2519  0.1201
50436W        W51300   8.029  27.795  19.542  0.3016 -0.2263 -0.1286
50437W        W51301   3.685  26.072  18.959  0.1805 -0.0474 -0.4491
50438W        W51302   5.572  27.707  18.294 -0.1852 -0.1786 -0.2167
50439W        W51303   5.728  23.560  18.504 -0.0774 -0.3392 -0.0923
50440W        W51304   7.282  25.448  19.482  0.0672  0.2330 -0.0628
50441W        W51305   5.984  26.224  18.759  0.0167 -0.0322 -0.0772
50442W        W51306   5.276  27.073  20.595  0.0176  0.1613 -0.0164
50443W        W51307   4.108  28.373  20.303 -0.0171  0.2739  0.0529
50444W        W51308   6.050  27.971  19.770 -0.0431 -0.3500  0.1421
50445W        W51309   4.462   2.341  21.677  0.1322  0.1473 -0.0451
50446W        W51310   2.458  28.634  17.666  0.0329  0.0513  0.1197
50447W        W51311   8.027  25.830  21.245 -0.3100  0.0173 -0.3543
50448W        W51312   7.269  27.515  22.550 -0.0658 -0.1406  0.0591
50449W        W51313   9.177  27.405  20.008 -0.1645 -0.2323 -0.0430
50450W        W51314   6.410  27.422  18.323 -0.2611  0.2216 -0.1119
50451W        W51315   6.262  26.165  21.462  0.1681  0.1301  0.1407
50452W        W51316   6.599  27.731  19.246 -0.1879 -0.0945 -0.0341
50453W        W51317   4.938  27.261  18.988  0.0133  0.1754 -0.1027
50454W        W51318   7.371   1.735  21.389 -0.2346  0.0089 -0.0346
50455W        W51319   6.143  25.616  21.598 -0.1497  0.0133 -0.0232
50456W        W51320   3.655  26.161  18.321 -0.0736 -0.0005 -0.1127
50457W        W51321   7.132  26.992  19.568  0.2059  0.2514 -0.2774
50458W        W51322   3.446  26.831  17.726 -0.2653 -0.0578 -0.0156
50459W        W51323   5.152  29.121  21.323 -0.1411  0.1457  0.0255
50460W        W51324   7.324  28.029  20.663  0.0035  0.2401  0.1178
50461W        W51325   5.862  24.353  19.436 -0.0411 -0.0687  0.0299
50462W        W51326   5.160  25.194  17.794  0.0464 -0.0546  0.1602
50463W        W51327   3.360   3.136  21.291  0.1965 -0.1890 -0.1206
50464W        W51328   9.139  28.757  19.523 -0.1957 -0.0404 -0.0679
50465W        W51329   5.559  24.460  22.581 -0.2778  0.1863 -0.0236
50466W        W51330   6.400  27.555  19.803 -0.1253 -0.4886 -0.1841
50467W        W51331   6.954  26.378  21.792 -0.1048 -0.1120 -0.3385
50468W        W51332   5.734  25.336  15.626  0.0781 -0.0445 -0.3944
50469W        W51333   6.893  28.583  21.774 -0.0825  0.0546 -0.0557
50470W        W51334   4.345  27.253  19.534  0.0089 -0.2816 -0.0430
50471W        W51335   6.983  26.336  20.006  0.1730 -0.0074  0.0226
50472W        W51336   7.538  26.494  18.250 -0.0995  0.1573  0.1762
50473W        W51337   2.946  24.303  17.927 -0.1516 -0.0022 -0.2099
50474W        W51338   4.666  28.563  20.166 -0.1622 -0.1211  0.3628
50475W        W51339   7.126  25.616  17.985  0.0895 -0.0323 -0.0426
50476W        W51340   5.184  26.876  20.108  0.0452 -0.1012  0.0568
50477W        W51341   7.127  28.396  20.320 -0.1194  0.1175 -0.2077
50478W        W51342   8.208  25.824  22.015  0.1518 -0.0745 -0.0357
50479W        W51343   4.435  28.687  19.343 -0.1680  0.1841  0.0570
50480W        W51344   2.728  26.766  19.173  0.1795  0.0104 -0.2061
50481W        W51345   3.485  27.501  23.016  0.0111  0.1514 -0.3326
50482W        W51346   2.741  27.552  20.600 -0.0011  0.0860  0.5124
50483W        W51347   6.260  27.491  18.810  0.1674  0.1697 -0.2045
50484W        W51348   3.955   1.243  20.384  0.0076 -0.0408 -0.0662
50485W        W51349   7.988  28.190  23.009 -0.1439 -0.0945  0.1465
50486W        W51350   6.140   1.240  22.088 -0.2393  0.4459 -0.1129
50487W        W51351   4.424  25.375  20.536 -0.0226 -0.0637  0.1604
50488W        W51352   4.783  27.308  18.529  0.0585  0.1155 -0.0282
50489W        W51353   6.015   1.271  20.696 -0.2693 -0.0789 -0.1358
50490W        W51354   6.443  26.502  18.687 -0.3116 -0.0018  0.0627
50491W        W51355   3.897  27.865  20.870 -0.0426 -0.1545  0.3246
50492W        W51356   7.826  25.699  20.798  0.5482  0.1288 -0.1371
50493W        W51357   5.710   0.383  20.550 -0.6010 -0.0970 -0.2934
50494W        W51358   6.385   2.230  21.102 -0.1271  0.0625  0.0774
50495W        W51359   5.157   0.187  20.400 -0.0280  0.0833 -0.0287
50496W        W51360   5.316  25.648  17.664  0.2934  0.0961 -0.0523
50497W        W51361   7.091  26.854  20.011  0.0466  0.2552 -0.1188
50498W        W51362   7.261   0.648  20.574 -0.0066  0.1779 -0.0175
50499W        W51363   5.549  25.947  19.534  0.0029 -0.3696  0.3537
50500W        W51364   2.321   0.165  19.366  0.0610  0.1214 -0.2303
50501W        W51365   8.083  27.372  16.253  0.1160 -0.0276  0.0478
50502W        W51366   4.841  28.853  21.615  0.1963  0.0641  0.1829
50503W        W51367   5.717  27.400  21.114  0.3190  0.1271 -0.1906
50504W        W51368   3.952   0.450  18.173  0.0093  0.2262  0.2316
50505W        W51369   4.073  28.199  22.170 -0.0083 -0.3591 -0.1211
50506W        W51370   4.510  24.538  20.464 -0.0307 -0.1881 -0.2400
50507W        W51371   5.040  26.934  17.774 -0.2114 -0.0289 -0.0532
50508W        W51372   5.622  25.874  20.020 -0.0754  0.0863  0.2035
50509W        W51373   4.435  26.402  21.032  0.0461 -0.2138 -0.1960
50510W        W51374   2.999  25.984  22.189  0.0577  0.1988 -0.1079
50511W        W51375   7.585  27.174  17.691  0.0600 -0.0066  0.0514
50512W        W51376   9.357  28.670  19.973 -0.0883 -0.0559  0.1640
50513W        W51377   7.684  28.869  19.532 -0.2316  0.1056 -0.0915
50514W        W51378   6.000  26.077  19.188  0.2306  0.1657 -0.3841
50515W        W51379  10.084  27.339  23.214 -0.3553  0.0869  0.1228
50516W        W51380   5.714  27.716  19.002  0.2116 -0.1426  0.0732
50517W        W51381   6.836   0.935  19.073  0.2585 -0.0681 -0.1551
50518W        W51382   5.113  27.241  21.972 -0.1734  0.0893  0.2536
50519W        W51383   4.826  25.648  21.484  0.3542  0.1158  0.0658
50520W        W51384   7.330   1.606  20.894 -0.0536 -0.0268 -0.0544
50521W        W51385   5.507  26.869  21.664 -0.0698  0.0187  0.1179
50522W        W51386   5.864  26.453  20.233  0.0264  0.1047  0.1960
50523W        W51387   4.909   0.976  15.484  0.0675  0.1870  0.0334
50524W        W51388   6.045  28.695  17.025  0.0132 -0.0619  0.0959
50525W        W51389   5.705  28.746  21.804 -0.0689  0.0772  0.4817
50526W        W51390   6.357  26.901  19.373  0.3475  0.3049  0.1268
50527W        W51391   3.742  25.988  20.920  0.0789 -0.0544 -0.1830
50528W        W51392   6.092  28.285  20.574 -0.1374 -0.0419 -0.3983
50529W        W51393   3.484  22.797  19.572  0.1581  0.0209 -0.3116
50530W        W51394   8.272  25.056  19.333  0.6021 -0.3270 -0.3850
50531W        W51395   6.395  26.079  20.188  0.0401  0.4145  0.0728
50532W        W51396   5.508   0.369  21.341  0.1364 -0.2082  0.0713
50533W        W51397   7.277   0.852  21.204  0.0693 -0.1087  0.0498
50534W        W51398   4.949  27.338  19.521  0.1517  0.0179 -0.1640
50535W        W51399   6.200  25.227  18.323 -0.1262 -0.0438  0.1146
50536W        W51400   6.710  26.670  19.710 -0.1565  0.2708 -0.2203
50537W        W51401   7.669  27.032  21.754 -0.0061  0.0159 -0.3110
50538W        W51402   1.950  25.854  20.976  0.1775 -0.2212 -0.2622
50539W        W51403   5.050  27.397  20.211 -0.0947 -0.1372  0.0445
50540W        W51404   6.151  26.087  17.874 -0.3423 -0.0331  0.1576
50541W        W51405   7.489  28.714  21.126  0.1653  0.2031  0.0745
50542W        W51406   4.715  27.736  19.393 -0.3746 -0.2383 -0.2814
50543W        W51407   7.096  25.304  18.986 -0.2562  0.3097 -0.2150
50544W        W51408   5.790   1.494  21.093 -0.1000  0.0102  0.0794
50545W        W51409   7.007  28.554  21.240 -0.3354  0.1384  0.1657
50546W        W51410   6.532  26.726  20.946 -0.1555 -0.0918 -0.2756
50547W        W51411   8.070   1.445  19.069  0.1111  0.0376 -0.0464
50548W        W51412   6.726  25.014  19.275  0.2022  0.2795 -0.0368
50549W        W51413   5.921  27.192  21.529  0.0798  0.2332 -0.0314
50550W        W51414   4.722  28.681  17.833 -0.2310 -0.1376 -0.4638
50551W        W51415   6.397  27.054  17.799 -0.2673  0.0768  0.2156
50552W        W51416   6.437  26.104  18.982 -0.1070  0.1609 -0.1961
50553W        W51417   6.332   2.466  22.063 -0.1542 -0.0026 -0.0223
50554W        W51418   6.134  26.605  19.042  0.0914  0.0943  0.0665
50555W        W51419   4.409  27.701  20.881 -0.5224  0.0901 -0.1295
50556W        W51420   5.453   0.765  19.273  0.3511 -0.0777 -0.2037
50557W        W51421   6.462   0.065  22.243  0.0439 -0.1206 -0.4138
50558W        W51422   8.136  26.960  23.294  0.0091 -0.1268 -0.0727
50559W        W51423   4.067  26.964  19.231  0.2063 -0.0814 -0.1092
50560W        W51424   6.307  27.433  20.991 -0.1827 -0.0443  0.0404
50561W        W51425   4.347  29.073  20.907  0.0282 -0.1445 -0.0001
50562W        W51426   4.183  27.637  21.898  0.1910  0.1316 -0.2180
50563W        W51427   6.385   1.615  20.957 -0.1103  0.2219  0.0966
50564W        W51428   5.026   0.965  21.042 -0.2249  0.2609 -0.2286
50565W        W51429   6.974  25.796  22.374  0.2726 -0.1072 -0.1674
50566W        W51430   7.369   2.085  19.122 -0.2311 -0.1706  0.0924
50567W        W51431   6.016   0.185  20.235  0.1381  0.3918  0.1676
50568W        W51432   6.750  27.722  20.634  0.1370 -0.1543  0.1766
50569W        W51433   5.391  27.958  20.303 -0.1772 -0.1831  0.1435
50570W        W51434   5.616  28.501  21.207  0.0080 -0.1838  0.0039
50571W        W51435   5.364  26.917  19.471  0.3523  0.0420 -0.2127
50572W        W51436   3.176  28.587  19.847  0.2344 -0.2567 -0.2667
50573W        W51437   4.772  28.853  22.128  0.3028 -0.1294  0.3656
50574W        W51438   6.783  27.330  20.978  0.1533  0.0427  0.1967
50575W        W51439   6.859  27.843  19.665 -0.0030  0.0684 -0.2774
50576W        W51440   4.329   0.449  18.578 -0.0864 -0.2578 -0.0509
50577W        W51441   4.564  27.217  21.139 -0.0778 -0.1449  0.0089
50578W        W51442   6.523   1.372  19.868 -0.1881 -0.0190  0.1135
50579W        W51443   0.704  23.462  17.411  0.0637 -0.0035  0.0253
50580W        W51444   5.284   1.130  25.570 -0.0215 -0.3767 -0.1366
50581W        W51445   4.762  27.066  22.727  0.0653  0.0320 -0.0601
50582W        W51446   2.971  27.646  22.848  0.0469  0.2015 -0.1585
50583W        W51447   7.330  26.587  24.478 -0.3523  0.0177  0.5100
50584W        W51448   4.158   2.799  21.448 -0.0598  0.2160  0.2300
50585W        W51449   2.902  26.690  22.638  0.0461  0.0791 -0.5460
50586W        W51450   3.542  27.893  23.339  0.0845 -0.2247 -0.0217
50587W        W51451   5.292  28.004  24.090 -0.5252  0.2765  0.0382
50588W        W51452   2.287  28.593  25.959  0.3633  0.1134  0.2500
50589W        W51453   4.218  25.834  26.024 -0.2712 -0.2472  0.4114
50590W        W51454   5.079  26.098  26.470  0.0013 -0.0117  0.0283
50591W        W51455   7.063  25.800  22.952 -0.1952  0.0229 -0.1454
50592W        W51456   6.241  27.193  22.351 -0.1566 -0.1424 -0.0472
50593W        W51457   7.005  25.113  23.266  0.0181 -0.0542 -0.0177
50594W        W51458   4.143  25.020  23.706  0.0071 -0.0659 -0.4399
50595W        W51459   3.549  27.447  24.278  0.1051  0.0332 -0.0968
50596W        W51460   5.609  28.266  22.018  0.0133 -0.2848  0.1922
50597W        W51461   3.255  25.064  23.140 -0.0673  0.1660  0.4288
50598W        W51462   3.188  28.828  24.055 -0.0737 -0.1654  0.1457
50599W        W51463   4.563  25.136  23.483  0.0480 -0.1154 -0.0316
50600W        W51464   6.958  28.438  26.021  0.2517 -0.1479 -0.0385
50601W        W51465   5.061  26.208  23.816  0.1392 -0.0847 -0.3752
50602W        W51466   7.802  27.260  23.922 -0.3216 -0.0842  0.3050
50603W        W51467   2.561  27.986  22.804  0.1290  0.0105 -0.1023
50604W        W51468   3.166  27.679  25.169  0.1288 -0.3554  0.3114
50605W        W51469   2.636  27.629  25.237  0.0161 -0.0669 -0.0426
50606W        W51470   3.565  27.014  24.531  0.1133  0.1042 -0.3312
50607W        W51471   4.121  28.919  24.250 -0.0616  0.0937 -0.2595
50608W        W51472   5.401   0.955  26.849 -0.3054  0.0616 -0.1680
50609W        W51473   4.312  24.964  25.595 -0.1755  0.0085  0.2020
50610W        W51474   4.639  28.246  21.449  0.2367  0.3964 -0.1387
50611W        W51475   5.313  26.298  25.274  0.3760  0.1999  0.0967
50612W        W51476   5.445  27.026  25.835 -0.0591 -0.0776  0.1285
50613W        W51477   6.321   0.570  25.298  0.1171  0.2406 -0.0757
50614W        W51478   3.172  27.154  23.672  0.3187 -0.3908  0.1510
50615W        W51479   6.150   1.246  25.680  0.1242  0.0214  0.1484
50616W        W51480   4.997  25.611  21.937 -0.0938 -0.1198 -0.0225
50617W        W51481   6.693   0.041  24.567 -0.1468  0.0484 -0.1430
50618W        W51482   9.965  28.643  24.482  0.0003 -0.0983 -0.1400
50619W        W51483   5.289  27.071  23.280 -0.0151  0.1331  0.0686
50620W        W51484   7.426  25.182  23.692 -0.1806  0.1024  0.0524
50621W        W51485   9.690  27.203  24.266 -0.2001 -0.0480 -0.0136
50622W        W51486   6.047   1.423  25.211 -0.0415 -0.0759  0.0981
50623W        W51487   7.187  28.604  24.112 -0.0766  0.0940  0.1368
50624W        W51488   4.720   1.720  20.357 -0.2405  0.1499  0.0276
50625W        W51489   4.002   1.106  21.976  0.1971  0.1120  0.1681
50626W        W51490   5.026  25.454  24.528 -0.1103 -0.0109  0.2856
50627W        W51491   7.735  28.084  23.779  0.2614  0.3808 -0.1178
50628W        W51492   7.068  28.606  22.768 -0.0182  0.1215  0.0271
50629W        W51493   7.051   1.337  21.205  0.1615  0.1585 -0.0041
50630W        W51494   5.330  28.496  23.074 -0.2363  0.1551 -0.0516
50631W        W51495   3.779  27.118  22.645 -0.2039  0.1106  0.0239
50632W        W51496   6.490   0.092  24.043 -0.1073 -0.1589  0.2083
50633W        W51497   8.195  27.649  23.690 -0.2008 -0.3063 -0.1655
50634W        W51498   7.036  27.244  22.924 -0.0569 -0.2063 -0.3245
50635W        W51499   4.361  27.843  22.368  0.0280 -0.0211 -0.1429
50636W        W51500   4.002  26.917  23.567 -0.3748  0.1305  0.4073
50637W        W51501   6.768  28.185  25.455  0.0413  0.1300  0.0807
50638W        W51502   5.441  29.015  23.112 -0.1120 -0.0212 -0.1542
50639W        W51503   5.060  28.305  23.401 -0.0035 -0.1503 -0.0281
50640W        W51504   5.856  27.907  23.075  0.2833  0.0218 -0.2936
50641W        W51505   4.908  26.424  24.773 -0.3996 -0.2413  0.0259
50642W        W51506   4.871   0.082  25.528  0.1424 -0.1148  0.0784
50643W        W51507   6.502  27.822  23.976  0.0936  0.0711 -0.0590
50644W        W51508   3.860  25.279  22.970 -0.2046  0.1966 -0.0980
50645W        W51509   7.531  26.227  24.044  0.1464 -0.0982  0.0856
50646W        W51510   2.151  27.961  22.457  0.4037  0.1808  0.2555
50647W        W51511   3.943  23.955  22.558 -0.0454 -0.3374  0.0288
50648W        W51512   4.540  28.882  23.284  0.0970  0.1291 -0.1145
50649W        W51513   5.863  28.777  23.048  0.1183  0.0503  0.2423
50650W        W51514   7.161  29.138  23.297  0.3263 -0.2632 -0.1771
50651W        W51515   6.278  25.127  21.564 -0.1234 -0.3908 -0.1308
50652W        W51516   4.879   0.844  21.953 -0.2033  0.0899  0.3515
50653W        W51517   7.750  28.138  25.797 -0.1903 -0.2417 -0.1715
50654W        W51518   8.013  28.735  22.994  0.2582  0.1040  0.1203
50655W        W51519   6.538  28.430  23.541 -0.2052  0.0049 -0.0710
50656W        W51520   5.178  29.091  22.364  0.0587 -0.1822 -0.1562
50657W        W51521   3.808  27.978  25.105  0.0572  0.2993 -0.1383
50658W        W51522   5.397  27.389  21.466 -0.2529  0.3968  0.3743
50659W        W51523   8.224  27.328  22.402  0.2809 -0.3405 -0.1001
50660W        W51524   2.790  28.326  25.450 -0.1724 -0.0542  0.2121
50661W        W51525   4.468  28.494  25.488 -0.1936  0.0197 -0.0942
50662W        W51526   4.111  24.697  24.048 -0.0705  0.0694 -0.0734
50663W        W51527   2.898  25.129  23.535  0.2799  0.3848  0.1214
50664W        W51528   3.249  27.557  23.921  0.0183 -0.0819 -0.0438
50665W        W51529   7.314  26.004  22.074 -0.1693  0.1185  0.0121
50666W        W51530   7.839  28.438  23.404  0.3785 -0.1191 -0.2119
50667W        W51531   8.608  26.773  25.220  0.0003 -0.2274 -0.1249
50668W        W51532   5.302  28.332  24.418  0.0767  0.0258 -0.0412
50669W        W51533   7.067  25.253  24.031  0.2649 -0.2309  0.1241
50670W        W51534   4.054  27.310  22.215  0.0624 -0.0011 -0.0093
50671W        W51535   5.777  28.161  26.213  0.0651 -0.0285 -0.0318
50672W        W51536   3.363   1.023  24.143 -0.2844 -0.0954 -0.0762
50673W        W51537   5.261  27.859  23.223 -0.0670 -0.0950  0.0102
50674W        W51538   4.671  25.546  25.885  0.1856  0.0244  0.0970
50675W        W51539   8.497  28.641  24.661 -0.0232 -0.1342 -0.0532
50676W        W51540   8.471  27.807  24.206 -0.1139  0.0152 -0.2680
50677W        W51541   3.845   0.439  26.236  0.2172 -0.1324 -0.0997
50678W        W51542   6.696  28.738  24.376  0.1389 -0.1700 -0.0770
50679W        W51543   7.241  24.652  23.680 -0.1927 -0.0264 -0.1520
50680W        W51544   6.058  28.035  23.579 -0.3634 -0.0660  0.2336
50681W        W51545   4.364  27.138  20.619 -0.0240 -0.1321 -0.1160
50682W        W51546   8.543  27.349  21.075  0.2013 -0.4133  0.0409
50683W        W51547   6.582  28.320  24.991 -0.3690  0.1912  0.0031
50684W        W51548   7.669  26.744  23.613  0.0497 -0.1442 -0.2226
50685W        W51549   6.872  26.145  23.243 -0.0088  0.0880  0.2298
50686W        W51550   5.633  26.840  21.136 -0.1310 -0.1057  0.0168
50687W        W51551   6.333  25.742  24.046 -0.0884 -0.0172  0.0280
50688W        W51552   5.692  25.645  23.259 -0.0940 -0.0235  0.3438
50689W        W51553   3.602  27.332  21.609 -0.0846  0.1941  0.2466
50690W        W51554   5.388  26.427  22.442 -0.0351 -0.0222 -0.1303
50691W        W51555   6.750   0.364  21.552  0.0251  0.1102  0.2322
50692W        W51556   7.756  29.089  21.579 -0.1018 -0.0946 -0.1236
50693W        W51557   5.895  28.838  24.875  0.0111 -0.0588  0.2070
50694W        W51558   5.986  28.198  24.926  0.1823  0.0981  0.5058
50695W        W51559   7.404  27.996  23.334  0.0295  0.0820  0.1815
50696W        W51560   9.306  23.113  23.382 -0.0374  0.1725 -0.3186
50697W        W51561   5.052  27.528  24.018  0.2073 -0.1562 -0.1187
50698W        W51562   4.275  26.848  25.957 -0.0794  0.0347 -0.1658
50699W        W51563   9.211  27.538  21.026 -0.0185 -0.2278 -0.1766
50700W        W51564   7.954  26.886  22.666 -0.2674 -0.0680 -0.2256
50701W        W51565   9.063   0.500  23.021  0.1619 -0.0383 -0.0336
50702W        W51566   6.046   0.346  24.031 -0.0781  0.1205  0.0347
50703W        W51567   5.964  26.133  19.687  0.4417  0.1634  0.0723
50704W        W51568   5.111  28.252  21.989 -0.3178  0.0083  0.0314
50705W        W51569   4.563  28.114  23.710 -0.4283  0.0705 -0.1384
50706W        W51570   2.223  23.718  24.900  0.2696 -0.1573 -0.0107
50707W        W51571   5.948  28.351  25.745 -0.1079 -0.2401  0.1486
50708W        W51572   8.458  27.355  23.438  0.3898  0.1327 -0.0438
50709W        W51573   3.875   0.070  23.249  0.4162  0.0015  0.1583
50710W        W51574   6.470  28.777  23.949  0.2158 -0.1444 -0.2195
50711W        W51575   6.045  25.419  23.728 -0.4127  0.1955  0.1030
50712W        W51576   4.711  28.610  23.671 -0.0887 -0.2028  0.0449
50713W        W51577   8.223  26.431  18.728 -0.1805  0.0499  0.0137
50714W        W51578   7.661   1.417  22.528  0.2877  0.1463 -0.2633
50715W        W51579   3.353  27.168  25.050 -0.0064  0.0068  0.2035
50716W        W51580  10.190  25.647  24.010 -0.1346  0.2425  0.1708
50717W        W51581   8.516   0.545  25.117 -0.1175 -0.0321 -0.0870
50718W        W51582   8.140  28.945  24.220  0.0905  0.1663 -0.1406
50719W        W51583   8.371  28.964  21.662  0.1128  0.3599  0.1571
50720W        W51584   3.904  28.376  22.620  0.2099 -0.0937 -0.0445
50721W        W51585   4.515  25.912  25.581 -0.1319  0.1460 -0.0360
50722W        W51586   2.476  28.937  22.544  0.0247  0.2006  0.0909
50723W        W51587   4.741  28.535  22.978 -0.0005  0.1263 -0.2173
50724W        W51588   3.309  27.042  23.124 -0.4353  0.2985 -0.2314
50725W        W51589   4.407  27.028  23.824 -0.1215  0.0207  0.1473
50726W        W51590   7.363  28.249  22.433  0.2642 -0.3708 -0.2350
50727W        W51591   5.792   0.054  24.383  0.0851  0.1813  0.0191
50728W        W51592   5.602  27.041  24.234  0.0984 -0.1476 -0.0147
50729W        W51593   5.821   0.585  24.395  0.2480  0.2606  0.3159
50730W        W51594   7.388   0.507  22.398  0.1171 -0.2188  0.1084
50731W        W51595   5.238  26.101  23.307  0.2041  0.0151 -0.0743
50732W        W51596   6.692  28.738  23.177 -0.0312  0.0378  0.0878
50733W        W51597   5.227  26.006  21.267  0.2526 -0.2213 -0.1633
50734W        W51598   4.043  26.091  25.462 -0.0587  0.1624 -0.1368
50735W        W51599   4.614  27.420  22.308 -0.2619  0.1889  0.2882
50736W        W51600   1.334  27.171  24.010  0.0648 -0.0506  0.1335
50737W        W51601   8.080   1.291  21.243 -0.0390  0.0770 -0.1829
50738W        W51602   4.700  25.740  23.021  0.3001 -0.2192 -0.3381
50739W        W51603   5.574   0.068  23.974 -0.0653  0.2100 -0.0773
50740W        W51604   8.938  25.516  26.084  0.0273 -0.1959 -0.0107
50741W        W51605   2.791  27.979  24.910 -0.1287 -0.0491 -0.1312
50742W        W51606   6.334  27.507  24.462  0.1784 -0.0402  0.2385
50743W        W51607   5.489  25.537  23.706  0.1210 -0.2181 -0.1853
50744W        W51608   4.572  25.561  27.328 -0.1956  0.4268 -0.0584
50745W        W51609   5.324  27.489  23.565 -0.1950  0.0082 -0.2234
50746W        W51610   5.659  27.390  23.160 -0.3536  0.0024  0.0701
50747W        W51611   4.160   0.869  22.722 -0.1335  0.0819 -0.2473
50748W        W51612   5.370   1.100  24.940  0.4142 -0.0783 -0.1313
50749W        W51613   3.006  26.707  23.454 -0.0118 -0.1858 -0.0121
50750W        W51614   7.393   1.560  22.112 -0.1035 -0.1658  0.0761
50751W        W51615   7.599  28.966  22.961 -0.0744  0.1092 -0.2675
50752W        W51616   5.445  26.369  22.940  0.1704  0.2913 -0.0408
50753W        W51617   6.360  27.954  21.656 -0.1894  0.4114  0.0936
50754W        W51618   5.089  27.409  22.431 -0.0671 -0.1549 -0.3600
50755W        W51619   4.360  27.413  22.759 -0.2238  0.0595 -0.0741
50756W        W51620   3.053   0.453  24.843  0.0267 -0.2568  0.2762
50757W        W51621   2.362  26.535  22.707 -0.0483 -0.0917 -0.0516
50758W        W51622   3.755  28.738  21.145 -0.0983  0.0844  0.0193
50759W        W51623   7.599  23.523  24.424  0.0691  0.1638 -0.0980
50760W        W51624   2.666  27.791  23.283  0.0409  0.1282 -0.0877
50761W        W51625   7.381  29.131  22.428 -0.4501 -0.1356 -0.3494
50762W        W51626   7.071  27.211  21.550 -0.1218  0.0398  0.0082
50763W        W51627   6.131  28.922  22.600 -0.1072  0.0991  0.0342
50764W        W51628   6.365  25.885  19.484 -0.1351  0.1297 -0.2395
50765W        W51629   5.212  27.942  26.564 -0.0063  0.1584 -0.0642
50766W        W51630   7.401  25.583  22.618  0.1851  0.0483  0.2376
50767W        W51631   5.761  26.854  23.684  0.0593 -0.2175  0.2702
50768W        W51632   5.383  27.490  24.950 -0.2810 -0.0112 -0.4126
50769W        W51633   4.384  28.011  24.172 -0.0963  0.1854  0.2758
50770W        W51634   5.687   0.960  21.426 -0.0769  0.1324 -0.0497
50771W        W51635   4.519  28.950  24.619 -0.0327 -0.0256  0.0142
50772W        W51636   2.800   0.865  25.210  0.2262 -0.2945 -0.0850
50773W        W51637   5.521  27.530  25.682 -0.0155 -0.4283 -0.3402
50774W        W51638   4.140  27.634  24.910  0.2790 -0.1868  0.0910
50775W        W51639   5.874  26.949  22.330  0.0120  0.1321 -0.2914
50776W        W51640   2.602  25.917  23.817  0.1256  0.0646 -0.0922
50777W        W51641   2.797  25.424  23.990  0.1266  0.2931 -0.0622
50778W        W51642   3.437  27.539  22.497 -0.1364  0.0525  0.1043
50779W        W51643   5.611  25.876  25.227 -0.0742 -0.0277 -0.1593
50780W        W51644   5.844  24.817  21.032  0.0056 -0.1809 -0.0576
50781W        W51645   6.664  25.402  23.732 -0.0580  0.2117  0.0741
50782W        W51646   7.270  27.365  22.061 -0.0357 -0.1627 -0.2517
50783W        W51647   5.599  22.930  23.579 -0.0957  0.0252 -0.0122
50784W        W51648   5.628  26.601  25.553 -0.0468  0.1379  0.3423
50785W        W51649   1.945  25.971  19.983 -0.0878  0.1145  0.1364
50786W        W51650   3.860  28.343  23.558 -0.0110 -0.2158  0.1348
50787W        W51651   6.029  28.575  23.699 -0.0004  0.1751  0.0661
50788W        W51652   6.425   1.129  23.723 -0.1417  0.4014  0.2920
50789W        W51653   2.333  29.017  20.203 -0.0661  0.3385  0.1035
50790W        W51654   6.193   1.718  26.489 -0.1366  0.4028 -0.3063
50791W        W51655   4.322  26.960  22.541 -0.0496 -0.1155  0.1129
50792W        W51656   3.309  26.316  23.772 -0.0904 -0.0973  0.1454
50793W        W51657   6.078  26.149  24.742 -0.0651 -0.0489  0.0090
50794W        W51658   8.561  28.694  23.145  0.0695 -0.1052 -0.0202
50795W        W51659   8.224  27.349  24.153  0.2500  0.1358  0.0801
50796W        W51660   5.836  28.617  22.253 -0.3471  0.3250 -0.3136
50797W        W51661   7.318   0.172  25.237 -0.0116 -0.3753  0.0271
50798W        W51662   6.099  28.230  26.586  0.0530  0.0804 -0.0697
50799W        W51663   2.511   0.382  25.805  0.0628  0.1128  0.1631
50800W        W51664   6.020  26.840  25.705  0.1424  0.2518 -0.2545
50801W        W51665   6.608  28.813  22.698  0.0883  0.1695 -0.2693
50802W        W51666   7.397   1.816  23.521  0.1047  0.0788 -0.0163
50803W        W51667   4.362  27.692  21.425  0.2177 -0.3501  0.0018
50804W        W51668   7.778   0.430  21.369  0.1983  0.1861 -0.1460
50805W        W51669   3.349  24.949  24.514 -0.0391  0.0619  0.1305
50806W        W51670   3.886  26.553  23.964 -0.0286  0.1046 -0.1593
50807W        W51671   6.685  27.785  22.785 -0.1722  0.2596 -0.3159
50808W        W51672   8.049   2.617  21.344  0.1488  0.1098  0.1647
50809W        W51673   6.459   1.078  25.073 -0.0066 -0.3094 -0.1178
50810W        W51674   1.587  27.145  24.756  0.1436  0.1153  0.1908
50811W        W51675   6.536  28.851  24.970  0.0397  0.0209 -0.0553
50812W        W51676   4.481   0.436  20.058  0.1174  0.0931  0.0605
50813W        W51677   5.710   1.133  22.749  0.0985  0.0838 -0.0712
50814W        W51678   1.312  26.694  22.492 -0.0143  0.1437  0.2186
50815W        W51679   3.992  26.592  22.643 -0.1137 -0.0588  0.2113
50816W        W51680  11.035  25.096  25.410  0.1489  0.1436 -0.1055
50817W        W51681   4.222  28.661  24.878 -0.1246 -0.2059 -0.0088
50818W        W51682   5.364  28.549  24.871  0.2054 -0.1214 -0.0535
50819W        W51683   7.769  28.073  24.591 -0.0504  0.0620 -0.0929
50820W        W51684   3.021   0.297  22.002  0.0644 -0.0610  0.2676
50821W        W51685   3.414   0.249  26.502  0.2031  0.2563 -0.2448
50822W        W51686   5.761  25.771  24.575  0.3086 -0.1654  0.0268
50823W        W51687   1.412  25.729  19.583 -0.1331 -0.0979  0.3547
50824W        W51688   7.348  25.895  23.324  0.2320  0.2142 -0.1857
50825W        W51689   6.278  27.914  20.878  0.1333 -0.2870  0.0351
50826W        W51690   5.789  27.475  24.509 -0.1672  0.4295  0.0389
50827W        W51691   4.769  28.481  24.868  0.3883 -0.0340 -0.0700
50828W        W51692   6.639  27.152  22.059  0.2532  0.0561 -0.2249
50829W        W51693   4.434  25.678  21.994 -0.0422 -0.0533  0.2209
50830W        W51694   7.720  27.163  23.301  0.1926 -0.0696  0.1040
50831W        W51695   4.679  27.192  26.166  0.3203 -0.0964  0.1936
50832W        W51696   6.150  28.379  23.200 -0.0931 -0.2113  0.1482
50833W        W51697   5.612  27.062  24.721  0.1882 -0.0841 -0.0598
50834W        W51698   2.913  28.044  20.841  0.4107 -0.1829  0.1710
50835W        W51699   6.272   0.662  23.176 -0.0638  0.4123  0.0568
50836W        W51700   9.097  24.946  21.331 -0.0683  0.0614 -0.0102
50837W        W51701   5.177  25.788  24.903  0.1224 -0.0582 -0.5018
50838W        W51702   7.598  27.914  22.672  0.1640 -0.4103 -0.5060
50839W        W51703  11.187  26.547  22.654 -0.3967  0.0296  0.0238
50840W        W51704   3.624  27.414  23.597  0.1639  0.2063  0.2695
50841W        W51705   5.243   0.106  23.477 -0.1031 -0.2754  0.0089
50842W        W51706   3.541  28.528  24.834 -0.0787 -0.0846 -0.1608
50843W        W51707   4.475   0.132  24.244 -0.0172 -0.1003 -0.1959
50844W        W51708   3.259   1.795  22.010  0.2285  0.0540  0.3870
50845W        W51709   3.699  28.711  23.097 -0.4485 -0.1790 -0.1122
50846W        W51710   3.839   0.866  21.188  0.0804  0.1984 -0.0453
50847W        W51711   8.470   1.399  20.315  0.1347  0.0285 -0.2494
50848W        W51712   4.581  26.807  23.430  0.0257  0.2449 -0.0394
50849W        W51713   9.196  26.441  23.565 -0.0919  0.3646  0.0056
50850W        W51714   6.155  28.393  21.780 -0.0846 -0.1165 -0.2284
50851W        W51715   5.739  26.164  23.283  0.0685  0.2235  0.2327
50852W        W51716   2.162  26.328  22.237 -0.2138 -0.6505  0.1304
50853W        W51717   4.486  28.496  21.865  0.0494  0.0901 -0.1424
50854W        W51718   6.259   0.329  22.697  0.0051 -0.1735 -0.0442
50855W        W51719   8.444  26.030  22.923  0.0710 -0.1318  0.0566
50856W        W51720   5.564  26.135  24.274 -0.1462  0.0636 -0.0874
50857W        W51721   4.774  28.087  25.484  0.1899 -0.1013 -0.0118
50858W        W51722   6.773  25.240  21.478  0.0494  0.0604 -0.0399
50859W        W51723   2.885  27.354  24.867  0.1364  0.0585 -0.3445
50860W        W51724   7.736  28.667  22.472  0.0018  0.0394 -0.0284
50861W        W51725   5.423  24.281  22.142 -0.0828 -0.0940 -0.1774
50862W        W51726   5.276  28.418  20.879 -0.1888  0.3177  0.3002
50863W        W51727   2.683  26.729  25.707 -0.3306 -0.0350  0.0084
50864W        W51728   6.993  27.701  23.233  0.2229  0.2756 -0.3259
50865W        W51729  12.493  26.736  22.724  0.1937  0.3652 -0.0343
50866W        W51730   9.020  28.297  22.666  0.0859 -0.2129 -0.3858
50867W        W51731   3.906  28.702  26.171 -0.0975  0.5109  0.0419
50868W        W51732   5.284  24.154  22.954 -0.3862 -0.2649 -0.0408
50869W        W51733   7.197  28.878  25.574 -0.2611  0.0619 -0.2183
50870W        W51734   6.094  26.868  21.879 -0.0466  0.1058  0.0373
50871W        W51735   6.764  26.241  21.279 -0.1325  0.1442 -0.2362
50872W        W51736   6.675  27.175  24.588 -0.0179  0.1813  0.2117
50873W        W51737   2.018  28.964  21.758 -0.0416  0.1236 -0.1907
50874W        W51738   5.795   0.901  22.341  0.0428  0.0140  0.0636
50875W        W51739   7.531  24.841  22.210 -0.0119  0.0857 -0.5441
50876W        W51740   3.372  26.798  20.904  0.1854  0.1624 -0.3314
50877W        W51741   7.506  28.048  25.014 -0.0409  0.0085  0.2644
50878W        W51742   9.015  24.938  24.448  0.0136 -0.1367  0.0479
50879W        W51743   3.681   0.777  22.540  0.2160  0.0505 -0.0588
50880W        W51744   1.845  26.576  23.127 -0.0678  0.0292 -0.1116
50881W        W51745   3.835  26.659  23.138 -0.0033  0.3082  0.2592
50882W        W51746   7.283   0.213  26.992  0.0615  0.1658 -0.0781
50883W        W51747   4.383   3.098  21.082 -0.3050 -0.1331  0.1204
50884W        W51748   5.735   0.683  20.935  0.2568  0.2167 -0.1016
50885W        W51749   5.120   0.329  22.740 -0.3929 -0.0319 -0.4195
50886W        W51750   4.554  28.089  26.479  0.1714 -0.1486  0.1387
50887W        W51751   3.719  24.319  22.236  0.0453  0.1771 -0.0138
50888W        W51752   4.390  25.289  22.938  0.0250 -0.2168 -0.4011
50889W        W51753   3.038  27.145  24.304  0.1460  0.2558 -0.2519
50890W        W51754   3.329  26.576  24.398  0.2700 -0.0653  0.1346
50891W        W51755   5.592  27.915  28.486  0.6114  0.0656  0.1879
50892W        W51756   7.458  24.309  24.058 -0.0732 -0.0400 -0.2132
50893W        W51757   6.975  26.804  24.675 -0.0391 -0.1713  0.3971
50894W        W51758   4.567   1.261  28.340  0.1089  0.2199 -0.3191
50895W        W51759   4.816  28.379  27.321 -0.1409 -0.0855  0.0128
50896W        W51760   1.824  27.374  19.757  0.2599 -0.2270 -0.0843
50897W        W51761   7.990  28.233  22.511  0.1573 -0.1693 -0.1806
50898W        W51762   7.223   0.776  24.104  0.1098  0.0778  0.0272
50899W        W51763   3.082  28.083  23.593 -0.1104 -0.1928  0.0295
50900W        W51764   3.536   0.210  24.647 -0.0448  0.1000 -0.3433
50901W        W51765   7.259  28.727  22.136  0.0813 -0.1228 -0.0810
50902W        W51766   1.494  27.595  21.518 -0.0271  0.0278  0.1563
50903W        W51767   4.373  26.799  24.293 -0.0562  0.0299  0.1465
50904W        W51768   6.280  25.188  19.480 -0.1007  0.3202 -0.3493
50905W        W51769   4.937  26.948  21.595 -0.2127  0.1199  0.1546
50906W        W51770   4.516  24.092  23.402  0.0562  0.0776  0.1847
50907W        W51771   5.682  28.128  20.761 -0.1812 -0.2011 -0.3725
50908W        W51772   5.279   1.097  22.311  0.0859  0.0205 -0.0702
50909W        W51773   3.215  26.778  25.587  0.0719 -0.0403 -0.1598
50910W        W51774   4.221  25.990  23.841 -0.4376  0.0685 -0.3586
50911W        W51775   5.210  25.620  23.096  0.1000  0.2659 -0.0992
50912W        W51776   9.655   0.696  24.393 -0.3873  0.1489  0.2274
50913W        W51777   6.524   2.441  23.982 -0.5256 -0.0207  0.0111
50914W        W51778   5.789  28.501  24.482 -0.1021 -0.0312 -0.1626
50915W        W51779   6.046  27.465  25.380  0.1409  0.0625 -0.0818
50916W        W51780   2.232   0.232  21.606  0.1175 -0.0322  0.0125
50917W        W51781   7.521   1.801  19.591  0.3259  0.1776  0.1147
50918W        W51782   5.356   0.246  20.862  0.1223  0.1897  0.0362
50919W        W51783   5.895  26.529  22.645  0.1800  0.1786 -0.2875
50920W        W51784   5.406   0.749  22.665 -0.1245  0.1017  0.2063
50921W        W51785   4.380  24.928  26.554  0.1669  0.0872  0.1191
50922W        W51786   6.420  27.786  22.280 -0.2002 -0.1727 -0.2223
50923W        W51787   3.318  28.468  21.218 -0.1196  0.1334  0.1240
50924W        W51788   7.392  27.046  24.951  0.0136  0.1674 -0.0587
50925W        W51789   1.693   1.180  25.099  0.0163  0.1567  0.0569
50926W        W51790   2.450   1.199  19.635 -0.0826  0.1371  0.1939
50927W        W51791   1.818  28.103  23.385  0.4132  0.0424 -0.0803
50928W        W51792   4.992  28.604  22.504 -0.2187 -0.0079  0.1970
50929W        W51793   5.379  26.513  23.507  0.1293  0.2877 -0.2261
50930W        W51794   8.009  27.357  21.836 -0.3350 -0.2258 -0.2254
50931W        W51795   6.112  27.106  23.344 -0.1580  0.0608 -0.2653
50932W        W51796   7.339  27.817  24.578 -0.0671 -0.1102  0.0470
50933W        W51797   4.287  28.554  23.899 -0.4709  0.0939 -0.0797
50934W        W51798   4.648  27.972  21.932  0.0524 -0.0378 -0.1667
50935W        W51799   5.649  27.274  21.984  0.0330  0.0126  0.0701
50936W        W51800   6.597   1.430  25.390  0.1883  0.0053  0.1774
50937W        W51801   4.851  26.574  24.225 -0.0475  0.1521 -0.0536
50938W        W51802   3.241  25.646  26.704  0.0235 -0.1524  0.0198
50939W        W51803   3.224  27.066  22.601 -0.0044 -0.1205 -0.1989
50940W        W51804   5.839  27.962  22.534 -0.1456  0.1496  0.0475
50941W        W51805   6.319  29.057  25.481 -0.1151 -0.1242  0.0688
50942W        W51806   6.760  28.024  24.386 -0.3201 -0.1844  0.1268
50943W        W51807   6.828  26.730  22.990 -0.1836 -0.0256 -0.1723
50944W        W51808   6.232  28.324  24.155 -0.2003  0.1362  0.0480
50945W        W51809   5.717  27.305  26.250  0.0805  0.0421 -0.3802
50946W        W51810   5.857   0.412  25.338 -0.0227 -0.1679  0.1156
50947W        W51811   5.781   0.264  23.547 -0.3322  0.2368  0.2627
50948W        W51812   2.685  26.564  23.152 -0.0769 -0.1073  0.3176
50949W        W51813   7.953  24.668  23.233  0.0601  0.0541  0.3149
50950W        W51814   3.937  28.198  23.067  0.1123  0.3096 -0.0110
50951W        W51815   8.038  27.356  21.180  0.0185 -0.1891 -0.1348
50952W        W51816   7.248  27.219  20.960 -0.1754 -0.4645 -0.1449
50953W        W51817   6.172   0.077  24.978  0.1487 -0.3188  0.3239
50954W        W51818   7.007   2.438  20.875  0.0878 -0.0132 -0.3122
50955W        W51819   4.363  26.703  24.799  0.0151 -0.1769  0.1698
50956W        W51820   4.942  24.086  24.304 -0.2959  0.1284  0.0427
50957W        W51821   6.928   0.706  25.876  0.0841 -0.1099  0.1860
50958W        W51822   9.206  24.720  26.006 -0.1115 -0.4685  0.0094
50959W        W51823   2.508  25.622  25.253  0.1549 -0.0240  0.1045
50960W        W51824   8.659  27.332  23.946 -0.1071  0.0104 -0.4034
50961W        W51825   3.828  27.754  21.481  0.0443 -0.3028  0.0647
50962W        W51826   3.743  26.807  25.809  0.0162  0.1360 -0.0330
50963W        W51827   8.354  28.974  25.164  0.1153  0.0266 -0.1178
50964W        W51828   6.367   1.202  26.467  0.0293  0.1494  0.0845
50965W        W51829   4.563  27.602  23.721  0.3071  0.3572 -0.3536
50966W        W51830   5.716   0.061  22.664 -0.0907 -0.1677  0.0128
50967W        W51831   5.188   0.735  25.287  0.3290  0.4316 -0.0364
50968W        W51832   4.576   0.535  22.829  0.1153  0.0169  0.0754
50969W        W51833   8.702  26.803  23.192 -0.1688 -0.0243 -0.3330
50970W        W51834   4.734   0.027  23.643  0.0088  0.1525 -0.1985
50971W        W51835   2.329  27.236  26.955  0.0244  0.0609  0.0331
50972W        W51836   8.031   1.923  22.460 -0.2016 -0.0119 -0.4345
50973W        W51837   7.069   0.801  24.954  0.0141  0.1204 -0.1899
50974W        W51838   4.857   2.251  25.222 -0.0047 -0.1707 -0.2945
50975W        W51839   6.548  26.190  24.380 -0.0355  0.0776  0.0966
50976W        W51840   5.071  26.163  24.367  0.0668  0.1255 -0.0981
50977W        W51841   5.834  27.953  27.186  0.1110 -0.0436  0.1804
50978W        W51842   5.109   0.472  21.664  0.1587  0.0351  0.2235
50979W        W51843   6.390  25.424  21.014  0.2131 -0.2033  0.2299
50980W        W51844   0.898  28.856  28.987 -0.1975 -0.0740 -0.0736
50981W        W51845   2.779  27.957   0.533 -0.1145 -0.0656 -0.0681
50982W        W51846   6.277  28.504  24.641  0.0669 -0.2335 -0.1764
50983W        W51847   8.064   1.984   1.239 -0.2173  0.3402  0.3179
50984W        W51848   6.251   0.946  26.071 -0.3242 -0.1865  0.1684
50985W        W51849   5.485  27.792  27.514  0.1722  0.2208 -0.0412
50986W        W51850   3.909   0.519  25.700 -0.1917  0.1841  0.2281
50987W        W51851   5.712   0.220  24.862 -0.0307  0.1091 -0.2686
50988W        W51852   5.084   0.507  28.488  0.0177  0.1418 -0.4332
50989W        W51853   2.881   0.273   0.266 -0.0725 -0.5697 -0.2098
50990W        W51854   5.267  26.171  26.939 -0.1987 -0.0611  0.1233
50991W        W51855   7.552  27.856  27.897  0.1355 -0.0455  0.0156
50992W        W51856   6.164  27.628  26.843 -0.5447  0.2840 -0.0173
50993W        W51857   7.867   1.359  27.658  0.1473  0.1892  0.0499
50994W        W51858   4.328  25.585  28.234 -0.3130 -0.0256 -0.0081
50995W        W51859   6.538   0.789  26.804 -0.0763 -0.2415 -0.0316
50996W        W51860   4.446  26.428  23.980  0.0837  0.0088 -0.1769
50997W        W51861   3.484  27.187  28.103  0.1873  0.1077  0.0825
50998W        W51862   5.388  27.036  27.389  0.1104  0.2850  0.1682
50999W        W51863   8.453  25.867  25.058  0.1187  0.1908 -0.0933
51000W        W51864   7.236   2.219   0.184  0.0931 -0.1396 -0.1742
51001W        W51865   8.025  26.248  26.985  0.2344  0.0117 -0.2691
51002W        W51866   8.226   1.705  27.621  0.1147  0.3643 -0.0989
51003W        W51867   1.848  27.731   0.325  0.2005 -0.3091 -0.0279
51004W        W51868   5.306  28.360   0.130  0.2507 -0.1452  0.0640
51005W        W51869   5.558  28.658  27.456 -0.0167 -0.1233  0.2899
51006W        W51870   7.393  27.792  28.713 -0.1112 -0.0744  0.1029
51007W        W51871   5.343   0.291  25.347  0.0369  0.0802 -0.0922
51008W        W51872   8.712   0.401  27.929 -0.0616 -0.3089  0.0291
51009W        W51873   3.890  28.767  26.943 -0.2213 -0.4490 -0.1047
51010W        W51874   4.944  27.266   0.894 -0.2791  0.0741 -0.1179
51011W        W51875   6.006   2.451   1.165  0.0781 -0.1402 -0.3562
51012W        W51876   4.872  27.370   0.392 -0.0956 -0.2058 -0.0335
51013W        W51877   5.737  27.192  29.111  0.0767 -0.2094 -0.0480
51014W        W51878   2.908  27.127   0.724 -0.1084  0.1206  0.0305
51015W        W51879   9.205  28.734   0.250  0.1163  0.0544 -0.0523
51016W        W51880   6.336  26.927  23.768  0.2156  0.0628  0.1572
51017W        W51881   5.033  29.095   0.198  0.0321 -0.0296 -0.6315
51018W        W51882   8.243   0.226  26.376 -0.2811  0.2684  0.1186
51019W        W51883   5.457  27.763  26.157  0.1798  0.0632  0.0472
51020W        W51884   9.502  26.146  25.108  0.2230  0.1414 -0.2872
51021W        W51885   4.432  28.560  28.126 -0.1874 -0.0364 -0.0572
51022W        W51886   6.495   0.122  28.110  0.1021 -0.4326  0.1420
51023W        W51887   5.973  27.324  25.847  0.1685 -0.3722  0.0971
51024W        W51888   7.463   0.712  25.278 -0.2389  0.1927 -0.0752
51025W        W51889   4.097   0.047  27.217 -0.0380 -0.2497 -0.1414
51026W        W51890   2.469  25.204  27.858 -0.0772  0.1559  0.0544
51027W        W51891   5.663  27.138  25.371 -0.1936  0.2257  0.2578
51028W        W51892   4.431  27.556  25.858 -0.1136 -0.2234  0.0081
51029W        W51893   5.024  27.884  25.881  0.2404  0.0765  0.2618
51030W        W51894   6.302   0.427   1.207 -0.2386  0.0237 -0.1743
51031W        W51895   7.219  28.789  27.864  0.0942  0.2136 -0.0124
51032W        W51896   7.445   0.740  27.048  0.0960 -0.0190 -0.0967
51033W        W51897   5.965  27.710  27.659 -0.0212  0.0881  0.1023
51034W        W51898   6.388  26.557  24.733 -0.1228 -0.0039  0.1210
51035W        W51899   4.407   0.445  23.859 -0.0894 -0.0320 -0.0554
51036W        W51900   3.544  27.646  27.326  0.1327 -0.3844  0.2009
51037W        W51901   7.506  27.608  24.153 -0.3831 -0.0021 -0.1746
51038W        W51902   4.333   0.835  24.770  0.1325  0.0820 -0.2019
51039W        W51903   3.808  27.848  26.580 -0.0876 -0.0159 -0.1538
51040W        W51904   5.384  24.993  24.400 -0.0488  0.1289  0.0592
51041W        W51905   6.110   0.751  26.471  0.1980 -0.4460  0.0891
51042W        W51906   4.024  27.908  27.469  0.3744 -0.0816  0.1713
51043W        W51907   4.411  27.398  27.181  0.0577  0.0487 -0.0792
51044W        W51908   5.579  26.601  26.964 -0.1080 -0.3024  0.0973
51045W        W51909   6.826  22.608  27.736 -0.0763  0.0843 -0.1917
51046W        W51910   3.479  27.808  26.182  0.0187  0.1611 -0.1256
51047W        W51911   2.361  27.279  22.276  0.2615 -0.1314  0.1072
51048W        W51912   6.406   2.600  25.631  0.1639 -0.2984  0.0301
51049W        W51913   4.577  27.369  27.723 -0.0678  0.1403  0.1543
51050W        W51914   6.689   1.524   0.680  0.1424 -0.1566  0.0392
51051W        W51915   4.651   0.448  27.297  0.2174 -0.0650 -0.0405
51052W        W51916   8.794   0.993  26.501  0.2277  0.1565 -0.0078
51053W        W51917   6.359  28.047  27.499  0.0212 -0.0550 -0.1087
51054W        W51918   8.363   0.540  25.940  0.1459  0.0767 -0.3049
51055W        W51919   4.894   1.016  28.052 -0.0455  0.1889 -0.1602
51056W        W51920   4.105  27.282  26.110  0.3066 -0.1292  0.0176
51057W        W51921   5.586  28.327  26.685  0.1846  0.0372  0.0560
51058W        W51922   6.181  26.609  27.338  0.0422 -0.0552 -0.0003
51059W        W51923   8.337  28.348  26.546  0.1546 -0.0351 -0.1217
51060W        W51924   3.728  26.550  28.643 -0.0578  0.1138  0.0050
51061W        W51925   3.761  27.492   0.312 -0.3824 -0.1307  0.0067
51062W        W51926   5.788  26.812  27.664  0.2571 -0.0863  0.0302
51063W        W51927   7.698  27.984   0.087 -0.1279  0.1795 -0.1869
51064W        W51928   7.575   0.375  27.403 -0.2398 -0.1322  0.1896
51065W        W51929   6.299  26.564  25.340 -0.2953 -0.1082  0.1020
51066W        W51930   7.807   0.061  27.754  0.1493  0.2984 -0.1526
51067W        W51931   6.513  28.301   1.391  0.1361  0.0743  0.0750
51068W        W51932   4.291   0.274   0.235 -0.0580  0.0971  0.0235
51069W        W51933   7.996  27.159  27.088 -0.1488 -0.4214  0.1107
51070W        W51934   6.439  26.836  26.519 -0.2918  0.0055 -0.1010
51071W        W51935   5.797  28.772   1.259 -0.0228  0.0123 -0.1321
51072W        W51936   4.339   0.987  25.607 -0.0254  0.1171  0.1224
51073W        W51937   5.378  28.290  27.880 -0.0768 -0.2145 -0.0337
51074W        W51938   3.475  26.834  29.085  0.1209  0.1265 -0.0625
51075W        W51939   7.446  26.738  27.488 -0.0956 -0.0026 -0.1866
51076W        W51940   6.145  25.045  24.956  0.0217 -0.0669  0.0836
51077W        W51941   4.982   1.337  28.841  0.0242  0.0608  0.1721
51078W        W51942   8.837  26.220  25.343  0.0375  0.1455  0.0350
51079W        W51943   7.829  28.010  26.283  0.1924 -0.1673 -0.0603
51080W        W51944   9.575   2.068  25.799  0.3634 -0.1260 -0.1031
51081W        W51945   2.603  28.732  26.934  0.0620 -0.2105  0.2620
51082W        W51946   4.067  25.454  24.725 -0.2956 -0.0627 -0.0933
51083W        W51947   7.050   0.529   0.511  0.1229  0.0900 -0.2071
51084W        W51948   7.539  26.650   0.556 -0.1420  0.1245 -0.0523
51085W        W51949   8.055  27.752  28.038 -0.1002 -0.0126  0.1182
51086W        W51950   6.341  29.036  26.025 -0.1858 -0.0892 -0.1052
51087W        W51951   5.141   2.707  27.384  0.1853 -0.4198  0.1139
51088W        W51952  10.182  28.400  24.876  0.0420  0.3202  0.1503
51089W        W51953   4.027  28.047  28.984  0.0249  0.2079  0.2423
51090W        W51954   3.737  27.645  28.727 -0.3211  0.1641  0.0625
51091W        W51955   6.962  28.532  24.718 -0.0188  0.3027  0.1602
51092W        W51956   8.062  24.920  25.459 -0.2202  0.1348 -0.4374
51093W        W51957   4.862  28.727   1.133 -0.0451 -0.2723  0.1172
51094W        W51958   5.114   0.378  24.914 -0.1021 -0.0391  0.2248
51095W        W51959   5.691   0.582   1.404  0.0371 -0.0406  0.0606
51096W        W51960   6.160  24.686   2.491  0.1805 -0.2908  0.1579
51097W        W51961   4.378  28.288   0.293  0.0574 -0.4833 -0.0164
51098W        W51962   9.518  27.825  24.939  0.0982  0.0260 -0.1874
51099W        W51963   6.194  26.399  26.349 -0.1352  0.2798 -0.2829
51100W        W51964   5.883  27.502  23.590 -0.0025  0.0172  0.1012
51101W        W51965   7.066   0.038  26.591 -0.0825  0.0112  0.3807
51102W        W51966   6.533   0.597  28.318 -0.1653  0.1324 -0.0092
51103W        W51967   7.745  28.946  26.165 -0.1792  0.0487  0.0454
51104W        W51968   4.090  28.159  25.690  0.1998 -0.0149 -0.3307
51105W        W51969   6.060  25.657  25.636  0.0367  0.1030 -0.1839
51106W        W51970   4.351  26.508  28.620  0.1103 -0.1822  0.1056
51107W        W51971   5.176  27.400  26.388 -0.0164  0.0539 -0.1942
51108W        W51972   6.991   0.969  27.130  0.2112  0.0967  0.0623
51109W        W51973   3.965  27.825  24.428 -0.0569 -0.0586  0.2104
51110W        W51974   6.879   1.042   0.475 -0.0644 -0.0210  0.2546
51111W        W51975   6.256  28.039  25.397 -0.0954  0.2084  0.2103
51112W        W51976   5.123  28.454  26.837  0.3181 -0.2068 -0.3988
51113W        W51977   7.582  28.721  27.524  0.0154 -0.1213  0.0949
51114W        W51978   8.519  27.711   0.767  0.0035 -0.2291 -0.0263
51115W        W51979   5.112  27.844   0.285 -0.0069 -0.3153  0.1226
51116W        W51980   5.737  26.357  26.557  0.0256  0.0800  0.4736
51117W        W51981   7.093  29.129   0.555  0.2102 -0.1975 -0.0279
51118W        W51982   7.639  28.702  25.740 -0.2545 -0.1595  0.3858
51119W        W51983   6.593  28.853  27.646 -0.0274 -0.0413  0.0084
51120W        W51984   3.973  25.421  27.210  0.0859 -0.3420 -0.1228
51121W        W51985   8.446  26.712   0.485 -0.0621 -0.3174  0.0564
51122W        W51986   3.902   0.141  25.147  0.2579  0.0888  0.1389
51123W        W51987   9.613   0.068  28.570  0.1354  0.3597  0.0818
51124W        W51988   6.871   0.050  27.782 -0.1324  0.2088  0.1713
51125W        W51989   9.229  27.229  27.940  0.2287  0.0376 -0.2603
51126W        W51990   8.276  28.639  26.974  0.2673 -0.0649  0.3714
51127W        W51991   6.025   0.936  28.612 -0.0997 -0.1025  0.2685
51128W        W51992   5.309   1.796  27.846  0.0285 -0.1866  0.1081
51129W        W51993   6.459  28.584  25.784 -0.0783  0.0026 -0.1820
51130W        W51994   8.872  28.995   0.542  0.0478  0.0209 -0.0948
51131W        W51995   4.076  26.521  25.642  0.3075  0.2860 -0.4033
51132W        W51996   6.904   0.319  26.200  0.0218  0.3009 -0.0797
51133W        W51997   5.198  27.583  27.135 -0.1227  0.0993 -0.1585
51134W        W51998   5.907  28.462  29.086  0.1774  0.0614  0.0535
51135W        W51999   8.056  25.588  27.992  0.2466  0.2769  0.1217
51136W        W52000   2.931  25.312  26.992 -0.2701 -0.0267  0.1970
51137W        W52001   6.777  25.850  27.599 -0.1657 -0.2067  0.4284
51138W        W52002   6.761  26.720  25.542  0.0255 -0.0085 -0.3218
51139W        W52003   5.306  27.112  26.846 -0.0600 -0.2125  0.3639
51140W        W52004   5.440  26.844  28.048 -0.4210 -0.2071 -0.1800
51141W        W52005   5.314  28.923  25.308 -0.3247 -0.2643 -0.0400
51142W        W52006   2.779  27.386  27.598  0.1454 -0.0751  0.1561
51143W        W52007  10.801  28.316   1.764 -0.0545 -0.1960 -0.3237
51144W        W52008   6.680  28.396  27.785 -0.1006  0.0688  0.1628
51145W        W52009   6.477  26.460  23.943  0.1307 -0.0319  0.1421
51146W        W52010   5.910  26.047  28.160  0.0227 -0.0222  0.0008
51147W        W52011   3.114  28.897  27.298 -0.0779  0.1557 -0.0936
51148W        W52012   6.163   0.476  27.139  0.0972 -0.0456  0.0806
51149W        W52013   5.168  27.242  24.407 -0.2790 -0.0339 -0.0547
51150W        W52014   3.760  27.496  25.245 -0.0978 -0.0913  0.0095
51151W        W52015   7.173  27.698  27.388 -0.1738 -0.0197  0.1488
51152W        W52016   4.409  26.877  26.983  0.0054  0.1172 -0.1834
51153W        W52017   5.886  27.698  24.941 -0.2121 -0.0939 -0.0415
51154W        W52018   8.170  27.723  26.553 -0.0948  0.2123  0.0105
51155W        W52019   6.252   1.056   0.145  0.0319 -0.1239  0.2112
51156W        W52020   3.264   0.583   0.024  0.2398 -0.1283  0.2593
51157W        W52021   4.367  27.328  25.255 -0.1332  0.0068  0.0874
51158W        W52022   4.550  28.927  25.758 -0.0157  0.1779  0.1689
51159W        W52023   6.840  25.883  24.099 -0.2660  0.0310 -0.0718
51160W        W52024   4.862   0.918  27.325 -0.0045 -0.2913  0.1502
51161W        W52025   5.140  28.349  25.250  0.4681 -0.1106 -0.0333
51162W        W52026   7.285   0.802  26.255  0.3759 -0.0021 -0.2903
51163W        W52027   6.084  26.168  28.680 -0.0031 -0.0252  0.0632
51164W        W52028   4.891  25.986  26.013  0.0347  0.0630  0.0189
51165W        W52029   7.206  29.130  28.737  0.1029  0.3277  0.1007
51166W        W52030   7.306  25.309  25.539 -0.1955  0.3295 -0.1828
51167W        W52031   4.379  29.051  26.788  0.0099 -0.2125 -0.2650
51168W        W52032   4.810  28.423  28.489  0.0756  0.0986  0.0340
51169W        W52033   5.949  28.445  27.014 -0.0609 -0.1085  0.0185
51170W        W52034   5.376  26.554  24.049 -0.0135  0.0271  0.0781
51171W        W52035   1.996   1.725  27.838 -0.1035  0.0278  0.5419
51172W        W52036   4.690  27.750   1.280 -0.2660 -0.3775  0.0111
51173W        W52037   4.261  24.095   1.404  0.0190  0.0036  0.0851
51174W        W52038   5.965  25.687   1.163  0.1498  0.3978 -0.1106
51175W        W52039   3.643  26.381  26.339  0.3563 -0.0862  0.1162
51176W        W52040   7.018  26.038  25.107  0.0381 -0.1679 -0.1776
51177W        W52041   2.466  25.177  28.921 -0.0399  0.2931  0.0364
51178W        W52042   6.502  28.308  28.327 -0.1321  0.0278 -0.0031
51179W        W52043   4.825  24.775  26.803  0.1937 -0.2599  0.0224
51180W        W52044   6.438  25.567  25.310 -0.3300 -0.1231 -0.0183
51181W        W52045   3.578  26.998   1.980  0.4564  0.1418  0.2066
51182W        W52046   6.098  26.963  26.209 -0.0007 -0.0104 -0.1707
51183W        W52047   5.503  24.817  25.872 -0.0805  0.1749 -0.3435
51184W        W52048   2.382  27.012   0.548  0.1732  0.1860 -0.1926
51185W        W52049   3.354  26.137  27.325  0.1679 -0.1977 -0.1639
51186W        W52050   2.877  28.862   0.065  0.2258 -0.0636  0.1093
51187W        W52051   6.393  27.097  25.527 -0.1391  0.0230  0.1376
51188W        W52052   9.300   1.087  25.150 -0.1055 -0.4396  0.0189
51189W        W52053   4.005  27.067  24.928  0.0956  0.0164  0.3931
51190W        W52054   4.829   1.560  26.664 -0.0350 -0.0911  0.0129
51191W        W52055   5.154  27.584  28.486  0.1007  0.2423  0.1094
51192W        W52056   5.697   0.356   0.475 -0.1462 -0.0926 -0.0800
51193W        W52057   4.752  24.174  28.055  0.0269  0.0441 -0.0174
51194W        W52058   8.860  28.347   0.949  0.0854 -0.0111  0.0384
51195W        W52059   6.102  24.240  24.355  0.4465  0.1103  0.1070
51196W        W52060   6.167  28.617  25.276 -0.0882  0.4455  0.1407
51197W        W52061   6.056   0.728  25.702  0.0822  0.1345 -0.2637
51198W        W52062   6.506  28.752  28.123 -0.2214 -0.1071  0.1598
51199W        W52063   2.571  27.658  27.106 -0.1680 -0.1500  0.2476
51200W        W52064   6.079  28.602  27.498 -0.1515  0.2013 -0.3332
51201W        W52065   5.378  28.257  27.245  0.0227 -0.0281 -0.2219
51202W        W52066   7.283   0.553  27.913  0.1876 -0.1145 -0.2585
51203W        W52067   3.364  25.364  23.667  0.0337  0.2388 -0.1886
51204W        W52068   7.505  27.149  22.789  0.2368  0.0371 -0.1898
51205W        W52069   4.851  27.643  28.097  0.3528  0.1807  0.2994
51206W        W52070   2.311   1.306  28.452  0.2894 -0.0124 -0.2063
51207W        W52071   8.028   0.087   0.238  0.0020 -0.0439 -0.0973
51208W        W52072   9.024  28.200  26.299  0.0723 -0.0513  0.3335
51209W        W52073   7.759   1.536  25.215 -0.0786  0.0302  0.0143
51210W        W52074   6.150  24.783   0.041 -0.0822 -0.0347 -0.0712
51211W        W52075   4.091  27.585  29.084  0.2923 -0.0976  0.4068
51212W        W52076   3.030   0.655  26.469  0.0779  0.4404  0.0512
51213W        W52077   6.531  27.541  25.271 -0.0526  0.1378  0.0626
51214W        W52078   4.815  27.176  28.814  0.1061  0.0539  0.1490
51215W        W52079   5.611   0.919  26.383  0.3128 -0.0219  0.0141
51216W        W52080   6.102  26.637  26.818 -0.1273 -0.3610 -0.0577
51217W        W52081   5.619  24.800  28.024  0.1497 -0.3734  0.1943
51218W        W52082   5.591  26.827  26.534 -0.3016  0.1799 -0.0717
51219W        W52083   5.437  28.951  29.007 -0.0256  0.0656 -0.0687
51220W        W52084   6.969  28.458  28.233  0.1165  0.0452 -0.1175
51221W        W52085   6.013  26.780   0.107  0.0285  0.1376 -0.2045
51222W        W52086   6.889  26.864  26.747  0.0254 -0.1540 -0.2621
51223W        W52087   4.424  26.412  27.294  0.1563  0.0540  0.3638
51224W        W52088   5.380   1.028  27.316  0.0980 -0.0150  0.3609
51225W        W52089   2.899  28.544  28.355  0.0777 -0.0508 -0.0816
51226W        W52090   6.629  26.524  27.577 -0.3260 -0.1610 -0.0922
51227W        W52091   6.653  27.747  26.943  0.3328  0.0627  0.0696
51228W        W52092   8.006   1.393  26.457  0.1589 -0.1747  0.0223
51229W        W52093   6.253  26.609  28.817 -0.0145  0.0217  0.0864
51230W        W52094   5.138  28.069  28.314  0.2051  0.2118 -0.1188
51231W        W52095   5.665   1.702   0.087 -0.0608 -0.1471 -0.2431
51232W        W52096   8.340   0.028   0.694 -0.4625 -0.3341  0.0005
51233W        W52097   5.768  26.125  25.649 -0.4384 -0.1898 -0.0223
51234W        W52098   4.820  25.906  25.195 -0.4147  0.1546 -0.1129
51235W        W52099   7.875   3.859  27.390 -0.0669 -0.0797  0.4541
51236W        W52100   7.000  26.831  27.239  0.2370  0.1110  0.1382
51237W        W52101   5.667  24.988  26.380  0.1669  0.1027 -0.0626
51238W        W52102   5.566  25.408  25.126  0.0892  0.2420  0.0950
51239W        W52103   8.648  27.819  26.289  0.1813  0.1752 -0.0904
51240W        W52104   6.114  25.313  28.834  0.0162 -0.0373  0.2335
51241W        W52105   3.637  25.284  27.524  0.1379 -0.0725  0.2888
51242W        W52106   6.989  28.646  27.349 -0.5052 -0.2259  0.0534
51243W        W52107   5.940  28.279  28.605 -0.3534  0.0276  0.1299
51244W        W52108   5.055  28.801  27.392 -0.3578 -0.1343  0.2747
51245W        W52109   4.276   1.327  26.081 -0.3846 -0.1405 -0.0479
51246W        W52110   2.028  28.505  26.392  0.1232 -0.1171 -0.0659
51247W        W52111   6.482  27.184  26.063 -0.1452 -0.1972  0.1957
51248W        W52112   3.920  28.071  28.043 -0.0744 -0.0748 -0.0629
51249W        W52113  10.303  28.174  27.434  0.1053 -0.2347 -0.0473
51250W        W52114   4.961   0.114  27.746  0.0893 -0.0299  0.4989
51251W        W52115   6.143  29.020  27.919  0.2080  0.2026 -0.0671
51252W        W52116   6.666  28.294  26.417  0.3128  0.0992 -0.1306
51253W        W52117   5.916  26.146  26.961  0.0971 -0.2373  0.0308
51254W        W52118   8.621   0.495  27.424 -0.1314 -0.1487  0.0973
51255W        W52119   6.206   0.435   0.377 -0.5049  0.0434  0.1550
51256W        W52120   3.612  26.785   1.556  0.2581  0.0624  0.0541
51257W        W52121   2.088  28.663   0.510 -0.0837  0.1538  0.2449
51258W        W52122   4.087  27.097  25.562 -0.3320  0.0837  0.2108
51259W        W52123   4.636  27.679  28.582  0.0121  0.1340 -0.2300
51260W        W52124   4.853  26.231  28.705  0.1660  0.0770  0.1077
51261W        W52125   5.414  26.205  24.750  0.2930 -0.0722 -0.1724
51262W        W52126   3.649  25.770  26.998 -0.1757  0.0156 -0.1469
51263W        W52127   4.237  27.702  26.336  0.3129  0.2580  0.1817
51264W        W52128   7.268   1.875  25.171  0.2755  0.1676  0.1034
51265W        W52129   7.075   0.888   0.883  0.2448 -0.0151  0.1524
51266W        W52130   6.871  28.775  26.763  0.0486 -0.1084 -0.3400
51267W        W52131   1.057  28.917  28.223 -0.3920  0.0465  0.0882
51268W        W52132   5.881  27.796  25.827  0.2848  0.0472 -0.0696
51269W        W52133   5.820  25.602  24.133  0.2667 -0.0135  0.2315
51270W        W52134   6.285  28.077  25.952  0.2227 -0.1854  0.1460
51271W        W52135   5.109  24.594  24.814 -0.2227 -0.0503  0.1030
51272W        W52136   5.873  27.587  28.153 -0.0555  0.1001 -0.1600
51273W        W52137   5.723  26.620  26.107 -0.0728 -0.2930  0.3252
51274W        W52138   4.120  26.319  26.169  0.0057 -0.1401 -0.1417
51275W        W52139   8.790  28.292  24.861 -0.1801 -0.2472  0.0384
51276W        W52140   4.197  23.652  27.604  0.1275 -0.1714  0.0057
51277W        W52141   8.848  27.828  29.137  0.1139 -0.2170  0.1349
51278W        W52142   6.780  27.460  27.668 -0.2297  0.2418 -0.1826
51279W        W52143   2.895   3.532  26.916  0.0542  0.2343  0.0593
51280W        W52144   4.393   0.239  27.666 -0.1951 -0.0366 -0.0472
51281W        W52145   3.751  26.956  27.786 -0.0697 -0.0666 -0.0709
51282W        W52146   6.349  25.168  24.460 -0.0127 -0.0096  0.2733
51283W        W52147   8.091  27.811  27.522  0.1489 -0.0795 -0.3563
51284W        W52148   7.759   1.157  26.113 -0.1609  0.1112  0.1312
51285W        W52149   8.430   1.093   1.176  0.0814 -0.2264 -0.0940
51286W        W52150   6.413  27.726  28.838 -0.1035 -0.1967 -0.0218
51287W        W52151   5.373  25.421  26.413 -0.0827 -0.0480  0.0462
51288W        W52152   5.962  27.751  26.379 -0.1154  0.1323 -0.1561
51289W        W52153   3.388  26.614  27.103  0.1374  0.0076  0.2266
51290W        W52154   7.322  26.842  26.496  0.3721 -0.0347 -0.0107
51291W        W52155   2.688  27.244   1.227  0.1321  0.0763  0.2828
51292W        W52156   4.872  25.379  23.885 -0.1549 -0.1140 -0.2644
51293W        W52157   8.536  29.132  27.678  0.1287  0.1181  0.1440
51294W        W52158   2.926   1.516   0.814  0.1421  0.1714 -0.0103
51295W        W52159   4.021   1.113   1.509 -0.3159  0.1628  0.1911
51296W        W52160   3.779  26.831  25.301 -0.3278  0.1858 -0.1796
51297W        W52161   8.469  26.524  23.950  0.2508 -0.1906 -0.0661
51298W        W52162   4.812  28.040  26.983 -0.1149 -0.0111  0.1587
51299W        W52163   3.609  27.268  26.026 -0.0709 -0.0733  0.1021
51300W        W52164   7.116  28.880   0.091  0.1960 -0.1201  0.1526
51301W        W52165   6.892  27.491  23.698  0.1459  0.2002  0.0708
51302W        W52166   5.906  26.953  28.595 -0.1284  0.1367 -0.0116
51303W        W52167   6.713  27.804  28.391  0.0662 -0.0539 -0.0864
51304W        W52168   4.286  25.678  26.935  0.0658 -0.0838  0.2477
51305W        W52169   4.245  27.415  28.665  0.1365 -0.0837  0.2558
51306W        W52170   6.536  24.964  27.242 -0.2238 -0.3667 -0.1720
51307W        W52171   4.597  28.460  26.837  0.0118 -0.5775  0.1993
51308W        W52172   5.670  28.539  25.303  0.2804 -0.0216 -0.2521
51309W        W52173   4.570  26.666   1.718 -0.0826 -0.4146  0.1745
51310W        W52174   6.209  28.415  27.930 -0.1490 -0.0814  0.0613
51311W        W52175   4.870  27.188  27.288 -0.2184  0.3760  0.0064
51312W        W52176   8.850  28.797  28.588 -0.1597 -0.0180 -0.4019
51313W        W52177   6.454  27.833   1.141 -0.0162  0.1399  0.3434
51314W        W52178   7.564  28.684   1.164  0.0060 -0.1583 -0.1836
51315W        W52179   9.458  26.951   1.335 -0.0436  0.4179  0.0318
51316W        W52180   4.382  28.128  27.182  0.0536 -0.0996  0.1106
51317W        W52181   6.907  27.585  24.731 -0.1658  0.2171  0.0411
51318W        W52182   6.311  29.048  26.536  0.0517 -0.2040  0.0873
51319W        W52183   5.520  26.648  25.021  0.0975  0.0429 -0.1114
51320W        W52184   4.050   0.600  27.673  0.2245 -0.0001  0.4235
51321W        W52185   6.934   0.204   0.127  0.2165 -0.0186  0.3860
51322W        W52186   7.259  27.217  27.487 -0.3546 -0.0683  0.0766
51323W        W52187   4.217  28.599  26.550 -0.1087 -0.2395  0.1635
51324W        W52188   3.842  29.008  28.138  0.0394 -0.2856  0.3020
51325W        W52189   4.781   2.220  27.383  0.1979 -0.1688 -0.0831
51326W        W52190   5.300  28.662  25.730  0.1262  0.0025 -0.1916
51327W        W52191   3.463  27.545  26.861  0.3844  0.2197  0.0027
51328W        W52192   8.323   1.750  26.631 -0.0534  0.0151 -0.0673
51329W        W52193   2.960  26.061  28.679  0.1168 -0.1929  0.1412
51330W        W52194   4.741  27.662  26.345 -0.1463  0.0120 -0.0205
51331W        W52195   7.723  26.211  27.441  0.1100  0.0256  0.1298
51332W        W52196   7.791   0.572  27.943 -0.1682  0.1565  0.2364
51333W        W52197   7.398  28.760  28.333  0.2475 -0.0440  0.2850
51334W        W52198   3.023  28.196  27.637  0.1785 -0.0437  0.1034
51335W        W52199   4.470  27.220  24.710 -0.3047  0.1827  0.0681
51336W        W52200   4.111   0.608  25.160 -0.0644  0.1477  0.0017
51337W        W52201   4.405  26.738  28.072 -0.0044  0.2289  0.1157
51338W        W52202   4.635  25.375  27.819  0.0818 -0.1178  0.0091
51339W        W52203   5.729  27.466  27.161 -0.0887 -0.0396  0.3281
51340W        W52204   4.599  25.351  24.307 -0.0739 -0.3980  0.0631
51341W        W52205   5.019   0.918   0.315 -0.0601  0.2049 -0.1306
51342W        W52206   5.067  28.694   0.545 -0.1046 -0.0514  0.3896
51343W        W52207   6.429  27.661  26.389  0.2016 -0.0910 -0.1838
51344W        W52208   6.007   0.276  26.606 -0.2052 -0.0258  0.1505
51345W        W52209   6.905  26.974  26.233 -0.3082 -0.1166 -0.4312
51346W        W52210   7.408   1.917  27.795  0.3289  0.2773 -0.1506
51347W        W52211   6.448   0.166  27.437 -0.0338  0.2525 -0.1062
51348W        W52212   6.487  25.538  27.278  0.1035 -0.1867  0.0875
51349W        W52213   9.643  24.974  25.692  0.1110  0.1297 -0.0408
51350W        W52214   5.278  28.292  26.228  0.0970  0.2227 -0.1963
51351W        W52215   7.667  27.918  27.266  0.0587 -0.1611 -0.0210
51352W        W52216   5.064   0.606  26.932  0.0976  0.0560 -0.1223
51353W        W52217   8.951  26.939   1.374 -0.1379 -0.1909  0.1082
51354W        W52218   5.245   0.274  26.045  0.2060  0.0984 -0.1493
51355W        W52219   4.344  25.996   0.877  0.0376  0.0938 -0.1685
51356W        W52220   5.230  28.243   1.819 -0.0558  0.3266  0.0902
51357W        W52221   8.073   0.145  25.929  0.3169  0.4778  0.2878
51358W        W52222   4.929  26.957  27.725  0.1052 -0.2246  0.0316
51359W        W52223   3.765  24.672   1.024 -0.1832 -0.0350  0.0141
51360W        W52224   6.268  26.817  27.826  0.0171 -0.1191 -0.1064
51361W        W52225   4.143  27.232   0.461  0.0345  0.0515  0.1202
51362W        W52226   1.526  26.656   0.263  0.2462  0.0378  0.1747
51363W        W52227   7.282  28.215  27.565  0.2174  0.0652  0.1282
51364W        W52228   4.910  28.898  28.243 -0.5438  0.1006 -0.2008
51365W        W52229   6.797  27.379  28.177  0.0268 -0.0111  0.0350
51366W        W52230   7.458   0.868  28.282 -0.2496 -0.1092  0.1769
51367W        W52231   4.154   1.539  28.451 -0.0806  0.1961  0.1050
51368W        W52232   5.949   0.560  29.025 -0.3667 -0.2349  0.2397
51369W        W52233   6.381   1.884   0.505  0.0835 -0.1356  0.1824
51370W        W52234   7.715   0.681   0.224 -0.0236 -0.2237 -0.1538
51371W        W52235   4.668   0.815  28.511  0.1146 -0.0874  0.2809
51372W        W52236   6.368  28.162  27.015  0.1718  0.0598 -0.3695
51373W        W52237   7.127   1.570  26.672  0.2132  0.0517 -0.2141
51374W        W52238   3.787  27.590  27.798 -0.0149  0.0081  0.0135
51375W        W52239   4.852  26.173   0.761 -0.1000  0.0881  0.2305
51376W        W52240   6.209  28.611  26.263  0.2938  0.1479 -0.1712
51377W        W52241   5.117   0.522  27.471 -0.1980  0.2459 -0.0219
51378W        W52242   6.276  29.076  27.060 -0.0673 -0.1596  0.2011
51379W        W52243   4.439  24.572  23.575 -0.0789 -0.2274 -0.0280
51380W        W52244   7.547   2.897   0.476 -0.0891  0.0031 -0.1360
51381W        W52245   7.111   4.026   3.042 -0.0264 -0.2682 -0.1509
51382W        W52246   9.980   4.139   0.246  0.2764  0.2138  0.1254
51383W        W52247  10.350   3.784   1.541  0.0407 -0.1251  0.1933
51384W        W52248   7.375   2.661   0.016  0.0002 -0.0632  0.0100
51385W        W52249   8.029   2.999   1.293  0.0163 -0.0313 -0.0177
51386W        W52250   9.499   0.632   0.757  0.0621  0.3052  0.1802
51387W        W52251   8.352   1.357   2.195  0.0199  0.0597 -0.0836
51388W        W52252   7.738   3.547   5.415 -0.0465 -0.0029 -0.4165
51389W        W52253   8.488   4.490   6.200 -0.1872 -0.2675  0.1413
51390W        W52254   8.885   0.326   4.745  0.0244 -0.1110  0.0257
51391W        W52255   9.242   1.427   3.130 -0.0602 -0.1727  0.1186
51392W        W52256  10.072  28.815   0.352  0.1884 -0.1005 -0.2625
51393W        W52257   7.133   0.443   4.613  0.2893  0.3257  0.0939
51394W        W52258   6.392  28.577   4.309  0.1627  0.4432  0.2032
51395W        W52259   6.037   4.237   6.126 -0.1748 -0.2565  0.1053
51396W        W52260  11.037   2.582   0.242  0.0323  0.0575  0.2337
51397W        W52261   7.282   2.509   2.483 -0.2540  0.1590  0.1919
51398W        W52262  11.426   1.444   2.494  0.1269 -0.4302  0.0492
51399W        W52263  10.580   2.156   3.506 -0.2028  0.2516  0.1356
51400W        W52264   7.060   1.417   4.937  0.1179 -0.2041  0.2442
51401W        W52265   8.149   0.661   4.271  0.0299  0.3441  0.1311
51402W        W52266   8.828   2.515   2.439  0.2226  0.0261 -0.3156
51403W        W52267   6.811   2.434   2.633  0.0279 -0.2569 -0.0962
51404W        W52268   7.307   1.164   0.030 -0.3778 -0.4256 -0.0088
51405W        W52269   8.352   0.173   2.427 -0.3541  0.1847  0.2247
51406W        W52270   8.224   2.941   4.522  0.3767  0.1307 -0.0417
51407W        W52271   6.039   2.463   3.559  0.0424 -0.0747 -0.1225
51408W        W52272   9.546   4.224   2.165 -0.0019  0.2457  0.1540
51409W        W52273  10.481  26.857   1.218  0.1455 -0.0675 -0.1531
51410W        W52274  10.741   1.076   4.170 -0.2500  0.0175 -0.1228
51411W        W52275   9.734   2.954   3.327  0.3149 -0.1109  0.0848
51412W        W52276   6.531   4.484   7.999 -0.1621  0.5025 -0.1416
51413W        W52277   9.069   2.941   2.279 -0.0337 -0.5347 -0.2018
51414W        W52278   6.059   2.952   3.689  0.0270 -0.0103 -0.5386
51415W        W52279   9.480   1.420   4.184 -0.3586  0.0398 -0.0223
51416W        W52280   9.905  28.101   1.468 -0.1808  0.1512  0.0555
51417W        W52281   6.207   1.440   4.147 -0.1979 -0.0662 -0.0875
51418W        W52282   8.746   2.605   3.674 -0.0602  0.1320 -0.2824
51419W        W52283   6.446   2.651   2.918 -0.1066  0.0131  0.0149
51420W        W52284  13.475   1.527   2.481  0.3400 -0.0326 -0.0668
51421W        W52285  11.852   2.977   6.153 -0.1407  0.0866 -0.2209
51422W        W52286   7.693   2.904   2.982  0.0157 -0.0755  0.3873
51423W        W52287   9.418   3.087   1.502  0.1966  0.1083 -0.0579
51424W        W52288   8.428   3.285  27.562 -0.0859  0.0554  0.3069
51425W        W52289   6.964   3.408  28.696  0.0531  0.2228 -0.1488
51426W        W52290   7.166   0.007   2.442  0.0641  0.0343  0.3085
51427W        W52291  10.221   1.475   2.866  0.1408 -0.0575 -0.0047
51428W        W52292  10.717   0.882  28.007  0.0931  0.1865 -0.0916
51429W        W52293  11.194   2.349   2.724 -0.2816  0.0678  0.0955
51430W        W52294   9.912   2.793   3.717 -0.1572  0.0777  0.1933
51431W        W52295   8.397   0.709   1.603  0.0420 -0.0221 -0.1940
51432W        W52296  11.734   3.131   2.954  0.4219 -0.2229  0.0165
51433W        W52297  10.137   1.218   3.283  0.1296 -0.3711 -0.1118
51434W        W52298   9.350   0.038   2.426  0.2449 -0.0014  0.2053
51435W        W52299   7.230   7.758   0.630 -0.0793 -0.3423 -0.0840
51436W        W52300   7.530   0.350   2.312  0.1711 -0.3827  0.2643
51437W        W52301  10.793   0.852   2.958 -0.5914  0.2458  0.1049
51438W        W52302   7.256   2.163   3.560 -0.2433 -0.1311  0.1362
51439W        W52303  10.826   1.740  28.068 -0.1311 -0.0788  0.0640
51440W        W52304  12.206   2.612  27.859 -0.0280  0.2785  0.0262
51441W        W52305   8.504   3.587   4.866 -0.0920  0.2348 -0.0617
51442W        W52306   4.902   3.672   3.386  0.0387  0.0552 -0.0228
51443W        W52307   5.926   2.362   2.250  0.0373 -0.2346 -0.1144
51444W        W52308   7.965  29.088   5.847 -0.1944 -0.0567  0.0044
51445W        W52309  11.562  27.149   2.328 -0.1615 -0.0482  0.2253
51446W        W52310   8.822   0.580   1.994  0.0900 -0.2295 -0.0591
51447W        W52311  10.443   2.282  28.778  0.2343  0.0744 -0.3397
51448W        W52312   8.572   1.883   0.133  0.3525 -0.1009 -0.0624
51449W        W52313   9.802   1.731   2.419  0.2994 -0.2102  0.1684
51450W        W52314   9.103   4.132   4.133  0.4032  0.2090 -0.0726
51451W        W52315   7.709   3.126   1.950 -0.0215 -0.3293  0.0652
51452W        W52316  11.136   4.519   0.496  0.2452 -0.1185 -0.0460
51453W        W52317   8.072   0.139   4.059  0.1419  0.0935 -0.3780
51454W        W52318  10.152   3.524   1.114  0.2632 -0.2810 -0.0085
51455W        W52319   9.294   0.373   3.288 -0.0355 -0.2503 -0.0236
51456W        W52320   8.679   0.406  28.915  0.3418  0.1531 -0.0516
51457W        W52321   8.322   5.025   5.106 -0.0014 -0.1665 -0.0423
51458W        W52322   7.130   0.663   3.021  0.0669 -0.2531  0.0713
51459W        W52323   9.526   1.691   1.562 -0.4532 -0.0599  0.2420
51460W        W52324   6.869  28.958   3.344 -0.0372  0.0708 -0.0663
51461W        W52325   7.174   1.198   4.121 -0.1148  0.0969  0.0575
51462W        W52326   8.175  29.034   1.747  0.0442  0.1232 -0.3870
51463W        W52327   9.932  27.346   3.810 -0.1201  0.1909  0.1186
51464W        W52328   8.882  28.154   7.007 -0.1200 -0.1286  0.2124
51465W        W52329   8.474   1.240  28.498  0.0003 -0.0528 -0.1595
51466W        W52330  11.969   2.399   4.036  0.2666  0.0250 -0.0056
51467W        W52331   8.504   2.039   4.265 -0.1441  0.0418  0.0350
51468W        W52332  10.089   4.576   3.582 -0.1102 -0.3230 -0.1399
51469W        W52333  10.751   1.084   5.316  0.1619  0.2265 -0.3393
51470W        W52334   9.619   0.079   1.926 -0.2231 -0.1590 -0.1590
51471W        W52335   7.120   2.436   6.058 -0.0877  0.0719  0.5337
51472W        W52336   6.743   5.741   1.480  0.0719  0.1953 -0.1592
51473W        W52337   9.394   1.682   1.069  0.3368  0.0331 -0.0568
51474W        W52338   8.099   2.123   3.947 -0.1007 -0.0161 -0.0566
51475W        W52339  12.292   0.485   1.944  0.3422  0.0273 -0.0606
51476W        W52340   9.750   0.894   1.367 -0.1188 -0.1658  0.2943
51477W        W52341   8.097   4.672   2.157 -0.0293 -0.0173 -0.0783
51478W        W52342   6.648   1.925   2.879  0.0256  0.1272  0.4138
51479W        W52343   9.657   1.171   3.422 -0.0962 -0.0450  0.1178
51480W        W52344   8.637   5.424   1.902  0.0933 -0.2438 -0.1286
51481W        W52345   7.442   1.257   4.684 -0.2281 -0.2060  0.3433
51482W        W52346  10.443   0.646  28.784  0.1684  0.1333  0.0236
51483W        W52347   9.356   4.670   2.039 -0.0500  0.1619  0.1960
51484W        W52348   7.537   2.469   3.258  0.2170 -0.1917 -0.0879
51485W        W52349   7.552   0.179   4.655  0.1139 -0.0511  0.3936
51486W        W52350   9.235   1.092   0.668  0.1737  0.0367  0.0066
51487W        W52351  10.015   5.039   2.193  0.0725 -0.0636  0.0292
51488W        W52352  11.869   0.546   3.972 -0.0846 -0.3253 -0.0451
51489W        W52353   7.579  28.777   2.389 -0.1550  0.2782  0.1957
51490W        W52354   9.193   2.722   2.709 -0.1967  0.0971 -0.0052
51491W        W52355  10.263   1.011  28.465  0.4305 -0.0266 -0.0277
51492W        W52356  11.575   1.196   0.952  0.3630  0.2618  0.0330
51493W        W52357  11.473   3.797   5.453 -0.1733  0.0964 -0.0806
51494W        W52358  11.352   1.112  28.686  0.0366 -0.3118 -0.1133
51495W        W52359   9.563   3.640   0.364 -0.1431 -0.0032 -0.0519
51496W        W52360   9.068  26.118   4.034 -0.0618  0.0790 -0.0359
51497W        W52361   9.117   2.857   4.087  0.1919  0.0130  0.1325
51498W        W52362   8.758  27.868   2.447 -0.2816 -0.0233 -0.2547
51499W        W52363  11.124   0.272   1.745  0.1159  0.0763 -0.0569
51500W        W52364   9.576  28.577  27.291  0.0180 -0.2503 -0.1930
51501W        W52365   7.728  28.402   4.390  0.1510 -0.1920  0.3668
51502W        W52366   9.435   2.409   3.003 -0.0844 -0.1433 -0.0501
51503W        W52367   8.968   3.017   1.279  0.2081  0.3922  0.0940
51504W        W52368   6.606   3.602   3.795  0.1416 -0.0473  0.0304
51505W        W52369  10.221   1.994   0.981 -0.2649 -0.1402  0.1995
51506W        W52370   9.226   0.890   2.086 -0.1195  0.0630 -0.5128
51507W        W52371   7.156   2.239   4.520  0.2032  0.1051  0.2404
51508W        W52372   7.784   5.555   4.063  0.2436  0.1640 -0.1666
51509W        W52373   9.174  28.785   2.150  0.1233 -0.2798  0.2105
51510W        W52374  11.579   4.080   6.042 -0.3502  0.1658 -0.0581
51511W        W52375   8.340   0.809   4.693  0.2526  0.2940 -0.1136
51512W        W52376   7.175   5.431   5.844  0.1469  0.1232  0.1211
51513W        W52377  11.412   0.731   1.711 -0.0598 -0.3188  0.2709
51514W        W52378  10.602   2.799   1.553 -0.0375 -0.1132  0.0382
51515W        W52379   6.950   4.152   2.077  0.0201 -0.0242  0.3839
51516W        W52380   8.309   3.492   3.484 -0.0240  0.5096  0.0324
51517W        W52381   9.817  28.506   4.317 -0.3393  0.0534 -0.0183
51518W        W52382   8.958   3.085   1.763  0.1231  0.0954  0.1365
51519W        W52383   8.811   3.116   3.760  0.2600 -0.1219 -0.1531
51520W        W52384  10.156   1.109  28.998  0.1135 -0.2800 -0.0563
51521W        W52385   8.671   0.842   2.370  0.1913  0.1375 -0.0487
51522W        W52386   5.864   4.495  27.931  0.0697  0.1432  0.3664
51523W        W52387   6.942   2.849   4.027  0.0233 -0.0724 -0.0332
51524W        W52388   8.836  28.857   3.649  0.2748 -0.2701 -0.1455
51525W        W52389   7.726  28.930   4.281 -0.0635  0.2464 -0.0288
51526W        W52390  10.788  27.396   0.394  0.0555  0.4113  0.1402
51527W        W52391  11.009   3.410  28.892  0.2485  0.2897  0.0029
51528W        W52392  11.472   1.922   3.508 -0.1124 -0.2127 -0.1387
51529W        W52393   9.655  28.712   3.338 -0.2085  0.0495 -0.1602
51530W        W52394  10.272   3.093  28.810  0.1546  0.0288 -0.0874
51531W        W52395   8.397  28.949   1.227 -0.0098 -0.0813 -0.1121
51532W        W52396  10.086  29.109   0.896 -0.0632 -0.0350 -0.1474
51533W        W52397   7.602  28.538   0.182 -0.4154 -0.1853 -0.1655
51534W        W52398   6.540  28.756   2.889  0.4332  0.3160 -0.2106
51535W        W52399   8.253   0.853   2.110 -0.2117 -0.0066  0.0718
51536W        W52400   8.590   2.937   2.370 -0.4413 -0.1102  0.0820
51537W        W52401   8.738   1.636   1.979 -0.2620 -0.1953 -0.0511
51538W        W52402   9.319   2.159   0.730 -0.1190 -0.2811  0.4818
51539W        W52403   9.888   0.274  28.184  0.1495  0.1293 -0.1258
51540W        W52404  10.796  26.409   3.337 -0.2682  0.2893 -0.1890
51541W        W52405   8.513   2.894   4.135 -0.2071 -0.5819 -0.0791
51542W        W52406   8.592  28.585   6.935 -0.2775 -0.1341  0.0419
51543W        W52407  11.833   1.970   3.111 -0.0907  0.2147  0.1653
51544W        W52408   7.781  28.383   3.763 -0.2318 -0.0113 -0.0808
51545W        W52409   8.673   1.024   1.877 -0.0990 -0.0416 -0.2576
51546W        W52410   8.011   3.031  27.813 -0.0623 -0.2569 -0.0734
51547W        W52411   6.892   5.259   1.046  0.0499 -0.1610  0.3100
51548W        W52412   7.167   3.896   4.472  0.0610 -0.1022  0.1935
51549W        W52413   8.278   3.415  28.039  0.0872 -0.1171 -0.1110
51550W        W52414   7.494   1.703   3.548  0.0824  0.0885  0.3276
51551W        W52415   7.460   3.555   4.275 -0.0718  0.1415  0.0394
51552W        W52416   8.273   1.629   2.623  0.4023  0.0039 -0.2051
51553W        W52417  10.101   2.455   0.419 -0.3401 -0.0734 -0.1897
51554W        W52418   8.606  26.591   1.722 -0.1026 -0.3437  0.3422
51555W        W52419  11.882   0.556  27.183 -0.1782 -0.0379 -0.0476
51556W        W52420   8.059   3.324   4.855 -0.0077  0.0172  0.0850
51557W        W52421   6.269   4.138   2.920 -0.2860 -0.2515 -0.0495
51558W        W52422   6.901   3.952  28.771 -0.0146  0.0099  0.0067
51559W        W52423   9.602   1.027   3.884 -0.2659 -0.0837 -0.0024
51560W        W52424   8.843  28.522  26.695 -0.1256 -0.1595 -0.1785
51561W        W52425   9.356   3.108   3.047 -0.1759 -0.2721  0.1197
51562W        W52426  10.106   1.280   1.323 -0.0504 -0.0331 -0.0696
51563W        W52427   8.392   4.079   3.018  0.1011 -0.0144  0.1489
51564W        W52428   9.032  28.537   1.404  0.1057 -0.0158 -0.4891
51565W        W52429  10.150   4.888   4.509 -0.0618 -0.2490  0.1314
51566W        W52430  11.861  28.021   2.582 -0.1393  0.1154 -0.1108
51567W        W52431   8.347   2.480   2.270 -0.2120  0.2176  0.1083
51568W        W52432   8.534   3.057   3.179  0.0373  0.2224  0.1843
51569W        W52433   7.479   4.413   0.190 -0.0193 -0.2219 -0.0851
51570W        W52434   9.816   2.605  27.959 -0.1631 -0.1245  0.0744
51571W        W52435   8.397  29.117  29.028  0.3196  0.0325 -0.0708
51572W        W52436   6.972   3.933   5.912 -0.0888  0.0742 -0.1264
51573W        W52437   8.171   3.436   5.322  0.1627  0.1589 -0.0815
51574W        W52438   8.878   0.547   3.992  0.1622 -0.1612 -0.0109
51575W        W52439   6.839   1.445   1.770 -0.4107 -0.0765  0.0235
51576W        W52440   9.125   0.174   2.028  0.0698 -0.0081 -0.1242
51577W        W52441   6.472   1.785   2.403 -0.0067  0.3987  0.1268
51578W        W52442   8.869   1.483   0.476 -0.3864  0.0999 -0.1523
51579W        W52443  10.878  28.723   2.600 -0.0270  0.1318  0.0961
51580W        W52444   7.834   0.885   0.766  0.1362  0.0640 -0.1531
51581W        W52445   8.513   2.359   5.848 -0.4606  0.0439 -0.1379
51582W        W52446  11.222   1.514  28.339  0.0406  0.1779  0.3009
51583W        W52447   7.725   2.154   3.644  0.1814  0.0220  0.2369
51584W        W52448   9.413  27.406   3.062 -0.1572 -0.1140  0.2008
51585W        W52449   9.388   1.494  28.650  0.0441  0.2075 -0.0150
51586W        W52450   8.825   3.016   4.524  0.1128  0.3008 -0.4995
51587W        W52451   7.104   1.607   2.159  0.1597  0.2820 -0.1828
51588W        W52452  11.077   3.362   0.236 -0.1008 -0.2358 -0.3707
51589W        W52453   9.587  29.052  27.133 -0.1028  0.0948  0.2030
51590W        W52454   9.857   3.250   3.836  0.1106  0.0004  0.0901
51591W        W52455   6.286   3.774   3.369  0.1726  0.0607  0.2406
51592W        W52456   8.311   2.402   5.153 -0.0284  0.0643 -0.0010
51593W        W52457   8.035  27.224   2.932 -0.2201  0.0948 -0.1794
51594W        W52458   8.261   2.481   4.329  0.0235 -0.1881 -0.2199
51595W        W52459  10.145  28.826   3.132  0.1077 -0.0675  0.3646
51596W        W52460   7.514   1.826   2.681  0.1215 -0.0948  0.0024
51597W        W52461   7.464   5.220   1.204  0.2223 -0.1387  0.1615
51598W        W52462   8.462   2.794   6.049 -0.1555  0.1034  0.0501
51599W        W52463   6.723   2.010   4.436  0.0434 -0.2259  0.0130
51600W        W52464  10.304  28.762   2.613 -0.4134  0.1657 -0.1305
51601W        W52465   8.911   0.568   2.916  0.2126 -0.1115 -0.0236
51602W        W52466  10.184   7.135   3.422  0.0173 -0.0607  0.1025
51603W        W52467  11.488  27.276   0.463 -0.4551  0.0360 -0.3351
51604W        W52468  11.115   2.858   1.614  0.2176 -0.1681  0.1236
51605W        W52469  10.807   2.637   2.583 -0.0840 -0.1180 -0.3327
51606W        W52470  10.864   3.069   2.036  0.0355 -0.2172 -0.1774
51607W        W52471  11.005   0.400   3.157 -0.0657  0.0982 -0.0673
51608W        W52472   9.830   3.217   0.720 -0.2414  0.2376 -0.0977
51609W        W52473  10.590   2.858   2.961 -0.4085 -0.0301  0.2534
51610W        W52474   6.725   0.189   4.274  0.1338  0.0946 -0.0711
51611W        W52475   8.061   2.025   5.016  0.0734  0.0209 -0.1178
51612W        W52476   7.356   2.879  25.996 -0.1713  0.2589  0.2692
51613W        W52477  11.227   2.706  27.210  0.1450 -0.3068 -0.0433
51614W        W52478   6.748   0.491   3.863 -0.2506 -0.0722 -0.1841
51615W        W52479   7.708   4.919   2.010  0.0045 -0.1208 -0.0978
51616W        W52480   9.055   2.214   3.404  0.2853 -0.1231 -0.0505
51617W        W52481   8.434  25.879   5.086 -0.0171 -0.1761  0.3677
51618W        W52482   9.974   4.948   2.790  0.0940 -0.0050 -0.2955
51619W        W52483  10.019   2.671   2.185  0.0036  0.1677 -0.0629
51620W        W52484   9.241   2.681   0.905  0.2238 -0.3007  0.3438
51621W        W52485  10.251   1.896   4.751 -0.1022 -0.0734  0.2185
51622W        W52486   8.809   0.739   3.407  0.2185 -0.2974 -0.1625
51623W        W52487   7.652  27.940   4.009  0.2661 -0.0439 -0.0723
51624W        W52488   8.366  28.748   2.984 -0.0729  0.0178 -0.0459
51625W        W52489   7.526   2.811  28.624 -0.1915 -0.0543 -0.0345
51626W        W52490  12.437   3.589   0.984  0.1041 -0.0130 -0.1212
51627W        W52491   7.829   4.579   1.634 -0.0258 -0.2030  0.2766
51628W        W52492   9.128   1.773   4.133  0.2049  0.2343  0.1339
51629W        W52493   9.275   1.474   5.084  0.2195 -0.0805  0.0510
51630W        W52494   5.956   2.417  28.689 -0.1260 -0.1026 -0.1055
51631W        W52495   8.671   2.690   4.899  0.2059 -0.0284  0.0224
51632W        W52496  10.545   4.676   1.827 -0.0561  0.0162 -0.0246
51633W        W52497   8.870  29.028   1.648 -0.0027  0.2874  0.2581
51634W        W52498   8.716   3.821   0.251 -0.2890  0.2623 -0.3467
51635W        W52499   9.752   2.819   2.786  0.0996  0.0046 -0.1853
51636W        W52500   9.671   0.582   1.771  0.0775 -0.1683 -0.0706
51637W        W52501   7.070   1.991   4.914  0.2735  0.1251 -0.4567
51638W        W52502  10.295   0.951   2.896  0.0142  0.4485 -0.0415
51639W        W52503  10.551   0.380   2.428 -0.3809  0.4092 -0.0839
51640W        W52504   7.060   1.679   3.919  0.0388 -0.0010  0.0759
51641W        W52505   9.368   0.900   6.554  0.1409 -0.0114 -0.1166
51642W        W52506  12.153   2.918   4.323  0.0344 -0.0562  0.3519
51643W        W52507   6.972   2.736   4.785  0.3657  0.3566 -0.0762
51644W        W52508   7.575   0.026  29.118  0.1440 -0.1814 -0.0593
51645W        W52509   6.907   3.032   5.236  0.1886  0.2322  0.0411
51646W        W52510   7.793   0.193  28.264 -0.0671 -0.1200  0.4099
51647W        W52511  10.714   1.323   2.674 -0.0236  0.1312 -0.1565
51648W        W52512   9.870   2.304   5.927 -0.0949  0.0908 -0.1967
51649W        W52513  10.490   0.076   3.274 -0.2759  0.0142 -0.0722
51650W        W52514   7.587   0.751   1.972  0.1695 -0.0178  0.0529
51651W        W52515   8.664   3.427  29.009 -0.3842  0.1012 -0.5119
51652W        W52516   9.542   2.779   2.318  0.2627 -0.0021 -0.1632
51653W        W52517   6.069   3.027   5.043  0.0949  0.1350  0.2825
51654W        W52518   9.804   5.398   2.696 -0.2474  0.0954 -0.1929
51655W        W52519   7.208  28.151   4.347  0.1482 -0.2550  0.0494
51656W        W52520   6.106  28.185   3.614  0.0329  0.1027 -0.1726
51657W        W52521   8.611   0.747   5.122  0.0670 -0.1125 -0.0777
51658W        W52522   8.101  28.834  27.470  0.1520  0.1090  0.1539
51659W        W52523   4.732   3.362   2.102  0.1414  0.1950  0.1097
51660W        W52524   7.644   1.164   1.605 -0.0033 -0.3889  0.1594
51661W        W52525   8.051   0.431   1.984 -0.1796  0.1315 -0.1326
51662W        W52526   7.424   0.818   1.271  0.0726 -0.3136 -0.2573
51663W        W52527   8.235   6.345   0.825  0.3609 -0.0997  0.1714
51664W        W52528   9.668   1.959   0.241  0.1342 -0.2028 -0.2185
51665W        W52529  12.853   2.854   4.662 -0.0714 -0.0296 -0.5085
51666W        W52530   9.147   1.201   3.577  0.0712  0.0026  0.2037
51667W        W52531   6.025   2.456   1.760  0.1567 -0.1005  0.0477
51668W        W52532   9.421  28.595   2.516 -0.1061  0.1469 -0.2803
51669W        W52533   9.604   1.906  28.822 -0.0005 -0.3193 -0.0467
51670W        W52534  10.478  28.849   1.111  0.1400 -0.1487 -0.1197
51671W        W52535   9.571   1.136   1.742 -0.1853 -0.0190  0.1038
51672W        W52536   8.860   1.294   4.362  0.1753 -0.0601  0.0008
51673W        W52537   5.530   3.440   3.143  0.0425  0.2360  0.0825
51674W        W52538   6.098   3.453   3.763 -0.1192 -0.0051  0.1199
51675W        W52539  11.004   2.476   1.351  0.3009  0.0144 -0.0636
51676W        W52540   8.372   1.323   4.465 -0.0009  0.0131 -0.1826
51677W        W52541  10.600   2.002   4.430 -0.1797  0.2399 -0.1483
51678W        W52542   9.461  27.970   1.330 -0.4106  0.1141  0.0444
51679W        W52543   9.456   1.435   2.106 -0.0598 -0.1317 -0.0033
51680W        W52544   7.561   3.228   1.331 -0.2706  0.0534  0.1401
51681W        W52545   7.177   0.200   3.886  0.1468 -0.0969  0.1375
51682W        W52546   7.376   2.959   3.358  0.2858 -0.0750 -0.0912
51683W        W52547  11.447   4.150   2.006  0.1826 -0.0819 -0.1052
51684W        W52548  11.082   3.403   1.751 -0.1561 -0.0603  0.1465
51685W        W52549  10.170   2.636   4.169  0.1028 -0.3501  0.2079
51686W        W52550  10.270   3.894   4.677  0.1794  0.1590  0.4054
51687W        W52551  11.437  29.093   1.941 -0.0357 -0.2709  0.0428
51688W        W52552   9.128   0.133   2.881 -0.0959 -0.1837  0.0878
51689W        W52553   7.147   3.023  28.936 -0.0454  0.2563 -0.0359
51690W        W52554   8.332  27.563   3.106 -0.3293 -0.3003  0.0570
51691W        W52555   5.649   2.904   3.961 -0.0266 -0.2558 -0.1875
51692W        W52556   8.160  28.339   1.887 -0.2975 -0.1713  0.0311
51693W        W52557   7.507   0.983   3.830  0.0378  0.1398 -0.0023
51694W        W52558   8.022   2.195   1.868 -0.0762 -0.0206 -0.1464
51695W        W52559   9.035   4.481   6.036  0.0365 -0.5950  0.5814
51696W        W52560   9.827   0.682  28.521  0.3249 -0.1643 -0.1092
51697W        W52561  11.038   0.973   1.823 -0.1813  0.0553 -0.0496
51698W        W52562   6.798   2.342   3.182  0.4800  0.1507 -0.0768
51699W        W52563   9.667   2.389   1.872 -0.0808 -0.0158  0.0521
51700W        W52564   8.473   2.769   0.569  0.3105 -0.1579 -0.0347
51701W        W52565   7.158   1.739   0.813 -0.3140 -0.1185  0.0548
51702W        W52566   5.816   1.033   5.458 -0.1944  0.2562 -0.0425
51703W        W52567   7.756   3.963   4.197 -0.0916 -0.0644 -0.1225
51704W        W52568   6.805   2.286   0.656 -0.3580 -0.1025 -0.0624
51705W        W52569   9.495   2.359  29.060 -0.1208 -0.1530 -0.0507
51706W        W52570   7.996   1.620   1.851  0.0117  0.1118  0.0834
51707W        W52571   8.465   2.127   2.591  0.0969 -0.0757  0.2250
51708W        W52572   8.855   2.385   0.554 -0.1532 -0.0744  0.2360
51709W        W52573   8.535   1.359   1.552 -0.0693 -0.4730 -0.1774
51710W        W52574   7.557   1.562   4.033  0.0835  0.0908 -0.0249
51711W        W52575  11.237   0.783   0.702  0.0171  0.0039 -0.0425
51712W        W52576  11.028   2.057   4.224  0.2397  0.0107  0.0406
51713W        W52577   8.260   3.942   5.486 -0.1572 -0.1577 -0.1544
51714W        W52578  11.013   2.138   3.714 -0.0925  0.2037 -0.0012
51715W        W52579  10.647   7.976   1.713 -0.0296  0.2728  0.0273
51716W        W52580   8.549   2.615   2.817  0.1888 -0.0570  0.0195
51717W        W52581   7.734   2.341  29.142 -0.3003 -0.0868 -0.1723
51718W        W52582   8.491   1.822   3.205 -0.2625  0.2601 -0.1002
51719W        W52583   7.212  28.806   1.571 -0.1764 -0.0943  0.1546
51720W        W52584   8.076   2.846  28.621  0.0532 -0.2678  0.1727
51721W        W52585   7.932   0.099   3.560  0.0873  0.0647  0.1926
51722W        W52586   7.490  28.115   3.134 -0.0231 -0.0392  0.5489
51723W        W52587  10.047   2.648  28.533 -0.0296  0.2714  0.1579
51724W        W52588   9.829  29.147   2.433  0.1342  0.0118  0.0997
51725W        W52589   9.036   3.770   4.455 -0.0725  0.1439  0.2516
51726W        W52590   7.347   1.744  28.640 -0.0984 -0.0796  0.0109
51727W        W52591   4.968   1.568   2.270 -0.0702 -0.0418  0.0546
51728W        W52592   8.678   4.637   2.309 -0.2315  0.0119  0.0798
51729W        W52593   8.581   0.875   0.075  0.0060  0.0079 -0.0166
51730W        W52594  10.488   0.763   1.936 -0.0496 -0.2134  0.3511
51731W        W52595   9.937   0.407   1.250 -0.1637 -0.0280 -0.1510
51732W        W52596  11.860   1.475   3.722 -0.1395  0.4835 -0.1959
51733W        W52597   9.722   2.261   2.435  0.2643 -0.0624  0.1684
51734W        W52598   8.878   2.893  28.774 -0.2803 -0.3563  0.1393
51735W        W52599  11.833   0.631  27.715 -0.0667 -0.0350 -0.0767
51736W        W52600   8.204   3.456   1.135  0.1333  0.4231  0.0074
51737W        W52601   8.863  28.861   3.171  0.1466  0.1140  0.2362
51738W        W52602   7.827  28.001   3.505 -0.6336 -0.0763 -0.1560
51739W        W52603   9.329   2.015   2.602  0.1715  0.0997  0.1297
51740W        W52604   9.542  28.467  29.005  0.2753 -0.1414 -0.1721
51741W        W52605   8.912   0.859   4.772 -0.1715 -0.0776 -0.0773
51742W        W52606   8.946   1.282   2.309  0.0432  0.0390 -0.0824
51743W        W52607   8.290  27.923   2.187  0.1672 -0.1340  0.1525
51744W        W52608   7.801   2.330   0.910  0.1055 -0.2570  0.1240
51745W        W52609  11.303   1.812   1.759 -0.0403  0.3848 -0.0760
51746W        W52610   8.593   2.366   3.247  0.1120  0.0645 -0.0247
51747W        W52611  10.543   2.524   1.067  0.0835 -0.1014 -0.2608
51748W        W52612   7.827   2.899  29.126  0.1209  0.2276 -0.0123
51749W        W52613  11.617  28.684   0.356 -0.0091 -0.1826  0.0185
51750W        W52614  11.286   3.073  28.556 -0.1596  0.1226 -0.0254
51751W        W52615  12.022   0.972   3.772 -0.2085  0.1144 -0.2147
51752W        W52616   8.362   3.931  29.014  0.2428 -0.2774 -0.0077
51753W        W52617   9.394   1.895   3.219 -0.0084  0.3860  0.1717
51754W        W52618  10.154   0.421   1.700 -0.0516 -0.3923  0.0933
51755W        W52619   8.412   0.637   3.805 -0.0122 -0.0406  0.0226
51756W        W52620  10.217   2.621   2.635  0.0645 -0.1452  0.0627
51757W        W52621   9.711   3.588   1.714 -0.1725  0.4539 -0.2508
51758W        W52622   9.005   1.710   3.546 -0.1261 -0.1692 -0.0414
51759W        W52623   7.123   3.577   2.009  0.2785 -0.0582 -0.1280
51760W        W52624   8.937   2.207   3.963  0.0521 -0.1657 -0.1794
51761W        W52625  10.564   2.685  28.510  0.0831  0.1034 -0.1574
51762W        W52626   7.693   0.449   5.391  0.2607 -0.1302 -0.2399
51763W        W52627  10.488   4.874   2.543 -0.0686 -0.0803 -0.1915
51764W        W52628  10.283   4.287   2.084 -0.0523  0.1482  0.1164
51765W        W52629   7.158   2.138   2.891 -0.0472 -0.1483 -0.2494
51766W        W52630   8.512   2.159   4.719  0.2100 -0.0221  0.2551
51767W        W52631   8.971   3.308   3.246 -0.0179 -0.2184  0.0513
51768W        W52632   7.631   1.994   1.690 -0.0048  0.0384 -0.1882
51769W        W52633   7.530   1.576   1.854 -0.2387  0.2027  0.2490
51770W        W52634   8.086   1.622   4.084  0.4560  0.1904  0.1263
51771W        W52635   8.991   2.638   3.208 -0.1956  0.0273  0.0269
51772W        W52636  10.360   1.607   3.459  0.0937 -0.1583  0.0777
51773W        W52637   9.943   4.075   1.818  0.1008  0.0066 -0.1878
51774W        W52638   8.452   3.447   2.451  0.2414  0.2272 -0.3993
51775W        W52639   9.308   0.541   4.532  0.1041 -0.1903 -0.2525
51776W        W52640   9.564   0.909   2.604  0.2098  0.1503 -0.0533
51777W        W52641   7.702   3.426   2.690  0.3380  0.1399 -0.2927
51778W        W52642   6.587   2.195   0.200  0.3595  0.0003 -0.0596
51779W        W52643   9.986  28.935  28.388 -0.1625  0.3235 -0.2019
51780W        W52644   7.982   3.747   6.828  0.0208 -0.2407 -0.1417
51781W        W52645   6.517   1.211   8.955  0.0524 -0.0269 -0.2702
51782W        W52646   9.561   0.910   6.092 -0.1620  0.2034 -0.1173
51783W        W52647  10.140   0.573   6.517 -0.0774 -0.1865  0.2686
51784W        W52648   7.501   4.450   2.883  0.1160  0.1119 -0.2489
51785W        W52649   8.928   1.830   2.977 -0.0335 -0.1311  0.2963
51786W        W52650   7.929   0.723   5.706  0.0634  0.3789 -0.2047
51787W        W52651  10.511  28.421   7.702 -0.2444 -0.0269 -0.0078
51788W        W52652   8.472   5.492   8.595  0.2129 -0.1536 -0.2714
51789W        W52653  10.727   0.036   7.852 -0.2392 -0.0290 -0.0113
51790W        W52654   8.578   0.207   5.808  0.0412 -0.1856  0.2298
51791W        W52655   8.309  28.907   5.499 -0.1230 -0.0714 -0.1117
51792W        W52656   7.931   1.248   3.617  0.0840  0.1582 -0.1273
51793W        W52657   9.827   0.843   6.861 -0.0352 -0.0182  0.1955
51794W        W52658   6.990   0.339   6.038  0.1887 -0.1995  0.4447
51795W        W52659  10.186   4.345   8.899  0.2758 -0.1092 -0.2356
51796W        W52660   7.864   3.199   3.309  0.0200  0.1832 -0.3356
51797W        W52661   7.078  29.087   5.834  0.1375 -0.2023  0.1032
51798W        W52662   9.859  28.261   8.290 -0.1819  0.0477 -0.2250
51799W        W52663  11.555  28.063   4.704  0.0353 -0.0004  0.0037
51800W        W52664   9.772   0.370   6.061  0.0374 -0.1020  0.1610
51801W        W52665   9.953   1.054   7.693  0.0750 -0.1819  0.1008
51802W        W52666   9.524   2.547   7.366  0.0512  0.1212  0.1731
51803W        W52667   9.056   0.780   8.061  0.3314 -0.1294 -0.1268
51804W        W52668   8.716   2.677   7.261 -0.2218 -0.1850 -0.3597
51805W        W52669   9.087  28.180   6.194 -0.0768  0.0885 -0.4240
51806W        W52670  10.318  27.494   6.394 -0.0428  0.1083  0.1068
51807W        W52671   9.213   0.550   6.303  0.0767  0.0331 -0.0520
51808W        W52672  11.139   0.577   6.469 -0.1351  0.0072 -0.0790
51809W        W52673  10.134  28.814   6.919 -0.1444 -0.0309  0.0958
51810W        W52674   9.288   2.930   5.555 -0.4292  0.0646 -0.0793
51811W        W52675  10.445   5.192   7.909 -0.1381  0.0622 -0.0149
51812W        W52676   9.486   2.557   5.753 -0.1123 -0.0046  0.2623
51813W        W52677  10.853   0.725   7.984 -0.1218  0.1176  0.0686
51814W        W52678   7.966  29.033   7.794  0.1707  0.2352  0.0825
51815W        W52679  11.041   1.449   6.638  0.1042 -0.2476  0.0074
51816W        W52680   5.595   0.075   6.406  0.0038 -0.0075 -0.1899
51817W        W52681   9.185   1.693   7.223  0.1917  0.0328 -0.0852
51818W        W52682  14.777   3.163   4.663  0.0904 -0.0479 -0.1166
51819W        W52683   9.732   1.105   5.159  0.0832  0.2166 -0.0544
51820W        W52684   9.794  28.759   2.781 -0.0895 -0.5138  0.0487
51821W        W52685   8.139   4.790   6.865  0.2916  0.0534  0.1418
51822W        W52686   9.897   2.365   2.919  0.0336  0.2017 -0.1000
51823W        W52687   9.519   1.568   5.549 -0.1845  0.0637 -0.0298
51824W        W52688   7.771   2.972   5.087  0.4658 -0.1971 -0.0224
51825W        W52689   4.092   2.809   7.289  0.0804 -0.0775  0.0104
51826W        W52690   7.196   1.326   5.634 -0.0615  0.1392  0.1382
51827W        W52691  10.514   1.375   6.766 -0.0621  0.0363 -0.0094
51828W        W52692  11.427   5.077   1.614  0.2060  0.1487  0.0226
51829W        W52693   8.777   1.511   6.297 -0.3318 -0.2138 -0.3811
51830W        W52694   9.574   3.014   7.191  0.0233 -0.0639  0.3195
51831W        W52695   8.322   0.009   6.234  0.1965  0.1529  0.1376
51832W        W52696   9.063   0.060   5.107 -0.1594  0.0405 -0.1018
51833W        W52697   9.244   2.470   5.349 -0.0646 -0.2471 -0.0858
51834W        W52698   9.054   0.219   4.287  0.1520  0.1401 -0.2576
51835W        W52699   5.388   3.683   7.720 -0.3464 -0.3255 -0.0817
51836W        W52700   5.975  28.971   7.683  0.0808  0.2874 -0.1444
51837W        W52701   8.570   3.121   5.637  0.0205  0.3267 -0.0473
51838W        W52702   5.829   1.849   6.033 -0.1281 -0.2038  0.0658
51839W        W52703   7.319   3.066   4.891  0.3715  0.2774 -0.2991
51840W        W52704   8.781   2.547   4.428  0.2244 -0.0776  0.0639
51841W        W52705   6.328   2.223   7.196 -0.3746  0.2074 -0.0274
51842W        W52706   8.406   1.358   7.603 -0.3444  0.2284  0.0988
51843W        W52707   6.946   2.347   4.074 -0.3069  0.1280 -0.0693
51844W        W52708   8.761  28.546   8.025  0.0374  0.0194 -0.2100
51845W        W52709   8.845   0.172   3.336  0.0337  0.1743 -0.1456
51846W        W52710   7.073   1.383   3.536  0.1329  0.0432  0.2763
51847W        W52711  10.259   1.395   4.962 -0.2536 -0.1587  0.2257
51848W        W52712   7.674   2.054   5.868 -0.4268  0.2531  0.2459
51849W        W52713   9.832   3.431   3.299 -0.2897 -0.1417 -0.0048
51850W        W52714  10.409   2.971   4.615  0.1722  0.1326 -0.1520
51851W        W52715   7.095   2.572   7.093 -0.0468 -0.2883  0.0501
51852W        W52716  11.037   2.604   4.047  0.2547 -0.0836 -0.4328
51853W        W52717  12.595  28.435   8.442  0.0092  0.0950 -0.1985
51854W        W52718   9.242   2.610   3.637  0.1255  0.2397 -0.0599
51855W        W52719   7.948   5.571   8.345 -0.4098  0.0050  0.4321
51856W        W52720   5.856  27.775   4.665  0.2587 -0.0715 -0.1142
51857W        W52721   8.386   3.604   6.390  0.0781 -0.3727 -0.0615
51858W        W52722   7.875   2.850   6.114  0.3687 -0.3275  0.1721
51859W        W52723   9.489   0.914   7.832  0.0446  0.0417  0.0876
51860W        W52724   6.460   0.771   5.389 -0.3499 -0.1634  0.0376
51861W        W52725   7.895   3.426   7.243  0.0802  0.0819  0.0849
51862W        W52726   8.153  27.260   5.623 -0.0009 -0.1419 -0.2146
51863W        W52727  11.008   0.105   6.665 -0.0405 -0.0014 -0.0887
51864W        W52728   8.095   2.763   5.627  0.0370  0.2867 -0.0899
51865W        W52729  10.577  27.587   4.316 -0.0641 -0.0544  0.3750
51866W        W52730  11.571   4.824   5.365  0.2298  0.0763  0.0829
51867W        W52731  10.126  28.406   9.217  0.0996 -0.3117  0.1022
51868W        W52732  11.158   4.016   5.794 -0.1791  0.0003  0.0587
51869W        W52733  12.481  28.144   5.204 -0.1362 -0.1742  0.0719
51870W        W52734   7.284  28.652   5.395  0.1027 -0.1355  0.1314
51871W        W52735   9.765   1.984   4.737 -0.0159  0.0630  0.0472
51872W        W52736   8.295   4.868   8.338  0.1969  0.0211  0.2897
51873W        W52737   7.455   0.430   3.479  0.0153  0.2232 -0.2622
51874W        W52738  11.388   2.751   8.042 -0.0840 -0.2513  0.0404
51875W        W52739   6.641  27.461   3.231  0.4271 -0.0072  0.0935
51876W        W52740   9.288  27.598   4.751  0.3866 -0.1211 -0.0759
51877W        W52741   8.242   2.692   7.453 -0.1650 -0.0497 -0.1296
51878W        W52742   6.843   2.834   5.737 -0.0012  0.0256  0.0896
51879W        W52743   9.189   1.090   7.003 -0.0963  0.3088  0.0435
51880W        W52744   9.970   1.850   5.682 -0.0563 -0.0546  0.2105
51881W        W52745   8.466   5.774   6.593 -0.2869  0.3077 -0.1668
51882W        W52746   8.363   1.654   4.867  0.0733 -0.1011  0.1344
51883W        W52747  10.570   3.614   3.430 -0.1506  0.4367 -0.3880
51884W        W52748  10.064   0.420   8.279 -0.1557 -0.0743  0.0555
51885W        W52749  10.052   3.997   4.135 -0.2054  0.3881 -0.1825
51886W        W52750   8.504  28.918   4.063  0.0264 -0.1437  0.3811
51887W        W52751   9.599   1.867   6.632  0.4687  0.5519  0.1253
51888W        W52752   9.516  28.492   6.066  0.2662 -0.1553 -0.4228
51889W        W52753   5.669  27.273   6.192  0.1311  0.1407 -0.0739
51890W        W52754   7.423   1.991   6.314  0.0320 -0.1372 -0.1144
51891W        W52755   8.922   1.491   5.465 -0.1747 -0.1702  0.1314
51892W        W52756  11.353  28.739   8.131 -0.0230 -0.0109  0.2204
51893W        W52757  11.061   4.546   4.584 -0.0977 -0.3767 -0.2602
51894W        W52758  11.750   0.285   5.423 -0.0330  0.0372 -0.1784
51895W        W52759   6.963  29.093   5.343 -0.1109  0.0518 -0.2252
51896W        W52760  14.038   0.948   4.757 -0.4332 -0.0405 -0.2869
51897W        W52761   9.399   1.271   7.502  0.0918 -0.1434 -0.1499
51898W        W52762  10.259  26.942   8.094  0.1725  0.3108 -0.2120
51899W        W52763   9.919   0.400   4.602 -0.2865 -0.0359  0.0345
51900W        W52764  10.282   0.144   4.340  0.2176  0.0820 -0.0919
51901W        W52765   8.175   4.173   6.532  0.2315 -0.0848 -0.1408
51902W        W52766   8.346   2.926   5.194  0.2429  0.0093 -0.1092
51903W        W52767   8.218   1.129   5.975 -0.0886  0.0824  0.0942
51904W        W52768   5.646   2.646   6.650 -0.0630 -0.0474 -0.2397
51905W        W52769   7.261   0.586   6.425 -0.1539  0.0244  0.1235
51906W        W52770   9.974   0.611   5.567  0.2106  0.0503 -0.0414
51907W        W52771   9.107   0.836   7.452  0.0855 -0.1405  0.1858
51908W        W52772   9.308   5.110   6.961  0.0615 -0.3951 -0.0771
51909W        W52773   7.978   3.665   3.102  0.0623  0.1645 -0.0844
51910W        W52774  10.980   2.695   5.835 -0.0633 -0.3051 -0.1529
51911W        W52775   9.004   1.799   7.719  0.2635  0.1723 -0.2426
51912W        W52776  10.114   5.110   5.386 -0.1898 -0.1511 -0.0906
51913W        W52777  10.651   2.065   5.681  0.1475 -0.0392  0.3009
51914W        W52778  11.719  27.687   4.980  0.0320 -0.2620 -0.3151
51915W        W52779   8.903   0.018   7.641  0.0351 -0.0674  0.3514
51916W        W52780   7.477   1.724   4.902  0.0722 -0.0092 -0.1020
51917W        W52781  11.262   0.305   8.984 -0.0774 -0.0544  0.1026
51918W        W52782   8.437   3.348   4.379 -0.0669 -0.1047 -0.0038
51919W        W52783   7.079   3.491   4.790  0.3164 -0.0096  0.1686
51920W        W52784   7.489   0.008   5.486  0.4727 -0.0616  0.0986
51921W        W52785   8.632  27.405   4.881  0.0623 -0.1569  0.0825
51922W        W52786   8.723   2.368   6.834 -0.0471 -0.1440 -0.1535
51923W        W52787   7.828  28.992   6.299  0.1750  0.2774  0.2587
51924W        W52788   7.976   2.659   6.584 -0.1675 -0.0611  0.2618
51925W        W52789   8.564   0.345   7.393  0.2704  0.2511 -0.0361
51926W        W52790  11.440  28.576   4.625  0.1299 -0.1317 -0.0304
51927W        W52791   7.598   5.713   6.576 -0.0110 -0.4260  0.1231
51928W        W52792  10.161   2.763   5.138  0.3015  0.0360 -0.1423
51929W        W52793   8.016   0.816   6.417 -0.0837 -0.3389 -0.1054
51930W        W52794   6.986   3.381   5.821  0.3602 -0.3594 -0.1492
51931W        W52795   8.681   1.156   5.871 -0.0731 -0.2322 -0.4626
51932W        W52796   8.370   1.515   6.581 -0.0525  0.3373 -0.1279
51933W        W52797   8.312   3.490   3.949 -0.3063  0.1386 -0.4257
51934W        W52798   6.997   1.363   6.110  0.1756  0.0524 -0.0588
51935W        W52799   9.055   0.272   6.644  0.0503  0.0760  0.3059
51936W        W52800   7.478   1.303   5.213  0.2751 -0.1569  0.0115
51937W        W52801   9.164  27.964   5.180 -0.0107 -0.0587 -0.1706
51938W        W52802   6.700   0.633   4.468 -0.1950 -0.1537  0.0013
51939W        W52803   8.395  28.038   6.940  0.2129  0.1650 -0.2230
51940W        W52804  10.112   0.698   7.366  0.0607  0.0871  0.2352
51941W        W52805   7.770   3.808   8.410 -0.2144 -0.2675 -0.1569
51942W        W52806   8.333   2.769   6.945  0.1570  0.2265 -0.2438
51943W        W52807  10.736   3.573   6.970 -0.0213  0.0057 -0.1145
51944W        W52808  11.785   1.878   9.588  0.0969 -0.1746 -0.0436
51945W        W52809   9.253  27.857   7.139 -0.3928 -0.3645  0.0908
51946W        W52810   8.129   0.629   5.158  0.1403  0.0794  0.1276
51947W        W52811   9.191  28.719   5.629 -0.1687 -0.1770 -0.1205
51948W        W52812   7.815   6.208   6.568  0.1802 -0.1206 -0.0364
51949W        W52813   9.592   3.240   4.986  0.0255  0.3023 -0.1089
51950W        W52814   9.824   1.156   5.684 -0.3126  0.2323  0.0585
51951W        W52815  11.205   0.496   5.423  0.4559  0.2208 -0.0290
51952W        W52816  10.106  27.521   5.066 -0.2030 -0.0289  0.2556
51953W        W52817   8.687   3.572   5.324 -0.0060  0.0274  0.0131
51954W        W52818   8.923  28.458   4.682  0.1548 -0.0749 -0.1217
51955W        W52819   9.822   1.680   3.346 -0.1580  0.2049 -0.1720
51956W        W52820   8.636   1.761   7.351  0.0555 -0.2845  0.2311
51957W        W52821   7.717   3.095   5.607  0.0195 -0.1681  0.1533
51958W        W52822   9.903   3.651   4.479 -0.0047  0.2302 -0.0560
51959W        W52823   8.716  28.262   5.895 -0.1630 -0.0495  0.0239
51960W        W52824   9.364   4.320   3.298 -0.1759  0.1949  0.1988
51961W        W52825  12.063   5.111   2.667  0.1882  0.1170 -0.1424
51962W        W52826   9.083   1.149   6.244  0.1055  0.2621 -0.1027
51963W        W52827   6.189   2.464   6.626  0.2776 -0.0293  0.0170
51964W        W52828   7.654   3.604   2.241 -0.0721  0.2657 -0.0148
51965W        W52829  10.417   0.823   6.964 -0.4254  0.0260 -0.0786
51966W        W52830   8.651  27.409   2.775 -0.4352 -0.0777 -0.0945
51967W        W52831   7.100   0.676   4.106 -0.0478  0.3921 -0.0918
51968W        W52832   6.491   1.245   6.076 -0.1524 -0.1533 -0.0535
51969W        W52833   6.643   1.982   5.844  0.1294 -0.1669 -0.1918
51970W        W52834   4.423   2.412   6.773 -0.0511  0.0213  0.0889
51971W        W52835   6.656   2.727   6.430 -0.0714 -0.0176 -0.0428
51972W        W52836   7.307   2.904   6.023 -0.0493  0.2481 -0.0978
51973W        W52837   9.046   0.341   7.308 -0.2841  0.3287  0.1522
51974W        W52838  10.388  26.409   7.879 -0.0432  0.1361  0.0605
51975W        W52839   8.227  28.761   6.555  0.3173 -0.2003 -0.0399
51976W        W52840   5.892  28.258   4.435 -0.0422 -0.2091  0.1239
51977W        W52841   7.007   3.721   6.373 -0.0827 -0.0867 -0.0412
51978W        W52842   5.938   1.263   4.600  0.2250 -0.2430 -0.2593
51979W        W52843  11.972  28.899   4.962  0.2148  0.0380  0.0323
51980W        W52844   8.628  28.582   6.355  0.0312 -0.0170  0.1708
51981W        W52845  10.446   0.211   7.297  0.1139  0.0897 -0.5247
51982W        W52846  10.115   3.136   6.012 -0.0933 -0.0155 -0.2247
51983W        W52847   7.525   1.722   5.571 -0.1670  0.3492  0.1356
51984W        W52848  10.414   0.937   7.958  0.0329 -0.2899  0.0260
51985W        W52849   7.479   3.406   6.037  0.2371 -0.3387  0.3858
51986W        W52850   8.735   2.965   7.774  0.0051 -0.0235 -0.3963
51987W        W52851   7.049  28.730   6.770 -0.2040  0.2688  0.1528
51988W        W52852   8.914   4.714   3.612 -0.1466  0.3753 -0.2770
51989W        W52853   7.611   3.523   4.875  0.0123 -0.1479  0.0969
51990W        W52854   7.273   2.186   5.575  0.0564 -0.1122  0.2675
51991W        W52855   8.016   2.138   7.546 -0.1355  0.1238 -0.2419
51992W        W52856   5.646   0.740   5.889 -0.1019 -0.0995  0.3953
51993W        W52857  10.863  28.146   3.481  0.0504  0.2425 -0.1426
51994W        W52858  11.526   3.425   6.400 -0.0563 -0.2485 -0.1277
51995W        W52859  10.464  29.136   6.695  0.2673  0.0070  0.0199
51996W        W52860  10.208   1.048   6.536 -0.0866 -0.1736 -0.2204
51997W        W52861   8.982   5.748   3.205  0.1182  0.2202  0.2911
51998W        W52862   8.995   0.076   5.602 -0.2587  0.1884  0.2810
51999W        W52863   9.016   3.120   7.285  0.3012 -0.0350  0.1010
52000W        W52864  10.217  26.194   7.504  0.0427  0.0872  0.2365
52001W        W52865  10.302   0.640   4.465  0.0794 -0.1591 -0.0096
52002W        W52866   7.409   3.883   5.676  0.3008  0.1372  0.2397
52003W        W52867   6.529  28.474   5.112  0.0727  0.2765 -0.0896
52004W        W52868   9.906   3.210   2.166 -0.0186  0.0082 -0.0183
52005W        W52869   9.259  27.898   7.688  0.1145  0.0085  0.0826
52006W        W52870  11.120   4.237   6.276 -0.1413 -0.0900 -0.0382
52007W        W52871  13.628  28.455   6.861 -0.0937 -0.2607  0.2544
52008W        W52872  10.040   5.079   3.650  0.0480  0.0113 -0.1556
52009W        W52873  12.687   4.151   6.989  0.2358  0.0038 -0.1407
52010W        W52874   6.243   1.639   5.854  0.1471  0.1232 -0.4157
52011W        W52875  10.413   2.158   6.240  0.2934 -0.2281  0.0440
52012W        W52876  11.886   3.258   4.040  0.3794 -0.0435  0.1519
52013W        W52877   9.972   4.281   5.137 -0.1397  0.0636 -0.0914
52014W        W52878   6.865   2.151   7.166 -0.0539  0.1301  0.0950
52015W        W52879   9.131   3.311   4.770 -0.4231  0.1111  0.0341
52016W        W52880  11.573   1.001   3.626  0.2448 -0.1615 -0.2035
52017W        W52881   9.116  27.453   6.954  0.0458 -0.2169 -0.2892
52018W        W52882  11.352   3.199   3.326  0.1612 -0.1056 -0.3906
52019W        W52883  10.524   3.586   5.311  0.0330  0.2268 -0.3764
52020W        W52884   8.156   2.727   3.219 -0.2544 -0.0630 -0.4421
52021W        W52885   9.892   2.849   7.555  0.0179 -0.0728 -0.1748
52022W        W52886   8.050  28.208  10.141 -0.2676  0.2395 -0.3460
52023W        W52887   7.951   0.111   5.043 -0.1554 -0.1123  0.0752
52024W        W52888   9.720   0.326   7.415 -0.0278 -0.3974  0.0912
52025W        W52889   9.952   1.636   4.272 -0.3977 -0.1100 -0.1738
52026W        W52890  10.015   2.756   5.621 -0.0029 -0.1998 -0.0911
52027W        W52891   7.330   2.731   7.784  0.0758  0.1668 -0.2009
52028W        W52892  10.389   4.863   3.370  0.1194  0.1404 -0.0711
52029W        W52893   7.095   0.452   5.544  0.1701 -0.2148  0.0277
52030W        W52894   8.376   1.185   5.034  0.0178  0.2770  0.3719
52031W        W52895   8.796   3.181   6.212  0.0966  0.1101 -0.2295
52032W        W52896   8.577   4.494   6.731 -0.1019 -0.0280 -0.0383
52033W        W52897   6.871   3.151   6.273 -0.0371  0.3087  0.0124
52034W        W52898   5.998   2.718   4.279 -0.0218 -0.1696 -0.0803
52035W        W52899  11.783   3.482   5.596  0.0435  0.0627  0.0668
52036W        W52900  13.092  27.763   4.508  0.0598  0.2197 -0.2827
52037W        W52901   9.401  27.425   7.932 -0.1787  0.1499 -0.0700
52038W        W52902  12.149   3.783   4.787 -0.3659  0.3578 -0.0155
52039W        W52903   9.362  27.025   7.606 -0.0758  0.3571 -0.1589
52040W        W52904   7.458   1.501   6.087  0.0720 -0.0728 -0.0369
52041W        W52905  10.095   3.512   6.385 -0.3386 -0.0100  0.1596
52042W        W52906   9.438  28.280   6.875  0.2519 -0.1655  0.1063
52043W        W52907   7.198   1.703   7.416 -0.1023 -0.0773 -0.0515
52044W        W52908   7.576   5.864   7.077  0.3530 -0.0124 -0.1136
52045W        W52909   5.489   3.871   7.178 -0.0017 -0.0800 -0.1673
52046W        W52910   9.698   3.717   3.780  0.0126 -0.0193 -0.1127
52047W        W52911  10.404   1.354   4.464 -0.0499  0.5166 -0.0482
52048W        W52912  10.830  27.916   8.346 -0.0998 -0.0489  0.0261
52049W        W52913  10.010   2.849   6.976 -0.1395  0.1992 -0.2510
52050W        W52914   7.735   4.999   5.930  0.1181  0.2449 -0.0068
52051W        W52915  10.817  28.548   4.432 -0.0461  0.1786 -0.3227
52052W        W52916   7.454   0.866   5.495  0.1210  0.2779  0.2068
52053W        W52917   9.741  28.695   7.683  0.0764 -0.2056 -0.1359
52054W        W52918   9.331   3.433   6.934 -0.0439  0.1583  0.1817
52055W        W52919   8.429  27.071   8.144  0.0583 -0.1346 -0.2018
52056W        W52920   6.661  28.534   8.713 -0.0968  0.1213  0.3612
52057W        W52921   9.330   4.104   5.942  0.0243 -0.0450  0.5668
52058W        W52922   7.728   1.269   5.665  0.0963  0.0798  0.1196
52059W        W52923   7.203   2.793   8.403 -0.2509  0.0811  0.0977
52060W        W52924   7.621   2.589   5.759 -0.0030  0.0494  0.1766
52061W        W52925  10.680   3.998   5.592 -0.0103  0.1869 -0.0502
52062W        W52926   9.308   2.994   6.597 -0.2672 -0.0717 -0.1094
52063W        W52927   8.573   5.785   7.106  0.3599  0.1321  0.1619
52064W        W52928   6.724   1.507   5.708 -0.1570  0.2912 -0.0008
52065W        W52929  11.525  28.999   8.950  0.3360 -0.2359  0.1537
52066W        W52930   6.668   2.043   5.356  0.1701 -0.2616 -0.2231
52067W        W52931   6.504   0.805   8.621 -0.3207  0.2975  0.0871
52068W        W52932  10.674   0.015   2.761  0.0493 -0.0116 -0.0845
52069W        W52933   8.072  28.416   3.323  0.1084  0.1146 -0.0076
52070W        W52934   9.502   0.131   4.790  0.1059 -0.2139  0.2559
52071W        W52935  10.356  28.188   3.625  0.3615  0.2244 -0.0805
52072W        W52936  10.406   1.869   5.285  0.0273  0.2559  0.0187
52073W        W52937  10.573   3.682   6.496 -0.2237  0.3087  0.0180
52074W        W52938   7.776   4.289   8.189 -0.1275 -0.0030 -0.3084
52075W        W52939   7.018   2.417   5.164  0.0516  0.1448  0.2593
52076W        W52940  10.671   1.356   8.007 -0.0857 -0.0924 -0.1063
52077W        W52941  10.382   4.418   4.679 -0.2345 -0.1340 -0.2300
52078W        W52942  12.605  28.738   7.470  0.1186 -0.0127 -0.2043
52079W        W52943   5.964   4.741   3.134 -0.0146  0.0632  0.2276
52080W        W52944   8.906   0.695   5.538  0.3365 -0.0083 -0.3477
52081W        W52945   9.223  28.490   5.122  0.1298  0.1928  0.3159
52082W        W52946   9.405   3.421   8.207  0.1914  0.1607 -0.0828
52083W        W52947  11.515   4.798   6.325  0.0804 -0.1641 -0.1037
52084W        W52948  10.100   2.263   5.107  0.0630 -0.0353 -0.3537
52085W        W52949  11.780   2.435   5.104  0.0644  0.0461 -0.0435
52086W        W52950  11.132   2.612   7.058 -0.0952  0.0894  0.1828
52087W        W52951  10.699  26.356   4.337  0.0840  0.3543 -0.0768
52088W        W52952   6.719   0.811   6.794 -0.0547 -0.4849 -0.0100
52089W        W52953   6.163   4.254   6.620 -0.1348  0.1339 -0.1275
52090W        W52954   7.921   1.515   4.599 -0.0069 -0.2878  0.0150
52091W        W52955   9.651   2.632   6.698 -0.0671  0.0297 -0.2202
52092W        W52956   8.308  25.902   3.848  0.0834 -0.0085 -0.0672
52093W        W52957   8.846   3.519   6.635  0.1281 -0.1915 -0.1276
52094W        W52958   8.470   4.943   6.470  0.1985  0.0132 -0.1104
52095W        W52959  11.073   4.467   5.408  0.2761  0.1635 -0.3798
52096W        W52960   7.892  29.100   6.779 -0.3976  0.0758  0.0664
52097W        W52961   7.925   1.073   4.808 -0.3593  0.2238 -0.0017
52098W        W52962   7.607   2.165   4.753 -0.0549 -0.3241 -0.0747
52099W        W52963   8.753   2.676   5.363 -0.0347  0.0617 -0.0678
52100W        W52964   7.916   1.617   6.855 -0.0910 -0.1932 -0.0070
52101W        W52965  11.278   3.255   2.369  0.1950  0.0550 -0.0078
52102W        W52966   7.669   2.288   9.499  0.1813  0.0278 -0.0407
52103W        W52967   8.753   1.806   6.795  0.1334 -0.1635 -0.3240
52104W        W52968   9.546   4.667   6.812  0.1626  0.0074 -0.1255
52105W        W52969   8.761   5.810   7.591  0.1324  0.0720  0.0768
52106W        W52970   7.362  28.048   2.114 -0.0750 -0.1582 -0.1226
52107W        W52971  10.146   3.470   2.505  0.0018  0.1811  0.1619
52108W        W52972   7.456   2.613   4.875 -0.0359  0.0538 -0.5937
52109W        W52973   5.452   1.075   4.650  0.1651 -0.0057  0.3467
52110W        W52974  10.660   1.676   4.786 -0.1340 -0.1578 -0.0843
52111W        W52975   9.897  28.940   4.681 -0.0546  0.3020 -0.0807
52112W        W52976  11.637  28.588   6.746  0.2491  0.1792  0.0187
52113W        W52977  11.362   3.520   7.737  0.1588 -0.0565 -0.0636
52114W        W52978  10.640   1.361   6.232 -0.0253 -0.1874 -0.1072
52115W        W52979  10.675   2.957   7.364  0.2279  0.4705  0.1473
52116W        W52980   8.232   3.220   7.711  0.1184 -0.1955  0.0190
52117W        W52981  11.858   2.484   4.524 -0.5756 -0.0329  0.0827
52118W        W52982   6.172   1.213   5.058  0.1090  0.2119  0.0397
52119W        W52983   9.083  25.432   3.474  0.0735 -0.0712  0.4772
52120W        W52984   4.712   3.717   5.891 -0.0506 -0.2373  0.2430
52121W        W52985   7.621   1.355   7.482 -0.3383 -0.0272 -0.0543
52122W        W52986   7.623   2.049   6.822  0.2198 -0.2658 -0.2726
52123W        W52987   7.032   5.089   7.452 -0.1657 -0.0854  0.3604
52124W        W52988   7.454   0.453   5.847 -0.2188  0.0858  0.0843
52125W        W52989   6.390   4.313   5.447  0.0542 -0.2495 -0.2473
52126W        W52990   4.893   2.092   7.057  0.2427 -0.1365  0.0614
52127W        W52991   6.345  28.363   3.140 -0.2846 -0.0670 -0.4117
52128W        W52992   6.317   0.641   6.374  0.1322 -0.1674  0.1594
52129W        W52993   7.688  26.608   2.891  0.1774 -0.1961  0.2577
52130W        W52994  11.736  27.803   7.409  0.0129 -0.1253  0.1018
52131W        W52995   8.819   1.324   4.898 -0.1274  0.2626  0.0918
52132W        W52996  10.498   2.722   6.764  0.0934 -0.0647 -0.0772
52133W        W52997   8.810   4.161   6.412  0.3291  0.3489 -0.0315
52134W        W52998   7.760   5.015   6.424  0.2406  0.2195 -0.0756
52135W        W52999   6.572   0.586   5.945 -0.0965 -0.2092 -0.0943
52136W        W53000   8.554   3.032  10.282  0.0339  0.2095  0.2319
52137W        W53001  10.215   0.855   5.259 -0.2963 -0.2020 -0.0456
52138W        W53002   4.225  27.548   6.008 -0.1151 -0.0401  0.0657
52139W        W53003   6.457  29.095   8.001 -0.2401 -0.0977 -0.0237
52140W        W53004   7.720   2.991   4.584 -0.1396  0.0988 -0.3132
52141W        W53005  11.721   0.281   6.274 -0.4185 -0.4329  0.0790
52142W        W53006   9.833   5.113   7.835 -0.1618 -0.2200  0.1808
52143W        W53007  10.253  27.242   4.639 -0.0302 -0.1638  0.2899
52144W        W53008   9.757   2.818   4.798  0.1229  0.1833  0.2164
52145W        W53009   9.032   4.236   5.384  0.1477 -0.1306 -0.0979
52146W        W53010   7.514   3.929   6.788  0.1013  0.1025 -0.0355
52147W        W53011   6.723  28.829   6.008 -0.1093 -0.1394  0.3881
52148W        W53012   7.949  27.803   5.585 -0.0468  0.0700 -0.0896
52149W        W53013  10.883   0.716   3.880 -0.0678  0.1379 -0.0221
52150W        W53014   5.888   0.047   4.025 -0.0114  0.0717  0.0246
52151W        W53015   8.904  28.200   4.186 -0.0598 -0.0404  0.2597
52152W        W53016   8.972   3.394   5.739 -0.2079 -0.1230  0.0640
52153W        W53017   8.671   2.048   6.366  0.0366 -0.2512  0.0432
52154W        W53018   9.306   2.825   4.569  0.0363  0.1131  0.0382
52155W        W53019  10.135  28.933   5.281 -0.0165  0.2145  0.0508
52156W        W53020   5.339  28.933   6.018  0.4879 -0.0249  0.1124
52157W        W53021  10.633   4.049   6.131 -0.0216  0.0301 -0.0956
52158W        W53022   9.622   0.618   4.985  0.1046 -0.2846  0.3207
52159W        W53023   5.886  28.897   6.029  0.0974 -0.1118 -0.0108
52160W        W53024   9.800   1.302   6.692 -0.0737  0.0333 -0.0925
52161W        W53025   9.715   4.138   6.642 -0.2887 -0.2251 -0.1060
52162W        W53026   5.390   2.110   6.124  0.2094 -0.2240 -0.1535
52163W        W53027  11.879   3.098   6.626 -0.3207  0.0778  0.1264
52164W        W53028   8.461   2.574   6.452 -0.1676  0.0005  0.0612
52165W        W53029  10.851   1.469   7.588  0.0962  0.0337 -0.1116
52166W        W53030   9.685   3.284   6.290 -0.1648  0.1570 -0.0353
52167W        W53031   7.961   1.587   5.219 -0.1070  0.0056  0.1301
52168W        W53032   8.351   3.112   6.415 -0.1743 -0.1150 -0.1275
52169W        W53033   9.274   3.153   6.039  0.1393 -0.0491 -0.1836
52170W        W53034   8.760   3.145   5.086 -0.2601  0.2060  0.1601
52171W        W53035   7.902   3.357   6.316 -0.1153 -0.1890 -0.0831
52172W        W53036  12.226   2.751   5.225 -0.4109 -0.0774 -0.1358
52173W        W53037   7.838   2.998   7.485  0.1443 -0.1834  0.4392
52174W        W53038   8.625   5.786   9.497  0.2202 -0.2017  0.1788
52175W        W53039   9.352   0.580   6.993  0.1835 -0.0167  0.0375
52176W        W53040  10.230   2.406   3.695 -0.1826 -0.1777  0.2113
52177W        W53041   9.182   1.104   5.776  0.1457 -0.3255 -0.0601
52178W        W53042   8.828   1.840   5.031  0.2338 -0.1266 -0.0092
52179W        W53043   4.162   1.170   6.016  0.3416  0.2850 -0.0701
52180W        W53044   6.901   3.563   8.974 -0.0824 -0.2414  0.0905
52181W        W53045  10.560   3.458   9.963  0.0425  0.1634 -0.1648
52182W        W53046   9.035   2.292   9.750 -0.1938 -0.2581  0.1391
52183W        W53047   9.350   1.109   8.327 -0.1588 -0.1523  0.0700
52184W        W53048   9.439   3.607   5.878 -0.1813  0.1669  0.1455
52185W        W53049   8.588   0.834   7.752 -0.0216 -0.1055  0.0389
52186W        W53050   9.320  28.524   8.222 -0.0628 -0.3787  0.2581
52187W        W53051  10.202   3.320  10.488 -0.2168  0.4672 -0.1632
52188W        W53052   6.408   3.885  12.684 -0.1090  0.1625 -0.1273
52189W        W53053   8.169   0.787   8.661  0.1198  0.0205  0.2309
52190W        W53054   8.244   1.645  10.989 -0.2632  0.1592  0.1419
52191W        W53055   9.043  25.769  10.806 -0.3989  0.1897 -0.1254
52192W        W53056  10.243   4.069   6.461 -0.0654 -0.2898 -0.1959
52193W        W53057  10.618   0.735  11.785 -0.0013  0.3657 -0.0613
52194W        W53058   6.892   0.630   8.368  0.0549  0.3443  0.1783
52195W        W53059   8.935   2.668  11.076  0.0118  0.0495 -0.2536
52196W        W53060   9.976   1.645   7.646  0.1697 -0.1389  0.0869
52197W        W53061   7.755  28.565   9.827 -0.2047 -0.2451  0.4015
52198W        W53062   9.515   5.650  11.901 -0.1695  0.2584  0.0159
52199W        W53063   9.673   1.205   8.782  0.0882 -0.4097 -0.1674
52200W        W53064   9.970   2.063   8.972 -0.1542  0.2235  0.2094
52201W        W53065   7.826   1.511   8.784 -0.2881  0.4637 -0.0831
52202W        W53066  10.508   0.759   8.386 -0.0969 -0.2715  0.0114
52203W        W53067   9.309   2.351  10.230  0.0982 -0.1321 -0.2818
52204W        W53068   4.749   1.489   7.823  0.1851 -0.0667 -0.0328
52205W        W53069   8.113   1.212  12.650  0.1561  0.0824  0.2598
52206W        W53070   9.551   3.781   8.501  0.0157 -0.1491  0.2900
52207W        W53071   9.511   2.483   7.876 -0.0253 -0.3105  0.1320
52208W        W53072  10.118   4.350   9.397  0.0480 -0.2635  0.3334
52209W        W53073  10.389   0.172   9.095  0.1136  0.1428 -0.0811
52210W        W53074   8.232   1.065   8.089  0.1357 -0.1532 -0.1407
52211W        W53075   9.755   2.122  10.908 -0.0073  0.4393  0.2209
52212W        W53076   8.577   2.642  10.743 -0.0519  0.3312  0.1727
52213W        W53077   9.531   2.438   8.985  0.0604 -0.1763  0.0419
52214W        W53078   8.193   1.406  10.165  0.2111  0.1295  0.3297
52215W        W53079  12.471   1.617  11.009  0.2078  0.1376  0.1063
52216W        W53080  10.057  27.575   7.084 -0.0997 -0.1187  0.0359
52217W        W53081   8.828   1.940   8.183 -0.0637  0.1711 -0.2923
52218W        W53082  10.724   2.368   7.910  0.2440 -0.0636 -0.2098
52219W        W53083  10.124  28.970  10.296 -0.0394 -0.1236  0.5443
52220W        W53084  10.852   2.299   9.305  0.1700 -0.2055  0.1654
52221W        W53085  11.418   0.648  12.050 -0.1548  0.2172  0.1211
52222W        W53086   7.481   1.891  10.895  0.2680 -0.2167 -0.2480
52223W        W53087   9.180   1.572   8.146  0.0093 -0.1725 -0.0531
52224W        W53088   8.546   3.477   8.119  0.1350  0.1268 -0.2072
52225W        W53089   9.871   3.237   8.628 -0.2906  0.0105 -0.0055
52226W        W53090  11.211   0.551  11.035 -0.2483 -0.0211 -0.3253
52227W        W53091  10.018   0.451  12.526  0.0332  0.1923  0.3177
52228W        W53092  11.170   0.835   8.851 -0.0760 -0.0671 -0.1148
52229W        W53093   9.912  29.052   8.486 -0.0145 -0.0436  0.1854
52230W        W53094   8.633   3.908   7.846 -0.0523 -0.0191 -0.3358
52231W        W53095   9.753   0.715   8.635 -0.2547 -0.0190 -0.1766
52232W        W53096  10.680   0.830  11.279 -0.2185 -0.2432  0.0149
52233W        W53097  10.278   2.602   7.303  0.2518  0.1155 -0.0465
52234W        W53098   9.937   0.009   6.568  0.2029  0.0368 -0.3760
52235W        W53099   8.635   3.550   8.645  0.1930 -0.1149 -0.2034
52236W        W53100   4.133   1.780   7.418  0.0616 -0.3184 -0.3360
52237W        W53101  10.072   3.757  11.117 -0.2399  0.3473  0.1233
52238W        W53102  10.919   3.973   7.993 -0.1522 -0.0486 -0.0715
52239W        W53103   7.779   2.860   8.660 -0.1470 -0.1077  0.1005
52240W        W53104  11.542   0.899   5.470  0.0381 -0.0291 -0.0991
52241W        W53105   8.287   2.113   8.315 -0.1654  0.0030 -0.2102
52242W        W53106   9.634   4.235   8.222 -0.1537 -0.1547 -0.5314
52243W        W53107   7.355   4.010   9.273  0.0010 -0.0646  0.0454
52244W        W53108   8.621   0.930  10.852  0.1025  0.1397 -0.1948
52245W        W53109  13.411  26.900   8.622 -0.1900 -0.1550 -0.0184
52246W        W53110   9.414   3.044   7.674 -0.4879 -0.0687  0.2211
52247W        W53111  10.364   0.508   4.961  0.2815  0.0630 -0.1379
52248W        W53112   9.118   5.905   7.965 -0.0683  0.0578 -0.0304
52249W        W53113  10.169   4.716   7.850 -0.0945 -0.2979  0.1405
52250W        W53114  11.099   3.254  11.482 -0.1712  0.0192 -0.0189
52251W        W53115   7.855   2.432  10.055  0.2470  0.0771 -0.1559
52252W        W53116  11.157   4.141   8.381  0.2177  0.1225  0.1184
52253W        W53117   9.117   2.276   8.573  0.0562 -0.3162  0.2309
52254W        W53118  12.037   3.427   7.459 -0.0214 -0.0187  0.1345
52255W        W53119   9.448   1.744  11.016  0.2912  0.1221  0.0908
52256W        W53120   4.994   1.414   8.255 -0.0197  0.1237 -0.1107
52257W        W53121   8.513  29.131   8.563 -0.0953  0.1946 -0.1670
52258W        W53122   8.288   2.162   6.737  0.3770  0.0707  0.1040
52259W        W53123   9.383   2.638   9.381 -0.0800  0.2788 -0.2432
52260W        W53124   9.644   2.086   9.999  0.0103 -0.0674  0.1833
52261W        W53125   8.499   0.130   9.149  0.2059  0.1894  0.2243
52262W        W53126   6.699   0.309   6.453  0.2688  0.1676  0.3235
52263W        W53127   9.919   0.655   9.094  0.0473  0.0452  0.2079
52264W        W53128   8.857  29.140  11.667  0.3026  0.0366  0.0395
52265W        W53129  12.236  28.466   7.674 -0.3106  0.3348 -0.0176
52266W        W53130  12.404   1.475  10.409  0.4073 -0.0422  0.2474
52267W        W53131  11.205   0.180  10.679  0.0945  0.1026 -0.1567
52268W        W53132  13.286   0.006  10.347  0.0121 -0.1268 -0.1192
52269W        W53133  10.281   0.968  10.480 -0.1685 -0.0418  0.1231
52270W        W53134  12.646  27.806   9.757 -0.1051 -0.1657 -0.1245
52271W        W53135  10.191   1.961  10.199 -0.2155  0.2489  0.1192
52272W        W53136   7.909   2.919   8.052 -0.3128  0.0541 -0.0769
52273W        W53137   8.372  29.066  10.027  0.0671  0.1391  0.2996
52274W        W53138   9.524   0.556   9.421  0.0183 -0.0682  0.0577
52275W        W53139   8.993   2.348   9.201 -0.0313 -0.0720  0.1117
52276W        W53140  10.099   1.768   7.174 -0.4064 -0.2526 -0.1470
52277W        W53141   6.691   5.136  10.971 -0.2928  0.2798 -0.0119
52278W        W53142  10.591  27.711   5.257  0.0317  0.1110  0.1413
52279W        W53143  11.183  29.140   7.615  0.2687  0.0165 -0.2231
52280W        W53144  11.550   3.757   4.351  0.0696 -0.2073 -0.4006
52281W        W53145  10.503   4.192  10.627  0.1643 -0.0934  0.1692
52282W        W53146  11.035  27.653   7.976  0.0429  0.2387  0.0262
52283W        W53147  13.215   0.325  11.145  0.0711 -0.0286 -0.0391
52284W        W53148   9.860   3.223  11.942  0.2584 -0.1208 -0.2474
52285W        W53149   9.408   2.069   8.123 -0.1102  0.1975  0.3392
52286W        W53150   9.599   2.547   9.839 -0.1844 -0.1441  0.0568
52287W        W53151   8.079   2.157   9.689  0.2721  0.1307 -0.0743
52288W        W53152  13.280  25.267   9.158 -0.1083 -0.0116  0.3449
52289W        W53153   7.896   3.785   9.112  0.2240 -0.0416 -0.2616
52290W        W53154   6.820   5.034   6.525 -0.1552 -0.0308  0.0380
52291W        W53155   9.915   2.386   8.159  0.0916  0.0812  0.0832
52292W        W53156  11.720  28.806   7.759  0.1335 -0.0096  0.0619
52293W        W53157   8.348   3.877   8.977 -0.0157 -0.2190 -0.1850
52294W        W53158   9.922   3.385   7.359 -0.3838 -0.0054  0.0171
52295W        W53159  10.381   1.627   9.607  0.1631  0.1865  0.1161
52296W        W53160  11.924  28.689  10.048 -0.4176  0.0867  0.1767
52297W        W53161   7.575   1.421   9.880 -0.1737 -0.0171  0.1600
52298W        W53162   8.597  27.972   9.502  0.0674  0.1554  0.1502
52299W        W53163   8.644   0.865   7.208 -0.1904 -0.0824 -0.2263
52300W        W53164  10.504  27.447   8.685  0.1751 -0.2619 -0.2871
52301W        W53165  10.160   2.047   8.497  0.1262 -0.2448 -0.0805
52302W        W53166   9.749   3.138  10.987 -0.3520  0.2527  0.3177
52303W        W53167  13.435  26.624   6.448  0.2860  0.4629 -0.0955
52304W        W53168   8.866  28.879   9.002 -0.0570  0.2283  0.1413
52305W        W53169   9.807  27.773   8.383  0.0670  0.0826 -0.0154
52306W        W53170  10.975  29.025  10.965 -0.1167  0.1244 -0.1188
52307W        W53171   9.944   0.964  10.880  0.0752  0.0658  0.0359
52308W        W53172  11.345   5.658   7.896  0.1877 -0.3972  0.0089
52309W        W53173  10.734   0.858  10.747 -0.1677 -0.0173 -0.0946
52310W        W53174   9.781   3.309  10.188  0.5433 -0.1809  0.0279
52311W        W53175  11.861  26.970   9.906 -0.1347 -0.1134 -0.2577
52312W        W53176   8.961   3.677  11.380 -0.1590  0.0984 -0.0011
52313W        W53177  10.871  26.556   9.119  0.3184 -0.0962 -0.0999
52314W        W53178  10.837   1.344  12.732  0.2338 -0.1934 -0.3526
52315W        W53179   5.353   2.207  12.277 -0.1426 -0.2387 -0.0497
52316W        W53180  10.018  27.678   9.889  0.0553  0.0535  0.2376
52317W        W53181  10.080   1.208   9.703  0.2031 -0.1663  0.2164
52318W        W53182   9.283   3.891   7.166 -0.1214  0.0601 -0.0073
52319W        W53183  10.442   4.525   9.657  0.1676 -0.2935  0.0384
52320W        W53184   9.337  28.163   9.088  0.3263 -0.1353 -0.1044
52321W        W53185   9.482   1.495  10.135 -0.0890  0.0867  0.0175
52322W        W53186  10.022   2.960   6.445  0.3275  0.3514  0.0313
52323W        W53187  11.318   5.237   7.095 -0.0332  0.0069 -0.2219
52324W        W53188  11.050   5.477   9.176  0.0179  0.1131  0.4065
52325W        W53189   8.868   0.094  10.203  0.1094  0.1842  0.1581
52326W        W53190  11.093  27.060  10.623  0.0871 -0.0138 -0.2519
52327W        W53191  11.956   2.419   7.042 -0.0128 -0.2363  0.0623
52328W        W53192   9.693   1.480   7.161  0.1757 -0.0167 -0.0915
52329W        W53193   9.837   1.220   9.279  0.0583  0.2389  0.2173
52330W        W53194  11.510   0.300  10.287  0.1276 -0.1023 -0.3151
52331W        W53195   9.690  26.945   7.940 -0.1669  0.1534  0.1745
52332W        W53196  12.643   0.352   8.412  0.0784 -0.2623 -0.3932
52333W        W53197   8.673   1.544   8.536  0.0868 -0.0640 -0.1725
52334W        W53198   9.214   0.722   8.579  0.2219 -0.0428  0.1897
52335W        W53199   8.881  27.319   8.096  0.1950  0.2370  0.1207
52336W        W53200   7.211   1.477   8.383 -0.0376  0.2463  0.2003
52337W        W53201   7.863   1.149   7.091 -0.1958  0.1583  0.0314
52338W        W53202   9.913   0.043   7.831  0.3131 -0.1144  0.0291
52339W        W53203   9.892   4.560   7.481  0.1436  0.1052  0.0492
52340W        W53204  12.448  27.769   9.277  0.1470  0.3466  0.0012
52341W        W53205  10.196   2.766  11.796  0.0034 -0.0356  0.2274
52342W        W53206   5.873   0.997   9.676 -0.1985  0.0414 -0.3965
52343W        W53207  10.859   5.995   9.309 -0.4098 -0.2859  0.0147
52344W        W53208   9.052   3.354   7.875 -0.1039 -0.0378 -0.0768
52345W        W53209   8.919  28.129  10.317  0.0595  0.1548  0.1557
52346W        W53210   6.475   1.195  10.926 -0.1218  0.0595 -0.0398
52347W        W53211  10.454   2.190   6.878  0.1842 -0.0571 -0.3512
52348W        W53212   9.715   3.665   9.578 -0.2942  0.0455 -0.3803
52349W        W53213   9.092   0.248   8.411 -0.0385 -0.0033 -0.0833
52350W        W53214   9.502   2.061   9.301  0.0565  0.2364  0.0373
52351W        W53215  10.968   2.572   8.798 -0.0215  0.2473  0.3188
52352W        W53216  10.588   1.096   9.841  0.3244 -0.0752  0.0390
52353W        W53217  11.474   0.681   6.092  0.2097 -0.1657 -0.2087
52354W        W53218  11.960  28.123   8.980 -0.1253  0.2893 -0.0538
52355W        W53219  11.994  25.968   7.230  0.2594  0.2528  0.2561
52356W        W53220   9.438   1.855  14.046 -0.2031  0.1715  0.2682
52357W        W53221   6.735   2.833  11.414  0.0201 -0.3443 -0.0957
52358W        W53222   5.840   3.104   6.615  0.0095  0.0815 -0.0070
52359W        W53223   8.531   3.987   9.982  0.2026  0.0022 -0.0498
52360W        W53224   9.069   5.076   7.412  0.3429 -0.0430 -0.1740
52361W        W53225  12.026   2.868   7.430  0.1513 -0.2011  0.0314
52362W        W53226  10.790   0.095   5.747 -0.0542  0.0667 -0.0966
52363W        W53227   8.193   0.310   8.720  0.1038 -0.0034  0.1639
52364W        W53228   9.550   1.258   9.682  0.0644  0.0795  0.3143
52365W        W53229   6.864   1.986   9.062  0.2845  0.0249 -0.1526
52366W        W53230  10.366   0.394   7.880 -0.3588 -0.0608 -0.0832
52367W        W53231   7.115  29.107   7.213 -0.0077 -0.2323  0.0221
52368W        W53232   8.303   2.372  10.314  0.0906 -0.1098 -0.1973
52369W        W53233   8.968   2.164   7.190  0.1299 -0.0307  0.1552
52370W        W53234  10.760   2.483   4.509  0.2215 -0.2002  0.1209
52371W        W53235   5.678   1.989   9.075 -0.0552 -0.3022 -0.1073
52372W        W53236  10.344   1.262  11.153  0.1060  0.0006 -0.0584
52373W        W53237   8.603   0.652  11.439  0.1109  0.0087 -0.0746
52374W        W53238   6.896  28.989   8.729  0.0259 -0.0045  0.3277
52375W        W53239   7.857  28.843   9.396 -0.0231  0.6145 -0.0434
52376W        W53240   9.909   0.112   5.597  0.2271  0.0547  0.2728
52377W        W53241   9.790   1.145  11.853  0.0168 -0.1498  0.0122
52378W        W53242   5.864   1.948  10.051 -0.2437 -0.1904 -0.1074
52379W        W53243  10.353   3.403  12.623 -0.2670  0.0428 -0.2404
52380W        W53244   8.335   1.311   7.091 -0.0433  0.0843  0.1096
52381W        W53245  12.614  29.087   7.941  0.1159  0.2707  0.0656
52382W        W53246  11.186   0.442   8.523 -0.2134 -0.0446 -0.3275
52383W        W53247   9.025  28.157   8.091  0.0022 -0.0359  0.1879
52384W        W53248  10.165   0.763   9.995 -0.3149 -0.1628 -0.2947
52385W        W53249   6.210  29.110   7.060 -0.1128 -0.1993  0.0303
52386W        W53250   9.058   2.173  12.385  0.0018 -0.0868  0.1030
52387W        W53251  10.954   1.793   8.064 -0.1154 -0.1609  0.0699
52388W        W53252  10.394   2.078   7.410 -0.0816  0.0072  0.0228
52389W        W53253   7.414   0.465   9.201  0.2729 -0.2746  0.2010
52390W        W53254  12.099   1.844  11.434  0.1097  0.1475  0.1376
52391W        W53255   9.269   1.345   9.171  0.0249  0.0088  0.1472
52392W        W53256   8.029   1.108   8.985 -0.0614  0.0671 -0.1414
52393W        W53257  11.776   0.254   8.688  0.0983  0.0914  0.0496
52394W        W53258   9.179   1.979  11.367  0.0266 -0.1839 -0.0982
52395W        W53259  10.548   2.999   6.333  0.0021 -0.0147  0.0621
52396W        W53260   8.415   4.548   8.712  0.0894  0.0594  0.0251
52397W        W53261   9.083   5.138   6.153  0.0289 -0.0131 -0.2325
52398W        W53262   9.330  29.089  11.870  0.1412 -0.1359  0.1351
52399W        W53263   6.252   1.880  13.481  0.1328  0.2564 -0.1286
52400W        W53264  10.350   2.412  12.100 -0.1709 -0.0983 -0.0661
52401W        W53265  10.935   0.834   9.305  0.0451  0.1095  0.1218
52402W        W53266   7.197   1.730   9.960 -0.1165  0.1500 -0.2391
52403W        W53267  10.154  27.362   8.338  0.3017 -0.0821 -0.1397
52404W        W53268  10.211   2.625   6.120 -0.2696  0.1219 -0.0938
52405W        W53269   8.417  27.805  10.439  0.0312 -0.4433  0.1348
52406W        W53270   9.493   2.586   8.361  0.1349 -0.1563  0.1601
52407W        W53271  12.562  26.812   9.208  0.4216  0.0393  0.3503
52408W        W53272   9.987   2.874   9.539 -0.0567  0.2001 -0.1958
52409W        W53273   9.128   4.874   5.599  0.0832 -0.1529  0.1185
52410W        W53274   7.088  27.347  11.030  0.1900  0.0060  0.2033
52411W        W53275   8.767   2.912  11.766 -0.1941  0.3427 -0.2332
52412W        W53276   8.309  28.998   9.490  0.1213  0.0361 -0.1144
52413W        W53277   8.317  28.605   7.742 -0.0204  0.0740  0.2863
52414W        W53278   9.992   2.562   8.742  0.0213  0.1217  0.1283
52415W        W53279   9.180  27.412   9.892 -0.1876 -0.1169  0.0285
52416W        W53280  11.503   1.929   8.217  0.3737 -0.1434 -0.5828
52417W        W53281   8.533   0.636   9.121  0.1966 -0.1436  0.1444
52418W        W53282  10.206   1.542   9.033 -0.2729 -0.2467  0.0667
52419W        W53283  10.629   4.293   8.585 -0.0767 -0.0459 -0.1752
52420W        W53284  13.435   4.588   7.213  0.1107  0.0806  0.1309
52421W        W53285   6.293   3.788  11.121  0.3701  0.0159  0.0510
52422W        W53286   9.038   0.932  10.634  0.2694  0.0358 -0.0941
52423W        W53287   9.752  28.717  10.091 -0.0585  0.0105 -0.0844
52424W        W53288  11.369   0.610   9.439  0.0352 -0.0750  0.1175
52425W        W53289   9.126   1.581   5.953 -0.2779 -0.2248 -0.0110
52426W        W53290  12.232   0.282   9.491  0.0074  0.0778 -0.0618
52427W        W53291   8.979   1.324  10.322 -0.1678 -0.2372 -0.1020
52428W        W53292  10.928   1.615   8.587 -0.2669 -0.1792 -0.0012
52429W        W53293  10.504  27.594   8.077 -0.0529 -0.0735  0.1680
52430W        W53294   7.728   0.150   8.586 -0.1843  0.1605  0.0199
52431W        W53295   8.164   6.169   8.802  0.2425 -0.1987  0.1658
52432W        W53296  10.889   3.792   9.855  0.0216  0.3394  0.1023
52433W        W53297  11.759   1.280   8.807 -0.1134  0.3715  0.2241
52434W        W53298   9.901   2.177   7.616 -0.0153 -0.0602 -0.0961
52435W        W53299  10.671   3.879   7.555 -0.2283 -0.1448 -0.1565
52436W        W53300  11.663   0.925   9.660 -0.3488  0.0474  0.0954
52437W        W53301  10.465  28.277   8.753 -0.1169  0.1805 -0.0511
52438W        W53302   9.281   3.127   9.030 -0.0881 -0.2804 -0.1416
52439W        W53303   9.645   1.626   9.057 -0.1093  0.1900  0.0959
52440W        W53304   9.446   1.697   9.577  0.1173 -0.0465  0.0026
52441W        W53305  11.370   0.739   7.940 -0.0417 -0.1720 -0.0200
52442W        W53306  11.936   4.840   9.872  0.2176  0.0389 -0.0169
52443W        W53307  10.834   0.138  11.756  0.0192 -0.1540  0.1154
52444W        W53308   7.434   5.411   8.440  0.1086 -0.1575  0.0455
52445W        W53309   7.527   3.673  10.297 -0.0453 -0.0451  0.1445
52446W        W53310   8.117   5.795   9.238  0.4113  0.0748 -0.0101
52447W        W53311   8.330   5.349   9.559 -0.0186  0.1941  0.1008
52448W        W53312   9.944   1.400  10.526  0.3457 -0.0404  0.1501
52449W        W53313   9.589  27.290   8.429  0.0728 -0.2205  0.1071
52450W        W53314  10.444   3.868   8.886  0.0184  0.1710  0.1221
52451W        W53315   8.759   3.558   9.157  0.3210  0.0261  0.0931
52452W        W53316  10.215  28.482  10.348  0.0107 -0.0066 -0.1792
52453W        W53317   8.251   2.249   8.864  0.0289  0.3385  0.0360
52454W        W53318  11.041   3.167  12.059  0.1043 -0.0808 -0.0039
52455W        W53319  13.458  28.771  11.386  0.2798  0.1420  0.2049
52456W        W53320  10.292   0.116  11.084 -0.0638 -0.2245  0.0539
52457W        W53321   8.487  27.416   7.734  0.1106 -0.0605  0.1673
52458W        W53322   9.204  28.883   9.830 -0.2808 -0.1558 -0.2501
52459W        W53323   9.303   1.548  10.605 -0.2243 -0.1507 -0.0882
52460W        W53324   8.269  28.603  10.018  0.1037 -0.0068  0.3915
52461W        W53325  11.577   1.199   6.510 -0.1002 -0.0329  0.1996
52462W        W53326  10.247  28.079   8.062  0.2894 -0.0092  0.0298
52463W        W53327   7.608   2.660  12.720  0.1050 -0.1200 -0.0189
52464W        W53328  10.962   3.216   5.954 -0.1189 -0.0617 -0.0879
52465W        W53329   8.890  27.712   8.971  0.3515  0.0200 -0.1241
52466W        W53330  11.134   1.158   7.854  0.0349  0.0672  0.0439
52467W        W53331   7.631   0.717  11.853 -0.0236  0.0887  0.1575
52468W        W53332  10.507  26.883   8.533  0.3062  0.1955 -0.2233
52469W        W53333   9.353   4.284   7.652  0.1792 -0.0215 -0.1169
52470W        W53334  10.347  29.041   8.172  0.1695 -0.1048 -0.0337
52471W        W53335  10.863  28.735   7.913 -0.0721 -0.0224 -0.0190
52472W        W53336  11.776  28.816   8.515 -0.0132  0.0485 -0.1209
52473W        W53337   9.742   2.992   8.053  0.1269 -0.2213 -0.0451
52474W        W53338  10.115   1.255   7.066  0.0374  0.3846 -0.1047
52475W        W53339  11.535  27.387   7.116 -0.1104  0.2756  0.2135
52476W        W53340  10.761  27.391  10.213 -0.0601  0.0620  0.1335
52477W        W53341  12.361   1.981  10.570  0.1029  0.0565 -0.0338
52478W        W53342   9.998   2.420  11.482  0.0057 -0.0205  0.2058
52479W        W53343   7.369   2.415   8.700 -0.1227 -0.1327 -0.0366
52480W        W53344   8.691   3.466   7.615  0.1672  0.3280  0.1721
52481W        W53345   8.575   2.126   9.890 -0.3293  0.0218  0.1017
52482W        W53346  10.048   2.246   9.774 -0.1438 -0.2470  0.0019
52483W        W53347   9.553   0.373   8.313 -0.1724 -0.1279 -0.0485
52484W        W53348   9.865   4.817  10.354  0.0237  0.2696 -0.0059
52485W        W53349   8.813   1.081   8.395 -0.1757 -0.2157 -0.2561
52486W        W53350  10.925   4.597  11.086 -0.1536 -0.0197 -0.1372
52487W        W53351  12.082  28.401   8.620  0.4071  0.0985 -0.0999
52488W        W53352   9.356  28.986   8.535  0.2482  0.0306  0.1308
52489W        W53353   5.156  28.935  10.247  0.0986  0.1180  0.0562
52490W        W53354   7.622  28.370  10.314  0.0817  0.0471 -0.0216
52491W        W53355   6.342   2.248   8.452  0.1290  0.2233 -0.0785
52492W        W53356  10.643   4.714   8.112  0.2612 -0.1725  0.2754
52493W        W53357   9.595   4.199   9.475  0.0407  0.0139  0.0509
52494W        W53358   7.024   2.421  10.372  0.1222 -0.0155  0.1270
52495W        W53359   6.640   2.288  13.078  0.2552  0.1296  0.3315
52496W        W53360  10.641  27.840   6.209  0.1884  0.1278 -0.3245
52497W        W53361  10.447   1.793   7.797 -0.0469 -0.1744 -0.3610
52498W        W53362   8.833   1.748  10.585  0.0280 -0.1090 -0.0493
52499W        W53363   9.442  28.168   8.635  0.0254  0.0258 -0.2187
52500W        W53364   6.475   1.163  10.413 -0.1013 -0.0549 -0.0023
52501W        W53365  11.994   5.203   7.554 -0.1582 -0.0569  0.3245
52502W        W53366   7.219   2.336   9.913  0.1854 -0.0280 -0.0917
52503W        W53367  12.917   0.908   7.660 -0.5426 -0.0158  0.1691
52504W        W53368   8.075   2.563   8.426 -0.2246  0.4608 -0.2288
52505W        W53369   7.099   3.192   9.282  0.0936  0.0127 -0.2777
52506W        W53370  10.688   1.500   9.056  0.3071  0.0601 -0.1947
52507W        W53371   6.586   0.791   9.165 -0.0169 -0.2749 -0.0599
52508W        W53372   9.910  28.965   6.063  0.0357  0.2830 -0.0191
52509W        W53373   8.758   0.249   9.615  0.0260  0.2383  0.2118
52510W        W53374   8.835   0.875  10.123  0.0705  0.1816 -0.4405
52511W        W53375   8.644   0.433   6.361  0.0988 -0.1528 -0.0545
52512W        W53376  11.504   2.470  11.781 -0.0811 -0.0972  0.1807
52513W        W53377   8.712   2.614  10.087 -0.0783  0.0088  0.0353
52514W        W53378  11.561   3.462  10.211  0.0520  0.1863  0.0303
52515W        W53379  13.637   2.020  11.762  0.0219  0.1392  0.0853
52516W        W53380   7.969   4.042   9.518  0.2547 -0.2635 -0.2229
52517W        W53381   9.170   1.926   6.362  0.1670 -0.1881 -0.0476
52518W        W53382  11.015  25.737  10.955 -0.2840  0.1605  0.0786
52519W        W53383   9.281  29.098   7.996  0.2208  0.1028  0.0542
52520W        W53384  10.382   3.302   8.707 -0.3072 -0.3569 -0.0546
52521W        W53385   9.987   3.297   9.245  0.0224  0.0015  0.2178
52522W        W53386   8.695   0.721   9.654 -0.0281 -0.0704 -0.0400
52523W        W53387   6.555   3.373   9.348 -0.1845 -0.2757  0.0649
52524W        W53388  10.353  28.011   7.216  0.2041 -0.3192 -0.1329
52525W        W53389   7.786   4.348  10.804  0.3530  0.4068  0.2156
52526W        W53390   8.205   1.635   8.120  0.1950  0.2161 -0.1003
52527W        W53391   6.878   0.854  11.319  0.0740 -0.1105  0.0757
52528W        W53392   9.871   0.578   7.825  0.2320 -0.0744 -0.0787
52529W        W53393   8.013   0.675   9.250  0.0705 -0.2471 -0.0744
52530W        W53394  10.071  28.626  11.639  0.1122 -0.0700  0.1753
52531W        W53395  12.383  29.129   5.796 -0.3046  0.0138  0.0695
52532W        W53396   8.546   2.555   8.611  0.0941  0.2081  0.2153
52533W        W53397  10.712   3.217  10.628  0.1286  0.1800 -0.1683
52534W        W53398   7.860   0.454   6.154 -0.0373  0.0204  0.0931
52535W        W53399   9.226  26.552   7.517  0.1369 -0.3125  0.0086
52536W        W53400   5.071   1.866   8.429  0.0242 -0.0869  0.0104
52537W        W53401  11.340  29.073  11.989  0.0890  0.1656  0.3834
52538W        W53402   6.203   0.655  11.709  0.2300  0.0063 -0.0517
52539W        W53403   8.491   3.526   5.926  0.0825  0.1259 -0.2241
52540W        W53404   9.366  27.915  10.005 -0.3195 -0.0588 -0.1840
52541W        W53405   8.210   0.802  13.096  0.0590  0.4053  0.5173
52542W        W53406   9.830   0.667  10.485  0.3774 -0.0807  0.3518
52543W        W53407   9.521  25.639   8.430  0.2841  0.0947 -0.0832
52544W        W53408  11.005   2.979   5.444  0.1017 -0.2413  0.0997
52545W        W53409   9.913   4.147   7.748  0.1217  0.0461 -0.1734
52546W        W53410  10.995   4.517   7.813 -0.2519 -0.0228 -0.1044
52547W        W53411   7.840   1.049   9.596  0.0350  0.0554 -0.0215
52548W        W53412  11.245   1.089   7.343  0.1585  0.2563 -0.2632
52549W        W53413  11.509  27.085  10.298 -0.1284 -0.2357  0.0593
52550W        W53414   8.852   1.322   7.288 -0.2480 -0.0707 -0.0573
52551W        W53415   9.390  27.694   8.815 -0.1073  0.1135 -0.2302
52552W        W53416   6.602   1.669   6.229 -0.1497  0.0429 -0.1097
52553W        W53417  10.720   1.743  11.772  0.1548 -0.0621 -0.2561
52554W        W53418  10.057   1.357   6.201  0.1478 -0.0255 -0.2077
52555W        W53419  10.621   0.606  10.226  0.1396 -0.0392  0.0786
52556W        W53420   9.094   4.083   9.452  0.1504  0.0097 -0.1195
52557W        W53421  11.171   3.310   9.168  0.1385 -0.1414  0.1009
52558W        W53422  10.917  26.447  10.586 -0.0184  0.0298  0.3113
52559W        W53423  11.077   2.750   9.239 -0.1500 -0.4037  0.3511
52560W        W53424   9.334   3.474   7.428  0.0721  0.2483  0.0678
52561W        W53425   7.486   4.079   9.906  0.0957 -0.0631 -0.0435
52562W        W53426   7.551   2.754  10.285 -0.1161  0.1700 -0.0992
52563W        W53427  11.328  27.907   8.964 -0.2084  0.2403 -0.0195
52564W        W53428  11.919   3.708   9.456  0.1355 -0.1343 -0.3066
52565W        W53429  11.128  29.029  10.287  0.0767 -0.1403 -0.0470
52566W        W53430   9.944   1.833   9.481 -0.3552 -0.3133 -0.0697
52567W        W53431   7.858   0.180   9.161 -0.3081 -0.0018  0.0161
52568W        W53432   8.911   1.816   9.626 -0.0515  0.0407  0.0048
52569W        W53433   9.704   1.825  10.424  0.2607  0.0662 -0.1919
52570W        W53434   9.809   3.579  10.716  0.0340  0.3989  0.1937
52571W        W53435   6.907   0.103   8.237  0.0651 -0.4108  0.0192
52572W        W53436  10.123   2.854   8.339  0.1828 -0.0573 -0.2451
52573W        W53437  10.174   1.391   8.088 -0.2290  0.2218  0.0322
52574W        W53438  12.144   1.575   8.860 -0.1590 -0.1968 -0.1426
52575W        W53439  11.056  28.993   9.184  0.1791 -0.0764  0.0227
52576W        W53440  10.776   4.443   5.835  0.0205  0.0557 -0.1065
52577W        W53441   9.780   3.475   7.835 -0.1243  0.0784  0.2662
52578W        W53442   9.660  28.847   8.133  0.1000  0.1164  0.0493
52579W        W53443  10.070   0.769   6.043  0.2195  0.0246  0.3479
52580W        W53444   6.902   2.474  15.504  0.0706  0.2364 -0.1149
52581W        W53445   5.024   4.089  11.972  0.0960 -0.1129 -0.2923
52582W        W53446   8.417   2.164  10.816 -0.0151  0.0798  0.0124
52583W        W53447  12.287   2.477  11.325  0.3832 -0.2632  0.2629
52584W        W53448   7.380   1.604  11.291  0.0005  0.2190 -0.1458
52585W        W53449   8.978   2.649  12.179  0.1195 -0.0259  0.2265
52586W        W53450   5.854   1.483  14.181 -0.0026  0.3183  0.0952
52587W        W53451   9.323   0.986  11.610  0.3050 -0.0930  0.0316
52588W        W53452   9.468   4.012  14.420  0.0587  0.1714 -0.0335
52589W        W53453   7.004  28.564  15.556  0.1645 -0.1373 -0.0295
52590W        W53454   7.212  28.380  11.805 -0.0216 -0.1644  0.0658
52591W        W53455   9.538   1.182  13.196 -0.0871  0.0680  0.1395
52592W        W53456  11.141   0.229   8.057  0.4814 -0.4977 -0.0450
52593W        W53457  11.927   0.644  13.341  0.2076  0.2067 -0.0506
52594W        W53458   6.245   3.866  13.912 -0.0832 -0.0364  0.4105
52595W        W53459  10.208   4.548  14.124  0.1920 -0.0931 -0.1477
52596W        W53460   8.902   1.351  10.867 -0.1607  0.1111  0.0620
52597W        W53461   8.703   1.761  14.466 -0.1566  0.0862 -0.1236
52598W        W53462  10.173   1.384  14.447  0.4900 -0.1240 -0.1919
52599W        W53463  10.180  29.097  15.391 -0.1794 -0.4663  0.0984
52600W        W53464   7.201   0.939  13.208  0.0593 -0.0279 -0.2863
52601W        W53465   8.610   1.016  11.773  0.0933  0.1315  0.0488
52602W        W53466   8.904   3.155  11.210 -0.1455 -0.0774  0.1041
52603W        W53467   9.909   3.002  13.695  0.1203 -0.4908 -0.0646
52604W        W53468   6.021   3.329  12.412  0.1649  0.1801  0.0092
52605W        W53469   7.391   1.705  14.158  0.0288 -0.2314  0.2946
52606W        W53470  13.035   3.909  14.423 -0.2986 -0.2966  0.0212
52607W        W53471   8.528   0.462  10.094  0.2001  0.3953 -0.0347
52608W        W53472   7.766   2.561  14.057  0.1021  0.3938  0.0542
52609W        W53473   6.863   2.953  12.712  0.3684  0.0317  0.0622
52610W        W53474   7.296   3.302  13.952  0.1134  0.2676  0.0220
52611W        W53475  12.375   2.096  14.678 -0.0220 -0.0389 -0.1591
52612W        W53476   7.659   0.835  12.990 -0.2807 -0.1972 -0.1063
52613W        W53477   9.246   4.212  13.751  0.0403 -0.1828 -0.0858
52614W        W53478   6.591   2.363  15.870 -0.1797 -0.1267 -0.1988
52615W        W53479  10.398   3.800  15.265 -0.3014  0.1086 -0.0763
52616W        W53480   8.183   3.368   9.102  0.1736  0.1770 -0.0033
52617W        W53481   9.726   3.357  13.398  0.1866  0.4221  0.0995
52618W        W53482  10.587   4.029   9.362 -0.0363 -0.3907 -0.1206
52619W        W53483  13.428   0.099  12.154 -0.1360 -0.0055  0.1847
52620W        W53484  11.893   2.014  12.610  0.0644  0.3147 -0.3424
52621W        W53485  12.316  28.257  12.365 -0.2204 -0.1041 -0.0012
52622W        W53486   9.318   2.061  10.638 -0.0840 -0.0852 -0.0379
52623W        W53487  10.564   3.599  13.754  0.1068 -0.1238  0.1378
52624W        W53488  11.004   4.159  10.746 -0.2230 -0.0329 -0.1573
52625W        W53489   5.980   4.025  12.990  0.1429 -0.0397 -0.1518
52626W        W53490   8.562  28.230  13.261  0.0391 -0.0742  0.1160
52627W        W53491  10.892   2.432  14.155 -0.2376 -0.1793  0.4023
52628W        W53492  11.362   0.685  14.245  0.1527  0.2421  0.1948
52629W        W53493   7.498  28.161   9.399 -0.1307 -0.0327  0.1411
52630W        W53494   7.352   2.677  11.356  0.0032  0.0534  0.1481
52631W        W53495  11.576   1.112  12.820 -0.2705 -0.1979  0.0293
52632W        W53496   7.672   2.416  11.074 -0.0820 -0.1962 -0.0958
52633W        W53497   9.046   1.358   9.825 -0.2223  0.1405 -0.3160
52634W        W53498   9.291  28.802  10.829  0.1242 -0.1648 -0.4997
52635W        W53499   4.460   4.300  11.145 -0.1335 -0.2015 -0.1045
52636W        W53500   8.245   1.114  11.192  0.1406  0.1053  0.3161
52637W        W53501  10.988   0.963  12.044 -0.1584  0.0294  0.2399
52638W        W53502   7.513   5.274  14.045 -0.0882  0.0701 -0.1644
52639W        W53503   9.304   3.405   9.917 -0.0830  0.1670  0.2528
52640W        W53504  11.266   2.229  11.360 -0.0509  0.1922 -0.2430
52641W        W53505   4.549   4.586  16.519 -0.0391  0.0158  0.0308
52642W        W53506  10.771   3.258  14.204  0.0743  0.1567 -0.2849
52643W        W53507   8.695   1.804  11.128 -0.0875 -0.0496 -0.1741
52644W        W53508   9.979   0.507  14.261 -0.2792  0.0241 -0.1324
52645W        W53509  13.116  28.894  12.305 -0.0792 -0.1139 -0.2220
52646W        W53510   6.068   0.493   9.873 -0.0131  0.1864  0.1268
52647W        W53511   6.518   0.204  10.353 -0.0304 -0.0380  0.0076
52648W        W53512  10.576   3.845  12.686  0.1415 -0.2264 -0.1428
52649W        W53513   7.995   3.503  11.424  0.3695  0.2523  0.0961
52650W        W53514   8.532   2.244  11.285 -0.1230  0.0008  0.2370
52651W        W53515   9.658   2.952  12.341 -0.3767 -0.0797 -0.0828
52652W        W53516  10.391   2.030   9.275 -0.1740  0.2174 -0.0122
52653W        W53517   9.168  28.605  12.010 -0.2922 -0.1966 -0.0460
52654W        W53518  10.093  27.758  12.762  0.0855  0.0517 -0.0918
52655W        W53519  11.960   3.120  10.240  0.1162 -0.3780  0.0479
52656W        W53520   7.146  28.573  11.350  0.1303 -0.1402  0.1732
52657W        W53521   8.163   1.481  13.602  0.2105  0.0054  0.0992
52658W        W53522   9.319   1.019  10.071 -0.1935 -0.2560  0.2132
52659W        W53523  10.540   1.757  11.105  0.0270 -0.1172 -0.0703
52660W        W53524   6.591   1.587  12.477  0.1474  0.1425 -0.2745
52661W        W53525   8.130   2.325  14.368 -0.0599 -0.0787 -0.0641
52662W        W53526   6.207   1.558  10.763 -0.1267  0.2262  0.0669
52663W        W53527  10.903   0.636  13.999 -0.1323 -0.0243 -0.0918
52664W        W53528   8.873   1.307  12.444 -0.3051 -0.2423 -0.2487
52665W        W53529  10.276  27.598  10.834  0.1267 -0.0212  0.0881
52666W        W53530  12.522   4.546  14.425  0.2656  0.0324 -0.1711
52667W        W53531  10.302   1.872  13.982 -0.1490  0.3424  0.1442
52668W        W53532  14.201   3.893  13.714 -0.1675 -0.1442  0.0971
52669W        W53533  10.132   2.840  14.887  0.3355 -0.0024  0.0360
52670W        W53534   9.009   1.720  12.254 -0.0561 -0.2284  0.3060
52671W        W53535  10.398   4.030  13.989 -0.0810 -0.0342 -0.1378
52672W        W53536   6.932   1.402  12.080  0.3763  0.0516 -0.1994
52673W        W53537   9.292   2.400  14.941  0.1687 -0.2397  0.2492
52674W        W53538   8.848   2.404  14.634  0.2825  0.1327 -0.0828
52675W        W53539  10.713  28.833  14.210 -0.0178  0.0611  0.1995
52676W        W53540  10.360   2.891  10.312  0.0692  0.0066  0.5226
52677W        W53541   9.583   3.277  14.616 -0.2613  0.0311  0.1770
52678W        W53542   8.718  28.696  11.784 -0.0812 -0.0721 -0.0481
52679W        W53543  11.720   0.956  11.281 -0.0676 -0.2877  0.2186
52680W        W53544  13.236   2.257  11.335 -0.3149  0.1791  0.2783
52681W        W53545   8.065  28.350  12.443  0.2301 -0.2912 -0.1565
52682W        W53546   9.244  25.564  10.300 -0.0015 -0.1407  0.1817
52683W        W53547  11.732   3.836  12.485 -0.0365 -0.1918 -0.0454
52684W        W53548  10.867  27.468  15.457  0.2555 -0.1163 -0.3841
52685W        W53549  10.307   0.000  12.613 -0.1568 -0.0360 -0.0890
52686W        W53550  10.246   3.689   9.537 -0.2230  0.0639 -0.0777
52687W        W53551  13.348   4.410  13.824  0.2704  0.1469  0.1466
52688W        W53552  10.495   2.381  11.630  0.0547 -0.1160 -0.1038
52689W        W53553   6.819   2.776  12.170 -0.1553  0.0035 -0.2574
52690W        W53554   6.442   2.862  10.019  0.0188  0.0013 -0.1541
52691W        W53555  10.509   2.590  14.516  0.1962 -0.0314  0.4261
52692W        W53556   9.319   3.198  15.578 -0.1541 -0.5891 -0.0274
52693W        W53557  10.354   3.775  13.115 -0.0062  0.2326  0.2110
52694W        W53558  12.494   3.768   9.757 -0.3667 -0.2025  0.3495
52695W        W53559   6.709   1.557  10.648 -0.0531  0.0581  0.1374
52696W        W53560   9.963  28.913  12.995  0.0368  0.2726  0.2424
52697W        W53561   8.178   4.378  13.055 -0.2336  0.0309  0.0432
52698W        W53562  10.580   3.412  11.223  0.1850 -0.2052  0.0098
52699W        W53563   8.834   2.214  10.387 -0.4038  0.1407 -0.0505
52700W        W53564  10.467   1.160   9.286 -0.2056  0.1411  0.1168
52701W        W53565   9.354   4.579  11.138  0.0801 -0.0685 -0.0452
52702W        W53566   8.795   3.575  12.573  0.0736 -0.1428  0.1917
52703W        W53567   9.618  28.742  11.535 -0.2234 -0.1604 -0.3392
52704W        W53568   8.272   1.844  12.980 -0.2668 -0.1180  0.0072
52705W        W53569  10.263   3.363  13.404 -0.1113 -0.1060  0.0386
52706W        W53570  10.581  27.755  12.460  0.2116  0.0726  0.0030
52707W        W53571  10.711   0.855  12.481 -0.1863 -0.0254  0.0715
52708W        W53572  10.979   5.538  13.304  0.1892 -0.0555  0.1250
52709W        W53573   8.952   1.943  14.896  0.1323 -0.2165 -0.0518
52710W        W53574  12.002   2.160  11.797 -0.0583 -0.0327  0.2102
52711W        W53575   9.129   1.843  12.737  0.1222 -0.0555 -0.2142
52712W        W53576  12.595   3.817  11.704  0.1379 -0.1863  0.0169
52713W        W53577   8.480  26.235  13.124  0.0667  0.0290 -0.0124
52714W        W53578   8.028   1.514  11.546 -0.1878  0.1138  0.1534
52715W        W53579   7.107   1.207  13.747 -0.2644  0.0990 -0.1432
52716W        W53580   9.935   1.876  14.392  0.0065  0.1499  0.0219
52717W        W53581  11.895   3.314  15.618  0.2314  0.1600  0.1000
52718W        W53582   8.739   0.595  12.410 -0.0878  0.1538 -0.0083
52719W        W53583   8.100   3.483  10.416 -0.0118  0.3105  0.3619
52720W        W53584  11.087   1.825  11.059  0.1557 -0.0115  0.0124
52721W        W53585   7.707   0.897  12.341 -0.0271 -0.0332 -0.0923
52722W        W53586   6.671   1.430  13.865  0.1196  0.0390  0.1938
52723W        W53587   9.048   2.181  11.901 -0.0109  0.2229 -0.3034
52724W        W53588  10.998   1.127  13.940  0.1783  0.0035  0.2956
52725W        W53589  10.745  27.637  11.133 -0.2352 -0.2644  0.0314
52726W        W53590  11.025  27.661  12.769  0.0797  0.4298  0.2913
52727W        W53591   8.528   3.552  12.133  0.3846  0.0650 -0.1303
52728W        W53592   6.617   3.658  13.545  0.0513 -0.0759  0.1331
52729W        W53593   9.508   2.716  13.847 -0.0366  0.3502  0.4932
52730W        W53594  10.043   1.690  13.383 -0.0755  0.0422  0.0589
52731W        W53595   9.553  27.810  12.013 -0.0514 -0.2415  0.0114
52732W        W53596   8.573   3.730  13.973  0.0188  0.2101  0.1192
52733W        W53597   8.070   0.786  11.560  0.0611  0.0637  0.1102
52734W        W53598   9.970   1.901  12.359 -0.0957  0.1895 -0.1980
52735W        W53599   9.195   3.595  14.452  0.1111 -0.2169  0.3006
52736W        W53600   9.669   3.723  14.842  0.0081 -0.0036 -0.4599
52737W        W53601   7.882  29.025   9.942 -0.0453 -0.0037  0.0398
52738W        W53602  10.006  27.961  13.934 -0.2828  0.2711 -0.0553
52739W        W53603   9.986   0.284  12.989 -0.0409 -0.0966 -0.0109
52740W        W53604   9.499   1.411  11.499  0.2206  0.2015  0.0064
52741W        W53605   7.762   3.043  13.729 -0.1969 -0.3761  0.3571
52742W        W53606   5.966   3.813  14.829  0.0212 -0.0177 -0.0869
52743W        W53607   8.846   4.954  14.108 -0.1435 -0.0036 -0.3648
52744W        W53608  10.189  28.139  17.467 -0.0816  0.1617  0.2694
52745W        W53609   9.495   0.480  12.532  0.1975 -0.2024  0.0614
52746W        W53610  10.328   2.223  13.367 -0.1370  0.1626  0.2992
52747W        W53611   5.841   5.478  11.246  0.1923  0.1255 -0.0102
52748W        W53612   8.912   3.005  15.359 -0.4283  0.0087  0.1878
52749W        W53613   8.495   2.925  12.294 -0.1251 -0.0684 -0.0938
52750W        W53614  10.750   2.734  12.010  0.0673  0.1265  0.2104
52751W        W53615   7.391   1.867  13.607  0.1077 -0.0315  0.0409
52752W        W53616  10.328   2.768  13.594 -0.0101 -0.0074 -0.0877
52753W        W53617   9.083   2.616  10.549  0.2989 -0.4060 -0.0201
52754W        W53618   9.829   0.763  13.272 -0.2051 -0.0138 -0.0769
52755W        W53619  12.192   0.702  12.071 -0.5273  0.2539  0.0574
52756W        W53620   5.904   2.267  13.764 -0.2107  0.0274  0.0362
52757W        W53621   6.940   3.826  15.816  0.3262  0.0843 -0.1836
52758W        W53622   5.457   3.667  12.016  0.1187  0.2798 -0.1469
52759W        W53623   6.916   0.644  13.503 -0.0615 -0.0816  0.0974
52760W        W53624   9.016   3.551  10.857  0.1587  0.1557 -0.3955
52761W        W53625  10.283   4.147  11.577 -0.0583 -0.0332  0.0431
52762W        W53626  11.059   1.848  12.330 -0.0325  0.0391  0.0552
52763W        W53627   9.705   0.580  10.016 -0.0275  0.4668  0.1604
52764W        W53628   9.059  28.246   9.606 -0.1628 -0.4212  0.1817
52765W        W53629   9.263   4.788  13.657 -0.3405  0.1839 -0.1699
52766W        W53630  11.158  28.669  13.070  0.0726 -0.1274  0.3350
52767W        W53631  10.540  28.808  11.888 -0.2563  0.0234 -0.1170
52768W        W53632   7.829   1.907  13.950  0.0301 -0.0059  0.0360
52769W        W53633   6.120   0.689   9.366 -0.0152 -0.0644 -0.2477
52770W        W53634   9.429   2.519  12.393  0.0967 -0.0390  0.0407
52771W        W53635   9.680   5.373  12.298 -0.0864 -0.2799  0.0802
52772W        W53636  10.955   1.564  10.634 -0.3305 -0.1208 -0.1163
52773W        W53637   8.176  28.864  13.771 -0.1573 -0.0355  0.2195
52774W        W53638   9.998   3.359  12.972  0.0781  0.1759  0.1899
52775W        W53639   8.387  29.105  11.984  0.2702  0.0777  0.1242
52776W        W53640   9.915   2.445   9.268  0.1307 -0.1833  0.2162
52777W        W53641   9.054   2.431  13.366  0.0913 -0.1401  0.1606
52778W        W53642   6.974   0.165  13.300  0.1101  0.2683 -0.1973
52779W        W53643   9.934   2.439  13.667  0.1082  0.3426 -0.1480
52780W        W53644   8.581   1.248   9.789 -0.0406 -0.1307  0.1320
52781W        W53645   9.787   2.494  15.087  0.1445  0.0978  0.0580
52782W        W53646  11.659   0.998  12.244  0.0094 -0.2372 -0.0796
52783W        W53647  12.055   1.406  11.174 -0.1362 -0.0348 -0.0079
52784W        W53648   8.958   0.773  12.046 -0.1795 -0.0986 -0.2407
52785W        W53649   5.592   0.667   9.450 -0.0753 -0.3066  0.0190
52786W        W53650  11.043   2.879  14.399  0.0020  0.0462  0.0683
52787W        W53651   8.640   2.111  12.693 -0.0030  0.3545  0.1430
52788W        W53652   7.654   1.007  10.599 -0.0027  0.2201 -0.0815
52789W        W53653   7.090   1.233  11.615  0.0793  0.0312  0.0409
52790W        W53654   7.689   2.176  12.956 -0.0199 -0.2075 -0.0915
52791W        W53655   5.985   2.558  14.758  0.3236  0.0030 -0.1659
52792W        W53656   7.797   2.630  13.216  0.1213  0.0882  0.2016
52793W        W53657   8.568  29.119  13.969 -0.0657 -0.0110  0.0483
52794W        W53658  13.209   1.631  14.690 -0.0937  0.1318  0.0809
52795W        W53659  12.476   2.017  11.844  0.0617 -0.3944  0.1920
52796W        W53660  10.838   3.993  14.990  0.0824 -0.0514  0.1435
52797W        W53661   8.571   1.677  13.383  0.2388  0.0726  0.0613
52798W        W53662  11.463   4.009  12.863  0.0838 -0.0764 -0.1937
52799W        W53663   8.062   1.909  13.434 -0.1697  0.2567  0.0563
52800W        W53664  11.281  29.141  14.941 -0.2178 -0.1136  0.0340
52801W        W53665   7.667   3.848  15.543  0.1111 -0.4691 -0.0745
52802W        W53666   9.201   3.730  13.951 -0.1759 -0.1823 -0.1337
52803W        W53667   9.108   0.517   9.882 -0.2178 -0.0492  0.3516
52804W        W53668  10.445   0.640  13.285  0.0210  0.4037  0.0405
52805W        W53669   8.851   0.895  13.713  0.3502  0.1391 -0.2025
52806W        W53670   9.776   2.348  13.146 -0.3152 -0.1642 -0.0387
52807W        W53671   9.017   1.279  16.413 -0.3847 -0.2047  0.1320
52808W        W53672  10.421   3.729  10.791  0.1351 -0.2339  0.0366
52809W        W53673  10.347   2.219  12.571  0.2954  0.1257 -0.2017
52810W        W53674   7.258   0.890  12.651 -0.3184 -0.3950  0.1455
52811W        W53675   9.699   3.001  15.047 -0.1909  0.1557 -0.1050
52812W        W53676   9.246   4.349  10.660 -0.2826  0.1538  0.2165
52813W        W53677  12.505   0.441  14.956  0.0107 -0.1784 -0.2301
52814W        W53678   9.082   3.333  12.930 -0.1407  0.1505 -0.2941
52815W        W53679   8.549   3.127  13.706 -0.0402 -0.1127 -0.3146
52816W        W53680   9.658   2.808  11.341 -0.1965  0.0089 -0.0116
52817W        W53681   9.750   0.883  12.300  0.1413 -0.0994 -0.2346
52818W        W53682  10.778   5.085  11.360  0.0420  0.0248 -0.0387
52819W        W53683  12.536   6.436  13.376  0.1095  0.1232  0.0560
52820W        W53684   9.202   3.079  10.836  0.1941 -0.0454 -0.1668
52821W        W53685   8.889   3.551  15.371 -0.2793  0.1352  0.4108
52822W        W53686   5.631   2.816  14.509 -0.0895 -0.3888  0.1130
52823W        W53687   8.332   1.769  10.520 -0.0929  0.2855 -0.0544
52824W        W53688   9.471   2.228  13.617 -0.2136 -0.2549 -0.0450
52825W        W53689   8.648   1.721  10.062 -0.1137  0.0121  0.0537
52826W        W53690   8.190   2.941  10.894 -0.0204 -0.1730  0.4166
52827W        W53691   4.193   5.298  12.112 -0.1257 -0.1972  0.0917
52828W        W53692  12.291   5.988  13.421  0.0386 -0.1965 -0.3446
52829W        W53693   9.313   1.311  12.750  0.0569 -0.0779 -0.2198
52830W        W53694   6.160   1.864  12.096  0.0266  0.1590  0.3297
52831W        W53695   7.301   4.372  10.944 -0.1761 -0.0131  0.0070
52832W        W53696  10.626   4.497  13.856 -0.0091 -0.0337 -0.0729
52833W        W53697   7.549   3.562  13.532 -0.0165 -0.2045 -0.1704
52834W        W53698   6.347  28.284  11.959  0.0402  0.1943 -0.1535
52835W        W53699  12.097   1.129  13.066  0.1307  0.0838 -0.1688
52836W        W53700  10.813   2.440  10.256  0.0790 -0.0158 -0.0809
52837W        W53701   9.292  27.806  15.959  0.1255  0.1959  0.0493
52838W        W53702  10.441   4.333  12.921 -0.2006 -0.2531 -0.2084
52839W        W53703  12.018   1.606  10.737  0.2984 -0.0857  0.1287
52840W        W53704   8.008   3.484  14.557  0.2269 -0.1589  0.2611
52841W        W53705   7.692   0.456  12.593  0.0875 -0.1312  0.0871
52842W        W53706   9.545   5.216  13.453 -0.1029  0.2767  0.0190
52843W        W53707  10.354   0.626  10.974 -0.0507  0.0012  0.1388
52844W        W53708   8.288   3.340  12.575  0.1167 -0.2588 -0.0814
52845W        W53709   8.334   3.572  12.967  0.1518  0.0570 -0.0373
52846W        W53710   9.537   3.218  12.958 -0.5214  0.0258  0.1857
52847W        W53711  10.404  28.897  14.711  0.3557  0.3026  0.0219
52848W        W53712   6.952   2.049  12.693  0.0309  0.1432 -0.0665
52849W        W53713  10.994  28.811  11.656  0.1611 -0.0495  0.0264
52850W        W53714   7.383   1.380  10.779  0.0697 -0.2468  0.2857
52851W        W53715   8.452   4.274  14.093  0.0535  0.1833  0.3549
52852W        W53716   9.848   2.554  12.028  0.2818  0.0665  0.0716
52853W        W53717   4.820   3.147  14.012  0.2552  0.0647 -0.1721
52854W        W53718  12.567   4.429  12.514 -0.0398  0.0197 -0.3228
52855W        W53719   9.668  28.597  15.954  0.0908  0.1237 -0.2774
52856W        W53720   8.275  28.957  14.833  0.0257  0.1423 -0.1253
52857W        W53721   8.287   1.287  13.104 -0.1447  0.1233  0.4908
52858W        W53722   6.227  28.544   9.903  0.0787  0.2213  0.0559
52859W        W53723   8.597   2.610  13.664  0.2462 -0.2405  0.0055
52860W        W53724   6.128   1.545  12.551  0.1959 -0.0350 -0.1720
52861W        W53725   7.847  28.692  10.905 -0.2595 -0.1390 -0.1776
52862W        W53726   9.192   2.368  12.875  0.0612  0.1764  0.1439
52863W        W53727  10.027   4.065  10.699  0.1430 -0.1504  0.0209
52864W        W53728   7.678   0.580   9.634 -0.0742  0.0159  0.0173
52865W        W53729  10.145   2.721  14.031 -0.0935 -0.0251  0.1105
52866W        W53730  10.540   1.713  13.557 -0.0693 -0.0546 -0.2568
52867W        W53731   8.157   2.310  13.143 -0.3604  0.1847 -0.2024
52868W        W53732  12.753   0.178  11.135  0.2042 -0.0815 -0.1513
52869W        W53733  10.199   3.566  12.129 -0.0620  0.0299  0.1687
52870W        W53734   9.397   1.211  12.166 -0.0758  0.0680 -0.0193
52871W        W53735  13.377   0.265  12.613  0.1018  0.3107 -0.0524
52872W        W53736  10.418   0.058  13.109  0.0251 -0.1134 -0.0410
52873W        W53737   9.503  28.625  13.172  0.1797  0.1002 -0.0481
52874W        W53738   4.265   1.871  11.692  0.3270 -0.1356  0.2509
52875W        W53739  10.972   3.034  11.035 -0.0796  0.0355  0.1255
52876W        W53740  10.821   1.100  10.299 -0.0812  0.0055  0.0275
52877W        W53741   9.797   3.752  16.261 -0.1139 -0.2082 -0.2415
52878W        W53742  10.808  28.419  16.729  0.2071 -0.2106 -0.2739
52879W        W53743   7.861   1.425  14.254  0.1017  0.1609  0.2041
52880W        W53744  10.218   3.614  11.613 -0.0030  0.1270  0.1112
52881W        W53745   6.988   0.507  12.933  0.1572 -0.0072 -0.1312
52882W        W53746   5.157   1.836  13.876  0.3203  0.0516 -0.0510
52883W        W53747  11.374   2.090  14.289 -0.0139 -0.4827 -0.0571
52884W        W53748   8.629   2.292  14.180  0.1874 -0.1266 -0.2571
52885W        W53749  10.782   4.269  11.763  0.4078  0.3814  0.0917
52886W        W53750  11.890   1.140  14.668  0.1351 -0.1247  0.0389
52887W        W53751   8.998   1.296  11.900  0.2132 -0.0924  0.1328
52888W        W53752  10.716   2.589  15.593  0.3642  0.0778  0.1346
52889W        W53753   4.034   3.561   9.311  0.2201 -0.1160 -0.2496
52890W        W53754   8.974   1.705  14.035 -0.3782  0.0618 -0.0337
52891W        W53755   8.744   3.568  14.664 -0.2405 -0.1088 -0.1036
52892W        W53756   9.469   1.659  12.372 -0.2877 -0.0273  0.1558
52893W        W53757  10.274   4.796  13.138 -0.0766 -0.0695  0.1187
52894W        W53758   6.617   4.728  13.659  0.2194 -0.3160  0.0902
52895W        W53759   8.457   3.200  14.288 -0.0082  0.1246 -0.0425
52896W        W53760   8.744   1.820  11.721 -0.1170  0.0421  0.0997
52897W        W53761   8.539   1.936  12.216  0.0692  0.0204 -0.2498
52898W        W53762   8.954   4.499  13.201  0.0702 -0.1316 -0.0040
52899W        W53763   8.063   2.169  12.010  0.1227  0.2211  0.1089
52900W        W53764   5.337   4.513  15.595 -0.0874 -0.2081 -0.0840
52901W        W53765  12.238   3.018  10.620 -0.0925 -0.0506 -0.1432
52902W        W53766   8.721   2.812  14.904  0.3515 -0.1165 -0.0470
52903W        W53767   8.081   2.660  11.951 -0.0215 -0.0788  0.0155
52904W        W53768   7.674   3.299  10.600 -0.1242 -0.0662  0.0361
52905W        W53769   6.142   2.835  13.856 -0.4959 -0.0699 -0.0622
52906W        W53770   9.448   0.497  11.300 -0.0000  0.4820 -0.1542
52907W        W53771   9.277   3.599   9.352 -0.0509 -0.3114 -0.1384
52908W        W53772  10.151   0.944  12.490 -0.0842  0.1135 -0.2147
52909W        W53773   8.487   3.783  10.562  0.1101 -0.0906 -0.1329
52910W        W53774   7.860   1.124  13.382 -0.0681 -0.0026  0.1488
52911W        W53775  10.629   0.119  10.151 -0.2213  0.0890  0.1055
52912W        W53776  10.688   2.752  15.048  0.0568  0.0201 -0.0227
52913W        W53777   8.031   5.456  12.289 -0.2157  0.0100 -0.0762
52914W        W53778  10.097   1.987  12.963 -0.4027  0.0445 -0.2035
52915W        W53779   8.068   4.124  14.549  0.2607  0.2535 -0.0092
52916W        W53780   5.284   4.366  13.736 -0.0368 -0.2661 -0.0083
52917W        W53781  10.056   3.694  13.752  0.1054 -0.0788 -0.0027
52918W        W53782  10.680   1.794  12.633 -0.0015  0.2208 -0.1219
52919W        W53783  10.282  27.756   8.990  0.0311 -0.2043  0.0191
52920W        W53784   8.325   1.053  13.599  0.1309  0.0689  0.0579
52921W        W53785  10.108   0.944  13.973  0.2185  0.2667 -0.1624
52922W        W53786   8.538  28.858  13.388 -0.0666 -0.0230  0.0178
52923W        W53787   7.316   2.335  13.282  0.2305 -0.2600 -0.0948
52924W        W53788   7.945   0.055  10.436  0.2035  0.0025 -0.0309
52925W        W53789   9.033   3.932  14.941 -0.0073  0.0637 -0.2393
52926W        W53790   7.800   1.532  11.084 -0.0373 -0.4678  0.0300
52927W        W53791   8.018   3.699  10.925  0.1346  0.3557  0.1232
52928W        W53792   7.338   2.261  14.855 -0.0070  0.2381  0.1339
52929W        W53793   8.452  27.694  13.068  0.0153 -0.2520 -0.2556
52930W        W53794  11.405   3.798  10.849  0.0660 -0.0410 -0.2480
52931W        W53795  11.036   0.562  11.578 -0.0008  0.2968  0.1906
52932W        W53796   9.375   3.175  13.687  0.1763 -0.1110 -0.0391
52933W        W53797   8.905   3.106  14.532  0.0694  0.1000 -0.2389
52934W        W53798   8.875   3.222  12.240 -0.0272  0.0780 -0.1699
52935W        W53799   7.653   0.712  11.058  0.0103  0.2052  0.1986
52936W        W53800   7.628   3.946  11.816  0.2564  0.1499  0.1386
52937W        W53801   8.832   0.202  13.485 -0.2263 -0.1166 -0.1403
52938W        W53802   7.704   1.463  13.765  0.0447  0.4567 -0.2552
52939W        W53803   8.965   2.192  10.960 -0.0982 -0.1881  0.2225
52940W        W53804   5.900   2.620  10.752 -0.0002 -0.4943 -0.1116
52941W        W53805  12.245   1.995  16.891 -0.2540  0.2775 -0.4432
52942W        W53806   9.662   3.450  15.322  0.1502  0.4203 -0.3412
52943W        W53807   7.031  28.987  12.152 -0.2765  0.2061  0.0471
52944W        W53808   9.147   2.909   9.917  0.0031  0.0930  0.1038
52945W        W53809   9.559   3.693  12.782 -0.3284 -0.0129  0.0647
52946W        W53810   9.915   2.869  10.052  0.2794  0.2265  0.1655
52947W        W53811   7.608   1.734  13.188  0.2068 -0.0287 -0.1667
52948W        W53812   9.567   2.094  12.707 -0.0944  0.1888 -0.2968
52949W        W53813  11.193  26.970  13.288 -0.0288 -0.2259  0.2221
52950W        W53814   7.772   1.059  10.097  0.0345 -0.3928  0.0866
52951W        W53815  11.045   1.975  10.194 -0.2570 -0.1546  0.1057
52952W        W53816   9.214   2.829  11.528 -0.1715 -0.1984  0.0525
52953W        W53817   9.384   2.056  13.169  0.0414 -0.2498 -0.1275
52954W        W53818  10.136   1.442  11.593  0.1114 -0.0285 -0.1783
52955W        W53819   9.864   1.404  12.505  0.1059 -0.2197 -0.1793
52956W        W53820   8.583   1.030  12.833  0.1382  0.1645  0.0705
52957W        W53821  11.312   4.494  12.955 -0.1388 -0.0206  0.1979
52958W        W53822   6.939   0.743  15.626  0.0078  0.1047 -0.0979
52959W        W53823   6.583   3.043  13.685  0.1986  0.0648  0.0978
52960W        W53824   8.436   3.230  11.593  0.1139  0.2322 -0.2795
52961W        W53825   8.119   4.015  11.364 -0.1343  0.1340  0.1695
52962W        W53826   9.650   1.672  13.016 -0.3750 -0.3593 -0.2070
52963W        W53827  11.520   5.375  10.859 -0.1827  0.1844 -0.0964
52964W        W53828   8.402   3.269  16.683 -0.3374  0.1841  0.0242
52965W        W53829   8.493   1.036  12.256 -0.3798  0.2046 -0.4679
52966W        W53830   9.915   2.903  10.542 -0.0482 -0.0578 -0.0169
52967W        W53831   8.174   3.920  13.720 -0.3372 -0.2897  0.0389
52968W        W53832   7.679   1.579  14.669 -0.0937 -0.0397 -0.1497
52969W        W53833   9.887   3.191  14.205 -0.3181  0.0354  0.0005
52970W        W53834  11.071   3.032  15.383 -0.0224  0.1858  0.2709
52971W        W53835   7.041   2.310  12.202 -0.2182 -0.3720 -0.2305
52972W        W53836  10.663   4.540  13.324 -0.1073 -0.0263 -0.0180
52973W        W53837   8.988  27.716  13.662 -0.1564  0.3009  0.0812
52974W        W53838  11.433   3.147  12.362 -0.1173  0.4445 -0.0610
52975W        W53839   9.839   1.713  15.465 -0.4782 -0.0042  0.1487
52976W        W53840  11.056   1.010   9.759 -0.2169  0.1075 -0.0489
52977W        W53841  11.886   3.103  16.789 -0.1733 -0.2781  0.0770
52978W        W53842   8.775   2.760  14.155  0.1128  0.0854 -0.1177
52979W        W53843   8.165   1.308   8.537  0.1220  0.2810 -0.0804
52980W        W53844   6.690   2.350  16.474 -0.2169  0.1038 -0.0890
52981W        W53845   6.700   2.799  15.193 -0.4317  0.0994 -0.0590
52982W        W53846  15.673   1.207  17.093 -0.1174  0.1378  0.5177
52983W        W53847   9.814   5.384  18.745 -0.2500 -0.1847 -0.2309
52984W        W53848   8.718   3.044  12.719 -0.1281  0.0235  0.2820
52985W        W53849   7.078   2.040  14.458  0.0329 -0.0143 -0.0639
52986W        W53850   8.015   0.955  14.418  0.0296 -0.2118  0.1254
52987W        W53851   7.953   2.029  16.885 -0.0471  0.2267 -0.1664
52988W        W53852   8.723   5.296  16.627  0.0726 -0.0175  0.2327
52989W        W53853   9.065   1.766  16.363 -0.1704 -0.3340 -0.1533
52990W        W53854   4.507  28.804  16.704  0.1341 -0.1347 -0.1162
52991W        W53855  10.382   3.137  14.495  0.2111  0.0840 -0.0247
52992W        W53856  11.540   2.568  14.548 -0.2179  0.2031  0.5914
52993W        W53857   9.109   0.551  16.671  0.1719 -0.4258  0.2998
52994W        W53858   6.493   0.317  15.708  0.1092  0.1238  0.3935
52995W        W53859   8.691   5.828  17.250  0.0680 -0.0125  0.1271
52996W        W53860   9.043   4.208  15.674 -0.4060  0.0571  0.2652
52997W        W53861   4.835   0.095  17.188  0.1738  0.0197 -0.1668
52998W        W53862   7.557  28.155  17.919  0.0431  0.0337 -0.3626
52999W        W53863  12.322   0.826  15.359 -0.1021  0.3298 -0.0412
53000W        W53864  10.657   2.076  15.923 -0.3596 -0.0462 -0.0490
53001W        W53865   8.659   0.816  16.632 -0.0834  0.1458 -0.4671
53002W        W53866  10.860   2.835  17.386 -0.0797  0.3065 -0.3928
53003W        W53867   5.467   1.332  17.996 -0.0763  0.1069  0.1259
53004W        W53868   6.056   2.021  14.906 -0.1115 -0.0910  0.0925
53005W        W53869   7.137   4.650  16.608 -0.2371 -0.1504 -0.0760
53006W        W53870  11.617   2.001  19.194  0.1763 -0.1516 -0.0613
53007W        W53871   5.789   2.189  16.304  0.2240  0.0022 -0.3300
53008W        W53872   9.563   0.752  16.926 -0.1712 -0.1469 -0.1477
53009W        W53873   7.429   1.051  18.428 -0.0077 -0.2927 -0.2293
53010W        W53874   9.410   3.113  14.195 -0.2862 -0.1639 -0.4062
53011W        W53875   9.538   4.252  17.609 -0.0300 -0.3400  0.0749
53012W        W53876   6.486   0.616  17.697 -0.2451  0.3236  0.0787
53013W        W53877   6.226   2.493  14.273  0.0464  0.2918  0.2244
53014W        W53878   7.478   0.826  17.921 -0.0923  0.2185  0.3529
53015W        W53879   9.178   5.141  17.295  0.1201  0.0058 -0.2045
53016W        W53880   6.845  27.278  12.955 -0.2266  0.1698 -0.0732
53017W        W53881   9.029   5.678  16.848  0.0207  0.0782 -0.1268
53018W        W53882   9.910   1.826  14.894 -0.2351  0.1349  0.1400
53019W        W53883   8.553   0.758  15.687 -0.2859  0.2461  0.0019
53020W        W53884  11.584  29.031  14.301  0.1562  0.2208  0.4822
53021W        W53885   9.414   5.292  17.734 -0.1755  0.0466  0.2260
53022W        W53886   8.983   2.059  15.454 -0.4161  0.0129 -0.1364
53023W        W53887  10.398   1.095  12.015  0.3994 -0.1850 -0.0458
53024W        W53888   3.651   3.627  16.565  0.2205  0.0126  0.3983
53025W        W53889   9.008   5.928  14.232  0.0563  0.0619 -0.2080
53026W        W53890  12.201  28.242  16.441  0.1542  0.0537 -0.1229
53027W        W53891   9.528   1.257  16.641  0.1517  0.5098  0.0717
53028W        W53892  10.437   1.779  15.190 -0.0572  0.2236  0.4433
53029W        W53893  12.198   1.001  16.102  0.0612  0.1617  0.0293
53030W        W53894   7.266  26.995  18.066 -0.2561  0.0245  0.3843
53031W        W53895   7.747   0.416  17.672 -0.0192 -0.0223  0.0718
53032W        W53896   8.500   2.723  15.362  0.0051 -0.0774  0.0517
53033W        W53897  10.373   1.431  12.530  0.0914 -0.0316 -0.1817
53034W        W53898   8.037   0.336  18.102 -0.3135  0.0354  0.0074
53035W        W53899   6.678   4.900  14.325 -0.1659 -0.2813 -0.0113
53036W        W53900   6.657  28.840  13.884 -0.2858 -0.2123  0.0166
53037W        W53901  10.183   2.307  14.869 -0.1633  0.1467 -0.0941
53038W        W53902   5.073   5.249  15.689 -0.0838  0.4174  0.0692
53039W        W53903  10.870   3.171  14.882  0.1048 -0.0318 -0.3053
53040W        W53904  12.634   1.324  14.007  0.0104 -0.1886  0.0136
53041W        W53905   6.954   1.565  16.067  0.1509  0.0788 -0.4169
53042W        W53906   4.773   0.886  14.106  0.0649  0.0102  0.0565
53043W        W53907   6.689   4.422  17.280  0.0191  0.0619 -0.1867
53044W        W53908   7.887   1.683  18.050 -0.1739 -0.1475  0.3565
53045W        W53909   8.594   0.164  17.326  0.1759  0.1173  0.0130
53046W        W53910   6.873   2.130  13.465  0.0597  0.1791 -0.3555
53047W        W53911   7.563   0.380  15.651  0.2668  0.4273  0.1583
53048W        W53912  10.037   5.071  16.040 -0.0052 -0.2508 -0.0674
53049W        W53913  10.177   3.187  15.257 -0.0992 -0.0280 -0.0647
53050W        W53914   7.063  28.957  18.984 -0.1128 -0.2366  0.0148
53051W        W53915   8.655   1.400  13.782 -0.1575 -0.4467  0.2196
53052W        W53916  13.404   2.078  17.753  0.0699 -0.3250  0.0026
53053W        W53917  10.382   1.895  18.801  0.2498  0.1596 -0.3390
53054W        W53918  11.500   2.188  16.275 -0.1467  0.1316  0.1433
53055W        W53919   7.863   2.286  20.311 -0.0302 -0.1988  0.0754
53056W        W53920   6.833   3.145  14.817 -0.0290 -0.0992  0.0061
53057W        W53921   7.657   3.812  16.357  0.0532 -0.1602 -0.1722
53058W        W53922  10.070   2.134  15.326 -0.2574  0.2673  0.0042
53059W        W53923   9.680   1.473  14.586  0.0151  0.0313  0.3397
53060W        W53924   6.470   1.155  16.796 -0.3103 -0.0295 -0.0544
53061W        W53925   5.671   0.695  17.317  0.0256 -0.1403 -0.0198
53062W        W53926   6.237   2.299  16.649 -0.0848 -0.1920  0.0291
53063W        W53927  11.260   1.459  14.747  0.0335  0.0596  0.0364
53064W        W53928   7.618  28.699  18.087 -0.0452 -0.1614  0.2098
53065W        W53929   9.176   0.885  12.558 -0.1292 -0.1390 -0.2800
53066W        W53930  10.952   2.804  18.401  0.0637  0.0612  0.1642
53067W        W53931   9.416  28.891  16.778  0.0087  0.0124  0.0311
53068W        W53932  11.782   3.904  17.399 -0.1474 -0.2175  0.0443
53069W        W53933   9.086   0.614  19.064  0.0868  0.0874  0.0731
53070W        W53934  10.752   1.538  15.767  0.0127  0.1951 -0.1958
53071W        W53935   8.270   0.517  18.538  0.2625  0.3256 -0.0775
53072W        W53936   7.846   3.147  12.837  0.3233 -0.0755 -0.0326
53073W        W53937   9.578   3.795  13.656 -0.4596  0.1630 -0.1142
53074W        W53938   7.723   1.176  16.845 -0.1556 -0.1587  0.3561
53075W        W53939  10.306   3.185  13.921  0.0501  0.1506  0.1199
53076W        W53940  13.471   1.256  14.412  0.1051 -0.1010 -0.0693
53077W        W53941  10.228   3.979  16.376  0.1401 -0.0444 -0.1328
53078W        W53942   7.428   0.811  17.335 -0.0752  0.2566 -0.2439
53079W        W53943  10.364  28.848  13.878  0.2577  0.1203  0.3167
53080W        W53944  10.976   4.837  15.712 -0.1583 -0.0343  0.1776
53081W        W53945   6.716   3.166  17.122 -0.1354  0.0730  0.1392
53082W        W53946  11.309   2.179  13.805 -0.0699  0.2502 -0.0647
53083W        W53947  13.878   0.982  16.072 -0.0451  0.0663 -0.0653
53084W        W53948   8.972  29.066  17.044 -0.2079 -0.1415  0.1079
53085W        W53949   7.624   1.083  14.700  0.0376  0.2347 -0.0209
53086W        W53950  12.421   3.048  16.003 -0.0945 -0.0310  0.0249
53087W        W53951  10.094   1.415  17.472 -0.0078 -0.0723  0.4405
53088W        W53952   8.689   1.205  14.539  0.1476  0.3347 -0.2190
53089W        W53953   8.944   1.176  14.121 -0.2024 -0.0304 -0.1287
53090W        W53954   5.050   2.223  19.064  0.0602  0.0512 -0.1856
53091W        W53955   8.165   3.398  13.904 -0.1035 -0.0629  0.0061
53092W        W53956   8.929   0.988  14.946  0.0366  0.1351  0.2600
53093W        W53957   9.249   6.209  15.638 -0.1879 -0.0852 -0.2496
53094W        W53958  14.423   3.098  14.589  0.1967  0.1288  0.0116
53095W        W53959   8.251   2.216  14.818  0.1638 -0.1023  0.1248
53096W        W53960  10.198   0.126  16.256  0.0173 -0.2010 -0.0977
53097W        W53961   6.552   2.810  16.881  0.0469  0.2462  0.0680
53098W        W53962   7.753  29.095  17.831  0.0251 -0.0387 -0.0360
53099W        W53963   8.473   0.879  14.139 -0.0169 -0.0190 -0.4996
53100W        W53964   8.153   2.314  13.855  0.0062  0.0396  0.1833
53101W        W53965  10.675   0.225  13.565 -0.1748 -0.2065  0.0558
53102W        W53966  10.543   1.221  15.265 -0.3130  0.1611 -0.0645
53103W        W53967   9.318   0.865  14.008  0.4179 -0.3802  0.1796
53104W        W53968   7.694   3.262  15.520 -0.3792  0.0068  0.1076
53105W        W53969   9.227   1.222  18.061 -0.1882 -0.0031 -0.2226
53106W        W53970   8.445   1.171  15.073 -0.0088 -0.0077 -0.1880
53107W        W53971   9.476   0.699  17.818 -0.0522 -0.0902  0.1570
53108W        W53972  10.400   3.003  16.493 -0.1542 -0.2489 -0.0187
53109W        W53973   9.719   2.397  15.917 -0.2806  0.1445 -0.1934
53110W        W53974   7.622   3.269  16.269 -0.1999 -0.3436  0.3109
53111W        W53975   9.151   0.084  17.505 -0.0084  0.0794  0.1844
53112W        W53976   9.192   3.643  15.853  0.2113 -0.1420 -0.1814
53113W        W53977  10.966   1.098  14.995  0.2220 -0.0048 -0.1572
53114W        W53978  12.199   0.630  17.014 -0.4254  0.0851  0.0842
53115W        W53979   6.823   1.280  15.676  0.0524  0.0775  0.2996
53116W        W53980  13.454   0.012  15.410  0.2775  0.2207  0.1271
53117W        W53981   7.050  28.034  18.625  0.2819  0.0829  0.0591
53118W        W53982   8.364   1.813  16.010  0.2395  0.1677 -0.0766
53119W        W53983   8.478   3.163  16.217  0.1898  0.1082  0.0199
53120W        W53984   8.669   0.708  13.293  0.0975  0.1838 -0.0785
53121W        W53985   5.784   0.009  13.602  0.1646  0.1586 -0.2983
53122W        W53986   9.272   3.848  12.368  0.2423  0.0076  0.1256
53123W        W53987   8.328   1.425  16.347 -0.0309  0.2281  0.2080
53124W        W53988   7.873   2.475  17.047 -0.0450  0.0862  0.3051
53125W        W53989   7.116   3.663  14.777 -0.1690  0.2146  0.4108
53126W        W53990   9.502  28.090  17.482 -0.0271  0.0556 -0.0748
53127W        W53991  10.566   2.730  16.023  0.0218  0.0023  0.1542
53128W        W53992   9.504   5.371  14.634 -0.1446  0.1554  0.1559
53129W        W53993   9.011   0.824  16.250  0.0210  0.1342 -0.1729
53130W        W53994   9.979   2.833  13.232  0.0322 -0.0786  0.2542
53131W        W53995   5.543  26.980  16.205 -0.1851 -0.0865  0.0134
53132W        W53996   5.692   4.597  17.094  0.1990  0.1981  0.0827
53133W        W53997   8.830  27.996  16.050 -0.1638 -0.2368  0.1367
53134W        W53998  10.203   2.121  16.274  0.2301 -0.0843 -0.0097
53135W        W53999   9.304   0.457  16.161 -0.2967  0.2349  0.0266
53136W        W54000   6.038   1.045  14.650 -0.1318 -0.0273 -0.3015
53137W        W54001   8.917   0.720  14.356 -0.2643  0.2549 -0.2574
53138W        W54002   6.715   0.742  16.449  0.1472 -0.0843  0.0334
53139W        W54003   6.733   1.797  14.731  0.2593  0.1607 -0.1130
53140W        W54004   7.117   1.233  14.667  0.3853  0.1981 -0.2257
53141W        W54005   5.543   4.438  16.664  0.0614 -0.2378  0.1475
53142W        W54006   9.093   3.728  17.836  0.0443 -0.1639  0.0693
53143W        W54007   9.411   2.934  18.298  0.0344 -0.4176  0.1329
53144W        W54008   8.391  27.171  16.624 -0.0082  0.0356 -0.1971
53145W        W54009   8.272   0.626  16.118  0.0426 -0.3075  0.0996
53146W        W54010   8.452  27.994  19.431 -0.2467 -0.0310 -0.1224
53147W        W54011   5.817   2.438  15.861  0.0720  0.3120 -0.2159
53148W        W54012  12.648   3.581  17.855  0.0861 -0.0963 -0.0587
53149W        W54013  11.189   5.143  14.281 -0.0562 -0.1277 -0.2546
53150W        W54014   7.940   0.353  13.048  0.1014 -0.0275 -0.0557
53151W        W54015   9.030   0.099  16.467  0.1141 -0.0340 -0.1885
53152W        W54016   7.932   3.014  14.538 -0.1697  0.1199 -0.0055
53153W        W54017   9.326   0.501  13.036 -0.2826  0.3436 -0.0439
53154W        W54018   8.190   1.344  14.648 -0.4590  0.0400  0.0918
53155W        W54019  13.033   0.933  14.430  0.0933 -0.0067  0.0414
53156W        W54020   8.431   4.367  16.609  0.0873 -0.0780  0.0523
53157W        W54021   8.705   4.729  16.508 -0.1064 -0.1460  0.0639
53158W        W54022   7.143   5.176  14.415  0.1939 -0.4418 -0.3021
53159W        W54023   6.164   0.255  16.502 -0.1655  0.0723  0.1895
53160W        W54024   6.809   3.571  13.016 -0.0809 -0.0772 -0.2402
53161W        W54025  12.372   3.391  13.752 -0.0767 -0.0052 -0.1792
53162W        W54026  11.158   2.432  15.311  0.1140 -0.0126 -0.1019
53163W        W54027   9.291   3.308  16.206 -0.0065  0.0185 -0.0343
53164W        W54028   8.540   0.338  14.392  0.0270 -0.0151  0.0517
53165W        W54029   9.355   2.930  17.774 -0.0553 -0.0447 -0.2042
53166W        W54030   9.434   2.809  15.928 -0.0490 -0.2688 -0.1450
53167W        W54031   6.329   1.588  16.867 -0.2784 -0.1998 -0.2462
53168W        W54032   8.826   1.464  14.906  0.0986 -0.0881  0.3340
53169W        W54033  10.495   2.549  16.509 -0.0145 -0.0552  0.1016
53170W        W54034   9.330   4.513  16.035  0.2758 -0.0989  0.2231
53171W        W54035   9.185   4.567  14.107 -0.0643  0.0375  0.1041
53172W        W54036   6.390   2.847  17.386  0.0218  0.1801 -0.0236
53173W        W54037   6.294   0.595  16.116  0.1070 -0.0161  0.1413
53174W        W54038   8.988  28.150  17.446  0.0318 -0.1244  0.0277
53175W        W54039  11.710   1.766  13.839  0.1761  0.0504 -0.1042
53176W        W54040   8.482   0.520  13.794  0.1798 -0.1924 -0.0469
53177W        W54041   6.404  28.848  17.785  0.2725  0.0502  0.0741
53178W        W54042   7.377   1.847  16.269  0.1038  0.3724  0.0618
53179W        W54043  12.551   0.408  16.360 -0.0540  0.2950 -0.1692
53180W        W54044   7.411   3.712  14.311  0.1995  0.1587 -0.1917
53181W        W54045   8.160  28.888  19.472 -0.0463 -0.1403 -0.1233
53182W        W54046  11.892   0.945  13.680  0.0043 -0.1104 -0.2472
53183W        W54047   6.335  28.625  19.686  0.1308 -0.0596  0.2666
53184W        W54048   8.338   4.082  17.122 -0.0411  0.0382 -0.0522
53185W        W54049   7.052   2.106  15.975  0.1203  0.0861  0.1758
53186W        W54050   4.853   3.331  19.807 -0.0575 -0.1238 -0.0095
53187W        W54051   9.931   0.939  15.666  0.0300  0.0232  0.1972
53188W        W54052   7.451   4.784  12.885 -0.0113 -0.0261  0.1209
53189W        W54053   5.657   1.997  15.609 -0.0632 -0.2423 -0.1059
53190W        W54054   6.451   1.766  17.602 -0.0680 -0.0453 -0.4488
53191W        W54055   3.240   0.755  17.655 -0.0263  0.0562  0.0729
53192W        W54056   7.075   5.252  16.910 -0.1046 -0.3940 -0.2124
53193W        W54057   7.923  28.265  16.174 -0.0259  0.0921 -0.0416
53194W        W54058  10.810   1.015  17.111 -0.0316 -0.2563 -0.0879
53195W        W54059  12.414   2.595  14.531 -0.1187  0.3490  0.0597
53196W        W54060  10.509   4.202  14.458  0.1303 -0.1108  0.0997
53197W        W54061  11.156   3.411  14.481 -0.0482  0.1603 -0.0456
53198W        W54062   7.666   1.680  15.381 -0.2889 -0.0957  0.1666
53199W        W54063   9.004   4.600  18.217 -0.3376 -0.0476 -0.4361
53200W        W54064  10.914   3.927  18.533 -0.1775 -0.1614  0.1502
53201W        W54065   8.392   1.705  15.017  0.1201 -0.2749 -0.0453
53202W        W54066   8.273   5.239  15.399  0.2096 -0.0150 -0.0531
53203W        W54067   9.652   1.111  13.737 -0.3002 -0.2717  0.2355
53204W        W54068  10.252   2.443  15.813  0.1984  0.2116  0.1597
53205W        W54069   7.046  26.515  18.353  0.3440 -0.1803  0.2158
53206W        W54070   7.250   3.591  16.162 -0.0107 -0.1331 -0.2022
53207W        W54071   8.477   0.998  17.729 -0.0464 -0.3054 -0.1185
53208W        W54072  10.874   3.844  14.379  0.2418  0.2855  0.4461
53209W        W54073  10.445   0.109  15.804 -0.0394  0.0657 -0.0763
53210W        W54074   4.396  28.870  15.856 -0.1113 -0.3895 -0.2016
53211W        W54075   7.275   1.708  17.431  0.4246 -0.2218 -0.0841
53212W        W54076   7.511   6.042  14.213  0.3640 -0.2159  0.0885
53213W        W54077   9.195  28.490  13.775  0.1025  0.1988  0.0585
53214W        W54078   7.273   2.353  13.855 -0.2374  0.2637  0.0755
53215W        W54079   9.026   2.309  13.893  0.0001 -0.2477  0.0652
53216W        W54080   9.501   2.740  13.332  0.0413  0.0347 -0.0403
53217W        W54081  10.378   0.663  17.254 -0.0029  0.0627 -0.0468
53218W        W54082   7.641   2.072  14.457 -0.1164 -0.1817 -0.1184
53219W        W54083  13.467   1.495  15.802 -0.0422  0.2019  0.2379
53220W        W54084   8.030   0.545  14.082 -0.2527 -0.0517 -0.2123
53221W        W54085   5.688   1.217  17.346 -0.1108 -0.0428  0.4429
53222W        W54086   7.926   0.202  19.361  0.1303  0.1694 -0.1651
53223W        W54087   7.031  27.683  15.968  0.0454 -0.4977 -0.1260
53224W        W54088  11.452   0.095  16.179 -0.0059  0.3333  0.2408
53225W        W54089   7.767   2.308  13.563  0.1045 -0.0100 -0.3762
53226W        W54090  12.574   1.545  15.460  0.0084 -0.0080 -0.0813
53227W        W54091   5.887   5.279  14.032  0.0418 -0.3653 -0.1163
53228W        W54092  11.838   1.660  16.751 -0.0106 -0.1120 -0.1084
53229W        W54093   6.933  28.797  14.301 -0.0409  0.0209 -0.1481
53230W        W54094   5.623   3.293  17.146 -0.2783  0.1216  0.0556
53231W        W54095  10.025   4.441  16.618 -0.3617 -0.0261  0.6637
53232W        W54096  11.516   4.854  16.464  0.1761 -0.1034  0.0347
53233W        W54097   9.501   1.109  17.427  0.1415 -0.4876  0.2094
53234W        W54098   9.222   2.647  14.279 -0.0125  0.0367 -0.1611
53235W        W54099  13.578   0.847  15.707  0.0732 -0.2653 -0.0567
53236W        W54100   7.715  28.592  13.673  0.0672  0.1497 -0.2770
53237W        W54101   8.653  29.028  19.664  0.1034 -0.1206  0.1029
53238W        W54102  10.409  28.634  13.051  0.0792  0.2385 -0.0748
53239W        W54103   8.135   2.079  12.606  0.0990  0.2536  0.2463
53240W        W54104   6.969   2.321  16.979 -0.0728 -0.1171  0.2150
53241W        W54105   9.199  28.676  17.471 -0.3288  0.0794  0.0303
53242W        W54106   8.839   0.503  17.566  0.1631  0.3281  0.1531
53243W        W54107   7.559  28.157  17.325 -0.0968  0.0973 -0.1877
53244W        W54108   8.361   4.813  13.993 -0.0744  0.0033  0.0833
53245W        W54109   8.097   4.307  19.246  0.0548 -0.0474  0.1165
53246W        W54110   8.103   5.623  14.364  0.0623  0.1165  0.1335
53247W        W54111  10.736   3.513  12.264  0.0648 -0.1401  0.0044
53248W        W54112   6.459   2.150  13.847  0.1480 -0.0200 -0.6121
53249W        W54113  10.392  28.548  15.085  0.0554 -0.2035  0.1060
53250W        W54114   7.233   4.550  15.187  0.2056  0.2272  0.0179
53251W        W54115   8.254   1.015  17.019 -0.2321 -0.0151 -0.1089
53252W        W54116   8.734   2.697  17.334 -0.0326  0.3859  0.1962
53253W        W54117   8.001   0.865  14.950  0.1016 -0.1803 -0.1181
53254W        W54118  10.078   3.584  15.560 -0.1286 -0.0828 -0.2095
53255W        W54119  11.499  28.255  16.749  0.2163 -0.1408 -0.2057
53256W        W54120   8.633  28.961  16.269  0.5118 -0.0072  0.1297
53257W        W54121   8.189   2.104  15.344 -0.1485 -0.1666  0.2384
53258W        W54122   8.883   2.615  15.742  0.0832 -0.2988  0.0855
53259W        W54123   5.433   1.117  15.219 -0.1648  0.2345 -0.0356
53260W        W54124   9.255   5.183  16.742 -0.0869 -0.1651 -0.1564
53261W        W54125   7.881   1.590  15.929  0.1105  0.0602  0.1095
53262W        W54126   8.135   3.665  15.460  0.0712  0.0795 -0.4803
53263W        W54127   6.966   6.577  16.923 -0.1561 -0.4099  0.0157
53264W        W54128  10.507   2.339  13.869 -0.0014  0.2083 -0.1360
53265W        W54129  11.032   1.027  18.783 -0.2675  0.0431 -0.0468
53266W        W54130   9.650   3.538  15.853 -0.0885 -0.0264  0.2714
53267W        W54131   5.699  29.122  18.894 -0.1198  0.2361 -0.0732
53268W        W54132   8.405   1.580  12.564  0.0559 -0.0284  0.2143
53269W        W54133  11.755  28.659  15.441 -0.2635 -0.0005  0.0139
53270W        W54134   9.807   4.008  15.346 -0.0311  0.3043  0.2169
53271W        W54135   9.402  26.135  15.594 -0.0561 -0.1312 -0.0638
53272W        W54136  10.297  28.035  16.347 -0.2076 -0.1173  0.1061
53273W        W54137   7.123  28.825  13.134 -0.1730  0.0195  0.1375
53274W        W54138   9.867   4.097  18.325  0.2353  0.0929 -0.1008
53275W        W54139  11.610   1.144  16.039 -0.1423  0.4050 -0.0523
53276W        W54140   7.553   3.332  14.679  0.2612 -0.1449 -0.0462
53277W        W54141   8.465   3.586  15.086 -0.1250 -0.0503  0.0411
53278W        W54142   9.721   2.852  17.435 -0.1810  0.1753 -0.1654
53279W        W54143   7.337   3.445  13.048 -0.0552 -0.1432  0.2475
53280W        W54144   6.734   1.999  15.545 -0.0672  0.2589 -0.0839
53281W        W54145   7.959  27.057  17.164  0.2537  0.0086 -0.0307
53282W        W54146   8.137   4.406  15.332 -0.2829  0.0553 -0.2077
53283W        W54147  10.765   3.004  13.646  0.1656  0.0334 -0.0215
53284W        W54148   7.350   1.194  14.162  0.0331  0.0542 -0.0226
53285W        W54149   8.670   1.700  15.457 -0.2878 -0.2022  0.2486
53286W        W54150  11.014   3.421  18.475  0.0279  0.0551 -0.2300
53287W        W54151  10.556   1.443  17.114  0.3790 -0.1601 -0.0291
53288W        W54152   8.405   2.344  16.254 -0.0171  0.1583 -0.0238
53289W        W54153   7.189   2.482  16.545  0.2647  0.0044 -0.0730
53290W        W54154   7.134   0.445  14.460  0.2911 -0.0050  0.0587
53291W        W54155   6.136   3.657  18.492  0.0619 -0.1090 -0.3379
53292W        W54156  11.095   1.889  15.541  0.2874 -0.2126 -0.0718
53293W        W54157   9.544   4.424  15.520 -0.0073 -0.1105  0.2757
53294W        W54158   9.626   2.627  16.896  0.1327 -0.2448 -0.0756
53295W        W54159   8.999   1.597  16.843 -0.0928  0.1795  0.0918
53296W        W54160   7.690   2.261  15.292 -0.2451 -0.2898 -0.0511
53297W        W54161   9.665   2.412  18.871  0.3049  0.1871 -0.1841
53298W        W54162   8.351   1.884  19.014 -0.0274  0.0154  0.2508
53299W        W54163   8.069   3.457  16.384  0.0390  0.1020  0.2515
53300W        W54164   6.866   2.483  17.925  0.0858 -0.3845 -0.0833
53301W        W54165  10.230   2.501  12.974 -0.0362 -0.3034 -0.1292
53302W        W54166   7.482   2.941  14.353 -0.0725  0.0995  0.1844
53303W        W54167   8.024   3.093  15.941  0.1864 -0.2176  0.2506
53304W        W54168  10.757   4.685  14.311  0.3638  0.0513  0.2774
53305W        W54169   6.826   3.336  15.896  0.0088  0.0228 -0.1443
53306W        W54170   8.388   2.712  15.944 -0.3097  0.1153 -0.2598
53307W        W54171   5.536  28.924  14.805  0.2099 -0.4771 -0.1828
53308W        W54172   7.452   2.232  10.470 -0.0477 -0.1688 -0.0842
53309W        W54173   7.428   1.311  16.006  0.0242 -0.0089  0.2613
53310W        W54174   8.332  27.925  16.900  0.1902  0.0957  0.0900
53311W        W54175   6.426   1.254  14.247 -0.0332 -0.2891  0.3072
53312W        W54176  11.243   1.782  18.317  0.1889  0.1329  0.3322
53313W        W54177   7.752   4.283  17.276 -0.0383  0.0699 -0.2674
53314W        W54178  10.590   1.624  17.597 -0.0216 -0.0917  0.0229
53315W        W54179  10.859   4.416  18.459  0.0635  0.3485  0.0397
53316W        W54180   5.616   4.115  14.532 -0.4866  0.0973 -0.0832
53317W        W54181  10.089   2.700  16.728 -0.1066  0.2369 -0.0011
53318W        W54182  12.490   2.485  15.949 -0.0864 -0.4321 -0.0229
53319W        W54183   8.829   0.678  17.085 -0.1693  0.0467  0.0416
53320W        W54184   8.024   4.869  15.045  0.0675  0.0197  0.0254
53321W        W54185   7.663   0.944  16.369 -0.1957 -0.1353 -0.2582
53322W        W54186   6.697  25.758  18.702  0.2354  0.2613  0.4323
53323W        W54187   9.665   4.349  13.488  0.1069 -0.2432  0.3014
53324W        W54188   9.331   2.831  14.717 -0.2403 -0.0951 -0.0122
53325W        W54189   6.503   2.224  14.639  0.0969 -0.2309  0.0924
53326W        W54190   6.149   3.687  14.389 -0.0255  0.0959  0.0083
53327W        W54191   5.422   0.733  14.787  0.1903  0.1306  0.1073
53328W        W54192   8.245   2.852  17.011 -0.1654  0.0047 -0.0093
53329W        W54193   6.078   2.022  14.412 -0.2335 -0.0131 -0.0936
53330W        W54194   9.775   0.135  15.230  0.2851 -0.0905 -0.3516
53331W        W54195   8.880   0.623  15.298  0.3761 -0.0447  0.0989
53332W        W54196   9.817   2.218  16.616  0.1036 -0.1069 -0.1556
53333W        W54197  11.173   3.477  16.277  0.1548  0.2042 -0.1118
53334W        W54198   8.674   4.594  14.423  0.0679 -0.1800  0.2297
53335W        W54199  10.204   2.302  14.299  0.0092  0.0802 -0.1709
53336W        W54200   6.067   0.897  17.567  0.0999 -0.0869 -0.2589
53337W        W54201   7.088  27.402  20.325 -0.2336  0.0608 -0.1435
53338W        W54202   6.212   1.167  19.443  0.1057 -0.0238  0.2006
53339W        W54203   9.528   2.674  16.393 -0.0196 -0.2657 -0.1889
53340W        W54204   6.874   4.129  15.057  0.1171 -0.0826  0.0329
53341W        W54205   9.711  27.241  17.361 -0.0083 -0.1209  0.0688
53342W        W54206   9.095   4.051  16.185 -0.0530  0.0341  0.1586
53343W        W54207   8.178   0.934  16.570  0.2477 -0.0717 -0.1303
53344W        W54208  11.072   3.847  15.886  0.3872 -0.1150  0.5812
53345W        W54209   6.843   2.525  19.721 -0.1571 -0.1578  0.0695
53346W        W54210  11.249   2.844  14.932 -0.1224  0.3417 -0.1238
53347W        W54211   9.486   3.084  17.061  0.3515  0.0754 -0.0099
53348W        W54212   9.492   4.050  15.835  0.0525 -0.0723 -0.0872
53349W        W54213  12.847  26.994  15.886 -0.5354 -0.1858 -0.0009
53350W        W54214   7.472  28.588  14.837 -0.1481  0.1508 -0.2923
53351W        W54215  11.898   3.915  14.767  0.0442 -0.2321 -0.1018
53352W        W54216   7.848   2.449  16.563  0.0281  0.1502  0.1768
53353W        W54217  10.388   2.772  18.695  0.0578 -0.0799 -0.1014
53354W        W54218   9.458   2.375  15.483 -0.1165  0.0351 -0.1586
53355W        W54219   8.308  28.177  18.037 -0.1354  0.2167  0.3631
53356W        W54220   8.180   1.653  15.476 -0.0809 -0.1800 -0.1864
53357W        W54221  11.035   2.396  17.389  0.0628  0.0471  0.3183
53358W        W54222   7.900   2.591  16.059 -0.0054  0.0700 -0.1575
53359W        W54223   8.359   3.123  14.817  0.0623 -0.0559 -0.0408
53360W        W54224  10.178   1.357  15.543 -0.1588 -0.1077  0.2025
53361W        W54225   4.068   1.998  16.032 -0.0445 -0.2395 -0.0520
53362W        W54226   7.973   1.675  18.624 -0.2780  0.4507 -0.1734
53363W        W54227   9.561   1.986  16.262  0.1343 -0.0583  0.2590
53364W        W54228  10.762   2.385  16.923 -0.0069 -0.0725  0.1035
53365W        W54229   9.323  27.938  19.189 -0.1663 -0.2398 -0.2927
53366W        W54230   8.349   3.574  17.588 -0.1907 -0.0370 -0.2481
53367W        W54231   8.550   3.138  17.442 -0.0497  0.3949  0.0312
53368W        W54232   7.981   1.725  17.479  0.0517  0.0685  0.0935
53369W        W54233   9.499   0.871  16.395  0.2167  0.3275  0.2647
53370W        W54234  10.413   3.267  18.478 -0.0593  0.1666 -0.1769
53371W        W54235   7.450   4.375  13.964  0.2802 -0.3411  0.2314
53372W        W54236   6.388   2.394  15.121 -0.0407  0.0869 -0.3404
53373W        W54237  12.020   5.145  16.411  0.0040  0.2553  0.3130
53374W        W54238   8.661   6.388  18.069  0.0498  0.2236  0.2325
53375W        W54239  10.813   3.200  18.106 -0.2815  0.1380 -0.1360
53376W        W54240  10.651   3.089  15.635  0.2107 -0.0324  0.0612
53377W        W54241   9.804   5.087  17.068  0.3790 -0.0738  0.4159
53378W        W54242   8.121   2.747  13.586  0.2583  0.2259  0.2658
53379W        W54243   8.407  27.762  14.087  0.3594  0.1250  0.2657
53380W        W54244   8.262   4.057  19.924 -0.0476 -0.1717 -0.0567
53381W        W54245   9.566   4.143  22.297  0.3326 -0.2524 -0.0891
53382W        W54246   8.617   1.441  19.073 -0.3544  0.1795  0.2193
53383W        W54247  11.330   5.931  20.670 -0.3005 -0.1178 -0.1659
53384W        W54248  10.114   3.667  18.565  0.0334 -0.0003  0.4688
53385W        W54249   6.391   1.150  18.975  0.2631 -0.0539  0.0755
53386W        W54250   8.644   3.547  22.308  0.1218  0.0012  0.2688
53387W        W54251   9.742   0.327  18.111  0.0228 -0.1621  0.0120
53388W        W54252   9.217   3.901  21.003 -0.1857 -0.0373  0.0544
53389W        W54253   9.951   1.215  21.398 -0.2010  0.1547 -0.0947
53390W        W54254   8.159  27.788  22.732  0.1414  0.1760 -0.0804
53391W        W54255  10.165   0.255  20.937  0.0606  0.1735 -0.2150
53392W        W54256   7.247   0.312  17.572 -0.0253  0.1835 -0.0947
53393W        W54257  10.563   2.602  21.756 -0.0606  0.0930  0.1243
53394W        W54258   7.625  28.039  19.263  0.3091 -0.1691 -0.0415
53395W        W54259   8.907   6.131  21.729 -0.2402  0.0444 -0.0760
53396W        W54260  10.491   2.428  17.379 -0.2093  0.0507 -0.0491
53397W        W54261   8.931  29.010  21.671  0.2710 -0.0175 -0.0885
53398W        W54262   8.290   0.724  21.472 -0.0995 -0.2981  0.0951
53399W        W54263  11.154   3.661  18.907 -0.1802 -0.0544 -0.1575
53400W        W54264  11.082   4.850  20.338 -0.2414  0.0806 -0.4840
53401W        W54265   7.946  28.599  21.648 -0.0342 -0.1825  0.1925
53402W        W54266   8.582   2.782  17.904 -0.1370  0.1600 -0.0040
53403W        W54267   7.859   0.851  21.165 -0.1660 -0.4206 -0.0360
53404W        W54268   6.580   2.329  19.369  0.0255 -0.5055  0.1637
53405W        W54269   8.151   3.131  19.481  0.0356 -0.0220  0.0438
53406W        W54270  10.392   1.329  21.286 -0.1928  0.1516  0.0971
53407W        W54271   8.439   4.572  19.949  0.2320  0.0112 -0.3742
53408W        W54272  10.098   4.900  21.432  0.0541 -0.0112 -0.0962
53409W        W54273   6.999   4.715  18.472 -0.0312  0.2772 -0.2173
53410W        W54274   7.902   3.537  21.822  0.2980 -0.0372 -0.2918
53411W        W54275   9.863   5.380  21.481 -0.1542  0.2664 -0.0285
53412W        W54276   7.217   2.940  22.305  0.2308 -0.1802 -0.2157
53413W        W54277   8.206   2.376  22.375  0.0629  0.0429  0.0091
53414W        W54278   7.398   0.630  23.234 -0.2968 -0.0895  0.0574
53415W        W54279  10.806   3.874  19.318 -0.2709 -0.2913  0.3116
53416W        W54280   8.559  27.533  19.331 -0.0500 -0.0050 -0.0591
53417W        W54281   7.297   2.830  17.598 -0.5612 -0.0855  0.3804
53418W        W54282  10.380   2.976  20.064  0.1942 -0.2395 -0.1580
53419W        W54283  12.268   1.276  22.335  0.2397  0.1285  0.1087
53420W        W54284  10.287   2.570  15.321 -0.1990 -0.3303 -0.1939
53421W        W54285  10.027   2.749  21.972  0.0697 -0.2201 -0.0677
53422W        W54286   6.948   1.016  16.882  0.2546 -0.1508  0.0347
53423W        W54287  10.800   2.193  19.526 -0.0930  0.0333  0.0956
53424W        W54288   6.695   2.823  16.372  0.0192  0.0649  0.0455
53425W        W54289   7.888   2.969  17.331  0.1837  0.1378  0.0890
53426W        W54290   7.893  27.416  20.419  0.2501  0.0425 -0.0770
53427W        W54291  12.662   0.881  20.237 -0.0292 -0.1098  0.1231
53428W        W54292  10.296   2.412  20.820 -0.0145  0.0963 -0.1119
53429W        W54293   9.288   2.777  19.764 -0.1420 -0.1704  0.0904
53430W        W54294   7.054   3.598  17.055 -0.0338 -0.0022 -0.2694
53431W        W54295   8.742   1.743  20.586  0.0789  0.1385 -0.0061
53432W        W54296  10.314   4.605  24.428 -0.1988 -0.2262  0.2652
53433W        W54297  10.559   3.909  19.760  0.2911  0.1130 -0.0711
53434W        W54298   9.235  28.410  17.880 -0.3201 -0.0652 -0.0527
53435W        W54299   7.837   3.584  15.928  0.0196  0.0066  0.0660
53436W        W54300   7.834  27.463  19.921 -0.0037 -0.0629  0.4973
53437W        W54301  10.560   3.378  21.837 -0.2215  0.0212  0.0210
53438W        W54302   9.372   5.303  20.578 -0.0310 -0.3573 -0.1947
53439W        W54303   8.263   6.777  13.622  0.0905  0.0765 -0.0927
53440W        W54304   9.270   2.607  17.241 -0.0861 -0.0258 -0.1538
53441W        W54305   7.190   2.084  20.030 -0.1514 -0.0402 -0.0051
53442W        W54306   9.238   1.672  18.244  0.1916 -0.0142  0.1570
53443W        W54307   8.805   1.902  17.876 -0.0833 -0.0149 -0.1826
53444W        W54308   8.299   0.069  22.252 -0.0068 -0.2143  0.0539
53445W        W54309  12.781   0.331  22.800  0.0202  0.0937  0.5296
53446W        W54310   7.166   4.148  17.904 -0.1023  0.1007 -0.1660
53447W        W54311   6.655  28.409  17.869 -0.2868 -0.0745  0.1269
53448W        W54312   7.862   1.005  19.875 -0.0325  0.0569  0.0723
53449W        W54313   7.828   3.042  16.805  0.0875 -0.2704 -0.1468
53450W        W54314  12.311   4.602  17.913 -0.0657 -0.0067  0.0956
53451W        W54315   7.295   2.612  19.465  0.1406 -0.1229  0.1069
53452W        W54316   8.998   2.587  17.796  0.1048 -0.2503 -0.2137
53453W        W54317  11.190   2.191  22.232 -0.1805  0.1455  0.1748
53454W        W54318   7.732   2.535  17.538  0.2773  0.3788 -0.3125
53455W        W54319   9.293   4.094  21.835  0.0291 -0.2056 -0.0311
53456W        W54320   9.124   1.059  16.886 -0.2324  0.2808  0.0471
53457W        W54321   8.565   3.018  19.261 -0.2172  0.0803 -0.3192
53458W        W54322   8.409   3.500  18.612 -0.2640  0.0069  0.0746
53459W        W54323   9.668   0.958  20.029  0.0421  0.0734  0.0415
53460W        W54324   8.029   2.689  19.944  0.3555 -0.0724  0.1188
53461W        W54325   8.732   4.163  22.057  0.2172 -0.0490  0.0196
53462W        W54326   7.395  27.017  20.494  0.4085  0.2181 -0.1870
53463W        W54327   7.869   0.477  19.765 -0.0173 -0.0493  0.0429
53464W        W54328  12.439   1.983  23.490  0.1201  0.4513 -0.1480
53465W        W54329   8.142   0.060  19.849 -0.0823  0.2193 -0.1838
53466W        W54330   9.701   3.629  24.087  0.1920  0.1727 -0.0173
53467W        W54331   9.511   0.686  20.420 -0.4131 -0.1660 -0.0431
53468W        W54332  10.290   3.770  24.010 -0.1895  0.0146 -0.4653
53469W        W54333  12.958   0.752  22.113  0.0494 -0.5098  0.0609
53470W        W54334   8.036   0.196  17.147 -0.1697 -0.2292  0.1810
53471W        W54335   8.959   2.648  21.810  0.1144 -0.0513  0.0384
53472W        W54336   5.514   2.196  19.928 -0.0426  0.0008  0.0247
53473W        W54337   8.482   1.675  19.517 -0.1564 -0.1650  0.0529
53474W        W54338  10.977   2.522  22.696 -0.1239  0.0758 -0.0198
53475W        W54339   9.690   0.388  19.978 -0.1581  0.1064  0.2340
53476W        W54340  11.321   2.014  20.619  0.0270 -0.0278  0.1796
53477W        W54341  10.863   5.208  21.746  0.5371 -0.2787  0.2540
53478W        W54342   8.395   0.268  19.481  0.1918  0.0954  0.1336
53479W        W54343  12.719   1.623  19.958  0.4763  0.2288  0.1046
53480W        W54344  11.295   3.620  17.278  0.2446  0.0796  0.0059
53481W        W54345   7.101   2.763  20.144 -0.1044  0.1760  0.1185
53482W        W54346   7.331  28.363  18.383  0.3220  0.0836 -0.0028
53483W        W54347  12.310   3.314  17.014 -0.1410  0.0970 -0.4207
53484W        W54348  12.068   0.685  20.958 -0.2135  0.0358  0.1987
53485W        W54349  10.229   2.300  21.539  0.2797 -0.0486  0.0774
53486W        W54350   8.798   2.449  18.315 -0.2030 -0.2220  0.2033
53487W        W54351   7.319   2.173  21.134 -0.0284  0.0061  0.1704
53488W        W54352   8.895   1.517  18.703  0.2813  0.1618 -0.2920
53489W        W54353   7.292   1.557  19.299 -0.0747  0.1753  0.0180
53490W        W54354   7.338   3.168  19.290  0.3649 -0.2259  0.1123
53491W        W54355   8.718   5.935  17.761 -0.1811  0.1380  0.1310
53492W        W54356  11.568   1.638  20.872  0.0645  0.0842  0.2159
53493W        W54357   7.573   5.627  18.720 -0.2381 -0.2624  0.1763
53494W        W54358  10.167   2.382  17.895  0.1002  0.1409 -0.2129
53495W        W54359   8.339   2.279  18.632 -0.4434 -0.1592 -0.0645
53496W        W54360  11.320  29.099  23.989 -0.0886 -0.2576  0.0809
53497W        W54361   6.945   4.939  19.522 -0.2401 -0.2603  0.1629
53498W        W54362   9.698   3.132  21.808  0.3016  0.0579 -0.0427
53499W        W54363  10.418   1.920  19.393 -0.2012  0.3459  0.2647
53500W        W54364  11.183   1.426  16.014  0.0561  0.4152  0.1775
53501W        W54365  11.493   4.871  19.270  0.1739 -0.4011  0.0548
53502W        W54366   9.894   2.691  21.457  0.0166 -0.1087 -0.0590
53503W        W54367   9.281   2.538  19.329 -0.0069 -0.1485 -0.0446
53504W        W54368   8.984   1.030  20.257  0.1205 -0.1289 -0.2051
53505W        W54369  12.212   1.769  20.255 -0.1087 -0.1037  0.0160
53506W        W54370   7.690  28.875  20.467 -0.1619  0.2055  0.3053
53507W        W54371  12.307   2.471  22.115  0.0466 -0.2708  0.1408
53508W        W54372  10.135   2.380  18.404 -0.0637 -0.0160  0.0611
53509W        W54373   9.077   3.631  18.347 -0.1204  0.0718  0.1375
53510W        W54374  10.369   4.369  19.760  0.1183  0.0705  0.1667
53511W        W54375   9.473   1.176  20.422 -0.0893 -0.0144 -0.0497
53512W        W54376   9.279   5.071  21.003 -0.1811  0.3085  0.1171
53513W        W54377   8.861   1.425  17.684  0.0912  0.1193  0.2030
53514W        W54378   9.758   4.281  20.939 -0.2663 -0.0241  0.0537
53515W        W54379   7.219   0.167  19.895  0.1469  0.3827  0.1066
53516W        W54380  11.705   3.840  18.959  0.2706  0.1808 -0.1469
53517W        W54381  12.382   1.941  21.557 -0.3311  0.0477 -0.1065
53518W        W54382   9.802   2.639  18.103 -0.1222 -0.0824 -0.1072
53519W        W54383   8.801   3.281  21.471  0.4897 -0.4881 -0.1608
53520W        W54384   8.399  29.017  18.581  0.0354 -0.1067  0.1148
53521W        W54385  10.291   0.707  20.100  0.0146 -0.1774 -0.1651
53522W        W54386   8.271   5.516  17.332  0.1470  0.0389 -0.3979
53523W        W54387   8.255  29.005  16.592 -0.0772  0.4875  0.5818
53524W        W54388   9.097   3.241  22.252 -0.1419  0.2601 -0.0806
53525W        W54389   9.858   1.326  19.490 -0.0738 -0.5227  0.0240
53526W        W54390  11.069   2.056  19.113  0.2569 -0.0131 -0.0004
53527W        W54391   8.423   3.185  20.579  0.1040 -0.2214 -0.1626
53528W        W54392   9.520   3.951  20.616 -0.1687  0.1165  0.0662
53529W        W54393   7.766   4.435  22.453  0.3884  0.1010 -0.3412
53530W        W54394   9.958   4.816  18.645  0.1035 -0.0354 -0.0883
53531W        W54395   7.195   0.620  18.334  0.0251 -0.1851 -0.0739
53532W        W54396  13.105   1.696  20.958  0.2061  0.1127  0.1849
53533W        W54397   6.798   0.070  17.765 -0.1039 -0.1468 -0.3446
53534W        W54398   9.611   3.332  19.747 -0.0081  0.2133 -0.2263
53535W        W54399  11.889   0.903  19.162  0.4294  0.1354  0.1151
53536W        W54400   7.940   1.410  20.192  0.1593 -0.2983 -0.0686
53537W        W54401   9.342   0.709  14.922  0.0609 -0.2132  0.1381
53538W        W54402   7.214   0.309  16.326  0.0916  0.2917 -0.3844
53539W        W54403   8.375   1.693  17.775  0.0531 -0.2463 -0.0469
53540W        W54404   9.177   1.489  20.221 -0.1438  0.0109 -0.0361
53541W        W54405   6.697   2.160  22.316 -0.0819  0.1044 -0.0725
53542W        W54406   7.337   2.978  19.749  0.4624 -0.0886 -0.3396
53543W        W54407  10.696   3.397  20.627  0.1118  0.0399  0.0390
53544W        W54408   9.943   0.001  22.147 -0.1610  0.0286 -0.0473
53545W        W54409   9.680   2.031  17.246  0.1352  0.1446 -0.4294
53546W        W54410  10.344  28.183  20.548  0.0931  0.2060  0.4452
53547W        W54411   7.225   2.084  15.372  0.0921 -0.3253 -0.0083
53548W        W54412   9.646   1.440  17.945 -0.0778 -0.1365  0.1601
53549W        W54413   7.099   1.778  16.978 -0.1034  0.3289  0.0272
53550W        W54414  11.298   3.620  22.072  0.1314 -0.0731  0.1086
53551W        W54415  12.420   2.606  18.973  0.0146  0.0458  0.0220
53552W        W54416  10.406   3.043  20.828 -0.3301 -0.2048  0.0861
53553W        W54417   8.631   3.577  17.015  0.0395  0.0420  0.2307
53554W        W54418   7.633  27.428  19.268  0.4386 -0.1780 -0.1991
53555W        W54419  10.791   1.705  21.228 -0.0163  0.0593 -0.2161
53556W        W54420   7.349   2.515  22.054  0.0685 -0.2583 -0.4210
53557W        W54421   9.257   2.043  19.070  0.2683  0.1464 -0.2031
53558W        W54422   5.130   2.759  19.026  0.1082  0.3576 -0.1781
53559W        W54423   9.570   1.415  21.074  0.1462  0.2829 -0.0054
53560W        W54424   9.592   4.910  15.968 -0.0548  0.1228 -0.0395
53561W        W54425  12.108   2.624  17.627  0.0109 -0.1908  0.1830
53562W        W54426   8.726   2.004  21.643 -0.2926  0.0229 -0.1583
53563W        W54427   6.734   2.990  19.984  0.1626 -0.1858 -0.1117
53564W        W54428   5.653   0.225  14.997 -0.3045 -0.2786  0.1496
53565W        W54429   6.701   4.083  22.590  0.0558 -0.1659 -0.1629
53566W        W54430   9.192   1.023  18.584  0.1429  0.2515  0.0358
53567W        W54431   4.624  27.236  17.917 -0.4696 -0.4454  0.1861
53568W        W54432   8.739   5.453  19.643  0.0164 -0.0751  0.1570
53569W        W54433  10.190   4.096  20.785 -0.1346  0.3263  0.2401
53570W        W54434   8.499   2.298  15.638  0.1126 -0.0531  0.1090
53571W        W54435   7.238   3.333  18.366 -0.3322 -0.2165 -0.0744
53572W        W54436   7.059   0.218  20.414  0.0758  0.1695 -0.2438
53573W        W54437   8.378   3.465  21.279  0.2865  0.2062  0.2934
53574W        W54438   8.927   2.457  20.033  0.0112  0.0318  0.0469
53575W        W54439   8.316  27.370  18.755  0.0401  0.0444  0.0270
53576W        W54440   9.770   1.085  18.515 -0.1738 -0.1001  0.0496
53577W        W54441   6.797   1.983  20.902 -0.4114  0.1101 -0.1638
53578W        W54442   9.108   0.113  21.190 -0.2193 -0.3485 -0.1221
53579W        W54443  12.102   0.875  18.690 -0.0443 -0.2300 -0.1525
53580W        W54444  10.317   3.304  17.958 -0.0143 -0.0242  0.3897
53581W        W54445  11.641   0.819  21.198  0.1930 -0.0875  0.2015
53582W        W54446  11.050   3.721  20.481 -0.0136  0.0366  0.0136
53583W        W54447   8.761  28.350  22.211 -0.3289 -0.1479  0.2012
53584W        W54448  11.129   2.373  18.659 -0.0926 -0.0101  0.2558
53585W        W54449   9.699  27.618  20.677  0.3531 -0.1615 -0.4904
53586W        W54450   9.134   0.274  17.990 -0.0785  0.0011  0.1537
53587W        W54451   9.276   0.401  20.798 -0.1560  0.0278 -0.0458
53588W        W54452  10.005   3.984  21.221 -0.2684 -0.3867 -0.0973
53589W        W54453   6.829   1.444  18.925  0.3533  0.0520  0.3144
53590W        W54454   6.745   4.609  22.694  0.1451 -0.3512  0.0665
53591W        W54455  10.339   1.956  21.152 -0.0256 -0.3466 -0.0955
53592W        W54456   7.640   2.250  22.364 -0.2470  0.0310 -0.0338
53593W        W54457  12.056   2.119  18.660 -0.0718 -0.0700  0.2174
53594W        W54458  10.133   2.296  18.951 -0.0520  0.0594  0.0002
53595W        W54459   9.435   0.658  18.347  0.2112 -0.6548  0.0831
53596W        W54460   9.789   3.346  18.829 -0.1845  0.0520  0.0317
53597W        W54461  12.587   4.321  15.163 -0.1853 -0.0828  0.0361
53598W        W54462   8.560   5.347  23.867 -0.1952  0.0439 -0.0339
53599W        W54463   6.167   2.076  21.800 -0.0329  0.2292 -0.1315
53600W        W54464   9.352   0.665  22.636 -0.0284  0.5090  0.1195
53601W        W54465  10.577   2.603  19.801 -0.0161  0.3074 -0.2637
53602W        W54466   9.937   2.776  24.341  0.2196  0.1231  0.2067
53603W        W54467   9.011  28.183  20.188 -0.1284 -0.3985  0.0914
53604W        W54468  11.368   2.770  17.525  0.0133 -0.2451  0.2263
53605W        W54469   9.377   3.092  22.615  0.2060 -0.0685  0.0653
53606W        W54470   9.462   2.439  18.430  0.1805 -0.1121 -0.0993
53607W        W54471  12.549  28.929  22.087  0.2023  0.2903  0.0586
53608W        W54472   9.527   4.514  18.458  0.0530 -0.2337 -0.1365
53609W        W54473  11.314   1.376  22.426  0.0129  0.1804  0.1784
53610W        W54474   7.362   2.450  20.490 -0.2501 -0.2093  0.1081
53611W        W54475   8.562   1.111  22.046  0.3308 -0.1059  0.0474
53612W        W54476   7.562   2.925  20.365 -0.0056 -0.0676  0.0375
53613W        W54477   9.082   1.333  20.697  0.1141  0.2115 -0.2047
53614W        W54478   8.187   0.570  20.154  0.1391 -0.0225  0.2911
53615W        W54479   8.290  28.431  19.848 -0.1587  0.2189 -0.3377
53616W        W54480   9.201   0.672  21.205  0.2130 -0.2897 -0.2962
53617W        W54481   9.394   0.973  20.857 -0.1187 -0.2469  0.3983
53618W        W54482   9.952   3.294  19.331  0.0421  0.1301 -0.1958
53619W        W54483  10.265   3.410  20.364  0.2014  0.0709  0.3730
53620W        W54484   9.812   3.911  16.742 -0.1638  0.0874 -0.0491
53621W        W54485   8.173   3.901  23.066 -0.2210  0.0648  0.1272
53622W        W54486   7.795   1.406  21.635  0.0643 -0.2421 -0.0594
53623W        W54487   9.426   2.694  21.622 -0.3254 -0.0014  0.0675
53624W        W54488  13.006  29.128  21.010 -0.0002  0.1023 -0.0137
53625W        W54489   7.063   1.478  18.402  0.0694  0.1446 -0.4314
53626W        W54490   9.286   3.521  20.567 -0.3843 -0.0714  0.1541
53627W        W54491   8.791   4.176  20.839  0.2190  0.2077  0.0740
53628W        W54492  13.265   2.017  19.399  0.0805 -0.0178  0.2130
53629W        W54493   7.655   0.464  21.882 -0.3761 -0.1800  0.0694
53630W        W54494   9.893   1.053  17.748  0.0665 -0.4622  0.2017
53631W        W54495   8.837   4.569  21.111 -0.1396 -0.2626  0.2849
53632W        W54496  12.394   3.330  20.579  0.3076  0.1440 -0.3610
53633W        W54497   9.200   4.356  20.692 -0.1658  0.1154 -0.1384
53634W        W54498   8.185   3.086  17.759 -0.0161  0.0973  0.0737
53635W        W54499  10.109   4.762  20.109  0.1423  0.2326 -0.2765
53636W        W54500   9.541   3.568  19.201  0.3231 -0.1996  0.0589
53637W        W54501   8.790   1.363  19.950  0.0995 -0.3202 -0.1364
53638W        W54502  11.281   4.038  19.268  0.1701 -0.2143 -0.3389
53639W        W54503   8.330   2.317  20.426  0.2114 -0.3340  0.0162
53640W        W54504   8.626   0.778  19.234  0.0170 -0.1677 -0.1495
53641W        W54505   9.554   3.034  21.265 -0.1438 -0.0817  0.0106
53642W        W54506   8.486   2.440  21.771  0.0223  0.4595  0.1907
53643W        W54507  10.481   0.282  19.618 -0.0710 -0.1482  0.4242
53644W        W54508  10.611   2.363  19.024  0.0163 -0.0771 -0.2519
53645W        W54509   8.947   3.643  21.912 -0.0808  0.1464  0.2681
53646W        W54510   8.887   4.666  18.714  0.1741 -0.0130 -0.1327
53647W        W54511  12.512   2.080  18.981  0.2040  0.0397  0.3724
53648W        W54512   9.106   0.441  22.243  0.0848 -0.3762  0.1725
53649W        W54513  13.127   3.668  17.720 -0.0509  0.1231  0.1568
53650W        W54514  10.228   2.847  17.611  0.3069  0.2362  0.1142
53651W        W54515   9.423   2.381  17.665 -0.0286  0.0667  0.1897
53652W        W54516  11.975   2.174  23.565  0.1219 -0.1350 -0.0614
53653W        W54517  11.183   2.756  17.971  0.1317  0.0447 -0.1004
53654W        W54518   7.973   5.606  19.164 -0.1617 -0.0637 -0.1575
53655W        W54519   9.933  28.584  23.161  0.0443 -0.0690  0.2829
53656W        W54520   6.133   0.970  18.571 -0.0256 -0.3063  0.0581
53657W        W54521   6.166   2.767  18.253  0.0825  0.2158  0.3699
53658W        W54522   8.908   0.850  18.193  0.0598 -0.0977 -0.1642
53659W        W54523   8.916   3.129  20.480  0.3597 -0.5020 -0.0215
53660W        W54524  11.799   3.135  21.239 -0.1975 -0.2923 -0.1182
53661W        W54525   5.522   1.365  16.806 -0.0744  0.1068  0.0157
53662W        W54526   6.543   1.634  18.586  0.1109 -0.0073 -0.1675
53663W        W54527   8.870   4.023  17.134  0.0461  0.1558 -0.0536
53664W        W54528   8.557   2.780  16.540 -0.1086 -0.1809 -0.2748
53665W        W54529  12.224   0.118  21.792  0.2766 -0.2200  0.1157
53666W        W54530  12.231   6.199  18.641 -0.2330  0.1942  0.1505
53667W        W54531   8.369   2.192  19.481  0.4894 -0.2401 -0.0726
53668W        W54532   8.430   1.372  15.762  0.0918  0.0925 -0.0675
53669W        W54533  10.923   4.988  19.430  0.2361 -0.3858 -0.0188
53670W        W54534   8.888  29.091  18.378 -0.0594  0.1186 -0.4957
53671W        W54535   9.283  27.682  18.742 -0.5023  0.1312  0.2847
53672W        W54536   9.939  28.668  19.764  0.1021  0.3250 -0.0920
53673W        W54537   7.823   1.231  17.846  0.5019  0.1263 -0.0185
53674W        W54538   6.589   3.541  17.434  0.0009  0.1991  0.0758
53675W        W54539   8.818   2.227  17.443 -0.3124  0.1951  0.1990
53676W        W54540  10.345   0.856  21.765  0.1291 -0.0825 -0.0685
53677W        W54541  10.560   3.334  21.308  0.1153  0.1257  0.0264
53678W        W54542  11.908  28.870  21.892 -0.1001 -0.5671  0.0319
53679W        W54543   7.924   4.118  21.110  0.0826  0.0119 -0.0161
53680W        W54544   7.306   5.702  14.591 -0.3298  0.2659  0.0401
53681W        W54545   6.567  29.063  21.775  0.0322  0.3785 -0.1660
53682W        W54546   8.700   4.951  21.872  0.1645  0.0516  0.1381
53683W        W54547   8.220   1.008  18.843  0.0911 -0.3092 -0.0321
53684W        W54548   9.713   1.322  22.012  0.2271  0.0322 -0.0590
53685W        W54549  11.495   3.569  22.624 -0.3282 -0.0403  0.1138
53686W        W54550   8.333   3.565  22.679  0.0027  0.2193 -0.0839
53687W        W54551   8.444   0.930  18.384  0.2654  0.0934 -0.0449
53688W        W54552  10.060   1.465  20.935  0.0304 -0.0602  0.0479
53689W        W54553   8.513   4.050  17.687  0.0185  0.1223 -0.1119
53690W        W54554   7.008   0.180  18.234  0.1559  0.0700  0.1135
53691W        W54555  10.134   5.231  19.911  0.1530 -0.1595 -0.3023
53692W        W54556   9.980   2.749  20.942  0.1133  0.0449 -0.0078
53693W        W54557  11.811   4.159  18.565 -0.2214 -0.1976  0.1805
53694W        W54558   8.847   2.946  19.903 -0.2259 -0.2610  0.2926
53695W        W54559   9.130   1.692  21.365  0.1248  0.2107 -0.1632
53696W        W54560   5.339  28.978  16.994 -0.4098  0.1292  0.0199
53697W        W54561   9.092  28.901  17.926  0.1553  0.2481 -0.0947
53698W        W54562   9.300   3.313  18.783 -0.1385 -0.2053 -0.2425
53699W        W54563   9.192   2.223  18.050  0.2728 -0.1950  0.0652
53700W        W54564   8.331   0.446  17.649 -0.1134  0.3243 -0.2027
53701W        W54565  14.148   2.563  16.649 -0.1929  0.1848 -0.0574
53702W        W54566   7.778   3.110  19.086 -0.3461 -0.2763 -0.0661
53703W        W54567   8.370   1.425  18.610  0.0756 -0.0658 -0.0860
53704W        W54568   9.301   2.230  16.587 -0.0200  0.2060  0.1799
53705W        W54569   7.876   0.788  22.555 -0.1117  0.0059 -0.2786
53706W        W54570   8.795   3.288  17.851  0.0757 -0.1647 -0.0237
53707W        W54571   5.453  28.419  20.346 -0.0745 -0.1915  0.5434
53708W        W54572   7.552   3.838  18.279  0.0020  0.1369 -0.2611
53709W        W54573   9.472   1.848  21.795 -0.0065  0.1251  0.2978
53710W        W54574   7.744   0.962  18.925  0.1430  0.0194  0.2399
53711W        W54575   8.705   0.084  17.845 -0.2457  0.1186  0.1348
53712W        W54576   9.924   3.990  21.755 -0.1052 -0.1688  0.0452
53713W        W54577  10.715   4.636  21.300 -0.1338  0.2011 -0.2184
53714W        W54578  11.396   0.449  21.402 -0.0191  0.1919 -0.0625
53715W        W54579   9.683   2.390  22.070 -0.1866  0.0521  0.1721
53716W        W54580   8.859   4.157  18.075  0.2968 -0.1931  0.5176
53717W        W54581   8.276   3.065  18.852  0.3421 -0.1805  0.1260
53718W        W54582  11.424   4.010  17.747  0.0832 -0.0204 -0.1007
53719W        W54583   8.307   1.785  20.855 -0.0314  0.2690  0.0957
53720W        W54584   8.337   2.643  18.298  0.0708  0.0640  0.1444
53721W        W54585   8.607   3.429  19.059 -0.0681 -0.0962 -0.1355
53722W        W54586  10.890   0.961  22.468  0.1755 -0.1015  0.0872
53723W        W54587   9.380   4.310  18.058  0.0465 -0.0818  0.3074
53724W        W54588  10.960   1.495  20.075  0.0745  0.0612  0.1967
53725W        W54589   9.158   4.104  19.879  0.1226  0.0154 -0.0542
53726W        W54590   7.347   0.804  19.782 -0.1349  0.1899  0.0481
53727W        W54591   5.582   0.440  18.018 -0.0012  0.1977 -0.0513
53728W        W54592   6.584   3.985  20.202 -0.1131  0.1094  0.0976
53729W        W54593   5.858   1.287  18.371  0.3094 -0.1784  0.2362
53730W        W54594  12.049   3.616  18.522 -0.0022  0.3460  0.2138
53731W        W54595   8.324   1.363  17.423  0.0853 -0.1360  0.1808
53732W        W54596  12.701   6.019  19.867 -0.0051  0.0967 -0.2567
53733W        W54597  10.011   4.169  17.853 -0.0057 -0.0610  0.0292
53734W        W54598   7.135   3.629  19.214 -0.5021 -0.2572  0.0349
53735W        W54599   8.693  26.929  18.228  0.1501 -0.0679 -0.0468
53736W        W54600   9.057   4.494  19.454  0.2306  0.2658  0.1957
53737W        W54601  11.074   1.188  19.690  0.0676 -0.3116 -0.0945
53738W        W54602   7.508   0.301  24.004  0.0557 -0.1757  0.0137
53739W        W54603   7.827   0.290  22.340  0.1479  0.3278  0.0275
53740W        W54604   6.248   1.360  17.366  0.0424 -0.2098  0.0012
53741W        W54605   9.782   1.455  23.050  0.3010 -0.1389  0.1616
53742W        W54606   9.634   4.778  19.037  0.0679  0.2977 -0.0893
53743W        W54607   9.042   1.100  19.033 -0.2282  0.0780  0.0896
53744W        W54608   9.205   3.137  21.767 -0.0511  0.1794  0.2730
53745W        W54609  12.146   1.711  20.849 -0.0709 -0.0549 -0.0305
53746W        W54610  10.019   5.163  20.402 -0.2811  0.2279 -0.2469
53747W        W54611  10.284   4.398  15.637  0.0844 -0.0030 -0.1254
53748W        W54612  10.655  27.882  18.763  0.0564 -0.1847  0.3569
53749W        W54613  10.321   1.741  19.835 -0.0674  0.2245 -0.2599
53750W        W54614   9.210   2.066  17.153  0.1988 -0.1655  0.3622
53751W        W54615  12.550   0.666  22.418  0.1450  0.1610 -0.1619
53752W        W54616   9.492   3.367  17.467 -0.1112  0.3054 -0.1371
53753W        W54617   8.408   1.885  18.347  0.0067 -0.3941  0.0308
53754W        W54618   8.820   3.598  16.181  0.1332 -0.1207 -0.3398
53755W        W54619   7.754   3.175  19.860 -0.0324  0.1985 -0.1678
53756W        W54620   7.205   1.419  22.716  0.0564  0.1063 -0.0097
53757W        W54621  11.864   4.338  22.069 -0.3115 -0.3354 -0.0430
53758W        W54622   8.916  29.091  23.468  0.2513 -0.1803  0.1944
53759W        W54623   9.652   0.318  22.419  0.3544 -0.2663  0.0665
53760W        W54624   7.978   5.917  16.633  0.0664 -0.2849 -0.1566
53761W        W54625   6.510   2.116  18.842  0.1047  0.1387 -0.2250
53762W        W54626   6.711  28.960  21.300 -0.2041 -0.1692 -0.1356
53763W        W54627  10.190   2.285  22.252  0.0025 -0.3870 -0.1496
53764W        W54628   8.528   5.588  21.046  0.2901  0.2039 -0.1775
53765W        W54629  12.827  29.023  23.070 -0.0767 -0.2763 -0.0031
53766W        W54630  10.544   3.776  18.830  0.0355  0.1943 -0.1872
53767W        W54631   8.267   4.334  20.803  0.0059 -0.0892  0.0032
53768W        W54632   9.238   3.218  20.068  0.2358  0.0955 -0.1477
53769W        W54633  11.776   5.023  19.615 -0.0555 -0.2277  0.2775
53770W        W54634  10.242   4.432  23.348  0.1647  0.0894 -0.2234
53771W        W54635   7.245   3.506  19.754  0.0964  0.1768 -0.0266
53772W        W54636   9.059   2.432  18.772 -0.1204  0.0241 -0.3034
53773W        W54637   8.025   4.165  17.701  0.2252 -0.3947  0.1423
53774W        W54638   8.375   3.635  20.306  0.1286 -0.2197 -0.0907
53775W        W54639   8.817   2.438  19.515 -0.0571 -0.0310 -0.0597
53776W        W54640   9.215   4.871  20.186  0.0672  0.0524 -0.1286
53777W        W54641   9.630   5.175  20.114  0.1192  0.0683  0.2022
53778W        W54642   8.877   3.291  16.539 -0.0583 -0.0868 -0.2855
53779W        W54643   8.007   2.215  19.016  0.1012 -0.0369  0.0723
53780W        W54644   8.566   5.045  28.176  0.0938 -0.0625 -0.1727
53781W        W54645   7.838   1.923  23.824 -0.0536  0.2211 -0.0146
53782W        W54646   9.675   3.014  23.958 -0.3552  0.0211 -0.1309
53783W        W54647  10.228   3.948  23.196  0.1733  0.1175  0.1224
53784W        W54648   7.156   5.538  24.552  0.1527  0.2930 -0.0516
53785W        W54649   9.257   2.916  23.540  0.3154 -0.0280 -0.0196
53786W        W54650   7.521   2.342  22.840  0.1218  0.1799  0.0815
53787W        W54651   9.021   4.846  22.648  0.2252  0.0809  0.0768
53788W        W54652   8.425   2.926  25.671 -0.0287  0.2156  0.1386
53789W        W54653   8.634   1.216  23.806  0.0904 -0.2588 -0.2194
53790W        W54654   8.346  28.728  22.515  0.1244 -0.2877  0.0235
53791W        W54655  10.303   1.486  24.445  0.3489 -0.0033 -0.0028
53792W        W54656  10.837   0.777  20.641 -0.2132 -0.0869 -0.0206
53793W        W54657  11.734  28.823  25.612  0.1707 -0.2781  0.1188
53794W        W54658   8.171   0.417  23.455 -0.2272 -0.1275 -0.2961
53795W        W54659   8.109   3.743  24.166  0.0676 -0.0432  0.3558
53796W        W54660   9.222   2.813  20.308 -0.1969 -0.1977  0.1843
53797W        W54661   7.117   2.251  23.284 -0.0684 -0.3688  0.2933
53798W        W54662   8.447   0.992  24.795  0.0269 -0.0340  0.1464
53799W        W54663  11.881   1.429  23.111  0.0860  0.4152 -0.0662
53800W        W54664  10.773   3.663  26.174 -0.1421  0.2180 -0.1107
53801W        W54665   8.548   2.055  22.667  0.2844  0.0339 -0.0717
53802W        W54666   7.954   5.627  22.598 -0.0612 -0.0308  0.0446
53803W        W54667   7.569   3.981  24.478 -0.1787  0.0454 -0.0645
53804W        W54668   8.010   2.204  22.848  0.0070  0.0180  0.1925
53805W        W54669   9.128   4.413  22.295 -0.1890 -0.1775  0.1910
53806W        W54670  11.748   4.129  25.107 -0.0881  0.0902 -0.1441
53807W        W54671   8.689   3.136  21.992 -0.3551  0.0305 -0.0809
53808W        W54672   9.266   3.812  25.673  0.0649 -0.1093  0.0933
53809W        W54673   9.702   2.693  23.463  0.2643  0.0856 -0.0712
53810W        W54674   9.437   3.655  22.438 -0.2057 -0.1182 -0.1273
53811W        W54675   9.859   3.832  27.641 -0.0238  0.0202 -0.0718
53812W        W54676   8.950   3.482  25.017  0.2459  0.1589 -0.2210
53813W        W54677   9.893   1.841  24.438 -0.1357 -0.1575 -0.2000
53814W        W54678   8.123   3.122  26.392 -0.0723  0.1804 -0.1470
53815W        W54679  12.000   3.826  22.645 -0.1069  0.0800 -0.3359
53816W        W54680   9.899   0.832  22.657  0.0813 -0.1782 -0.0679
53817W        W54681   8.222   4.375  24.710 -0.0003 -0.0936 -0.1977
53818W        W54682  12.507   3.708  25.010  0.2196  0.3699 -0.1230
53819W        W54683  10.608   2.169  23.071  0.0014 -0.4081  0.0883
53820W        W54684  12.036   0.307  19.969  0.0765  0.2038  0.1193
53821W        W54685   8.733  28.572  21.675  0.0623 -0.1196 -0.1772
53822W        W54686   7.997   3.379  23.072 -0.0266  0.0442 -0.0918
53823W        W54687  10.562   2.157  21.961  0.1023  0.1075 -0.0834
53824W        W54688   5.989   3.387  22.973  0.0898 -0.1027 -0.0470
53825W        W54689   8.787   3.608  20.629  0.0361 -0.0314 -0.0448
53826W        W54690   9.167   2.820  24.032  0.0034  0.3539 -0.0377
53827W        W54691  10.919   2.898  24.434 -0.2311  0.1850 -0.0463
53828W        W54692  10.341   4.278  22.825  0.1314  0.1545 -0.0064
53829W        W54693   6.666   1.029  23.272 -0.0167  0.0944 -0.0224
53830W        W54694   9.898   4.359  24.637 -0.1432 -0.0845  0.3917
53831W        W54695   9.539   2.219  23.581  0.0355 -0.0205  0.0126
53832W        W54696  11.182   0.820  26.405 -0.0858 -0.0204  0.3372
53833W        W54697   9.638   0.851  21.300  0.1647 -0.2265  0.0350
53834W        W54698  10.935   1.471  23.019  0.1820  0.0001  0.0627
53835W        W54699  11.417   2.730  23.921 -0.3517  0.3017  0.0254
53836W        W54700   8.805   0.172  22.528  0.2729 -0.1154 -0.2758
53837W        W54701   9.692   2.291  22.632  0.1154 -0.0465 -0.0816
53838W        W54702   8.927   2.520  25.407 -0.0100  0.0551 -0.0303
53839W        W54703   8.466   4.420  21.740 -0.0028  0.1847 -0.0714
53840W        W54704   8.027   0.129  23.109  0.1730  0.0364 -0.3113
53841W        W54705   8.516   3.515  23.811 -0.1722 -0.1308  0.0465
53842W        W54706   9.001   3.740  23.967 -0.1374  0.2742  0.3200
53843W        W54707   6.477   4.171  23.022  0.1863 -0.4006 -0.1164
53844W        W54708   7.646   2.670  24.137 -0.2363  0.1161 -0.1711
53845W        W54709  11.078   1.780  21.653  0.2920  0.0510  0.2063
53846W        W54710   6.531   0.996  21.887 -0.0345  0.0481 -0.1580
53847W        W54711   7.345   1.880  23.008  0.4380  0.1277 -0.0318
53848W        W54712   8.504   2.612  22.704  0.3469  0.1156  0.1214
53849W        W54713  10.598   2.190  22.574  0.2327 -0.1137  0.0414
53850W        W54714   9.430   4.310  25.544 -0.1512 -0.2819 -0.1986
53851W        W54715   8.521  27.201  21.982 -0.1688  0.1058 -0.2196
53852W        W54716  10.738   4.202  23.197 -0.2195  0.1643  0.3454
53853W        W54717  12.262  28.683  22.440 -0.0591  0.1164  0.2369
53854W        W54718   9.822   3.408  23.654  0.2604  0.0906  0.0111
53855W        W54719  10.648   3.251  26.437  0.0602 -0.0039  0.1134
53856W        W54720   5.891   1.671  21.911 -0.1535 -0.1404  0.2402
53857W        W54721   9.922   1.721  25.633 -0.2944 -0.1182 -0.1489
53858W        W54722  11.222   1.003  22.871  0.4131  0.1629  0.2577
53859W        W54723   7.928   1.566  22.106  0.0295  0.1585 -0.2841
53860W        W54724  11.141   0.161  24.469 -0.1113 -0.2294  0.0599
53861W        W54725   8.334   2.175  24.324  0.1281 -0.3003 -0.0154
53862W        W54726   6.791   0.325  22.488 -0.0075 -0.2230 -0.3537
53863W        W54727   9.751   2.230  23.119  0.2056  0.0681 -0.2036
53864W        W54728  10.520   3.147  23.856  0.3337  0.0143 -0.0027
53865W        W54729   8.937  26.632  22.685 -0.3519  0.2152  0.1140
53866W        W54730  12.053   4.516  24.210 -0.0517 -0.0874  0.0496
53867W        W54731   8.184  28.306  25.548 -0.1104 -0.0161  0.1203
53868W        W54732  11.902   4.937  24.014  0.0804 -0.2027 -0.2212
53869W        W54733  10.123   1.283  25.166 -0.1670 -0.0653 -0.2396
53870W        W54734   8.913  28.880  24.324  0.4936  0.2192 -0.1065
53871W        W54735  10.606   5.817  28.022 -0.0632 -0.1965 -0.1758
53872W        W54736   6.821   2.805  22.645 -0.3415 -0.2339  0.2684
53873W        W54737   7.366   1.204  21.678  0.3912  0.0865  0.0468
53874W        W54738   8.891  28.730  24.985  0.2616 -0.2790 -0.0423
53875W        W54739  10.735   0.349  20.280  0.0699 -0.0608  0.1722
53876W        W54740   9.763   3.028  23.036  0.0704 -0.1487 -0.0262
53877W        W54741   7.508   5.203  24.510 -0.2848 -0.1355 -0.6750
53878W        W54742  10.570   2.667  22.906 -0.1101 -0.2194  0.0173
53879W        W54743  10.417  27.386  22.797  0.2091  0.2408  0.1633
53880W        W54744  10.382   1.712  22.193 -0.1891 -0.2823 -0.3327
53881W        W54745   9.583   4.723  22.331  0.0272  0.0786  0.0148
53882W        W54746  11.806   1.230  21.393  0.2065  0.4902 -0.0480
53883W        W54747  10.015   3.936  23.625 -0.1550  0.0256 -0.0304
53884W        W54748  14.136   2.346  24.667 -0.0548 -0.3565 -0.0406
53885W        W54749   9.004   1.564  25.910 -0.1168  0.0347 -0.0629
53886W        W54750  10.421   0.109  22.273  0.1210  0.2116  0.0093
53887W        W54751  10.183   3.476  26.601 -0.0996  0.2523  0.0688
53888W        W54752  11.250   2.069  23.764 -0.0704  0.0208  0.0792
53889W        W54753   9.251   1.167  22.637  0.0896 -0.0234 -0.0614
53890W        W54754   8.087   2.520  25.595 -0.0378 -0.1281 -0.2244
53891W        W54755   8.592   5.463  23.323  0.2902  0.1864  0.3640
53892W        W54756   8.398  28.204  23.878 -0.0491 -0.0709 -0.0947
53893W        W54757  11.186   3.409  25.298  0.3053  0.1585  0.1440
53894W        W54758  10.102   1.983  22.618 -0.0103 -0.0736 -0.0825
53895W        W54759   6.756   3.189  22.273 -0.1816  0.1590 -0.0447
53896W        W54760  11.068   1.278  26.678 -0.0534  0.0078  0.1041
53897W        W54761  10.411   2.983  24.324 -0.1335  0.3165 -0.1689
53898W        W54762   7.138   2.399  22.496  0.2111  0.0681  0.0135
53899W        W54763   6.649   2.060  21.794  0.0329  0.0355  0.1539
53900W        W54764  10.895   0.598  21.541  0.2750  0.1032 -0.0905
53901W        W54765  10.162   4.243  22.317  0.2823  0.1227  0.0345
53902W        W54766  12.206   4.191  23.126 -0.0085  0.0043  0.3209
53903W        W54767  10.948   3.880  21.951  0.1222 -0.1360  0.3412
53904W        W54768  11.012   2.505  23.687 -0.1620  0.0244 -0.0100
53905W        W54769   9.475   1.914  20.061 -0.3943  0.0180 -0.1403
53906W        W54770   7.451   2.185  24.123  0.0938  0.0912 -0.0813
53907W        W54771  10.058   3.101  25.529  0.0564 -0.1189  0.1297
53908W        W54772   9.935   6.088  23.693  0.0765 -0.2516  0.3125
53909W        W54773   9.315   2.543  23.129 -0.1205  0.0980  0.2731
53910W        W54774  10.262   5.525  24.872 -0.0459 -0.2019  0.1272
53911W        W54775  10.555   1.610  23.321  0.0815 -0.0444 -0.0716
53912W        W54776  11.003   4.661  23.278  0.1004  0.5855 -0.0991
53913W        W54777   7.417  29.068  23.757  0.0303 -0.1437  0.1137
53914W        W54778   8.168   3.338  22.209 -0.0315 -0.0106  0.0989
53915W        W54779   8.105   1.371  23.808  0.0315  0.1669  0.2038
53916W        W54780  11.689  28.188  22.927 -0.0686  0.2008  0.0881
53917W        W54781   9.008  26.723  23.959  0.1723  0.1235 -0.2291
53918W        W54782  10.489   4.857  19.744  0.0771  0.0303  0.0276
53919W        W54783   8.768   6.946  23.625  0.0745 -0.3221  0.1305
53920W        W54784   8.776   2.275  22.221  0.1738 -0.0380  0.2077
53921W        W54785  10.454   1.405  23.903 -0.1525 -0.0924 -0.2702
53922W        W54786   7.333   4.069  23.452 -0.3484 -0.1519 -0.1318
53923W        W54787   9.224   1.750  23.424  0.0958 -0.3876  0.3209
53924W        W54788   9.329   3.331  24.219 -0.0755  0.3291 -0.0161
53925W        W54789   8.897   0.856  22.726 -0.2475  0.0303  0.1490
53926W        W54790  10.834  28.454  23.529 -0.1244 -0.0052  0.0343
53927W        W54791   8.674   5.971  24.203  0.0121 -0.2980  0.0130
53928W        W54792  11.110   3.905  22.992  0.0925  0.0615 -0.0336
53929W        W54793  10.581   1.768  22.814  0.0122  0.0777  0.0551
53930W        W54794  13.083   4.684  24.772 -0.1083 -0.0107  0.0713
53931W        W54795   6.920   0.181  22.040  0.3220  0.1695 -0.0165
53932W        W54796   9.772   4.473  21.433 -0.1196 -0.1320  0.0316
53933W        W54797   8.058   1.814  20.446  0.3305 -0.1502 -0.4754
53934W        W54798  10.542   4.326  25.871 -0.1548  0.0713  0.1536
53935W        W54799  10.099   0.970  23.979  0.3029 -0.1432 -0.0241
53936W        W54800   6.595   2.379  24.502  0.1534  0.0320 -0.1592
53937W        W54801   8.817   2.773  22.294 -0.3426  0.2627 -0.0019
53938W        W54802   8.355   1.068  19.996 -0.0805  0.3284 -0.0252
53939W        W54803   8.679  29.039  23.875  0.0074  0.0361 -0.2180
53940W        W54804  10.833   1.580  24.595 -0.1213 -0.1048 -0.0574
53941W        W54805   9.306   1.849  24.370  0.3066 -0.0616  0.1658
53942W        W54806   7.618   2.477  25.709 -0.1938  0.2264  0.0091
53943W        W54807   9.627   1.123  23.972 -0.1932 -0.3223  0.0678
53944W        W54808  10.749  27.621  25.354  0.1168 -0.4472  0.1136
53945W        W54809   9.440   3.020  24.905 -0.1254  0.2298  0.0621
53946W        W54810   8.874   3.195  23.910 -0.0274  0.1402 -0.0976
53947W        W54811   7.861   4.933  24.777 -0.0255  0.3400  0.1224
53948W        W54812  10.473   6.280  24.359  0.0685 -0.0500  0.0175
53949W        W54813   6.212   2.483  23.122  0.3221 -0.0796  0.0102
53950W        W54814  11.069  29.076  22.187 -0.1216  0.0418  0.2087
53951W        W54815  11.258   0.086  21.744 -0.0578 -0.1243 -0.1795
53952W        W54816   9.540   1.337  23.498 -0.0681  0.1243  0.1232
53953W        W54817  11.001   1.803  22.555  0.1405 -0.2688 -0.3432
53954W        W54818   8.341  28.591  22.015  0.0084 -0.0077 -0.1695
53955W        W54819   9.221   2.068  22.436 -0.0074 -0.0899  0.3620
53956W        W54820   6.038   3.855  25.185 -0.1263 -0.1912  0.2987
53957W        W54821   6.303   6.246  24.672  0.0164  0.2330 -0.0053
53958W        W54822   5.743   4.821  22.256 -0.2505  0.0026  0.0306
53959W        W54823   8.209   0.252  24.910  0.1834 -0.1265 -0.1531
53960W        W54824   7.289   2.939  20.875  0.3740 -0.4277  0.1264
53961W        W54825   9.400   6.030  21.800 -0.2343  0.1714  0.3782
53962W        W54826   7.719   2.770  22.321  0.0831  0.1962  0.2107
53963W        W54827   7.435   1.834  22.545 -0.0970  0.0309 -0.0197
53964W        W54828   9.258   2.940  20.811  0.2131 -0.1141 -0.2251
53965W        W54829   9.281   3.617  26.225 -0.0419 -0.0121  0.2498
53966W        W54830  11.271   0.953  21.497  0.1140 -0.0127 -0.0395
53967W        W54831   6.675  28.249  22.059  0.0702  0.0528  0.3550
53968W        W54832   8.991   2.244  23.551  0.1776  0.3284 -0.0031
53969W        W54833  10.697   4.188  22.463  0.3420 -0.0441  0.0115
53970W        W54834   7.792   5.263  22.134  0.1595 -0.0036  0.0561
53971W        W54835   8.292   3.823  22.105 -0.2022 -0.3405  0.1182
53972W        W54836   7.170   1.566  24.494  0.0862 -0.5248 -0.0347
53973W        W54837   7.005   0.441  22.994 -0.3297  0.2735 -0.0992
53974W        W54838   8.393   2.164  23.601 -0.1462  0.1641 -0.0058
53975W        W54839   7.699  28.316  22.091 -0.3106 -0.2732  0.1558
53976W        W54840   8.824  28.224  24.371 -0.0232 -0.0954 -0.0961
53977W        W54841   5.607   0.687  24.894  0.4560 -0.0813  0.0614
53978W        W54842   6.076   0.672  20.557 -0.0009 -0.0088 -0.1530
53979W        W54843   9.103  28.701  23.828 -0.0132  0.1152  0.1710
53980W        W54844  10.001   1.858  20.231 -0.1902  0.1513  0.0356
53981W        W54845  10.182  28.834  23.509  0.2952 -0.0554  0.0817
53982W        W54846  11.968   2.956  22.196  0.3470  0.1358 -0.1977
53983W        W54847   9.005   0.666  25.393 -0.0611 -0.3762  0.1014
53984W        W54848   7.552  29.019  24.243 -0.2223  0.0610  0.4064
53985W        W54849   4.894   1.459  21.033  0.2600 -0.2189  0.2971
53986W        W54850   9.440   0.056  23.446 -0.0732  0.0493 -0.0676
53987W        W54851   8.315   4.828  24.074 -0.1219  0.1881 -0.3514
53988W        W54852  10.069   5.463  22.088 -0.1732 -0.2174 -0.0839
53989W        W54853   8.596   4.290  23.289  0.0378 -0.2272  0.1151
53990W        W54854   8.717   2.062  25.480 -0.0790  0.4488 -0.1233
53991W        W54855   6.391   0.494  26.201 -0.2824  0.3031  0.0109
53992W        W54856   8.991   5.639  21.833 -0.0838 -0.1134 -0.0701
53993W        W54857  10.186   3.894  24.938  0.1515 -0.1741  0.2785
53994W        W54858  11.204   2.655  25.476  0.2659  0.2212  0.2786
53995W        W54859  12.059   1.486  21.763  0.0102  0.1825  0.0600
53996W        W54860  11.625   4.206  22.826  0.0255  0.0318  0.1320
53997W        W54861  10.705   6.892  22.447 -0.2344  0.1108  0.0734
53998W        W54862   9.218   1.369  26.918 -0.1107  0.1426 -0.0406
53999W        W54863  10.604   3.628  28.739  0.1431  0.4422 -0.0092
54000W        W54864  10.463   0.094  26.584  0.1434 -0.0935  0.0208
54001W        W54865  10.706   2.860  23.475 -0.1266 -0.0938  0.1340
54002W        W54866   6.888   1.981  23.704 -0.4156 -0.4237 -0.0076
54003W        W54867   9.202   0.791  19.515  0.0994  0.0739  0.1463
54004W        W54868  11.389   3.215  23.653  0.2585 -0.0382 -0.0181
54005W        W54869   6.742   0.438  27.111  0.2293  0.0571 -0.1152
54006W        W54870   8.540   2.414  23.206 -0.0005 -0.3174  0.1201
54007W        W54871  14.682   1.980  22.677  0.0471  0.1101  0.0792
54008W        W54872   8.024   3.973  22.585 -0.0214  0.3186  0.1699
54009W        W54873  11.505   3.477  21.622 -0.0081 -0.0005  0.3798
54010W        W54874  10.288   2.099  25.589 -0.0742 -0.2001 -0.0240
54011W        W54875   8.581   2.648  24.736 -0.0342  0.1140  0.0389
54012W        W54876   9.029   1.866  22.025 -0.1570  0.4418  0.2108
54013W        W54877   9.403   4.656  21.833 -0.2329  0.1112 -0.0422
54014W        W54878   7.787  28.606  24.434  0.0040 -0.2100  0.0621
54015W        W54879   9.751   3.825  24.524  0.2298  0.0011  0.2589
54016W        W54880  11.545   1.726  22.663 -0.1844 -0.2820  0.0578
54017W        W54881  11.058  27.594  26.637  0.0200 -0.2633  0.1594
54018W        W54882  11.583   3.668  20.504  0.1918  0.1040  0.1072
54019W        W54883   9.712   5.445  24.635  0.0347 -0.1677 -0.1598
54020W        W54884   7.509   2.829  22.792  0.1084  0.0926  0.1112
54021W        W54885   9.191   5.464  24.964 -0.2116  0.1519 -0.1120
54022W        W54886  11.106   1.166  24.693 -0.0488 -0.1565 -0.0945
54023W        W54887   9.244  27.980  22.985  0.0848  0.1346 -0.1316
54024W        W54888   9.981  28.060  24.208 -0.3047 -0.1379 -0.5168
54025W        W54889   7.466   3.485  18.918 -0.0429 -0.0706 -0.1532
54026W        W54890  11.881   3.382  23.475  0.1482 -0.1640  0.1178
54027W        W54891   7.139   1.232  24.065  0.1091 -0.2723 -0.1632
54028W        W54892  11.243   1.176  23.363  0.1188  0.3265  0.0892
54029W        W54893   9.067   4.011  20.395  0.1954 -0.0968  0.0060
54030W        W54894   8.258   2.926  23.032  0.0808  0.0274 -0.2159
54031W        W54895   9.867   4.425  22.699  0.2571 -0.1128 -0.0698
54032W        W54896  10.529   4.016  23.630  0.0591 -0.1051  0.3889
54033W        W54897  11.644   0.230  23.741  0.0829  0.1500  0.0720
54034W        W54898   8.375   2.800  22.081 -0.1268  0.1261  0.0718
54035W        W54899  10.350   5.327  21.599 -0.1482  0.0689  0.2831
54036W        W54900  11.375   2.642  22.348  0.1405 -0.0617  0.1837
54037W        W54901   8.739   1.947  26.061 -0.1098  0.2567 -0.0572
54038W        W54902  12.749   5.296  22.147  0.1830 -0.1202  0.1309
54039W        W54903   6.926   2.020  24.294  0.1998 -0.1884  0.1393
54040W        W54904   9.274   1.064  24.377 -0.1777  0.0718  0.0076
54041W        W54905   9.117   1.748  27.326  0.2489  0.2127 -0.1441
54042W        W54906   9.078   5.384  23.519 -0.1488  0.0158 -0.2534
54043W        W54907   8.082   1.856  24.799 -0.2506 -0.2241 -0.1473
54044W        W54908   8.046   3.208  23.510 -0.1936  0.0181  0.5586
54045W        W54909   7.727   3.444  24.505  0.0190  0.0806 -0.0514
54046W        W54910   6.765   5.085  22.648  0.2888 -0.3116  0.0231
54047W        W54911  10.037   4.806  22.960  0.0171  0.2204 -0.0678
54048W        W54912   7.247   3.303  25.332 -0.1235 -0.1535 -0.2188
54049W        W54913  10.062   1.036  23.074  0.2150  0.0402 -0.1314
54050W        W54914   9.377   3.720  20.119 -0.1200  0.0768 -0.4775
54051W        W54915   8.806   0.859  24.381  0.0492 -0.2681 -0.0145
54052W        W54916  11.177   0.303  23.531  0.2983  0.0032  0.2452
54053W        W54917   9.439   1.601  23.917  0.1978  0.1946  0.1994
54054W        W54918  11.370   6.085  24.061 -0.0273  0.1618 -0.1630
54055W        W54919   9.535  28.890  24.342  0.0455 -0.0670 -0.0735
54056W        W54920   9.915   0.496  24.862 -0.0255 -0.1309  0.0667
54057W        W54921   7.639  28.195  21.616 -0.1435  0.0010  0.1287
54058W        W54922  10.734   0.357  20.891  0.2538 -0.2668  0.0366
54059W        W54923   7.627   5.659  25.320  0.0536 -0.0106  0.0386
54060W        W54924  10.296   0.878  24.863  0.1024  0.2026  0.0287
54061W        W54925   7.963   1.783  21.207  0.1393 -0.1024 -0.2391
54062W        W54926   8.114  28.169  20.788  0.0800  0.0022  0.1601
54063W        W54927   9.068   0.953  22.190 -0.3800  0.0783 -0.0092
54064W        W54928  10.674   1.383  22.497  0.1150 -0.1632 -0.1797
54065W        W54929  10.805   1.366  25.555  0.2327 -0.2897  0.4431
54066W        W54930  10.500   5.087  22.178  0.0846  0.0442 -0.0497
54067W        W54931   6.883   1.877  22.710 -0.0794  0.0722  0.2390
54068W        W54932  11.585   0.738  20.001  0.3285  0.2238 -0.1105
54069W        W54933   9.622   0.344  21.349 -0.1655 -0.1756 -0.1220
54070W        W54934   9.286  28.114  19.706  0.2678 -0.2259  0.1807
54071W        W54935  11.106   0.750  21.067  0.0535 -0.2359  0.1963
54072W        W54936   8.476   2.152  24.761 -0.2373 -0.0285 -0.2023
54073W        W54937   7.779   3.987  22.088  0.1059  0.1455  0.1548
54074W        W54938   8.276   1.211  23.332 -0.1508 -0.1561  0.0958
54075W        W54939  10.366   2.556  23.356 -0.0987  0.0956  0.2940
54076W        W54940  10.683   2.643  23.985  0.0377 -0.0399  0.1178
54077W        W54941  10.209   1.771  23.642  0.3366 -0.4211  0.0178
54078W        W54942  10.281   1.732  24.870  0.0199  0.0109  0.1446
54079W        W54943   7.586   4.305  21.488 -0.0892 -0.1379 -0.2298
54080W        W54944   6.909   3.361  24.002  0.1693 -0.0196  0.2925
54081W        W54945   6.858   0.714  24.435  0.0950  0.0211 -0.1678
54082W        W54946   9.312   5.083  25.292 -0.2113 -0.0381  0.0905
54083W        W54947  13.093   2.250  24.655 -0.0038 -0.2167 -0.0304
54084W        W54948  11.032   4.390  22.809 -0.1947 -0.1056  0.0381
54085W        W54949   9.512   5.196  22.325  0.0830 -0.0167 -0.3184
54086W        W54950  10.895   1.802  22.086 -0.0996  0.1417  0.1478
54087W        W54951   8.726   0.223  22.001  0.1108  0.0396 -0.0738
54088W        W54952   9.578  27.983  22.608 -0.1616 -0.0683  0.1653
54089W        W54953   7.266   3.350  23.601 -0.1032  0.3172  0.0885
54090W        W54954  12.022  28.005  21.884  0.3688 -0.1240 -0.2281
54091W        W54955  10.129   0.401  26.272  0.0675  0.0008 -0.0928
54092W        W54956   8.518   3.106  23.515 -0.1190  0.0724 -0.0762
54093W        W54957  11.450   1.748  22.137  0.0033  0.0422 -0.0272
54094W        W54958   8.357   4.380  23.841 -0.4078 -0.0375 -0.2747
54095W        W54959   7.191   1.536  26.048  0.1596  0.0481  0.1508
54096W        W54960  10.149   1.878  23.100 -0.0812 -0.1441 -0.0487
54097W        W54961  11.641   1.312  21.951 -0.2292  0.1623 -0.0219
54098W        W54962  11.379   4.080  26.426 -0.2979  0.0787 -0.1396
54099W        W54963   6.709   1.583  23.967  0.0249  0.0139 -0.0746
54100W        W54964   8.245   4.621  23.403 -0.0670 -0.0159  0.2424
54101W        W54965  10.356   4.967  20.932  0.1720 -0.2477  0.3352
54102W        W54966   4.591   1.040  22.884 -0.3753  0.0386 -0.1732
54103W        W54967   8.366   3.070  22.543 -0.2536 -0.3641 -0.1286
54104W        W54968   8.770   3.863  23.548  0.2493 -0.0655 -0.0354
54105W        W54969   8.809   1.300  22.430  0.0280  0.1714  0.2851
54106W        W54970   8.945   1.729  23.831  0.1355 -0.2116  0.0393
54107W        W54971   8.411   1.046  22.495  0.2023 -0.2128 -0.3253
54108W        W54972   8.803   0.812  21.677 -0.0299 -0.1622 -0.1358
54109W        W54973   6.372   2.967  22.007 -0.1575  0.1767 -0.2943
54110W        W54974   8.959  28.324  21.230  0.0577 -0.1260  0.0727
54111W        W54975  13.216  28.752  20.091  0.0541  0.3864  0.2435
54112W        W54976   8.993   4.198  24.168  0.2636 -0.1417  0.3311
54113W        W54977   7.772   3.782  25.905 -0.0427 -0.1194 -0.0233
54114W        W54978  12.104   2.628  25.498 -0.2170 -0.0203 -0.4467
54115W        W54979  11.890   3.363  25.644 -0.0334  0.1736 -0.0168
54116W        W54980   5.040   5.350  22.110  0.2154 -0.0689  0.3041
54117W        W54981  14.534   0.544  22.770 -0.0152 -0.0355  0.0844
54118W        W54982  10.376   2.699  22.455 -0.2600 -0.1586  0.0181
54119W        W54983   8.433  27.846  23.233 -0.1446 -0.0084 -0.1234
54120W        W54984   9.659   3.463  22.820  0.0656 -0.0577 -0.0299
54121W        W54985   9.689  28.604  26.010 -0.0858  0.1416  0.0984
54122W        W54986   8.436   3.474  21.773 -0.0549  0.2408 -0.2603
54123W        W54987   7.393   3.956  22.458  0.1761  0.0674 -0.0037
54124W        W54988  10.078   4.902  23.470  0.1487 -0.2265  0.1901
54125W        W54989   7.179   3.641  23.179 -0.1966 -0.2431  0.1642
54126W        W54990   6.885   0.788  22.169  0.1877 -0.0330  0.1837
54127W        W54991   7.792   1.709  22.919  0.0572 -0.3460 -0.2056
54128W        W54992   6.471   3.532  23.676 -0.0373 -0.0792  0.0429
54129W        W54993  10.627   2.150  19.999 -0.3359 -0.2623 -0.2618
54130W        W54994   9.148   4.667  24.400  0.2631 -0.3005  0.0240
54131W        W54995   8.785   2.748  20.791 -0.0291 -0.1238 -0.3142
54132W        W54996  10.155   0.555  23.077  0.0242  0.0285 -0.2905
54133W        W54997   9.555   5.747  23.214  0.0809 -0.2048 -0.0942
54134W        W54998   6.756   5.325  25.634  0.1231 -0.0724 -0.1503
54135W        W54999  11.770   0.075  22.646 -0.0823  0.3165  0.1569
54136W        W55000   7.113   3.776  20.957  0.1059 -0.0205 -0.2619
54137W        W55001   9.958   1.257  25.886  0.1793  0.1414  0.3941
54138W        W55002   7.077  29.106  22.815  0.5061 -0.0491  0.1130
54139W        W55003   9.956   1.523  23.991 -0.0356  0.0715 -0.2749
54140W        W55004   8.601   0.619  22.261  0.0089  0.0078 -0.1211
54141W        W55005   9.726   0.312  27.664  0.1204  0.0627  0.0253
54142W        W55006  10.977   2.986  23.882  0.1906  0.0152 -0.2196
54143W        W55007   9.202   3.298  25.774 -0.2519 -0.2088  0.1531
54144W        W55008   7.890   4.597  23.831 -0.1201 -0.0843  0.1642
54145W        W55009   9.155   5.529  26.078 -0.1477 -0.0447  0.0998
54146W        W55010  11.387   5.234  22.850 -0.1202 -0.2957 -0.0566
54147W        W55011  10.090   2.501  22.850 -0.2821 -0.1624  0.0949
54148W        W55012   7.995   0.122  23.835  0.0744 -0.0456 -0.0843
54149W        W55013  10.209  27.196  24.191 -0.0437 -0.2383 -0.0145
54150W        W55014   8.026   1.221  22.874  0.0751 -0.0985  0.0797
54151W        W55015  11.322   0.586  21.849  0.2931 -0.3241 -0.3165
54152W        W55016   8.724   1.927  21.103 -0.0658  0.0286 -0.1717
54153W        W55017  10.214   0.334  23.894 -0.0397 -0.2841 -0.0677
54154W        W55018   5.967   2.596  21.746 -0.0991  0.0601 -0.1502
54155W        W55019   7.908  27.947  25.293  0.0495  0.0548 -0.0882
54156W        W55020   8.812   1.302  23.362 -0.0358  0.1765  0.1981
54157W        W55021  11.937   3.818  24.769 -0.2862 -0.1198 -0.0123
54158W        W55022   8.966   0.753  24.857 -0.0850 -0.6330  0.1085
54159W        W55023   6.666   1.905  25.236  0.1626 -0.0952 -0.0046
54160W        W55024   7.213   1.698  23.976 -0.1099  0.1685  0.0806
54161W        W55025   8.781   5.492  25.251  0.0740  0.0099  0.0498
54162W        W55026   8.233   3.943  23.561  0.0798 -0.2175 -0.2315
54163W        W55027  12.169   2.159  23.981 -0.1796  0.1987  0.0086
54164W        W55028   9.842   4.697  26.886 -0.2322 -0.2402 -0.0936
54165W        W55029   9.077  29.095  25.926  0.1647  0.2501 -0.1800
54166W        W55030   8.827   6.482  24.424 -0.1381 -0.1045  0.2215
54167W        W55031   9.343   4.479  22.849 -0.3762 -0.0293  0.0247
54168W        W55032   9.128   3.613  19.725  0.0463 -0.1484 -0.1406
54169W        W55033   9.394   5.103  24.495  0.0232  0.2043  0.1421
54170W        W55034   8.730   0.713  23.375  0.0619 -0.0529  0.0433
54171W        W55035   8.879   4.333  23.725  0.1360  0.1165  0.1478
54172W        W55036  10.482   4.853  21.689 -0.0320 -0.0308 -0.3219
54173W        W55037   9.723   4.606  24.243 -0.2130  0.2150 -0.0007
54174W        W55038   6.907   4.379  22.258  0.2737 -0.1817 -0.1143
54175W        W55039   9.969  28.874  26.778  0.0316  0.0339 -0.2432
54176W        W55040   8.579   5.306  22.760 -0.2176 -0.1192  0.2344
54177W        W55041   8.659   1.787  24.304  0.1888  0.0326  0.3225
54178W        W55042   9.755   2.480  23.969  0.0504 -0.0694 -0.3405
54179W        W55043   7.711   0.545  20.829 -0.2655  0.2010  0.2793
54180W        W55044   7.611   2.238  28.675 -0.2006 -0.0298 -0.1789
54181W        W55045  11.008   0.710  26.868  0.2363 -0.1256 -0.1223
54182W        W55046  11.212   1.680  25.794 -0.1032 -0.1550  0.0907
54183W        W55047  10.716   4.431   2.410  0.0841 -0.2688  0.2561
54184W        W55048   8.333   5.254  25.250  0.1373  0.0855  0.2062
54185W        W55049   9.162  28.737  26.377 -0.1111  0.2055 -0.1764
54186W        W55050   9.250   2.492  24.857 -0.1712 -0.1388 -0.0795
54187W        W55051   8.141   2.031  27.134  0.0706  0.1474 -0.1303
54188W        W55052  10.772   4.388  28.724  0.1937  0.1698 -0.1475
54189W        W55053   6.941  27.964  27.785 -0.5932  0.0317  0.1718
54190W        W55054   9.858   0.357  27.206 -0.1402  0.1119  0.3261
54191W        W55055   9.377  28.516  27.780  0.3704 -0.1268 -0.0291
54192W        W55056   8.952   2.178  24.453 -0.1668 -0.3913  0.0932
54193W        W55057  10.293   1.303  27.832 -0.2148  0.0058 -0.1368
54194W        W55058   6.960  28.336   0.504 -0.1987 -0.2507  0.2378
54195W        W55059   6.606   4.363  28.617 -0.0542 -0.0118  0.0900
54196W        W55060   7.454   5.198  27.060  0.1066  0.2367  0.1823
54197W        W55061   8.674   1.179  25.998 -0.2017 -0.1798  0.2705
54198W        W55062  10.217   0.306  25.732 -0.2098  0.1099 -0.0843
54199W        W55063   7.991   4.265  26.535 -0.2406  0.2659  0.0614
54200W        W55064  10.418   1.752  27.496 -0.1330  0.2267 -0.1852
54201W        W55065   9.788   2.780   0.269 -0.2311  0.1089  0.0556
54202W        W55066  10.146   3.418  28.394  0.2205  0.3027 -0.1302
54203W        W55067  10.241   2.676  25.718  0.3304 -0.1512  0.4445
54204W        W55068   8.703   1.321  27.334  0.0255 -0.1256  0.3908
54205W        W55069   8.641   0.408  28.412  0.3269 -0.2715 -0.1078
54206W        W55070  11.654  28.072  28.587  0.2682  0.2294 -0.3173
54207W        W55071   7.922   4.182  25.176  0.4214  0.1993 -0.0578
54208W        W55072   6.481   3.517  27.114  0.0770  0.0527  0.0418
54209W        W55073  10.917   3.628  28.291 -0.1022 -0.0913 -0.0454
54210W        W55074  10.494   1.220  26.038 -0.1720 -0.1294 -0.0969
54211W        W55075   9.230   5.283   0.734  0.0337  0.0464  0.1638
54212W        W55076   8.947   0.654   0.428 -0.2383  0.1311 -0.0326
54213W        W55077   9.478   0.403  26.937 -0.0248 -0.1084 -0.1313
54214W        W55078   6.546   1.923   0.956  0.1774 -0.0512 -0.1022
54215W        W55079  12.927   2.946   0.876  0.1740  0.0238 -0.3029
54216W        W55080   7.472  28.399  26.124 -0.0760 -0.0813 -0.2059
54217W        W55081   6.675   4.299  25.882 -0.0791  0.2239  0.3406
54218W        W55082  11.362   2.834  27.759  0.1290  0.0996 -0.0841
54219W        W55083   8.004   3.609  26.443  0.0080  0.2490  0.0290
54220W        W55084  11.452   0.937  24.343  0.0381 -0.0145  0.0479
54221W        W55085  11.483   2.443   2.256 -0.0229 -0.1241 -0.3175
54222W        W55086   8.469   2.889  28.081  0.0467 -0.2851  0.1363
54223W        W55087  12.162   2.088  26.422  0.0985 -0.0250  0.1039
54224W        W55088   4.165   3.330  26.172  0.2079  0.0618 -0.0072
54225W        W55089   8.565   4.007  24.576  0.2303  0.2032 -0.2840
54226W        W55090   8.321  28.156  24.494  0.2713  0.1179  0.0515
54227W        W55091  12.031   1.634  26.514  0.1606 -0.0734 -0.2800
54228W        W55092   8.169   4.865  27.921  0.0816  0.0970  0.0602
54229W        W55093   6.447   2.109  25.688 -0.0481  0.2020 -0.4346
54230W        W55094   9.909   1.841  26.141  0.1481 -0.1126  0.2377
54231W        W55095   9.628   1.663  25.257 -0.2513  0.2120 -0.1549
54232W        W55096  11.369   3.744  28.022 -0.0730  0.0290  0.1196
54233W        W55097   9.917   0.717  25.882  0.5265  0.0410 -0.0798
54234W        W55098   4.670   4.837  27.177 -0.1195 -0.0266 -0.0558
54235W        W55099   7.850   1.777  28.504 -0.3783 -0.0300  0.1845
54236W        W55100   7.229   2.129  28.305 -0.1450 -0.1281  0.0671
54237W        W55101  10.101   3.250  24.033  0.1259 -0.0671  0.1690
54238W        W55102  10.421   1.635  25.370 -0.2198  0.1201  0.3571
54239W        W55103   7.425   4.233  27.797 -0.0930  0.0674  0.1285
54240W        W55104   9.204   1.302  26.363  0.3383 -0.0433  0.1224
54241W        W55105  10.545  28.830  26.952  0.0763 -0.1283  0.0648
54242W        W55106   9.151   0.755  27.281  0.1890  0.1037 -0.0904
54243W        W55107  10.301   0.411  27.499  0.0219  0.1557  0.0635
54244W        W55108   9.103   2.325  25.824 -0.0020 -0.2901  0.1329
54245W        W55109   6.883   1.196  24.723  0.4198 -0.3733  0.0719
54246W        W55110   8.769   3.925  26.961 -0.1076  0.2675  0.2763
54247W        W55111   8.491   1.458  24.582 -0.2113 -0.1678  0.1661
54248W        W55112   8.144   5.591   0.642 -0.0822  0.2273  0.0113
54249W        W55113  11.622   3.679  26.069 -0.0465  0.0104  0.1552
54250W        W55114  10.758   3.692  27.252  0.1542 -0.2968  0.1055
54251W        W55115   9.656   1.915   1.994  0.3793  0.0495  0.1831
54252W        W55116  10.279   4.072  25.431  0.0743 -0.0093 -0.1874
54253W        W55117  10.101   0.407   2.156 -0.0681  0.1058 -0.0103
54254W        W55118   7.248  28.911  26.055 -0.3103  0.0083  0.1194
54255W        W55119   9.624   1.638  27.248  0.1477 -0.1202  0.1740
54256W        W55120   7.474   0.220  26.166  0.0776 -0.0928  0.1917
54257W        W55121  10.332   4.800  26.077  0.2157 -0.1550 -0.0109
54258W        W55122  10.554   1.374  28.326 -0.0068 -0.0771 -0.1461
54259W        W55123  10.790  28.358  28.991 -0.0692 -0.2464  0.2251
54260W        W55124   9.743   1.102  27.123 -0.3175  0.1302  0.1449
54261W        W55125  10.893   0.562  28.846 -0.2229  0.0089 -0.1332
54262W        W55126   7.994   0.468   2.471  0.1845 -0.1908  0.1999
54263W        W55127   9.381   0.782  25.700  0.0494  0.1929  0.3027
54264W        W55128  11.448   3.281   0.773 -0.2908 -0.4710 -0.0311
54265W        W55129   8.939  29.047  29.129 -0.0082 -0.3028  0.1045
54266W        W55130  12.236   2.922   0.165 -0.0800  0.0719 -0.0962
54267W        W55131   7.669  28.302   0.676  0.2621  0.2328  0.2283
54268W        W55132  10.264  27.837  27.009 -0.1752 -0.1638 -0.0154
54269W        W55133  10.232   2.516   1.719  0.1506 -0.0151 -0.1773
54270W        W55134   7.275   4.700  26.519  0.1767  0.0187 -0.0774
54271W        W55135   9.481   1.071  26.060  0.0625 -0.2271  0.1779
54272W        W55136   7.286  27.762  26.928 -0.0645  0.0559  0.4485
54273W        W55137  10.516   0.555  25.324 -0.0687 -0.1381 -0.1118
54274W        W55138  12.785   1.058  26.586  0.1593 -0.2293  0.0297
54275W        W55139   7.311  29.103  27.463  0.2360  0.1369  0.2818
54276W        W55140   8.170   1.187  25.695  0.1576 -0.1020 -0.2162
54277W        W55141   9.352   2.578   0.365  0.2395  0.1561 -0.0456
54278W        W55142   9.744   4.469  23.656  0.1055  0.1024 -0.3589
54279W        W55143   7.139   2.871  24.079  0.1887 -0.2334 -0.3136
54280W        W55144   7.315  28.252  25.667 -0.0590 -0.4152  0.1959
54281W        W55145  10.411   2.127   1.417 -0.0793 -0.2173  0.1623
54282W        W55146  10.600   0.688  26.090 -0.1250 -0.1803 -0.1833
54283W        W55147  10.361  28.951  27.864 -0.0757 -0.1876 -0.0290
54284W        W55148   6.320   3.466  26.429  0.0530  0.0707  0.0186
54285W        W55149   9.183   6.022   2.355  0.2534  0.4308  0.1245
54286W        W55150   9.866  27.822  27.420  0.3332  0.1878 -0.2926
54287W        W55151   8.627  29.013  26.750  0.4377 -0.0769  0.1269
54288W        W55152   8.721   2.863  26.130  0.1812 -0.0292 -0.1487
54289W        W55153   8.957   1.197  25.626  0.1108  0.0755  0.0988
54290W        W55154  10.729   1.647  26.431  0.2390  0.0978  0.1295
54291W        W55155  10.262   1.507   0.882 -0.2129 -0.0575  0.2228
54292W        W55156  10.585   2.933  24.823  0.0046 -0.0372  0.0276
54293W        W55157   8.595   2.947  26.631  0.0787  0.0334  0.3516
54294W        W55158  10.807  29.111  28.165  0.0236  0.2722 -0.0231
54295W        W55159  11.658   2.847  25.619 -0.1853  0.0237 -0.4146
54296W        W55160  13.429   3.387  27.610  0.1523 -0.2853  0.0498
54297W        W55161  10.461   0.136  23.069 -0.0041  0.0679 -0.1807
54298W        W55162   8.903  28.187  23.847 -0.1140 -0.1404  0.3908
54299W        W55163  10.058   2.055  27.142  0.0012 -0.0041 -0.0826
54300W        W55164   8.882   4.398  27.375 -0.0018  0.0692 -0.1234
54301W        W55165   8.628   1.198  25.256 -0.0801 -0.0006 -0.0540
54302W        W55166   9.455   2.998  28.057  0.2181  0.3249  0.0833
54303W        W55167  11.136   3.967  27.603 -0.2176 -0.0759 -0.2400
54304W        W55168  10.762  27.814   1.679  0.1981  0.0977  0.0599
54305W        W55169   9.787   2.869   1.226 -0.0609  0.1186  0.0973
54306W        W55170   7.310   2.004  27.044 -0.0035 -0.3605 -0.2055
54307W        W55171   7.494   1.374   0.925  0.0398  0.1184  0.0718
54308W        W55172  10.522   3.452  28.082  0.0211 -0.0334  0.1017
54309W        W55173  10.435   1.717  25.957 -0.1056  0.2615 -0.2833
54310W        W55174   9.543   3.332  29.003  0.3418 -0.0436 -0.3397
54311W        W55175  10.445  28.621  26.487  0.4234  0.1435  0.0132
54312W        W55176  12.179   1.105  28.472  0.1068 -0.1071 -0.0111
54313W        W55177   9.227   2.045  26.278  0.1814 -0.1080  0.0706
54314W        W55178   9.963   2.332  25.939 -0.2669  0.0453 -0.1092
54315W        W55179  11.487   2.196  28.269 -0.0211 -0.1135  0.0296
54316W        W55180   9.495   1.595  25.969 -0.0191 -0.0913  0.2839
54317W        W55181   9.850   1.362  28.660  0.1712  0.2847 -0.0028
54318W        W55182   7.986   1.630  23.425  0.2482 -0.0910 -0.1481
54319W        W55183   7.785  28.569  27.117 -0.0664  0.0659 -0.1353
54320W        W55184   7.336   6.881  27.544 -0.0575  0.3399 -0.1066
54321W        W55185   9.591   0.832  23.043  0.0960  0.2100 -0.0593
54322W        W55186   8.316   1.564  27.103  0.1054 -0.1908 -0.0928
54323W        W55187   9.009  28.834  27.509  0.3794 -0.2551 -0.1056
54324W        W55188   9.224   1.840  25.565  0.0333 -0.2138 -0.0019
54325W        W55189  10.272   2.618  27.720 -0.1676  0.0866  0.3190
54326W        W55190  11.038   0.113  28.547  0.2265 -0.0263  0.1114
54327W        W55191   8.320   3.643  27.221  0.1727 -0.3179 -0.0717
54328W        W55192   7.966   4.434  27.038 -0.0090 -0.2703 -0.0012
54329W        W55193   7.498   0.004  24.812  0.6723  0.0873 -0.0801
54330W        W55194  10.909   3.079  26.962  0.2124  0.1320 -0.2406
54331W        W55195   6.802   1.271  25.866  0.1616  0.0556  0.3501
54332W        W55196  10.258   1.797  28.001  0.1547  0.0828 -0.1375
54333W        W55197  11.539  28.200   2.232 -0.0717  0.0866  0.1332
54334W        W55198   8.565   2.445  26.708  0.0093 -0.0028 -0.0472
54335W        W55199   9.537   2.052  24.906  0.1508  0.0749 -0.1896
54336W        W55200  10.763  28.414  25.727  0.0504 -0.0388  0.2439
54337W        W55201  12.178  28.392  26.787  0.0235 -0.1614 -0.1663
54338W        W55202   9.336   0.489  28.573 -0.1119 -0.0001 -0.3566
54339W        W55203   9.592   1.208   0.288  0.2418 -0.1337 -0.0154
54340W        W55204  10.745   0.361  27.765  0.2458 -0.1209 -0.1752
54341W        W55205  10.712   1.825  29.116  0.1385  0.1887 -0.1183
54342W        W55206   9.824   0.853   3.022 -0.0908 -0.0262 -0.2685
54343W        W55207   9.441  26.550  27.158  0.1655  0.2061 -0.1789
54344W        W55208   9.770   0.102  26.069  0.0877 -0.0402 -0.2234
54345W        W55209   9.024   4.396  25.825 -0.1314 -0.1819 -0.1467
54346W        W55210   9.907   1.604  26.794 -0.0308 -0.1298  0.0857
54347W        W55211   8.311   2.227  25.258 -0.0566  0.0881  0.2406
54348W        W55212   9.790   1.983   0.727 -0.0038 -0.0715  0.1030
54349W        W55213  10.855   1.010  28.589  0.2746  0.2034  0.1943
54350W        W55214   9.229   2.961  26.187 -0.1467 -0.0832  0.2104
54351W        W55215   9.452   5.419  27.207 -0.0980 -0.2854  0.2354
54352W        W55216   8.226  28.971  28.049 -0.1691  0.0537 -0.0539
54353W        W55217  10.248  25.917  25.148  0.0902 -0.2360 -0.2051
54354W        W55218   6.307   4.726  27.725  0.3768 -0.1356  0.1167
54355W        W55219  10.082   3.103  27.754  0.0479 -0.1451 -0.0522
54356W        W55220   8.580   4.106  25.747 -0.1332 -0.2274 -0.2139
54357W        W55221   9.509   0.618  25.207 -0.1756  0.1424  0.2359
54358W        W55222   8.014   0.665  25.627 -0.0591 -0.3072  0.1089
54359W        W55223   9.456   3.490  24.741  0.0031 -0.4327 -0.1960
54360W        W55224  10.141   1.449  26.362  0.0492  0.1237  0.1415
54361W        W55225   8.718   0.088  27.160  0.4207 -0.1413 -0.1582
54362W        W55226   9.099  28.521  27.156 -0.0432  0.0990 -0.0048
54363W        W55227  12.508   2.661  26.964 -0.1806 -0.1618  0.2275
54364W        W55228  10.402   0.958  25.564  0.0803 -0.2299 -0.1436
54365W        W55229   8.151  28.771  25.565  0.2774  0.0321 -0.2538
54366W        W55230   6.790   3.226   0.495  0.0688  0.0499  0.0649
54367W        W55231   5.063   2.424  26.584 -0.0410  0.1181  0.2041
54368W        W55232   9.167   3.784  24.494 -0.2484 -0.1865  0.0746
54369W        W55233   6.610   4.668  25.427 -0.0646 -0.1087 -0.1222
54370W        W55234   9.004   2.828  28.245  0.2134  0.0683  0.0360
54371W        W55235   9.760  29.038   1.484  0.0800  0.1285  0.1887
54372W        W55236  10.529  28.414   0.406 -0.0438  0.0179 -0.1084
54373W        W55237   9.462   0.059  26.517  0.0711  0.1695 -0.2222
54374W        W55238  11.618  27.813  24.036  0.4491 -0.0297 -0.0029
54375W        W55239   6.123   1.608   0.009 -0.1136 -0.0968 -0.2366
54376W        W55240   7.070  28.902  25.050  0.0031 -0.0099 -0.1135
54377W        W55241  11.147   1.067  28.142 -0.0522 -0.2334  0.1401
54378W        W55242  11.305   0.546  24.012  0.2252 -0.3860 -0.1800
54379W        W55243  10.290   4.421  27.678  0.0838 -0.1921  0.2000
54380W        W55244   9.709   2.233  26.360 -0.3526 -0.2579  0.1192
54381W        W55245  11.307  28.481   1.575  0.1829  0.0673  0.0290
54382W        W55246   5.154  28.941  23.838 -0.1265 -0.1566 -0.0199
54383W        W55247  12.195   0.588  28.066 -0.2178  0.1340 -0.1363
54384W        W55248  10.529   4.083   0.270  0.3787 -0.2602 -0.0489
54385W        W55249  11.099   3.193  28.067  0.1007 -0.0873 -0.2675
54386W        W55250   6.465   1.574  25.998 -0.2702 -0.1207 -0.0197
54387W        W55251   9.251   1.550  28.218 -0.0387  0.1088 -0.0966
54388W        W55252   9.232   1.259  27.384 -0.0767 -0.2370  0.0356
54389W        W55253   8.456   1.948  28.032 -0.0797 -0.0750 -0.0250
54390W        W55254  10.205  26.061   0.396 -0.2519 -0.3003 -0.2902
54391W        W55255  10.379   0.123  28.318 -0.4702 -0.2493 -0.1683
54392W        W55256  10.779   2.461  24.918  0.2558 -0.3523 -0.1158
54393W        W55257  10.221   2.713  23.861 -0.0580 -0.0506 -0.0636
54394W        W55258   8.871   2.389  26.266  0.0108  0.0019  0.0203
54395W        W55259   8.066   2.588   0.358  0.0717 -0.0736 -0.3078
54396W        W55260   7.476   1.635   1.354 -0.1399  0.0857 -0.2003
54397W        W55261  11.664   0.687   1.022 -0.4796  0.0851 -0.1975
54398W        W55262  10.429   2.211  26.067 -0.3097  0.0751 -0.0944
54399W        W55263   9.017   1.786  28.781  0.0301  0.4324 -0.0341
54400W        W55264   9.167   0.725  26.361  0.1579  0.1084 -0.0791
54401W        W55265   7.864   2.338  26.092  0.1329  0.0727 -0.2104
54402W        W55266   7.578   1.876   0.419  0.2951 -0.0374 -0.2824
54403W        W55267   4.685   2.131  27.869  0.1593  0.2382  0.1296
54404W        W55268  12.353  28.757  28.944  0.0966 -0.1402  0.2294
54405W        W55269   9.841   3.977  25.662  0.1935  0.0904 -0.2158
54406W        W55270  10.238   4.389  28.447  0.1299 -0.1132  0.1443
54407W        W55271   9.387   0.747   0.284 -0.1674 -0.1524  0.0004
54408W        W55272   9.246   2.461  27.989 -0.2610  0.1164  0.3952
54409W        W55273   7.227   4.692  26.986 -0.0605 -0.0120 -0.0083
54410W        W55274   9.604   2.913  27.593 -0.1358  0.1994  0.0838
54411W        W55275  11.370  28.915  28.872  0.0758  0.0649  0.1264
54412W        W55276   6.981   3.386  26.194  0.0708 -0.2321 -0.2625
54413W        W55277  11.695   0.059  26.997 -0.2418 -0.2699 -0.0838
54414W        W55278  10.240  28.374  27.875  0.0094  0.2001 -0.2606
54415W        W55279   9.718   1.093  28.253  0.0968 -0.0399  0.0680
54416W        W55280  10.032   3.939  28.589 -0.1930 -0.0701  0.2815
54417W        W55281  10.214   1.720  28.485  0.2702  0.0775  0.0940
54418W        W55282   8.294   0.739  26.568  0.0321 -0.0414  0.0813
54419W        W55283   8.491   1.709  28.773  0.2811  0.0324 -0.0120
54420W        W55284   8.161  28.124  28.478 -0.2787 -0.0201  0.0181
54421W        W55285  11.164   4.033  25.495 -0.1404  0.0721 -0.2127
54422W        W55286  10.447   1.882  24.082  0.1586 -0.0697 -0.0388
54423W        W55287  10.876   2.396  25.813  0.2665 -0.2723  0.1460
54424W        W55288   6.147   1.706  25.655 -0.1794 -0.2367 -0.0362
54425W        W55289  11.337   3.367  26.776 -0.0291  0.1038  0.0728
54426W        W55290  10.679   2.594  25.408 -0.1056 -0.0768 -0.1412
54427W        W55291   8.991   2.699  26.667  0.0960  0.2058  0.0765
54428W        W55292  12.027   3.241   1.067  0.1414  0.1732  0.1093
54429W        W55293  13.394   4.166   0.069 -0.0226  0.0659 -0.2573
54430W        W55294  11.490   2.474   0.088 -0.0825  0.4095  0.5015
54431W        W55295  10.081   2.308  24.733 -0.2754  0.0444  0.0614
54432W        W55296  11.818   2.478  26.400 -0.1931  0.0248 -0.0751
54433W        W55297   9.761   3.345  26.855 -0.0120 -0.3728 -0.0468
54434W        W55298   6.283   1.882   1.929  0.2996  0.3515 -0.3033
54435W        W55299   9.943   3.271   0.223  0.0749  0.0098  0.2096
54436W        W55300   8.467   1.253  27.902 -0.1172  0.0738  0.2371
54437W        W55301   9.939   2.149  25.256 -0.2783 -0.0569  0.1082
54438W        W55302   9.003   0.088  28.639 -0.0524 -0.1869 -0.0339
54439W        W55303  10.253   2.804   0.058  0.0493  0.0277  0.0961
54440W        W55304  11.970   2.813   1.283 -0.0471  0.2411  0.1028
54441W        W55305   9.028   4.547  25.259  0.1103 -0.3033 -0.1607
54442W        W55306   9.057   1.136   0.155  0.2218 -0.2180 -0.2676
54443W        W55307   8.100   3.898  24.676 -0.0153 -0.1188 -0.1108
54444W        W55308  10.974   2.618  26.825  0.0200  0.0820  0.0789
54445W        W55309   9.822  29.046  29.078 -0.2962  0.1603  0.0906
54446W        W55310  11.299   2.102  24.815  0.2322  0.2667 -0.1644
54447W        W55311   8.922   2.170  25.041  0.0872 -0.2792 -0.0210
54448W        W55312   9.970   0.907  27.820 -0.0574 -0.1899  0.2382
54449W        W55313  11.835   1.890  28.975  0.3340  0.1464  0.1349
54450W        W55314   9.392   2.453  26.629  0.0128 -0.1343 -0.0254
54451W        W55315  11.472   1.984   0.514  0.0539 -0.2677  0.0616
54452W        W55316  10.998  28.937   0.985 -0.2642 -0.0790  0.1287
54453W        W55317   8.970   1.390  24.208 -0.2387  0.0627 -0.1425
54454W        W55318   8.923   1.799  24.703 -0.3728 -0.0688 -0.1064
54455W        W55319  10.765   1.899  25.621 -0.0909  0.1852 -0.0673
54456W        W55320   8.103   2.766  26.750 -0.1287 -0.1507 -0.2969
54457W        W55321   9.272   4.050  27.261  0.0639 -0.2208  0.1103
54458W        W55322  10.271   2.628  26.338  0.0257 -0.1149  0.1482
54459W        W55323   8.956   1.571  25.199 -0.0151  0.1185  0.0577
54460W        W55324   5.092   3.379  26.400 -0.1136  0.1715 -0.0751
54461W        W55325  10.945   1.975  26.126 -0.2649 -0.0695  0.2833
54462W        W55326  11.801   0.415  28.943 -0.0358  0.1273  0.0038
54463W        W55327  11.957   3.235  28.874  0.0356  0.1476  0.1009
54464W        W55328   8.922   1.282  28.733  0.0709  0.1960 -0.3845
54465W        W55329  11.341   2.212  27.343 -0.0847 -0.1403  0.0622
54466W        W55330   9.827   1.540  24.829 -0.0525 -0.2892  0.0645
54467W        W55331   7.449   0.606  25.779  0.0811  0.0045 -0.1532
54468W        W55332   9.710   0.330  25.606 -0.0790  0.0389  0.1429
54469W        W55333   8.808  28.501   0.490 -0.1955 -0.1311  0.1851
54470W        W55334   9.728   1.575  28.225  0.2610 -0.1329  0.1766
54471W        W55335   5.566   2.599  24.751 -0.3745 -0.2768  0.2904
54472W        W55336   9.748   3.527  25.759  0.0017 -0.2246  0.1351
54473W        W55337   9.905  27.286  25.631 -0.3437 -0.0155 -0.2100
54474W        W55338  13.051   0.994  28.060  0.0707 -0.2217 -0.1843
54475W        W55339   8.689   3.325  25.812  0.2739 -0.2997 -0.0801
54476W        W55340   4.882   5.130  26.807  0.1149  0.1943 -0.0047
54477W        W55341   9.980  27.992  24.703  0.0666  0.1845  0.2423
54478W        W55342   8.490   2.584  28.497 -0.0392  0.0407  0.0963
54479W        W55343   9.453   3.151   0.378  0.0222 -0.0411  0.0822
54480W        W55344  11.725   1.767  25.709  0.2061 -0.1098 -0.2271
54481W        W55345  10.932   4.226  24.493 -0.0961 -0.1050  0.1393
54482W        W55346  10.491   3.314   0.131  0.1981 -0.1955 -0.1372
54483W        W55347  12.468   3.148  28.693  0.1581 -0.1082 -0.0888
54484W        W55348  10.496  28.549  24.350  0.3519  0.2446 -0.0359
54485W        W55349   9.841   4.346  26.563  0.0566  0.0276 -0.1203
54486W        W55350   7.772   4.824  27.265  0.2399  0.0211 -0.1097
54487W        W55351   7.170  28.959  24.527  0.0778  0.1118  0.0294
54488W        W55352   9.116   2.174   1.150  0.0799 -0.2377  0.1343
54489W        W55353  10.847  28.901  26.517 -0.0424  0.3114  0.0098
54490W        W55354   8.315   0.265  25.455 -0.1307 -0.2952  0.0373
54491W        W55355   7.581   3.408  27.050 -0.0580 -0.0536 -0.1614
54492W        W55356  13.809   5.423   0.319 -0.1017  0.0623 -0.0053
54493W        W55357   8.831  27.543  25.438  0.1892  0.0507 -0.0195
54494W        W55358   6.299  27.892  27.992 -0.2779  0.0457 -0.1788
54495W        W55359  10.452   0.662   0.556  0.0355  0.1899 -0.2122
54496W        W55360  11.234   1.717  26.454 -0.0867 -0.0541  0.0911
54497W        W55361   9.677   3.393  27.826 -0.0909 -0.0615 -0.4573
54498W        W55362   8.944   3.121  25.355  0.1762 -0.0305  0.1643
54499W        W55363   5.635   1.973   1.244 -0.2812 -0.4995 -0.0539
54500W        W55364   9.353   1.692   0.545  0.0757  0.1654  0.3786
54501W        W55365   8.811   3.459  27.751 -0.2692  0.0882  0.0692
54502W        W55366   6.280   5.627  26.031 -0.0049 -0.0140  0.0167
54503W        W55367  10.647  28.233  25.205 -0.0420  0.2449 -0.2504
54504W        W55368   5.635   4.372  25.813 -0.4545 -0.0718  0.1433
54505W        W55369  11.355   0.082  26.566  0.2670 -0.0398 -0.1473
54506W        W55370   7.917   2.857  25.958  0.0691 -0.0760  0.3571
54507W        W55371   7.440   0.549   0.836  0.2080 -0.3265  0.0485
54508W        W55372  11.178  28.569  24.189  0.0385 -0.1511  0.3481
54509W        W55373  12.417   2.465  28.491 -0.0467 -0.1150 -0.3292
54510W        W55374   9.481  29.025  27.650 -0.0665  0.0296 -0.1956
54511W        W55375  11.295   2.359  26.233  0.0064 -0.0231  0.2050
54512W        W55376  12.160   4.354  28.802 -0.0505 -0.0639  0.0601
54513W        W55377   7.729   4.333  28.377  0.0012  0.1591 -0.0136
54514W        W55378  11.447   2.776  26.700  0.2103 -0.3367  0.1894
54515W        W55379  10.316   0.181  27.038  0.0513 -0.2585 -0.0311
54516W        W55380   9.355   0.350  25.973  0.0336 -0.0923  0.1390
54517W        W55381   7.267   3.582  25.803 -0.1222  0.0079  0.2755
54518W        W55382  10.233  26.967  27.125  0.3076 -0.1486  0.0383
54519W        W55383  10.370   0.646  26.805 -0.2649  0.1357 -0.1169
54520W        W55384   7.635   3.647  23.990 -0.0054  0.1656  0.2139
54521W        W55385   9.811   2.902  28.897  0.1580  0.0554 -0.0419
54522W        W55386  10.312   2.395  28.173  0.0554 -0.1193  0.2772
54523W        W55387   7.846   2.166  24.428  0.0975 -0.3792  0.2405
54524W        W55388   5.784  29.071  25.297  0.0190 -0.0552  0.3685
54525W        W55389   8.131   3.416  29.093  0.0588  0.0181 -0.0336
54526W        W55390   9.099   2.824  25.727  0.0999  0.3764  0.1921
54527W        W55391  11.399   1.665  27.315 -0.0971  0.0062 -0.3067
54528W        W55392   9.612   4.970  23.733  0.1124  0.2267 -0.1065
54529W        W55393  12.176   2.289  27.417 -0.1896 -0.1434  0.0005
54530W        W55394   9.943   2.498  26.737  0.2994  0.4359  0.2039
54531W        W55395   8.555   3.962  24.041  0.0148 -0.0193  0.0198
54532W        W55396  11.860   2.719  24.861  0.1664  0.1691 -0.1805
54533W        W55397   6.065   3.074  26.308 -0.2073 -0.1113 -0.0487
54534W        W55398   9.625   0.568  26.387 -0.2080  0.1999  0.1237
54535W        W55399   8.714   1.437  29.146 -0.0203 -0.0209 -0.1529
54536W        W55400   7.314   2.446  26.233  0.1373 -0.0909  0.4075
54537W        W55401   7.805   1.590  25.818  0.1525 -0.1614 -0.0481
54538W        W55402  10.733   3.145  28.511 -0.2654  0.4806  0.2116
54539W        W55403   3.916   4.516  25.552  0.1613  0.2683 -0.1070
54540W        W55404  10.000  27.440   0.594  0.0898  0.1762  0.0670
54541W        W55405   9.614   0.825  22.268 -0.2803  0.0054 -0.0333
54542W        W55406   9.306   2.031  28.383 -0.1665  0.3134  0.2994
54543W        W55407   8.695   1.528  26.328 -0.1985 -0.0220  0.2020
54544W        W55408   7.288   2.362  25.200  0.1845 -0.3873 -0.1834
54545W        W55409   8.921   0.707  25.918 -0.1943  0.0671 -0.0830
54546W        W55410  10.786  28.302  26.216  0.1988  0.1482 -0.0209
54547W        W55411   8.991   2.675  24.485 -0.1918  0.0155 -0.0607
54548W        W55412   9.457   3.067  25.397  0.1955 -0.1283  0.2181
54549W        W55413  11.381   3.165  24.223  0.0613 -0.0484  0.0378
54550W        W55414  11.694   1.632  28.568 -0.1024 -0.0107 -0.0359
54551W        W55415   9.586   3.659  27.175 -0.2707 -0.2900 -0.0684
54552W        W55416   8.512   1.687   1.143  0.2174 -0.2689  0.4144
54553W        W55417   9.147   1.905  26.827  0.0879  0.0440 -0.3867
54554W        W55418  10.470   1.877  26.966 -0.0277  0.2355  0.2616
54555W        W55419  10.268   0.065   0.032 -0.0866 -0.2760  0.3193
54556W        W55420   9.313   0.997  27.935  0.2801  0.0395 -0.0488
54557W        W55421  11.069  27.178  26.215  0.0744  0.2299  0.0441
54558W        W55422   6.280   3.942  25.758 -0.2649 -0.0760  0.1578
54559W        W55423   7.064   1.490  27.275 -0.0571 -0.4794  0.2576
54560W        W55424  12.596   2.559  27.519 -0.2632  0.1544 -0.0535
54561W        W55425  10.825   0.598   0.895 -0.1152  0.1712  0.2258
54562W        W55426  10.905   0.566   2.059  0.2555 -0.0859 -0.1156
54563W        W55427  10.423   4.997  27.568  0.1457  0.0949 -0.0590
54564W        W55428   8.845   3.778   2.630 -0.0953  0.2280 -0.0098
54565W        W55429   8.266   1.453   0.297 -0.0548 -0.1688 -0.0162
54566W        W55430   8.468   2.380   1.691  0.0439  0.1019 -0.0509
54567W        W55431  11.420   3.947   2.500  0.0925 -0.1949 -0.0693
54568W        W55432   7.589   2.002  26.628  0.0472  0.1148  0.0156
54569W        W55433   8.168   1.628  24.231 -0.1211  0.1427  0.1254
54570W        W55434   9.331   1.645   0.028  0.1003 -0.4205  0.2746
54571W        W55435   5.224   0.792  26.073  0.0488  0.1931  0.0326
54572W        W55436   8.239   0.668   1.075  0.0471 -0.2708 -0.0544
54573W        W55437   8.142   2.593  27.227 -0.0120 -0.0681 -0.1963
54574W        W55438   9.852   2.371  27.519  0.1995  0.3923 -0.1308
54575W        W55439   9.602   3.029  25.888 -0.2350  0.3571  0.2172
54576W        W55440   9.720   2.626  25.517  0.1102 -0.1082 -0.0401
54577W        W55441   7.119   5.139   5.204 -0.1426  0.5682  0.1434
54578W        W55442   6.227   5.435   4.185 -0.0437  0.0609 -0.0804
54579W        W55443  10.785   5.561  26.788 -0.2550 -0.2759 -0.2464
54580W        W55444   9.201   7.862   3.087 -0.1031  0.1521  0.1486
54581W        W55445   9.078   3.591  27.195 -0.0294  0.4112 -0.0209
54582W        W55446   9.877   1.742  27.643 -0.0852 -0.0334 -0.2575
54583W        W55447   8.454   3.173   1.890  0.0547 -0.1692 -0.2236
54584W        W55448   7.832   3.904  28.025  0.1211 -0.0600  0.0075
54585W        W55449   6.628   6.175   3.399  0.1587 -0.0686 -0.0207
54586W        W55450   7.212   2.626  27.180 -0.5174 -0.0733 -0.1683
54587W        W55451   7.234   5.550   1.461  0.2408 -0.0063 -0.1093
54588W        W55452   9.559   2.601  28.446  0.0446  0.1173  0.4405
54589W        W55453   7.884   5.106   0.887  0.0318 -0.0931 -0.0171
54590W        W55454   9.672   5.816   4.112 -0.0463 -0.2349  0.2406
54591W        W55455   8.344   4.738   1.653  0.4090 -0.1859 -0.2013
54592W        W55456   5.621   6.097   4.652 -0.2245  0.0074  0.0599
54593W        W55457   9.718   3.834  28.991  0.1180  0.0299 -0.4294
54594W        W55458   7.457   3.930   0.595 -0.0004 -0.0119 -0.1450
54595W        W55459   7.094   5.778   3.653 -0.0163  0.1049  0.1042
54596W        W55460   7.359   5.834   4.110  0.0205  0.2473 -0.1058
54597W        W55461   8.895   5.275   3.112 -0.1074 -0.1211  0.0004
54598W        W55462   8.059   5.779  27.451 -0.0589 -0.0253 -0.0838
54599W        W55463   7.863   5.393   2.841  0.0129  0.3007  0.0377
54600W        W55464   8.701   2.134   2.103 -0.0222 -0.1931 -0.0069
54601W        W55465   8.000   6.566   0.392 -0.1515  0.1364 -0.1769
54602W        W55466   8.133   3.702   0.359 -0.0450 -0.1515 -0.4164
54603W        W55467   8.638   6.151   3.650  0.3468  0.0860  0.0433
54604W        W55468   7.568   3.604   1.733 -0.0627 -0.1115 -0.1470
54605W        W55469   8.103   5.258   1.780 -0.0015  0.0901 -0.0066
54606W        W55470   7.850   5.331   2.352 -0.0339 -0.0169 -0.1067
54607W        W55471   7.489   5.802   0.358  0.2189 -0.1464  0.1579
54608W        W55472   9.079   4.382   2.359 -0.2599 -0.0498 -0.2325
54609W        W55473   6.299   6.881   2.015 -0.1997  0.0334 -0.0497
54610W        W55474   6.422   7.903   1.993 -0.1338 -0.6383  0.3940
54611W        W55475   7.258   4.839   5.661 -0.2485 -0.0660  0.1089
54612W        W55476   8.034   6.282   1.375 -0.1716 -0.1733  0.0076
54613W        W55477   4.793   6.985  26.999 -0.1608  0.2056  0.1571
54614W        W55478   5.872   6.481   3.084 -0.0653 -0.1518 -0.2969
54615W        W55479  11.145   5.982   0.507  0.0721  0.0618 -0.0953
54616W        W55480   8.114   3.156   2.855 -0.0043 -0.1541  0.1755
54617W        W55481  11.504   4.808   0.230 -0.0875  0.1850  0.2619
54618W        W55482  13.834   6.846   1.937  0.0262  0.0829 -0.0610
54619W        W55483   6.608   8.951   1.967 -0.1659 -0.1569  0.1666
54620W        W55484   6.667   5.437   0.356 -0.2056 -0.0097  0.1574
54621W        W55485   7.166   8.330   2.485  0.0484  0.1285 -0.1254
54622W        W55486   7.275   8.214  28.847  0.0144  0.0883  0.0851
54623W        W55487   7.244   4.043   1.068  0.0597  0.1986  0.4015
54624W        W55488   9.959   6.433   0.010  0.0322 -0.0726 -0.0462
54625W        W55489   9.819   3.811   0.745  0.3893  0.0538  0.0879
54626W        W55490   8.163   3.667  28.457  0.0887 -0.1478 -0.0507
54627W        W55491   7.327   7.322   1.509  0.1635 -0.0046 -0.1257
54628W        W55492   8.762   3.794   1.248 -0.1160 -0.0175  0.2670
54629W        W55493   9.852   5.982   1.582 -0.0414  0.1747  0.4323
54630W        W55494   9.845   5.526   0.791  0.1738 -0.0530  0.1306
54631W        W55495   7.918   4.285   0.544 -0.1033 -0.0153 -0.2534
54632W        W55496   6.184   6.979  28.633 -0.2186 -0.1843 -0.1283
54633W        W55497   7.304   4.621   2.154 -0.4841  0.0845 -0.3277
54634W        W55498  10.321   2.941   1.218 -0.1574 -0.2255  0.1171
54635W        W55499   7.520   8.116   0.491  0.0785  0.0357 -0.1322
54636W        W55500   9.093   8.302   2.272  0.1827 -0.2967  0.1521
54637W        W55501  12.002   4.976   0.379 -0.0130 -0.0659  0.0107
54638W        W55502   8.372   6.703  29.146  0.1323 -0.2258  0.1516
54639W        W55503   6.306   6.165   2.503  0.0540  0.0517 -0.2584
54640W        W55504   6.726   6.191   0.796  0.1207 -0.1609  0.1426
54641W        W55505   7.540   1.952   3.140 -0.4737 -0.0353 -0.0275
54642W        W55506   9.250   3.363   2.478  0.1694  0.2605  0.0202
54643W        W55507   9.235   6.290   1.001 -0.3900  0.2796 -0.2576
54644W        W55508   6.275   2.678  28.315 -0.1118  0.0598  0.1287
54645W        W55509   6.362   6.679   2.421 -0.1085 -0.2181  0.0416
54646W        W55510   9.053   7.945   1.174  0.0689  0.0388 -0.0246
54647W        W55511  10.993   7.020   3.938  0.1230 -0.1553  0.0434
54648W        W55512   7.082   4.559  29.007 -0.3163  0.0156 -0.0498
54649W        W55513   8.726   5.727   1.555  0.1807 -0.2848  0.0733
54650W        W55514  11.413   2.446   4.372 -0.1659  0.0237 -0.1855
54651W        W55515   8.639   6.164   2.579 -0.2341  0.0876 -0.0744
54652W        W55516   9.313   5.289   3.372 -0.1878 -0.3733  0.3195
54653W        W55517   5.330   3.169   0.114  0.3090 -0.1963 -0.0368
54654W        W55518   6.531   5.314   4.613 -0.1182 -0.3655  0.0499
54655W        W55519   9.959   5.011  27.644  0.3447  0.2534  0.0644
54656W        W55520   8.482   4.895   0.088 -0.0119 -0.1826  0.1859
54657W        W55521   9.092   4.799   2.637  0.0779 -0.2169 -0.1713
54658W        W55522   7.066   6.503   0.683  0.4342  0.0633 -0.4120
54659W        W55523   6.846   5.413  28.471  0.1048  0.2486  0.1498
54660W        W55524  11.043   3.605   3.277 -0.1969 -0.1882  0.1456
54661W        W55525   8.889   6.176   4.594  0.0009 -0.0361 -0.2111
54662W        W55526   7.932   3.229  28.310 -0.1566  0.0755 -0.1318
54663W        W55527   9.841   8.049   2.908  0.2543  0.1572 -0.0697
54664W        W55528   7.923   3.910   3.685  0.2765  0.1201 -0.0454
54665W        W55529   8.159   8.674   0.663 -0.3327  0.1462 -0.1791
54666W        W55530  10.275   5.760   4.275  0.4118  0.0825  0.1279
54667W        W55531  10.529   2.671   2.140 -0.0965  0.0336  0.0789
54668W        W55532   8.994   5.137   2.103 -0.1528  0.3457  0.2930
54669W        W55533   8.015   5.834   0.200  0.2549  0.0048 -0.1639
54670W        W55534   7.971   3.109   0.396 -0.0701 -0.0520  0.0410
54671W        W55535   7.294   4.358   5.746 -0.4183 -0.1199  0.0707
54672W        W55536   7.344   3.641  28.901 -0.1662  0.1289 -0.0304
54673W        W55537   8.328   6.567   3.266 -0.0881 -0.1597 -0.0712
54674W        W55538   8.965   6.794  28.731 -0.1710 -0.2560  0.1544
54675W        W55539   8.771   2.082  28.408 -0.0295  0.4161 -0.0827
54676W        W55540   9.481   4.083   0.497  0.1292  0.3048  0.1623
54677W        W55541   9.141   7.122   0.957  0.1897 -0.5243  0.0512
54678W        W55542   7.682   4.225   1.012  0.1561  0.1163  0.4195
54679W        W55543   9.921   4.612   1.031 -0.2002  0.1879  0.4194
54680W        W55544   9.452   7.740   3.760  0.0483 -0.1694 -0.1594
54681W        W55545   9.846   4.272   2.832  0.1341  0.2032  0.3600
54682W        W55546   8.877   3.099   2.766  0.0378  0.1111  0.0082
54683W        W55547   7.982   3.964   1.387 -0.0052 -0.1250  0.0355
54684W        W55548   8.004   5.256   4.825  0.0373 -0.0309 -0.0765
54685W        W55549   7.662   2.963   2.488  0.0092  0.0350  0.0829
54686W        W55550   9.876   4.273   3.304 -0.2825 -0.0057 -0.1808
54687W        W55551   6.509   5.389   2.839 -0.1656  0.1632 -0.0957
54688W        W55552   8.422   4.913   1.142  0.1053 -0.4431  0.2980
54689W        W55553  10.918   3.505   3.754 -0.0443  0.0659  0.4255
54690W        W55554   8.111   7.121   1.238 -0.0726  0.0366 -0.1213
54691W        W55555   9.143   5.582  27.619  0.1227 -0.2517 -0.2638
54692W        W55556   5.476   5.230  27.386 -0.1409  0.0173 -0.1761
54693W        W55557   9.782   4.569   0.575  0.1723 -0.5935 -0.3377
54694W        W55558   7.005   7.576   2.781 -0.1448  0.0079 -0.0285
54695W        W55559   8.374   5.331   3.019  0.1500  0.0190 -0.0229
54696W        W55560   9.235   3.278  27.589  0.0936 -0.2695 -0.1416
54697W        W55561   9.863   3.765  28.138 -0.2555  0.0328  0.0024
54698W        W55562   9.431   5.582   0.363 -0.0407 -0.1280 -0.1056
54699W        W55563  10.138   8.038  28.668  0.2354  0.2690 -0.0817
54700W        W55564   9.034   4.327   1.773  0.0593  0.1175  0.1279
54701W        W55565  11.046   7.078   1.441  0.0547 -0.0338 -0.0514
54702W        W55566  10.484   4.605   0.999  0.2838  0.2359 -0.1027
54703W        W55567   9.586   4.598   4.442 -0.2254  0.4458  0.1073
54704W        W55568   6.587   7.819   3.058  0.2549 -0.0441  0.2959
54705W        W55569   7.889   6.225   1.967 -0.3895 -0.2027  0.2164
54706W        W55570   7.817   5.526   1.389  0.1160 -0.0017  0.0905
54707W        W55571  12.018   9.230   3.886 -0.2982 -0.1522  0.3838
54708W        W55572   9.722   2.400   3.427  0.1994  0.3212  0.1898
54709W        W55573   7.774   6.243   3.067  0.0913 -0.1704 -0.1858
54710W        W55574   9.378   5.463   2.270 -0.1527  0.2252  0.1406
54711W        W55575   7.301   4.882   0.251  0.1439 -0.3540  0.1081
54712W        W55576   8.863   3.446   2.121  0.0572  0.1084 -0.0095
54713W        W55577   8.133   3.566   2.034  0.1651  0.0734 -0.3424
54714W        W55578   9.101   5.436   1.724 -0.0091 -0.0653 -0.3289
54715W        W55579   6.727   4.839   0.157  0.2437  0.1202 -0.1038
54716W        W55580   7.461   5.700   2.260 -0.1273 -0.0514  0.1094
54717W        W55581   5.590   4.766   0.752 -0.1335 -0.0814 -0.1778
54718W        W55582  10.461   1.672   2.370 -0.2052  0.1793  0.2520
54719W        W55583   6.683   6.604   1.126  0.0153 -0.1767  0.0607
54720W        W55584   8.598   4.132  28.536 -0.3579 -0.0615 -0.3577
54721W        W55585  10.283   6.632   3.724  0.0176  0.0353 -0.3247
54722W        W55586   7.261   3.660   1.338 -0.1018 -0.0489 -0.5129
54723W        W55587  10.654   3.380   0.915  0.2759  0.1549 -0.0382
54724W        W55588  10.460   8.956   1.448 -0.2237  0.1334 -0.0847
54725W        W55589   6.746   7.366   1.237 -0.0216  0.1033 -0.1316
54726W        W55590   7.572   6.907   1.379  0.0395  0.0124  0.1170
54727W        W55591  11.027   9.270   3.504  0.0549 -0.0660  0.0166
54728W        W55592   7.433   2.305   1.322  0.3371  0.2663 -0.2464
54729W        W55593   8.277   2.539   3.664 -0.0401  0.2179 -0.1150
54730W        W55594   8.603   6.178  27.785 -0.0066 -0.0267  0.1483
54731W        W55595   7.743   4.741   3.510  0.1140  0.0582  0.1610
54732W        W55596   7.817   2.557   2.194  0.3767  0.0048 -0.2862
54733W        W55597   6.150   5.196   3.137  0.2800  0.3171  0.1354
54734W        W55598   7.733   5.104  27.673 -0.0637  0.0771  0.1206
54735W        W55599   6.028   4.374  25.378  0.0213  0.1297 -0.4327
54736W        W55600   6.205   4.053  28.274 -0.1621 -0.1844  0.0640
54737W        W55601   7.927   3.492   4.383 -0.0188  0.0854  0.5222
54738W        W55602   8.500   7.954   1.189 -0.1236  0.1961  0.1308
54739W        W55603   9.258   2.356   2.208 -0.1330 -0.1243  0.2936
54740W        W55604   8.050   3.773   2.491 -0.0744 -0.0150  0.2328
54741W        W55605   8.324   4.840   3.872 -0.2404  0.0744  0.1692
54742W        W55606   5.423   3.173  27.680  0.0008 -0.2102  0.1879
54743W        W55607   6.567   4.246   3.705  0.0036 -0.2121  0.3095
54744W        W55608   7.405   5.944  28.603 -0.1118  0.1181 -0.1632
54745W        W55609   8.530   7.079   3.230  0.0153 -0.0582 -0.0965
54746W        W55610   7.150   5.502   0.186  0.4426 -0.3377  0.1665
54747W        W55611   7.241   2.804  27.645  0.0897  0.1526 -0.1530
54748W        W55612   9.630   3.516   1.150 -0.1923  0.1073 -0.0249
54749W        W55613   7.874   6.644  29.023  0.0438 -0.4276 -0.1465
54750W        W55614   8.982   6.068  27.490 -0.1129 -0.0760 -0.2270
54751W        W55615   7.335   4.327   3.404 -0.0752 -0.0639  0.6963
54752W        W55616  12.132   1.456  28.799  0.3819 -0.2569  0.0068
54753W        W55617   8.768   7.464   3.464  0.1430  0.0941 -0.1649
54754W        W55618   6.914  10.236   2.002  0.1301 -0.1310 -0.1671
54755W        W55619   6.339   6.132  28.930 -0.1685  0.2409  0.2925
54756W        W55620   7.693   4.381   2.393 -0.3224 -0.0825 -0.1824
54757W        W55621   8.438   6.306   1.751  0.0572  0.1275  0.0862
54758W        W55622   8.280   6.393   2.257 -0.0989  0.1499  0.0862
54759W        W55623   8.412   5.060   0.602 -0.0665  0.0787  0.1154
54760W        W55624   8.626   3.347   1.393 -0.0829  0.1922 -0.0546
54761W        W55625   6.115   4.910   1.234  0.3107  0.1314  0.1903
54762W        W55626   7.172   3.535   2.558 -0.3126 -0.2747 -0.0848
54763W        W55627   8.983   2.966   0.556  0.4121 -0.0551  0.0262
54764W        W55628   7.950   1.164  27.003 -0.1471  0.2453 -0.0301
54765W        W55629   8.472   5.534   0.263 -0.2480  0.0523  0.1236
54766W        W55630   7.687   6.811   3.019  0.0534 -0.2787 -0.0949
54767W        W55631   8.171   4.872  27.001  0.0739 -0.2234 -0.2474
54768W        W55632   6.664   5.733  28.082  0.0308  0.1218 -0.3521
54769W        W55633   7.895   5.867   5.359 -0.0730  0.1482  0.1186
54770W        W55634   7.068   4.857   1.292  0.1896  0.0261 -0.0048
54771W        W55635   7.801   2.778   3.557 -0.0653  0.1792 -0.0540
54772W        W55636   6.251   2.343   0.595  0.0725 -0.1603 -0.3173
54773W        W55637   9.338   4.501  28.201 -0.2184  0.0527 -0.2596
54774W        W55638   7.643   5.896   1.671 -0.3415  0.2072 -0.0280
54775W        W55639   6.431   5.218   0.769 -0.0090 -0.0970 -0.3904
54776W        W55640   8.314   1.205   3.996  0.3746  0.1518 -0.1307
54777W        W55641   6.442   7.651   2.532 -0.0794  0.1371 -0.1483
54778W        W55642  11.348   3.596   2.791  0.1332  0.5195  0.0898
54779W        W55643   9.959   5.819  28.805  0.0095 -0.2396  0.4102
54780W        W55644   8.116   4.354   3.706 -0.1055  0.4652 -0.1498
54781W        W55645   7.512   4.715   4.706  0.1964 -0.1394 -0.2287
54782W        W55646   6.982   5.927   0.337 -0.1677  0.1204 -0.1276
54783W        W55647   7.392   6.178   2.070  0.1575 -0.2425  0.2824
54784W        W55648   8.341   6.643   1.272  0.1731 -0.1130  0.0268
54785W        W55649   9.096   8.420   1.783 -0.3037  0.0238  0.0687
54786W        W55650  10.075   6.691  28.767  0.1086 -0.0871 -0.0765
54787W        W55651   7.010   6.048   5.406  0.1047 -0.2691  0.1261
54788W        W55652   7.296   4.787   3.770  0.1691 -0.1152  0.0033
54789W        W55653   8.416   3.923   3.760 -0.1507 -0.4068  0.0009
54790W        W55654   9.764   5.088   4.835  0.1615 -0.3539  0.0536
54791W        W55655  11.017   3.982   3.608  0.5146  0.1559 -0.0285
54792W        W55656   8.819   5.784  27.949 -0.1862  0.1450 -0.0136
54793W        W55657  10.598   3.079  27.699  0.1517 -0.1819 -0.0937
54794W        W55658   8.668   5.569  28.419 -0.1869  0.2243 -0.1863
54795W        W55659   7.403   5.710   3.136 -0.0284 -0.2102  0.0025
54796W        W55660   6.774   6.841   5.998  0.0575 -0.2623  0.2021
54797W        W55661  11.383   5.788   3.943 -0.0998  0.1346 -0.0681
54798W        W55662  10.227   5.072   1.732  0.0079  0.0507  0.1540
54799W        W55663   6.877   6.531   3.205 -0.2063 -0.3299  0.2155
54800W        W55664  11.618   3.289  28.200 -0.0591  0.6282  0.0469
54801W        W55665   8.896   6.545  27.547 -0.0806  0.1093 -0.0646
54802W        W55666   7.999   1.800   2.988  0.0102  0.0662 -0.3178
54803W        W55667   8.658   6.624   2.884  0.0616 -0.1820  0.2226
54804W        W55668   9.741   3.949   1.360 -0.0214 -0.0278 -0.0714
54805W        W55669   9.719   9.663   0.923  0.0430 -0.2127 -0.0560
54806W        W55670   8.474   3.937   2.336 -0.1353 -0.0787 -0.4999
54807W        W55671   9.433   3.976   2.603 -0.0461  0.0081 -0.0068
54808W        W55672  10.399   4.569   3.987  0.3435  0.0143  0.2861
54809W        W55673   7.607   6.731   2.375  0.1733 -0.0714 -0.3092
54810W        W55674   7.912   4.245  29.125  0.1401 -0.2627  0.3711
54811W        W55675   6.283   5.067   1.672  0.4089  0.0220  0.0075
54812W        W55676   8.548   5.951   0.666 -0.0524  0.2234 -0.2655
54813W        W55677   9.001   3.987  28.255  0.0920 -0.1048 -0.1789
54814W        W55678  10.634   2.862   4.201 -0.3390  0.3823  0.1351
54815W        W55679   9.154   6.979   0.359  0.2847  0.0926 -0.4140
54816W        W55680   9.321   2.877  29.112  0.0157  0.1956 -0.1626
54817W        W55681   8.698   4.299   2.698  0.3246 -0.1250 -0.1321
54818W        W55682   6.650   5.679   0.925  0.0481 -0.1074 -0.0635
54819W        W55683   8.729   3.732   3.489 -0.0615  0.0255 -0.2850
54820W        W55684   8.729   2.655   1.009 -0.0575 -0.2761  0.1881
54821W        W55685  10.259   4.589   3.009  0.0859  0.1253  0.0433
54822W        W55686   6.841   4.863  27.689  0.1203 -0.0305 -0.2334
54823W        W55687  10.302   5.573  29.056 -0.0711 -0.0645  0.1291
54824W        W55688   7.612   5.225   4.427  0.0958 -0.0142  0.0490
54825W        W55689   7.204   6.768  26.716  0.1696 -0.2506 -0.1538
54826W        W55690   5.948   5.268  25.433  0.1194  0.1407 -0.2748
54827W        W55691   6.902   5.200   1.625 -0.0801  0.0903  0.0839
54828W        W55692   8.010   7.905   0.490 -0.1860  0.0908  0.0031
54829W        W55693   9.331   6.980   6.564 -0.1445 -0.0851  0.1025
54830W        W55694   6.447   5.736   2.298 -0.0121 -0.1452 -0.1018
54831W        W55695   9.411   3.031  28.584 -0.2381 -0.1861 -0.0727
54832W        W55696   9.371   7.553   1.084 -0.0350  0.0055  0.0436
54833W        W55697   9.709   3.497   2.695 -0.1636  0.2658  0.0956
54834W        W55698   7.390   0.903   0.487 -0.2528 -0.1873 -0.3790
54835W        W55699   8.217   6.396   2.791 -0.1927 -0.0866 -0.0020
54836W        W55700   9.535   4.994   2.389 -0.1875  0.1067 -0.0525
54837W        W55701   8.270   4.618   0.707 -0.1620 -0.2256 -0.0486
54838W        W55702   9.376   2.464   4.097 -0.0269 -0.0329 -0.0361
54839W        W55703   8.069   7.590   0.989 -0.0261  0.0593  0.1276
54840W        W55704   7.186   2.621   2.944 -0.1807 -0.2174 -0.1943
54841W        W55705   8.206  10.729   2.393 -0.0041  0.1979  0.0319
54842W        W55706   7.122   6.597   6.370 -0.1697  0.1553 -0.0076
54843W        W55707   9.423   6.619   0.603 -0.2838 -0.0973  0.0512
54844W        W55708   9.896   8.932   3.334 -0.2598 -0.0811  0.0599
54845W        W55709   6.191   5.757   2.902 -0.1480 -0.0812 -0.0547
54846W        W55710   8.628   6.247  28.852 -0.1841 -0.1857 -0.1450
54847W        W55711   6.564   4.869   1.082  0.2264  0.1969 -0.0687
54848W        W55712   9.535   5.086   1.860 -0.0951 -0.0815  0.1846
54849W        W55713   7.861   4.365   4.483 -0.2114 -0.3928 -0.2288
54850W        W55714   7.527   3.906   2.711  0.2634  0.3283  0.2092
54851W        W55715   7.666   7.325   1.088  0.1346 -0.0447 -0.2477
54852W        W55716   9.646   3.562   5.391  0.0611 -0.1285  0.0760
54853W        W55717   7.437   0.845   4.411  0.1552  0.0733  0.1941
54854W        W55718   8.400   3.026   0.995 -0.0910 -0.0649  0.0756
54855W        W55719   7.206   5.037  26.103 -0.1928  0.1149  0.3760
54856W        W55720   5.264   7.684   2.272 -0.1249  0.1020 -0.0256
54857W        W55721   6.961   6.732  29.035 -0.3143 -0.0603 -0.0487
54858W        W55722   7.851   3.496  27.785  0.0105  0.4048  0.0408
54859W        W55723   8.266   4.654  28.399 -0.1272  0.3290  0.3468
54860W        W55724   5.993   7.309   0.862 -0.1318 -0.0471  0.0306
54861W        W55725   9.158   4.963   1.549  0.1179 -0.1504 -0.0429
54862W        W55726  12.286   3.625   4.363  0.1163 -0.1812  0.2677
54863W        W55727   7.537   5.996   1.163 -0.1814 -0.0109  0.2469
54864W        W55728   7.450   6.104   5.054  0.0891 -0.2953  0.1104
54865W        W55729   9.182   3.514   1.385  0.1417 -0.1206 -0.1749
54866W        W55730   9.667   6.273  28.815 -0.1984 -0.0630  0.0358
54867W        W55731   9.262   3.868  28.633  0.0696  0.0374 -0.2224
54868W        W55732   7.046   4.535   1.753 -0.1206  0.1334 -0.0011
54869W        W55733   8.133   2.986   2.346  0.1516 -0.0843  0.1650
54870W        W55734   8.386   4.200   0.394  0.0685 -0.2984 -0.0663
54871W        W55735   6.910   6.912   0.421 -0.0163  0.2470 -0.0162
54872W        W55736   8.866   3.939  28.929  0.0020 -0.0728 -0.1312
54873W        W55737  10.499   3.834   2.349  0.0204  0.2117  0.0104
54874W        W55738   9.222   6.572   3.008 -0.1885 -0.0042 -0.2499
54875W        W55739   8.818   4.615   1.372  0.0712  0.0601  0.1711
54876W        W55740   7.325   8.096   3.317  0.2199  0.0444  0.0381
54877W        W55741   6.572   7.415   1.716 -0.1963  0.0430  0.1642
54878W        W55742   8.681   1.749   5.868  0.0485  0.0500 -0.0927
54879W        W55743   9.122   6.637   6.291  0.0874 -0.1021  0.1602
54880W        W55744   9.318   6.388   2.008 -0.0615 -0.1271 -0.2491
54881W        W55745   8.989   4.168   0.697  0.2061  0.3563 -0.2578
54882W        W55746   7.479   8.100   2.825 -0.1259  0.1425 -0.2165
54883W        W55747   9.054   5.231   3.787 -0.1244 -0.0326 -0.1601
54884W        W55748   8.928   2.531   1.456 -0.2667 -0.1352  0.2351
54885W        W55749   9.572   4.237   0.942  0.2989  0.1812  0.0849
54886W        W55750   7.623   7.565   4.443 -0.0985 -0.0163  0.0411
54887W        W55751   8.753   3.388   0.889  0.2292  0.0543  0.2006
54888W        W55752   9.227   5.357   5.191  0.2091 -0.2931  0.1106
54889W        W55753  10.240   3.573   3.819 -0.3833 -0.2093 -0.0328
54890W        W55754   8.151   5.444   5.321  0.0220 -0.1942 -0.1673
54891W        W55755   8.330   8.003   1.701  0.2636 -0.1526  0.2236
54892W        W55756   8.857   5.654   2.306  0.0606 -0.0960  0.2575
54893W        W55757   9.905   4.288  28.034 -0.0812  0.2378 -0.1877
54894W        W55758   7.911   4.194   2.838 -0.2334 -0.2382 -0.2501
54895W        W55759   7.191   5.274   4.064 -0.1201  0.3789 -0.1406
54896W        W55760   7.637   5.611   0.827 -0.3952  0.3185 -0.2062
54897W        W55761   5.585   6.638   4.793  0.0310 -0.3081 -0.0947
54898W        W55762   9.356   7.078  29.115 -0.0314 -0.0576  0.0653
54899W        W55763   8.716   5.390   7.317  0.1152  0.1252 -0.3071
54900W        W55764   7.102   6.815   3.961 -0.2386  0.0969 -0.0710
54901W        W55765   5.930   6.731   0.675 -0.2045 -0.2109 -0.1734
54902W        W55766   6.661   5.992   2.825  0.0014 -0.0080  0.1992
54903W        W55767  10.133   2.061   3.245  0.1472  0.0973  0.0690
54904W        W55768   5.435   5.264   2.306 -0.1107 -0.2507  0.0195
54905W        W55769   9.946   1.603   0.450  0.0229  0.0122  0.1103
54906W        W55770   7.079   7.553   0.157 -0.0961  0.0018 -0.0011
54907W        W55771   7.554   6.323   6.108  0.1618  0.2183 -0.2761
54908W        W55772   8.786   0.701   1.006 -0.3051 -0.1920  0.0793
54909W        W55773   9.371   6.940   3.278 -0.1299 -0.0001  0.0918
54910W        W55774   7.033   6.880   1.446 -0.1170  0.0888  0.0814
54911W        W55775   8.924   3.762   1.739  0.2288 -0.0098 -0.1796
54912W        W55776   7.624   7.737   3.966  0.2086  0.0032  0.0361
54913W        W55777   6.936   7.373   3.265 -0.4379 -0.1468  0.1329
54914W        W55778   7.492   6.475   3.893  0.0235 -0.1574 -0.0476
54915W        W55779   8.038   4.105   1.955  0.0604 -0.0522  0.0888
54916W        W55780   6.749   2.364   1.653  0.1279  0.1892  0.0306
54917W        W55781   7.170   6.496   1.793  0.1305 -0.0625 -0.2226
54918W        W55782   7.736   5.320   6.956 -0.0029  0.1618 -0.0570
54919W        W55783   7.845   1.192   4.214 -0.0104 -0.0466 -0.3573
54920W        W55784   8.218   4.626  27.430 -0.1274  0.5514  0.1562
54921W        W55785   8.576   4.286   1.950 -0.0165 -0.1580  0.1702
54922W        W55786   7.685   6.254   2.529 -0.1748  0.0629 -0.1146
54923W        W55787   7.829   7.208   1.663 -0.0709 -0.0357  0.0285
54924W        W55788   7.488   3.763   3.328 -0.2035  0.1483  0.0312
54925W        W55789   7.090   5.574   0.723 -0.0243  0.0035 -0.0540
54926W        W55790   6.916   5.088   0.582  0.0304  0.3870  0.1299
54927W        W55791   8.856   1.814   2.472 -0.2178 -0.3038  0.1851
54928W        W55792   9.505   6.111   0.584 -0.4297 -0.0034 -0.0643
54929W        W55793   8.712   4.482  28.193  0.1132 -0.2750  0.1327
54930W        W55794   9.987   5.937   0.526 -0.0284  0.0797  0.0376
54931W        W55795   8.890   6.725   0.650 -0.2506  0.3031 -0.0726
54932W        W55796   8.761   5.256   2.570  0.2172 -0.1841  0.1869
54933W        W55797   8.167   4.793  28.891 -0.0266 -0.1521 -0.1287
54934W        W55798   9.715   4.736   3.153 -0.1453  0.0584  0.3171
54935W        W55799   9.225   4.620   3.979  0.1655 -0.0737  0.0552
54936W        W55800   8.854   4.511   3.105 -0.1201  0.3048  0.1834
54937W        W55801   7.372   2.281  27.500 -0.2349  0.0773  0.0778
54938W        W55802   7.688   4.940   5.102  0.1480  0.1341  0.2677
54939W        W55803  10.384   2.976  28.144  0.0185  0.1803  0.1832
54940W        W55804  11.376   2.900   2.029 -0.0418  0.1904 -0.2397
54941W        W55805  10.476   7.732  28.319 -0.0531  0.0047  0.1308
54942W        W55806   7.946   5.689   2.009  0.1262  0.1952 -0.0024
54943W        W55807   7.312   6.046   0.733  0.1174 -0.1903  0.5127
54944W        W55808   9.642   3.489  28.495 -0.0486  0.2638  0.2586
54945W        W55809  10.133   1.976   0.002  0.1097 -0.2051  0.0862
54946W        W55810  12.698   3.086  26.856 -0.3042  0.1133  0.1020
54947W        W55811   7.971   8.531   1.680  0.0217 -0.1889  0.0714
54948W        W55812   8.888   5.873   1.042 -0.0692  0.2854  0.2487
54949W        W55813   8.125   4.597   0.255 -0.2477 -0.0337  0.3089
54950W        W55814  10.088   5.839   2.519 -0.2429  0.0511  0.1000
54951W        W55815   7.718   8.303  28.986 -0.0430  0.2368  0.1019
54952W        W55816   6.065   4.073   1.752 -0.1418 -0.4599  0.0701
54953W        W55817   6.500   4.029   1.516 -0.1712  0.2844  0.0788
54954W        W55818  12.279   8.085   0.704  0.4589 -0.2009  0.0107
54955W        W55819  10.676   4.313   4.259 -0.1165  0.0455  0.0655
54956W        W55820   6.116   5.462   2.566 -0.0496  0.3816 -0.0921
54957W        W55821   8.174   5.051   2.653 -0.1490 -0.1421  0.0983
54958W        W55822   6.694   2.547  27.535  0.0831  0.1082  0.3143
54959W        W55823   7.170   6.023   1.662 -0.2149  0.0607  0.0632
54960W        W55824  10.170   5.995   3.860  0.1312 -0.3477  0.2214
54961W        W55825   7.531   6.033   3.557  0.1384 -0.2440  0.1228
54962W        W55826  11.922   3.950   5.650  0.0364 -0.3551 -0.0084
54963W        W55827   9.462   6.807   1.648 -0.0660  0.0293  0.1852
54964W        W55828   7.935   8.995   2.841 -0.0700  0.0384  0.4104
54965W        W55829   9.076   4.962  28.016 -0.0522  0.1743  0.3420
54966W        W55830   9.565   6.499   3.353  0.2246  0.1167 -0.0662
54967W        W55831   7.402   4.051   6.154  0.0304  0.1791  0.0620
54968W        W55832   6.980   8.699   2.199 -0.1151 -0.1208  0.0164
54969W        W55833   8.438   1.810   0.627 -0.2882  0.0261  0.0312
54970W        W55834   7.053   5.848   1.134 -0.0507 -0.0857  0.0158
54971W        W55835   8.651   7.688   1.953  0.1375  0.0614 -0.1708
54972W        W55836   7.156   5.680   6.783  0.3652 -0.0086  0.3846
54973W        W55837   9.178   5.888   1.875 -0.2713 -0.1624 -0.0762
54974W        W55838   9.237   3.580   2.943  0.0873 -0.1433  0.1000
54975W        W55839   8.386   6.872   0.463  0.0028  0.2351 -0.0011
54976W        W55840   8.465   4.348  27.734 -0.1854  0.0569 -0.1458
54977W        W55841   7.860   6.666   8.856  0.1410 -0.1306  0.0598
54978W        W55842   8.598   6.251   7.917  0.0388 -0.2130 -0.2168
54979W        W55843  11.891   5.417   4.593  0.2037 -0.0342  0.0356
54980W        W55844   9.219   6.345   5.828 -0.2814 -0.3214 -0.0544
54981W        W55845   8.210   7.130   6.791  0.0090 -0.2360 -0.1971
54982W        W55846   9.675   5.475   5.417 -0.1467 -0.3213  0.0362
54983W        W55847   7.868   6.361   7.157  0.1058 -0.0733 -0.0523
54984W        W55848   7.394   8.082   4.283 -0.3454 -0.1058  0.2142
54985W        W55849   6.521   8.962   4.503  0.0219  0.2955 -0.0688
54986W        W55850   6.010   3.987   7.460  0.0348 -0.1878  0.0838
54987W        W55851   9.974   0.939   8.232 -0.0353 -0.0945  0.2102
54988W        W55852   7.390   5.351   4.887  0.0683 -0.2724  0.1911
54989W        W55853   9.210   5.631   4.177 -0.0546  0.1502  0.1076
54990W        W55854  12.320   3.825   7.219 -0.0602  0.0904 -0.0394
54991W        W55855   8.552   5.766   9.022  0.0821  0.0879  0.0576
54992W        W55856   7.052   6.055  10.519  0.2625  0.0100  0.0767
54993W        W55857   7.870   5.813   2.484 -0.2605 -0.5433 -0.5027
54994W        W55858   6.325   4.816   5.369 -0.0774  0.0291  0.0206
54995W        W55859  10.435   3.407   7.382 -0.0323  0.1398 -0.1418
54996W        W55860  10.816   5.469   6.994  0.2996 -0.2503  0.0690
54997W        W55861   8.704   4.884   5.944  0.1782 -0.2981 -0.2897
54998W        W55862  10.747   2.457   7.310 -0.4048  0.2604 -0.0710
54999W        W55863  10.250   9.193   5.996 -0.1868 -0.2352 -0.1775
55000W        W55864   5.754   6.431   9.691  0.0609  0.2712 -0.1764
55001W        W55865   7.328   4.801   3.245  0.0821  0.1537 -0.0639
55002W        W55866  12.313   6.188   6.830  0.1794 -0.0964  0.1037
55003W        W55867  12.399   3.722   6.305 -0.1803 -0.0666 -0.3898
55004W        W55868  10.831   7.534   4.023 -0.0236 -0.0192  0.3861
55005W        W55869   8.179   6.707   7.339 -0.0212  0.2290  0.0130
55006W        W55870   7.304   6.205   6.580  0.1119  0.0526  0.1299
55007W        W55871  10.072   6.241   3.417 -0.1373  0.0849 -0.0739
55008W        W55872  10.948   8.107   6.405  0.0146  0.0780 -0.1962
55009W        W55873   9.993   3.810   8.691  0.0253 -0.0981  0.0835
55010W        W55874  10.271   8.371   4.789  0.0313 -0.0022 -0.0963
55011W        W55875   7.354   3.679   8.770 -0.2563 -0.0043 -0.1769
55012W        W55876   9.643   6.815   5.601 -0.1541 -0.0011 -0.0813
55013W        W55877   6.841   5.590   6.275  0.0777  0.1957  0.1553
55014W        W55878   8.239   9.802   6.312 -0.0277 -0.3496 -0.2240
55015W        W55879  12.361   4.251   5.573  0.2054 -0.0524 -0.0050
55016W        W55880   9.637   6.292   6.240 -0.2462  0.1798  0.4856
55017W        W55881  10.528   3.106   5.133  0.0280 -0.3113  0.2277
55018W        W55882  12.070   6.224   7.274 -0.2235 -0.1228 -0.1814
55019W        W55883   8.489   4.602   4.322  0.0244 -0.0157  0.1142
55020W        W55884  10.893   4.090   3.120  0.3113 -0.0864 -0.2039
55021W        W55885   7.331   8.981   3.138  0.2513  0.1695 -0.1747
55022W        W55886   8.911   6.757   5.770 -0.1248 -0.3005 -0.2279
55023W        W55887   8.802   4.038   7.254  0.1609 -0.0560  0.0409
55024W        W55888  11.862   6.615   4.365  0.0249 -0.1643 -0.1097
55025W        W55889   8.577   4.022   5.162  0.3869 -0.1874  0.0482
55026W        W55890  10.756   4.536   2.867  0.0003 -0.0217 -0.1665
55027W        W55891   7.566   8.149   7.199  0.1302 -0.0831  0.2346
55028W        W55892   8.918   5.700   6.819 -0.2175  0.2457  0.0642
55029W        W55893  10.125   9.324   5.518 -0.0160 -0.4505 -0.4131
55030W        W55894   8.816   6.668   4.557  0.5297 -0.1479 -0.0923
55031W        W55895   8.755   4.811   7.948  0.0073 -0.1735 -0.0086
55032W        W55896   9.097   7.735   4.810 -0.3094 -0.0589 -0.2034
55033W        W55897   7.943   2.888   4.073  0.0304  0.0195 -0.1443
55034W        W55898   6.301   6.001   6.837  0.2755 -0.1507 -0.0738
55035W        W55899   9.039   7.360   6.427 -0.0106 -0.0089  0.1221
55036W        W55900   8.636   6.155   3.121  0.0253 -0.2495 -0.0303
55037W        W55901   9.452   4.510   2.818  0.1955 -0.1093 -0.1202
55038W        W55902   7.946   5.588   5.819  0.1134 -0.0534 -0.1916
55039W        W55903   9.282   7.195   5.780  0.0128 -0.1580  0.0274
55040W        W55904   5.679   4.851   5.921  0.0579  0.1443 -0.0861
55041W        W55905   7.887   4.387   7.021  0.1343  0.1264 -0.1112
55042W        W55906  10.912   1.588   4.254 -0.4573  0.3001 -0.1958
55043W        W55907   7.864   4.254   6.048  0.1557 -0.0782  0.0882
55044W        W55908   6.698   6.489   2.716 -0.0078  0.2334  0.2813
55045W        W55909   7.059   5.581   2.022 -0.0091 -0.3415 -0.2947
55046W        W55910   6.415   8.200   6.857 -0.4138  0.2580  0.0334
55047W        W55911   8.325   6.801   7.946  0.0442 -0.1780  0.2678
55048W        W55912   9.959   5.494   2.138  0.0910 -0.0321 -0.1093
55049W        W55913  11.205   6.227   6.346  0.0637 -0.3035  0.0372
55050W        W55914  12.027   6.882   6.521 -0.0566  0.1046  0.1425
55051W        W55915   9.380   7.163   3.780  0.0866 -0.2613 -0.4859
55052W        W55916   9.098   5.803   9.717  0.0101  0.0851  0.0108
55053W        W55917   4.909   2.005   4.284 -0.1422 -0.0930  0.1722
55054W        W55918   7.926   6.125   5.799  0.2796  0.0922  0.3902
55055W        W55919   8.481   5.367   5.716 -0.0151 -0.1559 -0.3426
55056W        W55920   9.640   4.970   5.313 -0.0056 -0.0244 -0.1301
55057W        W55921   7.848   3.377   8.759  0.1836  0.0109 -0.1315
55058W        W55922   7.951   5.223   7.677 -0.1693 -0.3646 -0.1909
55059W        W55923   6.688   5.035   7.021  0.1152  0.1632  0.1473
55060W        W55924  10.993   1.957   6.999  0.2736 -0.1917 -0.0126
55061W        W55925   7.652   5.943   8.351  0.1424 -0.0860 -0.2615
55062W        W55926  10.987   3.867   4.144 -0.1319  0.0171 -0.1646
55063W        W55927  12.069   5.345   7.090  0.1702  0.2372 -0.3705
55064W        W55928  11.654   3.886   7.493  0.0131  0.2693 -0.0414
55065W        W55929   9.990   4.725   7.048  0.0657 -0.1413 -0.2767
55066W        W55930   9.958   6.134   4.388  0.0344 -0.0147  0.2712
55067W        W55931   9.572   4.009   4.272  0.2283  0.2800 -0.1215
55068W        W55932  10.212   5.032   6.409 -0.3131 -0.1538  0.0409
55069W        W55933   8.228   6.217   6.358  0.2777  0.0422  0.0676
55070W        W55934   9.335   3.145   3.608 -0.1445 -0.0805 -0.0252
55071W        W55935   9.792   5.157   6.801  0.0262 -0.1090 -0.1724
55072W        W55936  10.709   5.054   2.993 -0.2968  0.0330  0.1100
55073W        W55937  13.515   7.328   5.417  0.2345  0.1881 -0.1399
55074W        W55938   5.713   5.573   8.326  0.2128  0.0483  0.1536
55075W        W55939   6.090   3.750   4.743  0.1368 -0.0394 -0.1660
55076W        W55940  10.979   5.313   3.490 -0.2467 -0.0950 -0.1168
55077W        W55941  11.093   6.165   3.744 -0.1820 -0.2046 -0.0245
55078W        W55942   5.657   4.760   4.152 -0.0016 -0.2041 -0.0323
55079W        W55943   7.261   1.163   2.362 -0.1290  0.3212  0.2483
55080W        W55944  11.698   8.809   6.988 -0.4405  0.0269 -0.2402
55081W        W55945  12.743   5.672   6.401  0.0526 -0.4154  0.0744
55082W        W55946   8.043   5.848   7.955 -0.1044 -0.1513 -0.1069
55083W        W55947   9.443   6.864   4.162  0.1851 -0.0429 -0.2578
55084W        W55948   9.932   6.161   9.129 -0.0381 -0.1398 -0.1169
55085W        W55949  10.520   3.180   5.642 -0.2052 -0.0945  0.3455
55086W        W55950   6.791   6.153   6.286 -0.2004  0.2422 -0.3173
55087W        W55951   7.804   4.169   5.500 -0.0870 -0.2201  0.0904
55088W        W55952   6.260   4.282   7.172  0.0516 -0.0314  0.0118
55089W        W55953  11.215   5.016   4.541 -0.0170  0.1788  0.0324
55090W        W55954   9.426   7.309   4.305 -0.1323 -0.0367  0.2239
55091W        W55955  11.102   5.368   1.984  0.1964  0.2460  0.1602
55092W        W55956   8.902   6.183   6.749  0.0428  0.3042  0.1655
55093W        W55957  11.731   1.780   5.592 -0.0385 -0.2233 -0.3211
55094W        W55958   7.076   4.655   7.004 -0.0334 -0.1727 -0.0259
55095W        W55959   9.499   3.516   4.193  0.1628  0.1209 -0.0862
55096W        W55960  10.980   4.432   3.864  0.0972 -0.0830  0.3328
55097W        W55961  11.605   7.181   3.113 -0.0107  0.2464 -0.1154
55098W        W55962   8.983   7.244   2.501 -0.2394 -0.0666 -0.1521
55099W        W55963   8.466   3.160   7.292 -0.1167  0.0988 -0.1698
55100W        W55964  11.853   7.230   3.522  0.1909 -0.0468  0.1593
55101W        W55965   9.214   4.648   5.098 -0.1317 -0.1192 -0.0613
55102W        W55966   9.486   5.531   4.563  0.2226 -0.1712  0.0176
55103W        W55967   6.115   2.782   5.780 -0.0730 -0.2374 -0.4065
55104W        W55968  12.955   4.885   6.559 -0.5455 -0.2249 -0.0901
55105W        W55969  11.094   5.629   5.667 -0.1641 -0.2134 -0.2414
55106W        W55970   4.737   8.894   6.678 -0.0892  0.0254  0.1464
55107W        W55971   6.520   5.176   7.507 -0.0181  0.3459  0.0101
55108W        W55972   9.647   2.823   6.162 -0.1230  0.0530  0.2757
55109W        W55973   8.672   9.355   4.969  0.2357  0.0755 -0.0642
55110W        W55974   7.875   5.883   6.199  0.1370 -0.0230  0.0510
55111W        W55975  11.642   5.847   4.820  0.2038  0.1835 -0.2796
55112W        W55976   7.597   5.434   6.133  0.1134 -0.0121 -0.1282
55113W        W55977   7.023   6.781   4.519  0.1694  0.2451 -0.1371
55114W        W55978  12.613   2.955   3.645  0.1425 -0.0110  0.1397
55115W        W55979   9.500   8.189   3.461  0.2393 -0.0674 -0.0256
55116W        W55980   7.349   7.170   4.610  0.1287 -0.1328 -0.0908
55117W        W55981   8.689   5.481   5.251 -0.1974 -0.0323 -0.0239
55118W        W55982   8.947   5.007   8.367 -0.2016  0.0278 -0.0125
55119W        W55983   8.997   7.048   2.980 -0.0280  0.3189  0.2052
55120W        W55984   9.163   5.254   8.810  0.0868  0.2117 -0.1823
55121W        W55985   9.793   3.320   6.813  0.0347 -0.3213  0.0021
55122W        W55986   8.693   4.146   4.659  0.0040 -0.0886  0.1359
55123W        W55987  11.925   4.091   5.183 -0.3199  0.1742 -0.0291
55124W        W55988  10.636   6.383   6.141 -0.2257  0.3147 -0.0340
55125W        W55989   7.421   7.361   5.455 -0.1473  0.0153 -0.0797
55126W        W55990   7.228   5.316   6.431 -0.3924 -0.0458 -0.0694
55127W        W55991  13.562   6.629   6.097  0.0345  0.6671  0.1460
55128W        W55992   8.959   2.292   4.980  0.1051  0.3008  0.0920
55129W        W55993   8.054   7.169   6.239  0.1437  0.5492 -0.0337
55130W        W55994   8.466   5.762   3.331 -0.1381 -0.2927 -0.1047
55131W        W55995   9.584   7.514   6.617  0.3033 -0.2787 -0.0678
55132W        W55996  10.880   2.047   5.217 -0.2263 -0.0366 -0.1636
55133W        W55997   6.946   7.455   7.334 -0.0426 -0.1932 -0.1598
55134W        W55998   6.327   6.272   1.963 -0.0141 -0.2170  0.2735
55135W        W55999   6.691   4.148   6.293 -0.1495 -0.0566 -0.0402
55136W        W56000   8.676   4.439   5.720  0.0454 -0.0716  0.0241
55137W        W56001   9.248   4.239   4.605 -0.1690  0.1188  0.0803
55138W        W56002   8.741   7.236   6.074 -0.1445 -0.0090 -0.1079
55139W        W56003  10.420   7.098   4.074 -0.1135 -0.0313  0.1849
55140W        W56004   8.371   8.160   5.762  0.1638  0.1074 -0.1682
55141W        W56005  10.929   5.944   8.809 -0.1052  0.0143  0.1747
55142W        W56006  11.194   5.019   6.622 -0.3348  0.3093  0.0733
55143W        W56007   9.358   5.061   4.180 -0.0998 -0.1665 -0.2863
55144W        W56008   7.669   8.511   3.423 -0.0461 -0.1252  0.1865
55145W        W56009   9.637   9.812   8.449 -0.1621  0.2607  0.0939
55146W        W56010   9.413   6.323   1.472 -0.2558 -0.3218 -0.0266
55147W        W56011  10.082   5.481   7.288 -0.1150 -0.2957 -0.0498
55148W        W56012  10.560   5.529   3.883  0.0371  0.1790  0.3581
55149W        W56013   9.471   3.738   4.864  0.1444 -0.1699  0.0154
55150W        W56014  10.228   2.454   4.645  0.3050  0.2514  0.1997
55151W        W56015   8.411   1.888   5.347 -0.1756 -0.2126 -0.2370
55152W        W56016  10.324   5.698   0.821 -0.2392  0.0220 -0.2112
55153W        W56017   9.404   6.141   3.908 -0.1451  0.0657  0.0159
55154W        W56018   6.349   6.070   5.916 -0.0507 -0.0268  0.1556
55155W        W56019   6.651   7.106   2.533 -0.1300  0.3563 -0.1575
55156W        W56020   9.631   4.232   8.742 -0.0448  0.2479 -0.1814
55157W        W56021   6.104   7.934   2.894  0.0618 -0.0289  0.2938
55158W        W56022  10.168   7.916   1.796 -0.1609  0.1841  0.0784
55159W        W56023   8.407   5.318   6.860 -0.0476 -0.1158  0.0549
55160W        W56024   8.969   2.036   5.454  0.2072 -0.0007 -0.1889
55161W        W56025   8.960   4.563   4.425  0.2039  0.1483  0.2782
55162W        W56026  10.686   5.103   9.501 -0.0122  0.1479 -0.1987
55163W        W56027   9.649   4.005   5.609 -0.1957  0.1961  0.3076
55164W        W56028   6.137   4.307   3.438 -0.0626  0.2354 -0.0537
55165W        W56029   9.571   6.801   6.075 -0.1519 -0.1807  0.1055
55166W        W56030   7.912   7.367   7.129 -0.0685 -0.2279 -0.1846
55167W        W56031   4.522   8.532   4.655  0.3267 -0.0406 -0.1789
55168W        W56032   4.305   7.317   4.444  0.0181 -0.0734  0.1965
55169W        W56033   9.384   5.988   6.805  0.0277  0.0224 -0.1862
55170W        W56034   8.077   3.279   5.843  0.3819  0.0127 -0.2790
55171W        W56035  10.091   3.771   2.955 -0.2523 -0.0553 -0.1578
55172W        W56036   7.144   4.960   6.090  0.2859 -0.0886  0.1633
55173W        W56037  10.985   3.312   6.452  0.4177 -0.1583  0.0918
55174W        W56038   8.085   4.257   7.722  0.0652 -0.1357  0.2376
55175W        W56039   6.839   4.183   5.415  0.2784  0.0727  0.1919
55176W        W56040  11.918   0.460   4.528 -0.1216 -0.2447 -0.2020
55177W        W56041   6.660   4.166   3.238 -0.2490  0.0150  0.1957
55178W        W56042  12.476   4.548   6.822  0.3625 -0.0641  0.1413
55179W        W56043  10.018   5.516   3.816  0.1477  0.0057 -0.0465
55180W        W56044   7.508   6.855   6.096 -0.0353  0.0721 -0.0192
55181W        W56045   8.744   6.322   5.539 -0.2019 -0.0729  0.0012
55182W        W56046   7.020   4.766   4.841 -0.1621  0.2842 -0.0444
55183W        W56047   6.872   8.151   6.148  0.0253 -0.2643 -0.2474
55184W        W56048   7.663   9.495   5.729 -0.4609 -0.0198 -0.0276
55185W        W56049   7.157   6.557   5.328 -0.1310  0.1475  0.2719
55186W        W56050   9.780   7.145   6.941 -0.0690  0.1566  0.1977
55187W        W56051   8.267   3.312   6.853  0.0662 -0.1457  0.0505
55188W        W56052   6.323   5.576   8.472  0.0978 -0.3890 -0.3418
55189W        W56053   5.411   5.573   9.500 -0.3115 -0.2757  0.1177
55190W        W56054   8.690   6.296   7.321 -0.0564 -0.0222  0.3057
55191W        W56055  12.170   4.205   6.002 -0.0371 -0.0340 -0.0906
55192W        W56056  11.973   5.051   4.914 -0.0075  0.0335  0.0925
55193W        W56057   8.391   4.003   6.098 -0.0316 -0.3017 -0.2746
55194W        W56058   8.599   5.113   3.551 -0.1322  0.1829 -0.0799
55195W        W56059  11.858   3.586   7.840 -0.0332 -0.5810  0.0378
55196W        W56060   9.866   7.522   4.581 -0.0138  0.0132 -0.1972
55197W        W56061  10.877   6.041   7.224 -0.1748 -0.0876  0.1366
55198W        W56062  11.103   7.169   6.873 -0.1838 -0.1425  0.2037
55199W        W56063   9.704   8.218   5.388 -0.0911  0.4501  0.1623
55200W        W56064   6.496   3.098   5.955  0.3946  0.1342 -0.0445
55201W        W56065   7.578   5.414   1.789 -0.1276 -0.0216  0.1630
55202W        W56066   6.120   6.297   7.339  0.3341 -0.0388  0.1385
55203W        W56067   6.756   4.924   7.871 -0.0111  0.4150 -0.2822
55204W        W56068  10.705   4.887   3.769 -0.1254  0.1533 -0.0276
55205W        W56069  11.240   6.648   3.725 -0.2237 -0.2085  0.1949
55206W        W56070  10.225   5.393   4.664  0.2939 -0.0532  0.1387
55207W        W56071   8.474   5.254   8.164  0.0291  0.2196 -0.0649
55208W        W56072   8.957   4.703   6.516 -0.0942 -0.0749  0.2376
55209W        W56073   7.598   6.976   3.589  0.2253 -0.3385 -0.0529
55210W        W56074   7.838   3.849   6.377  0.0888 -0.2195  0.0927
55211W        W56075  10.155   5.004   7.453 -0.0150  0.0918  0.3654
55212W        W56076   7.514   4.626   6.201  0.1869 -0.1902  0.2065
55213W        W56077  10.502   3.782   4.246 -0.0724  0.0810 -0.0258
55214W        W56078  10.645   2.643   4.941  0.1902 -0.1289 -0.2398
55215W        W56079  10.953   5.673   4.227  0.1193 -0.1936 -0.2680
55216W        W56080  10.221   6.902   6.808 -0.0308  0.1895  0.2177
55217W        W56081   9.246   3.696   3.416 -0.0599  0.2250 -0.3402
55218W        W56082   7.508   5.475   7.832  0.1259  0.0990  0.1899
55219W        W56083  12.030   4.520   6.484 -0.1011 -0.1586  0.2783
55220W        W56084   6.496   5.295   8.108 -0.0826  0.1569 -0.1098
55221W        W56085   8.612   7.047   6.563  0.0565  0.0616  0.1413
55222W        W56086   8.796   5.248   4.433 -0.0856  0.0980 -0.3999
55223W        W56087  10.087   3.694   5.105  0.0480  0.0629 -0.4859
55224W        W56088   7.413   4.232   7.153 -0.0481  0.0328 -0.1175
55225W        W56089   9.443   5.801   5.037 -0.1569 -0.0069  0.2242
55226W        W56090   6.666   3.666   4.608 -0.2430  0.0051  0.3761
55227W        W56091   8.784   6.977   5.224  0.3713 -0.2217  0.3264
55228W        W56092   9.936   7.716   6.036  0.0854 -0.4005  0.0950
55229W        W56093   9.539   6.656   7.398 -0.1834 -0.0095 -0.2518
55230W        W56094   7.534   5.808   5.754 -0.0348 -0.2156  0.1370
55231W        W56095   9.016   3.889   4.949  0.3501 -0.0886 -0.0546
55232W        W56096   9.846   5.762   5.884  0.1314 -0.2193  0.0025
55233W        W56097   9.418   5.125   2.848 -0.0324 -0.0738 -0.0679
55234W        W56098  11.508   4.315   5.563 -0.0087  0.1082 -0.0550
55235W        W56099   8.088   7.002   3.432 -0.0959 -0.1978 -0.0564
55236W        W56100  10.191   3.142   3.470  0.0101 -0.3908 -0.0105
55237W        W56101   4.710   3.410   3.897  0.0584 -0.5315 -0.2803
55238W        W56102   7.511   7.199   8.839  0.0378  0.3650  0.3330
55239W        W56103   9.678   4.590   4.920 -0.1026  0.0333 -0.1831
55240W        W56104  12.525   4.167   6.499 -0.0412  0.1050 -0.1802
55241W        W56105   9.763   8.485   4.906 -0.2698  0.1743  0.0574
55242W        W56106   8.191   7.532   4.260 -0.1506 -0.1526  0.0838
55243W        W56107   9.000   4.042   3.052 -0.0039 -0.0302 -0.0807
55244W        W56108   9.177   5.601   2.758 -0.0948  0.1280 -0.1688
55245W        W56109   6.244   4.813   7.349 -0.1247 -0.2083 -0.2305
55246W        W56110  11.676   4.235   2.766  0.0600 -0.1387  0.1327
55247W        W56111   9.193   3.346   5.264  0.0311  0.0604  0.0384
55248W        W56112   8.024   7.675   6.109 -0.1874  0.1885 -0.2007
55249W        W56113   9.170   6.431   7.659 -0.1368 -0.3890  0.0911
55250W        W56114   9.215   4.247   8.530  0.1051 -0.1030  0.0384
55251W        W56115   9.957   5.514   5.010  0.1521  0.2984 -0.0372
55252W        W56116   9.716   5.646   7.564  0.0617 -0.0961 -0.2512
55253W        W56117   8.093   2.228   5.602 -0.0679  0.1109  0.0910
55254W        W56118   7.838   5.634   7.422 -0.3346 -0.0947  0.0034
55255W        W56119   9.439   6.523   6.675 -0.0719 -0.1028 -0.0259
55256W        W56120   5.163   6.775   5.180 -0.0781 -0.2060  0.0267
55257W        W56121   8.851   8.775   4.720  0.2848  0.0940 -0.0067
55258W        W56122   7.303   3.313   5.379  0.3748  0.1612 -0.1798
55259W        W56123   6.371   5.224   6.510  0.0340 -0.3211  0.1436
55260W        W56124   7.896   7.612   7.632  0.0053 -0.2001  0.0479
55261W        W56125   9.883   5.334   4.259  0.2525 -0.0920  0.1330
55262W        W56126  10.100   4.529   6.603  0.1544 -0.0410  0.4903
55263W        W56127  10.314   5.076   4.133 -0.3377 -0.1579  0.2193
55264W        W56128   8.549   7.574   6.451 -0.0541 -0.0417 -0.0005
55265W        W56129  10.770   3.985   4.683  0.0039  0.1017  0.0885
55266W        W56130   8.425   5.829   5.983 -0.0405  0.0027  0.0523
55267W        W56131   6.930   6.567   7.883 -0.2067 -0.1206  0.1470
55268W        W56132   9.967   4.632   5.515 -0.0281  0.1493 -0.1336
55269W        W56133  10.579   4.904   4.785 -0.4491 -0.0585  0.3263
55270W        W56134   6.294   5.360   5.336 -0.0015 -0.1316  0.0148
55271W        W56135   9.373   4.381   6.424  0.2866  0.2136 -0.2707
55272W        W56136  10.616   3.425   4.733  0.4148  0.0946 -0.0969
55273W        W56137   8.747   3.947   5.738 -0.0220 -0.0856  0.0445
55274W        W56138  11.651   5.508   6.836  0.0227  0.0416 -0.2320
55275W        W56139  15.365   5.442   6.962  0.0659 -0.0458 -0.1299
55276W        W56140   8.864   8.142   6.595 -0.1534  0.0718 -0.0572
55277W        W56141   6.720   5.498   3.729 -0.0851  0.4462  0.1287
55278W        W56142   9.136   5.787   8.769  0.0402 -0.3235  0.3619
55279W        W56143   7.623   6.047   9.476 -0.1245  0.1530 -0.0563
55280W        W56144  11.933   4.671   4.482  0.0786  0.0973 -0.0142
55281W        W56145   8.967   7.021   3.575 -0.1910  0.1443  0.2376
55282W        W56146   6.670   6.071   4.405 -0.2146  0.2001  0.1547
55283W        W56147  10.469   4.046   3.779 -0.0200  0.2614 -0.2494
55284W        W56148   4.995   2.915   6.041  0.1511 -0.2192 -0.0180
55285W        W56149   6.739   3.377   7.205 -0.0149  0.0173 -0.3105
55286W        W56150   5.351   7.329   6.300 -0.1034 -0.1840  0.3095
55287W        W56151   9.491   4.149   5.125 -0.2576  0.1153 -0.0121
55288W        W56152   9.371   6.100   9.181 -0.1819 -0.0667  0.1605
55289W        W56153   8.839   7.206   4.762 -0.3023  0.2605  0.1485
55290W        W56154  11.153   5.878   4.631 -0.1102  0.2081 -0.1093
55291W        W56155   5.433   4.942   5.467  0.0169 -0.0072 -0.2177
55292W        W56156   6.510   5.627   8.974 -0.2265  0.0995 -0.0476
55293W        W56157   8.097   4.612   6.413  0.0533 -0.1197  0.1572
55294W        W56158  11.102   3.594   4.567  0.0729  0.0871  0.3091
55295W        W56159  11.034   7.565   7.316 -0.3350  0.0313  0.2407
55296W        W56160   8.065   4.959   5.494 -0.3058  0.1612 -0.2666
55297W        W56161   8.995   5.853   5.308 -0.2613  0.4034  0.0475
55298W        W56162   9.922   5.313   3.165 -0.0070 -0.0455  0.0895
55299W        W56163   4.921   6.435   6.356 -0.2466 -0.1513 -0.0616
55300W        W56164   8.770   5.288   9.090  0.1501  0.1411  0.0667
55301W        W56165   8.634   4.494   5.090  0.0727 -0.2919  0.1977
55302W        W56166   7.141   7.333   7.806  0.1398  0.3812  0.1540
55303W        W56167   9.482   3.856   7.998  0.0650 -0.1247 -0.2206
55304W        W56168   6.103   5.883   4.488 -0.1077 -0.0178 -0.2277
55305W        W56169   9.662   4.245   3.789  0.0149 -0.2185  0.0646
55306W        W56170   8.702   5.007   5.384 -0.1434 -0.1130  0.3393
55307W        W56171   9.945   3.632   5.861  0.1699  0.2094  0.1431
55308W        W56172  11.426   3.777   4.905 -0.0818  0.1238 -0.1113
55309W        W56173  14.994   6.744   8.960 -0.0282  0.0796  0.0944
55310W        W56174   9.618   5.829   6.418 -0.1722 -0.1139 -0.0890
55311W        W56175  11.107   5.510   6.601 -0.0897  0.3585  0.1317
55312W        W56176   9.849   4.147   4.641 -0.0411 -0.2116  0.0667
55313W        W56177   7.662   9.141   6.776  0.0423 -0.0372  0.3084
55314W        W56178  12.739   7.391   4.379  0.0526 -0.1723 -0.0928
55315W        W56179  10.446   4.498   5.360 -0.1037  0.0859 -0.0388
55316W        W56180   6.580   2.706   7.258  0.0044 -0.0600 -0.2823
55317W        W56181   9.240   6.347   4.920 -0.0540 -0.2098  0.1630
55318W        W56182   9.519   4.489   5.471 -0.2954 -0.1574 -0.1103
55319W        W56183   8.067   3.810   4.965 -0.1781  0.1223 -0.1812
55320W        W56184   5.637   6.489   1.501 -0.2928 -0.1559 -0.0596
55321W        W56185   8.660   8.422   5.196 -0.1369 -0.0142  0.2710
55322W        W56186   6.553   7.016   4.653 -0.1966  0.0442 -0.4368
55323W        W56187   7.856   4.749   4.215  0.1351  0.0290 -0.2038
55324W        W56188   4.402   3.248   4.403 -0.0822  0.0871  0.2820
55325W        W56189   9.455   6.023   4.486 -0.0403 -0.1287  0.1101
55326W        W56190   5.880   1.246   6.855  0.1792  0.2509  0.2709
55327W        W56191  10.935   4.964   5.616 -0.0460  0.3134 -0.0362
55328W        W56192   7.815   4.262   3.338  0.1356  0.2160  0.1215
55329W        W56193  11.399   5.317   5.453 -0.0788  0.0655 -0.0779
55330W        W56194   7.269   6.736   7.282  0.2238  0.0081 -0.2120
55331W        W56195   8.089   5.183   3.450 -0.1649  0.1223 -0.0171
55332W        W56196   9.180   3.789   5.482  0.3166 -0.0913  0.1689
55333W        W56197   6.636  10.098   2.514 -0.1417  0.2497  0.3671
55334W        W56198   8.648   5.344   6.225  0.2296  0.3429 -0.0025
55335W        W56199   8.402   4.320   7.267  0.0442  0.1710 -0.0093
55336W        W56200   6.331   6.295   3.015 -0.1943 -0.2168  0.0205
55337W        W56201   9.523   4.877   3.639  0.2674 -0.0028  0.3948
55338W        W56202  10.543   5.930   5.885  0.0849 -0.1979 -0.2308
55339W        W56203   8.214   8.846   6.910  0.0554  0.0391  0.0763
55340W        W56204  10.007   4.730   6.087 -0.3017 -0.1022 -0.2181
55341W        W56205   9.121   7.412   5.199  0.0161 -0.0470 -0.0541
55342W        W56206  12.250   7.013   8.533  0.1519 -0.0875 -0.1524
55343W        W56207   9.202   6.483   4.251  0.0612 -0.1415 -0.0517
55344W        W56208   9.220   5.041   4.666  0.1016  0.0338 -0.0654
55345W        W56209   9.681   2.794   5.268 -0.1507  0.2061 -0.0837
55346W        W56210  11.126   5.157   3.998 -0.0787 -0.2960  0.0522
55347W        W56211   8.756   4.923   4.068 -0.1592  0.3812  0.2362
55348W        W56212  10.300   5.349   2.772  0.1911  0.2080  0.0471
55349W        W56213   7.383   4.455   0.672  0.0193 -0.2392  0.0442
55350W        W56214  10.605   5.337   5.653  0.1214 -0.0616  0.2567
55351W        W56215  10.651   7.996   2.690  0.4094 -0.1161  0.1019
55352W        W56216   6.641   4.201   6.806 -0.0510 -0.3361 -0.2960
55353W        W56217   7.994   6.652   6.277 -0.1450 -0.4938  0.0611
55354W        W56218   9.566   6.772   5.043 -0.0596  0.1674  0.1123
55355W        W56219   8.855   3.542   7.146 -0.1797 -0.0104 -0.1606
55356W        W56220   6.381   4.622   5.837  0.1640  0.1514 -0.1923
55357W        W56221   8.569   7.174   8.815  0.0476 -0.1139  0.0533
55358W        W56222   8.199   5.066   6.000 -0.0805  0.2470  0.4323
55359W        W56223   4.963   5.443   5.599  0.1470  0.0814  0.2753
55360W        W56224   9.322   7.888   5.214  0.1303  0.0229 -0.1169
55361W        W56225  10.053   6.652   4.209  0.0403 -0.4210  0.0730
55362W        W56226  11.278   5.963   6.919 -0.0926  0.0504  0.0925
55363W        W56227   9.728   5.874   3.540  0.1264 -0.0092  0.0995
55364W        W56228  10.379   5.367   3.348  0.4005 -0.0354  0.1115
55365W        W56229   7.084   7.128   6.452  0.1852 -0.2327 -0.2460
55366W        W56230  11.832   5.481   5.773  0.0538  0.1042  0.2547
55367W        W56231  11.599   6.269   7.258 -0.2871 -0.0163 -0.1657
55368W        W56232   8.907   5.876   5.793  0.0126  0.0147 -0.0004
55369W        W56233   9.982   6.390   2.373 -0.1634 -0.4439 -0.1391
55370W        W56234   9.417   8.093   5.916  0.0229 -0.0318  0.1729
55371W        W56235   7.540   7.661   7.064  0.3835 -0.0916 -0.1386
55372W        W56236   8.704   4.017   8.486 -0.1773 -0.4004 -0.2300
55373W        W56237   6.978   8.943   2.780  0.1319 -0.3235  0.3797
55374W        W56238  10.076   5.559   6.691 -0.3676 -0.0330  0.2000
55375W        W56239   8.571   6.769   6.993  0.0356  0.0987  0.0489
55376W        W56240   9.178   7.938   1.844 -0.2178  0.0792 -0.1086
55377W        W56241   6.547   5.178  10.197  0.4653 -0.0293 -0.2879
55378W        W56242   8.890   3.398  11.790 -0.3202  0.0773  0.2431
55379W        W56243   7.815   5.457   9.516  0.1342  0.4114 -0.0677
55380W        W56244  11.705   4.635  10.844  0.1049  0.0058 -0.0008
55381W        W56245  10.054   7.832   6.559  0.1242  0.0490 -0.2298
55382W        W56246  11.352   7.234  10.037  0.0796  0.2831 -0.0024
55383W        W56247  10.866   5.503   8.191  0.4844  0.1478 -0.3622
55384W        W56248   9.547   3.113   9.565 -0.2291 -0.0575 -0.0196
55385W        W56249   4.964   8.165   9.044 -0.1805  0.0575 -0.2766
55386W        W56250   7.530   3.559  11.145 -0.1940 -0.2291 -0.2447
55387W        W56251   7.116   2.907  10.619  0.4188 -0.0163 -0.0938
55388W        W56252  10.939   3.713  11.053 -0.0707 -0.1048 -0.0267
55389W        W56253   9.519   7.431   8.323 -0.0422 -0.2117 -0.1179
55390W        W56254   9.008   4.254  10.106  0.2080  0.0155 -0.1785
55391W        W56255   6.734   2.231   8.116 -0.2057  0.0855  0.2193
55392W        W56256   5.566   5.941   9.831 -0.1707  0.1050 -0.1145
55393W        W56257   8.517   9.330   7.425 -0.0679 -0.4346 -0.0962
55394W        W56258   8.645   3.187  10.744  0.0862 -0.1615  0.2002
55395W        W56259   7.031   5.627   8.899  0.0000 -0.0092 -0.0212
55396W        W56260  10.525   1.702   8.291  0.0393  0.1870 -0.1849
55397W        W56261  11.391   6.756  11.383  0.1836  0.2723  0.1483
55398W        W56262   8.757   5.892   8.477  0.2347  0.0899 -0.1225
55399W        W56263  11.051   5.418   7.572 -0.2168 -0.1062  0.1560
55400W        W56264   5.519   3.024  12.783 -0.2039 -0.4403 -0.1468
55401W        W56265   6.832   4.676   9.467 -0.4501 -0.2886 -0.3848
55402W        W56266   7.631   3.218  10.118 -0.4882  0.1633  0.1618
55403W        W56267  12.085   4.702  10.486  0.0383 -0.2660 -0.2133
55404W        W56268   5.658   7.503   7.643 -0.0389  0.0471 -0.0610
55405W        W56269   9.978   3.846   8.191 -0.1291 -0.1969 -0.0209
55406W        W56270   8.789   4.507   9.266  0.3428 -0.0851  0.0040
55407W        W56271  10.712   4.185   6.604 -0.2283 -0.0391  0.0084
55408W        W56272   9.195   4.059  12.770  0.0185 -0.3339  0.2142
55409W        W56273  10.600   6.170  12.445 -0.0047 -0.2893  0.1262
55410W        W56274   8.285   6.068   8.340  0.0673  0.0414  0.2635
55411W        W56275  10.470   6.241  11.310  0.0463  0.0178 -0.4027
55412W        W56276  12.015   5.241  11.543  0.3367  0.2201  0.2269
55413W        W56277   7.604   4.305  10.348  0.1402  0.0014 -0.1436
55414W        W56278  10.547   6.268   7.589 -0.2274 -0.0649 -0.0701
55415W        W56279   8.681   6.225   8.824 -0.3004 -0.0469 -0.2186
55416W        W56280  10.910   4.081   8.924 -0.0869  0.1265  0.0846
55417W        W56281  10.891   3.040   6.904 -0.3174  0.0445 -0.0136
55418W        W56282  11.352   2.397   9.018 -0.0722 -0.0796  0.2096
55419W        W56283   7.753   5.205   9.069 -0.0746  0.3119 -0.2164
55420W        W56284  12.085   4.309   7.372 -0.2144  0.1108 -0.0392
55421W        W56285   9.024   6.805   7.305 -0.1024 -0.3020 -0.2174
55422W        W56286   9.732   8.642   9.242  0.1689  0.0774 -0.1016
55423W        W56287   6.996   4.715   8.629 -0.0616 -0.2509  0.0956
55424W        W56288  12.314   3.500  11.498  0.0732 -0.1454 -0.0898
55425W        W56289   9.339   7.753   7.123  0.1652  0.0469 -0.1101
55426W        W56290  10.378   6.234   7.137  0.1207 -0.0821 -0.2065
55427W        W56291   9.736   7.203  10.138 -0.2269 -0.3075  0.0461
55428W        W56292   9.389   3.880  10.646  0.1499 -0.3199 -0.0075
55429W        W56293   7.887   8.394   9.678 -0.1412  0.0246  0.0787
55430W        W56294  11.052   7.484   8.336 -0.0757  0.1650 -0.0199
55431W        W56295   9.097   5.000   9.974 -0.2395 -0.0936 -0.1491
55432W        W56296   6.332   8.340   7.379 -0.0095  0.2818 -0.1758
55433W        W56297   6.785   3.182   9.848 -0.0127 -0.1394  0.0836
55434W        W56298  11.606   3.114   7.566 -0.0276  0.1644  0.0441
55435W        W56299   9.738   6.735   7.873 -0.0223  0.1639  0.0367
55436W        W56300   8.106   8.045   7.629 -0.0325 -0.0470 -0.0998
55437W        W56301  11.807   7.677   7.699 -0.0160 -0.2500 -0.0134
55438W        W56302   7.457   6.944  10.072  0.0290 -0.0472 -0.0051
55439W        W56303   9.653   5.056   9.953 -0.2628 -0.2843 -0.0580
55440W        W56304   7.518   3.160   8.237 -0.1027 -0.3525 -0.1002
55441W        W56305  10.708   5.019   6.647  0.3356 -0.0492 -0.1078
55442W        W56306   9.430   3.021   8.572 -0.2174  0.0984  0.1513
55443W        W56307   6.570   6.266   5.192  0.1086 -0.1230 -0.1597
55444W        W56308  10.053   5.970   8.283 -0.2235 -0.1867  0.0299
55445W        W56309   8.106   7.964   8.584  0.0195 -0.0347 -0.0108
55446W        W56310   6.560   7.118   8.566  0.2022 -0.0653 -0.0261
55447W        W56311  10.916   7.776   7.863 -0.0430  0.1328  0.1785
55448W        W56312   8.797   6.708  10.777  0.2892 -0.0909  0.0358
55449W        W56313  13.429   4.369  10.684  0.0815  0.0497  0.2362
55450W        W56314   9.627   4.724   9.492  0.1783  0.2713  0.3209
55451W        W56315  12.190   3.279   9.620  0.0333 -0.1477  0.3012
55452W        W56316   9.331   5.097  10.894 -0.1520 -0.0865  0.0710
55453W        W56317   6.005   5.629   6.729 -0.0729 -0.1979  0.1321
55454W        W56318   7.650   5.427  11.684  0.0618 -0.2021 -0.2863
55455W        W56319   9.408   4.715   7.272  0.1525  0.4388 -0.0532
55456W        W56320   9.331   5.597   6.022 -0.2471 -0.4160 -0.0699
55457W        W56321  11.687   3.944  10.209 -0.0576 -0.0445 -0.0844
55458W        W56322   6.269   5.698  12.598 -0.0951 -0.1627  0.2116
55459W        W56323   9.681   3.852   6.254  0.1257  0.0531 -0.0055
55460W        W56324   7.641   2.025   9.921  0.1123  0.0771 -0.1498
55461W        W56325  10.222   4.405   8.276 -0.3533  0.0555  0.3629
55462W        W56326   7.623   4.856   7.243  0.0402  0.0571  0.2330
55463W        W56327   9.851   5.855  11.469  0.2814 -0.1239  0.1297
55464W        W56328   8.449   4.884   9.340 -0.1904  0.3708 -0.0971
55465W        W56329   6.439   3.292  11.321  0.2328 -0.0882 -0.1635
55466W        W56330  10.745   3.204   8.313  0.1424  0.0689  0.2144
55467W        W56331  11.660   4.294   7.087 -0.0056  0.2675 -0.0422
55468W        W56332   9.400   4.708   8.754 -0.1868 -0.2180  0.0252
55469W        W56333   8.812   8.507   8.751 -0.4923  0.0457 -0.1098
55470W        W56334  11.160   4.185   6.916  0.0735 -0.0978 -0.0638
55471W        W56335   9.318   5.783  10.425 -0.4086  0.2084  0.2050
55472W        W56336  10.860   5.727   6.256  0.1783 -0.0412 -0.1628
55473W        W56337  12.190   4.674   9.308 -0.0271  0.0516  0.2602
55474W        W56338   6.923   8.057   9.069  0.1230 -0.0051 -0.2519
55475W        W56339   7.123   4.546   9.080  0.0814 -0.1644 -0.3027
55476W        W56340  11.685   4.611   8.942  0.1466  0.1100 -0.0403
55477W        W56341  12.232   5.456   8.407  0.1905  0.2234  0.0472
55478W        W56342   9.366   7.355   9.135  0.3571  0.1615  0.0553
55479W        W56343   9.832   4.292   6.124  0.1829  0.0595 -0.1221
55480W        W56344   9.844   6.456   8.290  0.1510 -0.0950 -0.0554
55481W        W56345  11.831   5.224   9.498  0.1981  0.0309  0.0110
55482W        W56346  10.603   4.482   9.199 -0.1912 -0.2425  0.0472
55483W        W56347   8.867   7.117   7.718 -0.1098  0.0281  0.0358
55484W        W56348   6.301   4.546  11.669  0.0206 -0.1557 -0.0953
55485W        W56349   8.303   0.347  10.640  0.2027  0.2822 -0.0959
55486W        W56350  10.427   6.782   9.713  0.0133 -0.0388 -0.0281
55487W        W56351   4.791   4.045  10.708  0.1159 -0.1237  0.0001
55488W        W56352  11.210  10.246  11.830  0.1162 -0.0469  0.2112
55489W        W56353  12.767   6.554   9.271  0.0805 -0.1516  0.3318
55490W        W56354   9.230   7.703   8.619  0.0229 -0.1942  0.2268
55491W        W56355  12.344   3.243   5.496 -0.3550 -0.1115  0.0463
55492W        W56356  10.466   4.589   6.909 -0.3445 -0.3517 -0.1503
55493W        W56357  11.195   2.283   9.735  0.1082  0.1517  0.1368
55494W        W56358  10.943   4.612   6.682 -0.0767  0.0953 -0.1360
55495W        W56359   8.200   5.854   9.720 -0.1673  0.1475  0.2290
55496W        W56360  11.459   4.182   8.837  0.2934 -0.1593 -0.0330
55497W        W56361  12.499   5.189   6.348 -0.2425 -0.0097 -0.0293
55498W        W56362  10.150   3.968   5.528 -0.0442  0.1005  0.4446
55499W        W56363  11.468   6.738   7.302  0.3252 -0.1250 -0.0544
55500W        W56364   9.950   6.535   6.575 -0.1154  0.0171  0.0162
55501W        W56365   8.909   8.322   9.319 -0.0987  0.2825  0.2599
55502W        W56366  11.315   4.039   9.965  0.0852 -0.1126  0.0401
55503W        W56367   6.885   4.346   8.311 -0.0039  0.1098 -0.0505
55504W        W56368  13.865   5.544  10.382 -0.2002  0.0582  0.1311
55505W        W56369  10.792   4.261  10.212  0.0431 -0.1212 -0.0019
55506W        W56370   8.551   8.903   6.558  0.0987 -0.2662  0.1805
55507W        W56371  10.178   7.841   9.717 -0.0682 -0.1837 -0.0413
55508W        W56372  10.923   4.419   7.321 -0.1764  0.0281 -0.0792
55509W        W56373   8.964   4.729  10.851 -0.0760 -0.3256 -0.0820
55510W        W56374  11.473   3.308   8.775  0.1840 -0.2883 -0.0359
55511W        W56375  12.186   3.817   8.138  0.0783  0.2183  0.2560
55512W        W56376   7.834   6.665  11.995 -0.0743  0.1096  0.0216
55513W        W56377  10.457   4.128   7.900  0.0311  0.0876 -0.1282
55514W        W56378   8.381   4.638  10.058 -0.1787 -0.0621 -0.1332
55515W        W56379   9.099   6.175  10.142 -0.3905  0.0962  0.3126
55516W        W56380  10.180   6.134  10.921  0.1212 -0.2444  0.0614
55517W        W56381   6.625   2.492   9.060 -0.0520 -0.2378 -0.0562
55518W        W56382   8.192   1.764   7.226 -0.1639 -0.0697 -0.1249
55519W        W56383  10.357   5.830   7.602 -0.1128 -0.0076 -0.1499
55520W        W56384   6.605   5.588   6.786  0.1003 -0.1755  0.1354
55521W        W56385   8.025   6.378   9.712 -0.3897  0.1984  0.2471
55522W        W56386  10.192   3.898   7.391 -0.0164 -0.3642 -0.2895
55523W        W56387  11.192   2.590   7.637 -0.1496  0.0048  0.2651
55524W        W56388  10.824   4.810   9.903 -0.0209  0.0256  0.1051
55525W        W56389  10.171   6.333   8.613  0.0374 -0.0890 -0.2225
55526W        W56390   9.667   6.219   9.622  0.0914 -0.3035  0.0728
55527W        W56391  12.172   4.621  11.188  0.0294  0.0983  0.1229
55528W        W56392   7.370   4.774   9.402 -0.4506  0.0662  0.0845
55529W        W56393   9.028   8.046   8.898 -0.0906  0.1288  0.1287
55530W        W56394   8.927   5.718   6.269 -0.1015 -0.0175 -0.0350
55531W        W56395   9.652   6.470   8.864  0.0464  0.2112  0.3388
55532W        W56396  10.550   2.803   8.604 -0.0311  0.1204 -0.2065
55533W        W56397   5.518   3.204  10.000  0.0416 -0.1073  0.0191
55534W        W56398  10.155   5.175   5.926  0.0346 -0.1835  0.0441
55535W        W56399   7.396   4.599   9.936  0.1436 -0.0285 -0.0553
55536W        W56400  12.042   5.432   6.469 -0.2473 -0.1794 -0.2372
55537W        W56401  10.758   3.012  10.017 -0.3221 -0.1235  0.3466
55538W        W56402  10.014   5.256  10.261  0.0551  0.2810 -0.2242
55539W        W56403  10.331   6.969  10.791  0.0534 -0.1552 -0.0654
55540W        W56404  10.359   2.587   9.884 -0.0911 -0.2018 -0.1448
55541W        W56405   8.971   5.410  11.064 -0.2451 -0.3419 -0.1393
55542W        W56406   7.153   3.679   7.869  0.2408 -0.2055  0.2790
55543W        W56407   8.543   6.243  11.133 -0.1108 -0.0131 -0.1525
55544W        W56408   5.095   7.966   7.433 -0.2625  0.0777 -0.0048
55545W        W56409   8.205   5.456  10.821  0.1825 -0.0362  0.2394
55546W        W56410   8.538   7.134   7.350  0.1322  0.2970  0.0355
55547W        W56411  11.928   7.018   7.035  0.0963 -0.0424  0.1581
55548W        W56412  10.106   5.069   8.263  0.1760 -0.4728 -0.0487
55549W        W56413   9.123   4.390   6.992 -0.1630 -0.3575 -0.0602
55550W        W56414  12.401   7.068   6.239  0.1112  0.1324 -0.1757
55551W        W56415   9.148   2.672   6.990 -0.0212 -0.1171  0.3326
55552W        W56416  12.023   4.635   6.962 -0.1625  0.5110  0.1824
55553W        W56417   8.578  11.322   9.918  0.2212  0.1205  0.0313
55554W        W56418   5.277   6.774   8.856  0.4775 -0.1790 -0.1788
55555W        W56419   6.265   6.409  10.454 -0.0652  0.0453  0.2155
55556W        W56420   9.307   4.672   8.256 -0.0847  0.0261  0.0830
55557W        W56421   9.710   5.121   8.849 -0.0685  0.3196 -0.0302
55558W        W56422   8.643   7.810  10.235 -0.2562  0.2204 -0.1021
55559W        W56423   8.116   5.381   6.384  0.0640 -0.2089  0.0893
55560W        W56424   9.049   6.304   8.292  0.3615 -0.2734  0.2346
55561W        W56425  11.243   6.010   7.537  0.1374 -0.2280  0.2179
55562W        W56426  12.688   6.762   8.396  0.0965  0.1026 -0.1483
55563W        W56427  12.230   4.786   7.361  0.1835  0.2126 -0.1756
55564W        W56428   5.245   5.400   6.661 -0.1575 -0.0670 -0.0352
55565W        W56429  11.782   2.631  10.574  0.1416 -0.0699 -0.0912
55566W        W56430   6.411   4.721  11.189 -0.2516 -0.1147 -0.1294
55567W        W56431   6.169   6.087   9.595 -0.3006 -0.0829  0.1264
55568W        W56432   6.867   5.724   9.418 -0.1336 -0.5912  0.1855
55569W        W56433   9.803   3.889  11.524  0.1077 -0.0336 -0.0556
55570W        W56434   9.962   4.037   9.813  0.1505  0.0214 -0.0778
55571W        W56435   8.951   4.771   8.815  0.2472  0.2972  0.0493
55572W        W56436   8.099   4.827   8.985 -0.2235  0.0866  0.2162
55573W        W56437  12.253   1.627   6.441 -0.0386 -0.0515  0.2143
55574W        W56438   8.591   3.989   9.512  0.2685  0.0946 -0.1089
55575W        W56439   7.319   5.031   8.955  0.0304 -0.0905 -0.1197
55576W        W56440   8.592  28.850  10.443 -0.2349  0.2828 -0.0791
55577W        W56441   6.585   4.886   8.363  0.1051  0.5070  0.2922
55578W        W56442   9.317   5.003   9.172 -0.0146 -0.2225  0.3819
55579W        W56443  14.101   3.513   4.303 -0.0311 -0.0106  0.0204
55580W        W56444  10.866   6.903   9.521  0.3032  0.0479 -0.2639
55581W        W56445   9.833   5.233   9.313  0.0395  0.5030 -0.2581
55582W        W56446   5.891   4.184   9.531 -0.1512  0.2850  0.0046
55583W        W56447   9.639   4.107  11.081 -0.0731 -0.1033  0.0224
55584W        W56448  10.480   5.221   9.974 -0.0668  0.0835 -0.0996
55585W        W56449  10.247   6.467   7.935 -0.2884 -0.3135  0.1096
55586W        W56450   4.509   6.833   7.686 -0.0743 -0.1941 -0.0509
55587W        W56451   6.955   6.390  12.311  0.0832 -0.1352  0.3626
55588W        W56452   5.485   7.221  13.100 -0.1798  0.0656 -0.2810
55589W        W56453  11.052   5.966  10.778  0.0508  0.0253 -0.0396
55590W        W56454   7.998   4.974  10.802  0.3645  0.0780  0.1272
55591W        W56455  11.964   4.215   9.160 -0.0029  0.0066  0.0826
55592W        W56456  11.822   4.529   6.058  0.1277 -0.1613 -0.2555
55593W        W56457   9.142   6.581  10.452  0.1894 -0.2750 -0.0762
55594W        W56458  10.244   5.635   6.171  0.0719  0.1691 -0.2204
55595W        W56459  10.671   6.561  10.039  0.0408 -0.0491 -0.0887
55596W        W56460   8.468   5.202  10.500  0.0008 -0.0100 -0.0139
55597W        W56461  14.476   3.440   8.182 -0.0365 -0.1913  0.1684
55598W        W56462   9.110   1.282   8.729  0.0361  0.0788  0.3443
55599W        W56463   7.700   8.251   8.879 -0.0202 -0.2763 -0.1383
55600W        W56464   5.464   5.733   6.942 -0.0299  0.1140  0.1907
55601W        W56465  11.071   6.788   6.414 -0.3631  0.2860 -0.0313
55602W        W56466   7.682   4.113   8.741  0.0522 -0.2096 -0.1935
55603W        W56467   9.455   5.705  11.200  0.1009  0.0526  0.1693
55604W        W56468   8.258   5.313   9.079 -0.1133  0.0281  0.1436
55605W        W56469  10.422   5.749   7.074  0.0808  0.0528  0.0761
55606W        W56470  10.138   5.787   8.814  0.1409  0.0333 -0.0022
55607W        W56471   7.678   4.415   9.545  0.1466 -0.0595  0.0079
55608W        W56472   8.699   4.269  10.487  0.1916  0.0355 -0.1838
55609W        W56473   9.350   8.288   7.210  0.0334 -0.2333  0.1371
55610W        W56474  10.359   7.378   7.851  0.0722 -0.0683 -0.2159
55611W        W56475   8.765   4.490   9.735  0.2446  0.1400  0.3923
55612W        W56476   6.885   6.767  10.912  0.0226  0.3081 -0.3750
55613W        W56477  13.031   1.948   7.958 -0.1105 -0.1985 -0.2240
55614W        W56478  10.547   2.750  10.736  0.1714  0.1219  0.1886
55615W        W56479   9.609   5.184   5.851 -0.0913 -0.0960  0.1976
55616W        W56480   7.110   8.106  10.752  0.0281  0.1739  0.3709
55617W        W56481   9.456   4.720   6.014 -0.1215 -0.0123  0.1155
55618W        W56482   7.058   5.501  11.786  0.3978 -0.2184  0.1311
55619W        W56483   6.744   2.069  10.645 -0.0990  0.0520  0.0939
55620W        W56484  10.130  27.724   7.579  0.1434 -0.0880  0.2068
55621W        W56485  11.877   2.903   8.458 -0.2610 -0.0073 -0.1738
55622W        W56486  10.033   6.063   6.719  0.1124  0.2480  0.1143
55623W        W56487  13.216   3.557   9.628  0.0908  0.0358 -0.0214
55624W        W56488   7.369   5.851  10.870 -0.3109 -0.0551  0.1189
55625W        W56489   9.588   5.825   9.844  0.3420  0.2371 -0.1046
55626W        W56490   9.249   3.913   6.717  0.2877  0.0061  0.3276
55627W        W56491   8.893   5.392   7.875  0.1078  0.0310 -0.2396
55628W        W56492   7.954   7.063  10.272 -0.3902  0.1669  0.0637
55629W        W56493  10.948   7.788   9.313  0.1845  0.0870  0.1456
55630W        W56494   6.772   6.974   9.021  0.2696  0.3376  0.1006
55631W        W56495   7.039   6.238   8.190  0.1045  0.1746 -0.2141
55632W        W56496  12.715   5.201   8.687 -0.0663 -0.1350 -0.1551
55633W        W56497  12.257   5.618   5.519 -0.0151  0.1800  0.0668
55634W        W56498   8.570   4.022   6.823  0.0597  0.1482 -0.1817
55635W        W56499  12.834   6.742   6.384  0.2474 -0.0129  0.1066
55636W        W56500   8.127   3.764   7.619  0.0747  0.2505 -0.2037
55637W        W56501   8.017   5.159   8.606  0.1850 -0.1963 -0.0394
55638W        W56502   9.522   6.657  10.068  0.0546  0.2629  0.2417
55639W        W56503   8.913   6.097   9.242  0.2202  0.1074  0.0038
55640W        W56504   7.734   5.543  10.025  0.0581 -0.0256  0.0583
55641W        W56505   6.940   7.077  11.687  0.1346 -0.1153 -0.1197
55642W        W56506   9.586   6.411  12.597  0.3729  0.1392  0.1020
55643W        W56507   5.601   8.100   7.270  0.0953  0.2575 -0.1025
55644W        W56508  11.657   7.180   9.136 -0.0948 -0.0413 -0.2429
55645W        W56509   6.272   3.347  10.339 -0.0079  0.0647  0.0154
55646W        W56510  12.550   6.060   7.282  0.0036 -0.3344  0.2996
55647W        W56511   8.459   6.649   9.677 -0.2001  0.3175  0.0288
55648W        W56512   9.076   7.211   8.156 -0.2927  0.0176 -0.0611
55649W        W56513   9.573   5.341  10.516 -0.0210  0.0488  0.1921
55650W        W56514   7.676   4.713  11.127  0.2922  0.1359  0.0933
55651W        W56515  10.053   5.976   9.804 -0.1359  0.0876 -0.0837
55652W        W56516  11.466   4.279  10.497  0.0281 -0.3128  0.1007
55653W        W56517   8.176   4.492   9.577  0.4362 -0.2728  0.1409
55654W        W56518   8.006   5.789  11.851  0.7430 -0.2319 -0.1292
55655W        W56519   9.148   5.503   8.323 -0.1520  0.3156  0.2092
55656W        W56520   5.433   6.127   9.317  0.1024  0.0167  0.0494
55657W        W56521  10.801   6.073  10.312 -0.1525  0.1260  0.1646
55658W        W56522   9.246   5.604   7.292  0.3248  0.0028  0.0965
55659W        W56523   5.824   5.115  11.614  0.1046 -0.1896  0.1641
55660W        W56524   8.029   6.598   9.294 -0.1095  0.1492  0.1042
55661W        W56525  12.622   5.224   8.208 -0.0329 -0.1871 -0.0897
55662W        W56526  12.529   2.649   8.922 -0.0041 -0.1434 -0.1038
55663W        W56527  11.643   5.285   6.233  0.0196  0.0264  0.4337
55664W        W56528   5.736   2.698   9.688 -0.4986  0.0342  0.0216
55665W        W56529  12.015   3.600   6.586  0.2541  0.3281 -0.0662
55666W        W56530   8.594   6.542   6.521 -0.1153 -0.0935  0.2253
55667W        W56531   7.209   5.139   6.946  0.2290 -0.0217 -0.0363
55668W        W56532  11.471   3.916   6.492  0.0569 -0.0173 -0.2697
55669W        W56533  10.265   3.630   7.878 -0.0766 -0.1377  0.3049
55670W        W56534   7.885   4.909   9.464 -0.0976 -0.1060 -0.1439
55671W        W56535   6.990   6.737   8.373 -0.2130  0.0368  0.1852
55672W        W56536  10.360   5.872   9.344 -0.0954  0.0443  0.0452
55673W        W56537  10.092   4.439  11.161 -0.0966  0.1662  0.2465
55674W        W56538   9.659   5.603   7.031  0.0124  0.1416  0.0237
55675W        W56539   8.873   4.034   8.970 -0.0128 -0.1118 -0.0158
55676W        W56540   6.369   5.955   8.153  0.1041 -0.1912  0.2288
55677W        W56541   6.539   6.411   8.360 -0.2474  0.1021  0.1257
55678W        W56542   9.515  29.096  11.158 -0.2886 -0.1242 -0.1155
55679W        W56543   7.711   6.168  12.004 -0.1126  0.1559 -0.2328
55680W        W56544   8.199   4.108   8.557  0.1547 -0.2041 -0.1849
55681W        W56545  12.096   5.567   7.933  0.0482 -0.0402  0.3264
55682W        W56546   9.944   8.160   9.184  0.0599  0.0917 -0.0677
55683W        W56547  13.304   4.195  10.018  0.1089  0.1968 -0.0793
55684W        W56548   8.830   3.050   6.816  0.0051 -0.0089  0.1522
55685W        W56549   9.923   3.969   9.135 -0.1241  0.0086  0.0250
55686W        W56550   6.914   5.552  10.353  0.0775  0.1214 -0.0820
55687W        W56551  11.049   6.805   9.035 -0.0535 -0.0085  0.1121
55688W        W56552   8.388   4.055  11.903 -0.1699  0.2539 -0.0422
55689W        W56553   9.604   6.014   8.626  0.2188  0.0317  0.1844
55690W        W56554  10.771   6.487   8.811  0.1369  0.0774  0.0430
55691W        W56555   5.928   5.623  10.702  0.0129 -0.0768  0.0935
55692W        W56556   8.958   4.935   9.456  0.2075 -0.3810  0.1194
55693W        W56557   8.009   5.638   8.808 -0.1823  0.0810 -0.0068
55694W        W56558   8.898   3.236   8.372 -0.2407  0.3323 -0.0890
55695W        W56559   6.875   6.518   9.907 -0.0265  0.5239  0.3330
55696W        W56560  11.140   3.123   7.875 -0.0582  0.0109 -0.1482
55697W        W56561   9.131   8.053  10.136  0.0882  0.4650 -0.2101
55698W        W56562  11.517   8.472   9.355  0.4275  0.1244 -0.0032
55699W        W56563   7.592   4.614   8.959 -0.0715 -0.0414 -0.4243
55700W        W56564   9.483   6.307   7.992 -0.2770 -0.1333 -0.1525
55701W        W56565   9.791   7.147  10.964 -0.2001  0.0524 -0.3799
55702W        W56566  10.176   4.989   9.714  0.1093 -0.2006 -0.2940
55703W        W56567  10.294   5.172   6.936 -0.3331  0.1277 -0.1218
55704W        W56568   9.311   7.125  10.661 -0.1359  0.1541 -0.2518
55705W        W56569   9.227   2.232   6.770  0.3124  0.4567  0.1090
55706W        W56570   8.066   6.655   6.770  0.0183 -0.1126  0.2050
55707W        W56571   8.560   5.130  11.002  0.1152  0.0962  0.1046
55708W        W56572  13.000   4.531   6.950 -0.1630 -0.0469  0.0348
55709W        W56573  11.340   5.218  13.098 -0.0133  0.0572  0.2157
55710W        W56574  12.353   5.450  11.033 -0.0592 -0.0574  0.0034
55711W        W56575  13.793   1.787   7.900  0.2669 -0.0014 -0.2290
55712W        W56576  12.337   6.461   8.677  0.1076 -0.0717 -0.1205
55713W        W56577   8.220   7.823  11.588 -0.1805  0.0532 -0.0760
55714W        W56578  11.474   5.223   7.743 -0.1268  0.0131 -0.1247
55715W        W56579  12.875   4.163   7.840  0.2845  0.0576 -0.3404
55716W        W56580   7.537   2.535   6.771  0.3672  0.0003  0.0723
55717W        W56581  11.509   7.713   7.210  0.3194 -0.1145 -0.0133
55718W        W56582   7.928   2.454  10.610  0.0304 -0.2362  0.0481
55719W        W56583   7.807   2.959   9.165  0.1661 -0.0379 -0.0558
55720W        W56584   9.714   5.809  10.771  0.4704  0.0914 -0.2536
55721W        W56585   9.920   6.026   7.825  0.0647 -0.2297 -0.4720
55722W        W56586   7.166   4.726   8.131  0.2343 -0.2098  0.0090
55723W        W56587   8.057   4.709   7.417  0.1053 -0.2808  0.2483
55724W        W56588   8.694   5.678  10.081  0.0367 -0.0597  0.1271
55725W        W56589   7.859   5.779  10.977  0.0583  0.0731  0.0515
55726W        W56590   7.187   1.292  10.192 -0.0474 -0.0014  0.1734
55727W        W56591  10.840   1.869   9.460  0.0655  0.2357 -0.3514
55728W        W56592  11.432   4.259   5.073  0.4559  0.0768 -0.0403
55729W        W56593  11.261   8.410   8.078 -0.1292  0.2240 -0.1438
55730W        W56594   9.364   5.412   6.570  0.1039 -0.0674 -0.1617
55731W        W56595   8.864   7.039  10.356  0.0764  0.1874  0.0457
55732W        W56596   9.416   2.034   5.771  0.2154 -0.1601 -0.0476
55733W        W56597   5.883   7.517   9.585  0.1780  0.2537 -0.1860
55734W        W56598  10.678   3.063   9.100 -0.1063 -0.0532 -0.1088
55735W        W56599   8.154   4.536  11.073 -0.1512  0.3185 -0.1908
55736W        W56600   7.382   5.688  10.389  0.1333 -0.3179 -0.1620
55737W        W56601   8.411   6.687   8.819  0.1736  0.1604  0.0698
55738W        W56602  10.421   6.251   9.009  0.2942  0.0940 -0.0811
55739W        W56603  10.212   6.422   9.465 -0.0606  0.0669  0.0751
55740W        W56604  10.913   1.266  11.064 -0.1377  0.0043 -0.1798
55741W        W56605   8.971   8.907   8.966  0.0072  0.0607  0.1403
55742W        W56606   9.628   6.918  11.365 -0.0420 -0.0400  0.3644
55743W        W56607  11.334   5.742   8.451 -0.1415 -0.0178  0.1087
55744W        W56608  11.461   6.437   7.768 -0.1121  0.0383  0.0135
55745W        W56609   9.006   2.276   5.985  0.0911 -0.0192 -0.0308
55746W        W56610  11.937   3.338   4.552 -0.1409  0.2508 -0.0943
55747W        W56611   9.647   3.848   7.493 -0.1408  0.4528  0.0518
55748W        W56612  12.351   3.860   9.229 -0.0931 -0.0631 -0.0763
55749W        W56613   7.268   3.946   8.302  0.1533  0.1703  0.1223
55750W        W56614  11.065   4.962   9.238 -0.0414 -0.0774 -0.2134
55751W        W56615   7.443   8.531   8.537  0.0933  0.2125 -0.0171
55752W        W56616   5.157   4.346   8.742  0.0885  0.0033 -0.2127
55753W        W56617  10.081   5.548   8.029  0.2640  0.0772 -0.0476
55754W        W56618  11.881   4.165  11.069 -0.1452  0.1118  0.1639
55755W        W56619   9.598   3.484   8.973  0.0438 -0.1263 -0.1580
55756W        W56620   5.330   5.169  14.223 -0.0014  0.1874 -0.0873
55757W        W56621  10.436   6.755   6.365  0.2614 -0.2711 -0.1217
55758W        W56622   7.540   4.908   7.726 -0.3061 -0.2009  0.1098
55759W        W56623   9.117   2.676   7.651  0.0764 -0.0027 -0.3106
55760W        W56624  11.025   3.097   9.604  0.3503  0.0092 -0.2363
55761W        W56625   9.487   5.282  11.409 -0.0028 -0.0675  0.1885
55762W        W56626  10.706   3.420   7.842 -0.0911  0.1945  0.2358
55763W        W56627   8.868   5.230   6.621 -0.2887  0.0543 -0.2092
55764W        W56628   7.551   6.444   9.169  0.0757 -0.2541 -0.1761
55765W        W56629   8.074   5.808   6.901  0.0007 -0.2092 -0.0073
55766W        W56630   9.741   3.864  12.281 -0.2706  0.3134 -0.2485
55767W        W56631  10.239   5.295   8.843  0.1248 -0.2116  0.2292
55768W        W56632   8.953   6.994   9.080 -0.4459 -0.0626 -0.0472
55769W        W56633   7.686   6.669   7.578  0.1723 -0.2151  0.0038
55770W        W56634  10.769   8.099  10.245  0.0966  0.2082  0.1128
55771W        W56635   6.523   6.757   9.395  0.1949 -0.0505 -0.3549
55772W        W56636   9.864   4.553   9.875  0.1486  0.2378 -0.1029
55773W        W56637   8.801   7.509   8.482 -0.2489 -0.2338  0.1084
55774W        W56638   8.455   7.016  11.040  0.2071  0.2205 -0.0638
55775W        W56639   9.311   4.772  10.352 -0.0303 -0.1908  0.1080
55776W        W56640   7.173   5.924   8.519 -0.0378  0.0743 -0.3887
55777W        W56641  10.581   7.916  11.638 -0.0203  0.1610 -0.1134
55778W        W56642   9.916   7.422  12.912  0.0187  0.0998  0.1544
55779W        W56643  12.710   4.251  10.073 -0.1620 -0.1709  0.0601
55780W        W56644   9.434   4.226  14.973 -0.0797 -0.1194  0.1950
55781W        W56645  11.120   6.464  10.470  0.1463 -0.2394 -0.0365
55782W        W56646   8.601   5.313  11.460  0.2159 -0.0726  0.0305
55783W        W56647   6.402   7.101  12.557 -0.1116 -0.0253  0.2294
55784W        W56648   5.310   4.050   9.625 -0.0282  0.1863  0.0884
55785W        W56649  11.005   7.279  15.435 -0.0140  0.0119  0.3198
55786W        W56650   6.114   4.948  11.999  0.1615  0.1663 -0.0635
55787W        W56651   7.477   1.284  12.859  0.0450 -0.1379 -0.1660
55788W        W56652   6.925   1.868  11.086 -0.0400 -0.2216  0.0977
55789W        W56653   6.372   2.105  11.005 -0.1797 -0.1573  0.1578
55790W        W56654   8.576   5.542  13.367  0.3312  0.0165 -0.4037
55791W        W56655   6.483   6.579  12.539  0.2118 -0.2239 -0.1401
55792W        W56656   4.603   5.157  10.677 -0.0988 -0.0162  0.0381
55793W        W56657   8.661   3.093   9.017  0.2397  0.3312 -0.1425
55794W        W56658   7.578   2.780  10.776 -0.0063  0.1814  0.1231
55795W        W56659   6.188   5.401  15.457 -0.4030 -0.0891  0.0027
55796W        W56660  10.192   6.392  11.975 -0.1351 -0.4762 -0.2013
55797W        W56661  12.461   6.266  13.880 -0.0850  0.0794  0.0619
55798W        W56662   9.676   4.393  11.488  0.2175 -0.1007  0.2380
55799W        W56663   7.613   5.871  11.414  0.0286  0.1801  0.1572
55800W        W56664   7.576   5.712  13.738 -0.1005 -0.1319 -0.0767
55801W        W56665   7.124   5.447  10.817 -0.1694  0.0342 -0.4588
55802W        W56666   7.605   3.101  13.297 -0.0292 -0.0646 -0.2641
55803W        W56667  10.744   3.434  12.965 -0.0207  0.0187  0.0745
55804W        W56668   7.147   7.379  12.523  0.0621  0.3562 -0.2100
55805W        W56669  10.495   7.757  13.677  0.0813 -0.0740  0.1224
55806W        W56670   8.399   3.384  11.111  0.4080 -0.2924 -0.0889
55807W        W56671  10.340   3.051  12.220 -0.1163  0.2347  0.0990
55808W        W56672   9.081   6.845  13.218 -0.0250  0.1097 -0.0393
55809W        W56673   6.921   4.755  12.802  0.4956  0.0260  0.0376
55810W        W56674   5.580   8.674  12.765  0.0746 -0.0673  0.0955
55811W        W56675   5.966   2.907  16.026  0.1376 -0.3618  0.1023
55812W        W56676  10.476   8.152  16.493  0.1309  0.4199  0.0287
55813W        W56677   8.142   5.012  11.372 -0.1726  0.1269  0.0535
55814W        W56678   9.448   6.897  12.761 -0.1758 -0.4414 -0.2673
55815W        W56679   7.651   5.220  13.556  0.4724  0.3342  0.2006
55816W        W56680  10.650   6.477  14.204  0.1638  0.1746  0.0407
55817W        W56681   9.416   3.391  10.493  0.1724  0.2438  0.0925
55818W        W56682  10.609   5.840  15.063  0.0385  0.3514  0.1528
55819W        W56683   8.575   6.164  12.630  0.2362  0.0453 -0.0123
55820W        W56684   9.095   9.082  13.658 -0.1411  0.1785 -0.1345
55821W        W56685   8.798   6.196  12.154 -0.1809  0.1967  0.0565
55822W        W56686   9.096   8.763  14.164  0.3211 -0.0202 -0.2022
55823W        W56687   9.572   3.289  11.458 -0.2030 -0.0489  0.1412
55824W        W56688  11.313   4.431  12.376  0.0624  0.2709  0.1918
55825W        W56689   9.156   2.887  12.565  0.1715  0.0074 -0.2382
55826W        W56690   8.692   6.181   9.780  0.1195  0.1665  0.0862
55827W        W56691  11.309   8.307  14.180 -0.0543 -0.0728 -0.2767
55828W        W56692   7.198   3.542  10.751 -0.0692 -0.1641 -0.1090
55829W        W56693   8.965   4.534  11.430  0.0790 -0.0788  0.1914
55830W        W56694  10.540   6.892  12.705  0.1808  0.0244 -0.2256
55831W        W56695   7.202   1.776  10.500  0.4437  0.1855  0.2516
55832W        W56696   8.960   8.695  10.314  0.0443  0.0886 -0.1384
55833W        W56697   7.612   3.895  10.763 -0.1106  0.1601 -0.3196
55834W        W56698   8.461   3.499   9.566  0.3852  0.1387  0.1764
55835W        W56699   9.095   7.852   9.323 -0.0750 -0.0333  0.2289
55836W        W56700   9.247   7.093  10.063 -0.2196 -0.1613  0.2150
55837W        W56701  11.473   1.742   8.740 -0.4091  0.0267 -0.3607
55838W        W56702   7.996   7.756  13.070  0.3002 -0.2289  0.3054
55839W        W56703   9.329   4.658  11.787  0.3147  0.0247 -0.1874
55840W        W56704  11.489   3.718   9.059 -0.2606  0.1236  0.0562
55841W        W56705   9.102   6.081  13.292  0.3211  0.2419  0.4486
55842W        W56706  13.267   4.074  13.439 -0.2424 -0.1327  0.1014
55843W        W56707   9.739   3.887  10.286 -0.0735  0.1057 -0.1560
55844W        W56708   6.984   4.912   9.942 -0.1699  0.2490  0.1211
55845W        W56709   6.672   5.202   9.608 -0.1950 -0.0102 -0.1460
55846W        W56710   9.604   7.825  11.487  0.0777 -0.0611  0.2252
55847W        W56711  10.256   5.273  15.447 -0.1655 -0.2556 -0.0015
55848W        W56712   9.434   5.317   9.561  0.0192 -0.0823 -0.1766
55849W        W56713   9.403   4.831  12.344 -0.0396 -0.1146 -0.1830
55850W        W56714  11.380   4.732  11.974 -0.3760 -0.0072 -0.1816
55851W        W56715  10.682   3.859  11.485 -0.1306  0.2600 -0.0652
55852W        W56716  10.022   5.407  14.509  0.1620  0.0095  0.1198
55853W        W56717   7.278   4.329  12.606  0.2547 -0.2845  0.1362
55854W        W56718   7.233   4.412  13.142 -0.2350 -0.2129  0.1021
55855W        W56719   9.015   5.010  11.651  0.1262  0.2522  0.1025
55856W        W56720   7.102   4.968  11.901  0.3316 -0.3594  0.2352
55857W        W56721   7.964   3.805  14.164  0.1167 -0.1375 -0.0132
55858W        W56722   5.763   5.167  15.061 -0.0256  0.1830  0.1518
55859W        W56723   9.145   3.493   8.678 -0.2239  0.0578 -0.1791
55860W        W56724   8.179   2.527  11.099 -0.1500  0.1306  0.2291
55861W        W56725   9.328   5.115  14.008 -0.2451  0.2855 -0.0542
55862W        W56726   9.067   2.714   8.772  0.1138  0.3548 -0.0289
55863W        W56727  10.165   7.709  15.577  0.0821  0.1944 -0.1971
55864W        W56728  10.075   3.864  12.684  0.0760  0.1170 -0.1706
55865W        W56729  10.375   7.542  17.118 -0.3010 -0.0522  0.1649
55866W        W56730  10.798   4.371  12.244  0.3413 -0.0058 -0.1540
55867W        W56731  11.197   3.777  10.413 -0.4275 -0.1098  0.0481
55868W        W56732  10.469   4.279  15.068 -0.0555  0.1244  0.2299
55869W        W56733   8.962   6.049  11.305 -0.0283 -0.0947 -0.4188
55870W        W56734   9.195   2.953   8.087  0.1972 -0.0164 -0.2095
55871W        W56735   8.745   7.506  12.507  0.1981  0.1635 -0.0290
55872W        W56736   8.886   2.023  13.124 -0.0881 -0.1484 -0.2780
55873W        W56737  11.317   3.587   9.615  0.0713 -0.1233 -0.0918
55874W        W56738  10.069   7.881  13.052 -0.0453 -0.0210  0.2951
55875W        W56739   9.491   2.094  12.163 -0.3218  0.0042 -0.0847
55876W        W56740  13.279   4.820  11.244  0.1698  0.1392 -0.0852
55877W        W56741  13.402   7.121  12.477 -0.4066 -0.1850 -0.0163
55878W        W56742   5.711   6.181   8.839  0.0224 -0.3070  0.1455
55879W        W56743  12.226   4.480  10.077 -0.3340  0.1956  0.2892
55880W        W56744  11.063   3.697  11.756 -0.1243 -0.1442 -0.1497
55881W        W56745  12.212   3.745  10.851  0.0532 -0.1616  0.1044
55882W        W56746   6.891   6.456  14.842  0.0354 -0.0372 -0.3234
55883W        W56747   6.614   5.657   9.963 -0.0525 -0.0704  0.2161
55884W        W56748   9.913   7.524  16.931 -0.0076  0.2509  0.1757
55885W        W56749   6.813   2.371  11.201  0.0966  0.2005  0.1882
55886W        W56750  10.240   6.243  14.381 -0.2379  0.2240  0.1748
55887W        W56751   6.805   5.655  12.619  0.0103 -0.2109  0.5341
55888W        W56752  12.355   8.070  11.523  0.2602 -0.2587  0.2465
55889W        W56753  10.340   3.588  14.288 -0.0032 -0.0544 -0.0076
55890W        W56754   9.199   7.016  11.182  0.1310 -0.2462 -0.0860
55891W        W56755   8.677   6.416  10.282 -0.0263 -0.0779  0.1082
55892W        W56756   9.263   4.504   9.788 -0.1612  0.0805  0.0370
55893W        W56757   8.028   4.779  12.834  0.0495  0.1445 -0.0891
55894W        W56758   7.529   4.595  12.009 -0.2803 -0.1991 -0.1595
55895W        W56759   8.372   4.449  11.624 -0.3400  0.0680  0.3124
55896W        W56760  10.829   5.540  10.076  0.2037  0.0285  0.1438
55897W        W56761  10.099   6.507  13.452 -0.0097 -0.0161  0.1890
55898W        W56762  10.816   7.364  10.910 -0.2303  0.1937 -0.0289
55899W        W56763   9.875   4.741  12.795 -0.0313  0.0151 -0.1265
55900W        W56764  11.524   5.040   9.180 -0.3180 -0.0587 -0.2325
55901W        W56765   9.269   6.682  12.311  0.0791 -0.0648  0.3820
55902W        W56766  11.434   3.329  11.851 -0.0511 -0.0240  0.1062
55903W        W56767   5.716   5.271  12.107  0.0267 -0.2166 -0.0962
55904W        W56768  10.504   2.965  12.980 -0.1577  0.1335  0.1265
55905W        W56769  10.998   6.398  12.714 -0.3454 -0.2961  0.0262
55906W        W56770   9.293   8.164  13.547 -0.0144  0.0596  0.0338
55907W        W56771  10.962   6.770  15.316 -0.4106 -0.1257  0.0242
55908W        W56772   9.160   5.231  12.567 -0.0642  0.0425 -0.2067
55909W        W56773  11.205   9.156  13.060 -0.2027  0.2424  0.0593
55910W        W56774  11.502   8.068  12.162 -0.2255 -0.2517 -0.0776
55911W        W56775  11.079   5.320   9.675  0.1658  0.0809 -0.0221
55912W        W56776   4.129   6.441  13.972  0.0260 -0.0560 -0.0416
55913W        W56777  11.367   2.808  10.767  0.0567  0.3119 -0.1816
55914W        W56778  11.457   5.625  14.069  0.3955  0.0304 -0.1094
55915W        W56779   8.579   5.286  12.407  0.1884  0.2377  0.2536
55916W        W56780   7.192   8.172   9.539  0.0421 -0.1209  0.3637
55917W        W56781   9.418   3.650  11.091 -0.1287  0.2599 -0.0681
55918W        W56782   7.199   5.078  13.224 -0.2841 -0.1399  0.2997
55919W        W56783   6.397   6.458   7.829 -0.1387  0.0338  0.2015
55920W        W56784   8.495   5.762  12.178 -0.2746  0.0173  0.2429
55921W        W56785   8.697   5.953  15.103  0.1159  0.1330 -0.0776
55922W        W56786  10.171   5.091  14.126  0.5282 -0.0717 -0.3372
55923W        W56787   9.247   4.111  11.500 -0.2208 -0.1613 -0.1585
55924W        W56788   9.107   7.157  12.491 -0.0402  0.1576  0.1381
55925W        W56789   9.694   7.285  12.507 -0.0982 -0.1573 -0.0380
55926W        W56790   9.039   6.312  12.579 -0.0800  0.1227  0.0911
55927W        W56791   9.589   7.567  10.733 -0.3124 -0.2495 -0.0074
55928W        W56792   6.531   5.576  11.642  0.3606  0.0232 -0.3001
55929W        W56793   6.882   6.559  10.460  0.0991  0.2401  0.0798
55930W        W56794   8.928   4.847  12.112 -0.0753  0.0218 -0.0357
55931W        W56795  11.522   6.198  12.809 -0.0246 -0.0694  0.0132
55932W        W56796  12.975   2.778  11.837  0.0664  0.0780  0.2902
55933W        W56797   9.414   7.159  12.082  0.0277 -0.0541  0.1262
55934W        W56798  10.993   5.468   8.689 -0.0751 -0.2278  0.1816
55935W        W56799   8.594   5.018   9.875 -0.0115  0.1400 -0.0125
55936W        W56800   8.938   3.667   9.769 -0.1658 -0.1936  0.0636
55937W        W56801  11.499   3.833  11.978  0.0659  0.1965 -0.0656
55938W        W56802   9.214   6.918  11.704  0.0601 -0.1431 -0.1057
55939W        W56803   9.227   6.485  13.563 -0.0052 -0.1502 -0.2727
55940W        W56804   9.262   5.216  12.015  0.1116 -0.2308  0.0312
55941W        W56805   9.258   3.048  11.971  0.0802  0.2641 -0.2363
55942W        W56806   9.750   4.795  13.273 -0.1546 -0.2554  0.2088
55943W        W56807   8.756   6.423  13.010 -0.0835  0.1021  0.0464
55944W        W56808   8.110   9.503  11.186 -0.1014  0.1361  0.2365
55945W        W56809   6.478   7.856  13.257  0.1019  0.1998  0.0852
55946W        W56810   6.375   5.639   9.515 -0.0745  0.1995 -0.0579
55947W        W56811   7.954   2.952  11.557 -0.0460  0.0950 -0.0251
55948W        W56812   8.976   2.425  11.470  0.2750  0.1089 -0.0484
55949W        W56813  10.645   5.430  12.727  0.0212 -0.0080 -0.1711
55950W        W56814  11.240   7.251  11.587 -0.0849  0.0483  0.1927
55951W        W56815   7.637   5.321  10.640  0.3075 -0.2342  0.1616
55952W        W56816   9.890   5.398  11.148  0.2593 -0.0193  0.1819
55953W        W56817   8.217   8.744  13.734 -0.2839  0.1691 -0.1478
55954W        W56818   4.978   6.540  11.822 -0.3010 -0.2520  0.1554
55955W        W56819   6.287   5.951  10.728  0.0369  0.0606 -0.5150
55956W        W56820  10.123   4.273  10.236  0.1950 -0.1204 -0.1596
55957W        W56821   9.620   4.679  10.752 -0.0233 -0.1090 -0.1044
55958W        W56822  11.065   5.385  11.122 -0.0489  0.1997 -0.0715
55959W        W56823  11.262   5.081  11.598  0.2584 -0.1279  0.1882
55960W        W56824   6.793   3.753  11.977 -0.0514 -0.0024 -0.2321
55961W        W56825   7.532   5.090   9.828  0.0758  0.3230 -0.2271
55962W        W56826  13.215   5.605  15.064 -0.0239  0.1586  0.3333
55963W        W56827  12.166   4.638  12.168 -0.2554 -0.0263 -0.0459
55964W        W56828   8.019   3.992  10.407 -0.1357 -0.1894 -0.1549
55965W        W56829   8.788   8.072  12.447  0.0578 -0.0085  0.2155
55966W        W56830   5.867   6.364  13.265 -0.1082 -0.0017 -0.0996
55967W        W56831   8.769   6.105  10.679 -0.3309 -0.1474  0.1444
55968W        W56832   5.206   5.999  11.117 -0.1089 -0.1558  0.3069
55969W        W56833   6.747   6.274  10.880 -0.1659 -0.1214  0.1035
55970W        W56834   7.023   5.921  13.213  0.3729  0.0877 -0.0008
55971W        W56835  11.443   1.345  11.129 -0.0244 -0.4444  0.0145
55972W        W56836   8.378   2.421  12.274  0.1121  0.0547 -0.0687
55973W        W56837   8.064   1.889  10.152 -0.1527  0.1885  0.2709
55974W        W56838   5.888   4.708  11.275  0.0159 -0.0614  0.1026
55975W        W56839   7.254   3.264  15.077  0.0334 -0.2611 -0.2328
55976W        W56840   8.793   6.900  12.171 -0.1940 -0.2728  0.0792
55977W        W56841   7.748   6.909  11.458  0.0095 -0.3060 -0.0482
55978W        W56842   9.450   4.457  12.972 -0.1489 -0.1884  0.0340
55979W        W56843  10.488   3.093   9.562  0.0822 -0.0045  0.3055
55980W        W56844   6.779   4.500  13.251  0.2065  0.2358  0.1506
55981W        W56845  10.187   7.225  12.515 -0.1256 -0.1755 -0.2137
55982W        W56846   7.374   6.541  12.579  0.0105  0.0447 -0.0349
55983W        W56847   7.763   4.752  12.378  0.1144  0.1667 -0.2303
55984W        W56848  11.756   5.086  13.362 -0.1917  0.1959  0.1006
55985W        W56849  10.159   5.032  11.364 -0.0903 -0.1587 -0.1392
55986W        W56850   8.260   4.894  12.399  0.2443  0.0690 -0.1064
55987W        W56851   9.198   7.970  11.910 -0.1535 -0.0587 -0.0271
55988W        W56852   5.709   5.563  13.219  0.0065  0.1638  0.0772
55989W        W56853   9.978   5.186  13.018 -0.1018 -0.1328  0.2446
55990W        W56854  11.595   4.927  14.526 -0.2097  0.3958  0.0912
55991W        W56855  10.861   8.630  15.393  0.0381 -0.1675  0.5494
55992W        W56856  11.075   6.871  12.570 -0.0131 -0.0614  0.0118
55993W        W56857   7.709   6.619  10.626 -0.0392  0.0711  0.1649
55994W        W56858  10.818   7.255   7.673  0.0764  0.2891  0.0765
55995W        W56859   8.437   4.402  15.771  0.2427 -0.0007  0.0823
55996W        W56860   6.325   6.411  14.925  0.0843  0.3353 -0.2172
55997W        W56861   9.834   5.900  13.052 -0.1055 -0.0028  0.1027
55998W        W56862  11.856   6.632  10.888  0.0121 -0.1509 -0.1955
55999W        W56863  10.283   7.982  12.087 -0.1455 -0.1745  0.0859
56000W        W56864  10.431   5.315  10.976  0.2018 -0.0634 -0.0285
56001W        W56865  11.924   5.385  10.623 -0.1942  0.1330  0.2557
56002W        W56866   8.468   4.905  11.849 -0.1821 -0.0739 -0.4739
56003W        W56867   9.627   8.486  15.656 -0.0018 -0.1241  0.0185
56004W        W56868   9.775   4.235  13.978  0.1569 -0.1404  0.0076
56005W        W56869  12.662   4.710   8.496 -0.5488 -0.2044  0.0196
56006W        W56870   8.836   4.385  11.904 -0.1345 -0.1140  0.0821
56007W        W56871  11.375   5.155  12.214  0.0477  0.0920  0.1869
56008W        W56872  11.575   4.635  13.540 -0.0703  0.0520 -0.0868
56009W        W56873   9.339   6.714   8.255 -0.0162  0.0747  0.0787
56010W        W56874  10.120   5.458  12.621 -0.0510 -0.1213 -0.3369
56011W        W56875   8.172   3.327  13.427 -0.2816  0.1403 -0.0080
56012W        W56876   8.576   4.812  11.357  0.1068  0.0727 -0.0315
56013W        W56877  10.289   5.951  11.752  0.0654 -0.1483  0.1936
56014W        W56878  10.118   7.729  14.483 -0.3770  0.1105 -0.0103
56015W        W56879  12.329   7.183  12.851  0.0214  0.1579 -0.0199
56016W        W56880  11.423   9.236  14.376 -0.1391 -0.1901 -0.2175
56017W        W56881   9.523   4.361  10.214 -0.1280 -0.0585  0.4651
56018W        W56882   5.244   5.494  13.425 -0.0346  0.1040  0.1785
56019W        W56883   7.760   5.131  13.020  0.0505  0.0810 -0.2375
56020W        W56884   7.748   4.300  12.740 -0.2203 -0.0252 -0.1213
56021W        W56885   9.965   4.299  13.053 -0.1721  0.2182  0.2416
56022W        W56886   7.017   4.063  10.685 -0.1514 -0.1140  0.0858
56023W        W56887   9.675   8.129  12.785 -0.2529  0.0105 -0.0737
56024W        W56888   9.939   6.911  12.783  0.0208 -0.3571  0.0926
56025W        W56889  11.196   7.239  10.544  0.2028  0.0439 -0.1062
56026W        W56890   8.695   3.133   9.848  0.0751  0.2369 -0.0579
56027W        W56891   7.057   5.831  12.200  0.1698 -0.4817 -0.0871
56028W        W56892   8.774   8.436  12.020  0.0416  0.0481  0.1225
56029W        W56893   8.216   9.597  17.288  0.0450 -0.2239  0.1472
56030W        W56894   8.307   6.608  12.667  0.0334 -0.1456 -0.0590
56031W        W56895   8.058   4.708  14.424  0.0892  0.2171  0.0755
56032W        W56896  11.023   6.224  12.205  0.1034  0.0286  0.0091
56033W        W56897  11.953   2.883   9.340 -0.2049 -0.0235  0.3365
56034W        W56898   8.563   4.176  13.321  0.4947 -0.1223 -0.1025
56035W        W56899   9.980   5.457   9.788 -0.0153 -0.0320  0.2672
56036W        W56900  10.543   3.881  11.973  0.1203 -0.2181 -0.2536
56037W        W56901   9.480   2.921  10.314  0.2441  0.0921  0.2647
56038W        W56902  10.758   7.411  13.281 -0.2463  0.0932 -0.2960
56039W        W56903  10.340   5.732  13.647  0.0679  0.0120 -0.0539
56040W        W56904  11.443   7.090  12.817 -0.1220  0.4329 -0.2272
56041W        W56905  10.659   7.454  12.390 -0.3292 -0.0495 -0.1146
56042W        W56906   7.882   8.604  13.325  0.1126 -0.0436 -0.1002
56043W        W56907   8.267   5.952  10.793  0.3758  0.0026 -0.1014
56044W        W56908  11.027   7.919  13.988 -0.0225  0.4301 -0.0364
56045W        W56909   6.025   7.158  11.185  0.1130 -0.0830  0.0201
56046W        W56910   8.880   6.286  13.845 -0.0419 -0.2026 -0.0150
56047W        W56911  10.294   6.507  10.613 -0.0582  0.2324 -0.3363
56048W        W56912  10.923   4.180  12.702  0.2307  0.0089  0.1122
56049W        W56913   6.962   1.844  13.924  0.2923 -0.0415  0.3114
56050W        W56914   6.801   5.461  13.166 -0.0825  0.1466  0.0961
56051W        W56915  10.360   4.966  12.617 -0.0594 -0.0836  0.0326
56052W        W56916   9.818   5.801  13.778 -0.3999  0.1315  0.0712
56053W        W56917   7.485   0.928  13.705 -0.2187 -0.2446 -0.0855
56054W        W56918   7.954   6.931  12.787 -0.0699  0.2745 -0.1360
56055W        W56919   8.051   4.526  10.408 -0.2473  0.1161  0.0019
56056W        W56920   6.993   6.133  12.766  0.0166 -0.1570  0.1209
56057W        W56921   8.164   6.867  12.291  0.0728 -0.2741  0.1085
56058W        W56922   4.462   3.847  11.006  0.0953  0.0323 -0.0121
56059W        W56923   8.089   3.950  13.250  0.0987  0.1216  0.0863
56060W        W56924   7.747   8.511  14.592  0.0632  0.2116  0.1035
56061W        W56925  10.498   8.467  10.452  0.4538  0.3803 -0.1250
56062W        W56926  10.569   6.462  13.679 -0.1227  0.0051 -0.1639
56063W        W56927   8.621   9.138  13.513 -0.0115  0.2774 -0.1796
56064W        W56928   8.733   4.263  12.850  0.3228 -0.2022  0.1203
56065W        W56929  11.203   1.538  11.859 -0.2078 -0.1410  0.1239
56066W        W56930   9.831   6.320  11.545 -0.0262 -0.0409  0.0793
56067W        W56931   7.802   5.993  13.350  0.3181  0.1581  0.0207
56068W        W56932  10.014   5.470  11.792 -0.1644 -0.1347 -0.1515
56069W        W56933  11.012   3.025  13.133 -0.0627 -0.0393  0.2872
56070W        W56934   6.257   5.196  12.403 -0.1240 -0.0567  0.1669
56071W        W56935   8.236   7.093  11.576  0.0354  0.0722 -0.1051
56072W        W56936   8.912   7.481   9.994 -0.3528 -0.1311  0.3050
56073W        W56937   7.682   5.340  14.550 -0.0070  0.1363 -0.1298
56074W        W56938  10.565   7.559  15.265  0.1783 -0.1530  0.0820
56075W        W56939   9.893   4.909  12.321  0.2893  0.0687  0.0246
56076W        W56940   7.597   5.239  12.593 -0.2395  0.0829  0.1312
56077W        W56941   9.073   5.779  12.029  0.2346  0.1169  0.0144
56078W        W56942   7.924   4.269  14.041 -0.1941  0.1595  0.0729
56079W        W56943   9.152   5.817  10.859  0.1449  0.2900  0.2799
56080W        W56944   9.189   4.404  12.204  0.0985  0.0890 -0.0283
56081W        W56945  10.468   5.058  10.475  0.0232 -0.0881  0.0307
56082W        W56946   9.329   6.602  14.059  0.0605  0.0468  0.2083
56083W        W56947  10.111   4.300  12.516  0.3579  0.1983 -0.1292
56084W        W56948   8.464   4.699  10.727 -0.0396  0.1124 -0.1998
56085W        W56949   8.283   5.418  11.870  0.0740 -0.2048  0.1114
56086W        W56950   9.619   6.231  10.339 -0.1541  0.1516 -0.2280
56087W        W56951   8.849   5.384   9.687  0.1140 -0.0509 -0.0254
56088W        W56952   9.057   7.663  13.324 -0.0293  0.0340 -0.3163
56089W        W56953   7.989   4.998  11.955 -0.0602  0.3127  0.2451
56090W        W56954   9.162   5.389  13.063  0.1134  0.2730 -0.2163
56091W        W56955   8.789   4.104  12.347  0.1209  0.0021 -0.2846
56092W        W56956   8.564   6.744  17.153  0.2301  0.0720 -0.0664
56093W        W56957  10.100   3.294   9.793 -0.0512  0.0209  0.4659
56094W        W56958  10.641   4.216  11.136  0.0860 -0.0924  0.2314
56095W        W56959  10.217   6.674  11.559 -0.1990 -0.2662 -0.0840
56096W        W56960   8.578   4.554  12.284  0.0999  0.0530  0.0516
56097W        W56961   8.274   7.294  13.339 -0.2689  0.0758  0.0420
56098W        W56962  12.898   4.726   9.361 -0.1185  0.0578 -0.0939
56099W        W56963   6.659   5.188  12.746  0.0653 -0.0032 -0.2796
56100W        W56964  10.377   8.540  12.254 -0.3072  0.1086  0.2223
56101W        W56965   8.048   2.957  12.405 -0.2233 -0.0088 -0.0554
56102W        W56966  11.871   8.906  10.149  0.0281 -0.0474 -0.0229
56103W        W56967   8.737   4.109  11.495 -0.1441 -0.0143  0.2077
56104W        W56968   8.751   4.606  13.750  0.1046  0.1166  0.5539
56105W        W56969  11.687   3.269   9.333 -0.2299  0.2168 -0.0392
56106W        W56970   8.827   3.814  13.056  0.1363 -0.1412 -0.2555
56107W        W56971   6.531   4.171  12.237 -0.2160 -0.2288 -0.0538
56108W        W56972  10.682   3.760  10.361  0.0266 -0.0843 -0.1191
56109W        W56973  11.525   6.114  14.159  0.2859  0.0236 -0.5085
56110W        W56974  10.007   8.450  18.727 -0.0552  0.0454 -0.2830
56111W        W56975  10.397   8.086  13.332  0.0954 -0.1565  0.0010
56112W        W56976  11.283   5.868  13.619  0.1714  0.0568  0.0675
56113W        W56977  11.049   7.155  12.142  0.0128 -0.2827  0.4119
56114W        W56978  10.121   7.476  12.052 -0.1761 -0.0735  0.0060
56115W        W56979  11.179   2.824  11.761 -0.0931  0.1763 -0.1175
56116W        W56980   8.341   3.034   9.432  0.0938 -0.2743  0.2422
56117W        W56981   9.647   6.243  13.371 -0.0137 -0.0018 -0.0994
56118W        W56982   9.736   4.533  12.046  0.0860 -0.2801 -0.2370
56119W        W56983   8.113   2.883  10.335  0.0068 -0.3183 -0.2525
56120W        W56984   8.547   6.303  11.628  0.0178  0.1373  0.1411
56121W        W56985   6.258   5.198  11.433  0.0447  0.0272 -0.1020
56122W        W56986  10.887   9.234  13.961  0.3526 -0.1047  0.0724
56123W        W56987   5.427   6.750  13.462  0.1091 -0.3146 -0.1317
56124W        W56988   4.095   6.243  11.606 -0.1309  0.1005 -0.0876
56125W        W56989   8.973   5.272  10.403 -0.3659  0.1346  0.0768
56126W        W56990   7.696   3.453  11.806  0.0702 -0.2120 -0.2787
56127W        W56991   9.375   4.738  14.985 -0.0711  0.2225  0.0068
56128W        W56992  11.850   3.563  11.673 -0.2217  0.0706  0.0342
56129W        W56993  10.202   8.445  13.669  0.0196 -0.4531  0.1023
56130W        W56994  10.377   4.655  10.126 -0.4904  0.2155  0.1379
56131W        W56995   8.957   6.746   9.749 -0.1044 -0.1120 -0.0601
56132W        W56996  10.391   2.590   9.388 -0.5363  0.0865  0.0874
56133W        W56997   9.594   5.463  12.822 -0.3613  0.0127 -0.0730
56134W        W56998   9.504   6.522  15.312  0.3038  0.0719 -0.3981
56135W        W56999   8.826   4.057  13.709 -0.0612 -0.3488 -0.0037
56136W        W57000   8.081   4.257   9.997 -0.2468  0.3027  0.0418
56137W        W57001   7.063   5.907  10.050  0.0057 -0.1245 -0.0233
56138W        W57002   9.820   5.901  14.698  0.2349  0.2460  0.0625
56139W        W57003   7.683   5.225  11.178  0.1052 -0.3953  0.0715
56140W        W57004  10.696   5.094   8.984  0.3567  0.3026 -0.1154
56141W        W57005   8.691   8.349  10.157 -0.0743 -0.1975 -0.2364
56142W        W57006  12.575   5.508  13.393 -0.1521  0.2503 -0.0900
56143W        W57007  10.720   8.190  12.219  0.0805 -0.2177 -0.0396
56144W        W57008   9.844   5.974  12.543 -0.1430 -0.0153  0.2145
56145W        W57009   9.060   4.112  11.043  0.2163  0.1824  0.1919
56146W        W57010  11.424   3.662  11.439  0.0934 -0.0996  0.1202
56147W        W57011   8.316   3.939  12.467  0.0782  0.1573  0.0242
56148W        W57012   9.914   5.081  10.755 -0.0864 -0.1071 -0.0832
56149W        W57013   8.376   6.215   9.416 -0.0824  0.0967 -0.0700
56150W        W57014  10.582   7.185  14.524  0.1284  0.0321 -0.2579
56151W        W57015  10.902   4.364   9.698 -0.0214  0.1754 -0.0434
56152W        W57016   8.039   6.874  15.476  0.0801 -0.1231 -0.0999
56153W        W57017   6.380   6.792  14.656 -0.1280 -0.1839 -0.0221
56154W        W57018   9.796   8.435  17.040 -0.2489 -0.1576  0.1507
56155W        W57019   8.960   4.382  15.174 -0.2389 -0.0934  0.2201
56156W        W57020   5.370   5.575  12.836 -0.1763 -0.0631  0.0332
56157W        W57021   7.691   6.661  13.550 -0.0701  0.0304  0.0146
56158W        W57022   8.275   5.453  10.062 -0.0457  0.0170  0.0751
56159W        W57023   8.799   5.880  12.947 -0.0155 -0.1714  0.1164
56160W        W57024   7.161   3.651  11.652  0.1023 -0.2307 -0.0026
56161W        W57025  11.019  10.001  13.605 -0.0985 -0.0017 -0.1259
56162W        W57026   9.816   3.819  13.196 -0.0621 -0.3546 -0.1476
56163W        W57027  12.335   6.974  13.404  0.0092 -0.0361  0.2496
56164W        W57028   9.391   6.140  12.192 -0.3898  0.4672 -0.2628
56165W        W57029   7.922   7.154  11.989  0.0881 -0.0507  0.1253
56166W        W57030  10.153   5.558  10.638 -0.1905 -0.4782  0.2936
56167W        W57031  10.244   5.592  15.872 -0.1043 -0.1816  0.0149
56168W        W57032   8.650   5.763  11.686 -0.1572 -0.1053 -0.4691
56169W        W57033  12.004   8.216  12.643  0.1069 -0.2368  0.1891
56170W        W57034  11.628   5.053  10.517 -0.1017 -0.0589 -0.1212
56171W        W57035   7.754   8.202  12.999 -0.2578 -0.1250 -0.2378
56172W        W57036  11.073   6.158  16.003  0.3523  0.4038 -0.0909
56173W        W57037  11.502   9.252  12.090 -0.0906  0.1813 -0.0319
56174W        W57038  11.021   6.074  14.148  0.1533 -0.1092  0.1364
56175W        W57039   8.586   3.837  11.064  0.2075  0.0164  0.2044
56176W        W57040   9.484   4.078  11.893 -0.1839 -0.2152 -0.4241
56177W        W57041   7.458   5.534  16.744  0.0019  0.0649 -0.1743
56178W        W57042   8.183   5.978  17.690  0.0362  0.3464  0.0145
56179W        W57043  10.119   7.182  15.423 -0.1733 -0.1388 -0.1597
56180W        W57044  11.337   5.558  18.758 -0.2572 -0.0824 -0.1139
56181W        W57045  10.752   9.906  14.474 -0.0162  0.1539  0.1523
56182W        W57046   7.803   4.341  14.907 -0.1188 -0.0415 -0.0642
56183W        W57047   5.246   5.029  16.543  0.0614 -0.0263  0.2404
56184W        W57048   8.254   7.152  17.230 -0.0118 -0.1096 -0.3300
56185W        W57049   9.071   8.034  16.862 -0.0634  0.4372  0.0339
56186W        W57050   5.784   4.548  15.875 -0.1531  0.1712  0.0151
56187W        W57051   7.055   2.609  16.039  0.0475  0.1797 -0.0483
56188W        W57052   8.463   5.110  14.839 -0.0886  0.1154 -0.2547
56189W        W57053  10.143   6.151  13.783 -0.2839 -0.1630  0.6378
56190W        W57054  10.199   6.524  20.198  0.0117  0.0252  0.1596
56191W        W57055   9.977   4.852  15.586  0.0968  0.2848 -0.2132
56192W        W57056   6.595   8.036  15.434  0.1307 -0.0062 -0.0287
56193W        W57057   9.084   5.574  11.564 -0.1794  0.3304  0.1134
56194W        W57058   7.715   6.251  16.371 -0.1579  0.1265 -0.1375
56195W        W57059   7.433   4.420  16.951 -0.0622  0.2450  0.1056
56196W        W57060  10.012   1.683  17.031 -0.0242 -0.0655  0.1527
56197W        W57061   8.998   7.150  18.103  0.1143 -0.0193 -0.1187
56198W        W57062   9.699   5.060  16.515  0.0558  0.3364 -0.1267
56199W        W57063   7.660   6.434  15.831  0.3392  0.0293  0.0696
56200W        W57064   9.497   4.668  16.746 -0.0428  0.1066 -0.2173
56201W        W57065   5.410   5.172  14.724  0.0245 -0.1290  0.1160
56202W        W57066   7.806   5.371  19.645  0.0382 -0.1451 -0.2204
56203W        W57067  10.188   5.507  17.782 -0.0396 -0.1505  0.5442
56204W        W57068   7.647   5.820  16.078  0.2003 -0.0516  0.0804
56205W        W57069   8.675   7.054  13.504  0.1293 -0.1354  0.2648
56206W        W57070   9.687   4.711  13.917 -0.1439 -0.2951  0.0887
56207W        W57071  10.194   6.194  14.903 -0.1310  0.1253  0.0180
56208W        W57072   7.890   6.358  16.859 -0.0504  0.3507 -0.1010
56209W        W57073   8.554   4.059  16.195 -0.0317  0.0710  0.0398
56210W        W57074   8.347   5.120  16.355  0.1316 -0.1337  0.0461
56211W        W57075   8.613   3.681  18.113 -0.1557  0.0652 -0.1621
56212W        W57076   8.469   7.971  17.877 -0.3411 -0.0850 -0.1147
56213W        W57077   8.535   5.285  14.353 -0.4089  0.0347 -0.2039
56214W        W57078   7.337   7.144  16.191  0.0935  0.2257  0.0985
56215W        W57079  12.999   7.987  16.922  0.1121 -0.2227 -0.4114
56216W        W57080   9.955   5.569  15.080 -0.0225  0.4991 -0.1153
56217W        W57081  10.613   2.808  14.072 -0.2992  0.1645 -0.1741
56218W        W57082  13.279   7.272  16.543 -0.2626 -0.0227  0.0112
56219W        W57083   8.870  10.941  16.183 -0.1135  0.0849 -0.2240
56220W        W57084   7.948   8.208  14.289 -0.1128  0.0111  0.0771
56221W        W57085   5.549   6.744  15.107  0.0019  0.1739 -0.2520
56222W        W57086   6.326   7.179  14.333  0.0331 -0.2268  0.0660
56223W        W57087  10.295   3.748  17.637  0.1326  0.0678  0.3133
56224W        W57088  11.876   4.674  15.312 -0.1626  0.2147  0.2719
56225W        W57089  10.297   6.349  15.555  0.0738 -0.3014  0.0659
56226W        W57090   9.872   7.239  14.504 -0.0086  0.1830 -0.0514
56227W        W57091  10.807   6.176  18.182  0.1449 -0.1765 -0.1734
56228W        W57092   7.973   3.782  17.314  0.0119  0.2754 -0.1611
56229W        W57093  11.174   5.637  16.009 -0.0279 -0.2120 -0.0352
56230W        W57094   9.749   6.401  14.338  0.0612 -0.0013  0.1315
56231W        W57095  12.960   5.415  16.340 -0.2367 -0.4032  0.1663
56232W        W57096   7.780   7.469  15.492  0.1685  0.0046 -0.1834
56233W        W57097   5.324   4.856  12.300  0.1594  0.0385  0.0903
56234W        W57098   8.673   6.265  14.695  0.1541  0.0182 -0.2360
56235W        W57099   7.546   4.053  15.966  0.1264  0.0042 -0.2156
56236W        W57100   9.943   8.868  12.256 -0.2441  0.2294 -0.4501
56237W        W57101   9.775   8.928  14.407  0.1148 -0.1345 -0.0264
56238W        W57102   6.651   6.166  17.171 -0.2101  0.0334  0.1183
56239W        W57103   7.127   4.757  17.069  0.2017  0.1133 -0.1646
56240W        W57104   9.445   5.693  13.303  0.2317 -0.3434 -0.3706
56241W        W57105   9.328   7.096  14.135  0.1412 -0.0343  0.0031
56242W        W57106  13.236   3.256  15.813 -0.0711 -0.0055  0.3476
56243W        W57107   8.508   6.948  13.051  0.0065 -0.2591 -0.1471
56244W        W57108   6.562   5.958  12.937  0.1809  0.0144  0.2478
56245W        W57109   8.986   7.790  13.816  0.0973 -0.1962 -0.2008
56246W        W57110   9.020   6.571  14.838  0.0075 -0.1221 -0.2055
56247W        W57111   9.015   6.629  18.288 -0.1011  0.0397 -0.2926
56248W        W57112   7.833   5.956  14.576  0.0282  0.0497  0.3543
56249W        W57113   9.066   7.562  17.232 -0.0557  0.0205  0.1026
56250W        W57114   8.743   5.310  17.098 -0.0140  0.0232  0.0566
56251W        W57115   9.842   6.130  15.276  0.0634  0.2842  0.1281
56252W        W57116   8.396   5.593  16.294  0.0210 -0.0805  0.1472
56253W        W57117   7.083   6.759  15.171 -0.0644  0.2202  0.1135
56254W        W57118   9.848   5.631  16.504  0.1255  0.1943  0.3118
56255W        W57119  13.030   6.032  16.177  0.0223 -0.1407 -0.1589
56256W        W57120  11.491   3.178  15.956  0.1505  0.2836 -0.3650
56257W        W57121   7.403   6.723  14.809  0.0073  0.0304 -0.0204
56258W        W57122   7.978   4.731  16.524 -0.3023  0.1447  0.0154
56259W        W57123   6.252   3.328  14.873 -0.3448 -0.1918  0.1651
56260W        W57124  11.310   3.711  15.489  0.1071  0.0219  0.4546
56261W        W57125  12.325   3.613  15.712  0.1954  0.0055 -0.1782
56262W        W57126   8.362   6.935  15.827 -0.1730 -0.2494 -0.0497
56263W        W57127  10.453   7.140  17.397  0.0357 -0.3102 -0.0592
56264W        W57128  12.382   4.050  17.654  0.0441 -0.1302 -0.0123
56265W        W57129   8.552   5.888  16.672 -0.1191 -0.0422 -0.0670
56266W        W57130  11.421   5.621  18.142  0.1778 -0.0977  0.0851
56267W        W57131   8.988   3.494  13.588 -0.0201 -0.1046 -0.0195
56268W        W57132   9.070   6.641  17.228 -0.2879  0.1444  0.0352
56269W        W57133   5.678   7.089  14.769 -0.4711  0.0734 -0.1625
56270W        W57134  11.345   5.364  14.693  0.0022 -0.0005 -0.1810
56271W        W57135   7.533   4.329  15.460 -0.0482 -0.1731 -0.1577
56272W        W57136  10.146   4.602  13.637  0.3945 -0.2868 -0.0480
56273W        W57137   8.142   5.965  15.012  0.1729  0.1478  0.1612
56274W        W57138   7.718   8.712  17.541  0.1778 -0.0273 -0.0935
56275W        W57139   7.543   3.617  15.144 -0.4478 -0.1539  0.0790
56276W        W57140  12.487   4.019  14.174 -0.0700 -0.2386  0.2340
56277W        W57141   8.128   7.863  16.689  0.2312  0.2022  0.2060
56278W        W57142   7.660   6.619  13.038 -0.2202  0.0698 -0.0994
56279W        W57143   9.743   4.694  17.415  0.0166  0.0504 -0.0801
56280W        W57144  12.863   6.492  16.021  0.0543  0.3265 -0.4588
56281W        W57145   9.868   5.574  19.256 -0.0507 -0.0035  0.1172
56282W        W57146  12.187   5.606  16.525 -0.0518  0.2100  0.1594
56283W        W57147   9.564   7.787  13.205  0.1768 -0.1862  0.0828
56284W        W57148   8.176   7.486  17.799  0.0782  0.0115 -0.1450
56285W        W57149   9.850   1.989  13.766  0.2439 -0.1830 -0.0825
56286W        W57150   5.085   6.402  18.981 -0.0288 -0.2520 -0.2436
56287W        W57151   7.378   7.150  17.649 -0.1371  0.2744 -0.0087
56288W        W57152  11.368   7.717  19.364 -0.0232  0.2377 -0.1445
56289W        W57153  12.519   6.999  16.349  0.0700 -0.1047  0.0436
56290W        W57154   8.010   4.869  15.567  0.6053  0.1335  0.1302
56291W        W57155   8.476   5.676  14.728 -0.0454 -0.0169 -0.3643
56292W        W57156   9.361   6.354  16.150 -0.1452  0.1911 -0.0171
56293W        W57157   8.047   4.081  15.759  0.1128  0.3430 -0.1244
56294W        W57158   8.760   5.433  15.610  0.3348 -0.1527  0.0723
56295W        W57159  13.888   3.748  15.268 -0.0586  0.0656 -0.2864
56296W        W57160  11.482   5.575  15.095 -0.0448  0.1613 -0.1413
56297W        W57161   9.914   5.567  13.380  0.2116 -0.2995  0.0250
56298W        W57162   9.175   9.552  17.268  0.1384 -0.1635  0.2131
56299W        W57163   9.245   7.360  14.650  0.5906  0.1527 -0.0662
56300W        W57164  12.758   3.866  14.825  0.1579  0.0530  0.0521
56301W        W57165   6.687   4.228  15.954 -0.1607 -0.2021  0.1185
56302W        W57166  10.731   6.159  14.592 -0.1678 -0.0972 -0.1432
56303W        W57167   8.813   5.454  13.923 -0.2084  0.1776  0.2734
56304W        W57168  10.465   4.006  15.879  0.0781 -0.1733 -0.0731
56305W        W57169  10.535   7.935  17.513  0.0035 -0.0078 -0.1622
56306W        W57170   7.563   5.796  15.051 -0.0199 -0.0830  0.2620
56307W        W57171   8.212   6.896  18.577  0.1684  0.0329 -0.0592
56308W        W57172   6.511   1.371  16.315 -0.1735 -0.3021 -0.0065
56309W        W57173   8.844   8.447  17.058 -0.2516  0.1112  0.1965
56310W        W57174  12.423   3.802  13.287  0.0630  0.1096  0.0802
56311W        W57175   8.927   5.768  16.358 -0.0720  0.4858 -0.3227
56312W        W57176   6.983   5.259  17.405 -0.1805 -0.1190 -0.1682
56313W        W57177  11.049   4.318  14.610 -0.1761 -0.1154 -0.1455
56314W        W57178   8.920   4.499  20.105 -0.3756  0.2781  0.1558
56315W        W57179   8.571   6.961  15.415 -0.1780  0.1995  0.1315
56316W        W57180   9.823   7.134  15.009  0.2846  0.1473  0.0381
56317W        W57181   9.334   4.952  13.019 -0.3093 -0.1342  0.2022
56318W        W57182   7.997   5.138  14.204  0.2866 -0.1435 -0.0181
56319W        W57183   8.371  11.060  14.567  0.2866 -0.1109  0.2956
56320W        W57184   8.362   5.700  12.665  0.3285  0.0368 -0.0744
56321W        W57185   8.006   6.804  14.891 -0.0450  0.1381  0.0729
56322W        W57186   7.877   5.590  15.494 -0.2380  0.3687 -0.0377
56323W        W57187  10.546   5.278  15.055  0.4903 -0.1085 -0.0387
56324W        W57188   8.687   6.192  15.539  0.1004  0.0352  0.0556
56325W        W57189   7.311   7.532  15.020  0.1819  0.0983 -0.1727
56326W        W57190  10.883   4.963  15.168 -0.1350 -0.1852  0.0506
56327W        W57191  10.287   4.556  16.121  0.2877  0.0330 -0.2114
56328W        W57192   6.560   5.238  13.670 -0.1253  0.3056 -0.0169
56329W        W57193   6.563   5.020  14.836  0.3612 -0.1705 -0.0442
56330W        W57194   5.914   8.246  14.527  0.1582 -0.1749 -0.1233
56331W        W57195  11.101   4.470  15.093 -0.2961  0.4835  0.0421
56332W        W57196  10.242   1.859  15.727  0.0034  0.0052 -0.1394
56333W        W57197   7.954   5.051  16.914  0.1772 -0.1156  0.1133
56334W        W57198   9.516   5.760  15.043 -0.1380 -0.2233 -0.2237
56335W        W57199   8.660   5.397  12.871  0.1892  0.0769 -0.1317
56336W        W57200   9.133   2.368  16.149  0.0980  0.2588 -0.0741
56337W        W57201   9.711   4.503  14.403  0.0881 -0.2171 -0.1238
56338W        W57202   9.366   3.843  17.326  0.1652  0.0166 -0.2117
56339W        W57203  10.181   5.092  17.394 -0.0049 -0.0398  0.2366
56340W        W57204   9.599   5.535  16.909  0.0276  0.0396  0.1152
56341W        W57205   8.623   4.484  17.074  0.2104  0.1868  0.0619
56342W        W57206   7.075   3.734  18.176  0.3710  0.1558 -0.1398
56343W        W57207   6.463   3.288  14.410  0.1980  0.1968  0.1177
56344W        W57208   9.785   8.273  13.311 -0.0463 -0.1842 -0.0219
56345W        W57209   7.806   6.955  17.116 -0.0521  0.1934  0.1991
56346W        W57210   7.531   5.587  13.200  0.2930  0.4080 -0.0257
56347W        W57211  11.674   5.764  16.805  0.3470  0.0637  0.1710
56348W        W57212   9.779   2.879  15.611 -0.0693 -0.0123  0.0595
56349W        W57213   8.216   6.392  14.700  0.1239 -0.0713 -0.2135
56350W        W57214   8.156   8.417  17.703  0.1988  0.1248 -0.0831
56351W        W57215  11.323   4.638  16.026 -0.1574  0.1560  0.2782
56352W        W57216  10.395   1.386  13.858  0.0744  0.2115  0.5442
56353W        W57217   7.768   7.350  17.396  0.0911 -0.0246 -0.2282
56354W        W57218   7.029   5.926  16.852 -0.1480 -0.2241 -0.0841
56355W        W57219   7.233   5.457  12.835 -0.0658 -0.0708 -0.2432
56356W        W57220  10.587   1.970  17.215 -0.2465 -0.0859  0.2666
56357W        W57221   6.864   6.419  13.976 -0.2029 -0.1148 -0.0433
56358W        W57222  13.299   6.114  13.863 -0.0777 -0.3476 -0.0705
56359W        W57223   6.579   6.673  15.249  0.1075 -0.3189 -0.2532
56360W        W57224  13.946   5.634  16.211  0.1379 -0.0278  0.4013
56361W        W57225   6.860   5.223  11.403  0.0862  0.0980 -0.1005
56362W        W57226   9.279   4.578  17.245  0.0892  0.2043 -0.0515
56363W        W57227  10.666   4.078  13.526  0.1847  0.0410 -0.3102
56364W        W57228   9.021   5.450  14.347  0.3695  0.1457  0.2323
56365W        W57229   7.701   7.546  16.824  0.0135  0.0241 -0.2613
56366W        W57230   8.431   3.334  15.709  0.0642  0.1542 -0.0371
56367W        W57231   4.694   4.407  12.754 -0.1348 -0.2560 -0.1660
56368W        W57232   7.617   6.116  18.444 -0.0233  0.0018  0.1552
56369W        W57233   6.074   4.816  16.779 -0.1293  0.0301  0.2916
56370W        W57234  10.666   4.774  16.356 -0.2424 -0.0133 -0.0089
56371W        W57235   8.053   6.585  16.256 -0.1068  0.0648  0.1951
56372W        W57236  10.763   5.270  15.555  0.1190  0.1013  0.0385
56373W        W57237   6.250   4.372  16.935 -0.1501  0.1292 -0.0479
56374W        W57238   8.146   5.065  13.357  0.0789  0.1493 -0.0405
56375W        W57239  12.213   2.341  15.611  0.0974 -0.1171  0.0652
56376W        W57240   4.778   4.935  14.914 -0.0011  0.3016 -0.0768
56377W        W57241  10.972   2.720  16.401  0.0816  0.1422  0.0227
56378W        W57242   7.747   3.506  12.378  0.1499 -0.2373 -0.2988
56379W        W57243   8.088   5.854  13.847  0.0451  0.1444 -0.1371
56380W        W57244  11.012   4.521  16.673 -0.0861 -0.2697  0.0602
56381W        W57245   6.054   4.754  13.560  0.0827  0.3047 -0.0053
56382W        W57246   6.135   5.863  19.748 -0.0134  0.1779 -0.3236
56383W        W57247  10.744   3.307  16.073 -0.3183  0.1702 -0.4529
56384W        W57248   8.636   8.087  15.529  0.0602 -0.2620  0.1939
56385W        W57249  10.546   6.002  14.024 -0.3124  0.1149 -0.0164
56386W        W57250   5.792   8.011  19.300  0.1037  0.1826 -0.3064
56387W        W57251   6.329   5.477  16.275 -0.0042  0.1607  0.0375
56388W        W57252   8.036   6.338  15.403  0.1466  0.2530 -0.0863
56389W        W57253   9.843   5.161  18.306  0.1692  0.0224  0.1074
56390W        W57254  12.915   4.914  14.405 -0.0592 -0.0760  0.0911
56391W        W57255   9.741   4.929  14.653 -0.1262  0.1541  0.0530
56392W        W57256   7.953   7.377   9.899  0.0544  0.3328 -0.2856
56393W        W57257  12.314   6.971  15.004 -0.1055  0.0866  0.0439
56394W        W57258  11.570   4.380  17.370 -0.2021 -0.1191 -0.2527
56395W        W57259   7.487   5.009  16.732  0.1053  0.0026 -0.0416
56396W        W57260  10.770   3.996  15.485  0.0365  0.2139  0.1834
56397W        W57261   8.865   6.165  16.957 -0.1804  0.1437  0.1374
56398W        W57262   8.072   7.540  14.534 -0.0552  0.2985  0.3235
56399W        W57263   7.410   6.186  14.687 -0.0336  0.2534 -0.0908
56400W        W57264   9.386   6.797  14.540 -0.1569  0.0220 -0.1683
56401W        W57265   7.908   5.076  16.110  0.0868  0.2409  0.1003
56402W        W57266   8.086   4.645  18.294  0.0164  0.0549 -0.0644
56403W        W57267  10.888   3.412  17.148 -0.0038  0.1251  0.1215
56404W        W57268   9.575   8.635  12.547 -0.1660 -0.0769  0.1113
56405W        W57269   8.545   4.978  15.746 -0.1401  0.0075  0.0935
56406W        W57270   7.572   4.789  14.927 -0.0013 -0.1500 -0.2691
56407W        W57271   8.492   7.315  14.328  0.3412  0.0919  0.0021
56408W        W57272   8.653   8.036  14.997  0.2278 -0.3673 -0.1923
56409W        W57273   7.491   7.574  15.913  0.1868  0.0824 -0.0185
56410W        W57274   8.170   3.059  15.344 -0.5159  0.0929  0.3420
56411W        W57275   9.664   8.651  13.068  0.0522 -0.1282 -0.0227
56412W        W57276   9.618   7.018  15.446  0.2548  0.1403  0.0008
56413W        W57277   8.717   3.825  15.741  0.1700  0.0662 -0.0931
56414W        W57278   7.370   7.103  15.634  0.1526  0.0510  0.1097
56415W        W57279   9.390   6.892  18.006  0.0509  0.0096 -0.2169
56416W        W57280   9.227   4.947  14.467  0.1141  0.2072 -0.1899
56417W        W57281   6.237   6.259  18.963 -0.1281  0.2380  0.0545
56418W        W57282  10.030   2.711  16.204 -0.0672 -0.1665 -0.0380
56419W        W57283   7.494   6.617  15.390  0.0409  0.0662  0.1246
56420W        W57284   9.099   3.231  14.942 -0.0242 -0.3153  0.1248
56421W        W57285   8.229   6.557  13.196  0.3526 -0.1281 -0.2908
56422W        W57286  11.504   5.221  16.023  0.2484 -0.1943 -0.2571
56423W        W57287   6.410   8.677  15.399  0.0514 -0.2641 -0.0477
56424W        W57288  13.712   5.743  15.112  0.0912 -0.0822 -0.1599
56425W        W57289  10.578   4.278  16.476  0.5414 -0.1335 -0.3031
56426W        W57290   7.777   6.522  14.498  0.0725 -0.1470  0.1330
56427W        W57291   6.410   8.714  16.708  0.0664 -0.2174  0.1074
56428W        W57292  12.043   7.219  19.445 -0.2440  0.1549 -0.1197
56429W        W57293  10.259   2.299  16.882 -0.2131  0.3097  0.0042
56430W        W57294   7.602   4.845  14.360  0.1011 -0.1028 -0.1059
56431W        W57295  12.673   5.126  15.754  0.2407  0.0617  0.1172
56432W        W57296  10.405   4.788  15.179  0.1305  0.1199  0.2064
56433W        W57297   9.784   3.139  16.185  0.0341 -0.0381 -0.1149
56434W        W57298   9.357   9.023  16.502 -0.0960 -0.2165 -0.1355
56435W        W57299  11.993   5.732  15.285 -0.0825 -0.1241  0.2300
56436W        W57300   7.236   5.770  17.279 -0.0248 -0.1518 -0.0314
56437W        W57301  11.498   2.696  16.175 -0.2085  0.2376 -0.1849
56438W        W57302   9.493   5.895  17.645 -0.1833 -0.0772 -0.0079
56439W        W57303   7.546   4.369  16.436 -0.4935  0.1829  0.0831
56440W        W57304   6.656   5.825  14.320 -0.3318 -0.0638  0.0067
56441W        W57305   7.428   4.861  16.131 -0.0506 -0.3449 -0.0821
56442W        W57306   4.021   4.925  14.058  0.2853 -0.1228  0.2461
56443W        W57307  10.883   4.873  12.336 -0.0078 -0.0535  0.1375
56444W        W57308   6.230   6.474  16.622  0.2970 -0.0341  0.0493
56445W        W57309  13.342   5.193  15.375 -0.2933 -0.2719  0.2494
56446W        W57310   8.811   7.844  12.891  0.2494  0.0616 -0.0924
56447W        W57311  12.630   4.433  16.682  0.1014  0.1611  0.4402
56448W        W57312  10.671   4.647  14.801 -0.0567 -0.1047 -0.2148
56449W        W57313   6.165   4.154  14.491 -0.1201 -0.2242  0.2361
56450W        W57314  11.774   5.386  18.420 -0.1175 -0.0606  0.1891
56451W        W57315  10.134   4.541  14.624 -0.1116  0.3154  0.4288
56452W        W57316   5.291   4.240  17.074 -0.0159 -0.0889 -0.2515
56453W        W57317   9.780   5.366  15.536  0.1570  0.2239  0.0915
56454W        W57318   8.381   6.062  13.173 -0.1046  0.1321 -0.2515
56455W        W57319   6.238   6.100  18.502 -0.3055  0.1193  0.2891
56456W        W57320   9.802   4.476  15.985 -0.2365  0.3740 -0.0766
56457W        W57321   7.069   4.851  14.773 -0.3534 -0.0636  0.3660
56458W        W57322  10.204   5.790  15.448  0.3487 -0.1384  0.2459
56459W        W57323   8.475   9.146  18.125  0.1991 -0.0597  0.2038
56460W        W57324  11.165   7.532  17.611  0.1792 -0.0407 -0.0190
56461W        W57325  11.125   5.964  15.473 -0.2596  0.0717  0.0329
56462W        W57326  10.837   4.636  12.753  0.2248 -0.2426  0.1236
56463W        W57327   7.909   5.437  16.469 -0.1213 -0.0558  0.0990
56464W        W57328   9.994   4.000  15.852 -0.1899  0.0568 -0.1479
56465W        W57329  10.409   8.187  12.825 -0.0983 -0.0045  0.0838
56466W        W57330   9.596   5.852  15.603 -0.2250  0.1788 -0.0149
56467W        W57331   8.965   6.842  13.870  0.1283  0.1633  0.1817
56468W        W57332  11.265   5.377  15.633 -0.1795  0.2616 -0.0917
56469W        W57333   7.899   1.942  14.968 -0.2195 -0.0478 -0.2345
56470W        W57334   8.108   7.712  13.592 -0.1460 -0.0808 -0.0538
56471W        W57335  10.250   4.896  16.518 -0.1566  0.0706 -0.2629
56472W        W57336  11.585   4.285  14.477 -0.0186  0.1336  0.0191
56473W        W57337  11.223   8.404  17.202 -0.0352  0.1226 -0.0126
56474W        W57338   8.966   4.222  17.609 -0.0980 -0.3867 -0.0824
56475W        W57339   6.610   7.448  14.675  0.0699  0.2418  0.2372
56476W        W57340   4.525   7.877  16.213  0.0170 -0.0847  0.1522
56477W        W57341   6.850   4.541  18.042 -0.1690  0.1593 -0.0101
56478W        W57342   8.973   4.822  16.934 -0.0262 -0.0897  0.0841
56479W        W57343   9.503   3.910  18.852 -0.0715  0.2175 -0.2564
56480W        W57344  10.039   6.951  13.682  0.0503 -0.0929 -0.0550
56481W        W57345  11.545   9.639  17.668 -0.0163  0.3242 -0.0359
56482W        W57346  10.637  10.123  17.785  0.1331 -0.1177 -0.1180
56483W        W57347   9.510   5.784  14.345  0.0136 -0.1026 -0.4391
56484W        W57348  10.485   3.729  16.718 -0.2528 -0.1468  0.0638
56485W        W57349   4.757   8.128  15.369 -0.2490  0.1681 -0.4515
56486W        W57350  10.053   5.085  13.587  0.4594 -0.3805  0.0833
56487W        W57351   9.229   6.233  14.547 -0.2319 -0.2797 -0.3271
56488W        W57352   9.775   6.470  17.884 -0.2803  0.1016  0.1143
56489W        W57353   9.419   5.887  16.572 -0.0803 -0.0591 -0.2509
56490W        W57354   9.050   4.868  15.745  0.1695  0.1434 -0.1100
56491W        W57355   6.765   5.740  13.771 -0.0238  0.0017 -0.0784
56492W        W57356   8.372   7.487  12.890 -0.0849  0.1496  0.2000
56493W        W57357   9.743   5.391  14.102 -0.0415 -0.1480 -0.2591
56494W        W57358   7.779   6.337  15.001 -0.0363 -0.3614  0.0756
56495W        W57359   6.555   5.302  15.805 -0.3447 -0.0540 -0.2191
56496W        W57360   5.373   8.848  15.429  0.0096  0.0459 -0.1404
56497W        W57361   8.460   6.419  14.004  0.1649  0.2545  0.1566
56498W        W57362   8.285   4.412  13.661  0.0547  0.0369  0.1641
56499W        W57363  11.851   4.930  15.904 -0.1103 -0.3850  0.1027
56500W        W57364   6.996   5.887  14.958 -0.1159  0.2118  0.2407
56501W        W57365   6.806   5.917  16.200 -0.0853  0.1790 -0.0099
56502W        W57366   9.306   8.013  14.265 -0.0971 -0.1560  0.1045
56503W        W57367   6.292   5.658  13.928 -0.1070 -0.2502 -0.0129
56504W        W57368   8.876   3.212  15.911  0.1068  0.1199 -0.0775
56505W        W57369   8.200   2.825  14.058  0.3414 -0.0216  0.1401
56506W        W57370  10.620   3.825  17.272  0.0662  0.1161 -0.0674
56507W        W57371  11.281   3.807  14.792  0.1245 -0.0705  0.3122
56508W        W57372   9.895   4.268  19.840 -0.0039 -0.1010  0.1176
56509W        W57373  10.641  10.520  21.029 -0.1115 -0.1509  0.0698
56510W        W57374   9.700   6.012  16.083  0.3673  0.1185 -0.3116
56511W        W57375   9.318   9.428  18.259  0.1489 -0.0213 -0.1023
56512W        W57376   7.238   7.983  16.197 -0.0201  0.0400  0.5276
56513W        W57377  11.301   8.973  15.518  0.0789 -0.4720 -0.0688
56514W        W57378  10.018   5.076  14.999 -0.0723 -0.2548 -0.0752
56515W        W57379  10.985   2.582  13.690  0.1078  0.0802  0.0811
56516W        W57380   8.884   6.557  14.309 -0.1253  0.0346  0.1247
56517W        W57381   7.875   5.587  17.057 -0.0503  0.0586 -0.0900
56518W        W57382   7.652   3.857  14.699 -0.2244  0.0851  0.0294
56519W        W57383   7.264   8.566  13.562 -0.2010 -0.1266  0.1876
56520W        W57384   9.943   6.745  14.606 -0.2699  0.1859 -0.1524
56521W        W57385   8.135   8.318  16.370 -0.1884 -0.2499 -0.1067
56522W        W57386   7.384   4.843  13.680  0.2641 -0.0600  0.0657
56523W        W57387   8.061   2.598  17.903  0.1347 -0.1295 -0.0349
56524W        W57388  10.860   6.309  15.197 -0.0335 -0.0673  0.1580
56525W        W57389   4.978   6.489  14.188  0.2234  0.0240 -0.1763
56526W        W57390   8.412   6.317  19.537 -0.1245 -0.2738  0.1683
56527W        W57391   9.564   5.209  15.115  0.0422 -0.0849  0.0630
56528W        W57392   8.857   4.819  14.909 -0.2252  0.1005  0.2192
56529W        W57393   7.893   6.993  13.272  0.1686  0.1526 -0.4823
56530W        W57394   6.963   6.586  13.491 -0.2345  0.0000 -0.2113
56531W        W57395   9.790   2.801  14.454  0.1206 -0.2111  0.2868
56532W        W57396   8.068   7.867  15.338  0.2037 -0.3112 -0.1891
56533W        W57397  11.297   3.495  16.796  0.2480 -0.2600 -0.2418
56534W        W57398   8.229   2.624  17.445  0.0859  0.0585  0.1302
56535W        W57399  10.108   5.769  14.205  0.0305 -0.0200 -0.3095
56536W        W57400   8.905   8.728  13.329  0.0501 -0.0929  0.1290
56537W        W57401   7.660   5.192  15.303 -0.3249  0.3291  0.1620
56538W        W57402   9.359   6.588  16.824 -0.2067  0.2402 -0.1789
56539W        W57403  11.358   4.088  15.202 -0.0469 -0.1649 -0.2201
56540W        W57404   8.415   7.680  15.693  0.0325 -0.1333 -0.0458
56541W        W57405   8.843   6.675  16.732  0.0374  0.1177 -0.1523
56542W        W57406   8.904   7.022  14.524 -0.0532  0.1746  0.0103
56543W        W57407  11.454   4.133  16.031  0.0409 -0.1973 -0.0501
56544W        W57408   8.893   4.173  14.253  0.0311 -0.0608  0.1965
56545W        W57409  11.578   3.050  15.301 -0.0851 -0.2655  0.0910
56546W        W57410   5.735   6.438  14.260  0.3152 -0.0436  0.1410
56547W        W57411  11.742   3.766  13.913 -0.2750  0.0590 -0.0859
56548W        W57412  11.395   7.480  15.126  0.2281 -0.0511  0.2647
56549W        W57413   9.013   6.010  19.047  0.0592  0.1194 -0.0021
56550W        W57414  12.175   9.740  16.350  0.1182  0.0724  0.0560
56551W        W57415   8.731   5.922  19.450 -0.0743 -0.1090  0.0406
56552W        W57416  10.728   3.786  16.277  0.3449  0.0442  0.0602
56553W        W57417   9.317  10.587  16.044  0.1884  0.1554  0.0624
56554W        W57418   8.513   5.783  14.186 -0.2118  0.0640  0.0129
56555W        W57419   8.477   6.863  20.518  0.2215  0.1610 -0.2782
56556W        W57420   9.882   4.368  18.841  0.0708 -0.2123 -0.1869
56557W        W57421   4.933   5.484  14.131 -0.0107 -0.2339  0.3249
56558W        W57422   7.935   6.237  12.930  0.0352 -0.2159 -0.0649
56559W        W57423  10.783   3.353  16.575  0.1570 -0.5748 -0.1198
56560W        W57424  10.290   5.599  17.300  0.0836  0.1324  0.2837
56561W        W57425  12.298   2.930  16.645  0.1587  0.1101 -0.1698
56562W        W57426   9.138   9.331  16.819 -0.0756 -0.0971 -0.1213
56563W        W57427   8.366   9.816  16.666  0.0648 -0.0389 -0.1339
56564W        W57428   8.566   7.450  13.798  0.0303 -0.0996 -0.0574
56565W        W57429   9.985   6.878  19.894  0.0695 -0.1465 -0.0915
56566W        W57430   8.187   6.464  17.249  0.1726 -0.2919  0.0158
56567W        W57431   5.387   4.743  13.454  0.2059 -0.3434 -0.2874
56568W        W57432  11.045   4.534  17.667  0.2871  0.1591 -0.1373
56569W        W57433   8.378   6.845  16.666 -0.4257 -0.3351 -0.0088
56570W        W57434   4.851   6.669  14.665  0.3147  0.0402 -0.1745
56571W        W57435  10.528   5.000  13.543 -0.0675 -0.3071 -0.1012
56572W        W57436  11.048   5.154  17.308  0.0881 -0.1156 -0.2910
56573W        W57437   8.771   3.078  16.966 -0.0028 -0.0349 -0.1634
56574W        W57438   9.343   6.902  14.999  0.0588  0.1739  0.0557
56575W        W57439   6.251   4.919  14.024  0.0799 -0.1964 -0.1387
56576W        W57440   4.794  10.164  22.822  0.1679  0.0941 -0.0785
56577W        W57441   6.415   7.506  24.667  0.1179  0.0080 -0.1364
56578W        W57442   8.319   5.362  22.079  0.2067 -0.0250 -0.1573
56579W        W57443   9.586   7.719  19.350 -0.1697 -0.0112  0.0953
56580W        W57444   7.424   8.078  15.700 -0.0349  0.2615 -0.1205
56581W        W57445  10.370   5.582  20.704  0.2560  0.0259 -0.0480
56582W        W57446   9.182   1.830  20.727 -0.1721  0.0595  0.3989
56583W        W57447   8.570   5.798  15.918 -0.2033  0.0795  0.1792
56584W        W57448   7.983   6.172  22.753 -0.3054  0.0294  0.0311
56585W        W57449   7.248   4.069  19.335 -0.0255  0.1635 -0.2225
56586W        W57450   9.232   2.269  21.972 -0.0864 -0.1253 -0.0834
56587W        W57451   9.634   4.693  19.950 -0.3119  0.0800  0.2131
56588W        W57452   9.978   6.009  17.891 -0.1257 -0.0045  0.1698
56589W        W57453   8.343   7.554  21.320 -0.1313  0.1639 -0.3963
56590W        W57454   7.243   6.097  18.761  0.0165  0.0196 -0.1378
56591W        W57455   6.995   5.895  22.309 -0.1899  0.1916 -0.1706
56592W        W57456   9.910   7.042  17.160 -0.0248 -0.0876  0.0314
56593W        W57457   7.982   6.936  19.423 -0.0673  0.0462 -0.2078
56594W        W57458   7.112   5.570  23.098 -0.1221 -0.3184 -0.3488
56595W        W57459  12.252   3.901  17.098  0.0417  0.1968 -0.1912
56596W        W57460   9.790   4.834  21.009 -0.0213 -0.1347  0.0307
56597W        W57461   6.614   7.987  18.575 -0.1490 -0.0323 -0.2570
56598W        W57462   9.314   7.762  19.947 -0.0778 -0.2438  0.1924
56599W        W57463   6.500   6.499  20.236  0.1271 -0.0693 -0.1589
56600W        W57464   7.706   4.907  19.442  0.1730  0.0605 -0.1897
56601W        W57465   6.520   3.171  19.080  0.0737 -0.2225  0.3208
56602W        W57466   9.294   7.372  19.540  0.0271  0.0559  0.0726
56603W        W57467   6.969   6.387  19.590  0.1649 -0.1113  0.2041
56604W        W57468   7.733   8.909  23.752  0.2152 -0.4154  0.1096
56605W        W57469   8.709   3.886  19.874 -0.0438 -0.0924 -0.1571
56606W        W57470   8.594   6.390  22.327 -0.3107  0.0321  0.2169
56607W        W57471   9.042   6.575  20.668 -0.2118 -0.0361  0.2776
56608W        W57472  10.718   7.462  21.350  0.0601  0.0431  0.1034
56609W        W57473   8.047   8.694  24.301  0.1010  0.2692  0.0799
56610W        W57474  10.419   4.009  21.959  0.0728 -0.3855  0.0311
56611W        W57475   9.168   6.381  20.160 -0.0283 -0.0305  0.0826
56612W        W57476   7.378   3.410  17.861  0.0897 -0.1906  0.0079
56613W        W57477   7.948   4.779  19.988 -0.0609  0.0244  0.2156
56614W        W57478   9.957   6.006  16.866 -0.0603 -0.3348 -0.0684
56615W        W57479  10.705   4.219  18.893 -0.1989  0.0503  0.0732
56616W        W57480   9.156   4.183  18.557  0.0061 -0.1753 -0.2136
56617W        W57481  11.514   7.661  20.244 -0.0737  0.1655  0.1013
56618W        W57482   8.150   6.691  21.945 -0.1209  0.1676  0.0966
56619W        W57483   9.766   6.570  17.098 -0.2037 -0.1860 -0.1542
56620W        W57484   7.437   6.584  16.894  0.0200  0.2131  0.1992
56621W        W57485   8.912   7.041  19.035  0.0768  0.1938  0.2078
56622W        W57486   7.450   4.232  18.900  0.1383 -0.1200  0.1892
56623W        W57487   9.915   6.104  19.228  0.0790 -0.0034 -0.0471
56624W        W57488  10.427   7.839  18.188  0.0644  0.0171 -0.1048
56625W        W57489   7.179   6.116  15.861 -0.4401  0.0305  0.0576
56626W        W57490   7.677   5.423  23.701 -0.1250  0.1438  0.2707
56627W        W57491   7.510   5.874  21.066 -0.0105  0.0240 -0.0205
56628W        W57492   8.736   6.309  20.382 -0.2043  0.0255 -0.2175
56629W        W57493  10.310   7.609  19.654 -0.0800  0.1032  0.0392
56630W        W57494  10.076   3.464  21.901  0.0628 -0.0208 -0.1332
56631W        W57495   7.018   8.072  17.470 -0.1127 -0.2469 -0.4556
56632W        W57496   7.340   5.501  17.727 -0.1405 -0.0313 -0.1589
56633W        W57497   8.306   6.010  19.136  0.0836  0.0901  0.0479
56634W        W57498   6.823   9.139  21.187 -0.1693 -0.0746 -0.2681
56635W        W57499   9.658   6.558  20.178  0.0814 -0.0585 -0.1751
56636W        W57500  11.234   1.924  14.968  0.0593  0.0939  0.0633
56637W        W57501   6.417   7.472  20.313 -0.0855 -0.1546  0.4038
56638W        W57502   8.699   7.525  17.875  0.0154 -0.2805 -0.1046
56639W        W57503   6.469   4.916  19.901  0.0725 -0.2270 -0.0336
56640W        W57504   7.308   4.476  22.632  0.0279  0.0877  0.2620
56641W        W57505  10.282   5.401  21.132 -0.0705  0.1052 -0.2305
56642W        W57506   9.754   6.515  13.798  0.0650  0.0502 -0.0479
56643W        W57507  10.281   5.957  18.857  0.1638  0.3615  0.1021
56644W        W57508   5.817   8.857  17.222 -0.0533  0.0019  0.0521
56645W        W57509  10.283   6.039  17.518 -0.0888 -0.0346 -0.4051
56646W        W57510  10.918   6.494  19.386  0.0911 -0.0070 -0.2591
56647W        W57511   8.907   3.551  20.188 -0.2493 -0.1367  0.1460
56648W        W57512   8.165   8.427  19.534  0.0435  0.0022  0.0201
56649W        W57513  10.607   6.225  21.401  0.1016 -0.2331  0.0190
56650W        W57514  10.720   8.896  20.772 -0.1447 -0.0580 -0.1778
56651W        W57515   9.572   5.472  22.759  0.2298  0.2465 -0.2951
56652W        W57516   5.740   5.929  22.846 -0.1703  0.0438 -0.0447
56653W        W57517   9.389   8.263  19.945  0.1653  0.0171  0.0852
56654W        W57518   8.335   6.357  16.770 -0.1206 -0.1022  0.2085
56655W        W57519   6.733   3.779  18.938 -0.0158  0.0155  0.0248
56656W        W57520   8.244   7.620  19.203  0.0653 -0.0194 -0.1914
56657W        W57521   7.918   4.799  20.611 -0.0017 -0.0186 -0.3133
56658W        W57522   8.266   1.875  16.522  0.0136  0.0132  0.0144
56659W        W57523   9.760   4.944  19.503 -0.0267 -0.1391 -0.1864
56660W        W57524   8.331   5.176  19.764  0.2149 -0.0678 -0.0154
56661W        W57525   8.793   4.193  19.004 -0.0770  0.0233  0.2392
56662W        W57526  10.826   8.909  21.772  0.0821 -0.0785 -0.0831
56663W        W57527   9.687   3.663  20.995  0.2585  0.2994  0.0527
56664W        W57528  10.484   7.939  24.932 -0.1871 -0.3278  0.0768
56665W        W57529  10.957   4.712  21.819  0.0245  0.3168 -0.0837
56666W        W57530  10.121   3.678  17.114 -0.1673 -0.0578  0.0314
56667W        W57531  12.424   5.471  20.688 -0.2320  0.0658  0.1380
56668W        W57532   6.697   5.344  19.452 -0.1455 -0.1407 -0.0400
56669W        W57533   8.328   3.933  19.434  0.1881  0.1920 -0.3825
56670W        W57534   9.116   5.942  23.430 -0.1246 -0.0230 -0.0199
56671W        W57535  12.308   4.384  16.171 -0.0027 -0.1992 -0.0834
56672W        W57536  10.809   6.849  18.763  0.2222 -0.1503 -0.0022
56673W        W57537   9.315   7.995  20.958 -0.2118 -0.0153  0.0019
56674W        W57538   6.474   2.389  17.111  0.1180 -0.1024 -0.1596
56675W        W57539   8.667   5.647  19.011 -0.0950  0.2084  0.1394
56676W        W57540   8.454   9.793  18.816 -0.2485  0.2027  0.0157
56677W        W57541   6.930   7.178  20.673  0.0281  0.2987 -0.1336
56678W        W57542  10.086   3.738  19.565 -0.0485 -0.0329  0.3438
56679W        W57543  10.111   7.084  19.138 -0.0003 -0.1538 -0.1147
56680W        W57544  13.167   3.395  19.121 -0.0260  0.2200  0.4314
56681W        W57545   8.988   5.457  20.966 -0.3020 -0.0407  0.3319
56682W        W57546   9.178   6.321  17.860 -0.3486  0.1816 -0.2083
56683W        W57547   8.907   7.951  21.761 -0.0190 -0.1498  0.2539
56684W        W57548   9.665   2.114  18.051 -0.1415  0.1415  0.3267
56685W        W57549   9.155   5.182  21.802  0.3826  0.1014 -0.2493
56686W        W57550   6.253   5.976  23.034  0.0489  0.0832  0.0623
56687W        W57551   9.461   6.029  18.197 -0.0496  0.1239  0.2152
56688W        W57552  10.379   6.180  18.383 -0.1489  0.0368  0.2358
56689W        W57553  10.854   6.509  20.983  0.3118  0.3940 -0.1920
56690W        W57554  12.047   5.912  19.155  0.0287 -0.2895  0.0235
56691W        W57555   9.062   5.589  17.934  0.1313  0.0244 -0.1461
56692W        W57556  12.526   4.609  22.665 -0.0998  0.0700  0.1038
56693W        W57557   8.246   7.517  22.891 -0.1976 -0.1057 -0.2124
56694W        W57558  11.177   5.503  20.842  0.1001 -0.2756 -0.0789
56695W        W57559   8.190   4.753  19.512  0.0260 -0.0750 -0.0329
56696W        W57560   8.879   3.864  16.633  0.1458 -0.0431  0.2267
56697W        W57561   9.346   6.126  16.991 -0.0691 -0.0846 -0.2933
56698W        W57562  10.956   4.210  19.690  0.1382  0.1057 -0.1901
56699W        W57563   9.524   5.457  19.684 -0.1021  0.1726 -0.0710
56700W        W57564   7.618   5.233  18.996 -0.0280 -0.1166  0.2708
56701W        W57565  12.378   4.843  16.680  0.0298  0.1058  0.0179
56702W        W57566   7.905   4.720  17.852 -0.1007 -0.2036  0.1582
56703W        W57567  10.410   7.845  20.778  0.5380 -0.1075  0.1258
56704W        W57568   8.238   6.563  17.753  0.1541 -0.3267 -0.0349
56705W        W57569   6.488   6.455  21.405 -0.0054 -0.1477 -0.0009
56706W        W57570  12.694   7.305  22.870 -0.0153  0.2164 -0.1760
56707W        W57571   8.623   1.743  17.197  0.1165 -0.0990  0.0815
56708W        W57572   8.678   6.296  20.924 -0.0345 -0.0374 -0.2927
56709W        W57573   8.971   2.857  19.049 -0.0550  0.1571 -0.0852
56710W        W57574  12.037   5.246  17.417  0.0542 -0.1972 -0.0254
56711W        W57575   9.737   3.557  21.510 -0.1265 -0.2503  0.0608
56712W        W57576   9.439   2.819  18.811  0.1915 -0.0578 -0.0394
56713W        W57577   8.379   4.806  18.820  0.0303 -0.4428  0.0052
56714W        W57578   8.743   6.081  19.921 -0.1130  0.2478  0.3143
56715W        W57579   5.902   6.802  15.542  0.2983 -0.4088 -0.3220
56716W        W57580   7.891   2.289  18.319  0.0156 -0.0936  0.3835
56717W        W57581   9.823   4.918  21.834  0.0579  0.0985  0.1631
56718W        W57582  10.224   7.932  20.150  0.0564 -0.0183  0.1546
56719W        W57583  12.418   4.918  17.224 -0.1549 -0.0829  0.2709
56720W        W57584   7.084   9.247  20.321 -0.0345 -0.2732  0.0794
56721W        W57585   8.425   4.950  16.882 -0.3054 -0.2893 -0.1513
56722W        W57586  12.489   3.930  18.602 -0.1507  0.0545  0.0512
56723W        W57587   8.260   5.722  19.588 -0.3436  0.2084  0.1411
56724W        W57588   6.247   5.511  19.383  0.1151  0.0108  0.1387
56725W        W57589   8.484   5.909  22.012 -0.1550 -0.0681 -0.0720
56726W        W57590  10.602   6.420  19.880  0.0877  0.1721  0.0086
56727W        W57591   5.593   6.190  17.198  0.1887  0.1555 -0.1212
56728W        W57592   6.524   5.602  18.525  0.4269 -0.1181  0.0845
56729W        W57593   7.242   3.338  16.627  0.1886  0.3086 -0.4350
56730W        W57594   8.275   6.193  23.788 -0.0086 -0.0290  0.2974
56731W        W57595   8.778   2.020  19.765  0.0260 -0.0334  0.1042
56732W        W57596   6.862   4.660  21.262  0.0937  0.1815  0.0394
56733W        W57597   9.290   4.085  16.916  0.1372  0.0555  0.2166
56734W        W57598   7.346   3.084  17.061 -0.1235 -0.1572  0.2999
56735W        W57599   8.549   4.663  20.467  0.1228  0.1773 -0.0676
56736W        W57600  11.689   5.306  21.571 -0.1515  0.0800  0.1218
56737W        W57601   6.124   6.144  21.987  0.3447 -0.0043  0.2686
56738W        W57602   8.679   5.859  20.661  0.0639 -0.1754 -0.1734
56739W        W57603  11.439   7.123  23.062  0.0397  0.0898  0.0578
56740W        W57604   9.936   5.917  24.697  0.1044 -0.0135  0.0418
56741W        W57605   6.103   2.391  18.688  0.2661 -0.0515 -0.0460
56742W        W57606   8.147   6.350  18.198  0.1021  0.1423 -0.1467
56743W        W57607   8.138   7.397  18.671  0.1993 -0.3969  0.1834
56744W        W57608  12.863   7.195  20.277  0.1396 -0.2787  0.2755
56745W        W57609   9.107   5.788  20.258  0.2901  0.3081 -0.3922
56746W        W57610   7.464   5.514  20.020 -0.2716 -0.1079  0.1311
56747W        W57611   9.211   5.117  19.673 -0.0452  0.0946 -0.0169
56748W        W57612  11.731   6.170  18.282  0.0057  0.0584  0.1231
56749W        W57613   8.975   8.279  18.614 -0.0212  0.3407  0.0712
56750W        W57614  12.491   3.417  18.292 -0.1437  0.1114  0.2337
56751W        W57615  10.179   3.095  15.823 -0.0716 -0.3008 -0.2130
56752W        W57616   6.325   4.758  20.578  0.0761  0.0669 -0.2454
56753W        W57617   6.442   8.456  21.525 -0.0006  0.0349  0.2355
56754W        W57618   7.180   7.463  18.922 -0.0024  0.1434 -0.0029
56755W        W57619   9.696   3.197  20.801  0.1562  0.1389 -0.2540
56756W        W57620   8.299   7.117  19.012  0.1147 -0.0238  0.0323
56757W        W57621   9.386   7.581  16.650 -0.1702  0.1005  0.1104
56758W        W57622   8.623   5.624  20.131 -0.3257 -0.1761 -0.0881
56759W        W57623   8.933   4.189  21.396  0.1860 -0.2499 -0.0238
56760W        W57624   8.622   6.358  17.460  0.0940 -0.1179  0.0007
56761W        W57625  11.126   3.942  22.481 -0.0386 -0.0361  0.2179
56762W        W57626   8.236   1.332  18.095  0.2630  0.1871  0.1981
56763W        W57627   6.290   3.753  17.837  0.1444 -0.1763  0.1576
56764W        W57628   7.350   4.965  21.012 -0.0122  0.0117 -0.0396
56765W        W57629   8.079   3.069  21.622 -0.1099 -0.0164  0.2371
56766W        W57630   7.434   6.959  18.106  0.0585 -0.2170  0.0119
56767W        W57631   8.158   5.292  20.869 -0.1874  0.2042  0.0114
56768W        W57632   7.458   5.701  19.243 -0.1075 -0.2265 -0.0241
56769W        W57633   7.434   5.708  20.555 -0.0048 -0.0055 -0.1079
56770W        W57634   5.428   2.537  20.301  0.1299 -0.1964 -0.0941
56771W        W57635   8.041   4.563  16.998 -0.1721  0.0498  0.0519
56772W        W57636   9.685   4.281  17.130 -0.0240  0.2442 -0.0823
56773W        W57637   6.932   6.331  17.769  0.0282  0.1269  0.2771
56774W        W57638   6.352   3.940  19.680  0.0298 -0.2010 -0.2210
56775W        W57639  11.103   4.514  19.327 -0.0398 -0.0213  0.1676
56776W        W57640  10.253   6.599  19.600  0.0975  0.1082 -0.1497
56777W        W57641   9.626   5.633  20.279 -0.3471 -0.3135 -0.0145
56778W        W57642  11.281   5.933  16.415  0.0662  0.2633 -0.0108
56779W        W57643   8.821   3.254  18.680 -0.1677 -0.1216  0.1410
56780W        W57644   7.872   3.834  18.722  0.3453 -0.3781 -0.1751
56781W        W57645   6.416   4.328  18.002  0.0876  0.1317 -0.0284
56782W        W57646   7.825   5.927  23.800 -0.1076 -0.1139  0.0049
56783W        W57647  11.168   3.926  21.431 -0.0952  0.1762  0.0958
56784W        W57648   5.744   8.678  18.071  0.0162  0.2967  0.3566
56785W        W57649   8.914   6.708  17.732  0.0536  0.0789  0.0503
56786W        W57650   6.995   6.376  20.092 -0.0362  0.1659  0.2682
56787W        W57651   9.573   3.863  19.655  0.2488 -0.4446  0.3972
56788W        W57652   8.246   4.826  20.983 -0.0388  0.1350 -0.0003
56789W        W57653   8.636   2.791  18.702 -0.0171  0.0114 -0.0143
56790W        W57654  10.242   6.307  21.680  0.1994 -0.0120 -0.2592
56791W        W57655  10.209   4.590  17.703  0.0399 -0.0353 -0.1051
56792W        W57656   7.136   8.412  17.103  0.0972 -0.4652 -0.0244
56793W        W57657   8.373   8.632  18.070  0.0404  0.1378 -0.0007
56794W        W57658   8.354   7.747  20.008  0.3027  0.2218  0.2766
56795W        W57659   6.967   6.796  22.258  0.0261 -0.1092 -0.0867
56796W        W57660  10.845   5.840  20.594  0.0994 -0.1344 -0.1194
56797W        W57661  11.389   5.062  20.659 -0.1647 -0.2766 -0.0382
56798W        W57662  10.897   9.739  21.363 -0.0972  0.4024  0.1556
56799W        W57663   9.981   4.491  19.357 -0.2028  0.0574 -0.0484
56800W        W57664   9.458   7.482  18.047 -0.1996 -0.0773  0.0550
56801W        W57665   7.047   5.951  20.857  0.1376 -0.0839  0.2497
56802W        W57666   7.871   7.176  23.018 -0.0133 -0.2641  0.3927
56803W        W57667   8.253   4.555  17.413  0.3531  0.0691 -0.2813
56804W        W57668  10.750   6.208  18.697  0.3139  0.0449 -0.1259
56805W        W57669  10.385   7.193  21.176  0.1347  0.1274 -0.0778
56806W        W57670   9.484   4.763  20.631  0.1646  0.0797  0.2105
56807W        W57671  10.155   7.012  23.206  0.0154  0.2714 -0.3053
56808W        W57672   6.756   5.107  17.832 -0.0370 -0.0808  0.0455
56809W        W57673   8.321   5.443  16.790  0.0108 -0.1545  0.0616
56810W        W57674   9.917   1.778  18.992  0.2886 -0.0189 -0.0688
56811W        W57675   9.341   6.333  19.193 -0.2341 -0.2203  0.0896
56812W        W57676  11.436   4.356  16.494  0.0234 -0.1326  0.0147
56813W        W57677  11.099   4.346  22.167  0.0658  0.1009 -0.0373
56814W        W57678   9.869   8.470  20.916  0.2667 -0.3640  0.0007
56815W        W57679  10.355   6.371  17.865  0.0063 -0.0749 -0.1679
56816W        W57680   7.487   6.520  18.928  0.0456 -0.1821  0.1736
56817W        W57681   6.922   6.063  22.763  0.1696 -0.2064  0.2128
56818W        W57682   8.356   3.898  18.914 -0.3403 -0.1675 -0.0286
56819W        W57683   7.361   1.237  17.642 -0.1228 -0.1707 -0.2745
56820W        W57684   8.845   6.457  19.284  0.0477 -0.0481  0.2656
56821W        W57685   8.509   6.761  14.553  0.1682 -0.2666  0.0176
56822W        W57686  10.930   7.127  16.375  0.0960  0.1810  0.2386
56823W        W57687   5.779   6.487  22.077 -0.1532  0.2195 -0.5069
56824W        W57688   8.475   7.542  17.378  0.2453  0.3853  0.2874
56825W        W57689   9.476   3.035  19.290  0.2560  0.0050  0.0346
56826W        W57690   8.515   6.467  18.510 -0.0979  0.0653  0.2490
56827W        W57691   9.520   5.495  21.820 -0.0941  0.0333  0.1251
56828W        W57692  12.182   9.749  22.917 -0.3899 -0.1806  0.1128
56829W        W57693   9.422   5.292  19.050 -0.2786  0.1934 -0.1626
56830W        W57694   7.080   5.048  15.765  0.2973  0.1033  0.0337
56831W        W57695  10.421   7.755  22.817 -0.2012  0.3456  0.3960
56832W        W57696  11.901   5.428  18.970 -0.0228 -0.0495  0.0512
56833W        W57697   8.632   4.539  22.352 -0.0510 -0.1068  0.0649
56834W        W57698   8.089   8.745  17.120  0.1873  0.0209  0.2222
56835W        W57699  10.790   4.890  18.402 -0.5666  0.2410  0.0275
56836W        W57700   9.383   4.357  18.976  0.1206  0.2189 -0.2840
56837W        W57701   8.831   5.277  21.414  0.1037 -0.0083 -0.3549
56838W        W57702  10.733   7.319  19.907  0.1211  0.3335 -0.0599
56839W        W57703   7.640   2.054  17.284  0.1103 -0.1795 -0.2746
56840W        W57704   9.474   7.269  17.081  0.1095  0.1991  0.1430
56841W        W57705   5.657   8.207  21.090  0.0412 -0.2544 -0.0949
56842W        W57706   6.730   6.252  16.634 -0.2116  0.3600  0.0637
56843W        W57707  10.223   4.169  17.366  0.1107  0.3779  0.2721
56844W        W57708   7.715   6.442  17.895  0.2762 -0.0055  0.0019
56845W        W57709   9.689   5.891  21.349 -0.0299 -0.0996  0.0198
56846W        W57710  10.578   5.385  18.103 -0.1729  0.1088  0.0668
56847W        W57711  11.413   7.279  21.245  0.1158 -0.1323  0.1429
56848W        W57712   9.239   6.117  21.354  0.2342  0.1233  0.1259
56849W        W57713   7.615   5.417  21.197  0.0265  0.0029 -0.0786
56850W        W57714  12.471   8.051  20.939  0.1068 -0.0531 -0.0988
56851W        W57715   8.831   6.506  21.362  0.2476 -0.2882 -0.2478
56852W        W57716   7.317   5.285  19.549 -0.2290  0.1260  0.1939
56853W        W57717   4.994   5.928  19.860  0.1342  0.1201  0.0723
56854W        W57718   9.096   6.181  17.421 -0.2026  0.0710 -0.0842
56855W        W57719   5.651   7.392  22.358  0.1575 -0.0186  0.0392
56856W        W57720   6.951   8.135  20.181  0.1609  0.0983 -0.1238
56857W        W57721   8.952   6.035  18.210 -0.2312 -0.1319 -0.1683
56858W        W57722   4.828   7.246  19.947  0.1867 -0.0015  0.0490
56859W        W57723   7.683   5.335  23.010 -0.3947 -0.0499 -0.0339
56860W        W57724  10.826   6.149  17.634 -0.2064  0.0383 -0.0271
56861W        W57725  10.461   5.676  19.840 -0.2370 -0.1711  0.0905
56862W        W57726   7.441   3.915  17.128 -0.0932 -0.3556 -0.0044
56863W        W57727   9.963   5.797  21.751  0.0134  0.1393 -0.0477
56864W        W57728  13.242   2.321  17.310  0.0031  0.0103  0.2173
56865W        W57729   8.633   5.422  17.648  0.2437  0.1761 -0.3726
56866W        W57730   8.299   7.104  21.539 -0.0469  0.1639 -0.1124
56867W        W57731  11.632   3.517  17.725  0.1856 -0.0071 -0.0637
56868W        W57732  11.276   4.170  23.339  0.1008  0.3632  0.1435
56869W        W57733   7.730   5.232  20.405  0.2141 -0.4518 -0.0740
56870W        W57734   6.497   9.407  17.756  0.1823  0.0241 -0.1193
56871W        W57735  12.309   4.772  15.096 -0.0729 -0.3444 -0.1401
56872W        W57736   8.693   5.063  20.112  0.4373 -0.1775  0.0961
56873W        W57737  10.696   8.683  22.780  0.2957 -0.3482 -0.0671
56874W        W57738   9.234   3.363  21.106  0.2234  0.0234 -0.1283
56875W        W57739   5.687   9.276  19.610  0.2457  0.0086 -0.4489
56876W        W57740   8.671   7.449  18.830  0.2956  0.2047 -0.1762
56877W        W57741   7.078   3.211  22.876 -0.0168 -0.0659 -0.1254
56878W        W57742   7.469   6.756  20.369 -0.0814  0.0983 -0.1829
56879W        W57743  10.720   3.074  22.650 -0.3999 -0.0263 -0.2714
56880W        W57744   9.061   3.739  18.896 -0.0824 -0.1784 -0.0065
56881W        W57745   7.897   7.464  21.520  0.0449  0.1724 -0.0397
56882W        W57746  10.687   7.311  23.748 -0.0250  0.1882  0.0848
56883W        W57747   9.603   2.699  20.578 -0.2072 -0.0997  0.2018
56884W        W57748   8.273   5.386  18.832  0.0552 -0.2239  0.0142
56885W        W57749   5.841   6.309  19.877  0.1337  0.1766 -0.0419
56886W        W57750   7.036   5.627  18.588 -0.2166  0.2955 -0.0613
56887W        W57751   9.912   6.904  20.376 -0.1068 -0.0859 -0.0235
56888W        W57752  10.187   4.672  17.110 -0.1527 -0.0907 -0.3781
56889W        W57753  10.529   7.562  20.314 -0.0386  0.0120 -0.0703
56890W        W57754   8.085   8.502  21.453  0.2817  0.0926 -0.2291
56891W        W57755   8.869   5.102  24.349 -0.0854  0.1704 -0.0577
56892W        W57756   7.996   5.516  18.455 -0.0256 -0.0525 -0.0541
56893W        W57757  11.268   5.281  19.664  0.0799  0.3014  0.0200
56894W        W57758  10.169   6.837  20.827 -0.1963 -0.0886 -0.0436
56895W        W57759   7.618   4.429  19.297  0.3071 -0.0451 -0.1759
56896W        W57760   5.297   8.331  21.738  0.4039 -0.0231  0.1871
56897W        W57761   8.370   8.786  19.110 -0.0713  0.0562  0.2167
56898W        W57762   7.307   6.993  18.731  0.0538  0.2137  0.2952
56899W        W57763   8.864   5.913  21.167  0.3056 -0.2467 -0.2968
56900W        W57764   9.808   5.570  18.033 -0.3360  0.1580  0.2324
56901W        W57765   6.956   7.775  21.464 -0.0211  0.1041 -0.0038
56902W        W57766   7.556   2.928  15.920 -0.0098 -0.0323  0.0746
56903W        W57767   5.875   4.975  18.175  0.1545 -0.6782 -0.1002
56904W        W57768   8.073   3.557  19.117  0.1954  0.3292  0.1399
56905W        W57769   7.618   2.724  18.376 -0.0918  0.0247 -0.1366
56906W        W57770   8.152   3.536  19.841 -0.1125  0.2865 -0.1281
56907W        W57771  10.534   4.133  21.245  0.2502 -0.0786  0.1260
56908W        W57772  11.741   5.391  22.071  0.2501 -0.0078 -0.2941
56909W        W57773  10.954   9.635  20.374  0.1205 -0.0652 -0.4025
56910W        W57774  13.082   6.736  20.066 -0.1842  0.1616  0.2198
56911W        W57775  11.071   6.805  23.212 -0.2748  0.0178  0.1033
56912W        W57776   3.944   7.409  18.982 -0.0788 -0.0250  0.1673
56913W        W57777   9.490   5.918  19.445 -0.3304 -0.1721  0.1316
56914W        W57778  10.261   5.004  17.972 -0.3529  0.2630 -0.2006
56915W        W57779   8.477   4.488  17.958 -0.1710  0.3267 -0.1847
56916W        W57780   9.767   3.374  20.253  0.2681 -0.0652  0.1312
56917W        W57781  11.940   3.333  20.742  0.3145 -0.0496 -0.2608
56918W        W57782   9.885   2.752  18.596  0.1082 -0.2727  0.0103
56919W        W57783   6.452   7.376  16.434  0.3385  0.0394 -0.1299
56920W        W57784   8.647   5.991  18.673 -0.2878  0.3154  0.1894
56921W        W57785   8.103   5.543  20.062 -0.0251  0.0747 -0.1148
56922W        W57786   8.820   4.480  16.067  0.2866 -0.1864  0.1390
56923W        W57787   7.689   3.599  16.812  0.1907 -0.3402  0.0736
56924W        W57788   7.572   9.707  20.922 -0.0087 -0.0791  0.0008
56925W        W57789   8.326   2.146  17.309 -0.2057  0.1355  0.5172
56926W        W57790  10.846   7.054  18.122 -0.2745 -0.2007 -0.0003
56927W        W57791   9.109   3.487  16.951 -0.0416  0.1567 -0.2394
56928W        W57792  11.120   6.044  17.279 -0.1061  0.0711 -0.1489
56929W        W57793  11.795   6.477  21.214 -0.0937  0.0390  0.0354
56930W        W57794   9.770   5.537  16.003  0.1186 -0.0598 -0.0975
56931W        W57795   9.187   4.036  19.319  0.0570 -0.1113 -0.1030
56932W        W57796   8.384   7.359  19.681  0.1261  0.0862 -0.3113
56933W        W57797   7.794   6.162  20.714  0.0209  0.0314  0.3917
56934W        W57798   8.887   2.941  22.744  0.1101 -0.1106  0.0426
56935W        W57799   8.348   6.654  21.269  0.1679  0.0699 -0.0056
56936W        W57800   8.263   5.492  17.957 -0.0968 -0.0157 -0.3330
56937W        W57801   8.127   5.991  18.620  0.2214 -0.1804  0.3909
56938W        W57802   6.747   6.911  17.889  0.0547 -0.2318  0.1279
56939W        W57803  10.243   4.138  18.664 -0.0810 -0.0692  0.1249
56940W        W57804   9.966   7.357  18.734 -0.1041  0.2095 -0.0437
56941W        W57805  10.611  10.210  22.523 -0.0021 -0.0507  0.0376
56942W        W57806   7.077   5.535  15.860 -0.2543 -0.2076  0.2239
56943W        W57807   9.945   6.585  19.116 -0.0730  0.0413  0.0865
56944W        W57808  10.018   6.489  18.316  0.1525  0.5349  0.0091
56945W        W57809  10.075   6.722  17.495 -0.0506  0.3068 -0.5090
56946W        W57810   6.983   4.996  15.278 -0.1788  0.2110  0.4084
56947W        W57811  11.084   7.233  19.528 -0.0869 -0.1710  0.0589
56948W        W57812  10.334   5.735  16.753  0.1485  0.0594  0.2636
56949W        W57813  10.295   7.120  19.631 -0.1106 -0.0365 -0.0037
56950W        W57814   8.070   7.706  18.235  0.5314 -0.2268  0.0984
56951W        W57815   9.530   6.008  19.933 -0.2719 -0.1015 -0.0200
56952W        W57816   7.615   4.630  18.624  0.0056  0.1299  0.0588
56953W        W57817  10.862   7.097  21.990  0.0470  0.0251  0.2456
56954W        W57818   9.449   5.706  20.901 -0.1022 -0.3289 -0.0477
56955W        W57819   6.321   7.791  19.159 -0.2302  0.3400  0.4712
56956W        W57820   8.759   3.190  20.969 -0.0265 -0.0546  0.3153
56957W        W57821   7.527   6.058  16.832 -0.1694  0.1538  0.1059
56958W        W57822   7.090   4.847  22.403  0.0437 -0.1315 -0.0007
56959W        W57823  10.236   8.757  20.158 -0.4314 -0.1869 -0.0772
56960W        W57824  10.016   5.926  20.925 -0.2707  0.0035  0.2584
56961W        W57825   7.326   6.202  20.481  0.3406 -0.1150  0.0619
56962W        W57826  10.620   7.458  17.773 -0.2929 -0.1396 -0.0044
56963W        W57827   8.175   7.061  20.008  0.4268  0.1850 -0.0023
56964W        W57828   6.860   2.845  20.606  0.2030  0.2159 -0.0965
56965W        W57829   9.610   6.914  17.519  0.1841 -0.0867 -0.1131
56966W        W57830  11.369   6.730  21.015  0.1691 -0.0155 -0.0397
56967W        W57831   8.841   8.068  19.940 -0.0768 -0.0219 -0.0412
56968W        W57832   8.288   6.131  21.148  0.1090  0.0970  0.0857
56969W        W57833   8.457   8.137  20.385  0.0145 -0.3680 -0.0840
56970W        W57834   9.007   4.818  20.608  0.0483 -0.2810  0.0360
56971W        W57835   9.507   4.060  21.347 -0.1660  0.2682 -0.1748
56972W        W57836   9.533   7.244  19.109 -0.2488 -0.0769 -0.0625
56973W        W57837   9.128   8.902  23.401  0.1254  0.4002 -0.2741
56974W        W57838   8.018   5.049  17.459  0.1099  0.1204 -0.0550
56975W        W57839  10.648   5.248  16.031  0.0047  0.1697 -0.1047
56976W        W57840   7.161   7.854  27.478 -0.1597 -0.0524  0.1794
56977W        W57841   7.930   5.869  24.997  0.2941 -0.0152  0.2307
56978W        W57842  11.974   4.694  22.607 -0.1730 -0.0584 -0.4988
56979W        W57843  11.315   6.536  23.800 -0.0960 -0.0109  0.0008
56980W        W57844   8.746   5.370  20.543  0.0191 -0.0577  0.1853
56981W        W57845   9.310   6.582  21.197  0.0379  0.0546  0.0070
56982W        W57846   9.567   5.284  25.820  0.3494  0.0855 -0.2055
56983W        W57847   9.800   7.615  22.064 -0.0727 -0.0235 -0.3303
56984W        W57848  10.195   8.641  22.812  0.1286 -0.2134 -0.3367
56985W        W57849   5.084   7.941  25.683  0.2398 -0.1135 -0.0326
56986W        W57850   7.056   7.466  24.907 -0.0436  0.0464  0.1046
56987W        W57851  11.588   5.455  23.273  0.1923 -0.2030  0.0689
56988W        W57852   9.637   7.283  19.938  0.0774  0.0448  0.0111
56989W        W57853  12.253   5.515  24.352 -0.0018  0.3195 -0.3994
56990W        W57854   8.460   1.659  23.558  0.2034 -0.1194 -0.1641
56991W        W57855   8.369   7.023  26.114 -0.3553  0.3167  0.0600
56992W        W57856  10.472   6.712  21.230  0.0451  0.0039 -0.1984
56993W        W57857   5.582   6.124  22.346 -0.0293  0.0357 -0.1199
56994W        W57858   4.842   6.546  26.761 -0.0458 -0.2088  0.2072
56995W        W57859  12.481   4.543  24.588 -0.0695 -0.0037 -0.1220
56996W        W57860  11.457   7.851  25.061 -0.0008  0.2841  0.4766
56997W        W57861   8.799   4.812  23.988  0.1652  0.0898 -0.0913
56998W        W57862   9.492   7.386  24.431 -0.1604  0.0074 -0.1169
56999W        W57863   7.440   7.275  21.388  0.0002 -0.2337 -0.2177
57000W        W57864   7.476   4.701  25.190  0.0759 -0.1160 -0.3442
57001W        W57865   8.642   6.550  25.119  0.0543 -0.1391  0.0696
57002W        W57866  10.174   6.597  26.567  0.1081  0.0462 -0.1765
57003W        W57867   8.541   6.942  22.240  0.0428 -0.0710  0.0707
57004W        W57868  11.658   7.161  24.330  0.2368 -0.0527  0.0053
57005W        W57869  11.138   7.264  23.486  0.3557  0.0628 -0.2624
57006W        W57870   8.836   7.421  25.491 -0.2242  0.1410  0.1719
57007W        W57871  10.449   8.033  25.420 -0.1071 -0.3672  0.3855
57008W        W57872  11.443   7.210  25.990  0.0837 -0.0215 -0.1625
57009W        W57873   6.457   5.841  23.747  0.0929  0.2111  0.0816
57010W        W57874   6.350   5.594  25.482 -0.0002 -0.0218 -0.1162
57011W        W57875   8.734   9.011  25.761 -0.2286  0.1233 -0.1315
57012W        W57876   7.487   5.589  22.361 -0.1941 -0.0974  0.0259
57013W        W57877   9.108   7.506  25.896 -0.1345 -0.0974 -0.1093
57014W        W57878   9.512   8.157  22.698  0.1623 -0.2899  0.2633
57015W        W57879  10.335   4.129  24.425 -0.0251  0.2491 -0.0883
57016W        W57880  12.359   4.179  21.664 -0.0397 -0.1570 -0.1822
57017W        W57881  10.696   4.533  26.760  0.0198  0.1515 -0.2168
57018W        W57882   8.747   6.879  21.009 -0.0141  0.0665 -0.1914
57019W        W57883  11.883   6.694  23.894 -0.1264 -0.0426  0.2110
57020W        W57884   7.206   8.275  22.279  0.0241 -0.1173 -0.1881
57021W        W57885   6.854   6.601  22.760 -0.1490  0.1708 -0.0465
57022W        W57886   9.049   5.081  25.770 -0.2964  0.3728  0.0173
57023W        W57887  10.927   7.098  26.588 -0.0836 -0.1369  0.0950
57024W        W57888  10.614   6.764  22.939  0.1008 -0.0283  0.1881
57025W        W57889  11.091   5.452  21.383 -0.2550 -0.2393 -0.1947
57026W        W57890   9.860   7.301  24.808  0.0963 -0.2341  0.0395
57027W        W57891   9.291   4.483  23.928 -0.0305 -0.1518 -0.0174
57028W        W57892   9.751   7.833  23.458 -0.1027  0.1119  0.1178
57029W        W57893  13.075   7.521  25.879 -0.1330  0.2551 -0.1188
57030W        W57894   6.481   4.159  22.066 -0.2581 -0.0579  0.4333
57031W        W57895   6.723   8.056  21.801  0.0670  0.2347 -0.0826
57032W        W57896   7.946   5.286  26.735 -0.0179  0.1884 -0.1297
57033W        W57897  10.363   4.821  24.918 -0.1007 -0.1359  0.1654
57034W        W57898   6.754   4.612  24.415 -0.3586  0.1360 -0.2655
57035W        W57899  11.723   7.675  21.171  0.0769 -0.0172 -0.0693
57036W        W57900   9.750   2.179  19.298 -0.2681  0.0275  0.1890
57037W        W57901   5.401   5.203  26.182  0.1830 -0.0556  0.1225
57038W        W57902   7.022   7.797  23.441 -0.2797  0.2004  0.3602
57039W        W57903   9.686   6.423  21.545  0.0390  0.1318 -0.2321
57040W        W57904   9.224   3.164  23.072  0.1306 -0.0571  0.1325
57041W        W57905   9.808   2.777  22.432 -0.0803  0.0140  0.0891
57042W        W57906  11.330   6.194  23.080 -0.3151 -0.1030 -0.0126
57043W        W57907   6.974   5.979  21.766  0.0127 -0.0119  0.2191
57044W        W57908   7.463   8.325  24.850  0.1412  0.4493  0.1048
57045W        W57909   8.888   4.304  22.724 -0.0715  0.1407  0.0366
57046W        W57910  11.139   7.657  23.791  0.2094  0.2140  0.0656
57047W        W57911   6.808   6.398  23.181  0.1199  0.1370 -0.1014
57048W        W57912  10.939   7.382  26.097 -0.0177 -0.1881  0.1927
57049W        W57913  10.880   5.057  26.849 -0.2154 -0.3492  0.2396
57050W        W57914  14.787   7.154  26.808  0.3002  0.0846  0.2568
57051W        W57915  11.986   4.744  25.423  0.0337 -0.0400 -0.3697
57052W        W57916   6.036   6.648  20.248 -0.2480  0.1352  0.0460
57053W        W57917   9.274   6.773  23.028 -0.0667 -0.0961 -0.0700
57054W        W57918   9.216   6.310  19.694 -0.1189  0.3892  0.0288
57055W        W57919   9.586   6.587  20.659  0.2210  0.3602  0.1575
57056W        W57920  10.069   4.775  23.936 -0.0912 -0.1552 -0.4363
57057W        W57921   8.178   3.992  26.141  0.2842  0.2398  0.0540
57058W        W57922   7.308   5.755  23.658  0.0949  0.1328  0.3018
57059W        W57923  10.406   6.510  23.890  0.0434  0.3262 -0.0415
57060W        W57924   9.929   7.191  26.341 -0.3942 -0.2347 -0.2644
57061W        W57925   9.606   4.970  22.739  0.2624  0.0055 -0.0217
57062W        W57926   9.591   6.262  25.451  0.0721 -0.3811 -0.2557
57063W        W57927   8.898   3.361  23.348 -0.0624 -0.0212  0.0797
57064W        W57928  11.126   6.895  25.207  0.0466 -0.2856  0.1676
57065W        W57929  10.738   5.523  24.227  0.0405  0.1463 -0.2219
57066W        W57930   9.757   5.779  22.290  0.1550  0.1458 -0.1205
57067W        W57931  12.355   4.204  25.144  0.5436  0.1219  0.0625
57068W        W57932   8.605   7.027  25.212  0.1078  0.1418 -0.3587
57069W        W57933   6.541   5.618  19.883 -0.1089 -0.3321  0.2789
57070W        W57934   6.754   3.269  24.896 -0.3174 -0.0792 -0.0084
57071W        W57935  11.255   6.027  23.547  0.0694 -0.0028 -0.0572
57072W        W57936  10.656   6.032  24.001  0.0635 -0.0830 -0.0511
57073W        W57937  10.092   8.801  24.126 -0.0360 -0.0282 -0.2746
57074W        W57938   5.555   5.604  22.312 -0.2868 -0.3910  0.0598
57075W        W57939   9.753   4.172  25.191 -0.0737 -0.1236  0.1852
57076W        W57940  12.328   7.188  22.521  0.0879 -0.1724 -0.0741
57077W        W57941   8.198   7.955  24.183  0.3495 -0.2291 -0.1244
57078W        W57942   8.770   3.750  21.205  0.2639  0.2440 -0.3004
57079W        W57943   9.933   9.118  25.050 -0.1555  0.0250  0.1911
57080W        W57944  10.147   6.035  26.260 -0.0654 -0.2724 -0.1873
57081W        W57945   9.958   5.919  25.229 -0.0458 -0.1937  0.2599
57082W        W57946   6.818   6.863  24.612 -0.3370  0.0429 -0.1468
57083W        W57947  10.432   8.253  23.954 -0.3446 -0.1839  0.0185
57084W        W57948  11.635   5.789  23.829  0.0738 -0.0412  0.2277
57085W        W57949   8.240   4.919  21.816  0.1441  0.2076  0.0326
57086W        W57950   7.831   7.215  24.529  0.2057 -0.0792  0.0861
57087W        W57951  10.351   7.513  25.036  0.2691 -0.1390 -0.0393
57088W        W57952   9.024   3.855  22.509 -0.0653 -0.1599 -0.1210
57089W        W57953   8.023   5.807  24.497 -0.1286 -0.1343  0.3100
57090W        W57954  10.325   5.777  19.339 -0.0009 -0.0155 -0.1594
57091W        W57955  10.197   7.451  23.700  0.0503  0.1728 -0.1795
57092W        W57956   9.144   5.715  23.907 -0.3457 -0.0045 -0.1746
57093W        W57957   8.150   6.938  23.638 -0.1781  0.0321 -0.0274
57094W        W57958   9.669   3.888  26.159 -0.3620 -0.0312  0.1595
57095W        W57959   9.220   6.823  19.420 -0.1157 -0.0137  0.1938
57096W        W57960  10.691   6.125  21.917  0.2627 -0.1355 -0.0628
57097W        W57961  11.453   4.097  21.922 -0.2755  0.1027  0.2072
57098W        W57962  10.121   6.771  26.138 -0.1132  0.0099  0.0563
57099W        W57963   9.139   6.126  20.841  0.0884 -0.0654 -0.1488
57100W        W57964  10.916   5.355  25.759  0.3800  0.3973 -0.0861
57101W        W57965  10.001   6.475  23.377 -0.0211 -0.3765 -0.0178
57102W        W57966   5.990   8.730  26.134  0.2807  0.1024  0.0247
57103W        W57967  10.281   4.363  21.642  0.1379  0.1274  0.2020
57104W        W57968  10.797   7.378  24.217 -0.2831 -0.1810  0.0847
57105W        W57969  12.623   6.849  25.374 -0.1332 -0.2802 -0.1755
57106W        W57970  10.043   8.648  24.706 -0.2019  0.4189 -0.6927
57107W        W57971  14.931   2.954  23.268  0.1346 -0.2425 -0.2809
57108W        W57972  10.030   8.029  23.082  0.0505 -0.1303 -0.1718
57109W        W57973  10.796   6.987  24.751  0.0698  0.0181  0.1095
57110W        W57974  12.439   5.925  24.612 -0.1305 -0.1913 -0.1425
57111W        W57975   7.693   7.091  23.956 -0.0566  0.1650 -0.0089
57112W        W57976   9.775   3.661  25.221 -0.1150 -0.3766  0.0914
57113W        W57977  11.223   6.159  26.869  0.2140 -0.1607 -0.1080
57114W        W57978   7.740   8.040  22.737 -0.1055 -0.2249 -0.0020
57115W        W57979   8.665   8.105  24.066 -0.0246  0.1415  0.2693
57116W        W57980   7.387   3.379  21.110 -0.1003  0.2132 -0.2622
57117W        W57981   9.018   5.660  23.040 -0.0607  0.2523 -0.3976
57118W        W57982   7.853   6.585  23.728 -0.0977 -0.2651 -0.1639
57119W        W57983   6.734   5.544  21.855 -0.1190  0.2145  0.0232
57120W        W57984   9.895   7.407  25.275 -0.2717  0.3058 -0.4080
57121W        W57985   8.746   5.543  22.308  0.1298  0.1827  0.2298
57122W        W57986  10.751   3.859  24.150 -0.1274  0.1255 -0.2768
57123W        W57987   9.599   6.276  24.879  0.4176 -0.0382  0.1179
57124W        W57988   7.881   9.400  21.486  0.1134  0.3269  0.2149
57125W        W57989   7.686   3.196  25.096  0.2570 -0.0592 -0.1042
57126W        W57990   9.018   7.797  24.124 -0.2061 -0.0432 -0.0457
57127W        W57991   7.377   6.626  24.477  0.0470 -0.0403 -0.0818
57128W        W57992  11.448   6.337  21.712 -0.1344  0.1108 -0.3834
57129W        W57993   6.244   5.044  22.592 -0.2439 -0.3822  0.1412
57130W        W57994   9.249   5.605  24.403  0.2709  0.2752 -0.3018
57131W        W57995  12.748   4.947  23.517  0.1033  0.0182  0.2195
57132W        W57996   7.534   7.812  24.780  0.6631  0.2405  0.1431
57133W        W57997   9.372   5.510  21.331  0.0172  0.2577 -0.1593
57134W        W57998   7.332   5.166  18.580 -0.1100  0.0884 -0.2711
57135W        W57999  10.629   5.585  23.742  0.2926 -0.3933 -0.1063
57136W        W58000  10.226   8.054  25.826  0.1359  0.1401 -0.1887
57137W        W58001   8.898   8.198  24.507  0.3878 -0.3303  0.2357
57138W        W58002   9.643   5.765  25.633  0.2237 -0.0989 -0.0888
57139W        W58003  11.205   3.826  26.851 -0.2129 -0.3498 -0.1133
57140W        W58004  11.515   4.144  24.568 -0.0418 -0.0469  0.2423
57141W        W58005   9.230   7.016  24.590 -0.0277 -0.0691  0.0362
57142W        W58006   8.274   7.958  25.453  0.0451 -0.0947  0.2338
57143W        W58007   9.319   7.062  23.440  0.2645 -0.2616 -0.0042
57144W        W58008  11.172   4.988  26.014  0.1368 -0.2827  0.0457
57145W        W58009   7.103   8.032  21.071 -0.2514  0.1849 -0.0305
57146W        W58010   9.738   6.783  23.617  0.0513 -0.1248 -0.0855
57147W        W58011   8.671   6.140  24.782  0.2383 -0.0846 -0.0431
57148W        W58012   8.997   7.781  22.936  0.0725  0.1578 -0.2739
57149W        W58013  10.852   7.179  20.354  0.1442 -0.1843  0.0040
57150W        W58014   9.785   3.320  22.327  0.0496 -0.3142  0.0734
57151W        W58015  12.727   4.449  23.155 -0.1806 -0.0799 -0.0211
57152W        W58016  10.244   9.543  23.739  0.0927 -0.2318 -0.4531
57153W        W58017   7.820   6.800  24.816 -0.0148 -0.0504  0.0151
57154W        W58018   7.394   8.886  24.940  0.1611  0.2658 -0.1122
57155W        W58019   9.476   6.081  23.768 -0.0694  0.0194  0.0410
57156W        W58020   9.256   9.620  22.627 -0.1133  0.2162  0.2038
57157W        W58021   9.815   8.755  22.008  0.1018  0.0637 -0.0162
57158W        W58022   9.998   6.313  22.502  0.2162 -0.1757  0.0537
57159W        W58023   6.833   7.937  22.996  0.0507  0.0278  0.2121
57160W        W58024   9.175   3.708  21.500  0.1925  0.0541  0.0363
57161W        W58025   7.993  10.229  25.991  0.4345 -0.0952 -0.2008
57162W        W58026   6.996   5.016  21.863 -0.0990  0.2120 -0.2522
57163W        W58027   8.555   4.600  19.229 -0.1951 -0.1749  0.0067
57164W        W58028   7.985   7.639  25.135  0.3165  0.1304 -0.1685
57165W        W58029   6.405   6.525  22.867 -0.1779 -0.0896  0.0465
57166W        W58030   6.533   5.913  22.146  0.2587  0.0328  0.2695
57167W        W58031   7.242   6.346  22.325 -0.2732 -0.0960  0.1083
57168W        W58032   8.114   4.835  22.306  0.0021 -0.0282 -0.0862
57169W        W58033  10.311   5.157  24.520  0.1273  0.0609  0.1208
57170W        W58034  12.557   7.180  24.548  0.0856  0.3501 -0.2444
57171W        W58035   7.849   6.742  24.255 -0.3239  0.0293 -0.3049
57172W        W58036   8.917   4.624  23.150  0.3414 -0.1460  0.0467
57173W        W58037   6.799   5.955  24.730 -0.0981 -0.0317  0.3027
57174W        W58038   6.997   5.689  20.165 -0.4589 -0.0517 -0.1676
57175W        W58039   9.044   4.865  22.192 -0.3464 -0.0405 -0.0955
57176W        W58040   6.715   7.886  24.696  0.0081  0.2253  0.1906
57177W        W58041   8.930   7.401  24.367 -0.2548 -0.1524 -0.1472
57178W        W58042   9.148   6.057  24.691 -0.0095 -0.0270 -0.0291
57179W        W58043  10.455   6.262  25.938 -0.3846 -0.4796 -0.1109
57180W        W58044   9.886   5.105  24.276 -0.2336  0.0869 -0.3578
57181W        W58045   8.424   3.497  23.243  0.0586 -0.0172  0.3116
57182W        W58046   4.912   6.799  23.209  0.4770  0.3846 -0.2551
57183W        W58047  11.350   5.974  24.598 -0.0104  0.0616  0.0831
57184W        W58048  11.051   9.224  22.871 -0.1286  0.0954 -0.1487
57185W        W58049   7.744   6.295  21.215  0.2579  0.0526 -0.1454
57186W        W58050  10.284   7.531  24.204 -0.0102 -0.0172  0.1110
57187W        W58051   9.289   4.319  23.329 -0.0468  0.1647  0.0415
57188W        W58052  10.291   5.652  26.878  0.3412  0.2464  0.0248
57189W        W58053  10.742   4.786  24.626 -0.2823 -0.1140  0.1739
57190W        W58054  11.913   5.647  25.458 -0.2084 -0.0910  0.1979
57191W        W58055   9.631   6.148  22.867  0.0116 -0.3992  0.0378
57192W        W58056  10.898   7.717  22.781 -0.3135  0.0417 -0.2431
57193W        W58057   9.807   7.142  21.980  0.0201 -0.1356  0.2175
57194W        W58058  10.167   6.963  25.204  0.0423 -0.2216  0.3096
57195W        W58059   6.599   7.468  23.372 -0.0463  0.0095 -0.0308
57196W        W58060  13.030   1.536  23.808 -0.0580  0.1139  0.0886
57197W        W58061  10.870   6.307  23.616  0.0709  0.0925 -0.0177
57198W        W58062   9.483   8.544  25.564 -0.3727  0.0249 -0.3451
57199W        W58063   8.014   6.675  22.528 -0.1401  0.2961  0.0782
57200W        W58064  10.092   6.350  21.213 -0.0626 -0.3037  0.0969
57201W        W58065   7.552   4.344  26.797 -0.1131  0.1128 -0.2616
57202W        W58066   9.261   7.056  25.121  0.0097  0.0466 -0.1693
57203W        W58067  12.232   4.331  26.118  0.1393  0.0105  0.1072
57204W        W58068  12.636  10.329  21.415 -0.2170  0.0726  0.2315
57205W        W58069  10.362   6.720  24.524 -0.0402 -0.2582  0.0314
57206W        W58070   8.182   4.380  25.593 -0.0916  0.1852 -0.2780
57207W        W58071   9.985   4.544  25.745  0.2824 -0.3156 -0.1338
57208W        W58072   5.941   8.221  25.124 -0.3021  0.4046 -0.1341
57209W        W58073   8.904   7.149  20.612  0.0072 -0.1024  0.3141
57210W        W58074   7.096   5.675  25.683  0.0419 -0.0597  0.0239
57211W        W58075  10.684   7.641  23.365  0.1526  0.1769 -0.1881
57212W        W58076  11.729   7.568  23.069  0.0452  0.0260 -0.0308
57213W        W58077   8.494   3.559  26.268 -0.0621 -0.2904 -0.2528
57214W        W58078  11.256   6.830  24.739  0.1972  0.0151 -0.2128
57215W        W58079  11.554   7.506  23.561 -0.1097 -0.3140  0.0177
57216W        W58080  10.512   7.062  21.621 -0.1719 -0.0042 -0.1400
57217W        W58081   7.305   6.004  26.132 -0.1921  0.2755  0.0605
57218W        W58082   9.565   5.498  23.668  0.0792 -0.0751 -0.1907
57219W        W58083   8.566   5.042  22.335  0.0837  0.1280 -0.3468
57220W        W58084   7.810   4.561  21.885 -0.1170  0.1429  0.0679
57221W        W58085   8.123   6.243  24.273  0.0207  0.1291 -0.1307
57222W        W58086  12.800   5.098  22.618  0.1309 -0.1504  0.1100
57223W        W58087   6.257   8.385  27.779  0.2810  0.2204  0.0389
57224W        W58088  13.592  10.589  24.026  0.2112  0.2656 -0.2075
57225W        W58089   9.779   7.112  22.903  0.0448 -0.0353 -0.1569
57226W        W58090   8.415   6.447  22.916 -0.2667 -0.0246 -0.2336
57227W        W58091   8.697   6.886  21.716 -0.2530  0.1317 -0.0618
57228W        W58092  11.524   7.967  25.914  0.1696  0.0032  0.0761
57229W        W58093  10.565   6.715  25.063 -0.3820 -0.4409 -0.0843
57230W        W58094   8.579   6.075  23.260 -0.0624  0.0608  0.1851
57231W        W58095  10.988   7.855  25.188 -0.0057 -0.1225  0.0808
57232W        W58096  12.270   4.205  23.619 -0.0987 -0.0488 -0.2528
57233W        W58097  10.586   4.343  24.826 -0.1219  0.1870 -0.1473
57234W        W58098   9.809   8.732  25.949  0.1169  0.1394  0.0692
57235W        W58099   6.463   6.010  22.626 -0.0382  0.1804 -0.3182
57236W        W58100   8.671   5.817  23.673 -0.1936 -0.0155 -0.3348
57237W        W58101   7.730   5.809  23.284 -0.0098  0.0784 -0.0901
57238W        W58102  11.546   4.540  25.367  0.0877  0.2775  0.1258
57239W        W58103   7.375   5.275  25.647  0.1817 -0.1225  0.1727
57240W        W58104   7.789   7.580  22.507 -0.0577 -0.0778  0.3338
57241W        W58105   9.648   8.429  26.290 -0.0301 -0.1357  0.2879
57242W        W58106   5.942   9.185  20.911 -0.0695 -0.1600 -0.0979
57243W        W58107   9.669   7.516  23.907 -0.2277  0.0827  0.1897
57244W        W58108   9.806   4.805  26.153 -0.0821 -0.1094  0.5348
57245W        W58109  10.958   5.285  22.301 -0.1206 -0.2433 -0.1769
57246W        W58110   9.094   6.386  25.215  0.0208  0.1343  0.1639
57247W        W58111  10.573   5.085  23.611 -0.3045 -0.1717 -0.1685
57248W        W58112   8.149   7.160  24.978  0.1366 -0.0362  0.0181
57249W        W58113   7.048   4.848  25.608  0.0831 -0.2992  0.2248
57250W        W58114  10.208   8.403  26.156 -0.2579  0.1347 -0.2683
57251W        W58115   9.572   6.028  24.347 -0.0103  0.0416 -0.0561
57252W        W58116   5.154   5.485  26.516 -0.1110 -0.0461 -0.0853
57253W        W58117   8.363   6.679  24.504 -0.0080  0.0787 -0.2395
57254W        W58118   9.205   7.080  21.916 -0.1055 -0.1740  0.2263
57255W        W58119   6.861   6.954  25.122 -0.2852  0.1534 -0.2682
57256W        W58120  10.395   5.762  24.469  0.0407  0.3604 -0.0112
57257W        W58121   9.744   6.436  19.688 -0.2915  0.3781 -0.3033
57258W        W58122   9.175   6.278  22.997  0.0455  0.0348  0.0507
57259W        W58123   8.697   8.164  25.446  0.1997 -0.0109  0.1698
57260W        W58124  12.021   7.059  26.799 -0.1027  0.0916  0.1441
57261W        W58125   8.236   6.772  26.764 -0.0424 -0.0599 -0.0532
57262W        W58126   8.597   8.163  22.977 -0.0264 -0.3551 -0.2491
57263W        W58127   9.384   5.883  25.174 -0.1319 -0.0333  0.1424
57264W        W58128   9.182   3.734  23.238 -0.1735 -0.0194 -0.0199
57265W        W58129  13.810   6.606  22.522  0.2377 -0.0291  0.1079
57266W        W58130  10.200   6.425  22.932 -0.0481 -0.2870  0.0983
57267W        W58131   9.199   5.902  22.639  0.0231 -0.1272 -0.1858
57268W        W58132   9.180   5.952  25.710  0.0458  0.0806 -0.0038
57269W        W58133   4.742   6.870  25.304  0.0830 -0.1305  0.0670
57270W        W58134   6.492   5.087  24.820 -0.0850  0.1200 -0.1226
57271W        W58135   9.990   5.254  22.543 -0.1613 -0.0625  0.1977
57272W        W58136   9.414   3.938  22.869  0.0552 -0.0059 -0.0139
57273W        W58137  13.274   6.118  26.262 -0.3514  0.2549 -0.2596
57274W        W58138  10.641   5.034  25.253 -0.0080  0.2262  0.0969
57275W        W58139   7.025   5.634  25.172  0.1027  0.1770  0.2355
57276W        W58140   7.836   8.306  24.055 -0.0286  0.0790  0.0116
57277W        W58141  10.081   5.652  23.601 -0.1271  0.0703 -0.0714
57278W        W58142   8.792   8.558  24.872  0.0644 -0.1323 -0.0677
57279W        W58143  11.957   4.003  24.242 -0.1327 -0.0920 -0.2589
57280W        W58144   9.615   6.232  20.999 -0.2463  0.0246  0.1389
57281W        W58145  12.115   6.803  25.441  0.1264 -0.1474 -0.3084
57282W        W58146  12.768   6.670  26.225 -0.2484  0.1095 -0.2472
57283W        W58147   7.595   6.286  24.116  0.2275 -0.2006 -0.0062
57284W        W58148   9.502   6.341  23.374  0.1037  0.0417  0.7100
57285W        W58149   6.454   7.180  24.161  0.0212 -0.0416  0.0384
57286W        W58150   7.711   6.690  22.957  0.0892 -0.1680  0.1827
57287W        W58151  10.625   8.097  28.012 -0.0995  0.0667  0.1438
57288W        W58152   7.925   5.485  21.706  0.0584  0.1865  0.0686
57289W        W58153  12.557   3.426  24.593  0.0741  0.0600  0.2217
57290W        W58154   9.477   4.777  25.704 -0.0549 -0.1603  0.1843
57291W        W58155   7.464   7.546  23.851 -0.4804  0.1967  0.2240
57292W        W58156   5.364   6.107  20.811  0.1699 -0.0956 -0.2553
57293W        W58157   9.860   4.466  22.015  0.1009 -0.2322  0.3212
57294W        W58158   9.699   7.738  21.283  0.1898 -0.0679 -0.1739
57295W        W58159   8.025   6.299  23.307  0.1883 -0.0083  0.0326
57296W        W58160   9.220   5.513  25.483 -0.0312 -0.0896 -0.1881
57297W        W58161  11.327   8.959  23.199 -0.0585 -0.0744  0.3336
57298W        W58162   7.217   7.280  25.333  0.0173  0.1396 -0.4778
57299W        W58163   9.415   7.855  26.044  0.1700  0.0415 -0.1150
57300W        W58164  11.442   5.015  22.334 -0.0353  0.0743 -0.1886
57301W        W58165   8.432   8.380  24.449 -0.3529 -0.0669  0.0786
57302W        W58166   7.728   6.361  25.202  0.0071 -0.1733  0.1587
57303W        W58167   7.385   5.491  21.875 -0.1987 -0.1786 -0.0374
57304W        W58168   7.096   7.173  23.516 -0.1419  0.0468 -0.2287
57305W        W58169   8.542   5.850  21.522  0.0011  0.1675 -0.1850
57306W        W58170  10.745   4.882  26.333  0.2085  0.1019 -0.4253
57307W        W58171  13.125   3.094  21.762  0.2586  0.0691 -0.0098
57308W        W58172  11.952   5.891  24.722 -0.1916  0.1979 -0.0734
57309W        W58173   9.565  10.389  25.208 -0.1638 -0.0293  0.0910
57310W        W58174  11.017   7.249  22.902  0.1526 -0.0812  0.3379
57311W        W58175   8.683   6.205  25.764  0.3156  0.1645  0.0257
57312W        W58176   8.733   7.349  22.883 -0.0488 -0.1783 -0.0166
57313W        W58177  13.347   6.905  24.632  0.1227  0.0659  0.2856
57314W        W58178  11.589   6.194  22.556 -0.0447  0.5038  0.1170
57315W        W58179   9.768   4.334  23.154 -0.0534  0.0372 -0.0451
57316W        W58180   9.446   6.081  20.457 -0.1140 -0.1232 -0.1997
57317W        W58181   9.726   5.610  24.108  0.2091  0.1457  0.0224
57318W        W58182   7.069   8.038  25.028  0.0201  0.3574  0.3315
57319W        W58183   6.220   7.327  22.322  0.0080 -0.1791  0.1075
57320W        W58184   9.865   6.252  22.003  0.2273 -0.0065  0.2300
57321W        W58185   8.483  10.688  22.269 -0.0283 -0.0158  0.1698
57322W        W58186   4.625   6.342  23.386  0.1225  0.0652 -0.0675
57323W        W58187   8.325   2.902  23.959 -0.0489 -0.1107 -0.0138
57324W        W58188   9.339   6.621  22.548 -0.1483  0.1015 -0.0568
57325W        W58189   5.307   5.790  23.238  0.1795  0.2294  0.2696
57326W        W58190  10.465   4.719  22.645  0.1780 -0.0741 -0.1207
57327W        W58191  10.405   5.527  22.494 -0.1982 -0.3182 -0.1895
57328W        W58192   9.104   7.144  22.465  0.0930  0.0766 -0.0236
57329W        W58193  12.691   6.085  23.421 -0.0764  0.0249  0.0610
57330W        W58194  11.013   7.662  20.318  0.0178 -0.2996 -0.2878
57331W        W58195   7.849   2.006  16.272  0.0089 -0.0929  0.1562
57332W        W58196   7.497   5.622  24.857  0.0911  0.0547  0.2493
57333W        W58197  11.126   4.019  26.005  0.0703  0.2028  0.0151
57334W        W58198   8.345   4.123  27.227  0.0359  0.0825  0.0018
57335W        W58199   6.714   7.226  22.326  0.1226  0.1592 -0.1045
57336W        W58200   7.854   5.344  24.218 -0.0342  0.0656  0.0904
57337W        W58201   9.627   7.378  25.991  0.0895  0.1768  0.0404
57338W        W58202   7.668   7.085  25.942  0.0697 -0.0446 -0.2370
57339W        W58203   9.262   7.302  22.999 -0.1528  0.0532 -0.2683
57340W        W58204   7.813   8.153  24.522  0.0816 -0.1332 -0.1101
57341W        W58205  10.871   6.498  25.410  0.3912 -0.1557  0.1229
57342W        W58206   8.503   6.588  23.444 -0.2953  0.1976  0.1089
57343W        W58207   9.314   7.531  22.138  0.2113  0.0088 -0.1552
57344W        W58208   8.720   6.065  22.814  0.1251  0.2947 -0.0949
57345W        W58209  10.585   5.539  22.045  0.0740 -0.0707  0.3639
57346W        W58210   7.214   8.156  22.748  0.0722  0.0477  0.2626
57347W        W58211  13.420   4.091  24.222  0.2547  0.1737  0.0916
57348W        W58212  11.839   9.164  23.240 -0.0608  0.0897  0.4252
57349W        W58213  11.153   6.478  26.496 -0.1294 -0.1038  0.1685
57350W        W58214  10.966   5.611  19.948 -0.2144  0.0753  0.3168
57351W        W58215  10.565   6.608  23.396 -0.1560  0.2650  0.1918
57352W        W58216   9.271   5.627  22.230  0.0315  0.0749  0.1665
57353W        W58217  10.235   8.362  25.043 -0.1928 -0.0652  0.1917
57354W        W58218   7.902   4.742  24.302 -0.2889 -0.0019  0.0650
57355W        W58219   7.079   6.257  23.972 -0.2892 -0.0245  0.1512
57356W        W58220   7.350   6.745  22.589  0.0552 -0.0529 -0.0821
57357W        W58221   7.846   8.887  23.195  0.0389  0.4173  0.0357
57358W        W58222   6.200   4.586  23.070 -0.0452 -0.0577  0.2602
57359W        W58223  10.005   6.069  25.727 -0.2795 -0.0439 -0.1550
57360W        W58224   9.639   6.788  24.901 -0.0249  0.1532 -0.3265
57361W        W58225   9.593   4.769  23.257 -0.1912  0.1629  0.0179
57362W        W58226   8.476   7.138  24.065 -0.1248  0.0751 -0.1351
57363W        W58227   9.100   7.314  23.884 -0.0734  0.1902  0.0077
57364W        W58228   8.636   9.642  23.746  0.1202  0.1203 -0.1558
57365W        W58229   9.904   4.102  24.137 -0.0109  0.3067 -0.1726
57366W        W58230   8.566   7.673  25.825 -0.2872 -0.2742 -0.2263
57367W        W58231   6.838   7.316  24.460  0.1867  0.1913  0.0524
57368W        W58232  10.848   6.314  22.922  0.0825 -0.0193 -0.0312
57369W        W58233  11.383   4.635  23.628 -0.1127  0.0784 -0.2170
57370W        W58234   7.081   8.342  23.227  0.1919  0.3111  0.2594
57371W        W58235   8.690   5.215  24.850  0.0016  0.2032  0.0724
57372W        W58236  10.247   6.930  23.670  0.1997 -0.1281 -0.2330
57373W        W58237   9.858   6.996  24.434  0.2982 -0.0933 -0.3646
57374W        W58238   9.481   4.538  24.814 -0.4584 -0.2257 -0.1018
57375W        W58239   5.486   5.634  20.816 -0.0093  0.0082  0.2652
57376W        W58240   9.075   8.667  27.220  0.1130 -0.0134 -0.2662
57377W        W58241   7.558   4.250  25.553  0.3310  0.1009 -0.3789
57378W        W58242   8.631   7.807  24.514 -0.4093 -0.1946 -0.1732
57379W        W58243  10.153   7.103   0.012  0.3354  0.1284  0.2507
57380W        W58244   6.404   7.651  22.895  0.2159  0.0384 -0.0813
57381W        W58245   9.715   4.728  27.917  0.2708 -0.0287  0.3506
57382W        W58246   8.516   5.101  26.626 -0.0283  0.4783  0.0599
57383W        W58247  10.815   6.798  23.788 -0.2215  0.0435  0.1028
57384W        W58248   8.485   7.265  27.917 -0.0820  0.1982 -0.0088
57385W        W58249   8.177   1.582  28.124 -0.1412  0.2027 -0.1138
57386W        W58250   6.437   3.640  28.149  0.0875  0.2241  0.1143
57387W        W58251  10.055   5.553  28.068 -0.0503 -0.0151  0.1972
57388W        W58252  10.598   7.467  26.482  0.0582  0.3414 -0.1530
57389W        W58253   6.558   2.329  28.803  0.1559  0.0708  0.0488
57390W        W58254   5.230   4.303  24.785  0.0010 -0.0213 -0.3382
57391W        W58255   7.141   5.823  27.700 -0.0921  0.0373  0.1667
57392W        W58256   9.433   7.491  25.447  0.2070 -0.0565 -0.0662
57393W        W58257   8.398   6.641  27.711 -0.0620  0.0500 -0.0612
57394W        W58258   9.093   3.504   0.514 -0.0100  0.2653 -0.0431
57395W        W58259  10.073   2.722  27.154 -0.0691  0.0404 -0.1943
57396W        W58260   9.188   4.663   0.153 -0.2236  0.3300  0.0831
57397W        W58261   8.388   6.018  28.451  0.0188 -0.1905 -0.0321
57398W        W58262   8.111   5.287  27.328 -0.1226 -0.1346 -0.0574
57399W        W58263   8.341   3.847  26.767 -0.3548 -0.2852  0.2905
57400W        W58264   6.093   7.534  27.415 -0.0390 -0.0394  0.0026
57401W        W58265   6.224   3.177  27.345  0.1852 -0.1560  0.1713
57402W        W58266  12.339   4.148   0.151 -0.3706 -0.0455 -0.1597
57403W        W58267   7.949   5.991  25.552  0.0692  0.1517 -0.1133
57404W        W58268   7.816   5.670  26.429 -0.0780  0.1415  0.1614
57405W        W58269  10.306   7.178  24.680 -0.0379 -0.1145  0.1547
57406W        W58270   9.207   6.963  26.184  0.0609 -0.0351 -0.0525
57407W        W58271   9.228   3.553  28.216  0.1057  0.1371 -0.1890
57408W        W58272   7.290   6.313  27.655 -0.4320  0.2898 -0.0424
57409W        W58273   9.332   3.574  26.738 -0.0957  0.3140  0.3454
57410W        W58274   5.525   3.335  28.240 -0.4101 -0.0032  0.2635
57411W        W58275   9.316   4.695   0.611 -0.3390 -0.1171  0.0688
57412W        W58276   7.057   3.065  28.036  0.0625  0.1163 -0.3229
57413W        W58277   7.605   8.472  27.932 -0.3195  0.0959 -0.1713
57414W        W58278  13.101   6.279  24.178 -0.1353 -0.0050 -0.3002
57415W        W58279   8.336   0.751  28.788 -0.2782 -0.2232  0.3583
57416W        W58280   8.578   3.415  26.762 -0.2196  0.0459  0.0666
57417W        W58281  11.812   6.923   0.323  0.0728  0.1334  0.1305
57418W        W58282   8.723   6.357   0.941  0.2017  0.0345 -0.0861
57419W        W58283   9.432   4.191  24.441  0.1965  0.2200 -0.2420
57420W        W58284   8.362   9.182  27.519  0.1096  0.1920 -0.1429
57421W        W58285   8.734   5.861  26.189  0.0645  0.2699 -0.2249
57422W        W58286   9.074   4.815  23.595  0.1711 -0.0261  0.1330
57423W        W58287   9.565   6.325  28.328 -0.0796 -0.0784 -0.2588
57424W        W58288  10.225   6.158  26.717 -0.2644 -0.0087  0.0213
57425W        W58289  11.129   5.483  24.637 -0.2679  0.2128  0.1295
57426W        W58290   9.545   6.090  27.871 -0.2179  0.0213  0.1252
57427W        W58291   9.001   4.327  24.735  0.0562 -0.0395  0.0035
57428W        W58292  10.908   4.912  28.946  0.1456 -0.0392  0.3175
57429W        W58293   8.405   5.450  26.955 -0.1429 -0.0377  0.0998
57430W        W58294  10.172   3.044  23.497 -0.0858  0.0152  0.0448
57431W        W58295   6.815   8.168  27.045 -0.0062  0.1004  0.0724
57432W        W58296   7.494   5.224  26.531 -0.0555  0.1013  0.0344
57433W        W58297  10.435   7.262  26.033  0.0286 -0.0464  0.1839
57434W        W58298   9.900   4.859  24.767 -0.1169 -0.3122  0.1442
57435W        W58299  10.127   5.092  25.243 -0.0804 -0.0633 -0.0058
57436W        W58300  12.620   4.669  27.824 -0.1901  0.0041  0.0030
57437W        W58301   7.615   7.814   1.006 -0.0047  0.1971  0.1089
57438W        W58302   8.770   8.604  29.094 -0.0227 -0.3225 -0.1488
57439W        W58303   9.720   4.663  25.274 -0.0223  0.0854  0.0082
57440W        W58304   8.965   1.386  27.758  0.0702 -0.1962  0.0536
57441W        W58305  12.483   4.759  27.342  0.2774  0.1507  0.0280
57442W        W58306   8.185   6.351  24.840 -0.0836 -0.0520 -0.1169
57443W        W58307   8.887   3.755  26.532  0.0933  0.2108 -0.2362
57444W        W58308   7.975   5.320  25.615  0.0866  0.3030 -0.0526
57445W        W58309   8.850   6.749  27.998  0.1197 -0.1913 -0.0738
57446W        W58310  10.231   5.078   0.744  0.2664 -0.0450  0.0777
57447W        W58311   9.308   3.373  23.706  0.0835 -0.1153  0.0839
57448W        W58312  10.724   5.243  24.833  0.1854 -0.2615  0.4588
57449W        W58313  11.036   6.453   1.188 -0.1840  0.1851 -0.5654
57450W        W58314   9.138   8.137  27.030  0.2919 -0.0846  0.0314
57451W        W58315  11.055   6.302  27.904 -0.0163  0.1895  0.1267
57452W        W58316   9.581   5.609  26.777 -0.2242 -0.2604 -0.1068
57453W        W58317   8.715   7.443   1.043  0.2848  0.2908  0.0473
57454W        W58318  10.903   6.843  24.286 -0.0647 -0.3843  0.1145
57455W        W58319   7.715   7.769  27.196 -0.0576 -0.2500 -0.0616
57456W        W58320   8.755   2.016  26.564  0.1063 -0.0225 -0.0468
57457W        W58321   6.003   2.264  26.378 -0.1026 -0.0300  0.2157
57458W        W58322   9.097   5.361  28.247 -0.3491  0.0128  0.1806
57459W        W58323   8.634   1.922  27.061 -0.0248  0.1624  0.0018
57460W        W58324   7.853   3.872  28.785  0.2207 -0.2362  0.0002
57461W        W58325  11.038   6.080  25.147 -0.0528  0.0594 -0.1535
57462W        W58326   7.484   6.783   0.215 -0.0249  0.1923  0.1862
57463W        W58327  10.459   3.320  27.117 -0.0637  0.2081  0.1188
57464W        W58328  10.259   7.064   0.927  0.0310 -0.2745 -0.1561
57465W        W58329  12.697   2.592   0.619 -0.0387  0.1566  0.0962
57466W        W58330  10.434   5.245  25.824 -0.2738  0.0984  0.1068
57467W        W58331  10.879   1.962   1.551  0.1423  0.0193 -0.2906
57468W        W58332  10.189   4.809  26.531  0.1611  0.2605  0.1633
57469W        W58333   8.140   3.419  25.884 -0.1415 -0.2189 -0.0324
57470W        W58334   5.849   2.920  27.573  0.1272  0.3056  0.2003
57471W        W58335  10.059   6.544  27.882  0.0017 -0.3102  0.0982
57472W        W58336  10.588   4.039  28.432  0.0006 -0.0565  0.1849
57473W        W58337   3.608   6.230   1.009  0.1863 -0.2261 -0.1049
57474W        W58338   6.824   6.082  25.267  0.0451  0.3616 -0.0108
57475W        W58339   8.563   3.180  24.857 -0.1263  0.1958 -0.1627
57476W        W58340  12.168   7.272  26.003  0.0993  0.1115  0.1421
57477W        W58341   7.337   5.691  26.718 -0.1882 -0.3897 -0.0321
57478W        W58342   8.727   2.161  23.972  0.0656 -0.2847 -0.0913
57479W        W58343  11.357   5.158  27.044 -0.0677  0.1715  0.0416
57480W        W58344  10.353   4.638  28.847  0.0524 -0.3869  0.3054
57481W        W58345   9.568   2.611  27.067 -0.0432  0.0816 -0.0336
57482W        W58346   9.353   8.225  24.781 -0.2146 -0.0626  0.2687
57483W        W58347   8.622   3.264   0.320  0.2664 -0.0137 -0.5318
57484W        W58348   7.660   3.286  26.034  0.0367  0.1920 -0.1303
57485W        W58349   7.564   4.241  27.317  0.1091  0.1813  0.2067
57486W        W58350   4.960   4.497  27.560 -0.3092  0.1523  0.0001
57487W        W58351   7.015   6.721  27.215  0.1596  0.1323 -0.0465
57488W        W58352  12.500   5.771  27.389  0.1742 -0.3970 -0.0343
57489W        W58353   8.957   4.970  29.057 -0.2159 -0.0021 -0.0255
57490W        W58354  10.756   8.763  25.858 -0.1059  0.3368  0.1126
57491W        W58355   6.734   5.344  26.122 -0.1773 -0.1672  0.0278
57492W        W58356  11.348   2.824   0.982 -0.1432 -0.1261 -0.2349
57493W        W58357   9.367   6.410  27.503 -0.0715  0.0863 -0.1096
57494W        W58358   9.251   4.677  27.659  0.1900  0.4007  0.0304
57495W        W58359   9.788   2.762  26.322 -0.0233 -0.1939 -0.0250
57496W        W58360   9.830   4.147  27.078  0.1403  0.2751  0.0226
57497W        W58361   7.474   8.026  25.909 -0.6050 -0.1583 -0.0196
57498W        W58362  10.128   5.973  27.850  0.1604  0.0504 -0.0348
57499W        W58363   9.415   6.156  26.906  0.3849 -0.0525  0.2670
57500W        W58364  11.276   6.789  27.977  0.0974 -0.4205 -0.1420
57501W        W58365  11.003   6.359  27.367  0.0429  0.0186  0.2760
57502W        W58366   8.633   4.602  24.893 -0.1377 -0.0537  0.0022
57503W        W58367   9.333   4.655   1.149 -0.0153  0.0643 -0.1973
57504W        W58368  10.178   7.134  27.230  0.0379 -0.1120  0.0423
57505W        W58369   7.469   7.049  27.119 -0.3643  0.0303 -0.0017
57506W        W58370   9.058   7.521   0.113  0.0504  0.2595  0.1377
57507W        W58371   9.453   5.921  27.348 -0.2430  0.0082 -0.0338
57508W        W58372  11.806   7.966  26.991  0.0822 -0.0968  0.0941
57509W        W58373  11.977   6.081  25.652 -0.1050 -0.1385  0.0538
57510W        W58374  12.051   4.291  28.046  0.1801 -0.0080  0.0207
57511W        W58375   6.370   5.304  28.676  0.1287  0.1440  0.0181
57512W        W58376   6.881   5.043  27.053  0.1182  0.1636 -0.0209
57513W        W58377  11.007   4.720   1.098  0.0316 -0.1868 -0.1810
57514W        W58378   6.856   7.643  27.118  0.1539  0.0041  0.0743
57515W        W58379   8.235   5.970  26.265 -0.1253 -0.1675 -0.2289
57516W        W58380   9.634   6.890  25.920 -0.0185 -0.0337 -0.2246
57517W        W58381   6.581   3.259  27.691 -0.0284  0.0514 -0.0331
57518W        W58382   7.126   6.185  26.764  0.1966 -0.0018  0.0151
57519W        W58383   9.969   5.056  25.739 -0.2589 -0.1889  0.0609
57520W        W58384   8.936   5.481  26.556 -0.4026  0.0463  0.1678
57521W        W58385   7.872   3.906  26.896  0.1868 -0.1321  0.0708
57522W        W58386  11.039   3.182  27.491  0.0363 -0.2154 -0.1990
57523W        W58387   8.790   7.711  27.935 -0.0575  0.0454  0.0526
57524W        W58388   8.499   4.429  26.870  0.0171  0.0683  0.2548
57525W        W58389   9.028   4.344  28.684  0.0193  0.1802  0.1326
57526W        W58390  11.081   7.764  28.702 -0.0938 -0.1624 -0.3170
57527W        W58391   8.205   5.116  26.194 -0.2094 -0.2723 -0.1588
57528W        W58392   7.349   3.220  28.443  0.1270  0.0338  0.2357
57529W        W58393   6.306   5.715  24.627  0.1766 -0.2581  0.1822
57530W        W58394   9.578   4.939  27.302  0.1573 -0.0536 -0.0301
57531W        W58395   9.391   3.099  27.154  0.1574 -0.2387  0.2472
57532W        W58396   5.956   3.620  28.351 -0.3604  0.1369  0.0697
57533W        W58397   9.519   5.904  26.052 -0.3967 -0.1176  0.0179
57534W        W58398   5.329   3.553  24.307  0.0823  0.1130 -0.0594
57535W        W58399   7.785   4.773  26.289  0.0272  0.1006  0.2244
57536W        W58400  11.926   4.413   0.382 -0.0482  0.0688 -0.1739
57537W        W58401   8.066   6.497  28.111 -0.0593 -0.4014 -0.2675
57538W        W58402   8.266   2.061  28.485  0.0161  0.0876 -0.0100
57539W        W58403   6.955   5.335  28.009 -0.0717 -0.2643 -0.1714
57540W        W58404  10.183   3.651  26.028 -0.0617 -0.1641 -0.1123
57541W        W58405   8.814   4.999  25.290 -0.1161 -0.0209  0.1056
57542W        W58406  10.485   5.015   0.061 -0.0871  0.1945 -0.0381
57543W        W58407   5.374   6.041  27.210  0.0985  0.0265  0.0901
57544W        W58408   8.722   7.296   0.435  0.3663 -0.0234 -0.2530
57545W        W58409   8.880   7.399  24.903  0.0442  0.0066 -0.0627
57546W        W58410   7.887   4.299  27.703 -0.2440  0.0726 -0.1861
57547W        W58411   9.477   5.219  28.924 -0.3567  0.1117  0.0138
57548W        W58412   8.912   5.312  27.022  0.1351 -0.2381 -0.1879
57549W        W58413  10.055   7.161  25.739  0.1519 -0.0071  0.1912
57550W        W58414   9.753   5.167  28.138 -0.1891  0.3324  0.0857
57551W        W58415  11.422   3.681   0.488 -0.1135  0.2185  0.3550
57552W        W58416   8.199   7.253  28.335  0.2041 -0.2565 -0.1806
57553W        W58417   8.116   8.156  27.215 -0.1254 -0.0489 -0.2832
57554W        W58418   8.793   8.294   0.980  0.2181  0.1600  0.2354
57555W        W58419  10.256   7.154  28.662 -0.0500 -0.1422  0.2110
57556W        W58420   7.385   7.569  25.829  0.1757  0.1681  0.1491
57557W        W58421   8.316   8.459  25.174  0.0489  0.0569  0.2225
57558W        W58422   9.692   7.631  26.482 -0.0441  0.1649 -0.1787
57559W        W58423   7.204   5.513  26.229  0.1577  0.0714 -0.1911
57560W        W58424   9.373   4.060  26.670  0.0163 -0.2379 -0.1010
57561W        W58425   9.936   5.554  25.975  0.1374 -0.2682  0.0047
57562W        W58426  11.479   3.376  27.708  0.2594  0.0506  0.1132
57563W        W58427   7.554   3.191  27.488  0.1111 -0.0124 -0.2098
57564W        W58428   8.481   5.742  24.985  0.0180  0.1177 -0.2774
57565W        W58429   8.352   7.191   0.029 -0.2482  0.0799 -0.2554
57566W        W58430   8.292   7.644  27.177  0.0171 -0.0527  0.0630
57567W        W58431   6.026   4.580  28.398  0.3119 -0.1068 -0.2385
57568W        W58432   7.128   2.935  26.467  0.3787  0.0300 -0.1750
57569W        W58433   9.895   0.845   0.414  0.1230  0.1646 -0.0126
57570W        W58434   9.588   2.087  26.898 -0.2310  0.2535  0.0349
57571W        W58435   8.078   2.424  23.969 -0.4387 -0.1077  0.1557
57572W        W58436  10.057   2.996  26.685 -0.0552 -0.0765 -0.2907
57573W        W58437   5.417   5.131  26.863 -0.0485  0.0580  0.0851
57574W        W58438   9.127   6.167  24.163  0.1346 -0.1089 -0.0441
57575W        W58439  10.484   7.087  27.735  0.1578 -0.0836  0.2890
57576W        W58440   8.733   7.591  26.300 -0.0411  0.3450  0.0162
57577W        W58441   8.592   5.030  27.249 -0.0114 -0.1724  0.0459
57578W        W58442  13.357   6.779  26.974  0.0119 -0.1138  0.0770
57579W        W58443   8.064   3.004  24.875 -0.0905 -0.1159 -0.3266
57580W        W58444   6.949   7.383  26.282  0.2060 -0.1479 -0.0067
57581W        W58445   7.900   6.892  28.559  0.3409  0.4427  0.2745
57582W        W58446   9.004   4.313  26.894 -0.3278  0.0453  0.2102
57583W        W58447  10.567   2.788  27.218 -0.0562 -0.4820 -0.0244
57584W        W58448  10.049   9.179  24.505 -0.1193 -0.0730 -0.2982
57585W        W58449   8.809   7.140  25.912  0.0821 -0.1357 -0.3250
57586W        W58450   6.626   4.830  25.926 -0.1520 -0.0594  0.2740
57587W        W58451   6.904   3.484  28.210  0.2571  0.1457 -0.3036
57588W        W58452   8.225   3.856  27.734  0.0019  0.0618  0.0411
57589W        W58453  11.852   3.863  28.206  0.2984 -0.2434  0.3750
57590W        W58454   8.041   7.018  27.872  0.2382  0.5791  0.1606
57591W        W58455  12.010   6.030  27.470  0.0277  0.1576 -0.1710
57592W        W58456  12.500   2.378  24.742 -0.2322  0.0056  0.0766
57593W        W58457  10.369   9.270  24.918  0.1880  0.2940  0.1857
57594W        W58458   5.305   4.664  29.122  0.0725 -0.0068  0.2611
57595W        W58459   8.550   3.839   0.742  0.1731  0.0616 -0.0469
57596W        W58460  12.175   2.774  28.820 -0.2299 -0.1151  0.4542
57597W        W58461  10.906   5.980  25.769 -0.3491  0.1393  0.0210
57598W        W58462   9.402   7.533  28.881  0.2347  0.0907  0.2171
57599W        W58463   9.252   5.917  26.499 -0.0546  0.3731  0.1305
57600W        W58464  10.391   6.140  24.829  0.0432  0.1874 -0.1030
57601W        W58465   5.753   4.151  28.420  0.1881 -0.0530 -0.1902
57602W        W58466   9.425   7.156  28.038  0.0159  0.0691  0.0253
57603W        W58467   8.451   6.027   1.293  0.1885 -0.0668 -0.0890
57604W        W58468   8.821   9.558  27.611 -0.2146 -0.0915  0.0038
57605W        W58469  10.506   5.284  28.195  0.1238  0.0676  0.0987
57606W        W58470   8.972   3.188  26.829  0.1302 -0.3838 -0.0821
57607W        W58471   9.830   6.770  27.396  0.0151  0.2046  0.0959
57608W        W58472  10.991   7.544  25.633  0.2114  0.0123 -0.3258
57609W        W58473  11.185   7.283  24.502  0.4661 -0.0482 -0.0000
57610W        W58474   8.258   4.711  26.507 -0.3650 -0.5271  0.0539
57611W        W58475   9.069   5.031  26.455  0.1750  0.1709  0.3174
57612W        W58476  12.202   4.423  27.113  0.1587  0.0301 -0.0383
57613W        W58477   8.827   0.809  28.642 -0.0509  0.0382  0.4038
57614W        W58478  11.049   7.504   0.546 -0.1799  0.0934  0.1964
57615W        W58479  10.604   8.073  27.521 -0.2140 -0.1712  0.1002
57616W        W58480   6.902   8.137  25.633  0.0616  0.1651 -0.0507
57617W        W58481   8.511   6.576  27.203 -0.0611  0.1425 -0.1506
57618W        W58482   6.809   2.851  28.539 -0.1396  0.1120 -0.4825
57619W        W58483   7.099   6.509  25.360  0.1410 -0.0091  0.1492
57620W        W58484  10.418   4.057  28.919 -0.0996  0.3415  0.2515
57621W        W58485   6.233   6.024  25.121 -0.0110  0.0055  0.3204
57622W        W58486   8.783   6.251  28.292  0.0607  0.0492 -0.2741
57623W        W58487   9.004   5.125  27.486  0.0363 -0.1688 -0.1609
57624W        W58488   8.570   9.203  26.323 -0.0570  0.0272  0.0613
57625W        W58489   5.906   4.367  26.309 -0.1765  0.1132  0.0040
57626W        W58490   9.083   4.909  24.843 -0.2687  0.3112 -0.1685
57627W        W58491   8.216   7.372   0.561  0.0013 -0.2809  0.0326
57628W        W58492  10.599   8.590   0.712 -0.2177  0.2488 -0.2784
57629W        W58493   7.756   5.085  28.185  0.0207 -0.2802  0.2328
57630W        W58494   8.292   8.407  23.926  0.0409 -0.0615  0.0817
57631W        W58495  11.017   7.191  27.842 -0.1837  0.1670  0.2587
57632W        W58496  10.648   4.062  27.591 -0.3709  0.3285 -0.0052
57633W        W58497   9.658   1.117  25.505  0.1611 -0.1734  0.0517
57634W        W58498   8.946   6.799  27.114 -0.0078  0.0078 -0.1233
57635W        W58499   8.216   3.281  24.513 -0.2505  0.1369  0.1603
57636W        W58500   9.052   4.204  27.836 -0.0352  0.1524  0.1517
57637W        W58501   6.610   3.284  24.410 -0.1543  0.1967 -0.0037
57638W        W58502   9.266   5.802   1.366  0.1429  0.2645  0.2577
57639W        W58503   6.038   3.552  25.579 -0.1554  0.2004 -0.2029
57640W        W58504   8.345   9.653   1.235 -0.2293 -0.2540 -0.0175
57641W        W58505   7.793   8.208   1.341 -0.2752  0.0434 -0.1641
57642W        W58506   7.273   8.376  27.115 -0.1288 -0.0408  0.0199
57643W        W58507  10.057   6.017  24.167  0.0180  0.1749  0.0646
57644W        W58508  11.893   5.143  28.121 -0.0639  0.0373 -0.1324
57645W        W58509   9.334   3.515  25.308  0.0515 -0.0269 -0.2737
57646W        W58510   8.795   5.591  25.730 -0.0908 -0.1917  0.0606
57647W        W58511   7.584   3.871   0.120  0.0079 -0.1252 -0.0973
57648W        W58512   6.763   4.008  28.251  0.0099 -0.0425  0.1117
57649W        W58513   7.666   5.659  29.021 -0.1759  0.1197  0.3941
57650W        W58514   9.962   7.916  26.808 -0.0701 -0.1945 -0.0526
57651W        W58515   9.541   4.389  26.085  0.1150 -0.2337  0.2983
57652W        W58516   9.887   3.213  27.308 -0.0725 -0.0365  0.0569
57653W        W58517   6.510   4.598  26.923  0.1721  0.0014 -0.1924
57654W        W58518  11.991   4.318  24.668  0.0720  0.1126 -0.0166
57655W        W58519   6.116   4.219  28.753  0.1853  0.4261  0.0852
57656W        W58520   6.843   6.294  27.268 -0.2366 -0.0263 -0.3919
57657W        W58521   6.843   3.410  26.701  0.1069 -0.0086 -0.2150
57658W        W58522   7.493   4.756  28.439  0.0808  0.2197 -0.1120
57659W        W58523   6.283   6.909  28.108 -0.1242  0.1083  0.1635
57660W        W58524  11.431   6.505  26.113  0.2341  0.0975 -0.2202
57661W        W58525   8.444   6.782  28.264 -0.0194 -0.3721 -0.2016
57662W        W58526  10.783   6.973  28.217  0.2948  0.0855 -0.0548
57663W        W58527   8.691   3.635  28.536 -0.1867 -0.1656 -0.0269
57664W        W58528  10.406   3.870  26.406  0.1426 -0.1747  0.2386
57665W        W58529   9.265   7.093  25.667 -0.0707  0.0210 -0.1802
57666W        W58530   6.337   4.959  27.255  0.1268 -0.0727  0.1530
57667W        W58531   9.686   6.382  25.981  0.1171 -0.1223  0.1091
57668W        W58532  11.417   2.037  28.807 -0.2099 -0.3391 -0.1649
57669W        W58533   9.550   8.097  25.366 -0.0886 -0.0691  0.1665
57670W        W58534   9.293   7.682  26.897 -0.0880 -0.1804  0.2252
57671W        W58535  10.552   5.704  25.381 -0.0050 -0.1176 -0.3295
57672W        W58536   7.007   5.321  26.698  0.1681  0.1430  0.1190
57673W        W58537  12.466   5.986  25.898 -0.2472  0.0040 -0.1613
57674W        W58538  11.864   2.577   0.426 -0.2058  0.1239 -0.0184
57675W        W58539   6.030   7.552  26.418 -0.1652 -0.0173 -0.0551
57676W        W58540   9.927   7.697  25.676 -0.0724  0.1859 -0.0073
57677W        W58541   7.833   6.195  28.786 -0.0273  0.1778 -0.0402
57678W        W58542   8.109   5.879  26.808 -0.2148 -0.2475 -0.0384
57679W        W58543  10.697   6.802  26.243 -0.1531 -0.0339 -0.1487
57680W        W58544  11.282   6.685  25.685  0.3129  0.6255 -0.0237
57681W        W58545  12.618   6.481   0.167 -0.2084 -0.1917 -0.0000
57682W        W58546   8.951   5.488   0.105  0.2170  0.0175 -0.1065
57683W        W58547   7.485   6.418  26.438 -0.2262  0.0246  0.0829
57684W        W58548   9.731   4.637   0.087 -0.0071  0.2167  0.3097
57685W        W58549   8.410   7.718   0.250 -0.0558  0.2146  0.2641
57686W        W58550   8.488   2.800  25.209  0.1441 -0.2205 -0.2483
57687W        W58551   9.433   5.206  27.726 -0.1525 -0.0350  0.1025
57688W        W58552   9.262   3.756  29.147  0.0577 -0.0319  0.0839
57689W        W58553   9.894   8.710  28.916  0.1188  0.0690  0.2337
57690W        W58554   7.084   7.186  28.878  0.2208 -0.0282  0.2123
57691W        W58555   7.755   5.184  28.716 -0.2126  0.2609 -0.0670
57692W        W58556   8.354   4.889  24.582  0.0791  0.1124  0.0393
57693W        W58557  10.377   4.875  26.992  0.0002 -0.1402  0.0454
57694W        W58558  11.204   7.137   0.050 -0.0462  0.1627 -0.1322
57695W        W58559   7.777   5.636  27.048  0.0670  0.3123  0.0735
57696W        W58560   7.642   7.009  28.201 -0.1694 -0.0522 -0.0072
57697W        W58561  10.393   7.974  26.579 -0.1513  0.0924 -0.0085
57698W        W58562   7.657   6.101  26.907 -0.1016 -0.2045  0.0340
57699W        W58563  10.896   4.859  27.336 -0.0076 -0.1082  0.0495
57700W        W58564   8.623   6.752  25.637 -0.1667 -0.1285 -0.0042
57701W        W58565   7.682   4.819  29.052 -0.0280  0.1912 -0.2595
57702W        W58566   7.995   3.235  27.321 -0.0886  0.0914 -0.1263
57703W        W58567   8.842   5.965  25.264  0.2056  0.0156 -0.0584
57704W        W58568  10.419   5.724  25.880 -0.0755  0.2177 -0.0027
57705W        W58569   8.263   5.556  25.930  0.0892  0.1190 -0.1949
57706W        W58570  10.789   4.242   0.880 -0.1449  0.0941 -0.0716
57707W        W58571  10.863   3.414  24.885 -0.0903  0.0757  0.0979
57708W        W58572   8.576   4.262   1.014 -0.0294  0.2943 -0.1289
57709W        W58573   8.496   8.596  27.410 -0.3013  0.2501 -0.1255
57710W        W58574  12.333   3.982  28.434 -0.1085 -0.0225  0.2604
57711W        W58575   7.722   7.246   2.719 -0.3548  0.2978 -0.0302
57712W        W58576   9.992   7.024  27.851 -0.1244  0.0599 -0.0101
57713W        W58577   7.896   9.314  26.406  0.0632 -0.1578  0.2685
57714W        W58578   9.044   5.804  27.080 -0.0911  0.2536 -0.0196
57715W        W58579  10.745   4.820  25.791 -0.0178 -0.3209 -0.1190
57716W        W58580   8.371   6.447  26.238 -0.0479 -0.1214 -0.1830
57717W        W58581   9.873   3.000  28.279 -0.1287 -0.1593  0.2204
57718W        W58582   9.459   4.492  27.107  0.2545  0.1389 -0.2339
57719W        W58583  11.154   8.419  26.104  0.1771 -0.0477 -0.0152
57720W        W58584   9.517   5.277  26.311 -0.2790  0.0457 -0.1633
57721W        W58585   6.787   7.149  27.453 -0.4116 -0.1890 -0.0334
57722W        W58586   7.465   6.522  27.096  0.1135  0.1545 -0.0393
57723W        W58587   6.147   7.206  25.773 -0.1300 -0.0811  0.0525
57724W        W58588   9.394   7.008  26.681 -0.2209 -0.0459  0.1589
57725W        W58589   8.560   4.482  24.343 -0.0925 -0.1877 -0.0587
57726W        W58590   8.197   4.160  28.167 -0.0357  0.1762  0.0472
57727W        W58591   8.082   3.501  25.040  0.1278  0.2051  0.0779
57728W        W58592   8.095   6.215  27.669  0.3290  0.1145 -0.1885
57729W        W58593   9.930   5.881  27.152  0.0930 -0.1940 -0.0404
57730W        W58594   8.958   8.484  25.735 -0.0516 -0.3315  0.1922
57731W        W58595   9.176   4.113  26.195 -0.0163  0.0056  0.0143
57732W        W58596   8.205   7.952  23.701 -0.0508  0.3508  0.0693
57733W        W58597   8.759   1.583  28.292  0.3062  0.2372  0.1379
57734W        W58598   7.283   5.204  28.365 -0.2541 -0.1392  0.2292
57735W        W58599   8.688   5.865  26.752  0.1940 -0.0998  0.4380
57736W        W58600   8.185   6.698  25.210  0.1985  0.0832 -0.0785
57737W        W58601   9.450   4.223  29.086 -0.0027 -0.0588 -0.2820
57738W        W58602   7.317   7.876  26.992 -0.1945 -0.2391  0.2044
57739W        W58603   8.774   3.680  25.471  0.1687  0.1434  0.1490
57740W        W58604  11.794   6.850  24.856 -0.3674 -0.1704 -0.1060
57741W        W58605  10.587   7.745  25.985 -0.1944 -0.0485  0.0684
57742W        W58606  10.705   5.362  27.710 -0.1037  0.1495 -0.0227
57743W        W58607   9.538   5.473  28.473  0.2927  0.0761 -0.0648
57744W        W58608   8.279   2.045  25.721 -0.0982  0.0752  0.2085
57745W        W58609   8.910   2.933  27.783 -0.1194 -0.0938 -0.2519
57746W        W58610   7.346   6.459  25.912 -0.0601 -0.1392 -0.2688
57747W        W58611  10.495   5.141  28.692 -0.1056  0.1932  0.1966
57748W        W58612  10.328   3.511  24.461  0.1707 -0.0082  0.0829
57749W        W58613  12.253   7.460  26.443  0.1078  0.0773  0.1095
57750W        W58614  10.812   6.736  27.676  0.1021 -0.0257  0.2554
57751W        W58615   9.130   2.088   0.214  0.3035 -0.2343 -0.0721
57752W        W58616   5.354   3.399   0.596  0.0147 -0.1560  0.2142
57753W        W58617   9.226   8.539  28.302  0.0838  0.2477  0.2739
57754W        W58618   4.987   3.736  28.755  0.0560 -0.0055  0.3930
57755W        W58619   9.056   5.321  28.732  0.0650 -0.0357 -0.0907
57756W        W58620   5.639   3.891  27.343 -0.0411 -0.1727  0.2217
57757W        W58621  10.803   6.276   0.195  0.2399 -0.1664 -0.0859
57758W        W58622   8.024   4.817  25.825  0.1183  0.1279  0.1139
57759W        W58623   8.898   4.863  28.507 -0.1435  0.1701 -0.0302
57760W        W58624  11.413   8.116  28.868 -0.1084  0.0798  0.1581
57761W        W58625  10.352   6.182  27.237 -0.0034  0.1881 -0.1736
57762W        W58626   9.669   7.394  26.932 -0.0847 -0.3561  0.0133
57763W        W58627   9.141   6.275  28.669 -0.2005  0.0031 -0.0993
57764W        W58628   7.582   5.635  27.506 -0.1572  0.0120  0.0833
57765W        W58629   9.700   5.574   1.755  0.0294 -0.1439 -0.1566
57766W        W58630   8.882   8.002  29.112  0.1176  0.0180 -0.1829
57767W        W58631   9.684   6.217  26.473  0.1550  0.1070 -0.2142
57768W        W58632  11.551   6.449  28.079 -0.4520  0.1351 -0.0746
57769W        W58633   9.469   6.718  28.818  0.1125  0.3176  0.1016
57770W        W58634   8.136   7.380  25.857  0.0744 -0.1321  0.1373
57771W        W58635   8.799   4.631  26.476  0.1425  0.1573  0.2731
57772W        W58636   8.316   4.516  26.029 -0.2582 -0.0342  0.0559
57773W        W58637   9.239   6.926  27.522 -0.0218  0.4133 -0.1735
57774W        W58638   9.100   8.015  25.653 -0.1391 -0.0620 -0.0080
57775W        W58639   8.629   4.633  25.562  0.2821 -0.1545 -0.3621
57776W        W58640   7.472  11.212   2.214 -0.3484 -0.0744 -0.0576
57777W        W58641   6.588  11.909   1.660 -0.2728  0.1249 -0.0254
57778W        W58642   8.829   9.044   2.540 -0.0971 -0.0206 -0.2434
57779W        W58643  12.540  13.262   2.672  0.2130 -0.0366  0.0386
57780W        W58644   7.246  10.229   0.200 -0.0219  0.0048  0.1177
57781W        W58645   8.360   8.774   0.220 -0.0234  0.0046  0.0593
57782W        W58646   7.793   8.996   3.392 -0.0203 -0.0342 -0.3100
57783W        W58647   7.576  10.297   4.478  0.1455  0.1360  0.2590
57784W        W58648   8.721  12.697   5.406  0.0232  0.1409 -0.3222
57785W        W58649   6.675   8.477   1.015 -0.1430 -0.0855  0.2468
57786W        W58650   7.109   6.108   3.261 -0.2225 -0.1534 -0.1644
57787W        W58651   9.578   7.150   2.046  0.2310  0.1500 -0.4066
57788W        W58652   9.328  11.515  28.627  0.1076 -0.1975 -0.1645
57789W        W58653   9.959   7.880   3.632 -0.3723 -0.1571 -0.2016
57790W        W58654   6.208   8.242   3.318  0.5313 -0.2026 -0.0877
57791W        W58655  10.000   9.773   1.696  0.2337 -0.1947  0.4327
57792W        W58656   8.412   8.224   0.621  0.2497  0.0278 -0.1690
57793W        W58657   7.779   7.891   3.488  0.0509 -0.2089  0.0422
57794W        W58658   9.008   4.177   0.203  0.1393 -0.2733 -0.0933
57795W        W58659   8.716   8.498   2.525  0.3053  0.1242 -0.2912
57796W        W58660   8.225  10.372   3.729 -0.4271 -0.1799  0.0532
57797W        W58661  12.007   8.906   2.635  0.0643  0.0265 -0.0816
57798W        W58662  11.351   9.021   2.326 -0.1567 -0.2624  0.2902
57799W        W58663   9.583  11.651   2.512  0.1920 -0.0663 -0.0294
57800W        W58664   8.115   9.206   5.446  0.4181 -0.0165  0.0335
57801W        W58665   9.184  10.109   4.190 -0.1475  0.2318 -0.2792
57802W        W58666   8.523   8.237   0.147 -0.2465 -0.2779 -0.0797
57803W        W58667   8.175   9.897  29.137  0.0231  0.1267  0.0589
57804W        W58668   9.245   6.614   3.749  0.0657  0.0656 -0.0288
57805W        W58669   6.636   8.461  28.382 -0.4126  0.0015  0.1309
57806W        W58670   6.103   8.867   2.052  0.2047  0.2417  0.1387
57807W        W58671   8.575  10.390   3.103  0.0678 -0.1309 -0.0546
57808W        W58672   8.499  11.682   0.121  0.3044 -0.1616 -0.2523
57809W        W58673   8.517   6.074  27.321  0.4529 -0.4967 -0.0285
57810W        W58674   7.116   8.144  28.390 -0.0460  0.1799 -0.1396
57811W        W58675  12.544   9.669   2.531 -0.1354  0.1744 -0.0235
57812W        W58676   9.218   8.916   1.586 -0.0343  0.2688  0.2659
57813W        W58677   9.463   9.993   3.136  0.2618  0.0783  0.1424
57814W        W58678  11.226  10.865   1.823  0.2793  0.0654 -0.0257
57815W        W58679  12.636   5.886   3.823 -0.1650  0.2140 -0.1270
57816W        W58680   9.003   5.822  28.832  0.1268  0.0520  0.0219
57817W        W58681  10.613  10.936   3.021  0.0545  0.2947 -0.1111
57818W        W58682  10.671  11.011   1.893  0.2463 -0.1554 -0.0608
57819W        W58683   9.326   8.017  28.738 -0.0293 -0.1284  0.0261
57820W        W58684   8.311  10.351   0.202  0.0487  0.0600  0.1140
57821W        W58685   6.046  10.450  29.048 -0.1030 -0.1113 -0.0164
57822W        W58686   7.860   7.712   2.945  0.1584 -0.4654  0.0648
57823W        W58687  12.812   6.873   3.786 -0.2006  0.0320  0.0566
57824W        W58688  10.866   9.732  29.031 -0.1222 -0.0400 -0.0975
57825W        W58689   9.800   8.754  26.957  0.0669  0.1171  0.3362
57826W        W58690   8.556   8.604   3.336  0.0426  0.1223  0.0397
57827W        W58691   7.220   6.291   4.299 -0.0015  0.0802  0.4456
57828W        W58692   9.608  12.968   5.943 -0.1964 -0.0147  0.3320
57829W        W58693  11.885   8.784  29.070  0.2430  0.0784  0.0080
57830W        W58694   7.221   7.502   1.053  0.0838 -0.0272 -0.1779
57831W        W58695   7.820   9.025   0.475 -0.0885 -0.1554  0.0209
57832W        W58696   8.046   8.446   2.181  0.2296  0.2066  0.0952
57833W        W58697   8.413   9.997   0.538 -0.2398  0.2478  0.0108
57834W        W58698   7.550   9.580  28.410 -0.3282  0.2052 -0.0092
57835W        W58699   8.458  10.096  28.640  0.0136 -0.1941  0.2171
57836W        W58700  11.202   6.847  28.629  0.4046 -0.0104  0.0935
57837W        W58701  10.428  12.077   1.273 -0.0285 -0.2401 -0.1186
57838W        W58702   8.325   9.443  28.765  0.2384  0.0712 -0.2223
57839W        W58703   4.787   9.241   1.168 -0.4535 -0.0487 -0.1694
57840W        W58704   8.244   5.668   1.597  0.0057 -0.1370  0.2263
57841W        W58705   9.520   7.951   1.499  0.1243  0.0887 -0.0318
57842W        W58706   6.285  10.354  28.178 -0.2626  0.2250 -0.0569
57843W        W58707   8.077  10.527   1.110  0.0436  0.1669 -0.0600
57844W        W58708   9.095   9.900   1.852 -0.1119 -0.1022 -0.0773
57845W        W58709   9.740  12.568   1.922  0.2338  0.5448 -0.2131
57846W        W58710  12.613   9.543   3.190  0.1510  0.1236 -0.1039
57847W        W58711  10.434   9.829   0.386 -0.0297  0.0233  0.0603
57848W        W58712  12.339   9.915   3.424 -0.3111  0.2283 -0.0864
57849W        W58713  10.779   6.865   4.374  0.2510 -0.0847 -0.2918
57850W        W58714   7.979  11.758   3.317  0.0315 -0.2192  0.0038
57851W        W58715  12.746  10.052   3.155  0.1262 -0.1727  0.1583
57852W        W58716   4.265   9.592  26.924 -0.1243  0.0151 -0.1178
57853W        W58717   9.397  10.316   2.813  0.1029  0.3591  0.1253
57854W        W58718   9.397   9.219   0.312  0.1641  0.3958 -0.3589
57855W        W58719  10.434   8.876   0.025 -0.0455 -0.1402 -0.1077
57856W        W58720   8.636   9.743   1.690  0.1360  0.1197  0.1435
57857W        W58721   8.602  11.995   1.114 -0.3557 -0.0482 -0.1279
57858W        W58722   6.857   7.023   2.077 -0.3093  0.3013 -0.0599
57859W        W58723   8.400   7.747   2.903 -0.0261  0.2323 -0.0875
57860W        W58724   8.402   8.815   4.528 -0.0036  0.0658 -0.2824
57861W        W58725   7.274   8.074   1.935  0.2696  0.1249  0.2388
57862W        W58726  13.880  10.531   1.460  0.1972 -0.1707  0.0747
57863W        W58727   8.522   6.228   4.262  0.0321  0.1711 -0.0743
57864W        W58728  12.720   8.735   2.762 -0.0276  0.0223 -0.2097
57865W        W58729  11.168   9.918   3.097 -0.3227 -0.1216  0.1650
57866W        W58730  10.561   9.775  28.031  0.2398  0.1683 -0.0012
57867W        W58731  10.166  10.336   3.564 -0.1064 -0.2138 -0.1109
57868W        W58732   7.913  11.868   0.761 -0.2115  0.1395 -0.0666
57869W        W58733   7.682   7.224  27.554 -0.1504 -0.1636  0.0095
57870W        W58734   8.168   8.962   1.876 -0.2395  0.2142  0.0774
57871W        W58735   8.396   5.854   2.012  0.2800  0.2827 -0.2525
57872W        W58736  11.051   9.321   4.164 -0.2363  0.0173  0.2311
57873W        W58737   8.282   9.221   3.129 -0.1298 -0.1082  0.1483
57874W        W58738   5.605  10.437   2.064 -0.1201 -0.0089 -0.0716
57875W        W58739   7.705   7.532   0.601 -0.1411 -0.1694 -0.0770
57876W        W58740  12.470  11.894   2.080 -0.3970  0.0453 -0.1493
57877W        W58741   6.783  10.609   0.594 -0.1080  0.0116 -0.1848
57878W        W58742  10.468   6.997  26.869  0.1844 -0.1600  0.2416
57879W        W58743   7.812   8.755   3.833  0.0318 -0.1700 -0.0567
57880W        W58744   9.733   6.209   4.917  0.0165 -0.1520  0.1272
57881W        W58745  11.551   9.406   2.623  0.0148  0.0661  0.1206
57882W        W58746   7.913  11.365   1.349 -0.0908  0.3000  0.0751
57883W        W58747  12.502   8.465   1.903  0.0662 -0.1850  0.1243
57884W        W58748   8.863   7.547   2.910 -0.2648 -0.0427 -0.0223
57885W        W58749   7.884  10.294   0.595 -0.0664  0.0953  0.4013
57886W        W58750   8.870   9.417   1.301 -0.1414  0.1630  0.1646
57887W        W58751   6.727  12.628   0.506 -0.3082  0.0282  0.1889
57888W        W58752   9.560   7.203   0.616  0.1020  0.1119  0.3067
57889W        W58753  11.311  10.760   3.511  0.2018  0.0401  0.0995
57890W        W58754  10.565   8.947  28.603 -0.0158 -0.2481  0.0023
57891W        W58755   7.276  10.548   1.842  0.1506  0.0996  0.1003
57892W        W58756   8.855   6.288   1.453 -0.0102  0.1845 -0.0937
57893W        W58757   8.947   9.372   1.777 -0.0127 -0.2774  0.0259
57894W        W58758   7.074   9.682   5.074  0.1249 -0.2161  0.0023
57895W        W58759   9.450   9.796   0.435  0.1676 -0.3508 -0.1707
57896W        W58760   8.756   9.763  28.790 -0.0516  0.0903 -0.0466
57897W        W58761  10.448  10.355   1.766  0.2066  0.0163  0.0950
57898W        W58762  12.124  10.289   1.378  0.3535 -0.1214  0.2940
57899W        W58763   5.273  10.417  28.350 -0.0853  0.4936 -0.0333
57900W        W58764   7.590   9.774   2.162  0.0003  0.0742  0.1308
57901W        W58765   9.513   8.937   2.939 -0.1171 -0.2594  0.0036
57902W        W58766   6.792   7.499   2.226  0.1344 -0.1676 -0.1416
57903W        W58767  12.400  13.744   3.923  0.0507  0.1556  0.0392
57904W        W58768  11.807  12.323   1.599  0.1832 -0.0733  0.0185
57905W        W58769  10.106   9.423   2.616  0.0822 -0.1439  0.0971
57906W        W58770   7.262  10.367   3.545 -0.0168 -0.0781  0.2558
57907W        W58771   7.725   7.393   3.297  0.2484 -0.2811  0.0138
57908W        W58772   9.226  11.243   4.361  0.2142 -0.1879 -0.1395
57909W        W58773   8.228   7.103   2.156 -0.0110 -0.1148  0.3276
57910W        W58774  10.427   6.382   4.410 -0.0509 -0.1447 -0.3420
57911W        W58775   7.934  10.158   4.147 -0.0870  0.0215 -0.1534
57912W        W58776   9.246   8.362   1.249 -0.2251  0.1182 -0.0995
57913W        W58777  11.453   7.632   3.273 -0.0822  0.0065  0.0331
57914W        W58778  11.421   8.032   0.467  0.0413  0.0051 -0.2896
57915W        W58779   9.836  11.408   2.074  0.1864 -0.1334 -0.1084
57916W        W58780   7.863   5.677   3.341  0.2769  0.0276 -0.1343
57917W        W58781   9.889   6.462   0.501 -0.0499 -0.0123 -0.1198
57918W        W58782   5.297  10.964  27.670 -0.2143 -0.3048 -0.2594
57919W        W58783   7.921  10.153  28.747 -0.0980  0.1224  0.3896
57920W        W58784   7.919   8.959   2.321 -0.0965  0.0518 -0.1629
57921W        W58785   7.993  10.228  27.464 -0.0427 -0.1406  0.1453
57922W        W58786   9.587   6.563   4.570  0.0197  0.0388 -0.0617
57923W        W58787  12.315  11.547   1.793  0.2009  0.1983 -0.0916
57924W        W58788   8.887  12.707   2.324 -0.3832  0.0617  0.0895
57925W        W58789   8.893   7.653   1.485  0.0203  0.0010  0.0953
57926W        W58790  11.167   7.967   2.690 -0.1430  0.1233  0.2680
57927W        W58791   7.846   8.783   0.055  0.0224 -0.2385 -0.2101
57928W        W58792   9.948   9.549   2.157  0.2015  0.0783 -0.2677
57929W        W58793   5.747   6.857   1.096  0.3965 -0.1775  0.1163
57930W        W58794   9.659   7.687   0.608 -0.2558  0.1367  0.0364
57931W        W58795  10.628   4.447   3.522 -0.0653  0.1479  0.0623
57932W        W58796   5.044   8.936   0.867 -0.1639 -0.3178 -0.0313
57933W        W58797  10.638   7.980  28.866 -0.2059 -0.0533 -0.2713
57934W        W58798   6.371   8.137   1.037  0.2431 -0.0238  0.0491
57935W        W58799   9.363  10.811   0.245  0.2759 -0.1612  0.0239
57936W        W58800   8.124   7.212   3.009  0.0577 -0.0821  0.0107
57937W        W58801   6.177   9.930   0.681 -0.0727 -0.0267 -0.0263
57938W        W58802   8.275  10.826   4.585  0.0613  0.0645  0.1175
57939W        W58803  10.254  10.177   2.724  0.1385 -0.1051  0.1690
57940W        W58804   9.217   9.308   2.777 -0.0692 -0.3613 -0.1160
57941W        W58805   7.898   8.239   0.867 -0.0765 -0.0094  0.0829
57942W        W58806   9.784   7.918   1.034 -0.0652 -0.1918 -0.1065
57943W        W58807   6.889  11.876   2.693  0.1203 -0.3321  0.1505
57944W        W58808   9.189   9.130   4.510 -0.2196 -0.0029  0.2390
57945W        W58809   5.124   9.279   0.172 -0.3640  0.0551  0.1110
57946W        W58810  10.334  10.511   3.061  0.2468  0.0160 -0.0243
57947W        W58811   8.294  11.151   2.726  0.2175 -0.0416  0.2928
57948W        W58812   9.320  11.746   2.913  0.1613 -0.1496  0.1402
57949W        W58813   8.425   9.572   0.206 -0.2443  0.1000 -0.0377
57950W        W58814   8.103   7.990   2.530  0.2197 -0.1564 -0.0361
57951W        W58815  10.437   9.234   2.192 -0.0395  0.2766 -0.0457
57952W        W58816   4.842  10.267  28.547 -0.2219  0.0137 -0.2431
57953W        W58817   6.770  12.078   3.553 -0.1167 -0.2419 -0.2330
57954W        W58818   6.804   9.061  27.714 -0.0381 -0.0206 -0.1809
57955W        W58819   8.453   6.737   5.560  0.0822 -0.0847 -0.3003
57956W        W58820   7.780  10.650   0.292  0.0727 -0.2248 -0.1611
57957W        W58821  11.722  11.498   2.497 -0.0772 -0.0903 -0.2662
57958W        W58822   7.888   8.049   1.919 -0.1571 -0.0764  0.1887
57959W        W58823   7.694  10.066  28.211 -0.1733 -0.0742  0.1992
57960W        W58824   7.653   6.915  26.659 -0.2752 -0.0748 -0.2833
57961W        W58825   8.497   8.093   2.227  0.0334 -0.2235 -0.2344
57962W        W58826   9.732   7.698   3.239 -0.0163  0.2761  0.0110
57963W        W58827   7.317   6.379  28.902 -0.0542  0.0697  0.0659
57964W        W58828   9.357   8.349   2.978 -0.0630 -0.2948 -0.1378
57965W        W58829  10.600  11.582  28.131  0.0678  0.2551  0.4218
57966W        W58830   6.762  11.679  27.228 -0.0874  0.1033 -0.2174
57967W        W58831   6.186   9.962  27.847  0.0213 -0.1764  0.0344
57968W        W58832   9.018   8.783   2.178 -0.1957 -0.0157  0.0716
57969W        W58833   8.474   8.881   2.847  0.0296 -0.0323 -0.2354
57970W        W58834   7.995   9.560   4.148  0.1367 -0.1629  0.2036
57971W        W58835   6.103   7.603   3.260 -0.0316  0.1774 -0.1301
57972W        W58836   6.452   8.521  27.359 -0.0303 -0.5114 -0.0698
57973W        W58837   8.662   7.106   1.438 -0.0651 -0.4184  0.2145
57974W        W58838   5.578   8.044   2.504 -0.1821  0.1179  0.1868
57975W        W58839  11.274   6.175   5.496  0.1545 -0.1904 -0.1814
57976W        W58840   8.570   7.827   3.709 -0.1933  0.5508 -0.1298
57977W        W58841  10.814   4.983   2.130 -0.1458  0.0272  0.1056
57978W        W58842   7.912   7.680   1.482  0.0386 -0.0930 -0.5801
57979W        W58843   7.218   7.356   1.994 -0.1245 -0.1731  0.0675
57980W        W58844   9.409   7.347   2.900 -0.0448  0.3587  0.0056
57981W        W58845   8.454   8.576  28.555  0.1265  0.4342 -0.2234
57982W        W58846   7.774   9.557   0.990  0.0570 -0.0803  0.0838
57983W        W58847   8.375   5.529   2.398  0.2167  0.3756  0.2726
57984W        W58848   8.939   7.400  28.727 -0.1264  0.0756  0.2819
57985W        W58849   6.331  10.918   0.013 -0.2953 -0.1563  0.2015
57986W        W58850   7.726  10.849   2.871 -0.0151 -0.2216  0.1661
57987W        W58851   7.670  11.590   3.743 -0.0649 -0.0214 -0.0126
57988W        W58852   8.486  10.381   0.821 -0.1063 -0.2461  0.1523
57989W        W58853   8.127   6.126   3.350  0.3501  0.1587 -0.2484
57990W        W58854  11.171  10.371   5.088  0.0564  0.1853 -0.2055
57991W        W58855  10.962  11.246   0.579 -0.0554  0.0541  0.2513
57992W        W58856   5.471   8.610  27.326  0.0591  0.1895  0.0172
57993W        W58857   8.208   9.557   0.747 -0.0575 -0.3105  0.1316
57994W        W58858   7.855  11.211   2.476  0.0721  0.2843 -0.0482
57995W        W58859   7.696  11.184   4.111 -0.1638 -0.0055  0.0218
57996W        W58860  10.790   7.570   2.501 -0.0722 -0.3370 -0.0783
57997W        W58861   5.894   8.961   0.138 -0.1569 -0.0372 -0.3588
57998W        W58862   9.752  10.726   3.691  0.1932 -0.2394 -0.3073
57999W        W58863   9.376   9.324   1.349 -0.2290 -0.2380 -0.2137
58000W        W58864  10.054  10.972   1.797  0.1963  0.2695  0.1360
58001W        W58865   9.093   6.132   2.823  0.0754  0.2844  0.0444
58002W        W58866   9.802  10.524   5.737  0.3816  0.0968 -0.1194
58003W        W58867   9.084   6.859   2.072  0.1098 -0.0136 -0.2351
58004W        W58868   8.269   8.466  28.983 -0.1119  0.0881 -0.0702
58005W        W58869  10.503  10.104   3.831  0.3635  0.0543  0.1721
58006W        W58870   9.835   7.418   1.032 -0.1041 -0.0806 -0.0649
58007W        W58871   9.544   6.156   3.035  0.1065  0.0507 -0.1607
58008W        W58872   5.806  10.645  28.326  0.1363  0.2032 -0.2044
58009W        W58873   9.340  10.090   0.894 -0.2652  0.0652  0.0948
58010W        W58874   7.770  10.226   3.544  0.1393 -0.2450 -0.0812
58011W        W58875   8.779   9.550   2.557  0.0961 -0.0520 -0.2723
58012W        W58876  10.040   7.257   0.544 -0.1832  0.0743 -0.2094
58013W        W58877   7.757   6.091   4.009  0.1456 -0.1197  0.0680
58014W        W58878   9.350   9.215   0.812  0.0849 -0.0153  0.0449
58015W        W58879   8.247  12.760   3.627  0.1137  0.0547 -0.0355
58016W        W58880   9.577  10.741   1.659 -0.0401 -0.2714  0.0353
58017W        W58881   6.985   5.620   4.881  0.2329  0.0040  0.1410
58018W        W58882   8.720   7.991   4.947  0.2554 -0.2038  0.1278
58019W        W58883   6.854   6.158  27.885  0.1503  0.3358  0.0672
58020W        W58884   8.448   8.119   4.137 -0.1155  0.0556  0.4443
58021W        W58885   8.976  10.087  27.403  0.1030 -0.1592 -0.0756
58022W        W58886  14.152   9.842   1.818 -0.0644  0.1849 -0.1293
58023W        W58887   9.973  11.410   4.928  0.1752 -0.2426  0.3374
58024W        W58888  12.121  10.885   4.151 -0.0610  0.2009 -0.2115
58025W        W58889   7.339   7.821   1.431  0.2270 -0.3491  0.1226
58026W        W58890   8.741   8.925   1.765 -0.2287 -0.0906  0.1458
58027W        W58891   8.864  12.496   4.308  0.0994 -0.2783 -0.0010
58028W        W58892   9.835  12.174   3.643  0.1426  0.0503  0.0293
58029W        W58893   7.959   9.415   2.479  0.3063  0.4475 -0.0882
58030W        W58894   8.128   7.536   1.960  0.4428 -0.0881  0.1292
58031W        W58895  12.925  11.783   3.985 -0.2605  0.2132  0.1437
58032W        W58896   8.493   7.768   0.724 -0.1061 -0.1487 -0.0250
58033W        W58897   9.868   7.564   2.747 -0.0158  0.0693  0.0609
58034W        W58898  13.607  11.989   1.063 -0.0674  0.1143  0.0796
58035W        W58899  10.478   7.718   3.546 -0.1786 -0.1469  0.3460
58036W        W58900   8.768   8.110   1.566  0.0264  0.0269 -0.4669
58037W        W58901   6.876   5.651   3.202  0.0483  0.0559  0.0119
58038W        W58902  10.959   9.730   5.477  0.2468  0.2771  0.0841
58039W        W58903   8.591   6.768   1.797  0.0602  0.0961  0.0265
58040W        W58904   6.605  11.056   1.549  0.0929 -0.1037  0.0741
58041W        W58905   8.435  12.673   3.041 -0.3271  0.2078  0.1852
58042W        W58906   6.675  12.352  26.462 -0.0625 -0.3817 -0.0680
58043W        W58907   8.749  10.808   0.940  0.0187  0.2404 -0.4063
58044W        W58908  10.485   9.600   2.916 -0.0608 -0.1415 -0.1749
58045W        W58909   8.183   7.527   3.419 -0.0039 -0.0005 -0.1916
58046W        W58910   6.378  10.418  27.630  0.1353 -0.1702  0.0754
58047W        W58911  10.733   9.168   4.692 -0.3534  0.1500 -0.1668
58048W        W58912   9.689   9.055   1.807 -0.3125 -0.0583 -0.0975
58049W        W58913   7.339  10.255   2.262 -0.5288  0.0625  0.0798
58050W        W58914  13.686   9.403   4.242 -0.0363  0.2632  0.1290
58051W        W58915   9.003   5.610   4.764  0.1592  0.0607  0.1281
58052W        W58916   9.171   4.198   1.289 -0.4794  0.0665 -0.0154
58053W        W58917   7.256  10.235   4.015 -0.0115 -0.1912  0.1436
58054W        W58918   7.253   8.212   0.933 -0.0473  0.0397  0.3043
58055W        W58919   9.780  11.250   0.996  0.2454 -0.1472 -0.1107
58056W        W58920   7.953  10.407   2.746 -0.0730 -0.2000 -0.1065
58057W        W58921   8.529   7.571  28.936  0.1683 -0.0630  0.0492
58058W        W58922   6.957   9.432   1.347  0.2010  0.1147  0.0092
58059W        W58923   6.013  10.185  28.612  0.3011  0.0084  0.0124
58060W        W58924  10.021   8.458  28.041  0.2639  0.1339  0.2084
58061W        W58925  10.155   9.335   3.152  0.0424  0.0429 -0.1439
58062W        W58926   8.908  10.962   0.451  0.4011  0.2328 -0.2007
58063W        W58927   7.226   9.168   5.000 -0.4983  0.2501 -0.0068
58064W        W58928   8.883   6.308  27.042 -0.0179  0.1106 -0.3088
58065W        W58929   9.584   8.749   0.239  0.1467 -0.0654  0.2775
58066W        W58930   8.728   9.963   0.124  0.1606  0.1817 -0.0740
58067W        W58931   9.755   8.208  28.993  0.3361  0.1793  0.0638
58068W        W58932   9.369  10.603   2.136  0.1280  0.3560  0.2121
58069W        W58933   6.825   5.896   5.851  0.0991  0.1901 -0.0413
58070W        W58934   5.650   9.685  26.335 -0.1871  0.1844  0.2483
58071W        W58935   8.532   6.376   0.384 -0.3671 -0.1450  0.0869
58072W        W58936   8.486   7.040   0.940 -0.0153 -0.0399  0.1602
58073W        W58937  11.434   8.909   0.255  0.0424  0.1216  0.1820
58074W        W58938   9.572   8.170   2.180 -0.2325  0.1641 -0.0693
58075W        W58939   7.203  10.851   0.892  0.2603 -0.0279 -0.2838
58076W        W58940   4.810   7.007  28.777  0.0995 -0.0367 -0.0313
58077W        W58941   7.090   6.928   3.452 -0.1220 -0.0701 -0.2809
58078W        W58942   8.532  11.773   3.433  0.0130  0.1483  0.2094
58079W        W58943   7.620   8.567   0.659  0.3479  0.0665  0.1149
58080W        W58944   8.899   9.368  28.526 -0.0049 -0.1420 -0.0358
58081W        W58945  10.511  12.904   3.153 -0.0532 -0.1039 -0.2695
58082W        W58946   9.976  12.092   6.636  0.0715 -0.1329  0.0856
58083W        W58947   9.460   7.830   0.135  0.0570 -0.1783 -0.0686
58084W        W58948   9.398   8.176  27.532  0.2481 -0.1094  0.1417
58085W        W58949  10.907  10.042   1.750 -0.0155 -0.2262  0.0035
58086W        W58950   7.963   9.223   1.402 -0.1619  0.0818 -0.1449
58087W        W58951   6.854  10.641   1.666  0.0119  0.3756 -0.1206
58088W        W58952   9.883   6.919  26.863 -0.1010  0.0363  0.1227
58089W        W58953   7.436  14.289   1.340 -0.0605  0.0116  0.0600
58090W        W58954   5.710  13.029   3.920  0.2037 -0.2184 -0.2190
58091W        W58955   4.475   8.619  29.112  0.0197  0.3580 -0.2541
58092W        W58956   9.690   7.377   0.151  0.2400 -0.0515 -0.1121
58093W        W58957   7.582   8.412  28.492  0.1771  0.1282 -0.0193
58094W        W58958  10.215  11.788   5.123  0.1081  0.1457 -0.0376
58095W        W58959   7.892  11.539   2.863  0.0771 -0.0467 -0.1050
58096W        W58960   7.070  11.715  28.736  0.2843 -0.0862  0.2581
58097W        W58961  11.734   9.251  29.061  0.0759 -0.0407 -0.0332
58098W        W58962   7.992   7.967   4.414  0.4009 -0.1328  0.0294
58099W        W58963   9.144   7.592   0.589 -0.2004 -0.2093 -0.0747
58100W        W58964   6.705   8.048   2.456  0.2255  0.2237  0.1776
58101W        W58965   8.196  10.755   2.951  0.0009 -0.1315  0.0848
58102W        W58966   4.204   7.899   1.151 -0.0752 -0.0991  0.0725
58103W        W58967   6.175  10.887  28.186  0.0987 -0.1752  0.0164
58104W        W58968   9.645   8.780  28.299 -0.0921  0.3214  0.2250
58105W        W58969   7.353   9.540   2.541  0.2195 -0.4399 -0.2224
58106W        W58970   8.805   6.528   3.932  0.0606  0.0495  0.0376
58107W        W58971   9.807   8.454   2.481  0.2828  0.0715  0.2258
58108W        W58972   9.865   9.842   2.570  0.4031  0.2195  0.0012
58109W        W58973   7.413  14.094   2.253 -0.0858 -0.0836  0.2887
58110W        W58974  12.602  10.829   1.306 -0.2883  0.1947  0.0161
58111W        W58975  12.876  12.298   3.255 -0.0449  0.0876  0.0937
58112W        W58976   9.167   9.278   2.180  0.0577 -0.0138  0.1861
58113W        W58977  11.719   9.684   2.973  0.0392  0.1521  0.2063
58114W        W58978   9.646   8.907   1.206  0.1101 -0.2983  0.1262
58115W        W58979   8.456   9.101  28.398  0.1032  0.2254  0.0374
58116W        W58980  11.058  10.723   2.915  0.0707 -0.2776  0.2411
58117W        W58981   9.244   7.454   3.335 -0.1791  0.1608 -0.2221
58118W        W58982   7.400   4.113  28.789  0.0014 -0.1112  0.0274
58119W        W58983   5.938   8.423   0.900 -0.0272  0.3296  0.2818
58120W        W58984   7.882   9.811   0.422  0.3192 -0.1694 -0.0352
58121W        W58985   7.528  11.038   3.643 -0.1866  0.1707  0.0445
58122W        W58986   8.253   9.499  27.863 -0.0857  0.0875  0.1191
58123W        W58987   8.798   4.756   1.862  0.1211 -0.0534  0.3587
58124W        W58988   8.451  12.341   2.637  0.0470 -0.2001 -0.1399
58125W        W58989   7.899  10.772   1.939  0.1146 -0.0060 -0.0774
58126W        W58990   8.377   9.311   2.671  0.0612 -0.1048 -0.0011
58127W        W58991   9.421   9.394  28.440 -0.0222 -0.0049  0.0032
58128W        W58992   9.025  12.258   2.817  0.0897  0.0512 -0.0484
58129W        W58993  10.709  10.460   2.599  0.0958  0.0770 -0.1033
58130W        W58994   8.425  11.260   3.358  0.0399 -0.0663  0.2592
58131W        W58995   9.302   6.886   2.586 -0.0620  0.0797  0.2515
58132W        W58996   7.407  11.917   3.047  0.4083 -0.0384 -0.0704
58133W        W58997   9.407   8.685   3.410  0.0957  0.1895  0.0487
58134W        W58998   7.341   9.721   1.714 -0.1282 -0.0236 -0.0695
58135W        W58999   7.526  10.011   0.790 -0.1290  0.1192 -0.2499
58136W        W59000   8.098   7.486   2.466 -0.0742  0.1009  0.0720
58137W        W59001  14.135  10.651   3.336 -0.0344  0.1017  0.4621
58138W        W59002   8.077   9.800   2.795  0.3672 -0.3560 -0.5817
58139W        W59003   6.023   8.799  27.906  0.0753 -0.0357 -0.0057
58140W        W59004  11.546  10.200   1.337 -0.1663  0.2347 -0.1064
58141W        W59005  12.809  10.679   1.983 -0.0187  0.0164 -0.0639
58142W        W59006  11.343   8.988   3.101 -0.1637  0.0182  0.2296
58143W        W59007   9.838  10.252   1.479 -0.1214 -0.1446 -0.4805
58144W        W59008   6.701  11.080   0.709 -0.0087  0.1847 -0.0123
58145W        W59009  13.080   6.297   2.213  0.0843 -0.2290 -0.1237
58146W        W59010   6.651  10.072   0.390  0.1882 -0.1242 -0.0616
58147W        W59011   9.217   8.254   0.209 -0.1751 -0.2034 -0.2887
58148W        W59012  10.315   8.992   0.557 -0.4514 -0.3368  0.2669
58149W        W59013  10.773  10.324   4.207  0.1015 -0.0339 -0.3386
58150W        W59014  10.198  11.308   0.723  0.3336 -0.1099 -0.4639
58151W        W59015   8.639   6.808   2.305  0.0075 -0.3320 -0.2850
58152W        W59016   7.475   9.400   3.438 -0.1243 -0.3801  0.0197
58153W        W59017  13.484  11.023   3.860 -0.4568  0.2262 -0.0805
58154W        W59018   8.094   5.893   4.388 -0.2977  0.1139 -0.4107
58155W        W59019   7.960   8.198   3.007 -0.2404  0.1978 -0.1447
58156W        W59020   6.907   7.828   1.764  0.1376 -0.0174 -0.0257
58157W        W59021   6.638  11.607   0.883  0.1198 -0.2352  0.2775
58158W        W59022   5.689   6.763   0.253  0.0849  0.0094  0.0957
58159W        W59023   9.810   7.408   3.662 -0.2344  0.2977 -0.0309
58160W        W59024  12.538  11.475   3.251  0.0164 -0.0086 -0.0365
58161W        W59025   8.622   7.305   4.352 -0.0816 -0.1102  0.2374
58162W        W59026   9.095  11.612   0.441 -0.1422  0.0831  0.5327
58163W        W59027   8.380  10.431   1.984  0.0151  0.0841  0.1349
58164W        W59028   8.126   7.791   3.848  0.1336 -0.1420 -0.0280
58165W        W59029  11.457   9.456   3.298 -0.1173  0.0540 -0.0374
58166W        W59030  10.613  11.544   2.723 -0.2505 -0.0722 -0.0256
58167W        W59031   8.752  10.430   0.421  0.0218  0.1000 -0.1892
58168W        W59032  12.085  10.098   2.397  0.0220  0.1329 -0.3673
58169W        W59033  10.685   8.985   3.736  0.1269 -0.1422 -0.1117
58170W        W59034   6.743  10.050  27.929 -0.1135  0.3270  0.2700
58171W        W59035   7.005   8.003   2.920 -0.0916  0.0319 -0.0855
58172W        W59036   9.752   8.428   1.079  0.2104 -0.0625  0.1331
58173W        W59037   9.133   9.823   2.762 -0.2471  0.3165 -0.1447
58174W        W59038   6.327  10.465   0.385 -0.0657  0.1716  0.1454
58175W        W59039   7.123   8.751   1.668  0.0759 -0.0041 -0.0711
58176W        W59040   8.691   9.217   6.992  0.0384  0.1960 -0.1950
58177W        W59041   8.767   9.545   6.604 -0.0203  0.3249 -0.2720
58178W        W59042  11.088  11.169   3.252  0.0798  0.4165 -0.0989
58179W        W59043  10.591  11.624   3.719  0.1534  0.0369  0.1407
58180W        W59044   8.377   9.889   4.331  0.0493 -0.0156 -0.2088
58181W        W59045   9.468   7.386   4.814  0.2885  0.0641 -0.1233
58182W        W59046   7.319   5.827   4.590  0.2867  0.0919  0.1539
58183W        W59047   8.481   9.389   4.010  0.0734  0.1818  0.1190
58184W        W59048  10.641   9.910   5.922 -0.3312  0.0872 -0.1670
58185W        W59049   9.613   5.609   8.966 -0.0737  0.2441  0.0097
58186W        W59050   8.484   6.975   9.243  0.3310  0.0955  0.2036
58187W        W59051   9.031   7.552   3.931  0.0672 -0.1477  0.1987
58188W        W59052   8.873   8.079   2.737  0.1295 -0.0643 -0.2550
58189W        W59053  11.900   7.897   6.825  0.0210  0.1024  0.2781
58190W        W59054   6.182   7.406   4.927  0.0351  0.0380  0.2405
58191W        W59055   8.480  13.574   5.021  0.0024 -0.1329  0.1077
58192W        W59056   7.450   8.726   4.707  0.1408 -0.0432 -0.0625
58193W        W59057   6.012   9.695   5.105  0.0611  0.1323 -0.0701
58194W        W59058   6.677   8.715   5.216 -0.1024  0.0626 -0.3133
58195W        W59059   9.423   5.845   5.630 -0.2043 -0.0198 -0.1010
58196W        W59060  10.347   7.506   4.426  0.2628 -0.0025  0.2925
58197W        W59061   9.271  10.668   8.289  0.1388 -0.0197 -0.2357
58198W        W59062   9.067  11.160   5.241 -0.3518 -0.2337 -0.2468
58199W        W59063   9.586   8.766   5.365 -0.0532  0.2282 -0.2232
58200W        W59064   5.788   8.970   5.910  0.0553 -0.1908  0.1181
58201W        W59065   8.296   8.659   5.967  0.1063 -0.2489 -0.1146
58202W        W59066  11.524  10.044   6.830 -0.1801  0.1867  0.1171
58203W        W59067   8.818   8.258   4.543 -0.0933 -0.0667 -0.0628
58204W        W59068  11.348   9.266   5.606  0.6159 -0.1005  0.0909
58205W        W59069   8.238   7.249   5.223  0.0276  0.1424 -0.2149
58206W        W59070   6.502   9.417   6.225 -0.0537  0.3491  0.1163
58207W        W59071  10.559   6.726   7.194 -0.1477 -0.2686 -0.0576
58208W        W59072   8.269   8.318   7.254  0.1182 -0.2624 -0.0456
58209W        W59073   8.597   7.991   7.436 -0.0732 -0.0734  0.2346
58210W        W59074   6.689   8.563   6.278 -0.1250  0.2506  0.0971
58211W        W59075   9.428   8.713   7.438  0.1014  0.1283  0.1170
58212W        W59076   8.400   8.023   6.850 -0.1751  0.1022  0.1930
58213W        W59077   7.307  10.551   4.827  0.2865  0.1473  0.0029
58214W        W59078  10.783   7.580   6.916 -0.0488 -0.1402  0.1640
58215W        W59079  12.932   7.903   6.005  0.4468 -0.0440 -0.2450
58216W        W59080  11.802   6.067   4.313  0.1570  0.2785  0.0028
58217W        W59081  11.184   7.810   6.072  0.1136 -0.1712 -0.1337
58218W        W59082   7.200   9.915   3.208 -0.1273  0.2018 -0.1897
58219W        W59083  10.636  10.533   3.482  0.0042 -0.2794 -0.0139
58220W        W59084   5.668   9.670   6.271  0.1821  0.2087  0.1870
58221W        W59085  11.170   8.821   3.796  0.0193  0.0126 -0.1089
58222W        W59086   9.671   7.980   4.789 -0.0370  0.0492 -0.0500
58223W        W59087  13.689   5.876   5.721 -0.0856  0.0506  0.2259
58224W        W59088   9.840   7.727   4.079 -0.1539  0.0096  0.0303
58225W        W59089   8.981   8.635   4.237 -0.0460 -0.1123 -0.2521
58226W        W59090  10.678  10.650   5.781 -0.1345  0.1239 -0.1130
58227W        W59091   9.890   8.210   5.903  0.2906 -0.1027 -0.1704
58228W        W59092   7.963   7.870   7.180 -0.2301  0.0646 -0.2682
58229W        W59093   9.993   7.113   5.103 -0.0574  0.1868  0.0271
58230W        W59094  11.047   8.495   5.103 -0.0524  0.1479  0.1943
58231W        W59095   9.303  11.378   1.410  0.0356 -0.0907 -0.2219
58232W        W59096   5.243   7.648   4.845 -0.2276  0.1323  0.3643
58233W        W59097   7.895   9.761   5.412  0.1422  0.3773 -0.1604
58234W        W59098   6.044  11.478   7.023  0.2163  0.0339 -0.0164
58235W        W59099   8.835  11.787   2.794  0.0127  0.1374  0.2628
58236W        W59100  12.499   7.798   3.064 -0.0221  0.1728 -0.1419
58237W        W59101   8.240   7.860   5.044  0.0467 -0.0467  0.1904
58238W        W59102   8.800   9.820   5.062 -0.0489 -0.0045 -0.0052
58239W        W59103  11.611   9.537   6.940  0.0496 -0.1784 -0.3383
58240W        W59104   9.352   8.702   4.764  0.0247 -0.0715  0.1173
58241W        W59105   9.089   7.649   5.737 -0.2808  0.0646  0.2206
58242W        W59106   8.739  11.922   0.545  0.1311 -0.0728 -0.2588
58243W        W59107  10.234  10.760   2.627 -0.0853  0.3005 -0.1694
58244W        W59108  10.286   9.645   3.555 -0.1547  0.0502 -0.1833
58245W        W59109   8.727  11.236   4.334  0.0107 -0.0883 -0.2505
58246W        W59110   8.247   7.149   5.768  0.1529 -0.2456  0.0905
58247W        W59111  10.630   9.065   3.190 -0.1417 -0.1432  0.0282
58248W        W59112  11.918   9.458   6.501  0.0332  0.1750 -0.0843
58249W        W59113  11.518  10.876   4.020 -0.0475  0.0375 -0.0824
58250W        W59114   9.723   8.031   6.969  0.2141  0.0757 -0.1803
58251W        W59115   8.575   8.947   5.270  0.1720 -0.2246 -0.1266
58252W        W59116   7.057   9.389   8.973  0.4048 -0.0198  0.0720
58253W        W59117   8.749   8.469   3.865  0.4066 -0.0471  0.2817
58254W        W59118   8.892   8.812   6.137 -0.1826 -0.2522 -0.0879
58255W        W59119   9.363   8.971   6.164 -0.4081 -0.0731  0.0366
58256W        W59120   6.464   8.727   7.678 -0.1679  0.0367 -0.1715
58257W        W59121   8.918   7.640   6.821  0.0621 -0.0725 -0.2055
58258W        W59122  10.226  10.324   4.265 -0.0882  0.0794  0.1399
58259W        W59123   9.734   6.995   8.413 -0.0752 -0.1364 -0.0105
58260W        W59124   9.808   6.422   3.798  0.2208  0.1018 -0.0593
58261W        W59125  10.044   8.770   6.768 -0.1044  0.1217  0.1432
58262W        W59126   7.030   6.617   6.869  0.0821 -0.3416  0.1657
58263W        W59127  12.198   8.098   8.955 -0.0338  0.1949  0.0361
58264W        W59128   9.556   8.883   6.852 -0.5187 -0.1526 -0.1189
58265W        W59129   8.537  10.856   3.912 -0.1999 -0.2041 -0.2568
58266W        W59130  10.546   9.357   8.329 -0.1064 -0.1072 -0.0018
58267W        W59131  11.059  11.469   1.667  0.1341  0.3685  0.0856
58268W        W59132   8.595   9.955   2.861 -0.0321 -0.1447 -0.1256
58269W        W59133   7.279   5.889   6.158 -0.0750 -0.0067 -0.0759
58270W        W59134   9.959   8.465   1.916 -0.0067 -0.3480  0.0677
58271W        W59135  10.236   8.072   3.308 -0.0859 -0.1359  0.2329
58272W        W59136  10.958   9.518   7.477 -0.3982  0.0616 -0.2070
58273W        W59137   8.364   7.610   7.139  0.0580  0.0378 -0.0959
58274W        W59138  10.767   7.202   8.690  0.0769  0.1148  0.1054
58275W        W59139  12.868  11.860   3.008  0.3120  0.0052 -0.1095
58276W        W59140   8.890  12.171   5.126 -0.1219 -0.1290  0.4450
58277W        W59141   9.792   8.516   3.091  0.3450 -0.3040  0.0820
58278W        W59142  11.611   8.866   4.619  0.4571 -0.1979  0.0668
58279W        W59143  10.644   6.037   4.016 -0.0239 -0.2707  0.0264
58280W        W59144   9.606   9.596   4.717  0.0640  0.0169 -0.0862
58281W        W59145   8.263   9.798   3.809 -0.3208  0.1663  0.2692
58282W        W59146   9.616   9.932   5.902 -0.0566 -0.2490  0.1258
58283W        W59147   9.297   8.519   3.895  0.1619 -0.0519  0.3758
58284W        W59148   9.150   8.548   5.286 -0.2281  0.1507 -0.2363
58285W        W59149   7.466  10.051   5.925 -0.0040 -0.1380  0.1388
58286W        W59150   8.504   9.853   7.780  0.2637  0.0452  0.1494
58287W        W59151  13.106   6.565   5.459 -0.0611  0.1183  0.0278
58288W        W59152   9.950  10.013   5.541  0.0954 -0.0779 -0.1225
58289W        W59153  12.241   8.897   5.656 -0.2224 -0.0759 -0.1079
58290W        W59154  12.686   8.654   4.379 -0.4021  0.1429  0.0415
58291W        W59155  11.818   4.942   5.770 -0.0865 -0.0931 -0.1912
58292W        W59156  10.814   8.502   6.154  0.1794 -0.0369 -0.2414
58293W        W59157   7.592   8.618   2.740  0.0744  0.1511 -0.2796
58294W        W59158  12.941   9.525   5.074 -0.2231  0.2802  0.1808
58295W        W59159   9.062   9.585   3.192  0.1240 -0.0395  0.2207
58296W        W59160  10.133   6.155   6.138 -0.0498 -0.0545 -0.2014
58297W        W59161  10.256   8.207   6.925 -0.0298  0.0121 -0.0502
58298W        W59162   6.173   9.233   4.278  0.2390  0.3041 -0.0846
58299W        W59163  10.968   9.708   6.249  0.0525  0.0273  0.1628
58300W        W59164  13.761   8.272   3.660  0.0317 -0.1203 -0.0730
58301W        W59165   6.527   9.243   7.353  0.3090 -0.0916  0.1533
58302W        W59166  12.697   8.832   5.894  0.2753  0.0776 -0.2640
58303W        W59167  12.316  10.178   5.673 -0.0512  0.1762 -0.1621
58304W        W59168   8.758   9.893   4.053 -0.0582  0.1850  0.1721
58305W        W59169  12.426  10.429   3.280  0.0492 -0.2257 -0.0926
58306W        W59170  11.462   8.049   6.541  0.3259 -0.1456 -0.0432
58307W        W59171   8.251  11.673   5.301 -0.0486 -0.1922  0.0272
58308W        W59172   8.242   5.880   3.893 -0.4170 -0.0164 -0.3862
58309W        W59173  11.942   8.035   5.310  0.0055 -0.0690  0.3633
58310W        W59174   7.524   8.009   6.715  0.0633  0.3635  0.2000
58311W        W59175   8.856   7.773   4.317 -0.0235  0.0201  0.1209
58312W        W59176  12.258   8.390   5.834  0.0626 -0.0115  0.0596
58313W        W59177   7.665  10.000   3.120  0.0779 -0.0503 -0.2144
58314W        W59178  11.958  10.818   3.688 -0.0291  0.2367  0.3506
58315W        W59179   6.583   8.591   3.656 -0.1044  0.0383  0.1331
58316W        W59180   9.134   9.019   5.159 -0.0603  0.0332 -0.0338
58317W        W59181   7.374  10.932   3.198  0.1118  0.0703 -0.0491
58318W        W59182   8.482   7.141   2.677 -0.0550 -0.0489 -0.0800
58319W        W59183   9.296  10.741   5.751 -0.0184  0.3686  0.1123
58320W        W59184   8.106   9.336   3.658  0.0007 -0.0542 -0.0636
58321W        W59185  10.732   6.572   3.938  0.1431 -0.2573 -0.3434
58322W        W59186  10.300  11.666   2.292  0.2337  0.1156 -0.1493
58323W        W59187   8.287   9.880   4.816 -0.1111  0.2613  0.0764
58324W        W59188   9.712   9.290   5.984  0.1254  0.1359  0.0203
58325W        W59189  10.753   9.816   6.664  0.0415 -0.2701  0.2401
58326W        W59190   7.836   7.538   5.238  0.0078  0.0428  0.2555
58327W        W59191  11.170   8.749   7.162 -0.0545 -0.0092 -0.1536
58328W        W59192   7.622   8.937   5.616  0.1946  0.0223  0.0310
58329W        W59193  11.978   7.502   7.199  0.3258  0.2123 -0.1013
58330W        W59194  10.018   8.960   7.415 -0.2195  0.1214 -0.0367
58331W        W59195   4.959   8.828   4.815 -0.2684  0.1434  0.5595
58332W        W59196  10.550   9.785   4.237  0.0277  0.0692  0.1576
58333W        W59197   7.679   6.600   5.254  0.2437 -0.0518 -0.0020
58334W        W59198   8.584  10.121   3.561 -0.0211 -0.0502 -0.0604
58335W        W59199  10.129   8.037   5.179 -0.2176 -0.1215  0.0830
58336W        W59200  10.340   6.343   5.700 -0.2096  0.0947 -0.1411
58337W        W59201  10.554   9.332   5.217 -0.2514  0.0436 -0.0455
58338W        W59202  11.052   9.480   5.053  0.2843 -0.1697  0.2546
58339W        W59203   7.796   8.617   7.178 -0.2251  0.0872 -0.0910
58340W        W59204   9.820   8.569   3.755  0.3863 -0.4020  0.2764
58341W        W59205   6.859   9.557   5.958 -0.1425  0.1211 -0.1354
58342W        W59206   4.707   7.634   5.039 -0.1377 -0.2380 -0.0823
58343W        W59207  10.392  12.201   5.527  0.2282 -0.1550 -0.2359
58344W        W59208   7.847  10.725   3.387  0.1514  0.0934  0.1249
58345W        W59209   9.751   9.952   5.015  0.2811  0.2518  0.1753
58346W        W59210  10.773  11.861   4.518  0.2407  0.0717 -0.2681
58347W        W59211   8.970   9.554   3.716  0.1156  0.0069 -0.0528
58348W        W59212   9.425   7.910   2.642  0.2604 -0.2621  0.0735
58349W        W59213  11.827   8.613   5.108 -0.0869  0.0984 -0.0581
58350W        W59214  12.674   8.266   3.202 -0.2006 -0.0697 -0.1440
58351W        W59215   8.320  11.075   7.178  0.0069 -0.1179  0.2259
58352W        W59216   7.928  10.710   4.281  0.1694 -0.1292 -0.1361
58353W        W59217   6.348  10.921   4.944  0.3564 -0.0062 -0.0564
58354W        W59218  11.520   6.961   6.723  0.2764 -0.1515  0.1463
58355W        W59219   7.629  10.680   2.389 -0.1965  0.0992  0.1365
58356W        W59220  12.006  11.256   1.517 -0.0750  0.1001  0.1355
58357W        W59221   8.943   6.041   4.063 -0.0442  0.2450 -0.0280
58358W        W59222   8.838  10.350   3.929  0.2284 -0.2992  0.3881
58359W        W59223   9.069   7.913   3.578 -0.0320  0.0797 -0.1603
58360W        W59224  12.084   7.590   8.207 -0.0390 -0.1547  0.2122
58361W        W59225  10.865   6.427   5.453  0.0270 -0.0905 -0.1285
58362W        W59226   8.419   8.813   7.509  0.0834 -0.0913 -0.0402
58363W        W59227  10.164  10.125   8.182 -0.2430 -0.2444 -0.0690
58364W        W59228  10.006  11.701   4.527  0.1073 -0.1088 -0.2910
58365W        W59229  11.818  10.695   3.178  0.1602 -0.1491 -0.3509
58366W        W59230   6.045   9.410   6.019 -0.1998 -0.2281 -0.1159
58367W        W59231   8.051   7.930   9.053 -0.1476  0.2225 -0.3234
58368W        W59232  10.568   7.894   6.619  0.0268  0.1171  0.2963
58369W        W59233   7.663   7.764   5.681  0.0901 -0.1573  0.0153
58370W        W59234   8.589   7.584   2.458  0.2139  0.1360 -0.1078
58371W        W59235   8.709   5.748   4.356 -0.1710 -0.1568 -0.1296
58372W        W59236   9.293   7.968   6.709  0.0210 -0.0193 -0.0071
58373W        W59237   5.365   8.118   8.401  0.2147  0.2569 -0.1713
58374W        W59238  11.305   7.564   6.665  0.0438  0.2095 -0.1502
58375W        W59239   7.666   7.701   2.435 -0.2270 -0.1989 -0.0832
58376W        W59240   7.264   8.080   8.651  0.3768  0.0386 -0.0246
58377W        W59241   8.131   9.066   4.101  0.0908 -0.4620  0.0712
58378W        W59242   9.022   8.397   3.364  0.0685 -0.0539  0.0382
58379W        W59243  11.632   8.579   7.421  0.0393 -0.0937  0.1756
58380W        W59244   6.264   6.557   3.427  0.1201  0.2980 -0.1771
58381W        W59245   6.512   9.466   6.892  0.1715 -0.0226 -0.2972
58382W        W59246  10.128   7.542   7.456  0.0182  0.1573 -0.1912
58383W        W59247  11.130  12.270   2.952 -0.0641 -0.2423  0.2218
58384W        W59248   7.963  11.626   2.155 -0.1837 -0.0140 -0.1146
58385W        W59249   6.386  10.500   7.850 -0.0162  0.0903  0.1355
58386W        W59250   6.754   9.929   6.628  0.2220 -0.2053  0.1059
58387W        W59251   8.093   8.253   8.096  0.1328  0.1306 -0.1841
58388W        W59252   9.919   7.165   4.164  0.1362  0.0823  0.3777
58389W        W59253  11.031   8.889   5.760  0.2798  0.0207  0.2176
58390W        W59254  11.430   6.680   2.331 -0.0388  0.0339  0.0864
58391W        W59255  11.371   9.370   4.592 -0.1746  0.0031 -0.2777
58392W        W59256   8.473   6.842   3.661 -0.0073  0.0098  0.2107
58393W        W59257   9.518  11.053   8.411 -0.0941  0.0052  0.2984
58394W        W59258   9.479   9.354   6.537  0.0768  0.3025  0.2274
58395W        W59259  11.766   7.352   6.729 -0.0990  0.0150 -0.1254
58396W        W59260  10.758   8.815   4.209 -0.0620 -0.1628  0.3229
58397W        W59261  12.323  12.190   6.227 -0.0962 -0.1345 -0.1822
58398W        W59262   8.231   6.411   3.822  0.1260 -0.4947 -0.0131
58399W        W59263   9.143   6.610   5.347 -0.2249  0.1515  0.0821
58400W        W59264   8.049   7.664   6.693  0.1661  0.1218 -0.3487
58401W        W59265  11.708  10.422   6.491 -0.0622 -0.0345 -0.1107
58402W        W59266  10.041   6.720   6.019 -0.0252 -0.0180 -0.0224
58403W        W59267  10.630  10.722   4.651 -0.2425 -0.0849  0.0685
58404W        W59268  10.097   8.002   4.506 -0.2076  0.0274  0.0849
58405W        W59269   6.966   7.560   5.431  0.0682 -0.1003 -0.2700
58406W        W59270  10.217   6.994   7.505  0.0809 -0.1531 -0.0717
58407W        W59271   8.335   7.985   6.302 -0.0333 -0.0404  0.2855
58408W        W59272  10.275   9.159   3.614  0.1757  0.0562 -0.0924
58409W        W59273   7.372   9.566   6.681 -0.0101  0.0402  0.2114
58410W        W59274   8.266  12.969   4.155 -0.1999  0.2603 -0.2064
58411W        W59275   9.199   7.975   7.585  0.2564 -0.3429  0.0450
58412W        W59276   7.499   8.583   7.632 -0.1524 -0.2127 -0.2769
58413W        W59277  10.020  10.890   5.230  0.0766  0.1162 -0.1306
58414W        W59278  12.496  11.020   8.573 -0.2288 -0.1744  0.2958
58415W        W59279  12.175   8.665   3.994  0.2410  0.0408  0.0515
58416W        W59280  11.459  10.246   8.955  0.2194  0.2175 -0.0383
58417W        W59281   7.996   8.260   6.855  0.0129 -0.1465 -0.0448
58418W        W59282   7.372   6.541   4.813 -0.2074  0.0132  0.4099
58419W        W59283   8.947   8.807   3.600 -0.1342  0.0671 -0.0490
58420W        W59284  10.646  11.431   0.905 -0.1679  0.0776  0.0690
58421W        W59285  11.739   9.849   6.176 -0.1982 -0.0144 -0.1941
58422W        W59286   7.884  10.864   5.800  0.0652  0.1527  0.0110
58423W        W59287   8.394  10.471   4.232  0.2961  0.0193  0.0038
58424W        W59288   8.435  10.753   6.148  0.0558 -0.1541  0.3508
58425W        W59289   7.669   8.580   8.104 -0.3844 -0.2926 -0.3013
58426W        W59290   8.313   8.301   4.645  0.2043  0.2229 -0.3896
58427W        W59291  11.059  11.858   6.446 -0.0202 -0.0466 -0.0961
58428W        W59292  10.486  13.638   6.117  0.1677  0.2339  0.0415
58429W        W59293   4.969   8.008   3.881  0.0449  0.0516  0.2108
58430W        W59294  11.559  11.976   2.893  0.0805 -0.1042  0.3317
58431W        W59295   8.026   6.068   4.924  0.0574 -0.2238  0.0719
58432W        W59296  12.634   9.767   6.962 -0.3176  0.1014  0.1063
58433W        W59297   9.498   9.688   3.874 -0.0011  0.1464 -0.1649
58434W        W59298  10.391   8.544   3.387  0.2053  0.1644  0.0957
58435W        W59299   8.005   7.542   4.736  0.1132 -0.0716 -0.2152
58436W        W59300   9.174   9.474   4.952 -0.0380 -0.0792 -0.0005
58437W        W59301  10.527   8.938   5.540  0.2184 -0.0214 -0.0299
58438W        W59302  12.142   9.550   6.968  0.0238  0.1126  0.3328
58439W        W59303   8.821  10.954   5.783 -0.0958  0.0703  0.1213
58440W        W59304   8.882   7.793   7.882 -0.1806  0.1500  0.2128
58441W        W59305  11.105  11.222   2.608 -0.0351 -0.1035 -0.0499
58442W        W59306   8.126  10.313   3.209  0.1106  0.0741  0.0660
58443W        W59307   6.606   9.322   3.006 -0.2322 -0.1979 -0.1232
58444W        W59308  11.860   7.505   5.388  0.1859 -0.0452 -0.0237
58445W        W59309   8.342  11.192   5.843  0.1631 -0.1948  0.2783
58446W        W59310   9.099   8.360   7.915  0.0498  0.2846  0.2230
58447W        W59311  10.335   7.457   6.468  0.0546  0.0690 -0.1143
58448W        W59312   7.530   8.997   6.230 -0.4445 -0.1859  0.0833
58449W        W59313  10.599   9.200   2.639  0.1195  0.2030  0.1979
58450W        W59314  10.480   6.307   6.586  0.3018  0.1045  0.2932
58451W        W59315   9.276   9.652   5.728 -0.0024 -0.0315 -0.3091
58452W        W59316   6.605   9.927   4.607  0.3168  0.3218  0.1803
58453W        W59317   8.306   8.041   3.362 -0.1828 -0.2977  0.4287
58454W        W59318   8.917   8.070   7.110 -0.3374  0.3184 -0.2253
58455W        W59319   6.921   8.214   5.423  0.0008  0.1933  0.1802
58456W        W59320   6.797   6.030   3.914  0.3518  0.1827 -0.1103
58457W        W59321   7.936  10.084   5.035  0.1182 -0.0718  0.0242
58458W        W59322   8.914   8.042   8.364 -0.1094 -0.2918 -0.1941
58459W        W59323   7.479   9.101   2.568 -0.0681 -0.1971 -0.0395
58460W        W59324   9.927   5.978   7.191 -0.0597 -0.0967 -0.0595
58461W        W59325   8.009  12.439   2.940 -0.1745 -0.1438  0.0959
58462W        W59326   7.942  13.084   4.585 -0.0806  0.0128 -0.1887
58463W        W59327   8.571   8.898   4.044 -0.0477  0.1866 -0.0291
58464W        W59328   8.647  12.937   3.374  0.1337 -0.1292 -0.0268
58465W        W59329  10.006   9.831   3.070 -0.2201  0.2663  0.3675
58466W        W59330  11.637   6.718   4.971 -0.1846 -0.1941 -0.0567
58467W        W59331   9.553   6.266   5.383 -0.0173 -0.2748  0.1070
58468W        W59332   7.409   6.509   3.345  0.0874  0.2329 -0.1471
58469W        W59333  11.296   8.586   4.260 -0.0588  0.0689 -0.0897
58470W        W59334  11.356   6.948   2.777 -0.0302  0.3094  0.0438
58471W        W59335   9.572   7.277   5.346 -0.2638 -0.2789 -0.0658
58472W        W59336  12.284  10.894   3.119 -0.3478 -0.2105 -0.0710
58473W        W59337  11.556   5.853   6.468 -0.0094  0.0416  0.0244
58474W        W59338   7.843  13.004   5.383 -0.0538  0.2118  0.3513
58475W        W59339   8.490   9.300   2.134 -0.2753  0.0815  0.1813
58476W        W59340   7.980   6.857   9.749  0.0273 -0.0505 -0.0565
58477W        W59341  11.447   8.200   5.245  0.0788  0.5433  0.2055
58478W        W59342  11.613   9.613   4.197  0.0032 -0.1087 -0.0692
58479W        W59343   8.981  10.773   3.056 -0.0843  0.0841  0.1387
58480W        W59344  10.265  12.154   8.770 -0.1319  0.1693 -0.1443
58481W        W59345   9.006   6.680   6.764 -0.0004 -0.1145 -0.1268
58482W        W59346   6.132   6.981   5.521  0.0686  0.2044 -0.5075
58483W        W59347  10.629   7.978   4.552 -0.0771  0.1155  0.1255
58484W        W59348   9.670   9.610   5.456  0.1127 -0.0750 -0.0348
58485W        W59349   6.534   9.383   1.672  0.0991  0.0070  0.1216
58486W        W59350   7.068   9.397   9.441 -0.2952 -0.0092  0.3901
58487W        W59351   8.065   8.541   2.648  0.1947 -0.1172 -0.1267
58488W        W59352  10.790   9.910   4.977  0.2054 -0.0699 -0.4091
58489W        W59353   8.530   9.683   3.318  0.2004  0.0826 -0.0743
58490W        W59354   8.872   9.802   8.168 -0.0259  0.2358 -0.1184
58491W        W59355   7.388   8.503   3.943 -0.2624 -0.2771  0.2298
58492W        W59356  12.939   9.136   4.296 -0.0382  0.2771 -0.1304
58493W        W59357  11.117   8.329   7.407  0.1981  0.0386  0.0448
58494W        W59358  11.154   9.266   6.047  0.0241  0.3077  0.0749
58495W        W59359   9.894  11.052   5.827  0.1155  0.1292 -0.4749
58496W        W59360  10.049   9.377   4.656  0.1117  0.0442  0.1107
58497W        W59361   5.146   7.368   8.305 -0.0281 -0.2823  0.1126
58498W        W59362   9.643   8.572   6.211 -0.2234 -0.2350  0.0710
58499W        W59363  10.792   8.494   3.763  0.2148 -0.2294 -0.1781
58500W        W59364  10.735   8.008   7.137  0.2028 -0.0240 -0.2079
58501W        W59365   7.356   7.217   6.916  0.1937  0.0533 -0.1535
58502W        W59366   6.087   7.768   4.366 -0.1465 -0.4166  0.0119
58503W        W59367   7.673   9.348   4.532 -0.1317  0.0539  0.2559
58504W        W59368   9.438  11.060   2.381 -0.3059  0.1397  0.0645
58505W        W59369  11.532   9.216   5.047 -0.0732 -0.0196 -0.1867
58506W        W59370  10.601   6.262   3.541 -0.0557 -0.0596 -0.0030
58507W        W59371  10.529   7.614   5.935 -0.0847 -0.0191 -0.0888
58508W        W59372   9.673  10.770   4.827 -0.0738 -0.0773  0.1053
58509W        W59373  11.584  10.036   3.954 -0.0908  0.0094  0.0558
58510W        W59374  10.733   8.341   8.334  0.0243  0.0376 -0.1384
58511W        W59375   7.743  10.766   7.743  0.2673 -0.0963  0.2551
58512W        W59376   9.330   8.288   4.456  0.1610 -0.2789 -0.2251
58513W        W59377  10.106   9.047   5.004  0.0266  0.0375 -0.0825
58514W        W59378   8.418   6.783   4.160  0.0475  0.0045  0.1542
58515W        W59379   6.305   9.826   4.165 -0.6663 -0.0275 -0.0457
58516W        W59380  10.288   7.160   6.025  0.0772  0.0607  0.0985
58517W        W59381   6.449   9.319   5.735  0.1935  0.5061  0.0681
58518W        W59382   8.273   8.646   5.014  0.1639  0.2008 -0.0546
58519W        W59383  10.054   8.569   5.366 -0.1172  0.0538 -0.3214
58520W        W59384   8.367   9.339   6.212  0.1303 -0.1419 -0.3419
58521W        W59385  13.067  10.615   1.543 -0.2929 -0.0834 -0.1095
58522W        W59386   6.561  10.004   5.089  0.0907 -0.2106  0.0323
58523W        W59387   8.222   9.127   4.942 -0.0254 -0.0859 -0.2733
58524W        W59388   7.830   8.215   5.792  0.1812  0.1048 -0.0965
58525W        W59389  12.403   8.626   6.217 -0.0887 -0.1657 -0.4086
58526W        W59390   9.833   7.166   3.097 -0.0810 -0.0246 -0.1273
58527W        W59391   7.744   9.722   3.765 -0.1620  0.1718  0.0622
58528W        W59392   8.481   7.692   4.635 -0.3144  0.0803 -0.0351
58529W        W59393   9.856   7.643   5.100  0.1115 -0.2218  0.0892
58530W        W59394   8.166   6.752   5.094 -0.1082  0.1045 -0.2782
58531W        W59395   8.795  12.132   6.071  0.0604 -0.2671 -0.0954
58532W        W59396  10.026   8.078   7.423 -0.1363 -0.0687  0.1351
58533W        W59397   9.157   6.143   6.314  0.1966 -0.1955  0.0678
58534W        W59398  10.477   7.892   4.063  0.2720 -0.1705 -0.0095
58535W        W59399   6.590   9.772   3.771  0.1264  0.2515 -0.0164
58536W        W59400  11.375   8.413   4.708  0.3730 -0.4684  0.1540
58537W        W59401   7.847   9.841   4.550 -0.0587 -0.0184 -0.2059
58538W        W59402  11.664   5.878   5.507 -0.2096 -0.0401  0.0564
58539W        W59403   8.787  11.174   2.778 -0.1981 -0.0449 -0.1304
58540W        W59404  11.427  11.441   4.037 -0.0499  0.0574 -0.0520
58541W        W59405  11.260  12.741   2.245  0.0614 -0.4724  0.0015
58542W        W59406  10.445   9.606   4.763 -0.0782  0.0013  0.2625
58543W        W59407  10.980   7.608   5.042  0.0838  0.0825 -0.0235
58544W        W59408  11.153   6.558   5.047  0.3881  0.1155  0.1770
58545W        W59409   8.903  10.554   3.507 -0.3690 -0.0504  0.1706
58546W        W59410   5.890   6.482   2.579 -0.3912  0.0304  0.1687
58547W        W59411   8.750   7.955   3.203 -0.0347 -0.1506 -0.2664
58548W        W59412  11.636   7.961   4.817 -0.0837  0.1583 -0.1913
58549W        W59413   9.720  10.322   4.479  0.0377  0.1208  0.0588
58550W        W59414   7.318   8.165   6.288 -0.0076  0.0061 -0.0314
58551W        W59415  12.169   9.410   5.635  0.1292 -0.1903 -0.0970
58552W        W59416  10.916   6.410   4.545 -0.0122 -0.0388  0.2202
58553W        W59417  11.555   6.287   5.944  0.0823  0.0017 -0.0422
58554W        W59418   8.214   9.429   4.552 -0.0746 -0.0300  0.1048
58555W        W59419   8.705   9.176   4.417  0.0714  0.2127  0.0836
58556W        W59420  10.139  10.304   7.333 -0.2415  0.0760 -0.0897
58557W        W59421   7.973   6.461   4.232 -0.4672 -0.1375 -0.1466
58558W        W59422  11.350   9.888   7.803  0.0265 -0.2460 -0.2789
58559W        W59423   9.393   8.595   5.772  0.2034  0.0913 -0.0780
58560W        W59424   7.920   8.885   4.487 -0.2110 -0.0950  0.2831
58561W        W59425   7.290  12.265   2.762  0.2673  0.2504 -0.1695
58562W        W59426   6.155   9.096   3.012  0.2320  0.3257 -0.1723
58563W        W59427  10.973  10.223   7.638 -0.0358 -0.2099 -0.0770
58564W        W59428   9.700  11.048   6.651 -0.2220  0.5970 -0.0400
58565W        W59429   9.028   8.116   4.086 -0.0063 -0.2661 -0.1895
58566W        W59430  10.264  10.065   5.065  0.1487 -0.0110 -0.0258
58567W        W59431   9.730  11.778   5.175  0.0590 -0.0414 -0.1925
58568W        W59432   9.291   9.126   5.685  0.1569 -0.0625 -0.1980
58569W        W59433  10.532   7.554   9.026  0.1077 -0.0526 -0.3082
58570W        W59434   7.087  12.350   3.248 -0.0886  0.1835  0.1099
58571W        W59435  11.169   9.522   9.706  0.2244  0.1052 -0.1801
58572W        W59436  10.116   7.605   5.568  0.1134  0.1034  0.2063
58573W        W59437   8.114   6.349   5.409 -0.0351  0.1249 -0.0233
58574W        W59438   9.765  13.329  12.308 -0.0915  0.1488 -0.0117
58575W        W59439  10.003   8.329   9.730 -0.1079 -0.1581  0.0379
58576W        W59440  11.395   9.389   7.761  0.1874 -0.1152  0.0360
58577W        W59441  11.641   9.657  11.792  0.0926 -0.4218  0.1616
58578W        W59442   9.132  10.151   9.028  0.0524  0.0731  0.2716
58579W        W59443   9.744   8.474   8.762 -0.1062 -0.1616 -0.2418
58580W        W59444   8.912   8.189   5.618 -0.4004 -0.0904  0.1088
58581W        W59445   8.926   7.561   9.003  0.1669 -0.1517  0.1354
58582W        W59446   9.661  11.386  10.329 -0.1549 -0.1311  0.0123
58583W        W59447   8.006   6.404  11.633 -0.1157 -0.1427  0.0009
58584W        W59448   4.990   6.998   9.177  0.2409 -0.1129 -0.2106
58585W        W59449  10.952   6.045   8.246  0.0121  0.0420 -0.1307
58586W        W59450   9.634   8.633   9.791  0.0973 -0.0557 -0.1652
58587W        W59451  10.548   8.644   9.387  0.0452  0.3686 -0.0093
58588W        W59452   6.599   7.957  10.697 -0.1623 -0.1223 -0.0501
58589W        W59453   5.069   8.326  12.752  0.0334  0.0386  0.1347
58590W        W59454   8.190   6.165  10.146 -0.0835  0.0623  0.1222
58591W        W59455   6.785   9.765   8.717  0.1940  0.0543 -0.0930
58592W        W59456  10.530   7.803  11.135  0.0538 -0.3411  0.2174
58593W        W59457  10.054   8.778  10.132  0.0155 -0.4015  0.0667
58594W        W59458  10.178   8.106   8.440 -0.1999 -0.1161  0.0259
58595W        W59459   7.279   8.219   8.153 -0.0037  0.2084  0.0618
58596W        W59460  10.132  12.004  12.195 -0.2748  0.1032 -0.0996
58597W        W59461   8.024   7.757   9.556  0.0787 -0.2461  0.1900
58598W        W59462   8.712  10.780  11.007  0.0491  0.1278  0.0832
58599W        W59463   7.147   9.966   9.293  0.0519 -0.1058  0.2389
58600W        W59464  12.666   9.350  11.252 -0.1072 -0.2547 -0.1567
58601W        W59465   9.096   8.802   7.046  0.3499 -0.1350 -0.0951
58602W        W59466   8.518  10.586   7.712  0.0402  0.0481  0.0542
58603W        W59467   9.015  10.962   7.893  0.0332  0.0162  0.4248
58604W        W59468  10.712   8.509   7.096  0.0886  0.0315 -0.4086
58605W        W59469  10.568   8.740  10.989  0.0335 -0.0298 -0.1361
58606W        W59470   9.050   8.427   9.805 -0.0130 -0.1988 -0.1448
58607W        W59471   7.237   5.278   9.431 -0.2148 -0.0775 -0.1657
58608W        W59472   9.172   6.352  10.949 -0.1201 -0.1932 -0.0600
58609W        W59473  15.734   9.861  11.103  0.3963 -0.3603 -0.0869
58610W        W59474   7.668   6.142  10.549 -0.2738  0.0329 -0.2276
58611W        W59475   9.466   8.306   9.466 -0.2754  0.2096  0.0856
58612W        W59476  11.546  11.693   9.154 -0.0781 -0.2271  0.3736
58613W        W59477   9.303   6.564   9.163  0.0453 -0.1080 -0.0648
58614W        W59478  10.578   8.767   4.981  0.0936  0.0271 -0.0086
58615W        W59479  11.426  12.129  11.812  0.1506 -0.0461  0.0896
58616W        W59480  10.900  10.539   9.098 -0.1504 -0.0796  0.2611
58617W        W59481  12.433   9.720   5.365 -0.0661  0.2575  0.0681
58618W        W59482   6.903  11.520  10.358  0.0223  0.2250 -0.0008
58619W        W59483   7.417  11.199   8.166  0.1704 -0.2532  0.2038
58620W        W59484  10.382   9.616   9.055 -0.2448  0.3321 -0.1346
58621W        W59485  10.084   9.889   8.602 -0.2873  0.0003  0.1287
58622W        W59486   7.613   8.776   8.981  0.3254 -0.1650 -0.3026
58623W        W59487  11.656  10.379  10.124  0.0266  0.0073 -0.1337
58624W        W59488   9.660   9.906   8.947 -0.0302  0.1194  0.0325
58625W        W59489  10.139   9.322   8.624 -0.0297 -0.0820 -0.0116
58626W        W59490  10.044   9.775  10.071  0.0236  0.1680  0.0442
58627W        W59491   9.462  10.368   6.138 -0.1160 -0.2070  0.3387
58628W        W59492   9.857   5.995  12.010 -0.1880  0.2851  0.0792
58629W        W59493   8.113   9.261   7.139 -0.0475  0.1465 -0.0893
58630W        W59494  10.371   6.801   8.533  0.1491 -0.2186  0.2341
58631W        W59495  11.151   8.920   8.172  0.2509 -0.2205 -0.0628
58632W        W59496   8.990  10.611   6.240  0.0121  0.1163  0.4406
58633W        W59497   9.190   6.279   8.740 -0.1120 -0.6109  0.2645
58634W        W59498   9.761   8.923   8.497 -0.3339  0.1365  0.1281
58635W        W59499   8.614   9.710   9.501  0.0993 -0.1121 -0.1598
58636W        W59500   7.321  11.221  10.005 -0.0872 -0.0069  0.1804
58637W        W59501   8.482   8.273   8.465  0.1325 -0.1970  0.0677
58638W        W59502  10.714   6.486   9.351 -0.4396  0.1182  0.3042
58639W        W59503   9.845   6.870  12.228 -0.4358 -0.0298 -0.2950
58640W        W59504   4.964   9.425   7.305  0.1314 -0.1118 -0.0029
58641W        W59505   9.080   9.093   3.994  0.1312  0.2654  0.1636
58642W        W59506   8.964  11.438   7.173  0.0332 -0.3691  0.0750
58643W        W59507  10.540   9.630  10.097  0.1310 -0.0977  0.0891
58644W        W59508  12.601   6.505   9.798  0.3260  0.0371  0.1374
58645W        W59509   9.970   7.944   7.985  0.2227 -0.0600  0.2219
58646W        W59510  13.706   9.586   8.539 -0.0978 -0.0970  0.1966
58647W        W59511   8.825   9.931  10.526 -0.2114 -0.0628 -0.1181
58648W        W59512  12.978  10.966   9.739 -0.1270  0.0592  0.1024
58649W        W59513   9.011  11.768   8.449  0.2369  0.0254 -0.1514
58650W        W59514   8.646   7.700   5.889  0.0700  0.2390 -0.0127
58651W        W59515   7.956   9.198   8.943 -0.3822 -0.0291  0.0615
58652W        W59516   9.055   9.939   9.496  0.0099  0.0170  0.2466
58653W        W59517  11.484   8.820   5.857  0.0022  0.3989 -0.1396
58654W        W59518   5.078   6.965  10.573 -0.0984 -0.1984 -0.1629
58655W        W59519   8.269   7.814  16.162  0.0477  0.0298 -0.3773
58656W        W59520   4.800   6.479   9.756 -0.2960  0.2270 -0.0172
58657W        W59521  10.832   5.835   7.783 -0.0578  0.0217  0.0546
58658W        W59522   9.837   5.716   9.409  0.4065  0.1019 -0.0423
58659W        W59523  12.136   8.005   7.889  0.0359  0.0877 -0.0414
58660W        W59524   9.533  10.400  10.041  0.2243 -0.1944 -0.1429
58661W        W59525   7.584   8.304  10.072 -0.2348 -0.0964  0.4148
58662W        W59526  10.198  10.079   9.088 -0.0399  0.3159  0.0548
58663W        W59527  11.494   6.068   8.107  0.0957  0.0138 -0.2200
58664W        W59528  11.434   8.055   7.633  0.2943  0.4565 -0.3549
58665W        W59529   9.745   9.745  13.448  0.1072 -0.1347 -0.3087
58666W        W59530   7.359  11.826   8.501  0.0393 -0.3695  0.1265
58667W        W59531   9.528   8.394   6.727 -0.1373  0.1615  0.1787
58668W        W59532   9.411   3.964   9.873  0.2262  0.2030 -0.1619
58669W        W59533  11.678   7.659   6.275 -0.0323  0.2267 -0.0370
58670W        W59534  10.736   7.971   3.160 -0.2569 -0.0521 -0.0365
58671W        W59535   7.445  10.045  10.868  0.3268 -0.2317 -0.2087
58672W        W59536   8.245   6.642  10.212  0.0490  0.0889  0.2504
58673W        W59537  10.529   7.292   7.199 -0.0282  0.0803 -0.3096
58674W        W59538  11.031   6.499   7.348 -0.0920 -0.0446 -0.0572
58675W        W59539   7.055  10.851   9.652  0.1672 -0.0751 -0.0943
58676W        W59540  11.028   8.529   6.638  0.1898  0.2665  0.1487
58677W        W59541  12.835  10.759  10.783  0.2498  0.0000  0.0205
58678W        W59542  10.251   7.526  11.487  0.0968 -0.2330 -0.0841
58679W        W59543   9.394  10.260   9.544  0.0064 -0.3026 -0.3889
58680W        W59544  10.667  10.416   8.123  0.0699  0.0042 -0.1574
58681W        W59545   9.297   8.398   8.489  0.1422  0.1670 -0.0840
58682W        W59546  10.203   4.590  10.628 -0.2728  0.2200 -0.0252
58683W        W59547   8.221   7.990   9.955  0.0197  0.0637 -0.3576
58684W        W59548   6.587   6.113   9.175  0.0807 -0.0789 -0.1035
58685W        W59549   9.699   7.935   8.439  0.1636  0.0819 -0.2474
58686W        W59550  10.157   7.137   9.321 -0.1955 -0.1987  0.0678
58687W        W59551  12.110  11.300  12.592  0.0005  0.1965 -0.0305
58688W        W59552  13.268   6.998   6.322 -0.1279 -0.1372 -0.0617
58689W        W59553   7.844   9.735   8.649  0.1828  0.1526 -0.0725
58690W        W59554  11.301   7.336  11.054 -0.1004 -0.0804 -0.3151
58691W        W59555  12.379  10.199   8.237  0.0340 -0.0482 -0.0073
58692W        W59556   8.542   6.554   8.335 -0.0654  0.1935 -0.2583
58693W        W59557  11.014   7.625   8.827  0.0779  0.1844 -0.0039
58694W        W59558  10.874   9.180   7.046 -0.0839 -0.2191 -0.0807
58695W        W59559  11.880  12.102   9.327  0.1332 -0.0290  0.0077
58696W        W59560  11.240  10.066   6.422 -0.1095  0.0387  0.0182
58697W        W59561  11.105   9.467   8.236  0.0458 -0.0584  0.0843
58698W        W59562  12.320   6.156  11.654 -0.0889  0.0700 -0.3550
58699W        W59563   9.667   7.008   9.028  0.2809  0.1231  0.1557
58700W        W59564  11.440   6.278  10.813 -0.0568 -0.1174  0.4425
58701W        W59565   7.995   7.176   8.898 -0.1584 -0.1111 -0.2524
58702W        W59566  10.560  11.060   7.008 -0.3119 -0.4859  0.3648
58703W        W59567   8.803  13.184   6.338  0.0488 -0.3216  0.1596
58704W        W59568   8.296   9.750   8.365 -0.3114  0.0311 -0.5205
58705W        W59569  10.047   8.960   8.994 -0.1327  0.0435 -0.2887
58706W        W59570   9.112   9.591  11.225  0.4069 -0.1963 -0.2349
58707W        W59571   9.294   6.890   7.782 -0.0439  0.0136  0.1273
58708W        W59572  10.654  11.372  10.299  0.3242 -0.0184 -0.1082
58709W        W59573   5.518   8.794   9.333 -0.1699 -0.1205 -0.2808
58710W        W59574  11.457  10.318  11.086 -0.3182  0.2114 -0.1770
58711W        W59575  10.958   7.758   9.838 -0.1089  0.1054 -0.0170
58712W        W59576  12.350  10.856   9.086  0.1624  0.0747 -0.0084
58713W        W59577   9.774  10.006   7.338 -0.0848  0.0657  0.0966
58714W        W59578   9.109  10.958   4.759  0.1429  0.0162  0.0655
58715W        W59579  10.444   7.996   9.261 -0.0602  0.2768 -0.3367
58716W        W59580  11.581   9.585   9.382 -0.2928  0.2664 -0.1322
58717W        W59581   9.631   5.729   8.073  0.1313 -0.1803 -0.0454
58718W        W59582   8.769  10.914  10.056 -0.1213 -0.2471  0.4807
58719W        W59583   8.011   5.710  10.431 -0.0509 -0.0984 -0.1641
58720W        W59584  12.364   9.667   6.467  0.0352  0.0522  0.0099
58721W        W59585   9.300   8.026  11.009  0.3866 -0.4473 -0.2552
58722W        W59586   8.498  11.304  10.901  0.1457  0.3364 -0.0377
58723W        W59587  11.950   9.881  11.034  0.1167 -0.1686 -0.2150
58724W        W59588  11.136   8.423  11.943  0.2287 -0.0951 -0.0137
58725W        W59589   8.554   5.760   8.050 -0.2094 -0.1808  0.2120
58726W        W59590   9.661   8.334  11.483  0.1608  0.0544  0.0933
58727W        W59591   6.848   6.998   7.518 -0.2794  0.1759 -0.0070
58728W        W59592   8.609   7.912   9.282 -0.0471  0.3204 -0.1797
58729W        W59593  10.522   6.977   9.037 -0.1056 -0.1485  0.2127
58730W        W59594   6.161   9.827   9.865  0.0875 -0.1235 -0.0374
58731W        W59595   9.964   8.529   7.626 -0.5453  0.1351  0.1475
58732W        W59596   8.920   8.902   7.877  0.2461  0.0410  0.0782
58733W        W59597  12.618   9.804   5.796 -0.3673  0.2230  0.2687
58734W        W59598   7.194   6.229   9.628  0.0502  0.1641 -0.3233
58735W        W59599   8.162   7.451  11.201  0.0815 -0.2551 -0.2093
58736W        W59600  10.736   7.101   8.168  0.2653  0.1053  0.2868
58737W        W59601  10.569  10.424  13.088 -0.0149  0.2038 -0.1652
58738W        W59602  11.422   7.710  11.721  0.0264  0.1642 -0.1353
58739W        W59603   9.175   6.289   9.648 -0.0603  0.4534  0.0843
58740W        W59604   8.563  12.278   9.954  0.1138 -0.0479  0.0626
58741W        W59605  10.354   9.534   6.841 -0.2743 -0.0671 -0.1676
58742W        W59606  11.625  11.370  12.457  0.1742 -0.0788  0.2069
58743W        W59607   8.254   9.174  10.208 -0.0594  0.2281 -0.2649
58744W        W59608  11.823   8.518   8.853  0.3907  0.0210  0.2742
58745W        W59609  10.725   8.664   8.831  0.1253 -0.0282 -0.1860
58746W        W59610  10.160   9.931   6.974 -0.0539  0.0760 -0.0127
58747W        W59611  14.466   7.191   7.525  0.1464  0.1336  0.1088
58748W        W59612   8.860   7.580   7.363  0.1056  0.3909  0.0671
58749W        W59613   9.345   9.127   7.769  0.0986  0.1091  0.2801
58750W        W59614   6.046  12.399  10.905 -0.3202  0.2069  0.1068
58751W        W59615   9.790   8.280  10.956 -0.0770  0.0024  0.1760
58752W        W59616   8.055  10.641   8.916 -0.1648  0.0493  0.2412
58753W        W59617  10.049   4.575  11.664  0.0903 -0.3505 -0.2068
58754W        W59618   6.142   4.746  10.158 -0.0753  0.2232 -0.0422
58755W        W59619  12.508  12.065   8.200 -0.2096 -0.1797  0.0776
58756W        W59620  13.420  10.841   7.566 -0.2225  0.2050  0.0372
58757W        W59621   9.726   8.392   8.210  0.2622  0.1216 -0.1070
58758W        W59622  10.325   8.539   5.814 -0.1345 -0.2250  0.0265
58759W        W59623   6.786  11.001  12.800  0.0593 -0.0891  0.0550
58760W        W59624   9.768   9.899   9.464  0.0521 -0.0422  0.1157
58761W        W59625   8.692   7.346   5.582  0.1796 -0.1489 -0.0585
58762W        W59626   7.658  10.806  10.292 -0.0796 -0.1481  0.0127
58763W        W59627   7.348   9.979   8.251 -0.0386 -0.2440  0.3657
58764W        W59628   7.976   8.965   7.456 -0.1712  0.3049 -0.1414
58765W        W59629  11.206   9.848   9.131  0.4324  0.0441  0.0200
58766W        W59630   7.892  12.156  12.186 -0.3157 -0.3034  0.1364
58767W        W59631   6.990   6.510   9.303 -0.1703  0.2093 -0.2751
58768W        W59632   8.557   8.924  12.096 -0.2430  0.1087 -0.3354
58769W        W59633  11.122   7.986   6.902  0.0663 -0.4035  0.1225
58770W        W59634   9.362   8.756   8.091 -0.0227 -0.1505 -0.1622
58771W        W59635   8.739   9.013   8.566 -0.2337  0.0734 -0.0249
58772W        W59636   5.819   9.345   8.811 -0.2678 -0.3060 -0.3645
58773W        W59637   9.227   7.073   8.600 -0.1551 -0.0936  0.0618
58774W        W59638   7.727   9.923   6.443  0.0528  0.1348 -0.2962
58775W        W59639  11.706   6.588   9.990 -0.0862 -0.0482 -0.2601
58776W        W59640  11.376   7.673   5.383  0.0988  0.1035 -0.0893
58777W        W59641  11.342   5.894   9.116  0.0628 -0.0445 -0.1288
58778W        W59642   8.245   7.443   8.489  0.1499 -0.1802  0.2289
58779W        W59643   6.890   5.279   8.499  0.0820 -0.0910 -0.2907
58780W        W59644   9.269   8.636  11.114  0.0376  0.2994  0.2217
58781W        W59645   9.768   6.621   9.354  0.0335 -0.1337  0.1469
58782W        W59646  11.677  10.956   6.584  0.0175 -0.1649 -0.1305
58783W        W59647   8.636   7.026   8.322 -0.1618  0.5319  0.2895
58784W        W59648   6.822   8.070  10.276 -0.1377 -0.0796  0.0295
58785W        W59649   6.725   9.579   7.651 -0.1935  0.0537  0.2796
58786W        W59650  10.140   7.813   8.857  0.2716 -0.3122  0.0405
58787W        W59651  10.661   7.071   6.689  0.0880  0.1102 -0.1029
58788W        W59652   9.242   7.990  12.686 -0.0626  0.2741  0.1240
58789W        W59653  11.983   7.114   7.496 -0.0401 -0.0162  0.1342
58790W        W59654  10.382   8.832   7.793 -0.0987  0.1857 -0.1937
58791W        W59655  11.919   9.216   4.402 -0.0462 -0.1662 -0.0820
58792W        W59656   8.539   7.831   8.784  0.1715 -0.0488 -0.2805
58793W        W59657   6.463  10.526  10.443 -0.0141  0.1153  0.0924
58794W        W59658  11.384   8.767  12.291 -0.1956 -0.1985 -0.0028
58795W        W59659  10.711   8.028   8.813 -0.2597 -0.2624 -0.1206
58796W        W59660  12.520  12.198  10.936 -0.0680 -0.2495 -0.1241
58797W        W59661   8.913   7.179   6.918 -0.5240  0.0966  0.0719
58798W        W59662   9.301   9.896   5.227  0.2739  0.3781 -0.0313
58799W        W59663   9.058   5.287  13.557 -0.0638 -0.0419 -0.1873
58800W        W59664   8.182   9.932   9.490  0.1756  0.0357  0.1159
58801W        W59665  10.183   7.240   8.770  0.2739 -0.0788 -0.0433
58802W        W59666   9.397  10.201   7.051  0.1056 -0.1967  0.0644
58803W        W59667  10.403   8.858   7.138  0.1075  0.1159  0.2362
58804W        W59668  10.797   8.303  11.296 -0.0210 -0.5701 -0.0116
58805W        W59669   8.746   7.059  11.600  0.2824  0.1353 -0.1076
58806W        W59670   9.020   8.622   6.587  0.0035  0.0700  0.0588
58807W        W59671  12.539   8.620  10.820  0.4358  0.2093  0.1333
58808W        W59672   7.002   9.027  11.817  0.0256 -0.1501 -0.3270
58809W        W59673  11.616   9.119   6.240  0.2639 -0.1657  0.0671
58810W        W59674  11.322   7.099   8.198  0.0237  0.0017 -0.1326
58811W        W59675   5.436   7.901  10.280  0.0195 -0.1948  0.0869
58812W        W59676  10.083  11.134   6.309 -0.1537  0.1928 -0.1451
58813W        W59677  11.427  10.851  11.069 -0.0639  0.2446  0.4369
58814W        W59678   8.126  10.371   4.644 -0.1924  0.0147 -0.0541
58815W        W59679   9.848   9.206  11.891 -0.1626 -0.4323  0.1187
58816W        W59680   6.308   9.031   8.162  0.0066  0.3042 -0.0579
58817W        W59681   9.305   8.474   9.024  0.1026  0.1134  0.1215
58818W        W59682  12.297   8.422   8.164  0.0505 -0.1650 -0.0371
58819W        W59683   7.148  10.152   7.278  0.4321  0.0994  0.0069
58820W        W59684  11.439  10.512   7.753 -0.1452  0.2237 -0.4299
58821W        W59685   7.437  11.705  10.109 -0.0265  0.4560 -0.2499
58822W        W59686  11.056  10.196   6.903  0.1273 -0.3976 -0.3387
58823W        W59687   7.133   6.926   9.540 -0.4096 -0.0416  0.0280
58824W        W59688   6.231   9.044   8.770  0.1404  0.0872 -0.2821
58825W        W59689   8.474   9.074  11.628  0.0239  0.0276  0.2251
58826W        W59690   9.906  12.668   9.742  0.5150 -0.3266  0.3115
58827W        W59691   8.722   9.591   8.567 -0.2774  0.0838 -0.1083
58828W        W59692   5.746   6.710   8.599 -0.1106 -0.0071 -0.1743
58829W        W59693  14.935  11.475   8.790 -0.0430  0.2533 -0.1430
58830W        W59694  11.983   6.705   8.975  0.1550  0.1547 -0.2049
58831W        W59695   9.354   6.481  11.379  0.1324  0.1227  0.0977
58832W        W59696   9.223   9.772   8.692  0.0110  0.0999  0.2154
58833W        W59697  10.865   9.145   9.163 -0.1433  0.3443 -0.3387
58834W        W59698   8.890   8.612   8.294 -0.1797  0.1654  0.2608
58835W        W59699  10.784   9.610   9.376 -0.1451  0.1451 -0.1546
58836W        W59700  10.837  10.675   7.738  0.1168  0.0838  0.0629
58837W        W59701   7.997   8.450   8.510  0.2134  0.0849  0.1476
58838W        W59702  11.346  11.248   9.216  0.0515 -0.1451  0.2201
58839W        W59703   8.317   8.737   8.329  0.0379 -0.0063  0.1108
58840W        W59704   9.745   7.164   7.455  0.1487  0.0855  0.1085
58841W        W59705  11.289  10.432   4.146  0.0927  0.3146 -0.2306
58842W        W59706   7.746   7.458   9.195 -0.1204  0.0756  0.0213
58843W        W59707  10.298   8.854   4.452 -0.1584  0.3103  0.1364
58844W        W59708   8.157  11.096   9.512 -0.4456 -0.3503  0.0990
58845W        W59709  11.898   8.015  10.738 -0.1365  0.2378 -0.1573
58846W        W59710   8.782   7.470   9.500 -0.2652 -0.0378  0.2344
58847W        W59711   6.780   8.461   9.407  0.5100  0.1775 -0.3753
58848W        W59712   7.844  14.740   8.278 -0.1142  0.0371 -0.1587
58849W        W59713  10.076   7.638   9.313 -0.0874 -0.2019 -0.2745
58850W        W59714   5.608   7.930  10.792  0.3284 -0.0873 -0.3451
58851W        W59715  11.457   6.801  10.418  0.1078 -0.2788  0.1865
58852W        W59716   9.992   8.337   6.514 -0.4168  0.0407  0.5393
58853W        W59717   9.611  14.050  10.557  0.2134  0.0844  0.2704
58854W        W59718  11.943  10.368   8.549  0.2608  0.2482 -0.0303
58855W        W59719  12.136   5.730   4.236  0.0650 -0.1660  0.3528
58856W        W59720  10.589   7.718   7.480 -0.0517  0.0361  0.0031
58857W        W59721   6.042  11.557  10.296  0.0110 -0.0483 -0.0762
58858W        W59722  11.526   8.597   6.587  0.1018 -0.0115  0.0719
58859W        W59723  10.302   8.353   8.931 -0.0424  0.0422  0.0845
58860W        W59724   9.827   7.415   7.899 -0.0403 -0.3448 -0.0723
58861W        W59725   8.147  11.560   9.787 -0.0936 -0.1408  0.1273
58862W        W59726  12.344   7.755   7.421 -0.2054  0.0187  0.0066
58863W        W59727  10.458  10.288   8.636 -0.1994 -0.1711 -0.3413
58864W        W59728   7.119   7.384   9.818  0.3964 -0.2643  0.2271
58865W        W59729   9.255   7.269   7.271  0.1017  0.0548 -0.0247
58866W        W59730   9.883   8.389  10.443  0.0692  0.0869  0.1114
58867W        W59731   6.431   8.022   9.226 -0.0782  0.0250  0.2594
58868W        W59732   9.239   8.787   9.398 -0.0527 -0.2257 -0.0858
58869W        W59733  12.454   9.500   7.417  0.1264 -0.2181  0.2600
58870W        W59734   7.587   7.201   9.649 -0.2094  0.0072  0.1264
58871W        W59735  12.926   9.357   9.257  0.0258  0.0593 -0.1028
58872W        W59736  12.141   7.173   9.010 -0.1448 -0.1175  0.1847
58873W        W59737  10.952  10.803   9.532  0.0968 -0.3339 -0.2023
58874W        W59738   8.926   9.442   7.796 -0.1018 -0.0989 -0.1883
58875W        W59739   6.933   6.795  12.594 -0.1508 -0.0445 -0.3541
58876W        W59740   8.241  11.248  10.501 -0.0852  0.0382 -0.1295
58877W        W59741  11.614   9.116   8.207  0.1259  0.1660  0.1171
58878W        W59742  13.384   9.178   4.601 -0.1811 -0.1728 -0.2194
58879W        W59743  12.179  14.790  11.790  0.1496  0.1676  0.1986
58880W        W59744  10.447  10.243  11.391 -0.0220  0.0196  0.4679
58881W        W59745   8.746   6.298   6.088  0.1599 -0.1214  0.0749
58882W        W59746  11.291   7.485   9.536  0.2005 -0.2640 -0.0670
58883W        W59747  11.096  10.204   8.173  0.1553 -0.0808  0.1695
58884W        W59748   9.664   9.089   9.474 -0.0575  0.0754 -0.2018
58885W        W59749   8.732   9.353  11.914 -0.0615 -0.1992 -0.2635
58886W        W59750   9.636   8.029   6.340 -0.0948 -0.2136  0.1519
58887W        W59751  10.685  11.020   9.936 -0.1586 -0.1397 -0.1116
58888W        W59752   8.430  10.958   9.085 -0.0001  0.2058 -0.1426
58889W        W59753   6.362  11.638  12.828 -0.1768  0.1472  0.4163
58890W        W59754   7.325   5.925   7.959  0.2267  0.2705 -0.0588
58891W        W59755  10.097  10.709   6.896 -0.2330 -0.1339  0.1283
58892W        W59756   8.938  11.470  10.907  0.0550 -0.1466  0.2407
58893W        W59757   6.435   8.931   6.060 -0.1600 -0.3496  0.2356
58894W        W59758   8.579  12.670  10.331 -0.1724 -0.0305 -0.3478
58895W        W59759  12.504   9.259   7.946  0.1923  0.1202  0.2599
58896W        W59760   6.703  10.924  12.284 -0.0517 -0.0457  0.0342
58897W        W59761   9.428   9.652   7.242 -0.2143  0.5186  0.2824
58898W        W59762   7.214   8.210   7.613 -0.0737  0.1091 -0.0916
58899W        W59763   8.338  11.699  10.205  0.1213 -0.3314  0.3400
58900W        W59764   7.276   6.833  10.522  0.0797  0.2089  0.1002
58901W        W59765  11.217   8.811   6.266  0.1453  0.3593  0.0777
58902W        W59766  12.180   9.650   6.035  0.1023 -0.0600 -0.0142
58903W        W59767   6.677  10.313   7.136  0.2887  0.0438  0.0487
58904W        W59768   5.618   7.038  10.342 -0.3784 -0.1754 -0.0629
58905W        W59769   9.355   7.892   8.061  0.4302  0.0970 -0.0132
58906W        W59770  11.744   9.205   9.672 -0.0278 -0.2103  0.2198
58907W        W59771  11.495  11.842  11.021 -0.1571 -0.0496  0.0963
58908W        W59772  11.526   8.917   8.668 -0.0667  0.0067  0.0172
58909W        W59773  11.189  10.141  10.772 -0.2223 -0.1810  0.0446
58910W        W59774  12.366  11.465   9.555  0.0302 -0.2032  0.2546
58911W        W59775  12.715   8.682   7.185 -0.1382 -0.0096  0.1938
58912W        W59776  10.803   8.862   7.462  0.1510 -0.2782 -0.0581
58913W        W59777  10.695   8.471   5.455  0.0036  0.0378 -0.2628
58914W        W59778  10.857   9.723  10.811  0.1457  0.0710  0.3215
58915W        W59779   9.687   7.868   9.483 -0.3771 -0.0044  0.0513
58916W        W59780   8.132   6.903   8.456  0.0726 -0.2867 -0.1145
58917W        W59781   6.666  10.565   6.250 -0.1341 -0.1451 -0.3223
58918W        W59782   9.583   9.513   7.673 -0.2354  0.0366  0.3173
58919W        W59783  11.791  10.555   6.988 -0.3003  0.0560 -0.2453
58920W        W59784   9.955   6.832   9.775 -0.0345  0.0604 -0.2027
58921W        W59785   8.212   8.502  10.076 -0.1529 -0.0974  0.3593
58922W        W59786   8.198  11.960   6.705  0.1103 -0.1995  0.0979
58923W        W59787   6.879   5.679   8.154  0.0431 -0.2580  0.1296
58924W        W59788  12.080   9.349  10.177 -0.0238 -0.1051 -0.1338
58925W        W59789  10.019   7.048   6.425 -0.0213 -0.0016  0.2448
58926W        W59790   9.503   8.036   8.922  0.0090  0.0775 -0.2620
58927W        W59791   9.927   9.237   6.787  0.0792 -0.0365  0.1061
58928W        W59792   9.951   9.478   7.299  0.2302 -0.1455  0.0786
58929W        W59793   9.201   8.235   4.915  0.3677 -0.0318  0.5003
58930W        W59794   8.051   8.522   7.699  0.0192  0.3067 -0.1908
58931W        W59795   7.605   8.783  11.030 -0.1516 -0.0081 -0.1104
58932W        W59796   8.108  10.165   9.954  0.0081 -0.0757 -0.0380
58933W        W59797   8.474   7.931   8.132  0.3043  0.1487 -0.0973
58934W        W59798   8.776   6.563   9.258 -0.0787  0.1401  0.0029
58935W        W59799   9.493   9.081   9.030  0.7035 -0.1689  0.1043
58936W        W59800  11.020  10.291   8.674  0.1103 -0.0712 -0.0851
58937W        W59801  12.299   8.351   7.086 -0.1680 -0.1203 -0.0418
58938W        W59802   8.597  12.515  10.829 -0.0175  0.0111  0.1548
58939W        W59803  12.026   9.413   7.723  0.0728  0.3065 -0.0980
58940W        W59804  11.423   9.228  10.072  0.3023  0.2083 -0.2642
58941W        W59805  12.697   7.962   8.812  0.1748 -0.3345 -0.3449
58942W        W59806  10.297   8.059   5.675  0.0453 -0.0589 -0.0327
58943W        W59807   8.939   6.698   8.652  0.0451 -0.0423  0.0933
58944W        W59808   9.283   8.877   8.595  0.1007 -0.0779 -0.4477
58945W        W59809  11.969   8.442   6.701 -0.0849 -0.1575 -0.1020
58946W        W59810   7.178   7.297   9.181  0.1397 -0.2186 -0.3013
58947W        W59811   7.315  10.455  11.777  0.0288 -0.0970  0.1277
58948W        W59812  12.195   7.507   6.358  0.1711  0.1998 -0.2434
58949W        W59813   7.221   8.441   9.000  0.0155  0.0331  0.2182
58950W        W59814   7.462   7.733   7.572  0.0322 -0.2307  0.4649
58951W        W59815  12.616  11.398  12.473 -0.0453 -0.2289  0.0211
58952W        W59816   8.563   8.664   9.192 -0.0789 -0.0609 -0.0526
58953W        W59817   9.033   9.347  10.443 -0.0341  0.0398  0.0599
58954W        W59818  10.816   9.745   7.904  0.2087 -0.0308 -0.2227
58955W        W59819   6.203   8.345   8.223 -0.3491  0.0707 -0.0816
58956W        W59820   7.660   8.109   7.867 -0.1277 -0.2205 -0.0508
58957W        W59821  10.496  11.179   8.566 -0.1494 -0.1759 -0.1092
58958W        W59822  11.006  11.712  11.053  0.3591 -0.2468 -0.0886
58959W        W59823  11.352  10.013   9.879  0.3132  0.2045  0.0332
58960W        W59824  11.807  10.586   9.505 -0.1383 -0.0890  0.0229
58961W        W59825  10.294  10.791  10.211 -0.3366  0.0037 -0.0683
58962W        W59826  10.001  12.743  10.980 -0.2295 -0.0117  0.2810
58963W        W59827  12.913   9.474  10.431 -0.0608 -0.0981 -0.1525
58964W        W59828   7.621  10.299  10.149 -0.1678 -0.2716 -0.2380
58965W        W59829  10.043   9.291   7.777  0.0204 -0.0048 -0.3306
58966W        W59830  11.999   8.943   6.571 -0.1008  0.0327  0.2881
58967W        W59831  12.872  10.141   9.718  0.1062  0.0911 -0.0864
58968W        W59832   8.671  10.292  10.876  0.5238 -0.0995  0.0963
58969W        W59833   9.498   8.075  10.531  0.1996 -0.0049 -0.0729
58970W        W59834  10.103  11.510   7.739  0.1138  0.0308 -0.2618
58971W        W59835   7.568   9.879   7.057 -0.1295 -0.1684  0.0311
58972W        W59836   8.296   7.750  10.645 -0.1456  0.2334 -0.3148
58973W        W59837   8.864   8.541   7.497 -0.0405 -0.0751 -0.1221
58974W        W59838   9.297   8.615  14.767 -0.2288 -0.2998 -0.1796
58975W        W59839   8.098   9.235  13.528  0.2566 -0.0951 -0.0658
58976W        W59840  10.166  11.771  11.028  0.0548 -0.3154 -0.0181
58977W        W59841  11.246   9.651  14.259  0.1164 -0.0720 -0.0308
58978W        W59842   9.205   8.923   9.918 -0.1322  0.4669 -0.0038
58979W        W59843  11.153   9.277  10.687  0.0847  0.0344 -0.4247
58980W        W59844  10.516   7.083  11.449  0.0793 -0.1760 -0.1686
58981W        W59845   9.561  10.496  11.072  0.1306 -0.0960 -0.1293
58982W        W59846   9.578  11.808  12.153  0.0508  0.0008  0.0954
58983W        W59847   6.300   9.425  13.887  0.1205  0.0203 -0.2501
58984W        W59848  10.254   8.108  10.228  0.0039 -0.0784  0.0221
58985W        W59849  11.949   5.827   9.651  0.0005  0.2313 -0.2941
58986W        W59850   8.962   6.498  11.821  0.1252  0.1299 -0.3906
58987W        W59851   9.648   7.681  14.712  0.2399 -0.0346  0.2300
58988W        W59852   7.898   6.386  12.443  0.1450  0.0627  0.2579
58989W        W59853   7.971  11.160  13.647  0.0608 -0.1767 -0.0974
58990W        W59854   9.195   8.805  12.895  0.0598  0.1419  0.0090
58991W        W59855   7.097   7.769  13.457  0.0182  0.0204  0.0708
58992W        W59856   8.503   9.621  13.932  0.2031  0.0996  0.0610
58993W        W59857  10.805   8.375  14.568  0.0089  0.1048 -0.0559
58994W        W59858  11.817   8.765  15.238 -0.2016  0.0141  0.0951
58995W        W59859   9.052   8.900  11.915 -0.0038 -0.2002  0.2720
58996W        W59860   8.826  11.763  12.420 -0.0746 -0.1539  0.0976
58997W        W59861  10.108  10.184  12.831  0.0923 -0.0311  0.0761
58998W        W59862   5.585   7.816  12.272 -0.1566  0.0985  0.0974
58999W        W59863   8.056  10.613  12.963  0.0063 -0.0216 -0.2292
59000W        W59864  10.291   8.715  15.339 -0.2032  0.0186 -0.0091
59001W        W59865   9.502  12.344  12.829 -0.0431 -0.2568  0.0068
59002W        W59866  10.563  10.958  12.983  0.0201 -0.0984  0.2319
59003W        W59867   9.003   9.774  11.792  0.0134 -0.3239  0.2511
59004W        W59868   9.731  10.848  13.327  0.1295  0.1454  0.1886
59005W        W59869  10.884  11.619  14.552 -0.1143 -0.1651 -0.2245
59006W        W59870   9.996   8.291  16.572 -0.0041  0.2832 -0.0176
59007W        W59871   8.944   8.433  15.063  0.2562  0.1675 -0.2336
59008W        W59872   5.508  10.427  13.563  0.0662  0.1442 -0.2893
59009W        W59873  11.380  11.954  13.278 -0.5817 -0.0828 -0.4028
59010W        W59874   7.681   9.217  11.290  0.0049 -0.0884  0.0743
59011W        W59875   8.484  11.510  13.680  0.0428  0.0650  0.0283
59012W        W59876  12.329   9.138  12.373  0.3744  0.0231  0.5254
59013W        W59877   9.167   7.540  15.674  0.0026 -0.3612 -0.4415
59014W        W59878  10.170   9.438  13.456  0.0029  0.0074 -0.0700
59015W        W59879  10.160   7.277  13.308 -0.0560  0.1486 -0.3750
59016W        W59880  12.376  10.126  12.732  0.1717 -0.2056 -0.0222
59017W        W59881  10.182  13.253  12.910 -0.0202 -0.1105  0.1699
59018W        W59882   5.924  11.220  10.832  0.0144 -0.3843 -0.1676
59019W        W59883   8.010  11.005  11.643 -0.2145  0.3432  0.0182
59020W        W59884   9.462  10.471  12.196  0.5757  0.0000 -0.3904
59021W        W59885   9.525   7.664  16.026  0.1022 -0.2105 -0.1274
59022W        W59886  10.541  11.562  10.745 -0.2667  0.2374  0.2054
59023W        W59887   9.779  10.344   9.244  0.1606  0.0953  0.0977
59024W        W59888  11.166  10.503  11.389  0.2517 -0.2499  0.1405
59025W        W59889  10.707   6.443  11.739 -0.0296 -0.0946 -0.2359
59026W        W59890  12.599  11.785  13.910 -0.0337 -0.1457  0.0753
59027W        W59891  11.425   8.847  10.454 -0.1050 -0.0815 -0.3479
59028W        W59892  10.255   7.249   9.822  0.2847  0.2099 -0.1586
59029W        W59893   7.183  11.542  11.635  0.3220  0.1914 -0.1840
59030W        W59894   6.600   8.119  11.242 -0.0553  0.0609 -0.1934
59031W        W59895  10.255   8.540  16.895  0.0384  0.1126  0.0614
59032W        W59896  10.018  11.895  14.452  0.2037  0.3431  0.0826
59033W        W59897  10.191  12.632  13.282 -0.2499 -0.1227  0.0888
59034W        W59898  10.260   9.196  12.485  0.1302  0.0535 -0.1086
59035W        W59899   6.841  10.330  10.173 -0.1012 -0.0130 -0.0102
59036W        W59900   7.688   8.495  13.857 -0.3176 -0.2248 -0.3105
59037W        W59901  10.169   9.621  12.714  0.1276 -0.0400 -0.1268
59038W        W59902   7.718   7.422  13.282  0.1398 -0.0199  0.1803
59039W        W59903  13.193   8.568  12.381 -0.0880  0.0335  0.0869
59040W        W59904   8.426   6.765  11.893 -0.1666  0.3046  0.2110
59041W        W59905   7.248   7.128  11.331 -0.2447 -0.0129  0.0868
59042W        W59906   8.425  11.866  12.751 -0.0128 -0.2175 -0.0639
59043W        W59907   8.106  11.969  11.782 -0.2074 -0.0536 -0.2310
59044W        W59908  11.892  13.567  14.080  0.2338  0.0411 -0.2049
59045W        W59909  12.603   6.190   8.981 -0.2377 -0.0751  0.4085
59046W        W59910  11.911   8.811  13.636  0.2122 -0.1294 -0.0196
59047W        W59911  11.240   7.751  14.743 -0.1582 -0.1153  0.0764
59048W        W59912  11.001  11.536  12.024  0.0594 -0.1716 -0.0649
59049W        W59913  14.006   8.566  15.676 -0.0019  0.0468 -0.0866
59050W        W59914   7.240   9.647  14.457 -0.3490 -0.0546 -0.2455
59051W        W59915   7.495  12.124  12.446  0.0242  0.1241 -0.2011
59052W        W59916  10.770   5.052   8.446  0.2940 -0.0253 -0.4889
59053W        W59917  10.397   9.606  14.314 -0.0836  0.0814  0.0921
59054W        W59918   9.523   9.635  14.542 -0.0415  0.0871  0.0827
59055W        W59919   8.725   8.714  13.816 -0.0270  0.4230  0.1991
59056W        W59920   8.806   7.348  11.178  0.2090 -0.0405 -0.0797
59057W        W59921   8.690   7.922  12.000  0.2944 -0.1291 -0.0495
59058W        W59922   8.978   8.276  13.916  0.3700 -0.1555 -0.0521
59059W        W59923   8.300   6.313  12.111  0.3952 -0.3542 -0.0306
59060W        W59924  10.299   8.260  14.500 -0.0553  0.1790  0.0785
59061W        W59925   8.715   7.602  11.622  0.2857  0.0830  0.1433
59062W        W59926  10.374  10.609  12.579 -0.1122 -0.2282  0.0014
59063W        W59927  10.159   7.814  16.214 -0.0877 -0.3464  0.4018
59064W        W59928  10.093   7.328  10.509  0.0446  0.0955  0.1252
59065W        W59929  10.972  10.708  15.013  0.0583 -0.1002  0.0766
59066W        W59930  11.087   8.563  10.990 -0.5491  0.0186 -0.1832
59067W        W59931   8.453  10.400  12.487  0.1726 -0.2431  0.3392
59068W        W59932   8.070   8.229  13.826 -0.0081  0.1981  0.1826
59069W        W59933  10.464   9.890  13.539  0.1177  0.1297  0.0936
59070W        W59934  11.303   9.748  10.399  0.2222 -0.0995  0.2289
59071W        W59935  10.150  11.112  13.315  0.0140  0.1450 -0.3591
59072W        W59936   9.395   8.512  12.017 -0.2831 -0.2594  0.3280
59073W        W59937  12.011   9.109  13.230 -0.1449 -0.3260  0.2484
59074W        W59938  11.842  11.523  10.714  0.1957 -0.3058  0.0928
59075W        W59939   7.709   7.935  13.951 -0.4278 -0.0703  0.1071
59076W        W59940  10.493   4.852  12.013 -0.0365  0.0487 -0.1442
59077W        W59941  11.455  11.257  11.943 -0.0306 -0.0661  0.0345
59078W        W59942  11.805   9.434  16.074  0.0106 -0.0316  0.0029
59079W        W59943   9.963   7.507  14.064  0.0278 -0.1516  0.1071
59080W        W59944  10.135  11.186  11.748 -0.2694 -0.0255 -0.1879
59081W        W59945  12.560  10.739  16.215 -0.0495  0.1901 -0.0344
59082W        W59946   8.889   6.809  12.735 -0.1149 -0.1630 -0.1698
59083W        W59947   9.346   7.468  12.822  0.3654  0.1661 -0.0119
59084W        W59948   6.494   9.826  14.084  0.5354 -0.0661  0.0969
59085W        W59949  10.976  10.694  13.122 -0.2784  0.1911 -0.1741
59086W        W59950   9.976   8.502  14.193  0.0466 -0.1653 -0.0751
59087W        W59951   9.436   9.648  15.058  0.1705  0.2620  0.1587
59088W        W59952  10.099  11.549   8.591 -0.4260 -0.1103 -0.0015
59089W        W59953   9.906   9.126  11.377  0.2431 -0.3232  0.0613
59090W        W59954  10.000   6.810  15.857 -0.0255 -0.0413  0.2726
59091W        W59955   7.767   7.830  12.602  0.3659  0.0922  0.0769
59092W        W59956   6.273   7.100   9.848  0.0982 -0.0510  0.0924
59093W        W59957  10.349   9.972  12.341 -0.0958 -0.1047  0.0728
59094W        W59958   9.985   7.889  10.629  0.1166  0.2770  0.0028
59095W        W59959  10.567   8.705  12.858 -0.0062 -0.0760 -0.0372
59096W        W59960  10.857  11.767  10.432  0.0407 -0.1533 -0.1005
59097W        W59961   7.863   7.930  10.849 -0.2669  0.3583  0.2428
59098W        W59962  10.023   8.728  12.769  0.0680 -0.0660 -0.0633
59099W        W59963  11.315   9.195  11.639 -0.1304  0.0262 -0.0040
59100W        W59964   8.406   9.955  11.181  0.0665 -0.1271 -0.1734
59101W        W59965  11.437  11.715  12.173 -0.0350 -0.0020 -0.2819
59102W        W59966  13.381   9.974  14.137  0.4369 -0.0176  0.0467
59103W        W59967   7.625  10.181  14.534  0.1104 -0.3939  0.0087
59104W        W59968  11.519  12.658  13.880  0.2770  0.0624 -0.4150
59105W        W59969   8.894   8.978  14.653 -0.0915  0.0240  0.0770
59106W        W59970   8.806  11.452  14.623 -0.2300 -0.0206 -0.3179
59107W        W59971  11.025   5.138  10.239  0.0499  0.1555 -0.0797
59108W        W59972  11.759   7.487  17.077  0.1565 -0.0060 -0.0081
59109W        W59973   5.344   8.192  16.116 -0.1562 -0.0879 -0.2286
59110W        W59974   9.428   7.332  13.293 -0.1376 -0.1360 -0.0065
59111W        W59975  12.646   9.926  16.464  0.0771  0.2136 -0.1756
59112W        W59976  11.823  10.697  14.782  0.1031  0.0248  0.1607
59113W        W59977   8.875  10.974  12.415 -0.5030 -0.2950 -0.2931
59114W        W59978   8.283   9.431  12.143  0.0261 -0.1624  0.0467
59115W        W59979   9.849  10.010  12.416  0.3156 -0.0992  0.1970
59116W        W59980   9.941  10.236   9.729 -0.0901 -0.0723  0.3533
59117W        W59981   7.662  10.931  13.239  0.1843  0.0899  0.0414
59118W        W59982  10.841  11.450  11.543  0.1821  0.1503 -0.1854
59119W        W59983   9.181  10.141  10.897  0.1308 -0.2005  0.1461
59120W        W59984  10.621   8.867  13.690 -0.0528 -0.0084  0.1195
59121W        W59985  12.977  11.720  11.827 -0.0138 -0.1300 -0.2605
59122W        W59986   8.677  11.875  13.224 -0.1719  0.0150 -0.2283
59123W        W59987  10.937   8.870  10.612 -0.1428  0.4453  0.1361
59124W        W59988  10.094   9.734  13.894  0.0311 -0.0546 -0.1917
59125W        W59989   8.519   9.369  10.552 -0.0761 -0.1939  0.2048
59126W        W59990   9.480  10.253  12.620 -0.0469  0.0321 -0.0077
59127W        W59991   7.160   9.908  13.671 -0.3286 -0.3487 -0.2113
59128W        W59992  10.216   8.509  13.164 -0.3004 -0.0799  0.2183
59129W        W59993  10.384   9.298  13.887  0.0264 -0.0106  0.2502
59130W        W59994   9.664  10.977  14.249 -0.2072  0.4994 -0.3573
59131W        W59995   7.533   8.576   9.420  0.1227 -0.2553 -0.2557
59132W        W59996   9.170   8.401  10.669 -0.0461 -0.1244 -0.1234
59133W        W59997   9.314   7.665  12.301 -0.2464  0.1199 -0.0764
59134W        W59998   9.970   6.662  15.143  0.1973  0.0756  0.3052
59135W        W59999   9.031   9.471  14.682 -0.3720  0.0710  0.2478
59136W        W60000   8.196   7.760  14.064  0.0291  0.1653 -0.3109
59137W        W60001   9.694   7.507  15.487 -0.3564 -0.0510 -0.1066
59138W        W60002   8.540   6.927  14.056 -0.1178  0.1184  0.1623
59139W        W60003  10.029   7.821  11.141  0.0762  0.1446  0.0162
59140W        W60004   7.708   7.299  11.138  0.2148  0.4171  0.0619
59141W        W60005   8.101   9.615  10.344  0.0502 -0.1559 -0.1215
59142W        W60006   9.297   9.553  13.219 -0.5302  0.3988 -0.0653
59143W        W60007   6.942  12.019  13.047 -0.2132  0.0303 -0.0449
59144W        W60008  10.803  11.971  11.513 -0.0225 -0.1049  0.2328
59145W        W60009   8.747   9.255  14.250 -0.1275 -0.2467  0.0051
59146W        W60010   9.378  10.064  10.445 -0.1645 -0.1730  0.0830
59147W        W60011   9.717  11.796  10.590 -0.1082 -0.1637 -0.2383
59148W        W60012   8.080   4.477  12.063  0.1206  0.0089  0.1558
59149W        W60013  14.431   7.424  10.393  0.0365  0.0687  0.2278
59150W        W60014   7.486  12.559  14.351  0.3461 -0.1598 -0.2272
59151W        W60015   7.395  12.171  11.584 -0.0601 -0.0280 -0.3368
59152W        W60016   7.210  14.316  12.608  0.0873  0.0464  0.0393
59153W        W60017   9.382   5.989  12.867  0.1396  0.1858 -0.0444
59154W        W60018   6.749  12.625  10.767  0.5769 -0.1901 -0.1426
59155W        W60019  11.955  11.381  12.092 -0.0772  0.0342  0.2718
59156W        W60020  10.470  10.129   9.945  0.3340  0.2327  0.0384
59157W        W60021   9.959   8.726  11.065  0.0867 -0.1977 -0.0171
59158W        W60022   9.850   8.381  12.039  0.1967  0.1710  0.2484
59159W        W60023  11.478   9.969  13.893  0.2211  0.0816 -0.0237
59160W        W60024  10.503   6.686  11.119 -0.1288 -0.0186  0.3227
59161W        W60025   7.861   4.460  11.597  0.0190 -0.0073 -0.0167
59162W        W60026   8.703  10.010  13.112  0.3363 -0.1640  0.0807
59163W        W60027   8.930  10.609  12.757 -0.2217 -0.0527 -0.0321
59164W        W60028   8.389  10.346  13.504  0.0484  0.1527  0.1514
59165W        W60029   8.332  10.495   9.339 -0.0906  0.3727  0.3840
59166W        W60030   8.132   8.329  15.608  0.0723 -0.1891 -0.1638
59167W        W60031   9.986   6.422  12.953  0.0305 -0.1215  0.3672
59168W        W60032   9.287  10.612  13.142 -0.1901 -0.0123 -0.0600
59169W        W60033   8.913   7.897  10.664 -0.0261  0.1430  0.0663
59170W        W60034   9.903   7.141  11.787 -0.0450  0.2354 -0.0745
59171W        W60035   7.883   8.213  11.722 -0.3274  0.0443  0.3007
59172W        W60036   7.899   7.605  10.360  0.0442  0.1382 -0.1003
59173W        W60037  11.057   9.572  11.280  0.0497 -0.3399  0.2167
59174W        W60038   8.623   7.402  10.640  0.1882 -0.0975 -0.2186
59175W        W60039  10.182   8.923  13.462  0.2295  0.4694  0.1475
59176W        W60040  10.721   9.225   9.786 -0.1525  0.4811  0.2946
59177W        W60041   6.696   7.478  13.494  0.1030  0.0629 -0.1443
59178W        W60042   7.648   7.195  13.735  0.2323 -0.0336  0.2310
59179W        W60043   7.648   9.437   8.131 -0.1602 -0.0668 -0.1958
59180W        W60044   8.664  10.047  14.208  0.0497 -0.0072  0.0490
59181W        W60045   9.386   9.086  11.238 -0.1835  0.2127  0.0689
59182W        W60046  11.775  14.085   9.986 -0.0782 -0.0333 -0.0582
59183W        W60047   6.857   6.980  13.216 -0.0925  0.0715 -0.2659
59184W        W60048   8.008  11.820  13.983  0.1832  0.0197 -0.2038
59185W        W60049   9.851  10.190  11.942 -0.2327  0.3011  0.2756
59186W        W60050   6.470  11.303  13.283  0.0503  0.0398  0.1750
59187W        W60051  10.536   6.898  15.525  0.2402  0.3182  0.2542
59188W        W60052  12.425   8.653  16.409  0.1403 -0.0327  0.0666
59189W        W60053   9.656  10.924  11.334 -0.0777 -0.1194 -0.1439
59190W        W60054  11.165   8.573   8.576 -0.1657  0.2013  0.0909
59191W        W60055   8.691  13.442  13.855 -0.0809  0.2291  0.1993
59192W        W60056   8.107   7.205  13.983  0.2148 -0.0900 -0.1676
59193W        W60057   9.084   9.922  14.500 -0.4693  0.3618 -0.0741
59194W        W60058  12.871  10.832  16.618 -0.0993 -0.1980 -0.1270
59195W        W60059   9.434   8.845  15.252  0.0515  0.1659 -0.0619
59196W        W60060   8.111  12.066  13.183 -0.2080  0.1352  0.0645
59197W        W60061   9.790   7.768  12.439  0.0704  0.2370  0.2007
59198W        W60062   9.609   9.556  11.266  0.0104 -0.1026 -0.1547
59199W        W60063   8.717   6.557  13.472 -0.1881  0.1973 -0.1931
59200W        W60064  10.737   9.409  13.540 -0.1163 -0.1804  0.0502
59201W        W60065  10.770   7.004  14.104 -0.1478  0.1832  0.2863
59202W        W60066  12.537   9.131  13.443  0.0770  0.0253  0.0293
59203W        W60067  12.966   9.421  10.900 -0.3391 -0.3300  0.1000
59204W        W60068   8.665   7.850  14.216  0.1653 -0.0412 -0.3618
59205W        W60069  11.074   8.040  11.605  0.0446  0.1474 -0.2075
59206W        W60070   7.285  10.765  12.866  0.0754 -0.1787  0.0167
59207W        W60071   9.863  10.051  11.443  0.2554 -0.0024  0.0661
59208W        W60072   9.358   6.072  11.662  0.0245 -0.0556  0.4769
59209W        W60073   7.591   6.950   9.221  0.0643 -0.1475  0.1578
59210W        W60074  10.798   9.270  14.437 -0.2184  0.1345 -0.2884
59211W        W60075  10.411   8.445  14.923 -0.2871  0.2922  0.1197
59212W        W60076  12.085  10.284  14.461 -0.2198 -0.2900 -0.2338
59213W        W60077  10.683  10.537  11.682  0.2225 -0.3089 -0.1213
59214W        W60078   7.522   9.553  13.410  0.0511 -0.0583  0.0040
59215W        W60079   9.834   9.286  15.150 -0.2508  0.2142 -0.0620
59216W        W60080   7.159   7.397  13.121 -0.0725 -0.3972 -0.0162
59217W        W60081  10.463  10.856  12.060 -0.2581 -0.1601 -0.1925
59218W        W60082  10.537   8.192   9.781  0.0088 -0.3950  0.2716
59219W        W60083   8.253   8.344  11.976  0.0735 -0.0276 -0.1260
59220W        W60084  11.562   9.292  13.384 -0.0525  0.3947 -0.2011
59221W        W60085   7.188  11.264  12.679  0.0092  0.2954  0.0776
59222W        W60086  14.106   7.515  13.773  0.2524  0.0745 -0.2376
59223W        W60087  11.587   6.986  12.314  0.0304 -0.0517  0.1363
59224W        W60088  10.105   9.567  12.095  0.0447  0.1237 -0.1562
59225W        W60089  12.092  10.447  15.881  0.0839 -0.0469 -0.2453
59226W        W60090  11.325  11.461  13.428  0.2099  0.0201 -0.1387
59227W        W60091  10.756   9.940  16.334  0.0759  0.2859  0.1589
59228W        W60092  10.560   8.666   9.935 -0.1013  0.0473  0.0621
59229W        W60093  12.748   9.612  13.409 -0.2269 -0.1206  0.2373
59230W        W60094  11.328   6.296  11.585 -0.0212  0.0848 -0.1254
59231W        W60095   6.923   7.773  12.982  0.1068  0.0172 -0.0394
59232W        W60096  10.350   8.430  11.412  0.2976 -0.0194 -0.0444
59233W        W60097  10.540  10.990  11.524  0.2099 -0.0453 -0.4989
59234W        W60098   9.341   9.820  12.516  0.1471 -0.0410 -0.2192
59235W        W60099   8.613   9.819  12.262  0.0661 -0.0729  0.1869
59236W        W60100  12.415   8.413  12.876 -0.1421  0.0365 -0.1417
59237W        W60101   9.234   9.252  12.722  0.0603  0.0430 -0.0657
59238W        W60102  10.049  11.706  13.421 -0.0971 -0.1491  0.4122
59239W        W60103   8.688   8.627  15.479  0.1846 -0.0193  0.1801
59240W        W60104   6.886  10.640  11.961  0.0283 -0.2440  0.4975
59241W        W60105   9.187  11.018  12.858  0.1427 -0.1202 -0.1938
59242W        W60106   9.643   7.323  13.750 -0.0352  0.5370  0.0801
59243W        W60107  10.641   8.569  11.802  0.1362  0.4712  0.1502
59244W        W60108   9.694   9.799  12.865  0.1241 -0.2692  0.1471
59245W        W60109  10.189  10.660  14.736  0.1230  0.0158  0.2355
59246W        W60110   9.511   7.135  15.925  0.0270 -0.1179 -0.2113
59247W        W60111  10.843  10.005  12.295  0.2046  0.0083 -0.2385
59248W        W60112  10.509  12.638  13.700 -0.1255 -0.0813  0.0976
59249W        W60113  10.825   9.484  15.976  0.2023 -0.2387 -0.2355
59250W        W60114   6.681   4.304  14.524  0.1549 -0.2685 -0.0091
59251W        W60115   9.358   9.951  11.481  0.0319 -0.1792  0.0597
59252W        W60116   9.385   7.488  11.186  0.0725 -0.0283  0.0600
59253W        W60117   7.147  10.126  12.163 -0.2719  0.1202 -0.4065
59254W        W60118  10.487  10.144  13.967 -0.0220 -0.1299 -0.1446
59255W        W60119  11.064   8.764  12.792  0.4000  0.0212  0.1588
59256W        W60120   9.316  10.582  10.577  0.1078  0.1357 -0.0951
59257W        W60121   9.204  11.434  12.558 -0.1468 -0.2279 -0.1549
59258W        W60122  13.626   8.787  13.037 -0.0104 -0.1311  0.1223
59259W        W60123  11.330   8.309  14.672  0.1278 -0.0766 -0.1688
59260W        W60124  10.161  10.111  11.043 -0.0098 -0.5842  0.3193
59261W        W60125   5.346  10.326  12.044 -0.1331  0.3339 -0.0444
59262W        W60126  10.842   9.902   9.773 -0.1430 -0.0948 -0.0460
59263W        W60127   9.593  11.805   7.814 -0.2858 -0.0235 -0.1766
59264W        W60128   6.161   7.799  12.288  0.3977  0.3475 -0.1464
59265W        W60129  10.533   7.313  11.881  0.2575 -0.1266  0.2549
59266W        W60130   5.564   9.129  14.387  0.1553  0.0121  0.2677
59267W        W60131   8.532   7.075  12.567 -0.3360 -0.1637  0.1458
59268W        W60132   7.085   8.550   9.832 -0.1728 -0.0366  0.1311
59269W        W60133  10.131  11.057  12.747  0.0158  0.2251  0.0515
59270W        W60134   9.999  10.869   9.849 -0.0090 -0.0306 -0.2828
59271W        W60135  10.694   9.041  13.210  0.0011 -0.2085  0.0286
59272W        W60136  10.212   9.237  11.016  0.0018 -0.4274 -0.0294
59273W        W60137   7.968  11.546   9.339  0.1491 -0.1051  0.1718
59274W        W60138   9.402  10.435  13.585 -0.0733 -0.3023  0.1159
59275W        W60139   9.536   8.935  13.988  0.3530  0.0382  0.0060
59276W        W60140   9.980   9.411  14.702 -0.1475  0.1685  0.1986
59277W        W60141  11.798   9.034   9.193  0.0946 -0.0367  0.2940
59278W        W60142   9.570   6.599  11.888  0.0840 -0.1237  0.0063
59279W        W60143   8.540  12.440  11.380 -0.1296 -0.2755  0.1421
59280W        W60144   9.281   8.610  13.680  0.1341 -0.3522 -0.1795
59281W        W60145   9.382   7.579  10.249 -0.1273 -0.1589 -0.2001
59282W        W60146  13.147   8.034  12.446 -0.2715  0.0602 -0.1415
59283W        W60147   6.812  12.657  12.728  0.1691  0.2969  0.0981
59284W        W60148   9.878  11.170  14.697  0.0541 -0.0287 -0.0945
59285W        W60149   7.337   6.988  12.840  0.2771 -0.4459 -0.1561
59286W        W60150  11.013   7.536  10.241 -0.0445  0.1695  0.4268
59287W        W60151  11.011  11.014  11.406 -0.0333  0.1523  0.0431
59288W        W60152   9.227  11.696  15.263 -0.1779  0.0671  0.1055
59289W        W60153   9.085  10.781  13.640 -0.2928 -0.0824 -0.3125
59290W        W60154   6.794   8.927  10.801  0.0952 -0.0433  0.0366
59291W        W60155  11.297   8.653  11.482  0.2371 -0.1760 -0.0067
59292W        W60156   7.421  11.733  14.433 -0.3436 -0.0095  0.2919
59293W        W60157  10.993   8.487  13.703 -0.1820 -0.0881  0.0153
59294W        W60158   8.715  11.403  10.474  0.0670  0.2200  0.3024
59295W        W60159   9.229  11.124  11.605 -0.2061 -0.1390  0.0462
59296W        W60160   6.726   9.772  14.579  0.0086  0.1676  0.0807
59297W        W60161   8.041  10.527  10.339  0.2692 -0.3420 -0.1351
59298W        W60162   8.533  10.417  12.975 -0.0869 -0.1388 -0.0105
59299W        W60163  12.205  10.979  13.888  0.2181 -0.3033 -0.0180
59300W        W60164  10.772   7.228   9.930 -0.0852  0.0030  0.2344
59301W        W60165   8.813   9.690   9.032 -0.0656 -0.0501  0.0546
59302W        W60166  11.021   7.894  11.090  0.2802  0.1544  0.2331
59303W        W60167   7.693   7.995  13.436 -0.1763 -0.0235  0.0889
59304W        W60168  10.595  10.875  16.660  0.0451  0.2953  0.0628
59305W        W60169   9.085   5.641   9.228 -0.1245  0.1720 -0.1567
59306W        W60170  12.552  10.153  14.623  0.0374 -0.0117  0.1416
59307W        W60171  10.894  10.568  12.157 -0.0268 -0.0692  0.0782
59308W        W60172  12.344  10.759  15.232  0.1565 -0.4188  0.1509
59309W        W60173  12.974   8.782  18.071  0.0423 -0.0552 -0.2591
59310W        W60174   9.916  13.434  14.207 -0.2851 -0.0230  0.1355
59311W        W60175  12.032   8.976  10.652 -0.1488 -0.0957  0.2732
59312W        W60176  11.743   9.600  12.364  0.2585 -0.2530 -0.3132
59313W        W60177  10.061   8.830   9.593  0.0577  0.0456  0.1677
59314W        W60178  10.350  10.585  10.764 -0.1625 -0.0586 -0.4668
59315W        W60179   7.934   8.789  11.889  0.0343 -0.2414 -0.0457
59316W        W60180  11.465   8.308  12.600 -0.0994  0.1335 -0.0203
59317W        W60181   5.586  11.377  13.765 -0.0055  0.0484  0.1948
59318W        W60182   9.598  10.910  11.853 -0.1795  0.1189 -0.0124
59319W        W60183   6.963   9.616  14.037 -0.1592 -0.0015  0.1710
59320W        W60184   6.657  11.809  12.128  0.1051  0.1631  0.0585
59321W        W60185   6.433   6.660  13.463 -0.3550  0.1176  0.2994
59322W        W60186   9.122  10.351  15.585  0.0114  0.0657 -0.0981
59323W        W60187   7.377   8.337  11.607  0.1284 -0.1268  0.0962
59324W        W60188   7.768  10.988  11.223 -0.0186 -0.1509  0.1532
59325W        W60189  11.043   6.488  11.049  0.0283 -0.0028 -0.0438
59326W        W60190  11.258   9.561  13.643  0.3399 -0.0299 -0.0631
59327W        W60191   7.659   8.723  12.336 -0.0674 -0.2070 -0.0177
59328W        W60192   7.184   9.557  10.756 -0.0044 -0.1481  0.2376
59329W        W60193   8.831   6.665  11.294  0.3275  0.1614  0.1578
59330W        W60194   8.687  10.505  12.073  0.0708  0.3155 -0.0402
59331W        W60195  10.341   8.710  16.384 -0.0964  0.0307 -0.2815
59332W        W60196   7.543   7.710  14.663 -0.3976 -0.2654 -0.0155
59333W        W60197   6.087   7.235  10.646  0.3039  0.0953 -0.3691
59334W        W60198  10.615   9.293  10.622  0.3802  0.0099 -0.0046
59335W        W60199   9.713   9.113  12.697  0.0415  0.2833  0.0299
59336W        W60200  10.101   9.363  10.385 -0.0024  0.2688 -0.3201
59337W        W60201  11.243   4.728  10.590  0.2483 -0.2729 -0.1372
59338W        W60202   8.421  10.903  12.191  0.2333  0.0797 -0.1035
59339W        W60203  12.536  10.222  13.539  0.1260 -0.1468  0.4596
59340W        W60204  11.002  12.293  13.192  0.1613 -0.2181 -0.0031
59341W        W60205   8.395   6.944  10.563  0.3918 -0.3087 -0.1039
59342W        W60206   9.293   9.627  10.766 -0.1039 -0.0473 -0.4439
59343W        W60207  11.110   8.163  15.483  0.0261 -0.1053 -0.0922
59344W        W60208   8.339   8.287   9.558 -0.3018  0.1364  0.0439
59345W        W60209   9.466   8.141  12.305  0.0787  0.1742 -0.1519
59346W        W60210   8.581  10.503   8.752  0.0883  0.1956 -0.0144
59347W        W60211  10.988  10.168  15.896 -0.1189 -0.3131 -0.0550
59348W        W60212  10.248   7.370  11.025 -0.2757  0.2382  0.0528
59349W        W60213   8.962   9.213  13.133  0.2901  0.3493  0.0771
59350W        W60214   8.562   8.031  13.734  0.0985 -0.1702  0.1441
59351W        W60215  11.078  10.627  14.395  0.0247 -0.3065 -0.0596
59352W        W60216   9.263   7.773   9.756 -0.2234  0.1756  0.0006
59353W        W60217   6.557   5.005  13.206  0.2214  0.0419  0.2498
59354W        W60218  10.551   8.775  15.830  0.4017 -0.0232  0.2598
59355W        W60219   8.177  10.863  10.833 -0.3692  0.1644 -0.3425
59356W        W60220   6.466   8.376  15.821  0.0483  0.0066  0.0876
59357W        W60221  10.591   8.903  14.895  0.1299  0.2551  0.1640
59358W        W60222   9.305  12.464  15.099  0.1809  0.1651  0.0245
59359W        W60223  10.941   9.335  12.185 -0.0351 -0.0430 -0.1377
59360W        W60224  11.552   9.693  10.839 -0.2047  0.1485  0.1481
59361W        W60225   9.369   9.338  11.790  0.0639 -0.0937 -0.2352
59362W        W60226   7.819   8.767  12.835 -0.3648  0.2077 -0.1811
59363W        W60227  10.952  10.101  15.007 -0.1655  0.0215 -0.2731
59364W        W60228   8.356  11.562  16.585  0.2415 -0.1052  0.1299
59365W        W60229   8.935   8.933  12.463  0.1157 -0.2471  0.2355
59366W        W60230   8.624  12.098  11.693  0.1619 -0.1835 -0.2800
59367W        W60231  12.337  11.361  14.187  0.0434 -0.2423  0.2635
59368W        W60232  10.565   9.597  13.055  0.1784 -0.0590 -0.1236
59369W        W60233   9.780   8.063  14.352 -0.2723 -0.0469 -0.4852
59370W        W60234   8.819  11.159  11.331  0.1483  0.4178 -0.1389
59371W        W60235   9.791  11.848  12.611  0.1530 -0.1455 -0.2050
59372W        W60236   7.775  13.677  11.478  0.0969 -0.2897  0.2107
59373W        W60237  11.446   8.215  10.636 -0.0911  0.0732 -0.3237
59374W        W60238   8.310   9.495  15.614 -0.0902 -0.1947  0.0108
59375W        W60239  10.233  11.105  18.417 -0.2984  0.0103  0.1055
59376W        W60240  12.513  10.386  15.533  0.0783 -0.0965 -0.0727
59377W        W60241  12.735   9.706  16.952 -0.0938 -0.0868  0.2004
59378W        W60242  10.359   9.242  15.771 -0.1868 -0.1073 -0.1382
59379W        W60243   8.395   7.138  14.870 -0.4586  0.2235  0.4071
59380W        W60244   7.597   7.855  15.271  0.0559 -0.0196  0.0941
59381W        W60245   8.208   8.955  13.153  0.0987  0.0679  0.0378
59382W        W60246   7.175  11.006  21.382  0.2564 -0.3340 -0.1884
59383W        W60247   6.496   7.093  17.401 -0.3232 -0.1827  0.0892
59384W        W60248   7.800   7.658  16.346 -0.1671  0.1726  0.1711
59385W        W60249   8.862   7.582  16.654 -0.0812 -0.2472 -0.1589
59386W        W60250  12.326   8.434  16.990 -0.0014 -0.0884  0.2104
59387W        W60251  10.945   7.920  17.998 -0.0021  0.2278 -0.1611
59388W        W60252   8.475   9.083  15.914 -0.0875 -0.1231 -0.1199
59389W        W60253   9.017   9.629  14.000  0.1162  0.0701 -0.0380
59390W        W60254   7.235   8.414  16.534 -0.2419  0.2382 -0.0474
59391W        W60255   6.823   8.474  17.672 -0.0902 -0.0654  0.1206
59392W        W60256   7.452   8.296  17.731  0.0484  0.2304  0.0023
59393W        W60257   9.991   7.299  15.908 -0.1057 -0.3152  0.3382
59394W        W60258   8.731  10.258  14.771 -0.2896  0.1868 -0.1019
59395W        W60259   7.915   7.444  15.005 -0.1518  0.1220  0.0410
59396W        W60260  10.335   9.191  15.227  0.1427  0.0004 -0.0236
59397W        W60261   9.021   7.472  14.198 -0.0433  0.0836  0.3786
59398W        W60262   8.471  10.473  17.400  0.0215 -0.3000 -0.0764
59399W        W60263   8.389  12.226  16.639 -0.0105  0.2265 -0.2433
59400W        W60264   6.384  10.619  19.309 -0.2448 -0.1989 -0.0811
59401W        W60265   8.051  12.620  15.419 -0.0062 -0.0441  0.0504
59402W        W60266   9.978  12.030  14.980  0.2143  0.3546  0.1237
59403W        W60267   8.354   8.007  14.569  0.0859  0.1627  0.0640
59404W        W60268   8.246  10.504  15.726 -0.1677 -0.2328 -0.0766
59405W        W60269   8.814  10.393  18.295  0.0411 -0.0821 -0.1131
59406W        W60270   8.380  10.846  21.050  0.0364 -0.0856 -0.4006
59407W        W60271   8.974   8.966  17.206  0.0432  0.0746 -0.2413
59408W        W60272   6.631   9.437  15.279  0.1515  0.2171  0.0990
59409W        W60273   8.541   8.747  17.426 -0.1031  0.0874  0.0956
59410W        W60274   6.934   8.270  14.317 -0.1871 -0.0722  0.3381
59411W        W60275   7.633  10.221  16.003 -0.2474  0.1217  0.1957
59412W        W60276  10.564   7.862  14.835  0.1157 -0.0951 -0.2787
59413W        W60277   9.756   8.537  18.200  0.1149  0.2771 -0.0132
59414W        W60278   9.848   8.181  16.012 -0.1449  0.0741 -0.2307
59415W        W60279  10.749   7.514  16.623 -0.1682  0.2107  0.0620
59416W        W60280   8.594  10.828  17.036 -0.2423  0.0516  0.1765
59417W        W60281  11.580  12.978  13.461 -0.0122 -0.0510  0.0544
59418W        W60282   5.366  11.203  17.679 -0.1142 -0.4886 -0.0910
59419W        W60283   4.815  13.180  14.075 -0.1951  0.3802  0.2485
59420W        W60284   6.841   9.339  18.439 -0.2429  0.2769 -0.1392
59421W        W60285   8.983   8.784  16.754 -0.1319  0.2873 -0.0196
59422W        W60286   9.088   7.839  11.409 -0.2020 -0.0003  0.1826
59423W        W60287   8.108   7.400  15.887  0.2330  0.1571 -0.1267
59424W        W60288   6.668   8.834  14.914 -0.2213  0.1318 -0.0408
59425W        W60289   8.333   5.720  15.449  0.1785  0.2813  0.2244
59426W        W60290   8.412  10.717  16.234 -0.0678  0.1411  0.1235
59427W        W60291  11.871   9.005  16.893 -0.0182 -0.1845  0.0649
59428W        W60292   9.053   5.754  15.356 -0.0338  0.1578  0.3355
59429W        W60293   6.003   8.964  13.624  0.0137  0.3094 -0.0058
59430W        W60294   4.749   8.621  14.690 -0.1297  0.0501 -0.0406
59431W        W60295   9.913  10.399  17.283  0.0100  0.3857  0.0380
59432W        W60296   5.738   9.178  15.232 -0.0255 -0.1876  0.0496
59433W        W60297   9.658   9.520  16.404  0.1465 -0.1219 -0.2236
59434W        W60298   8.547   9.303  14.746  0.1781 -0.3961 -0.1946
59435W        W60299   4.922  11.711  15.496 -0.0972  0.2724  0.2268
59436W        W60300   6.296  10.677  16.134 -0.0374 -0.1464  0.0239
59437W        W60301   7.944   7.975  17.701  0.1776  0.0682 -0.3105
59438W        W60302   8.106  10.796  15.360  0.0442  0.2910 -0.0326
59439W        W60303  10.780   7.653  16.147 -0.1003 -0.0405  0.2388
59440W        W60304   8.086   9.930  14.341  0.0789 -0.4155 -0.3357
59441W        W60305   7.498   8.166  14.886  0.0778  0.1346  0.1490
59442W        W60306   8.353   9.103  14.018  0.1858 -0.3685  0.1393
59443W        W60307   8.081  10.311  17.967 -0.0410 -0.0250 -0.0107
59444W        W60308   8.056   9.350  16.855  0.0692 -0.2580  0.0915
59445W        W60309   9.326   6.457  13.050  0.5023 -0.0903  0.0107
59446W        W60310  11.635  10.253  16.062 -0.0715  0.0714  0.0192
59447W        W60311   8.093   8.827  15.447  0.0794 -0.0014  0.3703
59448W        W60312   8.683   8.811  12.906  0.1915  0.0796  0.1643
59449W        W60313  10.014   9.645  19.175 -0.1149 -0.1380 -0.1462
59450W        W60314   5.703   7.569  14.923  0.1214 -0.2366  0.0234
59451W        W60315   7.367  10.684  16.137  0.1378  0.0707 -0.0984
59452W        W60316   8.721   7.237  15.795 -0.0306 -0.1076  0.0139
59453W        W60317   6.593   7.469  15.517 -0.2171  0.2225 -0.1281
59454W        W60318   7.150  11.824  18.586  0.0615 -0.1277  0.0265
59455W        W60319   8.751  10.557  15.395 -0.1420 -0.2037 -0.4078
59456W        W60320   8.438   9.883  19.587  0.3253  0.3285  0.1992
59457W        W60321   7.191   6.681  14.321  0.1256  0.2025  0.3236
59458W        W60322   8.347   9.933  17.634 -0.0930  0.2344  0.0155
59459W        W60323   7.009   5.139  13.927  0.1548  0.2046  0.2877
59460W        W60324  12.400  11.470  19.263  0.1059 -0.2329 -0.1351
59461W        W60325  10.616   5.996  17.131  0.0124  0.1704 -0.0303
59462W        W60326  10.668  11.455  17.381 -0.2576  0.1302 -0.2325
59463W        W60327   8.877   8.046  17.366  0.2020  0.3010 -0.3499
59464W        W60328   9.448   6.920  13.680 -0.0062 -0.0277 -0.0965
59465W        W60329   8.954   9.097  18.348 -0.0807 -0.0643 -0.3177
59466W        W60330   9.927  10.737  18.371  0.1828  0.1219 -0.0492
59467W        W60331   8.938   8.343  14.517 -0.1466 -0.0926  0.3767
59468W        W60332   8.068   8.877  16.594  0.0176  0.2837 -0.2177
59469W        W60333  11.880   9.508  15.582 -0.1266  0.1162  0.0899
59470W        W60334   8.945  11.432  15.740 -0.0980  0.1974  0.0793
59471W        W60335   7.216   9.780  20.577  0.0330  0.3230 -0.1067
59472W        W60336  10.397   8.126  15.285  0.2555 -0.0631 -0.1783
59473W        W60337  10.200   9.269  17.662 -0.1414 -0.0633 -0.0037
59474W        W60338  10.574   9.623  11.994 -0.2139  0.1476  0.1208
59475W        W60339   7.541   9.727  14.829 -0.0298 -0.1095  0.2133
59476W        W60340  10.744   9.715  13.942 -0.2940  0.2324 -0.1576
59477W        W60341  13.168  10.939  14.520  0.0318  0.1598  0.1277
59478W        W60342   9.373   8.412  16.658 -0.0106  0.1306 -0.0989
59479W        W60343   8.674  10.122  19.249  0.0423 -0.0438 -0.0899
59480W        W60344   8.957   8.344  16.428 -0.1548  0.0275  0.2255
59481W        W60345   9.114   7.924  19.473  0.0525 -0.0553  0.2710
59482W        W60346   7.882   5.892  18.092  0.0954 -0.1500  0.2580
59483W        W60347   6.206   7.205  15.505  0.0461  0.0221 -0.2549
59484W        W60348   4.794   9.564  15.125  0.0008  0.0060 -0.0965
59485W        W60349  11.665   9.840  16.390 -0.1257 -0.0324 -0.0348
59486W        W60350   7.672   9.110  17.112  0.0054 -0.1980  0.0350
59487W        W60351   9.529  11.162  20.297  0.0297 -0.0706  0.0284
59488W        W60352  13.181   8.330  17.219  0.0769  0.0355  0.2805
59489W        W60353   8.932   9.508  15.180  0.0541 -0.0449 -0.1951
59490W        W60354   9.741   9.239  17.856  0.0313 -0.0991  0.0109
59491W        W60355   9.762  10.529  17.832  0.1004  0.3122  0.2488
59492W        W60356   7.821   6.785  16.664 -0.2183 -0.1033  0.0213
59493W        W60357  10.231  10.776  17.005 -0.3814  0.1026  0.1398
59494W        W60358   9.792   7.430  16.395 -0.3439  0.0666  0.0700
59495W        W60359  12.203  11.301  15.618  0.1088 -0.3764  0.3651
59496W        W60360   9.765  10.651  16.874 -0.0509  0.2962  0.2496
59497W        W60361   8.901  10.495  14.321  0.0592  0.0291 -0.0166
59498W        W60362  10.681   9.653  15.189  0.1728 -0.0184  0.0749
59499W        W60363  10.543  11.437  14.158 -0.3413  0.1258 -0.3260
59500W        W60364   7.623   6.905  14.179 -0.0062 -0.2753 -0.2588
59501W        W60365   9.155   5.660  17.368  0.0662  0.0349 -0.0391
59502W        W60366   9.917  11.811  17.548  0.0477  0.0914  0.1138
59503W        W60367   6.944  10.152  17.860 -0.3656  0.1335  0.0935
59504W        W60368   9.876  12.679  15.972  0.1067  0.0897 -0.0765
59505W        W60369   9.238   8.783  20.331  0.0736 -0.0539  0.0168
59506W        W60370   9.348  10.319  18.102 -0.2908  0.1057 -0.4274
59507W        W60371  10.642   9.072  18.697  0.3267 -0.1978  0.1827
59508W        W60372   8.883   9.816  16.873 -0.1861  0.0718  0.1164
59509W        W60373   6.904   7.364  15.884 -0.1758  0.0625  0.2075
59510W        W60374   8.802  10.806  19.873 -0.2374 -0.0425 -0.1874
59511W        W60375   9.556  11.428  18.389 -0.0024 -0.1543  0.1019
59512W        W60376  10.453  12.124  15.902 -0.2794 -0.1028 -0.1107
59513W        W60377   9.987   9.114  16.109 -0.1231  0.0480 -0.0185
59514W        W60378  10.227   9.177  12.988 -0.2196  0.0518 -0.1000
59515W        W60379   9.526   9.062  15.960 -0.0595  0.0054 -0.0198
59516W        W60380   9.160  10.131  15.048 -0.2370  0.0295  0.1623
59517W        W60381   6.548   9.350  14.322 -0.0768 -0.5080  0.0233
59518W        W60382   9.920   8.941  17.333  0.0439 -0.0843  0.2771
59519W        W60383   9.339   6.670  15.784  0.0573  0.0558 -0.1170
59520W        W60384   6.966   7.241  15.158 -0.1642 -0.3797  0.0576
59521W        W60385  11.134  12.694  18.429 -0.2397 -0.1239  0.1084
59522W        W60386   6.476  11.367  16.881  0.1902 -0.3374 -0.2547
59523W        W60387  11.439  10.616  15.697  0.1125  0.1533 -0.0883
59524W        W60388  10.122  10.628  13.081  0.3703  0.0237 -0.0661
59525W        W60389   8.838   8.217  13.395 -0.1141  0.0690 -0.2161
59526W        W60390   7.545  12.256  16.795 -0.3405  0.1015  0.0004
59527W        W60391   7.558   7.052  15.122  0.2530 -0.1569  0.2665
59528W        W60392   9.077   9.388  17.738 -0.2983  0.1027  0.0864
59529W        W60393   8.995   6.640  15.412  0.1262 -0.0921  0.4423
59530W        W60394   3.829  11.112  14.933 -0.2446  0.3203 -0.2019
59531W        W60395   6.675   9.656  13.536 -0.0881 -0.0586 -0.0269
59532W        W60396  10.658   9.992  12.774 -0.2249 -0.0910  0.1478
59533W        W60397  10.633   9.467  18.426 -0.4525 -0.0554 -0.1302
59534W        W60398   8.979   8.483  18.172 -0.0735 -0.3056 -0.1585
59535W        W60399   8.066  10.065  18.547  0.0446  0.2532  0.2129
59536W        W60400   6.430   9.479  18.752  0.0301  0.0794 -0.3703
59537W        W60401   8.041  11.737  17.981  0.1576  0.0502 -0.1109
59538W        W60402   6.711   5.635  17.177  0.0190 -0.0516 -0.1044
59539W        W60403   6.778   7.850  13.847  0.1321 -0.1532  0.0002
59540W        W60404   6.698   9.031  13.969 -0.1269  0.1254  0.4581
59541W        W60405   7.616  10.053  14.051 -0.0792 -0.3325  0.1269
59542W        W60406   7.407  12.599  17.170  0.2183 -0.1947 -0.0805
59543W        W60407   7.648  10.449  13.631  0.0299  0.2872  0.3005
59544W        W60408  11.008   7.790  15.195 -0.2358 -0.1675 -0.0193
59545W        W60409   9.009   9.614  16.355 -0.2418 -0.1977 -0.0044
59546W        W60410   8.131   8.927  17.778 -0.0890 -0.3064 -0.0489
59547W        W60411   9.093  10.799  12.044 -0.2599 -0.0716 -0.0833
59548W        W60412   9.517   7.994  15.652 -0.4265 -0.0584  0.1524
59549W        W60413  11.762   8.433  16.027 -0.0571  0.0239 -0.1386
59550W        W60414   7.964  11.298  14.904 -0.0824  0.3132  0.1777
59551W        W60415   9.533  12.580  15.560 -0.0690  0.0320  0.1174
59552W        W60416   5.705   8.545  17.579  0.0394  0.2006  0.1490
59553W        W60417   8.052   9.080  19.406 -0.1933 -0.2339 -0.1409
59554W        W60418  10.076  12.158  13.581  0.1154 -0.1457 -0.1197
59555W        W60419   8.688  11.318  16.991  0.0455 -0.1385 -0.2619
59556W        W60420   8.193  10.264  19.233 -0.1431  0.0151  0.1951
59557W        W60421   6.901   6.486  15.596  0.0611  0.3573  0.0512
59558W        W60422   9.758   6.865  14.156  0.4277  0.0670  0.0157
59559W        W60423   9.566  10.048  15.779 -0.2103 -0.0904  0.1703
59560W        W60424   8.929   8.066  15.881  0.1013 -0.1537  0.2632
59561W        W60425   3.933   6.695  13.020  0.1196  0.0098  0.2380
59562W        W60426   8.185   8.973  14.579  0.1935 -0.0153  0.0247
59563W        W60427   6.630   9.177  16.658  0.0386 -0.2045 -0.0932
59564W        W60428  11.351  10.206  16.893 -0.0297  0.0164  0.0023
59565W        W60429   9.273  11.813  15.785  0.0415 -0.0337  0.0917
59566W        W60430   5.190   9.105  17.018 -0.1016 -0.0744  0.1710
59567W        W60431   5.464   5.843  17.673  0.0912  0.0094 -0.1497
59568W        W60432   7.594   8.648  16.903 -0.2601 -0.2116  0.1669
59569W        W60433   7.669   7.417  14.188  0.1569  0.2478  0.1564
59570W        W60434   8.341   6.452  15.810  0.0045 -0.3646  0.3297
59571W        W60435   9.056  11.157  15.242 -0.1834 -0.1017  0.0210
59572W        W60436   5.874   5.898  13.550  0.0129  0.0961  0.0507
59573W        W60437  11.201   7.909  12.903  0.1406 -0.2843 -0.0378
59574W        W60438   6.941   8.278  15.728  0.2241  0.1641 -0.0173
59575W        W60439   9.726   6.781  13.264 -0.2227  0.1658  0.2974
59576W        W60440  10.883   7.056  15.855  0.2783  0.0463  0.3248
59577W        W60441   8.117   6.140  14.253  0.1813  0.0930 -0.1147
59578W        W60442   9.973   7.221  17.672 -0.1980 -0.0677 -0.1144
59579W        W60443   6.773   8.815  14.406  0.1539 -0.1873 -0.2006
59580W        W60444   5.955   9.616  18.541  0.3778 -0.3214 -0.0122
59581W        W60445   9.296  10.881  17.763  0.0065  0.0328 -0.1050
59582W        W60446   9.288   9.940  13.564 -0.0573 -0.0829  0.2961
59583W        W60447   7.433   9.549  13.964  0.0343 -0.1174  0.0452
59584W        W60448   7.846  10.108  17.514  0.0606 -0.0901 -0.0640
59585W        W60449   9.728   9.514  17.240 -0.0391  0.0955  0.0702
59586W        W60450   9.586  10.434  19.424  0.0727  0.1807 -0.1274
59587W        W60451   8.110  11.146  18.369 -0.0737  0.4958 -0.2736
59588W        W60452  11.042   9.121  15.088 -0.1029 -0.0492 -0.0879
59589W        W60453   9.273   8.759  18.479 -0.1151 -0.1194  0.0303
59590W        W60454  10.996  11.053  14.117 -0.0094  0.0634 -0.2118
59591W        W60455   9.119  10.674  15.057  0.2316 -0.1105  0.0007
59592W        W60456   8.768   8.556  18.988  0.0554  0.3143 -0.1814
59593W        W60457   8.008   8.181  18.228  0.0673 -0.0099 -0.3520
59594W        W60458  10.640   8.131  19.426 -0.1778  0.0010 -0.1853
59595W        W60459  12.671   7.443  15.677  0.2568 -0.2090  0.0448
59596W        W60460   8.150  10.864  16.733 -0.2921 -0.0933 -0.1164
59597W        W60461  10.859   7.363  14.934 -0.0388  0.0935  0.0573
59598W        W60462  11.786   9.977  16.842  0.2719 -0.3354  0.0084
59599W        W60463   8.763  10.204  19.905  0.0444 -0.3686 -0.0968
59600W        W60464   9.701  10.082  17.620 -0.1584  0.2137 -0.1856
59601W        W60465  10.805   9.930  16.825 -0.1336  0.0092  0.1102
59602W        W60466  10.033  10.662  16.472 -0.0809  0.0580  0.0585
59603W        W60467   9.132   7.870  16.312 -0.1837  0.0937  0.4286
59604W        W60468   6.131   7.426  18.261 -0.5010 -0.0282  0.1431
59605W        W60469   7.906  10.995  18.901 -0.0686  0.1264 -0.1839
59606W        W60470  11.375  11.256  13.858  0.2249  0.1175  0.3164
59607W        W60471   8.303   8.489  12.984 -0.1294 -0.0266 -0.0658
59608W        W60472   9.792  10.067  18.194  0.1143  0.3064 -0.0571
59609W        W60473   6.953   9.278  14.771  0.2751  0.2104 -0.0791
59610W        W60474   9.202   8.054  14.791  0.2150 -0.0287  0.0058
59611W        W60475   9.049   7.608  18.527  0.1569 -0.2588 -0.1530
59612W        W60476   9.614  10.327  15.330  0.0595  0.1154 -0.0015
59613W        W60477   8.547   9.605  16.127 -0.2193 -0.0884 -0.2208
59614W        W60478  10.280  12.256  14.046 -0.0341 -0.1457  0.1545
59615W        W60479   6.788   9.050  18.036 -0.0945  0.1603 -0.2267
59616W        W60480  10.699  11.333  18.299  0.2017 -0.2764  0.0232
59617W        W60481   7.994   6.312  13.705  0.0587  0.0080 -0.1057
59618W        W60482   9.377   6.840  19.875  0.0353  0.1903 -0.2727
59619W        W60483   9.508   9.156  14.776  0.3875  0.1904  0.3222
59620W        W60484  12.502   9.923  15.761  0.0034 -0.1375 -0.0413
59621W        W60485   5.971  10.095  18.395 -0.2799  0.2570  0.0629
59622W        W60486  11.261  11.066  15.890  0.1074 -0.1335  0.2541
59623W        W60487  10.569  10.639  14.097  0.1586 -0.0547  0.0289
59624W        W60488   8.577   6.595  15.076  0.1323 -0.2295  0.0327
59625W        W60489   8.568  11.779  15.604 -0.0821  0.1781  0.0799
59626W        W60490  11.042  10.604  19.311  0.2241  0.0644 -0.0058
59627W        W60491   9.032  11.270  16.530  0.0546 -0.1302  0.2278
59628W        W60492   6.087   8.545  12.908 -0.1210  0.0380 -0.1683
59629W        W60493  12.993  11.669  13.615  0.0049 -0.2457  0.3218
59630W        W60494  10.960   8.143  16.011  0.0339 -0.1003  0.1751
59631W        W60495   9.059   4.408  16.619  0.0686 -0.0338  0.2683
59632W        W60496  12.074  11.302  16.397 -0.1388 -0.1579 -0.1613
59633W        W60497  11.392   6.948  15.566  0.1469 -0.0055 -0.0729
59634W        W60498   7.223   8.526  16.047 -0.0826  0.2029 -0.1210
59635W        W60499   5.718   7.715  18.279 -0.2320  0.1950  0.0402
59636W        W60500  12.950  10.332  13.969  0.3305  0.2060 -0.1181
59637W        W60501   7.589   9.006  15.360  0.1014 -0.0913  0.2559
59638W        W60502   8.394   9.987  15.696 -0.2561  0.0312  0.2769
59639W        W60503   7.812  10.853  18.101 -0.3668  0.0600  0.1453
59640W        W60504   9.709  10.371  14.406 -0.0688 -0.0069 -0.0619
59641W        W60505  10.008  11.770  16.572 -0.1046 -0.1138 -0.0536
59642W        W60506   7.838   8.555  19.070  0.2526  0.1236  0.1872
59643W        W60507  13.700   9.131  16.223 -0.2424  0.0153 -0.0002
59644W        W60508   9.823   8.569  15.186  0.3136  0.0275  0.2977
59645W        W60509   5.917   8.662  16.758  0.2673  0.1023  0.1955
59646W        W60510   6.255   9.043  14.613 -0.1221  0.1797 -0.1476
59647W        W60511   6.397   9.479  14.779  0.2645 -0.0506 -0.3126
59648W        W60512  10.721  11.765  16.817 -0.2619 -0.0947 -0.1576
59649W        W60513   8.867   6.741  15.952  0.2961 -0.2516  0.0641
59650W        W60514   5.679   8.063  17.922 -0.1970 -0.0774 -0.0713
59651W        W60515   9.352   9.766  16.753  0.1236 -0.0784  0.1764
59652W        W60516  10.150  10.470  14.208 -0.3839 -0.0075 -0.3132
59653W        W60517   5.404   8.661  15.947  0.1828 -0.1372 -0.1067
59654W        W60518   6.290   9.108  17.450  0.1884 -0.3293  0.2148
59655W        W60519   5.770   8.867  14.799  0.1273 -0.3230 -0.0672
59656W        W60520   8.577   8.774  14.376  0.1766 -0.1067  0.1048
59657W        W60521   7.107  10.210  16.283 -0.3693  0.0471  0.0817
59658W        W60522  11.137   7.304  16.895  0.0714  0.2292 -0.0323
59659W        W60523   9.325   8.343  16.056 -0.0874 -0.0826  0.1383
59660W        W60524   8.974  10.941  14.112 -0.0709  0.1801  0.3552
59661W        W60525   7.593   9.160  17.700  0.1002 -0.0439 -0.1515
59662W        W60526  11.688   6.200  16.565 -0.1948  0.0918 -0.3552
59663W        W60527  10.044   8.915  13.960  0.0475  0.0259 -0.0978
59664W        W60528   8.766   8.324  12.944  0.1140  0.1666  0.0277
59665W        W60529   8.685   7.056  16.321  0.2090  0.0527 -0.0211
59666W        W60530   8.159  10.879  19.296 -0.0463  0.0366 -0.0702
59667W        W60531  10.052  10.679  15.479 -0.1480  0.0096  0.0600
59668W        W60532   7.356   9.014  18.164 -0.2858 -0.0675 -0.0121
59669W        W60533   8.590   7.829  16.970  0.1644  0.2036 -0.0749
59670W        W60534   7.485   8.004  17.104 -0.3253  0.0711 -0.0645
59671W        W60535  10.474   9.337  20.522  0.1921  0.2614  0.3119
59672W        W60536  11.888  10.948  15.936 -0.1336 -0.1339  0.1063
59673W        W60537   4.662   8.235  15.928 -0.2016  0.0128 -0.2991
59674W        W60538   6.748   7.388  14.113  0.0040 -0.1558 -0.1093
59675W        W60539   8.560   8.861  19.647 -0.0881 -0.0499  0.0521
59676W        W60540   7.347  10.819  17.895 -0.0265  0.1882  0.0478
59677W        W60541  12.291   6.824  17.146  0.0089 -0.0191  0.0202
59678W        W60542  12.470  10.242  16.161  0.0462 -0.1858 -0.1181
59679W        W60543  10.672  12.759  18.310 -0.0844 -0.1254 -0.0723
59680W        W60544   8.808   6.569  19.782  0.1207  0.0989  0.1314
59681W        W60545   6.287   6.756  13.933 -0.3475  0.0572  0.2728
59682W        W60546   8.272   7.338  15.365 -0.1404 -0.0189 -0.0165
59683W        W60547   6.371   7.943  16.644 -0.1633  0.0206 -0.0159
59684W        W60548   7.683   9.000  13.429  0.1038 -0.0424 -0.1006
59685W        W60549  10.291   9.347  18.921  0.0368 -0.1543 -0.2531
59686W        W60550   8.773   7.479  15.301 -0.0448 -0.0824  0.1757
59687W        W60551  10.480  10.359  16.705  0.1435 -0.1368 -0.1024
59688W        W60552   5.825  10.812  15.116  0.2223 -0.0175  0.0333
59689W        W60553   8.178  11.705  18.544 -0.2155  0.1254 -0.1118
59690W        W60554   6.448   6.161  14.008  0.0454 -0.0480  0.1645
59691W        W60555   8.801   7.697  14.696 -0.1426 -0.2549  0.0775
59692W        W60556  10.444  10.727  18.546  0.4867  0.0779  0.1869
59693W        W60557   9.335   9.577  15.920 -0.0513  0.0787 -0.2509
59694W        W60558   8.710  12.428  16.311 -0.0353  0.1791  0.1373
59695W        W60559  10.241   9.878  14.953 -0.2755 -0.0354 -0.0577
59696W        W60560   8.997   9.452  19.696 -0.1404 -0.0995 -0.0381
59697W        W60561   9.646  11.028  15.158  0.0942 -0.2036  0.3408
59698W        W60562   9.746   9.740  15.415 -0.0016  0.0557  0.1355
59699W        W60563  10.744  10.436  18.157 -0.1401  0.4442 -0.1570
59700W        W60564   5.506   6.507  15.582  0.2602  0.0165 -0.3000
59701W        W60565   8.371   7.398  16.437  0.0907  0.1501  0.3666
59702W        W60566   9.346   9.357  15.486  0.0519 -0.1368  0.2817
59703W        W60567   9.514   7.553  14.246 -0.0525  0.1870  0.0236
59704W        W60568   8.674   7.298  16.983 -0.1653  0.0330  0.0182
59705W        W60569  11.756   7.630  16.611 -0.0114 -0.0994 -0.1249
59706W        W60570  11.085  11.708  16.462 -0.2331  0.2107  0.0842
59707W        W60571   7.105   8.905  18.588 -0.0473  0.1940  0.1973
59708W        W60572  10.143  10.152  19.450 -0.0853 -0.1854  0.1536
59709W        W60573   8.536   9.455  17.772 -0.0570 -0.1765 -0.1099
59710W        W60574   8.527  11.060  15.890 -0.2382 -0.2802  0.1593
59711W        W60575  12.261   9.747  13.531 -0.0681 -0.0156 -0.2218
59712W        W60576  12.339   9.643  15.321 -0.0929 -0.0957 -0.1218
59713W        W60577   7.644   8.666  16.331 -0.1125 -0.0130  0.0696
59714W        W60578  10.011   9.936  14.464 -0.1567 -0.4532  0.0554
59715W        W60579   8.899   7.135  19.658  0.2633  0.2059  0.0853
59716W        W60580   7.780   6.987  15.887 -0.2415 -0.0713 -0.0453
59717W        W60581   7.807   9.181  14.014 -0.4143 -0.1270  0.0768
59718W        W60582  12.768   8.691  16.030 -0.1883 -0.2925  0.0655
59719W        W60583   7.436  11.192  16.883 -0.0371 -0.1027  0.4010
59720W        W60584   8.516  11.017  13.616 -0.1429 -0.2123 -0.0432
59721W        W60585   6.524   8.309  15.014  0.0901 -0.3534 -0.2729
59722W        W60586   8.940  10.153  16.507 -0.2759  0.0882  0.0263
59723W        W60587   8.306   8.289  16.872  0.2352  0.2072  0.0237
59724W        W60588  10.107  10.142  15.601  0.0619 -0.2894 -0.0467
59725W        W60589  10.298   7.181  16.754  0.1891  0.2736  0.0985
59726W        W60590  11.826   8.531  16.960 -0.2344 -0.3504 -0.0285
59727W        W60591   9.628   7.884  15.181 -0.1303 -0.3579 -0.1898
59728W        W60592   8.941   9.204  16.082  0.1006 -0.2104 -0.3697
59729W        W60593   8.042   7.007  14.439 -0.2923  0.0293 -0.0835
59730W        W60594   7.532  12.448  17.608  0.2648 -0.0758 -0.1108
59731W        W60595   6.840   6.981  15.583 -0.0021 -0.0610  0.1425
59732W        W60596   4.661   9.366  17.237  0.0613 -0.0475  0.0696
59733W        W60597   9.419   8.342  15.155 -0.4108  0.1288 -0.0093
59734W        W60598  11.538  10.298  14.244 -0.2436  0.0835 -0.3258
59735W        W60599   7.550  10.220  17.035 -0.2416 -0.1493  0.2625
59736W        W60600  10.779  11.177  14.873 -0.3561  0.1155  0.0106
59737W        W60601   8.524   6.067  13.632 -0.2378 -0.0380 -0.0405
59738W        W60602   8.568  11.078  16.542  0.0252 -0.0774 -0.1033
59739W        W60603  10.213  13.223  15.866 -0.0973 -0.0190 -0.1308
59740W        W60604  10.281  10.479  13.639  0.2606 -0.4827  0.2653
59741W        W60605  11.857   9.051  15.735 -0.1002 -0.1331 -0.0388
59742W        W60606   9.636   6.318  14.819 -0.3043  0.0944 -0.0082
59743W        W60607  10.815   6.944  17.077  0.3837 -0.0842  0.0017
59744W        W60608   8.509   8.829  14.923 -0.0285  0.2451  0.0487
59745W        W60609  11.319   8.459  16.309 -0.0398 -0.0089 -0.1079
59746W        W60610   7.486   7.925  10.388  0.1229  0.0062 -0.0947
59747W        W60611   9.667  11.309  17.505  0.3727 -0.1469  0.0502
59748W        W60612  12.027   7.928  16.222 -0.3068 -0.1590  0.0389
59749W        W60613   7.204   7.550  17.103 -0.0177  0.0495  0.0152
59750W        W60614   8.078   8.504  20.339  0.0062  0.2377  0.0416
59751W        W60615  11.013  12.224  18.090  0.1321 -0.0430  0.2361
59752W        W60616   5.358   7.186  16.057  0.1906  0.0823  0.3690
59753W        W60617   7.108   8.902  16.943  0.2746  0.0443  0.1591
59754W        W60618   7.160   6.709  16.471 -0.1083  0.0047 -0.2247
59755W        W60619   9.421  10.940  17.295 -0.4307 -0.3313 -0.2277
59756W        W60620   7.410   8.099  14.316 -0.0920  0.2256 -0.0495
59757W        W60621  12.454  10.409  14.199  0.2078 -0.5718  0.3406
59758W        W60622  11.424  11.204  18.610  0.0519  0.2119  0.1271
59759W        W60623   7.582   8.756  18.612 -0.0748 -0.3957 -0.1959
59760W        W60624  13.314  10.698  15.539 -0.0751 -0.5544  0.1973
59761W        W60625   9.700  12.229  16.448  0.2305 -0.3585 -0.1063
59762W        W60626   7.761   9.348  15.701  0.3886  0.2421  0.0217
59763W        W60627  11.717  10.546  17.216 -0.0292 -0.1167  0.0500
59764W        W60628  10.175  11.004  15.095  0.1741  0.0566 -0.0376
59765W        W60629   7.761  10.320  15.047  0.1504  0.2785  0.1180
59766W        W60630  10.399  10.591  15.798 -0.2093  0.3566  0.0551
59767W        W60631   7.881  12.069  15.328  0.0838  0.0004 -0.0278
59768W        W60632   8.631  11.442  16.182  0.1023  0.3141 -0.0268
59769W        W60633   7.983   8.926  20.612 -0.1046  0.0496  0.1145
59770W        W60634   9.108   7.890  15.289 -0.3695  0.1531  0.2134
59771W        W60635   6.456   8.251  19.923 -0.1996  0.3683 -0.0375
59772W        W60636  10.360  10.487  17.558  0.0797 -0.3248  0.1588
59773W        W60637   9.205   9.820  15.510 -0.0514 -0.1456 -0.0989
59774W        W60638  10.413  10.813  21.940 -0.2112 -0.1545  0.0315
59775W        W60639   7.337  10.566  21.620  0.0792 -0.0094 -0.1785
59776W        W60640   8.987  11.184  20.166 -0.0930  0.2104  0.2115
59777W        W60641  12.681  10.604  23.879 -0.2660  0.0233 -0.3866
59778W        W60642   8.190  12.295  19.331  0.2318 -0.4969  0.2323
59779W        W60643   7.883   9.142  16.216  0.1445 -0.1111 -0.1763
59780W        W60644   7.812   6.936  18.920 -0.0621 -0.1013 -0.2533
59781W        W60645   8.183   8.327  21.946  0.1852  0.2077  0.1191
59782W        W60646  10.865  10.621  22.051  0.2565  0.0745 -0.3977
59783W        W60647   9.357   7.999  18.484 -0.0086 -0.2667  0.1648
59784W        W60648   7.893   7.176  20.523 -0.1119 -0.3843  0.3082
59785W        W60649   8.406   6.537  20.082 -0.1053 -0.1621  0.0331
59786W        W60650   7.992   6.461  18.772  0.0221  0.2281  0.0331
59787W        W60651  10.259   7.888  23.545 -0.2903  0.0850 -0.1738
59788W        W60652   7.485   7.643  21.045 -0.1652  0.2622  0.2511
59789W        W60653   7.183   9.694  21.883  0.2653  0.0416  0.2340
59790W        W60654   6.106   9.470  19.165  0.0543  0.1419  0.2099
59791W        W60655   7.292   6.998  21.889  0.0724  0.1686  0.0759
59792W        W60656   9.702   6.864  19.441 -0.0132  0.1976  0.1321
59793W        W60657   8.829   7.449  21.693 -0.1293 -0.2148 -0.0888
59794W        W60658   9.711   8.439  23.067 -0.0016  0.0204 -0.1491
59795W        W60659   8.227   5.050  20.291  0.3285 -0.1839  0.0301
59796W        W60660   9.295  10.785  20.052 -0.1545  0.1123 -0.0124
59797W        W60661   2.787   9.327  16.652  0.2446  0.1502  0.0063
59798W        W60662   6.997   5.378  22.281 -0.0522 -0.1264  0.2961
59799W        W60663   8.076   9.529  20.972  0.1718  0.0671  0.2075
59800W        W60664  11.868   7.162  21.234  0.4367  0.2203 -0.1962
59801W        W60665   6.915  10.673  20.364  0.1936 -0.1323 -0.2359
59802W        W60666   6.446   9.101  20.872 -0.0880  0.2108  0.0934
59803W        W60667   9.733   7.181  20.750  0.0366 -0.2573  0.0458
59804W        W60668   9.622   8.853  23.330  0.0838  0.0288 -0.1569
59805W        W60669  12.675   9.554  22.950 -0.2499 -0.1633  0.0375
59806W        W60670  13.769   8.653  21.069  0.2332 -0.0039  0.0949
59807W        W60671   8.256   6.183  20.530 -0.2759  0.2435  0.1863
59808W        W60672   5.455   6.895  22.172  0.2742 -0.0605 -0.0763
59809W        W60673  12.207   7.020  20.814 -0.2879  0.0115  0.1568
59810W        W60674   7.510   8.815  20.719 -0.0421  0.1578 -0.0370
59811W        W60675   7.193  10.345  20.673  0.0463 -0.4295 -0.0819
59812W        W60676  10.717   9.059  21.242 -0.1058 -0.2134  0.0528
59813W        W60677   9.132   7.362  20.148  0.1225  0.2270  0.0163
59814W        W60678  10.296   8.119  18.980  0.0989 -0.1572  0.4143
59815W        W60679  13.102  10.257  20.021  0.0922 -0.1572  0.0765
59816W        W60680   8.327   9.331  19.757  0.0566  0.2835  0.1279
59817W        W60681  10.298  10.117  20.953 -0.1834  0.3414  0.1491
59818W        W60682   7.950   9.865  16.996  0.0159 -0.1372 -0.1425
59819W        W60683   8.614   9.659  20.017  0.0520  0.1085  0.1996
59820W        W60684   8.342   9.292  19.080 -0.4206 -0.0151  0.5950
59821W        W60685  11.158   9.143  21.027  0.0761  0.0427 -0.2764
59822W        W60686   9.340   8.419  20.690 -0.0169  0.0913  0.1209
59823W        W60687   9.598   7.029  16.662  0.3417 -0.0538  0.3408
59824W        W60688  11.087  10.967  22.552 -0.2954  0.2076  0.0255
59825W        W60689   7.666   7.687  20.472  0.3241  0.1405 -0.1103
59826W        W60690   9.024  10.435  23.070  0.1069  0.0334 -0.2353
59827W        W60691   9.312  10.134  19.094 -0.0949  0.3032 -0.0479
59828W        W60692   7.338   9.694  19.220 -0.3084  0.1514  0.2266
59829W        W60693   5.777  10.307  19.120  0.3569 -0.1670 -0.1516
59830W        W60694   7.199   8.167  19.365 -0.0048  0.4147  0.3336
59831W        W60695   8.542   8.217  23.498  0.3006  0.3593  0.1157
59832W        W60696   4.881   9.055  15.416  0.0519  0.0352 -0.0514
59833W        W60697   6.589   9.672  19.466  0.0158  0.0997  0.0523
59834W        W60698  10.843  10.464  16.367 -0.3262 -0.2540 -0.1488
59835W        W60699   9.771   8.003  18.848 -0.0603  0.0093  0.2221
59836W        W60700   9.660   9.467  20.945  0.1515 -0.1260 -0.3060
59837W        W60701   6.439   9.327  16.214  0.2548  0.1477  0.0140
59838W        W60702   8.820   8.323  19.474  0.0400  0.1198 -0.0042
59839W        W60703   9.442   6.730  18.882  0.2299 -0.0850  0.0264
59840W        W60704   6.711   6.959  21.854  0.0935 -0.0679  0.0308
59841W        W60705   5.539   6.043  15.760 -0.1033 -0.0417  0.0226
59842W        W60706   5.702  10.553  18.559 -0.0387 -0.0721  0.3688
59843W        W60707   9.833  10.893  22.239  0.1372  0.2021  0.1735
59844W        W60708  11.679  12.064  20.116  0.0815 -0.1220 -0.0864
59845W        W60709   8.563   7.744  18.360  0.1363 -0.2194  0.2021
59846W        W60710  10.101   9.024  18.581 -0.0256 -0.1665  0.0941
59847W        W60711  11.553   5.833  21.650 -0.2333 -0.0361  0.0829
59848W        W60712  14.171   8.869  20.500  0.2964  0.0823 -0.1231
59849W        W60713  12.318   9.017  21.299  0.2368 -0.1351  0.4353
59850W        W60714   7.779   8.147  18.693 -0.4713 -0.0886 -0.0722
59851W        W60715   8.535   4.813  22.854  0.0129 -0.1565 -0.0691
59852W        W60716  10.414   6.074  20.389  0.2918 -0.1659  0.0371
59853W        W60717   7.680  10.115  19.077  0.0284 -0.3759  0.1287
59854W        W60718   7.916  10.275  21.629  0.0772 -0.1098 -0.1246
59855W        W60719   6.716  11.490  20.762  0.2334  0.1695 -0.0971
59856W        W60720   7.164   9.883  21.076  0.1915  0.0191  0.0821
59857W        W60721   9.873   5.888  18.527  0.1681  0.1187 -0.0097
59858W        W60722   8.079   8.111  23.229  0.1793  0.0295 -0.2054
59859W        W60723   8.414   6.592  18.989  0.0543  0.0633  0.0039
59860W        W60724  13.364  11.681  23.406 -0.0950 -0.2944 -0.1268
59861W        W60725  11.814   7.160  23.832  0.0987 -0.0938 -0.1080
59862W        W60726  11.356  10.880  24.696 -0.0892 -0.0977 -0.2245
59863W        W60727  11.751  11.143  22.329  0.0455  0.0920  0.1579
59864W        W60728   9.051   9.292  20.842 -0.3116  0.0087 -0.2023
59865W        W60729  12.038  11.769  20.380  0.0794  0.2804  0.0773
59866W        W60730   8.820   7.414  21.091  0.1583  0.0220 -0.2684
59867W        W60731   5.428  11.174  19.305  0.0649  0.0258  0.3401
59868W        W60732   6.921   8.347  21.459  0.1753 -0.4000  0.0574
59869W        W60733   9.230   8.069  18.995 -0.2142 -0.1634  0.0395
59870W        W60734  11.828   8.935  20.864  0.1954  0.0860  0.3067
59871W        W60735   7.554   9.202  20.437  0.3821 -0.4173 -0.3148
59872W        W60736   6.425   7.141  18.967  0.2924  0.0681  0.3134
59873W        W60737   7.689   7.374  19.071 -0.3339 -0.2584  0.3077
59874W        W60738  12.436  10.349  19.512 -0.1815 -0.0461  0.1100
59875W        W60739   8.255  10.352  21.184 -0.5958 -0.0186  0.1421
59876W        W60740   9.868   7.626  18.305  0.0189  0.0229  0.1210
59877W        W60741  12.830   9.796  20.018 -0.1890  0.2676 -0.3332
59878W        W60742  11.204   6.010  18.467 -0.2804 -0.1833 -0.0233
59879W        W60743   9.094   7.035  21.410 -0.0554  0.1649  0.2154
59880W        W60744  10.587   9.684  20.953 -0.1982 -0.1095  0.4225
59881W        W60745   5.470   9.374  21.784 -0.4743  0.1653  0.2175
59882W        W60746   7.634   9.667  19.719  0.1592  0.0386 -0.0288
59883W        W60747   6.280   7.134  16.900 -0.2658 -0.0305 -0.1284
59884W        W60748   7.186  12.312  21.072 -0.1481 -0.0714  0.1257
59885W        W60749   9.637   8.931  21.609  0.1045  0.1623  0.1516
59886W        W60750  11.616   8.194  21.246 -0.3110 -0.0650 -0.0246
59887W        W60751   8.964  10.618  20.843 -0.3297 -0.3251 -0.1464
59888W        W60752  13.302   8.777  18.483 -0.3213 -0.2567  0.2672
59889W        W60753   8.751   8.361  17.742  0.2405  0.0366 -0.1440
59890W        W60754  11.940   9.059  20.092 -0.0498  0.1867 -0.3171
59891W        W60755   8.403  10.175  22.410 -0.1324  0.2667 -0.2038
59892W        W60756   9.699   9.989  20.802 -0.1030 -0.1794  0.0428
59893W        W60757   9.059   6.269  16.541  0.0764 -0.3037  0.0281
59894W        W60758  12.044  10.623  18.237  0.0593 -0.1721 -0.3233
59895W        W60759   8.228  11.002  20.560  0.1434 -0.3590 -0.1267
59896W        W60760  10.504  10.235  18.605  0.0451  0.0695  0.0773
59897W        W60761   8.042   8.912  18.381  0.1091  0.1858 -0.0246
59898W        W60762   9.378   8.337  19.420  0.0776  0.1611 -0.0184
59899W        W60763  11.441   8.924  19.937 -0.0833  0.0596  0.1048
59900W        W60764   8.011   7.937  19.696  0.0581 -0.2192 -0.0916
59901W        W60765   9.612  11.482  20.918 -0.0689 -0.1124 -0.0105
59902W        W60766  10.469  10.030  21.434 -0.0081 -0.0794  0.3199
59903W        W60767   7.638   8.427  22.145  0.0348 -0.0699  0.0433
59904W        W60768  11.907  10.070  20.201  0.1924  0.1005 -0.0011
59905W        W60769   9.998   6.301  20.605  0.0643  0.0242  0.1943
59906W        W60770   9.302  10.687  21.304  0.3118 -0.1782 -0.1686
59907W        W60771   9.168   8.822  21.969 -0.0849  0.1938  0.1377
59908W        W60772  10.255   7.679  21.362 -0.1116  0.0664 -0.1996
59909W        W60773   8.516   7.913  19.513 -0.1090  0.0363 -0.2247
59910W        W60774   8.405   9.230  20.750  0.1067  0.4869  0.0291
59911W        W60775  12.046  10.181  21.160 -0.1202  0.1089  0.1162
59912W        W60776  10.054  10.670  19.393  0.3188  0.0403 -0.0821
59913W        W60777   7.692   8.231  19.467 -0.0905  0.3681 -0.2728
59914W        W60778   7.472   7.769  19.466 -0.2584 -0.1533 -0.0339
59915W        W60779   8.162   4.035  18.203  0.0286  0.0402  0.1079
59916W        W60780   7.542   8.571  15.660  0.2472 -0.0986  0.0279
59917W        W60781   6.720  10.864  17.217  0.1467 -0.0856 -0.3338
59918W        W60782   9.440   7.995  21.824  0.2360 -0.0547  0.0315
59919W        W60783   9.482   5.765  18.899  0.1666 -0.1050  0.1845
59920W        W60784   8.386   8.299  21.151  0.0211 -0.1877 -0.0899
59921W        W60785  12.197  10.555  17.530 -0.0365 -0.1991  0.2330
59922W        W60786   7.786  10.364  19.557 -0.2352 -0.4558  0.0366
59923W        W60787   8.180   9.952  20.820  0.0071 -0.2207 -0.0449
59924W        W60788  12.421  11.846  22.374  0.0135  0.3497 -0.0319
59925W        W60789   7.487   6.054  17.838  0.0830  0.0185 -0.1584
59926W        W60790   7.474  10.757  20.626  0.3646 -0.3095  0.1751
59927W        W60791   7.569   8.355  20.329 -0.0903  0.0742  0.0053
59928W        W60792   7.426   9.603  20.135  0.0186  0.2335  0.0072
59929W        W60793  11.506   8.311  20.726 -0.2492 -0.1124 -0.2969
59930W        W60794   6.494  10.831  18.739  0.1407  0.2456 -0.0902
59931W        W60795   6.680   8.690  17.218  0.1668  0.3607  0.0546
59932W        W60796   7.385   5.612  18.220 -0.4377 -0.3085  0.1060
59933W        W60797  10.355   7.114  22.077 -0.0656 -0.2938 -0.2135
59934W        W60798   8.548   8.614  20.781 -0.2527  0.0588  0.1170
59935W        W60799   8.390  10.636  20.108 -0.1262 -0.3360  0.0270
59936W        W60800  10.283   8.666  22.352 -0.1111 -0.3342 -0.1187
59937W        W60801  10.793   8.276  21.967 -0.0779  0.1554 -0.1822
59938W        W60802  10.820   7.890  22.237  0.0045 -0.3748  0.0539
59939W        W60803   7.363   8.477  18.991 -0.3670  0.0298 -0.2594
59940W        W60804   6.537   9.153  19.138  0.3366  0.2286  0.0105
59941W        W60805   9.855  11.363  18.810  0.0585  0.1435 -0.1642
59942W        W60806  11.614   9.994  22.034 -0.0163  0.0553 -0.0195
59943W        W60807   6.214  12.133  16.670  0.2749 -0.2740  0.1030
59944W        W60808   9.671   8.862  18.800 -0.0324 -0.4603  0.1816
59945W        W60809   8.999   7.976  18.128 -0.0681  0.2655 -0.0478
59946W        W60810   9.980  10.402  21.877  0.3225 -0.1665  0.2723
59947W        W60811  11.921  10.138  17.432 -0.0033 -0.0767  0.0117
59948W        W60812   6.240   6.677  19.798  0.0923  0.0287  0.1041
59949W        W60813   9.842   9.309  21.876  0.0424 -0.1512  0.1957
59950W        W60814   7.105  11.766  23.002 -0.2650 -0.2629  0.0446
59951W        W60815   7.036  11.469  19.059 -0.2393  0.2070 -0.1996
59952W        W60816   6.240  12.939  17.649 -0.1498  0.1039 -0.1829
59953W        W60817   6.961   8.886  20.659 -0.0095 -0.0067 -0.3141
59954W        W60818   7.668  10.919  19.322  0.0412  0.2182 -0.3267
59955W        W60819  11.907  10.688  21.284 -0.3412 -0.2530  0.1018
59956W        W60820   8.503   4.798  21.429 -0.4163 -0.0353  0.1522
59957W        W60821   6.160   8.370  21.074 -0.1487 -0.1287  0.0259
59958W        W60822   8.303   8.428  18.758  0.0452 -0.0329  0.2158
59959W        W60823  13.164  10.106  22.804 -0.0424  0.0395  0.1459
59960W        W60824   8.556   8.671  20.254  0.2857  0.1906  0.1600
59961W        W60825   8.291   6.112  16.274 -0.0869 -0.2315 -0.0549
59962W        W60826   7.472  11.430  22.283  0.1542  0.0001  0.1169
59963W        W60827   6.288   8.906  17.907  0.0143 -0.1844  0.1682
59964W        W60828   5.054  11.248  15.042 -0.0027  0.1290  0.2776
59965W        W60829   6.647  10.519  20.942 -0.2703  0.2724 -0.1133
59966W        W60830   6.584   8.132  21.144 -0.2976 -0.2191 -0.2260
59967W        W60831   9.488   7.508  20.425 -0.2908  0.0695 -0.1443
59968W        W60832  11.839   6.751  21.702  0.1249  0.2259  0.3474
59969W        W60833   4.450   8.195  14.955 -0.0737  0.1780  0.1572
59970W        W60834   6.214   7.948  18.344 -0.0232 -0.0972  0.1028
59971W        W60835   5.141   5.062  19.623 -0.0839 -0.2877 -0.1560
59972W        W60836   6.515  10.485  16.979  0.0244  0.0341 -0.0672
59973W        W60837   8.567   6.910  19.408 -0.0425  0.0813  0.0794
59974W        W60838   7.106   7.871  18.504  0.2407 -0.0742  0.2561
59975W        W60839   7.866   7.392  19.534  0.0132 -0.1428  0.1925
59976W        W60840  10.955  11.064  17.280 -0.1744 -0.1463  0.0239
59977W        W60841  11.062   8.734  21.318 -0.1406  0.0785  0.1247
59978W        W60842  10.303   8.771  21.150 -0.1016  0.1228  0.1241
59979W        W60843   7.807   7.828  19.108  0.4045 -0.0103  0.0590
59980W        W60844   7.311  11.522  21.552  0.1374  0.1112 -0.1512
59981W        W60845   6.890   7.056  18.918 -0.3400 -0.1008  0.0675
59982W        W60846  10.663  10.543  20.073 -0.1301  0.0286 -0.2195
59983W        W60847   9.144   7.579  19.034 -0.0705  0.3084  0.2068
59984W        W60848   6.626  12.023  19.719 -0.1758 -0.0306 -0.0517
59985W        W60849   6.976   8.454  24.724 -0.0981  0.0342  0.3404
59986W        W60850   9.023   8.342  23.750 -0.0559 -0.0956  0.2166
59987W        W60851  12.870   8.747  21.492  0.3114  0.1647 -0.1927
59988W        W60852  14.222   9.466  22.669  0.0717  0.0478  0.1911
59989W        W60853   9.161   7.901  20.393 -0.0767 -0.0601  0.1753
59990W        W60854   7.775   9.245  19.984 -0.0096 -0.0992  0.0545
59991W        W60855  12.351   9.847  18.732 -0.1306  0.1114 -0.1207
59992W        W60856   8.927   8.409  20.422 -0.0493  0.2365 -0.2655
59993W        W60857   7.300   9.109  21.594  0.2324 -0.2343 -0.1059
59994W        W60858   9.899   7.688  19.854  0.0592 -0.1948  0.3546
59995W        W60859  12.470  10.019  21.041  0.2118 -0.0962 -0.0077
59996W        W60860   7.698  11.043  22.774 -0.0071  0.1511  0.1064
59997W        W60861   7.596   5.997  15.580 -0.0479 -0.3853 -0.3024
59998W        W60862  11.369   9.695  16.785 -0.2731 -0.3364 -0.1370
59999W        W60863   8.700   5.028  20.978  0.0633 -0.3885  0.2140
60000W        W60864  10.473   9.736  22.318  0.2359 -0.0443 -0.1119
60001W        W60865  11.114   8.134  19.426 -0.1412  0.0867 -0.3313
60002W        W60866   7.948   8.997  18.897  0.1887  0.2034 -0.1905
60003W        W60867   9.438  10.184  21.475 -0.2894 -0.0228  0.3508
60004W        W60868   6.990   7.524  21.055 -0.1139 -0.0106 -0.2983
60005W        W60869   8.298   8.893  21.678  0.2160  0.0428 -0.0667
60006W        W60870   6.954   9.348  19.376  0.0027  0.0238 -0.0447
60007W        W60871  10.279   8.715  17.687  0.0503  0.1281 -0.0356
60008W        W60872   5.743   6.115  21.146  0.3977 -0.3082  0.0935
60009W        W60873   4.356   8.777  18.830 -0.2366 -0.1069  0.4048
60010W        W60874  12.337  10.585  21.111  0.1150  0.5000 -0.1475
60011W        W60875   7.393   7.492  21.844  0.2082  0.1630  0.1433
60012W        W60876   8.056  11.092  20.101  0.3028 -0.3634  0.0380
60013W        W60877   8.921  10.872  22.106 -0.0636 -0.2596 -0.0644
60014W        W60878  10.082   6.822  21.640  0.2234 -0.0102  0.0186
60015W        W60879   7.183   8.747  19.423  0.0998 -0.1667 -0.2573
60016W        W60880   8.261   7.496  22.365 -0.1080 -0.0616  0.0999
60017W        W60881   6.423   8.510  18.741 -0.1616 -0.0679  0.4840
60018W        W60882   6.776   7.500  18.449  0.2232  0.0724 -0.4583
60019W        W60883   6.678  11.048  17.840  0.0175 -0.0234  0.1843
60020W        W60884  10.279   8.196  17.866 -0.1813 -0.3943 -0.4703
60021W        W60885   6.133  11.885  17.621  0.0724  0.1676  0.3098
60022W        W60886   9.485  13.066  18.265 -0.1459  0.2536  0.1720
60023W        W60887   8.146   8.797  19.863 -0.3160  0.0120  0.0273
60024W        W60888   7.921   7.994  20.173  0.2409  0.2465 -0.3788
60025W        W60889   6.291  10.065  20.912 -0.0298  0.1911 -0.0663
60026W        W60890  10.883  11.869  20.684  0.0129  0.1812  0.3703
60027W        W60891  11.573   9.234  21.295 -0.1765  0.0530 -0.2462
60028W        W60892   7.096  10.539  17.137  0.2533  0.1596  0.2256
60029W        W60893  10.756   9.097  20.209 -0.0025 -0.0333  0.0794
60030W        W60894   9.640   9.040  18.324  0.2874 -0.0361 -0.0668
60031W        W60895  11.712   9.162  22.050 -0.1148 -0.3095  0.0427
60032W        W60896  12.391   9.300  20.209  0.1454 -0.1188  0.0129
60033W        W60897  12.489   6.622  20.817 -0.0297 -0.2842  0.0350
60034W        W60898  10.771   7.519  20.855 -0.1286 -0.3755  0.2207
60035W        W60899   9.770   7.931  20.727  0.2084  0.1931 -0.4190
60036W        W60900  13.497   9.398  20.609  0.0200  0.1325  0.1046
60037W        W60901   6.967   8.384  20.652 -0.1632  0.0992 -0.0338
60038W        W60902   6.789   9.458  21.620 -0.0471 -0.0102  0.0198
60039W        W60903   6.058  10.264  20.122 -0.1613 -0.1163  0.0875
60040W        W60904   6.523  11.174  22.131 -0.0808  0.0185 -0.1647
60041W        W60905  11.196   9.558  19.517  0.0873  0.0720  0.1671
60042W        W60906   9.693   8.180  21.410 -0.3194  0.0967  0.0812
60043W        W60907  10.705   9.446  22.017 -0.0009  0.4754  0.1270
60044W        W60908   5.900   9.159  18.289  0.2713 -0.3359  0.1891
60045W        W60909  10.880   8.904  22.384 -0.0757 -0.1015  0.0345
60046W        W60910   9.933   7.234  21.354  0.1652 -0.0387 -0.1406
60047W        W60911   8.338  11.399  21.031  0.2158  0.0166  0.1014
60048W        W60912   8.710   7.915  21.277  0.0400 -0.1864  0.2620
60049W        W60913  11.837   8.671  21.369 -0.2801 -0.0357 -0.1638
60050W        W60914   6.568   6.999  21.285 -0.2560  0.1984 -0.1483
60051W        W60915   6.296  10.070  19.377  0.0085  0.0382 -0.0023
60052W        W60916  11.373   9.935  18.580 -0.3390 -0.0640  0.2215
60053W        W60917   6.810  14.424  19.177 -0.2871 -0.1880  0.0559
60054W        W60918   6.952   8.373  18.699  0.1218  0.2926  0.2434
60055W        W60919   9.301   9.154  19.244 -0.0256 -0.2866 -0.1231
60056W        W60920   8.230   9.267  22.536 -0.0506  0.0250 -0.2297
60057W        W60921   7.496  11.230  19.752 -0.0598  0.0629  0.1368
60058W        W60922   8.675   8.710  18.550  0.0488  0.2086  0.2642
60059W        W60923  10.509   7.203  18.676  0.1564 -0.2062 -0.0388
60060W        W60924   6.989  10.728  22.054  0.3807  0.0869 -0.2067
60061W        W60925   6.006  10.764  20.345  0.0912  0.0310 -0.1258
60062W        W60926  10.315   7.276  18.263  0.0819 -0.1141  0.0304
60063W        W60927   9.517   8.408  18.697 -0.1777  0.0064 -0.0368
60064W        W60928   7.040   8.606  18.171 -0.2262 -0.0445 -0.1504
60065W        W60929   8.004   9.530  17.732  0.1630 -0.1787  0.0067
60066W        W60930   9.227   9.789  21.692 -0.0629  0.0877 -0.1604
60067W        W60931   6.182   9.122  16.942  0.1806 -0.0796  0.1429
60068W        W60932   9.080   9.951  19.568 -0.1033 -0.0404 -0.0730
60069W        W60933   7.463   7.843  22.258  0.0301  0.2644 -0.2898
60070W        W60934   9.187   6.754  16.355 -0.0275 -0.3154  0.0226
60071W        W60935   8.923   9.434  21.374  0.0415 -0.1276  0.3151
60072W        W60936   9.516   9.064  20.679  0.0412  0.2835 -0.0995
60073W        W60937   6.700  11.748  18.661 -0.0859  0.1408 -0.1378
60074W        W60938   7.606   9.809  18.681  0.0906 -0.0235 -0.2783
60075W        W60939   7.227   6.428  21.830  0.0841  0.0873  0.0369
60076W        W60940  11.083  10.469  22.497  0.1908  0.0318  0.1231
60077W        W60941  11.144   8.204  22.937 -0.1564  0.1925  0.1125
60078W        W60942  11.650  10.640  17.882  0.2141 -0.1199  0.2487
60079W        W60943   9.698  11.792  21.312 -0.1691  0.2823 -0.1695
60080W        W60944  10.883  10.582  20.570 -0.1611 -0.0228  0.1230
60081W        W60945   7.648   6.687  18.498  0.0822  0.1144 -0.2164
60082W        W60946   8.332   7.840  20.928 -0.0510  0.0490  0.2211
60083W        W60947   5.862   9.895  22.497 -0.1897  0.0528 -0.0763
60084W        W60948   7.566   9.657  16.877  0.0849  0.0866  0.0870
60085W        W60949   9.069   9.344  22.264  0.0924  0.0121 -0.0060
60086W        W60950   8.455   5.961  18.160 -0.1813 -0.0736  0.2221
60087W        W60951   7.260   8.708  20.304  0.3233 -0.1788  0.1888
60088W        W60952   5.390   9.206  20.874  0.0146 -0.0987  0.1026
60089W        W60953   4.786  11.561  19.822 -0.0773 -0.2496  0.0082
60090W        W60954   7.287   7.816  19.966 -0.0866  0.0595  0.2051
60091W        W60955  11.378   7.427  18.094 -0.1192  0.0778  0.2239
60092W        W60956   9.305   9.288  20.222  0.1043  0.0708  0.2665
60093W        W60957   7.418  11.185  20.956  0.2176  0.4650 -0.1849
60094W        W60958   7.870   9.681  20.496  0.0434  0.0412  0.1076
60095W        W60959  10.156  10.355  18.062  0.1374  0.0366  0.3553
60096W        W60960   5.923  10.842  19.327 -0.3186 -0.0074 -0.2289
60097W        W60961   8.507  11.127  20.164  0.4148 -0.0609 -0.5479
60098W        W60962   5.350   9.647  20.511  0.2691 -0.3674 -0.0647
60099W        W60963   9.296   9.293  21.789 -0.0489  0.0319  0.2928
60100W        W60964   9.219   6.132  18.579 -0.3095 -0.0563  0.0677
60101W        W60965   5.010  10.664  16.065  0.3661 -0.2000  0.0209
60102W        W60966   8.749   9.570  19.286  0.3327 -0.2462 -0.1381
60103W        W60967   6.334   8.365  17.066  0.2281 -0.0478 -0.0905
60104W        W60968   8.445   9.894  21.486  0.1801  0.1754  0.2788
60105W        W60969   8.544   8.776  21.245  0.2280 -0.0918  0.2127
60106W        W60970  11.461  10.856  21.122 -0.1611 -0.4272  0.0228
60107W        W60971   8.454   9.329  21.347  0.1173 -0.0496  0.2380
60108W        W60972  13.325   8.695  21.788  0.0631 -0.0699  0.2969
60109W        W60973  11.777   9.954  21.563 -0.1350 -0.1944  0.1379
60110W        W60974   6.009  10.455  14.797 -0.2694  0.0147 -0.1018
60111W        W60975  12.926   8.080  20.707  0.1257  0.2140 -0.3318
60112W        W60976   5.659   9.614  20.941 -0.0637 -0.0873 -0.4913
60113W        W60977   9.180   7.745  17.692 -0.2897 -0.0894 -0.2649
60114W        W60978   9.437  10.250  18.578 -0.2404  0.0565  0.1616
60115W        W60979  10.367   7.270  20.638  0.2532  0.1310 -0.0106
60116W        W60980   7.143   7.677  15.509  0.0030  0.1092 -0.1692
60117W        W60981   8.988  10.131  23.535  0.0782 -0.0538  0.3162
60118W        W60982   9.262   9.151  22.858  0.2473 -0.0898 -0.0071
60119W        W60983   7.397  10.088  19.646  0.2247 -0.1894 -0.2206
60120W        W60984   7.874   9.819  21.815 -0.0368 -0.0807 -0.1023
60121W        W60985   5.454  10.021  20.107  0.0124  0.0436 -0.1603
60122W        W60986   6.485   9.903  19.919  0.1332 -0.5392  0.1203
60123W        W60987   7.681   7.414  18.009 -0.1801 -0.0770  0.0454
60124W        W60988  10.272   9.124  21.973 -0.0199  0.0330  0.2606
60125W        W60989   7.479   4.794  15.592 -0.1270 -0.2061 -0.2777
60126W        W60990   9.589   9.903  22.410 -0.0648  0.2975 -0.0574
60127W        W60991   9.955  10.067  21.545 -0.2674  0.2983 -0.2000
60128W        W60992  11.118  10.820  18.078  0.0774  0.2069 -0.1582
60129W        W60993   8.047  10.250  16.218 -0.0296 -0.0485  0.0046
60130W        W60994   8.059   9.151  22.031 -0.2476  0.0289  0.1574
60131W        W60995   6.970  10.487  22.508 -0.3354  0.2138  0.3412
60132W        W60996   8.001   9.855  25.061  0.2349 -0.0504  0.1972
60133W        W60997   9.577   9.928  20.046  0.1159 -0.0844 -0.0104
60134W        W60998   7.696   8.763  21.215  0.3016  0.0308 -0.0538
60135W        W60999   9.957   9.043  22.394 -0.0044 -0.1834 -0.0697
60136W        W61000   6.474  10.927  20.576 -0.0790  0.1154  0.0114
60137W        W61001   8.546   8.228  18.331 -0.2415  0.0704  0.3100
60138W        W61002   9.564   9.353  22.283  0.0733  0.0706  0.4045
60139W        W61003   8.857   8.378  22.537  0.1084 -0.2236  0.2257
60140W        W61004  10.488   9.853  20.519 -0.2139  0.0401 -0.3781
60141W        W61005   8.807  10.069  21.758 -0.0766  0.1671  0.1938
60142W        W61006  10.093   7.736  17.817  0.0441  0.0333 -0.1288
60143W        W61007   9.450   5.011  18.619 -0.0402 -0.0116  0.0816
60144W        W61008   7.764   8.157  21.744 -0.2411  0.2671  0.2645
60145W        W61009   9.485   6.544  18.389 -0.2557  0.2630  0.2494
60146W        W61010   7.971  10.697  17.582  0.0569 -0.1180 -0.0608
60147W        W61011   9.270  10.193  20.434 -0.2677  0.4154  0.1357
60148W        W61012  10.648   8.381  20.924 -0.0352  0.0436 -0.1313
60149W        W61013   8.879   7.583  19.817 -0.0591 -0.3023 -0.1524
60150W        W61014   9.384   8.458  21.730 -0.2882  0.0780  0.1635
60151W        W61015   7.540  10.705  21.181 -0.1507 -0.2247  0.1508
60152W        W61016   7.250   6.610  23.124  0.0844  0.1052  0.0757
60153W        W61017   7.505   8.330  20.878  0.0532  0.0839 -0.2369
60154W        W61018   5.092   8.500  19.500  0.3550  0.1386 -0.1469
60155W        W61019   8.245   9.182  20.250 -0.2490 -0.0378 -0.1107
60156W        W61020   6.716   7.808  19.464  0.1824 -0.0062 -0.0600
60157W        W61021   9.779  10.813  19.877 -0.2595  0.2593  0.2956
60158W        W61022   8.620  11.448  21.474 -0.0473 -0.2105  0.0453
60159W        W61023  11.003   7.917  21.651 -0.2897 -0.0976 -0.3656
60160W        W61024  11.008   9.861  19.903 -0.1058  0.0314 -0.0395
60161W        W61025   9.288  10.314  19.894 -0.1248  0.0722  0.2674
60162W        W61026  10.554   9.443  21.499  0.0700  0.0614  0.0478
60163W        W61027   9.744   9.319  18.922 -0.0164  0.0238  0.3966
60164W        W61028   9.564   6.954  21.560 -0.3227 -0.2002 -0.0859
60165W        W61029   5.641   8.982  20.443 -0.2474 -0.0841  0.1804
60166W        W61030  10.697   5.702  21.563 -0.2816 -0.1784 -0.0483
60167W        W61031  10.931  10.134  20.744 -0.1608  0.2197 -0.1383
60168W        W61032   7.775  11.521  21.071  0.0096  0.0618  0.0015
60169W        W61033   9.041   7.912  22.381  0.1384 -0.0227 -0.0725
60170W        W61034   6.691  12.426  21.314 -0.0956  0.0088  0.0586
60171W        W61035   8.777   9.803  26.290 -0.0230 -0.0026  0.0342
60172W        W61036   8.821   9.560  18.234 -0.3099 -0.1752 -0.1013
60173W        W61037   7.039   9.832  18.622 -0.1310  0.2322 -0.0455
60174W        W61038   7.643  13.371  21.959  0.0972  0.6416 -0.0249
60175W        W61039   7.361   8.821  23.451  0.1300 -0.0866 -0.1814
60176W        W61040   9.151   7.702  21.348  0.2426  0.2146 -0.0879
60177W        W61041  11.223   9.235  25.204 -0.1685 -0.1638  0.0610
60178W        W61042  10.741  11.418  21.306  0.2117 -0.1470  0.5122
60179W        W61043   6.621  10.306  23.293  0.1000 -0.0998  0.0149
60180W        W61044   7.312  10.505  20.101  0.0137 -0.2208  0.2250
60181W        W61045   9.458   9.217  23.603  0.0886  0.0972  0.3366
60182W        W61046   8.254  11.165  24.269  0.1961 -0.3167 -0.0285
60183W        W61047   6.400   7.646  25.643  0.0819 -0.0845 -0.1405
60184W        W61048   8.788   9.095  21.728  0.0828  0.3125  0.1895
60185W        W61049   9.708   9.632  23.646 -0.1336 -0.0482  0.1017
60186W        W61050   7.809   7.693  21.987 -0.0926  0.3412  0.1086
60187W        W61051  10.249  11.862  26.001  0.2592  0.1463  0.2311
60188W        W61052   6.735   8.565  22.015 -0.1936 -0.2170 -0.3131
60189W        W61053   9.745  11.669  25.869 -0.1394  0.0165  0.0425
60190W        W61054   9.586  11.138  21.344 -0.1074  0.2813 -0.0755
60191W        W61055   8.199   9.390  24.957  0.2083 -0.1579  0.0640
60192W        W61056   9.996  10.239  22.885  0.2729  0.0620 -0.1147
60193W        W61057  13.443   6.583  25.045  0.1359  0.1138 -0.0236
60194W        W61058  10.055   8.815  23.523  0.0427  0.2112 -0.3548
60195W        W61059   9.549  10.404  23.002  0.0246  0.1676  0.1053
60196W        W61060   8.564   7.962  22.090 -0.4150  0.2592 -0.1557
60197W        W61061   7.504  11.156  23.400 -0.1617 -0.1074  0.1644
60198W        W61062   5.885   8.709  22.654  0.1271 -0.0137  0.0758
60199W        W61063   6.335  11.498  25.311 -0.2368  0.4476 -0.2309
60200W        W61064   8.709   8.789  25.322  0.0102 -0.1180 -0.1806
60201W        W61065   8.854  10.363  22.168  0.0210  0.1028  0.0914
60202W        W61066   7.668  11.198  25.288 -0.0514  0.0417 -0.0532
60203W        W61067   8.776  10.008  26.826 -0.0249 -0.2043  0.0096
60204W        W61068   8.393   8.921  24.925 -0.2386 -0.0703  0.0358
60205W        W61069  11.128  10.185  23.765  0.0979 -0.1500  0.1013
60206W        W61070   9.602   9.038  24.674  0.0296 -0.3933  0.0713
60207W        W61071  11.456   8.495  23.168 -0.0745  0.0482 -0.0050
60208W        W61072   7.567   8.642  24.475  0.3059 -0.2163  0.0999
60209W        W61073  10.569   9.423  26.742  0.0796  0.1156 -0.2113
60210W        W61074   8.546   7.822  22.602  0.3713 -0.3676 -0.0001
60211W        W61075   9.798   9.719  24.245 -0.1794  0.0049 -0.1417
60212W        W61076   9.108   9.874  22.219 -0.1431  0.2946 -0.1010
60213W        W61077   9.960   7.942  22.520 -0.3201 -0.1518  0.1319
60214W        W61078  11.732   8.608  22.118  0.3208  0.0721  0.0976
60215W        W61079  11.472   8.371  27.680  0.1376 -0.0208 -0.2827
60216W        W61080  12.704  10.556  24.415  0.0122 -0.1405 -0.1101
60217W        W61081  12.783   8.733  20.064  0.1177  0.0186  0.0133
60218W        W61082   7.395  13.146  21.450 -0.0529  0.0704 -0.1486
60219W        W61083   9.232  10.229  22.635 -0.4826  0.3303 -0.1095
60220W        W61084   8.488   8.897  24.031 -0.1070  0.0057  0.1432
60221W        W61085  11.681   8.759  22.856  0.3557 -0.1351  0.1483
60222W        W61086   7.422   8.249  21.376 -0.1283 -0.0049 -0.0275
60223W        W61087  11.404   9.689  21.348 -0.1384  0.0245  0.0021
60224W        W61088   8.623   9.998  25.546  0.0740  0.1418 -0.3572
60225W        W61089   8.439   8.777  22.587 -0.5060 -0.2124 -0.2483
60226W        W61090  11.238   8.628  22.023 -0.3121 -0.0803  0.0331
60227W        W61091  12.043   9.495  21.533 -0.3044  0.2584 -0.1045
60228W        W61092   7.835   8.023  21.131  0.3482 -0.1891 -0.2933
60229W        W61093   6.176  12.215  20.810  0.2088 -0.1135  0.2489
60230W        W61094   8.610   9.821  23.290 -0.1207 -0.1985 -0.1586
60231W        W61095   9.740   8.886  22.803 -0.0969  0.0200  0.1962
60232W        W61096   7.521   9.043  24.190  0.1346 -0.2894  0.0364
60233W        W61097   9.396   9.173  21.214 -0.1599 -0.2134  0.0204
60234W        W61098  12.908  11.545  23.908  0.4241  0.0282  0.0432
60235W        W61099   9.473   9.998  24.000 -0.1684  0.1032 -0.0059
60236W        W61100   7.631  11.675  25.292 -0.1102  0.3105  0.0881
60237W        W61101   8.331   9.940  21.989  0.1576 -0.0891 -0.1284
60238W        W61102   5.680   7.155  23.161  0.0104  0.0115 -0.1841
60239W        W61103  12.128   7.462  27.097  0.2337 -0.4817  0.1784
60240W        W61104   6.703   9.600  21.043  0.1876 -0.1829 -0.1306
60241W        W61105   8.368  10.378  21.683 -0.0289 -0.1695  0.1687
60242W        W61106   8.555   9.717  22.812 -0.0453  0.2559 -0.0334
60243W        W61107   7.307  11.023  24.510  0.0875 -0.0911 -0.2391
60244W        W61108  10.425  10.412  23.417  0.0871  0.0713 -0.0726
60245W        W61109  10.002   6.419  25.174 -0.0208  0.2681 -0.1892
60246W        W61110  11.508  10.389  21.371 -0.0730  0.0208  0.1386
60247W        W61111   9.369   7.551  23.519 -0.1261 -0.0755 -0.1880
60248W        W61112  12.680   8.468  23.689  0.4167  0.2131  0.1599
60249W        W61113  11.873  11.595  23.007 -0.0081  0.0020 -0.2350
60250W        W61114   6.378   9.475  25.582 -0.1608 -0.0041  0.0814
60251W        W61115   6.758   9.366  23.603 -0.0404 -0.3364  0.0961
60252W        W61116   6.772   8.240  24.233  0.1659 -0.0363 -0.2081
60253W        W61117  11.623   8.633  25.121 -0.1121  0.1949 -0.0734
60254W        W61118   7.692   7.763  24.228 -0.2452 -0.1634 -0.0632
60255W        W61119   5.356  12.102  24.237  0.2328 -0.1614 -0.1316
60256W        W61120   8.322   8.314  22.529  0.0483  0.0700  0.1609
60257W        W61121   9.139   8.456  26.250  0.2665 -0.1432 -0.1919
60258W        W61122   8.813   8.570  24.165 -0.1916  0.0309 -0.0831
60259W        W61123  11.212   6.844  20.536  0.1020 -0.0200 -0.0156
60260W        W61124   9.790  10.057  24.637 -0.0313 -0.2679  0.0105
60261W        W61125   8.432   7.585  24.972  0.2100 -0.1801  0.0151
60262W        W61126  10.857   9.544  25.043 -0.0843  0.1444 -0.1112
60263W        W61127  10.368   9.313  24.161 -0.1019 -0.0302 -0.1563
60264W        W61128   9.293   6.951  20.888 -0.1821 -0.2170  0.1581
60265W        W61129  10.005  10.360  25.507 -0.0509 -0.1760  0.1472
60266W        W61130   9.744  10.380  23.857 -0.1360 -0.1047  0.1395
60267W        W61131   8.285   7.463  20.505 -0.1220 -0.0023 -0.1645
60268W        W61132   6.392   6.701  23.372 -0.1478 -0.2817  0.1818
60269W        W61133  11.570   6.508  22.167  0.0093  0.1073 -0.0936
60270W        W61134   8.948   8.564  19.944 -0.1106  0.2533 -0.0081
60271W        W61135   9.619   8.991  24.206 -0.0505 -0.0399  0.3459
60272W        W61136   9.742   6.813  21.073  0.1660  0.1515  0.1349
60273W        W61137  14.686   8.870  27.428  0.1348 -0.0329  0.3439
60274W        W61138   7.038  11.788  22.019 -0.0463  0.3115  0.0199
60275W        W61139   7.692  10.751  23.549 -0.0978  0.3422  0.1532
60276W        W61140   8.368   5.901  22.474  0.3152 -0.2354  0.0800
60277W        W61141  10.417  10.294  21.968  0.3408  0.0017  0.3336
60278W        W61142  12.670   7.756  25.304  0.2578  0.3377 -0.2280
60279W        W61143  11.348  10.907  22.085 -0.2749 -0.1426  0.1514
60280W        W61144   9.386  10.580  22.223 -0.3058  0.1220 -0.0964
60281W        W61145   9.695   8.630  25.073 -0.1890  0.2766  0.1413
60282W        W61146   9.181   6.552  21.743 -0.1446  0.1179  0.0081
60283W        W61147   6.754   8.098  22.493 -0.0832 -0.1052 -0.1563
60284W        W61148   7.647   8.409  23.071  0.2097 -0.0765 -0.1877
60285W        W61149   7.473  10.375  23.270 -0.1196  0.1549 -0.0242
60286W        W61150  11.375   8.086  23.858  0.0956  0.0250 -0.0384
60287W        W61151  10.758  10.807  23.455 -0.1729 -0.0522  0.0163
60288W        W61152  12.507   7.872  21.434 -0.1356  0.1099 -0.0911
60289W        W61153   9.147   9.328  24.552 -0.0432  0.1782  0.0016
60290W        W61154  10.823   9.003  26.837 -0.0647  0.0906  0.1799
60291W        W61155  10.542  10.515  24.301 -0.0241 -0.1275 -0.0138
60292W        W61156   9.729  10.438  22.508  0.1950  0.1213 -0.2502
60293W        W61157  10.011   7.352  22.471 -0.1332 -0.1698  0.3378
60294W        W61158  11.226   7.762  21.227 -0.0274 -0.0417  0.0201
60295W        W61159  12.463   9.329  22.539  0.2010 -0.1081  0.0983
60296W        W61160  10.403   9.438  23.275  0.0930  0.1272  0.1656
60297W        W61161   7.936   7.567  20.850  0.0771  0.2717 -0.0855
60298W        W61162  12.513   9.011  21.732  0.0895  0.2645 -0.0374
60299W        W61163  12.816   7.620  23.785  0.2318  0.0396 -0.2239
60300W        W61164   8.194   8.514  22.962  0.0852 -0.2300 -0.3606
60301W        W61165   9.954  10.791  25.259 -0.1034 -0.3494  0.0922
60302W        W61166  12.016   9.668  24.027  0.1370  0.3859  0.1902
60303W        W61167   7.210   8.763  22.880 -0.3515 -0.1497  0.0976
60304W        W61168   8.494   8.698  22.070  0.1004 -0.2423  0.1309
60305W        W61169  11.178   8.728  22.748 -0.1440  0.0369  0.0289
60306W        W61170  11.401  10.672  22.862 -0.2601 -0.0004 -0.1134
60307W        W61171  10.897   8.544  23.239 -0.1811  0.0191 -0.1049
60308W        W61172  10.915   8.443  23.846 -0.1527 -0.1069  0.0602
60309W        W61173   7.335   7.775  26.317 -0.0269 -0.0782  0.1519
60310W        W61174  10.636   7.754  23.894  0.1899  0.2025 -0.2680
60311W        W61175  11.123   7.372  25.115 -0.2507 -0.0418 -0.0818
60312W        W61176  10.891  11.857  22.187  0.0364  0.1643 -0.0243
60313W        W61177   9.596  10.630  21.721  0.2769  0.0484 -0.4588
60314W        W61178   4.350   5.558  23.523 -0.4542  0.2262 -0.0849
60315W        W61179  10.454   7.028  24.163  0.1318  0.1828 -0.2746
60316W        W61180   3.548  11.674  22.901  0.0382  0.0581  0.1252
60317W        W61181   6.730  11.012  23.301  0.1708 -0.0918  0.0013
60318W        W61182   7.398  12.436  23.643  0.0871  0.0132 -0.0246
60319W        W61183   9.154   8.812  20.929  0.0609 -0.3209 -0.2124
60320W        W61184   9.491   6.181  22.318 -0.0477  0.1055 -0.1055
60321W        W61185  11.003  12.365  21.572 -0.3431  0.1627  0.0545
60322W        W61186   8.119   9.016  21.157 -0.2798 -0.0182 -0.0458
60323W        W61187  10.151   9.134  22.849  0.0202  0.3765 -0.0210
60324W        W61188  13.665   9.728  25.557 -0.1558 -0.0480 -0.0924
60325W        W61189   7.047   9.977  22.462  0.2123  0.2370 -0.0862
60326W        W61190   5.784  11.882  24.106 -0.1165 -0.1910  0.2815
60327W        W61191   8.789   7.508  22.218  0.2480  0.0865  0.0284
60328W        W61192  12.084  10.305  26.591  0.0863 -0.0174  0.0859
60329W        W61193   8.431   7.258  23.372  0.0930 -0.1746  0.0380
60330W        W61194   7.313   9.830  25.758 -0.3044 -0.1701 -0.1304
60331W        W61195   8.580  10.912  21.673  0.2757  0.1073  0.2398
60332W        W61196   6.494   7.735  22.253  0.2723 -0.0745  0.1949
60333W        W61197   8.934   6.667  22.162  0.2034 -0.0205  0.0230
60334W        W61198  10.955   8.375  22.426 -0.0159 -0.0034  0.0148
60335W        W61199   6.273  10.976  25.499  0.0967  0.2885  0.0794
60336W        W61200   8.340   8.435  25.739  0.0104  0.0059  0.0303
60337W        W61201  10.678   9.788  23.601 -0.3175 -0.0495  0.2107
60338W        W61202   8.551   8.798  26.698 -0.0536  0.0571 -0.1824
60339W        W61203   5.814  11.973  20.590 -0.0335 -0.4255 -0.5676
60340W        W61204   6.049   7.977  23.845  0.0309 -0.1881  0.0093
60341W        W61205   7.645  11.134  21.472  0.0979 -0.1560 -0.0463
60342W        W61206   7.838  11.184  24.778  0.0906 -0.0865  0.3807
60343W        W61207   5.275  11.535  21.523  0.0600  0.2362  0.0734
60344W        W61208  12.574   9.180  24.261  0.1465 -0.1064 -0.1644
60345W        W61209  11.652   8.019  22.753  0.0042  0.1617  0.2542
60346W        W61210  10.993   8.086  23.503  0.2380 -0.0495 -0.1243
60347W        W61211  11.856   9.649  21.080 -0.1776 -0.2715 -0.0620
60348W        W61212  12.332   7.488  23.785  0.0615  0.3284 -0.0788
60349W        W61213   9.659  10.882  23.185  0.0561 -0.1097 -0.0041
60350W        W61214   4.582  10.441  23.642  0.0439 -0.1869  0.0508
60351W        W61215   9.420  10.334  26.197 -0.0186  0.1017 -0.1874
60352W        W61216   4.515   9.860  22.426  0.3177  0.1092  0.2177
60353W        W61217  10.523   8.399  24.588  0.1249 -0.1277 -0.0171
60354W        W61218   7.048  11.766  22.499  0.1062 -0.0219 -0.2812
60355W        W61219  14.015  11.258  22.711 -0.1531  0.3693  0.0470
60356W        W61220   8.703   8.395  21.588  0.2192  0.1743  0.1753
60357W        W61221   8.999   6.477  23.442 -0.0246 -0.3589  0.0067
60358W        W61222   8.265   7.164  20.912 -0.2330  0.1435  0.0518
60359W        W61223  12.492   8.040  23.875  0.0802 -0.0930  0.1719
60360W        W61224   8.359   5.329  21.526 -0.2861 -0.0518  0.1176
60361W        W61225   8.599   7.578  23.828 -0.1836  0.0920 -0.0270
60362W        W61226   8.219   8.837  23.581  0.0574 -0.1517  0.0176
60363W        W61227  10.490  11.455  24.286  0.1384 -0.0970 -0.1189
60364W        W61228   9.428   8.384  23.457 -0.1506 -0.0858 -0.1360
60365W        W61229   7.304  13.356  22.792  0.3506 -0.1818  0.0232
60366W        W61230   8.740   8.980  24.531 -0.2043  0.4908 -0.2361
60367W        W61231   6.523   9.432  25.045  0.0996 -0.2101 -0.2050
60368W        W61232   9.301   9.694  25.477  0.1598  0.0915 -0.3282
60369W        W61233  10.708   5.178  21.234 -0.1438 -0.0261  0.3184
60370W        W61234  11.484   9.973  20.924 -0.0814 -0.0880  0.0346
60371W        W61235   6.520   8.007  23.786  0.0681  0.1510  0.0026
60372W        W61236   6.205   9.050  22.912  0.1893 -0.1490  0.1356
60373W        W61237   8.924   8.330  22.092 -0.2430  0.1007 -0.1723
60374W        W61238   5.402   7.926  22.216 -0.3647  0.0603  0.1271
60375W        W61239  11.603   9.270  22.827  0.0932 -0.3573 -0.1648
60376W        W61240  10.100  11.233  22.999  0.2956 -0.1749 -0.1091
60377W        W61241   7.512   9.425  26.057  0.2059  0.1824  0.1515
60378W        W61242   7.306   7.136  24.591  0.3668 -0.1472 -0.0336
60379W        W61243   8.034   8.677  22.272  0.1837  0.3392 -0.2238
60380W        W61244   6.709   8.204  26.519  0.0303  0.3023  0.0192
60381W        W61245   9.140   6.581  24.772 -0.2026  0.0119 -0.3022
60382W        W61246   6.636  11.642  23.026  0.1358 -0.0298 -0.3283
60383W        W61247   6.743  11.206  21.212 -0.1133  0.1464  0.1719
60384W        W61248   9.215   9.388  26.243  0.2079 -0.0488  0.0879
60385W        W61249   7.967  11.069  23.213  0.0335  0.0267  0.4076
60386W        W61250   8.034  11.144  25.575  0.1949  0.2945 -0.0859
60387W        W61251  11.349   6.482  25.187  0.0664  0.0113 -0.0306
60388W        W61252  10.906   8.240  24.889 -0.0556 -0.2470 -0.1036
60389W        W61253  13.874   9.804  22.755 -0.0624 -0.1116 -0.0159
60390W        W61254  10.303   8.598  21.804 -0.1201  0.2213  0.2847
60391W        W61255  12.218  12.990  21.972 -0.2459  0.1310  0.1507
60392W        W61256  11.411   8.665  24.152  0.2789 -0.0152  0.2777
60393W        W61257   6.240   9.181  26.690  0.2348 -0.1209  0.3030
60394W        W61258  11.635   7.002  25.523  0.1670 -0.1397  0.4859
60395W        W61259  10.869   9.154  24.129 -0.0750 -0.2782 -0.3021
60396W        W61260   6.994  11.234  22.292  0.0439  0.3287 -0.0907
60397W        W61261   8.300   7.595  21.883 -0.2559  0.0192 -0.0258
60398W        W61262  13.389  11.456  22.005  0.1621  0.3450 -0.0749
60399W        W61263  10.723  10.920  28.483  0.1593 -0.1080 -0.1713
60400W        W61264   9.428   9.559  23.225  0.2465 -0.0388 -0.1456
60401W        W61265  12.060   7.715  25.755  0.1919  0.0767  0.2357
60402W        W61266   8.475  11.360  23.400  0.0522 -0.1189 -0.1109
60403W        W61267  13.331  10.582  22.642  0.1687  0.3020  0.0999
60404W        W61268   8.319   6.603  24.020  0.3177  0.2188  0.3097
60405W        W61269  10.656   9.558  22.792  0.0797  0.1348  0.0526
60406W        W61270   6.693  11.524  21.732  0.1357  0.1371 -0.0914
60407W        W61271   9.775   8.424  24.004  0.1782 -0.0316  0.3733
60408W        W61272   6.693  10.373  25.960 -0.2602  0.2534  0.1864
60409W        W61273   9.390   8.423  22.219 -0.0007  0.0368  0.2813
60410W        W61274   7.983   8.064  20.645  0.0168  0.0911  0.0542
60411W        W61275   9.516   6.518  24.321  0.1782 -0.0488  0.0859
60412W        W61276  11.253  10.107  24.265  0.2450 -0.0143  0.0622
60413W        W61277  10.262  10.742  28.244  0.0509 -0.4040 -0.2958
60414W        W61278   9.106  11.039  21.628  0.2360  0.0822 -0.1336
60415W        W61279   8.907  10.649  22.540  0.0203  0.0282 -0.1052
60416W        W61280   9.649   7.744  25.029 -0.0035 -0.0591 -0.0067
60417W        W61281   7.797   7.695  23.064 -0.0375 -0.1824  0.2298
60418W        W61282  11.572   7.320  24.922  0.0646  0.3321 -0.2341
60419W        W61283   7.277  11.280  18.393 -0.1021  0.3548 -0.0414
60420W        W61284  12.143   7.553  24.246  0.2748  0.0507 -0.1993
60421W        W61285   6.126  10.249  24.352  0.0967  0.1761  0.0060
60422W        W61286   8.930  11.267  23.514  0.0747  0.0350  0.1625
60423W        W61287   9.126   5.778  19.732 -0.2459  0.0291 -0.0811
60424W        W61288   5.651  10.493  20.133 -0.0676 -0.0395  0.1246
60425W        W61289  10.723  10.381  24.860 -0.1336 -0.3594 -0.0472
60426W        W61290  12.868  13.088  24.918 -0.0090 -0.1637 -0.3670
60427W        W61291   9.623   8.531  24.492 -0.0802 -0.0347 -0.0594
60428W        W61292   7.517   8.908  22.166 -0.0164  0.0537  0.0066
60429W        W61293  12.582   9.712  24.077 -0.1970  0.2570 -0.1050
60430W        W61294   9.489   7.615  22.553  0.0376  0.2386 -0.1336
60431W        W61295   6.884   9.815  24.793  0.1393  0.0506 -0.0288
60432W        W61296  10.585  12.317  21.882  0.1941  0.1055 -0.1842
60433W        W61297  10.134   9.697  22.765 -0.3025 -0.0602 -0.1384
60434W        W61298   6.809   8.780  23.334 -0.0229 -0.0507  0.3247
60435W        W61299   8.130   6.818  23.154 -0.1963 -0.1024  0.1216
60436W        W61300  10.020  10.747  22.774  0.0157  0.1150  0.2814
60437W        W61301  11.389  10.207  26.079  0.1458  0.1568 -0.0976
60438W        W61302  10.515  12.120  20.793  0.1454  0.0124  0.0775
60439W        W61303   7.883  11.627  27.106 -0.0172  0.0656  0.0685
60440W        W61304   6.274   8.775  19.920 -0.0701  0.0947 -0.1088
60441W        W61305  10.192   9.677  24.629 -0.2172  0.2768  0.0787
60442W        W61306   6.979   9.353  27.095 -0.3595  0.1718 -0.0043
60443W        W61307  12.264   8.158  22.048  0.0556 -0.0299  0.0365
60444W        W61308   5.635  12.187  19.601  0.0740 -0.0825 -0.1392
60445W        W61309   8.784  10.174  22.743  0.1323 -0.0438 -0.1357
60446W        W61310   7.862   8.442  23.574 -0.0255 -0.0701  0.2088
60447W        W61311   6.730   6.344  22.332  0.3741  0.0724 -0.3178
60448W        W61312  11.354  11.486  25.915  0.1312 -0.0135 -0.0579
60449W        W61313   9.298   6.613  23.820 -0.1502 -0.0864 -0.1327
60450W        W61314   7.611  10.987  27.109 -0.0178 -0.1642 -0.0358
60451W        W61315   9.771   7.313  23.455 -0.1521  0.1968  0.1648
60452W        W61316   6.811  10.531  21.574  0.0340  0.0469 -0.2043
60453W        W61317   8.435  10.925  23.143 -0.0002 -0.0551 -0.0236
60454W        W61318   9.444   7.984  23.796  0.2092 -0.1300 -0.0561
60455W        W61319   8.111   6.622  20.772 -0.1451  0.2344  0.1464
60456W        W61320   5.574  11.625  19.857 -0.2598  0.0169  0.3032
60457W        W61321   7.764  12.685  22.221  0.0684 -0.0723 -0.1544
60458W        W61322   7.930   9.909  21.293 -0.1159 -0.1427  0.3686
60459W        W61323  10.304  10.587  26.949  0.0516  0.0948 -0.1194
60460W        W61324   8.364   8.012  21.560 -0.0136 -0.1919  0.1636
60461W        W61325   5.180  11.940  24.899 -0.1284  0.0768 -0.0415
60462W        W61326  12.441   8.382  22.816 -0.2413 -0.0493  0.1354
60463W        W61327  11.605  10.441  21.827 -0.0760 -0.0458 -0.0285
60464W        W61328   7.722   9.334  23.442  0.0210  0.0739  0.3158
60465W        W61329   8.459  10.375  23.236  0.1015  0.1604  0.0427
60466W        W61330  12.543   6.655  24.079 -0.2289 -0.2853 -0.2003
60467W        W61331   5.101  11.222  23.323  0.1105 -0.0024  0.1423
60468W        W61332   5.530  10.747  20.549 -0.1949  0.1736  0.1528
60469W        W61333   8.618   9.679  25.049 -0.1570  0.0347 -0.0210
60470W        W61334   8.624   9.641  20.984  0.1584 -0.0601 -0.3259
60471W        W61335  14.019   8.778  23.916  0.1873 -0.0098  0.0042
60472W        W61336  10.861   9.197  23.331  0.0657 -0.2120 -0.0305
60473W        W61337   7.308   9.307  23.757 -0.1367 -0.0703 -0.0946
60474W        W61338   6.345  11.600  21.320  0.0113  0.0707  0.0260
60475W        W61339   9.264   7.446  26.422  0.0343  0.2161  0.0981
60476W        W61340  10.014  11.791  25.427  0.5420  0.1096 -0.5048
60477W        W61341  10.374   9.805  24.139  0.0961  0.1298  0.3177
60478W        W61342   7.726   8.819  20.173 -0.1609  0.1739  0.4596
60479W        W61343  11.308   9.976  23.329 -0.0194  0.0306 -0.2802
60480W        W61344  10.663  10.877  26.614 -0.1635  0.1198 -0.1145
60481W        W61345   9.179   8.175  21.403  0.2160  0.0979 -0.1521
60482W        W61346   7.870  10.193  22.210  0.2849  0.1586 -0.0317
60483W        W61347   8.657   9.178  23.599 -0.0334  0.0013 -0.0804
60484W        W61348   8.954   8.875  22.441 -0.0484 -0.0375 -0.0924
60485W        W61349   6.829  11.080  26.384  0.1918 -0.0406 -0.1885
60486W        W61350   9.256   8.281  24.206  0.0561 -0.2970  0.4124
60487W        W61351   9.704  11.145  22.679  0.2487 -0.0746 -0.0582
60488W        W61352   5.569  11.510  21.906 -0.0097  0.0464  0.3560
60489W        W61353   8.686   8.687  23.522  0.2033  0.0933 -0.1398
60490W        W61354   6.636   9.414  20.599  0.3038  0.1857 -0.0585
60491W        W61355  11.315  11.484  23.596 -0.1491 -0.1461 -0.2283
60492W        W61356   9.299  10.870  24.624  0.0288 -0.0955 -0.3577
60493W        W61357   8.561   7.753  23.207  0.3308  0.2058 -0.1315
60494W        W61358   5.936  11.137  21.789 -0.2092 -0.0607 -0.2321
60495W        W61359  11.118  13.210  23.113  0.0761  0.0902  0.0368
60496W        W61360   8.215   8.407  26.805 -0.0964  0.2733 -0.1909
60497W        W61361   9.449   6.976  24.104 -0.0510  0.1948  0.1702
60498W        W61362   8.161   9.645  23.343  0.1061 -0.0666 -0.2155
60499W        W61363   9.908   9.249  23.310 -0.0939 -0.0430  0.0334
60500W        W61364   9.673   7.581  23.057 -0.2319  0.0999 -0.0907
60501W        W61365   6.047   7.514  21.481 -0.0250 -0.0200 -0.1475
60502W        W61366   7.821   7.756  25.653  0.0604  0.2017 -0.1013
60503W        W61367   6.598   9.466  23.115 -0.0585  0.3096  0.2779
60504W        W61368  11.121   9.207  25.837 -0.1650  0.1828  0.0309
60505W        W61369  10.441   8.865  23.207 -0.0801 -0.0319  0.4089
60506W        W61370  12.864  11.875  24.283 -0.2034 -0.0408 -0.0443
60507W        W61371   8.164  10.297  25.470 -0.1151 -0.1014 -0.0172
60508W        W61372  10.799   8.475  25.402  0.0401  0.4194 -0.1711
60509W        W61373  11.039   8.885  26.317  0.0015 -0.2754  0.1259
60510W        W61374   7.825   9.506  24.123  0.1871  0.1196 -0.0459
60511W        W61375   9.347  10.487  23.453 -0.0671 -0.1464 -0.1057
60512W        W61376   6.119   8.864  21.253  0.0326  0.0615 -0.2269
60513W        W61377   9.412   6.982  20.336  0.2167  0.0387  0.0744
60514W        W61378   7.739  12.360  22.703  0.1918 -0.0949  0.1151
60515W        W61379   8.883   6.626  22.770  0.2058  0.1630 -0.0067
60516W        W61380   7.612   7.563  26.738 -0.1320 -0.1361  0.3756
60517W        W61381   6.339   8.241  22.748  0.2206  0.0956  0.4052
60518W        W61382  10.676   9.543  24.568 -0.1140 -0.2350  0.2373
60519W        W61383   8.644  10.475  24.023  0.1023  0.2370  0.2475
60520W        W61384   8.335   9.622  24.187 -0.0118  0.1226 -0.1138
60521W        W61385   6.870   7.686  25.873  0.2490 -0.0364 -0.1301
60522W        W61386   7.787  10.073  22.687  0.0980  0.0115 -0.2383
60523W        W61387   7.725  10.250  25.169 -0.0105  0.1901  0.1825
60524W        W61388  10.296  11.074  22.360 -0.0195 -0.1789 -0.2381
60525W        W61389  10.387   8.113  21.611  0.3211  0.1314  0.0234
60526W        W61390  10.764  10.072  24.356 -0.1695  0.1485 -0.0930
60527W        W61391   8.822   6.943  23.134 -0.0622  0.2973 -0.0429
60528W        W61392   6.794  11.149  22.814 -0.0272 -0.1896 -0.0366
60529W        W61393  11.429   8.401  22.490 -0.3747 -0.0288  0.0041
60530W        W61394   7.585   9.658  25.314  0.2432  0.3658 -0.1125
60531W        W61395   9.377   7.977  23.141  0.1789 -0.1864  0.2280
60532W        W61396   9.707   9.523  24.764  0.2926 -0.2650  0.0246
60533W        W61397  11.194  10.254  22.066 -0.0700 -0.4622 -0.2222
60534W        W61398   8.395   6.993  22.738  0.0033  0.0743  0.0901
60535W        W61399  11.082   9.441  23.727  0.3613 -0.4597  0.2101
60536W        W61400   7.249   8.960  25.946 -0.0658 -0.1400 -0.0098
60537W        W61401   8.416   8.267  19.886  0.3586 -0.0156 -0.1239
60538W        W61402   9.553  10.414  24.324  0.0562 -0.0634  0.0031
60539W        W61403  10.162  10.046  23.627  0.3264 -0.1267  0.2708
60540W        W61404  11.340   9.605  25.556 -0.0043  0.1827  0.0841
60541W        W61405  12.228   7.526  23.015  0.2336 -0.1110 -0.1880
60542W        W61406  10.427   7.258  22.805  0.2738 -0.1026  0.0020
60543W        W61407  14.645   7.396  24.890 -0.0215 -0.1477  0.1636
60544W        W61408   6.462   6.767  22.431  0.2591 -0.1358  0.1605
60545W        W61409  10.223  10.581  22.343  0.1226 -0.0964  0.1031
60546W        W61410   9.655   9.753  21.935 -0.1453 -0.2752 -0.1024
60547W        W61411  11.095   9.903  24.751  0.0349 -0.0528  0.0922
60548W        W61412   8.724   9.252  22.691 -0.0370  0.1234 -0.0247
60549W        W61413  11.092   8.953  23.743 -0.3776 -0.0657 -0.0509
60550W        W61414  10.857   9.725  24.055  0.0685  0.0294 -0.0683
60551W        W61415   9.754   9.039  25.493 -0.0545  0.1943 -0.3256
60552W        W61416  11.442   8.923  22.368  0.0178 -0.0271  0.3272
60553W        W61417   6.227   7.941  24.858  0.0406 -0.2274 -0.0847
60554W        W61418  10.854  10.627  22.944 -0.0700 -0.2547 -0.0713
60555W        W61419   8.011  10.677  22.441  0.0772 -0.0958  0.0333
60556W        W61420   7.093  10.571  26.324 -0.1105  0.1857  0.2222
60557W        W61421   8.621  10.174  24.996 -0.0253  0.1551  0.0785
60558W        W61422   8.433  11.397  25.653  0.1208  0.0982  0.0722
60559W        W61423   9.468   8.891  26.461  0.0995 -0.0568 -0.2115
60560W        W61424  12.849   9.114  21.155 -0.4626  0.1683  0.4990
60561W        W61425   7.646  11.521  23.064 -0.0997  0.0120 -0.0201
60562W        W61426   9.446   8.770  23.801  0.0583  0.0371  0.2146
60563W        W61427  11.790   9.824  25.676 -0.0946  0.0221  0.0020
60564W        W61428  11.544   8.519  23.684 -0.1514  0.0473 -0.0901
60565W        W61429   9.192  10.416  23.919 -0.1052 -0.2266  0.1670
60566W        W61430  10.035   7.932  24.000 -0.1150  0.1590 -0.2079
60567W        W61431   8.099   7.960  22.301  0.0196  0.1258  0.2412
60568W        W61432   9.924  11.060  24.816  0.1278  0.2836 -0.0933
60569W        W61433   7.309   8.231  24.385 -0.0093  0.0783  0.1348
60570W        W61434   9.081   9.808  20.723 -0.0712  0.2026 -0.0980
60571W        W61435   8.920   7.386  23.359  0.5109  0.0240  0.0233
60572W        W61436   8.715  11.296  21.976  0.0487 -0.0895  0.0506
60573W        W61437   8.131   6.278  22.197  0.3847  0.2834  0.3093
60574W        W61438   6.494  10.284  28.855  0.0402 -0.3128  0.0209
60575W        W61439   6.279  10.648  28.609  0.0157 -0.1886 -0.0914
60576W        W61440  11.061  11.303  24.587  0.0718 -0.1377  0.0451
60577W        W61441   9.007  13.037  27.274 -0.0861  0.1262  0.1842
60578W        W61442   9.554  11.966  25.182  0.2551 -0.0191  0.0040
60579W        W61443   9.353   9.274  25.760  0.1631 -0.0110 -0.0719
60580W        W61444   9.134   9.674  24.965 -0.0297 -0.0806 -0.2841
60581W        W61445   9.186  10.582  25.479 -0.2440  0.0334  0.0035
60582W        W61446   6.497   8.946  28.162 -0.1893 -0.1207 -0.0371
60583W        W61447   5.754  10.461  27.036  0.0218 -0.1025  0.3383
60584W        W61448   6.898   6.716  27.707  0.1616 -0.1717  0.1706
60585W        W61449  10.180   7.439  26.787  0.0503 -0.0717  0.1838
60586W        W61450  11.344   9.186  26.570 -0.2059  0.1199 -0.2428
60587W        W61451  10.790   6.527   0.720  0.1837 -0.1454 -0.0912
60588W        W61452   8.873   8.767  27.703  0.2422 -0.0384 -0.3578
60589W        W61453   5.658  11.459  27.755 -0.2106  0.0292  0.0726
60590W        W61454  11.386   9.193  24.051 -0.1585  0.0162  0.2632
60591W        W61455   7.782   8.007  26.474 -0.0347 -0.0408 -0.0062
60592W        W61456   7.433   8.519  25.805  0.0009 -0.0103 -0.0031
60593W        W61457  10.074   7.645  27.280  0.0699  0.2374  0.0638
60594W        W61458   9.443   8.141  28.061  0.1277 -0.0781  0.2298
60595W        W61459   7.163   8.606  28.130 -0.2490 -0.0338 -0.2999
60596W        W61460   7.072  10.786  27.600 -0.0318  0.0728 -0.0145
60597W        W61461   6.923   9.780  28.626  0.0821  0.3473  0.0031
60598W        W61462   7.585  10.675  25.476  0.0214 -0.0933  0.1163
60599W        W61463   7.083   9.421   0.209 -0.0542  0.3140  0.0354
60600W        W61464   9.448  10.241  28.843 -0.1217  0.0667  0.1510
60601W        W61465  11.135  10.843  25.754  0.1311  0.2929  0.0923
60602W        W61466   7.275  10.460  25.852 -0.1483  0.1784  0.0272
60603W        W61467   8.938  10.265  26.416 -0.1297 -0.2731  0.1900
60604W        W61468   7.350   8.270  25.399 -0.2088  0.5046 -0.1132
60605W        W61469   9.192  11.169  29.116  0.1453 -0.0683  0.1578
60606W        W61470   6.462   9.909  28.345 -0.0915 -0.3600  0.0126
60607W        W61471   8.806   8.763  28.260 -0.2391  0.1405 -0.1245
60608W        W61472   6.532   7.797  27.498  0.1943 -0.1917  0.1650
60609W        W61473  10.863  12.802   0.457 -0.1663  0.1075  0.1433
60610W        W61474   6.949   7.799  26.617 -0.1772  0.1204 -0.1709
60611W        W61475   8.085   8.162  27.873 -0.0088  0.1028 -0.1381
60612W        W61476  11.492  10.352  25.565  0.0087 -0.1011  0.0533
60613W        W61477  10.934   6.565  28.942 -0.2182  0.1125 -0.0453
60614W        W61478   9.741   8.196  25.851  0.2887  0.0042 -0.1695
60615W        W61479   8.720   9.988  27.866  0.1506 -0.0138  0.0267
60616W        W61480   5.909   8.878   0.666 -0.2138 -0.1988  0.0462
60617W        W61481  12.670  10.805  25.703  0.0047 -0.1262  0.1583
60618W        W61482   7.312  10.709   0.074 -0.0479  0.0900  0.0709
60619W        W61483   4.502  10.874  25.780  0.1070 -0.0851  0.1911
60620W        W61484   8.847   7.941   0.452 -0.0312  0.1752  0.0151
60621W        W61485  10.362   8.449  28.890  0.0563  0.2609 -0.2372
60622W        W61486  11.326   9.401  28.371 -0.0676  0.1926 -0.1105
60623W        W61487   8.912  11.233  25.975 -0.4154  0.0393  0.0586
60624W        W61488   6.776   6.933  26.861  0.1898 -0.3313  0.0756
60625W        W61489  10.617   8.775  24.034 -0.0660 -0.1904  0.1859
60626W        W61490   7.275   9.024  27.480 -0.0338 -0.0213 -0.0212
60627W        W61491   7.296   8.602  26.269 -0.0429 -0.3087  0.2019
60628W        W61492   8.584   9.493  25.819  0.1643  0.1001  0.1561
60629W        W61493   9.112  10.558  24.967  0.1086  0.0021  0.2266
60630W        W61494   8.241   7.747  26.324  0.0117  0.1435 -0.1461
60631W        W61495   8.986   7.261  26.893 -0.1132  0.0535 -0.2820
60632W        W61496   6.737   8.600  27.882 -0.1999 -0.1475  0.1292
60633W        W61497   9.418  12.481  25.372 -0.0481 -0.0348 -0.1610
60634W        W61498  12.379  10.453  23.464 -0.1188  0.0027  0.1091
60635W        W61499   7.632  11.981  28.140  0.0621 -0.1776  0.2640
60636W        W61500   6.026   9.358  27.142  0.1283 -0.1014  0.0913
60637W        W61501   7.917   9.345  28.190 -0.3148 -0.0504  0.3754
60638W        W61502   9.642   7.719  28.490 -0.0029  0.0016 -0.1336
60639W        W61503  11.123   5.751  27.129  0.1905  0.0856 -0.3157
60640W        W61504   5.871   9.094  23.300  0.2361  0.1005  0.1511
60641W        W61505   9.636   7.833  27.274  0.1852  0.1147  0.3130
60642W        W61506   7.090  11.715  28.167 -0.0620 -0.0381 -0.0787
60643W        W61507  10.306  11.417  25.641 -0.0357  0.0272  0.0163
60644W        W61508   8.203  11.361  29.029 -0.2148  0.0962  0.0511
60645W        W61509  11.875   9.521  23.556  0.1060  0.0255  0.1500
60646W        W61510  10.987  10.814   0.217 -0.0954 -0.1104 -0.2525
60647W        W61511   9.299   9.050  28.098  0.0702 -0.0051  0.1790
60648W        W61512  11.531   9.849  25.167  0.4688 -0.1663  0.0684
60649W        W61513   9.738   9.663  28.801 -0.0286  0.1656  0.2442
60650W        W61514   6.058   9.050  25.727  0.1613 -0.3559 -0.3150
60651W        W61515   9.334   9.635  27.558 -0.0231 -0.0078  0.0209
60652W        W61516   9.567  10.536  27.045  0.0786 -0.1024  0.2337
60653W        W61517   9.661   8.288  27.111 -0.0727 -0.0693 -0.0056
60654W        W61518  11.237   6.913  26.297 -0.1384  0.0103 -0.3302
60655W        W61519   9.390   4.636  26.554 -0.0304  0.0596 -0.0257
60656W        W61520   9.174   6.263  26.133  0.1254  0.1146  0.0114
60657W        W61521   7.841   8.520  25.526 -0.0792 -0.1327 -0.2309
60658W        W61522   9.692   6.721  26.391  0.1802  0.1628 -0.0186
60659W        W61523   7.753  10.970  27.980  0.2859 -0.0852  0.2879
60660W        W61524  10.918  10.118  28.129  0.1919 -0.2984  0.0195
60661W        W61525   8.835   7.146  28.328  0.0732 -0.0564  0.1285
60662W        W61526   9.026   8.751   2.997 -0.1060 -0.0227  0.0461
60663W        W61527  10.426   6.562   0.059  0.1496 -0.1940  0.0604
60664W        W61528   9.001   7.825  27.462  0.2667  0.1070  0.3435
60665W        W61529   9.493   9.775   1.433 -0.0373 -0.0367  0.2747
60666W        W61530   7.460  10.049  27.508  0.0083 -0.0347  0.1480
60667W        W61531   8.004   7.257  26.978  0.0901 -0.1050  0.0469
60668W        W61532   7.864   6.085  28.273  0.3435  0.0230 -0.0947
60669W        W61533   8.800  10.669  26.710  0.2799 -0.0959 -0.1908
60670W        W61534   9.939  10.362  27.344  0.2211  0.0209 -0.2099
60671W        W61535   6.628  14.526   1.189 -0.2803  0.2982  0.1395
60672W        W61536   8.800   7.717  26.980 -0.2442 -0.0440 -0.1929
60673W        W61537   8.496   9.694  28.304  0.3213  0.1091 -0.0256
60674W        W61538  11.325  10.391  26.814  0.1396 -0.2145 -0.3061
60675W        W61539   6.708  10.571  27.309 -0.3568  0.0978  0.3276
60676W        W61540   8.163  11.116  27.023 -0.2652  0.0539  0.4359
60677W        W61541  12.303  10.119  27.852 -0.0117 -0.3300 -0.4729
60678W        W61542  11.942   8.280  28.998  0.1611  0.0045 -0.0054
60679W        W61543   8.188   7.144  27.427  0.1891  0.0655  0.5298
60680W        W61544  10.603  11.453  24.759 -0.1023  0.1472 -0.0283
60681W        W61545   9.219   9.825  28.597 -0.3387  0.1970  0.1123
60682W        W61546   7.795   7.609  26.171 -0.0261  0.1287  0.0401
60683W        W61547   8.213   9.320  23.809 -0.0598  0.1317 -0.1657
60684W        W61548   5.604  11.364  26.950  0.0836  0.0095  0.0089
60685W        W61549  10.218  11.922  28.105  0.0578  0.1209 -0.0167
60686W        W61550   7.233   9.562   0.960 -0.2358 -0.2316  0.0762
60687W        W61551   7.362  11.962  27.743  0.1178  0.1781  0.2405
60688W        W61552   9.665   9.656  25.787  0.0294  0.2664 -0.1508
60689W        W61553   8.366  11.927  26.405 -0.1477  0.2072  0.0700
60690W        W61554  10.811   7.631  27.984  0.0859  0.2636  0.0544
60691W        W61555   8.929  10.207  28.889  0.0138  0.1591 -0.3734
60692W        W61556   7.864   9.782  25.774 -0.1197  0.1172  0.3360
60693W        W61557  10.983   7.910  26.381  0.1322 -0.0472  0.0853
60694W        W61558   9.829   7.511  27.848 -0.2412  0.0253 -0.1323
60695W        W61559   9.169  11.948  27.207 -0.0150 -0.1714  0.2513
60696W        W61560   9.106  10.924  27.034 -0.1990  0.0549  0.1792
60697W        W61561  11.088   8.098  25.666  0.1549 -0.2059 -0.2567
60698W        W61562   8.644  10.862  24.476  0.0965 -0.3114  0.0250
60699W        W61563   9.016   8.922  26.576  0.2969  0.2603 -0.3487
60700W        W61564   6.880   6.936   2.925 -0.3239  0.1294  0.0300
60701W        W61565  10.430   9.464   1.435 -0.1834  0.1556 -0.2400
60702W        W61566  10.845  10.381  26.615  0.0006 -0.1686 -0.0812
60703W        W61567   8.386  10.985  26.613 -0.3727  0.1548  0.0370
60704W        W61568   7.860  12.878  27.998  0.0104 -0.0645  0.3660
60705W        W61569   9.409  10.040  27.171  0.2493 -0.0314 -0.1652
60706W        W61570   7.034  12.164   0.337  0.0980  0.0530 -0.0627
60707W        W61571   8.199  10.627  26.964  0.2287  0.1976  0.3540
60708W        W61572   7.473   9.387  27.854  0.2523 -0.0150 -0.0140
60709W        W61573   6.014   9.909  27.394 -0.4027 -0.0640 -0.1994
60710W        W61574   9.802   9.652  26.288 -0.0527 -0.3411  0.0066
60711W        W61575   9.459   6.439   0.134  0.1020  0.1329 -0.1108
60712W        W61576   8.952  12.183  28.164  0.1762 -0.0975  0.0168
60713W        W61577   6.022  12.080  23.711 -0.0578 -0.2204  0.1800
60714W        W61578  12.017   8.466  25.424  0.0736  0.2402  0.0142
60715W        W61579   9.248   6.519  26.592  0.0383  0.0557 -0.0338
60716W        W61580   8.753  11.878  26.777 -0.1371 -0.0013  0.1281
60717W        W61581   8.413  10.112  23.712 -0.1910  0.1309  0.3267
60718W        W61582   9.975  10.433  27.856 -0.0200 -0.1790 -0.3124
60719W        W61583   6.506   8.110  26.004  0.1135  0.0279 -0.0079
60720W        W61584   8.977   7.251  27.807 -0.0837  0.0545  0.1083
60721W        W61585   9.018   8.989   0.525 -0.0378  0.3938  0.1228
60722W        W61586   7.652   8.633  26.616  0.0036  0.0350 -0.2366
60723W        W61587   6.939   9.597  27.649  0.1143 -0.1252  0.2645
60724W        W61588   8.851  11.533  28.827  0.0083 -0.2581  0.1694
60725W        W61589   7.272   8.055  27.914 -0.1397 -0.0271 -0.1282
60726W        W61590   8.063   9.283   0.064  0.0667 -0.2890 -0.1011
60727W        W61591   8.986   7.850  23.619 -0.0496 -0.3081  0.1120
60728W        W61592   7.986   8.640  28.216  0.1244 -0.1633  0.1727
60729W        W61593  12.697   8.370  28.450 -0.0916 -0.1137  0.1767
60730W        W61594   7.586  12.435  27.736  0.6513  0.1760  0.0137
60731W        W61595   9.584   7.956  24.410 -0.0769 -0.1101 -0.0892
60732W        W61596   6.297   7.004  26.739 -0.0279  0.1040  0.0489
60733W        W61597   8.929   8.322  27.484 -0.1105  0.0937  0.0238
60734W        W61598   9.495   6.658  27.897 -0.1263 -0.2459 -0.2132
60735W        W61599   9.393  10.150  25.665  0.0772  0.1198  0.0920
60736W        W61600   9.831  10.437  28.343  0.2048 -0.2865  0.2139
60737W        W61601   8.812   9.460  26.706  0.0630  0.1879  0.0424
60738W        W61602   8.491   9.198   1.114  0.0498 -0.3589 -0.1502
60739W        W61603   8.725   6.674  26.708 -0.0657 -0.3218 -0.0681
60740W        W61604   7.532   7.359  28.615 -0.1449  0.3132  0.0511
60741W        W61605   7.042  11.718  24.630  0.0798  0.0467  0.0865
60742W        W61606   8.743   9.137   0.128 -0.1540 -0.1396 -0.1405
60743W        W61607   7.803  10.178  26.609 -0.0367 -0.0067  0.1106
60744W        W61608   9.429  10.440  27.564  0.1061 -0.0173  0.0750
60745W        W61609  10.090   9.668  26.706 -0.1243 -0.0652 -0.2285
60746W        W61610   7.323  10.447  27.980  0.0492  0.0846  0.1131
60747W        W61611  11.582  11.855  26.838  0.0137  0.0630  0.1636
60748W        W61612   9.840   6.271  27.446  0.1670  0.3959  0.2885
60749W        W61613  11.194   9.195  27.117  0.1616  0.4917 -0.1264
60750W        W61614   6.653  13.371  27.896  0.0873  0.1274 -0.0344
60751W        W61615   7.570   9.968  27.010  0.0972 -0.1268 -0.0904
60752W        W61616   8.415  14.794  26.000  0.3205 -0.1449 -0.0068
60753W        W61617   9.416   6.674  27.075 -0.0636 -0.0483  0.0493
60754W        W61618   7.195  11.919  25.147  0.1049 -0.0239  0.1080
60755W        W61619  10.909   9.397  26.402  0.0435 -0.0800  0.1272
60756W        W61620   9.495   8.804  27.330 -0.0563  0.0955  0.0094
60757W        W61621  10.058   8.279  24.356 -0.2699  0.0726  0.0660
60758W        W61622   9.233   8.841  24.429  0.2267  0.0859 -0.2315
60759W        W61623   9.270   8.553   0.755  0.0200  0.1761  0.2023
60760W        W61624   8.111   7.641  27.601 -0.1948  0.1714  0.0987
60761W        W61625   7.964   7.699  24.613 -0.1447 -0.1391  0.0978
60762W        W61626   6.316  11.026  26.487  0.2900  0.2051 -0.2362
60763W        W61627  10.587  11.422  28.681  0.1093 -0.0698  0.1908
60764W        W61628   8.014  12.307  24.117 -0.0713 -0.0222  0.4247
60765W        W61629   8.224  10.959  27.877  0.1438  0.2486  0.1237
60766W        W61630   8.358   8.967  28.940 -0.0143 -0.2818  0.0910
60767W        W61631   8.190   6.480  28.617 -0.0001  0.1879  0.0085
60768W        W61632  12.322   8.056  28.662  0.1307 -0.0216 -0.1453
60769W        W61633   7.322   6.861  25.635  0.3038 -0.0178 -0.1460
60770W        W61634   8.048   7.513  23.989  0.0811 -0.0902 -0.1363
60771W        W61635  10.893   8.659  29.132 -0.0476  0.2349  0.1416
60772W        W61636   7.928   8.871  25.173 -0.1263 -0.3745 -0.4763
60773W        W61637  12.411   9.090  27.892 -0.0822  0.1296 -0.0438
60774W        W61638   8.466   9.098   0.552 -0.1796  0.0598 -0.4879
60775W        W61639  10.022   7.893  25.264  0.1159  0.0695 -0.0566
60776W        W61640  14.289   7.479  24.491 -0.1299 -0.1228 -0.3390
60777W        W61641   8.021  10.365   1.581  0.0072  0.2127 -0.1671
60778W        W61642  10.051   7.982  28.184  0.2399  0.0882 -0.0450
60779W        W61643   8.576   7.073  27.064 -0.0075 -0.1132 -0.2342
60780W        W61644   8.851  11.022  28.746  0.0358 -0.1039  0.1177
60781W        W61645   7.820   9.280  25.614 -0.0689  0.1091 -0.0406
60782W        W61646   9.671  12.532  26.034  0.2024  0.0029  0.0139
60783W        W61647   7.495   8.897  25.480 -0.0285 -0.2927  0.2083
60784W        W61648   7.267  11.161  29.005  0.5111  0.2694 -0.1460
60785W        W61649   8.594  10.331  27.194  0.3344  0.1945  0.4852
60786W        W61650   7.284   9.874  27.902 -0.2130  0.0877 -0.2086
60787W        W61651   9.966   6.961   1.310  0.2848 -0.0882  0.0461
60788W        W61652   9.169   9.174  27.543  0.3441 -0.4276  0.2643
60789W        W61653  13.129  10.887  28.052  0.4088  0.2337  0.3538
60790W        W61654   9.409  11.012  28.680 -0.2235 -0.2306  0.2633
60791W        W61655  10.504  10.250  27.864  0.2416  0.0403 -0.0361
60792W        W61656   9.305   7.132  28.536 -0.3626 -0.4448 -0.1817
60793W        W61657   7.574  10.652  27.527 -0.2099 -0.3375 -0.1719
60794W        W61658  11.263   8.386  26.585  0.2791 -0.0255 -0.1589
60795W        W61659   7.768   9.179  26.866  0.1001  0.3589  0.2031
60796W        W61660   7.403  11.458  27.178 -0.0939  0.1419  0.1643
60797W        W61661  11.967   6.810  24.384  0.0436 -0.3401  0.0689
60798W        W61662   9.957   9.770  27.242 -0.1171  0.1612  0.0529
60799W        W61663   8.110   7.679  28.601 -0.0226  0.3873 -0.1475
60800W        W61664   4.716  11.079  26.711 -0.1162  0.1120  0.2511
60801W        W61665  11.901   6.947  28.103 -0.0764  0.0279 -0.1080
60802W        W61666   9.887  10.614  26.617 -0.0475  0.1061  0.2631
60803W        W61667   9.232  11.013   0.804  0.0075 -0.1352 -0.0660
60804W        W61668   9.707   7.238  27.437 -0.1249 -0.2025  0.0141
60805W        W61669   7.855   8.470  26.209 -0.3117 -0.1787  0.1223
60806W        W61670   8.351  11.151  24.775 -0.2320  0.3680 -0.1162
60807W        W61671   8.824   9.935  24.586  0.1132  0.1660 -0.0514
60808W        W61672   8.045   8.233  28.521 -0.1958 -0.1307 -0.3355
60809W        W61673   9.985   9.509  25.422  0.0981 -0.1838 -0.0293
60810W        W61674   8.650   9.106  27.061  0.0851 -0.2408  0.0817
60811W        W61675   8.728   4.840  26.038 -0.3080 -0.0559  0.4708
60812W        W61676   6.293  10.001  26.734 -0.2639  0.1488 -0.1577
60813W        W61677   9.024   9.561   0.236 -0.1779 -0.3379 -0.0553
60814W        W61678  10.058  10.240  24.204  0.1090  0.0101  0.3580
60815W        W61679   5.554  11.521   0.072  0.2938 -0.0843 -0.1704
60816W        W61680   6.261  10.002   0.126 -0.1334 -0.3371 -0.2234
60817W        W61681   6.921   5.788  26.527 -0.0607  0.1814  0.0755
60818W        W61682   9.875   8.514  27.565  0.1054  0.0414 -0.0769
60819W        W61683   6.441  10.843  26.006 -0.1437  0.0555  0.4254
60820W        W61684   8.591  12.689  27.379  0.0365 -0.2715 -0.0550
60821W        W61685   4.252  11.361  28.249  0.1262  0.0237 -0.1569
60822W        W61686  12.201  11.310  26.750  0.3467  0.0560 -0.1107
60823W        W61687   7.650   8.672  27.402  0.1483 -0.0142  0.1274
60824W        W61688   7.495  10.643  26.684 -0.0988 -0.0821  0.0061
60825W        W61689   5.299  10.210  26.870  0.2717  0.3317  0.0234
60826W        W61690  10.062   8.613   0.251 -0.1940  0.0774  0.0669
60827W        W61691   6.949   8.575  25.820 -0.2251  0.0321 -0.0746
60828W        W61692   9.028   8.986  23.890  0.2615  0.3865 -0.2540
60829W        W61693   8.688  11.146   0.055  0.1657  0.0581 -0.1744
60830W        W61694   8.675  10.777  26.194 -0.1387  0.0439 -0.1982
60831W        W61695   5.387   7.211   0.877  0.1212 -0.2708  0.1406
60832W        W61696   9.747  10.786  27.580 -0.3634 -0.1437 -0.4591
60833W        W61697   9.691  11.464  24.996  0.2385  0.2093  0.1779
60834W        W61698   6.608   7.394  26.648 -0.0515  0.0619  0.0865
60835W        W61699   7.441  11.126  27.553  0.1288 -0.4831 -0.3170
60836W        W61700  11.154  11.927   0.019 -0.1426 -0.3789  0.2491
60837W        W61701   7.791   6.557  25.662  0.1727  0.0492  0.0528
60838W        W61702   6.871   8.814  26.259 -0.1799 -0.0770  0.5039
60839W        W61703   9.213  10.363  28.448  0.1977  0.3236  0.3436
60840W        W61704   6.827  13.175  23.981 -0.0848  0.1050  0.0697
60841W        W61705   9.831  10.162  26.392 -0.2123  0.1894 -0.0637
60842W        W61706   8.064  11.615   0.348 -0.0554  0.1305  0.1160
60843W        W61707  12.498   9.008  25.712 -0.1073  0.0694  0.0485
60844W        W61708   7.948  11.412  28.017  0.2708  0.0320  0.0152
60845W        W61709   8.675  10.651  29.063  0.0721 -0.0639 -0.0667
60846W        W61710   8.263   8.889  25.961 -0.0829  0.1770  0.0889
60847W        W61711   6.785   9.221  26.637  0.0726 -0.1027 -0.0565
60848W        W61712   8.707  10.895  27.786  0.0622  0.2936  0.1010
60849W        W61713   7.116   4.437  28.495  0.1655 -0.0423  0.3077
60850W        W61714   5.569   7.594   1.857  0.0151 -0.0768  0.2831
60851W        W61715   7.981   7.188  26.443 -0.2558 -0.1136 -0.0466
60852W        W61716  10.589  11.071  22.937  0.1386 -0.0310 -0.0483
60853W        W61717   6.742  10.324  28.432  0.2225  0.0038 -0.0823
60854W        W61718   7.240   6.850  26.234 -0.0470  0.4927 -0.2689
60855W        W61719   8.155   9.400  25.995  0.0161 -0.1868 -0.1813
60856W        W61720   7.933   8.532  24.782 -0.0464 -0.0739 -0.0191
60857W        W61721   7.102  10.208  28.806  0.2022 -0.0573 -0.2328
60858W        W61722  13.129   9.660  26.638 -0.1503 -0.0159 -0.2688
60859W        W61723  13.138   7.509  28.029 -0.0680 -0.0248 -0.0983
60860W        W61724   8.397   9.893  27.476 -0.1325 -0.0618 -0.0962
60861W        W61725   8.853   6.759   1.163 -0.0998 -0.2295  0.1478
60862W        W61726  10.592   7.880  24.416 -0.0570  0.1613 -0.1114
60863W        W61727   8.890   9.445  25.369  0.2695  0.1193 -0.1030
60864W        W61728  10.896   9.726  23.189  0.1092 -0.2544  0.1116
60865W        W61729   7.922   8.890  22.715  0.2107  0.1623  0.1365
60866W        W61730  10.126  11.262   0.200 -0.3335 -0.1541 -0.0325
60867W        W61731   9.313   9.107  26.986  0.0865 -0.0822 -0.1447
60868W        W61732   8.420  12.116  24.803 -0.1977  0.0742  0.0995
60869W        W61733   8.059   8.806  27.111  0.2040 -0.1930 -0.1541
60870W        W61734   9.906  10.975  25.895  0.0838 -0.2396 -0.1679
60871W        W61735  11.263   9.933  27.841 -0.0570  0.1971  0.1930
60872W        W61736   9.235   8.983  28.562  0.2208 -0.1574 -0.1373
60873W        W61737   6.257   9.972  25.704  0.1308 -0.0325  0.1235
60874W        W61738   8.882   9.123  24.988 -0.1389  0.0052  0.0987
60875W        W61739   9.154   7.138   1.434  0.2586 -0.0438  0.2007
60876W        W61740   4.856   9.161  26.181  0.0795  0.0045  0.1810
60877W        W61741   8.472  10.440  27.657  0.0501 -0.2799 -0.3300
60878W        W61742  11.634   7.987  23.247 -0.0004  0.5578 -0.0891
60879W        W61743   7.762  11.008  29.057 -0.0181  0.0655  0.1476
60880W        W61744  10.709   9.847  28.515  0.0855  0.0608 -0.1446
60881W        W61745  11.282   8.279  25.242 -0.0958  0.0331 -0.0553
60882W        W61746   6.394  10.550  26.570  0.0191 -0.0709  0.0394
60883W        W61747   5.128  11.929  25.410  0.1636  0.2229 -0.0221
60884W        W61748  10.790   9.086  25.403 -0.2426 -0.0493  0.2174
60885W        W61749   6.761   9.442  28.938 -0.2268  0.3041  0.2274
60886W        W61750   9.411  10.160  26.651 -0.0248  0.0142 -0.0335
60887W        W61751   8.025   9.541  27.355 -0.0418  0.1050 -0.1774
60888W        W61752   7.316   8.478   0.183 -0.3143  0.1294  0.3355
60889W        W61753   7.281  11.749   0.038 -0.0117 -0.2367 -0.1393
60890W        W61754   7.280   9.320  25.626 -0.3616  0.0976  0.0913
60891W        W61755   9.286   8.809  25.925 -0.1180  0.0123  0.0363
60892W        W61756   9.540  11.484   0.014 -0.1216 -0.0834  0.0808
60893W        W61757   6.408   8.743  26.461 -0.2345  0.1236  0.0463
60894W        W61758   7.837   9.815  27.793 -0.1204  0.0737 -0.0428
60895W        W61759  12.969  11.266   0.150  0.3173 -0.0912  0.1637
60896W        W61760   6.734  10.168  26.951  0.2082 -0.1159 -0.1264
60897W        W61761   9.926  10.121  28.741 -0.3626  0.1720 -0.0005
60898W        W61762   9.569   8.112  26.670 -0.0079  0.0302  0.1013
60899W        W61763   7.183  11.008  26.805  0.0708 -0.4717 -0.1476
60900W        W61764   7.516  11.096  28.594  0.1768  0.0270  0.0281
60901W        W61765   7.439   9.828  26.497 -0.1026  0.0092  0.3093
60902W        W61766  11.801   8.702  26.721 -0.3249  0.1791 -0.3290
60903W        W61767   7.568  12.544  25.981  0.1327 -0.1200 -0.1999
60904W        W61768   8.075   8.629  27.693  0.1227 -0.3303 -0.0137
60905W        W61769  10.617   8.763  24.995 -0.3238 -0.1570  0.0192
60906W        W61770   9.852   9.271   0.570  0.0177  0.1302 -0.1767
60907W        W61771  10.286  11.269   2.890  0.0012 -0.0038 -0.3624
60908W        W61772   9.098   8.001  26.472 -0.2570 -0.0719  0.0307
60909W        W61773   8.695   9.189  27.978 -0.2870 -0.3690  0.3876
60910W        W61774   7.634  11.440  25.723 -0.0232  0.0647  0.1024
60911W        W61775   9.844  10.940  28.407 -0.2758  0.2697  0.1037
60912W        W61776   8.565  10.824  27.252 -0.1732  0.1038  0.0035
60913W        W61777  12.065   6.294  22.904  0.1076 -0.0967 -0.0149
60914W        W61778  10.329  10.138  24.598  0.2130  0.2365 -0.1748
60915W        W61779   9.734   6.861   0.212 -0.1446 -0.1144 -0.3027
60916W        W61780  10.510   8.356   0.240  0.1090 -0.0772  0.0798
60917W        W61781   7.138  11.572  27.563 -0.1190 -0.1291  0.1012
60918W        W61782   9.764  11.462  26.949  0.0837  0.1252 -0.1982
60919W        W61783   8.076  10.710  25.838 -0.5463  0.1501  0.2809
60920W        W61784   6.848  10.668  26.776 -0.3369 -0.0238  0.2647
60921W        W61785   6.597   8.949  27.028  0.4065 -0.0812  0.1911
60922W        W61786  10.062  11.229  27.447  0.0453 -0.2159 -0.0247
60923W        W61787   7.933   6.680  27.433 -0.0857  0.2063 -0.0651
60924W        W61788   9.679   9.953  27.662 -0.0803  0.1346 -0.0219
60925W        W61789  10.579   6.780  25.796  0.2040 -0.2257 -0.1791
60926W        W61790   8.363  11.563  26.934  0.1487  0.1189 -0.0222
60927W        W61791   7.947   9.699  26.788 -0.0886 -0.0597  0.1294
60928W        W61792   7.803  12.057  25.846 -0.0616  0.0171  0.2070
60929W        W61793   7.768   8.962  26.067 -0.1192 -0.1693  0.0216
60930W        W61794   6.034  13.455  29.092  0.0115  0.0647  0.0306
60931W        W61795   9.900   9.277  28.293 -0.3537  0.0944 -0.1250
60932W        W61796   5.905   7.943  27.718 -0.1890  0.0887 -0.0406
60933W        W61797   6.881   8.620  26.757  0.0743 -0.0810 -0.0790
60934W        W61798   7.909   9.779  26.265  0.0378  0.0645 -0.0088
60935W        W61799   8.496   8.071  27.543 -0.0094 -0.1820 -0.4765
60936W        W61800   8.703  11.727  27.308  0.0178  0.4490 -0.2539
60937W        W61801  11.574   5.714  27.444 -0.2472  0.1268  0.2724
60938W        W61802   9.193   8.911  29.084  0.0526 -0.0765 -0.2752
60939W        W61803   9.542  12.229  27.397  0.2236 -0.2046 -0.2852
60940W        W61804  13.639  11.670  27.548 -0.2429 -0.3446 -0.0339
60941W        W61805   8.277   8.070  24.841 -0.1416 -0.2857  0.1785
60942W        W61806  10.127   6.592  25.653 -0.0229 -0.1747 -0.0390
60943W        W61807  11.348   8.808  28.173 -0.0199  0.0178  0.2378
60944W        W61808   6.395   9.070  26.128  0.0817 -0.0515  0.0765
60945W        W61809  11.520   8.423  25.733  0.1213 -0.2966  0.0187
60946W        W61810   9.221  10.009  27.852  0.0247  0.2762  0.1139
60947W        W61811  10.058  10.560   0.572  0.0768  0.3410 -0.0669
60948W        W61812   8.089  11.410  25.138  0.1141  0.0757  0.0976
60949W        W61813   8.682   5.393   0.824  0.1410  0.1051  0.5411
60950W        W61814   6.626  10.070  27.437 -0.1237  0.0368  0.1001
60951W        W61815   8.371  12.523   2.172 -0.0952  0.2417  0.0618
60952W        W61816   8.797   8.549   1.391  0.0658 -0.0390  0.0425
60953W        W61817   7.716  10.457  27.090  0.1291 -0.0692  0.1046
60954W        W61818   8.923  10.434  27.991 -0.0600  0.3972 -0.0581
60955W        W61819   6.493   7.771  26.302  0.0614  0.1566 -0.2003
60956W        W61820   5.283   9.975  27.777  0.0023  0.1355 -0.0958
60957W        W61821  10.164  12.145  28.714  0.0762  0.0564 -0.1248
60958W        W61822   7.085   9.857  27.221 -0.1954  0.0259  0.1825
60959W        W61823  11.862   8.129  28.485  0.0260 -0.0310  0.2359
60960W        W61824  10.993  10.639  24.405 -0.1510  0.0328 -0.1409
60961W        W61825   9.347   9.862  26.112 -0.2551 -0.1734 -0.5384
60962W        W61826   4.866  11.008  27.968 -0.3210 -0.0954 -0.0737
60963W        W61827  11.057  13.097  27.202  0.0934 -0.1401 -0.0142
60964W        W61828   8.587   7.588  28.393 -0.0751  0.2648  0.0817
60965W        W61829   6.269   7.939  29.081  0.1947  0.2665  0.1982
60966W        W61830   8.237   9.007  27.969  0.1063 -0.3293 -0.3078
60967W        W61831   8.975  10.635  27.477 -0.0470  0.1188  0.0410
60968W        W61832   6.867   9.535  28.129  0.2333 -0.2511 -0.1543
60969W        W61833   8.927   8.414  28.656  0.1674  0.0258  0.0572
60970W        W61834   8.338  12.798  26.963  0.4594 -0.3309 -0.0161
60971W        W61835   7.607   7.654  27.702 -0.0679 -0.2387  0.0973
60972W        W61836   7.935  10.141  23.343  0.3321  0.0019  0.4132
60973W        W61837   9.092  10.406  26.958 -0.2585 -0.0223  0.1459
60974W        W61838   7.755  12.931   4.017 -0.0046  0.2069  0.1945
60975W        W61839   8.206  11.556   3.802  0.1438 -0.1016  0.1327
60976W        W61840  11.599  13.839   2.067  0.3328 -0.0598  0.1906
60977W        W61841  10.006  13.765   2.908  0.0297 -0.0318  0.2004
60978W        W61842   7.271  13.196   1.162  0.0845 -0.1979 -0.0868
60979W        W61843   8.391  13.038   0.352 -0.1666 -0.1588 -0.1170
60980W        W61844  11.016  13.298   4.363  0.0035  0.0026 -0.0445
60981W        W61845   6.511  13.950   2.046 -0.0522 -0.0994 -0.2089
60982W        W61846   8.776  13.481   4.114 -0.3382 -0.1175  0.3187
60983W        W61847   6.141  11.612   4.242  0.0608 -0.0980  0.0171
60984W        W61848   7.706  11.510  29.141 -0.0780 -0.1392 -0.1808
60985W        W61849  11.273  12.402   1.387  0.1972 -0.1751 -0.1614
60986W        W61850   8.839  11.143   1.382 -0.1490  0.0153 -0.0659
60987W        W61851  10.290  13.524   3.910 -0.2975  0.1048 -0.1006
60988W        W61852   6.813  11.628   1.966  0.0713  0.1590  0.0254
60989W        W61853   6.306  13.017   3.281  0.1271  0.3591 -0.2893
60990W        W61854   9.852  12.507   3.008 -0.1161 -0.1963  0.0435
60991W        W61855   8.528  12.067   1.626  0.0747 -0.0227  0.2246
60992W        W61856   8.637  12.962   5.792  0.0706 -0.1277 -0.0305
60993W        W61857  11.092  12.810   3.641 -0.3036  0.2022 -0.1950
60994W        W61858   8.893  13.940   2.433 -0.1054 -0.3226  0.1264
60995W        W61859   7.985  12.388   2.423  0.2589  0.1582 -0.1177
60996W        W61860  10.263  14.505   1.580 -0.0904 -0.2722  0.2352
60997W        W61861   6.147  13.397   4.157  0.3158  0.2172  0.2732
60998W        W61862   4.700  11.895   1.731 -0.0100 -0.0122  0.0413
60999W        W61863   6.955  14.836   4.957 -0.4145  0.3081 -0.1068
61000W        W61864  12.402  11.520   6.210 -0.1519 -0.3096 -0.2175
61001W        W61865   8.724  15.803   3.663 -0.2781  0.2798 -0.0366
61002W        W61866  10.516  16.825  26.909 -0.0318 -0.0096  0.0207
61003W        W61867   9.006  13.632   5.114 -0.0398  0.2510 -0.0396
61004W        W61868   8.776  15.095  25.530 -0.1878  0.0065  0.1494
61005W        W61869   8.869  16.095   2.454  0.2949  0.1693 -0.1811
61006W        W61870   9.781  15.679   3.603  0.1474  0.0060 -0.1680
61007W        W61871   9.467  13.932   2.465 -0.0591  0.1644  0.0983
61008W        W61872   6.116  13.022   0.817 -0.1593  0.0485  0.3985
61009W        W61873  10.633  14.093   4.232  0.2742 -0.0539 -0.2826
61010W        W61874   9.855  10.383   3.082  0.0437 -0.0516 -0.0790
61011W        W61875   9.142  14.074   0.994 -0.2953 -0.2350 -0.2668
61012W        W61876  13.521  12.896   1.572  0.1082 -0.5279  0.0958
61013W        W61877  11.379   9.862   0.167  0.0200  0.2372 -0.0261
61014W        W61878   8.749  11.443   1.962  0.1354  0.3889 -0.0470
61015W        W61879  12.060  12.994   2.322  0.0198 -0.1451 -0.2752
61016W        W61880  13.557  15.031   1.295  0.0942 -0.1678  0.3864
61017W        W61881  12.405  13.171   3.169  0.2801 -0.1518  0.0189
61018W        W61882   7.907  13.381   0.490 -0.2425  0.3076  0.4388
61019W        W61883   5.408  12.587   3.446 -0.1393  0.2814 -0.1630
61020W        W61884   8.523  12.117   4.387 -0.0843 -0.3502 -0.0700
61021W        W61885  10.026  14.481   2.095 -0.1331 -0.1572 -0.3482
61022W        W61886  10.558  11.601   0.446 -0.1088 -0.1652 -0.2171
61023W        W61887   9.229  12.684   1.808 -0.4639 -0.1006 -0.0279
61024W        W61888   6.985  15.504   4.256 -0.2421  0.0533  0.3843
61025W        W61889   9.869  11.453   3.030  0.2373 -0.0285 -0.0540
61026W        W61890   8.941  14.475   2.509  0.0119 -0.0032  0.0323
61027W        W61891   9.399  12.956   2.281  0.2089  0.0453 -0.2478
61028W        W61892   9.102  10.976   1.861  0.0459  0.0024  0.1444
61029W        W61893   6.048  14.073   1.786 -0.0853 -0.0231 -0.0528
61030W        W61894   7.669  12.918  28.970  0.0020  0.1839 -0.2173
61031W        W61895   9.894  13.059   2.284  0.2030 -0.1876 -0.0197
61032W        W61896   9.867  17.279   3.002  0.0634  0.0819  0.0087
61033W        W61897   6.464  12.488   1.532  0.2160 -0.1549  0.2062
61034W        W61898   8.896  12.933   0.548 -0.0492  0.3130 -0.0568
61035W        W61899   7.422  13.939   1.751  0.2016 -0.1685 -0.2251
61036W        W61900   8.777  12.926   2.812  0.1959 -0.0994 -0.0991
61037W        W61901   9.942  11.825   1.811 -0.0405 -0.0677 -0.1421
61038W        W61902   8.458  10.158   1.372 -0.1983 -0.0044  0.1155
61039W        W61903  11.540  10.591   2.724  0.4460 -0.2680  0.0073
61040W        W61904   8.347  10.924  28.757 -0.2762  0.2882  0.1382
61041W        W61905   6.527  14.324   1.663  0.1998 -0.2349  0.2159
61042W        W61906  10.014  13.606   1.127 -0.1527  0.0859 -0.2196
61043W        W61907  10.832  13.935   0.656  0.0923 -0.0748 -0.1138
61044W        W61908   9.562  14.376   1.190  0.1626  0.2669 -0.4055
61045W        W61909  10.135  13.719   2.263  0.1859  0.1196 -0.0449
61046W        W61910  11.815  14.934  29.111  0.0601  0.0991  0.1299
61047W        W61911  10.033  12.939   3.192 -0.2783  0.1072 -0.0536
61048W        W61912  10.210  13.994   3.908 -0.1343 -0.0479 -0.0452
61049W        W61913   8.362  11.249   1.600  0.0714  0.2709  0.0725
61050W        W61914   7.517  14.455   1.856 -0.3164  0.1652 -0.1372
61051W        W61915   5.151  12.470   0.703 -0.1092 -0.2254  0.0915
61052W        W61916   9.014  13.079   1.908 -0.1162  0.1741  0.1887
61053W        W61917   8.171  11.752   1.654  0.0362  0.0371 -0.0503
61054W        W61918   6.454  13.009   1.180 -0.2158  0.0788  0.3122
61055W        W61919   8.737  13.015   4.352  0.0451  0.1046  0.1036
61056W        W61920   6.528  12.539   1.027 -0.1544 -0.2756  0.3655
61057W        W61921  10.251  11.086   4.629  0.2285  0.1457 -0.1434
61058W        W61922   8.890  10.258   5.352 -0.0072 -0.1339 -0.1235
61059W        W61923   9.903  12.989  28.939  0.0821  0.1432 -0.1355
61060W        W61924  10.313  10.764   0.946 -0.0983  0.2064  0.2075
61061W        W61925  10.317  11.440   1.820  0.1856 -0.2652  0.0529
61062W        W61926   9.776  13.876   5.616 -0.0341 -0.1115  0.4797
61063W        W61927  12.252  12.559   3.234 -0.1329  0.0467 -0.0318
61064W        W61928   9.975   9.910   0.535  0.3109  0.3405  0.1220
61065W        W61929   9.245  12.861   3.648 -0.1559 -0.1991 -0.0902
61066W        W61930   7.942  15.486   1.253 -0.0224  0.0138  0.2788
61067W        W61931   8.545  13.156  28.636 -0.2910 -0.3570 -0.2198
61068W        W61932   7.565  11.045   1.228  0.2585 -0.0002  0.1397
61069W        W61933  10.046  12.780   0.589 -0.2142  0.3399 -0.3598
61070W        W61934  10.257  11.207  28.399  0.1497 -0.1728  0.0167
61071W        W61935   8.544  14.796   2.488  0.0038  0.2651  0.0448
61072W        W61936  11.091  14.171   3.886 -0.0390  0.1661  0.0025
61073W        W61937  13.379  11.956   6.485 -0.2224 -0.4531 -0.1308
61074W        W61938  12.636  15.205   0.294  0.2085  0.1653 -0.2684
61075W        W61939   6.887  11.039   0.246  0.1908  0.0880  0.1309
61076W        W61940   9.004   9.965   1.371 -0.2169  0.2110 -0.0373
61077W        W61941  10.135  13.958   0.755 -0.1316 -0.1639  0.0010
61078W        W61942   9.677   9.471   3.421  0.0111  0.0661 -0.1746
61079W        W61943   9.899  10.429   1.973 -0.1281  0.2440 -0.1072
61080W        W61944   9.171  17.175   4.799 -0.0139  0.1004 -0.1495
61081W        W61945  11.447  13.251   2.124  0.1160 -0.2929 -0.0183
61082W        W61946   9.563  14.275   0.579  0.3181  0.3628 -0.1623
61083W        W61947   7.538   9.215   0.115 -0.0853 -0.0646 -0.0947
61084W        W61948   9.833  14.000   1.958 -0.1142  0.2139 -0.0857
61085W        W61949   9.992  11.853   2.668  0.2241 -0.0106  0.2572
61086W        W61950  11.440  12.495   3.854 -0.0898 -0.0480  0.0981
61087W        W61951  10.197  15.213   0.098 -0.1410  0.2171 -0.0027
61088W        W61952  10.967  11.765  27.614  0.1260 -0.1900 -0.2923
61089W        W61953   9.885  13.198   1.450 -0.1702  0.1112 -0.1769
61090W        W61954  10.798   9.667   3.317 -0.0490 -0.3101  0.0240
61091W        W61955   9.657  13.430   2.550 -0.1784 -0.1927 -0.1193
61092W        W61956   8.901  10.417   1.240  0.1761 -0.3182 -0.1921
61093W        W61957   8.960  11.725   1.346 -0.2000 -0.0118  0.0466
61094W        W61958   8.243   9.728   2.302  0.1606 -0.2768  0.1207
61095W        W61959  10.926  13.278   1.678 -0.0442 -0.0382  0.2577
61096W        W61960  10.412  14.178   2.339 -0.2287  0.4043  0.0528
61097W        W61961   9.638  13.013   0.818  0.1818  0.0105 -0.1544
61098W        W61962   9.878  12.218   1.390  0.0002 -0.1157 -0.1786
61099W        W61963  10.451  13.138   2.296 -0.0078  0.0486 -0.0140
61100W        W61964   7.389  11.057   0.428  0.0580 -0.2220 -0.2546
61101W        W61965  11.930  12.900   3.173 -0.0710 -0.2075  0.0462
61102W        W61966  10.834  14.470  28.194  0.1958  0.3911  0.0860
61103W        W61967   9.317  13.453   1.687 -0.0291 -0.3784  0.0575
61104W        W61968   7.901  15.216   5.126  0.2925 -0.0480  0.0957
61105W        W61969   8.916  10.295   2.671 -0.2365 -0.1423 -0.0197
61106W        W61970   9.391  13.346   3.547 -0.2082  0.2649  0.1278
61107W        W61971   8.433  12.438   1.245 -0.2039 -0.3083  0.0369
61108W        W61972   9.481  12.807   3.196 -0.3170 -0.1140 -0.2847
61109W        W61973   5.856  13.270   3.384 -0.2804 -0.0607 -0.0164
61110W        W61974  13.177  12.189   2.829  0.1462 -0.3618 -0.1247
61111W        W61975   9.138  14.222   6.065 -0.0833 -0.0366  0.3251
61112W        W61976  11.869  13.543   0.157  0.1104 -0.0077 -0.0300
61113W        W61977   9.391  12.504  28.405 -0.4531  0.2011  0.0400
61114W        W61978   5.599  11.626  28.285  0.1079 -0.4653 -0.0948
61115W        W61979  11.248  11.415   2.158 -0.0122 -0.2416 -0.4177
61116W        W61980   7.633  15.118  27.994  0.2644 -0.1415  0.2223
61117W        W61981   6.641  11.636  28.469 -0.0052 -0.1560 -0.1389
61118W        W61982  10.017  14.846   3.479 -0.1585  0.2810 -0.1731
61119W        W61983   6.002  12.438   1.116 -0.0382 -0.0028  0.0049
61120W        W61984   8.373  11.681   0.741 -0.1156 -0.3236  0.2237
61121W        W61985  12.760  13.854   3.431 -0.2070 -0.6175 -0.0150
61122W        W61986   9.222  14.271   1.567 -0.1793  0.1162  0.1250
61123W        W61987   9.013  11.829   3.713  0.0672 -0.2692 -0.1801
61124W        W61988  10.538  15.220   3.938 -0.0492  0.0041 -0.1557
61125W        W61989   7.264  12.817   3.849  0.0524 -0.2085  0.0332
61126W        W61990   9.756  12.951   3.622 -0.1300 -0.0930  0.4761
61127W        W61991   7.616  12.463  28.191  0.0160  0.1774 -0.3185
61128W        W61992  11.735  12.212   4.113  0.0947 -0.1534  0.0418
61129W        W61993  11.312  11.766   4.478  0.1390 -0.0988 -0.0697
61130W        W61994   6.740  13.719   0.733 -0.0159 -0.0519 -0.0608
61131W        W61995   7.160  13.673   2.227 -0.2319  0.1089  0.1255
61132W        W61996   6.746  10.601  27.929 -0.0608  0.0579 -0.2403
61133W        W61997  11.433  16.651  27.856 -0.2864 -0.0683  0.2624
61134W        W61998  10.486  11.882   1.781 -0.3274  0.1663 -0.1893
61135W        W61999   8.930  13.387   4.637 -0.2127  0.0854 -0.2158
61136W        W62000   8.324  13.418   1.777 -0.1865  0.2317  0.0735
61137W        W62001  10.234  12.718   2.110 -0.0889 -0.3485 -0.2851
61138W        W62002   7.215  12.345   3.752 -0.2547 -0.2013  0.3159
61139W        W62003  10.412  12.287   5.027  0.2066  0.0887  0.1194
61140W        W62004   8.028  10.872   1.494  0.1764  0.1766 -0.1752
61141W        W62005   7.981  12.844   2.178  0.2559  0.4058 -0.0009
61142W        W62006   8.133  15.353   2.923 -0.0323  0.1239 -0.1570
61143W        W62007   9.338  12.988   1.405  0.3575  0.1561  0.1796
61144W        W62008   9.872  16.055  28.756 -0.0863 -0.2043  0.4197
61145W        W62009   7.493  12.934   4.455  0.3920 -0.0186  0.3449
61146W        W62010   8.485  16.930   3.136  0.1524 -0.0006 -0.0870
61147W        W62011  10.031  13.658  28.609 -0.1602  0.0439  0.0687
61148W        W62012   9.769  12.679   1.371 -0.2735  0.2360 -0.0630
61149W        W62013   9.790  10.339   2.430  0.1032 -0.0586 -0.0624
61150W        W62014   8.944  15.464   3.967 -0.0032 -0.1241  0.0869
61151W        W62015   8.943  12.061   3.296 -0.1157  0.4291 -0.1030
61152W        W62016   7.236  13.827   0.394  0.3395  0.4135 -0.1370
61153W        W62017  10.691  11.516   3.214 -0.0949 -0.0422 -0.1683
61154W        W62018   8.748  13.235   1.020 -0.1459  0.1113  0.1635
61155W        W62019  12.648  14.900   0.871  0.4006 -0.0405 -0.0485
61156W        W62020   8.410  12.262   0.756 -0.0291  0.1648 -0.0652
61157W        W62021  10.318  12.233   2.644 -0.3172  0.0191  0.0033
61158W        W62022  10.693  12.005   2.413  0.1231  0.0953 -0.1296
61159W        W62023   9.111  13.066   3.217  0.1025 -0.1610  0.0543
61160W        W62024  10.198  11.188   1.238  0.1570 -0.1013 -0.0628
61161W        W62025   6.748  12.344   1.898 -0.0925 -0.2586 -0.0246
61162W        W62026   8.004  13.405   4.112  0.1407  0.3179  0.2849
61163W        W62027   9.882  14.838   1.573 -0.2103  0.3937 -0.0207
61164W        W62028  10.232  14.942  28.831 -0.1853 -0.0366  0.0708
61165W        W62029   8.958  12.745  28.705 -0.3960 -0.0502  0.1349
61166W        W62030   6.766  13.080   2.490  0.0591 -0.3394  0.0510
61167W        W62031   9.659  12.028   2.188  0.0313 -0.0875 -0.0910
61168W        W62032  11.230  11.789  28.142 -0.4083  0.0157 -0.0779
61169W        W62033   6.924   9.312   0.678 -0.1759 -0.1894 -0.0989
61170W        W62034   9.688  13.274  28.558 -0.2515  0.1968  0.2292
61171W        W62035   8.845  12.639   4.829 -0.0787 -0.0253  0.0152
61172W        W62036   9.191  12.904   0.939  0.0304  0.3478 -0.0272
61173W        W62037  10.152  13.167   0.236 -0.0832 -0.2353  0.1333
61174W        W62038   8.190  10.016  28.042 -0.0100 -0.1223 -0.4080
61175W        W62039  12.789  11.027   2.756  0.2436 -0.0834 -0.1699
61176W        W62040  10.064  12.764  27.978 -0.0260 -0.0128  0.2073
61177W        W62041  11.973  10.202   3.265  0.0867 -0.1435  0.1057
61178W        W62042   9.412  13.354   6.329  0.0463  0.4015  0.0391
61179W        W62043   9.432  13.494  28.026 -0.5074 -0.1739  0.3506
61180W        W62044   6.923  13.426   0.300  0.0626 -0.0679  0.0558
61181W        W62045   9.159  13.687   3.334 -0.0396 -0.4304  0.3176
61182W        W62046   8.696  14.364   0.910  0.1039  0.0241  0.1790
61183W        W62047   8.863  13.212  29.044  0.1747 -0.1956 -0.0443
61184W        W62048  11.484  13.099   4.486  0.0429  0.2701 -0.0236
61185W        W62049   9.862  10.829   2.255 -0.0569  0.2207  0.1098
61186W        W62050   7.734  13.874   3.548 -0.4560 -0.4040  0.1432
61187W        W62051  12.134  10.476   2.794 -0.1546 -0.2260 -0.0463
61188W        W62052  11.286  11.969   3.862  0.1464  0.2976  0.0082
61189W        W62053  11.210  14.526   0.799  0.1909 -0.2469  0.3522
61190W        W62054   9.142   9.667   0.979 -0.1342 -0.1393  0.1515
61191W        W62055  10.348  12.601  28.814  0.2153 -0.3561  0.0177
61192W        W62056  10.917  12.367   3.802  0.0245 -0.0250 -0.1796
61193W        W62057   7.852  15.415   4.650 -0.0856 -0.0072  0.0348
61194W        W62058  11.882  12.919   6.322  0.2197  0.1516  0.3238
61195W        W62059  10.150  13.526  29.041 -0.0639 -0.0389 -0.1601
61196W        W62060  10.139  15.005   2.961  0.0621  0.0156 -0.1773
61197W        W62061   7.622  11.974   1.695  0.1380  0.1658 -0.0789
61198W        W62062   8.623  14.500   0.410  0.0443 -0.1771 -0.0652
61199W        W62063   7.027  11.968   2.220 -0.3545  0.2015  0.1443
61200W        W62064  11.793  14.290   3.198 -0.3214  0.0679 -0.2000
61201W        W62065  11.702  12.896   0.690 -0.1670  0.0741 -0.1739
61202W        W62066   9.090  14.646  29.058 -0.0828 -0.1781 -0.2509
61203W        W62067  11.360  13.804   2.496 -0.0532  0.1195 -0.1196
61204W        W62068   8.772  10.727   4.488  0.0644  0.0006  0.2072
61205W        W62069   8.633  13.656   3.476 -0.0730  0.3044 -0.1036
61206W        W62070   9.473  15.468   0.927 -0.1204 -0.1101  0.0367
61207W        W62071   9.058  11.933   0.902  0.0675  0.2089 -0.0099
61208W        W62072   7.107  13.390   0.746  0.0478  0.1712 -0.2773
61209W        W62073   8.286  13.170   0.827 -0.0174 -0.1307 -0.1724
61210W        W62074  11.655  12.722  28.972 -0.0227 -0.0460  0.2652
61211W        W62075  10.888  12.335   1.182  0.0420 -0.2241  0.0201
61212W        W62076   8.461  12.437   3.996  0.2515  0.0649  0.0468
61213W        W62077   9.401  13.414   1.136  0.0653  0.2253 -0.5782
61214W        W62078   6.590  12.874   1.830 -0.1482  0.2666  0.1068
61215W        W62079   8.825  14.684   5.299 -0.1657  0.0346  0.2580
61216W        W62080  10.488  13.740   2.787 -0.3836 -0.1275  0.1343
61217W        W62081   9.496  11.732   3.420  0.1605 -0.2737 -0.1174
61218W        W62082   7.968  10.271   2.249 -0.0995 -0.0625 -0.0389
61219W        W62083   7.339  11.616   1.969 -0.1352 -0.0937 -0.0794
61220W        W62084  11.826  13.575   2.431 -0.2904 -0.5147  0.1639
61221W        W62085   5.987  13.682   3.723 -0.2062 -0.1417  0.2511
61222W        W62086  10.596  12.967   1.809 -0.1683  0.0519 -0.2797
61223W        W62087   9.908  11.232   2.598 -0.1200 -0.1171  0.0723
61224W        W62088   7.317  12.465   2.325 -0.0312  0.0706 -0.1925
61225W        W62089   7.437  17.142   0.689  0.3257  0.0464  0.4228
61226W        W62090   8.933  14.499   4.141  0.1986  0.0260 -0.2815
61227W        W62091  10.155  12.859   1.626 -0.2360 -0.1172  0.0572
61228W        W62092  10.623  11.401   1.392  0.1170  0.0204  0.0999
61229W        W62093  11.432  13.536   1.648 -0.1038 -0.3384  0.0836
61230W        W62094  10.613  11.126   0.034  0.0980 -0.1554 -0.1413
61231W        W62095  10.070  12.594   3.518  0.2742  0.0499  0.1401
61232W        W62096  11.136  14.980   0.556 -0.3824  0.1855 -0.2408
61233W        W62097  10.477  13.085   0.637 -0.0090 -0.0948 -0.3292
61234W        W62098   8.845  15.168   1.507 -0.1176 -0.1946  0.1909
61235W        W62099   9.386  12.257   3.110  0.0985  0.1023 -0.5261
61236W        W62100  10.032  13.722   1.643  0.2259 -0.0322 -0.0316
61237W        W62101   9.489  11.073   3.965 -0.1139 -0.2575  0.1834
61238W        W62102   9.335  15.619   1.792 -0.1087 -0.0967  0.1392
61239W        W62103   6.628  14.601   3.847 -0.1298  0.3480  0.1467
61240W        W62104   8.464  15.850  29.102  0.0073 -0.2865 -0.0094
61241W        W62105  11.070  14.225   0.023  0.0860 -0.3734 -0.2950
61242W        W62106   8.969  11.753   4.272 -0.1919  0.0905 -0.0015
61243W        W62107   9.472  12.857  28.768  0.0057 -0.2548  0.0329
61244W        W62108   6.101  14.521   2.167 -0.0936  0.1222  0.1235
61245W        W62109  11.178  11.982   4.924 -0.0346 -0.1567  0.1819
61246W        W62110  10.308  14.200   2.898 -0.0162 -0.1380 -0.0861
61247W        W62111   9.755  12.592   4.004  0.1166 -0.2948 -0.3190
61248W        W62112   9.865  12.013   3.105  0.0345  0.1838 -0.1262
61249W        W62113   9.545  12.523   5.664 -0.1138 -0.0349  0.1335
61250W        W62114   6.836  12.382   2.514 -0.0076  0.1448  0.2714
61251W        W62115   6.906  11.201   3.119  0.0983 -0.2252  0.2099
61252W        W62116   7.717  10.558  28.349 -0.2531 -0.1107  0.2157
61253W        W62117   9.429  13.728   2.924 -0.1446  0.1783  0.1267
61254W        W62118  11.445  10.976   3.060 -0.3765  0.2425 -0.2864
61255W        W62119   7.735  10.877   0.820  0.3181  0.0875  0.4171
61256W        W62120   6.674  13.560  28.867 -0.0822  0.2061 -0.1768
61257W        W62121   9.779  13.506   3.771  0.2641 -0.0558  0.0390
61258W        W62122  14.162  11.346   1.355 -0.1415 -0.0549  0.1160
61259W        W62123   8.583  12.399   3.452  0.0797 -0.2697 -0.0736
61260W        W62124   9.700  12.956   0.287 -0.2131  0.1496  0.3419
61261W        W62125   6.314  11.980   3.379 -0.1595  0.3122 -0.0238
61262W        W62126   8.868  10.043  28.308  0.0040  0.0749 -0.0112
61263W        W62127   8.611  13.868   1.002 -0.1558 -0.2080 -0.0434
61264W        W62128   9.867  12.116  29.119 -0.1476 -0.1332 -0.0309
61265W        W62129  10.558  10.493   0.533  0.0265 -0.0788  0.1870
61266W        W62130   9.458  11.202   2.888  0.2281  0.3315 -0.0105
61267W        W62131   8.012  12.909   3.132 -0.0172  0.1652  0.0467
61268W        W62132   8.059  13.344   5.042 -0.0325  0.0854 -0.2150
61269W        W62133   9.731  12.449  28.735 -0.2185 -0.1383 -0.2463
61270W        W62134  10.656   9.512   3.811  0.1345  0.2659 -0.0088
61271W        W62135   9.003  14.940   3.242 -0.0892  0.1292  0.1257
61272W        W62136  10.005  11.751   0.347  0.0510 -0.0819  0.0783
61273W        W62137   7.526  14.796   3.952 -0.1927  0.0470  0.0346
61274W        W62138   7.345  15.169  28.459 -0.3379 -0.0095 -0.0740
61275W        W62139   6.098  10.407   4.256 -0.0001 -0.1085 -0.0972
61276W        W62140  10.649  14.130   3.640  0.1987 -0.1070 -0.2237
61277W        W62141   9.237  12.831   0.186 -0.2504 -0.0520 -0.2132
61278W        W62142   8.611  16.519   0.181  0.0854  0.2532 -0.1376
61279W        W62143   8.709  14.916   3.972  0.1515 -0.3730  0.1436
61280W        W62144  10.327  13.088   5.332  0.0006 -0.1806  0.2826
61281W        W62145  11.163  11.753   2.520 -0.1066 -0.1905 -0.0334
61282W        W62146  11.138  11.938   2.078  0.1432 -0.1506  0.0510
61283W        W62147   8.287  12.073   3.093 -0.0439  0.3362  0.5035
61284W        W62148   9.414  12.242   1.776 -0.1037 -0.3568  0.2124
61285W        W62149   5.486  13.697   4.791 -0.1349 -0.1858 -0.2148
61286W        W62150  10.016  12.809  28.497 -0.1495 -0.0675 -0.0486
61287W        W62151   8.066  15.403   5.628  0.0819 -0.2609  0.3207
61288W        W62152   9.651  13.962   3.803 -0.0405  0.0415  0.1164
61289W        W62153   8.271  11.174   4.204  0.0049  0.0681 -0.0589
61290W        W62154   6.961  12.324   0.888 -0.2301  0.2869  0.0565
61291W        W62155  10.054  13.402   3.335 -0.2285  0.1853  0.1344
61292W        W62156  10.208  12.836   2.637  0.0403  0.2554  0.0281
61293W        W62157   8.810  13.526   1.981  0.1986 -0.0313 -0.1694
61294W        W62158   8.645  16.245   4.061 -0.0545 -0.2427  0.0361
61295W        W62159  12.306  14.271  28.572  0.2470 -0.3796 -0.1876
61296W        W62160   7.092  13.214   1.919 -0.1137 -0.0885  0.0558
61297W        W62161   9.892  14.153   0.250 -0.0893  0.1603  0.1665
61298W        W62162   5.738  11.423   1.161  0.0670  0.0080 -0.5583
61299W        W62163   7.652  16.120   3.850 -0.4600  0.1490  0.3076
61300W        W62164   9.003  10.859   4.044  0.1870  0.2988 -0.0949
61301W        W62165   4.600  14.055  28.048 -0.1055  0.3107 -0.4066
61302W        W62166   7.371  11.705   4.109  0.1642  0.0580 -0.1400
61303W        W62167   6.715  13.519   2.646 -0.0642 -0.2736 -0.0557
61304W        W62168   8.262  11.858  28.099  0.1511  0.0882  0.2130
61305W        W62169   9.780  10.524   0.103 -0.2343 -0.1367 -0.0152
61306W        W62170   8.746  12.790   3.842  0.3268  0.1107 -0.0204
61307W        W62171   7.017  13.368   3.570  0.1985 -0.0514 -0.2729
61308W        W62172  10.786  13.191   2.680  0.1344 -0.0719  0.0036
61309W        W62173  12.233  13.408   4.706 -0.1455 -0.0128  0.0714
61310W        W62174   6.993  14.892   2.976  0.1567  0.2046  0.3046
61311W        W62175  10.675  11.683  29.083 -0.1091  0.4103 -0.2751
61312W        W62176   9.130  11.422   2.503  0.2300  0.0157 -0.1183
61313W        W62177   9.028  13.606   0.813 -0.1576  0.0535 -0.1209
61314W        W62178   7.472  12.334   1.407  0.0068  0.2275 -0.1753
61315W        W62179   8.528  11.516   2.509 -0.0397 -0.2131 -0.1223
61316W        W62180   7.025  10.970   1.351  0.0788  0.1081  0.0479
61317W        W62181   5.155  15.037  28.655 -0.0494 -0.1469 -0.1237
61318W        W62182   9.316  12.445   2.264  0.0630 -0.0185  0.2309
61319W        W62183   5.960  12.025   2.963 -0.0230 -0.2192  0.1048
61320W        W62184   9.245  11.481   1.984 -0.0222 -0.1475 -0.1275
61321W        W62185   7.215  10.894  28.086  0.1500  0.2407  0.2468
61322W        W62186  10.541  13.132   4.744 -0.2794  0.1801  0.0732
61323W        W62187   8.847  10.467   2.168  0.0635  0.0137  0.0551
61324W        W62188  10.085  13.330   1.962 -0.0853 -0.1971  0.1342
61325W        W62189   9.039  13.751   1.395 -0.1276 -0.1044  0.2131
61326W        W62190  10.028  14.116   1.296 -0.0327 -0.0492  0.3176
61327W        W62191   7.167  16.071   2.452 -0.1446 -0.0434  0.2043
61328W        W62192   9.588  11.287   0.470 -0.0743  0.0794 -0.0863
61329W        W62193   7.548  11.678   2.508 -0.1259 -0.0673 -0.0683
61330W        W62194   7.092  14.408   3.663 -0.0385 -0.3572  0.1815
61331W        W62195   7.856  13.508   3.149  0.0308 -0.0565  0.1097
61332W        W62196   8.163  11.198   5.084  0.0081 -0.1998  0.0291
61333W        W62197   7.843  12.802   1.273  0.1618  0.3147 -0.1463
61334W        W62198   6.735  11.319  29.027 -0.0828 -0.1598  0.0480
61335W        W62199  11.120  13.345   4.872  0.1253 -0.1173  0.0051
61336W        W62200   7.784  12.519   1.810  0.0613 -0.1007  0.0864
61337W        W62201  10.154  12.297   1.760 -0.1859 -0.2962 -0.1371
61338W        W62202   9.153  16.498   0.255 -0.4277  0.0344 -0.1798
61339W        W62203  10.347  10.661   3.909 -0.2526 -0.2630 -0.3238
61340W        W62204   8.121  16.758  27.635  0.0954  0.0076 -0.2700
61341W        W62205   9.214  13.040  27.722  0.0578  0.0540 -0.1261
61342W        W62206   7.959  12.403  28.983 -0.4150  0.0086 -0.0499
61343W        W62207  11.556  13.863  29.009  0.0608 -0.1562  0.0920
61344W        W62208   9.449  14.269   0.020  0.0665 -0.1062 -0.3012
61345W        W62209  11.751  10.549   1.014  0.0568 -0.2990  0.1425
61346W        W62210   8.314  12.989   1.281  0.0606  0.1634  0.1449
61347W        W62211  11.177  14.037   3.391 -0.2680  0.1163  0.1204
61348W        W62212  10.593  14.903   2.432 -0.3440 -0.1141  0.2226
61349W        W62213   6.922   9.395   5.436 -0.3006 -0.2757  0.2576
61350W        W62214   7.920  12.526   4.318  0.1910 -0.2238 -0.0888
61351W        W62215  10.137  12.127   2.192 -0.2219 -0.2960  0.3064
61352W        W62216   9.688  11.272   3.530 -0.0311  0.1575  0.0776
61353W        W62217   7.460  15.089   5.406  0.0085  0.1231  0.1751
61354W        W62218   9.308  10.963   3.396  0.0105 -0.4164 -0.1807
61355W        W62219   8.672   9.966   2.157  0.3031  0.0408 -0.0769
61356W        W62220   6.346  15.079   0.507 -0.1776  0.0002  0.2527
61357W        W62221  10.823  14.028   2.105  0.0580  0.0669  0.0563
61358W        W62222  11.634  13.816   3.324 -0.1974 -0.0467 -0.2879
61359W        W62223   7.895  14.769   5.487 -0.0446  0.0780  0.0580
61360W        W62224   9.559  13.894   1.484 -0.2676  0.0248 -0.0144
61361W        W62225   9.355  11.548   5.510 -0.1835  0.0388 -0.0235
61362W        W62226   9.416  15.368   2.257  0.0860  0.0400  0.0896
61363W        W62227   9.409  12.358   1.217 -0.2063  0.0259  0.2226
61364W        W62228  11.017  12.020   7.484 -0.0158 -0.2257 -0.1425
61365W        W62229   6.830  14.264   0.626  0.1555 -0.2241 -0.1602
61366W        W62230   8.678  11.782  28.301  0.0951  0.3240  0.3230
61367W        W62231  12.217  15.444   0.147 -0.0850 -0.0491  0.1449
61368W        W62232   9.999  11.156   3.910 -0.0436 -0.0232  0.2016
61369W        W62233   5.875  13.388   7.083  0.1946 -0.1104  0.0871
61370W        W62234  10.685  11.974   2.990 -0.1507 -0.0743  0.2285
61371W        W62235  10.295  14.589   5.853  0.1759  0.1197 -0.2073
61372W        W62236   6.758  14.774   0.787  0.2185  0.2004 -0.0703
61373W        W62237   7.768  13.297   1.174  0.4902 -0.1481 -0.3543
61374W        W62238   7.968  14.940  10.201 -0.0383 -0.0522 -0.0335
61375W        W62239   9.010  13.932   8.115 -0.0074 -0.3368 -0.2293
61376W        W62240   9.066  12.416   5.571 -0.3368 -0.1779  0.2434
61377W        W62241  12.940  12.187   7.903  0.0893  0.2354  0.0341
61378W        W62242   5.518  13.658   3.584  0.1585  0.0352 -0.2055
61379W        W62243   7.672  11.928   1.146  0.1132 -0.0270  0.1730
61380W        W62244  10.408  10.724   6.475  0.3236  0.1012  0.1624
61381W        W62245   7.480  15.770   4.761 -0.3632 -0.2870  0.0145
61382W        W62246   9.839  15.072   7.674  0.0848  0.1279  0.1826
61383W        W62247   8.421  10.518   6.906  0.0428  0.2121  0.2122
61384W        W62248   6.898  13.657   4.660  0.0356 -0.2904 -0.2929
61385W        W62249  10.916  12.228   6.966  0.4300  0.4687  0.2380
61386W        W62250   9.704  12.446   6.291 -0.2016 -0.1577 -0.1978
61387W        W62251  10.384  10.335   6.814  0.0768 -0.1279 -0.0559
61388W        W62252   7.790   9.382   6.357 -0.4672 -0.0851 -0.2565
61389W        W62253  11.343  14.073   7.035  0.0757  0.0530 -0.2798
61390W        W62254   8.535  13.626   6.472  0.2459  0.2105  0.2788
61391W        W62255  10.647  10.356   7.211 -0.2075 -0.0174 -0.3342
61392W        W62256   9.821  13.478   5.172 -0.1585 -0.0630  0.0199
61393W        W62257  10.866  12.373   4.759  0.2298 -0.1204 -0.2257
61394W        W62258  10.513  11.749   5.634  0.1297 -0.0020 -0.2733
61395W        W62259   9.676  12.153   4.797  0.0763  0.1297  0.1621
61396W        W62260   9.193  12.711   5.192 -0.1098  0.0646  0.0733
61397W        W62261  10.629  12.700   9.822 -0.0679  0.0847  0.2702
61398W        W62262   8.267  12.675   5.457 -0.3938  0.0027  0.0560
61399W        W62263   8.542  12.501   8.519  0.1305 -0.1826 -0.1431
61400W        W62264  10.138  11.888   8.153 -0.2628  0.0078 -0.0834
61401W        W62265   9.609  13.486   8.411 -0.1149  0.0112  0.2834
61402W        W62266   9.052   9.120   6.557  0.1867 -0.2557 -0.1001
61403W        W62267   8.853  13.133   7.771 -0.0515 -0.0363  0.2333
61404W        W62268  10.242  10.453   5.465  0.2290  0.1708  0.0337
61405W        W62269  11.842  12.857   8.445  0.1753  0.2150 -0.1094
61406W        W62270   9.929  13.411   9.666  0.1941 -0.2277 -0.1323
61407W        W62271   8.557  11.883   7.867 -0.1273 -0.2426 -0.1433
61408W        W62272   8.029  12.518   8.485  0.0054  0.0558  0.0385
61409W        W62273  12.053  13.229   6.676 -0.1013 -0.0510 -0.1199
61410W        W62274   4.580  12.390   4.639 -0.2868 -0.3122 -0.2236
61411W        W62275   7.340  15.198   4.911  0.1728  0.1038  0.0344
61412W        W62276  11.141  13.266   6.865  0.1038 -0.0926 -0.1402
61413W        W62277  13.676  12.716   6.631 -0.4592 -0.0657 -0.6749
61414W        W62278  10.522  11.245   6.573 -0.1460 -0.1205  0.0176
61415W        W62279  10.633  12.686   6.370 -0.1299  0.1010  0.1577
61416W        W62280   7.776  13.788   4.993  0.0782 -0.0217 -0.1189
61417W        W62281   9.747  11.937   6.148  0.1072 -0.1008  0.1509
61418W        W62282   6.059  16.656   3.490 -0.1633  0.0199 -0.0245
61419W        W62283   7.453  15.312   4.387  0.2276 -0.0091 -0.1062
61420W        W62284   8.387   9.607   5.251 -0.0159 -0.1696  0.2073
61421W        W62285  11.050  11.495   7.552 -0.1989 -0.0026  0.2171
61422W        W62286  11.023  11.299   7.077  0.3297 -0.0760  0.2042
61423W        W62287   8.513  10.354   6.454  0.0101  0.0620  0.1654
61424W        W62288  10.433  14.540   6.956  0.0952 -0.0819 -0.1720
61425W        W62289   8.612  14.730   4.409  0.3447 -0.0582 -0.1331
61426W        W62290   8.447  15.793   5.619 -0.2455  0.0050 -0.0634
61427W        W62291  11.408  14.166   5.198 -0.0447  0.3792 -0.0421
61428W        W62292   9.818  10.805   4.235  0.0097  0.0116  0.0341
61429W        W62293  10.969  15.520   4.017 -0.2359 -0.1403 -0.1266
61430W        W62294   6.815  12.592   4.742  0.3216  0.1829  0.1406
61431W        W62295  11.669  11.995   5.606 -0.1335 -0.0542  0.0950
61432W        W62296   9.700  13.868   7.959  0.6377 -0.0135 -0.3006
61433W        W62297   9.316  14.756   5.453  0.0416 -0.1964  0.0223
61434W        W62298  10.323  12.091   4.329  0.0843  0.0216  0.1939
61435W        W62299   7.072  12.130   8.212 -0.0187 -0.0012  0.0989
61436W        W62300   8.369  13.717   7.178  0.1387  0.0960 -0.0506
61437W        W62301   9.464  11.765   4.481 -0.0901  0.3716  0.1969
61438W        W62302  11.060  11.054   6.654 -0.2231 -0.0648 -0.2996
61439W        W62303  12.204  10.996   4.803 -0.0348 -0.0062  0.0675
61440W        W62304   5.880  14.033   4.116 -0.0704  0.0501  0.1081
61441W        W62305   8.012  12.254   1.484  0.0987 -0.6863 -0.0735
61442W        W62306   7.020  14.158   4.597 -0.0097  0.1972  0.0435
61443W        W62307   9.229  13.264   2.758 -0.1596 -0.0022 -0.1970
61444W        W62308  10.831  16.409   5.754 -0.2946 -0.0414  0.1467
61445W        W62309   7.445  10.789   4.379 -0.0807  0.2047 -0.0332
61446W        W62310   9.116  13.011   7.196 -0.1564 -0.0631 -0.1971
61447W        W62311   8.814  10.652   7.254  0.1593  0.2648  0.0321
61448W        W62312  10.550  14.960   5.649  0.0811 -0.1383 -0.0733
61449W        W62313  10.403  14.616   8.161  0.2865  0.1257 -0.3520
61450W        W62314   7.119  11.586   7.398 -0.4845  0.1921  0.1715
61451W        W62315   8.809  11.460   5.709  0.1882 -0.0341 -0.1056
61452W        W62316  10.704  11.085   5.013 -0.0134 -0.0016 -0.3779
61453W        W62317   8.128  12.181   3.623 -0.0283 -0.0760  0.1384
61454W        W62318   9.312  13.336   5.424  0.0982  0.1496 -0.2955
61455W        W62319   8.089  12.983   5.860 -0.0530 -0.1341  0.1329
61456W        W62320   6.791  10.898   2.576 -0.0377  0.0458  0.2435
61457W        W62321  10.683  11.550   6.271  0.2240 -0.0931  0.3076
61458W        W62322  11.398  11.335   5.751 -0.2460  0.0027  0.0936
61459W        W62323  10.544  13.421   3.156  0.1402  0.3315  0.0421
61460W        W62324   9.641  17.220   6.946 -0.1633 -0.1713  0.0271
61461W        W62325  13.004  10.682   5.920 -0.0102 -0.0816  0.1917
61462W        W62326  11.524  14.152   8.874 -0.1461 -0.2857 -0.1649
61463W        W62327  13.877  11.862   5.288 -0.0220 -0.2679 -0.1575
61464W        W62328  10.954  11.561   4.134  0.0926  0.0245 -0.0683
61465W        W62329  10.391  11.388   5.273 -0.0409 -0.0950  0.1215
61466W        W62330   6.989  13.767   4.189  0.0984 -0.1184 -0.1939
61467W        W62331   5.906  10.024   6.059 -0.0508 -0.2479  0.0042
61468W        W62332   9.478  10.505   6.661  0.0904 -0.0146  0.1261
61469W        W62333   8.480   9.705   7.064  0.3789 -0.1040  0.0902
61470W        W62334   8.694  10.208   4.557 -0.1354 -0.2618  0.0784
61471W        W62335  11.908  15.402   9.011  0.0961 -0.0666  0.1374
61472W        W62336   9.601   8.148   4.001 -0.1211 -0.1337 -0.1862
61473W        W62337  10.622  11.115   6.049 -0.0550  0.4509  0.1444
61474W        W62338  10.700  14.923   6.136  0.2716 -0.2462  0.2004
61475W        W62339   6.434  11.485   6.243  0.1215  0.1086 -0.0135
61476W        W62340  10.269  11.780   3.178 -0.0766  0.0154  0.0466
61477W        W62341  10.761  14.756   7.265  0.1508 -0.3262  0.3323
61478W        W62342  10.226  11.238   7.366  0.1965 -0.0569 -0.1404
61479W        W62343  11.269   9.998   7.280  0.1327  0.0393  0.3151
61480W        W62344  10.467  10.034   3.280  0.0207  0.0568 -0.1556
61481W        W62345  10.688  13.132   6.575  0.1925  0.2122 -0.0588
61482W        W62346   8.395  11.596   2.972  0.3376  0.2321 -0.0686
61483W        W62347   9.672   9.201   5.156  0.0045  0.2583 -0.1064
61484W        W62348   8.855  12.009   8.849 -0.0173  0.0206 -0.3313
61485W        W62349  10.485  12.021   7.520 -0.1038  0.1959 -0.1326
61486W        W62350  11.865  13.224   7.166  0.2793  0.0349 -0.0527
61487W        W62351  11.449  16.174   8.026  0.1980 -0.2325 -0.2803
61488W        W62352   9.900  12.639   6.896 -0.1051 -0.1118  0.2025
61489W        W62353   8.899  13.210   2.370  0.3932  0.0353 -0.0487
61490W        W62354  11.621  12.490   5.698  0.0126  0.0048  0.0622
61491W        W62355  11.985  14.959   8.737 -0.2885  0.1095 -0.0072
61492W        W62356   7.380  11.661   5.723 -0.1473  0.1499  0.0385
61493W        W62357   9.429  14.394   3.828 -0.1675  0.2439  0.0747
61494W        W62358  11.615  14.195   3.645 -0.1108 -0.1276 -0.1487
61495W        W62359   9.757  13.116   4.066 -0.1269  0.1020  0.1401
61496W        W62360   9.110  14.855   4.528  0.0113  0.1163  0.0521
61497W        W62361  10.218  14.026   4.499  0.2622 -0.0897 -0.0145
61498W        W62362  10.888  12.485   7.844 -0.1775 -0.0504  0.2026
61499W        W62363  11.986  12.207   7.838 -0.1659 -0.1964  0.1158
61500W        W62364   7.074  12.940   3.261  0.0310  0.1535 -0.2996
61501W        W62365   9.666  12.926   7.300  0.0703 -0.1548 -0.0679
61502W        W62366  10.368  14.205   7.903  0.2501 -0.6455 -0.1943
61503W        W62367  12.118  10.961   6.933  0.0974 -0.4320 -0.1770
61504W        W62368   9.569  14.886   6.470  0.4579  0.1895 -0.2002
61505W        W62369  10.261  11.910   6.062  0.0994 -0.0261 -0.0656
61506W        W62370   8.959  15.228   7.335 -0.1011 -0.2631 -0.0439
61507W        W62371  11.090  11.113   3.857 -0.3884  0.0718  0.4263
61508W        W62372  10.093  10.480   4.826  0.1635 -0.1063 -0.0910
61509W        W62373   6.818  12.888   5.318 -0.1024  0.2273  0.0290
61510W        W62374   9.704  12.876   6.546 -0.0323 -0.0685 -0.3849
61511W        W62375  11.484  11.532   7.249  0.2959  0.0060 -0.1078
61512W        W62376  10.186  13.000   4.355 -0.2125  0.1856 -0.0020
61513W        W62377   8.193  15.550   4.304 -0.2993 -0.2864 -0.1161
61514W        W62378   5.805  13.310   4.967 -0.1916 -0.0896 -0.0437
61515W        W62379   8.538  10.258   5.036  0.0219 -0.0856  0.0008
61516W        W62380  10.604  12.288   2.011  0.1084  0.1026 -0.2004
61517W        W62381   7.313  13.158   2.478 -0.1983  0.1337 -0.0675
61518W        W62382   9.906  12.142   9.146 -0.1012  0.2541  0.0256
61519W        W62383   9.012  12.003   4.655 -0.1267 -0.1248  0.3746
61520W        W62384   9.234  11.216   5.878  0.0912 -0.1334 -0.0434
61521W        W62385   9.964  14.299   6.633 -0.0471  0.4748 -0.5744
61522W        W62386   9.983  12.302   5.836  0.1364  0.2259 -0.0905
61523W        W62387   8.509  12.163   7.135  0.2118  0.0891 -0.1080
61524W        W62388   9.393  12.015   7.418 -0.0865  0.3987 -0.3353
61525W        W62389   8.808   9.802   5.606 -0.2494  0.0121 -0.4237
61526W        W62390   7.383  15.359   7.281 -0.0576  0.1290 -0.1063
61527W        W62391   6.711  11.643   4.401  0.0624 -0.1867 -0.0072
61528W        W62392   8.128  15.355   8.839 -0.2120 -0.1730  0.1718
61529W        W62393  10.105   9.727   5.907 -0.2513  0.0997  0.0554
61530W        W62394   6.764  13.832   8.340  0.0985 -0.4735 -0.1250
61531W        W62395   9.177  11.914   2.304 -0.0140  0.1250  0.0548
61532W        W62396   7.035  10.480   2.556  0.0099 -0.0316 -0.0861
61533W        W62397   9.704  11.509   5.871  0.0948 -0.2371 -0.0489
61534W        W62398   8.719  10.743   5.282  0.0891 -0.1427  0.1036
61535W        W62399  10.609  11.803   8.440 -0.1376  0.1155 -0.0424
61536W        W62400  10.705  13.568   7.930 -0.2012 -0.1954 -0.1992
61537W        W62401  10.380  13.811   9.813 -0.1014  0.3841 -0.1244
61538W        W62402   9.125   9.551   4.234  0.0903 -0.0634 -0.0986
61539W        W62403   9.257  11.456   8.077  0.0090 -0.1844  0.1875
61540W        W62404   7.479  13.571   6.233 -0.1477 -0.0036 -0.1830
61541W        W62405   7.675  13.277   5.864  0.1328 -0.2009 -0.1958
61542W        W62406   8.999  12.613   9.651 -0.1547  0.0089  0.0404
61543W        W62407   6.093  13.086   4.595  0.0033 -0.2047 -0.0309
61544W        W62408   9.556  12.184   2.680  0.0596 -0.3102 -0.0451
61545W        W62409   9.973  11.852   5.662  0.1483  0.1790 -0.0007
61546W        W62410   9.650   9.959   6.447  0.0793 -0.1255 -0.1712
61547W        W62411  11.112  16.815   3.492  0.1787 -0.1962 -0.0069
61548W        W62412   9.286  12.218   6.135 -0.0380 -0.4160  0.0091
61549W        W62413  11.587  12.461   2.815  0.1397  0.2591 -0.0171
61550W        W62414   8.688  13.940   6.822  0.0804 -0.0055  0.1601
61551W        W62415  10.668  12.075   7.972  0.1976  0.0024  0.2236
61552W        W62416   6.978  14.740   6.372  0.0520 -0.0751 -0.1350
61553W        W62417  10.388  10.974   5.536 -0.3642  0.2468  0.1045
61554W        W62418   7.244  16.672   5.963 -0.0025 -0.0113  0.1021
61555W        W62419   8.930  15.664   2.138 -0.0133 -0.0419  0.1892
61556W        W62420   7.996  13.423   6.987 -0.1592 -0.0355  0.1077
61557W        W62421   8.053  12.151   5.236 -0.2044  0.1114 -0.1057
61558W        W62422   9.381  10.328   4.876  0.1812  0.2992  0.1353
61559W        W62423  10.185  13.077   8.506  0.1853  0.2227  0.4781
61560W        W62424   8.279  13.180   6.314  0.0178  0.4177  0.0849
61561W        W62425   5.156  10.342   4.629 -0.1155  0.2306 -0.0068
61562W        W62426  10.559  12.854   7.614  0.1844 -0.2960 -0.1180
61563W        W62427   9.506  14.308   7.867  0.2076  0.1477  0.1624
61564W        W62428   8.176  13.715   3.644 -0.0617 -0.1980 -0.3616
61565W        W62429   8.398  13.801   4.103 -0.0628 -0.2610 -0.3758
61566W        W62430  11.101  12.382   6.343  0.1117 -0.0439  0.1814
61567W        W62431   8.690   8.659   5.694  0.1296  0.0497  0.1748
61568W        W62432   9.522  12.034   6.599 -0.1245 -0.0353  0.0821
61569W        W62433   8.043  14.033   5.478  0.0222  0.1323  0.0963
61570W        W62434   8.428  10.267   2.508  0.1347 -0.3480  0.2013
61571W        W62435  10.912  10.771   7.255 -0.2210 -0.2863  0.2244
61572W        W62436   7.517  10.918   6.174  0.2278 -0.0403 -0.1991
61573W        W62437  13.233   9.841   6.743 -0.0555  0.1277 -0.2318
61574W        W62438   7.621  12.032   4.926  0.1075  0.1586  0.2055
61575W        W62439   7.601  12.162   6.792 -0.0335 -0.2973 -0.2320
61576W        W62440  11.884  14.109   5.328  0.2153  0.3586 -0.1263
61577W        W62441  10.353  10.736   7.428  0.1681  0.1966 -0.0384
61578W        W62442   8.316  10.955   6.590  0.0938  0.2377 -0.2124
61579W        W62443   9.616  10.735   2.748  0.1453  0.0295 -0.1317
61580W        W62444  11.433  12.462   6.753  0.0940 -0.0278 -0.1970
61581W        W62445  11.742  10.013   5.115  0.0898 -0.0396 -0.2298
61582W        W62446   6.305  14.413   4.214  0.2026  0.0331 -0.1562
61583W        W62447   6.005  14.054   2.360 -0.0660 -0.1413  0.0436
61584W        W62448   8.261  14.662   8.552  0.0234  0.1808  0.2941
61585W        W62449  11.315  11.236   5.193  0.2229 -0.0823  0.4250
61586W        W62450  10.058  12.546  11.449  0.1094  0.0472  0.2853
61587W        W62451  11.147  10.183   3.637  0.0930 -0.0427 -0.0912
61588W        W62452  14.104  12.151   8.795  0.4479 -0.1698 -0.3728
61589W        W62453  12.390  14.556   6.650 -0.2994 -0.0248 -0.0846
61590W        W62454   7.704  12.197   6.333  0.1302 -0.2435  0.0024
61591W        W62455   8.480  17.827   4.936  0.1756 -0.2457 -0.1122
61592W        W62456  10.221  11.375   5.864 -0.0042 -0.4543 -0.1238
61593W        W62457   8.478  14.387   9.484  0.4199 -0.1017  0.2350
61594W        W62458  10.182  15.467   6.887 -0.0217 -0.0684  0.4890
61595W        W62459   9.928  14.422   4.645  0.0422  0.0204  0.0707
61596W        W62460   9.472  12.945   9.895  0.0216 -0.0213  0.3111
61597W        W62461   8.397  10.104   5.522 -0.0365  0.1495 -0.0875
61598W        W62462   9.210  13.769   5.664  0.1517  0.1032 -0.1948
61599W        W62463   7.814  11.838   5.909 -0.2514  0.3482  0.1352
61600W        W62464   8.202  12.465   6.879  0.2327  0.2304 -0.2075
61601W        W62465   9.900  11.362   5.417  0.0737 -0.1388  0.4113
61602W        W62466   9.436  15.610   4.097  0.1948 -0.0134  0.1616
61603W        W62467   8.417  14.550   7.376  0.0068 -0.2545  0.2421
61604W        W62468  11.739   9.035   7.665 -0.0359  0.1192  0.1267
61605W        W62469  11.073  10.763   8.154  0.1275 -0.0247  0.0734
61606W        W62470   8.344  14.885   5.185 -0.0098 -0.0951 -0.2526
61607W        W62471   7.438  11.286   7.121 -0.0484 -0.1486  0.1568
61608W        W62472   8.706   8.276   6.110  0.1601 -0.0099 -0.0173
61609W        W62473   8.593  12.710   7.186  0.0232  0.0100  0.2597
61610W        W62474   9.070  11.454   6.608  0.0135  0.1541 -0.0934
61611W        W62475   9.108  10.058   5.943  0.0547  0.0878 -0.1455
61612W        W62476  11.289  12.158   5.894  0.0645 -0.0962 -0.0882
61613W        W62477   7.667  12.676   6.623 -0.0025 -0.1528 -0.1493
61614W        W62478  10.128  15.431   1.610  0.2811  0.1263  0.1912
61615W        W62479   6.112  13.728   7.317 -0.0550 -0.1374 -0.2567
61616W        W62480  10.197  10.854   3.413 -0.1102 -0.2032 -0.0710
61617W        W62481   9.341  10.517   3.888  0.2271  0.2885  0.0651
61618W        W62482  10.434  11.527   4.729 -0.1778  0.1112  0.0936
61619W        W62483   9.424  12.218   5.185  0.0712 -0.3706  0.2715
61620W        W62484  12.849  14.681   5.939 -0.0989 -0.1764 -0.0927
61621W        W62485   7.829  14.471   8.727  0.1061 -0.3621 -0.0079
61622W        W62486  11.263  15.190   8.101 -0.1465  0.0104  0.2301
61623W        W62487   6.422  12.608   5.093  0.1188 -0.1594  0.1535
61624W        W62488  10.778  10.204   5.494 -0.4256  0.1169 -0.0461
61625W        W62489  10.410  12.358   8.300  0.0684 -0.0716  0.2077
61626W        W62490  10.016  14.204   7.146 -0.0804  0.2452 -0.1771
61627W        W62491   9.776  11.438   8.156  0.1928 -0.3960  0.2219
61628W        W62492   7.238  12.346   1.884 -0.2312 -0.1648 -0.0290
61629W        W62493  11.303  14.296   7.841  0.0475 -0.1666  0.0720
61630W        W62494   8.637  13.756   8.452  0.1803  0.2261  0.1093
61631W        W62495   6.561  10.528   5.219 -0.0064 -0.0843  0.0221
61632W        W62496   9.922  13.282   4.691 -0.1437 -0.1530 -0.0057
61633W        W62497   8.295  15.115   4.671 -0.1760  0.2255  0.1282
61634W        W62498   9.277  12.461   4.582  0.1381 -0.4364  0.0319
61635W        W62499  12.237  10.696   8.297  0.6623  0.0098 -0.0761
61636W        W62500  10.491  13.326   7.507 -0.1198  0.1413  0.1973
61637W        W62501   9.233  10.640   5.249 -0.1510 -0.0038  0.2928
61638W        W62502   7.854  14.856   5.993  0.1559  0.1983 -0.2306
61639W        W62503   7.666  13.833   8.380  0.0896  0.0605  0.1204
61640W        W62504   7.066  17.693   3.925  0.0752  0.1426  0.0078
61641W        W62505   7.940  11.307   5.579  0.2183 -0.1497 -0.0842
61642W        W62506   8.387  11.408   6.814 -0.0565  0.1335  0.2076
61643W        W62507  11.934  14.066   2.426  0.0097 -0.2349 -0.2402
61644W        W62508   9.692  13.821   3.311 -0.0352  0.3404 -0.1101
61645W        W62509   9.307  11.346   9.329 -0.1027 -0.1852  0.0480
61646W        W62510  12.376  13.103   7.412  0.0288  0.1257 -0.0443
61647W        W62511   9.097  14.199   5.472  0.1879 -0.2039 -0.0301
61648W        W62512  10.023  13.796   8.311  0.0757  0.3361  0.1938
61649W        W62513  12.050  10.011   6.682 -0.1141  0.1516  0.1429
61650W        W62514   9.304  12.685   7.543  0.0507  0.3327 -0.1636
61651W        W62515   9.222  11.830   6.932  0.1571 -0.0213 -0.3699
61652W        W62516   7.727  12.826   0.318 -0.2145 -0.0337  0.2489
61653W        W62517   8.734  11.775   6.855  0.2713 -0.0042  0.0175
61654W        W62518   8.564  11.838   4.845  0.0205 -0.1219 -0.1273
61655W        W62519   8.175   8.575   4.183 -0.1465 -0.1784 -0.1445
61656W        W62520   9.075  13.908   4.656 -0.0850  0.0923  0.0282
61657W        W62521   8.496  12.795   7.715  0.0072  0.0696  0.0544
61658W        W62522   8.720  14.960   4.810  0.0032 -0.1793 -0.1969
61659W        W62523  11.264  12.768   5.072 -0.1504 -0.2316 -0.0585
61660W        W62524  11.127  12.228   4.313  0.0498 -0.1661 -0.0332
61661W        W62525  10.932  11.171   8.809 -0.2315 -0.0401 -0.0799
61662W        W62526   9.164   9.904   4.671  0.0769 -0.1762 -0.0949
61663W        W62527   8.404  12.531   5.911 -0.1646  0.1283  0.1780
61664W        W62528   8.363  10.749   3.451 -0.1766 -0.1670 -0.4076
61665W        W62529   9.821  10.981   3.144  0.0409  0.0505  0.2180
61666W        W62530  13.709  13.415   5.955  0.2954 -0.2405  0.0262
61667W        W62531   7.590  13.089   4.949 -0.1212 -0.2754  0.0661
61668W        W62532   8.936  12.776   6.765  0.3707 -0.1737 -0.1127
61669W        W62533  10.205  12.439   6.272  0.0013  0.0615  0.2117
61670W        W62534   9.230  11.366   3.640 -0.0445 -0.0438  0.0399
61671W        W62535  12.646  14.768   7.582  0.1027 -0.3371 -0.3355
61672W        W62536  10.927  10.729   6.285  0.0475 -0.0659  0.1930
61673W        W62537   7.740  11.768   5.359  0.3605 -0.0751  0.1857
61674W        W62538   8.056  16.563   5.204 -0.0503  0.0467 -0.0339
61675W        W62539   8.098  12.946   6.736  0.1289 -0.0616 -0.2844
61676W        W62540   8.180  14.043  10.154  0.0792  0.1398  0.1568
61677W        W62541   9.184  11.698   6.100  0.1254  0.0096 -0.0509
61678W        W62542  10.482  13.157   6.063 -0.0004 -0.1651  0.2733
61679W        W62543  10.298  12.425   6.774  0.0756  0.0611  0.0546
61680W        W62544  12.116  14.920   7.596  0.0075  0.1615  0.0088
61681W        W62545  10.707  13.715   7.135  0.0041 -0.1372  0.0324
61682W        W62546   9.811  11.275   4.378 -0.2191  0.1195 -0.0580
61683W        W62547   9.267  12.150   4.125  0.0638 -0.0312  0.2266
61684W        W62548   9.017  13.716   6.276  0.0857  0.0223 -0.0670
61685W        W62549   8.657  12.300   6.598  0.2274  0.3479 -0.0777
61686W        W62550  10.712  12.397   7.386  0.1098 -0.1597 -0.0803
61687W        W62551   9.116  13.320   5.914  0.2535 -0.2852 -0.0084
61688W        W62552   8.638  15.750   6.769  0.2727  0.2464  0.0819
61689W        W62553   8.931  13.775   8.910 -0.1127 -0.0505 -0.0216
61690W        W62554   7.694  12.683   3.601  0.0211 -0.2653 -0.3520
61691W        W62555  11.030  12.328   2.384 -0.0827 -0.1353  0.0031
61692W        W62556  10.669  15.132   8.502 -0.0581 -0.1053 -0.2399
61693W        W62557   6.109  12.440   5.872 -0.1029 -0.0365  0.1867
61694W        W62558   8.110  13.515   9.965  0.1152 -0.0453 -0.0359
61695W        W62559  11.229  16.150   2.108  0.0952 -0.0157  0.0930
61696W        W62560   7.238  11.822   4.638 -0.1958 -0.1659 -0.2632
61697W        W62561  10.169  13.666   7.860  0.1450 -0.1925 -0.0233
61698W        W62562   9.916  13.253   6.194 -0.3374  0.0653  0.1963
61699W        W62563   9.450  11.365   6.345 -0.3303 -0.3440  0.1526
61700W        W62564   8.200  14.433   7.913  0.0453  0.4361  0.0911
61701W        W62565  10.393  14.585   6.351 -0.0967  0.1623 -0.1085
61702W        W62566   5.987  14.072   4.626  0.1138  0.1491 -0.1011
61703W        W62567   6.150  12.123   6.308  0.0454 -0.0354  0.0977
61704W        W62568  11.807  13.080   5.826 -0.1102  0.2345  0.1191
61705W        W62569  12.746  11.813   1.530 -0.1701  0.3073 -0.2320
61706W        W62570  11.384  11.680  10.488  0.2711  0.2445 -0.0841
61707W        W62571   9.855  13.009   8.901  0.0870  0.1094  0.1102
61708W        W62572  10.895  14.247   7.006 -0.0577 -0.0626 -0.1820
61709W        W62573  12.553  16.398  10.026 -0.0203  0.1933  0.2619
61710W        W62574   7.172  16.212   5.068  0.0206  0.0331  0.2442
61711W        W62575   9.991  13.715   6.025 -0.0306 -0.0674  0.1463
61712W        W62576   8.141  13.878   6.720  0.0384  0.0668  0.1769
61713W        W62577   7.025  12.229   4.439  0.1604  0.2419 -0.2731
61714W        W62578   6.853  16.414   6.021  0.3792 -0.0027 -0.1003
61715W        W62579  10.502  10.964   8.035 -0.0234  0.1985  0.1326
61716W        W62580   7.773  11.530   7.787  0.0307 -0.3411 -0.2267
61717W        W62581   7.249  13.526   2.775 -0.1195 -0.1487  0.0760
61718W        W62582   9.668  12.921   2.738  0.0865 -0.0210  0.2271
61719W        W62583   9.338  13.118   6.762  0.2934 -0.2102 -0.0272
61720W        W62584   9.359  10.637   4.394 -0.2011 -0.0487  0.0807
61721W        W62585   9.823  11.138   7.133  0.2239  0.0841  0.0306
61722W        W62586   9.484  11.993   5.716  0.1252 -0.1552 -0.1502
61723W        W62587   7.741  11.355   6.092 -0.0269 -0.0249 -0.2831
61724W        W62588   9.666  14.560   6.932  0.0289  0.1201  0.0248
61725W        W62589   8.820  14.010   4.090  0.0227 -0.2100 -0.3647
61726W        W62590  14.068  13.122   7.449  0.1361  0.0976 -0.1931
61727W        W62591  10.129  12.897   4.898  0.0897  0.1005 -0.1736
61728W        W62592   7.022  12.569   6.213 -0.2920  0.0046  0.1526
61729W        W62593   9.243  12.629   4.093 -0.2231  0.3539  0.1446
61730W        W62594   7.045  13.019   4.724 -0.1236 -0.1161 -0.4516
61731W        W62595  12.020  11.235   7.719  0.2719 -0.0713  0.1370
61732W        W62596   8.116  12.807   7.367  0.2385  0.0245  0.0155
61733W        W62597   6.654  12.053   6.470  0.1596  0.0531  0.1596
61734W        W62598   6.945  11.912   4.070  0.1391  0.0377 -0.1763
61735W        W62599  10.060  10.973   7.805  0.2706 -0.0556  0.2689
61736W        W62600   9.102  13.514   7.417 -0.3458 -0.0995  0.1271
61737W        W62601   8.366  12.593   4.535  0.2716 -0.1769 -0.0529
61738W        W62602  11.007  12.741   6.004  0.2900  0.1111 -0.1012
61739W        W62603   9.908  14.632   7.888  0.1115  0.1032 -0.1364
61740W        W62604   9.098  11.935   7.874 -0.0457  0.0662 -0.0174
61741W        W62605   7.612  14.516   6.344  0.0845  0.1779  0.0680
61742W        W62606   9.392  12.661   6.996  0.0167  0.1203 -0.2414
61743W        W62607   9.388  12.392   3.605 -0.0906 -0.1376 -0.2958
61744W        W62608   7.265  12.730   5.107 -0.1169 -0.1138 -0.0409
61745W        W62609  12.821  10.320   3.638 -0.0004 -0.0616 -0.1290
61746W        W62610   5.854  12.240   4.886 -0.1139  0.1245  0.2542
61747W        W62611  12.502  14.052   9.272  0.3138 -0.1008 -0.1863
61748W        W62612   6.871  17.412   5.064 -0.2045  0.0412  0.2352
61749W        W62613   9.800   8.924   4.631  0.1338 -0.1784  0.2996
61750W        W62614  10.884  11.360   5.501  0.0418  0.1076  0.1751
61751W        W62615  12.274  13.571   7.146 -0.2735  0.0390  0.3448
61752W        W62616  11.495  10.251   8.423  0.0615  0.0197  0.0031
61753W        W62617   5.745  11.618   5.106  0.0698  0.0734  0.1627
61754W        W62618   8.288  12.108   6.120  0.1974 -0.0539 -0.0894
61755W        W62619   7.498  10.663   5.580  0.1209 -0.1247  0.1555
61756W        W62620   8.889  11.880   7.403  0.1555 -0.1843  0.0213
61757W        W62621   8.118  12.473  10.120 -0.0630 -0.0429 -0.2064
61758W        W62622  10.211  12.473   7.308 -0.0490 -0.0489  0.2170
61759W        W62623  11.792   9.067   5.461  0.1227 -0.0218  0.2690
61760W        W62624   8.901  15.266   6.749 -0.0114 -0.0255  0.0346
61761W        W62625   9.459  13.467   7.109  0.0079 -0.0936  0.1394
61762W        W62626   4.771  14.480   7.845 -0.2518 -0.3015  0.0814
61763W        W62627   9.309  10.484   7.472 -0.3379  0.3441  0.0253
61764W        W62628  11.456  12.684   8.783 -0.0219 -0.0882  0.0415
61765W        W62629   8.562  12.253   5.526 -0.1435 -0.1839 -0.1277
61766W        W62630   9.859  13.724   4.237 -0.0561 -0.4471  0.0879
61767W        W62631   9.024  16.487   5.879  0.0609  0.0769  0.2538
61768W        W62632   8.036  12.780   5.009 -0.1477  0.1076 -0.0311
61769W        W62633  10.028  12.644   9.201 -0.1599 -0.1320 -0.0568
61770W        W62634   7.367  14.798   5.819 -0.0850  0.2133 -0.2011
61771W        W62635   8.149  14.026   9.190 -0.1305  0.0906  0.0394
61772W        W62636   8.727  14.265   7.839 -0.1480  0.1080 -0.0251
61773W        W62637   9.779  10.024   3.469 -0.2303  0.1330  0.0319
61774W        W62638   8.281  15.006  12.170 -0.0368 -0.3520  0.1548
61775W        W62639   7.817  15.689  12.279 -0.2356 -0.0525  0.2987
61776W        W62640  12.926  15.213   7.093  0.1509 -0.0906  0.0073
61777W        W62641  12.274  11.400  11.031  0.1860  0.0737  0.1438
61778W        W62642   9.537  13.713   9.565  0.4341  0.1324  0.1036
61779W        W62643  10.185  11.044  10.682  0.2697 -0.3103 -0.3008
61780W        W62644   8.200  12.605   8.995 -0.2744  0.0168  0.1867
61781W        W62645  10.831  11.308   9.254  0.1749  0.1386 -0.0067
61782W        W62646   9.746  14.817  11.227  0.2432 -0.0719  0.0867
61783W        W62647   8.135  12.353  10.940  0.0154  0.2374  0.1189
61784W        W62648  10.295   9.670  10.817  0.3090 -0.1058 -0.0014
61785W        W62649  12.854  11.698   9.287  0.0056  0.0309  0.1461
61786W        W62650  10.063  11.339   9.947 -0.0558 -0.1161  0.3455
61787W        W62651  10.121  14.811  14.124  0.0436 -0.1442 -0.2539
61788W        W62652   8.662  13.980  10.245  0.0505  0.2465 -0.0745
61789W        W62653   5.624  16.203  10.667  0.0223 -0.0501  0.1630
61790W        W62654   8.562  12.813   9.236 -0.1963  0.1973 -0.3795
61791W        W62655   7.665  12.365  11.140  0.0391  0.1245 -0.2038
61792W        W62656   9.385  13.578  11.922  0.1361  0.3459 -0.1634
61793W        W62657  12.261  12.774   7.785  0.0111 -0.0336  0.0330
61794W        W62658   9.863  12.276   8.088  0.0752 -0.1003 -0.1198
61795W        W62659   8.170  10.960   7.624  0.2493  0.0171  0.0262
61796W        W62660  12.469  13.452  10.009 -0.0550  0.0612 -0.1460
61797W        W62661   7.202  14.079   8.629 -0.2726  0.2157 -0.1656
61798W        W62662   5.593  13.157   7.431 -0.3127 -0.0029 -0.0656
61799W        W62663   9.211  12.697  11.441  0.2548  0.1646 -0.0601
61800W        W62664  11.872   9.881   7.833 -0.0731 -0.2612  0.1016
61801W        W62665   5.704  15.696   9.037 -0.1546  0.1820 -0.2652
61802W        W62666  10.734  13.595   8.951 -0.3242  0.2344 -0.3683
61803W        W62667   9.760   9.390   9.822  0.0294  0.1946  0.1085
61804W        W62668  10.597  11.596   7.765 -0.1424 -0.1360  0.1033
61805W        W62669  10.471  12.231  11.879 -0.1345  0.0899  0.0186
61806W        W62670  10.914  14.295  10.984 -0.1209  0.3950  0.0467
61807W        W62671   7.557  14.260  12.241 -0.0649 -0.1015 -0.6919
61808W        W62672   6.804  11.572  11.144 -0.2024  0.1377  0.0954
61809W        W62673  11.672  14.190  11.659  0.0465 -0.0894  0.1790
61810W        W62674   9.533  11.319   4.773  0.0221  0.1665  0.0609
61811W        W62675   8.815  12.221  12.187 -0.1820 -0.0903  0.2188
61812W        W62676  10.535  12.179   9.204  0.0551  0.0980  0.1871
61813W        W62677  10.210  11.450   6.911  0.4024  0.1503 -0.2107
61814W        W62678   8.641  11.143   7.542 -0.0621 -0.4814 -0.0954
61815W        W62679  13.270  10.131   9.098  0.0952  0.0838 -0.1123
61816W        W62680   9.436  14.069  11.081  0.0087 -0.0546  0.1710
61817W        W62681   9.194  13.298   9.256 -0.1859 -0.0531 -0.2415
61818W        W62682   5.758  15.867  10.209 -0.3177 -0.0894 -0.1848
61819W        W62683   7.235  13.372  10.172  0.2848  0.0367 -0.1044
61820W        W62684   9.138  11.341  10.171  0.1185 -0.1048  0.2717
61821W        W62685  10.362  13.547   9.375  0.0880  0.1093 -0.4865
61822W        W62686  10.716  13.181   8.575 -0.0510  0.1855 -0.0887
61823W        W62687  12.064  13.701   9.926  0.1493 -0.4499 -0.2282
61824W        W62688   9.659  13.230  10.919  0.0102  0.1622  0.1052
61825W        W62689   8.981  12.356  10.244  0.1461  0.1850 -0.0551
61826W        W62690  11.408  13.130   9.902  0.2582  0.2138 -0.1731
61827W        W62691  11.747   9.680   7.379 -0.0018  0.0586 -0.0671
61828W        W62692  11.275   7.210   6.272 -0.1463 -0.1968 -0.3744
61829W        W62693   9.345  13.128   8.721 -0.2501 -0.0437  0.0134
61830W        W62694  10.554   9.862   8.377 -0.0876 -0.0070  0.2431
61831W        W62695  11.322  11.023   7.504 -0.2357  0.1075  0.2144
61832W        W62696   6.785  14.236  11.214  0.1445 -0.0457  0.1355
61833W        W62697   9.339  12.407   9.887 -0.0227 -0.1713 -0.1715
61834W        W62698  12.918   9.425   6.683 -0.1686  0.3237  0.0933
61835W        W62699   8.275  14.774  10.506  0.0630  0.0088 -0.0093
61836W        W62700   9.187  14.494  10.720  0.0503  0.0072  0.0702
61837W        W62701  10.351  12.420   7.793  0.5067 -0.1732 -0.0899
61838W        W62702  10.590  11.549  12.797 -0.0124  0.1982  0.0096
61839W        W62703  13.067   9.797   8.117  0.1211  0.0083 -0.2953
61840W        W62704   6.746  11.644   7.771  0.0039 -0.2860  0.1950
61841W        W62705   9.065  12.252   9.268 -0.2135 -0.2803  0.2743
61842W        W62706   7.311  16.865   9.444  0.0710  0.3463 -0.1170
61843W        W62707  10.442  14.294   9.867 -0.0542  0.1078  0.1906
61844W        W62708  12.286  14.083  10.161  0.1356  0.0624 -0.2078
61845W        W62709  10.064  14.436  10.562 -0.1410 -0.0983 -0.2029
61846W        W62710  10.714  15.579   8.817 -0.0399 -0.3031 -0.1503
61847W        W62711  12.693  14.452   8.133 -0.3030 -0.0275  0.2908
61848W        W62712  11.532  11.939   7.617 -0.2268  0.1846  0.1085
61849W        W62713  11.867  12.529  11.713  0.0400  0.0197 -0.1041
61850W        W62714   7.206  13.596   9.231  0.0913 -0.2389  0.0313
61851W        W62715  11.563  13.637  11.809 -0.0154  0.1626 -0.0685
61852W        W62716  10.515  10.116   7.635  0.0733 -0.0968  0.3148
61853W        W62717  11.250  12.014   8.425 -0.0324  0.0950 -0.0643
61854W        W62718   9.315  13.098  11.805  0.0211 -0.0631 -0.1957
61855W        W62719  10.992  14.399   9.884 -0.2139 -0.1983  0.1038
61856W        W62720   6.888  11.203   8.060 -0.1687 -0.1167  0.1687
61857W        W62721  10.285  12.346  10.126  0.2453  0.0098  0.1843
61858W        W62722   8.870  10.945  10.616 -0.2520  0.2504  0.1888
61859W        W62723  11.157  11.330   6.184  0.0513  0.1665  0.2466
61860W        W62724  10.451  15.204   8.985  0.1376 -0.1925 -0.0890
61861W        W62725  10.844  10.949  12.587  0.0102  0.1062 -0.0753
61862W        W62726  12.577  13.717  10.420 -0.0241  0.1996 -0.1738
61863W        W62727   9.071  11.893  11.962 -0.0386  0.2704 -0.1182
61864W        W62728  11.504   8.243   8.494  0.1899 -0.0841 -0.1024
61865W        W62729  12.071  12.510  12.345 -0.0004 -0.1608 -0.2242
61866W        W62730   7.620  14.173  10.109  0.2264 -0.1151 -0.3092
61867W        W62731  10.708  11.126   7.542 -0.0189 -0.1055  0.0204
61868W        W62732   9.549  10.442  11.582  0.1089  0.0275  0.2259
61869W        W62733  12.322  10.303  10.631 -0.1645 -0.0723 -0.0174
61870W        W62734  10.356  12.635   8.808 -0.3543  0.0807  0.0149
61871W        W62735  10.894  15.549  12.517  0.0804  0.0246  0.0898
61872W        W62736   7.150  11.328   6.109  0.0429 -0.3252  0.3318
61873W        W62737  11.767  10.729   8.934 -0.0492  0.1235 -0.0086
61874W        W62738  13.028  15.691   9.001 -0.0368 -0.0146 -0.1724
61875W        W62739   7.044  13.538   9.745  0.1717  0.0591 -0.0651
61876W        W62740  10.044  11.023   8.377  0.0892  0.1442  0.2306
61877W        W62741  11.058  12.892   9.529  0.1252 -0.0627  0.0847
61878W        W62742  11.084  10.180   9.467  0.3622 -0.2684  0.0111
61879W        W62743  10.463  12.375  12.901  0.1407 -0.0231  0.0723
61880W        W62744   7.709  12.528   5.258 -0.3515 -0.0283 -0.2090
61881W        W62745  11.959  12.800  10.472  0.0858  0.1400 -0.2301
61882W        W62746   9.967  10.358   8.743 -0.2130  0.0596  0.0549
61883W        W62747   8.018  12.625  11.353 -0.1967 -0.3356  0.2347
61884W        W62748   8.189  13.260  12.450  0.0275  0.2019 -0.0464
61885W        W62749   9.709  12.929  11.363 -0.1671 -0.1377  0.1409
61886W        W62750  14.957   9.482   9.577 -0.0181  0.1243  0.1678
61887W        W62751  10.884  12.583  12.743  0.2034  0.1622  0.0343
61888W        W62752  12.172  14.157   9.689  0.2814  0.1724  0.0628
61889W        W62753   9.189  11.029   7.465 -0.3268  0.2149 -0.1938
61890W        W62754   8.033   7.193   9.423 -0.1225  0.3336 -0.3819
61891W        W62755  12.314  12.423   9.109 -0.0355  0.0359 -0.1299
61892W        W62756   9.775   9.908   7.896  0.1853  0.0899 -0.0420
61893W        W62757   7.762  13.139  10.565  0.4493  0.3658 -0.0393
61894W        W62758  10.613  12.058   6.425  0.0882 -0.1884 -0.0567
61895W        W62759  10.989  12.705  11.290 -0.3170  0.0606  0.1283
61896W        W62760  10.694  11.572   9.755  0.0091  0.2441  0.0402
61897W        W62761  10.876  11.838   9.299  0.2536  0.0018  0.0061
61898W        W62762   9.918  12.539   8.589  0.0487 -0.2279 -0.1341
61899W        W62763   9.516  12.601   8.941 -0.1832  0.2066  0.0987
61900W        W62764   9.435  12.750  10.947  0.0881 -0.1463 -0.1418
61901W        W62765  10.417  10.590   9.661  0.3029  0.0997 -0.1059
61902W        W62766  12.117  15.237  12.547  0.2574  0.0840 -0.3697
61903W        W62767   9.199  13.247  13.028 -0.2781  0.2924  0.1249
61904W        W62768   9.108  14.504  11.675 -0.0512  0.0655 -0.1091
61905W        W62769   9.726  11.855  11.343  0.3836  0.0701 -0.0350
61906W        W62770   8.425  13.011   8.767  0.5850 -0.4308  0.0776
61907W        W62771  10.237   9.958   6.515  0.0188 -0.1069  0.0397
61908W        W62772  10.640  12.187  10.572 -0.1675  0.1121 -0.0485
61909W        W62773   5.766  14.303  11.406 -0.0554  0.1652  0.2910
61910W        W62774  12.706  10.606   9.868  0.0308  0.1007 -0.0775
61911W        W62775   9.039  12.366  11.069  0.2157 -0.0504  0.1557
61912W        W62776  10.890  12.351   8.467 -0.2925  0.1762 -0.1926
61913W        W62777   7.713  14.418   7.810 -0.1230 -0.1715  0.0555
61914W        W62778   8.955  10.297   7.859 -0.0367  0.0307 -0.0571
61915W        W62779  10.760   8.169  10.780 -0.2469 -0.2240  0.0991
61916W        W62780   6.338  14.459   7.862  0.0964 -0.0932 -0.2901
61917W        W62781   8.168  12.124   8.059  0.1126  0.3798 -0.0614
61918W        W62782   8.988  12.053   9.781  0.3197 -0.2178  0.0728
61919W        W62783   8.500  11.038   8.051  0.2959 -0.2073  0.0158
61920W        W62784  10.397   9.203   6.500  0.1766  0.1679 -0.0704
61921W        W62785  11.004  13.202   8.996 -0.2946 -0.0172  0.3829
61922W        W62786  10.525  13.506  11.133  0.0316  0.0939 -0.0285
61923W        W62787   8.867  13.262   8.878 -0.1788  0.0096  0.1323
61924W        W62788   9.960  11.648  11.791  0.0548 -0.2347  0.2058
61925W        W62789   6.715  12.328   7.083 -0.0929  0.1301 -0.0027
61926W        W62790  11.502  10.576  10.641  0.1000  0.1073 -0.1219
61927W        W62791  10.057  11.125   8.899  0.0314 -0.3266  0.2458
61928W        W62792   8.196  13.813  11.797  0.1946  0.1030 -0.3093
61929W        W62793  12.670  11.597  11.391 -0.0530 -0.2077 -0.3678
61930W        W62794   8.745  13.572  10.638 -0.0737 -0.0885 -0.1697
61931W        W62795   8.127  10.222   7.746  0.0551  0.4404  0.3339
61932W        W62796  10.681   8.862   6.704 -0.0249 -0.2910  0.2300
61933W        W62797   6.225  11.692   7.627 -0.0542  0.0417 -0.2772
61934W        W62798   9.758  11.365  12.687  0.0425  0.1287 -0.0023
61935W        W62799   9.787  14.860  10.502  0.0723 -0.1089  0.2904
61936W        W62800  10.160  11.507  12.443  0.3329 -0.0444 -0.0320
61937W        W62801   9.851  11.417  10.889  0.0860 -0.1646  0.0530
61938W        W62802   9.056  12.831  10.117  0.1629  0.0496  0.1741
61939W        W62803  13.813  10.735   9.477 -0.1412 -0.3095 -0.2894
61940W        W62804   6.378  14.445  11.437 -0.2637 -0.3454 -0.4127
61941W        W62805   6.681  14.579  10.133 -0.0938  0.2288 -0.1503
61942W        W62806   9.066  15.201  10.068  0.0629 -0.1730 -0.2934
61943W        W62807   7.801  11.667   6.532 -0.1507 -0.4618  0.0704
61944W        W62808  10.992  12.182   8.980 -0.0834  0.1228  0.1534
61945W        W62809  13.244  11.384  10.081  0.1700  0.1578 -0.2376
61946W        W62810  11.430  15.435  10.754  0.1503 -0.0262  0.1193
61947W        W62811  11.092  15.094  10.308 -0.0326 -0.2361 -0.3068
61948W        W62812   7.236  13.872  10.190 -0.0761 -0.0395  0.2530
61949W        W62813  11.533  12.428   7.647 -0.1299 -0.4256  0.2421
61950W        W62814  10.868  13.922  10.045  0.1194 -0.1065  0.0933
61951W        W62815   6.944  14.579   9.434  0.3632  0.1879  0.1768
61952W        W62816   6.243  14.109   6.468 -0.1055 -0.0658 -0.0866
61953W        W62817  11.655  10.094   9.428  0.0126 -0.2637  0.0354
61954W        W62818   8.887  14.973  10.768  0.0048 -0.0897 -0.0356
61955W        W62819  11.117  11.780   7.926 -0.0849  0.2956 -0.3392
61956W        W62820  10.068  11.783   7.284 -0.1333 -0.1075 -0.1128
61957W        W62821  10.442   9.263   7.453 -0.0060  0.0230 -0.2799
61958W        W62822  11.451  10.813   6.158  0.1374 -0.0826 -0.3105
61959W        W62823  10.982  11.363  10.717 -0.4625 -0.1785  0.1598
61960W        W62824  10.392  12.012   7.012  0.0255 -0.0271 -0.1067
61961W        W62825   8.457  11.827   5.698  0.1268 -0.0123  0.0742
61962W        W62826  12.425  15.308   9.586  0.2819  0.0028 -0.0107
61963W        W62827   8.231  14.433  10.923  0.0983  0.0736  0.2262
61964W        W62828   7.442  11.214   7.580  0.1809 -0.0056  0.2988
61965W        W62829   7.342  14.517   8.712  0.0069  0.0787 -0.1115
61966W        W62830   9.004  13.490  11.572 -0.0055  0.0910  0.2274
61967W        W62831   7.800  11.291  10.175  0.0870 -0.1269  0.3145
61968W        W62832  12.274  10.705  12.507 -0.2150  0.2405 -0.0476
61969W        W62833   7.182  10.866   7.866 -0.0160 -0.1323  0.3595
61970W        W62834  10.395   9.137   9.399  0.0137 -0.1565  0.0179
61971W        W62835   8.967   9.113   7.412  0.0225 -0.1438  0.0678
61972W        W62836  11.355   9.810   8.632  0.1485  0.2139  0.1045
61973W        W62837  10.970   9.397  10.244  0.3381 -0.1594  0.2432
61974W        W62838   7.717  10.469   5.988  0.1309 -0.0872 -0.0720
61975W        W62839   9.316   9.673   8.103 -0.1215 -0.0625 -0.0266
61976W        W62840  10.027  13.483   8.706  0.2984  0.0134 -0.0767
61977W        W62841   9.339   9.629   9.162 -0.1176  0.2083  0.2433
61978W        W62842  10.265  11.962  12.686  0.1478  0.2573 -0.4935
61979W        W62843   6.188   9.746   5.584  0.1409 -0.1491  0.0553
61980W        W62844   9.441  10.929  10.113  0.0096 -0.0759  0.0175
61981W        W62845   9.460  11.466   9.808 -0.3010  0.2797 -0.4241
61982W        W62846   9.221  15.081   9.600  0.2509 -0.1631  0.0607
61983W        W62847   7.725  13.571  10.263  0.2421 -0.3329  0.0528
61984W        W62848   7.870  14.433  10.446 -0.0064  0.0727 -0.4588
61985W        W62849   6.581  12.809   8.891 -0.0228 -0.0481  0.1036
61986W        W62850  13.114  11.396   8.220  0.0302  0.0046 -0.1116
61987W        W62851  12.658  12.631  12.515  0.0961  0.0501  0.2185
61988W        W62852  13.367  12.236  10.248 -0.1698  0.0207 -0.0637
61989W        W62853  12.480  12.369   8.633 -0.3200 -0.2579 -0.0436
61990W        W62854   9.886  13.400   7.510  0.1815 -0.1698 -0.4502
61991W        W62855  10.802  14.135   8.908  0.3701 -0.2069 -0.1099
61992W        W62856   7.112  14.089  10.787 -0.1286 -0.2353 -0.2121
61993W        W62857  10.116  14.086  11.898 -0.3389 -0.2073  0.2760
61994W        W62858  14.751  11.004  12.551  0.0896  0.2271 -0.0229
61995W        W62859   8.819  11.020   6.898  0.1919  0.1433  0.0335
61996W        W62860   9.281  13.534  10.849  0.0437  0.2869  0.1729
61997W        W62861  10.066  11.619   6.462 -0.0638 -0.0117  0.0081
61998W        W62862  11.327  14.681   8.112  0.0476 -0.0293  0.1569
61999W        W62863   9.363  11.396  11.163  0.0248  0.0738  0.0419
62000W        W62864   8.753  13.666   7.684  0.1364  0.3716 -0.0211
62001W        W62865  11.703  13.223  12.561  0.0215 -0.0198  0.3395
62002W        W62866   8.208  12.855  10.624 -0.0479 -0.1815  0.1931
62003W        W62867  10.287  14.772  10.350  0.1128 -0.2185 -0.1392
62004W        W62868   6.880  13.350  11.502  0.1147  0.2932  0.3390
62005W        W62869   8.118  10.711  13.546 -0.0074  0.2732 -0.1404
62006W        W62870   9.919   8.987   6.323  0.2737  0.0716  0.2233
62007W        W62871  10.978  13.478   9.756 -0.3189 -0.1768 -0.1134
62008W        W62872  10.959  12.416  11.726  0.0030  0.1606  0.1495
62009W        W62873   9.326  13.374  10.076 -0.5057  0.1414 -0.2043
62010W        W62874  12.470   9.877   9.806  0.3542 -0.0144  0.1566
62011W        W62875  10.933  13.193  11.203 -0.2330 -0.0414  0.0944
62012W        W62876   7.266  16.998  11.729 -0.1128  0.0058  0.2846
62013W        W62877   9.943  15.113   8.998 -0.2869  0.0362  0.3622
62014W        W62878   9.595  11.601   7.261 -0.0980 -0.0381  0.2418
62015W        W62879   8.184  15.370  10.287 -0.2205  0.0014 -0.1880
62016W        W62880  10.424  15.194  10.013  0.2057  0.0483 -0.1243
62017W        W62881   7.356  10.795   8.812  0.0551  0.1455  0.0390
62018W        W62882   9.557   8.992  10.228 -0.0247  0.1404  0.0517
62019W        W62883   9.926  14.009   9.610 -0.0081  0.2219 -0.2885
62020W        W62884  11.453  15.322   9.844 -0.1825  0.0752  0.1667
62021W        W62885   8.028  16.098   7.802  0.1213 -0.1343 -0.0410
62022W        W62886  13.073  17.952   9.322 -0.2001  0.0099  0.0295
62023W        W62887   9.114   9.494   9.626 -0.1152 -0.1227  0.1405
62024W        W62888   6.935  14.058   9.504  0.4320  0.1906  0.1494
62025W        W62889   7.373  14.546   7.347 -0.0920  0.5513 -0.2082
62026W        W62890  12.315  14.676   9.919  0.1933  0.2152 -0.2156
62027W        W62891  11.289  11.181  12.759 -0.0292 -0.1430  0.1250
62028W        W62892   7.209  12.038   7.144 -0.2672  0.1739 -0.0574
62029W        W62893  10.612  12.066  11.045 -0.2815  0.0088  0.0070
62030W        W62894  10.830   9.598   8.735  0.2123 -0.1462 -0.2990
62031W        W62895   9.294  11.944  10.976  0.0196 -0.2201  0.0421
62032W        W62896  10.924  12.359   9.565 -0.1949  0.1654  0.0282
62033W        W62897  10.190   9.065   8.218  0.1549 -0.1536 -0.2662
62034W        W62898  12.909  10.906   8.892 -0.1037 -0.4107 -0.2534
62035W        W62899  12.670  11.033  14.445  0.2238  0.0007  0.1882
62036W        W62900   9.287  12.060  12.427 -0.0315 -0.0696 -0.1109
62037W        W62901  10.671  10.488  10.303  0.1141 -0.0549  0.3594
62038W        W62902   8.215  13.417  10.458 -0.3379  0.0693 -0.1963
62039W        W62903   7.250  15.811  12.035 -0.1667 -0.0955 -0.1176
62040W        W62904   9.119  10.683   8.795 -0.0689 -0.0573 -0.1190
62041W        W62905   8.759  10.645   8.242 -0.2238 -0.0535 -0.1496
62042W        W62906  10.028  11.992   7.721 -0.2391 -0.0774 -0.0768
62043W        W62907  10.655  11.675   6.746 -0.4649  0.1139  0.1603
62044W        W62908   6.344  15.118   8.530 -0.0109  0.0970  0.0033
62045W        W62909   8.917  11.084   9.109 -0.2879  0.2729  0.1653
62046W        W62910  10.901  11.216   8.007 -0.3639 -0.1416 -0.1115
62047W        W62911   6.750  14.205  10.428 -0.2736  0.0500  0.1632
62048W        W62912   8.780  10.730  11.620  0.2024 -0.2767  0.0703
62049W        W62913   9.671  12.310  12.236 -0.1486  0.3660  0.2645
62050W        W62914   8.886  12.059  10.675  0.3123  0.1460 -0.0061
62051W        W62915   7.945  15.574  11.659  0.1049 -0.0628  0.2676
62052W        W62916   9.329  11.167   6.979  0.5213 -0.1482 -0.1162
62053W        W62917   7.765  14.938   9.689 -0.3565  0.1643 -0.0905
62054W        W62918   9.150  14.275  10.254 -0.2854 -0.0089  0.0305
62055W        W62919   9.107  10.137   6.514 -0.1275 -0.1354 -0.0582
62056W        W62920   8.209  10.975  10.061 -0.1228 -0.2985  0.1135
62057W        W62921   6.050  15.340   9.006 -0.4060  0.5228 -0.1130
62058W        W62922   7.602  10.318   8.596 -0.0212  0.0992  0.0042
62059W        W62923  10.805  14.113  12.835  0.0256  0.1172 -0.1339
62060W        W62924  10.201  10.498   7.859 -0.3304  0.1345 -0.0971
62061W        W62925   7.994  11.098  12.155 -0.2469  0.2580  0.1562
62062W        W62926   9.864  10.249   6.843 -0.0892  0.1301 -0.1256
62063W        W62927   9.301  14.612   9.358  0.2161 -0.0077  0.0403
62064W        W62928   7.868  13.115   9.606  0.3156 -0.2574 -0.1205
62065W        W62929   9.234  10.980   6.509  0.1459  0.3707 -0.0562
62066W        W62930   8.940   9.676   7.263  0.0172 -0.0802  0.0781
62067W        W62931   9.216  13.770  10.371  0.1106  0.0355 -0.1238
62068W        W62932   9.016  12.682  10.630  0.4412  0.1085 -0.2575
62069W        W62933   8.288  12.370   7.537  0.0918 -0.1218  0.1103
62070W        W62934   9.231  11.659  10.535 -0.0481  0.1687 -0.2975
62071W        W62935  10.873  13.848  11.190  0.0028  0.0762 -0.0344
62072W        W62936  12.875   9.974  10.789  0.1143  0.0309  0.0132
62073W        W62937   7.585  16.361   7.742  0.0547  0.0060 -0.1245
62074W        W62938   7.669  13.787   9.324 -0.3469 -0.2742  0.1321
62075W        W62939   8.389  11.816  10.806  0.0700 -0.0896  0.1707
62076W        W62940   9.286  14.792  12.298  0.2182  0.1120 -0.1591
62077W        W62941  12.181  13.648   8.906 -0.1195  0.1434  0.1363
62078W        W62942   9.579  12.756   7.943 -0.2823 -0.0197 -0.2763
62079W        W62943  11.470  15.376   9.259  0.0774 -0.3600  0.0432
62080W        W62944   9.581  16.609  12.710 -0.2151  0.0389  0.1017
62081W        W62945   9.443  10.288   8.617  0.1349 -0.2305  0.0413
62082W        W62946   8.968  10.228   8.436 -0.2445  0.0858  0.2353
62083W        W62947   9.222  15.326  11.194 -0.1324  0.0919 -0.0834
62084W        W62948   9.339   9.951   7.621 -0.0439  0.2005  0.2273
62085W        W62949  11.297  13.923   9.742  0.0457  0.0933  0.2200
62086W        W62950  10.536   8.380   6.557 -0.2433  0.0693 -0.2616
62087W        W62951   6.930  16.097  12.320  0.1455  0.2462  0.1093
62088W        W62952  10.871  16.472   9.244 -0.0375  0.0518 -0.1636
62089W        W62953   9.798  13.445  11.682 -0.1079  0.0611 -0.0961
62090W        W62954   9.750  11.202   9.512 -0.5332 -0.0182  0.0926
62091W        W62955   9.564  10.693   7.062 -0.1207  0.0671  0.1458
62092W        W62956  11.950  13.705  12.163 -0.1474  0.0922  0.0234
62093W        W62957   7.456  10.480   9.627  0.3151 -0.3536  0.3351
62094W        W62958   8.548  14.413   9.999 -0.0252  0.2094 -0.0048
62095W        W62959  14.103  15.481   4.857 -0.1516 -0.0457  0.1388
62096W        W62960   9.025  12.302   8.297  0.3563  0.3053  0.1058
62097W        W62961   9.652  14.365  11.505  0.1000  0.2458  0.0262
62098W        W62962   6.589  10.909   8.324  0.0214  0.1608  0.0919
62099W        W62963   8.011  14.492   9.873  0.0130  0.3225  0.0355
62100W        W62964   9.478  10.784   7.857 -0.0098  0.2137 -0.0281
62101W        W62965   7.082  12.859   7.710  0.2343 -0.2089 -0.3430
62102W        W62966   7.680  13.302   9.154 -0.2874  0.2269  0.2063
62103W        W62967   8.899  10.426   9.673 -0.2154 -0.0074 -0.1100
62104W        W62968   9.661   9.291   8.143  0.2713 -0.0982  0.1417
62105W        W62969  10.355   8.021   6.200 -0.0443  0.1258 -0.1756
62106W        W62970  14.217  15.238  11.022  0.0391  0.1177  0.0387
62107W        W62971  10.620  11.639   8.926 -0.0432 -0.0392  0.0512
62108W        W62972  11.686  11.789   8.670 -0.0599 -0.1999  0.1507
62109W        W62973  14.423  15.942  10.681 -0.0631  0.1922 -0.3794
62110W        W62974   7.041  15.860   9.681  0.2096  0.0833  0.0955
62111W        W62975  12.192  14.732   7.075  0.0055 -0.2045 -0.4351
62112W        W62976  10.106  12.734   8.131  0.0699 -0.1936 -0.4393
62113W        W62977   7.916  11.117   8.068 -0.0710 -0.0365  0.5439
62114W        W62978   9.769  15.711   8.400 -0.0102 -0.4245  0.1002
62115W        W62979   7.996  11.265  12.684 -0.3191 -0.0996 -0.2527
62116W        W62980   9.392  11.953  10.090 -0.1249  0.1375 -0.1454
62117W        W62981   3.803  14.943   7.829 -0.0678 -0.2738 -0.0036
62118W        W62982  11.321  12.532   9.279 -0.0359  0.0429 -0.0533
62119W        W62983  12.234  16.739  10.227  0.4389  0.3441 -0.0147
62120W        W62984   9.448  11.929   8.292  0.2011 -0.2488 -0.2360
62121W        W62985   6.885  11.153  11.838 -0.3782  0.1266  0.2476
62122W        W62986  10.751  10.718   8.581  0.2075  0.1506  0.4932
62123W        W62987   5.686  10.632   8.937 -0.5636  0.1692  0.2859
62124W        W62988  12.436  12.603  10.352 -0.1532 -0.0333  0.2140
62125W        W62989  12.924  10.704   7.794  0.1966 -0.0459 -0.0428
62126W        W62990   9.870  13.020  11.924  0.0816 -0.0956 -0.3284
62127W        W62991  10.258  15.931  10.370 -0.0847 -0.0488 -0.1113
62128W        W62992   7.180  16.603   9.908 -0.1246 -0.0465  0.1607
62129W        W62993  12.693  10.560   8.201 -0.1634  0.2225  0.2234
62130W        W62994   8.460  13.785   9.784  0.2335 -0.3382  0.0092
62131W        W62995   9.984  10.761   9.371 -0.0119 -0.0763 -0.1765
62132W        W62996   9.519   9.525  10.248 -0.2758  0.0981 -0.2648
62133W        W62997   9.317  10.751   9.346 -0.2373 -0.1710 -0.0418
62134W        W62998   7.218  11.616   7.966  0.1307  0.0813 -0.0286
62135W        W62999  12.112  10.522  13.441  0.0451 -0.0635 -0.0321
62136W        W63000  10.351  13.080  10.804 -0.1356 -0.1053  0.3458
62137W        W63001  12.023  11.619   9.076  0.0669  0.0393 -0.0696
62138W        W63002   9.752  15.856   9.447  0.1186 -0.0187  0.0164
62139W        W63003   8.454  15.292   9.159 -0.2248  0.2470 -0.2056
62140W        W63004   8.474  10.430  11.310  0.0582 -0.2544  0.0627
62141W        W63005  13.449  14.741  11.135 -0.0293  0.1390 -0.0429
62142W        W63006  11.650  11.850   6.841 -0.0024 -0.2207 -0.1208
62143W        W63007  11.776  12.762   7.985  0.0733  0.0462  0.0131
62144W        W63008   8.678  11.689   6.260 -0.1437  0.3640  0.0873
62145W        W63009  11.336  10.503   7.196  0.1510 -0.0443 -0.1766
62146W        W63010  11.084  10.928   5.797  0.1651 -0.1858 -0.2335
62147W        W63011  12.775  13.679   8.762 -0.1871  0.0224  0.1000
62148W        W63012  10.776  14.621   8.544 -0.1854 -0.2075  0.0917
62149W        W63013   8.596  10.053   9.868  0.0411 -0.0961 -0.2632
62150W        W63014   8.780  12.595  11.844  0.1817 -0.0526 -0.0157
62151W        W63015   9.197  14.582   8.723  0.1545 -0.1622 -0.1648
62152W        W63016  10.642  10.643  11.148  0.0992  0.1662 -0.1895
62153W        W63017   8.391  14.637  11.392  0.0244  0.3358 -0.0414
62154W        W63018   9.047  13.776   9.888  0.0547 -0.3271  0.1151
62155W        W63019   9.769  12.229   9.747  0.0218  0.2028  0.1802
62156W        W63020   7.265  14.660  11.631  0.0946  0.2252  0.2521
62157W        W63021  13.592  11.740   9.538 -0.1350 -0.1128  0.0672
62158W        W63022  10.746  13.900  10.700  0.1303  0.0251 -0.0618
62159W        W63023   9.708  13.011   8.436  0.0399 -0.0178 -0.3079
62160W        W63024  11.878  11.762   6.349 -0.0005 -0.0993  0.1875
62161W        W63025   9.246  13.290  12.453 -0.1846  0.0815  0.2486
62162W        W63026   5.327  15.055  11.956 -0.0331 -0.0670 -0.1403
62163W        W63027  10.624  12.676  10.345  0.1941 -0.1484  0.0194
62164W        W63028   9.626  14.839  11.954 -0.0752 -0.0067  0.0260
62165W        W63029   5.767  14.605   8.553 -0.2786 -0.1596  0.0418
62166W        W63030  11.136  13.993   7.510  0.4911  0.0621 -0.1424
62167W        W63031   8.895  12.847  11.100  0.2331 -0.0618 -0.4775
62168W        W63032   9.172  15.632   9.634  0.2234  0.0965 -0.3401
62169W        W63033   9.870  11.819  10.093 -0.1122  0.2367 -0.2049
62170W        W63034  10.065  13.279  11.152  0.2863  0.1053 -0.2198
62171W        W63035   7.809  16.116  11.991 -0.1485  0.2270  0.2439
62172W        W63036   9.683  13.472  10.510  0.0515 -0.3983 -0.2836
62173W        W63037  10.244  10.734   6.016 -0.2639  0.3889  0.2412
62174W        W63038   6.106  14.590  13.575 -0.0624 -0.0379  0.0762
62175W        W63039   9.458  11.687  14.043 -0.2201 -0.0823  0.0531
62176W        W63040  11.029  14.859  12.060  0.0641 -0.1273 -0.1736
62177W        W63041  14.084  14.508  13.071  0.1639 -0.0941 -0.1380
62178W        W63042  12.137  13.035  12.471  0.1095  0.3176 -0.0787
62179W        W63043   9.745  14.063  13.154  0.0091  0.1092  0.1684
62180W        W63044  10.497  14.387  10.717  0.3445 -0.1289 -0.0155
62181W        W63045  12.240  14.478  13.354 -0.1315  0.0816  0.1699
62182W        W63046   8.695  13.846  16.789 -0.1422  0.0726 -0.1398
62183W        W63047   7.214  10.364  13.848 -0.1446 -0.2706 -0.1360
62184W        W63048  10.419   8.990  11.500 -0.0494  0.0815 -0.1939
62185W        W63049  11.006  12.655  13.583 -0.2286 -0.0159  0.2281
62186W        W63050   9.933  13.072  10.568  0.0206  0.2003  0.4952
62187W        W63051  10.402  12.034  15.283  0.4707 -0.2324  0.3233
62188W        W63052   8.503   9.411  13.089  0.2396 -0.1040 -0.1265
62189W        W63053   6.891  12.317  15.952  0.0582  0.2251  0.4895
62190W        W63054   8.030  14.210  12.093 -0.1093 -0.3643 -0.2205
62191W        W63055   8.875  12.109  15.907 -0.0861  0.1804 -0.1044
62192W        W63056   8.642  11.985  14.611  0.3013 -0.0521 -0.2181
62193W        W63057   9.972  10.830  13.760 -0.3711  0.1491 -0.0264
62194W        W63058  12.787  12.705  13.109 -0.0224 -0.4066 -0.1856
62195W        W63059  10.250  11.311  13.794 -0.2125 -0.2019  0.2324
62196W        W63060  12.323  12.197  12.667  0.2244 -0.2387  0.1437
62197W        W63061   6.100  11.095  13.063  0.0853 -0.1048  0.0959
62198W        W63062   9.706  13.931  11.673 -0.1408  0.0891 -0.3017
62199W        W63063   6.154  12.464  17.688 -0.4742  0.2785 -0.0011
62200W        W63064  12.267  14.942  14.554 -0.0276 -0.1477 -0.1800
62201W        W63065  10.793  14.808  13.472  0.0581  0.0776 -0.0475
62202W        W63066   9.882  13.923  15.317 -0.1478 -0.1596  0.2716
62203W        W63067  11.437  11.737  13.792  0.0352  0.0425  0.2754
62204W        W63068  10.928  11.763  14.035  0.2526  0.1743 -0.1833
62205W        W63069   7.236  13.003  16.266  0.0497 -0.2932 -0.0387
62206W        W63070   9.471  13.553  16.996  0.0354 -0.3155 -0.0441
62207W        W63071   7.784  12.382  15.892  0.0691 -0.0388  0.3068
62208W        W63072  10.239  14.746  15.481 -0.0414  0.0761  0.0973
62209W        W63073  11.100  14.528  15.130  0.2248  0.1177 -0.3414
62210W        W63074   9.450  13.612  11.370 -0.1045 -0.3365  0.4877
62211W        W63075   8.573  14.243  11.802  0.2683  0.3408  0.0114
62212W        W63076  11.307  13.597  11.186 -0.0880 -0.0342  0.0032
62213W        W63077  10.914  13.598  13.258  0.0615  0.3945  0.0031
62214W        W63078  13.325  14.459  10.680  0.2087 -0.2622  0.0390
62215W        W63079  12.117  11.623  13.839 -0.0205 -0.2732  0.0748
62216W        W63080   7.329  14.624  14.522  0.1293  0.1789 -0.0525
62217W        W63081  14.176  11.740  12.720 -0.0806  0.1106 -0.1458
62218W        W63082   8.688  16.258  11.215 -0.2128  0.1676 -0.2162
62219W        W63083   8.150  16.542  13.240 -0.1039  0.0775 -0.4691
62220W        W63084   8.943  12.849  14.874 -0.2934 -0.1664  0.0328
62221W        W63085  11.290  12.069  16.124 -0.1273  0.1802 -0.0671
62222W        W63086  12.301  12.979  10.042 -0.1259 -0.1265  0.2103
62223W        W63087  10.631  10.205  10.891  0.0177  0.2537  0.0689
62224W        W63088  10.893  13.193  14.805  0.1653  0.1195 -0.2040
62225W        W63089   8.552  14.030  10.923 -0.0182  0.2431  0.0253
62226W        W63090  11.988  11.750  12.795 -0.0268  0.0541 -0.1274
62227W        W63091  12.068  16.141  11.709 -0.2421  0.1131 -0.0551
62228W        W63092   9.740  10.655  12.787  0.0914  0.3085  0.1186
62229W        W63093   9.235  14.349  12.526 -0.0358  0.0025 -0.0290
62230W        W63094   7.620  11.362  11.975  0.0187 -0.1021 -0.4287
62231W        W63095  10.648   9.581  12.492 -0.2129  0.0685 -0.0379
62232W        W63096  11.029  14.486  13.674 -0.5372 -0.1306 -0.5526
62233W        W63097   9.604  14.467  10.174 -0.0996 -0.0391  0.0069
62234W        W63098  12.049  11.927  10.871 -0.3288  0.1117  0.2146
62235W        W63099   5.919  13.871  14.074  0.0488  0.0579  0.0130
62236W        W63100   8.147  16.630  12.499  0.3290 -0.1795 -0.3224
62237W        W63101   9.656  14.496  10.884  0.1218 -0.1708  0.0808
62238W        W63102   6.908  13.360  12.047 -0.0615 -0.0763 -0.0714
62239W        W63103  13.630  10.984  15.273  0.0868 -0.2204 -0.1818
62240W        W63104  11.426  13.429  14.159  0.2433  0.1192 -0.1241
62241W        W63105   6.420  12.919  11.640 -0.0025 -0.0589 -0.1502
62242W        W63106   8.533  15.349  12.486 -0.1892 -0.0429  0.0423
62243W        W63107  10.532  14.464  12.716 -0.0015 -0.0921  0.1777
62244W        W63108   9.880  15.350  12.918  0.1395  0.1827  0.0187
62245W        W63109   9.518  13.550  13.348  0.0187  0.1896 -0.1666
62246W        W63110  12.259  14.257  11.795  0.0453 -0.0695  0.0552
62247W        W63111  11.722  12.229  13.079 -0.2901  0.1136  0.1161
62248W        W63112  10.486  13.300   9.870 -0.1319  0.3865  0.1801
62249W        W63113  10.651  15.783  12.995  0.1736 -0.0962 -0.4669
62250W        W63114   8.820  12.360  13.532 -0.2677 -0.1560 -0.0930
62251W        W63115   9.176  14.176  13.002  0.0504  0.2207  0.2715
62252W        W63116  11.760  12.831  12.219 -0.5825 -0.0047 -0.1789
62253W        W63117  10.877  12.668  12.160 -0.0856 -0.0489 -0.1632
62254W        W63118   4.542  11.848  13.023 -0.1861 -0.0958  0.3076
62255W        W63119   5.411  12.433  15.222 -0.1888 -0.1403  0.2140
62256W        W63120   7.099  12.358  11.145  0.1058 -0.0693 -0.1895
62257W        W63121   8.278  12.051  11.295  0.1051 -0.0937  0.1723
62258W        W63122   8.114  12.570  13.005  0.1629 -0.1038 -0.3270
62259W        W63123  10.892  11.029  11.872 -0.4281  0.1500 -0.2829
62260W        W63124   9.370  14.919  14.359  0.0478 -0.1353 -0.0815
62261W        W63125   9.697  11.871  13.096 -0.0196  0.3019 -0.2701
62262W        W63126  11.259  12.238  11.288 -0.1251  0.2198 -0.0086
62263W        W63127  10.079  12.148  13.101 -0.3021 -0.2352 -0.0541
62264W        W63128  11.846  10.550  12.956  0.3440  0.0344  0.0764
62265W        W63129   9.068  14.088  15.976  0.1463  0.0888 -0.2486
62266W        W63130   8.005  15.278  12.504 -0.0879 -0.1064 -0.1477
62267W        W63131  10.098  13.522  13.696  0.3607 -0.0331 -0.0409
62268W        W63132   8.715  10.516  13.870 -0.1905  0.1183 -0.0408
62269W        W63133  10.599  14.300  12.154  0.1246 -0.2532 -0.1305
62270W        W63134   9.271  11.299  14.315 -0.3003 -0.2118  0.0598
62271W        W63135  10.014  12.862  15.472  0.3512 -0.1242 -0.0741
62272W        W63136   8.348  12.873  12.673 -0.5260 -0.2174  0.0496
62273W        W63137  11.032  11.634  13.041 -0.1472 -0.0476  0.0144
62274W        W63138  13.053  13.949  10.472  0.0532 -0.0378 -0.1013
62275W        W63139   9.414  10.035  16.318  0.2192  0.0719  0.2315
62276W        W63140  12.748  12.288  14.840  0.1260  0.2915  0.2452
62277W        W63141  10.307  13.876   8.830  0.0625 -0.0872 -0.2536
62278W        W63142  11.751  10.973  12.724  0.2068 -0.1078 -0.2125
62279W        W63143  10.792  13.679  14.758  0.3248 -0.2644 -0.0458
62280W        W63144  11.202  15.515  12.998 -0.2853  0.1452  0.4304
62281W        W63145   8.063  12.991  14.094  0.0790 -0.1423 -0.0861
62282W        W63146  10.777  10.454  13.618 -0.2269  0.1385 -0.0373
62283W        W63147   8.561  12.842  13.151  0.0247  0.2321 -0.1519
62284W        W63148   7.169  12.344  15.033  0.0983  0.0764  0.0800
62285W        W63149  11.614  14.953   9.512  0.1036 -0.0883  0.0290
62286W        W63150  11.570   9.027  14.799  0.0439  0.0782 -0.2999
62287W        W63151   9.392  14.244  13.954 -0.1382  0.1963 -0.2426
62288W        W63152  10.620  12.537  10.923  0.1173 -0.0551  0.1437
62289W        W63153  12.459  10.710  10.342  0.1108  0.1813  0.1367
62290W        W63154  11.707  11.187  14.671 -0.0558  0.1549  0.3722
62291W        W63155   6.669  12.808  13.424 -0.2673 -0.1384  0.0256
62292W        W63156   9.789  13.754  11.012 -0.0917 -0.1036  0.2532
62293W        W63157   9.574  12.601  11.734  0.3499  0.0020 -0.1779
62294W        W63158   8.354  12.912  11.638  0.3216  0.0122  0.0618
62295W        W63159  11.281  15.244  11.320  0.1200 -0.2557 -0.1263
62296W        W63160  12.944  13.883  11.469  0.0266 -0.0747 -0.0770
62297W        W63161  11.716  12.682  12.749  0.0810  0.0966  0.1511
62298W        W63162   8.350  13.289  12.944 -0.1675 -0.2699 -0.1162
62299W        W63163  11.424  12.469  13.387 -0.1918 -0.0462  0.1054
62300W        W63164   7.765  12.048  13.616  0.3167 -0.0660  0.1776
62301W        W63165  10.343  13.302  12.474  0.0050  0.0528  0.1135
62302W        W63166   9.228  16.317  14.869  0.1323  0.0311  0.0303
62303W        W63167  10.307  14.760  13.550  0.0911  0.2212  0.0507
62304W        W63168  10.270  14.017  13.393  0.1511  0.1427  0.1461
62305W        W63169  11.128  15.162  13.455 -0.4064  0.1629 -0.0098
62306W        W63170   9.224  14.827  15.811 -0.0760 -0.0320  0.0411
62307W        W63171  12.506  10.945  13.373 -0.2858  0.1284  0.2975
62308W        W63172  10.007  11.821  13.962 -0.0638 -0.2488 -0.0341
62309W        W63173   8.190  12.261  12.547 -0.0249 -0.0263 -0.0299
62310W        W63174  13.078  10.635  11.808 -0.2544 -0.3129  0.0876
62311W        W63175  11.752  13.033  14.173  0.1786  0.2015 -0.3919
62312W        W63176  10.433  13.746  12.273 -0.4238 -0.2429  0.0890
62313W        W63177  10.141  14.324  14.375  0.0897 -0.0368 -0.0375
62314W        W63178   6.645  12.228   9.582  0.2261 -0.1834 -0.1715
62315W        W63179   6.424  14.978  14.005  0.0334  0.0170 -0.0047
62316W        W63180   9.992  13.642  13.170 -0.2527  0.2893 -0.2067
62317W        W63181  10.516  12.270  13.412  0.1280 -0.1806 -0.0473
62318W        W63182   8.114  13.945  14.762 -0.2295 -0.1877 -0.4441
62319W        W63183   9.818  10.792  10.371 -0.0553 -0.0698  0.0731
62320W        W63184  12.586  10.365  11.069 -0.2809  0.0240 -0.0457
62321W        W63185   9.416  16.187  13.580  0.2360  0.0025  0.0578
62322W        W63186   9.505  15.415   9.350  0.0607  0.1964 -0.2369
62323W        W63187   6.698  14.480  12.478  0.2028  0.0536 -0.3010
62324W        W63188  12.022  14.824  13.022 -0.2145 -0.0115 -0.1321
62325W        W63189  12.300  12.786  11.899  0.1936  0.2293  0.2653
62326W        W63190  10.926  17.210  15.996 -0.0470 -0.0840 -0.2098
62327W        W63191   6.449  13.501   9.784  0.0329  0.1477  0.2100
62328W        W63192  11.260  10.930  12.277  0.0592  0.1073 -0.0926
62329W        W63193  10.311  11.486  14.725  0.2742  0.0041 -0.2750
62330W        W63194   8.473  12.536  14.074  0.2034  0.2854  0.0206
62331W        W63195  10.320  14.086   9.292  0.2548 -0.2922  0.1188
62332W        W63196   8.942   9.205  11.465 -0.2494  0.0195 -0.0900
62333W        W63197   7.314  14.993  14.913  0.1341  0.0322  0.3770
62334W        W63198   9.205  12.393  11.970 -0.1077  0.4658  0.0615
62335W        W63199   9.984  10.052  16.117  0.2465 -0.0478  0.0675
62336W        W63200   9.086  13.773  14.845 -0.0267  0.0180  0.1534
62337W        W63201  11.764  12.131  12.549 -0.1917  0.1600 -0.1154
62338W        W63202  10.104  10.331  15.096 -0.2136 -0.1603 -0.1479
62339W        W63203   8.624  12.461  12.598 -0.2314  0.1174  0.0490
62340W        W63204   7.911  11.898  10.039  0.1648  0.0272 -0.0321
62341W        W63205   7.380  16.416  12.574 -0.0987 -0.2304  0.1176
62342W        W63206   8.761  14.088  14.364 -0.0053  0.1435 -0.2189
62343W        W63207   6.545  13.825  13.282  0.4723  0.1527 -0.0915
62344W        W63208  11.195  13.919  11.588 -0.2523  0.3939  0.0439
62345W        W63209  12.012  13.246  11.795  0.0801  0.1109 -0.0611
62346W        W63210   7.227  10.136  14.859 -0.2339 -0.2651 -0.0988
62347W        W63211  10.792  14.734  10.255 -0.1113  0.1595 -0.0621
62348W        W63212   9.476   9.868  11.970 -0.2179  0.0759  0.0177
62349W        W63213  12.674  12.038  13.487  0.0054 -0.4772  0.1319
62350W        W63214   8.496  14.712  14.551  0.0614 -0.2439 -0.3472
62351W        W63215  10.998  11.603  15.025 -0.0071  0.0155  0.1180
62352W        W63216   8.260  15.902  10.534 -0.2088 -0.0874 -0.1643
62353W        W63217   9.350  11.533  13.541  0.0389 -0.2364 -0.0511
62354W        W63218  10.407  13.957  10.348  0.2096  0.1767 -0.0637
62355W        W63219  10.627  13.921  11.781 -0.0135  0.3050 -0.1052
62356W        W63220  11.527  14.633   8.647 -0.0326 -0.3044 -0.1961
62357W        W63221   8.093   8.908  11.199 -0.2803 -0.0575  0.0801
62358W        W63222   8.881  14.706  10.309 -0.1990  0.0716  0.2541
62359W        W63223   8.231  13.749  15.330  0.0586  0.1382  0.3246
62360W        W63224  10.086   9.653  11.255  0.1449 -0.2219 -0.1634
62361W        W63225   8.876  10.018  11.341  0.0920  0.0342 -0.1884
62362W        W63226  11.301  13.575  12.395  0.0982 -0.3502  0.0017
62363W        W63227   9.122  12.540  13.142 -0.1376 -0.0767 -0.0934
62364W        W63228   9.233  14.646   9.864 -0.0198 -0.0717  0.0254
62365W        W63229  10.989  13.135  13.455  0.1999 -0.0363 -0.1384
62366W        W63230   6.820  13.141  14.679 -0.1098 -0.2229  0.1555
62367W        W63231  11.719  11.672  11.781  0.2232 -0.3246 -0.1399
62368W        W63232  11.376  10.553  12.791 -0.1627  0.0897 -0.1012
62369W        W63233  11.122  10.007  12.710  0.0661 -0.1930  0.1199
62370W        W63234  11.464  13.080  10.995 -0.2803 -0.1248 -0.2439
62371W        W63235   8.050  13.774  12.286 -0.0519  0.0245 -0.4093
62372W        W63236  10.521  11.495  13.360 -0.0821 -0.0475 -0.3942
62373W        W63237  10.409  10.372  12.082  0.0994  0.1036  0.3475
62374W        W63238   8.093  11.698   8.759  0.0936  0.0195 -0.1307
62375W        W63239   9.624  11.987  13.674  0.2109  0.2674  0.0962
62376W        W63240  11.884  10.421  10.873  0.2463 -0.5259 -0.0187
62377W        W63241   9.516  12.888  13.237 -0.1047 -0.2974 -0.1634
62378W        W63242   6.642  12.184  14.434 -0.3319 -0.0441  0.2699
62379W        W63243   8.401  10.880  12.670  0.0490 -0.1326 -0.3610
62380W        W63244   8.065  13.199  15.453  0.2548  0.0477 -0.3897
62381W        W63245   9.487  12.849  14.772  0.0173  0.0919  0.0017
62382W        W63246   7.532  17.271  12.139 -0.1049  0.3421 -0.1176
62383W        W63247   7.408  13.804  11.078 -0.1582 -0.0501  0.1583
62384W        W63248   6.731  11.096  14.829 -0.1836 -0.2209  0.1777
62385W        W63249   9.418  12.820  12.726 -0.0511  0.1786 -0.0543
62386W        W63250   9.102  12.868  14.444 -0.1227  0.1966 -0.1977
62387W        W63251  10.193  11.111  11.164 -0.1434  0.1321  0.1398
62388W        W63252  11.510  12.404  12.200 -0.0560  0.3093  0.0447
62389W        W63253  11.277  13.160  12.029 -0.1516 -0.0489 -0.2716
62390W        W63254  10.809  14.468  11.630  0.2287 -0.0818 -0.1176
62391W        W63255  12.238  15.502  11.111 -0.0564 -0.3234 -0.1193
62392W        W63256   7.761  13.654  13.766 -0.2672  0.2239 -0.5496
62393W        W63257   7.630  13.342  14.217 -0.2071 -0.1967 -0.0984
62394W        W63258  12.670  11.719  12.845  0.0235 -0.0372 -0.0810
62395W        W63259   8.210  16.151  12.857  0.1431  0.1186 -0.1343
62396W        W63260  10.154  13.711  14.979  0.2389 -0.0459  0.3856
62397W        W63261   8.500   7.296  11.979 -0.3084  0.0820 -0.0471
62398W        W63262  12.061  12.888   8.911  0.5144 -0.0848  0.0738
62399W        W63263  10.385  11.119  15.704  0.0295 -0.1799  0.1413
62400W        W63264   8.476  12.960  12.168 -0.2683 -0.0766  0.4373
62401W        W63265  13.648  13.592  13.576  0.0038  0.0235  0.3582
62402W        W63266  10.996  14.868  14.634  0.0922 -0.0627 -0.0599
62403W        W63267  11.190  15.909  14.321  0.1676 -0.0630 -0.1627
62404W        W63268  10.656  13.094  13.836  0.1751  0.0981  0.0719
62405W        W63269   9.447  14.694  16.485 -0.0832 -0.2326 -0.0945
62406W        W63270   8.291  14.551  12.962  0.1271  0.0622 -0.0598
62407W        W63271  11.158  13.495  10.272  0.1514 -0.1334  0.0944
62408W        W63272   8.941  10.615  16.658  0.1196 -0.0760 -0.1264
62409W        W63273  11.110  12.189  12.271  0.0903  0.1794 -0.4305
62410W        W63274  14.017  12.911  14.381 -0.2240 -0.0180  0.4772
62411W        W63275  11.960  10.546  14.094  0.1117 -0.3596  0.0370
62412W        W63276  10.931  14.188  15.591  0.2202  0.1699 -0.0747
62413W        W63277   9.775  16.279  14.809 -0.1935 -0.0955 -0.0787
62414W        W63278  10.236  13.948  10.865  0.2953  0.0198 -0.0727
62415W        W63279   7.845  11.584  14.388 -0.1980 -0.4463  0.0169
62416W        W63280   5.779  11.457  13.312 -0.0496 -0.0650  0.1550
62417W        W63281  11.707   9.603   9.945 -0.1537 -0.1443 -0.3123
62418W        W63282   9.644  14.906  13.198 -0.2732 -0.4487 -0.4122
62419W        W63283  10.937  14.057  13.440 -0.0755 -0.0374 -0.1317
62420W        W63284  11.775  13.690  12.668  0.1953 -0.0142  0.4219
62421W        W63285   6.795  11.792  14.022 -0.0469  0.1518 -0.1691
62422W        W63286  11.646  14.705  13.920  0.3061 -0.3657  0.2124
62423W        W63287   8.328   9.730  13.500  0.4785 -0.0360 -0.0921
62424W        W63288   8.817   9.231   9.982  0.0806  0.1349 -0.3163
62425W        W63289   9.310  16.517  13.964 -0.1057 -0.1387 -0.0058
62426W        W63290  11.871  14.289  10.979  0.1566 -0.0046  0.0433
62427W        W63291   9.633  14.971  12.702 -0.0065 -0.1774 -0.0340
62428W        W63292   7.677  13.845  11.954 -0.0584  0.0932 -0.1933
62429W        W63293  12.669  14.400  12.401  0.2400  0.1517 -0.1128
62430W        W63294  15.494  11.113  12.706 -0.0729 -0.0976 -0.2134
62431W        W63295  11.738  14.324  13.603  0.1539 -0.0202 -0.0066
62432W        W63296  12.054  12.374  11.172  0.0175 -0.0500  0.1222
62433W        W63297  12.650  14.781  13.165  0.1291  0.0673 -0.2531
62434W        W63298  11.059  10.901  13.612  0.0779  0.1335 -0.0746
62435W        W63299   8.892  10.398  13.358 -0.1043 -0.1096  0.2497
62436W        W63300   9.266  15.613  13.660  0.1239 -0.1209  0.1365
62437W        W63301   8.780  12.791  15.882 -0.1363  0.1327 -0.0114
62438W        W63302   8.319  14.307  13.428  0.2033  0.1426 -0.0478
62439W        W63303   7.184  15.144  14.467 -0.0407  0.1857  0.1510
62440W        W63304   8.404  15.830  11.008 -0.1032  0.1919  0.0230
62441W        W63305  12.150  13.718   9.423 -0.1803 -0.1573  0.0831
62442W        W63306  10.906  10.705  15.933 -0.2232 -0.2452  0.1097
62443W        W63307  10.868  13.009  11.716  0.0716 -0.1748  0.0274
62444W        W63308  11.328  13.139  11.507 -0.0326 -0.1605 -0.0689
62445W        W63309   9.054  14.019  15.347 -0.1737 -0.1408 -0.0634
62446W        W63310  12.471  12.951  15.990  0.0072  0.1300  0.2140
62447W        W63311   6.228  10.780  15.464 -0.2214 -0.0188  0.0674
62448W        W63312  10.151  15.932  11.967  0.2380 -0.2289 -0.0862
62449W        W63313  11.832  11.237  14.089 -0.0541 -0.1654 -0.0569
62450W        W63314   5.454   9.967  13.941 -0.1679  0.1022  0.1007
62451W        W63315   8.407  15.744  14.264 -0.0448  0.0552  0.0806
62452W        W63316   7.648  13.069  10.082 -0.1277  0.1096  0.1640
62453W        W63317   7.595  12.937  15.770  0.3740  0.1282 -0.0531
62454W        W63318   8.587  12.360  13.067 -0.2881 -0.0158 -0.0170
62455W        W63319   8.573  11.623  11.830  0.0020  0.0313  0.4096
62456W        W63320   9.508   9.581  13.862  0.1774  0.1514  0.2086
62457W        W63321   7.920  13.049  12.981 -0.1768  0.3608  0.0723
62458W        W63322  13.385  11.341  10.546  0.1145 -0.1689  0.0846
62459W        W63323  11.586  12.418  14.902 -0.0931 -0.1365 -0.1548
62460W        W63324  12.104  13.252   9.634 -0.3075 -0.2767 -0.1334
62461W        W63325   7.359  14.129  13.562 -0.0260 -0.3124 -0.0708
62462W        W63326  12.273  10.799  10.880  0.1563  0.3210 -0.2730
62463W        W63327  11.458  14.473   9.774  0.2660  0.0088 -0.1294
62464W        W63328  10.233  12.960  10.163 -0.1084  0.3836 -0.0414
62465W        W63329  10.475  11.657  11.875 -0.2416  0.1029 -0.2744
62466W        W63330  12.233  13.031  13.147  0.2716 -0.0423  0.2382
62467W        W63331  10.083  12.421  12.582  0.0777 -0.0084 -0.0586
62468W        W63332   9.985  13.064  13.396 -0.3808  0.2700 -0.1124
62469W        W63333  13.507  11.562  13.742  0.1539 -0.0259  0.1867
62470W        W63334   9.872  12.751  12.920 -0.1483 -0.0196  0.0417
62471W        W63335  12.226  12.048  13.151  0.1544 -0.2494 -0.1820
62472W        W63336   9.048  11.723  16.177  0.0443 -0.0105  0.0634
62473W        W63337   8.545  17.452  11.093 -0.1894  0.2112 -0.0120
62474W        W63338   9.636  13.070  13.791 -0.0644  0.1177 -0.3838
62475W        W63339   9.680   9.964  14.109 -0.0094 -0.1911  0.0581
62476W        W63340   8.982  16.506  14.378  0.1404  0.1877  0.0159
62477W        W63341  13.603  13.068  13.538 -0.3301  0.1563 -0.1213
62478W        W63342  10.343  11.381   8.159  0.2143  0.1421  0.0583
62479W        W63343  10.094  15.824  12.952  0.0469  0.1909  0.0391
62480W        W63344  10.599  10.919  14.503  0.2143 -0.2601  0.0891
62481W        W63345   7.307  12.360  10.672  0.2214  0.4353  0.0289
62482W        W63346  10.906  11.198  13.205  0.1027  0.1304 -0.1608
62483W        W63347   8.341  14.383  15.671 -0.0061  0.2366  0.1531
62484W        W63348   9.778  12.300  10.256 -0.0452  0.1023 -0.0018
62485W        W63349   8.556  15.245  14.875 -0.0370 -0.0493  0.1847
62486W        W63350  10.863   9.982  10.292 -0.0150 -0.0945 -0.1604
62487W        W63351   8.784  12.335  14.956 -0.1342 -0.2470 -0.0766
62488W        W63352   9.415  11.134  13.861 -0.0264  0.0787  0.0274
62489W        W63353   9.555  17.605  13.985 -0.2359  0.4470 -0.2222
62490W        W63354  11.500   9.947  13.404  0.0532 -0.0538  0.0195
62491W        W63355  12.180  13.929  12.791 -0.1379 -0.1802  0.3313
62492W        W63356  10.550  15.178  15.426  0.2060  0.2837 -0.1083
62493W        W63357   8.722  13.223  12.606  0.0565 -0.3799  0.0782
62494W        W63358   8.878  13.596  14.366  0.1854  0.3679 -0.0510
62495W        W63359  13.170  14.100   9.932  0.2030 -0.0311  0.2715
62496W        W63360   5.063  10.429  14.939  0.0109 -0.1686  0.1777
62497W        W63361  11.777  14.623  14.447  0.0351 -0.0355  0.1989
62498W        W63362   8.117  13.259  11.978  0.0558  0.1108  0.0221
62499W        W63363   8.426  15.020  12.868  0.2066  0.1201  0.0263
62500W        W63364   9.706  13.280  12.785  0.1769  0.0477 -0.1849
62501W        W63365   8.466  11.348  12.247  0.0939  0.0800 -0.4543
62502W        W63366   8.289  11.597  13.146  0.1745  0.2921 -0.2363
62503W        W63367   9.292  11.096  13.349  0.0164 -0.2432  0.1940
62504W        W63368  10.803  14.418  14.735  0.0348 -0.1205  0.0643
62505W        W63369  14.513  12.227  13.077 -0.1294  0.1088 -0.0816
62506W        W63370  10.620  13.910  15.303  0.1263  0.2922 -0.1770
62507W        W63371   7.489  14.698  16.684 -0.0591 -0.0626 -0.0476
62508W        W63372  10.847  15.208  14.274 -0.0212 -0.0263 -0.1387
62509W        W63373   9.000  14.714  16.733 -0.0211  0.1676 -0.1942
62510W        W63374   7.657  17.104  11.152  0.4222 -0.0445  0.1146
62511W        W63375  10.478  13.664  12.993  0.0094 -0.2074 -0.2251
62512W        W63376  12.059  10.973  13.131  0.1940  0.0393  0.1055
62513W        W63377  10.313  12.861  11.743 -0.1916 -0.1218  0.0080
62514W        W63378  10.820  14.064  13.915  0.1703  0.1611 -0.1894
62515W        W63379  10.216  13.369  11.988  0.0699  0.1543  0.1390
62516W        W63380   9.173  12.025  13.290  0.2970 -0.1270  0.1282
62517W        W63381  10.863  15.227  10.932 -0.0642 -0.0189  0.1045
62518W        W63382  11.836  13.241  13.751 -0.4592  0.1354  0.1446
62519W        W63383   6.224  14.390  14.107  0.0932 -0.1400 -0.0721
62520W        W63384   9.476  13.775  12.810  0.0542 -0.1594 -0.2443
62521W        W63385   7.545  11.231  16.312 -0.1030 -0.0670  0.0411
62522W        W63386  10.806  13.137  14.317  0.1168  0.0041 -0.0659
62523W        W63387   7.890  14.158  11.639 -0.2458  0.1472  0.0907
62524W        W63388  12.677  13.480  15.634  0.1144 -0.1406  0.0824
62525W        W63389  10.417  12.839  12.754  0.0207  0.0120  0.1925
62526W        W63390  11.876  11.698  13.404  0.1304  0.1658 -0.0365
62527W        W63391  10.324  15.692  14.625 -0.1500 -0.0334 -0.2870
62528W        W63392  10.906  11.916  13.570  0.0340 -0.3061 -0.1280
62529W        W63393   9.106  13.429  13.568 -0.0954 -0.1527 -0.1834
62530W        W63394   7.650  16.935  12.628 -0.3385 -0.0815 -0.1286
62531W        W63395  10.607  14.435  15.293  0.0048 -0.1756  0.1026
62532W        W63396   7.285  10.581  16.618  0.0817  0.4184 -0.0036
62533W        W63397  10.510  15.429   9.555 -0.0596  0.4981 -0.1802
62534W        W63398  11.401  11.054   9.698 -0.1430 -0.1026 -0.2591
62535W        W63399  11.155  12.945  16.301 -0.0585 -0.1562  0.3228
62536W        W63400   8.261  12.937  14.574 -0.5622  0.2845 -0.0258
62537W        W63401  10.140  12.025  10.557  0.0483 -0.4266  0.0861
62538W        W63402   8.978  12.900  12.294  0.4276 -0.0771 -0.0767
62539W        W63403   8.674  14.659  15.073 -0.1173 -0.1486  0.2831
62540W        W63404   9.397  14.523  14.721 -0.3780  0.3294 -0.0940
62541W        W63405  10.701  13.189   9.411  0.2425 -0.0050 -0.2459
62542W        W63406   9.632  11.299  12.192  0.1465 -0.0239  0.2988
62543W        W63407  12.685  10.308  11.664  0.0469  0.1287  0.1922
62544W        W63408   9.103  12.515  12.499 -0.3553  0.1609 -0.1019
62545W        W63409  13.841  11.334  13.342  0.0712 -0.4034 -0.4130
62546W        W63410  10.966  14.730  11.233  0.0132  0.1822 -0.2140
62547W        W63411   9.558  13.585  13.829  0.1735 -0.1190 -0.1010
62548W        W63412   8.640  13.826  11.537 -0.3150 -0.1179 -0.5339
62549W        W63413   9.722  13.540  16.451 -0.1939 -0.0584  0.1686
62550W        W63414  10.169  11.504  12.985 -0.2023  0.2773 -0.3506
62551W        W63415   9.940  14.843  14.635  0.1636  0.0186  0.3271
62552W        W63416  10.604  13.741  13.591  0.0599  0.0642  0.2838
62553W        W63417   4.080  14.808  14.539 -0.1024 -0.0664 -0.0150
62554W        W63418   9.278  13.876  12.316 -0.0444 -0.0245 -0.1224
62555W        W63419   9.878  12.579  13.751 -0.0855 -0.0106  0.1949
62556W        W63420   8.970  13.674  13.069 -0.3824 -0.0980  0.0293
62557W        W63421   8.804  14.545  13.140  0.1943 -0.2805 -0.0203
62558W        W63422   8.271  16.878  12.879 -0.3352 -0.0875  0.1535
62559W        W63423  10.029  13.654  12.664 -0.1252  0.0942  0.3154
62560W        W63424   9.059  13.738   9.402 -0.3029 -0.0863 -0.4515
62561W        W63425   8.310  15.117  11.623 -0.0091 -0.0311  0.0418
62562W        W63426   9.433  11.798  17.321 -0.0574  0.1431  0.0593
62563W        W63427   9.263  13.967  13.531 -0.0208  0.0602 -0.0755
62564W        W63428   8.669  12.624  14.573 -0.1213 -0.2142  0.0093
62565W        W63429  10.150  14.660  12.060 -0.1243  0.1853 -0.1170
62566W        W63430  10.853  16.359  10.753  0.0868  0.0465 -0.0455
62567W        W63431  13.456  14.387  12.026 -0.2565 -0.0247 -0.1832
62568W        W63432   9.290  14.614  11.221  0.2313  0.0120 -0.1685
62569W        W63433   9.345  12.620  13.645  0.1010 -0.0317  0.0337
62570W        W63434  11.361  15.969  11.700 -0.0891 -0.0830 -0.1785
62571W        W63435   4.979  12.160  15.948 -0.1885 -0.3777 -0.0761
62572W        W63436  10.795  14.845  13.997  0.0085 -0.0277  0.0962
62573W        W63437  10.245  10.596   8.327 -0.0865  0.4859 -0.0785
62574W        W63438   8.711  16.169  16.337  0.4446 -0.6346 -0.2136
62575W        W63439   7.839  14.867  19.979 -0.0297 -0.0243  0.0748
62576W        W63440  11.247  13.342  15.968  0.1014 -0.2176  0.1779
62577W        W63441   9.939  15.637  18.636  0.0042  0.1961  0.2156
62578W        W63442   6.672  12.683  16.195  0.3491  0.0404  0.0109
62579W        W63443   9.231  11.892  14.490  0.2989  0.1057 -0.1018
62580W        W63444   7.413  12.401  15.515  0.1878 -0.1286 -0.0855
62581W        W63445  10.488  14.430  13.887 -0.1207 -0.2583  0.1313
62582W        W63446   8.009  15.071  15.847  0.1095  0.0499 -0.0542
62583W        W63447   5.971  12.194  17.153 -0.0498  0.0678 -0.6668
62584W        W63448   9.516  11.397  16.585 -0.1247  0.1933  0.1501
62585W        W63449   9.070  11.284  17.426 -0.1087  0.2235 -0.1470
62586W        W63450  11.340  13.018  14.450 -0.2148  0.1338  0.2295
62587W        W63451   7.898  10.713  16.299 -0.4490  0.0855 -0.3609
62588W        W63452   5.492   9.493  20.058  0.0580  0.1349 -0.3558
62589W        W63453   9.365  14.631  17.203 -0.0211 -0.1559 -0.1859
62590W        W63454   9.761  13.940  14.142  0.4982  0.4181 -0.2843
62591W        W63455   7.292   9.514  18.342  0.0593  0.2318  0.0168
62592W        W63456  10.679   9.058  19.220 -0.0870  0.0949  0.1104
62593W        W63457  10.456  11.875  13.807 -0.0583 -0.0693  0.1638
62594W        W63458  10.230  11.569  15.186 -0.0866 -0.0560 -0.3374
62595W        W63459   9.953  12.780  14.856 -0.0729  0.2396  0.1000
62596W        W63460  11.502  13.647  16.956 -0.1974  0.1088  0.1660
62597W        W63461   9.115  10.148  13.977  0.1575 -0.1241 -0.1590
62598W        W63462   8.229  15.354  17.573  0.1746 -0.1113 -0.2596
62599W        W63463   7.824  11.355  17.211  0.0951  0.0312 -0.0738
62600W        W63464  10.107  10.649  20.751  0.3182 -0.0584 -0.1044
62601W        W63465   7.319  14.668  17.225 -0.1674  0.0199  0.0678
62602W        W63466   7.232  12.864  17.560 -0.3811 -0.0214  0.1674
62603W        W63467   8.803  13.523  15.157 -0.1507  0.1254  0.1334
62604W        W63468   7.657  12.867  18.605  0.0814  0.4249 -0.0963
62605W        W63469   9.964  15.104  18.816 -0.0958  0.4000  0.1873
62606W        W63470  10.291  13.946  20.656 -0.0348  0.0767 -0.1030
62607W        W63471   6.830  12.011  18.157 -0.2165  0.0169  0.1581
62608W        W63472   8.491  10.309  18.707 -0.5828 -0.1093  0.2231
62609W        W63473   8.479  10.493  19.624  0.0329  0.2858 -0.0031
62610W        W63474   7.438   9.982  15.318 -0.2685 -0.0903  0.0761
62611W        W63475   6.561  14.039  16.495  0.1081  0.0146 -0.0057
62612W        W63476   8.568  14.809  15.843 -0.1504 -0.1794  0.4489
62613W        W63477   9.568  10.822  15.671  0.1693 -0.1557 -0.2999
62614W        W63478  12.243  14.225  15.774  0.1311  0.2166 -0.1189
62615W        W63479  11.925  13.740  14.919 -0.0966 -0.0648  0.1316
62616W        W63480   6.653  14.394  16.123 -0.0804 -0.0177  0.1167
62617W        W63481  12.215  13.550  13.605 -0.0486  0.3121  0.3490
62618W        W63482   9.766  15.193  14.225 -0.0984 -0.3897 -0.0303
62619W        W63483   9.160  13.217  14.032  0.3529  0.1376  0.2250
62620W        W63484   5.566  12.208  16.842  0.3462 -0.3457 -0.0619
62621W        W63485   8.073  12.913  15.908  0.0099 -0.0520  0.3674
62622W        W63486   9.499  13.458  17.751 -0.3997  0.0028 -0.3287
62623W        W63487  10.256  13.946  13.974  0.1833 -0.4375 -0.1209
62624W        W63488   9.286  16.279  18.624 -0.4493  0.0925  0.2226
62625W        W63489   8.390  11.822  19.006  0.0373 -0.0158 -0.1047
62626W        W63490   9.432  14.057  16.326 -0.3423  0.3355 -0.0265
62627W        W63491   9.125  12.667  16.409  0.0090  0.2618 -0.3924
62628W        W63492   9.930   9.682  16.821 -0.0984  0.2930  0.1787
62629W        W63493   6.976  13.998  16.808  0.0160  0.2160  0.1379
62630W        W63494   4.308  13.459  15.621 -0.3284  0.3931 -0.3721
62631W        W63495  13.087  11.409  14.495  0.2793 -0.1238  0.2867
62632W        W63496   7.412  13.564  17.980 -0.0101 -0.1643  0.2684
62633W        W63497   6.721  11.542  15.497  0.3481 -0.2987 -0.0980
62634W        W63498   9.627  13.697  14.851 -0.1611  0.1719  0.0981
62635W        W63499   5.331  15.364  16.162 -0.0111  0.1628 -0.1008
62636W        W63500   9.439  12.365  16.894 -0.0007  0.1672 -0.0513
62637W        W63501   7.045  11.887  14.725 -0.0584 -0.3732 -0.0758
62638W        W63502   9.647  11.029  18.050 -0.2759 -0.0912 -0.2595
62639W        W63503  11.557  11.732  14.799  0.0162 -0.1650 -0.3606
62640W        W63504   7.328  13.733  17.067 -0.2298  0.0883 -0.1198
62641W        W63505   8.155  10.039  13.117 -0.1121 -0.4610 -0.0283
62642W        W63506   6.961  11.917  17.267  0.0308 -0.0344 -0.1569
62643W        W63507   8.596  10.741  14.936 -0.0086  0.0021 -0.0371
62644W        W63508  11.344  12.268  17.671  0.1657 -0.0693 -0.1073
62645W        W63509  10.785  11.373  13.720 -0.1393 -0.2277 -0.1428
62646W        W63510   9.141  15.567  15.419 -0.2144 -0.2664 -0.0897
62647W        W63511   9.241  13.727  17.408  0.3392 -0.1520  0.3978
62648W        W63512  11.385  13.467  13.601  0.1136  0.2348 -0.0381
62649W        W63513   8.114  12.670  17.499  0.3240 -0.3004  0.0648
62650W        W63514   8.621  11.245  14.170 -0.0728  0.2720 -0.2183
62651W        W63515   8.014  11.789  17.350  0.0436  0.0410 -0.0251
62652W        W63516   9.702  10.578  14.894 -0.0363  0.1835 -0.1431
62653W        W63517   7.641  10.886  15.165  0.0241 -0.0172 -0.0058
62654W        W63518   7.965  11.935  16.766  0.0264  0.0754 -0.0328
62655W        W63519   7.637  11.038  17.595  0.2358 -0.3201 -0.2173
62656W        W63520   6.541  11.665  14.984  0.3062  0.2357 -0.0274
62657W        W63521   8.531  12.109  17.455 -0.2216 -0.0323 -0.2173
62658W        W63522   6.376  11.263  17.452  0.0502  0.0098  0.0289
62659W        W63523   9.357  13.232  16.424 -0.2029  0.2100 -0.0596
62660W        W63524  10.536  13.752  17.165 -0.1538 -0.0256  0.1104
62661W        W63525   8.824  11.651  20.211 -0.1881 -0.0159  0.0401
62662W        W63526  10.865  13.295  19.725 -0.0748  0.1381 -0.3206
62663W        W63527  10.552  13.024  15.522 -0.1931  0.3446  0.1516
62664W        W63528  10.527  10.331  14.481 -0.1713  0.2478  0.0742
62665W        W63529  10.579  13.533  18.209  0.0491  0.1313  0.2479
62666W        W63530   7.393  12.029  16.020  0.0207 -0.4222 -0.4064
62667W        W63531   7.042  11.571  16.836  0.1233  0.1136 -0.0404
62668W        W63532   4.805  11.748  16.886  0.0880 -0.0176 -0.2087
62669W        W63533   8.210  13.950  15.850  0.1268 -0.1318  0.2242
62670W        W63534  12.961  10.784  15.894 -0.2868 -0.2399  0.1022
62671W        W63535   8.453  13.201  18.253  0.3167  0.0425  0.0467
62672W        W63536   4.789   9.143  14.902 -0.4223 -0.1338  0.0350
62673W        W63537  10.846  13.593  16.297 -0.1446  0.4021 -0.0558
62674W        W63538   9.959  16.411  16.225 -0.1318  0.0443 -0.1426
62675W        W63539   6.928  12.752  17.103 -0.0193 -0.0242  0.1190
62676W        W63540   9.775   9.324  13.169 -0.0815 -0.0977 -0.2146
62677W        W63541   9.660  14.540  16.069  0.0700  0.0670  0.0641
62678W        W63542  12.103  11.451  17.435 -0.2329 -0.3685  0.0810
62679W        W63543  10.526  14.444  18.190 -0.3431 -0.3470 -0.0990
62680W        W63544  10.130  14.714  15.972  0.1343  0.0834 -0.1837
62681W        W63545   7.523  14.104  18.112  0.0653  0.2021 -0.0124
62682W        W63546  10.845  12.517  15.521 -0.2377 -0.0453 -0.1334
62683W        W63547   9.005  12.982  19.111 -0.0054  0.4110 -0.0654
62684W        W63548   6.271  12.664  17.158  0.3529 -0.1824 -0.0637
62685W        W63549  10.754  12.208  16.500 -0.3515  0.0658  0.2662
62686W        W63550  11.766  12.829  14.670 -0.2653  0.2343 -0.3962
62687W        W63551   9.217  13.930  17.900  0.1705  0.1323  0.2170
62688W        W63552   8.854  14.775  13.635 -0.2954  0.1848  0.0296
62689W        W63553   7.967  12.467  13.969 -0.0202  0.2000 -0.0905
62690W        W63554  12.328  10.588  19.108  0.2151 -0.0620  0.1318
62691W        W63555   9.192  12.522  15.930  0.2329  0.0593  0.0957
62692W        W63556   9.419  10.919  14.672 -0.0947  0.3198  0.0374
62693W        W63557   9.124  13.667  16.552  0.0574 -0.1946 -0.1858
62694W        W63558  12.977  11.003  17.255 -0.1517 -0.1132  0.1792
62695W        W63559   9.932  13.420  15.313  0.1926 -0.4125  0.0974
62696W        W63560  10.601  15.637  16.636 -0.2254 -0.0687  0.1116
62697W        W63561   8.844  14.299  13.789 -0.0663 -0.1160  0.0550
62698W        W63562  10.472  13.012  17.942 -0.1137 -0.0202 -0.1226
62699W        W63563  10.607  10.225  15.371 -0.1125 -0.1887  0.0466
62700W        W63564   7.550  13.702  16.590  0.0786  0.1958  0.0252
62701W        W63565   9.785  11.415  13.717  0.1161 -0.1715 -0.0039
62702W        W63566  10.423  13.782  16.113 -0.1023 -0.0104 -0.3255
62703W        W63567   6.818  14.550  17.004 -0.3785 -0.1181 -0.0800
62704W        W63568  10.306  12.197  16.744  0.0920 -0.1497  0.0794
62705W        W63569  10.460   8.887  17.215  0.1318  0.0867 -0.1821
62706W        W63570   8.851  13.589  19.870 -0.1158 -0.3719  0.1668
62707W        W63571  13.136  10.820  14.043  0.2147  0.1014  0.1004
62708W        W63572  11.036  11.309  16.870 -0.0555 -0.1245 -0.0691
62709W        W63573   5.881  12.581  16.740  0.0892 -0.0565 -0.1162
62710W        W63574  10.997  13.645  16.839 -0.2501  0.0481  0.1631
62711W        W63575  10.275  11.413  16.111  0.0168 -0.1533  0.0136
62712W        W63576   7.798  16.052  17.512  0.1720 -0.2205 -0.0377
62713W        W63577   7.071  12.252  16.939  0.0375 -0.1517 -0.1396
62714W        W63578  10.054   8.262  15.586  0.2334  0.2009  0.0773
62715W        W63579   8.845  12.580  15.385  0.1170 -0.3328  0.2499
62716W        W63580   7.086  13.000  15.327 -0.0761 -0.2722 -0.2779
62717W        W63581   8.090  10.669  14.879  0.0456 -0.2567 -0.1326
62718W        W63582  10.144  12.249  17.752 -0.1418  0.2801  0.0777
62719W        W63583   8.939  13.300  16.134 -0.1035  0.0633  0.2393
62720W        W63584  10.152  11.388  17.394 -0.1558  0.1658  0.2095
62721W        W63585   9.483  13.534  18.526 -0.0312 -0.0263  0.0184
62722W        W63586   9.425  13.853  15.704  0.0359 -0.2254 -0.0165
62723W        W63587  10.171  13.033  13.895  0.1497 -0.0217 -0.0297
62724W        W63588   8.983  13.629  15.709 -0.0150 -0.3755 -0.1494
62725W        W63589   9.887  10.151  13.677 -0.0494  0.1767  0.1114
62726W        W63590   9.778  14.902  13.705  0.2234 -0.0799 -0.1836
62727W        W63591   7.805  11.806  12.754 -0.1827  0.2985  0.3509
62728W        W63592   9.015  10.896  15.650 -0.0148 -0.0119 -0.2936
62729W        W63593  10.380  11.327  17.829 -0.0380  0.0915  0.2170
62730W        W63594   5.869  11.208  15.448  0.1611 -0.0250  0.1749
62731W        W63595  10.338  13.374  14.667 -0.2152  0.0549 -0.1550
62732W        W63596   8.682  13.227  14.700  0.0680 -0.0492  0.1094
62733W        W63597   7.580  11.396  12.937  0.0868  0.0860 -0.3186
62734W        W63598   6.663  10.600  18.101 -0.0554 -0.1377 -0.2001
62735W        W63599   8.554  15.921  16.867  0.2931 -0.0073 -0.2334
62736W        W63600   7.767  11.641  13.335 -0.0005 -0.4276  0.0107
62737W        W63601   8.253  12.673  18.260  0.0725 -0.3063  0.2117
62738W        W63602  11.995   8.562  20.595 -0.3404  0.1105  0.0835
62739W        W63603   7.413  11.844  15.050 -0.2323 -0.4110 -0.2350
62740W        W63604  10.164   9.933  17.824 -0.3156  0.0198  0.3755
62741W        W63605   8.065  13.153  18.794  0.0257 -0.0736 -0.0971
62742W        W63606   9.509  17.300  18.036 -0.0522  0.2344 -0.1504
62743W        W63607   6.107  13.897  14.932  0.0970  0.1144 -0.0798
62744W        W63608  10.067  13.584  17.033  0.4098 -0.1061  0.0391
62745W        W63609   9.550  11.781  16.282 -0.0781  0.4128  0.0065
62746W        W63610   8.366  12.428  15.783  0.1368 -0.0232 -0.1880
62747W        W63611   7.824  11.903  14.821 -0.1742  0.0566  0.1733
62748W        W63612   7.634  10.725  16.996 -0.0734  0.0604 -0.0032
62749W        W63613   8.916  10.966  14.606  0.2762 -0.0278  0.1177
62750W        W63614   5.575  14.898  18.842 -0.1245 -0.0212 -0.2979
62751W        W63615   9.018  15.110  18.099  0.0444  0.0557  0.1459
62752W        W63616   4.058  15.626  12.335 -0.0786 -0.0991  0.1729
62753W        W63617   9.189  13.287  14.716 -0.0506  0.0224  0.2530
62754W        W63618   8.947  12.899  13.509  0.1463 -0.0218  0.1895
62755W        W63619  11.764  14.932  12.390  0.1958 -0.1037  0.2857
62756W        W63620   9.604  12.189  15.924  0.0228 -0.1148  0.3551
62757W        W63621   9.274  12.209  13.913  0.2779  0.1520  0.0749
62758W        W63622   9.269  13.993  14.462 -0.2017 -0.0391  0.2607
62759W        W63623  10.017  12.304  15.680 -0.1320  0.0403 -0.3220
62760W        W63624   8.237  12.153  18.242 -0.0276  0.0795 -0.1338
62761W        W63625   7.519   9.520  15.296 -0.3135  0.0463 -0.2562
62762W        W63626   7.932  14.993  17.204 -0.0576  0.0836  0.0887
62763W        W63627   9.590  15.504  17.349  0.1072  0.2543 -0.1453
62764W        W63628   8.219  11.732  15.108 -0.3707  0.1203  0.1450
62765W        W63629   7.011  11.522  15.049 -0.1247  0.3131  0.0721
62766W        W63630   5.954  14.480  19.677  0.0066 -0.5101 -0.0988
62767W        W63631   9.316  11.850  16.807 -0.2039 -0.2588 -0.0023
62768W        W63632  11.286  10.145  16.364 -0.0122 -0.0477 -0.1716
62769W        W63633  10.320   9.923  16.587  0.2919  0.0721  0.0908
62770W        W63634  10.578  10.423  14.931  0.7713  0.3154  0.0039
62771W        W63635   7.002  11.248  15.813 -0.2655 -0.0676  0.1431
62772W        W63636   6.726  11.393  16.477  0.0072  0.2147  0.0511
62773W        W63637  11.425  10.925  17.007  0.0049 -0.0755 -0.1042
62774W        W63638   7.248  11.977  16.503  0.1671  0.1343 -0.0962
62775W        W63639  11.222  12.462  15.211  0.0934 -0.1602 -0.0506
62776W        W63640  11.376  10.478  14.768  0.0708  0.0730 -0.3022
62777W        W63641   7.318  10.492  15.305 -0.3378  0.3355 -0.0807
62778W        W63642  10.013  11.869  16.042  0.0898 -0.3615  0.1080
62779W        W63643   8.315  10.346  15.264  0.0942 -0.0898  0.1457
62780W        W63644   9.618   9.964  19.489  0.1584  0.0577 -0.0078
62781W        W63645  10.069  11.232  16.590  0.0357  0.1674  0.2229
62782W        W63646  11.133  15.010  16.484 -0.0239  0.2799 -0.0574
62783W        W63647   6.355   9.972  16.805 -0.1586 -0.0091  0.4183
62784W        W63648   7.058  12.670  19.996 -0.0872 -0.1170  0.0349
62785W        W63649   7.797  12.264  16.389 -0.0019 -0.2857  0.0122
62786W        W63650   9.053  13.099  15.476 -0.0965  0.2832  0.2907
62787W        W63651   8.560  12.019  17.936  0.1254 -0.0847  0.1119
62788W        W63652  13.688  11.703  21.193  0.3256 -0.0100 -0.1320
62789W        W63653  10.990  12.722  14.666 -0.0990  0.0877  0.1965
62790W        W63654   7.486  14.724  15.717  0.0859  0.0468  0.2272
62791W        W63655   8.837  17.063  11.941 -0.1542  0.1166  0.0896
62792W        W63656   9.779  11.118  16.968 -0.2485  0.0209  0.3739
62793W        W63657   7.212  12.396  19.225 -0.2165 -0.3158  0.1166
62794W        W63658  10.455  11.559  18.648 -0.2583 -0.0032  0.3667
62795W        W63659  10.596  11.390  16.531 -0.0373 -0.0541  0.2079
62796W        W63660   8.123  15.857  16.497  0.0324 -0.2681 -0.1659
62797W        W63661   7.490  11.391  14.840 -0.2283 -0.2172  0.0475
62798W        W63662   8.680  13.022  14.226  0.1428 -0.1296 -0.0272
62799W        W63663   7.674  10.320  18.379 -0.1231  0.0961 -0.4389
62800W        W63664   9.541  15.374  18.871 -0.2463  0.1424 -0.2569
62801W        W63665  11.123  12.798  16.873 -0.1838  0.3248 -0.0347
62802W        W63666   7.276  16.995  16.560  0.2195 -0.2866  0.3522
62803W        W63667  10.184  13.410  16.332  0.0692  0.1875 -0.0019
62804W        W63668   8.858   9.523  15.695  0.2232 -0.1738  0.1517
62805W        W63669   7.484   9.257  19.501  0.1800  0.0301  0.0297
62806W        W63670   9.762  14.019  17.797  0.2514 -0.2708 -0.1386
62807W        W63671   9.623  11.801  18.938 -0.3021  0.1769  0.0365
62808W        W63672   5.161   9.128  15.840 -0.0683  0.2332  0.2276
62809W        W63673   7.632  14.685  15.208 -0.2822 -0.0996  0.2717
62810W        W63674  10.939  13.137  18.084  0.0055 -0.1619  0.1337
62811W        W63675  10.440  11.271  16.953 -0.0194  0.0314  0.1144
62812W        W63676   8.377  13.682  14.292 -0.0078  0.0542 -0.0089
62813W        W63677  12.230  13.077  17.154 -0.0679  0.1932 -0.1691
62814W        W63678   9.445  12.610  14.122 -0.0941  0.0467  0.1329
62815W        W63679   6.069  13.138  19.271 -0.0756  0.1764 -0.2244
62816W        W63680   6.769  11.487  19.541  0.1913 -0.0571  0.0094
62817W        W63681   6.911   8.573  13.890 -0.0843  0.1197  0.3445
62818W        W63682   8.536  13.000  15.487  0.1720 -0.0355  0.0183
62819W        W63683   8.558  13.817  14.813  0.3159 -0.2314 -0.0427
62820W        W63684  11.004  14.438  13.139  0.1544 -0.0816 -0.0018
62821W        W63685   7.326  11.519  17.276  0.1707 -0.1484  0.1994
62822W        W63686  10.346  16.381  15.897 -0.0954  0.2097 -0.2783
62823W        W63687   9.573  13.356  15.652 -0.0352 -0.1368  0.3889
62824W        W63688   7.565  14.244  16.330 -0.0363  0.2467  0.0115
62825W        W63689   8.972  14.171  16.470  0.0015 -0.0596  0.0012
62826W        W63690  11.707  13.004  20.607 -0.1647  0.0093 -0.3352
62827W        W63691  11.091  16.388  14.443 -0.0719 -0.1235 -0.0393
62828W        W63692   6.702  11.534  14.577  0.3770  0.3315 -0.2242
62829W        W63693   9.078  17.966  16.952 -0.0357 -0.0568 -0.2521
62830W        W63694  12.454  12.714  14.968 -0.0320  0.0928  0.3200
62831W        W63695   8.200  11.468  15.806 -0.2972 -0.0726 -0.2265
62832W        W63696   8.401  15.775  16.076  0.2629 -0.2251  0.1097
62833W        W63697  11.639  14.019  16.590 -0.0762 -0.0558 -0.1221
62834W        W63698  10.565  14.005  14.351  0.0430 -0.2882 -0.1299
62835W        W63699   7.881  11.404  16.705  0.3455 -0.0540 -0.2824
62836W        W63700   7.915  14.105  18.544 -0.2621  0.3135  0.2178
62837W        W63701   8.539  11.739  14.127 -0.1067 -0.0209 -0.3589
62838W        W63702   8.316  13.949  16.445 -0.0383 -0.0819 -0.0128
62839W        W63703   8.693  13.844  17.262 -0.2486 -0.1915 -0.1765
62840W        W63704   8.229  15.730  12.540  0.0798 -0.0387 -0.1867
62841W        W63705   7.455  11.913  15.539  0.0652 -0.1226  0.0629
62842W        W63706   8.752  10.578  15.894 -0.0127  0.0146  0.1479
62843W        W63707  11.213  12.193  13.770 -0.3430 -0.3225  0.0473
62844W        W63708   8.757  13.880  13.509  0.1142  0.0723  0.2010
62845W        W63709  10.403  12.810  17.464 -0.0971  0.1113  0.1954
62846W        W63710   9.461   9.768  17.932 -0.1142 -0.3380  0.1368
62847W        W63711   8.012   9.777  15.945  0.1927  0.0850  0.0954
62848W        W63712  10.307  14.039  18.081  0.1429 -0.2186 -0.0092
62849W        W63713   9.225  11.472  14.834 -0.2487  0.0644  0.1788
62850W        W63714   6.207   9.800  16.176 -0.0335 -0.0017 -0.3978
62851W        W63715   8.432  12.787  15.028  0.1743  0.1460  0.1069
62852W        W63716   8.959  11.633  14.124 -0.0950  0.2960  0.0352
62853W        W63717   5.167  13.901  18.925  0.2492  0.0207 -0.0289
62854W        W63718  10.161  12.995  14.379  0.0099 -0.0012 -0.2652
62855W        W63719  10.886  12.462  16.014 -0.1418 -0.0430  0.2743
62856W        W63720   7.144   9.759  16.016 -0.0761  0.1314  0.0167
62857W        W63721   7.744  15.509  17.726  0.2377  0.1289  0.0641
62858W        W63722  12.335  10.658  14.640  0.0465 -0.0957  0.0319
62859W        W63723   8.950  12.279  16.721  0.2227 -0.1218  0.1214
62860W        W63724   9.446  15.662  16.877  0.0961 -0.0939 -0.0762
62861W        W63725   7.567   9.825  15.751  0.3209  0.1072  0.1314
62862W        W63726  12.220  13.136  14.926 -0.2063  0.0575 -0.0491
62863W        W63727  11.486  15.635  13.443  0.0259  0.0926 -0.1849
62864W        W63728   6.340  10.842  14.944 -0.0495  0.1036 -0.1337
62865W        W63729   9.827  13.933  13.620  0.0369  0.0252 -0.2443
62866W        W63730   9.860  11.776  15.537  0.0831  0.2466  0.0398
62867W        W63731   6.665  11.200  13.834  0.3875 -0.2273 -0.2586
62868W        W63732   8.462  11.548  17.420  0.2830  0.1505  0.0268
62869W        W63733   8.502  15.086  17.258 -0.0572  0.1270  0.4341
62870W        W63734   6.962  13.261  17.496  0.1185  0.3974 -0.0288
62871W        W63735  10.124  14.452  15.018  0.0660 -0.1307  0.1025
62872W        W63736   9.460  12.921  16.851  0.1936  0.2097  0.1176
62873W        W63737   6.282  14.518  15.805  0.1273 -0.0016 -0.0750
62874W        W63738   5.872  11.490  16.059 -0.2140  0.0665 -0.1412
62875W        W63739   7.479   9.250  14.862 -0.2473  0.3684 -0.0803
62876W        W63740   8.842   9.868  17.806 -0.0007  0.0988  0.3111
62877W        W63741  10.534  12.859  14.706  0.0614  0.0541  0.1706
62878W        W63742  10.745  16.766  13.155  0.2818 -0.1240 -0.1732
62879W        W63743  10.290  16.077  17.771  0.2567  0.3159 -0.2995
62880W        W63744  10.266   9.355  19.476 -0.1354 -0.0244  0.0730
62881W        W63745  10.364  12.653  15.148 -0.1169  0.1283 -0.1156
62882W        W63746   8.606  11.067  17.544  0.0900 -0.0346 -0.0596
62883W        W63747   6.381  14.007  15.862  0.0591 -0.1134 -0.0065
62884W        W63748   9.611  10.905  16.431 -0.2478 -0.0182 -0.0094
62885W        W63749   9.787  10.073  19.028 -0.0626 -0.1285  0.0854
62886W        W63750   9.677  12.170  14.150 -0.0371 -0.2066  0.4333
62887W        W63751   9.686  15.665  15.519  0.2515 -0.0414  0.1004
62888W        W63752   7.949  13.037  18.202 -0.1062 -0.1382 -0.1515
62889W        W63753   7.321  12.435  16.276 -0.2205  0.1456  0.0165
62890W        W63754   8.448  11.303  15.023 -0.0419  0.0001  0.1834
62891W        W63755  11.809  11.690  14.247  0.0744  0.0165 -0.1617
62892W        W63756   8.593  11.354  18.465 -0.1279  0.1667  0.0744
62893W        W63757   9.735  12.363  14.645  0.0316 -0.2499  0.4488
62894W        W63758   6.921  16.317  12.819  0.0633  0.1534 -0.1561
62895W        W63759  11.718  13.927  13.093  0.0956 -0.0158  0.0098
62896W        W63760   7.170  11.527  16.225  0.0092 -0.0601 -0.0500
62897W        W63761   8.967  15.605  16.032  0.1731 -0.2813 -0.0021
62898W        W63762   7.039  12.475  14.577 -0.1914 -0.1468 -0.1205
62899W        W63763   8.825  11.720  16.622 -0.1355 -0.3693 -0.0095
62900W        W63764  10.403  10.140  17.121 -0.0265  0.2314 -0.2092
62901W        W63765   6.199  14.378  14.950  0.0442 -0.0084  0.2411
62902W        W63766   8.091  11.996  15.788  0.0075 -0.0983 -0.1574
62903W        W63767   6.417  10.252  16.372  0.1695  0.0864 -0.1654
62904W        W63768   9.349  10.597  14.085 -0.1967  0.1849 -0.0977
62905W        W63769  10.775  12.374  15.015  0.0956  0.0317 -0.0047
62906W        W63770   9.752  12.188  18.637  0.0802  0.1427  0.3334
62907W        W63771   9.802  13.119  16.173 -0.1136 -0.3166 -0.0420
62908W        W63772   8.956  13.458  17.068 -0.2963 -0.0995 -0.1008
62909W        W63773   7.716  12.924  19.162  0.2242 -0.2250 -0.4012
62910W        W63774   8.573  15.049  15.379 -0.1190 -0.1295  0.0330
62911W        W63775   8.827  14.434  15.644 -0.0582  0.1174  0.1545
62912W        W63776  10.812  11.310  15.991 -0.0773  0.4515  0.4083
62913W        W63777  11.038  12.723  14.152 -0.0561  0.1299 -0.1472
62914W        W63778   8.090  14.797  15.417  0.1850  0.1891  0.0014
62915W        W63779   5.552  11.667  19.304  0.3183  0.0898 -0.3193
62916W        W63780   9.688  12.716  16.414  0.0284 -0.2142  0.0766
62917W        W63781   5.499  13.785  16.557  0.2012  0.0369  0.0670
62918W        W63782   9.788  15.886  16.534  0.0467  0.3077 -0.0641
62919W        W63783   9.965  14.506  17.372  0.0878  0.1240  0.4096
62920W        W63784   7.687  11.583  15.889  0.1262 -0.1055 -0.1258
62921W        W63785   5.514   9.653  14.420  0.0404 -0.0140  0.1730
62922W        W63786  10.298  11.792  17.115  0.0040  0.0150 -0.0383
62923W        W63787   7.648  10.937  13.943 -0.2517  0.0647  0.1860
62924W        W63788   7.928  12.304  17.236  0.2708  0.0096 -0.2069
62925W        W63789  13.111  11.745  15.647 -0.1620  0.0405  0.1685
62926W        W63790   9.489  14.161  15.145  0.1123 -0.1311 -0.0437
62927W        W63791  10.641  13.155  16.176  0.0033 -0.2938  0.1012
62928W        W63792   4.505  10.665  17.505  0.1408 -0.0450  0.0354
62929W        W63793   9.800   9.381  14.235 -0.1872 -0.3815  0.2595
62930W        W63794   7.762  13.458  16.955  0.3890  0.1159  0.2381
62931W        W63795   9.150  12.413  14.603  0.5038 -0.3065 -0.1067
62932W        W63796   7.620  11.660  17.678 -0.3147  0.0726 -0.1677
62933W        W63797   6.314  11.744  18.371 -0.1298  0.2937  0.1171
62934W        W63798   8.025  11.793  16.235  0.0200 -0.3169  0.2357
62935W        W63799   7.173  10.469  18.171 -0.1135 -0.1331 -0.2552
62936W        W63800   8.994  12.091  15.447 -0.0077  0.0024 -0.0061
62937W        W63801  10.899  12.256  14.463 -0.0317 -0.0070  0.0395
62938W        W63802   8.627  13.892  15.622  0.3191 -0.1065  0.0953
62939W        W63803  11.113  12.700  17.919  0.2339  0.1244 -0.0954
62940W        W63804  10.945  12.040  17.534  0.1176  0.1156 -0.1249
62941W        W63805   7.622  10.629  14.709  0.2377  0.0556  0.1551
62942W        W63806  11.052  10.229  13.147 -0.0601  0.1909 -0.1509
62943W        W63807  10.843  10.664  17.685 -0.0042  0.2155 -0.0862
62944W        W63808   8.467  12.246  15.346  0.0206  0.1595 -0.1049
62945W        W63809  10.729  14.737  15.704 -0.0430  0.0863 -0.1776
62946W        W63810   9.965  13.638  15.939 -0.1993  0.1354 -0.2243
62947W        W63811  10.759  13.539  15.767 -0.1400  0.0120  0.0037
62948W        W63812   8.966  12.661  13.961  0.1656 -0.0248  0.0013
62949W        W63813  11.879  11.583  19.314 -0.1014 -0.4493  0.2230
62950W        W63814   8.758  13.768  16.245 -0.0820 -0.1858  0.2389
62951W        W63815  11.251  14.672  18.836 -0.0730 -0.1316 -0.2579
62952W        W63816   9.786   9.947  14.910  0.1536  0.0892  0.0022
62953W        W63817   5.066  13.303  15.973  0.3174 -0.2111 -0.3775
62954W        W63818  11.585  13.195  15.632 -0.3645  0.2557  0.2075
62955W        W63819   8.845  13.660  17.772 -0.4218 -0.1006  0.0828
62956W        W63820   8.509  11.955  16.197 -0.0165  0.0029 -0.1133
62957W        W63821   9.477  16.255  14.431  0.0073 -0.3689  0.0646
62958W        W63822   9.481  15.377  17.938 -0.2260 -0.1579  0.3707
62959W        W63823   7.848  11.285  15.448 -0.0574  0.2321  0.3782
62960W        W63824  11.352  16.449  15.244  0.1704  0.2596  0.0685
62961W        W63825   7.881  16.475  16.336 -0.1239  0.0063  0.1663
62962W        W63826   8.174  13.790  17.476 -0.1187 -0.3171 -0.0297
62963W        W63827  10.532  11.914  14.810  0.0056 -0.0768 -0.0926
62964W        W63828   9.906  12.865  18.108  0.0111 -0.2685  0.0177
62965W        W63829   6.864  11.485  18.227 -0.3675 -0.0604  0.0189
62966W        W63830  10.466  14.258  15.701  0.2299 -0.1577  0.1401
62967W        W63831   9.879  15.214  15.197  0.0945  0.1684  0.0091
62968W        W63832   7.811  14.522  17.119  0.1363  0.1461  0.1753
62969W        W63833   7.804  10.379  16.634 -0.0491  0.0589 -0.2523
62970W        W63834   7.422  15.321  15.794 -0.3904  0.0593 -0.1667
62971W        W63835   7.955  11.461  19.006 -0.0592  0.1482  0.1430
62972W        W63836   8.484  12.749  16.622 -0.1348  0.0114  0.1269
62973W        W63837  10.449  13.550  16.711 -0.0710 -0.2614 -0.3238
62974W        W63838   7.961  16.165  20.129 -0.2754 -0.1396 -0.1561
62975W        W63839   9.602  13.182  20.448  0.1050  0.0397  0.0481
62976W        W63840  11.759  12.058  17.895  0.0234  0.2880 -0.0269
62977W        W63841  12.348  14.666  21.616 -0.1968 -0.0913 -0.1325
62978W        W63842   7.773  14.345  15.837  0.2154  0.1072 -0.1684
62979W        W63843  12.133  10.336  18.680  0.0759 -0.0016 -0.1269
62980W        W63844   7.469  11.221  18.898  0.1558 -0.3013 -0.2258
62981W        W63845   9.295  10.912  19.594  0.3363 -0.3484 -0.4362
62982W        W63846  10.237  14.441  19.452  0.1735 -0.0160 -0.0037
62983W        W63847   8.847  11.878  20.646 -0.0915 -0.0556  0.0845
62984W        W63848   6.400  10.414  19.778  0.3270 -0.0660  0.0648
62985W        W63849  10.243   9.268  19.984 -0.2658 -0.1418 -0.1715
62986W        W63850   8.890  11.668  17.678 -0.2036 -0.1248  0.1266
62987W        W63851   9.494  13.185  21.628  0.2840 -0.0826  0.0197
62988W        W63852   6.434  10.801  21.325  0.2167 -0.2611 -0.0506
62989W        W63853   8.154  13.017  17.011  0.0681  0.3567 -0.1959
62990W        W63854  10.014  13.088  19.329  0.3073 -0.0428  0.2244
62991W        W63855   5.766  15.098  20.714  0.1244 -0.3223 -0.0274
62992W        W63856   7.572  10.513  22.741  0.0725  0.1887  0.0222
62993W        W63857  12.338  11.123  20.999  0.0035  0.1843  0.0807
62994W        W63858  10.781  14.825  21.193  0.0105  0.1299 -0.0928
62995W        W63859   9.451  11.913  17.878 -0.0382  0.1274 -0.0303
62996W        W63860   8.026  13.956  18.008 -0.0888  0.0129  0.0472
62997W        W63861   8.664  12.616  21.189  0.1756 -0.3535  0.2071
62998W        W63862   8.572  10.668  19.060 -0.2280 -0.1736  0.1419
62999W        W63863   9.686  14.175  23.513 -0.1008  0.1020  0.2501
63000W        W63864   9.345  10.768  22.745  0.1460  0.1907 -0.1848
63001W        W63865  10.177  14.020  19.074 -0.3940 -0.2281 -0.0112
63002W        W63866  10.227  12.593  22.816 -0.0047 -0.4610  0.1580
63003W        W63867  11.445  11.743  20.624 -0.0781 -0.1496  0.1018
63004W        W63868   9.184  11.819  19.200  0.2912 -0.2134  0.0687
63005W        W63869   9.585  14.102  21.591 -0.1719 -0.0007 -0.0739
63006W        W63870  10.055  12.697  25.080  0.0473 -0.0666  0.2951
63007W        W63871   7.976  10.570  23.051  0.0809 -0.0885  0.0010
63008W        W63872   6.318  12.822  20.117  0.2374  0.1871 -0.1837
63009W        W63873  11.600  13.774  24.551  0.1709  0.0566 -0.0989
63010W        W63874   6.518  10.502  17.483  0.0924  0.0488 -0.1233
63011W        W63875   6.234  13.189  18.132 -0.1388  0.1693  0.0863
63012W        W63876  10.581  13.845  17.641 -0.1381  0.2263  0.2051
63013W        W63877   9.648  12.878  19.979  0.2419  0.1705  0.3354
63014W        W63878   8.834  10.336  17.089 -0.1542 -0.3369 -0.1721
63015W        W63879   9.465  13.654  21.814 -0.0789  0.0535  0.0455
63016W        W63880   9.653  12.065  20.016  0.0128  0.0731  0.2404
63017W        W63881   9.494  11.986  14.933  0.0208 -0.0487  0.0076
63018W        W63882   9.321  12.895  17.797  0.2310 -0.3436 -0.1987
63019W        W63883   8.963  13.879  19.450  0.0312 -0.3465 -0.0020
63020W        W63884   6.908  10.833  24.039  0.1812 -0.0964  0.1485
63021W        W63885   8.619  12.598  19.227 -0.0188 -0.0613  0.1200
63022W        W63886  10.677  11.652  19.091 -0.0159 -0.0888  0.2934
63023W        W63887   9.795  11.619  17.009 -0.2768 -0.0086  0.3703
63024W        W63888   8.118  13.736  21.587  0.3085  0.1030 -0.0412
63025W        W63889  10.502  10.493  19.583 -0.1432  0.0262 -0.1475
63026W        W63890   8.320  14.915  20.878  0.1019 -0.0235 -0.1993
63027W        W63891   9.853  14.632  18.242 -0.0137 -0.1243 -0.3680
63028W        W63892   7.947   9.856  19.355  0.1737  0.0467  0.1012
63029W        W63893   8.487  11.944  19.551 -0.0293  0.1467 -0.0289
63030W        W63894   9.295  11.601  20.082  0.0026  0.0076  0.3374
63031W        W63895  11.488  12.506  19.946  0.1791  0.3861 -0.2585
63032W        W63896   8.001  15.330  18.996 -0.1229 -0.0685 -0.2546
63033W        W63897  10.643  12.453  17.739 -0.1133  0.2747  0.3054
63034W        W63898  10.911  11.146  17.755 -0.0289 -0.1056  0.1987
63035W        W63899   4.718  11.745  18.880 -0.0040 -0.1602 -0.2485
63036W        W63900   7.974  14.364  17.568 -0.2245 -0.1906  0.1511
63037W        W63901   8.801  13.674  18.961  0.1112  0.1765  0.2698
63038W        W63902   6.900  10.586  19.352  0.0734 -0.3432  0.2590
63039W        W63903  10.592  11.029  19.991 -0.0533 -0.1070  0.3099
63040W        W63904   8.385  15.244  18.569 -0.0548 -0.2502 -0.1113
63041W        W63905   8.789  10.991  20.571 -0.1710 -0.2633 -0.0858
63042W        W63906   6.581  13.167  19.214 -0.0769 -0.1170 -0.2451
63043W        W63907   6.996  13.879  18.092 -0.0509  0.1518 -0.3812
63044W        W63908  10.288  13.313  21.703  0.0560  0.0472  0.1106
63045W        W63909   9.151  12.299  18.382 -0.3515 -0.1471  0.2964
63046W        W63910   9.246  11.806  20.992 -0.4059 -0.0253 -0.0983
63047W        W63911  12.524  12.283  23.113  0.3426 -0.0258 -0.3582
63048W        W63912  10.961  14.344  20.293 -0.0424  0.0867 -0.1153
63049W        W63913   8.604  10.855  18.500 -0.1598  0.2459  0.0299
63050W        W63914   6.946  10.637  17.699  0.3499 -0.0102  0.1426
63051W        W63915   7.769  13.878  21.203 -0.2343  0.2895 -0.2843
63052W        W63916   7.379  11.705  18.133 -0.3307  0.1038  0.1450
63053W        W63917   9.523  12.943  19.126  0.1039  0.1503 -0.1562
63054W        W63918   7.110  14.420  20.357  0.3390 -0.2689  0.0091
63055W        W63919   7.200  12.910  19.128  0.2785  0.4176  0.1852
63056W        W63920   7.108  10.121  19.222  0.0217 -0.0445  0.1317
63057W        W63921   6.781  10.031  20.756  0.0060 -0.1007 -0.0198
63058W        W63922   7.755  10.830  19.791  0.1554  0.2816 -0.1984
63059W        W63923   8.513  11.850  16.997  0.1281 -0.1761 -0.0383
63060W        W63924  10.421  15.094  21.442 -0.0446 -0.0110  0.3599
63061W        W63925   7.213   8.833  21.139 -0.2584 -0.1336  0.0611
63062W        W63926  10.529  13.509  20.592 -0.1911 -0.3592 -0.1727
63063W        W63927   8.045   9.809  23.808 -0.2122  0.1163 -0.1847
63064W        W63928  11.462  11.581  19.060  0.1981 -0.1983  0.2350
63065W        W63929   9.559  12.756  21.310 -0.0536 -0.0609  0.0119
63066W        W63930   8.235  14.345  19.376  0.1072  0.1269  0.4009
63067W        W63931   7.885  10.469  18.866  0.2319  0.0998  0.0501
63068W        W63932   6.268  11.136  20.946  0.0157  0.2354  0.0923
63069W        W63933  14.166  11.874  18.680  0.3317 -0.0418 -0.3626
63070W        W63934  10.500  12.282  18.170 -0.1202 -0.0457 -0.3649
63071W        W63935   4.055  12.670  19.727 -0.1595  0.3072 -0.1540
63072W        W63936   9.909  11.484  18.024 -0.3806  0.2342  0.0365
63073W        W63937   8.984  11.869  19.690 -0.2910 -0.0028 -0.1797
63074W        W63938   9.881  12.677  17.366 -0.0932 -0.1527  0.1454
63075W        W63939   7.021  11.131  20.536  0.1912  0.2781  0.1729
63076W        W63940  11.132  13.534  18.270  0.3089  0.2052  0.2288
63077W        W63941  10.995  12.476  19.987 -0.2524  0.0867 -0.0061
63078W        W63942  10.734  11.301  20.390 -0.0952  0.2357  0.4302
63079W        W63943   8.368  12.001  20.365 -0.1037  0.0727  0.0610
63080W        W63944   8.545  12.935  18.708  0.0780 -0.1036  0.4193
63081W        W63945  10.929  12.684  22.067  0.0417  0.0225 -0.2216
63082W        W63946   7.715  11.786  20.432 -0.0429 -0.1705  0.0925
63083W        W63947   6.655  11.651  17.754 -0.0852  0.1809  0.0385
63084W        W63948   6.028  13.069  21.115 -0.0941 -0.1882 -0.2072
63085W        W63949   7.963  13.476  20.079  0.0949 -0.1510 -0.3131
63086W        W63950  10.227  12.150  21.599 -0.2367 -0.1331  0.1024
63087W        W63951  10.900  14.860  20.735  0.2295  0.1170  0.0333
63088W        W63952   7.454  12.413  18.703 -0.0179  0.3270  0.1654
63089W        W63953   8.090  13.478  19.263  0.0877 -0.1867 -0.3443
63090W        W63954  10.788  10.011  21.841 -0.0458 -0.2156 -0.1549
63091W        W63955   9.933  11.967  22.398 -0.1396 -0.0575  0.2715
63092W        W63956   9.518  11.488  21.717  0.2318  0.0096 -0.0863
63093W        W63957  11.199   9.683  22.781  0.1333  0.0904 -0.1538
63094W        W63958   9.840  12.102  17.117 -0.0079  0.0193  0.1065
63095W        W63959   7.369  15.180  16.631  0.1484  0.0463  0.2307
63096W        W63960   9.070  12.086  20.194 -0.2128  0.0358  0.0902
63097W        W63961   7.501  10.784  18.514  0.3408  0.3395  0.2773
63098W        W63962   7.429  12.725  19.577  0.0301  0.2358  0.1914
63099W        W63963   8.099  10.782  21.936 -0.3207 -0.1377  0.0688
63100W        W63964   8.934  11.603  22.575  0.2918 -0.0486 -0.0559
63101W        W63965   9.151  14.948  20.066 -0.0896 -0.1632 -0.2462
63102W        W63966   9.136  16.406  18.147 -0.1473  0.1328 -0.2074
63103W        W63967   6.501  12.204  16.262  0.3501  0.1132  0.0601
63104W        W63968   7.479  16.369  19.983 -0.1504 -0.1203  0.2060
63105W        W63969   9.526  11.789  19.515  0.0647  0.1143 -0.2496
63106W        W63970   9.553  12.315  17.573  0.0467  0.0573  0.2565
63107W        W63971   9.755  10.998  20.840  0.0547  0.1627  0.0796
63108W        W63972   9.770  11.020  19.193  0.0142 -0.3838 -0.2291
63109W        W63973   8.663  12.978  20.713 -0.0384 -0.3621 -0.2728
63110W        W63974  12.821   9.240  19.985  0.1570 -0.0473  0.1826
63111W        W63975  12.269  11.514  23.347  0.2865 -0.0969  0.1626
63112W        W63976   9.840  13.596  19.194 -0.2767  0.2296  0.1130
63113W        W63977   7.975  13.339  17.359 -0.1247 -0.0127  0.0016
63114W        W63978   5.650   8.369  17.120 -0.1241  0.0212 -0.2338
63115W        W63979  10.968  11.170  23.760 -0.0603  0.0008 -0.0404
63116W        W63980   8.053  11.785  20.782  0.1277 -0.1957 -0.1724
63117W        W63981   8.550  12.624  22.909 -0.2088 -0.0735  0.1797
63118W        W63982  10.027  14.069  22.052  0.0996 -0.1690 -0.0997
63119W        W63983   9.760  11.431  15.978 -0.1905  0.0878  0.1556
63120W        W63984  11.110   9.507  18.663  0.0518  0.0221 -0.2705
63121W        W63985   9.917  15.843  17.062 -0.1791 -0.3022  0.5040
63122W        W63986   8.497  11.482  20.578 -0.3099 -0.0902 -0.2133
63123W        W63987   7.397  12.978  20.454 -0.0086 -0.2076  0.1307
63124W        W63988  10.565  14.001  21.031 -0.0139 -0.1980  0.1840
63125W        W63989   8.086  13.081  16.499  0.0729 -0.0148  0.2848
63126W        W63990  11.679  13.747  19.753  0.1451 -0.1370 -0.0024
63127W        W63991   5.871   9.796  20.172  0.0861  0.1895 -0.2061
63128W        W63992   9.973  11.770  21.724 -0.0230  0.0420  0.4453
63129W        W63993   9.493  10.190  21.951  0.0485  0.0644 -0.0101
63130W        W63994   8.291  13.537  22.131 -0.1024  0.2143 -0.1574
63131W        W63995  10.652  11.351  19.509  0.3752 -0.0694 -0.2093
63132W        W63996   6.245  11.366  15.753  0.3182  0.0093  0.0168
63133W        W63997   6.799  10.317  18.474  0.2256 -0.3079 -0.1290
63134W        W63998  10.980  10.278  21.327  0.1837  0.1729 -0.0094
63135W        W63999   7.634  11.703  19.808  0.2675  0.0082  0.2347
63136W        W64000  10.080  12.203  20.457 -0.2254  0.4404 -0.1459
63137W        W64001   9.475  12.810  22.681  0.0891 -0.0720  0.2094
63138W        W64002   9.263   8.628  22.807  0.5130 -0.4786  0.1625
63139W        W64003   7.566   9.251  18.678  0.2248 -0.1409 -0.0594
63140W        W64004   8.808  10.038  20.369 -0.0323  0.1182 -0.1730
63141W        W64005   8.038  16.392  19.353  0.1912 -0.2631 -0.0734
63142W        W64006  11.135  14.553  23.467 -0.1363  0.1633  0.2372
63143W        W64007   6.798  12.478  18.496 -0.0467 -0.4880 -0.0520
63144W        W64008   9.838  12.279  19.136  0.0194 -0.1702  0.2647
63145W        W64009   7.800  11.071  22.318 -0.3261 -0.0439 -0.1023
63146W        W64010   9.543  12.999  22.215 -0.0677  0.1365 -0.0407
63147W        W64011  10.219  12.988  18.482 -0.1801 -0.0483 -0.0056
63148W        W64012  10.938   9.847  18.362  0.1322  0.0047 -0.0063
63149W        W64013   9.720  10.594  18.865  0.0804  0.3391 -0.0148
63150W        W64014   4.798  14.279  19.786  0.1051  0.1283 -0.2023
63151W        W64015   7.174  14.259  18.423  0.2082 -0.0768  0.1381
63152W        W64016   7.429  15.374  19.171  0.3430 -0.4756  0.0583
63153W        W64017   7.955  10.704  21.401 -0.1736 -0.1967 -0.0473
63154W        W64018   7.968  11.328  19.588  0.0939  0.0365 -0.3169
63155W        W64019  11.379  12.688  19.312  0.0241  0.1395 -0.1096
63156W        W64020   7.370  12.744  20.893 -0.1766  0.0328  0.0050
63157W        W64021   8.803  11.811  21.811 -0.1171  0.3362  0.2642
63158W        W64022  10.469  11.904  23.490  0.0457 -0.1556 -0.1522
63159W        W64023  11.564  13.780  23.620 -0.0094  0.1218  0.1364
63160W        W64024  11.622  10.912  20.042  0.1468  0.1492  0.1741
63161W        W64025   5.185  10.628  18.376 -0.0000 -0.3140  0.0707
63162W        W64026   7.083  13.883  20.232  0.0415  0.0058  0.0050
63163W        W64027   7.873   9.469  18.396 -0.1772  0.2009 -0.2794
63164W        W64028   9.449  10.464  17.417  0.1272  0.1421 -0.0678
63165W        W64029   9.562  12.508  18.041  0.0341  0.0915 -0.0453
63166W        W64030   9.613  15.446  23.973 -0.1952  0.1102 -0.2206
63167W        W64031   7.836  12.897  20.826 -0.3236 -0.2036  0.0795
63168W        W64032   7.585  11.895  22.671 -0.2187 -0.0656  0.0858
63169W        W64033   7.822  11.239  21.894  0.1331  0.3030 -0.1860
63170W        W64034  10.057  10.117  20.261 -0.0739  0.1188 -0.3409
63171W        W64035   4.412  14.005  19.531 -0.2120 -0.3355 -0.0499
63172W        W64036   7.391  10.593  19.114 -0.2006  0.2891 -0.5235
63173W        W64037  10.728   8.447  17.342  0.3291  0.0920 -0.0097
63174W        W64038   8.840  11.446  20.953  0.2194 -0.1622 -0.0276
63175W        W64039   9.864  10.275  19.834 -0.1997  0.0086 -0.0371
63176W        W64040   9.952  11.289  15.540 -0.6036  0.1710 -0.3135
63177W        W64041   5.480  12.054  18.435 -0.0118  0.1523 -0.0629
63178W        W64042   7.536   9.808  22.232  0.0257  0.0781 -0.0740
63179W        W64043   7.185  11.450  20.190 -0.0449 -0.1401  0.0169
63180W        W64044   6.981  12.202  18.826 -0.0349  0.1682  0.2389
63181W        W64045  11.010  13.656  21.898  0.0086 -0.1721 -0.0182
63182W        W64046   8.862  15.318  19.613  0.0426 -0.0193  0.0139
63183W        W64047   9.353  12.491  19.146 -0.2890  0.1178  0.1031
63184W        W64048   5.591  14.258  20.975  0.0625  0.0080 -0.0188
63185W        W64049   7.353  14.933  21.157  0.2943 -0.2024 -0.0407
63186W        W64050   6.849  13.865  21.292 -0.0920 -0.2273 -0.1470
63187W        W64051  11.573  12.434  20.925 -0.0691 -0.1963  0.0884
63188W        W64052   7.162  15.485  20.562  0.0083  0.1018 -0.2542
63189W        W64053   7.810  12.407  18.353  0.2360 -0.0146  0.0674
63190W        W64054  12.344  13.347  21.651  0.2941 -0.0481 -0.2408
63191W        W64055  11.152  14.058  16.412 -0.1590  0.0711  0.0805
63192W        W64056   9.538  11.247  24.497  0.0968  0.4934 -0.0166
63193W        W64057   7.530  13.296  18.872  0.3185  0.3221 -0.3382
63194W        W64058  10.522  12.559  22.381 -0.2303  0.0288  0.0476
63195W        W64059  11.413  12.193  19.316  0.1470  0.1605  0.0816
63196W        W64060   9.490  13.342  22.621 -0.0980  0.1357  0.0423
63197W        W64061   8.432  10.784  17.907 -0.0705 -0.2561  0.1199
63198W        W64062  10.304  13.374  19.641 -0.2515 -0.2658  0.1970
63199W        W64063   8.451  11.928  24.349  0.2219  0.1559  0.0475
63200W        W64064   8.744  15.164  20.208 -0.0553  0.3018  0.1251
63201W        W64065  12.117  12.818  23.427  0.0971 -0.0275  0.1107
63202W        W64066   9.434  15.229  21.796  0.1619  0.0105 -0.2923
63203W        W64067  10.070  11.475  24.588  0.0574 -0.0243  0.4201
63204W        W64068   8.826  11.027  21.207  0.1228  0.1914  0.3176
63205W        W64069   7.889  11.611  21.543  0.2591  0.1991  0.1847
63206W        W64070   5.894  11.722  15.608  0.2681  0.2798 -0.0889
63207W        W64071   9.120   9.952  18.279  0.5280 -0.1181  0.1144
63208W        W64072   8.528  11.552  19.837 -0.0129 -0.1113 -0.0821
63209W        W64073   9.231  13.106  21.218 -0.0320  0.1020 -0.1859
63210W        W64074  11.017  10.369  19.751 -0.3213 -0.2409 -0.1802
63211W        W64075   7.073  10.360  21.178  0.1708  0.0317  0.1096
63212W        W64076   8.434  11.172  18.882 -0.1638  0.1141  0.2906
63213W        W64077  12.397  12.532  21.860 -0.2804  0.1401  0.5663
63214W        W64078   7.163  11.031  19.357  0.4005 -0.1762  0.1684
63215W        W64079   4.259  12.286  19.526  0.2928  0.0395  0.0757
63216W        W64080   6.299   9.431  20.099 -0.0559  0.0698 -0.0927
63217W        W64081   6.086   8.224  20.570  0.1654 -0.3034  0.1839
63218W        W64082  11.237  12.120  19.811 -0.2300  0.2831 -0.0609
63219W        W64083   6.603  12.063  15.670  0.0077 -0.0998 -0.0104
63220W        W64084   9.773  12.617  19.559 -0.0864  0.0673  0.0761
63221W        W64085   7.669  14.408  21.306  0.2665 -0.0058 -0.0409
63222W        W64086   9.562  13.172  17.307 -0.0892  0.0820  0.2199
63223W        W64087  10.126   9.116  21.497  0.2257 -0.0560 -0.1632
63224W        W64088   6.555  12.991  21.077  0.0833 -0.1181  0.0625
63225W        W64089   9.711  14.163  19.371  0.4025  0.2550 -0.0867
63226W        W64090  10.115  14.998  23.510  0.1265 -0.0510 -0.0153
63227W        W64091   9.775  11.530  23.316  0.1115  0.1795  0.2200
63228W        W64092   7.717  11.318  18.065 -0.0217  0.0388 -0.0660
63229W        W64093   9.116  13.222  20.780 -0.0169  0.0267 -0.0011
63230W        W64094   8.356  11.448  19.366  0.2939 -0.2122  0.1113
63231W        W64095   7.251  11.415  22.731 -0.3394  0.1166  0.0453
63232W        W64096   8.713  12.467  20.519 -0.0083  0.4346  0.1889
63233W        W64097  10.667  11.928  19.582 -0.0190  0.1947 -0.1072
63234W        W64098  10.716  12.701  19.227 -0.1162 -0.0201 -0.2647
63235W        W64099   8.876  12.601  19.963  0.2507 -0.0601  0.1053
63236W        W64100   9.555  13.815  23.822  0.1453  0.1115  0.0978
63237W        W64101   9.589   9.886  22.902  0.1139  0.0352  0.1354
63238W        W64102   9.347  13.401  18.997  0.1379 -0.0112  0.2588
63239W        W64103  10.102  17.415  20.601  0.1779 -0.0256 -0.0968
63240W        W64104   8.441  14.228  22.558 -0.1407 -0.2596 -0.0816
63241W        W64105   5.739  12.662  17.311 -0.0224  0.5394 -0.1199
63242W        W64106  10.431  13.036  20.769  0.1286 -0.0945  0.0849
63243W        W64107   9.864  11.421  19.411  0.1613 -0.3343 -0.0484
63244W        W64108   8.456  12.450  17.121 -0.0112 -0.0220  0.1496
63245W        W64109   9.983  11.046  21.774  0.0086  0.2030  0.0872
63246W        W64110   9.137  11.496  22.071  0.1567 -0.3065  0.0455
63247W        W64111   8.023  13.832  19.631 -0.0359 -0.0724 -0.0957
63248W        W64112   9.028  14.393  20.113  0.0831 -0.0984 -0.2559
63249W        W64113  12.922  10.037  22.343 -0.0553  0.0883  0.0394
63250W        W64114   5.360  10.129  19.347  0.1299  0.2717  0.1632
63251W        W64115   7.164  12.489  20.510  0.0876  0.0423  0.0416
63252W        W64116   6.649  10.096  21.253 -0.1149  0.1993  0.0456
63253W        W64117   8.783  13.734  21.973 -0.3337  0.0522 -0.3572
63254W        W64118   9.101  13.488  20.335 -0.1610 -0.0229  0.0704
63255W        W64119   8.150  10.597  18.438  0.2593  0.1463 -0.1476
63256W        W64120   6.776  13.658  17.113  0.0960  0.3004  0.2447
63257W        W64121   6.208  13.055  18.832 -0.3265 -0.2007 -0.0377
63258W        W64122  10.645  11.129  18.784 -0.0810 -0.3258 -0.5306
63259W        W64123  11.005  11.431  22.973 -0.1084  0.3103 -0.2276
63260W        W64124   9.290  12.995  15.870 -0.2030 -0.0567  0.1443
63261W        W64125   7.080  16.528  20.283  0.1298  0.1241 -0.0696
63262W        W64126   8.669  10.155  20.839  0.0660 -0.1167  0.1297
63263W        W64127  11.121  11.948  19.014  0.1942 -0.0602  0.0969
63264W        W64128   7.487  11.955  21.351  0.0568  0.1789 -0.2428
63265W        W64129   8.419  10.394  16.686  0.1425  0.2629 -0.1486
63266W        W64130   8.883  10.047  21.245  0.0519 -0.0064  0.0498
63267W        W64131   5.971  10.948  18.713 -0.0631  0.1486  0.0033
63268W        W64132   9.787  11.400  22.081  0.0616 -0.0791  0.0023
63269W        W64133   9.276  10.901  20.595  0.0421  0.3756  0.6534
63270W        W64134  10.579  13.335  18.680 -0.1387 -0.0738 -0.1363
63271W        W64135   9.043  13.349  18.150 -0.1593 -0.1129  0.0156
63272W        W64136  11.625  11.725  21.508 -0.0305  0.4117  0.1260
63273W        W64137   7.901  13.482  17.907  0.5106  0.4495  0.1223
63274W        W64138   7.667  10.099  20.678 -0.2356 -0.4464  0.0333
63275W        W64139  10.018   9.587  22.337  0.1933  0.0375  0.1812
63276W        W64140   9.882  14.352  20.392  0.1026 -0.0951  0.0707
63277W        W64141   9.352  11.447  17.847  0.0647  0.1740 -0.3285
63278W        W64142   8.366  13.612  17.929 -0.0904  0.1291 -0.0680
63279W        W64143   8.737  14.323  18.509  0.0580  0.0469  0.0898
63280W        W64144  10.020  13.880  24.493 -0.0802 -0.0778 -0.0710
63281W        W64145   9.342  11.385  17.040  0.0892 -0.1267  0.0749
63282W        W64146   8.660   9.722  22.294 -0.0144  0.3568  0.1373
63283W        W64147   6.891  12.769  19.505  0.1260  0.2321 -0.2240
63284W        W64148  10.095  10.920  18.832 -0.0905  0.3495  0.2619
63285W        W64149   8.928  10.954  23.122  0.0744 -0.2881  0.4043
63286W        W64150  10.921  10.191  20.245  0.0414 -0.1548  0.0709
63287W        W64151   7.889  11.359  20.531 -0.0044  0.0326 -0.2062
63288W        W64152   8.770  13.401  18.541 -0.0861  0.1950  0.2039
63289W        W64153   9.836  12.498  22.499 -0.1545  0.0452  0.2638
63290W        W64154   9.145   9.825  20.076 -0.0926 -0.2031  0.3061
63291W        W64155   9.391  12.327  21.108 -0.2446 -0.2974  0.2007
63292W        W64156   9.511  12.791  20.751  0.2349  0.1212 -0.0956
63293W        W64157  10.447  10.475  22.945  0.1914 -0.0227 -0.3985
63294W        W64158   7.808  13.966  17.161 -0.1139  0.0851 -0.0434
63295W        W64159  10.180  12.815  16.391 -0.0098 -0.3568  0.1492
63296W        W64160   8.352  12.918  21.570 -0.0801  0.1079 -0.0463
63297W        W64161  10.237  11.396  20.105  0.0938  0.1140  0.2290
63298W        W64162   7.487  10.139  21.850 -0.1945 -0.1990  0.0469
63299W        W64163   8.942  13.498  21.184 -0.0953  0.2580 -0.1720
63300W        W64164   9.466   8.885  22.379  0.0761  0.3855 -0.1517
63301W        W64165   7.689  10.152  20.025 -0.1661  0.1855 -0.0472
63302W        W64166   8.777  12.982  17.855  0.0845 -0.1722  0.1560
63303W        W64167   5.670  12.512  18.589  0.2255 -0.2940 -0.1732
63304W        W64168   8.580  10.310  17.851  0.1923 -0.2460  0.0926
63305W        W64169  11.170  11.393  18.201 -0.3030 -0.0785 -0.1083
63306W        W64170  13.368  14.286  25.485  0.0626  0.1386 -0.0838
63307W        W64171   8.351  13.549  18.770  0.2160 -0.0414 -0.4527
63308W        W64172  11.456  11.272  25.001  0.0399 -0.2438  0.0934
63309W        W64173  10.786  13.986  22.844 -0.1807 -0.0821 -0.1587
63310W        W64174   7.955  12.616  19.606 -0.1460  0.2935  0.2790
63311W        W64175  10.223  11.661  19.646 -0.1131  0.4090  0.0124
63312W        W64176   9.772  10.673  21.221  0.1852 -0.2009 -0.0800
63313W        W64177  10.316  12.116  18.637 -0.1899  0.2284 -0.2658
63314W        W64178   7.605  12.236  19.661 -0.1885  0.1027  0.0043
63315W        W64179   8.321  15.120  19.986  0.0472 -0.2841 -0.1428
63316W        W64180   7.332  10.603  19.635  0.1506 -0.3346 -0.4812
63317W        W64181   9.476  12.652  18.620 -0.2284  0.1200  0.1947
63318W        W64182   9.103  12.797  20.436  0.0147 -0.3105 -0.1518
63319W        W64183   9.337  15.771  22.563  0.0604  0.4788  0.1159
63320W        W64184   9.279  11.153  21.005 -0.0229 -0.0335  0.1471
63321W        W64185   6.179  10.598  18.278 -0.1508  0.4251  0.1511
63322W        W64186   9.933  12.776  20.446  0.0231  0.0356  0.0771
63323W        W64187   8.103  11.186  16.347 -0.0779 -0.1796  0.0013
63324W        W64188  11.249  11.325  21.378  0.0662 -0.3514 -0.0089
63325W        W64189   9.912  13.404  18.252  0.0921  0.1612 -0.1524
63326W        W64190  10.953  11.050  20.752  0.1553 -0.1577  0.0914
63327W        W64191   6.729  14.295  20.905 -0.0621  0.0165 -0.0076
63328W        W64192   7.918  14.041  16.693 -0.1877  0.0078  0.3373
63329W        W64193  10.391   9.878  18.275  0.1640  0.2363 -0.0669
63330W        W64194   4.728  15.967  20.474  0.1528  0.1487 -0.1007
63331W        W64195  10.536  12.756  23.802 -0.1840 -0.1072 -0.2887
63332W        W64196   9.223  11.160  22.476 -0.0343  0.0826 -0.1244
63333W        W64197   8.080  11.967  19.836  0.0300  0.1352 -0.0682
63334W        W64198   7.906  11.815  19.376  0.2198 -0.3011  0.4137
63335W        W64199   8.276  11.779  21.354  0.2494  0.2480 -0.0011
63336W        W64200   4.801  12.170  19.850  0.0631 -0.0460 -0.1712
63337W        W64201  11.266   7.778  18.445 -0.0377 -0.2371 -0.2039
63338W        W64202  10.907  17.565  21.797 -0.0818 -0.2184  0.2339
63339W        W64203  10.445  13.572  21.245  0.0601 -0.0270  0.0314
63340W        W64204   8.753  14.886  18.448 -0.1141  0.0467  0.0833
63341W        W64205   9.029  10.335  17.704 -0.1384 -0.0578  0.2168
63342W        W64206  11.825  12.541  18.971  0.1881 -0.0588  0.0033
63343W        W64207  10.883  11.105  21.719 -0.1045  0.0414 -0.2025
63344W        W64208   9.245  10.000  17.431 -0.0595  0.0356  0.2218
63345W        W64209  11.583  10.543  22.351 -0.5355 -0.1099 -0.0973
63346W        W64210   7.049  11.781  15.780 -0.1860  0.0715  0.1050
63347W        W64211   9.105  11.471  21.386  0.1254 -0.0485 -0.1321
63348W        W64212   8.013  12.511  16.822  0.0194 -0.2769  0.1158
63349W        W64213   7.266  12.604  22.366 -0.1121  0.2531  0.0550
63350W        W64214   9.737  12.349  20.728  0.0489  0.2364  0.2717
63351W        W64215   9.146  15.975  20.682  0.0782  0.2696 -0.1582
63352W        W64216  10.450   8.911  24.498  0.0509 -0.0322  0.2071
63353W        W64217   8.213  10.201  19.905  0.2088 -0.1700  0.0553
63354W        W64218   8.358  12.126  21.896 -0.1942 -0.1069 -0.4270
63355W        W64219   9.966  11.870  20.808  0.2507  0.0864  0.3173
63356W        W64220   8.744  14.771  19.881 -0.3918  0.0002 -0.0922
63357W        W64221  11.395  11.787  22.957  0.1127  0.0584  0.1177
63358W        W64222   7.034  13.740  23.048  0.2976 -0.2855  0.1330
63359W        W64223   8.970  12.582  18.824 -0.0484  0.3021 -0.2566
63360W        W64224  11.340  13.314  19.459  0.0663  0.2660  0.1247
63361W        W64225  10.039  11.384  21.296  0.2058 -0.1698 -0.1343
63362W        W64226   8.302  13.393  19.668 -0.4071 -0.1564 -0.0280
63363W        W64227   8.702  10.542  21.289 -0.5243  0.1403  0.2915
63364W        W64228   8.730  13.001  19.667  0.0196 -0.3540  0.1753
63365W        W64229   9.816  15.688  22.609 -0.2664  0.2225  0.0525
63366W        W64230   9.081  11.560  18.620  0.1772 -0.0240 -0.0345
63367W        W64231   8.724  13.549  20.684 -0.0293 -0.1953 -0.1370
63368W        W64232  10.467  13.801  21.738  0.1411  0.0931  0.2173
63369W        W64233   8.143  11.159  21.495 -0.2208  0.3097 -0.3844
63370W        W64234   8.668  11.858  18.571 -0.1176  0.0750 -0.2380
63371W        W64235   7.869  12.196  22.235 -0.2899  0.1761 -0.1621
63372W        W64236  10.147  14.038  17.514  0.2250  0.2707  0.1087
63373W        W64237   7.954  12.715  21.279  0.0199  0.1672  0.1210
63374W        W64238   6.832  13.195  25.270 -0.0123 -0.0365  0.1881
63375W        W64239   6.237  13.821  21.717 -0.0866 -0.1784 -0.0665
63376W        W64240  11.784  15.826  23.709 -0.1165 -0.0373  0.0066
63377W        W64241  10.671  13.270  24.711 -0.0816  0.0922  0.1141
63378W        W64242   8.277  13.391  23.896  0.1157  0.1341 -0.1405
63379W        W64243  10.187  13.378  22.910 -0.0317 -0.1366 -0.0180
63380W        W64244   8.536  16.849  22.702  0.2162 -0.0398  0.0494
63381W        W64245   9.118  13.858  21.530 -0.2372  0.0179 -0.1493
63382W        W64246   8.827  15.952  27.212 -0.2173 -0.0526 -0.0785
63383W        W64247   8.451  11.511  22.693 -0.1010  0.0286 -0.1383
63384W        W64248   7.581  10.711  22.010  0.0316  0.0478  0.0276
63385W        W64249   7.715  13.303  25.125  0.5419  0.1035 -0.0841
63386W        W64250   9.408  11.043  23.604  0.1209 -0.1747 -0.0554
63387W        W64251   8.841  13.950  25.906 -0.1682 -0.1563  0.0336
63388W        W64252   5.689  10.921  21.028 -0.2773  0.1804  0.1724
63389W        W64253   8.014  15.568  25.357  0.2866  0.1314  0.0958
63390W        W64254   9.163  11.443  20.602  0.0291  0.1286  0.0824
63391W        W64255   7.910  12.859  23.926  0.0876  0.1641 -0.2751
63392W        W64256   7.920  11.966  23.005  0.1318  0.0255  0.0737
63393W        W64257  11.222  10.598  23.450 -0.1357 -0.0618  0.0466
63394W        W64258  11.033   9.952  25.229  0.1724 -0.0476  0.1075
63395W        W64259  11.542  13.937  23.087  0.2403 -0.0811 -0.1614
63396W        W64260   9.682  10.578  24.753 -0.1973  0.0436 -0.1832
63397W        W64261   8.448  13.999  20.582 -0.0804 -0.4185 -0.0403
63398W        W64262   5.492  13.367  21.652 -0.2027 -0.0868  0.1339
63399W        W64263   9.392  12.179  27.930  0.2012  0.3771 -0.0134
63400W        W64264   9.905  12.469  26.544  0.1516  0.2766 -0.0329
63401W        W64265   7.842  16.711  20.800 -0.0087  0.1857  0.1758
63402W        W64266  10.183  16.005  26.261  0.0815  0.0767 -0.1483
63403W        W64267  10.260  11.882  23.969  0.2753  0.1129  0.0693
63404W        W64268  10.530  12.075  22.510  0.1536  0.0803 -0.1215
63405W        W64269  10.849  11.830  24.635 -0.1257  0.0841  0.0453
63406W        W64270   9.500  11.172  27.255  0.0058  0.0201  0.1100
63407W        W64271   8.990  13.311  25.966 -0.1113  0.2083 -0.0218
63408W        W64272   8.835  11.384  23.002  0.2354  0.2355  0.0616
63409W        W64273  13.382  12.995  24.748  0.1341  0.0778 -0.0141
63410W        W64274   5.452  10.609  21.514 -0.0928  0.0980  0.0278
63411W        W64275   9.570  13.977  24.324  0.1266  0.1896  0.1434
63412W        W64276  10.497  12.806  21.768 -0.3990  0.0976 -0.3043
63413W        W64277   9.741  12.135  24.715  0.1392 -0.0359  0.3683
63414W        W64278  10.412  12.205  23.032 -0.5098  0.1792 -0.2143
63415W        W64279  11.695  12.205  24.979 -0.0411  0.4512 -0.0492
63416W        W64280  11.308  16.202  24.181  0.2527  0.0167 -0.2379
63417W        W64281  11.017  13.279  22.474 -0.1435  0.0227  0.1933
63418W        W64282   7.316  16.958  21.675 -0.1900 -0.0507  0.0858
63419W        W64283   5.949  15.682  22.559  0.0906  0.1389 -0.0592
63420W        W64284   9.599  10.601  25.712 -0.3209  0.1728 -0.2558
63421W        W64285  11.287  12.239  26.663  0.0651  0.2024 -0.0589
63422W        W64286   8.692  11.110  22.560  0.0602 -0.2188 -0.0148
63423W        W64287   8.182  11.881  22.551 -0.1488 -0.0547  0.1012
63424W        W64288   9.954  13.733  25.378 -0.4360 -0.1703  0.1012
63425W        W64289   8.966  15.789  25.507 -0.2347 -0.2647  0.0055
63426W        W64290   7.679  13.544  25.816 -0.5835 -0.1352  0.1043
63427W        W64291  10.069  12.340  22.040  0.4007  0.0171  0.0146
63428W        W64292   9.046  10.493  21.721  0.3072  0.1340  0.0373
63429W        W64293  10.181  13.214  23.835 -0.1918  0.2362  0.0199
63430W        W64294   4.961   9.538  20.922  0.0965 -0.0150  0.0218
63431W        W64295   9.322  11.531  23.832  0.2095  0.1397 -0.0150
63432W        W64296   9.237  13.783  22.462 -0.1332 -0.1050  0.3570
63433W        W64297   8.880  13.949  22.873  0.2363  0.2695 -0.1044
63434W        W64298  10.453  11.038  21.001 -0.0306  0.1925 -0.1500
63435W        W64299   8.114  12.941  25.158 -0.0597 -0.0336  0.1219
63436W        W64300   9.042  11.273  24.411  0.2757  0.1916  0.1359
63437W        W64301   9.745  15.084  24.398  0.2743 -0.0988 -0.1548
63438W        W64302   7.648  14.397  22.966  0.1440  0.3671  0.0791
63439W        W64303  13.748   9.808  24.604 -0.1748  0.0726  0.0574
63440W        W64304   9.633  12.621  21.855 -0.2953  0.1132 -0.2760
63441W        W64305   6.755  13.872  21.772  0.1444 -0.0522  0.0587
63442W        W64306  10.178  12.839  24.168  0.0716  0.1432 -0.2347
63443W        W64307   8.734  17.083  22.270  0.6214 -0.3809 -0.3964
63444W        W64308  10.137  10.599  24.605 -0.0292  0.2118  0.1969
63445W        W64309   8.292  11.378  22.283  0.2871  0.2275 -0.0999
63446W        W64310  11.108  15.795  25.424 -0.2454 -0.0855 -0.0182
63447W        W64311  11.154  11.087  23.263  0.1146  0.1986  0.1295
63448W        W64312  10.957  10.865  24.953  0.3070 -0.4403 -0.0118
63449W        W64313  10.239  13.608  27.294  0.0164  0.1682  0.1308
63450W        W64314   8.141  10.733  24.016  0.3285 -0.0346 -0.1298
63451W        W64315   8.157  13.621  24.334 -0.1631 -0.1498 -0.1662
63452W        W64316  11.501  15.103  25.674  0.2609 -0.1018 -0.0044
63453W        W64317   9.439  11.548  25.462  0.3666 -0.0809 -0.2256
63454W        W64318   7.883  10.246  23.824  0.1894 -0.0109  0.1680
63455W        W64319   7.554  14.945  21.650 -0.1061  0.1264 -0.0693
63456W        W64320   6.210  12.321  20.288 -0.0616 -0.0837  0.2067
63457W        W64321  10.384  11.084  23.799  0.1953 -0.1672 -0.0634
63458W        W64322   9.923  10.467  23.395 -0.1262  0.1368 -0.3454
63459W        W64323  10.712  11.972  24.138  0.0036  0.0277  0.1162
63460W        W64324  12.962  13.121  27.117 -0.0475  0.0298 -0.0475
63461W        W64325  12.327  12.673  25.762  0.3076  0.1647  0.1814
63462W        W64326  12.527  13.191  25.553 -0.1772 -0.0058 -0.2961
63463W        W64327  12.739   9.956  26.793 -0.2048  0.0101 -0.0282
63464W        W64328   7.262  10.901  23.044 -0.0861 -0.0022  0.0793
63465W        W64329  11.117  10.973  26.679 -0.3753 -0.2153 -0.0350
63466W        W64330  11.477  15.131  24.092  0.3031  0.1341  0.2899
63467W        W64331   9.172  11.983  22.223  0.2276 -0.0419  0.3469
63468W        W64332   3.535  14.443  22.662 -0.0842  0.3967 -0.2632
63469W        W64333  10.422  10.742  25.052  0.3423  0.4937 -0.0080
63470W        W64334   8.235  10.013  22.971 -0.1871 -0.2149  0.1614
63471W        W64335   8.244  14.289  24.543 -0.0142  0.0208  0.0164
63472W        W64336   9.240  10.212  20.960 -0.0329  0.2356 -0.0135
63473W        W64337  11.741  11.159  23.289  0.1667 -0.0477 -0.3974
63474W        W64338   9.227  12.526  22.307 -0.0428  0.1111 -0.1165
63475W        W64339   8.509  13.482  23.016 -0.0441 -0.0554 -0.1649
63476W        W64340   8.841  12.217  21.530 -0.2524 -0.1563  0.0386
63477W        W64341  11.569  15.998  25.245 -0.0989 -0.0022 -0.0356
63478W        W64342   8.141  10.744  24.567 -0.2121 -0.0406  0.0982
63479W        W64343   9.411  13.066  24.632 -0.1185 -0.1249  0.1607
63480W        W64344  10.017  13.061  22.576 -0.1806 -0.2362  0.0826
63481W        W64345  11.248  12.502  25.609 -0.3131  0.1803 -0.1396
63482W        W64346   7.963  12.381  23.580 -0.0778  0.0947 -0.1081
63483W        W64347   8.171  11.104  22.699 -0.4883  0.2503 -0.1214
63484W        W64348   6.996  13.083  22.440 -0.0566  0.2790  0.1216
63485W        W64349  10.861  14.319  25.114 -0.0899 -0.2196 -0.1919
63486W        W64350  12.948  12.856  24.498  0.3582  0.0726  0.0996
63487W        W64351   9.874  14.457  24.316 -0.2510  0.3130 -0.2127
63488W        W64352   9.590  13.308  20.953  0.0774 -0.1594 -0.0007
63489W        W64353   9.035  13.007  22.427  0.3772  0.0039  0.1624
63490W        W64354   9.811  11.223  25.488 -0.0443  0.1966 -0.0248
63491W        W64355   8.109  12.670  22.604  0.1225 -0.1600 -0.1809
63492W        W64356   6.423  11.511  22.525  0.1102  0.1436  0.2017
63493W        W64357   7.507  11.870  21.841  0.3409 -0.0376 -0.2391
63494W        W64358  11.100  11.640  24.147 -0.0637 -0.0930  0.2727
63495W        W64359  10.016  12.091  23.421 -0.1055 -0.1040 -0.2900
63496W        W64360  10.761  12.351  24.527 -0.1826 -0.2172 -0.0302
63497W        W64361  12.586  16.541  22.689 -0.0784  0.1080 -0.1045
63498W        W64362   9.738  13.093  23.229  0.0925  0.1688 -0.0819
63499W        W64363   8.977  13.507  23.156 -0.1203  0.0634  0.0623
63500W        W64364   8.114  13.441  23.336  0.0202 -0.0001 -0.1943
63501W        W64365   9.961  10.534  26.067 -0.0428  0.1887  0.1278
63502W        W64366  12.285  15.289  25.758  0.0080 -0.0321 -0.0360
63503W        W64367   8.373  15.663  24.334 -0.0783  0.3620 -0.4318
63504W        W64368  11.323  14.804  23.018  0.4206 -0.2797  0.3254
63505W        W64369  11.247  11.890  24.865  0.2333  0.2992  0.3338
63506W        W64370   9.804  15.932  24.095  0.1745  0.1209  0.1602
63507W        W64371  11.610  11.605  22.460 -0.0654  0.0123 -0.0207
63508W        W64372   8.644  11.495  24.562 -0.4413  0.1232  0.0020
63509W        W64373   9.919  13.177  21.347 -0.0482 -0.1092 -0.1836
63510W        W64374  11.252  10.348  24.748 -0.0593 -0.0026 -0.1889
63511W        W64375  12.310  10.833  25.218 -0.1561 -0.0688 -0.1287
63512W        W64376   9.627  14.141  28.040  0.1629 -0.2566  0.0932
63513W        W64377   8.505  14.822  23.382 -0.1400  0.0093  0.0905
63514W        W64378   7.367  12.107  22.298  0.0130 -0.0813  0.4708
63515W        W64379   7.366  14.055  23.421  0.1309 -0.0403 -0.0148
63516W        W64380   9.004  13.367  21.710 -0.1458 -0.4362  0.1094
63517W        W64381   9.699  13.452  24.524  0.1545  0.1890  0.0321
63518W        W64382  11.259  15.112  26.975  0.0514 -0.3065  0.0346
63519W        W64383   6.996  12.081  23.559  0.1893 -0.0008  0.2449
63520W        W64384  11.836  10.627  23.227  0.1272 -0.0393 -0.2001
63521W        W64385   9.558  12.601  24.880 -0.0979  0.0694 -0.0881
63522W        W64386   9.460  11.633  22.423  0.1725  0.0815 -0.2847
63523W        W64387   7.734  13.604  22.443 -0.2692 -0.1046  0.2020
63524W        W64388  11.265  13.342  24.847  0.1239  0.0840 -0.0280
63525W        W64389   8.286  12.352  21.486 -0.1204  0.1318  0.1337
63526W        W64390   9.408  15.710  23.411  0.1104  0.2771  0.3049
63527W        W64391   9.630  12.430  23.597  0.0584 -0.1489  0.0076
63528W        W64392   9.191  11.379  24.979 -0.0714  0.1609 -0.3115
63529W        W64393  10.273  10.899  23.367  0.1206  0.0975  0.0219
63530W        W64394   8.851  15.106  23.624  0.3610 -0.0123 -0.3739
63531W        W64395   9.705  14.076  24.866  0.0255 -0.0719  0.1754
63532W        W64396   7.181  10.040  20.080  0.1158 -0.0159 -0.0731
63533W        W64397   7.732  10.512  24.323  0.2531 -0.0043  0.0493
63534W        W64398  12.125   8.792  23.542  0.0610 -0.0579  0.0187
63535W        W64399   8.447  15.678  25.603 -0.1045 -0.0546  0.1948
63536W        W64400   8.045  11.683  25.552  0.0918 -0.3874  0.0960
63537W        W64401  10.723  14.285  26.614  0.0208  0.0595  0.2218
63538W        W64402  10.351  12.219  25.596 -0.2360 -0.0390 -0.2153
63539W        W64403   8.014  13.243  21.554  0.0058 -0.3609 -0.1513
63540W        W64404   7.555  13.576  19.814 -0.0997  0.1764  0.0392
63541W        W64405  10.596  15.226  24.726  0.0991 -0.2124  0.0119
63542W        W64406  10.320  14.759  27.564  0.2336 -0.0468 -0.4611
63543W        W64407   9.241  12.617  24.467  0.1845  0.3214 -0.0787
63544W        W64408  11.133   9.545  24.392  0.1405 -0.1422 -0.3557
63545W        W64409  10.882  12.149  25.514 -0.1039  0.1639 -0.5438
63546W        W64410   7.566  11.795  24.789 -0.0969  0.3184 -0.0397
63547W        W64411  10.640  15.970  26.035 -0.1023  0.3920  0.2384
63548W        W64412   8.820  10.620  23.588 -0.1903  0.1271  0.1810
63549W        W64413   9.545  11.713  24.234 -0.0551 -0.0550  0.1134
63550W        W64414   7.756  15.408  25.772  0.0990 -0.0379  0.1819
63551W        W64415   7.626  14.800  22.619  0.3072  0.0193  0.4022
63552W        W64416   8.577  13.815  23.857  0.1713 -0.0753  0.0660
63553W        W64417   9.144  13.816  25.260  0.0280  0.1579  0.0050
63554W        W64418   8.103  12.445  23.082  0.3030 -0.0197  0.0197
63555W        W64419  10.449  15.334  20.802  0.0353 -0.0406  0.0769
63556W        W64420  10.417  10.000  23.070 -0.0205  0.1308 -0.3704
63557W        W64421   8.761  13.310  23.928  0.0115  0.4132 -0.1741
63558W        W64422   8.597   9.155  22.191 -0.0848  0.2694  0.0695
63559W        W64423   7.891  13.819  26.215  0.0680  0.1237  0.1975
63560W        W64424  10.664  11.375  23.341 -0.0148 -0.2136  0.2190
63561W        W64425   6.779  12.358  21.843  0.4645 -0.1115  0.0026
63562W        W64426   9.930  13.014  24.724  0.0123 -0.2278 -0.1631
63563W        W64427   8.388  12.514  24.361 -0.0528  0.1449  0.0001
63564W        W64428   6.149  11.208  24.902 -0.2216 -0.3267 -0.1912
63565W        W64429   4.561  12.761  20.462  0.1881  0.0653  0.1969
63566W        W64430   6.208  12.824  22.129  0.1940 -0.1658 -0.1721
63567W        W64431   8.701  11.708  26.039 -0.1490 -0.1384 -0.2126
63568W        W64432   8.030  13.459  22.852  0.3520 -0.0711  0.1340
63569W        W64433   7.444  13.077  22.322 -0.1701 -0.0256  0.2551
63570W        W64434   6.946  12.978  20.689  0.2343 -0.2357  0.3526
63571W        W64435   5.702  13.125  22.055  0.0444 -0.1893  0.1427
63572W        W64436   6.137  11.671  20.848 -0.0358  0.0193 -0.0155
63573W        W64437   9.059  10.500  24.439  0.0207  0.0632 -0.0546
63574W        W64438   6.998  10.201  22.016  0.1891 -0.1796  0.1659
63575W        W64439   9.696  13.556  25.004  0.0232  0.2778 -0.2472
63576W        W64440  10.514  11.765  21.682  0.0147  0.0433  0.0521
63577W        W64441   8.305  13.079  22.995 -0.1938 -0.3218 -0.1337
63578W        W64442   8.919  10.152  25.897 -0.0107 -0.1029 -0.1230
63579W        W64443   8.191  11.581  20.204  0.0802 -0.1059  0.2276
63580W        W64444   7.409  10.826  23.951  0.0118  0.1740 -0.2023
63581W        W64445   9.833  12.622  25.501 -0.1129 -0.1470 -0.2574
63582W        W64446   6.778  12.927  22.865 -0.2506 -0.0895  0.3575
63583W        W64447   8.367  14.031  22.006  0.1954  0.0890  0.0976
63584W        W64448   7.284  13.269  24.847 -0.3221 -0.1662  0.3668
63585W        W64449   5.537  13.757  24.312  0.0027 -0.2400  0.1560
63586W        W64450  10.549  14.159  24.074 -0.1537 -0.3243 -0.2702
63587W        W64451   8.721  10.495  25.429 -0.1261  0.1140 -0.2498
63588W        W64452  11.560   9.524  26.313  0.0316 -0.0264  0.1868
63589W        W64453   9.719  14.569  22.654  0.1764 -0.0149  0.2683
63590W        W64454   9.243  13.386  22.176  0.2591 -0.1830 -0.0545
63591W        W64455  11.007  17.429  19.554 -0.0555  0.1606  0.2158
63592W        W64456  10.692  12.142  25.998 -0.1875 -0.0066 -0.2331
63593W        W64457   7.971  14.730  25.732  0.0159 -0.2744 -0.1364
63594W        W64458  11.694   9.474  24.378  0.1094 -0.1170 -0.3093
63595W        W64459   9.951  10.924  24.231 -0.1374 -0.3201  0.1023
63596W        W64460   9.494  13.400  26.511  0.1464  0.0047 -0.1440
63597W        W64461   9.107   9.904  23.064 -0.1229  0.2360 -0.0642
63598W        W64462  10.403  16.176  24.774  0.1704 -0.0399  0.1194
63599W        W64463   6.494  11.984  21.620  0.1016 -0.0344  0.0388
63600W        W64464   7.278  12.467  21.836 -0.1228  0.2469  0.3925
63601W        W64465  12.574  10.895  26.173 -0.0962 -0.1697 -0.1931
63602W        W64466  12.303  12.715  22.917  0.1620  0.2656 -0.1888
63603W        W64467  12.377  13.561  24.301  0.0017 -0.0775 -0.0621
63604W        W64468   8.509  10.337  24.520  0.1559 -0.0785 -0.1711
63605W        W64469   9.943  12.202  27.744 -0.0860 -0.0666 -0.2155
63606W        W64470   9.534  16.697  24.587  0.1788  0.0556  0.0774
63607W        W64471  11.914  16.622  23.029  0.3483 -0.0356 -0.3482
63608W        W64472   5.748  13.879  20.663 -0.0959  0.0372 -0.1303
63609W        W64473  10.643  15.347  23.634 -0.0856 -0.2346 -0.1735
63610W        W64474   8.495  11.920  25.275  0.0371  0.0029  0.1766
63611W        W64475   8.585  11.813  22.230 -0.0213 -0.0407 -0.0980
63612W        W64476   9.753  11.779  23.739  0.1071 -0.2141 -0.0715
63613W        W64477   9.375  13.439  24.134  0.0626  0.1375 -0.2077
63614W        W64478   8.160  13.902  23.530 -0.0277 -0.3694  0.1605
63615W        W64479   6.872  16.903  24.544  0.0514  0.1346 -0.1505
63616W        W64480   6.485  13.078  22.482  0.0811 -0.0275 -0.1001
63617W        W64481   8.309  11.596  21.823 -0.0881  0.0123 -0.0261
63618W        W64482   8.654  13.149  25.187 -0.1646 -0.4887 -0.1633
63619W        W64483   9.844  12.665  23.071  0.1956 -0.0577 -0.0465
63620W        W64484  12.152  11.861  24.019  0.0067  0.0970  0.2376
63621W        W64485   6.993  16.170  26.892  0.0792  0.1684 -0.0927
63622W        W64486   9.383  12.157  24.361  0.0409 -0.0080  0.0813
63623W        W64487   9.407  11.059  22.033  0.1549  0.1345  0.1918
63624W        W64488   9.403  12.446  23.111 -0.1460  0.0364 -0.0011
63625W        W64489   8.997  14.674  21.827  0.1647  0.0047 -0.4395
63626W        W64490  10.290  11.468  27.075  0.1088 -0.2473  0.1434
63627W        W64491  10.288  13.317  24.372  0.1129 -0.3484  0.0374
63628W        W64492   7.860  12.298  21.718 -0.1828  0.2653  0.0939
63629W        W64493  12.122  14.390  23.781  0.0843 -0.3442  0.5442
63630W        W64494   9.218  11.795  22.914 -0.1686  0.1385 -0.0132
63631W        W64495   6.098   9.599  26.512  0.1619  0.0171 -0.2118
63632W        W64496  11.099  12.895  23.922 -0.0636  0.0248 -0.0291
63633W        W64497  13.248  12.363  24.301 -0.1174 -0.1656 -0.0243
63634W        W64498  11.891   9.950  22.500 -0.1129  0.2204  0.1312
63635W        W64499   7.929  11.110  23.743 -0.0764 -0.1307  0.2595
63636W        W64500   7.691  13.101  23.051 -0.0511 -0.0241 -0.4176
63637W        W64501   7.441  13.520  23.369  0.0131 -0.2317  0.2201
63638W        W64502   7.810  17.146  22.715 -0.1352 -0.3162  0.0197
63639W        W64503   9.202  12.429  25.876  0.1727 -0.4363 -0.1231
63640W        W64504   8.312  12.963  21.068 -0.1014  0.2018 -0.0614
63641W        W64505   8.770  13.063  22.850  0.1609 -0.1133  0.2350
63642W        W64506   8.039  14.089  26.619  0.1754 -0.1342  0.0358
63643W        W64507  11.103  12.361  26.078  0.0308  0.0680  0.0594
63644W        W64508  10.758  12.658  23.151 -0.2189 -0.2120 -0.0146
63645W        W64509   8.125  10.153  26.988 -0.0103  0.1102 -0.2694
63646W        W64510   9.219  10.968  27.680 -0.1678  0.0334  0.3813
63647W        W64511   8.658  11.840  23.298  0.3281 -0.0227  0.0575
63648W        W64512   8.868  11.027  24.879  0.0993 -0.1636 -0.0437
63649W        W64513   9.746  11.153  26.556 -0.2420  0.0133  0.0681
63650W        W64514   8.411  10.598  22.747 -0.1064  0.1423 -0.0505
63651W        W64515   8.323  15.252  23.686 -0.1079 -0.1831  0.2489
63652W        W64516   9.571  11.986  23.319 -0.0208 -0.2339  0.1093
63653W        W64517   7.825  16.833  23.907 -0.1955  0.2554 -0.3596
63654W        W64518  10.387  15.124  25.143 -0.0758  0.0346 -0.1228
63655W        W64519   6.584  11.930  20.585  0.1197  0.0148  0.0871
63656W        W64520   7.897  16.520  24.479  0.1065 -0.0669 -0.1724
63657W        W64521   6.941  13.293  21.558  0.0512 -0.0719 -0.2335
63658W        W64522  11.602  14.629  21.296  0.0842  0.0170 -0.2079
63659W        W64523  12.660  10.171  24.881  0.2234  0.2071 -0.0002
63660W        W64524   8.712  12.609  21.771 -0.0629  0.2810  0.0221
63661W        W64525   8.342  11.917  28.672 -0.2551 -0.0909  0.2275
63662W        W64526  10.924   9.878  22.395  0.1415 -0.3473  0.2061
63663W        W64527   8.444  12.088  22.850 -0.2873 -0.0067 -0.4720
63664W        W64528  10.672  12.833  24.246  0.0993 -0.0969 -0.0057
63665W        W64529  10.216  10.512  21.410  0.2348 -0.1425  0.2128
63666W        W64530  12.026  10.799  24.777  0.1060  0.0493  0.0355
63667W        W64531   9.199  14.442  22.322  0.0539 -0.0370 -0.2770
63668W        W64532  10.566  14.331  23.624 -0.0623  0.1724  0.1337
63669W        W64533  13.530  10.245  25.510 -0.2697 -0.1129  0.0723
63670W        W64534   7.593   9.727  23.136  0.4190 -0.1468  0.2391
63671W        W64535  11.388  12.029  25.339 -0.4956  0.0482  0.0520
63672W        W64536  11.910  13.608  24.125  0.0668 -0.1604  0.4634
63673W        W64537   7.137  14.212  21.894  0.2031  0.0039  0.1634
63674W        W64538   6.468  15.401  21.108 -0.0536  0.1538  0.1034
63675W        W64539   6.482   7.822  26.843  0.2168 -0.3533 -0.0914
63676W        W64540   7.500  14.018  25.824 -0.0063 -0.0243  0.0934
63677W        W64541  11.299  11.978  22.486 -0.2636  0.0438  0.0643
63678W        W64542  10.003  11.410  24.001  0.1498 -0.0430  0.0449
63679W        W64543  11.078  15.694  26.174  0.1056  0.0977  0.4604
63680W        W64544   8.711  12.921  24.241 -0.1575  0.0436 -0.1624
63681W        W64545   7.906  11.500  22.622  0.0564 -0.1753  0.2491
63682W        W64546  11.588  11.052  25.669  0.0262  0.0405  0.3673
63683W        W64547   8.873  13.474  22.606  0.0492  0.2826  0.0297
63684W        W64548   7.328  10.873  22.414 -0.2182  0.2906 -0.2828
63685W        W64549  10.324  10.983  26.097 -0.1259 -0.1465 -0.0787
63686W        W64550   9.008  12.615  22.779  0.1744 -0.3275 -0.0287
63687W        W64551   8.840  11.973  24.698  0.0828 -0.0633 -0.1026
63688W        W64552   7.360  11.620  23.538  0.0326 -0.0702 -0.2730
63689W        W64553   8.372  13.724  22.570 -0.0064  0.0517  0.0932
63690W        W64554   7.952  14.062  22.665  0.0617  0.2577 -0.2207
63691W        W64555   8.933  12.412  24.079  0.1910 -0.1361  0.0437
63692W        W64556  10.908  12.827  24.731  0.0096  0.2571 -0.1035
63693W        W64557   9.314  12.212  22.682  0.1459  0.0793 -0.1053
63694W        W64558   6.744  15.076  24.289 -0.1202  0.1951 -0.2405
63695W        W64559  10.211  14.044  21.373  0.2448  0.0620  0.3687
63696W        W64560   8.120  11.515  23.096 -0.2397  0.1858  0.1236
63697W        W64561  12.309  13.144  25.083  0.0156 -0.0213 -0.2424
63698W        W64562   9.250  12.303  21.828 -0.2128  0.0505 -0.3432
63699W        W64563   8.925  14.785  27.701 -0.1336 -0.0745 -0.1682
63700W        W64564   7.836  13.338  23.711  0.0982 -0.1272  0.0757
63701W        W64565   8.270  14.571  19.817  0.5027  0.3879 -0.0386
63702W        W64566   9.817  14.246  21.153  0.1984  0.1257  0.2694
63703W        W64567   9.990  13.707  21.726 -0.1818 -0.1779  0.2921
63704W        W64568   9.470  10.834  24.093  0.3454 -0.1490 -0.2736
63705W        W64569  10.704  10.617  21.492 -0.2194 -0.2411  0.0434
63706W        W64570   9.231  12.233  24.843  0.0186  0.1022  0.3348
63707W        W64571  10.589  15.562  22.151 -0.0342  0.3873  0.1260
63708W        W64572  13.306  12.353  24.863 -0.0098  0.0230  0.0392
63709W        W64573  10.600  14.533  26.106 -0.2103 -0.0001  0.1086
63710W        W64574   7.639  16.125  22.581  0.0244 -0.0749  0.0772
63711W        W64575  10.429  14.242  23.037 -0.2324 -0.1440  0.3802
63712W        W64576   6.523  13.518  21.451  0.1132 -0.4429 -0.3614
63713W        W64577   8.862   9.068  20.036 -0.0445  0.0578  0.2024
63714W        W64578   8.929  14.443  22.752 -0.2294 -0.2966  0.0352
63715W        W64579   7.336  14.401  22.409 -0.0645 -0.0866  0.1520
63716W        W64580  11.296  10.962  24.203 -0.0243 -0.0043  0.0892
63717W        W64581   7.495  13.874  22.793  0.0519  0.0517 -0.0241
63718W        W64582  10.430  13.614  25.329  0.3188  0.2714 -0.1469
63719W        W64583   8.421  15.070  27.464 -0.0796 -0.1081  0.0642
63720W        W64584   7.874  14.959  21.175 -0.1030  0.1306  0.1876
63721W        W64585   6.633  11.955  22.665 -0.0166 -0.0768 -0.2678
63722W        W64586   8.092  14.905  24.575  0.2978  0.1807 -0.1088
63723W        W64587   5.120  13.276  20.255  0.2212 -0.4701  0.0453
63724W        W64588  10.982  11.085  26.143 -0.1002  0.0239 -0.2132
63725W        W64589  10.053  11.463  22.554  0.0295  0.1370  0.1655
63726W        W64590  11.195  14.569  24.836 -0.1425  0.1727 -0.0573
63727W        W64591   9.147  14.767  25.901 -0.0540 -0.0643 -0.1043
63728W        W64592   8.100  13.085  22.071  0.1592 -0.0796  0.1388
63729W        W64593   7.301  10.067  22.943 -0.1213  0.1187  0.2231
63730W        W64594   7.131  15.658  18.826  0.0545  0.0474  0.0383
63731W        W64595   9.062  11.630  26.472 -0.3207 -0.0413  0.5388
63732W        W64596   5.449  11.090  20.164  0.0382  0.0444  0.0564
63733W        W64597   6.416  14.097  21.297  0.1015  0.2864 -0.3471
63734W        W64598  10.078  11.814  24.918  0.3145 -0.2065 -0.5871
63735W        W64599  10.625  13.370  25.707 -0.0417  0.1444 -0.2149
63736W        W64600   7.800  13.820  23.128  0.0118 -0.0639 -0.0892
63737W        W64601   9.840   8.462  22.480 -0.0162 -0.1179 -0.0512
63738W        W64602  11.249  15.697  22.829  0.1566  0.1264  0.0007
63739W        W64603   9.227  10.126  24.797  0.0750 -0.0776  0.2398
63740W        W64604  12.103  12.727  23.920 -0.2229 -0.3110 -0.2994
63741W        W64605   8.637  11.473  25.051 -0.3220 -0.1153 -0.0713
63742W        W64606   8.425   9.702  20.499  0.1230 -0.1616 -0.0209
63743W        W64607  13.161  10.524  23.548  0.0292 -0.1107  0.0344
63744W        W64608   8.854  12.166  22.562  0.2025  0.0909  0.0801
63745W        W64609  11.147  12.016  23.862 -0.1391  0.0248 -0.1113
63746W        W64610   9.079  14.547  24.268 -0.2452  0.1529 -0.1049
63747W        W64611  10.875  13.741  24.044  0.2991 -0.1744  0.2637
63748W        W64612  11.054  12.316  20.878 -0.3264 -0.1692  0.0400
63749W        W64613   9.536  12.614  24.051 -0.0715 -0.1025  0.0550
63750W        W64614   8.890  13.013  24.685  0.0194  0.0820  0.1874
63751W        W64615  10.195  12.782  27.062  0.2056  0.0766  0.0362
63752W        W64616  10.554  12.990  25.077  0.1084 -0.1624  0.1038
63753W        W64617   7.597  14.824  22.139 -0.2714 -0.1775 -0.2058
63754W        W64618   8.475  12.887  23.824  0.1767 -0.0749 -0.3967
63755W        W64619   8.169  16.319  23.026 -0.1226 -0.2478 -0.0925
63756W        W64620   5.552  15.944  23.637 -0.3219  0.2423  0.0100
63757W        W64621  10.234  12.534  25.951 -0.1044 -0.2064  0.0436
63758W        W64622  11.378  15.192  27.969  0.0817 -0.1258 -0.2595
63759W        W64623   9.294  11.774  24.712 -0.0067  0.3704 -0.0831
63760W        W64624  10.391  15.379  19.936  0.1607 -0.0813 -0.0638
63761W        W64625   8.878  14.443  23.261  0.0086 -0.2053 -0.0179
63762W        W64626   9.600  12.858  26.451  0.0257 -0.4674 -0.1596
63763W        W64627   9.905  12.829  23.662 -0.0242 -0.1064  0.3243
63764W        W64628  10.596  13.852  25.797 -0.0151  0.2561  0.2372
63765W        W64629   9.235  14.013  23.327  0.0164  0.2141 -0.2594
63766W        W64630   8.651  14.261  24.833  0.1635 -0.0699 -0.2727
63767W        W64631  12.111  12.495  25.187 -0.0261 -0.1748 -0.2963
63768W        W64632   9.019  14.124  24.575  0.0533 -0.1158 -0.0882
63769W        W64633  10.795  10.751  25.432 -0.3620 -0.0680 -0.0232
63770W        W64634  10.485  13.908  22.267 -0.0409 -0.0246  0.2848
63771W        W64635   9.578  12.885  27.198 -0.1042 -0.3337  0.0319
63772W        W64636   8.711  15.960  24.637 -0.2383 -0.0553 -0.1206
63773W        W64637   7.075  12.937  21.902 -0.1081 -0.0883 -0.1508
63774W        W64638   6.044  16.009  27.504 -0.0533 -0.1868  0.3315
63775W        W64639   9.078  11.945  28.636  0.0720  0.0594  0.0228
63776W        W64640  11.960   9.285   0.927 -0.0784 -0.0518  0.1036
63777W        W64641  10.446  11.959  27.581 -0.1698 -0.3014 -0.1823
63778W        W64642   7.491  14.920  24.822 -0.2111  0.3788  0.1629
63779W        W64643   9.521  10.799  28.046 -0.3024 -0.1296  0.0372
63780W        W64644   5.977  11.029  25.961 -0.1718  0.2792 -0.0266
63781W        W64645   8.145  12.372  28.049  0.0371 -0.1050 -0.1536
63782W        W64646  11.994  16.464  26.755 -0.0582 -0.0801  0.2669
63783W        W64647   7.412   9.797   0.127 -0.5804 -0.0619  0.1303
63784W        W64648   9.192   9.422  28.934  0.2079  0.0414  0.2330
63785W        W64649  11.500  11.269  27.984 -0.1954  0.0595 -0.3565
63786W        W64650  10.439  10.278  25.884 -0.0951  0.0279  0.0918
63787W        W64651   9.192  10.518   0.685  0.1330  0.0292 -0.2790
63788W        W64652   6.021  11.669  24.748 -0.3553  0.0309 -0.3143
63789W        W64653   6.016  13.982   0.030 -0.0645 -0.5700  0.0709
63790W        W64654   9.835  13.121  26.792 -0.1769 -0.2278 -0.0348
63791W        W64655   7.807  13.764  25.247  0.1023 -0.3574  0.0090
63792W        W64656   7.783  10.182   0.091  0.0195 -0.1230  0.2307
63793W        W64657   9.177  10.632  28.862  0.2270  0.3177 -0.1695
63794W        W64658   8.270  14.642   0.840 -0.1613 -0.0803 -0.1239
63795W        W64659   7.573  14.919  27.250 -0.2107  0.1357 -0.1178
63796W        W64660  11.434  14.756  27.291 -0.1527 -0.0661  0.0018
63797W        W64661   8.488  10.668  24.933  0.1949  0.1626  0.2162
63798W        W64662   4.682  12.982  27.432  0.2297 -0.1040 -0.0002
63799W        W64663   8.485  11.182   0.581  0.0811  0.0616 -0.3432
63800W        W64664  11.076  11.754   0.506  0.1718  0.1664  0.0235
63801W        W64665  10.062  13.360  25.687  0.2492  0.0262 -0.0324
63802W        W64666   6.686  12.256  28.705  0.1514  0.0498 -0.1041
63803W        W64667   7.065  11.854  26.176  0.1249 -0.0666 -0.0685
63804W        W64668   6.780  11.750  25.817  0.2681  0.2517 -0.1212
63805W        W64669   7.886  14.409   0.488 -0.3377  0.1731  0.2174
63806W        W64670   8.861  16.550  27.913  0.0878  0.2936  0.2633
63807W        W64671   5.841  10.356  27.541  0.0985 -0.1626  0.3395
63808W        W64672   5.102  14.925   0.485  0.4055 -0.4515 -0.1444
63809W        W64673   9.647  13.277   3.109 -0.2493  0.1312  0.1678
63810W        W64674   8.117  10.338  24.919 -0.1309 -0.0642 -0.2131
63811W        W64675   8.743  14.939   0.260  0.0283 -0.0902 -0.0644
63812W        W64676   9.068  13.269  25.454 -0.0028 -0.0963  0.2263
63813W        W64677   8.785  10.262   1.716 -0.1694 -0.1050 -0.1484
63814W        W64678   9.090  12.516  27.342 -0.2777  0.0429  0.0877
63815W        W64679  10.279  10.774  27.543 -0.0212  0.0359  0.1344
63816W        W64680   9.524  14.357  28.628 -0.2077  0.1430  0.0856
63817W        W64681  11.521  12.896  25.721 -0.0106  0.0152 -0.1547
63818W        W64682   8.453  13.304  25.773 -0.0176  0.1131  0.1499
63819W        W64683  12.120  15.286  24.719 -0.1498  0.0999  0.0876
63820W        W64684   9.594   9.603  26.911  0.0466 -0.1519  0.1826
63821W        W64685   8.987  12.454   0.860  0.0493  0.0927 -0.0171
63822W        W64686   8.971  11.283  27.351  0.1042 -0.0607  0.0147
63823W        W64687  12.560  12.758  25.308 -0.1400  0.0278  0.0696
63824W        W64688   9.911  13.341  26.296 -0.2999  0.0071 -0.1269
63825W        W64689   6.102  13.042  25.983  0.0581 -0.0412 -0.0044
63826W        W64690  12.653  15.564   1.302  0.2825  0.3404  0.0459
63827W        W64691  11.112  11.256  25.427 -0.1921 -0.0104 -0.2394
63828W        W64692  11.191  12.272  28.194  0.0730 -0.4001 -0.1383
63829W        W64693   9.481  16.459  26.313  0.0289  0.2397  0.1780
63830W        W64694   6.586  12.467  25.199  0.3966  0.0803 -0.2781
63831W        W64695   7.996  11.389   0.810 -0.0259 -0.2124 -0.2247
63832W        W64696   9.067  14.243  26.991 -0.0953 -0.0843 -0.0738
63833W        W64697   9.091  12.706  24.989  0.0706 -0.2013  0.0725
63834W        W64698   9.022  11.822  24.162  0.2370 -0.4670 -0.3314
63835W        W64699   6.745  12.819  27.185 -0.3474 -0.0097 -0.0607
63836W        W64700   9.936  12.020  26.804  0.2223 -0.0045 -0.1038
63837W        W64701   7.856  14.203  24.987  0.0723  0.0283 -0.0959
63838W        W64702   8.978  12.785  25.447 -0.2592 -0.1477 -0.0211
63839W        W64703   9.976  12.301  27.196 -0.4081 -0.0240  0.2889
63840W        W64704   9.495  15.279  27.180 -0.0067 -0.1128 -0.0019
63841W        W64705   5.294   9.828  24.585  0.0624 -0.2227  0.0423
63842W        W64706   9.442  14.783  27.669  0.1343 -0.0401  0.0395
63843W        W64707   9.906  15.074  24.957 -0.1634  0.0044 -0.2993
63844W        W64708  10.599  12.863  27.387 -0.0730 -0.0151  0.0818
63845W        W64709   8.412  15.211  24.194 -0.1261 -0.0210 -0.2674
63846W        W64710  10.466  12.206  27.152  0.1275 -0.2580 -0.0798
63847W        W64711  10.670  12.183  28.950 -0.0455  0.3373 -0.0495
63848W        W64712  11.756  13.444  27.819  0.1345  0.0685 -0.3790
63849W        W64713   9.104  14.448   0.584  0.1827  0.0325 -0.1214
63850W        W64714   7.096  13.271  26.266  0.0790 -0.2033  0.0295
63851W        W64715   8.391  12.965  26.125 -0.0978 -0.0302  0.0730
63852W        W64716  10.130  11.604  26.558 -0.0105 -0.3081 -0.0408
63853W        W64717   9.460  11.875  26.759 -0.0463  0.2740  0.3538
63854W        W64718   9.251  11.613  25.917 -0.1430  0.1890  0.0753
63855W        W64719   8.159  10.612  28.478 -0.4205  0.2355 -0.0444
63856W        W64720   7.647  10.637  26.172 -0.0403  0.1296 -0.0537
63857W        W64721   7.064  13.340  27.580 -0.2243 -0.2715  0.1796
63858W        W64722   9.049   8.926   1.107  0.2115  0.1375 -0.0668
63859W        W64723   8.933  12.290  25.267  0.0171 -0.1641  0.2600
63860W        W64724  11.509  13.353  29.003 -0.1982  0.1276 -0.2007
63861W        W64725  11.049  11.279  27.785 -0.1134  0.3017  0.0546
63862W        W64726   9.161  15.144   0.035 -0.0745 -0.3923 -0.0936
63863W        W64727  10.536  12.756   0.117 -0.1575  0.1224  0.1418
63864W        W64728  10.127  14.088  27.877  0.3156  0.0494  0.2533
63865W        W64729  10.450   9.428  28.866 -0.0870  0.1561  0.1510
63866W        W64730   9.339  15.011  25.001 -0.3117 -0.1118 -0.1485
63867W        W64731   6.428  12.026  25.564  0.2123  0.0475  0.2112
63868W        W64732   5.255   9.698  26.634  0.7659 -0.0350 -0.0702
63869W        W64733   8.174  10.565  26.400 -0.1826 -0.0404 -0.1166
63870W        W64734  10.864  12.582  27.063  0.2893 -0.2102  0.1605
63871W        W64735   4.538  14.121   0.607  0.0235  0.1176 -0.0695
63872W        W64736   8.364   9.867  26.033  0.1745  0.0341  0.1915
63873W        W64737  11.273  11.681  27.243  0.0777 -0.0777  0.0360
63874W        W64738   8.720  12.797  26.552 -0.0757 -0.1143  0.2900
63875W        W64739   8.172  12.709  26.520 -0.1100 -0.2859  0.3452
63876W        W64740  11.736  10.657  25.962  0.0264 -0.3177 -0.0456
63877W        W64741  11.439  14.949  28.679  0.0940  0.0055 -0.1284
63878W        W64742   8.874  12.807   1.312  0.0121  0.3095  0.2183
63879W        W64743   8.508  10.754   1.372 -0.2160 -0.2206  0.0630
63880W        W64744   8.971  12.159  27.636  0.1042  0.1449  0.0224
63881W        W64745  12.510  13.037   1.337 -0.1062 -0.0286  0.0980
63882W        W64746   9.090  11.132  26.490 -0.1369 -0.1537 -0.0635
63883W        W64747   8.853  14.260  27.761  0.2801 -0.2225  0.1060
63884W        W64748   8.662  15.458  27.576 -0.2493 -0.0703 -0.2457
63885W        W64749  11.822  13.373  25.531 -0.1673 -0.1096  0.0911
63886W        W64750  11.488  10.348   2.258 -0.0599  0.0482  0.0679
63887W        W64751  11.324  14.306  26.761  0.2474  0.0059 -0.1856
63888W        W64752  11.928  13.032  27.471  0.0928 -0.3345  0.1269
63889W        W64753   8.739  10.541  28.561 -0.2358 -0.1376  0.2078
63890W        W64754   7.929  11.155   0.349  0.2020  0.2510 -0.1099
63891W        W64755   9.997  14.411  26.027 -0.0400  0.3289 -0.1257
63892W        W64756   8.261  12.047  26.933 -0.1367 -0.0626  0.0802
63893W        W64757   9.802  11.339   1.525  0.1632  0.3210 -0.0155
63894W        W64758  10.850  13.537  26.125 -0.0232 -0.1367 -0.0502
63895W        W64759  13.633  11.503  28.340  0.3246  0.0473 -0.0407
63896W        W64760  10.561  13.643  28.780  0.1415  0.0316  0.1160
63897W        W64761   9.166  12.796  26.816  0.2150 -0.1269 -0.4004
63898W        W64762   8.954  16.523  26.442  0.0912 -0.1635  0.3506
63899W        W64763  12.183  12.627  28.166 -0.0897 -0.1700 -0.1039
63900W        W64764   9.003  14.006  28.271 -0.1662  0.2062  0.0113
63901W        W64765  10.820  14.083  26.151  0.3400  0.0331  0.1963
63902W        W64766   9.715  14.175  27.571  0.0063 -0.2011 -0.0784
63903W        W64767   8.851  14.642  26.831  0.0383 -0.3781 -0.1452
63904W        W64768   7.744  15.653  28.065  0.0144 -0.0305 -0.0884
63905W        W64769   8.694  11.756  27.793  0.0138  0.0026 -0.0622
63906W        W64770  12.215  12.419   0.082 -0.1146 -0.1130  0.2067
63907W        W64771   8.973  11.011  25.368 -0.3856  0.0829  0.2822
63908W        W64772  10.157  13.094  27.469  0.2038  0.2843  0.2274
63909W        W64773   7.021  12.598  28.612  0.1180 -0.2183 -0.0467
63910W        W64774  10.973   9.562  28.072 -0.2512 -0.5275  0.3869
63911W        W64775   9.606  12.884  28.157 -0.1112 -0.1501 -0.0650
63912W        W64776   8.755  14.101  25.342  0.2727  0.0893  0.2912
63913W        W64777  11.540  14.807  26.134 -0.4581 -0.0589 -0.2178
63914W        W64778   7.309  12.874  23.931 -0.1435 -0.4559  0.1048
63915W        W64779   7.604  11.947  28.788  0.1700 -0.2337 -0.1443
63916W        W64780   8.316  13.907  25.085 -0.1353  0.0918 -0.1396
63917W        W64781   9.229  14.239  25.000 -0.2982  0.4540  0.2239
63918W        W64782  10.368  13.118  28.826  0.1576  0.0231  0.0822
63919W        W64783   9.322  10.657  26.616  0.2767  0.1281  0.3426
63920W        W64784   8.458  11.379  28.036 -0.1315 -0.0329  0.0519
63921W        W64785   8.657  13.825  26.555  0.0911 -0.0168  0.0077
63922W        W64786   8.500  15.223  26.909  0.1568  0.0849 -0.2634
63923W        W64787  11.955  16.635  27.690 -0.0184 -0.0502  0.1054
63924W        W64788   9.976  15.056  27.867 -0.1871 -0.0234 -0.1966
63925W        W64789   9.955  10.844  27.108  0.6367 -0.0788 -0.2213
63926W        W64790  13.574  11.669   0.176 -0.1487 -0.2522  0.2134
63927W        W64791   7.897  10.966  26.521  0.0825  0.1970  0.1446
63928W        W64792   9.964  14.357  28.899  0.1926 -0.1756  0.0820
63929W        W64793   8.675  13.095  27.738  0.0280  0.4727 -0.2080
63930W        W64794   9.203  10.343   0.169  0.1877  0.3093  0.1065
63931W        W64795   8.428  12.491  23.427  0.0951  0.1210  0.0996
63932W        W64796   8.086  12.925  23.420  0.3357  0.0885  0.2875
63933W        W64797   6.232  12.729  27.220  0.1624  0.1234  0.0876
63934W        W64798   8.434   9.720  26.949  0.2148  0.0108 -0.2939
63935W        W64799   8.358  15.256   0.034  0.0014 -0.1660 -0.2270
63936W        W64800   8.980  14.891  28.193 -0.0497  0.0297 -0.1413
63937W        W64801   7.414  13.282   0.274  0.0811 -0.0630 -0.0799
63938W        W64802   9.251   9.877  29.102 -0.0297 -0.1500 -0.1525
63939W        W64803   9.378  11.554   0.882  0.2672  0.0747  0.1686
63940W        W64804   7.667  10.198  25.642  0.1747  0.0510  0.1525
63941W        W64805   7.822  15.047  25.387  0.4292  0.4281 -0.1597
63942W        W64806   8.736  11.227  26.910 -0.0155 -0.1969  0.0713
63943W        W64807   9.696  13.887  26.318  0.0047  0.1309 -0.0870
63944W        W64808   7.935  11.585  28.658 -0.1442 -0.1290  0.0432
63945W        W64809   8.628  12.739   0.013 -0.0396  0.0266 -0.0303
63946W        W64810  11.256  13.202   1.312  0.1265  0.2343  0.0233
63947W        W64811   9.585  11.291  27.707 -0.0911 -0.0658 -0.0571
63948W        W64812   9.162  12.509  26.402  0.0601  0.0215  0.1201
63949W        W64813  13.744  10.537  29.135  0.0421  0.0269 -0.1653
63950W        W64814   8.503  14.212  26.871 -0.2075 -0.2030 -0.1167
63951W        W64815   7.913  14.548  29.032  0.3434  0.0734  0.4109
63952W        W64816   6.766  15.257  26.945 -0.1708  0.0379  0.0513
63953W        W64817   9.720   9.986   2.100  0.2482 -0.3136 -0.1553
63954W        W64818  12.445  11.194  24.951  0.1304  0.2112  0.0648
63955W        W64819  10.336  13.107  26.032  0.1042 -0.1855 -0.0496
63956W        W64820   8.778  12.495  24.652 -0.0028  0.0417  0.1208
63957W        W64821   8.578  10.902  25.721 -0.0397  0.1171  0.1648
63958W        W64822   8.561  11.818  23.788 -0.2185 -0.1854 -0.3254
63959W        W64823   8.050  11.905  25.100 -0.0530 -0.0078  0.0587
63960W        W64824   7.530  11.627  26.239  0.1606  0.3476  0.2168
63961W        W64825   8.524  12.497  26.103  0.0951 -0.0116  0.0037
63962W        W64826   8.416  14.514  28.548 -0.1416 -0.0715  0.2958
63963W        W64827  12.344  12.689  27.654  0.0840 -0.1080  0.2232
63964W        W64828  11.268  11.963  25.840  0.1432 -0.0538 -0.1184
63965W        W64829   8.473  15.068  28.417  0.0148  0.1263  0.0766
63966W        W64830   9.031  17.058  28.499 -0.3150 -0.3130  0.1059
63967W        W64831  10.168   9.721  29.070  0.0329  0.2476  0.0014
63968W        W64832   7.464  11.591  28.477 -0.1326 -0.0049 -0.1228
63969W        W64833   8.289   9.672  25.465 -0.1639  0.0207  0.0075
63970W        W64834  10.600  10.364  28.415  0.3038  0.0082  0.0015
63971W        W64835   6.853   7.612  27.849 -0.4404 -0.2916  0.1549
63972W        W64836   6.022  12.296  27.224  0.1695  0.0154  0.0086
63973W        W64837   9.455  10.868  26.161  0.0983 -0.0153  0.1996
63974W        W64838   7.433   9.539  27.368  0.0479  0.0828  0.0935
63975W        W64839  11.659  10.810  28.056 -0.0149 -0.1661  0.1317
63976W        W64840   8.465  13.765  27.045  0.0829  0.3392  0.1052
63977W        W64841   8.029  11.082  28.362 -0.2063 -0.0623 -0.1264
63978W        W64842   7.933  12.336   1.039 -0.1827 -0.2012  0.0326
63979W        W64843   6.353  11.225  21.583  0.0193 -0.1829  0.2650
63980W        W64844  11.332  14.375  28.302  0.2764 -0.1078 -0.2629
63981W        W64845   9.383  11.894  28.969  0.1671  0.1419  0.3252
63982W        W64846  10.420  14.115  25.395  0.1823 -0.1646 -0.0084
63983W        W64847   7.564  12.153  25.374  0.3715  0.0598 -0.0620
63984W        W64848   9.038  15.343  27.975  0.2002  0.0627  0.2618
63985W        W64849   7.611  12.110   0.157 -0.1112  0.2602 -0.1449
63986W        W64850  10.343  12.942  25.575 -0.1002 -0.1115 -0.0872
63987W        W64851   9.351   8.647   2.583  0.0197 -0.2033 -0.1120
63988W        W64852  11.107  10.559  28.478 -0.0188  0.2223  0.1288
63989W        W64853  13.588  14.375  26.417  0.0228  0.1535  0.0379
63990W        W64854  10.207  11.309  25.119  0.0066  0.3509 -0.0095
63991W        W64855   9.833  17.128  26.760 -0.0783  0.2105  0.2017
63992W        W64856   7.990  10.486  27.940  0.3331 -0.1717 -0.1498
63993W        W64857   6.319  14.931  25.704  0.1424 -0.1890 -0.0204
63994W        W64858   9.774  10.650  28.784 -0.1228 -0.0782 -0.3310
63995W        W64859   9.784  12.491   0.902 -0.0663  0.0504 -0.1369
63996W        W64860   7.749  13.946   0.425 -0.1738 -0.0420  0.3993
63997W        W64861   7.136  11.454  25.528  0.1059  0.0153 -0.2038
63998W        W64862  10.320  13.626  26.103 -0.2214 -0.2769  0.2718
63999W        W64863   7.624  10.449   1.000  0.2123  0.1471 -0.0463
64000W        W64864   9.535  13.381  25.988 -0.4925 -0.1539 -0.0764
64001W        W64865  11.366  12.680   0.406 -0.2451  0.0486 -0.0065
64002W        W64866   9.401  13.857  27.302  0.3186  0.0896  0.2613
64003W        W64867   9.408  15.564  28.833  0.1108  0.0726 -0.0342
64004W        W64868   5.465  10.870  28.613  0.0150 -0.0421  0.2927
64005W        W64869  10.775  14.710   0.967  0.0414 -0.1818  0.4733
64006W        W64870   9.476  15.042  26.117  0.2158 -0.1776  0.1104
64007W        W64871   8.715  12.449   0.396  0.2459 -0.1496 -0.1279
64008W        W64872   7.849  12.276   0.536 -0.0233  0.3981 -0.0288
64009W        W64873  10.194  16.759  25.138  0.2037 -0.2524 -0.2222
64010W        W64874  11.709  15.300  27.321 -0.0669 -0.0534 -0.1033
64011W        W64875   8.666   9.938   0.962 -0.0210 -0.0290  0.1627
64012W        W64876   9.535  13.454  25.492  0.1142  0.1416 -0.1177
64013W        W64877  10.114  14.633   0.129 -0.2050  0.0282 -0.2247
64014W        W64878  12.281  15.434  25.250  0.1590 -0.1317  0.2777
64015W        W64879   9.794  11.700   0.767  0.1964 -0.4015 -0.2059
64016W        W64880   8.872  11.389   0.888 -0.1259 -0.5597  0.5802
64017W        W64881  10.162  13.535  24.826 -0.0279  0.1304 -0.1098
64018W        W64882   7.533  10.491  28.835 -0.0526  0.0405 -0.2359
64019W        W64883   7.715  12.858  27.301 -0.1245  0.0357 -0.3115
64020W        W64884  10.518  11.919  26.433 -0.0080  0.1440  0.1191
64021W        W64885   9.269  13.787  29.132 -0.1744 -0.1188  0.3735
64022W        W64886  10.860  16.307  26.324  0.0680  0.0198  0.0943
64023W        W64887   6.487  14.060   1.004 -0.0343 -0.2239 -0.0798
64024W        W64888   8.016  15.000  23.990  0.2640 -0.7111  0.3346
64025W        W64889  10.707  13.942  27.497 -0.0057  0.0034 -0.0597
64026W        W64890  10.252  16.023  27.743 -0.0919 -0.0951  0.1067
64027W        W64891  12.027  13.147  28.865  0.0885  0.2826 -0.2225
64028W        W64892   9.939  12.259  25.215 -0.0019  0.3867 -0.0837
64029W        W64893  10.823  12.262  27.540  0.1741 -0.0733  0.1725
64030W        W64894  10.870  11.286  27.115 -0.0112  0.2641 -0.0460
64031W        W64895   7.824   9.171  27.539 -0.4351  0.0490 -0.3231
64032W        W64896  10.497  13.335  26.475 -0.0348 -0.1013 -0.1776
64033W        W64897   9.831  13.829  25.836 -0.3828  0.1157 -0.0764
64034W        W64898   9.556  11.681  27.340  0.4147 -0.1807  0.1156
64035W        W64899   8.528  11.268  27.503 -0.0569  0.1467  0.0195
64036W        W64900  11.022  12.379   0.665  0.1418 -0.1207  0.0091
64037W        W64901  10.505  10.996   0.502  0.0596 -0.1468  0.0799
64038W        W64902   8.445  15.466  28.714 -0.3431 -0.2642  0.2317
64039W        W64903   5.149  16.425   0.461  0.0944  0.0358 -0.0545
64040W        W64904   9.897  14.830  26.351  0.1219  0.0219  0.3477
64041W        W64905  11.927  14.924  26.483  0.1720  0.2691  0.1293
64042W        W64906   7.171  12.265  25.958 -0.0941  0.3777  0.2029
64043W        W64907   7.745  12.670  25.328 -0.2471 -0.0402 -0.1220
64044W        W64908   4.510  15.357  23.662  0.2827 -0.0562 -0.0208
64045W        W64909   8.038  11.868  29.055 -0.1024  0.1493 -0.2637
64046W        W64910   9.548  11.883   0.271  0.1445  0.0198  0.2748
64047W        W64911   9.651  11.832   1.208  0.0384  0.0871  0.3444
64048W        W64912   9.933  14.551  27.830  0.1817 -0.2858  0.0734
64049W        W64913   9.807  12.342  28.247  0.2523  0.0311 -0.0334
64050W        W64914   5.212  11.422  27.940  0.0062 -0.0850 -0.2045
64051W        W64915   6.923  12.239  25.500  0.3189 -0.0531  0.0520
64052W        W64916   6.777  14.371  21.497  0.1370  0.0969 -0.3834
64053W        W64917   9.000  14.596  28.568 -0.1158  0.2130 -0.1505
64054W        W64918   6.079  10.731  27.333  0.2497  0.0592  0.1034
64055W        W64919   8.240  11.437  23.863  0.2367  0.1314  0.4022
64056W        W64920   9.024  10.609  25.902  0.1549  0.2575  0.0590
64057W        W64921   7.291  15.002  27.662  0.0395  0.0642  0.0779
64058W        W64922   8.047  12.467  27.145 -0.0671  0.1673 -0.0137
64059W        W64923  10.048  11.825  27.319 -0.1487  0.1165 -0.1665
64060W        W64924  11.470  13.525  26.438 -0.3489 -0.0866 -0.1617
64061W        W64925   9.489  12.116   0.773  0.1639 -0.0971  0.2865
64062W        W64926   9.898  10.057  25.899  0.0556 -0.5088  0.0406
64063W        W64927  10.842  13.276  28.135  0.4027  0.3979 -0.1880
64064W        W64928   8.150  11.604  24.622  0.1592 -0.0874  0.0238
64065W        W64929   9.460  12.009  25.694 -0.0134  0.2362  0.0210
64066W        W64930   9.704  13.907  28.913 -0.2588 -0.1372 -0.0863
64067W        W64931   8.060  10.566  28.994  0.1686  0.1286  0.1972
64068W        W64932   9.215  11.686  27.673  0.2116 -0.0952 -0.0138
64069W        W64933  11.801  12.921  28.031 -0.0817  0.0315 -0.4047
64070W        W64934   8.539  10.925  28.291 -0.0883  0.0613 -0.0623
64071W        W64935   9.581  13.382  29.008 -0.0815 -0.1271 -0.1808
64072W        W64936   6.202  11.410   0.796  0.0962  0.3147  0.3258
64073W        W64937   9.011  13.455  27.522 -0.0249  0.1684  0.1402
64074W        W64938   8.287  13.965  23.055  0.1844  0.0129  0.1044
64075W        W64939   7.197  13.684  29.046 -0.0882  0.0287  0.1029
64076W        W64940   6.184  12.526   0.663  0.3752  0.3085  0.0110
64077W        W64941  11.069  12.385   0.137 -0.1515  0.1314 -0.1917
64078W        W64942   9.162  11.485  26.920  0.1241  0.1193 -0.2621
64079W        W64943  11.275  13.705   0.280  0.3004 -0.0366  0.1280
64080W        W64944  10.388  14.381   1.047  0.0248 -0.0811 -0.1908
64081W        W64945   8.097  11.591  26.074 -0.2230  0.0476  0.0078
64082W        W64946   7.087  12.932   0.420  0.3667  0.0951 -0.1172
64083W        W64947   5.424  14.920  25.220  0.3019 -0.0702 -0.1828
64084W        W64948   6.679  12.724  22.174  0.0725 -0.5854  0.0185
64085W        W64949   9.080  12.611  27.822  0.0354  0.0073 -0.0958
64086W        W64950   9.802  12.293   0.451  0.2061  0.0361 -0.1206
64087W        W64951   7.501  12.406  28.698 -0.2419 -0.0869 -0.0537
64088W        W64952   8.915  12.030  25.709  0.1268  0.1058 -0.1774
64089W        W64953   6.599  12.029   1.157 -0.1247 -0.0094  0.4464
64090W        W64954   8.194  11.953  23.455  0.0493 -0.0689 -0.0760
64091W        W64955   8.427  11.381  28.581 -0.0960 -0.1964 -0.1892
64092W        W64956   9.867  13.280  27.842 -0.0660  0.1594 -0.1797
64093W        W64957   8.500  12.359  26.631  0.1090 -0.0221 -0.2937
64094W        W64958   8.250  15.510  27.301 -0.1966  0.0537  0.0438
64095W        W64959  11.819  15.372  25.503 -0.1487 -0.2575  0.0238
64096W        W64960   8.861  15.889  28.042  0.1304 -0.1165  0.1501
64097W        W64961  11.633  12.785   1.151 -0.0809  0.1507  0.3076
64098W        W64962   9.342  15.091  25.448 -0.0437  0.0569 -0.3282
64099W        W64963   7.866  14.203  25.570  0.0382  0.0728  0.3531
64100W        W64964  10.757  13.842  24.960 -0.1218 -0.0032  0.3465
64101W        W64965   9.340  12.104  23.797 -0.0072 -0.0948 -0.0157
64102W        W64966  10.225  12.299  24.783 -0.0988  0.0535 -0.2225
64103W        W64967   6.797  12.059  24.278 -0.1222 -0.0121 -0.2467
64104W        W64968   7.399  12.564   0.065 -0.0668 -0.1737  0.2205
64105W        W64969  11.234  13.828  25.069  0.0101  0.1446  0.0716
64106W        W64970  10.747  13.278   1.157  0.1020 -0.0200 -0.0427
64107W        W64971   9.483  13.433  27.534  0.1230  0.0762  0.0179
64108W        W64972  10.558  12.492   1.550  0.1425 -0.2352 -0.2690
64109W        W64973   9.131  15.180  27.513 -0.3409 -0.1982 -0.2057
64110W        W64974   9.805  18.110  28.226 -0.3662  0.0346  0.1465
64111W        W64975  11.113  12.777  26.598 -0.2969  0.0242  0.2707
64112W        W64976   8.858  13.968  27.353  0.0053  0.2814 -0.1447
64113W        W64977   4.790  10.492  25.552  0.0481  0.0636 -0.2161
64114W        W64978   8.381  14.362  26.368  0.1329 -0.1248  0.0379
64115W        W64979   9.359  11.244  28.141  0.0408  0.1408 -0.0331
64116W        W64980  10.228  11.097  26.651  0.1061  0.2193  0.0560
64117W        W64981   6.684  11.334  26.782  0.0170 -0.0642  0.2403
64118W        W64982  10.449  12.469  26.733  0.1945 -0.2291  0.1086
64119W        W64983   6.475  15.243  27.462 -0.1662 -0.0874 -0.1147
64120W        W64984   7.602  12.579  23.162  0.0594  0.0053  0.1561
64121W        W64985   8.225  12.302  25.377  0.0276 -0.3169  0.1740
64122W        W64986   9.607  18.015  26.382 -0.1989 -0.1119  0.0966
64123W        W64987   6.466  12.879  24.912  0.1417 -0.0345 -0.0541
64124W        W64988  10.835  15.169   0.175 -0.2032  0.1027  0.2988
64125W        W64989   7.978  12.178  28.471  0.2046  0.0783 -0.1683
64126W        W64990  12.314  11.760  27.272 -0.5008 -0.0788  0.3608
64127W        W64991  10.160  13.629  26.711 -0.1222 -0.0573  0.2768
64128W        W64992   8.328  12.060  25.867 -0.0921 -0.2942 -0.0797
64129W        W64993   9.877  10.088  26.862  0.1707  0.0321  0.0159
64130W        W64994   7.137  15.485  27.220 -0.0893  0.0375 -0.1822
64131W        W64995   6.569  12.287   0.080  0.1834 -0.1954 -0.0091
64132W        W64996   6.904  14.172  28.171 -0.2212 -0.1272 -0.0919
64133W        W64997   8.478  10.363  25.842  0.0019 -0.0700  0.0935
64134W        W64998   8.908  11.474  25.497  0.0417 -0.1320 -0.0385
64135W        W64999   8.773  12.418   1.955  0.2028 -0.0880  0.1012
64136W        W65000   7.633  14.620  27.971  0.1615  0.0607  0.0680
64137W        W65001  10.512   9.462  25.401  0.0484 -0.0442 -0.1310
64138W        W65002  11.969  15.060  28.584  0.1297 -0.0662  0.2847
64139W        W65003  12.128  16.235  28.299  0.3629 -0.2819 -0.0746
64140W        W65004  11.339  13.340  25.943 -0.1835 -0.0558  0.4467
64141W        W65005  10.482  13.833   1.239 -0.1900  0.1098  0.0131
64142W        W65006   8.635  13.259  27.096 -0.4804 -0.0380 -0.4179
64143W        W65007   9.727  11.024  29.106  0.2283 -0.1182  0.1274
64144W        W65008   6.735  14.126  25.325  0.1642  0.2307  0.0381
64145W        W65009  12.038  12.934  25.455  0.0307  0.0122 -0.0945
64146W        W65010   7.929  13.618  24.813  0.1238 -0.0380  0.0581
64147W        W65011   9.484  14.829  28.238  0.0353 -0.0780 -0.1948
64148W        W65012   8.482  14.584  27.728 -0.0847 -0.2370 -0.1018
64149W        W65013   8.321  12.178  27.506 -0.0680  0.0064 -0.0559
64150W        W65014   8.693  13.762  27.847  0.0041 -0.2616 -0.1243
64151W        W65015  12.681  13.570   1.856  0.2919  0.1076 -0.0518
64152W        W65016   7.984  11.195  27.486 -0.0055 -0.2223 -0.0540
64153W        W65017   7.459  12.870  26.385 -0.5425  0.2052 -0.1502
64154W        W65018   7.935  12.020  27.794 -0.2143  0.0748 -0.0442
64155W        W65019   9.596  15.284  28.079 -0.2415 -0.2193 -0.0652
64156W        W65020   8.908  13.292  26.662 -0.1893  0.2547  0.1714
64157W        W65021   8.499  12.503  28.438  0.0152  0.3911  0.0167
64158W        W65022   8.727  15.065  28.851 -0.0796 -0.0106  0.0312
64159W        W65023  11.327  13.384  28.078 -0.1710 -0.0840 -0.2446
64160W        W65024  10.324  12.399  28.265 -0.0787 -0.0621  0.0384
64161W        W65025   9.093  13.545  28.569 -0.1575 -0.3077  0.2167
64162W        W65026   9.893  16.238  26.857 -0.1998 -0.2768  0.0988
64163W        W65027   8.813  14.992  27.206 -0.0648  0.1757  0.0720
64164W        W65028   9.728  11.928  28.557  0.2328  0.1869  0.0096
64165W        W65029   9.248  13.872  27.742  0.2588 -0.2464 -0.1137
64166W        W65030   7.712  14.042  24.483 -0.2265  0.0418  0.1623
64167W        W65031   8.165  14.943   1.205  0.0078  0.2681 -0.0898
64168W        W65032  12.145  13.738  27.991  0.0904 -0.0849  0.2658
64169W        W65033   7.968  13.537  27.457 -0.0515  0.2645 -0.0540
64170W        W65034   9.255  15.011  28.682  0.1843  0.2873  0.2561
64171W        W65035  10.063  15.109  26.776 -0.1935 -0.0610  0.1039
64172W        W65036   9.748  15.880  24.709 -0.2162 -0.1622 -0.0274
64173W        W65037   7.960  11.846  26.660 -0.2698 -0.0048 -0.3318
64174W        W65038   6.912  17.874   4.347  0.2549 -0.1105 -0.0007
64175W        W65039   6.185  15.815   3.149 -0.2576  0.1494  0.0461
64176W        W65040  12.546  18.952   2.434  0.1682  0.1692 -0.1212
64177W        W65041  10.550  18.024   1.207 -0.3057  0.1373 -0.0122
64178W        W65042   7.797  19.216   0.353 -0.0415 -0.1359 -0.2625
64179W        W65043  11.493  13.263   0.452  0.2256 -0.1674 -0.1534
64180W        W65044   6.644  15.469   1.316  0.2482 -0.0303  0.0007
64181W        W65045   9.119  16.282   0.753  0.0843 -0.1222  0.2575
64182W        W65046   9.033  19.756   3.027  0.1635 -0.0725  0.1231
64183W        W65047   6.844  15.051   0.352 -0.0112  0.0604 -0.0881
64184W        W65048  10.502  14.983   3.470 -0.2882  0.1586  0.0983
64185W        W65049   8.804  15.605   1.003 -0.2480  0.3831 -0.1053
64186W        W65050   7.911  15.817  27.005 -0.2177  0.3745 -0.1892
64187W        W65051   8.816  16.704   3.884 -0.2181 -0.2016 -0.0164
64188W        W65052   5.317  14.532   2.266 -0.2046  0.0511 -0.1913
64189W        W65053   8.769  18.852   6.589  0.2788 -0.0941 -0.2935
64190W        W65054  10.091  16.458  28.893 -0.0606  0.0677 -0.1602
64191W        W65055   9.414  13.490   4.382  0.3498  0.3361 -0.1058
64192W        W65056   9.456  15.658   3.152 -0.3517 -0.0074 -0.1650
64193W        W65057   9.442  14.743   1.848  0.2859  0.1330 -0.1924
64194W        W65058  10.304  18.999   3.854 -0.1286  0.0412  0.1732
64195W        W65059   8.935  15.345  28.457  0.2272  0.2310  0.1360
64196W        W65060   9.710  18.858   3.746 -0.0831 -0.0412  0.3413
64197W        W65061   8.379  16.522   2.156  0.1044 -0.1614 -0.3431
64198W        W65062   9.374  17.317   1.060 -0.5211 -0.0005 -0.0614
64199W        W65063   8.441  16.141   3.302 -0.1358  0.2408  0.0487
64200W        W65064  11.423  15.173   3.545  0.2412  0.2477  0.1948
64201W        W65065   6.918  18.463  28.392 -0.3317 -0.3141  0.1882
64202W        W65066   8.426  16.527   4.402  0.3268 -0.3027  0.1095
64203W        W65067   8.373  13.880   2.127 -0.2333 -0.3769 -0.0139
64204W        W65068  10.540  17.265   2.021 -0.0923 -0.2485  0.3552
64205W        W65069   8.082  19.116   5.344 -0.0508  0.1413  0.2356
64206W        W65070   9.675  15.977   2.719 -0.0642  0.1799 -0.3652
64207W        W65071   7.917  14.959   3.253 -0.5918 -0.0305  0.2468
64208W        W65072   9.187  12.941   4.578  0.0354 -0.1194 -0.0300
64209W        W65073  11.279  15.073   4.185  0.1122  0.0610 -0.0539
64210W        W65074   7.128  16.364  29.067 -0.2133 -0.2053 -0.1672
64211W        W65075   8.248  14.776   2.097  0.2216  0.0452 -0.2783
64212W        W65076  14.237  17.058   1.583 -0.0711  0.2597 -0.0973
64213W        W65077   9.422  15.955   1.090 -0.1115  0.2627 -0.0303
64214W        W65078   9.863  15.861   1.828  0.1518 -0.1790 -0.0994
64215W        W65079  11.954  14.495   2.178 -0.0833  0.1798 -0.1122
64216W        W65080   8.206  18.282   1.014 -0.0398  0.0824  0.0099
64217W        W65081   9.288  18.987  28.361 -0.0419 -0.0631  0.3048
64218W        W65082   8.540  21.406  28.020 -0.1877  0.4778 -0.1262
64219W        W65083   7.824  17.256   1.671  0.2338 -0.2093  0.0884
64220W        W65084   9.685  15.216   3.180 -0.0763  0.2351  0.2261
64221W        W65085   8.995  16.538   4.408  0.5108 -0.1101 -0.0301
64222W        W65086  10.228  16.362   3.256  0.0983 -0.2261  0.0656
64223W        W65087   8.586  16.830  28.389 -0.0728 -0.3707  0.0203
64224W        W65088   9.983  18.148   3.449 -0.1628 -0.0257  0.0038
64225W        W65089   9.110  15.367   2.936 -0.3149  0.0594  0.0932
64226W        W65090   8.451  18.514   4.121 -0.0174 -0.1255 -0.0167
64227W        W65091  10.430  20.297   0.858 -0.0099 -0.3171 -0.1545
64228W        W65092   9.139  15.827  28.499 -0.0859 -0.1423 -0.3193
64229W        W65093   8.169  16.163   0.978 -0.1739  0.0251  0.5157
64230W        W65094   8.458  14.416   1.713  0.4249 -0.1268 -0.0782
64231W        W65095  11.035  18.040   1.089 -0.1234  0.1014 -0.0126
64232W        W65096   8.985  16.899   0.042 -0.1875 -0.0836  0.2735
64233W        W65097   8.448  15.905  27.737 -0.2444  0.1448  0.0587
64234W        W65098   8.609  18.475   1.224  0.2124 -0.4077  0.1968
64235W        W65099   7.807  14.566   2.999  0.0131 -0.2094 -0.1955
64236W        W65100   9.159  17.133   0.527 -0.0462 -0.0096  0.0717
64237W        W65101   8.998  17.444   2.887  0.0341 -0.2716  0.1371
64238W        W65102  10.909  15.362   0.801 -0.2581 -0.0056 -0.0165
64239W        W65103   5.907  16.180   2.650  0.1802  0.1610  0.1530
64240W        W65104   7.970  15.499   3.356  0.2575 -0.0339 -0.1747
64241W        W65105   8.033  16.941   1.316  0.0925  0.0834 -0.0461
64242W        W65106  10.709  18.541   1.994  0.1609  0.4528  0.4512
64243W        W65107  10.569  20.686   5.416  0.2299 -0.2409 -0.1223
64244W        W65108   9.094  14.556   1.107  0.0177  0.0221  0.2127
64245W        W65109  14.036  17.918   1.183 -0.1210  0.1105  0.0566
64246W        W65110  12.835  15.549   1.808  0.2420 -0.2732 -0.1462
64247W        W65111  11.425  18.137   0.664  0.0577 -0.1928 -0.1206
64248W        W65112   9.287  17.255   2.574 -0.3254  0.1442  0.0542
64249W        W65113   7.051  16.571   0.435  0.0548  0.1798 -0.0112
64250W        W65114   6.577  16.930   4.368 -0.2206 -0.1484 -0.4341
64251W        W65115  11.315  15.700  28.080 -0.0358 -0.1934 -0.1111
64252W        W65116  11.101  16.592  28.316 -0.2573 -0.3390  0.4609
64253W        W65117  10.204  16.570   0.276  0.0279 -0.0234 -0.1051
64254W        W65118   8.867  17.219   3.794  0.2449 -0.0410  0.0100
64255W        W65119   8.288  13.337   3.378 -0.3806 -0.1513 -0.0113
64256W        W65120   8.617  16.558   2.653 -0.1671 -0.2409 -0.2086
64257W        W65121  10.533  12.817   6.980 -0.3146 -0.0772  0.0107
64258W        W65122   8.738  14.812   2.019 -0.3123 -0.1926 -0.0977
64259W        W65123  13.220  14.778   2.833 -0.0213 -0.3990 -0.1105
64260W        W65124   8.562  13.584   2.487 -0.0277  0.1877  0.3160
64261W        W65125  11.971  16.299   4.934  0.1371 -0.0658  0.0563
64262W        W65126   9.380  16.696   3.058  0.0738  0.0477 -0.3114
64263W        W65127  10.210  13.672   0.327 -0.1099  0.0514  0.0881
64264W        W65128  11.969  16.497   4.372  0.0831  0.1681  0.3191
64265W        W65129   4.379  18.259   3.876 -0.1559  0.1376 -0.0576
64266W        W65130   8.994  16.063  28.921 -0.2448 -0.1608 -0.2497
64267W        W65131   8.179  16.133   5.363  0.1049 -0.5347  0.1133
64268W        W65132  12.616  15.321   2.214 -0.1230 -0.2475  0.0236
64269W        W65133   8.729  13.981   1.800  0.1089 -0.1476  0.1147
64270W        W65134  10.848  16.122   4.604 -0.3716 -0.1577  0.1142
64271W        W65135   8.345  12.115   0.260 -0.0327  0.0450 -0.2852
64272W        W65136  11.329  14.037   0.631 -0.0146  0.3050 -0.0534
64273W        W65137  11.747  16.441  29.042 -0.2000 -0.1741  0.2996
64274W        W65138   8.841  17.304   1.224  0.0898  0.0589 -0.4184
64275W        W65139   9.397  16.108   0.378 -0.0260  0.0335  0.1062
64276W        W65140  11.424  15.396   0.786 -0.1664 -0.1918  0.3273
64277W        W65141  10.996  13.625   2.912 -0.0539 -0.2259  0.0685
64278W        W65142   9.535  16.822   4.562  0.1125  0.1877 -0.0054
64279W        W65143   7.599  14.729  28.708 -0.1084 -0.0667 -0.0319
64280W        W65144  10.560  14.693   3.016 -0.1688 -0.0917  0.1426
64281W        W65145  10.352  15.937  28.905 -0.4057 -0.0594  0.1111
64282W        W65146   8.127  15.844   2.919 -0.1701 -0.0772 -0.0666
64283W        W65147   7.694  18.985   1.471  0.0066  0.2990  0.2069
64284W        W65148   9.567  19.455   3.701  0.1929 -0.1560 -0.1737
64285W        W65149  10.243  14.595   3.908  0.2253  0.2435 -0.0377
64286W        W65150   9.247  18.499   2.109  0.0511 -0.1328  0.3635
64287W        W65151  10.276  17.990  28.931  0.1027 -0.0753 -0.0890
64288W        W65152   9.686  15.692   0.418  0.1721  0.2666 -0.0403
64289W        W65153  11.018  14.967   3.241  0.0880 -0.0950 -0.3866
64290W        W65154  10.159  15.560   3.909  0.2579 -0.1196 -0.1025
64291W        W65155  10.977  16.202   0.209  0.1038  0.3341  0.2586
64292W        W65156  10.983  15.459   3.126 -0.0449  0.2963  0.0726
64293W        W65157  10.430  15.447   1.091 -0.1319 -0.0845 -0.1595
64294W        W65158   9.136  17.982   2.877 -0.1857  0.2904  0.1066
64295W        W65159  10.749  17.791   2.062 -0.2182  0.0585  0.0272
64296W        W65160   7.234  18.080  28.405 -0.0639  0.0463 -0.1605
64297W        W65161   8.658  16.106   1.161 -0.1908 -0.0738 -0.3209
64298W        W65162  10.841  15.902  28.956 -0.2255  0.1876  0.3579
64299W        W65163   8.891  14.402   4.644 -0.1658 -0.2878 -0.1329
64300W        W65164  10.860  14.203   1.109  0.2531  0.2738  0.1005
64301W        W65165   9.934  17.481   3.717  0.1490 -0.0748  0.1278
64302W        W65166  10.359  17.721  27.337  0.2388 -0.1349  0.0158
64303W        W65167  10.286  17.846   3.730 -0.3798 -0.2203 -0.0006
64304W        W65168  10.867  17.266   2.781 -0.0078  0.0663 -0.2946
64305W        W65169   9.759  17.822   1.030 -0.1384 -0.2598 -0.0900
64306W        W65170  11.555  16.985  28.522  0.1603  0.0682 -0.2233
64307W        W65171   9.936  15.015   0.490 -0.0086  0.1305 -0.0456
64308W        W65172   7.828  17.474   1.209 -0.0102  0.0155 -0.0231
64309W        W65173  11.565  14.915   2.995 -0.1186  0.0784 -0.0762
64310W        W65174  10.923  13.714   1.391 -0.2689 -0.0621 -0.0292
64311W        W65175   7.856  18.575   1.690  0.0557  0.0153  0.2841
64312W        W65176   9.547  18.965   4.938  0.1820 -0.0183 -0.0582
64313W        W65177   9.633  13.599   2.082  0.0789 -0.2710 -0.0272
64314W        W65178   9.358  16.147   3.054 -0.0767  0.0178 -0.0481
64315W        W65179   9.942  19.300  28.937  0.1201  0.2391 -0.2618
64316W        W65180   8.117  19.575   0.920  0.0959  0.1515  0.0503
64317W        W65181   8.610  15.888  28.563 -0.0652  0.1426  0.1512
64318W        W65182  10.074  15.774   1.049  0.0619  0.1433  0.0296
64319W        W65183  10.227  13.067   1.093 -0.1751 -0.0540 -0.1098
64320W        W65184  12.433  17.797   3.975  0.1367 -0.0303 -0.1706
64321W        W65185   9.962  16.107   0.081 -0.3229 -0.2135 -0.0571
64322W        W65186  10.167  16.262   1.852 -0.2692  0.0077 -0.1819
64323W        W65187  11.223  16.651   2.221 -0.0151 -0.1873  0.0970
64324W        W65188   8.959  11.895   1.856 -0.3126 -0.3175 -0.0901
64325W        W65189   8.577  18.970   1.875 -0.2212  0.2966 -0.4197
64326W        W65190   7.472  15.424   2.518  0.3096  0.0303 -0.0418
64327W        W65191   9.219  13.892   1.905 -0.4306 -0.1306  0.3678
64328W        W65192  12.004  13.669  28.819  0.1146 -0.3224  0.1962
64329W        W65193   8.534  17.888   1.278 -0.2308 -0.3623  0.0784
64330W        W65194   9.450  18.444  26.590 -0.1834 -0.4036  0.0569
64331W        W65195   9.440  14.837   0.758  0.0213 -0.1301  0.2401
64332W        W65196   9.949  15.635  27.958 -0.3824 -0.2473  0.1409
64333W        W65197   8.150  14.489   2.545 -0.0378 -0.0415  0.2186
64334W        W65198   9.981  17.205   1.791 -0.1334  0.1529 -0.1154
64335W        W65199   7.642  18.418  28.690  0.0435  0.0997  0.0189
64336W        W65200  10.207  15.826   4.684 -0.2580 -0.1271  0.3426
64337W        W65201   9.938  15.608   3.031 -0.3802 -0.0214 -0.0451
64338W        W65202  11.655  15.628  27.759 -0.0466  0.2031  0.0978
64339W        W65203  10.197  15.655   0.305 -0.1425 -0.1187  0.0972
64340W        W65204   7.808  19.891   1.926 -0.0253 -0.1095 -0.2131
64341W        W65205   7.490  18.635   4.100 -0.1075  0.4335  0.2301
64342W        W65206   6.695  19.094   1.757  0.1965  0.2491  0.0183
64343W        W65207  11.935  16.579   0.396 -0.3095 -0.2158 -0.3205
64344W        W65208   9.733  14.362   1.626 -0.2327 -0.2719 -0.1847
64345W        W65209   7.986  18.205   0.518  0.0469  0.0071  0.0809
64346W        W65210   9.779  16.132   1.448  0.0018  0.1279 -0.1641
64347W        W65211   7.208  14.792  28.111 -0.1876 -0.0938  0.3745
64348W        W65212  10.553  13.681   1.888  0.1157 -0.3103 -0.0882
64349W        W65213   7.533  18.630   6.320 -0.1058  0.1553  0.0597
64350W        W65214   7.415  12.519   4.171 -0.2309 -0.1773  0.0053
64351W        W65215   8.229  20.076   2.379  0.1702 -0.1644 -0.2317
64352W        W65216  11.766  13.209   1.517  0.0367  0.1325 -0.0383
64353W        W65217   7.891  14.852  28.348  0.1026  0.1991  0.3650
64354W        W65218   9.555  20.314   0.652 -0.1427  0.0459 -0.2511
64355W        W65219   8.602  15.291   1.987  0.0163 -0.3134  0.1801
64356W        W65220   8.546  15.178   1.022  0.2249  0.0690  0.3262
64357W        W65221   9.508  13.846  28.411 -0.0476  0.0092  0.3267
64358W        W65222  10.370  15.581   5.688  0.1062  0.0849 -0.0360
64359W        W65223   9.057  15.066   1.068 -0.2917  0.0295 -0.1513
64360W        W65224   7.450  12.629   3.092  0.1209  0.1198 -0.1380
64361W        W65225  10.794  19.926   2.873 -0.1243  0.2333 -0.1435
64362W        W65226   7.977  17.686   2.182 -0.0421  0.1913 -0.0095
64363W        W65227   8.535  16.264  26.108 -0.2614 -0.2514  0.1913
64364W        W65228   8.220  18.198   3.895 -0.0248 -0.2721  0.0446
64365W        W65229   9.125  16.058   4.046  0.0440  0.2082 -0.1859
64366W        W65230   7.352  16.302   7.202  0.0823 -0.1941  0.3438
64367W        W65231   8.469  14.624   3.482  0.1389  0.0873  0.1768
64368W        W65232   8.179  10.738   0.683 -0.0597 -0.0331  0.0092
64369W        W65233   7.075  16.060   4.529 -0.3954 -0.1712  0.0922
64370W        W65234   8.852  16.486   3.092  0.1365  0.0104 -0.0833
64371W        W65235   9.062  16.533  28.832 -0.1682 -0.2764  0.0772
64372W        W65236  11.707  14.454   2.748  0.4027 -0.0015  0.0475
64373W        W65237   8.227  15.669   0.350 -0.2996 -0.1728  0.2178
64374W        W65238  11.029  15.549   1.999  0.2825 -0.0117 -0.0900
64375W        W65239  10.343  15.679   2.004  0.1006 -0.0264  0.6161
64376W        W65240   8.267  14.328   3.031  0.0820  0.0113 -0.0353
64377W        W65241  10.804  13.440   5.683 -0.1484  0.0593 -0.0740
64378W        W65242   8.690  16.077   1.974  0.0272  0.3624  0.0320
64379W        W65243  10.378  17.197   2.518 -0.1533 -0.1979  0.3508
64380W        W65244   8.835  15.711   1.512  0.2641  0.1576 -0.1759
64381W        W65245   9.389  18.170   2.481  0.1395  0.1405 -0.3835
64382W        W65246   8.868  16.317  28.428  0.0239  0.3290 -0.1621
64383W        W65247  11.480  16.716   4.424  0.0913  0.0496  0.0329
64384W        W65248   7.724  13.869  29.027 -0.1446 -0.2057 -0.0305
64385W        W65249   8.951  15.582   5.315  0.0418  0.2636 -0.3465
64386W        W65250   9.074  16.406   2.070 -0.0398  0.0994 -0.1543
64387W        W65251  12.134  15.539   1.284  0.0791 -0.2638 -0.1781
64388W        W65252  10.146  16.472   1.330  0.0467 -0.1040 -0.3204
64389W        W65253   7.912  15.140  27.574  0.3724  0.2303 -0.0564
64390W        W65254  10.764  17.177  28.067 -0.0363 -0.0274 -0.1731
64391W        W65255   9.332  16.401   1.266 -0.0443 -0.1448 -0.2064
64392W        W65256   9.801  18.289   4.310 -0.1992  0.0849 -0.3043
64393W        W65257  10.692  15.902   2.238 -0.1720 -0.0606 -0.1624
64394W        W65258  12.382  13.442  29.104  0.2682 -0.0268 -0.0813
64395W        W65259   9.943  19.174   5.766 -0.0714  0.0082 -0.2069
64396W        W65260   5.036  15.036  27.547  0.0034 -0.2267 -0.1772
64397W        W65261  12.775  17.091  28.415 -0.3866 -0.2152  0.1015
64398W        W65262   8.406  15.317   3.861 -0.0547 -0.1562  0.1494
64399W        W65263   9.266  16.737   1.759  0.1049  0.0674  0.0747
64400W        W65264  14.256  14.509   2.456  0.1318 -0.2461  0.2491
64401W        W65265   7.538  15.636   0.132 -0.0656  0.2063 -0.2181
64402W        W65266  10.506  15.641   4.309  0.3063  0.2071 -0.0137
64403W        W65267   8.396  18.038   3.406  0.1877  0.1165 -0.0496
64404W        W65268   5.487  18.002   1.370 -0.2465  0.0883  0.0278
64405W        W65269  10.269  17.657   1.123 -0.0001  0.4180 -0.2153
64406W        W65270   6.287  16.427   1.137  0.0372  0.4076  0.0516
64407W        W65271  10.017  18.999   2.938  0.1672 -0.1021 -0.0074
64408W        W65272   9.953  14.559   3.071  0.1854 -0.1183  0.0536
64409W        W65273   9.762  14.914   2.170  0.0172 -0.1344  0.1443
64410W        W65274  10.677  16.933   3.224 -0.1582 -0.2960 -0.1991
64411W        W65275  11.105  19.756   2.501 -0.1981 -0.0493  0.0823
64412W        W65276   9.827  17.528  28.134  0.1284  0.3170  0.1775
64413W        W65277   8.205  16.955   2.559  0.2170  0.2119  0.1990
64414W        W65278   8.755  14.543   3.040  0.3797  0.0051 -0.0778
64415W        W65279   9.144  15.224   0.554 -0.1054 -0.0061  0.1553
64416W        W65280  10.364  13.386   1.474 -0.0499  0.0982 -0.2951
64417W        W65281   5.072  15.379   0.293 -0.1431 -0.2255 -0.0126
64418W        W65282   9.849  19.426   2.726 -0.2748  0.0271 -0.0334
64419W        W65283   9.259  19.072   3.864  0.1145 -0.1058  0.1063
64420W        W65284   9.461  19.175   1.449  0.0401 -0.1585  0.0792
64421W        W65285   8.537  16.373  27.568 -0.1715  0.2026  0.0397
64422W        W65286   7.495  17.370   2.220 -0.0196  0.3177  0.1199
64423W        W65287   9.166  19.441   1.975  0.4128 -0.1599 -0.1997
64424W        W65288  10.989  18.954   4.931 -0.1532 -0.0649  0.0403
64425W        W65289   9.691  15.420   2.654  0.1078  0.0869  0.0238
64426W        W65290   6.860  15.488  29.074 -0.0711  0.1320  0.1465
64427W        W65291  11.455  21.180   0.054  0.3144 -0.3245  0.0441
64428W        W65292   8.788  15.512   0.259  0.2166  0.0168 -0.0509
64429W        W65293   7.938  16.054   3.387 -0.3054 -0.1249  0.3209
64430W        W65294   9.839  20.747   2.511  0.1534  0.1454 -0.0920
64431W        W65295  11.440  13.618  28.603  0.1641 -0.1481 -0.1044
64432W        W65296  10.581  15.474  29.071  0.2017 -0.0074  0.3365
64433W        W65297   9.020  14.337   2.030  0.0340  0.1854  0.1486
64434W        W65298   9.733  17.059   3.468  0.3011 -0.3359  0.1259
64435W        W65299  10.701  14.867   4.376 -0.1797  0.0585  0.3342
64436W        W65300  10.282  18.485   1.152 -0.1199 -0.0274 -0.2148
64437W        W65301  10.708  16.401   3.018 -0.0747 -0.0281  0.0779
64438W        W65302   9.346  18.261  27.412 -0.2066 -0.1107  0.0471
64439W        W65303   9.354  16.755   3.594 -0.2860  0.0595 -0.0081
64440W        W65304  10.916  17.051   0.945  0.0637 -0.1077  0.4412
64441W        W65305   9.984  14.690   1.144 -0.2835 -0.3318  0.0013
64442W        W65306  10.818  16.004   1.710  0.3971  0.0182 -0.0474
64443W        W65307   8.851  16.722   0.575 -0.0441 -0.2976  0.2988
64444W        W65308  10.630  16.456   1.562 -0.0110  0.0969  0.0714
64445W        W65309   7.021  17.514   1.266 -0.1103 -0.0636 -0.2884
64446W        W65310  10.196  16.037   2.877 -0.2882 -0.2511 -0.0200
64447W        W65311  11.083  15.255   1.597  0.3636 -0.0156  0.1542
64448W        W65312   7.982  17.347   4.189 -0.1666 -0.0155  0.1324
64449W        W65313   6.981  14.147   1.950  0.2131  0.0756 -0.0258
64450W        W65314   7.880  14.531   1.090 -0.0100  0.1122  0.0209
64451W        W65315   8.440  17.080   4.120 -0.0537 -0.0066  0.1568
64452W        W65316   9.081  17.792   0.787 -0.1500 -0.0721 -0.3791
64453W        W65317  10.452  14.448  28.743 -0.0847 -0.0545  0.1852
64454W        W65318   7.067  17.785   2.087 -0.1052 -0.0030  0.0689
64455W        W65319   9.564  19.556   5.833  0.1818  0.0196  0.0150
64456W        W65320  11.814  16.195   0.846  0.0673  0.1512  0.1293
64457W        W65321   9.967  15.439   4.398  0.2353  0.0362 -0.1448
64458W        W65322  10.190  18.088   0.860  0.1692 -0.0468 -0.2392
64459W        W65323   8.790  13.305   1.521 -0.2011 -0.0510 -0.0278
64460W        W65324  11.727  14.677   3.533  0.1238  0.0255 -0.3366
64461W        W65325  12.046  18.166   2.210 -0.1969  0.1636  0.3489
64462W        W65326   8.924  16.004  26.741 -0.2005  0.0666  0.2329
64463W        W65327   8.782  14.231   1.363  0.0057 -0.2748 -0.2280
64464W        W65328  10.597  14.536   1.939  0.0397  0.0468 -0.0141
64465W        W65329   8.033  18.333   4.388  0.4096 -0.1183  0.3558
64466W        W65330   9.868  17.533   1.393 -0.1105  0.0358 -0.1452
64467W        W65331  10.986  15.844   0.808 -0.1704  0.1109  0.2008
64468W        W65332   8.959  16.894   2.821 -0.2487  0.0261  0.1244
64469W        W65333  12.820  18.164   2.520  0.0053 -0.0072 -0.1773
64470W        W65334  11.958  13.879   2.911  0.3992  0.0106  0.0136
64471W        W65335   7.551  17.496   0.196 -0.0098  0.0728 -0.2859
64472W        W65336   6.810  17.125   0.411 -0.1201  0.3713 -0.0632
64473W        W65337   7.235  16.764   5.102  0.2083 -0.3277 -0.1052
64474W        W65338   9.044  18.610   2.575  0.1866  0.3562 -0.0403
64475W        W65339   9.109  16.858   2.349 -0.1670  0.3832  0.1220
64476W        W65340  10.729  17.564  28.512 -0.0128  0.0265  0.2248
64477W        W65341  12.652  17.446   4.884  0.0618  0.0207  0.4856
64478W        W65342  13.315  16.640   4.523  0.0528  0.4482  0.1753
64479W        W65343  10.389  14.197   0.374  0.1931  0.1659  0.0633
64480W        W65344  11.601  14.891   0.652 -0.1453  0.2705  0.2404
64481W        W65345   5.384  13.597   3.141  0.0987 -0.2787 -0.0237
64482W        W65346   6.980  13.681   1.190 -0.1644 -0.1884 -0.0629
64483W        W65347  10.393  16.554   5.429  0.0768  0.1406  0.0168
64484W        W65348  10.723  13.809   0.181 -0.1365  0.4515  0.2132
64485W        W65349   9.119  17.726   3.300  0.0551  0.0050 -0.0387
64486W        W65350   7.623  17.739   1.830 -0.1248  0.2344 -0.2419
64487W        W65351   9.020  19.029   2.906 -0.3266  0.0213 -0.1078
64488W        W65352   8.837  18.145  28.582 -0.1849  0.0252 -0.2927
64489W        W65353   9.283  16.178  28.114  0.1258 -0.0787 -0.1233
64490W        W65354   8.470  16.227   6.708 -0.2063 -0.1451  0.1300
64491W        W65355   8.039  17.434   0.029  0.0681  0.1311 -0.1647
64492W        W65356   8.826  17.856   4.594 -0.1205  0.1536  0.1536
64493W        W65357  11.651  18.477   0.900  0.1903  0.0657 -0.1515
64494W        W65358  10.051  18.620   5.054  0.1349 -0.1792 -0.1377
64495W        W65359   9.974  17.713   3.217  0.0132  0.2724  0.1808
64496W        W65360   6.372  17.197   0.668 -0.1123 -0.0287 -0.1298
64497W        W65361   6.594  18.262   5.263 -0.1422 -0.1686  0.1865
64498W        W65362  10.321  14.104   1.827  0.0477  0.3867  0.0028
64499W        W65363   6.309  16.802  27.026  0.1441  0.0204 -0.3860
64500W        W65364   8.092  13.708   2.650 -0.0213 -0.2222  0.0599
64501W        W65365   7.701  16.246   1.226  0.1362  0.0694  0.0796
64502W        W65366   9.946  16.620   4.143 -0.0002 -0.0749  0.3436
64503W        W65367  10.994  13.117  27.688 -0.4190 -0.0996 -0.1678
64504W        W65368   9.188  15.214   6.262  0.1058 -0.1005 -0.1611
64505W        W65369  11.004  16.067   3.969 -0.0082 -0.0718  0.0577
64506W        W65370  11.154  16.675   0.682 -0.1683 -0.1055 -0.0882
64507W        W65371  10.461  16.474   4.087  0.0309 -0.0150  0.0944
64508W        W65372   8.360  16.515   1.265  0.1346  0.2524  0.0626
64509W        W65373  12.291  16.364   0.737 -0.2162 -0.1938 -0.0121
64510W        W65374  10.492  15.438   3.095 -0.1014 -0.2302 -0.0873
64511W        W65375  10.428  15.363  27.873 -0.0451 -0.0092  0.1317
64512W        W65376   6.469  17.647   0.296 -0.0096 -0.2124  0.2500
64513W        W65377   6.946  14.102   1.383  0.1028 -0.1257  0.1524
64514W        W65378   9.128  15.188   1.900 -0.3342  0.0270  0.2006
64515W        W65379   7.715  18.892  29.134 -0.1024  0.2645  0.1385
64516W        W65380   8.427  15.882   2.338  0.2185  0.0745 -0.0895
64517W        W65381   9.447  18.653   6.013 -0.0278  0.1541  0.2236
64518W        W65382   7.627  16.527   3.423  0.1337  0.3456 -0.1027
64519W        W65383   7.405  14.296   0.202 -0.6004  0.5853 -0.3226
64520W        W65384  13.107  15.929   0.105  0.0289 -0.2235 -0.0153
64521W        W65385   8.490  15.252   0.564  0.1626  0.0025 -0.2834
64522W        W65386   7.542  16.264   4.650 -0.0864 -0.4038  0.3288
64523W        W65387   8.622  14.175  28.875  0.1672 -0.3191  0.1341
64524W        W65388  10.316  14.291   4.932 -0.3210  0.3514 -0.1524
64525W        W65389   6.536  18.396   2.549 -0.1665  0.0937 -0.1433
64526W        W65390   9.468  17.450  28.659  0.0232 -0.3042 -0.3422
64527W        W65391  10.356  12.129   3.607 -0.1292  0.0641 -0.0957
64528W        W65392   8.417  18.733  27.412 -0.0474 -0.2019 -0.0241
64529W        W65393  11.778  16.171   2.458  0.2604 -0.0122  0.2662
64530W        W65394   7.481  15.316   1.384 -0.0371 -0.0732 -0.2557
64531W        W65395   9.460  14.893   1.332 -0.1458 -0.1041  0.0951
64532W        W65396   7.692  15.567  28.577  0.0917 -0.2947  0.0854
64533W        W65397  11.888  17.691   2.281  0.0583 -0.1595 -0.0107
64534W        W65398   7.627  16.762   1.009 -0.1768 -0.3047  0.1142
64535W        W65399  10.962  13.143   2.172 -0.1555  0.0474 -0.2006
64536W        W65400   8.621  16.932   1.468  0.2392 -0.0047  0.4934
64537W        W65401  13.550  16.070   1.409  0.0413 -0.0370  0.3132
64538W        W65402   9.762  16.806   1.167 -0.2535 -0.0042  0.1499
64539W        W65403  10.867  14.502   3.394 -0.0048 -0.1252  0.0212
64540W        W65404   7.653  15.399  27.146 -0.0111  0.0728 -0.0721
64541W        W65405  10.482  13.586  28.309 -0.1045  0.3376 -0.3720
64542W        W65406   7.931  17.842  28.889  0.3532  0.0735 -0.1089
64543W        W65407   9.885  15.663  29.085 -0.0507  0.0927 -0.1702
64544W        W65408  12.751  17.406  28.856  0.0581  0.1494 -0.2353
64545W        W65409   9.537  17.313   4.446  0.2314 -0.3146 -0.0511
64546W        W65410  10.762  18.457  28.264 -0.3783 -0.1219  0.0197
64547W        W65411  11.181  16.447   1.723  0.1597 -0.2068 -0.0615
64548W        W65412   8.446  14.264   4.363 -0.1314 -0.1357  0.1704
64549W        W65413  12.582  16.081   2.416 -0.2247  0.1624  0.0310
64550W        W65414   9.648  14.596   2.588 -0.2440 -0.1311 -0.0306
64551W        W65415   7.969  17.117   2.140 -0.2676 -0.2268  0.1522
64552W        W65416  10.334  14.981   0.875  0.2018  0.1137  0.0319
64553W        W65417   9.323  16.726   0.896 -0.0036  0.0072  0.1639
64554W        W65418   8.805  17.395   0.722  0.0934  0.0120  0.0900
64555W        W65419  10.246  13.886   3.387 -0.0501  0.1130  0.0140
64556W        W65420  10.654  15.969   3.264  0.1231 -0.0984 -0.1699
64557W        W65421   8.517  14.732   6.383  0.1768  0.0518 -0.0082
64558W        W65422   8.356  14.983   1.679  0.0214  0.0053 -0.0513
64559W        W65423   9.863  19.195   4.114  0.2290  0.1918 -0.1040
64560W        W65424   7.979  14.671   1.619  0.0232 -0.1458  0.0108
64561W        W65425  12.841  16.279   3.969  0.1466  0.3424 -0.1550
64562W        W65426   8.661  15.766   4.282 -0.3261  0.0982 -0.1749
64563W        W65427   8.463  15.350   2.446  0.1482  0.0476 -0.1195
64564W        W65428  11.102  13.153  28.688  0.2528  0.1973 -0.2112
64565W        W65429  10.329  19.280   2.586 -0.0507  0.3576  0.1302
64566W        W65430   9.512  17.620   3.007 -0.0532 -0.1375  0.1511
64567W        W65431   9.200  13.568   2.304  0.0068 -0.1782 -0.1642
64568W        W65432  10.369  17.936   0.334 -0.3668  0.2037 -0.0409
64569W        W65433   9.172  18.690   4.675 -0.2160 -0.1076  0.1264
64570W        W65434   8.717  18.280   2.677 -0.1563 -0.1309 -0.1830
64571W        W65435  10.208  15.473  28.707 -0.3201 -0.3456  0.0822
64572W        W65436   7.096  15.955   5.875  0.3229 -0.0187  0.1102
64573W        W65437   7.959  17.351   6.143  0.3007 -0.0756  0.0338
64574W        W65438  11.545  16.596   2.624  0.5990 -0.1437 -0.0404
64575W        W65439   8.445  17.032   3.611  0.0860 -0.0593 -0.3069
64576W        W65440  10.887  17.426   3.381 -0.0231 -0.1314  0.0604
64577W        W65441   8.696  17.834   2.964  0.0776 -0.0734  0.1772
64578W        W65442   7.033  18.594   5.202  0.0922 -0.3630  0.0274
64579W        W65443  10.677  16.561   3.602  0.1017  0.1135 -0.1685
64580W        W65444   8.802  17.071   6.446  0.0287  0.0812  0.0057
64581W        W65445   6.836  16.149   7.212  0.2587 -0.0782 -0.0277
64582W        W65446   8.393  13.342   7.981 -0.0360 -0.0865 -0.0564
64583W        W65447  10.640  14.703   4.829  0.0120 -0.0617  0.0970
64584W        W65448  12.224  13.886   4.383 -0.3347  0.1535 -0.2616
64585W        W65449  11.360  16.513   9.343  0.0154 -0.0498  0.0031
64586W        W65450   7.801  16.329   6.797 -0.0879  0.0692 -0.1253
64587W        W65451   5.698  15.729   5.612 -0.0330  0.0428 -0.0247
64588W        W65452   9.719  16.684   5.426 -0.2018 -0.0180 -0.2505
64589W        W65453   6.782  11.992   4.816  0.2054 -0.1582  0.0741
64590W        W65454   7.552  16.258   5.848 -0.0364 -0.2603  0.0736
64591W        W65455   9.675  12.804   4.508  0.0639 -0.1316  0.1297
64592W        W65456  12.781  15.025   4.977  0.3232 -0.1561  0.2354
64593W        W65457   8.860  12.611   6.042 -0.1747 -0.1469 -0.0277
64594W        W65458  10.025  17.109   4.519  0.1893 -0.1456 -0.0713
64595W        W65459   9.048  18.075   5.032  0.1202 -0.1568 -0.2585
64596W        W65460   5.261  18.006   4.985 -0.1524  0.0381 -0.0626
64597W        W65461   9.559  13.812   7.484  0.0659  0.0339  0.0530
64598W        W65462  11.331  16.228   4.782 -0.2166 -0.1919 -0.4531
64599W        W65463   6.691  17.382   4.546 -0.0289 -0.0192 -0.0196
64600W        W65464  10.785  15.381   5.466 -0.0470  0.3172 -0.0457
64601W        W65465   8.493  16.595   4.920 -0.0954 -0.0674 -0.3151
64602W        W65466   7.463  17.265   5.167  0.1623  0.1951 -0.1401
64603W        W65467  11.300  17.560   4.898 -0.2634 -0.1863 -0.1898
64604W        W65468   5.666  17.165   5.918 -0.2332  0.0455 -0.3039
64605W        W65469   9.530  13.943   6.069 -0.1347  0.0970 -0.2130
64606W        W65470   4.853  15.442   7.251  0.1277 -0.2929 -0.1452
64607W        W65471  10.923  17.434   1.775 -0.2303 -0.2583  0.0644
64608W        W65472   9.130  14.144   6.593  0.0426 -0.1838 -0.2357
64609W        W65473   8.394  14.386   5.354  0.1298  0.1663  0.0282
64610W        W65474  11.557  17.797   5.979 -0.2791  0.1728  0.0265
64611W        W65475  10.357  14.001   6.846 -0.2052 -0.2919  0.1496
64612W        W65476  12.075  13.964   3.554  0.2173  0.2224 -0.4341
64613W        W65477  13.790  17.914   7.138 -0.1536  0.0720 -0.0066
64614W        W65478  10.524  15.798   7.736  0.2238  0.0394 -0.4114
64615W        W65479  11.604  16.695   5.738  0.3378 -0.1343  0.0910
64616W        W65480  11.021  18.171   4.764 -0.4904  0.2219  0.1588
64617W        W65481   7.960  18.650   4.029  0.0657 -0.2016 -0.2895
64618W        W65482   7.480  13.979   5.431  0.2780 -0.0758 -0.0314
64619W        W65483  11.498  14.994   6.825 -0.1030 -0.0696  0.0096
64620W        W65484  10.643  16.822   4.442 -0.1193  0.1781 -0.1454
64621W        W65485  10.389  14.485   4.381 -0.3304  0.1919  0.1560
64622W        W65486  11.806  18.529   4.765  0.1782 -0.1232 -0.0779
64623W        W65487   6.987  16.957   3.287 -0.2494  0.1410 -0.1856
64624W        W65488   9.714  17.168   5.508 -0.1890  0.4649 -0.1499
64625W        W65489   9.470  14.573   4.277  0.1213  0.0096 -0.1901
64626W        W65490   8.299  15.798   4.740 -0.1570 -0.0984 -0.2098
64627W        W65491   9.971  19.068   5.269 -0.0583  0.0359 -0.0381
64628W        W65492   8.631  13.974   9.278 -0.1850 -0.0335  0.0864
64629W        W65493  10.066  16.298   5.762 -0.0226 -0.1283 -0.0074
64630W        W65494   8.600  19.344   3.122  0.1747  0.1471  0.1548
64631W        W65495   9.072  19.288   4.396  0.3518 -0.2509  0.0954
64632W        W65496  10.239  18.672   3.168 -0.4021  0.0087 -0.4318
64633W        W65497   8.411  19.776   6.569  0.0680 -0.2175  0.1930
64634W        W65498  11.128  19.153   7.594  0.3614  0.2152 -0.2550
64635W        W65499   7.055  14.035   2.620  0.1392  0.1599  0.0973
64636W        W65500   7.419  13.286   8.403  0.3532 -0.2083  0.0863
64637W        W65501  11.392  14.152   5.779  0.0348 -0.0225 -0.2909
64638W        W65502  10.075  15.257   5.026 -0.0510 -0.1766 -0.1118
64639W        W65503   8.618  15.161   3.022 -0.2039  0.1799 -0.1445
64640W        W65504   9.530  15.255   4.900 -0.0481 -0.0397  0.3807
64641W        W65505   9.009  16.060   5.529 -0.1430  0.1175  0.3329
64642W        W65506  11.052  18.385   3.404  0.0528 -0.2187 -0.0095
64643W        W65507  10.282  13.786   7.368 -0.1435 -0.0140  0.1556
64644W        W65508   8.886  18.727   4.016  0.0788  0.2235  0.0858
64645W        W65509  10.949  13.942   6.016  0.0361  0.0110 -0.0442
64646W        W65510   9.596  17.778   3.544  0.1800  0.1137 -0.2048
64647W        W65511   9.059  17.778   7.381  0.2167 -0.1019 -0.2731
64648W        W65512   8.174  17.807   2.882  0.1126  0.3020  0.1353
64649W        W65513   6.963  17.104   6.061  0.0075  0.0177 -0.2324
64650W        W65514   7.961  14.233   4.667  0.0591  0.2869 -0.1697
64651W        W65515   9.563  16.974   3.974 -0.1547  0.0164 -0.5415
64652W        W65516   6.895  16.113   5.429  0.0803 -0.1062  0.2221
64653W        W65517   9.396  12.315   7.877 -0.2550 -0.0441 -0.3312
64654W        W65518   6.324  16.846   5.296 -0.2758  0.0763 -0.1173
64655W        W65519  10.765  13.654   3.548 -0.0560  0.2266  0.1272
64656W        W65520  11.836  17.596   8.950 -0.1916  0.1543 -0.4564
64657W        W65521   8.100  13.512   5.509 -0.2372  0.0049  0.1452
64658W        W65522   9.349  20.479   7.069  0.0479 -0.1812 -0.1160
64659W        W65523   7.216  15.717  10.126 -0.0326  0.0523 -0.1019
64660W        W65524  11.592  16.648   7.927  0.1095 -0.1868  0.1377
64661W        W65525  10.615  16.921   5.879 -0.0483 -0.5462 -0.2557
64662W        W65526  11.468  13.197   6.260 -0.2129 -0.0372  0.3766
64663W        W65527   8.188  15.917   6.507  0.1193  0.0473  0.0738
64664W        W65528   9.756  17.790   5.538  0.0880  0.1413 -0.1870
64665W        W65529   9.318  14.194   3.371  0.0030 -0.0303  0.1615
64666W        W65530   9.884  13.714   7.028  0.1119  0.3355 -0.3723
64667W        W65531   9.272  14.611   3.005 -0.1349  0.0532  0.0875
64668W        W65532  12.520  13.660   5.028 -0.4403 -0.1909 -0.0007
64669W        W65533   5.550  15.129   7.710  0.0307  0.1419  0.1965
64670W        W65534  10.370  15.233   4.594 -0.0604  0.0332 -0.2776
64671W        W65535  12.050  15.058   9.300  0.0793  0.1867 -0.2791
64672W        W65536  12.438  14.378   5.448 -0.1580 -0.0547 -0.1605
64673W        W65537   6.566  16.646   3.335 -0.1122 -0.0189  0.2199
64674W        W65538   8.949  14.529   3.575  0.3512 -0.1056 -0.0829
64675W        W65539   9.186  16.791   6.294 -0.3097 -0.2739 -0.1162
64676W        W65540  10.630  16.294   6.411  0.0086 -0.2958 -0.0119
64677W        W65541   8.529  15.423   7.694 -0.0678  0.1839 -0.0510
64678W        W65542  11.136  14.821   5.826 -0.0010  0.1871 -0.4087
64679W        W65543   9.811  17.869   6.186 -0.1602  0.0635 -0.1746
64680W        W65544   9.814  10.754   7.451  0.1490  0.2229 -0.2189
64681W        W65545   7.625  15.972   6.584  0.4921 -0.1611 -0.0588
64682W        W65546   7.849  17.564   5.060 -0.1345 -0.0323  0.1459
64683W        W65547   8.491  16.571   3.492 -0.1993 -0.1835  0.0070
64684W        W65548  10.518  16.794   4.977  0.0435 -0.2514  0.0678
64685W        W65549  12.336  15.703   8.219  0.0479  0.2705 -0.0033
64686W        W65550   9.501  16.532   4.964 -0.5010 -0.1933 -0.0862
64687W        W65551  10.351  17.809   6.980 -0.0003 -0.0306  0.2261
64688W        W65552  11.693  15.059   7.863 -0.0865  0.1175  0.1284
64689W        W65553  10.075  16.288   6.570  0.2734  0.3044  0.0312
64690W        W65554   9.004  16.194   3.481 -0.2583  0.0429 -0.0802
64691W        W65555   7.827  16.420   4.282 -0.0230 -0.1672 -0.1597
64692W        W65556  10.519  14.079   5.813  0.0412 -0.0444 -0.2147
64693W        W65557  10.813  14.483   5.903 -0.0304 -0.0240 -0.0302
64694W        W65558   9.969  16.219   3.675 -0.0723 -0.2127  0.0017
64695W        W65559  10.322  15.661   2.520 -0.0597  0.0125  0.1224
64696W        W65560   9.533  16.780   2.607 -0.0697  0.0637 -0.0060
64697W        W65561  10.643  15.535   4.853  0.0773  0.0196 -0.0634
64698W        W65562   6.568  15.929   5.991  0.0485  0.0376  0.1392
64699W        W65563   8.963  17.022   6.896  0.2573 -0.1404  0.0220
64700W        W65564  10.847  17.239   4.873  0.0359 -0.1442 -0.4184
64701W        W65565   8.609  18.175   5.299  0.0793 -0.1817  0.0916
64702W        W65566  11.510  17.973   7.546 -0.4265  0.1357 -0.1011
64703W        W65567   9.482  14.960   8.004 -0.0861 -0.2049  0.1208
64704W        W65568  11.272  18.333   6.998 -0.1426 -0.0884 -0.1729
64705W        W65569   8.074  14.419   6.568  0.0372 -0.3474 -0.1705
64706W        W65570  10.938  13.174   7.306  0.0386  0.0975 -0.0907
64707W        W65571   7.502  16.699   6.482  0.0319  0.0846  0.0689
64708W        W65572  11.743  14.518   6.996  0.0006  0.0660  0.1166
64709W        W65573  10.314  16.005   6.060  0.0750 -0.4705 -0.1201
64710W        W65574   9.504  16.417   6.428  0.0441  0.1586  0.2075
64711W        W65575   9.462  16.508   4.133  0.0658  0.0132 -0.1669
64712W        W65576   7.743  15.859   4.319  0.2259  0.2338  0.1767
64713W        W65577   9.869  14.761   6.108 -0.0513 -0.0089 -0.1559
64714W        W65578  10.000  16.920   2.752 -0.0269 -0.1124  0.1482
64715W        W65579   9.133  13.620   8.509 -0.0621  0.3079 -0.0180
64716W        W65580   9.481  17.076   9.357 -0.2174  0.3680  0.0996
64717W        W65581   9.429  14.793   3.476  0.1798 -0.1085 -0.0766
64718W        W65582  10.396  13.181   8.964 -0.0675 -0.1305 -0.2892
64719W        W65583  11.690  15.873   4.694  0.3365  0.0946  0.0450
64720W        W65584  10.862  15.807   5.250 -0.0852  0.1548  0.0058
64721W        W65585   9.443  15.440   6.680  0.2330 -0.2983  0.1284
64722W        W65586  12.027  17.374   5.553 -0.0924  0.1251  0.0268
64723W        W65587   9.136  14.142   2.863 -0.3348  0.0896 -0.1015
64724W        W65588  10.292  18.878   5.536 -0.1705 -0.0889 -0.0520
64725W        W65589   7.222  13.931   3.715 -0.1299 -0.0011  0.1186
64726W        W65590  10.358  13.409   6.986 -0.4005 -0.0741  0.1343
64727W        W65591   9.769  14.854   5.114  0.1876  0.0100 -0.2499
64728W        W65592   7.251  15.537   6.225  0.0147 -0.1317 -0.0246
64729W        W65593  10.152  16.954   3.228 -0.0338 -0.0090 -0.2435
64730W        W65594   8.786  14.998   6.099  0.4594 -0.0813 -0.1247
64731W        W65595   8.679  16.442   5.371 -0.2635 -0.1500 -0.2927
64732W        W65596  11.017  15.262   5.053 -0.1923  0.1168  0.0539
64733W        W65597   9.084  14.443   8.196 -0.1786 -0.0145  0.0872
64734W        W65598  11.273  16.220   6.618 -0.0130 -0.1783 -0.0615
64735W        W65599  10.764  14.199   6.425  0.1040  0.0603 -0.1668
64736W        W65600   7.943  12.535   7.994  0.4579  0.0137 -0.0705
64737W        W65601   9.650  17.086   4.924 -0.1262  0.0274  0.1780
64738W        W65602   8.958  15.845   3.154 -0.2129 -0.1183 -0.2502
64739W        W65603   8.592  19.605   4.201  0.2930  0.0266  0.2972
64740W        W65604   9.278  16.487   5.425 -0.1751 -0.2533  0.5606
64741W        W65605   8.514  15.359   5.179 -0.1613 -0.3225  0.4401
64742W        W65606  10.662  17.148   7.640 -0.2605  0.0775  0.0888
64743W        W65607  11.911  15.428   8.449 -0.1895  0.4325 -0.1628
64744W        W65608   9.278  16.931   5.232  0.2396 -0.1191 -0.0061
64745W        W65609  12.753  17.932   5.351  0.2345 -0.2702  0.0887
64746W        W65610   8.609  15.267   4.329  0.0827  0.0063 -0.2805
64747W        W65611  15.189  16.053   3.512 -0.1452  0.0114 -0.4324
64748W        W65612  11.110  15.549   8.420 -0.0913 -0.2114  0.0240
64749W        W65613   8.714  17.503   6.205 -0.0783  0.1199  0.1091
64750W        W65614   6.241  19.692   5.191 -0.1034  0.2247  0.4146
64751W        W65615   9.605  13.462   5.841  0.1810  0.2633  0.0048
64752W        W65616   8.741  16.933   4.525 -0.0377 -0.1084 -0.2160
64753W        W65617  12.009  16.081   4.070 -0.0220 -0.2701  0.0241
64754W        W65618   9.130  16.946   4.188  0.2666 -0.1059  0.1100
64755W        W65619   9.843  15.818   6.616  0.0031 -0.0664  0.0399
64756W        W65620  11.039  13.742   4.121 -0.3178 -0.0626  0.1548
64757W        W65621  12.081  17.224   7.221 -0.0714 -0.0988  0.1365
64758W        W65622  12.041  14.290   5.737 -0.2789 -0.0416 -0.0827
64759W        W65623   7.580  16.729   0.434 -0.0243  0.0968 -0.2212
64760W        W65624   9.627  15.732   4.580 -0.0451  0.0143  0.1120
64761W        W65625   7.166  16.659   4.591  0.0827  0.1056  0.1717
64762W        W65626   9.850  15.682   5.087 -0.4573  0.0664 -0.0875
64763W        W65627  11.098  15.747   3.593 -0.0980 -0.2635 -0.0876
64764W        W65628   7.554  14.845   4.458  0.4393  0.0059 -0.2798
64765W        W65629   7.598  15.825   7.081 -0.0931  0.1824  0.0009
64766W        W65630   9.978  19.123   7.873 -0.1373  0.0978  0.0773
64767W        W65631   9.676  15.194   5.991 -0.1764 -0.1248 -0.0155
64768W        W65632   9.943  14.728   7.292  0.3988 -0.1272 -0.2765
64769W        W65633   6.369  13.186   7.273  0.1888  0.3094  0.1864
64770W        W65634   9.340  13.960   5.103 -0.0228 -0.0892  0.1246
64771W        W65635  11.081  14.596   6.311  0.1343 -0.2743 -0.1685
64772W        W65636   6.542  14.183   4.613  0.1878  0.3004 -0.0062
64773W        W65637   8.492  12.977   4.855  0.1105  0.0904  0.0581
64774W        W65638  10.772  16.618   1.073  0.0522 -0.0302 -0.1093
64775W        W65639   7.777  12.259   7.574  0.0512  0.0845 -0.2915
64776W        W65640   8.373  16.890   5.416 -0.1109 -0.0457  0.1565
64777W        W65641   7.101  16.522   5.509  0.2132  0.1563 -0.3308
64778W        W65642   8.925  14.544   7.450 -0.1149 -0.1321 -0.0455
64779W        W65643  12.501  16.493   2.825  0.1617  0.3537  0.0570
64780W        W65644   8.086  19.258   3.568  0.3264  0.2827  0.1567
64781W        W65645   8.851  16.408   6.401  0.0214 -0.0001  0.1287
64782W        W65646   8.693  15.945   6.312  0.0752 -0.1959  0.2004
64783W        W65647   6.660  16.400   4.676  0.2197  0.0126  0.0366
64784W        W65648  10.105  15.146   5.542 -0.2035 -0.0095  0.5078
64785W        W65649   9.187  15.324   4.447 -0.1477  0.2460  0.1160
64786W        W65650  10.400  17.255   3.517 -0.0945 -0.2293  0.0379
64787W        W65651  11.760  18.340   6.054  0.2554  0.0372  0.2405
64788W        W65652  12.124  18.221   6.447  0.1104 -0.0133 -0.3188
64789W        W65653   6.656  16.800   5.775 -0.0720  0.1353  0.2662
64790W        W65654   8.424  13.178   7.418  0.1227  0.1925 -0.0299
64791W        W65655  11.414  15.977   5.235  0.0147 -0.1599 -0.0450
64792W        W65656   9.532  16.209   5.712  0.0077 -0.2921  0.0770
64793W        W65657   8.979  15.127   8.760 -0.0555 -0.1501 -0.0312
64794W        W65658  10.574  14.413   5.462  0.1279  0.2315 -0.1460
64795W        W65659  13.356  17.807   0.947  0.2065 -0.1045 -0.2212
64796W        W65660  10.937  16.585   4.850 -0.1505 -0.1641  0.0430
64797W        W65661  10.457  19.237   5.865 -0.1053 -0.1409  0.1132
64798W        W65662   8.788  13.922   5.824 -0.0465  0.0802 -0.1588
64799W        W65663  10.328  21.407   5.341  0.0570  0.0633  0.0119
64800W        W65664  11.458  12.111   6.395  0.2684 -0.0958 -0.2546
64801W        W65665   8.541  12.752   6.435 -0.0339 -0.3737  0.0651
64802W        W65666   8.828  15.516   4.832 -0.0554 -0.0411  0.0151
64803W        W65667   7.894  16.600   5.645  0.1528 -0.1291  0.0557
64804W        W65668   8.877  15.356   3.475 -0.1453  0.1564 -0.0690
64805W        W65669  11.008  12.709   6.913  0.0832 -0.0377  0.0083
64806W        W65670  10.315  17.238   4.934  0.1163 -0.0804 -0.0522
64807W        W65671  10.158  17.242   6.787 -0.1457 -0.3513 -0.2397
64808W        W65672   7.897  14.492   9.308 -0.1594 -0.0695 -0.0267
64809W        W65673  10.986  16.448   8.202  0.1502  0.0030 -0.1037
64810W        W65674  10.584  18.653   7.175  0.3064 -0.0682 -0.1381
64811W        W65675   9.603  15.215   5.421  0.3444 -0.2386  0.0997
64812W        W65676   8.866  17.558   5.027 -0.0439 -0.0413 -0.1708
64813W        W65677   8.593  15.320   5.652  0.2775  0.0658 -0.1460
64814W        W65678   9.846  15.150   7.035 -0.0599  0.2057  0.0162
64815W        W65679   8.956  13.485   6.947 -0.0619  0.2927 -0.1833
64816W        W65680   9.811  14.250   4.171 -0.0420  0.2576  0.2692
64817W        W65681   9.864  13.241   6.842  0.0068 -0.0003  0.1185
64818W        W65682   9.483  15.304   7.402 -0.2126 -0.2872  0.2422
64819W        W65683   9.023  20.674   4.234 -0.1827 -0.3350 -0.0102
64820W        W65684   5.444  15.087   5.611 -0.4601 -0.0410  0.0299
64821W        W65685   8.083  15.994   7.003  0.0189 -0.0153  0.1042
64822W        W65686   7.688  16.897   6.984 -0.2877 -0.0080 -0.1244
64823W        W65687   7.114  21.526   5.989 -0.0899 -0.1961 -0.2483
64824W        W65688  10.076  16.892   5.769  0.2996  0.0370  0.1063
64825W        W65689   9.097  16.122   1.599  0.0263 -0.2042 -0.1094
64826W        W65690  10.558  15.906   3.852  0.3603  0.1179  0.3727
64827W        W65691  11.273  13.064   5.761 -0.0900 -0.0311  0.3283
64828W        W65692   9.633  14.641   8.347  0.0566 -0.3363  0.0121
64829W        W65693   9.018  17.417   4.398  0.1662 -0.2769  0.0828
64830W        W65694   9.032  19.572   3.929  0.0911  0.1613  0.0185
64831W        W65695   7.384  16.015   5.463 -0.1306 -0.3549 -0.1335
64832W        W65696   7.808  16.325   6.236  0.2167 -0.2157 -0.2266
64833W        W65697  10.916  19.027   6.821  0.3722 -0.1234  0.2240
64834W        W65698   9.108  15.122   5.112  0.3669  0.0128 -0.1829
64835W        W65699   7.347  19.715   4.465  0.0841  0.3495 -0.2780
64836W        W65700  12.131  17.758   6.634  0.1877  0.1370  0.0997
64837W        W65701   9.277  15.729   3.597 -0.1908 -0.0029 -0.1478
64838W        W65702  10.849  15.754   6.437 -0.2365  0.0062  0.0306
64839W        W65703   7.786  16.861   6.082 -0.1789 -0.3005 -0.1248
64840W        W65704  11.368  14.217   4.679  0.0331  0.2425  0.1716
64841W        W65705  11.211  16.329   7.233  0.2415 -0.1522  0.0681
64842W        W65706   8.726  14.099   5.023 -0.1773 -0.0747 -0.1547
64843W        W65707   9.139  13.942   7.083 -0.0870  0.1443 -0.0806
64844W        W65708   6.830  15.292   5.306  0.0170  0.1731  0.1595
64845W        W65709  10.372  17.026   4.089  0.0490  0.2946 -0.0871
64846W        W65710  10.882  16.317   5.252 -0.0164 -0.1912 -0.0575
64847W        W65711   7.942  14.922   6.495  0.1744  0.0367 -0.1488
64848W        W65712   7.223  14.389   6.089 -0.1456  0.1902  0.1042
64849W        W65713   7.475  13.730   4.109  0.1272  0.2224  0.3017
64850W        W65714   8.282  17.263   6.841 -0.4591  0.1406  0.1384
64851W        W65715   8.772  14.832   7.031  0.1142 -0.2165 -0.0482
64852W        W65716   7.945  13.964   4.115 -0.1585  0.1752  0.1993
64853W        W65717   5.481  16.701   3.409 -0.2852 -0.2745 -0.2048
64854W        W65718   7.348  17.755   6.531  0.1690 -0.3333  0.3684
64855W        W65719  11.048  16.254   3.507  0.0348  0.1530  0.0227
64856W        W65720  11.342  15.082   6.368  0.0466 -0.0498 -0.2148
64857W        W65721  11.526  19.307   6.673  0.2939  0.1316 -0.1887
64858W        W65722   7.475  16.895   5.511  0.0523  0.0904 -0.1851
64859W        W65723  10.922  14.806   5.388 -0.4041 -0.1785 -0.2252
64860W        W65724   9.921  15.944   5.494  0.0214 -0.2446 -0.0890
64861W        W65725   8.127  15.679   5.185  0.1774 -0.1649 -0.1559
64862W        W65726   9.739  14.230   5.149  0.1404  0.2875 -0.0599
64863W        W65727   9.539  14.288   7.360  0.1437  0.0943  0.3594
64864W        W65728   7.307  18.056   2.550  0.2301  0.1001  0.0102
64865W        W65729   6.328  19.052   4.689 -0.2469 -0.2138 -0.0581
64866W        W65730   7.760  16.041   5.064 -0.1155 -0.0565  0.2218
64867W        W65731  11.501  12.641   6.172 -0.0077  0.0428  0.0370
64868W        W65732  12.257  15.435   5.193  0.1029  0.2451 -0.1330
64869W        W65733  10.627  16.008   8.548  0.0463  0.2360  0.1176
64870W        W65734   9.126  19.091   5.249 -0.3753  0.0089 -0.0277
64871W        W65735   7.028  16.271   7.654  0.0030 -0.4587 -0.3024
64872W        W65736   6.756  14.103   7.835  0.1784  0.0664  0.3439
64873W        W65737  10.223  14.707   5.295  0.0722 -0.0914  0.1089
64874W        W65738  11.153  15.715   4.824 -0.1096 -0.0214  0.2344
64875W        W65739  11.843  13.759   5.802  0.1254 -0.1902 -0.1104
64876W        W65740   9.550  17.972   5.166 -0.0484  0.1640  0.1040
64877W        W65741   9.360  15.693   5.626  0.3616  0.0388 -0.1065
64878W        W65742   9.665  16.029   4.092  0.1133 -0.1348 -0.1465
64879W        W65743   9.737  13.813   4.702 -0.0315 -0.0279 -0.0498
64880W        W65744   5.719  17.237   4.237  0.2319 -0.3098  0.0295
64881W        W65745   8.440  14.532   4.852 -0.3999 -0.1037  0.1196
64882W        W65746   7.416  16.152   9.949 -0.0527 -0.1411  0.0640
64883W        W65747   9.886  16.226   4.574  0.0579 -0.2888  0.0285
64884W        W65748   8.299  16.549   6.298 -0.2371 -0.2570  0.2256
64885W        W65749   7.917  14.226   8.244  0.0063  0.1750  0.1444
64886W        W65750   8.247  17.528   7.968 -0.1136 -0.0228  0.3014
64887W        W65751   8.103  16.884   4.494 -0.0211 -0.2727 -0.0708
64888W        W65752   8.562  13.822   4.600  0.0010 -0.1345 -0.1396
64889W        W65753   8.059  18.028   4.838 -0.0310  0.0467  0.2038
64890W        W65754   9.069  16.690   4.845  0.0991 -0.0560 -0.0718
64891W        W65755   5.266  17.577   7.161 -0.1498  0.0182 -0.2908
64892W        W65756  12.177  15.755   0.639  0.1099  0.0828 -0.0662
64893W        W65757   7.822  15.854   5.595  0.0597  0.0728 -0.0375
64894W        W65758  11.062  17.462   5.878 -0.0526  0.0484  0.0617
64895W        W65759   6.889  18.436   5.644  0.2257 -0.0704  0.0556
64896W        W65760  11.076  17.950   4.105 -0.2179  0.0433  0.0192
64897W        W65761   7.413  15.482   6.700 -0.1247 -0.0424 -0.0787
64898W        W65762   8.958  14.911   2.738  0.0203  0.4374  0.0038
64899W        W65763   7.014  14.751   2.013 -0.0796 -0.0090  0.1273
64900W        W65764   5.524  14.149   4.518 -0.0714 -0.1774 -0.0318
64901W        W65765  10.834  14.106   8.007  0.2221 -0.1722  0.0191
64902W        W65766   9.201  14.822   2.279 -0.5081 -0.1530  0.0052
64903W        W65767  10.718  17.597   7.871  0.0392 -0.2536 -0.3065
64904W        W65768  10.900  18.345   9.806  0.2239  0.1737  0.0991
64905W        W65769  11.908  15.462   7.967  0.4343  0.0594  0.1520
64906W        W65770  12.940  17.048   5.700 -0.2372  0.0788 -0.3421
64907W        W65771   9.654  19.038   6.182 -0.1689  0.0982  0.0375
64908W        W65772  13.910  17.628   6.350 -0.1998 -0.0025 -0.1344
64909W        W65773   9.196  16.088   6.109 -0.0877 -0.0593  0.1356
64910W        W65774   8.254  15.158   6.143 -0.0645  0.2202  0.2706
64911W        W65775   8.169  17.047   5.818 -0.1317 -0.0408  0.2310
64912W        W65776   8.771  14.546   5.789 -0.1579 -0.2208  0.0430
64913W        W65777   8.475  13.439   5.913  0.0042  0.1672 -0.2688
64914W        W65778   5.962  16.469   5.668  0.0727 -0.0957  0.3545
64915W        W65779   6.519  15.122   5.717  0.2863  0.2046  0.0083
64916W        W65780   9.197  17.571   6.885 -0.2424  0.0855 -0.1752
64917W        W65781   7.779  15.122   3.684 -0.1395 -0.0541 -0.2094
64918W        W65782   6.492  14.640   7.106  0.0011  0.0334  0.1346
64919W        W65783  11.256  17.501   4.109  0.1180  0.1038 -0.3910
64920W        W65784   8.531  17.584   4.238 -0.0238  0.0572  0.1758
64921W        W65785  10.230  14.887   8.582 -0.1115  0.0044 -0.0355
64922W        W65786   9.143  14.068   7.623 -0.0396  0.1194 -0.1685
64923W        W65787   9.798  17.447   6.480 -0.0073  0.2884  0.0653
64924W        W65788   5.699  18.820   6.450 -0.1351 -0.0623 -0.1191
64925W        W65789  10.734  17.325   6.249  0.2358  0.0131 -0.2399
64926W        W65790   9.242  13.635   3.892  0.0624 -0.0873  0.0460
64927W        W65791  10.732  19.775   5.455  0.0735  0.3660  0.0219
64928W        W65792  11.412  15.667   8.067  0.1750 -0.4244 -0.0196
64929W        W65793   8.035  12.982   8.322 -0.1455 -0.2164 -0.1004
64930W        W65794   9.504  16.034   5.254  0.2344  0.1535  0.1619
64931W        W65795   7.054  13.827   6.896  0.0502  0.2534  0.0590
64932W        W65796   9.052  16.137   5.013 -0.0608 -0.0207  0.0449
64933W        W65797  10.865  16.782   5.407  0.0632 -0.1541  0.0324
64934W        W65798   9.751  13.726   6.484  0.2817  0.0026 -0.1372
64935W        W65799  10.292  17.991   5.715 -0.2160  0.2007  0.1497
64936W        W65800   9.418  17.457   5.768 -0.0013 -0.0566  0.0010
64937W        W65801  11.968  16.132   7.189  0.1020 -0.0743  0.1347
64938W        W65802  12.542  18.051   4.400  0.0315  0.0713  0.2119
64939W        W65803   7.176  17.144   4.705 -0.0184  0.2838 -0.0256
64940W        W65804  12.880  13.895   5.687 -0.2141  0.2082  0.1855
64941W        W65805  10.148  15.355   3.456  0.0810  0.0926 -0.0379
64942W        W65806   9.738  14.758   3.874  0.1180 -0.0629  0.0470
64943W        W65807   8.579  15.870   5.151 -0.3014  0.1950 -0.0309
64944W        W65808   9.303  15.684   4.963  0.0740  0.1986 -0.0742
64945W        W65809  10.235  15.865   3.454 -0.1273  0.4615  0.0996
64946W        W65810  11.537  15.797   8.612 -0.0793 -0.0164 -0.1759
64947W        W65811   5.935  18.003   6.489 -0.4177 -0.1057  0.0536
64948W        W65812  10.256  17.742   7.688  0.2278 -0.1152  0.3647
64949W        W65813   7.775  15.047   6.950  0.1746  0.1073  0.0002
64950W        W65814   5.869  13.826   5.087  0.0569 -0.3615  0.1583
64951W        W65815   9.390  16.216   4.576  0.0728 -0.1153  0.0722
64952W        W65816   9.342  18.384   4.223  0.0282 -0.1529 -0.1531
64953W        W65817   7.265  12.171   5.982  0.0844  0.0953 -0.0206
64954W        W65818  10.647  16.283   7.832  0.0169  0.1681  0.0843
64955W        W65819  11.363  17.863   7.087 -0.1091 -0.0796 -0.0962
64956W        W65820   7.673  15.356   5.922  0.0437  0.0256 -0.0301
64957W        W65821  10.137  16.957   5.264 -0.0404 -0.0499  0.1570
64958W        W65822   7.921  17.043   5.169  0.1121 -0.0965 -0.2185
64959W        W65823  10.289  17.505   6.389 -0.1048 -0.1977 -0.0672
64960W        W65824  10.933  15.510   7.829 -0.0373 -0.1556  0.2022
64961W        W65825   8.874  17.096   9.822  0.3142  0.1836  0.2254
64962W        W65826   8.736  16.479   7.107 -0.0627  0.0610 -0.3430
64963W        W65827  11.536  15.498   5.044 -0.0936  0.1164 -0.2272
64964W        W65828  10.736  18.292   7.825 -0.1392  0.1247  0.0160
64965W        W65829  11.278  18.146   6.223 -0.0661  0.0997 -0.1318
64966W        W65830   9.503  14.273   4.645 -0.0386  0.0514 -0.2789
64967W        W65831   7.589  19.032   5.770  0.0936  0.2567  0.1814
64968W        W65832  10.295  18.396   5.454  0.0532 -0.2182  0.0570
64969W        W65833   9.875  16.477   2.887  0.1795  0.2896  0.3103
64970W        W65834   8.726  18.717   4.507 -0.0801  0.0419 -0.0742
64971W        W65835   9.066  17.984  11.232  0.0797 -0.2028  0.0460
64972W        W65836   7.082  14.818   7.716  0.1148  0.1284  0.0165
64973W        W65837  11.022  17.151   8.093 -0.2784  0.0286  0.1387
64974W        W65838  10.736  18.297   9.156 -0.0981  0.4124  0.2201
64975W        W65839   8.677  18.676   7.502 -0.0530  0.0049 -0.0892
64976W        W65840   7.834  16.199   7.352  0.1795 -0.2297  0.2133
64977W        W65841   8.974  16.831   7.453  0.0595  0.1558 -0.3019
64978W        W65842   8.979  15.426   9.180  0.1911  0.1558 -0.0241
64979W        W65843   7.586  19.180   8.458  0.1752  0.0326  0.2786
64980W        W65844   8.316  14.907   9.498  0.0352 -0.3388  0.1456
64981W        W65845   9.705  15.001   9.449 -0.0650 -0.0238 -0.1147
64982W        W65846   9.181  18.914   8.250 -0.0663 -0.1209 -0.3402
64983W        W65847  11.044  17.043   7.216 -0.0373 -0.0381 -0.3763
64984W        W65848  14.544  14.098  12.353 -0.1415  0.1143 -0.3161
64985W        W65849   8.726  15.855  11.936 -0.0953 -0.0203  0.1080
64986W        W65850   7.565  17.379   9.635  0.2056 -0.2908  0.1246
64987W        W65851  10.030  16.317  10.185  0.4314  0.6688 -0.1368
64988W        W65852   4.462  13.739   7.972 -0.0536 -0.2880  0.0417
64989W        W65853   8.882  17.602  10.731  0.2433  0.0328 -0.2277
64990W        W65854  13.657  14.735  11.725  0.0593 -0.0896 -0.2352
64991W        W65855   8.415  12.855  11.115 -0.2827  0.1777 -0.1335
64992W        W65856   7.366  16.186   8.986 -0.4932  0.0462  0.1944
64993W        W65857   8.349  18.225   7.207  0.0576 -0.0108  0.1359
64994W        W65858   6.335  15.684   9.193  0.0015  0.2132  0.0369
64995W        W65859   7.719  14.990   8.746  0.1401  0.1606  0.1660
64996W        W65860  10.567  14.851  10.809  0.2775  0.3138 -0.2122
64997W        W65861  11.337  17.203  13.594  0.1584  0.4532 -0.1424
64998W        W65862   8.244  16.698   8.119 -0.2464  0.0676  0.0330
64999W        W65863   6.179  16.728  10.038 -0.2291  0.1331 -0.1625
65000W        W65864   7.111  17.271   7.883 -0.0850 -0.1963  0.0642
65001W        W65865   8.554  16.051   7.231 -0.1336  0.1862 -0.2231
65002W        W65866  11.977  18.017  11.639  0.2932 -0.1151 -0.1954
65003W        W65867  11.712  16.672  10.037 -0.0111 -0.2360 -0.0679
65004W        W65868   8.566  17.341  14.261 -0.1778 -0.0543  0.1557
65005W        W65869   5.996  16.078   9.327  0.2093  0.0796  0.1487
65006W        W65870  10.058  16.905  11.071 -0.0137  0.0085  0.3701
65007W        W65871   5.446  13.173   6.908 -0.0593  0.0319 -0.1855
65008W        W65872   9.165  15.384  10.648 -0.1037  0.2829  0.1094
65009W        W65873  12.557  17.365   7.184 -0.0749 -0.0928  0.1092
65010W        W65874  13.198  17.179  10.101 -0.0613 -0.0281 -0.1299
65011W        W65875  11.418  18.315   7.875  0.0652 -0.0747 -0.0809
65012W        W65876  11.089  17.585   8.502  0.0521 -0.0211 -0.2857
65013W        W65877  10.832  18.707   9.384  0.3080 -0.1452 -0.1903
65014W        W65878  11.364  16.080  10.310  0.2257 -0.0149 -0.0643
65015W        W65879   6.160  17.744   4.626 -0.2249 -0.2993  0.4007
65016W        W65880   9.995  17.949   9.437  0.3409 -0.0054  0.2808
65017W        W65881  12.287  17.333  10.335  0.4010 -0.1951 -0.2182
65018W        W65882  10.266  14.954   9.425  0.0586 -0.0682 -0.0047
65019W        W65883   6.910  16.671   7.287 -0.2089 -0.2859 -0.3135
65020W        W65884   8.641  17.281   5.771  0.4317  0.2474 -0.0151
65021W        W65885   8.916  17.332  10.352  0.1668 -0.1374  0.0460
65022W        W65886  11.384  16.618  10.535 -0.0176 -0.0863  0.1946
65023W        W65887  10.397  15.181   6.550 -0.0295  0.0803 -0.0151
65024W        W65888  10.569  17.634  10.493  0.0391 -0.1689 -0.1437
65025W        W65889   9.166  16.798   8.275 -0.1485 -0.2366 -0.2820
65026W        W65890   8.528  18.553   6.093 -0.1766 -0.2829 -0.1188
65027W        W65891   7.765  14.010   8.883 -0.1791  0.2032 -0.1851
65028W        W65892  12.502  16.402   6.586  0.0614 -0.0577 -0.0509
65029W        W65893   8.589  16.114  10.196 -0.0653  0.0133 -0.0272
65030W        W65894  11.853  18.272   7.597  0.1245  0.4777  0.1642
65031W        W65895   9.944  15.710   5.932  0.0206  0.1418 -0.3397
65032W        W65896   8.337  15.263   9.850  0.0470  0.1729  0.1540
65033W        W65897   9.256  15.415   8.245 -0.0867  0.0034 -0.1017
65034W        W65898   8.217  15.752   7.471 -0.1111  0.1753  0.1218
65035W        W65899  12.020  13.864  11.507 -0.2654 -0.2123  0.3536
65036W        W65900  10.100  13.647  10.222  0.0109  0.2671  0.2259
65037W        W65901  10.700  15.274   7.482 -0.2469 -0.1283 -0.1359
65038W        W65902   8.258  17.801   6.450 -0.4535 -0.2528  0.0696
65039W        W65903   7.453  16.975   8.080  0.2143 -0.0173 -0.1419
65040W        W65904  10.237  15.256   7.400 -0.3394 -0.1124  0.0934
65041W        W65905  10.426  16.423   8.262  0.0919 -0.0158 -0.1126
65042W        W65906  11.165  14.496   8.933 -0.0888  0.0065  0.1458
65043W        W65907  13.408  20.903   9.598  0.0466  0.0831 -0.2023
65044W        W65908   8.391  16.893  11.795 -0.0673  0.1122  0.1049
65045W        W65909  10.588  17.573   9.975  0.0121 -0.3007 -0.1058
65046W        W65910   9.042  14.872   7.816  0.1148  0.0638 -0.3151
65047W        W65911   9.385  14.761   5.962 -0.0306  0.1025 -0.1872
65048W        W65912  12.824  19.652   7.030  0.0820 -0.3032 -0.0386
65049W        W65913   6.238  16.439   6.073  0.3146 -0.2424  0.1094
65050W        W65914   9.916  15.304   6.488  0.0775  0.0848 -0.0294
65051W        W65915   5.979  16.340  13.682  0.1094 -0.0890 -0.0165
65052W        W65916  10.181  14.790   9.895  0.1203 -0.2410 -0.0760
65053W        W65917   9.062  14.701   6.375 -0.0235  0.1446 -0.2017
65054W        W65918   9.722  14.666   8.908 -0.0881 -0.1232 -0.3815
65055W        W65919  10.744  15.252  13.101 -0.0359  0.1425  0.0972
65056W        W65920   8.957  12.799   8.456  0.0058  0.3218 -0.0882
65057W        W65921   9.577  16.247  11.185 -0.1299 -0.2843  0.2857
65058W        W65922   9.960  12.884  12.453 -0.2182  0.0485 -0.0911
65059W        W65923   9.920  17.020   8.951  0.0608  0.1474 -0.0405
65060W        W65924  11.342  18.046   8.324  0.0086  0.0899 -0.2636
65061W        W65925  14.438  17.243   6.973 -0.0425 -0.3815 -0.0540
65062W        W65926  10.906  15.774  11.166  0.1379 -0.0984 -0.0236
65063W        W65927   7.728  17.505   7.915 -0.1576  0.0045 -0.3172
65064W        W65928   9.242  16.255   7.221 -0.0238 -0.1290 -0.3057
65065W        W65929  10.571  12.455  11.451  0.1518 -0.1152  0.1331
65066W        W65930   8.544  15.257   8.160 -0.2314  0.0710 -0.1431
65067W        W65931  10.690  14.739   9.016  0.0126  0.0082  0.2955
65068W        W65932   9.622  17.008  11.819 -0.1068 -0.0318  0.0367
65069W        W65933   8.494  13.251   6.924  0.0581 -0.0818 -0.0572
65070W        W65934  11.209  16.780   9.722 -0.0994 -0.0716  0.0493
65071W        W65935  13.260  16.658   8.797  0.1552  0.0964  0.3566
65072W        W65936   9.664  13.713  10.020 -0.1635 -0.3120 -0.0063
65073W        W65937  11.254  15.516   6.829  0.0015  0.0603 -0.0123
65074W        W65938  10.545  17.708  10.971 -0.0589 -0.0188  0.0145
65075W        W65939   9.784  16.945   9.737 -0.0915  0.0479  0.0748
65076W        W65940   9.146  17.724  10.022  0.0563 -0.1837  0.0140
65077W        W65941  11.475  16.751   7.347  0.0776  0.1608  0.1368
65078W        W65942   9.742  16.019   7.923 -0.0418 -0.2282  0.4892
65079W        W65943  10.263  15.658   6.399 -0.0790  0.0724 -0.1310
65080W        W65944   7.244  15.070   8.263 -0.2413  0.0197 -0.0622
65081W        W65945   6.894  18.168   9.907 -0.0110 -0.0685  0.0848
65082W        W65946   9.854  17.706  10.505 -0.3011 -0.0066 -0.6500
65083W        W65947  14.147  15.284  11.509  0.2107 -0.0529  0.0353
65084W        W65948   8.580  16.200   9.319 -0.0476  0.0370 -0.0022
65085W        W65949  10.574  17.221  11.765 -0.2149  0.4097  0.1514
65086W        W65950  11.179  14.702   9.405  0.0059  0.0224 -0.4054
65087W        W65951  12.852  16.067  11.526 -0.2298  0.0316  0.1387
65088W        W65952   7.270  16.561   8.560 -0.0506  0.0108 -0.0026
65089W        W65953  11.033  15.537   9.433  0.0909 -0.0265  0.0383
65090W        W65954   9.370  16.874   5.770 -0.0347 -0.0560 -0.1497
65091W        W65955   8.395  16.384   7.548  0.2265  0.1516  0.3908
65092W        W65956  10.110  17.671   8.757  0.0866 -0.2496  0.0551
65093W        W65957  10.830  16.870   8.445 -0.2506 -0.2486  0.1316
65094W        W65958  10.230  15.926   9.517 -0.0543 -0.0614 -0.1189
65095W        W65959  10.492  16.749  10.842 -0.1180  0.2532 -0.0900
65096W        W65960  10.657  20.367   7.842 -0.1551  0.0847 -0.1587
65097W        W65961   6.185  14.222   8.641 -0.1224 -0.1128 -0.1455
65098W        W65962  14.235  16.544  11.427  0.0624  0.0438  0.2641
65099W        W65963   9.954  16.724   8.277  0.0764 -0.0377 -0.0448
65100W        W65964  10.064  17.306   7.844  0.2405  0.2470  0.2628
65101W        W65965  11.358  17.822   8.866 -0.1211 -0.0608  0.0681
65102W        W65966  11.341  14.607  10.280 -0.0974 -0.1583 -0.0437
65103W        W65967   8.768  17.572   9.310 -0.0093  0.1001 -0.1949
65104W        W65968  12.480  14.055   8.752 -0.4257 -0.2148  0.0064
65105W        W65969   9.830  16.648   9.288 -0.4484  0.0374 -0.0699
65106W        W65970   7.178  15.633   8.748 -0.1131  0.2055  0.0098
65107W        W65971  13.757  16.480   9.103 -0.1637  0.1866  0.1114
65108W        W65972  11.595  16.923  11.618  0.5039 -0.1540  0.2897
65109W        W65973  10.260  17.039   9.346  0.0114  0.0057 -0.2537
65110W        W65974   9.700  17.861   9.044  0.0432 -0.0842  0.1882
65111W        W65975   6.438  13.670   7.708  0.1616  0.2354 -0.3067
65112W        W65976  10.276  12.372   9.556 -0.1819  0.4161 -0.0276
65113W        W65977   9.328  15.055   6.981 -0.4083 -0.1952  0.0321
65114W        W65978   8.295  15.682   6.049 -0.0100 -0.0378 -0.1785
65115W        W65979   6.475  15.458   9.640  0.1557 -0.1397 -0.0514
65116W        W65980  11.199  14.916   7.675  0.1424  0.3233  0.0181
65117W        W65981  13.020  10.732   8.469  0.2659  0.4535  0.0262
65118W        W65982  12.744  18.220   7.203  0.0051  0.3440  0.2490
65119W        W65983   7.861  17.153   9.210  0.0964  0.2913 -0.0549
65120W        W65984   9.055  14.051  10.741 -0.1773 -0.1360 -0.3371
65121W        W65985  10.919  16.893  10.602 -0.0474 -0.0364 -0.1301
65122W        W65986   8.950  15.816   7.538 -0.0690 -0.1202 -0.2145
65123W        W65987  10.596  17.395   9.448  0.0789 -0.0669 -0.0526
65124W        W65988   4.929  15.120   8.595 -0.2256  0.2175 -0.2004
65125W        W65989   7.930  16.243   9.230  0.1044 -0.1349 -0.0694
65126W        W65990  11.426  16.587   8.396  0.1307 -0.1385  0.1726
65127W        W65991   7.900  16.935  10.040  0.2855 -0.0292 -0.1107
65128W        W65992  11.738  14.558   7.719 -0.2959 -0.1504 -0.0196
65129W        W65993   9.491  12.582   9.456 -0.1103  0.0021  0.0467
65130W        W65994   9.556  15.391   9.843 -0.1408 -0.0619 -0.2237
65131W        W65995   7.776  15.908   8.919  0.2463 -0.0230  0.3369
65132W        W65996  11.052  17.645   9.918  0.0349  0.1039 -0.2083
65133W        W65997   7.630  16.917   8.521  0.1864  0.2559  0.0533
65134W        W65998   9.368  15.795  11.147 -0.3596 -0.1094  0.1058
65135W        W65999  11.731  14.206  10.485 -0.1837  0.1084  0.2355
65136W        W66000  11.361  14.139  13.277  0.1522  0.0529 -0.3675
65137W        W66001   7.820  15.385   6.418 -0.1670 -0.2195 -0.1490
65138W        W66002   9.835  16.362   9.667  0.0655  0.1014  0.2108
65139W        W66003   7.295  17.790  11.400  0.0215  0.0346  0.0254
65140W        W66004   8.954  16.313   8.255 -0.0522  0.0880  0.4341
65141W        W66005  10.671  12.783   8.286  0.1400 -0.1568 -0.0604
65142W        W66006  12.611  14.732  10.369  0.1910 -0.2867  0.0195
65143W        W66007  10.141  17.450  10.201 -0.0221 -0.1780  0.0031
65144W        W66008  11.064  19.104   9.024  0.2011  0.1262  0.1035
65145W        W66009   7.414  15.483   9.621  0.1093 -0.1597 -0.3949
65146W        W66010   9.428  15.046   8.522 -0.2134 -0.4725  0.0328
65147W        W66011   7.729  19.869  11.487  0.0323 -0.1630 -0.1250
65148W        W66012  10.451  17.155  10.471 -0.3701 -0.2339  0.0930
65149W        W66013   6.613  20.977   9.638  0.0921  0.3080 -0.3601
65150W        W66014  11.917  16.609  11.474  0.0137  0.0915  0.0639
65151W        W66015   6.972  17.209   6.644 -0.3554 -0.1975  0.2253
65152W        W66016  10.568  15.098   5.148 -0.6191  0.3527  0.2223
65153W        W66017  10.789  16.038  10.337  0.3442  0.2106 -0.0861
65154W        W66018  10.923  17.683   9.057 -0.3050 -0.1477  0.2837
65155W        W66019   8.523  14.111   8.782 -0.0428 -0.1274  0.0364
65156W        W66020  13.316  17.037  11.109  0.2448 -0.1815  0.2751
65157W        W66021  11.217  16.748   8.817 -0.0270 -0.6325  0.2046
65158W        W66022   5.296  14.502   6.358  0.0115 -0.0348 -0.2506
65159W        W66023   8.157  15.742   8.549 -0.0504  0.1541 -0.1170
65160W        W66024   9.233  17.350   8.330 -0.2676  0.0995  0.0421
65161W        W66025   8.267  16.482   7.064 -0.0989 -0.1916  0.2199
65162W        W66026   8.133  17.402   9.887  0.1298 -0.2526  0.0526
65163W        W66027   8.630  14.750  11.766 -0.2922 -0.0314  0.0550
65164W        W66028   8.117  14.669  11.816 -0.2530 -0.0712 -0.1213
65165W        W66029  10.168  14.629  11.004 -0.3156  0.2373 -0.0869
65166W        W66030   9.468  15.847   7.432  0.2551 -0.2388 -0.0538
65167W        W66031  10.170  16.008   7.522  0.1581  0.0429  0.1552
65168W        W66032   5.490  14.682   9.006 -0.1036 -0.1626 -0.0132
65169W        W66033   7.346  14.599   8.179  0.2114 -0.1651  0.0709
65170W        W66034  13.653  16.822  10.047 -0.2921 -0.0238  0.1847
65171W        W66035   6.161  16.848   3.042 -0.4058  0.1403 -0.0127
65172W        W66036  12.149  15.788   9.234  0.1699  0.1104  0.0860
65173W        W66037   8.169  16.120   5.956  0.1176 -0.0509  0.0473
65174W        W66038   7.968  12.116   7.133 -0.0030 -0.0009  0.5816
65175W        W66039   8.903  14.949  11.394 -0.1326 -0.0672 -0.0993
65176W        W66040   5.737  14.559   9.442 -0.0834  0.2356  0.2071
65177W        W66041   6.344  16.591   9.418 -0.1583 -0.1354 -0.1297
65178W        W66042  10.327  15.776   9.072  0.0657 -0.0327  0.1313
65179W        W66043   7.287  18.490   5.921  0.3157  0.0215 -0.1647
65180W        W66044   6.147  17.267   4.486 -0.1913 -0.1718 -0.0727
65181W        W66045   8.770  16.373   8.889  0.1462  0.0559  0.0384
65182W        W66046   8.696  14.878   9.841  0.1203 -0.0220  0.0868
65183W        W66047   8.144  15.107   7.907  0.2901 -0.0375 -0.0187
65184W        W66048  12.175  12.447   8.233 -0.2560 -0.3213 -0.2625
65185W        W66049  11.377  17.269   9.000  0.2068  0.0834  0.2332
65186W        W66050  10.001  12.911   7.662  0.2504  0.0894 -0.2256
65187W        W66051  10.395  16.294   8.905  0.1650  0.3808 -0.1383
65188W        W66052  10.533  17.368   7.234  0.3418 -0.0345 -0.0903
65189W        W66053  10.954  15.602  11.755  0.0103 -0.2260 -0.4634
65190W        W66054   8.638  18.459   9.399  0.2329 -0.0912  0.2314
65191W        W66055  13.035  15.522  12.366 -0.1605 -0.0976  0.3108
65192W        W66056  11.032  16.467  10.234 -0.1907 -0.2363 -0.3534
65193W        W66057  10.849  16.768  11.653 -0.2458  0.1218  0.1359
65194W        W66058   8.860  13.289   8.281  0.0494 -0.0811  0.1346
65195W        W66059  11.698  17.516   6.819  0.1335 -0.0207 -0.0381
65196W        W66060   8.741  18.017   8.546 -0.1981 -0.2574 -0.3618
65197W        W66061  10.248  17.583  11.390  0.1740 -0.1609  0.2261
65198W        W66062   9.703  14.120  12.486  0.1097  0.1132  0.2162
65199W        W66063  11.225  19.096   8.563  0.0991 -0.0434 -0.0619
65200W        W66064   9.059  19.476  10.334  0.3015 -0.0358  0.0595
65201W        W66065  10.495  18.801  10.294 -0.1575 -0.0128  0.0447
65202W        W66066  13.436  15.510   9.859  0.0075 -0.0688 -0.2691
65203W        W66067   8.574  16.535   8.457 -0.0934  0.1161 -0.1096
65204W        W66068  11.836  15.516   9.547 -0.1040  0.1902  0.1495
65205W        W66069   9.557  16.962   8.556  0.0466 -0.0346  0.0530
65206W        W66070   9.725  18.344   7.395  0.1078 -0.0972 -0.1231
65207W        W66071  11.455  18.814   8.982  0.1434  0.1676 -0.0521
65208W        W66072  10.663  14.767   9.762  0.1152 -0.2678  0.0855
65209W        W66073  10.481  15.600  11.757  0.2006  0.1007  0.2365
65210W        W66074  12.551  19.888   8.211 -0.2690  0.2465 -0.0335
65211W        W66075  11.063  18.766   7.195 -0.0375 -0.1132  0.0835
65212W        W66076   6.119  16.255  10.496  0.2345  0.0603  0.0278
65213W        W66077  10.458  13.585   8.428  0.1593  0.0054  0.2530
65214W        W66078   9.426  12.618   8.452  0.2182  0.2260 -0.1107
65215W        W66079  11.914  15.440  10.681 -0.1036  0.0592  0.1278
65216W        W66080  10.549  17.338   8.418  0.1791  0.0590  0.0311
65217W        W66081  10.789  14.824   6.667  0.1740 -0.0264 -0.0472
65218W        W66082   7.854  18.658   9.963  0.3385 -0.1132 -0.1751
65219W        W66083  13.707  18.751   7.791  0.0203 -0.2360 -0.1019
65220W        W66084   9.422  14.778   7.509 -0.1992 -0.1206 -0.1526
65221W        W66085   8.025  15.411   9.426 -0.0865 -0.0038 -0.1983
65222W        W66086  10.910  17.320  10.300 -0.2346 -0.1586  0.1235
65223W        W66087  10.891  17.212   8.823  0.0220 -0.4043  0.1442
65224W        W66088  10.049  16.901  10.219 -0.0247  0.0634 -0.0846
65225W        W66089   4.722  15.866   8.034 -0.2807  0.0462  0.1588
65226W        W66090  10.627  16.784   9.568 -0.1398 -0.1552  0.0960
65227W        W66091  12.698  13.593   9.347 -0.2956  0.0631  0.2496
65228W        W66092   9.203  13.980  11.536  0.1853 -0.0590 -0.1923
65229W        W66093   9.998  18.645   7.123  0.0938  0.1604 -0.0264
65230W        W66094  13.884  15.792  10.258 -0.0301  0.0730  0.1478
65231W        W66095   7.301  16.216   6.281  0.0205 -0.2380 -0.1823
65232W        W66096  11.817  16.471   9.557  0.0452  0.1857 -0.1577
65233W        W66097   9.399  15.025   9.052  0.0402 -0.2708  0.1750
65234W        W66098   8.058  16.929   9.591 -0.0148 -0.1646 -0.0650
65235W        W66099   7.485  16.685  10.734 -0.1720  0.0950 -0.0199
65236W        W66100   8.616  16.436  11.764  0.2640  0.0350 -0.0728
65237W        W66101   8.991  12.286   6.972  0.0533  0.4731  0.0481
65238W        W66102  11.142  18.018   9.452 -0.1675  0.0647 -0.3450
65239W        W66103  10.225  15.469   8.574 -0.0421 -0.0722 -0.0748
65240W        W66104  12.771  16.609   9.501  0.2323 -0.0716 -0.0762
65241W        W66105  11.198  16.068   9.444  0.3323  0.0677 -0.0916
65242W        W66106   9.064  15.403   7.788 -0.0179 -0.1215 -0.1032
65243W        W66107   9.959  15.941  11.522  0.2557  0.1071  0.0056
65244W        W66108   6.367  15.512   8.112 -0.1130  0.0275  0.0008
65245W        W66109  10.776  19.750   9.749  0.0751 -0.0133 -0.2227
65246W        W66110  13.992  17.504   9.054 -0.0554  0.1771  0.2081
65247W        W66111   6.201  15.437  11.722  0.1012 -0.0044  0.1682
65248W        W66112   8.670  13.283  10.239 -0.2451  0.1850  0.1734
65249W        W66113  10.883  15.852   5.744 -0.1132  0.0522  0.1277
65250W        W66114   6.368  19.870   9.808  0.0483 -0.1233  0.1153
65251W        W66115   7.669  15.816   6.136 -0.3285 -0.0087  0.0529
65252W        W66116   6.714  16.510   5.184 -0.0186 -0.0017 -0.3449
65253W        W66117   7.335  12.932   7.299 -0.2442 -0.1819 -0.5193
65254W        W66118   8.160  17.254   7.544  0.2190  0.0844  0.1884
65255W        W66119  10.850  17.827   7.038  0.0936 -0.1045  0.0477
65256W        W66120  14.149  13.872  10.884 -0.2306 -0.1320 -0.0319
65257W        W66121  14.455  18.214   8.087 -0.3096  0.6600 -0.1688
65258W        W66122  10.078  12.514  12.089 -0.1865  0.3151 -0.0432
65259W        W66123  13.663  16.139   8.764  0.1371 -0.1483  0.0550
65260W        W66124   8.462  16.868   7.293 -0.0256 -0.0349  0.0881
65261W        W66125   8.966  14.148   8.580  0.0278  0.0981  0.0312
65262W        W66126  11.769  16.225   8.591 -0.1226  0.0825  0.0332
65263W        W66127   8.664  15.369  11.153  0.1580  0.0916 -0.0928
65264W        W66128   7.452  13.658   8.778  0.1330  0.1670 -0.4823
65265W        W66129   6.620  16.458  10.519  0.0606  0.3713 -0.1093
65266W        W66130  13.593  16.341  10.156  0.0580 -0.0515  0.2005
65267W        W66131   8.697  15.555  10.017 -0.0843  0.0022 -0.0084
65268W        W66132  10.902  17.309  10.841 -0.1297  0.0942 -0.3078
65269W        W66133  11.563  17.894  11.836  0.0307  0.0920  0.0460
65270W        W66134   8.358  15.027   6.799  0.2734 -0.2748 -0.1101
65271W        W66135  10.131  14.234   5.486 -0.1295  0.0735 -0.0220
65272W        W66136   8.888  14.222   9.680  0.0897 -0.0371 -0.1613
65273W        W66137   9.146  16.607  11.844 -0.1366 -0.1181 -0.2563
65274W        W66138  10.393  15.049   6.992  0.0007  0.2042  0.2135
65275W        W66139  10.085  18.426   8.353  0.1069 -0.2140 -0.1276
65276W        W66140   9.999  17.450   9.715  0.0383  0.1708 -0.1799
65277W        W66141  10.448  18.448  12.304  0.4143  0.0317 -0.1078
65278W        W66142   9.879  15.620   8.969 -0.3020  0.1225  0.1522
65279W        W66143   9.892  16.226   8.358  0.0304  0.0153  0.1377
65280W        W66144   7.071  16.351  10.871  0.1677  0.1672  0.3073
65281W        W66145   9.501  14.384   6.419  0.1805  0.2613 -0.0272
65282W        W66146  10.314  16.387   9.438 -0.0153 -0.2448 -0.0410
65283W        W66147  10.477  17.802   9.151  0.2153  0.1547  0.1453
65284W        W66148   9.339  19.150   6.775 -0.0900  0.1057 -0.0153
65285W        W66149   9.811  18.428  11.312 -0.2552  0.4386  0.1047
65286W        W66150  10.373  17.309   8.942  0.0490 -0.2488 -0.0565
65287W        W66151  11.090  12.206  10.832  0.0433 -0.1647 -0.0969
65288W        W66152   9.961  16.177   9.180  0.1278 -0.0487  0.1254
65289W        W66153   6.832  17.040   9.288  0.4248 -0.0602  0.0448
65290W        W66154   6.546  14.846   7.633 -0.1150 -0.0333 -0.1201
65291W        W66155   7.607  18.551   7.348  0.1031 -0.1663 -0.0810
65292W        W66156  11.885  17.617  10.301  0.3569  0.0395 -0.2401
65293W        W66157   8.301  17.989  11.830 -0.2423  0.0158  0.1554
65294W        W66158   7.026  18.829   8.391  0.2049 -0.2704 -0.2663
65295W        W66159   8.561  14.950   7.655  0.1324 -0.1174 -0.1751
65296W        W66160   8.177  20.124  11.698  0.0023 -0.0366 -0.0016
65297W        W66161  11.108  14.201   8.525 -0.1912  0.1870  0.5092
65298W        W66162   4.846  16.572   7.261 -0.0758  0.0028 -0.0771
65299W        W66163   7.418  14.664   4.939 -0.2885  0.0343  0.1933
65300W        W66164   8.721  14.600   8.620 -0.3128 -0.1408 -0.0184
65301W        W66165  12.190  15.711  12.772  0.1461 -0.0303  0.1261
65302W        W66166   9.901  15.128   8.275  0.4489 -0.1677 -0.3092
65303W        W66167  12.083  17.059  11.654 -0.3344  0.0131  0.0739
65304W        W66168   9.480  15.862  11.704  0.0501  0.0049  0.3084
65305W        W66169  12.584  15.342  12.014  0.3039  0.0818 -0.1545
65306W        W66170  10.865  18.233  12.453 -0.1336 -0.1606  0.0085
65307W        W66171   5.203  14.744   9.390  0.1589 -0.2121  0.0930
65308W        W66172  11.182  15.769   9.857  0.3716  0.1518  0.0318
65309W        W66173   9.385  15.980   8.312 -0.0137  0.0738 -0.3856
65310W        W66174  10.034  14.806   6.705 -0.1600 -0.0183 -0.0503
65311W        W66175   7.749  16.376   8.709 -0.0026  0.3204 -0.0958
65312W        W66176  11.724  14.013   9.500 -0.0684 -0.0449  0.1306
65313W        W66177   9.264  16.172   7.785 -0.2129  0.0841  0.0628
65314W        W66178   9.752  16.634   6.080 -0.2716 -0.0207  0.2206
65315W        W66179  10.232  14.426   8.862 -0.1452 -0.0704 -0.2069
65316W        W66180   7.350  18.183   6.815  0.1562  0.0566  0.2168
65317W        W66181   8.731  14.109   7.320 -0.1013  0.0054  0.3476
65318W        W66182   7.908  13.409   8.718 -0.0669  0.1586 -0.2578
65319W        W66183   9.558  17.762   9.611  0.1766 -0.0724  0.1838
65320W        W66184   6.857  14.376   7.389 -0.1285  0.0942  0.1479
65321W        W66185   9.432  14.018   8.389 -0.2189  0.2082 -0.2307
65322W        W66186   9.336  18.783  11.457  0.0113 -0.2436  0.2321
65323W        W66187  14.768  19.509   9.857 -0.0473  0.1024 -0.1650
65324W        W66188   8.991  16.472   9.286 -0.1134 -0.0514  0.1382
65325W        W66189   7.982  19.004   6.062 -0.0950 -0.0049  0.0752
65326W        W66190  10.217  12.989   9.505  0.0832  0.1427  0.0918
65327W        W66191   9.075  16.035   8.686  0.3886 -0.2638  0.1894
65328W        W66192  12.299  16.710   9.712 -0.0764  0.0797 -0.0421
65329W        W66193  10.095  15.118  11.069  0.0609  0.0562  0.2186
65330W        W66194   6.809  14.582   8.027 -0.0755  0.0199  0.0854
65331W        W66195  10.123  13.072   7.237 -0.2770 -0.1814  0.0093
65332W        W66196   9.868  17.631  13.538 -0.0626 -0.0623  0.0199
65333W        W66197  10.056  15.596   7.924  0.4397 -0.0685  0.1965
65334W        W66198  10.012  14.138  10.124  0.0827 -0.0753 -0.0891
65335W        W66199   9.562  16.198  10.339 -0.0449 -0.2247  0.2239
65336W        W66200  10.915  15.269   9.855 -0.4279 -0.3190  0.0065
65337W        W66201  15.027  18.237   7.552 -0.3094  0.0832 -0.1244
65338W        W66202   9.583  18.290   8.120 -0.2435  0.1834 -0.1278
65339W        W66203   8.875  12.532   8.865  0.0901 -0.0789 -0.1606
65340W        W66204  12.443  15.256  10.653 -0.3022 -0.1556  0.0068
65341W        W66205   8.393  18.050   4.383  0.0517  0.1130  0.0625
65342W        W66206   9.710  16.479   7.016 -0.0927 -0.2635 -0.0980
65343W        W66207  10.453  16.133   9.932 -0.3533 -0.1017  0.2886
65344W        W66208  11.624  17.210  12.856  0.0437 -0.0927 -0.0499
65345W        W66209  12.866  19.228   7.279  0.0662 -0.1127  0.1312
65346W        W66210  10.119  15.277  10.510  0.2721 -0.0971  0.0986
65347W        W66211  11.263  13.906  10.777 -0.4121 -0.1641 -0.2276
65348W        W66212  10.821  16.430   8.671 -0.0167  0.1272  0.0157
65349W        W66213   8.259  15.968  11.926  0.1147 -0.0521 -0.0748
65350W        W66214   9.417  16.709   9.034 -0.0803  0.2601 -0.0570
65351W        W66215   9.837  15.480  10.900  0.3486 -0.0477 -0.1382
65352W        W66216   8.537  14.741   8.131 -0.0766 -0.0562 -0.2007
65353W        W66217   8.857  16.669  11.398 -0.0702 -0.1332 -0.2485
65354W        W66218   9.106  16.834  10.188 -0.4112  0.0198 -0.0126
65355W        W66219  10.129  16.324  11.259  0.0812  0.1222  0.0918
65356W        W66220  11.393  16.366   9.887  0.0576 -0.2952  0.1370
65357W        W66221  10.093  15.968   8.698  0.0619  0.0349  0.2891
65358W        W66222   9.757  16.078   6.174 -0.0102 -0.0461  0.1299
65359W        W66223   6.134  15.597  10.352  0.0348  0.0681  0.0287
65360W        W66224  11.114  18.214   7.450 -0.2385  0.0342  0.0083
65361W        W66225  10.517  18.479  11.584 -0.0273 -0.5320 -0.2598
65362W        W66226   7.951  17.691   7.460  0.2100  0.0193  0.2999
65363W        W66227  10.600  15.582   8.190 -0.0143 -0.1417  0.1308
65364W        W66228   7.579  19.872   7.110  0.0182 -0.1876 -0.1221
65365W        W66229   9.710  14.497   9.662 -0.1301 -0.0095 -0.1637
65366W        W66230   8.769  17.246  11.471 -0.0991 -0.3316  0.2952
65367W        W66231  10.164  17.860   9.934 -0.0392  0.2263  0.2198
65368W        W66232   6.578  16.951   7.070  0.0921  0.2407  0.0747
65369W        W66233   9.545  19.027   8.665  0.1094 -0.2236 -0.0456
65370W        W66234   6.539  17.492   6.021 -0.1518 -0.0126 -0.2720
65371W        W66235   8.657  19.770  14.164  0.3155 -0.1181  0.0856
65372W        W66236   5.775  17.094  14.195  0.2485  0.1660 -0.3353
65373W        W66237  10.070  16.646  13.829 -0.0675  0.2647  0.1132
65374W        W66238   9.045  20.236  12.992 -0.0997 -0.0497  0.1026
65375W        W66239   9.716  16.316  11.727  0.2428  0.1357 -0.2670
65376W        W66240   7.429  15.179  10.073  0.1328 -0.2612  0.1821
65377W        W66241   8.088  14.597  13.831 -0.1538 -0.1811 -0.0254
65378W        W66242   8.337  17.682  12.191 -0.2673 -0.3311 -0.1573
65379W        W66243   6.738  14.352  14.791  0.3345  0.0389  0.2143
65380W        W66244   8.723  17.022  15.213  0.1592 -0.4373  0.0291
65381W        W66245   5.667  12.708  13.478 -0.0091 -0.3634  0.1026
65382W        W66246   8.251  13.598  13.698 -0.2170  0.0860  0.1078
65383W        W66247  11.431  15.843  12.722  0.0359 -0.3343  0.4051
65384W        W66248  10.817  17.677  12.086  0.0532  0.0028  0.2359
65385W        W66249   6.388  12.545  12.516  0.2439  0.1083  0.3346
65386W        W66250   8.072  17.552  14.254 -0.0883 -0.2780 -0.0501
65387W        W66251   6.324  17.374  12.124  0.0433  0.3084 -0.1634
65388W        W66252   6.932  16.194  15.536  0.0789 -0.0106  0.0570
65389W        W66253   9.570  17.974  16.906 -0.0662 -0.2687 -0.0449
65390W        W66254  11.032  15.578  10.299 -0.2306  0.0315  0.3106
65391W        W66255  10.852  18.612  12.032 -0.1826 -0.3159  0.1195
65392W        W66256   8.721  16.101  12.870 -0.1749  0.0876  0.3054
65393W        W66257   8.290  18.729  12.609  0.2921  0.1906  0.1120
65394W        W66258   7.371  15.858  12.510  0.0563  0.0304 -0.3194
65395W        W66259   6.409  16.178  14.210 -0.0451  0.3036  0.3925
65396W        W66260   7.290  16.733  15.614 -0.2542 -0.1466 -0.4083
65397W        W66261   9.352  17.473  15.241  0.1398 -0.2395 -0.1814
65398W        W66262   6.388  15.480  12.677  0.1099 -0.0637  0.0552
65399W        W66263  11.406  17.593  16.606  0.2127 -0.0055 -0.0871
65400W        W66264   8.675  16.247  14.745  0.2412  0.0222 -0.3198
65401W        W66265   8.541  16.802  14.257 -0.2438 -0.2677  0.0977
65402W        W66266   9.123  17.095  14.668  0.1878  0.2359  0.2983
65403W        W66267   8.923  14.263  14.789  0.0589 -0.0764 -0.0289
65404W        W66268   8.913  18.888  11.080 -0.2003  0.3793 -0.2246
65405W        W66269   8.849  13.705  12.508 -0.3754  0.0865  0.1099
65406W        W66270  10.894  18.201  14.748 -0.4447 -0.5218 -0.1394
65407W        W66271   9.864  12.173  11.813 -0.0179  0.2011  0.1534
65408W        W66272   8.304  16.202  12.367  0.1796 -0.1611  0.3282
65409W        W66273  10.371  19.116  13.864  0.0842  0.1141 -0.1098
65410W        W66274   8.013  16.502  14.117 -0.1598  0.0042 -0.1689
65411W        W66275  13.520  14.820  12.299  0.1402  0.2287 -0.1596
65412W        W66276  13.140  14.799  14.700  0.0348 -0.1677  0.0543
65413W        W66277   9.061  18.502  14.369 -0.1308  0.0866 -0.4837
65414W        W66278  11.040  13.745  12.028 -0.2745 -0.2868 -0.2216
65415W        W66279   4.463  14.645  12.274  0.0939  0.3825  0.0612
65416W        W66280   6.786  18.670  11.804 -0.2939  0.0198 -0.3674
65417W        W66281  11.165  12.084  14.829 -0.1070  0.1202 -0.0008
65418W        W66282   9.381  17.661  13.232 -0.2356 -0.0721  0.2298
65419W        W66283   7.692  15.091  15.470 -0.0776 -0.0589  0.2603
65420W        W66284  11.104  14.076  12.396 -0.2174  0.1451 -0.4329
65421W        W66285   6.380  18.042  14.405 -0.1166 -0.1633  0.1111
65422W        W66286   5.969  15.041  12.626  0.0914 -0.0499 -0.0402
65423W        W66287   7.941  18.073  14.274  0.2590  0.0613  0.0024
65424W        W66288   9.359  15.880  10.658 -0.0580  0.1672  0.0336
65425W        W66289   9.083  14.935  11.894 -0.1386 -0.0591  0.1061
65426W        W66290   6.032  20.216  11.844  0.0884 -0.2599 -0.0275
65427W        W66291   9.594  14.474  12.923  0.0102 -0.1346  0.3128
65428W        W66292   8.882  17.062  12.642 -0.0994  0.0660 -0.2917
65429W        W66293   6.119  20.045  13.647 -0.2786 -0.0473 -0.0144
65430W        W66294   7.830  17.794   9.667 -0.0195  0.2445  0.1669
65431W        W66295   9.368  17.409  11.865  0.0245 -0.4078  0.2358
65432W        W66296   4.710  17.078  12.055 -0.0854  0.1854 -0.0402
65433W        W66297   8.589  14.117  15.203  0.0171  0.2049  0.1598
65434W        W66298   8.850  18.139  13.163  0.0001  0.0480 -0.2315
65435W        W66299   8.928  14.826  17.260 -0.1584 -0.0541 -0.2333
65436W        W66300  13.734  15.074  11.314  0.2141  0.1811 -0.1538
65437W        W66301   9.549  16.022   8.898  0.4663  0.3026  0.0420
65438W        W66302   7.079  16.680  10.415 -0.3437  0.0083 -0.1932
65439W        W66303   6.496  16.449  12.568  0.1126  0.1454  0.0537
65440W        W66304   8.454  20.625  14.006 -0.0762 -0.0490  0.2133
65441W        W66305  11.300  17.496  13.170  0.1866 -0.1096 -0.2281
65442W        W66306   8.264  17.015  13.369  0.2172 -0.0856 -0.0302
65443W        W66307   9.162  19.629   9.015  0.1103  0.1189 -0.0593
65444W        W66308   9.767  16.172  14.000  0.0208  0.4517 -0.0120
65445W        W66309  10.940  15.212  15.780 -0.0515 -0.0724 -0.1702
65446W        W66310   7.236  18.482  15.743 -0.2600  0.0681 -0.2970
65447W        W66311   4.065  16.500  15.558  0.2332  0.1368  0.2776
65448W        W66312   7.347  17.412  13.788 -0.3997 -0.2178 -0.0723
65449W        W66313   8.786  15.257  13.683 -0.0242  0.1710  0.3534
65450W        W66314  10.211  19.579  13.609  0.0782  0.3053 -0.2231
65451W        W66315   9.691  15.348  13.442 -0.0334 -0.0028  0.0018
65452W        W66316   7.895  12.613  17.902 -0.1036  0.2673 -0.3533
65453W        W66317   7.285  17.669  12.780  0.0978 -0.0466  0.0493
65454W        W66318   6.276  17.457  11.101  0.4589  0.2458  0.0691
65455W        W66319   9.855  16.208  12.516 -0.1563 -0.3468 -0.1540
65456W        W66320   6.802  14.849  11.855  0.3997 -0.2341  0.0188
65457W        W66321  12.211  17.072  12.214  0.2426  0.3835  0.1917
65458W        W66322  11.010  15.124  15.330  0.3586  0.1954  0.0368
65459W        W66323  11.697  21.767  13.428  0.0282  0.2542 -0.1880
65460W        W66324  11.313  16.778  15.647 -0.0808 -0.1228 -0.3531
65461W        W66325  10.905  13.042  10.016  0.1511 -0.1138  0.0235
65462W        W66326  11.004  16.339  15.756 -0.2474  0.0007  0.1784
65463W        W66327   7.470  18.389  13.819  0.2631  0.0345 -0.0182
65464W        W66328  11.039  16.443  13.458 -0.0092 -0.0506 -0.1599
65465W        W66329   7.042  13.945  13.197 -0.0560  0.2199 -0.0635
65466W        W66330  14.145  13.606  11.855  0.0348  0.1923  0.1940
65467W        W66331  10.202  18.691  13.943  0.0046  0.2889  0.2235
65468W        W66332   8.779  17.622  13.320 -0.2283  0.0449 -0.1463
65469W        W66333   8.742  15.284  11.723  0.1074  0.3697 -0.2555
65470W        W66334  11.121  14.279  11.966 -0.4076  0.0354  0.0210
65471W        W66335  12.023  15.664   6.931  0.4812  0.0120 -0.2326
65472W        W66336   4.292  14.415  11.749 -0.1872  0.1695 -0.4371
65473W        W66337   9.814  13.759  12.182 -0.0203 -0.3063  0.1415
65474W        W66338  10.642  16.624  12.116  0.0301  0.0185  0.1502
65475W        W66339   8.203  14.224  12.608 -0.0151 -0.1514 -0.1223
65476W        W66340   7.363  19.203  14.093 -0.0025 -0.0869  0.0758
65477W        W66341  10.124  18.249  13.648 -0.4620  0.1326  0.0443
65478W        W66342   8.962  16.496  15.377 -0.0306 -0.2421 -0.0697
65479W        W66343   9.717  17.118  13.891  0.2265 -0.1336 -0.0647
65480W        W66344   6.654  15.860  13.874  0.0666  0.0839  0.2199
65481W        W66345   6.687  18.043  13.994  0.1521  0.1337 -0.0688
65482W        W66346   8.734  19.873  11.703 -0.0505  0.2645 -0.1151
65483W        W66347  10.403  15.652  13.965 -0.0331  0.3581 -0.2782
65484W        W66348  11.138  17.963  12.853  0.2749 -0.1036 -0.0029
65485W        W66349  10.417  15.660  12.249 -0.1652 -0.3148  0.0498
65486W        W66350   8.640  18.985  12.024  0.1569 -0.2276 -0.1249
65487W        W66351   9.561  18.038  11.451 -0.2024 -0.0067 -0.1407
65488W        W66352   7.720  16.817  14.642  0.0724 -0.0035 -0.0451
65489W        W66353   7.596  17.318  14.439 -0.0935  0.2129  0.3387
65490W        W66354  11.114  15.914  10.704  0.1202  0.4573 -0.0808
65491W        W66355  10.956  14.298  10.496  0.2592 -0.1006  0.1667
65492W        W66356   9.104  19.088  11.763 -0.1007  0.2578  0.0413
65493W        W66357   9.355  15.309  13.007  0.0541 -0.1198 -0.1072
65494W        W66358   9.591  17.611  12.788 -0.0704 -0.2561  0.0704
65495W        W66359   8.682  18.291  11.425  0.0560  0.4268  0.0753
65496W        W66360  10.901  15.624  13.425 -0.0677  0.0912 -0.3001
65497W        W66361   8.054  16.047  11.393  0.0141 -0.2398 -0.2398
65498W        W66362   9.847  20.778  12.846 -0.0001 -0.1176  0.1568
65499W        W66363  10.694  18.854  14.184 -0.0187  0.2204  0.0125
65500W        W66364   7.306  18.064  12.435  0.0978 -0.1018  0.0674
65501W        W66365   8.717  19.165  12.923 -0.2563  0.0159 -0.0346
65502W        W66366   9.227  17.673  12.297 -0.1391 -0.0461  0.0498
65503W        W66367   6.652  19.302  13.642  0.1066  0.2868  0.3736
65504W        W66368  12.730  15.294  11.059  0.1078 -0.2555 -0.2152
65505W        W66369  10.027  17.877  14.002 -0.1094 -0.2447 -0.2005
65506W        W66370   5.647  14.977  14.413 -0.1479 -0.2093  0.0902
65507W        W66371   8.751  17.596  12.576 -0.0716 -0.1069 -0.0260
65508W        W66372  10.342  17.436  15.143 -0.0047 -0.1888  0.3576
65509W        W66373   6.438  18.076   8.762 -0.0963  0.4079  0.1598
65510W        W66374   8.333  19.618  11.709  0.2352 -0.0160  0.2963
65511W        W66375  11.108  16.415  11.996 -0.2924  0.1617 -0.0793
65512W        W66376  10.008  16.696  11.831  0.2329 -0.1765  0.1381
65513W        W66377   6.994  17.948  11.832  0.2338  0.0976 -0.0040
65514W        W66378   9.389  16.723  11.060  0.0954 -0.3989  0.0351
65515W        W66379  10.963  17.607  17.800  0.0411  0.1695 -0.0640
65516W        W66380   8.942  14.413  12.144  0.1295  0.2575  0.0291
65517W        W66381   9.727  15.893   9.966 -0.1987 -0.0335  0.1030
65518W        W66382  11.807  19.069  12.988 -0.1872 -0.3337 -0.1267
65519W        W66383   7.929  18.249  13.677  0.1725  0.1140  0.0900
65520W        W66384   7.686  17.554  12.497 -0.1004  0.4810  0.1240
65521W        W66385  10.046  19.624  11.757  0.0239  0.1506 -0.2453
65522W        W66386   6.902  15.205  13.940 -0.2084  0.3223  0.0272
65523W        W66387   9.574  17.220  13.325 -0.1598 -0.2013 -0.3716
65524W        W66388   7.196  17.896  13.995 -0.0260 -0.2337 -0.3338
65525W        W66389   9.977  17.910  12.916 -0.0193 -0.2027 -0.1387
65526W        W66390   9.407  15.785  14.164  0.1888 -0.1021  0.1513
65527W        W66391   7.562  19.024  16.031  0.1661 -0.2848  0.0764
65528W        W66392   9.007  16.371  10.372 -0.0890 -0.2452 -0.0001
65529W        W66393   9.177  15.905  12.160  0.0414 -0.0210  0.2648
65530W        W66394   9.460  18.130  10.959  0.3475  0.4434  0.2017
65531W        W66395   7.359  17.781  14.444  0.1795 -0.0853  0.2464
65532W        W66396   8.786  18.611  12.942  0.2630 -0.0931 -0.1240
65533W        W66397   7.724  18.073  12.733  0.0027 -0.0703 -0.0542
65534W        W66398  10.978  17.659  13.607 -0.2542  0.2378  0.1101
65535W        W66399   9.612  16.560  16.526  0.0620 -0.0909 -0.0753
65536W        W66400   6.627  16.901  10.264 -0.2155  0.1320 -0.2541
65537W        W66401   8.305  18.096  15.245  0.1607  0.1665  0.3339
65538W        W66402   9.606  15.426  11.497  0.1056  0.1871 -0.0771
65539W        W66403   9.265  20.733  14.749 -0.2561  0.1840 -0.2452
65540W        W66404   7.893  18.208   8.585  0.2592  0.3442 -0.1264
65541W        W66405   7.086  18.768  10.891 -0.0406  0.1529 -0.0455
65542W        W66406   8.944  15.173  12.753  0.3571  0.2452 -0.0259
65543W        W66407   9.237  17.673  14.702 -0.0700  0.1169  0.0564
65544W        W66408   9.577  17.160  11.136  0.2060 -0.0500 -0.3587
65545W        W66409   9.097  16.645  12.426 -0.1351 -0.0319  0.0732
65546W        W66410  14.573  14.490  12.091  0.1747  0.2061 -0.1273
65547W        W66411   7.973  19.121  14.380  0.0792  0.0005 -0.0472
65548W        W66412   6.678  16.919  11.802 -0.2146  0.4075 -0.2624
65549W        W66413   6.771  17.801  11.220 -0.0172  0.2302 -0.0562
65550W        W66414  10.124  13.777  14.458 -0.0131 -0.1303 -0.3241
65551W        W66415   7.304  16.355   9.494  0.0492  0.0897  0.1675
65552W        W66416   9.318  17.013  12.220  0.2380 -0.3688 -0.0165
65553W        W66417   8.085  15.431  12.982 -0.2367  0.0981  0.0225
65554W        W66418   7.822  16.544  12.882 -0.2552 -0.2313 -0.2405
65555W        W66419  10.916  15.950   8.087 -0.1502 -0.0689 -0.0518
65556W        W66420  10.624  17.208  15.575 -0.2318 -0.0233 -0.1119
65557W        W66421  12.439  16.871  10.676 -0.1202 -0.1702 -0.2654
65558W        W66422   8.735  15.850  12.460  0.1650  0.0206 -0.2604
65559W        W66423   7.978  17.231  16.333 -0.4103 -0.0884 -0.1064
65560W        W66424  10.127  16.715  12.571 -0.0052  0.1179  0.0891
65561W        W66425   9.817  15.719  10.411  0.1698  0.0320 -0.1055
65562W        W66426   8.416  17.624  10.633 -0.0871 -0.1434  0.0687
65563W        W66427   9.971  17.027  14.581 -0.2142 -0.0654 -0.0765
65564W        W66428   8.322  17.357  11.799 -0.2826  0.1943 -0.5729
65565W        W66429   8.955  16.177  13.946  0.2779  0.1538 -0.3358
65566W        W66430   8.792  14.186  12.584 -0.0506  0.1151 -0.1241
65567W        W66431   8.736  15.300   9.595 -0.3145 -0.1612 -0.1218
65568W        W66432   8.554  17.298  12.984 -0.2092  0.1613 -0.0799
65569W        W66433   9.575  18.871  11.833  0.0229 -0.1339 -0.0283
65570W        W66434  10.247  17.597  15.616 -0.0677  0.2013  0.1791
65571W        W66435   8.192  17.114  11.315 -0.2474  0.2841 -0.1542
65572W        W66436  10.400  16.402  11.716  0.0954  0.2217 -0.2439
65573W        W66437  12.674  14.892  12.117 -0.3527  0.0809  0.0844
65574W        W66438   6.378  15.663  14.374  0.0491  0.0823 -0.0760
65575W        W66439   8.514  16.548  13.804 -0.0738 -0.0313 -0.1528
65576W        W66440   8.742  14.951  12.217  0.2764 -0.1755 -0.0520
65577W        W66441   6.808  16.737  15.366 -0.1465 -0.4963 -0.0141
65578W        W66442  10.379  18.248  14.872 -0.0219  0.0360  0.0370
65579W        W66443   8.322  18.830  13.086  0.2137 -0.1930 -0.1386
65580W        W66444   5.833  17.188  11.053  0.3584 -0.4111 -0.0369
65581W        W66445   9.138  19.232  15.068  0.1400  0.3645  0.2574
65582W        W66446   7.483  19.068  14.590  0.0754 -0.1599  0.1774
65583W        W66447   8.076  17.760  13.767  0.1386  0.1133  0.2746
65584W        W66448   8.396  17.310  13.745 -0.0180  0.0548 -0.0276
65585W        W66449  10.154  17.893  15.179  0.1741 -0.2116  0.0708
65586W        W66450   9.807  18.932  10.456  0.0977 -0.1569  0.2806
65587W        W66451  10.365  16.242  10.811  0.1692  0.3120 -0.2544
65588W        W66452   9.440  16.394  12.163  0.2055  0.2364  0.1401
65589W        W66453  10.870  17.504  12.574  0.1849  0.4888  0.3936
65590W        W66454   7.670  14.994  14.500 -0.1683  0.2172  0.1185
65591W        W66455  12.278  16.005  10.219  0.0934  0.1641 -0.0235
65592W        W66456  11.342  17.881  12.328  0.0106  0.0801  0.1294
65593W        W66457   7.903  18.856  14.893  0.0124  0.1198 -0.2084
65594W        W66458  11.554  16.731  11.102 -0.1252 -0.1619 -0.0915
65595W        W66459  10.099  15.539   9.876  0.0157  0.0403 -0.1909
65596W        W66460  11.370  14.285  12.824 -0.2967  0.1215  0.1394
65597W        W66461   8.777  18.006  14.879  0.5438 -0.0962 -0.1143
65598W        W66462  10.981  14.509  12.555 -0.2760 -0.1759  0.1187
65599W        W66463   9.903  15.478  11.907 -0.3417 -0.0476  0.0162
65600W        W66464  12.265  20.364  14.518  0.0204 -0.2532  0.3070
65601W        W66465   7.919  16.810  13.672 -0.0259  0.2194 -0.1054
65602W        W66466   8.885  16.692  14.901 -0.2825  0.0024  0.0964
65603W        W66467   6.655  17.095  14.037  0.4002  0.1296 -0.0059
65604W        W66468  12.105  16.941  12.685 -0.2454  0.3450 -0.1957
65605W        W66469   7.472  15.329  12.369 -0.0282 -0.2724  0.1217
65606W        W66470   9.237  17.032  11.524  0.1684 -0.2210  0.0463
65607W        W66471  12.102  17.551  12.662 -0.0888  0.0004 -0.1161
65608W        W66472   8.218  12.155  14.363  0.0506  0.1952 -0.0906
65609W        W66473   9.709  18.597  12.999  0.3195 -0.0319 -0.0922
65610W        W66474  10.002  21.689  12.306 -0.0770 -0.0328  0.0067
65611W        W66475   9.917  20.986  10.016  0.0906  0.1101 -0.0010
65612W        W66476   4.720  17.484  14.234  0.0491 -0.0284 -0.3438
65613W        W66477   8.624  19.226  15.233  0.2554 -0.0810  0.2195
65614W        W66478   6.235  17.637  12.540  0.3804 -0.0545  0.3771
65615W        W66479   9.158  17.429  14.151  0.0505  0.3457 -0.1721
65616W        W66480  11.490  14.806  11.137 -0.1737  0.1786  0.0106
65617W        W66481   9.818  15.111  12.286  0.1826  0.0278  0.0876
65618W        W66482  10.361  20.029  15.141  0.2066  0.3330  0.2228
65619W        W66483  11.692  19.636  12.302  0.2070 -0.1327  0.0256
65620W        W66484   6.126  13.608  14.481 -0.3367 -0.1339  0.0179
65621W        W66485   5.905  18.178  11.720 -0.0841 -0.0047 -0.1166
65622W        W66486   8.326  16.898  15.553  0.3255 -0.0564 -0.0645
65623W        W66487   9.673  20.922  17.097 -0.0336  0.1181  0.1285
65624W        W66488  10.113  17.451  14.316 -0.0251  0.2684  0.0098
65625W        W66489   8.131  17.656  11.380  0.1621 -0.0935 -0.1529
65626W        W66490  10.261  17.916  14.457 -0.0016 -0.2282 -0.2672
65627W        W66491  11.286  16.971  10.199  0.1938 -0.1040  0.0289
65628W        W66492   6.876  13.528  12.995 -0.1243  0.0952 -0.0254
65629W        W66493  10.153  15.000  12.688 -0.1598  0.2211  0.2752
65630W        W66494   7.090  16.834  13.934 -0.1563  0.0139  0.1732
65631W        W66495   7.117  17.209  12.653 -0.0257  0.1615  0.1083
65632W        W66496   9.350  19.426  15.830 -0.0712 -0.1849 -0.0758
65633W        W66497   8.745  18.120  12.585  0.1737 -0.4411  0.2130
65634W        W66498   7.789  14.884  13.565  0.0618  0.3110 -0.0796
65635W        W66499   9.159  19.723  10.905  0.0225  0.2913  0.0713
65636W        W66500   7.950  18.530  11.838 -0.2299 -0.2525  0.1962
65637W        W66501   8.660  16.679  13.275 -0.0879  0.0143  0.0365
65638W        W66502  10.644  16.275  13.041 -0.1667  0.1624  0.2170
65639W        W66503   9.652  17.261  14.862  0.1671  0.0578 -0.2789
65640W        W66504  13.204  14.154  12.426 -0.0603 -0.0808  0.2074
65641W        W66505   7.572  17.411  11.571  0.1687 -0.3297 -0.2032
65642W        W66506  10.599  18.271  13.895  0.1983 -0.1991  0.1834
65643W        W66507   9.796  19.905  15.303  0.0108  0.3464 -0.1130
65644W        W66508   7.700  16.311  14.401  0.0337  0.0956  0.1458
65645W        W66509   9.811  18.591  12.225  0.0739  0.0513  0.1762
65646W        W66510  10.904  16.738  16.546  0.1921  0.1638  0.2367
65647W        W66511   6.478  17.637  14.210  0.1932  0.2177 -0.1940
65648W        W66512   8.058  16.929  14.971 -0.0142 -0.0312  0.0611
65649W        W66513  11.166  14.187   9.320 -0.0618 -0.2008 -0.0359
65650W        W66514   6.909  17.462  15.227 -0.0617  0.2077 -0.1540
65651W        W66515   7.254  16.748  12.961 -0.0882 -0.1488 -0.0667
65652W        W66516   8.927  13.904  11.948  0.2031 -0.1487  0.2186
65653W        W66517   9.875  17.498  15.331  0.1428 -0.1479  0.1572
65654W        W66518   6.852  19.004  13.203  0.1978 -0.1500  0.1286
65655W        W66519  14.254  14.808  11.288  0.1961  0.0124  0.1322
65656W        W66520   8.460  15.271  14.340 -0.5190  0.1476  0.1092
65657W        W66521  10.268  17.006  12.119 -0.1832 -0.0431  0.0900
65658W        W66522   4.758  18.207  16.735 -0.1614 -0.2731 -0.3030
65659W        W66523  10.875  13.512  11.550  0.0338 -0.1507 -0.0986
65660W        W66524  11.171  18.218  12.027  0.0282 -0.0164 -0.3378
65661W        W66525   7.107  17.574  12.319  0.0055  0.4963  0.2864
65662W        W66526  10.845  16.119  12.565 -0.5031 -0.1969 -0.2233
65663W        W66527  12.420  16.423  14.766  0.1262 -0.3945 -0.0191
65664W        W66528   3.314  16.629  12.640  0.0860  0.2909  0.0406
65665W        W66529   4.902  12.990  11.610  0.0484  0.2905  0.0869
65666W        W66530  10.427  13.437  14.123 -0.1315  0.1781  0.1451
65667W        W66531   7.423  13.864  14.052  0.1528 -0.0411 -0.0641
65668W        W66532   9.113  18.885  13.532 -0.1841  0.2312  0.0356
65669W        W66533   9.167  15.890  13.215  0.2947 -0.0574  0.2348
65670W        W66534   6.684  18.059  10.343  0.1073 -0.3729  0.0623
65671W        W66535   7.045  18.375  12.128 -0.1594 -0.1315 -0.1313
65672W        W66536   9.516  13.046  15.222  0.1124 -0.2066  0.0489
65673W        W66537   6.861  17.830  14.422 -0.1008 -0.0382 -0.2406
65674W        W66538  11.176  17.715  14.112  0.0081 -0.0194 -0.1793
65675W        W66539  10.634  16.111  12.038  0.2974 -0.2430  0.0207
65676W        W66540   7.962  19.658  13.629  0.2311 -0.0570 -0.0228
65677W        W66541  11.791  17.736  16.366  0.0328 -0.0086 -0.0605
65678W        W66542  10.752  13.863   9.406  0.1375 -0.1136  0.0649
65679W        W66543   9.834  16.399  13.422 -0.4131 -0.0612  0.1926
65680W        W66544   6.835  16.829  12.618  0.0824  0.1673 -0.3333
65681W        W66545   9.689  14.934   9.942  0.2691  0.3977 -0.1523
65682W        W66546   8.366  17.383  15.070 -0.1226  0.1070  0.0036
65683W        W66547   6.927  15.997  14.382  0.1389  0.0563  0.3407
65684W        W66548   7.844  19.885  14.227  0.0091  0.1408 -0.0942
65685W        W66549   8.467  18.507  11.056 -0.1149  0.2142  0.0197
65686W        W66550   7.129  16.296  15.935  0.0618  0.0661  0.1366
65687W        W66551  10.515  12.896  11.224 -0.0426  0.0620 -0.1072
65688W        W66552   9.259  15.698  10.110  0.0415 -0.3971  0.0833
65689W        W66553   9.379  18.231  14.671 -0.7332 -0.1775 -0.1223
65690W        W66554  11.062  19.102  12.060 -0.0026  0.1301 -0.2222
65691W        W66555   8.297  15.519  13.832  0.0113 -0.1190  0.0768
65692W        W66556   9.884  20.550  12.319 -0.1031  0.0091 -0.2250
65693W        W66557   5.531  14.142  16.987  0.0222 -0.0105 -0.0532
65694W        W66558   8.545  16.284  14.288 -0.0671 -0.0172 -0.2414
65695W        W66559   7.586  18.051  11.117 -0.2019  0.0531  0.1446
65696W        W66560   7.859  18.277  10.363  0.0324 -0.2677 -0.2036
65697W        W66561   7.797  14.482  13.325 -0.0139  0.0106  0.1782
65698W        W66562   8.340  15.495  12.048 -0.2107 -0.0485 -0.0457
65699W        W66563  12.043  20.466  13.312 -0.0768 -0.0517 -0.2413
65700W        W66564   5.697  17.655  11.190 -0.2718  0.0696  0.0734
65701W        W66565   9.487  15.802  15.973 -0.2656 -0.0469 -0.1567
65702W        W66566  11.528  15.012  11.911 -0.0723  0.1432  0.3570
65703W        W66567  13.096  15.164  15.099 -0.0673  0.0723  0.2805
65704W        W66568   8.437  18.784  14.423 -0.1276  0.1502 -0.1694
65705W        W66569  11.522  17.736  13.665 -0.1528 -0.3626 -0.4935
65706W        W66570  10.306  19.116  15.441  0.1960  0.1557  0.2823
65707W        W66571   5.998  17.881   8.502  0.0772  0.2109  0.2093
65708W        W66572  10.374  17.564  12.803  0.1120  0.1392 -0.1267
65709W        W66573   8.258  18.326  12.318  0.1370 -0.0722 -0.0601
65710W        W66574   9.420  14.239  12.013  0.1801 -0.1325 -0.1175
65711W        W66575   6.395  16.869  12.293  0.2310 -0.0827  0.0729
65712W        W66576   8.263  16.552  14.663  0.1894 -0.0554  0.3350
65713W        W66577   8.196  15.773  13.383 -0.1254  0.1743  0.1603
65714W        W66578   7.434  17.793  11.944 -0.0367  0.0660  0.2141
65715W        W66579   7.443  17.887   8.577 -0.1588  0.0341  0.1403
65716W        W66580   5.077  17.971  13.819 -0.2614 -0.5237  0.3507
65717W        W66581   8.043  17.373  14.674  0.0863  0.2301 -0.1197
65718W        W66582   9.008  17.126  11.032  0.0310  0.2118 -0.2053
65719W        W66583   8.892  17.815  14.335  0.0258  0.1519  0.1077
65720W        W66584   8.985  13.752  11.157  0.1783 -0.1037 -0.2983
65721W        W66585  11.919  17.047  13.922 -0.1610  0.2692 -0.4897
65722W        W66586  10.867  16.127  11.618  0.1508 -0.1381 -0.2063
65723W        W66587   9.157  19.800  12.033  0.4300  0.3512  0.0333
65724W        W66588   8.448  19.081  11.245 -0.1158 -0.2360 -0.0279
65725W        W66589   8.037  17.235  12.215 -0.1823 -0.1784  0.0193
65726W        W66590  11.147  16.320  11.124 -0.1381  0.2939 -0.3138
65727W        W66591   7.360  19.687  11.077 -0.1151 -0.2004  0.0203
65728W        W66592   8.787  18.204  15.416  0.0892 -0.0097  0.3321
65729W        W66593   7.901  17.293  13.827 -0.0070  0.0150 -0.1472
65730W        W66594   7.350  16.060  13.528 -0.1154 -0.1495 -0.0128
65731W        W66595   8.692  16.176  10.704 -0.0756  0.2059 -0.1530
65732W        W66596   6.576  14.726  15.160 -0.0145 -0.1055  0.3524
65733W        W66597   5.881  16.496   9.576  0.3306  0.0137  0.2397
65734W        W66598   9.368  15.124  15.329 -0.1618  0.1489  0.0016
65735W        W66599   8.514  20.310  11.397  0.2020  0.0732  0.1288
65736W        W66600   8.087  20.498  14.262 -0.0318 -0.2102  0.0801
65737W        W66601  12.325  20.022  13.340 -0.0719  0.2604  0.0635
65738W        W66602  10.885  19.717  12.894  0.0933 -0.3162  0.0368
65739W        W66603  11.254  14.740  11.608 -0.0381 -0.0623  0.1029
65740W        W66604   9.746  15.888  13.341  0.3387  0.2218  0.4809
65741W        W66605   8.089  16.836  10.618  0.2100  0.0164 -0.1448
65742W        W66606  11.304  14.368  11.312  0.0528 -0.1201  0.0510
65743W        W66607   7.040  20.087  11.211 -0.3474  0.0668 -0.1500
65744W        W66608  10.290  19.612  15.676 -0.1235  0.3860 -0.0125
65745W        W66609  13.097  17.125   9.501  0.0867  0.2403  0.0455
65746W        W66610   8.548  14.558  14.092  0.0927 -0.0839  0.0944
65747W        W66611  10.242  15.803  11.037 -0.0326  0.0011  0.1779
65748W        W66612  10.569  19.063  17.746 -0.1466  0.0746  0.2310
65749W        W66613   8.850  15.615  14.030 -0.3352  0.2930  0.0964
65750W        W66614   7.858  19.432  14.794  0.0287 -0.1256 -0.1117
65751W        W66615   9.586  17.311  14.375 -0.1348  0.0333 -0.1132
65752W        W66616   7.239  16.471  14.325 -0.1544  0.0758 -0.1194
65753W        W66617   9.231  17.421  13.638 -0.3462  0.1387 -0.0814
65754W        W66618   8.808  15.838  13.532  0.5609 -0.0162  0.0456
65755W        W66619   6.343  18.961  14.119 -0.0353 -0.0457 -0.1156
65756W        W66620  11.459  18.485  14.724  0.3947 -0.3223  0.0361
65757W        W66621  10.761  20.555  10.374  0.0333 -0.1306 -0.0851
65758W        W66622   7.241  18.201  14.817  0.0302 -0.1405  0.0933
65759W        W66623   8.444  20.935  14.725  0.0644 -0.0895  0.1000
65760W        W66624  10.477  17.215  11.111 -0.0525 -0.1637 -0.0004
65761W        W66625   9.454  18.694  14.789 -0.1354  0.1348 -0.1513
65762W        W66626   6.564  17.177  13.345  0.2138 -0.1371  0.0331
65763W        W66627   9.542  19.046  13.250 -0.0271  0.0337 -0.0871
65764W        W66628   7.270  18.890  13.695 -0.1280 -0.3470 -0.2535
65765W        W66629   5.492  19.243  13.586  0.0149  0.0882 -0.0536
65766W        W66630   9.455  16.018  15.186 -0.3585 -0.0602  0.0674
65767W        W66631   9.319  15.364  11.885 -0.1945  0.1371 -0.0119
65768W        W66632   9.025  14.911  14.703  0.1340 -0.2422  0.2572
65769W        W66633   9.759  17.515  11.531  0.2059 -0.2948  0.2612
65770W        W66634   8.612  17.955  10.996 -0.0526 -0.1858 -0.2329
65771W        W66635   8.270  18.885  18.414  0.2178  0.2034  0.1565
65772W        W66636   6.182  16.811  17.978  0.2032  0.1041 -0.2013
65773W        W66637   8.804  17.585  13.824  0.2676 -0.1868  0.1352
65774W        W66638  10.927  17.735  18.270  0.1381  0.1329 -0.0135
65775W        W66639   8.923  17.537  15.055  0.2356  0.2061 -0.0589
65776W        W66640  11.512  16.291  17.552 -0.0311  0.1294 -0.0227
65777W        W66641   7.809  13.886  16.123  0.1544  0.0561 -0.1909
65778W        W66642   6.668  17.056  16.994 -0.1818 -0.2415  0.0683
65779W        W66643  10.370  16.840  20.526  0.1797 -0.2856  0.2061
65780W        W66644   7.322  11.417  15.429 -0.1697  0.2344  0.0376
65781W        W66645   7.918  12.067  18.932 -0.2341 -0.0263 -0.0969
65782W        W66646  10.247  14.710  18.604  0.2967 -0.3869  0.1059
65783W        W66647   9.210  16.102  15.605  0.0670  0.0133  0.0782
65784W        W66648  11.699  12.390  20.474 -0.1038 -0.2220  0.2446
65785W        W66649   7.218  13.940  16.366  0.2567  0.0090 -0.0226
65786W        W66650   9.530  17.938  20.007 -0.2229 -0.1925  0.1398
65787W        W66651   9.104  17.118  16.610  0.1481  0.1889  0.4136
65788W        W66652   6.631  13.433  14.294  0.0666 -0.1230 -0.1222
65789W        W66653   9.930  15.250  18.247 -0.1481  0.0039  0.0617
65790W        W66654   9.179  16.649  16.749 -0.4605 -0.3123 -0.0202
65791W        W66655  10.938  18.554  19.078 -0.1996 -0.0416  0.1912
65792W        W66656  10.403  16.029  16.305 -0.2182  0.2741 -0.0815
65793W        W66657  10.496  17.080  16.484 -0.1599 -0.0018  0.0837
65794W        W66658   7.670  16.402  16.950  0.0059  0.0307  0.0069
65795W        W66659   6.671  14.864  16.024  0.1147 -0.3477 -0.2561
65796W        W66660   9.914  13.122  17.668  0.0575 -0.1092 -0.1360
65797W        W66661   8.717  16.560  17.407  0.0854 -0.2093  0.0439
65798W        W66662   8.636  15.566  15.304 -0.0200  0.2370  0.0145
65799W        W66663   6.677  19.776  16.616 -0.0019 -0.4279 -0.2483
65800W        W66664   5.972  17.208  16.267  0.1502 -0.0044 -0.1308
65801W        W66665   9.106  15.045  16.213 -0.0904 -0.2441  0.1585
65802W        W66666  12.219  12.997  19.012 -0.2552 -0.1119 -0.2286
65803W        W66667  10.006  17.350  18.658  0.1703  0.1237 -0.1299
65804W        W66668  10.453  17.730  17.882  0.2075 -0.0646 -0.1583
65805W        W66669   8.658  14.511  17.534 -0.0718  0.0839 -0.2970
65806W        W66670   5.254  15.423  15.144 -0.2632 -0.0819  0.0951
65807W        W66671  10.672  19.620  17.783  0.0007 -0.0390  0.0867
65808W        W66672   9.892  16.687  15.686  0.1617  0.0431  0.1815
65809W        W66673   8.947  16.226  19.058 -0.2270 -0.0703  0.0609
65810W        W66674  11.628  15.211  13.709 -0.1424 -0.0324 -0.0057
65811W        W66675  11.331  15.418  15.594 -0.1374  0.0021  0.3760
65812W        W66676   7.137  17.449  14.774  0.1632 -0.0391  0.1225
65813W        W66677   9.370  17.231  17.132  0.1783 -0.0284 -0.1448
65814W        W66678   8.447  18.858  15.690  0.0979  0.0929  0.2702
65815W        W66679   5.133  18.378  14.424  0.1109  0.1157 -0.0958
65816W        W66680   5.668  14.146  15.007  0.0222 -0.2785 -0.1932
65817W        W66681   9.671  13.940  16.737 -0.2589 -0.5451  0.0737
65818W        W66682  12.665  20.168  16.891  0.3252  0.0271  0.0476
65819W        W66683   7.858  14.592  14.724  0.1386  0.3322  0.0788
65820W        W66684   9.479  16.790  20.346  0.2430 -0.1302 -0.0708
65821W        W66685   7.779  16.124  15.401  0.1170  0.0525 -0.1626
65822W        W66686  11.002  17.934  19.613 -0.1403 -0.0491 -0.1483
65823W        W66687  13.867  17.371  14.307  0.0520 -0.0823  0.0257
65824W        W66688   8.284  14.824  17.657 -0.0269 -0.1035  0.0172
65825W        W66689   8.510  17.029  16.031 -0.0869 -0.2974  0.2406
65826W        W66690   6.447  15.149  13.060 -0.1370  0.2130  0.0760
65827W        W66691  10.834  16.338  16.212 -0.2535 -0.2079 -0.1972
65828W        W66692   7.621  19.611  16.972  0.0901  0.0973  0.3961
65829W        W66693   7.392  18.054  16.036 -0.2846 -0.0011  0.1675
65830W        W66694  12.881  18.737  13.734 -0.0521 -0.0435  0.0023
65831W        W66695   8.506  18.350  18.694  0.1128 -0.2140  0.0631
65832W        W66696  10.107  16.831  18.751  0.1259 -0.0517 -0.0782
65833W        W66697   8.997  20.079  14.474  0.1050  0.2720 -0.1031
65834W        W66698   8.619  14.211  16.010 -0.0432 -0.2615  0.1950
65835W        W66699  12.285  15.047  19.113 -0.2887  0.1220  0.0612
65836W        W66700   5.723  18.971  15.744  0.1391 -0.2099  0.1916
65837W        W66701   8.376  14.110  13.920 -0.1510 -0.1269  0.3233
65838W        W66702   7.193  16.950  14.590  0.0871 -0.0488 -0.3427
65839W        W66703  11.145  14.145  16.893  0.1483 -0.1415  0.0782
65840W        W66704  12.076  16.983  15.381  0.2083  0.4217 -0.2447
65841W        W66705   7.789  13.574  15.050  0.1834 -0.0322 -0.3551
65842W        W66706   8.498  17.852  12.948  0.3940 -0.1176  0.0594
65843W        W66707  10.785  15.325  16.226 -0.0299  0.2598  0.1965
65844W        W66708  10.653  19.524  13.297  0.1371 -0.0124  0.0232
65845W        W66709   9.573  19.131  18.502  0.3784  0.0051  0.2655
65846W        W66710   5.662  15.263  14.048  0.1305  0.0826  0.0769
65847W        W66711   7.339  18.987  17.015 -0.2658  0.1678  0.0323
65848W        W66712   8.789  16.804  15.723  0.1763 -0.2330  0.0485
65849W        W66713   8.354  18.337  15.729 -0.2761 -0.2163  0.0889
65850W        W66714   9.364  19.602  18.391 -0.0634  0.2427  0.2252
65851W        W66715   7.457  13.386  17.484  0.1669 -0.0004 -0.0481
65852W        W66716   6.205  11.363  17.934  0.1823 -0.2048  0.2526
65853W        W66717   8.141  14.278  14.361  0.1596 -0.1008 -0.1623
65854W        W66718   9.775  16.980  18.335 -0.1889 -0.0517 -0.0893
65855W        W66719   9.744  17.320  17.563  0.0489  0.4126 -0.0218
65856W        W66720  11.875  17.451  16.752 -0.4476  0.0161 -0.0125
65857W        W66721   7.421  15.713  17.369 -0.0117  0.2427 -0.2743
65858W        W66722  10.589  16.126  16.756  0.1821  0.0663  0.2118
65859W        W66723   8.338  14.376  18.186 -0.1534  0.1908  0.3358
65860W        W66724   7.889  15.481  17.222 -0.0290  0.2337 -0.2597
65861W        W66725  11.079  16.925  18.496  0.1457 -0.2331 -0.0449
65862W        W66726   9.316  17.546  16.782  0.0455  0.2006 -0.3146
65863W        W66727   9.549  16.302  15.940 -0.3313  0.1422 -0.3113
65864W        W66728  11.277  14.968  16.932 -0.1191  0.2361  0.2965
65865W        W66729   9.579  14.485  17.656  0.2443 -0.2071  0.2884
65866W        W66730  10.888  16.353  14.979 -0.1202 -0.0530  0.0427
65867W        W66731  10.407  18.518  20.178  0.0319  0.0459  0.0129
65868W        W66732   8.011  15.052  14.966 -0.0328 -0.1572  0.2002
65869W        W66733   9.601  17.036  16.666 -0.1678 -0.2223  0.2286
65870W        W66734  10.214  18.722  14.826 -0.0565  0.0903 -0.0488
65871W        W66735   8.071  17.369  18.470  0.1101 -0.1420 -0.2762
65872W        W66736   6.962  15.811  12.919  0.2184 -0.2132  0.3137
65873W        W66737  10.328  17.833  16.125 -0.1405  0.0833  0.0966
65874W        W66738  11.977  13.764  18.239 -0.1646  0.0031 -0.1074
65875W        W66739   6.984  12.535  18.030  0.1601  0.2553 -0.0083
65876W        W66740  10.747  16.387  19.091  0.1160  0.0347 -0.5878
65877W        W66741   9.116  15.342  17.179  0.0252  0.2736 -0.3255
65878W        W66742   7.130  12.865  18.495  0.0759 -0.1268 -0.1898
65879W        W66743   6.384  16.047  17.060 -0.1224 -0.0294  0.1418
65880W        W66744   9.203  18.022  19.062 -0.0013 -0.1858 -0.1881
65881W        W66745   6.564  15.470  16.977 -0.1635 -0.3242 -0.2573
65882W        W66746  11.208  15.587  15.106  0.0138 -0.2554  0.1193
65883W        W66747   8.944  18.091  20.707 -0.0379  0.1793  0.0393
65884W        W66748  12.208  22.293  15.634  0.0945  0.3364  0.0322
65885W        W66749   7.622  16.453  13.438 -0.1657 -0.3868 -0.0159
65886W        W66750  11.572  13.580  17.987 -0.0208  0.1580 -0.1984
65887W        W66751   9.589  17.300  19.553 -0.1041  0.1368 -0.3361
65888W        W66752  11.163  17.170  16.466  0.3938  0.1466  0.2348
65889W        W66753   8.773  18.501  13.548 -0.2446 -0.0002 -0.2605
65890W        W66754   8.530  16.158  15.355 -0.2962 -0.1442  0.0605
65891W        W66755   9.182  17.990  15.087 -0.1133 -0.0978 -0.1418
65892W        W66756   8.948  17.642  18.753  0.1286 -0.0298  0.3025
65893W        W66757  10.291  17.762  17.018 -0.0319 -0.0698  0.0035
65894W        W66758   8.192  17.323  16.797 -0.0110  0.4217  0.1284
65895W        W66759   9.103  15.645  12.723  0.0650 -0.1406  0.0456
65896W        W66760   7.046  14.454  16.505  0.1916 -0.0971  0.3284
65897W        W66761  10.335  15.622  17.574 -0.0463 -0.0094 -0.1611
65898W        W66762  12.117  18.147  17.160  0.3127  0.1224 -0.3199
65899W        W66763   6.735  16.708  16.142  0.2941  0.0361 -0.0447
65900W        W66764  11.382  17.699  20.835  0.0376  0.1967  0.2343
65901W        W66765  11.614  14.376  18.566 -0.0293 -0.2024 -0.0603
65902W        W66766   9.975  17.257  16.355  0.1255 -0.2605  0.4418
65903W        W66767  12.234  16.162  12.204 -0.0793 -0.1278 -0.0033
65904W        W66768  12.716  16.637  15.639 -0.1717  0.0970  0.4257
65905W        W66769   6.186  13.132  16.776  0.1296 -0.1012 -0.2622
65906W        W66770  10.032  14.764  16.451 -0.0732 -0.0342 -0.3631
65907W        W66771  10.129  16.224  17.253 -0.0024 -0.0978 -0.1927
65908W        W66772   8.204  18.635  16.700 -0.1677  0.1810 -0.0365
65909W        W66773   6.464  18.154  16.400 -0.5746  0.1402  0.0689
65910W        W66774   8.582  12.863  17.407  0.1581 -0.0657  0.0764
65911W        W66775   9.666  14.700  15.147  0.0425 -0.3305 -0.1332
65912W        W66776   8.026  15.977  13.995 -0.1862  0.0379 -0.1052
65913W        W66777  10.161  16.982  15.091  0.0354 -0.0125  0.0997
65914W        W66778   8.271  16.780  16.456  0.3783  0.0096 -0.1650
65915W        W66779   7.501  18.590  14.719  0.1677 -0.3834  0.0892
65916W        W66780   9.219  18.616  15.775  0.3036  0.0057 -0.0460
65917W        W66781  11.008  18.006  17.341  0.3013 -0.3308 -0.0396
65918W        W66782   9.109  17.921  17.776 -0.1988 -0.1144 -0.1189
65919W        W66783   6.596  18.418  17.393  0.1855 -0.1206 -0.2460
65920W        W66784  10.755  16.291  17.752 -0.1375 -0.0820  0.2367
65921W        W66785   9.353  13.604  15.259  0.1233 -0.0899  0.0568
65922W        W66786   7.961  15.919  16.948  0.1057  0.0869  0.0232
65923W        W66787   9.032  15.984  16.833  0.1316  0.1788 -0.0072
65924W        W66788   7.162  16.937  16.026  0.4582 -0.1275 -0.1427
65925W        W66789  10.378  14.869  19.827  0.0093  0.0870  0.2639
65926W        W66790   9.261  16.474  17.272 -0.3277 -0.0224  0.3854
65927W        W66791   8.608  17.596  14.704 -0.0322  0.1000  0.2224
65928W        W66792   7.083  15.536  13.352 -0.2643 -0.2881  0.3964
65929W        W66793   9.470  15.268  15.861  0.2411  0.0273  0.0074
65930W        W66794   9.147  14.005  18.601 -0.1835 -0.1633 -0.0642
65931W        W66795   9.655  18.589  18.434  0.1124  0.1300  0.0935
65932W        W66796  10.109  17.536  22.378  0.1557 -0.0078  0.1429
65933W        W66797   9.320  15.971  17.310  0.0780  0.0050 -0.1371
65934W        W66798  10.248  15.823  18.180 -0.0133  0.0157  0.0810
65935W        W66799   8.510  15.327  15.901 -0.1519 -0.2369  0.0820
65936W        W66800   6.420  16.017  15.712  0.2212 -0.2814 -0.1261
65937W        W66801   7.159  19.349  13.000 -0.1216  0.0648 -0.0182
65938W        W66802   7.847  17.992  20.361 -0.1387 -0.3656  0.0319
65939W        W66803   9.022  16.402  13.136  0.0474  0.2164  0.2702
65940W        W66804   9.934  15.327  17.735 -0.2921  0.0678 -0.0385
65941W        W66805   9.351  17.291  18.486  0.0196 -0.1117 -0.0145
65942W        W66806  11.203  16.778  16.144  0.0837 -0.0810 -0.3037
65943W        W66807   9.276  19.079  16.201  0.0357  0.1103 -0.3196
65944W        W66808   9.648  16.271  17.521 -0.0448  0.0015 -0.1332
65945W        W66809  12.036  14.651  14.914  0.0358 -0.1152  0.3483
65946W        W66810   5.800  18.334  17.749 -0.0251 -0.1970 -0.0270
65947W        W66811   8.387  17.136  18.100  0.0398  0.0244  0.0492
65948W        W66812   6.144  19.672  13.265  0.3602 -0.3217 -0.5111
65949W        W66813   8.555  15.730  14.740 -0.2222  0.1718 -0.1276
65950W        W66814   7.275  15.630  14.723  0.1739  0.1235  0.0171
65951W        W66815  12.358  17.252  16.772  0.1387 -0.2297 -0.1475
65952W        W66816   7.032  17.329  14.244  0.0201  0.1223  0.0344
65953W        W66817   9.853  16.163  15.566  0.1634 -0.1537 -0.0264
65954W        W66818   9.898  15.209  16.225  0.1984  0.3164  0.0234
65955W        W66819  11.038  18.054  16.225  0.1889  0.1268 -0.1260
65956W        W66820   7.371  14.824  13.024  0.2098  0.0398 -0.1387
65957W        W66821   5.011  15.050  14.387 -0.1427  0.1129 -0.0609
65958W        W66822   8.166  21.166  18.694  0.1477  0.1403  0.1160
65959W        W66823   7.043  15.285  16.152 -0.0608  0.2469  0.1499
65960W        W66824   5.774  14.446  17.778 -0.2554  0.0861  0.1063
65961W        W66825  11.592  17.444  14.047 -0.1796  0.3517  0.1853
65962W        W66826   8.786  16.026  17.332  0.0630 -0.0432  0.1400
65963W        W66827   7.581  13.340  18.346 -0.1100  0.1348 -0.0880
65964W        W66828   8.244  13.085  17.753  0.3496 -0.0299  0.1784
65965W        W66829   6.142  15.157  14.428  0.0397 -0.1457 -0.1287
65966W        W66830   9.510  15.047  14.847 -0.0191 -0.2171 -0.2182
65967W        W66831   5.621  16.556  15.408 -0.0254 -0.2367  0.1597
65968W        W66832   8.186  16.126  15.013 -0.1395  0.2369 -0.0080
65969W        W66833   9.329  16.835  15.726  0.1257 -0.0521 -0.1050
65970W        W66834   7.659  16.521  15.838 -0.2597 -0.0463 -0.0267
65971W        W66835   9.825  14.970  17.382 -0.1859  0.0893  0.1346
65972W        W66836   9.909  16.904  13.037  0.0792 -0.2016  0.0416
65973W        W66837   5.228  17.616  15.576 -0.2167  0.2617 -0.1538
65974W        W66838   9.151  16.751  17.642  0.0448  0.0166 -0.1101
65975W        W66839   8.992  14.536  14.316 -0.0325 -0.0610 -0.0808
65976W        W66840   8.923  18.466  20.347  0.1502  0.1302  0.1319
65977W        W66841   8.574  18.654  15.303  0.1209 -0.1057  0.2211
65978W        W66842   9.194  18.077  16.374 -0.0900 -0.1596 -0.1676
65979W        W66843   9.128  17.901  11.720  0.0606  0.4771  0.0289
65980W        W66844   7.050  18.707  19.289 -0.1545  0.1837 -0.0304
65981W        W66845   8.476  16.163  20.086 -0.0297  0.0417 -0.0422
65982W        W66846   7.211  18.395  17.257  0.1565  0.0513 -0.1652
65983W        W66847  10.909  18.529  15.649  0.1689  0.2027  0.1158
65984W        W66848  10.356  15.216  16.487 -0.1190 -0.0979  0.1708
65985W        W66849  10.903  15.855  14.723 -0.2864 -0.1385  0.0170
65986W        W66850   5.417  19.301  17.076 -0.0733 -0.1534  0.1084
65987W        W66851   6.262  17.543  13.575 -0.1813 -0.0165 -0.0247
65988W        W66852   8.954  16.950  17.146  0.0292 -0.3284 -0.1165
65989W        W66853   9.229  16.939  19.874  0.0529 -0.0129  0.0415
65990W        W66854   9.230  13.745  20.727 -0.2113 -0.0840 -0.1214
65991W        W66855   9.349  13.604  16.097  0.2337  0.0242 -0.0809
65992W        W66856  10.008  18.818  17.125  0.0127  0.0258 -0.0009
65993W        W66857   9.812  16.500  19.141 -0.0469  0.1265 -0.1080
65994W        W66858  14.292  17.086  13.361  0.3151  0.2570 -0.1576
65995W        W66859  10.370  15.329  18.574  0.4258  0.0557 -0.0665
65996W        W66860   9.296  15.786  18.970  0.0932 -0.1142  0.3867
65997W        W66861  12.960  14.553  18.446 -0.0585 -0.0998 -0.0220
65998W        W66862  11.057  18.450  13.498  0.0736  0.3457 -0.3254
65999W        W66863  11.094  18.776  16.400  0.2624  0.0040  0.1211
66000W        W66864   6.519  14.548  16.555 -0.1344 -0.2772 -0.0019
66001W        W66865  10.740  17.891  20.297 -0.4449 -0.0304 -0.2006
66002W        W66866   4.658  17.286  17.528  0.0348  0.2851  0.3065
66003W        W66867   7.687  15.385  15.056 -0.3157  0.1860  0.1962
66004W        W66868   7.438  14.234  17.372 -0.1535 -0.2122 -0.0196
66005W        W66869   7.400  17.410  15.447 -0.3868  0.0612 -0.1525
66006W        W66870  13.230  17.303  13.791  0.0454 -0.2329 -0.3772
66007W        W66871   7.725  12.803  16.276 -0.3582  0.0768  0.0391
66008W        W66872   8.232  15.876  17.448  0.0348  0.0603 -0.1936
66009W        W66873  11.351  17.240  16.944  0.2969  0.2171  0.0346
66010W        W66874   7.643  17.322  16.692  0.1782 -0.0602  0.0509
66011W        W66875   5.202  18.719  16.295 -0.2149 -0.1519 -0.1988
66012W        W66876   7.253  14.830  16.187 -0.1285  0.1866 -0.3544
66013W        W66877   8.356  14.563  17.139  0.1741 -0.1723 -0.2726
66014W        W66878  11.662  15.405  15.153  0.2316  0.1177  0.1324
66015W        W66879  11.327  17.996  18.021 -0.0963  0.0320  0.1598
66016W        W66880  11.920  16.113  16.091 -0.1201  0.2377  0.1875
66017W        W66881   9.250  16.957  20.840 -0.3115  0.1120 -0.0990
66018W        W66882  11.215  17.468  17.362 -0.1018 -0.2501  0.2677
66019W        W66883   8.831  14.344  17.027  0.0785  0.1245 -0.0537
66020W        W66884   7.632  20.773  16.364 -0.2887  0.2886 -0.1917
66021W        W66885   9.235  19.609  13.824 -0.2115 -0.2120  0.0324
66022W        W66886  11.165  18.950  19.965  0.0151 -0.1761  0.1746
66023W        W66887  11.284  17.360  18.399  0.2631 -0.2766 -0.0512
66024W        W66888   7.743  15.729  12.805 -0.1218 -0.0095  0.0381
66025W        W66889  12.112  17.278  19.116 -0.0033 -0.0489  0.1519
66026W        W66890   9.246  15.311  14.100 -0.3006 -0.0431  0.0684
66027W        W66891   8.453  12.305  18.770  0.2446 -0.1005 -0.1022
66028W        W66892  10.868  15.623  15.454 -0.3397  0.3711  0.0852
66029W        W66893   9.820  16.724  14.273  0.2251  0.0868  0.3696
66030W        W66894   8.023  15.462  18.249 -0.0863 -0.0186 -0.0712
66031W        W66895  10.607  19.859  18.758  0.0703  0.0794 -0.0557
66032W        W66896  12.269  18.487  17.499 -0.1198 -0.1595  0.3852
66033W        W66897   9.868  14.798  19.559  0.0047 -0.0562 -0.0156
66034W        W66898   8.560  17.181  20.962  0.2435 -0.0509 -0.1136
66035W        W66899   9.482  19.029  17.186  0.0652  0.0103  0.0764
66036W        W66900   4.991  16.118  15.649 -0.0911  0.3495 -0.0497
66037W        W66901  11.022  15.469  13.901  0.1504  0.2015  0.1082
66038W        W66902   7.125  15.558  14.212 -0.1683 -0.1527 -0.2232
66039W        W66903   8.988  17.136  13.339 -0.0717  0.0479  0.1589
66040W        W66904  11.325  18.889  15.496  0.3770  0.0935 -0.0118
66041W        W66905   9.803  16.540  17.001 -0.2781 -0.0588 -0.0576
66042W        W66906   9.219  16.755  16.272  0.0288 -0.1807 -0.0864
66043W        W66907   5.593  18.054  19.025 -0.0261 -0.1003  0.0842
66044W        W66908   8.451  17.780  16.818  0.1188  0.3593  0.2120
66045W        W66909  12.210  14.155  16.685  0.1250  0.1030  0.0579
66046W        W66910   6.002  12.713  18.101  0.3510  0.3878 -0.1540
66047W        W66911   7.192  16.363  18.283  0.1618 -0.0289  0.0681
66048W        W66912   7.438  13.309  14.825 -0.1194 -0.0559 -0.1060
66049W        W66913   8.577  19.451  17.129 -0.0267 -0.1711 -0.0859
66050W        W66914  10.429  18.260  16.957  0.0431  0.1287 -0.1163
66051W        W66915   6.973  14.684  12.818  0.1157  0.0615  0.1842
66052W        W66916   8.115  14.351  16.258  0.0583 -0.0417 -0.0924
66053W        W66917   6.759  17.894  19.535  0.3379 -0.0191  0.0954
66054W        W66918  10.320  16.527  14.277  0.1638  0.2413  0.1071
66055W        W66919  11.624  12.659  17.720  0.3681  0.1806  0.0847
66056W        W66920   9.708  16.940  16.136 -0.1131  0.0011 -0.2921
66057W        W66921   8.060  18.199  18.899  0.2026 -0.0844  0.4344
66058W        W66922  10.453  16.550  16.439  0.0566 -0.0826  0.0020
66059W        W66923  10.998  16.472  18.630  0.0559  0.0780 -0.0028
66060W        W66924  11.014  19.622  15.617 -0.0980  0.1320  0.0112
66061W        W66925  10.706  15.679  14.354  0.0714  0.1473 -0.0801
66062W        W66926  10.389  16.570  16.975  0.1324 -0.0358 -0.1370
66063W        W66927   9.623  17.327  20.640 -0.2235  0.1376  0.0398
66064W        W66928   8.441  13.453  15.903 -0.0759  0.0056  0.2633
66065W        W66929   8.055  15.690  15.070  0.0112 -0.0646 -0.1690
66066W        W66930  12.198  14.930  16.204  0.0832  0.0969  0.1491
66067W        W66931  12.004  16.179  17.601  0.2589  0.1410  0.2106
66068W        W66932  10.069  16.105  14.405 -0.0040 -0.0608 -0.1438
66069W        W66933   8.119  17.912  18.419  0.1013 -0.2811 -0.1417
66070W        W66934   7.838  18.065  15.396 -0.0732 -0.1030  0.0470
66071W        W66935   9.224  12.084  18.812  0.0845  0.3123 -0.0471
66072W        W66936   9.199  19.327  18.857 -0.2267  0.0714 -0.1723
66073W        W66937  11.438  17.126  17.625 -0.1040  0.0354 -0.0563
66074W        W66938   9.940  18.029  15.692 -0.0338  0.0017 -0.0957
66075W        W66939   9.718  20.916  17.678 -0.1590 -0.3201 -0.3027
66076W        W66940   7.514  11.461  19.335 -0.1117  0.1440  0.1123
66077W        W66941  10.417  13.386  17.563  0.3106  0.1383 -0.1293
66078W        W66942  12.369  15.084  17.696 -0.1104  0.1933  0.0438
66079W        W66943   8.039  18.606  15.313  0.3060  0.1233  0.2583
66080W        W66944   8.299  13.342  14.993  0.0114 -0.2123  0.1241
66081W        W66945   9.723  16.531  21.772  0.1130 -0.0760  0.1180
66082W        W66946   8.212  16.373  16.767  0.2517 -0.2735 -0.2136
66083W        W66947   9.540  15.696  20.279 -0.0148  0.0217 -0.1682
66084W        W66948   6.799  16.261  16.413 -0.0884  0.1077  0.0602
66085W        W66949  10.224  17.713  20.101  0.2202  0.0233 -0.1047
66086W        W66950   7.866  13.800  14.317 -0.0713  0.3659 -0.1871
66087W        W66951   8.110  16.084  14.503  0.1975 -0.0546 -0.1810
66088W        W66952   9.417  16.861  19.407  0.0687 -0.2172 -0.1593
66089W        W66953   9.900  17.084  17.087 -0.2458 -0.1406 -0.1613
66090W        W66954   6.845  16.257  17.277  0.0528  0.1378 -0.3132
66091W        W66955   8.013  13.567  16.491 -0.0167 -0.1472 -0.1481
66092W        W66956  11.787  17.944  16.804  0.0749 -0.2433  0.0678
66093W        W66957   6.096  14.634  15.375 -0.0142  0.1333 -0.0603
66094W        W66958   9.830  18.725  19.873 -0.1687  0.0401  0.1188
66095W        W66959   8.957  15.209  15.768  0.1340 -0.1563  0.2788
66096W        W66960   7.477  18.062  13.201 -0.1214 -0.1067  0.0657
66097W        W66961   7.871  18.382  15.802  0.1969 -0.0989  0.2338
66098W        W66962  10.489  18.476  14.404 -0.0757 -0.0317  0.4030
66099W        W66963   7.791  14.513  12.843  0.1587 -0.1139  0.1856
66100W        W66964  10.927  17.175  13.327  0.2021 -0.3983 -0.0773
66101W        W66965   7.702  14.681  16.218  0.1787 -0.0908 -0.0612
66102W        W66966  10.184  16.866  16.123 -0.0282  0.0775 -0.2623
66103W        W66967   9.339  18.947  16.701 -0.1383 -0.0237  0.0537
66104W        W66968   9.927  17.445  19.147  0.1317  0.0956  0.0882
66105W        W66969   6.827  18.445  15.374 -0.0712  0.2948 -0.1579
66106W        W66970  12.246  15.790  15.929  0.0457 -0.2444 -0.1820
66107W        W66971   8.853  17.463  16.986  0.3403  0.2946  0.0550
66108W        W66972  10.517  14.784  12.336 -0.0050  0.0203  0.0645
66109W        W66973   7.532  15.697  13.313 -0.3779  0.0228  0.2776
66110W        W66974  10.238  19.233  16.109  0.0895  0.2134  0.0269
66111W        W66975   7.496  13.865  15.287 -0.2489 -0.2333  0.2673
66112W        W66976   7.970  19.837  18.552 -0.1619  0.3514 -0.1072
66113W        W66977   8.950  15.957  14.455 -0.0133  0.2592 -0.0814
66114W        W66978   9.239  18.505  19.967 -0.0440  0.1348  0.0682
66115W        W66979   5.324  17.770  16.135 -0.1286 -0.2812 -0.1462
66116W        W66980   4.557  15.375  15.182  0.2219 -0.1867 -0.0511
66117W        W66981   8.479  16.915  16.917  0.4213 -0.1118 -0.2944
66118W        W66982   7.338  14.281  15.452 -0.1534  0.0354 -0.0807
66119W        W66983  11.631  16.722  17.753  0.2567  0.1138 -0.2893
66120W        W66984   9.834  14.132  14.720 -0.2134 -0.1813  0.0896
66121W        W66985  12.169  17.558  17.186  0.1966 -0.0513 -0.0481
66122W        W66986  10.787  18.431  17.198  0.2110 -0.0831  0.0888
66123W        W66987   7.342  19.904  15.349  0.1032  0.0408 -0.0965
66124W        W66988   7.455  12.178  14.709  0.0497 -0.1672 -0.4980
66125W        W66989   7.778  18.345  16.662 -0.1126 -0.2091  0.1622
66126W        W66990  10.060  14.308  18.501  0.0956 -0.0040  0.0130
66127W        W66991  10.332  15.785  15.599  0.3790 -0.0448  0.1002
66128W        W66992   6.767  14.206  12.889 -0.0618 -0.1043 -0.1955
66129W        W66993   7.931  15.396  13.513  0.0975  0.1456  0.0484
66130W        W66994  10.992  16.902  17.048  0.0140 -0.1720  0.1411
66131W        W66995   6.902  15.456  16.601 -0.0995 -0.1233  0.0872
66132W        W66996  10.311  13.136  15.084  0.1889  0.2045 -0.0600
66133W        W66997  10.401  16.713  17.816 -0.1435 -0.2828  0.2385
66134W        W66998   7.369  17.428  17.849  0.1708 -0.2180 -0.0009
66135W        W66999   8.917  18.293  18.042 -0.1400  0.0150  0.2698
66136W        W67000  10.565  17.747  13.878  0.0656  0.1020 -0.2766
66137W        W67001   8.064  16.221  13.640 -0.3719 -0.1828  0.0607
66138W        W67002   9.605  18.335  16.591 -0.2297 -0.1506  0.0229
66139W        W67003   8.837  14.965  14.145  0.0693  0.0853 -0.1622
66140W        W67004   9.277  14.349  15.548 -0.1715  0.0141 -0.3426
66141W        W67005   9.536  17.280  15.688  0.1328  0.1110  0.3658
66142W        W67006  10.359  19.581  16.588  0.1666  0.3479  0.0450
66143W        W67007   7.915  17.225  15.371  0.0315 -0.0309 -0.0190
66144W        W67008   9.791  13.676  17.422 -0.1613  0.1439 -0.0923
66145W        W67009   6.345  14.426  18.814  0.3493  0.1210  0.2592
66146W        W67010  10.568  17.814  14.822  0.2241  0.1165  0.2319
66147W        W67011  10.613  15.894  15.120 -0.0654 -0.0352 -0.0133
66148W        W67012   5.945  16.375  18.101 -0.1387 -0.0210 -0.4120
66149W        W67013  12.523  19.306  18.119  0.0344 -0.0596 -0.1853
66150W        W67014   5.955  19.754  13.998  0.0755 -0.0277 -0.0085
66151W        W67015   7.450  16.450  13.883  0.1759  0.1309 -0.3391
66152W        W67016  10.727  15.818  18.044 -0.0244 -0.2126  0.0692
66153W        W67017  11.356  16.153  18.868  0.2559 -0.2741  0.0539
66154W        W67018   7.550  15.992  15.833  0.1130  0.2654  0.2894
66155W        W67019   8.725  19.834  16.465 -0.0861  0.2931 -0.0307
66156W        W67020   9.113  17.659  17.348 -0.2631 -0.1797 -0.2302
66157W        W67021   9.187  15.876  19.544 -0.0767 -0.2503 -0.0104
66158W        W67022   9.102  19.119  18.145  0.3010 -0.1448 -0.4169
66159W        W67023  12.259  16.986  17.159  0.3552 -0.0864 -0.0864
66160W        W67024   7.196  16.975  17.699  0.0057 -0.1591 -0.0723
66161W        W67025  10.297  17.060  18.291  0.0496 -0.0118  0.3012
66162W        W67026   9.822  19.457  17.111  0.2450  0.0249 -0.3615
66163W        W67027   5.968  19.926  15.909 -0.0297  0.2243 -0.0616
66164W        W67028  10.312  13.649  15.581 -0.1659  0.1615 -0.1405
66165W        W67029  10.067  17.143  15.609 -0.1711 -0.1872 -0.0191
66166W        W67030  11.829  15.142  14.750  0.1400 -0.3169  0.3918
66167W        W67031   7.516  18.710  14.190 -0.1538  0.2719 -0.0620
66168W        W67032   7.327  15.465  12.863 -0.0859 -0.0408 -0.0897
66169W        W67033   5.006  18.106  23.501 -0.0552 -0.1763 -0.0848
66170W        W67034   9.042  15.377  19.136  0.2140  0.1646 -0.2203
66171W        W67035   8.966  16.409  15.989 -0.0794 -0.0361  0.2726
66172W        W67036   8.086  16.084  24.201  0.3586  0.4218  0.1845
66173W        W67037  10.629  18.333  19.438 -0.1792  0.1469  0.0782
66174W        W67038   7.113  16.881  18.247  0.0184 -0.1422  0.1273
66175W        W67039   9.431  15.139  18.451  0.1310 -0.1672  0.3164
66176W        W67040   9.118  16.979  18.056  0.1836 -0.0554 -0.2930
66177W        W67041  10.135  16.574  18.295 -0.0152  0.2097 -0.1282
66178W        W67042   4.714  13.128  19.269 -0.0344 -0.1310 -0.0149
66179W        W67043   7.051  11.967  20.679  0.2296  0.0360  0.2889
66180W        W67044   7.817  13.116  19.603 -0.1821 -0.2944  0.2188
66181W        W67045  10.425  14.416  20.477 -0.1356  0.0640  0.2095
66182W        W67046  11.134  16.566  21.947  0.0372  0.0958  0.3064
66183W        W67047   5.615  14.637  19.305  0.2789  0.1307  0.0769
66184W        W67048   8.052  16.238  22.128 -0.1087 -0.1742 -0.0648
66185W        W67049   8.268  16.933  18.578  0.3591 -0.2100 -0.2646
66186W        W67050   5.107  15.665  20.829 -0.0085 -0.0881  0.2031
66187W        W67051   8.034  16.087  21.061  0.0061  0.1262 -0.1472
66188W        W67052   9.950  18.048  20.952 -0.0042  0.0662  0.2109
66189W        W67053   9.954  18.254  21.452  0.1823  0.1690 -0.1174
66190W        W67054   8.567  15.663  17.771 -0.1068  0.1281  0.2326
66191W        W67055   8.287  14.466  20.704  0.1692 -0.1784  0.1480
66192W        W67056   9.182  17.655  21.671 -0.0763  0.0295  0.0993
66193W        W67057   4.854  14.099  20.840 -0.1260  0.2813 -0.0234
66194W        W67058   5.594  18.592  22.712 -0.0159  0.1365 -0.0432
66195W        W67059  13.094  13.472  21.650 -0.0384  0.1491 -0.1210
66196W        W67060   8.799  16.010  21.437 -0.1172 -0.1415  0.1680
66197W        W67061   8.224  16.458  19.803 -0.1414 -0.2406 -0.2183
66198W        W67062   8.473  16.879  19.629 -0.0558 -0.3015 -0.1904
66199W        W67063   6.848  19.070  19.520 -0.0096 -0.0630 -0.0507
66200W        W67064  10.014  19.658  21.854  0.2185 -0.0669 -0.1318
66201W        W67065   8.536  14.955  19.416 -0.2541  0.0245 -0.3817
66202W        W67066   7.110  17.469  19.978  0.1045  0.3425 -0.2118
66203W        W67067   9.410  13.659  19.510 -0.3125 -0.0624  0.3524
66204W        W67068  10.486  16.310  24.331 -0.0416  0.0867 -0.0319
66205W        W67069   8.235  16.390  17.249 -0.2778 -0.1502  0.1003
66206W        W67070   7.152  17.183  21.158  0.1044 -0.0557  0.0343
66207W        W67071  11.469  15.994  21.261 -0.2691 -0.1328  0.4229
66208W        W67072  10.148  13.106  17.152  0.2390 -0.1818  0.0405
66209W        W67073  12.089  13.258  15.832  0.1227  0.2278 -0.0675
66210W        W67074   8.101  14.652  18.571  0.1055 -0.4187 -0.0344
66211W        W67075   9.656  19.240  19.436 -0.1025  0.3489 -0.1248
66212W        W67076  12.361  19.098  19.075  0.0613  0.2241 -0.0776
66213W        W67077   7.570  16.199  21.925 -0.0935 -0.0808 -0.1203
66214W        W67078   5.521  17.465  19.741 -0.0930  0.2073  0.1906
66215W        W67079   7.794  16.758  19.757 -0.2750  0.1547  0.1954
66216W        W67080   7.048  16.220  20.774  0.0112 -0.0373 -0.1800
66217W        W67081  11.522  18.171  16.459 -0.1004  0.2200  0.0736
66218W        W67082  11.762  15.293  17.205 -0.0374  0.1832  0.3236
66219W        W67083   9.459  18.777  20.333 -0.2195  0.1158  0.1360
66220W        W67084   9.040  15.888  20.084 -0.2903 -0.3275  0.1220
66221W        W67085  12.186  19.131  19.624 -0.2437  0.1353 -0.0208
66222W        W67086  12.256  17.120  18.046  0.0446 -0.1441 -0.0732
66223W        W67087   7.680  13.047  17.801 -0.1260 -0.0886  0.0352
66224W        W67088   6.255  16.119  20.098  0.0976 -0.0761 -0.0234
66225W        W67089   9.170  12.285  20.684 -0.2888  0.0581 -0.1041
66226W        W67090   9.565  15.727  20.857  0.3458 -0.1828 -0.2706
66227W        W67091   8.628  16.636  20.074  0.0112 -0.0260  0.0396
66228W        W67092   8.319  17.500  20.470  0.1674  0.1479  0.4616
66229W        W67093   8.907  15.970  18.621  0.1445 -0.1636 -0.1653
66230W        W67094   6.769  16.664  19.586 -0.1284 -0.1672  0.0188
66231W        W67095   8.868  15.023  20.736 -0.0819 -0.0230  0.1823
66232W        W67096   9.397  16.730  21.326 -0.0795 -0.2177  0.2556
66233W        W67097  10.068  16.649  17.374 -0.1902  0.1829 -0.1814
66234W        W67098   9.604  16.075  19.912  0.0697 -0.1362 -0.2617
66235W        W67099   9.073  15.645  17.596 -0.3792 -0.2703 -0.1494
66236W        W67100   7.919  14.248  19.855  0.0241  0.0900  0.2180
66237W        W67101   4.845  15.562  17.571  0.1821 -0.0007  0.2367
66238W        W67102   7.148  20.126  21.188  0.0398  0.1167  0.1598
66239W        W67103   9.673  16.681  22.293  0.2560 -0.2976 -0.0282
66240W        W67104   7.169  15.030  17.710 -0.4114 -0.0537  0.1997
66241W        W67105  10.488  17.615  18.883 -0.2054 -0.0818 -0.0865
66242W        W67106  11.002  17.064  21.785  0.0691  0.1358  0.0589
66243W        W67107  11.279  18.922  19.463  0.3487 -0.0710 -0.1077
66244W        W67108  11.435  16.669  23.114  0.2152  0.0817  0.0383
66245W        W67109   8.543  15.210  17.989 -0.5409 -0.1896 -0.4028
66246W        W67110   5.704  17.633  20.711 -0.3009  0.1007 -0.2257
66247W        W67111   9.282  14.003  19.122 -0.2560 -0.0027  0.3422
66248W        W67112   8.727  17.160  19.976 -0.2492 -0.1088 -0.1786
66249W        W67113   5.682  13.955  20.150  0.1005 -0.0419  0.1886
66250W        W67114   6.977  17.373  22.486  0.0551  0.0650 -0.0295
66251W        W67115   8.785  16.415  16.926  0.2367 -0.2100  0.1653
66252W        W67116   9.345  15.644  18.452 -0.0382 -0.5608 -0.1603
66253W        W67117   8.667  16.219  20.625 -0.1622  0.0034 -0.4190
66254W        W67118  10.684  16.122  17.266 -0.0276  0.1185  0.2837
66255W        W67119  10.403  19.430  23.675  0.0485 -0.0314  0.0427
66256W        W67120   8.737  15.807  20.976 -0.0137  0.0001 -0.0610
66257W        W67121  14.115  15.839  21.599 -0.0149  0.1262 -0.2141
66258W        W67122  11.703  16.388  23.477  0.1226 -0.0654 -0.1172
66259W        W67123   9.526  15.167  20.835 -0.1225  0.1770  0.0340
66260W        W67124   8.893  16.620  22.456 -0.0792  0.0949  0.0564
66261W        W67125   7.402  16.641  18.624 -0.0077 -0.0576 -0.2794
66262W        W67126   9.557  15.247  19.359  0.1437  0.0171  0.0036
66263W        W67127   7.544  17.167  19.529 -0.3618 -0.2105 -0.1992
66264W        W67128   9.511  14.586  19.267 -0.1591 -0.1841 -0.2061
66265W        W67129  10.874  18.283  18.660 -0.0002 -0.0083 -0.0361
66266W        W67130   7.073  16.801  23.021 -0.1953 -0.0417  0.2720
66267W        W67131   8.323  15.694  18.765  0.1843 -0.0048  0.0587
66268W        W67132  11.468  13.745  19.227  0.0112 -0.0492  0.0423
66269W        W67133  12.279  17.713  20.170 -0.2654 -0.1480 -0.0878
66270W        W67134   4.592  17.273  20.322  0.2880  0.0481 -0.1231
66271W        W67135   9.878  15.842  17.577 -0.2380 -0.1655 -0.1168
66272W        W67136   9.575  15.076  19.804 -0.0886  0.0273  0.1667
66273W        W67137   9.678  14.695  18.753  0.1900  0.2845 -0.0663
66274W        W67138   9.462  14.826  22.239  0.0707  0.1316  0.2007
66275W        W67139  10.119  17.294  21.545  0.2222 -0.1540 -0.1289
66276W        W67140  11.038  15.328  22.410 -0.3729 -0.3211  0.1625
66277W        W67141   9.552  14.367  20.776 -0.4636 -0.0469  0.0357
66278W        W67142   8.478  14.352  20.188 -0.1214  0.0933 -0.1514
66279W        W67143   9.830  16.943  21.413  0.0074  0.1836  0.1297
66280W        W67144   9.528  16.191  16.910 -0.0227 -0.2376  0.3111
66281W        W67145   8.441  14.012  19.842 -0.1933  0.0098 -0.0215
66282W        W67146   8.340  18.117  23.736  0.4203  0.1996  0.0251
66283W        W67147  10.533  17.646  19.574 -0.3662  0.0908  0.0944
66284W        W67148   8.573  14.712  18.912 -0.0643 -0.2103 -0.1851
66285W        W67149   9.875  15.993  20.527  0.0799 -0.0351 -0.0781
66286W        W67150  10.666  17.510  20.615  0.0098 -0.0202  0.1231
66287W        W67151   7.977  16.611  23.490  0.1652  0.0304  0.2123
66288W        W67152  10.250  15.686  20.483  0.0550 -0.2812 -0.0530
66289W        W67153   9.536  16.667  18.048 -0.0883  0.3103 -0.3078
66290W        W67154  12.669  17.422  18.354 -0.2808 -0.0353  0.2750
66291W        W67155   9.350  19.646  19.186  0.3731 -0.0208 -0.0012
66292W        W67156  11.960  15.861  21.386  0.1335  0.0583 -0.0092
66293W        W67157   8.272  15.180  21.444 -0.1118  0.1536 -0.3354
66294W        W67158  10.073  17.322  19.719  0.1633 -0.0552 -0.1646
66295W        W67159   6.161  19.200  18.898  0.0828  0.0064 -0.1640
66296W        W67160   6.642  19.222  20.406 -0.0441  0.0957  0.0453
66297W        W67161  11.328  16.759  18.901 -0.2910  0.2709 -0.0573
66298W        W67162   8.210  18.952  19.972  0.0025  0.3096 -0.2207
66299W        W67163  11.404  16.201  22.872  0.1364  0.0996  0.2440
66300W        W67164   8.728  15.809  19.089 -0.0017 -0.2843  0.1616
66301W        W67165   7.693  17.484  21.178  0.2678  0.1797 -0.2692
66302W        W67166   9.240  12.769  19.527 -0.2124 -0.0603  0.0210
66303W        W67167   7.816  18.335  21.742 -0.2010 -0.0644  0.3460
66304W        W67168   6.533  17.510  19.310  0.1025  0.2582 -0.1129
66305W        W67169   8.483  13.835  19.383  0.2906  0.0012 -0.0443
66306W        W67170   7.477  18.824  21.431 -0.0125  0.2160  0.4667
66307W        W67171   7.395  15.928  19.191 -0.1130 -0.0717  0.2034
66308W        W67172   6.888  16.486  22.560 -0.1265  0.2986 -0.2221
66309W        W67173   9.414  15.613  21.417 -0.2398  0.0030  0.0645
66310W        W67174   8.833  14.054  22.381  0.1431 -0.0131  0.0509
66311W        W67175   7.190  18.307  19.522 -0.1128 -0.0725  0.0154
66312W        W67176  10.684  16.661  17.340 -0.0229  0.0423 -0.3420
66313W        W67177   9.094  16.416  21.531  0.1602 -0.4691  0.0374
66314W        W67178   7.071  15.381  21.057 -0.0435 -0.3679  0.2904
66315W        W67179   9.572  13.520  20.054  0.0835 -0.2127  0.2712
66316W        W67180  10.552  19.576  20.576  0.0784  0.0689 -0.0087
66317W        W67181   6.937  17.729  22.896 -0.2348 -0.0681 -0.2845
66318W        W67182   9.152  13.077  19.928 -0.0184 -0.1106 -0.0333
66319W        W67183   8.344  17.720  21.929 -0.2498  0.0551 -0.2070
66320W        W67184   9.375  16.203  20.355 -0.0153  0.1494  0.1546
66321W        W67185  11.181  17.106  20.196 -0.0010  0.0238 -0.1562
66322W        W67186   8.642  14.987  16.366 -0.0577  0.1502  0.2633
66323W        W67187   9.381  15.045  17.503  0.0972 -0.0966  0.1153
66324W        W67188   9.365  12.461  19.845  0.1187  0.0757  0.1616
66325W        W67189   6.109  15.678  18.606  0.2365  0.1134 -0.5085
66326W        W67190   8.519  15.228  19.024 -0.1018  0.1273 -0.0477
66327W        W67191   6.989  13.397  18.359  0.3046 -0.2834 -0.1218
66328W        W67192   9.063  17.276  21.312  0.0389 -0.1322 -0.1560
66329W        W67193   8.147  14.790  19.163  0.2169  0.0270  0.2978
66330W        W67194   6.780  17.929  21.615  0.0805 -0.1085  0.0891
66331W        W67195   7.204  18.574  22.934  0.0073  0.0604 -0.3565
66332W        W67196  12.002  17.711  22.758 -0.1506 -0.0532 -0.0669
66333W        W67197   9.659  13.262  23.739  0.0557  0.0502  0.2119
66334W        W67198   4.655  15.653  18.959  0.1557 -0.1957  0.0359
66335W        W67199   8.330  16.745  17.710  0.2357 -0.4120 -0.1530
66336W        W67200   7.037  17.401  20.714 -0.1731 -0.1248 -0.0677
66337W        W67201   8.426  15.411  21.852  0.4988  0.0240  0.0779
66338W        W67202  10.390  15.727  17.096  0.1156  0.0350  0.1276
66339W        W67203   7.857  16.484  18.452 -0.3579 -0.0393 -0.1628
66340W        W67204  11.147  17.961  21.276 -0.0017 -0.0503  0.0188
66341W        W67205   8.298  15.627  20.880  0.0296 -0.0146  0.1043
66342W        W67206  10.211  18.520  17.469 -0.1485  0.2635  0.0760
66343W        W67207   9.123  14.683  18.245  0.1758 -0.1379 -0.0683
66344W        W67208   9.587  15.933  23.008  0.1267  0.0395  0.3207
66345W        W67209   9.129  19.126  23.181  0.2511 -0.0420  0.0823
66346W        W67210   7.810  15.289  23.131 -0.2048  0.2023 -0.1117
66347W        W67211   9.174  18.838  18.735 -0.0400 -0.2686 -0.2579
66348W        W67212   7.708  15.663  18.777 -0.0429 -0.2245  0.0980
66349W        W67213   8.309  18.773  18.892  0.0786  0.2617  0.1057
66350W        W67214  11.989  19.992  21.190  0.2459 -0.0218 -0.2536
66351W        W67215   7.094  15.915  20.353 -0.1393 -0.0154  0.2706
66352W        W67216   9.239  14.305  19.597 -0.1236 -0.1710  0.2840
66353W        W67217   9.072  14.233  17.493 -0.2734 -0.0766  0.0330
66354W        W67218   9.105  16.373  19.941  0.1142  0.1928  0.2159
66355W        W67219  10.542  15.243  17.025 -0.0678 -0.0235  0.0162
66356W        W67220   7.455  14.504  19.955  0.2343  0.0164 -0.2037
66357W        W67221   6.342  14.461  19.327  0.0047 -0.1648  0.0635
66358W        W67222   7.644  17.932  21.391  0.2236  0.2025  0.0197
66359W        W67223   8.731  18.751  18.399 -0.0716  0.2557 -0.1347
66360W        W67224   6.980  17.418  19.003  0.3046  0.2042 -0.0228
66361W        W67225   7.897  15.514  21.158 -0.0535  0.1576  0.1287
66362W        W67226   6.678  14.726  20.610 -0.1069  0.2232 -0.2444
66363W        W67227  11.692  12.961  23.230 -0.0546 -0.0200 -0.1375
66364W        W67228   7.681  14.123  19.356 -0.0144  0.0577 -0.0300
66365W        W67229   8.802  11.481  19.228 -0.1513  0.1495  0.0862
66366W        W67230   6.661  15.704  20.444  0.0882  0.0758 -0.0971
66367W        W67231   7.580  16.095  18.551  0.0917 -0.0474  0.1136
66368W        W67232   9.820  11.556  20.418 -0.1649 -0.0568  0.0050
66369W        W67233   8.266  15.957  19.237 -0.0777  0.2278 -0.2591
66370W        W67234   8.541  15.630  19.991  0.0547 -0.1032 -0.0414
66371W        W67235  11.685  16.255  18.044 -0.0302  0.3056  0.2760
66372W        W67236   8.173  15.908  19.746  0.0580 -0.1294  0.2710
66373W        W67237  10.326  17.916  20.571 -0.1728  0.0284 -0.0296
66374W        W67238   8.556  15.645  18.285  0.3733 -0.0098 -0.3566
66375W        W67239   7.318  15.727  21.710 -0.0050  0.1572  0.2186
66376W        W67240  10.290  19.792  22.240 -0.0065  0.1282 -0.0343
66377W        W67241   8.367  15.720  21.340 -0.1166  0.0713  0.2045
66378W        W67242   9.168  14.495  18.703  0.6359  0.1314  0.2806
66379W        W67243   7.183  16.899  22.479 -0.0809 -0.0937 -0.0105
66380W        W67244   7.158  17.767  21.259 -0.2222  0.3255  0.0062
66381W        W67245   9.155  18.005  22.092  0.1136  0.0007  0.1006
66382W        W67246   9.977  14.418  21.614 -0.2869  0.1988  0.0827
66383W        W67247  10.434  16.273  19.534  0.2323  0.2001  0.1112
66384W        W67248   9.600  17.734  17.315  0.0916 -0.1320 -0.0423
66385W        W67249   9.507  17.697  18.883 -0.2391 -0.4178 -0.0200
66386W        W67250   8.396  18.467  19.250  0.1291  0.0103  0.0727
66387W        W67251   9.380  14.529  23.037  0.1415 -0.1680 -0.3418
66388W        W67252   7.192  18.288  21.421  0.3893  0.2951  0.1280
66389W        W67253  11.266  13.059  21.468 -0.0745 -0.0104  0.1037
66390W        W67254  10.307  16.632  19.221  0.2634  0.0254 -0.0042
66391W        W67255   7.557  17.642  23.601 -0.0820 -0.1125 -0.0391
66392W        W67256   6.616   9.192  19.704  0.0491  0.1846  0.1311
66393W        W67257  11.294  16.781  18.065 -0.2531  0.0613  0.1400
66394W        W67258   5.731  17.138  21.608 -0.0162  0.1896 -0.0269
66395W        W67259   7.604  16.530  22.364 -0.1036 -0.1714  0.0069
66396W        W67260   8.926  14.183  21.883  0.1258  0.2626  0.0808
66397W        W67261  10.525  18.122  19.899  0.1136  0.0736  0.0857
66398W        W67262  10.596  14.827  23.649 -0.0944 -0.1013 -0.0641
66399W        W67263   8.616  15.253  21.118  0.0578 -0.1134 -0.0391
66400W        W67264   7.357  16.490  21.544  0.0479 -0.1539  0.0160
66401W        W67265   7.696  18.657  19.617 -0.2332 -0.2624  0.0361
66402W        W67266   8.743  18.531  19.879  0.0763  0.1834  0.0864
66403W        W67267   3.699  13.781  22.188  0.3285  0.1008  0.0737
66404W        W67268   9.588  19.002  19.009 -0.1034 -0.2660  0.1809
66405W        W67269  11.744  16.934  19.120  0.1247 -0.2825 -0.1874
66406W        W67270   9.874  13.701  20.371  0.1296  0.3946 -0.1183
66407W        W67271   9.450  14.515  21.353 -0.1934 -0.1900 -0.0416
66408W        W67272  11.718  17.443  17.355  0.1783  0.2138  0.1557
66409W        W67273  10.590  16.195  18.271  0.0465  0.0025 -0.0307
66410W        W67274   6.321  18.652  23.410  0.0914  0.0919 -0.1885
66411W        W67275   8.460  14.520  22.118  0.1593 -0.2665 -0.1999
66412W        W67276   9.187  17.231  17.587  0.3023 -0.0495 -0.0897
66413W        W67277   8.560  13.406  17.386  0.1013 -0.2573 -0.0038
66414W        W67278   7.712  17.267  17.208  0.0312  0.1497  0.2393
66415W        W67279   9.223  13.959  19.932  0.2437 -0.0618  0.4126
66416W        W67280   7.694  16.123  19.578 -0.0213 -0.0684  0.2137
66417W        W67281  10.803  18.106  17.831  0.0309 -0.1788 -0.2123
66418W        W67282   8.404  15.439  19.533  0.0806  0.1095  0.3230
66419W        W67283   6.929  20.611  20.664  0.2200 -0.0907 -0.1785
66420W        W67284   7.345  18.245  20.397 -0.0762  0.1781 -0.0278
66421W        W67285   9.225  18.017  22.659 -0.1507  0.3123 -0.0716
66422W        W67286   6.963  17.272  22.980 -0.0758 -0.2950  0.0793
66423W        W67287   6.816  15.880  17.729  0.0933 -0.1805  0.2651
66424W        W67288  12.310  16.256  20.525  0.3144  0.0674 -0.0758
66425W        W67289   9.949  14.810  20.119  0.0539  0.0464 -0.0802
66426W        W67290   5.836  16.885  19.609 -0.2259  0.1917  0.1155
66427W        W67291   9.772  16.963  19.862 -0.0518 -0.0025  0.2126
66428W        W67292   9.761  15.744  18.103  0.0686  0.0140 -0.0536
66429W        W67293   9.868  14.774  21.236 -0.2071  0.0782 -0.0128
66430W        W67294   9.960  12.173  19.652 -0.1214  0.2444  0.2800
66431W        W67295   8.934  18.427  21.071  0.0844  0.1213 -0.1381
66432W        W67296   6.612  14.988  22.968  0.1202 -0.2023  0.0370
66433W        W67297   9.747  19.737  21.447  0.1879 -0.0498 -0.3156
66434W        W67298   7.934  17.829  23.966 -0.0452 -0.1276  0.4787
66435W        W67299   7.684  18.368  20.049 -0.2341 -0.3153 -0.3944
66436W        W67300   9.326  16.592  18.985 -0.1037  0.3174 -0.3577
66437W        W67301   8.671  14.379  19.545  0.0103 -0.0157  0.2081
66438W        W67302  11.372  15.319  19.978 -0.4288 -0.1676  0.2405
66439W        W67303   8.821  14.822  22.371  0.2702 -0.2903 -0.4766
66440W        W67304  10.120  14.812  22.392  0.1517  0.0176  0.5106
66441W        W67305   8.498  14.399  21.626  0.0131  0.2074  0.1916
66442W        W67306   8.407  13.919  18.410  0.0649  0.0885  0.1582
66443W        W67307   9.786  20.169  21.816  0.2090 -0.2109 -0.0128
66444W        W67308  10.237  16.329  21.739 -0.1411  0.0530 -0.2245
66445W        W67309   8.193  14.128  23.976 -0.0747  0.0498 -0.2664
66446W        W67310   7.841  14.589  19.537 -0.0647 -0.1575  0.2133
66447W        W67311   7.043  14.901  19.081  0.4212  0.2525 -0.3955
66448W        W67312   6.133  20.456  21.331 -0.1817 -0.0962 -0.1260
66449W        W67313  10.409  17.661  21.912 -0.1360  0.0040  0.2164
66450W        W67314  11.116  16.674  17.617 -0.4861 -0.1482  0.1875
66451W        W67315   8.565  14.790  21.307  0.1407 -0.0501 -0.2627
66452W        W67316   9.004  18.306  19.518  0.3163 -0.0827  0.2364
66453W        W67317   9.711  16.571  18.588  0.0595 -0.0553 -0.3168
66454W        W67318   8.771  14.487  20.946 -0.0020 -0.3864  0.0620
66455W        W67319  10.968  17.016  22.273  0.1395 -0.4281  0.3178
66456W        W67320   7.559  14.965  19.596  0.0186  0.1237  0.2964
66457W        W67321  10.839  14.671  17.531 -0.0985 -0.1811 -0.3003
66458W        W67322   9.605  17.358  21.598 -0.1304  0.1358  0.1381
66459W        W67323   9.099  15.436  21.027  0.0562 -0.0936 -0.0317
66460W        W67324  11.175  14.883  18.340 -0.2291  0.0999 -0.0642
66461W        W67325  10.626  13.168  23.020  0.0890 -0.1536 -0.0469
66462W        W67326  10.037  15.811  20.047  0.2760  0.0389 -0.1977
66463W        W67327   9.192  17.786  20.403  0.2015 -0.2477  0.1836
66464W        W67328   8.791  14.001  21.047  0.2439 -0.0474  0.2133
66465W        W67329  10.051  16.279  16.709  0.4240 -0.0500  0.0783
66466W        W67330   9.289  14.645  20.487 -0.3121  0.4232  0.0440
66467W        W67331  13.374  14.051  20.865 -0.2796 -0.0752 -0.1821
66468W        W67332   9.168  17.186  20.342  0.3208  0.1935 -0.0888
66469W        W67333   6.721  17.764  18.751 -0.2177  0.0297 -0.0077
66470W        W67334  10.582  14.702  24.161 -0.2609  0.3560 -0.0346
66471W        W67335   8.696  17.962  21.525  0.1004 -0.1233  0.0891
66472W        W67336   9.256  16.070  21.217  0.0851 -0.0463 -0.0529
66473W        W67337  10.918  17.372  18.950  0.1333  0.0005  0.0224
66474W        W67338   8.611  18.165  21.956  0.1072  0.0677 -0.0880
66475W        W67339   8.960  17.066  23.948 -0.1930  0.0069 -0.2080
66476W        W67340   8.649  15.535  17.275  0.1020 -0.1618  0.2178
66477W        W67341  10.374  16.981  19.598  0.2417 -0.0239  0.4856
66478W        W67342   7.894  16.121  18.959 -0.1561  0.4440  0.0997
66479W        W67343   6.647  18.606  18.708 -0.1499 -0.1235 -0.0999
66480W        W67344   8.667  13.113  22.013  0.1068 -0.1757  0.0322
66481W        W67345   9.113  13.035  18.619 -0.0694  0.0428 -0.3238
66482W        W67346   8.425  15.922  21.850  0.2595 -0.0049 -0.2760
66483W        W67347   6.365  16.957  19.507 -0.0371 -0.1756  0.0241
66484W        W67348   7.615  19.566  20.733 -0.2493  0.3167 -0.2262
66485W        W67349   8.415  14.898  16.804  0.0607  0.0738  0.0359
66486W        W67350   9.947  16.907  17.845 -0.0432 -0.0045 -0.0407
66487W        W67351   7.732  18.360  20.647 -0.1008 -0.0184 -0.0833
66488W        W67352   7.466  15.550  19.639 -0.1020 -0.1584 -0.0490
66489W        W67353   6.296  21.196  21.203  0.4381 -0.1018 -0.1864
66490W        W67354   9.194  21.157  17.032 -0.1251  0.0433 -0.3424
66491W        W67355   8.331  16.803  21.285 -0.1839  0.0985 -0.1126
66492W        W67356   9.985  15.287  21.076 -0.1100  0.3540 -0.2743
66493W        W67357   9.947  16.928  20.805 -0.1051 -0.1372  0.0681
66494W        W67358   9.529  15.115  20.334  0.1724  0.2096  0.0220
66495W        W67359   9.025  16.257  17.700  0.3564  0.0114 -0.3320
66496W        W67360   7.215  17.939  20.782  0.2551 -0.1484  0.1055
66497W        W67361  10.008  17.795  17.605 -0.1091  0.0742  0.2564
66498W        W67362   7.067  18.364  18.824  0.1584  0.1717  0.2697
66499W        W67363  10.188  16.509  20.936  0.0956 -0.1344 -0.2449
66500W        W67364  11.450  13.900  18.462 -0.1234  0.1843  0.2154
66501W        W67365  11.297  17.195  23.202  0.0426 -0.2392  0.1534
66502W        W67366  10.734  19.101  22.225 -0.1353 -0.1958  0.4158
66503W        W67367   9.288  14.931  23.293 -0.2344  0.0919 -0.0492
66504W        W67368  10.088  19.337  24.337  0.0708  0.0601 -0.1887
66505W        W67369   6.499  19.041  19.915  0.0335  0.3255 -0.2926
66506W        W67370  11.431  15.232  19.328  0.0433  0.2784 -0.3284
66507W        W67371   8.627  13.078  16.987 -0.0773 -0.2467 -0.1787
66508W        W67372   8.945  12.367  19.531  0.0037  0.0797 -0.1457
66509W        W67373   8.862  17.781  19.561  0.0371 -0.2004 -0.6471
66510W        W67374   8.860  17.262  19.523 -0.1262 -0.0310 -0.0795
66511W        W67375   8.355  13.478  21.186 -0.2439 -0.0578  0.1678
66512W        W67376   7.970  18.293  17.967  0.1228  0.0300 -0.2142
66513W        W67377   9.447  16.061  17.875  0.1878 -0.0352 -0.0372
66514W        W67378   8.266  18.373  21.567 -0.1339  0.1515  0.0961
66515W        W67379   7.030  15.710  19.370 -0.2304 -0.0479  0.1989
66516W        W67380   8.583  15.730  20.460 -0.2384  0.1388 -0.0383
66517W        W67381   6.825  14.584  18.718  0.1358  0.0169 -0.2564
66518W        W67382   9.569  17.773  17.841  0.3371 -0.3197  0.2698
66519W        W67383   9.610  16.830  17.446  0.0605 -0.1919 -0.1096
66520W        W67384  10.495  16.465  18.659  0.1178 -0.0150 -0.0885
66521W        W67385   8.684  17.661  20.746 -0.0664 -0.0777 -0.1549
66522W        W67386   9.039  20.643  20.188 -0.0536  0.0993  0.0126
66523W        W67387   9.969  14.475  19.047  0.1553  0.3387 -0.2073
66524W        W67388   6.038  17.985  20.506 -0.2672  0.0438 -0.0708
66525W        W67389  10.900  12.817  22.736 -0.1788  0.3361  0.2381
66526W        W67390   8.650  15.507  23.917 -0.1344  0.1744  0.0922
66527W        W67391   6.672  18.165  22.044  0.2613  0.1800 -0.0627
66528W        W67392   8.868  15.188  17.625 -0.2090 -0.1693  0.0294
66529W        W67393   8.932  16.221  23.891 -0.1299 -0.0499 -0.0526
66530W        W67394   8.146  17.898  21.530 -0.1933  0.0754 -0.4080
66531W        W67395   8.646  14.718  17.983  0.1574  0.0123 -0.1189
66532W        W67396   7.206  17.967  19.931 -0.1875  0.0480  0.0081
66533W        W67397   9.162  18.135  21.544  0.1468  0.2548  0.0552
66534W        W67398   8.477  19.527  21.316 -0.2060 -0.4005 -0.2342
66535W        W67399  10.850  15.963  18.894  0.2159 -0.0461  0.0092
66536W        W67400   9.107  14.700  17.742  0.0862 -0.2910 -0.1673
66537W        W67401   9.602  14.177  18.734  0.2138  0.2386  0.0554
66538W        W67402   7.673  12.874  16.851  0.0190 -0.0391  0.1213
66539W        W67403  10.368  17.246  20.230  0.0784  0.0229 -0.3375
66540W        W67404   9.166  18.467  16.782  0.1389 -0.0105  0.1706
66541W        W67405   8.714  17.416  21.731 -0.2228 -0.2157  0.1252
66542W        W67406   8.454  17.357  17.263 -0.0494 -0.0052 -0.1121
66543W        W67407   7.970  15.653  21.710  0.4466 -0.0775 -0.0615
66544W        W67408   8.369  15.260  23.152  0.0687 -0.0276  0.0622
66545W        W67409  10.335  19.206  20.288  0.2032 -0.0843 -0.2569
66546W        W67410   8.595  17.559  21.261  0.1836  0.3331  0.0224
66547W        W67411   6.312  15.969  22.546  0.1132 -0.1143 -0.3421
66548W        W67412   9.917  15.818  21.206  0.0754  0.4261  0.0499
66549W        W67413   3.783  16.851  17.138  0.0242  0.1864 -0.0787
66550W        W67414   7.146  16.208  18.826 -0.1598  0.2047  0.1054
66551W        W67415  10.768  14.394  20.821  0.1144  0.0543  0.0231
66552W        W67416  10.121  18.526  23.947 -0.0228 -0.0589  0.1286
66553W        W67417  11.079  14.147  22.046  0.0102  0.0283 -0.0438
66554W        W67418  10.522  16.020  19.992 -0.3778 -0.0939  0.1092
66555W        W67419   7.024  19.082  20.058  0.3017 -0.3279  0.0018
66556W        W67420   8.089  18.662  20.856  0.0673  0.0789  0.0479
66557W        W67421  11.620  17.263  20.551 -0.1345 -0.1499  0.0095
66558W        W67422   8.887  17.298  24.486 -0.2167 -0.0301  0.0619
66559W        W67423   7.263  16.736  19.538 -0.0579  0.0616  0.4374
66560W        W67424   9.978  16.440  17.855  0.1617 -0.1206  0.2226
66561W        W67425  10.188  17.560  24.158 -0.2331  0.2288  0.0760
66562W        W67426   9.905  17.019  20.345 -0.3768 -0.2438 -0.0443
66563W        W67427  12.311  15.050  22.965  0.1358 -0.2638 -0.0110
66564W        W67428  10.079  19.152  19.837  0.0898  0.2620 -0.0361
66565W        W67429   9.959  18.227  20.130 -0.0447  0.0464  0.3874
66566W        W67430   9.346  15.442  16.356 -0.1121  0.1131  0.0647
66567W        W67431   6.978  18.710  24.172  0.0135  0.2460  0.0929
66568W        W67432   6.839  14.610  24.071 -0.0718 -0.1194  0.0569
66569W        W67433   7.795  20.104  21.984 -0.3174  0.0211  0.1846
66570W        W67434   9.105  17.850  26.215  0.1338  0.0874  0.1954
66571W        W67435  10.018  17.385  23.676 -0.1010 -0.1389 -0.1013
66572W        W67436   7.762  17.912  23.144 -0.1866 -0.0263 -0.1557
66573W        W67437   6.697  18.452  21.553 -0.0996  0.0682 -0.0972
66574W        W67438   6.913  19.250  23.994 -0.2432  0.1433 -0.1433
66575W        W67439   8.075  17.618  27.007  0.4286 -0.2642 -0.1047
66576W        W67440   7.798  13.777  23.950  0.2212  0.0382 -0.1479
66577W        W67441  10.593  15.467  22.682 -0.1696  0.2764  0.1622
66578W        W67442   8.707  12.689  22.314 -0.4724 -0.1822  0.1136
66579W        W67443   9.652  16.496  23.731  0.1864 -0.0342 -0.0074
66580W        W67444   8.752  18.246  26.166 -0.1942  0.2581  0.3018
66581W        W67445   8.424  12.334  23.877  0.0355  0.0515 -0.0832
66582W        W67446   9.152  18.435  25.594  0.1958  0.2392  0.1805
66583W        W67447   8.068  17.654  23.546 -0.3506 -0.0484 -0.2310
66584W        W67448   6.232  17.373  25.422  0.0257  0.0007  0.0110
66585W        W67449  11.485  16.832  24.764 -0.1728  0.0357  0.0212
66586W        W67450  16.009  16.389  23.648  0.0058  0.1169 -0.0465
66587W        W67451   9.373  12.899  23.542 -0.1490  0.0550  0.1741
66588W        W67452  10.476  18.154  24.036  0.0519 -0.0371 -0.1230
66589W        W67453  10.531  19.959  25.344 -0.2537  0.1687  0.0163
66590W        W67454   6.665  17.179  25.565 -0.1905 -0.1757  0.0090
66591W        W67455   8.123  18.529  24.911  0.2137 -0.4035 -0.1597
66592W        W67456   9.532  17.087  23.781 -0.3439  0.0184 -0.0618
66593W        W67457   9.957  15.122  27.311  0.2504  0.0886 -0.1779
66594W        W67458   9.059  17.652  26.846  0.0086 -0.0418  0.0135
66595W        W67459   9.254  16.451  24.933  0.1268 -0.0960  0.3218
66596W        W67460   9.155  18.472  26.979  0.3384  0.0667 -0.0879
66597W        W67461   7.144  18.317  21.925  0.1485  0.1148 -0.0531
66598W        W67462   8.711  17.891  26.502 -0.4349  0.1993 -0.2363
66599W        W67463  11.476  15.423  26.103 -0.0204  0.1234  0.1136
66600W        W67464   8.734  17.084  26.616 -0.1516 -0.1326 -0.0078
66601W        W67465  10.255  16.080  25.728 -0.3254  0.3282 -0.0493
66602W        W67466  12.120  16.191  23.695  0.0040  0.4684 -0.1463
66603W        W67467   7.703  15.245  22.388  0.1009  0.1423 -0.1078
66604W        W67468   8.966  16.620  23.032 -0.2770  0.1848 -0.0307
66605W        W67469  10.884  17.893  24.187 -0.0230 -0.0939 -0.0700
66606W        W67470  10.503  16.694  25.568 -0.1890  0.0020 -0.0198
66607W        W67471  11.492  15.319  22.114 -0.0393 -0.2768 -0.3265
66608W        W67472  10.022  15.467  24.258 -0.0961 -0.3488 -0.0789
66609W        W67473   8.037  20.028  24.329  0.1440 -0.0038  0.0760
66610W        W67474  11.213  19.095  23.521  0.0327  0.2351 -0.2367
66611W        W67475   8.941  23.046  22.648 -0.0065 -0.0535  0.1222
66612W        W67476   7.679  19.651  21.695 -0.1047 -0.3307  0.1402
66613W        W67477   6.306  14.824  22.640 -0.1275 -0.0478 -0.1650
66614W        W67478  11.719  17.011  25.654  0.0753 -0.2055  0.0274
66615W        W67479   7.814  17.213  25.620 -0.2891 -0.1060 -0.1985
66616W        W67480   9.291  14.471  23.507 -0.0494  0.0858  0.0289
66617W        W67481  10.719  17.552  27.721 -0.2961  0.1236 -0.0825
66618W        W67482   9.000  16.635  23.591 -0.0645  0.1330 -0.1141
66619W        W67483  10.797  17.520  26.647 -0.2567  0.2172  0.1179
66620W        W67484   9.883  13.590  24.107  0.0638 -0.0874  0.0739
66621W        W67485   8.650  12.987  23.359 -0.1657 -0.1030 -0.1314
66622W        W67486   8.891  15.390  23.153 -0.3215  0.1124  0.0723
66623W        W67487   7.862  14.361  22.241 -0.0874  0.0818 -0.1539
66624W        W67488  11.583  15.208  24.642 -0.1877 -0.0860  0.3197
66625W        W67489   7.217  17.916  23.973 -0.0326 -0.2772 -0.1694
66626W        W67490   9.263  16.275  22.815 -0.1308 -0.0145  0.1351
66627W        W67491  11.183  15.616  23.624  0.2451  0.2707 -0.0078
66628W        W67492   6.389  17.533  25.867 -0.0607  0.0770 -0.1061
66629W        W67493   6.687  17.931  24.717  0.1216  0.2590  0.2141
66630W        W67494   7.068  17.466  23.749 -0.1109 -0.1922  0.1847
66631W        W67495   9.424  13.519  23.351 -0.3222  0.0648  0.1407
66632W        W67496  13.655  16.475  24.790 -0.1281  0.1986  0.3012
66633W        W67497   9.867  15.341  20.086 -0.2922 -0.0686 -0.2212
66634W        W67498   7.638  15.948  21.379  0.0362  0.3004 -0.1790
66635W        W67499   7.080  18.495  25.798 -0.2053  0.0316  0.1025
66636W        W67500  10.913  16.985  22.801 -0.3534  0.2452  0.0880
66637W        W67501  10.856  19.142  26.078 -0.0977 -0.2567  0.1514
66638W        W67502  10.032  14.091  24.009  0.1052 -0.3018  0.2597
66639W        W67503  12.613  16.135  23.624  0.1062  0.1862 -0.0987
66640W        W67504   8.726  16.436  24.831  0.0515 -0.0988  0.1325
66641W        W67505  11.140  18.107  23.659  0.4681  0.2570 -0.0255
66642W        W67506   9.634  16.535  28.133 -0.2421  0.0648  0.1556
66643W        W67507   8.148  16.443  23.915 -0.3177 -0.0024 -0.1797
66644W        W67508   7.814  19.514  24.939  0.0202 -0.2139  0.1039
66645W        W67509   8.225  18.115  24.407  0.0732 -0.0046  0.2970
66646W        W67510  10.690  17.962  24.950 -0.1760  0.1206  0.0037
66647W        W67511   6.763  16.377  23.112  0.1487  0.0546  0.1506
66648W        W67512   8.552  15.592  22.761 -0.1275  0.3168 -0.0613
66649W        W67513   8.031  14.597  22.726 -0.1791 -0.0905 -0.1420
66650W        W67514  10.804  17.494  25.733 -0.1550  0.3439 -0.2755
66651W        W67515   9.747  16.158  25.994  0.1715 -0.2350 -0.2798
66652W        W67516  10.173  15.743  22.146  0.0044 -0.2942  0.1231
66653W        W67517  11.564  18.319  26.353  0.1468 -0.1550  0.1897
66654W        W67518   9.521  15.271  23.542 -0.0525 -0.1989  0.1630
66655W        W67519  11.347  16.269  26.495 -0.1324 -0.1648 -0.0319
66656W        W67520  11.623  16.265  27.084  0.0495  0.1224 -0.2443
66657W        W67521  11.785  14.087  24.056  0.1171  0.2823  0.0195
66658W        W67522  10.532  17.310  26.217  0.1908  0.1222  0.3043
66659W        W67523   7.719  16.584  22.920 -0.1306 -0.0102  0.2315
66660W        W67524   7.356  17.638  20.384 -0.1343 -0.2909  0.1398
66661W        W67525   7.258  15.602  23.989 -0.1857  0.3790 -0.1609
66662W        W67526  12.011  15.878  25.376 -0.1480  0.0063 -0.5297
66663W        W67527   9.965  14.514  24.800  0.1771  0.0750  0.0021
66664W        W67528   9.864  19.728  26.404 -0.1368 -0.2639 -0.2904
66665W        W67529   5.495  15.385  20.998 -0.0836 -0.3824  0.0177
66666W        W67530  11.428  15.672  24.105 -0.0549  0.0643 -0.0087
66667W        W67531  11.846  19.403  25.068  0.1883  0.1463 -0.1945
66668W        W67532   6.423  17.415  22.769  0.1290 -0.1702 -0.1879
66669W        W67533   8.168  15.695  24.827 -0.0898  0.0593  0.2757
66670W        W67534  10.788  20.072  24.792 -0.2277  0.1792 -0.1908
66671W        W67535  12.477  14.529  25.154 -0.0524 -0.0706  0.0255
66672W        W67536   7.701  15.947  24.490  0.0716  0.0696  0.3013
66673W        W67537   6.634  19.403  24.625  0.2674  0.1209  0.0343
66674W        W67538   7.032  15.800  26.334  0.2718 -0.1216  0.1431
66675W        W67539   8.399  13.400  24.856  0.2342 -0.0941  0.0050
66676W        W67540   9.174  15.464  25.147  0.2343 -0.5206  0.0003
66677W        W67541  10.031  17.481  25.568  0.0750 -0.2956  0.3490
66678W        W67542   9.387  16.091  23.928  0.1797  0.3025  0.0380
66679W        W67543  14.019  16.145  22.238 -0.2124  0.1258 -0.2084
66680W        W67544  11.305  18.190  25.263 -0.0999  0.1560 -0.2586
66681W        W67545  10.176  19.058  23.912  0.0457  0.0747 -0.0130
66682W        W67546  12.145  18.849  24.254  0.0181  0.0567  0.0443
66683W        W67547  13.351  12.932  24.227 -0.0024 -0.1538  0.1292
66684W        W67548  10.408  18.959  24.429  0.2935  0.1052  0.1643
66685W        W67549  10.792  17.421  24.823 -0.0643 -0.1935  0.1388
66686W        W67550  10.984  17.084  24.536  0.3032 -0.2840 -0.2390
66687W        W67551  11.360  14.716  24.379 -0.1479  0.0192 -0.0906
66688W        W67552  11.118  17.489  22.818 -0.0085 -0.2922  0.3686
66689W        W67553   9.900  17.748  25.082  0.1070  0.3107 -0.2679
66690W        W67554  10.534  15.513  24.283 -0.0093 -0.3054  0.2420
66691W        W67555   7.812  17.170  23.487 -0.1311 -0.0873 -0.1610
66692W        W67556  12.737  14.462  26.583  0.1207 -0.1174  0.1118
66693W        W67557   5.533  15.518  22.221 -0.2093 -0.2306 -0.0238
66694W        W67558   8.753  17.833  24.506 -0.4067 -0.2089 -0.3353
66695W        W67559   9.089  21.889  24.989 -0.3812  0.0285 -0.2136
66696W        W67560   6.384  15.612  23.178 -0.1193 -0.0688  0.0624
66697W        W67561  10.863  20.419  25.519 -0.0736 -0.1181  0.0567
66698W        W67562  11.529  15.713  25.646 -0.0354  0.0464  0.0615
66699W        W67563   9.544  16.763  22.744 -0.0265  0.2337 -0.2857
66700W        W67564   9.912  14.254  23.044 -0.5161  0.2902 -0.0045
66701W        W67565   9.941  16.932  25.501  0.1597 -0.0231 -0.0747
66702W        W67566   8.570  16.331  24.318  0.0199 -0.2291 -0.2429
66703W        W67567  11.318  12.705  23.018  0.0772  0.0839 -0.0501
66704W        W67568  10.097  18.175  25.218 -0.2973 -0.0017 -0.0739
66705W        W67569   9.934  18.034  23.029  0.2971  0.0138  0.1336
66706W        W67570   8.206  19.815  23.221 -0.4978  0.2032  0.2817
66707W        W67571   9.864  16.402  23.145  0.1297 -0.1060 -0.1291
66708W        W67572  10.080  15.927  23.063 -0.0029  0.1865  0.0001
66709W        W67573   6.341  18.337  20.619  0.1107  0.1138  0.2604
66710W        W67574   8.708  16.814  24.484  0.0584 -0.0624  0.0050
66711W        W67575   8.881  16.132  25.145  0.2917 -0.0746  0.1867
66712W        W67576   8.521  13.893  24.545  0.0972 -0.0271  0.0742
66713W        W67577   7.849  13.074  22.592  0.4739  0.4367 -0.0840
66714W        W67578  10.216  18.776  23.508  0.0304  0.1683  0.6445
66715W        W67579   8.397  15.649  23.454 -0.1341 -0.0993 -0.0778
66716W        W67580   8.758  17.054  23.182 -0.0319 -0.2866  0.3340
66717W        W67581  10.046  21.135  25.798 -0.0675 -0.0604  0.2231
66718W        W67582   7.215  16.599  22.068  0.0479 -0.2766  0.3464
66719W        W67583   7.453  19.337  26.786 -0.0878 -0.1379  0.0072
66720W        W67584   8.099  13.934  20.259  0.0309 -0.1799  0.1685
66721W        W67585  10.843  18.257  23.209  0.0506  0.0602  0.3008
66722W        W67586  10.536  15.173  23.164 -0.2277  0.0930  0.1982
66723W        W67587   5.806  16.263  25.860  0.4068  0.1348 -0.1194
66724W        W67588  10.931  15.125  22.852  0.0312 -0.0838  0.1546
66725W        W67589  10.453  16.720  20.036 -0.2452  0.1310 -0.2917
66726W        W67590   9.098  19.209  27.251 -0.0202 -0.0382 -0.0812
66727W        W67591  11.047  13.712  24.575  0.0238  0.1615  0.1172
66728W        W67592   9.568  18.387  24.227 -0.0933 -0.0118 -0.3391
66729W        W67593  11.692  18.504  25.409  0.5286 -0.0006  0.2820
66730W        W67594  10.385  14.635  26.574  0.2651  0.1473  0.1060
66731W        W67595   8.741  18.100  25.712  0.1253  0.1213 -0.1286
66732W        W67596   7.571  17.496  24.221 -0.0763 -0.0630 -0.4255
66733W        W67597   9.428  15.392  22.993  0.0001  0.1567  0.0610
66734W        W67598   9.114  17.558  22.592 -0.2769 -0.2594  0.0103
66735W        W67599   9.339  17.938  23.692  0.2507 -0.0305 -0.3843
66736W        W67600   8.961  16.066  22.473 -0.0684 -0.0762 -0.0865
66737W        W67601   9.664  17.643  23.988 -0.0711 -0.1110 -0.0378
66738W        W67602  11.034  17.280  26.189  0.0383  0.0049  0.2198
66739W        W67603   6.147  19.063  25.415  0.0633  0.1612  0.0741
66740W        W67604   8.026  16.156  21.630  0.0949  0.0287  0.1184
66741W        W67605   9.450  14.317  23.976 -0.0818  0.1867 -0.0450
66742W        W67606   9.338  16.813  21.780  0.3198  0.0753  0.0652
66743W        W67607   7.350  17.531  23.162  0.2630  0.0769 -0.0680
66744W        W67608   9.070  17.308  25.324  0.4392 -0.2047  0.0367
66745W        W67609   4.911  20.262  20.894  0.0248  0.0444  0.2757
66746W        W67610   7.960  14.523  24.193 -0.5435  0.0320  0.0491
66747W        W67611   8.379  21.321  20.956 -0.1081 -0.1565  0.0832
66748W        W67612   9.766  18.167  24.681 -0.2431 -0.0253  0.2596
66749W        W67613  11.394  18.527  21.326  0.2451  0.3444 -0.0294
66750W        W67614  10.822  15.966  22.575 -0.0900  0.2528 -0.2471
66751W        W67615  11.039  14.282  22.497  0.0260 -0.2581 -0.6103
66752W        W67616   9.258  14.800  27.095  0.2231  0.0447 -0.0173
66753W        W67617  11.927  15.219  21.948 -0.0218  0.0389  0.1765
66754W        W67618   7.991  14.326  23.269 -0.1522  0.3033  0.0901
66755W        W67619   5.133  19.937  26.210 -0.0527  0.0822 -0.4731
66756W        W67620   8.127  19.771  25.261 -0.1537 -0.2426 -0.4508
66757W        W67621  11.220  19.530  19.147  0.1614 -0.1854 -0.2737
66758W        W67622   8.221  20.342  24.660  0.2137  0.0863 -0.0601
66759W        W67623   9.286  16.632  24.034  0.1740  0.3542  0.1447
66760W        W67624   9.151  16.990  26.267 -0.3172  0.3089 -0.1372
66761W        W67625   8.267  16.840  24.226 -0.0804 -0.1400 -0.0431
66762W        W67626   8.037  16.068  23.575 -0.2068  0.2613  0.3208
66763W        W67627   9.760  13.458  22.165  0.1080  0.2985 -0.3097
66764W        W67628   5.379  16.755  23.301  0.2002 -0.3443 -0.0995
66765W        W67629   5.038  14.991  22.934  0.0288  0.0116 -0.0493
66766W        W67630   9.200  15.968  24.737 -0.1099  0.0983  0.0916
66767W        W67631   6.400  16.518  23.481  0.0316  0.1528  0.2292
66768W        W67632  11.758  13.691  25.097 -0.0194 -0.1400  0.0770
66769W        W67633  12.156  19.666  23.250  0.2412 -0.1104  0.0454
66770W        W67634   8.651  14.702  24.489 -0.1366  0.3979  0.0374
66771W        W67635   8.830  18.425  24.560  0.0455  0.0498  0.1258
66772W        W67636   7.524  17.440  21.664  0.2102  0.2140 -0.1600
66773W        W67637   7.457  16.408  24.698 -0.0659 -0.1811  0.1264
66774W        W67638   9.557  19.360  24.543 -0.0296  0.2425  0.1250
66775W        W67639  10.282  17.206  22.882  0.0276 -0.1844 -0.0721
66776W        W67640   5.613  18.903  22.283  0.2283 -0.0304 -0.0440
66777W        W67641   6.353  18.342  24.679 -0.2197  0.0965 -0.3185
66778W        W67642   7.873  16.161  24.997 -0.3439  0.0559 -0.1465
66779W        W67643   9.436  16.728  23.255 -0.0942 -0.1068 -0.1511
66780W        W67644   9.846  15.024  25.441 -0.0853  0.1681 -0.1544
66781W        W67645  11.932  18.686  23.239  0.0113  0.2158  0.2203
66782W        W67646  10.760  17.863  22.920  0.1760 -0.2314  0.2612
66783W        W67647  10.723  15.886  23.518 -0.5572 -0.4387  0.0582
66784W        W67648  11.469  18.689  23.298 -0.4776 -0.0278 -0.2224
66785W        W67649   8.419  14.659  24.029 -0.2305 -0.3073  0.0615
66786W        W67650   7.592  19.079  26.316 -0.1498 -0.0411 -0.0756
66787W        W67651  10.434  16.379  26.574  0.1862 -0.2289  0.3554
66788W        W67652   9.319  16.198  23.367  0.0827  0.1480 -0.0381
66789W        W67653   7.686  17.635  26.548 -0.2407 -0.0492 -0.1408
66790W        W67654   8.909  16.203  21.965 -0.0558  0.3471 -0.1728
66791W        W67655  10.603  15.707  24.739  0.3210  0.2530  0.0580
66792W        W67656   9.250  16.839  25.241 -0.0526  0.0342 -0.0307
66793W        W67657  10.117  19.531  25.927 -0.1970 -0.1658  0.1394
66794W        W67658  10.380  13.706  23.967  0.0915  0.2953 -0.1155
66795W        W67659   8.891  21.601  24.582  0.4609  0.1667  0.2715
66796W        W67660   8.171  16.880  26.812  0.2063 -0.2805 -0.2390
66797W        W67661   8.608  15.256  26.010 -0.0216  0.1128  0.1379
66798W        W67662   7.250  19.643  25.631 -0.0031 -0.0573 -0.0255
66799W        W67663   9.237  20.076  23.828 -0.3055 -0.3251 -0.0646
66800W        W67664  11.808  15.882  22.779  0.1263 -0.1698  0.1824
66801W        W67665   7.769  15.570  23.529  0.0510 -0.0106  0.1539
66802W        W67666   8.515  20.234  24.253  0.1531 -0.0714 -0.0239
66803W        W67667  10.841  16.361  23.398 -0.3458  0.0929  0.2744
66804W        W67668   8.782  13.714  24.936 -0.0807 -0.0946  0.1088
66805W        W67669  10.410  18.206  22.874  0.0674  0.0336  0.0226
66806W        W67670  11.770  18.782  23.742 -0.0881  0.3420 -0.1461
66807W        W67671  10.212  18.587  22.620 -0.0354  0.1699 -0.1947
66808W        W67672   4.908  18.075  24.580  0.0111  0.4274  0.3231
66809W        W67673   9.902  17.439  23.144 -0.0996 -0.4470 -0.1883
66810W        W67674   8.833  14.903  22.951 -0.2172  0.0031  0.0442
66811W        W67675   9.037  14.651  24.787 -0.0056  0.0499  0.1834
66812W        W67676   6.585  20.286  24.363 -0.0048  0.1008 -0.3270
66813W        W67677  12.210  20.076  26.482 -0.2704 -0.2631 -0.0970
66814W        W67678   6.690  19.178  25.082 -0.0669 -0.1738 -0.1736
66815W        W67679   8.207  20.043  22.701 -0.0486  0.2252 -0.0372
66816W        W67680   9.522  17.422  22.204  0.0219 -0.0481 -0.0982
66817W        W67681  10.376  15.897  23.928 -0.1364  0.1186 -0.2361
66818W        W67682   9.105  17.535  23.954  0.0980  0.0252 -0.0219
66819W        W67683  12.665  17.737  27.596 -0.1290 -0.0114 -0.1684
66820W        W67684  12.469  18.685  24.713 -0.3176  0.0285  0.0046
66821W        W67685   6.842  15.524  22.983  0.1047 -0.2225 -0.3086
66822W        W67686  11.168  19.164  24.789  0.0959  0.1925  0.0694
66823W        W67687   9.307  13.738  24.682  0.1044 -0.1937 -0.0077
66824W        W67688  10.474  15.850  21.701  0.2256 -0.2806  0.1344
66825W        W67689  12.522  17.050  26.014 -0.2082  0.0606  0.0484
66826W        W67690  12.181  16.789  22.006  0.1856  0.1864  0.2644
66827W        W67691   8.553  19.061  24.559 -0.0620  0.0238  0.1724
66828W        W67692  11.094  15.582  24.505  0.2455 -0.2176  0.0951
66829W        W67693   8.337  19.162  27.253  0.2310 -0.2768 -0.0244
66830W        W67694  10.448  16.475  25.984 -0.2990  0.3057 -0.0805
66831W        W67695   6.924  18.838  23.652  0.1691 -0.1120 -0.0020
66832W        W67696   8.566  17.274  24.082  0.3098  0.0254  0.1049
66833W        W67697  10.069  15.453  23.753  0.1758  0.1501 -0.1013
66834W        W67698  10.566  16.653  23.743  0.1541  0.0774  0.0204
66835W        W67699   9.531  15.443  24.670 -0.1178 -0.2993 -0.1545
66836W        W67700  11.466  17.880  22.175  0.1310 -0.0276  0.1794
66837W        W67701   9.852  17.657  25.975 -0.0274  0.2294  0.1747
66838W        W67702  11.168  18.485  23.966  0.0776  0.1600 -0.1221
66839W        W67703   9.630  19.686  25.376 -0.1492 -0.0308 -0.0404
66840W        W67704   8.083  19.255  23.171 -0.0572  0.0170  0.0631
66841W        W67705  12.916  18.296  22.790  0.3711 -0.0697 -0.2005
66842W        W67706  12.459  15.771  25.631  0.0019 -0.2927  0.1370
66843W        W67707   7.868  17.078  24.403 -0.0563 -0.1820  0.0853
66844W        W67708   7.749  15.728  26.561 -0.0178  0.0355  0.0596
66845W        W67709   6.674  14.406  21.997  0.0747 -0.1711  0.0395
66846W        W67710   8.638  16.222  22.887 -0.0038 -0.0953 -0.1080
66847W        W67711   8.473  15.801  26.876 -0.1235 -0.1268  0.1049
66848W        W67712  11.792  13.734  20.814 -0.0612  0.1192  0.2433
66849W        W67713   8.834  14.591  23.722  0.1540  0.0621  0.4483
66850W        W67714   8.207  21.452  27.220  0.0384  0.0334  0.1496
66851W        W67715   8.976  18.863  25.430  0.0959  0.0411  0.2758
66852W        W67716  12.101  14.137  25.097 -0.2015  0.0430  0.4273
66853W        W67717  10.402  19.588  27.166  0.3103  0.3511  0.3831
66854W        W67718  10.997  16.103  24.598 -0.1515  0.1340 -0.2507
66855W        W67719  11.387  16.076  23.677 -0.0964 -0.2233  0.0309
66856W        W67720  12.302  17.576  22.377  0.3928  0.0417 -0.0579
66857W        W67721   9.794  17.225  24.241 -0.0975  0.2180 -0.0022
66858W        W67722  11.488  16.587  25.913  0.0735 -0.1627  0.0976
66859W        W67723  10.162  17.287  25.088  0.0728 -0.0772 -0.2783
66860W        W67724   7.461  17.570  22.145 -0.0052 -0.0774  0.3888
66861W        W67725   8.724  16.128  23.412 -0.3068 -0.1047  0.3556
66862W        W67726   6.670  17.881  23.785  0.0324  0.0969  0.0121
66863W        W67727   9.932  16.739  24.140 -0.0623  0.0154 -0.1751
66864W        W67728  12.165  19.948  24.240 -0.2378  0.0475  0.1931
66865W        W67729  12.949  18.371  27.333  0.0921  0.0880  0.1139
66866W        W67730   5.748  20.146  21.437  0.1649  0.0787  0.0662
66867W        W67731   7.830  17.828  21.898  0.0748 -0.1478  0.1120
66868W        W67732   7.433  16.499  25.250 -0.1612  0.2225 -0.4082
66869W        W67733  10.685  18.707  25.775 -0.0272  0.0694  0.2160
66870W        W67734   9.950  13.632  23.573  0.1834 -0.3049  0.2207
66871W        W67735   9.855  14.998  23.923  0.0596  0.1060 -0.0214
66872W        W67736  12.989  20.062  25.758 -0.2596 -0.1526  0.1243
66873W        W67737   7.084  14.587  26.075  0.3384 -0.2855  0.2085
66874W        W67738   9.651  14.790  21.730 -0.3274  0.2014  0.0460
66875W        W67739  11.188  15.742  24.947  0.2191  0.2579  0.0562
66876W        W67740   8.335  17.319  24.508  0.0993 -0.0536 -0.0003
66877W        W67741   8.026  14.702  21.669 -0.2364  0.2862  0.0079
66878W        W67742   9.554  18.179  25.111  0.0583 -0.1080  0.0520
66879W        W67743  10.665  13.840  23.587  0.0589 -0.1764 -0.1881
66880W        W67744  12.467  18.906  22.671  0.2668 -0.0227 -0.1591
66881W        W67745  10.903  19.595  25.200  0.2592 -0.0630 -0.2487
66882W        W67746   9.794  18.901  24.313 -0.1627  0.0986 -0.0621
66883W        W67747   8.779  15.491  21.472  0.1662 -0.2515  0.0650
66884W        W67748  11.218  17.437  24.216  0.1496  0.2439 -0.2913
66885W        W67749  10.468  19.362  26.270 -0.0060 -0.0085 -0.1303
66886W        W67750   9.108  20.107  25.047  0.3218  0.1361  0.1889
66887W        W67751   7.365  19.473  24.061  0.2311  0.0457  0.0073
66888W        W67752   9.305  17.083  24.289  0.1116  0.0235  0.3089
66889W        W67753   5.994  17.536  27.350  0.1768  0.2931  0.1177
66890W        W67754  10.084  19.684  23.397  0.0015  0.1846  0.2387
66891W        W67755   7.297  19.197  22.092 -0.0715 -0.2933 -0.0564
66892W        W67756   9.705  15.627  22.128  0.2845 -0.2482 -0.0553
66893W        W67757  10.520  16.904  22.478  0.1846 -0.0257 -0.1355
66894W        W67758   7.573  19.332  24.455 -0.1247 -0.0651 -0.1662
66895W        W67759   7.887  15.409  19.873  0.1827 -0.3231  0.3897
66896W        W67760  10.000  18.049  24.230  0.0146 -0.1429  0.3226
66897W        W67761  11.282  17.294  25.724 -0.1136 -0.1029  0.0787
66898W        W67762  10.127  15.362  22.869 -0.0085  0.1121  0.2744
66899W        W67763  14.235  16.976  27.349 -0.1041  0.2634 -0.0165
66900W        W67764   9.562  17.182  25.282 -0.2931 -0.2532 -0.0233
66901W        W67765   9.936  18.862  25.691 -0.2388  0.1479 -0.0179
66902W        W67766  11.107  18.322  25.720  0.2389 -0.1388 -0.1774
66903W        W67767   8.285  19.297  24.952  0.1459  0.3636 -0.1310
66904W        W67768  13.447  18.839  23.151  0.0919  0.2673 -0.0701
66905W        W67769  10.715  17.394  24.212 -0.0668  0.1309 -0.2134
66906W        W67770   8.680  13.630  25.446  0.1501  0.2499  0.2965
66907W        W67771   7.817  18.934  24.125  0.1045 -0.0886  0.2439
66908W        W67772   9.699  15.498  25.160  0.0831 -0.1833  0.1926
66909W        W67773   8.596  13.456  23.511 -0.1736 -0.2091  0.2250
66910W        W67774   7.216  19.424  23.072 -0.1317 -0.0001  0.0614
66911W        W67775   7.084  17.202  22.018 -0.1522  0.2173 -0.1782
66912W        W67776   6.875  18.832  27.053  0.0462 -0.3382 -0.2346
66913W        W67777   5.688  19.552  20.912  0.0002  0.0654 -0.0107
66914W        W67778   7.114  15.106  23.174  0.1108 -0.0787  0.0564
66915W        W67779  10.179  19.116  28.235  0.2335 -0.5144  0.0488
66916W        W67780  10.978  14.443  24.074 -0.2497 -0.2608 -0.1630
66917W        W67781  10.315  15.875  22.597  0.2540 -0.0304 -0.0836
66918W        W67782   9.313  14.906  22.727  0.0374  0.0731  0.4527
66919W        W67783   7.814  16.694  25.520 -0.1668 -0.1198  0.3063
66920W        W67784   9.319  17.606  24.390  0.1220  0.0799  0.3196
66921W        W67785  11.621  15.915  23.272  0.2349 -0.2172 -0.1170
66922W        W67786   8.908  15.145  21.943 -0.1098 -0.2513  0.1233
66923W        W67787   5.500  17.262  23.697 -0.1528 -0.1636  0.1704
66924W        W67788  10.809  14.236  24.578  0.0788  0.1973 -0.0246
66925W        W67789   9.577  14.125  25.391  0.2773  0.0518  0.0180
66926W        W67790   8.643  16.640  23.938 -0.2897  0.0558 -0.2173
66927W        W67791   6.028  18.523  20.947  0.0725 -0.0795 -0.2291
66928W        W67792  10.266  18.528  25.524 -0.0591 -0.0294 -0.1364
66929W        W67793   7.163  17.130  23.451  0.3349  0.0432  0.3538
66930W        W67794  10.554  16.687  23.132  0.0732  0.1361 -0.0734
66931W        W67795   7.983  18.936  24.630  0.2506  0.0675  0.1994
66932W        W67796  10.465  21.640  27.030 -0.2080  0.0360  0.1530
66933W        W67797  11.370  17.292  23.778  0.1673 -0.0560  0.1139
66934W        W67798   9.025  18.150  23.291  0.0047  0.0187  0.0719
66935W        W67799  10.325  15.121  24.014  0.0205  0.0713  0.3275
66936W        W67800  11.886  14.562  25.190 -0.0845  0.4096  0.0667
66937W        W67801   9.398  17.313  24.773  0.0975  0.0879 -0.1067
66938W        W67802   4.999  16.326  24.546 -0.3141  0.1661 -0.2769
66939W        W67803   9.873  17.558  21.027  0.0898  0.0581  0.1326
66940W        W67804   9.962  18.137  26.003 -0.0303 -0.1018 -0.0096
66941W        W67805  11.140  15.986  23.270 -0.2774 -0.0666 -0.3600
66942W        W67806  11.466  17.925  22.728  0.2490  0.2474  0.0084
66943W        W67807   9.703  16.634  25.122  0.1214  0.3761 -0.2077
66944W        W67808  10.212  14.923  24.498  0.4828  0.0929  0.1417
66945W        W67809  10.318  14.309  24.540  0.1292 -0.0533 -0.1092
66946W        W67810   9.322  13.752  22.920 -0.2535 -0.4587  0.4255
66947W        W67811   8.569  18.719  26.288  0.0373  0.0398 -0.0268
66948W        W67812   7.587  15.247  20.810 -0.1739 -0.1019  0.1131
66949W        W67813   7.878  17.003  21.541  0.1969  0.0689 -0.1447
66950W        W67814  10.041  13.192  25.204 -0.0992 -0.1457  0.0781
66951W        W67815   9.098  20.185  26.899  0.1971 -0.0285  0.0199
66952W        W67816   9.281  15.295  22.298  0.2462 -0.0887 -0.3476
66953W        W67817   9.597  18.322  23.270 -0.3419 -0.1119  0.2094
66954W        W67818   7.702  19.205  23.712 -0.0070  0.1080 -0.0710
66955W        W67819  10.023  20.467  23.941 -0.1148 -0.0994  0.0128
66956W        W67820  10.018  16.406  24.454 -0.3103 -0.0582  0.1982
66957W        W67821   7.390  17.023  25.849 -0.2815  0.0939  0.1276
66958W        W67822   9.943  15.918  23.576  0.0076  0.1167 -0.1321
66959W        W67823  10.036  16.977  27.273 -0.0093  0.0323 -0.0584
66960W        W67824  10.758  18.527  25.314 -0.1425 -0.1782  0.2412
66961W        W67825   8.262  16.208  24.655  0.0129 -0.0315 -0.2663
66962W        W67826   7.278  12.930  25.242 -0.0767  0.0692 -0.0562
66963W        W67827   8.266  19.832  24.734  0.0311 -0.2274  0.1370
66964W        W67828  12.231  16.115  26.024  0.0568  0.0604 -0.0013
66965W        W67829   8.477  14.921  21.847 -0.1671 -0.0703  0.0306
66966W        W67830   7.686  15.347  24.031 -0.2029 -0.0445 -0.0788
66967W        W67831   6.826  19.607  28.866  0.0956  0.1197 -0.0093
66968W        W67832  10.469  16.059   0.223  0.1761  0.0011 -0.2441
66969W        W67833   8.301  16.631  27.213  0.0292  0.5067  0.0634
66970W        W67834  11.840  15.812  28.298  0.0526 -0.0692  0.0581
66971W        W67835   6.850  19.341  26.963 -0.0492  0.3937 -0.1363
66972W        W67836  10.311  13.215  26.970  0.2577 -0.2785  0.0799
66973W        W67837   7.385  15.426  26.420 -0.3149 -0.0047 -0.1341
66974W        W67838   7.020  18.216  26.177 -0.0872  0.2854 -0.0471
66975W        W67839  10.615  17.784   0.777  0.0416 -0.1242  0.0040
66976W        W67840   6.318  16.627  28.887 -0.0880 -0.2174  0.0266
66977W        W67841   7.224  16.096   1.339 -0.1190  0.1112  0.1653
66978W        W67842   8.906  14.684  25.300 -0.2709 -0.0719 -0.0700
66979W        W67843  10.380  15.050  26.271 -0.1708  0.2384 -0.1795
66980W        W67844   8.226  14.255   1.228 -0.1395  0.2575 -0.1727
66981W        W67845   9.353  16.559  27.647  0.1487 -0.0580 -0.0493
66982W        W67846   7.313  17.835  28.828 -0.0915  0.0443 -0.1117
66983W        W67847   9.013  19.257   1.015 -0.0609 -0.1190  0.1741
66984W        W67848   8.829  17.449  26.249 -0.1357 -0.1861  0.0098
66985W        W67849   8.850  14.853  26.325 -0.1557  0.1584  0.0625
66986W        W67850   9.984  17.418  27.469 -0.1113  0.1416 -0.1367
66987W        W67851   8.687  16.814  26.142  0.0686 -0.2241 -0.3311
66988W        W67852   7.673  16.212  25.742 -0.1854  0.1566 -0.0828
66989W        W67853  12.147  20.341  28.386 -0.0534 -0.1832 -0.2413
66990W        W67854   7.342  14.911  25.564 -0.1595  0.0508  0.2643
66991W        W67855   7.716  17.851  27.681  0.0680 -0.1871 -0.1923
66992W        W67856   7.785  16.141  28.256 -0.3475  0.1835  0.2211
66993W        W67857   8.132  15.893  28.708 -0.1669 -0.1842 -0.1674
66994W        W67858   9.222  16.981  27.901  0.1551 -0.0547 -0.0574
66995W        W67859   9.384  16.813  25.739 -0.2792 -0.0974 -0.0962
66996W        W67860  11.028  13.744  28.195 -0.0374  0.0691 -0.0223
66997W        W67861  11.267  18.759  26.207 -0.0446  0.1995  0.1011
66998W        W67862  10.627  14.970  27.023 -0.1166  0.3455 -0.0728
66999W        W67863  10.073  15.174  28.339  0.0263  0.1092  0.0582
67000W        W67864  10.648  17.348  27.126 -0.0863  0.2333  0.0670
67001W        W67865   6.443  15.551  28.736 -0.0280  0.2507  0.1583
67002W        W67866   9.477  16.891   0.261 -0.0108 -0.0019  0.1807
67003W        W67867   8.984  15.465  27.101  0.0321 -0.0692  0.1525
67004W        W67868   8.196  17.129  27.240  0.0835 -0.1593 -0.3122
67005W        W67869   9.859  19.248  25.341 -0.0380 -0.2368  0.0464
67006W        W67870   9.748  16.944  27.704 -0.0200  0.1384  0.1616
67007W        W67871  10.080  16.781  23.642 -0.2254 -0.1004 -0.1330
67008W        W67872  10.684  15.835  26.520  0.1914 -0.1332 -0.3016
67009W        W67873   8.616  17.337   0.112  0.0647  0.0476 -0.1739
67010W        W67874   9.970  16.460  26.341  0.1647 -0.1976  0.0218
67011W        W67875   8.067  19.892  26.266  0.3281 -0.3636 -0.1424
67012W        W67876  11.025  14.670  26.946  0.1934 -0.1089  0.3276
67013W        W67877   9.845  15.351  26.317 -0.1391  0.2288  0.4858
67014W        W67878  12.707  14.000  27.368  0.0149 -0.1762  0.0818
67015W        W67879  10.297  15.885  28.382  0.2845  0.0279  0.0872
67016W        W67880   8.356  15.198  25.208  0.1492  0.3197 -0.0308
67017W        W67881   9.578  17.120   1.513  0.0842 -0.4734  0.2093
67018W        W67882  11.252  15.648  27.210 -0.1528  0.0377  0.0854
67019W        W67883   7.759  20.386   0.498 -0.1079 -0.0574  0.0300
67020W        W67884  11.580  16.222  28.049 -0.1298  0.0177  0.0494
67021W        W67885   9.124  13.330  24.971 -0.0883  0.1275 -0.0762
67022W        W67886   9.362  17.139  26.752  0.2547 -0.2087 -0.0900
67023W        W67887   8.476  17.267  25.950 -0.0972  0.1162  0.1648
67024W        W67888   9.009  18.750  26.559  0.3469 -0.0321 -0.1444
67025W        W67889   7.123  18.738  27.940 -0.3375  0.0770  0.1575
67026W        W67890   5.999  19.683  24.766  0.2254 -0.1326  0.1884
67027W        W67891  11.079  13.616  28.964 -0.0230 -0.2514 -0.2153
67028W        W67892   8.369  20.663   0.021 -0.1181 -0.1540  0.0573
67029W        W67893   8.121  17.691   1.542  0.3394 -0.2989 -0.0273
67030W        W67894   9.113  16.753  26.948 -0.2455  0.1020 -0.0081
67031W        W67895   9.503  17.394  27.677  0.2119  0.1820  0.2229
67032W        W67896  12.610  16.755  28.884  0.2076 -0.0678 -0.0084
67033W        W67897   9.084  16.922  24.794 -0.0119 -0.4700  0.1064
67034W        W67898   8.682  17.351  24.933 -0.0643 -0.4588 -0.1779
67035W        W67899   8.561  18.217  28.146 -0.0434  0.0364 -0.0444
67036W        W67900   7.084  15.638  24.819 -0.2394 -0.0480  0.2358
67037W        W67901  11.499  15.131   0.241 -0.0155 -0.1201 -0.0487
67038W        W67902  10.012  15.128  25.936 -0.1012 -0.1083  0.1466
67039W        W67903  11.621  18.759   0.294 -0.0615 -0.0511  0.1387
67040W        W67904   9.950  15.417   2.130 -0.0337  0.4190  0.1619
67041W        W67905  10.300  18.054  25.662 -0.1030 -0.1228 -0.2908
67042W        W67906   9.612  17.577   0.592  0.1165 -0.0331  0.0646
67043W        W67907   4.925  18.045  27.799 -0.0519  0.4317  0.3445
67044W        W67908   7.730  17.193  26.893 -0.0213  0.0672 -0.1684
67045W        W67909   8.420  12.854  24.743  0.2259  0.0429  0.1806
67046W        W67910   7.543  16.267  26.945  0.0846  0.2301  0.0954
67047W        W67911   8.423  18.281  27.681  0.0139  0.1228  0.0682
67048W        W67912   8.926  15.550  28.926 -0.1169 -0.0754  0.0891
67049W        W67913   7.617  16.646  26.644  0.0473 -0.2154  0.1670
67050W        W67914  11.207  12.935   0.027  0.2437 -0.0442 -0.2914
67051W        W67915   8.952  14.652   1.619 -0.1288 -0.1976 -0.2741
67052W        W67916  11.224  18.671  25.206  0.0450  0.5025 -0.0587
67053W        W67917  10.474  15.736   0.704 -0.1878  0.3404 -0.2249
67054W        W67918  12.012  12.148  28.353 -0.2137 -0.1863  0.1868
67055W        W67919  13.012  19.569  29.051  0.0523 -0.2148 -0.0785
67056W        W67920  10.843  17.986  25.487 -0.0247  0.1455 -0.2482
67057W        W67921   9.996  14.689  28.493 -0.1841  0.0861 -0.1165
67058W        W67922  12.348  15.045  29.044 -0.0572  0.1855  0.2872
67059W        W67923   6.718  18.740  28.907 -0.1670  0.2416 -0.0372
67060W        W67924   8.008  14.716  26.325  0.0558 -0.4824  0.0730
67061W        W67925   8.827  15.104  25.010  0.2013  0.0969 -0.2186
67062W        W67926  13.545  15.471  26.871  0.4697  0.0707  0.3178
67063W        W67927   9.993  16.431  25.480 -0.2268  0.0254 -0.0957
67064W        W67928   9.752  15.651   1.400 -0.1869  0.2633 -0.0402
67065W        W67929  10.575  15.864  27.370  0.0371 -0.5069  0.2159
67066W        W67930  12.676  15.285  26.453 -0.1882  0.0641  0.2233
67067W        W67931   9.251  18.703  25.015  0.2364 -0.1409 -0.1831
67068W        W67932   7.242  17.036  26.548 -0.1514 -0.1706  0.2137
67069W        W67933   8.238  14.352  25.266 -0.1432 -0.0690  0.1204
67070W        W67934   9.675  16.917  26.369 -0.1046  0.2410  0.1788
67071W        W67935  11.111  14.506  26.302  0.0962  0.4311 -0.1132
67072W        W67936   9.281  18.454   0.051 -0.1436 -0.4376  0.1551
67073W        W67937   7.928  18.786  26.681  0.0669  0.2374  0.0410
67074W        W67938  11.399  16.003   0.068  0.1558 -0.1419  0.4294
67075W        W67939  12.683  12.680  28.492  0.1048 -0.4049  0.0837
67076W        W67940   7.805  11.134  26.042 -0.0699 -0.0113 -0.3927
67077W        W67941   6.356  20.540  28.278  0.0541  0.0471 -0.1188
67078W        W67942  11.371  16.633  27.322 -0.1717 -0.1327 -0.2228
67079W        W67943  11.099  15.460  29.016 -0.2421  0.2518  0.0742
67080W        W67944   9.140  19.564   0.011 -0.0259 -0.1029 -0.0668
67081W        W67945  10.278  15.496  26.496 -0.0470  0.0818  0.0534
67082W        W67946  12.287  16.995  27.980 -0.1722 -0.1142  0.1750
67083W        W67947  10.660  13.393  27.490 -0.0445  0.0384 -0.1350
67084W        W67948   8.210  17.223  26.463 -0.0495  0.1566  0.1015
67085W        W67949  11.848  17.240  29.005 -0.0526 -0.1834 -0.0219
67086W        W67950  11.873  16.696  28.219 -0.3260  0.0465 -0.1317
67087W        W67951  10.594  15.675  25.574  0.1190  0.1447  0.2294
67088W        W67952  11.708  15.891  26.798 -0.1866  0.1245 -0.0464
67089W        W67953   9.230  17.488  28.157 -0.0925  0.2735  0.0576
67090W        W67954   9.744  15.626  28.479  0.0029 -0.1082 -0.1239
67091W        W67955   7.596  19.149  25.821  0.0618 -0.0865 -0.1339
67092W        W67956  13.256  15.508  27.927 -0.0559  0.2407  0.2617
67093W        W67957   7.222  16.709  27.044  0.1477  0.3570 -0.0293
67094W        W67958  13.342  12.968  28.801  0.0352 -0.1246 -0.2547
67095W        W67959   9.407  16.998  28.796  0.1478 -0.2749  0.1957
67096W        W67960  11.908  19.548  28.876 -0.1785 -0.1733  0.0036
67097W        W67961  11.495  19.124  29.143 -0.0963 -0.1983 -0.2601
67098W        W67962  10.125  16.379  28.390 -0.2036 -0.1173 -0.2244
67099W        W67963   9.084  17.322  28.943 -0.1059  0.5153  0.0695
67100W        W67964  11.241  12.217  27.712  0.1353  0.0416 -0.2832
67101W        W67965   9.406  18.052  26.930 -0.4001 -0.0450 -0.1329
67102W        W67966   9.992  16.498  27.753 -0.2047  0.3296 -0.3208
67103W        W67967  13.021  14.672  27.963 -0.1551  0.1789  0.0975
67104W        W67968   9.256  15.710   2.600  0.1023 -0.1556  0.3329
67105W        W67969   8.983  18.560  28.342 -0.1517 -0.1544 -0.1037
67106W        W67970  10.807  19.687  26.089 -0.1379  0.0352 -0.2683
67107W        W67971   6.747  15.908  24.085 -0.3206 -0.5065  0.1155
67108W        W67972   8.082  16.266  27.857  0.0709 -0.2099 -0.0334
67109W        W67973   8.012  18.917  25.731  0.1678  0.1772  0.2256
67110W        W67974   8.521  18.165  24.844  0.0594 -0.1372  0.3440
67111W        W67975   9.381  16.130  26.751  0.1002  0.0860 -0.1599
67112W        W67976  12.123  15.019  27.269 -0.2532  0.0054 -0.2935
67113W        W67977  12.637  12.014  27.624 -0.2626  0.0937 -0.3312
67114W        W67978   6.993  17.157  28.350  0.2695 -0.0777  0.0013
67115W        W67979   9.926  16.946  28.996 -0.1764 -0.0831 -0.0788
67116W        W67980   8.817  17.597  25.776 -0.0678  0.1506  0.1633
67117W        W67981  11.627  19.486  27.330  0.2035 -0.1024 -0.4204
67118W        W67982   9.549  14.638  25.289 -0.2113  0.3195 -0.1495
67119W        W67983   9.829  19.187  26.158 -0.1076  0.1223  0.0763
67120W        W67984   8.528  16.621  26.658  0.0517  0.2207 -0.1348
67121W        W67985  11.131  13.554   0.913 -0.0387 -0.1446 -0.2855
67122W        W67986  10.755  12.054   0.302  0.3798  0.0367  0.0418
67123W        W67987   7.867  18.003  24.887  0.2264 -0.5116 -0.4196
67124W        W67988   8.342  14.671  26.715  0.1823  0.1067 -0.1198
67125W        W67989  10.566  15.484  26.105  0.1160  0.1070  0.0964
67126W        W67990   9.575  15.102  26.657  0.2325 -0.0449  0.2871
67127W        W67991  11.776  14.053  28.557  0.0343 -0.1413 -0.1211
67128W        W67992   7.855  16.078   0.204  0.2736  0.2147 -0.1270
67129W        W67993  10.918  17.267  29.035 -0.0577  0.0221 -0.1618
67130W        W67994   9.796  15.175  28.730 -0.1167  0.0931 -0.0242
67131W        W67995  10.228  14.723  27.026  0.0982  0.1899 -0.0912
67132W        W67996   9.766  15.875  25.547  0.2626 -0.0166 -0.1694
67133W        W67997   8.072  13.355  26.102 -0.3732  0.1098 -0.0017
67134W        W67998   7.470  18.093  26.054 -0.0674  0.0032 -0.1023
67135W        W67999  10.563  19.011  28.642 -0.1088  0.0513  0.3790
67136W        W68000   8.292  18.661  24.339 -0.2947  0.1487 -0.0987
67137W        W68001   9.740  17.922  25.542 -0.1129  0.0676 -0.0091
67138W        W68002  11.731  14.089   0.280  0.2595 -0.2227  0.1823
67139W        W68003   9.661  18.908  24.789 -0.0778 -0.0016 -0.0596
67140W        W68004   9.689  18.961  20.854 -0.2411 -0.1178  0.4143
67141W        W68005  12.498  14.831  25.776 -0.1440 -0.1942  0.1807
67142W        W68006  13.404  15.927  26.526  0.4275  0.0891  0.2647
67143W        W68007   8.118  20.790   2.445 -0.0060  0.5084 -0.1167
67144W        W68008   7.826  17.534  28.176  0.2036  0.2704  0.0487
67145W        W68009  10.460  19.016  26.885 -0.1868 -0.0432 -0.2905
67146W        W68010   7.944  14.599  27.582 -0.1978  0.2128  0.1304
67147W        W68011   7.971  19.006  27.552  0.2351  0.1761 -0.0191
67148W        W68012  10.585  19.445  25.720  0.2114 -0.1596  0.0661
67149W        W68013  10.734  16.329  27.612 -0.1488 -0.0525  0.2063
67150W        W68014   7.423  17.530  25.484 -0.1352 -0.2405  0.2102
67151W        W68015   9.607  15.593  27.566  0.1981  0.0220 -0.0332
67152W        W68016  11.101  20.064  28.093  0.3611 -0.2688 -0.2033
67153W        W68017   9.449  16.249  28.584  0.1158 -0.3208 -0.2111
67154W        W68018   6.492  15.501  25.127  0.2686  0.1567 -0.1309
67155W        W68019   9.719  18.546  26.138 -0.0842 -0.0932  0.3968
67156W        W68020   9.733  18.400  25.577 -0.2268  0.0743  0.1567
67157W        W68021   6.256  17.989  25.079  0.1596 -0.1393 -0.0912
67158W        W68022   7.751  17.933  25.650  0.0891  0.0062 -0.1772
67159W        W68023   9.903  15.217   1.180  0.0360 -0.0787  0.1969
67160W        W68024   9.605  14.231  26.978 -0.1814 -0.1371  0.0576
67161W        W68025  10.500  11.013  27.149  0.0551  0.2262 -0.1759
67162W        W68026   7.311  16.307  28.140  0.1131 -0.3055  0.0595
67163W        W68027   9.049  11.834  25.159  0.0803 -0.0550 -0.0680
67164W        W68028   5.794  15.107  25.660 -0.3967  0.0770 -0.1356
67165W        W68029   9.058  18.198  26.586 -0.1796  0.1956  0.0308
67166W        W68030  10.617  13.804  26.596 -0.0675  0.1094 -0.0598
67167W        W68031   7.382  16.622  23.799 -0.3797 -0.2013  0.0278
67168W        W68032  13.216  14.428  27.552  0.0684 -0.0456 -0.2899
67169W        W68033  10.299  18.517  26.038  0.1565 -0.1583 -0.1428
67170W        W68034   6.327  18.656  27.600 -0.2514 -0.1375 -0.1532
67171W        W68035   7.170  16.347  27.367  0.0541  0.3458 -0.1562
67172W        W68036   8.957  15.664  23.557 -0.2510  0.1864 -0.0409
67173W        W68037   8.398  20.065  27.716 -0.1595 -0.2189  0.1613
67174W        W68038   8.307  16.175  26.566 -0.2395  0.1024  0.4545
67175W        W68039  10.442  17.786  26.842 -0.0483  0.0131 -0.2154
67176W        W68040   9.020  18.274  25.092  0.2176 -0.2555  0.4910
67177W        W68041   6.789  16.765  25.757  0.0507  0.3313 -0.1713
67178W        W68042   8.207  15.883  28.181  0.1703  0.1805  0.0974
67179W        W68043   9.496  16.242  24.394 -0.0682  0.3166 -0.3717
67180W        W68044  12.470  15.326  28.596 -0.0141 -0.2418 -0.0671
67181W        W68045  14.438  18.872  27.679 -0.1479 -0.1349 -0.3129
67182W        W68046   9.708  15.922  26.451 -0.1086  0.0362  0.0794
67183W        W68047  10.638  18.285  24.541 -0.2589 -0.4713 -0.3558
67184W        W68048   9.632  20.667  25.369  0.0806  0.0573 -0.0137
67185W        W68049   7.893  13.586   1.591 -0.0942  0.0393 -0.0818
67186W        W68050   7.617  19.163   1.004  0.1828 -0.1602 -0.1248
67187W        W68051  10.849  16.837   1.857 -0.1940 -0.1308  0.6054
67188W        W68052   8.375  18.102  28.851 -0.1177 -0.1077 -0.0669
67189W        W68053  10.489  16.967   0.043  0.0488 -0.3410  0.1266
67190W        W68054   7.837  16.679  25.012 -0.0023 -0.1375  0.0599
67191W        W68055   9.118  19.549  25.266  0.1738  0.0510  0.1037
67192W        W68056   7.016  15.244  28.118 -0.3318 -0.0814  0.2852
67193W        W68057   9.750  16.721  28.573  0.1326  0.0364  0.0228
67194W        W68058   9.662  15.222   0.116  0.3029 -0.1163 -0.0341
67195W        W68059   8.436  17.797  26.095  0.3735 -0.0921 -0.0379
67196W        W68060   9.216  16.653  28.318 -0.0745  0.2075 -0.0531
67197W        W68061   9.191  12.212   0.395 -0.1728 -0.0034  0.1524
67198W        W68062   9.973  18.009  26.918  0.1566  0.0010 -0.1196
67199W        W68063   6.827  15.334  26.322  0.0676 -0.1481  0.1355
67200W        W68064  10.681  18.191  25.939 -0.4730  0.1321  0.0381
67201W        W68065   7.374  16.164   0.344 -0.0285  0.1138 -0.0050
67202W        W68066   8.125  17.922  27.421 -0.1631  0.0859  0.1187
67203W        W68067  11.707  15.317  26.706  0.0485 -0.0590 -0.4210
67204W        W68068  10.582  11.444  27.489  0.0016  0.0003  0.0961
67205W        W68069   9.541  17.062  28.255 -0.0139 -0.0912  0.0049
67206W        W68070  10.056  19.517   0.213 -0.0939  0.0942 -0.0073
67207W        W68071  11.617  18.052  28.541  0.1556 -0.3657  0.2124
67208W        W68072   6.999  20.117  28.021  0.2158  0.0014 -0.0780
67209W        W68073   7.332  16.794  28.072  0.1941  0.1015  0.1045
67210W        W68074  12.682  14.429  27.694  0.0995  0.0156  0.0415
67211W        W68075   8.037  16.574   0.299  0.1131 -0.2368  0.2414
67212W        W68076   8.857  19.292  25.741 -0.2648  0.0656  0.1726
67213W        W68077  12.014  14.646  26.049  0.0941 -0.2467  0.2679
67214W        W68078   7.656  18.000   0.082  0.1276  0.3316 -0.0902
67215W        W68079  10.670  18.645  27.270 -0.2035  0.2967  0.0066
67216W        W68080   7.379  16.422  23.336 -0.0250  0.0730 -0.1897
67217W        W68081  10.123  15.433  25.488  0.2173 -0.0273  0.1052
67218W        W68082  10.484  19.143   0.001  0.0025  0.0998 -0.0444
67219W        W68083  11.474  20.094  27.769 -0.0784 -0.1046 -0.0850
67220W        W68084  10.284  15.910  26.836 -0.1370 -0.0539 -0.0885
67221W        W68085   5.973  15.497  26.487 -0.0037 -0.1887 -0.1411
67222W        W68086  11.081  17.755  28.957 -0.0647  0.1673  0.3310
67223W        W68087   8.874  14.965  24.107 -0.1130 -0.0160  0.1084
67224W        W68088  11.334  14.310  25.352 -0.0222  0.3748 -0.2807
67225W        W68089   9.458  16.991  27.336 -0.3558  0.2261  0.2133
67226W        W68090  10.057  15.647  25.914  0.0119  0.1653  0.1148
67227W        W68091   9.766  16.615  25.946 -0.0556 -0.2315  0.1253
67228W        W68092  11.658  14.392  27.821 -0.1818  0.0439 -0.1070
67229W        W68093  12.145  18.580  28.173 -0.1315  0.1588 -0.0422
67230W        W68094   8.102  19.318  28.705  0.0255  0.1045  0.7707
67231W        W68095  11.089  18.710  28.019  0.2391 -0.1854  0.1043
67232W        W68096   7.151  20.958  27.917  0.0213  0.3055  0.1497
67233W        W68097   9.527  18.817  27.819  0.1441 -0.2052  0.1810
67234W        W68098  13.259  18.859  24.047  0.1638 -0.3127  0.1258
67235W        W68099   9.220  16.353  27.201  0.3832 -0.0955  0.1584
67236W        W68100  11.897  17.404  27.102 -0.1137  0.3622 -0.0764
67237W        W68101   8.808  18.008  27.094 -0.1272  0.1331 -0.0449
67238W        W68102  12.918  15.114  27.762 -0.0933  0.0046 -0.4243
67239W        W68103   6.004  15.188  27.748  0.1223  0.0711 -0.2685
67240W        W68104  10.137  19.320  26.667  0.0452 -0.1803 -0.2481
67241W        W68105  11.763  13.796   0.741  0.0998 -0.0504 -0.1330
67242W        W68106  10.073  14.505   0.666  0.2544  0.1116 -0.1014
67243W        W68107  11.608  17.498  27.795 -0.1238 -0.1734  0.0060
67244W        W68108   8.417  15.263  24.713 -0.5286 -0.0717  0.1725
67245W        W68109   7.981  21.332  28.915 -0.2984 -0.0770 -0.3583
67246W        W68110   6.793  16.236  26.467  0.1314 -0.2013 -0.2361
67247W        W68111   9.995  14.377  25.502 -0.1260 -0.0392  0.2519
67248W        W68112  11.242  17.596  26.956 -0.0607  0.0670  0.1498
67249W        W68113   7.663  18.752  27.142 -0.1431 -0.0574  0.1958
67250W        W68114  11.656  14.710  24.804  0.0321  0.1062  0.0118
67251W        W68115   8.519  18.563  28.590 -0.0403 -0.1085 -0.1131
67252W        W68116  12.012  18.686  26.954 -0.2382 -0.1009 -0.0447
67253W        W68117   7.002  16.868  27.625  0.1293 -0.0901  0.2985
67254W        W68118  10.708  12.535  26.341 -0.1627  0.0291  0.0563
67255W        W68119  11.420  18.010  26.747 -0.0450  0.0830 -0.0031
67256W        W68120  11.756  16.914  27.050 -0.0077 -0.1142 -0.0397
67257W        W68121   9.643  14.712  25.783  0.0727  0.0557 -0.4190
67258W        W68122  10.171  15.549  27.505 -0.1947  0.0860  0.0957
67259W        W68123   8.580  18.760  24.955 -0.2232 -0.0461 -0.4860
67260W        W68124   7.061  19.072  26.613 -0.1333  0.1331  0.0092
67261W        W68125   9.429  18.128  25.922 -0.1986  0.2522  0.0516
67262W        W68126  12.475  14.606  28.151 -0.2074 -0.1556 -0.3977
67263W        W68127  12.223  16.915  26.884 -0.4701 -0.1049  0.0280
67264W        W68128   8.040  17.494  26.032  0.4222 -0.4366 -0.3266
67265W        W68129   7.555  19.140  27.852 -0.2809  0.1893 -0.3619
67266W        W68130   7.409  18.165  26.703 -0.0910 -0.2640 -0.0784
67267W        W68131   9.792  14.635  27.358 -0.5175 -0.0555 -0.1736
67268W        W68132  10.733  18.122  29.099  0.0229 -0.2711 -0.0889
67269W        W68133  12.853  15.852  26.626 -0.0852  0.1006 -0.2842
67270W        W68134  10.519  18.184  27.098  0.2409 -0.1224 -0.0354
67271W        W68135  10.775  16.277   0.662 -0.0944  0.0662 -0.2391
67272W        W68136  12.657  16.644  27.487 -0.0501 -0.3101 -0.0147
67273W        W68137   8.023  13.992  27.070 -0.1249 -0.2656 -0.0106
67274W        W68138  10.778  18.012  27.601 -0.0911  0.0182  0.0453
67275W        W68139   8.732  18.646  27.889 -0.0875  0.3112  0.3004
67276W        W68140   8.936  12.209  23.092 -0.0515 -0.1986 -0.0416
67277W        W68141   8.603  16.977  27.732 -0.0222 -0.2429 -0.3601
67278W        W68142   9.200  16.063  26.308 -0.2653 -0.0571 -0.0834
67279W        W68143  12.144  18.052  28.832 -0.3268 -0.1351 -0.0099
67280W        W68144   8.769  17.771  29.077  0.0990  0.1539 -0.4374
67281W        W68145   9.975  17.217   1.005  0.0181 -0.3210  0.0615
67282W        W68146   9.495  15.897  27.194  0.2528  0.2677 -0.2612
67283W        W68147   8.160  17.031  25.306 -0.4161 -0.1069  0.0106
67284W        W68148  10.746  19.698   0.735 -0.0593 -0.0300  0.3014
67285W        W68149  10.882  14.852  27.466  0.2647  0.1396  0.2965
67286W        W68150  10.633  16.270  27.044  0.2277 -0.0768  0.0206
67287W        W68151  11.916  19.319   0.204  0.2735 -0.1472  0.1658
67288W        W68152   8.995  16.170  27.644  0.0287 -0.1334  0.1795
67289W        W68153   8.785  17.950  27.584 -0.1588  0.1273 -0.0101
67290W        W68154   7.024  17.903  25.100 -0.0136  0.2518 -0.3291
67291W        W68155   6.285  18.249  28.337  0.1425 -0.0375  0.1139
67292W        W68156  10.115  17.838  26.406  0.2127 -0.2506  0.1544
67293W        W68157   5.441  16.671  25.822 -0.0719  0.0945  0.1435
67294W        W68158   9.408  18.923  26.360  0.0626 -0.1879  0.0266
67295W        W68159   6.415  15.647  27.172 -0.0903  0.0366  0.0027
67296W        W68160   9.365  15.810  25.847 -0.0621  0.0383 -0.4446
67297W        W68161  10.826  16.036  25.048 -0.1303  0.2265  0.2506
67298W        W68162  10.881  15.715   1.262 -0.2237  0.5762 -0.1415
67299W        W68163  11.933  17.229   0.408  0.1439 -0.1198 -0.0804
67300W        W68164  13.992  16.082  27.832 -0.4096 -0.0804  0.1349
67301W        W68165  10.922  16.756  27.864 -0.1382  0.0587  0.2800
67302W        W68166  10.851  19.149   0.709 -0.0845 -0.0629 -0.0187
67303W        W68167  14.732  16.758  27.257  0.3681 -0.2786  0.0469
67304W        W68168   8.411  16.057  25.130 -0.1554 -0.2321 -0.2943
67305W        W68169   8.192  17.262  27.705  0.1479 -0.1377 -0.0005
67306W        W68170   6.728  17.373  27.608 -0.0623 -0.1798 -0.0914
67307W        W68171  10.695  12.989  26.787 -0.1407  0.1498  0.0571
67308W        W68172   9.618  13.720  26.831  0.2594 -0.0072 -0.1398
67309W        W68173   8.546  20.128  26.155 -0.1295  0.1529 -0.0022
67310W        W68174   8.861  19.714  26.526  0.1439  0.2544  0.0992
67311W        W68175   8.995  19.354  28.553 -0.1984 -0.3963  0.1995
67312W        W68176   9.387  17.803  23.083  0.0843  0.1492  0.0034
67313W        W68177   8.746  16.397  27.027 -0.0546 -0.1247  0.1049
67314W        W68178  10.435  17.383   0.312 -0.1450  0.0863 -0.0101
67315W        W68179   6.408  15.607  23.698  0.0289 -0.2166 -0.1716
67316W        W68180  11.729  16.621   2.140  0.2281 -0.0055  0.4391
67317W        W68181  10.845  18.039  26.715 -0.0301 -0.1514  0.0789
67318W        W68182   9.685  17.859  27.301  0.0240 -0.3134 -0.0383
67319W        W68183   8.290  17.886  28.423 -0.2653  0.0530 -0.1057
67320W        W68184   8.298  19.889  28.606  0.1143 -0.0667 -0.1920
67321W        W68185   9.651  15.416  25.706  0.1130 -0.0070  0.0764
67322W        W68186   7.578  20.492  28.673  0.2216 -0.2443  0.3382
67323W        W68187  11.129  17.500  28.048  0.2695  0.3341 -0.1407
67324W        W68188   7.078  14.924  29.093  0.0923 -0.0214  0.3238
67325W        W68189   8.497  16.037  23.860  0.1975  0.3118  0.0065
67326W        W68190   9.137  16.407  25.961  0.3482 -0.0907 -0.0688
67327W        W68191   7.534  13.820  27.326 -0.1042 -0.2245 -0.0748
67328W        W68192   7.654  15.950  28.865  0.0780 -0.2539  0.0683
67329W        W68193   9.935  13.932  27.156 -0.0899  0.4121  0.0136
67330W        W68194  11.943  17.629  28.608 -0.1111 -0.0862  0.2218
67331W        W68195  12.050  17.619  28.111  0.2001  0.1333 -0.0112
67332W        W68196   9.008  17.242  27.113 -0.1839 -0.0783  0.4445
67333W        W68197  10.453  13.973  27.018 -0.2194  0.0136  0.1031
67334W        W68198   8.760  16.872  25.179  0.0721  0.1062  0.2523
67335W        W68199  11.437  14.050  27.264  0.0580 -0.1430  0.4662
67336W        W68200  11.046  13.287  26.576  0.0172  0.3528  0.0394
67337W        W68201  13.203  15.953  28.287 -0.4129  0.1042  0.1581
67338W        W68202  12.614  17.513  25.810 -0.3383 -0.3094  0.3552
67339W        W68203   9.209  17.511   0.222  0.2043  0.0826  0.0401
67340W        W68204   6.657  19.156  26.168  0.1278 -0.1027 -0.0533
67341W        W68205   8.235  16.301  28.448  0.1999  0.2943 -0.0111
67342W        W68206   6.928  17.903  26.694  0.1844  0.1405 -0.0644
67343W        W68207  11.016  16.179  28.042 -0.1639 -0.1958 -0.0999
67344W        W68208  11.248  15.147  26.468  0.2275  0.0747 -0.0755
67345W        W68209   8.331  14.126   0.676  0.1003  0.1121 -0.2008
67346W        W68210   8.507  17.774  27.930  0.0530  0.0043 -0.2803
67347W        W68211   7.535  17.090  25.217  0.1013  0.1110 -0.0295
67348W        W68212   8.702  17.862  25.301  0.1736  0.0815  0.0360
67349W        W68213   9.939  18.936   1.218 -0.0746  0.4575  0.0529
67350W        W68214   9.900  17.229  28.554 -0.2229  0.0389 -0.0476
67351W        W68215  11.531  12.246  29.070 -0.1935  0.1647 -0.1716
67352W        W68216   8.815  18.396  27.365  0.1091 -0.2276  0.2214
67353W        W68217  10.311  20.856  26.686  0.2410  0.1296  0.0847
67354W        W68218  11.859  16.075   0.339  0.1317  0.0844  0.1372
67355W        W68219   7.978  18.417  29.079 -0.0150  0.2761 -0.0581
67356W        W68220  10.425  16.700  27.770 -0.2086  0.3333  0.1205
67357W        W68221   8.493  16.716  25.698  0.2598  0.1749  0.0305
67358W        W68222  11.663  15.329  28.338  0.1196 -0.1821 -0.1246
67359W        W68223   7.734  16.197  26.302 -0.2617  0.2813 -0.0276
67360W        W68224   9.102  15.728   0.653 -0.0644 -0.1236  0.0820
67361W        W68225   9.010  19.740  25.980  0.0843  0.4404 -0.0423
67362W        W68226  10.790  15.344  26.568 -0.0096  0.0365  0.0798
67363W        W68227   8.431  18.596  25.837  0.0124 -0.2202 -0.2557
67364W        W68228   8.906  17.646  28.575 -0.1548  0.5117 -0.1248
67365W        W68229   7.088  22.975   3.020  0.1778 -0.0271 -0.3964
67366W        W68230   8.092  20.553   1.558 -0.1469 -0.0436 -0.1968
67367W        W68231  10.660  20.338   3.162  0.0339 -0.3370  0.2114
67368W        W68232   8.574  21.313   4.836  0.0590  0.3100 -0.1430
67369W        W68233  10.062  19.619   1.726 -0.0070  0.1196 -0.1148
67370W        W68234   9.453  20.871   0.605 -0.1524 -0.0625 -0.1102
67371W        W68235   6.541  20.364   3.940  0.3699  0.1735  0.1255
67372W        W68236   7.186  21.068   1.102  0.0465 -0.0720 -0.1015
67373W        W68237  11.673  19.246   0.901  0.1794 -0.0236 -0.0490
67374W        W68238  10.189  16.207   0.695  0.0722  0.1887 -0.0939
67375W        W68239   8.951  19.081   2.368  0.0903  0.0634 -0.1679
67376W        W68240  10.080  17.607   0.039  0.0267  0.0609  0.0332
67377W        W68241   8.753  20.236   1.042 -0.2232  0.0816  0.5570
67378W        W68242   9.947  20.907   2.988 -0.1647 -0.1545  0.0517
67379W        W68243   7.667  18.263   3.773 -0.0509 -0.0072 -0.1287
67380W        W68244   8.056  21.602   5.492 -0.0149  0.0203  0.0573
67381W        W68245   6.784  20.810   1.293 -0.2592 -0.1591 -0.1587
67382W        W68246   6.276  17.990   2.757  0.1563 -0.1615 -0.3453
67383W        W68247  10.497  19.544   6.333 -0.0429 -0.1751  0.5809
67384W        W68248  10.514  18.219   2.333 -0.2679  0.1119  0.1428
67385W        W68249  10.087  20.952   1.594  0.1580  0.1047  0.1544
67386W        W68250  10.234  19.488   3.052  0.1748  0.0064  0.1282
67387W        W68251  10.938  21.001   2.858 -0.1210 -0.5241 -0.0567
67388W        W68252  10.818  20.532   2.731 -0.1256 -0.1640  0.0156
67389W        W68253   6.213  21.489   1.118  0.4553 -0.1852 -0.0359
67390W        W68254  10.018  18.121   2.413 -0.0892 -0.3933  0.0489
67391W        W68255  14.212  19.849   3.494  0.2305  0.0289  0.0922
67392W        W68256   5.480  21.516   2.474 -0.0659 -0.4501 -0.1202
67393W        W68257  11.366  23.317   2.926  0.0326 -0.1583 -0.0165
67394W        W68258   9.708  18.634   4.625 -0.1337  0.0835  0.0260
67395W        W68259  10.812  19.880  28.595 -0.0510  0.0970 -0.0620
67396W        W68260  10.338  20.739   3.318  0.2612  0.0330 -0.2794
67397W        W68261  11.721  19.093   7.609 -0.0441  0.0300  0.0343
67398W        W68262   8.041  20.943   4.064 -0.2390 -0.1937  0.3833
67399W        W68263  10.428  21.144   4.083  0.0246 -0.3506  0.0030
67400W        W68264  13.933  20.120   1.869  0.2399 -0.4221  0.1376
67401W        W68265   6.664  20.502   1.681  0.1696 -0.2897 -0.2777
67402W        W68266   9.698  21.332   3.754  0.0159  0.1013  0.0199
67403W        W68267  10.783  21.953  28.873 -0.2053  0.1562  0.0002
67404W        W68268  12.195  16.973   1.054 -0.1576  0.0899  0.1729
67405W        W68269  12.152  19.362  28.480 -0.1811  0.0348  0.0289
67406W        W68270  12.677  21.940   2.186  0.1475 -0.0526  0.2773
67407W        W68271   6.000  18.296   3.047  0.0818 -0.1263 -0.1907
67408W        W68272   9.180  21.878   0.816 -0.0870  0.0344 -0.1439
67409W        W68273   6.497  21.015   0.424 -0.0223 -0.0797  0.2053
67410W        W68274   5.059  21.185   2.350  0.1640  0.1280  0.3485
67411W        W68275   8.723  19.479   2.605 -0.2734  0.2738 -0.0954
67412W        W68276   9.162  22.053   2.092 -0.0212  0.1428  0.2495
67413W        W68277  10.370  20.128   2.686  0.0494  0.2166 -0.3361
67414W        W68278   9.528  18.799   1.042  0.1408  0.0810  0.4039
67415W        W68279  10.213  20.564   1.191  0.0712  0.0806  0.3074
67416W        W68280  10.460  19.848   1.134  0.1867 -0.0707 -0.2320
67417W        W68281   7.729  21.276   5.352  0.1040 -0.1069 -0.1098
67418W        W68282  10.412  18.266   4.853  0.0573  0.1213 -0.0376
67419W        W68283   7.076  19.820   1.207  0.3015 -0.2369  0.4224
67420W        W68284   5.582  19.382   0.423 -0.2065 -0.2071  0.0754
67421W        W68285   8.465  19.956   0.758  0.0816 -0.1285 -0.0331
67422W        W68286   7.308  20.466   5.040  0.1634  0.1142  0.0943
67423W        W68287  11.114  22.071   2.982 -0.0401  0.2986 -0.1945
67424W        W68288   7.896  21.742   0.793  0.3334 -0.0791 -0.0556
67425W        W68289  10.708  17.013  28.684 -0.0555 -0.0344  0.1992
67426W        W68290   4.891  23.661   0.278 -0.1107 -0.1754  0.1661
67427W        W68291   6.394  20.274   3.485  0.1033  0.0375  0.2146
67428W        W68292   9.957  19.393   2.172  0.0057 -0.0785  0.0635
67429W        W68293   7.247  20.234   0.387  0.0617  0.2347 -0.0138
67430W        W68294  11.092  18.805   0.373 -0.0116 -0.2246 -0.0004
67431W        W68295   9.301  20.928   1.090 -0.1614  0.2884 -0.1053
67432W        W68296   8.550  20.157  29.051  0.1144  0.1645  0.2980
67433W        W68297   6.274  21.143  29.085  0.1376  0.3997  0.0254
67434W        W68298  12.332  20.749   2.873 -0.1111 -0.0021 -0.0213
67435W        W68299  10.143  18.544   2.125 -0.1924 -0.1299 -0.0455
67436W        W68300  10.010  19.057   1.754  0.0010 -0.0508  0.0191
67437W        W68301  11.207  23.329   0.879  0.3492 -0.1237 -0.0901
67438W        W68302   9.418  20.850   2.235 -0.0739 -0.0686  0.1579
67439W        W68303  10.048  20.443   2.887  0.0021 -0.4298  0.4085
67440W        W68304   9.877  20.253   3.358  0.0605 -0.2796 -0.0277
67441W        W68305   5.940  20.407   0.930  0.2091  0.1176 -0.2179
67442W        W68306   9.387  20.859   2.812 -0.1736 -0.3395 -0.1215
67443W        W68307   9.388  21.365  28.987 -0.1237 -0.3139  0.2752
67444W        W68308   6.004  20.116   1.308 -0.0598 -0.0428  0.2218
67445W        W68309   9.597  20.421   3.998  0.0032  0.0535  0.0809
67446W        W68310   9.208  19.511   2.610  0.2506  0.2526 -0.0844
67447W        W68311   7.405  18.568   2.326 -0.0163 -0.0711  0.2330
67448W        W68312   9.500  16.196   3.656  0.1404  0.2552 -0.0159
67449W        W68313  10.759  16.816   2.361  0.1812 -0.1716  0.1606
67450W        W68314  11.472  18.261   3.080 -0.0147  0.0978 -0.0290
67451W        W68315  13.355  19.663   3.132 -0.1153  0.0269  0.1661
67452W        W68316  10.603  21.061   1.298  0.0698  0.3197 -0.2669
67453W        W68317  12.669  22.427   2.761  0.1305 -0.0501 -0.0085
67454W        W68318  10.241  19.875   5.250 -0.2860  0.1112 -0.2539
67455W        W68319   8.581  20.867   2.740  0.2679  0.2738  0.2066
67456W        W68320  10.746  19.365   5.055 -0.0432  0.1563  0.1843
67457W        W68321   7.788  22.459   2.850  0.0183  0.1836  0.0974
67458W        W68322   8.658  20.337   1.568  0.0980 -0.2302 -0.2768
67459W        W68323   7.811  19.443   4.399  0.0649  0.2852  0.0918
67460W        W68324   9.902  19.902   2.904 -0.2634 -0.0336 -0.0098
67461W        W68325   9.810  20.428   1.483  0.0103 -0.0626  0.0659
67462W        W68326   8.746  23.126   4.853 -0.5450 -0.0171 -0.0669
67463W        W68327   8.229  17.867   0.216 -0.1856 -0.1786  0.2453
67464W        W68328  14.112  18.039   0.216  0.4107 -0.3362 -0.0780
67465W        W68329   9.682  22.113  26.338 -0.0577 -0.0352 -0.2491
67466W        W68330   7.804  21.282   3.230 -0.1424  0.2115  0.0367
67467W        W68331  12.357  18.505   1.615 -0.3137  0.2067 -0.0400
67468W        W68332  11.804  20.776  28.297  0.3761 -0.1735 -0.0236
67469W        W68333  13.566  17.184   3.299  0.1286 -0.1606  0.3019
67470W        W68334  10.520  17.719   2.597  0.0911 -0.0522  0.0610
67471W        W68335   4.042  21.397   0.879 -0.0558  0.0404 -0.2956
67472W        W68336  14.079  22.228   3.836 -0.0351 -0.3745  0.1956
67473W        W68337   9.056  17.737   2.429 -0.1288  0.0695 -0.3452
67474W        W68338   8.530  21.401   1.695 -0.2861  0.0055 -0.0579
67475W        W68339   8.033  20.530   3.700 -0.2442 -0.1072  0.1940
67476W        W68340  11.815  21.464   1.484 -0.1892 -0.5323 -0.1049
67477W        W68341   9.483  19.085   2.763 -0.4857 -0.2465 -0.0590
67478W        W68342  10.168  21.908   4.221  0.0774 -0.0513  0.2483
67479W        W68343   9.651  21.582   0.621 -0.1917 -0.1399  0.2409
67480W        W68344  10.074  19.856   2.405  0.0305  0.0463 -0.0679
67481W        W68345  11.349  20.968   3.350 -0.0970 -0.1977  0.0046
67482W        W68346   9.493  19.428   5.147 -0.0397 -0.1135  0.2336
67483W        W68347   9.453  23.439   1.345  0.2455 -0.0675 -0.0726
67484W        W68348   9.923  18.981   2.464  0.1298  0.2978  0.1710
67485W        W68349  11.204  18.003   2.049  0.3390 -0.0183  0.0773
67486W        W68350  11.824  20.273   0.971 -0.3608  0.0750  0.0866
67487W        W68351  11.322  20.457   1.148 -0.2449 -0.1831  0.1271
67488W        W68352  12.305  19.224  28.993  0.0001 -0.0932  0.2068
67489W        W68353  10.022  18.023   1.397 -0.0935 -0.1079 -0.1436
67490W        W68354  10.828  20.001   0.297  0.3601 -0.0614 -0.2986
67491W        W68355   7.834  19.762   3.326 -0.3371  0.2339 -0.1361
67492W        W68356  12.132  21.099   1.317 -0.2528 -0.1323  0.1945
67493W        W68357   8.147  22.056   3.421 -0.2975  0.1890 -0.1936
67494W        W68358   6.348  19.598   0.536 -0.1480 -0.0942 -0.1238
67495W        W68359   8.050  22.924   3.155 -0.0591 -0.2674 -0.0565
67496W        W68360  10.706  20.680   4.067  0.2241 -0.1442 -0.3616
67497W        W68361  10.389  21.672   3.481  0.0062  0.0684  0.1982
67498W        W68362  11.478  18.597   3.990 -0.1853 -0.3159 -0.1120
67499W        W68363   9.492  21.422   2.996  0.1265  0.1844 -0.1427
67500W        W68364   7.554  18.260   4.437 -0.1406 -0.0549 -0.1081
67501W        W68365  11.477  18.027   2.548 -0.1005  0.1232 -0.0207
67502W        W68366  10.046  22.001   1.928 -0.0209 -0.0627 -0.1341
67503W        W68367  11.485  20.510   0.690 -0.2573  0.1507 -0.0381
67504W        W68368   7.783  21.179   2.286  0.3225 -0.3023  0.0384
67505W        W68369   7.347  20.092  28.392  0.2178  0.0980  0.0053
67506W        W68370   7.388  19.960   3.569  0.2853  0.1032  0.1648
67507W        W68371   4.863  22.116   0.131  0.1918  0.1506 -0.0368
67508W        W68372  10.207  19.370   0.860  0.1987 -0.1039  0.0964
67509W        W68373   9.781  20.742   1.076 -0.0154  0.1948 -0.0643
67510W        W68374   9.359  18.653   2.993 -0.1400 -0.1541  0.2563
67511W        W68375  10.858  19.239   1.615  0.1259  0.1112  0.1914
67512W        W68376   9.885  21.146   0.704 -0.0015  0.0943 -0.3235
67513W        W68377   8.618  21.711   3.274  0.1966 -0.0569  0.2334
67514W        W68378  10.802  19.128   3.925 -0.0976  0.0159 -0.1644
67515W        W68379  13.241  22.838   3.788 -0.0966 -0.2543  0.2563
67516W        W68380   6.913  20.308   1.286 -0.0818 -0.1404  0.2308
67517W        W68381  10.701  21.542   2.614  0.1274 -0.0356  0.0343
67518W        W68382   9.040  18.313   1.389 -0.1879 -0.0704  0.2579
67519W        W68383   7.243  20.322   5.863  0.0252 -0.2236 -0.1522
67520W        W68384  12.203  16.394   2.325  0.0448  0.0124 -0.1765
67521W        W68385   9.245  21.405   0.848  0.0571 -0.2112  0.2422
67522W        W68386   9.765  20.984  28.817  0.1323 -0.0243  0.2694
67523W        W68387   7.973  17.169   0.835  0.1267  0.0957 -0.1463
67524W        W68388  11.448  18.379   1.719  0.0097  0.2345 -0.4124
67525W        W68389  10.056  16.028   2.301  0.4199  0.4415  0.1157
67526W        W68390   8.095  19.970   2.973  0.0642  0.1198  0.0340
67527W        W68391   9.123  22.971   3.833  0.1140  0.0322 -0.0940
67528W        W68392  12.175  20.223   0.528 -0.2850  0.1102  0.0188
67529W        W68393  10.452  17.399   5.888  0.0297  0.4047 -0.3244
67530W        W68394   8.321  20.114   1.843 -0.0623  0.2066 -0.0310
67531W        W68395  11.061  21.008   3.825 -0.1061 -0.1268  0.1468
67532W        W68396   6.504  19.938   2.862 -0.2554  0.4411 -0.0953
67533W        W68397   8.819  22.074   4.044  0.0947 -0.0661  0.1419
67534W        W68398   4.593  21.148  28.129  0.0685  0.1993 -0.1987
67535W        W68399  10.227  20.416   2.265  0.0511  0.1177  0.1123
67536W        W68400   8.603  19.331   3.674 -0.0389 -0.0638 -0.1060
67537W        W68401  14.289  22.499   1.972 -0.2241 -0.0299  0.2675
67538W        W68402  10.688  21.084  28.347 -0.1998 -0.0163  0.1949
67539W        W68403   9.634  19.454   1.815  0.2512 -0.0282 -0.1448
67540W        W68404  11.601  18.092   1.240  0.1733  0.0842  0.2830
67541W        W68405   6.256  21.335   1.954  0.1505  0.0854  0.0041
67542W        W68406   9.446  22.823   3.048  0.0070 -0.0465 -0.0786
67543W        W68407   5.563  21.299   1.138 -0.2811 -0.0739  0.0354
67544W        W68408   9.034  18.774   5.746 -0.4129 -0.0208 -0.0744
67545W        W68409   8.331  22.212   0.648 -0.0868  0.0294 -0.0330
67546W        W68410   9.012  20.334  28.664 -0.3328  0.3122  0.4225
67547W        W68411   8.285  19.071   0.579 -0.0259  0.0534 -0.2451
67548W        W68412  10.005  20.870   3.671 -0.0473  0.2937 -0.1779
67549W        W68413   9.701  18.871  29.148  0.3044 -0.2507  0.0869
67550W        W68414  11.326  22.222   4.709 -0.3358 -0.0385  0.1323
67551W        W68415   9.608  19.965   1.505  0.1102  0.3577  0.5272
67552W        W68416   9.080  18.602   0.880  0.1875  0.2406  0.0635
67553W        W68417   7.665  21.991   2.877  0.0715 -0.0072 -0.2099
67554W        W68418   8.512  18.916   2.778  0.0431 -0.1213 -0.1436
67555W        W68419   7.506  22.029   0.043 -0.0738  0.3647 -0.1206
67556W        W68420   8.306  18.247   1.562  0.0353 -0.2058  0.0155
67557W        W68421   8.276  20.165   3.487  0.1779  0.2076  0.1559
67558W        W68422  10.022  19.043   3.424  0.0167 -0.0786  0.2253
67559W        W68423   9.448  17.487   3.998 -0.1059  0.1540  0.2538
67560W        W68424   8.928  18.866   1.314  0.3747 -0.0394  0.0634
67561W        W68425  12.306  17.611   0.425 -0.1271  0.0394  0.1132
67562W        W68426   8.854  18.145   3.309  0.1156 -0.1140 -0.0889
67563W        W68427   8.741  17.817   0.384 -0.0135  0.1240 -0.0423
67564W        W68428  10.378  19.046   4.858  0.0377 -0.0366 -0.0543
67565W        W68429   7.424  17.614   0.937  0.0215  0.3391  0.0655
67566W        W68430  10.399  19.373   5.433  0.0016  0.3813 -0.0241
67567W        W68431  13.038  20.738  28.545  0.0891 -0.2455 -0.2292
67568W        W68432   9.818  19.746   3.385 -0.0541 -0.1425 -0.3214
67569W        W68433   9.485  18.685   1.507  0.0614 -0.1274 -0.1610
67570W        W68434   6.483  21.423  28.238  0.2947 -0.1013 -0.1825
67571W        W68435  12.476  21.004   2.284 -0.0168  0.1163  0.1855
67572W        W68436  11.491  19.237   3.150 -0.1946 -0.0012  0.1663
67573W        W68437   9.803  22.914   0.103  0.0361  0.2067 -0.0821
67574W        W68438   5.557  21.273  27.175 -0.0979  0.0109 -0.0673
67575W        W68439  10.927  21.381   3.251  0.1565  0.0106  0.1878
67576W        W68440   6.878  20.900   2.365 -0.1362 -0.1092 -0.3688
67577W        W68441   8.781  21.297   3.509  0.1949  0.0110 -0.0729
67578W        W68442  11.694  20.722   5.006  0.0305 -0.0200  0.0934
67579W        W68443  12.281  20.120   1.840 -0.2343  0.0801  0.0790
67580W        W68444  11.018  21.392   0.997  0.1455  0.0903  0.0479
67581W        W68445  11.289  19.466   1.413 -0.2511 -0.1051 -0.2193
67582W        W68446  11.037  21.392  28.157  0.2758  0.0865 -0.3639
67583W        W68447   9.661  22.181   4.211 -0.3154  0.0457 -0.0399
67584W        W68448   9.559  20.324   5.679  0.0654  0.1624 -0.2808
67585W        W68449  10.549  19.712   2.499  0.1198  0.0880  0.1126
67586W        W68450   8.885  18.292   4.364  0.2871  0.3083 -0.2548
67587W        W68451   7.264  22.519   1.067  0.0455 -0.1894  0.2357
67588W        W68452   8.713  18.175   0.840  0.0938 -0.1694 -0.1155
67589W        W68453   8.099  20.404   5.319 -0.3566  0.3153 -0.1435
67590W        W68454   6.873  18.127   2.790 -0.0961  0.1045 -0.1784
67591W        W68455   8.424  20.320   4.951 -0.3200 -0.3677 -0.3329
67592W        W68456  10.970  18.029   2.761 -0.0848  0.0018 -0.2347
67593W        W68457   9.793  20.563   1.990  0.4065  0.0550  0.0341
67594W        W68458  11.984  20.883   2.513  0.0471  0.1378 -0.0743
67595W        W68459   9.351  18.273   3.347  0.1055  0.3472  0.1762
67596W        W68460   8.920  19.957   6.475  0.2475 -0.2670 -0.0669
67597W        W68461   5.883  22.093  28.934 -0.2150  0.2646  0.1685
67598W        W68462  10.998  19.347   0.170 -0.0998  0.3559  0.1527
67599W        W68463   9.744  16.272   0.933 -0.0597 -0.2572 -0.0703
67600W        W68464   5.363  20.331   0.415 -0.3166 -0.3280 -0.2962
67601W        W68465   9.686  18.758   2.013 -0.2985 -0.3008  0.1018
67602W        W68466   9.243  20.350   2.232 -0.0217  0.4462 -0.0800
67603W        W68467  10.868  19.509   1.181 -0.1115  0.2064  0.1915
67604W        W68468  11.824  20.529   2.883 -0.1664  0.2717  0.3513
67605W        W68469  11.129  22.482   2.548  0.0154 -0.3893 -0.2316
67606W        W68470   5.531  20.502   3.400 -0.0299 -0.1011 -0.1225
67607W        W68471   8.425  17.892   1.944 -0.2409  0.1205  0.0916
67608W        W68472   8.843  16.840   5.597  0.1949  0.1732 -0.0582
67609W        W68473  10.261  19.470   3.565  0.0293  0.1350 -0.0978
67610W        W68474   8.361  22.358  27.912 -0.1628 -0.0123  0.3062
67611W        W68475  10.147  20.021   1.475  0.0786  0.2387 -0.0627
67612W        W68476   7.015  21.851   2.146 -0.2019 -0.0363  0.2045
67613W        W68477  13.911  23.444  27.911 -0.1834 -0.0068 -0.2344
67614W        W68478   8.048  21.418   1.482  0.1565  0.2400  0.0257
67615W        W68479   8.855  21.743   1.285  0.1985  0.0970 -0.2648
67616W        W68480   8.391  21.106   4.440 -0.2067 -0.0623  0.1223
67617W        W68481   8.152  21.674   1.892 -0.0913 -0.0893  0.1653
67618W        W68482  10.342  21.413   1.537 -0.0297 -0.0701 -0.1044
67619W        W68483   9.022  20.145   0.611 -0.1757 -0.1093 -0.1988
67620W        W68484  10.597  22.848  27.691 -0.0677  0.1216  0.0471
67621W        W68485  10.916  21.859  27.846  0.1607  0.1417  0.2822
67622W        W68486  10.349  20.035   4.302 -0.1337 -0.1430 -0.3652
67623W        W68487  11.469  21.728   1.304  0.0144  0.0756 -0.0666
67624W        W68488  10.685  21.687  28.306  0.1946 -0.1190 -0.0068
67625W        W68489   7.828  18.836   2.290 -0.2942  0.0936  0.0243
67626W        W68490   9.752  17.802   4.591 -0.0936  0.2553  0.1999
67627W        W68491  11.369  19.903   4.470  0.3537 -0.2328 -0.0280
67628W        W68492   7.436  17.922   4.109 -0.1734 -0.0941  0.2849
67629W        W68493   9.497  22.662   2.582 -0.2326 -0.3618  0.0180
67630W        W68494  12.138  20.747   3.807  0.1707  0.1254 -0.2043
67631W        W68495   5.365  20.493   1.674  0.2238 -0.2445  0.1632
67632W        W68496  13.771  21.840  28.866  0.0893 -0.3795 -0.1279
67633W        W68497  10.194  17.581   2.207  0.0561  0.2625 -0.2511
67634W        W68498   9.736  21.392  28.520  0.1395  0.0661  0.2935
67635W        W68499   8.046  21.100   2.851 -0.0212  0.5384 -0.0342
67636W        W68500  10.563  19.609   4.061 -0.0555 -0.0005 -0.0561
67637W        W68501   9.464  19.109   2.219  0.2482  0.1638 -0.2795
67638W        W68502  10.363  19.035   2.139 -0.1585  0.2286 -0.1553
67639W        W68503   9.151  20.648   3.186 -0.0772  0.2650  0.1824
67640W        W68504   9.994  16.294   5.176 -0.2571  0.3327 -0.1423
67641W        W68505   7.441  20.107   2.986  0.0897 -0.3608 -0.1749
67642W        W68506   8.922  20.221   3.313  0.2227 -0.0821  0.1757
67643W        W68507  10.156  21.095   1.131  0.0760  0.2244  0.1212
67644W        W68508   5.004  22.077   1.671 -0.1666 -0.0280 -0.4318
67645W        W68509  10.099  23.285   1.373  0.0753  0.0245  0.1192
67646W        W68510   8.904  18.485   0.423 -0.0409 -0.1453 -0.1085
67647W        W68511  10.035  19.618   4.416 -0.2346 -0.1226 -0.0614
67648W        W68512   7.611  20.672   2.428 -0.1621 -0.1696  0.2668
67649W        W68513  11.428  19.251   0.454  0.0395  0.0030  0.3720
67650W        W68514  13.400  20.811   1.787 -0.0054 -0.0097 -0.0767
67651W        W68515   8.883  21.291  28.817 -0.0302 -0.1142  0.0450
67652W        W68516   5.077  20.603   4.855  0.3053  0.1850 -0.1197
67653W        W68517  12.152  19.356   0.765  0.0222  0.1444  0.2175
67654W        W68518  11.280  21.622   1.758 -0.0248 -0.1117 -0.3406
67655W        W68519   6.782  20.585   3.163 -0.1805  0.0683 -0.2528
67656W        W68520  10.563  16.070   1.070  0.2358 -0.1714 -0.0455
67657W        W68521  10.686  20.581   2.146  0.1567 -0.0133  0.0615
67658W        W68522   7.383  20.208   1.295 -0.1424  0.3117  0.2498
67659W        W68523   8.944  21.753  28.312 -0.2112  0.2342 -0.2076
67660W        W68524  12.841  17.790   1.180 -0.3818 -0.1710  0.0930
67661W        W68525   7.077  19.533   3.754  0.0418 -0.1337  0.0989
67662W        W68526  12.587  20.439   2.201  0.0102 -0.0636  0.0232
67663W        W68527  10.379  19.977   2.039 -0.0903 -0.2832 -0.1186
67664W        W68528   7.115  20.718  28.831 -0.0209  0.2423  0.1185
67665W        W68529   9.514  22.024   1.709 -0.0990 -0.0372  0.0377
67666W        W68530  10.170  17.974   5.191  0.0935 -0.0807  0.1941
67667W        W68531  12.149  21.815   4.023 -0.1850 -0.1673  0.0197
67668W        W68532   9.413  22.589   0.984  0.1189 -0.0119  0.3302
67669W        W68533  10.015  22.131  27.398 -0.0370 -0.0267 -0.1022
67670W        W68534   8.610  23.438   0.732 -0.1985  0.0836  0.0621
67671W        W68535   9.775  19.112   7.097 -0.2605 -0.3857 -0.0711
67672W        W68536   7.021  18.046  27.205  0.1262 -0.3756 -0.2581
67673W        W68537   8.863  16.051   0.227 -0.0656 -0.0959 -0.2481
67674W        W68538   6.725  20.361   0.453 -0.1576  0.1060  0.3444
67675W        W68539   8.627  17.507   1.612  0.0349 -0.0151  0.3780
67676W        W68540   9.984  19.701   3.881 -0.0314  0.0543  0.2349
67677W        W68541   8.608  18.675   2.332  0.0940  0.1483  0.0903
67678W        W68542  11.962  20.688   0.581 -0.0554 -0.0797 -0.0558
67679W        W68543  11.586  21.047   1.626  0.0205 -0.0302 -0.0142
67680W        W68544   8.409  23.456   5.815  0.1145 -0.3371 -0.0464
67681W        W68545   8.880  17.986   1.721 -0.2044  0.2235  0.4115
67682W        W68546  10.935  20.012   1.285 -0.0609  0.2088  0.5708
67683W        W68547  10.843  20.796   3.309  0.1485 -0.1913 -0.0549
67684W        W68548   8.459  20.356   3.026 -0.0923 -0.1472  0.1077
67685W        W68549   6.915  22.542   0.645 -0.1365  0.1645  0.0238
67686W        W68550   9.651  21.221   1.228  0.1752 -0.3608 -0.0177
67687W        W68551   6.362  16.980   0.190 -0.1873 -0.0117  0.2368
67688W        W68552   9.409  20.314   1.146 -0.0116  0.2683  0.2297
67689W        W68553   9.526  21.010   3.303 -0.3040  0.0616  0.1012
67690W        W68554   8.452  21.243   3.105 -0.1649  0.0589  0.2734
67691W        W68555   9.693  16.259   1.992 -0.2543  0.1466  0.0488
67692W        W68556   8.584  19.520   0.686  0.0196  0.1908 -0.0615
67693W        W68557   7.135  19.682   0.665  0.0095  0.0991  0.2822
67694W        W68558   6.816  19.397   0.173  0.1040  0.0933 -0.1881
67695W        W68559   8.545  19.480   1.209  0.0546 -0.1480  0.2311
67696W        W68560   9.796  18.649  28.217  0.2725  0.1506  0.1458
67697W        W68561  11.756  19.455   1.703 -0.0457  0.1309  0.1797
67698W        W68562   6.228  23.667   2.174  0.3002  0.0360  0.0332
67699W        W68563   9.608  21.657   2.038  0.0378  0.3177  0.1865
67700W        W68564  12.251  21.166   3.428  0.0401 -0.0506  0.0335
67701W        W68565   7.485  22.639   0.596  0.4728  0.0240 -0.0678
67702W        W68566   9.909  20.036   1.934  0.0406 -0.2137  0.1063
67703W        W68567   9.254  19.602   1.454 -0.0144  0.0654  0.0546
67704W        W68568   8.650  15.926   0.688 -0.0309  0.0428  0.4231
67705W        W68569   7.606  18.771   0.639  0.1039 -0.0925 -0.0811
67706W        W68570   7.758  18.784   4.466 -0.0304 -0.0867  0.0779
67707W        W68571   9.120  18.958   1.846 -0.3616  0.0295  0.3019
67708W        W68572   6.682  22.240  27.437 -0.3754  0.2570 -0.3545
67709W        W68573   9.458  21.861  28.945 -0.0824 -0.1517  0.1124
67710W        W68574   7.641  22.186   0.879 -0.3865  0.0083 -0.2768
67711W        W68575   7.327  19.221   0.620  0.1029 -0.0436  0.1153
67712W        W68576   6.737  19.620   3.214  0.2171  0.1657 -0.0562
67713W        W68577   8.694  19.511   2.098  0.2565 -0.1376 -0.1061
67714W        W68578   7.135  19.141  27.636 -0.1585 -0.1349  0.2435
67715W        W68579  10.259  20.437   1.733 -0.3039 -0.0193  0.4749
67716W        W68580   9.975  18.714   4.113 -0.1032 -0.1961  0.0220
67717W        W68581  10.498  20.826   0.836  0.0531  0.2860  0.2110
67718W        W68582   8.399  21.848   2.359 -0.2619  0.1730  0.0378
67719W        W68583   8.743  23.850   0.894 -0.1055 -0.0738 -0.0788
67720W        W68584   9.724  18.359  27.708 -0.2903 -0.0006  0.0207
67721W        W68585   6.838  20.123  29.145  0.3589  0.0350 -0.0154
67722W        W68586  11.074  19.126   3.419 -0.0455 -0.1604  0.0571
67723W        W68587  10.026  20.210   3.904  0.3261 -0.0125  0.1723
67724W        W68588   5.932  19.425   0.762  0.1156  0.2009  0.0390
67725W        W68589   7.364  21.107   1.751  0.2263  0.0395 -0.4452
67726W        W68590   9.950  19.638   1.167  0.1165  0.3460  0.0878
67727W        W68591   8.151  20.696   0.461 -0.1043 -0.1643 -0.0871
67728W        W68592   9.169  18.935   0.218  0.1509 -0.2664  0.1802
67729W        W68593   7.777  20.463   1.140  0.2058  0.0616  0.0966
67730W        W68594  10.401  21.283   2.929  0.0034 -0.2897 -0.2504
67731W        W68595  11.943  21.717   0.975 -0.2115 -0.0044  0.1413
67732W        W68596   9.706  23.010   1.581 -0.2200 -0.1188  0.1605
67733W        W68597  14.095  19.339  28.481 -0.3388  0.1349  0.0739
67734W        W68598   9.733  16.535   3.346 -0.0534 -0.0758  0.2338
67735W        W68599   7.602  22.304   2.411 -0.0007  0.3294 -0.1209
67736W        W68600  10.319  19.305   1.398  0.2649  0.1278 -0.1668
67737W        W68601  11.481  22.064  27.716 -0.2611 -0.2692  0.1132
67738W        W68602  10.568  21.933   3.892 -0.1315 -0.1712  0.0921
67739W        W68603   9.930  21.370   2.871 -0.3768  0.1411  0.1220
67740W        W68604   8.630  19.853   3.275 -0.1339 -0.1549 -0.0187
67741W        W68605   9.040  21.117   3.116 -0.3124  0.0293  0.0065
67742W        W68606   9.108  21.285   1.292  0.1216  0.0903 -0.0980
67743W        W68607  11.158  15.920   3.124 -0.0071  0.1434 -0.3295
67744W        W68608   6.399  17.646   3.635 -0.0817  0.1729  0.0226
67745W        W68609  10.398  20.760   2.733 -0.2339 -0.1516 -0.3129
67746W        W68610   9.403  19.958   2.687 -0.1918 -0.0122  0.1691
67747W        W68611   7.503  19.995   4.096 -0.3753  0.0733 -0.1804
67748W        W68612   8.396  19.340   1.656 -0.0224  0.1297  0.1813
67749W        W68613   9.683  21.838   2.533 -0.0717  0.1514 -0.0073
67750W        W68614  10.488  19.513   1.999 -0.1443  0.0918  0.1942
67751W        W68615  11.230  19.433   0.897 -0.0449  0.2612  0.2094
67752W        W68616  11.191  20.264   2.172 -0.2477 -0.0106  0.1728
67753W        W68617   7.021  22.814   1.902  0.1216 -0.1337  0.1536
67754W        W68618  10.375  18.782   2.702  0.5097  0.1798 -0.0378
67755W        W68619   9.489  21.321   1.696  0.1412 -0.1542  0.2503
67756W        W68620   7.603  19.980   0.007 -0.1512  0.1009 -0.1265
67757W        W68621   9.715  21.141   0.228  0.1542 -0.1304  0.1427
67758W        W68622  10.734  22.275   2.043 -0.3865  0.1815  0.0492
67759W        W68623  11.768  19.651   1.212 -0.0841  0.3981  0.1687
67760W        W68624  10.322  20.574   5.906 -0.1231 -0.2805 -0.0210
67761W        W68625  10.069  21.880   0.757 -0.2417  0.1266 -0.2931
67762W        W68626   8.125  18.576   4.844 -0.0220  0.2451  0.0230
67763W        W68627   5.800  22.319   0.321  0.0839 -0.1314  0.0676
67764W        W68628  10.410  22.755   1.314 -0.0255  0.0258 -0.0353
67765W        W68629   6.964  20.698   7.449 -0.4358  0.0034  0.0217
67766W        W68630   8.537  20.886  10.234 -0.0352 -0.0113  0.1090
67767W        W68631   6.928  21.062   5.240  0.1680  0.0947  0.0141
67768W        W68632   8.597  23.067   6.844  0.0907  0.0508  0.0464
67769W        W68633   9.212  21.660   2.626  0.1499  0.2339 -0.0558
67770W        W68634   9.998  20.718   5.495  0.2990 -0.2735  0.2750
67771W        W68635   6.483  20.445   5.632  0.1269  0.0472  0.1108
67772W        W68636   8.726  19.929   3.743 -0.1353 -0.0337 -0.0659
67773W        W68637   8.992  19.586   6.780  0.2026 -0.0565  0.0095
67774W        W68638   9.949  16.829   7.760  0.0771  0.2360 -0.2521
67775W        W68639   9.981  14.108   7.626  0.1937  0.1086  0.1620
67776W        W68640  10.419  21.812   5.009 -0.0448 -0.1260  0.0619
67777W        W68641  10.233  16.074   4.231 -0.2813  0.0103 -0.1155
67778W        W68642  13.253  18.606   8.525 -0.1381 -0.2259 -0.0334
67779W        W68643   5.032  17.974   6.698 -0.0555  0.1196 -0.1650
67780W        W68644   6.288  20.127   7.368  0.2857 -0.1044  0.0250
67781W        W68645   7.882  21.320   5.865  0.0717  0.0508  0.1949
67782W        W68646   7.183  18.180   6.350 -0.1191  0.1625  0.4557
67783W        W68647  10.054  18.811   9.529 -0.0064 -0.2131  0.0791
67784W        W68648  10.473  19.922   3.690  0.0804 -0.1418  0.2462
67785W        W68649   7.808  20.736   5.062  0.1295  0.1775 -0.2313
67786W        W68650   9.851  20.487   6.051 -0.0801 -0.4596 -0.1698
67787W        W68651  10.134  20.657   4.096 -0.4514  0.0353 -0.1332
67788W        W68652   6.822  21.694   5.171  0.0795 -0.1002  0.3085
67789W        W68653   6.861  20.763   3.628  0.0009  0.0800 -0.0830
67790W        W68654   8.681  20.116   5.325 -0.0828 -0.1089 -0.0070
67791W        W68655   8.454  20.794   8.922  0.1872  0.0107 -0.2516
67792W        W68656   8.773  22.779   5.266 -0.1913 -0.1184 -0.1857
67793W        W68657  10.012  19.531   6.067 -0.0793 -0.3046  0.0672
67794W        W68658   9.352  20.364   4.400  0.2075  0.0298  0.0370
67795W        W68659  10.520  17.302   4.462  0.0498  0.1412  0.0422
67796W        W68660   9.336  20.482   9.120  0.1728 -0.2021 -0.1296
67797W        W68661   9.519  22.178   7.060  0.0413  0.2108 -0.1671
67798W        W68662   8.080  19.786   7.047  0.0174 -0.0521  0.0799
67799W        W68663   8.742  15.541   8.763 -0.3242  0.1714 -0.1013
67800W        W68664  11.979  23.005   8.570  0.0269  0.0995 -0.0285
67801W        W68665   7.370  21.090   4.582  0.1498 -0.1920 -0.1706
67802W        W68666   8.098  22.455   6.945 -0.0572 -0.1090  0.0063
67803W        W68667  10.221  21.451   4.480  0.0318  0.1308 -0.0571
67804W        W68668   8.668  19.797   4.834 -0.0769 -0.0416  0.2192
67805W        W68669  12.572  17.967   4.898 -0.0321  0.0883 -0.0791
67806W        W68670  11.894  19.825   6.704  0.0091 -0.1996  0.2689
67807W        W68671   8.773  21.184   7.581 -0.2364  0.1392  0.0494
67808W        W68672   8.809  20.572   5.161 -0.0739  0.1878 -0.1081
67809W        W68673  10.127  24.207   3.807  0.2105 -0.0550  0.0242
67810W        W68674   6.874  20.828   5.681  0.1934  0.2029 -0.0249
67811W        W68675  11.057  16.511   4.307  0.0350 -0.3833  0.0633
67812W        W68676   9.937  19.809   6.568 -0.0798  0.0700  0.0080
67813W        W68677  12.247  21.606   2.308  0.0002  0.1104  0.3827
67814W        W68678  12.722  22.081   4.059  0.0006 -0.1049  0.1582
67815W        W68679   9.348  21.308   6.457  0.0677 -0.7878  0.0758
67816W        W68680   6.870  22.693   6.158 -0.1455 -0.0748 -0.0710
67817W        W68681   6.414  22.249   8.921  0.1426 -0.0155 -0.1682
67818W        W68682   8.460  20.142   7.511  0.0972  0.1086 -0.1426
67819W        W68683   9.333  20.460   5.235 -0.0365  0.0338 -0.2129
67820W        W68684   8.033  25.020   6.656  0.2036  0.1324  0.1376
67821W        W68685  10.290  19.194   4.342  0.1588  0.1634  0.1587
67822W        W68686  10.962  18.666   6.288 -0.0768 -0.2252  0.1408
67823W        W68687   5.851  22.307   4.790  0.0314  0.0873  0.2222
67824W        W68688  10.116  23.076   5.566 -0.0492 -0.1640  0.3168
67825W        W68689  11.811  20.945   3.160 -0.2284 -0.6274 -0.1046
67826W        W68690   6.467  20.995   5.573  0.1749  0.0923 -0.2700
67827W        W68691   9.628  21.281   4.608 -0.1038 -0.3827 -0.0158
67828W        W68692   9.939  19.563   5.438  0.0126 -0.1389  0.1547
67829W        W68693  13.516  17.863   6.723  0.1499  0.3445  0.0828
67830W        W68694  11.002  20.053   5.782  0.1197  0.2574 -0.1196
67831W        W68695   8.930  21.111   1.751  0.5713 -0.0361 -0.1667
67832W        W68696   6.914  20.964   1.801 -0.1006 -0.0466  0.1190
67833W        W68697   9.818  21.225   5.420 -0.1291  0.1543 -0.0734
67834W        W68698   9.018  23.283   2.803 -0.3603  0.1914 -0.0109
67835W        W68699  11.530  24.143   6.846 -0.1360  0.0788 -0.2332
67836W        W68700   6.809  19.064   5.079 -0.1464  0.0661  0.2851
67837W        W68701  12.844  23.634   4.036 -0.3150 -0.1928 -0.1820
67838W        W68702   7.043  22.990   9.081  0.1705  0.1318 -0.4734
67839W        W68703  11.995  21.676   4.531 -0.0786 -0.0361 -0.3089
67840W        W68704   9.491  18.679   7.056 -0.2008  0.1211 -0.1059
67841W        W68705   8.248  20.927   5.944  0.1969  0.0912  0.2594
67842W        W68706   8.566  21.251   6.349  0.0758  0.1091  0.2299
67843W        W68707  10.883  21.038   4.430  0.4063 -0.2283  0.1453
67844W        W68708  11.283  22.685   4.387  0.1657 -0.2692  0.2024
67845W        W68709  10.522  18.721   6.006  0.1188  0.1691  0.2057
67846W        W68710  10.210  18.277   4.046  0.0506  0.0818  0.0129
67847W        W68711   7.801  20.150   5.012 -0.1860 -0.0263  0.1222
67848W        W68712   9.332  20.636   6.039  0.0453  0.2285  0.0377
67849W        W68713  10.335  16.823   8.642  0.3512  0.0009 -0.0742
67850W        W68714   9.994  20.353   5.128  0.2002  0.4134  0.1336
67851W        W68715  12.421  22.530   6.874  0.0235 -0.1166 -0.0625
67852W        W68716  11.042  17.539   7.425 -0.0309 -0.0462 -0.3546
67853W        W68717  12.898  19.620   4.346  0.4179 -0.4984  0.1358
67854W        W68718  10.177  20.757   8.479 -0.2321 -0.0095  0.0472
67855W        W68719  10.380  17.389   2.971  0.1610  0.0461 -0.0230
67856W        W68720   8.963  22.089   8.609  0.3048 -0.1306 -0.2726
67857W        W68721   7.636  20.855   7.555  0.0410  0.0381 -0.1692
67858W        W68722  10.062  17.679   2.717 -0.0167 -0.1464  0.1780
67859W        W68723   9.428  16.449   8.543  0.1063 -0.0327  0.2001
67860W        W68724  10.140  16.816   3.686  0.0048  0.0654  0.1377
67861W        W68725  10.253  19.501   4.931  0.0620 -0.3806  0.1730
67862W        W68726  12.203  19.485   4.367  0.0924 -0.0507  0.0956
67863W        W68727   9.473  18.967   4.292  0.0267 -0.1376 -0.0671
67864W        W68728  12.529  16.811   7.395 -0.1051 -0.0500  0.5719
67865W        W68729  13.401  22.847   3.279 -0.1571  0.1701  0.0587
67866W        W68730   6.186  21.925   6.217  0.0438 -0.3803 -0.0430
67867W        W68731  11.343  18.912   5.434  0.0374  0.0020 -0.0813
67868W        W68732   9.596  19.943   5.328  0.0662 -0.1541  0.0600
67869W        W68733  12.482  19.027   6.027  0.1584  0.2490 -0.1997
67870W        W68734   8.058  21.949   6.929 -0.0931  0.0924  0.0383
67871W        W68735  12.254  22.916   4.100  0.0125 -0.1786 -0.1082
67872W        W68736   8.170  20.270   7.125 -0.1436 -0.2759  0.2459
67873W        W68737   9.894  17.555   5.052  0.0287 -0.0773  0.1032
67874W        W68738   9.753  17.776   6.879  0.0212 -0.1694 -0.0933
67875W        W68739   9.791  19.356   6.610  0.0598  0.0247  0.3714
67876W        W68740   9.642  22.304   3.682 -0.1044 -0.0474  0.1004
67877W        W68741  10.506  21.884   2.235 -0.0879  0.1461 -0.0641
67878W        W68742  10.152  20.493   4.627 -0.2893  0.0702 -0.0636
67879W        W68743  11.366  21.178   4.231  0.1888  0.5054 -0.0545
67880W        W68744  12.163  23.939   2.625 -0.0294  0.0677  0.1440
67881W        W68745  10.781  16.582   7.354  0.0258 -0.1450 -0.0376
67882W        W68746   7.027  20.765   4.781 -0.0065 -0.1687  0.1679
67883W        W68747   7.894  20.460   6.743 -0.1430 -0.0082  0.2003
67884W        W68748   8.513  20.529   5.569  0.0527  0.1847  0.0487
67885W        W68749  13.085  16.433   3.505 -0.0620  0.2831 -0.3268
67886W        W68750   7.636  22.253   5.730  0.0812 -0.0091 -0.0023
67887W        W68751   9.365  20.960   4.160 -0.1918 -0.1038  0.0030
67888W        W68752  12.121  21.232   2.820 -0.0919  0.0749 -0.4209
67889W        W68753  10.094  17.024   6.234 -0.0294  0.2210  0.1039
67890W        W68754  11.188  20.706   5.165  0.1658 -0.2245  0.0814
67891W        W68755   8.499  16.786   6.740 -0.0844 -0.0290 -0.3948
67892W        W68756   9.292  20.757   4.711  0.1747 -0.0868  0.1912
67893W        W68757   9.692  22.219   6.101 -0.0028 -0.1697  0.0418
67894W        W68758   7.335  21.555   2.438 -0.0158 -0.1418 -0.1318
67895W        W68759   7.091  19.380   5.339 -0.1794  0.1484  0.1512
67896W        W68760  11.163  20.307   7.682 -0.1564 -0.0807 -0.3373
67897W        W68761   9.032  21.456   5.145  0.1513 -0.0001  0.0844
67898W        W68762  11.073  20.183   0.816  0.2800 -0.1746  0.1792
67899W        W68763  12.534  19.068   5.187 -0.0241 -0.0751 -0.1252
67900W        W68764  10.681  17.900   7.478 -0.2432 -0.0686  0.0354
67901W        W68765   9.678  18.857   7.544  0.0708 -0.0874 -0.0235
67902W        W68766  11.543  23.790   7.192  0.1558  0.2145 -0.1112
67903W        W68767   9.208  23.093   5.053 -0.2027  0.0653  0.1312
67904W        W68768   7.971  20.383   2.715 -0.1844  0.0480 -0.0334
67905W        W68769  10.684  17.706   5.545 -0.2474  0.3077  0.0384
67906W        W68770  10.075  18.008   6.592 -0.1262  0.2189  0.1358
67907W        W68771   8.417  20.038   4.454 -0.2199  0.1241 -0.0626
67908W        W68772   8.366  16.538   5.757  0.0756 -0.0545  0.0548
67909W        W68773   8.090  20.404   8.286 -0.1946  0.0741  0.2478
67910W        W68774   8.110  17.587   4.627 -0.0094 -0.1575 -0.1877
67911W        W68775  11.733  18.796   5.722  0.0937 -0.1423  0.0282
67912W        W68776   7.670  22.275   3.380 -0.0299 -0.2319  0.2837
67913W        W68777  10.444  21.108   6.744 -0.2039  0.0600 -0.1319
67914W        W68778   5.782  21.728   3.968  0.4138  0.1332  0.0637
67915W        W68779  10.047  23.249   5.085  0.1124 -0.1405 -0.1329
67916W        W68780   8.997  20.262   4.778  0.2680  0.1978  0.3719
67917W        W68781  10.667  20.680   9.872  0.1246  0.0147 -0.3133
67918W        W68782   9.504  20.562   3.525  0.1976 -0.0972  0.3568
67919W        W68783  10.355  21.542   7.564 -0.0451  0.0703  0.3974
67920W        W68784   9.988  17.945   7.301 -0.1838 -0.0761  0.0679
67921W        W68785   5.816  20.995   7.432  0.0201 -0.1887 -0.2785
67922W        W68786   8.028  20.419   4.681  0.1154 -0.3290 -0.1635
67923W        W68787   9.565  19.055   3.282  0.3076 -0.1121 -0.5558
67924W        W68788   9.291  20.127   6.130  0.2504 -0.0333 -0.0359
67925W        W68789  12.567  17.794   8.424 -0.0713  0.0921 -0.2837
67926W        W68790   7.921  18.991   6.571 -0.1176  0.1548  0.1241
67927W        W68791  10.033  21.749   7.227 -0.1002  0.1343  0.1104
67928W        W68792  11.316  19.762   6.502  0.0562  0.0875 -0.0090
67929W        W68793  10.158  15.021   4.219  0.2220 -0.0968  0.2470
67930W        W68794   8.062  19.863   4.162 -0.2289  0.0436 -0.1463
67931W        W68795  10.504  16.886   7.142 -0.1225 -0.2829 -0.0361
67932W        W68796   8.102  19.367   3.070  0.1969  0.0080  0.1751
67933W        W68797  10.387  21.976   6.970 -0.3539  0.4679  0.4226
67934W        W68798   9.091  20.890   5.473  0.2034 -0.1060 -0.1511
67935W        W68799  11.226  21.798   5.037  0.2135  0.0522 -0.2509
67936W        W68800   9.639  21.950   3.009  0.0496  0.0888  0.2070
67937W        W68801   8.721  21.018   6.798  0.0414  0.0106 -0.4376
67938W        W68802   9.261  21.446   3.518 -0.2861 -0.2627 -0.3848
67939W        W68803   6.733  19.622   6.762  0.0178 -0.2105 -0.0342
67940W        W68804   9.303  17.159   3.111  0.0255  0.1043 -0.2056
67941W        W68805   6.621  20.690   6.046 -0.0984 -0.1152  0.2186
67942W        W68806   7.637  20.377   7.401  0.0825 -0.1227 -0.1360
67943W        W68807   8.673  19.119   4.135  0.0668 -0.2141 -0.0922
67944W        W68808   7.664  18.593   6.846 -0.2528 -0.0238 -0.1538
67945W        W68809   8.516  22.032   2.885 -0.2870  0.3333 -0.3776
67946W        W68810  11.235  22.934   3.213 -0.0266 -0.0565 -0.1968
67947W        W68811  13.308  18.547   3.299 -0.2348  0.2558  0.1586
67948W        W68812   7.543  19.449   6.765 -0.2290  0.1035  0.1675
67949W        W68813   9.807  17.263   2.395  0.1568  0.0024  0.3195
67950W        W68814  10.419  20.044   7.483  0.0938 -0.2346 -0.1788
67951W        W68815  10.158  19.144   6.356 -0.1290  0.0325 -0.2619
67952W        W68816   6.533  19.085   3.146  0.0239 -0.0634  0.2923
67953W        W68817   7.519  20.751   7.078  0.2142  0.3226 -0.0130
67954W        W68818   8.022  20.801   7.935  0.0948 -0.1614 -0.0226
67955W        W68819   7.243  19.618   3.196  0.3082 -0.0228  0.1808
67956W        W68820   8.211  21.439   3.475  0.0407 -0.1734 -0.2344
67957W        W68821   8.052  18.830   7.091  0.1386 -0.1696  0.0606
67958W        W68822   8.678  17.013   8.343  0.0346 -0.0418  0.0629
67959W        W68823  10.132  19.766   8.465 -0.3015 -0.1212 -0.0569
67960W        W68824   9.426  16.845   7.174 -0.3402  0.0207  0.2604
67961W        W68825   9.134  15.685   7.017 -0.1459 -0.0622 -0.0519
67962W        W68826   8.667  17.807   5.630 -0.1643  0.3503 -0.0150
67963W        W68827   7.883  18.575   5.838  0.1221 -0.4661 -0.1197
67964W        W68828  13.440  17.435   6.381  0.0210 -0.0624 -0.1620
67965W        W68829   9.160  17.883   5.455  0.2822 -0.0741 -0.2946
67966W        W68830  11.551  18.154   5.622  0.2597 -0.1672  0.1032
67967W        W68831  11.306  18.587   4.870 -0.1456 -0.0242 -0.3511
67968W        W68832   5.624  19.983   4.758 -0.0806  0.1348  0.2000
67969W        W68833  10.351  21.016   9.729  0.0052 -0.0579 -0.1755
67970W        W68834   8.236  16.063   4.321  0.1050  0.0028 -0.1221
67971W        W68835   7.427  22.403   3.838  0.0592 -0.0781  0.2435
67972W        W68836   8.731  20.877   5.921 -0.2176 -0.0778 -0.0968
67973W        W68837   8.406  21.969   5.607  0.4117 -0.3931  0.0448
67974W        W68838   7.873  19.500   5.874  0.0080 -0.0450 -0.0354
67975W        W68839   9.360  20.068   8.035 -0.1256 -0.0539 -0.1159
67976W        W68840   8.523  19.554   7.123  0.0342  0.3486 -0.1882
67977W        W68841  10.426  19.955   6.662 -0.2080  0.1830  0.1826
67978W        W68842  11.290  18.614   5.917 -0.2680 -0.4244 -0.3676
67979W        W68843  12.033  19.957   7.202 -0.3205  0.1532  0.1394
67980W        W68844  12.748  18.693   7.512 -0.2890 -0.1368  0.0347
67981W        W68845   8.800  18.887   3.596 -0.0104  0.0143  0.1130
67982W        W68846   8.380  20.007   1.255  0.0410  0.1172  0.0657
67983W        W68847   6.651  19.636   6.263 -0.0903 -0.0281  0.1231
67984W        W68848   7.534  17.704   7.220  0.1675  0.0076  0.3036
67985W        W68849  13.546  17.780   6.018  0.2855  0.2513  0.5506
67986W        W68850   9.225  17.844   4.270 -0.5798 -0.0924 -0.0784
67987W        W68851   8.707  17.519   6.744 -0.1220  0.0017  0.1526
67988W        W68852   9.137  16.895   1.360 -0.0795 -0.1103 -0.0757
67989W        W68853   9.067  17.314   5.478 -0.1536  0.2045  0.2376
67990W        W68854  11.200  17.608   6.347  0.5257  0.0164  0.3025
67991W        W68855   5.929  20.074   5.125 -0.0276  0.2705 -0.0354
67992W        W68856   9.851  14.730   5.609  0.0696  0.2394  0.0359
67993W        W68857  11.503  21.666   6.388 -0.3208  0.0634  0.0983
67994W        W68858  10.144  21.429   3.828  0.0621  0.0475  0.0526
67995W        W68859   6.406  19.099   7.127 -0.2300 -0.0128  0.2315
67996W        W68860  10.078  19.239   9.146 -0.0549  0.0301  0.1249
67997W        W68861  11.620  18.510   5.310 -0.1504  0.1042  0.0409
67998W        W68862  12.190  21.831   3.323  0.2454  0.0665 -0.2254
67999W        W68863  10.437  18.629   6.496 -0.1161 -0.3628 -0.0659
68000W        W68864   6.032  20.470   5.410 -0.0095 -0.0591  0.2928
68001W        W68865  12.137  19.868   6.259  0.0544 -0.0899 -0.0324
68002W        W68866  12.524  17.911   6.855  0.1335 -0.0685 -0.2037
68003W        W68867  11.002  21.316   4.837 -0.0157 -0.0771 -0.0027
68004W        W68868   7.753  19.923   2.525 -0.1683  0.1785  0.0455
68005W        W68869   8.331  20.804   4.961  0.0978 -0.3736  0.1776
68006W        W68870   8.223  21.718   7.516  0.1580 -0.1336 -0.0987
68007W        W68871   8.767  19.470   6.349  0.0016  0.0947  0.0646
68008W        W68872  10.824  16.425   6.858 -0.1027 -0.0389 -0.2149
68009W        W68873   8.325  18.843   5.720  0.0977 -0.1566  0.1716
68010W        W68874   9.348  22.260   4.646 -0.0693 -0.3636 -0.2199
68011W        W68875   9.951  21.064   5.902  0.2976  0.0110 -0.0717
68012W        W68876   8.837  21.347   8.159 -0.2818  0.1557 -0.1195
68013W        W68877  11.766  20.350   3.989 -0.1818  0.1131 -0.0693
68014W        W68878   8.418  20.246   6.516 -0.0787  0.0540 -0.0632
68015W        W68879   9.112  19.017   6.275  0.1061 -0.1585  0.2250
68016W        W68880   6.540  21.499   6.316  0.1084 -0.2251 -0.0663
68017W        W68881   9.568  22.189   7.564  0.3373  0.2205  0.0533
68018W        W68882   8.454  19.253   6.732  0.0262  0.2487 -0.0639
68019W        W68883   9.180  19.899   5.668  0.0845 -0.2209 -0.2728
68020W        W68884  12.899  22.983   3.455 -0.0186  0.0680  0.2413
68021W        W68885  11.705  14.733   6.481 -0.0603 -0.1953  0.1026
68022W        W68886   9.624  17.105   6.136 -0.1258  0.2901  0.0805
68023W        W68887  11.065  20.117   5.265 -0.1718 -0.3910 -0.3196
68024W        W68888  11.323  19.321   5.115 -0.0894 -0.1465 -0.2300
68025W        W68889   9.865  19.571   8.067  0.0156 -0.0868  0.1756
68026W        W68890  11.519  18.889   6.269  0.2430 -0.0396 -0.0740
68027W        W68891   9.352  21.412   5.550  0.0606  0.0789  0.0127
68028W        W68892   9.632  21.529   7.816  0.2246 -0.0734 -0.1292
68029W        W68893   6.835  21.146   6.035  0.0916  0.2024  0.1787
68030W        W68894   6.089  20.901   5.120 -0.1609  0.1553 -0.0659
68031W        W68895  10.848  23.506   2.979  0.0563 -0.1513  0.1753
68032W        W68896   9.489  22.706   5.003  0.1149  0.0692 -0.0395
68033W        W68897   8.589  18.297   6.543 -0.0053  0.1854 -0.2109
68034W        W68898  12.063  19.968   2.677 -0.0422  0.1690 -0.1837
68035W        W68899   8.961  21.460   6.146 -0.1191 -0.0629 -0.2202
68036W        W68900   8.494  20.775   7.508 -0.2594  0.0779  0.1427
68037W        W68901  11.596  17.588   5.457  0.0877 -0.1846  0.1277
68038W        W68902   9.099  21.312   4.584  0.1654 -0.0619  0.1264
68039W        W68903  10.275  24.077   5.998  0.0444 -0.1215 -0.0466
68040W        W68904  11.237  17.423   6.827  0.3605  0.2668 -0.3624
68041W        W68905   7.785  17.787   6.755  0.1279 -0.0937 -0.0016
68042W        W68906   7.302  19.433   7.493  0.0373  0.1149  0.1181
68043W        W68907   7.880  16.985   7.842 -0.0398  0.1310  0.1983
68044W        W68908   9.084  20.084   9.252 -0.1030  0.1177  0.3419
68045W        W68909   8.253  21.698   9.093 -0.2337 -0.1593 -0.1720
68046W        W68910  10.830  18.829   5.490 -0.2110  0.0167 -0.0101
68047W        W68911  10.322  22.097   5.503 -0.1639 -0.2438 -0.3153
68048W        W68912   7.197  20.273   7.208  0.1586 -0.3147 -0.0894
68049W        W68913  11.369  21.569   3.300  0.2504 -0.0014  0.1606
68050W        W68914  11.631  22.529   8.584 -0.0506  0.1865 -0.0397
68051W        W68915  11.661  20.794   4.140 -0.2042  0.3615  0.0677
68052W        W68916  11.676  21.157   9.818 -0.0022 -0.1754  0.3947
68053W        W68917  11.080  21.279   2.444  0.0021  0.3932 -0.0162
68054W        W68918   8.523  21.548   5.275 -0.3014  0.0242  0.0856
68055W        W68919  10.363  20.186   6.203  0.1020 -0.0804  0.2523
68056W        W68920  11.821  18.373   3.621 -0.1918 -0.1505 -0.4579
68057W        W68921  12.347  18.349   4.740  0.0449  0.0284  0.1065
68058W        W68922   9.484  21.738   4.626  0.0077 -0.0376 -0.4079
68059W        W68923   7.511  21.395   6.287  0.0853  0.0287  0.1079
68060W        W68924  12.530  20.994   5.174 -0.0304 -0.0897  0.3143
68061W        W68925   8.224  17.669   5.851 -0.1255 -0.3614  0.0931
68062W        W68926   8.901  23.416   6.056  0.2838  0.1260 -0.2556
68063W        W68927  10.518  19.605   7.200 -0.2156 -0.2948  0.0276
68064W        W68928   7.821  23.152   6.060  0.0453  0.1574 -0.1785
68065W        W68929  11.908  21.262   4.102 -0.2467  0.0477  0.1581
68066W        W68930  10.441  15.670   7.217  0.0037  0.1124  0.1318
68067W        W68931  10.052  22.752   7.218 -0.0594 -0.1162 -0.1419
68068W        W68932  10.460  16.046   5.530  0.2443 -0.1356 -0.1465
68069W        W68933   8.908  21.591   2.236  0.1654  0.1374  0.4830
68070W        W68934   9.566  20.288   4.870 -0.2112  0.1144 -0.0187
68071W        W68935  10.528  21.294   4.895 -0.1694 -0.0880  0.1600
68072W        W68936   9.818  19.990   6.074  0.1036 -0.3330 -0.0287
68073W        W68937   9.244  18.685   3.533 -0.2122 -0.0457 -0.0171
68074W        W68938   6.687  18.977   8.714  0.0190  0.3444 -0.0986
68075W        W68939   9.145  19.634   6.100 -0.2693  0.1795 -0.0879
68076W        W68940   8.425  19.588   6.043  0.1958 -0.0363  0.0981
68077W        W68941   9.159  15.177   5.721 -0.1136  0.1405 -0.0516
68078W        W68942   7.360  20.909   6.551  0.0392  0.0038  0.0129
68079W        W68943   6.925  21.951   7.432 -0.0693 -0.3143  0.0991
68080W        W68944   8.018  21.330   6.334 -0.1567 -0.0935  0.0285
68081W        W68945   5.966  19.652   4.743  0.1893 -0.2537 -0.0372
68082W        W68946  11.483  20.098   3.488 -0.4674 -0.3519 -0.0607
68083W        W68947  10.523  21.172   8.453 -0.5399 -0.1267 -0.1258
68084W        W68948  11.139  19.320   6.359 -0.0665 -0.0176 -0.1492
68085W        W68949   7.638  22.387   7.269  0.2640 -0.0708  0.4421
68086W        W68950   7.140  22.304   1.596  0.0406  0.1067  0.0583
68087W        W68951   7.913  16.729   7.377 -0.3239  0.0915 -0.2195
68088W        W68952   9.567  19.733   4.208 -0.0356  0.2450 -0.0020
68089W        W68953   8.842  20.335   7.285 -0.2219 -0.0302 -0.1089
68090W        W68954   9.334  21.470   4.145  0.3733  0.1599 -0.2503
68091W        W68955  10.096  19.953   7.157 -0.2738 -0.3141 -0.0948
68092W        W68956   4.771  21.649   2.791  0.0363  0.2481  0.1156
68093W        W68957   9.840  18.221   4.849 -0.1230  0.1281 -0.0928
68094W        W68958   7.979  21.831   3.834  0.2229 -0.0329  0.1353
68095W        W68959   8.675  16.172   5.892 -0.3726 -0.1158 -0.0911
68096W        W68960  10.333  17.728   4.673 -0.1130  0.1298  0.3052
68097W        W68961   8.016  21.492   7.117  0.1358  0.3492 -0.2008
68098W        W68962   9.717  20.218   9.567 -0.1498  0.0304 -0.0763
68099W        W68963  13.227  17.991   5.651  0.3869  0.1918 -0.0024
68100W        W68964   8.995  20.976   6.347  0.0812  0.0937 -0.4368
68101W        W68965   9.098  20.946   3.645  0.1568  0.0169 -0.1313
68102W        W68966  12.025  21.548   5.930 -0.2042 -0.1143 -0.1743
68103W        W68967  10.001  20.431   7.326 -0.0346  0.2411  0.3776
68104W        W68968   9.219  22.328   3.281  0.2687 -0.1663  0.2676
68105W        W68969   9.571  19.410   4.576  0.0382  0.0499 -0.0837
68106W        W68970   5.899  21.505   5.432 -0.2064  0.1663 -0.0947
68107W        W68971  10.152  20.376   7.839 -0.0018  0.2929 -0.1783
68108W        W68972   5.680  20.068   4.099 -0.0440  0.0064 -0.1147
68109W        W68973  11.379  20.551   3.698  0.0359 -0.0971  0.2942
68110W        W68974   6.577  21.377   6.839  0.0935  0.0414  0.2908
68111W        W68975   8.514  20.855   4.008 -0.0242 -0.0246  0.1090
68112W        W68976   7.006  16.658   6.442  0.4262  0.1270 -0.3140
68113W        W68977   8.461  17.763   7.373 -0.0383 -0.1206  0.3773
68114W        W68978   7.198  17.891   1.598 -0.0384 -0.1374  0.2970
68115W        W68979  12.127  17.864   7.646 -0.0738 -0.1568  0.0171
68116W        W68980  10.224  18.130   3.012  0.3990 -0.2546 -0.0528
68117W        W68981   9.323  20.426   6.558 -0.0352  0.0754 -0.1400
68118W        W68982   9.803  21.575   4.204 -0.0523  0.1369 -0.1369
68119W        W68983   7.097  23.518   1.873  0.0361 -0.0661  0.0472
68120W        W68984  11.629  16.276   1.826  0.1190 -0.0316  0.0441
68121W        W68985   9.530  21.207   7.047 -0.0860  0.2414  0.0907
68122W        W68986  10.580  21.329   7.972 -0.1172 -0.0763  0.3166
68123W        W68987   9.247  17.202   6.556 -0.1827 -0.2612  0.3221
68124W        W68988  10.749  19.100   4.438  0.1157 -0.2087  0.1808
68125W        W68989   7.253  20.693   5.460 -0.0382 -0.0880 -0.2753
68126W        W68990   9.913  22.089   6.735 -0.0491  0.0842  0.0688
68127W        W68991   8.314  19.471   5.103  0.3979  0.2503  0.2774
68128W        W68992  10.087  17.462   4.207 -0.1925  0.2073  0.0380
68129W        W68993   9.630  23.175   5.350  0.0509  0.0181  0.1293
68130W        W68994  11.943  22.597   7.038 -0.3319  0.2886 -0.3971
68131W        W68995   9.541  20.818   5.605  0.0663  0.0047 -0.1922
68132W        W68996   6.803  20.603   6.859 -0.0444 -0.0107 -0.0473
68133W        W68997   7.064  20.523   6.327 -0.0187 -0.1125 -0.3061
68134W        W68998   9.789  17.813   4.031  0.0271 -0.1807  0.0694
68135W        W68999   7.070  19.198   7.004 -0.2806 -0.0680 -0.3267
68136W        W69000  11.116  14.740   4.674  0.3891 -0.1743  0.0076
68137W        W69001   9.367  20.354   1.725 -0.1624 -0.1475 -0.1793
68138W        W69002  10.148  18.996   7.416  0.0724 -0.1674  0.2238
68139W        W69003   9.939  21.200   6.735 -0.0952 -0.0961 -0.0826
68140W        W69004   8.913  17.886   8.040 -0.1138  0.1582 -0.1957
68141W        W69005  10.698  19.472   6.756  0.0912 -0.1072 -0.0457
68142W        W69006   9.820  23.622   5.530 -0.2346 -0.2473 -0.1209
68143W        W69007  11.132  17.981   6.657 -0.0384  0.0077 -0.1142
68144W        W69008   5.323  19.114   6.569  0.0296  0.0934 -0.3099
68145W        W69009   9.057  23.922   5.986  0.1634  0.1260 -0.0503
68146W        W69010   5.743  18.192   3.554 -0.1487  0.0113 -0.2891
68147W        W69011  11.280  16.950   4.957  0.4081  0.1387  0.2542
68148W        W69012   7.808  20.870   6.248 -0.3025 -0.3142 -0.1744
68149W        W69013   6.364  20.841   6.788 -0.0295 -0.0452  0.0351
68150W        W69014  10.781  19.576  10.213  0.1631 -0.0591 -0.1982
68151W        W69015  11.789  22.000   3.781  0.0234  0.0770 -0.2394
68152W        W69016  10.466  18.236   8.703  0.2167 -0.1234  0.0417
68153W        W69017  11.065  20.508   5.625 -0.4036 -0.1952  0.1448
68154W        W69018  11.551  20.679   6.463  0.0509 -0.0030  0.0904
68155W        W69019   9.681  19.636   7.003  0.1466  0.2156  0.0656
68156W        W69020   6.804  20.803   4.122 -0.0097  0.0755  0.1323
68157W        W69021  10.021  18.688   5.970  0.2041 -0.0587 -0.0012
68158W        W69022   9.567  22.728   9.072 -0.3727 -0.0443 -0.0361
68159W        W69023   6.622  21.500   4.581  0.3479 -0.2637  0.0184
68160W        W69024  11.831  20.700   8.282 -0.1261  0.1010  0.0740
68161W        W69025  13.344  24.053   2.509 -0.0874 -0.0252 -0.2364
68162W        W69026   8.650  18.560   7.025  0.0114 -0.1181 -0.1167
68163W        W69027  11.114  21.629   2.843 -0.3207 -0.3285 -0.1570
68164W        W69028   9.538  18.649   2.475 -0.0484 -0.0824 -0.0917
68165W        W69029   6.174  21.011  10.567  0.0137 -0.0383  0.0120
68166W        W69030   8.477  19.179  12.433  0.3185  0.0214  0.7666
68167W        W69031  11.459  21.607   9.282  0.2077 -0.0670  0.0717
68168W        W69032  12.315  22.016  10.258 -0.1377 -0.1855  0.3161
68169W        W69033   7.422  24.236   9.033 -0.0096  0.0477 -0.1529
68170W        W69034   8.677  17.521   8.217 -0.1085 -0.0001 -0.0963
68171W        W69035   8.033  19.493   6.435 -0.2409 -0.2413  0.1710
68172W        W69036   8.848  19.992   8.676 -0.0483  0.0568  0.2415
68173W        W69037   8.938  20.026  11.233  0.0306  0.0265  0.0933
68174W        W69038  10.137  20.423  13.016  0.1624  0.1349  0.4244
68175W        W69039   9.556  15.335  10.384  0.1561 -0.1629 -0.1520
68176W        W69040  10.003  17.130  11.506  0.0590  0.3301  0.1094
68177W        W69041  11.289  21.160   7.574 -0.0039 -0.2397  0.0692
68178W        W69042  10.537  19.377  11.106  0.0390 -0.1508 -0.2073
68179W        W69043   7.331  20.766  10.020 -0.1625 -0.3553 -0.0055
68180W        W69044   8.001  22.553   9.873 -0.0045  0.0812  0.0053
68181W        W69045  11.213  20.052   9.243  0.0524  0.1917 -0.0506
68182W        W69046   8.591  19.444  10.424 -0.2035  0.0430 -0.1101
68183W        W69047   7.506  18.909  12.382  0.2150 -0.1657 -0.0845
68184W        W69048  13.843  18.150   5.831  0.2712 -0.0031  0.0748
68185W        W69049  11.328  19.117   9.585  0.1626  0.3018 -0.1598
68186W        W69050  12.313  19.807  10.449  0.1173  0.0006  0.2675
68187W        W69051   9.878  20.097   8.158 -0.4450 -0.0170  0.2953
68188W        W69052   9.591  17.167   7.502 -0.2511 -0.0489  0.1620
68189W        W69053   9.340  18.013   7.711 -0.0609  0.0416  0.1840
68190W        W69054  10.074  21.946  10.902  0.2790  0.1175  0.1174
68191W        W69055  11.458  21.292   8.010 -0.2199  0.1841 -0.1013
68192W        W69056  10.266  22.338   9.207 -0.0773 -0.3202  0.1097
68193W        W69057   9.776  20.877  10.945 -0.1812  0.1671 -0.0245
68194W        W69058   7.549  19.464   8.007 -0.0534 -0.5515  0.2300
68195W        W69059   9.674  18.809   8.086  0.1065 -0.4017 -0.0834
68196W        W69060  10.566  20.736  11.707 -0.2399 -0.1163 -0.0943
68197W        W69061   9.308  21.802  11.310  0.0712 -0.1337 -0.1666
68198W        W69062  11.883  21.027  10.609 -0.1980 -0.1955  0.0778
68199W        W69063   8.738  19.334  11.544 -0.1171 -0.0094 -0.0654
68200W        W69064  11.452  23.928  11.557 -0.1869  0.2799 -0.2277
68201W        W69065  10.319  16.781   6.629 -0.0561 -0.0598 -0.0727
68202W        W69066  10.541  20.324  10.727  0.0494  0.0187 -0.2619
68203W        W69067  11.914  21.837   9.110  0.0626  0.1496 -0.0747
68204W        W69068  11.230  16.744   6.858 -0.0866  0.0960 -0.1524
68205W        W69069  11.805  17.346   7.642 -0.1158  0.0405  0.0027
68206W        W69070   9.163  18.551   9.399  0.2039 -0.0314 -0.0875
68207W        W69071   9.783  20.701   6.896 -0.1947 -0.2862 -0.2237
68208W        W69072   7.597  21.456   8.367  0.1235 -0.4602  0.0710
68209W        W69073   7.647  22.294   6.750  0.3809 -0.4048 -0.1854
68210W        W69074   5.838  23.666   8.390  0.0060  0.1509 -0.3559
68211W        W69075   8.666  16.939   9.015 -0.2789  0.1257 -0.1424
68212W        W69076  11.553  19.265  10.095  0.0756 -0.0220  0.0984
68213W        W69077  11.774  19.391  10.558 -0.1008  0.2248 -0.3635
68214W        W69078  10.649  21.099   7.491 -0.2006 -0.3376 -0.0663
68215W        W69079  10.180  21.676  10.476  0.0654 -0.0178 -0.0479
68216W        W69080  14.271  17.272   6.293 -0.1947 -0.1636 -0.1506
68217W        W69081   8.476  21.993   7.808 -0.0507  0.0813  0.0497
68218W        W69082  10.305  18.320   9.350 -0.3194 -0.0065  0.2433
68219W        W69083   8.833  15.994   9.802 -0.3171 -0.3759  0.4866
68220W        W69084   6.348  21.447   8.086 -0.2257  0.2323 -0.1999
68221W        W69085   5.485  20.138   9.050 -0.0339  0.1232  0.1636
68222W        W69086  11.739  18.379  10.286 -0.1563 -0.2372 -0.2161
68223W        W69087   5.715  19.756  13.577  0.0647  0.2125  0.3018
68224W        W69088   7.025  20.337   8.451  0.1280  0.1291  0.0972
68225W        W69089  11.592  18.417   6.563 -0.2780 -0.2372  0.0110
68226W        W69090   9.101  21.626  10.868 -0.2463  0.0971  0.2047
68227W        W69091   7.801  21.824   9.610  0.3081 -0.1489 -0.0577
68228W        W69092   6.691  19.499  10.093  0.0234 -0.0241  0.4271
68229W        W69093   9.733  19.902  10.814 -0.0795 -0.3740 -0.1537
68230W        W69094  14.424  19.728   8.533 -0.0801  0.4102  0.1127
68231W        W69095   9.301  17.664   4.735  0.1570  0.0810  0.0070
68232W        W69096   7.997  19.932   7.535 -0.0238  0.4529 -0.0041
68233W        W69097   8.307  19.215   7.444 -0.2750 -0.0878  0.2888
68234W        W69098   7.901  20.829   9.534  0.5363 -0.1527 -0.2086
68235W        W69099  10.660  23.557  12.273  0.2200 -0.1069  0.0669
68236W        W69100  10.775  19.898   8.261 -0.0363  0.0331 -0.2202
68237W        W69101  14.124  22.161   9.494 -0.0546 -0.0965  0.0817
68238W        W69102  10.006  21.058   9.387 -0.2365 -0.0740  0.0248
68239W        W69103   9.265  19.260  11.219 -0.0824 -0.0017 -0.2847
68240W        W69104  10.698  22.125   9.767  0.0831 -0.2368 -0.3963
68241W        W69105   6.966  19.350   9.006  0.0603  0.2507  0.1390
68242W        W69106   7.148  19.356  12.218 -0.0450 -0.2391  0.1240
68243W        W69107   9.047  19.150   9.908  0.1192  0.0923 -0.0142
68244W        W69108  11.530  18.952   8.084  0.0262 -0.0411 -0.0040
68245W        W69109   7.965  20.332   9.461  0.0437 -0.2946 -0.0189
68246W        W69110   9.008  22.486  13.527  0.1577  0.1384 -0.0591
68247W        W69111   5.833  15.168   8.364 -0.1154 -0.1668 -0.0383
68248W        W69112  11.557  16.732  12.685 -0.1016  0.1308 -0.2020
68249W        W69113   8.379  19.206   8.102 -0.0458 -0.4069  0.1237
68250W        W69114  10.192  17.490   5.445  0.0105  0.0565  0.2534
68251W        W69115  10.598  22.091  10.453 -0.1344  0.0670 -0.4232
68252W        W69116  10.585  15.661  10.033  0.2535 -0.0564 -0.0331
68253W        W69117   8.882  21.733  10.018 -0.0110  0.1096 -0.2382
68254W        W69118  11.574  18.814   9.881  0.1317  0.1048  0.3736
68255W        W69119  11.249  18.536   8.328 -0.3757 -0.4702  0.1906
68256W        W69120   9.793  17.032  10.659 -0.2421 -0.1544  0.0112
68257W        W69121   8.991  21.391   8.704  0.2267 -0.2457  0.0465
68258W        W69122  10.343  16.652   7.559 -0.1751  0.0322  0.2160
68259W        W69123   7.706  19.520   9.423 -0.2250  0.2903 -0.0450
68260W        W69124  11.845  20.319   8.756  0.2273 -0.0835  0.2410
68261W        W69125  13.382  18.367   8.037  0.3166 -0.2932  0.0198
68262W        W69126  10.282  20.303  12.486  0.0467  0.0212 -0.0387
68263W        W69127  10.044  17.236   8.451 -0.2943  0.2448  0.0974
68264W        W69128   9.456  18.693   6.513 -0.2151  0.0756  0.1467
68265W        W69129  10.040  21.839   7.766 -0.6273  0.0186 -0.1119
68266W        W69130   8.415  20.422  10.855 -0.5589 -0.2930  0.3644
68267W        W69131  13.045  17.695   7.572  0.0465 -0.1001  0.1756
68268W        W69132   9.607  22.412   8.085 -0.2179  0.0335 -0.1308
68269W        W69133  10.699  19.696   7.697 -0.2427  0.0504  0.0121
68270W        W69134  10.044  18.260   8.901 -0.1194 -0.1068 -0.1417
68271W        W69135   8.640  21.774   9.382  0.1107  0.1442  0.0228
68272W        W69136  11.957  21.468   9.450 -0.0636  0.1314  0.2083
68273W        W69137   9.057  18.400   6.833 -0.2968  0.1315 -0.1636
68274W        W69138   9.170  17.862   8.845  0.0931  0.0524 -0.1851
68275W        W69139   8.201  18.573   8.411  0.4310 -0.0503  0.1005
68276W        W69140  11.607  23.466   9.535  0.0163 -0.0116  0.1406
68277W        W69141  13.434  21.237   8.006 -0.0218  0.1277 -0.1460
68278W        W69142  10.834  20.993   9.466 -0.0978  0.0326 -0.1174
68279W        W69143  10.580  19.148   7.783 -0.1018  0.2426  0.0536
68280W        W69144   9.870  20.537   9.159  0.0717  0.0127 -0.2254
68281W        W69145  11.238  18.438  11.119 -0.0284  0.0261 -0.1006
68282W        W69146   8.526  19.002  10.784 -0.3751 -0.0082  0.3306
68283W        W69147  11.649  19.788   8.397  0.0772  0.2126 -0.0685
68284W        W69148  11.697  20.261  10.125  0.3756 -0.1005 -0.1305
68285W        W69149  11.371  20.781   8.166  0.0123  0.0006  0.0998
68286W        W69150  10.050  21.441   8.697  0.0917  0.2254 -0.1984
68287W        W69151  12.243  22.243   9.009 -0.3436 -0.1411  0.2342
68288W        W69152  11.816  19.301   9.652  0.0822 -0.1773 -0.1505
68289W        W69153  12.386  18.397  11.437  0.1945  0.0126 -0.1529
68290W        W69154  12.490  19.569   8.610 -0.1177  0.1263 -0.1734
68291W        W69155   7.686  15.490   8.640 -0.0268  0.1951 -0.1036
68292W        W69156   8.250  19.442  10.863 -0.0502  0.0493 -0.1912
68293W        W69157  11.228  21.532   5.476  0.1075 -0.0226 -0.1611
68294W        W69158   9.596  18.848   9.287 -0.1670 -0.0066 -0.0660
68295W        W69159  10.483  22.994   8.726  0.0023 -0.0214 -0.1449
68296W        W69160   8.707  17.889  10.343  0.1378 -0.0416  0.1846
68297W        W69161   9.250  22.435   8.821 -0.0574  0.0931  0.1177
68298W        W69162  12.933  20.296   6.323  0.0848  0.0465 -0.0066
68299W        W69163  10.012  20.104  11.939 -0.2234  0.0508 -0.3222
68300W        W69164  11.747  23.029   9.517  0.0601  0.2407  0.2899
68301W        W69165  10.668  20.147  10.098 -0.0771  0.0902  0.0825
68302W        W69166  11.293  18.639  12.296 -0.0952  0.1205 -0.1437
68303W        W69167  11.731  17.452   9.408  0.0665 -0.1545 -0.1076
68304W        W69168  11.514  21.740   8.256 -0.2414  0.1198  0.2707
68305W        W69169   8.648  14.441   6.768  0.1377  0.0444 -0.0757
68306W        W69170   8.921  18.279   8.974  0.2836  0.0823 -0.0333
68307W        W69171   7.970  23.830   4.918  0.0383  0.3288 -0.0597
68308W        W69172   8.715  20.934   8.482 -0.1716 -0.0511  0.0905
68309W        W69173  10.471  21.315  11.780  0.1458  0.0171  0.0329
68310W        W69174   8.737  17.541   8.803  0.1869  0.0850  0.1946
68311W        W69175  10.015  18.401   9.810  0.1681  0.3024 -0.0663
68312W        W69176   8.693  23.148   9.251 -0.1329 -0.1951  0.1712
68313W        W69177  10.956  20.578  10.845 -0.0079  0.2377 -0.0986
68314W        W69178   8.758  19.050   9.448 -0.0865 -0.1733 -0.5369
68315W        W69179  12.274  21.520   9.071 -0.0819 -0.0480  0.1403
68316W        W69180  11.689  17.691   8.500 -0.1023 -0.1207 -0.2196
68317W        W69181   6.791  20.111   7.512  0.0188  0.1651  0.1253
68318W        W69182   7.607  19.291   6.263 -0.1002  0.0128  0.1919
68319W        W69183   8.693  18.781  11.541 -0.1776 -0.0019  0.2832
68320W        W69184  10.843  18.502  10.266  0.0804 -0.0594 -0.0040
68321W        W69185   7.106  18.052   9.316 -0.0280 -0.1394  0.0808
68322W        W69186   8.422  19.078   6.220 -0.3220 -0.0559  0.1868
68323W        W69187   9.725  18.322   6.854 -0.2029 -0.2410 -0.0597
68324W        W69188   7.727  18.705   8.376 -0.3364 -0.2181 -0.1717
68325W        W69189  10.152  20.963   8.923 -0.0262 -0.1605  0.2717
68326W        W69190   8.521  19.218   9.921  0.0922 -0.3559  0.2009
68327W        W69191  10.403  22.865  10.567  0.0318 -0.2544  0.1579
68328W        W69192  11.571  18.355  11.543 -0.0337  0.0056 -0.1495
68329W        W69193  10.067  19.147  11.541 -0.0492 -0.0349 -0.0799
68330W        W69194   7.780  19.090   9.127 -0.0908  0.2153 -0.1556
68331W        W69195   7.340  18.999   6.590  0.0398 -0.2320 -0.3288
68332W        W69196   7.265  20.716   8.226  0.1213 -0.0394  0.2927
68333W        W69197   9.421  21.792   9.989  0.1020 -0.2346 -0.0413
68334W        W69198   9.188  18.900   7.357 -0.1596  0.1262 -0.1822
68335W        W69199  12.002  19.631  10.123  0.1067  0.1458  0.0305
68336W        W69200  12.943  20.114   7.886  0.0580  0.1479 -0.0762
68337W        W69201  13.313  18.063   7.141  0.1286 -0.0744 -0.0700
68338W        W69202  11.187  20.847   9.904  0.0172 -0.1658 -0.1659
68339W        W69203   9.544  17.062   8.074  0.0847  0.2186  0.3195
68340W        W69204   9.611  20.038   9.099 -0.0004  0.3835 -0.1951
68341W        W69205   7.114  19.796   9.878  0.1727 -0.1688 -0.2525
68342W        W69206   8.512  19.639   7.709 -0.2808 -0.0022  0.4032
68343W        W69207   6.236  22.575   8.037 -0.4653  0.0808  0.4098
68344W        W69208  11.767  18.887   9.352  0.0505  0.0685  0.0278
68345W        W69209   9.500  21.376   8.757 -0.0683  0.0521 -0.0801
68346W        W69210   9.367  19.748   9.496 -0.1967 -0.1360 -0.0861
68347W        W69211   9.554  17.617   7.334 -0.2099  0.0429  0.0186
68348W        W69212   8.539  18.356   8.121 -0.0096  0.0117  0.0084
68349W        W69213  11.211  19.797   4.915  0.2299 -0.1178  0.0967
68350W        W69214  11.055  20.156  11.475  0.1913  0.0018  0.2515
68351W        W69215  14.134  18.863   8.700 -0.0761  0.0451  0.0851
68352W        W69216   7.868  17.367   7.110  0.1928 -0.0831 -0.0680
68353W        W69217   8.730  19.497  13.690  0.0485 -0.0210 -0.1146
68354W        W69218   8.979  18.019   9.473 -0.1852 -0.2231 -0.0680
68355W        W69219   9.174  21.324   9.157  0.1033 -0.0744  0.0104
68356W        W69220   8.809  17.977   7.021  0.2127 -0.0241  0.2496
68357W        W69221   8.822  19.278   7.511 -0.0225  0.2445 -0.0094
68358W        W69222   8.877  20.406  10.940 -0.0059  0.0913  0.1133
68359W        W69223  11.059  20.353   8.179  0.2444 -0.0396 -0.1827
68360W        W69224   7.701  18.037   7.724 -0.3324 -0.3844 -0.0705
68361W        W69225   9.722  19.365   7.553  0.0412  0.1834 -0.2965
68362W        W69226   9.999  18.660  11.750  0.2422 -0.1175 -0.0995
68363W        W69227  10.320  18.200   8.011  0.1201  0.0804 -0.0535
68364W        W69228  14.135  20.991   8.078 -0.0472 -0.2561 -0.0512
68365W        W69229   9.532  17.074  10.192  0.2746 -0.4455  0.3599
68366W        W69230  10.376  18.707   7.933  0.1457  0.1837  0.2406
68367W        W69231  14.383  20.179   8.142 -0.3287  0.1241  0.0124
68368W        W69232   9.437  14.974  10.893 -0.1493 -0.2528 -0.0466
68369W        W69233   9.340  17.872   8.376  0.0383  0.0349  0.1466
68370W        W69234   9.232  16.544   6.800  0.1994 -0.0422  0.2593
68371W        W69235   9.179  21.009   9.615  0.1667  0.2527  0.0777
68372W        W69236   9.742  22.446  10.638 -0.2282 -0.0007 -0.0330
68373W        W69237  10.628  21.261   6.204  0.2835 -0.0098 -0.0556
68374W        W69238  10.853  19.933   6.333  0.1500  0.2036  0.0344
68375W        W69239   9.018  18.605  11.982  0.0801 -0.0875  0.2017
68376W        W69240   7.905  21.338   9.230 -0.0586 -0.1948 -0.0114
68377W        W69241   8.306  23.505   9.948 -0.3518 -0.0740  0.2519
68378W        W69242  12.623  16.228  14.346 -0.1247 -0.1721  0.2159
68379W        W69243  11.448  23.039   8.714 -0.3996 -0.2801  0.0821
68380W        W69244  12.989  21.453   7.760 -0.1452 -0.0255 -0.0865
68381W        W69245   8.289  20.763   6.510 -0.2853 -0.2880  0.1010
68382W        W69246   8.721  22.419   7.737 -0.3877  0.0994  0.1693
68383W        W69247  10.048  18.907  10.051 -0.1564  0.0152  0.0083
68384W        W69248   7.867  22.133   8.874  0.0534 -0.3006  0.0008
68385W        W69249   9.647  20.664  11.876  0.0576  0.0757 -0.2679
68386W        W69250   9.203  20.117  10.586  0.3151 -0.2824  0.1317
68387W        W69251   9.907  22.408  11.992  0.0070 -0.2212 -0.2686
68388W        W69252   9.580  20.890   6.432  0.2451  0.0518 -0.0374
68389W        W69253   8.480  20.462   7.903  0.1577  0.0992 -0.0781
68390W        W69254   9.685  20.433  10.707  0.4819  0.1193 -0.1720
68391W        W69255   9.663  22.288  10.077  0.0784  0.2098  0.2793
68392W        W69256  10.706  16.846  10.075  0.2611  0.2900 -0.0952
68393W        W69257   7.010  21.868   9.658 -0.3724 -0.1113  0.0234
68394W        W69258  11.661  20.395   7.893 -0.0818 -0.2658  0.0276
68395W        W69259   8.536  19.715  11.244 -0.3642 -0.1821  0.0616
68396W        W69260   9.850  22.322  13.451  0.4665  0.0535 -0.2802
68397W        W69261   8.882  18.699   9.815  0.2491  0.1763 -0.0696
68398W        W69262  11.361  21.901  10.081  0.0728  0.0465 -0.1375
68399W        W69263   9.947  16.529   8.735 -0.1360  0.0918 -0.3840
68400W        W69264   9.668  20.468  11.420  0.3206  0.2516  0.1025
68401W        W69265  11.458  20.277   8.442  0.1692 -0.0880  0.0704
68402W        W69266   9.482  20.175   8.575  0.0072  0.3070  0.1451
68403W        W69267   9.333  22.987   8.031 -0.2013  0.1255 -0.1414
68404W        W69268   9.980  22.965   8.540 -0.2866 -0.1044  0.2348
68405W        W69269   8.884  21.227  10.013 -0.0861 -0.0755  0.1620
68406W        W69270   7.777  20.995  10.590  0.2452 -0.2009  0.2757
68407W        W69271   8.952  16.701  10.775 -0.2535 -0.0762 -0.0834
68408W        W69272   9.693  17.415   8.760 -0.0522  0.1926 -0.1145
68409W        W69273   9.221  18.757   8.894  0.4686 -0.1279  0.4251
68410W        W69274   8.027  18.526   6.335 -0.1348 -0.1218  0.1584
68411W        W69275  12.597  19.309  12.666 -0.3160  0.0862  0.1647
68412W        W69276   9.331  20.241  11.074 -0.0406  0.2183 -0.2650
68413W        W69277  10.375  20.270   8.356  0.2335  0.1674 -0.0011
68414W        W69278   8.103  19.967   9.786 -0.0055  0.3713  0.1347
68415W        W69279  10.241  17.771   8.290  0.0276 -0.0108  0.0198
68416W        W69280   8.449  21.521  10.107 -0.3198  0.2054  0.2345
68417W        W69281  11.536  21.125   8.510 -0.1614 -0.3237 -0.0198
68418W        W69282  10.668  21.304  11.164  0.1650 -0.1084  0.1733
68419W        W69283   9.952  18.562   7.789  0.0877  0.0390 -0.3050
68420W        W69284  10.749  21.652   8.326 -0.0264 -0.1179 -0.0021
68421W        W69285   9.302  19.382   7.255  0.1467 -0.3397  0.1700
68422W        W69286  10.467  15.966  11.392 -0.2863 -0.0052  0.2142
68423W        W69287  11.501  17.357   7.228 -0.2854 -0.3210  0.0938
68424W        W69288  11.606  18.230   8.707  0.0363  0.0317 -0.0277
68425W        W69289   9.038  18.370   8.150 -0.2970  0.0231  0.1457
68426W        W69290  11.444  20.172   9.670 -0.1818 -0.0158  0.2321
68427W        W69291  10.353  21.356  10.175 -0.1609 -0.1385 -0.3348
68428W        W69292  10.451  20.617  12.135  0.3375 -0.1120 -0.0490
68429W        W69293  10.954  20.729   7.402 -0.1422 -0.1667  0.2195
68430W        W69294  10.583  19.281   8.945 -0.1175 -0.0868  0.1067
68431W        W69295   7.175  22.416   6.936  0.0687 -0.1807 -0.1210
68432W        W69296  11.653  21.541   7.442 -0.0832  0.1003 -0.1246
68433W        W69297   8.414  16.866   9.948 -0.0978 -0.0013 -0.3130
68434W        W69298  12.204  19.773   4.836 -0.1954 -0.0287 -0.0778
68435W        W69299   9.250  18.298   8.605 -0.0017  0.1726 -0.0402
68436W        W69300   8.748  18.758   7.993  0.1364 -0.0491  0.4350
68437W        W69301  10.783  21.182   9.955 -0.1995  0.1373 -0.1165
68438W        W69302   7.651  20.991  11.095  0.0157 -0.0837 -0.1536
68439W        W69303  10.256  21.938   9.500  0.2379  0.1631 -0.1385
68440W        W69304   9.449  18.808  14.139 -0.0006 -0.3732 -0.0403
68441W        W69305   9.029  18.120  10.725  0.1698 -0.1521 -0.0350
68442W        W69306   9.291  19.229   9.480  0.0304 -0.0773  0.0141
68443W        W69307   7.241  18.096   7.368 -0.0416 -0.0056  0.0205
68444W        W69308  11.077  21.714   9.608 -0.1576 -0.0409  0.0386
68445W        W69309  10.364  18.994   6.820  0.1793 -0.1342 -0.0840
68446W        W69310   9.498  18.004   6.552  0.0332 -0.0410 -0.2601
68447W        W69311   9.401  19.801   6.511  0.2130 -0.1908 -0.0874
68448W        W69312   8.860  24.351  12.169 -0.1088  0.0777 -0.0474
68449W        W69313  10.606  20.224   7.103  0.2110  0.3382 -0.2498
68450W        W69314   9.044  21.532  12.063  0.0150  0.0455  0.1143
68451W        W69315  10.008  19.710   8.955 -0.0968 -0.1008  0.1054
68452W        W69316   7.816  18.073  11.671 -0.0293  0.1758 -0.1229
68453W        W69317  13.087  18.273   7.607 -0.2837  0.2632 -0.1279
68454W        W69318  10.734  23.389   4.947 -0.0490 -0.3662 -0.0554
68455W        W69319   7.755  19.477   7.407  0.4548  0.1805  0.4314
68456W        W69320  10.315  18.300   6.885 -0.1422 -0.1883 -0.2436
68457W        W69321  12.139  18.701  11.133  0.0232  0.0914  0.1748
68458W        W69322   7.268  19.978   8.087  0.0692 -0.0588 -0.3688
68459W        W69323   9.213  20.635  10.659 -0.1078  0.1998 -0.0324
68460W        W69324  11.103  18.673   7.772 -0.1843  0.0571 -0.3561
68461W        W69325  10.660  18.142  11.917  0.2116 -0.1426 -0.4631
68462W        W69326   9.588  18.717   9.933  0.2613 -0.0182  0.5337
68463W        W69327  12.052  19.341   6.615 -0.3024  0.0236 -0.1210
68464W        W69328   8.227  19.923  10.735  0.1469 -0.1912 -0.2299
68465W        W69329   5.646  21.580   5.862 -0.2837 -0.1502  0.2972
68466W        W69330   6.263  17.646  13.058  0.0765  0.2967  0.0501
68467W        W69331  10.015  19.586  11.228 -0.3105  0.1877  0.0009
68468W        W69332  14.596  20.755   8.007 -0.1094  0.2084  0.0243
68469W        W69333  11.268  20.677   9.434 -0.3870 -0.0624  0.2357
68470W        W69334   9.305  23.713  10.880 -0.1027 -0.0796  0.1637
68471W        W69335   8.082  19.060   8.579 -0.0765 -0.1853 -0.3004
68472W        W69336   9.779  18.422   9.373 -0.0037  0.1269  0.2484
68473W        W69337  10.252  16.613   9.878 -0.2567 -0.0274 -0.0835
68474W        W69338   6.468  19.265   9.175  0.1433 -0.1701  0.1647
68475W        W69339   9.687  15.821  12.169  0.0515 -0.0585  0.2005
68476W        W69340   7.527  19.890   9.030 -0.0130  0.1976 -0.2160
68477W        W69341  10.011  21.107  10.527 -0.5281 -0.0410  0.0716
68478W        W69342  10.436  19.686   9.368  0.1140 -0.1962 -0.0736
68479W        W69343   9.183  19.728   8.407 -0.3693  0.1709  0.0065
68480W        W69344  10.464  19.026   8.547  0.2223 -0.3451 -0.0331
68481W        W69345   8.680  17.546   9.980  0.0111  0.0537 -0.0496
68482W        W69346   9.940  18.751   6.613  0.2828 -0.2524  0.2132
68483W        W69347   9.531  21.937   8.010 -0.0176 -0.3243 -0.1158
68484W        W69348  10.817  18.643   8.789  0.0383 -0.1840  0.2968
68485W        W69349  10.194  22.315   9.900  0.3426  0.0701  0.1146
68486W        W69350   8.641  23.407   7.302  0.0024 -0.0240 -0.0155
68487W        W69351   8.490  22.649   9.162 -0.0646  0.2272 -0.0623
68488W        W69352  10.349  19.922   7.963  0.1930 -0.0002  0.0103
68489W        W69353  10.063  18.790   8.777  0.1701  0.0422 -0.2995
68490W        W69354   6.863  20.253   9.089 -0.2622 -0.2543  0.1108
68491W        W69355   9.410  16.065   6.794  0.0912  0.0930  0.2316
68492W        W69356   9.810  17.987   8.513  0.3032  0.3647  0.1583
68493W        W69357   9.249  17.569   9.263 -0.2260  0.0632 -0.1151
68494W        W69358   8.665  18.183   7.622 -0.2626  0.0762  0.0422
68495W        W69359   9.542  19.802  11.239 -0.0201  0.1479  0.3678
68496W        W69360  12.013  21.017   5.328  0.0719  0.0505 -0.0011
68497W        W69361   8.773  20.341  10.403 -0.3880  0.1586  0.1680
68498W        W69362  10.888  20.690  11.361 -0.0409  0.1722  0.0633
68499W        W69363  11.649  16.935   9.396  0.0076  0.0036  0.2099
68500W        W69364  12.316  21.004  10.321 -0.1017  0.1923  0.2123
68501W        W69365   9.430  22.631   9.641  0.4824  0.3324 -0.1503
68502W        W69366  12.649  22.510   9.026 -0.0988  0.2002 -0.0645
68503W        W69367   9.953  18.478  10.286 -0.1120  0.3514  0.2693
68504W        W69368   9.776  17.543   8.161  0.0369  0.0415 -0.0539
68505W        W69369   9.432  23.126   8.577 -0.0421 -0.1700  0.2458
68506W        W69370   8.655  18.241   9.901  0.0603  0.2054 -0.0640
68507W        W69371   6.655  17.285   8.153 -0.1129 -0.2196  0.1153
68508W        W69372   7.710  21.245   9.747 -0.1917  0.0363  0.0880
68509W        W69373  12.156  18.534   9.477 -0.1913  0.1546  0.1503
68510W        W69374  10.357  22.049  14.247 -0.0283 -0.0794 -0.3499
68511W        W69375   6.803  17.256   8.874 -0.1757  0.0597  0.0166
68512W        W69376   9.985  17.425   9.224 -0.1031 -0.0507 -0.0585
68513W        W69377   8.232  18.666  10.609  0.1233  0.3493  0.2210
68514W        W69378   7.677  20.409   7.919 -0.0603  0.0359 -0.1768
68515W        W69379   9.744  18.066  10.120  0.4293  0.2352  0.0350
68516W        W69380  10.856  18.523   6.814 -0.1832 -0.1133 -0.0306
68517W        W69381  11.861  21.365   6.798 -0.3898  0.1280  0.0398
68518W        W69382   9.332  18.576   7.736 -0.5390  0.2706  0.0188
68519W        W69383  10.984  19.663   9.000 -0.1105 -0.2891  0.1510
68520W        W69384  12.904  17.289   6.269  0.0510 -0.0659  0.0757
68521W        W69385   7.445  20.989   9.310 -0.1094 -0.0713 -0.0213
68522W        W69386   9.734  19.153  11.123  0.1847  0.1574  0.1357
68523W        W69387   9.321  17.084  10.634  0.0806 -0.1668 -0.3468
68524W        W69388   6.244  15.416   7.597 -0.1147  0.1680 -0.2596
68525W        W69389   9.853  17.992   7.870 -0.0836  0.0235  0.1935
68526W        W69390  10.414  18.280  10.150 -0.1392 -0.0394 -0.2722
68527W        W69391   9.352  20.195   9.932  0.0269 -0.0469  0.2994
68528W        W69392  10.548  15.451  11.206  0.1007 -0.1565 -0.1022
68529W        W69393  10.786  21.611  10.196 -0.3264  0.1020 -0.1090
68530W        W69394   9.134  21.519   9.638 -0.2523 -0.1724 -0.2990
68531W        W69395  10.597  19.869   8.700 -0.2586 -0.1009  0.4562
68532W        W69396  10.594  21.561   8.828 -0.1692  0.0165  0.0490
68533W        W69397  12.259  17.138   6.388  0.0311  0.0766 -0.1410
68534W        W69398  11.960  16.363   7.951  0.1447  0.1514  0.1017
68535W        W69399   6.489  21.663   7.227 -0.1312  0.0036  0.0246
68536W        W69400  10.751  17.293   6.772 -0.2647 -0.1633  0.3729
68537W        W69401   8.247  19.935   7.958  0.0028 -0.1831  0.0044
68538W        W69402   9.158  20.039   6.911  0.0084 -0.0237  0.3292
68539W        W69403   9.007  21.406   7.154  0.2560 -0.3821  0.0279
68540W        W69404  10.948  18.835   9.876 -0.0520  0.0965 -0.2602
68541W        W69405   8.090  20.579  10.418 -0.1083 -0.4717 -0.0524
68542W        W69406  10.230  23.467   8.852 -0.0363 -0.1022 -0.0950
68543W        W69407  10.573  18.001  11.453  0.1811 -0.0262 -0.0881
68544W        W69408   7.313  18.235  11.586  0.1025  0.2366 -0.2068
68545W        W69409  11.402  21.101  11.780  0.0487  0.0391 -0.0488
68546W        W69410   6.270  20.060   7.979 -0.1591  0.1664 -0.3374
68547W        W69411   7.866  17.328   6.601 -0.1541 -0.3931 -0.1330
68548W        W69412  12.266  19.324  10.511 -0.4302 -0.1388  0.0435
68549W        W69413  11.806  22.079   8.554 -0.2233  0.1611 -0.0726
68550W        W69414   9.516  18.412  10.510  0.2308 -0.1969  0.1818
68551W        W69415  10.071  20.601   9.679 -0.1403  0.0579  0.1705
68552W        W69416  10.701  21.859   9.183  0.3115  0.0977 -0.0184
68553W        W69417   8.499  21.713   7.041 -0.1628  0.1005  0.2918
68554W        W69418   8.993  20.127   7.702  0.1105  0.0254  0.2143
68555W        W69419  10.126  21.744  11.808  0.1963 -0.1426  0.0681
68556W        W69420   7.567  19.109   7.115  0.2862 -0.1598 -0.1836
68557W        W69421   9.285  21.262   8.326 -0.0651  0.0844 -0.0897
68558W        W69422  13.086  21.766   9.316 -0.2635 -0.0168 -0.1342
68559W        W69423  10.431  20.787   8.057 -0.0864  0.1798  0.4227
68560W        W69424  10.667  16.468  11.276 -0.0286 -0.0930  0.1871
68561W        W69425   9.660  21.430   5.949 -0.0797  0.1624 -0.2780
68562W        W69426   8.985  19.169   8.856  0.0708  0.2572  0.1256
68563W        W69427   8.813  17.494   7.721  0.0507  0.1114  0.0514
68564W        W69428   9.407  19.093   5.756 -0.2191  0.1326 -0.3840
68565W        W69429   7.394  22.401  15.996  0.0921  0.3011  0.0558
68566W        W69430   7.087  20.069  16.565 -0.1535 -0.2184  0.1227
68567W        W69431  11.379  22.370  10.459  0.0878 -0.0807 -0.0459
68568W        W69432  11.439  23.152  11.914  0.0565  0.1205 -0.0501
68569W        W69433   9.043  22.748   9.158 -0.1877  0.1340  0.1781
68570W        W69434   7.475  20.934  12.586  0.3614 -0.0604 -0.0117
68571W        W69435   6.764  20.678  13.368 -0.3159 -0.0604  0.1265
68572W        W69436   9.016  19.049  10.636 -0.2858  0.0468  0.1228
68573W        W69437   7.657  21.945  15.918 -0.0674 -0.0229 -0.0977
68574W        W69438   6.220  19.049  14.820 -0.4493  0.0657 -0.1714
68575W        W69439   8.367  20.475  14.823  0.1446  0.0447  0.0049
68576W        W69440  11.557  16.271  10.826  0.0746 -0.0231  0.0986
68577W        W69441  10.413  20.697   9.318  0.0143  0.0338 -0.0319
68578W        W69442  10.112  18.803  15.774  0.0981 -0.0579  0.0308
68579W        W69443   7.287  20.165  10.657  0.0740 -0.2367 -0.0662
68580W        W69444   8.204  21.816  14.582  0.1481 -0.2054  0.1326
68581W        W69445   7.285  21.340   8.754  0.0001  0.1320 -0.0358
68582W        W69446   7.013  18.188  13.062  0.0783  0.2104  0.1202
68583W        W69447   8.099  19.698  16.543  0.0117 -0.0444  0.4324
68584W        W69448   7.725  20.163  13.137  0.0830 -0.0365  0.0786
68585W        W69449  12.596  22.227  13.594 -0.0939  0.0345  0.4622
68586W        W69450   8.275  18.730  13.580  0.2249 -0.1854 -0.1306
68587W        W69451   8.675  22.224  13.763 -0.1460 -0.2684 -0.1219
68588W        W69452   7.454  20.721  15.553  0.3724  0.1020  0.3068
68589W        W69453   8.398  18.764   9.792  0.1588 -0.0251 -0.2543
68590W        W69454   6.129  20.941  14.360  0.1077 -0.0645 -0.0903
68591W        W69455   9.940  21.405  13.733 -0.2311  0.0425  0.0051
68592W        W69456   6.742  21.913  14.847  0.1369  0.0414 -0.1760
68593W        W69457   8.727  18.695  14.027 -0.1193 -0.1896  0.1225
68594W        W69458   6.553  19.289  12.231 -0.0882  0.0161 -0.0583
68595W        W69459   9.799  22.237  13.940  0.1842 -0.2094  0.0423
68596W        W69460  10.957  21.550  14.934  0.1288 -0.1844  0.2127
68597W        W69461   8.063  17.278  12.701 -0.0363 -0.0884 -0.0831
68598W        W69462   8.164  19.818  15.612 -0.1429  0.3218 -0.1104
68599W        W69463   5.489  19.062  14.655  0.3399 -0.1747 -0.2013
68600W        W69464   9.304  20.645  13.804  0.1896 -0.0251 -0.1699
68601W        W69465   5.889  17.132  10.364 -0.0428  0.0416  0.0346
68602W        W69466   9.348  20.413  14.358 -0.0461 -0.0989  0.2578
68603W        W69467   8.696  21.533  12.464 -0.0445  0.0604  0.2054
68604W        W69468  11.092  22.939  13.367 -0.0802 -0.2094  0.3737
68605W        W69469  10.055  20.922  11.815  0.1157  0.1691 -0.3156
68606W        W69470   9.520  19.886  15.829  0.0186 -0.3072 -0.3366
68607W        W69471   8.427  20.623  13.527  0.3829 -0.1510  0.2739
68608W        W69472  11.413  22.679  13.619 -0.0626 -0.2457 -0.2555
68609W        W69473   7.962  20.569   8.774 -0.3855  0.2134 -0.3382
68610W        W69474   8.949  21.083  12.272  0.0202 -0.0186  0.1039
68611W        W69475   4.858  14.818  13.797 -0.1316 -0.3552 -0.1225
68612W        W69476   9.912  18.820  15.310  0.0696  0.0750 -0.0832
68613W        W69477   9.073  20.460   8.670  0.3616 -0.0185  0.0706
68614W        W69478   8.807  21.878  11.189  0.1151  0.0953 -0.1594
68615W        W69479   8.236  21.443  12.754  0.4178  0.1525  0.0632
68616W        W69480   7.002  20.244  11.863  0.0820 -0.1766 -0.0899
68617W        W69481  10.564  23.322  13.676 -0.3276 -0.0616 -0.0545
68618W        W69482  10.880  21.003  12.025 -0.0861 -0.2023  0.4574
68619W        W69483   8.189  18.636  11.439  0.1884 -0.3494 -0.3009
68620W        W69484   7.925  22.459  11.408 -0.1279 -0.0403  0.1041
68621W        W69485   8.866  16.264  12.177 -0.3427 -0.2376 -0.0113
68622W        W69486  11.957  19.527  16.674 -0.0425  0.0661 -0.0405
68623W        W69487   9.040  21.748  13.586 -0.1068  0.2189  0.1737
68624W        W69488  12.727  21.868  14.724  0.1109  0.2700  0.0970
68625W        W69489  13.422  17.574  10.363  0.0564 -0.1506 -0.4451
68626W        W69490   8.593  21.902  13.416  0.0523 -0.0069 -0.0824
68627W        W69491   7.542  24.173  13.595  0.2750  0.0784  0.0351
68628W        W69492   7.903  20.615  14.663 -0.2196 -0.0455 -0.0339
68629W        W69493   6.825  19.641  11.766  0.1454  0.0200  0.0918
68630W        W69494   9.640  19.614  13.472  0.2889  0.2220  0.3536
68631W        W69495   9.358  21.113  12.004  0.3127  0.0236 -0.2684
68632W        W69496   8.504  18.028   9.214 -0.1746 -0.2344  0.0584
68633W        W69497   8.856  20.921  13.841 -0.3094 -0.1847 -0.0554
68634W        W69498  10.609  23.133  13.231  0.1444 -0.0220 -0.1632
68635W        W69499  11.829  22.626  15.433  0.0749  0.3387 -0.1647
68636W        W69500   8.146  20.167  12.228 -0.4129 -0.1661 -0.0822
68637W        W69501  11.532  22.388  13.984 -0.0480 -0.1878  0.2079
68638W        W69502   9.569  19.999  13.814 -0.2219  0.0263  0.2082
68639W        W69503   9.951  19.456  10.703 -0.0532  0.0925 -0.1257
68640W        W69504  11.552  23.506  13.398 -0.0701 -0.2485  0.0323
68641W        W69505   6.427  20.629  12.503 -0.0887 -0.2774  0.2996
68642W        W69506   7.768  20.344  16.471 -0.0070 -0.1565 -0.0773
68643W        W69507  10.646  21.824  10.855  0.1707  0.0749 -0.1916
68644W        W69508  11.920  19.884  11.201 -0.2427 -0.3754  0.0890
68645W        W69509   5.539  18.801  10.257 -0.0926 -0.1932  0.0697
68646W        W69510   4.806  21.120  12.045  0.0177  0.2094  0.2827
68647W        W69511   7.810  19.063  11.962  0.2442  0.0714 -0.1809
68648W        W69512  10.585  21.143  14.251  0.0373  0.1852 -0.2213
68649W        W69513   9.419  19.806  13.076 -0.1539 -0.1367 -0.1994
68650W        W69514   9.872  19.440  10.189 -0.2590 -0.0485 -0.1458
68651W        W69515  11.057  19.733  13.998  0.0562 -0.1496 -0.2565
68652W        W69516   8.462  19.811  12.794  0.4322 -0.1187 -0.1182
68653W        W69517   9.225  19.298  12.800 -0.1808  0.2278  0.1301
68654W        W69518   9.946  19.184  13.542 -0.0293  0.1094 -0.0844
68655W        W69519   9.432  19.509   9.938  0.1046 -0.2237  0.1427
68656W        W69520   7.692  20.810  15.052  0.1029  0.1006  0.2833
68657W        W69521   7.405  24.519  13.247 -0.0669 -0.3503 -0.0463
68658W        W69522   7.957  18.399  10.905  0.2761  0.1673  0.4564
68659W        W69523   9.154  19.575  14.305  0.0170  0.0383  0.0832
68660W        W69524  11.882  20.738  11.676  0.0390  0.2513  0.0123
68661W        W69525   9.032  21.097  12.855  0.1894 -0.0625 -0.2135
68662W        W69526   8.323  21.432  13.325  0.2419 -0.0660 -0.2137
68663W        W69527   8.178  18.140  11.347  0.0635  0.0773 -0.1990
68664W        W69528   9.778  21.284  15.135  0.0586 -0.0491  0.0794
68665W        W69529  11.662  20.684   9.721  0.0920  0.1479 -0.0581
68666W        W69530   8.556  21.259  10.937 -0.1405  0.1345 -0.0654
68667W        W69531  10.680  18.898  12.428 -0.2107 -0.2429  0.4796
68668W        W69532  12.132  19.748  12.125 -0.0719  0.1989 -0.0157
68669W        W69533   8.823  18.977  14.791  0.0511  0.1054  0.0274
68670W        W69534  10.057  18.016  16.616  0.1384  0.1738 -0.2421
68671W        W69535   9.489  21.325  12.472  0.0407 -0.4061  0.0712
68672W        W69536   5.883  20.082  13.178  0.1580 -0.0805 -0.0016
68673W        W69537   8.573  19.920  13.519 -0.3849 -0.0238 -0.1219
68674W        W69538   5.036  20.746  15.190 -0.0133  0.0564  0.1434
68675W        W69539   8.318  20.582  12.655  0.4733 -0.0668 -0.2054
68676W        W69540   9.512  22.695  11.030  0.0852 -0.1171 -0.1288
68677W        W69541   9.954  19.158  12.048  0.0761 -0.1375  0.1034
68678W        W69542  11.318  23.456  16.720  0.0317 -0.0368  0.1873
68679W        W69543  11.350  18.315  10.012  0.4115 -0.2220  0.0046
68680W        W69544   9.448  21.840  12.290  0.0193 -0.0972 -0.0227
68681W        W69545  12.133  19.066  16.718 -0.0262 -0.0329  0.0794
68682W        W69546  10.249  20.871  12.582  0.0313  0.0909 -0.1068
68683W        W69547   9.104  19.347  13.324  0.3174  0.0440  0.1762
68684W        W69548  11.002  18.904  13.210  0.0870  0.1504  0.4587
68685W        W69549   9.948  17.436  13.046  0.0916  0.1955  0.0714
68686W        W69550   8.780  22.609  10.947 -0.0555  0.0573  0.2855
68687W        W69551  11.702  21.967  11.325 -0.0537  0.1382 -0.0891
68688W        W69552   9.149  19.610  11.531 -0.1072 -0.0515 -0.1884
68689W        W69553   7.359  18.449  12.711  0.0163  0.0075  0.0648
68690W        W69554  11.808  21.391  12.862 -0.4012 -0.0963  0.2618
68691W        W69555   7.763  18.749  10.479  0.0899  0.1989  0.0815
68692W        W69556  10.250  19.683  17.118  0.1259  0.1178 -0.3762
68693W        W69557   7.431  21.390  12.929 -0.1531  0.0259 -0.0963
68694W        W69558  10.462  22.355  13.674 -0.0538 -0.1231 -0.1717
68695W        W69559  10.703  20.336  13.819 -0.2496  0.0742 -0.0088
68696W        W69560   7.002  18.686  14.924  0.0958  0.3579  0.3066
68697W        W69561   9.988  21.357  11.469 -0.0669  0.1813 -0.0502
68698W        W69562  11.166  18.139  13.854 -0.0867 -0.2246  0.0035
68699W        W69563  10.906  21.401  13.520  0.1282 -0.0645 -0.0939
68700W        W69564   6.281  19.083  13.214  0.1009  0.2958 -0.1494
68701W        W69565  10.735  18.165  10.624  0.0153  0.0327 -0.1183
68702W        W69566   9.536  19.882  14.489  0.0042 -0.0816 -0.1072
68703W        W69567   9.234  20.689  11.589 -0.0302  0.1005 -0.4744
68704W        W69568   8.723  20.702  13.005 -0.2826  0.1355 -0.0237
68705W        W69569   7.147  18.239  11.061 -0.2565 -0.1149  0.2242
68706W        W69570   7.797  17.029  13.159 -0.2002 -0.1576  0.1481
68707W        W69571   9.379  22.193  13.719  0.1199 -0.1479 -0.1902
68708W        W69572   6.944  18.667  12.674  0.0532 -0.4320 -0.0152
68709W        W69573  10.867  21.624  14.029  0.3046 -0.2614  0.3002
68710W        W69574  11.552  19.004  13.447 -0.1096 -0.2679 -0.0087
68711W        W69575  10.446  19.287  10.432 -0.0952  0.1487  0.0852
68712W        W69576  11.717  23.377  12.860 -0.4401  0.1437  0.2842
68713W        W69577   9.486  21.263  13.531  0.0258  0.0111  0.1237
68714W        W69578   7.556  19.212  13.439  0.0259  0.2124 -0.5835
68715W        W69579  10.095  21.892  13.365  0.0196  0.0485 -0.2637
68716W        W69580   6.520  16.558  15.722  0.1465  0.0402  0.0296
68717W        W69581  10.086  19.746  12.288 -0.1351 -0.1933  0.1466
68718W        W69582   8.246  20.884  10.874  0.2399 -0.2575  0.0844
68719W        W69583   8.922  23.101  12.725  0.0657 -0.0190 -0.3613
68720W        W69584   9.906  19.049  14.086  0.0996  0.0956 -0.1015
68721W        W69585   3.446  20.312  13.940  0.1292  0.1150 -0.0690
68722W        W69586   7.602  19.472  12.391 -0.1280  0.1318 -0.5239
68723W        W69587   9.596  19.371  11.608 -0.4257  0.0332  0.1876
68724W        W69588   8.693  20.736  11.716  0.1038  0.1125 -0.0507
68725W        W69589   9.884  22.144  12.436  0.2199 -0.2400 -0.1574
68726W        W69590   6.777  22.414  14.073  0.2390  0.0558  0.0050
68727W        W69591   8.565  19.302  14.338  0.0668  0.2551 -0.0329
68728W        W69592   8.103  20.553  11.890  0.1076  0.0233 -0.3354
68729W        W69593   8.944  20.524  14.126  0.1118 -0.3647  0.1979
68730W        W69594   7.693  20.202  11.935  0.1146  0.1442  0.1695
68731W        W69595   6.422  21.833  11.910  0.1566  0.0534 -0.0065
68732W        W69596   6.592  19.678  12.698 -0.0670 -0.0227  0.2286
68733W        W69597   4.841  22.080  14.586 -0.0171 -0.1879  0.3151
68734W        W69598   6.898  20.274  14.156 -0.0442  0.2869  0.2132
68735W        W69599   9.330  21.101  15.198  0.1198 -0.4496 -0.0199
68736W        W69600  11.816  20.573  13.969 -0.0777 -0.1149 -0.2103
68737W        W69601  10.609  19.924  14.140 -0.0157 -0.3604  0.1984
68738W        W69602   8.835  18.579   8.578 -0.0643  0.4930 -0.0122
68739W        W69603   9.474  20.258  12.094 -0.0292 -0.0736 -0.4144
68740W        W69604   9.149  18.339  11.593 -0.1367  0.0788  0.0975
68741W        W69605   7.687  20.955  13.012 -0.1305  0.0821  0.1946
68742W        W69606   7.262  20.350  13.405  0.1831  0.0466  0.0348
68743W        W69607   7.702  20.514  12.769  0.2298 -0.1618  0.0003
68744W        W69608  10.464  22.273  12.176  0.1133  0.0046 -0.0323
68745W        W69609   7.618  20.042  12.500  0.0280 -0.1509 -0.1964
68746W        W69610   8.884  21.164  11.792 -0.3030 -0.1505  0.0536
68747W        W69611   9.365  22.285   9.273 -0.2933 -0.1825  0.0221
68748W        W69612   7.832  18.911  13.031  0.4094 -0.0050  0.3052
68749W        W69613  10.016  17.369  11.927  0.0686  0.0155 -0.0854
68750W        W69614   6.479  21.204  14.701 -0.1690 -0.2597 -0.2906
68751W        W69615  10.895  20.271  13.165 -0.2366  0.2635  0.1432
68752W        W69616   7.041  19.173  11.671  0.1646 -0.0505 -0.1124
68753W        W69617  12.445  18.887  11.529  0.2388 -0.3166  0.4254
68754W        W69618   8.593  23.080  13.946 -0.1586 -0.0789 -0.2259
68755W        W69619   6.756  21.158  10.596  0.0587  0.0420 -0.0414
68756W        W69620   5.221  23.479  13.637 -0.1644 -0.0342  0.1783
68757W        W69621   5.333  19.344  12.113  0.0475  0.1869 -0.1748
68758W        W69622   8.936  20.261  15.020 -0.0036  0.1045 -0.1966
68759W        W69623   9.864  22.340  14.453  0.2621  0.0837 -0.2562
68760W        W69624   7.880  18.033  12.234 -0.0886  0.1657 -0.2827
68761W        W69625  12.608  18.678  11.000  0.0693  0.0557 -0.0583
68762W        W69626   6.641  16.514   6.852 -0.0098  0.0447 -0.1156
68763W        W69627   7.119  19.705  12.581 -0.3027  0.1916 -0.0498
68764W        W69628  11.361  19.469  11.958 -0.0580  0.0448  0.1292
68765W        W69629   7.761  18.730  13.513  0.3495  0.1495 -0.6267
68766W        W69630   9.634  17.421  12.313  0.4147 -0.0682  0.0092
68767W        W69631  10.988  21.018  10.402  0.0668 -0.0778  0.0104
68768W        W69632   9.263  18.183  12.179 -0.1760  0.2925 -0.3743
68769W        W69633  10.285  20.285  14.326 -0.0800 -0.0578 -0.2994
68770W        W69634   8.910  20.332   8.174  0.1463 -0.0885 -0.0117
68771W        W69635   4.147  20.760  13.870  0.2330  0.0034  0.0315
68772W        W69636  10.679  20.221  14.759  0.1197  0.1625 -0.4016
68773W        W69637   9.268  22.482  10.565  0.2160 -0.0128  0.0996
68774W        W69638   8.061  20.180  12.742 -0.0200  0.0396  0.1869
68775W        W69639   8.930  21.174  15.616 -0.0345  0.4359 -0.2697
68776W        W69640   5.739  18.350  13.186 -0.1277  0.1050 -0.1238
68777W        W69641   4.570  17.615  12.015 -0.1079 -0.0292 -0.1017
68778W        W69642  10.850  17.124  17.456 -0.0844  0.2223 -0.1474
68779W        W69643  10.220  22.347  12.757 -0.0189  0.0508 -0.1038
68780W        W69644  12.585  19.517  11.893 -0.0112 -0.1450  0.0562
68781W        W69645  10.481  23.087  11.477  0.0314 -0.0720 -0.1310
68782W        W69646  10.880  20.583   9.083  0.0535 -0.0911 -0.0058
68783W        W69647   8.011  21.120  14.562 -0.1001  0.3136 -0.2970
68784W        W69648  10.523  21.558  14.562  0.0194  0.2004  0.1579
68785W        W69649  11.004  19.732  14.545 -0.1652  0.2627 -0.0338
68786W        W69650  12.614  20.847  11.946 -0.0012 -0.0951  0.0160
68787W        W69651  12.300  23.847  14.021 -0.2350 -0.0563 -0.1619
68788W        W69652   9.564  18.252  12.535 -0.4593 -0.0072 -0.2795
68789W        W69653   8.816  21.634  10.481 -0.0593 -0.0057  0.3913
68790W        W69654   6.129  21.170  12.411 -0.3286 -0.2054  0.1827
68791W        W69655  11.438  22.417  11.697 -0.2268 -0.3289  0.0086
68792W        W69656   8.009  21.378  13.813  0.1952 -0.0866  0.1237
68793W        W69657   8.212  21.076   9.912  0.0115  0.0106 -0.0079
68794W        W69658  12.860  20.190  11.441  0.0218  0.2731 -0.2714
68795W        W69659   9.972  19.908  14.296  0.0689 -0.2435  0.0899
68796W        W69660   7.996  20.492  13.770 -0.1108 -0.1563  0.0830
68797W        W69661   7.787  21.922  12.250  0.0037  0.0905  0.0572
68798W        W69662  11.469  20.800  10.808  0.2247 -0.0578  0.0465
68799W        W69663   6.742  18.873  11.344 -0.0908  0.5022  0.0021
68800W        W69664   6.239  20.130  10.734  0.0205 -0.1058 -0.2375
68801W        W69665  11.717  18.944  14.394 -0.1467 -0.4218  0.0036
68802W        W69666   9.798  19.457  15.653 -0.5335 -0.1336  0.1752
68803W        W69667  10.357  19.802  10.363 -0.1674 -0.3281  0.1348
68804W        W69668   9.635  18.094  13.589  0.0135 -0.2364 -0.2515
68805W        W69669  12.203  21.079   9.651  0.1102  0.2001  0.0822
68806W        W69670   7.244  20.318  15.668 -0.1454 -0.0943  0.0868
68807W        W69671   5.281  19.405  15.285  0.2307 -0.1399 -0.2857
68808W        W69672  10.148  18.281  13.155  0.0277 -0.2784 -0.0790
68809W        W69673   9.163  20.162  11.700  0.0590 -0.4127  0.4376
68810W        W69674  10.579  20.259  11.242 -0.2915  0.2645 -0.1842
68811W        W69675  10.507  21.393  12.616  0.4092 -0.2965  0.0899
68812W        W69676   6.320  19.295  12.762  0.1068 -0.2207  0.4230
68813W        W69677  12.127  23.662  12.911  0.2055  0.0330 -0.1073
68814W        W69678   7.370  18.956  12.850 -0.0040 -0.0287  0.1642
68815W        W69679   8.028  19.705  12.558 -0.3377  0.2279  0.0697
68816W        W69680   5.824  22.086  13.739  0.2856 -0.0823  0.3465
68817W        W69681  11.324  22.391  16.841  0.1612  0.0905 -0.0111
68818W        W69682   9.300  18.043  14.247 -0.1038 -0.1449  0.2601
68819W        W69683  10.170  20.474  11.623 -0.0061  0.0349  0.3456
68820W        W69684  12.620  21.267   9.946 -0.2661 -0.1706  0.2071
68821W        W69685  10.324  19.262  12.620 -0.2415 -0.1681  0.0354
68822W        W69686   7.435  17.808  14.982 -0.2458 -0.1701  0.2626
68823W        W69687  11.511  21.291  12.295  0.0294  0.1559  0.0659
68824W        W69688  10.110  18.215  12.000  0.5603  0.0117 -0.0307
68825W        W69689   9.279  17.734  10.498  0.0461  0.0266 -0.2315
68826W        W69690  10.058  18.391  12.693  0.0138 -0.1704  0.0838
68827W        W69691  10.021  21.274  14.656 -0.2159 -0.1593  0.0387
68828W        W69692   6.315  18.924  11.929  0.1055  0.0326 -0.0626
68829W        W69693  10.198  20.071  13.835  0.0538 -0.1963  0.0355
68830W        W69694  10.916  22.604  16.010 -0.2223  0.0528  0.1853
68831W        W69695   7.462  21.393  11.536 -0.0881 -0.1147 -0.1529
68832W        W69696  11.217  21.940  11.620  0.0456 -0.4248  0.1994
68833W        W69697   7.549  19.528  14.434  0.0818 -0.1836  0.0077
68834W        W69698   9.832  21.025  12.240  0.1225 -0.0964  0.0809
68835W        W69699   7.803  21.474  11.918  0.1467  0.3050  0.1325
68836W        W69700   7.170  23.263  15.675 -0.0734 -0.1086  0.1275
68837W        W69701   9.085  19.794  14.855 -0.1839 -0.3384  0.0209
68838W        W69702   8.853  19.534  12.526  0.0658  0.0782  0.0610
68839W        W69703  10.501  21.241  16.386  0.1776  0.0423  0.0842
68840W        W69704   8.131  17.816  12.606 -0.1731 -0.0628 -0.0959
68841W        W69705   8.291  18.475  10.154 -0.2590 -0.4196 -0.2994
68842W        W69706   8.009  19.430  11.362  0.1554 -0.1402 -0.2067
68843W        W69707   7.831  19.622  11.960 -0.0442  0.0755  0.1196
68844W        W69708  11.899  22.815  14.108  0.1626  0.0619  0.2279
68845W        W69709   5.995  19.390  14.465 -0.1252  0.1030 -0.0077
68846W        W69710   7.617  21.407  12.424  0.0753  0.0410  0.1861
68847W        W69711  10.060  22.696  12.374 -0.3919  0.0358  0.0090
68848W        W69712   7.123  20.874  14.365 -0.2649  0.2025 -0.0115
68849W        W69713  11.041  21.969  12.303  0.1052  0.0117  0.0196
68850W        W69714   9.189  17.494  11.387  0.3541 -0.1023 -0.1401
68851W        W69715   9.475  22.341  12.189  0.2727 -0.2142 -0.4034
68852W        W69716   5.510  17.703  14.014  0.0265  0.0041  0.0374
68853W        W69717   8.628  16.687  10.400 -0.3093 -0.0755  0.1014
68854W        W69718   8.635  22.823  12.382  0.2554  0.1914  0.1853
68855W        W69719   9.903  21.494  13.211  0.1493 -0.2025  0.5076
68856W        W69720   9.565  17.080  12.677 -0.0840 -0.3358  0.1640
68857W        W69721   8.136  20.147  13.428  0.1924 -0.3381  0.2248
68858W        W69722   6.542  18.474  14.191  0.3837 -0.0435 -0.0960
68859W        W69723   9.809  21.664  14.155 -0.0078 -0.1524 -0.1936
68860W        W69724  10.795  20.516  12.501 -0.0994  0.4398  0.3284
68861W        W69725   8.350  18.354  13.936  0.0252  0.2076  0.2070
68862W        W69726  13.230  23.236  14.284  0.1178 -0.2345 -0.2043
68863W        W69727  12.838  17.195  13.466  0.0499 -0.1499  0.0110
68864W        W69728   7.895  19.200  10.574  0.1981  0.1283 -0.0846
68865W        W69729   6.408  20.272  14.946  0.0374  0.1511 -0.0424
68866W        W69730   7.740  20.082  13.713  0.0173 -0.0561 -0.0711
68867W        W69731   9.118  22.065  13.128 -0.1844 -0.1287 -0.0145
68868W        W69732  10.718  19.469  13.849  0.0415  0.1550 -0.2315
68869W        W69733   8.682  20.385   9.892 -0.2707  0.3021 -0.1178
68870W        W69734   9.796  23.060  12.668  0.0695 -0.1042  0.0058
68871W        W69735  12.893  22.050  15.334  0.4038  0.1949  0.3962
68872W        W69736  10.444  20.030  11.662 -0.1567  0.0663  0.0271
68873W        W69737   7.586  20.251   8.518 -0.0948 -0.3794 -0.0676
68874W        W69738   5.980  19.958  11.451 -0.0683 -0.2813 -0.0490
68875W        W69739   9.053  20.512   9.559  0.0260  0.0727  0.4031
68876W        W69740   8.024  17.949  13.175  0.1477 -0.1155  0.0995
68877W        W69741   9.983  19.034  12.963  0.0527 -0.2656 -0.0611
68878W        W69742  10.740  21.618  13.119  0.1096  0.0996  0.1687
68879W        W69743   8.094  20.983  14.004 -0.2605 -0.0668 -0.1956
68880W        W69744   6.407  20.111  14.065  0.0083  0.1287  0.0918
68881W        W69745  10.494  19.783  12.577  0.1494 -0.2885 -0.4051
68882W        W69746  10.532  21.291  10.691 -0.1041  0.2101  0.3556
68883W        W69747   9.462  20.352  13.430  0.0887  0.0074  0.1816
68884W        W69748  10.154  18.393  15.381  0.0403  0.3364 -0.0023
68885W        W69749   6.513  21.657  13.298  0.2211 -0.3051  0.1293
68886W        W69750  11.432  21.862   7.728 -0.1855 -0.1995  0.1751
68887W        W69751   7.210  20.899  13.494 -0.2305 -0.0647  0.1446
68888W        W69752   8.197  19.522  14.037 -0.0929 -0.3647  0.3599
68889W        W69753   8.142  21.579  16.569  0.0229  0.0332 -0.0710
68890W        W69754   8.167  20.683  16.407  0.2956  0.1617  0.0004
68891W        W69755   7.820  19.054   9.672  0.1178  0.2661 -0.3119
68892W        W69756   9.390  21.472  11.652 -0.0659 -0.1057 -0.0789
68893W        W69757   8.104  19.623  10.335 -0.1175  0.4570 -0.2819
68894W        W69758   8.211  21.170  10.423 -0.0277  0.2571 -0.0461
68895W        W69759   7.842  16.552  17.611  0.3534  0.1906 -0.1947
68896W        W69760  10.305  16.678  13.297 -0.1941 -0.0270 -0.3573
68897W        W69761   8.788  20.358  13.669  0.1119 -0.1201 -0.0124
68898W        W69762   8.725  21.535  12.988 -0.2715 -0.2782  0.0519
68899W        W69763  11.959  21.979  15.363 -0.0666  0.0173 -0.1855
68900W        W69764   7.831  18.548  12.376 -0.2470  0.1763 -0.2712
68901W        W69765   6.732  21.083  11.468  0.1191 -0.0265  0.2325
68902W        W69766  11.725  19.535  12.799  0.1141  0.1376 -0.0569
68903W        W69767  10.425  21.604  13.596 -0.3306  0.0424 -0.2044
68904W        W69768   8.692  18.919  10.259  0.0442  0.0051  0.0873
68905W        W69769   8.231  19.349  12.081 -0.2237  0.1218 -0.1460
68906W        W69770   9.050  20.616  12.046  0.0254  0.0999  0.0053
68907W        W69771   9.209  21.550  14.301  0.0999 -0.0694  0.2829
68908W        W69772   9.063  21.141  10.839 -0.1568 -0.2007 -0.0943
68909W        W69773   9.509  21.351  11.086 -0.2814 -0.0444 -0.3747
68910W        W69774   9.608  20.325  12.942  0.3204 -0.1550  0.2081
68911W        W69775   7.242  19.865  11.613  0.0220  0.1518  0.3422
68912W        W69776   8.735  19.888  10.740 -0.1087 -0.0437  0.1184
68913W        W69777   9.276  18.399  13.371 -0.0629  0.2843  0.1766
68914W        W69778   7.329  20.671  10.905  0.0971 -0.0088 -0.0354
68915W        W69779  11.285  21.668  13.706 -0.1288  0.1267  0.2308
68916W        W69780  12.095  19.276   8.958 -0.0099  0.3358  0.2154
68917W        W69781  11.926  21.338  10.216 -0.1338  0.1420  0.3073
68918W        W69782   9.975  21.260  12.637  0.0627  0.0108 -0.0395
68919W        W69783   6.993  22.551  10.332 -0.1077  0.0188  0.1373
68920W        W69784  10.942  22.428  12.495 -0.1106 -0.3002  0.2778
68921W        W69785   8.405  23.753  12.800 -0.2251  0.0901 -0.1094
68922W        W69786   8.786  20.587  14.589 -0.0161 -0.1072 -0.0061
68923W        W69787   7.278  19.521  16.095 -0.1008  0.1971  0.2480
68924W        W69788   8.027  21.000  13.477  0.2226 -0.2020 -0.2035
68925W        W69789   7.287  18.737  11.909 -0.0907 -0.0294 -0.2317
68926W        W69790   8.871  20.090  12.424  0.1267 -0.1383  0.0679
68927W        W69791   8.240  21.035  13.058  0.0749  0.1149 -0.1644
68928W        W69792  10.734  19.182  12.910  0.2554 -0.2075  0.2105
68929W        W69793   9.409  22.469  13.216  0.2835 -0.2042  0.2208
68930W        W69794   9.722  21.449  12.025  0.1752  0.0805 -0.1474
68931W        W69795   8.280  21.426  14.275 -0.1101  0.1154  0.1132
68932W        W69796   9.607  22.099  10.988  0.2726 -0.0510  0.1475
68933W        W69797  10.528  20.720  12.927 -0.1779  0.0741 -0.0454
68934W        W69798  11.329  21.132  12.735 -0.1107  0.3126 -0.0915
68935W        W69799   7.476  20.035  10.269  0.3010  0.0228  0.2422
68936W        W69800   8.612  19.050  13.439 -0.3074  0.2710  0.3739
68937W        W69801   8.832  21.617  11.612  0.4752 -0.1000  0.3298
68938W        W69802   9.435  19.186  13.785 -0.2972  0.0461  0.0539
68939W        W69803   9.648  23.026  10.678 -0.0589 -0.0473  0.0167
68940W        W69804  10.732  18.494  12.999 -0.1227  0.0982 -0.1319
68941W        W69805   4.799  21.285  12.580 -0.0282 -0.0310  0.2708
68942W        W69806  11.459  20.415  13.121 -0.0402 -0.1355  0.1654
68943W        W69807   8.901  17.646  16.446  0.1573  0.1315 -0.1009
68944W        W69808   6.626  19.454  15.658  0.1225 -0.1919 -0.0301
68945W        W69809  10.739  18.065  13.375 -0.2958 -0.1356 -0.1175
68946W        W69810   7.902  19.697  13.111  0.1221 -0.0087  0.0254
68947W        W69811   8.351  20.114  15.239  0.1698 -0.3717 -0.1016
68948W        W69812  11.251  20.106  14.762 -0.0635  0.1480  0.0550
68949W        W69813   8.991  22.020  14.616 -0.5314  0.0400 -0.1554
68950W        W69814  10.524  22.155  13.139  0.0803 -0.2074 -0.0905
68951W        W69815   9.635  19.635  12.082  0.2783  0.1303 -0.0398
68952W        W69816   9.695  21.687  10.694 -0.2103  0.4885  0.1556
68953W        W69817   6.271  21.449  13.816 -0.0155  0.0299  0.5276
68954W        W69818   9.843  21.856  11.383  0.0831 -0.1318 -0.1789
68955W        W69819   9.553  21.761  15.180  0.2152 -0.0466 -0.2238
68956W        W69820   8.948  19.679  13.006  0.2772 -0.2473 -0.1982
68957W        W69821  11.345  20.334  10.554  0.0834  0.2034  0.1104
68958W        W69822   9.587  22.854  12.179  0.1210  0.2670 -0.3201
68959W        W69823  10.668  22.747  14.642  0.0332  0.2316 -0.0146
68960W        W69824   5.477  16.942  14.603 -0.3574  0.0791 -0.0688
68961W        W69825   7.415  20.603  11.956  0.2939  0.1513  0.0710
68962W        W69826   7.815  20.577  12.306 -0.0144  0.1553  0.2369
68963W        W69827   8.526  20.042   9.509  0.2253 -0.1360  0.0053
68964W        W69828   6.312  19.062  10.506 -0.1496 -0.3398 -0.3171
68965W        W69829  10.538  19.827  21.697 -0.3210  0.0093  0.0272
68966W        W69830   7.038  19.896  18.008  0.1243  0.1270  0.1005
68967W        W69831   9.634  19.921  16.940 -0.1778 -0.2124 -0.2397
68968W        W69832  11.353  21.380  16.494 -0.0785 -0.0575  0.1241
68969W        W69833   9.523  22.587  14.847 -0.0087 -0.0206  0.0535
68970W        W69834   6.830  20.169  13.528 -0.0331 -0.1224 -0.1374
68971W        W69835   6.111  18.640  17.244 -0.2655 -0.2652  0.0422
68972W        W69836   9.916  25.297  15.042  0.0803  0.2081  0.2673
68973W        W69837   8.413  22.048  19.630 -0.2221 -0.1077 -0.0753
68974W        W69838   9.653  21.457  17.582  0.2876 -0.1128  0.0703
68975W        W69839   6.817  18.308  16.954  0.3349  0.0730  0.3625
68976W        W69840   9.568  19.917  17.824 -0.2551  0.1633 -0.0980
68977W        W69841   8.585  18.329  17.025 -0.2059  0.0398  0.0213
68978W        W69842   9.396  21.079  18.463 -0.0618  0.3030 -0.0621
68979W        W69843   7.419  20.095  16.959  0.0838 -0.0970  0.3877
68980W        W69844   9.547  18.888  18.000 -0.4016 -0.0136 -0.0413
68981W        W69845   8.877  21.398  13.876  0.1930  0.0218 -0.1231
68982W        W69846   4.738  19.371  15.386  0.1982 -0.1642  0.1378
68983W        W69847   7.716  21.758  17.398  0.1878  0.1104  0.0933
68984W        W69848   9.711  19.249  17.584  0.2446 -0.3903 -0.4696
68985W        W69849  11.104  21.620  17.956  0.1828  0.2179  0.0367
68986W        W69850   8.048  17.285  15.822 -0.0391  0.0174 -0.1248
68987W        W69851  10.020  20.554  17.343  0.2004 -0.1182 -0.0931
68988W        W69852   7.746  24.437  17.156 -0.3206 -0.1650  0.0063
68989W        W69853   5.091  18.353  12.338  0.2509 -0.1791 -0.0392
68990W        W69854   8.893  21.313  20.228 -0.2420  0.1133 -0.1866
68991W        W69855   9.161  20.108  18.126 -0.1917  0.2842  0.1128
68992W        W69856   9.668  21.810  16.131  0.6476  0.2130 -0.3818
68993W        W69857   8.202  23.889  17.649 -0.1676 -0.0884  0.2328
68994W        W69858   8.835  19.456  16.104  0.0809 -0.2879 -0.1381
68995W        W69859   9.895  21.398  15.994 -0.0522 -0.0795 -0.1619
68996W        W69860  10.481  23.222  18.282 -0.1342 -0.0942 -0.0376
68997W        W69861   7.950  20.397  17.801 -0.1130 -0.0260 -0.0047
68998W        W69862   8.483  20.744  16.935  0.5207  0.0626 -0.2562
68999W        W69863   5.253  20.048  20.032 -0.0680 -0.0066 -0.2149
69000W        W69864   8.619  22.745  19.359 -0.3469 -0.3536 -0.0712
69001W        W69865   5.898  18.480  15.998 -0.3672  0.0629 -0.1922
69002W        W69866   9.427  22.888  15.274 -0.2484  0.1193 -0.0173
69003W        W69867  11.744  22.098  16.482 -0.0247 -0.1472 -0.3121
69004W        W69868   8.689  19.912  17.337 -0.1170 -0.0078 -0.0116
69005W        W69869  12.056  18.533  17.993  0.2656  0.3229  0.0322
69006W        W69870  10.037  20.377  16.113  0.2535 -0.1411 -0.2748
69007W        W69871   9.171  21.648  17.771 -0.0079  0.0458 -0.0061
69008W        W69872  11.481  21.417  14.198  0.2335  0.0346  0.4469
69009W        W69873   9.232  20.007  16.575  0.0356  0.2813  0.3724
69010W        W69874   8.920  20.934  18.476 -0.0485 -0.0338  0.1458
69011W        W69875   8.262  16.105  18.387  0.0024 -0.1410 -0.0028
69012W        W69876   9.893  22.612  18.378 -0.1836 -0.1502  0.1382
69013W        W69877   9.726  20.783  14.931 -0.0698  0.0762 -0.2737
69014W        W69878   6.091  18.393  15.138  0.1840  0.1490  0.2160
69015W        W69879  10.106  18.300  16.209  0.2295 -0.1644 -0.0642
69016W        W69880   8.368  18.422  17.493  0.1293 -0.0414  0.3722
69017W        W69881  10.179  21.635  16.344  0.2103 -0.0118  0.0921
69018W        W69882   9.564  18.858  12.572  0.0154 -0.1546 -0.2969
69019W        W69883  10.321  17.574  16.554 -0.0792 -0.0912 -0.0898
69020W        W69884   3.145  22.345  15.036  0.0116  0.1201  0.0592
69021W        W69885   7.744  18.772  16.459  0.1550  0.2122 -0.2791
69022W        W69886   6.560  19.798  13.625  0.2001  0.2902 -0.1608
69023W        W69887   9.942  19.841  16.163 -0.0507 -0.1819  0.1311
69024W        W69888  12.404  23.113  17.077 -0.0726  0.0437 -0.0390
69025W        W69889  12.238  15.274  15.758 -0.1701  0.0354 -0.0092
69026W        W69890   8.426  19.329  16.665 -0.1348  0.2104  0.0447
69027W        W69891   8.660  21.634  19.394 -0.3271 -0.1739  0.2281
69028W        W69892   8.565  19.965  15.974 -0.1686 -0.3423  0.0223
69029W        W69893   6.055  18.529  14.132 -0.0165 -0.0172 -0.0819
69030W        W69894  12.628  18.982  16.741 -0.0675  0.2349  0.2622
69031W        W69895   5.267  19.535  12.639 -0.2455 -0.1772 -0.0365
69032W        W69896   6.839  16.775  16.632  0.0293  0.0866  0.2619
69033W        W69897   7.477  20.587  16.815 -0.0630 -0.0373 -0.2387
69034W        W69898   9.262  21.905  16.439  0.0432 -0.1296 -0.3743
69035W        W69899  10.163  20.722  14.075 -0.0354  0.0174  0.1450
69036W        W69900   9.584  18.985  15.658 -0.2219 -0.0113 -0.3129
69037W        W69901  11.300  20.077  17.004  0.2647  0.1662 -0.0001
69038W        W69902   8.921  19.375  17.515  0.0981 -0.1782 -0.4992
69039W        W69903   9.435  22.385  17.326 -0.1038 -0.2145  0.1240
69040W        W69904  10.684  20.876  16.648 -0.2413  0.0639  0.2769
69041W        W69905   7.534  22.156  17.127  0.1029 -0.1349  0.1631
69042W        W69906   8.353  20.338  17.153  0.1989 -0.2581  0.3207
69043W        W69907   9.644  19.197  15.241  0.0970  0.1627  0.0721
69044W        W69908   7.045  19.829  15.731  0.3796  0.1231 -0.0839
69045W        W69909   7.878  21.450  19.324 -0.0371  0.0749  0.1901
69046W        W69910   8.877  20.425  19.325 -0.2414 -0.2482  0.3044
69047W        W69911   6.726  18.645  16.563 -0.0554  0.1525  0.0963
69048W        W69912   8.787  17.894  18.242  0.2192  0.0630 -0.1174
69049W        W69913   8.880  19.572  18.576 -0.0671  0.0372  0.0962
69050W        W69914  10.225  19.527  14.093  0.0236 -0.2974 -0.2026
69051W        W69915  11.114  20.529  18.079 -0.0658 -0.0953  0.0223
69052W        W69916   8.572  19.292  19.712  0.2095  0.0158 -0.5187
69053W        W69917  10.777  23.549  16.800 -0.2462 -0.1429 -0.1410
69054W        W69918   9.758  19.517  18.716 -0.4522  0.4517  0.2483
69055W        W69919   6.386  18.029  15.888  0.2449  0.3435 -0.0570
69056W        W69920   8.632  19.292  17.943 -0.1976  0.0317  0.1529
69057W        W69921   6.548  22.073  16.399 -0.1112  0.0691  0.0528
69058W        W69922   8.136  20.541  15.349  0.1222 -0.0404  0.4265
69059W        W69923   8.571  17.158  16.487 -0.1814  0.0463  0.0262
69060W        W69924   6.953  19.622  13.925 -0.1489  0.0626  0.2285
69061W        W69925  14.408  20.549  14.560  0.4357  0.2459 -0.0150
69062W        W69926   7.371  19.895  18.498 -0.1488 -0.2042  0.0745
69063W        W69927   6.703  19.790  14.300 -0.4575 -0.1000 -0.2438
69064W        W69928  10.014  17.900  18.772 -0.0264 -0.0685  0.0267
69065W        W69929  11.901  20.979  15.737  0.1647 -0.0909 -0.3543
69066W        W69930   7.325  21.896  16.331  0.0082 -0.0525 -0.2602
69067W        W69931   9.782  20.444  14.019 -0.1175  0.0877 -0.0566
69068W        W69932  13.825  23.317  16.499 -0.2923 -0.0771  0.1043
69069W        W69933   9.266  17.831  18.317  0.2463  0.4800 -0.0094
69070W        W69934   9.205  21.981  19.763  0.0976  0.5187  0.1500
69071W        W69935  10.021  21.780  15.725 -0.1788 -0.0531 -0.0000
69072W        W69936   7.415  21.171  19.304  0.1123 -0.3313  0.0048
69073W        W69937   6.745  17.991  17.546  0.1924  0.2230 -0.1211
69074W        W69938   9.662  20.824  16.068  0.0794 -0.0533 -0.1560
69075W        W69939   9.141  21.558  17.314 -0.3539  0.1531 -0.1972
69076W        W69940  11.223  22.230  15.784  0.0383 -0.2468 -0.4166
69077W        W69941  10.466  21.022  17.618 -0.2063 -0.0047  0.2189
69078W        W69942  12.188  20.411  17.098 -0.0658  0.1795 -0.0486
69079W        W69943   9.355  20.062  15.314  0.1338  0.4056 -0.2133
69080W        W69944   8.593  21.024  14.265 -0.1913  0.0248  0.1617
69081W        W69945  12.602  17.877  18.713 -0.2439  0.1975  0.1534
69082W        W69946  10.035  20.366  18.831 -0.4400 -0.2143  0.0614
69083W        W69947   7.947  20.067  16.878  0.0272 -0.1621 -0.1286
69084W        W69948   7.675  17.056  17.652 -0.0338 -0.2468  0.2920
69085W        W69949   8.132  19.095  16.229  0.0970 -0.1167 -0.2321
69086W        W69950   9.947  19.849  18.121  0.1382 -0.1459  0.0115
69087W        W69951   5.153  20.668  15.717 -0.1793 -0.1111  0.0283
69088W        W69952   7.841  19.200  13.892  0.1846  0.1502 -0.0032
69089W        W69953  10.923  21.855  15.851 -0.1076 -0.2489 -0.2452
69090W        W69954  10.835  22.699  16.945  0.1388  0.0071  0.0489
69091W        W69955   4.238  19.498  17.753 -0.1991  0.1228  0.0237
69092W        W69956   9.682  18.724  17.493  0.3165 -0.0462 -0.0606
69093W        W69957  11.263  18.467  16.013 -0.0239 -0.2353 -0.2154
69094W        W69958   9.201  20.162  17.125  0.0895  0.1038  0.3018
69095W        W69959  11.657  22.011  17.606 -0.1955  0.1171 -0.1906
69096W        W69960   8.843  21.222  14.700 -0.1556  0.0415 -0.0031
69097W        W69961   8.224  20.188  18.830 -0.2265  0.1331  0.4203
69098W        W69962  10.612  19.148  18.325  0.0805 -0.3119 -0.2812
69099W        W69963  12.562  22.399  18.073 -0.1615 -0.2297  0.0737
69100W        W69964   5.569  17.502  16.956 -0.0289  0.0345  0.1650
69101W        W69965   9.604  17.845  16.378 -0.1145 -0.0663 -0.0394
69102W        W69966   9.743  20.751  19.499  0.1839 -0.2800  0.1021
69103W        W69967   8.791  20.265  15.594 -0.3088  0.0177 -0.0524
69104W        W69968   8.499  21.647  16.968  0.1564  0.0599  0.0747
69105W        W69969   8.480  18.475  11.836  0.0423  0.1180 -0.0457
69106W        W69970   9.368  19.460  17.861 -0.0904  0.1989  0.3573
69107W        W69971  10.440  23.301  17.738 -0.3189  0.0185  0.1687
69108W        W69972   7.841  19.468  16.187 -0.1675 -0.2115 -0.3423
69109W        W69973   7.844  22.835  16.277 -0.0035  0.1637  0.2381
69110W        W69974   7.092  18.817  14.432  0.0636 -0.1073  0.1327
69111W        W69975  12.149  20.536  16.087 -0.0806  0.0587  0.2275
69112W        W69976  12.193  20.083  15.747  0.1035  0.4068  0.1988
69113W        W69977   7.385  22.500  19.522 -0.1202  0.1221  0.0562
69114W        W69978   7.974  18.551  14.499 -0.0976 -0.3939 -0.0937
69115W        W69979   9.727  22.273  15.813 -0.1427 -0.2762 -0.1598
69116W        W69980   9.690  18.384  15.092 -0.2568 -0.0923 -0.1049
69117W        W69981   7.915  21.993  16.369  0.0560  0.1277  0.1600
69118W        W69982   6.212  18.021  13.883  0.0731 -0.0008 -0.2054
69119W        W69983   7.992  21.626  17.961  0.0956  0.3284 -0.0843
69120W        W69984   8.410  20.628  17.651 -0.3900  0.0020 -0.1855
69121W        W69985   6.240  19.424  16.033  0.1906 -0.0847  0.2249
69122W        W69986   8.584  19.345  15.726 -0.0023 -0.1449 -0.2183
69123W        W69987   6.966  20.676  15.435 -0.1263  0.0519 -0.1321
69124W        W69988   9.196  20.601  16.867  0.1172 -0.3102 -0.0919
69125W        W69989   9.733  17.588  18.330  0.1746 -0.4559 -0.1169
69126W        W69990   9.858  15.439  23.251  0.2098 -0.1556  0.1604
69127W        W69991  11.526  21.224  15.126  0.0081 -0.0406  0.1907
69128W        W69992   8.153  17.898  15.850  0.1544  0.1747 -0.2138
69129W        W69993   9.962  18.557  18.890  0.0874  0.3254  0.1647
69130W        W69994   7.933  20.028  16.045 -0.0632 -0.1997  0.3810
69131W        W69995   6.426  19.183  15.214  0.0636  0.0130  0.3814
69132W        W69996   8.555  22.673  13.571 -0.1331  0.3243 -0.0010
69133W        W69997   8.358  17.731  18.825 -0.0114  0.1884  0.0131
69134W        W69998   7.419  21.516  15.636 -0.0184 -0.2588 -0.0768
69135W        W69999   9.699  20.438  16.953  0.1644  0.1123  0.0439
69136W        W70000  13.185  20.093  16.992  0.0809 -0.1504  0.1299
69137W        W70001   6.125  18.838  15.388 -0.0385 -0.2468 -0.1928
69138W        W70002   8.336  21.425  14.869  0.0159 -0.0477  0.1589
69139W        W70003  10.336  17.247  19.112 -0.1647 -0.1797 -0.3423
69140W        W70004  12.323  20.822  14.813  0.2179  0.0313 -0.0682
69141W        W70005   9.462  20.927  16.549  0.0806  0.1596 -0.1616
69142W        W70006   9.659  20.685  20.923  0.0586  0.1609 -0.1864
69143W        W70007   6.364  22.540  16.645  0.1321  0.0844 -0.1839
69144W        W70008   8.963  17.405  18.044  0.1081  0.1509  0.0867
69145W        W70009   7.334  22.055  18.150 -0.1701 -0.0361 -0.3868
69146W        W70010  10.535  18.878  17.279 -0.0823  0.2844  0.0942
69147W        W70011   6.506  17.960  15.384  0.1039  0.1231 -0.0486
69148W        W70012   7.050  17.889  16.892 -0.0582 -0.2461 -0.0815
69149W        W70013   7.661  21.193  15.392  0.1851  0.0402  0.0224
69150W        W70014  11.616  21.682  18.124 -0.0676  0.1831 -0.1515
69151W        W70015   9.744  19.241  16.133 -0.2805  0.3849  0.1038
69152W        W70016   6.569  15.961  12.706  0.1653 -0.1603 -0.0610
69153W        W70017   7.128  20.589  16.449 -0.0164  0.1538 -0.0182
69154W        W70018   9.427  19.612  16.289 -0.2593 -0.0069 -0.3023
69155W        W70019   4.177  19.773  14.536 -0.2888 -0.0179  0.1287
69156W        W70020   9.077  22.053  15.121 -0.1585  0.0687  0.2405
69157W        W70021   8.590  19.437  20.337  0.2060 -0.0038  0.0948
69158W        W70022   8.073  17.689  17.136  0.0139 -0.0958  0.2205
69159W        W70023   8.154  18.556  16.186  0.3422  0.1551 -0.0623
69160W        W70024   7.091  18.853  17.461  0.0257  0.0711  0.1722
69161W        W70025   8.258  17.946  14.750 -0.0243  0.4261 -0.2099
69162W        W70026   2.979  18.322  17.749 -0.1075 -0.1198 -0.5066
69163W        W70027   5.157  19.702  15.715  0.0100 -0.4559  0.0668
69164W        W70028  11.100  20.504  13.526 -0.1667 -0.0969  0.1997
69165W        W70029   6.514  19.823  15.276 -0.0360  0.3108  0.0828
69166W        W70030   8.336  20.394  15.837  0.0471  0.0148  0.1420
69167W        W70031   9.446  19.208  14.509 -0.0636  0.0924  0.2366
69168W        W70032   7.371  20.815  17.520 -0.0405 -0.0001  0.0373
69169W        W70033   8.072  17.329  17.674  0.1802  0.0138  0.1425
69170W        W70034   7.209  19.911  14.359 -0.5077  0.3292 -0.0612
69171W        W70035   7.742  19.168  17.223  0.0213  0.0416 -0.3839
69172W        W70036   4.721  19.990  17.220 -0.1349 -0.2500 -0.2162
69173W        W70037  10.463  22.498  16.126 -0.0308  0.0682 -0.0901
69174W        W70038   6.242  20.389  14.459 -0.1909  0.0028 -0.0622
69175W        W70039   8.212  21.609  19.624  0.3038  0.0924 -0.0021
69176W        W70040   8.212  19.658  14.514 -0.1989  0.0448  0.0854
69177W        W70041   9.427  18.536  19.165 -0.2461 -0.0311 -0.1288
69178W        W70042  10.629  22.818  19.483  0.0371  0.0024 -0.4447
69179W        W70043  10.708  19.379  14.347 -0.0178 -0.0529 -0.1201
69180W        W70044   6.565  19.624  14.823  0.3190 -0.0557  0.0863
69181W        W70045   7.588  20.675  17.937 -0.0425 -0.0169  0.2705
69182W        W70046  10.097  18.927  17.753  0.0724 -0.0111 -0.2137
69183W        W70047   8.083  20.749  20.183 -0.0136  0.3526 -0.1264
69184W        W70048   9.922  19.724  17.512 -0.0616 -0.2025  0.1282
69185W        W70049   9.250  18.603  16.296 -0.0349 -0.0404 -0.0238
69186W        W70050  12.094  22.272  17.973  0.0274 -0.1731 -0.1998
69187W        W70051   7.196  18.704  11.347 -0.1051 -0.1678  0.1803
69188W        W70052   7.608  19.867  17.379 -0.1361  0.1805  0.0488
69189W        W70053   6.420  16.520  17.434 -0.4758  0.1187 -0.0058
69190W        W70054   8.281  21.102  17.358 -0.0137 -0.2659 -0.2443
69191W        W70055   8.870  18.269  17.440  0.2823  0.1447 -0.1844
69192W        W70056  11.657  19.175  16.818 -0.3196  0.1907 -0.1415
69193W        W70057  12.299  17.733  16.674  0.1296 -0.0653 -0.0918
69194W        W70058   8.748  18.525  15.892 -0.1013 -0.2109 -0.2745
69195W        W70059   8.317  20.207  16.500 -0.3955  0.2630  0.0914
69196W        W70060   6.954  19.181  15.978 -0.0276 -0.0313  0.3642
69197W        W70061   7.117  19.686  16.873 -0.1118 -0.0485  0.0590
69198W        W70062   9.132  21.393  16.534 -0.0133  0.0535 -0.2175
69199W        W70063  10.152  21.301  15.532  0.1615  0.0183  0.3271
69200W        W70064  12.645  21.817  16.274  0.2008  0.0490  0.3594
69201W        W70065   8.098  19.565  17.080 -0.5194  0.2973  0.0626
69202W        W70066  10.648  20.021  15.567  0.0828  0.0273 -0.1265
69203W        W70067  10.343  22.071  18.450 -0.1057 -0.0641 -0.1046
69204W        W70068  10.318  20.703  16.366 -0.0947  0.2020 -0.1043
69205W        W70069   8.365  22.488  20.709  0.2207  0.2030  0.1150
69206W        W70070   7.919  19.544  17.606  0.2027 -0.0839 -0.1065
69207W        W70071   8.706  17.551  17.692  0.2194  0.1498 -0.0413
69208W        W70072   8.640  19.058  16.200  0.0421 -0.0083 -0.0215
69209W        W70073   8.165  21.962  15.038 -0.0483 -0.0077  0.2456
69210W        W70074  10.926  20.054  16.067  0.0973 -0.0687 -0.2678
69211W        W70075   8.083  23.434  17.989  0.2241 -0.1092 -0.0692
69212W        W70076  11.523  22.277  15.253  0.0676 -0.2362 -0.0401
69213W        W70077   8.283  20.133  13.922 -0.0919  0.1482  0.1894
69214W        W70078   4.634  20.380  15.223 -0.1078  0.4253 -0.1310
69215W        W70079   9.852  21.673  19.912 -0.0601  0.0202 -0.0392
69216W        W70080   9.476  22.232  19.408 -0.0556 -0.2130 -0.1063
69217W        W70081   8.709  21.230  16.993 -0.0796  0.1901  0.0007
69218W        W70082   5.988  22.189  15.313 -0.1004 -0.1914 -0.2775
69219W        W70083  13.060  20.384  16.608 -0.0526  0.0872  0.1576
69220W        W70084   7.600  17.066  15.847 -0.3501  0.1191  0.1097
69221W        W70085   6.336  18.431  16.872  0.0418 -0.3191 -0.1360
69222W        W70086  12.389  23.141  14.819 -0.2188  0.1521  0.2322
69223W        W70087   9.494  20.319  16.234 -0.0596 -0.3190 -0.1859
69224W        W70088   6.502  18.678  15.055  0.2597 -0.0939  0.0828
69225W        W70089   8.774  20.716  15.836  0.0263 -0.3276  0.0115
69226W        W70090  10.297  19.073  16.722 -0.1160  0.0728 -0.4113
69227W        W70091   7.251  21.056  16.412  0.1796  0.3131 -0.0172
69228W        W70092   9.970  22.630  16.065  0.1993 -0.0609 -0.3062
69229W        W70093  10.711  24.595  17.400 -0.2907  0.2127 -0.0817
69230W        W70094   7.449  18.035  16.602  0.1455  0.0176  0.0244
69231W        W70095   6.081  20.176  15.394 -0.3756 -0.0035 -0.0300
69232W        W70096   8.963  19.130  17.057 -0.0445  0.2193 -0.2977
69233W        W70097  11.609  20.802  16.082 -0.2630 -0.1445 -0.1383
69234W        W70098   8.583  18.265  14.510  0.1103 -0.3415  0.1804
69235W        W70099  11.355  20.709  17.371  0.3771 -0.3488 -0.2379
69236W        W70100  11.112  19.295  18.367  0.0838 -0.2034  0.0919
69237W        W70101   9.527  21.489  17.016 -0.1314  0.2269 -0.4234
69238W        W70102  10.845  22.146  16.301 -0.2357  0.2124 -0.0244
69239W        W70103  10.867  19.427  18.754 -0.0066  0.0095 -0.3359
69240W        W70104   6.594  17.744  16.642  0.2064 -0.2895 -0.3618
69241W        W70105   6.223  20.778  16.282  0.2199 -0.1522  0.2278
69242W        W70106   8.339  19.252  17.512 -0.3655 -0.4203 -0.1169
69243W        W70107  11.116  20.991  18.599  0.0103  0.1156  0.0916
69244W        W70108   6.987  19.384  16.448 -0.1507  0.0809  0.0729
69245W        W70109   7.491  19.614  13.889  0.0287  0.1768  0.0790
69246W        W70110   7.705  20.373  17.256  0.0407 -0.0817  0.3237
69247W        W70111  10.221  21.195  18.717  0.5427 -0.1221  0.0184
69248W        W70112  13.595  19.082  17.065  0.0009  0.1204 -0.1153
69249W        W70113  10.275  23.007  17.354  0.0256  0.0399  0.0154
69250W        W70114   8.875  20.792  15.044 -0.2256  0.0503  0.0885
69251W        W70115   7.916  19.268  20.375 -0.5492  0.0522  0.0811
69252W        W70116  11.261  15.825  17.993  0.0109  0.0883  0.1715
69253W        W70117   9.320  19.595  15.348  0.2749 -0.2990  0.0549
69254W        W70118   4.050  19.041  16.025 -0.0192 -0.1501  0.2659
69255W        W70119  11.013  17.480  15.552 -0.2214 -0.1800  0.0017
69256W        W70120  10.219  21.372  19.974  0.3834  0.1484  0.2690
69257W        W70121   3.640  18.339  15.476  0.0132 -0.1914  0.0287
69258W        W70122   4.923  18.769  15.523 -0.0584  0.0601 -0.2157
69259W        W70123   8.658  17.380  15.614 -0.5029  0.3853 -0.0330
69260W        W70124   5.496  15.698  17.524 -0.0179 -0.0264 -0.2094
69261W        W70125  11.543  20.222  19.147  0.1439 -0.3736  0.0315
69262W        W70126  11.936  18.181  18.444 -0.0213 -0.3664  0.0159
69263W        W70127   8.431  20.689  18.635 -0.1030  0.2444  0.0014
69264W        W70128   5.071  22.550  13.347 -0.0585  0.0501  0.0849
69265W        W70129   8.245  19.470  20.026  0.1977 -0.1247  0.2665
69266W        W70130   8.642  20.429  16.219 -0.2121 -0.1676 -0.2179
69267W        W70131   7.611  18.732  15.525 -0.5331 -0.4995 -0.0251
69268W        W70132   9.215  18.798  12.963 -0.1091 -0.0749  0.2340
69269W        W70133   8.627  21.862  14.905  0.2044 -0.1232 -0.1249
69270W        W70134  11.068  22.123  17.775 -0.2622  0.1579 -0.1184
69271W        W70135   9.870  17.568  15.902  0.2079  0.0154  0.1071
69272W        W70136   9.228  18.992  17.637  0.0011 -0.3220  0.1300
69273W        W70137   9.821  19.122  16.751  0.1040 -0.1720  0.1395
69274W        W70138   8.482  16.291  15.899 -0.1754 -0.0575  0.0759
69275W        W70139   8.818  20.917  17.786 -0.2222  0.3108 -0.0347
69276W        W70140   9.134  20.662  16.284 -0.2862 -0.2172 -0.0624
69277W        W70141  12.206  22.502  18.399 -0.1510  0.0252 -0.1009
69278W        W70142   8.854  20.462  17.184 -0.1039 -0.0698  0.1963
69279W        W70143   8.626  22.153  19.161  0.0198 -0.1920  0.3850
69280W        W70144   7.660  19.326  15.335  0.3683 -0.1727 -0.0327
69281W        W70145   8.944  19.304  16.585  0.2045  0.2153 -0.3491
69282W        W70146  12.942  19.324  17.692 -0.0807  0.0920 -0.1770
69283W        W70147   5.700  21.832  16.452 -0.0161  0.0998  0.0750
69284W        W70148  10.967  23.631  16.338  0.1256 -0.1050 -0.0198
69285W        W70149  10.440  20.066  18.013  0.0657  0.2566  0.2654
69286W        W70150   7.585  23.913  18.850 -0.0440 -0.1304 -0.1269
69287W        W70151   8.573  20.858  15.419 -0.1804  0.1244  0.0502
69288W        W70152   5.529  20.667  11.948  0.1850  0.0091  0.2424
69289W        W70153   9.152  20.289  17.684  0.1166 -0.0870  0.1965
69290W        W70154   9.631  21.451  15.604  0.1348  0.1682  0.0555
69291W        W70155   6.907  21.490  15.083 -0.1040 -0.3005 -0.0664
69292W        W70156   7.212  20.198  12.869  0.1835 -0.2718 -0.1891
69293W        W70157   7.205  21.847  15.303 -0.0544 -0.1053  0.2062
69294W        W70158   7.633  18.053  17.142  0.1218  0.1988  0.2114
69295W        W70159  11.693  18.483  17.607  0.3394 -0.2456  0.0410
69296W        W70160  11.432  23.139  21.527  0.0199 -0.4741 -0.1889
69297W        W70161  10.902  20.139  17.835 -0.1658  0.0830 -0.0951
69298W        W70162  13.315  21.826  18.131  0.0694  0.3230 -0.0675
69299W        W70163  11.068  21.226  21.649 -0.1105  0.1644  0.1285
69300W        W70164   8.389  21.010  18.197  0.2278  0.1297  0.0517
69301W        W70165   8.751  19.463  14.777  0.1335  0.1109 -0.2481
69302W        W70166   9.605  18.275  16.018 -0.4727  0.1534  0.0232
69303W        W70167   7.968  18.667  13.959 -0.0795  0.2665 -0.0992
69304W        W70168   8.368  21.882  14.020 -0.0918 -0.1578 -0.3668
69305W        W70169   6.761  19.680  16.108  0.2287 -0.0114  0.1289
69306W        W70170   7.821  18.381  17.466  0.1273  0.1753  0.1791
69307W        W70171   7.942  21.773  13.479 -0.1242  0.2262 -0.2545
69308W        W70172   6.579  21.117  13.580 -0.3972  0.2042  0.0144
69309W        W70173   9.436  20.601  18.572 -0.0166 -0.1374 -0.1087
69310W        W70174  10.472  21.347  15.113  0.0169 -0.0456 -0.0983
69311W        W70175   6.533  19.921  19.498 -0.1239 -0.4744 -0.1804
69312W        W70176   9.971  21.664  17.257  0.0770  0.0260 -0.0222
69313W        W70177   7.896  17.837  16.680 -0.0647  0.3554 -0.1726
69314W        W70178  10.119  18.310  18.461  0.0360 -0.1641  0.4607
69315W        W70179  11.638  19.666  16.295  0.1043 -0.0149 -0.0826
69316W        W70180  10.304  20.465  15.403  0.1287  0.0450 -0.1991
69317W        W70181  11.600  20.983  16.752  0.0647 -0.0548  0.1026
69318W        W70182   7.208  20.881  14.992  0.2711 -0.2255 -0.1106
69319W        W70183   7.109  17.241  17.319 -0.2296 -0.1437 -0.2219
69320W        W70184   8.095  21.887  19.229  0.3185  0.0374  0.1076
69321W        W70185   8.628  18.604  16.386 -0.4318 -0.0313  0.1838
69322W        W70186   7.479  20.697  18.467 -0.2207 -0.3761 -0.0979
69323W        W70187   9.327  21.196  14.719 -0.1089 -0.0725  0.0613
69324W        W70188   5.226  19.988  14.407  0.3164  0.0308  0.2880
69325W        W70189  11.619  20.865  17.791 -0.2219 -0.3231  0.2792
69326W        W70190   9.949  22.127  15.386  0.4480  0.0300 -0.0327
69327W        W70191   9.969  15.871  15.196 -0.1080 -0.2069  0.0095
69328W        W70192   8.604  23.173  16.716 -0.1123  0.3341 -0.1245
69329W        W70193  12.145  21.316  16.043  0.1430 -0.3054 -0.3063
69330W        W70194  10.567  21.152  17.070 -0.2118 -0.1069  0.3527
69331W        W70195   8.046  19.327  15.772  0.1140 -0.0657  0.2040
69332W        W70196   8.935  15.989  15.146 -0.0766  0.1087 -0.1380
69333W        W70197  11.172  15.954  16.978  0.0311 -0.0763 -0.1443
69334W        W70198   9.496  21.259  14.035  0.3176 -0.2413  0.1991
69335W        W70199   9.960  18.519  18.027 -0.1200  0.0013 -0.1091
69336W        W70200   7.723  21.264  16.652 -0.0954 -0.0348 -0.2093
69337W        W70201  10.014  20.098  17.203 -0.0147 -0.1870 -0.0489
69338W        W70202  10.976  20.252  17.307  0.0767  0.2469  0.1437
69339W        W70203   8.900  19.599  19.981 -0.3335 -0.0984  0.1622
69340W        W70204   5.467  22.417  15.070 -0.1484  0.1896  0.0669
69341W        W70205   9.369  20.539  15.217  0.0283  0.2130  0.2107
69342W        W70206   9.137  21.588  15.439 -0.2375  0.1377 -0.2279
69343W        W70207   6.991  22.078  17.765  0.1921 -0.0226  0.4493
69344W        W70208   7.842  20.297  15.035 -0.0732 -0.5171  0.0770
69345W        W70209   6.333  19.864  16.282 -0.2775  0.1695  0.4407
69346W        W70210   6.242  18.114  17.684 -0.1028 -0.0752  0.1219
69347W        W70211  10.057  21.327  17.839  0.2514  0.0950 -0.3199
69348W        W70212  10.618  22.812  16.562 -0.2172  0.1755  0.1148
69349W        W70213   8.016  19.730  19.034  0.2828  0.0524 -0.0032
69350W        W70214   6.679  21.691  14.367 -0.0018  0.0691  0.0168
69351W        W70215  10.113  22.759  14.631  0.0363  0.1831 -0.1372
69352W        W70216   6.401  20.601  15.309 -0.2110  0.0308  0.0433
69353W        W70217   9.947  18.159  17.157  0.0560  0.1356  0.0403
69354W        W70218  10.750  21.133  20.924 -0.1246 -0.0535 -0.2415
69355W        W70219   7.611  21.052  15.919  0.0498 -0.3022  0.2208
69356W        W70220  10.510  21.661  18.737 -0.0644  0.0420  0.1712
69357W        W70221   9.368  19.676  17.290 -0.1385  0.4611  0.0685
69358W        W70222  10.047  22.216  18.043  0.0772  0.2257  0.1565
69359W        W70223   7.444  18.983  19.080  0.0733  0.2335 -0.2463
69360W        W70224   9.731  23.369  11.124  0.2374 -0.0983  0.0571
69361W        W70225   8.778  21.903  16.202 -0.0008 -0.2581 -0.1241
69362W        W70226   6.290  21.468  15.090  0.1603  0.0661 -0.0159
69363W        W70227   7.653  20.644  13.393 -0.0817 -0.2503 -0.2883
69364W        W70228   8.357  25.099  20.216 -0.1383 -0.1743 -0.3440
69365W        W70229   6.878  23.344  21.443  0.0372 -0.1498 -0.0171
69366W        W70230  10.386  19.268  23.225 -0.1967  0.1927  0.0359
69367W        W70231  12.309  21.041  21.767 -0.2353 -0.3613 -0.0632
69368W        W70232   9.063  24.283  20.139 -0.1963 -0.2555  0.1165
69369W        W70233   8.644  21.943  22.256  0.2515 -0.2161  0.3327
69370W        W70234   7.831  18.765  18.096 -0.1860 -0.0554 -0.1132
69371W        W70235   9.848  18.424  22.214 -0.2832 -0.0062 -0.1118
69372W        W70236   8.641  19.322  21.933  0.0032 -0.1420 -0.0850
69373W        W70237   6.681  18.733  22.642 -0.2094 -0.0315 -0.1068
69374W        W70238   8.526  18.027  21.075  0.0113  0.0560 -0.1030
69375W        W70239  10.758  19.071  20.637  0.2252  0.0535  0.0423
69376W        W70240   9.899  18.948  21.366 -0.1221 -0.0733  0.0122
69377W        W70241  10.588  20.335  24.145  0.1443 -0.0024  0.1718
69378W        W70242   8.383  15.290  20.526  0.2147  0.2364 -0.0410
69379W        W70243   8.268  21.016  22.164 -0.1219  0.1627 -0.3153
69380W        W70244   8.858  20.908  16.658 -0.2219  0.0917  0.1475
69381W        W70245   8.523  19.887  19.781  0.1813 -0.0952 -0.0088
69382W        W70246   8.834  21.403  20.702  0.2997 -0.0333  0.3131
69383W        W70247   8.851  18.277  22.416  0.1799 -0.1637 -0.0801
69384W        W70248   9.595  22.149  21.473  0.0259 -0.0149 -0.2097
69385W        W70249   9.323  19.592  20.240  0.2249 -0.0049  0.0699
69386W        W70250  10.170  21.712  20.372  0.1107  0.0896  0.2702
69387W        W70251   5.379  20.471  22.373  0.1003  0.2509  0.0724
69388W        W70252   7.968  20.936  19.216 -0.0613 -0.1118 -0.4506
69389W        W70253   7.583  22.435  21.458  0.0592  0.0851 -0.2519
69390W        W70254   8.699  17.845  22.621  0.0695 -0.1222 -0.0653
69391W        W70255   9.507  21.286  18.052 -0.0968 -0.1278  0.1805
69392W        W70256   7.418  19.809  20.369  0.3279 -0.1729 -0.2365
69393W        W70257   6.058  20.443  21.807  0.2061 -0.1231 -0.2324
69394W        W70258   9.706  20.044  23.061 -0.1727 -0.0305  0.3940
69395W        W70259  10.676  21.312  21.362  0.2501 -0.1255 -0.1570
69396W        W70260   9.630  21.299  21.416 -0.0259  0.0212  0.1414
69397W        W70261   7.588  20.548  21.723  0.0249  0.1431  0.0513
69398W        W70262   7.148  19.256  23.569  0.0955  0.0264 -0.0268
69399W        W70263   7.465  20.060  21.635 -0.0146 -0.0170 -0.1818
69400W        W70264   6.694  20.182  20.991  0.1768  0.5172  0.1553
69401W        W70265   8.932  19.450  22.821 -0.3227 -0.1925  0.1128
69402W        W70266  10.399  20.766  18.770 -0.1942  0.4293 -0.2381
69403W        W70267   8.748  20.364  22.986 -0.3018 -0.0066  0.2764
69404W        W70268  11.176  19.798  18.044 -0.1819 -0.2728  0.1182
69405W        W70269  10.843  19.437  23.011 -0.0002  0.2739 -0.2502
69406W        W70270   8.450  19.543  22.569  0.0443 -0.1089  0.0215
69407W        W70271  14.314  19.949  19.970  0.1211 -0.0544 -0.0917
69408W        W70272  10.071  21.740  18.204 -0.1682 -0.0261 -0.1738
69409W        W70273   8.847  23.538  18.432 -0.0795 -0.0497  0.2148
69410W        W70274   6.236  17.643  24.020 -0.0533  0.3417  0.1346
69411W        W70275  10.401  19.374  22.515  0.3584 -0.0024 -0.0244
69412W        W70276  10.522  20.468  17.513 -0.2898 -0.1165 -0.2097
69413W        W70277   8.012  20.922  15.693  0.0954 -0.0849  0.0412
69414W        W70278  11.560  19.434  18.107 -0.1186 -0.0125 -0.1103
69415W        W70279  10.129  18.094  21.910 -0.4179 -0.3190  0.3086
69416W        W70280   7.713  22.158  20.502  0.0050 -0.0618  0.0656
69417W        W70281   9.559  20.436  20.223 -0.1115 -0.0507  0.0155
69418W        W70282  11.226  16.966  19.507  0.0341  0.1351  0.1864
69419W        W70283   8.426  22.119  17.627  0.0632 -0.0053  0.3276
69420W        W70284   6.297  20.016  20.438  0.2019 -0.0538 -0.2034
69421W        W70285   9.847  20.914  19.978  0.2214  0.1472 -0.1690
69422W        W70286   7.193  22.404  19.042 -0.1611 -0.1357  0.0814
69423W        W70287  10.298  21.975  19.082 -0.2276  0.0939  0.1681
69424W        W70288  10.506  21.231  19.165  0.2700  0.0711  0.0590
69425W        W70289   7.374  23.516  20.382  0.1222  0.0356 -0.1648
69426W        W70290   6.204  17.918  22.160  0.2806 -0.1368 -0.1021
69427W        W70291   7.419  22.745  18.720  0.2741  0.1373 -0.2055
69428W        W70292   8.214  17.101  22.346 -0.0458  0.4815 -0.0796
69429W        W70293  10.299  18.360  20.704  0.1818 -0.4576  0.0625
69430W        W70294   8.640  21.751  20.405  0.1466  0.0574  0.1285
69431W        W70295   7.089  18.406  17.720  0.0827 -0.1180 -0.0749
69432W        W70296   9.669  20.062  18.469 -0.0601  0.1129 -0.1326
69433W        W70297   8.072  19.319  18.638 -0.0455  0.0514 -0.1582
69434W        W70298   7.599  22.959  21.240 -0.0233  0.0685 -0.0376
69435W        W70299   8.486  20.270  21.518 -0.2757 -0.0958  0.1978
69436W        W70300  10.450  19.921  23.640 -0.1464  0.0472  0.0559
69437W        W70301   9.492  22.145  20.138 -0.1773  0.0888 -0.1962
69438W        W70302  10.289  20.513  21.480 -0.0791 -0.1648  0.0238
69439W        W70303   6.483  19.126  18.585 -0.1277 -0.0684 -0.1294
69440W        W70304  10.095  20.473  19.699  0.0670 -0.1242  0.0449
69441W        W70305  12.372  20.313  18.456 -0.0686  0.2205 -0.4214
69442W        W70306  11.005  21.299  19.024  0.1437  0.0473 -0.2321
69443W        W70307   9.172  19.695  23.201 -0.1561  0.2213 -0.3198
69444W        W70308   6.133  19.212  23.499  0.1618 -0.1644 -0.2013
69445W        W70309   6.854  16.748  18.668 -0.1163  0.0887 -0.0402
69446W        W70310   9.048  18.999  19.889 -0.1504 -0.0248  0.1574
69447W        W70311   8.291  19.209  24.113  0.3309 -0.0290 -0.3414
69448W        W70312  12.045  20.400  20.405  0.2988 -0.0227  0.3360
69449W        W70313   7.771  21.665  20.386 -0.0974 -0.1504  0.0239
69450W        W70314   9.131  17.433  20.791  0.1225 -0.3362 -0.0949
69451W        W70315   8.698  21.575  23.658 -0.0826  0.0285 -0.1636
69452W        W70316  12.150  16.221  21.789  0.0312  0.3083  0.4500
69453W        W70317  10.325  15.599  23.390  0.1598 -0.0301  0.0438
69454W        W70318   9.708  20.083  24.068  0.3991  0.0752 -0.2392
69455W        W70319   7.412  24.240  19.267  0.0611  0.1566 -0.0844
69456W        W70320   9.896  18.778  19.365 -0.1772 -0.0396  0.3371
69457W        W70321   7.337  18.917  22.519  0.0957 -0.1806  0.0658
69458W        W70322   9.350  19.450  16.811  0.0450  0.2802 -0.1036
69459W        W70323   9.627  18.320  19.687  0.2766  0.2220 -0.4370
69460W        W70324   8.170  22.433  22.951  0.0322  0.1352  0.2726
69461W        W70325  11.280  16.499  19.320  0.0884 -0.2415 -0.0931
69462W        W70326   8.161  18.520  19.809 -0.0347  0.2742  0.2331
69463W        W70327  10.717  21.252  18.572 -0.1192  0.2728  0.2226
69464W        W70328   6.923  20.657  22.140  0.3681  0.1293 -0.1351
69465W        W70329   8.598  20.174  17.887  0.0222 -0.0087 -0.1481
69466W        W70330  10.354  21.113  20.433  0.0056 -0.1022 -0.0391
69467W        W70331   9.736  17.671  22.687 -0.2573  0.1542 -0.3551
69468W        W70332  10.236  18.989  22.303  0.4550  0.0647  0.1634
69469W        W70333   8.667  20.072  22.536 -0.0836  0.1416 -0.1506
69470W        W70334   8.454  20.535  22.452 -0.0654 -0.2733  0.1688
69471W        W70335   7.376  18.789  20.523 -0.3274  0.1878 -0.0144
69472W        W70336   8.288  22.027  18.758 -0.1230  0.2772  0.0730
69473W        W70337   6.663  19.756  20.683  0.1049 -0.0667  0.0819
69474W        W70338   8.326  21.985  21.711 -0.1621  0.1273  0.1932
69475W        W70339  10.187  18.966  20.758  0.0888 -0.2407  0.1053
69476W        W70340   7.171  20.020  22.471 -0.0169  0.0046 -0.3034
69477W        W70341  10.535  20.532  18.004 -0.3338  0.0233  0.2352
69478W        W70342   9.984  20.750  20.412 -0.3577 -0.0737  0.3324
69479W        W70343   8.838  16.680  21.965 -0.1051 -0.2294  0.0060
69480W        W70344   9.045  18.524  21.967 -0.0543  0.2623 -0.1104
69481W        W70345  11.104  21.658  21.391  0.0460  0.1892  0.1226
69482W        W70346   9.863  19.565  16.603 -0.2562  0.0713 -0.1583
69483W        W70347  11.817  18.086  17.937 -0.0869  0.0049 -0.0572
69484W        W70348   9.426  20.212  14.830  0.3982  0.1999 -0.2073
69485W        W70349   8.041  18.170  21.121  0.2582 -0.1146  0.1037
69486W        W70350  10.325  21.459  20.829  0.2391  0.0947 -0.2084
69487W        W70351  10.657  20.066  20.244  0.0243 -0.0500  0.0469
69488W        W70352   8.202  19.836  21.671 -0.1693  0.0853 -0.1893
69489W        W70353   7.932  18.331  19.379 -0.1457 -0.1811  0.0977
69490W        W70354  10.240  20.712  22.033  0.1061  0.0655  0.2277
69491W        W70355   6.938  19.109  22.785  0.1081 -0.0210 -0.1548
69492W        W70356   9.258  21.023  18.941 -0.1387 -0.0717 -0.1815
69493W        W70357  10.128  21.309  21.252 -0.2025 -0.0251  0.1498
69494W        W70358   7.386  20.454  22.283 -0.0162  0.3962 -0.0197
69495W        W70359   6.584  21.718  21.327 -0.1516 -0.2001  0.2043
69496W        W70360   8.535  16.269  22.336 -0.3298 -0.3566 -0.1028
69497W        W70361   5.612  21.138  21.296 -0.1242  0.1787  0.0866
69498W        W70362   9.369  20.656  22.287  0.1322  0.1913  0.1512
69499W        W70363   8.820  17.566  20.265 -0.0834  0.1406  0.3624
69500W        W70364  12.963  18.824  22.957 -0.0846 -0.2159  0.0210
69501W        W70365   8.988  19.985  18.981  0.4242  0.0490  0.1923
69502W        W70366  10.577  21.065  14.728 -0.0322  0.1276  0.0574
69503W        W70367   6.848  18.215  20.513  0.2188  0.0828 -0.0757
69504W        W70368   9.778  14.975  23.095  0.0124 -0.2000 -0.0845
69505W        W70369   7.460  19.619  17.803  0.1280 -0.0353 -0.0306
69506W        W70370   7.653  17.873  20.874  0.1850 -0.2486  0.2314
69507W        W70371  10.333  21.470  21.749  0.0366  0.0046 -0.1081
69508W        W70372  10.496  20.528  20.471  0.0037  0.1377  0.1016
69509W        W70373  10.857  19.752  21.207  0.1421  0.0756  0.2787
69510W        W70374   6.741  22.598  20.977 -0.1060  0.0087  0.2619
69511W        W70375   8.995  22.601  20.908  0.2627 -0.0431  0.0558
69512W        W70376   8.440  20.349  19.564  0.1671  0.0953 -0.0283
69513W        W70377   9.035  20.188  21.520  0.1151 -0.0701 -0.2052
69514W        W70378   8.352  16.669  22.123  0.1079 -0.4241 -0.3398
69515W        W70379   8.943  19.815  19.526  0.1601  0.1048  0.2529
69516W        W70380   9.455  21.948  17.533 -0.0283  0.1179 -0.1582
69517W        W70381   9.270  19.743  21.420  0.4506  0.0254 -0.0794
69518W        W70382   8.113  18.179  17.067 -0.4397 -0.0196  0.1811
69519W        W70383   7.283  24.396  18.185 -0.0995 -0.0031  0.1967
69520W        W70384   8.775  20.342  16.717  0.1444  0.0324 -0.0515
69521W        W70385   8.263  19.030  17.072 -0.1699  0.1633 -0.1035
69522W        W70386  10.225  17.869  19.217  0.0488 -0.0467 -0.0163
69523W        W70387  10.072  16.696  22.611 -0.2416  0.3749 -0.0561
69524W        W70388   6.605  20.822  24.835  0.2184  0.0502  0.0822
69525W        W70389   9.492  18.689  22.783  0.0523 -0.0503  0.2620
69526W        W70390   7.270  21.416  20.062  0.0479 -0.0517  0.1538
69527W        W70391   9.363  19.337  25.746  0.0792  0.1636 -0.1769
69528W        W70392   7.030  19.518  20.999 -0.1866 -0.2012  0.1404
69529W        W70393   8.991  18.062  19.996  0.0222  0.0449  0.1515
69530W        W70394   9.409  22.329  20.648  0.2390 -0.0425 -0.2700
69531W        W70395   8.217  21.042  23.078 -0.2293 -0.0702 -0.0122
69532W        W70396   6.763  23.519  19.235  0.2045  0.0954 -0.1906
69533W        W70397   9.035  19.238  20.392 -0.1112  0.2059  0.0762
69534W        W70398   8.040  18.648  20.357 -0.1824  0.1504 -0.2218
69535W        W70399   8.558  20.524  21.948 -0.1275  0.2116 -0.2895
69536W        W70400  10.370  24.247  17.277  0.1905  0.0287 -0.3521
69537W        W70401   8.582  17.892  17.296  0.1465 -0.4605  0.4980
69538W        W70402  12.239  17.656  21.886 -0.1150 -0.3866  0.0038
69539W        W70403   6.735  21.471  22.782 -0.0360 -0.3453  0.0153
69540W        W70404   4.702  20.606  21.110  0.1191 -0.3143  0.1051
69541W        W70405   7.876  21.019  21.794  0.1989  0.5903 -0.0322
69542W        W70406  10.519  17.775  24.444  0.1261 -0.0804 -0.0892
69543W        W70407  10.180  19.429  18.465 -0.0158  0.2987 -0.2157
69544W        W70408  10.718  23.653  18.109 -0.4447  0.1027 -0.1729
69545W        W70409   9.573  19.159  20.019  0.1728  0.2320 -0.3602
69546W        W70410   9.278  20.755  19.404  0.1471  0.0482  0.1007
69547W        W70411   6.928  18.613  16.092 -0.2160  0.2589  0.1332
69548W        W70412   9.217  22.696  25.556 -0.2133  0.3003 -0.1664
69549W        W70413  10.896  20.732  19.868 -0.0852 -0.0668 -0.2121
69550W        W70414   7.333  19.380  17.410  0.0011  0.0418 -0.0636
69551W        W70415   7.931  19.786  20.363  0.0455 -0.2506 -0.3498
69552W        W70416   7.964  21.741  21.429  0.1440  0.1205 -0.2516
69553W        W70417   6.221  18.630  17.779 -0.1716 -0.0870 -0.1837
69554W        W70418   7.504  20.606  19.711  0.0352  0.1064 -0.1345
69555W        W70419   8.522  19.177  22.883  0.1481  0.1993 -0.0179
69556W        W70420   8.658  19.333  20.816 -0.0369 -0.1813 -0.0103
69557W        W70421   8.813  18.898  21.177 -0.2820  0.1024  0.1345
69558W        W70422   8.970  15.014  21.359 -0.1583  0.2055 -0.5531
69559W        W70423   7.205  17.698  19.429  0.1273 -0.2716  0.3112
69560W        W70424   5.699  19.657  21.436 -0.1860  0.4851 -0.2352
69561W        W70425   9.501  20.008  18.951 -0.0650  0.1866 -0.0742
69562W        W70426   9.435  16.237  19.324 -0.0818 -0.0659  0.0600
69563W        W70427   8.021  19.675  21.246  0.0013  0.2824 -0.0201
69564W        W70428  11.024  18.283  20.111  0.3516  0.2670  0.2314
69565W        W70429  11.162  18.122  19.093 -0.0757  0.3095 -0.1692
69566W        W70430   8.052  20.726  22.709 -0.1798 -0.0578  0.0983
69567W        W70431   7.608  20.064  20.847 -0.3859  0.1703 -0.1375
69568W        W70432   6.023  17.447  19.374 -0.0290 -0.0042  0.1446
69569W        W70433   8.837  20.638  21.483  0.1747 -0.0691  0.0056
69570W        W70434   8.507  18.671  22.107 -0.0292 -0.1733  0.0009
69571W        W70435  11.164  21.226  22.191 -0.0868 -0.2961 -0.1115
69572W        W70436   6.202  20.115  16.787  0.0038  0.1991  0.1941
69573W        W70437   8.686  21.337  23.049  0.0613 -0.0809  0.1595
69574W        W70438   5.287  19.719  21.719 -0.2355 -0.0114 -0.1631
69575W        W70439   6.429  20.398  23.355  0.0825 -0.0870 -0.0286
69576W        W70440   9.325  18.820  21.229  0.2858  0.0569 -0.3728
69577W        W70441   9.571  21.819  21.975 -0.0675 -0.0155  0.1063
69578W        W70442  13.465  22.641  18.939  0.3249 -0.4060 -0.2829
69579W        W70443  12.284  24.086  17.383 -0.0335 -0.1177  0.0186
69580W        W70444  10.140  22.664  20.313  0.1271  0.0031 -0.0569
69581W        W70445   9.717  19.516  23.075  0.0887 -0.0394  0.1635
69582W        W70446   4.480  22.048  23.038  0.2708  0.0999  0.0800
69583W        W70447  10.615  16.609  21.960 -0.1640  0.0666  0.0792
69584W        W70448  10.412  19.354  21.918  0.2796 -0.2903  0.4645
69585W        W70449   7.151  24.914  21.843  0.2692 -0.1773 -0.1659
69586W        W70450   8.511  18.090  19.797 -0.5376 -0.1997  0.1182
69587W        W70451  10.228  23.516  17.226 -0.0120 -0.0027  0.0287
69588W        W70452   9.013  15.830  22.972 -0.3185 -0.0154  0.3621
69589W        W70453   6.178  18.451  23.830 -0.2288 -0.2229  0.0829
69590W        W70454   9.450  19.053  21.714  0.1599  0.0532  0.0511
69591W        W70455  10.940  22.189  20.033 -0.0380 -0.0784 -0.0631
69592W        W70456   8.350  21.950  23.594  0.2929  0.0916  0.1443
69593W        W70457   7.698  19.116  21.798 -0.1669 -0.0022 -0.1087
69594W        W70458   6.321  17.739  21.359  0.1747 -0.3873 -0.0101
69595W        W70459   7.873  18.767  19.120 -0.3876 -0.1219 -0.0465
69596W        W70460  10.118  20.689  17.820  0.0274 -0.0549  0.1573
69597W        W70461   7.030  16.674  21.072 -0.0355  0.2144 -0.0709
69598W        W70462  10.088  22.406  18.803 -0.0459 -0.2480  0.0410
69599W        W70463   6.630  19.493  19.730  0.2464 -0.1617  0.2337
69600W        W70464   7.737  19.041  20.809  0.1073 -0.1400 -0.3207
69601W        W70465   9.835  22.671  17.381 -0.2204 -0.2325  0.0568
69602W        W70466  10.345  21.366  18.232 -0.0885  0.2844 -0.2790
69603W        W70467   7.155  22.324  21.183  0.2849 -0.4298 -0.0947
69604W        W70468   4.614  20.972  21.447 -0.0096 -0.2679  0.0492
69605W        W70469   6.651  16.995  19.042  0.0562  0.0949 -0.2908
69606W        W70470  11.389  18.389  22.178 -0.0108  0.0968 -0.0639
69607W        W70471   8.141  22.422  23.507  0.2582 -0.1943  0.0260
69608W        W70472  10.484  20.168  16.388  0.1977  0.1500  0.1687
69609W        W70473  11.176  21.185  20.105 -0.0497  0.0297  0.2384
69610W        W70474   9.641  22.731  23.310 -0.3089 -0.2427  0.0679
69611W        W70475   8.170  22.373  19.222  0.0223  0.1274 -0.1774
69612W        W70476   8.126  19.405  19.475 -0.1864 -0.0316  0.2496
69613W        W70477   5.907  18.213  20.082  0.2289 -0.0157 -0.0904
69614W        W70478   8.400  20.285  20.983 -0.1168 -0.0690  0.3614
69615W        W70479  10.742  21.622  20.944 -0.1454 -0.1309  0.0706
69616W        W70480  10.704  19.893  19.235  0.4015 -0.0959 -0.0618
69617W        W70481   8.460  19.706  18.787  0.0211  0.0610  0.0947
69618W        W70482  12.287  20.861  19.288  0.0353 -0.1429  0.0737
69619W        W70483  10.983  18.892  17.446 -0.1079  0.2990 -0.2008
69620W        W70484   7.524  17.174  20.808 -0.2875 -0.3173 -0.0428
69621W        W70485   6.387  18.413  22.387 -0.1145 -0.0577 -0.1584
69622W        W70486  10.240  20.020  19.135  0.3229  0.1448  0.2590
69623W        W70487   9.832  18.463  20.593  0.1570 -0.0478 -0.1497
69624W        W70488   7.847  17.437  23.104  0.0406 -0.3347 -0.1559
69625W        W70489   9.468  21.679  21.064 -0.0882  0.1604  0.1133
69626W        W70490  10.024  19.657  22.728 -0.4590 -0.1126  0.0159
69627W        W70491   9.013  21.294  18.137  0.0845  0.3368 -0.4616
69628W        W70492   6.320  23.317  22.243 -0.0248  0.1012 -0.1138
69629W        W70493   6.863  20.453  20.084 -0.1891  0.3642 -0.0285
69630W        W70494   8.218  19.582  15.071  0.3054 -0.0626  0.2431
69631W        W70495   7.307  18.037  22.970  0.0464  0.2428 -0.2514
69632W        W70496   9.358  21.354  20.565 -0.0535  0.0832 -0.0318
69633W        W70497   8.345  18.775  17.935 -0.1971  0.2567  0.0636
69634W        W70498   8.732  20.945  22.324 -0.0002 -0.1617 -0.1501
69635W        W70499   9.258  19.892  21.914  0.0576  0.0654  0.0484
69636W        W70500   7.928  18.455  22.234  0.0905 -0.1199 -0.1402
69637W        W70501   7.340  23.086  21.652  0.0421 -0.1300 -0.1297
69638W        W70502   7.378  15.618  23.189 -0.0051  0.0567 -0.2357
69639W        W70503   9.247  17.541  19.263 -0.0482 -0.2248 -0.0379
69640W        W70504   7.810  18.909  22.299  0.0683 -0.0187  0.0177
69641W        W70505   5.278  19.966  20.839 -0.1209 -0.3002 -0.0162
69642W        W70506   7.162  20.902  18.952  0.2302  0.0331 -0.0670
69643W        W70507   6.676  20.723  19.061 -0.3090  0.0804  0.3382
69644W        W70508  11.706  19.612  18.936  0.1400 -0.0007 -0.0509
69645W        W70509  10.022  21.168  19.547 -0.4228  0.1934 -0.0406
69646W        W70510   8.208  20.238  20.101  0.0885  0.2346 -0.1431
69647W        W70511  11.601  18.057  18.915  0.1466 -0.1940 -0.1464
69648W        W70512  11.300  18.131  21.748 -0.1975  0.0819 -0.2387
69649W        W70513   6.802  21.408  19.992 -0.0418  0.2105  0.0908
69650W        W70514   5.706  19.109  23.083 -0.0439 -0.1737 -0.1546
69651W        W70515  11.320  18.506  18.764  0.1865 -0.1737 -0.1921
69652W        W70516  10.725  22.244  18.202  0.0556  0.2636 -0.0314
69653W        W70517   8.837  20.926  17.301 -0.0693  0.2135  0.0592
69654W        W70518   9.801  18.256  17.619 -0.0700 -0.2551  0.3479
69655W        W70519  11.233  19.349  21.188  0.2101 -0.3426  0.1517
69656W        W70520   6.402  18.794  21.187  0.3913 -0.1016  0.0292
69657W        W70521   7.292  22.672  20.853 -0.0012 -0.4099  0.0180
69658W        W70522   7.487  19.676  21.232  0.1644 -0.3113  0.0635
69659W        W70523   9.690  20.268  19.771  0.0207 -0.2784  0.1924
69660W        W70524   9.053  20.672  21.956  0.1640  0.1906 -0.1028
69661W        W70525  11.770  17.558  21.734  0.4103 -0.3497  0.1141
69662W        W70526   9.282  21.961  18.793  0.0622  0.0346  0.0146
69663W        W70527   6.033  21.983  17.213 -0.1061  0.2504 -0.0058
69664W        W70528   8.135  19.310  21.615  0.0722  0.0994 -0.2394
69665W        W70529  10.221  21.837  23.527  0.0561  0.0481 -0.1055
69666W        W70530   9.574  21.220  19.358 -0.3241  0.3239  0.1287
69667W        W70531  11.926  20.172  19.919  0.0806 -0.1098  0.0504
69668W        W70532   6.892  22.742  19.514  0.0794 -0.2001 -0.0971
69669W        W70533  10.230  19.415  21.470 -0.2421 -0.0543 -0.2077
69670W        W70534   8.672  18.934  20.215  0.0474 -0.0008  0.3288
69671W        W70535  10.078  18.165  19.579  0.1469 -0.2257  0.2761
69672W        W70536   8.823  20.230  20.630  0.1762  0.0755  0.0845
69673W        W70537  10.310  18.207  17.880 -0.3401  0.1231  0.0906
69674W        W70538   8.115  19.628  22.141 -0.0235  0.0274 -0.2918
69675W        W70539   8.010  17.975  19.840 -0.0274 -0.2787 -0.1687
69676W        W70540  12.385  18.234  19.071  0.0544  0.1315 -0.1185
69677W        W70541   7.376  21.952  20.155 -0.1406  0.0131  0.0524
69678W        W70542   9.552  19.474  22.046  0.0566 -0.0435 -0.0688
69679W        W70543   6.658  17.531  19.857 -0.0206 -0.2785 -0.1715
69680W        W70544  10.785  19.815  19.774  0.2392  0.0490  0.0184
69681W        W70545   8.831  20.706  23.338  0.2174 -0.0462  0.0533
69682W        W70546  10.536  18.472  21.627  0.0942  0.2597  0.1105
69683W        W70547   7.705  22.384  23.004 -0.1008 -0.0774 -0.1119
69684W        W70548   8.840  18.687  17.763 -0.2900 -0.0603  0.0161
69685W        W70549   8.440  21.395  25.042  0.3394 -0.1642  0.0129
69686W        W70550   9.839  21.514  20.807 -0.3067  0.1478  0.0330
69687W        W70551   9.653  20.715  19.029 -0.0955 -0.1371 -0.1128
69688W        W70552   7.780  22.392  20.903 -0.0429  0.1370 -0.0734
69689W        W70553   9.189  19.070  19.279 -0.2210  0.3294  0.3439
69690W        W70554   7.990  20.722  18.318 -0.0698  0.0549  0.0752
69691W        W70555   8.845  19.503  19.163 -0.2306  0.0895  0.0284
69692W        W70556   9.492  19.792  22.651 -0.0947 -0.2900 -0.0131
69693W        W70557  10.762  17.339  23.246  0.0335  0.2263  0.1403
69694W        W70558  10.813  16.623  19.533 -0.1220 -0.0813 -0.1400
69695W        W70559  10.369  16.245  20.445  0.2041 -0.0075  0.1317
69696W        W70560  10.596  23.041  23.140 -0.1777  0.1246 -0.1012
69697W        W70561  10.040  20.333  18.247  0.0856  0.3023 -0.3266
69698W        W70562  10.014  21.754  24.007 -0.0967  0.2775  0.0301
69699W        W70563   5.704  25.363  17.960 -0.0662  0.1707 -0.2645
69700W        W70564   9.127  19.414  21.792 -0.0110 -0.2394 -0.0049
69701W        W70565   8.140  17.631  21.038 -0.3851 -0.1571 -0.1718
69702W        W70566   8.539  18.004  20.290  0.2078  0.0314  0.0669
69703W        W70567   5.978  21.502  15.508  0.2158 -0.0586  0.0851
69704W        W70568   9.202  19.071  20.830 -0.2431  0.1136  0.1251
69705W        W70569   8.877  18.949  21.642 -0.0082  0.1188 -0.2767
69706W        W70570  10.104  20.312  20.198  0.2005 -0.0397  0.0519
69707W        W70571   7.293  20.282  20.434 -0.1520 -0.3944 -0.3011
69708W        W70572   7.896  21.318  20.983 -0.2753  0.1457 -0.1284
69709W        W70573   7.669  20.079  18.970  0.0475  0.0731 -0.1002
69710W        W70574   7.395  21.072  21.652 -0.0827 -0.0028  0.1026
69711W        W70575   9.301  19.633  20.927 -0.1165  0.2134 -0.0621
69712W        W70576   4.849  18.504  18.816 -0.2405  0.0111 -0.0188
69713W        W70577   8.054  18.766  21.865  0.1362  0.2017 -0.3649
69714W        W70578   8.363  19.592  18.295 -0.0553  0.1486 -0.2165
69715W        W70579   9.095  22.499  22.018  0.1032  0.0750 -0.1563
69716W        W70580  10.161  20.643  19.209 -0.0923  0.0681  0.4612
69717W        W70581  11.416  20.245  17.616  0.0233 -0.0930 -0.3879
69718W        W70582   9.249  18.585  20.744  0.2030 -0.0970 -0.0315
69719W        W70583   9.344  21.566  19.072  0.0938 -0.0920 -0.3989
69720W        W70584   8.824  16.878  21.509 -0.0630  0.0218 -0.0192
69721W        W70585   6.373  20.606  22.332 -0.0128  0.0693  0.2519
69722W        W70586   8.350  18.995  20.600  0.0968  0.4705  0.2525
69723W        W70587   9.997  21.079  20.819  0.1527 -0.0893  0.1284
69724W        W70588   8.216  17.975  20.696  0.0771  0.2270  0.1764
69725W        W70589   8.536  20.770  21.014 -0.1414  0.0243  0.3054
69726W        W70590   8.540  21.272  19.862  0.0828  0.2535 -0.3363
69727W        W70591   9.402  20.819  19.874  0.2216 -0.1179  0.0319
69728W        W70592  12.045  23.186  22.355 -0.0714 -0.2868  0.0265
69729W        W70593   6.743  20.126  20.394  0.0314 -0.0262  0.1117
69730W        W70594  10.750  21.711  19.205  0.2541  0.0875 -0.1009
69731W        W70595   8.842  20.410  18.736 -0.0376  0.0495  0.2623
69732W        W70596   9.418  18.791  19.622 -0.2738 -0.2063  0.2879
69733W        W70597   8.960  19.730  20.602 -0.2087  0.0699  0.0319
69734W        W70598  12.996  21.786  22.748 -0.1694  0.0349  0.1016
69735W        W70599   8.198  18.892  19.456 -0.0191 -0.0574 -0.1427
69736W        W70600  11.196  20.480  21.718 -0.0099  0.0467 -0.1257
69737W        W70601   5.790  20.192  17.511  0.3012 -0.0143  0.1470
69738W        W70602   9.538  17.216  21.133 -0.0216 -0.0569 -0.0275
69739W        W70603   7.598  18.441  21.168 -0.2573 -0.0714  0.2281
69740W        W70604   9.614  19.372  20.584 -0.0266  0.0594  0.1178
69741W        W70605   9.076  20.374  24.206 -0.0979 -0.1194 -0.0297
69742W        W70606   6.396  20.774  23.732 -0.1204 -0.1516 -0.0232
69743W        W70607   8.265  19.142  22.247 -0.0970  0.1418  0.2166
69744W        W70608   8.047  17.150  21.048  0.1104 -0.2260 -0.1903
69745W        W70609   8.213  19.534  23.610 -0.0892  0.3768  0.0399
69746W        W70610   8.761  20.069  20.136  0.3360 -0.3087  0.2044
69747W        W70611   9.100  22.177  23.282 -0.2278 -0.2883  0.2116
69748W        W70612  11.818  18.215  22.310  0.0341  0.0299  0.1172
69749W        W70613   8.454  21.077  20.314 -0.1460 -0.1698 -0.0299
69750W        W70614   8.987  22.197  20.148 -0.0383  0.0628 -0.1429
69751W        W70615   7.876  22.447  18.733 -0.0190  0.1088 -0.0307
69752W        W70616  11.503  21.838  18.596  0.1722  0.0577 -0.0360
69753W        W70617   7.576  17.040  22.170 -0.0480 -0.0310 -0.1780
69754W        W70618   6.379  22.872  20.262  0.0201 -0.2719 -0.1222
69755W        W70619  11.496  19.258  22.518  0.0841  0.0474  0.3156
69756W        W70620   8.014  22.691  21.149  0.1634 -0.2860 -0.2456
69757W        W70621   7.125  22.153  22.062  0.0302 -0.1339 -0.1458
69758W        W70622  10.908  18.724  21.940  0.1621 -0.1565 -0.2894
69759W        W70623  10.161  21.466  16.853 -0.0656 -0.0390  0.0818
69760W        W70624   7.954  18.334  22.833  0.0160 -0.2707  0.1076
69761W        W70625   9.196  18.976  22.125 -0.0704 -0.2769 -0.0349
69762W        W70626   7.979  17.320  19.884 -0.0048 -0.1549  0.1587
69763W        W70627   7.382  23.189  25.755 -0.0775  0.2207 -0.2634
69764W        W70628   9.694  21.624  24.962  0.0067 -0.0649 -0.0867
69765W        W70629  10.769  19.589  22.166  0.1371 -0.2675 -0.0449
69766W        W70630  11.446  23.494  26.665  0.2667 -0.3433  0.0108
69767W        W70631   7.354  19.681  22.077 -0.0250 -0.1413 -0.0110
69768W        W70632   7.257  21.229  25.391  0.2386  0.2148 -0.0643
69769W        W70633   7.016  17.386  25.161 -0.3674 -0.0460  0.0773
69770W        W70634   7.630  19.141  23.217  0.0212 -0.0843 -0.0586
69771W        W70635   8.963  22.493  26.780 -0.1008 -0.1052  0.1504
69772W        W70636   8.568  17.372  25.398 -0.1657 -0.0209 -0.1671
69773W        W70637  10.617  17.032  25.024 -0.0446  0.0397  0.0264
69774W        W70638   9.040  20.264  25.887  0.1293  0.3960  0.0165
69775W        W70639   6.865  19.041  22.254  0.1052  0.0230  0.1190
69776W        W70640  11.596  17.454  28.288  0.1633 -0.0193  0.2587
69777W        W70641   7.084  20.071  26.670  0.1880 -0.1899  0.0659
69778W        W70642   6.295  22.076  27.623  0.1227  0.1239 -0.3075
69779W        W70643  10.721  24.797  24.765  0.1198  0.1936 -0.0502
69780W        W70644   5.455  18.231  25.065 -0.0968 -0.1433 -0.1446
69781W        W70645   8.349  20.411  28.608  0.1531  0.3455 -0.0496
69782W        W70646  10.610  20.663  23.049  0.1220  0.1620  0.0974
69783W        W70647   8.062  19.941  26.975 -0.2190  0.1112 -0.2531
69784W        W70648   8.687  22.525  24.513  0.0342  0.1844  0.0141
69785W        W70649  11.217  23.074  25.807  0.1188  0.2826 -0.0814
69786W        W70650   8.375  24.810  23.491  0.2132  0.0114 -0.2571
69787W        W70651   9.681  18.285  23.746 -0.1269 -0.2575  0.2056
69788W        W70652   8.494  23.195  27.441 -0.2034  0.1367  0.3007
69789W        W70653  10.460  21.763  22.260 -0.0425  0.0236 -0.2280
69790W        W70654   7.475  22.895  23.981 -0.4133  0.1859 -0.1450
69791W        W70655  10.608  22.410  26.321 -0.2723  0.2803 -0.1004
69792W        W70656   9.554  20.636  24.172 -0.0539  0.0159  0.0440
69793W        W70657   7.021  18.799  25.083 -0.2659  0.0405  0.2033
69794W        W70658   7.906  22.330  25.807 -0.2094  0.0119 -0.2284
69795W        W70659   9.426  19.273  25.072 -0.2304  0.0136  0.2057
69796W        W70660   8.750  19.574  27.415 -0.0275 -0.0955 -0.6069
69797W        W70661   8.211  18.494  27.027  0.0763  0.2617  0.0983
69798W        W70662  10.952  21.525  24.411  0.2499 -0.1639  0.0892
69799W        W70663   7.433  20.737  23.538  0.0208 -0.0342 -0.1538
69800W        W70664   9.638  20.199  25.661 -0.1702  0.0483  0.3394
69801W        W70665  12.352  19.221  21.928  0.2201  0.1648  0.1266
69802W        W70666   9.703  18.869  22.320 -0.0426  0.0898  0.1760
69803W        W70667   9.088  20.224  23.316  0.0262 -0.0318  0.0852
69804W        W70668  14.090  20.155  24.440 -0.1205  0.1605 -0.2905
69805W        W70669  10.987  21.510  26.700 -0.2827  0.2462  0.1450
69806W        W70670  10.868  22.090  23.128  0.0476  0.0666 -0.1531
69807W        W70671   6.339  21.390  23.162  0.3118  0.0062  0.0184
69808W        W70672   9.295  22.849  22.959  0.0959  0.0070  0.2555
69809W        W70673   6.703  17.660  24.245 -0.1007  0.0296 -0.1956
69810W        W70674  10.079  19.939  24.992 -0.3241  0.2568  0.0166
69811W        W70675   8.765  19.761  21.675  0.0159 -0.1179  0.0855
69812W        W70676  11.022  22.226  25.149 -0.2633 -0.1061 -0.0328
69813W        W70677   9.877  20.659  25.823  0.0442 -0.3033 -0.2637
69814W        W70678   8.403  20.149  25.077  0.1753  0.0571 -0.1229
69815W        W70679   9.396  22.527  26.979  0.1974  0.1716 -0.2147
69816W        W70680  10.424  21.483  23.193 -0.1179  0.0075 -0.0632
69817W        W70681   8.237  20.665  24.041 -0.1459 -0.2602  0.1308
69818W        W70682   9.623  22.182  24.939 -0.3759 -0.1219 -0.3991
69819W        W70683   7.545  18.454  22.571  0.1085  0.0962 -0.2696
69820W        W70684   8.537  21.011  26.037 -0.0964  0.0079 -0.0093
69821W        W70685   7.081  21.485  24.997 -0.4614  0.4151  0.4666
69822W        W70686   8.868  22.531  22.912  0.0407  0.0210  0.1847
69823W        W70687  10.136  23.135  21.211 -0.1969 -0.0413 -0.3000
69824W        W70688   8.151  22.821  25.753  0.0114 -0.1212  0.0412
69825W        W70689   6.812  19.868  24.778  0.0671  0.2153 -0.2638
69826W        W70690   8.701  19.848  22.979  0.1214 -0.2281  0.0678
69827W        W70691   8.302  21.989  25.085  0.0975  0.0744  0.1669
69828W        W70692  10.383  19.063  25.393  0.4906 -0.2405  0.3794
69829W        W70693   8.016  22.299  24.024 -0.1647 -0.0801 -0.1899
69830W        W70694   8.942  19.371  21.286 -0.0653 -0.1223 -0.0898
69831W        W70695   9.282  23.667  25.421  0.2895 -0.1361  0.5154
69832W        W70696   7.850  23.409  23.976  0.0552  0.0257  0.1954
69833W        W70697   8.118  21.746  26.699 -0.0109 -0.0109  0.1882
69834W        W70698   9.103  22.022  21.835 -0.2385 -0.0521 -0.1314
69835W        W70699  13.177  20.310  24.885  0.1217  0.2826 -0.0447
69836W        W70700  10.553  22.403  25.195  0.0956  0.0603  0.3455
69837W        W70701  10.060  21.393  23.630 -0.0145 -0.2785 -0.1223
69838W        W70702   8.196  21.140  25.720  0.1382  0.1800 -0.3503
69839W        W70703   6.297  19.625  26.173  0.0016 -0.1273 -0.2237
69840W        W70704   6.547  20.121  25.304  0.2678  0.1316  0.0753
69841W        W70705  10.429  21.646  24.355  0.0916 -0.0436  0.0089
69842W        W70706   8.324  22.275  25.517  0.2867 -0.3007 -0.1054
69843W        W70707   5.515  19.062  24.199 -0.1446  0.0849  0.0878
69844W        W70708   8.270  19.725  28.092 -0.1834  0.1587  0.0113
69845W        W70709   5.955  17.884  24.316  0.1006 -0.0186 -0.4831
69846W        W70710  12.896  18.677  24.418  0.1103  0.3134  0.0018
69847W        W70711  10.085  20.791  24.339  0.0295 -0.3971 -0.1881
69848W        W70712   9.613  19.305  24.022 -0.1925  0.0304 -0.1556
69849W        W70713  11.547  20.539  27.931  0.1268 -0.2420  0.1123
69850W        W70714  10.323  15.860  25.199 -0.0306 -0.4281  0.1167
69851W        W70715   9.875  21.231  22.687  0.0741  0.0774 -0.4595
69852W        W70716   9.218  19.539  27.581 -0.1002 -0.1182  0.3087
69853W        W70717  11.158  18.848  22.390 -0.1470 -0.2349 -0.0008
69854W        W70718   9.509  18.886  25.385 -0.0308 -0.1105 -0.1158
69855W        W70719   9.415  23.660  23.456 -0.0413  0.2515  0.2657
69856W        W70720   9.539  20.301  26.201 -0.1983 -0.0006 -0.0336
69857W        W70721   7.471  20.054  27.895  0.0355 -0.0975 -0.0254
69858W        W70722  10.641  15.957  23.039 -0.1643  0.3552 -0.0583
69859W        W70723   8.063  20.945  20.627  0.0029  0.3081 -0.1689
69860W        W70724   7.935  21.888  27.118  0.1054 -0.0512 -0.1079
69861W        W70725   7.593  19.821  26.050  0.1189 -0.2068 -0.1495
69862W        W70726  11.766  20.371  25.137  0.0756  0.0279 -0.0982
69863W        W70727   9.738  19.965  20.213  0.1451  0.0495  0.0056
69864W        W70728   9.593  24.056  24.568  0.1630  0.1121 -0.0439
69865W        W70729   9.175  18.052  24.587  0.0437  0.1681 -0.0944
69866W        W70730  11.168  23.088  24.854 -0.3014  0.0758  0.1096
69867W        W70731   9.567  20.226  25.169 -0.1676 -0.1144 -0.0971
69868W        W70732   7.617  19.945  27.392 -0.0875  0.0460  0.0085
69869W        W70733   8.871  20.177  22.018  0.0489 -0.2051  0.2367
69870W        W70734  12.740  18.566  23.544 -0.0425  0.1684 -0.2539
69871W        W70735   7.894  20.882  23.736  0.4234  0.0887 -0.1173
69872W        W70736   9.248  19.596  28.133 -0.0898  0.0782 -0.1642
69873W        W70737   9.944  19.853  24.518  0.2615  0.2572  0.0388
69874W        W70738  11.249  22.809  25.342  0.0208  0.0545  0.0378
69875W        W70739  12.959  17.610  25.455  0.2393  0.0169  0.3527
69876W        W70740   9.383  21.456  25.284 -0.0826  0.2258  0.1539
69877W        W70741   9.476  19.359  23.457  0.2117  0.5913 -0.1281
69878W        W70742   7.431  20.339  26.316 -0.0003 -0.0797 -0.1121
69879W        W70743  14.408  17.451  24.477  0.1192 -0.0666 -0.0982
69880W        W70744   7.258  20.190  27.146  0.0870  0.0755  0.0985
69881W        W70745   7.883  18.361  24.013  0.1864  0.2294 -0.0720
69882W        W70746   7.369  21.193  24.278 -0.1298  0.0520  0.2325
69883W        W70747  13.665  17.805  20.197  0.0319 -0.1381  0.0326
69884W        W70748   8.735  22.936  24.193  0.0951  0.1993 -0.2971
69885W        W70749   9.248  18.679  23.474  0.1569  0.2577  0.0454
69886W        W70750   9.007  17.106  22.754  0.1096 -0.0899  0.1085
69887W        W70751  10.954  20.655  24.002  0.3503 -0.1981  0.1116
69888W        W70752  10.454  21.088  23.528 -0.3147 -0.2105  0.0290
69889W        W70753   7.249  20.642  25.455  0.3110 -0.0556  0.0740
69890W        W70754  10.998  21.887  25.574  0.0884  0.1079  0.1708
69891W        W70755  12.824  21.727  23.923 -0.2354 -0.0967 -0.3036
69892W        W70756  10.413  21.831  21.409  0.2238  0.0949 -0.0956
69893W        W70757   9.440  21.725  25.858  0.0124 -0.3326 -0.1277
69894W        W70758   8.806  22.140  23.720  0.0650 -0.1777 -0.0302
69895W        W70759  10.006  22.020  22.213 -0.1743  0.3223 -0.0685
69896W        W70760  10.606  18.443  23.614 -0.0327  0.0132  0.0979
69897W        W70761   9.793  20.973  23.783 -0.1725 -0.1197  0.1252
69898W        W70762   5.957  18.399  24.958  0.1936 -0.0647  0.1061
69899W        W70763  10.554  19.378  24.182  0.0824  0.2695  0.0834
69900W        W70764  10.597  20.013  26.977 -0.1279 -0.0297 -0.3943
69901W        W70765   9.249  21.531  24.227 -0.0622 -0.0195  0.2099
69902W        W70766   9.003  18.462  22.841  0.0136  0.1078  0.3524
69903W        W70767   7.465  18.697  22.012 -0.1065  0.1121  0.1973
69904W        W70768  11.397  20.239  24.155  0.2568  0.3333  0.1767
69905W        W70769   8.514  22.842  23.620 -0.0659 -0.0674  0.0561
69906W        W70770   6.667  20.188  21.505 -0.1643 -0.1012 -0.2930
69907W        W70771   9.688  18.783  23.723  0.0165 -0.1409 -0.1907
69908W        W70772   7.985  23.229  23.532  0.1571  0.1548 -0.2220
69909W        W70773  12.219  20.755  22.807  0.2108 -0.0713 -0.3149
69910W        W70774  10.961  19.814  25.622  0.0126 -0.0823 -0.0022
69911W        W70775   8.049  20.851  27.352  0.0828 -0.1088 -0.0012
69912W        W70776   6.748  21.773  24.609 -0.1165 -0.3418 -0.1985
69913W        W70777  11.974  24.217  27.867  0.1471  0.0951  0.0155
69914W        W70778   9.072  19.110  24.733 -0.0511 -0.0837  0.0617
69915W        W70779   9.671  21.918  25.364  0.2964  0.0648 -0.0673
69916W        W70780   7.067  21.472  23.859  0.0577 -0.1359 -0.1642
69917W        W70781   9.321  21.062  23.961  0.2810 -0.0078  0.0439
69918W        W70782  14.640  16.558  21.622  0.0188 -0.0030 -0.0434
69919W        W70783   7.275  18.416  23.688 -0.0349 -0.2121 -0.0803
69920W        W70784   7.796  20.084  23.031  0.4907  0.0778 -0.1355
69921W        W70785   6.137  19.584  23.861  0.3120  0.1697  0.4724
69922W        W70786   7.810  21.979  25.395 -0.2747 -0.1946 -0.2578
69923W        W70787  11.168  18.831  25.672  0.4368 -0.0096  0.2329
69924W        W70788   8.752  20.579  26.381  0.1452 -0.0279 -0.0382
69925W        W70789  10.740  20.537  26.750  0.0006  0.0168  0.1203
69926W        W70790   6.985  20.971  23.943 -0.2141 -0.0150  0.1813
69927W        W70791   9.760  18.160   0.618  0.2228  0.0669  0.2746
69928W        W70792  11.177  20.097  25.084 -0.0251  0.2180 -0.0178
69929W        W70793   9.466  17.641  25.235 -0.3049  0.0986  0.0311
69930W        W70794   9.417  22.367  23.669  0.2802  0.0204 -0.0960
69931W        W70795   7.523  20.921  28.291  0.0093 -0.2130  0.3744
69932W        W70796   8.143  21.859  25.862  0.2893 -0.1054 -0.1664
69933W        W70797   8.667  19.589  24.584  0.3130 -0.0930 -0.0018
69934W        W70798   8.704  19.460  23.340 -0.1612  0.3276 -0.0749
69935W        W70799   8.611  21.838  25.443 -0.1263  0.1783 -0.4477
69936W        W70800   7.082  20.110  21.970  0.0566 -0.0665  0.0311
69937W        W70801  12.321  19.573  24.682  0.1039 -0.0838  0.1999
69938W        W70802  11.201  19.176  22.003 -0.0345 -0.1878 -0.0187
69939W        W70803   8.375  20.521  25.859  0.0331  0.3468 -0.0654
69940W        W70804  10.905  21.253  23.979 -0.0067 -0.0163 -0.2531
69941W        W70805   6.843  23.229  22.222 -0.1502 -0.2146 -0.0659
69942W        W70806   8.490  19.607  26.123 -0.2884  0.1772 -0.0539
69943W        W70807   9.922  22.274  23.375 -0.0090  0.0653  0.0909
69944W        W70808  10.060  21.047  23.280 -0.0262  0.2451  0.4212
69945W        W70809   7.672  21.393  25.243 -0.4667 -0.0319  0.2000
69946W        W70810   9.907  21.082  21.789  0.0477  0.1595  0.1432
69947W        W70811   7.735  19.378  22.374 -0.0834  0.1923  0.0558
69948W        W70812   7.982  20.839  26.084 -0.1632 -0.1110 -0.4356
69949W        W70813   7.311  18.181  24.774  0.1907 -0.5243 -0.1589
69950W        W70814   6.417  19.823  22.907  0.4518 -0.4904 -0.1231
69951W        W70815   7.888  22.440  25.228 -0.0863  0.3873  0.1786
69952W        W70816  11.577  22.542  25.828  0.4295 -0.4369  0.0948
69953W        W70817   8.505  20.160  23.391  0.0771  0.1108 -0.1608
69954W        W70818   9.528  20.808  23.303 -0.0705  0.0584  0.0331
69955W        W70819   9.432  18.843  27.085 -0.0943  0.0539  0.1965
69956W        W70820   8.623  19.719  25.640  0.0047  0.2699 -0.1560
69957W        W70821  11.636  19.077  25.749  0.0742 -0.1941 -0.0411
69958W        W70822   9.861  22.513  22.518  0.0946 -0.1083 -0.0590
69959W        W70823   7.910  20.732  24.444  0.1136  0.2091  0.0478
69960W        W70824   4.611  18.069  23.807 -0.2349 -0.2175 -0.0280
69961W        W70825   9.213  20.617  23.730 -0.2537 -0.0240 -0.2143
69962W        W70826  12.315  14.548  24.197  0.0918  0.1061 -0.1441
69963W        W70827   8.246  20.436  23.028 -0.0354  0.1505 -0.2476
69964W        W70828  10.986  19.575  24.532 -0.0261 -0.3283 -0.2601
69965W        W70829  10.874  18.387  21.278  0.1235  0.3566  0.0129
69966W        W70830   7.105  20.189  24.291 -0.0389 -0.1022  0.0978
69967W        W70831   9.956  20.440  24.951  0.0917  0.0041 -0.2755
69968W        W70832   6.193  19.575  20.648  0.0075  0.1589  0.3978
69969W        W70833   8.149  21.719  28.646  0.1311 -0.0708 -0.0024
69970W        W70834   9.830  21.951  22.767  0.2049  0.4014 -0.0276
69971W        W70835  10.725  21.792  23.438 -0.1242  0.3017  0.1687
69972W        W70836   7.831  20.419  23.879 -0.1276  0.0808 -0.0208
69973W        W70837   8.267  19.338  27.784  0.1365  0.1006 -0.1945
69974W        W70838   9.146  19.641  24.791 -0.0576  0.0556  0.0909
69975W        W70839   6.688  22.793  25.634  0.2417  0.1479 -0.1175
69976W        W70840  10.988  17.046  26.720 -0.0944 -0.0086  0.2057
69977W        W70841  11.698  20.765  22.909  0.0982  0.1183  0.0620
69978W        W70842  10.359  20.174  24.624  0.1635 -0.0206 -0.1976
69979W        W70843   8.051  20.407  21.730  0.1381 -0.2321 -0.0410
69980W        W70844  11.137  23.117  22.222 -0.1440  0.4743 -0.2063
69981W        W70845  10.947  18.959  26.600 -0.0919  0.1774  0.0225
69982W        W70846   8.815  21.060  27.302  0.0130 -0.0358 -0.1073
69983W        W70847  12.180  19.086  26.537  0.2376  0.1093  0.0423
69984W        W70848   8.791  20.561  25.090 -0.1623 -0.2379 -0.0861
69985W        W70849   9.045  20.969  25.953 -0.1342 -0.3762 -0.2281
69986W        W70850   8.372  18.692  23.823 -0.0099  0.0243 -0.0711
69987W        W70851   7.966  17.528  22.431  0.1996  0.0583 -0.1398
69988W        W70852   9.850  20.816  26.954 -0.1546 -0.0529  0.2461
69989W        W70853   5.837  22.292  27.218 -0.1170  0.1808  0.1262
69990W        W70854  11.454  19.733  22.836  0.0182 -0.0354  0.0994
69991W        W70855  10.280  24.009  23.237  0.1509 -0.0007  0.2033
69992W        W70856   9.580  19.795  24.926  0.1383 -0.2420 -0.2587
69993W        W70857  10.787  21.933  26.139  0.0534 -0.2034 -0.2814
69994W        W70858   6.446  18.689  24.191 -0.1912  0.0136  0.0296
69995W        W70859  10.478  21.549  23.831 -0.0872 -0.0531 -0.3459
69996W        W70860  11.397  19.928  23.627 -0.0350  0.2854  0.1008
69997W        W70861   5.386  19.444  26.403  0.0900 -0.2121  0.1818
69998W        W70862   8.917  21.344  22.619 -0.2285  0.0306 -0.4147
69999W        W70863  11.469  21.585  24.784 -0.1620  0.2190  0.1262
70000W        W70864   6.863  19.635  25.274 -0.2388 -0.0915 -0.1379
70001W        W70865  11.402  19.428  23.810 -0.0514  0.1158  0.0381
70002W        W70866  12.119  19.735  26.100  0.1395 -0.2149 -0.0518
70003W        W70867   8.902  22.321  22.465  0.1983 -0.0475  0.4270
70004W        W70868   6.528  21.190  24.016  0.0598  0.0265  0.2053
70005W        W70869   8.369  20.581  25.320  0.0988  0.2110  0.0707
70006W        W70870   9.215  20.673  26.266  0.2208  0.2495 -0.2244
70007W        W70871   8.643  18.710  23.152  0.2783 -0.0141  0.0474
70008W        W70872  11.512  20.923  25.739 -0.0658  0.0389 -0.0792
70009W        W70873   9.215  21.878  23.704 -0.0955  0.0530 -0.0047
70010W        W70874   9.632  23.508  24.527 -0.3727 -0.1006 -0.2275
70011W        W70875  11.126  23.108  23.187 -0.0713 -0.0643  0.0235
70012W        W70876  10.514  22.090  23.834 -0.0430  0.2648  0.1485
70013W        W70877   8.574  21.110  25.440 -0.1496  0.3338  0.1129
70014W        W70878   9.966  21.588  23.101 -0.2247  0.3254 -0.4063
70015W        W70879  11.958  22.308  28.350  0.1041 -0.0844 -0.0124
70016W        W70880  12.120  20.947  25.611 -0.0999  0.1252  0.1025
70017W        W70881   8.572  20.585  20.036 -0.4806 -0.0210 -0.0671
70018W        W70882  11.823  22.093  23.096 -0.0772  0.0682  0.1635
70019W        W70883  13.139  19.041  22.166 -0.0959 -0.0909 -0.0558
70020W        W70884   6.088  18.775  21.529 -0.1147 -0.0802 -0.2421
70021W        W70885  10.283  22.824  22.651  0.0464 -0.1601 -0.1760
70022W        W70886   9.699  18.900  23.193 -0.1457 -0.3339 -0.1802
70023W        W70887   9.679  20.279  27.146 -0.0711  0.4935  0.1769
70024W        W70888  10.109  21.245  24.146 -0.0130  0.0162  0.2096
70025W        W70889  10.024  19.342  27.684 -0.2288 -0.2641 -0.0034
70026W        W70890   9.166  20.478  25.416  0.0409 -0.0367  0.0279
70027W        W70891   8.386  24.677  24.038  0.0252  0.0817 -0.0228
70028W        W70892   9.543  20.000  26.709  0.1217  0.1980 -0.0218
70029W        W70893   7.670  22.048  22.213  0.0802  0.0077  0.0537
70030W        W70894  10.293  21.140  22.309 -0.2793  0.0497 -0.0824
70031W        W70895   8.759  19.817  23.709 -0.1384 -0.2052  0.1333
70032W        W70896  15.108  17.380  19.434  0.2943  0.1197  0.0139
70033W        W70897   6.840  23.155  23.296 -0.0655  0.4815  0.1689
70034W        W70898  12.320  19.679  25.146 -0.0656  0.0099  0.4209
70035W        W70899  10.366  21.093  22.811 -0.0949  0.2536 -0.1656
70036W        W70900   6.984  19.817  23.878 -0.1611  0.1139 -0.0930
70037W        W70901   9.738  23.649  26.020 -0.1495 -0.0597  0.1745
70038W        W70902   9.974  19.459  24.849  0.0462 -0.3735  0.0764
70039W        W70903   5.131  18.144  26.420  0.0886 -0.2754 -0.1400
70040W        W70904   5.750  20.217  25.543  0.2325 -0.2644  0.1066
70041W        W70905   6.184  20.003  21.005 -0.1088 -0.1125  0.1804
70042W        W70906   6.999  20.958  26.791  0.2110  0.1858 -0.3299
70043W        W70907  10.744  20.260  23.441 -0.1825 -0.1797 -0.0841
70044W        W70908   8.763  19.330  23.918  0.0012 -0.2239 -0.0454
70045W        W70909   8.730  20.629  24.551  0.0583  0.1489  0.3386
70046W        W70910   7.497  22.974  24.468 -0.1052  0.1607  0.0830
70047W        W70911  12.376  19.948  22.290  0.2518 -0.2936  0.0886
70048W        W70912  13.214  18.890  24.799  0.0119 -0.1367  0.2546
70049W        W70913   9.367  21.868  24.567  0.0801 -0.0187 -0.0441
70050W        W70914   3.362  20.147  24.158  0.3945 -0.3427 -0.2197
70051W        W70915   9.921  20.517  23.116 -0.0722 -0.0242  0.2561
70052W        W70916  10.847  20.724  23.550 -0.3625 -0.2741  0.0174
70053W        W70917  11.607  18.517  24.159 -0.1680  0.2575  0.2065
70054W        W70918   6.510  19.687  24.246 -0.2459  0.2117 -0.2105
70055W        W70919  12.789  20.470  23.644  0.2177 -0.1701 -0.2556
70056W        W70920   8.770  18.434  21.560  0.1336  0.1475 -0.3545
70057W        W70921   7.535  20.942  25.120  0.1342  0.0522  0.1331
70058W        W70922   8.252  17.858  22.804  0.0021  0.0592  0.0827
70059W        W70923   6.586  20.149  27.365  0.2407 -0.1071  0.0818
70060W        W70924  11.504  17.801  24.989 -0.1906  0.3200 -0.2392
70061W        W70925  13.507  18.980  24.434  0.2009  0.0892  0.0794
70062W        W70926   6.746  22.616  24.028 -0.0744 -0.0303  0.0250
70063W        W70927   7.827  24.068  23.903 -0.1892  0.3407  0.2561
70064W        W70928   7.702  21.422  27.132 -0.3514  0.1690 -0.2177
70065W        W70929   6.839  20.522  26.483  0.0038 -0.2706 -0.0100
70066W        W70930   9.939  19.257  23.485  0.2172  0.0242  0.0088
70067W        W70931   7.492  21.690  23.968  0.1164  0.2069  0.2450
70068W        W70932   9.438  24.126  25.227 -0.0147 -0.2713 -0.0810
70069W        W70933   7.316  19.064  27.154 -0.0721 -0.0325  0.3003
70070W        W70934   9.694  11.668  22.859 -0.0609  0.1830  0.0622
70071W        W70935  10.436  18.960  21.652 -0.0744 -0.3372  0.3760
70072W        W70936   8.799  23.135  23.254 -0.1932  0.1327  0.4960
70073W        W70937   9.139  23.440  21.886  0.0869  0.4854  0.0468
70074W        W70938   7.177  22.164  27.667  0.1180  0.2196  0.3733
70075W        W70939   9.053  21.160  23.528 -0.0195  0.1694  0.0287
70076W        W70940   9.434  22.173  24.168 -0.1685  0.2817  0.0005
70077W        W70941   7.037  20.475  25.999 -0.2047  0.1011 -0.2132
70078W        W70942   8.943  20.992  24.895  0.0134 -0.1351  0.3137
70079W        W70943   7.448  22.599  21.940  0.0530  0.2860  0.1961
70080W        W70944   8.235  19.144  21.144  0.1002 -0.1466 -0.1597
70081W        W70945   7.907  23.012  26.154 -0.2009  0.0574  0.0100
70082W        W70946   7.974  18.509  25.416  0.3929  0.2485  0.1006
70083W        W70947   7.509  21.501  21.340  0.0368  0.1299 -0.0344
70084W        W70948   8.863  16.587  21.038  0.0737 -0.0678 -0.1357
70085W        W70949   8.241  18.945  28.382  0.1505 -0.0465 -0.0167
70086W        W70950   9.718  21.840  23.549 -0.2434  0.0794  0.2645
70087W        W70951   8.330  20.774  21.547 -0.2454 -0.0783  0.0634
70088W        W70952   8.621  22.842  25.668  0.0517  0.1294  0.0130
70089W        W70953   8.206  21.527  23.278  0.0813  0.0049  0.1826
70090W        W70954   6.316  21.363  22.290 -0.1368  0.0127  0.1764
70091W        W70955   5.551  21.075  21.769  0.1548  0.0569 -0.1009
70092W        W70956   9.149  19.318  24.260 -0.0365 -0.0298 -0.0106
70093W        W70957   8.654  18.430  26.842 -0.2377  0.0211 -0.2162
70094W        W70958  10.177  18.228  23.384  0.0465 -0.0801  0.1392
70095W        W70959  11.247  22.303  24.084 -0.2659  0.0358 -0.0292
70096W        W70960   8.802  20.165  27.382 -0.1915 -0.1193  0.2769
70097W        W70961  11.410  21.983  22.234 -0.2239  0.1705  0.0797
70098W        W70962  10.128  21.929  24.737 -0.0147  0.2490  0.0103
70099W        W70963   8.567  23.350  26.819 -0.2629 -0.1881  0.0058
70100W        W70964  10.787  20.889  22.455 -0.0404  0.1331 -0.2058
70101W        W70965   7.850  21.401  22.883 -0.0064 -0.0367  0.1937
70102W        W70966   6.677  20.880  28.019  0.0937 -0.4157 -0.3502
70103W        W70967   7.096  22.499  23.677  0.1655 -0.0277  0.0574
70104W        W70968   8.520  21.359  26.572  0.1403 -0.1394 -0.3195
70105W        W70969   7.627  21.040  25.616 -0.1998 -0.0068 -0.0911
70106W        W70970   9.116  20.997  25.340 -0.0592  0.1898 -0.2955
70107W        W70971   7.850  20.722  23.162  0.1667 -0.2379  0.1178
70108W        W70972   6.930  21.639  23.398  0.2852 -0.0582  0.0915
70109W        W70973   4.304  22.467  22.759 -0.1712  0.0912 -0.0720
70110W        W70974   9.583  21.351  23.427 -0.1352  0.0841 -0.2590
70111W        W70975  10.496  23.929  24.210 -0.2777 -0.0975  0.0979
70112W        W70976   9.456  17.271  22.906 -0.1510 -0.0593  0.0936
70113W        W70977  10.692  21.120  26.969 -0.0817  0.0352 -0.0967
70114W        W70978   7.773  18.121  23.581 -0.2087  0.2222  0.2963
70115W        W70979  10.947  21.764  23.854 -0.0795 -0.0164 -0.0434
70116W        W70980   9.876  22.973  25.710  0.2914  0.1128  0.1662
70117W        W70981   7.189  23.627  22.594  0.3166  0.0174 -0.1153
70118W        W70982   8.735  18.396  23.614  0.3888 -0.2223 -0.3114
70119W        W70983   5.710  24.839  23.017  0.1482 -0.0431 -0.0396
70120W        W70984  10.283  18.540  24.942  0.0926 -0.0410 -0.0074
70121W        W70985   9.126  19.645  26.933  0.2267  0.3468  0.0919
70122W        W70986   8.203  23.099  21.323 -0.2705 -0.2188 -0.2879
70123W        W70987   8.418  18.866  21.553  0.0742 -0.2256 -0.0420
70124W        W70988  11.281  17.408  24.791  0.0028  0.2114 -0.1119
70125W        W70989   7.413  20.215  25.661  0.0789 -0.1511  0.1000
70126W        W70990  11.504  22.163  24.796  0.0053 -0.0770 -0.1386
70127W        W70991   7.693  21.583  24.447  0.0962 -0.0751  0.0681
70128W        W70992   9.265  21.356  26.205  0.0908  0.0383  0.1171
70129W        W70993   9.597  19.325  26.803 -0.1829 -0.3270  0.2699
70130W        W70994  12.525  20.919  26.086 -0.2810 -0.0009  0.2386
70131W        W70995   6.812  18.353  23.841 -0.1430 -0.1147 -0.2631
70132W        W70996  10.161  17.858  23.768  0.0314  0.1174  0.1264
70133W        W70997   9.372  19.134  22.610  0.2204  0.0515  0.1202
70134W        W70998  12.992  19.274  23.784 -0.0860  0.1630  0.1606
70135W        W70999   7.595  18.378  23.231 -0.0083  0.2171  0.0525
70136W        W71000  11.249  23.205  26.309 -0.1857 -0.1814 -0.0482
70137W        W71001   8.885  20.853  20.602 -0.0902 -0.2818 -0.0452
70138W        W71002   9.417  20.272  24.640 -0.1433  0.0271 -0.0400
70139W        W71003   8.261  20.724  27.870 -0.1354 -0.0228  0.2769
70140W        W71004  10.663  21.856  25.206 -0.2467 -0.1643  0.0278
70141W        W71005   9.594  20.826  22.752 -0.1015 -0.2171  0.1815
70142W        W71006   7.310  19.698  26.512 -0.0938 -0.2258  0.1125
70143W        W71007   8.705  17.391  23.593 -0.2419 -0.1482  0.2374
70144W        W71008  12.567  22.758  27.010  0.1050 -0.3689  0.1363
70145W        W71009   9.247  20.627  24.984 -0.1696  0.2020  0.0467
70146W        W71010   9.740  22.084  25.809  0.1130 -0.1101 -0.1224
70147W        W71011   8.451  20.187  26.632 -0.1311 -0.1257  0.2154
70148W        W71012   9.438  18.792  25.842 -0.1268  0.1588 -0.3788
70149W        W71013  11.222  21.056  24.887 -0.0287  0.0971  0.0300
70150W        W71014  10.535  24.422  29.076  0.2956 -0.1256  0.3370
70151W        W71015   8.563  22.581  25.222  0.0698  0.0049 -0.2621
70152W        W71016   8.670  21.531  27.047 -0.1856 -0.1101  0.0394
70153W        W71017   9.722  20.924  28.282 -0.0847 -0.1336  0.1499
70154W        W71018   8.405  19.715  24.172 -0.0688 -0.2881 -0.0520
70155W        W71019  12.157  21.421  24.340  0.0593  0.1453 -0.1452
70156W        W71020  12.041  20.068  25.389  0.1375  0.3324 -0.1923
70157W        W71021   8.594  23.205  25.096  0.0909  0.0375  0.2341
70158W        W71022   9.565  16.654  26.766 -0.0784 -0.2838 -0.0061
70159W        W71023   8.350  22.503  21.558 -0.1659  0.1241 -0.1662
70160W        W71024   7.898  21.503  27.633  0.2467 -0.0064 -0.1978
70161W        W71025   9.356  21.379  22.871  0.0190  0.0469  0.0278
70162W        W71026   7.667  19.904  22.539 -0.2684  0.1834 -0.2644
70163W        W71027   7.384  21.774   0.445  0.1734 -0.0524 -0.0045
70164W        W71028   8.729  21.901  27.800 -0.0163  0.1045 -0.1279
70165W        W71029  13.482  21.302  28.085 -0.0179  0.3264 -0.0597
70166W        W71030  10.931  20.400  27.750 -0.0569 -0.0483 -0.0592
70167W        W71031   7.930  20.646  25.557  0.3586 -0.0400 -0.2139
70168W        W71032   7.182  20.734  27.338  0.4661 -0.1156  0.0419
70169W        W71033  10.740  18.057  28.613  0.0182 -0.2380  0.0221
70170W        W71034  11.237  18.786  27.065  0.2076  0.1841 -0.2930
70171W        W71035   5.641  23.502   1.699 -0.0686  0.2083 -0.0924
70172W        W71036   6.949  17.597  28.067  0.1998  0.2748 -0.1668
70173W        W71037   8.768  19.418  27.970 -0.0301 -0.4218 -0.1483
70174W        W71038  10.357  17.847  28.145  0.1647  0.0696 -0.2837
70175W        W71039  11.301  21.892  25.997 -0.2940  0.1601 -0.3300
70176W        W71040   8.809  20.194   2.014  0.1415  0.4068 -0.1380
70177W        W71041   8.358  17.605  28.862 -0.1544  0.0524  0.0214
70178W        W71042   7.864  20.325   2.234  0.1949 -0.2732 -0.1598
70179W        W71043   7.637  21.066  27.618  0.3824 -0.1315  0.1544
70180W        W71044   7.934  19.287  28.215  0.1144 -0.1738  0.0183
70181W        W71045   9.397  20.074   3.199  0.1632 -0.1659 -0.4166
70182W        W71046  10.895  19.076  25.291  0.3053  0.1391 -0.1439
70183W        W71047   8.740  20.115  24.727 -0.0053 -0.0269 -0.0526
70184W        W71048   7.288  19.603  27.802 -0.0849  0.3118  0.2120
70185W        W71049  10.264  21.875   1.288 -0.2425  0.0522 -0.1774
70186W        W71050   6.790  21.220  27.226 -0.1570 -0.3218 -0.1044
70187W        W71051   6.376  19.476  29.121 -0.1262  0.1601 -0.0522
70188W        W71052   6.461  19.954  28.855 -0.1569  0.1538 -0.1413
70189W        W71053  11.142  21.273  27.726 -0.3836  0.1077  0.2710
70190W        W71054   8.066  22.970  27.338  0.0389 -0.0337  0.0838
70191W        W71055   9.968  20.216  28.927 -0.0988 -0.2103 -0.1936
70192W        W71056   9.428  20.002  28.327  0.0243 -0.2175  0.0407
70193W        W71057  10.066  19.599  28.227 -0.4340 -0.0665  0.1497
70194W        W71058  10.330  19.844   0.541 -0.0763  0.1633  0.0588
70195W        W71059  10.300  18.411   0.389  0.1451 -0.0040  0.2260
70196W        W71060   8.144  19.646   0.410 -0.0601  0.3146 -0.0323
70197W        W71061   3.747  19.161  28.772 -0.3250  0.2528 -0.0893
70198W        W71062  10.518  19.941  28.078  0.2553  0.0769 -0.0379
70199W        W71063   5.911  18.648  28.281  0.3092 -0.0868 -0.4114
70200W        W71064   6.466  22.713   0.249  0.0397  0.0300 -0.0766
70201W        W71065  11.366  20.126  25.528  0.1569  0.1566  0.1261
70202W        W71066  10.874  15.038  28.761 -0.0878 -0.1300  0.0216
70203W        W71067   8.752  20.770  24.002  0.0011  0.2498  0.4565
70204W        W71068  13.188  17.788   0.419 -0.0707 -0.0702  0.1266
70205W        W71069   9.288  19.948  27.332  0.0581 -0.0297 -0.1573
70206W        W71070  10.956  19.661  27.067 -0.0460 -0.2429 -0.3236
70207W        W71071   7.338  21.775  25.356 -0.2577  0.0939 -0.6143
70208W        W71072   8.952  22.818  24.974 -0.1378 -0.2496  0.0168
70209W        W71073   8.521  19.477  28.401 -0.1530  0.1865 -0.1990
70210W        W71074  11.371  18.897   0.819  0.1491 -0.1322 -0.1045
70211W        W71075   9.704  18.401  27.068 -0.2980  0.0947  0.0148
70212W        W71076  11.425  19.146  25.310 -0.3171 -0.0140  0.2502
70213W        W71077   9.277  23.276   1.774 -0.1209 -0.1906 -0.2916
70214W        W71078   6.167  18.273  26.653 -0.0181 -0.1002  0.4461
70215W        W71079   7.894  22.074  28.029 -0.0971 -0.2739  0.0906
70216W        W71080  10.636  19.892  27.520  0.0796 -0.0252 -0.0598
70217W        W71081  12.684  19.087  26.474  0.1228  0.0445 -0.1997
70218W        W71082   8.321  21.323  23.986 -0.0846  0.2284 -0.2318
70219W        W71083   7.401  17.833  28.032  0.2541 -0.0335  0.0728
70220W        W71084   8.508  17.464  26.806  0.0799  0.1354 -0.0820
70221W        W71085   6.669  21.321  24.835 -0.3246 -0.0464 -0.3618
70222W        W71086   8.460  22.746  27.609 -0.3630 -0.2995 -0.2882
70223W        W71087  11.731  19.220  27.737 -0.0082  0.1070  0.3582
70224W        W71088   5.003  22.458  28.341  0.0849 -0.2162  0.0614
70225W        W71089   9.902  20.006  28.494  0.0476 -0.0957  0.0581
70226W        W71090   7.683  21.812  28.382  0.0795  0.0631  0.0569
70227W        W71091  11.063  18.536   0.803  0.0415  0.2378 -0.0471
70228W        W71092  10.420  19.495  25.116  0.1482 -0.0844 -0.1120
70229W        W71093   4.954  19.154  26.352  0.0719  0.2708  0.2113
70230W        W71094   7.129  21.008  25.871 -0.2403  0.2203  0.1530
70231W        W71095   7.214  21.798  26.213 -0.1414  0.4040 -0.3665
70232W        W71096   7.194  21.885  28.398  0.1798  0.3837  0.1049
70233W        W71097  11.760  21.256  26.322 -0.2277 -0.1205 -0.0683
70234W        W71098  10.723  20.932  28.904 -0.2582  0.4317 -0.1625
70235W        W71099   9.540  23.155  27.372  0.2826 -0.0179 -0.1955
70236W        W71100  10.517  21.878   1.707 -0.1583  0.1625 -0.0076
70237W        W71101  10.379  22.066  25.620  0.1947  0.2146 -0.0113
70238W        W71102  10.398  20.316  27.564 -0.0040 -0.2708 -0.1924
70239W        W71103   9.533  21.286  27.069  0.1020 -0.1186  0.0907
70240W        W71104   9.240  20.849  28.132 -0.2511 -0.3036  0.1347
70241W        W71105  10.190  18.566  26.943 -0.0230  0.1689  0.2236
70242W        W71106  11.318  21.735  27.415  0.3230 -0.4303 -0.1437
70243W        W71107   7.271  18.474  27.120 -0.0993  0.4281 -0.0312
70244W        W71108   7.621  19.749   0.458 -0.0921  0.1140 -0.1913
70245W        W71109   6.656  18.616  28.020  0.0647 -0.4318 -0.2926
70246W        W71110   9.797  18.397   1.126  0.2207 -0.3489 -0.1750
70247W        W71111   8.414  18.333   0.245  0.1477 -0.0461  0.0288
70248W        W71112  11.718  19.561  28.212  0.0054  0.1344  0.0518
70249W        W71113   9.627  19.208  27.487 -0.2163  0.4991 -0.1801
70250W        W71114   9.753  16.481   0.513 -0.0524 -0.0528  0.1248
70251W        W71115   9.930  20.193   0.975 -0.1525 -0.1957 -0.2229
70252W        W71116  11.518  17.588  28.818 -0.1322  0.0687  0.1928
70253W        W71117  11.110  21.086  28.660  0.0722 -0.0011  0.3666
70254W        W71118   9.772  22.408  27.812 -0.1409 -0.0801 -0.2491
70255W        W71119   6.993  23.270  25.184  0.0137  0.3715  0.1537
70256W        W71120   8.298  21.154   0.151  0.2369  0.2908 -0.2313
70257W        W71121   5.599  20.852  28.534 -0.1399  0.2468  0.0310
70258W        W71122   7.977  19.418  26.085  0.2659 -0.4053  0.4940
70259W        W71123  10.399  20.622  27.139  0.1025 -0.3094  0.1830
70260W        W71124   9.143  23.187   0.961 -0.0100  0.0973 -0.0626
70261W        W71125   8.462  20.960  26.941  0.1221  0.3877  0.0878
70262W        W71126   8.821  20.767  28.765  0.2382 -0.3065  0.3446
70263W        W71127   8.242  19.920  25.817  0.1889 -0.1175  0.2586
70264W        W71128   6.543  21.022  28.500 -0.0428  0.2762 -0.0360
70265W        W71129  12.440  14.981  27.720  0.2189 -0.3010  0.3639
70266W        W71130  10.619  21.840  26.641 -0.1848  0.1802 -0.2430
70267W        W71131  10.763  20.045  26.541  0.0138  0.0319  0.0204
70268W        W71132  10.509  19.486  28.436  0.0980 -0.0290 -0.0114
70269W        W71133  12.969  20.255  24.315  0.2357  0.0606 -0.0535
70270W        W71134  12.399  18.768  28.657  0.3864 -0.0408  0.1516
70271W        W71135  10.233  18.083  24.684  0.3760 -0.2927 -0.1355
70272W        W71136   8.766  20.456  27.806 -0.0016  0.2082 -0.2020
70273W        W71137   6.161  21.907  28.120 -0.0277  0.1907 -0.0739
70274W        W71138   9.765  22.465  28.919  0.2280  0.2594 -0.0052
70275W        W71139  12.596  18.460  28.033  0.0518 -0.0528 -0.1517
70276W        W71140   8.980  22.272  28.145 -0.2665 -0.1681  0.0706
70277W        W71141   9.032  20.585  27.363  0.0755  0.1601  0.4322
70278W        W71142   8.022  20.655  28.320  0.1432  0.2616 -0.0122
70279W        W71143  11.553  19.181  28.548 -0.1351  0.2164 -0.2135
70280W        W71144   8.925  19.757   1.005  0.1285 -0.3463  0.0658
70281W        W71145   9.494  20.450  28.602  0.1362  0.2029  0.0306
70282W        W71146  10.469  20.534  26.292  0.0274  0.0538  0.3558
70283W        W71147  10.426  20.372  25.102  0.1587 -0.1141  0.1525
70284W        W71148   8.889  21.058  26.441 -0.1325  0.2811  0.0514
70285W        W71149   6.397  21.606  28.762 -0.1965  0.0461  0.0285
70286W        W71150   9.735  22.065  26.824  0.3060 -0.1117 -0.0838
70287W        W71151   7.268  22.215  28.787  0.0069 -0.0002 -0.2290
70288W        W71152  11.055  18.275  26.255  0.1276 -0.2921  0.4808
70289W        W71153   9.919  20.078   0.358  0.3068  0.0455  0.1155
70290W        W71154   8.739  19.071  27.626  0.2519  0.0249 -0.0865
70291W        W71155  11.334  22.140  26.906 -0.0601  0.0903 -0.1676
70292W        W71156   6.670  20.540   0.887  0.0815  0.2505  0.1326
70293W        W71157  11.270  25.579  26.860 -0.1750 -0.0184  0.2308
70294W        W71158  11.228  19.779   0.466 -0.0400 -0.0277 -0.0018
70295W        W71159   9.130  24.635   0.451 -0.0388 -0.0127  0.0958
70296W        W71160  11.070  19.356  25.629 -0.1614  0.1977 -0.3238
70297W        W71161  11.774  20.159  26.724 -0.0327 -0.0229 -0.0024
70298W        W71162   7.308  20.488  28.067  0.2779  0.1405 -0.1937
70299W        W71163  10.305  21.229   0.078 -0.0403  0.2875  0.1394
70300W        W71164  10.849  21.290   0.094 -0.1218  0.1270 -0.0304
70301W        W71165   8.352  22.164  28.724  0.1773 -0.0132 -0.2888
70302W        W71166   5.884  21.762  28.536 -0.0594 -0.4004  0.0236
70303W        W71167   7.177  19.251  25.311 -0.0499 -0.2026 -0.0597
70304W        W71168  13.504  18.704  28.772  0.3672  0.0225  0.1051
70305W        W71169   7.236  22.288  25.999 -0.0236 -0.2782  0.0872
70306W        W71170   7.650  19.386  27.327 -0.0960  0.1465 -0.0747
70307W        W71171   7.996  20.147  28.211 -0.1091 -0.0663 -0.1334
70308W        W71172  10.240  18.194  28.427 -0.0316  0.1866 -0.1718
70309W        W71173  12.151  18.078  28.296 -0.0777  0.0722 -0.3447
70310W        W71174   8.421  21.972  28.240 -0.2725 -0.2778  0.4137
70311W        W71175   7.486  21.802  27.914 -0.1641  0.0780 -0.0605
70312W        W71176   6.910  21.458   0.572  0.0222 -0.1095  0.1225
70313W        W71177  10.422  21.343  26.600  0.3126 -0.1094 -0.0922
70314W        W71178   8.174  20.408  26.318  0.0473  0.0017  0.3324
70315W        W71179   8.475  21.059   0.732 -0.0839 -0.3709 -0.2329
70316W        W71180   8.584  20.642  28.216 -0.1201 -0.0221  0.0459
70317W        W71181   9.569  21.602  27.606  0.2227 -0.1575  0.4019
70318W        W71182   9.299  18.327  28.677 -0.0059  0.0560  0.1675
70319W        W71183  10.782  20.502  28.702  0.0549  0.1922  0.0920
70320W        W71184  10.270  20.243  26.707 -0.1629  0.4595  0.0164
70321W        W71185  10.184  18.809  27.790  0.1584  0.1464  0.0855
70322W        W71186   7.796  19.703  27.796 -0.0031 -0.0229 -0.0046
70323W        W71187   7.864  17.100   0.340 -0.4233  0.1738 -0.6966
70324W        W71188   7.815  22.153  28.753  0.1387 -0.0824 -0.2517
70325W        W71189   8.181  19.799  29.042  0.0810  0.1436  0.0819
70326W        W71190  11.616  20.175  29.136 -0.1012 -0.0324  0.0656
70327W        W71191  10.338  16.877   1.119 -0.1016  0.3701  0.1370
70328W        W71192   7.668  18.433  25.823  0.0103 -0.0471 -0.1535
70329W        W71193   9.055  21.182  26.910  0.1557 -0.0569  0.1708
70330W        W71194   6.519  21.584  27.240 -0.1170 -0.0229  0.0016
70331W        W71195   7.755  25.154  28.765 -0.0883 -0.0082  0.2793
70332W        W71196   8.202  21.885  27.689 -0.0537 -0.0575 -0.0614
70333W        W71197   9.714  19.651  27.280 -0.2469  0.0690 -0.1838
70334W        W71198  11.083  18.404  28.653 -0.2090 -0.0249 -0.0622
70335W        W71199  10.659  18.664   0.120 -0.1075 -0.2478 -0.3399
70336W        W71200   8.741  20.941  27.843 -0.0416  0.0557 -0.1151
70337W        W71201  10.253  16.852  28.660  0.3214 -0.1055  0.0661
70338W        W71202  11.164  17.277  28.526  0.0871 -0.1242  0.3190
70339W        W71203   7.025  24.694  28.803  0.0619  0.0382  0.0481
70340W        W71204   8.213  20.430   0.864 -0.0616 -0.1842  0.1303
70341W        W71205   6.101  23.291  24.464 -0.1217  0.0869  0.0163
70342W        W71206   8.780  18.825  27.109 -0.2520 -0.2085  0.3686
70343W        W71207   8.266  20.874  26.475  0.2040  0.1457 -0.4426
70344W        W71208  10.556  23.324  27.479 -0.0663  0.2299  0.0191
70345W        W71209   9.284  21.206  27.473 -0.3193 -0.0161  0.5394
70346W        W71210   7.343  18.792  28.341  0.1204  0.3834  0.0265
70347W        W71211   9.368  19.598  26.381  0.1518 -0.0735  0.1589
70348W        W71212   9.445  21.850  28.445  0.2182  0.3047 -0.4455
70349W        W71213  12.008  17.077  26.162  0.1973  0.2288 -0.1359
70350W        W71214   6.605  19.980  26.763 -0.0106 -0.2466 -0.3233
70351W        W71215   9.233  21.397  28.458 -0.2298 -0.2031  0.2840
70352W        W71216   8.135  19.308   0.021 -0.2263 -0.2579  0.0361
70353W        W71217   8.655  20.210  25.482 -0.0390  0.1506 -0.1138
70354W        W71218   7.991  21.744  24.047  0.0388 -0.2569 -0.1894
70355W        W71219   7.212  20.580   0.929 -0.3967  0.1479 -0.1583
70356W        W71220  10.943  18.069   1.569  0.2107 -0.0052 -0.1579
70357W        W71221  11.563  19.052   1.362  0.2242  0.2470  0.2335
70358W        W71222   7.153  19.770   0.066 -0.2359  0.1351 -0.2121
70359W        W71223  11.964  16.162  27.670 -0.1813  0.0933 -0.1182
70360W        W71224   8.650  20.466  27.004  0.1136  0.1273  0.1393
70361W        W71225   8.075  19.242   1.277 -0.0739  0.2567  0.0774
70362W        W71226  11.312  18.582   1.221 -0.1831 -0.2629  0.1552
70363W        W71227   8.615  19.133  28.762  0.0791 -0.1905  0.0419
70364W        W71228  12.087  19.850   0.853 -0.1527  0.1329 -0.0338
70365W        W71229  10.853  20.818  26.012 -0.3088 -0.2991  0.1169
70366W        W71230   7.744  18.004  28.481  0.0829 -0.0987 -0.1850
70367W        W71231  10.315  20.628  28.999  0.0093  0.0711 -0.1912
70368W        W71232   5.085  20.074  28.128  0.1323  0.1733  0.0451
70369W        W71233   6.866  18.930  28.453 -0.0190  0.1541 -0.2995
70370W        W71234  10.478  21.161  24.430 -0.0756  0.1270 -0.3733
70371W        W71235   8.448  22.420  25.986 -0.0002  0.0491 -0.3772
70372W        W71236   3.403  22.450  27.731  0.0488 -0.0845  0.0766
70373W        W71237   5.858  21.540   0.765  0.1077  0.2552 -0.1720
70374W        W71238   7.059  21.050   0.186 -0.0432 -0.0963  0.2908
70375W        W71239  11.123  19.504  26.488 -0.1783 -0.0942  0.0491
70376W        W71240  10.209  16.457  27.313 -0.0852 -0.2564 -0.3067
70377W        W71241  12.217  19.650   1.527  0.1645  0.1300  0.0815
70378W        W71242  10.070  21.723  26.751 -0.0199  0.0452 -0.0192
70379W        W71243   9.731  18.931  28.639 -0.0915  0.1468  0.2900
70380W        W71244  10.120  21.267  27.005 -0.0504  0.0116  0.4570
70381W        W71245   9.317  17.540   1.564  0.1294 -0.4239  0.0615
70382W        W71246   9.339  22.879   0.570  0.0476 -0.3237 -0.1576
70383W        W71247  13.869  19.397   2.039  0.0773  0.0748  0.1538
70384W        W71248  11.661  19.735  26.292 -0.1874 -0.1966 -0.0886
70385W        W71249   7.944  22.579  27.686 -0.0942  0.0761  0.1563
70386W        W71250   7.105  19.036  25.776 -0.0519  0.1102 -0.0390
70387W        W71251  11.407  19.611  27.810  0.2112  0.3257 -0.0640
70388W        W71252   9.018  20.614   1.380 -0.0068 -0.0340 -0.1690
70389W        W71253   9.057  21.401  27.908 -0.0463 -0.1360 -0.1676
70390W        W71254  10.270  18.692  28.353 -0.1468 -0.1890  0.0062
70391W        W71255  11.097  22.344  26.113  0.1624 -0.1874 -0.0908
70392W        W71256  10.185  20.350  28.014 -0.4277  0.0011 -0.2018
70393W        W71257   9.648  19.782  28.974 -0.1903 -0.0866  0.0219
70394W        W71258   9.564  19.410   0.947 -0.1847 -0.2019 -0.0418
70395W        W71259   9.333  20.830   0.083  0.1323 -0.0780  0.1425
70396W        W71260  12.341  20.155   1.158  0.2984  0.1774 -0.0752
70397W        W71261   9.335  19.049   0.654  0.3363  0.3477  0.1782
70398W        W71262   8.213  22.734  28.688 -0.1273 -0.0453 -0.2101
70399W        W71263  11.223  17.757  28.463 -0.2437  0.0982 -0.0107
70400W        W71264   8.446  18.611   0.705  0.0715  0.0812  0.0566
70401W        W71265  12.069  20.582  26.527 -0.1188 -0.3159 -0.0739
70402W        W71266  10.105  22.171  25.183 -0.0652  0.1116  0.0641
70403W        W71267  11.095  20.476  26.393  0.0931  0.0509  0.2019
70404W        W71268   4.376  21.462   1.902  0.1855 -0.1398 -0.0635
70405W        W71269   9.817  18.751  27.419  0.0472 -0.3278 -0.0293
70406W        W71270   4.913  17.050  28.135  0.0589 -0.4546  0.0138
70407W        W71271  10.541  18.522  28.799  0.1019  0.2603 -0.3663
70408W        W71272   6.270  21.543  27.764 -0.1093  0.3105 -0.1358
70409W        W71273   9.090  22.738  28.432  0.0183 -0.0260 -0.0305
70410W        W71274   6.908  21.637  28.717 -0.0472 -0.2365  0.1438
70411W        W71275   9.309  23.687  27.432  0.0185 -0.0452 -0.2023
70412W        W71276   6.644  19.247  28.085 -0.0134 -0.0284  0.0796
70413W        W71277   9.040  20.087   1.444  0.1597  0.0348 -0.1471
70414W        W71278  11.199  20.901   0.864 -0.2923  0.3378  0.1720
70415W        W71279   9.935  22.677  25.102 -0.1823  0.3806 -0.2820
70416W        W71280   8.421  20.901   1.584 -0.2307 -0.1717 -0.1063
70417W        W71281   8.781  19.026  28.246 -0.1258 -0.1665 -0.0058
70418W        W71282  10.511  23.724  26.596  0.1494  0.0306 -0.1012
70419W        W71283  13.436  18.175  26.715 -0.0981 -0.0038 -0.0921
70420W        W71284  10.996  18.825  28.937  0.1668  0.2097 -0.0260
70421W        W71285   8.028  21.229  26.767  0.0223 -0.0672  0.0924
70422W        W71286  10.330  19.873  26.367 -0.2086  0.3513 -0.0822
70423W        W71287   7.437  18.145   1.053  0.2019 -0.1307  0.1336
70424W        W71288   9.292  19.914   1.974  0.1628  0.0757 -0.3435
70425W        W71289   9.481  22.486  28.216  0.4158  0.1621 -0.2211
70426W        W71290  12.159  18.787   0.055 -0.2762  0.2241 -0.1880
70427W        W71291   8.252  22.304  27.375  0.5171  0.2065 -0.1594
70428W        W71292   5.410  22.587  28.633  0.1243  0.3987  0.0057
70429W        W71293   8.097  20.621  26.869 -0.0907  0.0284  0.1481
70430W        W71294   9.240  21.838  26.267  0.2975 -0.1385  0.0559
70431W        W71295   9.544  19.693   2.284  0.1547 -0.3360 -0.5150
70432W        W71296  11.384  19.230  26.921 -0.0611  0.1929  0.2141
70433W        W71297   6.739  21.423   0.109 -0.3386 -0.1488 -0.0959
70434W        W71298  10.119  22.125  29.045  0.1911 -0.0811 -0.0919
70435W        W71299  10.431  18.985   1.014  0.2134 -0.0434 -0.2256
70436W        W71300  10.831  20.549   0.527 -0.0894  0.2059  0.0358
70437W        W71301  10.186  23.086  25.335  0.0224  0.1389 -0.0623
70438W        W71302  11.133  18.363   0.139  0.0302 -0.0594 -0.2101
70439W        W71303   7.790  18.784  28.170 -0.0563 -0.0305  0.0429
70440W        W71304  10.261  18.343  27.905 -0.0062  0.0226 -0.0601
70441W        W71305   9.021  20.176  26.368 -0.0908  0.0535 -0.2135
70442W        W71306   6.583  20.535  28.724 -0.0954 -0.2653  0.1647
70443W        W71307   9.054  19.270  26.216 -0.0484  0.2022  0.1622
70444W        W71308   9.266  18.422  27.984 -0.2299  0.1406  0.1572
70445W        W71309   9.895  18.443  28.737 -0.0047  0.0446  0.1585
70446W        W71310   4.273  21.057   0.182 -0.2950 -0.2253  0.0147
70447W        W71311   9.297  21.722  27.044 -0.4049  0.0190  0.4279
70448W        W71312  12.026  16.566   2.793  0.1601  0.1260  0.1369
70449W        W71313   9.292  22.104  26.703 -0.1006  0.1784 -0.1283
70450W        W71314   8.059  18.686   0.372 -0.1251  0.1633  0.0278
70451W        W71315  12.407  18.611  26.612 -0.0911  0.3932  0.1056
70452W        W71316  12.203  20.549  25.326  0.3504  0.1934 -0.1091
70453W        W71317  11.368  19.533  24.984  0.2453 -0.0839 -0.1735
70454W        W71318   8.198  19.405  25.631  0.0953 -0.4647 -0.1714
70455W        W71319  11.896  19.745  27.744  0.0389 -0.0037  0.3668
70456W        W71320   7.330  21.442   0.073 -0.0815 -0.2565 -0.0957
70457W        W71321   6.576  22.570  28.771  0.0620 -0.3026 -0.0391
70458W        W71322  11.275  18.275  28.177 -0.1721  0.2596  0.1585
70459W        W71323   7.450  18.719  26.702  0.1685 -0.0970  0.2320
70460W        W71324   8.930  20.661   1.944 -0.2016  0.3155  0.2940
70461W        W71325   8.508  21.558  25.867  0.2222 -0.3819  0.1892
70462W        W71326   6.612  23.043  26.067 -0.0740 -0.0668  0.2164
70463W        W71327   8.182  22.091  26.307  0.2239  0.4782  0.0764
70464W        W71328   8.061  19.018   1.886 -0.0584  0.4329 -0.0432
70465W        W71329   9.770  21.161   2.054  0.0133  0.1840  0.2696
70466W        W71330  10.583  23.752  26.105  0.0632  0.0192  0.1000
70467W        W71331  11.277  21.080  26.707  0.1821 -0.1974  0.1887
70468W        W71332   8.327  22.802  26.971  0.2711 -0.0336 -0.1875
70469W        W71333   9.205  19.564   0.655 -0.3716 -0.2778  0.0093
70470W        W71334   8.870  19.866  24.180 -0.1388 -0.0163  0.1817
70471W        W71335  12.729  17.928  28.788  0.0330  0.1346  0.1409
70472W        W71336   5.708  20.034  26.203  0.0823 -0.3781  0.0738
70473W        W71337  10.850  17.959  28.119 -0.2421  0.2669 -0.3135
70474W        W71338   8.303  21.588   0.454  0.0479 -0.3365  0.2661
70475W        W71339   7.178  18.092   0.191 -0.0687  0.0726 -0.1136
70476W        W71340  12.050  18.456  25.062 -0.1281 -0.1878 -0.1131
70477W        W71341   7.220  19.637  27.217 -0.0496 -0.1661 -0.1536
70478W        W71342   9.530  20.843   1.639 -0.1174 -0.2709  0.1471
70479W        W71343  10.823  20.502   0.039 -0.0920  0.3130  0.1720
70480W        W71344   9.332  20.354  27.648 -0.1173  0.0754  0.0796
70481W        W71345   9.075  22.366   0.664  0.2065 -0.1147  0.2956
70482W        W71346   8.639  16.951  27.160  0.1867  0.2372 -0.0702
70483W        W71347   7.499  23.074  27.747  0.1489 -0.2019  0.0426
70484W        W71348  10.627  22.112  24.755  0.3096 -0.1750 -0.2499
70485W        W71349   6.102  19.582  28.662  0.0061 -0.0980 -0.0076
70486W        W71350  12.579  17.428  28.034 -0.0661 -0.2674  0.0185
70487W        W71351   6.220  20.465  27.333 -0.0656 -0.5522 -0.4043
70488W        W71352   9.657  23.061   1.070  0.0404  0.0673 -0.1401
70489W        W71353  11.562  17.196  27.400  0.2653 -0.1249 -0.1155
70490W        W71354   5.123  20.934  25.994  0.0154  0.0621  0.1790
70491W        W71355   9.632  20.460  28.026 -0.1508 -0.0647 -0.1315
70492W        W71356   7.811  21.488   0.230  0.1497  0.2791  0.1761
70493W        W71357   9.099  21.761  27.486  0.0861 -0.0647  0.1234
70494W        W71358  10.740  18.492  27.759  0.0705 -0.1473  0.3104
70495W        W71359   9.163  19.172  27.912 -0.0709 -0.2474  0.1464
70496W        W71360   9.437  23.611  28.933  0.2542 -0.0247 -0.0300
70497W        W71361  12.670  20.294  28.382  0.0966 -0.1042 -0.0242
70498W        W71362  11.129  22.638   0.390  0.0992  0.1460  0.0849
70499W        W71363   7.087  23.791  28.488  0.1702  0.2699 -0.2944
70500W        W71364  13.266  19.909  26.778  0.0251 -0.0820 -0.0138
70501W        W71365   9.500  23.103  28.220  0.2650  0.2059  0.1650
70502W        W71366   6.619  13.615  26.911 -0.0005  0.1476  0.4146
70503W        W71367   7.544  20.773  24.078  0.1586  0.0497 -0.1152
70504W        W71368   7.747  20.682  27.892 -0.1341  0.2153 -0.0469
70505W        W71369  11.517  18.528  28.877  0.2948  0.0216  0.1008
70506W        W71370   7.572  23.189  26.560  0.0204 -0.2084  0.0466
70507W        W71371   9.449  20.797  27.190  0.1884  0.1828 -0.1568
70508W        W71372   7.680  24.408  28.441 -0.0464 -0.1673 -0.1515
70509W        W71373   5.793  19.826  28.367  0.2288  0.2154  0.0538
70510W        W71374   9.836  20.272  27.641  0.0329 -0.0894  0.3748
70511W        W71375   9.973  18.656   0.714 -0.1266  0.0196 -0.0174
70512W        W71376   8.630  21.939  27.291 -0.0529  0.1482 -0.1183
70513W        W71377   9.452  19.866   0.370 -0.0217  0.1965  0.0201
70514W        W71378  10.164  18.796  28.945 -0.0232  0.2105  0.0409
70515W        W71379  12.195  21.401  25.443 -0.0108 -0.1132 -0.0955
70516W        W71380   7.743  21.321   1.062 -0.0834 -0.3276  0.2318
70517W        W71381   8.660  24.032  27.657 -0.0401  0.0615 -0.0721
70518W        W71382   8.095  19.435  24.524  0.2449  0.0536 -0.0324
70519W        W71383   6.815  21.965  26.500  0.0985  0.4746 -0.5109
70520W        W71384   9.474  19.559   3.092  0.1660  0.1086  0.2983
70521W        W71385   8.162  17.018  28.224 -0.1132  0.2359 -0.2023
70522W        W71386   6.080  19.128  28.442  0.2314  0.0035  0.0466
70523W        W71387   6.596  20.814  27.444 -0.1306  0.2253 -0.1520
70524W        W71388   9.639  17.054   0.702  0.2995 -0.1703 -0.0299
70525W        W71389   8.582  20.687   1.138 -0.1259  0.2536  0.3034
70526W        W71390  10.464  15.487  26.992 -0.3859  0.0722 -0.2527
70527W        W71391   3.956  22.376   0.367  0.1613  0.0936 -0.1963
70528W        W71392   8.060  24.413  27.845  0.2511 -0.2555  0.1747
70529W        W71393   8.719  21.923   0.443 -0.0144 -0.0864 -0.4225
70530W        W71394  12.125  20.756  27.930  0.1022  0.1001 -0.1067
70531W        W71395   9.657  16.079  27.695  0.0811 -0.0928 -0.1684
70532W        W71396  12.322  17.150  28.813  0.1082  0.2461  0.5148
70533W        W71397   9.573  17.411  27.139 -0.0332  0.1979  0.3435
70534W        W71398   9.927  20.739  27.399  0.2065  0.0576  0.2499
70535W        W71399   9.264  22.229  25.921  0.3994  0.0148  0.1011
70536W        W71400   9.877  19.167   0.542 -0.4390 -0.2030 -0.0131
70537W        W71401   8.854  22.219  26.357 -0.0895 -0.0271  0.1102
70538W        W71402   7.797  19.776  25.639 -0.1525  0.1389  0.0324
70539W        W71403   9.849  18.404   0.118  0.2016  0.0022 -0.3106
70540W        W71404   9.849  22.977  26.264  0.1690 -0.3322 -0.0183
70541W        W71405  11.168  20.228  28.568  0.1307 -0.0641 -0.4315
70542W        W71406   8.881  19.956  27.854 -0.2313  0.1316  0.1356
70543W        W71407   9.232  19.830  28.739 -0.1142  0.3066  0.0314
70544W        W71408   9.621  21.476  23.884  0.1258  0.0710 -0.0596
70545W        W71409   7.936  19.971   1.431  0.1318 -0.0983 -0.2934
70546W        W71410  11.263  20.487  25.893 -0.0507 -0.3216  0.0028
70547W        W71411  10.101  19.821  27.744  0.3018 -0.1931 -0.3754
70548W        W71412  12.437  19.803  28.578 -0.1091 -0.1564 -0.0589
70549W        W71413  11.261  23.356  27.165 -0.0242 -0.0275 -0.1392
70550W        W71414   7.747  25.236  27.647  0.1301 -0.0282 -0.3331
70551W        W71415   6.751  22.112  28.818  0.1126  0.1077 -0.4884
70552W        W71416  10.738  22.566  27.214  0.0827 -0.0777 -0.0782
70553W        W71417   8.023  21.220   0.651 -0.0522  0.0528 -0.2021
70554W        W71418   7.636  21.707  28.884 -0.0348  0.0522  0.2788
70555W        W71419   8.612  20.504   0.663  0.1182 -0.3053 -0.1541
70556W        W71420   5.092  22.015  27.174 -0.1399 -0.3843  0.3558
70557W        W71421   7.762  20.849   0.838 -0.1010 -0.1717 -0.1863
70558W        W71422   8.799  18.457  29.021  0.1033  0.1296  0.2082
70559W        W71423  10.687  23.250  27.964  0.2010 -0.0649 -0.0796
70560W        W71424  10.141  23.587  27.330 -0.2749  0.3540 -0.4328
70561W        W71425   8.571  22.443  28.366  0.1656 -0.0131  0.1189
70562W        W71426   4.241  22.697  26.970 -0.1973 -0.4485  0.3771
70563W        W71427   4.620  26.671   6.489 -0.1163  0.1669  0.1913
70564W        W71428   5.896  22.844   1.400  0.0566 -0.0260 -0.0741
70565W        W71429  10.040  22.921  28.388 -0.2653 -0.0982  0.0114
70566W        W71430  11.036  23.462   5.356  0.1859 -0.2502 -0.0682
70567W        W71431   8.821  27.550  28.767 -0.0058  0.2122  0.1008
70568W        W71432   9.485  24.684   1.277  0.2753  0.3739  0.0929
70569W        W71433   6.420  25.027   0.438  0.1675  0.0065 -0.0449
70570W        W71434   9.024  25.081  27.050  0.3160  0.0873 -0.0834
70571W        W71435   7.669  23.963   3.888 -0.1427  0.0002  0.0423
70572W        W71436   6.869  20.087  28.635 -0.1709 -0.2132  0.2424
70573W        W71437   6.579  19.429   4.885  0.1124  0.0778  0.1496
70574W        W71438   9.418  25.698   2.382  0.3397  0.4224 -0.2623
70575W        W71439  10.162  25.879  28.966 -0.0027 -0.0119  0.0940
70576W        W71440   8.261  24.269   3.121  0.1503 -0.4915 -0.1145
70577W        W71441   6.444  20.098   0.849  0.0918  0.1881  0.0891
70578W        W71442   7.317  20.929   3.694  0.3126  0.0055  0.0787
70579W        W71443   6.392  28.244  28.904 -0.2409  0.0275 -0.0363
70580W        W71444   8.224  22.195   1.677  0.1286  0.2531 -0.2559
70581W        W71445   7.193  21.512   3.938 -0.2448 -0.1639 -0.1144
70582W        W71446  11.362  24.465   4.285 -0.0801  0.2402  0.1533
70583W        W71447  11.031  21.269   1.582  0.0212 -0.1449 -0.2368
70584W        W71448   8.163  22.635   1.914 -0.3153 -0.1139 -0.1041
70585W        W71449   8.527  24.792   3.000 -0.1678 -0.4482  0.2419
70586W        W71450   6.941  26.264   0.425 -0.0553  0.4745 -0.1572
70587W        W71451   7.202  25.508   0.996 -0.0342  0.0906  0.2389
70588W        W71452   9.034  22.777   4.673  0.1370 -0.3425  0.1752
70589W        W71453   9.701  23.226   5.970  0.2503  0.0025  0.0296
70590W        W71454   8.776  25.853   3.195 -0.2138  0.1039 -0.1275
70591W        W71455   8.965  24.513   4.442  0.0258  0.2760 -0.0593
70592W        W71456  10.097  23.077  27.367  0.3467  0.1613 -0.2963
70593W        W71457  10.487  23.610   1.526 -0.1643  0.1837 -0.1601
70594W        W71458   9.345  23.963   4.034 -0.3089 -0.0064  0.1074
70595W        W71459   7.397  21.414   3.514 -0.0329 -0.2196 -0.3265
70596W        W71460   7.960  24.619   2.174  0.1783  0.0578  0.0332
70597W        W71461   8.294  22.076   4.696  0.0661  0.3475 -0.2518
70598W        W71462   9.182  26.138   4.514 -0.0754  0.2171  0.1453
70599W        W71463   6.481  20.727   2.554 -0.1981 -0.2906  0.4096
70600W        W71464   8.720  22.049   0.928 -0.1351 -0.1296  0.0264
70601W        W71465   8.831  26.171   2.436 -0.0556  0.0950 -0.2026
70602W        W71466  10.927  23.738  28.455 -0.0885 -0.0064  0.0471
70603W        W71467  13.392  20.186   3.044 -0.1967  0.1829  0.0566
70604W        W71468   8.149  22.155   1.173  0.2050 -0.2288 -0.2096
70605W        W71469   7.961  27.642   1.407  0.2353  0.2566 -0.4249
70606W        W71470  11.742  22.996   0.443 -0.3012  0.0958 -0.3111
70607W        W71471   5.202  24.807   0.453 -0.0965  0.0336  0.1073
70608W        W71472   7.817  25.613  28.503  0.3066 -0.1934 -0.0119
70609W        W71473   9.207  22.707   1.944 -0.0751  0.0945 -0.1374
70610W        W71474   8.660  25.700   2.572  0.0044  0.2772  0.2376
70611W        W71475   7.820  23.598   2.559  0.0238 -0.1606 -0.0329
70612W        W71476   9.303  24.391   0.820 -0.1409 -0.2590 -0.2011
70613W        W71477   8.677  22.656   4.308 -0.2363  0.4379  0.2939
70614W        W71478   8.674  23.901   1.405 -0.0234 -0.0749  0.0689
70615W        W71479   6.859  25.100   2.006 -0.2066  0.1664  0.0849
70616W        W71480   9.819  24.040   2.998  0.0040  0.0648 -0.2909
70617W        W71481   9.319  21.441   0.313 -0.0452  0.1866 -0.1569
70618W        W71482   7.052  25.599   2.047 -0.2880 -0.1669 -0.0617
70619W        W71483   9.504  20.268   0.003  0.0719  0.0216 -0.0006
70620W        W71484   8.950  22.618   1.151 -0.0562  0.0431 -0.1718
70621W        W71485   7.316  24.307   0.863  0.2122  0.1063  0.0091
70622W        W71486  10.820  23.641   0.950 -0.2323 -0.0739 -0.0162
70623W        W71487  11.487  22.821   0.040 -0.4541 -0.0164  0.0467
70624W        W71488   9.058  24.330   3.901 -0.2749  0.1430  0.2599
70625W        W71489   7.848  21.910   1.583  0.0355 -0.1538  0.2946
70626W        W71490  10.231  21.747   2.606 -0.3602  0.2926 -0.0995
70627W        W71491   8.645  22.860   3.809  0.1049  0.2039  0.0542
70628W        W71492  10.830  21.080   0.563  0.1129 -0.1905 -0.1309
70629W        W71493   8.042  23.802  28.811  0.0326 -0.0317  0.2213
70630W        W71494   6.063  23.834   1.636 -0.1247  0.1333 -0.3647
70631W        W71495   8.913  24.774   0.933  0.3071 -0.1840  0.3103
70632W        W71496   6.680  26.250   0.831  0.1121 -0.2223 -0.3158
70633W        W71497  10.336  27.187   0.291 -0.0160  0.2820  0.1551
70634W        W71498   6.753  25.071  27.763 -0.0446  0.1353 -0.3399
70635W        W71499  10.128  24.889   2.795 -0.0852  0.0274  0.0005
70636W        W71500   7.278  23.111   0.624 -0.1863  0.0598  0.2232
70637W        W71501  10.739  25.838   3.802 -0.0675 -0.1546 -0.0770
70638W        W71502   9.472  26.123   1.621  0.1149 -0.0899 -0.1902
70639W        W71503   5.207  21.119  28.814  0.0627  0.0307 -0.0272
70640W        W71504   6.345  24.335   5.180 -0.0794 -0.1620  0.1263
70641W        W71505   9.320  22.316  28.671  0.4054 -0.2624 -0.0475
70642W        W71506   9.053  22.452   2.376 -0.0206  0.2676 -0.4052
70643W        W71507   7.229  22.252   0.392  0.3589 -0.1558 -0.0327
70644W        W71508   7.992  23.571   3.931  0.0747 -0.3505 -0.3294
70645W        W71509   8.204  19.594   2.071 -0.0209  0.0368  0.0390
70646W        W71510   8.337  21.342   2.495 -0.2850  0.2366  0.1690
70647W        W71511   9.637  23.984   3.488  0.0688 -0.0829 -0.0111
70648W        W71512   9.082  20.595   0.829  0.0409  0.1623 -0.1713
70649W        W71513  12.406  21.330   6.650  0.1439 -0.1284  0.0099
70650W        W71514   7.110  20.690   2.790 -0.1380  0.2731 -0.0200
70651W        W71515  10.615  25.915   1.694  0.3091 -0.0274 -0.2310
70652W        W71516   8.619  23.530   2.666 -0.1597 -0.1801 -0.3706
70653W        W71517   9.123  20.351   3.721  0.1397  0.0487 -0.1831
70654W        W71518   9.749  24.255   4.151 -0.5795 -0.0995 -0.2396
70655W        W71519   8.472  24.245   3.677  0.1510 -0.0535 -0.0181
70656W        W71520   6.293  24.393   1.148  0.1194 -0.1520 -0.1117
70657W        W71521   6.659  22.493   2.053  0.1843  0.1574  0.0930
70658W        W71522   9.841  22.907  27.834 -0.1046 -0.0755  0.3335
70659W        W71523  11.354  22.869   2.298 -0.1098 -0.1924  0.0692
70660W        W71524   7.964  28.890   2.637  0.0832 -0.0949 -0.0242
70661W        W71525   8.412  21.786   1.417 -0.3719 -0.1243 -0.1713
70662W        W71526  10.622  21.091   2.336 -0.2726  0.4023 -0.6482
70663W        W71527  11.644  23.139   3.489  0.0368  0.1931  0.1922
70664W        W71528   5.857  22.905  28.796 -0.1929  0.1411 -0.0991
70665W        W71529   7.804  23.981   0.318  0.0730 -0.0263 -0.2406
70666W        W71530  10.093  25.614   3.293  0.0201  0.0264 -0.0998
70667W        W71531   9.860  21.086   4.145  0.0589  0.0395 -0.2299
70668W        W71532   9.783  25.217   4.816 -0.0645  0.2028  0.0605
70669W        W71533   9.432  26.651   0.449 -0.2040 -0.0715 -0.2432
70670W        W71534   8.493  25.431   4.044 -0.1240  0.1929  0.0084
70671W        W71535  10.859  22.585   1.633 -0.0194 -0.1063  0.2707
70672W        W71536   5.413  25.333  28.905 -0.0550 -0.0273 -0.2168
70673W        W71537   9.337  22.185   2.719 -0.1745 -0.0303 -0.2046
70674W        W71538   8.439  24.788   1.237 -0.2112  0.0375 -0.0368
70675W        W71539   7.713  25.198  28.167 -0.1781  0.0313  0.0170
70676W        W71540   7.049  27.890   3.374 -0.1553 -0.0745  0.1928
70677W        W71541  11.330  25.051   0.029  0.1484 -0.0665 -0.0899
70678W        W71542   5.968  23.393   1.327  0.4177 -0.0220  0.0332
70679W        W71543  11.826  21.029   4.526  0.0770  0.1050 -0.0716
70680W        W71544   8.699  22.708   1.584  0.0273  0.1120  0.2422
70681W        W71545   9.012  22.265   1.703 -0.1878 -0.1267  0.2271
70682W        W71546  10.516  23.219   2.734  0.2870 -0.1392 -0.0338
70683W        W71547   9.503  24.091   2.458 -0.0044  0.0264  0.0936
70684W        W71548   8.262  24.215  29.089 -0.0331  0.0409  0.1660
70685W        W71549  12.149  23.249   1.894 -0.2592  0.4679 -0.3473
70686W        W71550   9.816  24.498  28.841 -0.0930 -0.1209 -0.1915
70687W        W71551   7.207  24.026   0.475  0.0510  0.0832 -0.3353
70688W        W71552  11.833  23.602   3.019  0.1828  0.1358 -0.1143
70689W        W71553   8.954  20.475   0.250 -0.0532 -0.0158 -0.3196
70690W        W71554   9.978  25.173   1.809  0.1413 -0.0739 -0.1242
70691W        W71555  10.033  26.488   4.091  0.0269 -0.0539  0.1468
70692W        W71556   8.070  24.712   1.703  0.1571  0.0451  0.0518
70693W        W71557  10.026  25.492   2.373 -0.1695  0.0058 -0.2442
70694W        W71558   7.927  24.381   1.260  0.0584  0.2401  0.2123
70695W        W71559   8.110  28.100   1.418 -0.0631  0.5102  0.1002
70696W        W71560  10.908  22.032   2.504 -0.1330  0.1996 -0.3142
70697W        W71561   9.356  24.528   2.042 -0.0452  0.5029  0.2677
70698W        W71562   3.935  22.538   2.243 -0.2209  0.1263  0.3489
70699W        W71563   8.729  24.341   0.691 -0.2203  0.2667  0.1822
70700W        W71564  12.225  22.660   2.743  0.1297  0.0381 -0.0561
70701W        W71565   9.259  23.873   1.525 -0.1660 -0.1787 -0.1125
70702W        W71566   7.274  23.942  29.044  0.0219  0.0686  0.0387
70703W        W71567   6.468  24.951  28.297  0.0261 -0.1934 -0.0243
70704W        W71568   9.995  21.802   4.778  0.0231  0.3842  0.1513
70705W        W71569   6.678  26.617   1.231 -0.0848 -0.0240 -0.1601
70706W        W71570   6.909  23.261  28.331  0.0557  0.1539  0.0579
70707W        W71571   9.109  26.653   3.793  0.0691 -0.1033  0.0345
70708W        W71572  13.932  20.736   3.476  0.0478 -0.2406 -0.3315
70709W        W71573  11.252  22.224   2.156  0.1111 -0.0278  0.1913
70710W        W71574  10.128  25.378   2.853 -0.0109  0.1409  0.1475
70711W        W71575   8.939  23.578   3.176 -0.1080  0.3597  0.0753
70712W        W71576   8.775  22.809   2.097 -0.2487 -0.0452  0.3580
70713W        W71577  11.710  24.094   2.983  0.0798 -0.0516 -0.1345
70714W        W71578   6.349  22.213   1.534 -0.0844 -0.1273  0.2734
70715W        W71579   7.980  25.480   0.379 -0.1271  0.2141  0.1361
70716W        W71580   5.271  23.785   1.930 -0.1131  0.1237 -0.1663
70717W        W71581   9.939  22.689   1.214  0.2275 -0.0550 -0.0709
70718W        W71582   9.077  21.829   3.027  0.0414 -0.0890 -0.0791
70719W        W71583   8.242  22.530   3.469  0.1144  0.0677 -0.0804
70720W        W71584  10.236  25.987   0.888 -0.0142  0.1677 -0.2068
70721W        W71585   8.194  19.320   4.017 -0.1801 -0.1040 -0.0315
70722W        W71586   8.271  21.549   1.022 -0.1488  0.1996  0.1255
70723W        W71587   9.199  23.773   1.021  0.0803  0.0948 -0.2926
70724W        W71588   7.074  23.980   3.195 -0.0311  0.0490 -0.5655
70725W        W71589   8.223  23.931   2.622 -0.3009  0.4840  0.1374
70726W        W71590   9.789  22.570   1.853  0.1584 -0.1324  0.2958
70727W        W71591   9.913  22.327   2.660  0.1654 -0.1174 -0.1153
70728W        W71592   6.470  23.507   1.409  0.0596  0.2043  0.1122
70729W        W71593   7.153  18.941   1.495 -0.2131  0.2339  0.2115
70730W        W71594   8.354  24.699  29.113  0.1860  0.0396 -0.1467
70731W        W71595   8.009  23.853   2.042  0.0536 -0.0871  0.1544
70732W        W71596   6.502  25.962   0.481  0.0429 -0.3009  0.0776
70733W        W71597   9.623  25.192   2.606 -0.0726  0.0057  0.1157
70734W        W71598   9.616  25.205   1.060  0.0322 -0.1057  0.3816
70735W        W71599   8.816  22.124  28.667 -0.4576 -0.0190  0.2500
70736W        W71600  11.410  25.223   1.478  0.1138  0.1344 -0.0661
70737W        W71601   7.641  22.379   1.842 -0.4378  0.0668 -0.0369
70738W        W71602  12.369  22.130   2.982 -0.0780 -0.0216  0.0807
70739W        W71603   6.516  22.904   3.849  0.0060  0.2104 -0.0299
70740W        W71604   7.778  24.309   0.681  0.1195 -0.1282 -0.0864
70741W        W71605   6.793  28.050  27.306 -0.0013  0.0426 -0.1645
70742W        W71606   8.327  22.951   0.655 -0.2040 -0.1419 -0.2523
70743W        W71607   9.246  26.579   1.116  0.1088  0.0469  0.1178
70744W        W71608  11.742  26.636   2.265  0.1285  0.0523  0.0172
70745W        W71609  10.979  21.808   0.177  0.0197 -0.1592 -0.0913
70746W        W71610   8.884  22.232   0.003 -0.0087 -0.1131  0.1179
70747W        W71611   7.154  23.325   0.154 -0.2012 -0.0878 -0.3230
70748W        W71612   7.704  26.057   3.840  0.2998  0.0896  0.2660
70749W        W71613  13.175  23.559   1.612  0.1703  0.0648 -0.0021
70750W        W71614   5.971  20.920  28.213  0.0696  0.2401 -0.0174
70751W        W71615   9.387  24.228   4.502  0.0269 -0.2016  0.1120
70752W        W71616   6.688  27.956   1.732 -0.0104 -0.0590 -0.2514
70753W        W71617   7.067  24.833   0.950  0.2365  0.0552  0.0175
70754W        W71618   5.431  26.170   0.561 -0.2977  0.0522 -0.0681
70755W        W71619   5.827  20.993   1.984 -0.1359 -0.0138 -0.0596
70756W        W71620   9.116  23.011   1.456 -0.0686 -0.0551 -0.1399
70757W        W71621  10.159  23.227   1.835  0.1884 -0.0625  0.0061
70758W        W71622   7.789  20.712   1.908  0.0721 -0.0112  0.0370
70759W        W71623  10.295  22.085   0.359  0.1798  0.1624 -0.1186
70760W        W71624   6.751  22.533   2.840 -0.0477 -0.1838  0.1120
70761W        W71625   7.350  21.950   1.338  0.0388 -0.0708 -0.1225
70762W        W71626  11.941  21.456   3.642  0.0507 -0.0552  0.2394
70763W        W71627   5.983  24.992  28.383 -0.3863 -0.2115 -0.1508
70764W        W71628   9.841  22.849   0.619  0.1549  0.4127  0.0439
70765W        W71629   9.879  21.544  29.015 -0.0891 -0.0832 -0.0479
70766W        W71630   8.184  21.646   3.006  0.0017  0.0397 -0.3567
70767W        W71631   7.410  23.081  28.256  0.1060  0.0706  0.1332
70768W        W71632   8.895  22.012   2.521 -0.0929 -0.0182  0.0954
70769W        W71633   9.413  21.899   3.417 -0.2834 -0.1272 -0.0374
70770W        W71634  11.175  26.743  28.435  0.1647  0.0514 -0.1346
70771W        W71635   8.937  25.892  28.114 -0.1075 -0.1555 -0.1053
70772W        W71636   5.689  26.557   3.461 -0.1707 -0.1524 -0.0056
70773W        W71637   6.621  24.649   1.460  0.3661 -0.0449  0.0533
70774W        W71638   9.287  25.475   1.294  0.0572 -0.0053 -0.0053
70775W        W71639  10.894  22.948   2.120  0.0320 -0.1745  0.0367
70776W        W71640   8.837  25.735   2.113 -0.1446  0.1938  0.0211
70777W        W71641  10.012  22.270  28.255 -0.1622  0.2925  0.1712
70778W        W71642   6.104  23.366   0.092  0.0037 -0.0582 -0.2127
70779W        W71643   8.034  26.095   1.066  0.1508  0.4028 -0.1408
70780W        W71644   7.610  20.617   2.968  0.1543 -0.2677 -0.1301
70781W        W71645   7.731  25.761   5.122 -0.1268 -0.3106  0.3356
70782W        W71646  12.145  23.365   5.303 -0.2027  0.0554 -0.5572
70783W        W71647  10.797  23.112   3.261  0.1075 -0.1246 -0.2448
70784W        W71648   9.225  24.901   5.213 -0.0042 -0.1758  0.1643
70785W        W71649  10.680  21.427  28.785 -0.0122 -0.0067 -0.1135
70786W        W71650  12.134  23.627   0.865 -0.1555 -0.1228 -0.0695
70787W        W71651   5.281  22.767   2.122  0.0514  0.3562 -0.2232
70788W        W71652   5.337  23.511   1.325 -0.1196 -0.1436  0.0792
70789W        W71653  12.501  23.613   2.359  0.1167  0.2106 -0.0779
70790W        W71654   8.964  24.723   1.540 -0.2969  0.0464  0.2198
70791W        W71655  10.421  24.345   2.774  0.2742 -0.1500  0.2293
70792W        W71656   7.058  21.404   4.847  0.0439 -0.0299  0.1497
70793W        W71657   6.794  24.268   3.684  0.1613  0.0780 -0.2273
70794W        W71658   7.494  25.354  26.601  0.0077 -0.0065 -0.0456
70795W        W71659   9.637  24.884   0.661 -0.1640 -0.0816  0.5795
70796W        W71660   7.422  21.277   0.596 -0.0762 -0.0567 -0.1782
70797W        W71661   7.906  26.954   3.855  0.1973 -0.0365  0.2703
70798W        W71662   8.736  23.859   2.309  0.1480 -0.0258 -0.0461
70799W        W71663   7.139  23.468   3.088 -0.0454  0.1870 -0.1179
70800W        W71664   8.781  25.800   1.454  0.4675 -0.1048 -0.1174
70801W        W71665   8.877  26.603   4.748  0.0264  0.3662 -0.0463
70802W        W71666  10.635  24.502   0.464 -0.0196 -0.2912 -0.0747
70803W        W71667   4.899  24.878   4.276  0.2536  0.0739 -0.0420
70804W        W71668   8.940  21.956   3.571  0.1152 -0.3200  0.0411
70805W        W71669   6.385  21.423   0.672  0.0396 -0.1778  0.0619
70806W        W71670   9.157  22.190   1.195  0.4863  0.0380 -0.1164
70807W        W71671  11.050  23.053  29.047  0.3364 -0.1095  0.1422
70808W        W71672  11.308  23.319   1.911 -0.0235  0.0870 -0.1678
70809W        W71673   5.263  24.267   3.692  0.0481 -0.1194  0.2791
70810W        W71674   8.504  25.616   5.502  0.3002 -0.0300 -0.1261
70811W        W71675   9.104  24.294   2.632 -0.2182 -0.1396  0.3104
70812W        W71676   8.400  26.120   1.954 -0.1499 -0.5939  0.1163
70813W        W71677   6.666  27.443   0.038  0.1745  0.2731  0.0551
70814W        W71678  13.548  24.168   4.831  0.1718  0.3875  0.1687
70815W        W71679  10.658  24.877   3.719 -0.0235 -0.0775  0.1366
70816W        W71680   6.301  22.789   1.659 -0.3725  0.0424 -0.0423
70817W        W71681   7.902  23.478   1.712  0.0875 -0.1173 -0.2746
70818W        W71682   9.731  23.517   1.768  0.0126 -0.2570 -0.2325
70819W        W71683   8.070  22.104   2.628 -0.1093 -0.1428 -0.2019
70820W        W71684  13.400  23.239   0.766  0.1232  0.0646  0.0946
70821W        W71685  11.562  23.440   0.507  0.3664 -0.0867  0.0765
70822W        W71686  11.799  22.693   4.397  0.1467 -0.0901  0.2366
70823W        W71687   7.616  23.877   0.870 -0.1164 -0.0604 -0.3189
70824W        W71688   8.828  24.850   2.513 -0.1628 -0.0317  0.1258
70825W        W71689   7.352  20.762   0.512 -0.0593  0.0004  0.0997
70826W        W71690   7.491  26.124   0.540  0.0549  0.1430  0.1002
70827W        W71691   7.938  24.342   4.919  0.0191 -0.0189 -0.0631
70828W        W71692   6.634  28.296   0.909 -0.3467  0.0042 -0.2216
70829W        W71693  10.004  24.468   1.455  0.2887  0.1168  0.2741
70830W        W71694   6.214  22.621   3.547  0.1925  0.1912  0.0433
70831W        W71695  10.608  25.406   2.712 -0.3095  0.0656 -0.1939
70832W        W71696   7.805  26.517  27.863  0.0243 -0.2107 -0.0965
70833W        W71697   8.924  22.340   2.880 -0.0471 -0.2779  0.0122
70834W        W71698  10.834  21.570   2.047 -0.0727 -0.1989 -0.0961
70835W        W71699   7.448  22.990   1.043  0.0831  0.2911 -0.0294
70836W        W71700   9.023  24.829   3.604  0.2557 -0.1781  0.2341
70837W        W71701  11.829  21.403   2.449 -0.2142 -0.0807  0.1677
70838W        W71702   8.737  24.116   5.266 -0.0776  0.5416 -0.1886
70839W        W71703   8.765  25.798   3.769  0.0503 -0.0189  0.2619
70840W        W71704  10.220  21.815  28.128  0.0668  0.2447 -0.2027
70841W        W71705   8.095  25.113   1.131  0.0502 -0.2592 -0.1001
70842W        W71706   9.088  23.714   2.596 -0.0763 -0.1555  0.0367
70843W        W71707   8.754  23.187   1.772  0.0126  0.0179 -0.0937
70844W        W71708   8.022  23.097   2.624 -0.0620 -0.0794 -0.0867
70845W        W71709   7.510  25.433   2.321 -0.0219 -0.1517  0.2138
70846W        W71710   8.431  22.981  29.089 -0.3133 -0.3995  0.2433
70847W        W71711   9.875  23.717   2.613 -0.0682 -0.1600 -0.0921
70848W        W71712   9.256  26.773  28.107  0.0170 -0.0062  0.0052
70849W        W71713   5.147  24.262   2.347 -0.3138  0.0662 -0.1978
70850W        W71714  10.855  20.335  27.281 -0.1317  0.0467  0.1700
70851W        W71715   9.873  23.726   1.224  0.1769  0.1355  0.4370
70852W        W71716   8.477  23.069   2.830 -0.0769 -0.0263 -0.0487
70853W        W71717  11.213  22.085  28.918 -0.3528  0.3025 -0.2433
70854W        W71718  10.269  22.324   2.241  0.2507 -0.0446 -0.3222
70855W        W71719   5.389  23.362   2.138 -0.0518  0.1304  0.2964
70856W        W71720   6.848  24.911   0.160 -0.0118  0.3487  0.2571
70857W        W71721  11.324  24.681   0.903  0.1387  0.0125 -0.3588
70858W        W71722   9.361  22.475   0.223 -0.1013 -0.4449 -0.2470
70859W        W71723  10.465  25.048   3.212 -0.1711 -0.1280 -0.2606
70860W        W71724  12.968  22.329   2.341 -0.0716 -0.1152 -0.1241
70861W        W71725   7.458  24.507   2.306 -0.3555  0.0573 -0.0710
70862W        W71726   4.958  26.622  28.132 -0.2122 -0.0228  0.0210
70863W        W71727   8.050  25.298   4.327  0.0634  0.2066  0.0395
70864W        W71728   5.854  25.985   1.683  0.1243  0.1028 -0.1354
70865W        W71729  12.200  25.482   2.025 -0.3353  0.1668 -0.1802
70866W        W71730  11.337  21.872   0.572 -0.2254  0.0191 -0.0541
70867W        W71731  10.726  24.368   2.324  0.0356  0.1864  0.1020
70868W        W71732  10.038  23.342   2.898  0.0817  0.0320  0.0230
70869W        W71733  10.006  20.577   0.580 -0.0007 -0.0327  0.0051
70870W        W71734   8.614  22.364   1.994  0.2214  0.3093 -0.2966
70871W        W71735   5.549  25.663   2.303  0.0901  0.0553 -0.4259
70872W        W71736   8.711  23.064   1.190 -0.1154  0.1085 -0.0102
70873W        W71737   5.795  25.378   3.275  0.0370 -0.0476 -0.1297
70874W        W71738   9.615  23.025   2.053  0.1183  0.1010  0.0973
70875W        W71739   8.612  26.339   3.795  0.0149  0.0529  0.0282
70876W        W71740   7.186  25.166  28.916  0.1931  0.2003 -0.0408
70877W        W71741   6.831  25.954   3.798 -0.1865 -0.1389 -0.1230
70878W        W71742   8.733  23.263  28.880 -0.1184 -0.1397 -0.0764
70879W        W71743   9.204  21.958   0.340 -0.0215 -0.1227  0.0267
70880W        W71744   6.765  24.701   5.368  0.2144 -0.1378  0.0412
70881W        W71745   8.650  21.865   1.869  0.4144 -0.2821  0.2383
70882W        W71746   7.046  23.976   1.584  0.0175  0.0155 -0.1713
70883W        W71747   8.607  25.654   0.553  0.4481 -0.0516 -0.1523
70884W        W71748   6.568  24.057   3.311  0.3726  0.2375  0.0320
70885W        W71749   8.661  23.893   0.382 -0.3816  0.3001 -0.0930
70886W        W71750   6.423  23.299  28.535  0.0977  0.0438  0.1083
70887W        W71751   5.618  26.941   1.803 -0.0241  0.1451  0.1262
70888W        W71752   8.140  21.071   1.962  0.3959 -0.1032  0.0973
70889W        W71753   6.404  23.625  28.945 -0.2912  0.0549  0.1946
70890W        W71754   9.671  23.076  28.736 -0.0441  0.0361  0.3739
70891W        W71755   7.714  24.731   0.921  0.1259 -0.0368  0.1805
70892W        W71756   9.990  22.394   0.819 -0.1009 -0.1324 -0.4455
70893W        W71757  10.175  21.485   2.046  0.0403  0.2953 -0.0954
70894W        W71758  12.356  24.630   6.118  0.0692 -0.1598  0.2850
70895W        W71759   8.962  25.342   3.937 -0.3756  0.1239 -0.2289
70896W        W71760  11.049  26.071   1.497  0.0085 -0.3195 -0.2698
70897W        W71761  11.145  24.799   4.572 -0.1712 -0.1402 -0.0058
70898W        W71762   7.379  27.113   3.681  0.2379 -0.2544 -0.1499
70899W        W71763   8.330  24.573   2.592 -0.1977 -0.1761 -0.4252
70900W        W71764   9.861  23.086   3.293  0.3472 -0.1738  0.0065
70901W        W71765  10.044  21.305  28.088 -0.0085  0.0033  0.1335
70902W        W71766   8.831  26.014   0.265 -0.3141  0.0190 -0.2045
70903W        W71767   7.453  22.105   4.258  0.0533  0.0751 -0.0285
70904W        W71768   8.507  22.355   2.495  0.0374 -0.2454  0.0541
70905W        W71769   8.401  22.962   2.334 -0.1813 -0.1651 -0.1081
70906W        W71770   7.130  26.026   0.988  0.0459  0.0105  0.0619
70907W        W71771   8.188  26.225  29.082  0.2860 -0.1032  0.0420
70908W        W71772   7.282  23.450   0.984 -0.3891 -0.0217  0.0612
70909W        W71773   6.467  21.143   1.554 -0.1429 -0.0246  0.0863
70910W        W71774   9.654  25.665   2.836 -0.0382 -0.2048 -0.0705
70911W        W71775   9.495  23.708   0.249 -0.1419  0.1374 -0.0354
70912W        W71776   9.987  23.325   4.107  0.2620  0.2009 -0.1491
70913W        W71777  13.546  21.952   0.146 -0.2085  0.0728  0.2388
70914W        W71778   9.840  24.486   4.613 -0.4223  0.1613  0.2278
70915W        W71779   9.729  26.337   2.171  0.0722 -0.1235  0.0159
70916W        W71780   6.144  26.289  27.765 -0.0562  0.1308  0.0009
70917W        W71781   9.520  20.542  26.673  0.1743 -0.1023  0.0109
70918W        W71782   6.887  24.696   3.128 -0.1849 -0.0023 -0.0018
70919W        W71783   8.106  23.945   5.888 -0.1003  0.2965 -0.0069
70920W        W71784   7.752  20.810   3.445  0.1779 -0.0272 -0.1764
70921W        W71785   7.141  22.788   0.282 -0.1745  0.3169 -0.2359
70922W        W71786   8.976  23.468   1.359 -0.1020 -0.1199  0.1306
70923W        W71787   9.288  24.986   2.283 -0.2702 -0.0456 -0.1561
70924W        W71788   8.510  25.917   1.015 -0.2927  0.0275 -0.0324
70925W        W71789  10.990  22.962   1.212 -0.1736 -0.0627 -0.1901
70926W        W71790   7.978  26.910   0.139  0.3264 -0.0735 -0.2727
70927W        W71791   8.925  23.506   5.153  0.0102  0.1224 -0.2336
70928W        W71792   9.820  25.895   4.208 -0.0142 -0.3231 -0.3465
70929W        W71793   5.970  22.880   0.175  0.0456  0.1434  0.0787
70930W        W71794   9.747  22.217   1.230  0.0187 -0.0057 -0.0361
70931W        W71795  10.693  20.694   1.638  0.1538  0.3872 -0.0795
70932W        W71796   9.074  23.484   0.545  0.0426 -0.0655  0.1024
70933W        W71797  14.214  23.063   2.297 -0.0897 -0.3876  0.1973
70934W        W71798   9.539  23.256   2.709 -0.2997  0.3091 -0.0961
70935W        W71799  10.495  26.716   4.070 -0.3408  0.1131  0.3942
70936W        W71800   8.823  26.338   1.299  0.0753 -0.4247 -0.1770
70937W        W71801   6.773  23.071   4.755 -0.0278 -0.0076 -0.3056
70938W        W71802   5.955  23.791   0.496 -0.1811  0.1581  0.4185
70939W        W71803   8.146  25.452   2.313 -0.0073 -0.1236  0.2381
70940W        W71804   9.554  22.294   2.202  0.0154  0.1147 -0.0915
70941W        W71805   7.464  21.924   3.745 -0.1474 -0.2821 -0.0886
70942W        W71806   7.861  24.515   0.176 -0.0847 -0.1611 -0.0471
70943W        W71807   9.231  25.208   0.767 -0.4610  0.0461 -0.3301
70944W        W71808   6.186  23.290   1.765 -0.1376  0.1461  0.2876
70945W        W71809   6.326  24.020   0.103 -0.3101  0.4472 -0.0447
70946W        W71810   8.063  24.041   3.543  0.2826  0.1420  0.0204
70947W        W71811   7.301  21.104   2.238 -0.1956 -0.1325  0.3199
70948W        W71812   9.456  25.134   1.632 -0.0283  0.1814  0.3290
70949W        W71813   7.737  25.397   3.213 -0.2653  0.2012  0.1813
70950W        W71814   6.696  26.504   2.876  0.1151 -0.1301 -0.1008
70951W        W71815   8.134  24.675   3.437  0.1277 -0.1363 -0.2449
70952W        W71816   6.343  23.931   5.836 -0.2283  0.0101 -0.0118
70953W        W71817   7.369  24.356   0.134  0.0193 -0.1042 -0.1248
70954W        W71818  10.355  24.480   1.066 -0.1388 -0.0950 -0.0843
70955W        W71819   9.742  24.750   1.749  0.3815  0.0008 -0.1838
70956W        W71820   5.902  23.509   2.646  0.0309 -0.2483  0.1449
70957W        W71821   6.902  24.229   5.031 -0.1269  0.0801  0.1283
70958W        W71822   9.090  25.357   2.515 -0.3266 -0.1965 -0.0119
70959W        W71823   8.329  23.540   3.576 -0.1375 -0.1050  0.1227
70960W        W71824   8.319  25.819   0.184 -0.2689  0.1337 -0.0741
70961W        W71825   9.551  22.146   0.769 -0.0744 -0.1693  0.0160
70962W        W71826   6.035  26.664   5.128 -0.1939  0.0230  0.0116
70963W        W71827   7.496  24.052   5.096  0.2560  0.2232  0.3413
70964W        W71828   9.871  22.238   5.638  0.0241 -0.0122  0.3176
70965W        W71829  11.357  25.824   6.092  0.1123 -0.3172 -0.2659
70966W        W71830  11.181  25.827   6.621 -0.0090 -0.1198  0.0549
70967W        W71831   6.709  26.109   6.268 -0.2716 -0.0504 -0.3387
70968W        W71832  10.386  23.722   4.655 -0.1265  0.0327  0.0764
70969W        W71833   7.296  27.589   3.896  0.2130  0.1142  0.1267
70970W        W71834  11.876  23.096   4.920 -0.3294  0.1642  0.0600
70971W        W71835   9.005  23.537   9.315 -0.1973 -0.0431 -0.2193
70972W        W71836   8.417  21.391   5.797  0.1852  0.0727  0.0920
70973W        W71837   9.403  24.040   6.848  0.0735  0.1301 -0.0715
70974W        W71838  10.277  22.916   4.021 -0.3722 -0.1562  0.2497
70975W        W71839   8.608  22.362   9.944 -0.0087  0.0201  0.0190
70976W        W71840   8.633  21.042   5.397  0.1433 -0.2059 -0.0701
70977W        W71841   6.116  24.917  10.143 -0.0794 -0.1815  0.0992
70978W        W71842   7.162  24.450   5.533 -0.4841  0.2082 -0.1010
70979W        W71843   7.252  21.215   5.639 -0.0840 -0.1663 -0.1630
70980W        W71844   8.126  25.174   7.173 -0.2446 -0.1188 -0.0050
70981W        W71845  12.911  21.572   6.684 -0.1184 -0.0002 -0.1102
70982W        W71846   8.896  22.652   6.835  0.0672  0.2496 -0.0464
70983W        W71847   8.720  22.386   5.631  0.0432 -0.0362  0.0929
70984W        W71848  10.234  23.165   3.580 -0.1121 -0.2263  0.2202
70985W        W71849   9.287  25.288   2.985 -0.1930 -0.3733 -0.2066
70986W        W71850   7.421  22.343   4.744 -0.2309  0.2007 -0.0507
70987W        W71851   7.571  22.845   6.921 -0.3226  0.1680  0.0595
70988W        W71852   7.796  22.298   6.264 -0.0519  0.0992  0.0079
70989W        W71853   5.993  26.468   5.958  0.0669  0.1857  0.0342
70990W        W71854  10.661  23.414   6.246 -0.0407  0.1354  0.1303
70991W        W71855   8.266  21.934   4.226 -0.2458 -0.1107  0.1347
70992W        W71856   5.325  20.032   6.435  0.2161  0.3968  0.1221
70993W        W71857   9.199  25.532   8.045 -0.1310 -0.2615 -0.1466
70994W        W71858   9.997  23.127   6.818  0.2593  0.1787 -0.2067
70995W        W71859   7.626  22.625   4.341 -0.0530  0.1492 -0.2391
70996W        W71860   7.039  22.431   5.108 -0.2528 -0.1882 -0.1447
70997W        W71861   9.233  24.587   7.065 -0.0183 -0.1497  0.0446
70998W        W71862   8.160  22.476   4.422 -0.3782  0.1130 -0.3772
70999W        W71863   8.357  24.899   7.498  0.1814 -0.0548  0.1278
71000W        W71864  12.548  24.307   5.059 -0.4605 -0.0601 -0.1214
71001W        W71865  12.133  21.802   7.440  0.1591  0.0109  0.1327
71002W        W71866  14.017  24.606   4.129  0.0459  0.1809 -0.0698
71003W        W71867  11.170  24.027   6.368 -0.1281 -0.1664  0.0903
71004W        W71868   7.993  25.798   5.619  0.0088  0.0844  0.3458
71005W        W71869   9.630  26.316   5.868 -0.0044 -0.0948  0.0676
71006W        W71870   6.458  24.776   3.816 -0.1151  0.0112  0.0775
71007W        W71871   7.514  25.268   4.371 -0.1192  0.2167 -0.3392
71008W        W71872  10.647  19.096   6.316 -0.5009  0.1259  0.0580
71009W        W71873  12.036  22.057   5.907  0.0379  0.5580  0.2083
71010W        W71874   9.866  25.667   5.217 -0.2946  0.3289 -0.1969
71011W        W71875   8.571  24.702   3.861 -0.0891  0.0707  0.1587
71012W        W71876   9.334  25.811   5.063 -0.1358 -0.0456 -0.0936
71013W        W71877  11.333  21.873   3.898 -0.0954 -0.1892  0.2425
71014W        W71878   9.930  24.999   6.109  0.0512 -0.1346  0.4451
71015W        W71879  10.662  24.596   3.165 -0.0222  0.1193 -0.2208
71016W        W71880  10.391  23.628   4.153 -0.1995 -0.2671 -0.0164
71017W        W71881   6.314  25.656   2.531 -0.1634 -0.1149  0.2157
71018W        W71882   6.260  23.061   4.848  0.0453  0.1183  0.0972
71019W        W71883  12.666  22.818   5.095  0.1146 -0.0907  0.0615
71020W        W71884   7.154  25.182   5.669  0.0124  0.0456  0.0070
71021W        W71885   9.283  25.186   4.331 -0.0088  0.2145  0.1796
71022W        W71886  11.274  24.458   1.484 -0.0948 -0.0864  0.3423
71023W        W71887   5.563  24.970   9.275 -0.1464  0.0548  0.1914
71024W        W71888   8.726  24.308   6.194  0.0005  0.2022  0.1084
71025W        W71889  10.731  24.000   3.148 -0.0075  0.1591  0.0944
71026W        W71890   7.147  21.966   4.895  0.0431 -0.0076 -0.2468
71027W        W71891  12.185  22.824   9.210  0.2028  0.0887 -0.3416
71028W        W71892   7.231  22.837   1.455  0.0115 -0.2551 -0.3033
71029W        W71893   5.204  24.695   4.665 -0.2324 -0.0819 -0.0782
71030W        W71894   8.257  23.425   4.984 -0.3336 -0.1553  0.2463
71031W        W71895   8.385  23.685   1.799  0.1002 -0.0216 -0.2037
71032W        W71896  11.003  26.512   7.657 -0.1143  0.1607 -0.0850
71033W        W71897  10.553  22.308   5.129 -0.0790 -0.1771  0.1744
71034W        W71898  10.324  27.207   5.871  0.0482  0.1699 -0.2880
71035W        W71899   7.760  20.833   5.728 -0.1267  0.0105  0.0185
71036W        W71900   9.404  25.907   3.315 -0.1223  0.1056  0.1389
71037W        W71901   8.862  22.991   7.484  0.3692 -0.1918  0.2750
71038W        W71902   8.569  21.875   6.087  0.3675 -0.1773  0.1570
71039W        W71903  10.669  23.924   5.637  0.0244 -0.0031  0.0451
71040W        W71904  10.684  21.612   4.227 -0.2777  0.2671 -0.1387
71041W        W71905   8.433  25.178   2.642  0.0243 -0.0425  0.1091
71042W        W71906  10.641  23.282   3.910  0.1378 -0.3190  0.1190
71043W        W71907   9.958  23.980   6.797 -0.0143 -0.1480  0.0447
71044W        W71908   6.280  20.658   4.241  0.0454 -0.0203 -0.0337
71045W        W71909  10.224  23.989   8.650 -0.1712 -0.1468  0.0013
71046W        W71910   7.199  21.157   7.627  0.0547 -0.1569  0.0882
71047W        W71911  11.657  26.140   5.122 -0.2635 -0.0407 -0.0496
71048W        W71912  12.502  24.889   7.868 -0.1092  0.2188 -0.1901
71049W        W71913   9.677  21.675   6.806  0.0997 -0.0814  0.4099
71050W        W71914   8.947  22.368   7.286 -0.0703 -0.1554  0.2066
71051W        W71915  12.636  23.452   6.685  0.1439  0.0032 -0.2057
71052W        W71916  10.173  23.694   3.736  0.1907  0.2517 -0.0222
71053W        W71917   8.255  21.208   6.780  0.1649 -0.1295  0.1285
71054W        W71918   7.597  25.179   6.022  0.4334  0.1431 -0.3645
71055W        W71919  11.432  24.037   4.018 -0.0110  0.1468  0.1451
71056W        W71920   6.932  20.853   8.563  0.0541  0.3914 -0.2265
71057W        W71921  10.971  24.400   2.805  0.0032  0.1485 -0.2512
71058W        W71922  13.063  24.833   2.033  0.4044 -0.0056  0.0153
71059W        W71923   8.732  26.542   6.829 -0.0220 -0.2244 -0.1608
71060W        W71924   8.451  21.825   3.733  0.1061 -0.0374  0.2858
71061W        W71925  13.500  24.214   5.347  0.0473  0.1999  0.0441
71062W        W71926  13.980  28.314   3.113 -0.0796  0.0910  0.2048
71063W        W71927   8.587  21.591   4.380  0.2946 -0.2326  0.2406
71064W        W71928  11.446  21.363   3.768  0.0181 -0.2060  0.1728
71065W        W71929   9.647  26.097   9.632 -0.1107  0.1773  0.1803
71066W        W71930  10.924  21.169   6.613  0.0890 -0.2278  0.1783
71067W        W71931  11.314  24.708   7.046 -0.0424  0.1832  0.0539
71068W        W71932  10.026  22.899   4.463  0.2337 -0.1541  0.1221
71069W        W71933   8.866  21.539   5.626  0.2640 -0.1030 -0.0243
71070W        W71934  12.101  23.928   5.138 -0.0616  0.1250 -0.0493
71071W        W71935   9.646  25.536   3.467  0.4622  0.0474  0.2509
71072W        W71936   8.528  23.227   5.347 -0.0531 -0.0700 -0.0549
71073W        W71937  11.114  23.990   3.580  0.3069 -0.0536 -0.2277
71074W        W71938  11.566  20.761   5.471  0.1938  0.2077  0.2489
71075W        W71939   9.640  26.042   4.681  0.1420 -0.0929  0.0844
71076W        W71940  11.965  25.910   1.629 -0.0332 -0.0608 -0.3300
71077W        W71941   8.615  25.174   3.573  0.0101 -0.1810 -0.1653
71078W        W71942  10.249  22.465   6.850  0.1903 -0.2516 -0.1046
71079W        W71943  10.191  22.117   6.019 -0.0220  0.3368 -0.0893
71080W        W71944  10.779  26.607   5.205  0.0888  0.0408 -0.0077
71081W        W71945   8.182  24.281   5.333 -0.1208  0.0025  0.1106
71082W        W71946  12.478  23.380   4.282 -0.1559  0.2060  0.2429
71083W        W71947   9.923  27.308   6.705 -0.1930  0.0348 -0.3363
71084W        W71948  12.145  23.302   7.618 -0.0719 -0.1367  0.2281
71085W        W71949  10.077  24.485   3.151  0.2233  0.0993 -0.0959
71086W        W71950  10.115  23.706   5.137 -0.0534 -0.0153 -0.1409
71087W        W71951  10.097  21.646   5.818  0.2398 -0.2639 -0.4169
71088W        W71952   8.048  20.431   7.601  0.2632  0.0951  0.0802
71089W        W71953  10.815  24.111   7.272 -0.0320  0.1613  0.1944
71090W        W71954  11.982  27.482   4.598 -0.0448  0.0612  0.1041
71091W        W71955   6.226  24.960   4.722  0.0314  0.2319 -0.0765
71092W        W71956   7.621  26.302   5.459 -0.0068 -0.1569 -0.0186
71093W        W71957  12.390  23.207   6.327  0.1177 -0.1675 -0.0690
71094W        W71958   9.258  27.815   3.327  0.2366 -0.0195 -0.0427
71095W        W71959   6.808  23.539   4.581 -0.3299 -0.0711 -0.1441
71096W        W71960  11.991  22.620   5.690 -0.1173  0.0159  0.3215
71097W        W71961   6.784  21.373   5.592  0.3367 -0.0098 -0.2137
71098W        W71962  11.942  20.877   6.667  0.1579 -0.1691  0.0007
71099W        W71963  10.108  22.716   5.898  0.0385  0.1076 -0.0426
71100W        W71964  10.574  23.916   5.091 -0.0474 -0.2253 -0.0694
71101W        W71965   9.396  25.326   5.832  0.0820 -0.0078 -0.0236
71102W        W71966   9.526  21.839   5.658 -0.4479  0.1964 -0.0838
71103W        W71967   8.499  20.670   7.014 -0.2086 -0.0183 -0.0695
71104W        W71968   8.270  25.727   2.950 -0.1268  0.1711  0.1263
71105W        W71969   8.194  24.381   6.093 -0.4395  0.0761  0.0551
71106W        W71970   7.868  23.984   7.384  0.2864 -0.2292 -0.1175
71107W        W71971  11.450  22.707   4.863  0.1474  0.1669 -0.0523
71108W        W71972  10.863  23.030   5.572  0.1165 -0.2479 -0.1919
71109W        W71973   9.800  27.480   5.838 -0.0636 -0.0281 -0.0062
71110W        W71974   9.132  25.267   6.364  0.0896  0.0983 -0.1246
71111W        W71975   8.923  23.882   6.471 -0.0332  0.0317  0.3495
71112W        W71976   8.492  24.760   6.394 -0.0501 -0.0662  0.0989
71113W        W71977   9.157  19.700   3.473 -0.0822  0.0628  0.1432
71114W        W71978   7.455  23.510   4.027 -0.1057  0.2945  0.1205
71115W        W71979   9.310  21.926   3.971 -0.2994 -0.0696  0.1751
71116W        W71980   8.782  20.897   4.728  0.1929  0.0569 -0.0140
71117W        W71981  10.271  25.016   3.998 -0.0309 -0.0072  0.1436
71118W        W71982   8.026  22.624   2.424  0.1535 -0.0950  0.2967
71119W        W71983   8.287  23.504   2.268 -0.0968  0.0009 -0.1572
71120W        W71984   5.965  24.939   1.875  0.2667  0.1570 -0.0692
71121W        W71985   9.181  26.603   2.573  0.3076  0.0464 -0.1018
71122W        W71986  11.114  21.263   6.162  0.0544 -0.0813  0.3317
71123W        W71987   9.180  23.003   6.022 -0.1196  0.1156 -0.1715
71124W        W71988   9.713  24.494   6.990  0.0420 -0.2553  0.3951
71125W        W71989   7.997  23.392   7.209 -0.3378  0.2132  0.1807
71126W        W71990   9.537  21.029  10.580  0.3144 -0.0301  0.2748
71127W        W71991   8.563  23.831   6.080 -0.2004 -0.0204 -0.1856
71128W        W71992   9.589  22.119   5.145  0.0491  0.1473  0.2906
71129W        W71993   8.533  22.274   6.806 -0.2854  0.2966  0.0756
71130W        W71994  11.248  23.808   5.671 -0.0107  0.0639  0.0953
71131W        W71995   3.996  20.614   2.924  0.1277 -0.0302 -0.0942
71132W        W71996   9.824  21.885   3.778  0.1497 -0.0627 -0.0018
71133W        W71997  10.813  21.869   5.359 -0.1706 -0.2696 -0.4809
71134W        W71998  10.328  22.203   4.669  0.0761  0.0060 -0.0179
71135W        W71999   9.743  22.757   4.022 -0.1890  0.1679  0.0285
71136W        W72000  10.499  22.971   5.180 -0.1523 -0.4017 -0.2377
71137W        W72001  10.278  26.749   5.560 -0.0268  0.0451 -0.0101
71138W        W72002   7.853  22.738   5.623  0.0337 -0.0006 -0.1134
71139W        W72003   8.478  24.597   4.759 -0.1256  0.0995  0.1753
71140W        W72004   2.538  22.953   3.479 -0.1402 -0.1265  0.1579
71141W        W72005  10.044  24.557   5.572 -0.4780  0.2874 -0.1604
71142W        W72006   5.015  25.321   0.998 -0.1112 -0.0439 -0.3218
71143W        W72007  10.840  23.872   4.379  0.1196  0.1676  0.2876
71144W        W72008   8.279  24.969   2.099  0.0072  0.0959 -0.0302
71145W        W72009  10.310  20.960   4.571  0.1771 -0.3266 -0.1526
71146W        W72010   8.670  24.125   4.767 -0.2504  0.0688 -0.0781
71147W        W72011   9.544  25.290   7.060 -0.2700 -0.0299 -0.0672
71148W        W72012  10.845  22.454   4.670 -0.2045  0.0029  0.0706
71149W        W72013   5.880  20.836   3.942 -0.1651 -0.1601  0.1447
71150W        W72014   8.384  21.684   6.545 -0.0427  0.2618  0.0465
71151W        W72015   8.906  23.933   4.334  0.1224  0.0253 -0.1785
71152W        W72016   7.758  23.830   4.365 -0.0001 -0.1318  0.0025
71153W        W72017   7.406  26.629   5.760 -0.0066 -0.1048  0.0518
71154W        W72018   9.662  23.175   4.793  0.1493  0.1226 -0.1238
71155W        W72019   7.599  21.758   7.963  0.0575  0.1456  0.1211
71156W        W72020   9.797  22.897   6.292 -0.1025  0.1686 -0.0654
71157W        W72021  12.546  20.055   7.273 -0.0708  0.0744  0.4460
71158W        W72022   7.590  21.533   6.815 -0.3737  0.2560  0.2329
71159W        W72023   7.471  22.770   5.950  0.3102 -0.2950  0.0240
71160W        W72024   6.975  24.778   3.622 -0.4198 -0.2834  0.0285
71161W        W72025  11.741  20.495   3.352  0.3540  0.0316  0.0727
71162W        W72026   7.854  22.637   0.940 -0.2312  0.4338  0.0979
71163W        W72027  10.576  22.986   5.998 -0.1997  0.2542 -0.3413
71164W        W72028  10.236  24.690   1.884 -0.0182  0.2696  0.2202
71165W        W72029   7.861  22.478   5.042 -0.0491 -0.0069 -0.1875
71166W        W72030   7.585  21.699   5.622 -0.0971 -0.0792 -0.2663
71167W        W72031   9.199  22.553   4.201 -0.1886  0.1482  0.1994
71168W        W72032   9.789  25.577   6.176  0.0104  0.1148  0.0547
71169W        W72033   8.747  25.046   5.168  0.1184  0.0615  0.0487
71170W        W72034   8.327  24.224   1.637  0.2422  0.0011  0.2030
71171W        W72035   7.775  24.960   5.139 -0.2336  0.2172  0.0245
71172W        W72036  10.072  25.299   6.470  0.0497  0.1612  0.0120
71173W        W72037   7.202  23.256   6.823 -0.0835 -0.1737 -0.1649
71174W        W72038   9.578  23.266   7.142 -0.0553  0.0675  0.0581
71175W        W72039  13.424  20.941   4.286  0.0737 -0.2432  0.1492
71176W        W72040   9.373  22.340   5.518  0.2289 -0.0762 -0.1061
71177W        W72041  10.591  23.990   3.809  0.1308 -0.0893 -0.5264
71178W        W72042  12.615  25.137   3.672  0.0817  0.0845  0.0359
71179W        W72043  11.521  25.520   3.162 -0.0207  0.0912 -0.0559
71180W        W72044   8.769  25.752   6.803  0.0249 -0.0868 -0.0281
71181W        W72045   8.995  24.509   4.987  0.2330  0.0902  0.3253
71182W        W72046  10.628  22.559   7.397  0.2582 -0.0447 -0.1196
71183W        W72047  10.875  22.548   5.592 -0.1527 -0.1564  0.1216
71184W        W72048   8.885  25.414   4.489  0.0252  0.2752 -0.2561
71185W        W72049   9.938  23.584   3.342 -0.1722 -0.2464 -0.1801
71186W        W72050   8.655  26.810   3.951  0.1426 -0.3270 -0.3877
71187W        W72051   8.854  21.970   5.376 -0.2235 -0.0297  0.0898
71188W        W72052  11.564  24.749   8.392 -0.0056 -0.0223  0.0046
71189W        W72053  10.840  24.408   4.422 -0.1689 -0.0624  0.1369
71190W        W72054  12.685  25.606   4.472  0.0761 -0.0074  0.2837
71191W        W72055   9.727  23.750   3.896 -0.2654  0.0174  0.1435
71192W        W72056   8.119  22.286   5.862  0.1045  0.1084  0.0809
71193W        W72057   8.625  23.493   6.450  0.3780 -0.0207 -0.1209
71194W        W72058   7.697  24.484   5.309  0.0935  0.1534  0.0181
71195W        W72059  10.608  26.300   1.158  0.5036  0.2948 -0.5652
71196W        W72060   6.673  23.228   6.040  0.1398 -0.1522 -0.1450
71197W        W72061  11.572  25.017   4.459  0.0089  0.0922  0.1720
71198W        W72062   9.039  25.393   5.376  0.2155 -0.3060  0.1556
71199W        W72063   8.005  19.905   6.208  0.0235  0.1887  0.0103
71200W        W72064  11.456  24.510   5.505 -0.0507 -0.0990  0.0835
71201W        W72065  12.462  25.497   4.887 -0.0662  0.1705 -0.3422
71202W        W72066  10.504  24.256   6.438 -0.0783  0.1806 -0.2177
71203W        W72067   7.210  23.848   5.534 -0.2079 -0.4399  0.1702
71204W        W72068   7.183  23.339   4.379 -0.0726  0.1985 -0.0549
71205W        W72069   7.274  23.992   4.178  0.0261 -0.1318 -0.0922
71206W        W72070  12.671  24.711   6.485  0.2982  0.1071 -0.0968
71207W        W72071  10.059  25.054   5.321  0.4297  0.1977  0.0301
71208W        W72072  11.001  22.953   7.305 -0.2388  0.1533  0.1496
71209W        W72073   8.314  22.685   5.453 -0.0172  0.0514  0.0075
71210W        W72074  10.670  25.297   0.212  0.3523 -0.2219 -0.0411
71211W        W72075   9.108  21.948   4.933 -0.1093 -0.0907 -0.0058
71212W        W72076   9.107  24.014   3.378  0.0002 -0.1480  0.0759
71213W        W72077   6.657  27.084   4.508 -0.0616  0.0225  0.1936
71214W        W72078   9.547  24.604   8.531 -0.1083 -0.1517 -0.1379
71215W        W72079  10.526  26.544   7.361 -0.0206  0.0507  0.0339
71216W        W72080   6.517  25.148   3.388 -0.3503  0.0521 -0.1011
71217W        W72081   8.967  26.499   5.832  0.2353  0.1605 -0.2131
71218W        W72082  12.005  23.150   4.454 -0.3740 -0.0325 -0.0770
71219W        W72083   9.790  22.676   5.404 -0.0304 -0.1694 -0.2196
71220W        W72084  10.827  22.944   4.614 -0.1224  0.1699 -0.1873
71221W        W72085   9.503  21.602   5.111 -0.2324 -0.2218  0.0082
71222W        W72086  10.849  22.827   3.935 -0.1048  0.2070  0.1225
71223W        W72087   7.165  26.282   5.988 -0.1182  0.3429  0.0106
71224W        W72088  10.813  22.688   6.388 -0.0095 -0.1012 -0.1590
71225W        W72089   8.802  25.999   8.462  0.0119 -0.1507  0.2027
71226W        W72090   7.799  23.582   3.426  0.0229 -0.1013  0.2049
71227W        W72091   8.585  25.269   6.592 -0.2539  0.0762  0.2795
71228W        W72092   5.472  21.632   3.514  0.1450  0.1443 -0.3019
71229W        W72093  11.351  25.018   5.530  0.0374  0.0052  0.1596
71230W        W72094   9.464  22.212   6.559 -0.2545  0.2700  0.1337
71231W        W72095  12.118  24.590   4.521 -0.1651 -0.0793  0.1757
71232W        W72096   8.388  23.230   4.073 -0.0164  0.1463  0.1852
71233W        W72097  11.509  22.685   6.389 -0.0615 -0.0278 -0.0960
71234W        W72098  10.786  22.372   6.802 -0.3406  0.3193 -0.1667
71235W        W72099   9.048  21.803   4.394 -0.1279  0.1544  0.4918
71236W        W72100   8.967  25.492   5.841  0.0428 -0.0076 -0.2029
71237W        W72101   9.882  21.726   6.300  0.3226 -0.2298 -0.3751
71238W        W72102   8.862  23.846   8.422 -0.0687  0.1805  0.1890
71239W        W72103   9.121  23.414   4.655  0.2144 -0.2203  0.0302
71240W        W72104   7.395  23.244   3.466 -0.1756 -0.0407 -0.0081
71241W        W72105   8.081  25.387   5.223  0.0554 -0.0849 -0.0616
71242W        W72106   9.452  23.493   2.234  0.1089  0.0491  0.1566
71243W        W72107   7.750  22.884   1.550  0.1429 -0.3787 -0.4899
71244W        W72108   6.484  24.459   5.813 -0.2231  0.2378 -0.1775
71245W        W72109   4.086  25.074   8.381  0.0232 -0.0334  0.0308
71246W        W72110  11.500  23.561   3.807 -0.0150  0.3117 -0.2735
71247W        W72111   8.708  24.677   7.161 -0.0983  0.1363  0.0138
71248W        W72112   9.543  24.014   7.718 -0.1433  0.4894 -0.0025
71249W        W72113   9.471  24.502   6.527 -0.1149 -0.0670 -0.2134
71250W        W72114  11.029  21.914   3.498  0.0005  0.0556  0.2526
71251W        W72115  11.185  25.357   4.342 -0.0586  0.1232  0.1067
71252W        W72116   7.461  23.257   1.670 -0.1188 -0.1650 -0.1790
71253W        W72117   9.155  23.113   3.349 -0.2107  0.0370 -0.2140
71254W        W72118  10.632  24.508   4.823 -0.0084 -0.0776 -0.0790
71255W        W72119   7.561  23.499   5.282  0.2835 -0.0457 -0.1514
71256W        W72120   8.359  25.132   4.754 -0.0014 -0.0106  0.0904
71257W        W72121   9.791  24.027   1.622 -0.1778  0.0548 -0.0134
71258W        W72122   8.871  22.238   4.524 -0.1677 -0.0991 -0.0728
71259W        W72123  10.773  23.389   4.410  0.1715 -0.1834 -0.0859
71260W        W72124  12.294  20.531   5.755  0.0035 -0.0240  0.0037
71261W        W72125   7.873  22.291   4.050  0.1809  0.2101  0.0125
71262W        W72126   7.161  26.507   5.174  0.1117  0.0865  0.2010
71263W        W72127   9.330  20.607   8.206  0.1958  0.0185 -0.0365
71264W        W72128   9.016  23.229   6.580  0.1460 -0.1838  0.0844
71265W        W72129  10.999  24.231   5.404  0.1052  0.1435  0.3917
71266W        W72130   9.205  23.019   2.362  0.0220 -0.1111  0.0524
71267W        W72131  10.268  25.552   5.465 -0.0162 -0.1879 -0.1139
71268W        W72132   9.570  23.493   7.581  0.0948  0.0306 -0.0191
71269W        W72133  11.153  21.635   4.390  0.1519  0.1389  0.0222
71270W        W72134   8.913  21.629   3.934 -0.1912 -0.2581  0.0534
71271W        W72135   5.481  25.035   3.524  0.0585 -0.3338  0.0555
71272W        W72136   9.919  22.773   2.833  0.0140 -0.0706 -0.2852
71273W        W72137   8.193  24.073   9.986 -0.0920 -0.1110 -0.2415
71274W        W72138  10.814  20.602   1.149 -0.0266  0.2202  0.1724
71275W        W72139   9.811  21.562   3.363 -0.0753  0.2861  0.2703
71276W        W72140   6.395  24.728   8.188  0.0367  0.1318 -0.4008
71277W        W72141   8.612  24.674   5.886  0.3499 -0.1329  0.1504
71278W        W72142   8.048  22.182   2.138  0.0253  0.3264 -0.0111
71279W        W72143   8.889  24.921   4.165  0.0051  0.0734  0.3260
71280W        W72144  10.509  27.150   5.123 -0.0419  0.1452 -0.3947
71281W        W72145   7.185  23.729   3.641  0.2267  0.1768 -0.2099
71282W        W72146   6.441  27.872   5.511  0.3677  0.0302  0.0463
71283W        W72147  11.009  25.925   2.542  0.3053  0.1924  0.2283
71284W        W72148   7.870  23.886   5.433 -0.1202  0.3417 -0.0381
71285W        W72149  10.289  26.556   4.980  0.1399 -0.3919  0.1151
71286W        W72150   7.287  22.816   4.695  0.0865 -0.0546 -0.0812
71287W        W72151   9.461  24.484   5.515 -0.1285 -0.0077  0.0581
71288W        W72152  11.371  23.292   5.652 -0.1083  0.0436  0.1349
71289W        W72153   5.293  23.306   0.698 -0.0101  0.0353  0.0577
71290W        W72154   9.793  22.343   3.226  0.0880 -0.4939 -0.2356
71291W        W72155   7.194  23.114   2.232 -0.0835 -0.1429 -0.0026
71292W        W72156   9.177  22.994   7.106  0.1370  0.2178  0.0353
71293W        W72157  10.201  24.081   2.335 -0.0915 -0.3656  0.2790
71294W        W72158  13.838  24.312   9.688 -0.1186  0.0150  0.0822
71295W        W72159  11.319  26.408   5.873 -0.3646  0.0157  0.1144
71296W        W72160   9.392  24.932   6.721 -0.2939  0.0596  0.0149
71297W        W72161  12.948  24.156   6.291  0.2959  0.1684  0.2443
71298W        W72162   7.290  25.562   6.029  0.3534  0.2075 -0.1945
71299W        W72163  10.338  22.976   3.122 -0.0506  0.0628 -0.2436
71300W        W72164  11.606  21.813   5.417 -0.2745 -0.0832 -0.2019
71301W        W72165   6.809  23.089   3.445 -0.0853 -0.1074 -0.0807
71302W        W72166   9.361  24.738   4.734  0.2663 -0.3004  0.0114
71303W        W72167   6.258  22.187   5.751 -0.1613  0.1511  0.0592
71304W        W72168  10.177  22.192   3.525  0.2076 -0.0183 -0.3233
71305W        W72169   8.190  26.435   5.645 -0.0504 -0.1577  0.0658
71306W        W72170   8.986  24.413   5.632  0.0323  0.3150 -0.2587
71307W        W72171   9.714  24.904   4.414  0.0730  0.1761 -0.0652
71308W        W72172   4.969  22.947   3.038 -0.0287 -0.3645  0.0313
71309W        W72173   6.877  20.089   6.519 -0.0094 -0.2923  0.5014
71310W        W72174   7.151  26.280   4.023  0.0845  0.3454 -0.0968
71311W        W72175   8.276  24.259   2.166  0.0047  0.0738 -0.0101
71312W        W72176  11.898  23.822   3.912  0.3255 -0.0766  0.2320
71313W        W72177  10.431  22.740   4.704 -0.0231 -0.1194 -0.0940
71314W        W72178  11.850  24.618   9.296  0.0622  0.0200 -0.0297
71315W        W72179   9.333  25.647   4.552 -0.0025  0.0814  0.1005
71316W        W72180   8.584  25.922   4.270 -0.0534  0.1959  0.2949
71317W        W72181  10.948  21.476   3.816 -0.1153  0.5488 -0.2532
71318W        W72182   6.352  24.816   6.738  0.0911 -0.2625  0.0402
71319W        W72183   8.403  25.435   7.557  0.2308  0.2332  0.2591
71320W        W72184   6.611  25.424   5.512 -0.0216  0.0438 -0.0969
71321W        W72185   8.812  23.347   3.686 -0.0210 -0.1266  0.2049
71322W        W72186   8.312  22.374   3.925  0.1849  0.0020 -0.0508
71323W        W72187   9.042  22.416   5.079 -0.1849 -0.0678  0.0549
71324W        W72188  12.136  23.708   6.570 -0.0012 -0.3868 -0.1453
71325W        W72189   9.407  21.100   5.146 -0.1071 -0.2414 -0.0366
71326W        W72190   6.620  25.860   5.288 -0.2919 -0.1010  0.1308
71327W        W72191   9.468  23.141   4.161 -0.2555  0.1633 -0.0540
71328W        W72192   8.727  27.358   5.918 -0.1020  0.1260 -0.3721
71329W        W72193   8.188  23.088   3.611  0.1655 -0.0117  0.0493
71330W        W72194   8.306  22.530   2.894  0.1848  0.0267  0.1831
71331W        W72195  10.183  20.906   7.149 -0.2242  0.0841 -0.0244
71332W        W72196   3.437  24.289   3.386 -0.1252 -0.0999 -0.1360
71333W        W72197  11.508  24.049   5.212  0.1475 -0.1147 -0.2162
71334W        W72198   7.761  22.800   3.550  0.0204 -0.1657 -0.4002
71335W        W72199  13.921  23.408   4.681  0.3569 -0.2514  0.1234
71336W        W72200  10.475   0.457   2.943  0.0284  0.0444  0.0138
71337W        W72201   9.255  23.182   9.050  0.1410 -0.0043 -0.0777
71338W        W72202   8.918  23.842   3.792 -0.1698  0.1133 -0.0812
71339W        W72203   9.843  24.438   7.487 -0.2034  0.0379  0.2889
71340W        W72204  10.296  24.602   6.118 -0.1423  0.0956 -0.1831
71341W        W72205   8.939  24.974   4.695  0.2039 -0.0364 -0.0089
71342W        W72206   7.846  21.915   4.422  0.1488 -0.1507  0.0082
71343W        W72207   7.063  25.353   4.555 -0.0862  0.0299  0.0784
71344W        W72208   9.415  24.949   3.334  0.1024 -0.2438  0.2808
71345W        W72209  10.030  23.486   7.179 -0.2439 -0.4101  0.1588
71346W        W72210  11.432  24.890   8.857 -0.1714 -0.1042 -0.2406
71347W        W72211   8.958  20.748   7.795 -0.0338  0.0622 -0.2671
71348W        W72212  10.448  26.254   6.970 -0.1300  0.1447  0.0294
71349W        W72213   8.432  22.259   5.164 -0.0619 -0.3744  0.0238
71350W        W72214   8.952  23.251   5.595 -0.2575 -0.1634 -0.1894
71351W        W72215   9.537  23.656   4.379  0.2088 -0.2740 -0.0876
71352W        W72216   6.923  21.876   6.279  0.2437 -0.2256 -0.1989
71353W        W72217   7.491  24.635   1.431  0.0287  0.3554  0.5771
71354W        W72218  10.339  24.167   4.365  0.1602  0.0103  0.2241
71355W        W72219  10.756  23.738   6.628 -0.0721  0.1857  0.0505
71356W        W72220   8.149  25.080   6.158 -0.1230  0.4338 -0.1546
71357W        W72221   8.930  20.844   7.269  0.3411 -0.0655 -0.2606
71358W        W72222   8.258  26.381   6.734  0.0954  0.1959  0.1314
71359W        W72223   9.823  23.691   6.050 -0.2273  0.0935  0.3149
71360W        W72224   9.476  23.508   3.180  0.1317  0.1371 -0.1287
71361W        W72225   7.483  24.495   4.667  0.2757  0.1055  0.1291
71362W        W72226   8.713  26.929  11.995 -0.0616 -0.1104  0.3488
71363W        W72227   9.255  24.893  11.091 -0.1521  0.2532 -0.3322
71364W        W72228  14.435  25.580   7.854 -0.2193  0.2727  0.3770
71365W        W72229  10.636  25.373   9.877 -0.3398  0.0019 -0.0687
71366W        W72230  11.495  25.775   7.302 -0.0702  0.1247 -0.2086
71367W        W72231   7.514  24.483  12.284 -0.1345  0.1811 -0.0781
71368W        W72232   8.234  21.941   9.814 -0.1104 -0.0958 -0.1716
71369W        W72233   8.061  23.121   7.883 -0.0144 -0.2400  0.2258
71370W        W72234   8.432  22.949  10.145 -0.0999 -0.1641  0.1622
71371W        W72235   9.528  22.274  11.474 -0.1686 -0.1042 -0.0088
71372W        W72236   8.906  20.811   9.178 -0.0828 -0.1357  0.0490
71373W        W72237   8.021  24.982   9.816  0.0234  0.0093  0.0012
71374W        W72238   8.417  23.957   6.581  0.0344 -0.1485 -0.2420
71375W        W72239  10.048  22.157  10.326 -0.2117 -0.2378  0.2109
71376W        W72240  10.755  22.668  11.049 -0.1292 -0.1288 -0.1043
71377W        W72241   8.470  24.202  13.004  0.1055  0.2284 -0.1299
71378W        W72242   9.586  22.673   5.860  0.2612 -0.0049  0.1372
71379W        W72243   7.387  24.778  11.884  0.0893  0.1092  0.0894
71380W        W72244   8.046  23.398   8.296 -0.1322  0.2549  0.0617
71381W        W72245  12.086  19.519  10.912  0.0841 -0.2089  0.2178
71382W        W72246  11.370  24.206   8.203  0.0848 -0.2155 -0.0105
71383W        W72247   9.574  23.656  10.126 -0.0032 -0.0831 -0.0653
71384W        W72248   7.632  25.184   8.060 -0.0458 -0.0430  0.2541
71385W        W72249   7.808  24.044  12.097 -0.0027  0.2397  0.3369
71386W        W72250   7.179  19.649   9.346  0.1293  0.1905  0.0803
71387W        W72251   7.346  24.910   9.126  0.2936  0.0929  0.0650
71388W        W72252  10.228  24.543  11.736  0.0354 -0.0659  0.0024
71389W        W72253   8.706  25.969   5.933  0.2404  0.1901  0.0035
71390W        W72254   9.676  25.598   9.747 -0.0698 -0.1757 -0.0976
71391W        W72255   7.045  24.459   9.850  0.0760 -0.0569  0.0187
71392W        W72256   7.766  24.485   9.253  0.0197 -0.2272  0.0939
71393W        W72257   8.725  22.852  11.658 -0.0635 -0.0541 -0.3631
71394W        W72258   9.329  22.832  12.894  0.2298  0.1152  0.0213
71395W        W72259   9.949  22.090   8.321  0.2875  0.4132  0.0815
71396W        W72260   6.380  24.397   7.382  0.0298  0.1241  0.3049
71397W        W72261  10.597  24.232  12.920 -0.0515  0.0919 -0.0605
71398W        W72262   8.054  21.818  10.511  0.1867 -0.1831 -0.1256
71399W        W72263   8.101  21.669   8.632 -0.0731 -0.0792 -0.3775
71400W        W72264  10.717  24.133   8.921 -0.1382 -0.2680  0.0513
71401W        W72265   9.785  21.042   8.468 -0.3164 -0.2656  0.1167
71402W        W72266  10.027  22.316   7.727  0.4037 -0.0837  0.1220
71403W        W72267  10.373  21.900  10.051 -0.0575 -0.3930 -0.0405
71404W        W72268   8.048  23.745  11.802 -0.0313 -0.2402 -0.3015
71405W        W72269   8.988  24.427   6.634  0.1478  0.0761  0.0743
71406W        W72270   9.248  24.354   6.053 -0.0806  0.0569  0.1563
71407W        W72271   8.092  28.297   8.090 -0.0315 -0.2175 -0.1445
71408W        W72272   6.715  23.132  10.376  0.2164 -0.0024 -0.0546
71409W        W72273  10.110  25.102  11.610  0.1213  0.2875 -0.0708
71410W        W72274   8.355  24.313   7.332 -0.0231  0.1095  0.0790
71411W        W72275   6.997  23.973  10.034  0.1273  0.1011 -0.0635
71412W        W72276  10.087  23.778  11.337  0.0111 -0.1754 -0.2412
71413W        W72277   8.741  21.780   8.906  0.0431  0.1163 -0.4257
71414W        W72278   8.395  25.041   8.136 -0.1743  0.1561  0.1615
71415W        W72279   9.762  24.528   5.945  0.1309  0.3596  0.0106
71416W        W72280  10.681  23.289   7.629  0.0405 -0.5027  0.3164
71417W        W72281   7.804  23.580   5.799 -0.4494  0.0082 -0.1176
71418W        W72282   7.565  23.167   9.743 -0.1971  0.1620  0.0392
71419W        W72283   7.542  22.889   8.969 -0.1820  0.5123 -0.4213
71420W        W72284   7.424  25.854   7.644  0.2403  0.0758 -0.1107
71421W        W72285   8.830  25.104   7.532  0.0843 -0.1568  0.2494
71422W        W72286  10.223  23.557   8.326 -0.3739 -0.0133  0.1575
71423W        W72287   8.892  25.190  11.158  0.2144  0.1236  0.0744
71424W        W72288   7.957  25.866   9.076  0.1487  0.2074  0.1835
71425W        W72289   8.250  23.636   7.654 -0.0442 -0.4269 -0.0492
71426W        W72290   7.541  23.282   9.230  0.0271 -0.3327 -0.3095
71427W        W72291  11.301  21.202   9.515 -0.1637 -0.1393  0.0768
71428W        W72292   6.464  23.043   8.830 -0.1544 -0.0130  0.0232
71429W        W72293   8.546  22.427   6.194  0.0378  0.1155  0.2489
71430W        W72294   7.504  23.759  10.575 -0.2259 -0.1422  0.0251
71431W        W72295   9.482  24.035   6.310  0.1591  0.2282  0.2514
71432W        W72296  10.952  24.253   9.948  0.0515 -0.0160  0.1872
71433W        W72297   9.209  19.621   7.713  0.0402 -0.0888  0.1819
71434W        W72298  13.452  24.261  10.900  0.0015 -0.1984  0.2146
71435W        W72299  11.484  23.617  10.281 -0.0797 -0.1327  0.4588
71436W        W72300  10.928  23.823  10.318  0.0861 -0.2842 -0.0883
71437W        W72301  10.393  23.750   9.224  0.1351  0.0158  0.0304
71438W        W72302   9.322  24.093  10.004 -0.3229  0.2431  0.2339
71439W        W72303   8.103  22.711  12.503 -0.2965 -0.0556  0.0891
71440W        W72304  10.738  20.722   6.901 -0.1744 -0.1788  0.0022
71441W        W72305   9.483  23.958   8.576  0.0494 -0.3225  0.0316
71442W        W72306   5.900  22.592  10.077  0.0920 -0.1615 -0.0298
71443W        W72307   5.804  22.050  10.241  0.1275 -0.1788  0.1274
71444W        W72308   9.750  23.184   8.996  0.1907 -0.1109 -0.0545
71445W        W72309   7.877  22.880   9.523 -0.2727 -0.0822 -0.0038
71446W        W72310   7.952  21.327  11.370 -0.0267  0.2957  0.3066
71447W        W72311   6.760  21.951   8.721  0.0581  0.2219  0.2142
71448W        W72312  10.540  23.954   9.958  0.2254 -0.0571 -0.0987
71449W        W72313   8.396  22.803   9.635 -0.1682  0.0563 -0.1382
71450W        W72314  11.195  22.829  10.340 -0.0521 -0.0274 -0.2202
71451W        W72315   8.618  22.506  10.416  0.0512 -0.1942 -0.1758
71452W        W72316   7.881  24.961   9.356 -0.2414 -0.3289 -0.2065
71453W        W72317  12.017  23.737   7.331 -0.1860  0.0909 -0.1935
71454W        W72318   7.731  23.910   8.536 -0.0124  0.1552 -0.1806
71455W        W72319   8.294  24.824   8.583 -0.2133  0.0943 -0.3067
71456W        W72320   7.322  22.071   9.348  0.0651 -0.0079  0.3144
71457W        W72321   9.367  23.075   7.576 -0.1596  0.1235 -0.2458
71458W        W72322   8.507  24.252   9.640  0.0412 -0.0490 -0.0246
71459W        W72323   8.794  26.833  12.745  0.0898 -0.4762  0.0347
71460W        W72324   7.517  22.412   9.008 -0.0525  0.1530 -0.2812
71461W        W72325  12.121  22.386  11.192 -0.0964  0.2323 -0.1118
71462W        W72326  12.144  24.481   6.987  0.1860  0.0222  0.0713
71463W        W72327   8.844  23.585  11.144  0.1751  0.2320  0.2513
71464W        W72328   8.006  20.897   7.255  0.1160  0.2179  0.2657
71465W        W72329  10.545  24.663   8.090  0.0663  0.0243 -0.0521
71466W        W72330  12.444  22.127   7.695  0.2067 -0.2919 -0.0633
71467W        W72331  11.249  22.641  10.933 -0.2185 -0.0509  0.0046
71468W        W72332   8.268  27.289   6.889  0.1719  0.1301 -0.0695
71469W        W72333  11.090  24.264  12.288  0.0037 -0.1554  0.1844
71470W        W72334  10.482  20.578   7.457  0.1168  0.1237 -0.0292
71471W        W72335   7.673  23.112   8.390  0.0918  0.1456 -0.1542
71472W        W72336   7.455  22.846  12.046 -0.1703  0.1083  0.2652
71473W        W72337   9.231  25.218   9.437 -0.1168  0.3087  0.1835
71474W        W72338  11.170  22.765   6.826  0.0592  0.1549 -0.1389
71475W        W72339   8.695  26.028  10.652 -0.0172 -0.0576 -0.0023
71476W        W72340   8.918  21.544   6.647  0.3120 -0.1494 -0.0228
71477W        W72341   7.570  24.521  11.428 -0.0027  0.0225  0.0102
71478W        W72342  11.103  21.947   9.003 -0.0313 -0.0380 -0.1542
71479W        W72343   6.597  22.653  11.572 -0.0049 -0.3747 -0.2067
71480W        W72344   8.751  25.233   9.500 -0.0269  0.1509  0.2414
71481W        W72345  10.929  22.162   7.662 -0.1067  0.2611  0.1551
71482W        W72346   9.264  22.859   5.511  0.0362 -0.0881 -0.1329
71483W        W72347  12.816  25.859   5.862 -0.2016 -0.3188 -0.0924
71484W        W72348  11.467  25.076  11.432  0.1598 -0.0824  0.0755
71485W        W72349   6.304  23.725   8.068 -0.0516  0.0768 -0.3698
71486W        W72350  10.851  22.856   9.363  0.1004 -0.1759  0.2337
71487W        W72351   9.807  24.273   8.799 -0.1235  0.0205 -0.2204
71488W        W72352   6.605  20.711   9.155 -0.2727 -0.1965 -0.0875
71489W        W72353   9.710  23.005   9.488  0.0541  0.1181  0.0154
71490W        W72354   8.906  25.068   8.021  0.0678  0.0837  0.0290
71491W        W72355   6.551  26.507   7.493 -0.0685  0.4396  0.0018
71492W        W72356   9.016  24.830   9.601 -0.1067  0.0578  0.2874
71493W        W72357   9.788  22.307   8.983 -0.0502  0.5146 -0.0916
71494W        W72358   5.410  24.910  11.034 -0.2176  0.1382  0.2713
71495W        W72359   9.127  22.348   8.194 -0.0409 -0.2640  0.0679
71496W        W72360   8.846  24.678  10.128  0.0034  0.1042  0.2028
71497W        W72361   8.907  22.163  10.643 -0.1569  0.0540 -0.2669
71498W        W72362  13.218  22.102   4.157  0.3368  0.0735 -0.0439
71499W        W72363   9.800  19.962  10.038 -0.1385  0.0333 -0.1272
71500W        W72364   9.486  25.832  10.636  0.3053 -0.2114  0.4279
71501W        W72365   8.331  24.179  10.583  0.3602  0.2915 -0.0506
71502W        W72366   9.547  22.680   7.196  0.0000 -0.2594  0.2063
71503W        W72367   8.886  19.236   8.048  0.1898 -0.2464 -0.2857
71504W        W72368   6.464  24.118   8.373 -0.0547 -0.1660 -0.3825
71505W        W72369   7.041  21.956   7.898  0.0715 -0.4492  0.2939
71506W        W72370   9.368  24.816  10.491  0.1603  0.1763 -0.1268
71507W        W72371  11.483  22.360   7.577  0.2141 -0.0086  0.1028
71508W        W72372  10.102  22.624   8.174 -0.0967 -0.0262  0.0487
71509W        W72373   8.710  25.566   8.128  0.2291 -0.1996  0.0563
71510W        W72374   7.567  23.843   9.286  0.0877 -0.3036 -0.3859
71511W        W72375   9.904  22.715   9.866  0.1776 -0.0657 -0.4279
71512W        W72376  11.271  23.788   9.360 -0.0536 -0.0970 -0.0102
71513W        W72377   6.234  22.236  10.019 -0.0528  0.1285  0.1670
71514W        W72378   7.956  24.257  11.607  0.0966  0.2942  0.0173
71515W        W72379   4.806  23.642   9.186 -0.1461 -0.0567 -0.0343
71516W        W72380   9.868  23.438  12.282 -0.1655  0.1415 -0.3012
71517W        W72381  11.006  19.986  10.428 -0.0073 -0.1033  0.1871
71518W        W72382   6.997  25.074  11.803 -0.2046  0.0052 -0.2121
71519W        W72383   9.020  27.499   5.202 -0.0244  0.3250  0.3135
71520W        W72384   9.657  18.534   8.561  0.0913  0.2545  0.1993
71521W        W72385   9.487  23.506   8.148  0.2594  0.2493  0.1730
71522W        W72386   9.929  23.066  11.924 -0.1340 -0.1090  0.1164
71523W        W72387   9.824  22.756  13.919  0.5236  0.0290  0.1368
71524W        W72388   9.133  23.600   9.796  0.0779  0.0000 -0.1700
71525W        W72389   9.196  23.135  10.961 -0.3783 -0.3766  0.0691
71526W        W72390   9.796  21.467  10.213  0.0092  0.1805 -0.1271
71527W        W72391   7.597  22.886  10.656  0.3924 -0.1282 -0.0076
71528W        W72392   7.555  24.696  10.557 -0.1339 -0.3864 -0.1673
71529W        W72393   8.078  26.737   8.364 -0.2199 -0.1655  0.0321
71530W        W72394   8.741  26.480  12.360  0.2348  0.3513  0.2952
71531W        W72395   9.322  26.079   8.518 -0.0102  0.0684 -0.1721
71532W        W72396   7.146  23.585   9.205 -0.0487  0.3078  0.0740
71533W        W72397  10.045  23.369   9.293  0.1288 -0.0067  0.0669
71534W        W72398  10.550  23.244   9.164  0.1407  0.1231 -0.2698
71535W        W72399   8.615  23.667   8.984  0.0869  0.2355 -0.3026
71536W        W72400   8.833  22.181   9.218 -0.2362 -0.1358  0.1972
71537W        W72401  10.957  21.701   6.307 -0.0943 -0.3044  0.2160
71538W        W72402   6.763  26.429   9.874  0.0573  0.0667 -0.0744
71539W        W72403   8.345  24.159  12.178  0.2204 -0.0167 -0.1569
71540W        W72404   7.139  24.532  11.148  0.3660  0.3688  0.0849
71541W        W72405   7.438  24.311  11.816  0.1662 -0.2119  0.2297
71542W        W72406   7.097  22.792   6.641 -0.5913  0.0863 -0.1322
71543W        W72407   7.348  24.304   7.658  0.5048 -0.1996  0.1482
71544W        W72408   9.692  24.891   7.358 -0.1011 -0.0762 -0.0851
71545W        W72409  10.552  21.418   7.117  0.0945  0.2048  0.1221
71546W        W72410  10.048  22.187   5.114 -0.2468  0.0195  0.1046
71547W        W72411  11.090  25.514  13.900  0.0766  0.0794 -0.1140
71548W        W72412   8.757  21.273   9.447  0.0913  0.1302 -0.1239
71549W        W72413   6.768  21.171   8.951  0.0264 -0.1389  0.3189
71550W        W72414   7.381  24.997  11.438  0.2548 -0.2652 -0.1634
71551W        W72415   6.310  23.121  10.948  0.5603 -0.3321  0.0721
71552W        W72416   9.329  24.680   4.104 -0.2694  0.2638 -0.1634
71553W        W72417   7.089  24.439   7.100  0.1438 -0.0350 -0.1246
71554W        W72418   8.541  22.013  10.343 -0.0239 -0.4271  0.0799
71555W        W72419   9.993  19.202   8.384  0.1017  0.1076  0.0825
71556W        W72420  11.203  24.094   8.971 -0.1456  0.0511 -0.0640
71557W        W72421  10.402  20.895  10.265  0.1757 -0.0877  0.0217
71558W        W72422   6.744  23.157   8.418 -0.0815  0.2628 -0.2798
71559W        W72423   7.977  23.121  10.044 -0.3758  0.1156  0.3450
71560W        W72424   9.378  23.641  12.133  0.0721 -0.0284  0.4665
71561W        W72425   9.894  21.887   9.926  0.4008 -0.3451  0.3182
71562W        W72426   6.909  25.031   8.863  0.0476 -0.0747 -0.2319
71563W        W72427   8.427  22.737   7.892 -0.1942  0.0395  0.0004
71564W        W72428   9.562  25.286   5.252 -0.1717  0.0835 -0.2059
71565W        W72429   9.451  24.813  12.762  0.1322 -0.0788 -0.0709
71566W        W72430   9.294  20.770  11.123 -0.1774 -0.0459  0.0791
71567W        W72431   7.980  19.937   8.658 -0.1245  0.1203 -0.0525
71568W        W72432   8.420  21.792  10.849  0.1242  0.0212  0.0025
71569W        W72433   7.836  20.854  10.081 -0.2037 -0.1533 -0.1329
71570W        W72434   8.874  26.568   5.351  0.2134 -0.1636 -0.1883
71571W        W72435  10.611  24.403   5.745 -0.0131  0.1330 -0.3169
71572W        W72436   9.285  25.672  12.471  0.0302 -0.0470 -0.2475
71573W        W72437   7.512  25.074  12.504 -0.0661 -0.0774 -0.0190
71574W        W72438  12.120  23.775  10.222 -0.1134  0.3309 -0.0718
71575W        W72439  10.829  21.700  11.386 -0.0964 -0.1862  0.1886
71576W        W72440  13.052  25.260   7.831  0.1721 -0.1096 -0.2959
71577W        W72441   8.477  21.154   7.209 -0.2033  0.3946  0.2742
71578W        W72442   7.771  22.008  10.090 -0.0032 -0.0082  0.0233
71579W        W72443   8.544  23.472   8.537 -0.2574  0.1902 -0.2930
71580W        W72444   9.086  22.563  15.085 -0.3377 -0.2656 -0.0784
71581W        W72445   8.089  23.197  12.318  0.0444 -0.3005 -0.2439
71582W        W72446  13.258  20.435  13.337 -0.0211  0.2319 -0.2097
71583W        W72447   8.146  22.580   7.496  0.1101  0.1813  0.1144
71584W        W72448   9.973  24.028  10.519 -0.0352  0.0874  0.0079
71585W        W72449   9.269  21.221   7.597 -0.1707  0.3056  0.0482
71586W        W72450   7.585  24.003   8.067  0.0781 -0.0791 -0.1775
71587W        W72451   6.835  20.925  10.996  0.2541  0.1030 -0.1183
71588W        W72452  10.212  23.416  12.625 -0.0337  0.1452  0.1098
71589W        W72453   7.669  22.590   7.706  0.0117  0.0177 -0.1989
71590W        W72454   9.802  27.729   6.277  0.0261  0.0917  0.1436
71591W        W72455   8.460  21.328   8.486  0.0912  0.0642  0.0914
71592W        W72456   8.765  22.493   8.790  0.4843  0.0556  0.5323
71593W        W72457   7.847  23.343  10.688  0.1700  0.0409  0.0637
71594W        W72458   9.293  25.951   7.689  0.3344  0.1164 -0.0186
71595W        W72459   8.722  24.511  10.616 -0.0751 -0.1264 -0.2474
71596W        W72460   7.578  20.916   8.842  0.5547 -0.0341 -0.1167
71597W        W72461   6.148  25.752   5.471 -0.3591 -0.1379  0.0064
71598W        W72462  10.862  24.143   7.867  0.0048 -0.2152  0.1968
71599W        W72463  10.138  20.478  11.055  0.4056  0.1747 -0.2574
71600W        W72464   9.903  24.307   9.310  0.0016 -0.1777 -0.1556
71601W        W72465  10.613  23.490  10.164 -0.0183  0.0395  0.0539
71602W        W72466   9.522  25.209  10.182  0.0396 -0.1334 -0.0145
71603W        W72467   5.723  23.751   9.025 -0.3245 -0.2643  0.2631
71604W        W72468   8.060  21.439  10.896 -0.1124 -0.2339 -0.0595
71605W        W72469   8.683  24.553   8.806 -0.1564 -0.0257  0.2223
71606W        W72470  11.854  21.669   7.908 -0.1959 -0.2776 -0.0446
71607W        W72471   8.292  23.435   6.810  0.1594 -0.2641 -0.0760
71608W        W72472  11.382  22.091   9.468  0.0129  0.1659 -0.0517
71609W        W72473   7.777  25.548  10.979 -0.3739  0.0316 -0.1773
71610W        W72474   8.778  23.638   6.903  0.3062  0.2463  0.2707
71611W        W72475   8.206  20.896   8.365 -0.0542  0.1504  0.0014
71612W        W72476   9.007  24.011   8.924  0.1457 -0.3737  0.1310
71613W        W72477   8.247  24.575   9.079 -0.0249 -0.3172 -0.4548
71614W        W72478   9.944  24.535  13.065 -0.1934  0.1335  0.0798
71615W        W72479  10.461  24.239   9.477 -0.0268  0.0833 -0.0514
71616W        W72480   8.336  22.966   4.524 -0.0191  0.0219 -0.1520
71617W        W72481   7.889  22.701   8.152  0.0587  0.1325  0.2269
71618W        W72482   9.554  20.714   9.706  0.3379 -0.1914  0.3038
71619W        W72483   7.677  22.213   8.100 -0.0748  0.0129 -0.0076
71620W        W72484   8.391  25.018  12.457  0.1312 -0.2917 -0.1914
71621W        W72485  13.090  27.418   7.326 -0.4090 -0.1093 -0.0279
71622W        W72486   6.492  22.189  12.395  0.1503  0.1899  0.0701
71623W        W72487   8.157  24.970  13.132 -0.1974 -0.5149  0.2748
71624W        W72488  10.059  23.767  10.117  0.4031  0.2276  0.0939
71625W        W72489   9.670  21.398   9.215  0.3355 -0.0135 -0.2957
71626W        W72490   7.793  24.837   8.889 -0.1912 -0.1284  0.3044
71627W        W72491   7.054  26.049  12.411  0.0245  0.0539  0.2649
71628W        W72492   7.515  24.021   6.638 -0.1338 -0.0772 -0.2081
71629W        W72493   9.013  24.333   8.526  0.1345 -0.1189 -0.0341
71630W        W72494   9.020  22.268  10.177 -0.0637 -0.0351  0.2035
71631W        W72495  12.009  22.670   9.737  0.1356 -0.0142 -0.0164
71632W        W72496   7.849  22.930   7.380 -0.1778 -0.2480  0.2413
71633W        W72497  10.580  23.823   7.595 -0.0134  0.0450  0.0698
71634W        W72498   9.260  25.136  12.224  0.1812  0.0169  0.2346
71635W        W72499   6.198  23.067  13.293  0.0166 -0.1251  0.2469
71636W        W72500   7.608  23.989  11.272 -0.0501 -0.0957  0.1967
71637W        W72501   8.165  22.335   8.024 -0.0059  0.1255  0.1647
71638W        W72502   8.039  22.822  10.443 -0.1166  0.2185  0.1480
71639W        W72503   7.346  23.595   9.612 -0.1191 -0.0746 -0.2741
71640W        W72504   7.408  21.493   9.383 -0.2977 -0.1569 -0.0738
71641W        W72505  10.357  25.026  10.589  0.1018 -0.0750 -0.0855
71642W        W72506   8.873  23.350  11.639 -0.0318  0.2774 -0.2614
71643W        W72507   7.724  20.791   8.421  0.0146  0.0457  0.1538
71644W        W72508   8.753  23.738   5.620  0.0468 -0.0479 -0.1542
71645W        W72509   8.436  23.684  10.904  0.3812  0.0457  0.2585
71646W        W72510   7.578  23.366  10.231  0.2334  0.1366  0.1063
71647W        W72511   8.718  20.796  10.678 -0.2161 -0.1967 -0.2435
71648W        W72512   8.924  26.145   6.525  0.0364  0.1064 -0.2436
71649W        W72513   9.394  23.233  11.836  0.1904 -0.2703 -0.1192
71650W        W72514   9.986  22.219   7.244 -0.0831 -0.2628 -0.4653
71651W        W72515  12.182  25.640   7.791  0.0208 -0.1716 -0.1873
71652W        W72516   8.740  24.515   9.283  0.4190 -0.1468 -0.3132
71653W        W72517   8.404  22.171   8.936 -0.2276 -0.1971  0.0058
71654W        W72518   8.754  23.828   9.953 -0.1094 -0.3679 -0.2983
71655W        W72519   7.129  22.567  12.245  0.2244 -0.2282  0.2736
71656W        W72520   5.015  25.820   9.972  0.3285  0.0223  0.0227
71657W        W72521  10.368  23.121   7.310 -0.0607  0.1000 -0.1384
71658W        W72522   8.040  23.995   9.495  0.1764  0.1574 -0.2116
71659W        W72523   9.213  25.972   6.865 -0.1299  0.0666  0.0628
71660W        W72524  11.574  23.932   8.589  0.0455 -0.3324 -0.0729
71661W        W72525   6.588  25.508   8.118 -0.1130 -0.1170 -0.1886
71662W        W72526   7.610  25.367   9.193  0.1985  0.1233  0.0001
71663W        W72527   7.955  24.101   8.984 -0.0250 -0.1606  0.1164
71664W        W72528   6.467  23.075  12.569 -0.2297  0.2445  0.0930
71665W        W72529   9.913  26.214  10.068 -0.2744 -0.0794 -0.1723
71666W        W72530   9.744  23.485   8.563 -0.2606  0.0017 -0.0081
71667W        W72531   9.117  27.477  10.885  0.3944  0.0691  0.2249
71668W        W72532   8.114  25.436  11.821 -0.1155  0.3344 -0.2262
71669W        W72533   9.630  21.314   9.696  0.0567 -0.0509 -0.0712
71670W        W72534  11.520  21.758   8.782  0.0695  0.1980  0.1264
71671W        W72535   7.405  25.833   8.980 -0.1144  0.0039  0.1357
71672W        W72536   6.793  22.620   8.670 -0.2243 -0.1913 -0.0529
71673W        W72537   9.732  23.547  10.581  0.1069 -0.0294 -0.0640
71674W        W72538   8.956  24.410  11.040  0.2721  0.4136 -0.0806
71675W        W72539   8.392  25.708  10.407 -0.3982  0.0716  0.2246
71676W        W72540   7.664  22.483  12.336  0.1406  0.0261 -0.0908
71677W        W72541   9.299  23.280  10.497  0.0332 -0.0604  0.2849
71678W        W72542   8.014  23.615   9.217 -0.2178  0.0915  0.2096
71679W        W72543  10.068  20.753   6.437 -0.0934 -0.1105 -0.1228
71680W        W72544   8.284  25.315   9.332  0.0674  0.0821 -0.2219
71681W        W72545   6.490  22.123  10.615  0.1487 -0.2310  0.0663
71682W        W72546   6.306  24.415  10.891 -0.2476 -0.1237 -0.1932
71683W        W72547  10.509  23.459   5.471  0.0586  0.1679 -0.1191
71684W        W72548   9.656  21.950  11.857  0.1184  0.2313  0.2016
71685W        W72549   6.636  24.469  11.284 -0.0783  0.1844 -0.0736
71686W        W72550   7.546  25.467   6.476 -0.0073  0.1412 -0.1653
71687W        W72551   8.949  23.061  12.080 -0.1021 -0.3393 -0.1996
71688W        W72552   7.977  22.618   9.105 -0.0940  0.0003 -0.3241
71689W        W72553   8.285  22.955   8.318 -0.2126  0.3641 -0.3098
71690W        W72554   6.741  23.760   7.889  0.0541 -0.2428 -0.0634
71691W        W72555   7.214  22.888   8.454 -0.1021 -0.0801 -0.3448
71692W        W72556  12.139  19.635   9.468  0.0272  0.1126 -0.1699
71693W        W72557   7.703  22.355   9.552  0.1266  0.3420  0.2327
71694W        W72558  10.741  21.997  14.544 -0.0847 -0.1406  0.2095
71695W        W72559   9.088  26.407   8.842  0.1088  0.0753  0.1693
71696W        W72560  10.129  21.467   9.749  0.2423  0.1803 -0.1153
71697W        W72561  12.648  23.738  11.012 -0.0003  0.0239  0.2167
71698W        W72562   9.797  23.445  11.612 -0.1218 -0.0726  0.2606
71699W        W72563   8.711  23.049  11.190  0.0958  0.3459 -0.0262
71700W        W72564   9.573  21.027   8.001  0.1292  0.0642 -0.2656
71701W        W72565  11.531  19.655   9.791  0.3552  0.1086  0.3334
71702W        W72566   8.648  22.483   8.274  0.2867 -0.4404  0.2708
71703W        W72567   8.881  22.834   8.028 -0.2550 -0.0281 -0.1502
71704W        W72568   9.735  21.830   8.798 -0.0579  0.0100  0.0543
71705W        W72569   8.968  27.440   6.440  0.1777  0.1136  0.2872
71706W        W72570   7.159  26.351   8.670  0.1015 -0.2573  0.0252
71707W        W72571   6.786  25.161  12.576  0.1329  0.0592  0.2312
71708W        W72572   7.086  23.425   8.056 -0.0094  0.2249 -0.1013
71709W        W72573   9.006  20.417   5.664 -0.3979  0.0122  0.1435
71710W        W72574   6.970  24.860   9.516  0.0238 -0.1398 -0.0191
71711W        W72575   9.002  22.084   6.769 -0.2401  0.0389  0.1558
71712W        W72576  10.620  21.828   7.880  0.2033  0.1655 -0.0394
71713W        W72577  10.507  24.446   8.610 -0.1312 -0.0226 -0.3558
71714W        W72578   8.494  25.852   9.080  0.1783 -0.2577  0.3528
71715W        W72579   8.299  24.569  10.189 -0.0318 -0.0913 -0.0732
71716W        W72580  10.453  28.329   6.833 -0.1632 -0.0456 -0.0289
71717W        W72581   8.723  22.855   6.351 -0.0765 -0.3124  0.1218
71718W        W72582   7.224  23.875  12.246  0.1747 -0.0859  0.0038
71719W        W72583   8.735  23.028   8.677  0.1232 -0.1511  0.3873
71720W        W72584   8.282  22.616   8.681  0.0474  0.1171  0.3230
71721W        W72585   8.113  22.294  10.374 -0.0047 -0.0540 -0.0275
71722W        W72586   8.974  21.987   7.871 -0.0282 -0.0581  0.0186
71723W        W72587  12.399  22.765  10.411 -0.2003  0.0470 -0.3110
71724W        W72588   9.846  22.671  11.591 -0.0615 -0.2159  0.1445
71725W        W72589  10.245  21.257  12.216  0.1577 -0.1681  0.0379
71726W        W72590  12.927  27.426   6.194  0.3008  0.2682 -0.2046
71727W        W72591   8.279  26.832   7.091  0.2301 -0.2464  0.0283
71728W        W72592   9.341  25.328   7.518  0.1536  0.1961  0.1314
71729W        W72593   7.528  23.828  10.049 -0.0157  0.0411  0.0995
71730W        W72594   8.898  22.828  10.047  0.3080  0.0532 -0.0363
71731W        W72595  10.894  23.721   9.097 -0.2070 -0.1521 -0.0287
71732W        W72596   7.698  26.106   5.959 -0.3000  0.1825 -0.0566
71733W        W72597  11.281  22.617   8.960 -0.1153  0.0500  0.0547
71734W        W72598  11.114  23.832   6.971 -0.0149  0.1025  0.0181
71735W        W72599   9.581  23.342  12.991  0.1905 -0.2800  0.1409
71736W        W72600   9.181  26.057   6.020 -0.2551  0.3792 -0.0046
71737W        W72601   9.928  23.297  13.661 -0.2163  0.3457  0.0900
71738W        W72602   7.889  21.440  13.073  0.1264  0.1180 -0.2916
71739W        W72603  11.393  23.020   9.191 -0.1571  0.0321 -0.0268
71740W        W72604  13.963  22.463  11.873  0.2982  0.2142  0.2887
71741W        W72605   5.850  21.411  11.370  0.2924 -0.3300 -0.3041
71742W        W72606   8.729  21.709   7.495  0.0545 -0.0093  0.5463
71743W        W72607   6.696  24.748  10.847 -0.0722 -0.1198 -0.0506
71744W        W72608   8.720  24.615   7.673  0.2848  0.0536  0.0482
71745W        W72609   9.388  23.700   8.999 -0.0695  0.0970  0.0595
71746W        W72610   8.666  26.013  11.133  0.0872  0.1543  0.0341
71747W        W72611  10.181  24.053  13.233 -0.2526  0.1953 -0.2125
71748W        W72612   7.240  22.257   9.913  0.0513 -0.1908  0.0715
71749W        W72613   7.640  24.908  13.122 -0.4340  0.1023  0.3140
71750W        W72614   5.244  24.117  10.850 -0.0152  0.0388 -0.0307
71751W        W72615  10.120  23.905   9.612 -0.4180  0.0622 -0.0358
71752W        W72616   8.819  23.321  10.180  0.0820  0.2384 -0.1083
71753W        W72617   6.215  26.255   8.428  0.1202 -0.0384  0.1931
71754W        W72618   7.667  23.512   7.555 -0.0401 -0.1653  0.0571
71755W        W72619   7.706  24.576  10.053  0.1345  0.2812  0.0830
71756W        W72620   7.193  26.252   9.138 -0.4568 -0.2358  0.3893
71757W        W72621   4.688  22.286   9.107 -0.0501 -0.1998 -0.0403
71758W        W72622   8.462  24.128   9.111  0.2120 -0.1658 -0.0419
71759W        W72623  10.725  22.498  11.587  0.4447  0.0521  0.2484
71760W        W72624  12.412  26.372   7.987 -0.0172  0.2121 -0.4660
71761W        W72625   8.061  22.973   6.902  0.1282 -0.1001  0.0020
71762W        W72626   7.881  28.671  14.111  0.3200  0.2797 -0.1438
71763W        W72627   9.357  26.096  13.272  0.2018 -0.1194 -0.1357
71764W        W72628   9.282  23.532  14.032 -0.1991 -0.2201 -0.0046
71765W        W72629  12.886  25.812  12.914 -0.2418 -0.2740 -0.0357
71766W        W72630  10.848  26.071  13.062 -0.1427  0.1585 -0.2383
71767W        W72631   9.910  24.598  13.705 -0.0463 -0.2351 -0.2941
71768W        W72632   9.067  22.169  12.373  0.2849  0.1068 -0.2035
71769W        W72633  11.059  24.376  13.164  0.3156 -0.3383 -0.1503
71770W        W72634  10.830  26.547  13.254  0.0366  0.1624 -0.3182
71771W        W72635   7.263  23.897  14.470 -0.0519 -0.0634  0.3279
71772W        W72636  10.284  22.574  14.143  0.2621 -0.0283 -0.1485
71773W        W72637  10.320  26.161  15.584 -0.1234  0.0867  0.1907
71774W        W72638   8.098  21.076  11.819 -0.0739 -0.0274 -0.5094
71775W        W72639  10.413  23.687  14.760 -0.0157  0.0108 -0.1693
71776W        W72640   6.201  21.874  14.113  0.0907 -0.0225  0.2724
71777W        W72641  10.080  21.827  14.644  0.1871  0.0669  0.0393
71778W        W72642   9.837  23.822  12.791 -0.0065 -0.1924  0.0000
71779W        W72643   5.803  23.195   9.874  0.1775  0.2218  0.2009
71780W        W72644   9.115  24.512  16.656 -0.1107 -0.2132  0.0116
71781W        W72645   7.726  21.301  14.171  0.0186 -0.0957  0.0781
71782W        W72646  11.549  25.370  14.091 -0.1510 -0.1562 -0.0076
71783W        W72647  10.182  21.945  13.831  0.1203  0.2803  0.0196
71784W        W72648   8.197  23.706  12.271 -0.0842  0.2815  0.0866
71785W        W72649   7.867  22.888  11.081  0.0204 -0.0920 -0.1077
71786W        W72650   8.698  21.987  12.679 -0.2318  0.2030 -0.0209
71787W        W72651   6.465  24.847  13.373 -0.0095  0.1898  0.2577
71788W        W72652  10.262  22.585  17.035 -0.4999  0.1879 -0.0993
71789W        W72653   8.659  22.903  16.148  0.2671 -0.0958 -0.0996
71790W        W72654  11.060  23.853  15.513 -0.3144  0.1075  0.1192
71791W        W72655   6.936  22.084  12.457 -0.0931  0.0423  0.0064
71792W        W72656   8.170  22.856  14.555  0.0876  0.1489 -0.4173
71793W        W72657  10.159  25.859  13.714 -0.0256  0.3333 -0.1278
71794W        W72658  11.866  27.822  14.116  0.1177 -0.1278  0.1786
71795W        W72659   9.391  24.211  15.207  0.1490 -0.1793  0.0827
71796W        W72660   9.239  25.379  14.699  0.1156 -0.0722 -0.0504
71797W        W72661   9.123  24.018  13.892  0.2248  0.3017 -0.0945
71798W        W72662   6.343  20.171   9.104 -0.2523 -0.2102 -0.1570
71799W        W72663   9.933  26.025  14.855  0.1241  0.2144  0.2754
71800W        W72664  11.434  26.964  13.883  0.3426  0.2851 -0.1285
71801W        W72665  10.315  22.599  13.254  0.1354  0.1129 -0.1272
71802W        W72666  11.611  21.667  11.959 -0.0908 -0.1358 -0.0618
71803W        W72667  10.614  23.660  11.708  0.1842 -0.1633  0.0837
71804W        W72668  10.980  26.530  14.990  0.0906  0.4401 -0.0085
71805W        W72669  10.749  22.997  10.253 -0.1434  0.0199  0.3423
71806W        W72670   7.391  25.780  11.338 -0.3311 -0.1700  0.1876
71807W        W72671  11.452  24.434  14.966  0.1063  0.1750  0.3805
71808W        W72672   7.805  23.716  14.305  0.2637 -0.0997 -0.0698
71809W        W72673  11.154  22.333  14.491 -0.1973  0.1819  0.2862
71810W        W72674  10.727  22.676  13.030 -0.0749 -0.0016 -0.1193
71811W        W72675  11.254  22.752  12.206 -0.0552  0.0352  0.1909
71812W        W72676  11.658  22.154  14.746  0.1576 -0.1827  0.0378
71813W        W72677  10.907  23.515  13.264  0.0711 -0.1708  0.2998
71814W        W72678  12.481  24.983  17.931  0.2088 -0.0131  0.1209
71815W        W72679   6.808  23.525   8.803 -0.0168  0.2033  0.0039
71816W        W72680   9.893  19.676   9.544 -0.0614 -0.1790  0.0462
71817W        W72681   9.219  23.434  15.051  0.1227  0.0832  0.1532
71818W        W72682   6.648  22.615  12.431 -0.2138  0.3637 -0.1466
71819W        W72683  10.980  22.449  13.450  0.0900  0.4899  0.2564
71820W        W72684  11.342  21.913  14.329  0.1701 -0.1237  0.0764
71821W        W72685   8.581  26.729  14.556  0.0803  0.0211  0.2299
71822W        W72686  12.147  21.653  11.707  0.3056 -0.2545  0.0688
71823W        W72687   3.573  25.200  14.243 -0.1882  0.2009 -0.3130
71824W        W72688   8.346  22.631  14.089 -0.0742  0.2061 -0.0636
71825W        W72689  11.211  22.001  14.883 -0.2953 -0.0183 -0.4588
71826W        W72690  13.099  24.034  14.373 -0.0711  0.0427 -0.1164
71827W        W72691  11.486  22.184  10.920 -0.1007  0.0024 -0.0956
71828W        W72692   9.459  24.228   8.147  0.1838  0.0223 -0.0592
71829W        W72693   8.964  25.042  10.653  0.0754 -0.2071  0.0286
71830W        W72694  10.308  26.985  14.500 -0.0989  0.0777  0.3848
71831W        W72695  10.930  25.002  14.808  0.0292  0.0576 -0.1182
71832W        W72696  10.745  24.635  12.097 -0.1648  0.1319  0.0901
71833W        W72697   8.856  22.582   9.596  0.0107  0.2016 -0.0490
71834W        W72698  12.401  23.085  12.083 -0.1353 -0.1080 -0.2367
71835W        W72699   9.607  23.856  13.827  0.2841 -0.1594  0.1998
71836W        W72700  11.524  22.239   8.197 -0.0052 -0.0346  0.0545
71837W        W72701  12.692  25.383  14.797 -0.0282  0.0342 -0.0124
71838W        W72702   9.675  22.832  14.452 -0.2468 -0.2195 -0.4669
71839W        W72703   8.778  25.324  16.698 -0.4029  0.0850 -0.2583
71840W        W72704  10.583  22.175  11.192  0.0293  0.2239  0.1392
71841W        W72705   8.903  25.327  13.033 -0.1802  0.1206 -0.2513
71842W        W72706  10.674  23.275  14.581 -0.0313  0.1636  0.0133
71843W        W72707  10.677  22.961  14.218  0.0530 -0.0302  0.2380
71844W        W72708   7.579  21.392  13.457 -0.0850  0.0830  0.1081
71845W        W72709  10.085  23.099  14.179  0.0808 -0.0261  0.0476
71846W        W72710   9.758  20.909  13.802 -0.1870  0.1789 -0.2163
71847W        W72711   8.734  21.969  12.031 -0.1015 -0.1856  0.1140
71848W        W72712  12.713  24.058  13.849  0.0269  0.1850 -0.2442
71849W        W72713   9.697  19.435  12.965  0.0665  0.1008  0.4008
71850W        W72714  12.116  26.556  16.349 -0.0070  0.1012  0.0683
71851W        W72715  10.663  20.895  16.038 -0.1262  0.1333 -0.0660
71852W        W72716   9.089  22.751   8.482 -0.2282  0.1233 -0.0680
71853W        W72717  11.387  24.768  12.351  0.0307 -0.0910 -0.1135
71854W        W72718   6.112  25.894  12.508  0.1791 -0.1743  0.2003
71855W        W72719   9.328  23.156   9.968  0.1477 -0.0022 -0.0210
71856W        W72720   7.774  20.289   9.992 -0.0756  0.2094 -0.1062
71857W        W72721  11.619  20.124  12.612  0.0724  0.1402  0.0532
71858W        W72722  12.924  21.914  13.329 -0.1535  0.1052 -0.1348
71859W        W72723  11.815  26.900  15.398  0.1527  0.2518 -0.0965
71860W        W72724  10.112  21.486  10.998 -0.0934  0.1077  0.1862
71861W        W72725  13.980  21.502  12.119  0.1004 -0.1676 -0.3245
71862W        W72726  10.970  22.224  10.176  0.3619 -0.2025 -0.1866
71863W        W72727   8.524  21.544  11.948  0.1051  0.1037 -0.2920
71864W        W72728  11.157  20.721   8.616  0.1759  0.0532  0.2133
71865W        W72729  10.612  25.259  12.822  0.1291 -0.0000  0.0028
71866W        W72730  11.822  21.899  13.909 -0.0579  0.0549 -0.1149
71867W        W72731  11.081  23.307  14.197  0.0118 -0.0693  0.1985
71868W        W72732   8.519  22.301  13.104 -0.3138  0.1053  0.3004
71869W        W72733  11.782  21.695  14.434 -0.1765 -0.3185  0.1375
71870W        W72734   7.474  19.803  12.896  0.1536 -0.2024 -0.0051
71871W        W72735   6.914  23.431  11.969 -0.3761  0.3916 -0.1062
71872W        W72736   5.344  26.079  13.837 -0.0170  0.0209  0.1021
71873W        W72737   9.638   0.164  13.336  0.3526  0.1887  0.0592
71874W        W72738  14.336  23.454  12.734 -0.1279 -0.0622  0.1557
71875W        W72739   7.485  25.978  14.100  0.2508  0.2590 -0.1613
71876W        W72740  11.636  24.900  11.013  0.1577 -0.0642 -0.1539
71877W        W72741   8.499  25.238  12.041  0.1559 -0.0492 -0.0601
71878W        W72742  10.494  19.489  11.599 -0.0324  0.0972 -0.2865
71879W        W72743   8.624  26.607  15.066  0.0618  0.0184 -0.1180
71880W        W72744  10.184  21.873  12.814 -0.2049  0.0375  0.0296
71881W        W72745   7.835  19.754  11.022 -0.1131  0.0286  0.1631
71882W        W72746  11.628  26.197  11.261  0.0429 -0.1452 -0.2037
71883W        W72747  10.981  25.399  11.376  0.1249 -0.1005  0.3885
71884W        W72748  11.408  25.124  11.940  0.3092  0.1110 -0.0778
71885W        W72749   9.754  23.923  10.965 -0.1347 -0.0149  0.3000
71886W        W72750  11.478  26.786  12.916  0.0598 -0.0507 -0.0302
71887W        W72751  10.081  25.081  14.148 -0.0519 -0.1777 -0.2201
71888W        W72752   8.569  24.343  11.751  0.4390 -0.0425 -0.0849
71889W        W72753   8.526  20.238  13.095  0.3497  0.3118 -0.0342
71890W        W72754  15.331  25.364  12.900  0.1009 -0.5264  0.2597
71891W        W72755  10.304  24.835  13.714 -0.1582 -0.0518 -0.4822
71892W        W72756  12.851  26.387  13.598  0.1405 -0.0241  0.0906
71893W        W72757  11.932  24.465  14.776  0.0574 -0.0534 -0.1734
71894W        W72758  10.836  26.999  14.605  0.3258 -0.0005  0.2122
71895W        W72759   9.632  21.703  12.861 -0.1939 -0.0779 -0.2204
71896W        W72760  12.394  23.579  12.512  0.1687 -0.3392  0.3118
71897W        W72761   4.250  22.238  16.277  0.1091  0.0017 -0.2469
71898W        W72762  12.012  23.294  14.041  0.1856  0.1185  0.1350
71899W        W72763  12.844  22.482  13.218 -0.0484  0.0117 -0.1359
71900W        W72764   8.674  24.083  12.579 -0.0991  0.2981  0.4064
71901W        W72765   9.998  23.636  15.661 -0.0219  0.2995  0.1180
71902W        W72766  11.020  22.337  11.971  0.1614  0.0488 -0.2766
71903W        W72767  11.268  22.785  12.888 -0.3011  0.2630  0.1341
71904W        W72768   8.678  26.707  13.238  0.1131 -0.0844  0.1589
71905W        W72769   7.315  25.366  11.067 -0.0553 -0.3089 -0.3219
71906W        W72770   9.474  24.388  13.880 -0.0852 -0.0934 -0.0970
71907W        W72771   9.320  21.492  10.419  0.2413  0.2014  0.1120
71908W        W72772  10.440  20.438  13.425  0.0577 -0.1029 -0.0050
71909W        W72773  10.798  25.023  12.410  0.1303 -0.0526 -0.0126
71910W        W72774  14.260  26.156  12.915  0.2110 -0.1005 -0.1595
71911W        W72775  10.446  23.784  12.849 -0.1726 -0.0658 -0.5189
71912W        W72776  10.372  23.476   9.722 -0.0306 -0.0697  0.0710
71913W        W72777   9.465  23.428  13.580 -0.3654  0.1506  0.2905
71914W        W72778  10.684  24.702  14.017  0.1061 -0.2077  0.0916
71915W        W72779   6.263  22.388   9.439  0.2393  0.0388  0.1713
71916W        W72780  10.599  20.932  15.475  0.1910 -0.1407  0.0865
71917W        W72781  10.026  24.869  14.686  0.0587  0.2184 -0.1880
71918W        W72782  10.733  22.795  13.725  0.0597 -0.0013 -0.1843
71919W        W72783   8.905  24.400  13.094  0.1339  0.3812 -0.1939
71920W        W72784   9.693  21.541   8.298  0.1325  0.0878 -0.1374
71921W        W72785  10.745  22.323  15.640  0.0123 -0.0885  0.0290
71922W        W72786   6.300  20.754  14.817 -0.0142 -0.0303 -0.1501
71923W        W72787  11.094  23.497  14.713 -0.1740 -0.3094  0.1112
71924W        W72788   9.501  24.406  14.611  0.1103  0.1605 -0.2762
71925W        W72789  12.019  24.773  12.460 -0.2245 -0.0909  0.4328
71926W        W72790  10.077  26.465  14.435  0.1726 -0.0372  0.2002
71927W        W72791  10.585  23.280  16.390 -0.1150 -0.4449  0.1175
71928W        W72792   5.456  20.786  15.039 -0.1731 -0.1421 -0.1057
71929W        W72793   7.924  25.013  10.338  0.2171 -0.4983  0.0828
71930W        W72794   9.217  24.166  12.479 -0.1947 -0.0377 -0.1774
71931W        W72795  10.691  23.344  12.715 -0.1103  0.3141 -0.0863
71932W        W72796  12.219  25.230  12.591  0.3503  0.0465 -0.1337
71933W        W72797  10.382  26.667  15.397  0.0293 -0.1542 -0.0076
71934W        W72798  12.738  23.551  15.581 -0.2298  0.2563 -0.2183
71935W        W72799  11.224  26.844  12.453  0.2753 -0.0524  0.3414
71936W        W72800   6.108  20.113  12.326  0.0880 -0.0290 -0.3107
71937W        W72801  13.036  22.599  11.469 -0.0497 -0.1417 -0.0319
71938W        W72802  10.655  24.335  15.469 -0.1120  0.2046  0.1415
71939W        W72803  11.445  23.105  16.362  0.1968 -0.1094  0.2011
71940W        W72804   8.209  25.910  15.322 -0.2591  0.0981  0.3510
71941W        W72805  13.100  23.213  15.837 -0.0219  0.0010  0.1105
71942W        W72806  10.182  23.703  13.810 -0.3761 -0.0380  0.2803
71943W        W72807   8.501  23.728  13.323  0.0686 -0.2108  0.0886
71944W        W72808   9.893  23.336   9.788  0.1370 -0.2519  0.2690
71945W        W72809   7.472  22.019  10.779  0.2508  0.0652 -0.1365
71946W        W72810  10.237  22.938   9.546 -0.1008 -0.3808 -0.2522
71947W        W72811  11.363  25.098  14.504 -0.2837  0.1967  0.0094
71948W        W72812   8.774  23.451  12.393  0.0452  0.3085 -0.2910
71949W        W72813  13.339  21.276  10.927  0.0929 -0.1626 -0.3154
71950W        W72814   9.400  25.709  16.102  0.1682 -0.0125 -0.1400
71951W        W72815   6.983  22.240  14.551  0.0658  0.0266 -0.4057
71952W        W72816   9.442  23.964  14.243  0.0087 -0.3519 -0.2862
71953W        W72817   6.900  25.640  14.866  0.1991  0.1485 -0.0379
71954W        W72818   7.482  21.705  13.850  0.0231  0.0588 -0.1047
71955W        W72819  12.237  21.962  14.706  0.1016 -0.0870 -0.0851
71956W        W72820   9.611  20.802  13.288  0.0875 -0.2946 -0.2145
71957W        W72821   9.071  23.389  13.066 -0.0010  0.1749  0.1343
71958W        W72822   8.508  21.065  12.592  0.0964  0.0415 -0.1226
71959W        W72823   6.072  20.646  12.101  0.0936  0.0457 -0.0856
71960W        W72824   7.524  22.272  11.240 -0.1635 -0.2729 -0.2171
71961W        W72825  11.043  22.322  11.279  0.0372 -0.1349  0.3976
71962W        W72826   9.035  24.316  11.714  0.2057  0.2909  0.1635
71963W        W72827   9.382  22.757  13.697 -0.1499 -0.0699  0.0466
71964W        W72828  11.517  26.286  12.165 -0.2616  0.1319 -0.3813
71965W        W72829   7.935  22.731  11.953 -0.1581  0.1077 -0.3434
71966W        W72830  11.345  22.272  12.712  0.0480  0.2740  0.0029
71967W        W72831  10.231  20.906  11.329 -0.0051  0.0895  0.2010
71968W        W72832   8.877  22.852  13.145 -0.0538  0.1606  0.1361
71969W        W72833   8.866  22.624  14.043 -0.0407  0.0663  0.0134
71970W        W72834   8.854  25.659  14.091  0.1901 -0.3513  0.0945
71971W        W72835   7.312  22.540  14.253  0.1226 -0.0325 -0.2609
71972W        W72836   9.607  23.154  14.015  0.2067  0.1091  0.3123
71973W        W72837   7.104  21.148  12.287 -0.0849  0.0799 -0.0783
71974W        W72838   9.161  24.816  14.492 -0.0772 -0.2543 -0.2630
71975W        W72839   8.541  19.970  14.790  0.4446 -0.3290 -0.1220
71976W        W72840  12.119  24.352  14.333  0.2288 -0.1172 -0.0028
71977W        W72841  11.066  24.863  11.249  0.1017  0.0283  0.0989
71978W        W72842  10.958  22.967  12.521 -0.0501  0.6118  0.2531
71979W        W72843   8.151  25.393  10.714  0.1763 -0.0919  0.0229
71980W        W72844   8.485  23.430  14.448  0.2220  0.2858 -0.0733
71981W        W72845   8.636  23.448  17.323 -0.2766  0.7239 -0.1918
71982W        W72846  12.128  22.029  16.154  0.0224 -0.1618 -0.0983
71983W        W72847  11.936  23.825  12.400 -0.1600  0.3076 -0.0878
71984W        W72848  10.043  24.240  17.705  0.0610 -0.1063  0.1112
71985W        W72849   8.737  18.088  12.103  0.2838 -0.0341  0.0931
71986W        W72850   9.100  21.738   8.307  0.0490  0.0045 -0.0330
71987W        W72851   6.866  21.703  15.610  0.2822 -0.0764 -0.2421
71988W        W72852  11.074  23.365  13.704  0.0688  0.0422 -0.0774
71989W        W72853  12.415  22.917  14.298 -0.2644 -0.0834  0.0754
71990W        W72854   9.499  23.972  10.506  0.1029  0.0084  0.1842
71991W        W72855  11.141  24.424  15.480 -0.3032  0.0232 -0.2425
71992W        W72856   9.482  23.339  14.490 -0.0811 -0.0844  0.0701
71993W        W72857  10.087  24.340  15.464  0.0140  0.0429  0.0030
71994W        W72858  10.717  25.112  16.627  0.1521  0.0851 -0.0920
71995W        W72859  10.457  25.024  11.912  0.0903 -0.0403  0.0497
71996W        W72860   8.166  21.038  15.160 -0.2152  0.2891  0.0278
71997W        W72861   9.479  26.232  15.043 -0.1865 -0.2845 -0.0772
71998W        W72862  12.015  25.858  13.406  0.0295  0.0267  0.1410
71999W        W72863  10.560  20.378  15.966  0.1603  0.6966 -0.2297
72000W        W72864  13.743  24.519  14.586  0.1506  0.1202  0.1292
72001W        W72865  10.862  27.889  11.553 -0.0957 -0.5038 -0.2864
72002W        W72866   9.830  25.517  11.504 -0.2348  0.0358  0.1040
72003W        W72867   8.547  26.767  15.549 -0.2440  0.0443  0.0041
72004W        W72868   8.319  21.875  13.019  0.0763  0.1934  0.0524
72005W        W72869   8.350  21.666  11.340  0.0244  0.0272 -0.0895
72006W        W72870  12.257  21.357  14.629 -0.1790 -0.0664  0.1706
72007W        W72871  11.339  23.847  14.999  0.1544 -0.2389 -0.0310
72008W        W72872  12.893  27.648  13.822  0.1020 -0.0179 -0.1429
72009W        W72873   7.817  24.245  14.460  0.0468 -0.1518  0.1878
72010W        W72874   8.105  24.519  12.963  0.0359  0.2130  0.0506
72011W        W72875   7.784  22.566  12.875  0.2011 -0.2649 -0.1194
72012W        W72876   5.604  25.555  12.103  0.1546  0.1351  0.1585
72013W        W72877   7.940  25.329  14.740  0.2795 -0.1944  0.0636
72014W        W72878  11.340  22.271  16.233 -0.0827  0.0601  0.1844
72015W        W72879  11.777  24.073  15.890  0.0368 -0.1192 -0.2685
72016W        W72880   5.866  21.767  11.750 -0.1387 -0.0046 -0.0360
72017W        W72881  12.503  24.766  12.683  0.1221 -0.1455  0.1789
72018W        W72882   9.800  23.851  11.943  0.0493  0.3688 -0.1001
72019W        W72883  11.825  22.683  14.872 -0.0581 -0.1112 -0.3534
72020W        W72884   8.886  25.142  12.567 -0.1312 -0.4155 -0.2497
72021W        W72885   9.172  22.287  11.032 -0.4538 -0.1638 -0.1544
72022W        W72886  10.758  23.745  14.390 -0.0753  0.4076  0.0045
72023W        W72887   9.126  24.299  14.270 -0.0593  0.0799  0.1150
72024W        W72888  10.550  23.213  15.491  0.0033 -0.0863 -0.2308
72025W        W72889   9.666  20.916  14.415 -0.0187  0.1553  0.0368
72026W        W72890   7.197  25.758  11.965  0.2717  0.2516 -0.0113
72027W        W72891  10.540  26.715  14.911 -0.3593 -0.0833 -0.1445
72028W        W72892   6.927  23.551  11.349  0.2201  0.0104  0.3898
72029W        W72893   9.402  23.782  13.127 -0.2038 -0.0528 -0.4028
72030W        W72894   7.443  24.708  15.433  0.1369 -0.2457  0.1066
72031W        W72895  13.756  24.849  11.843  0.0904  0.1728  0.0327
72032W        W72896  10.195  23.343  10.500  0.0941 -0.0790  0.2471
72033W        W72897   8.542  22.799  15.121 -0.1105  0.1160  0.1591
72034W        W72898   9.649  25.165  14.426  0.1998  0.3200  0.0293
72035W        W72899   8.521  22.344  12.383  0.2751 -0.0406 -0.1209
72036W        W72900  12.141  25.288  16.017  0.0222 -0.2087  0.0168
72037W        W72901  13.841  23.008  12.934 -0.1301 -0.2021 -0.0326
72038W        W72902  11.322  22.659  14.894 -0.2332  0.0715  0.1690
72039W        W72903  11.290  20.962  14.373  0.1380 -0.0952 -0.1759
72040W        W72904   8.939  22.416  12.825 -0.0522  0.2877  0.0857
72041W        W72905   6.811  26.752  13.054 -0.1363  0.3565  0.0051
72042W        W72906   9.846  23.597  14.127 -0.1089 -0.2123  0.0232
72043W        W72907  10.471  22.097   8.322 -0.0953 -0.1073 -0.2584
72044W        W72908  10.704  24.006  13.321  0.2360 -0.0358 -0.0657
72045W        W72909   8.770  24.481  13.901 -0.1552  0.0343  0.0391
72046W        W72910  10.253  23.372  11.822  0.0957 -0.3834 -0.2263
72047W        W72911   9.842  24.025  14.694 -0.1490 -0.3173 -0.0669
72048W        W72912  10.684  23.438  10.663  0.1250 -0.0818  0.1691
72049W        W72913   7.961  23.049  12.951 -0.1547 -0.0224  0.2743
72050W        W72914   9.137  21.679  12.651 -0.1186  0.1449  0.0087
72051W        W72915   8.261  25.627  12.324  0.0878 -0.2064 -0.0558
72052W        W72916   9.335  23.188  12.431 -0.0132 -0.1341  0.0937
72053W        W72917  10.309  23.089   8.074 -0.0950  0.0581  0.0797
72054W        W72918   9.817  23.554  14.821 -0.0976 -0.0137 -0.0954
72055W        W72919   8.519  24.677  13.474  0.3023  0.1324  0.1230
72056W        W72920   8.950  23.708  13.480 -0.0297  0.0734  0.0258
72057W        W72921   8.442  25.199  14.658  0.1555 -0.0571 -0.0007
72058W        W72922  12.141  21.612  10.571 -0.3844 -0.0553 -0.0691
72059W        W72923  11.245  24.372  11.375 -0.2329 -0.1113  0.0804
72060W        W72924   9.446  21.717  13.801  0.0003 -0.0200 -0.0039
72061W        W72925   6.990  24.623  15.749  0.0543  0.1297  0.0973
72062W        W72926   8.234  24.425  14.215 -0.2656  0.2151 -0.0698
72063W        W72927   9.179  21.595  14.936  0.0449 -0.1424 -0.1021
72064W        W72928   7.967  23.661  16.599  0.1605  0.1567  0.1840
72065W        W72929   9.444  24.357  10.884 -0.0352 -0.2422  0.2617
72066W        W72930  11.954  25.397  11.260  0.1512  0.4565 -0.0343
72067W        W72931   9.702  25.074  12.412  0.2279  0.1382  0.0139
72068W        W72932   9.091  24.633  15.103 -0.1164  0.3219 -0.0006
72069W        W72933   7.467  21.845  13.328  0.0249  0.1289 -0.0350
72070W        W72934  12.968  20.608  12.922  0.1062  0.1414 -0.2170
72071W        W72935   9.178  22.020  11.780 -0.0079  0.3561 -0.0960
72072W        W72936   9.908  22.410  11.163  0.1053  0.3335 -0.1816
72073W        W72937   7.207  20.733  15.982  0.3381  0.0217  0.1179
72074W        W72938   8.885  23.902  13.074  0.0867  0.2924  0.1902
72075W        W72939   9.898  26.009  11.915  0.1502 -0.2117 -0.3100
72076W        W72940  11.349  23.673  12.647  0.2586  0.1603 -0.0399
72077W        W72941   5.978  26.674  16.077  0.1058  0.1264  0.2862
72078W        W72942   7.870  22.481  10.783 -0.1775  0.2459  0.1014
72079W        W72943   9.585  21.913   9.557 -0.0208  0.0106  0.0394
72080W        W72944  12.843  22.779  14.630 -0.1127 -0.0906  0.2834
72081W        W72945   6.217  23.510  12.735 -0.0558 -0.2758  0.0281
72082W        W72946   9.422  27.204  14.477  0.2249 -0.3017 -0.3281
72083W        W72947   9.139  23.698  12.669 -0.1915 -0.0038 -0.3328
72084W        W72948   6.604  24.763  14.244  0.1167 -0.0727  0.2533
72085W        W72949   8.939  25.421  13.581  0.0857  0.1117  0.0309
72086W        W72950   8.144  25.914  13.496 -0.1314 -0.1805 -0.0298
72087W        W72951   6.555  25.575  15.277  0.0291 -0.0343 -0.0595
72088W        W72952   8.476  19.521  13.260 -0.2124  0.4001 -0.0836
72089W        W72953   9.120  23.821  11.664  0.0774 -0.1235  0.2933
72090W        W72954   7.209  21.101  11.287 -0.0129 -0.0305 -0.2183
72091W        W72955   8.979  23.831  14.376  0.0035  0.2887  0.0268
72092W        W72956  11.129  24.087  14.616 -0.0082  0.3847  0.0346
72093W        W72957  11.907  23.426  11.077 -0.0761 -0.1036 -0.0280
72094W        W72958   8.882  26.165  16.732 -0.3504  0.1064  0.0353
72095W        W72959  10.378  24.092  15.120  0.3629 -0.0567 -0.0626
72096W        W72960  10.420  25.133  15.060 -0.4099  0.4036  0.2491
72097W        W72961  11.539  26.684  17.711  0.1836 -0.0893  0.0601
72098W        W72962   8.452  25.542  13.750  0.0077  0.0592  0.2131
72099W        W72963  11.481  23.538   8.972  0.0176  0.3444 -0.0128
72100W        W72964  10.901  23.790  12.700 -0.1863  0.1108  0.0463
72101W        W72965  11.599  23.033  13.205  0.3397  0.2020 -0.1588
72102W        W72966   9.967  26.479  11.651  0.0243  0.1545 -0.1094
72103W        W72967  11.661  23.577  14.558 -0.1760  0.0748 -0.0835
72104W        W72968   7.642  20.967  13.818 -0.2514  0.0642 -0.0887
72105W        W72969   8.149  22.249  12.721 -0.0625 -0.2923 -0.0920
72106W        W72970   8.557  27.401  10.806  0.0687 -0.0689 -0.0176
72107W        W72971   9.940  24.999  13.349 -0.2150 -0.1711  0.0590
72108W        W72972   9.707  20.495  10.131 -0.1258  0.1857 -0.1122
72109W        W72973   8.447  23.199  12.653  0.0191  0.2028  0.0829
72110W        W72974  11.531  24.253  11.994 -0.2094  0.3103 -0.3572
72111W        W72975   7.504  21.557  11.001 -0.2705  0.1157  0.1782
72112W        W72976  10.223  25.393  14.638  0.2495  0.0836  0.4092
72113W        W72977   9.431  22.136  12.723  0.2093  0.0627  0.2751
72114W        W72978  10.066  22.842  10.909 -0.1720 -0.1527 -0.0885
72115W        W72979  11.458  26.433  14.855 -0.0543  0.4637  0.0061
72116W        W72980   8.288  24.929  14.145  0.1155 -0.1209 -0.0210
72117W        W72981  11.039  21.420  10.723 -0.2508 -0.2378 -0.2738
72118W        W72982   7.182  24.421  14.696  0.1091  0.2685  0.2336
72119W        W72983  10.759  22.756  12.127  0.4143  0.1349 -0.0445
72120W        W72984   8.088  22.423  15.350  0.0643  0.2470 -0.0944
72121W        W72985  11.015  21.975  15.333 -0.0797  0.0300  0.2138
72122W        W72986  10.012  22.672  10.342 -0.0426 -0.1155 -0.0868
72123W        W72987   8.367  22.294  10.789  0.0305 -0.4044  0.3222
72124W        W72988   6.991  24.931  13.891  0.0168 -0.1687  0.0417
72125W        W72989   9.746  24.193  13.483 -0.4093  0.2141 -0.2117
72126W        W72990  11.749  27.171  13.336  0.2917 -0.1787  0.0283
72127W        W72991  13.337  22.575  14.052  0.1151  0.0673  0.2169
72128W        W72992   9.563  28.677  12.662 -0.2311 -0.0068 -0.4192
72129W        W72993  13.339  25.867  12.751  0.1792  0.1513  0.0873
72130W        W72994  11.020  21.138  11.538 -0.2149 -0.1198  0.0969
72131W        W72995  10.306  24.292  13.675  0.0147 -0.2664 -0.0362
72132W        W72996   8.412  23.019  13.260  0.1895  0.0108  0.0523
72133W        W72997   8.781  22.350  11.492 -0.2251  0.1842 -0.0297
72134W        W72998   9.189  21.539  13.150 -0.2609 -0.0251  0.0537
72135W        W72999  10.581  26.491  14.453  0.0375  0.2696  0.0198
72136W        W73000  11.860  24.787  11.509 -0.1076  0.1689  0.0024
72137W        W73001   9.247  20.805  15.642 -0.0111 -0.3559  0.1679
72138W        W73002   7.368  22.129  12.103 -0.1308  0.0604 -0.0919
72139W        W73003  11.905  22.699  13.548  0.1913 -0.1591 -0.0208
72140W        W73004  10.842  19.850  16.610  0.2649  0.3383  0.0607
72141W        W73005   9.591  21.601  14.644  0.2843 -0.2047  0.0324
72142W        W73006  10.307  22.313  14.762  0.0131 -0.0620 -0.0468
72143W        W73007   8.320  21.866  12.395 -0.0951 -0.2771 -0.1890
72144W        W73008   9.504  22.000  14.319  0.1273  0.0399 -0.1055
72145W        W73009  11.187  27.976  12.259 -0.0102 -0.0811  0.0521
72146W        W73010  13.061  25.998  13.342 -0.0038 -0.0455  0.0136
72147W        W73011  10.792  24.592  14.488 -0.1602 -0.2199  0.2658
72148W        W73012   9.362  26.149  12.674  0.0452 -0.1629 -0.2598
72149W        W73013  11.457  24.720  12.930  0.1943 -0.1603 -0.1381
72150W        W73014   8.765  24.158  13.555 -0.0980 -0.0140  0.4869
72151W        W73015  10.940  23.858  12.033 -0.2832 -0.2525  0.2007
72152W        W73016  10.013  26.269  13.394  0.0766  0.0035 -0.2494
72153W        W73017   9.441  26.403  14.096  0.2802  0.2892 -0.2298
72154W        W73018   9.723  24.416  10.344  0.1304 -0.1792 -0.0864
72155W        W73019  11.788  23.936  13.602 -0.0113 -0.1125  0.1292
72156W        W73020   7.228  25.564  14.284 -0.1957 -0.1045 -0.0605
72157W        W73021   9.795  22.919  13.434 -0.0909 -0.2406  0.3159
72158W        W73022   8.023  24.009  13.126  0.0312 -0.0212  0.3819
72159W        W73023   8.245  27.954  15.097 -0.2584 -0.0212  0.1756
72160W        W73024  11.954  23.158  14.564 -0.0242 -0.0402 -0.0269
72161W        W73025   8.098  22.286  12.175  0.0459  0.0963  0.0361
72162W        W73026   9.798  25.564  18.854  0.0369  0.3061 -0.3401
72163W        W73027   9.663  24.061  16.273 -0.0666  0.0561  0.0291
72164W        W73028  11.550  23.561  13.903 -0.0376  0.1687  0.1380
72165W        W73029  10.031  25.434  17.037 -0.1181 -0.2920 -0.0471
72166W        W73030   8.955  24.253  14.795 -0.2088 -0.0504 -0.2119
72167W        W73031   5.174  22.993  15.727  0.1070 -0.3047  0.2189
72168W        W73032   9.042  23.467  15.533  0.0088 -0.0942 -0.2328
72169W        W73033   6.630  26.162  15.341 -0.0221 -0.0391  0.0700
72170W        W73034  10.203  22.941  18.013  0.0548  0.0049 -0.0506
72171W        W73035  10.874  21.774  17.285 -0.0837  0.0042  0.1315
72172W        W73036   8.870  21.158  19.284 -0.0071  0.1844 -0.3697
72173W        W73037  10.230  22.248  15.764  0.1592 -0.2928 -0.2251
72174W        W73038  11.625  22.482  17.329 -0.0843 -0.0722 -0.1364
72175W        W73039  10.746  20.761  21.351 -0.3662 -0.0731  0.2126
72176W        W73040   7.265  22.244  14.988 -0.2617  0.0029  0.0175
72177W        W73041   7.763  24.512  18.055 -0.0474  0.3734 -0.0460
72178W        W73042  10.738  23.941  16.007  0.2129 -0.0122  0.1321
72179W        W73043   8.833  24.941  17.075  0.1590 -0.0313 -0.0833
72180W        W73044   9.725  23.192  17.225  0.0285  0.1211  0.3893
72181W        W73045  13.243  19.810  18.724  0.2313 -0.2235  0.2216
72182W        W73046  12.954  24.011  15.623  0.0476 -0.3266 -0.1527
72183W        W73047   9.266  24.005  16.958 -0.0796  0.0500 -0.0893
72184W        W73048   7.951  26.783  15.601  0.4208  0.2824  0.2858
72185W        W73049   9.340  24.868  16.990 -0.0259  0.2958 -0.1273
72186W        W73050  12.905  24.137  17.182  0.1364 -0.1496  0.2732
72187W        W73051   9.951  22.202  17.347 -0.1517  0.3012 -0.2682
72188W        W73052  10.801  24.837  15.400 -0.0783  0.0676  0.1099
72189W        W73053   9.600  26.306  16.252 -0.1368  0.1942  0.0941
72190W        W73054  10.031  24.176  18.644  0.0304  0.0586  0.1012
72191W        W73055   8.157  23.295  16.296  0.1567 -0.0947  0.5150
72192W        W73056  11.710  23.481  15.455  0.4387 -0.2824  0.0252
72193W        W73057  10.265  26.946  19.380  0.1387  0.0445 -0.2740
72194W        W73058   7.475  25.192  14.565 -0.1753  0.1502 -0.2373
72195W        W73059   9.185  22.997  14.806 -0.0442 -0.2305 -0.1284
72196W        W73060   8.083  21.128  16.191  0.0011  0.0460 -0.1502
72197W        W73061  10.593  25.111  13.311 -0.1439 -0.1055  0.1002
72198W        W73062   9.368  19.718  12.588 -0.0167 -0.1682 -0.4016
72199W        W73063   8.209  24.591  17.027  0.1783  0.4518  0.1418
72200W        W73064   9.849  25.394  16.344  0.0154 -0.0733  0.0812
72201W        W73065  10.142  23.537  18.060 -0.3002 -0.2517 -0.1206
72202W        W73066  10.600  24.071  12.421 -0.0734  0.0709 -0.0173
72203W        W73067  12.042  21.798  17.285  0.1188  0.0212 -0.1543
72204W        W73068   7.851  23.173  16.762 -0.0153 -0.0668  0.0046
72205W        W73069  10.489  25.903  16.547  0.0974 -0.3264 -0.0415
72206W        W73070   7.201  22.311  13.800 -0.1098 -0.0975  0.3040
72207W        W73071   8.389  23.786  16.257  0.0119 -0.0391 -0.0071
72208W        W73072   8.885  25.294  18.957  0.0833  0.0513  0.1759
72209W        W73073  12.811  21.752  18.876 -0.0508  0.0110 -0.0158
72210W        W73074  10.298  25.842  16.052 -0.4857 -0.1333 -0.1593
72211W        W73075  10.579  26.144  16.954 -0.0187  0.1674  0.1347
72212W        W73076  11.010  24.411  18.387 -0.0667 -0.0743 -0.2026
72213W        W73077  10.077  24.695  17.442  0.2798  0.0448  0.1308
72214W        W73078   9.519  25.019  17.714 -0.1635 -0.1675 -0.2636
72215W        W73079  12.268  23.372  15.338  0.0845 -0.0046 -0.0464
72216W        W73080   9.721  21.546  16.586 -0.1700 -0.1341 -0.2752
72217W        W73081   8.957  23.818  15.180 -0.0251  0.2369  0.0523
72218W        W73082   8.351  22.359  16.253  0.3344 -0.2163 -0.0139
72219W        W73083  10.588  24.195  14.633 -0.0214 -0.0650 -0.2378
72220W        W73084   6.135  25.760  15.603  0.2757  0.2720  0.1561
72221W        W73085   7.766  27.166  15.233  0.2864  0.0028  0.1313
72222W        W73086  13.066  23.404  15.190  0.1509 -0.2888  0.0669
72223W        W73087   4.742  23.524  16.616 -0.0856  0.0753  0.0610
72224W        W73088   5.669  24.620  16.178 -0.2817 -0.1697  0.1118
72225W        W73089   9.913  23.915  15.179  0.0725  0.1513 -0.0790
72226W        W73090   9.540  23.700  15.935 -0.0380 -0.0645 -0.1836
72227W        W73091  13.976  20.148  16.360  0.1082  0.0867  0.0786
72228W        W73092   6.926  20.697  12.086  0.0741  0.2960 -0.0609
72229W        W73093  10.311  24.672  15.694  0.1444  0.1232 -0.1071
72230W        W73094   7.721  24.121  15.857 -0.0929 -0.0995 -0.0089
72231W        W73095   8.710  23.273  14.919  0.2917  0.3467  0.3948
72232W        W73096  12.021  23.645  19.505 -0.0813  0.0783  0.0581
72233W        W73097  10.038  21.689  15.198  0.0838  0.3430  0.1901
72234W        W73098   7.458  25.066  16.393  0.2695 -0.0097  0.2050
72235W        W73099  10.424  22.185  16.596  0.2706  0.0854 -0.0028
72236W        W73100  11.673  24.552  15.384 -0.0800  0.0584  0.0284
72237W        W73101   9.036  26.109  15.273 -0.1192  0.1072 -0.0753
72238W        W73102   7.963  23.715  16.009 -0.2375  0.1068 -0.1955
72239W        W73103   7.569  23.620  15.667 -0.1823  0.0095 -0.1081
72240W        W73104  12.311  24.014  13.550  0.1911  0.0818  0.3312
72241W        W73105  10.036  23.108  15.903  0.2167 -0.0717 -0.1008
72242W        W73106   8.580  22.244  15.268 -0.2182 -0.2015 -0.2771
72243W        W73107   6.955  22.384  16.676  0.0873 -0.2691  0.3061
72244W        W73108  10.428  22.280  15.274  0.0169  0.0697 -0.0048
72245W        W73109   9.144  22.641  15.644 -0.2511  0.0349 -0.0563
72246W        W73110  11.961  22.268  16.944 -0.0774  0.1487  0.0040
72247W        W73111   9.354  22.802  17.600 -0.0519 -0.1574  0.1268
72248W        W73112  12.565  25.069  16.355 -0.0127 -0.1078 -0.1414
72249W        W73113  10.708  19.172  16.334  0.2213 -0.0455 -0.1827
72250W        W73114  10.894  21.338  17.535  0.1813 -0.0859  0.1024
72251W        W73115  12.697  21.244  19.945  0.0571  0.1649  0.0100
72252W        W73116  10.964  21.334  15.448  0.0940  0.1392  0.1242
72253W        W73117  11.211  23.521  17.953 -0.0440 -0.0208 -0.2344
72254W        W73118   7.464  23.760  16.126 -0.2214 -0.1776  0.1343
72255W        W73119   9.570  24.756  15.270 -0.1166 -0.0710  0.1631
72256W        W73120   9.507  22.405  18.919 -0.0017  0.0171 -0.1061
72257W        W73121  13.383  19.642  17.776  0.4091 -0.3319  0.1995
72258W        W73122  11.832  24.278  18.763 -0.1463 -0.1671  0.0174
72259W        W73123   9.073  25.059  17.471  0.4380  0.0410 -0.1069
72260W        W73124   7.745  24.075  16.390  0.0709  0.0679  0.2989
72261W        W73125  10.918  25.591  17.357  0.3615 -0.2396  0.0886
72262W        W73126  11.818  24.988  13.900 -0.0269 -0.1544 -0.0574
72263W        W73127   9.109  24.327  17.867 -0.1489  0.1119 -0.0868
72264W        W73128  12.307  21.554  14.165 -0.2806 -0.0312 -0.2079
72265W        W73129   9.389  26.874  17.238  0.4070 -0.2228  0.1679
72266W        W73130  11.154  20.896  15.300  0.1550  0.0362 -0.1309
72267W        W73131  11.886  24.173  17.694 -0.0341 -0.0037 -0.4735
72268W        W73132  11.188  20.951  15.808  0.1196  0.1324 -0.1458
72269W        W73133  11.576  23.263  18.791  0.0018  0.2883  0.1501
72270W        W73134  10.875  21.345  16.673  0.2026  0.1068  0.0443
72271W        W73135   9.770  24.011  16.792  0.0854  0.0405  0.0384
72272W        W73136   9.188  24.194  16.275 -0.0338 -0.0043  0.0801
72273W        W73137  13.263  25.292  18.534 -0.0003  0.0039  0.0876
72274W        W73138  11.597  24.928  16.218 -0.1469  0.0460 -0.0474
72275W        W73139   9.234  25.396  17.883 -0.0301  0.1450  0.2043
72276W        W73140  10.031  24.863  15.289  0.1095 -0.1273  0.3995
72277W        W73141   7.598  23.322  16.261 -0.0651  0.1261 -0.2635
72278W        W73142   9.707  20.802  18.197  0.0597  0.3821 -0.0805
72279W        W73143   7.950  24.877  17.477  0.3011 -0.3164 -0.0551
72280W        W73144  12.485  22.339  14.427  0.1568 -0.0118  0.1582
72281W        W73145  12.032  22.331  12.957  0.1986 -0.1032  0.0857
72282W        W73146  10.206  25.360  13.631  0.2090 -0.1782 -0.0956
72283W        W73147  10.547  24.332  18.502 -0.0543  0.0589  0.1231
72284W        W73148  11.023  22.129  13.978  0.2804 -0.0296  0.2120
72285W        W73149   8.899  27.867  14.559 -0.2252  0.0016 -0.1527
72286W        W73150  11.103  26.403  14.428 -0.2845  0.2219  0.0015
72287W        W73151  10.968  24.485  14.957 -0.1632 -0.0612 -0.2562
72288W        W73152   8.851  21.982  17.356  0.1846  0.2029 -0.2508
72289W        W73153  11.376  24.307  17.855  0.2163  0.1128  0.1040
72290W        W73154   6.993  25.320  16.190 -0.0594 -0.2963  0.3863
72291W        W73155  11.757  26.902  18.127 -0.1224 -0.2048 -0.3751
72292W        W73156  10.665  27.446  17.519 -0.0869 -0.1535  0.1152
72293W        W73157   8.553  23.361  15.404  0.0701  0.0210 -0.0390
72294W        W73158  12.874  22.309  14.002  0.1868  0.0449 -0.0023
72295W        W73159  10.392  25.542  18.910  0.1337  0.1758 -0.2149
72296W        W73160   8.700  22.588  16.567  0.0814 -0.1671 -0.1840
72297W        W73161  13.248  23.023  14.868 -0.0139  0.2654 -0.1067
72298W        W73162  12.302  24.448  16.574 -0.1233 -0.3063  0.1662
72299W        W73163   7.529  24.568  16.314 -0.0737  0.0487  0.2250
72300W        W73164   9.523  24.555  16.187 -0.1206 -0.0970  0.2492
72301W        W73165   9.956  20.525  13.556 -0.3405  0.0804  0.0475
72302W        W73166  11.185  21.460  18.426  0.1230  0.0537  0.0156
72303W        W73167   6.303  24.578  14.974 -0.0595  0.0946 -0.0022
72304W        W73168   6.088  23.404  16.329  0.0328  0.0339  0.0512
72305W        W73169  11.309  25.705  16.480 -0.1862 -0.2535  0.0577
72306W        W73170  12.060  20.487  15.557  0.0849 -0.1067 -0.2495
72307W        W73171  11.829  24.679  16.754 -0.1387  0.1379  0.2803
72308W        W73172   7.466  27.945  16.035  0.0432 -0.0371  0.0438
72309W        W73173  10.809  25.942  14.546  0.0011 -0.1996  0.1056
72310W        W73174   5.994  24.699  15.317  0.1382  0.2611 -0.2228
72311W        W73175   9.947  24.860  17.918  0.2888  0.0359  0.0916
72312W        W73176  11.689  21.169  14.635  0.0412  0.0681  0.2379
72313W        W73177   8.993  24.645  16.134 -0.0005  0.0166 -0.1236
72314W        W73178   7.726  21.596  14.577  0.1373 -0.1493 -0.0047
72315W        W73179  11.141  22.660  16.484 -0.0085  0.2200 -0.0491
72316W        W73180  12.615  21.220  16.740 -0.0631  0.1275  0.1854
72317W        W73181   6.614  25.038  17.984  0.0220  0.1329  0.2966
72318W        W73182   7.195  25.131  15.444 -0.1277  0.1034  0.1041
72319W        W73183   9.096  20.055  13.981  0.2582 -0.1117 -0.1529
72320W        W73184  10.530  21.423  15.907 -0.1938 -0.0874 -0.1781
72321W        W73185  10.866  22.023  18.664 -0.1501 -0.1608  0.0638
72322W        W73186   9.854  24.016  18.127 -0.0389  0.0243  0.2556
72323W        W73187   8.223  21.503  20.535 -0.0632 -0.0201  0.0733
72324W        W73188  11.462  24.642  18.701  0.2052  0.1903 -0.0912
72325W        W73189  12.718  25.195  17.064 -0.0642  0.1553  0.0113
72326W        W73190  11.247  24.177  15.902 -0.2463 -0.1494  0.3154
72327W        W73191  10.564  22.993  15.962 -0.3178 -0.0293  0.1332
72328W        W73192   8.862  26.388  18.165  0.3289  0.0252 -0.0291
72329W        W73193   8.623  25.212  17.671 -0.0422 -0.0707 -0.2455
72330W        W73194   9.802  23.188  15.367  0.2037 -0.0354 -0.4961
72331W        W73195  12.844  19.884  16.529  0.0344 -0.0525  0.0938
72332W        W73196  11.886  24.704  15.855  0.5404  0.1321 -0.0330
72333W        W73197   8.737  21.719  14.283 -0.1462  0.0141  0.0236
72334W        W73198   9.988  24.161  13.985  0.0875  0.1133  0.0275
72335W        W73199  10.133  23.452  18.603 -0.1778 -0.1198 -0.1654
72336W        W73200  11.870  23.996  15.102  0.1646  0.3052  0.1432
72337W        W73201   8.058  28.889  18.209 -0.2460  0.0830 -0.3227
72338W        W73202   9.604  23.688  17.138 -0.1052 -0.0203 -0.1165
72339W        W73203   4.390  24.977  16.173  0.1367 -0.2255  0.2927
72340W        W73204  10.473  19.952  17.481  0.1990 -0.2647  0.1351
72341W        W73205   9.239  24.507  15.699 -0.0997  0.0046  0.1845
72342W        W73206  10.819  25.416  15.410 -0.0252 -0.2212 -0.1281
72343W        W73207  10.602  24.922  16.131 -0.2540  0.2790  0.0293
72344W        W73208  11.052  23.048  14.913 -0.1510  0.1226 -0.2010
72345W        W73209   6.379  22.604  15.963 -0.0818  0.0669  0.0805
72346W        W73210   8.796  25.090  15.918  0.2356  0.0667 -0.1763
72347W        W73211  10.538  21.852  15.003  0.0161 -0.0169 -0.0463
72348W        W73212  10.110  22.588  15.109 -0.0980 -0.1839  0.0214
72349W        W73213   9.440  23.306  18.518  0.1685  0.1615  0.1269
72350W        W73214   6.438  24.245  16.920  0.3080 -0.1417 -0.3133
72351W        W73215   9.931  28.149  14.786 -0.2003 -0.0123  0.0270
72352W        W73216   8.230  26.445  15.874 -0.4781 -0.2040 -0.2867
72353W        W73217  11.313  19.851  15.944 -0.1339 -0.1893  0.5035
72354W        W73218  12.041  23.015  16.687 -0.0172  0.0542 -0.1841
72355W        W73219  11.884  21.201  16.413  0.2110  0.0571 -0.0214
72356W        W73220   6.724  24.212  16.466 -0.1933  0.0513  0.2821
72357W        W73221   7.629  19.684  15.738 -0.0403 -0.3257 -0.2413
72358W        W73222   8.165  22.389  16.739 -0.0623 -0.2286 -0.3101
72359W        W73223   7.733  23.521  17.684 -0.1039  0.0293  0.0004
72360W        W73224   8.964  22.140  15.645  0.0383 -0.1032 -0.1448
72361W        W73225   8.487  23.296  11.960 -0.1088  0.0090  0.0129
72362W        W73226  11.336  24.714  13.995  0.1442  0.0404  0.3555
72363W        W73227  10.529  21.707  15.495 -0.3044  0.2614  0.0005
72364W        W73228   7.271  20.305  18.801  0.1698 -0.1058  0.1371
72365W        W73229  11.002  21.369  16.045 -0.0059 -0.0856  0.0440
72366W        W73230   9.455  21.345  16.175 -0.3945 -0.0072  0.0440
72367W        W73231   8.785  21.360  17.500  0.1829  0.2637 -0.0195
72368W        W73232   8.416  23.652  16.810  0.0850  0.1399 -0.1927
72369W        W73233   9.355  28.917  16.263  0.1054 -0.0930 -0.1225
72370W        W73234   9.436  22.496  14.154 -0.3447  0.0911  0.1708
72371W        W73235   5.011  23.774  14.838  0.1921 -0.1078  0.2246
72372W        W73236   7.079  23.744  18.923 -0.0380 -0.2437 -0.0530
72373W        W73237   8.444  24.322  17.370  0.0166 -0.0745  0.1607
72374W        W73238  10.243  24.463  16.866 -0.2909  0.0359 -0.0638
72375W        W73239  12.482  21.847  18.167  0.0779  0.0296 -0.1822
72376W        W73240  14.964  26.125  13.606  0.0206  0.1960  0.1998
72377W        W73241  10.178  23.281  14.644  0.0831  0.4267  0.1602
72378W        W73242  10.504  27.146  15.389  0.0228  0.0751 -0.0195
72379W        W73243   8.603  23.462  17.942 -0.0348  0.0641 -0.2302
72380W        W73244   9.649  26.076  18.680  0.1127 -0.5765 -0.2984
72381W        W73245   8.243  23.538  19.346 -0.0477  0.1091  0.0402
72382W        W73246  10.889  24.291  13.674 -0.0844  0.2145 -0.0078
72383W        W73247   7.200  26.644  16.037 -0.0089  0.2105  0.3029
72384W        W73248   9.044  22.070  14.036  0.0313  0.1513 -0.1042
72385W        W73249  10.891  25.941  15.748 -0.1208 -0.2920 -0.4570
72386W        W73250   8.357  21.338  17.784  0.2054 -0.0168 -0.0997
72387W        W73251   8.902  22.919  18.081  0.2336 -0.2427  0.1067
72388W        W73252  13.025  20.861  19.054 -0.0221  0.0561 -0.1087
72389W        W73253   9.519  27.362  14.014  0.1718 -0.0701 -0.1708
72390W        W73254  10.286  25.305  16.647 -0.1832  0.1274  0.0713
72391W        W73255   9.014  21.424  18.756  0.0715 -0.1114  0.0009
72392W        W73256  10.025  23.807  19.011 -0.1357 -0.2247  0.2657
72393W        W73257   6.271  23.169  15.191 -0.0416 -0.3162  0.1271
72394W        W73258   8.769  28.438  15.564  0.0630  0.2200 -0.0137
72395W        W73259   8.089  21.925  16.970 -0.1231 -0.1343 -0.0278
72396W        W73260   9.644  24.184  15.802  0.0140  0.1071 -0.1638
72397W        W73261  11.505  22.876  16.795  0.0232  0.1379 -0.0812
72398W        W73262  10.132  25.023  16.005 -0.1235  0.2552  0.0597
72399W        W73263  10.456  25.411  16.200  0.2037  0.0838  0.0945
72400W        W73264   9.119  27.495  16.748  0.0855 -0.1237  0.0946
72401W        W73265  11.862  24.449  13.899  0.0845 -0.0336  0.2096
72402W        W73266   7.873  24.511  15.539  0.0618  0.0148 -0.0784
72403W        W73267   5.671  23.299  15.480  0.2741 -0.2446  0.0777
72404W        W73268   5.039  23.771  17.051  0.0189 -0.1677 -0.0726
72405W        W73269  10.171  20.820  16.892  0.3861  0.1659  0.1672
72406W        W73270  11.778  23.523  15.960  0.0232 -0.2439  0.2288
72407W        W73271  10.362  21.133  13.766  0.3857  0.0102  0.1672
72408W        W73272   7.523  25.054  18.161 -0.2550  0.0450  0.3745
72409W        W73273  12.358  25.730  16.346 -0.1022  0.0827  0.1268
72410W        W73274  10.300  22.727  15.603  0.2046  0.2638 -0.0862
72411W        W73275   8.237  22.867  16.597 -0.2718  0.0839 -0.0692
72412W        W73276   5.274  24.291  16.087 -0.1921 -0.3996 -0.1623
72413W        W73277   9.352  27.133  17.695  0.1870  0.0496  0.0727
72414W        W73278   8.660  21.423  16.499  0.1077  0.2576 -0.0707
72415W        W73279   5.116  22.230  16.209  0.0541 -0.2324 -0.0722
72416W        W73280  10.115  26.415  15.945 -0.0577 -0.0140  0.0332
72417W        W73281  14.443  21.681  14.002  0.2151  0.2738 -0.1380
72418W        W73282  10.190  24.026  15.973 -0.2205  0.4231 -0.7243
72419W        W73283  11.852  25.302  13.293  0.0663  0.1808 -0.0384
72420W        W73284  11.481  20.491  16.495  0.0692 -0.3436  0.3038
72421W        W73285   9.362  23.814  14.783 -0.1758  0.1576 -0.1008
72422W        W73286   9.845  20.602  16.534  0.0745  0.1531 -0.1498
72423W        W73287  11.900  24.256  17.014 -0.2806  0.1962 -0.1967
72424W        W73288  11.640  20.467  16.975  0.1004  0.0590 -0.1504
72425W        W73289   7.629  25.461  15.590  0.1440 -0.3839 -0.0407
72426W        W73290   7.225  25.631  15.821 -0.1345 -0.1195  0.2295
72427W        W73291   6.681  25.919  13.500 -0.1618  0.1772 -0.3672
72428W        W73292  12.006  28.325  13.314  0.0700  0.3204  0.0457
72429W        W73293   9.029  23.784  16.044 -0.0315  0.0002  0.1927
72430W        W73294  11.817  23.935  14.148 -0.4302  0.4090  0.2766
72431W        W73295   9.726  24.932  16.507 -0.0468 -0.0984 -0.0502
72432W        W73296   9.607  24.432  17.003  0.0430  0.2915  0.0751
72433W        W73297   8.464  23.785  15.187  0.0538  0.1511  0.0260
72434W        W73298   8.548  22.107  16.659 -0.1370 -0.0624  0.2112
72435W        W73299  11.955  24.907  19.169  0.1669  0.3292  0.0219
72436W        W73300  11.526  21.654  19.857 -0.0377 -0.1798  0.1427
72437W        W73301  12.290  22.710  16.375 -0.0315 -0.3678 -0.0620
72438W        W73302   9.069  23.678  17.979 -0.0016  0.0162  0.1523
72439W        W73303  11.913  25.438  13.741  0.0891  0.4521  0.0963
72440W        W73304   4.954  26.321  16.297 -0.0269  0.1069 -0.1496
72441W        W73305   9.611  21.741  19.475 -0.1533  0.0639 -0.0288
72442W        W73306  10.713  22.730  15.270 -0.2941  0.0521 -0.1088
72443W        W73307   7.496  22.094  14.256  0.2881 -0.0614  0.0121
72444W        W73308   5.943  27.711  17.959  0.0540  0.1872  0.1051
72445W        W73309   9.172  26.598  15.443  0.0794  0.0563  0.1177
72446W        W73310  11.056  20.235  19.966 -0.0805  0.0365 -0.1534
72447W        W73311  10.928  25.046  17.143 -0.1073  0.1009  0.0747
72448W        W73312  10.983  23.233  17.602 -0.2192  0.0800 -0.0028
72449W        W73313  13.094  22.480  15.059 -0.1421 -0.0105 -0.1230
72450W        W73314   7.849  25.046  15.593 -0.3449 -0.1696  0.0473
72451W        W73315   8.814  24.656  17.547 -0.3114 -0.3567  0.1464
72452W        W73316  10.213  23.487  15.204  0.1402 -0.0424 -0.4360
72453W        W73317   8.928  23.491  16.948  0.4131  0.0002  0.2300
72454W        W73318   7.414  24.325  14.244 -0.0302 -0.3932 -0.0409
72455W        W73319   9.569  25.351  16.825  0.1533  0.2484 -0.0829
72456W        W73320  10.207  20.444  14.830 -0.1398 -0.3368 -0.0363
72457W        W73321  10.478  20.130  16.882 -0.1007 -0.0080 -0.0335
72458W        W73322  12.087  23.819  16.860  0.5285 -0.0152 -0.1072
72459W        W73323  12.292  22.751  15.847 -0.1236 -0.0649 -0.4176
72460W        W73324   7.240  24.207  15.519  0.0353 -0.2187 -0.1394
72461W        W73325   8.840  23.888  16.587 -0.2180 -0.0620 -0.1359
72462W        W73326   9.303  22.458  19.808  0.1319  0.1730  0.1256
72463W        W73327  10.248  23.919  16.917  0.2403 -0.3075 -0.1288
72464W        W73328  12.350  25.433  17.426 -0.1511  0.0776  0.0664
72465W        W73329  10.755  25.472  14.889 -0.2147  0.2032  0.0672
72466W        W73330  10.875  24.587  15.907  0.0239  0.0672  0.2938
72467W        W73331  13.302  25.779  18.364 -0.0470 -0.3601 -0.2076
72468W        W73332   7.782  20.527  15.953 -0.1162 -0.1812 -0.1002
72469W        W73333   7.678  21.765  16.749  0.0260 -0.1882  0.2909
72470W        W73334   8.164  24.316  16.226 -0.2751 -0.0884 -0.0231
72471W        W73335  11.512  23.157  14.791 -0.0220 -0.2172  0.3098
72472W        W73336   8.036  21.093  19.713  0.0402 -0.1859 -0.2486
72473W        W73337  10.314  23.007  15.069  0.2708  0.1110 -0.0085
72474W        W73338   9.232  23.138  17.171  0.1917 -0.0891 -0.1877
72475W        W73339   8.231  24.153  18.599  0.0330  0.1032  0.0730
72476W        W73340   7.748  22.750  19.094 -0.0181 -0.2432  0.0851
72477W        W73341  10.488  23.415  14.158  0.0222  0.1636 -0.2551
72478W        W73342  10.468  21.932  16.032 -0.1154  0.0893 -0.0072
72479W        W73343   6.874  23.490  16.661  0.1454 -0.2946 -0.3840
72480W        W73344   8.380  24.754  17.780  0.1911  0.1220 -0.1522
72481W        W73345   7.866  25.279  16.097  0.1552 -0.0390 -0.0340
72482W        W73346  13.069  23.893  15.143 -0.4489 -0.3193 -0.0201
72483W        W73347   9.572  24.513  17.516  0.0548  0.0020 -0.0465
72484W        W73348   7.727  25.797  16.013 -0.2159  0.3217 -0.1583
72485W        W73349  11.450  22.295  12.234  0.0355 -0.2355 -0.3681
72486W        W73350   7.879  22.944  18.140  0.0902 -0.0731  0.0238
72487W        W73351   9.431  21.958  15.599  0.1215  0.0727 -0.1653
72488W        W73352   7.512  22.654  15.044 -0.0041  0.2912 -0.0909
72489W        W73353   7.761  22.714  16.805 -0.5296  0.0979  0.2854
72490W        W73354   6.043  24.881  13.988  0.2125  0.2174 -0.0447
72491W        W73355   9.547  23.535  19.074  0.0571 -0.1404 -0.1840
72492W        W73356  11.112  22.871  14.463  0.0005  0.0681 -0.1727
72493W        W73357   7.742  26.568  16.404 -0.2179 -0.1015  0.1231
72494W        W73358   9.902  24.642  18.412  0.1004 -0.0713  0.0352
72495W        W73359  11.798  22.909  18.428 -0.1247 -0.1302 -0.1958
72496W        W73360   8.222  25.776  17.156  0.1422  0.2192  0.3150
72497W        W73361   7.029  22.990  16.445  0.1639 -0.0657  0.0379
72498W        W73362  11.316  23.690  15.954 -0.0513 -0.0655 -0.1528
72499W        W73363   9.100  19.969  13.461 -0.0618  0.1020  0.0405
72500W        W73364  11.859  21.073  14.166 -0.0942  0.3778 -0.3749
72501W        W73365   8.249  23.007  15.465  0.0483 -0.2622  0.0820
72502W        W73366  10.995  24.205  16.335  0.1169 -0.1315 -0.0465
72503W        W73367  11.202  21.854  16.670  0.0814  0.1820 -0.0507
72504W        W73368   5.706  26.251  15.877  0.3312  0.1425  0.0031
72505W        W73369  10.388  23.616  13.327  0.0788  0.0836  0.2134
72506W        W73370   6.772  24.993  16.480 -0.1184 -0.0623 -0.1260
72507W        W73371   5.481  23.704  15.737  0.1175  0.1615 -0.2489
72508W        W73372   6.973  24.602  17.882 -0.0976 -0.0161  0.1257
72509W        W73373  10.871  25.625  16.800 -0.3946 -0.1158 -0.1720
72510W        W73374   8.617  21.766  15.452 -0.1456 -0.2552  0.3339
72511W        W73375  11.158  23.376  15.338 -0.0014 -0.0116 -0.0248
72512W        W73376  12.804  22.960  15.130  0.2054  0.2117  0.1130
72513W        W73377  10.705   0.101  16.270 -0.1705  0.1541  0.0616
72514W        W73378   9.935  27.354  14.441  0.1633 -0.0151 -0.1046
72515W        W73379   9.861  25.237  15.555  0.1080  0.0564 -0.3092
72516W        W73380   9.176  21.728  15.954 -0.1306 -0.0493 -0.3095
72517W        W73381   8.259  23.210  17.075 -0.1737  0.0255  0.4908
72518W        W73382  10.877  24.756  18.707  0.0895 -0.1153 -0.0909
72519W        W73383   8.122  22.996  18.767  0.2458  0.1693  0.0403
72520W        W73384   6.661  21.938  16.928  0.3770 -0.1685 -0.1994
72521W        W73385  11.515  22.958  15.249 -0.0160  0.1601 -0.2542
72522W        W73386  11.734  23.318  17.024  0.1221 -0.0062 -0.1019
72523W        W73387   7.767  22.573  14.549 -0.1179  0.0806 -0.3511
72524W        W73388   7.307  20.370  15.117  0.1412  0.0824  0.1138
72525W        W73389  10.740  25.463  14.352  0.1616  0.1301 -0.1493
72526W        W73390  11.259  26.226  15.280  0.1442 -0.0250  0.0990
72527W        W73391  11.434  24.311  16.734 -0.1696 -0.3580 -0.0617
72528W        W73392  11.386  23.201  15.790 -0.0253 -0.0371 -0.1964
72529W        W73393  11.245  22.138  17.287  0.1078  0.0088 -0.0234
72530W        W73394  11.350  20.316  16.020  0.1949 -0.2402  0.0660
72531W        W73395   6.840  20.493  14.973  0.3186  0.3321  0.4824
72532W        W73396  12.058  23.853  15.540 -0.0827  0.0436  0.2523
72533W        W73397   8.656  23.796  15.703  0.1044 -0.0859 -0.1286
72534W        W73398   7.722  27.266  18.211  0.0849  0.3254 -0.1105
72535W        W73399  14.066  25.332  16.286  0.2785 -0.1441 -0.2798
72536W        W73400   8.683  21.704  17.882  0.3090  0.4855  0.2197
72537W        W73401  10.435  23.770  16.498  0.0357 -0.0217 -0.0617
72538W        W73402  12.017  24.134  19.329  0.2123  0.3018 -0.1727
72539W        W73403   8.134  22.974  19.332 -0.1930 -0.0158  0.0022
72540W        W73404  10.740  21.663  16.328 -0.0927 -0.0759  0.0935
72541W        W73405  11.202  23.569  17.272 -0.3647 -0.0663 -0.1624
72542W        W73406   4.030  24.044  17.860 -0.0814  0.1565 -0.0002
72543W        W73407  10.420  22.085  17.063  0.1794  0.1845  0.0917
72544W        W73408  12.588  24.580  16.194  0.5130  0.0810  0.1820
72545W        W73409  10.419  25.223  17.287  0.1637 -0.1222  0.0040
72546W        W73410   9.210  25.730  16.657 -0.0933 -0.2655 -0.1037
72547W        W73411   8.153  25.455  15.595 -0.2509  0.0664 -0.0756
72548W        W73412   8.176  27.056  19.749  0.2436  0.0083  0.1772
72549W        W73413   7.256  23.302  17.649  0.0925 -0.1661  0.2526
72550W        W73414  10.503  24.399  16.185  0.0318 -0.0250 -0.1843
72551W        W73415   9.840  26.224  17.685  0.1974 -0.2328 -0.3406
72552W        W73416   8.376  24.370  15.278 -0.0545 -0.0141  0.1106
72553W        W73417  12.127  23.889  18.907  0.0238 -0.0146  0.1136
72554W        W73418  14.278  25.137  19.379 -0.0107  0.1519 -0.2351
72555W        W73419   8.240  24.282  18.039  0.0745  0.0338 -0.0488
72556W        W73420   8.300  23.354  18.418  0.0625 -0.0733  0.0891
72557W        W73421   8.100  24.040  17.129  0.1528 -0.0732  0.0526
72558W        W73422  10.243  25.999  18.740 -0.0725  0.2235  0.3358
72559W        W73423   6.683  24.465  14.645 -0.4852 -0.0707  0.1750
72560W        W73424  10.732  23.399  15.097 -0.1702  0.0984 -0.0150
72561W        W73425   6.726  26.851  21.618 -0.3241  0.2225  0.0406
72562W        W73426   9.314  26.840  20.270 -0.0373  0.1183 -0.0860
72563W        W73427   9.194  21.721  20.260 -0.1412  0.1311  0.1748
72564W        W73428  11.463  25.937  22.062  0.0558 -0.2828 -0.0091
72565W        W73429   9.488  24.614  19.280  0.0363  0.1575  0.1792
72566W        W73430  11.242  26.369  21.255  0.0043 -0.2429  0.0333
72567W        W73431   9.352  22.942  19.946 -0.1612 -0.2510 -0.2894
72568W        W73432  11.027  24.242  17.481 -0.2829 -0.0113 -0.0441
72569W        W73433   8.026  25.400  19.928  0.3331  0.3181  0.0845
72570W        W73434   6.497  24.036  22.048 -0.2154 -0.2993 -0.2575
72571W        W73435   6.202  21.990  18.735  0.0740  0.0541  0.0281
72572W        W73436   9.506  21.137  21.015  0.0324  0.0963  0.1257
72573W        W73437  11.035  24.460  16.961 -0.2423 -0.0912  0.1670
72574W        W73438  10.785  22.169  22.132 -0.0495  0.1198 -0.1301
72575W        W73439   6.903  19.622  20.261 -0.1267 -0.2749  0.0163
72576W        W73440   7.854  24.814  20.120  0.0905 -0.1329  0.2891
72577W        W73441  11.749  24.042  14.627  0.2032  0.0947  0.1104
72578W        W73442   8.541  24.963  18.839  0.0365  0.1410 -0.0999
72579W        W73443   7.782  24.790  22.769  0.0637  0.1563  0.2666
72580W        W73444   9.495  21.896  23.103 -0.4017  0.0138 -0.1710
72581W        W73445  10.344  24.322  21.103 -0.1325 -0.0429  0.1645
72582W        W73446  11.657  23.801  19.165  0.0743  0.1376 -0.0824
72583W        W73447  10.685  24.678  20.445 -0.2284 -0.0493 -0.1947
72584W        W73448   9.308  24.391  19.665  0.0708 -0.0210  0.2335
72585W        W73449   8.145  23.821  19.724 -0.3909  0.0737  0.1597
72586W        W73450   9.491  22.904  23.789  0.0070 -0.1137 -0.0462
72587W        W73451  11.093  22.804  23.752 -0.1395  0.0015 -0.1046
72588W        W73452   9.280  26.269  20.165 -0.0741 -0.1035 -0.1240
72589W        W73453  11.227  23.892  20.925 -0.1416  0.1698 -0.1549
72590W        W73454   8.022  24.633  19.670 -0.1302  0.5267  0.1780
72591W        W73455   7.895  26.150  17.242  0.2070 -0.3480  0.2140
72592W        W73456   8.876  24.662  20.958 -0.2985  0.1356 -0.2549
72593W        W73457   7.897  23.879  21.593  0.0651  0.5502 -0.1818
72594W        W73458  10.426  22.707  21.257  0.1859  0.2183  0.2039
72595W        W73459   5.526  22.860  22.749  0.1099 -0.0905 -0.1395
72596W        W73460   9.365  25.855  20.966 -0.0119 -0.0980 -0.0093
72597W        W73461  10.859  22.219  16.827  0.0017  0.1998 -0.2147
72598W        W73462   7.595  24.021  19.732  0.0170 -0.2152  0.1040
72599W        W73463  11.229  23.523  19.956  0.0689  0.0004  0.0279
72600W        W73464  10.578  19.248  19.768 -0.0645 -0.0923 -0.2109
72601W        W73465  11.317  23.938  18.231  0.0077 -0.3459 -0.1912
72602W        W73466  11.099  20.434  22.517  0.0376 -0.0098  0.0445
72603W        W73467   9.778  23.976  19.791  0.2230 -0.1676 -0.1745
72604W        W73468  10.652  24.176  16.747 -0.0122 -0.0964  0.1866
72605W        W73469   8.904  24.073  18.277 -0.2753  0.3689 -0.1042
72606W        W73470   8.552  25.567  15.972 -0.0451  0.1445 -0.1346
72607W        W73471   7.524  21.989  19.624 -0.1309 -0.2820 -0.0525
72608W        W73472   9.890  22.907  19.908 -0.0322 -0.0563  0.0443
72609W        W73473  10.436  23.961  19.893 -0.0677  0.0093  0.1698
72610W        W73474  12.263  24.169  19.867  0.1852 -0.1261 -0.3892
72611W        W73475   9.849  25.939  21.257 -0.0051  0.2037 -0.2769
72612W        W73476   9.955  21.945  16.774 -0.1643  0.1990  0.3047
72613W        W73477   8.659  26.909  20.666  0.0057  0.0160 -0.1915
72614W        W73478  11.647  24.451  19.193  0.0739  0.1036  0.3179
72615W        W73479   9.885  24.088  17.264  0.0371 -0.1290  0.0771
72616W        W73480   5.083  24.924  16.295 -0.1820 -0.3323  0.1461
72617W        W73481   7.019  22.826  21.977 -0.1120  0.0288 -0.1072
72618W        W73482   9.221  27.516  21.534  0.2423  0.2009  0.1384
72619W        W73483   7.320  24.704  20.236  0.2384  0.0901 -0.1287
72620W        W73484  10.002  24.535  16.110 -0.2343  0.1369  0.0355
72621W        W73485  11.945  21.724  21.147 -0.0822 -0.0020  0.1637
72622W        W73486   6.558  26.100  20.802  0.0722 -0.1789 -0.1595
72623W        W73487   9.716  26.780  18.811  0.3648  0.0659 -0.1382
72624W        W73488   7.746  21.616  21.835 -0.1507  0.2301  0.2179
72625W        W73489   7.541  25.380  20.368 -0.0394  0.1717  0.0460
72626W        W73490   7.867  22.904  19.769  0.3036  0.0936  0.0133
72627W        W73491   9.771  22.931  18.739 -0.0371 -0.1135  0.1373
72628W        W73492  10.633  22.489  18.743 -0.1141  0.1648  0.0469
72629W        W73493  10.822  23.361  19.318  0.0987 -0.0653 -0.1368
72630W        W73494  10.762  23.756  19.064 -0.0344 -0.1407  0.4761
72631W        W73495   9.876  24.946  20.827 -0.2284 -0.0257 -0.4100
72632W        W73496  11.795  25.506  18.274 -0.1644  0.4051  0.1177
72633W        W73497  11.570  23.863  21.312 -0.0477 -0.0184  0.0855
72634W        W73498   7.189  23.100  22.549  0.0209 -0.1254 -0.0848
72635W        W73499  13.337  23.328  20.124 -0.1531  0.1251 -0.0526
72636W        W73500   9.797  23.176  23.537 -0.1309 -0.2013 -0.2852
72637W        W73501   8.179  23.468  17.452 -0.1947  0.0397  0.1190
72638W        W73502  10.793  22.909  18.585  0.0767 -0.1111  0.1051
72639W        W73503  10.391  22.590  18.360 -0.2405  0.0206  0.3452
72640W        W73504   7.968  25.625  19.490 -0.0403  0.2515 -0.1017
72641W        W73505   8.058  23.876  18.999 -0.1614  0.0149 -0.2972
72642W        W73506   7.912  23.032  22.716  0.0275  0.2726  0.1762
72643W        W73507   9.068  23.199  15.967 -0.2967  0.0564 -0.1338
72644W        W73508   7.877  22.080  17.876 -0.1747 -0.2304 -0.3348
72645W        W73509   8.164  21.256  21.444  0.1473  0.1663 -0.0720
72646W        W73510  10.023  24.022  20.816 -0.1429 -0.1079  0.1817
72647W        W73511  11.577  25.550  21.061 -0.3744  0.0702 -0.3933
72648W        W73512   8.126  22.194  21.221  0.0460 -0.0603  0.1324
72649W        W73513   8.004  25.547  21.675 -0.0936 -0.0726  0.1146
72650W        W73514   8.974  20.528  22.517  0.1420  0.0039 -0.3145
72651W        W73515  10.624  25.090  20.196  0.2553  0.0108 -0.1551
72652W        W73516  12.119  22.700  25.169  0.1992 -0.0542  0.1933
72653W        W73517   7.296  22.445  20.290  0.4232  0.4116  0.1940
72654W        W73518  10.544  21.798  20.025 -0.0225 -0.0800 -0.1042
72655W        W73519   7.865  22.840  21.696  0.0766  0.2352  0.0537
72656W        W73520  10.948  22.512  20.920  0.1598 -0.0795  0.4075
72657W        W73521   9.336  23.083  21.575  0.5496 -0.0726  0.0762
72658W        W73522  10.296  24.436  19.631 -0.2416  0.3000  0.0359
72659W        W73523   9.089  22.537  19.227 -0.0281 -0.0304  0.0733
72660W        W73524   9.690  24.184  22.360 -0.2631 -0.0010 -0.3177
72661W        W73525   8.024  24.832  22.060  0.0324 -0.0237  0.0484
72662W        W73526   7.221  25.102  20.642 -0.2075  0.0460  0.0367
72663W        W73527   9.523  21.891  18.147  0.3589 -0.0469  0.2744
72664W        W73528  11.419  25.790  21.517 -0.0635  0.0653  0.0661
72665W        W73529  10.644  21.539  20.401  0.0484 -0.1300  0.2414
72666W        W73530  10.941  21.170  19.505 -0.0220 -0.1089  0.0988
72667W        W73531  10.207  22.937  20.775  0.1015  0.0492  0.0911
72668W        W73532   9.614  22.781  22.058 -0.0988  0.0009  0.1006
72669W        W73533   8.478  19.863  20.562  0.1598 -0.0384  0.1482
72670W        W73534   9.396  23.986  19.421 -0.2612  0.1544 -0.1418
72671W        W73535  10.339  24.744  18.762 -0.1301  0.2341 -0.0348
72672W        W73536   9.122  20.945  22.914 -0.0390  0.1399 -0.2565
72673W        W73537  12.934  25.207  21.072  0.3266 -0.0455  0.5605
72674W        W73538  11.471  25.593  16.961 -0.0932 -0.2259  0.2385
72675W        W73539   7.809  24.920  16.905 -0.0694  0.0743  0.2810
72676W        W73540  10.026  23.274  22.597 -0.0260  0.0239  0.1430
72677W        W73541  10.761  24.272  19.370  0.1052 -0.2024 -0.2554
72678W        W73542   9.644  21.783  20.456 -0.0226 -0.0789  0.1084
72679W        W73543  10.739  24.026  22.505 -0.1429  0.1001 -0.4704
72680W        W73544  11.113  21.734  19.573  0.1340  0.0871  0.5259
72681W        W73545  11.625  25.718  19.243  0.1641 -0.1043 -0.0991
72682W        W73546  11.210  25.269  16.638 -0.0635 -0.2713 -0.1846
72683W        W73547  11.291  24.099  19.297 -0.4886  0.0528  0.0880
72684W        W73548   9.852  25.024  20.036  0.1582  0.0539  0.1640
72685W        W73549  11.020  22.155  19.216  0.0943  0.0845  0.0058
72686W        W73550   8.684  22.971  20.725 -0.0780  0.1494  0.2087
72687W        W73551  10.699  24.744  19.662 -0.1284  0.2474 -0.1839
72688W        W73552   9.840  25.132  18.475 -0.0283  0.0745 -0.1378
72689W        W73553  11.161  24.424  20.503 -0.1867  0.0200  0.0478
72690W        W73554   8.187  24.876  22.509 -0.2668  0.0839  0.3200
72691W        W73555   7.078  22.442  21.695 -0.0844  0.0343  0.1749
72692W        W73556  11.175  24.841  19.897 -0.1656  0.2988 -0.2588
72693W        W73557   9.298  19.995  19.900  0.1903 -0.1543 -0.0288
72694W        W73558  12.371  23.353  19.262  0.1690  0.4190  0.2445
72695W        W73559   6.957  21.228  22.125  0.0530  0.0806 -0.1305
72696W        W73560  10.226  24.047  21.515 -0.0461  0.1698  0.0207
72697W        W73561   9.930  23.040  21.711 -0.1995  0.3808 -0.1419
72698W        W73562  11.735  25.947  18.438 -0.1496 -0.0606 -0.0624
72699W        W73563  10.152  26.880  23.012  0.0926  0.2870  0.2206
72700W        W73564   7.399  23.371  19.029 -0.0339 -0.1383 -0.1199
72701W        W73565   8.505  24.125  20.147 -0.2203  0.1453  0.2399
72702W        W73566   9.244  22.762  18.542  0.0879 -0.0170 -0.0502
72703W        W73567   7.658  22.497  23.474 -0.0348 -0.1738 -0.3675
72704W        W73568   9.146  24.485  20.592 -0.0688  0.1615  0.1431
72705W        W73569   9.677  20.434  17.844 -0.1140  0.0445 -0.0548
72706W        W73570   7.386  20.732  20.803 -0.1457 -0.0345 -0.0329
72707W        W73571  10.155  27.527  20.906 -0.0780 -0.4383  0.1350
72708W        W73572  11.016  26.189  22.252 -0.0222  0.2072  0.0038
72709W        W73573   8.321  24.613  20.071  0.1105  0.0557  0.0808
72710W        W73574  11.985  24.403  20.533 -0.2902  0.0415  0.0034
72711W        W73575   9.958  22.934  16.874  0.1180  0.2171 -0.1976
72712W        W73576   9.874  24.506  18.926  0.1208  0.1956 -0.1371
72713W        W73577   9.231  21.066  17.535  0.1578 -0.6001 -0.3062
72714W        W73578   8.587  21.800  20.899  0.3680 -0.0631  0.1522
72715W        W73579   8.785  22.210  20.632  0.3543 -0.2389 -0.0362
72716W        W73580   9.073  24.829  20.038  0.1023 -0.1283 -0.0981
72717W        W73581  11.858  23.457  16.511 -0.1649  0.1925  0.0073
72718W        W73582   8.876  22.152  17.908  0.0314 -0.1215  0.1827
72719W        W73583  10.758  26.942  17.401  0.1718  0.1896 -0.0017
72720W        W73584   9.324  22.996  20.697 -0.0136 -0.0158 -0.1940
72721W        W73585   9.552  24.306  18.514 -0.3469  0.1772 -0.2077
72722W        W73586  10.643  24.750  19.200  0.1288  0.0904 -0.0722
72723W        W73587   7.221  24.181  20.155  0.0695  0.0415 -0.0413
72724W        W73588   8.982  22.365  21.502  0.1647  0.0698  0.1822
72725W        W73589   6.464  23.399  23.671  0.1168 -0.2116  0.0311
72726W        W73590  10.599  24.771  18.181  0.1949 -0.2238 -0.0747
72727W        W73591   4.970  25.032  20.896 -0.1030  0.4400  0.2561
72728W        W73592   8.570  24.933  19.787 -0.2587 -0.1224  0.1454
72729W        W73593   9.324  26.700  21.793  0.0800  0.0443  0.1133
72730W        W73594  10.959  23.881  19.697  0.2473  0.0970 -0.2130
72731W        W73595   8.408  24.312  19.599  0.1692 -0.2070  0.1267
72732W        W73596  10.003  22.311  19.270  0.0784  0.2652  0.1475
72733W        W73597  11.184  24.929  18.346 -0.1514 -0.0496 -0.0148
72734W        W73598   7.543  23.164  20.682 -0.0644  0.0249 -0.1784
72735W        W73599  10.808  20.920  20.398 -0.0154 -0.2833 -0.0700
72736W        W73600   7.373  26.249  19.150  0.0416  0.0946 -0.1902
72737W        W73601   8.010  25.014  18.088  0.1515 -0.0312 -0.1692
72738W        W73602   8.059  26.766  19.309  0.3319 -0.2225 -0.2404
72739W        W73603   9.877  21.265  20.332  0.5718 -0.2361 -0.1575
72740W        W73604   7.113  24.959  18.305  0.0878  0.1056  0.1263
72741W        W73605   8.246  27.467  17.212  0.0165  0.0807 -0.0804
72742W        W73606  10.638  22.670  20.547 -0.0901 -0.1681  0.3080
72743W        W73607   7.909  23.361  18.999  0.2904 -0.1892  0.0492
72744W        W73608   8.914  23.140  17.585 -0.0294 -0.0082 -0.3338
72745W        W73609   9.058  25.458  21.715 -0.1478 -0.0887  0.1708
72746W        W73610  11.995  22.073  19.799  0.0831 -0.0475  0.1307
72747W        W73611   9.132  21.838  20.769  0.0768 -0.0059 -0.0772
72748W        W73612   9.934  23.581  23.823  0.4812 -0.1626  0.1980
72749W        W73613   8.472  24.068  19.169 -0.0797 -0.1964 -0.0798
72750W        W73614   9.837  24.489  19.828 -0.2945 -0.1417  0.0810
72751W        W73615   6.624  24.488  18.861  0.0106 -0.0670 -0.0619
72752W        W73616   6.194  23.537  19.621  0.0269  0.1546 -0.0045
72753W        W73617   8.135  19.465  20.796  0.1827 -0.0382 -0.4972
72754W        W73618   8.372  23.617  21.404 -0.5023  0.1481  0.1066
72755W        W73619  11.616  23.407  18.275 -0.0041  0.3584 -0.0062
72756W        W73620  12.269  21.243  18.872  0.0357  0.0391 -0.0613
72757W        W73621   8.638  22.265  21.153  0.0874  0.1013 -0.0464
72758W        W73622   8.888  22.930  18.939  0.0183  0.2130  0.0649
72759W        W73623  11.034  18.835  20.945 -0.1509 -0.0727 -0.0994
72760W        W73624   9.365  22.313  17.867  0.1311  0.1168  0.2915
72761W        W73625   9.789  20.328  20.633 -0.0596 -0.2396  0.1795
72762W        W73626  11.432  22.779  18.913 -0.2895 -0.0300  0.0617
72763W        W73627   8.192  23.951  21.122 -0.0418 -0.1082  0.0003
72764W        W73628   9.446  24.840  20.360 -0.1114  0.0757 -0.0370
72765W        W73629   7.958  22.547  17.853 -0.4182 -0.0199  0.0169
72766W        W73630   7.042  23.632  22.010  0.0743  0.0046 -0.0403
72767W        W73631  10.603  23.194  21.775  0.0888 -0.0289  0.2921
72768W        W73632  11.950  26.752  15.936  0.1307 -0.1559 -0.0707
72769W        W73633   7.813  23.939  15.271 -0.3282  0.1265  0.1630
72770W        W73634   9.810  25.193  19.479  0.1408  0.3792 -0.0708
72771W        W73635   6.562  24.370  22.457  0.1817 -0.2719 -0.1769
72772W        W73636  10.253  25.120  19.124  0.1592 -0.1562  0.1319
72773W        W73637   8.694  21.842  23.255  0.3043 -0.1157 -0.1240
72774W        W73638   8.548  22.800  21.179  0.1389 -0.0722 -0.2831
72775W        W73639  10.007  22.142  20.179  0.2061  0.1873 -0.0069
72776W        W73640  11.141  22.617  18.072 -0.1921  0.3344 -0.3609
72777W        W73641  11.947  26.698  18.565 -0.3945  0.1683  0.1136
72778W        W73642   7.030  21.881  22.962 -0.0553 -0.1415  0.0195
72779W        W73643   9.198  26.215  21.665 -0.2940 -0.3111 -0.0691
72780W        W73644  11.551  22.978  23.555 -0.1858  0.4147  0.0581
72781W        W73645   7.567  23.930  21.964  0.1551 -0.2931 -0.1934
72782W        W73646   9.250  26.332  21.180 -0.3207  0.0989  0.0232
72783W        W73647   7.977  21.274  20.196 -0.0849  0.1108  0.4537
72784W        W73648  11.720  28.700  16.861 -0.0518 -0.0219  0.0272
72785W        W73649   9.241  24.287  22.057 -0.2988 -0.3268 -0.1607
72786W        W73650  11.204  22.838  20.557  0.1875 -0.0733  0.2619
72787W        W73651   9.086  21.686  22.252 -0.2065 -0.1707  0.0651
72788W        W73652   9.927  26.452  18.418 -0.0890 -0.1112 -0.0281
72789W        W73653   8.212  24.172  20.624 -0.0184 -0.0086  0.2986
72790W        W73654   6.557  22.205  19.727  0.2127  0.3972 -0.3251
72791W        W73655  10.678  23.369  21.258 -0.0870  0.0378 -0.2406
72792W        W73656  10.046  22.167  16.229  0.0276  0.0644 -0.2998
72793W        W73657  12.138  22.264  20.460  0.0344 -0.2439 -0.0275
72794W        W73658   8.374  23.321  20.365 -0.0700  0.1486  0.2025
72795W        W73659   9.736  26.419  20.971 -0.0287  0.2276  0.0901
72796W        W73660  10.196  23.153  20.310 -0.3034 -0.0371  0.0426
72797W        W73661   7.463  21.577  23.493 -0.0316  0.1664 -0.0708
72798W        W73662   8.282  26.704  17.773 -0.1224 -0.2268 -0.2087
72799W        W73663  14.239  24.983  21.701 -0.1340  0.0005 -0.4080
72800W        W73664   6.978  24.154  17.512  0.0880 -0.0564 -0.3394
72801W        W73665  10.575  27.037  22.349 -0.1101  0.0204  0.3046
72802W        W73666   7.053  24.084  21.751 -0.2222  0.0302  0.1073
72803W        W73667   7.576  21.666  20.845 -0.1357 -0.3121  0.2300
72804W        W73668   8.989  21.949  24.153  0.0183  0.1593  0.1932
72805W        W73669   8.006  24.225  19.993 -0.0548  0.2113  0.1133
72806W        W73670  10.562  23.479  19.741  0.3049  0.2495 -0.0886
72807W        W73671   9.166  24.121  20.995 -0.0515 -0.3626 -0.0549
72808W        W73672  14.370  24.175  20.277  0.0048  0.0851 -0.0149
72809W        W73673   7.644  22.035  21.157  0.1197  0.2682 -0.0805
72810W        W73674   5.730  25.865  18.072  0.1289  0.2918 -0.0101
72811W        W73675   7.656  24.903  20.674 -0.1876 -0.1030  0.1554
72812W        W73676  10.182  26.521  20.677 -0.1514  0.0353  0.0856
72813W        W73677  11.478  24.501  23.162 -0.0847  0.1613 -0.3656
72814W        W73678   9.884  23.599  17.624  0.2562  0.0033 -0.3127
72815W        W73679  13.845  25.672  20.256 -0.0171  0.1967  0.1635
72816W        W73680  11.604  23.860  19.674 -0.0572 -0.1738  0.0785
72817W        W73681  10.056  22.952  22.173 -0.3903  0.2342  0.0419
72818W        W73682   9.678  25.522  19.959 -0.0268 -0.2543  0.1544
72819W        W73683   8.106  22.438  20.272  0.1631 -0.0073  0.0863
72820W        W73684  12.258  26.658  20.773 -0.0275 -0.2395 -0.1969
72821W        W73685  10.158  25.921  22.541  0.1136 -0.2164  0.3175
72822W        W73686   9.037  25.835  21.365 -0.3721 -0.0356 -0.1102
72823W        W73687   9.887  21.768  21.310  0.3809 -0.0545 -0.0037
72824W        W73688   8.794  27.733  20.175  0.1129 -0.2466  0.1367
72825W        W73689   9.075  27.899  22.383 -0.0348  0.2619 -0.1218
72826W        W73690   9.579  23.472  19.923 -0.2094 -0.0307  0.0500
72827W        W73691   9.728  23.725  18.544 -0.1294 -0.0092 -0.1694
72828W        W73692   7.030  24.704  19.811 -0.0824  0.0452 -0.0307
72829W        W73693  10.898  24.090  17.995  0.0076  0.2411 -0.4616
72830W        W73694   7.070  23.617  20.797  0.4260 -0.0940  0.0601
72831W        W73695  11.756  25.057  21.126 -0.1514 -0.1756 -0.1995
72832W        W73696   8.230  23.344  21.824 -0.1611  0.0139 -0.1984
72833W        W73697   7.569  24.712  21.706 -0.2422  0.1279  0.0219
72834W        W73698  11.014  27.497  20.908 -0.1454  0.1485  0.2829
72835W        W73699  11.708  23.535  23.582 -0.0190  0.0271 -0.0713
72836W        W73700   7.783  23.389  23.081  0.2630 -0.0572 -0.0781
72837W        W73701   9.934  22.438  21.818  0.0095 -0.2403  0.0115
72838W        W73702   7.834  23.974  17.952 -0.2961  0.1545 -0.0017
72839W        W73703   6.267  26.685  23.131 -0.0260 -0.1120 -0.1785
72840W        W73704  11.852  25.544  20.174 -0.1370 -0.2555  0.0059
72841W        W73705   7.051  24.195  18.794  0.0365 -0.0631  0.1789
72842W        W73706   7.803  23.460  19.819 -0.1273 -0.0975 -0.0010
72843W        W73707   6.844  24.138  20.641  0.2586  0.1447  0.2582
72844W        W73708  10.340  25.094  19.682 -0.2543 -0.0253 -0.1902
72845W        W73709   9.407  23.407  23.889  0.0747  0.0749 -0.1029
72846W        W73710   9.572  23.504  18.082 -0.0428  0.1119  0.2352
72847W        W73711   7.675  22.463  19.985  0.3283  0.2962 -0.0477
72848W        W73712  10.571  21.533  19.626 -0.1881  0.1514 -0.1435
72849W        W73713  11.176  25.984  18.749 -0.1121 -0.0343 -0.1163
72850W        W73714   9.578  21.600  18.573  0.2948 -0.0228  0.0080
72851W        W73715  12.555  22.236  19.197 -0.0191  0.0035  0.0977
72852W        W73716  10.550  23.319  22.747  0.0912 -0.1367 -0.0190
72853W        W73717   9.598  23.222  15.772 -0.0312 -0.2044 -0.2619
72854W        W73718   7.319  22.712  16.992 -0.2961  0.1191 -0.0562
72855W        W73719  13.399  26.644  19.791 -0.1721 -0.0337  0.0217
72856W        W73720  10.773  20.808  19.154 -0.1159 -0.1956  0.1060
72857W        W73721  11.130  23.472  18.516 -0.0254 -0.0388  0.0791
72858W        W73722  10.388  23.408  20.789 -0.2871 -0.0127 -0.1762
72859W        W73723   6.835  26.354  19.206 -0.2147 -0.1144  0.0178
72860W        W73724   8.012  24.403  17.599 -0.1614  0.1224  0.1090
72861W        W73725   7.065  23.603  23.429  0.0370  0.1796 -0.1425
72862W        W73726   9.594  23.241  19.495 -0.0244  0.2896  0.0015
72863W        W73727  10.772  26.552  20.357  0.0367 -0.1105 -0.1048
72864W        W73728  10.382  23.467  15.921  0.1577  0.0781 -0.1707
72865W        W73729  10.287  24.325  19.073  0.0182  0.2371  0.3375
72866W        W73730  10.825  23.882  21.237  0.0836 -0.0229 -0.0857
72867W        W73731  11.582  21.925  17.001 -0.0423  0.0110 -0.2113
72868W        W73732   8.684  21.131  21.344 -0.3208 -0.1832 -0.2522
72869W        W73733   9.437  24.717  18.742  0.3203 -0.1868 -0.5971
72870W        W73734   7.672  22.949  22.250  0.0343 -0.3674 -0.2771
72871W        W73735   8.006  25.298  20.573 -0.1986 -0.1555 -0.1714
72872W        W73736  11.253  22.121  18.220 -0.0971  0.0003  0.2815
72873W        W73737   8.824  22.799  21.728  0.3033 -0.0918 -0.0394
72874W        W73738   7.872  23.199  20.281  0.0140  0.1598  0.1656
72875W        W73739  10.929  25.771  21.990  0.2742  0.3132 -0.0826
72876W        W73740  10.419  23.845  18.717  0.0440 -0.0318  0.2127
72877W        W73741  10.513  25.670  18.220 -0.0301 -0.2012  0.1578
72878W        W73742  11.909  25.478  17.153  0.0023 -0.2667  0.0782
72879W        W73743   9.997  25.811  20.229 -0.0872  0.0870 -0.2598
72880W        W73744   8.041  22.998  17.630  0.2825 -0.1771 -0.0258
72881W        W73745  11.739  25.872  16.218  0.1976 -0.1021 -0.0447
72882W        W73746   8.291  24.526  21.110  0.0118 -0.3074  0.1123
72883W        W73747  10.147  22.862  19.126 -0.3307  0.0388  0.0097
72884W        W73748   9.429  24.992  18.178 -0.1205  0.0650  0.3303
72885W        W73749   8.754  23.688  20.343 -0.1501  0.2155  0.0046
72886W        W73750   8.384  21.210  19.326 -0.1387 -0.2205  0.0695
72887W        W73751   6.915  25.833  19.283 -0.2183  0.0331 -0.0436
72888W        W73752  10.338  23.970  18.219  0.0793 -0.0473 -0.0800
72889W        W73753  10.432  24.892  17.721  0.2876  0.1531 -0.1341
72890W        W73754   8.370  22.556  19.761 -0.0813 -0.0408 -0.4347
72891W        W73755  10.917  23.085  18.106 -0.0092  0.0033  0.1888
72892W        W73756  13.298  24.848  21.110 -0.1416 -0.0804  0.0034
72893W        W73757  10.475  27.374  19.541 -0.0509  0.2497  0.0579
72894W        W73758   8.851  24.103  19.666  0.0586 -0.1812 -0.4804
72895W        W73759  10.507  24.011  22.058 -0.0636  0.2938 -0.1203
72896W        W73760   9.014  25.719  19.433 -0.0179 -0.1998  0.0355
72897W        W73761   9.336  25.423  21.287 -0.0038  0.0780  0.2248
72898W        W73762  11.336  22.864  22.683 -0.1721  0.1055 -0.2729
72899W        W73763  10.501  20.367  19.404  0.4115  0.0948  0.2024
72900W        W73764   9.338  24.939  20.843  0.1878 -0.1202  0.1227
72901W        W73765   7.751  19.700  19.823 -0.3515  0.1245 -0.1230
72902W        W73766  11.577  23.856  16.894  0.0929  0.1479  0.0101
72903W        W73767   7.669  25.386  17.742  0.1688  0.1247  0.0821
72904W        W73768  10.221  24.436  18.103  0.4936 -0.0723  0.1493
72905W        W73769   7.797  25.279  22.440  0.1109 -0.0505 -0.1871
72906W        W73770   5.702  24.165  18.947 -0.0390  0.0013 -0.2099
72907W        W73771   8.060  23.116  20.750 -0.2364  0.0504 -0.1020
72908W        W73772  11.023  25.035  19.367 -0.1321  0.1047  0.1294
72909W        W73773   5.788  21.704  20.013  0.0055  0.0785  0.2376
72910W        W73774  12.159  23.600  20.996  0.0606 -0.2827 -0.1714
72911W        W73775   9.045  21.407  21.137 -0.2211  0.0854 -0.3071
72912W        W73776  11.806  22.128  20.768 -0.0465 -0.0702  0.2967
72913W        W73777   8.013  25.311  18.513 -0.1819 -0.0517 -0.0488
72914W        W73778  11.853  23.791  17.391 -0.0891 -0.0601 -0.2038
72915W        W73779  11.173  21.124  17.879 -0.1558  0.2163  0.1961
72916W        W73780   6.077  25.776  22.339  0.3956  0.0159 -0.1879
72917W        W73781   6.929  24.095  18.050 -0.2811  0.2654 -0.0061
72918W        W73782  11.115  24.596  19.116  0.0221 -0.1968  0.0956
72919W        W73783   7.621  21.861  23.047 -0.2818  0.0274 -0.2137
72920W        W73784   9.027  23.455  20.741  0.1011 -0.0227  0.2980
72921W        W73785   8.536  22.464  24.012  0.1150  0.0069  0.1440
72922W        W73786  10.273  21.916  20.901 -0.5753 -0.0506  0.1772
72923W        W73787   9.069  21.962  19.275 -0.1612  0.2115  0.3000
72924W        W73788   9.178  25.393  20.231  0.0595 -0.1753 -0.1175
72925W        W73789  11.345  26.925  20.492  0.0303 -0.0757 -0.0401
72926W        W73790  12.430  28.380  19.578 -0.3092 -0.2386 -0.1569
72927W        W73791  12.792  26.933  18.882 -0.3146  0.0028  0.1583
72928W        W73792  12.800  21.273  18.894 -0.1874  0.2066 -0.3602
72929W        W73793  10.439  22.295  19.967 -0.1938 -0.1038 -0.1166
72930W        W73794   8.989  21.755  16.850 -0.0177 -0.0310 -0.1918
72931W        W73795  11.498  18.522  19.179 -0.1076  0.2432  0.0660
72932W        W73796   9.514  25.835  17.108  0.1730 -0.1595 -0.0090
72933W        W73797  12.627  25.974  22.385  0.0797  0.3436 -0.3486
72934W        W73798  12.559  26.110  17.245 -0.1265  0.0887 -0.1423
72935W        W73799   7.875  20.767  22.199  0.0535 -0.2013  0.1030
72936W        W73800   8.605  19.774  22.137  0.2273  0.0324 -0.1203
72937W        W73801  11.135  23.839  20.361 -0.1507  0.0592 -0.1942
72938W        W73802   8.943  23.344  19.860  0.1136  0.2216  0.0564
72939W        W73803   8.220  24.314  23.707 -0.1259 -0.0343 -0.2171
72940W        W73804  11.250  22.306  20.535  0.0244 -0.1508  0.1341
72941W        W73805   7.830  23.598  18.533  0.1488 -0.2359  0.2685
72942W        W73806   8.832  22.337  19.616 -0.1246  0.2562  0.0541
72943W        W73807  10.321  24.692  20.069 -0.2640  0.1165 -0.0978
72944W        W73808  13.912  23.815  23.946 -0.0849  0.0594 -0.0089
72945W        W73809   9.255  20.505  20.707  0.0175  0.3033 -0.3477
72946W        W73810  11.887  22.117  22.419  0.1362 -0.3615  0.0133
72947W        W73811   8.876  25.770  20.723 -0.2454  0.2191  0.1397
72948W        W73812   9.279  24.123  21.592  0.2330 -0.0656 -0.0221
72949W        W73813  12.628  25.647  20.027  0.1102  0.2130  0.1710
72950W        W73814   8.829  24.270  22.865  0.1508 -0.0751  0.1273
72951W        W73815   5.804  23.158  23.075 -0.3102 -0.0471  0.1277
72952W        W73816  10.251  25.259  17.960  0.0199 -0.0516  0.1001
72953W        W73817  13.324  27.288  17.740  0.0068  0.1314  0.1827
72954W        W73818   7.727  20.165  20.046  0.3050 -0.1965  0.1069
72955W        W73819   7.780  24.377  20.869  0.0136 -0.1129  0.1068
72956W        W73820  10.865  23.455  15.823  0.0542 -0.0534  0.1686
72957W        W73821   9.490  24.179  23.415  0.1604  0.0102  0.0857
72958W        W73822  11.163  25.985  16.951 -0.1302  0.0466 -0.0299
72959W        W73823  10.439  21.489  17.396 -0.1582 -0.1886  0.2437
72960W        W73824   8.979  27.089  25.565  0.2136 -0.1630  0.0337
72961W        W73825   8.387  26.996  22.843  0.1577  0.2387  0.2466
72962W        W73826   9.339  22.626  22.459  0.3231 -0.2329  0.0286
72963W        W73827  10.037  23.768  24.782 -0.1271 -0.2354 -0.2425
72964W        W73828  12.612  25.998  22.873  0.5355 -0.0114  0.1225
72965W        W73829   9.086  23.356  24.253 -0.0706 -0.0628  0.0129
72966W        W73830   9.088  22.534  24.102 -0.1557  0.0957  0.1168
72967W        W73831   9.321  24.556  24.367 -0.2344 -0.1338  0.1714
72968W        W73832   8.973  26.314  23.105 -0.0427 -0.0687  0.0836
72969W        W73833   8.706  24.127  25.834  0.0133  0.2560  0.2563
72970W        W73834   7.843  21.962  23.585 -0.0645 -0.1457  0.1589
72971W        W73835   9.966  22.707  23.747 -0.0057 -0.1243 -0.0726
72972W        W73836   8.989  23.058  21.137 -0.1344 -0.1411  0.1211
72973W        W73837  10.926  24.662  25.197  0.0394 -0.1266  0.5665
72974W        W73838   8.306  20.158  22.125 -0.1192 -0.2274  0.2972
72975W        W73839   6.586  24.376  24.552  0.1713 -0.0609 -0.3791
72976W        W73840   7.570  25.609  19.907  0.0632 -0.0176  0.0532
72977W        W73841   9.102  24.842  22.726  0.1955  0.1766 -0.2456
72978W        W73842   7.501  19.823  25.263 -0.1787  0.0467  0.0865
72979W        W73843  10.754  23.176  20.353  0.4537  0.0846 -0.1580
72980W        W73844  10.855  24.188  24.941  0.2905  0.0412 -0.0141
72981W        W73845  13.516  23.188  26.023  0.0640  0.0340 -0.4570
72982W        W73846  11.230  24.463  21.852  0.0911  0.2023  0.3889
72983W        W73847   7.512  24.461  25.013  0.0567  0.0984 -0.2092
72984W        W73848   6.276  24.983  23.721  0.1869  0.0143 -0.0121
72985W        W73849   5.933  21.784  26.345 -0.1666  0.1450  0.1654
72986W        W73850  12.468  23.008  27.488 -0.0750  0.1413 -0.0008
72987W        W73851   6.988  24.104  22.261 -0.1416  0.3137  0.3912
72988W        W73852  10.678  25.383  23.928  0.2017  0.1744 -0.0918
72989W        W73853  11.153  25.198  23.792  0.0487  0.0679 -0.1999
72990W        W73854   9.247  24.490  23.094 -0.0110  0.0319 -0.0766
72991W        W73855  10.898  23.001  27.236  0.0966  0.3151 -0.1127
72992W        W73856  11.650  25.881  27.031  0.0750 -0.1471  0.0129
72993W        W73857   9.183  22.336  24.567  0.2969  0.2314  0.2113
72994W        W73858   6.083  24.539  25.132 -0.1352  0.1306 -0.2070
72995W        W73859   7.443  24.870  28.525 -0.3453  0.0518 -0.1431
72996W        W73860   5.727  21.690  24.602  0.1598  0.1352  0.3257
72997W        W73861   8.772  25.535  25.058  0.1230 -0.1251 -0.0612
72998W        W73862  11.484  24.730  22.749  0.2867  0.0487  0.2072
72999W        W73863  10.697  21.355  26.199 -0.0904  0.1869 -0.0723
73000W        W73864   9.281  20.148  22.335  0.0469  0.1744  0.0924
73001W        W73865  12.742  23.016  24.655 -0.3800  0.1885  0.0888
73002W        W73866   9.586  24.960  23.679  0.2110  0.3057  0.2932
73003W        W73867   9.886  25.472  21.412 -0.0665 -0.2380  0.0400
73004W        W73868  10.180  23.446  21.608  0.0937 -0.1130  0.2036
73005W        W73869   9.860  25.896  22.951  0.0818 -0.1694  0.4778
73006W        W73870   9.973  25.247  27.391  0.0993 -0.1060  0.0108
73007W        W73871  13.101  25.497  25.540 -0.0743  0.0263  0.2045
73008W        W73872  10.015  21.523  22.125  0.3056  0.3012 -0.3031
73009W        W73873   8.110  24.795  20.571 -0.2936  0.1747 -0.2358
73010W        W73874   9.709  24.138  22.919 -0.0872  0.3099  0.0243
73011W        W73875  10.074  22.432  22.918  0.0678  0.0692 -0.3088
73012W        W73876  11.037  24.668  23.099 -0.3453  0.1351  0.2338
73013W        W73877  11.842  21.667  25.088 -0.0305  0.2396 -0.0904
73014W        W73878   9.673  23.398  22.992 -0.0088  0.1457 -0.0948
73015W        W73879   7.814  23.747  23.463 -0.0711 -0.0573 -0.0025
73016W        W73880   9.095  24.102  23.838 -0.2569  0.0031 -0.0620
73017W        W73881   9.536  23.245  21.070  0.1006  0.3134 -0.2487
73018W        W73882   9.694  24.911  24.191  0.1700 -0.1329 -0.0572
73019W        W73883  12.102  26.627  23.640  0.1717 -0.0723  0.1936
73020W        W73884  11.032  28.028  20.493 -0.3882  0.2654 -0.0270
73021W        W73885   8.436  23.976  26.229 -0.0590  0.0212  0.4248
73022W        W73886   9.899  23.838  25.264 -0.1690 -0.1710 -0.0689
73023W        W73887  11.590  23.280  22.583  0.1126 -0.2172 -0.4796
73024W        W73888  11.459  20.722  24.241 -0.1754  0.1643  0.0123
73025W        W73889  14.440  24.115  21.584  0.0847  0.1458  0.1415
73026W        W73890   8.035  20.614  21.018  0.2732 -0.1415 -0.1373
73027W        W73891   8.987  23.584  23.658  0.2151 -0.0407  0.0016
73028W        W73892   8.769  24.530  23.740 -0.0056 -0.3027 -0.1610
73029W        W73893   8.210  25.609  23.080 -0.2653  0.0698 -0.4131
73030W        W73894   9.449  26.868  25.991 -0.3996 -0.0987 -0.2150
73031W        W73895   8.289  24.460  22.177  0.1367  0.2617 -0.0781
73032W        W73896  10.310  23.019  24.486 -0.0699 -0.3329  0.2580
73033W        W73897  12.427  22.946  25.539  0.0417  0.2278  0.0873
73034W        W73898  10.638  24.357  24.465 -0.0843  0.3030  0.1338
73035W        W73899   8.330  26.514  23.030  0.2053 -0.0519 -0.2572
73036W        W73900  10.225  25.564  22.855 -0.1920 -0.2544 -0.4850
73037W        W73901   8.501  23.597  22.379  0.0726  0.0957 -0.1595
73038W        W73902  10.240  24.812  23.284 -0.2730  0.2041 -0.1940
73039W        W73903  12.194  22.886  26.163 -0.0105  0.0861 -0.2849
73040W        W73904   7.359  24.420  22.038  0.3694  0.0181  0.0173
73041W        W73905   9.504  25.001  24.837  0.0726  0.1331 -0.0836
73042W        W73906   6.589  22.277  24.756 -0.2623 -0.5151  0.1073
73043W        W73907  10.332  24.768  24.327 -0.0351 -0.1343  0.2297
73044W        W73908   9.215  23.519  26.222 -0.1818  0.2546  0.4021
73045W        W73909  11.771  22.929  24.779 -0.0948 -0.0035 -0.1290
73046W        W73910  11.835  23.311  24.432  0.2299 -0.1994 -0.1253
73047W        W73911   8.134  21.327  26.183 -0.2640 -0.4422 -0.0870
73048W        W73912  11.243  24.931  24.941  0.1739 -0.1004 -0.0286
73049W        W73913  13.361  22.446  25.044  0.1064 -0.0593  0.1483
73050W        W73914   9.111  23.428  22.395  0.1004  0.1014 -0.0449
73051W        W73915   8.930  22.946  26.472 -0.2009 -0.1122 -0.3428
73052W        W73916   8.620  24.592  20.496  0.1361 -0.0722  0.0139
73053W        W73917   8.585  22.916  18.538  0.2784  0.0677 -0.0018
73054W        W73918   8.628  24.710  22.746  0.1634  0.0157 -0.1304
73055W        W73919  12.617  24.405  25.300  0.0376 -0.1548 -0.0392
73056W        W73920  10.841  22.061  24.272  0.0978  0.0307  0.0801
73057W        W73921   5.952  24.631  24.112 -0.2469  0.1050  0.0896
73058W        W73922   4.120  20.234  22.239 -0.0456  0.0310  0.1764
73059W        W73923  11.610  23.208  22.018  0.0432  0.0071 -0.0122
73060W        W73924  11.899  25.902  24.850 -0.2728  0.0581  0.0424
73061W        W73925  10.177  24.226  24.580 -0.0669  0.0108  0.1899
73062W        W73926   7.909  24.475  21.397  0.1965 -0.1095  0.2440
73063W        W73927  10.894  26.152  22.740  0.2131  0.2272 -0.3475
73064W        W73928   9.996  20.095  26.034 -0.1092  0.2327  0.1904
73065W        W73929  11.319  23.624  22.126  0.0629 -0.0727 -0.0293
73066W        W73930   7.324  23.379  21.166 -0.0244  0.1838  0.1250
73067W        W73931  10.554  23.794  27.095  0.1871  0.0905 -0.0948
73068W        W73932   7.396  21.007  22.175  0.4375  0.0717  0.2891
73069W        W73933   6.488  24.082  24.087 -0.0827 -0.0900 -0.0514
73070W        W73934   9.280  24.236  22.613  0.0895  0.0039  0.0131
73071W        W73935  10.635  24.145  20.400 -0.2070  0.1136 -0.0862
73072W        W73936  10.693  23.173  25.177  0.0707  0.1291  0.1606
73073W        W73937   9.865  24.242  24.985 -0.0097 -0.2604  0.1064
73074W        W73938   8.584  22.350  21.984 -0.0445  0.2398 -0.0574
73075W        W73939   9.407  24.726  22.303 -0.0033 -0.0070 -0.2183
73076W        W73940   9.839  22.095  24.323  0.0124  0.0058  0.0591
73077W        W73941   8.175  24.938  25.944  0.0356 -0.0859  0.0527
73078W        W73942  10.766  23.132  24.646 -0.0354  0.0572  0.0243
73079W        W73943  12.139  24.422  23.688 -0.2131  0.2508 -0.1814
73080W        W73944  11.184  25.041  24.290 -0.2413 -0.0003 -0.0267
73081W        W73945  10.071  23.559  20.050 -0.2414 -0.2539 -0.0103
73082W        W73946  11.399  25.506  22.897 -0.1220  0.1572 -0.1879
73083W        W73947   8.384  23.725  20.718  0.1086 -0.1618 -0.0703
73084W        W73948  10.624  21.560  24.824  0.0017  0.6567  0.1453
73085W        W73949  12.904  22.153  25.325  0.2654  0.0790 -0.0411
73086W        W73950   5.572  24.134  23.497 -0.2438 -0.4149  0.2373
73087W        W73951  10.629  24.518  23.400  0.2359 -0.1786 -0.0893
73088W        W73952  12.212  26.067  24.498  0.2478  0.2578 -0.1238
73089W        W73953  10.169  25.218  21.870 -0.1555 -0.3627  0.1293
73090W        W73954   6.997  22.273  28.144 -0.1043 -0.2894 -0.1208
73091W        W73955   7.249  22.865  23.318  0.1120  0.2201 -0.0713
73092W        W73956  11.532  22.482  24.408  0.0973 -0.3923  0.1508
73093W        W73957  10.329  25.241  22.346  0.0397  0.0466 -0.1618
73094W        W73958   9.197  24.883  23.982 -0.0729  0.1645 -0.1044
73095W        W73959  11.786  21.731  22.769 -0.1536  0.1432 -0.1904
73096W        W73960  11.832  20.967  25.223  0.2587 -0.0836  0.0792
73097W        W73961  12.506  22.464  24.893 -0.2872 -0.1804 -0.0895
73098W        W73962   7.798  26.640  23.114  0.1352  0.1271  0.0294
73099W        W73963   5.864  23.410  22.216 -0.1293 -0.0685  0.0740
73100W        W73964  11.040  21.444  25.786 -0.2788  0.1476  0.2993
73101W        W73965   8.064  25.712  24.856 -0.1528 -0.0713 -0.1272
73102W        W73966   9.766  22.146  20.963  0.0375  0.1435  0.1751
73103W        W73967   8.649  23.971  23.662 -0.0107  0.0570 -0.1875
73104W        W73968   9.424  23.831  21.992 -0.0846 -0.0065  0.0929
73105W        W73969  11.269  23.374  23.832 -0.0106 -0.0064 -0.2599
73106W        W73970  10.358  23.559  22.064  0.0856  0.2122 -0.2645
73107W        W73971   9.313  26.427  22.240  0.0869 -0.0845  0.1802
73108W        W73972   7.341  24.464  22.548  0.2948  0.0002 -0.1010
73109W        W73973   9.824  24.427  24.272 -0.1956  0.0271  0.2535
73110W        W73974  10.868  23.723  25.119  0.1203 -0.0430 -0.1388
73111W        W73975   9.524  24.401  23.879 -0.1687  0.1560  0.0936
73112W        W73976   8.727  23.748  23.218 -0.0257  0.0434  0.1564
73113W        W73977  11.371  23.838  25.023 -0.3782 -0.3311  0.3261
73114W        W73978  10.718  22.355  25.817  0.1948  0.1323  0.0811
73115W        W73979   6.181  23.638  24.064 -0.0896 -0.2336  0.1042
73116W        W73980   9.138  23.444  22.924 -0.0323  0.0198  0.0115
73117W        W73981   7.724  21.607  19.803  0.0280 -0.0281  0.0695
73118W        W73982  12.123  23.344  25.492  0.0897 -0.5389  0.1000
73119W        W73983  10.220  23.196  27.947  0.0570 -0.0124 -0.0836
73120W        W73984   6.969  24.252  23.731 -0.0054 -0.1141  0.0390
73121W        W73985  11.491  24.514  27.125  0.0819  0.0459  0.1359
73122W        W73986   9.266  22.550  26.394  0.0848 -0.2743 -0.0473
73123W        W73987   7.132  26.293  28.339  0.0583  0.2383 -0.0151
73124W        W73988   9.129  25.081  25.643 -0.0880 -0.0272 -0.0022
73125W        W73989   9.570  21.630  22.407  0.1518  0.3279 -0.0030
73126W        W73990   9.636  26.834  20.707  0.1067 -0.0706  0.0115
73127W        W73991   9.521  25.249  25.333  0.2586 -0.1696  0.0238
73128W        W73992   9.267  23.877  23.031  0.0874  0.3259 -0.1186
73129W        W73993  11.098  21.052  25.447  0.3403  0.1049 -0.0111
73130W        W73994  12.340  23.389  26.449  0.3614  0.1373  0.1825
73131W        W73995  10.406  23.893  23.709  0.1208  0.1741  0.1146
73132W        W73996   8.935  23.796  22.151 -0.0888  0.1213  0.1070
73133W        W73997  10.844  23.336  25.654  0.2576 -0.0745  0.1319
73134W        W73998  10.083  22.256  21.347  0.0160  0.0068 -0.3799
73135W        W73999   6.665  25.937  25.485  0.0638 -0.1287  0.1663
73136W        W74000   6.436  23.367  26.550 -0.0077 -0.1168  0.1039
73137W        W74001   8.891  27.142  22.897  0.3124  0.0516  0.2279
73138W        W74002   9.441  25.956  22.589  0.4214 -0.1321 -0.0798
73139W        W74003   8.945  25.912  20.214 -0.3991  0.0250 -0.3400
73140W        W74004   9.746  24.082  21.253 -0.2182 -0.2768 -0.2929
73141W        W74005   9.367  24.527  21.217 -0.0038  0.0723  0.1172
73142W        W74006   8.618  23.370  22.837  0.0239  0.1815  0.1538
73143W        W74007  10.327  22.100  24.278  0.1466  0.0923 -0.0395
73144W        W74008   8.789  23.611  24.753 -0.3168 -0.0323 -0.1812
73145W        W74009  11.152  24.554  24.591 -0.2804  0.0630  0.0949
73146W        W74010   5.784  21.923  19.052  0.1174 -0.2075  0.1390
73147W        W74011  11.685  23.203  25.921  0.2066  0.1736  0.3550
73148W        W74012   9.099  25.056  22.048  0.0663  0.0892  0.0405
73149W        W74013   8.934  21.891  21.315  0.1554 -0.2453  0.1368
73150W        W74014   6.447  26.354  22.748  0.1483  0.1460  0.0229
73151W        W74015   7.771  24.596  23.673 -0.0134  0.3557 -0.0855
73152W        W74016   7.903  21.998  24.522  0.2977 -0.1064 -0.1351
73153W        W74017   8.179  21.572  25.397  0.2798 -0.2052  0.0747
73154W        W74018   9.160  22.973  22.107  0.0194 -0.0490 -0.0520
73155W        W74019   9.235  19.585  23.819 -0.0199  0.0986 -0.4009
73156W        W74020   7.729  24.292  25.729  0.1181 -0.1341 -0.0645
73157W        W74021   7.128  23.768  24.956 -0.2492 -0.1651 -0.3547
73158W        W74022  12.113  22.408  22.881  0.1042  0.4066 -0.2279
73159W        W74023   6.053  21.632  23.562  0.1031 -0.1710  0.0869
73160W        W74024  11.155  20.452  23.113 -0.1648  0.1629  0.0729
73161W        W74025  11.924  25.901  21.798  0.0555  0.0015 -0.0251
73162W        W74026   7.141  23.494  24.492  0.0397 -0.0472 -0.0434
73163W        W74027   9.229  23.218  24.819  0.2542  0.0520 -0.3962
73164W        W74028   8.737  23.188  22.179  0.1186  0.2901  0.0406
73165W        W74029   8.551  23.231  24.506  0.0465 -0.0116 -0.5661
73166W        W74030  11.955  24.893  23.736 -0.1364  0.0795  0.0330
73167W        W74031  10.781  24.639  21.373 -0.3999 -0.0058 -0.0187
73168W        W74032  10.647  23.711  21.667 -0.0875 -0.0794  0.2572
73169W        W74033  10.154  22.615  24.235  0.0620  0.2681 -0.1231
73170W        W74034  11.525  26.133  23.948 -0.1557 -0.1872  0.3012
73171W        W74035   9.003  24.108  23.361 -0.1615  0.1719 -0.0947
73172W        W74036   8.390  22.825  24.776  0.0600  0.4018 -0.1224
73173W        W74037  10.851  25.052  23.421 -0.1798 -0.2844 -0.0577
73174W        W74038   9.910  23.431  20.675 -0.0114 -0.1657 -0.1233
73175W        W74039  11.134  24.738  20.971 -0.3125  0.0288  0.0022
73176W        W74040  11.288  25.192  21.280  0.1501  0.1837  0.0436
73177W        W74041  12.257  21.444  27.364 -0.1051  0.0824  0.1381
73178W        W74042   8.267  24.955  23.017 -0.0740  0.3314 -0.1523
73179W        W74043  12.458  21.814  26.027  0.0869 -0.1833 -0.0899
73180W        W74044  12.538  23.315  23.269  0.0027  0.3303  0.3602
73181W        W74045  10.684  26.403  23.740 -0.0929 -0.2780 -0.2419
73182W        W74046   8.438  20.549  20.472  0.0440 -0.1506 -0.1445
73183W        W74047  14.254  23.619  21.825 -0.2467  0.4104 -0.2099
73184W        W74048   7.311  24.564  27.159  0.0748  0.2493 -0.2410
73185W        W74049  11.116  26.681  26.935 -0.0945 -0.0020  0.0229
73186W        W74050   8.967  23.131  23.786  0.0456  0.0777  0.0721
73187W        W74051   8.622  26.822  22.405 -0.1049 -0.3176 -0.0443
73188W        W74052  11.510  21.397  25.321  0.2148 -0.1340 -0.0155
73189W        W74053  10.684  23.901  25.555 -0.0216 -0.3314 -0.1481
73190W        W74054  11.561  23.400  24.848  0.0694 -0.0166 -0.3217
73191W        W74055   7.717  27.346  22.305 -0.3892  0.3399  0.2112
73192W        W74056  13.423  23.371  22.023 -0.0620 -0.1132  0.2648
73193W        W74057   9.918  24.083  23.782  0.1322  0.2772 -0.1054
73194W        W74058   8.503  24.260  23.254 -0.0180  0.0762  0.1641
73195W        W74059  12.059  24.680  22.774  0.1740  0.0582  0.0867
73196W        W74060  12.007  20.638  24.833 -0.0946 -0.2531 -0.0340
73197W        W74061   9.916  24.586  21.173 -0.0320  0.1118  0.0544
73198W        W74062  12.420  25.995  25.016 -0.0501 -0.0650  0.0936
73199W        W74063   9.594  24.068  18.971 -0.1729 -0.0345 -0.0102
73200W        W74064   7.349  27.088  24.454  0.2276 -0.4108 -0.0929
73201W        W74065  10.131  26.496  24.502  0.0251 -0.0924  0.1384
73202W        W74066   8.167  21.983  22.168 -0.0988  0.0282  0.0556
73203W        W74067   8.944  22.572  26.046 -0.0027  0.0423  0.0644
73204W        W74068   9.947  25.290  23.223  0.2568 -0.1030 -0.2014
73205W        W74069  12.106  23.592  24.140  0.0057  0.0039 -0.1137
73206W        W74070   8.835  26.084  23.886  0.0443 -0.1288 -0.0236
73207W        W74071  10.153  24.969  21.392  0.1585  0.1335  0.0232
73208W        W74072   7.772  23.636  20.684 -0.3620 -0.0488 -0.1820
73209W        W74073   9.945  24.674  23.856 -0.0509 -0.1650 -0.1277
73210W        W74074   9.523  27.701  24.286  0.1355  0.1310 -0.0981
73211W        W74075  10.836  26.441  28.183 -0.1446  0.4091 -0.0215
73212W        W74076  11.789  19.171  24.032 -0.0416 -0.1285  0.3196
73213W        W74077   7.671  23.211  24.903  0.1546  0.0293 -0.1298
73214W        W74078  11.810  24.191  24.122 -0.4214  0.1837 -0.0665
73215W        W74079  14.030  21.391  24.766 -0.1286  0.1279  0.2251
73216W        W74080   7.244  22.293  26.502  0.2337  0.1564 -0.0221
73217W        W74081  12.944  22.830  24.265  0.0764 -0.0683  0.0528
73218W        W74082  11.541  23.299  23.117 -0.1215  0.0255  0.0870
73219W        W74083   7.890  21.432  23.676 -0.2098 -0.0667  0.2548
73220W        W74084   9.340  22.373  22.873  0.1057  0.1514  0.1196
73221W        W74085  11.657  25.032  24.594 -0.2656 -0.0816 -0.1017
73222W        W74086   9.891  26.011  23.797  0.1255  0.0799 -0.2231
73223W        W74087   9.893  28.050  20.417  0.0738 -0.0436  0.0384
73224W        W74088   8.298  24.659  24.546  0.1980  0.0417  0.2793
73225W        W74089  10.319  25.985  19.303  0.1789 -0.2484  0.1961
73226W        W74090  11.916  24.231  21.528  0.0606 -0.2506 -0.0313
73227W        W74091   8.348  25.207  23.830  0.2486  0.1491  0.0661
73228W        W74092   8.403  23.787  21.931 -0.0519  0.0950  0.0790
73229W        W74093  11.721  24.223  26.242 -0.1836  0.0598 -0.0432
73230W        W74094  10.116  23.464  26.244 -0.1521 -0.1972  0.1209
73231W        W74095  13.664  23.995  24.320  0.0459 -0.3767  0.0881
73232W        W74096   4.720  24.004  22.441  0.0712 -0.0847  0.1565
73233W        W74097  11.965  26.921  22.817  0.0628 -0.1519 -0.2669
73234W        W74098   9.821  22.989  26.984 -0.0440  0.1467 -0.2049
73235W        W74099   6.590  22.964  23.738 -0.0526 -0.2489  0.0588
73236W        W74100  10.659  22.992  24.115  0.0567  0.1114 -0.1647
73237W        W74101   9.961  24.722  19.413 -0.0127 -0.0093 -0.1077
73238W        W74102   7.464  26.245  25.819  0.1030 -0.2237 -0.1695
73239W        W74103   8.293  26.126  24.279 -0.1174 -0.1690 -0.0607
73240W        W74104   7.324  23.709  21.547  0.2377 -0.3394 -0.1944
73241W        W74105  12.087  25.666  22.703  0.0136 -0.2953 -0.2144
73242W        W74106   6.034  26.060  22.767  0.1620 -0.1742  0.2639
73243W        W74107   6.995  23.126  20.891 -0.0853  0.2556 -0.1542
73244W        W74108  10.593  21.599  25.777  0.0683 -0.1505 -0.1164
73245W        W74109  13.008  22.405  24.615  0.0060  0.1678 -0.1481
73246W        W74110   8.791  23.672  25.859  0.0203 -0.0469 -0.0584
73247W        W74111  13.319  23.462  25.675 -0.0026  0.1155  0.0180
73248W        W74112  11.065  22.807  24.364 -0.0725  0.1587 -0.2494
73249W        W74113   9.013  24.606  24.846  0.3006  0.2793  0.0570
73250W        W74114   7.042  19.796  21.600 -0.2035 -0.1347 -0.3142
73251W        W74115   9.817  23.579  28.171 -0.2024  0.3455 -0.0259
73252W        W74116   5.902  22.295  24.580  0.0185  0.1316  0.0388
73253W        W74117   9.624  25.010  22.937  0.1117  0.3103  0.1047
73254W        W74118  12.116  23.290  25.011  0.1210  0.3473  0.0600
73255W        W74119   9.226  23.926  25.838  0.0342  0.1316  0.2072
73256W        W74120  11.280  23.260  24.368 -0.1808 -0.2740 -0.0219
73257W        W74121  13.994  21.725  26.843  0.1265  0.1006  0.0202
73258W        W74122   9.628  27.554  25.349 -0.3082  0.0215  0.0360
73259W        W74123   9.743  25.360  20.444  0.3112 -0.2871 -0.4469
73260W        W74124   6.428  23.100  24.755 -0.1630  0.3612  0.0571
73261W        W74125   8.374  25.202  26.854 -0.0814  0.0687  0.0463
73262W        W74126  10.029  21.915  21.752 -0.0624  0.2521  0.0390
73263W        W74127  10.302  23.766  20.458  0.1769 -0.0557 -0.1802
73264W        W74128   9.748  25.390  23.888  0.1126  0.2067 -0.0360
73265W        W74129  10.880  25.520  26.117 -0.1114 -0.3023  0.0701
73266W        W74130   8.635  20.871  22.803 -0.0331  0.1381 -0.1182
73267W        W74131  11.919  23.177  23.949 -0.1565 -0.0335 -0.1584
73268W        W74132   8.311  23.141  23.980 -0.2696  0.4203  0.1509
73269W        W74133   6.614  22.911  21.326 -0.1687  0.3624  0.0248
73270W        W74134   9.871  23.046  24.701 -0.2006  0.0755 -0.0876
73271W        W74135   8.885  23.805  22.697  0.1462 -0.2317  0.0010
73272W        W74136   9.361  25.410  22.282  0.1876 -0.0108  0.1227
73273W        W74137  12.011  23.844  25.247  0.1725  0.2382 -0.0639
73274W        W74138   8.934  25.412  24.591  0.1091 -0.1315 -0.1376
73275W        W74139   8.225  22.004  20.499  0.3638 -0.0700  0.0458
73276W        W74140   8.951  23.141  26.027 -0.2640  0.0636 -0.0457
73277W        W74141  12.663  25.304  27.300 -0.0699 -0.2835 -0.0995
73278W        W74142   9.789  23.435  25.537 -0.2428 -0.1789  0.1561
73279W        W74143   8.238  25.633  23.630  0.0712  0.1788  0.1876
73280W        W74144  12.096  24.630  20.108  0.2282  0.1112  0.2741
73281W        W74145   7.963  24.117  26.648 -0.0848  0.3762 -0.1342
73282W        W74146   7.811  23.823  22.861  0.0742  0.2758  0.0047
73283W        W74147   8.912  25.240  22.473  0.0744 -0.1442  0.2201
73284W        W74148   9.261  25.379  23.735  0.1129  0.3230 -0.0949
73285W        W74149  11.438  22.634  23.110 -0.1182 -0.0572  0.0875
73286W        W74150   6.841  24.461  21.935 -0.1639 -0.0202 -0.1148
73287W        W74151  11.609  24.635  21.365  0.0221 -0.0897  0.1205
73288W        W74152   9.941  23.639  21.205 -0.3057  0.1519  0.0728
73289W        W74153   7.381  22.406  25.325  0.0116 -0.0115  0.1509
73290W        W74154  10.286  23.142  23.558 -0.0279 -0.1570 -0.1797
73291W        W74155  11.011  25.232  27.046 -0.1206 -0.0488 -0.1177
73292W        W74156  10.167  23.852  25.729 -0.1627 -0.3978  0.2098
73293W        W74157  11.642  23.564  21.695 -0.0212  0.0098  0.1991
73294W        W74158  10.006  24.039  26.185  0.1871 -0.1448 -0.1079
73295W        W74159   6.504  25.862  22.861 -0.1035 -0.2528 -0.2319
73296W        W74160   9.608  23.292  22.084  0.2700  0.3528  0.2735
73297W        W74161  11.074  24.486  22.591  0.3217  0.1203 -0.2828
73298W        W74162   6.750  21.675  21.956  0.0136 -0.1050  0.0059
73299W        W74163   9.796  25.014  22.405  0.0151 -0.1772  0.1249
73300W        W74164  10.777  23.492  24.288 -0.1305  0.1874  0.2649
73301W        W74165  11.141  23.577  25.995 -0.1073 -0.0252  0.2720
73302W        W74166  11.817  26.946  23.291  0.3979  0.1812 -0.1630
73303W        W74167   9.332  24.659  21.736 -0.1962 -0.3769 -0.0238
73304W        W74168   7.081  26.370  25.518  0.1488 -0.1106  0.4433
73305W        W74169  10.306  24.511  21.599 -0.0771 -0.1851  0.0714
73306W        W74170   7.296  22.092  23.398  0.0264 -0.1672 -0.1828
73307W        W74171   9.326  25.591  25.738  0.0529  0.1431  0.0683
73308W        W74172   6.991  21.774  22.388 -0.0425 -0.1293 -0.2018
73309W        W74173   9.487  23.886  26.364 -0.2619 -0.3050 -0.1590
73310W        W74174  10.386  23.605  25.332  0.4268  0.1218  0.0906
73311W        W74175   8.430  25.234  21.691 -0.2464 -0.0449 -0.0992
73312W        W74176   8.946  23.090  20.316  0.0632 -0.2463 -0.2187
73313W        W74177   9.665  25.021  21.364  0.0888  0.0893 -0.1251
73314W        W74178   7.466  22.789  22.821  0.1907  0.1748 -0.2101
73315W        W74179   4.696  26.180  22.835 -0.0903 -0.1471  0.1623
73316W        W74180   8.741  24.032  24.129 -0.2789 -0.3305  0.0140
73317W        W74181   7.572  24.910  25.185  0.1414  0.0863 -0.3390
73318W        W74182   7.896  23.606  22.140  0.2940  0.0776 -0.1115
73319W        W74183   9.270  22.241  21.129 -0.0618 -0.0287  0.1679
73320W        W74184  11.249  23.322  25.249 -0.0461  0.2859  0.0507
73321W        W74185  10.704  25.160  24.394  0.0522 -0.0121  0.2658
73322W        W74186   8.470  23.400  23.539 -0.0812  0.0051 -0.0001
73323W        W74187  10.201  24.384  23.527  0.0749 -0.1033  0.1173
73324W        W74188   8.836  25.049  23.613  0.1374  0.1293  0.0491
73325W        W74189   9.713  24.313  21.683  0.2085 -0.1038  0.0104
73326W        W74190   9.877  22.733  21.312 -0.0487 -0.0105  0.0658
73327W        W74191  10.255  20.886  24.867 -0.2483  0.3447  0.0608
73328W        W74192  14.186  22.693  25.266  0.0749  0.1102 -0.1976
73329W        W74193   8.624  24.088  22.381  0.3030 -0.0225 -0.1478
73330W        W74194   8.910  21.438  25.071  0.2169 -0.0745  0.0212
73331W        W74195   8.721  23.860  21.105 -0.4326 -0.1753  0.1017
73332W        W74196  12.099  22.823  27.205  0.1856  0.1155  0.0526
73333W        W74197   9.863  27.431  22.221  0.3683  0.1543 -0.2704
73334W        W74198  11.059  22.320  24.587 -0.1602 -0.0988 -0.1926
73335W        W74199   9.098  24.127  24.457  0.1389 -0.0831  0.2309
73336W        W74200  13.147  23.749  24.297 -0.3556 -0.2625  0.1282
73337W        W74201   7.644  22.371  24.813  0.1404 -0.0818 -0.0677
73338W        W74202   8.492  23.968  25.144 -0.0947  0.1407  0.0454
73339W        W74203  10.125  24.107  22.631 -0.0502  0.2033 -0.2935
73340W        W74204   7.452  26.614  22.675  0.0376 -0.1650  0.0514
73341W        W74205   7.902  24.651  24.813 -0.0355 -0.1079 -0.0465
73342W        W74206  11.799  23.816  25.815  0.3672 -0.3459  0.0044
73343W        W74207  10.306  24.318  25.892 -0.1836  0.1050  0.3223
73344W        W74208  10.084  20.313  25.452 -0.1757  0.0484  0.4361
73345W        W74209  10.804  23.738  22.926  0.4384  0.4537  0.1022
73346W        W74210  10.860  24.676  24.165  0.0309 -0.2518  0.1570
73347W        W74211   7.810  24.411  22.394 -0.0645  0.0944 -0.1208
73348W        W74212  12.035  24.711  24.192 -0.0211  0.0651  0.2406
73349W        W74213  10.333  24.076  25.138 -0.1111  0.0509  0.1698
73350W        W74214  10.801  25.328  22.241  0.3731  0.3835 -0.1841
73351W        W74215  10.762  24.669  26.132 -0.1177  0.0389  0.2149
73352W        W74216   9.992  27.582  24.453  0.1224  0.3597  0.1203
73353W        W74217   9.542  25.629  23.323  0.1198  0.0456  0.1293
73354W        W74218   9.438  22.689  24.941  0.1644  0.2053 -0.0312
73355W        W74219   9.534  23.726  20.885 -0.1943  0.0043 -0.0199
73356W        W74220   9.834  23.386  25.006  0.0899 -0.1518  0.0788
73357W        W74221  10.796  24.537  22.040  0.2688  0.2292 -0.1663
73358W        W74222   7.844  22.550  22.559 -0.0998  0.2737 -0.0271
73359W        W74223   5.852  28.122  28.109 -0.0698  0.1038 -0.1818
73360W        W74224   8.695  25.700  25.503  0.1236 -0.1400  0.1006
73361W        W74225  12.790  22.102  25.808  0.1765 -0.0148 -0.1146
73362W        W74226  12.969  25.901   0.713  0.0778  0.2712  0.0917
73363W        W74227  11.815  24.382  25.777 -0.3490  0.1316 -0.0202
73364W        W74228   9.818  26.143  28.106 -0.2491 -0.2204  0.0681
73365W        W74229   7.602  23.461  26.096  0.0521  0.0156 -0.1501
73366W        W74230  10.105  25.190  26.105  0.0857 -0.0814 -0.0399
73367W        W74231   8.373  26.009  28.128 -0.3026 -0.1032 -0.2665
73368W        W74232   6.932  23.298  26.651  0.0726  0.0299 -0.2163
73369W        W74233   7.043  25.080  26.249  0.2199  0.1226 -0.2853
73370W        W74234   8.697  22.546  27.206  0.0654  0.1346 -0.0821
73371W        W74235  10.411  21.290  25.289  0.3148  0.1749 -0.3834
73372W        W74236   9.873  21.955  28.670  0.1444  0.0797  0.0278
73373W        W74237   5.533  22.187  27.589  0.0529 -0.0761  0.0580
73374W        W74238   8.004  26.467   0.652 -0.0225 -0.0446 -0.0646
73375W        W74239   9.931  24.711  24.758 -0.0542 -0.2196 -0.0251
73376W        W74240   7.635  20.888  26.984 -0.1495 -0.1814  0.3045
73377W        W74241   6.499  25.124   1.712  0.4056 -0.2528  0.2713
73378W        W74242   9.800  24.387  27.095  0.2750  0.1112  0.2238
73379W        W74243  11.199  23.810   2.275  0.1343  0.1759  0.0452
73380W        W74244   8.546  21.779  26.313  0.0836 -0.0039  0.2173
73381W        W74245   8.715  25.055  28.564 -0.0398  0.0298  0.0682
73382W        W74246   7.488  27.007  28.433  0.2224 -0.1131 -0.0671
73383W        W74247   6.111  22.795  28.026 -0.0275 -0.1499 -0.0948
73384W        W74248   5.708  23.580   0.934 -0.1951  0.2196  0.0473
73385W        W74249  12.025  23.254  28.509  0.1064 -0.0588  0.0858
73386W        W74250   7.044  25.490  26.491 -0.0448  0.0644 -0.3534
73387W        W74251   9.329  24.653  26.983  0.4336 -0.1539  0.0130
73388W        W74252   7.594  24.228  27.452 -0.1575  0.0591  0.0074
73389W        W74253  10.025  24.335  25.493 -0.0244 -0.0078  0.3392
73390W        W74254  10.752  25.347   1.885 -0.0143  0.2562  0.1974
73391W        W74255   8.557  26.332  26.244 -0.0202  0.1651  0.1971
73392W        W74256   7.981  24.729  26.716  0.1642 -0.0295  0.3660
73393W        W74257   5.659  21.383  26.196  0.0537 -0.1972 -0.1292
73394W        W74258   8.272  23.611   1.289 -0.0417 -0.1617 -0.0479
73395W        W74259   8.176  24.441  25.707 -0.1111 -0.1536 -0.1987
73396W        W74260   8.741  26.303  26.673  0.0046  0.1713  0.0773
73397W        W74261   9.012  26.053  26.298  0.1137 -0.2868  0.3267
73398W        W74262   8.930  24.356  27.300 -0.0347 -0.0639  0.0269
73399W        W74263  10.114  23.434  26.761 -0.0334 -0.0023 -0.3785
73400W        W74264  10.963  24.432  28.756 -0.0398 -0.1559  0.0460
73401W        W74265   9.041  25.251  28.858 -0.2404  0.1494  0.0897
73402W        W74266  12.584  26.384  24.496 -0.2034  0.2948 -0.1789
73403W        W74267   8.320  26.902  28.404 -0.1063 -0.3238 -0.1354
73404W        W74268   9.512  26.096  28.515 -0.2070  0.1760  0.0698
73405W        W74269   7.600  21.777  26.673  0.1006 -0.0734  0.0060
73406W        W74270  10.789  22.224   0.530  0.0076 -0.0175  0.3154
73407W        W74271   8.084  21.569  28.141  0.2555  0.0799  0.2121
73408W        W74272   9.911  25.543  24.968  0.3182  0.1704 -0.1219
73409W        W74273   7.719  23.529   0.035  0.0300 -0.0439  0.2670
73410W        W74274   8.441  22.948  26.114  0.0667 -0.0289  0.2205
73411W        W74275   8.116  26.096  26.064  0.0489  0.0288  0.1603
73412W        W74276  11.411  22.467  23.597 -0.1797  0.2791 -0.0606
73413W        W74277   8.269  23.064  26.514  0.3124  0.0605  0.0374
73414W        W74278   9.176  25.778  25.279  0.0579 -0.1301 -0.1402
73415W        W74279   6.950  22.404  25.493  0.2994 -0.1098  0.0402
73416W        W74280  10.527  20.843   0.257 -0.0134 -0.1012 -0.0819
73417W        W74281   8.793  24.891  29.080 -0.2261 -0.1331 -0.2302
73418W        W74282   9.552  28.285  28.190 -0.2268  0.1143  0.1844
73419W        W74283  11.067  24.705  23.724 -0.1691 -0.0164 -0.4371
73420W        W74284   8.800  26.362  24.313  0.1884  0.4250 -0.1755
73421W        W74285   7.137  26.323  27.427 -0.1295 -0.0222  0.0687
73422W        W74286   9.088  25.141  25.098 -0.0436  0.0322  0.1643
73423W        W74287   7.582  27.055  26.036  0.1747 -0.0065  0.1211
73424W        W74288   7.867  23.433  27.469  0.2396 -0.2134 -0.2719
73425W        W74289   7.308  24.505  25.422  0.1058 -0.1212 -0.2638
73426W        W74290   7.712  25.801  22.982  0.0334 -0.0148 -0.2700
73427W        W74291   8.547  26.421  28.545 -0.2211 -0.4113  0.0971
73428W        W74292   9.445  25.799  23.907  0.0856 -0.2451  0.4057
73429W        W74293   9.183  27.317  28.514  0.0964  0.1217 -0.2301
73430W        W74294   8.902  23.386  28.401  0.2151 -0.0933 -0.0371
73431W        W74295  10.605  23.216   0.038 -0.2208 -0.1078 -0.0598
73432W        W74296   9.253  23.550  27.962 -0.1993 -0.1633 -0.0402
73433W        W74297   9.022  25.664  27.177 -0.2504  0.0662 -0.1880
73434W        W74298   8.166  24.138  27.497 -0.0736 -0.2239 -0.0409
73435W        W74299   7.468  23.982  25.297  0.0781  0.0245 -0.2925
73436W        W74300   8.805  26.435  28.091  0.0768  0.2306 -0.1416
73437W        W74301   9.457  25.204  27.923  0.1897  0.3639 -0.1747
73438W        W74302  11.106  24.296  26.341 -0.2959 -0.2513  0.2472
73439W        W74303   8.453  27.028   0.078 -0.2363 -0.0681  0.1480
73440W        W74304   8.101  23.214   0.307 -0.1954  0.0532 -0.0024
73441W        W74305   5.511  21.009  25.197  0.1908  0.1089 -0.0567
73442W        W74306  11.784  20.792   1.011  0.1023 -0.0992 -0.0853
73443W        W74307   8.488  22.508   1.023  0.1422 -0.2027  0.4588
73444W        W74308   8.468  21.535  29.062  0.1027 -0.0711 -0.0975
73445W        W74309  11.929  22.031   0.573 -0.2814  0.3590  0.1023
73446W        W74310  11.541  21.253   1.054 -0.1731  0.1281  0.3393
73447W        W74311   9.439  23.608  26.948 -0.0576  0.0828  0.2723
73448W        W74312   5.593  26.234   0.085 -0.2319 -0.0031 -0.3691
73449W        W74313   9.874  24.433  26.418  0.0602 -0.0145  0.1651
73450W        W74314  12.464  24.245   1.424 -0.2844  0.0180 -0.0514
73451W        W74315   7.270  27.504  27.987 -0.0423  0.0141  0.5403
73452W        W74316  12.655  22.214  27.131 -0.0903 -0.0726  0.3727
73453W        W74317   4.704  22.958  26.767 -0.3103  0.3267  0.0142
73454W        W74318  10.240  22.644  27.936 -0.1046  0.0153 -0.2069
73455W        W74319  11.739  25.465  27.746  0.4068 -0.2693  0.2205
73456W        W74320   7.252  26.591  28.711  0.1208 -0.0186 -0.2517
73457W        W74321  10.389  22.829  25.978 -0.1275  0.1881  0.1128
73458W        W74322   9.968  23.681  28.697  0.2647  0.1048 -0.3574
73459W        W74323  12.105  25.265  22.402  0.0154 -0.0393 -0.1651
73460W        W74324   6.822  23.592  28.052 -0.0474 -0.0053 -0.0503
73461W        W74325   8.673  23.232   0.292  0.1372  0.0341  0.1742
73462W        W74326   8.263  24.847  27.245  0.2568 -0.0744  0.0831
73463W        W74327   9.870  21.656  27.188  0.3258  0.1110 -0.1573
73464W        W74328   7.211  21.543   1.009  0.1902 -0.2246  0.2452
73465W        W74329   9.111  27.885  28.501 -0.1903  0.1953 -0.0579
73466W        W74330   7.800  23.856  27.715  0.2463 -0.2352  0.2427
73467W        W74331   6.788  21.094  28.900 -0.1178 -0.0935 -0.2948
73468W        W74332   9.003  23.807  28.684 -0.2470 -0.0037  0.0725
73469W        W74333   7.393  25.835  28.541 -0.0211 -0.0788 -0.3216
73470W        W74334   7.231  26.830  25.393  0.0182  0.2795 -0.1211
73471W        W74335   8.916  21.752  29.018 -0.2140 -0.2440 -0.3239
73472W        W74336   8.977  24.258   1.194  0.0102 -0.3008  0.0972
73473W        W74337  10.601  23.818  24.712  0.1560  0.0394 -0.1735
73474W        W74338  10.419  24.160  27.945 -0.0739  0.0818  0.1262
73475W        W74339  12.131  25.365  28.051  0.1431  0.0104  0.1243
73476W        W74340   7.273  25.392  28.434  0.3605  0.1844 -0.0406
73477W        W74341   6.826  23.781   0.047  0.0243 -0.2898  0.2550
73478W        W74342  11.404  24.117  25.834  0.2109  0.0757  0.2678
73479W        W74343  10.238  24.674  26.180  0.1395  0.1609 -0.0711
73480W        W74344   9.558  25.254  27.057 -0.1634  0.3637  0.2762
73481W        W74345  10.233  27.694  25.373 -0.0988 -0.1560 -0.0542
73482W        W74346  11.176  26.091  28.232  0.2235  0.0754  0.5689
73483W        W74347  10.186  24.858  27.088  0.2252 -0.0069  0.0395
73484W        W74348   9.655  24.024  28.501 -0.0228  0.2118  0.1149
73485W        W74349   7.648  22.946  25.318  0.0869  0.1725 -0.1795
73486W        W74350   8.913  25.550   0.947 -0.3667 -0.1575  0.0706
73487W        W74351  10.757  26.983  26.598  0.0800 -0.1780  0.2994
73488W        W74352   5.511  27.533  24.061 -0.1626 -0.1357  0.0039
73489W        W74353   7.887  25.207  27.003  0.1174  0.2765 -0.0838
73490W        W74354   9.169  24.865  28.141 -0.1109 -0.0683 -0.0625
73491W        W74355   8.119  26.463  26.523 -0.1091  0.1110 -0.0198
73492W        W74356  10.841  20.965  26.491  0.4051 -0.0513 -0.0791
73493W        W74357  11.731  23.035   1.767 -0.0663 -0.0268 -0.1727
73494W        W74358   5.891  23.613  27.820  0.1986 -0.0436 -0.0784
73495W        W74359   9.548  22.081  27.289  0.0021 -0.0336 -0.0920
73496W        W74360  11.856  26.362  25.915  0.2700  0.1908 -0.3421
73497W        W74361   7.906  25.091  23.960  0.0050  0.1723 -0.1359
73498W        W74362  10.277  23.686  27.837 -0.2319  0.0570  0.0078
73499W        W74363   6.753  23.513  24.807 -0.0632  0.0738 -0.4766
73500W        W74364  10.620  22.177  28.183 -0.1295  0.1844 -0.0640
73501W        W74365   8.288  25.428  25.237  0.1804 -0.0171  0.0578
73502W        W74366   7.493  23.198  27.271 -0.1450 -0.1432  0.1011
73503W        W74367   7.232  25.721  28.054  0.0597 -0.2296  0.0846
73504W        W74368   9.193  23.225  28.750 -0.5458  0.1411  0.0425
73505W        W74369   9.418  23.234  25.750  0.0241  0.3994  0.1723
73506W        W74370  11.085  26.432  27.772 -0.1487 -0.2155  0.1177
73507W        W74371  11.624  26.750  26.546 -0.1452 -0.1377 -0.0903
73508W        W74372  10.498  24.525  27.313 -0.1419  0.0272  0.0290
73509W        W74373  13.040  26.858  28.053 -0.3218 -0.3666 -0.1710
73510W        W74374   8.044  23.349  27.033  0.2212  0.2765  0.0731
73511W        W74375  10.738  25.406  28.730 -0.2338  0.0975 -0.0727
73512W        W74376   7.264  25.364  27.667  0.0056 -0.1675  0.2721
73513W        W74377   7.729  22.182  27.550  0.2965 -0.1046  0.2600
73514W        W74378   9.680  22.676  27.376 -0.2793 -0.0362 -0.0806
73515W        W74379   6.761  26.400  26.417  0.0767 -0.2435 -0.3116
73516W        W74380   7.846  25.822  24.445 -0.5093  0.3021  0.1369
73517W        W74381   6.154  22.601  25.427  0.0665 -0.2242 -0.1711
73518W        W74382  10.012  24.009  28.230  0.0559 -0.3061  0.2360
73519W        W74383   7.962  23.926  25.357  0.2598 -0.0184 -0.2860
73520W        W74384   8.777  23.554  27.585 -0.0289 -0.1288 -0.4921
73521W        W74385   8.505  24.767   0.445  0.0974  0.2123  0.0878
73522W        W74386   7.454  25.328   2.811  0.0166  0.1003 -0.1145
73523W        W74387   6.703  22.325   1.103  0.1022  0.1816  0.1580
73524W        W74388   7.850  22.547  27.199  0.0271  0.2154  0.0076
73525W        W74389   8.907  24.185  26.833  0.0434 -0.0864 -0.1175
73526W        W74390   8.935  26.856  28.476 -0.0914 -0.0554 -0.0179
73527W        W74391  10.122  26.736  28.652  0.2894  0.0041 -0.0864
73528W        W74392  10.078  25.193  24.272  0.1811  0.0085 -0.3405
73529W        W74393   7.680  26.712  25.719  0.3577 -0.0528  0.3356
73530W        W74394   8.879  25.095   0.442 -0.5072  0.1619  0.1850
73531W        W74395   7.492  27.804  25.510  0.1929 -0.0524 -0.1567
73532W        W74396   7.976  23.113  28.443  0.0001  0.1370  0.0827
73533W        W74397   8.750  21.986  26.804  0.1110  0.2073 -0.2226
73534W        W74398  12.749  24.315  24.374  0.0031 -0.1078  0.0675
73535W        W74399   7.747  26.835  28.826 -0.5127  0.0715  0.0145
73536W        W74400   7.448  27.672  26.443  0.0413  0.1711  0.1808
73537W        W74401   8.297  26.735  26.980  0.0484  0.0908 -0.3527
73538W        W74402   9.429  21.050  26.607 -0.1014  0.0273 -0.0917
73539W        W74403   8.447  25.356  25.763  0.3497  0.1785  0.3170
73540W        W74404   9.687  26.694  24.662  0.0805  0.0960  0.0575
73541W        W74405  11.690  24.542  24.515 -0.0546  0.1227 -0.4109
73542W        W74406   9.165  24.011  27.751 -0.3164  0.1087 -0.0371
73543W        W74407   8.282  21.153  27.669 -0.2245  0.1830 -0.1576
73544W        W74408   9.735  22.571  26.597  0.2004 -0.2750  0.1834
73545W        W74409   9.412  22.990  26.762 -0.0865  0.1190 -0.1116
73546W        W74410  10.861  22.728  24.947 -0.1768  0.1186 -0.1993
73547W        W74411   9.837  25.143  28.212  0.0610 -0.2597 -0.0773
73548W        W74412   8.088  25.014   0.588 -0.0825 -0.3618  0.1087
73549W        W74413   9.510  26.052  25.872  0.0411  0.0980 -0.0987
73550W        W74414   7.477  24.048  26.112  0.0465  0.0408 -0.1895
73551W        W74415   7.484  24.778   0.485 -0.0124  0.2671  0.0610
73552W        W74416   8.123  24.169  28.482  0.1495 -0.0843  0.0091
73553W        W74417   8.154  23.340  28.898 -0.1486 -0.0752  0.1190
73554W        W74418   9.002  21.606  26.612  0.0478 -0.3463 -0.1721
73555W        W74419   9.917  20.602  26.367 -0.1160 -0.0854  0.0909
73556W        W74420   6.310  22.248  27.091 -0.2463  0.2189  0.2040
73557W        W74421  11.314  24.665  28.364  0.2287  0.1261  0.2854
73558W        W74422  10.229  21.671  26.213  0.1237 -0.4457 -0.1574
73559W        W74423   6.643  27.312  26.651 -0.2237  0.0870 -0.0029
73560W        W74424  10.538  21.373  27.961  0.3041 -0.0852 -0.0952
73561W        W74425  12.355  24.075  23.975 -0.2167 -0.2462 -0.1663
73562W        W74426   7.837  20.030  24.854 -0.0360  0.0411 -0.1130
73563W        W74427   9.360  25.219  28.491  0.2709  0.3002 -0.0412
73564W        W74428   8.341  22.287  26.817 -0.2767 -0.1251 -0.2237
73565W        W74429   8.629  26.112  28.959 -0.1216 -0.2325  0.2794
73566W        W74430   9.367  22.777  27.850  0.0005  0.1511  0.4256
73567W        W74431   9.989  25.040  25.162  0.3076  0.1229 -0.1491
73568W        W74432   7.164  23.665  25.934  0.1284 -0.2201 -0.0042
73569W        W74433   8.564  24.007  28.466 -0.1606  0.0524  0.0845
73570W        W74434   5.800  25.742  28.968 -0.0665  0.1038  0.3354
73571W        W74435   8.294  26.480  28.118 -0.0760  0.2803 -0.1067
73572W        W74436  10.557  22.473   3.743 -0.2957  0.0076  0.2293
73573W        W74437  11.725  23.401  28.029 -0.3781 -0.2668  0.0718
73574W        W74438   9.424  23.833  24.112  0.1446 -0.0250  0.2128
73575W        W74439   7.201  24.258  28.512 -0.0481  0.1097 -0.1341
73576W        W74440   9.357  28.260  23.450 -0.0425 -0.2669  0.2359
73577W        W74441   8.375  25.834  27.109 -0.1075  0.0718 -0.0479
73578W        W74442   7.540  24.781  29.089  0.1116  0.0959 -0.0616
73579W        W74443  11.597  24.935   0.490 -0.2684  0.0037  0.1352
73580W        W74444   9.603  23.954   0.714  0.2214 -0.1454 -0.1310
73581W        W74445   8.581  27.830  28.300 -0.1205 -0.0240 -0.3680
73582W        W74446   9.040  22.370  25.127  0.0201 -0.1761  0.1876
73583W        W74447   8.011  25.136  23.479 -0.1238 -0.2676 -0.0580
73584W        W74448   6.627  21.767   0.941 -0.2606  0.1958  0.1201
73585W        W74449   9.633  24.863  27.404 -0.1939 -0.2180 -0.0545
73586W        W74450  11.347  24.055  26.721  0.1124  0.1440 -0.1466
73587W        W74451  12.667  27.690  24.320  0.3546  0.0680 -0.3517
73588W        W74452   8.493  24.557  27.596 -0.1321 -0.1004 -0.0500
73589W        W74453   9.256  22.339  27.662  0.2463  0.1930 -0.0788
73590W        W74454   5.605  22.496   0.944  0.1825  0.2972 -0.1493
73591W        W74455   8.153  25.790  25.584 -0.1060 -0.0280 -0.1341
73592W        W74456   9.209  24.856  27.645  0.0405 -0.1364  0.3831
73593W        W74457   6.530  24.199  27.050 -0.3485  0.1218 -0.0495
73594W        W74458   8.408  24.464  24.991 -0.2806 -0.1735 -0.1852
73595W        W74459   9.285  25.375  26.664  0.0504 -0.1782 -0.2399
73596W        W74460   9.833  21.204  27.561  0.3920  0.1980  0.0607
73597W        W74461  10.829  24.602   0.962 -0.1574  0.0411  0.0079
73598W        W74462   9.232  25.858  26.708 -0.1487  0.0990  0.2045
73599W        W74463   9.676  24.019  25.686  0.0179  0.0510 -0.0252
73600W        W74464   6.099  24.691   0.742 -0.1253 -0.0042  0.0280
73601W        W74465   7.472  22.620  26.879  0.4115  0.3588 -0.0097
73602W        W74466   4.251  20.250  28.607 -0.2563 -0.2996  0.2119
73603W        W74467   6.769  24.266   0.853 -0.1204 -0.4097 -0.0616
73604W        W74468   8.390  23.505  28.499 -0.0097  0.0718 -0.2072
73605W        W74469   8.948  24.424  28.299  0.0903 -0.1109 -0.1943
73606W        W74470   7.712  27.436  28.277 -0.0137  0.0717 -0.1675
73607W        W74471   7.810  27.005  25.207 -0.1738  0.2620  0.0222
73608W        W74472   8.550  26.071  25.758 -0.0796  0.2266 -0.4869
73609W        W74473   7.609  23.925  28.525 -0.1790  0.0986 -0.0402
73610W        W74474   8.522  25.528  27.881  0.1163  0.0275 -0.2010
73611W        W74475   9.349  25.106   0.125 -0.1372 -0.3383 -0.2004
73612W        W74476  10.115  20.011  27.264  0.1958 -0.1793  0.1368
73613W        W74477   7.519  23.726  27.298  0.0964  0.2554 -0.1613
73614W        W74478   9.931  25.828  26.529  0.0083 -0.0957  0.2362
73615W        W74479  11.950  20.845  26.096 -0.1288 -0.1935 -0.1045
73616W        W74480   7.790  22.797  28.078 -0.0092  0.1616  0.2177
73617W        W74481  12.713  23.649  24.864 -0.0316  0.0233 -0.1481
73618W        W74482   8.196  25.049  27.734 -0.2396 -0.2748  0.0323
73619W        W74483   8.226  25.074  28.800 -0.0828 -0.3406  0.2642
73620W        W74484   9.269  22.738  28.908  0.0621  0.0378  0.0045
73621W        W74485  10.254  22.158  27.852  0.1043  0.0843  0.0081
73622W        W74486   8.023  25.613  26.732 -0.2037 -0.2169 -0.0590
73623W        W74487   8.199  26.854  26.217  0.0328  0.1312  0.3198
73624W        W74488   8.380  26.311  25.258  0.1257  0.0630  0.2053
73625W        W74489   7.540  24.800  24.055  0.0502 -0.0891  0.2499
73626W        W74490   9.212  24.611  29.082  0.1950 -0.1052 -0.0949
73627W        W74491   8.243  23.938  28.014 -0.0197  0.3737  0.0746
73628W        W74492  11.920  22.248  27.858  0.0921  0.1833  0.0538
73629W        W74493  10.553  25.143  27.314  0.2506 -0.1913 -0.1035
73630W        W74494   8.870  22.827   0.671 -0.0010 -0.2955  0.0127
73631W        W74495   9.347  25.732  27.948 -0.0041 -0.0756 -0.1646
73632W        W74496   8.479  24.329  28.122  0.4277 -0.1354  0.0137
73633W        W74497  10.289  22.986   0.837 -0.2208  0.1061  0.1827
73634W        W74498  11.125  21.878  28.424  0.1615  0.0369  0.0033
73635W        W74499   6.063  21.741  27.295  0.1169 -0.4765 -0.0078
73636W        W74500   8.109  26.358  28.608 -0.0886  0.0947 -0.0127
73637W        W74501   8.180  22.768  24.275 -0.2129  0.0322  0.0614
73638W        W74502   8.092  24.725  28.260 -0.1433  0.2416  0.0337
73639W        W74503   9.014  23.351  27.196  0.0242  0.1735 -0.2500
73640W        W74504   6.030  19.965  27.105 -0.0141 -0.0248  0.1840
73641W        W74505   8.502  24.539  26.061 -0.3456 -0.0187 -0.0416
73642W        W74506   8.505  26.308  27.160  0.0315 -0.0501  0.0097
73643W        W74507   9.576  22.695  25.946 -0.1428 -0.2609 -0.0065
73644W        W74508  12.092  22.370  28.828  0.1688 -0.0034 -0.1014
73645W        W74509   8.709  24.569  25.542 -0.0491  0.1380  0.4461
73646W        W74510   6.909  23.341  28.816  0.0769  0.0136  0.1904
73647W        W74511   8.639  23.492  26.325 -0.2257 -0.3273  0.2241
73648W        W74512  11.213  25.830  26.422  0.2680  0.3671 -0.0720
73649W        W74513  11.539  23.951  23.334  0.4088  0.2336 -0.1342
73650W        W74514  10.216  21.700  25.143  0.4436  0.0041  0.0720
73651W        W74515  10.425  22.084  28.599  0.2415 -0.2861 -0.1212
73652W        W74516   7.741  24.718  26.205  0.1164 -0.1861  0.1664
73653W        W74517   7.918  25.896  23.986  0.0907 -0.3029 -0.0249
73654W        W74518   7.534  24.357  26.523  0.2072 -0.0330  0.1510
73655W        W74519  10.706  22.783  26.656  0.1315  0.0599 -0.0368
73656W        W74520  10.670  24.183  28.433 -0.0244  0.0624 -0.0533
73657W        W74521   8.881  24.451  26.396 -0.0377  0.0169 -0.1153
73658W        W74522   8.382  25.393  26.361 -0.1512  0.1205 -0.2743
73659W        W74523   6.936  24.979  25.719 -0.1092 -0.2957  0.0380
73660W        W74524   7.747  23.378   1.228 -0.0299  0.2301  0.1553
73661W        W74525   9.711  25.742   0.194 -0.1851 -0.1440  0.0235
73662W        W74526   8.581  25.394  27.268 -0.0950  0.0810  0.0884
73663W        W74527  13.543  23.676  24.758  0.1482 -0.2207 -0.3694
73664W        W74528  10.457  25.119   0.967 -0.0941  0.2792  0.0188
73665W        W74529  10.420  23.569  28.912 -0.3121  0.1712  0.2152
73666W        W74530   8.512  20.697  27.434  0.0672  0.4058 -0.0352
73667W        W74531   8.787  20.678  25.664 -0.2787 -0.1002 -0.3069
73668W        W74532   8.832  23.636  25.238  0.0319  0.0579  0.0376
73669W        W74533   8.906  23.953  26.352 -0.1006  0.1493  0.3240
73670W        W74534   7.182  26.270   1.724 -0.0697  0.3448 -0.1958
73671W        W74535  10.484  21.503   1.060  0.1570 -0.0057  0.0220
73672W        W74536  10.176  26.071  24.282 -0.0678 -0.0133 -0.4083
73673W        W74537   7.765  26.458  26.146 -0.2067 -0.1152  0.3348
73674W        W74538   8.962  27.947   1.959  0.1314  0.1574 -0.1152
73675W        W74539   8.238  23.455  26.043 -0.1285 -0.1444  0.1614
73676W        W74540   7.772  23.703  24.895 -0.4022  0.1635 -0.1419
73677W        W74541   9.089  24.764  28.658  0.2030  0.0407  0.0679
73678W        W74542   9.929  24.244  27.779 -0.2582 -0.1936  0.0979
73679W        W74543   8.380  23.848  26.739 -0.0897  0.0679  0.0107
73680W        W74544   9.755  26.292  24.252  0.0265 -0.1463 -0.1856
73681W        W74545   8.572  23.762  28.917 -0.4147 -0.0555 -0.2594
73682W        W74546   9.329  24.345  28.616 -0.0225  0.1124  0.2554
73683W        W74547   7.975  25.165  26.434  0.5107 -0.1021 -0.0794
73684W        W74548   7.988  26.292  25.629  0.1832  0.0871  0.2103
73685W        W74549   6.288  21.379  25.396  0.1954  0.1895 -0.1318
73686W        W74550   7.888  24.483  25.323  0.0440  0.0149  0.1318
73687W        W74551   7.590  24.104  28.071  0.0019 -0.2044 -0.3290
73688W        W74552   9.116  25.763  24.278  0.2963 -0.1112 -0.5341
73689W        W74553   6.799  24.635  27.468 -0.0153  0.1806  0.2290
73690W        W74554  11.936  22.773  27.777 -0.1349  0.0654  0.4682
73691W        W74555  11.459  26.235  27.448 -0.2998 -0.0707 -0.0510
73692W        W74556   9.699  25.575   1.553  0.2688 -0.0376  0.1793
73693W        W74557  10.041  25.362   0.792  0.1841  0.0748 -0.4592
73694W        W74558  10.116  26.316  29.128  0.0449  0.0676  0.1713
73695W        W74559   6.721  26.980  25.098  0.2909  0.1035  0.1903
73696W        W74560  11.292  26.440  25.835  0.0113  0.1665 -0.5520
73697W        W74561  10.136  25.400   1.246  0.1171  0.0547  0.2529
73698W        W74562   7.583  21.912  25.837  0.2648 -0.2088  0.0143
73699W        W74563   7.255  25.271  25.031 -0.1748 -0.0329 -0.0005
73700W        W74564   8.204  23.735   0.131  0.0102  0.0346  0.1365
73701W        W74565   8.834  22.717  27.958  0.1346  0.0670 -0.0409
73702W        W74566  10.449  26.198  24.828  0.4020  0.0573  0.0303
73703W        W74567   9.478  24.496  25.608 -0.0365 -0.0350  0.3720
73704W        W74568  11.878  24.588  28.251  0.0019  0.1876  0.1776
73705W        W74569   4.661  22.543  26.516 -0.2077  0.3739  0.1280
73706W        W74570   7.042  23.008  24.291 -0.1513 -0.1912  0.2009
73707W        W74571  10.612  24.570  26.822  0.0886 -0.0390 -0.0507
73708W        W74572   7.898  22.914  26.822  0.0772 -0.0926 -0.1273
73709W        W74573   9.983  21.534   1.062  0.1583  0.0234 -0.0425
73710W        W74574  13.951  24.442  26.080 -0.2943  0.2310 -0.0849
73711W        W74575  11.180  27.949  28.784 -0.0391 -0.2467 -0.0428
73712W        W74576   8.476  25.795  24.572  0.1115 -0.0448  0.0557
73713W        W74577   8.114  26.005  27.671 -0.3131  0.2417  0.1561
73714W        W74578   9.975  22.505  27.029 -0.3278  0.1457  0.0471
73715W        W74579   7.796  25.848   0.120  0.1755  0.4792 -0.0857
73716W        W74580   9.793  23.834   2.115  0.1906  0.0766 -0.1003
73717W        W74581   9.852  23.487  27.672 -0.1594 -0.1051  0.0400
73718W        W74582   7.527  21.874  24.921 -0.1614  0.1886 -0.2047
73719W        W74583  11.191  23.731  25.555 -0.0450  0.3518  0.0948
73720W        W74584  10.567  23.263   1.146 -0.1468  0.1365  0.2088
73721W        W74585   8.874  25.185   1.314  0.1644  0.0176  0.0581
73722W        W74586  10.216  23.081  28.907 -0.0925 -0.0624 -0.1821
73723W        W74587   9.944  26.735  25.434 -0.3216 -0.1965  0.1126
73724W        W74588   8.581  24.788  28.059 -0.0128 -0.1490 -0.1019
73725W        W74589  10.797  26.432  27.302 -0.0031 -0.2389 -0.2109
73726W        W74590   7.267  23.682  26.447 -0.1385 -0.2195  0.1174
73727W        W74591   7.660  22.679  28.595 -0.2780 -0.1874  0.2543
73728W        W74592  11.711  21.414  27.330  0.0959  0.1125  0.1138
73729W        W74593   8.283  23.595  24.825  0.0476 -0.1823 -0.0168
73730W        W74594  12.001  22.852  25.674 -0.2529  0.2038 -0.1153
73731W        W74595   8.408  24.326  27.071 -0.1500 -0.0608 -0.2136
73732W        W74596   9.187  24.069  29.089  0.2281  0.2135 -0.1419
73733W        W74597   9.521  26.701  26.459  0.0520 -0.2704  0.2606
73734W        W74598   7.469  21.802  27.377 -0.0829 -0.1200 -0.1701
73735W        W74599   8.718  25.804  27.533  0.0936 -0.0484 -0.2004
73736W        W74600   9.949  23.875   0.318 -0.1002  0.0854  0.0480
73737W        W74601   7.550  22.513   0.006 -0.0198  0.2456  0.3101
73738W        W74602   8.778  22.658  28.797  0.2020 -0.0372 -0.3611
73739W        W74603   8.934  26.584  27.560 -0.1650 -0.1419  0.1102
73740W        W74604   8.978  24.456  27.775  0.0361  0.1968  0.0782
73741W        W74605   7.248  25.819  27.419 -0.0995 -0.2303 -0.0834
73742W        W74606  11.513  27.699   0.770  0.0342  0.1384 -0.1272
73743W        W74607   9.617  26.076  29.030 -0.0010 -0.1649  0.0691
73744W        W74608   8.929  22.836   0.136  0.1172 -0.0822 -0.2380
73745W        W74609  10.311  24.198  26.926 -0.0223 -0.0147  0.0011
73746W        W74610  10.177  26.868   0.804 -0.3662  0.0259  0.0244
73747W        W74611   7.641  23.737  26.727  0.0814 -0.0323  0.1165
73748W        W74612   7.941  25.931   0.607 -0.1770  0.2992 -0.1823
73749W        W74613  10.330  24.211   1.772  0.1799  0.0284 -0.0005
73750W        W74614   7.791  24.181  28.930  0.2855 -0.2507 -0.0281
73751W        W74615   8.417  26.555  25.826 -0.0854 -0.1397 -0.1156
73752W        W74616  11.160  24.494  27.530 -0.1379 -0.3272 -0.0222
73753W        W74617   6.466  25.489  28.532  0.3543  0.1710  0.0645
73754W        W74618  10.054  24.652  27.496  0.1604  0.0459  0.1007
73755W        W74619   7.463  24.030  24.713  0.1662  0.1615 -0.1603
73756W        W74620   4.690  24.933  27.989 -0.0259 -0.0554  0.2598
73757W        W74621   8.786  24.668  26.881 -0.3191  0.0040 -0.1812
73758W        W74622   8.880  24.113  24.915 -0.2068  0.0536 -0.2806
73759W        W74623   5.962  28.483   3.967 -0.0057  0.0975  0.0521
73760W        W74624   8.051  26.552   2.520  0.0447  0.0887 -0.0557
73761W        W74625   9.528  28.497   1.280 -0.0277 -0.0394 -0.0357
73762W        W74626  10.227  27.745   3.257  0.4513 -0.0437  0.1468
73763W        W74627   8.493  28.824   0.257  0.1272  0.0249 -0.2057
73764W        W74628   9.487  24.704   2.614  0.2859 -0.0345  0.2321
73765W        W74629   6.327  28.800   0.643 -0.0745 -0.2296  0.2756
73766W        W74630  10.573  24.733  28.658  0.1745  0.1566 -0.0063
73767W        W74631   8.169  27.765   6.599 -0.1400  0.0351  0.1750
73768W        W74632   6.656  23.816   2.347 -0.0412  0.3710  0.2220
73769W        W74633   8.107  24.420   4.439  0.0044 -0.3303  0.2152
73770W        W74634  10.393  25.902   2.618  0.3388  0.0669  0.3878
73771W        W74635   9.239  26.326   0.088  0.0533  0.0718  0.4803
73772W        W74636   9.504  27.753   5.580  0.0657  0.1037  0.0343
73773W        W74637   7.000  26.732   0.344 -0.0368 -0.1035  0.2438
73774W        W74638   7.190  27.911   2.727 -0.1299 -0.1345 -0.1675
73775W        W74639   9.268  28.965   1.213 -0.0435 -0.1746 -0.2075
73776W        W74640   5.260   0.091   2.883  0.0817  0.5116  0.0021
73777W        W74641   4.833  26.978   3.552  0.0724 -0.0222 -0.2783
73778W        W74642  11.526  27.487   1.891  0.2126  0.3971  0.1704
73779W        W74643  12.344   0.385   2.552 -0.0704 -0.0305 -0.1521
73780W        W74644   9.916  27.762   1.051  0.1845  0.4301 -0.0543
73781W        W74645   9.729  27.932   4.421 -0.1389  0.4323 -0.0144
73782W        W74646   9.732   1.336   2.886 -0.0061 -0.0897 -0.1692
73783W        W74647   7.096  26.953   1.230  0.0257  0.0799  0.0768
73784W        W74648   5.965  28.981   2.425  0.1005  0.0907 -0.3574
73785W        W74649   7.525  26.610   3.888 -0.1063  0.0264 -0.0040
73786W        W74650   8.616   0.985   2.972  0.0058 -0.2641  0.1359
73787W        W74651   6.462  26.870   2.063 -0.0813  0.2630  0.0545
73788W        W74652  11.189  26.813   3.386  0.1327 -0.0499 -0.1135
73789W        W74653   6.079  28.729   2.037  0.0188 -0.1409  0.1421
73790W        W74654  12.664  26.493   3.013  0.3503  0.0220 -0.0778
73791W        W74655  11.155  27.233   5.685  0.2863 -0.3336 -0.1470
73792W        W74656   7.281  28.589   2.061  0.1087 -0.2718  0.0743
73793W        W74657   3.903  23.443   3.020 -0.1449  0.3638 -0.4804
73794W        W74658   8.186  27.706   2.645  0.1625 -0.2101 -0.0471
73795W        W74659   8.312  27.222   1.543 -0.1855  0.2036  0.0020
73796W        W74660   9.009  26.256   2.885 -0.3161  0.0272 -0.1478
73797W        W74661  11.551  27.289  27.881  0.0559  0.1359 -0.4655
73798W        W74662   7.751  24.344   1.800  0.2254 -0.0272  0.0480
73799W        W74663  11.343  25.820  27.764 -0.1418  0.0746  0.1245
73800W        W74664   9.042  24.865   2.953 -0.2872 -0.2189 -0.2136
73801W        W74665   8.422   0.385   3.387  0.2484  0.0820  0.4534
73802W        W74666   9.977   0.458   0.734 -0.4781  0.2528  0.0706
73803W        W74667   8.549   0.124   2.937  0.0796  0.2040 -0.0129
73804W        W74668   6.940   4.344   4.494 -0.0159 -0.0391 -0.1604
73805W        W74669   6.694  27.365   5.073  0.1999 -0.1007  0.3106
73806W        W74670  10.656  24.955   4.686 -0.0725 -0.2382  0.0972
73807W        W74671   7.450  28.616   3.412 -0.1819  0.1920  0.0194
73808W        W74672   8.513  27.538  27.889 -0.0386  0.0449 -0.1776
73809W        W74673  10.597   1.849   3.015  0.0667  0.2456  0.0005
73810W        W74674   7.671  25.784   2.883  0.0449 -0.1902  0.1427
73811W        W74675   5.933  27.236   3.696  0.0431 -0.1942 -0.0368
73812W        W74676  12.921  27.865   1.771 -0.1824 -0.1099  0.2948
73813W        W74677   9.659  24.042  29.038  0.3609 -0.2133  0.2445
73814W        W74678   9.291   0.737   3.641 -0.1005 -0.3295  0.0713
73815W        W74679   5.411  26.119   2.148  0.0453  0.0969 -0.0775
73816W        W74680  10.416  27.164  28.637 -0.3982  0.3855 -0.1457
73817W        W74681   8.568  28.136   1.700  0.1371  0.2353  0.2847
73818W        W74682   7.725  28.763   1.906  0.0471 -0.1407 -0.0841
73819W        W74683  10.220  25.469   0.378 -0.0074 -0.2086 -0.1216
73820W        W74684   6.921  26.916   2.709 -0.2403  0.0274 -0.3187
73821W        W74685   6.960  25.214   5.144  0.0864 -0.2830 -0.0580
73822W        W74686   8.407  25.202   0.217  0.4770  0.0755  0.2033
73823W        W74687   7.612  26.353   0.977  0.0507 -0.1649  0.1399
73824W        W74688   9.416  27.945   3.811  0.0338  0.1543 -0.0156
73825W        W74689   9.794  26.806  27.396  0.1472 -0.1249 -0.1247
73826W        W74690  10.322  27.592  28.984 -0.0649  0.4088 -0.0379
73827W        W74691   8.279   1.074   2.610  0.2131 -0.0024 -0.0430
73828W        W74692  11.209  25.141   0.954 -0.1608 -0.0066  0.0096
73829W        W74693  10.526  28.597   4.943 -0.3526  0.0284  0.1530
73830W        W74694   9.262  26.125   2.135 -0.0337  0.1543 -0.0810
73831W        W74695   9.208  27.424   1.381 -0.0537 -0.3670  0.3620
73832W        W74696  10.758  26.812   2.962  0.0771 -0.2138  0.0979
73833W        W74697   7.814  28.383   5.733  0.0423 -0.0705 -0.3561
73834W        W74698   7.551  27.968   5.305 -0.4282  0.0204  0.2454
73835W        W74699   8.238  28.916  28.570 -0.1631 -0.3780  0.0991
73836W        W74700   6.595  26.820   0.725 -0.0266  0.2725  0.1726
73837W        W74701   6.016  27.571   2.291 -0.0113  0.1999 -0.1552
73838W        W74702   7.524  26.940   0.997 -0.2581 -0.0417 -0.0913
73839W        W74703   8.860  24.218   1.783  0.3472 -0.2282  0.1307
73840W        W74704   6.986  26.136   3.016 -0.1460 -0.0684  0.1363
73841W        W74705   6.080  26.103   0.826  0.3783  0.0903 -0.0362
73842W        W74706   8.912  26.136   1.789  0.3856  0.1309 -0.0371
73843W        W74707   8.539  24.637   1.795  0.2757 -0.1661 -0.0123
73844W        W74708   8.599  27.106  28.775  0.2542  0.1848  0.0521
73845W        W74709  11.184  27.465   2.688  0.1017 -0.2265  0.2654
73846W        W74710  10.287  25.330   4.946  0.3253 -0.3330  0.0573
73847W        W74711  13.952   0.147   3.563 -0.0722  0.0068 -0.0094
73848W        W74712   7.954  26.816   2.060 -0.3408  0.0621  0.2074
73849W        W74713   8.821  26.842   0.898 -0.5309  0.2785  0.2531
73850W        W74714  11.969  27.796   3.992  0.0860 -0.1453 -0.3068
73851W        W74715   7.599   0.027   2.775 -0.1529 -0.4231  0.0807
73852W        W74716   8.945  27.456   0.572  0.2744 -0.0651 -0.4481
73853W        W74717   8.345  26.189   1.452 -0.0236 -0.2570  0.1104
73854W        W74718  10.106  26.657   0.361 -0.3581 -0.0852  0.2859
73855W        W74719  10.229  26.795   1.792 -0.0158  0.0511  0.0133
73856W        W74720   6.038  28.957   4.774 -0.4655  0.1661 -0.0748
73857W        W74721   9.864  27.530   0.125 -0.1626  0.1602 -0.1058
73858W        W74722  11.989  27.025   2.533 -0.0973 -0.2220  0.2049
73859W        W74723  10.696  26.306   0.022 -0.2549 -0.5025  0.0034
73860W        W74724   7.493  26.195   3.120 -0.0215 -0.2265 -0.2537
73861W        W74725  11.247  26.264   1.064  0.0288 -0.1808  0.2282
73862W        W74726  11.426  27.249   1.020 -0.1150 -0.1060 -0.0151
73863W        W74727  10.026  26.051   2.937 -0.0295  0.2008  0.4267
73864W        W74728  10.227  26.421   3.607  0.0586  0.2651  0.2543
73865W        W74729   7.103  27.271   0.300 -0.2062  0.0110 -0.0694
73866W        W74730  10.363  25.144   2.228 -0.0254  0.0495  0.0550
73867W        W74731  10.764  27.281   6.113 -0.0238  0.1612  0.0584
73868W        W74732   6.568  27.457   1.501  0.2226 -0.1176 -0.6043
73869W        W74733   7.554  27.220   0.471 -0.0500  0.3511  0.0865
73870W        W74734   9.359  28.176   0.851 -0.0126  0.2623 -0.3115
73871W        W74735  10.438  26.358   2.986  0.2415 -0.0226 -0.2054
73872W        W74736   7.176  28.281   3.745 -0.1030  0.1169  0.0410
73873W        W74737  10.911   0.049   0.043  0.1285 -0.2128  0.3996
73874W        W74738  10.942  25.336   1.415  0.0363 -0.2347 -0.3611
73875W        W74739  11.665  25.584   1.885 -0.0542 -0.0190 -0.0892
73876W        W74740   7.201  26.694   4.291 -0.2205 -0.0681  0.1223
73877W        W74741   8.565  27.462   2.244  0.5307  0.1670 -0.2729
73878W        W74742  11.140  26.977   0.185 -0.0704  0.0136  0.0414
73879W        W74743   8.808  27.496   1.715 -0.1014 -0.3940  0.1436
73880W        W74744   9.671  26.787   0.919 -0.0961  0.1660  0.0983
73881W        W74745   8.981  26.597   2.127 -0.2430  0.2261 -0.0437
73882W        W74746   8.296  25.995   2.445  0.2161 -0.1379  0.0553
73883W        W74747   9.322  25.993   0.425  0.1597 -0.0047 -0.0993
73884W        W74748  10.290  26.810   3.205 -0.0421  0.0677  0.1643
73885W        W74749   6.738  27.419   1.014  0.1525 -0.0104  0.1210
73886W        W74750   9.264  25.727   1.716 -0.4037  0.1310 -0.0700
73887W        W74751   9.488  28.713   4.680 -0.0649 -0.2016  0.0550
73888W        W74752   7.885  27.142   1.294 -0.3029  0.0476  0.1745
73889W        W74753  11.696  27.245   4.287 -0.2164  0.0173 -0.1290
73890W        W74754   7.408  23.304   2.714  0.0429 -0.1026 -0.0855
73891W        W74755   7.628  28.031   4.691 -0.2347 -0.3264  0.0547
73892W        W74756  11.053  27.527   0.857  0.1343  0.0855  0.0098
73893W        W74757   9.113  27.107   4.061  0.0825 -0.0760  0.0990
73894W        W74758   5.117  25.587   2.692 -0.0039 -0.0383 -0.1256
73895W        W74759  11.886  25.460   1.423 -0.1919 -0.1496 -0.1405
73896W        W74760  11.771  24.678   4.161  0.0265  0.0556  0.0938
73897W        W74761   6.645   0.900   4.981 -0.1435  0.5244  0.0913
73898W        W74762   9.333   0.823   3.157  0.6084  0.0486  0.0503
73899W        W74763   7.378  27.572   0.010 -0.2706  0.0684  0.0561
73900W        W74764   7.954  26.167   2.929  0.1123 -0.1005  0.1862
73901W        W74765   6.612   0.681   0.758  0.3352 -0.1357  0.1689
73902W        W74766   8.092  27.883   0.940  0.0065  0.5091 -0.2931
73903W        W74767   7.278  26.531   1.298  0.2438 -0.1307  0.1418
73904W        W74768   9.924  25.372  28.811 -0.0560  0.3759  0.2500
73905W        W74769   8.459  26.886   1.220  0.0224  0.2135  0.0382
73906W        W74770   9.060  28.312   2.366 -0.2088  0.0517  0.2032
73907W        W74771   6.690  26.988   1.612  0.0464 -0.1883  0.3967
73908W        W74772   9.539   0.428   2.815 -0.0543  0.2121 -0.0873
73909W        W74773   9.960  26.928   1.311 -0.1409 -0.1259 -0.2264
73910W        W74774   8.416  26.195   0.486  0.6077 -0.4090 -0.2106
73911W        W74775   7.539  27.524   2.803  0.0168 -0.1120 -0.3814
73912W        W74776   5.336  26.586  28.460  0.0565  0.0027  0.0729
73913W        W74777   9.778  26.518   2.641 -0.1660  0.1030  0.0916
73914W        W74778   7.998  27.189   5.155 -0.0377  0.2030  0.3151
73915W        W74779   8.723  28.950   2.168  0.1243 -0.2889  0.1631
73916W        W74780  11.252  28.920   1.394 -0.3069  0.1627 -0.1879
73917W        W74781   9.347   1.154   1.214 -0.0837  0.0961 -0.0193
73918W        W74782  10.215  24.764   0.619  0.2864  0.0666 -0.0274
73919W        W74783   9.971  26.794   2.271  0.1961 -0.0477 -0.0867
73920W        W74784   9.547  29.019   3.808  0.0439 -0.1006  0.2776
73921W        W74785   9.099   0.196   3.730 -0.2870  0.0347 -0.3109
73922W        W74786   8.530  27.285   4.012  0.2653  0.0088  0.0755
73923W        W74787   7.313  25.927   5.667 -0.2057  0.2585  0.0209
73924W        W74788   8.466  27.001   1.970  0.1785 -0.0194 -0.0394
73925W        W74789   5.678  26.483  28.843 -0.4798  0.0340  0.1616
73926W        W74790   7.591   1.906  29.018  0.0035 -0.2680  0.0324
73927W        W74791   7.759  27.394   4.466 -0.0243  0.0358  0.2519
73928W        W74792   9.479  27.192   1.798  0.2196  0.3672  0.2802
73929W        W74793  11.422  26.503   0.225 -0.2288  0.0630 -0.2795
73930W        W74794  10.444  25.408   3.674  0.0137  0.2125  0.0734
73931W        W74795   8.376  29.010   3.400 -0.1011  0.0208  0.1985
73932W        W74796   9.814  26.809  26.849 -0.2530  0.1345 -0.1940
73933W        W74797   6.112  23.854   1.112 -0.2706 -0.2393  0.1377
73934W        W74798  13.873  25.689   0.134  0.1813 -0.3070 -0.3669
73935W        W74799   9.091  27.699   4.271 -0.0194 -0.0482 -0.0137
73936W        W74800   6.078  24.888   3.536 -0.1504  0.0683  0.0212
73937W        W74801   8.629   2.160   1.195 -0.4141  0.0433  0.0168
73938W        W74802   9.675  25.886   2.019 -0.1718 -0.2119  0.0470
73939W        W74803   8.940  27.837   0.928  0.0316 -0.0586 -0.1482
73940W        W74804  10.346   0.150   0.528  0.3155 -0.1337 -0.0271
73941W        W74805  11.276  25.193   2.009  0.2523  0.1506 -0.0413
73942W        W74806   7.241  25.726   2.624  0.1346 -0.0532  0.0864
73943W        W74807   9.338  27.778   0.220  0.2136 -0.1005  0.3287
73944W        W74808   9.943  27.411   2.932 -0.1574 -0.2548  0.1779
73945W        W74809  10.297  27.284   3.443 -0.3319  0.3395  0.1938
73946W        W74810   4.666  26.524  29.148  0.0611 -0.2655  0.0392
73947W        W74811   5.191  26.592   4.490 -0.0256 -0.0646 -0.1732
73948W        W74812   6.803  26.002   1.887 -0.1203 -0.2738  0.4923
73949W        W74813   8.461  28.473   1.308 -0.1286  0.1292  0.0253
73950W        W74814   7.226  26.542   2.102 -0.0174  0.3119 -0.5002
73951W        W74815   7.728  24.436   3.694 -0.1496  0.3343 -0.0620
73952W        W74816   7.925  26.445   3.565 -0.0973 -0.0105  0.0511
73953W        W74817   8.450  24.313   1.171 -0.2025  0.0609  0.0404
73954W        W74818   8.479  27.635   0.258 -0.0346 -0.0968 -0.0775
73955W        W74819  10.499  25.076   1.498  0.0986 -0.0952 -0.2952
73956W        W74820   8.939  26.456   0.496 -0.0347  0.0674  0.1325
73957W        W74821   9.621  27.609  28.332  0.1656 -0.0263  0.3804
73958W        W74822   9.170  25.765   2.827  0.2828 -0.4202  0.1886
73959W        W74823   9.967  27.678   1.688  0.3011  0.1609  0.1535
73960W        W74824   9.691  26.424   1.302 -0.0043 -0.0761  0.1559
73961W        W74825  10.485  26.276  28.693  0.3624 -0.3311  0.2665
73962W        W74826   9.584  28.377   2.961  0.3189 -0.1188  0.1743
73963W        W74827   8.228  23.579   3.096 -0.1129  0.2241  0.2348
73964W        W74828   5.498  28.816   0.343 -0.1218 -0.2456 -0.1411
73965W        W74829   8.076  28.376   2.488 -0.2103  0.0058  0.0562
73966W        W74830  10.297  25.012   0.197  0.2017  0.2248 -0.1874
73967W        W74831   9.584   0.451   2.292  0.2996 -0.3257  0.0731
73968W        W74832   9.556  29.077   0.493  0.4109 -0.0605  0.1193
73969W        W74833   7.563   0.666   4.936 -0.3121 -0.1961  0.3649
73970W        W74834   7.931  23.900   1.539 -0.2081 -0.0018  0.2277
73971W        W74835   8.356  27.995   3.444  0.1293  0.0607  0.1236
73972W        W74836   9.808  25.344   4.154 -0.0188  0.0528  0.2726
73973W        W74837   9.130  28.272   2.984 -0.4605  0.3335 -0.2333
73974W        W74838  11.662  27.934  27.258 -0.0465 -0.0657  0.0401
73975W        W74839  10.795  26.036   2.964  0.1517 -0.1351  0.2045
73976W        W74840  10.735  26.962   1.632 -0.0845  0.0705 -0.3061
73977W        W74841   9.568  27.000   3.866 -0.2154  0.1601 -0.1036
73978W        W74842   7.629  26.748   1.626  0.1164  0.2198  0.0925
73979W        W74843  11.174  26.155   4.025 -0.0290  0.1325  0.3610
73980W        W74844   9.472  27.383   0.446  0.1916  0.0367 -0.3365
73981W        W74845   7.868  28.763   4.725 -0.0443 -0.2015  0.2366
73982W        W74846   5.570  26.141  28.518 -0.2395  0.0267  0.1483
73983W        W74847   9.508  28.771  28.344 -0.1276  0.2794  0.2562
73984W        W74848   8.536  26.841   5.794  0.0330  0.1083 -0.0816
73985W        W74849   8.377  27.898   4.888  0.2815 -0.4201  0.0029
73986W        W74850   9.436  26.823   2.186  0.0645  0.0812 -0.2377
73987W        W74851   9.203  27.789   2.723 -0.2918 -0.2624 -0.0317
73988W        W74852   9.935  27.252   1.987 -0.0576  0.2415 -0.0055
73989W        W74853   7.568  27.535   2.010  0.2376 -0.0727  0.4127
73990W        W74854   8.340  27.024   2.532  0.0263  0.2518  0.0273
73991W        W74855   8.480  26.561   2.265 -0.2508 -0.1198 -0.0740
73992W        W74856   9.131  27.510   2.161 -0.0690  0.0217  0.3707
73993W        W74857   3.921  26.880   4.922 -0.0525 -0.1610  0.1691
73994W        W74858   8.976  27.861   1.449 -0.0940 -0.0607  0.5715
73995W        W74859  12.724  26.334   0.797 -0.2123  0.1841 -0.1983
73996W        W74860  10.007  27.764   5.501 -0.3408  0.1620  0.1848
73997W        W74861  10.674  27.457   1.307  0.2231  0.0298 -0.2617
73998W        W74862  10.253   0.007   1.424  0.0108 -0.0820 -0.0685
73999W        W74863  10.746  27.941   0.477  0.0515 -0.3207  0.0516
74000W        W74864   6.743  28.276   2.083 -0.0956  0.1786  0.0979
74001W        W74865   6.102  27.166   1.641  0.1043  0.0938 -0.1446
74002W        W74866  10.864  26.647   0.979 -0.4803 -0.0975 -0.2612
74003W        W74867   7.273  26.033   2.184  0.1391 -0.0440  0.1582
74004W        W74868   8.550   1.114   0.698  0.0482  0.2041 -0.0900
74005W        W74869  11.024  29.105   3.289 -0.0895  0.2467  0.0007
74006W        W74870   7.875  27.975   2.893 -0.2734 -0.1070 -0.1437
74007W        W74871  11.072  27.070   0.685 -0.0915 -0.2097 -0.0831
74008W        W74872   7.984  25.325   2.780  0.1477 -0.0978  0.0655
74009W        W74873   5.643  26.434   4.366 -0.0983  0.3452  0.0424
74010W        W74874   7.467   3.078   3.970  0.1841 -0.1059 -0.1736
74011W        W74875  10.848  28.954   3.877  0.0813 -0.0225  0.1246
74012W        W74876   9.667  27.157   2.472  0.0691  0.0775 -0.0175
74013W        W74877   5.035  28.340   2.909  0.0583 -0.1557 -0.1206
74014W        W74878  13.993  27.387   3.539  0.1363  0.0176 -0.0878
74015W        W74879   8.742  25.652  28.652  0.0308 -0.0395  0.0343
74016W        W74880  10.692  27.202  29.084 -0.0167 -0.0597  0.1966
74017W        W74881   9.709  28.453   3.827 -0.0315  0.0001 -0.1453
74018W        W74882  10.596   0.181  28.785  0.1890  0.3896 -0.2410
74019W        W74883   5.997  27.131   4.249  0.3184 -0.1943  0.0045
74020W        W74884   7.669  26.303   1.949 -0.1338 -0.0906  0.2562
74021W        W74885  11.479  25.916   3.596 -0.1388  0.0150  0.0292
74022W        W74886   6.724  26.464   2.219  0.0344 -0.2372  0.0270
74023W        W74887   8.108  28.062   3.963  0.0346 -0.3411 -0.0425
74024W        W74888   7.183   0.917   5.981  0.0363  0.2258  0.0453
74025W        W74889   9.267   0.744   1.580  0.3509  0.1556 -0.1701
74026W        W74890  11.130  25.749   1.028  0.0076 -0.1671 -0.0792
74027W        W74891   6.280  26.011   3.713 -0.0190 -0.0813  0.1880
74028W        W74892   9.871  24.722   0.178 -0.0236 -0.0200  0.3117
74029W        W74893   9.211  28.070  28.979 -0.1293 -0.2248  0.2251
74030W        W74894   9.971   0.832   3.560 -0.0104  0.0766  0.1517
74031W        W74895   7.371  26.787   2.469  0.0426  0.0742 -0.0732
74032W        W74896   5.099  25.704   4.653 -0.2486 -0.0705 -0.1985
74033W        W74897   6.931  27.472   6.620  0.1155 -0.0869  0.1766
74034W        W74898  11.200  25.628   3.912 -0.1455  0.1345  0.1329
74035W        W74899   6.535  27.944   5.010 -0.0603 -0.0112 -0.0879
74036W        W74900   6.148  26.413   3.010 -0.2680 -0.1330  0.2286
74037W        W74901   8.080  27.981   0.435  0.0350 -0.3076  0.0300
74038W        W74902   8.868  28.853   2.632 -0.3591 -0.0229  0.0286
74039W        W74903   8.599  22.556   4.819 -0.0550 -0.1421 -0.0608
74040W        W74904   8.828  26.711  26.947 -0.2258 -0.0580 -0.1722
74041W        W74905   6.853   0.361   3.399  0.3351  0.1016  0.0512
74042W        W74906   6.086  28.639   5.205 -0.0198 -0.0376  0.0547
74043W        W74907   8.937  28.471   1.868  0.1910 -0.0052 -0.0480
74044W        W74908  11.051  23.638   3.940 -0.2828 -0.0103  0.1394
74045W        W74909  11.516  27.602  28.653  0.4332 -0.1904 -0.4222
74046W        W74910   4.643  25.398   5.519 -0.1831  0.2092  0.0431
74047W        W74911   9.792  26.713   0.015 -0.0705  0.0189  0.0765
74048W        W74912   8.810  26.983   2.430  0.1981  0.0147  0.1174
74049W        W74913  10.439  27.642   0.821 -0.0138  0.1862  0.0441
74050W        W74914   8.763  27.361   1.075 -0.2278  0.1063 -0.0414
74051W        W74915  11.939  27.543   2.507 -0.0627  0.2450 -0.0768
74052W        W74916   7.162  28.957   1.102  0.2524  0.1030 -0.0316
74053W        W74917   8.582  28.751  27.329  0.0207  0.0777 -0.0853
74054W        W74918   8.178  26.515  27.453 -0.0514  0.2073 -0.0985
74055W        W74919   9.819  27.013   0.404  0.1826  0.2193 -0.1052
74056W        W74920   8.778   1.340   3.247 -0.0394  0.3139  0.1605
74057W        W74921  10.295  28.240   1.808  0.0335 -0.0467 -0.2257
74058W        W74922   8.467  26.465   0.952  0.0174 -0.2384 -0.0026
74059W        W74923   7.943   2.800   0.804  0.1135 -0.1365 -0.0420
74060W        W74924   6.079  24.236   3.870  0.0278 -0.0316  0.1526
74061W        W74925   8.835  27.080   3.609 -0.0796  0.1032  0.1126
74062W        W74926  10.855  26.115   0.637 -0.0225 -0.0894 -0.0305
74063W        W74927  10.376  28.128   0.846  0.0113  0.0050 -0.3528
74064W        W74928   6.407  27.534   3.703  0.1606  0.1933  0.0934
74065W        W74929   9.375  28.771   1.678 -0.2070 -0.0994  0.3246
74066W        W74930   9.789  25.858   0.664 -0.0122  0.2160 -0.0010
74067W        W74931   9.405  26.479   4.970  0.2108 -0.0243 -0.0024
74068W        W74932   6.345  26.291   2.514 -0.1606 -0.1330 -0.3155
74069W        W74933  10.525  24.590  28.166 -0.0908 -0.1476 -0.0719
74070W        W74934   6.619  26.454   3.898  0.3229 -0.0285  0.2356
74071W        W74935  10.626  24.543   1.504 -0.3905  0.1892 -0.0529
74072W        W74936   8.782  27.898   3.067  0.1485 -0.0534 -0.2139
74073W        W74937   7.454  28.964   5.048  0.3497 -0.0568  0.0080
74074W        W74938   8.161  28.629   5.138  0.1111 -0.2811  0.0900
74075W        W74939   8.002  26.952   0.698 -0.0820 -0.0765  0.2192
74076W        W74940   8.519  25.157   0.800  0.0818  0.1744  0.2978
74077W        W74941  12.695  29.080   3.179  0.1396  0.1723 -0.2494
74078W        W74942   9.860  24.469   0.924 -0.0175  0.1080 -0.0191
74079W        W74943   8.556  28.322   2.207 -0.1449 -0.0397 -0.4295
74080W        W74944  10.096   0.976   1.747  0.2574 -0.1688 -0.0967
74081W        W74945   6.234  27.811   1.721 -0.3130  0.0849 -0.1644
74082W        W74946   7.453  27.193   1.539  0.1866  0.2146 -0.3438
74083W        W74947   9.229   0.496  27.757  0.0968 -0.5028 -0.0128
74084W        W74948   8.430   0.798   5.599 -0.4222 -0.2629 -0.1322
74085W        W74949   8.426  25.611   1.844  0.0407  0.4556 -0.0459
74086W        W74950   6.954  27.001   2.142 -0.0830 -0.3037 -0.0660
74087W        W74951   9.268  28.232   0.285  0.0625 -0.1151 -0.4128
74088W        W74952   6.399  27.076   1.160 -0.1603 -0.2112 -0.1566
74089W        W74953   7.621  27.781   0.589 -0.0085  0.1884 -0.1824
74090W        W74954  10.990  26.804  28.920  0.1153  0.1996  0.3123
74091W        W74955  12.363  27.248   4.696 -0.1555  0.1834  0.4524
74092W        W74956   9.146  28.885   4.190 -0.0930  0.2048 -0.1143
74093W        W74957   9.708   2.449   4.509 -0.5259  0.4646 -0.1165
74094W        W74958   8.617   0.885   4.279 -0.2084  0.0637  0.0855
74095W        W74959   7.849   0.371   1.077 -0.0793  0.0243 -0.1233
74096W        W74960   9.229  28.682   0.768 -0.1262  0.2296 -0.0866
74097W        W74961   7.625  26.265   2.517  0.0999 -0.2051 -0.3123
74098W        W74962  12.577  26.327   1.341 -0.2191 -0.3175  0.0248
74099W        W74963   7.475  27.840   1.545 -0.2038  0.0899  0.0458
74100W        W74964   7.453  26.635   3.411 -0.0800  0.0192 -0.0352
74101W        W74965   5.776  26.728   2.942 -0.2689 -0.1231 -0.1731
74102W        W74966   8.308  28.550  28.953 -0.1753  0.1043 -0.0611
74103W        W74967   9.021  26.903   0.332 -0.0798 -0.0135  0.2767
74104W        W74968   7.607   0.351   4.159 -0.0942 -0.0060 -0.2202
74105W        W74969   7.596  27.521   1.062 -0.2164 -0.0477  0.2469
74106W        W74970   7.057  24.802   1.608  0.1150 -0.1923 -0.1126
74107W        W74971   8.617  26.645   2.720 -0.0282  0.1042  0.0735
74108W        W74972  10.178  27.352   1.086 -0.3270  0.2340 -0.2891
74109W        W74973   8.807   1.088   3.887 -0.4273 -0.1623 -0.4438
74110W        W74974   9.533  27.118  29.060  0.1690  0.1037  0.0080
74111W        W74975   9.713  26.752   1.774 -0.1489 -0.3181 -0.4346
74112W        W74976   8.510   0.224   1.895 -0.2400  0.1772  0.1641
74113W        W74977   8.845   2.067   1.641 -0.2848 -0.0393 -0.0469
74114W        W74978  11.628  24.010   1.407  0.2004 -0.0004  0.2334
74115W        W74979   6.868  28.401   4.089  0.0218  0.0675  0.2530
74116W        W74980   9.944  25.028   6.932 -0.2227  0.4302 -0.0059
74117W        W74981   7.774  25.880   2.261  0.3396  0.0066 -0.1405
74118W        W74982   8.509  28.692   1.755  0.1088 -0.2853 -0.0044
74119W        W74983   6.557  28.669   1.836  0.0073 -0.0596 -0.1292
74120W        W74984  10.766  27.800   2.921  0.0425 -0.0688  0.1415
74121W        W74985   8.062   0.166   2.985 -0.1836 -0.0005 -0.5606
74122W        W74986   9.806  25.131   3.095  0.0688 -0.2194  0.1533
74123W        W74987   9.409  27.673   0.955 -0.1530  0.0987 -0.0121
74124W        W74988  10.975  26.174   2.150  0.0905 -0.1443 -0.2769
74125W        W74989  10.422  26.830   2.546  0.0982  0.2153  0.0807
74126W        W74990   9.174  27.261   2.651  0.2512 -0.0601  0.1291
74127W        W74991  11.125  25.762   0.491  0.1186  0.2630 -0.1067
74128W        W74992  10.696  26.329   2.568  0.0077 -0.0541  0.2309
74129W        W74993  11.135  27.400  29.074  0.1334 -0.2949  0.2340
74130W        W74994   9.231  27.134   0.914  0.3054 -0.2482 -0.1554
74131W        W74995  10.651  28.946   0.588  0.0391 -0.0037  0.0187
74132W        W74996  11.660  28.643   1.903  0.4277  0.2481  0.1180
74133W        W74997   9.209  28.415  28.529 -0.2907 -0.1333  0.0938
74134W        W74998   6.537  25.567   3.782  0.0885  0.1159  0.1139
74135W        W74999   7.507  25.753   4.190  0.0627 -0.0360  0.1422
74136W        W75000  12.679  24.588   3.708 -0.2027 -0.2745  0.0321
74137W        W75001   9.686  24.496   3.606 -0.0311 -0.1483  0.0151
74138W        W75002   6.979  27.366   2.913  0.0161 -0.2995  0.0867
74139W        W75003   7.723  28.435   2.817 -0.1337  0.0283 -0.1215
74140W        W75004   6.398   1.107   0.639 -0.1454  0.0671  0.0176
74141W        W75005   8.341  26.924   4.856 -0.2469 -0.0216  0.0896
74142W        W75006  10.043  28.309   2.673  0.0418  0.1778  0.0747
74143W        W75007   7.771  28.756   5.425 -0.2679  0.1859 -0.1964
74144W        W75008   9.458  26.085   3.764  0.1014 -0.1767  0.0524
74145W        W75009   9.108  26.834  28.962 -0.1922 -0.2318  0.2575
74146W        W75010   9.669   0.398   3.612  0.3234  0.1148 -0.0846
74147W        W75011   5.200   0.556   1.949  0.2223 -0.1127  0.0557
74148W        W75012  10.163  28.122   2.268  0.3400 -0.0738  0.0564
74149W        W75013   8.703  27.032   4.465  0.2615 -0.0631  0.2991
74150W        W75014  10.124  29.089   1.961 -0.0355  0.2102 -0.1346
74151W        W75015   9.492  26.257   0.841  0.0758  0.0864  0.0755
74152W        W75016  10.179   0.363   3.634  0.2522 -0.0496 -0.1169
74153W        W75017   7.594  26.386   4.338 -0.1685 -0.2719  0.1875
74154W        W75018   7.374  27.461   3.276  0.0182  0.1397 -0.2999
74155W        W75019   8.458   0.585   0.602 -0.0156 -0.0778  0.0799
74156W        W75020  12.875  27.077   5.392 -0.2229  0.2341  0.0484
74157W        W75021  11.701  28.015   1.687  0.0571 -0.0864 -0.1155
74158W        W75022  10.504  28.250   1.338  0.0740 -0.0714 -0.0153
74159W        W75023   7.000   0.366   6.881 -0.0105  0.0119  0.3168
74160W        W75024   6.354  26.433   4.749  0.0099  0.1377 -0.0933
74161W        W75025   6.884  27.909   6.323 -0.0260 -0.0673 -0.5482
74162W        W75026  10.260  28.699   6.434  0.1790 -0.1548  0.1135
74163W        W75027   8.040  28.644   1.478  0.1574  0.0700 -0.2992
74164W        W75028   8.505  27.002   3.111  0.2224 -0.0894  0.0802
74165W        W75029   7.293  25.114   3.321  0.3230  0.0803  0.1359
74166W        W75030   6.218  26.801   2.545  0.0920  0.0659 -0.0308
74167W        W75031  10.813  28.827   8.407  0.0294  0.4482 -0.0670
74168W        W75032  10.349  25.541   8.525  0.1405 -0.0199  0.3630
74169W        W75033   7.640  23.615   6.249  0.1258  0.0302  0.1229
74170W        W75034  10.022  24.270   7.900  0.3496  0.4201  0.0006
74171W        W75035   9.661  28.101   2.463  0.1692  0.0398 -0.0370
74172W        W75036  11.076  24.873   7.849  0.2494 -0.0214 -0.2139
74173W        W75037   6.167  26.866   7.300 -0.2740 -0.0740 -0.3659
74174W        W75038   7.951  24.761   7.889  0.1889 -0.2103  0.1270
74175W        W75039   6.894  26.626   4.733  0.0588 -0.0568  0.1047
74176W        W75040   7.045  25.897   4.373 -0.2698  0.3146  0.0169
74177W        W75041   6.886  26.230   7.803 -0.0514  0.4051  0.2400
74178W        W75042  10.678   0.426   6.800 -0.0191 -0.0164  0.0094
74179W        W75043  11.678  27.548   6.035  0.1174 -0.0204 -0.3679
74180W        W75044   9.857  25.438   5.674  0.0920  0.1565 -0.1353
74181W        W75045   5.420  27.576   4.827  0.0992  0.3240  0.1432
74182W        W75046   7.646  26.100   7.274 -0.1002  0.2278  0.2382
74183W        W75047   9.759  26.282   7.613  0.0873  0.0558  0.3232
74184W        W75048   9.004  27.718   5.668  0.0227  0.1727  0.3677
74185W        W75049  11.536  26.952   5.833  0.1357  0.0200 -0.2021
74186W        W75050  10.181  27.786   4.685  0.0904  0.2838  0.1583
74187W        W75051   9.032  28.448   6.625 -0.1305 -0.0654  0.0734
74188W        W75052   9.678  25.796   6.689  0.2561 -0.0378  0.3161
74189W        W75053  10.765  26.339   3.822  0.0568 -0.1400 -0.1480
74190W        W75054  10.931  28.683   5.851 -0.1652  0.1274  0.1788
74191W        W75055  10.717  25.324   6.660  0.0886 -0.2061  0.2201
74192W        W75056  10.567   0.887   6.222 -0.1369  0.1551 -0.1513
74193W        W75057   6.254  25.397   8.486  0.1580 -0.2519 -0.0886
74194W        W75058   8.873  27.802   9.954  0.3379 -0.1824 -0.1037
74195W        W75059   6.685  27.040   6.022 -0.1892  0.1457 -0.2631
74196W        W75060   6.267  27.774   8.253 -0.3579  0.0442  0.1828
74197W        W75061  12.033  27.803   5.381  0.3380  0.1359 -0.0012
74198W        W75062   9.068  26.237   3.521 -0.0980 -0.0206 -0.4245
74199W        W75063  10.236  27.131   4.123  0.0083  0.0817 -0.0252
74200W        W75064  10.735  23.923   6.160  0.1225  0.0537  0.3177
74201W        W75065   9.238   0.915   4.213  0.1903  0.1522 -0.2403
74202W        W75066   8.720  28.393   2.713 -0.0512 -0.1265 -0.1941
74203W        W75067   6.528  26.026   4.199 -0.1977  0.0990 -0.3215
74204W        W75068   7.372  26.718   4.753  0.1398  0.0730 -0.0608
74205W        W75069   9.835  26.512   4.716  0.1938 -0.3381  0.2523
74206W        W75070  10.694  27.497   4.801  0.3091  0.0837 -0.0419
74207W        W75071  11.059  26.837   6.011  0.2147  0.0863  0.2447
74208W        W75072   9.660  26.534   3.659  0.1301 -0.2824  0.0586
74209W        W75073   8.449  28.095   7.809 -0.2701 -0.3774 -0.2120
74210W        W75074   9.119  24.316   7.766  0.2224 -0.0959  0.0262
74211W        W75075  11.245  28.709   6.376 -0.1154 -0.0471  0.0180
74212W        W75076   8.325   0.613   6.052  0.1271 -0.3266 -0.0925
74213W        W75077   8.048  26.478   4.547  0.0830 -0.3281 -0.3148
74214W        W75078   7.545  28.804   5.858 -0.1657  0.0420 -0.0676
74215W        W75079   9.863  27.135   6.167  0.0257 -0.0952  0.3300
74216W        W75080  11.751  25.516   4.463  0.0683  0.1221  0.3767
74217W        W75081   5.514  26.511   5.801  0.4052  0.4047 -0.0685
74218W        W75082   6.681  27.300   5.566 -0.3162 -0.0681 -0.0608
74219W        W75083  13.454  27.581   3.594  0.0534 -0.1410  0.1967
74220W        W75084   9.484  26.270   7.221  0.1854 -0.0304 -0.2307
74221W        W75085   8.656  28.114   6.569 -0.0770  0.0197 -0.1810
74222W        W75086   6.330   1.190   5.587  0.3590  0.0112 -0.3511
74223W        W75087   7.680  27.482   5.345 -0.3214  0.2251  0.2620
74224W        W75088  11.893  24.274   8.477 -0.1796 -0.3913  0.1270
74225W        W75089   5.377  25.273   3.037 -0.1348 -0.0414  0.0206
74226W        W75090   4.435  25.660   4.646  0.0279 -0.0804  0.0299
74227W        W75091   7.420  27.024   2.915 -0.0072 -0.1693  0.1870
74228W        W75092   7.516  28.754   7.098  0.2523  0.2006 -0.0617
74229W        W75093   9.430   1.662   8.558 -0.0469 -0.0232 -0.3427
74230W        W75094   6.590  25.390   4.762 -0.0585  0.0693 -0.0341
74231W        W75095  12.672  27.593   6.735 -0.5022  0.2610 -0.0291
74232W        W75096   8.570  23.260   7.910 -0.0612 -0.0955 -0.3014
74233W        W75097  11.016  28.221   6.156 -0.1376 -0.2985 -0.1046
74234W        W75098   7.307  25.933   3.555 -0.0200  0.0517 -0.0521
74235W        W75099   3.652  26.363   6.527 -0.0989 -0.1228 -0.0037
74236W        W75100   5.774  25.724   3.637 -0.1932 -0.2330 -0.0802
74237W        W75101  11.301  27.182   6.719  0.0819  0.1582  0.1336
74238W        W75102   6.479  27.486   2.028 -0.0137  0.0939 -0.0101
74239W        W75103   9.021  25.511   8.528 -0.2131 -0.0390  0.1338
74240W        W75104   9.127  28.720   7.703 -0.0129 -0.1433 -0.0246
74241W        W75105   4.142  26.081   5.653  0.0396 -0.3165  0.3123
74242W        W75106   9.640  24.637   7.885 -0.1350 -0.2253 -0.1783
74243W        W75107   8.778  27.776   6.154  0.0958 -0.2274 -0.0558
74244W        W75108  10.321  25.808   5.068 -0.0487 -0.5299  0.2133
74245W        W75109  11.793  27.066   6.592 -0.0257 -0.3162  0.2785
74246W        W75110  10.770  26.649   8.170  0.0019  0.1349  0.0089
74247W        W75111  12.663  26.456   5.027 -0.1942 -0.0531 -0.0380
74248W        W75112   8.532  27.837   3.975 -0.0256 -0.0254  0.0235
74249W        W75113  10.437  24.506   5.250  0.0507 -0.0584  0.1384
74250W        W75114  11.153  27.846   4.943  0.0624 -0.0590  0.0232
74251W        W75115   6.010  28.109   5.007 -0.1044 -0.0153 -0.0546
74252W        W75116   8.248  28.752   2.176  0.1493  0.2331 -0.1514
74253W        W75117   7.682  27.338   5.927 -0.1723  0.0080 -0.1552
74254W        W75118  10.305  26.074   3.990 -0.0763 -0.3048 -0.1901
74255W        W75119   9.873  28.500   5.052 -0.1550 -0.1108  0.1048
74256W        W75120   9.997  28.223   7.629 -0.2781 -0.0058  0.4099
74257W        W75121   7.745  27.449   3.674 -0.0419  0.4506 -0.1168
74258W        W75122  10.866  24.813   5.146 -0.2472 -0.1075 -0.0846
74259W        W75123   9.840  28.579   2.242 -0.0293  0.1638 -0.1425
74260W        W75124   7.135  27.260   5.324  0.2422  0.0547  0.0395
74261W        W75125   8.743  24.229   8.067  0.0850  0.2603 -0.0632
74262W        W75126  14.289  26.723   5.961 -0.1252 -0.1274 -0.1703
74263W        W75127  10.218  24.100   5.510 -0.0497  0.2111 -0.1610
74264W        W75128  11.311  26.227   7.270  0.0146  0.0533 -0.4725
74265W        W75129   8.419  27.860   5.759  0.1149  0.0926 -0.2387
74266W        W75130   9.660   0.150   9.747  0.1577  0.1032  0.1755
74267W        W75131   9.434  26.892   6.507 -0.0572 -0.0632 -0.1725
74268W        W75132   5.375  26.825   6.164  0.2650  0.2090  0.1350
74269W        W75133  10.305  25.225   7.830 -0.1615  0.1137 -0.1155
74270W        W75134   8.931  28.952   4.676 -0.1451 -0.0083 -0.0844
74271W        W75135  12.013  26.824   7.043  0.0499  0.0329  0.0295
74272W        W75136  11.863  27.029   4.705 -0.1142  0.0348  0.0997
74273W        W75137  12.192  28.822   3.398 -0.0054 -0.2432 -0.2730
74274W        W75138   8.652  27.895   5.313 -0.0580 -0.2610  0.0510
74275W        W75139  11.143  24.464   7.471  0.0115  0.2582 -0.2639
74276W        W75140  10.287  28.495   7.292 -0.0045 -0.1363 -0.0180
74277W        W75141   9.576  25.833   5.789 -0.0966 -0.1431  0.1530
74278W        W75142   9.692  27.951   5.065  0.3649 -0.0452 -0.1158
74279W        W75143  10.209  26.744   4.540 -0.1666 -0.3671 -0.0066
74280W        W75144   9.442  26.499   4.085 -0.0475  0.0915 -0.3757
74281W        W75145   7.813  27.062   2.513  0.1650 -0.2078 -0.0001
74282W        W75146  11.426  27.424   4.709  0.1541  0.1529 -0.0975
74283W        W75147  10.210  27.845   5.955  0.0007 -0.4461 -0.0795
74284W        W75148   9.352  28.149   4.723  0.1089 -0.1709  0.1258
74285W        W75149   6.113  23.889   3.357  0.0161 -0.1167 -0.1983
74286W        W75150   9.627  28.702   7.066 -0.0980 -0.0221 -0.0250
74287W        W75151  12.748  28.023   4.269  0.4586  0.0303  0.1041
74288W        W75152   6.019  26.890   3.344  0.1300  0.3078  0.1487
74289W        W75153   9.229   1.466   6.704  0.1201 -0.0984 -0.3919
74290W        W75154  10.951  25.558   6.232  0.3138  0.2295  0.1545
74291W        W75155   7.802   0.150   7.321 -0.0254  0.2399  0.1273
74292W        W75156  10.056  26.008   5.593  0.0694 -0.0192  0.2076
74293W        W75157  11.485  27.972   6.298  0.0517 -0.0735  0.2404
74294W        W75158   9.720  27.819   7.873  0.1629  0.3602  0.0343
74295W        W75159  10.585  26.411   1.656 -0.1604  0.2712  0.3465
74296W        W75160  11.335  26.600   5.019  0.2476  0.2214  0.0633
74297W        W75161   8.417   0.347   4.812  0.0083  0.1113 -0.1370
74298W        W75162   6.850  26.789   5.569 -0.1620  0.3697 -0.2691
74299W        W75163   8.972  26.886   2.963  0.2296  0.3142  0.1622
74300W        W75164   9.605  25.346   6.585  0.3257  0.3269  0.3492
74301W        W75165   6.372   0.440   6.832 -0.0045  0.5195 -0.1773
74302W        W75166   4.268  25.700   5.319  0.3089 -0.2653 -0.0220
74303W        W75167   9.570  27.192   9.143 -0.2077 -0.3561  0.0698
74304W        W75168   6.992  25.463   3.546  0.1426  0.0437  0.1564
74305W        W75169  10.737  26.514   6.464  0.0588  0.1835  0.1790
74306W        W75170  10.364  27.267   7.725 -0.0701  0.0835 -0.1594
74307W        W75171  11.320  28.711   5.472  0.1481 -0.1483 -0.1038
74308W        W75172   8.356  27.694   1.788  0.0877  0.2468  0.1023
74309W        W75173  10.706  28.967   6.212 -0.0365 -0.0687  0.1629
74310W        W75174   5.447  26.981   2.669 -0.0457 -0.2589 -0.1263
74311W        W75175   8.338  28.394   5.542  0.0408 -0.0924  0.2192
74312W        W75176   5.716  28.400   1.771  0.3828  0.1859 -0.1551
74313W        W75177   9.847  26.092   6.296 -0.3424 -0.0111  0.1717
74314W        W75178  11.059  22.336   3.875 -0.0870 -0.0447  0.2429
74315W        W75179   6.320  25.766   6.433 -0.0842 -0.2812 -0.2488
74316W        W75180   7.042  27.056   3.321  0.2895  0.0053 -0.2014
74317W        W75181   7.191  23.598   2.362  0.2757 -0.0115  0.1392
74318W        W75182   4.767  26.928   5.434 -0.0440  0.0671  0.4812
74319W        W75183  10.185  27.227   9.909 -0.2848 -0.4765  0.2192
74320W        W75184   9.773  26.323   6.732  0.2234 -0.2201 -0.1531
74321W        W75185  10.742   0.310   8.328 -0.1461 -0.0115  0.0649
74322W        W75186  11.040  27.886   5.454  0.0852 -0.1630 -0.2216
74323W        W75187  10.348  24.943   5.693  0.3605  0.0269  0.2208
74324W        W75188   5.053  26.102   5.974 -0.0302 -0.1139 -0.0242
74325W        W75189   6.398  25.026   7.234  0.0710  0.1276 -0.0627
74326W        W75190   8.104  27.525   6.108 -0.0242 -0.3140 -0.0123
74327W        W75191   9.520   0.095   6.945  0.0782 -0.2789 -0.1919
74328W        W75192   4.345  27.669   6.433  0.0139  0.0250 -0.2211
74329W        W75193  10.318  26.161   4.578 -0.1559  0.0096 -0.1916
74330W        W75194  12.436  27.700   4.490 -0.2245  0.3202 -0.0615
74331W        W75195  10.410  25.634   6.386 -0.0227  0.0731  0.1539
74332W        W75196  11.723  28.782   4.250  0.2194 -0.3834 -0.1361
74333W        W75197  10.309  25.535   4.124  0.0296 -0.0825 -0.0351
74334W        W75198  13.813  25.771   2.861 -0.0216  0.1864  0.0901
74335W        W75199   5.542   2.593   7.132  0.0381 -0.1959 -0.0792
74336W        W75200   6.941  28.217   6.809 -0.1529 -0.0384 -0.0493
74337W        W75201   8.690  28.811   5.827  0.1011 -0.4312 -0.0536
74338W        W75202   6.323  27.922   4.544 -0.0760  0.5729  0.0845
74339W        W75203   7.288  28.163   5.731 -0.0597  0.0274  0.1600
74340W        W75204   7.861  27.688   4.951  0.0560  0.2263  0.0123
74341W        W75205   9.540  28.117   6.397 -0.0503 -0.1516  0.2063
74342W        W75206   6.660  26.458   5.937 -0.5227  0.0206 -0.1737
74343W        W75207   6.159  23.335   3.041  0.3053  0.2021 -0.4249
74344W        W75208  11.119  27.728   5.982 -0.0033 -0.0329  0.1541
74345W        W75209  10.983  24.182   4.030  0.0463 -0.1043  0.0286
74346W        W75210   8.552  24.329   4.220  0.0750  0.4690 -0.1372
74347W        W75211   7.352  27.652   5.726  0.0627 -0.0981  0.0525
74348W        W75212   7.378  27.636   6.413 -0.2728 -0.0997 -0.1260
74349W        W75213   7.940  25.641   3.958 -0.0154  0.0438 -0.2026
74350W        W75214   5.201  28.354   6.596 -0.0193 -0.0275 -0.0117
74351W        W75215   8.672  27.659   6.846  0.1548  0.0329 -0.2732
74352W        W75216  10.815  24.599   6.206 -0.0427  0.2981 -0.2385
74353W        W75217   9.412  26.323   6.372  0.1328 -0.1826  0.2951
74354W        W75218   8.156  25.154   3.230  0.2425 -0.0947  0.1573
74355W        W75219   7.930  25.796   3.377  0.2367 -0.0872  0.0150
74356W        W75220   7.310  26.364   6.467 -0.1212  0.1016  0.0941
74357W        W75221   7.385  29.097   6.736  0.3314 -0.0229  0.1267
74358W        W75222  10.502  25.077   6.228  0.0769 -0.1468 -0.1396
74359W        W75223   7.508  25.463   3.693 -0.0337 -0.1126  0.1023
74360W        W75224  11.581  27.770   5.620 -0.0972  0.0057  0.0142
74361W        W75225   9.173  27.096   4.714 -0.0726 -0.3518  0.3866
74362W        W75226  10.232  24.500   6.760 -0.1365  0.1196  0.3577
74363W        W75227  11.639  26.568   5.446  0.1639 -0.1104  0.0399
74364W        W75228   4.710  27.238   2.159  0.0468  0.0422 -0.2144
74365W        W75229   9.793  27.910   7.285 -0.0930 -0.1670  0.0978
74366W        W75230   7.318  24.961   4.812 -0.3367 -0.0715 -0.1452
74367W        W75231   8.199  27.257   3.436  0.1074  0.1515 -0.0745
74368W        W75232   7.728  27.067   3.324  0.0940  0.1697 -0.1497
74369W        W75233   6.330  27.410   9.058 -0.1709  0.0493  0.1793
74370W        W75234   9.130  25.038   7.159  0.0790  0.3434 -0.2002
74371W        W75235   7.384   0.361   8.276 -0.1191 -0.0233  0.1356
74372W        W75236  12.545  25.702   5.371  0.1096  0.2884  0.3137
74373W        W75237  10.357   0.229   5.447 -0.2123 -0.2067  0.0308
74374W        W75238  11.639   0.010   4.634 -0.0185 -0.2064  0.0407
74375W        W75239   8.995  26.588   4.297  0.1254  0.1355  0.0457
74376W        W75240   9.958   0.394   6.962  0.1830  0.0451  0.1255
74377W        W75241   9.623  26.759   7.232  0.1439  0.0355 -0.0766
74378W        W75242   8.742  28.842   5.274  0.1938 -0.3012  0.0925
74379W        W75243   9.523  24.503   9.565  0.1292  0.2687  0.1002
74380W        W75244   9.314   0.434   5.815 -0.1716 -0.2966  0.2552
74381W        W75245   8.377  29.047   6.946 -0.1509 -0.2647 -0.1715
74382W        W75246   8.830  22.770   3.374  0.0750 -0.2322 -0.0253
74383W        W75247  12.463  27.802   3.910 -0.1470 -0.3321 -0.0240
74384W        W75248   6.601  26.835   5.079  0.0302  0.2377 -0.3700
74385W        W75249   9.359  27.720   6.055  0.0497  0.2285  0.2308
74386W        W75250  10.420  24.907   6.683 -0.0626 -0.1214  0.2133
74387W        W75251   6.685   2.123   3.637 -0.0701  0.0522  0.0050
74388W        W75252  13.168  27.630   5.025  0.0209 -0.0039  0.1640
74389W        W75253   8.523  24.633   5.375  0.0895  0.1322  0.4345
74390W        W75254   7.668  28.197   8.326 -0.1845  0.4235 -0.0347
74391W        W75255   7.624  28.401   5.061 -0.0205  0.1572 -0.3176
74392W        W75256   8.436  26.452   4.946  0.2730 -0.0940 -0.2582
74393W        W75257   9.577  27.226   7.070  0.2851 -0.0355  0.3088
74394W        W75258   8.065  28.140   5.198  0.1342 -0.3185 -0.3365
74395W        W75259   9.700  27.846   6.806  0.2083  0.1766  0.0005
74396W        W75260   9.672  24.932   5.639 -0.0861  0.0771  0.2121
74397W        W75261  12.515  27.022   7.962  0.1139 -0.2341 -0.0615
74398W        W75262   9.245  27.021   8.262  0.3123  0.1173 -0.1444
74399W        W75263   9.357  27.378   3.651  0.1078 -0.1985 -0.4388
74400W        W75264   8.669   1.467   8.003  0.1134 -0.3199  0.0464
74401W        W75265   7.613  27.801   7.430 -0.0483  0.2110 -0.0371
74402W        W75266   8.067  26.167   5.237 -0.1676 -0.0532 -0.0420
74403W        W75267   6.973  27.180   8.393 -0.2994  0.0233  0.0794
74404W        W75268   7.881  26.925   4.681 -0.0135  0.2222 -0.0783
74405W        W75269  11.243  28.169   7.349  0.2530  0.0232  0.1190
74406W        W75270   7.482  29.013   7.492 -0.1464  0.2459  0.1750
74407W        W75271  10.896  28.408   5.356 -0.1467  0.1041  0.0015
74408W        W75272   5.873  25.979   5.881  0.0871  0.0308 -0.0385
74409W        W75273   7.980  26.631   5.070  0.1782 -0.3694  0.0884
74410W        W75274   7.091   1.178   6.605 -0.1123 -0.0241 -0.0665
74411W        W75275  12.293   0.222   6.262  0.3444  0.1694  0.1129
74412W        W75276   7.530  27.249   4.887 -0.0333  0.0203  0.1737
74413W        W75277   5.626  28.864   5.095 -0.2278 -0.1731 -0.0936
74414W        W75278   9.773  27.066   4.435  0.0554 -0.2191  0.0800
74415W        W75279  13.681  23.612   4.202 -0.2853  0.0904  0.0953
74416W        W75280   9.263  26.917   5.230  0.1361  0.1162 -0.0701
74417W        W75281  11.487  28.883   5.886 -0.2153 -0.0541  0.2349
74418W        W75282  13.052  26.758   5.027 -0.1340  0.3229  0.0008
74419W        W75283   6.950  27.153   4.148  0.0565  0.1691 -0.0961
74420W        W75284  10.632  27.913   7.600  0.1318  0.0302 -0.0598
74421W        W75285   9.523  28.319   7.848 -0.1248 -0.0708 -0.3624
74422W        W75286   9.902  26.028   7.127  0.2777  0.1403  0.0694
74423W        W75287   7.819  28.441   6.214 -0.0365 -0.1188  0.0339
74424W        W75288   4.564  27.169   6.340  0.1477 -0.1205 -0.0834
74425W        W75289   6.093  25.547   4.533 -0.2236  0.0819 -0.0075
74426W        W75290   9.473  29.126   5.881  0.0219  0.0373 -0.0687
74427W        W75291   6.705  27.695  10.005 -0.0516 -0.0225 -0.2078
74428W        W75292  10.893  24.453   3.569  0.0603  0.1442  0.1553
74429W        W75293   6.873  27.372   3.660  0.0394  0.0027  0.1857
74430W        W75294   7.622  28.048   9.916  0.2824  0.1806 -0.1986
74431W        W75295   8.277  27.540   5.258 -0.3069 -0.0277 -0.1844
74432W        W75296   8.095  27.476   4.122  0.2097 -0.1875  0.1934
74433W        W75297   9.933  28.332   6.853  0.0888  0.0664 -0.4366
74434W        W75298   8.882  24.227   7.316 -0.0612 -0.1552 -0.0795
74435W        W75299   7.253  25.534   7.192 -0.0521  0.0266 -0.3068
74436W        W75300   9.135  26.015   5.531  0.1030 -0.1303  0.0144
74437W        W75301   7.767  24.875   4.211  0.1166 -0.4363 -0.3793
74438W        W75302   7.300  26.348   6.968 -0.2349 -0.0785 -0.1385
74439W        W75303   8.739   0.373   7.987  0.0584 -0.3097 -0.0717
74440W        W75304   8.300  26.841   5.342  0.0666  0.2575  0.0479
74441W        W75305   7.014  26.799   3.794 -0.1818  0.2391  0.1137
74442W        W75306   6.898  27.730   5.609 -0.0737  0.0081  0.3178
74443W        W75307  11.432  25.808   5.483  0.1107 -0.0250 -0.1314
74444W        W75308  10.070  26.019   7.932  0.1940  0.1574 -0.0976
74445W        W75309   8.846  28.345   5.444 -0.4534 -0.0693 -0.0360
74446W        W75310   4.931  25.565   9.004  0.1862  0.1180  0.1398
74447W        W75311  12.149  25.303   5.359 -0.0684 -0.1756  0.1470
74448W        W75312  13.935  27.843   5.253 -0.1355 -0.1955  0.2325
74449W        W75313   8.711  26.576   3.337 -0.0466  0.3502 -0.3003
74450W        W75314  10.440  27.302   2.935  0.2310  0.0770  0.0667
74451W        W75315  11.198  24.617   5.907  0.1916  0.2337  0.0009
74452W        W75316   9.849  24.608   5.115 -0.0525 -0.0383 -0.0045
74453W        W75317   4.741  26.040   4.697 -0.1777 -0.1377 -0.0181
74454W        W75318   9.789  26.934   5.684 -0.0413  0.1691 -0.2118
74455W        W75319   7.430  26.349   7.642 -0.0967 -0.0759 -0.0250
74456W        W75320  12.549  25.484   7.144 -0.2279  0.2383  0.2102
74457W        W75321  10.830  26.990   6.501 -0.2422 -0.2914  0.0353
74458W        W75322   6.659  26.537   4.339  0.1565 -0.1532 -0.2268
74459W        W75323   8.594  26.158   5.460 -0.1620  0.0956 -0.0120
74460W        W75324   8.399  25.905   6.502 -0.1253 -0.2836  0.0857
74461W        W75325  10.383  25.053   8.424  0.1261 -0.1046 -0.1166
74462W        W75326   8.539  28.360   5.017  0.3347 -0.0972  0.1012
74463W        W75327  10.635  27.269   3.896 -0.2717 -0.0369  0.0902
74464W        W75328   8.873   0.759   6.762 -0.2725  0.1067  0.2822
74465W        W75329   9.884  26.803   6.737  0.2906 -0.0416 -0.1682
74466W        W75330   7.988  26.078   4.232 -0.1439  0.0565  0.0548
74467W        W75331   9.958  23.430   4.583  0.0033 -0.2221  0.4047
74468W        W75332   5.533  28.704   3.707  0.1261 -0.1286  0.0974
74469W        W75333   9.270  26.945   3.384  0.1994 -0.0368  0.1045
74470W        W75334   8.942  26.273   7.800 -0.2871 -0.0119 -0.0293
74471W        W75335   8.547  25.124   5.588 -0.3487 -0.1297 -0.1046
74472W        W75336   9.571   0.448   6.615  0.1161  0.0179  0.1768
74473W        W75337   7.137  27.700   5.145  0.0094  0.1387 -0.2827
74474W        W75338   7.955  26.810   6.588  0.2445  0.0628 -0.1883
74475W        W75339   7.442  27.016   1.996  0.0981  0.2239 -0.0740
74476W        W75340   7.754  27.664   6.965 -0.1333 -0.3168 -0.0646
74477W        W75341  12.072  26.740   5.611  0.0985 -0.3678 -0.2254
74478W        W75342   6.731  26.446   7.003  0.2234  0.2151 -0.0083
74479W        W75343   5.822  26.817   6.314  0.2326  0.0486  0.2651
74480W        W75344  10.846  27.834   3.975  0.2962  0.1590 -0.0935
74481W        W75345   6.506  28.205   9.092 -0.0148  0.2548 -0.0639
74482W        W75346   8.259  28.202   6.060 -0.1632 -0.1192 -0.1090
74483W        W75347   5.414  29.011   2.346  0.2224 -0.1765 -0.0493
74484W        W75348   8.088  27.847   4.503  0.3010 -0.0726 -0.0382
74485W        W75349   3.624  24.598   7.801  0.0152 -0.2096 -0.2884
74486W        W75350   4.651  26.009   5.611 -0.1020  0.0191 -0.2891
74487W        W75351   7.833  25.475   4.781 -0.1718  0.3195 -0.0603
74488W        W75352   5.695  25.919   5.149 -0.1355 -0.1707 -0.2399
74489W        W75353   6.969  27.409   1.792  0.0613 -0.0350 -0.0925
74490W        W75354   9.817  24.837   3.970 -0.2035  0.1127  0.2409
74491W        W75355  12.231  27.394   4.131  0.4079  0.1240 -0.1199
74492W        W75356   9.894  27.371   7.883 -0.3055 -0.3258 -0.3665
74493W        W75357  10.641  28.739   8.899 -0.1387  0.1888 -0.3086
74494W        W75358  10.584  28.893   7.116  0.0076 -0.2648 -0.0266
74495W        W75359   8.163   0.270   5.495 -0.1605  0.0808  0.2312
74496W        W75360  11.363  28.221   5.793  0.1201  0.0420 -0.0121
74497W        W75361   8.503  27.379   6.420 -0.1282 -0.1838  0.1602
74498W        W75362   9.437  26.171   2.648 -0.2001  0.1935  0.0683
74499W        W75363   6.952   1.025   4.598  0.0442 -0.0878 -0.0329
74500W        W75364   8.658  25.135   6.056  0.2932 -0.0487 -0.3341
74501W        W75365   8.409  25.580   4.580  0.0236  0.0243 -0.1397
74502W        W75366   6.714   1.514   4.310 -0.1685  0.2039  0.0745
74503W        W75367   9.566  27.491   4.185  0.1487  0.0291 -0.0020
74504W        W75368   9.458   0.251   5.383  0.0353 -0.1545  0.0611
74505W        W75369   3.720  28.088   4.560 -0.0468 -0.0472 -0.0748
74506W        W75370   8.004  24.502   6.534  0.0326  0.1648  0.2270
74507W        W75371   7.443  25.719   4.675 -0.2570  0.3240  0.0127
74508W        W75372   5.197  25.740   3.928 -0.1515 -0.0230  0.2640
74509W        W75373   8.962  26.201   7.273 -0.3867 -0.2721  0.1120
74510W        W75374  11.026  26.691   4.194 -0.1504 -0.0001  0.0286
74511W        W75375  10.907  26.398   8.629 -0.1346  0.1416 -0.1587
74512W        W75376   8.471  28.129   4.438  0.1364 -0.2865  0.2983
74513W        W75377   8.145  26.993   6.191  0.2979  0.0559  0.1753
74514W        W75378   9.942  27.016   4.966 -0.0255 -0.0032  0.0623
74515W        W75379   7.086  28.448   8.456 -0.2543  0.1856 -0.0734
74516W        W75380   9.439  24.917   6.181 -0.3935  0.2802 -0.2207
74517W        W75381   5.744  25.846   9.072 -0.1555  0.1644 -0.2828
74518W        W75382   5.103  26.122   4.282 -0.0739  0.0958  0.3576
74519W        W75383   8.993  25.331   1.799  0.1476  0.0625 -0.4086
74520W        W75384   7.815  25.914   6.445 -0.1900 -0.0289 -0.0246
74521W        W75385   7.378  27.365   6.856 -0.2578 -0.3461 -0.2737
74522W        W75386  11.022  25.045   6.078 -0.3161 -0.0438 -0.0283
74523W        W75387   9.111   1.071   5.260 -0.0614  0.1243 -0.1338
74524W        W75388  10.412  28.864   7.607  0.0031  0.0674 -0.0700
74525W        W75389  10.029  28.418   6.093 -0.0868  0.0390  0.0033
74526W        W75390   8.464  28.703   4.617  0.0310 -0.2582  0.0301
74527W        W75391  12.226  25.658   2.996 -0.0526  0.0951 -0.1755
74528W        W75392   9.519  28.201   3.417  0.0774  0.0393 -0.1186
74529W        W75393   6.592  26.241   3.365 -0.1396  0.1270 -0.1569
74530W        W75394  12.025  25.107   4.317 -0.0877 -0.0773  0.2178
74531W        W75395   8.328  28.185   2.947  0.0092 -0.0215  0.2382
74532W        W75396  10.695  25.371   7.455  0.0848  0.1203  0.0004
74533W        W75397   7.334  27.689   4.454  0.1627  0.1497 -0.0017
74534W        W75398  12.263  26.784   6.320  0.1094 -0.1384 -0.2020
74535W        W75399   7.862  26.862   5.636  0.0125  0.1089  0.1212
74536W        W75400  11.283  28.251   6.646  0.2542 -0.0784 -0.2624
74537W        W75401   6.500  25.952   2.878 -0.1390  0.4431 -0.0539
74538W        W75402   6.744  26.233   4.997 -0.3557  0.0131 -0.0885
74539W        W75403   9.023  27.367   8.609 -0.1079  0.0980 -0.0195
74540W        W75404   6.255   1.817   4.508  0.2856  0.1979  0.0645
74541W        W75405   8.502  26.496   4.340  0.1701 -0.0154  0.0691
74542W        W75406  11.028  28.392   4.870 -0.1972  0.3318  0.2955
74543W        W75407   8.081  27.781   7.719 -0.1676  0.1369  0.2757
74544W        W75408   8.278  26.774   3.556 -0.1607  0.0825  0.0174
74545W        W75409  10.678  28.855   5.325  0.1963  0.0703  0.1996
74546W        W75410   9.510  27.380   6.508 -0.3378  0.0018  0.0925
74547W        W75411   9.644  28.646   6.567 -0.0372 -0.5112 -0.0378
74548W        W75412  10.617  28.091   4.408  0.0375 -0.2101 -0.3213
74549W        W75413  10.267  28.678   8.527 -0.0536 -0.1145 -0.0283
74550W        W75414   5.034  27.826   4.856  0.0659 -0.2389  0.1570
74551W        W75415   8.648  27.205   5.435  0.0763 -0.3977 -0.0711
74552W        W75416  10.776  27.798   8.928 -0.0516 -0.1203 -0.2307
74553W        W75417   6.410  26.807   6.398  0.1509 -0.1469  0.0570
74554W        W75418  11.045  25.522   2.904  0.1235  0.4430 -0.0202
74555W        W75419   7.648   0.423   6.747 -0.2266 -0.1517  0.0043
74556W        W75420  10.725  27.022   7.239  0.1469  0.1060 -0.0715
74557W        W75421   8.150   0.963   7.455 -0.0450  0.1246  0.2153
74558W        W75422   5.315  26.439   3.079  0.1305  0.2275  0.2496
74559W        W75423   7.202   0.670  10.805  0.2216 -0.2681 -0.1467
74560W        W75424   7.911  27.090   8.034 -0.1146 -0.0144  0.0624
74561W        W75425  10.796  27.236   8.240 -0.0399  0.0239 -0.0706
74562W        W75426  10.429   2.375   8.922  0.0461  0.2981  0.0632
74563W        W75427   8.339  29.067   7.464  0.0281  0.0431  0.0391
74564W        W75428   6.900  26.780  10.315  0.1995 -0.0102 -0.1949
74565W        W75429   7.001  27.544   7.147 -0.2807 -0.1408  0.1879
74566W        W75430   7.174  28.564   8.915 -0.4047  0.1799 -0.0824
74567W        W75431   7.683  26.286   9.134  0.2965 -0.1231 -0.1137
74568W        W75432   7.917  26.467  12.511 -0.2696  0.1161 -0.1087
74569W        W75433   7.111  23.746  10.924 -0.0507 -0.0889 -0.4859
74570W        W75434   9.405  25.752  11.633  0.0612  0.2370  0.1610
74571W        W75435   9.301  27.190   6.151  0.0589 -0.1270  0.0607
74572W        W75436   9.230  25.231  14.197  0.1156 -0.3356 -0.2792
74573W        W75437   8.894  25.144  11.706 -0.0992  0.1786  0.0756
74574W        W75438   6.677  27.861  12.749  0.0577  0.2025 -0.0238
74575W        W75439  10.142  28.547   7.966  0.1231  0.1623  0.0627
74576W        W75440   5.365  26.890  10.606 -0.0590 -0.2266 -0.0890
74577W        W75441   9.693  25.761   8.962 -0.2176  0.0674 -0.0520
74578W        W75442   9.109  27.100   9.445 -0.1292  0.0431  0.1166
74579W        W75443  10.775  27.025   8.959 -0.0772  0.1219 -0.2771
74580W        W75444   9.217  24.810   7.615 -0.2637 -0.0405  0.0663
74581W        W75445   9.465   0.911   9.088  0.4969  0.0611  0.2125
74582W        W75446   5.685   1.647   7.278  0.3025  0.0509  0.1946
74583W        W75447   7.685  25.533   8.686  0.1640 -0.0697  0.0431
74584W        W75448   5.613  25.688  11.228  0.0034 -0.2801 -0.0886
74585W        W75449  12.499  25.648  11.270 -0.3857 -0.2703 -0.0457
74586W        W75450   8.121   0.381   7.065 -0.0263 -0.1921  0.2360
74587W        W75451  10.151  27.505   9.422 -0.1467 -0.3308 -0.0836
74588W        W75452   6.056  28.327  11.561  0.1287  0.2730 -0.1281
74589W        W75453  10.079  26.586   7.147  0.1782  0.2986  0.0905
74590W        W75454  10.414  28.020  11.050  0.1078  0.1655  0.1554
74591W        W75455  11.451  25.521  11.049 -0.0039 -0.0667  0.0579
74592W        W75456   9.441  26.692  10.290  0.0628 -0.2839 -0.0454
74593W        W75457   7.913  26.153  11.055 -0.0489  0.0340  0.2342
74594W        W75458  10.175  26.738  12.274  0.0609 -0.2454 -0.1613
74595W        W75459   7.194  27.433   8.822 -0.2448  0.1432 -0.0216
74596W        W75460   8.091  28.681  10.478 -0.0436 -0.1432  0.0972
74597W        W75461  10.007  25.813   9.453 -0.2566  0.3305 -0.1006
74598W        W75462  10.330  26.243   9.753  0.3330 -0.3727 -0.0708
74599W        W75463   9.911  26.484   8.058  0.0235 -0.0001  0.0916
74600W        W75464  12.312  24.486   9.228  0.0871 -0.1096  0.1138
74601W        W75465   9.763  27.778   9.171 -0.0620 -0.2933 -0.4285
74602W        W75466  10.437  27.832   6.744  0.1383 -0.1944 -0.0603
74603W        W75467   6.469  29.033   8.516 -0.0345 -0.1233 -0.0953
74604W        W75468   8.196  27.714   7.241  0.1780  0.1818 -0.4202
74605W        W75469   9.174  25.590   9.816 -0.2425  0.2264  0.4510
74606W        W75470   9.965  27.155  10.366 -0.3849 -0.1220  0.0742
74607W        W75471  12.026  24.748   7.630  0.0813  0.0534 -0.0139
74608W        W75472  11.299  24.501   6.379 -0.1061 -0.2479 -0.0136
74609W        W75473   8.112  28.179  10.644  0.0916  0.3050  0.1063
74610W        W75474   8.355  25.628   7.063 -0.0158 -0.0176  0.0607
74611W        W75475   9.741  27.455  10.727 -0.1506 -0.2677  0.0872
74612W        W75476  10.050  26.704   7.655  0.0829 -0.2505 -0.0655
74613W        W75477   6.709  25.280  10.962 -0.1127 -0.0453 -0.0358
74614W        W75478   9.689   0.182  10.291 -0.1723 -0.3154 -0.1871
74615W        W75479   7.457  27.595  10.212  0.0327 -0.0905  0.0270
74616W        W75480   9.759  26.783   9.017 -0.2300  0.3169 -0.6254
74617W        W75481   8.276   2.451   7.909  0.0679 -0.0778 -0.1794
74618W        W75482   6.696  28.032   3.672 -0.0958 -0.1342 -0.2029
74619W        W75483  11.801  26.594   6.631 -0.2565 -0.0128 -0.0938
74620W        W75484   9.103  26.321  11.341  0.1586  0.1048 -0.1782
74621W        W75485   7.595  26.618   8.558 -0.3830 -0.0094 -0.0919
74622W        W75486   7.131  27.865   9.945 -0.0303 -0.1361 -0.0097
74623W        W75487   7.621  25.315  10.114 -0.1601 -0.0547 -0.1798
74624W        W75488   8.516  24.546  12.519 -0.1843 -0.0023  0.2389
74625W        W75489   7.687  28.041   7.853 -0.2253 -0.1229 -0.2652
74626W        W75490   9.780  27.498   4.709  0.0679  0.0303 -0.1409
74627W        W75491   8.796  26.687   9.122 -0.3157  0.2771  0.1485
74628W        W75492   5.754  26.734   7.695  0.3524 -0.0900  0.1247
74629W        W75493  11.416  25.744  10.604  0.1378 -0.1945  0.0555
74630W        W75494   7.801  27.397   9.925 -0.1124 -0.3083 -0.3592
74631W        W75495  12.585   0.217   7.552 -0.0653 -0.2895  0.1183
74632W        W75496   7.359  27.246   9.237 -0.1067  0.1068 -0.0104
74633W        W75497  10.764  25.906  10.049  0.0837  0.0033 -0.1396
74634W        W75498   9.532  27.174  13.292 -0.0368  0.2339 -0.1113
74635W        W75499   8.717  27.316   9.638 -0.1673 -0.1231 -0.2593
74636W        W75500   8.845  26.229   9.266  0.0629  0.1262 -0.2158
74637W        W75501   9.535  27.510   7.462 -0.4777  0.0352  0.0183
74638W        W75502   9.326  27.186  10.557 -0.4474  0.1172  0.1097
74639W        W75503   6.361  25.476  12.592 -0.0230  0.2661 -0.0470
74640W        W75504   7.744  26.520  10.569  0.1457 -0.4577  0.0661
74641W        W75505   8.446  26.912  10.880 -0.4103 -0.2468 -0.1099
74642W        W75506   9.574  26.138   8.066 -0.0113 -0.3281 -0.0060
74643W        W75507   8.970  24.659  12.641 -0.1451  0.0494  0.1707
74644W        W75508   8.392  24.093   7.788  0.2798  0.1057 -0.1230
74645W        W75509  10.009  28.081   9.600 -0.0770  0.0483  0.2113
74646W        W75510  10.728  26.824  11.332 -0.0514 -0.0991 -0.2250
74647W        W75511  10.069  27.055  10.853  0.0964  0.1608  0.0882
74648W        W75512   9.090  23.729  10.303 -0.2072 -0.3255  0.0151
74649W        W75513   8.239  25.822   9.500 -0.0240  0.0593  0.1625
74650W        W75514   9.151  24.017  11.225  0.1527 -0.2120 -0.1063
74651W        W75515   8.776  28.901   9.460 -0.0024  0.0624  0.1790
74652W        W75516  10.076  24.737   8.710  0.3864 -0.0606 -0.0424
74653W        W75517   9.465  26.123  10.210  0.0173 -0.1891  0.1511
74654W        W75518   9.166  26.105   9.654  0.1897  0.3158 -0.4317
74655W        W75519   9.971  25.575   8.144  0.0928  0.1800  0.0728
74656W        W75520   8.358   0.835  10.377  0.0525  0.0595  0.1371
74657W        W75521   7.599  22.818   2.535  0.1645  0.0787  0.3232
74658W        W75522  10.177  24.719   7.745  0.1280 -0.0119 -0.0254
74659W        W75523  13.568  27.219   5.661  0.1291  0.0941  0.0837
74660W        W75524   8.137  28.140   9.631  0.3888 -0.0141 -0.1360
74661W        W75525  10.049  27.047   7.337  0.1423  0.0133 -0.0591
74662W        W75526  11.800  28.431   8.138 -0.1174 -0.1027  0.1248
74663W        W75527   8.573  25.016   9.056 -0.0140  0.4241 -0.2662
74664W        W75528   8.947  26.583   9.626  0.1085 -0.0687 -0.2307
74665W        W75529  10.657  27.429   9.289  0.0785 -0.1166 -0.0928
74666W        W75530  10.150  26.186  11.027  0.2186  0.1983  0.0671
74667W        W75531   8.264  26.355   9.225 -0.2502 -0.2794  0.3049
74668W        W75532   4.443  24.578  10.004  0.3011  0.0844  0.0389
74669W        W75533   6.960  27.386   9.646 -0.0712 -0.1613 -0.0436
74670W        W75534  10.583  28.341   8.238  0.1034  0.1145  0.0193
74671W        W75535  10.556  27.329   6.785 -0.0735  0.0672  0.0922
74672W        W75536   8.664  28.192  11.123  0.0377  0.1450  0.0952
74673W        W75537  12.190  27.508   8.849  0.0427 -0.3138  0.2522
74674W        W75538   5.136  24.986  11.417  0.1765 -0.1190 -0.0281
74675W        W75539  11.105  27.393   8.996 -0.2364 -0.2764 -0.0839
74676W        W75540   8.792   1.315   9.358 -0.3990  0.2841  0.2966
74677W        W75541   8.285  28.551  11.069 -0.1582 -0.1103 -0.2518
74678W        W75542   9.238  27.765   8.341  0.1598 -0.0292  0.0937
74679W        W75543  10.250  23.508   5.880  0.1649  0.2024 -0.1418
74680W        W75544   9.995  27.896  10.442  0.3071  0.1940  0.0613
74681W        W75545  10.078  28.331  10.819 -0.0097  0.1176 -0.0462
74682W        W75546  11.561  28.383   8.626  0.4632  0.0982 -0.1902
74683W        W75547   9.768   1.117  10.151 -0.0410 -0.0841  0.0942
74684W        W75548   9.726  25.348   9.323  0.0865  0.2828  0.0445
74685W        W75549   7.642  24.817  11.025 -0.0743  0.1593  0.0878
74686W        W75550   9.340  28.439  10.117  0.0021 -0.2242 -0.2738
74687W        W75551  12.413  28.189  10.121  0.2666 -0.2456  0.1410
74688W        W75552   8.775   2.324   7.644 -0.3119 -0.2054 -0.4117
74689W        W75553   9.658  28.573  11.048 -0.0097  0.0155 -0.1337
74690W        W75554  10.190  25.342   9.595  0.1323 -0.0420 -0.4280
74691W        W75555   9.429  26.615  12.514  0.1141 -0.2946 -0.1454
74692W        W75556   9.346  25.355   8.907 -0.1075 -0.2906  0.0792
74693W        W75557   9.530  28.049   9.516  0.1098  0.1747  0.1799
74694W        W75558   5.883  26.934  11.649 -0.0739  0.1045 -0.2100
74695W        W75559   6.364  28.882   9.542  0.2964  0.0792 -0.0990
74696W        W75560   8.528  28.126   9.976 -0.0005 -0.0143 -0.0965
74697W        W75561   9.486  26.747   9.443  0.0839  0.0264  0.1474
74698W        W75562   9.396  29.094   7.423 -0.2658  0.1979  0.2035
74699W        W75563   5.154  27.258   6.013  0.0560  0.2456 -0.1012
74700W        W75564   8.423  22.889  10.740  0.0875 -0.1305  0.1535
74701W        W75565   9.406  28.281   7.391 -0.1434  0.1901 -0.0919
74702W        W75566   8.387  25.971   7.871  0.0795  0.0754 -0.0042
74703W        W75567   9.759  28.182  10.012 -0.0235  0.0227  0.0768
74704W        W75568   6.666  28.159   8.403 -0.2343  0.4277  0.2212
74705W        W75569  10.774  24.846   8.666 -0.2665  0.3667 -0.0124
74706W        W75570  10.208  28.494   9.716  0.0902  0.1095 -0.2893
74707W        W75571  10.212  27.193   9.043  0.0171 -0.0353 -0.0388
74708W        W75572   8.357  26.884   9.412 -0.0091  0.3170 -0.0951
74709W        W75573  10.853  28.070   6.636 -0.0518  0.2935 -0.1110
74710W        W75574   7.311  25.626  10.510  0.2168  0.0636  0.0279
74711W        W75575   6.971  28.172   9.345 -0.0343  0.0017 -0.0583
74712W        W75576   8.113  25.387   8.859 -0.0958 -0.0673  0.0003
74713W        W75577   5.668  23.747  10.078  0.2436 -0.1389 -0.0973
74714W        W75578   8.440  25.142  11.531  0.0998 -0.0473  0.1604
74715W        W75579   8.747  26.445  10.953 -0.1890 -0.1252  0.1885
74716W        W75580   8.627  28.589   8.581 -0.3544  0.1271 -0.0830
74717W        W75581   8.180  23.754   8.680 -0.2403 -0.1710  0.1947
74718W        W75582   8.572  24.298   6.868 -0.3501  0.1035 -0.0832
74719W        W75583   9.913  26.591   9.738  0.2832  0.0549 -0.1569
74720W        W75584   9.022   0.517  10.967  0.1562 -0.1514 -0.1607
74721W        W75585   9.709  28.955  10.653 -0.4642 -0.0263 -0.0567
74722W        W75586   7.609  26.517  12.029  0.0944 -0.1436 -0.0467
74723W        W75587  10.743  23.739   9.584 -0.2269  0.1569 -0.0308
74724W        W75588   6.800  27.746   9.107  0.5198  0.2037  0.0968
74725W        W75589   7.644  24.753   8.451 -0.2451 -0.0527 -0.1283
74726W        W75590   7.803   1.267   7.947  0.2659 -0.1364 -0.1456
74727W        W75591   7.868  27.760  10.395 -0.0692 -0.0045  0.0536
74728W        W75592   7.006  28.093   8.823  0.0730 -0.2467  0.4602
74729W        W75593   9.771  26.460  12.148 -0.4247  0.1136 -0.0162
74730W        W75594   8.300  27.138  10.395  0.2527 -0.1277  0.0388
74731W        W75595   7.681  26.255  10.157 -0.0129  0.2795  0.0538
74732W        W75596   8.580  27.205   7.312 -0.2633  0.3331  0.0054
74733W        W75597   7.044  25.286   9.258 -0.3061  0.1321  0.1292
74734W        W75598   9.894  24.912  10.315 -0.0630  0.1133 -0.1431
74735W        W75599   8.910   0.862   8.912  0.2457  0.0126 -0.0353
74736W        W75600   7.812  27.774   9.434  0.0370  0.1133  0.2248
74737W        W75601   9.065  27.425   7.570  0.0265  0.1262  0.1434
74738W        W75602   7.746  25.748  11.790  0.0280  0.1347  0.0496
74739W        W75603  11.371  27.944   8.323  0.0050  0.4130  0.2267
74740W        W75604   9.750  28.862   9.433  0.3825  0.1332 -0.0652
74741W        W75605   7.276  27.879   6.876 -0.0457  0.1608 -0.0876
74742W        W75606   6.444  25.500   7.390  0.3856  0.4118  0.1644
74743W        W75607  11.124  27.514   8.490  0.0180  0.0372 -0.0490
74744W        W75608   9.326  26.912  14.013  0.3260 -0.2806 -0.2575
74745W        W75609   8.114  25.926   7.442 -0.0795 -0.1740 -0.0814
74746W        W75610   4.953  24.080   5.424  0.3684 -0.1085 -0.2467
74747W        W75611  10.845  27.234  11.573  0.3195  0.0855 -0.2234
74748W        W75612  10.566  25.749   9.431  0.1214  0.1319  0.0333
74749W        W75613   8.523  26.635   8.047 -0.0927 -0.0671  0.0055
74750W        W75614   8.351   0.611   8.163 -0.0050  0.0431  0.2044
74751W        W75615   5.825  28.281   9.019  0.0180  0.0338  0.2127
74752W        W75616   8.080  26.631  11.751  0.0730  0.0844 -0.1506
74753W        W75617   7.612  26.105   8.583 -0.2829  0.1663  0.1799
74754W        W75618   6.488  24.049   9.893 -0.1053  0.0008  0.1784
74755W        W75619  10.335  26.923  12.834 -0.0295  0.1072 -0.1046
74756W        W75620   9.550  21.625   7.345 -0.1290  0.2435  0.0896
74757W        W75621   6.101  24.044  10.305 -0.0938  0.0018  0.3533
74758W        W75622  10.280  24.374   9.024  0.0170  0.1512  0.1418
74759W        W75623   7.109  25.886   8.531  0.1401 -0.2936 -0.0200
74760W        W75624  10.470  26.930  10.334  0.1921  0.0403 -0.1934
74761W        W75625   8.239  23.258   9.539  0.1578  0.1311  0.1235
74762W        W75626   8.688  25.466  10.734  0.2553 -0.0007  0.1039
74763W        W75627  10.333  27.301  12.466  0.4725  0.2929 -0.0927
74764W        W75628   6.901  27.737   8.526  0.1817 -0.1518  0.2720
74765W        W75629   8.766   1.726   9.078 -0.3651  0.2044 -0.0403
74766W        W75630   8.840  25.443   8.992 -0.0709 -0.1508  0.2689
74767W        W75631   8.499   1.049   6.388 -0.0065 -0.2100 -0.2444
74768W        W75632   6.372   0.838   7.139  0.5751  0.0592  0.3077
74769W        W75633  10.227  25.671  11.231  0.1141 -0.0799  0.1531
74770W        W75634   8.535  26.418  11.802 -0.0274 -0.1903 -0.1657
74771W        W75635   8.852  28.238   9.133  0.2389 -0.0513  0.1682
74772W        W75636   8.179  23.274  11.073  0.0655  0.2124  0.1432
74773W        W75637  10.985  28.221  10.917  0.1769  0.2569  0.0981
74774W        W75638  13.099  24.645   6.084  0.0966  0.0167 -0.0766
74775W        W75639  11.526  27.450   8.173 -0.1123 -0.0126  0.1429
74776W        W75640   9.120  27.770   9.425 -0.2121 -0.1016 -0.1409
74777W        W75641  11.226  28.541  13.623 -0.1402 -0.0984  0.1437
74778W        W75642   8.675  28.946  11.231  0.1251 -0.2610 -0.0840
74779W        W75643  12.578  25.822   6.721  0.1095  0.2157  0.1532
74780W        W75644   8.041  25.978   6.935  0.0877  0.0230  0.0712
74781W        W75645   6.855  28.421  10.845 -0.2398  0.3759 -0.1243
74782W        W75646   9.093  23.715   7.236 -0.2254 -0.0705 -0.3373
74783W        W75647  11.110   0.165   6.155 -0.1183  0.1792 -0.1526
74784W        W75648   6.728  23.883  12.266 -0.2768 -0.1734 -0.2383
74785W        W75649  11.391  27.202   9.824 -0.1767 -0.2297 -0.1975
74786W        W75650  10.673  24.904   7.615 -0.0378  0.2407 -0.2306
74787W        W75651  11.757  27.743   8.751  0.0085 -0.1980  0.1063
74788W        W75652   9.373  26.695   6.067 -0.2046  0.0348  0.0081
74789W        W75653   7.469  26.056  12.759 -0.2287  0.2100  0.1129
74790W        W75654   8.041  25.801  11.416 -0.3307  0.0644 -0.0167
74791W        W75655  10.696  27.025   5.566  0.0436 -0.0830  0.0473
74792W        W75656  11.907   0.636   7.937 -0.1884 -0.1081  0.2014
74793W        W75657   5.797  24.169  11.376 -0.1110 -0.2361  0.0454
74794W        W75658   9.260  28.687   9.233  0.0982 -0.0903  0.1698
74795W        W75659  12.880  25.194   8.673  0.1108 -0.1452 -0.0770
74796W        W75660  10.267  27.382  11.694  0.2434 -0.1086 -0.0344
74797W        W75661  12.135  24.669   9.703  0.1729 -0.0286  0.0271
74798W        W75662   9.225  26.995   8.867  0.0678  0.1542 -0.0851
74799W        W75663   8.107   0.190   8.241  0.0397  0.0999 -0.0085
74800W        W75664   7.311   0.730  10.347  0.1852  0.0262 -0.0139
74801W        W75665   6.861  25.062   9.972 -0.0713  0.0452  0.2394
74802W        W75666   7.449  27.598   9.680  0.2456 -0.0364 -0.1376
74803W        W75667   9.463  26.486   9.828  0.2555 -0.1485  0.1004
74804W        W75668  10.362  26.109   6.288  0.0063  0.3583 -0.1898
74805W        W75669  10.379  25.520  10.442  0.3179 -0.1178  0.2913
74806W        W75670   7.601  28.819  10.512 -0.1839 -0.2254 -0.0195
74807W        W75671  10.098  25.308   7.389  0.0105  0.1855 -0.0352
74808W        W75672   9.792  25.248   7.768  0.0967  0.3958 -0.0402
74809W        W75673   5.952  25.299   7.170  0.2917  0.0980 -0.1662
74810W        W75674  10.341  28.506  11.266 -0.1824 -0.0891  0.5801
74811W        W75675   9.024  26.401  10.098  0.1657  0.0415  0.0583
74812W        W75676   8.577  26.358   6.206  0.1115  0.0250  0.0993
74813W        W75677   8.425  27.552   8.754  0.0816 -0.3361 -0.0808
74814W        W75678  12.270  26.952   7.457 -0.3524 -0.0631 -0.1874
74815W        W75679  11.416  22.851   8.249  0.2937  0.1136  0.1049
74816W        W75680   7.933  25.071  12.141 -0.0767  0.2223 -0.2393
74817W        W75681   9.943  27.081   9.481  0.3092 -0.1264  0.1283
74818W        W75682  12.511   0.451   7.102 -0.1426 -0.5132 -0.0180
74819W        W75683   8.476  28.319   7.357 -0.0535  0.5292 -0.0689
74820W        W75684   8.835  27.747   7.908  0.2643  0.0242 -0.2886
74821W        W75685   8.122  23.906  11.341 -0.1457 -0.1540  0.1539
74822W        W75686   8.306  27.587   9.396  0.2830 -0.0251  0.0269
74823W        W75687   9.441  27.927  10.526  0.0136  0.0589 -0.1172
74824W        W75688   8.226   1.484   9.217  0.1010 -0.0513  0.1529
74825W        W75689   6.373  28.395   5.618  0.0624 -0.0041  0.2633
74826W        W75690   9.883  25.731   7.526 -0.1357 -0.0647  0.3397
74827W        W75691   6.461  25.449  10.131  0.1040  0.2064 -0.3312
74828W        W75692  10.992  27.420   7.092  0.0373  0.3303 -0.0490
74829W        W75693   7.945  26.509   7.303 -0.1859  0.2374 -0.0172
74830W        W75694   8.585  25.694   9.860  0.1515  0.0884 -0.0279
74831W        W75695  10.977  26.104   9.034 -0.1338 -0.0398 -0.1181
74832W        W75696   7.337  26.297  11.186  0.0306  0.2003  0.4069
74833W        W75697  13.301  26.894   9.867  0.1188  0.0403  0.1545
74834W        W75698  10.512  27.635   9.761  0.2133  0.0425  0.0767
74835W        W75699   8.539  26.209  10.169  0.0320 -0.0091  0.2593
74836W        W75700   7.731  26.492   9.678 -0.4117  0.2765 -0.0047
74837W        W75701   9.833  26.606   6.255 -0.0603  0.5437 -0.1165
74838W        W75702   5.887  28.119  12.055  0.1203  0.3078 -0.2437
74839W        W75703   7.886  25.515   9.646 -0.0529 -0.0130 -0.2914
74840W        W75704   8.470  26.765   6.481 -0.0161 -0.0507  0.0922
74841W        W75705   6.491  25.042  10.497 -0.1622 -0.1519  0.1787
74842W        W75706   4.232   0.805   7.886 -0.0294  0.0257  0.0191
74843W        W75707   9.973  29.064   7.302 -0.2189  0.1860  0.1639
74844W        W75708   9.386  25.487  13.745 -0.0361  0.0286 -0.2741
74845W        W75709  11.877  25.758   9.528  0.1176 -0.0018 -0.0958
74846W        W75710   7.158  26.225  10.180 -0.1273  0.0155 -0.3268
74847W        W75711  10.078  23.312   6.310 -0.0220  0.4410  0.1889
74848W        W75712  10.231  26.565  10.643 -0.0242 -0.0356 -0.0275
74849W        W75713   9.899  26.014   8.412 -0.3305  0.5628  0.2472
74850W        W75714  10.547  25.537  11.693 -0.1842  0.1356  0.2537
74851W        W75715   8.694  25.134   8.575  0.0587  0.1018  0.0549
74852W        W75716   6.926  28.745   9.747  0.1842  0.1530 -0.1464
74853W        W75717  11.225  27.016   7.431 -0.1763  0.1942 -0.1346
74854W        W75718  11.175  25.121   9.824  0.1571  0.5220  0.1140
74855W        W75719   6.461  27.218   9.489 -0.0216  0.0972 -0.0848
74856W        W75720  12.087  25.590   9.928 -0.1050  0.1173  0.0834
74857W        W75721   9.345  26.586   8.060 -0.0576 -0.0369  0.3757
74858W        W75722   5.130   0.837   7.165 -0.1397  0.2007 -0.0888
74859W        W75723   8.715  28.704   7.464  0.0499  0.1302  0.3870
74860W        W75724   9.625  25.610  12.104 -0.1888 -0.1659  0.2607
74861W        W75725   8.354  27.594   9.912  0.0206 -0.0990 -0.0175
74862W        W75726  11.389  27.621   9.478 -0.2031 -0.2730 -0.2538
74863W        W75727  12.693  27.659   8.771 -0.1722  0.0182 -0.3138
74864W        W75728   9.710  28.370  10.470  0.1805 -0.0294  0.0112
74865W        W75729  12.480   0.888  11.673 -0.1018 -0.0929  0.1933
74866W        W75730   7.730  26.387   6.791 -0.0150  0.1085 -0.2158
74867W        W75731   7.627  26.971   8.915  0.0193  0.4358 -0.1120
74868W        W75732   7.797  28.833   8.274  0.0993 -0.1272 -0.1021
74869W        W75733   7.549  28.064   8.871 -0.2619  0.2046  0.1965
74870W        W75734   9.315  23.471  11.343 -0.0452 -0.0777 -0.1246
74871W        W75735   7.593  26.636   8.080 -0.0520 -0.1344  0.3174
74872W        W75736   8.354  27.832  10.934 -0.1143 -0.1952 -0.1582
74873W        W75737   8.838  28.565  10.027 -0.0557 -0.1682 -0.1654
74874W        W75738  10.491  26.357  11.470 -0.0645 -0.0073  0.2959
74875W        W75739   8.515  28.169   8.322  0.3686  0.0170 -0.0955
74876W        W75740   9.060  25.856   8.944 -0.4667  0.0636 -0.4602
74877W        W75741   9.977  26.855  13.316 -0.1547 -0.1398  0.2903
74878W        W75742   8.884  29.060   7.069 -0.2877 -0.1132 -0.1540
74879W        W75743   7.370   1.338   8.863  0.1508 -0.0901 -0.0393
74880W        W75744   7.700  26.838   7.629  0.2268 -0.1699  0.4070
74881W        W75745   8.845   0.062  10.714 -0.1137  0.1941  0.0440
74882W        W75746   9.941  26.719  10.205 -0.0826  0.3374  0.0486
74883W        W75747   9.991  26.950   8.534  0.0704 -0.2252 -0.1546
74884W        W75748   8.737  27.341  11.548  0.1805 -0.0228  0.0316
74885W        W75749   7.965  24.409   8.554 -0.0035 -0.0312  0.1322
74886W        W75750   7.254   0.479   7.316 -0.0480 -0.2340 -0.1359
74887W        W75751   8.320  27.566   8.199  0.0808 -0.0075 -0.0252
74888W        W75752   6.485  28.865   7.470 -0.0791  0.1185 -0.3058
74889W        W75753  10.199  23.806  12.300 -0.1918  0.3405 -0.0880
74890W        W75754   9.393  23.539   6.248  0.0213 -0.0146 -0.0168
74891W        W75755  11.413  27.758  11.854 -0.1562 -0.0308  0.0899
74892W        W75756  11.698  27.625   9.988 -0.1149  0.0413  0.1432
74893W        W75757  10.881  26.134   9.625  0.2009  0.0866 -0.1820
74894W        W75758   8.676   0.360  11.911  0.1591  0.1040 -0.0359
74895W        W75759   8.254  27.169   9.013 -0.0132  0.3158 -0.2767
74896W        W75760  11.069  24.599   8.247 -0.3563  0.0889  0.3932
74897W        W75761  11.490  27.412   7.640  0.1032  0.0588 -0.3859
74898W        W75762   8.368  23.827   7.170  0.1586 -0.1868  0.2111
74899W        W75763   8.647   0.508   8.518  0.1123 -0.2164  0.1001
74900W        W75764   7.259  22.516  10.857 -0.1696  0.0944 -0.0876
74901W        W75765   8.180  26.314   9.810  0.2669  0.3460  0.0690
74902W        W75766   7.302  26.250   8.181 -0.1676  0.1292 -0.0547
74903W        W75767   7.517   0.255   9.998 -0.0892 -0.1540 -0.0571
74904W        W75768   7.849   0.568  10.614  0.0917  0.0518 -0.1276
74905W        W75769   8.087  28.047   9.110 -0.2021  0.1587 -0.4732
74906W        W75770   7.559  24.208   9.622  0.0852  0.3276 -0.0753
74907W        W75771   8.083  26.137  10.389  0.1814 -0.0500  0.1971
74908W        W75772  10.214  25.469   9.101 -0.2227 -0.3966 -0.3373
74909W        W75773   7.812  26.731  12.877 -0.1615  0.2197  0.1187
74910W        W75774  10.561  28.392   6.171 -0.1919  0.0493  0.0719
74911W        W75775   9.959   0.591   9.580  0.0237 -0.2588 -0.0998
74912W        W75776  10.352  26.364   8.381 -0.0799 -0.1094  0.1499
74913W        W75777   6.804  28.429   4.619  0.0232 -0.0958  0.1690
74914W        W75778   9.530  26.171   5.328  0.0081  0.0303  0.1663
74915W        W75779   9.773  27.915  10.951 -0.0460  0.1374 -0.0595
74916W        W75780  11.159  26.874  11.537 -0.1128  0.0478 -0.0520
74917W        W75781   7.377  27.077  10.640 -0.0296  0.0150 -0.4426
74918W        W75782   7.662  26.783   6.114  0.0910  0.0243  0.1466
74919W        W75783   6.827  24.188   7.419 -0.2607 -0.0298 -0.1297
74920W        W75784  11.066  26.916   8.535  0.0679  0.0021  0.2984
74921W        W75785   8.532  24.998   9.897 -0.0616 -0.3010 -0.0771
74922W        W75786   8.550  26.317   8.757 -0.0700  0.0187 -0.0312
74923W        W75787  10.715  28.319   9.813  0.0036  0.2605 -0.1980
74924W        W75788   9.301   0.546  10.385 -0.2709  0.2042 -0.2646
74925W        W75789  10.796  27.865  10.126 -0.0274 -0.0712  0.2041
74926W        W75790   9.400  25.331  10.768  0.0093 -0.0322 -0.0168
74927W        W75791   8.503  28.051   8.822 -0.0774  0.0337  0.2431
74928W        W75792   8.326  26.891   7.594 -0.0098 -0.1108 -0.0205
74929W        W75793   6.958  26.047   9.531 -0.1328 -0.3993 -0.1328
74930W        W75794   8.309  26.232   8.297 -0.1551 -0.3272  0.1107
74931W        W75795  10.261  26.672   8.914 -0.0961  0.1555 -0.3669
74932W        W75796   7.788  26.008   9.542 -0.2159  0.1976  0.2083
74933W        W75797  12.887  24.661   7.735  0.1358 -0.1571  0.0380
74934W        W75798   6.921  25.421  13.263 -0.1431  0.0154  0.2927
74935W        W75799   8.680  27.289  10.167 -0.0539 -0.1820  0.3329
74936W        W75800  11.563  28.096   9.427 -0.1723  0.1719  0.5112
74937W        W75801   7.143  24.946  10.778 -0.2153  0.0109 -0.3294
74938W        W75802   7.804  27.770  12.050  0.0591  0.2001  0.0171
74939W        W75803   6.716  27.298   8.764  0.0673  0.4674  0.0351
74940W        W75804  10.391   0.637   9.325 -0.4236 -0.0214 -0.1557
74941W        W75805   7.757  28.467   9.085 -0.1288  0.2549 -0.1627
74942W        W75806   9.563  24.795   9.042  0.0437  0.3998 -0.5052
74943W        W75807   8.919  26.889   7.811 -0.0816 -0.0641 -0.0505
74944W        W75808   6.818  27.014  10.754  0.2039  0.0506  0.1540
74945W        W75809  11.000   1.405   9.464 -0.4122  0.4274 -0.0018
74946W        W75810   9.355  26.286   9.197  0.1539  0.0863  0.1824
74947W        W75811   8.159   0.379   9.617  0.0555 -0.1880 -0.1439
74948W        W75812  10.782  26.634   9.662  0.0901 -0.0247 -0.0485
74949W        W75813  10.285  26.695  11.164  0.1619  0.2022  0.0744
74950W        W75814   8.510  28.492   9.568 -0.3051 -0.1235  0.0215
74951W        W75815  10.991  27.506   9.773 -0.0860  0.0057  0.2197
74952W        W75816   9.247  26.706  10.788  0.2757 -0.0095  0.0165
74953W        W75817   8.748   0.511  10.502  0.0524 -0.2129  0.3440
74954W        W75818  10.039  25.510  12.496  0.0208  0.2796 -0.3168
74955W        W75819   7.831   0.192  10.927  0.1485  0.1177  0.1420
74956W        W75820  10.343  24.795  10.124 -0.0026 -0.2370 -0.0242
74957W        W75821   7.033   0.702   9.522 -0.3909  0.0019  0.0658
74958W        W75822   7.879  26.826   9.991 -0.1881 -0.1210 -0.2619
74959W        W75823   8.300  28.132  15.796 -0.1653 -0.4650  0.3069
74960W        W75824   6.680  24.372  15.367  0.0418 -0.0511 -0.2913
74961W        W75825  10.714  26.801  12.393 -0.0797 -0.0163  0.1506
74962W        W75826  11.695   0.423  13.738 -0.1428  0.1492 -0.3498
74963W        W75827  10.306  28.039  10.071 -0.2036  0.2470  0.0124
74964W        W75828   7.896  24.083  13.908 -0.1384 -0.3152 -0.0722
74965W        W75829   7.965  26.306  13.022  0.0034 -0.1492 -0.0475
74966W        W75830   8.831  26.995  10.562  0.4175  0.2680  0.2152
74967W        W75831   6.414   1.781  15.219  0.1234  0.0664  0.1507
74968W        W75832   6.787  25.848  15.696  0.0370 -0.3042 -0.0706
74969W        W75833  11.217  25.334  15.114 -0.0822  0.1693  0.1363
74970W        W75834  10.563  26.241  16.165 -0.0656  0.1893  0.0017
74971W        W75835   9.139  26.258  10.571 -0.0381 -0.0224  0.1516
74972W        W75836  10.593  25.631  13.158 -0.2861  0.3395  0.2217
74973W        W75837   9.602  25.037  13.802  0.0277 -0.0327  0.2534
74974W        W75838   7.319  27.433  13.093  0.2645  0.0552 -0.3331
74975W        W75839   7.458   0.056  13.407 -0.0371 -0.0184  0.1747
74976W        W75840   7.862  27.221  14.683 -0.2863  0.3666  0.1539
74977W        W75841   5.860  26.880  12.153 -0.3014  0.1861 -0.1050
74978W        W75842  11.207  26.062  14.061 -0.1388 -0.0032  0.0153
74979W        W75843   7.648  27.800  14.246  0.2607  0.0734 -0.0851
74980W        W75844   8.340  28.434  15.317  0.1386  0.1263  0.0001
74981W        W75845   8.971  28.001  14.085  0.0555 -0.2623  0.1793
74982W        W75846   9.866   0.575  11.760 -0.2951 -0.0423  0.0097
74983W        W75847   7.511  28.751  15.484  0.2088  0.1283  0.0748
74984W        W75848   6.718  26.716  13.526 -0.0032  0.2399  0.1546
74985W        W75849  10.177  28.862  13.445 -0.1059 -0.2704  0.1976
74986W        W75850   7.378  27.679  11.259  0.1100 -0.1506 -0.0516
74987W        W75851  11.445   1.296  16.601  0.0349  0.1031 -0.1458
74988W        W75852   9.959  28.758  15.046  0.0915 -0.0036  0.1679
74989W        W75853   7.872  25.413  16.608  0.1691 -0.2290  0.1938
74990W        W75854   7.627  28.661  17.555  0.2195 -0.0459  0.1833
74991W        W75855  10.651  27.245  14.117 -0.0883 -0.0203 -0.0777
74992W        W75856  11.321  28.251  15.354 -0.3055 -0.2529 -0.0264
74993W        W75857   7.634  26.370  15.965 -0.1422  0.1431 -0.0071
74994W        W75858  12.913  28.970  14.073  0.3503  0.0325 -0.0308
74995W        W75859  10.756  26.310  15.389  0.2607 -0.3414 -0.3453
74996W        W75860   7.486  28.271  15.229 -0.0727  0.0423 -0.3340
74997W        W75861  13.203  25.197  14.831  0.2740  0.2049  0.1279
74998W        W75862  11.146  25.906  11.349 -0.2438  0.0047  0.2710
74999W        W75863  10.335  23.630  10.939 -0.1238 -0.4053  0.0457
75000W        W75864  11.530  26.511  11.657  0.2238 -0.0776 -0.1408
75001W        W75865   7.037  27.186  13.460  0.0156  0.3127  0.2448
75002W        W75866  12.810   0.301  13.742  0.3336  0.3636 -0.2232
75003W        W75867   7.562  28.097  12.389 -0.2759  0.3900  0.1089
75004W        W75868   8.567  27.476  13.579  0.1291  0.0094  0.0377
75005W        W75869   7.008  27.971  14.354 -0.2676  0.1705  0.1302
75006W        W75870   9.912  27.522  13.594  0.0279 -0.1750  0.0883
75007W        W75871  10.808  29.001  12.875  0.1395 -0.1158 -0.0518
75008W        W75872   8.853  27.864  10.736  0.0748  0.2680 -0.0808
75009W        W75873   8.112  27.532  13.391 -0.0347 -0.1414 -0.0686
75010W        W75874   9.794  25.625  14.518 -0.0754 -0.0081  0.1555
75011W        W75875  10.693   1.525  14.271 -0.1074  0.1975 -0.1388
75012W        W75876  11.761  26.646  10.247  0.0553 -0.0687  0.0423
75013W        W75877   7.796  27.145  14.162 -0.0193  0.2863  0.2018
75014W        W75878  10.325  28.414  13.575 -0.0876  0.2535 -0.0995
75015W        W75879   7.296  25.969  14.604 -0.0980 -0.2016 -0.3401
75016W        W75880   9.206  28.316  12.854  0.0928 -0.0786  0.0632
75017W        W75881   5.317  27.493  12.573 -0.0458 -0.0411  0.0572
75018W        W75882   9.184   0.305  12.149  0.0396  0.0692 -0.3052
75019W        W75883   8.291  27.395  11.266 -0.0769 -0.0243 -0.0495
75020W        W75884  10.283  27.906  13.475  0.2924 -0.2541 -0.1433
75021W        W75885   8.884  29.100  12.155 -0.0707  0.2201  0.1738
75022W        W75886   8.968  28.945  13.663 -0.1333 -0.1708 -0.1992
75023W        W75887   8.903  26.375  12.831 -0.1130  0.2152 -0.0116
75024W        W75888  12.601  28.635  14.361 -0.2435 -0.4032  0.2561
75025W        W75889   9.006  26.936   9.999  0.0752  0.0431  0.3894
75026W        W75890   9.220  28.358  10.632 -0.0425  0.0371 -0.0978
75027W        W75891  11.553  29.058  13.729 -0.0180 -0.0393  0.0680
75028W        W75892  12.149  25.367  15.497  0.1599  0.2075 -0.2061
75029W        W75893  10.026   2.963  12.713 -0.1396 -0.1352 -0.3687
75030W        W75894   9.040  24.654  13.541  0.1169  0.0672 -0.0775
75031W        W75895   9.745  28.308  12.326  0.0151 -0.0391  0.3062
75032W        W75896   9.584   0.618  15.371  0.1398  0.4010 -0.0506
75033W        W75897  10.706  28.329  10.344  0.0282 -0.0060 -0.0622
75034W        W75898   9.865  28.545  13.886 -0.5803 -0.1704 -0.0639
75035W        W75899   5.727   0.239   9.566  0.1378 -0.0915  0.0804
75036W        W75900   7.582  26.923  12.456  0.1981  0.1237  0.2288
75037W        W75901   9.476  25.120  13.308  0.1926 -0.0682  0.0255
75038W        W75902   7.429  26.757  10.187  0.0174 -0.1860  0.0782
75039W        W75903   6.997  27.208  14.823 -0.1978 -0.0892  0.2016
75040W        W75904   9.467   1.348  14.114 -0.3085 -0.0852 -0.0849
75041W        W75905   7.527  26.178  13.533  0.0722 -0.0809 -0.0948
75042W        W75906   9.190  27.220  13.674 -0.1652  0.3628  0.0935
75043W        W75907   8.341  25.047  16.807  0.0811  0.0422  0.1158
75044W        W75908   9.808  25.595  13.416  0.0427 -0.1562 -0.1128
75045W        W75909  11.516  28.239  12.013  0.0440 -0.0480  0.1446
75046W        W75910  11.575  26.196  15.714 -0.1377  0.3828  0.3837
75047W        W75911   8.932  28.692  14.214 -0.1852 -0.1699  0.0952
75048W        W75912   9.683   1.238  15.392 -0.2742 -0.0368  0.1016
75049W        W75913  11.010  25.857  13.575 -0.1318  0.0608  0.1031
75050W        W75914  11.216  27.848  16.861 -0.3197  0.1374  0.1695
75051W        W75915   8.343  27.924  14.609 -0.2983  0.2919 -0.3663
75052W        W75916   6.326  25.970  10.390 -0.2670 -0.1433 -0.2994
75053W        W75917   8.613  26.102  15.055  0.2321  0.0261 -0.0720
75054W        W75918   8.634  25.543  11.655 -0.0273 -0.0522 -0.4066
75055W        W75919   8.763  25.565  12.367  0.0639 -0.0963 -0.1179
75056W        W75920   7.059   0.307  15.031  0.0006 -0.5077 -0.0697
75057W        W75921   7.045  25.377  12.182 -0.0279 -0.0747  0.0530
75058W        W75922  12.759  25.035  13.864 -0.1351 -0.0266 -0.1783
75059W        W75923  11.028  27.596  10.671  0.1750 -0.3619  0.1209
75060W        W75924   8.409  26.114  12.552 -0.2707 -0.1322 -0.2188
75061W        W75925   6.646  25.908   9.941 -0.1745 -0.0712 -0.1275
75062W        W75926  10.392  27.248  11.230 -0.1055 -0.1894 -0.1174
75063W        W75927  12.484  23.981  15.929 -0.3072 -0.0936 -0.0556
75064W        W75928  12.512  26.336  15.107 -0.0917  0.2607  0.0161
75065W        W75929   8.045  27.409  10.827  0.2649  0.1507 -0.2910
75066W        W75930   7.843  26.061  14.799 -0.0311 -0.1617  0.2150
75067W        W75931   9.210  24.772  14.034 -0.0818 -0.1527 -0.1668
75068W        W75932   7.859  27.826  14.746 -0.1940  0.1213 -0.0049
75069W        W75933   4.842  26.897  13.638 -0.1412  0.4667 -0.0567
75070W        W75934   6.308  24.325  12.800 -0.2025 -0.0458  0.0042
75071W        W75935  13.298  27.333  13.102  0.1858  0.1216 -0.0788
75072W        W75936   8.436   0.278  14.914 -0.4784 -0.0563  0.2959
75073W        W75937  10.476  27.811  11.965 -0.0219  0.2131  0.0747
75074W        W75938  10.003  27.031  15.332 -0.0112 -0.2440 -0.3243
75075W        W75939  11.216   0.235  13.990  0.1310  0.0352 -0.2267
75076W        W75940   6.804  27.962  13.655 -0.2961 -0.1277 -0.1104
75077W        W75941   8.179  27.991  13.460 -0.1749  0.0316  0.1547
75078W        W75942   8.779  24.704  11.433 -0.2307  0.1042  0.0932
75079W        W75943   9.578  27.101  11.055  0.2361 -0.0965 -0.0031
75080W        W75944   9.106  28.759  11.395 -0.2864 -0.2207  0.0124
75081W        W75945  10.338  26.908  11.617  0.0938  0.2727 -0.0404
75082W        W75946  10.979  23.036  10.755 -0.0785 -0.1936  0.0073
75083W        W75947   9.079  26.816  14.851 -0.1064 -0.1842 -0.2449
75084W        W75948   9.119  27.309  14.935 -0.0683 -0.0400 -0.0350
75085W        W75949   5.530  27.807  13.286  0.1103 -0.1791 -0.3271
75086W        W75950  10.286  28.430  14.609  0.0379 -0.0606  0.0024
75087W        W75951  10.720   0.520  15.876  0.1382  0.0292  0.1216
75088W        W75952   9.354  29.021  12.400  0.3657  0.0837  0.2479
75089W        W75953  10.535  28.356  11.770 -0.1882  0.1283 -0.3237
75090W        W75954  13.136  25.188  13.556  0.3846 -0.1271  0.1701
75091W        W75955  10.530  27.183  12.034 -0.2440  0.0102 -0.0729
75092W        W75956   9.634  25.754  12.911  0.1259 -0.0835  0.0965
75093W        W75957   9.556  28.760  14.748  0.0569  0.1679  0.0508
75094W        W75958   4.411  26.612  14.397  0.2418 -0.0517 -0.0848
75095W        W75959  11.849   0.830  15.734 -0.0189  0.3476  0.0112
75096W        W75960   8.960   0.448  13.917  0.0324 -0.2509 -0.1364
75097W        W75961   9.715   0.259  12.105  0.1866  0.0774  0.0042
75098W        W75962  10.108  29.005   9.739  0.3126  0.2409 -0.2481
75099W        W75963   7.459  23.647  11.807 -0.2450 -0.2052  0.3946
75100W        W75964  10.466  25.718  12.660  0.0182  0.2558  0.0341
75101W        W75965   9.482   0.678  10.862  0.0487 -0.1726 -0.1673
75102W        W75966   6.931  25.788   9.123  0.2355  0.0844  0.2459
75103W        W75967   6.911  26.945  15.728  0.0777 -0.0862  0.0465
75104W        W75968   8.456  26.438  13.673  0.1212  0.0041 -0.2113
75105W        W75969  10.273  27.119  13.684  0.3440  0.2058  0.0926
75106W        W75970   9.110  28.105  11.955 -0.2213  0.1787 -0.3428
75107W        W75971  11.273  27.357  12.304  0.3757  0.0695 -0.0223
75108W        W75972   6.625  27.468  15.078 -0.0441  0.3644 -0.1179
75109W        W75973  10.953   0.878  13.425  0.1330 -0.1022 -0.1473
75110W        W75974   9.427  26.618  13.569 -0.0034 -0.0173 -0.1016
75111W        W75975   9.408  27.311  12.790 -0.1018 -0.0806  0.1302
75112W        W75976   8.506  26.005  13.879 -0.1620  0.0947  0.0917
75113W        W75977  10.753  28.490  13.854 -0.1477  0.0908 -0.1576
75114W        W75978   8.944  26.008  12.390 -0.0218  0.0762 -0.1633
75115W        W75979   7.714  27.489  11.658 -0.0659 -0.0369 -0.0486
75116W        W75980   9.819  26.606  11.106  0.1009  0.4410 -0.0362
75117W        W75981   8.068  26.077  11.971  0.3757 -0.0234  0.0781
75118W        W75982   8.573  25.994  12.073  0.1827  0.0661  0.2796
75119W        W75983   8.269  27.085  11.753  0.2395  0.1052 -0.4308
75120W        W75984   9.398  27.819  12.988 -0.1358 -0.1731 -0.3505
75121W        W75985   7.888   1.480  16.473 -0.2036 -0.2283 -0.1020
75122W        W75986   9.408  26.200  16.734 -0.0373  0.0654 -0.2602
75123W        W75987  13.503  25.708  14.166  0.3408  0.2693  0.0107
75124W        W75988  10.248  25.966  11.625  0.1696  0.0151  0.0623
75125W        W75989   9.138  25.016  15.496 -0.0641  0.1306  0.2910
75126W        W75990   7.606   2.709  11.775  0.3282  0.0401 -0.3094
75127W        W75991   9.201  28.114  12.445  0.4151 -0.1536  0.0758
75128W        W75992   9.758  28.555   8.739  0.0482  0.2712 -0.3164
75129W        W75993  10.263  24.644  11.227  0.1012 -0.2626 -0.0906
75130W        W75994   8.690  27.084  14.961 -0.0061  0.0551  0.3707
75131W        W75995   9.130  28.473  15.026 -0.0941 -0.0400  0.0447
75132W        W75996   9.669  27.789  12.512 -0.0339  0.0237  0.1437
75133W        W75997  11.391  26.627  10.592  0.1523  0.0002 -0.0648
75134W        W75998  10.395  24.798  12.982 -0.0977 -0.2776  0.2505
75135W        W75999   7.205  26.071  15.562 -0.1631  0.0659 -0.2265
75136W        W76000   5.435  25.678  14.189 -0.2233  0.0220 -0.2317
75137W        W76001   8.333   1.469  14.190 -0.1219 -0.2352 -0.2417
75138W        W76002  11.931  26.525  14.484 -0.2129  0.1946  0.1842
75139W        W76003   9.493   1.090  10.526  0.3546 -0.4022  0.1891
75140W        W76004   8.202  26.870  13.145 -0.1552 -0.2189  0.5134
75141W        W76005  10.640  26.821  10.812 -0.4346 -0.0188  0.0638
75142W        W76006   8.949  25.825  12.851  0.1594  0.4022  0.1043
75143W        W76007  10.099  26.001   8.916  0.1603 -0.0106  0.1077
75144W        W76008   5.389  27.127  14.925 -0.1575  0.3987  0.0101
75145W        W76009  12.490  26.424  10.002  0.0964 -0.0501  0.1910
75146W        W76010   6.511  25.904  11.537  0.4396  0.1573  0.0070
75147W        W76011   8.067  28.089  12.945  0.0270  0.0731  0.3240
75148W        W76012   9.712   2.345  14.630  0.1110  0.1886  0.4523
75149W        W76013   8.971  27.019  11.076 -0.1795  0.1331  0.0127
75150W        W76014   9.500  28.149  13.552 -0.0102 -0.0727 -0.1862
75151W        W76015   7.599  27.828  18.327  0.0916  0.0194  0.0499
75152W        W76016   9.328  27.575  15.354 -0.0613  0.0073  0.0472
75153W        W76017  10.402  26.777  14.046 -0.0323 -0.1475 -0.0265
75154W        W76018   8.397  28.507  14.799 -0.0609  0.2831  0.0372
75155W        W76019   9.502  25.746  15.025  0.2562  0.0406 -0.3018
75156W        W76020   7.440  24.036  13.134 -0.0180  0.1075  0.0370
75157W        W76021   8.313  26.437  10.784  0.0570 -0.0724  0.2555
75158W        W76022  11.013  25.393  13.425  0.0254  0.0133 -0.2072
75159W        W76023   7.525  26.499  15.522  0.0068  0.3010 -0.1333
75160W        W76024   9.409  28.843  14.142  0.2323  0.0160 -0.0414
75161W        W76025  11.532  28.458   9.818 -0.0498  0.1613 -0.1082
75162W        W76026   8.271  25.129  15.136 -0.2641 -0.1094  0.1590
75163W        W76027  10.940  28.298  14.307  0.0378  0.4508  0.1677
75164W        W76028   7.163  27.093  11.640  0.1389 -0.1903  0.1708
75165W        W76029   8.549  25.989  14.463 -0.1517 -0.1384  0.3492
75166W        W76030   9.455  25.219  15.196 -0.2429 -0.0538  0.1324
75167W        W76031   9.563   1.586  13.602  0.1456 -0.2850 -0.1464
75168W        W76032   5.230   0.078  10.828 -0.4493  0.3102  0.1036
75169W        W76033   8.701  28.179  15.003 -0.2420  0.0882 -0.1403
75170W        W76034   8.686  24.281  16.357  0.1568 -0.2042 -0.3075
75171W        W76035   9.766  26.859  14.380 -0.3456  0.3518  0.2735
75172W        W76036   8.940  27.115  14.460 -0.2281 -0.0048 -0.2132
75173W        W76037  12.242  27.513  18.515 -0.1212 -0.0726 -0.0920
75174W        W76038  10.159  26.303  12.516 -0.2262 -0.2689  0.2949
75175W        W76039  12.666  26.301  12.178 -0.0565  0.1987 -0.0054
75176W        W76040   9.517   1.242  10.988 -0.1549 -0.0201  0.0820
75177W        W76041   8.255  25.947  15.830  0.0149 -0.1096 -0.2946
75178W        W76042  12.456  29.006  13.781  0.2866 -0.0017  0.1613
75179W        W76043  11.608  26.497  14.094  0.0756  0.2055  0.0396
75180W        W76044  11.794  28.597  13.727 -0.0613  0.0648  0.0799
75181W        W76045  10.276   0.094  14.370  0.0358 -0.0562  0.2048
75182W        W76046  10.993  24.412  10.439  0.0385 -0.0142 -0.2945
75183W        W76047   9.382  26.696  11.330  0.0038 -0.0035 -0.1110
75184W        W76048   7.289   1.110  15.558  0.0168 -0.0537 -0.2178
75185W        W76049   9.923   0.026  14.796 -0.2827  0.1196  0.0087
75186W        W76050  10.777  26.934  13.718  0.0827 -0.2976 -0.1844
75187W        W76051  11.285   1.135  14.396 -0.0877 -0.2298  0.0718
75188W        W76052   7.419  26.694  11.565 -0.1580 -0.0358  0.0364
75189W        W76053   9.414  28.151  14.728 -0.2686  0.1689  0.4808
75190W        W76054   8.937  25.969  15.847 -0.2092 -0.3428 -0.0200
75191W        W76055   8.486  28.367  10.410 -0.3644  0.4027  0.0729
75192W        W76056   8.297  25.046  15.838 -0.1851  0.0645 -0.0278
75193W        W76057  10.431  24.606  15.082 -0.1081 -0.0107 -0.2119
75194W        W76058   6.443  26.810  10.482  0.1573  0.0380 -0.3362
75195W        W76059   9.041  27.534  13.198 -0.1273  0.0413  0.1043
75196W        W76060  10.335  25.715  15.057  0.1166 -0.0842  0.1318
75197W        W76061   8.458  26.943  13.585 -0.0792 -0.2099 -0.3177
75198W        W76062  10.141   1.511  12.083 -0.1570 -0.2157  0.1183
75199W        W76063   7.613  28.037  10.924 -0.0785  0.0135 -0.0551
75200W        W76064   7.997  26.292  13.805  0.2463 -0.3387 -0.0349
75201W        W76065   5.644  27.507  15.841 -0.1613  0.0865 -0.1047
75202W        W76066   8.303  23.321  10.531 -0.0160 -0.2420 -0.0139
75203W        W76067   8.889  28.431  14.612 -0.0870  0.1514 -0.1951
75204W        W76068   7.834  27.601   8.936 -0.2033  0.0573  0.1610
75205W        W76069  10.576  27.818  15.896  0.0314 -0.1399 -0.1882
75206W        W76070   7.360  27.101  13.921 -0.1597  0.0728 -0.1328
75207W        W76071  11.348   1.837  13.414  0.1045  0.3097  0.2221
75208W        W76072   8.055  24.869  16.465  0.1118  0.2053  0.3384
75209W        W76073   9.528  26.092  14.541 -0.3476  0.1465 -0.0646
75210W        W76074   8.523   0.754  14.709 -0.0715  0.5609  0.0325
75211W        W76075  13.211  28.906  16.352 -0.2000  0.0164  0.1536
75212W        W76076   7.406  27.478  14.561 -0.2528  0.0565  0.0274
75213W        W76077   4.780  28.835  12.996  0.2248 -0.1378  0.1701
75214W        W76078  10.733  28.831  13.430 -0.0202  0.1127  0.0548
75215W        W76079   6.632  28.002  12.277 -0.0085 -0.3231 -0.3036
75216W        W76080  11.638  26.078  14.432 -0.0612 -0.2839 -0.0576
75217W        W76081  12.018   0.062  13.990  0.0600 -0.3787 -0.4993
75218W        W76082  10.966  28.524  15.873  0.0521  0.0541 -0.2207
75219W        W76083  10.827  27.317  12.484 -0.0085 -0.5832 -0.2873
75220W        W76084   8.643  27.223  13.133  0.1494 -0.2516  0.0890
75221W        W76085   8.649  29.056  14.556  0.1320 -0.0151 -0.0410
75222W        W76086   7.446  25.583  16.315 -0.0595  0.2114  0.0400
75223W        W76087   9.131   1.011  11.154  0.1584 -0.1421 -0.2813
75224W        W76088   8.484  28.861  15.771  0.2238  0.1961 -0.0780
75225W        W76089  10.392  27.791  11.476 -0.0955 -0.0567 -0.0511
75226W        W76090  10.900  26.782  10.146  0.0722  0.1783 -0.2300
75227W        W76091   7.475  24.282  15.112 -0.1923  0.1303  0.0758
75228W        W76092   9.773  26.855  12.865  0.1024  0.0830 -0.0567
75229W        W76093   8.884  24.250  15.337 -0.1141  0.3957  0.4004
75230W        W76094   9.427  27.879  14.004  0.0220  0.2803  0.1055
75231W        W76095   9.421   0.174  14.849  0.1705  0.3112  0.0236
75232W        W76096   8.053  27.545  14.339  0.0502  0.1163 -0.1326
75233W        W76097   7.509  29.098  12.455  0.0443  0.3225  0.7000
75234W        W76098  11.624  25.648  14.714  0.0894 -0.0319  0.1462
75235W        W76099  10.375  26.193  15.011 -0.2205 -0.0268 -0.2417
75236W        W76100  10.088  25.928  12.898 -0.0589  0.3145  0.2592
75237W        W76101  10.316  26.021  10.387  0.0898  0.0301  0.3706
75238W        W76102   8.539   2.853  11.291 -0.4339  0.1445 -0.1460
75239W        W76103  10.178  28.048  12.373 -0.0793  0.1102 -0.1642
75240W        W76104   9.059  24.891  13.080 -0.0694  0.1605 -0.0929
75241W        W76105   5.707  25.889   9.583  0.1609  0.3356 -0.0220
75242W        W76106   5.620   1.243  14.616  0.1296 -0.1345  0.0440
75243W        W76107   8.927  26.801  13.673 -0.0883 -0.0218 -0.0394
75244W        W76108  11.753  25.447  15.173  0.1399  0.1773 -0.2800
75245W        W76109   8.229  27.434  15.015  0.0944 -0.2009  0.1511
75246W        W76110   5.271  25.694  17.101 -0.1630 -0.2283  0.0745
75247W        W76111  12.585  25.015  12.000 -0.1518  0.2069  0.0445
75248W        W76112   9.031  25.815  14.863 -0.0357  0.3283 -0.1125
75249W        W76113   9.271  27.289  11.480  0.1619  0.0177 -0.0328
75250W        W76114  10.787  26.348  13.808 -0.1730 -0.1109 -0.0363
75251W        W76115   9.008  25.345  16.239 -0.1938  0.1978 -0.1821
75252W        W76116   9.139  27.638  12.404  0.1192 -0.1627  0.0209
75253W        W76117   9.084  27.575  10.374 -0.1581 -0.1805  0.2162
75254W        W76118  12.081  26.993  12.776  0.0803  0.0303 -0.0504
75255W        W76119   7.069  28.180  15.838 -0.1346  0.0574  0.0714
75256W        W76120   9.878  25.982  14.168  0.1972 -0.4494  0.0193
75257W        W76121  12.632  29.052  15.213  0.0106 -0.0576 -0.4739
75258W        W76122   6.674  28.413  10.113  0.1445 -0.1980  0.0582
75259W        W76123   7.916   0.285  12.035 -0.3434  0.0433 -0.2765
75260W        W76124  11.260  28.616  15.001  0.0049 -0.0620 -0.1864
75261W        W76125  10.680  28.238  12.241 -0.1487  0.2046 -0.2082
75262W        W76126   9.573  28.265  11.845  0.0238  0.2002 -0.1928
75263W        W76127  12.434  28.593  11.885 -0.1734  0.0089 -0.2371
75264W        W76128  10.866   0.313  12.631  0.2334  0.0662 -0.2720
75265W        W76129   9.829  27.204  12.517  0.0265  0.1444 -0.0058
75266W        W76130   9.323  24.642  12.269  0.1545 -0.2799 -0.0855
75267W        W76131   9.782  25.968  12.467  0.2403  0.1984 -0.3641
75268W        W76132  10.620  28.711  12.427  0.0568 -0.1708  0.0815
75269W        W76133   9.123  27.747  11.595  0.2262 -0.1533 -0.0139
75270W        W76134  11.005  26.528  12.780 -0.1151 -0.1352 -0.0122
75271W        W76135   8.042  27.341  12.280  0.0303  0.0962  0.0370
75272W        W76136   7.864  29.061  15.657 -0.1040  0.1370  0.1407
75273W        W76137   7.388  27.948  14.821  0.1782 -0.0452 -0.4331
75274W        W76138   8.120  28.829  16.106 -0.1927  0.0477 -0.0015
75275W        W76139   7.665  25.864  13.177  0.1115  0.1169 -0.0348
75276W        W76140   9.091  26.565  12.009 -0.0055  0.4699 -0.1303
75277W        W76141   7.044  28.565  10.398 -0.1834  0.1827  0.2281
75278W        W76142   9.029   0.968  17.654 -0.1318  0.1970 -0.0327
75279W        W76143   6.137  27.230  12.447 -0.0740  0.3209 -0.0021
75280W        W76144  10.679  27.085   9.795  0.0712  0.0331  0.2455
75281W        W76145   7.742  29.071  16.303 -0.0648 -0.0111  0.2068
75282W        W76146   8.484  27.779  12.409  0.1151 -0.1678  0.2069
75283W        W76147   8.687  25.770  13.381  0.2007  0.2601  0.2037
75284W        W76148   7.459  27.048  14.822 -0.2269  0.3995 -0.1890
75285W        W76149   8.664  25.752  15.500  0.0215  0.1265 -0.0520
75286W        W76150   8.071  26.932  11.225  0.3305  0.0883 -0.0921
75287W        W76151   8.742  25.373  10.245 -0.0889 -0.0119  0.2054
75288W        W76152   7.653  28.994  11.259  0.0076  0.0882  0.3048
75289W        W76153  11.010  27.543  14.646  0.1117  0.3066 -0.0801
75290W        W76154  10.416  24.735   9.621 -0.0254  0.2266 -0.1145
75291W        W76155  12.179  27.702  11.692 -0.4313 -0.1170 -0.0978
75292W        W76156  10.655  27.885  13.096 -0.0362  0.1350 -0.2441
75293W        W76157  11.430   0.637  13.068 -0.0301 -0.0371 -0.0975
75294W        W76158   9.579  27.612  16.466 -0.1940 -0.1107 -0.1701
75295W        W76159   9.919   1.514  13.985 -0.1887  0.0629  0.3026
75296W        W76160  10.329  26.523  13.075  0.0657 -0.0711 -0.3832
75297W        W76161  10.208  23.904  14.368  0.3543 -0.1141 -0.0072
75298W        W76162   8.979  23.334  14.433  0.2718  0.0350  0.0948
75299W        W76163   6.529  27.703  15.582 -0.0218 -0.2270  0.0141
75300W        W76164  11.195  22.631  15.455 -0.0284 -0.0191  0.1020
75301W        W76165   9.514  24.856  14.812  0.0834 -0.0363 -0.1110
75302W        W76166   7.780  27.278  10.468 -0.1745 -0.1507 -0.2128
75303W        W76167   6.476  25.707  10.807  0.0065 -0.0365  0.0573
75304W        W76168   7.492  28.851  14.327  0.2084 -0.1241 -0.0136
75305W        W76169   4.084  27.643  10.576 -0.0428  0.0382 -0.0570
75306W        W76170   6.949  25.573  12.771  0.1874 -0.3067  0.0711
75307W        W76171   8.054  26.778  13.904 -0.0182 -0.0584 -0.0352
75308W        W76172   9.493  26.864  11.876  0.0223  0.1018 -0.0217
75309W        W76173   9.690   0.838  12.789 -0.3146  0.1497 -0.0041
75310W        W76174  10.271  27.454  13.288  0.0154 -0.2311  0.2057
75311W        W76175  10.076   0.928  15.203 -0.5775  0.1346  0.4336
75312W        W76176  12.186  28.824  13.204  0.0571 -0.0396  0.0024
75313W        W76177   7.157  29.079  11.407  0.2041 -0.1415  0.2013
75314W        W76178  10.839  22.359  14.939 -0.1194 -0.0958  0.0104
75315W        W76179  10.113  28.505  12.651  0.2373  0.0610 -0.2181
75316W        W76180  12.616  25.917  14.664  0.0757 -0.1110  0.0571
75317W        W76181   9.411  25.708  14.176 -0.0689 -0.2660  0.0483
75318W        W76182   8.387  25.526  11.158 -0.0578  0.0665  0.0015
75319W        W76183   5.473  25.962  10.594  0.0417  0.0356  0.2795
75320W        W76184  11.055  27.314  13.731  0.0047  0.2659  0.1391
75321W        W76185   8.095  28.138  13.968 -0.4556  0.3894 -0.0189
75322W        W76186   9.930  24.568  12.430  0.2788 -0.1775 -0.1862
75323W        W76187   7.676  25.680  14.496 -0.0070  0.1535  0.4515
75324W        W76188  10.117   0.289  13.501  0.1003 -0.0102 -0.3587
75325W        W76189  10.531  27.376  12.884  0.1320  0.0748 -0.0160
75326W        W76190   8.635  28.596  13.817 -0.0716  0.1304 -0.2101
75327W        W76191  10.938  25.118  11.803 -0.0123 -0.0631 -0.0428
75328W        W76192   8.784  27.395  14.069 -0.0600 -0.0705 -0.0803
75329W        W76193   9.601  27.481   9.630  0.1742  0.1081  0.0483
75330W        W76194  13.449  26.314  13.554  0.1368 -0.2533  0.2338
75331W        W76195   9.238   0.086   9.384 -0.0816  0.0622 -0.0707
75332W        W76196   8.508  27.636  15.944  0.1259  0.2474  0.0299
75333W        W76197  11.336  28.118  11.445  0.0851 -0.2814 -0.0622
75334W        W76198  12.993  26.208  15.237 -0.2012 -0.2527 -0.1886
75335W        W76199   6.636  24.925  14.752 -0.3549  0.0799 -0.2508
75336W        W76200  10.823   0.383  13.121  0.1373 -0.3875  0.0141
75337W        W76201  10.501  27.997  13.942  0.3042 -0.0465 -0.2842
75338W        W76202   4.047  28.305  14.805 -0.2015  0.0691  0.2822
75339W        W76203   6.944  27.307  14.355 -0.1115 -0.1912  0.2115
75340W        W76204   6.193   0.720  10.703 -0.6007 -0.3883  0.0781
75341W        W76205   7.027  25.413  13.801  0.2723 -0.2478 -0.0430
75342W        W76206  10.555  28.192  15.577  0.1000  0.0878  0.3539
75343W        W76207  10.265  28.140  13.034 -0.2345 -0.1327 -0.0233
75344W        W76208   8.552  25.552  15.047 -0.0236  0.2038  0.2002
75345W        W76209  10.442  28.888   9.363  0.0483  0.2148  0.1189
75346W        W76210   9.039   0.265  12.667 -0.3370 -0.0401  0.4473
75347W        W76211   8.192  25.854  12.952 -0.1531  0.1280 -0.2433
75348W        W76212   7.872  28.801  15.152  0.2328  0.0996  0.1778
75349W        W76213   8.089   0.430  14.598  0.0558  0.0597  0.1541
75350W        W76214   8.792  29.141  12.997 -0.0605 -0.0176 -0.1975
75351W        W76215  10.293  27.552  10.286 -0.0461 -0.0123 -0.0407
75352W        W76216   7.780  28.361  11.950  0.0710  0.2357  0.1217
75353W        W76217   7.382  27.485  15.136  0.2368  0.1868  0.0546
75354W        W76218   8.244  27.052  14.346 -0.2869 -0.1846 -0.2159
75355W        W76219  11.844  29.142  12.314  0.3805  0.0498  0.2539
75356W        W76220   8.046  27.593  16.699 -0.4185 -0.1255  0.2647
75357W        W76221   7.985  27.827  12.462 -0.3584  0.1855  0.0224
75358W        W76222   6.620  25.834  13.003  0.1746  0.2261  0.2547
75359W        W76223   3.853  29.141  17.893  0.1294  0.2167 -0.0334
75360W        W76224   9.903   0.232  16.801  0.0573 -0.1911  0.0249
75361W        W76225  12.170  26.504  15.515 -0.1188 -0.1706  0.2982
75362W        W76226  10.814   0.370  18.040  0.1106  0.0744 -0.0776
75363W        W76227   9.083   0.059  15.903  0.2971 -0.2584  0.0082
75364W        W76228  10.249  27.465  15.687 -0.0309 -0.2702  0.0110
75365W        W76229   6.105  26.422  15.668  0.1474  0.0329 -0.0137
75366W        W76230   7.761   1.257  15.556 -0.1442 -0.3105 -0.0937
75367W        W76231   9.200  27.840  18.227  0.0271 -0.0741 -0.1071
75368W        W76232   9.862  25.496  22.204  0.1481 -0.1287 -0.1489
75369W        W76233  10.502  23.787  15.481  0.1962  0.2531 -0.0861
75370W        W76234   9.212  26.984  15.893 -0.0067 -0.1457 -0.0089
75371W        W76235  12.236  27.145  16.144 -0.1215  0.1394  0.1178
75372W        W76236  10.116  26.880  18.641 -0.1959  0.0861  0.0495
75373W        W76237   5.046  25.988  17.489 -0.2183 -0.1823  0.2211
75374W        W76238   4.482   0.537  18.069  0.1628  0.0396  0.3474
75375W        W76239   6.645  28.158  14.713 -0.0534  0.1561  0.0194
75376W        W76240   6.047  27.816  14.714 -0.3175  0.1199 -0.1894
75377W        W76241  10.779  28.237  19.098 -0.0230 -0.2630 -0.0041
75378W        W76242   9.882  25.751  17.469  0.0472  0.0695  0.0062
75379W        W76243   9.127  26.836  18.013  0.0071  0.0353 -0.2076
75380W        W76244   8.739  28.333  18.238 -0.0578 -0.0238 -0.1940
75381W        W76245   9.504  27.103  15.556  0.0472  0.1314 -0.2153
75382W        W76246   6.200  28.960  18.879 -0.0001  0.0959  0.0856
75383W        W76247   9.641  27.637  17.636  0.1116 -0.1942 -0.0866
75384W        W76248   6.955   0.279  16.910  0.0810 -0.1153 -0.2242
75385W        W76249  10.855  26.863  18.487 -0.0610 -0.0543  0.0617
75386W        W76250   7.051   1.097  16.284 -0.1421  0.1440  0.0246
75387W        W76251  10.209  26.488  17.968  0.0090  0.1526 -0.0119
75388W        W76252   8.891  27.557  15.672 -0.2725  0.4049  0.2059
75389W        W76253   7.836  27.695  15.191  0.3110  0.1309 -0.2501
75390W        W76254  10.470  26.714  17.018 -0.0465 -0.0167 -0.1310
75391W        W76255  10.672   0.432  19.208 -0.0270  0.2344  0.0958
75392W        W76256   9.618  26.825  16.242  0.1647  0.0129  0.1835
75393W        W76257   4.928  26.810  14.190 -0.3004  0.3551  0.2972
75394W        W76258   8.881   1.936  18.458 -0.0502 -0.2291 -0.4535
75395W        W76259  10.136  27.979  15.750 -0.1658 -0.0173 -0.0676
75396W        W76260   7.907   1.824  19.309 -0.1629 -0.1958  0.1052
75397W        W76261  11.624  26.651  16.337 -0.0881  0.1226 -0.0427
75398W        W76262  11.191  24.437  19.607  0.2203 -0.1374  0.0104
75399W        W76263  13.081  25.882  13.881  0.1140 -0.2857  0.0963
75400W        W76264   9.769  28.413  17.138  0.3185  0.1350 -0.0220
75401W        W76265   7.850  28.278  18.254  0.1745 -0.0410 -0.0274
75402W        W76266  12.150  28.267  14.121  0.1418  0.1855 -0.0436
75403W        W76267   9.249   1.010  14.515 -0.1395 -0.3191 -0.2400
75404W        W76268  10.429   0.794  15.497 -0.1170 -0.1065 -0.1452
75405W        W76269   7.722  26.586  18.776  0.1064 -0.0760 -0.1694
75406W        W76270  12.456  24.799  20.421 -0.0278  0.2146 -0.0887
75407W        W76271   8.755  25.734  16.454 -0.1319  0.0559  0.0446
75408W        W76272   9.456  25.600  15.577 -0.0738 -0.0316  0.1854
75409W        W76273  10.040  28.154  18.379 -0.1367 -0.1039  0.0262
75410W        W76274  10.517  28.085  14.900 -0.1170  0.0902  0.2668
75411W        W76275  11.986   0.420  15.072 -0.1305 -0.2531 -0.1086
75412W        W76276  13.701  27.662  17.670  0.1657  0.0681 -0.0513
75413W        W76277   9.249  29.076  13.258  0.1093 -0.1211  0.0093
75414W        W76278   8.958  28.609  13.279  0.0606  0.0839  0.1034
75415W        W76279   7.878  28.107  15.495  0.0557 -0.2093 -0.1117
75416W        W76280  10.499  26.772  15.882  0.0688  0.1536 -0.0559
75417W        W76281   7.128  28.528  17.959  0.1186  0.1172  0.3321
75418W        W76282   9.118   0.099  14.218 -0.0544  0.2890  0.1127
75419W        W76283  10.991  27.892  16.376  0.0451  0.0833  0.1447
75420W        W76284   7.646  26.041  16.437 -0.1025  0.1806 -0.0046
75421W        W76285   9.661  28.948  19.200  0.1965  0.0420  0.1748
75422W        W76286   8.274   0.139  16.080 -0.1130 -0.2487 -0.0125
75423W        W76287   7.979  27.779  15.989 -0.0847  0.0605 -0.1301
75424W        W76288  10.126  28.637  17.455 -0.0041  0.5404  0.3915
75425W        W76289   8.630  26.272  15.609 -0.2431 -0.2447  0.1764
75426W        W76290   9.886  25.899  15.356 -0.0780  0.1526  0.1613
75427W        W76291   7.063  27.310  16.800 -0.5478  0.1449  0.1771
75428W        W76292   9.984  26.742  14.836 -0.0356 -0.2758 -0.1200
75429W        W76293  10.110   1.269  19.963  0.1187 -0.1495  0.0517
75430W        W76294  10.072  28.785  14.279  0.3075  0.1255 -0.3827
75431W        W76295  12.518  29.064  17.177  0.0013 -0.1112  0.0738
75432W        W76296   8.227  26.654  16.403 -0.0060 -0.0868 -0.2548
75433W        W76297  11.254  28.750  15.476  0.0875 -0.3728 -0.0979
75434W        W76298  11.038  27.513  20.275  0.0367 -0.1619  0.1899
75435W        W76299   7.183  26.928  15.236 -0.2335 -0.2037  0.2491
75436W        W76300   7.101  28.177  17.569 -0.1051  0.1401 -0.1286
75437W        W76301   7.134  27.654  17.225  0.2574  0.3525 -0.1666
75438W        W76302   9.085  27.856  15.012  0.2598  0.4332  0.1804
75439W        W76303   5.979  25.425  16.090 -0.0346  0.2785  0.1579
75440W        W76304   9.048  26.952  16.814  0.1856  0.0310  0.0215
75441W        W76305   6.897  24.858  18.748  0.0651 -0.3001  0.3270
75442W        W76306  10.101  28.301  17.905 -0.1674  0.1144  0.3620
75443W        W76307   8.726  28.051  21.565 -0.2164  0.0595 -0.3147
75444W        W76308  14.350  26.095  15.901 -0.1891  0.0449 -0.0110
75445W        W76309   8.448  28.384  17.071  0.0926  0.2626 -0.1200
75446W        W76310  10.304  25.631  15.540  0.2049  0.2552 -0.0561
75447W        W76311  10.387  27.859  17.817  0.1554 -0.2325  0.2383
75448W        W76312  10.056  25.752  17.916  0.0568  0.1430  0.0788
75449W        W76313  11.740  27.876  17.089  0.0018 -0.1930  0.1125
75450W        W76314  11.115   0.937  19.283 -0.1583  0.1717  0.2934
75451W        W76315   5.534   0.782  13.713  0.0379  0.0117 -0.0530
75452W        W76316   7.412  25.351  16.884 -0.2088  0.1556  0.1480
75453W        W76317   7.107  25.198  14.921 -0.0540  0.1730 -0.0445
75454W        W76318  11.722  27.022  14.799  0.1620  0.0587 -0.1897
75455W        W76319  10.872  27.958  15.260 -0.0610  0.1880  0.0613
75456W        W76320   7.329  27.514  18.028  0.1181 -0.1567 -0.3963
75457W        W76321  11.724  26.382  18.954 -0.3254 -0.0365  0.1727
75458W        W76322  12.346  25.840  15.840 -0.0802  0.0717 -0.1017
75459W        W76323  12.888  28.753  14.918  0.1779 -0.1824 -0.0492
75460W        W76324   7.075  28.535  16.793 -0.0573 -0.0244 -0.0523
75461W        W76325   9.363  26.522  13.063 -0.0933  0.1323  0.2911
75462W        W76326   9.345  28.904  15.154 -0.2284  0.1929  0.2571
75463W        W76327  13.349  26.139  17.592 -0.1707  0.2322 -0.0985
75464W        W76328  10.011  27.293  18.289  0.0090 -0.0030 -0.0334
75465W        W76329  13.012  27.353  16.867  0.1022  0.0185 -0.3259
75466W        W76330   9.900   0.535  16.342 -0.4950 -0.0406 -0.1289
75467W        W76331   8.519  28.408  16.164 -0.0774 -0.0725 -0.1151
75468W        W76332   5.122  26.528  17.133 -0.0364  0.2341  0.1943
75469W        W76333   9.071  28.786  20.360 -0.4556  0.0121  0.0848
75470W        W76334  11.993   1.681  15.488 -0.0685  0.1332 -0.4030
75471W        W76335   8.289  26.221  17.581 -0.4123  0.1333  0.0164
75472W        W76336   9.867   0.734  17.381  0.4160  0.2895  0.0440
75473W        W76337  10.444   1.041  12.926  0.1376 -0.1653 -0.0194
75474W        W76338   9.352  27.187  16.453  0.3397 -0.0821 -0.2386
75475W        W76339  12.613  25.331  15.748 -0.0944 -0.0865  0.0275
75476W        W76340   9.842  27.081  17.870 -0.1568  0.3334  0.2075
75477W        W76341   8.118  23.551  15.545  0.0415 -0.0929  0.0120
75478W        W76342  11.800  26.101  12.452  0.0013 -0.4548 -0.1003
75479W        W76343  12.948  28.525  15.888  0.3032  0.0450  0.0365
75480W        W76344  10.705   2.160  14.880  0.1375 -0.0208 -0.2012
75481W        W76345  10.581   0.479  14.479 -0.1780 -0.0389  0.0714
75482W        W76346   9.116  26.991  13.152 -0.0884  0.0425  0.2230
75483W        W76347  11.670   1.244  15.527  0.2155 -0.0984  0.0174
75484W        W76348   7.788  26.084  15.564  0.2106 -0.2429  0.4427
75485W        W76349   6.744  28.739  14.835 -0.0930 -0.0500  0.2334
75486W        W76350  10.469  28.480  18.654 -0.2374 -0.2386 -0.1364
75487W        W76351  16.049   0.841  17.165 -0.0036  0.1723  0.0289
75488W        W76352   9.818   1.222  16.088 -0.1172 -0.1684  0.0159
75489W        W76353   9.965   0.788  18.153  0.2815 -0.3407  0.3325
75490W        W76354   9.004  25.548  18.496  0.3015  0.1682  0.0192
75491W        W76355   8.390   0.635  15.214 -0.2727  0.2910  0.2827
75492W        W76356   9.588  28.429  15.142  0.2365 -0.0429 -0.1752
75493W        W76357  12.299  26.385  17.587  0.0131 -0.0180  0.3020
75494W        W76358   8.684  24.458  18.077 -0.0539  0.2017  0.1785
75495W        W76359  11.411  28.373  14.556  0.0282 -0.0940 -0.0725
75496W        W76360   9.987  27.067  15.849 -0.1189  0.3177  0.0190
75497W        W76361  11.376  27.904  14.313  0.0850  0.2805 -0.0783
75498W        W76362   8.286   0.640  12.020  0.1924  0.1012 -0.1673
75499W        W76363   8.032  24.695  15.111 -0.1359  0.1633  0.0199
75500W        W76364   9.178  26.646  16.439 -0.0155  0.0451 -0.1306
75501W        W76365   8.084   0.139  12.491  0.0669  0.1025  0.1420
75502W        W76366  10.236  28.479  12.155 -0.0569  0.1620  0.1824
75503W        W76367   8.767  25.764  17.014  0.1403  0.0009 -0.1337
75504W        W76368   9.022  26.671  17.524 -0.3197 -0.0682  0.0409
75505W        W76369  12.810  26.423  14.223  0.1941  0.0934 -0.1391
75506W        W76370  10.868   0.906  17.973 -0.1541 -0.0327  0.1220
75507W        W76371   8.336   0.556  17.106  0.0569  0.2663  0.1593
75508W        W76372   9.953   0.881  20.427 -0.1547 -0.1841  0.2506
75509W        W76373  10.840   1.771  18.056  0.4692  0.2494  0.1651
75510W        W76374  11.239  26.033  14.725  0.2967 -0.2720  0.0535
75511W        W76375   8.358   2.735  14.530 -0.0885 -0.1059  0.0551
75512W        W76376   8.365  24.501  15.795  0.3607 -0.3190  0.1665
75513W        W76377   8.717  26.586  16.626  0.3434 -0.1395  0.0085
75514W        W76378   7.053  23.546  18.036  0.1298 -0.1487 -0.1114
75515W        W76379   8.551  28.234  14.268 -0.2486  0.0602  0.3590
75516W        W76380   8.992  27.481  16.207 -0.2677  0.3594  0.0431
75517W        W76381   8.785  25.553  14.532  0.0126 -0.0889 -0.1156
75518W        W76382   8.971  28.906  15.521  0.1123 -0.1966 -0.2837
75519W        W76383  12.129  24.350  16.129  0.0497 -0.0296 -0.1662
75520W        W76384   9.104  26.674  20.816 -0.3187 -0.0980 -0.2895
75521W        W76385  11.239  27.745  17.904  0.2570 -0.1911  0.1167
75522W        W76386  10.154   1.290  18.153 -0.1053 -0.1160 -0.1830
75523W        W76387   9.662  28.092  15.671  0.4560  0.0971 -0.1788
75524W        W76388   7.131  26.408  14.416  0.0222 -0.3215  0.3053
75525W        W76389   8.790  24.261  15.852 -0.1417 -0.0580 -0.0146
75526W        W76390   3.663   0.221  15.979 -0.0092 -0.2649  0.3501
75527W        W76391  12.316  27.085  18.792 -0.0683  0.2538 -0.0315
75528W        W76392   9.702  27.398  16.883 -0.2258  0.0879 -0.0643
75529W        W76393  10.998  29.064  15.917 -0.0101 -0.0437 -0.0722
75530W        W76394   8.382  28.756  14.253 -0.0080  0.0017 -0.0959
75531W        W76395   8.016  28.062  17.569  0.1578  0.1956  0.0185
75532W        W76396   9.144   1.339  13.672  0.1908 -0.1242 -0.3333
75533W        W76397  11.365  26.814  14.578 -0.4157 -0.4110  0.0483
75534W        W76398  10.197  27.160  17.133  0.0738 -0.0158  0.0302
75535W        W76399   7.772  27.660  18.877  0.3145 -0.1542  0.2178
75536W        W76400   5.457  28.168  19.107  0.2773 -0.0333  0.0183
75537W        W76401   9.151   2.118  14.352  0.2435  0.0546 -0.1634
75538W        W76402   6.846  21.476  17.066 -0.0551 -0.0149 -0.1431
75539W        W76403   8.292  28.018  16.369 -0.0977  0.3395  0.2440
75540W        W76404  10.514  27.215  16.781  0.2239 -0.2486  0.0020
75541W        W76405  11.349   0.885  15.627 -0.0909  0.2555  0.1496
75542W        W76406   7.335  26.705  17.556  0.0208 -0.0778  0.0499
75543W        W76407   9.607  27.103  14.907 -0.0115 -0.2882 -0.0663
75544W        W76408  10.309  26.505  20.027 -0.0137  0.0375  0.2839
75545W        W76409  10.988  26.491  15.868  0.0996 -0.3435 -0.0077
75546W        W76410   5.038  27.379  15.451  0.0917 -0.0136 -0.0973
75547W        W76411  11.883  27.173  18.565 -0.3008 -0.1152 -0.2978
75548W        W76412   9.484  26.392  17.194 -0.1081  0.0040  0.2317
75549W        W76413   6.987  28.031  18.077  0.0920  0.0303 -0.3576
75550W        W76414   4.466   0.795  15.946 -0.2592  0.3064 -0.3233
75551W        W76415   9.092  27.620  17.607 -0.2146  0.1439 -0.0113
75552W        W76416   8.525  26.285  17.105 -0.1039 -0.0542  0.0970
75553W        W76417   9.228  25.768  19.831 -0.2288 -0.0018  0.4153
75554W        W76418  10.584  27.570  16.395  0.1174 -0.1312 -0.1388
75555W        W76419  10.552  25.025  14.415  0.0808  0.2034 -0.0716
75556W        W76420   9.033  25.466  15.760 -0.1345 -0.2272 -0.1505
75557W        W76421   7.050  24.620  16.310  0.1188 -0.1339 -0.0622
75558W        W76422  11.661  25.391  16.278 -0.0261  0.0216 -0.2372
75559W        W76423   6.389  26.891  15.684  0.2971  0.0454  0.1736
75560W        W76424   8.329  27.202  15.428  0.2714  0.0199 -0.0245
75561W        W76425   7.732  27.902  16.462 -0.1227 -0.0014 -0.4116
75562W        W76426   7.322  24.231  17.167 -0.1446 -0.1036 -0.1360
75563W        W76427  11.165  27.263  17.494  0.2739 -0.2855  0.0173
75564W        W76428   8.630  25.209  15.481  0.1421 -0.2449 -0.2238
75565W        W76429   6.809  26.740  17.958 -0.0835 -0.2871 -0.1125
75566W        W76430   8.083  28.611  17.300  0.0686  0.1670  0.0287
75567W        W76431   9.629   0.006  14.393  0.4443 -0.0666 -0.0868
75568W        W76432   5.810  24.670  14.858  0.1356  0.2452  0.2728
75569W        W76433   9.209  26.124  19.298  0.0682 -0.4402  0.0520
75570W        W76434   9.748  27.609  15.721  0.0696  0.4006  0.1319
75571W        W76435   8.102  27.279  19.298 -0.0720 -0.3232  0.0139
75572W        W76436  11.367  26.519  16.849  0.0643 -0.0071 -0.0819
75573W        W76437  11.838  29.036  17.579 -0.2858  0.2510  0.0019
75574W        W76438  11.874  27.872  13.184  0.0468 -0.2119  0.2546
75575W        W76439   7.886   1.194  18.452  0.0043 -0.0432  0.0025
75576W        W76440   7.764   3.361  14.159  0.4012  0.2187  0.2171
75577W        W76441   9.095   1.586  19.205  0.1612 -0.1086  0.0141
75578W        W76442   6.950  27.881  20.139  0.4070 -0.2064  0.2090
75579W        W76443  11.397  25.296  20.188  0.2783  0.0743  0.2465
75580W        W76444  10.070  27.666  14.829  0.1765  0.0888 -0.0740
75581W        W76445   8.825  27.024  16.330  0.3191  0.1333 -0.2510
75582W        W76446  11.227  24.687  16.444  0.0941  0.2401 -0.0677
75583W        W76447  10.984  28.932  17.409  0.2455 -0.2292 -0.4194
75584W        W76448   5.431  24.501  18.214  0.2137 -0.0496 -0.0647
75585W        W76449   8.454  27.998  18.583  0.0784  0.1637 -0.0167
75586W        W76450  12.363  28.751  14.778  0.0167 -0.0416  0.3280
75587W        W76451   9.493   1.754  16.720  0.0490 -0.0370 -0.0998
75588W        W76452   8.034   1.135  16.072  0.0450  0.1821  0.2303
75589W        W76453   7.272  26.383  16.461 -0.1472  0.0261  0.0344
75590W        W76454  10.569  24.341  17.804  0.0810 -0.3695  0.0633
75591W        W76455   7.927  28.711  14.605  0.1075  0.0616  0.1849
75592W        W76456   9.952  27.670  18.012  0.1514  0.4343 -0.2083
75593W        W76457   7.114  25.886  17.104 -0.3387  0.1242  0.0055
75594W        W76458   7.606   0.017  17.356 -0.2645  0.1852  0.1067
75595W        W76459  12.334  27.235  17.679  0.0813 -0.2527  0.0233
75596W        W76460  12.091  25.022  17.133  0.2086 -0.0561 -0.1867
75597W        W76461  11.207  28.661  18.191 -0.0760  0.4774 -0.0864
75598W        W76462  10.173   0.899  18.662  0.1948  0.0219  0.2430
75599W        W76463   8.673  28.734  16.744  0.0004  0.1941 -0.0217
75600W        W76464   6.930   0.573  19.523  0.0467 -0.1630  0.2689
75601W        W76465   9.541  27.333  16.025  0.1026 -0.1995 -0.1773
75602W        W76466   9.006  25.432  15.204 -0.0558 -0.0775 -0.0010
75603W        W76467   9.402  25.775  17.625 -0.1221  0.2160 -0.1219
75604W        W76468   8.597  24.778  15.072  0.1329  0.2578  0.1988
75605W        W76469  10.092  28.868  16.956  0.2582  0.1418  0.1474
75606W        W76470   8.959   0.826  20.744  0.1946  0.1679  0.2630
75607W        W76471  10.413   1.867  14.523 -0.0047  0.1077 -0.1077
75608W        W76472   7.946  28.303  14.967 -0.0094 -0.1477  0.0118
75609W        W76473  10.839  27.033  17.909 -0.2217 -0.0175 -0.1567
75610W        W76474  10.166  27.892  14.383  0.3520 -0.2728 -0.1461
75611W        W76475  11.488  28.163  18.287  0.2435 -0.2634  0.4828
75612W        W76476   8.497  24.697  16.214 -0.0434 -0.3868 -0.1620
75613W        W76477   8.985  26.313  14.748 -0.1106 -0.0504 -0.0720
75614W        W76478  12.445  28.510  10.541  0.1995  0.3178  0.0406
75615W        W76479  12.870  27.206  17.466 -0.3099 -0.1895 -0.1102
75616W        W76480   8.614  27.833  17.406 -0.1571 -0.0559  0.1217
75617W        W76481  11.454  28.855  17.264  0.1875  0.1777 -0.0102
75618W        W76482  12.606  26.948  14.950 -0.0815 -0.0165  0.2179
75619W        W76483  11.385  25.556  15.887  0.0820  0.0055 -0.1516
75620W        W76484   9.829  28.011  19.400  0.0205  0.0203 -0.2916
75621W        W76485   9.798  28.704  15.478 -0.0219  0.1154 -0.0732
75622W        W76486  10.391  25.230  18.475  0.3114  0.1209 -0.0117
75623W        W76487   7.001   0.004  17.290  0.0246  0.0761 -0.0852
75624W        W76488   7.500  27.545  16.739 -0.0258  0.0772 -0.0424
75625W        W76489   7.705   0.782  15.312 -0.3167  0.0003  0.0063
75626W        W76490   9.754  25.878  16.459  0.1501  0.0815 -0.0475
75627W        W76491   4.918  26.898  18.316  0.1046  0.1589 -0.1345
75628W        W76492  13.675  26.775  13.780  0.2044  0.0306 -0.0223
75629W        W76493   7.355  28.093  16.830 -0.1971 -0.1606 -0.1623
75630W        W76494  12.257  28.569  20.981 -0.1621 -0.1332 -0.0691
75631W        W76495  10.647  27.242  15.945  0.1676 -0.1439  0.0361
75632W        W76496   7.993  26.340  16.795 -0.2455 -0.1510  0.0281
75633W        W76497   9.008  28.426  17.030  0.1800 -0.2755 -0.0638
75634W        W76498  10.224  24.817  16.483  0.0151  0.2797  0.3576
75635W        W76499   8.213  27.744  19.057 -0.1004 -0.0266 -0.2185
75636W        W76500   8.618  26.001  19.369 -0.2389 -0.1709 -0.1410
75637W        W76501  10.134  26.242  16.410  0.0378 -0.0836  0.2057
75638W        W76502   6.924   0.851  21.551  0.0461  0.1282 -0.2301
75639W        W76503   7.774  27.711  17.204 -0.2154 -0.2054 -0.2642
75640W        W76504  11.255  26.102  12.686  0.0486 -0.2066  0.0650
75641W        W76505   5.741  28.128  16.575  0.1285  0.3064  0.1272
75642W        W76506   5.306   0.039  18.073  0.4021 -0.1407  0.1040
75643W        W76507   9.314   1.422  14.976 -0.2182 -0.2154 -0.3756
75644W        W76508  14.457  25.657  19.379 -0.0832 -0.1160  0.1632
75645W        W76509   9.207   1.468  15.518 -0.1085  0.3476 -0.2577
75646W        W76510   8.224  24.011  15.693 -0.2464 -0.0147 -0.1909
75647W        W76511  10.945  27.185  15.052  0.2619  0.1191 -0.3402
75648W        W76512  10.909   0.384  14.930 -0.0283 -0.2326  0.0793
75649W        W76513  10.241  27.508  14.045  0.0402 -0.1083  0.1562
75650W        W76514  13.036  25.145  18.073  0.1728 -0.1166  0.0347
75651W        W76515   8.660  26.270  16.257 -0.0555  0.1642  0.2704
75652W        W76516   4.051  24.733  15.469  0.0793  0.2321 -0.0969
75653W        W76517   7.455  27.670  17.580  0.0816  0.1930  0.1318
75654W        W76518   9.826  26.037  15.811 -0.1963  0.3411  0.0583
75655W        W76519  11.299  26.854  17.257 -0.0530 -0.1301  0.0348
75656W        W76520  11.526   1.192  15.034 -0.2499  0.2082 -0.0354
75657W        W76521   9.588  26.585  15.707 -0.1163 -0.0933  0.1497
75658W        W76522   4.777  28.709  13.503 -0.0327  0.0121 -0.0807
75659W        W76523   7.784  28.629  16.512 -0.0206 -0.2354 -0.1794
75660W        W76524   8.163  25.407  17.610 -0.1047 -0.1893  0.1886
75661W        W76525   9.072  27.092  19.436 -0.0461  0.2425 -0.3281
75662W        W76526   9.796  28.177  12.841 -0.4185 -0.4621  0.0648
75663W        W76527   9.269  28.270  16.104  0.0263  0.2856 -0.2699
75664W        W76528  11.507  28.080  17.644  0.1717 -0.1041  0.3505
75665W        W76529  10.597  28.136  18.257 -0.1433 -0.1313  0.1016
75666W        W76530  10.444  28.512  17.095  0.1216  0.0742 -0.1662
75667W        W76531   9.919  24.869  17.007 -0.0650 -0.0659  0.5462
75668W        W76532   7.679   0.045  19.971 -0.3199  0.0005 -0.0953
75669W        W76533   9.672  27.785  14.424  0.1428 -0.0408  0.1103
75670W        W76534   7.179  28.635  17.336 -0.1171  0.1684 -0.2177
75671W        W76535  10.053  28.445  16.654 -0.0241 -0.1750  0.2202
75672W        W76536   8.065  27.689  18.445 -0.1400  0.0284  0.1109
75673W        W76537   8.562  25.471  19.370 -0.0035  0.0798 -0.4553
75674W        W76538   8.346  28.955  17.054  0.4279  0.3024 -0.2279
75675W        W76539   7.464  26.024  15.100 -0.2860  0.2091  0.2501
75676W        W76540  10.468  26.102  13.400 -0.0972 -0.1661  0.1096
75677W        W76541   8.502  28.293  17.581 -0.4338 -0.0327  0.1462
75678W        W76542   8.942  27.091  15.417 -0.1031  0.1159  0.3897
75679W        W76543   5.582  26.735  17.051  0.1586 -0.0317  0.0443
75680W        W76544   9.148  28.970  14.639  0.0304  0.2038  0.0975
75681W        W76545   7.179  26.534  19.526  0.0931 -0.1124  0.0485
75682W        W76546  11.075  28.038  15.765 -0.2537 -0.1579 -0.3947
75683W        W76547   7.231  29.022  17.854  0.1918 -0.1181 -0.3585
75684W        W76548   8.704  27.451  17.047 -0.0084  0.1745  0.1971
75685W        W76549   7.628  25.095  15.152 -0.1336 -0.1173  0.1099
75686W        W76550   6.777  25.753  16.260  0.0438  0.1125 -0.4225
75687W        W76551   7.280   0.729  15.973 -0.0387  0.0037 -0.1212
75688W        W76552   6.419   0.090  16.114  0.0986 -0.0593 -0.0631
75689W        W76553   8.645  26.704  15.999 -0.5805  0.0501 -0.0688
75690W        W76554   9.456  25.004  15.993 -0.2695  0.1308  0.0223
75691W        W76555  11.500  25.869  18.035 -0.3073 -0.0076 -0.1248
75692W        W76556   9.699  28.483  17.693 -0.1706 -0.1145  0.0923
75693W        W76557  10.156   2.067  17.452  0.2243 -0.2085 -0.1892
75694W        W76558   7.745   0.645  18.429  0.2142 -0.1987  0.1980
75695W        W76559   7.774   0.815  15.816 -0.3894  0.2177 -0.0409
75696W        W76560  10.102  27.617  16.109  0.0935  0.0934 -0.2875
75697W        W76561  12.170  27.711  14.490 -0.0265 -0.0222  0.1891
75698W        W76562  10.350  25.557  14.119 -0.2115 -0.1024  0.1344
75699W        W76563   5.971  28.637  15.508 -0.1541 -0.1224 -0.0770
75700W        W76564   9.168  28.033  15.468 -0.0227  0.2486  0.3661
75701W        W76565   9.966  26.408  15.288  0.0444  0.2258 -0.0669
75702W        W76566   8.146   0.984  15.422  0.0373 -0.1436  0.0369
75703W        W76567   8.237  26.991  15.949  0.1983 -0.2009 -0.0629
75704W        W76568   8.314   0.701  19.651  0.2430 -0.0340  0.0533
75705W        W76569   9.610  26.669  17.623 -0.1820  0.2367 -0.1107
75706W        W76570   6.579  27.668  16.931  0.0270  0.1967  0.3062
75707W        W76571   8.028  28.556  15.710 -0.1546 -0.1374 -0.0303
75708W        W76572   6.174  24.235  15.503  0.1930  0.3778 -0.0192
75709W        W76573   9.671  27.533  19.163  0.1728  0.3331 -0.2044
75710W        W76574  12.341  27.639  13.974  0.0388  0.1463 -0.2703
75711W        W76575  11.512  27.417  16.966 -0.0525 -0.2161 -0.1074
75712W        W76576  10.187  28.039  16.943  0.3606 -0.0385 -0.0528
75713W        W76577   6.368  27.920  15.159  0.3405 -0.0342  0.3935
75714W        W76578   8.394  25.214  16.302 -0.3232  0.3801  0.1457
75715W        W76579   7.995   3.375  15.041  0.5687 -0.2643  0.0254
75716W        W76580  11.424  27.048  18.468  0.0128  0.1656  0.1164
75717W        W76581   7.329  23.642  17.176  0.2580  0.0721  0.4082
75718W        W76582   8.683  27.172  15.889 -0.0245  0.0459 -0.0607
75719W        W76583   7.345  29.127  15.903 -0.2471  0.1194  0.0908
75720W        W76584   9.651  28.861  18.673  0.1066  0.0642  0.0887
75721W        W76585   8.827  27.218  18.836 -0.1255  0.1098 -0.2277
75722W        W76586   9.845  27.468  15.243  0.0365  0.3887  0.2749
75723W        W76587   8.605   1.303  16.791 -0.0651 -0.2412 -0.2432
75724W        W76588   8.711  28.764  17.443 -0.0969  0.3413  0.0186
75725W        W76589   9.255   0.971  15.313 -0.1322  0.3502 -0.3323
75726W        W76590  10.539  26.518  16.575 -0.1625  0.3372 -0.2118
75727W        W76591   8.945  28.684  15.961  0.0816 -0.0770  0.0613
75728W        W76592  10.525  25.158  15.720  0.1819  0.0450 -0.1650
75729W        W76593   7.407  26.478  14.834  0.3454 -0.2966  0.0005
75730W        W76594   9.390  27.831  17.084  0.0125  0.0059 -0.5074
75731W        W76595   7.930   1.335  15.091 -0.0972 -0.0252 -0.1938
75732W        W76596  12.841  27.627  19.732 -0.1486  0.1578 -0.3257
75733W        W76597   8.487   4.789  15.239  0.1061 -0.1005  0.0003
75734W        W76598   7.417  24.402  17.668 -0.0508 -0.0144 -0.0209
75735W        W76599   8.329  25.970  18.050 -0.3721 -0.1331 -0.0766
75736W        W76600   8.809  27.602  18.479 -0.0670 -0.1687 -0.1779
75737W        W76601   9.754  26.047  18.158  0.2032 -0.1905  0.0929
75738W        W76602   7.407  26.012  18.057  0.1554  0.1535 -0.1502
75739W        W76603   8.844   0.078  15.202 -0.0142  0.3260  0.2653
75740W        W76604  10.226   0.925  16.313  0.0863 -0.2573  0.0130
75741W        W76605   8.652  27.670  16.483  0.2233 -0.1306  0.0990
75742W        W76606  10.133  27.610  16.653  0.4463  0.2864  0.1757
75743W        W76607   8.712  28.533  18.678  0.0865 -0.0586  0.0215
75744W        W76608  10.288  27.225  14.949 -0.1198  0.0475  0.2205
75745W        W76609  13.062   0.612  16.314  0.2183 -0.2976  0.4224
75746W        W76610   8.850  27.978  17.902  0.3383 -0.1642 -0.0199
75747W        W76611   7.787  29.051  16.844 -0.0855 -0.1462  0.2196
75748W        W76612   8.697  28.230  16.625  0.1548 -0.0123 -0.1279
75749W        W76613  10.754  28.305  19.575 -0.0413 -0.1856 -0.1569
75750W        W76614   7.124  27.251  17.554  0.3101  0.1525  0.3057
75751W        W76615  10.365   1.075  15.872  0.0621 -0.1486 -0.2290
75752W        W76616  10.140   1.354  14.942 -0.1765  0.0718  0.2355
75753W        W76617   5.207   1.041  15.896 -0.2391  0.0483 -0.2840
75754W        W76618  10.058  25.564  19.290  0.2600 -0.2007  0.0303
75755W        W76619   7.906  27.777  17.958 -0.2638 -0.0890 -0.2910
75756W        W76620   6.475  28.095  20.005 -0.2758  0.2107 -0.2401
75757W        W76621   8.622  27.970  15.474  0.0982  0.1956 -0.0469
75758W        W76622   5.403  26.386  13.168  0.2074  0.1124  0.0737
75759W        W76623   7.730   3.493  19.479  0.0237  0.2788 -0.3810
75760W        W76624   6.696  26.695  20.220  0.1333  0.1910  0.1829
75761W        W76625  11.938  27.309  17.941 -0.2227  0.1885 -0.0179
75762W        W76626  11.266   0.573  20.364  0.0123 -0.0740  0.0017
75763W        W76627   9.443  28.362  21.075  0.0536 -0.1355  0.1053
75764W        W76628   6.775  26.859  17.493 -0.0237 -0.0003 -0.0042
75765W        W76629   7.688  26.184  20.767 -0.0782  0.0696  0.2503
75766W        W76630   9.459  27.654  19.612 -0.1850  0.0850 -0.3066
75767W        W76631  11.831  27.710  22.730  0.1345 -0.0517  0.1211
75768W        W76632   8.203  28.738  20.635 -0.4242  0.0927  0.0340
75769W        W76633   8.990  24.955  19.484  0.1726 -0.0027 -0.0927
75770W        W76634  10.204  27.696  20.375  0.4270 -0.1317 -0.0883
75771W        W76635  10.842  25.255  18.106  0.2068  0.1494  0.1702
75772W        W76636  10.994  27.151  22.936  0.2303 -0.1988 -0.1975
75773W        W76637   8.560   0.083  20.972 -0.0257 -0.0350  0.0843
75774W        W76638   8.207   0.531  20.878  0.1298 -0.0495  0.1394
75775W        W76639  10.374  28.700  20.700  0.1123  0.0162  0.1861
75776W        W76640   7.566  25.996  19.574  0.0529  0.2211 -0.0814
75777W        W76641   8.256  28.194  21.613  0.2062 -0.4436 -0.3642
75778W        W76642  10.043   0.507  19.612  0.0942 -0.2441  0.1787
75779W        W76643   9.136  28.628  18.337  0.1824 -0.1480  0.1721
75780W        W76644   9.423  26.440  18.972 -0.2349  0.2708 -0.1856
75781W        W76645  10.017  28.553  20.309 -0.0518 -0.0185 -0.0638
75782W        W76646   9.063  27.486  19.202 -0.0937 -0.2920  0.3049
75783W        W76647   7.173  24.595  20.745  0.0069 -0.0556 -0.1151
75784W        W76648   9.537  25.762  21.717 -0.1333 -0.1564  0.0715
75785W        W76649  11.092   0.121  20.616 -0.2514 -0.0101  0.0618
75786W        W76650   9.973  27.724  19.943  0.0804 -0.0412  0.1625
75787W        W76651   8.574   0.280  19.997 -0.0504  0.1830 -0.2138
75788W        W76652   9.573  25.588  18.389 -0.0186  0.2632  0.2014
75789W        W76653   8.320  25.681  20.748  0.1398  0.0544  0.2153
75790W        W76654  11.467  27.400  21.652 -0.0586  0.0017 -0.3831
75791W        W76655   8.761  24.761  21.804 -0.0924  0.1171  0.1194
75792W        W76656   9.718  27.243  21.010  0.2485 -0.0780 -0.0647
75793W        W76657  11.882   1.459  20.456 -0.1592  0.0598 -0.0929
75794W        W76658   7.103  24.449  23.015 -0.0853  0.0669 -0.3254
75795W        W76659   7.733   0.789  19.418 -0.0362 -0.1225 -0.0474
75796W        W76660  10.877  28.420  20.842  0.3084  0.1267  0.0498
75797W        W76661  12.644  28.881  21.180  0.0364  0.0493 -0.1654
75798W        W76662   9.517  26.628  19.861  0.0441  0.2480  0.1061
75799W        W76663   9.872  28.512  20.828  0.1482 -0.0860  0.0315
75800W        W76664   9.356   2.853  22.123  0.1948 -0.3711 -0.2275
75801W        W76665  12.369  27.906  17.326  0.1387 -0.0156  0.0546
75802W        W76666   7.991   1.510  19.687  0.1075 -0.0254 -0.1846
75803W        W76667   8.595   2.775  20.301 -0.1162  0.0105 -0.0505
75804W        W76668   8.614  24.523  18.641  0.2716  0.0885 -0.0540
75805W        W76669  11.674  27.173  22.452  0.1262 -0.1135 -0.1829
75806W        W76670   9.523  25.358  17.347  0.0933  0.0827  0.1844
75807W        W76671   9.040  26.542  17.033  0.1688  0.1491 -0.0633
75808W        W76672   9.722   0.321  21.902 -0.1199  0.1212 -0.0323
75809W        W76673   8.779  25.639  18.008  0.0403 -0.2579 -0.2730
75810W        W76674   9.166   2.365  20.467 -0.0488  0.0158  0.1371
75811W        W76675  10.772  28.930  20.389  0.1965 -0.0390 -0.1847
75812W        W76676   9.536  26.139  19.676 -0.0735  0.2652  0.2148
75813W        W76677   6.963   1.006  18.560  0.0987 -0.1199  0.0950
75814W        W76678   8.639  26.965  17.254 -0.0404  0.0026  0.0307
75815W        W76679  10.397  26.913  20.350  0.0379  0.0138 -0.0769
75816W        W76680   6.804   0.713  21.051  0.0629 -0.1922 -0.1293
75817W        W76681   6.831  28.370  19.820 -0.3211 -0.0478  0.2994
75818W        W76682  10.139  27.498  17.537  0.0070 -0.0257 -0.4018
75819W        W76683   7.215  28.611  19.585  0.0787 -0.0707 -0.2830
75820W        W76684   9.774  28.966  22.611  0.0773 -0.2296 -0.0567
75821W        W76685  10.551  28.107  21.581  0.0793  0.0017  0.0681
75822W        W76686   8.217  25.439  19.005  0.0226  0.2923 -0.0256
75823W        W76687  13.928  25.245  22.611 -0.2157 -0.0323  0.0753
75824W        W76688   9.525   0.383  19.448 -0.0884  0.0931 -0.0345
75825W        W76689   8.063  26.807  18.441  0.2915 -0.3567  0.1164
75826W        W76690   9.765   0.565  20.872 -0.0995 -0.3416 -0.1080
75827W        W76691   8.887  28.284  19.220 -0.2402 -0.0416 -0.2626
75828W        W76692  10.661  28.993  20.981 -0.2482 -0.2098  0.2688
75829W        W76693  12.846  24.469  18.344  0.1843 -0.0595 -0.1836
75830W        W76694   9.149  27.928  16.452  0.0662 -0.2067 -0.0164
75831W        W76695   9.479  28.422  20.381  0.0258 -0.2675 -0.0408
75832W        W76696  11.436  28.614  18.649 -0.0758  0.0525  0.0376
75833W        W76697  11.198  26.758  21.662  0.1510 -0.2134 -0.1237
75834W        W76698   6.026  26.905  20.098 -0.2457  0.1933 -0.0905
75835W        W76699   7.760   0.890  21.644 -0.5074 -0.1059 -0.3152
75836W        W76700  11.429  23.911  17.588 -0.0079  0.0807  0.2990
75837W        W76701  10.319  26.906  18.198  0.0180 -0.0438  0.0329
75838W        W76702   8.707  25.993  18.452  0.0962  0.0768 -0.0118
75839W        W76703   7.131   2.044  22.132  0.2407 -0.1280  0.3179
75840W        W76704   6.518  25.982  17.190 -0.2734  0.1550  0.1209
75841W        W76705   6.706  25.484  17.151 -0.2332  0.1525 -0.0963
75842W        W76706   8.539  25.048  24.325  0.0574  0.2351  0.1545
75843W        W76707   8.719  26.572  18.577 -0.3178  0.1060 -0.0784
75844W        W76708  11.194  28.204  23.258 -0.0414 -0.1036 -0.0358
75845W        W76709  10.981  25.656  23.608 -0.0129 -0.1408 -0.1941
75846W        W76710   8.133  26.932  23.782 -0.0132 -0.1162 -0.3830
75847W        W76711  10.963  25.960  20.567  0.0948 -0.2355 -0.1403
75848W        W76712  13.693  25.757  20.888  0.2702 -0.0017 -0.1091
75849W        W76713   9.841   1.164  19.031  0.0369 -0.1017 -0.2740
75850W        W76714   8.545  25.921  21.104 -0.1442  0.2733 -0.1000
75851W        W76715   9.490  24.811  19.761  0.0451  0.1648  0.0654
75852W        W76716   7.970  27.389  22.922 -0.0662 -0.1634 -0.0298
75853W        W76717  12.705   0.822  18.263  0.3110  0.0955 -0.3921
75854W        W76718  11.131  27.889  18.933  0.0310 -0.1184 -0.1679
75855W        W76719   8.329   1.521  22.511 -0.0341 -0.1797 -0.0785
75856W        W76720   9.544  25.666  19.407  0.1111  0.0394  0.1466
75857W        W76721  11.699  23.375  19.834  0.0889  0.0946  0.0521
75858W        W76722  10.113   0.379  17.661 -0.0556  0.0911 -0.1760
75859W        W76723   7.640  26.819  22.210  0.1053  0.4419 -0.0940
75860W        W76724  11.578  28.325  17.205 -0.0830 -0.2688 -0.2848
75861W        W76725  11.029   1.919  17.594 -0.1565  0.1876  0.2419
75862W        W76726  10.602  26.406  19.066  0.1280 -0.3005  0.1290
75863W        W76727   8.510  26.644  19.669 -0.0171 -0.0981 -0.1982
75864W        W76728   8.663  27.508  20.609 -0.0503 -0.1082  0.4447
75865W        W76729   9.612  26.073  23.379  0.4922  0.1813  0.1246
75866W        W76730  11.489  25.594  18.748  0.2704 -0.3956  0.0803
75867W        W76731   7.245  27.126  19.060 -0.2809  0.0549  0.1625
75868W        W76732   8.608   0.375  21.410 -0.1197 -0.1435 -0.2460
75869W        W76733  11.054   2.520  19.915 -0.0237 -0.1176  0.1224
75870W        W76734   8.794  26.465  20.381 -0.0217  0.1349  0.1157
75871W        W76735  10.492   1.726  21.717 -0.2662 -0.2255  0.1032
75872W        W76736  12.199   0.086  18.603  0.2737  0.0339  0.0383
75873W        W76737   9.994  26.316  19.524 -0.0541  0.1845  0.0770
75874W        W76738  10.098  26.258  22.124 -0.1001 -0.0707 -0.0853
75875W        W76739   9.681   0.846  19.546  0.2010  0.0400  0.2881
75876W        W76740   8.103  25.933  19.898 -0.2589 -0.1673  0.0155
75877W        W76741   9.406  26.858  21.246  0.2418 -0.2799 -0.0716
75878W        W76742   9.205  28.524  18.953 -0.0765  0.0775  0.1623
75879W        W76743   9.296   0.610  17.331  0.3286  0.3544  0.3151
75880W        W76744  11.369   1.167  20.820 -0.0564 -0.3188 -0.1096
75881W        W76745  10.078   0.638  21.379  0.1494  0.2474  0.1861
75882W        W76746   7.795  27.136  18.838 -0.2854 -0.0275  0.0475
75883W        W76747  10.084  28.748  19.258  0.2448  0.0634 -0.2139
75884W        W76748   8.081  26.216  16.274 -0.0924 -0.2139 -0.2500
75885W        W76749  10.010  28.960  20.534 -0.0025 -0.0045 -0.0854
75886W        W76750  11.293   0.479  17.925 -0.0120  0.1204  0.2373
75887W        W76751   9.274   1.133  19.828  0.1982 -0.4787 -0.3331
75888W        W76752  11.652   1.242  22.741  0.1379 -0.0839  0.1070
75889W        W76753   7.945  27.757  21.601 -0.5239 -0.1749  0.1971
75890W        W76754   7.505   2.485  19.946 -0.1643 -0.0651 -0.0542
75891W        W76755   9.474  27.898  22.014  0.1943 -0.0025 -0.1240
75892W        W76756  12.472  27.355  21.397 -0.1217 -0.0269 -0.2722
75893W        W76757   9.164  26.567  19.425  0.2531  0.0323  0.0960
75894W        W76758   6.831  27.656  21.806  0.0359  0.2163 -0.2223
75895W        W76759   9.896  28.007  20.971 -0.3823 -0.0265  0.0416
75896W        W76760   8.719   0.795  18.767  0.1352  0.1557 -0.1271
75897W        W76761   7.576  27.335  21.325  0.0702 -0.1818 -0.0151
75898W        W76762   6.003  28.113  17.696 -0.1110  0.2652  0.0078
75899W        W76763  10.537  26.642  21.018 -0.0657  0.1465  0.2669
75900W        W76764   8.270  27.802  20.299 -0.1497 -0.1299 -0.0565
75901W        W76765   9.137  22.643  20.388  0.5020 -0.1806  0.3278
75902W        W76766  10.028   0.991  20.976  0.0299  0.2675 -0.4659
75903W        W76767   8.029  26.062  20.421 -0.3702 -0.2929 -0.2500
75904W        W76768  12.381  26.197  21.122  0.1542  0.1071 -0.3666
75905W        W76769  12.153  28.565  19.959  0.0237  0.1440 -0.5107
75906W        W76770  10.511   3.714  18.126 -0.1823 -0.2022 -0.1884
75907W        W76771   9.949  28.781  21.711 -0.3448 -0.2456 -0.1238
75908W        W76772  12.386  28.978  20.737  0.1573 -0.1109  0.1640
75909W        W76773   7.816  26.801  17.994  0.1389  0.0819 -0.2398
75910W        W76774   9.638  27.837  18.370  0.4010  0.1929 -0.2974
75911W        W76775   6.542  26.725  16.121 -0.2070  0.0578 -0.2039
75912W        W76776   8.955  26.213  19.739 -0.0036 -0.2256 -0.1384
75913W        W76777  12.123  25.835  21.319  0.0889  0.0998 -0.2653
75914W        W76778   7.737   2.214  21.438 -0.3364  0.1386 -0.0589
75915W        W76779   9.903  24.187  19.363  0.3019  0.1028  0.1913
75916W        W76780   9.086  24.299  18.743 -0.1539  0.1785 -0.2465
75917W        W76781   8.939  27.071  21.096 -0.0248  0.0885  0.2863
75918W        W76782  10.043  27.072  20.676 -0.2013  0.0259 -0.0261
75919W        W76783   9.461   1.371  21.589  0.2774  0.1832  0.1378
75920W        W76784  11.005  28.235  21.736  0.0182 -0.1537  0.0605
75921W        W76785   9.355   0.085  19.802 -0.1818  0.0806 -0.0331
75922W        W76786   9.776  26.883  21.592 -0.2059  0.0910  0.2605
75923W        W76787   8.185  26.189  20.907  0.1346 -0.0766  0.0106
75924W        W76788   9.646  27.307  18.637 -0.0957 -0.3547 -0.0983
75925W        W76789   8.557  27.985  20.625 -0.2232 -0.0587  0.0944
75926W        W76790   8.093   1.832  21.731  0.2172  0.1971 -0.3524
75927W        W76791   8.248  27.238  18.252  0.0110 -0.2718 -0.0525
75928W        W76792   9.267  27.124  20.691  0.0071 -0.2413  0.1588
75929W        W76793   7.746  27.772  21.053 -0.2294  0.2857 -0.0233
75930W        W76794  10.184   0.180  20.059 -0.0095 -0.2024  0.1227
75931W        W76795   8.567  28.580  19.413  0.2847 -0.1312 -0.1014
75932W        W76796  10.701  25.162  18.908 -0.0435  0.1427 -0.0096
75933W        W76797  14.039  25.902  19.484  0.3734  0.1591  0.1431
75934W        W76798   9.191  28.686  21.967 -0.0648 -0.0879  0.0696
75935W        W76799   8.902  27.150  20.323  0.0223 -0.0483 -0.1781
75936W        W76800   7.130   0.316  19.141  0.1707  0.0002 -0.0008
75937W        W76801   9.871  26.783  20.290 -0.0091 -0.0742  0.1930
75938W        W76802   9.312  27.130  18.983 -0.2022  0.2512 -0.3180
75939W        W76803  12.197  29.146  14.995  0.0706  0.1945  0.0612
75940W        W76804   9.135  25.321  17.028 -0.1898  0.0973  0.3318
75941W        W76805   7.329  25.514  20.854  0.0589  0.1571  0.1873
75942W        W76806   8.337  25.543  16.738  0.0083  0.1644  0.0071
75943W        W76807   9.341   0.056  22.096  0.0753  0.3101  0.0681
75944W        W76808   9.672  28.971  20.129  0.0792  0.1690 -0.2431
75945W        W76809   6.203  24.601  20.754  0.1445 -0.1860 -0.2392
75946W        W76810   8.934  29.067  22.975 -0.2196 -0.0655  0.1233
75947W        W76811   9.851  26.421  16.817  0.2251 -0.1191 -0.0064
75948W        W76812   8.524  26.827  20.129 -0.4219 -0.0851  0.2557
75949W        W76813   8.210  27.172  20.692 -0.1087  0.3019  0.0665
75950W        W76814   6.476  27.249  21.473 -0.2779 -0.2656  0.2636
75951W        W76815   9.134  23.580  21.270 -0.0020  0.0917 -0.0308
75952W        W76816   7.967  25.053  21.532 -0.2204  0.0358 -0.0840
75953W        W76817   8.966  28.338  20.700 -0.1037  0.2136 -0.1892
75954W        W76818  10.195  23.181  19.586 -0.2547  0.0992 -0.0587
75955W        W76819   8.567  25.002  22.202  0.0479 -0.1123 -0.2001
75956W        W76820   9.003  26.833  19.870  0.0073 -0.3074 -0.1783
75957W        W76821  13.392  23.810  20.312 -0.1187  0.1061  0.2277
75958W        W76822   6.496  25.485  19.103 -0.3093 -0.1807  0.0828
75959W        W76823   9.458  28.926  22.982 -0.1244  0.3150  0.0634
75960W        W76824  11.917  26.552  17.301  0.0732  0.0217 -0.1880
75961W        W76825   7.668  28.414  20.685 -0.3305 -0.3734  0.4076
75962W        W76826   9.839  26.280  22.511 -0.1757 -0.2473 -0.1114
75963W        W76827   7.975  26.663  20.863  0.0492 -0.3126  0.3147
75964W        W76828  10.604   3.231  23.145 -0.0669 -0.0461 -0.3196
75965W        W76829  11.396  26.764  19.889 -0.2548 -0.1673 -0.0673
75966W        W76830   9.196   0.576  19.964  0.0716  0.1549  0.3204
75967W        W76831   6.197  25.976  16.754 -0.1604 -0.3296 -0.1136
75968W        W76832  10.050  27.719  22.877  0.2208 -0.0438 -0.2674
75969W        W76833   7.123  25.964  21.572  0.0518 -0.3294 -0.0061
75970W        W76834  13.197  28.522  20.562  0.2569 -0.1571 -0.1039
75971W        W76835  11.758  26.586  21.265  0.2441  0.3057 -0.0016
75972W        W76836  11.957  28.210  20.464  0.2237  0.2362  0.3128
75973W        W76837  10.056  27.590  18.715  0.2873  0.0018  0.1324
75974W        W76838   7.487  27.756  19.655  0.2025  0.2442  0.5325
75975W        W76839   7.101  27.483  19.400 -0.0433  0.1055  0.1206
75976W        W76840  10.570  26.925  19.868  0.4151  0.0652 -0.1642
75977W        W76841   8.081  28.410  19.318  0.2317 -0.2519  0.1161
75978W        W76842   9.157  26.201  20.680 -0.0637 -0.1979 -0.2892
75979W        W76843  11.893   0.814  18.152 -0.1503  0.0435  0.1528
75980W        W76844   9.175   0.040  19.253  0.2158  0.1337 -0.2961
75981W        W76845   8.867  26.253  19.014 -0.2106 -0.1544  0.0819
75982W        W76846  10.404  29.137  19.207  0.0211 -0.2402 -0.0151
75983W        W76847   7.866  26.902  21.303  0.2304  0.0186  0.1324
75984W        W76848  10.314   0.347  18.736  0.2374  0.0243  0.3730
75985W        W76849   9.407  28.366  22.324 -0.0526 -0.1500 -0.0675
75986W        W76850   9.549  28.437  19.378 -0.0640  0.0518  0.0337
75987W        W76851  10.540  26.202  21.833  0.0040 -0.1240  0.2527
75988W        W76852   7.223  27.718  21.279 -0.0328  0.1145 -0.0384
75989W        W76853   7.000  26.769  21.131  0.1102  0.2053  0.1728
75990W        W76854   9.560  27.792  20.141 -0.1211  0.3415 -0.1701
75991W        W76855  12.345  27.649  19.855 -0.1100 -0.2983  0.0809
75992W        W76856   9.778  27.986  21.643  0.4111  0.1994 -0.0528
75993W        W76857   9.390   0.249  18.750  0.1423  0.0506  0.1564
75994W        W76858  11.528   0.045  19.363  0.2237  0.0704  0.1069
75995W        W76859   8.720  25.408  20.427  0.1144  0.0654 -0.1265
75996W        W76860   9.769  28.189  19.842  0.0244 -0.0003  0.1579
75997W        W76861  10.765   0.054  18.872 -0.0202 -0.0292  0.0243
75998W        W76862  13.249  28.301  22.666  0.1164  0.1375  0.2096
75999W        W76863   8.512  28.364  21.004  0.0694 -0.2762  0.0610
76000W        W76864   7.451  27.703  20.175 -0.1303 -0.2556  0.0526
76001W        W76865   8.476  25.786  17.618  0.0177 -0.1980  0.3266
76002W        W76866   9.306  23.925  20.513 -0.2388 -0.0551 -0.3185
76003W        W76867   8.679  25.734  18.918 -0.3112 -0.0043 -0.1341
76004W        W76868   9.426  29.090  18.241 -0.1966 -0.3668  0.1455
76005W        W76869   7.766   1.012  23.313 -0.2493  0.1549 -0.0601
76006W        W76870  10.159  28.049  18.860 -0.0275 -0.0435 -0.1733
76007W        W76871   8.681  25.780  19.838 -0.2181  0.3331  0.2865
76008W        W76872   9.893   0.526  18.563  0.1434 -0.0071 -0.2104
76009W        W76873   9.201  28.695  21.416 -0.3487  0.0503 -0.3478
76010W        W76874  11.595   0.524  20.818 -0.1009  0.2112  0.0109
76011W        W76875   8.663  28.114  19.852 -0.2637  0.0197 -0.1801
76012W        W76876   8.213  26.392  18.207  0.1439 -0.3607 -0.2421
76013W        W76877   9.609   1.660  20.509  0.1751  0.1432  0.0387
76014W        W76878  11.200  29.095  20.168  0.1326  0.2033  0.2243
76015W        W76879   8.771  26.382  21.423  0.2458 -0.0067 -0.0078
76016W        W76880   8.410   2.373  19.963 -0.2905  0.5242  0.1251
76017W        W76881  10.040  26.825  19.823 -0.0953  0.0722 -0.1421
76018W        W76882  10.046  25.812  19.698  0.0257 -0.0209  0.1263
76019W        W76883   8.319  27.775  21.246 -0.0909  0.3167 -0.0201
76020W        W76884  10.446  28.759  19.630 -0.0989  0.1784 -0.1443
76021W        W76885   9.291  25.441  20.728  0.1820 -0.0422 -0.2417
76022W        W76886   6.254   0.458  18.704 -0.2056 -0.0997 -0.2083
76023W        W76887   9.893   2.243  21.134 -0.1154 -0.1176  0.0977
76024W        W76888   9.514   0.199  16.519 -0.1166 -0.2067 -0.3108
76025W        W76889  11.470   0.294  19.834 -0.1860  0.0835  0.0818
76026W        W76890   7.990  26.630  21.715  0.1219  0.2256  0.2843
76027W        W76891  10.183  28.594  18.295  0.1552 -0.0487  0.0599
76028W        W76892  10.504   0.939  18.325  0.1170  0.1448  0.0048
76029W        W76893   9.848   1.726  21.406 -0.1884 -0.1365 -0.0038
76030W        W76894   9.308  27.483  22.167 -0.1981 -0.3431 -0.0028
76031W        W76895  10.079  27.259  20.135  0.1643  0.3016  0.3571
76032W        W76896  10.568   0.751  19.593  0.0998  0.2332 -0.2975
76033W        W76897  12.200  25.071  24.831  0.2252  0.1945  0.0982
76034W        W76898   8.754  26.352  20.917  0.0118 -0.0823 -0.0406
76035W        W76899   8.960  25.015  18.480  0.0068  0.2578  0.2218
76036W        W76900   7.358  25.741  17.578 -0.0532 -0.0288 -0.3899
76037W        W76901   8.325  28.291  23.373  0.1881 -0.2634  0.0149
76038W        W76902   9.356   0.841  21.743 -0.2330 -0.1651  0.0836
76039W        W76903   9.266  26.277  17.686 -0.0155 -0.0161  0.0450
76040W        W76904   8.032  28.789  18.968 -0.0833 -0.0860  0.3535
76041W        W76905   9.447   1.941  18.615 -0.0051 -0.0298 -0.0652
76042W        W76906  10.594  25.536  17.733 -0.1079  0.0735  0.1870
76043W        W76907  13.679  28.208  23.471 -0.0608 -0.3552 -0.0296
76044W        W76908   8.996   0.475  20.418  0.0214 -0.0384  0.2984
76045W        W76909   6.430  27.740  23.248  0.0262  0.0625  0.1598
76046W        W76910  10.655  27.901  20.119  0.2713  0.1322  0.3568
76047W        W76911   8.874  27.672  19.694 -0.3051 -0.2731 -0.2370
76048W        W76912  10.182  27.675  19.217 -0.2136 -0.1004 -0.0348
76049W        W76913  10.555  26.882  18.874  0.1003 -0.0551 -0.1834
76050W        W76914  10.430  27.837  19.690 -0.2604  0.2602 -0.3440
76051W        W76915   9.685  27.437  21.735  0.1994 -0.1081  0.3263
76052W        W76916   7.443   1.058  20.214 -0.1507  0.2744  0.0429
76053W        W76917   8.804  26.938  21.539 -0.2143  0.1567  0.1023
76054W        W76918   7.748  23.691  19.382 -0.0769  0.1487 -0.0870
76055W        W76919  11.702  28.599  22.580 -0.1300 -0.0771  0.0286
76056W        W76920  13.682  22.498  22.717  0.0946 -0.1338  0.3396
76057W        W76921   7.533   0.183  20.490  0.2061 -0.2929  0.1272
76058W        W76922   8.942  26.751  19.016 -0.0202  0.0855  0.1104
76059W        W76923   7.037  24.930  21.204  0.2575  0.2068 -0.1664
76060W        W76924   7.070   1.367  20.231  0.0521 -0.2708 -0.1526
76061W        W76925  11.904  29.108  20.805 -0.1104  0.1083 -0.0494
76062W        W76926  10.523   1.674  20.792 -0.1941 -0.0536 -0.1824
76063W        W76927   9.661  28.782  21.207 -0.0563  0.0237  0.1867
76064W        W76928  11.239  28.824  21.393 -0.0150 -0.4147  0.3103
76065W        W76929  11.028  26.381  18.329  0.1599 -0.3409  0.1363
76066W        W76930   8.011  28.134  18.806 -0.0480  0.2849  0.1600
76067W        W76931   7.975  28.283  21.252  0.0041  0.0514 -0.0769
76068W        W76932   9.952  23.620  19.512  0.0883  0.3268 -0.2513
76069W        W76933   8.949   1.692  22.695  0.1034 -0.1595 -0.1751
76070W        W76934   9.399  23.923  18.225 -0.1225  0.0794  0.2196
76071W        W76935   9.996   1.357  20.417 -0.2934 -0.4992 -0.0332
76072W        W76936   8.046   2.057  19.816 -0.1032  0.1002 -0.0351
76073W        W76937  11.364   1.499  20.413  0.0992 -0.0060  0.2982
76074W        W76938   8.396  26.047  16.642 -0.0806  0.1132 -0.3312
76075W        W76939   9.076  26.068  17.264  0.0722  0.1973 -0.0630
76076W        W76940   9.996   0.005  19.529  0.0733 -0.0852 -0.0958
76077W        W76941  10.917  26.529  19.897 -0.0722  0.0594 -0.0082
76078W        W76942   8.505   0.293  20.524 -0.0686 -0.0419  0.1472
76079W        W76943  11.728   3.013  17.802  0.0028 -0.1390 -0.2123
76080W        W76944   8.124   0.104  20.295 -0.1538 -0.0263  0.0273
76081W        W76945   9.033  28.971  18.819  0.3989 -0.0510  0.0470
76082W        W76946   8.684  28.728  20.699 -0.1485  0.0135  0.1830
76083W        W76947   8.490   1.566  21.865  0.0361  0.0171  0.1844
76084W        W76948  10.588  27.845  20.833 -0.1131  0.0958 -0.0048
76085W        W76949   8.768   0.823  19.827  0.1997  0.1164 -0.0537
76086W        W76950  12.577  26.268  18.173 -0.1632 -0.1858  0.2478
76087W        W76951   7.920  28.796  20.058 -0.0704  0.0983  0.3445
76088W        W76952   9.935  26.421  23.004 -0.0358 -0.3018 -0.2976
76089W        W76953  11.252  26.033  16.092 -0.1745  0.1045 -0.1926
76090W        W76954  12.746  28.473  20.910 -0.1790  0.2444  0.3289
76091W        W76955   9.858   0.878  21.828  0.3438 -0.1891 -0.1905
76092W        W76956  12.636   0.841  19.390 -0.2634 -0.1785  0.0512
76093W        W76957   8.887  27.672  21.963 -0.0071 -0.2733 -0.0766
76094W        W76958   8.601  28.449  20.280  0.2322 -0.0890 -0.1130
76095W        W76959   9.625   2.164  20.657  0.4031  0.0005 -0.0540
76096W        W76960   6.580  25.239  18.700  0.1528 -0.1000  0.0847
76097W        W76961   9.245  25.974  18.111  0.0548  0.1190  0.1893
76098W        W76962  10.289  26.965  17.627 -0.2198  0.2620 -0.1280
76099W        W76963   7.175  25.753  18.854  0.0489 -0.0785  0.0720
76100W        W76964   8.526  26.231  19.975 -0.3687 -0.0841  0.0974
76101W        W76965   8.829  28.576  19.889 -0.1082 -0.3030 -0.1854
76102W        W76966  10.422  25.698  17.164 -0.1930 -0.1469 -0.1554
76103W        W76967   7.801  29.026  22.112  0.1376 -0.0064  0.0963
76104W        W76968   7.799  26.350  17.843 -0.2411  0.3718 -0.0431
76105W        W76969   8.275  26.748  16.967 -0.0817 -0.0791 -0.2664
76106W        W76970  12.365   0.522  21.450  0.0923 -0.0889 -0.2326
76107W        W76971   7.706  26.483  19.635 -0.0346 -0.1265 -0.1297
76108W        W76972  10.897  26.628  22.094 -0.0148  0.3079 -0.1412
76109W        W76973  11.087  26.404  18.914 -0.3985 -0.2152 -0.3650
76110W        W76974  12.955   1.317  18.108 -0.0135  0.3000 -0.1238
76111W        W76975   7.695   0.617  20.294  0.2005 -0.0513 -0.2967
76112W        W76976  10.545  27.350  19.050 -0.1271  0.0653  0.0581
76113W        W76977   7.938  25.693  18.134  0.2484  0.1865 -0.1442
76114W        W76978   8.529  28.929  20.183  0.2594 -0.0894  0.4207
76115W        W76979  12.152  27.201  23.545  0.1278  0.0149  0.0896
76116W        W76980   9.653  24.439  20.759 -0.1600 -0.0387  0.1169
76117W        W76981   8.110  26.579  19.961  0.1587  0.0702 -0.0597
76118W        W76982   9.234  27.380  17.229 -0.2676 -0.1701  0.3511
76119W        W76983   8.162   0.732  22.014 -0.0953  0.0564  0.1118
76120W        W76984   8.337  27.183  21.512  0.1938 -0.0524 -0.0373
76121W        W76985   9.032  24.252  17.309  0.0479  0.2761 -0.4030
76122W        W76986   9.636  28.187  18.918  0.0974  0.0877  0.0034
76123W        W76987  13.678   0.331  22.689 -0.0363  0.1266 -0.0477
76124W        W76988  10.524   1.093  17.514 -0.0058  0.1141 -0.1692
76125W        W76989  10.899  28.054  21.160  0.2157  0.3763 -0.0286
76126W        W76990  10.687  23.388  18.753  0.1479  0.2409  0.4193
76127W        W76991  10.456  26.502  18.496 -0.1616 -0.0581 -0.3004
76128W        W76992   9.853  26.766  17.186  0.4717 -0.2506 -0.1147
76129W        W76993  10.452  28.271  21.042  0.1982  0.3370 -0.0114
76130W        W76994   7.348  27.434  18.587 -0.2373  0.1397  0.0074
76131W        W76995  10.472   1.484  20.283  0.1909 -0.1123  0.0685
76132W        W76996  10.694  27.788  19.272 -0.0020 -0.0907 -0.0922
76133W        W76997   8.437  26.816  21.081 -0.1940 -0.1818 -0.1410
76134W        W76998   8.798  27.879  21.069 -0.1795 -0.0690 -0.2644
76135W        W76999  10.477  27.155  21.090 -0.3167  0.0501  0.2532
76136W        W77000  13.470  25.256  22.766  0.2714 -0.0768 -0.0613
76137W        W77001   8.561   0.844  21.118 -0.2233 -0.1339 -0.0216
76138W        W77002   8.743  27.577  21.493  0.1473 -0.1235 -0.0980
76139W        W77003   7.474  27.550  20.678  0.0273  0.1744 -0.0080
76140W        W77004   6.713  28.218  20.545 -0.4707 -0.0652 -0.3309
76141W        W77005   9.551  27.108  19.779 -0.1196 -0.3914  0.1436
76142W        W77006   9.232  27.463  22.752 -0.0369  0.0346 -0.0409
76143W        W77007  12.442  28.155  20.080  0.0492 -0.1141 -0.1398
76144W        W77008  10.242   3.255  18.913 -0.1735 -0.0054 -0.0659
76145W        W77009   9.394   1.191  19.322  0.0411  0.0954 -0.0777
76146W        W77010   8.891   1.233  19.460 -0.0642  0.1731  0.0224
76147W        W77011  10.778   3.270  18.928 -0.4223  0.3621  0.2111
76148W        W77012   7.921   0.594  23.063  0.1448  0.1664  0.1602
76149W        W77013  10.419   0.070  20.537 -0.0838 -0.0505  0.0481
76150W        W77014   9.368   0.144  20.368 -0.0230 -0.1824 -0.0071
76151W        W77015   9.183   0.371  21.720  0.1027  0.4072  0.0743
76152W        W77016   8.529  28.727  18.005  0.2042 -0.1242  0.0325
76153W        W77017   9.521  28.717  23.521 -0.0469 -0.0515  0.1094
76154W        W77018   8.979  27.437  18.044  0.1648 -0.2478 -0.2639
76155W        W77019  11.557  28.942  22.249  0.2244 -0.1352  0.1311
76156W        W77020   7.690  28.642  18.595 -0.0533 -0.0579  0.2554
76157W        W77021   8.534  25.409  18.584 -0.1983  0.0330 -0.4635
76158W        W77022   6.988  28.066  24.847  0.1628 -0.0957 -0.1016
76159W        W77023  10.734  25.966  26.758 -0.1965 -0.2242 -0.1391
76160W        W77024  12.437  28.119  22.182  0.0782  0.0794  0.5319
76161W        W77025  11.935   0.769  24.482  0.2800  0.0794 -0.0540
76162W        W77026   9.601   0.287  23.021 -0.2907 -0.2733  0.1568
76163W        W77027   9.702  27.292  23.497  0.0589  0.2823 -0.4398
76164W        W77028   8.684  26.016  22.104  0.2099 -0.0676  0.1150
76165W        W77029  10.328  28.280  20.001 -0.3515 -0.2240 -0.0912
76166W        W77030   7.625   0.672  24.384  0.1428  0.0546 -0.1035
76167W        W77031   6.622  26.550  23.505 -0.2027  0.0072 -0.0114
76168W        W77032   8.385  25.349  24.743  0.1385 -0.0411  0.0481
76169W        W77033   8.979  27.073  21.997 -0.1652 -0.0198 -0.3108
76170W        W77034   9.276  26.990  22.488  0.4124 -0.2114 -0.2856
76171W        W77035   8.325  27.562  25.551  0.1974 -0.0199  0.0257
76172W        W77036   8.023  28.341  24.105 -0.2108 -0.1040  0.1975
76173W        W77037   8.505   0.494  24.608  0.0254 -0.1014 -0.2675
76174W        W77038   8.562  27.738  22.368 -0.0496 -0.0481 -0.2890
76175W        W77039   8.656  28.594  23.606 -0.1104  0.0079 -0.1251
76176W        W77040  10.134  25.812  25.606 -0.1346  0.0035  0.0306
76177W        W77041  10.304  27.271  23.681 -0.2459 -0.1018  0.0883
76178W        W77042  11.088  27.948  27.465 -0.2825  0.1201 -0.1028
76179W        W77043   9.614  27.632  23.096  0.0192  0.1506  0.0292
76180W        W77044  11.769  24.729  22.322 -0.1768 -0.1236 -0.1109
76181W        W77045   9.441  26.324  22.976 -0.1928 -0.0992 -0.1322
76182W        W77046   6.942  27.866  22.368 -0.1412 -0.0350 -0.2167
76183W        W77047   9.713  26.871  23.231  0.1243 -0.2844 -0.1556
76184W        W77048  10.345  27.500  22.298 -0.1089  0.0664 -0.2764
76185W        W77049   8.003   0.031  20.742 -0.0750  0.2536 -0.1187
76186W        W77050   8.984  28.305  25.459 -0.2258  0.0808 -0.0725
76187W        W77051  10.253  26.592  22.588 -0.0429  0.1864 -0.2189
76188W        W77052  10.808  27.527  22.459 -0.2758 -0.0128  0.2591
76189W        W77053   9.172  27.728  26.206 -0.1200 -0.3117  0.0863
76190W        W77054  10.197  25.169  23.658  0.1138 -0.0362  0.1761
76191W        W77055  10.725  24.843  22.413  0.1289 -0.0743 -0.0119
76192W        W77056   7.079  27.354  25.253 -0.1111 -0.0277  0.1676
76193W        W77057   8.661   1.575  25.571  0.0510 -0.2774 -0.0862
76194W        W77058   7.696  23.826  20.204 -0.0480 -0.1994 -0.2378
76195W        W77059  10.669  28.769  23.226  0.0796 -0.2362  0.1082
76196W        W77060  10.482  27.661  24.206 -0.2147  0.1048 -0.0244
76197W        W77061  11.803  27.606  22.262 -0.4042  0.1377 -0.0402
76198W        W77062  11.239  27.769  23.586 -0.0600  0.1926  0.1007
76199W        W77063  10.906  27.615  23.034  0.2221 -0.1087  0.0464
76200W        W77064  10.923  28.955  25.652  0.2346 -0.1386 -0.1104
76201W        W77065  11.020  27.267  21.410  0.2336  0.2380 -0.2521
76202W        W77066   8.008   0.998  20.417 -0.0399  0.2885  0.0509
76203W        W77067  11.504   0.331  22.350 -0.1424 -0.3892  0.1771
76204W        W77068   8.136  25.441  24.255  0.2593  0.1418  0.3331
76205W        W77069  10.164   0.615  24.298  0.0715  0.2812  0.1704
76206W        W77070  12.000  28.431  21.435 -0.2306 -0.1278 -0.2555
76207W        W77071  11.301  28.337  21.146  0.1229 -0.2433  0.3830
76208W        W77072   9.551  28.441  21.667 -0.2855  0.2063  0.0795
76209W        W77073  11.742   0.238  21.895  0.0953  0.0916  0.0484
76210W        W77074   7.010  26.903  24.160 -0.1591 -0.0441 -0.1326
76211W        W77075  11.910   0.271  21.268 -0.0471  0.1393 -0.1653
76212W        W77076   8.643  26.891  23.659  0.2434 -0.1601 -0.2896
76213W        W77077  12.009   0.481  22.524  0.0591 -0.3896 -0.1044
76214W        W77078   5.987  26.452  23.633 -0.2385 -0.0979 -0.1418
76215W        W77079   8.658  27.801  23.683 -0.1469  0.0384 -0.0701
76216W        W77080   7.568   1.037  22.877  0.1599 -0.1411  0.2451
76217W        W77081   7.509   1.498  20.466  0.0006  0.0680 -0.1358
76218W        W77082  10.143  25.039  22.811  0.5144 -0.0730  0.1507
76219W        W77083   7.763  28.923  25.188 -0.0101  0.0523  0.0921
76220W        W77084  10.566  26.911  23.905  0.1544  0.2475  0.0880
76221W        W77085   9.985  28.624  25.367 -0.1364 -0.1652 -0.0443
76222W        W77086  11.471  24.911  23.578  0.0758  0.1200 -0.0637
76223W        W77087  13.181  28.108  22.096 -0.2620 -0.0411 -0.0334
76224W        W77088   5.566  27.946  23.686 -0.0030 -0.1347  0.3594
76225W        W77089  10.745  27.550  21.966  0.0085  0.1956  0.2360
76226W        W77090   7.770   0.700  23.798 -0.2728 -0.0797  0.0813
76227W        W77091   8.777  27.930  22.856 -0.0506 -0.2200 -0.0140
76228W        W77092   9.768   1.979  23.955 -0.0127 -0.1503 -0.1245
76229W        W77093   9.061  27.169  24.227 -0.0029 -0.0409  0.0290
76230W        W77094  10.563   0.983  24.463 -0.1435  0.0483  0.0546
76231W        W77095   9.002  26.203  27.123  0.1206  0.0171 -0.0932
76232W        W77096  11.237  28.737  21.851  0.2748  0.2688  0.1725
76233W        W77097  11.658  28.314  24.044 -0.1796 -0.3675 -0.0299
76234W        W77098   8.665  27.335  24.438  0.0240 -0.1169 -0.0671
76235W        W77099   9.284  28.298  25.092 -0.0908  0.0495 -0.0835
76236W        W77100   7.390  26.819  21.417 -0.0108 -0.0902  0.0486
76237W        W77101  13.196  28.117  20.899  0.2280  0.2556 -0.1226
76238W        W77102   8.334  29.071  23.428 -0.5018  0.2003  0.0796
76239W        W77103   6.641  28.232  23.093  0.2404 -0.2645 -0.0859
76240W        W77104  11.151  24.286  21.317  0.2390 -0.3263 -0.3236
76241W        W77105  12.701  26.669  22.132  0.2935  0.1349 -0.1721
76242W        W77106  11.553  24.814  24.036  0.1779  0.0346 -0.1986
76243W        W77107  11.940  26.610  21.862  0.2362 -0.2535 -0.1042
76244W        W77108  11.589  26.962  23.743 -0.0976  0.1694 -0.3586
76245W        W77109  11.033  24.234  25.419 -0.1123  0.2959 -0.0786
76246W        W77110  10.854  28.956  24.219  0.0015  0.1358 -0.1159
76247W        W77111  13.674  22.832  25.032  0.2462  0.0083  0.1467
76248W        W77112  12.417  28.136  24.414  0.0382  0.1516  0.1501
76249W        W77113  13.762  27.004  23.444  0.0130  0.1198  0.3481
76250W        W77114  10.546  27.868  22.642  0.1335  0.0924  0.1979
76251W        W77115  12.451  25.780  23.718 -0.1245 -0.0007 -0.0646
76252W        W77116   7.740  25.594  23.543  0.0189 -0.2521 -0.0421
76253W        W77117   8.486  28.315  22.776 -0.1148 -0.2680 -0.0727
76254W        W77118  12.921  24.571  22.619  0.1556 -0.0405 -0.0785
76255W        W77119  11.696  24.749  25.044  0.1358  0.0905 -0.1034
76256W        W77120   9.166  25.884  23.027 -0.0061  0.1762 -0.1568
76257W        W77121  11.368  27.748  23.107  0.2150  0.1434  0.3065
76258W        W77122   7.937  27.752  22.127 -0.1399  0.3832 -0.3462
76259W        W77123   8.949  24.646  22.285  0.0006 -0.1329 -0.1067
76260W        W77124  11.251  24.802  22.238  0.1134  0.2982  0.2272
76261W        W77125  11.654  28.297  25.473  0.1828 -0.1460 -0.1369
76262W        W77126   9.413  25.350  24.279 -0.0408  0.5973 -0.0442
76263W        W77127   8.407  26.411  22.556 -0.0680 -0.0393  0.0854
76264W        W77128   9.761  26.478  23.699  0.0372  0.1941  0.0599
76265W        W77129   8.243  27.148  24.628 -0.0094  0.2144  0.1706
76266W        W77130  12.787  24.633  22.027  0.0259 -0.1457 -0.1561
76267W        W77131  11.629  25.672  22.451 -0.0164 -0.0295 -0.1355
76268W        W77132   9.640   0.122  25.138 -0.0518  0.1615  0.0739
76269W        W77133   8.901  27.584  23.186 -0.1812  0.2191 -0.2711
76270W        W77134   9.942  28.440  22.614 -0.1278  0.1209 -0.0946
76271W        W77135  10.402   0.626  23.535  0.0502  0.0131 -0.0011
76272W        W77136   9.971  28.353  21.317 -0.0696  0.2024  0.0206
76273W        W77137   9.984  27.816  23.411 -0.1999  0.3228  0.1300
76274W        W77138   8.034  24.337  26.168  0.0518  0.1623  0.2808
76275W        W77139  10.592  26.621  23.235 -0.0275  0.1181 -0.2480
76276W        W77140  10.556  24.859  22.941 -0.1310 -0.1134  0.1645
76277W        W77141  12.131  26.266  21.536  0.0515 -0.1244 -0.3981
76278W        W77142   7.442  27.586  23.044  0.0037  0.2347  0.2369
76279W        W77143  10.334  28.848  22.873  0.1655  0.0986 -0.0345
76280W        W77144   9.373   2.337  25.346  0.0220  0.1327 -0.0396
76281W        W77145   9.280  26.758  22.990 -0.0265 -0.2079 -0.0221
76282W        W77146   9.034  26.003  25.731 -0.1867 -0.0206  0.0214
76283W        W77147  12.564  27.173  22.345  0.1239  0.1667  0.2822
76284W        W77148  12.033  26.498  23.136  0.0423 -0.1820 -0.0044
76285W        W77149  12.935  27.576  23.747 -0.3007  0.1838 -0.0973
76286W        W77150  10.610   1.307  24.951  0.0311  0.2512 -0.1535
76287W        W77151  11.715   2.295  23.973  0.0945  0.0333  0.1168
76288W        W77152   8.509   0.827  25.628 -0.1091  0.1454  0.2138
76289W        W77153  10.766  27.047  21.776  0.2101 -0.0270  0.1202
76290W        W77154   8.021  28.437  24.901  0.1434 -0.1392 -0.3308
76291W        W77155  10.952  25.457  23.154 -0.0665  0.0584  0.0304
76292W        W77156  10.055   0.216  22.701  0.0777  0.0882  0.0434
76293W        W77157  12.270  25.635  24.730  0.1141  0.3468 -0.1100
76294W        W77158  11.302  28.355  25.098  0.1101 -0.3797  0.0622
76295W        W77159   9.346  27.393  23.871  0.1628 -0.0166  0.1112
76296W        W77160   9.538  28.898  20.610  0.2325  0.1781  0.0618
76297W        W77161   7.418  26.636  20.853 -0.0195  0.1463  0.1397
76298W        W77162  11.685  26.374  23.469  0.0679 -0.0928 -0.3691
76299W        W77163   7.250   2.224  21.661  0.0830  0.0185  0.1115
76300W        W77164   8.297  26.200  21.541  0.0074  0.1265  0.3219
76301W        W77165   9.919  26.794  24.054 -0.0120  0.2961  0.1344
76302W        W77166   8.977   0.023  20.697  0.1097  0.0083  0.2430
76303W        W77167  11.460  27.208  20.094  0.0795  0.1596 -0.4598
76304W        W77168  10.984   0.044  23.164  0.1408 -0.1479 -0.0419
76305W        W77169   9.122   1.176  23.820  0.1175 -0.0161  0.0643
76306W        W77170   8.850  26.501  22.085  0.3294  0.0053 -0.0555
76307W        W77171  10.619   2.089  23.657  0.1580  0.2454  0.0116
76308W        W77172   8.712  25.530  22.050 -0.1411  0.4302  0.1060
76309W        W77173   8.787   0.807  23.864 -0.0679 -0.0500 -0.1836
76310W        W77174   9.566  27.030  22.077 -0.1758  0.0812  0.1794
76311W        W77175  10.605  27.132  23.265  0.1289  0.0312  0.2486
76312W        W77176  12.052  25.033  21.971 -0.0665 -0.0790 -0.0812
76313W        W77177   7.023   2.409  23.871 -0.1196 -0.0602 -0.1626
76314W        W77178  10.575   0.596  22.120  0.1106  0.2661 -0.0076
76315W        W77179   8.388  24.157  21.540 -0.0230 -0.1801 -0.3570
76316W        W77180  10.688  25.745  22.512  0.3068  0.3133 -0.0015
76317W        W77181  12.371  23.222  21.769  0.0082 -0.0325  0.3876
76318W        W77182  11.190  28.768  24.806 -0.3676 -0.0086  0.1872
76319W        W77183  10.887  26.785  26.010 -0.3382  0.2034  0.0491
76320W        W77184   9.434  26.871  23.739  0.0421  0.1800  0.0971
76321W        W77185  11.608  27.384  25.826  0.1010 -0.0040  0.0931
76322W        W77186   9.855  25.625  26.008  0.2976 -0.1419  0.0871
76323W        W77187  10.683  26.524  26.744 -0.0090 -0.0113 -0.1786
76324W        W77188   9.414   5.216  23.128  0.0975 -0.0890  0.2279
76325W        W77189   8.978   1.267  21.834  0.1330  0.1853  0.0186
76326W        W77190   6.262  28.916  23.315  0.1591  0.0357  0.2934
76327W        W77191  10.075  26.947  22.285 -0.0006  0.0659 -0.0159
76328W        W77192  11.572  25.132  22.437 -0.0539 -0.4772  0.2225
76329W        W77193   9.007  25.942  24.785 -0.0491  0.0017 -0.2735
76330W        W77194  10.679   0.969  20.186 -0.2388  0.1064  0.1496
76331W        W77195  10.604  24.848  23.771 -0.0458 -0.3062 -0.0615
76332W        W77196  13.802  22.583  23.289 -0.1007  0.1486 -0.1122
76333W        W77197   7.006  29.070  24.039 -0.1503 -0.1317 -0.1503
76334W        W77198   7.480  28.590  24.843 -0.0245 -0.0211  0.3156
76335W        W77199   6.592  28.611  20.232 -0.0840  0.1323 -0.0872
76336W        W77200  10.465  25.303  23.207  0.0957  0.1351 -0.1983
76337W        W77201   6.040   0.204  23.090  0.1720  0.3096 -0.0584
76338W        W77202  10.762   1.217  20.970 -0.0207 -0.1647 -0.2863
76339W        W77203   7.521  26.733  24.075 -0.2930  0.0129 -0.0570
76340W        W77204  13.196  27.325  25.972 -0.0328 -0.0224  0.1855
76341W        W77205   8.809  25.135  22.961 -0.0054  0.0812  0.2063
76342W        W77206   9.037  28.670  23.178  0.0886 -0.0078 -0.1180
76343W        W77207  12.758  25.142  23.218  0.2968 -0.0616 -0.0466
76344W        W77208   9.296  25.388  22.908  0.4934 -0.0058 -0.0381
76345W        W77209   6.874  28.051  21.496 -0.1376  0.1089  0.0987
76346W        W77210  10.894   1.244  24.233 -0.1992 -0.0599 -0.2748
76347W        W77211   6.980  27.439  24.253  0.2225 -0.0363  0.0025
76348W        W77212   8.571   2.407  19.027  0.2863 -0.0228  0.1887
76349W        W77213  10.433  27.465  26.476  0.0576 -0.2682  0.1426
76350W        W77214  11.341  26.522  24.258 -0.2802 -0.3323  0.1180
76351W        W77215  11.488  24.343  22.319 -0.1618  0.0196 -0.1356
76352W        W77216   9.183  25.888  22.026 -0.0324  0.0440 -0.1045
76353W        W77217  12.162  27.943  21.369 -0.1533 -0.0126  0.1091
76354W        W77218   7.993   0.672  24.705  0.0089  0.0054  0.0864
76355W        W77219  11.220  27.308  23.369  0.0817 -0.1459  0.3291
76356W        W77220  12.412  24.535  23.172  0.5494 -0.0590 -0.0211
76357W        W77221   8.491  25.805  22.503  0.0240  0.1400  0.0992
76358W        W77222   9.693  28.107  23.161 -0.2194 -0.0968  0.0027
76359W        W77223  10.784  28.912  21.564 -0.2906 -0.1230 -0.0993
76360W        W77224   6.193  27.311  24.921  0.2131  0.1736 -0.0343
76361W        W77225  12.201  26.628  22.309 -0.1095  0.3194  0.0584
76362W        W77226   4.803  27.900  23.268  0.0527  0.4112  0.0190
76363W        W77227   9.455  26.712  24.216  0.1771  0.1576  0.1092
76364W        W77228   8.971  23.165  25.484 -0.2241 -0.3223  0.0777
76365W        W77229  11.907   0.923  22.285  0.4511  0.2251  0.0260
76366W        W77230   7.726  25.442  21.237  0.0531  0.0746 -0.0303
76367W        W77231   8.309  28.015  24.991  0.1938 -0.0696  0.2042
76368W        W77232   5.170  27.721  24.528  0.0091 -0.1336  0.4209
76369W        W77233  10.534  26.163  25.854  0.1188 -0.1175  0.0718
76370W        W77234  10.884  25.850  24.817 -0.0377  0.2757 -0.1139
76371W        W77235  10.642  28.561  21.961  0.2380  0.2179 -0.1790
76372W        W77236  10.724  26.136  21.314 -0.1693  0.0096 -0.2526
76373W        W77237   7.957  29.072  22.605 -0.1524 -0.2494  0.0586
76374W        W77238   9.716   0.102  20.943 -0.1092  0.1571 -0.0660
76375W        W77239   7.840  27.422  26.349 -0.1083  0.0985 -0.0830
76376W        W77240   8.597   0.125  25.999 -0.1619  0.1344 -0.2930
76377W        W77241   9.997  26.516  27.809 -0.0820  0.0977 -0.0238
76378W        W77242  11.253  26.431  23.223 -0.0090  0.1364 -0.0550
76379W        W77243   8.594  28.518  25.309  0.0914  0.0369  0.0689
76380W        W77244  10.211  25.692  23.482  0.0121 -0.2431  0.1335
76381W        W77245   8.135   0.294  21.751 -0.1522  0.2178  0.0764
76382W        W77246   7.495  28.423  22.944 -0.0873  0.0982 -0.0005
76383W        W77247   8.091  26.019  23.379  0.1494  0.2193  0.2169
76384W        W77248  11.620  25.694  25.199  0.1900  0.1002  0.1342
76385W        W77249   9.009  25.444  23.328 -0.1009  0.0916  0.0676
76386W        W77250  13.805  28.618  23.812 -0.1794  0.1533  0.0846
76387W        W77251   9.107  27.465  24.637  0.0775  0.1143 -0.0117
76388W        W77252  10.426  27.879  24.948  0.3622  0.2307 -0.1556
76389W        W77253  11.470   0.073  21.040 -0.2322  0.1652 -0.0363
76390W        W77254  10.886  28.506  21.301 -0.0793 -0.0317 -0.2809
76391W        W77255   9.163  27.794  23.571 -0.2794  0.1288  0.1422
76392W        W77256   9.317   0.405  24.810  0.3649  0.1391  0.1632
76393W        W77257  12.336  26.893  23.220 -0.1092  0.0794 -0.0135
76394W        W77258   7.405  26.164  27.916  0.0442  0.1799 -0.1572
76395W        W77259   9.933   2.160  28.499 -0.1428 -0.1757 -0.1091
76396W        W77260  10.175  28.701  22.200 -0.2467 -0.0754 -0.2791
76397W        W77261   9.118  28.215  21.890 -0.2857 -0.3237 -0.0372
76398W        W77262   8.823  27.160  24.990 -0.3051 -0.2834 -0.0863
76399W        W77263  11.449  24.628  25.471 -0.0246 -0.3033  0.0422
76400W        W77264   7.195  26.307  23.665 -0.4068 -0.2005 -0.1689
76401W        W77265  11.198  24.264  23.509 -0.1627  0.0376 -0.0249
76402W        W77266   7.716   1.270  19.343  0.0595  0.1292  0.0494
76403W        W77267  10.945  28.935  23.642 -0.0009  0.0877  0.0564
76404W        W77268   9.132   1.033  23.153 -0.0020  0.2306  0.2203
76405W        W77269   9.286   1.524  23.002  0.0043 -0.2363  0.2709
76406W        W77270  10.936  24.722  27.146  0.2201  0.0891  0.1912
76407W        W77271   6.678  27.370  22.543 -0.0500  0.3607  0.1388
76408W        W77272   9.295  28.802  22.516 -0.3796  0.0201  0.5027
76409W        W77273  12.261  27.917  28.158  0.2967 -0.4087  0.2477
76410W        W77274  11.512  28.136  22.466  0.0555  0.0279 -0.0549
76411W        W77275  10.452  26.219  23.003  0.0435  0.3524  0.0859
76412W        W77276  10.842   0.876  25.250 -0.0511 -0.2081  0.2049
76413W        W77277  10.784  25.140  21.267  0.1467  0.1157  0.0254
76414W        W77278   7.794  25.716  27.166  0.3278  0.0421  0.0000
76415W        W77279  11.713  28.103  24.995  0.0303 -0.0075  0.2711
76416W        W77280  11.758  25.442  22.034  0.1299 -0.0759 -0.2436
76417W        W77281  10.997  25.089  25.948 -0.0468 -0.1134 -0.3797
76418W        W77282  10.150  26.762  23.535 -0.2050 -0.0844  0.1130
76419W        W77283   7.628  28.591  23.874  0.3194 -0.0368 -0.0500
76420W        W77284   8.329  27.514  26.036  0.3759 -0.0719 -0.1237
76421W        W77285   6.136  28.010  24.509 -0.1667 -0.0603 -0.1021
76422W        W77286  11.529  28.864  24.371  0.0084  0.0814 -0.0145
76423W        W77287   6.335  26.729  21.385  0.1746 -0.1852 -0.0518
76424W        W77288  10.778  28.503  22.789  0.0599 -0.1983  0.1710
76425W        W77289   7.903  27.751  23.230 -0.1169  0.0767  0.1260
76426W        W77290  10.649  27.590  21.470  0.0932 -0.0662 -0.1702
76427W        W77291  12.310  26.284  22.003  0.1963  0.0460 -0.3918
76428W        W77292   8.001  26.450  23.987 -0.1629  0.3251 -0.1876
76429W        W77293   7.853  28.941  23.501  0.2918 -0.1819 -0.0824
76430W        W77294  11.667  28.730  25.065 -0.1994  0.2597  0.2208
76431W        W77295  10.294  25.157  24.741  0.0808 -0.0529  0.1688
76432W        W77296   8.479  25.295  23.327 -0.1115  0.1481 -0.0010
76433W        W77297   9.219  26.447  24.759  0.1698  0.0757 -0.2840
76434W        W77298   8.389  27.670  21.780 -0.2612  0.1056 -0.2711
76435W        W77299   5.731   0.066  27.001  0.0866 -0.0799  0.0547
76436W        W77300  11.540  27.007  27.028  0.3329  0.0306 -0.0987
76437W        W77301   8.348  27.593  19.801 -0.3485  0.0751  0.1883
76438W        W77302   8.417  29.108  22.859  0.0126  0.0469  0.1777
76439W        W77303   4.575  27.127  25.661 -0.0404  0.0933 -0.0082
76440W        W77304  11.749  26.063  20.299 -0.1771  0.2747 -0.3400
76441W        W77305  11.052  25.929  27.286 -0.1712  0.0770 -0.0850
76442W        W77306  10.549  28.620  23.851  0.0874 -0.3499  0.0010
76443W        W77307  10.019  27.795  26.587  0.2326 -0.1471 -0.1406
76444W        W77308   9.583  27.268  20.306 -0.0363  0.2345 -0.2315
76445W        W77309   7.154  28.067  22.865 -0.3400 -0.1032 -0.0053
76446W        W77310   7.341  26.319  23.133  0.2944 -0.0947  0.0912
76447W        W77311  10.550  26.229  22.314  0.1538  0.1298 -0.3298
76448W        W77312  12.464  27.354  24.009  0.1589  0.2673  0.0250
76449W        W77313  11.277  26.539  23.749  0.2497 -0.0313  0.0822
76450W        W77314   8.271   2.156  21.374  0.1437  0.1313  0.0019
76451W        W77315   9.782  26.628  22.012 -0.0411  0.0258  0.1256
76452W        W77316   9.204  24.961  23.280  0.2529  0.0349 -0.2820
76453W        W77317  10.524   0.161  26.098 -0.2717  0.3094  0.2297
76454W        W77318  12.321  24.049  24.837 -0.0249 -0.1954  0.2933
76455W        W77319   7.246  27.287  23.391 -0.1023  0.3183 -0.1681
76456W        W77320   9.842   0.040  24.690  0.0321 -0.0189  0.0222
76457W        W77321   8.347  26.560  24.473 -0.0900  0.2585 -0.4137
76458W        W77322  11.298  26.944  25.679 -0.3516 -0.0191 -0.0515
76459W        W77323   9.336  27.225  23.186  0.0097  0.0567  0.2395
76460W        W77324  11.290  25.677  24.047  0.1038 -0.2813  0.0382
76461W        W77325   9.858   0.717  26.819 -0.0087  0.0078  0.0270
76462W        W77326  10.736  27.695  26.097  0.0270  0.1248  0.1442
76463W        W77327  10.266  24.454  20.642  0.0209  0.1292 -0.1640
76464W        W77328  11.084  23.621  24.644  0.0826 -0.0533  0.3298
76465W        W77329  10.276  27.699  21.793  0.2139 -0.1574  0.3382
76466W        W77330  10.195  26.228  23.445  0.0655 -0.0074 -0.0139
76467W        W77331  10.559  25.117  26.294 -0.0574  0.2769  0.0772
76468W        W77332  11.698  28.452  22.079  0.0382  0.3885 -0.0514
76469W        W77333   6.521  27.308  22.968 -0.0633 -0.1561  0.0087
76470W        W77334   8.243  28.036  25.928 -0.1804 -0.0028 -0.0808
76471W        W77335   7.831   0.308  25.270 -0.0784  0.1428  0.0081
76472W        W77336   8.964  26.163  22.510  0.1145 -0.3109  0.2872
76473W        W77337  13.788  24.419  22.066  0.1101 -0.0253 -0.0871
76474W        W77338  10.875   1.360  23.578  0.2630 -0.1748 -0.2010
76475W        W77339   6.696  25.685  23.296 -0.0092 -0.0228 -0.0264
76476W        W77340   9.314   1.617  22.305  0.3924 -0.1109 -0.0536
76477W        W77341  10.231  28.809  21.151  0.2132 -0.1633 -0.0394
76478W        W77342   7.068  28.354  23.226 -0.1435 -0.1151 -0.0094
76479W        W77343  13.692  28.012  24.478 -0.0830 -0.0373 -0.0566
76480W        W77344   9.290  26.247  24.052 -0.1009  0.1448  0.0920
76481W        W77345   6.064  27.090  22.774 -0.0031  0.0426 -0.1799
76482W        W77346  12.773  25.868  23.336  0.2451 -0.1214  0.0085
76483W        W77347   7.210   0.408  21.065 -0.4359  0.0312 -0.0063
76484W        W77348  11.575  27.945  22.010 -0.0771 -0.0503 -0.4645
76485W        W77349   7.196  28.487  20.803 -0.1375  0.0692  0.3127
76486W        W77350   9.362  25.586  24.877 -0.1610  0.2012  0.0176
76487W        W77351   9.758  27.241  22.714  0.1763  0.4207 -0.1991
76488W        W77352  11.222  28.604  25.641 -0.0322  0.1613  0.1948
76489W        W77353  10.544  25.565  27.019  0.2815  0.0167  0.1163
76490W        W77354  10.639   2.806  25.986 -0.0630 -0.1348  0.2568
76491W        W77355   9.266  26.992  24.750  0.0289 -0.2125  0.0718
76492W        W77356   9.192   0.645  24.014 -0.1821  0.2126 -0.2572
76493W        W77357  10.578   2.032  24.627  0.1653  0.0914 -0.0759
76494W        W77358  10.695  26.349  24.366  0.0138  0.2839  0.2285
76495W        W77359   9.684  26.343  21.475 -0.3064  0.0704 -0.2345
76496W        W77360   7.291  26.547  20.366  0.2205 -0.2619 -0.4438
76497W        W77361   7.456  25.682  24.012 -0.2387 -0.1485  0.0330
76498W        W77362   8.717  23.271  21.573 -0.0276 -0.0602  0.0490
76499W        W77363   9.535   0.684  18.881 -0.2378  0.0161  0.0962
76500W        W77364   9.168   0.039  23.855  0.1391  0.1322 -0.1200
76501W        W77365   9.777  29.119  23.816 -0.1018  0.1165 -0.0029
76502W        W77366  10.248  26.186  21.098  0.3124  0.0805  0.0434
76503W        W77367   8.802  24.684  23.198  0.0210 -0.0991  0.0439
76504W        W77368   8.824  28.207  23.304  0.2459 -0.1511 -0.2677
76505W        W77369   6.737  26.679  22.228 -0.0256  0.0257 -0.0766
76506W        W77370  10.094  27.347  21.400  0.1911  0.0225 -0.2884
76507W        W77371  10.239  28.942  24.992  0.3955  0.3521  0.0400
76508W        W77372  12.087  28.921  22.874  0.1203  0.3120  0.0348
76509W        W77373   8.815  28.823  22.555 -0.0514 -0.1863 -0.2654
76510W        W77374   9.690  25.953  22.133 -0.1504  0.1190 -0.1070
76511W        W77375   8.026   2.442  24.817  0.1942 -0.0283  0.2369
76512W        W77376   9.860  25.601  24.474  0.0257  0.0686 -0.0822
76513W        W77377   7.093  27.896  24.013 -0.1460 -0.1126  0.1258
76514W        W77378   7.436  28.700  23.395  0.2891  0.0639  0.0852
76515W        W77379   7.757  26.240  22.157 -0.1916 -0.1468 -0.1292
76516W        W77380  10.302  28.570  25.943 -0.0949  0.1986  0.2689
76517W        W77381   8.748  25.655  22.963 -0.0858 -0.1815  0.0584
76518W        W77382   9.856  24.819  21.787 -0.0861 -0.2229  0.0040
76519W        W77383   8.124   0.727  24.205 -0.0518 -0.0319  0.1229
76520W        W77384   8.557   0.296  23.170 -0.0019 -0.0530  0.0764
76521W        W77385   9.760   1.300  22.524  0.0889  0.1057 -0.0602
76522W        W77386  11.564  27.333  22.952  0.0611 -0.1263  0.0552
76523W        W77387   9.899  24.679  20.359  0.0125 -0.1075  0.2251
76524W        W77388  11.962  23.169  21.510  0.0596  0.3824 -0.1783
76525W        W77389   7.805  26.532  20.395 -0.0595  0.2462  0.6173
76526W        W77390  10.836  26.105  23.384 -0.1021 -0.1643  0.1025
76527W        W77391   7.887  26.247  22.800  0.2036  0.0393 -0.0674
76528W        W77392  12.308   0.020  24.497  0.0714 -0.1382  0.3218
76529W        W77393  11.740   1.259  23.533  0.0356  0.0074  0.0382
76530W        W77394   7.558  26.130  24.733  0.0572  0.0449  0.1379
76531W        W77395   9.553  28.375  25.535 -0.1797 -0.1880  0.0128
76532W        W77396   8.386   0.288  24.099 -0.3749 -0.0563  0.0893
76533W        W77397  11.142  25.509  25.096 -0.1779  0.2113  0.1975
76534W        W77398   7.768  25.365  25.272  0.1811  0.1492  0.0618
76535W        W77399  10.995  26.387  24.809 -0.1846  0.0734  0.0238
76536W        W77400  10.188   1.464  22.709 -0.3017 -0.2336  0.3776
76537W        W77401   8.550  25.735  24.120  0.3340 -0.1949  0.3285
76538W        W77402  11.424  25.964  23.506  0.0663  0.0030  0.1304
76539W        W77403  10.256  29.003  23.967 -0.0438 -0.0639 -0.0514
76540W        W77404  11.777  25.527  23.774 -0.1991  0.0110  0.0211
76541W        W77405  10.719  28.069  23.120 -0.2375 -0.1667  0.0915
76542W        W77406  10.563   2.488  24.437  0.0959  0.0335 -0.1523
76543W        W77407   8.735   0.164  24.945  0.0935 -0.2725  0.0846
76544W        W77408   9.643  27.935  23.795  0.1180 -0.0112  0.0674
76545W        W77409   9.909   0.301  23.456  0.1298 -0.0326  0.1131
76546W        W77410   9.962  27.558  23.920  0.1515 -0.0824 -0.1331
76547W        W77411   9.261   0.119  22.645 -0.4268  0.2381  0.1488
76548W        W77412   8.788   0.289  25.551 -0.0001  0.2080 -0.0914
76549W        W77413   8.888  27.326  22.422 -0.0402 -0.0849  0.4694
76550W        W77414   6.119  25.706  26.947 -0.1041  0.1846  0.1026
76551W        W77415   8.499  28.590  24.168  0.0983 -0.0714  0.1514
76552W        W77416   7.390  28.183  26.558  0.0747 -0.0066 -0.2582
76553W        W77417   8.360   1.959  22.112 -0.0199 -0.0717 -0.0476
76554W        W77418   8.208  26.363  22.084  0.0392  0.1458 -0.2360
76555W        W77419   7.490  27.514  25.006  0.1303 -0.1162  0.1259
76556W        W77420   8.717  28.189  28.765 -0.1627 -0.2316 -0.1224
76557W        W77421   9.803  28.239  27.690 -0.1792 -0.1853 -0.4907
76558W        W77422  10.715   0.513  27.194 -0.0778  0.2087  0.0293
76559W        W77423   9.553  27.391  26.673 -0.0756 -0.3150  0.2646
76560W        W77424   9.050   0.044  27.819  0.2262  0.3317  0.2232
76561W        W77425  10.066  28.543  23.995  0.3896 -0.0445 -0.2165
76562W        W77426   8.731  25.561  23.692  0.0522  0.0719  0.0689
76563W        W77427   7.795   0.860  26.656 -0.1184 -0.1291  0.1916
76564W        W77428   7.376  28.261  28.540  0.4208 -0.0758 -0.0857
76565W        W77429   8.563  26.279  27.689  0.3154  0.1421  0.0773
76566W        W77430  10.177  24.848  25.600  0.0693 -0.0339  0.0674
76567W        W77431  10.872  25.478  26.594  0.1846 -0.0608 -0.1966
76568W        W77432  11.437  26.120  28.731 -0.1450  0.0733  0.3444
76569W        W77433   5.789  26.345   1.276 -0.0261 -0.4200 -0.2931
76570W        W77434   7.974   1.245  28.581  0.0350 -0.0278  0.1916
76571W        W77435  10.413  28.091  24.506  0.2264 -0.2632 -0.0487
76572W        W77436   8.248  25.379  28.429 -0.1535  0.0042 -0.1090
76573W        W77437   9.361  25.725   0.834  0.1155 -0.0366 -0.1711
76574W        W77438  10.216  26.904  26.595 -0.0445  0.2098  0.1600
76575W        W77439   7.657  25.702  27.770 -0.3573  0.3647  0.1012
76576W        W77440  10.068  28.651  27.217  0.1498 -0.1543 -0.0309
76577W        W77441   7.240  27.943  26.053  0.1580  0.0101 -0.2480
76578W        W77442   7.704  28.077   1.137  0.0376 -0.2031 -0.1532
76579W        W77443   8.231   0.700  27.057 -0.2459 -0.0134 -0.2702
76580W        W77444   9.033  27.859  27.212  0.3477 -0.1700 -0.0016
76581W        W77445  10.466  28.668  25.420  0.1151 -0.1833 -0.2861
76582W        W77446   6.764  29.025  25.770 -0.0338  0.0275 -0.2453
76583W        W77447   7.795  28.517  26.636  0.1601  0.1117 -0.2160
76584W        W77448   7.848  27.378   0.101  0.0477 -0.3412 -0.0151
76585W        W77449  10.619   0.017  25.308 -0.0925 -0.0656 -0.1113
76586W        W77450  10.978  28.295   2.933  0.0522 -0.1538 -0.1677
76587W        W77451   6.897  25.987  27.155  0.2629 -0.0726 -0.1009
76588W        W77452  10.820  24.852   0.108  0.1534  0.0991 -0.3251
76589W        W77453   7.587  23.035   0.220 -0.1762  0.1602  0.0039
76590W        W77454   9.097  26.121  27.663  0.2079  0.1848 -0.0479
76591W        W77455   9.489  26.520  27.688  0.0037  0.2091 -0.0472
76592W        W77456   8.009  27.331  27.833  0.0910  0.0801 -0.4384
76593W        W77457  13.732  26.618  25.936 -0.0966  0.0982 -0.1017
76594W        W77458   7.741  26.077  28.851  0.0550 -0.0066  0.1704
76595W        W77459  10.783  27.101  24.818  0.2315 -0.1665 -0.1634
76596W        W77460  12.009  28.048  27.717 -0.0605  0.5363 -0.0360
76597W        W77461   9.268   0.159  25.428  0.0398 -0.0914  0.2415
76598W        W77462   9.156  28.566  24.635  0.0462  0.2950  0.1828
76599W        W77463   7.671   1.077  24.091 -0.1896 -0.2177 -0.1107
76600W        W77464   9.998  27.583  24.949 -0.4017 -0.3634  0.2447
76601W        W77465   7.693  27.447  26.826  0.1252  0.1618 -0.0713
76602W        W77466  11.376  26.042   3.048 -0.0650  0.1386  0.2903
76603W        W77467  13.074  28.004  26.720  0.0742  0.1524  0.1925
76604W        W77468  13.920  27.617  24.814  0.1244  0.1088  0.0620
76605W        W77469  12.328  26.617  28.964 -0.4256  0.3334 -0.2089
76606W        W77470   8.279  27.152  25.242  0.2753 -0.1781  0.0497
76607W        W77471  10.457  27.316  25.604  0.1871  0.2371 -0.0532
76608W        W77472   9.961   0.674  25.362  0.0357 -0.1053 -0.0668
76609W        W77473  10.948  27.126  25.309  0.1807  0.1304 -0.0036
76610W        W77474   9.292   1.500  24.790  0.2435  0.1139  0.1130
76611W        W77475   7.265  25.875  24.430  0.2589 -0.0272 -0.2121
76612W        W77476  10.590  25.650   2.210 -0.0471  0.2102 -0.4266
76613W        W77477   6.760  28.872  26.262  0.0827  0.1738  0.2132
76614W        W77478  11.056   0.279  25.118 -0.1202  0.0169  0.3670
76615W        W77479  10.518  27.303  26.981 -0.3565 -0.2121 -0.0078
76616W        W77480   9.328  28.857  28.800 -0.1650  0.0399 -0.0310
76617W        W77481   9.895  28.438  28.521 -0.1207  0.0466  0.0601
76618W        W77482   8.577   2.440  25.852  0.0651  0.1811 -0.0935
76619W        W77483   8.235  28.078  28.997 -0.2031  0.0123  0.0494
76620W        W77484  13.428  24.425   0.082 -0.1633  0.1089  0.2140
76621W        W77485   6.556  27.294  24.062  0.0044 -0.1623  0.3379
76622W        W77486   5.779  26.484  24.583  0.1587 -0.2371  0.1559
76623W        W77487  10.623  28.654  24.801  0.1930 -0.1405 -0.1073
76624W        W77488   8.967   0.085  26.388  0.3212  0.0131 -0.1734
76625W        W77489   8.663   0.278   0.261  0.0077 -0.0739  0.1907
76626W        W77490  11.822  24.600  27.562  0.2689 -0.2045  0.0210
76627W        W77491  13.536   2.697  26.891  0.1506  0.1510 -0.2479
76628W        W77492  10.001  27.379  26.901  0.1604 -0.3445 -0.1078
76629W        W77493  10.941  27.567  27.125 -0.0319  0.0702 -0.3980
76630W        W77494   8.173   0.272  28.611  0.2290 -0.2384 -0.3359
76631W        W77495   5.278  25.742  24.086  0.0059  0.0137 -0.1469
76632W        W77496   7.307  28.865  26.989 -0.2577  0.1875 -0.3699
76633W        W77497   8.512  26.750  26.540  0.1438 -0.0050 -0.0366
76634W        W77498   7.879  26.937  27.532 -0.0915 -0.1201 -0.1897
76635W        W77499   6.768  28.322  26.881 -0.3374 -0.2589  0.2281
76636W        W77500   6.406  27.565  27.345  0.3324 -0.1082  0.1400
76637W        W77501   9.626  25.352   0.548  0.0248  0.0884  0.2960
76638W        W77502  10.779  24.013   1.385  0.2380 -0.2596  0.0031
76639W        W77503   9.220  25.544   0.315 -0.0688 -0.0105 -0.0535
76640W        W77504   8.517  27.553  25.118 -0.2862  0.1123 -0.0014
76641W        W77505   8.102   1.381   0.795  0.1853  0.1143 -0.1573
76642W        W77506  10.133  25.850   1.431  0.1942 -0.2362 -0.0741
76643W        W77507   9.070  26.385  28.515 -0.1639  0.0617  0.3011
76644W        W77508  10.069  26.886  25.942 -0.2218  0.0610  0.0599
76645W        W77509   9.545  26.174  26.337 -0.4423 -0.0238  0.1380
76646W        W77510   9.075  27.312   0.070  0.1412 -0.2420 -0.2071
76647W        W77511   8.716  26.845  26.092  0.1710 -0.0579  0.1333
76648W        W77512   8.174  26.686  24.948 -0.0598  0.0022  0.0023
76649W        W77513   8.187  27.448  28.444  0.1399 -0.1128 -0.2773
76650W        W77514  10.782  26.229  25.230  0.0993  0.0679 -0.0935
76651W        W77515  10.519  24.981  25.197 -0.2434 -0.1728  0.0227
76652W        W77516   7.984   1.748   3.489  0.1715  0.1011  0.2763
76653W        W77517   8.167  22.851  25.255  0.1417  0.0112  0.0123
76654W        W77518  13.527  27.753   0.903  0.0281  0.2788  0.0964
76655W        W77519  10.805  27.256  24.248 -0.1405 -0.1184 -0.1999
76656W        W77520   8.628  26.893  24.256 -0.2532  0.0645  0.1408
76657W        W77521  10.226  26.493  26.904 -0.0605  0.0106  0.2345
76658W        W77522  10.603  27.956  25.664 -0.1620 -0.1080 -0.0202
76659W        W77523   8.831  26.927  27.883  0.0712  0.1347  0.0063
76660W        W77524   7.435  27.059  27.062  0.0250  0.0301 -0.0877
76661W        W77525   9.703   0.506  23.924  0.0970 -0.1710 -0.1673
76662W        W77526   8.946  26.000   0.752  0.3267  0.1106  0.4159
76663W        W77527   8.616  27.810  26.914 -0.2175 -0.3871 -0.2259
76664W        W77528   7.520  27.064  27.879 -0.1178  0.3177  0.0577
76665W        W77529   8.389   1.465   3.552 -0.0820  0.2263 -0.0427
76666W        W77530   9.304  27.919  25.498 -0.1930 -0.2711 -0.0816
76667W        W77531  14.017  26.772  28.726  0.0454  0.2232 -0.2025
76668W        W77532   8.214   0.534   0.110  0.1295 -0.2700  0.1104
76669W        W77533   9.679  25.714  25.388  0.0459  0.1116 -0.0004
76670W        W77534   9.736  28.792  24.947  0.0735 -0.0495 -0.0015
76671W        W77535  10.884  25.946  27.816  0.2352  0.0280 -0.3001
76672W        W77536   7.929  27.753  28.766  0.4389 -0.0434 -0.2118
76673W        W77537   8.284  26.708  28.883  0.4074  0.0940 -0.1774
76674W        W77538   8.515  27.212  26.984  0.1289 -0.2439 -0.0447
76675W        W77539   9.006  27.201  23.584 -0.0051  0.2432  0.1097
76676W        W77540   9.375  27.358  25.819  0.0241 -0.2846  0.1551
76677W        W77541  10.459  27.493  24.660  0.1686  0.2720 -0.2450
76678W        W77542   8.816  25.307  26.587  0.0958 -0.1128  0.0623
76679W        W77543  12.624  28.166  26.492 -0.4452  0.0445  0.0715
76680W        W77544   9.636  25.706  26.936  0.1382  0.1158  0.0135
76681W        W77545  10.582  27.129   0.767 -0.1186 -0.1903  0.0427
76682W        W77546   6.897  27.818  26.542 -0.1330 -0.2658 -0.0927
76683W        W77547  10.790   2.111  26.616  0.2445  0.0848  0.3732
76684W        W77548   8.896  27.940  25.840 -0.0367  0.0312 -0.1529
76685W        W77549  10.007  29.048  27.529  0.2066 -0.0766  0.0338
76686W        W77550  10.205  22.608  25.516  0.0140  0.0636  0.2655
76687W        W77551  11.199  27.880  28.279  0.1495 -0.0946 -0.1489
76688W        W77552  12.141  26.568  26.781  0.0289  0.0429  0.1782
76689W        W77553  10.175  28.946  26.280 -0.1914  0.3867 -0.3115
76690W        W77554   8.005  26.649   1.137 -0.0957 -0.2109 -0.0191
76691W        W77555  10.904  25.572  28.170  0.1363 -0.0548  0.0890
76692W        W77556  10.764  26.816  27.695  0.0098  0.0267  0.1858
76693W        W77557   8.491  27.071  25.701  0.4657  0.2889  0.2490
76694W        W77558   9.970  28.189  26.041  0.1068 -0.0193  0.1406
76695W        W77559   9.409  26.475  25.525  0.1195 -0.1468  0.0629
76696W        W77560   8.229  27.663  24.602  0.0743 -0.0011 -0.0095
76697W        W77561   7.323  28.685  26.525 -0.3509 -0.1620  0.3563
76698W        W77562   7.172  27.327  26.689  0.3156  0.1490  0.0932
76699W        W77563   9.247   3.224   0.950  0.2551  0.0180 -0.5330
76700W        W77564   7.984  25.810  22.504  0.1366 -0.1882  0.0593
76701W        W77565  11.086  26.023   0.003 -0.2447  0.2686 -0.0856
76702W        W77566  11.866   1.283  25.665 -0.0000 -0.1819 -0.1338
76703W        W77567   9.033  25.317  27.560  0.4502 -0.0997 -0.3536
76704W        W77568   8.861  27.246  27.479  0.1440  0.0031  0.0308
76705W        W77569  10.903  28.655  25.198  0.2632 -0.0718 -0.1907
76706W        W77570   9.948  28.384  26.538 -0.0366  0.0179 -0.0403
76707W        W77571   6.890  25.689  24.768 -0.3296  0.0634  0.0417
76708W        W77572  11.232  25.941  23.067 -0.0988  0.1023  0.2654
76709W        W77573   8.640  28.288  27.170  0.0077 -0.1811 -0.0595
76710W        W77574  10.041  26.070  26.058  0.2262  0.1563  0.2381
76711W        W77575   8.733  29.112  28.186  0.1246  0.0907  0.0485
76712W        W77576   9.984  25.318  25.578  0.1325  0.2845  0.2010
76713W        W77577   7.826  27.344  24.471 -0.1374 -0.1585 -0.0278
76714W        W77578   9.049  27.759  26.673 -0.2396 -0.1268  0.2520
76715W        W77579  10.468  24.009   0.382  0.2272 -0.4310 -0.0029
76716W        W77580   8.045  28.537  26.023 -0.0442 -0.0552  0.3412
76717W        W77581  10.088  27.983  28.679  0.0300 -0.0844  0.4754
76718W        W77582   9.691  27.253  27.264 -0.0700  0.3942 -0.0444
76719W        W77583   9.663  27.438   1.396 -0.3711  0.0742  0.0339
76720W        W77584   7.654  26.424  25.310 -0.1478  0.0508  0.0918
76721W        W77585   5.835  26.112  26.113 -0.2183 -0.2700 -0.0803
76722W        W77586   7.882   0.759  28.473  0.2112  0.1027 -0.2188
76723W        W77587   9.404   2.173  27.446  0.0563  0.1028 -0.0715
76724W        W77588   8.369   1.144  24.230  0.0338 -0.0730 -0.0835
76725W        W77589  10.239  28.988  25.730 -0.0573 -0.1928  0.2163
76726W        W77590   9.184  27.031  26.755  0.1925 -0.1672 -0.2492
76727W        W77591   7.261  28.379  27.030 -0.0350 -0.0480  0.1770
76728W        W77592   8.198   0.390  22.631 -0.0100  0.2433  0.0562
76729W        W77593   8.411  24.909  26.398  0.0346  0.0938  0.1528
76730W        W77594   9.668  27.105  28.523 -0.1711  0.3222 -0.6711
76731W        W77595   9.409   0.087  28.144  0.0611  0.0311  0.1635
76732W        W77596   8.256   0.272   1.401 -0.0985 -0.1281  0.0600
76733W        W77597  10.362  26.393  25.475 -0.1571 -0.1312  0.0751
76734W        W77598  10.320  28.362  26.873 -0.0893  0.0148 -0.3036
76735W        W77599   8.966  27.702  24.209  0.1109 -0.2638  0.4122
76736W        W77600  12.231  27.297  27.495 -0.0058 -0.2679  0.2011
76737W        W77601  10.661  25.820  24.255 -0.1848 -0.0961 -0.1885
76738W        W77602   7.290  25.907  26.142 -0.0552 -0.1488 -0.1259
76739W        W77603  11.943  25.594  23.216  0.0156 -0.1797  0.2319
76740W        W77604   8.601  28.259   0.125  0.2422  0.0439 -0.1512
76741W        W77605   8.577  25.885  23.349 -0.1708 -0.0957 -0.0857
76742W        W77606   8.369  27.580  28.956  0.0755  0.0343  0.1720
76743W        W77607   9.110  25.962  28.907  0.0942 -0.0188 -0.1395
76744W        W77608   8.084   0.875  25.186  0.0069  0.1526  0.1527
76745W        W77609  10.233  26.378  23.926 -0.0347 -0.2664  0.1028
76746W        W77610   9.600   1.410  24.384 -0.0795  0.1457 -0.2497
76747W        W77611   6.863  28.192  28.685  0.3829 -0.2461  0.0198
76748W        W77612  10.688  25.290  27.851 -0.0276  0.2629 -0.0147
76749W        W77613   9.128  24.083   0.431 -0.1283  0.1582 -0.1255
76750W        W77614   8.986  27.884  25.076  0.2794 -0.3377 -0.0952
76751W        W77615   7.860  26.865  26.679  0.1044  0.0578  0.0594
76752W        W77616   8.141  27.681  27.049 -0.1563 -0.3043 -0.0911
76753W        W77617   8.540  26.861  27.361  0.3310  0.1680  0.4076
76754W        W77618   9.671  25.581  28.425  0.0921  0.3483 -0.2805
76755W        W77619   8.026  25.105  24.933  0.0861  0.1679 -0.0305
76756W        W77620  11.139  27.201  27.360  0.0327 -0.0108 -0.0722
76757W        W77621  11.109  26.087  24.407 -0.1036 -0.0509 -0.3375
76758W        W77622   8.250  28.413  27.530 -0.1595  0.1475 -0.2701
76759W        W77623   8.960  25.367  28.107 -0.0092 -0.0019 -0.0557
76760W        W77624  10.713  25.327  24.905 -0.2166  0.2300  0.2918
76761W        W77625   8.046  28.473   1.010  0.3193  0.0335  0.1375
76762W        W77626  11.740  26.880  24.338 -0.0550 -0.1935 -0.1177
76763W        W77627  11.629  25.833  24.408  0.1708 -0.0442 -0.0876
76764W        W77628   4.879  26.328  25.596 -0.0912  0.1479  0.2181
76765W        W77629   8.969   1.823   0.829  0.0637 -0.1622 -0.1137
76766W        W77630   9.190   1.858   2.060  0.1491 -0.3988 -0.0823
76767W        W77631  10.656  26.712  28.547  0.4251  0.0832  0.0440
76768W        W77632  12.771  28.212  28.277 -0.0935 -0.2365  0.0672
76769W        W77633   9.049  27.415  27.018 -0.1187  0.2403 -0.2558
76770W        W77634  11.425  25.460  23.427  0.1942 -0.1036 -0.1028
76771W        W77635   8.610  27.997  25.440  0.0757  0.1628 -0.0035
76772W        W77636  10.318  27.880  23.802  0.1269  0.4754  0.3931
76773W        W77637  11.555  28.252   0.644  0.5059  0.2660 -0.2686
76774W        W77638   7.648   0.058  25.686  0.0401  0.5376  0.1531
76775W        W77639  11.271  24.669   1.957  0.0934  0.0734  0.0672
76776W        W77640  10.834  26.439  25.647  0.0485 -0.0613 -0.0883
76777W        W77641  10.028   0.220  28.773 -0.0383 -0.2663  0.0165
76778W        W77642   8.364  26.061  23.787 -0.2091 -0.1216  0.2702
76779W        W77643  10.972  28.793  27.257 -0.0065  0.0957 -0.0270
76780W        W77644   8.178   0.619  27.649  0.1039 -0.0041 -0.0521
76781W        W77645  10.287  25.526   1.741  0.2592  0.0482 -0.1632
76782W        W77646  11.854  25.208  29.092  0.0523 -0.0782  0.1099
76783W        W77647  10.809   0.479  26.512 -0.0065 -0.1944 -0.3803
76784W        W77648  11.040   0.689   0.242  0.0015  0.3641 -0.1386
76785W        W77649   8.720  26.580  29.143  0.0016  0.0343 -0.2392
76786W        W77650  11.280  25.336  28.492 -0.0992  0.3252  0.0134
76787W        W77651   9.500  28.623  26.806  0.2067 -0.2981 -0.3503
76788W        W77652  10.214  27.688  25.884 -0.2267 -0.0891  0.2555
76789W        W77653   6.717  25.665   1.013  0.1902 -0.1251 -0.0997
76790W        W77654   8.498  29.136  24.509 -0.0938  0.0645  0.0676
76791W        W77655   8.221  25.898  28.624  0.1010  0.1380 -0.5240
76792W        W77656   7.464  26.077  27.036  0.2260  0.1181 -0.1908
76793W        W77657  10.226  28.233  25.558 -0.1184 -0.2438  0.0269
76794W        W77658   8.693  28.791  26.242 -0.0836 -0.3293 -0.2142
76795W        W77659   7.926   0.568  26.224  0.1483  0.0364 -0.0975
76796W        W77660   6.549  26.907   0.155 -0.0248 -0.0129  0.0811
76797W        W77661   8.089  27.145  28.885  0.2644 -0.0954  0.1432
76798W        W77662   7.431  26.832   0.096 -0.0323  0.0467 -0.3091
76799W        W77663   9.751  29.018  25.567 -0.2181 -0.2432 -0.2527
76800W        W77664   9.588  27.361  24.788 -0.1955 -0.0054 -0.1363
76801W        W77665   9.759  28.213  27.001  0.2124 -0.1828  0.0523
76802W        W77666  10.779  27.870   1.111 -0.1311 -0.0259  0.0882
76803W        W77667  11.688   1.128  26.472  0.1320  0.2915 -0.2326
76804W        W77668   8.005  23.825  27.091  0.1343 -0.2272  0.0599
76805W        W77669   7.804  28.264  28.827 -0.1173 -0.4595  0.0704
76806W        W77670  10.066  28.291   0.371  0.1177 -0.7981  0.0209
76807W        W77671  11.119  28.152   0.278  0.0576 -0.1999  0.0673
76808W        W77672   8.980  27.733  27.811 -0.0627 -0.0074  0.1500
76809W        W77673   8.715  27.794  24.672 -0.2828 -0.2496 -0.1048
76810W        W77674   9.279  28.829  25.361  0.0087 -0.1255  0.2743
76811W        W77675   9.941  26.491  26.439 -0.2154  0.0165 -0.1343
76812W        W77676   8.315  26.035  26.626  0.2249  0.3345 -0.2879
76813W        W77677  10.718  28.571  27.956 -0.3108  0.1070 -0.0137
76814W        W77678  11.278  29.006  25.235  0.2571  0.0065 -0.3639
76815W        W77679   8.895  28.268  27.586 -0.1096  0.0726  0.2621
76816W        W77680   7.624  27.357  28.775 -0.2102  0.7679 -0.1489
76817W        W77681  10.011  27.156  28.193 -0.1968  0.0846 -0.2385
76818W        W77682   8.783  27.329  28.248  0.0865  0.1086 -0.2164
76819W        W77683   9.366  25.198  26.116  0.2999 -0.1005  0.1550
76820W        W77684   8.672  28.670  27.869  0.3731  0.0173  0.3381
76821W        W77685   9.420  28.153  25.979  0.0536  0.0960 -0.1633
76822W        W77686  12.907   1.898  26.325 -0.0563 -0.1795 -0.1041
76823W        W77687   9.910  28.239   0.904 -0.0953  0.2210 -0.0467
76824W        W77688  11.680  26.087  25.508 -0.1982  0.2083 -0.0515
76825W        W77689  10.374  25.633  24.653  0.2178 -0.1927  0.2015
76826W        W77690   9.362  25.675  26.270 -0.1230  0.0930 -0.0820
76827W        W77691   9.536  26.527  28.755  0.0175  0.4105  0.1577
76828W        W77692   9.619  28.048  28.640 -0.1641  0.1781 -0.0926
76829W        W77693  11.558   0.852  26.984  0.1088  0.0075  0.4982
76830W        W77694  10.094  24.905  28.864 -0.1046 -0.0035  0.0268
76831W        W77695   7.320  27.451  25.948 -0.0790  0.0447 -0.1078
76832W        W77696   7.694  27.975  28.363 -0.2029 -0.0967  0.3576
76833W        W77697   6.474  26.837  22.594 -0.3883 -0.2621 -0.2929
76834W        W77698   9.143   0.242   0.338  0.1842  0.0882  0.2052
76835W        W77699   9.268  26.263  28.079 -0.0107  0.0427 -0.2345
76836W        W77700   7.760  25.883  25.305 -0.1507 -0.1004  0.1148
76837W        W77701   6.325  27.177  27.051 -0.3252 -0.2426 -0.1682
76838W        W77702   6.821   1.060  29.046 -0.0528 -0.0532 -0.0633
76839W        W77703   8.858  26.641  25.662 -0.0468  0.1358 -0.1740
76840W        W77704  12.528  26.993  27.261  0.0132 -0.0875  0.1454
76841W        W77705   9.947  27.946  28.129  0.1581  0.0673  0.2842
76842W        W77706   6.965  27.071  27.877 -0.1708  0.0401  0.2095
76843W        W77707   9.876  27.140  26.298 -0.2297 -0.2172  0.3097
76844W        W77708  10.880  28.479  26.797  0.0768 -0.1204 -0.3196
76845W        W77709  10.757  26.689  25.095  0.4825 -0.0724  0.0922
76846W        W77710   8.313  27.399  27.403 -0.1175  0.0199 -0.3368
76847W        W77711  11.661  26.991  27.475  0.1905  0.3558  0.1850
76848W        W77712   5.844  26.996  27.137  0.1277 -0.1290 -0.0259
76849W        W77713   8.859   0.324  24.172 -0.0656 -0.2699  0.2862
76850W        W77714  12.166  27.585  26.545  0.1573 -0.2141  0.0849
76851W        W77715   9.785  24.933   2.219 -0.0409  0.2619  0.1374
76852W        W77716  10.653   0.018  27.372 -0.4300 -0.0166 -0.1310
76853W        W77717  10.197  27.464  27.337 -0.1176  0.1846 -0.1891
76854W        W77718   8.710   0.848  27.058 -0.3021 -0.2400 -0.4202
76855W        W77719   9.119  28.995  26.886  0.2451  0.0744 -0.0212
76856W        W77720   7.173  27.149  28.942  0.2456  0.0261  0.3995
76857W        W77721   9.643  26.945  27.882  0.1732  0.0702 -0.0634
76858W        W77722   9.348   0.873  26.855 -0.1750 -0.1284  0.0605
76859W        W77723  11.684  28.540  25.991  0.1524 -0.0523  0.0821
76860W        W77724  10.567  28.818   0.131  0.3137 -0.5566 -0.2189
76861W        W77725  10.087  25.062  26.606 -0.0167 -0.1266  0.2021
76862W        W77726   6.047  24.785  27.289 -0.2943  0.0076 -0.2867
76863W        W77727   9.740  26.641  28.300 -0.4006  0.1631 -0.0650
76864W        W77728   7.661  29.088  26.648 -0.0120 -0.1477  0.1240
76865W        W77729   7.407  24.792  24.645  0.0287  0.0327  0.5909
76866W        W77730  12.735  27.656  28.236 -0.2024  0.0284  0.2877
76867W        W77731  11.796  26.750  24.869  0.0650  0.0865 -0.1029
76868W        W77732  10.466  27.320  28.031 -0.4043 -0.0463 -0.0405
76869W        W77733   9.768  27.998  29.117  0.3405 -0.0693  0.2693
76870W        W77734   8.952   0.358  26.780  0.2238 -0.2743 -0.2161
76871W        W77735   7.802  27.638  25.889 -0.3461 -0.1086  0.0945
76872W        W77736   9.569  28.094  26.444  0.2254 -0.1464  0.0619
76873W        W77737   9.746   1.351   0.901 -0.2625 -0.1102  0.3280
76874W        W77738   9.304  27.573  27.485  0.1230 -0.2717 -0.1144
76875W        W77739   7.646  26.341  26.648 -0.0171  0.2213  0.0415
76876W        W77740  11.249   0.662  25.488 -0.0307 -0.2589  0.0352
76877W        W77741   8.607  28.324  28.313 -0.1648 -0.2398  0.1707
76878W        W77742  10.009  28.503  29.023 -0.1946 -0.1894  0.4776
76879W        W77743   5.815   0.467  26.133  0.5333  0.0817  0.0148
76880W        W77744   7.690  27.448  27.386  0.0080  0.0809  0.0094
76881W        W77745   8.870  27.329  25.980 -0.1004 -0.1730 -0.2698
76882W        W77746   8.326   1.565  25.995 -0.0019 -0.0435 -0.0880
76883W        W77747   9.124  25.909  23.544 -0.3809  0.0164  0.1814
76884W        W77748   7.009  28.671  28.675 -0.1626 -0.0391 -0.2961
76885W        W77749   8.859   0.221   2.436 -0.5151 -0.2089 -0.3851
76886W        W77750  10.578  26.859  25.605  0.0178 -0.0431  0.0592
76887W        W77751  10.177  26.481   1.328 -0.1567  0.2639  0.0120
76888W        W77752   8.873   1.343   0.978 -0.1854  0.1412  0.0170
76889W        W77753  10.826  28.869  28.755 -0.2767 -0.1230  0.3322
76890W        W77754   9.172  26.554   1.687  0.1890 -0.1572 -0.0427
76891W        W77755   8.205  28.884  26.435 -0.1064 -0.1859 -0.2460
76892W        W77756  13.407  25.969  27.065  0.2052 -0.0914 -0.3397
76893W        W77757  12.471  28.298  28.678  0.1440 -0.0631  0.4491
76894W        W77758  11.880  24.865  25.592  0.0334  0.0567  0.1630
76895W        W77759   7.991  27.179  25.694  0.0922 -0.0426  0.2021
76896W        W77760  11.441  27.091  28.796 -0.0290  0.1572  0.1744
76897W        W77761   7.940  24.402  27.113 -0.2965  0.0990  0.0419
76898W        W77762   6.756  27.938  26.035  0.2574 -0.6114  0.0784
76899W        W77763   8.806  27.219  26.533  0.0477  0.1322  0.1828
76900W        W77764  10.735  28.172  24.083  0.1192  0.0020 -0.1470
76901W        W77765   6.469  27.673  25.761 -0.2897 -0.1581  0.1547
76902W        W77766   6.574  26.788  24.314 -0.2775  0.1568 -0.1376
76903W        W77767   9.511  27.760  26.984 -0.1905  0.1702 -0.2589
76904W        W77768   9.671  24.664  25.206  0.2346 -0.0561 -0.2598
76905W        W77769   9.193  25.732  28.488  0.1384  0.0658  0.1086
76906W        W77770  10.890  26.329  26.272 -0.3179  0.0206 -0.1713
76907W        W77771   9.034  26.695  26.416 -0.0969 -0.1810 -0.1167
76908W        W77772  10.085   0.783  27.224 -0.2249 -0.2648  0.1977
76909W        W77773   8.928  25.308  24.096  0.0512  0.0407  0.0752
76910W        W77774   9.895  23.852  24.258 -0.1688 -0.0335  0.2118
76911W        W77775   6.864   1.790  27.703 -0.1161  0.0423  0.0078
76912W        W77776  11.210  26.950  27.845 -0.2372 -0.0491 -0.0374
76913W        W77777   6.436   2.357  27.926  0.0444 -0.1154 -0.0903
76914W        W77778   7.777  29.078  27.161 -0.2849  0.0666 -0.1339
76915W        W77779   7.356  26.860  23.148  0.2691 -0.0269  0.2129
76916W        W77780  11.049  25.771   3.360  0.0482  0.1769  0.3528
76917W        W77781   7.218  27.375  28.460  0.1521 -0.3725 -0.1286
76918W        W77782   8.635  26.272  24.826  0.3322  0.2663  0.1423
76919W        W77783   9.581   0.745  27.523  0.0821  0.0160 -0.1124
76920W        W77784  11.104  25.786  28.644 -0.1155 -0.1793  0.0157
76921W        W77785   9.713  27.956   0.533 -0.0443 -0.0978 -0.1202
76922W        W77786   7.783  27.980  26.759 -0.2381 -0.3364 -0.0029
76923W        W77787   9.850  26.206  25.481 -0.0362  0.0033 -0.0512
76924W        W77788   9.857  24.551  25.910  0.1362 -0.1317  0.0929
76925W        W77789   5.211  27.772  25.403 -0.0688  0.0536  0.1670
76926W        W77790  11.871  28.367  28.076  0.0039  0.0237 -0.0077
76927W        W77791   9.580  28.302  24.623 -0.1767  0.4387  0.0076
76928W        W77792   9.259  26.353  26.737  0.0548  0.2433 -0.0593
76929W        W77793  10.613  25.241  25.654  0.0898 -0.0568 -0.2773
76930W        W77794   7.047  27.859  25.239  0.0944 -0.1790  0.0415
76931W        W77795   7.230  26.643  27.935 -0.1277 -0.0452  0.0357
76932W        W77796  11.087  27.157  26.882 -0.4658 -0.0975  0.2110
76933W        W77797  10.624  27.870  28.700  0.0922  0.1746  0.1808
76934W        W77798   7.747  26.441   0.148 -0.1500  0.2307 -0.2600
76935W        W77799  10.864  27.056  28.161  0.0012 -0.1128  0.3621
76936W        W77800   7.770  28.726  28.004 -0.2606 -0.0004  0.0547
76937W        W77801   7.243  28.222  29.071 -0.2991  0.3787 -0.1221
76938W        W77802  12.017  27.854   1.317 -0.2069 -0.3203 -0.0742
76939W        W77803   9.012   1.708   1.382 -0.0787 -0.0443  0.2906
76940W        W77804   9.082  26.692  25.196  0.1288  0.3239 -0.2442
76941W        W77805  10.907   0.114  26.908  0.1441  0.2715  0.2667
76942W        W77806   8.341  26.976  27.776  0.3998  0.1254  0.1323
76943W        W77807   8.128  29.112  26.843  0.3613 -0.3232  0.1005
76944W        W77808   9.756  27.621  26.124  0.2021 -0.0735 -0.0418
76945W        W77809   7.489   0.042   1.886  0.3198  0.0247  0.1172
76946W        W77810   6.002  29.141   0.280 -0.3758  0.0092  0.4387
76947W        W77811  11.335  28.941  26.103 -0.4416  0.0130  0.1712
76948W        W77812   9.885   3.843  26.629 -0.0054  0.2793 -0.1693
76949W        W77813   5.231  28.290   0.680 -0.2557 -0.0557 -0.1934
76950W        W77814   9.390  24.326  26.594  0.0021  0.1800  0.1748
76951W        W77815   9.091   0.426  23.531  0.1365  0.3013 -0.1802
76952W        W77816   8.440  27.195   0.666  0.0888  0.1492  0.2217
76953W        W77817   9.556  26.671  25.107 -0.1145 -0.2323  0.0345
76954W        W77818   8.721  26.780  24.724 -0.0594 -0.3248  0.2229
76955W        W77819   9.889   2.348   7.071 -0.0125  0.1126  0.1549
76956W        W77820   9.372   2.004   5.224 -0.1582  0.0992 -0.1454
76957W        W77821  13.871   1.183   3.785  0.2187  0.0349  0.1813
76958W        W77822  12.823   5.720   4.678 -0.1187 -0.3012 -0.0945
76959W        W77823  13.217   2.804   0.451  0.3430 -0.1702  0.3301
76960W        W77824  10.139   2.159   2.104  0.0018 -0.1039  0.2154
76961W        W77825  12.947   0.920   1.770  0.0618 -0.2042 -0.3174
76962W        W77826  11.253  28.653   3.037 -0.1217 -0.2154 -0.0696
76963W        W77827  11.052   4.534   2.045 -0.1349  0.0280  0.0513
76964W        W77828  12.286   0.017   4.704 -0.0919  0.1335  0.0925
76965W        W77829  10.160   0.091   2.832 -0.0286  0.1639 -0.3103
76966W        W77830  13.703   2.308   3.857 -0.1225  0.1399 -0.1840
76967W        W77831  13.167  28.945   0.058  0.0647 -0.0717  0.2413
76968W        W77832  15.974   0.371   3.570 -0.2420 -0.2160  0.0832
76969W        W77833   8.304   1.386   3.043  0.2233  0.2309  0.0419
76970W        W77834  10.274   3.234   4.242  0.0567 -0.0411  0.0231
76971W        W77835  12.085   1.767   1.263  0.2877  0.1328 -0.0234
76972W        W77836  10.571   0.952   0.098 -0.0729  0.0821  0.2360
76973W        W77837  12.133   0.859   4.299 -0.1546 -0.0397  0.3735
76974W        W77838  12.980   2.478   1.737  0.4185  0.1162 -0.0846
76975W        W77839  13.072   0.350   3.314  0.2479 -0.0519 -0.2752
76976W        W77840  10.192   2.651   3.242  0.1509  0.0056  0.1059
76977W        W77841  13.237   2.912  29.059  0.1071 -0.0747 -0.1385
76978W        W77842  10.608   2.339   4.030  0.2447 -0.1288 -0.1868
76979W        W77843   9.969   2.057   1.620 -0.0411 -0.4335 -0.0885
76980W        W77844   9.648   3.851   3.151  0.1359  0.2240 -0.1752
76981W        W77845  13.479   0.642   2.251  0.3054 -0.1344  0.1895
76982W        W77846  12.608   3.890   3.542 -0.0423  0.2283  0.0517
76983W        W77847  11.024   2.605   2.124 -0.0073 -0.0768 -0.0936
76984W        W77848  14.323   1.079   3.697 -0.1799 -0.0895 -0.0389
76985W        W77849   9.335   2.096   1.647  0.0407  0.0378  0.1039
76986W        W77850  12.403   2.036   3.025 -0.1890  0.2642 -0.0692
76987W        W77851   8.508   0.286   4.307  0.5538 -0.2602 -0.0907
76988W        W77852  12.022   3.603   0.700  0.0421  0.1819 -0.1196
76989W        W77853   9.732  28.745   5.636 -0.1839 -0.1622  0.0982
76990W        W77854  13.913   3.594   4.776 -0.0928  0.1880  0.0515
76991W        W77855  11.828   0.981  27.378  0.1855  0.0939 -0.2785
76992W        W77856  11.427   2.510   0.577  0.1389  0.0036 -0.0655
76993W        W77857  13.379   3.213   1.347 -0.5387 -0.2753 -0.2983
76994W        W77858  15.514  28.768   1.220 -0.2461  0.0934 -0.2717
76995W        W77859  14.178   1.122  29.032 -0.1158  0.0449  0.1581
76996W        W77860  13.915  27.299   3.028 -0.1235  0.2296 -0.3549
76997W        W77861  12.236   0.811   2.333 -0.3777  0.2669 -0.2531
76998W        W77862  13.539   3.215   0.492  0.3280 -0.4069  0.1571
76999W        W77863  12.736   4.418   0.507 -0.1430  0.3230  0.2166
77000W        W77864  10.334   3.231   0.604 -0.1362 -0.0232 -0.0321
77001W        W77865  10.018   1.569   1.805  0.1737 -0.0296 -0.0039
77002W        W77866  13.954   0.699   2.077 -0.1452 -0.1470  0.3306
77003W        W77867  13.640   3.084   2.735  0.3320 -0.0217  0.1746
77004W        W77868  13.452   1.539  28.955  0.0447  0.0554 -0.0477
77005W        W77869  12.725   3.777   4.617 -0.3030  0.1805 -0.0174
77006W        W77870  10.317   1.499   0.109 -0.0674  0.1584  0.3648
77007W        W77871  13.147   1.759   2.813  0.4284 -0.1528 -0.1100
77008W        W77872  14.274   1.222  28.536  0.1436 -0.0113  0.1417
77009W        W77873  12.029  29.120   2.143 -0.1573  0.1017  0.1827
77010W        W77874  11.324   1.233   1.486  0.1173  0.2527  0.1906
77011W        W77875  10.734   1.542   0.778 -0.0011 -0.0308 -0.2170
77012W        W77876  13.876   0.366   1.282 -0.0307 -0.2502 -0.0745
77013W        W77877   9.840   1.558  29.122 -0.0155  0.2174 -0.1346
77014W        W77878  14.115   3.749   1.248  0.1559  0.0346 -0.1190
77015W        W77879  12.767   1.171  28.395  0.0880 -0.0906  0.3020
77016W        W77880  11.679   3.576   3.170  0.0212  0.0711 -0.1883
77017W        W77881  10.699   6.299   2.065 -0.2336 -0.4439 -0.2370
77018W        W77882   9.382   3.273   1.989  0.1650 -0.1216 -0.1239
77019W        W77883  10.046   3.282   1.521 -0.1556  0.2233 -0.1576
77020W        W77884  12.945  28.489   3.288  0.2520 -0.0630  0.0543
77021W        W77885  13.547   1.867   0.296 -0.3281  0.1101 -0.2595
77022W        W77886  10.711   2.353   1.803  0.1371 -0.0164 -0.0964
77023W        W77887  12.719   4.317   4.243  0.0867  0.2103 -0.0035
77024W        W77888  11.967   0.708   0.136  0.0531 -0.1420  0.2387
77025W        W77889  14.052   5.278   2.891  0.0410 -0.3794  0.1012
77026W        W77890  12.749   1.994   2.613 -0.0314  0.1297 -0.3833
77027W        W77891  14.450   3.293  28.540  0.1650  0.0643 -0.0081
77028W        W77892  14.409   1.068   2.887 -0.0848 -0.0254  0.4054
77029W        W77893  14.091   3.548   1.745  0.2023 -0.1220 -0.1258
77030W        W77894  15.084   2.231   3.816  0.3607 -0.0202  0.0538
77031W        W77895  11.211   0.908   2.387 -0.0001 -0.0446 -0.0700
77032W        W77896  12.211   1.617   3.104 -0.1334 -0.3661 -0.1020
77033W        W77897  12.695  29.045   1.360  0.0008 -0.1343 -0.3667
77034W        W77898  13.480   2.624  28.689  0.3586  0.2065 -0.0373
77035W        W77899  12.599   1.978   3.541 -0.1391  0.1360  0.0554
77036W        W77900  11.460   1.743   5.123  0.1355 -0.5433  0.1213
77037W        W77901  10.017   2.428  29.000 -0.1352 -0.0342 -0.1093
77038W        W77902  11.418   1.901   2.859 -0.0596 -0.1821  0.1262
77039W        W77903   9.447   2.099   3.744  0.1845 -0.0262  0.0058
77040W        W77904  15.212   1.940   0.079  0.0980 -0.2160 -0.0780
77041W        W77905  14.041   2.893   2.560 -0.3010  0.3817  0.0092
77042W        W77906  14.049   1.621   4.013  0.0719  0.1738 -0.2189
77043W        W77907  11.202   4.982   3.082 -0.3543 -0.1816  0.0866
77044W        W77908  11.620   2.651   2.808 -0.3284 -0.0900  0.1660
77045W        W77909  12.727  28.579   1.641 -0.0779  0.1472 -0.0560
77046W        W77910  15.034   0.609   4.749  0.3178  0.1764  0.1660
77047W        W77911  12.538   2.807   1.690 -0.0280  0.3767 -0.1091
77048W        W77912  14.786   1.972  28.910  0.0678  0.2030  0.0431
77049W        W77913  10.376   0.857   3.914 -0.1649  0.2953  0.1017
77050W        W77914  13.200   1.871   0.715  0.1361 -0.1813 -0.1625
77051W        W77915  16.433   1.570  28.007  0.2360 -0.1529  0.1209
77052W        W77916  10.408   1.425   3.962 -0.0997 -0.1243  0.0002
77053W        W77917  11.651  28.970   2.803  0.0625 -0.0291  0.1967
77054W        W77918  15.163   0.177  28.662 -0.0978  0.1367  0.1099
77055W        W77919  16.357   2.017   1.888  0.0841  0.0456 -0.1524
77056W        W77920   9.388   2.552   1.370 -0.1589 -0.2087 -0.2078
77057W        W77921  11.351   0.210   0.902  0.4086  0.0391  0.1425
77058W        W77922  12.311   3.820   2.092 -0.1627 -0.3826 -0.1985
77059W        W77923  11.997   1.273   1.825  0.0791 -0.1635  0.0235
77060W        W77924  11.798   1.907   3.954  0.2618 -0.1266  0.0417
77061W        W77925  10.991   1.102  29.049  0.0372  0.0768 -0.0808
77062W        W77926  15.339   2.833   3.908  0.0169 -0.1457 -0.0676
77063W        W77927   9.821  27.656   2.297  0.0155 -0.1395 -0.0618
77064W        W77928  12.960   2.193   3.067  0.0775 -0.1393 -0.2085
77065W        W77929   7.658   2.269   2.770 -0.2584  0.0042  0.2608
77066W        W77930  12.182   3.031  28.288  0.0565  0.0673  0.0065
77067W        W77931  13.816   2.762   2.022  0.3020 -0.0169  0.0307
77068W        W77932  12.264   5.472   3.841 -0.2636 -0.0624 -0.0966
77069W        W77933  15.058   0.690  29.143 -0.0737 -0.1957  0.2708
77070W        W77934  11.783   2.646   1.872  0.1622  0.1850  0.0941
77071W        W77935  13.958  28.928   1.616  0.0016 -0.1687  0.3017
77072W        W77936  13.424   2.124   2.999 -0.0921 -0.0594  0.0597
77073W        W77937  12.907   1.249   2.948 -0.0310  0.0235  0.0543
77074W        W77938  13.780   2.331   3.299 -0.1678 -0.1162 -0.0642
77075W        W77939  11.575   2.360   3.179  0.1125  0.1064 -0.0490
77076W        W77940  12.458   4.263   2.256 -0.2765  0.0142  0.0174
77077W        W77941  15.368   2.409   2.923  0.1849  0.1229 -0.1975
77078W        W77942  13.591   1.046  27.064 -0.3089 -0.1104  0.0641
77079W        W77943  13.264   4.258   3.270  0.0069  0.0666 -0.0617
77080W        W77944  13.907   0.777   1.566 -0.5810 -0.2737  0.0185
77081W        W77945  11.196   1.500   2.924 -0.1604  0.2831  0.2630
77082W        W77946  14.387   2.807   2.237  0.1505 -0.2517 -0.1393
77083W        W77947  11.965   3.922   3.068 -0.0955 -0.1178 -0.0100
77084W        W77948  13.166   4.667   1.465 -0.1303  0.0636 -0.0285
77085W        W77949  11.114   5.078   0.736  0.3088 -0.1300 -0.3318
77086W        W77950  12.829   2.426   4.268 -0.0851 -0.0484 -0.0328
77087W        W77951  13.005   4.066   2.296  0.0837 -0.1546 -0.1827
77088W        W77952  14.333   0.669   2.513  0.1027 -0.1060  0.3989
77089W        W77953  15.696   3.722   2.161 -0.0723  0.2379  0.1518
77090W        W77954  11.599   2.127   4.762 -0.1097  0.2067  0.3480
77091W        W77955  11.894   0.809   1.939  0.0816 -0.0587  0.0366
77092W        W77956  14.586  29.134   2.248 -0.0547 -0.0985  0.1996
77093W        W77957  12.954   2.919   1.385  0.0325 -0.0380 -0.0647
77094W        W77958  12.399   5.627   0.779 -0.1900  0.0223 -0.1996
77095W        W77959  10.411  28.039  28.177 -0.1409  0.0292  0.0099
77096W        W77960  13.463   3.092   2.237 -0.1354 -0.2551  0.1921
77097W        W77961  10.744   3.692   0.081 -0.3756  0.0445  0.3107
77098W        W77962  11.920   3.914   0.165  0.1538  0.0173 -0.0901
77099W        W77963  14.026   2.020   4.687  0.0002 -0.1451  0.0334
77100W        W77964  12.612   1.020  28.841 -0.2256 -0.0427 -0.1162
77101W        W77965  13.049   1.351  28.781 -0.0011  0.1254  0.1620
77102W        W77966  13.220   2.286   2.567 -0.4032 -0.0131 -0.0730
77103W        W77967  13.507   4.046   2.325  0.0955  0.1032 -0.0890
77104W        W77968  12.428   3.672   0.358  0.1488  0.1906 -0.0111
77105W        W77969  15.095   0.725   3.700  0.1982 -0.0177  0.0417
77106W        W77970   9.852   2.839   1.737 -0.1146  0.0937 -0.1517
77107W        W77971  12.621   1.655  28.476  0.0464 -0.2536  0.1782
77108W        W77972  10.954   2.544   0.793  0.2513 -0.0004  0.0699
77109W        W77973  14.658   0.722   3.397 -0.0999  0.1076  0.0292
77110W        W77974  14.636   2.077   2.859 -0.2291  0.1654  0.0176
77111W        W77975  10.452   3.837   0.749  0.0998 -0.0843 -0.2038
77112W        W77976  13.248   1.974  29.118 -0.3251  0.0491  0.0830
77113W        W77977  12.638   1.724  27.366  0.2195 -0.1753  0.0705
77114W        W77978  13.869   2.050   1.920 -0.0270  0.1033  0.0942
77115W        W77979  11.316   2.301   1.785  0.0307 -0.2224 -0.0541
77116W        W77980  13.592   2.631   2.494  0.4145  0.0085  0.2288
77117W        W77981  13.902   1.464   3.323  0.0355  0.1175 -0.1592
77118W        W77982  12.472   2.390   3.931  0.1387 -0.0879  0.2383
77119W        W77983  12.211   3.303   2.466  0.2991 -0.2183  0.1685
77120W        W77984   9.971   1.393   3.728 -0.0768  0.2152 -0.0060
77121W        W77985  12.348   1.500   3.615  0.0622 -0.2249  0.0406
77122W        W77986  11.365   2.969   0.415  0.0037  0.1018 -0.1929
77123W        W77987  11.048   2.991   4.955  0.1088 -0.4122 -0.0343
77124W        W77988  11.457   0.752  29.076 -0.0527 -0.1080  0.3498
77125W        W77989  13.344   2.460   2.073  0.0301 -0.2463  0.2231
77126W        W77990  12.404   2.380   2.007 -0.3527 -0.3313  0.0398
77127W        W77991  11.323   1.697   3.939 -0.2175  0.0268 -0.2115
77128W        W77992  12.370   2.363   2.565 -0.1314  0.0502  0.2363
77129W        W77993  12.734   0.667   2.264 -0.0913  0.0699 -0.2947
77130W        W77994  15.245   1.086   0.903  0.0507 -0.1506  0.3022
77131W        W77995   8.124   5.831   2.914 -0.0280  0.1180  0.0220
77132W        W77996   9.711   2.523   0.827 -0.2817 -0.4347 -0.1652
77133W        W77997   7.999   3.398   1.609  0.1961  0.1719 -0.1553
77134W        W77998  10.564   0.212   1.831 -0.1895  0.2126  0.0451
77135W        W77999  12.091   2.301   1.452 -0.0185  0.3412 -0.2024
77136W        W78000  14.682   4.288  27.745 -0.1186 -0.0688 -0.0595
77137W        W78001  13.144   0.329   2.535 -0.0621 -0.1216  0.3729
77138W        W78002  11.257   1.706   1.267  0.0185  0.2577  0.0293
77139W        W78003  12.223   1.094   0.013 -0.1534 -0.3044 -0.0414
77140W        W78004  13.800   2.617   4.738  0.0153 -0.2279 -0.0014
77141W        W78005  14.003   0.270   0.403  0.0582  0.0469  0.2683
77142W        W78006   9.775  25.958   1.148 -0.0626  0.1584 -0.0856
77143W        W78007  11.769   2.988   2.411  0.1152 -0.1028  0.2978
77144W        W78008  10.804   1.637   3.702 -0.0809  0.0242 -0.3461
77145W        W78009  11.252   2.928  29.104  0.0506 -0.0827  0.2736
77146W        W78010   8.484   3.556   2.991 -0.4208  0.0180 -0.1704
77147W        W78011  10.609   3.294   1.438  0.3008 -0.0159 -0.0861
77148W        W78012  10.424  28.617   4.028 -0.0297  0.1576 -0.1499
77149W        W78013  14.166   2.068   3.181  0.1750  0.0331 -0.3203
77150W        W78014  10.787   0.643   1.534  0.0853  0.0780  0.0131
77151W        W78015  14.088   0.483  28.297  0.0579  0.0801  0.1767
77152W        W78016  10.423   0.353   1.022  0.0827  0.0539 -0.0933
77153W        W78017  10.291   0.563  28.015 -0.0154  0.1786  0.1972
77154W        W78018  12.298  28.250   1.632 -0.0806 -0.1360  0.0171
77155W        W78019  13.891  26.955   2.159 -0.1208 -0.1271 -0.1127
77156W        W78020  13.142   0.793   3.029  0.2683 -0.6213 -0.1508
77157W        W78021  16.872   1.158   1.693 -0.1220  0.2276  0.0101
77158W        W78022  10.540   3.061   2.476  0.0612  0.0222 -0.2322
77159W        W78023  11.380   1.999   2.336  0.2113  0.1533 -0.2584
77160W        W78024  11.120   2.090   0.068  0.0506  0.1386  0.0165
77161W        W78025  15.294   0.712   5.576  0.1700 -0.1901 -0.2320
77162W        W78026  11.778   2.837   3.453 -0.0591  0.0707 -0.0059
77163W        W78027  12.897   2.946   2.017 -0.0738 -0.0647  0.0187
77164W        W78028   9.875   1.738   1.180  0.2296 -0.2360 -0.4663
77165W        W78029  10.424   4.094   3.220  0.0774 -0.0653  0.0443
77166W        W78030   8.309   3.027   3.654 -0.0139 -0.0784  0.1077
77167W        W78031  12.400   2.811   5.836  0.1137  0.2876 -0.0927
77168W        W78032  14.776  28.900   3.131  0.1266  0.0249 -0.1091
77169W        W78033  14.955   1.688   3.914  0.1867  0.1631 -0.2223
77170W        W78034  17.491   3.228   0.192 -0.0873 -0.1637 -0.0982
77171W        W78035  16.204   3.614  27.990 -0.3086 -0.1901 -0.0128
77172W        W78036  14.140   3.079  28.114 -0.0304  0.0652 -0.0204
77173W        W78037  11.458   4.501   2.341 -0.2321 -0.2949 -0.0388
77174W        W78038  10.021   6.253   2.838  0.0507  0.3343 -0.0143
77175W        W78039  15.520  28.137   4.050 -0.0509  0.3738 -0.1696
77176W        W78040  13.522   0.897   1.834 -0.0705 -0.0050  0.3495
77177W        W78041  14.142   2.077   4.145  0.2938  0.0122 -0.1881
77178W        W78042  12.851   0.534   0.423 -0.1616 -0.0982  0.1092
77179W        W78043  13.600   3.689   1.374 -0.0583  0.1936 -0.0281
77180W        W78044   9.784   1.352   4.701  0.1880 -0.1501  0.0472
77181W        W78045  12.954   2.135   5.888 -0.5154  0.0591  0.1832
77182W        W78046  12.277   0.395   3.033 -0.2727 -0.3168 -0.1401
77183W        W78047  13.301   5.627  27.906  0.0110  0.0281  0.0728
77184W        W78048  11.819   0.324   1.861 -0.1917  0.0254 -0.3277
77185W        W78049   9.381  28.264   4.232 -0.0761 -0.4826  0.1710
77186W        W78050  15.896   2.107   2.351  0.0461 -0.0170  0.0678
77187W        W78051  10.623   3.553   1.956  0.0704 -0.0168  0.1951
77188W        W78052  14.270   2.379   1.212 -0.3798  0.2701 -0.0508
77189W        W78053  10.910   0.251   1.201  0.1400 -0.0852  0.1114
77190W        W78054  14.086   2.640   3.533  0.0516 -0.2744 -0.1956
77191W        W78055  14.696   2.259   1.483  0.0394  0.0607  0.0354
77192W        W78056  12.222   3.482   2.932  0.0973  0.1433 -0.2148
77193W        W78057   8.480   2.040   3.653  0.2386 -0.0085 -0.0488
77194W        W78058  14.827   1.933   2.367  0.2875 -0.4141 -0.0445
77195W        W78059  14.284   3.225  29.029 -0.1031 -0.0956  0.0847
77196W        W78060   9.623  29.136   4.319 -0.0849  0.4796  0.2192
77197W        W78061  10.474   1.831   1.900 -0.1695  0.3337 -0.2024
77198W        W78062  10.036   0.429   3.184  0.0208  0.0181  0.3071
77199W        W78063  13.127   1.545   4.319  0.1546 -0.0841 -0.2071
77200W        W78064  14.350   3.332  27.620  0.3136  0.1269 -0.0439
77201W        W78065  14.180   1.197   2.416 -0.3222  0.0700  0.0140
77202W        W78066  10.613   2.224   2.344 -0.1675  0.0280  0.0751
77203W        W78067  13.172   4.747   2.125 -0.0577  0.2092  0.4692
77204W        W78068   9.473   1.041  28.960 -0.1024  0.0474 -0.2564
77205W        W78069  12.420   3.430   3.870 -0.1554 -0.4171 -0.4236
77206W        W78070  11.153   2.737   3.054 -0.2045 -0.0758 -0.1980
77207W        W78071  13.472   3.762   4.439  0.0097 -0.0489 -0.0050
77208W        W78072  16.290   3.109   3.746 -0.0977 -0.0839 -0.1427
77209W        W78073   9.220   0.480   1.137  0.1043  0.0066 -0.0184
77210W        W78074  13.900   3.527  27.757 -0.1179 -0.1221  0.2458
77211W        W78075  14.487   2.673   0.598  0.2480  0.0895  0.1514
77212W        W78076  11.024   0.064   2.269  0.0583  0.3253 -0.0635
77213W        W78077  13.703   3.241   1.707  0.0597 -0.0956 -0.0275
77214W        W78078  11.901   0.471   2.312 -0.2365  0.4120  0.2405
77215W        W78079  12.619   1.871   2.086  0.0821 -0.2410 -0.0515
77216W        W78080  14.412   1.523   2.058 -0.3529 -0.0643  0.0329
77217W        W78081  12.379   4.848   1.272 -0.0460  0.0885 -0.2776
77218W        W78082   7.978   1.047   5.311  0.0131 -0.0263  0.1638
77219W        W78083  13.804   3.620   0.693 -0.0747  0.1703 -0.1225
77220W        W78084  11.975   4.536   5.454  0.0067 -0.0891 -0.1187
77221W        W78085  12.640   1.702  27.938  0.0656  0.0855 -0.0542
77222W        W78086  10.535   3.408   2.909  0.1072  0.0005 -0.2781
77223W        W78087  12.380   0.844   4.714 -0.1660 -0.0728  0.0454
77224W        W78088  14.765  27.274   1.190 -0.3333 -0.3102 -0.0907
77225W        W78089  13.690   2.404   1.054  0.2611  0.0842 -0.1183
77226W        W78090  12.417  28.668   4.977 -0.1816 -0.2159  0.1602
77227W        W78091  14.093  27.860   3.332  0.1097  0.0809 -0.1326
77228W        W78092  13.054   3.772   3.328  0.3396 -0.0192  0.0658
77229W        W78093  16.580   3.376  27.735 -0.1725 -0.1691 -0.0030
77230W        W78094  10.641   2.320   2.924 -0.1854 -0.0915  0.0538
77231W        W78095   8.587  28.436   3.850  0.2134  0.1382  0.1429
77232W        W78096  12.828   2.579   2.747  0.0479 -0.0280 -0.2021
77233W        W78097   9.405   3.960   1.757 -0.0970 -0.0858 -0.0179
77234W        W78098  11.033   1.762   3.296  0.1786 -0.2724  0.0208
77235W        W78099  14.116   2.122   3.651  0.1398 -0.0096 -0.0915
77236W        W78100  12.628   3.248   0.030 -0.0522 -0.0354 -0.1192
77237W        W78101  11.297   1.412  27.793  0.1036  0.4261  0.1130
77238W        W78102  11.232   4.071   0.676 -0.1123  0.0218  0.2465
77239W        W78103  11.829   3.052   0.635  0.0470 -0.2802  0.0886
77240W        W78104  14.027  27.603   4.824 -0.1239 -0.0171 -0.0137
77241W        W78105  13.441   3.921   2.865  0.1389  0.1233 -0.0492
77242W        W78106  12.527   4.017   5.098  0.2988  0.0567 -0.0784
77243W        W78107  13.856   1.428   0.094 -0.0374 -0.4522  0.1915
77244W        W78108  15.997   3.158   0.693 -0.2247 -0.2709  0.0921
77245W        W78109  12.912   2.406   3.695  0.0879 -0.1015  0.0158
77246W        W78110  14.863   1.430   1.166  0.0549 -0.0946 -0.2322
77247W        W78111  13.344   2.882   1.743  0.1346  0.2451  0.0133
77248W        W78112  12.473   2.426  29.058 -0.2380  0.1426  0.1365
77249W        W78113  11.011   3.151   2.834 -0.0282  0.0019 -0.1556
77250W        W78114  11.276   1.426   3.525 -0.1161 -0.3223 -0.0249
77251W        W78115  10.400   1.808   0.528 -0.0726 -0.4657  0.0460
77252W        W78116  18.812   3.022   0.887 -0.1156  0.0509  0.2094
77253W        W78117  15.351  28.936   2.929  0.1685 -0.1931 -0.1902
77254W        W78118  12.150   2.672   0.867 -0.2590 -0.1498  0.0240
77255W        W78119   9.082   3.275   0.068 -0.0294  0.0676 -0.3968
77256W        W78120  10.786   0.289   3.591  0.2351  0.2532 -0.2572
77257W        W78121  11.128   3.836   2.141  0.0318  0.1650  0.0315
77258W        W78122  16.385   1.667  26.423 -0.2325 -0.0103 -0.0791
77259W        W78123  12.406   5.428   4.535 -0.0706  0.1774  0.0392
77260W        W78124  13.987   4.093   3.536 -0.1592 -0.3574 -0.3194
77261W        W78125  14.768   1.528   5.134 -0.2424 -0.3061 -0.2138
77262W        W78126   9.072   1.335   1.770 -0.2320 -0.3249  0.1967
77263W        W78127  15.305   1.177   2.251  0.2633 -0.1194 -0.1240
77264W        W78128  14.157   5.326   0.679 -0.0661  0.3295 -0.1870
77265W        W78129  11.116  28.078   1.405  0.2688  0.2135 -0.1250
77266W        W78130  10.701   1.172   3.653  0.0799 -0.1623 -0.2816
77267W        W78131  11.840   2.205   2.626  0.2362  0.0881 -0.2234
77268W        W78132  15.131   2.584   2.299 -0.1630  0.0407 -0.0990
77269W        W78133  11.956   4.447   1.980 -0.2213  0.3835  0.2696
77270W        W78134  13.269   3.871   1.936  0.1294  0.1399  0.0660
77271W        W78135  11.915   0.550   1.454 -0.0569  0.0526 -0.2777
77272W        W78136  14.880   3.404   0.985 -0.2209  0.1834  0.0718
77273W        W78137  14.991   2.228   4.654  0.0450  0.2085  0.0515
77274W        W78138  11.838   2.157   2.038  0.0271  0.1847 -0.0846
77275W        W78139  10.262   6.028   2.090 -0.2345 -0.3465  0.1270
77276W        W78140  12.995   1.709   1.198 -0.1107 -0.2823  0.0796
77277W        W78141  11.072   0.892   3.444 -0.2396  0.2138  0.2352
77278W        W78142  12.948   4.237   1.262 -0.1937  0.1803  0.1725
77279W        W78143  11.890   2.221  27.956  0.0868 -0.1062 -0.0781
77280W        W78144  12.487   3.374   2.079  0.1975  0.1131  0.1925
77281W        W78145  10.557   1.112   1.555 -0.0364  0.0327 -0.1221
77282W        W78146  11.553   2.576   1.425  0.0049  0.0860  0.0287
77283W        W78147  12.117   1.815   0.721 -0.1191 -0.2656  0.0525
77284W        W78148  12.745   1.450   1.913  0.0492  0.3572 -0.0357
77285W        W78149   9.301  29.064   3.359 -0.0571 -0.0008 -0.0581
77286W        W78150  11.802   1.008   1.361  0.1984  0.3551 -0.0166
77287W        W78151  13.934   0.644   3.941  0.1055 -0.1041  0.1426
77288W        W78152  13.823   3.420   3.106 -0.1030 -0.0836 -0.0675
77289W        W78153  15.520   1.447   4.912  0.3201  0.0154  0.2738
77290W        W78154  12.499   4.447   2.803 -0.1964 -0.1714  0.0984
77291W        W78155  12.495   1.516   0.469  0.0767 -0.0612 -0.1282
77292W        W78156  13.376   3.422   3.514 -0.0487  0.1235 -0.0791
77293W        W78157  12.723   1.924   0.638 -0.1914 -0.2471  0.2648
77294W        W78158  14.460  29.100   4.223  0.0172 -0.2919 -0.2004
77295W        W78159  12.330   4.085   3.901  0.1053 -0.1868  0.1935
77296W        W78160  10.771   0.210   5.184 -0.4543  0.1343 -0.3180
77297W        W78161   8.687  25.381   3.042 -0.0367  0.1859  0.2136
77298W        W78162  11.500   4.420  28.381  0.0254  0.2481 -0.4885
77299W        W78163  12.524   1.108   0.909  0.1595 -0.3713  0.1671
77300W        W78164   9.991   4.530   2.428 -0.3441 -0.1455 -0.2123
77301W        W78165   9.466  27.916  27.880 -0.2421  0.0472  0.0333
77302W        W78166  10.351  27.784   1.447 -0.2858  0.2191  0.2263
77303W        W78167  11.956   4.009   1.794  0.2187  0.0713  0.3423
77304W        W78168  11.375   0.547  28.567 -0.0407 -0.0352 -0.1933
77305W        W78169  15.690  29.082   3.656  0.3351 -0.0021  0.2112
77306W        W78170  10.862   2.949   1.141 -0.0890  0.1300 -0.1210
77307W        W78171  13.272   1.358   1.625 -0.1076 -0.0415  0.1255
77308W        W78172  15.400   4.058  28.865 -0.2646 -0.1279 -0.2868
77309W        W78173  10.597   2.793   0.426 -0.0092 -0.3299  0.1057
77310W        W78174  14.236   0.267   0.876 -0.0124 -0.3197 -0.1426
77311W        W78175  11.398   3.727   1.619 -0.1434 -0.3522  0.2283
77312W        W78176  12.912   0.666   1.160 -0.2255 -0.0727 -0.1704
77313W        W78177  10.814  28.357   3.923  0.1336  0.3206  0.0045
77314W        W78178  10.864   1.425   0.255 -0.0811 -0.1055 -0.1466
77315W        W78179   9.806   1.859   2.889 -0.0599  0.1898 -0.3579
77316W        W78180  13.622   0.352   4.574 -0.1292 -0.1002 -0.0396
77317W        W78181  11.022   3.025   3.794 -0.0416 -0.3132 -0.0786
77318W        W78182  13.422   2.117   1.732  0.3445  0.2133 -0.1046
77319W        W78183  11.588   4.840   1.173 -0.3722 -0.0362  0.0130
77320W        W78184  12.921   2.229   1.223 -0.0309 -0.0120 -0.0349
77321W        W78185  12.172   2.978   2.067  0.3528  0.1796 -0.1278
77322W        W78186  14.062   2.492   6.025 -0.1067 -0.0607 -0.2793
77323W        W78187  13.979  28.057   1.234  0.2230  0.0527  0.0111
77324W        W78188  13.889   1.368   0.612  0.1629 -0.0734 -0.0843
77325W        W78189  10.182   3.138  26.225 -0.1556 -0.1134 -0.2806
77326W        W78190  14.810   2.697   3.763 -0.2829 -0.2172 -0.0382
77327W        W78191  11.916   3.815  28.763 -0.2291 -0.0225  0.4339
77328W        W78192  13.341   1.416   0.555 -0.3120  0.1695 -0.1138
77329W        W78193  12.495   3.075   1.185 -0.2044 -0.1320  0.2873
77330W        W78194   7.544   2.115   4.147  0.3208  0.1191  0.0871
77331W        W78195  12.089   2.138   3.569 -0.3331 -0.1592  0.1471
77332W        W78196  14.391   3.291   2.475  0.2756  0.1133  0.1539
77333W        W78197  12.580   0.316   3.507  0.1313 -0.0708 -0.0695
77334W        W78198   8.668   1.547   3.958 -0.0261 -0.0351 -0.0464
77335W        W78199  10.817   1.276   3.201  0.2278 -0.0007  0.0280
77336W        W78200   7.805   1.690   2.286  0.3804  0.2410 -0.1590
77337W        W78201  14.025   1.628   2.263  0.3178 -0.0306 -0.0146
77338W        W78202  14.748   3.572   2.742 -0.0891  0.1322 -0.0666
77339W        W78203  15.743   2.396   1.530  0.0825 -0.1219  0.3302
77340W        W78204  12.965   4.716   4.581  0.0474 -0.0371  0.0071
77341W        W78205  14.747   1.865   3.465 -0.0420 -0.1899 -0.0950
77342W        W78206  11.733   4.029   3.517 -0.0136  0.0151 -0.0399
77343W        W78207  11.859   3.394   1.927  0.2081  0.1881  0.1465
77344W        W78208  14.721   3.136   0.495  0.4375 -0.1296 -0.1522
77345W        W78209  12.664   2.640   5.445  0.2209 -0.1521  0.2215
77346W        W78210  12.510   1.622   0.971 -0.0825  0.0798  0.0975
77347W        W78211  14.078   1.795   0.430 -0.3578  0.1694  0.1251
77348W        W78212  12.007   3.349   0.240  0.1936  0.2091 -0.0410
77349W        W78213  12.335   4.611   4.122  0.1210 -0.3841  0.2014
77350W        W78214  11.410  27.731   2.293 -0.0371  0.1841  0.1087
77351W        W78215  14.183   1.699   1.656  0.1303  0.1555  0.1941
77352W        W78216  15.321   1.425   3.070 -0.0782  0.1774 -0.0339
77353W        W78217  13.700   3.092  29.040  0.1352  0.0511  0.1850
77354W        W78218  12.565   1.447  26.315  0.3359 -0.0737  0.0404
77355W        W78219   9.249   2.890   5.063 -0.2732  0.4388 -0.1070
77356W        W78220  10.016   2.268   6.590  0.0781  0.0650 -0.1636
77357W        W78221  15.171   3.121   4.345 -0.0669  0.0713  0.1697
77358W        W78222  13.574   6.074   6.219 -0.0487 -0.0493  0.0986
77359W        W78223  11.378   4.072   3.133  0.0953 -0.3582  0.3924
77360W        W78224  12.168   1.381   2.278 -0.1388 -0.2781 -0.0423
77361W        W78225  11.560   2.642   5.930  0.1152 -0.2552  0.0023
77362W        W78226  13.013   2.586   5.084  0.0510  0.0529  0.3443
77363W        W78227  11.129   4.682   8.331 -0.0406 -0.0907  0.2084
77364W        W78228  12.199   1.065   7.068 -0.2815  0.1414 -0.2403
77365W        W78229  13.460   2.272   8.747  0.1291  0.1946  0.2957
77366W        W78230  14.503   1.090   5.134  0.1187  0.2516  0.1322
77367W        W78231  11.402   0.674   3.966 -0.0440  0.0325 -0.0618
77368W        W78232  12.983   1.273   8.361 -0.0079  0.1711 -0.2290
77369W        W78233  10.372   1.681   5.912  0.2559  0.2430 -0.4308
77370W        W78234  12.335   5.667   6.830  0.1704  0.0884  0.0125
77371W        W78235  10.812   3.174   3.320 -0.0015  0.1997 -0.0817
77372W        W78236  10.903   2.083   6.135 -0.1892  0.0975  0.1009
77373W        W78237  12.890   1.046   6.016  0.3874 -0.1565  0.2148
77374W        W78238  14.357   1.812   5.342 -0.0626 -0.0853 -0.0187
77375W        W78239  12.856   3.031   5.655 -0.1381  0.0065 -0.2702
77376W        W78240  13.435   1.835   5.621 -0.1656  0.0974 -0.0833
77377W        W78241  11.588   4.368   6.623  0.2354 -0.1414  0.0608
77378W        W78242  10.809  28.626   6.672  0.2980 -0.0781 -0.1066
77379W        W78243   8.555   0.162   3.769 -0.0173  0.0504 -0.0672
77380W        W78244  10.185   1.782   6.665 -0.0551 -0.0536 -0.2456
77381W        W78245  15.950   3.320   4.184  0.3148 -0.1963 -0.0410
77382W        W78246  12.390   2.844   4.756  0.2421 -0.1122 -0.0393
77383W        W78247  14.017   0.240   4.951 -0.0432  0.1588 -0.0351
77384W        W78248  10.539   0.951   4.798  0.2989 -0.1577  0.4707
77385W        W78249  14.081   0.518   4.443  0.2046 -0.3611 -0.0576
77386W        W78250  14.926   2.445   6.409 -0.1832  0.0236 -0.1979
77387W        W78251  12.282   1.659   4.642  0.2577 -0.0315 -0.1903
77388W        W78252  13.044   2.496   7.488  0.1805 -0.1523  0.1214
77389W        W78253  12.306  29.147   7.239  0.0334 -0.1401 -0.2324
77390W        W78254  14.158   5.682   5.730 -0.5294  0.1702  0.3744
77391W        W78255  12.065   1.920   6.778 -0.1985 -0.0531 -0.1380
77392W        W78256  10.375   1.051   5.799 -0.1957  0.2185 -0.0025
77393W        W78257  15.372   3.548   7.373 -0.1913 -0.4759  0.4094
77394W        W78258  14.077   2.771   7.315 -0.1645 -0.1868 -0.1347
77395W        W78259  13.177   0.642   4.705 -0.0819 -0.2416 -0.0788
77396W        W78260  13.967   1.599   6.041  0.0559 -0.1397 -0.1709
77397W        W78261  12.659   4.052   6.041 -0.2546  0.0040  0.1070
77398W        W78262  16.225   1.777   3.697 -0.2575 -0.0603  0.2450
77399W        W78263  10.777   4.838   4.236  0.1489 -0.0353  0.0191
77400W        W78264  10.729   7.451   3.011 -0.0624 -0.0429  0.0527
77401W        W78265  11.153   1.787   5.613 -0.1383  0.0024 -0.0010
77402W        W78266  11.599   2.576   7.363 -0.0603 -0.0314  0.0674
77403W        W78267  12.926   0.625   3.729 -0.1344  0.0726 -0.0515
77404W        W78268  13.920   1.711   5.032 -0.2839 -0.0511  0.0800
77405W        W78269  11.886   4.132   7.948 -0.0358  0.0233 -0.0230
77406W        W78270  12.805  28.970   5.128  0.0281  0.1097  0.1141
77407W        W78271  16.204   3.282   6.112 -0.2229  0.1947 -0.0525
77408W        W78272  14.204   0.985   4.217 -0.1686 -0.2297  0.0146
77409W        W78273  13.460  29.103   3.691  0.0669 -0.1253 -0.0065
77410W        W78274   9.249   2.198   4.588 -0.1034 -0.3455 -0.1726
77411W        W78275  10.984   1.540   5.139 -0.0106 -0.0055  0.0293
77412W        W78276  11.636   0.775   3.137 -0.2730 -0.0802  0.1466
77413W        W78277  11.799   3.483   5.121  0.1440 -0.0874 -0.2945
77414W        W78278  13.879   4.916   3.941 -0.0110 -0.3720 -0.3587
77415W        W78279  11.924   3.283   3.493  0.0745 -0.0087  0.0086
77416W        W78280  12.121   4.425   1.512  0.2708 -0.2182  0.1023
77417W        W78281  11.634   1.300   4.971  0.2098  0.2750  0.1520
77418W        W78282  12.283   1.785   3.972 -0.2444  0.0775 -0.0025
77419W        W78283  13.104  28.647   6.055  0.0123 -0.3073  0.0126
77420W        W78284  13.593  28.534   6.347  0.0284  0.1889  0.0473
77421W        W78285  11.142   1.099   6.256  0.2181 -0.1459  0.1896
77422W        W78286  11.384   0.497   2.131 -0.0618  0.1228  0.2234
77423W        W78287   9.943   5.817   3.005  0.0229  0.0846  0.0878
77424W        W78288  10.441   1.882   3.919  0.0092 -0.2107 -0.2519
77425W        W78289  14.985   6.330   4.736 -0.1539 -0.4183  0.0965
77426W        W78290  13.594   2.782   3.764 -0.2845  0.1066  0.2189
77427W        W78291  15.389   2.748   5.397  0.1447 -0.0077 -0.0057
77428W        W78292  13.302   3.173   6.235 -0.0785 -0.2716 -0.0075
77429W        W78293  16.472   2.628   3.829 -0.0065  0.2301  0.0201
77430W        W78294  12.935   3.325   6.491  0.0604 -0.2770 -0.0176
77431W        W78295   9.063   3.921   2.261  0.0031 -0.2024  0.0277
77432W        W78296   7.989   2.502   4.774 -0.0707 -0.0686 -0.1854
77433W        W78297  12.805   0.817   5.075 -0.0862  0.1452  0.3827
77434W        W78298  16.133   2.697   4.867  0.0882  0.3598 -0.2187
77435W        W78299  12.315  28.215   5.706  0.0207  0.2253 -0.0272
77436W        W78300  12.637  28.560   7.953 -0.0536 -0.2775  0.0517
77437W        W78301  10.585   2.600   5.489 -0.3914  0.2898 -0.0034
77438W        W78302  10.708   0.283   4.564  0.0645 -0.3324 -0.1083
77439W        W78303  13.660   1.249   4.898  0.0030  0.1041  0.0233
77440W        W78304  12.654   1.596   4.241  0.3231 -0.3183  0.1793
77441W        W78305  16.120   4.705   4.579  0.1961  0.0377 -0.1963
77442W        W78306  13.086  28.390   8.081  0.1455 -0.0741  0.2113
77443W        W78307  15.529   3.954   6.346 -0.0025  0.2511  0.1129
77444W        W78308  12.798   0.324   5.345 -0.0060 -0.0627 -0.1780
77445W        W78309  14.469   0.632   4.786 -0.2758 -0.1661  0.0443
77446W        W78310  16.352   1.966   7.507 -0.0645 -0.0759 -0.2491
77447W        W78311  12.782   2.138   7.167  0.0901 -0.4102  0.0476
77448W        W78312  11.988   0.368   5.868 -0.1090  0.1117 -0.2532
77449W        W78313  11.927   2.732   7.959 -0.0648 -0.1838  0.2273
77450W        W78314  11.912   1.238   5.345  0.0113 -0.0705  0.0470
77451W        W78315  15.370  28.550   4.257 -0.2384 -0.3140  0.1592
77452W        W78316  11.962   4.068   6.402  0.0573  0.2826 -0.0112
77453W        W78317  12.088   1.191   6.620 -0.3156 -0.0951  0.1677
77454W        W78318  14.177  29.070   7.068  0.3935  0.1543 -0.0402
77455W        W78319  14.745   3.502   2.146 -0.0759 -0.2785 -0.2932
77456W        W78320   9.629   0.809   7.376 -0.1259 -0.2915  0.0823
77457W        W78321  14.906  28.896   4.327  0.0866  0.0344  0.1040
77458W        W78322  13.433   1.355   5.410  0.0923 -0.0598  0.2288
77459W        W78323  12.777   0.942   6.497  0.0830  0.2713 -0.2087
77460W        W78324  12.094   1.523   7.516  0.0304  0.1904 -0.0460
77461W        W78325  12.238   3.691   5.367 -0.1039 -0.2785 -0.2836
77462W        W78326  12.021   2.484   6.060 -0.3327  0.0691  0.4840
77463W        W78327  13.687   0.080   5.756 -0.3789 -0.1981 -0.0027
77464W        W78328  10.557   0.401   4.007 -0.1965 -0.0313 -0.1341
77465W        W78329  10.162  28.296   4.687  0.1274  0.2206  0.1208
77466W        W78330  14.565   2.323   3.560 -0.2991  0.2805  0.1098
77467W        W78331  14.901   1.170   4.848  0.2270 -0.0951 -0.0184
77468W        W78332   9.525   2.420   4.946 -0.1868 -0.1372 -0.1077
77469W        W78333  14.125   1.572   1.147  0.0956  0.1965  0.2245
77470W        W78334  12.345   2.837   7.017 -0.0135 -0.0164  0.2240
77471W        W78335  12.039  28.914   6.893  0.0526 -0.0100  0.4194
77472W        W78336  10.420   0.395   5.905 -0.2864  0.0454  0.0140
77473W        W78337  13.234   2.265   4.057 -0.1415 -0.0856  0.0227
77474W        W78338  14.361   1.584   3.614  0.2025 -0.0574 -0.3459
77475W        W78339  14.938   2.559   2.792  0.1105  0.1325  0.0418
77476W        W78340  15.651   3.594   5.453  0.3890 -0.0276 -0.0980
77477W        W78341  14.366   3.175   5.025  0.1639 -0.2325  0.2128
77478W        W78342  12.334   4.979   3.800 -0.4339 -0.0155 -0.0599
77479W        W78343  12.788   2.012   4.018  0.0487  0.0920 -0.0893
77480W        W78344  15.161   2.767   4.677  0.0613  0.0001 -0.0314
77481W        W78345  10.113   2.098   4.279 -0.0893  0.0547  0.0309
77482W        W78346  13.592   1.718   4.594 -0.2668 -0.1386 -0.2026
77483W        W78347  13.403   5.140   5.820 -0.0382  0.0566 -0.1859
77484W        W78348  10.811   4.419   4.959 -0.1301 -0.0451 -0.0053
77485W        W78349  12.946   0.612   6.875 -0.0658 -0.0274 -0.1882
77486W        W78350  13.430   1.008   7.939 -0.0986 -0.2813  0.1912
77487W        W78351  12.836   1.602   3.743  0.2005  0.1741 -0.0206
77488W        W78352  12.075   0.884   5.741  0.0011 -0.0737  0.0740
77489W        W78353  15.215   3.901   5.435 -0.3512 -0.1152  0.0168
77490W        W78354  10.304  28.776   4.492  0.1257  0.1025 -0.3034
77491W        W78355  13.784   1.240   7.318  0.1132  0.0099 -0.2551
77492W        W78356  15.694   1.238   5.301 -0.0986 -0.0013  0.3567
77493W        W78357  13.303   2.492   7.006  0.0746  0.3114  0.1397
77494W        W78358  12.539   3.314   4.612 -0.2154 -0.3849  0.0332
77495W        W78359  11.035   0.253   4.133 -0.0945  0.1117 -0.0332
77496W        W78360  12.822   0.731   5.585 -0.1854  0.4697 -0.1169
77497W        W78361  11.876   4.356   4.105  0.0216 -0.1411 -0.3502
77498W        W78362   9.504   0.747   5.535  0.1869 -0.1614 -0.2385
77499W        W78363  11.374   3.210   6.773 -0.0987 -0.2081  0.1417
77500W        W78364  14.634  26.736   4.070 -0.2959 -0.2782  0.1043
77501W        W78365  14.964  29.116   5.983  0.0236 -0.0448 -0.1911
77502W        W78366  14.867   1.552   5.670 -0.1107 -0.1053  0.1264
77503W        W78367  13.140   2.808   6.010 -0.2030  0.2044  0.2606
77504W        W78368  11.414   1.345   4.356  0.1380  0.2931  0.0971
77505W        W78369  12.929   2.314   6.766  0.0039 -0.1072 -0.1756
77506W        W78370  12.336   0.534   3.936 -0.1040  0.4529 -0.1288
77507W        W78371  13.506   4.153   4.020 -0.1314 -0.2688 -0.1300
77508W        W78372  11.647   2.062   1.465 -0.3098  0.0325  0.1535
77509W        W78373  13.861   1.618   5.569  0.0640  0.0649  0.2828
77510W        W78374  12.842  27.366   4.700 -0.0233  0.3191 -0.1864
77511W        W78375  10.581   2.201   4.898 -0.0438  0.0958  0.1456
77512W        W78376  15.578   0.294   2.700  0.1360  0.3054 -0.2869
77513W        W78377  11.726   1.184   2.892 -0.1474  0.1392  0.2532
77514W        W78378  12.698   2.989   4.142  0.0688 -0.5793  0.0042
77515W        W78379  12.586   2.425   4.960  0.2573 -0.0770 -0.2195
77516W        W78380  10.124   4.241   7.025  0.3294 -0.0845  0.0618
77517W        W78381  13.834   2.079   5.851 -0.0247 -0.2537  0.1621
77518W        W78382  16.375   4.730   5.006  0.0764  0.0595  0.0283
77519W        W78383  13.130  28.302   4.209  0.0588 -0.0332  0.1225
77520W        W78384  12.416  28.228   4.654 -0.2170 -0.2072  0.0048
77521W        W78385  11.053   3.757   6.223  0.2484  0.1245  0.0727
77522W        W78386  10.264   4.385   5.894 -0.0433 -0.1056  0.1060
77523W        W78387  11.662   4.252   8.388  0.2438 -0.0121 -0.1995
77524W        W78388   9.311   1.153   4.689 -0.3579 -0.0837 -0.0571
77525W        W78389  11.956   0.765   5.184 -0.2232  0.0018  0.1535
77526W        W78390  13.416   2.314   5.865  0.1404 -0.1344 -0.0736
77527W        W78391   9.371   0.412   7.810  0.1281 -0.0600 -0.1847
77528W        W78392  14.125   2.579   4.077  0.1306  0.2734  0.0993
77529W        W78393  12.252   2.142   6.340 -0.0691 -0.2082 -0.1117
77530W        W78394  14.126   1.935   6.367 -0.0956 -0.0654  0.0917
77531W        W78395  11.228   3.693   6.867  0.1601  0.2385 -0.1607
77532W        W78396  11.163   1.633   6.130  0.0305  0.1392  0.2305
77533W        W78397   9.678   3.180   5.733 -0.0224  0.0897  0.2524
77534W        W78398  12.823  29.061   6.215 -0.0425  0.0101 -0.0020
77535W        W78399  10.823   3.446   2.426 -0.1613 -0.1848  0.2995
77536W        W78400  14.165   4.413   4.551 -0.0091 -0.0936  0.0066
77537W        W78401  14.992  28.882   2.045 -0.0487  0.2214  0.0060
77538W        W78402  12.719  28.998   4.624 -0.1569  0.2767  0.0619
77539W        W78403  11.583   1.133   5.907 -0.0203 -0.1236 -0.2781
77540W        W78404  13.771   3.193   7.023  0.0039 -0.2571  0.1915
77541W        W78405  11.134   0.200   4.847 -0.0198  0.1866  0.0879
77542W        W78406  10.010   1.137   4.177 -0.1448 -0.0285  0.0109
77543W        W78407  13.693   2.216   6.364 -0.0889 -0.1998  0.5179
77544W        W78408  11.159  29.082   2.771  0.0819 -0.2343  0.2087
77545W        W78409  12.180   2.949   3.216  0.1689  0.4263  0.0648
77546W        W78410  12.122   2.629   6.567 -0.0420 -0.0231 -0.1361
77547W        W78411  11.182   2.257   5.726  0.1707  0.0377  0.3703
77548W        W78412  11.247   1.920   6.573 -0.0392 -0.0616 -0.3145
77549W        W78413  13.851   2.126   5.366 -0.1133  0.0316 -0.3242
77550W        W78414  12.017   1.499   7.047  0.0745 -0.0796  0.2151
77551W        W78415  10.363  29.125   4.878 -0.6074 -0.0362 -0.0713
77552W        W78416  11.068  27.671   4.390 -0.3693 -0.1482  0.0884
77553W        W78417   8.089  28.803   3.742 -0.3291  0.0017 -0.0957
77554W        W78418  17.047   0.823   7.481 -0.0885  0.0359  0.0845
77555W        W78419   9.641  28.266   5.421 -0.2369  0.1640 -0.2230
77556W        W78420  13.991  26.778   6.921 -0.0054  0.4469  0.2501
77557W        W78421  15.113   0.078   4.647 -0.1253  0.1154  0.2911
77558W        W78422  11.834  28.608   6.321  0.1023 -0.1921 -0.0038
77559W        W78423  13.700   0.808   7.550  0.2280 -0.2500  0.1839
77560W        W78424  12.141  27.881   6.869  0.1868 -0.0183  0.2079
77561W        W78425  12.046   2.041   5.864  0.1480 -0.0159 -0.0948
77562W        W78426  13.221   1.258   6.390  0.2574  0.2214 -0.0411
77563W        W78427  13.136   2.968   3.722 -0.1255 -0.3243  0.0852
77564W        W78428   9.537  28.919   5.174  0.2227  0.1242  0.1583
77565W        W78429  12.220   2.441   8.505  0.3871  0.1230  0.0639
77566W        W78430  10.439   3.598   5.878 -0.1402  0.0993 -0.0184
77567W        W78431  12.558   2.572   6.271 -0.0451 -0.1564 -0.1098
77568W        W78432  14.530  28.591   5.950 -0.1136 -0.1110  0.1203
77569W        W78433  14.676   2.959   7.135  0.1366 -0.5754  0.1120
77570W        W78434  13.747  28.866   5.290 -0.0795 -0.2984  0.1041
77571W        W78435  12.511   5.589   1.699 -0.1949 -0.0411  0.1027
77572W        W78436  11.436   3.286   4.768 -0.4124  0.1157 -0.0670
77573W        W78437   9.752   2.273   5.462  0.0860 -0.2440 -0.0861
77574W        W78438  11.342   2.980   6.322  0.0260 -0.4046  0.0241
77575W        W78439  12.751   2.268   8.714 -0.0927 -0.0118  0.0203
77576W        W78440  12.544   0.653   7.899  0.0908  0.2225  0.1364
77577W        W78441  12.122   5.080   8.088  0.0427 -0.0782 -0.0229
77578W        W78442  12.033   2.033   4.386  0.0051  0.1231 -0.1700
77579W        W78443  15.499   3.326   4.003 -0.0640  0.1248  0.1878
77580W        W78444  11.245  28.502   7.722  0.1455  0.0077  0.0982
77581W        W78445  10.992   4.789   6.198  0.0818  0.4623  0.1518
77582W        W78446  15.933   1.452   6.982  0.2370 -0.1239  0.3462
77583W        W78447  13.836   3.637   2.593 -0.1987  0.2583  0.3038
77584W        W78448  14.913   1.950   6.324  0.0873 -0.1702 -0.0525
77585W        W78449  13.470  28.417   5.122 -0.0496  0.0917 -0.1714
77586W        W78450  10.914   0.562   5.912  0.2816 -0.1949  0.0668
77587W        W78451  11.694   1.670   4.660 -0.1235 -0.0661 -0.0975
77588W        W78452  13.141   1.953   2.227 -0.2233 -0.1097 -0.0240
77589W        W78453   8.768   1.226   6.807 -0.0372 -0.0206 -0.0169
77590W        W78454  12.172   1.256   4.919  0.0588 -0.3208 -0.2140
77591W        W78455  13.817   2.583   5.596  0.0700  0.0671 -0.3502
77592W        W78456  11.190   1.142   3.949 -0.1736  0.1873 -0.1270
77593W        W78457  15.110   4.082   4.926 -0.2830 -0.0468 -0.0813
77594W        W78458  11.435   1.939   4.361 -0.0954 -0.0970 -0.3046
77595W        W78459  13.948   2.923   5.104  0.1556  0.1056  0.0690
77596W        W78460  12.508   2.332   5.832 -0.2701  0.2767 -0.1789
77597W        W78461  10.033   0.887   4.807 -0.0813  0.2338 -0.1036
77598W        W78462  12.387  26.974   3.324  0.0235  0.1353  0.1308
77599W        W78463  14.775   2.032   5.471  0.0490  0.2614  0.1516
77600W        W78464  12.224   2.238   5.319  0.0631  0.5121  0.2170
77601W        W78465  13.822   0.731   2.622  0.1229 -0.1302 -0.0102
77602W        W78466  10.251   3.137   7.729 -0.0441  0.0900 -0.1677
77603W        W78467  14.659   3.539   6.522 -0.0439  0.1285  0.1225
77604W        W78468  12.098   1.514   5.850  0.1311 -0.2943  0.0160
77605W        W78469   8.962   2.276   2.894 -0.1519 -0.0109 -0.1562
77606W        W78470  13.155   2.041   4.482 -0.1294  0.0669 -0.0893
77607W        W78471  13.415   3.325   6.717 -0.2766  0.1145  0.0687
77608W        W78472  12.983   1.197   5.493  0.0808  0.3663  0.3793
77609W        W78473   9.496   0.378   4.090  0.3246 -0.2572 -0.0130
77610W        W78474  14.641   2.318   4.274 -0.0726 -0.2810 -0.1222
77611W        W78475  12.595  28.923   3.655 -0.0751  0.0042 -0.2298
77612W        W78476  10.387  28.979   5.758  0.2835  0.0544  0.0593
77613W        W78477  13.099   4.174   3.742  0.1242  0.3482 -0.0814
77614W        W78478  12.422   0.431   4.455  0.2274 -0.0197  0.1552
77615W        W78479  13.343   1.802   6.125  0.2145  0.0830 -0.2197
77616W        W78480  13.219   3.057   7.045 -0.1448  0.1323  0.0902
77617W        W78481  13.433   3.761   6.472  0.1261 -0.1797 -0.1411
77618W        W78482  11.478   2.211   6.935  0.1592  0.0327 -0.0582
77619W        W78483  11.926   3.607   6.099  0.0926 -0.0844  0.2286
77620W        W78484  12.834   5.299   6.832  0.1809 -0.1352  0.2925
77621W        W78485  11.254   1.018   2.941  0.0159  0.1889  0.0848
77622W        W78486  15.226   3.767   4.108  0.1831  0.3569 -0.3746
77623W        W78487   8.705  29.028   6.587  0.1456  0.0844 -0.2285
77624W        W78488  14.695   1.856   1.858 -0.1303  0.1374  0.1465
77625W        W78489  10.318   1.403   5.488 -0.0319 -0.1474 -0.0536
77626W        W78490  13.365   1.981   6.693  0.2830  0.1347 -0.1484
77627W        W78491  11.840   1.832   7.888 -0.2907  0.1390  0.0019
77628W        W78492   9.996   1.865   6.206 -0.0041 -0.5624 -0.1756
77629W        W78493  13.883   3.920   6.426 -0.3023 -0.3568  0.1092
77630W        W78494  14.097   3.527   6.768 -0.1549  0.2268  0.1767
77631W        W78495  12.361   1.936   8.471 -0.0225  0.1060  0.1893
77632W        W78496  12.666   1.181   4.540  0.0045 -0.0022  0.2601
77633W        W78497  10.062   3.613   2.034 -0.1420  0.0043 -0.0726
77634W        W78498  11.099   4.525   3.222  0.1987 -0.0896  0.1441
77635W        W78499  12.562   1.825   6.763 -0.1141  0.2218  0.0020
77636W        W78500  10.590  28.090   4.925 -0.0203 -0.1483  0.0735
77637W        W78501   9.430  26.734   4.515 -0.0377 -0.0100 -0.2236
77638W        W78502   9.574   1.547   6.229  0.2066 -0.3545  0.0747
77639W        W78503  13.732   0.597   5.859 -0.2873  0.1041 -0.0393
77640W        W78504  13.789   3.401   6.402  0.2336 -0.1321 -0.0256
77641W        W78505  14.911   3.260   3.936  0.2186  0.0685 -0.0896
77642W        W78506  11.105   2.172   4.733  0.1958 -0.2188  0.0759
77643W        W78507  14.288  27.361   5.213 -0.2387 -0.4105 -0.0688
77644W        W78508  13.731   1.769   2.967 -0.1440  0.0015  0.0070
77645W        W78509  11.264   2.813   2.549  0.2369 -0.0764  0.0793
77646W        W78510  13.567   2.171   4.845 -0.0069 -0.2692  0.2494
77647W        W78511  11.888   1.167   4.524  0.1502  0.0415  0.0162
77648W        W78512   9.346   1.690   4.634 -0.1977  0.0808  0.2082
77649W        W78513  13.394   1.685   5.071 -0.1018  0.1366 -0.0824
77650W        W78514  11.470   0.910   4.627 -0.0319  0.0412  0.1313
77651W        W78515  13.064   0.003   7.457 -0.0490 -0.1029  0.3675
77652W        W78516  15.035   2.161   7.362  0.2476 -0.0188 -0.1870
77653W        W78517  11.651   0.715   6.718  0.6519 -0.3863 -0.1516
77654W        W78518  11.457   3.612   5.946 -0.0113 -0.0137 -0.1537
77655W        W78519  12.104   2.843   3.837 -0.1131  0.2283  0.0753
77656W        W78520  10.973  28.143   7.942  0.1290  0.0588  0.0035
77657W        W78521  12.256  27.225   6.663 -0.3037 -0.1699 -0.1767
77658W        W78522  12.777   0.323   5.898  0.2101  0.4172  0.1421
77659W        W78523  15.971   2.501   4.064  0.2105  0.1250 -0.0492
77660W        W78524  12.616   2.017   4.596  0.3114  0.2831  0.2909
77661W        W78525  13.255   2.566   4.619  0.6051 -0.1967 -0.1558
77662W        W78526  10.603  28.284   2.550 -0.2432  0.0081 -0.1714
77663W        W78527  14.552   0.097   4.718 -0.2517 -0.0012 -0.0123
77664W        W78528  11.363   2.236   5.218  0.1517  0.0243  0.1569
77665W        W78529  12.598   1.356   5.062 -0.0926 -0.3809  0.0637
77666W        W78530  12.068   2.256   7.569  0.1301 -0.0637 -0.1347
77667W        W78531  11.465   0.527   5.043 -0.2081  0.2468 -0.2077
77668W        W78532  11.467   2.733   5.396  0.3269 -0.0797 -0.1202
77669W        W78533  12.296   0.436   4.942 -0.3194 -0.1445 -0.0227
77670W        W78534  12.773   4.818   7.954 -0.0016 -0.0056 -0.0415
77671W        W78535   9.979   0.471   4.070 -0.0095 -0.1273  0.2069
77672W        W78536  10.934   1.157   4.601 -0.4245 -0.2461  0.3183
77673W        W78537  14.015   3.983   7.055  0.2112 -0.0576  0.1952
77674W        W78538   8.406  29.052   5.002 -0.1932 -0.0936  0.2163
77675W        W78539  11.413   3.134   5.810  0.0726 -0.0984 -0.3023
77676W        W78540  15.462   2.045   3.364  0.3518  0.2910  0.0296
77677W        W78541  13.589   2.662   6.185 -0.2264 -0.0101  0.0640
77678W        W78542  13.018   2.124   4.930 -0.1534  0.1216 -0.1761
77679W        W78543  12.464   1.838   5.514 -0.1791 -0.3279  0.1971
77680W        W78544  12.737   5.410   5.408 -0.3944 -0.1741 -0.2150
77681W        W78545  11.148   1.644   4.701 -0.0595 -0.2665 -0.2080
77682W        W78546   8.633  28.415   3.313  0.1191  0.3353 -0.0978
77683W        W78547  12.967   1.686   5.334  0.0997  0.3005 -0.0569
77684W        W78548  11.433   2.261   3.930 -0.3611  0.0827 -0.0086
77685W        W78549  14.465   0.393   8.222  0.0449 -0.1271  0.2215
77686W        W78550  15.799   1.643   4.016 -0.1212 -0.0541 -0.1942
77687W        W78551  13.640   3.521   5.197  0.0896 -0.2059 -0.1122
77688W        W78552  13.802   1.512   8.333  0.2858 -0.2911 -0.2952
77689W        W78553  15.730   1.586   5.724 -0.2842 -0.1428  0.1231
77690W        W78554  12.849   2.806   6.601  0.1317 -0.1805 -0.2123
77691W        W78555  11.745   6.760   3.576 -0.3688  0.0161 -0.0259
77692W        W78556  12.153   2.207   4.822  0.3062  0.0928 -0.0619
77693W        W78557  15.128   1.024   3.311  0.4474  0.1497 -0.4272
77694W        W78558  12.908  25.817   3.562 -0.1515  0.0493  0.2195
77695W        W78559  12.174   2.845   2.668  0.3361 -0.1108 -0.2419
77696W        W78560  13.848   1.275   8.775  0.4429 -0.1072 -0.0751
77697W        W78561  14.491  27.645   3.622 -0.0348 -0.0480 -0.1340
77698W        W78562  11.243   2.402   6.369 -0.2305  0.3721 -0.0696
77699W        W78563  11.599   1.561   3.200  0.0396 -0.1432  0.1654
77700W        W78564  10.683   0.603   5.468 -0.2984 -0.0280  0.0774
77701W        W78565  11.896   1.635   2.672 -0.1192 -0.0892  0.1364
77702W        W78566  11.635   1.186   7.084 -0.1999 -0.0536  0.0034
77703W        W78567  15.457   2.224   7.123  0.2051 -0.2361  0.0584
77704W        W78568  10.074  27.609   4.237 -0.1047  0.0894  0.2099
77705W        W78569  13.678   0.380   5.333  0.0795 -0.1631 -0.1842
77706W        W78570  13.154   1.193   5.010  0.0941  0.1899 -0.0262
77707W        W78571  13.335   2.184   5.289  0.3110 -0.0437 -0.0951
77708W        W78572  11.007   0.693   4.420  0.4286  0.0567  0.1462
77709W        W78573  11.033   2.299   3.224 -0.1504 -0.1866 -0.0105
77710W        W78574  13.613  27.458   5.197 -0.0751  0.1716  0.0553
77711W        W78575  12.309   6.438   4.389  0.2991 -0.1973  0.3861
77712W        W78576  14.584   0.354   5.873  0.0742 -0.1544 -0.0656
77713W        W78577  11.677   0.943   7.599  0.2163 -0.0855 -0.0384
77714W        W78578  10.847   0.908   6.650  0.2109  0.2808  0.1346
77715W        W78579  11.919  27.097   6.100 -0.0754  0.2044 -0.0193
77716W        W78580  11.081  28.372   8.370 -0.1514  0.1150  0.1214
77717W        W78581  14.055   1.271   6.390  0.2444 -0.0850  0.3590
77718W        W78582  14.048   2.461   9.453 -0.1658 -0.1673  0.1877
77719W        W78583   9.575   1.961   4.217  0.0230  0.1465 -0.0039
77720W        W78584  12.703   3.079   6.164 -0.1171 -0.2270  0.3994
77721W        W78585   9.704   0.821   4.355 -0.1810 -0.0729 -0.1356
77722W        W78586  11.246   2.624   3.579 -0.0727  0.1787 -0.0040
77723W        W78587  11.182  29.023   4.460  0.3205 -0.0481 -0.3881
77724W        W78588  16.488  27.515   1.073  0.2934 -0.2013  0.1813
77725W        W78589  12.854   3.871   4.076 -0.2235  0.1103 -0.0993
77726W        W78590  14.464   1.245   4.611 -0.0849  0.0659  0.2772
77727W        W78591  15.013   3.914   2.622  0.1643  0.0220  0.2127
77728W        W78592  15.158   3.509   5.885  0.2843 -0.1016  0.0486
77729W        W78593  16.793   2.929   5.334 -0.0483 -0.0166  0.1286
77730W        W78594  12.598   3.567   8.260 -0.2687 -0.1441  0.1966
77731W        W78595  13.536   1.634   6.951  0.2678 -0.0976 -0.2111
77732W        W78596  13.673   3.479   5.861 -0.0030 -0.0655 -0.0682
77733W        W78597  14.004   1.436   4.574  0.1653  0.0424 -0.0218
77734W        W78598  11.755   1.668   6.291 -0.0062  0.3639 -0.0400
77735W        W78599  12.022   0.047   4.285 -0.0906  0.4198 -0.3610
77736W        W78600  10.705   2.525   6.177 -0.1709  0.1635  0.0372
77737W        W78601  10.999   3.459   5.148  0.2379  0.1567 -0.1666
77738W        W78602  15.376   2.201   6.608  0.0534 -0.0315  0.0886
77739W        W78603  13.044   5.495   8.121  0.2986 -0.2252 -0.2697
77740W        W78604  11.378   2.671   4.797  0.3798  0.2725  0.1565
77741W        W78605  14.878   3.997   6.292  0.0794 -0.1209  0.1792
77742W        W78606  12.385   2.578   7.851  0.1491  0.0969  0.1698
77743W        W78607  12.597   3.023   2.879 -0.0918 -0.1098 -0.0116
77744W        W78608  13.371   2.547   7.981 -0.3050 -0.1198 -0.0129
77745W        W78609  13.646   2.772   4.258  0.2302  0.1149  0.2664
77746W        W78610  12.372   1.210   4.024 -0.0684 -0.1084 -0.2246
77747W        W78611  14.900   0.269   3.885  0.3756 -0.1793 -0.1204
77748W        W78612  13.982   3.032   4.013 -0.0337  0.0842 -0.0127
77749W        W78613   9.823   2.339   3.986 -0.3324 -0.0533  0.1717
77750W        W78614  12.729   1.492   6.345 -0.1226  0.0661  0.2063
77751W        W78615  12.565   3.821   3.037 -0.0000 -0.1046  0.1480
77752W        W78616  11.480   2.034   6.069 -0.0551  0.0518  0.0912
77753W        W78617  10.135  28.124   4.130 -0.1784 -0.0072  0.1023
77754W        W78618  12.639   0.825   4.185 -0.0988  0.3873  0.4527
77755W        W78619  11.679   3.191   9.826 -0.0895 -0.0332  0.1282
77756W        W78620   9.449   0.683  11.999  0.2702  0.0549 -0.0770
77757W        W78621  14.646   2.462   7.233 -0.0939 -0.0474 -0.1243
77758W        W78622  13.200   2.975   9.657  0.2439 -0.0281 -0.2368
77759W        W78623  12.466   3.248   8.669 -0.1515  0.1954  0.0848
77760W        W78624  11.975  29.048   6.097 -0.0394  0.0044  0.1174
77761W        W78625  12.280  27.324   9.438 -0.3108 -0.0906 -0.4614
77762W        W78626   9.906   1.826   8.106 -0.0767 -0.1662  0.1734
77763W        W78627  11.606   2.900   9.013 -0.0625 -0.2401 -0.0036
77764W        W78628   9.716   2.867   9.061  0.0001 -0.1180 -0.0778
77765W        W78629  12.553  26.064   8.962  0.2723 -0.0748  0.1166
77766W        W78630  12.225   0.380   8.979  0.0812  0.1581  0.1681
77767W        W78631  14.142   4.615   7.733  0.2650 -0.0488 -0.2860
77768W        W78632  13.073  28.038  11.730  0.0304 -0.0563  0.2071
77769W        W78633  10.483  27.976   9.372  0.1433 -0.0075 -0.2115
77770W        W78634  12.915   1.940   6.398  0.1893 -0.0465 -0.0535
77771W        W78635  10.656   1.825   6.567 -0.0536  0.2265  0.0804
77772W        W78636  13.102   0.369   9.045  0.0804 -0.0779 -0.2849
77773W        W78637  15.740   3.669  10.904 -0.0614  0.1168  0.1108
77774W        W78638  15.047   4.022   8.384  0.1375  0.0690 -0.0059
77775W        W78639  10.872   1.951   7.596  0.2250 -0.1112  0.0053
77776W        W78640  12.523   3.436   9.133 -0.4111  0.0935  0.1857
77777W        W78641  12.657   3.137   7.991 -0.0449  0.1730  0.4047
77778W        W78642  11.548  28.658   7.259  0.2513 -0.0335  0.2175
77779W        W78643  10.791   2.674   9.616  0.0257  0.1168  0.1732
77780W        W78644  14.361   2.864   7.947 -0.1514  0.2697  0.1573
77781W        W78645  12.160   0.596   8.459  0.1930  0.0368  0.2173
77782W        W78646  12.903   2.664   9.328 -0.1914  0.0394  0.6376
77783W        W78647  12.725  27.960   8.322  0.1703 -0.1381 -0.0350
77784W        W78648   9.535  28.534   9.684  0.0962  0.2035 -0.1467
77785W        W78649  10.984   2.660   8.279  0.2085  0.2429 -0.2325
77786W        W78650  13.183   1.437   9.756  0.2006 -0.0372  0.1066
77787W        W78651  11.657   1.396   9.924 -0.0328 -0.2508  0.1299
77788W        W78652   8.685   2.654   9.585  0.3126  0.1448 -0.2451
77789W        W78653  12.649   2.264  11.134  0.2839  0.0519  0.2308
77790W        W78654  11.511  28.969   9.955 -0.0352  0.2363  0.0090
77791W        W78655  10.445   1.392  10.661 -0.3926  0.0565  0.1203
77792W        W78656  13.976   4.550   8.689  0.0618  0.0436 -0.3267
77793W        W78657  12.881   2.166   9.270  0.0076 -0.2088  0.0829
77794W        W78658  12.723   0.424   6.446  0.1044 -0.2624 -0.0657
77795W        W78659  13.514   0.821  10.256  0.1618 -0.0337  0.0648
77796W        W78660  10.530   5.951   8.547 -0.1278  0.4109  0.0253
77797W        W78661  13.162   1.910   8.888  0.7014  0.2526 -0.0896
77798W        W78662  11.709   2.981   7.089 -0.1850  0.1748  0.1245
77799W        W78663  12.278   4.556   7.854 -0.0220 -0.0808 -0.1486
77800W        W78664  11.453   1.043   9.176 -0.3729 -0.1542  0.3694
77801W        W78665  13.589   1.704   8.996  0.1815  0.1177  0.0315
77802W        W78666  14.527   2.000   8.604 -0.1189 -0.0812 -0.0723
77803W        W78667  15.543   3.779   6.939  0.0854  0.3750  0.0114
77804W        W78668  12.257   3.048  13.429 -0.0304 -0.2128 -0.3238
77805W        W78669  12.479   1.979   9.499  0.1309 -0.2304 -0.0198
77806W        W78670  10.369   1.353   7.500  0.0922 -0.2779  0.2117
77807W        W78671  14.349   2.245   5.634 -0.2803 -0.3074 -0.1892
77808W        W78672  12.987   1.600   6.852  0.0899 -0.1260 -0.0049
77809W        W78673  11.252   4.446   9.290 -0.1086 -0.3587  0.0390
77810W        W78674  10.167   1.030   8.918 -0.1514  0.0269 -0.1217
77811W        W78675  10.695   0.901   7.523 -0.1863  0.1198  0.2341
77812W        W78676   9.953   1.562   8.616 -0.2524  0.3369  0.0302
77813W        W78677  10.967   3.429   7.427 -0.1741  0.0732 -0.1171
77814W        W78678  16.574   1.000   6.698 -0.0448 -0.0338 -0.1997
77815W        W78679   9.221   1.870   8.965 -0.0400  0.0901 -0.3316
77816W        W78680  12.155   2.498  12.764  0.1490  0.0268 -0.0188
77817W        W78681  11.291   2.131   7.349 -0.0623  0.0433  0.3229
77818W        W78682  13.689   0.821  11.079  0.2760 -0.1821 -0.1676
77819W        W78683  17.214  28.116   8.823 -0.2758  0.0553  0.2796
77820W        W78684  11.269   1.043   6.836  0.0227 -0.0196 -0.0103
77821W        W78685  11.511  29.085   6.658 -0.2533  0.0682  0.3625
77822W        W78686  13.059   4.334   8.516 -0.1961  0.1298  0.3461
77823W        W78687  12.186   1.448   8.064  0.4437  0.0743 -0.0275
77824W        W78688  16.203  28.260  11.972  0.2414  0.4271 -0.3388
77825W        W78689  12.197  29.027   7.759  0.4311  0.1646 -0.0358
77826W        W78690  15.660   2.223   8.768  0.3112 -0.0478  0.1164
77827W        W78691  13.038   2.606  10.927 -0.1125 -0.0172  0.1746
77828W        W78692  13.832   2.158   9.736 -0.0672  0.0174  0.0774
77829W        W78693  11.892   2.716  11.129 -0.0557 -0.0241  0.3205
77830W        W78694   9.645   2.161   8.618  0.0133 -0.1051  0.3327
77831W        W78695  12.462   2.737  10.208  0.3285 -0.1894 -0.1199
77832W        W78696  13.692   1.676   6.482 -0.1121 -0.0970  0.1708
77833W        W78697  11.301   0.468   7.411 -0.0508  0.0263 -0.2719
77834W        W78698  10.758   0.358  10.685 -0.1800  0.1393  0.3056
77835W        W78699  11.081   1.008   8.350  0.2880 -0.1144  0.1260
77836W        W78700  11.375  27.986   7.826 -0.0736 -0.0690  0.0672
77837W        W78701  12.202  28.451   6.736  0.2271 -0.2605 -0.0619
77838W        W78702  12.514   0.941  10.350 -0.0211  0.1355  0.1852
77839W        W78703  10.772   3.371   4.254 -0.1729 -0.0383  0.2117
77840W        W78704  15.229   6.176  11.398  0.0095  0.1868 -0.2499
77841W        W78705  10.615  28.928  10.546 -0.2030  0.2477  0.0432
77842W        W78706  14.693   1.477  10.667  0.0045 -0.0185 -0.1633
77843W        W78707  11.931  29.061   9.673  0.0641 -0.2479 -0.0096
77844W        W78708  10.659   0.349   6.319  0.0965  0.2923  0.0464
77845W        W78709  16.263   1.945  11.754  0.0041 -0.0557 -0.0114
77846W        W78710  13.412   4.671   8.521  0.1275 -0.4002 -0.0793
77847W        W78711  13.087   2.376   8.321  0.0377  0.2126 -0.1587
77848W        W78712  14.354   2.537  11.316  0.2617 -0.2214  0.1151
77849W        W78713  13.068   3.033   7.498  0.3200  0.1864 -0.1575
77850W        W78714  15.564   2.375   9.352  0.0328 -0.1377 -0.1246
77851W        W78715  12.282   2.427   9.388  0.1786  0.2379  0.4419
77852W        W78716  12.896   2.641   7.937  0.0759 -0.2202  0.2044
77853W        W78717  15.276   1.533   5.285  0.0652  0.1021  0.0634
77854W        W78718  15.505   4.059   4.590  0.0725  0.0763 -0.2664
77855W        W78719   9.616   2.505  10.625 -0.1542 -0.1099  0.1559
77856W        W78720  11.389   1.373   5.442 -0.1084  0.0305 -0.0125
77857W        W78721  14.778   3.075   9.190 -0.1577 -0.0059 -0.0821
77858W        W78722  14.866   1.588   8.713  0.0910  0.2175 -0.3330
77859W        W78723  14.122   1.285  10.926 -0.1747 -0.1108 -0.3658
77860W        W78724  12.577  28.850   6.945 -0.4558 -0.1446 -0.0546
77861W        W78725  13.962   0.957  12.433 -0.0608  0.2111  0.1698
77862W        W78726  12.583   0.028   8.878 -0.1424  0.2590 -0.3023
77863W        W78727  10.789   0.525   8.847 -0.1297  0.0451  0.3816
77864W        W78728  13.298  29.068  10.852 -0.2109  0.1715 -0.0458
77865W        W78729  15.477   1.529   6.187  0.0754 -0.0252 -0.4216
77866W        W78730  12.598   1.242   9.860 -0.0437  0.0123 -0.0989
77867W        W78731  13.426   3.289  10.236 -0.0042  0.0643  0.1526
77868W        W78732  14.912   3.087   6.131  0.0249  0.0878 -0.0095
77869W        W78733  12.592   2.339   8.215  0.1213  0.4557 -0.1322
77870W        W78734  15.267   4.002   9.678  0.0356  0.0808 -0.1155
77871W        W78735  12.219   0.918   8.844  0.0075  0.1685 -0.1279
77872W        W78736   9.973   2.684  10.969 -0.0986  0.0693  0.0118
77873W        W78737  12.242   0.107   8.557  0.0450  0.2391  0.0704
77874W        W78738  13.963   1.119   5.747 -0.2263  0.0142 -0.0535
77875W        W78739  14.591   3.811   8.555  0.0675  0.3112 -0.0579
77876W        W78740  12.572   1.268   7.658 -0.3818  0.1370  0.0738
77877W        W78741  14.550   4.300   7.851  0.0227  0.2612  0.0377
77878W        W78742  13.603   0.622   8.812  0.1263 -0.1024 -0.0346
77879W        W78743  15.865   3.136   8.589  0.1919 -0.0819 -0.1579
77880W        W78744  10.964  27.966   9.408  0.0379 -0.1147 -0.0273
77881W        W78745  11.750   1.129  10.833  0.1817  0.1076  0.1018
77882W        W78746  15.488   4.857  10.738 -0.2644  0.2909  0.0060
77883W        W78747  11.182   2.247   8.035 -0.0420  0.3055  0.1840
77884W        W78748  13.183   5.405   8.809 -0.1289  0.4662  0.0422
77885W        W78749  11.719   0.372  14.230 -0.2443 -0.0354 -0.2664
77886W        W78750  11.115   2.140  12.757  0.4362  0.1134  0.0953
77887W        W78751  15.688   2.249  10.536 -0.1294  0.0426  0.3626
77888W        W78752  15.164   3.539   7.938 -0.1020  0.3792  0.1427
77889W        W78753  12.107  28.615   9.598 -0.0391 -0.4087 -0.1275
77890W        W78754  13.664  28.874   8.567  0.0728  0.4177 -0.1258
77891W        W78755  16.749   0.473  11.575 -0.0507 -0.1489 -0.2233
77892W        W78756  11.608   2.637   6.683 -0.2008  0.1898  0.1686
77893W        W78757  13.223   1.365   8.835 -0.0234  0.3834  0.0822
77894W        W78758  10.488  28.748  10.016 -0.4165  0.2308  0.4370
77895W        W78759  12.981   0.541  10.305 -0.4121 -0.0265 -0.4987
77896W        W78760  10.926   5.046   7.861 -0.2697  0.2850  0.1113
77897W        W78761   8.957   2.749   6.327 -0.2981 -0.3628  0.2788
77898W        W78762  12.737   2.719  11.409 -0.2807 -0.0682  0.0791
77899W        W78763  14.055  27.845   7.673 -0.0335  0.1695  0.1204
77900W        W78764  11.303   1.477   8.229  0.3566 -0.0187  0.1644
77901W        W78765  13.835   2.063   9.251  0.0793  0.2515 -0.0711
77902W        W78766  12.245   3.955  10.222 -0.2468 -0.0547 -0.1387
77903W        W78767  11.866   0.043   8.161  0.2821 -0.1213  0.0343
77904W        W78768  13.620   4.540   9.186  0.0662  0.1240 -0.0159
77905W        W78769  13.298   3.508   7.340 -0.0243  0.2742  0.0212
77906W        W78770  14.204   3.528   6.177 -0.1025 -0.2222  0.1664
77907W        W78771  11.344  27.804  10.972 -0.0560 -0.0696  0.0335
77908W        W78772  11.881  28.108   9.963  0.1378  0.2235  0.0852
77909W        W78773  12.130  29.053   9.161  0.2820 -0.1473 -0.1087
77910W        W78774  11.102   0.581  10.404 -0.0173 -0.1213  0.0991
77911W        W78775  11.341   1.814   7.710 -0.0239 -0.3844  0.0437
77912W        W78776  12.518   1.083   8.120 -0.2285 -0.2032 -0.0633
77913W        W78777  10.242   2.521   7.788 -0.1781 -0.0764 -0.1253
77914W        W78778  14.862  28.138   8.566 -0.3314  0.0218 -0.1067
77915W        W78779  11.104   3.544   8.150 -0.0297 -0.0402 -0.0520
77916W        W78780  13.431   3.370  10.742  0.0622 -0.1984  0.1705
77917W        W78781  14.396   1.829  13.085  0.2270 -0.0853  0.1714
77918W        W78782  14.447   0.260   9.493 -0.0765  0.0642  0.0272
77919W        W78783  12.369  27.737   8.088  0.0509  0.2354 -0.2298
77920W        W78784   9.994   0.547  11.255 -0.0565 -0.1479  0.0426
77921W        W78785  14.542   2.580   6.767  0.2107 -0.1874 -0.0788
77922W        W78786  14.311  28.420  11.216 -0.0241 -0.0669  0.2040
77923W        W78787  14.692   1.836   8.183 -0.1227 -0.4434  0.1323
77924W        W78788  11.632   1.508   9.261 -0.0181  0.2584 -0.2542
77925W        W78789  15.449   1.845   9.176  0.1007  0.0914 -0.0502
77926W        W78790   9.942   1.626   9.957  0.1280  0.1196  0.3360
77927W        W78791  14.405   4.020   6.025 -0.0408 -0.0273 -0.1790
77928W        W78792  12.671   0.973   7.216 -0.3250  0.1189  0.1985
77929W        W78793  15.906   3.238   9.626  0.2147 -0.2617 -0.2113
77930W        W78794  11.442   2.828   9.525  0.2709 -0.1775  0.1222
77931W        W78795  10.659   5.593   9.590  0.0699 -0.1863 -0.0850
77932W        W78796  11.047   2.577   5.195 -0.0854 -0.0154  0.0152
77933W        W78797  12.187  28.093   9.532 -0.2174  0.1700  0.1618
77934W        W78798  13.492   3.418   7.842  0.0514  0.0024  0.1025
77935W        W78799  14.478   3.961   7.177  0.3541  0.0017 -0.3003
77936W        W78800  12.066   1.059   9.897 -0.0170  0.2957  0.1694
77937W        W78801  13.517   0.682   9.260 -0.0591 -0.0963 -0.3795
77938W        W78802  14.181   0.175   8.838 -0.2950  0.1366  0.1632
77939W        W78803  14.187   2.538  13.447 -0.0077  0.1041  0.0802
77940W        W78804  13.734   3.084   7.513 -0.4358  0.0152 -0.0062
77941W        W78805  12.478  28.724  10.047  0.2523  0.1922 -0.2849
77942W        W78806  12.085   2.824   9.849 -0.2979 -0.1428 -0.1382
77943W        W78807  13.767   3.648   9.451  0.1199 -0.1643  0.1741
77944W        W78808   7.624   2.080   5.247  0.1446  0.0305 -0.1402
77945W        W78809  13.848   2.951   9.358 -0.1526  0.0496  0.0860
77946W        W78810  13.198  28.438  12.033  0.2196 -0.0666 -0.3347
77947W        W78811  11.953  28.860  10.873  0.1463  0.0339  0.0988
77948W        W78812  12.595  29.015  11.572 -0.0906  0.0295  0.2717
77949W        W78813  14.088  28.586   8.517 -0.0903  0.0267  0.2063
77950W        W78814  14.212   1.551   7.506  0.0944  0.0853  0.0387
77951W        W78815  12.203  26.342  13.343  0.0825  0.0745  0.0807
77952W        W78816  12.220  28.233   6.215  0.0410  0.1375 -0.1557
77953W        W78817  15.190   1.319  10.799  0.0575  0.0038  0.1157
77954W        W78818   9.049   2.378   8.084  0.1024 -0.1518  0.1026
77955W        W78819  14.997   4.083   8.892 -0.1621 -0.1792 -0.1971
77956W        W78820  15.740   3.012   7.067 -0.1350  0.1185  0.0005
77957W        W78821  10.959   0.178   7.177  0.2186  0.2157 -0.4698
77958W        W78822  12.101   0.771  10.695  0.1789 -0.0193 -0.1171
77959W        W78823   9.120  26.992   7.223  0.2595  0.1040  0.0970
77960W        W78824  12.362   1.209  10.812  0.1121  0.4299 -0.0164
77961W        W78825  12.143   1.590   9.772  0.3188 -0.1013  0.1683
77962W        W78826  12.316   0.724   6.662 -0.2352  0.0094  0.3014
77963W        W78827  11.422   3.210   5.270  0.0552  0.0162  0.0763
77964W        W78828  11.746   0.415   9.775 -0.1603  0.1791 -0.1744
77965W        W78829  13.112  27.564   9.819 -0.0354 -0.0825 -0.0581
77966W        W78830  13.643   0.101   8.932 -0.0413 -0.2387  0.1962
77967W        W78831  15.503  26.971   9.346 -0.0014 -0.0094  0.2205
77968W        W78832  15.676   2.720   8.927  0.0014  0.1555 -0.1034
77969W        W78833  13.293   1.991   7.235 -0.0254  0.0430  0.1180
77970W        W78834  14.578   0.460   8.777  0.0675  0.1384  0.0348
77971W        W78835  12.848   5.623  11.167  0.0382  0.2600  0.2220
77972W        W78836  10.887   2.602  11.327  0.0061  0.0300  0.1287
77973W        W78837   9.922   2.456  12.501 -0.0500 -0.2396 -0.2202
77974W        W78838  17.151   0.356   9.728 -0.1549  0.4571  0.2261
77975W        W78839  11.971   0.687   9.315  0.3161  0.4300 -0.0558
77976W        W78840  14.954   3.202  11.320 -0.0238 -0.0855  0.0669
77977W        W78841  13.351   0.450   9.909  0.3657  0.0425 -0.0562
77978W        W78842  10.238   2.897   9.005  0.2048 -0.0811 -0.0758
77979W        W78843  14.367  28.883   9.406  0.2032  0.2089 -0.0642
77980W        W78844  13.430   2.367  10.174 -0.1677 -0.0563 -0.1416
77981W        W78845  17.151   0.559  11.908  0.1235  0.1064 -0.0806
77982W        W78846  13.831   1.258   7.858  0.0766 -0.1302 -0.0268
77983W        W78847  12.743   2.472  12.217  0.0697  0.0548  0.0388
77984W        W78848  11.519   0.996  11.743  0.1454  0.1440 -0.3980
77985W        W78849  14.844   0.854   7.975  0.0971 -0.3356 -0.0917
77986W        W78850  11.968   3.431   8.454  0.0555  0.1673 -0.1131
77987W        W78851  12.895   1.820   7.489 -0.3981 -0.1699 -0.1897
77988W        W78852  10.799   0.546   9.746 -0.2407 -0.1011  0.0185
77989W        W78853  11.019   2.053   8.916 -0.0167 -0.3815 -0.1777
77990W        W78854  14.065   1.851  12.115 -0.0403  0.0743 -0.1274
77991W        W78855  16.270  28.234  12.859 -0.2497  0.0855 -0.3597
77992W        W78856  13.514   2.059   8.201 -0.0400  0.0662 -0.0355
77993W        W78857  14.691   0.806   9.682 -0.0430  0.0839  0.0470
77994W        W78858  15.451   3.151   5.700 -0.1557 -0.0713 -0.0994
77995W        W78859  11.430   0.960  10.124 -0.4357  0.1685 -0.1692
77996W        W78860  13.633  28.725  11.983 -0.0044  0.0067  0.1451
77997W        W78861  13.901  28.893   7.542  0.2417 -0.1483  0.2269
77998W        W78862  13.047   1.122  10.249 -0.0504 -0.1825  0.0567
77999W        W78863  11.641   1.642   6.785  0.2203  0.4790  0.0961
78000W        W78864  15.043  29.027   8.908 -0.0915  0.0414 -0.1555
78001W        W78865  12.375   4.269  11.832 -0.0245 -0.1699  0.2359
78002W        W78866  15.614   2.583   6.844 -0.0990 -0.0301  0.3334
78003W        W78867  13.601  28.372   8.319  0.1554 -0.1332 -0.1763
78004W        W78868  11.717   0.588   7.187  0.2741 -0.1627  0.0794
78005W        W78869  11.831   2.045   8.618 -0.2265  0.0883  0.4216
78006W        W78870  15.721   5.167  10.348 -0.0998 -0.2387  0.2628
78007W        W78871  11.718   2.419   8.345 -0.0603  0.2924 -0.3044
78008W        W78872  11.239   1.583   7.209  0.2107 -0.0520 -0.2453
78009W        W78873  12.097   2.188   8.072  0.0777 -0.1139 -0.0713
78010W        W78874  13.978  28.571   7.154 -0.2624  0.0622 -0.1194
78011W        W78875  11.564   0.080  11.071  0.0459 -0.0207  0.1458
78012W        W78876  11.872   2.511   8.927 -0.1125  0.0345  0.0816
78013W        W78877  10.771   2.202   8.527 -0.2471 -0.0906 -0.0696
78014W        W78878  10.099   3.340   8.210  0.0022  0.2581  0.0191
78015W        W78879  14.353  28.935  11.962 -0.0613  0.0827  0.2076
78016W        W78880  11.333   1.938   9.269 -0.1002 -0.1238 -0.3007
78017W        W78881  12.030   0.667  11.617  0.0939 -0.4372  0.0813
78018W        W78882  14.195   3.304   9.245 -0.0923 -0.2227  0.0264
78019W        W78883  12.355  29.146  12.169  0.0659  0.0492  0.0635
78020W        W78884  10.407   3.237   6.766  0.0356  0.1136  0.4080
78021W        W78885  17.033   4.203   8.196 -0.0928 -0.6254 -0.2576
78022W        W78886  10.360   0.233   9.592 -0.3257 -0.1231 -0.3184
78023W        W78887  14.215   0.746   6.119 -0.1607 -0.3495  0.2171
78024W        W78888  14.361   1.196   8.043  0.1240 -0.1922  0.0215
78025W        W78889  14.418   2.360  10.883  0.3173  0.0431 -0.0044
78026W        W78890  14.073   0.787  10.175 -0.0042  0.0309  0.2105
78027W        W78891  12.047  28.709   7.330  0.3330 -0.2024 -0.1024
78028W        W78892  12.356   3.775   8.678 -0.2764  0.0789 -0.0394
78029W        W78893  13.004   0.608   9.481  0.2069 -0.2633 -0.0384
78030W        W78894  11.064  28.683  10.614  0.0296 -0.2035  0.0885
78031W        W78895  12.051   1.030   8.333 -0.1043 -0.2030 -0.0239
78032W        W78896  13.053   1.125   6.898 -0.0551 -0.1730 -0.1806
78033W        W78897   9.851   4.708   8.474  0.1447 -0.0638  0.0503
78034W        W78898  13.477   0.850  11.578  0.1055 -0.0506  0.1506
78035W        W78899  11.824   2.000   9.111  0.2481  0.1425 -0.4485
78036W        W78900  11.192  28.530   9.479 -0.2519 -0.0404 -0.2290
78037W        W78901  11.575   2.671  13.990  0.2744  0.1398  0.1145
78038W        W78902  13.203   3.457   8.269 -0.3137  0.1772  0.2880
78039W        W78903  16.501   1.668   8.403 -0.0778  0.0873 -0.1640
78040W        W78904  13.724   4.340   6.770 -0.0118 -0.2620 -0.1991
78041W        W78905  11.077   2.441  10.889 -0.4444 -0.6214  0.1970
78042W        W78906  12.852   0.146   6.917 -0.1472 -0.0569 -0.1646
78043W        W78907  14.209   2.213   8.922 -0.0455 -0.0956  0.1111
78044W        W78908  11.275   1.705   9.737  0.0948  0.1276  0.0308
78045W        W78909  12.158   3.155   7.841 -0.0491  0.2210  0.1403
78046W        W78910  13.450   1.885   9.907 -0.2446 -0.0155  0.0199
78047W        W78911  11.143  28.680   8.748 -0.3687 -0.1294  0.1729
78048W        W78912  10.400   2.458   8.277  0.2385  0.0352  0.0150
78049W        W78913  11.175   1.396   8.949 -0.0533  0.0629  0.0778
78050W        W78914  10.299   0.527   8.735 -0.2158 -0.1122 -0.0804
78051W        W78915  13.882   2.072  10.666  0.0611  0.0572  0.2792
78052W        W78916  15.278   2.491   8.584 -0.0711 -0.1593 -0.5126
78053W        W78917  13.884   3.585   8.936  0.1955 -0.2175 -0.3048
78054W        W78918  12.547  28.134   6.621 -0.4008  0.0638  0.2522
78055W        W78919  11.514  27.148  11.300  0.4001 -0.2749  0.1250
78056W        W78920  14.726   1.196  11.123  0.0870 -0.1516 -0.0365
78057W        W78921  16.307   1.615  10.078  0.1784 -0.0143 -0.3593
78058W        W78922  15.161   2.717   5.955 -0.1784 -0.4263  0.3457
78059W        W78923  14.725   2.217   7.827 -0.0861 -0.0377  0.4934
78060W        W78924  13.400   1.842   9.435 -0.1796  0.0189 -0.1378
78061W        W78925  13.112   0.881   8.975 -0.2585  0.0972  0.1331
78062W        W78926  13.400   1.007   8.479  0.1369 -0.0240 -0.4208
78063W        W78927   9.411  26.624   8.558 -0.2061 -0.0259  0.3498
78064W        W78928  12.330  28.796   8.732  0.0594 -0.1587 -0.0452
78065W        W78929   9.930   1.599  11.125  0.0254 -0.0335  0.0438
78066W        W78930  11.550   3.759   8.300 -0.2015 -0.1784  0.0954
78067W        W78931  13.354  28.761   8.976 -0.0511  0.1507  0.2699
78068W        W78932   9.231   4.398   9.107 -0.0892  0.1202  0.5642
78069W        W78933  12.821   1.160  10.682 -0.1016  0.0903 -0.1865
78070W        W78934  11.594   1.424   7.554 -0.0274  0.2256  0.1804
78071W        W78935  10.787  29.104   9.726  0.1842  0.1500 -0.2480
78072W        W78936  12.041   1.181   9.320  0.0400 -0.0668  0.1322
78073W        W78937  14.867   1.219  10.266 -0.0874  0.1189 -0.1411
78074W        W78938  13.542   2.575   9.555  0.1129 -0.0566 -0.0110
78075W        W78939  14.199   4.400   8.238  0.1087  0.3033 -0.1365
78076W        W78940  12.577   0.773  12.538  0.2869  0.3523  0.1227
78077W        W78941  10.660   2.980  11.569  0.0148 -0.1077  0.0914
78078W        W78942  11.198   5.005   8.758  0.0759  0.2129  0.3208
78079W        W78943  11.958   2.631  11.664 -0.0794 -0.2900  0.2369
78080W        W78944  11.856  27.765   7.943  0.0537  0.2124  0.4048
78081W        W78945  11.854   4.756   7.790  0.1677 -0.1804  0.0498
78082W        W78946  10.389   1.279   8.541 -0.3707  0.1726  0.0815
78083W        W78947  13.322   2.290   9.194 -0.0337  0.1175 -0.1995
78084W        W78948  13.520   1.847  10.932  0.1021  0.3397  0.2581
78085W        W78949  15.016   0.006   6.550  0.0274 -0.1239 -0.2988
78086W        W78950  15.977   2.899  10.533  0.0682  0.0249 -0.1135
78087W        W78951  13.917   0.906  10.676 -0.0474 -0.3420  0.1681
78088W        W78952  12.281   3.517  10.417  0.2611  0.1152  0.3677
78089W        W78953  14.643   3.639  13.890 -0.0551 -0.0062  0.0857
78090W        W78954  10.220   4.865   9.172 -0.1732  0.0589  0.0315
78091W        W78955  14.511   3.477   7.052 -0.0984  0.0292  0.1570
78092W        W78956  13.908   1.026   8.349  0.3862 -0.0677  0.4595
78093W        W78957  12.957  26.815  10.546 -0.0446 -0.2121  0.0136
78094W        W78958  11.777   1.932   7.327 -0.0735 -0.0680  0.1430
78095W        W78959  14.004  28.513  10.322  0.1326 -0.0551 -0.1705
78096W        W78960  14.781  27.406   9.031  0.3146  0.0779 -0.0630
78097W        W78961  10.767   1.447   5.724  0.0068  0.0672 -0.0511
78098W        W78962  12.920   1.855   8.481 -0.0740  0.0323  0.0698
78099W        W78963  11.974   1.788  10.259 -0.3557 -0.0486  0.0994
78100W        W78964  13.483  27.406   9.571 -0.1917 -0.0189  0.0770
78101W        W78965  10.758  24.825  10.833  0.0966 -0.2559  0.0912
78102W        W78966  14.306   2.451   7.679 -0.3066  0.1643 -0.3682
78103W        W78967  11.618   0.473   8.289  0.0182  0.0577 -0.1978
78104W        W78968  13.558   2.873  10.988 -0.2574 -0.0150  0.1296
78105W        W78969  12.668   1.586   8.085 -0.1509 -0.1027 -0.3973
78106W        W78970  15.971   2.091  10.138 -0.0302 -0.1128 -0.1931
78107W        W78971  14.217   4.085   4.929 -0.0196  0.2527  0.3047
78108W        W78972  13.371   3.303   8.739  0.2731 -0.2062  0.1085
78109W        W78973  15.433   3.330   6.882  0.1589  0.1806 -0.0880
78110W        W78974  10.131   0.290  10.022 -0.2551  0.0271 -0.1837
78111W        W78975  10.800   1.559   9.880 -0.0738 -0.1694  0.0974
78112W        W78976  12.415  29.030  10.506  0.1678 -0.4902  0.0968
78113W        W78977   7.923   1.342   6.337 -0.1983 -0.0817 -0.1505
78114W        W78978  10.658   1.689   7.171 -0.2119 -0.2102  0.0411
78115W        W78979  10.572   1.706  10.295 -0.3802  0.1465  0.1614
78116W        W78980  11.195   3.000   7.323  0.4944 -0.0945  0.0472
78117W        W78981  16.320  28.483  11.005 -0.1189 -0.0952  0.1005
78118W        W78982  11.402   2.762   8.617 -0.0040 -0.3058  0.0202
78119W        W78983  13.138   4.993   7.045  0.1129 -0.3192  0.2211
78120W        W78984  14.107   1.599   9.289  0.0722  0.1724  0.1740
78121W        W78985  13.982   2.027   8.403  0.3082  0.1764 -0.1763
78122W        W78986  13.639   0.222   6.815  0.0206  0.0314 -0.3514
78123W        W78987  14.358  28.000   8.419 -0.1259  0.0829  0.2404
78124W        W78988  12.308   1.958   7.223  0.0603  0.1222 -0.1612
78125W        W78989  15.701   0.466   7.183  0.0833 -0.2235 -0.2540
78126W        W78990  11.663   2.279   5.573  0.0700 -0.1227  0.0873
78127W        W78991  13.071   3.059  10.989 -0.1801  0.0012 -0.1941
78128W        W78992  15.214   2.530   7.746 -0.2574 -0.1428 -0.0574
78129W        W78993  11.793   0.278  10.685  0.0395 -0.0847  0.2141
78130W        W78994  12.854  28.734   8.845  0.0013  0.0085  0.2677
78131W        W78995  16.350   4.747  12.108 -0.0474  0.0698 -0.1157
78132W        W78996  12.687   0.460   9.880  0.0214  0.2056 -0.2971
78133W        W78997  11.980   3.596   9.949 -0.6003  0.2672 -0.3382
78134W        W78998  14.461   1.788  11.811  0.1410 -0.2491  0.4266
78135W        W78999   9.839   0.240  10.883 -0.1063  0.1966 -0.0246
78136W        W79000   8.165   2.538   9.364  0.0155  0.2769 -0.4213
78137W        W79001  16.040   0.559  12.210 -0.2976 -0.2880 -0.1732
78138W        W79002  15.736   3.096  10.126 -0.0178  0.0691  0.0016
78139W        W79003  12.515   1.910  10.075 -0.1106  0.2366 -0.1176
78140W        W79004  13.106   5.907  10.788  0.0014 -0.1121  0.0416
78141W        W79005  14.682   4.875  11.491 -0.0869 -0.0267 -0.2629
78142W        W79006  11.583   0.951   8.447  0.0599  0.1386 -0.3889
78143W        W79007  13.006   3.330   9.092  0.0399 -0.0419 -0.2873
78144W        W79008  14.459  28.457  11.707 -0.0237 -0.2157 -0.3145
78145W        W79009  10.906   2.391   6.692 -0.2028  0.1815  0.0537
78146W        W79010  14.652   2.427   8.852  0.2346 -0.0998 -0.0304
78147W        W79011  13.995   3.302  10.197 -0.1939  0.0507 -0.1002
78148W        W79012  10.822   3.513   8.887  0.1825 -0.0826  0.2344
78149W        W79013  11.862   0.526  11.126  0.1081  0.2185 -0.1074
78150W        W79014  13.071   2.572   8.840  0.0852 -0.3749  0.0503
78151W        W79015  12.626   3.885  10.538 -0.0787 -0.0546  0.0597
78152W        W79016  13.878   4.153  10.764 -0.1319  0.3293  0.0600
78153W        W79017  12.566   2.960   7.520  0.1167 -0.2167  0.2223
78154W        W79018   8.482   4.720  13.234 -0.0382  0.0108  0.0051
78155W        W79019  11.221   2.690  12.284 -0.1056 -0.0581  0.0580
78156W        W79020  14.961   0.825  10.588 -0.3916  0.2874  0.0704
78157W        W79021  13.314   4.656  14.897 -0.0815  0.2167 -0.1561
78158W        W79022  11.231   2.008  10.637  0.0977  0.1055 -0.1960
78159W        W79023  11.741   2.138  10.497  0.1577 -0.3752 -0.0709
78160W        W79024  11.840   3.133  13.766  0.1975 -0.2696 -0.0563
78161W        W79025  10.451   1.892  12.176  0.0119  0.1738  0.2134
78162W        W79026  12.321   0.359  12.563 -0.0429 -0.1307 -0.2018
78163W        W79027  13.528   0.271  14.961  0.1966  0.0060  0.2116
78164W        W79028  12.378   0.074  15.872 -0.1934 -0.0200  0.1173
78165W        W79029  14.593   3.173  11.990 -0.1036  0.1429 -0.0400
78166W        W79030  12.842   1.896  11.399 -0.1227 -0.2156 -0.0160
78167W        W79031  16.749   0.820  13.371 -0.1761 -0.1691 -0.0623
78168W        W79032  13.491  28.503  12.431  0.1112 -0.4241  0.1225
78169W        W79033  11.843   6.218  13.205  0.1073 -0.3892  0.0879
78170W        W79034  14.371   2.893  13.864  0.1770 -0.2004 -0.0874
78171W        W79035  11.549   2.362  13.391 -0.0970  0.4381  0.1343
78172W        W79036  13.358   0.388  13.625 -0.2650 -0.0764 -0.0052
78173W        W79037  14.969   2.349  13.827 -0.0836 -0.0872  0.0245
78174W        W79038  14.581   3.233  12.633  0.3948  0.0460 -0.1369
78175W        W79039   9.865   0.245   8.803 -0.0498 -0.1804 -0.2103
78176W        W79040  13.627   4.679  12.709  0.2148  0.0319  0.1699
78177W        W79041   9.033   2.832  13.699  0.1682 -0.2335 -0.2838
78178W        W79042  10.010  28.964  15.903  0.2654  0.0994 -0.1404
78179W        W79043  12.695   2.948  13.790 -0.0663  0.1205  0.2159
78180W        W79044  16.701   0.151  13.607 -0.0658  0.4153 -0.1305
78181W        W79045  12.777   3.561  12.915  0.0058 -0.1193 -0.0975
78182W        W79046  12.920   2.128  14.260 -0.1338 -0.3276 -0.2324
78183W        W79047  12.687   0.837  14.042  0.2736  0.0955 -0.1729
78184W        W79048  11.848   2.981  14.309 -0.3298  0.0896  0.0324
78185W        W79049  15.300   6.320  12.777  0.3869  0.1212 -0.1460
78186W        W79050  14.099   1.130  12.896  0.2726 -0.0812 -0.1624
78187W        W79051  13.239   2.952  15.430  0.2054 -0.0318  0.0172
78188W        W79052  10.965   0.650  15.453 -0.0705  0.0246 -0.0808
78189W        W79053  15.536   2.288  14.492 -0.3707  0.2427  0.0448
78190W        W79054  11.641   1.788  11.115 -0.2944 -0.0519 -0.0713
78191W        W79055  13.519   3.681  12.269 -0.2230  0.0370 -0.0387
78192W        W79056  15.522   4.087  10.737  0.0848  0.0178 -0.1752
78193W        W79057  14.425   1.595  15.748  0.0906  0.1572  0.0778
78194W        W79058  16.084   0.646   9.312 -0.4457 -0.0443  0.2628
78195W        W79059  13.598   1.467  12.638 -0.0502 -0.1495 -0.0106
78196W        W79060  14.248   0.338  14.239  0.0300  0.0425 -0.0525
78197W        W79061  16.153   3.214  10.985 -0.1637 -0.1306  0.1488
78198W        W79062  11.381   2.754  11.269 -0.1367 -0.0531 -0.0391
78199W        W79063  13.475   3.332   9.278  0.0264 -0.0276 -0.0191
78200W        W79064  13.707   0.391  11.897  0.1895  0.2216  0.3561
78201W        W79065  13.357   1.198  13.444 -0.1270 -0.1481 -0.0829
78202W        W79066  13.912   0.634  11.508 -0.1241 -0.1762  0.1010
78203W        W79067  12.945   2.150  10.253  0.2914  0.2378 -0.1731
78204W        W79068  12.426   2.259  14.071 -0.2222  0.1472 -0.3368
78205W        W79069  13.556   4.196  12.946 -0.1083 -0.3137 -0.0162
78206W        W79070  11.934   2.098  16.487 -0.1184  0.1133  0.0614
78207W        W79071  15.054  27.968  12.887  0.4965  0.1624  0.1256
78208W        W79072  11.246   0.191  12.927 -0.0773  0.1560  0.0809
78209W        W79073  13.327   2.189  12.312  0.0980  0.0420  0.2263
78210W        W79074  11.984   1.171  10.390  0.0289 -0.1138  0.2098
78211W        W79075  15.653  28.358  10.428  0.4768 -0.2942 -0.1257
78212W        W79076  11.716   3.161  13.235  0.0774 -0.0056 -0.0168
78213W        W79077  13.329   2.738  11.398 -0.0463  0.1858  0.2797
78214W        W79078  14.410  28.346  12.600  0.2094  0.0390  0.2166
78215W        W79079  11.742   1.500  13.088 -0.0464 -0.0010  0.0875
78216W        W79080  12.239   1.746  13.894 -0.2034 -0.1430  0.3063
78217W        W79081  12.075   1.038  12.538 -0.1700 -0.0321  0.0135
78218W        W79082  10.818  28.320  13.407  0.0049  0.0109  0.2174
78219W        W79083  14.590  26.485   9.342 -0.0435 -0.0670 -0.1283
78220W        W79084  10.790   2.074  11.403 -0.1338 -0.0784  0.2815
78221W        W79085  11.564   0.572  11.519  0.2043 -0.1471 -0.1543
78222W        W79086  11.449   3.408  13.625 -0.0292  0.2798  0.0776
78223W        W79087  11.568   4.516  14.922 -0.0818  0.0586  0.1307
78224W        W79088  17.086   3.382  12.560  0.0303 -0.1996 -0.1678
78225W        W79089  12.057  28.722  12.361 -0.0043 -0.0774 -0.4067
78226W        W79090  15.538   1.994  11.691  0.2074  0.1429 -0.0136
78227W        W79091  16.514   0.297  12.044 -0.1393  0.3318 -0.3027
78228W        W79092  14.716   3.972  14.244  0.1103 -0.0284 -0.1950
78229W        W79093  15.689   0.502  14.392  0.1239  0.0748  0.1289
78230W        W79094  11.737   2.303  11.373 -0.2451  0.0671  0.1555
78231W        W79095  14.666   5.091  12.646  0.3771 -0.1374 -0.1703
78232W        W79096  13.454   2.674  12.328 -0.0175 -0.2068  0.0698
78233W        W79097  14.907   1.647  13.183 -0.2439  0.2936 -0.2405
78234W        W79098  11.396   0.798  13.709 -0.1096  0.2206  0.1588
78235W        W79099  13.959   3.569  14.723 -0.2011 -0.0280  0.4405
78236W        W79100  11.244  28.886  12.600  0.0862  0.1043 -0.1169
78237W        W79101  13.712   2.889  14.816 -0.0362  0.0669 -0.1354
78238W        W79102  13.473   0.815  14.107 -0.4710  0.0836  0.1083
78239W        W79103  14.307  27.808  12.529  0.1582  0.0265  0.1214
78240W        W79104  14.405   4.452  16.567 -0.1635  0.3558  0.0155
78241W        W79105  12.357  28.522  13.611  0.2713 -0.0728 -0.0853
78242W        W79106  15.994   0.754  13.610 -0.0318 -0.4003  0.1077
78243W        W79107  17.264   0.945  13.116  0.1822  0.1499 -0.0699
78244W        W79108  13.012  27.922  12.259 -0.2499  0.2422  0.0561
78245W        W79109  14.287   2.648  14.234  0.1312  0.0018 -0.1207
78246W        W79110  11.870   3.677  11.163  0.0382 -0.2404 -0.2478
78247W        W79111  12.255  27.743  12.263 -0.3169  0.0189 -0.0178
78248W        W79112  10.605   1.394  14.775  0.0618 -0.0844 -0.0747
78249W        W79113  15.305   1.902  10.729 -0.1183 -0.0512  0.1529
78250W        W79114  14.206   1.520   9.812  0.0124  0.0824 -0.3257
78251W        W79115   9.193   1.549  13.263 -0.0386  0.0724  0.2074
78252W        W79116  12.224   0.845  14.298 -0.0937 -0.2099 -0.3739
78253W        W79117  14.100   0.883  11.938 -0.1648  0.0510 -0.2545
78254W        W79118  14.502   4.599   9.799  0.0397  0.2761 -0.5409
78255W        W79119  10.212   1.856  10.685  0.0927 -0.0968 -0.1728
78256W        W79120  11.782  28.306  12.443 -0.1456  0.1072 -0.1492
78257W        W79121  16.660   1.545  14.693  0.0122 -0.2066  0.1225
78258W        W79122  15.724  28.890  10.398 -0.1179  0.3363 -0.3709
78259W        W79123  14.272  28.758  14.570  0.2012 -0.1002  0.1621
78260W        W79124  13.192   1.927  11.853 -0.3011  0.5154 -0.0153
78261W        W79125  13.113   2.063  15.422  0.1350 -0.0186 -0.1149
78262W        W79126  12.535  27.045  11.413 -0.0698  0.1707  0.3470
78263W        W79127  13.594   0.832  12.125  0.1539 -0.0659 -0.1730
78264W        W79128   9.678   2.342  14.121  0.0863  0.1042 -0.1837
78265W        W79129  14.407   1.448  12.165 -0.1002 -0.2867  0.0489
78266W        W79130  14.440   0.291  14.814  0.0721 -0.0595  0.1238
78267W        W79131  13.582   3.372  14.897 -0.1227  0.0009 -0.4788
78268W        W79132  16.604   0.357   9.654  0.1657 -0.0524  0.0598
78269W        W79133  13.922   1.122  11.424  0.3195 -0.4155 -0.1167
78270W        W79134  15.197  29.140  14.249 -0.0131  0.2322  0.0592
78271W        W79135  13.850   0.277  13.382  0.1439 -0.2776 -0.2767
78272W        W79136  16.478   0.563  13.776  0.2849 -0.0820 -0.1040
78273W        W79137  13.116   0.048   9.764 -0.2337  0.0702 -0.0335
78274W        W79138  13.712   2.362  11.330  0.2361 -0.1984  0.3041
78275W        W79139  13.317  29.078  14.610  0.2011 -0.3725 -0.3709
78276W        W79140  14.479   2.384  13.855  0.2459 -0.0011  0.3302
78277W        W79141  16.177   1.880   9.638  0.0325 -0.0076  0.0336
78278W        W79142  15.314   0.056   9.904  0.3648 -0.0851 -0.2426
78279W        W79143  12.321   3.435  12.934  0.0456  0.0748  0.0277
78280W        W79144  11.515   1.619  10.545 -0.2237 -0.1111 -0.1208
78281W        W79145  13.043  29.005  13.606 -0.2125  0.0912  0.2435
78282W        W79146  15.657   5.161  13.159  0.0106  0.2361  0.0263
78283W        W79147   9.317   3.354  12.453  0.1209 -0.4149 -0.1818
78284W        W79148  13.394   2.906  13.289 -0.2880 -0.1173  0.2288
78285W        W79149  13.065   0.732  12.321  0.2416 -0.1741 -0.0415
78286W        W79150  11.913   1.854  13.397 -0.0212  0.1258  0.2966
78287W        W79151  13.784   1.761  13.843  0.2548 -0.1895  0.2480
78288W        W79152  14.382   5.699  14.418 -0.0767 -0.1881  0.0176
78289W        W79153   9.855   0.060  13.971 -0.1302  0.0722  0.5600
78290W        W79154  14.600   1.029  11.912 -0.0692  0.0527  0.3724
78291W        W79155  15.072  27.726  11.477  0.0425 -0.0192  0.2989
78292W        W79156  15.407   0.848  10.896 -0.1361 -0.1327 -0.0541
78293W        W79157  13.597   3.739  10.028 -0.2875  0.0188  0.4081
78294W        W79158  12.797   2.305  11.642 -0.0884  0.0507  0.0906
78295W        W79159  13.506   0.897  12.645  0.0228  0.0883  0.0671
78296W        W79160  12.753   3.444  12.388 -0.1580  0.2287  0.1228
78297W        W79161  12.050  27.767  10.345 -0.3278 -0.1792 -0.2025
78298W        W79162  12.885   0.561  15.321  0.2622 -0.1352 -0.3097
78299W        W79163  12.176   1.649  12.810 -0.0562 -0.1729  0.1414
78300W        W79164  13.550   0.013   9.898  0.0814  0.0067  0.2533
78301W        W79165  15.488   2.686  12.603  0.1367 -0.0261  0.3891
78302W        W79166  13.237   1.663  13.781  0.1282 -0.1135 -0.2105
78303W        W79167  13.110  28.681  14.416 -0.0698  0.3690 -0.3034
78304W        W79168  15.094   1.930  13.606 -0.0325 -0.5804  0.0171
78305W        W79169  10.776   0.241  11.186  0.1082 -0.1617  0.0280
78306W        W79170  13.501   1.720  13.279 -0.0898 -0.0707  0.0586
78307W        W79171  12.038   1.180  11.679 -0.2438  0.0900  0.2870
78308W        W79172  12.428   0.434  13.414  0.1225  0.3080  0.0539
78309W        W79173  14.971  26.025  10.754  0.0664 -0.1955 -0.1405
78310W        W79174  13.029   4.404  14.447  0.0469  0.0023 -0.1280
78311W        W79175  13.942   3.663  12.090 -0.0438  0.0189 -0.2021
78312W        W79176  12.721   0.502  12.074  0.0182  0.0217  0.2013
78313W        W79177  10.720   1.269  13.292 -0.0858  0.2772 -0.0371
78314W        W79178  13.410  28.704  12.937 -0.1759 -0.0379  0.0470
78315W        W79179  13.016   3.302  13.690  0.0278  0.2591  0.0399
78316W        W79180  12.958   1.909  13.281 -0.0834  0.3213 -0.1891
78317W        W79181  12.239  28.990  12.727  0.1032  0.3596 -0.2145
78318W        W79182  11.431   3.184  18.741  0.2082  0.3087  0.0629
78319W        W79183  13.862  27.928  13.409  0.1640 -0.1821  0.4047
78320W        W79184  10.818   1.435  12.151  0.1899 -0.1399  0.1859
78321W        W79185  12.181   4.184  12.421  0.2138  0.0146  0.1385
78322W        W79186  12.092   2.336  10.253  0.0753  0.3496  0.2324
78323W        W79187   8.900   3.247  14.018 -0.2507 -0.1580  0.0946
78324W        W79188  13.653  28.711  14.607 -0.1040  0.0128  0.0481
78325W        W79189  12.432   1.565  13.320 -0.2553 -0.0626 -0.1985
78326W        W79190   9.302   0.132  13.749  0.0901  0.3604 -0.2982
78327W        W79191  14.875  28.174  11.602 -0.2867  0.2606  0.0195
78328W        W79192  14.231   1.255  13.837  0.0913  0.3254  0.1073
78329W        W79193  14.345  28.957   9.921  0.0495  0.2214  0.1080
78330W        W79194   8.463   3.708  11.562 -0.1056 -0.5024 -0.0951
78331W        W79195  13.069   3.743  12.016 -0.0760  0.1014  0.1544
78332W        W79196  10.670   3.402  11.785  0.0586 -0.1154  0.1237
78333W        W79197  13.304   1.210  12.213 -0.0855  0.1053 -0.0585
78334W        W79198  14.657   2.352  12.585  0.0367  0.1193  0.0569
78335W        W79199  18.467   1.630  10.310  0.2163  0.1189  0.1632
78336W        W79200  11.558   1.985  12.258 -0.0520 -0.1895 -0.0065
78337W        W79201  10.440   1.619  13.044  0.1699  0.0391 -0.3029
78338W        W79202  12.850   1.767  10.610  0.1606  0.0249 -0.1903
78339W        W79203  15.040   1.227  14.563  0.2170  0.1312 -0.2334
78340W        W79204  16.409  26.846  12.832 -0.2107  0.2707  0.1758
78341W        W79205   9.004  26.868  11.635  0.0466  0.0544 -0.2935
78342W        W79206  11.588   4.134  11.499  0.0407  0.1988 -0.0579
78343W        W79207  10.323   0.486  13.946  0.0626 -0.0867 -0.2514
78344W        W79208   9.798   4.633   9.000 -0.2580 -0.0701 -0.0458
78345W        W79209  11.930   2.305  13.829  0.1539  0.0755 -0.2509
78346W        W79210  13.324   2.391  13.254 -0.0322 -0.2303  0.1028
78347W        W79211  13.239   0.926  13.085  0.0646 -0.1276 -0.1543
78348W        W79212  13.515  28.277  11.681 -0.0669  0.1167  0.0669
78349W        W79213  11.912   0.545  12.827  0.0493 -0.2367 -0.0808
78350W        W79214  15.495  27.518  11.702  0.2560 -0.0800  0.0042
78351W        W79215  11.640   0.192  13.236  0.1948  0.3100 -0.4063
78352W        W79216   9.230   1.729  11.813 -0.1211  0.3275  0.0321
78353W        W79217  14.121  28.931  12.802 -0.1940  0.0346 -0.0297
78354W        W79218   9.449   2.350  11.686  0.2185 -0.3065  0.0043
78355W        W79219  13.059  28.493  13.234  0.3702 -0.1305 -0.0144
78356W        W79220  17.452   0.955   9.914  0.1749 -0.1281 -0.1664
78357W        W79221  10.611  28.945  11.334  0.1571 -0.0479 -0.1758
78358W        W79222  13.352   1.940  12.833 -0.0059  0.3293 -0.0065
78359W        W79223  10.260   0.246  10.543  0.1579 -0.0470  0.3316
78360W        W79224  11.336   2.434  10.403 -0.1794  0.0021  0.0898
78361W        W79225  11.608   1.066  13.324 -0.0356 -0.0566 -0.1567
78362W        W79226  13.213   3.558  14.099  0.0581 -0.3416  0.1112
78363W        W79227  12.147   0.218  13.063  0.2236 -0.0596 -0.0824
78364W        W79228  13.086   1.141  13.941  0.0421  0.2240  0.0270
78365W        W79229  11.012   1.592  13.637 -0.1917 -0.1425  0.3040
78366W        W79230  11.360   2.898  13.483  0.0059 -0.1836  0.0229
78367W        W79231  12.171   2.756  13.976 -0.0569  0.2694  0.1712
78368W        W79232  15.355   2.834  10.483 -0.2720  0.2648  0.0446
78369W        W79233  14.609  28.840  12.939 -0.0336 -0.0787  0.1660
78370W        W79234  15.862   0.678  10.811  0.0382 -0.0559  0.0355
78371W        W79235  13.739   5.158  10.638 -0.2055 -0.0307  0.1702
78372W        W79236  16.387   1.140  14.776 -0.0589  0.1971 -0.0063
78373W        W79237  11.482  29.144  15.686 -0.2396  0.3781 -0.0358
78374W        W79238  15.738   1.495  15.213  0.1793  0.0837  0.1619
78375W        W79239  15.641   0.844   8.945  0.0586 -0.0658 -0.1601
78376W        W79240  13.883   4.264  13.902 -0.1102  0.0166 -0.1000
78377W        W79241  11.360  27.585  13.231 -0.2572  0.1565 -0.1120
78378W        W79242  15.360  28.314  12.730  0.0784  0.1309 -0.1204
78379W        W79243  11.121  27.993  14.809 -0.1476  0.3016 -0.0449
78380W        W79244  14.689   4.968  13.150  0.1921  0.2913  0.1368
78381W        W79245  13.457   1.751  14.209  0.3192 -0.3910  0.0386
78382W        W79246  13.886   5.927  10.712  0.0272 -0.2540  0.2699
78383W        W79247  14.146  27.660  13.726  0.0519 -0.1793  0.0190
78384W        W79248  10.949   1.775  13.108  0.2067  0.0849  0.0558
78385W        W79249  13.225  26.765  15.644 -0.1443 -0.0260 -0.0952
78386W        W79250  12.514   2.767  13.123 -0.1907  0.0740 -0.0064
78387W        W79251  13.550   0.448  10.698 -0.0729  0.0422  0.0746
78388W        W79252  10.593  27.536  13.690  0.0970  0.0744  0.0599
78389W        W79253  13.241   2.644  16.256  0.0856 -0.1147 -0.2294
78390W        W79254  17.148   2.017  13.299  0.2203  0.5726 -0.1411
78391W        W79255  10.214   0.579  12.118 -0.1250 -0.2183 -0.2614
78392W        W79256  13.133   1.489  13.051  0.2923 -0.0959 -0.0936
78393W        W79257  14.762   4.420  13.237  0.1309 -0.2548  0.0055
78394W        W79258  15.142   4.144  13.029 -0.1666  0.0254  0.0304
78395W        W79259  10.564   3.575  15.697 -0.0338  0.1510 -0.1580
78396W        W79260  11.618  28.678  12.140  0.2012 -0.0276  0.2445
78397W        W79261  11.711   0.263  14.711 -0.2284  0.0786 -0.0197
78398W        W79262  12.988   1.054  12.704  0.0925  0.0024 -0.0187
78399W        W79263   9.894   2.090  11.873 -0.1637  0.2890 -0.2116
78400W        W79264  15.706   1.981  12.476 -0.3597  0.1105  0.2139
78401W        W79265  10.241   0.926  11.515  0.0701  0.0161  0.5307
78402W        W79266  18.351   4.276  14.273  0.1778 -0.1443 -0.2968
78403W        W79267  14.204   0.364  11.860  0.0599  0.5092  0.2102
78404W        W79268  10.558   3.563  14.783 -0.1234 -0.1012  0.0710
78405W        W79269  13.031   4.050  13.923  0.2056 -0.1060  0.0333
78406W        W79270  14.371   5.833  15.245  0.2639 -0.1568 -0.1115
78407W        W79271  12.294   1.208  12.075  0.2812 -0.1988  0.1651
78408W        W79272  10.681   2.220  12.961 -0.3441 -0.0890  0.1060
78409W        W79273  15.178   1.860   9.720 -0.1740 -0.0891 -0.2373
78410W        W79274  12.652  28.416  11.003  0.0203  0.0864 -0.1111
78411W        W79275  12.385   0.684  12.989 -0.3484 -0.0161  0.0805
78412W        W79276  13.369   3.190  14.391 -0.1758  0.0264 -0.1042
78413W        W79277  14.935   1.332  12.664 -0.3030 -0.0465 -0.0514
78414W        W79278  13.509   1.350  11.076 -0.0103  0.0195 -0.4739
78415W        W79279  10.956   3.439  13.494  0.0733 -0.1802  0.0342
78416W        W79280  14.532   4.437  15.074  0.0760 -0.0129  0.1130
78417W        W79281  14.228   3.301  12.292 -0.1285  0.2145  0.2372
78418W        W79282  14.460   6.803  11.529 -0.3167 -0.0492  0.4344
78419W        W79283  10.463   7.350  12.890 -0.1174  0.1083  0.0175
78420W        W79284  10.449   4.096   9.864 -0.1895 -0.0465 -0.1924
78421W        W79285  12.781   2.374  13.190 -0.0517  0.2905 -0.3803
78422W        W79286  11.286   0.097  17.009 -0.0054 -0.3973 -0.0221
78423W        W79287  16.864  29.034   9.850  0.2921  0.0068 -0.1707
78424W        W79288  12.863   1.416  13.546 -0.1421  0.0967 -0.0451
78425W        W79289  16.529   0.787  12.738  0.1524 -0.1214 -0.0620
78426W        W79290  14.374   1.902  10.688 -0.2123 -0.2977 -0.0428
78427W        W79291  13.022   2.230  12.661 -0.2876 -0.1878  0.0480
78428W        W79292  12.302   6.419  16.051 -0.0064 -0.0508  0.2138
78429W        W79293  12.988   0.567  12.846 -0.1710 -0.2979  0.0212
78430W        W79294  14.021   1.513  13.468 -0.1577  0.2523 -0.2045
78431W        W79295   9.535   2.725  12.840 -0.0393  0.0739  0.0352
78432W        W79296  11.699   2.369   9.462 -0.3395 -0.2240 -0.0481
78433W        W79297  12.247   4.834  11.671 -0.0630 -0.0064 -0.5174
78434W        W79298  10.891   0.894  12.933  0.0071  0.1246 -0.1933
78435W        W79299  13.513   0.204   9.443  0.1053 -0.0962 -0.0109
78436W        W79300  12.756   1.814  12.789 -0.3357 -0.1747  0.2447
78437W        W79301  11.604   5.732  10.485 -0.1427 -0.0056  0.2078
78438W        W79302  15.441   2.357   9.863 -0.0609  0.2875 -0.0241
78439W        W79303  15.123  28.498  12.258 -0.0166  0.0203 -0.0671
78440W        W79304  11.651   1.423  12.013 -0.2580 -0.0369 -0.2532
78441W        W79305  11.148   2.426  13.163  0.0407 -0.0040  0.1905
78442W        W79306  14.881  28.776   8.218  0.0557 -0.1069 -0.0164
78443W        W79307  13.367   1.934  10.439 -0.1202  0.0159  0.1520
78444W        W79308  13.427   0.990  10.737 -0.3020  0.0157 -0.1423
78445W        W79309  12.873   0.345  11.616  0.1352 -0.1616  0.1730
78446W        W79310  15.095  28.805  10.967 -0.0011  0.4930  0.0515
78447W        W79311  12.417   1.475  11.531  0.2041  0.3589 -0.1849
78448W        W79312  10.964   3.851  13.199  0.2763 -0.0213  0.1867
78449W        W79313  14.373   1.631  11.228 -0.0937  0.0056  0.0539
78450W        W79314  12.662  28.949  12.496  0.2250 -0.0660  0.1250
78451W        W79315  15.214   2.467  14.839  0.0288  0.0586 -0.2324
78452W        W79316  17.868  28.024  13.742 -0.0379 -0.2361  0.0486
78453W        W79317  12.026   4.568  14.660  0.0939 -0.0476  0.3846
78454W        W79318  10.579   2.084   9.815  0.0761  0.0342  0.0001
78455W        W79319   8.568   0.146  12.486 -0.0005  0.2184 -0.1622
78456W        W79320  12.734   1.815  13.843 -0.0788  0.0992 -0.0568
78457W        W79321  14.436  27.986  11.595  0.1719  0.3397 -0.0704
78458W        W79322  13.045   0.957  11.884  0.1601 -0.0879 -0.1225
78459W        W79323  14.104   5.686  13.641  0.2451  0.3435 -0.2195
78460W        W79324  15.080   1.385  16.536  0.1732 -0.1738  0.0008
78461W        W79325  12.262  27.161  11.784 -0.0045  0.0449 -0.0394
78462W        W79326  14.774   1.397  11.623  0.3187 -0.1522  0.1989
78463W        W79327  10.176   1.080  13.514 -0.1271  0.0617 -0.0421
78464W        W79328  10.571  28.510  10.808 -0.1104 -0.1341 -0.1206
78465W        W79329  12.602   1.254  16.396  0.1236  0.0971 -0.2179
78466W        W79330  12.289   2.160  12.287  0.0890 -0.0988 -0.3284
78467W        W79331  12.706   3.005  14.599 -0.0237 -0.1287  0.3937
78468W        W79332  11.387   3.533  13.162 -0.1606  0.0462 -0.1096
78469W        W79333  11.163   1.582  14.142 -0.1529  0.2070 -0.3628
78470W        W79334  12.521   1.640  12.370 -0.2167 -0.2693 -0.2484
78471W        W79335  14.381  28.158  12.076 -0.0552  0.0615 -0.0692
78472W        W79336  13.842   1.309  14.114  0.1358  0.0804  0.1211
78473W        W79337  11.423   1.992  11.806 -0.2377 -0.0506 -0.0277
78474W        W79338  14.494   1.252  15.360 -0.0587 -0.2255 -0.0877
78475W        W79339  15.004   4.710  12.867 -0.2621 -0.2641 -0.1583
78476W        W79340  11.258   3.043  13.949  0.3013  0.2241  0.0430
78477W        W79341  12.058   2.952  13.006 -0.1813 -0.1771 -0.2052
78478W        W79342  12.979   1.486  11.081  0.1692  0.0373 -0.1333
78479W        W79343  13.183   3.347  12.595  0.0953 -0.3588 -0.1244
78480W        W79344  10.020  28.250  15.292 -0.1155 -0.4009 -0.1160
78481W        W79345  11.989   4.175  10.607 -0.0619 -0.0757  0.0364
78482W        W79346  13.096   0.904  11.119  0.0350  0.0532  0.0945
78483W        W79347  11.562   2.643  13.004 -0.0299 -0.3889 -0.0159
78484W        W79348  13.782   0.033  10.672 -0.3102  0.0992 -0.4946
78485W        W79349  12.821   0.165  10.622  0.1829  0.2126  0.1292
78486W        W79350  12.509   0.154  14.184 -0.2686  0.3979 -0.0070
78487W        W79351  12.739   5.315  13.828  0.0535 -0.1122 -0.2007
78488W        W79352  14.597   4.210  13.741 -0.0066  0.0433  0.0909
78489W        W79353  17.406   6.051  12.783  0.2209  0.1793  0.1836
78490W        W79354   8.978   2.539  15.261 -0.1968  0.0396  0.2158
78491W        W79355  14.912   1.876  11.899  0.2472  0.1642  0.2789
78492W        W79356  12.795   1.551  11.939  0.0327 -0.1503  0.0624
78493W        W79357  11.282   1.646  12.731  0.3088  0.1163  0.1004
78494W        W79358  12.607   2.356   9.857  0.0049  0.1301 -0.1930
78495W        W79359  12.735   2.427  10.586  0.1377 -0.0172  0.0296
78496W        W79360  11.768   0.079  12.762 -0.0878 -0.2890  0.0736
78497W        W79361   9.811   5.534   8.497 -0.1604  0.0381  0.3477
78498W        W79362  13.454   2.978  12.705  0.1358 -0.3085  0.0541
78499W        W79363  11.672   3.494  14.609 -0.0587  0.3957 -0.0198
78500W        W79364  12.218   2.671  12.328 -0.2573  0.3320  0.1363
78501W        W79365  10.692   2.605  13.271 -0.2286 -0.1021  0.1022
78502W        W79366  12.185   0.551   9.961  0.1995 -0.0276 -0.1224
78503W        W79367  10.594   0.939  13.767 -0.0631 -0.0935  0.0584
78504W        W79368  16.700  28.430  11.749  0.1955 -0.4540 -0.1103
78505W        W79369  13.473  27.988  12.551 -0.0038  0.1050  0.1006
78506W        W79370  10.027   4.104  14.360 -0.4159 -0.1482  0.4128
78507W        W79371  14.245   1.934  10.087  0.1275 -0.2377 -0.1412
78508W        W79372  15.397   0.638   8.549 -0.1734 -0.0648  0.0106
78509W        W79373  14.409   0.855  11.508 -0.0939 -0.1789 -0.0513
78510W        W79374  11.219   6.520  14.052  0.2157  0.0113 -0.1224
78511W        W79375  14.736   1.671  15.301  0.1058  0.2960 -0.2292
78512W        W79376  11.267   0.692  15.025  0.0036  0.2639 -0.0613
78513W        W79377   9.972   2.396  10.243 -0.0265 -0.1788 -0.2356
78514W        W79378  10.293   2.237  11.073  0.0994  0.2570 -0.0881
78515W        W79379  15.363   1.707  14.456 -0.0447 -0.1251 -0.2503
78516W        W79380  12.505   1.165  12.820  0.2856 -0.1343 -0.4913
78517W        W79381  13.329  28.005  10.747 -0.1767 -0.1197 -0.1101
78518W        W79382  14.313   4.643  10.956  0.2143  0.0220  0.3559
78519W        W79383  14.906   2.917  14.696 -0.1525 -0.1610  0.1867
78520W        W79384  15.134   4.295  13.593  0.0361 -0.0376 -0.0264
78521W        W79385  13.437   2.346  10.756 -0.0821  0.1456 -0.1808
78522W        W79386  15.624  26.718  12.550 -0.1579  0.0183 -0.0794
78523W        W79387  14.762   0.198  12.362 -0.1267  0.5155 -0.1217
78524W        W79388  10.857   2.104  13.495  0.2963 -0.0717  0.2160
78525W        W79389  13.300   2.727  14.456  0.0536  0.1223 -0.3181
78526W        W79390  12.899   1.623  10.159  0.0943  0.2796  0.1405
78527W        W79391  15.763   1.208  10.709 -0.3253 -0.1520 -0.1863
78528W        W79392  15.488   3.255  10.759  0.0818  0.0535 -0.1973
78529W        W79393  11.996   2.314  13.219  0.0255  0.1862 -0.0187
78530W        W79394  10.747   0.173  14.079  0.0392  0.0979 -0.1586
78531W        W79395  15.240   2.813  13.768 -0.1212  0.0286  0.2888
78532W        W79396  10.860   0.498  12.150  0.2361  0.1451 -0.0146
78533W        W79397  11.035   2.923  15.932 -0.2891 -0.1949 -0.3958
78534W        W79398  15.666   4.093  12.964  0.1140  0.1675 -0.3034
78535W        W79399  12.609   2.579  12.642  0.0159 -0.1720  0.0591
78536W        W79400  10.735  28.242  12.722 -0.1542  0.1065 -0.1988
78537W        W79401  11.411   3.108  12.848  0.2373 -0.2174  0.1344
78538W        W79402  14.027   5.957  12.972  0.1978  0.0825  0.0080
78539W        W79403  12.901   0.228  12.473  0.0642 -0.0558 -0.2690
78540W        W79404  13.927   6.118  11.599  0.2104  0.4909  0.2189
78541W        W79405  14.521   5.187  14.686  0.0131  0.1949  0.3361
78542W        W79406  12.381   1.264  14.595  0.2042 -0.0525  0.1176
78543W        W79407  13.572   2.493  12.755  0.0375 -0.1333 -0.1611
78544W        W79408  13.463   4.104  14.217  0.4696  0.2146 -0.0688
78545W        W79409   9.331   3.611  13.244 -0.0742  0.4038  0.0109
78546W        W79410  15.131   2.525  14.360  0.0021 -0.1008  0.0110
78547W        W79411  12.481   6.184  12.957  0.1998  0.1017  0.3807
78548W        W79412  12.249   3.194  12.447  0.0747  0.0892  0.0813
78549W        W79413  12.223  26.910  14.545  0.1902 -0.1301  0.3160
78550W        W79414  14.286   0.089  12.326 -0.2424 -0.1114 -0.0948
78551W        W79415  14.592   2.129  15.833 -0.0064 -0.0810 -0.1435
78552W        W79416  14.829   2.744  12.017  0.0249  0.1173  0.0616
78553W        W79417   7.935   1.989  10.741  0.0667 -0.1440 -0.1879
78554W        W79418   9.940   1.758  16.451  0.0508  0.0782 -0.1451
78555W        W79419   9.837   5.032  17.761 -0.0106 -0.0260 -0.2537
78556W        W79420  16.102   0.783  14.583 -0.0100 -0.0006  0.0231
78557W        W79421  13.575   4.428  15.303 -0.0406 -0.0947 -0.1861
78558W        W79422  10.096   4.010  14.839  0.2129  0.2082 -0.0942
78559W        W79423  14.701   0.825  16.543  0.2138 -0.0911 -0.0614
78560W        W79424  12.261   2.003  15.976 -0.0981  0.1974  0.4658
78561W        W79425  13.834   0.588  16.918  0.1716 -0.1367 -0.1882
78562W        W79426  10.412   3.250  16.960  0.1366  0.1369 -0.1871
78563W        W79427  12.169   1.335  16.889  0.2575  0.0921  0.1801
78564W        W79428  11.054  27.886  18.445 -0.0491  0.0837  0.0818
78565W        W79429  14.221   0.841  17.256  0.1066  0.0191 -0.1471
78566W        W79430  12.819   1.333  14.721 -0.3760  0.5679 -0.1245
78567W        W79431  13.982   3.859  17.161  0.0513 -0.1396 -0.2200
78568W        W79432  10.502   1.665  18.343 -0.1027  0.0237 -0.0713
78569W        W79433  13.413   4.362  16.927 -0.1790 -0.0253 -0.2397
78570W        W79434  13.539   3.853  13.830 -0.1166  0.3785 -0.1724
78571W        W79435   8.039   0.791  17.948  0.3495  0.1399  0.1561
78572W        W79436  12.892   0.499  17.996 -0.0729 -0.0870 -0.0095
78573W        W79437  14.788  28.416  15.787  0.0742  0.1114 -0.3110
78574W        W79438  13.926   4.352  16.911 -0.0820 -0.1861 -0.3997
78575W        W79439  11.923   0.170  16.102 -0.3524 -0.3042 -0.0956
78576W        W79440  12.489   1.633  14.935 -0.0163  0.2329 -0.2559
78577W        W79441  12.646   0.322  16.888  0.0251 -0.0237  0.2711
78578W        W79442  10.074   3.429  14.829 -0.2286  0.0130 -0.1177
78579W        W79443  13.944   2.897  17.380 -0.2730  0.1464  0.1692
78580W        W79444  12.622   2.312  17.109 -0.0263 -0.2383  0.2811
78581W        W79445  10.509   2.794  17.002 -0.2589 -0.0551  0.0041
78582W        W79446  11.577   1.733  16.299  0.1024 -0.1894 -0.0735
78583W        W79447  11.717   2.998  14.801 -0.1735  0.2487  0.0872
78584W        W79448  11.208   0.597  16.931 -0.3460 -0.1315 -0.0058
78585W        W79449  14.611   2.764  17.429 -0.0777 -0.0624 -0.3297
78586W        W79450  13.005   3.418  18.171  0.2015 -0.1143 -0.0996
78587W        W79451  14.619   3.143  15.482 -0.3849  0.2080  0.1463
78588W        W79452   9.746   0.969  14.332  0.0924  0.0540  0.0850
78589W        W79453  14.432   1.053  18.566  0.1833  0.0942  0.0227
78590W        W79454  10.917  27.411  13.245 -0.0143  0.0272  0.2397
78591W        W79455  10.708   0.555  16.890  0.1000 -0.0162 -0.1171
78592W        W79456  16.460   3.292  14.883  0.3708 -0.1376  0.0426
78593W        W79457  15.351   0.313  14.669 -0.0171  0.2315 -0.1005
78594W        W79458  15.110   1.947  15.773  0.0450  0.0220  0.0562
78595W        W79459  14.575   2.905  15.941 -0.1711  0.1492  0.0443
78596W        W79460  12.701  28.880  13.254 -0.0472 -0.0724 -0.1272
78597W        W79461  13.072   0.819  15.808 -0.0792  0.1076  0.4403
78598W        W79462  12.374   1.943  15.298 -0.0420 -0.1316 -0.0969
78599W        W79463  14.950   2.866  15.195  0.3408  0.0969  0.1350
78600W        W79464   9.841   1.685  15.937 -0.3975 -0.0516  0.0809
78601W        W79465  15.092   0.876  18.870 -0.1147 -0.0203  0.0583
78602W        W79466  14.807   1.130  16.094  0.2870 -0.2989  0.0357
78603W        W79467  14.707   2.096  13.332 -0.2476 -0.1302  0.2070
78604W        W79468  12.701   4.147  17.136 -0.0395 -0.0815 -0.2040
78605W        W79469  13.202   1.306  17.667 -0.1603 -0.1568  0.2009
78606W        W79470  11.398   3.816  14.324 -0.2269  0.0449  0.1457
78607W        W79471  14.695   0.929  17.059  0.1157  0.0654  0.0688
78608W        W79472  14.006  28.364  14.455 -0.0470 -0.0722  0.1111
78609W        W79473  13.732   3.419  15.751 -0.0611  0.1445 -0.0421
78610W        W79474  11.998   1.470  16.009 -0.2040 -0.0788  0.1391
78611W        W79475  13.392   1.426  15.294 -0.1682  0.0536 -0.2092
78612W        W79476  13.735   4.254  18.254  0.3328  0.0474  0.0185
78613W        W79477  11.480   1.331  13.750 -0.4227 -0.1278  0.0290
78614W        W79478  14.437  28.962  11.444 -0.1645 -0.1482  0.2594
78615W        W79479   9.005   2.808  16.273  0.1249 -0.3024  0.3952
78616W        W79480  11.457   1.548  17.009 -0.0198  0.1045 -0.0976
78617W        W79481  13.187   0.487  14.662 -0.0116 -0.0933  0.0151
78618W        W79482   9.622  28.839  13.610  0.3515 -0.0962 -0.0009
78619W        W79483  14.261   1.593  14.946  0.0107  0.0880 -0.0689
78620W        W79484  11.173   1.326  13.146 -0.1083 -0.0308 -0.2443
78621W        W79485  13.859   0.036  14.650  0.1002 -0.1821  0.3173
78622W        W79486  13.444   3.005  11.807 -0.0679  0.1956 -0.0386
78623W        W79487  13.944   1.323  15.675  0.0821  0.1963 -0.0771
78624W        W79488  14.449   3.217  17.565 -0.1939 -0.1926 -0.1252
78625W        W79489  13.590   0.363  14.365  0.2138  0.0191 -0.0868
78626W        W79490  13.285   5.000  16.326  0.2599  0.0956 -0.2180
78627W        W79491  14.906   1.339  15.672 -0.1357  0.2766 -0.0494
78628W        W79492  14.115   2.255  16.292 -0.3943 -0.1719  0.1881
78629W        W79493  13.355   1.413  17.095 -0.2702  0.1009  0.2786
78630W        W79494  10.354   0.338  11.593 -0.0674 -0.1960 -0.0726
78631W        W79495  11.652   2.469  17.798  0.2859 -0.0740 -0.3954
78632W        W79496  14.485   2.112  15.113 -0.2325  0.0596 -0.0135
78633W        W79497  15.531   1.183  14.322  0.0664 -0.1421 -0.1479
78634W        W79498  10.026   1.920  18.463 -0.4400 -0.0879 -0.3222
78635W        W79499   8.284   2.414  16.741  0.1569 -0.0525  0.0399
78636W        W79500  12.488   2.813  15.540 -0.1272 -0.1277  0.1297
78637W        W79501  10.604   0.592  16.362 -0.1927 -0.0723  0.3152
78638W        W79502  11.718  28.886  18.266 -0.2573 -0.0873  0.1777
78639W        W79503  16.596  28.966  14.884 -0.2784 -0.2743 -0.0508
78640W        W79504  12.015   2.161  17.285  0.0522  0.1133  0.1425
78641W        W79505  10.000   0.601  19.068 -0.0560 -0.1286 -0.1637
78642W        W79506  14.211   4.266  17.416  0.1790 -0.2175 -0.0763
78643W        W79507  12.107   3.306  17.951 -0.1152  0.4500 -0.0123
78644W        W79508  13.614   1.397  16.315 -0.3407 -0.1828 -0.1975
78645W        W79509  11.581   0.841  18.589 -0.0101 -0.0525  0.1267
78646W        W79510  12.112   2.481  16.805 -0.2823  0.3613 -0.0138
78647W        W79511  13.423   3.811  15.536  0.1771  0.1010  0.4587
78648W        W79512  14.377  28.312  14.878  0.0731 -0.0256 -0.2043
78649W        W79513  15.281   0.637  15.197 -0.1186 -0.1764  0.2706
78650W        W79514  11.693  26.653  13.466 -0.0139 -0.1207 -0.1245
78651W        W79515  13.548   4.648  14.230 -0.0443  0.0420  0.1975
78652W        W79516  11.494   0.450  15.375 -0.2345 -0.0997 -0.4251
78653W        W79517  10.898  28.757  16.326  0.1593  0.0635 -0.0485
78654W        W79518  13.664   1.753  16.676 -0.0374  0.0627 -0.1188
78655W        W79519  10.779   4.453  15.933  0.2114  0.0822  0.2601
78656W        W79520  15.682  28.875  14.049 -0.0697  0.1900 -0.1758
78657W        W79521  15.247   3.275  14.917 -0.3190  0.1643 -0.3805
78658W        W79522  13.846   0.511  17.485 -0.0159 -0.0943 -0.1109
78659W        W79523  10.955   3.010  16.850 -0.0694  0.0806 -0.0203
78660W        W79524  14.359   3.653  14.393  0.1520  0.1712 -0.3524
78661W        W79525  10.393   1.788  16.709 -0.4329  0.1265  0.0396
78662W        W79526  12.345  26.648  14.115 -0.0075  0.0125 -0.1652
78663W        W79527  12.335   2.719  17.221  0.0402 -0.0873 -0.3410
78664W        W79528   9.940   3.087  17.033  0.1784 -0.1428 -0.0824
78665W        W79529  11.657   4.296  15.617  0.0062 -0.0885 -0.3703
78666W        W79530  15.295  28.958  18.995  0.1528 -0.1335  0.0127
78667W        W79531  13.867   3.790  18.162  0.1473  0.2444 -0.2969
78668W        W79532  15.614   2.492  13.551  0.1315  0.0325  0.2355
78669W        W79533  11.199   0.413  15.833 -0.0009  0.3787  0.0828
78670W        W79534  13.473   0.118  17.734 -0.2265 -0.1317 -0.1611
78671W        W79535  13.018   1.480  15.636 -0.2329 -0.0876  0.0620
78672W        W79536  12.987   1.503  14.225 -0.0498  0.0540  0.0858
78673W        W79537  10.455   0.560  12.813  0.1640  0.2512  0.1091
78674W        W79538  13.423   1.908  15.030 -0.2807 -0.3560  0.2223
78675W        W79539  15.395   3.730  14.802  0.0337 -0.3081  0.1488
78676W        W79540  13.938   1.674  17.092 -0.1817 -0.0668  0.4414
78677W        W79541  14.203   2.363  15.639  0.0357 -0.0792  0.1315
78678W        W79542  12.991   3.134  16.307 -0.1776  0.1913  0.0674
78679W        W79543  14.162   4.875  15.787  0.0470  0.2266  0.1875
78680W        W79544  11.529   1.648  15.260 -0.0154  0.2358  0.0028
78681W        W79545  13.236   1.943  16.335 -0.5931  0.1507  0.0030
78682W        W79546  14.361   1.842  16.162 -0.0987 -0.1633 -0.1508
78683W        W79547  11.466   3.652  18.505  0.2991 -0.0051  0.2259
78684W        W79548  13.694   3.244  16.372  0.1308  0.0683 -0.2349
78685W        W79549  10.505   1.084  16.757  0.1049 -0.0262  0.3249
78686W        W79550  11.538   5.325  16.610 -0.1278  0.3478  0.1253
78687W        W79551  15.093   0.264  13.482  0.0775  0.2267 -0.2607
78688W        W79552  13.989   2.119  16.789 -0.1667 -0.1117  0.2111
78689W        W79553  10.865   0.591  17.562  0.2613 -0.0125 -0.1111
78690W        W79554  15.455   0.825  17.279  0.2273  0.1811  0.2304
78691W        W79555  13.741  28.526  17.035  0.1284 -0.0654 -0.1684
78692W        W79556  12.398   3.135  14.184  0.0506  0.2421  0.0194
78693W        W79557  15.155   2.091  11.242  0.1175 -0.1544 -0.2330
78694W        W79558  12.018   0.633  16.414  0.1949 -0.0311 -0.4203
78695W        W79559  10.565  29.114  18.342  0.0485  0.0285  0.2437
78696W        W79560  11.555   2.187  15.502  0.1939 -0.2718  0.2280
78697W        W79561  10.187   0.911  14.692 -0.1976  0.1079 -0.1122
78698W        W79562  11.430   1.958  17.890 -0.0816  0.1854  0.0576
78699W        W79563  13.840  28.088  16.105  0.0049  0.3169  0.0905
78700W        W79564  14.310   0.588  17.743  0.5692 -0.1028  0.1359
78701W        W79565  13.214   5.087  15.816 -0.1548 -0.2382  0.3055
78702W        W79566  14.923   4.545  16.283  0.2769 -0.2028  0.1693
78703W        W79567  10.757   2.114  16.515 -0.0716  0.0551  0.0407
78704W        W79568  14.940   1.982  18.148  0.0050 -0.1084 -0.1090
78705W        W79569  14.028  28.787  14.992 -0.0188 -0.2090 -0.0686
78706W        W79570  11.755   1.602  14.788 -0.1484 -0.1419  0.1134
78707W        W79571  13.819   0.391  13.900 -0.0666 -0.1472  0.0196
78708W        W79572  13.902   0.303  18.102  0.0303  0.1113 -0.0732
78709W        W79573  12.685  27.831  15.922  0.1480 -0.2393  0.0860
78710W        W79574  12.883   3.290  16.807  0.1201 -0.0451 -0.0287
78711W        W79575  13.653   2.381  14.833  0.3253  0.0344  0.2835
78712W        W79576  12.120  29.024  14.433 -0.1796  0.1812 -0.1247
78713W        W79577  14.258   4.329  15.879 -0.0337 -0.1298  0.2957
78714W        W79578  13.671  27.396  15.850  0.0302 -0.3247 -0.0137
78715W        W79579  11.974   3.121  17.360  0.2327  0.0739  0.0333
78716W        W79580  12.485   3.457  18.779 -0.3241 -0.0521 -0.1259
78717W        W79581  13.367   0.983  16.154 -0.1822 -0.1617  0.2231
78718W        W79582  13.113  29.123  18.484  0.1942 -0.0725  0.2457
78719W        W79583  11.867  27.878  16.542 -0.1123 -0.0614  0.0252
78720W        W79584  12.041   2.885  15.294 -0.2805  0.0680  0.0152
78721W        W79585  12.557   1.168  15.128 -0.0404  0.0582  0.1856
78722W        W79586  13.580   2.934  15.943  0.1039  0.0162 -0.0619
78723W        W79587  13.640   2.619  13.619  0.0942  0.1824  0.0799
78724W        W79588  11.866   3.424  15.057 -0.2981  0.1587 -0.1912
78725W        W79589  10.061   3.459  16.602  0.2760  0.0528 -0.1730
78726W        W79590   9.901   2.877  19.087  0.1902  0.3110 -0.2235
78727W        W79591  12.850   3.732  13.516  0.0311  0.0529 -0.1987
78728W        W79592  13.996   0.505  15.963  0.5016 -0.4571 -0.1893
78729W        W79593  15.762  28.895  16.758 -0.1119  0.4669 -0.2017
78730W        W79594  11.661   2.102  14.710  0.2591 -0.3427 -0.3553
78731W        W79595   7.726   1.240  17.337 -0.1053  0.0534 -0.3613
78732W        W79596  10.893   1.919  14.497  0.4477  0.1667 -0.0148
78733W        W79597  13.536   1.001  16.632 -0.2815  0.0119 -0.1325
78734W        W79598  11.869   3.802  15.416  0.2027  0.1790  0.1578
78735W        W79599  13.976   2.370  13.914 -0.2625 -0.0158 -0.1822
78736W        W79600  14.048   1.095  14.693 -0.2374  0.2495 -0.2420
78737W        W79601  10.736  28.999  15.103  0.1260  0.1984 -0.0643
78738W        W79602  14.663  29.135  14.492  0.2583 -0.1115 -0.0362
78739W        W79603  14.096   0.919  15.454  0.2608 -0.0173 -0.1878
78740W        W79604  12.144  27.368  14.840  0.0201  0.0221 -0.0834
78741W        W79605  12.244   0.864  14.871 -0.0424 -0.1224 -0.0784
78742W        W79606  13.792   2.507  14.368 -0.4374  0.4092  0.0220
78743W        W79607  11.635   2.020  13.040  0.1702 -0.0459 -0.1282
78744W        W79608  13.160   3.400  15.220 -0.1074  0.1194 -0.0046
78745W        W79609  11.203   1.339  15.502 -0.0629  0.3503 -0.0033
78746W        W79610  11.479   2.305  18.234  0.1552  0.1769 -0.0899
78747W        W79611  11.367   0.922  18.178 -0.1171 -0.1489 -0.1443
78748W        W79612  10.942  26.262  19.454 -0.3466 -0.1985 -0.3568
78749W        W79613  10.184   0.218  17.209  0.0417 -0.0141 -0.1714
78750W        W79614  13.335  28.276  14.838 -0.1356 -0.1427 -0.0721
78751W        W79615  10.695  28.294  16.213 -0.1402 -0.0385  0.2153
78752W        W79616   9.787   0.546  14.750 -0.1101  0.0255  0.2840
78753W        W79617  14.077   1.156  16.614  0.0373 -0.2014 -0.3878
78754W        W79618  12.964   0.096  15.484 -0.0280  0.3258  0.2581
78755W        W79619  13.372  27.869  17.135  0.1827  0.0332  0.0591
78756W        W79620  15.944   0.350  13.148  0.2614  0.0282 -0.2475
78757W        W79621   9.754   0.354  15.844  0.1862 -0.0459 -0.2485
78758W        W79622  13.190  27.564  15.261  0.0191  0.0815  0.0704
78759W        W79623  13.354   2.062  15.853  0.1286  0.0734 -0.0128
78760W        W79624  11.104   3.283  17.665 -0.1740 -0.2168  0.1458
78761W        W79625  12.925   2.794  15.842 -0.2745 -0.1403 -0.2961
78762W        W79626  15.098   3.894  13.898 -0.1195  0.4710  0.2050
78763W        W79627  11.451   3.956  13.465 -0.3045  0.1296  0.1310
78764W        W79628   9.866   4.668  18.074 -0.1115  0.3912 -0.2385
78765W        W79629  11.182   2.342  16.605 -0.2494  0.1519 -0.3163
78766W        W79630  12.678   1.101  15.644  0.1844 -0.0162 -0.0153
78767W        W79631  15.222  29.118  15.821 -0.1705  0.0500 -0.2153
78768W        W79632  11.775   2.295  15.905 -0.2578 -0.0636 -0.0161
78769W        W79633  15.022   1.159  14.058 -0.0313  0.0742 -0.0967
78770W        W79634  14.885   1.637  14.218  0.2325  0.0537  0.1162
78771W        W79635  12.442   5.135  14.637 -0.0165  0.1978  0.0409
78772W        W79636  12.249   1.698  16.419 -0.4296  0.2188  0.1000
78773W        W79637   9.167   2.840  16.760 -0.2155  0.2667 -0.0456
78774W        W79638  15.721   0.439  17.399 -0.1290 -0.1228  0.1066
78775W        W79639  11.010   2.285  18.020 -0.1682 -0.1244 -0.3556
78776W        W79640  13.584   3.928  18.707 -0.2421 -0.1105 -0.1449
78777W        W79641  11.613   0.783  14.710  0.0436 -0.2017 -0.2577
78778W        W79642  12.984   0.288  13.278  0.0545  0.1082  0.0711
78779W        W79643  13.244   0.906  18.148 -0.1264 -0.2503 -0.1096
78780W        W79644  12.327   0.559  13.924  0.0614 -0.0433 -0.1992
78781W        W79645  12.497   1.626  17.127 -0.2378  0.2363 -0.2336
78782W        W79646  15.061   4.685  12.393  0.0189 -0.0344 -0.1711
78783W        W79647  15.343   2.170  20.271  0.0231  0.1840 -0.1341
78784W        W79648  12.313  28.744  16.180  0.2199 -0.1947 -0.0394
78785W        W79649  12.814  28.561  16.408 -0.1140 -0.1386  0.0778
78786W        W79650  12.243   0.541  15.896  0.0215  0.1501  0.2341
78787W        W79651  15.507   2.301  15.844  0.1286 -0.0690  0.0057
78788W        W79652   9.918   3.229  18.380 -0.3543 -0.0301 -0.0245
78789W        W79653  14.171   3.383  13.841 -0.2062  0.1943  0.1190
78790W        W79654  15.348   0.352  13.941 -0.0893  0.1074 -0.0093
78791W        W79655  14.179   2.324  18.127  0.3507 -0.0608 -0.3315
78792W        W79656  14.359   5.023  15.140  0.0461 -0.0720 -0.2032
78793W        W79657  14.297   4.174  13.253 -0.3141  0.0882  0.0392
78794W        W79658  13.347   0.690  15.167 -0.1259  0.1062  0.2433
78795W        W79659  10.544   3.281  17.495 -0.4064 -0.1001 -0.1706
78796W        W79660  10.088   1.317  16.644  0.0328 -0.1547  0.0325
78797W        W79661   9.882  27.218  16.380 -0.2157  0.2078 -0.3409
78798W        W79662  13.038   1.017  16.570  0.3812 -0.0861 -0.2961
78799W        W79663  12.313   6.675  15.437 -0.3594  0.2760 -0.2788
78800W        W79664  13.042   2.359  16.760 -0.0658 -0.1309  0.3899
78801W        W79665   8.911   2.937  18.319  0.2523  0.2240  0.3465
78802W        W79666  16.477   2.900  13.349  0.1836  0.0744  0.2114
78803W        W79667  14.868   0.325  15.626  0.4043  0.1681 -0.3507
78804W        W79668  12.197   0.131  16.618  0.3997  0.0041  0.0592
78805W        W79669  12.309   4.430  17.063  0.0571  0.1426  0.0255
78806W        W79670  14.145   0.088  15.686 -0.0392 -0.2325  0.0351
78807W        W79671  12.704   4.193  13.153 -0.1000 -0.1147 -0.1893
78808W        W79672  13.326   1.741  11.399  0.1777  0.2492 -0.2138
78809W        W79673  12.444   5.491  17.225 -0.1936 -0.0263 -0.0513
78810W        W79674  13.437  28.320  14.315  0.1040 -0.0562 -0.3592
78811W        W79675   9.448   0.217  17.015  0.0064  0.2266 -0.0626
78812W        W79676  12.854   2.502  14.675  0.2335  0.1882  0.1295
78813W        W79677  13.714   1.980  12.514 -0.3239 -0.0393  0.1074
78814W        W79678  14.128  27.151  15.722  0.1624 -0.2409 -0.4426
78815W        W79679  14.468   2.886  17.930 -0.1491 -0.2004 -0.2114
78816W        W79680  13.744   5.829  17.561 -0.0726  0.0992  0.0570
78817W        W79681  11.857  28.433  18.482 -0.1528 -0.1951 -0.2282
78818W        W79682  12.029   3.519  13.442  0.1954 -0.2035 -0.2469
78819W        W79683  10.270   4.098  16.882  0.3229  0.0658 -0.1438
78820W        W79684  11.644   1.456  14.236  0.1447 -0.1820  0.0395
78821W        W79685  15.426   4.078  15.658 -0.0783  0.0403  0.3019
78822W        W79686  12.876   0.822  14.871  0.2422  0.0968  0.3457
78823W        W79687  14.984  28.739  16.074  0.1492 -0.1067  0.1604
78824W        W79688  12.992  27.973  15.033  0.0911 -0.1007  0.1389
78825W        W79689  14.288   1.382  16.204 -0.0409 -0.0473 -0.3250
78826W        W79690  15.461   0.247  16.984  0.3122 -0.1053 -0.2323
78827W        W79691  10.669   1.174  16.304 -0.2097  0.0195  0.1457
78828W        W79692  14.109   5.326  15.542 -0.3270  0.1715  0.0233
78829W        W79693  14.672   0.073  17.771  0.0716 -0.1725  0.0575
78830W        W79694  11.813   3.220  18.389 -0.0150  0.3655  0.2917
78831W        W79695  10.776   0.558  18.629 -0.0477 -0.0842  0.1630
78832W        W79696  12.789   1.749  16.276  0.1420  0.1801 -0.5134
78833W        W79697   9.242   0.259  15.320 -0.2532 -0.0921  0.1318
78834W        W79698  10.689  28.600  18.195  0.2362 -0.1436  0.2793
78835W        W79699   8.609   2.245  15.127  0.0641 -0.1501  0.0948
78836W        W79700  12.822   2.834  18.027  0.0222 -0.3569 -0.2361
78837W        W79701  10.722   5.747  16.204 -0.0662  0.0898  0.2330
78838W        W79702  13.238   2.446  15.042 -0.0640  0.1468 -0.0154
78839W        W79703  10.961   0.941  16.611 -0.3271 -0.0650 -0.0106
78840W        W79704  15.894   2.523  15.471 -0.0548  0.1214  0.0354
78841W        W79705   8.822   2.479  16.897 -0.0066 -0.0738  0.0125
78842W        W79706  12.368   2.451  15.102 -0.1729 -0.1252  0.2854
78843W        W79707  13.418   5.177  12.623 -0.2259 -0.0323 -0.1234
78844W        W79708  13.970   0.556  14.922 -0.0154 -0.0688  0.0893
78845W        W79709  12.725   1.181  12.272 -0.3242  0.0623 -0.1002
78846W        W79710  16.261   0.686  17.631  0.2315  0.3138 -0.0129
78847W        W79711  13.752   1.864  16.159 -0.0145  0.0050 -0.0122
78848W        W79712  13.276   0.426  15.614  0.1327  0.1732  0.0987
78849W        W79713  14.178   2.950  15.493  0.3783  0.0384 -0.0790
78850W        W79714  14.156   3.310  15.967  0.0312 -0.0066 -0.1698
78851W        W79715  14.642   1.039  13.705  0.0654 -0.0051  0.1677
78852W        W79716  13.983   0.441  16.459 -0.2239 -0.1336  0.0401
78853W        W79717  12.753   3.663  15.389 -0.2330  0.2837 -0.0471
78854W        W79718  10.820   1.922  13.953  0.0417 -0.0545 -0.0279
78855W        W79719   8.806   1.947  19.259  0.3154  0.0628 -0.0752
78856W        W79720  13.061   3.754  19.554  0.0107 -0.1019 -0.2402
78857W        W79721  13.782  28.791  15.500 -0.0786  0.0643 -0.1735
78858W        W79722  13.801   0.673  13.022 -0.1737 -0.4135 -0.4818
78859W        W79723  12.082   1.340  15.107  0.0224 -0.2066 -0.1764
78860W        W79724  14.777   1.415  17.029  0.3230  0.0854 -0.2691
78861W        W79725  11.119   0.838  16.134  0.0937  0.0956  0.0873
78862W        W79726  15.458   0.341  18.195 -0.2225 -0.1171  0.1184
78863W        W79727   9.430   1.956  15.206  0.2202  0.2859  0.1080
78864W        W79728   9.271   0.624  13.536 -0.0550  0.1530  0.3533
78865W        W79729  10.963   4.161  18.013  0.2471 -0.1140  0.0996
78866W        W79730  15.400   0.886  14.734 -0.2468 -0.0737  0.1582
78867W        W79731  14.727   2.448  14.834 -0.0118  0.4007 -0.2579
78868W        W79732  10.081   1.847  17.962 -0.3194 -0.2440 -0.3126
78869W        W79733  12.289   3.034  18.613 -0.0585  0.1398  0.0095
78870W        W79734  12.763   2.072  14.967  0.0249 -0.2504  0.0567
78871W        W79735  13.573   3.329  13.859 -0.0743 -0.1104  0.0668
78872W        W79736  13.605   0.808  14.661 -0.1143 -0.0054 -0.0546
78873W        W79737  13.048   1.104  15.319  0.0872 -0.0104  0.1551
78874W        W79738  11.975   2.036  15.085 -0.0749  0.0822 -0.0139
78875W        W79739  11.879   2.723  13.487 -0.0759  0.4932  0.1743
78876W        W79740   9.265   1.732  17.724  0.3059  0.2460  0.0248
78877W        W79741  11.988   1.393  13.520  0.4511 -0.0165 -0.0998
78878W        W79742  11.224   0.701  12.502 -0.0591  0.0239 -0.3315
78879W        W79743  12.082   2.798  15.783 -0.0662 -0.1562  0.1268
78880W        W79744  12.712  28.007  16.434  0.1491  0.2236 -0.0608
78881W        W79745  11.429   4.756  15.508 -0.1216  0.0034 -0.3622
78882W        W79746  12.081   1.676  12.134 -0.1328 -0.0990  0.2080
78883W        W79747   8.088   2.933  16.405 -0.1610 -0.0020  0.1130
78884W        W79748  12.595   0.654  17.389  0.1551 -0.0445  0.3351
78885W        W79749  13.564  28.823  15.052 -0.0428 -0.1477  0.0743
78886W        W79750  13.099   2.143  18.125 -0.2364 -0.0236  0.0230
78887W        W79751  12.664   5.811  16.472  0.3687 -0.0573 -0.2653
78888W        W79752  14.875   2.145  20.488  0.0134 -0.3656 -0.0316
78889W        W79753  14.607   2.626  15.473  0.2537  0.1883 -0.0031
78890W        W79754  12.103   3.581  14.221  0.0001 -0.0742 -0.0212
78891W        W79755  16.952   3.008  13.560  0.3159  0.0804 -0.1100
78892W        W79756  13.333   2.540  15.783 -0.0020 -0.0566  0.0742
78893W        W79757  16.305  28.500  13.780  0.0871 -0.1154 -0.0335
78894W        W79758  14.081   3.225  15.035 -0.1783  0.0077  0.1458
78895W        W79759  10.830   1.091  15.670  0.1896  0.1402  0.2763
78896W        W79760  11.400  29.032  17.757  0.0026 -0.1723  0.2806
78897W        W79761  13.645   1.241  13.067  0.0157  0.2330 -0.2479
78898W        W79762  13.263   1.156  14.839 -0.0849  0.0057 -0.2082
78899W        W79763  14.078   3.927  16.628  0.2136  0.1493  0.0858
78900W        W79764  11.195   2.353  15.799  0.1732  0.3035 -0.0013
78901W        W79765   9.108  28.561  16.538 -0.4194 -0.3027 -0.0094
78902W        W79766  13.217   1.542  16.604  0.0414  0.0527 -0.0850
78903W        W79767  10.742   1.643  16.256  0.0846 -0.2415  0.1094
78904W        W79768  16.699   2.412  18.347  0.2169  0.3315 -0.2598
78905W        W79769  15.260  28.377  14.708  0.1003 -0.1713 -0.1171
78906W        W79770  16.229   3.087  15.260  0.0528  0.0125 -0.1042
78907W        W79771  12.950   4.661  17.915  0.0609 -0.0398  0.1339
78908W        W79772  13.638   6.980  13.254 -0.1580 -0.0301  0.1421
78909W        W79773  14.139  26.602  13.895  0.0543  0.0802 -0.3545
78910W        W79774  11.987   1.831  14.375 -0.0235 -0.0108 -0.4539
78911W        W79775  13.436  28.865  17.241 -0.2070  0.0994  0.2589
78912W        W79776  12.053   0.320  17.397 -0.0464  0.3250 -0.1160
78913W        W79777  12.686   3.396  14.957 -0.2195  0.3297  0.1139
78914W        W79778  11.236  28.779  16.658  0.0988 -0.1421 -0.1502
78915W        W79779  13.698   1.487  17.518  0.2382  0.0794  0.0273
78916W        W79780  13.574   1.422  11.699  0.1565 -0.0861  0.0086
78917W        W79781   9.451   0.929  15.805  0.2125 -0.0571 -0.2678
78918W        W79782  11.127   2.335  14.719 -0.0153  0.0641  0.1405
78919W        W79783  16.657   1.532  15.227 -0.0857 -0.1266  0.1965
78920W        W79784  15.193   2.729  16.069 -0.0071 -0.2227 -0.0859
78921W        W79785  16.090   4.347  14.986  0.0263 -0.0696  0.0494
78922W        W79786  13.732  27.511  15.350  0.4128 -0.0231  0.3856
78923W        W79787  15.124  27.459  16.612  0.1765 -0.0362 -0.3311
78924W        W79788  11.013   2.283  11.887 -0.0827  0.1805 -0.1084
78925W        W79789  14.756   0.137  16.728 -0.1805 -0.2897 -0.1589
78926W        W79790  12.959   2.266  13.620  0.2891 -0.3980 -0.2131
78927W        W79791  13.478   2.752  19.349 -0.0986  0.0963 -0.3344
78928W        W79792  14.635   2.305  14.327  0.3802 -0.3867 -0.1133
78929W        W79793  14.124   1.164  17.641 -0.0177 -0.2299 -0.0770
78930W        W79794  10.905   1.545  15.184  0.0690 -0.0162  0.2919
78931W        W79795  14.509  28.992  16.385 -0.1224 -0.0682  0.4916
78932W        W79796  11.431   3.221  18.107  0.2378 -0.1314  0.0795
78933W        W79797   9.588  29.001  17.790  0.2176 -0.0613 -0.2088
78934W        W79798  12.104   3.514  16.124  0.1910 -0.1660 -0.0054
78935W        W79799  11.750   0.992  14.195 -0.0002  0.0571 -0.0697
78936W        W79800  10.883   3.109  12.592 -0.2986 -0.0793  0.0385
78937W        W79801  11.491   1.674  17.485 -0.0277  0.1441  0.0558
78938W        W79802  14.520   4.494  14.227 -0.4034 -0.2905  0.0587
78939W        W79803  12.724   0.969  17.734 -0.0283  0.0704  0.2357
78940W        W79804  13.174   5.633  15.603 -0.1645  0.1270 -0.0391
78941W        W79805  12.762   1.920  16.761  0.2459  0.1143  0.1771
78942W        W79806  12.227   4.135  16.628 -0.1764  0.0012  0.0407
78943W        W79807  15.940   3.741  16.058 -0.0580  0.1479  0.1781
78944W        W79808  14.682  28.800  17.095 -0.0665  0.4001  0.2475
78945W        W79809  12.003   4.105  14.251  0.1508  0.0929 -0.2587
78946W        W79810  13.639   3.491  17.022 -0.0263 -0.0643 -0.1236
78947W        W79811  13.192   3.019  14.856 -0.1135  0.1654 -0.2467
78948W        W79812  12.773   4.758  14.819 -0.1494 -0.3027 -0.0595
78949W        W79813  12.494  28.490  17.361  0.1811 -0.0948  0.0036
78950W        W79814  15.392   1.102  15.408  0.0978  0.0188 -0.0675
78951W        W79815   9.852   0.143  18.903  0.0152  0.2912  0.1987
78952W        W79816  13.992   2.012  15.038  0.0793 -0.3126 -0.4275
78953W        W79817  11.166   1.902  16.106 -0.1769  0.2298  0.0702
78954W        W79818  10.914   3.016  20.086 -0.1072  0.3231 -0.0818
78955W        W79819  14.116   0.264  22.906  0.4039 -0.1768  0.0122
78956W        W79820  14.726   0.659  18.568 -0.1666  0.1825  0.0371
78957W        W79821  12.886   4.190  17.787  0.4098 -0.1629  0.3987
78958W        W79822  12.449   3.896  16.254 -0.1444  0.2774  0.2374
78959W        W79823  14.419   1.506  20.499 -0.1143 -0.0808 -0.2187
78960W        W79824  12.452   2.004  17.525 -0.1062 -0.3847  0.4005
78961W        W79825  11.807   2.792  20.839  0.0247  0.0581 -0.2049
78962W        W79826  10.733   0.221  21.836 -0.1555 -0.1460  0.2014
78963W        W79827  13.097   0.766  19.453 -0.0337 -0.1691  0.4342
78964W        W79828  14.151   1.322  18.911 -0.0839 -0.0523  0.1576
78965W        W79829  11.952   3.425  19.376 -0.2987 -0.2899  0.0509
78966W        W79830  15.358   0.130  21.416 -0.0149 -0.0705 -0.2680
78967W        W79831  11.239   1.068  20.167  0.0246  0.2330  0.0560
78968W        W79832  11.683   2.139  22.294  0.2128  0.0907  0.1995
78969W        W79833  10.100  28.985  17.807  0.1621  0.1815  0.1299
78970W        W79834  11.635   2.958  19.367  0.0570  0.1051 -0.1822
78971W        W79835  11.366   0.859  22.356 -0.1075 -0.0685  0.2122
78972W        W79836  15.130   0.551  20.323  0.0127 -0.2991  0.2663
78973W        W79837  14.906   0.678  21.672 -0.0916 -0.0730  0.3984
78974W        W79838  13.181   1.992  21.958  0.0376  0.1437  0.0433
78975W        W79839  11.411   2.670  22.860  0.0402  0.0517  0.0597
78976W        W79840  11.684   3.769  23.085  0.1819 -0.2097 -0.1529
78977W        W79841  10.007   1.902  20.724  0.3854 -0.0102  0.0753
78978W        W79842  11.296   3.312  20.165 -0.3755  0.0996  0.1792
78979W        W79843  15.527  28.801  20.407  0.0267 -0.1623  0.0529
78980W        W79844  11.387   4.116  18.296  0.0623  0.0478 -0.3391
78981W        W79845  14.108   3.439  21.511  0.2515 -0.1118 -0.0986
78982W        W79846  13.135   2.444  21.651 -0.1431 -0.0841 -0.0936
78983W        W79847  12.639   0.274  22.064 -0.1406  0.2748 -0.0726
78984W        W79848  13.821   0.855  18.906 -0.1585 -0.1539 -0.3323
78985W        W79849  12.277   1.932  22.248  0.0380  0.1092 -0.0546
78986W        W79850  11.889   0.703  21.678  0.1045  0.4041  0.0838
78987W        W79851  11.139  28.848  20.894 -0.4915  0.0196 -0.0632
78988W        W79852  13.779   0.820  20.151  0.0514 -0.0759 -0.1628
78989W        W79853  12.310   3.279  19.672  0.2422  0.0456  0.1009
78990W        W79854  10.786   1.269  19.263 -0.0035  0.1469  0.1564
78991W        W79855  16.179   2.006  20.646 -0.1535  0.0094 -0.0336
78992W        W79856  12.271   1.117  17.996 -0.3816  0.1436  0.0686
78993W        W79857  13.776   0.508  15.413 -0.0441 -0.0887  0.0620
78994W        W79858  12.965  28.950  17.346 -0.1165 -0.0753 -0.1970
78995W        W79859  10.560   0.810  21.198  0.2336  0.1698 -0.0333
78996W        W79860  14.783   6.229  19.236 -0.0695 -0.0558  0.0609
78997W        W79861  11.959   3.914  20.251  0.1507 -0.1146 -0.1396
78998W        W79862  13.440   4.384  18.656  0.0466  0.1034 -0.1316
78999W        W79863  12.351   0.388  17.749 -0.0687 -0.1614 -0.1983
79000W        W79864   9.824   3.105  17.893  0.1692  0.0084  0.0613
79001W        W79865  11.316   1.391  17.972  0.0962  0.3734 -0.1412
79002W        W79866  11.456   0.745  16.502  0.2819  0.0549 -0.0095
79003W        W79867  14.372   3.379  20.846 -0.0509  0.2090 -0.1401
79004W        W79868  13.181   0.066  22.732  0.0318  0.2866  0.1215
79005W        W79869  11.233   1.433  21.311  0.1662  0.0957 -0.1092
79006W        W79870  13.282  28.858  15.784 -0.3868 -0.0494  0.2828
79007W        W79871  15.199   0.412  18.690  0.0310  0.3316 -0.1364
79008W        W79872  11.866   1.410  17.852  0.0170  0.2992  0.0721
79009W        W79873   8.798   3.782  19.343  0.0680  0.4187 -0.2542
79010W        W79874  10.864   1.887  18.650  0.0179  0.0560  0.0584
79011W        W79875  10.739   6.870  19.686 -0.0845 -0.0179 -0.2103
79012W        W79876  12.101   3.707  19.783  0.0176  0.0923 -0.0622
79013W        W79877  14.086  28.008  17.688  0.2070 -0.1369 -0.0804
79014W        W79878  12.119   5.421  20.301 -0.2752  0.0506  0.0025
79015W        W79879  10.868   2.100  20.848 -0.1339 -0.1387  0.3421
79016W        W79880  11.239   0.504  18.438  0.0642  0.0996  0.3071
79017W        W79881  13.956   0.822  22.857  0.0352  0.0692  0.0557
79018W        W79882  18.420  25.938  22.694  0.0165  0.0106 -0.4735
79019W        W79883   8.719   1.112  17.298  0.0540  0.0812 -0.0462
79020W        W79884  11.944   1.762  21.297 -0.2864  0.1112  0.0374
79021W        W79885  12.135   2.830  19.451  0.3550 -0.2532 -0.0210
79022W        W79886  11.572   2.511  21.446 -0.0395  0.1791  0.1598
79023W        W79887  12.381   2.117  21.065 -0.2672  0.1716 -0.0245
79024W        W79888  11.484   1.136  18.960 -0.2803 -0.2174  0.0990
79025W        W79889  11.647   0.982  17.759  0.1259 -0.0555 -0.1169
79026W        W79890  14.920   2.876  22.376  0.1024  0.2424  0.1612
79027W        W79891  13.808   3.044  16.853  0.0103 -0.2829 -0.0295
79028W        W79892  14.884   1.408  20.079  0.0231 -0.0292  0.3496
79029W        W79893  11.799   1.555  19.365 -0.1391  0.2746  0.0097
79030W        W79894  10.069   3.189  21.237 -0.0529 -0.2205 -0.4763
79031W        W79895  13.444  28.822  20.911 -0.0333  0.0818 -0.0655
79032W        W79896  11.970   4.598  16.597 -0.0866 -0.0380 -0.1856
79033W        W79897  13.301   3.704  20.817  0.2481 -0.4206 -0.4400
79034W        W79898  13.080   1.317  22.679 -0.0873 -0.2143 -0.3336
79035W        W79899  11.482   2.143  21.810  0.1981 -0.0790 -0.1433
79036W        W79900  16.556  28.019  22.027 -0.0587  0.2454 -0.0484
79037W        W79901  14.114   3.443  19.391  0.2809 -0.0167 -0.1742
79038W        W79902  11.064  28.636  19.010 -0.1396 -0.1564  0.1235
79039W        W79903  13.900   0.296  18.963 -0.0504 -0.0613 -0.1120
79040W        W79904  12.130  27.749  24.341 -0.2529  0.0309 -0.0514
79041W        W79905  14.271   1.842  21.705  0.0555  0.0688 -0.3720
79042W        W79906  14.330   0.054  19.191 -0.0933  0.2483  0.0963
79043W        W79907  15.416  26.602  16.799  0.0983 -0.0281  0.0952
79044W        W79908  10.545   1.094  23.387  0.1382 -0.1271  0.0573
79045W        W79909  10.916   2.662  19.444 -0.1779  0.3067 -0.2842
79046W        W79910  12.003   0.583  19.532  0.0343 -0.0375  0.0958
79047W        W79911  13.285   1.058  22.317 -0.2800  0.0253  0.1518
79048W        W79912  12.620  28.326  16.893  0.0347 -0.4688 -0.2724
79049W        W79913  14.186   2.494  17.663  0.1040  0.0860  0.1269
79050W        W79914  12.921   1.985  23.536  0.0171 -0.0564 -0.0879
79051W        W79915  13.168  27.053  18.461  0.4059 -0.0559 -0.3911
79052W        W79916  12.285  26.537  19.500 -0.0257  0.1233  0.0328
79053W        W79917  14.668   1.877  16.572 -0.0224 -0.1528 -0.1090
79054W        W79918  10.816   4.583  19.995 -0.3300 -0.1150  0.2760
79055W        W79919  14.392  28.495  16.780 -0.0042 -0.0449  0.1692
79056W        W79920  14.465   1.002  23.038 -0.0553 -0.2556 -0.1114
79057W        W79921  13.373   2.464  18.491 -0.0646  0.1767 -0.0341
79058W        W79922  15.276   2.716  21.017  0.0267 -0.2063 -0.0953
79059W        W79923  12.264   2.948  20.895  0.3385  0.0246  0.0159
79060W        W79924  12.066   2.091  22.706 -0.0932 -0.0831 -0.0169
79061W        W79925  14.344  28.881  20.545  0.1610  0.1519  0.0174
79062W        W79926  11.431   2.724  20.143 -0.1449 -0.0251 -0.0589
79063W        W79927   9.137   4.893  19.069  0.1589 -0.1948 -0.0018
79064W        W79928  12.529   4.810  18.731  0.0300  0.0072  0.0794
79065W        W79929  13.566   1.930  17.332 -0.0463 -0.1058  0.3339
79066W        W79930  14.036   2.621  19.574  0.1248  0.0469 -0.1273
79067W        W79931  11.793   1.262  20.036  0.0468  0.0367 -0.1304
79068W        W79932  12.029   1.614  17.419  0.1910  0.1684  0.3208
79069W        W79933  14.090  29.097  20.127 -0.0599 -0.0541  0.3018
79070W        W79934  12.408   1.588  23.186 -0.1111  0.1817 -0.0780
79071W        W79935  12.031   0.006  22.246 -0.6503 -0.0723  0.3393
79072W        W79936  13.302   1.520  20.088  0.0641 -0.0697  0.0647
79073W        W79937  15.485   2.095  18.103  0.1773  0.0733  0.0704
79074W        W79938  12.967   4.290  18.853 -0.0248 -0.2161  0.5040
79075W        W79939  13.190   1.946  21.439 -0.2097  0.0755  0.0832
79076W        W79940  12.125   2.289  18.107  0.3682  0.1125  0.0374
79077W        W79941   9.932   1.984  19.746  0.4630 -0.1263  0.2518
79078W        W79942  15.937   0.203  18.387  0.1073 -0.1845 -0.0451
79079W        W79943  10.148   1.406  18.660  0.0864  0.0573 -0.0724
79080W        W79944   9.927   3.750  20.042 -0.0485  0.1150 -0.3242
79081W        W79945  14.813   3.563  17.619 -0.3634 -0.1092 -0.0558
79082W        W79946  13.012   3.213  23.111 -0.0110  0.1509  0.1048
79083W        W79947  12.018   4.742  20.878  0.2434 -0.1221 -0.0410
79084W        W79948  12.880  27.558  21.634 -0.1857 -0.4264 -0.1115
79085W        W79949  14.306   5.509  24.213 -0.0877 -0.2459 -0.2395
79086W        W79950  15.914  28.596  20.671  0.1473 -0.1387  0.0701
79087W        W79951  13.888   4.861  19.893 -0.3844  0.3280  0.0011
79088W        W79952   8.916   2.388  22.895 -0.1075 -0.0395 -0.1007
79089W        W79953  13.629   1.303  23.166  0.1691  0.2935 -0.1925
79090W        W79954  14.268   2.869  22.378  0.2375  0.1971  0.1262
79091W        W79955  14.140  28.208  19.356  0.0059 -0.1686  0.2177
79092W        W79956  14.787   2.791  18.711 -0.0135  0.1543  0.0449
79093W        W79957  11.181   0.479  19.012  0.0832 -0.1613 -0.1338
79094W        W79958  13.920   1.484  20.709  0.1933  0.0192 -0.0509
79095W        W79959  11.594   2.059  16.906  0.0289  0.0027  0.1373
79096W        W79960  11.185   0.951  17.532 -0.2162  0.1268  0.1731
79097W        W79961  14.309   0.872  23.691  0.0198  0.1204 -0.1259
79098W        W79962  11.830   1.969  20.512  0.0337  0.1731 -0.0595
79099W        W79963  12.521  28.703  15.674 -0.0754  0.0047  0.1006
79100W        W79964  13.384   3.834  18.156 -0.2613  0.0290  0.0574
79101W        W79965  12.326   3.132  19.122 -0.2820  0.0664  0.1959
79102W        W79966  10.708   2.139  21.411 -0.3391 -0.2899 -0.1095
79103W        W79967  12.349   1.270  20.108  0.2039  0.0223  0.3600
79104W        W79968  10.856   1.791  20.446 -0.0389 -0.0277 -0.1656
79105W        W79969  11.515   4.434  19.603 -0.1428 -0.0195 -0.0772
79106W        W79970   8.901   3.613  17.389  0.2576 -0.2066  0.1008
79107W        W79971  13.115   2.657  20.948  0.1419 -0.2259  0.1358
79108W        W79972  11.541   0.559  19.385 -0.3271  0.3866 -0.0841
79109W        W79973  10.570   4.850  24.073  0.3459 -0.1847  0.0084
79110W        W79974  11.299   2.695  17.031 -0.0600  0.0077 -0.0517
79111W        W79975  13.690   2.843  17.932  0.0717  0.1375  0.0985
79112W        W79976  13.442   0.481  18.965  0.0846 -0.0759 -0.1873
79113W        W79977  12.633   1.585  19.097  0.2965  0.0230  0.1110
79114W        W79978  10.678   3.427  20.028  0.0520  0.1961 -0.0099
79115W        W79979  13.574   2.707  21.606  0.0572  0.2481  0.0366
79116W        W79980  14.617   0.699  20.184  0.1189  0.1665 -0.1357
79117W        W79981  14.019   1.321  19.741  0.0835 -0.1561 -0.2120
79118W        W79982  14.093   2.372  19.082  0.2790  0.1508  0.2380
79119W        W79983  10.576   1.262  19.812  0.0128 -0.0020  0.0052
79120W        W79984  10.138   2.401  19.971  0.0609  0.2819 -0.3343
79121W        W79985   9.658   3.781  23.329  0.2109 -0.0688  0.1265
79122W        W79986  11.959   1.214  16.465  0.1009  0.0465  0.1630
79123W        W79987  13.037   3.830  18.583  0.0574  0.2832 -0.0895
79124W        W79988  12.626   1.695  20.683  0.2349  0.2064 -0.0540
79125W        W79989  12.455   2.090  19.839  0.1718 -0.2511 -0.1724
79126W        W79990  10.828   3.545  22.326 -0.2992 -0.1824 -0.0625
79127W        W79991  13.047  28.731  18.191 -0.3601 -0.3768 -0.1477
79128W        W79992  17.369   3.431  17.991  0.0808 -0.0089 -0.2295
79129W        W79993   9.500   3.631  21.939 -0.2408  0.1514  0.1221
79130W        W79994   9.389   1.438  18.864  0.1571  0.0320 -0.2742
79131W        W79995   9.376   1.475  16.096 -0.3460 -0.0382 -0.0860
79132W        W79996  13.183   0.298  23.713  0.2115  0.0540 -0.1763
79133W        W79997  11.272   3.850  19.927  0.0728 -0.1084 -0.1179
79134W        W79998  13.574   4.858  18.610  0.0220  0.0057 -0.0524
79135W        W79999  12.750   2.813  16.960  0.2044  0.0830  0.1955
79136W        W80000  13.597  27.396  22.480 -0.2019  0.0692 -0.1363
79137W        W80001  13.689   2.634  16.470 -0.2086  0.1871  0.0274
79138W        W80002  14.488   3.698  22.468 -0.3167 -0.1507  0.0234
79139W        W80003  11.664  28.537  19.743 -0.1150 -0.1897  0.2100
79140W        W80004   9.082   3.052  17.382  0.0463  0.1563  0.1821
79141W        W80005  13.588   2.195  21.640 -0.0699 -0.1141  0.1279
79142W        W80006  11.125   3.129  19.214  0.2611  0.2670 -0.1397
79143W        W80007  15.118   2.048  17.128  0.1738 -0.0992 -0.1262
79144W        W80008  10.972   3.893  16.913 -0.2160  0.0836 -0.0566
79145W        W80009  13.121   1.107  23.101  0.2361  0.1351 -0.1009
79146W        W80010   9.847  28.329  23.574 -0.0319  0.0687 -0.0957
79147W        W80011  12.619   0.047  18.213  0.0929 -0.1711 -0.1194
79148W        W80012  10.966  28.340  18.592 -0.0303  0.0027  0.0284
79149W        W80013  13.672   0.976  17.548  0.0845  0.2669 -0.2442
79150W        W80014  13.053   0.615  16.812  0.1778 -0.1483 -0.3988
79151W        W80015  11.554   1.348  18.395 -0.2528 -0.4789  0.0044
79152W        W80016  14.520  28.003  20.854  0.0210  0.0671 -0.0777
79153W        W80017   9.252   1.651  19.686 -0.4566  0.3498 -0.1107
79154W        W80018  13.583  28.450  18.884 -0.2933 -0.0735 -0.0484
79155W        W80019  15.519  28.759  21.506 -0.0004 -0.0877 -0.0135
79156W        W80020  11.056   0.214  19.447  0.1182  0.2610  0.1299
79157W        W80021  13.603   2.095  22.333 -0.1525  0.1093 -0.0485
79158W        W80022  10.523   2.640  20.410  0.1830  0.0243 -0.0671
79159W        W80023  11.030   2.389  23.189 -0.1818  0.0219  0.0321
79160W        W80024  16.363  27.137  20.793 -0.2411  0.0168 -0.1749
79161W        W80025  15.837   4.143  17.797  0.0921  0.3023 -0.2228
79162W        W80026  12.880   1.368  16.905  0.0342 -0.2514  0.0432
79163W        W80027  12.756   1.168  22.348  0.0822 -0.0418  0.2307
79164W        W80028  11.277   3.681  23.445  0.1036 -0.1960  0.2728
79165W        W80029  10.725   1.704  19.081  0.2438  0.0574  0.1209
79166W        W80030  14.186  26.911  20.399 -0.0342  0.0786 -0.4007
79167W        W80031  15.931  29.126  20.578  0.2318  0.3611  0.0827
79168W        W80032  13.657   2.446  17.536  0.0435 -0.0980  0.2930
79169W        W80033  13.604   2.998  20.205 -0.1348 -0.1684 -0.0814
79170W        W80034  15.525   3.515  18.467 -0.2545  0.0138 -0.2392
79171W        W80035  15.191  28.610  20.780 -0.0830  0.2192 -0.2891
79172W        W80036  11.454   3.187  23.116  0.0964 -0.0378  0.2766
79173W        W80037  12.915   1.624  17.437  0.0809 -0.0046 -0.1781
79174W        W80038  15.507   0.231  20.500  0.2762 -0.3062  0.2369
79175W        W80039  13.886   3.985  20.120  0.1361  0.1156 -0.1670
79176W        W80040  14.689  28.312  18.500  0.1266 -0.1927  0.0873
79177W        W80041  14.863   3.591  18.437 -0.1272 -0.1883 -0.1828
79178W        W80042  12.621   2.569  21.059 -0.0377  0.1224 -0.1379
79179W        W80043  11.828   2.002  19.619 -0.0831  0.1442  0.3993
79180W        W80044  15.840   0.693  21.041 -0.1648 -0.1773  0.2566
79181W        W80045  14.143   5.408  16.706  0.0784  0.0381 -0.2355
79182W        W80046  15.310   3.293  20.204  0.4432 -0.1713 -0.0798
79183W        W80047   9.711   1.592  18.422  0.1222  0.0973 -0.3278
79184W        W80048  12.197   0.329  20.642  0.0816 -0.0405 -0.2430
79185W        W80049  11.568   5.902  19.127  0.0788  0.0585 -0.1434
79186W        W80050  12.601   0.506  18.652  0.0677 -0.2619  0.1959
79187W        W80051  14.074   1.438  21.983  0.0203 -0.0996 -0.0718
79188W        W80052  13.657   1.404  18.819 -0.1688 -0.0923  0.0109
79189W        W80053  14.802   0.246  20.002  0.1104  0.0351  0.0643
79190W        W80054  14.703   0.284  20.522  0.1491 -0.1168 -0.0838
79191W        W80055  13.695   2.738  20.856  0.1623  0.0863  0.3914
79192W        W80056  12.968   0.787  20.728 -0.0197  0.0999  0.1634
79193W        W80057  13.221   0.150  16.024 -0.0092  0.2112 -0.3558
79194W        W80058  12.634   3.916  23.181 -0.1942  0.1413  0.0307
79195W        W80059  10.785   1.223  21.568  0.1916  0.1811 -0.2658
79196W        W80060  10.548   0.211  17.632  0.1671  0.0880  0.0569
79197W        W80061  14.530   3.482  18.052  0.1190  0.2373  0.0588
79198W        W80062  10.809   3.662  17.715  0.0692 -0.2066  0.0385
79199W        W80063  17.116   2.013  20.049 -0.1704  0.4134  0.3711
79200W        W80064  12.221   4.253  22.591 -0.1970  0.3846 -0.1484
79201W        W80065  15.116   2.663  17.344 -0.3431 -0.0330  0.0660
79202W        W80066  12.376   0.199  21.103  0.3607 -0.0596  0.0451
79203W        W80067  11.187   3.104  22.472  0.1583 -0.1100 -0.1557
79204W        W80068  11.247   2.048  21.146 -0.0388  0.0691 -0.1425
79205W        W80069  12.825   5.416  23.742 -0.1372 -0.2897  0.0310
79206W        W80070  12.583   1.277  18.475 -0.1759 -0.0242  0.0822
79207W        W80071  12.838   2.680  17.487 -0.0193 -0.0992  0.1366
79208W        W80072  12.860   1.743  17.892 -0.0321 -0.1881 -0.1169
79209W        W80073  13.433   0.285  19.543  0.1695  0.0300  0.0188
79210W        W80074  14.778   1.149  20.472  0.0157  0.1194 -0.0466
79211W        W80075  13.389   2.816  17.265 -0.0527  0.2404  0.0850
79212W        W80076  14.441   0.860  18.157  0.3231 -0.0390  0.4226
79213W        W80077  13.787   0.969  23.768  0.1203 -0.1969  0.1795
79214W        W80078  13.178  28.642  19.190 -0.2085  0.0151  0.0756
79215W        W80079  14.096   5.132  22.322 -0.0205  0.1946  0.0506
79216W        W80080  10.060   2.902  20.498  0.1540 -0.0089  0.3556
79217W        W80081  12.814   3.553  20.774 -0.0014 -0.0511  0.1601
79218W        W80082  10.016   2.349  20.452  0.0160  0.1456  0.1311
79219W        W80083  10.632   2.664  17.895 -0.0121 -0.1232 -0.2026
79220W        W80084  12.527   1.469  17.672 -0.0077  0.2490  0.0767
79221W        W80085  13.691   0.814  19.401 -0.1555  0.0472 -0.2154
79222W        W80086  14.585  27.598  19.978  0.1204  0.3448 -0.0644
79223W        W80087  12.609   2.097  18.428  0.3124  0.0405  0.0183
79224W        W80088  14.360  28.979  19.697 -0.2901  0.3790 -0.1175
79225W        W80089  14.289   0.331  19.888 -0.0867  0.1030  0.0817
79226W        W80090  12.205   0.559  22.098  0.0883  0.1196  0.0820
79227W        W80091  17.058   3.364  18.538  0.0388  0.2257 -0.0320
79228W        W80092  12.999   1.480  18.837  0.0172  0.1194  0.3327
79229W        W80093  11.555   1.707  21.621 -0.0303  0.0857  0.0295
79230W        W80094  14.484   2.766  19.366  0.0719  0.0988 -0.0949
79231W        W80095  10.563   1.322  17.950 -0.1418  0.0026  0.3267
79232W        W80096  10.346   2.688  21.246  0.1568 -0.0165 -0.1060
79233W        W80097  10.478   3.502  19.318  0.1792  0.2655  0.0320
79234W        W80098  13.604   0.316  18.495  0.1391 -0.2024 -0.0339
79235W        W80099  10.493   2.847  19.217  0.0718 -0.0309 -0.0887
79236W        W80100   9.190   2.253  20.947 -0.0460  0.0699 -0.1478
79237W        W80101  14.199   1.663  16.618  0.0492 -0.0263 -0.2194
79238W        W80102  17.337  28.700  22.695 -0.3409  0.2983  0.1841
79239W        W80103  13.040   1.988  18.931  0.2489 -0.0857  0.2102
79240W        W80104  10.992   2.937  23.013  0.3545 -0.2644  0.3043
79241W        W80105  17.104   2.923  20.074  0.1926  0.1009  0.2278
79242W        W80106  11.737   3.802  18.140  0.3876 -0.0332 -0.2394
79243W        W80107  13.623   3.549  19.345 -0.2526 -0.0630 -0.0314
79244W        W80108  15.003  28.889  17.564 -0.0182  0.1963 -0.0774
79245W        W80109  14.222   0.011  17.951  0.2128  0.0425 -0.0924
79246W        W80110   8.737   1.363  18.222 -0.0897 -0.0866  0.1131
79247W        W80111  11.469   2.012  18.669 -0.2542  0.0416 -0.2864
79248W        W80112  11.818   1.692  18.850  0.1057 -0.1444  0.0453
79249W        W80113  13.949  28.637  20.738  0.3023  0.3521  0.1057
79250W        W80114  13.078   1.194  21.849  0.0762 -0.1256  0.1475
79251W        W80115  16.496  29.125  18.643 -0.0448  0.0742  0.0514
79252W        W80116  11.546   5.222  17.148 -0.0037 -0.0407 -0.0902
79253W        W80117  13.279   2.958  18.255  0.1642  0.0983  0.2307
79254W        W80118  11.889   4.328  21.550 -0.1880 -0.0774 -0.1464
79255W        W80119  13.758   1.848  19.104  0.1383  0.2660  0.0413
79256W        W80120  11.304  29.109  18.929  0.0009 -0.1298  0.1616
79257W        W80121  13.597   3.956  16.821  0.0864 -0.1700 -0.1464
79258W        W80122  14.155   0.537  20.359 -0.1495  0.0640  0.5103
79259W        W80123  12.095   0.808  17.634 -0.2120 -0.0947  0.0382
79260W        W80124  12.418   1.815  18.056 -0.2654  0.1098  0.1338
79261W        W80125   8.521   4.159  20.378 -0.0126  0.0979  0.0225
79262W        W80126  12.299   1.661  18.724  0.0827 -0.1290 -0.0264
79263W        W80127  13.251   4.160  22.972  0.1826 -0.0864 -0.0289
79264W        W80128  14.177   1.466  18.028  0.1174  0.0280 -0.0736
79265W        W80129  11.682   3.079  20.401  0.2316 -0.3407  0.1097
79266W        W80130   9.951   3.699  20.595 -0.3467  0.0265 -0.1238
79267W        W80131  11.990   2.213  21.461 -0.0057  0.0521 -0.0387
79268W        W80132  10.177   1.086  17.131 -0.2372 -0.0136 -0.1643
79269W        W80133  16.253  29.036  18.170 -0.0419  0.0052  0.0938
79270W        W80134  12.511   0.938  21.960  0.1073  0.0566 -0.0866
79271W        W80135  12.498   1.288  19.563  0.2606 -0.0077  0.3585
79272W        W80136  12.322   3.013  21.418 -0.0063 -0.3279 -0.2650
79273W        W80137  13.552   3.204  17.493  0.0929 -0.3897 -0.2183
79274W        W80138  10.579   0.909  23.985 -0.3016 -0.2361 -0.0780
79275W        W80139  13.509   1.074  21.476 -0.1511  0.1102 -0.0717
79276W        W80140  10.384   1.182  20.680  0.0739 -0.0274  0.3067
79277W        W80141   9.989   1.977  21.790 -0.5080  0.0047  0.0136
79278W        W80142  14.818  28.958  20.838  0.1755  0.0079 -0.1748
79279W        W80143   9.723   2.899  20.118  0.0116  0.1086 -0.3102
79280W        W80144  14.487   0.406  16.409 -0.2593  0.3052 -0.0154
79281W        W80145  10.314   3.028  21.649  0.3257 -0.1236  0.2011
79282W        W80146  14.927   1.516  22.358 -0.2725 -0.0689 -0.0680
79283W        W80147  18.207   1.715  19.694 -0.0619 -0.0616  0.0705
79284W        W80148  14.392   1.256  21.606  0.3757  0.2504  0.1404
79285W        W80149  14.315   3.949  21.025 -0.1624 -0.2736  0.0303
79286W        W80150  15.243  27.623  24.449  0.0243 -0.0077 -0.0980
79287W        W80151  11.539   1.082  19.533 -0.0333  0.5984 -0.0445
79288W        W80152  12.833   2.820  21.462 -0.2258  0.0342 -0.1683
79289W        W80153  14.203   2.528  17.136 -0.0064  0.2476  0.0343
79290W        W80154  12.287   2.318  20.486 -0.0268  0.2912  0.0150
79291W        W80155  16.463  27.481  22.010 -0.3279 -0.1549  0.1275
79292W        W80156  11.045   2.538  21.360 -0.0549 -0.0654  0.5590
79293W        W80157  13.572  28.850  20.372 -0.0556  0.4636  0.0922
79294W        W80158  14.169  28.954  21.679 -0.0279 -0.3263  0.2273
79295W        W80159   9.930   6.130  20.121  0.0547  0.1442 -0.1633
79296W        W80160  13.799   3.054  19.653  0.1616 -0.0395 -0.1754
79297W        W80161  10.875   3.135  21.025  0.3844  0.2105  0.1338
79298W        W80162  10.275   1.412  19.253  0.0960 -0.2300  0.0646
79299W        W80163  10.599   2.110  17.717  0.1687  0.2337  0.2704
79300W        W80164  12.434   2.544  21.624 -0.1136  0.3667  0.1484
79301W        W80165  11.560  28.100  19.697  0.2350 -0.2931 -0.0959
79302W        W80166  14.090   1.802  18.730 -0.0482  0.1524  0.0168
79303W        W80167  13.827  28.820  17.924  0.0678  0.0414 -0.0119
79304W        W80168  14.940   1.162  18.386  0.1107 -0.0587  0.4134
79305W        W80169  12.727   3.207  17.360 -0.0915  0.1609 -0.1403
79306W        W80170  12.271   5.745  19.743  0.4726  0.1122  0.1070
79307W        W80171  10.925   1.392  16.773  0.1502  0.0804 -0.0349
79308W        W80172  10.613   5.128  19.073 -0.5588  0.1578 -0.1181
79309W        W80173  11.319   2.457  20.787 -0.3196  0.0772  0.1896
79310W        W80174  10.961   0.884  21.986 -0.2501  0.0151 -0.1206
79311W        W80175   9.720  28.894  17.266 -0.1839 -0.1488 -0.1215
79312W        W80176  13.186   3.394  17.226 -0.0436  0.1273  0.0027
79313W        W80177  16.090   1.028  22.169 -0.1668 -0.3617 -0.1523
79314W        W80178  13.953   0.074  19.541 -0.3220 -0.1133 -0.4498
79315W        W80179  14.208   1.028  19.306 -0.1430 -0.4677  0.1676
79316W        W80180  11.093   1.976  17.094 -0.1043  0.1217  0.1579
79317W        W80181  12.273   4.368  18.869 -0.1223 -0.0049  0.2849
79318W        W80182  12.535   1.573  21.169  0.0531 -0.3103  0.0796
79319W        W80183  11.831   1.892  23.118  0.1951  0.3621  0.0484
79320W        W80184  14.552   1.299  16.607  0.5567  0.2089 -0.2226
79321W        W80185  16.393   1.250  19.062 -0.0373 -0.1718 -0.2137
79322W        W80186  14.797   4.643  16.873 -0.1934 -0.3186  0.0427
79323W        W80187  17.281   1.217  20.341 -0.0644  0.0379  0.0008
79324W        W80188  15.423   1.301  18.660  0.0862  0.0068 -0.3024
79325W        W80189  14.238   0.957  21.255 -0.1238 -0.0931 -0.0819
79326W        W80190  14.323   2.315  18.639  0.2373 -0.1061 -0.1331
79327W        W80191  12.696   2.219  22.456 -0.2588  0.0529 -0.0189
79328W        W80192  11.911   1.164  20.876 -0.1962 -0.1518  0.3046
79329W        W80193  13.149   1.838  20.473 -0.2711  0.0585 -0.0896
79330W        W80194  13.539   0.632  21.198 -0.0877 -0.2065  0.3444
79331W        W80195  14.922  28.766  18.520  0.0957 -0.0143 -0.0283
79332W        W80196  12.546   2.408  17.908 -0.0143 -0.2285  0.0275
79333W        W80197  10.628   4.595  19.313  0.4397  0.0614  0.0854
79334W        W80198  12.843   1.101  19.843 -0.0864  0.0104 -0.2585
79335W        W80199  13.808   1.837  21.956  0.0981 -0.0301 -0.0617
79336W        W80200  15.129   0.543  19.549 -0.3557 -0.0677 -0.2140
79337W        W80201  13.087   1.520  19.645 -0.0018 -0.1880  0.0250
79338W        W80202  14.338   2.360  20.403 -0.4002  0.1885  0.0404
79339W        W80203  12.890   3.173  20.469  0.3446  0.3489 -0.2606
79340W        W80204  12.343   1.249  20.590 -0.2166 -0.1108  0.1697
79341W        W80205  11.373   1.598  23.126 -0.0912 -0.0934 -0.1410
79342W        W80206  14.075   3.340  17.891 -0.3971  0.2307 -0.1441
79343W        W80207  11.595   0.731  17.262  0.0016  0.2214  0.2760
79344W        W80208  12.038   2.244  19.993  0.0512  0.1385  0.0688
79345W        W80209  11.034   1.456  17.339 -0.1300  0.0277  0.0397
79346W        W80210  12.214   0.638  23.102 -0.2693 -0.0051  0.1315
79347W        W80211  15.631   3.207  16.647 -0.3055  0.0925  0.1785
79348W        W80212  11.706   3.914  23.589 -0.0730 -0.1498 -0.1264
79349W        W80213  11.429   3.522  19.319  0.1646  0.5100 -0.0962
79350W        W80214  12.943   1.030  17.288  0.3026  0.0279 -0.1592
79351W        W80215  11.610   4.615  24.319 -0.0619  0.1210  0.1097
79352W        W80216  11.467   2.696  24.423  0.2435  0.2491 -0.1436
79353W        W80217  14.795   3.224  21.117  0.0623  0.0302  0.1031
79354W        W80218  13.239   3.678  24.386 -0.0899 -0.1872 -0.1664
79355W        W80219  10.629   2.969  22.135  0.0724  0.0850  0.2658
79356W        W80220  13.247  29.004  22.200  0.2663 -0.1314  0.0485
79357W        W80221  11.922   1.184  24.041  0.2216 -0.0472  0.0116
79358W        W80222  12.553   1.868  23.988 -0.4036  0.2426  0.0937
79359W        W80223  13.565   1.421  23.717  0.2381  0.0731  0.0720
79360W        W80224  13.562   0.436  24.105  0.2455  0.1420 -0.1285
79361W        W80225  12.988   2.424  26.039 -0.0687  0.1591  0.0079
79362W        W80226  13.739  28.762  23.329  0.0161 -0.3119  0.0919
79363W        W80227  13.771   2.931  22.072 -0.0037  0.2302 -0.0947
79364W        W80228  13.579   1.310  24.580 -0.4113 -0.0102  0.2919
79365W        W80229  10.254   0.384  21.751  0.1569  0.0197 -0.0482
79366W        W80230  10.312   4.649  25.399  0.0153 -0.1519 -0.3102
79367W        W80231  12.336   4.473  22.147  0.1062 -0.1201 -0.1724
79368W        W80232  10.325   0.276  24.755  0.1638 -0.2140 -0.1440
79369W        W80233  11.718   1.449  25.214 -0.2913 -0.1324 -0.1510
79370W        W80234  12.347   3.410  21.062  0.3884 -0.0572 -0.2490
79371W        W80235  15.835   2.688  22.420 -0.0402 -0.0643 -0.1412
79372W        W80236  13.581   1.702  22.812  0.1739 -0.1081 -0.1190
79373W        W80237  13.374   2.682  24.681  0.0523 -0.0099 -0.0467
79374W        W80238   8.562   4.927  23.491  0.0758  0.0902  0.3408
79375W        W80239  10.667   3.847  24.720 -0.1128  0.1280  0.1539
79376W        W80240  12.820   4.622  25.959 -0.0717 -0.2112 -0.1384
79377W        W80241  12.367  29.069  25.555  0.2877 -0.0374  0.1012
79378W        W80242  10.517   0.878  19.075 -0.0345  0.0309  0.1711
79379W        W80243  13.307   3.898  25.264 -0.3826  0.0789 -0.1004
79380W        W80244  12.041   0.310  24.842 -0.2907  0.0142  0.0625
79381W        W80245  13.203   2.177  23.010 -0.0921  0.1020 -0.0281
79382W        W80246  14.069   5.414  24.632 -0.0315 -0.1019 -0.2124
79383W        W80247  12.092   3.527  24.394  0.1425 -0.1893  0.0786
79384W        W80248  11.852   1.850  24.995  0.0082  0.0521 -0.1033
79385W        W80249  11.741  28.869  27.950  0.1470  0.0275  0.2307
79386W        W80250  13.851   2.591  26.486 -0.0610 -0.1899  0.2572
79387W        W80251  11.867   1.543  22.336 -0.3053  0.2967 -0.1117
79388W        W80252  12.802   2.455  22.895 -0.2326  0.1797 -0.1188
79389W        W80253  16.307   1.654  21.113 -0.0074 -0.2463 -0.1644
79390W        W80254  14.656  27.959  24.427  0.1875  0.2488 -0.5291
79391W        W80255  13.100   0.106  24.261  0.0762 -0.0489  0.1952
79392W        W80256  15.018   3.398  21.986 -0.1560  0.0926  0.0658
79393W        W80257  14.759   3.295  22.840 -0.1662 -0.0602  0.0089
79394W        W80258  14.369   3.128  20.389  0.0525  0.0440 -0.2693
79395W        W80259  10.153   3.352  19.809  0.2766  0.0015  0.0542
79396W        W80260  10.690   3.802  21.551  0.4098  0.0037 -0.0940
79397W        W80261  13.252  29.132  25.454 -0.1030 -0.0311 -0.0056
79398W        W80262  15.679   1.143  23.142 -0.4328  0.0017  0.1921
79399W        W80263  14.124   0.945  22.054 -0.2156  0.0421  0.1899
79400W        W80264  15.851  28.379  21.627 -0.1173 -0.1495 -0.0279
79401W        W80265  11.704   2.016  27.051 -0.2808 -0.2599 -0.0039
79402W        W80266  14.665   2.872  20.757 -0.0645  0.0970 -0.0878
79403W        W80267  13.204   3.267  22.593 -0.0562 -0.0924 -0.0210
79404W        W80268  15.281   1.022  23.957 -0.0861  0.2069 -0.0281
79405W        W80269  15.409  28.940  23.254  0.0321 -0.3880  0.0884
79406W        W80270  10.093   4.833  22.307  0.2983  0.1364  0.0965
79407W        W80271  12.470  28.757  24.221 -0.0361  0.0712 -0.1764
79408W        W80272  13.385   1.587  21.784  0.0371 -0.0992  0.1308
79409W        W80273  10.776   3.313  24.244  0.1920 -0.0146  0.1079
79410W        W80274  12.809   3.463  19.880 -0.0650  0.0837  0.0246
79411W        W80275  14.675   0.258  21.817  0.1442 -0.1119  0.0515
79412W        W80276   9.009   4.835  27.087 -0.0132  0.1017  0.0307
79413W        W80277  12.211   3.750  23.380  0.1202  0.0232 -0.1307
79414W        W80278  12.500   2.237  25.423  0.1205 -0.2664 -0.3018
79415W        W80279  10.768   0.024  22.694  0.2834  0.0836  0.2533
79416W        W80280  15.354  28.325  23.412 -0.1889  0.0585 -0.2321
79417W        W80281  14.009   2.902  22.863  0.2288 -0.0841 -0.0174
79418W        W80282  11.851   0.057  24.279  0.1979 -0.0696 -0.0987
79419W        W80283  11.032   5.000  23.738 -0.1318  0.1889 -0.0217
79420W        W80284  12.523   2.051  22.974  0.2107 -0.1318  0.0265
79421W        W80285  17.695   2.149  23.956  0.0902  0.1858 -0.2647
79422W        W80286  14.150   1.635  24.250  0.1649  0.1324 -0.0112
79423W        W80287  14.542   3.624  21.327 -0.0395 -0.2276  0.1062
79424W        W80288  14.256   0.325  23.814 -0.0899  0.1273 -0.2931
79425W        W80289  13.872   2.275  20.793  0.2428  0.2694  0.0214
79426W        W80290  12.018   0.043  25.244  0.0972 -0.0562 -0.1401
79427W        W80291   8.861   2.871  23.231  0.2751  0.3709  0.1189
79428W        W80292  13.544   4.620  23.026  0.0547  0.0170 -0.3345
79429W        W80293  13.042   0.924  21.257  0.0108  0.1674 -0.1244
79430W        W80294  11.924   3.329  18.862  0.0216  0.1169  0.0378
79431W        W80295  12.498   2.126  26.057  0.0202  0.3437 -0.1520
79432W        W80296  11.256  28.223  26.007  0.0787  0.1539 -0.1531
79433W        W80297  12.790  29.058  24.597  0.0140 -0.0125  0.4240
79434W        W80298  16.013  28.436  22.576 -0.3896  0.0881 -0.2953
79435W        W80299  14.413   0.764  26.519  0.0002 -0.1228 -0.1924
79436W        W80300  15.394   0.578  19.139 -0.2870  0.2224  0.1101
79437W        W80301  14.324   2.546  24.198 -0.0833  0.0447 -0.1941
79438W        W80302  16.142   0.473  26.755  0.0332  0.0873 -0.0137
79439W        W80303  14.008   4.645  23.241 -0.2508  0.0658 -0.1578
79440W        W80304  14.315   1.870  25.454 -0.2703  0.0600  0.0371
79441W        W80305  13.082   0.714  23.429 -0.0472 -0.2332 -0.0401
79442W        W80306  13.892   3.017  23.313  0.2069  0.0534  0.1909
79443W        W80307  11.815   4.517  23.765  0.0251  0.0032  0.3393
79444W        W80308  12.583   3.435  23.288  0.0286 -0.1233 -0.0692
79445W        W80309  12.269   0.421  26.327 -0.0576 -0.4020  0.0345
79446W        W80310  12.309   0.358  25.830 -0.1252 -0.1467  0.0829
79447W        W80311  18.425  28.564  24.006 -0.0928  0.3557  0.1819
79448W        W80312  12.497   7.340  25.067  0.2387 -0.0035  0.0582
79449W        W80313  13.796   0.427  24.585  0.2616  0.1397 -0.1317
79450W        W80314  16.424   0.902  23.013  0.1803  0.0335  0.3458
79451W        W80315  14.314  28.656  19.266 -0.4051  0.1761 -0.1934
79452W        W80316  11.352   1.796  25.270 -0.3757 -0.0898 -0.1812
79453W        W80317  13.667  28.270  20.845 -0.4142  0.0739 -0.1545
79454W        W80318  14.328   2.535  22.764  0.0572  0.0872 -0.0171
79455W        W80319  14.651  28.848  23.986 -0.1161  0.1657 -0.2253
79456W        W80320  15.290   0.725  25.303 -0.4376 -0.1571  0.1095
79457W        W80321  13.663   3.988  22.218 -0.1840 -0.1521  0.0168
79458W        W80322  14.588   2.384  23.750 -0.0586 -0.0854  0.0948
79459W        W80323  15.080  28.779  21.267 -0.1863 -0.1362  0.0733
79460W        W80324  10.340   3.535  23.493 -0.1129 -0.1504 -0.0640
79461W        W80325  12.878   3.200  22.231 -0.2257 -0.2045  0.1230
79462W        W80326  14.082   5.281  22.870  0.2303 -0.3134 -0.0462
79463W        W80327  13.699   2.536  23.238  0.3004  0.0088 -0.2742
79464W        W80328  13.556   0.869  24.322 -0.0997  0.0377 -0.2534
79465W        W80329  17.426   1.341  21.620 -0.0341 -0.0106 -0.2303
79466W        W80330  11.926   1.929  21.926  0.0821  0.1302 -0.0925
79467W        W80331  14.172   0.549  23.283  0.0376  0.5175 -0.0789
79468W        W80332  10.851   3.487  23.773 -0.2221  0.0892 -0.1036
79469W        W80333  13.029   0.670  24.046  0.1931  0.1368  0.1186
79470W        W80334  13.637   0.732  23.287 -0.0865  0.0503 -0.0800
79471W        W80335  16.208   0.410  20.995  0.2609 -0.1547 -0.1517
79472W        W80336  13.415   5.442  21.362 -0.0555  0.1278 -0.0760
79473W        W80337  14.336   4.323  23.002  0.0405 -0.0935  0.1233
79474W        W80338  13.956   2.447  22.373  0.3250  0.0540  0.2111
79475W        W80339  12.094   3.356  24.885 -0.2163 -0.2576  0.2735
79476W        W80340  14.336   1.791  22.300 -0.0943 -0.1236 -0.2889
79477W        W80341  14.662   1.625  24.303 -0.0733 -0.0650 -0.1241
79478W        W80342  15.705   1.005  25.315  0.1999 -0.0540 -0.0263
79479W        W80343  11.660   5.177  26.230  0.0454 -0.0051 -0.2808
79480W        W80344  12.554   3.055  21.885 -0.0715  0.1721  0.1131
79481W        W80345  15.497   3.384  24.847 -0.0434 -0.0750 -0.0311
79482W        W80346  13.450  28.178  28.521 -0.2773  0.1332 -0.1283
79483W        W80347  12.491   2.701  25.180 -0.1091  0.1829 -0.0841
79484W        W80348  14.303  28.469  21.454 -0.0304 -0.1111  0.3640
79485W        W80349  12.894   2.313  25.080  0.0984  0.0712 -0.1141
79486W        W80350  11.821   3.235  26.860  0.1338  0.1184 -0.1396
79487W        W80351  16.342   1.257  22.568 -0.1725  0.2100 -0.3463
79488W        W80352  15.002  26.948  26.679  0.1985 -0.0355  0.3095
79489W        W80353  13.158   4.869  23.825  0.1094 -0.0132 -0.1091
79490W        W80354  13.814   2.729  24.409 -0.3096  0.3462 -0.3149
79491W        W80355  11.100   0.440  22.724 -0.2240 -0.0049 -0.0519
79492W        W80356  13.529   1.607  22.316  0.2297  0.0365  0.2726
79493W        W80357  11.428   4.186  24.039  0.1760  0.0452  0.5754
79494W        W80358   9.915   3.792  22.232 -0.0563  0.1501  0.0172
79495W        W80359  13.265   2.802  24.154 -0.0378 -0.0620 -0.0396
79496W        W80360  12.254  27.949  22.901  0.0635  0.3004 -0.0466
79497W        W80361  14.215   0.512  19.380 -0.1540  0.0056 -0.6299
79498W        W80362  13.937   3.612  23.565  0.3079 -0.2342  0.0437
79499W        W80363  12.351   5.168  21.289  0.0584  0.1959  0.1081
79500W        W80364  13.505   3.067  23.017  0.0314  0.0949 -0.0281
79501W        W80365  12.702   2.726  20.571  0.0110 -0.3065 -0.1905
79502W        W80366  14.275   0.186  21.400 -0.1988 -0.0818 -0.0734
79503W        W80367  10.927   2.327  20.382 -0.2026 -0.0902 -0.3932
79504W        W80368  11.010   0.737  24.372  0.1152 -0.2090  0.1669
79505W        W80369  14.071   2.528  21.874 -0.1307  0.2289  0.0596
79506W        W80370  13.570  28.924  25.094 -0.0810 -0.1495  0.3611
79507W        W80371  14.032   4.014  24.083  0.0793  0.2004  0.0054
79508W        W80372  11.716   1.807  23.916 -0.1916 -0.0400 -0.0995
79509W        W80373  11.069   1.565  20.834 -0.0651  0.0957  0.2652
79510W        W80374  12.762   2.698  24.454  0.2527  0.1040  0.0734
79511W        W80375  13.018   1.188  25.415 -0.1524  0.1561  0.2860
79512W        W80376  14.381   1.353  25.362 -0.2176  0.2121  0.0777
79513W        W80377  14.797   0.753  24.038  0.2533 -0.0524  0.1921
79514W        W80378  12.990   1.695  24.882  0.1319 -0.1761  0.0972
79515W        W80379  14.252   2.296  26.457 -0.1089  0.2803  0.0500
79516W        W80380  12.460   1.925  24.984  0.1042 -0.1400  0.0888
79517W        W80381  12.482  29.072  23.502  0.0120  0.1843 -0.3952
79518W        W80382  12.234   3.739  23.924  0.1269  0.0903  0.1774
79519W        W80383  13.706   4.108  26.408 -0.4233 -0.1432  0.0004
79520W        W80384  10.226   5.970  22.244 -0.1128  0.1238 -0.1743
79521W        W80385  12.986   2.941  25.972  0.2706  0.2281 -0.0298
79522W        W80386  14.504   1.627  23.036  0.0499 -0.2179 -0.3479
79523W        W80387  14.796   1.247  23.890 -0.0636  0.1600  0.0464
79524W        W80388  16.543  29.059  21.852  0.2268  0.5051  0.2988
79525W        W80389  15.342   1.486  21.822 -0.0949 -0.2227  0.1727
79526W        W80390  11.721   2.236  24.565 -0.0059  0.3463  0.1156
79527W        W80391  12.367   3.938  24.594 -0.1185 -0.0907 -0.1195
79528W        W80392  11.867   2.845  24.099  0.0872 -0.0962  0.1016
79529W        W80393  10.747   5.553  22.879  0.0411  0.0039 -0.2029
79530W        W80394  13.322   1.172  24.027 -0.2707  0.0023 -0.0131
79531W        W80395  16.499   4.779  21.696  0.0150 -0.0595  0.1315
79532W        W80396  13.542   2.708  22.557 -0.0842  0.4826  0.2024
79533W        W80397  12.177   2.002  24.561 -0.3513 -0.0410  0.1977
79534W        W80398  12.141   1.688  24.121 -0.4288 -0.2521 -0.0089
79535W        W80399  12.866  28.877  23.829 -0.1040 -0.2419  0.3039
79536W        W80400  14.790   4.229  23.141 -0.2465  0.0334  0.3999
79537W        W80401  14.950   1.657  23.528  0.3294 -0.0562 -0.1425
79538W        W80402  10.146   1.303  23.530 -0.1452  0.4394 -0.0494
79539W        W80403  14.284   3.494  24.992 -0.0813 -0.2119 -0.0111
79540W        W80404  10.834   1.835  25.038  0.0695  0.0311 -0.0472
79541W        W80405  10.969   1.864  23.392  0.0315  0.2885  0.0997
79542W        W80406  10.507   4.529  22.127  0.0026 -0.0697  0.2067
79543W        W80407  11.055   2.398  24.516 -0.0289 -0.1690  0.0775
79544W        W80408  13.320  28.562  23.615 -0.0818 -0.0649  0.3408
79545W        W80409  10.456   2.179  25.118  0.0172 -0.2847 -0.0502
79546W        W80410  12.632   0.631  24.407 -0.0705  0.0469 -0.1621
79547W        W80411  14.921   0.220  22.773  0.1431  0.0952 -0.1358
79548W        W80412  12.147  28.899  26.745  0.1779  0.2949 -0.0929
79549W        W80413  12.098   3.023  23.175  0.0925  0.0857 -0.2539
79550W        W80414  17.270  29.035  24.370  0.2362  0.0632  0.1490
79551W        W80415   9.498   1.959  21.178  0.0545 -0.0313 -0.0211
79552W        W80416  11.810   1.704  24.495 -0.2994 -0.1139 -0.2479
79553W        W80417  14.066  29.128  23.354  0.0012 -0.5728  0.3643
79554W        W80418  10.874   0.231  23.909  0.0546 -0.1092  0.1060
79555W        W80419  13.039   2.938  25.152 -0.1127  0.0484  0.0517
79556W        W80420  10.044  27.902  22.414 -0.0583 -0.0510 -0.4071
79557W        W80421  12.943   3.749  24.783 -0.1176 -0.0603  0.0051
79558W        W80422  12.141   2.617  23.639  0.1571  0.0858  0.0618
79559W        W80423  14.429   2.610  21.519  0.1023 -0.3917 -0.0524
79560W        W80424  12.269   1.107  23.276 -0.1383  0.1893 -0.0209
79561W        W80425  13.359   4.229  25.776 -0.1623  0.2572 -0.0677
79562W        W80426   9.886   3.172  25.056  0.1464  0.1569 -0.6250
79563W        W80427  13.733   2.001  23.333  0.1213 -0.2436 -0.0587
79564W        W80428  14.423  26.283  24.902  0.3132 -0.0876  0.0137
79565W        W80429  17.511  28.568  24.336 -0.0838 -0.2706 -0.1226
79566W        W80430  13.341   0.362  18.087 -0.0096 -0.0808 -0.2864
79567W        W80431  13.555   2.485  22.026  0.1015 -0.2824 -0.1597
79568W        W80432  13.533   0.780  20.615  0.1331 -0.0936  0.1120
79569W        W80433  12.562   2.676  25.974 -0.2276  0.1804 -0.0734
79570W        W80434  10.723   3.696  25.307  0.2007 -0.2531 -0.1300
79571W        W80435  16.357   0.013  27.002 -0.2790 -0.1002  0.1629
79572W        W80436  14.182  28.154  24.383 -0.1560  0.2292 -0.0903
79573W        W80437  11.426   5.360  25.771 -0.0539  0.0742 -0.0396
79574W        W80438  11.671   0.946  23.140 -0.1410  0.2874 -0.3399
79575W        W80439  13.485   4.146  20.597 -0.2375  0.0732  0.2038
79576W        W80440  11.992   3.873  25.842 -0.0140  0.0202 -0.3293
79577W        W80441  14.169   1.361  23.803 -0.2762  0.0022 -0.3001
79578W        W80442  14.147   1.724  24.981  0.2440  0.1794  0.4175
79579W        W80443  11.013   5.015  24.217  0.0364 -0.1793 -0.0099
79580W        W80444  15.919   2.073  22.562 -0.0589 -0.1716 -0.0671
79581W        W80445  12.171  27.685  25.763 -0.1362  0.0894 -0.2135
79582W        W80446  11.312   2.234  26.804  0.0264 -0.1042  0.0728
79583W        W80447  11.765   4.751  21.337  0.1767 -0.5233 -0.0503
79584W        W80448  14.584   4.511  22.558  0.2909  0.3138 -0.1477
79585W        W80449  11.854   0.128  26.516  0.1593 -0.1146  0.3084
79586W        W80450  13.195   3.717  23.888  0.0567 -0.0874  0.0059
79587W        W80451  12.354   1.268  23.757 -0.3094 -0.2425  0.0325
79588W        W80452  12.414  29.054  26.222 -0.1946  0.3207  0.1341
79589W        W80453  14.897   2.466  21.825 -0.2639 -0.2003 -0.0125
79590W        W80454  13.334   3.189  20.746 -0.1248  0.1888 -0.3289
79591W        W80455  14.749   3.552  19.091  0.1063 -0.2081 -0.2564
79592W        W80456  12.169   0.845  25.698  0.2877  0.1370 -0.0315
79593W        W80457  12.193   3.130  23.718  0.0013  0.0924 -0.3094
79594W        W80458  11.870   2.603  22.515 -0.1207  0.3133  0.1179
79595W        W80459  13.909  27.784  23.524  0.0217  0.1049  0.2668
79596W        W80460  11.068   3.405  22.872  0.2764  0.0534 -0.2121
79597W        W80461  16.184  28.907  24.418 -0.0387  0.0618 -0.1057
79598W        W80462  11.092   1.404  25.137 -0.2244 -0.1204  0.0580
79599W        W80463  14.557   2.777  21.985  0.0121  0.1447  0.0118
79600W        W80464  11.326   3.017  21.462  0.0173  0.0268 -0.0112
79601W        W80465  12.120   1.685  25.384 -0.0486 -0.0640 -0.0683
79602W        W80466  11.623   4.019  22.369 -0.0873 -0.2109  0.3705
79603W        W80467  15.450   5.379  26.273 -0.0002 -0.0979 -0.1956
79604W        W80468  12.179   3.015  22.662  0.1566  0.0329 -0.1960
79605W        W80469  14.327  28.769  24.860 -0.3540  0.0563 -0.2846
79606W        W80470  14.883   4.259  24.641  0.1861  0.1216  0.4584
79607W        W80471  14.627  28.481  22.233 -0.0350 -0.1312  0.4561
79608W        W80472  12.144   1.739  26.002  0.0623 -0.1116  0.1073
79609W        W80473  15.447   2.302  22.727 -0.0459  0.2413  0.0790
79610W        W80474  14.575  28.499  24.468  0.3850 -0.0240  0.1141
79611W        W80475  11.548   0.896  25.886  0.0254 -0.2074 -0.0412
79612W        W80476  13.345   2.009  25.086  0.0215 -0.0844 -0.0634
79613W        W80477  13.025   2.441  23.896 -0.1388  0.0071  0.1239
79614W        W80478  13.060   2.394  27.327  0.1664  0.2101 -0.0493
79615W        W80479  12.161   1.010  22.773 -0.1045 -0.0921  0.0927
79616W        W80480  13.931   3.155  24.688  0.1013 -0.0392 -0.2307
79617W        W80481  10.651   3.726  22.835  0.0894 -0.0152 -0.2821
79618W        W80482  15.902   5.595  22.076 -0.3286 -0.1292 -0.2491
79619W        W80483  13.227   1.913  25.932 -0.1358 -0.1643  0.0778
79620W        W80484  14.715  26.965  21.054  0.1514  0.2306  0.1602
79621W        W80485  11.633   0.613  22.788  0.1268  0.0369 -0.1233
79622W        W80486  14.871  27.479  23.658 -0.1448 -0.1357 -0.3537
79623W        W80487  14.478   1.909  25.973 -0.1529  0.0063 -0.1627
79624W        W80488  11.797  28.792  23.862  0.1054 -0.0234  0.0002
79625W        W80489  14.667   2.372  24.553 -0.2223  0.3114 -0.0956
79626W        W80490  12.076  28.908  21.295 -0.1451  0.0580  0.2277
79627W        W80491  10.983   2.939  25.083  0.3782 -0.0008 -0.0469
79628W        W80492   8.174  28.701  23.726 -0.3220  0.0319  0.0200
79629W        W80493  12.110   2.618  21.198 -0.1285 -0.1796 -0.1961
79630W        W80494   9.749   1.778  23.488  0.0314  0.2123 -0.0418
79631W        W80495  13.292   2.315  23.456  0.1093  0.0133 -0.1207
79632W        W80496  14.778  29.133  24.462  0.0478 -0.3183  0.0103
79633W        W80497  12.784   1.322  23.436  0.1985 -0.0176  0.1288
79634W        W80498  12.330   3.896  22.160 -0.0973  0.0984 -0.1330
79635W        W80499  15.940   3.425  22.985  0.4094  0.0405 -0.0021
79636W        W80500  14.390   0.309  24.291 -0.1349  0.2274  0.3478
79637W        W80501  12.742   4.152  22.760 -0.1043 -0.2981  0.1270
79638W        W80502  10.404   4.406  26.383 -0.0864  0.0027  0.2291
79639W        W80503  16.932  28.232  20.917 -0.3658  0.2238  0.0690
79640W        W80504  13.683   0.212  23.181 -0.0528 -0.0713 -0.0463
79641W        W80505  10.836   2.669  20.871  0.1992 -0.0204  0.1001
79642W        W80506  14.774  28.292  23.109 -0.1882  0.0516  0.1943
79643W        W80507  14.044   1.349  22.848  0.0220  0.1614  0.1969
79644W        W80508  11.549   2.375  23.501 -0.1877  0.1950 -0.1780
79645W        W80509  12.591   2.886  23.037 -0.0355  0.2827 -0.1173
79646W        W80510  13.306   1.690  23.281 -0.0885  0.1521 -0.1897
79647W        W80511  13.025  28.752  24.262 -0.2632  0.2830 -0.0982
79648W        W80512  13.831   3.128  21.213  0.1409 -0.6362 -0.0820
79649W        W80513  15.210   0.298  23.177 -0.0909 -0.0698  0.3887
79650W        W80514  10.661   4.330  24.088  0.2286  0.0651 -0.2771
79651W        W80515  12.867   1.372  20.344 -0.0589  0.0146  0.0892
79652W        W80516  13.280   0.822  25.696  0.0146 -0.0496  0.0058
79653W        W80517  12.135   3.867  27.187  0.0141 -0.1193 -0.4146
79654W        W80518  13.963   2.649  21.253 -0.4011  0.2507  0.3312
79655W        W80519  13.221   3.232  23.934  0.1064  0.0575  0.0292
79656W        W80520  13.743   3.127  23.812 -0.0220 -0.1281  0.2282
79657W        W80521  15.555   1.506  24.939  0.0414  0.1389 -0.4447
79658W        W80522  13.843   0.432  23.629  0.0001  0.0492 -0.0327
79659W        W80523  15.304  29.069  22.750  0.1795  0.1876  0.0108
79660W        W80524  12.272   2.915  24.742  0.0915  0.0928 -0.3946
79661W        W80525  12.559   1.641  24.432 -0.2671 -0.0712  0.1413
79662W        W80526  12.039   0.890  23.607  0.0961 -0.1200  0.0561
79663W        W80527  14.450  28.822  23.175 -0.0502 -0.0569  0.2236
79664W        W80528  12.751   5.347  25.503 -0.4148  0.3312 -0.1490
79665W        W80529  11.264   3.209  24.673  0.0147  0.1758 -0.0659
79666W        W80530  11.991   6.047  26.189 -0.0809 -0.2446  0.0696
79667W        W80531  11.418   0.141  22.964  0.1198  0.0505 -0.1010
79668W        W80532  15.434  27.880  20.454  0.2637  0.0823  0.1970
79669W        W80533  12.346   3.512  25.658 -0.0092 -0.1039  0.0317
79670W        W80534  11.323   1.947  24.354  0.0454  0.0743  0.1428
79671W        W80535   8.524   4.020  22.489  0.1542 -0.0682 -0.3260
79672W        W80536  16.831  29.051  21.449 -0.0294 -0.0757  0.3052
79673W        W80537  11.697   1.977  26.219  0.0141  0.0745  0.1985
79674W        W80538  13.093   1.925  22.609  0.2360  0.2427  0.0083
79675W        W80539  12.691   3.338  23.758 -0.2832 -0.0687 -0.3741
79676W        W80540  11.467   1.458  24.252  0.0817  0.0241  0.0823
79677W        W80541  13.157   1.406  21.367  0.2717 -0.2921  0.1191
79678W        W80542   9.283   2.047  22.981  0.1002 -0.0161  0.1507
79679W        W80543  13.814   1.199  22.448 -0.0348 -0.2091 -0.0999
79680W        W80544   9.575   1.767  22.709 -0.1137  0.0822 -0.2876
79681W        W80545  14.036  28.659  25.318  0.1653  0.0046  0.1159
79682W        W80546  16.571  27.968  20.622 -0.0782 -0.2708  0.1823
79683W        W80547  14.429   0.840  24.528 -0.3096 -0.0483  0.0145
79684W        W80548  14.623   0.607  23.460 -0.2701  0.3450 -0.2311
79685W        W80549  11.245   3.621  27.273  0.2953  0.0016 -0.0885
79686W        W80550  14.819   2.988  24.454 -0.1652 -0.2109 -0.3455
79687W        W80551  13.458   4.051  24.749 -0.3164  0.1072  0.1484
79688W        W80552  12.746   2.939  19.571  0.0896 -0.1889 -0.0776
79689W        W80553  13.901   1.559  25.473 -0.0938  0.0496  0.0852
79690W        W80554  13.957   0.108  24.179 -0.0046  0.0296  0.0748
79691W        W80555  11.966   2.818  21.654 -0.2025 -0.0995 -0.3125
79692W        W80556  11.545   0.289  25.221 -0.1972  0.3405  0.2318
79693W        W80557  10.911   2.211  24.106  0.0455  0.0109 -0.1356
79694W        W80558  12.595   2.761  23.981  0.0981 -0.3831  0.1571
79695W        W80559  14.071   1.096  23.280 -0.1134 -0.4287 -0.0226
79696W        W80560   8.700   3.902  22.943  0.0825  0.0258  0.0996
79697W        W80561  11.750   1.788  20.056  0.0221  0.1663  0.4702
79698W        W80562  11.422  28.544  23.535  0.0400  0.0281  0.1454
79699W        W80563  12.480   3.741  22.701  0.1278 -0.1440 -0.0319
79700W        W80564  12.429   0.848  23.995 -0.2056  0.0233 -0.1102
79701W        W80565  14.979   1.605  21.446 -0.1815 -0.2343  0.0063
79702W        W80566  11.866   3.473  22.260  0.0834  0.2120 -0.1650
79703W        W80567  13.507   0.999  22.801 -0.2414  0.3698 -0.3421
79704W        W80568  13.581   5.057  21.587  0.1432 -0.1085 -0.2003
79705W        W80569  10.612   4.006  20.679 -0.0244  0.0416 -0.0938
79706W        W80570  13.403  27.639  23.453 -0.2050 -0.0490 -0.0908
79707W        W80571   9.421   4.009  23.712 -0.2218 -0.0195 -0.0456
79708W        W80572  12.829  27.413   0.703 -0.2538 -0.0304 -0.0616
79709W        W80573  12.909   1.090  26.058 -0.1730  0.2675 -0.2259
79710W        W80574   9.969   3.933  22.729  0.1848 -0.1748 -0.1164
79711W        W80575  12.569   1.429  22.010  0.0527 -0.2168 -0.1257
79712W        W80576  14.565   1.270  23.435 -0.0953  0.3139 -0.1200
79713W        W80577  11.401   2.136  22.939  0.2297  0.1074 -0.0514
79714W        W80578  13.441   2.576  25.890 -0.2210 -0.0823 -0.1489
79715W        W80579  11.244   2.781  23.406  0.0260  0.1542  0.1276
79716W        W80580  13.612   3.938  23.786  0.0555 -0.2012 -0.0469
79717W        W80581  13.935   3.898  20.607 -0.0594  0.3741 -0.1582
79718W        W80582  14.774   2.083  18.659  0.3048 -0.0658  0.1130
79719W        W80583  13.575   0.291  20.391  0.5393  0.1467  0.1808
79720W        W80584  13.904   1.340  21.498  0.0305 -0.2871  0.1631
79721W        W80585  11.135   1.366  21.978 -0.0663  0.1469  0.3110
79722W        W80586  13.560   2.350  21.172 -0.0632  0.1451  0.0373
79723W        W80587  13.035   2.009  19.828  0.1306 -0.0745 -0.2161
79724W        W80588  15.452   3.278  22.882  0.0690 -0.1502  0.2843
79725W        W80589  14.092   1.058  20.512 -0.3129  0.1477 -0.0884
79726W        W80590  13.280   2.234  26.532 -0.0980 -0.2156  0.0897
79727W        W80591  10.864   1.704  23.949  0.0608  0.0839 -0.1025
79728W        W80592  15.040   3.545  25.270  0.1319 -0.1839  0.2299
79729W        W80593  15.532   1.996  23.104  0.1055 -0.2136 -0.2116
79730W        W80594  11.035   2.232  25.212  0.0449  0.0968 -0.1899
79731W        W80595  11.894   2.527  22.999 -0.0675  0.1678  0.0450
79732W        W80596  11.811   3.152  24.506  0.1773 -0.3611 -0.0120
79733W        W80597  11.785   0.367  23.192 -0.0955  0.0745  0.0710
79734W        W80598  15.107   4.969  22.879 -0.2836 -0.0305  0.0701
79735W        W80599  15.520   1.317  23.620  0.1897 -0.1060  0.0105
79736W        W80600  13.107   0.584  26.547  0.1479  0.1083 -0.2606
79737W        W80601  13.315   1.354  20.563  0.2415 -0.1991  0.1495
79738W        W80602  13.597   2.037  25.589  0.0224 -0.2576  0.1477
79739W        W80603  13.919   2.222  25.231  0.1927  0.1462  0.0087
79740W        W80604  13.381   1.932  23.764 -0.2643  0.0484  0.4870
79741W        W80605  12.850   3.299  25.666 -0.0553 -0.2875 -0.1135
79742W        W80606  10.239   2.760  25.171  0.0457 -0.3375 -0.0499
79743W        W80607  12.383   2.533  22.650  0.0833 -0.4731 -0.0455
79744W        W80608  13.784   3.752  24.559  0.1534 -0.4389  0.2929
79745W        W80609  12.382   4.941  22.285  0.0024  0.0510 -0.1166
79746W        W80610  14.117   1.604  23.377 -0.1434  0.1096  0.1736
79747W        W80611  11.009   2.278  21.795 -0.0818  0.1330 -0.2885
79748W        W80612  10.803   0.315  25.688 -0.0622  0.3938  0.0262
79749W        W80613  13.676   4.915  22.598 -0.0051  0.3437  0.0218
79750W        W80614  11.623   3.499  19.850 -0.0344 -0.2701  0.1954
79751W        W80615  10.685   5.671   1.319 -0.0882  0.1772  0.1899
79752W        W80616  13.096   0.839  28.598  0.2665 -0.0706  0.0761
79753W        W80617  12.303   2.456  23.220  0.0078 -0.0793 -0.1554
79754W        W80618  16.700   5.242  26.142  0.0049 -0.2159 -0.0949
79755W        W80619  12.834   3.748  25.441 -0.0944 -0.1244  0.0144
79756W        W80620  11.860   2.413  28.583 -0.1312  0.2920 -0.1645
79757W        W80621  11.312  29.054   0.464 -0.3899 -0.0105  0.0383
79758W        W80622  13.836   2.703  24.935 -0.0757 -0.1569 -0.0846
79759W        W80623  12.725   4.365  27.372 -0.0950 -0.4205 -0.4291
79760W        W80624  11.173   0.778   1.227 -0.1478  0.1569 -0.1785
79761W        W80625  11.522   1.393  26.100 -0.1463 -0.0678 -0.1779
79762W        W80626  16.047  28.645   0.412  0.1816  0.1088  0.0189
79763W        W80627  14.642   0.491  28.019  0.0278  0.0048 -0.2313
79764W        W80628  15.141   0.198  28.178 -0.3180  0.0208 -0.0689
79765W        W80629  12.152  28.603  26.306  0.3283 -0.1576 -0.1352
79766W        W80630   9.826   4.625   1.894  0.0423  0.1151  0.2396
79767W        W80631  12.057   3.430  26.148 -0.2094 -0.1736  0.1208
79768W        W80632  12.972   1.456  26.822  0.1191 -0.2046 -0.4209
79769W        W80633   7.973   0.452   0.596  0.1695 -0.1438 -0.2562
79770W        W80634  14.816   0.261  23.980 -0.0660 -0.0692  0.5741
79771W        W80635  12.857  28.643  28.955 -0.0718 -0.3495 -0.4453
79772W        W80636  12.579   2.153  27.142  0.2107  0.0152 -0.0093
79773W        W80637  14.017   2.398  26.950  0.1102 -0.3480  0.0102
79774W        W80638  11.975   2.387  29.122  0.0356 -0.0425 -0.0671
79775W        W80639  11.555   0.581  26.553 -0.0385  0.3154  0.1995
79776W        W80640  10.541   1.121   0.990  0.2740 -0.0410  0.2304
79777W        W80641  14.333   2.727  27.766  0.2446  0.0664  0.1660
79778W        W80642  15.334   2.850  26.574 -0.0856 -0.0543 -0.1069
79779W        W80643  12.257   0.667  28.876 -0.0779  0.4935  0.0087
79780W        W80644  14.043   2.079  25.803 -0.0748  0.1523  0.0367
79781W        W80645  14.216   4.378  28.010 -0.3002  0.0958  0.1735
79782W        W80646  16.201   1.414   0.654 -0.2977  0.0788 -0.1807
79783W        W80647  13.197   1.873  27.355 -0.1000  0.0086  0.1019
79784W        W80648  10.386  28.367  28.662 -0.0329  0.3820  0.1899
79785W        W80649  14.769   2.129  28.282  0.1846 -0.3928 -0.0202
79786W        W80650  12.812   0.002  25.764 -0.2749 -0.1021 -0.0616
79787W        W80651  12.402  27.873  26.171 -0.0819  0.1430  0.0341
79788W        W80652  15.854   2.449  25.393  0.1338  0.3002  0.2472
79789W        W80653  13.479   1.559  26.944  0.0204  0.1317 -0.0601
79790W        W80654  13.567   0.374  25.567 -0.1481 -0.0274  0.0972
79791W        W80655  16.471  28.930  28.399  0.0814 -0.2608 -0.2707
79792W        W80656  15.328   6.333  28.146 -0.3529  0.3921 -0.1308
79793W        W80657  15.350   4.289  24.779 -0.1890  0.4149  0.1007
79794W        W80658  12.021   2.933  25.925 -0.0614 -0.1138  0.0966
79795W        W80659  14.682   3.765  28.183  0.0708 -0.0055 -0.1315
79796W        W80660  10.003   0.904   0.961  0.0784  0.0971  0.3081
79797W        W80661  12.477   0.730  28.423  0.3488  0.0949  0.0468
79798W        W80662  13.858   0.727  25.418 -0.0089  0.2012 -0.2482
79799W        W80663  15.565   0.229  24.940  0.2464  0.2044 -0.1307
79800W        W80664  14.712   2.992  27.637 -0.2936 -0.0598  0.2753
79801W        W80665  11.886  28.995   1.648  0.2714  0.1346  0.0950
79802W        W80666  14.916   2.901  26.903  0.3145  0.1812  0.0505
79803W        W80667  13.851   1.322  26.741 -0.1378 -0.1316  0.0123
79804W        W80668  14.025   1.295  27.227  0.3193  0.0428 -0.1687
79805W        W80669  11.638   1.744  28.072 -0.1614  0.1920 -0.0660
79806W        W80670  10.379  28.062  26.305 -0.0454  0.1032  0.1102
79807W        W80671  12.784   1.060   0.298  0.1294 -0.1590 -0.0766
79808W        W80672   8.909   3.309  26.351 -0.0865 -0.1730 -0.0189
79809W        W80673  12.215   1.530  28.231 -0.1019 -0.0026  0.0174
79810W        W80674  13.546   0.529  26.858 -0.0342  0.1542 -0.1405
79811W        W80675  10.098   4.129  26.106 -0.0521 -0.2119  0.2799
79812W        W80676  12.851   3.202  28.376  0.0469 -0.0389 -0.0986
79813W        W80677  11.661   2.377  25.891 -0.0807  0.0352  0.0729
79814W        W80678  12.868  29.148  28.840  0.0912 -0.0944  0.3596
79815W        W80679  15.850   0.916  26.711 -0.1819  0.0028  0.0832
79816W        W80680  13.273   2.967  25.551 -0.0647  0.3538 -0.0540
79817W        W80681  10.795  29.141  24.813  0.1888  0.0311  0.2465
79818W        W80682  10.545   3.192  25.298 -0.3528 -0.0193  0.2341
79819W        W80683  13.960   2.913  27.492 -0.0666 -0.0325 -0.1122
79820W        W80684  12.514   3.218  27.963 -0.2032  0.1756  0.5438
79821W        W80685  13.064   1.443  24.485 -0.3559 -0.0246  0.0061
79822W        W80686  15.760   0.707  24.886  0.0852 -0.2536  0.2643
79823W        W80687  11.627   2.378  25.331 -0.1370 -0.0127  0.0984
79824W        W80688  14.108   3.067  24.139 -0.0099  0.0122  0.0423
79825W        W80689  13.892   0.801  28.633  0.0676 -0.2807 -0.2887
79826W        W80690  10.862   0.929  25.781  0.0152 -0.0836 -0.2306
79827W        W80691  12.639   4.144  28.918  0.0601  0.3002 -0.1608
79828W        W80692  15.747   2.987  23.183 -0.2236 -0.0667 -0.2337
79829W        W80693  15.291   0.625  24.673 -0.0870 -0.1107  0.0330
79830W        W80694  11.284   2.118  25.627  0.2530 -0.0032 -0.0643
79831W        W80695  12.679   0.256   0.084  0.1282 -0.0007  0.0867
79832W        W80696  13.191   1.572  27.748 -0.0127  0.1057 -0.0675
79833W        W80697  13.973   2.937  26.877 -0.1285 -0.3016 -0.0924
79834W        W80698  11.079   1.203   0.929  0.0625  0.1658 -0.1040
79835W        W80699  15.228   0.550  24.118  0.0398 -0.3497 -0.1604
79836W        W80700  15.453   0.458   0.263  0.0851  0.2667  0.1017
79837W        W80701  14.173  26.298  28.034  0.1658 -0.0545 -0.1795
79838W        W80702  15.381   1.052   0.328 -0.0396 -0.2479  0.1877
79839W        W80703  14.034  28.927  27.555  0.0388  0.2586  0.1850
79840W        W80704  12.599  28.655  26.526  0.2607  0.1657  0.2654
79841W        W80705  13.756   0.219  27.811 -0.0550  0.0651  0.1474
79842W        W80706  12.498   4.079  26.788  0.1408  0.1637 -0.2358
79843W        W80707  12.873  29.118  27.836 -0.0996  0.2474 -0.1032
79844W        W80708   9.934   1.897   3.785 -0.0727  0.1243  0.0717
79845W        W80709  13.175  28.124  25.971  0.2169 -0.4862 -0.1665
79846W        W80710  16.192  27.814  26.725 -0.0971  0.2158 -0.0216
79847W        W80711  13.183   1.186   1.113 -0.1283 -0.0284 -0.1111
79848W        W80712  11.239  28.561  26.407  0.0360 -0.2269  0.0320
79849W        W80713  15.647   1.393  27.686  0.4709 -0.0879  0.4344
79850W        W80714  16.738   5.960  25.152 -0.1901 -0.1771  0.1006
79851W        W80715   9.276   0.999  28.486  0.0093  0.0021  0.1969
79852W        W80716  13.478   1.749  26.424 -0.0002  0.0577 -0.2994
79853W        W80717  14.424   2.574  25.987 -0.2905  0.1410  0.1146
79854W        W80718  15.931   0.362  29.112  0.2368 -0.0622  0.2600
79855W        W80719  13.146   1.509  28.219  0.0134  0.0487 -0.0487
79856W        W80720  14.150   0.024  26.315 -0.2092  0.1400 -0.1546
79857W        W80721  13.850   3.150   3.547  0.1750 -0.2766 -0.0022
79858W        W80722  13.615   0.108  29.036  0.0574 -0.1557 -0.1138
79859W        W80723  12.685   0.020  26.683  0.0684  0.2402  0.1776
79860W        W80724  10.969   1.654  26.981  0.1551 -0.0297 -0.0130
79861W        W80725  14.109   4.215  26.066 -0.3185  0.0500 -0.1136
79862W        W80726  13.160   3.382   1.911  0.0418  0.0749 -0.0247
79863W        W80727  13.184   3.441  28.088 -0.3902  0.0237 -0.1435
79864W        W80728  14.665   1.817  25.079 -0.0478 -0.1706  0.0351
79865W        W80729  13.065   2.568  26.804  0.2779 -0.2355 -0.0702
79866W        W80730  15.714  28.672  28.579  0.0787  0.0912 -0.1997
79867W        W80731  12.712   0.378   1.603  0.0911  0.2869  0.3032
79868W        W80732  11.850   0.212  27.996 -0.1316  0.2253 -0.0285
79869W        W80733  13.024   1.895  24.237  0.0858  0.2022  0.1778
79870W        W80734  14.227   1.532  25.837 -0.1543  0.1013 -0.2102
79871W        W80735  14.406   1.909  24.612 -0.0330  0.3759  0.1845
79872W        W80736  14.106   1.788  26.880  0.3560  0.0390 -0.1026
79873W        W80737  13.884   1.782  23.824  0.1860 -0.1429 -0.2051
79874W        W80738  13.592   1.630  24.201  0.2604  0.1725  0.1417
79875W        W80739  13.418   0.128  28.169  0.1880 -0.1571  0.1597
79876W        W80740  10.155   0.974  26.302  0.1530 -0.0642  0.3262
79877W        W80741  13.423   1.232  25.869  0.1821 -0.0810  0.0429
79878W        W80742  14.480   4.089  26.357 -0.0146 -0.0882 -0.0727
79879W        W80743  14.394   3.714  26.742  0.0025 -0.1378 -0.3058
79880W        W80744  16.055   2.272  27.620 -0.1468 -0.0349  0.0468
79881W        W80745  15.254  28.476  28.484 -0.3555  0.1487 -0.0959
79882W        W80746  12.457   2.196  27.910  0.1064 -0.1202  0.1672
79883W        W80747  14.191   1.017  26.151 -0.0691  0.0414  0.1476
79884W        W80748  13.656  29.026  27.238  0.1793  0.1472  0.1300
79885W        W80749  10.754   1.336  27.598 -0.1815  0.0983 -0.3115
79886W        W80750  12.970   1.529  25.822 -0.1374 -0.1598  0.2634
79887W        W80751  13.021   0.906   0.731 -0.2240  0.0882  0.3151
79888W        W80752  12.172   1.861  27.176 -0.1065 -0.0871  0.4317
79889W        W80753  13.725   1.686  25.939  0.1041 -0.0288 -0.3818
79890W        W80754  10.548   3.364  25.765 -0.2439  0.3297 -0.2240
79891W        W80755  11.645  28.371  27.614  0.2241 -0.2269  0.2770
79892W        W80756  12.443   3.845  26.295  0.1673  0.2773  0.0705
79893W        W80757  13.525  27.455  24.335 -0.0959  0.1349 -0.0726
79894W        W80758  15.792   1.764   0.773  0.0773  0.2625 -0.1491
79895W        W80759   9.802   0.978  24.899 -0.0903  0.0373 -0.1804
79896W        W80760  13.819  25.234  23.765  0.0223  0.0050  0.0196
79897W        W80761  14.084   4.521  26.604 -0.1530  0.1907  0.1024
79898W        W80762  12.962   4.263  27.790 -0.1631  0.2382  0.0410
79899W        W80763  15.455   3.441  26.464  0.4240  0.2895 -0.2264
79900W        W80764  13.445   2.072  26.954 -0.2019  0.1782  0.1796
79901W        W80765  11.191   0.118  27.389 -0.2015 -0.2779  0.2843
79902W        W80766  14.334   4.225  26.911 -0.2592  0.0847  0.4333
79903W        W80767  11.728   0.665  24.972  0.2135 -0.1248 -0.0966
79904W        W80768  10.322   0.743   1.350  0.2283 -0.3561  0.0169
79905W        W80769  12.567   0.372  27.841  0.0458  0.1996 -0.0492
79906W        W80770  11.519   0.274  26.094 -0.1757 -0.3045  0.0346
79907W        W80771  13.734   4.366  25.096 -0.0136 -0.0148  0.1760
79908W        W80772  12.109  28.376  27.277 -0.0243 -0.2289  0.1187
79909W        W80773  12.547  29.112  27.131  0.0745  0.1875  0.1847
79910W        W80774  13.642   2.386  27.340 -0.0432 -0.2001 -0.2743
79911W        W80775  11.145   1.574  28.859 -0.3396 -0.1613 -0.0124
79912W        W80776  10.933   1.933   2.036  0.0034 -0.1162  0.1628
79913W        W80777  13.183   0.287   0.072 -0.0548  0.0888  0.0642
79914W        W80778  13.747   0.657  27.904 -0.3265 -0.0098  0.1946
79915W        W80779  12.555   2.083   1.589 -0.0392  0.1086 -0.2110
79916W        W80780  10.509   0.876  27.528  0.1332  0.0083 -0.1753
79917W        W80781  12.014   3.015  25.230  0.0826 -0.3727 -0.1166
79918W        W80782  12.721   3.309   1.624  0.1962  0.3095  0.0033
79919W        W80783  12.086   4.759  25.960  0.1051  0.2126  0.1533
79920W        W80784  12.726   2.146  28.301  0.0913 -0.2913 -0.0897
79921W        W80785  12.034   2.150  25.619  0.2350  0.0484 -0.1283
79922W        W80786  12.150   1.791  27.776  0.0764 -0.1591  0.1350
79923W        W80787  12.519   3.160  26.085  0.1238  0.3236 -0.2580
79924W        W80788  15.151   2.737  27.526  0.0931  0.1456  0.2254
79925W        W80789  15.488  28.271  27.216 -0.1059  0.1904  0.1498
79926W        W80790  12.008   3.381  27.878  0.0065 -0.1533 -0.0774
79927W        W80791  13.546   1.707  28.497 -0.1981  0.2978 -0.1997
79928W        W80792   7.322   3.788  26.779  0.0011 -0.3049 -0.3013
79929W        W80793  12.308  29.041  27.869 -0.0494  0.1067  0.1737
79930W        W80794   9.610   4.242  27.575 -0.3861  0.4233 -0.1264
79931W        W80795  14.539   3.934  24.419  0.3495  0.0299  0.2554
79932W        W80796  13.246  29.093  23.367  0.2980 -0.0103  0.2247
79933W        W80797   8.299   2.618  26.312  0.0837  0.0383 -0.1716
79934W        W80798  13.165   2.235  25.529  0.1141 -0.0458 -0.0411
79935W        W80799  10.954   1.984   0.497 -0.3758 -0.0726 -0.2073
79936W        W80800  15.054  28.780  25.415 -0.0569  0.1658 -0.1016
79937W        W80801  13.407  28.137  27.436  0.3704 -0.1250  0.1151
79938W        W80802  13.926   1.234  28.014  0.3182 -0.1885 -0.4514
79939W        W80803  13.568   2.111  27.761  0.1517 -0.0372  0.5352
79940W        W80804  10.996   4.132  23.800 -0.4454  0.2899  0.0946
79941W        W80805   8.639   5.642  27.428 -0.1430 -0.1187  0.0434
79942W        W80806  13.895  28.094  28.210  0.0926 -0.1457 -0.0156
79943W        W80807  10.999   1.443   2.282  0.3090  0.2541  0.3429
79944W        W80808  12.729   0.421  28.715  0.0441 -0.1958 -0.1326
79945W        W80809  14.235   2.433   0.056  0.3505 -0.0301  0.0916
79946W        W80810  13.376  28.331  28.027  0.1162  0.2679  0.0584
79947W        W80811  12.929   1.802  25.376 -0.2731  0.0179 -0.1730
79948W        W80812   9.516   2.560  26.003 -0.2094  0.2282  0.1424
79949W        W80813  11.515   0.980  27.764 -0.0094  0.1648  0.0574
79950W        W80814  12.186   0.647  25.258  0.0547 -0.1847  0.1341
79951W        W80815  13.817   2.505  27.858 -0.4142  0.0764  0.0298
79952W        W80816  14.837   0.801  24.877 -0.3393  0.2942 -0.0648
79953W        W80817  10.924   1.856  27.434 -0.2729 -0.0661  0.4565
79954W        W80818  11.990   1.054  27.986  0.0004  0.0096  0.1670
79955W        W80819   9.717   1.199  26.522 -0.2360 -0.2219 -0.1016
79956W        W80820  12.709   2.677  28.084 -0.1181 -0.1786  0.0280
79957W        W80821  15.349   1.518  27.230  0.2153  0.2345 -0.1781
79958W        W80822  11.950   6.210  26.679  0.0875 -0.0962 -0.1611
79959W        W80823  11.891   3.379  24.002 -0.2321  0.3571 -0.2073
79960W        W80824  12.342   2.219   0.529 -0.3130 -0.1593 -0.0160
79961W        W80825  10.983   3.948  28.879 -0.0329  0.0612  0.2237
79962W        W80826  13.795   2.453   1.617  0.1928  0.1648  0.2325
79963W        W80827  16.370  26.717  28.997  0.0719 -0.4769 -0.3447
79964W        W80828  16.197   4.712  27.914  0.1740  0.0546 -0.2558
79965W        W80829  15.270   1.029  24.918 -0.3316  0.2718 -0.0052
79966W        W80830  16.385   2.626  27.510 -0.1734 -0.1217 -0.0777
79967W        W80831  11.209   3.592  26.324  0.2204  0.2031 -0.1539
79968W        W80832  13.492  29.088   0.363 -0.0886 -0.0072 -0.0149
79969W        W80833  11.916   3.665   2.587  0.0643  0.1674  0.0709
79970W        W80834  12.942   1.554   2.389  0.0029 -0.2338  0.1980
79971W        W80835  14.240   1.972  29.042 -0.0335  0.1070 -0.1340
79972W        W80836  12.280   3.646   1.614  0.1088  0.0589 -0.2371
79973W        W80837   9.932   0.250  26.682  0.1533 -0.1109 -0.0864
79974W        W80838  12.835   2.665  25.541  0.2005 -0.2176  0.0675
79975W        W80839  12.714  28.902   2.612  0.0767  0.1149  0.0655
79976W        W80840  13.258   3.814  28.430 -0.0216 -0.2848 -0.1694
79977W        W80841  13.241   0.103  26.589  0.2418  0.2192 -0.1007
79978W        W80842  13.690   3.039  25.878  0.0228  0.0067 -0.3955
79979W        W80843  14.789   3.146  28.065  0.1331 -0.3494 -0.1768
79980W        W80844  13.341   2.727  26.374 -0.1467 -0.0124 -0.1595
79981W        W80845  10.467   1.645   1.462  0.1007  0.0245  0.1066
79982W        W80846  10.885   2.515  27.536 -0.0246  0.0161  0.1581
79983W        W80847  14.437   2.980  27.231  0.3090 -0.1670 -0.3434
79984W        W80848   9.319   1.505   2.601  0.1223  0.0061 -0.1371
79985W        W80849  11.239   1.123  23.895 -0.0996 -0.2846  0.1725
79986W        W80850  14.512   0.289  26.969  0.0097 -0.2327  0.1492
79987W        W80851  11.493  28.423  29.059  0.2953  0.2719 -0.1552
79988W        W80852  14.046   1.708  26.331  0.0366  0.1710 -0.2301
79989W        W80853  12.142   4.429  26.584 -0.2983  0.2354  0.1369
79990W        W80854  10.190   3.600  25.476  0.0909  0.1662 -0.2629
79991W        W80855  11.003   0.868  27.525 -0.0416 -0.0300  0.0101
79992W        W80856  12.783   1.273   1.405  0.2536 -0.1686 -0.0579
79993W        W80857   9.144  27.964  24.634 -0.0721  0.0146 -0.1750
79994W        W80858  16.346   3.044  26.323  0.2773  0.2911 -0.0531
79995W        W80859  10.509   3.948  26.916 -0.1276 -0.0885  0.2354
79996W        W80860  13.893   2.623  25.986 -0.3161  0.2921  0.2108
79997W        W80861   8.841   5.041   0.421 -0.3653 -0.0424 -0.0512
79998W        W80862  13.269   3.901  27.447  0.3015  0.1511 -0.0025
79999W        W80863  12.896  28.447   0.401 -0.0777 -0.0372 -0.0674
80000W        W80864  12.813   0.684  25.761 -0.0273  0.0596  0.2729
80001W        W80865  12.201   2.793  27.324  0.0226 -0.0286 -0.3204
80002W        W80866  15.570   2.426  27.520  0.2695 -0.0297  0.1669
80003W        W80867  11.648   0.728  28.219  0.2121 -0.1301  0.4250
80004W        W80868  10.599   3.876  25.755  0.2443  0.1989 -0.0477
80005W        W80869  15.580   1.922  27.469  0.1010  0.2277  0.0375
80006W        W80870  15.211   0.518  25.789  0.2177 -0.1223 -0.0292
80007W        W80871  14.361  27.933   0.549  0.0737 -0.1139  0.0969
80008W        W80872  14.843   2.633  24.126 -0.0991 -0.0729 -0.3403
80009W        W80873  13.653   2.280  24.759 -0.0052 -0.0808  0.0892
80010W        W80874  13.819  28.950  24.662 -0.0440  0.0252 -0.1732
80011W        W80875  10.744  28.422   0.914  0.0500  0.0056  0.0632
80012W        W80876  15.136   2.926  28.374  0.0857  0.2002  0.0970
80013W        W80877  10.875   1.400   1.279  0.0224 -0.0954 -0.0482
80014W        W80878  11.490   4.267   0.196  0.2116  0.0888 -0.0056
80015W        W80879  13.395   2.431   0.045  0.0911  0.0489 -0.1777
80016W        W80880  10.334   3.431  24.953  0.1068  0.0910 -0.4007
80017W        W80881  16.796   2.145  28.683  0.5255  0.0416 -0.0628
80018W        W80882   9.722   3.309  26.285 -0.2834  0.3020 -0.2966
80019W        W80883  14.577   1.152  25.839 -0.0257  0.0992  0.1524
80020W        W80884  13.390   1.819  24.637  0.2588 -0.3057  0.0788
80021W        W80885  12.452   0.138   0.648 -0.0366  0.0041 -0.0976
80022W        W80886  12.202   1.405  27.446 -0.0882 -0.0633 -0.0170
80023W        W80887  12.096   0.870   0.997 -0.2744 -0.0605 -0.0555
80024W        W80888  15.974   4.268  26.943  0.1305 -0.1902 -0.0601
80025W        W80889  16.694   1.957   0.232 -0.0801 -0.1914 -0.3355
80026W        W80890   9.409  28.105  27.407  0.0418  0.2529 -0.0042
80027W        W80891  12.318   2.673  26.453  0.2292  0.0598  0.0194
80028W        W80892  11.500   3.005  25.160  0.1876  0.0359  0.1922
80029W        W80893   7.081   3.569  27.117 -0.3253  0.1211  0.1696
80030W        W80894  14.610   3.444  27.195 -0.0198  0.1356  0.2853
80031W        W80895  10.496  28.669  27.511 -0.0623 -0.1762 -0.1425
80032W        W80896  11.059   2.968  26.471 -0.0742 -0.0255 -0.2689
80033W        W80897  12.497   1.761  26.822  0.2625 -0.2537  0.0855
80034W        W80898  13.817   2.697  25.477  0.2185 -0.1518 -0.1515
80035W        W80899  16.871   0.819  28.506  0.0858 -0.2620  0.0278
80036W        W80900  14.473   1.284  27.984 -0.0522 -0.0254 -0.1027
80037W        W80901  12.361   3.697  28.987 -0.1327  0.1324 -0.2094
80038W        W80902  14.116  28.058  27.220 -0.1630 -0.1059  0.0846
80039W        W80903  15.554   2.589  23.599 -0.2055 -0.0298 -0.0434
80040W        W80904  13.932   1.001  24.607 -0.0927  0.1815  0.1081
80041W        W80905  12.675   0.866  25.261 -0.1106 -0.2700 -0.1548
80042W        W80906  12.189   0.376   1.034  0.1841  0.1607  0.0208
80043W        W80907  10.907   1.987  28.690  0.1922  0.1508  0.0842
80044W        W80908  11.269   1.916  27.837 -0.0315 -0.2585  0.1469
80045W        W80909  15.661  28.483  24.215 -0.1120  0.0158 -0.0644
80046W        W80910  14.124   1.602  27.628 -0.1340  0.1979 -0.0249
80047W        W80911  12.577   2.358  23.712  0.1335 -0.0216 -0.4515
80048W        W80912  13.753   1.278  26.229 -0.2999 -0.3761  0.1387
80049W        W80913  13.340   2.593  27.760  0.4639 -0.2340  0.1257
80050W        W80914  12.154   2.304  26.847 -0.0621 -0.0680  0.2650
80051W        W80915  10.087  26.014  27.733 -0.0778  0.0477  0.3785
80052W        W80916  13.387   0.308   1.095  0.0367 -0.0145  0.0900
80053W        W80917  13.547   3.110  25.038 -0.0144 -0.0599  0.2100
80054W        W80918  13.983   3.391  26.086  0.0659  0.0843 -0.2351
80055W        W80919  15.102   4.106  27.591 -0.4837  0.2045  0.0437
80056W        W80920  15.235   2.221  27.171  0.1671 -0.0378  0.0078
80057W        W80921  11.672   2.508  27.565  0.0446 -0.0647 -0.0062
80058W        W80922  14.950   1.397   0.660 -0.0614  0.0118 -0.0063
80059W        W80923  10.767   2.707  27.955  0.2085 -0.1050  0.1371
80060W        W80924  14.468   2.142  26.879 -0.2314 -0.3730 -0.1205
80061W        W80925   9.328   2.719   1.897 -0.0675 -0.0426  0.1277
80062W        W80926  13.701  28.805  25.622  0.3571 -0.2610 -0.1817
80063W        W80927  13.472   2.961  27.395 -0.1128 -0.1002  0.2864
80064W        W80928  12.373   2.125   1.046  0.1191 -0.0693 -0.1488
80065W        W80929  11.683   1.570   1.490  0.1184  0.0691 -0.0466
80066W        W80930  13.966   0.678  27.099  0.1950 -0.0206  0.0678
80067W        W80931  13.989   1.140  25.709  0.2932 -0.0466  0.0944
80068W        W80932  13.034   1.835   1.705 -0.1119 -0.1654  0.0094
80069W        W80933  14.244   4.330  27.403 -0.2670  0.0538 -0.0634
80070W        W80934  12.591   1.488  29.048  0.0915 -0.2104 -0.0534
80071W        W80935  12.939   2.847  22.613  0.4010 -0.0663 -0.2642
80072W        W80936  11.721   0.972   0.569 -0.3025  0.3610 -0.1145
80073W        W80937  14.661   0.012  28.015 -0.2632  0.0532  0.2836
80074W        W80938   8.969   2.848  24.994  0.2903 -0.1089  0.2499
80075W        W80939  14.839   3.931  28.654  0.0800  0.0876  0.0944
80076W        W80940  12.652   0.692  27.322 -0.0972 -0.0913 -0.1534
80077W        W80941  10.043   5.376  28.534  0.3611 -0.1756 -0.2366
80078W        W80942  12.654  28.669  25.580  0.1028 -0.0523 -0.0066
80079W        W80943  11.346   1.268  25.589 -0.0624 -0.0910 -0.1412
80080W        W80944  13.227   0.313  28.632 -0.1379 -0.2240 -0.1417
80081W        W80945  12.744   0.316  26.172  0.0757 -0.0347  0.2621
80082W        W80946  16.669   2.287  27.695  0.2982  0.3055  0.0439
80083W        W80947  12.536   1.903   0.186 -0.1364 -0.2264  0.0177
80084W        W80948  14.914   1.198   0.163  0.1100  0.0421 -0.2824
80085W        W80949  15.300   3.818  28.448 -0.0561 -0.0422  0.1793
80086W        W80950  13.972   2.322  28.740 -0.1393 -0.1781  0.0322
80087W        W80951  13.312   4.742  25.826 -0.0293 -0.2604  0.0263
80088W        W80952  14.074   0.741  24.147  0.2979  0.2358  0.0402
80089W        W80953  12.942  27.608  25.142  0.2364 -0.0907  0.0717
80090W        W80954  10.647   5.770  27.274  0.1064  0.0935 -0.1998
80091W        W80955  10.306   1.179   0.514 -0.0936 -0.3108 -0.0443
80092W        W80956  10.295  27.809   0.344 -0.0483  0.0267 -0.0520
80093W        W80957  11.794   4.169  26.849 -0.0649  0.1863 -0.2360
80094W        W80958  14.516   3.378  25.580 -0.0767 -0.0164 -0.3447
80095W        W80959  14.582   5.047  25.988 -0.1853 -0.1563  0.0730
80096W        W80960  10.596   2.137  27.823 -0.2871  0.2059 -0.0900
80097W        W80961   9.377   0.159  29.049  0.0889  0.0186 -0.1041
80098W        W80962  11.613   3.849  27.489 -0.2987  0.3404 -0.0916
80099W        W80963  10.788  28.782  26.072  0.0117  0.2796  0.0242
80100W        W80964  11.272   1.198   0.413 -0.1841 -0.0755  0.0934
80101W        W80965  13.450   0.865  26.199 -0.0343 -0.2713 -0.1056
80102W        W80966  16.482   1.554  25.888  0.0650  0.0818  0.1533
80103W        W80967  12.995   3.093  27.811 -0.0155 -0.2519  0.0894
80104W        W80968  14.014   2.155  24.193 -0.2117  0.0451  0.2222
80105W        W80969  14.120  28.961  23.845  0.0856  0.0591  0.0870
80106W        W80970  13.899   3.853  26.802 -0.2755  0.3159  0.0373
80107W        W80971  11.286  28.321  28.142  0.1671 -0.2341  0.0844
80108W        W80972  11.464   0.162   2.446 -0.0625 -0.3622  0.0258
80109W        W80973  12.040   1.238  26.121 -0.0426 -0.3389 -0.0864
80110W        W80974  12.084   2.519  24.353  0.1999 -0.0057 -0.0328
80111W        W80975  11.817   0.907  28.777  0.2537 -0.2577  0.4201
80112W        W80976  14.056   3.314  27.156 -0.3636 -0.1819  0.2434
80113W        W80977  12.001   0.756  26.652  0.2011 -0.0526  0.0414
80114W        W80978  12.740   1.253  27.538 -0.1668  0.3231  0.1684
80115W        W80979  12.344   3.160   0.680  0.0615 -0.3165 -0.3615
80116W        W80980  12.509   4.864  26.256  0.2297 -0.1818  0.3257
80117W        W80981  14.965   2.477  28.604 -0.3956  0.2591 -0.0280
80118W        W80982  10.995   0.123  26.149  0.0229 -0.2866  0.1175
80119W        W80983  16.153   1.305  28.490 -0.1435  0.0054  0.1740
80120W        W80984  10.931   3.028  25.598  0.3354  0.1230  0.2764
80121W        W80985  15.929   0.895  28.383 -0.1786 -0.1021 -0.0370
80122W        W80986  10.903   0.805  23.614 -0.1971  0.1316  0.3195
80123W        W80987  16.382   2.531  26.279 -0.1508  0.2887 -0.0381
80124W        W80988  13.639   1.565  25.051 -0.1190 -0.0165  0.1193
80125W        W80989   9.867  28.633  27.987 -0.0116  0.0137  0.2115
80126W        W80990  14.556   0.321  28.441 -0.0934  0.0396  0.0637
80127W        W80991  14.825   2.092  27.389  0.0813  0.1719  0.0126
80128W        W80992  14.948   2.152   0.478 -0.0136  0.0727 -0.0553
80129W        W80993  10.709   0.508  28.350  0.1995 -0.0577 -0.2750
80130W        W80994  11.633   1.244  29.117  0.3367  0.2665  0.0082
80131W        W80995  12.376   3.562  27.515 -0.1891  0.3320  0.1778
80132W        W80996  11.735   1.980  27.547  0.1575 -0.1402 -0.0760
80133W        W80997  14.751   0.868  27.717 -0.1331  0.4197 -0.0746
80134W        W80998  11.895   4.742  29.100 -0.0369  0.1872 -0.0968
80135W        W80999  13.272   1.211   0.130  0.1279  0.0118  0.0806
80136W        W81000  13.197   0.029  27.090 -0.2169 -0.3006  0.3580
80137W        W81001  13.668   3.496  28.335  0.0445  0.0654  0.1123
80138W        W81002  11.921   3.461  27.342  0.2012  0.0476 -0.0296
80139W        W81003  13.930   2.022  28.348 -0.1293 -0.2540  0.1607
80140W        W81004  13.408   2.015   1.168  0.4003  0.0198  0.0065
80141W        W81005  10.800   2.237  28.302 -0.0778 -0.1348  0.0221
80142W        W81006  13.226   1.998  28.193 -0.2304  0.0240  0.2752
80143W        W81007  15.377   4.619  26.310 -0.2174  0.1799 -0.0790
80144W        W81008  12.763   5.035  26.964  0.4053  0.2096 -0.1544
80145W        W81009  11.318   0.287  29.111 -0.1459 -0.0461  0.1772
80146W        W81010  12.935   3.567  27.596  0.2229  0.0569 -0.0344
80147W        W81011   6.732   2.316  22.799 -0.0765  0.3274  0.0406
80148W        W81012  12.437   0.855  26.147  0.1106  0.2428  0.1805
80149W        W81013  11.507   4.455   3.703 -0.0368  0.0219  0.2366
80150W        W81014  10.369   5.843   3.392 -0.2370 -0.3953 -0.1702
80151W        W81015  13.429   4.160   1.441  0.1332 -0.0522  0.1601
80152W        W81016  15.629   7.724   3.595  0.0861 -0.0062  0.0064
80153W        W81017  12.895   9.555  28.554  0.2460  0.0360  0.3036
80154W        W81018  12.948   5.734   0.792 -0.3066 -0.1351 -0.0787
80155W        W81019  11.727   4.064   0.639  0.1179  0.1707 -0.2058
80156W        W81020  11.791   7.193  28.601  0.1850  0.0612  0.0389
80157W        W81021  12.566   6.212   2.070  0.0413 -0.4155  0.0117
80158W        W81022  10.013   3.201   5.381  0.0402 -0.0159 -0.0557
80159W        W81023  10.356   3.099   1.902 -0.1457 -0.2374  0.0632
80160W        W81024  12.535   2.772   2.370 -0.0430  0.0799  0.3410
80161W        W81025  12.161   3.155   1.600 -0.0442  0.0616 -0.0403
80162W        W81026  13.092   4.681   3.538  0.2106  0.0327 -0.4467
80163W        W81027  11.511   4.774   2.789 -0.2773  0.0876  0.1660
80164W        W81028   7.296   6.026   2.747  0.1104  0.3275  0.0379
80165W        W81029  11.738   5.983   0.035 -0.0526  0.1004  0.0841
80166W        W81030  11.304   4.356   1.050  0.2128  0.1444  0.0250
80167W        W81031  10.663   5.880   4.639  0.1133  0.1021  0.0135
80168W        W81032  17.739   4.816   1.125 -0.1811  0.1127 -0.0654
80169W        W81033  15.257   4.937   3.358  0.0760 -0.2668 -0.0738
80170W        W81034  12.330   2.490   4.409  0.3107  0.1496 -0.0033
80171W        W81035  13.738   5.739   4.395 -0.0939  0.4889 -0.1027
80172W        W81036  10.187   4.093   1.108 -0.1229  0.1928  0.3365
80173W        W81037   9.194   4.826   3.157 -0.1061 -0.0379 -0.0622
80174W        W81038  14.222   7.576   4.633 -0.2015  0.3501 -0.2373
80175W        W81039  14.290   5.026   2.587 -0.0063  0.1958 -0.0634
80176W        W81040  11.027   8.023   0.119  0.2617  0.1672  0.1181
80177W        W81041   9.795   7.092   2.554 -0.0693 -0.1100 -0.1601
80178W        W81042  12.606   3.684   2.475  0.3127 -0.2411  0.1289
80179W        W81043  12.015   7.903   1.538  0.1509  0.0929 -0.1439
80180W        W81044  13.016   6.411   3.254  0.2113 -0.1506 -0.4783
80181W        W81045  12.815   5.085   3.745 -0.0080  0.0412 -0.0068
80182W        W81046  13.965   6.934   2.445 -0.1417 -0.0188  0.0429
80183W        W81047  10.394   4.127   2.723  0.2639  0.0772  0.0514
80184W        W81048  11.940   5.418   0.821 -0.0316  0.3307 -0.1802
80185W        W81049  10.974   3.768   1.054 -0.0864 -0.0516 -0.0373
80186W        W81050  11.472   8.565   0.639  0.1923  0.2784 -0.0169
80187W        W81051  14.581   6.922  28.911  0.0254  0.0640  0.0004
80188W        W81052  14.994   2.308   3.239 -0.0042  0.2147 -0.1833
80189W        W81053  14.417   5.011  28.923  0.0212 -0.1707 -0.2352
80190W        W81054  16.908   4.648   4.097 -0.3530 -0.1375  0.1848
80191W        W81055  11.488   8.414   1.903 -0.2649 -0.1316  0.1168
80192W        W81056  13.147   5.687  27.392 -0.3766 -0.3008 -0.0814
80193W        W81057   7.997   6.669   1.808  0.2678 -0.1466  0.1042
80194W        W81058   8.245   8.864   3.603 -0.1304  0.0833  0.0847
80195W        W81059  10.736   2.720   3.402 -0.0533 -0.0925 -0.3395
80196W        W81060  15.803   7.043   3.351 -0.0433  0.0218  0.0121
80197W        W81061  10.914   5.529   0.901 -0.1472  0.2400  0.1538
80198W        W81062  14.037   4.504   0.325  0.1941  0.0178 -0.2693
80199W        W81063  13.278   6.341   1.736 -0.0546 -0.0312  0.1382
80200W        W81064  10.177   3.693   0.374  0.0179  0.0369 -0.0025
80201W        W81065  11.987   4.934   0.933  0.0858  0.2092 -0.3546
80202W        W81066  14.103   4.598  28.981 -0.1354 -0.0585  0.0511
80203W        W81067  11.339   3.336   1.283 -0.0474 -0.2039  0.1409
80204W        W81068  10.226   6.806  28.290  0.0033  0.1963  0.0938
80205W        W81069  11.029   4.727   1.586  0.0387 -0.4854 -0.0046
80206W        W81070  13.634   4.014   0.912 -0.0278 -0.1652 -0.1985
80207W        W81071   8.800   6.340   2.064 -0.2629  0.0246  0.0666
80208W        W81072  15.465   7.514  29.071  0.0550  0.2873 -0.1784
80209W        W81073  10.767   2.019   1.008  0.1190  0.0264  0.1283
80210W        W81074   9.042   5.371   1.186  0.1019  0.0034 -0.1921
80211W        W81075  11.247   5.481   3.006 -0.2118 -0.1149  0.1699
80212W        W81076  10.747   7.476   1.517 -0.0692  0.0181  0.3507
80213W        W81077  11.838   3.600   1.311 -0.1341  0.0810 -0.0626
80214W        W81078  13.526   2.345   0.561 -0.1826 -0.1387 -0.1698
80215W        W81079  11.571   8.094   1.434 -0.1799 -0.0332  0.1533
80216W        W81080   9.530   5.604  27.991  0.2465 -0.4262 -0.1197
80217W        W81081   7.494   9.880   4.923  0.1671 -0.0335  0.3016
80218W        W81082   9.876   6.469  26.984  0.3685 -0.1738  0.1099
80219W        W81083  15.421   4.310   3.971  0.1033  0.2154  0.1214
80220W        W81084  15.114   4.373  28.581 -0.0506  0.0307 -0.0362
80221W        W81085  12.843   6.572   1.727  0.3068  0.0413 -0.3734
80222W        W81086  12.449   5.387   2.532  0.2360  0.1523  0.1072
80223W        W81087  14.511   5.101   1.674 -0.2733 -0.2349 -0.0794
80224W        W81088  11.498   9.103   0.758 -0.1700  0.0301 -0.0597
80225W        W81089  10.427   5.950   2.896  0.1600 -0.0063  0.3038
80226W        W81090  10.212   5.631   1.735 -0.1459 -0.2361 -0.1214
80227W        W81091  12.245   7.518   3.662 -0.1294  0.2771  0.0641
80228W        W81092  13.426   6.785   1.015  0.1543  0.0208 -0.2262
80229W        W81093   8.810   1.718   4.559  0.2039 -0.0260  0.0329
80230W        W81094  10.562   6.451   1.295 -0.3364 -0.1042 -0.0260
80231W        W81095  10.835   6.669   1.644  0.1460  0.1031 -0.1692
80232W        W81096  11.091   7.140   3.204 -0.3313 -0.3604  0.2741
80233W        W81097  11.818   4.401   3.161  0.2070 -0.1896 -0.2448
80234W        W81098  10.208   4.629   0.241 -0.1645  0.0291  0.0253
80235W        W81099  14.320   5.848   2.427 -0.1327  0.0931 -0.0995
80236W        W81100  14.512   4.127   2.522  0.0839  0.1791  0.3267
80237W        W81101  12.115   6.143   2.283  0.1499 -0.0938  0.3042
80238W        W81102  12.426   4.190   1.774  0.0572 -0.1172  0.0864
80239W        W81103  16.455   6.187   4.229 -0.2178  0.0064 -0.0906
80240W        W81104  11.072   8.867   2.701 -0.2450 -0.0242  0.0165
80241W        W81105   9.399   4.944  28.429  0.0860 -0.0572 -0.1276
80242W        W81106  10.180   2.073   2.610  0.2631  0.0331 -0.1288
80243W        W81107  17.473   3.552  28.973  0.0675 -0.0008 -0.1977
80244W        W81108  13.330   2.581   1.344  0.3541  0.0019  0.1630
80245W        W81109  13.632   7.901   4.618  0.0036 -0.0623  0.2970
80246W        W81110  10.061   2.436   1.225  0.1544 -0.1472  0.4568
80247W        W81111  16.110   4.443  26.463  0.4438  0.0417 -0.1181
80248W        W81112  12.311   4.915  28.796  0.2943 -0.1682  0.3905
80249W        W81113  10.404   7.489   1.830  0.0030  0.0282 -0.4591
80250W        W81114  11.074   5.534  28.169 -0.0079 -0.0312 -0.0252
80251W        W81115  17.310   5.920   3.934 -0.1261 -0.0146  0.0568
80252W        W81116  16.087   2.432   2.072 -0.0034  0.0251 -0.2872
80253W        W81117  14.345   7.097   5.641 -0.0025 -0.2494 -0.2813
80254W        W81118  13.810   7.679  28.615  0.0266 -0.0841 -0.2358
80255W        W81119  10.727   4.058   1.941 -0.1620  0.0614  0.2095
80256W        W81120  15.130   2.139   1.992 -0.0740 -0.0915 -0.0343
80257W        W81121   9.202   5.708   3.634 -0.2280 -0.1853  0.1589
80258W        W81122   8.653   5.181   1.468 -0.0431 -0.0328 -0.0319
80259W        W81123  11.926   2.006   0.315  0.1898  0.1439  0.2579
80260W        W81124  13.209   5.497   1.627 -0.0488 -0.0355  0.1948
80261W        W81125  16.517   6.009   2.093 -0.0410  0.3410 -0.0637
80262W        W81126  14.945   5.039   1.343 -0.1999  0.0193  0.1740
80263W        W81127  11.402   3.852  29.086  0.0523 -0.1978  0.1436
80264W        W81128  13.778   4.390   3.147  0.0035 -0.4889 -0.1170
80265W        W81129  15.159   5.076   2.181  0.0224 -0.0812  0.1060
80266W        W81130  11.712   5.291   1.238  0.1094 -0.0302 -0.1426
80267W        W81131  13.021   4.805  27.434  0.0574  0.2409  0.2265
80268W        W81132  13.363   3.769   0.546  0.1288 -0.0494  0.0304
80269W        W81133  13.806   6.866   1.369  0.0744  0.0494  0.1763
80270W        W81134  14.876   3.877   0.033  0.1189  0.1699  0.0040
80271W        W81135  14.288   6.164   0.867 -0.2235  0.1056  0.0360
80272W        W81136  10.035   5.642   1.276 -0.0767  0.0072  0.4721
80273W        W81137  14.537   2.794  28.342  0.0522 -0.0118 -0.0942
80274W        W81138   8.353   3.756   1.552  0.0479 -0.1175 -0.1824
80275W        W81139  14.514   4.760   5.478 -0.0406 -0.2103  0.1298
80276W        W81140  13.106   5.118   4.202 -0.1452  0.0216 -0.1290
80277W        W81141  10.601   6.609  28.583 -0.1244  0.2141  0.2441
80278W        W81142  13.582   6.577   2.399  0.2004  0.1371  0.0313
80279W        W81143  13.789   4.969   0.046  0.0932 -0.0411 -0.1389
80280W        W81144  11.229   7.450   2.832 -0.0917 -0.0458 -0.0809
80281W        W81145  14.596   2.746   1.575 -0.3539  0.0835  0.2152
80282W        W81146  12.434   5.873   2.546  0.0568 -0.0439  0.4154
80283W        W81147  11.534   3.495   3.732 -0.1851  0.1117 -0.0242
80284W        W81148  12.126   3.733   3.562 -0.1642 -0.1644 -0.2050
80285W        W81149  15.703   3.648   1.142  0.2127  0.2126 -0.0680
80286W        W81150  15.999   8.059  28.435 -0.1144  0.1278  0.0182
80287W        W81151  12.856   7.093   1.379 -0.0333  0.0817  0.0493
80288W        W81152  13.152   3.408   0.292  0.2860 -0.0168 -0.2183
80289W        W81153  10.543   4.921   1.419 -0.2966 -0.0266  0.2671
80290W        W81154   9.683   8.197   0.399  0.1351  0.0814 -0.3721
80291W        W81155  12.741   7.322  28.375 -0.1618 -0.2280 -0.1595
80292W        W81156  12.596   5.968   4.330  0.1769 -0.1676  0.2874
80293W        W81157  11.684   4.155   1.377 -0.2519  0.0199  0.3129
80294W        W81158  11.402   5.507   0.923  0.1163  0.0353 -0.1573
80295W        W81159  14.273   4.190   1.623  0.0015 -0.5416 -0.3313
80296W        W81160  10.251   6.725   2.206 -0.2378  0.0246  0.2629
80297W        W81161  11.049   6.699   0.291  0.0416 -0.1809 -0.1383
80298W        W81162  16.051   6.654   2.895  0.0305  0.0704  0.0892
80299W        W81163  10.676   4.780   0.571 -0.2751  0.0095  0.0587
80300W        W81164  12.567   6.353   3.543  0.1716  0.0704  0.1948
80301W        W81165   9.783   5.048   0.413  0.0810 -0.2202 -0.1696
80302W        W81166  10.462   6.334   2.524  0.1496  0.4619 -0.1746
80303W        W81167  13.370   4.485   1.076 -0.0563 -0.2166 -0.0169
80304W        W81168  10.545   3.133   3.778  0.0260  0.0251  0.1866
80305W        W81169  12.899   5.526  28.264  0.1202  0.0222 -0.1876
80306W        W81170   9.022   5.790   0.507 -0.1087  0.3101 -0.0433
80307W        W81171  13.303   5.935   3.029  0.1311 -0.0334  0.0217
80308W        W81172  12.445   4.851   3.338 -0.0425  0.0434 -0.4358
80309W        W81173  12.547   7.007   1.905 -0.1049 -0.1455 -0.2684
80310W        W81174  12.699   4.610   2.047  0.2537  0.0240 -0.1812
80311W        W81175  11.788   5.302   2.087 -0.2634  0.0927 -0.0915
80312W        W81176  13.634   0.700   4.945  0.0651 -0.0015  0.3027
80313W        W81177   9.381   4.694  28.836  0.1119  0.0236 -0.2110
80314W        W81178  11.312   6.272   0.117  0.1594  0.0635  0.1079
80315W        W81179   8.977   6.506   2.539  0.2428 -0.0758  0.0642
80316W        W81180  13.363   5.525   3.979  0.3713  0.0656  0.1727
80317W        W81181  11.498   5.679  27.915 -0.1259  0.0543 -0.3070
80318W        W81182  13.857   6.886   0.754  0.2416 -0.1107 -0.0370
80319W        W81183  12.912   3.375   1.117 -0.0623 -0.2898  0.0341
80320W        W81184  10.058   6.717   3.192 -0.1316  0.1810  0.1599
80321W        W81185  13.287   3.255  28.657  0.0268  0.3049 -0.0678
80322W        W81186  12.992   4.257   1.807 -0.0032  0.3813  0.3637
80323W        W81187  14.258   3.812  28.582 -0.0379  0.0740 -0.0229
80324W        W81188   8.288   5.130   4.434 -0.2392  0.1567  0.3173
80325W        W81189  10.828   8.890   2.232 -0.4296 -0.1506 -0.1698
80326W        W81190  10.767   4.540   0.072 -0.2145 -0.0436  0.0249
80327W        W81191  12.447   5.003   1.749  0.2179 -0.0379 -0.0970
80328W        W81192  11.805   5.779   3.193 -0.2433  0.2831  0.1605
80329W        W81193  12.158   4.796  27.910  0.2538  0.0111  0.3384
80330W        W81194  12.328   6.061   0.049  0.1397 -0.0878  0.2820
80331W        W81195  11.319   5.979   1.012 -0.0824 -0.0736 -0.0194
80332W        W81196  12.720   2.761  28.796 -0.0574  0.1042  0.0272
80333W        W81197  15.435   4.575   3.043 -0.0605 -0.0524  0.3676
80334W        W81198  13.932   4.051  27.795 -0.0566  0.2081 -0.1156
80335W        W81199  10.972   2.452  28.815 -0.1067 -0.2451  0.0795
80336W        W81200  12.309   7.663   4.122 -0.1536 -0.2804  0.0446
80337W        W81201  11.741   2.913   0.011 -0.0853  0.0661  0.0300
80338W        W81202  11.701   7.074   1.403  0.0337  0.2247 -0.0719
80339W        W81203  10.453   7.020   1.617 -0.2557 -0.1624  0.0809
80340W        W81204  12.771   1.664   3.207 -0.3288  0.0155  0.1163
80341W        W81205  11.445   4.093   3.985 -0.0397 -0.1748 -0.1092
80342W        W81206  13.180   1.958   3.677 -0.1516 -0.0785  0.1608
80343W        W81207  12.332   1.968  28.855 -0.0381  0.0348 -0.0564
80344W        W81208  13.468   3.647  29.081 -0.2625  0.2409  0.0039
80345W        W81209  10.588   4.226   1.459  0.1487  0.0663  0.1470
80346W        W81210   8.886   4.876   0.910  0.0933  0.2352 -0.2563
80347W        W81211  12.135   4.448   4.882  0.2755 -0.1364  0.2521
80348W        W81212  13.295   4.301   0.603  0.0751  0.1273 -0.3231
80349W        W81213  12.212   5.598   2.138  0.0400 -0.0770 -0.1911
80350W        W81214  14.829   8.777  28.612  0.2170  0.0439 -0.0315
80351W        W81215  10.347   6.245  28.783  0.1820 -0.0884  0.0124
80352W        W81216  11.106   6.204   3.233 -0.1164  0.2701  0.0761
80353W        W81217   8.731   4.546   0.480 -0.0954 -0.2463  0.0697
80354W        W81218   9.640   6.703   2.198 -0.2549 -0.0149  0.0607
80355W        W81219  12.912   3.820  28.075  0.0482  0.1935 -0.0771
80356W        W81220  14.115   6.156  28.309 -0.4328 -0.2373  0.3440
80357W        W81221  13.553   4.709  27.259  0.0576 -0.0680 -0.0775
80358W        W81222  11.461   6.431   4.636 -0.1892 -0.1046 -0.2628
80359W        W81223  10.132   3.078   2.953  0.0675 -0.2989  0.1243
80360W        W81224  11.583   5.737  28.810  0.0562  0.0205  0.0334
80361W        W81225  13.423   2.967   3.224 -0.1353 -0.3125  0.0334
80362W        W81226  16.524   5.374   3.075  0.0911 -0.0667 -0.4545
80363W        W81227  17.512   6.018   0.806 -0.5253 -0.3002  0.0779
80364W        W81228  12.887   6.164   2.704  0.0173 -0.1839 -0.4777
80365W        W81229  15.968   6.564   1.197  0.0558 -0.2379  0.0400
80366W        W81230  10.883   6.698   3.389  0.2251  0.0839  0.3784
80367W        W81231  10.729   5.560   3.027  0.1676  0.3411  0.0951
80368W        W81232  13.675   4.691   1.463 -0.0577  0.1208 -0.2606
80369W        W81233  12.053   4.482   3.619  0.0922 -0.1953 -0.2711
80370W        W81234  11.867   8.563   2.216  0.1290 -0.0725  0.4073
80371W        W81235  11.880   2.225   0.872 -0.0134 -0.1034 -0.1802
80372W        W81236  14.425   5.464   0.060  0.0906  0.1509 -0.0456
80373W        W81237  11.514   5.246   2.544 -0.0507  0.3105 -0.1960
80374W        W81238  12.649   6.795   4.357 -0.0138 -0.1338 -0.0537
80375W        W81239  14.568   3.518   3.164 -0.0110 -0.1582 -0.0214
80376W        W81240  11.654   5.807   0.537 -0.0370  0.1507 -0.0664
80377W        W81241  12.838   5.910   3.308 -0.1925 -0.0417 -0.0109
80378W        W81242  11.642   5.099   0.654  0.5591 -0.0847  0.0937
80379W        W81243  12.669   3.856   1.370  0.1385  0.0549  0.0269
80380W        W81244   9.115   6.286  27.945 -0.0410 -0.0122  0.0031
80381W        W81245  13.802   2.150   0.044  0.1174 -0.0728  0.0986
80382W        W81246   8.754   5.609   3.728 -0.0689  0.1831 -0.2485
80383W        W81247  12.303   7.274  28.859 -0.1845  0.2270  0.1748
80384W        W81248  14.175   3.805  27.239  0.0711 -0.0162 -0.0683
80385W        W81249  13.476   2.985   4.797 -0.0524  0.0263  0.1656
80386W        W81250  11.739   6.130  28.545 -0.0497 -0.3572  0.1194
80387W        W81251  13.177   4.665   5.592  0.0937 -0.1484 -0.0202
80388W        W81252  11.420   7.659   0.040  0.1634 -0.2861 -0.0380
80389W        W81253  10.446   5.341   2.177  0.0728  0.1033 -0.1043
80390W        W81254  10.018   4.006   2.370  0.0104  0.2088 -0.2629
80391W        W81255  11.416   2.247   1.017 -0.1698 -0.1959 -0.0950
80392W        W81256  12.791   4.261   3.293  0.1180 -0.1262  0.0901
80393W        W81257   9.179   6.042   0.098 -0.0465  0.0848 -0.1215
80394W        W81258  13.359   3.402   2.949 -0.0183  0.1914  0.1004
80395W        W81259  10.437   8.227   1.021 -0.2421 -0.2500 -0.2120
80396W        W81260  13.695   7.454   0.559  0.1663  0.1256  0.0045
80397W        W81261  13.001   1.591   0.213 -0.1417 -0.3985 -0.0217
80398W        W81262  12.958   4.502   0.023  0.2911 -0.1093  0.0203
80399W        W81263  10.940   5.314   2.569  0.3065  0.4115 -0.0573
80400W        W81264  15.115   7.834   3.806 -0.0655  0.1930  0.2127
80401W        W81265  13.624   5.856   1.586  0.2448  0.0246  0.0017
80402W        W81266  11.016   6.974   0.688  0.0734  0.0254 -0.1137
80403W        W81267  15.082   6.182   1.191 -0.2131  0.2403  0.0557
80404W        W81268  14.899   5.888  28.897  0.2714  0.0844  0.0716
80405W        W81269  11.456   3.762   1.019 -0.0609 -0.2246  0.1616
80406W        W81270  11.411   5.170  27.919 -0.0054  0.0792 -0.1209
80407W        W81271  15.244   4.444   1.577  0.2424 -0.1287  0.0393
80408W        W81272  11.835   4.812   2.273 -0.1303 -0.0247  0.2352
80409W        W81273  14.546   3.479   3.758 -0.0166  0.0061  0.0660
80410W        W81274  12.085   4.466   2.539 -0.0008 -0.0979 -0.2747
80411W        W81275  12.485   2.523   3.396 -0.1719 -0.2651 -0.0458
80412W        W81276  12.882   4.642   0.948  0.0522 -0.1231 -0.0018
80413W        W81277   9.823   7.034   4.638  0.1787 -0.1683 -0.0498
80414W        W81278  10.701   5.736   0.363 -0.0831 -0.0283  0.0904
80415W        W81279  12.576   5.417  28.783  0.1792 -0.0995 -0.0100
80416W        W81280  11.451   4.567   4.255 -0.0187 -0.3380  0.1736
80417W        W81281  12.721   6.083   1.062 -0.1119  0.0433  0.2208
80418W        W81282  13.321   6.488   2.846 -0.0364 -0.2046  0.2505
80419W        W81283  13.239   3.063   5.227  0.1896 -0.1769  0.1468
80420W        W81284  13.173   5.361   2.836 -0.1830 -0.1428 -0.1696
80421W        W81285   9.468   6.763   1.107  0.0156 -0.1166  0.1585
80422W        W81286  11.961   5.605   2.574  0.0922 -0.2395 -0.2937
80423W        W81287  12.180   4.164   4.425 -0.0234  0.0261  0.2131
80424W        W81288  10.652   7.245   3.591 -0.1354  0.0707 -0.0752
80425W        W81289  11.024   5.170   1.293 -0.1432  0.0455  0.0885
80426W        W81290  11.438   4.732  28.794  0.2250  0.2587  0.0402
80427W        W81291   9.786   4.879   1.455  0.1840 -0.0386  0.0055
80428W        W81292  10.776   7.047  28.931 -0.0511 -0.2677 -0.0686
80429W        W81293  12.111   5.508   0.343  0.0798  0.0977 -0.1149
80430W        W81294  12.808   4.918   0.434 -0.1015  0.0147 -0.1602
80431W        W81295  11.433   6.168   2.323  0.0289 -0.1370 -0.0557
80432W        W81296  11.894   4.899   1.615  0.0859  0.0987 -0.0138
80433W        W81297  14.721   0.833   2.213 -0.0205  0.2288 -0.2033
80434W        W81298  13.793   3.959   1.756 -0.2637  0.1135 -0.2374
80435W        W81299   9.452   6.394   2.535 -0.3047  0.3049  0.0059
80436W        W81300  12.811   3.098   0.427  0.0531  0.1598 -0.0030
80437W        W81301  13.616   5.523  29.008 -0.0132 -0.1185 -0.2081
80438W        W81302  11.430   6.066   1.533  0.0552  0.3886 -0.0751
80439W        W81303  14.182   2.796  28.716  0.0445  0.0027  0.1381
80440W        W81304  11.420   7.341   1.752 -0.1969 -0.1007  0.0423
80441W        W81305  10.684   7.088   0.304  0.1409 -0.0120  0.4345
80442W        W81306   9.419   5.729   0.904  0.0134  0.3895  0.0291
80443W        W81307  13.600   6.201   2.119  0.1238 -0.2966 -0.2036
80444W        W81308  10.090   3.819   3.446  0.0021 -0.3940 -0.0433
80445W        W81309  14.312   1.600   3.065 -0.1812  0.1097  0.2310
80446W        W81310  16.046   2.232   1.075 -0.1537  0.2005  0.1731
80447W        W81311  10.076   8.307   0.652  0.0047 -0.1125  0.0500
80448W        W81312  11.181   9.673   3.756 -0.0849  0.0895 -0.0291
80449W        W81313  10.874   3.902   2.653  0.0068 -0.0663 -0.0859
80450W        W81314  11.551   5.883   2.789  0.1333 -0.0539 -0.0497
80451W        W81315  11.723   5.221   3.029 -0.1767  0.2804 -0.0957
80452W        W81316  13.933   7.555   1.502  0.0835  0.2755 -0.3470
80453W        W81317  12.954   4.094   2.797  0.1840 -0.2531 -0.1177
80454W        W81318  13.627   7.160   3.458 -0.3578 -0.0076 -0.0060
80455W        W81319  12.699   3.983   0.856  0.1936 -0.1587 -0.0263
80456W        W81320  12.378   4.704   0.194  0.0225 -0.1261  0.1170
80457W        W81321  10.337   6.123   1.607  0.0240 -0.1491  0.0326
80458W        W81322  11.731   5.208  28.904 -0.0588 -0.2332  0.4371
80459W        W81323  11.339   4.921   2.054 -0.1875 -0.0747  0.2850
80460W        W81324  13.052   6.143   0.371  0.1176  0.3036 -0.0031
80461W        W81325  10.418   7.206   2.284  0.0813 -0.1563  0.1539
80462W        W81326  10.262   7.206   2.776 -0.2163  0.1702  0.0625
80463W        W81327  11.200   6.900   4.724 -0.1412 -0.0076  0.0264
80464W        W81328  14.947   3.457  28.583  0.0277 -0.1282 -0.1199
80465W        W81329  12.705   4.621   1.521 -0.1014 -0.1224 -0.0948
80466W        W81330  14.042   5.962   5.203  0.2125 -0.1379 -0.0340
80467W        W81331  14.328   6.604   0.693 -0.0216 -0.0936 -0.1417
80468W        W81332  10.903   7.952   3.716  0.3207 -0.1257 -0.0108
80469W        W81333  13.388   8.935  28.804  0.0082  0.0052 -0.2464
80470W        W81334  12.157   3.964   1.225  0.2357 -0.1498 -0.1637
80471W        W81335  16.677   7.210   2.997 -0.1659 -0.1232  0.0744
80472W        W81336  12.913   7.075  27.949  0.0057  0.0106  0.0044
80473W        W81337  10.071   8.011   0.177  0.1144 -0.1271 -0.2229
80474W        W81338  13.956   4.084  29.116  0.0241 -0.1497 -0.2164
80475W        W81339  10.208   7.568   3.118 -0.0130  0.3200 -0.0274
80476W        W81340  12.694   3.651  28.587 -0.0494  0.2321  0.3606
80477W        W81341  11.594   5.572   1.681  0.0131 -0.3239 -0.0167
80478W        W81342  12.454   4.335   1.130  0.0096  0.0045 -0.1580
80479W        W81343  14.397   5.626  28.724  0.0634  0.0658 -0.2016
80480W        W81344  16.182   3.917   2.373 -0.0132  0.1419 -0.1747
80481W        W81345  13.340   4.823   0.707  0.0660 -0.1122 -0.0086
80482W        W81346  14.823   1.503   2.917 -0.1795  0.1635 -0.2612
80483W        W81347  14.719   5.728   2.028 -0.2226 -0.0610 -0.1351
80484W        W81348  11.396  10.207   0.846 -0.0700 -0.1281 -0.2596
80485W        W81349  12.297   4.249   3.211 -0.2026  0.0889  0.1779
80486W        W81350  10.898   3.782   1.566 -0.0646  0.0179  0.4110
80487W        W81351  13.910   4.849   4.486 -0.1093 -0.1731  0.1750
80488W        W81352  11.756   6.405  28.954  0.3846  0.0802  0.0837
80489W        W81353  12.929   3.938   0.206  0.0397 -0.1256 -0.1902
80490W        W81354  11.878   3.801   3.988  0.1999 -0.1038 -0.1384
80491W        W81355  10.899   7.551  29.108  0.0658  0.0392  0.1830
80492W        W81356  14.521   8.416  29.066  0.1927  0.0106 -0.0195
80493W        W81357   9.557   5.348   1.316 -0.3320  0.2875  0.3710
80494W        W81358  10.827   8.243   1.343  0.0070  0.0396 -0.1051
80495W        W81359  10.155   5.125   1.213 -0.0270  0.0274  0.0388
80496W        W81360  12.902   4.522   2.489 -0.1586  0.2356 -0.0529
80497W        W81361   9.323   5.109   0.274  0.0778  0.0798 -0.0143
80498W        W81362  14.554   5.670   1.459  0.3088  0.0139  0.1321
80499W        W81363  13.378   5.048  28.799 -0.3524 -0.4307  0.2350
80500W        W81364  12.691   6.127   1.571  0.2600  0.0951  0.2513
80501W        W81365  12.154   8.899   1.820 -0.0451  0.0120 -0.1744
80502W        W81366  12.798   6.631   2.774  0.0188  0.0572  0.0965
80503W        W81367  11.492   1.172   1.928  0.0850 -0.3866 -0.0883
80504W        W81368   9.610   7.703   1.919  0.0689 -0.1126 -0.0468
80505W        W81369  13.325   0.951   5.781 -0.0111  0.1362 -0.1698
80506W        W81370  11.642   5.068   4.318 -0.0594  0.1383 -0.2145
80507W        W81371   9.535   3.724   2.199 -0.1073  0.3833  0.1512
80508W        W81372  11.582   4.586   0.693  0.3005  0.0488 -0.0446
80509W        W81373  12.187   6.019   1.750  0.1882  0.1100 -0.2261
80510W        W81374  12.464   6.431   1.282  0.0297  0.3076 -0.0714
80511W        W81375  12.578   1.540   2.722  0.1302  0.0216  0.0366
80512W        W81376  10.683   5.282   0.473 -0.2462 -0.5088 -0.1057
80513W        W81377  15.528   4.402   0.273  0.4871  0.1022 -0.1472
80514W        W81378  10.633   5.767   1.875  0.1215  0.0307  0.1912
80515W        W81379  13.217   5.074   1.184  0.1746  0.4686  0.0688
80516W        W81380  13.143   2.820   2.466  0.3970  0.1826 -0.0411
80517W        W81381  15.734   3.664   1.666  0.3387  0.2114  0.0981
80518W        W81382  12.702   4.652  28.759  0.2337 -0.0536  0.1665
80519W        W81383  13.478   4.609   0.258  0.0925  0.0779 -0.0092
80520W        W81384  10.529   7.422   0.690 -0.1579  0.0028 -0.0040
80521W        W81385  12.938   5.122   1.913 -0.2991  0.0024 -0.1487
80522W        W81386  13.495   8.976  28.161  0.1121 -0.0682 -0.1920
80523W        W81387  12.985   5.577   3.710  0.1471 -0.0097  0.2197
80524W        W81388  11.149   6.432   1.976  0.0005  0.1849  0.1446
80525W        W81389  15.834   2.983   3.821  0.2036 -0.2631 -0.3733
80526W        W81390  10.697   5.267   1.715 -0.1543  0.1122 -0.1365
80527W        W81391   9.737   6.240   1.068  0.0164  0.1512  0.2764
80528W        W81392  11.059   4.778   2.581  0.1065 -0.3559  0.1281
80529W        W81393  10.851   6.130   1.584 -0.1773 -0.3970 -0.1881
80530W        W81394  11.527   3.492  28.666  0.0430 -0.3175 -0.1837
80531W        W81395  14.198   6.155   1.844 -0.2574  0.1549 -0.2657
80532W        W81396  13.171   3.813   1.059 -0.2733 -0.5253  0.2081
80533W        W81397  13.361   2.513   3.457 -0.2910 -0.0627  0.1997
80534W        W81398  15.823   7.927   1.649  0.2206 -0.1410 -0.2031
80535W        W81399  14.184   6.277   0.283 -0.1609 -0.2624 -0.0838
80536W        W81400  11.345   6.252  28.792 -0.2234  0.1922 -0.0203
80537W        W81401  14.909   4.784   1.840  0.0149 -0.1506 -0.0334
80538W        W81402  13.157   7.244   3.462  0.0431 -0.2455 -0.2111
80539W        W81403  11.340   7.375  28.776  0.2789 -0.0363 -0.1741
80540W        W81404  11.507   4.526   1.675 -0.0626 -0.1021 -0.3516
80541W        W81405  16.036   8.275   2.660  0.0124  0.1430  0.0656
80542W        W81406   8.062   6.927   2.570  0.1479  0.5960  0.0327
80543W        W81407  11.932   4.397   1.039  0.3245 -0.2582  0.5249
80544W        W81408  11.153   7.781   0.961 -0.1891  0.0127  0.0726
80545W        W81409  13.650   5.987   4.926  0.2902 -0.1123 -0.0008
80546W        W81410  12.054   6.111   0.407  0.5290  0.1954 -0.0157
80547W        W81411   9.470   5.708  28.910 -0.2309  0.0278  0.2056
80548W        W81412  10.262   7.669   7.023 -0.3041 -0.5768  0.3461
80549W        W81413  12.447   6.863   7.866  0.0537  0.1257  0.2460
80550W        W81414  14.965   6.465   3.770  0.0986 -0.1267 -0.2162
80551W        W81415  15.289   5.028   6.443  0.2472  0.0700  0.3816
80552W        W81416  11.120   8.434   2.875 -0.2766  0.2081 -0.1531
80553W        W81417  10.144   4.517   1.554  0.1589 -0.0630 -0.0140
80554W        W81418  12.059   8.242   4.768  0.0535 -0.0012 -0.0300
80555W        W81419  10.792   6.020   0.939 -0.1802 -0.0055 -0.0552
80556W        W81420  12.030   7.725   5.834  0.1148 -0.1511  0.2020
80557W        W81421  11.084   2.894   4.461  0.1292 -0.0788 -0.0829
80558W        W81422   8.961   5.330   5.713  0.0580  0.3457 -0.0473
80559W        W81423  14.395   3.107   5.897 -0.0771 -0.2095 -0.0398
80560W        W81424  13.294   3.762   5.981 -0.1639 -0.3676 -0.1160
80561W        W81425  12.885   5.960   5.593 -0.1780 -0.1612 -0.1610
80562W        W81426  12.762   5.543   4.160 -0.2084 -0.1270  0.0055
80563W        W81427   9.578   6.196   7.500  0.0453 -0.1174  0.1835
80564W        W81428  13.342   6.792   3.744  0.1416  0.0484  0.1354
80565W        W81429  12.112   4.750   2.993 -0.0077  0.1398 -0.0199
80566W        W81430  14.753   6.831   7.814  0.1957 -0.2334 -0.4094
80567W        W81431  14.918   5.200   4.558 -0.1126 -0.2637 -0.1289
80568W        W81432  15.062   4.868   5.255  0.1827  0.1806 -0.3252
80569W        W81433  16.558   7.463   8.115  0.3431 -0.2573 -0.1394
80570W        W81434  13.721   4.699   8.082  0.1658  0.2135 -0.2008
80571W        W81435  16.092   4.841   7.172  0.1088 -0.1427 -0.0935
80572W        W81436   9.814   5.349   6.302 -0.0685 -0.1119  0.0001
80573W        W81437  12.161   4.110   6.865 -0.0017 -0.2267 -0.0711
80574W        W81438  17.252   5.498  10.382 -0.0370  0.3653 -0.0134
80575W        W81439  11.787   5.542   5.226 -0.1382  0.2176 -0.0535
80576W        W81440  15.319   7.083   8.025  0.1191 -0.1090  0.0728
80577W        W81441  11.868   6.252   6.427  0.1124 -0.1252  0.1176
80578W        W81442  14.209   5.035   5.001  0.2922  0.0687 -0.0128
80579W        W81443  14.029   8.091   4.277  0.1540  0.1678  0.2922
80580W        W81444  12.560   3.689   6.801  0.1775 -0.0066 -0.0794
80581W        W81445  13.170   6.069   7.106 -0.1126 -0.1854 -0.1781
80582W        W81446  11.750   4.145   4.647  0.0222 -0.1559 -0.1829
80583W        W81447  14.006   4.639   6.354 -0.1776  0.0701 -0.0866
80584W        W81448  12.670   6.065   6.040  0.1716 -0.2240 -0.1914
80585W        W81449  11.483   6.951   5.904 -0.0164  0.2034 -0.0449
80586W        W81450  13.876   6.438   5.045  0.0724  0.3690 -0.0233
80587W        W81451  12.074   6.107   5.282  0.3215  0.0291 -0.2498
80588W        W81452  12.918   5.116   3.239 -0.1234  0.2101 -0.0750
80589W        W81453  15.328   7.067   5.281 -0.4171  0.2847  0.2820
80590W        W81454  11.643   6.968   4.024  0.0601 -0.0553 -0.0699
80591W        W81455  15.024   4.658   0.543  0.2587 -0.1768  0.1495
80592W        W81456  12.034   6.364   3.512  0.1632  0.2589 -0.3345
80593W        W81457  12.556   5.880   5.180  0.3377  0.3375 -0.1736
80594W        W81458   9.423   2.367   6.242  0.2225  0.1055  0.0140
80595W        W81459  15.220   8.747   6.458  0.1367 -0.1801  0.4122
80596W        W81460  15.631   5.079   6.022 -0.1320 -0.0180  0.1110
80597W        W81461  15.245   5.112   4.896 -0.0362  0.0036  0.0392
80598W        W81462  13.142   7.396   6.648  0.2353 -0.0515 -0.0838
80599W        W81463  14.179   5.931   4.653 -0.2024  0.0455 -0.2182
80600W        W81464  15.569   6.681   6.448 -0.0715 -0.0255  0.0464
80601W        W81465  14.674   4.826   4.968 -0.1279  0.1974  0.0819
80602W        W81466   9.454   1.569   3.689 -0.1764 -0.2104 -0.0557
80603W        W81467   9.497   5.675   3.143  0.1843 -0.2847 -0.0766
80604W        W81468  13.908   3.894   3.089 -0.3709  0.1152  0.0063
80605W        W81469  14.447   5.478   4.746  0.1945  0.2064 -0.1585
80606W        W81470  11.167   4.833   3.622 -0.0467 -0.0712  0.3379
80607W        W81471  11.247   5.670   2.398  0.1315  0.2690  0.1490
80608W        W81472  13.867   2.781   3.106  0.1467  0.2078  0.0075
80609W        W81473  13.228   6.281   5.868 -0.0868 -0.1586 -0.1033
80610W        W81474  11.480   7.241   7.176  0.0512 -0.3309  0.1443
80611W        W81475   9.222   6.931   4.606 -0.1723  0.1029 -0.2382
80612W        W81476  13.541   2.998   5.738 -0.0914  0.0770 -0.1522
80613W        W81477  15.067   4.527   6.346  0.1613  0.3940  0.2087
80614W        W81478  14.119   6.927  28.587  0.3081  0.0415 -0.0858
80615W        W81479  12.998   4.618   4.013  0.2651  0.0890 -0.1227
80616W        W81480   9.780   7.573   7.158 -0.0416  0.2941  0.1646
80617W        W81481  12.656   6.356   4.035 -0.0938 -0.2713  0.0359
80618W        W81482  15.521   8.908   7.802  0.4275 -0.0108  0.0987
80619W        W81483  12.441   4.655   5.263  0.1688  0.2581  0.1534
80620W        W81484  12.739   3.825   5.533  0.1884  0.1433  0.0740
80621W        W81485  13.139   6.754   6.907 -0.0116  0.1712  0.0713
80622W        W81486  15.974   8.443   9.521 -0.3305 -0.0043  0.1781
80623W        W81487  14.514   7.188   6.950  0.1364 -0.1587 -0.0781
80624W        W81488  10.167   5.923   4.763  0.1106  0.0517 -0.2149
80625W        W81489  11.150   5.311   6.150  0.0439 -0.2644 -0.1083
80626W        W81490  13.466   5.556   4.747 -0.3356  0.1864 -0.2825
80627W        W81491  13.674   6.366   5.570 -0.1470 -0.0481 -0.3077
80628W        W81492  11.362   5.748   3.398 -0.3312 -0.3656 -0.0740
80629W        W81493  14.075   5.747   7.645 -0.1568  0.0464  0.0799
80630W        W81494  11.597   2.830   3.936  0.2419  0.0897  0.1526
80631W        W81495  12.059   5.137   5.424  0.1464 -0.1865 -0.1027
80632W        W81496  11.594   2.937   4.412 -0.0534  0.0774  0.1543
80633W        W81497  13.135   3.491   5.497  0.0891  0.0933 -0.0539
80634W        W81498  14.246   5.393   4.194 -0.1280  0.3583 -0.1286
80635W        W81499  10.093   3.273   4.843 -0.1639  0.0393  0.3397
80636W        W81500  15.608  10.281   5.426  0.0085  0.0050 -0.2023
80637W        W81501  13.122   5.087   8.372  0.2156 -0.1678 -0.1948
80638W        W81502  13.217   2.632   5.551  0.0455  0.2627  0.2971
80639W        W81503  13.764   2.643   6.942 -0.0815 -0.0109 -0.3358
80640W        W81504  10.319   7.068   4.642  0.0826  0.1231  0.2496
80641W        W81505  13.478   4.963   4.787  0.2114  0.1212  0.2209
80642W        W81506  13.634   4.865   7.564 -0.2128 -0.0893  0.3208
80643W        W81507  14.057   4.966   5.494  0.1715  0.2611  0.1992
80644W        W81508  13.870   5.375   3.818  0.0198  0.1259  0.2847
80645W        W81509  12.613   8.157   9.247 -0.0084 -0.0985  0.1877
80646W        W81510  12.003   5.272   3.472  0.2206 -0.0850  0.1611
80647W        W81511  13.754   4.767   5.935 -0.0003 -0.1759  0.4618
80648W        W81512  11.542   6.269   3.414 -0.1964  0.3329 -0.3358
80649W        W81513  13.407   4.419   5.151  0.0392  0.1119  0.1848
80650W        W81514  13.161  28.974   2.437  0.2074 -0.1805  0.1985
80651W        W81515  14.817   6.905   7.299  0.1217  0.2382  0.2743
80652W        W81516  13.146   2.774   4.156 -0.0070  0.0400  0.2764
80653W        W81517  13.964   4.382   3.975 -0.0434 -0.4114 -0.2658
80654W        W81518  13.631   8.401   4.340 -0.2354  0.0099 -0.0933
80655W        W81519  13.436   6.283   8.646  0.1574  0.0105  0.3032
80656W        W81520  13.046   3.336   4.219 -0.0311 -0.0655  0.0574
80657W        W81521  13.747   4.042   4.856  0.2223  0.2312  0.2993
80658W        W81522  10.557   7.713   5.374  0.3184 -0.1202 -0.3856
80659W        W81523  11.821   5.897   3.675 -0.1091  0.2942 -0.1739
80660W        W81524  15.516   6.480   8.786  0.0658  0.2174 -0.0762
80661W        W81525  14.191   6.470   5.489 -0.1118  0.0844 -0.1164
80662W        W81526  13.187   4.755   6.128 -0.0098 -0.1603  0.1195
80663W        W81527  13.039   6.373   3.723 -0.0749  0.0034 -0.3763
80664W        W81528  13.096   3.331   4.706  0.0085  0.0992 -0.2152
80665W        W81529  14.865   6.408   6.003  0.1891 -0.0284 -0.1759
80666W        W81530  15.992   6.507   3.420 -0.1082  0.1079 -0.3302
80667W        W81531  15.239   5.885   6.133 -0.3771  0.0092 -0.0226
80668W        W81532  14.729   3.838   4.126 -0.0411 -0.1860 -0.0106
80669W        W81533  13.560   3.849   3.456  0.1497  0.1124  0.1681
80670W        W81534  15.218   6.005   3.771  0.2931 -0.0426  0.1757
80671W        W81535  14.214   5.909   4.170  0.0898 -0.2354 -0.0125
80672W        W81536  14.414   5.958   7.307 -0.2109 -0.1769  0.0148
80673W        W81537  15.918   5.939   4.011  0.0580 -0.0242  0.1664
80674W        W81538  12.908   6.194   5.031 -0.1883  0.3675 -0.0064
80675W        W81539  16.120   6.104   6.802  0.2198 -0.2396 -0.1408
80676W        W81540  16.804   9.592   7.597  0.1102 -0.3359 -0.1012
80677W        W81541  13.374   7.658   5.030  0.1548  0.2927  0.1264
80678W        W81542  15.884   6.304   5.470 -0.3056 -0.1127  0.1760
80679W        W81543  12.707   3.053   5.140 -0.1177  0.1013  0.2131
80680W        W81544  13.868   7.921   3.293  0.1030  0.1359 -0.1934
80681W        W81545  14.691   5.064   4.085 -0.2054 -0.1477  0.0515
80682W        W81546  14.806   5.863   6.402  0.0354  0.0743  0.0882
80683W        W81547  10.439   4.812   5.777 -0.3688  0.0241 -0.0310
80684W        W81548  14.593   4.032   3.028  0.0370  0.2080  0.0705
80685W        W81549  13.105   6.199   8.285 -0.3250  0.1612  0.1161
80686W        W81550  12.466   6.091   2.972  0.1838 -0.0522  0.0786
80687W        W81551  16.208   7.026   5.855  0.1780 -0.3985 -0.1392
80688W        W81552  10.482   7.197   5.098  0.0999 -0.2288 -0.2631
80689W        W81553  12.679   3.549   5.071  0.1311 -0.0161 -0.0291
80690W        W81554  11.328   7.165   3.637  0.1377 -0.1517 -0.1900
80691W        W81555  11.908   4.086   2.303  0.0573 -0.0526 -0.2202
80692W        W81556  10.610   6.726   7.762 -0.0970 -0.1645 -0.0296
80693W        W81557  12.592   4.462   3.700  0.0223 -0.1663  0.0824
80694W        W81558  12.894   4.647   3.038  0.1983  0.1576  0.0783
80695W        W81559  16.091   5.464   3.713 -0.1383  0.4390  0.0387
80696W        W81560  14.580   5.904   3.043  0.1404 -0.1423 -0.0414
80697W        W81561  14.629   5.211   5.276  0.0204  0.0978 -0.1888
80698W        W81562  15.561   9.082   6.853  0.0027  0.1318  0.1092
80699W        W81563  12.952   6.396   4.497 -0.1524 -0.1397  0.1756
80700W        W81564  13.937   7.466   5.558  0.1056 -0.0793 -0.1041
80701W        W81565  15.602   6.239   6.095 -0.1521  0.0528  0.0752
80702W        W81566  16.077   3.881   5.343 -0.0535  0.0136 -0.2099
80703W        W81567  15.475   4.581   5.199 -0.2961 -0.0792  0.1462
80704W        W81568   7.858   6.832   8.031 -0.1795  0.0932  0.1201
80705W        W81569  12.175   6.831   4.732  0.2862  0.1264  0.0205
80706W        W81570  10.208   2.758   0.761  0.0183 -0.2934 -0.1337
80707W        W81571  13.067   3.010   2.871 -0.1934  0.0987 -0.1901
80708W        W81572  12.501   4.680   6.313  0.3335  0.1341  0.1137
80709W        W81573  14.429   5.486   7.434  0.0308  0.0495 -0.0598
80710W        W81574  13.698   8.082   8.695  0.0227 -0.1313  0.1081
80711W        W81575  14.487   4.554   7.333 -0.0191  0.0281  0.0210
80712W        W81576  12.243   3.309   5.017  0.0156  0.4149  0.0594
80713W        W81577  12.585   4.401   7.461  0.1272  0.0528  0.2428
80714W        W81578  12.358   6.521   6.263  0.2202  0.0946  0.0970
80715W        W81579  13.120   6.002   4.127  0.0076  0.2293 -0.0272
80716W        W81580  11.118   9.584   7.031 -0.0287 -0.3690  0.1980
80717W        W81581  11.411   8.539   3.407  0.1475 -0.0610  0.2906
80718W        W81582  13.240   6.037   4.639  0.1676 -0.3142  0.2402
80719W        W81583  11.749   5.446   3.880 -0.1786 -0.0589  0.0131
80720W        W81584  14.937   7.151   6.679  0.1400  0.1899 -0.0675
80721W        W81585  10.981   6.242   2.471  0.0488  0.1829 -0.1133
80722W        W81586  16.031   2.660   3.517  0.0708  0.0269  0.2358
80723W        W81587  17.145   4.004   3.537  0.0020 -0.0471 -0.0519
80724W        W81588   9.649   7.729   5.607 -0.0624  0.0133 -0.1518
80725W        W81589  11.860   7.166   5.038 -0.1805 -0.0209 -0.0931
80726W        W81590   8.680   5.714   2.793 -0.0156  0.0430  0.2088
80727W        W81591  12.331   3.732   5.831  0.0155  0.1635 -0.1544
80728W        W81592  12.687   6.475   0.774 -0.1167 -0.4329 -0.0804
80729W        W81593  14.479   8.892   4.555 -0.0109 -0.1911 -0.1718
80730W        W81594  11.139   4.222   1.578 -0.1314 -0.1292  0.0889
80731W        W81595  12.666   4.330   4.727  0.3299  0.0639 -0.0321
80732W        W81596  13.442   5.084   1.828 -0.1967  0.4469 -0.2668
80733W        W81597  14.899   9.825   6.535  0.0326 -0.1803 -0.2349
80734W        W81598  13.378   6.028   3.512 -0.2717 -0.0903  0.0673
80735W        W81599   9.780   2.951   4.304  0.2762 -0.0428  0.2341
80736W        W81600  14.481   6.648   5.942 -0.2377 -0.2826 -0.0883
80737W        W81601  13.643   8.793   5.683  0.0424  0.0651  0.2173
80738W        W81602  10.857   3.694   0.573 -0.1830 -0.0521 -0.3613
80739W        W81603  12.377   9.143   3.040 -0.1092  0.0163 -0.0264
80740W        W81604  12.783   6.714   4.824 -0.0899  0.3294 -0.1673
80741W        W81605  12.382   2.912   8.357 -0.0169 -0.0195 -0.2908
80742W        W81606  13.679   5.028   7.075  0.0486 -0.0372  0.2817
80743W        W81607  12.945   2.727   3.262  0.2569 -0.0764 -0.1831
80744W        W81608  11.422   5.514   4.384  0.0689 -0.0354 -0.0985
80745W        W81609  11.482   6.641   5.493  0.1460 -0.0804  0.1865
80746W        W81610  10.644   6.728   4.806  0.0004  0.1696 -0.1929
80747W        W81611  12.360   6.066   5.698  0.3677 -0.2355  0.0344
80748W        W81612  13.059   5.666   5.114  0.0799 -0.0334 -0.0642
80749W        W81613  11.651   4.829   3.341 -0.0399 -0.0065 -0.0593
80750W        W81614  12.956   4.261   5.249 -0.1795 -0.0132 -0.0329
80751W        W81615  11.513   4.709   4.875 -0.3053  0.2146  0.0193
80752W        W81616  10.592   5.007   5.277 -0.0142  0.1290 -0.0857
80753W        W81617  10.799   6.810   2.136  0.0339  0.1051 -0.0919
80754W        W81618  12.594   4.993   4.327  0.0568  0.1289  0.0366
80755W        W81619  14.863   2.995   5.637  0.1886 -0.2835 -0.1143
80756W        W81620  13.371   7.536   1.991  0.0392  0.2365  0.0042
80757W        W81621  13.505   6.541   4.588  0.2026  0.0153  0.0625
80758W        W81622  13.401   5.179   7.953 -0.1487  0.0020  0.2002
80759W        W81623  13.213   6.741   4.218 -0.0426 -0.0779 -0.0668
80760W        W81624  10.679   5.323   4.453 -0.0350 -0.2589 -0.3391
80761W        W81625  11.123   4.295   2.701 -0.2691  0.2000 -0.0805
80762W        W81626  16.841   4.962   4.985  0.1952  0.2326 -0.1088
80763W        W81627  15.051   4.651   4.010  0.0503 -0.3444 -0.0899
80764W        W81628  13.356   4.774   3.125 -0.3595 -0.1268 -0.0687
80765W        W81629  13.694   6.217   3.065  0.0995 -0.1493  0.0472
80766W        W81630  15.324   5.697   7.421  0.1429 -0.0680 -0.1039
80767W        W81631  13.093   7.026   5.185  0.1055 -0.1873 -0.0728
80768W        W81632  12.031   0.784   6.287 -0.1591  0.0280 -0.3347
80769W        W81633  16.192   5.328   5.993 -0.4142  0.2721  0.1090
80770W        W81634  15.843   6.913   8.127 -0.1008 -0.2028 -0.0759
80771W        W81635  15.107   4.263   4.423  0.0621 -0.1249  0.0579
80772W        W81636  14.331   7.568   4.088 -0.2366  0.1254  0.0730
80773W        W81637  13.583   4.336   5.630 -0.0416  0.1056  0.1605
80774W        W81638  11.942   8.106   7.361  0.0377  0.1220 -0.1620
80775W        W81639  14.653   4.001   5.113 -0.0050  0.0949 -0.2941
80776W        W81640  15.997   7.627   1.980  0.0808  0.0829 -0.0420
80777W        W81641  11.019   6.087   5.931  0.0970  0.1168  0.1649
80778W        W81642  12.812   2.148   5.401 -0.1041 -0.0649 -0.2610
80779W        W81643  13.365   2.840   6.649 -0.0104  0.2231 -0.2490
80780W        W81644  10.710   5.773   2.420  0.1581 -0.0063  0.3340
80781W        W81645  13.098   5.820   6.059 -0.2135 -0.0403  0.1729
80782W        W81646  13.046   3.590   6.938 -0.0048 -0.0079  0.1206
80783W        W81647  13.967   6.819   5.856 -0.0918 -0.2650 -0.3767
80784W        W81648  15.604   8.387   7.663 -0.1944  0.2713 -0.0601
80785W        W81649  12.516   1.417   8.528  0.3793  0.0801  0.3886
80786W        W81650  12.594   7.816   7.880  0.1103 -0.1163  0.2395
80787W        W81651  15.162   7.783   4.778 -0.1252  0.1930 -0.0833
80788W        W81652  12.107   7.281   4.409 -0.0899 -0.3304 -0.0530
80789W        W81653  12.329   8.157   6.593  0.0913 -0.0161 -0.0706
80790W        W81654  12.569   5.555   7.717 -0.1288  0.0821  0.1006
80791W        W81655  11.809   4.873   3.792  0.0206 -0.0089 -0.1212
80792W        W81656  12.501   4.818   4.768  0.1166 -0.3016 -0.1971
80793W        W81657   9.785   6.887   3.668  0.0527 -0.0572  0.1058
80794W        W81658  12.114   5.101   4.250 -0.0670 -0.3989 -0.1014
80795W        W81659  10.184   4.780   5.035 -0.0961 -0.1675  0.2825
80796W        W81660  14.307   6.435   4.834 -0.3080 -0.1008  0.4910
80797W        W81661  14.618   4.347   4.233 -0.1149  0.1228  0.1835
80798W        W81662  14.341   4.533   5.101  0.4286 -0.1585 -0.0784
80799W        W81663  14.551   8.114   4.022  0.3811  0.0609  0.2421
80800W        W81664  14.853   8.963   6.758  0.4538 -0.1355 -0.1783
80801W        W81665  13.183   5.898   6.578 -0.1388  0.1703  0.1736
80802W        W81666  10.067   6.634   4.801  0.0050  0.1855 -0.1720
80803W        W81667  12.874   5.101   2.392  0.3790  0.0254 -0.0190
80804W        W81668  12.203   5.553   3.019  0.1119  0.0881  0.0653
80805W        W81669  12.048   4.545   8.356 -0.0361  0.0540 -0.2934
80806W        W81670  13.486   6.653   3.302 -0.1431 -0.3029 -0.3604
80807W        W81671  11.469   6.369   2.831 -0.1035  0.3501 -0.4258
80808W        W81672  15.432   6.663   5.564 -0.1271 -0.1639 -0.0058
80809W        W81673  14.349   6.491   7.679 -0.1435 -0.1765 -0.0383
80810W        W81674  13.221   7.547   8.004 -0.2047  0.2296 -0.1911
80811W        W81675  11.271   4.122   4.494  0.3270  0.1702 -0.0430
80812W        W81676  14.247   9.727   5.056 -0.0015 -0.0868 -0.0677
80813W        W81677  11.297   6.196   8.603 -0.3049  0.0854 -0.1382
80814W        W81678  10.161   6.716   2.695 -0.0839 -0.3024  0.0269
80815W        W81679  14.382   3.976   6.587  0.1692 -0.0036 -0.0274
80816W        W81680  12.708   6.269   6.539  0.0090 -0.4088 -0.2365
80817W        W81681  13.360   6.752   2.012  0.0673  0.0482  0.0614
80818W        W81682  12.344   6.859   2.666  0.0425  0.1786  0.0281
80819W        W81683  12.259   5.864   6.403  0.0369  0.1301  0.1545
80820W        W81684  11.502   5.244   4.934 -0.1346  0.0878  0.1703
80821W        W81685  13.816   5.345   5.694  0.2476  0.1818 -0.0850
80822W        W81686  13.535   5.599   6.094 -0.0036  0.0573 -0.0878
80823W        W81687  13.021   1.575   9.241 -0.0185  0.1261  0.1632
80824W        W81688  10.466   5.466   5.088  0.0527  0.1540  0.4658
80825W        W81689  13.927   6.948   3.866 -0.1723  0.2430  0.1916
80826W        W81690  11.274   6.880   1.836 -0.1659  0.1157  0.2490
80827W        W81691  10.741   5.916   5.422  0.0078 -0.0247 -0.0065
80828W        W81692  14.157   6.574   6.316  0.0259 -0.0922  0.1620
80829W        W81693  10.874   5.816   3.421  0.3240 -0.0002  0.0364
80830W        W81694   9.382   7.788   4.352 -0.1368  0.1396  0.1051
80831W        W81695  10.151   5.694   5.497 -0.2584 -0.1174  0.1211
80832W        W81696  13.659   4.625   2.317 -0.2279 -0.0468  0.1821
80833W        W81697  14.197   5.454   5.279  0.1828 -0.0767  0.2203
80834W        W81698  14.653   7.060   1.631  0.1623  0.0174  0.1162
80835W        W81699  13.033   7.422   5.612 -0.0481 -0.0837  0.1088
80836W        W81700  15.187   6.229   3.290 -0.1225  0.1877  0.1023
80837W        W81701  11.748   5.783   2.112  0.1322  0.0807  0.1229
80838W        W81702  12.470   8.517   3.600 -0.0580 -0.0639  0.0386
80839W        W81703  14.198   3.619   3.425  0.2398  0.1220 -0.2638
80840W        W81704  14.925   5.357   7.407 -0.0976  0.1625 -0.1987
80841W        W81705  15.153   6.283   6.398  0.2192 -0.2041 -0.1336
80842W        W81706   9.572   5.832   2.590 -0.1367  0.1216  0.2903
80843W        W81707  13.268   3.957   5.471 -0.2390 -0.2021 -0.1546
80844W        W81708  13.618   6.613   6.575 -0.1664 -0.1501 -0.1739
80845W        W81709  14.957   5.988   7.276 -0.0392 -0.0908 -0.0092
80846W        W81710  15.661   5.227   4.125 -0.2058 -0.0115  0.0494
80847W        W81711   9.033   4.197   3.630 -0.1456  0.3391 -0.0843
80848W        W81712  10.534   8.676   2.944 -0.1139  0.0480 -0.1153
80849W        W81713  12.037   1.758   5.186 -0.3722 -0.0982  0.0720
80850W        W81714  13.935   5.169   7.828  0.1000 -0.0027 -0.1636
80851W        W81715  14.175   5.289   6.148  0.0407  0.0707  0.0469
80852W        W81716  11.481   5.240   3.483  0.1498 -0.3106 -0.0016
80853W        W81717  13.803   5.049   3.335  0.0364 -0.1969  0.0154
80854W        W81718  14.973   6.018   8.156  0.3758  0.0527 -0.0671
80855W        W81719  14.288   3.970   3.965  0.2433 -0.0729  0.0428
80856W        W81720  14.582   4.034   3.570 -0.1579 -0.1503 -0.0414
80857W        W81721   9.127   6.198   3.404  0.2119  0.1158  0.0415
80858W        W81722  14.756   4.562   3.277 -0.1940 -0.1315 -0.0060
80859W        W81723  13.467   8.579   7.036  0.0613 -0.2122  0.0959
80860W        W81724  14.991   4.145   3.777  0.0125  0.0928 -0.0093
80861W        W81725  11.948   8.086   6.264  0.0124 -0.0698  0.2997
80862W        W81726  13.971   8.609   7.181  0.0952  0.0340  0.2772
80863W        W81727  12.722   7.575   6.518 -0.1807 -0.1597  0.2964
80864W        W81728  13.821   5.900   3.908  0.3570  0.0110 -0.0456
80865W        W81729  12.046   5.355   1.659 -0.1838  0.0471  0.0196
80866W        W81730  12.827   6.051   7.896  0.5330  0.0348  0.0229
80867W        W81731  10.894   5.410   5.299  0.0423  0.2593 -0.1074
80868W        W81732  14.268   7.715   6.255 -0.2810  0.0298 -0.0552
80869W        W81733  10.502   6.430   3.062 -0.2243  0.1492 -0.0798
80870W        W81734  13.314   5.273   7.427  0.0063  0.0884 -0.1703
80871W        W81735  11.525   4.376   7.577 -0.0410 -0.0060 -0.0676
80872W        W81736   9.220   3.787   0.913  0.2757 -0.1288 -0.0461
80873W        W81737  11.583   7.450   5.796 -0.3082  0.0346  0.1276
80874W        W81738  12.747   4.481   5.805 -0.2622  0.1034 -0.2044
80875W        W81739   8.741   4.398   3.991  0.0699 -0.3039  0.1745
80876W        W81740   9.718   5.964   2.124  0.0754  0.1293 -0.2602
80877W        W81741  11.304   3.285   4.233 -0.0305 -0.0066 -0.2057
80878W        W81742  10.960   6.128   5.032 -0.0940  0.1225 -0.3491
80879W        W81743  13.445   4.717   4.203  0.0319 -0.1521 -0.2602
80880W        W81744  16.040   6.808   6.333  0.0101  0.0615 -0.0527
80881W        W81745  11.278   6.713   4.251 -0.0451 -0.2081 -0.0118
80882W        W81746  14.768   4.968   6.299 -0.3250 -0.1211  0.1074
80883W        W81747  14.063  10.082   6.646  0.0745 -0.3213 -0.0148
80884W        W81748  12.456   7.928   6.115  0.1652 -0.0975 -0.1461
80885W        W81749  15.176   6.260   5.599 -0.0250  0.1105  0.3940
80886W        W81750  13.111   7.207   4.078  0.0755 -0.0410  0.3532
80887W        W81751  12.839   5.252   4.805 -0.1483 -0.1463 -0.0560
80888W        W81752  12.157   6.145   3.957 -0.0927  0.0962  0.2403
80889W        W81753  13.219   3.932   4.948  0.1893  0.3168  0.0579
80890W        W81754  15.349   3.650   4.977  0.0552 -0.1797 -0.4192
80891W        W81755  11.399   6.744   3.219 -0.0423  0.1576 -0.1993
80892W        W81756  14.929   2.979   5.139  0.2570  0.0863 -0.1495
80893W        W81757  14.032   7.200   4.274 -0.1004  0.0610 -0.1935
80894W        W81758  12.187   5.807   4.799  0.2972 -0.1288  0.0287
80895W        W81759  12.270   4.014   2.633 -0.1684 -0.1070 -0.1618
80896W        W81760  13.370   6.439   5.087 -0.1776 -0.4344 -0.0975
80897W        W81761  11.096   4.935   5.079 -0.1907  0.0667  0.0177
80898W        W81762  14.958   6.707   6.398  0.0678 -0.0454  0.2950
80899W        W81763  11.750   5.821   1.218 -0.0538  0.1561  0.1944
80900W        W81764  14.883   7.600   6.944  0.1614  0.1338 -0.4144
80901W        W81765  14.668   6.109   5.605 -0.3832  0.2052  0.3189
80902W        W81766  12.491   6.271   4.829  0.1079  0.1137 -0.0985
80903W        W81767   9.776   1.666   5.141 -0.0234 -0.0744 -0.2572
80904W        W81768  12.327   7.587   5.289  0.4054  0.0269  0.3231
80905W        W81769  12.619   5.706   8.189  0.0281 -0.2560 -0.1325
80906W        W81770  10.240   2.288   5.610 -0.2798  0.0208 -0.0096
80907W        W81771  10.524   4.056   5.108 -0.1561  0.0792  0.0434
80908W        W81772  14.817   3.509   5.058 -0.0152 -0.0856 -0.2443
80909W        W81773  14.531   7.384   8.523  0.0346  0.4767  0.1523
80910W        W81774   9.672   4.266   7.134 -0.2051 -0.0072  0.3006
80911W        W81775  12.948   3.207   3.314 -0.1064 -0.1632 -0.0145
80912W        W81776  15.603   5.970   5.675  0.3586 -0.2458  0.3214
80913W        W81777  12.452   8.042   5.071  0.1383  0.0652 -0.1058
80914W        W81778  12.668   5.558   5.926 -0.3492  0.1385  0.0663
80915W        W81779  14.488   7.455   1.950 -0.2733  0.2185 -0.2996
80916W        W81780  10.943   1.462   1.765  0.1975 -0.2348  0.0466
80917W        W81781  16.833   4.141   3.947  0.3137 -0.0836 -0.1542
80918W        W81782  10.131   5.424   0.366  0.1798 -0.0111 -0.0100
80919W        W81783  14.239   5.372   3.345  0.1701  0.0005  0.0082
80920W        W81784  11.808   6.450   2.497 -0.0703  0.3327  0.2633
80921W        W81785  13.978   6.163   6.523  0.1566 -0.0115  0.1736
80922W        W81786  13.185   6.915   2.545 -0.0620  0.1031 -0.1224
80923W        W81787  11.842   5.954   6.927 -0.3049 -0.6428  0.1700
80924W        W81788  11.898   2.900   4.807  0.0598 -0.1005  0.1158
80925W        W81789  14.615   6.354   6.414 -0.0304  0.4491 -0.0309
80926W        W81790  12.466   5.068   7.689 -0.3316  0.1363  0.0592
80927W        W81791  12.094   4.930   6.218 -0.0059 -0.2588 -0.1813
80928W        W81792   8.218   6.105   7.382  0.1806 -0.1936 -0.1233
80929W        W81793  13.070   5.338   6.116  0.3351  0.3611 -0.4640
80930W        W81794  11.430   5.772   5.975  0.1668  0.1922  0.0517
80931W        W81795  12.949   5.686   7.435 -0.1637  0.2924 -0.1041
80932W        W81796  15.830   9.335   8.520  0.0182  0.1862  0.0157
80933W        W81797  12.699   4.962   7.234 -0.2308  0.0823  0.2100
80934W        W81798  15.340   4.905   4.459 -0.2140 -0.0873 -0.0052
80935W        W81799  14.185   9.403   7.012 -0.2675  0.0055  0.2235
80936W        W81800  13.297   7.559   6.178 -0.0705 -0.2224  0.1480
80937W        W81801  15.970   6.192   4.455 -0.3214 -0.2083 -0.1119
80938W        W81802  16.555   5.740   8.161  0.1713 -0.1586  0.4642
80939W        W81803  13.629   7.295   4.751  0.1282 -0.0458  0.1242
80940W        W81804  14.957   4.592   2.844  0.0428  0.3294  0.2295
80941W        W81805  17.015   7.541   8.432  0.3077 -0.0697 -0.0332
80942W        W81806  11.339   6.539   8.221  0.0312 -0.0370  0.0521
80943W        W81807  14.232   3.257   7.336 -0.2082 -0.0888 -0.0644
80944W        W81808  14.864   6.353   2.915  0.0317  0.0382  0.2735
80945W        W81809  12.125   7.245   5.848 -0.2379 -0.1851 -0.0330
80946W        W81810  13.436   7.592   3.274 -0.0245  0.0607  0.0759
80947W        W81811  10.917   3.108   0.623  0.0971  0.1760  0.0667
80948W        W81812  12.028   9.868   8.332  0.0597  0.1570  0.1982
80949W        W81813  12.850   7.460   8.957 -0.1330 -0.3061 -0.0944
80950W        W81814  16.996   2.843   6.357  0.0445 -0.0189  0.0796
80951W        W81815  12.107   7.678   9.906 -0.1573  0.0683 -0.0036
80952W        W81816  10.179   8.504   8.085  0.2932 -0.0182  0.2715
80953W        W81817  13.982   4.610   9.895 -0.0410  0.1928 -0.2470
80954W        W81818  14.154   2.400   5.066  0.0698 -0.1521 -0.0788
80955W        W81819  10.772   4.636  10.517  0.2570 -0.0282 -0.0334
80956W        W81820  12.507   4.277   8.198 -0.0331 -0.2671 -0.0679
80957W        W81821  10.376   4.791   8.617 -0.0502 -0.0275 -0.1464
80958W        W81822  13.825   1.770  10.278  0.0912  0.0149  0.3360
80959W        W81823  13.799   3.113   8.875  0.0150 -0.2172  0.3025
80960W        W81824  14.592   3.843   9.865  0.0273  0.1638 -0.2076
80961W        W81825  12.693   4.134   8.736  0.2242 -0.1811  0.2073
80962W        W81826  12.124   5.108  10.229 -0.0980 -0.1292 -0.2196
80963W        W81827  13.584   8.534   8.928  0.0012 -0.0716 -0.1861
80964W        W81828  12.899   7.764   8.320 -0.0672 -0.0596 -0.1263
80965W        W81829  11.150   2.714   9.924  0.0670  0.2193 -0.1484
80966W        W81830  10.294   5.383   9.325  0.4536 -0.1678  0.0655
80967W        W81831  14.775   4.918   9.145 -0.0703 -0.1642 -0.3875
80968W        W81832  14.171   5.499  10.791  0.0079  0.0086 -0.4107
80969W        W81833  13.865   4.643  10.545  0.0453 -0.0926  0.1852
80970W        W81834  13.970   5.998   8.558  0.0815 -0.2110 -0.5343
80971W        W81835  11.224   3.322  10.612 -0.2123  0.1729  0.0200
80972W        W81836  13.149   4.332   9.175 -0.2081  0.2077  0.0345
80973W        W81837  12.200   7.001  11.022  0.1112 -0.1541  0.3712
80974W        W81838  14.008   6.122  10.198 -0.0628 -0.1725  0.0234
80975W        W81839  11.103   6.810   7.823  0.3190 -0.0997 -0.2669
80976W        W81840  14.036   6.230   7.407 -0.0067 -0.0143  0.2283
80977W        W81841   8.717   2.094   8.721 -0.0069 -0.2081  0.0272
80978W        W81842  11.856   6.386   8.103  0.1184 -0.1082 -0.0402
80979W        W81843  14.388   6.989  12.067 -0.0423  0.0761  0.3322
80980W        W81844  12.531   6.878   8.937  0.1252 -0.2255 -0.0223
80981W        W81845  12.697   6.793  11.862 -0.2830  0.0675 -0.0437
80982W        W81846  10.458   9.412  14.794 -0.0465 -0.2550 -0.3061
80983W        W81847  13.190   5.472   9.286  0.0620  0.0585  0.0974
80984W        W81848  12.730   3.409   7.316 -0.2794 -0.2871  0.4145
80985W        W81849  12.533   4.879  10.215 -0.0684  0.1559 -0.1337
80986W        W81850  13.911   7.343   8.282 -0.2251  0.1184  0.0280
80987W        W81851  12.520   4.868   8.966 -0.0269 -0.0388  0.0953
80988W        W81852  14.338   5.700   6.538 -0.1393  0.3606 -0.1323
80989W        W81853  15.087   5.859   9.350  0.0772  0.0855 -0.1273
80990W        W81854  11.050   7.956   8.477  0.0678  0.0969  0.1660
80991W        W81855  16.340   8.670  11.078  0.1765 -0.0642  0.2976
80992W        W81856  12.481   8.346  10.403  0.0222 -0.1815  0.2454
80993W        W81857  10.997   7.279   9.152 -0.3804  0.2980  0.1843
80994W        W81858  12.378   5.738   9.312  0.3051  0.0913 -0.2004
80995W        W81859  15.833   4.362   9.734  0.0116  0.0989 -0.1424
80996W        W81860  14.431   5.148   6.611 -0.1501  0.1099  0.1663
80997W        W81861  15.833   5.301   8.327  0.1460 -0.0254 -0.2601
80998W        W81862  12.913   6.453   8.683  0.0326  0.0533 -0.2112
80999W        W81863  13.278   4.071   6.929  0.0289  0.1670  0.2767
81000W        W81864  11.335   6.878  10.887  0.0639 -0.0387 -0.0225
81001W        W81865  14.542   5.023   7.130  0.0583  0.0126 -0.1727
81002W        W81866  14.206   0.320   9.977 -0.1426  0.0182  0.5850
81003W        W81867  10.569   5.481   6.541 -0.2035 -0.3565  0.3511
81004W        W81868  11.277   4.807   9.632  0.0689 -0.0464  0.2638
81005W        W81869  15.114   6.581   8.013  0.2450 -0.0826  0.1679
81006W        W81870  11.808   5.445   9.979  0.6222 -0.3145 -0.0382
81007W        W81871  14.234   8.092   7.266  0.1824  0.0515  0.0027
81008W        W81872  13.589   6.040   6.890  0.2991  0.2662 -0.0404
81009W        W81873  12.319   6.345  10.778  0.3752 -0.0871  0.2391
81010W        W81874  11.690   4.413  10.014 -0.0068  0.0732  0.1720
81011W        W81875   9.151   1.898  10.081 -0.2834 -0.1247  0.0318
81012W        W81876  10.151   3.129  11.463  0.2394  0.2162  0.1979
81013W        W81877  15.249   0.988   8.212 -0.1147  0.1832  0.0550
81014W        W81878  12.535   6.379   7.705  0.1369 -0.2359 -0.1433
81015W        W81879  11.683   3.189   8.061 -0.1108  0.1043 -0.0123
81016W        W81880  11.207   8.157   8.954  0.0197  0.0755  0.0680
81017W        W81881  13.091   6.081   8.983  0.1343 -0.0750  0.0870
81018W        W81882  13.532   6.360   7.450  0.1139  0.1802 -0.0810
81019W        W81883  10.227   3.740  10.217 -0.1382 -0.2763  0.3954
81020W        W81884  12.810   8.748   8.691 -0.0531 -0.0593 -0.0628
81021W        W81885  15.364   5.502   8.952 -0.3417 -0.1833 -0.0831
81022W        W81886  14.632   4.359   8.408 -0.1137 -0.1028 -0.1958
81023W        W81887  14.499   5.903  11.548  0.2035  0.1118  0.3306
81024W        W81888  10.239   3.644   6.970  0.3722  0.4984 -0.1020
81025W        W81889  12.031   6.338  12.614 -0.1090  0.0774  0.0971
81026W        W81890  11.033   3.964   5.191 -0.0710  0.0319 -0.0045
81027W        W81891  14.221   3.627   5.199  0.1934  0.0171  0.0717
81028W        W81892  12.318   5.439   9.804 -0.0893  0.1357  0.0385
81029W        W81893  11.371   4.079   7.911  0.0088  0.1151  0.1266
81030W        W81894  11.738   2.210   6.488 -0.1412  0.0333  0.1661
81031W        W81895  11.146   3.934   7.359  0.2384 -0.0704 -0.3256
81032W        W81896  14.359   2.955   9.554  0.0115  0.0145  0.1950
81033W        W81897  13.440   1.414  10.209 -0.1329 -0.0598 -0.0853
81034W        W81898  14.757   8.670  11.129 -0.3429  0.2008 -0.0368
81035W        W81899  14.364   5.855  10.435  0.1037  0.0385  0.0972
81036W        W81900  13.536   7.102  11.424 -0.1761  0.2111 -0.2076
81037W        W81901  14.512   5.087  11.021 -0.0520  0.0298 -0.1545
81038W        W81902  14.722   2.536   5.425  0.0655  0.0057  0.0956
81039W        W81903  12.693   3.086  12.772 -0.0737 -0.0796 -0.2432
81040W        W81904  11.548   8.220   7.006  0.1205 -0.0263 -0.2166
81041W        W81905  13.846   4.060   8.494  0.0966 -0.2897  0.3179
81042W        W81906  12.617   2.848  10.898 -0.0920 -0.0106  0.4369
81043W        W81907  13.476   4.235   8.223 -0.2039 -0.1839  0.1375
81044W        W81908  15.638   6.713   7.241  0.0421  0.1354  0.3005
81045W        W81909  12.140   9.512   9.621 -0.3258 -0.1887  0.0559
81046W        W81910   9.701   5.142   7.320 -0.1485 -0.1029 -0.0862
81047W        W81911  14.296   3.076   6.834 -0.0613 -0.0902  0.1237
81048W        W81912  15.194   7.765   9.881 -0.1974 -0.1665 -0.3067
81049W        W81913  10.451   6.037   8.056 -0.2744 -0.1704  0.0115
81050W        W81914  14.302   4.375   6.902 -0.2651 -0.0074 -0.0331
81051W        W81915  14.151   7.017   8.600  0.1750  0.0878  0.0696
81052W        W81916  16.186   5.430  10.552 -0.1941 -0.1359 -0.1553
81053W        W81917  13.959   2.803  12.231 -0.2036  0.0188  0.3119
81054W        W81918  13.859   8.352   9.404 -0.3436 -0.0600 -0.0453
81055W        W81919  13.012   2.871   8.450 -0.2376  0.4800 -0.0093
81056W        W81920  16.758   2.577  10.217  0.0981 -0.1484  0.0780
81057W        W81921  10.307   5.661  10.159 -0.0949  0.3735 -0.1009
81058W        W81922  12.512   3.322   9.988  0.2939 -0.2628  0.3941
81059W        W81923  10.541   7.754   8.342 -0.3473  0.1673 -0.2915
81060W        W81924  14.781   6.561   9.955  0.2737  0.1269  0.1402
81061W        W81925  12.327   6.804   9.424  0.0230 -0.1662 -0.0947
81062W        W81926  14.892   5.502   5.010  0.1345 -0.2356  0.2666
81063W        W81927  10.651   5.183   6.159  0.1082  0.3044  0.2230
81064W        W81928  16.319   2.899  12.097 -0.1667 -0.1555 -0.0236
81065W        W81929  11.540   7.709   9.898  0.2860 -0.1673  0.0661
81066W        W81930  12.019   5.038   9.021 -0.1687 -0.3142 -0.1919
81067W        W81931  12.832   6.044   9.946 -0.2181  0.0227  0.0698
81068W        W81932  13.090   2.467   9.746  0.0625  0.1901  0.1604
81069W        W81933  15.980   7.461   9.632  0.5363  0.2530  0.0535
81070W        W81934  12.954   4.128   9.601  0.1558 -0.1048 -0.1404
81071W        W81935  14.879   7.263   8.972 -0.0958  0.0775 -0.2931
81072W        W81936  13.678   5.748  11.213 -0.2354 -0.1220 -0.0856
81073W        W81937  15.716   5.917   9.571 -0.4276 -0.2173  0.1710
81074W        W81938  14.936   4.454   9.310 -0.0400 -0.1434  0.1997
81075W        W81939  12.781   7.102  10.372  0.1716  0.1385 -0.2424
81076W        W81940  16.209   6.978   8.600 -0.0117  0.0075  0.1274
81077W        W81941  12.064   5.672   7.441 -0.0355  0.1179  0.0473
81078W        W81942  15.541   6.336   6.913  0.1197  0.2343  0.0923
81079W        W81943  13.585   3.918  11.363  0.0876 -0.0176 -0.0567
81080W        W81944  11.624   8.435  10.165  0.5002 -0.0344  0.0771
81081W        W81945  15.348   2.212   6.109  0.1504 -0.0450  0.3278
81082W        W81946  16.264   4.663   9.887  0.0281  0.1299  0.3833
81083W        W81947  12.683   1.736   8.891  0.0998 -0.1279 -0.1603
81084W        W81948  14.695   3.529   8.998 -0.4039  0.0561 -0.1525
81085W        W81949  13.965   2.807   9.829 -0.0014  0.1661  0.1456
81086W        W81950  11.999   5.952   8.238 -0.2275  0.2646  0.1972
81087W        W81951  13.853   7.226   8.980  0.2529  0.0267  0.1252
81088W        W81952  12.892   3.877   7.379  0.3441  0.3811  0.1156
81089W        W81953  11.698   0.745   8.901 -0.2249 -0.1852 -0.1606
81090W        W81954  11.951   6.738   6.024  0.0277 -0.4632 -0.0385
81091W        W81955   9.482   5.098   8.372 -0.0095 -0.2391  0.0779
81092W        W81956  10.920   5.096  10.751  0.3197  0.1959  0.1922
81093W        W81957  11.484   5.385   8.765 -0.0473  0.0535 -0.0742
81094W        W81958  11.829   6.993   5.502 -0.1870 -0.0009 -0.2194
81095W        W81959  12.656   7.626   9.675  0.1514  0.3113 -0.0948
81096W        W81960  14.061   5.006   8.931  0.1426  0.1301  0.2820
81097W        W81961  12.903   3.605   8.707 -0.0640  0.0132  0.1066
81098W        W81962  16.008   6.228   7.657 -0.2008 -0.1531  0.2093
81099W        W81963  11.697   2.337   7.858  0.0895  0.0490  0.0933
81100W        W81964  11.316   8.336   6.155 -0.1302  0.0007  0.2464
81101W        W81965  12.180   6.373   9.991  0.0741 -0.4241  0.1658
81102W        W81966  12.210   2.429  10.765  0.1217  0.0143  0.0927
81103W        W81967  13.969   4.224   9.125  0.2487  0.0013  0.1679
81104W        W81968  11.886   7.533  12.036  0.3638 -0.0731  0.0194
81105W        W81969  13.933   7.219   7.735  0.1876 -0.2043  0.0172
81106W        W81970  13.559   4.036   7.314  0.0712 -0.0412 -0.1536
81107W        W81971  12.484   6.341   8.239 -0.2028  0.2687  0.1124
81108W        W81972  11.589   4.114   9.480  0.1010  0.1638  0.3460
81109W        W81973  12.795   5.792   6.914 -0.2068  0.0384  0.3808
81110W        W81974  12.772   3.272  11.784 -0.2831  0.0595 -0.0416
81111W        W81975  14.130   7.842  11.248  0.4598 -0.1777  0.0094
81112W        W81976  11.270   1.345  12.355  0.0693  0.1544  0.0795
81113W        W81977   9.053   3.832   7.593 -0.1742 -0.1331 -0.0599
81114W        W81978  11.885   5.949   6.007  0.0821 -0.2696  0.3233
81115W        W81979  10.809   7.048   6.108 -0.1905 -0.0530 -0.1786
81116W        W81980  10.972   6.908  10.248  0.1032 -0.1724 -0.0814
81117W        W81981  11.517   7.022   7.721 -0.0022 -0.0391 -0.0444
81118W        W81982  13.707   5.520   9.252  0.2397  0.0167 -0.2977
81119W        W81983  13.202   5.669   9.902 -0.2538 -0.0386  0.1028
81120W        W81984  13.754   6.525   9.531  0.2727  0.0873 -0.0100
81121W        W81985  13.497   7.755   7.429  0.0920 -0.2668  0.1484
81122W        W81986  13.598   5.609   7.870 -0.0363 -0.3492  0.2329
81123W        W81987  12.160   2.144   9.801 -0.0879  0.0355 -0.0610
81124W        W81988  12.881   5.105  11.041 -0.0130 -0.1959 -0.0529
81125W        W81989  13.645   6.088  12.223  0.0117  0.0263 -0.0266
81126W        W81990  10.159   6.445   9.970 -0.1135  0.0762 -0.0774
81127W        W81991  10.595   4.806   7.521  0.1023  0.0961  0.0266
81128W        W81992  13.533   5.785   8.847 -0.3308  0.0625  0.0628
81129W        W81993  13.771   7.569   6.994  0.1071 -0.1145 -0.0249
81130W        W81994  13.645   5.130   6.284  0.3131 -0.1341  0.0250
81131W        W81995  13.813   5.454   7.307 -0.0552 -0.3828  0.1805
81132W        W81996  11.464   6.424   6.711 -0.1599 -0.0203 -0.0274
81133W        W81997  13.015   4.956  10.303  0.1304  0.0397  0.0758
81134W        W81998  15.797   4.857   7.597 -0.3678  0.2487 -0.3410
81135W        W81999  10.507   4.641   6.297  0.2065  0.0241  0.0980
81136W        W82000  12.435   6.699   6.745  0.1236  0.2041 -0.1781
81137W        W82001  14.775   4.418   5.874 -0.0816  0.0101  0.4334
81138W        W82002  11.494   6.679   8.969 -0.3419  0.0258  0.0665
81139W        W82003  12.777   5.658   9.014  0.1135  0.2702 -0.2469
81140W        W82004  12.609   7.326  12.018 -0.1006 -0.2000 -0.0226
81141W        W82005  11.689   1.576  11.575  0.0093 -0.1733 -0.0828
81142W        W82006  16.075   4.269   9.118  0.0446 -0.0953 -0.0147
81143W        W82007  13.489   2.148   7.692 -0.1378 -0.1717 -0.1818
81144W        W82008  10.552   2.878   7.983 -0.0510 -0.0712  0.0591
81145W        W82009  10.500   1.863   8.773 -0.1883 -0.2055  0.0727
81146W        W82010  13.047   1.363   7.875  0.1697 -0.0005  0.2247
81147W        W82011  15.103   5.170  10.709 -0.3293  0.0981 -0.1818
81148W        W82012  11.567   5.601   7.398 -0.1277  0.0351 -0.1225
81149W        W82013  14.484   2.104   6.658  0.2696  0.1073 -0.2329
81150W        W82014  16.475   6.986   7.386 -0.3928 -0.1913 -0.2166
81151W        W82015   9.230   4.762   7.764  0.2083 -0.1646 -0.1334
81152W        W82016  12.521   7.381   8.191 -0.0475  0.2127 -0.1613
81153W        W82017  10.394   4.379   7.448  0.1559 -0.2927  0.3257
81154W        W82018  11.858   5.618   9.198  0.1350  0.2360 -0.2181
81155W        W82019  13.555   4.083   9.542 -0.2117 -0.0526 -0.2114
81156W        W82020  14.286   7.591   7.926  0.0508 -0.0005 -0.0276
81157W        W82021  13.597   6.432   8.213  0.2101  0.0966 -0.0192
81158W        W82022  10.810   7.513  11.433  0.0391 -0.1930  0.3556
81159W        W82023  11.331   7.217   8.713 -0.2150 -0.0341 -0.2136
81160W        W82024  12.601   5.294  10.550 -0.1242  0.3363 -0.0350
81161W        W82025  15.985   5.174   5.533  0.0477 -0.1011 -0.2137
81162W        W82026  13.824   8.799  10.894 -0.1669 -0.1463  0.1394
81163W        W82027  16.431   6.061   5.557 -0.0100  0.2700  0.0858
81164W        W82028  14.594   8.117   9.180 -0.3517 -0.0697  0.2395
81165W        W82029  14.517   8.124   4.524 -0.2653  0.0640 -0.0726
81166W        W82030  13.752   3.418  11.164  0.1295  0.1026  0.1782
81167W        W82031   9.703   4.863  11.301 -0.1190  0.0519  0.0973
81168W        W82032  14.311   4.371  10.531  0.0854  0.0515  0.2765
81169W        W82033  14.217   5.052   9.750  0.0403  0.1046  0.0653
81170W        W82034  12.605   7.299  13.759  0.0792 -0.0671  0.4100
81171W        W82035  13.220   3.042   7.983 -0.0607 -0.1466  0.1664
81172W        W82036  13.331   7.374   9.167  0.0845 -0.0770  0.0141
81173W        W82037  12.794   3.249   9.563  0.1304  0.1856 -0.1491
81174W        W82038  13.928   9.594  10.528  0.3683  0.1562  0.1005
81175W        W82039  14.205   4.988  10.623  0.1187  0.0065 -0.3283
81176W        W82040  14.784   9.611   5.179 -0.1263 -0.2461  0.1019
81177W        W82041  15.700   5.689  10.611 -0.1203  0.0742  0.1692
81178W        W82042  12.458   2.967   9.338 -0.1429  0.2641 -0.1259
81179W        W82043  12.527   4.451   9.666  0.1104  0.1113 -0.1486
81180W        W82044  10.962   6.358   7.872  0.1746 -0.1005 -0.2614
81181W        W82045  13.316   5.612   7.038  0.0213 -0.1523  0.2071
81182W        W82046  10.237   3.129  10.972 -0.1314  0.1671 -0.0720
81183W        W82047  14.717   9.057   8.462 -0.1532 -0.2539 -0.2186
81184W        W82048  13.929   6.806   9.964  0.0863  0.1113  0.3241
81185W        W82049  13.630   5.843  13.389  0.3484 -0.4691  0.1498
81186W        W82050  12.301   4.038   7.686 -0.1885  0.3033 -0.2564
81187W        W82051  13.036   6.959   8.884  0.1429 -0.0814  0.6520
81188W        W82052  14.708   4.713   6.735  0.0584 -0.2051  0.2172
81189W        W82053  12.679   6.280  11.977 -0.1541  0.1036  0.0955
81190W        W82054  11.815   2.891  12.553 -0.3806 -0.1211  0.0672
81191W        W82055  11.645   4.904   8.498  0.2524  0.0181 -0.1355
81192W        W82056  13.355   2.831   9.178 -0.0608  0.1096 -0.0989
81193W        W82057  12.445   7.180   7.255 -0.1487  0.3859  0.0175
81194W        W82058  14.232   4.664   9.374 -0.1909  0.0289  0.0689
81195W        W82059   8.520   5.028   8.741  0.0208  0.0526 -0.4169
81196W        W82060  14.748   7.639   9.889  0.1244 -0.1413  0.2886
81197W        W82061  12.978   3.182  10.057 -0.0895 -0.1677 -0.1442
81198W        W82062  12.589   4.345   9.169  0.1856  0.0905  0.1554
81199W        W82063  12.476   8.027  10.027 -0.1072  0.0340  0.0309
81200W        W82064  16.267   5.801  11.341 -0.1974 -0.3013  0.2095
81201W        W82065  13.317   3.779   9.204  0.0435 -0.0298  0.0963
81202W        W82066  13.500   6.950   7.208 -0.2339 -0.2014  0.1272
81203W        W82067  15.511   5.975   9.045 -0.1437  0.0006  0.1348
81204W        W82068  14.784   3.699   7.420 -0.0246 -0.1768 -0.2698
81205W        W82069  15.251   2.845  11.106 -0.2531  0.3252  0.0577
81206W        W82070  11.721   4.602   9.449 -0.2123  0.1426 -0.1288
81207W        W82071  13.558   4.374   7.704 -0.3725 -0.2877  0.0254
81208W        W82072  12.990   3.463   7.753 -0.0078 -0.1824 -0.0668
81209W        W82073  12.893   6.269  10.497 -0.1884 -0.1007 -0.0225
81210W        W82074  13.653   6.803  10.415  0.2878 -0.1005 -0.2190
81211W        W82075  12.119   3.055  11.968  0.1999 -0.2861  0.0323
81212W        W82076  12.119  10.019   9.339 -0.2536 -0.0391  0.3891
81213W        W82077  12.475   6.753  10.224  0.0160  0.0076  0.0474
81214W        W82078  13.074   6.885   5.844 -0.0182  0.0788  0.0113
81215W        W82079  16.227   7.105   9.141  0.1587 -0.1282 -0.0110
81216W        W82080   8.841   4.759  10.309  0.3740 -0.2011  0.2239
81217W        W82081  13.611   3.145   8.356  0.0562  0.2550  0.2902
81218W        W82082  10.537   5.293   7.418  0.0043  0.3996  0.1234
81219W        W82083  14.062   3.561   8.497  0.0093  0.1190 -0.0131
81220W        W82084  15.280   3.739   9.082 -0.0913  0.0288 -0.0629
81221W        W82085  11.177   3.696   8.616 -0.1035  0.1783  0.0294
81222W        W82086  12.801   6.946   9.886 -0.0023 -0.0012  0.0856
81223W        W82087  13.904   4.057  12.477 -0.1772 -0.2272 -0.0555
81224W        W82088  11.725   6.778   8.473  0.0493  0.1207  0.2595
81225W        W82089  13.497   2.753   8.707 -0.0444  0.0549 -0.0682
81226W        W82090  12.712   6.582   5.807  0.2081  0.0372 -0.1194
81227W        W82091  10.635   5.721  10.675  0.1089 -0.0485  0.1557
81228W        W82092  13.765   4.218  10.297 -0.1153  0.2234 -0.0847
81229W        W82093  14.435   4.172   8.859 -0.0866 -0.1379  0.3306
81230W        W82094  12.787   5.011   5.672 -0.2358 -0.1648 -0.2273
81231W        W82095  12.519   7.336  10.793  0.1613  0.1209 -0.1138
81232W        W82096  13.509   7.192   8.634  0.0386  0.0497  0.0748
81233W        W82097  15.077   6.422   8.491  0.3514 -0.3874  0.2022
81234W        W82098  15.729   6.605   5.110  0.2493  0.2738 -0.2018
81235W        W82099  11.490   2.942  10.295 -0.1091  0.4270  0.1066
81236W        W82100  12.704   2.231   7.698 -0.0205  0.3244 -0.1772
81237W        W82101  18.065   7.257   8.016 -0.0845  0.0346 -0.1669
81238W        W82102  11.893   3.903   8.686 -0.1576  0.1631 -0.0986
81239W        W82103  13.291   3.855   7.840  0.2399  0.0242  0.1344
81240W        W82104  16.737   5.361  10.672  0.2683  0.0351 -0.0538
81241W        W82105  11.311   4.684   5.833 -0.0236 -0.0904 -0.0136
81242W        W82106  13.259   6.348   9.714  0.0084  0.2115  0.3824
81243W        W82107  13.068   4.791   7.545  0.3669 -0.0987 -0.0970
81244W        W82108  11.212   4.878   7.472 -0.0746 -0.0080 -0.1115
81245W        W82109  14.622   6.681  10.608 -0.2845 -0.1384 -0.0672
81246W        W82110  13.001   2.830  12.471  0.2197  0.0353  0.0756
81247W        W82111  10.636   6.239  10.849  0.0630  0.1021  0.1928
81248W        W82112  11.733   5.463   8.255  0.2809  0.2322 -0.1041
81249W        W82113  11.655   2.825  12.023  0.1020 -0.1602 -0.0602
81250W        W82114  12.468   4.991  14.108  0.0674 -0.3127  0.4230
81251W        W82115  14.666   4.950   7.672  0.0395 -0.0017  0.2543
81252W        W82116  14.173   5.859   9.026 -0.2811 -0.1161  0.0994
81253W        W82117  14.006   6.808   9.232 -0.4639  0.0632  0.0003
81254W        W82118  14.414   5.329   9.114  0.1676 -0.4960 -0.3038
81255W        W82119  12.486   3.528   7.755 -0.0826  0.0054  0.1276
81256W        W82120   9.395   5.316   7.886  0.0088  0.2498 -0.2329
81257W        W82121  11.714   4.834   7.289 -0.1160 -0.0019  0.2728
81258W        W82122  14.202   4.146   7.531 -0.2595 -0.2010  0.0029
81259W        W82123  11.373   6.867   9.400 -0.2873  0.3083  0.1759
81260W        W82124  13.074   4.781   8.867  0.0322  0.0874 -0.2755
81261W        W82125  12.523   4.888  10.806 -0.1447 -0.0381  0.1055
81262W        W82126  10.096   4.111  12.008 -0.3173 -0.1039 -0.0615
81263W        W82127  11.811   6.304   8.607 -0.4000  0.2848 -0.1867
81264W        W82128  12.290   5.031   6.743 -0.2476 -0.0128  0.0251
81265W        W82129  14.383   5.378   7.948  0.2439 -0.1237 -0.1102
81266W        W82130  14.869   7.177  10.484  0.2314  0.2127 -0.0941
81267W        W82131  10.408   5.470   8.444 -0.0178 -0.3340 -0.2010
81268W        W82132  11.727   6.231   9.258 -0.0535  0.2292  0.1366
81269W        W82133  13.518   7.130   5.936  0.0216  0.1758  0.0619
81270W        W82134  11.386   5.859  11.128 -0.0395 -0.3014 -0.0974
81271W        W82135  11.100   3.957   9.420  0.0596 -0.1959 -0.0185
81272W        W82136  11.337   4.691   7.017  0.1994 -0.2584 -0.0695
81273W        W82137  11.982   6.661  10.406 -0.0706 -0.0917 -0.1343
81274W        W82138  13.372   4.963   9.326  0.0572 -0.0070 -0.1104
81275W        W82139  10.398   8.366   7.414  0.1864  0.1002 -0.0115
81276W        W82140  11.898   5.771   8.703  0.1322  0.0041 -0.4464
81277W        W82141  11.307   6.198   4.257 -0.0252 -0.1664 -0.2413
81278W        W82142  14.775   4.100  10.480  0.1534  0.3149 -0.0109
81279W        W82143  15.649   2.576   5.811 -0.0722 -0.0627  0.1573
81280W        W82144  12.578   5.172  12.758  0.0995  0.0389 -0.1641
81281W        W82145  14.707   7.790  11.004 -0.0317 -0.2666  0.0844
81282W        W82146  12.613   6.766  10.746 -0.1862 -0.2838 -0.1931
81283W        W82147  12.870   5.871  12.695 -0.1256 -0.0323 -0.3153
81284W        W82148  11.912   7.626   8.937 -0.1115  0.0207  0.1587
81285W        W82149  13.545   5.097   8.866  0.2137  0.1121 -0.0804
81286W        W82150  13.741   3.926   5.915  0.0611  0.1821 -0.1008
81287W        W82151  11.746   5.047   6.726  0.1120  0.4288 -0.4533
81288W        W82152  11.174   3.241  10.036 -0.0202 -0.0902  0.0215
81289W        W82153  12.194   3.370   6.957  0.0691  0.0128 -0.3064
81290W        W82154  10.836   4.929   7.101 -0.1767 -0.1049  0.1927
81291W        W82155  10.046   4.464   4.311 -0.2771  0.0095 -0.1291
81292W        W82156  14.346   7.661   7.015 -0.0934 -0.3617  0.0061
81293W        W82157  12.465   5.854  10.772  0.1824 -0.0591 -0.0350
81294W        W82158   9.157   6.334   7.182 -0.1674 -0.0216 -0.2022
81295W        W82159  10.608   4.048   7.078 -0.0953  0.2604 -0.2182
81296W        W82160  13.961   5.560   8.265 -0.0021 -0.0142  0.2412
81297W        W82161  10.667   6.503   8.267  0.0249 -0.1569  0.0057
81298W        W82162  13.188   6.935   9.445  0.1722 -0.1086  0.0249
81299W        W82163  13.346   1.605   8.324 -0.2042 -0.1742 -0.1992
81300W        W82164  14.670   6.055   8.521 -0.1822 -0.0840  0.0389
81301W        W82165  10.667   8.851   8.255 -0.2695 -0.0263  0.2386
81302W        W82166  14.244   3.804   9.189  0.0134 -0.0864 -0.1330
81303W        W82167  12.966   1.952   9.717  0.1164  0.5057  0.1176
81304W        W82168  11.371   5.630  10.071  0.0875  0.1963  0.0844
81305W        W82169  12.912   4.682   9.883 -0.0243 -0.0502 -0.3956
81306W        W82170  10.271   1.324  10.160  0.2341 -0.1206  0.0156
81307W        W82171  12.115   6.059   9.009 -0.0349 -0.2396  0.1127
81308W        W82172  12.960   3.750   9.997  0.1244 -0.1713  0.3862
81309W        W82173  11.828   3.680  10.580 -0.0940 -0.1381  0.1008
81310W        W82174  11.213   1.504  10.177  0.3217  0.3199 -0.1137
81311W        W82175  13.500   5.420   8.410  0.1264  0.0846 -0.1547
81312W        W82176  11.778   7.055  10.193  0.0025  0.1317  0.2591
81313W        W82177  15.085   6.477  10.441 -0.3019  0.1335  0.0187
81314W        W82178  14.571   6.719   8.722 -0.1890 -0.3147  0.1253
81315W        W82179  11.797   6.059   7.671 -0.0051  0.1063  0.1323
81316W        W82180  13.107  29.135   8.729  0.1992 -0.4920 -0.2340
81317W        W82181  13.190   4.268   5.906  0.2130  0.2761  0.2822
81318W        W82182   9.682   4.646   7.950 -0.0687 -0.2264 -0.0810
81319W        W82183  12.396   5.936   8.618  0.0921 -0.2950 -0.0908
81320W        W82184  13.221   6.789   8.456  0.1484 -0.1248 -0.1641
81321W        W82185  13.425   4.683  10.239  0.2463  0.0394  0.2033
81322W        W82186  15.965   6.547   8.521  0.0365 -0.1494 -0.4061
81323W        W82187  11.292   4.928  11.054 -0.0985 -0.1809 -0.1199
81324W        W82188   9.336   5.708  12.438  0.3201 -0.0452  0.0787
81325W        W82189  14.493   5.960   9.879  0.0186 -0.2044  0.0467
81326W        W82190  14.883   3.906  13.415 -0.1999 -0.2157  0.2275
81327W        W82191  13.856   3.521  12.599 -0.0330 -0.0524 -0.4054
81328W        W82192  10.950   4.609   8.789 -0.1993 -0.1040 -0.0939
81329W        W82193  11.198   4.478  10.106 -0.0365 -0.3956 -0.1333
81330W        W82194  12.389   2.287   6.843 -0.2410 -0.0404  0.0434
81331W        W82195  14.660   6.411   8.157  0.2214 -0.0448  0.3977
81332W        W82196  14.995   6.046  11.854 -0.1512 -0.0242  0.0903
81333W        W82197  13.221   4.672   7.988  0.1271  0.1309  0.3645
81334W        W82198  14.374   7.028   8.044 -0.0504  0.1363 -0.0044
81335W        W82199  11.708   9.066  12.876  0.1442 -0.0883  0.1137
81336W        W82200  12.013   8.350   9.311 -0.1340 -0.2430 -0.1920
81337W        W82201  15.341   7.040   8.760  0.1303  0.0086 -0.1686
81338W        W82202  13.546   7.727   8.357 -0.1179 -0.2092  0.0655
81339W        W82203  12.224   4.956   8.602 -0.0677  0.0431  0.0828
81340W        W82204  12.384   7.327  10.069  0.0964  0.2052  0.2231
81341W        W82205  13.436   4.764   6.685 -0.1037 -0.0524  0.0797
81342W        W82206  10.582   5.621   9.001 -0.0704  0.1541 -0.1451
81343W        W82207  12.029   3.488   9.002  0.2855  0.1667  0.3820
81344W        W82208  13.919   7.863   9.696  0.1243 -0.0046  0.0813
81345W        W82209  13.686   3.679   8.232  0.1678  0.2883 -0.3074
81346W        W82210  13.415   6.108   7.863  0.2374  0.2340  0.2213
81347W        W82211  12.863   5.184   9.147  0.0419  0.1003  0.0442
81348W        W82212   8.594   6.575  16.301  0.1442 -0.1897  0.1187
81349W        W82213  12.404   7.485  16.280  0.1018  0.0326  0.0556
81350W        W82214  12.821   6.440  11.531 -0.1149  0.0440  0.4552
81351W        W82215  14.019   7.816  16.787  0.0623  0.0317 -0.0200
81352W        W82216  12.779   7.876  10.757 -0.2786  0.1789  0.2021
81353W        W82217  12.122   3.246  11.023  0.4330  0.0368 -0.1840
81354W        W82218  10.272   5.831  12.298 -0.2593 -0.1055  0.0716
81355W        W82219  11.787   7.181  10.750  0.2475  0.0657 -0.1312
81356W        W82220  11.753   7.169  15.243 -0.0477 -0.1279  0.0292
81357W        W82221  11.110   4.335  13.467  0.2600  0.3218 -0.1895
81358W        W82222  10.940   7.570  11.899 -0.0603  0.1507 -0.2288
81359W        W82223  13.960   3.201  11.885 -0.2377  0.0514 -0.3696
81360W        W82224  10.733   3.514   9.400 -0.1271 -0.2166  0.0250
81361W        W82225  13.548   4.233  14.803  0.1764 -0.0040 -0.1001
81362W        W82226  11.210   6.399  13.571 -0.1240 -0.3348  0.0670
81363W        W82227  10.470   6.374  12.889  0.1806 -0.2003  0.0877
81364W        W82228  13.658   4.564  11.079  0.0918  0.0919  0.1374
81365W        W82229  10.463   7.197  13.680  0.1802 -0.2411 -0.0318
81366W        W82230  12.887   3.196  14.197 -0.0161  0.0365  0.0040
81367W        W82231  15.127   5.096  14.402  0.3239  0.0291  0.2209
81368W        W82232  13.344   5.065  13.536 -0.0506  0.0947 -0.1712
81369W        W82233  13.768   4.147  13.384  0.0650  0.1439 -0.2051
81370W        W82234  15.582   8.559  13.934  0.0426  0.0332  0.2314
81371W        W82235  13.227   4.902  13.991  0.1705 -0.0310 -0.0989
81372W        W82236   9.727   7.891  11.963  0.0449 -0.3240 -0.1793
81373W        W82237  10.800   5.214  11.864 -0.1315  0.1605 -0.1618
81374W        W82238  13.882   2.651  13.082  0.3295 -0.0244  0.2439
81375W        W82239   9.743   6.398  15.722  0.3059 -0.1576 -0.1019
81376W        W82240  11.880   5.028  14.966 -0.0611 -0.0358  0.2529
81377W        W82241  11.751   3.184  10.664  0.1504  0.0785 -0.0641
81378W        W82242  12.892   6.041   9.457 -0.3500  0.1069 -0.0211
81379W        W82243  12.357   8.358  16.018  0.2472 -0.3838 -0.1164
81380W        W82244  12.689   4.830  15.380  0.1172 -0.1040  0.1189
81381W        W82245  12.050   6.333  14.154  0.2727 -0.1878 -0.0206
81382W        W82246  13.538   3.722  14.526  0.1959  0.0062 -0.1902
81383W        W82247  14.905   7.576  14.892  0.0225 -0.1345 -0.1668
81384W        W82248   9.716   1.633  11.933 -0.2726  0.4049  0.2459
81385W        W82249  11.764   8.479  12.195 -0.0622  0.1198  0.4747
81386W        W82250  15.088   8.739  13.707 -0.0910 -0.0076  0.0447
81387W        W82251  16.205   5.259  12.055  0.1352  0.2285 -0.0983
81388W        W82252  12.458   4.968   9.727 -0.0789  0.1977 -0.4154
81389W        W82253  16.327   3.387  12.253 -0.0647  0.0767 -0.2558
81390W        W82254  13.688   8.385  13.406  0.2456 -0.2041  0.0209
81391W        W82255  16.150   7.467  11.796  0.3378  0.2070 -0.0071
81392W        W82256  12.303   8.652  13.296  0.3070 -0.1596  0.2814
81393W        W82257  11.107   5.986   9.749  0.1003  0.1977  0.0249
81394W        W82258  12.922   5.136  13.336  0.0505  0.0591 -0.1341
81395W        W82259  12.349   3.493  12.049  0.0132  0.0568 -0.1045
81396W        W82260  15.967   4.440  12.040  0.1114 -0.0499  0.1935
81397W        W82261  13.983   4.010  11.722 -0.1167 -0.0596 -0.1864
81398W        W82262  11.994   7.610  14.001 -0.0884  0.0732 -0.0992
81399W        W82263  12.366   1.847   7.689 -0.0471 -0.0975 -0.0771
81400W        W82264  13.303   6.118  11.227 -0.2199  0.2451 -0.1152
81401W        W82265  14.047   6.550  10.492 -0.2030 -0.0687  0.0111
81402W        W82266  10.890   6.397  16.417 -0.1629 -0.1371 -0.0893
81403W        W82267  10.437   9.042  12.010 -0.0805 -0.2737  0.2087
81404W        W82268  11.876   6.248  11.712  0.0203  0.1434 -0.0261
81405W        W82269  13.606   5.397   9.762  0.1308  0.0243 -0.1863
81406W        W82270   9.811   5.762  10.284  0.0364  0.3282  0.2891
81407W        W82271  11.973   6.010  10.709  0.3172  0.0043 -0.0166
81408W        W82272  11.560   2.342  10.946  0.1835 -0.1828  0.0983
81409W        W82273  11.010   8.064  16.595 -0.1113  0.0453  0.1493
81410W        W82274  12.678   7.813  13.552  0.0119  0.6332 -0.0050
81411W        W82275  13.791   7.529  12.471 -0.0224  0.1708 -0.2247
81412W        W82276  11.303   5.652  12.146 -0.1032 -0.1159 -0.3355
81413W        W82277  13.598   4.701  16.027  0.1093  0.0397  0.1261
81414W        W82278  11.801   4.248  13.254  0.2726  0.1106  0.0513
81415W        W82279  11.730   4.261  12.194 -0.3189  0.0882  0.2075
81416W        W82280  12.636   7.882  12.549 -0.2460  0.2342 -0.0163
81417W        W82281  15.583   8.310  12.891  0.3701 -0.2780  0.1656
81418W        W82282  14.314   8.002  14.420 -0.1968  0.1261  0.2991
81419W        W82283  13.345   4.716  12.275  0.1166 -0.0762  0.0528
81420W        W82284  11.537   7.526  13.058  0.0312 -0.1657 -0.0569
81421W        W82285  14.176   3.845  12.868  0.1065 -0.1125  0.3094
81422W        W82286  13.835   6.366  11.037 -0.3660  0.4153 -0.2150
81423W        W82287  12.733   4.574  12.022  0.3475  0.0980  0.0115
81424W        W82288  13.282   4.907  10.737 -0.0440  0.0190 -0.0403
81425W        W82289  12.020   6.299  15.681 -0.3450 -0.2176  0.0449
81426W        W82290  12.436   5.064  11.297 -0.0622 -0.0831  0.0992
81427W        W82291  12.217   3.676  12.490 -0.0853 -0.0153 -0.3171
81428W        W82292  11.916   6.767  16.427  0.1561 -0.1269  0.0856
81429W        W82293   9.452   6.126  13.879  0.3382  0.2076 -0.1534
81430W        W82294  10.453   2.689  12.572  0.3104 -0.1328  0.0346
81431W        W82295  12.843   1.982  12.245  0.0780  0.1144 -0.0647
81432W        W82296  12.431   5.253  11.964  0.2732 -0.1868  0.1870
81433W        W82297  15.509   4.407  12.375  0.2981 -0.2786 -0.0384
81434W        W82298  15.158   6.342  13.841 -0.1250 -0.3790 -0.0487
81435W        W82299  12.643   4.674  12.962  0.6563  0.0153 -0.2617
81436W        W82300  15.839   9.403  16.159  0.1459  0.2267  0.0697
81437W        W82301  15.223   4.002  14.424  0.1053  0.2412 -0.0044
81438W        W82302  12.581   4.085  15.697 -0.2516  0.2729 -0.0666
81439W        W82303  13.514   9.588  16.233 -0.2973 -0.0974 -0.1351
81440W        W82304  12.226   8.904  12.828  0.3698  0.3578 -0.0242
81441W        W82305  13.791   2.607  11.798 -0.2478 -0.0032  0.0717
81442W        W82306  12.754   5.821  15.194  0.0169 -0.2014  0.0449
81443W        W82307  13.102   4.246  12.185  0.1610 -0.2718  0.3136
81444W        W82308  12.811   5.368  10.063  0.2533  0.2101 -0.0481
81445W        W82309  11.444   7.530  18.863 -0.1355  0.1759 -0.4171
81446W        W82310  11.788   5.613  13.687 -0.1186  0.1459  0.1876
81447W        W82311  10.452   6.832  13.299 -0.0948  0.0329  0.1742
81448W        W82312  15.333   6.486  11.836  0.0089 -0.2125  0.1372
81449W        W82313  12.098   6.122  12.136  0.2984 -0.1070  0.0131
81450W        W82314  14.413   4.203   9.512  0.2796  0.1995  0.0698
81451W        W82315  15.463   4.470  10.418 -0.2759  0.1652  0.0134
81452W        W82316  13.818   1.341  12.104 -0.0945  0.0054  0.0553
81453W        W82317  11.637   7.814  12.637  0.2257  0.2499  0.0686
81454W        W82318  11.108   3.928  12.275 -0.1160 -0.0010 -0.1386
81455W        W82319  12.146   6.632  13.086 -0.4051  0.0673 -0.1013
81456W        W82320  11.889   5.193  12.307  0.2795 -0.0325  0.0604
81457W        W82321   9.985   4.476  15.184 -0.3030  0.0702 -0.3208
81458W        W82322  11.114   5.188  12.648  0.1784  0.1381  0.0448
81459W        W82323  14.074   7.055  14.079 -0.1641 -0.0488 -0.2471
81460W        W82324  14.711   4.127  11.776 -0.2559 -0.0577  0.1633
81461W        W82325  11.257   6.612  13.073 -0.2083  0.2510  0.0380
81462W        W82326  12.964   5.796   8.570  0.0107 -0.2097  0.3394
81463W        W82327  14.688   8.000  12.690  0.2558 -0.2873  0.1097
81464W        W82328  14.261   5.130  13.728 -0.1191 -0.1307 -0.1552
81465W        W82329  11.248   7.114  14.619  0.0252  0.2939  0.0635
81466W        W82330  14.631   5.697  11.995 -0.1718 -0.1776  0.1913
81467W        W82331  13.727   5.403  11.691  0.0532  0.2409  0.2935
81468W        W82332  12.926   5.809  10.328 -0.0929  0.1378  0.1286
81469W        W82333  12.806   5.569   9.589  0.0620  0.1548  0.0348
81470W        W82334  13.120   5.158   9.724 -0.0626  0.1724 -0.2582
81471W        W82335  13.427   5.335  10.243  0.3339  0.0423 -0.1030
81472W        W82336  11.683   5.763  11.607  0.0341 -0.1872  0.1449
81473W        W82337  15.164   3.122  12.821  0.2702 -0.1411 -0.1725
81474W        W82338   9.097   4.632  12.714 -0.1021  0.1099 -0.0164
81475W        W82339  13.130   5.615  13.537 -0.0280 -0.3046  0.0417
81476W        W82340  13.773   6.249  12.691  0.0794 -0.2425  0.0194
81477W        W82341  10.775   5.803  11.889  0.3154  0.3239 -0.0510
81478W        W82342  16.501   7.194  12.823 -0.0360 -0.0740 -0.1578
81479W        W82343  12.197   4.228  12.949 -0.1220  0.0497  0.0274
81480W        W82344  13.020   4.647  13.420  0.0516 -0.4342  0.0939
81481W        W82345  15.113   3.288  11.864 -0.0577  0.0136  0.0990
81482W        W82346  13.857   3.635  13.478 -0.0378  0.1586 -0.2671
81483W        W82347  10.670   5.037  13.021  0.1872  0.1697  0.0178
81484W        W82348  13.673   5.019  13.092  0.3274 -0.0180 -0.2334
81485W        W82349  12.327   2.996  14.917 -0.2413 -0.0506  0.0304
81486W        W82350  13.040   6.770  12.757  0.0067 -0.0555 -0.0126
81487W        W82351  12.843   7.441  12.646 -0.0778  0.1384  0.2947
81488W        W82352  10.282   5.770  11.227 -0.0023 -0.0476 -0.0390
81489W        W82353  11.524   1.707  15.811  0.0381  0.1625 -0.2392
81490W        W82354  13.453   6.716  11.125  0.0545 -0.0058 -0.0224
81491W        W82355  12.684   2.859   9.823 -0.1202  0.3901  0.0695
81492W        W82356  11.136   6.648  15.957  0.2042 -0.0471  0.1470
81493W        W82357  11.692   4.735  12.346  0.1440  0.0061  0.1586
81494W        W82358  12.736   3.295  11.300  0.1213  0.1412  0.1627
81495W        W82359  15.576   7.174  12.423 -0.0149  0.0111  0.0384
81496W        W82360  12.761   5.877  13.804 -0.1974 -0.0410 -0.0897
81497W        W82361  11.629   6.825  13.875  0.3856 -0.0570 -0.1982
81498W        W82362  12.173   7.093  14.008  0.1781  0.2877  0.2554
81499W        W82363  10.803   2.324  12.409  0.1096 -0.0492  0.1658
81500W        W82364  12.476   8.203  15.554 -0.0752  0.1893  0.1644
81501W        W82365  11.016   3.071   8.737  0.1445 -0.0243 -0.4333
81502W        W82366  12.084   3.914  11.998  0.0072 -0.1672  0.0083
81503W        W82367  12.047   5.775  12.791 -0.0921  0.0328  0.0638
81504W        W82368  14.276   6.403  12.825  0.0193  0.0851 -0.3809
81505W        W82369  12.609   2.999  12.210 -0.0968 -0.2704  0.0481
81506W        W82370  12.620   0.709   9.073  0.1296 -0.1428 -0.2869
81507W        W82371  13.657   3.270  13.013  0.0774 -0.0243  0.1158
81508W        W82372  11.591   5.377  11.879  0.1903  0.2071  0.2078
81509W        W82373  11.186   6.022  13.150  0.0531  0.0400  0.1790
81510W        W82374  12.662   7.432  15.134 -0.1264  0.0526 -0.1018
81511W        W82375  14.813   6.509  14.755 -0.5015  0.2829 -0.2783
81512W        W82376  11.154   6.801  16.740 -0.4046 -0.0173  0.0106
81513W        W82377  11.557   2.355  12.590  0.3542 -0.1222 -0.0633
81514W        W82378   9.846   3.381  12.456  0.2910 -0.0431 -0.0969
81515W        W82379  12.132   7.523  11.596 -0.0784 -0.1994  0.3943
81516W        W82380  12.131   7.015  12.129 -0.1948  0.0041  0.1869
81517W        W82381  10.950   4.728  11.734 -0.3896  0.0157  0.0565
81518W        W82382  14.864   7.196  11.920 -0.1728  0.2014 -0.2021
81519W        W82383  11.958   5.045  10.969 -0.0066 -0.0033  0.1054
81520W        W82384  13.424   6.863  11.918  0.0114 -0.0445 -0.1685
81521W        W82385  12.344   2.952  11.536  0.0385 -0.0024  0.0459
81522W        W82386  11.825   1.499  12.482 -0.0034  0.2415  0.0751
81523W        W82387  14.187   4.960  11.801 -0.0607 -0.0620 -0.1826
81524W        W82388  10.682   7.788  12.968  0.1646  0.1532 -0.0462
81525W        W82389   8.364   8.007  12.728  0.0721  0.0348 -0.0020
81526W        W82390  11.219   6.736  12.031 -0.3373  0.0446 -0.0870
81527W        W82391  12.325   4.572  13.321 -0.1152 -0.1849  0.0190
81528W        W82392  11.567   6.210   9.743  0.1094 -0.0276  0.0524
81529W        W82393  11.735   9.202  10.955  0.1150 -0.2917  0.1387
81530W        W82394  13.187   4.837  12.981  0.0927  0.0630  0.0940
81531W        W82395  11.742   4.814  11.367 -0.1179 -0.2080  0.2574
81532W        W82396  14.940   5.269  11.217 -0.0500  0.1876  0.0343
81533W        W82397  13.482   7.805  14.508  0.0358 -0.0081  0.0074
81534W        W82398  13.508   1.697  12.189  0.1007  0.0463 -0.0145
81535W        W82399  12.129   2.956   8.906  0.0833  0.0756 -0.1408
81536W        W82400  11.418   6.485  12.401  0.1874 -0.1358  0.0729
81537W        W82401  11.293   7.090  13.353  0.0468 -0.0646 -0.1642
81538W        W82402  11.823   8.495  14.060 -0.3733  0.2045  0.0706
81539W        W82403  11.670  10.117  10.545  0.1075  0.0502 -0.1168
81540W        W82404  11.237   7.121  13.954 -0.0680  0.1488 -0.1770
81541W        W82405  12.609   3.966  12.685 -0.0346  0.0996  0.1145
81542W        W82406  13.071   3.979  12.977 -0.0716  0.0902 -0.0465
81543W        W82407  11.927   3.785  13.021 -0.3179 -0.2343 -0.3577
81544W        W82408  11.348   5.324  13.595  0.1519  0.0295  0.1241
81545W        W82409  12.792   6.431  12.509  0.1658 -0.0022 -0.2809
81546W        W82410  10.356   6.897  12.088 -0.0778 -0.2714 -0.0826
81547W        W82411  12.038   2.043  10.973  0.1303 -0.1773 -0.0683
81548W        W82412  11.296   4.549  11.421 -0.2116 -0.0583 -0.0308
81549W        W82413  14.328   4.163  12.164  0.0269  0.2595 -0.0302
81550W        W82414  14.163   5.831  11.148  0.2213 -0.0659 -0.1231
81551W        W82415  13.664   5.184  14.002 -0.0675  0.0552  0.0401
81552W        W82416  11.827   3.378  12.735  0.1012 -0.2291 -0.2434
81553W        W82417  13.793   3.704  10.505  0.1348  0.2284 -0.2414
81554W        W82418  10.835   6.433  13.210 -0.1943 -0.3441 -0.0541
81555W        W82419  14.092   3.571  11.481  0.0722 -0.3617 -0.0829
81556W        W82420  13.611   8.439  13.903  0.0946 -0.0039  0.3291
81557W        W82421  14.859   6.227  13.031 -0.0986  0.1269  0.3022
81558W        W82422  12.356   2.082  12.989 -0.0993 -0.2290 -0.2951
81559W        W82423  11.951   9.930  12.779  0.0648  0.1671 -0.0486
81560W        W82424  10.799   6.648  12.260 -0.2097 -0.1222  0.0627
81561W        W82425  13.851   2.918  13.980  0.0817 -0.0136  0.0172
81562W        W82426  14.201   6.294  15.663  0.0172 -0.2035 -0.2407
81563W        W82427  13.355   7.734  11.746  0.1593 -0.1806 -0.0535
81564W        W82428  14.381   7.174   9.059  0.1293  0.1572  0.0736
81565W        W82429  15.153   7.964  10.788  0.0214 -0.1913  0.0074
81566W        W82430  11.511   8.980  16.063 -0.1200 -0.1992 -0.1021
81567W        W82431  14.887   5.861  16.663 -0.0420 -0.1518 -0.4033
81568W        W82432  13.053   4.020  16.845  0.2345  0.0527 -0.0351
81569W        W82433  13.538   4.214   8.824 -0.0560 -0.1050 -0.0077
81570W        W82434  11.426   8.014  15.142  0.0877 -0.2863 -0.1462
81571W        W82435  13.818   2.987  11.437  0.2575 -0.1880  0.1421
81572W        W82436  12.268   7.444  12.358 -0.4728 -0.1104  0.3097
81573W        W82437  10.522   5.468  14.292  0.0885 -0.2202 -0.1294
81574W        W82438  13.181   6.504  14.857 -0.3270 -0.2933 -0.0396
81575W        W82439  16.973   5.522  14.612  0.4543  0.0146  0.3510
81576W        W82440  15.137   6.717  13.110 -0.1993 -0.0950 -0.0307
81577W        W82441  11.855   7.735  13.521  0.2091  0.4119 -0.0599
81578W        W82442  13.913   3.694  14.181  0.0833 -0.0855  0.1369
81579W        W82443  12.937   5.236  17.146  0.3793 -0.1193  0.0450
81580W        W82444  11.176   5.644  11.600  0.2914  0.2265  0.0704
81581W        W82445  13.545   4.913   9.826  0.0083  0.2768  0.1534
81582W        W82446   9.160   4.468  14.618 -0.1501  0.0909  0.0771
81583W        W82447  13.609   7.323  11.988  0.0075 -0.0248  0.0408
81584W        W82448  11.950   8.046  11.844 -0.2303  0.1073 -0.1322
81585W        W82449  12.365   2.486  11.840  0.0752  0.2246 -0.1174
81586W        W82450  11.963   8.465  11.539 -0.1404  0.1264  0.1005
81587W        W82451  15.039   7.198  12.902 -0.0637  0.0167  0.0533
81588W        W82452  12.357   6.561  11.302  0.2669 -0.0497  0.4591
81589W        W82453  10.872   5.743  12.353  0.0526 -0.0309 -0.1395
81590W        W82454  11.997   4.864  13.777  0.0125 -0.1136 -0.1825
81591W        W82455  11.563   1.903  10.077  0.1308  0.0272  0.0292
81592W        W82456  12.078   5.180  12.896  0.1940  0.1118 -0.0481
81593W        W82457  10.833   5.940  11.222  0.1099 -0.0416 -0.1803
81594W        W82458  12.072   6.540  13.699  0.3339  0.0271 -0.1129
81595W        W82459  11.661   6.030  15.380 -0.0784 -0.0017  0.3770
81596W        W82460  13.988   6.138  13.605 -0.1088 -0.0361  0.2832
81597W        W82461  15.267   4.868  13.852  0.2804 -0.3200  0.0900
81598W        W82462  11.461   5.643   9.555 -0.0523 -0.0037 -0.0431
81599W        W82463  14.540   7.659  13.016 -0.0796  0.1124 -0.1242
81600W        W82464  12.605   8.058  14.519 -0.3409  0.2091 -0.2560
81601W        W82465  13.933   6.459  13.156 -0.1757  0.0399 -0.1484
81602W        W82466  11.895   5.934  10.153  0.2272 -0.2983 -0.1459
81603W        W82467  14.516   6.333  10.307 -0.0992  0.2695  0.1432
81604W        W82468  14.885   3.674  12.098  0.2253  0.2847  0.1305
81605W        W82469   8.959   3.903  11.881 -0.1291  0.1061 -0.1095
81606W        W82470  12.198   6.608  11.824  0.0093 -0.1583 -0.0335
81607W        W82471  14.655   5.082  12.085 -0.0485  0.0859  0.1700
81608W        W82472  12.568   4.465  11.417  0.1296 -0.2276  0.3152
81609W        W82473  10.765   5.909  12.895  0.1756 -0.0105  0.1272
81610W        W82474  10.023   8.866  14.895  0.0488 -0.0866 -0.1350
81611W        W82475  10.347   5.443  13.206  0.2272 -0.1916 -0.1472
81612W        W82476  12.309   8.686  15.216 -0.5961 -0.0032  0.1227
81613W        W82477  12.523   9.438  14.909 -0.1424 -0.5801  0.0201
81614W        W82478  13.035   5.415  12.868  0.1853 -0.0423  0.0951
81615W        W82479  13.898  10.064  14.141  0.2224 -0.0950  0.2698
81616W        W82480  11.024   5.685  14.490  0.3065 -0.0016 -0.3561
81617W        W82481  12.098   3.985  11.505 -0.1204  0.0289 -0.1938
81618W        W82482  11.804   4.966  11.872  0.2779 -0.0885  0.2183
81619W        W82483  13.124   4.431  12.641  0.1085 -0.0386 -0.2347
81620W        W82484  13.499   6.595  12.900 -0.1586  0.2165 -0.1821
81621W        W82485  10.447   5.420  11.569 -0.1731 -0.1438 -0.1869
81622W        W82486  13.178   8.761  14.635  0.3557 -0.2150  0.2305
81623W        W82487  12.508   1.684  14.407  0.1543 -0.5066  0.1380
81624W        W82488  10.955   4.137  13.958 -0.0646  0.3042 -0.0770
81625W        W82489  12.821   4.872  11.530  0.1911 -0.2810  0.1415
81626W        W82490  11.298   5.215   8.239  0.0208 -0.0592 -0.0877
81627W        W82491  11.401   6.351  15.017 -0.1292  0.1611  0.0832
81628W        W82492  11.279   6.241  16.820  0.0919  0.0261 -0.3861
81629W        W82493  11.691   2.535  10.008 -0.1287  0.0155  0.2982
81630W        W82494  13.403   6.346  10.718  0.0914  0.0088  0.0990
81631W        W82495  11.202   7.576  13.440 -0.3597  0.0048  0.0105
81632W        W82496  13.468   5.864  10.343 -0.0906  0.0650 -0.0678
81633W        W82497  16.477   1.283  13.356  0.2622  0.0287 -0.0502
81634W        W82498  12.578   6.981  12.496  0.4191 -0.2273  0.0583
81635W        W82499  11.046   4.856  13.336  0.0191 -0.0981  0.2129
81636W        W82500  15.751   4.926  13.701 -0.1651  0.3239  0.1207
81637W        W82501  15.002   6.654  14.321  0.0296  0.2438  0.2616
81638W        W82502  14.290   6.748  10.984  0.0583 -0.0296  0.0872
81639W        W82503  12.752   3.081  10.492  0.1596  0.1165 -0.1046
81640W        W82504  13.395   5.922  11.733 -0.1433  0.0498 -0.2368
81641W        W82505  10.872   7.877  14.487 -0.0900  0.0568  0.0606
81642W        W82506  13.056   6.540  12.081  0.3477  0.0357 -0.0540
81643W        W82507  11.514   5.370  11.331 -0.2523 -0.0312  0.2090
81644W        W82508  11.502   4.891  12.788  0.1478  0.3227  0.0178
81645W        W82509  13.468   8.482  15.026 -0.0091 -0.3285 -0.0279
81646W        W82510  12.807   5.933  13.238 -0.0853  0.0758 -0.2206
81647W        W82511  10.472   7.803  10.618  0.1229  0.0483  0.1069
81648W        W82512  11.134   5.517  10.553  0.3103  0.1700  0.0300
81649W        W82513  10.462   4.866  15.679 -0.1815 -0.0194 -0.1379
81650W        W82514  14.025   8.481  14.198  0.1859  0.0411 -0.0209
81651W        W82515  15.052   5.939  12.627 -0.1019 -0.1553  0.0368
81652W        W82516  13.242   7.252  10.142  0.0934 -0.2371  0.3950
81653W        W82517  14.668   6.477  13.962 -0.1684 -0.2514 -0.1404
81654W        W82518  15.273   5.456  10.228  0.4770 -0.3086 -0.0586
81655W        W82519   9.666   1.375   8.028  0.0495  0.1516  0.2278
81656W        W82520  12.603   4.850  13.662  0.2789 -0.0899 -0.0249
81657W        W82521  11.823   6.724  15.489  0.0800 -0.1847 -0.0148
81658W        W82522  11.818   3.441  12.185  0.0703 -0.1304  0.4286
81659W        W82523  13.980   5.878  14.679  0.0944 -0.1024  0.2610
81660W        W82524  13.879   3.243  10.719 -0.1966 -0.1148  0.1276
81661W        W82525  13.624  10.067  13.266  0.0081 -0.0002  0.0205
81662W        W82526   9.697   6.208  11.082 -0.3688 -0.0632  0.1575
81663W        W82527   9.108   5.792  14.775  0.0878  0.0008  0.0535
81664W        W82528  11.784   3.034  11.460 -0.3681  0.0318 -0.0765
81665W        W82529  12.128   6.078  11.196  0.1087  0.3102  0.1918
81666W        W82530  15.222   6.579  12.355 -0.2592  0.0122  0.0200
81667W        W82531  12.392   4.202  10.957  0.1234 -0.1728 -0.2045
81668W        W82532  12.619   9.116  16.220  0.2168 -0.2509 -0.1276
81669W        W82533  13.388   9.298  13.968  0.1323  0.0079 -0.1132
81670W        W82534  11.182   4.352  15.631 -0.2605 -0.1823  0.0238
81671W        W82535  11.212   5.665  12.814  0.0282  0.0944 -0.0526
81672W        W82536  12.870   4.236  11.700  0.3104 -0.1911  0.2107
81673W        W82537  12.997   6.289  13.535 -0.3867 -0.0727  0.0422
81674W        W82538  12.954   2.593  14.048  0.1681 -0.0120  0.3564
81675W        W82539  13.630   6.022   9.834  0.1733 -0.0976  0.0435
81676W        W82540  11.419   4.775   7.948  0.1668  0.0802 -0.1206
81677W        W82541  13.198   6.823  10.654 -0.0458 -0.0240  0.2262
81678W        W82542  12.621   4.229  13.684 -0.2164 -0.3032  0.1260
81679W        W82543  14.536   4.371  11.308  0.2998  0.0120  0.1062
81680W        W82544  15.178   6.212  14.460  0.0374 -0.3962 -0.0112
81681W        W82545  11.432   6.711  14.459  0.0659  0.0817 -0.1773
81682W        W82546  15.396   9.313  13.166  0.0631  0.0269 -0.0225
81683W        W82547   8.858   6.997  15.011 -0.0902  0.2101 -0.1534
81684W        W82548  14.314   6.360  11.380  0.0078  0.1843 -0.1477
81685W        W82549  15.106   5.206  11.837 -0.1563 -0.1152 -0.0430
81686W        W82550  10.469   5.372  12.245  0.2953  0.0088  0.1309
81687W        W82551  13.329   2.416  11.863  0.0128 -0.2481 -0.1785
81688W        W82552  13.133   7.166  13.026 -0.0807  0.0452 -0.1027
81689W        W82553  11.823   2.406  12.170 -0.0558  0.1387 -0.0951
81690W        W82554  13.113   3.853  12.520  0.1035 -0.0833 -0.2239
81691W        W82555  12.068   4.186   9.689 -0.3546 -0.0687  0.0792
81692W        W82556  11.715   7.061  11.798  0.0119 -0.1033 -0.1594
81693W        W82557  10.025   7.663  13.633 -0.0078  0.1655 -0.2580
81694W        W82558  10.199   6.061  10.435  0.0826 -0.1533  0.0030
81695W        W82559  10.529   4.601  11.450 -0.0107  0.2811  0.0213
81696W        W82560  11.754   6.561  12.066 -0.1335 -0.2104  0.1387
81697W        W82561  11.391   7.480  12.348 -0.1032 -0.0171 -0.0909
81698W        W82562  14.247   5.299  10.225 -0.0582 -0.1738 -0.1342
81699W        W82563  14.510   3.873  11.323 -0.1844  0.0930  0.1999
81700W        W82564  13.973   7.691  10.387  0.2378 -0.0584 -0.2281
81701W        W82565  12.252   5.518  12.462  0.2411  0.0909 -0.2003
81702W        W82566  11.056   7.429  12.730  0.1606  0.0170 -0.3452
81703W        W82567  16.158   0.370   8.913 -0.0454 -0.3329 -0.0719
81704W        W82568  10.036   7.592  15.016 -0.3372  0.0202  0.0589
81705W        W82569  12.076   5.550  13.236  0.3421  0.1735 -0.1868
81706W        W82570  12.229   4.767  12.645 -0.0164 -0.0944  0.0016
81707W        W82571  13.000   4.341  10.435 -0.0652  0.2297 -0.1103
81708W        W82572  11.448   3.180  11.069  0.3207  0.0729 -0.0666
81709W        W82573  12.839   4.575  11.021  0.2274 -0.3763 -0.6559
81710W        W82574  12.461   6.003  12.474  0.1479  0.1294 -0.2915
81711W        W82575  15.066   4.439  10.688  0.1119 -0.1535 -0.1620
81712W        W82576  12.124   6.813  12.585  0.1631  0.0188 -0.0669
81713W        W82577  11.607   6.503  15.919 -0.2629  0.1522 -0.1656
81714W        W82578  15.474   8.489  15.041 -0.2046  0.2676 -0.1048
81715W        W82579  12.281   5.494   8.909  0.3903 -0.1390 -0.0661
81716W        W82580  13.038   4.120  10.883  0.1662 -0.0157  0.2910
81717W        W82581  17.249   3.298  13.175 -0.0875  0.2475  0.1153
81718W        W82582  14.062   7.054  10.587 -0.2444  0.1987 -0.0529
81719W        W82583  12.384   5.674  11.497  0.2779  0.0146 -0.2178
81720W        W82584  13.988   5.678   9.917  0.1470 -0.0696  0.0163
81721W        W82585  13.795   8.155  14.668 -0.0190  0.2745  0.1613
81722W        W82586  14.271   6.431  12.356 -0.0200  0.0531 -0.5152
81723W        W82587  11.546   4.989  14.007 -0.0868  0.0006  0.3550
81724W        W82588  13.510   5.625  10.784 -0.3352 -0.0243  0.1787
81725W        W82589  13.135   6.840  14.345  0.1879 -0.0231  0.1975
81726W        W82590  11.378   5.044  15.104  0.2339 -0.0568  0.1367
81727W        W82591   9.634   4.328  12.531 -0.0272  0.2798  0.2319
81728W        W82592  11.969   4.304  13.709  0.3428 -0.3417  0.2250
81729W        W82593  11.624   7.197  14.313 -0.3379  0.1891  0.0643
81730W        W82594  11.488   5.079  10.000 -0.4137 -0.2003  0.0541
81731W        W82595  11.587   5.691  13.149  0.0190 -0.0394  0.0398
81732W        W82596  12.034   8.061  15.176  0.0376  0.4385  0.2000
81733W        W82597  10.898   5.589  13.894 -0.0548 -0.1656 -0.4274
81734W        W82598  12.990   6.030  12.243  0.1883  0.1022 -0.0888
81735W        W82599  11.068   7.870  12.352  0.2185 -0.0667 -0.1014
81736W        W82600   9.754   8.677  13.608  0.0565 -0.1013  0.0327
81737W        W82601  12.140   6.868   9.891  0.0305  0.1885  0.1737
81738W        W82602  13.425   7.609  17.653  0.3040  0.3017  0.0245
81739W        W82603  10.439   4.821  10.990  0.0181  0.0448 -0.1174
81740W        W82604  13.195   8.139  13.381  0.0237 -0.2564 -0.1122
81741W        W82605  12.886   7.786  12.111 -0.1461  0.1458 -0.2142
81742W        W82606  10.839   6.930  11.784  0.0871  0.1579 -0.0080
81743W        W82607  14.312   4.051  15.380 -0.3758  0.1220  0.4413
81744W        W82608  15.523   8.736  12.015  0.3109 -0.4294 -0.0974
81745W        W82609  13.290   2.892  13.965  0.0757 -0.1187 -0.1904
81746W        W82610   7.999   8.392  12.475 -0.1574  0.2181  0.2069
81747W        W82611  12.996   4.971  12.531 -0.1462  0.0359  0.1633
81748W        W82612   9.427   4.939  18.133  0.0039  0.1804 -0.1901
81749W        W82613   9.789   5.520  17.450  0.1124  0.0475 -0.3754
81750W        W82614  16.689   7.285  18.172 -0.0276  0.0408 -0.0692
81751W        W82615  14.593   7.193  16.972 -0.1147 -0.0859 -0.2778
81752W        W82616  12.475   7.959  17.014  0.4723  0.0438 -0.0122
81753W        W82617  11.000   6.625  14.851 -0.0633  0.0523  0.2061
81754W        W82618  12.357   7.719  15.445  0.2663 -0.0208  0.1102
81755W        W82619  12.530   6.103  14.388  0.1682  0.1977 -0.3243
81756W        W82620  10.659   7.698  19.043  0.1620 -0.1889  0.4110
81757W        W82621  10.645   4.648  17.976  0.1660 -0.1867  0.1211
81758W        W82622   9.639   3.617  14.174  0.1618  0.5209  0.3451
81759W        W82623  14.754   5.564  12.971  0.0816  0.0254 -0.2082
81760W        W82624  14.015   5.804  15.700  0.0860 -0.1853 -0.1458
81761W        W82625  13.694   3.956  19.684  0.0618  0.2139 -0.3507
81762W        W82626  13.379   4.283  15.911 -0.2136  0.2658 -0.2531
81763W        W82627  11.293   6.827  19.666 -0.0886  0.1801 -0.1216
81764W        W82628   9.505   7.805  13.810  0.1690  0.0238  0.1141
81765W        W82629  10.817   7.504  18.318 -0.0120  0.2132  0.1726
81766W        W82630  11.520   4.542  17.837  0.1598 -0.2017  0.1511
81767W        W82631  13.178   5.885  20.011  0.0100  0.2731  0.2109
81768W        W82632  14.338   6.173  16.934  0.1551  0.0586  0.2950
81769W        W82633  13.423   3.464  18.524 -0.1647 -0.0707  0.1101
81770W        W82634  12.443   6.639  14.239  0.0189 -0.0896  0.1168
81771W        W82635  11.600   6.016  17.724 -0.0509  0.3347  0.1685
81772W        W82636  10.227   7.088  14.153 -0.0903 -0.0814  0.1637
81773W        W82637  13.025   7.808  16.379  0.0051 -0.0738 -0.0214
81774W        W82638  13.745   5.482  18.487 -0.1597  0.2889  0.0676
81775W        W82639  10.027   8.947  19.100 -0.0082  0.0188  0.3624
81776W        W82640  11.674   8.008  18.809 -0.1022 -0.0357  0.0683
81777W        W82641  10.500   0.990  14.289  0.1655  0.1036  0.1640
81778W        W82642  12.973   6.854  16.479 -0.0671  0.0357 -0.1671
81779W        W82643  13.432   5.376  19.564  0.0236 -0.3064 -0.3606
81780W        W82644  13.774   6.021  18.564 -0.2157  0.0167  0.1020
81781W        W82645  10.449   5.859  17.984  0.1179 -0.0807 -0.2346
81782W        W82646  11.352   4.175  18.768 -0.1926 -0.1812 -0.0336
81783W        W82647  16.765   5.608  18.578 -0.1536 -0.0172 -0.1497
81784W        W82648  11.138   4.816  14.705  0.0408 -0.1435  0.1541
81785W        W82649   9.802   6.042  17.345 -0.1369  0.1573 -0.0755
81786W        W82650  13.103   6.015  14.691  0.0058  0.1519  0.2862
81787W        W82651  14.975   5.484  15.768 -0.0538 -0.0540  0.0295
81788W        W82652  12.623   5.637  14.781 -0.1401  0.1469  0.1606
81789W        W82653  15.279   5.874  17.007 -0.0558  0.4100  0.0518
81790W        W82654  10.267   6.449  18.784  0.1090  0.0440 -0.0003
81791W        W82655  15.417  10.533  15.358  0.0003 -0.0315  0.1840
81792W        W82656  10.784   8.521  16.363 -0.0203  0.0418  0.0109
81793W        W82657  11.550   6.982  16.062  0.1163 -0.0964  0.0670
81794W        W82658  11.368   4.168  16.960 -0.1512  0.3127  0.0445
81795W        W82659  13.880   5.042  19.398  0.1646 -0.1636  0.0839
81796W        W82660  16.412   6.563  16.061 -0.0661  0.1528  0.0540
81797W        W82661  13.485   3.710  12.834 -0.3254 -0.4456  0.1646
81798W        W82662  10.986   7.983  20.757 -0.1512  0.1078 -0.0403
81799W        W82663  12.339   5.049  13.266 -0.0397 -0.0880 -0.2327
81800W        W82664  11.820   5.635  16.213  0.0409  0.0897  0.2325
81801W        W82665  14.064   7.941  18.355  0.3026  0.3709 -0.3239
81802W        W82666  11.403   3.036  16.546  0.2438 -0.1115  0.4156
81803W        W82667   9.338   5.638  13.822  0.1093  0.0688 -0.0009
81804W        W82668  11.372   3.867  16.485 -0.0809 -0.1452 -0.3546
81805W        W82669  13.917   4.526  13.019 -0.1391 -0.0635 -0.1491
81806W        W82670  10.864   6.593  17.915 -0.0289  0.0855 -0.0004
81807W        W82671  11.967   4.832  17.105 -0.1158 -0.2427  0.0575
81808W        W82672  14.216   6.475  14.766 -0.0968 -0.1700 -0.0042
81809W        W82673   9.525   7.895  17.072 -0.0649 -0.1987 -0.0560
81810W        W82674  10.569   6.200  19.191  0.1342  0.1702  0.1388
81811W        W82675  11.570   5.141  18.054  0.0294 -0.4199  0.4267
81812W        W82676  15.377   4.046  16.782 -0.2378 -0.1340  0.2702
81813W        W82677  15.014   6.437  15.456 -0.0204  0.5245 -0.0246
81814W        W82678   9.460   9.001  13.353  0.0421  0.1413  0.1144
81815W        W82679  11.276   3.564  12.665  0.0386  0.1476 -0.2285
81816W        W82680  10.313   6.310  16.616  0.0211  0.2511 -0.1325
81817W        W82681   9.156   6.185  15.148 -0.1699  0.0931  0.2746
81818W        W82682  11.106   8.961  18.508 -0.2018 -0.1928  0.2575
81819W        W82683  12.745   3.649  13.968  0.1118  0.3060  0.2218
81820W        W82684  14.648   8.087  16.543  0.1908  0.2717  0.1197
81821W        W82685  15.973   6.589  14.449  0.2796 -0.2389  0.1035
81822W        W82686  12.897   7.420  17.435  0.1174  0.1630  0.0932
81823W        W82687  12.367   5.671  18.857  0.2108 -0.0493  0.0622
81824W        W82688  14.338   8.329  17.033 -0.1027  0.0589 -0.1274
81825W        W82689   8.543   4.354  18.487  0.2903  0.0392  0.0784
81826W        W82690  13.195   6.209  15.749 -0.0874  0.1132  0.2084
81827W        W82691  15.011   7.172  17.233 -0.0677 -0.0448 -0.1162
81828W        W82692  10.285   2.827  18.203  0.0440  0.0600  0.1070
81829W        W82693  12.826   4.220  16.210  0.0666  0.2534  0.2937
81830W        W82694   9.511   4.873  15.456 -0.2677  0.1576  0.1779
81831W        W82695  13.914   8.283  17.363  0.0843 -0.1089 -0.0508
81832W        W82696  14.678   4.062  17.416  0.0956 -0.3803 -0.1716
81833W        W82697  14.470   5.324  18.256  0.1437 -0.0084  0.0816
81834W        W82698   9.826   8.523  19.184  0.0109 -0.1810  0.2193
81835W        W82699  11.845   4.733  18.198  0.1343 -0.1227 -0.2165
81836W        W82700  15.387   7.740  16.511  0.3536  0.1364  0.0470
81837W        W82701  15.825   2.142  18.438 -0.2078  0.6020  0.1366
81838W        W82702  13.783   4.804  14.974  0.1273  0.0314 -0.2450
81839W        W82703  10.484   6.697  19.147 -0.0300 -0.1362 -0.0365
81840W        W82704  10.986   7.935  17.215  0.1051  0.1524  0.0842
81841W        W82705  13.207   4.622  15.511 -0.0478 -0.3089  0.0748
81842W        W82706  11.292   6.440  15.511 -0.0214  0.0723  0.0341
81843W        W82707  14.503   6.870  14.896  0.2854  0.0876  0.0556
81844W        W82708  14.994   6.684  16.379 -0.1636  0.1556  0.0237
81845W        W82709  11.220   6.447  18.796  0.3043  0.2811  0.1061
81846W        W82710  11.557   3.363  14.125  0.0772 -0.0420 -0.0984
81847W        W82711  15.700   5.372  17.365  0.0537 -0.1604  0.3121
81848W        W82712  14.914   8.918  17.788 -0.0980 -0.1841 -0.2635
81849W        W82713  10.669   5.885  15.693 -0.1481 -0.1317  0.0743
81850W        W82714  15.094   5.399  13.934 -0.2273 -0.0028 -0.1063
81851W        W82715  14.663   8.535  18.758  0.1190  0.2535  0.1648
81852W        W82716  13.576   5.960  16.072 -0.0987  0.0736 -0.0305
81853W        W82717  13.940   5.368  17.543  0.4506 -0.0377 -0.0258
81854W        W82718  14.672   7.233  16.060 -0.2028  0.0475 -0.0805
81855W        W82719  14.833   5.190  20.952 -0.1401 -0.0224  0.1007
81856W        W82720  13.015  29.038  12.845 -0.4729 -0.0124 -0.0763
81857W        W82721  13.281   2.165  14.616 -0.0100  0.1699 -0.4024
81858W        W82722   9.642   7.190  18.424  0.0241  0.0436  0.2062
81859W        W82723  15.916   7.523  17.392  0.0938 -0.2528  0.2346
81860W        W82724  13.958   5.065  14.619 -0.0075  0.0882 -0.0171
81861W        W82725  10.856   6.427  17.076  0.0936  0.0528 -0.3773
81862W        W82726  12.500   5.640  12.909 -0.0818  0.1467  0.2555
81863W        W82727  12.131   7.519  15.873  0.0726  0.3841  0.2078
81864W        W82728  14.842   1.683  16.092  0.0439 -0.2815 -0.0869
81865W        W82729  11.659   6.630  18.307  0.1660  0.1690 -0.1474
81866W        W82730  14.206   6.716  15.264  0.1148 -0.2032  0.0790
81867W        W82731  14.936   5.975  14.062 -0.0894 -0.0525 -0.2520
81868W        W82732  14.170   4.929  13.266  0.0210 -0.0791  0.0423
81869W        W82733  14.026   6.174  16.111  0.4422  0.1776 -0.1811
81870W        W82734  11.387   6.846  15.072 -0.0086 -0.0495 -0.1785
81871W        W82735  13.717   7.149  15.974  0.2144 -0.0024  0.0210
81872W        W82736  11.665   7.646  16.103  0.0226  0.2040  0.0144
81873W        W82737  16.145   7.734  20.375 -0.2602 -0.0514 -0.1484
81874W        W82738  11.921   4.832  17.647  0.0857  0.1987  0.1406
81875W        W82739  11.692   7.562  17.615  0.2231  0.0076  0.1896
81876W        W82740  14.185   8.194  21.058  0.1897 -0.2228  0.2160
81877W        W82741  10.794   7.933  18.598  0.0084  0.0962 -0.0486
81878W        W82742  11.630   6.174  17.148  0.0060 -0.0348  0.2093
81879W        W82743  14.768   5.789  18.445 -0.0492 -0.2015 -0.0010
81880W        W82744  11.848   3.512  17.104 -0.3293 -0.1778  0.0675
81881W        W82745  14.759   3.153  13.709  0.2372  0.2385  0.2287
81882W        W82746  13.154   7.981  18.030 -0.1464 -0.0006 -0.0190
81883W        W82747  11.799   4.572  14.134 -0.0329 -0.1568 -0.1084
81884W        W82748  13.958   6.299  14.411 -0.0836 -0.0703 -0.2834
81885W        W82749  12.052   6.211  17.550  0.0388 -0.1185 -0.1467
81886W        W82750  12.938   9.143  16.875  0.1321  0.1207 -0.2470
81887W        W82751  13.399   7.517  16.115 -0.0468  0.0367 -0.0673
81888W        W82752  11.806   2.693  17.157  0.0058  0.4816  0.0513
81889W        W82753  11.509   4.208  13.971 -0.3020 -0.2891  0.0023
81890W        W82754   9.159   7.336  16.254 -0.0771 -0.1805 -0.1643
81891W        W82755  11.628   6.506  17.815 -0.2706  0.1109 -0.3367
81892W        W82756  14.109   5.618  17.934 -0.1008 -0.0842 -0.3658
81893W        W82757  12.019   2.576  16.309  0.0950  0.1907  0.1424
81894W        W82758  13.763   5.349  13.535 -0.1664  0.1066  0.0679
81895W        W82759  15.380   8.253  17.005 -0.0480  0.4368 -0.4080
81896W        W82760  14.001   8.803  17.818 -0.1275  0.3618  0.0392
81897W        W82761  12.056   4.256  15.061  0.0729 -0.1795  0.2423
81898W        W82762  12.564   5.646  17.973 -0.1519 -0.1562  0.1015
81899W        W82763  12.056   4.060  15.880 -0.0639  0.0500  0.0076
81900W        W82764  11.724   8.543  20.071 -0.2281 -0.0348  0.1237
81901W        W82765  12.031   4.977  14.383  0.0884  0.0384  0.1379
81902W        W82766   9.090   7.121  16.747  0.2729 -0.2081  0.1943
81903W        W82767  12.981   5.685  16.882 -0.1209  0.3357 -0.1349
81904W        W82768   9.863   3.811  17.497 -0.0230 -0.0835 -0.0007
81905W        W82769  12.792   6.283  16.576 -0.2197 -0.0960  0.0818
81906W        W82770  11.737   4.375  12.679 -0.1747 -0.2987  0.0893
81907W        W82771  11.293   3.393  15.112 -0.0219 -0.1382  0.2361
81908W        W82772  13.455   5.035  14.495  0.3025 -0.2154  0.1796
81909W        W82773  12.771   2.633  16.424 -0.0543 -0.2533  0.0429
81910W        W82774  14.370   4.762  20.844 -0.0631  0.0115 -0.2865
81911W        W82775  14.454   4.143  16.944 -0.1199 -0.0780 -0.2183
81912W        W82776  11.610   2.697  15.615  0.1036 -0.3133  0.0656
81913W        W82777  11.881   6.634  17.412 -0.2641 -0.1749  0.2468
81914W        W82778  11.889   3.021  16.260  0.0048  0.1709 -0.0729
81915W        W82779  12.520   7.899  15.983  0.0829  0.0084 -0.3131
81916W        W82780  13.469   7.923  20.314 -0.0167  0.2642 -0.3195
81917W        W82781  11.106   5.096  16.269 -0.0934 -0.2319 -0.1652
81918W        W82782  12.075   7.172  16.757  0.1657  0.0651  0.4420
81919W        W82783  10.584   6.632  17.468 -0.1810 -0.2769 -0.2022
81920W        W82784  12.229   3.431  14.744  0.0653  0.0145  0.0563
81921W        W82785  14.525   7.340  13.545  0.2034 -0.2927  0.2669
81922W        W82786  12.173   1.206  15.607  0.1285 -0.2525  0.0316
81923W        W82787  13.759   5.582  12.158 -0.1662 -0.0881 -0.0223
81924W        W82788   9.451   5.522  18.357  0.2054 -0.2387 -0.0032
81925W        W82789  12.326   4.169  14.672 -0.1144 -0.0638  0.2010
81926W        W82790   8.080   7.660  17.101  0.1043 -0.2081 -0.4580
81927W        W82791  14.363   4.605  17.114 -0.1241 -0.1915 -0.0118
81928W        W82792  12.780   8.476  16.841 -0.0717 -0.0113 -0.0054
81929W        W82793  11.901   5.361  14.067  0.1437  0.0760 -0.0600
81930W        W82794  11.249   6.241  14.555 -0.1181 -0.1180  0.3140
81931W        W82795  13.723   4.757  13.687  0.0063 -0.1689  0.2907
81932W        W82796  13.486   6.354  13.333  0.1664 -0.2442 -0.2542
81933W        W82797  12.618   6.583  18.600  0.0955 -0.2942 -0.0498
81934W        W82798  12.523   1.453  15.960  0.2449  0.2044 -0.0891
81935W        W82799  12.621   3.969  12.171  0.0390 -0.1284 -0.1351
81936W        W82800  11.169   7.937  18.952  0.3819 -0.1202  0.0148
81937W        W82801  11.562   5.841  14.613 -0.2073  0.1018 -0.0077
81938W        W82802   8.067   8.698  14.203  0.1424  0.1895  0.1859
81939W        W82803   8.765   7.590  16.178 -0.2295  0.2780  0.3035
81940W        W82804  11.769   5.202  15.493  0.4028  0.0545 -0.2105
81941W        W82805  11.244   1.814  16.653 -0.2329  0.4003  0.1676
81942W        W82806  11.660   3.917  19.605  0.2708 -0.3629  0.0803
81943W        W82807  12.977   4.132  15.419 -0.0779  0.2254  0.2866
81944W        W82808  12.698   3.272  13.339  0.0452  0.2424 -0.2998
81945W        W82809  10.801   5.239  14.628  0.4177  0.0951  0.1339
81946W        W82810  11.957   6.388  15.143 -0.1406  0.0107 -0.1037
81947W        W82811  14.073   4.567  15.378  0.1789 -0.1115 -0.2356
81948W        W82812  12.436   5.535  15.561 -0.0113  0.3395  0.1034
81949W        W82813  14.617   3.322  16.770  0.0129  0.2078 -0.1096
81950W        W82814  18.374   6.080  12.668 -0.0006  0.1828  0.3710
81951W        W82815  12.630   3.583  14.453  0.3156 -0.0418  0.1357
81952W        W82816  12.910   4.793  16.122  0.1042  0.0161 -0.2459
81953W        W82817  10.740   4.516  15.413 -0.0776 -0.0502 -0.0206
81954W        W82818  10.969   7.030  17.564 -0.3929  0.0299 -0.3641
81955W        W82819  12.996   6.385  17.635 -0.0229  0.1419  0.0770
81956W        W82820  12.196   7.440  15.012  0.0527 -0.0473 -0.0264
81957W        W82821  10.723   5.090  14.001 -0.2151  0.2676 -0.1136
81958W        W82822   9.609   3.228  16.607 -0.0146 -0.2266  0.1663
81959W        W82823  10.248   3.543  16.139  0.1167  0.0734 -0.1514
81960W        W82824  11.995   3.380  20.145  0.0335  0.1248 -0.2588
81961W        W82825  13.114   3.513  14.688  0.1441 -0.4006 -0.0874
81962W        W82826  13.748   5.252  17.021 -0.0620 -0.1241  0.0527
81963W        W82827  12.657   7.766  13.064  0.1167 -0.0398 -0.0618
81964W        W82828  13.419   7.849  15.598  0.2655 -0.0013 -0.0818
81965W        W82829  12.740   4.493  15.775  0.0051 -0.3019  0.0966
81966W        W82830  13.793   6.239  16.633 -0.1628 -0.0099 -0.1208
81967W        W82831  11.626   6.431  19.753 -0.0368 -0.1498 -0.0599
81968W        W82832  13.842   5.232  18.903  0.0562 -0.1982  0.1294
81969W        W82833  13.736   4.944  15.553 -0.1274  0.1555  0.0547
81970W        W82834  11.380   5.074  18.563 -0.1806 -0.1609 -0.0595
81971W        W82835  13.028   5.537  14.443  0.2449 -0.1934 -0.1320
81972W        W82836  12.675   6.089  15.818  0.0706  0.0801 -0.1316
81973W        W82837   9.030   5.108  18.396  0.1304  0.2107  0.0578
81974W        W82838  12.863   4.931  17.534  0.3516  0.0688 -0.3636
81975W        W82839  16.051   3.040  16.480 -0.0713 -0.2659 -0.1956
81976W        W82840  14.870   5.102  17.133 -0.1319  0.1535 -0.2586
81977W        W82841  12.204   8.686  18.625 -0.1823  0.3231  0.1480
81978W        W82842  12.522   3.327  16.431  0.1480  0.0144  0.1329
81979W        W82843  12.745   2.686  18.629 -0.0918 -0.0357 -0.1354
81980W        W82844  11.489   8.241  16.715 -0.1648  0.0038  0.0230
81981W        W82845  14.970   7.305  17.960  0.1503 -0.1044  0.2098
81982W        W82846  10.540   4.728  18.823  0.0958 -0.3783 -0.2237
81983W        W82847  14.214   6.492  16.549 -0.0503  0.0971 -0.1490
81984W        W82848  16.451   5.756  14.024  0.1658 -0.0831  0.1400
81985W        W82849  13.372   3.520  16.631  0.0143 -0.3488 -0.0040
81986W        W82850  13.025   6.140  17.142  0.1381 -0.1305 -0.0037
81987W        W82851  12.259   9.512  18.296 -0.0202  0.0857 -0.0650
81988W        W82852  13.502   8.136  17.599  0.1680 -0.1895 -0.0969
81989W        W82853   9.654   7.600  17.466  0.2280 -0.2367 -0.0655
81990W        W82854  13.355   5.241  18.336 -0.0954  0.0785  0.1334
81991W        W82855  13.581   5.899  14.328 -0.0002 -0.0367 -0.1931
81992W        W82856  14.329   3.789  15.869  0.0399  0.1429 -0.0271
81993W        W82857  10.255   5.872  12.818 -0.0846 -0.2258 -0.0920
81994W        W82858  14.661   6.518  17.397  0.1752  0.0664 -0.0059
81995W        W82859  11.255   6.283  18.034 -0.2066 -0.3489  0.3044
81996W        W82860  13.163   7.016  18.751 -0.0143  0.1463 -0.1535
81997W        W82861  12.332   4.852  15.990  0.1268 -0.1247 -0.1383
81998W        W82862  12.007   4.377  17.600 -0.1295  0.0267 -0.1298
81999W        W82863   9.683   7.981  18.037  0.0258  0.1544  0.0799
82000W        W82864  13.953   7.410  20.258  0.1254 -0.3289 -0.2527
82001W        W82865  12.431   8.131  16.561 -0.0138 -0.1051  0.1070
82002W        W82866  10.616   6.761  16.651 -0.0833 -0.0660  0.0421
82003W        W82867  14.308  11.228  18.026  0.1127 -0.1163  0.3378
82004W        W82868  15.148   7.168  15.501 -0.0348 -0.0126 -0.1123
82005W        W82869  12.116   6.437  18.062 -0.3894 -0.1312 -0.3642
82006W        W82870  12.594   6.113  18.340  0.2003 -0.0340 -0.0398
82007W        W82871  14.421   7.493  17.663  0.1942 -0.0672  0.0765
82008W        W82872  14.540   5.522  16.395 -0.1084  0.0582  0.3027
82009W        W82873  12.621   8.332  18.686 -0.2217 -0.5192 -0.0865
82010W        W82874  15.420   5.447  15.976  0.1099  0.1001  0.1135
82011W        W82875  10.325   4.570  18.404 -0.0394 -0.0058 -0.0405
82012W        W82876  10.703   5.651  17.562  0.0484  0.1090  0.0572
82013W        W82877  12.334   7.335  18.353  0.3081  0.1771 -0.0661
82014W        W82878  11.926   5.799  14.260 -0.1555 -0.2590 -0.0471
82015W        W82879  14.258   6.024  17.453  0.0225 -0.0822  0.0263
82016W        W82880  11.656   2.515  16.661 -0.2354 -0.0954  0.0337
82017W        W82881  12.980   6.011  14.225  0.2017 -0.1486  0.0575
82018W        W82882  10.365   7.184  14.975  0.0438 -0.0112 -0.1097
82019W        W82883  12.678   7.697  16.651  0.3107 -0.2904 -0.2200
82020W        W82884  12.218   5.077  15.503 -0.3196 -0.3790 -0.2851
82021W        W82885   9.569   3.845  17.914 -0.0582 -0.1304 -0.0175
82022W        W82886  11.038   5.525  16.524 -0.1636  0.0063 -0.0233
82023W        W82887  12.938   2.249  16.110  0.2249  0.2220  0.0551
82024W        W82888  11.655   5.722  17.342  0.1943 -0.0154  0.3862
82025W        W82889  11.580   5.978  15.970  0.0656 -0.4570 -0.2702
82026W        W82890  11.732   6.154  13.689  0.0994  0.1323 -0.2170
82027W        W82891   8.357   7.260  18.213 -0.1119  0.0708 -0.1263
82028W        W82892  15.824   6.149  14.437  0.3334 -0.2147  0.5065
82029W        W82893  10.375   4.997  14.626  0.0683 -0.1752 -0.0202
82030W        W82894  11.734   6.370  14.597 -0.2496 -0.0684  0.1417
82031W        W82895   8.564  10.163  16.134  0.2635 -0.0477 -0.0057
82032W        W82896  15.191   5.427  13.422 -0.2414 -0.0393 -0.1718
82033W        W82897  14.169   3.437  15.510  0.1572  0.0558  0.0602
82034W        W82898  13.962   6.485  18.720 -0.0914 -0.0420 -0.0834
82035W        W82899  12.796   6.619  16.948  0.0813 -0.2687  0.2506
82036W        W82900  14.175   3.058  16.497 -0.0392 -0.0705 -0.2783
82037W        W82901  12.677   6.615  15.044 -0.0950  0.2805 -0.0420
82038W        W82902  10.841   7.473  17.280  0.0610 -0.0861  0.1119
82039W        W82903  11.078   5.953  14.927  0.0937 -0.0491  0.1911
82040W        W82904  15.823   5.477  16.408 -0.0081  0.1634 -0.1507
82041W        W82905   9.346   3.744  16.569 -0.1954  0.2160 -0.3625
82042W        W82906  10.675   5.438  17.073  0.0500 -0.0074  0.0045
82043W        W82907  13.085   5.143  14.869 -0.2464  0.2738 -0.2453
82044W        W82908  11.792   5.851  18.628 -0.0167  0.2232  0.0611
82045W        W82909  12.219   6.702  19.664  0.0429  0.2333  0.0534
82046W        W82910  16.548   4.533  17.473 -0.2817 -0.0166 -0.3035
82047W        W82911  10.207   8.359  17.361  0.0508 -0.0440  0.1172
82048W        W82912  10.218   5.921  16.261  0.4398 -0.1493 -0.3641
82049W        W82913  10.397   4.109  19.258 -0.0891 -0.2952 -0.0203
82050W        W82914  13.378   4.738  18.108  0.0948 -0.3285  0.0379
82051W        W82915  15.360   8.846  16.902 -0.4587  0.0461  0.1715
82052W        W82916  13.278   6.976  15.315  0.0378 -0.5462  0.0910
82053W        W82917  13.842   6.854  17.318  0.0441 -0.0133  0.0095
82054W        W82918  13.693   6.842  20.185 -0.1743 -0.0607  0.1496
82055W        W82919  13.028   4.278  14.949 -0.2966  0.3353 -0.1006
82056W        W82920  12.235   3.569  17.509 -0.0951 -0.0381  0.1806
82057W        W82921  12.043   7.803  17.298  0.1390  0.1636  0.2512
82058W        W82922  12.767   3.489  15.946  0.1278 -0.2569  0.3536
82059W        W82923  13.476   4.329  17.822 -0.2063 -0.1663  0.1505
82060W        W82924  13.357   2.293  13.980  0.0093 -0.0885  0.1962
82061W        W82925  11.137   5.077  16.834 -0.3841  0.0290 -0.1062
82062W        W82926  10.617   8.130  20.403 -0.2304 -0.3188 -0.2128
82063W        W82927  10.280   5.194  16.919  0.0552 -0.0158  0.1338
82064W        W82928  13.181   6.098  15.267  0.1743  0.2942  0.1107
82065W        W82929  12.192   4.489  15.620 -0.0770 -0.2036  0.3114
82066W        W82930  13.460   3.688  16.058 -0.3161  0.2737 -0.2092
82067W        W82931  12.472   6.182  17.792 -0.0068  0.0806  0.0099
82068W        W82932  11.730   8.818  16.459 -0.2800  0.0176  0.1695
82069W        W82933  12.930   8.223  15.853 -0.0247 -0.0436 -0.0307
82070W        W82934  11.618   3.653  15.933 -0.0752 -0.4018  0.0210
82071W        W82935  13.135   7.017  16.947  0.1452 -0.0881  0.1908
82072W        W82936  14.258   7.893  17.342  0.0846 -0.0689  0.1668
82073W        W82937  11.574   6.806  18.815 -0.0177  0.0128  0.3228
82074W        W82938  12.570   3.788  16.736 -0.0845  0.2457 -0.1760
82075W        W82939   8.375   8.096  17.363 -0.2863 -0.1645  0.2808
82076W        W82940  13.595   2.323  15.391  0.2872  0.3130  0.2330
82077W        W82941  14.608   6.209  14.326 -0.1376  0.1206  0.0551
82078W        W82942  15.250   3.237  16.330  0.0459 -0.1678 -0.0603
82079W        W82943  14.833   4.880  15.213  0.0921  0.0128  0.0493
82080W        W82944  12.506   6.311  17.270  0.0754  0.0752  0.1591
82081W        W82945  13.371   4.897  20.575  0.0671 -0.2503 -0.0397
82082W        W82946  16.908   4.938  17.113 -0.0013  0.0800 -0.2928
82083W        W82947  13.934   4.466  19.508  0.4707  0.4210 -0.2928
82084W        W82948   9.632   9.290  16.822  0.2357  0.1892  0.1471
82085W        W82949  14.438   8.718  15.868  0.0883  0.0500  0.2158
82086W        W82950  16.153   7.229  18.420 -0.0168 -0.2367 -0.1416
82087W        W82951  11.070   3.613  13.949 -0.2751  0.1730 -0.2129
82088W        W82952  14.320   9.802  16.560 -0.0919  0.0609  0.1228
82089W        W82953  15.485   3.390  15.639 -0.1905 -0.1609  0.3141
82090W        W82954  11.010   5.491  15.061  0.0170  0.5290  0.2502
82091W        W82955  10.125   6.406  16.129  0.0215 -0.0355  0.1799
82092W        W82956  13.063   6.314  13.055  0.0380  0.0925  0.1111
82093W        W82957  13.312   8.300  16.698 -0.1564 -0.0218 -0.0732
82094W        W82958  10.371   5.785  14.633  0.1802  0.0881  0.4620
82095W        W82959  10.771   6.410  15.674  0.2549  0.0021  0.2231
82096W        W82960  14.812   8.022  14.732  0.0369  0.3431  0.0658
82097W        W82961  11.986   2.517  14.801  0.0868 -0.0716 -0.0183
82098W        W82962  12.638   0.865  16.120 -0.0078  0.2572 -0.2600
82099W        W82963  12.359   5.321  15.117  0.0876  0.0201  0.0457
82100W        W82964  12.811   6.462  18.090 -0.0005 -0.3854 -0.2622
82101W        W82965  11.760   7.352  14.766 -0.0641 -0.0170 -0.3380
82102W        W82966  11.109   4.832  13.840  0.0141 -0.0897 -0.2853
82103W        W82967  11.893   4.702  13.057 -0.2632 -0.0229  0.2143
82104W        W82968  10.551   9.538  17.909 -0.0800  0.0576 -0.1586
82105W        W82969  13.613   4.419  19.884  0.1461  0.0339 -0.0034
82106W        W82970  10.025   3.657  18.014 -0.0804  0.0115 -0.1237
82107W        W82971   9.718   8.201  13.851  0.1112 -0.0266 -0.2183
82108W        W82972  14.207   5.946  16.543 -0.2144  0.2675  0.3307
82109W        W82973  12.563   4.474  17.497 -0.1866  0.2625  0.1454
82110W        W82974  13.113   4.514  16.541 -0.3637  0.0456 -0.1190
82111W        W82975  15.525   4.978  12.726 -0.0978  0.1552 -0.2585
82112W        W82976  14.612   7.017  17.487  0.1990  0.3188 -0.1881
82113W        W82977  12.364   7.519  17.890  0.1712 -0.0948 -0.2364
82114W        W82978  14.183   6.654  17.622 -0.0155  0.1773 -0.1145
82115W        W82979  10.835   8.570  16.875 -0.0493  0.2468  0.0373
82116W        W82980  10.175   4.134  13.467  0.2818  0.0766 -0.0675
82117W        W82981  14.623   5.596  13.901 -0.3164 -0.3332  0.0912
82118W        W82982  10.066   6.705  16.714  0.1472 -0.0789  0.2101
82119W        W82983  13.326   6.332  14.401  0.2353 -0.0699 -0.1548
82120W        W82984  11.258   7.353  15.909  0.1455  0.2318  0.0815
82121W        W82985  14.766   5.147  17.611 -0.1690 -0.0447  0.3098
82122W        W82986  12.481   7.845  14.995 -0.0069  0.4353 -0.0085
82123W        W82987  13.334   2.932  16.742 -0.3749 -0.0018 -0.0962
82124W        W82988  11.262   5.394  17.725  0.0593  0.0026 -0.1568
82125W        W82989  12.664   5.907  17.460  0.3352 -0.2346  0.3381
82126W        W82990  13.057   5.566  18.128 -0.2832 -0.0473 -0.0084
82127W        W82991  12.111   3.577  16.619 -0.0027 -0.0627  0.0212
82128W        W82992  13.222   5.658  14.016  0.0858  0.2239  0.1661
82129W        W82993   9.173   4.915  16.317  0.3026 -0.2312 -0.1006
82130W        W82994  10.029   8.122  14.943 -0.3080 -0.0003 -0.2100
82131W        W82995  12.540   5.302  16.786 -0.0043  0.3386 -0.2580
82132W        W82996  11.601   9.328  19.780 -0.3729  0.1141 -0.2316
82133W        W82997  11.805   4.485  16.129  0.2688  0.0442  0.2195
82134W        W82998  13.700   6.343  13.973 -0.0524  0.1104 -0.0818
82135W        W82999  11.940   7.252  16.264  0.2126  0.2971 -0.1604
82136W        W83000  11.195   5.548  17.026 -0.2502 -0.3006  0.2691
82137W        W83001  14.983   5.362  16.243  0.0563 -0.0103 -0.0972
82138W        W83002  12.176   2.879  20.410 -0.0192  0.2435 -0.0786
82139W        W83003  10.220   5.437  18.939  0.0455 -0.1587  0.2354
82140W        W83004  12.208   7.654  16.680 -0.2964  0.0120  0.1331
82141W        W83005  13.078   7.899  17.437  0.1689 -0.1273  0.0600
82142W        W83006  12.196   5.721  17.623  0.1307 -0.5633 -0.1807
82143W        W83007  12.166   4.456  18.414 -0.5852 -0.1817  0.0491
82144W        W83008  13.417   7.191  17.386  0.1551  0.2264  0.5945
82145W        W83009  10.410   4.201  18.147  0.0935  0.2486 -0.2623
82146W        W83010  12.873   6.568  15.522  0.0424  0.2426  0.0516
82147W        W83011  12.199   3.846  13.758 -0.0565  0.4699 -0.0833
82148W        W83012  11.710   6.857  20.690  0.1706 -0.5142 -0.1329
82149W        W83013  10.018   9.734  19.734  0.0187  0.3851  0.1219
82150W        W83014  12.419   6.192  19.499  0.0362 -0.0135 -0.2068
82151W        W83015  12.564   3.864  19.645  0.3889  0.0207 -0.2960
82152W        W83016  12.040   6.821  18.987 -0.0428  0.0215  0.0897
82153W        W83017  11.838   4.981  20.446 -0.0000 -0.2309 -0.0560
82154W        W83018  11.194   5.568  19.272 -0.0647  0.0809  0.0418
82155W        W83019  12.406   4.954  18.276 -0.0577  0.1693 -0.1438
82156W        W83020  13.088   7.113  23.570  0.0215 -0.0123 -0.0909
82157W        W83021  10.247   3.645  21.482 -0.0245  0.1347 -0.0721
82158W        W83022  10.407   2.045  20.416 -0.1631 -0.1735 -0.3015
82159W        W83023  11.095   4.059  17.372  0.3243 -0.0574  0.0412
82160W        W83024  14.101   5.293  19.769  0.0283  0.1850  0.0089
82161W        W83025  14.804   5.430  24.507 -0.2935  0.0452 -0.2111
82162W        W83026  11.754   2.739  18.214 -0.2242 -0.1309 -0.1538
82163W        W83027  12.582   5.682  21.139 -0.1516 -0.1289  0.1468
82164W        W83028  11.009   5.320  18.373  0.1264 -0.0617 -0.0842
82165W        W83029  11.496   4.591  20.486 -0.1392 -0.0048  0.0770
82166W        W83030  12.707   6.879  22.589 -0.0207 -0.0760 -0.5032
82167W        W83031  12.703   3.844  19.024 -0.1604  0.0899 -0.2710
82168W        W83032  15.639   5.907  22.961 -0.3953 -0.0671 -0.1967
82169W        W83033  12.894   6.179  20.272 -0.2355 -0.0508  0.0883
82170W        W83034  11.662   5.498  20.557 -0.2049 -0.2676 -0.0877
82171W        W83035  10.881   3.739  21.000  0.1546 -0.1396 -0.2837
82172W        W83036  11.151   6.502  22.523 -0.2343 -0.2345 -0.2031
82173W        W83037  11.617   6.412  23.402 -0.0487 -0.1948 -0.3922
82174W        W83038  14.972   3.778  22.294 -0.1316 -0.1426  0.1347
82175W        W83039  11.365   3.966  20.918 -0.1226 -0.0450  0.1519
82176W        W83040  12.946   4.804  18.372  0.3297 -0.1276 -0.4544
82177W        W83041  12.345   5.348  23.863  0.1646  0.1478 -0.2309
82178W        W83042  12.384   6.403  20.417 -0.0021  0.0676 -0.2073
82179W        W83043  13.677   7.051  22.804  0.0341 -0.0898  0.1741
82180W        W83044  12.498   5.859  22.179  0.3275  0.0397 -0.0101
82181W        W83045  12.267   6.976  23.583 -0.2749 -0.0224 -0.0068
82182W        W83046  10.362   3.286  22.361  0.2583 -0.0191  0.4902
82183W        W83047  13.490   6.638  23.344  0.1222 -0.2707  0.1107
82184W        W83048  13.648   4.570  16.534 -0.0108 -0.0024  0.3021
82185W        W83049  12.568   5.256  20.215 -0.2116 -0.0819  0.0982
82186W        W83050  14.460   7.604  21.715 -0.0509  0.1387 -0.0183
82187W        W83051  13.792   2.505  20.317  0.0635  0.2451  0.1979
82188W        W83052  15.168   3.969  18.344  0.2613  0.0355 -0.0853
82189W        W83053  13.839   3.617  21.040 -0.0586 -0.2389 -0.2262
82190W        W83054  13.764   7.879  20.845  0.0023  0.0300  0.1227
82191W        W83055  14.582   4.394  17.773  0.3008 -0.1844 -0.1431
82192W        W83056  11.861   5.985  19.582  0.0391 -0.2759  0.1797
82193W        W83057   9.533   8.823  19.634 -0.1263  0.2132 -0.0879
82194W        W83058  11.124   4.677  18.833 -0.1187  0.0322 -0.5186
82195W        W83059  12.752   4.051  20.523  0.2194 -0.0696  0.0805
82196W        W83060  12.070   4.559  20.339  0.1322 -0.2858  0.1150
82197W        W83061  13.675   5.233  15.966 -0.4253  0.1789  0.3978
82198W        W83062  13.259   6.657  21.404  0.0272 -0.2422  0.3590
82199W        W83063  11.108   5.155  18.984  0.0826 -0.0436  0.0987
82200W        W83064  10.666   7.861  19.910 -0.3256 -0.0644 -0.1880
82201W        W83065  12.168   5.418  19.346 -0.3806  0.3665 -0.0843
82202W        W83066  14.300   1.311  17.125 -0.0889  0.1502  0.2331
82203W        W83067  10.513   8.635  18.797  0.1304 -0.1163  0.2741
82204W        W83068  11.842   3.992  16.312 -0.0963 -0.0032 -0.0279
82205W        W83069  13.157   5.441  20.014  0.0909  0.2274 -0.3118
82206W        W83070  10.240   6.148  19.696 -0.0643 -0.0845  0.0628
82207W        W83071  11.792   5.619  15.695  0.1069  0.0549  0.0040
82208W        W83072  13.166   4.424  17.446  0.1594  0.3216  0.1534
82209W        W83073   9.485   9.476  19.800  0.2310 -0.0074 -0.0323
82210W        W83074   9.748   5.329  20.931 -0.0804  0.3353 -0.0989
82211W        W83075  11.826   5.931  20.071  0.0179 -0.1019 -0.0875
82212W        W83076  10.941   2.768  18.930  0.2130  0.1712 -0.0722
82213W        W83077  13.228   2.809  18.874 -0.1073 -0.0147  0.0992
82214W        W83078  12.505   5.210  16.312 -0.3334 -0.0721  0.0988
82215W        W83079  11.430   4.890  17.555  0.1971  0.1332 -0.1052
82216W        W83080   7.541   7.953  18.208  0.5022 -0.0814 -0.0386
82217W        W83081  10.750   5.204  20.755 -0.2010 -0.0156 -0.3805
82218W        W83082  13.101   6.694  21.895  0.0651  0.0074  0.0992
82219W        W83083  13.769   5.257  15.108  0.1299  0.0541  0.0433
82220W        W83084  15.642   5.413  20.132 -0.1226 -0.1502 -0.0586
82221W        W83085  13.489   5.054  20.027  0.1503  0.1629  0.0038
82222W        W83086  13.612   4.646  19.043 -0.4259 -0.0412 -0.2614
82223W        W83087  13.370   7.517  22.354  0.1181  0.0859  0.0194
82224W        W83088  13.223   5.075  17.800 -0.0905 -0.0546 -0.0441
82225W        W83089  13.657   5.561  22.499 -0.2236 -0.1459  0.3897
82226W        W83090  14.014   6.114  17.910 -0.0692 -0.1649 -0.2371
82227W        W83091  14.804   3.908  17.973 -0.2190  0.0818  0.0582
82228W        W83092  10.974   4.933  22.801  0.0773  0.0562  0.0004
82229W        W83093  11.213   3.318  20.700  0.2833 -0.0060 -0.0135
82230W        W83094  11.764   1.864  18.270 -0.0330  0.2797 -0.4079
82231W        W83095  12.718   2.040  20.277  0.3888  0.0205 -0.1904
82232W        W83096  12.498   3.055  20.080 -0.0180 -0.0537  0.0972
82233W        W83097  13.312   3.859  15.075 -0.1103 -0.0290 -0.1804
82234W        W83098  12.183   4.681  21.738 -0.0951  0.4756  0.1238
82235W        W83099  14.356   3.080  19.712  0.2320  0.0333  0.0692
82236W        W83100  12.355   4.605  21.286  0.0235 -0.2013 -0.3632
82237W        W83101  15.407   1.743  21.324 -0.1738  0.1609  0.0231
82238W        W83102  12.818   3.022  19.058 -0.2407 -0.3889 -0.0126
82239W        W83103  12.642   6.646  22.170 -0.1345 -0.1888  0.3047
82240W        W83104  10.085   7.670  19.140  0.2624 -0.2656  0.2505
82241W        W83105  10.430   4.336  20.335 -0.1856  0.1300 -0.4057
82242W        W83106  10.634   3.104  19.626  0.1352  0.0912  0.1150
82243W        W83107  11.913   2.856  18.920 -0.1168 -0.0710 -0.1281
82244W        W83108  15.757   8.040  17.283  0.2139  0.0753  0.2229
82245W        W83109  11.762   5.894  21.134 -0.0513 -0.0265 -0.0276
82246W        W83110  11.607   2.500  15.126  0.0683  0.2451 -0.0975
82247W        W83111  11.967   3.414  22.903  0.0334 -0.0831  0.2079
82248W        W83112  14.271   7.715  16.239  0.0771  0.1892 -0.1336
82249W        W83113  12.543   5.739  19.343 -0.1804 -0.0656 -0.2822
82250W        W83114  14.254   5.169  16.173 -0.2128  0.0597 -0.0065
82251W        W83115  14.799   5.453  19.516 -0.0252  0.1997 -0.3063
82252W        W83116  15.615   2.424  19.124  0.3751  0.0975  0.1054
82253W        W83117  13.432   3.317  23.453  0.0577  0.0805  0.1777
82254W        W83118  13.686   4.840  17.692 -0.0867 -0.1158  0.1399
82255W        W83119  12.341   4.702  23.598 -0.1931 -0.0191  0.0031
82256W        W83120  12.284   6.206  21.236  0.2368  0.1612  0.0955
82257W        W83121  12.632   3.568  21.933  0.0595 -0.0543 -0.0308
82258W        W83122  10.113   5.654  20.330  0.0147 -0.0728  0.2751
82259W        W83123  14.210   5.723  18.396  0.4014 -0.2765  0.1015
82260W        W83124  14.120   0.833  19.796  0.0107  0.3267 -0.2345
82261W        W83125  13.756   7.298  21.990  0.2080  0.3260  0.0351
82262W        W83126  13.630   6.728  16.818 -0.0970 -0.0260 -0.3924
82263W        W83127  12.189   5.881  20.858  0.0605 -0.0153  0.1594
82264W        W83128  16.188   5.205  20.916 -0.0383  0.1232  0.0911
82265W        W83129  11.192   4.860  21.422  0.1629 -0.0720  0.2356
82266W        W83130  13.719   4.346  17.407 -0.2306  0.2318 -0.0739
82267W        W83131  13.894   3.223  20.698  0.0406  0.0998 -0.1585
82268W        W83132  13.606   6.069  17.185  0.0284 -0.4963 -0.1747
82269W        W83133  11.953   7.125  17.353  0.1477 -0.0244  0.1731
82270W        W83134  14.843   6.063  20.606 -0.2851 -0.0373  0.2757
82271W        W83135  15.249   5.258  17.633 -0.0206 -0.0201  0.3111
82272W        W83136  12.064   5.832  17.142 -0.0575  0.0086 -0.0831
82273W        W83137  12.316   3.808  20.681 -0.0415 -0.0923 -0.2388
82274W        W83138  12.876   5.529  18.993 -0.3206  0.1063 -0.1910
82275W        W83139  12.371   4.998  20.601 -0.2135  0.1237 -0.1184
82276W        W83140  13.144   6.258  23.508  0.0240  0.2924 -0.1042
82277W        W83141  11.692   7.471  19.769 -0.1021  0.4205  0.0059
82278W        W83142  13.856   7.733  23.571 -0.0021  0.4536 -0.0171
82279W        W83143  10.582   4.845  20.392 -0.0458 -0.1814  0.0330
82280W        W83144  11.056   4.379  20.546  0.0206  0.1639 -0.3486
82281W        W83145  13.993   3.394  17.356  0.1364 -0.6317  0.1610
82282W        W83146  13.434   4.315  19.287 -0.0856  0.0650  0.0756
82283W        W83147  12.087   5.765  21.887 -0.0240  0.1168  0.0810
82284W        W83148  14.135   5.071  18.474  0.2902  0.0880 -0.2569
82285W        W83149  12.931   2.162  20.852  0.0482 -0.1673 -0.0879
82286W        W83150  11.637   8.149  19.288 -0.1224  0.1848 -0.3793
82287W        W83151  13.365   7.409  18.903 -0.0950 -0.1882  0.0094
82288W        W83152  14.469   5.686  20.388 -0.2036 -0.2094 -0.0377
82289W        W83153  11.802   3.751  20.963  0.1601  0.1579 -0.0386
82290W        W83154   9.247   7.203  17.624  0.0945  0.0572  0.0329
82291W        W83155  10.444   6.794  18.332 -0.3529 -0.1002 -0.2244
82292W        W83156  12.846   4.209  19.400 -0.1481  0.1461  0.0240
82293W        W83157  14.637   4.034  18.483  0.1203  0.0519  0.3287
82294W        W83158  13.669   1.831  20.403 -0.3594 -0.0471 -0.0823
82295W        W83159  13.952   6.626  20.902 -0.2393 -0.1414 -0.0739
82296W        W83160  11.304   6.907  17.963  0.1597  0.2320 -0.4203
82297W        W83161   8.563   5.162  19.282 -0.0761  0.0239  0.0261
82298W        W83162  13.269   6.508  20.493  0.2115 -0.3055  0.2488
82299W        W83163  10.621   4.680  17.411 -0.0743 -0.0463 -0.1074
82300W        W83164  13.175   8.116  21.871 -0.2053 -0.0183 -0.1719
82301W        W83165  10.017   2.542  17.242 -0.0031  0.0815  0.1493
82302W        W83166  11.237   4.807  19.795  0.1141 -0.0414 -0.1227
82303W        W83167  13.736   4.533  21.365 -0.0132  0.2353  0.4896
82304W        W83168   9.303   4.503  21.202  0.0832  0.1851 -0.0740
82305W        W83169  11.702   5.499  19.415  0.1656 -0.0235  0.3727
82306W        W83170  10.641   4.160  17.592 -0.0673 -0.1299  0.1767
82307W        W83171  10.551   6.131  20.862 -0.0210 -0.2276  0.0637
82308W        W83172  12.203   3.639  21.517  0.1893  0.4144 -0.0242
82309W        W83173  11.816   5.098  22.971 -0.0354 -0.0253 -0.1250
82310W        W83174  13.185   4.596  23.348  0.1097  0.3455 -0.1302
82311W        W83175  13.880   4.730  21.802  0.1445  0.2956  0.0164
82312W        W83176  12.298   5.029  22.773 -0.0308 -0.0225  0.0559
82313W        W83177  10.914   6.942  21.338 -0.0271 -0.1146  0.0827
82314W        W83178  11.445   7.161  17.351 -0.1787  0.2554  0.0628
82315W        W83179   8.506  10.573  20.572 -0.1473  0.1856  0.0786
82316W        W83180  12.592   6.421  22.911 -0.0348  0.3628 -0.2208
82317W        W83181  10.950   5.734  17.976 -0.0421  0.1863  0.1083
82318W        W83182  13.044   4.652  19.357 -0.0228 -0.2966 -0.0866
82319W        W83183  14.784   3.157  20.008  0.4344  0.0486 -0.1138
82320W        W83184  12.782   4.333  21.344 -0.1418 -0.1866  0.0196
82321W        W83185  13.284   5.676  18.601  0.1413  0.0913  0.1251
82322W        W83186  12.426   5.214  17.651 -0.0392  0.1483  0.0462
82323W        W83187  13.589   2.564  19.797 -0.1502 -0.0280 -0.1642
82324W        W83188  13.875   6.066  19.499 -0.0678 -0.1642 -0.4000
82325W        W83189  10.765   5.439  19.513 -0.0729  0.1569  0.2611
82326W        W83190   9.286   8.669  19.069 -0.2877 -0.1213  0.1842
82327W        W83191  11.966   2.414  19.094 -0.2461 -0.1928  0.1605
82328W        W83192   8.922   9.992  18.823  0.0958  0.1903  0.1092
82329W        W83193  15.912   6.569  19.665  0.0569 -0.3686  0.1671
82330W        W83194  13.334   5.386  16.663 -0.3105 -0.1713  0.2279
82331W        W83195  11.597   2.286  20.001 -0.1030 -0.0287 -0.3339
82332W        W83196  14.107   2.862  18.224 -0.1262  0.1218  0.1360
82333W        W83197  12.573   7.176  22.116  0.0400 -0.1070 -0.0460
82334W        W83198  12.163   7.693  18.714 -0.3532  0.1539 -0.3935
82335W        W83199  12.708   3.713  17.268  0.1778 -0.2015  0.1319
82336W        W83200  12.020   3.274  21.845  0.0799 -0.0020 -0.3497
82337W        W83201  11.020   5.377  20.366  0.2946  0.0477 -0.0657
82338W        W83202  10.052   3.708  19.047 -0.2515  0.0971 -0.1885
82339W        W83203   9.754   8.689  17.722 -0.3520  0.0398 -0.2728
82340W        W83204  12.876   6.839  23.082 -0.0552  0.1388  0.0464
82341W        W83205  12.834   4.510  21.792  0.0356 -0.4158  0.1639
82342W        W83206  15.224   1.851  22.565 -0.1170 -0.2443 -0.0270
82343W        W83207  14.640   2.458  19.043 -0.0372  0.2144 -0.1366
82344W        W83208  12.511   3.090  17.749 -0.0378 -0.3859  0.1121
82345W        W83209   9.431   4.342  20.251  0.0510  0.0853 -0.0527
82346W        W83210  10.042   4.574  20.647 -0.1633  0.3700  0.2508
82347W        W83211  13.522   2.374  19.052 -0.2582  0.0430  0.0221
82348W        W83212   9.635   3.534  16.985 -0.3518  0.0572  0.0238
82349W        W83213  12.262   0.515  19.054  0.1628 -0.1652  0.2041
82350W        W83214  13.770   5.128  16.442 -0.0108  0.1722 -0.3734
82351W        W83215  13.221   2.676  23.143 -0.1683  0.0186  0.0183
82352W        W83216  12.089   5.016  20.013 -0.1113 -0.1127 -0.2081
82353W        W83217  14.051   4.764  14.086  0.0329  0.2235 -0.0140
82354W        W83218  11.459   6.253  20.207  0.0791 -0.0527  0.2331
82355W        W83219  15.776   5.102  22.079 -0.2702 -0.0512  0.1124
82356W        W83220  13.053   8.330  18.383 -0.1993  0.1137  0.0918
82357W        W83221   8.824   6.230  16.066  0.1506  0.2273  0.1951
82358W        W83222  12.724   7.454  21.724  0.0529  0.0700  0.1298
82359W        W83223  11.707   4.739  20.023  0.1364 -0.4636  0.3648
82360W        W83224  11.913   4.903  22.185  0.1083 -0.0866 -0.2455
82361W        W83225  11.455   5.223  20.113  0.0579  0.2899  0.3134
82362W        W83226  14.779   5.159  19.013 -0.0052  0.0216 -0.1367
82363W        W83227  15.425   7.381  19.691  0.1721  0.2626 -0.0727
82364W        W83228  14.127   4.435  20.019  0.1367  0.1023  0.3592
82365W        W83229  11.775   6.960  19.830 -0.1559  0.2655 -0.1830
82366W        W83230  11.801   7.680  24.574  0.0271  0.1337  0.1362
82367W        W83231   9.933   5.729  19.812  0.4417  0.2261 -0.1529
82368W        W83232  14.839   2.729  20.301  0.0831 -0.3258  0.0231
82369W        W83233  14.844   3.461  20.470 -0.3399 -0.0052  0.1063
82370W        W83234  10.973   4.813  22.319  0.0101  0.0391  0.1867
82371W        W83235  13.654   3.713  17.622  0.0725 -0.0612 -0.1656
82372W        W83236  14.370   5.871  19.398 -0.1809 -0.2801 -0.0723
82373W        W83237  10.807   2.527  22.243  0.0349 -0.1088  0.4472
82374W        W83238  12.685   6.725  23.518  0.1822 -0.1910 -0.3175
82375W        W83239  12.203   2.554  18.548 -0.4293  0.3266 -0.0476
82376W        W83240  13.689   6.530  19.717 -0.0981 -0.1797 -0.0395
82377W        W83241  14.769   4.971  18.079 -0.3498 -0.5992 -0.1416
82378W        W83242  11.652   3.889  21.432  0.1195 -0.0006  0.1107
82379W        W83243  12.002   8.957  22.412 -0.0246 -0.1945  0.0796
82380W        W83244  11.647   3.450  16.362  0.1136 -0.2008  0.3916
82381W        W83245  12.087   4.789  19.184  0.0376  0.2360 -0.0195
82382W        W83246   8.295   5.647  20.533  0.0003  0.0249  0.0162
82383W        W83247  12.581   5.454  21.644  0.1878  0.2130 -0.1022
82384W        W83248  12.256   3.877  18.143 -0.0854 -0.2829  0.0520
82385W        W83249  13.516   2.081  20.046 -0.3060 -0.2171  0.3681
82386W        W83250  15.969   5.526  18.116 -0.1169  0.2158  0.0404
82387W        W83251  15.060   7.033  18.929 -0.2485 -0.4998  0.0881
82388W        W83252  11.736   6.360  18.793  0.1619  0.2385  0.1398
82389W        W83253  11.094   7.419  21.698  0.2187  0.0795 -0.2930
82390W        W83254  13.499   6.372  24.532 -0.1880  0.0853 -0.3552
82391W        W83255  10.348   5.089  18.497 -0.0797  0.1456  0.0050
82392W        W83256  12.328   4.253  19.955  0.1530 -0.0354  0.1663
82393W        W83257  10.207   5.567  18.438  0.0889 -0.1163 -0.0669
82394W        W83258  16.723   5.219  21.544  0.0121  0.0831  0.1844
82395W        W83259  12.045   8.401  22.564  0.1741  0.0108 -0.2467
82396W        W83260  11.647   4.656  18.774  0.2968 -0.2305  0.2416
82397W        W83261  12.294   2.664  19.898  0.1820 -0.0891  0.0403
82398W        W83262  11.035   4.998  17.982  0.2646 -0.0293 -0.1022
82399W        W83263  10.822   6.970  20.821  0.2293  0.2329 -0.0554
82400W        W83264  13.504   6.932  20.966 -0.1832  0.1666 -0.0110
82401W        W83265  13.203   4.292  18.221 -0.0029  0.0074 -0.1468
82402W        W83266  11.815   0.915  16.843  0.0583 -0.1774 -0.0034
82403W        W83267  14.134   8.406  18.709  0.0538 -0.0370 -0.1207
82404W        W83268  14.336   4.826  17.545 -0.0777 -0.1545 -0.2187
82405W        W83269  10.993   4.275  21.099  0.1118  0.1675  0.0394
82406W        W83270  14.594   7.808  19.725  0.3128 -0.2024  0.2666
82407W        W83271  11.834   4.264  20.684 -0.1098 -0.1368 -0.0454
82408W        W83272   8.858   4.698  17.475 -0.0871  0.1015  0.0137
82409W        W83273  11.890   7.212  22.799 -0.1894 -0.2849 -0.3314
82410W        W83274  12.471   2.385  19.417  0.3879 -0.1603  0.2272
82411W        W83275  12.213   6.122  23.337 -0.1978 -0.0910 -0.0698
82412W        W83276  11.911   7.690  19.190 -0.3469 -0.3529  0.3529
82413W        W83277  10.557   6.628  20.544  0.0811 -0.2250 -0.1137
82414W        W83278   9.475   6.441  17.477 -0.0123 -0.1053  0.0159
82415W        W83279  13.357   5.956  19.546 -0.2027 -0.0558 -0.1211
82416W        W83280  10.162   6.836  22.601 -0.1500  0.0523  0.1335
82417W        W83281  14.871   3.185  17.192  0.1116  0.0665  0.0754
82418W        W83282  11.043   9.800  17.774  0.0660  0.1289  0.1639
82419W        W83283  13.551   6.209  22.788  0.0135 -0.0633 -0.1321
82420W        W83284  12.397   4.398  20.800 -0.0882  0.1538 -0.1336
82421W        W83285  11.745   7.240  20.218 -0.0481  0.0249  0.0385
82422W        W83286  12.104   5.631  21.401  0.2048 -0.0828 -0.1567
82423W        W83287  14.367   3.751  22.941 -0.4393  0.2238  0.0020
82424W        W83288  11.335   5.779  20.181  0.0127 -0.1093  0.1938
82425W        W83289  10.134   2.896  19.606  0.2489  0.0788 -0.1454
82426W        W83290  12.790   5.247  18.569 -0.0159 -0.3278 -0.0029
82427W        W83291  10.374   8.293  19.840  0.1171 -0.5075 -0.0995
82428W        W83292  11.866   5.490  19.871 -0.1046 -0.1415 -0.2666
82429W        W83293  12.360   0.835  19.839 -0.0593  0.2250  0.1317
82430W        W83294   9.487   5.051  21.488  0.3297  0.0841  0.4385
82431W        W83295   9.616   6.680  22.016 -0.1894 -0.1841  0.0757
82432W        W83296  14.797   4.954  19.572 -0.0671  0.2795 -0.0993
82433W        W83297  12.656   2.172  21.891 -0.4684  0.2815 -0.0204
82434W        W83298  12.173   5.908  18.177 -0.3582  0.3472 -0.4990
82435W        W83299  10.821   6.053  20.082 -0.2196  0.1240 -0.4067
82436W        W83300  15.296   2.112  18.626  0.3408  0.1942  0.0639
82437W        W83301  13.077   5.858  21.437  0.0373 -0.1284  0.0006
82438W        W83302  11.960   5.344  20.968  0.1219 -0.2954  0.1360
82439W        W83303  13.112   3.152  17.790  0.1798 -0.1821 -0.0759
82440W        W83304  12.402   6.499  19.108  0.3838 -0.2766  0.5393
82441W        W83305  13.085   7.151  21.616 -0.1459  0.0632 -0.0534
82442W        W83306   8.717   5.155  18.784 -0.2451 -0.1239  0.0251
82443W        W83307  13.365   5.096  17.343 -0.0692  0.0541 -0.2274
82444W        W83308  13.962   3.701  22.556 -0.1377 -0.1756 -0.1501
82445W        W83309  16.639   5.587  22.049  0.0008 -0.0222  0.0291
82446W        W83310  13.782   2.152  19.579  0.1129  0.1526 -0.1068
82447W        W83311  10.562   7.488  22.361 -0.2124  0.0767 -0.0693
82448W        W83312  12.533   6.637  17.609  0.0240  0.0414  0.2354
82449W        W83313  10.179   4.459  21.145 -0.1445 -0.0085  0.1475
82450W        W83314  11.106   9.629  20.855  0.1362  0.1780  0.0676
82451W        W83315  16.939   4.375  19.192  0.0599 -0.1226  0.1509
82452W        W83316  10.972   4.796  20.905 -0.2197  0.1303 -0.0865
82453W        W83317  14.021   9.564  17.496 -0.0870 -0.0589  0.2154
82454W        W83318  13.054   3.794  21.345  0.0041  0.1939 -0.0467
82455W        W83319  11.218   3.678  18.071  0.0102 -0.0115  0.0275
82456W        W83320  13.500   5.691  21.853 -0.2286  0.2567  0.1443
82457W        W83321   9.123   5.343  20.083  0.1354 -0.1393 -0.1318
82458W        W83322  13.059   3.884  15.857 -0.0560  0.2718  0.1051
82459W        W83323  10.102   6.712  22.163  0.1429 -0.1164  0.1462
82460W        W83324  10.661   5.133  17.628 -0.1625  0.2335 -0.0839
82461W        W83325  11.795   6.009  20.548 -0.1086 -0.0749 -0.2342
82462W        W83326  10.743   5.743  18.495  0.2404  0.2554 -0.1861
82463W        W83327  14.737   9.888  23.702 -0.4089  0.0329  0.1174
82464W        W83328   9.920   4.192  20.337 -0.0144 -0.1274  0.0220
82465W        W83329  12.798   3.896  18.169  0.3822  0.0007  0.0498
82466W        W83330  12.799   7.497  22.431  0.1468 -0.0101  0.0143
82467W        W83331  14.503   2.019  20.785 -0.2127 -0.0750  0.2121
82468W        W83332   9.913   7.341  19.497 -0.2174 -0.0212 -0.0532
82469W        W83333  11.906   5.486  17.957 -0.2866 -0.0934  0.1173
82470W        W83334  11.529   9.547  22.320 -0.1330 -0.1049  0.1337
82471W        W83335  13.263   5.938  20.536 -0.1234 -0.0157 -0.1119
82472W        W83336   9.457   8.575  21.196 -0.2406  0.4078 -0.0435
82473W        W83337  12.615   5.411  19.769  0.3946  0.0357  0.0025
82474W        W83338  10.328   3.912  20.241 -0.0927  0.1041 -0.0610
82475W        W83339  12.825   3.210  15.524 -0.0510  0.2026 -0.4092
82476W        W83340  11.312   2.992  19.718 -0.0288 -0.0112  0.2367
82477W        W83341  10.594   7.219  19.230 -0.1258 -0.1435 -0.0559
82478W        W83342  11.416   4.714  22.890  0.0167 -0.0256  0.2406
82479W        W83343  15.488   1.325  17.570  0.2144  0.1252  0.0347
82480W        W83344  13.054   4.769  21.316  0.0743 -0.1919 -0.0790
82481W        W83345   9.502   7.437  21.663 -0.1696  0.1252 -0.1816
82482W        W83346  12.918   5.270  21.324  0.1445 -0.1316  0.0648
82483W        W83347  12.618   4.932  21.797 -0.2043  0.0617 -0.1496
82484W        W83348  10.161   7.316  20.088 -0.3290  0.0618 -0.1314
82485W        W83349  14.245   4.929  19.025  0.1801 -0.0031 -0.2666
82486W        W83350  16.595   5.040  17.507  0.0736 -0.1544  0.2349
82487W        W83351  14.050   2.719  16.158 -0.1892 -0.1761 -0.2229
82488W        W83352  10.261   2.387  19.477 -0.0095 -0.4784  0.1952
82489W        W83353  11.139   5.673  21.911 -0.1375  0.0323 -0.0944
82490W        W83354  12.494   2.894  22.339  0.0172 -0.0543  0.0223
82491W        W83355   8.505   8.947  16.908  0.0200  0.1313 -0.3352
82492W        W83356  12.658   3.493  19.338 -0.2043 -0.0712  0.2047
82493W        W83357  10.493   6.954  20.103 -0.1806 -0.0908 -0.1042
82494W        W83358  11.323   4.350  20.039 -0.1386  0.1922 -0.1263
82495W        W83359  12.631   4.400  18.271  0.0681  0.1491  0.2476
82496W        W83360  11.543   7.244  19.256 -0.0679  0.2734 -0.3795
82497W        W83361  11.111   3.385  15.791  0.0621 -0.0153 -0.0131
82498W        W83362  13.146   4.412  19.777  0.0784  0.1213 -0.0958
82499W        W83363  10.041   3.302  17.454  0.1973 -0.0751  0.1705
82500W        W83364  13.060   5.011  19.762  0.1019 -0.1374 -0.2722
82501W        W83365  11.247   7.369  20.655  0.1824  0.0800  0.0983
82502W        W83366   9.498   7.576  18.716 -0.1170  0.3546 -0.0744
82503W        W83367  12.263   2.856  18.137 -0.1174  0.2088 -0.1442
82504W        W83368  11.134   6.342  19.804  0.2224 -0.3087 -0.0310
82505W        W83369  15.828   2.804  20.819  0.0330  0.1075 -0.2599
82506W        W83370  11.449   4.103  20.421  0.0683  0.3076 -0.0446
82507W        W83371  10.655   4.310  17.067 -0.1346  0.0016 -0.2520
82508W        W83372  12.076   6.333  16.955  0.0416 -0.0787  0.1810
82509W        W83373  11.363   4.616  18.352  0.0870  0.0234 -0.0231
82510W        W83374  10.284   5.296  19.449  0.0543  0.0760 -0.0495
82511W        W83375  12.973   3.630  16.426  0.1064 -0.0373 -0.3028
82512W        W83376  11.132   8.250  21.122 -0.0275  0.1702  0.2212
82513W        W83377  10.130   7.428  21.743 -0.1360  0.1802 -0.0699
82514W        W83378  12.092   7.739  19.825 -0.2135  0.1174  0.0531
82515W        W83379  13.330   4.678  21.705  0.1484  0.0708 -0.0113
82516W        W83380  12.952   1.749  18.367  0.0847 -0.1284 -0.1374
82517W        W83381  13.116   4.777  18.873  0.0570  0.1022  0.2411
82518W        W83382  10.888   4.065  20.171  0.0516  0.2013  0.1400
82519W        W83383  15.168   2.531  18.406  0.0819  0.3840 -0.2536
82520W        W83384  12.680   6.055  18.965 -0.0946  0.1724 -0.0336
82521W        W83385  13.091   4.345  20.264  0.2504  0.2066  0.0695
82522W        W83386  12.958   5.502  17.631 -0.1644  0.0597 -0.2988
82523W        W83387  12.837   2.655  22.047 -0.0896 -0.0406 -0.0138
82524W        W83388  12.350   5.476  18.381 -0.2105  0.0518 -0.2305
82525W        W83389  13.938   8.163  23.221  0.1492  0.2638 -0.0482
82526W        W83390  12.998   4.139  20.970 -0.2128  0.2282  0.0706
82527W        W83391   9.099   5.581  19.283 -0.0118 -0.3071  0.0119
82528W        W83392  12.091   4.055  21.228  0.1221 -0.1593 -0.2800
82529W        W83393  10.615   7.643  21.769 -0.0335  0.0275 -0.1785
82530W        W83394  11.113   2.830  20.508 -0.0095  0.0928  0.1450
82531W        W83395  11.631   5.497  24.615  0.3199  0.2133  0.1486
82532W        W83396  14.662   8.081  23.277  0.0545  0.1031  0.3034
82533W        W83397  15.363   4.318  21.576  0.1368 -0.0070 -0.1479
82534W        W83398  13.000   5.617  19.528 -0.2970 -0.2295 -0.0696
82535W        W83399  12.165   5.823  22.559 -0.0521  0.2911  0.0139
82536W        W83400  13.704   8.374  21.822  0.0407 -0.2311  0.5342
82537W        W83401  13.488   6.020  23.218 -0.1140 -0.2381  0.3201
82538W        W83402  13.448   7.221  23.214  0.1761 -0.1725 -0.1158
82539W        W83403  12.271   5.423  22.179 -0.1234  0.0162  0.0973
82540W        W83404  13.485   8.096  24.439 -0.0524  0.0819 -0.1140
82541W        W83405  12.895   6.311  21.621 -0.3771  0.3061  0.1529
82542W        W83406   8.821   7.995  20.786  0.0964  0.1368  0.3806
82543W        W83407  15.060   6.002  23.077 -0.1453 -0.0065  0.4946
82544W        W83408  13.886   7.852  19.991 -0.1784 -0.1667 -0.0333
82545W        W83409  11.695   6.823  22.538 -0.0117  0.2876  0.1791
82546W        W83410   9.926   6.825  18.703 -0.1428 -0.3067  0.0407
82547W        W83411  12.320   3.315  15.309  0.1817  0.2909  0.1210
82548W        W83412  10.446   6.183  25.368  0.1279 -0.1669 -0.1503
82549W        W83413  14.928   6.456  25.395 -0.1826  0.1794  0.3181
82550W        W83414  13.823   6.614  23.027  0.2149  0.1130 -0.2996
82551W        W83415  15.481   7.341  24.831  0.0440 -0.1479 -0.1107
82552W        W83416  12.347   5.163  23.321  0.0352  0.0977 -0.0529
82553W        W83417  11.395   3.483  21.130  0.1047  0.2251 -0.1170
82554W        W83418  11.138   0.562  25.945 -0.1218  0.0073  0.1564
82555W        W83419  12.963   6.870  24.277  0.1028 -0.1298 -0.1449
82556W        W83420  13.020   6.046  25.844  0.2641 -0.0079 -0.5091
82557W        W83421  10.241   5.331  23.945  0.2863  0.2264  0.0177
82558W        W83422  14.922   2.078  22.214  0.2328  0.2915 -0.2060
82559W        W83423  13.568   5.023  24.122 -0.0827  0.0959 -0.0027
82560W        W83424  12.676   4.889  21.034  0.1183 -0.2213 -0.2663
82561W        W83425  15.034   4.594  25.078 -0.1758  0.0922  0.1517
82562W        W83426  12.492   5.488  22.665  0.1651 -0.1968  0.1412
82563W        W83427  12.100   5.619  23.068 -0.3107 -0.1260  0.1489
82564W        W83428  14.693   6.749  23.999  0.2323  0.1744 -0.1575
82565W        W83429  12.799   4.198  22.221  0.0255  0.2147  0.1146
82566W        W83430  13.114   5.520  24.322  0.0382  0.0818 -0.2795
82567W        W83431  13.884   5.189  25.057  0.1976 -0.1161 -0.1009
82568W        W83432  14.262   5.040  23.412 -0.0099  0.5215  0.0036
82569W        W83433  10.866   5.200  23.218  0.1510  0.5343 -0.1266
82570W        W83434  15.441   4.998  25.925  0.0139  0.0050 -0.0220
82571W        W83435  12.817   5.583  25.925 -0.1968 -0.0432 -0.1612
82572W        W83436  13.285   5.231  24.806  0.0926 -0.3217 -0.0270
82573W        W83437  14.186   6.959  25.639 -0.0807  0.2732  0.1281
82574W        W83438  13.812   7.261  24.797 -0.0632  0.1239  0.0818
82575W        W83439  14.260   5.593  23.706 -0.0577 -0.1923 -0.0576
82576W        W83440  16.291   7.520  24.245 -0.0584  0.0526 -0.0945
82577W        W83441  12.180   6.756  22.129 -0.0871 -0.2281 -0.0522
82578W        W83442  11.274   3.688  23.988 -0.1222 -0.1067 -0.0646
82579W        W83443  13.846   5.271  28.365 -0.0575 -0.1992  0.0246
82580W        W83444  12.191   4.692  24.985  0.1305  0.1490  0.0412
82581W        W83445  11.856   2.973  27.645  0.3675 -0.2462  0.1181
82582W        W83446  10.391   2.368  26.812  0.0369  0.1018 -0.0182
82583W        W83447  13.009   6.175  23.063 -0.0410 -0.0764  0.0974
82584W        W83448  11.108   4.541  24.057  0.0045  0.0282  0.0476
82585W        W83449  14.262   8.322  24.833 -0.1516 -0.0716 -0.1215
82586W        W83450  16.400   5.282  23.411 -0.1449 -0.2030 -0.1461
82587W        W83451  12.775   5.122  25.071 -0.0480 -0.3491 -0.0907
82588W        W83452  13.696   5.225  20.579  0.0534  0.1611  0.0700
82589W        W83453  16.317   5.612  26.064  0.1932  0.1371  0.1924
82590W        W83454  12.729   7.089  23.922  0.1946 -0.1010 -0.3229
82591W        W83455  13.701   5.777  23.677  0.2016  0.1338 -0.2412
82592W        W83456  13.276   7.246  24.066  0.0899  0.2886  0.1293
82593W        W83457  12.604   6.473  24.510 -0.0801  0.0728 -0.2166
82594W        W83458   8.515   4.246  25.218  0.0672 -0.1777 -0.2986
82595W        W83459  14.992   3.167  26.393 -0.3283 -0.0988  0.0442
82596W        W83460  11.921   5.907  24.234 -0.0573  0.3623  0.1620
82597W        W83461  16.012   6.979  22.269  0.1566 -0.0193  0.0870
82598W        W83462  12.919   4.887  23.036  0.2710  0.0256  0.1033
82599W        W83463  11.336   5.130  21.850 -0.3868 -0.1050  0.0075
82600W        W83464  12.188  10.364  25.041 -0.1219  0.0841 -0.3039
82601W        W83465  13.205   5.147  23.343  0.1658  0.1698 -0.3340
82602W        W83466   9.926   7.876  21.693 -0.2017  0.0516 -0.3014
82603W        W83467  12.317   7.057  23.035  0.0465  0.1590 -0.2022
82604W        W83468  13.194   3.612  21.819 -0.0657 -0.4272 -0.4579
82605W        W83469  15.099   6.211  22.161 -0.0172 -0.2750 -0.1223
82606W        W83470   9.913   8.288  23.527  0.1614  0.0373  0.2797
82607W        W83471  13.422   6.504  25.561  0.0466  0.0241  0.2611
82608W        W83472  13.363   5.944  22.282  0.1746  0.5822 -0.3321
82609W        W83473  11.713   8.037  25.441  0.0234  0.3207 -0.0420
82610W        W83474  12.211   7.090  24.099  0.0907 -0.0842  0.0205
82611W        W83475  13.140   4.126  23.546 -0.3447 -0.0805  0.2232
82612W        W83476  10.090   3.692  27.057  0.2499 -0.0570  0.3092
82613W        W83477  15.030   7.123  25.933 -0.0455 -0.0308 -0.3749
82614W        W83478  10.862   5.120  19.943  0.0052 -0.3533  0.1148
82615W        W83479  11.843   2.947  19.881  0.2111  0.0248 -0.0890
82616W        W83480  11.497   7.452  22.602  0.1063  0.0404 -0.1709
82617W        W83481   8.103   5.679  21.289  0.0044 -0.2436 -0.1136
82618W        W83482  13.286   8.910  25.472  0.1133  0.0957 -0.0986
82619W        W83483  11.305   2.905  20.949 -0.0943  0.1290 -0.1656
82620W        W83484  14.310   8.004  23.620 -0.0773  0.3115 -0.0850
82621W        W83485  12.788   6.245  23.838 -0.0783 -0.0186  0.1194
82622W        W83486  15.779   5.624  24.728  0.1591 -0.1347  0.3355
82623W        W83487  14.617   5.265  22.965  0.0990  0.0676  0.2696
82624W        W83488   9.977   5.972  23.178 -0.0142 -0.1326  0.2098
82625W        W83489  10.826   5.847  23.328  0.2282 -0.1667 -0.2140
82626W        W83490  12.060   6.231  22.211  0.1360  0.0454  0.3208
82627W        W83491  14.237   6.155  25.933 -0.2201  0.2485  0.0063
82628W        W83492  12.666   8.521  26.763  0.0247 -0.0404  0.0356
82629W        W83493   9.916   5.203  26.735 -0.1466  0.1850  0.0412
82630W        W83494  12.497   5.910  22.985  0.1034  0.0159  0.1409
82631W        W83495  15.759   1.199  24.541  0.0165  0.1247  0.1764
82632W        W83496  13.109   4.059  28.847 -0.0747 -0.4058 -0.0266
82633W        W83497  13.258   4.277  21.414 -0.0121  0.0323  0.1423
82634W        W83498  11.884   6.554  26.331 -0.1046 -0.1489 -0.2280
82635W        W83499  12.696   2.224  24.314  0.0163 -0.2600  0.0721
82636W        W83500  14.471   5.009  24.378  0.1715 -0.2039  0.0349
82637W        W83501  12.777   3.613  26.005  0.2299 -0.0966  0.0230
82638W        W83502  13.486   3.778  23.283 -0.1506 -0.0229  0.1063
82639W        W83503  13.207   3.748  25.787  0.0444 -0.0273  0.0623
82640W        W83504  13.184   8.929  22.505 -0.3215 -0.4553  0.0992
82641W        W83505  11.371   5.545  22.402  0.0099  0.1536  0.0482
82642W        W83506  11.166   4.528  25.749  0.1615 -0.1997 -0.0585
82643W        W83507  13.879   4.778  20.892  0.1446 -0.0659  0.0116
82644W        W83508  16.635   5.960  26.096  0.0507  0.0666 -0.0286
82645W        W83509  12.358   7.238  25.586  0.0523 -0.0891 -0.0813
82646W        W83510  11.721   2.833  23.387 -0.3840  0.2660 -0.0818
82647W        W83511  15.119   3.803  22.895 -0.4308  0.2324 -0.0561
82648W        W83512  14.943   5.540  21.865  0.0529  0.0154  0.2562
82649W        W83513  10.779   7.537  24.739  0.4318 -0.0932 -0.0264
82650W        W83514  16.729   6.701  21.651 -0.2348  0.1176 -0.2142
82651W        W83515  14.481   6.466  26.435  0.0409 -0.3947  0.2637
82652W        W83516  15.902   3.779  26.726 -0.2007 -0.5175  0.2395
82653W        W83517  14.469   4.559  26.092 -0.2042  0.1336  0.0626
82654W        W83518  17.362   5.207  26.955  0.2766 -0.1688  0.1296
82655W        W83519  13.979   5.752  26.117  0.3859  0.0431 -0.1940
82656W        W83520  14.005   6.098  23.326  0.0799 -0.1109  0.1607
82657W        W83521  11.647   6.331  24.798  0.1732  0.2773 -0.0028
82658W        W83522  10.691   4.740  28.362  0.0937 -0.1755 -0.0518
82659W        W83523  13.876   9.056  24.281 -0.0696 -0.1382 -0.1008
82660W        W83524  16.309   4.216  22.975  0.1008  0.3347 -0.2502
82661W        W83525  12.560   7.628  25.802 -0.1391 -0.0918 -0.2917
82662W        W83526  16.433   3.996  20.653 -0.0318  0.4340 -0.0443
82663W        W83527  15.134   3.368  22.541 -0.1328  0.2528  0.0544
82664W        W83528  15.321   9.174  26.589  0.0417 -0.1003 -0.0800
82665W        W83529  12.302   5.856  23.758 -0.0128  0.0457  0.0054
82666W        W83530  13.222   4.085  22.455  0.3117 -0.0164 -0.2802
82667W        W83531  13.202   5.024  22.321 -0.2638 -0.1368 -0.1511
82668W        W83532  14.625   6.200  22.865 -0.1213 -0.3061 -0.0259
82669W        W83533  14.557   8.571  21.743 -0.0584  0.1272  0.0069
82670W        W83534  16.320   6.552  23.565  0.0133  0.0013 -0.0099
82671W        W83535  11.106   5.486  23.620 -0.1030  0.0248 -0.0587
82672W        W83536  12.560   5.580  23.352  0.1420  0.0194  0.1204
82673W        W83537  14.991   5.614  24.915 -0.2432 -0.0297  0.0862
82674W        W83538  11.184   4.965  25.529  0.3700 -0.0997 -0.0237
82675W        W83539  11.750   4.538  23.183  0.0505 -0.0165  0.0691
82676W        W83540  16.222   6.598  24.165  0.1480 -0.1245 -0.6018
82677W        W83541  12.823   9.279  23.832 -0.2663 -0.3551  0.0396
82678W        W83542  13.041   6.518  24.780  0.1016 -0.0082  0.1437
82679W        W83543  15.055   6.678  23.686  0.2188 -0.0131 -0.0124
82680W        W83544  16.723   7.324  23.266  0.0241 -0.2873 -0.0393
82681W        W83545  13.689   2.342  18.129 -0.0614 -0.1743  0.3250
82682W        W83546  13.561   4.020  21.153 -0.0468 -0.4034 -0.4055
82683W        W83547  11.084   3.666  24.479  0.2787 -0.0175 -0.0223
82684W        W83548  12.278   6.613  23.220 -0.2771  0.3028  0.3579
82685W        W83549  16.525   1.838  23.443 -0.0773 -0.1941  0.0204
82686W        W83550  12.128   5.226  21.756 -0.0087  0.0945 -0.1121
82687W        W83551  13.464   6.038  24.888 -0.1783 -0.1707 -0.3746
82688W        W83552   8.015   5.059  21.333 -0.2282  0.2155  0.1628
82689W        W83553  12.374   5.177  24.727  0.1784 -0.1478  0.1783
82690W        W83554  10.538   5.306  20.251  0.3172  0.0262 -0.0418
82691W        W83555  11.913   6.165  21.595 -0.3397  0.3347 -0.0053
82692W        W83556  14.509   4.210  23.932 -0.1095  0.2953 -0.0713
82693W        W83557  13.129   5.059  24.367 -0.2659 -0.2395  0.0791
82694W        W83558  14.281   3.978  23.458 -0.0798 -0.0284  0.1520
82695W        W83559  14.616   6.673  24.911 -0.0141  0.1224 -0.1022
82696W        W83560  13.877   8.069  26.196  0.3461  0.2457  0.0854
82697W        W83561  11.819   6.727  23.012 -0.1979  0.0497 -0.0702
82698W        W83562  13.386   5.660  26.133  0.0404  0.0170  0.1511
82699W        W83563  12.886   2.478  19.077  0.0093  0.0224  0.3022
82700W        W83564  12.310   6.178  24.146  0.0280 -0.2450 -0.0242
82701W        W83565  10.411   5.171  22.912  0.1531 -0.1033 -0.0742
82702W        W83566  13.524   3.759  22.762  0.4363 -0.2602 -0.0765
82703W        W83567  16.801   4.726  23.456  0.1379 -0.0127 -0.1772
82704W        W83568  10.323   6.666  27.428  0.0522 -0.2802 -0.3047
82705W        W83569  12.630   7.221  23.379 -0.2226  0.1633 -0.0156
82706W        W83570  11.781   2.191  20.945 -0.1158  0.0275  0.1205
82707W        W83571  13.771   5.259  23.712 -0.1483 -0.0193  0.0449
82708W        W83572  13.731   3.714  21.804  0.2621 -0.0439  0.3107
82709W        W83573  14.347   6.303  24.801 -0.1974 -0.1179 -0.2529
82710W        W83574  12.476   4.234  24.161  0.1756  0.1993  0.1907
82711W        W83575  10.987   7.048  25.744 -0.0914  0.2831 -0.1536
82712W        W83576  12.045   3.770  25.276  0.0426  0.0166  0.0878
82713W        W83577  11.260   3.780  24.979  0.0895 -0.1661  0.3523
82714W        W83578  12.291   4.700  23.113  0.0478 -0.1972 -0.1588
82715W        W83579  11.220   5.585  24.148  0.0553 -0.0450 -0.3469
82716W        W83580  13.786   5.502  24.172 -0.0766  0.0513 -0.0452
82717W        W83581  11.695   5.145  25.311 -0.1766  0.0382 -0.0008
82718W        W83582  14.054   6.964  23.834 -0.1997 -0.0826  0.1476
82719W        W83583  14.995   1.859  23.038 -0.1083  0.0327  0.0040
82720W        W83584  11.443   5.059  24.429 -0.1105  0.0557  0.1857
82721W        W83585  11.015   3.409  21.506  0.0822 -0.0341  0.1406
82722W        W83586  14.168   3.836  22.085 -0.0422  0.2661 -0.0655
82723W        W83587  17.065   6.141  23.220  0.0255  0.2550 -0.0732
82724W        W83588   8.326   8.359  26.319  0.1133  0.1520 -0.1051
82725W        W83589  12.635   5.850  25.476 -0.0026  0.2239 -0.1269
82726W        W83590  12.238   9.241  22.099  0.1922  0.0183 -0.0871
82727W        W83591  14.473   3.666  23.843 -0.3098 -0.0229 -0.0404
82728W        W83592  14.231   6.819  22.661 -0.1199  0.2756 -0.1657
82729W        W83593  17.066   7.255  22.221 -0.1695  0.0376 -0.1356
82730W        W83594  14.024   8.536  24.399 -0.2018 -0.1398  0.0430
82731W        W83595  11.084   6.620  22.007  0.1273  0.1473  0.1306
82732W        W83596  11.859   4.305  19.964 -0.0736 -0.2005  0.0776
82733W        W83597  12.317   5.104  25.278 -0.1552 -0.3957 -0.1270
82734W        W83598  13.018   3.730  22.884 -0.0596 -0.0850  0.1756
82735W        W83599   9.847   3.308  24.503  0.1550  0.1976  0.1450
82736W        W83600  10.612   4.597  23.648  0.1177 -0.1156 -0.2373
82737W        W83601  11.188   7.724  23.210  0.0252 -0.0087 -0.1030
82738W        W83602  11.195   7.689  19.855 -0.0515  0.1397  0.1565
82739W        W83603  10.220   9.716  21.874  0.0285 -0.4184  0.0894
82740W        W83604  12.112   2.315  25.070 -0.3165  0.1015 -0.0510
82741W        W83605  10.692   5.770  24.919 -0.0193  0.0142  0.2535
82742W        W83606  10.808   3.719  23.306  0.3838  0.1694  0.1589
82743W        W83607  13.245   4.081  21.950 -0.2820 -0.2994  0.3777
82744W        W83608  12.769   2.211  21.366  0.0005  0.1187 -0.2234
82745W        W83609  11.926   5.296  22.521 -0.1913  0.2314 -0.0949
82746W        W83610  13.589   4.779  24.903  0.0586  0.0375  0.0289
82747W        W83611  15.041   5.347  22.381 -0.0110  0.0778 -0.0073
82748W        W83612   9.736   6.654  22.976  0.0859  0.1845 -0.1572
82749W        W83613  16.528   5.672  23.966 -0.1526 -0.1405  0.2057
82750W        W83614  14.644   3.143  21.576  0.1576  0.1738 -0.1733
82751W        W83615  11.159   5.943  22.643  0.0116  0.0931  0.0059
82752W        W83616  10.771   4.252  25.310  0.1373 -0.1199 -0.2294
82753W        W83617  11.570   3.120  21.969  0.1369 -0.0046 -0.3064
82754W        W83618  12.933   6.445  25.308 -0.1813  0.4566  0.1040
82755W        W83619  11.659   4.636  24.867  0.0780 -0.2828 -0.2144
82756W        W83620  13.632   5.172  22.077  0.0328  0.0632 -0.3147
82757W        W83621  10.925   6.708  20.144 -0.3558  0.1363 -0.2396
82758W        W83622  13.840   8.317  27.219 -0.3937 -0.1517 -0.0355
82759W        W83623  10.989   5.471  25.272  0.2150 -0.0016 -0.0711
82760W        W83624  14.449   6.776  23.574 -0.1056 -0.2003  0.1688
82761W        W83625  12.883   3.298  26.383 -0.0903  0.2403 -0.3493
82762W        W83626  14.286   8.009  25.219  0.0021  0.0001 -0.0071
82763W        W83627  15.554   4.747  24.995  0.1294  0.1764 -0.2018
82764W        W83628  13.886   5.274  21.120  0.1017 -0.2857  0.0104
82765W        W83629  12.835   5.847  22.558  0.1467 -0.1538  0.1370
82766W        W83630  13.533   3.271  27.035 -0.3002 -0.1602 -0.0566
82767W        W83631   8.870   3.726  26.003 -0.1075 -0.0632  0.0768
82768W        W83632  14.073   5.215  26.797 -0.0090  0.0897 -0.0232
82769W        W83633  17.274   3.911  22.825  0.0728  0.1215 -0.3634
82770W        W83634  12.339   8.062  25.598  0.2473 -0.1009  0.1740
82771W        W83635  14.005   3.968  21.428 -0.2520 -0.0819 -0.0451
82772W        W83636  14.590   5.221  23.927 -0.0613 -0.0220  0.0526
82773W        W83637  10.522   2.851  26.707 -0.1235  0.1375 -0.0807
82774W        W83638  14.325   7.016  24.744  0.3171  0.0535  0.1145
82775W        W83639  12.733   4.366  26.433  0.0761 -0.3858  0.0559
82776W        W83640  13.181   5.302  21.866  0.1057  0.0602  0.4292
82777W        W83641  12.879   7.001  24.930 -0.4126 -0.0190  0.3777
82778W        W83642  12.321   6.471  23.713  0.0004 -0.2620  0.0803
82779W        W83643  15.366   4.313  25.845  0.1668  0.1265 -0.1933
82780W        W83644  11.607   4.718  21.831 -0.3378  0.0489 -0.4675
82781W        W83645  15.353   8.014  23.957 -0.0345 -0.1228 -0.2948
82782W        W83646  11.594   7.521  25.451 -0.0561  0.0439  0.0526
82783W        W83647  11.912   7.198  23.344 -0.1406  0.0240 -0.0740
82784W        W83648  15.659   6.042  25.806  0.2617  0.0724  0.1909
82785W        W83649  11.426   3.284  25.745 -0.0498 -0.0888  0.1221
82786W        W83650  11.941   5.188  25.740  0.1056 -0.0627  0.1746
82787W        W83651  14.053   9.311  23.687 -0.1375  0.0235 -0.1150
82788W        W83652  12.680   6.565  21.251  0.1072  0.1948  0.2501
82789W        W83653  11.176   7.820  24.579 -0.1898  0.0611  0.1130
82790W        W83654  10.778   3.567  26.744  0.0830  0.3256 -0.3882
82791W        W83655  11.902   5.006  23.468  0.0095 -0.2032  0.1065
82792W        W83656  14.569   3.228  24.062  0.1378  0.1111  0.0909
82793W        W83657  11.768   2.492  20.442 -0.0528  0.0451  0.1755
82794W        W83658  13.787   4.002  25.558  0.0076  0.3758  0.3246
82795W        W83659  12.630   8.352  27.273  0.0315  0.2411  0.2121
82796W        W83660  14.874   8.514  22.129 -0.1037 -0.2290  0.0637
82797W        W83661  10.406   5.562  23.224  0.1778  0.1695  0.1667
82798W        W83662  11.666   5.927  22.143  0.3461 -0.0061  0.1090
82799W        W83663   9.949   7.109  23.977  0.0373  0.2810  0.2138
82800W        W83664  12.483   8.736  24.605 -0.1683 -0.3862  0.1860
82801W        W83665  13.732   3.565  24.091 -0.0224 -0.0631  0.1144
82802W        W83666  10.389   6.121  23.465 -0.0819  0.0295  0.1663
82803W        W83667  11.493   9.717  23.969  0.2260  0.0449  0.0924
82804W        W83668  16.711   5.084  22.495  0.2589 -0.0118 -0.2651
82805W        W83669  13.060   5.168  25.977  0.0697  0.1089 -0.1163
82806W        W83670  13.011  10.484  22.207 -0.1272  0.2381 -0.2098
82807W        W83671  15.622   3.693  22.736  0.1053 -0.2026  0.1010
82808W        W83672  11.541   4.531  22.377  0.1186 -0.1534 -0.3253
82809W        W83673   9.939   5.331  23.253 -0.1481  0.1354 -0.1929
82810W        W83674  16.230   7.307  26.281 -0.3318 -0.0416 -0.0545
82811W        W83675  12.120   6.375  24.575  0.2668  0.0751 -0.3267
82812W        W83676  13.024   8.112  23.981  0.0211  0.0244  0.1021
82813W        W83677   9.927   8.032  26.277  0.1893  0.1590  0.1802
82814W        W83678  10.980   6.498  21.565 -0.1121 -0.0592  0.2621
82815W        W83679  16.655   4.061  23.550 -0.3317 -0.2026  0.0984
82816W        W83680  11.900   3.841  21.923  0.4320 -0.0556 -0.0126
82817W        W83681  14.421   4.742  23.902  0.4569  0.1028  0.1406
82818W        W83682  11.430   8.699  21.017 -0.1580  0.0146  0.1304
82819W        W83683  14.516   4.314  25.073 -0.0831  0.1528  0.0635
82820W        W83684  11.051   3.255  23.372  0.0090  0.2891 -0.0559
82821W        W83685  11.229   5.678  23.066 -0.0406 -0.1922  0.1553
82822W        W83686  10.726   8.371  26.495 -0.0893  0.2149  0.0226
82823W        W83687  13.709   2.336  23.735 -0.1757 -0.0332 -0.0412
82824W        W83688  11.737   1.171  24.706 -0.1597  0.0739 -0.1879
82825W        W83689  13.020   3.601  23.441 -0.0266  0.0472  0.1902
82826W        W83690  11.563   3.605  24.434  0.1174 -0.1086  0.0868
82827W        W83691  13.057   6.700  23.819 -0.0687  0.2887 -0.1667
82828W        W83692  11.585   6.060  25.244  0.0804  0.1152 -0.0599
82829W        W83693  12.396   5.038  19.554 -0.1559  0.1865  0.0952
82830W        W83694  11.269   7.120  23.939  0.2948  0.2213  0.3375
82831W        W83695   9.967   6.554  24.045 -0.1433  0.1204 -0.1982
82832W        W83696  12.578   4.567  20.265 -0.2030  0.0316 -0.3490
82833W        W83697  13.652   3.741  25.990  0.3051 -0.1143 -0.2102
82834W        W83698  15.089   5.506  22.825 -0.1296 -0.0922  0.0499
82835W        W83699  11.403   4.153  27.166 -0.0978 -0.0374  0.2169
82836W        W83700  15.913   5.026  22.579  0.2826  0.1103 -0.0526
82837W        W83701  14.672   8.323  22.837  0.2655  0.0185 -0.0757
82838W        W83702  12.613   5.163  24.307 -0.1742  0.0039  0.0552
82839W        W83703  11.719   5.923  23.299 -0.3350  0.1422  0.2193
82840W        W83704  15.550   5.245  22.857 -0.0397 -0.0337 -0.0367
82841W        W83705  14.382   6.660  24.379  0.0387  0.0040 -0.1116
82842W        W83706  12.858   7.433  24.272 -0.0574  0.0560  0.0032
82843W        W83707  12.909   3.716  22.376  0.0439  0.1405 -0.0157
82844W        W83708  14.901   4.829  23.743  0.1558 -0.7272  0.1419
82845W        W83709  12.354   3.393  22.307  0.0665 -0.0081 -0.4133
82846W        W83710  14.748   5.336  23.472  0.0941 -0.0987 -0.1938
82847W        W83711   9.979   6.386  24.559  0.2789  0.1791  0.2170
82848W        W83712  10.475   8.202  22.670 -0.3438  0.2202  0.4209
82849W        W83713   9.936   4.579  27.355  0.0459  0.0831  0.0175
82850W        W83714  12.701   6.612  27.222  0.0866 -0.1402 -0.2295
82851W        W83715  12.607   3.864  23.672  0.0824  0.1420  0.3236
82852W        W83716  13.892   7.032  20.584  0.4207  0.2678  0.0737
82853W        W83717  12.813   4.737  22.210 -0.3287 -0.0347 -0.0133
82854W        W83718  12.504   6.232  28.315 -0.0953  0.2453  0.0013
82855W        W83719  10.375   3.806  22.403  0.1639 -0.1222  0.2548
82856W        W83720  11.349   5.032  23.334 -0.2319 -0.1253  0.0170
82857W        W83721  10.942   5.858  21.090 -0.2560 -0.1474 -0.2803
82858W        W83722  11.194   2.725  21.914  0.3092  0.2262 -0.3578
82859W        W83723  13.345   7.736  24.085 -0.1860  0.0191 -0.1910
82860W        W83724  14.768   3.872  23.523 -0.1704  0.1532  0.0034
82861W        W83725  14.706   6.958  25.397  0.0011 -0.2685  0.1399
82862W        W83726  13.204   7.741  26.692  0.1922 -0.0675  0.4398
82863W        W83727  13.675   4.802  23.642 -0.1166 -0.0594  0.0162
82864W        W83728  11.518   5.266  23.753 -0.2054  0.1645 -0.0830
82865W        W83729  12.995   3.151  24.716  0.1274 -0.1019  0.0702
82866W        W83730  13.384   6.553  26.466  0.1211 -0.1900 -0.2038
82867W        W83731  11.491   6.897  23.534 -0.1552 -0.3005  0.2149
82868W        W83732  11.163   8.778  25.563  0.1417  0.0053  0.0903
82869W        W83733  14.348   5.832  22.246  0.2775 -0.2215  0.1544
82870W        W83734  11.213   4.305  24.983 -0.0184 -0.0614  0.2399
82871W        W83735  13.824   4.918  24.512 -0.1325  0.0196 -0.1754
82872W        W83736  10.538   6.399  22.554 -0.1683 -0.2557  0.3437
82873W        W83737  12.642   6.951  27.589 -0.1419 -0.3962 -0.0517
82874W        W83738  14.765   4.850  23.247 -0.0744 -0.1052 -0.3773
82875W        W83739   8.748   6.418  23.908  0.0104 -0.0620  0.1504
82876W        W83740  12.198   1.625  19.796  0.0074  0.1022  0.1166
82877W        W83741  12.450   4.772  24.043  0.1370  0.1897 -0.1222
82878W        W83742  13.510   2.107  24.296  0.0881 -0.1348 -0.0267
82879W        W83743  15.159   4.577  19.719 -0.0224  0.1723 -0.2486
82880W        W83744  16.929   5.675  24.367  0.0114  0.2149 -0.0984
82881W        W83745  14.278   5.057  25.391  0.1424 -0.1350 -0.2131
82882W        W83746  15.256   8.472  24.833 -0.0294  0.1031 -0.0648
82883W        W83747  12.320   6.833  24.813 -0.0833 -0.2882 -0.0734
82884W        W83748  13.767   7.728  26.526  0.0255  0.1654 -0.2203
82885W        W83749  13.788   6.943  25.249  0.1488  0.2034 -0.0615
82886W        W83750  12.302   5.522  25.679 -0.0866 -0.1328 -0.0898
82887W        W83751  13.514   3.498  22.166 -0.1390 -0.0574 -0.0029
82888W        W83752  11.173   9.170  22.010 -0.2343  0.1186 -0.1224
82889W        W83753  14.173   5.773  25.645 -0.0621  0.4370  0.0261
82890W        W83754  12.833   3.155  24.249 -0.1969  0.0434  0.2872
82891W        W83755  10.423   8.442  23.466  0.1995  0.0615 -0.0835
82892W        W83756  10.009   5.767  22.751  0.0106  0.0752  0.1751
82893W        W83757  13.952   6.208  27.786  0.1252  0.1196  0.2642
82894W        W83758   9.075   5.358  22.653  0.3183 -0.0772 -0.2198
82895W        W83759  10.530   4.785  23.183 -0.0679  0.2266  0.1598
82896W        W83760  12.902   5.128  20.620 -0.0513 -0.2233  0.1146
82897W        W83761  10.578   4.513  20.837 -0.1398 -0.1928 -0.0125
82898W        W83762  14.455   5.399  25.653 -0.0730  0.3210 -0.1450
82899W        W83763  14.123   4.296  21.910 -0.1764 -0.0625 -0.1169
82900W        W83764  13.930   6.440  25.625  0.0506 -0.0865 -0.1504
82901W        W83765  12.929   4.237  24.593  0.1320  0.0002 -0.0265
82902W        W83766  12.098   9.323  25.821  0.0472 -0.0089  0.0801
82903W        W83767  11.746   2.500  19.564 -0.2740 -0.0780 -0.2860
82904W        W83768  14.148   7.499  27.022 -0.0522 -0.2224 -0.1515
82905W        W83769  14.138   4.013  24.782 -0.2329  0.0200  0.2294
82906W        W83770  10.343   3.944  27.965  0.1227  0.2327  0.1806
82907W        W83771  10.811   8.251  19.010 -0.1893 -0.3121  0.0212
82908W        W83772  10.437   7.543  25.540 -0.1590  0.1438 -0.1884
82909W        W83773  14.167   4.787  25.810 -0.2342  0.0471 -0.0468
82910W        W83774  13.332   4.561  24.359  0.1837  0.2849 -0.3989
82911W        W83775  12.890   2.942  23.586  0.1045 -0.0559 -0.0343
82912W        W83776  13.554   7.004  23.722  0.1407  0.3145  0.2085
82913W        W83777  13.752   7.153  26.159 -0.1581 -0.0789  0.0909
82914W        W83778  13.094   5.568  25.098 -0.3101 -0.1482 -0.2873
82915W        W83779  13.760   7.432  23.939  0.2456  0.2532  0.1431
82916W        W83780  10.752   2.944  21.500  0.0796 -0.1621  0.1766
82917W        W83781  13.765   3.201  22.528  0.1055  0.3861  0.1899
82918W        W83782  13.410   4.408  23.868  0.0850 -0.0919 -0.1065
82919W        W83783  15.313   4.220  23.129  0.1684  0.3031  0.0433
82920W        W83784  12.639   3.240  22.712 -0.0505  0.1202 -0.2344
82921W        W83785  13.792   4.395  24.615  0.0478 -0.0603  0.1566
82922W        W83786  16.871   5.706  23.133  0.2459  0.1078 -0.1826
82923W        W83787  10.993   3.244  26.081  0.0767  0.3624  0.2453
82924W        W83788  12.885   4.272  25.499 -0.1010  0.1082 -0.1368
82925W        W83789  12.743   4.417  23.689  0.1057 -0.0840 -0.2199
82926W        W83790  14.154   4.757  22.723 -0.1833  0.0125 -0.0329
82927W        W83791  11.748   4.998  26.787  0.0849  0.0854 -0.0073
82928W        W83792  14.979   5.068  24.803  0.3876  0.0782  0.2401
82929W        W83793  11.172   6.124  22.155  0.0292 -0.0450  0.2591
82930W        W83794  10.846   5.955  24.418 -0.1007 -0.0595  0.0327
82931W        W83795  13.661   6.047  25.865 -0.2411 -0.1475 -0.1593
82932W        W83796  12.555   6.396  24.989  0.3726  0.0924  0.0548
82933W        W83797  15.491   4.167  23.818 -0.0301 -0.0829  0.0241
82934W        W83798  13.971   5.547  22.065 -0.0879 -0.0555 -0.1603
82935W        W83799  12.738   3.674  24.186  0.4223 -0.1167 -0.0313
82936W        W83800  13.006   7.923  24.508 -0.1635 -0.2825 -0.0180
82937W        W83801  15.557   6.449  23.019 -0.2447  0.3140 -0.1668
82938W        W83802  14.457   5.699  26.045 -0.0307 -0.0763  0.1571
82939W        W83803  14.684   7.506  24.235 -0.0007 -0.3188 -0.1865
82940W        W83804  13.980   5.949  24.678  0.1518 -0.2444 -0.0581
82941W        W83805  11.431   6.727  24.257 -0.0582 -0.0701  0.2914
82942W        W83806  10.677   7.092  23.320  0.1806  0.0060 -0.2177
82943W        W83807  13.751   5.059  23.216  0.3151  0.0583 -0.4173
82944W        W83808  13.566   6.940  24.225 -0.0917  0.0381  0.0914
82945W        W83809  11.325   5.756  25.497  0.0708 -0.1619 -0.2561
82946W        W83810  14.280   6.474  23.929  0.1607  0.3619  0.0260
82947W        W83811  10.754   5.952  19.554  0.0291  0.0329  0.1335
82948W        W83812  12.166   7.435   1.242  0.2803 -0.0665  0.0225
82949W        W83813  12.567   7.472  27.443  0.2885 -0.4588  0.1880
82950W        W83814  14.059   6.151  27.321  0.3455  0.0127 -0.1759
82951W        W83815  15.710   8.654  29.004 -0.0463  0.0188  0.0904
82952W        W83816  10.071   5.518  25.530  0.1960 -0.3109  0.1314
82953W        W83817  14.460   6.038  23.765 -0.0329  0.2580 -0.0750
82954W        W83818  12.338   3.304  27.097  0.4009 -0.0433 -0.0785
82955W        W83819   9.140   8.405  25.237  0.0423 -0.0470 -0.1772
82956W        W83820  14.051   5.768   0.034 -0.0193 -0.0275  0.0107
82957W        W83821  11.216   4.581  27.973  0.2056  0.3149 -0.0063
82958W        W83822  12.418   3.671  28.008 -0.2235 -0.1926 -0.0154
82959W        W83823  13.264   5.060   0.206 -0.0875 -0.0381 -0.2264
82960W        W83824  15.179   5.051  24.246  0.0091 -0.1782  0.1553
82961W        W83825  15.250   4.201  27.121 -0.2725 -0.0618 -0.0159
82962W        W83826  11.017   4.106   0.230  0.3901 -0.0064  0.2148
82963W        W83827  11.668  10.292   0.078  0.1121  0.0071 -0.2056
82964W        W83828  13.488   8.435  26.354 -0.0767  0.1336 -0.1750
82965W        W83829  11.473   2.557  28.737 -0.2355 -0.0943 -0.2084
82966W        W83830  10.209   4.343   0.669 -0.0020 -0.0427  0.1626
82967W        W83831  13.571   5.521  25.213 -0.1635 -0.1997 -0.1512
82968W        W83832  11.418   7.547  27.752  0.0219  0.0987  0.0613
82969W        W83833  12.809   2.780  26.446 -0.0969  0.1090 -0.0835
82970W        W83834  12.540   4.235  28.015  0.0488 -0.0533 -0.1322
82971W        W83835  11.616   7.129  27.661  0.2047 -0.4111  0.0683
82972W        W83836   8.417   6.308  26.782  0.0994  0.1673  0.2612
82973W        W83837  12.159   5.338  26.706 -0.1123  0.1518  0.0797
82974W        W83838  13.756   4.905   1.059  0.2823 -0.1201  0.1795
82975W        W83839   8.610   3.801  28.058  0.0347 -0.0851  0.0371
82976W        W83840  13.518   8.136  26.792  0.0999 -0.1681  0.2917
82977W        W83841  13.011   4.204  26.816  0.0566 -0.1843  0.1515
82978W        W83842  12.283   5.256  27.180 -0.2193 -0.2725 -0.0756
82979W        W83843  14.044   6.204  28.910 -0.1698  0.1725 -0.3108
82980W        W83844  14.137   7.855  29.085  0.1704  0.6021 -0.1509
82981W        W83845  15.815   7.441  26.747 -0.2098  0.1909  0.0045
82982W        W83846   9.664   5.073   0.917 -0.2512 -0.0827 -0.0755
82983W        W83847  11.454   6.167  27.633 -0.1999 -0.1419  0.1027
82984W        W83848   8.631   4.143  26.318  0.0884  0.0405  0.1359
82985W        W83849  14.343   6.946  26.444 -0.1364 -0.4658 -0.2857
82986W        W83850  15.264   7.013  26.668 -0.1466  0.0166 -0.1299
82987W        W83851  11.377   4.881  27.512 -0.1099 -0.3090  0.1665
82988W        W83852  11.930   5.009  24.488  0.2784 -0.3261 -0.1376
82989W        W83853  15.426   4.258  28.175 -0.0568 -0.0151  0.0052
82990W        W83854  11.202   5.457   0.429 -0.1417  0.0844 -0.2391
82991W        W83855  15.987   9.902  26.640  0.0881 -0.1205  0.2719
82992W        W83856  10.863   9.107  24.697 -0.0734 -0.0869  0.1792
82993W        W83857  12.740   6.425  25.760 -0.1087  0.0495 -0.2974
82994W        W83858  10.518   2.296   0.619 -0.0360  0.2595  0.2117
82995W        W83859  15.532   5.758  28.074 -0.0733 -0.3633  0.2362
82996W        W83860  13.275   4.364  26.279  0.0341 -0.1605 -0.0160
82997W        W83861  10.444   5.261  26.527 -0.0690  0.0265  0.1725
82998W        W83862  13.810   5.784  28.140 -0.2248 -0.1375  0.1038
82999W        W83863  11.836   7.475  28.069  0.0313  0.2811  0.3265
83000W        W83864  13.230   7.127  28.354 -0.1003 -0.2037  0.2586
83001W        W83865  11.194   4.568  26.881  0.0885 -0.3259 -0.2376
83002W        W83866  13.919   2.621  28.324 -0.2317  0.0112 -0.2025
83003W        W83867  12.193   5.932  25.189  0.1204  0.2525 -0.0768
83004W        W83868   9.044   3.166  24.583 -0.0685  0.5004  0.2136
83005W        W83869  11.851   6.085  27.942 -0.1982 -0.0953  0.0498
83006W        W83870  13.345   6.587  28.642  0.0560 -0.1801 -0.2049
83007W        W83871  16.051   6.796  25.985 -0.2045 -0.0244  0.1167
83008W        W83872  13.711   5.782  27.606  0.2927  0.0870 -0.1962
83009W        W83873   9.679   5.949   0.134  0.0122  0.2073 -0.0176
83010W        W83874   9.781   5.891  28.296 -0.1023 -0.2027 -0.0392
83011W        W83875  12.667   4.616  25.147  0.2815  0.0724 -0.1036
83012W        W83876  12.614   3.101  27.486 -0.1493 -0.0841 -0.4097
83013W        W83877  14.458   4.270  25.615 -0.1270  0.0525 -0.2038
83014W        W83878  13.535   6.314  23.890  0.2569  0.5320 -0.1078
83015W        W83879  10.162   4.806  28.190 -0.0216 -0.1275 -0.1774
83016W        W83880  10.712   7.036  27.271  0.2553 -0.0039  0.0291
83017W        W83881  11.097   8.835   0.843  0.4062  0.3366 -0.2796
83018W        W83882  12.260   6.445  28.809  0.1557 -0.0915  0.1909
83019W        W83883  11.604   3.116  26.270  0.3583 -0.0522 -0.3107
83020W        W83884  15.375   7.251  23.425  0.0619  0.0493 -0.0844
83021W        W83885  13.218   7.486   0.300  0.0391  0.0647  0.1261
83022W        W83886  15.655  10.584  28.253 -0.0888 -0.2200 -0.0666
83023W        W83887  13.669   5.052  27.844 -0.0715  0.3016 -0.0857
83024W        W83888  12.387   6.343  25.445 -0.1975 -0.3892  0.0721
83025W        W83889   9.970   4.334  28.878 -0.2463 -0.0870 -0.1435
83026W        W83890  13.796   4.508  25.646  0.1285 -0.0105 -0.0201
83027W        W83891  10.243   4.368  26.904 -0.0287 -0.2717 -0.2701
83028W        W83892  11.005   5.769  27.677  0.0602  0.0520 -0.0536
83029W        W83893  12.805   4.614  28.291 -0.1727  0.0400  0.0820
83030W        W83894   8.141   3.804  25.506  0.0490  0.1200  0.0324
83031W        W83895  14.261   4.654  28.503 -0.2089  0.0001 -0.1916
83032W        W83896  15.276   3.125  28.850  0.0029  0.0367 -0.0186
83033W        W83897  13.539   7.128  27.318  0.1978  0.0304  0.0149
83034W        W83898  14.851   6.530   0.846 -0.1105  0.1811 -0.0152
83035W        W83899  12.507   5.083  28.265 -0.1299  0.1197 -0.0821
83036W        W83900  14.035   7.638  27.932 -0.0903 -0.1601  0.0956
83037W        W83901  13.219   4.708  27.886 -0.0552 -0.1575 -0.1392
83038W        W83902  15.574   3.277  24.351 -0.0787  0.1005 -0.0635
83039W        W83903  11.835   5.725  28.290  0.0554  0.1549 -0.2231
83040W        W83904  11.137   6.460  28.395 -0.0996  0.0235  0.1759
83041W        W83905  13.739   3.028  26.400 -0.1068 -0.1611  0.0165
83042W        W83906  12.890   3.535   2.905 -0.2078 -0.1561 -0.0148
83043W        W83907  14.229   3.191  23.636  0.5021  0.2381  0.2874
83044W        W83908  13.353   7.210  26.820 -0.1336 -0.0213  0.1151
83045W        W83909   9.787   5.482   0.054 -0.3195  0.0096  0.3064
83046W        W83910  11.009   3.604  25.715  0.0645 -0.1501  0.1853
83047W        W83911  17.006   6.572  26.362 -0.4067  0.0293  0.4758
83048W        W83912  16.109   5.029  27.193  0.1004  0.0244 -0.0400
83049W        W83913  10.121   7.621  26.149  0.0576  0.1346  0.0118
83050W        W83914  12.528   7.198  26.834  0.1805 -0.0290 -0.1104
83051W        W83915  14.216   8.714   0.170 -0.1449 -0.2208 -0.1263
83052W        W83916  14.187   5.635   1.031 -0.0264  0.1035  0.1371
83053W        W83917  14.032   4.724  27.075  0.0382  0.0905 -0.4276
83054W        W83918  14.178   6.329  26.847  0.2019  0.0905 -0.1950
83055W        W83919  11.978   4.827  27.438 -0.1613  0.1941  0.0582
83056W        W83920  13.784   3.676  25.154  0.1183 -0.0216  0.2533
83057W        W83921  10.550   5.332  27.155 -0.0309 -0.1865  0.0022
83058W        W83922  12.190   7.575  28.471 -0.4081  0.2860 -0.3288
83059W        W83923  10.426   8.504  27.652 -0.0477 -0.0581  0.1919
83060W        W83924  15.365   5.846  26.212 -0.1293  0.2110  0.0119
83061W        W83925  14.013   8.565  26.134 -0.1255 -0.0702  0.1744
83062W        W83926  13.581   5.009  26.844 -0.1675  0.1464 -0.1141
83063W        W83927  10.278   5.599  27.592 -0.1052  0.0457 -0.0584
83064W        W83928  14.974   4.176  28.122  0.2993  0.2896 -0.0180
83065W        W83929  12.630   7.836  28.339  0.3271 -0.2072  0.2913
83066W        W83930  10.490   5.705  26.339  0.0150 -0.2544 -0.1781
83067W        W83931  12.610   3.271  25.135  0.1255  0.2899  0.1978
83068W        W83932  12.444   4.551  25.609 -0.0923  0.1457 -0.1368
83069W        W83933  16.349   7.350  24.760 -0.3450 -0.2714 -0.1257
83070W        W83934  11.877   5.290  27.622 -0.2497 -0.0373 -0.0074
83071W        W83935  13.536   6.055  27.239  0.0333 -0.1106 -0.3261
83072W        W83936  13.630   6.316  26.816  0.0106 -0.1428 -0.2061
83073W        W83937  14.634   6.388  28.948 -0.0427  0.1460 -0.0301
83074W        W83938   9.761   5.593  27.572  0.2243 -0.3178 -0.0907
83075W        W83939  14.902   3.426  26.794  0.1148  0.0716  0.4350
83076W        W83940  15.228   7.957   0.022 -0.2261 -0.0631 -0.1241
83077W        W83941  12.443   6.857  25.870 -0.0121 -0.0930  0.0618
83078W        W83942  15.037   7.982  28.652  0.1831  0.1601  0.0653
83079W        W83943  14.842   4.054  26.825 -0.2482  0.2972 -0.1839
83080W        W83944  14.426   7.103  27.238 -0.0461  0.4061  0.0933
83081W        W83945  11.720   4.575  26.422  0.1090  0.0488  0.1977
83082W        W83946  13.728   5.547  25.707  0.2526  0.1086  0.1939
83083W        W83947   8.667   4.840  27.707 -0.1975  0.2478 -0.2908
83084W        W83948  12.885   4.870  25.534 -0.3611  0.2923  0.0542
83085W        W83949  12.776   2.686   0.145 -0.3150  0.0079  0.0689
83086W        W83950  12.352   6.023  27.866 -0.0199  0.3852  0.0292
83087W        W83951  11.794   7.553  26.709  0.0661  0.0088  0.1845
83088W        W83952  11.573   3.743  25.585  0.1598 -0.0288 -0.0891
83089W        W83953  12.184   4.869  26.921 -0.1088  0.0416 -0.3458
83090W        W83954  12.006   5.444  24.928  0.0509  0.0982 -0.2898
83091W        W83955  11.280   7.784  26.926 -0.0493  0.0186  0.1194
83092W        W83956  15.049   6.751  29.107  0.0157  0.2357  0.1155
83093W        W83957  11.198   2.768  25.969  0.0992 -0.1839  0.2930
83094W        W83958  14.159   3.045  25.786 -0.2976  0.0354 -0.2303
83095W        W83959  16.383   7.969  25.701  0.3669  0.0164 -0.0180
83096W        W83960  12.155   6.595   0.165  0.1739  0.0117  0.1318
83097W        W83961  13.135   6.384  27.160  0.0372  0.0676 -0.0265
83098W        W83962  12.224   7.744  27.982 -0.1338  0.1172 -0.2953
83099W        W83963  10.902   5.057  28.022 -0.1402  0.2497 -0.2389
83100W        W83964  12.524   6.089  26.791  0.0884  0.3134  0.0800
83101W        W83965  11.620   4.820  25.862 -0.0785  0.1585 -0.0675
83102W        W83966  10.915   4.167  27.031 -0.1902 -0.2128  0.1126
83103W        W83967  13.125   5.425  26.950 -0.0554 -0.1874 -0.0770
83104W        W83968  11.769   6.876  27.163  0.4590 -0.0601 -0.3502
83105W        W83969  12.061   4.926  26.411 -0.0807 -0.3540 -0.0876
83106W        W83970  12.239   3.151  26.601  0.0171 -0.1893 -0.0558
83107W        W83971  11.120   2.692  28.367  0.0245 -0.2188  0.0294
83108W        W83972  15.772   3.313  27.914 -0.0310 -0.3385 -0.3063
83109W        W83973  12.208   4.126   0.657  0.0548 -0.1034 -0.0186
83110W        W83974  10.629   5.587  28.559  0.0654  0.0088  0.0564
83111W        W83975  11.614   3.116   1.590  0.1786 -0.1999  0.1168
83112W        W83976  12.274   4.325  27.575 -0.2021  0.2136 -0.1956
83113W        W83977  11.641   4.221  28.790  0.0108 -0.0004 -0.2422
83114W        W83978  11.713   2.701  28.115  0.1087  0.0420 -0.1648
83115W        W83979  10.768   8.776  27.230 -0.2682 -0.1507  0.1905
83116W        W83980  10.573   6.477  28.056  0.0944 -0.1726  0.3319
83117W        W83981  11.727   6.539  25.593  0.3095  0.3245  0.1481
83118W        W83982  16.219   4.654   0.209  0.1384 -0.0149  0.0690
83119W        W83983  16.263   3.145  25.020  0.0516 -0.0120  0.0782
83120W        W83984  12.261   6.833  27.220  0.0066 -0.0119  0.0688
83121W        W83985  13.585   5.120  26.031  0.0081 -0.0990 -0.2739
83122W        W83986  10.166   1.348  27.365  0.1308 -0.1125 -0.0353
83123W        W83987  15.149   6.044  25.773 -0.2449 -0.0195 -0.2012
83124W        W83988  12.376   7.274  28.057 -0.2066  0.2581  0.0508
83125W        W83989  10.367   7.260  28.186  0.0148 -0.0694 -0.1082
83126W        W83990   9.923   7.638  28.962  0.1971  0.0747  0.0307
83127W        W83991  11.262   5.734   0.068  0.2154  0.0361  0.0436
83128W        W83992  11.629   6.582  26.769 -0.0599  0.1088 -0.0114
83129W        W83993  12.520   7.948  26.641 -0.1116  0.1514 -0.0740
83130W        W83994  12.474   5.064  25.768  0.1140  0.1109 -0.0737
83131W        W83995  11.570   4.166  27.898  0.0986  0.0565 -0.2315
83132W        W83996  15.464   6.254  26.835  0.3409  0.1795 -0.1876
83133W        W83997  12.998   6.358  28.346  0.0243 -0.1648  0.0598
83134W        W83998  13.685   3.689  27.272  0.1244  0.0748  0.0116
83135W        W83999  11.792   5.679  25.951  0.1222  0.1646  0.0512
83136W        W84000  16.238   7.185  29.138  0.3090 -0.0563  0.0678
83137W        W84001  13.175   5.247  26.445  0.0526  0.1250 -0.1036
83138W        W84002  10.872   6.391  24.726  0.3475  0.0465  0.0107
83139W        W84003  13.015   5.903  26.982  0.1127 -0.0088  0.1538
83140W        W84004   8.671   5.946   0.079  0.1422 -0.2253  0.1891
83141W        W84005  10.421   6.136   0.542 -0.0250 -0.0644  0.0288
83142W        W84006  11.630   1.725   0.924  0.0692 -0.0762  0.0403
83143W        W84007  12.436   1.252  25.801 -0.2590  0.1066 -0.0058
83144W        W84008  12.911   4.107  26.050  0.0679  0.0180  0.0716
83145W        W84009  11.551   3.094  27.265  0.1737 -0.0799 -0.0885
83146W        W84010  12.409   5.738  26.460  0.1224 -0.2723 -0.0922
83147W        W84011  14.048   5.490  27.825 -0.1105  0.0813 -0.3556
83148W        W84012  11.232   4.917  26.498 -0.1577 -0.2576 -0.4093
83149W        W84013  13.928   4.974  26.383 -0.0046 -0.1167  0.0492
83150W        W84014  14.459   6.387  27.505 -0.3146  0.2439  0.0221
83151W        W84015  11.064   4.139  28.158 -0.1648  0.0408  0.1638
83152W        W84016  12.142   5.519  27.940  0.2523  0.3196 -0.1638
83153W        W84017  10.076   6.347  28.355  0.2560  0.2892 -0.1858
83154W        W84018  12.985   3.600  29.000  0.0572  0.1455  0.0178
83155W        W84019  12.319   4.536  28.398  0.0221  0.0607 -0.1002
83156W        W84020  14.931   7.639  26.675  0.0103  0.0977  0.2167
83157W        W84021  12.019   4.257  25.543 -0.1570  0.0754 -0.1535
83158W        W84022  12.386   5.186   0.601 -0.1622  0.0786  0.3813
83159W        W84023   8.231   6.238   0.020  0.0757 -0.2581  0.0216
83160W        W84024  10.118   7.765  24.581 -0.0059  0.0547  0.1089
83161W        W84025  14.567   5.348  26.871 -0.0666  0.1526 -0.1432
83162W        W84026  11.535   3.340   0.040  0.0210  0.2015  0.2613
83163W        W84027  13.285   5.061  25.382 -0.0799  0.5874 -0.0917
83164W        W84028  10.762   4.669  27.722  0.1179 -0.0305  0.3338
83165W        W84029  16.816   8.087  25.913 -0.0743 -0.1648 -0.1857
83166W        W84030  14.295   4.987   0.354  0.0900 -0.2624  0.3687
83167W        W84031  12.849   5.849  29.140  0.0580 -0.2099 -0.0267
83168W        W84032  11.678   4.754  27.875  0.0241  0.0881 -0.3650
83169W        W84033  14.233   3.558  28.159 -0.0482  0.0463 -0.2148
83170W        W84034  11.262   4.902  28.331  0.2289 -0.2108 -0.1243
83171W        W84035  10.074   5.187  26.234  0.3479  0.0126 -0.1640
83172W        W84036  14.740   7.330  26.308  0.1686  0.0543 -0.1548
83173W        W84037   9.625   4.215  28.523  0.0568 -0.0122  0.2749
83174W        W84038  12.922   5.087  28.537 -0.0324  0.1381 -0.0904
83175W        W84039  13.809   4.078   0.441 -0.2057 -0.2608  0.1275
83176W        W84040  14.292   9.244  28.577 -0.1236  0.1834  0.0053
83177W        W84041  12.160   5.784  26.910  0.1202 -0.2461 -0.2667
83178W        W84042   9.977   5.037  29.015  0.0126 -0.0896  0.2708
83179W        W84043  13.706   5.468   0.827  0.0045 -0.1826  0.1655
83180W        W84044  11.283   5.958  28.313  0.4039  0.1460  0.3362
83181W        W84045  11.835   6.499  27.627  0.1235  0.0887  0.0412
83182W        W84046   9.808   4.699  28.518  0.0747 -0.1122  0.2116
83183W        W84047  12.709   5.542  27.784 -0.5725  0.1914 -0.0964
83184W        W84048  16.790   4.943  25.568 -0.0362  0.0604 -0.1117
83185W        W84049  12.661   4.535  26.932 -0.0106 -0.0614  0.0557
83186W        W84050  16.198   7.535   0.593 -0.1557 -0.1487 -0.2669
83187W        W84051  10.671   6.047  26.866  0.0788  0.4772 -0.2063
83188W        W84052  15.715   9.116  25.400 -0.2502 -0.0864 -0.2309
83189W        W84053  10.257   6.806   0.481  0.0409 -0.0877  0.2506
83190W        W84054  13.039   3.816  26.422 -0.1773  0.0133 -0.3748
83191W        W84055  11.360   3.930  28.481  0.0177 -0.0797 -0.2069
83192W        W84056  11.817   2.565  27.067 -0.0545 -0.0181  0.1856
83193W        W84057  12.363   6.267  27.243  0.2173 -0.2881  0.0380
83194W        W84058  14.484   7.360  28.016  0.2509  0.0674 -0.3081
83195W        W84059  11.919   7.152   0.881 -0.1511 -0.0328  0.0736
83196W        W84060  11.958   6.873  28.950  0.0551 -0.1102 -0.0728
83197W        W84061  10.957   5.194  28.525  0.0492 -0.1389  0.1700
83198W        W84062  10.735   5.436  29.066  0.1311 -0.0291 -0.2964
83199W        W84063  12.830   4.135  28.456 -0.1631  0.1217  0.2375
83200W        W84064  15.082   7.249   0.727 -0.0101 -0.1919 -0.0472
83201W        W84065  13.467   3.792  27.913 -0.0873 -0.1589  0.0146
83202W        W84066  12.160   3.723  26.700  0.0769 -0.0096 -0.0305
83203W        W84067  14.554   6.887  25.970 -0.1500  0.2866  0.1368
83204W        W84068  12.445   5.134  27.700  0.0983  0.0677  0.0669
83205W        W84069  11.800   4.291  27.442 -0.0822  0.2667  0.1132
83206W        W84070  12.972   6.981  25.745 -0.1405 -0.1812 -0.2055
83207W        W84071  14.370   6.428  27.996 -0.2557 -0.2505  0.0560
83208W        W84072   9.161   5.861  28.327 -0.0891 -0.0113 -0.3067
83209W        W84073  11.994   7.702  27.535  0.1979  0.0527  0.0428
83210W        W84074  16.451  10.086  26.693  0.0812 -0.0888 -0.0939
83211W        W84075  12.860   5.072  27.937  0.1039  0.0182 -0.0103
83212W        W84076  11.709   8.914  27.796  0.0981  0.1560  0.1065
83213W        W84077  13.387   7.077   0.548 -0.5198  0.2282  0.0428
83214W        W84078  11.345   7.501  26.397 -0.1140  0.3157  0.0048
83215W        W84079  13.278   6.145  27.670 -0.1143  0.0545  0.0019
83216W        W84080  13.478   2.443  28.182 -0.1036  0.0342  0.3008
83217W        W84081  14.912   5.461  26.023  0.2776  0.2115  0.3275
83218W        W84082  10.212   4.045  27.345  0.0808 -0.4516  0.2967
83219W        W84083  12.543   7.444   1.571  0.0330 -0.2253 -0.3144
83220W        W84084  14.657   3.971  27.272 -0.2391  0.0890  0.1642
83221W        W84085  13.288   2.947  28.248  0.0586 -0.1742  0.2552
83222W        W84086  12.977   8.077  28.753 -0.0213 -0.3613  0.2622
83223W        W84087  14.214   5.177   1.253  0.1614 -0.1017 -0.3216
83224W        W84088  15.059   3.205   2.385 -0.0451 -0.1351  0.1690
83225W        W84089  15.665   2.943  25.587  0.2776 -0.0933  0.0216
83226W        W84090  11.616   3.432  24.959 -0.1204  0.1694  0.2450
83227W        W84091   9.184   6.599  25.741  0.0100  0.0450  0.0499
83228W        W84092  13.556   3.611  26.463  0.0920  0.0703  0.0909
83229W        W84093  12.243   0.833  27.575  0.0544 -0.3325 -0.1291
83230W        W84094  12.605   5.526  26.893  0.0271 -0.1331 -0.0880
83231W        W84095  12.374   5.932  28.737 -0.1667 -0.0424  0.0221
83232W        W84096  17.072   4.848  24.463 -0.3790  0.1379 -0.3698
83233W        W84097  13.241   4.306  27.229  0.1783 -0.1002 -0.0953
83234W        W84098  15.519   6.306  23.906 -0.0721 -0.1552  0.0418
83235W        W84099  11.166   5.330  27.490  0.0827 -0.2145 -0.3369
83236W        W84100  13.828   4.544  24.108 -0.0722  0.0040  0.0266
83237W        W84101  13.173   6.762  27.497  0.0724 -0.1922 -0.0305
83238W        W84102  12.848   4.162  25.056 -0.1439  0.1313  0.2212
83239W        W84103  12.999   5.700  26.542 -0.1340  0.0110 -0.2098
83240W        W84104  13.535   4.358  27.703  0.0594  0.2269  0.0374
83241W        W84105  11.450   6.742  29.067 -0.0043 -0.2300 -0.4751
83242W        W84106  11.010   6.371  24.168  0.0794 -0.0810 -0.1990
83243W        W84107  12.809   5.273  27.381 -0.2564 -0.0076  0.0237
83244W        W84108  13.308   4.260  28.134  0.0673  0.0139 -0.2205
83245W        W84109  11.442   8.384   0.151  0.1167 -0.1941 -0.1999
83246W        W84110  14.260   4.465  24.381  0.0812  0.0884 -0.0294
83247W        W84111  10.375   8.317  26.938  0.2038 -0.0344  0.4058
83248W        W84112  11.879   5.726  26.507 -0.0537  0.1813  0.1479
83249W        W84113   9.485   4.052  28.042  0.0952 -0.0799  0.1109
83250W        W84114  11.805   6.245   1.012  0.0670 -0.1510 -0.0122
83251W        W84115  14.698   5.362  27.435  0.0356  0.2432  0.1176
83252W        W84116  14.225   8.888  26.511 -0.0688 -0.3190 -0.1323
83253W        W84117  14.572   9.508  27.758  0.0799  0.2344  0.3684
83254W        W84118  13.605   7.140  28.777  0.1923 -0.0646  0.0216
83255W        W84119  11.188   4.635  24.585 -0.3060 -0.0126  0.1863
83256W        W84120  14.806   5.618  26.480  0.0201 -0.1890 -0.0829
83257W        W84121  10.936   5.993  26.391  0.2980  0.1409 -0.1234
83258W        W84122  14.605   3.156  25.145  0.0402  0.1965 -0.2426
83259W        W84123  11.270   5.251  28.954  0.1488  0.0824 -0.0441
83260W        W84124  13.595   4.427  26.785  0.3405  0.1128  0.0394
83261W        W84125  12.799   6.520  27.845 -0.1203 -0.1519  0.0966
83262W        W84126  11.954   6.614   1.282 -0.0630  0.1054  0.0057
83263W        W84127  12.092   5.345  28.546 -0.0655  0.1703  0.3165
83264W        W84128  13.525   3.433  25.607  0.0516 -0.0221  0.1193
83265W        W84129  13.924   4.657  27.616 -0.1029  0.1505 -0.1047
83266W        W84130  12.305   4.632   0.702  0.0898 -0.1024 -0.2533
83267W        W84131  11.798   5.477  27.072  0.2666 -0.0752 -0.1944
83268W        W84132  14.621   7.354  28.760  0.3514  0.0635 -0.1845
83269W        W84133  13.802   6.757  24.705  0.3129 -0.2661 -0.3518
83270W        W84134  11.201   7.150  27.343 -0.3175  0.5775 -0.0863
83271W        W84135  12.719   7.613  28.798  0.3399  0.0094 -0.1510
83272W        W84136   9.795   7.998  27.724  0.0663 -0.1884  0.1520
83273W        W84137  10.867   7.379  28.535  0.3230  0.1775 -0.2050
83274W        W84138  13.030   2.562  28.450 -0.0949 -0.0794 -0.2232
83275W        W84139  10.201   7.516  23.188 -0.0949 -0.1177 -0.0823
83276W        W84140  15.687   5.631  23.567  0.2474  0.0376 -0.0011
83277W        W84141  10.805   2.530  26.361 -0.0684  0.1478  0.0694
83278W        W84142  12.846   3.888  27.139 -0.0033  0.1784  0.1689
83279W        W84143  15.482   3.324  28.346  0.1717  0.0470 -0.1350
83280W        W84144  13.374   5.538  28.455  0.1753 -0.0662  0.1959
83281W        W84145  14.567   9.066  28.947  0.0555  0.2778 -0.2879
83282W        W84146  14.772   4.611  28.260  0.1053  0.1627 -0.2360
83283W        W84147  14.887   3.307  29.140 -0.1387 -0.0718  0.0702
83284W        W84148  12.402   7.965  27.140  0.0350  0.2847 -0.1372
83285W        W84149  14.442   5.891  27.935  0.2501 -0.4215 -0.0239
83286W        W84150  15.272   6.595  27.604  0.2046 -0.0360 -0.1554
83287W        W84151  14.101   3.142  25.292 -0.2650  0.0683  0.0514
83288W        W84152  11.694   3.593  26.541 -0.1619 -0.3480 -0.2489
83289W        W84153   8.591   4.429  29.117  0.0072  0.0409  0.0003
83290W        W84154  10.846   4.056  26.510 -0.1173 -0.0743 -0.4827
83291W        W84155   9.226   7.350  27.331 -0.0559  0.0307 -0.1909
83292W        W84156  12.964   6.320  26.673  0.0962 -0.0449  0.0195
83293W        W84157  12.812   5.031  29.102 -0.2432 -0.0401  0.0229
83294W        W84158  11.332   5.633  26.679  0.1372 -0.2973  0.3544
83295W        W84159  10.609   1.443  28.799  0.3728 -0.0307 -0.0253
83296W        W84160  14.254   8.447  26.936  0.1481  0.2129 -0.2565
83297W        W84161   9.440   4.021  24.893  0.1477  0.1618 -0.0394
83298W        W84162  14.415   3.864  27.777  0.0328 -0.1800  0.2433
83299W        W84163  14.379   6.127  24.243  0.0248 -0.2783  0.0770
83300W        W84164  13.969   7.199  27.532 -0.0864  0.0996 -0.2072
83301W        W84165  11.167   6.790  26.975 -0.0543 -0.0185 -0.0091
83302W        W84166  12.869   4.599  24.259 -0.1328  0.1417 -0.0655
83303W        W84167  12.533   1.279  27.040  0.3026 -0.0855  0.2603
83304W        W84168   8.801   6.687  26.095 -0.0033  0.0911 -0.1478
83305W        W84169  12.434   5.673  28.272 -0.3428 -0.1024 -0.0298
83306W        W84170  13.045   2.270   0.336  0.0570 -0.1487  0.0537
83307W        W84171  10.400   2.290  27.338  0.1364 -0.1507  0.1852
83308W        W84172  12.669   3.626  26.706  0.0866 -0.0715 -0.0802
83309W        W84173  11.287   6.430   0.708 -0.0768  0.2892 -0.1278
83310W        W84174  10.605   4.486  27.273 -0.1909 -0.1205  0.2785
83311W        W84175  11.983   0.434  28.487 -0.2591  0.4741 -0.0115
83312W        W84176  14.776   7.536  27.173 -0.0338  0.0656 -0.2229
83313W        W84177  11.468   6.784   0.992 -0.0312  0.0226 -0.3505
83314W        W84178  14.507   4.822  26.587  0.1186 -0.2220  0.0980
83315W        W84179  13.172   3.052  26.738 -0.1383 -0.2456  0.1132
83316W        W84180  13.251   5.195  27.634 -0.1637 -0.0644 -0.1730
83317W        W84181  14.961   4.517  27.374  0.1436 -0.2858  0.2446
83318W        W84182  14.347   3.772  25.831 -0.1603  0.2218  0.0168
83319W        W84183  10.899   5.378  26.361 -0.0313  0.1946 -0.2058
83320W        W84184  11.911   4.029  26.372  0.2457  0.2138  0.0662
83321W        W84185  11.885   4.743  28.542  0.0603 -0.1088 -0.0932
83322W        W84186  13.875   6.989  26.980  0.0148  0.0680 -0.0723
83323W        W84187  11.782   2.915  28.550  0.0636 -0.1710  0.2226
83324W        W84188  11.620   4.191  25.913  0.1743  0.0558 -0.1594
83325W        W84189  14.972   4.701  26.006  0.0038 -0.1846 -0.0422
83326W        W84190  11.751   7.142  26.391 -0.0822 -0.0381 -0.0801
83327W        W84191  12.019   3.865  27.734 -0.1416 -0.1386 -0.0449
83328W        W84192  11.083   5.664  28.658 -0.1293 -0.0558 -0.0692
83329W        W84193  12.051   5.597  28.986 -0.1664  0.0916  0.0792
83330W        W84194  13.804   7.276   1.118  0.0025  0.0408  0.2589
83331W        W84195  14.982   4.531   1.037 -0.1031  0.1241 -0.0169
83332W        W84196  13.144   8.088  28.283 -0.2382 -0.0379 -0.2136
83333W        W84197  14.140   4.082   0.810 -0.1694  0.1501  0.1107
83334W        W84198  10.280   6.061   0.091 -0.0017 -0.0640  0.1299
83335W        W84199  13.567   6.349   1.254 -0.0787  0.1984  0.0087
83336W        W84200  10.827   6.023  28.933 -0.0150 -0.2695  0.1504
83337W        W84201  15.547   5.636  25.294  0.2235  0.0504 -0.2340
83338W        W84202  11.641   5.348   0.235 -0.2684 -0.0067 -0.0027
83339W        W84203  11.142   4.453  27.480 -0.0725 -0.1116 -0.1756
83340W        W84204  11.645   5.983  27.023 -0.1676  0.0062 -0.1750
83341W        W84205  11.404   6.692  27.443  0.3683  0.0578 -0.2123
83342W        W84206  11.187   2.383  27.923 -0.0663 -0.3309 -0.0054
83343W        W84207  13.434   5.932   0.670  0.0839  0.1833  0.0884
83344W        W84208  11.556   7.928  27.463 -0.0267  0.1374 -0.1716
83345W        W84209  11.153   5.928   1.987  0.0510 -0.0215 -0.0524
83346W        W84210   8.710   5.334  26.169  0.3002  0.2081  0.0785
83347W        W84211  11.652   3.704  27.034 -0.0317 -0.2017  0.2553
83348W        W84212  13.598  10.393   3.206  0.3666  0.2035  0.4360
83349W        W84213  12.887   8.818   3.924  0.2391 -0.0479 -0.1595
83350W        W84214  13.856   7.797   1.013  0.2355 -0.3430  0.0181
83351W        W84215  13.694  12.487   2.486  0.5255 -0.1092  0.0434
83352W        W84216  11.800  10.895   0.680 -0.4652  0.1028 -0.3094
83353W        W84217   9.694   6.732   2.851  0.1769  0.1067 -0.1344
83354W        W84218  10.769   6.956   2.609 -0.0596  0.1249 -0.2359
83355W        W84219  11.075   9.410   2.974  0.0556 -0.0092 -0.0294
83356W        W84220  12.005  11.758   3.045 -0.0880 -0.0096 -0.0719
83357W        W84221  11.764   8.563   1.552 -0.1311  0.0619 -0.0794
83358W        W84222  10.751   8.462   2.513 -0.1156 -0.2730 -0.0355
83359W        W84223  12.786   6.314  28.865 -0.3737 -0.3436 -0.2682
83360W        W84224  13.292   7.216   1.204  0.0340  0.3997 -0.3893
83361W        W84225  14.189   7.164   3.391  0.1215  0.4303  0.0820
83362W        W84226  10.035   6.493   1.369 -0.1331 -0.0937  0.0951
83363W        W84227  12.158   9.599   4.286  0.1436  0.1049  0.1255
83364W        W84228  11.730   9.749   2.247 -0.2760  0.0585  0.1455
83365W        W84229  12.505   8.199   2.693  0.1133  0.1500 -0.3343
83366W        W84230  13.120   7.694   3.874  0.2263  0.0404  0.3877
83367W        W84231  15.189   6.978   1.623  0.0624 -0.1524 -0.0135
83368W        W84232  14.946   7.350   1.283 -0.2628 -0.0359 -0.0215
83369W        W84233  12.423   9.110   4.076  0.2752  0.1719  0.1718
83370W        W84234  14.736  10.930   1.520 -0.1633  0.1566  0.0826
83371W        W84235  11.897  11.307   3.917 -0.1417 -0.1004  0.1427
83372W        W84236   9.602   9.273   4.265  0.1171  0.3312 -0.2398
83373W        W84237  14.624   9.389   6.732  0.3224 -0.1615  0.1157
83374W        W84238  15.287   9.840   6.239  0.2439  0.1782  0.0433
83375W        W84239  12.087  10.756   1.522 -0.4262  0.1046 -0.0493
83376W        W84240  14.500  11.598   3.216  0.0609  0.1946  0.0619
83377W        W84241  12.805   7.864   3.440 -0.3696 -0.2008  0.0704
83378W        W84242  11.739  10.166   2.787 -0.2442 -0.0962  0.1279
83379W        W84243  12.151   8.944   3.495 -0.0064  0.2977 -0.2850
83380W        W84244  15.686   8.984   4.470 -0.0704 -0.0629 -0.0414
83381W        W84245  12.033   8.412   2.703  0.0137  0.0570 -0.0063
83382W        W84246  11.974   7.861   4.373  0.2979  0.1252 -0.3395
83383W        W84247  14.988   9.236   1.345  0.1105 -0.3420 -0.0011
83384W        W84248  13.185   7.987   1.754 -0.0807  0.2051  0.0994
83385W        W84249  11.576   8.601   2.637  0.2442  0.0360 -0.2416
83386W        W84250  15.351   8.997   3.585  0.2864 -0.2205  0.0086
83387W        W84251  15.121   5.087   0.841  0.1803 -0.0007  0.1782
83388W        W84252  13.071  10.760  28.818 -0.0580 -0.3490 -0.2946
83389W        W84253  16.255   8.083   0.195 -0.0391 -0.2775 -0.3218
83390W        W84254  12.794  10.101   2.539 -0.3654 -0.0580  0.0195
83391W        W84255  16.601   8.415   0.476 -0.1613  0.1365  0.1033
83392W        W84256   8.940   8.214  27.938  0.0439 -0.3714 -0.3895
83393W        W84257  12.914   7.120  27.143  0.1368 -0.0487 -0.3511
83394W        W84258  11.031   5.882   2.819  0.2792  0.0433  0.0877
83395W        W84259  13.791   6.442   1.697 -0.3812  0.2683 -0.1642
83396W        W84260  13.329   9.715   1.386  0.1423  0.1425 -0.0069
83397W        W84261  11.194   8.888   1.841  0.3057  0.0503 -0.0541
83398W        W84262  13.841  10.670   2.807  0.3766 -0.1794 -0.1793
83399W        W84263  14.685   7.817   1.715 -0.0259 -0.1340  0.2364
83400W        W84264  12.734  11.076   0.889  0.0078  0.0731  0.0839
83401W        W84265  13.343   9.816   1.931  0.0732  0.0846  0.1875
83402W        W84266   9.740   6.786  28.367 -0.1621 -0.1302  0.0833
83403W        W84267  10.287   9.479   0.682  0.3309  0.1659  0.2687
83404W        W84268   9.969   7.994   2.427 -0.0529  0.0001 -0.0546
83405W        W84269  12.982   6.997   3.023 -0.0964 -0.1671 -0.0746
83406W        W84270  12.364  11.159   3.655 -0.1396 -0.0435  0.3037
83407W        W84271  11.139  10.741   2.383  0.1793 -0.0568  0.1389
83408W        W84272  10.879   9.171  29.085 -0.0666  0.0540 -0.0990
83409W        W84273  11.860   8.604   3.172 -0.1223  0.1169  0.0588
83410W        W84274  13.504  12.221   3.893  0.2859  0.1882 -0.0571
83411W        W84275  10.482   9.728   2.394 -0.1369  0.1092 -0.3458
83412W        W84276  13.464   8.919   1.913  0.2455  0.0130 -0.0378
83413W        W84277  13.070   5.242   0.687  0.1854  0.1093 -0.3876
83414W        W84278  10.151   9.258   1.797 -0.1369 -0.1126  0.1683
83415W        W84279  11.013   8.295   0.919  0.0400  0.1066  0.2459
83416W        W84280   9.422  11.792   1.640  0.1899 -0.3308 -0.2557
83417W        W84281  10.830   9.554   0.587 -0.0562 -0.0178 -0.4743
83418W        W84282  12.634  10.440   4.185  0.1866  0.1846  0.0438
83419W        W84283   7.471   9.374   1.417  0.0511  0.3780 -0.3241
83420W        W84284  14.338  12.014   2.543 -0.1345  0.0727  0.2120
83421W        W84285  15.596  10.037   2.956 -0.3519 -0.4587 -0.0412
83422W        W84286  14.704   8.353   1.405  0.2275 -0.1619  0.0615
83423W        W84287  13.690  10.004   1.197  0.2659  0.0908  0.1478
83424W        W84288   8.491   9.303   1.628 -0.0551  0.3243  0.2841
83425W        W84289  15.443   7.277   1.995 -0.2438 -0.1868  0.1118
83426W        W84290  12.989   6.462   1.276 -0.2455  0.1612  0.0383
83427W        W84291  14.930   6.873   2.882  0.1735  0.3090  0.2484
83428W        W84292  10.206  10.138   2.232  0.1406 -0.3642 -0.3181
83429W        W84293  12.444  10.683   3.740 -0.0393 -0.1680  0.1753
83430W        W84294  10.997   7.528   1.987 -0.1147  0.0079  0.0759
83431W        W84295  10.349   8.776   2.479  0.3972 -0.0746 -0.1652
83432W        W84296  13.367   9.352   2.369 -0.1255  0.2773 -0.1085
83433W        W84297  13.528   8.427  28.159  0.2757 -0.0609 -0.1881
83434W        W84298  15.100  11.412   4.760 -0.2821 -0.0396  0.2047
83435W        W84299  13.528   7.159   2.277 -0.0662  0.4661  0.0099
83436W        W84300  15.257   8.894   4.098 -0.0975  0.1755  0.3920
83437W        W84301  12.573   5.450   3.417  0.2828 -0.3026  0.0047
83438W        W84302  12.445   8.021  27.650 -0.1561 -0.1348 -0.0177
83439W        W84303  12.616   8.924   1.684  0.1496  0.0640 -0.3801
83440W        W84304  11.662   8.870   4.111  0.1109 -0.0906  0.2739
83441W        W84305  10.568   7.748   1.068 -0.0162 -0.1061  0.1103
83442W        W84306  15.009   8.030   4.291  0.0874  0.0300  0.4270
83443W        W84307  14.223   8.695  28.817  0.1230  0.3231  0.3490
83444W        W84308  13.145  10.305   2.143  0.1512  0.1985  0.3682
83445W        W84309  12.218  12.929   3.586  0.1475  0.0385 -0.1831
83446W        W84310   9.558   9.061   2.470  0.3782  0.1885  0.0072
83447W        W84311  16.044   6.292  29.136 -0.0691  0.4040 -0.4706
83448W        W84312  15.074   8.479   0.725 -0.0284  0.1615 -0.0712
83449W        W84313  12.058   7.632   4.831  0.1182  0.2064 -0.2306
83450W        W84314  11.209  10.343   0.382  0.0146  0.3659  0.2696
83451W        W84315  13.521  11.445   3.454  0.1316 -0.2890 -0.1354
83452W        W84316  12.285   5.303   1.165  0.0838  0.0556 -0.0110
83453W        W84317  13.779   8.615   2.710  0.1207 -0.1405  0.1198
83454W        W84318  12.810   8.903   0.988  0.0085 -0.1490  0.2254
83455W        W84319  14.676  10.172   5.010  0.2752  0.0774 -0.3348
83456W        W84320  14.776   8.066   0.720 -0.1986  0.5438  0.1994
83457W        W84321   9.175   6.624  28.316  0.0286  0.0525  0.3274
83458W        W84322  13.251   8.906   2.618  0.0641  0.2596  0.1657
83459W        W84323  14.095  11.829   1.011 -0.0175  0.0134 -0.1164
83460W        W84324  12.130   7.393   2.699 -0.0628  0.0412  0.1980
83461W        W84325  13.694  12.327   5.102  0.0173 -0.1110 -0.0145
83462W        W84326  14.929   7.505  29.110  0.1477 -0.2428 -0.1432
83463W        W84327  11.170   8.051   1.759 -0.0637 -0.2530 -0.0356
83464W        W84328  15.226   4.156   6.651 -0.0753  0.0789 -0.0297
83465W        W84329  10.899   9.592   2.029  0.1627  0.0342 -0.0729
83466W        W84330  12.708   7.945   4.053  0.4069 -0.1743 -0.0032
83467W        W84331  13.183   7.559  28.957 -0.1106  0.1976 -0.3741
83468W        W84332  12.933   7.886   0.901  0.2610  0.1596  0.2183
83469W        W84333  13.532   8.658   1.411  0.0914 -0.1684  0.0380
83470W        W84334  11.527   8.163   0.961 -0.0335  0.1626 -0.1917
83471W        W84335  13.017   8.246   0.491 -0.2502 -0.0107 -0.1099
83472W        W84336  14.140   7.897   2.370  0.2291  0.1560  0.3226
83473W        W84337  14.870   6.749   3.395  0.1474 -0.1122  0.0526
83474W        W84338   9.069   7.767   2.283 -0.2379  0.0482  0.1503
83475W        W84339  16.048   7.776   4.527  0.1091 -0.0378  0.0646
83476W        W84340  12.285  12.653   1.991 -0.0642 -0.5244  0.0873
83477W        W84341  11.671   7.567   2.797 -0.1359 -0.0357  0.1447
83478W        W84342  14.325  10.411   0.620  0.3448 -0.0938 -0.3081
83479W        W84343  14.587   6.402   1.253 -0.0845  0.0726  0.3292
83480W        W84344  13.204   9.317   1.796  0.0634  0.3228 -0.1919
83481W        W84345  16.867  10.616   1.585 -0.0155  0.0948 -0.4499
83482W        W84346  15.035   6.149   2.132  0.2608  0.1749  0.2248
83483W        W84347  10.001   9.009   2.825 -0.1536  0.0608  0.1597
83484W        W84348  13.503   7.964   0.185  0.1495  0.0395 -0.2190
83485W        W84349  15.156   6.473   5.194 -0.1611 -0.0073 -0.1506
83486W        W84350  11.970   8.413   0.377  0.0586  0.0390  0.0115
83487W        W84351  13.088  10.772   1.088 -0.0727  0.2681  0.1218
83488W        W84352   9.222   7.532  28.219  0.2021  0.1785 -0.0935
83489W        W84353  11.206   8.095   3.334 -0.0687 -0.2498  0.0809
83490W        W84354  12.918   9.078   2.142 -0.1004  0.1049  0.0313
83491W        W84355  10.012   8.927   2.180  0.1233  0.0152 -0.4989
83492W        W84356  11.416   7.274   1.081 -0.2417 -0.0469  0.0549
83493W        W84357  10.179   7.848   0.687 -0.2676 -0.1868  0.0853
83494W        W84358  13.556   7.597  27.717  0.1055  0.0529 -0.0706
83495W        W84359  14.059   8.348   0.798 -0.2172  0.1295  0.1549
83496W        W84360  12.425  13.094   1.821  0.3421 -0.1719  0.0323
83497W        W84361  11.501   9.300   3.860 -0.1938 -0.1283  0.2786
83498W        W84362  13.237  12.704   3.035  0.0172  0.3228 -0.3774
83499W        W84363   7.575   9.210   2.099 -0.2044  0.0188 -0.2893
83500W        W84364  14.196   9.361   2.061  0.1653  0.3680 -0.1671
83501W        W84365  11.177  10.558   1.061  0.2205 -0.1423  0.0212
83502W        W84366  13.183   5.961   1.368 -0.3358 -0.0260 -0.0692
83503W        W84367  12.358   4.949   2.263 -0.0909  0.1267 -0.1219
83504W        W84368  13.690  10.678   0.466 -0.2533 -0.2030  0.1504
83505W        W84369  12.725   8.136   2.228 -0.1179  0.2173 -0.1315
83506W        W84370  11.024   8.541   0.459 -0.0167 -0.1873  0.0774
83507W        W84371  13.357   9.843   2.510 -0.1539 -0.2759  0.1874
83508W        W84372  12.253   7.279   2.262  0.1098 -0.1389  0.2264
83509W        W84373  14.750  10.786   5.233 -0.2529  0.0701  0.1259
83510W        W84374  12.547  10.117   2.023 -0.2456  0.2442  0.3715
83511W        W84375  15.286   6.690   6.045  0.0558  0.3326 -0.1094
83512W        W84376  12.875   9.621   2.190  0.0347 -0.0861 -0.1015
83513W        W84377  13.264  10.460   0.741 -0.1250 -0.0488 -0.0885
83514W        W84378  11.928   9.081   1.377 -0.0068  0.2186  0.3626
83515W        W84379  11.868  10.923   1.937  0.4252  0.3758 -0.0194
83516W        W84380  14.986   9.674   2.158 -0.0716 -0.2040 -0.2539
83517W        W84381  11.534  11.686   0.253 -0.2992  0.2886 -0.1616
83518W        W84382  12.246   8.147   2.278  0.0772  0.0046 -0.0035
83519W        W84383  12.490   9.190   4.548 -0.0481 -0.0057  0.2363
83520W        W84384  16.960  10.341   4.269 -0.3638  0.1171 -0.0441
83521W        W84385  15.126   7.863   1.523  0.0628  0.1946 -0.1457
83522W        W84386  11.913   7.661   2.241 -0.1546  0.0182 -0.0695
83523W        W84387  15.988   9.628   0.351 -0.1480  0.3226  0.2241
83524W        W84388  12.757  11.004   3.293  0.1244  0.1804 -0.1985
83525W        W84389  14.083   9.430   0.789  0.2117  0.0052 -0.1434
83526W        W84390  11.889  10.611   2.339 -0.0366 -0.0524  0.2521
83527W        W84391   9.653   7.300   1.593 -0.0715  0.2382  0.0208
83528W        W84392  10.867   9.840   2.686  0.1409  0.1661 -0.0665
83529W        W84393  14.671   9.478   1.785  0.3811 -0.1964  0.1926
83530W        W84394  12.576  12.043   0.277  0.0232 -0.3410 -0.1607
83531W        W84395  11.251   8.469   1.447 -0.0858  0.1651 -0.0123
83532W        W84396  10.842  10.290   3.097  0.1063  0.0507  0.2513
83533W        W84397  13.088   7.534   1.519 -0.2788  0.0407 -0.1188
83534W        W84398  12.267   8.336   1.399 -0.0051 -0.0843 -0.0760
83535W        W84399  10.411   7.515   0.206  0.0085  0.0064 -0.0063
83536W        W84400  12.623  11.033   5.703  0.0614  0.0655  0.0043
83537W        W84401  13.940   9.064   1.716 -0.0225  0.0059  0.0351
83538W        W84402   9.623   9.091  28.838 -0.2733  0.2351  0.4041
83539W        W84403  10.964  10.658   3.854 -0.0591 -0.0722  0.2122
83540W        W84404  11.838   9.136   3.078  0.1003 -0.0114 -0.0348
83541W        W84405  13.114   7.620   2.459 -0.0259 -0.0133 -0.2453
83542W        W84406  10.256   6.570   0.898  0.0374 -0.0634 -0.0015
83543W        W84407  10.871   7.338   1.044  0.2503  0.2378 -0.2102
83544W        W84408  10.345   8.255   2.213 -0.0609 -0.0857  0.1195
83545W        W84409   8.247   8.357   1.268  0.0333  0.0483 -0.1614
83546W        W84410   9.950   8.931   4.123 -0.0105 -0.0032 -0.3244
83547W        W84411  11.979   8.235   1.833  0.0011  0.0212  0.1516
83548W        W84412   7.858   6.044   0.639 -0.0173 -0.2646  0.0589
83549W        W84413  11.229   8.384   2.359 -0.0709  0.2503  0.0819
83550W        W84414  11.652   7.698  28.511 -0.0181 -0.1571 -0.0217
83551W        W84415  10.361   6.579   1.717  0.0052 -0.0766  0.2369
83552W        W84416  13.731   8.097   1.540  0.1577 -0.0974 -0.1575
83553W        W84417   9.527   8.684   2.148  0.1532  0.0200 -0.1026
83554W        W84418  13.767   9.665   2.842 -0.1657 -0.3191 -0.0240
83555W        W84419  10.651   6.903   1.120 -0.3029  0.0329  0.3627
83556W        W84420  10.192   8.798  27.293  0.2426  0.0691 -0.0879
83557W        W84421  12.443   9.445   3.669  0.2781  0.2709 -0.0996
83558W        W84422  14.242   9.607   3.087  0.1306  0.1971  0.1979
83559W        W84423  12.928   7.499   3.073 -0.1128 -0.2329  0.2648
83560W        W84424  13.903   9.636   3.851  0.1750 -0.2432 -0.2291
83561W        W84425  12.599   6.037   0.547 -0.0703  0.1765 -0.0288
83562W        W84426  16.521   9.313   4.276 -0.0683 -0.2181 -0.0793
83563W        W84427  15.356  12.477   2.871 -0.0780  0.1769 -0.1457
83564W        W84428  13.782   5.963   1.098 -0.4998  0.4587  0.0495
83565W        W84429  12.208   9.738   1.071  0.1434  0.2576  0.3289
83566W        W84430  11.837   7.458   4.003  0.1034 -0.1771  0.1195
83567W        W84431  14.407  10.803   5.621 -0.0756  0.2518  0.1595
83568W        W84432  15.972   8.701   3.005 -0.0033  0.1037  0.0865
83569W        W84433  14.274   5.438   1.935  0.0613  0.0770  0.3554
83570W        W84434  12.978  11.399   3.573 -0.2002 -0.0257  0.1534
83571W        W84435  10.649   5.077   0.997 -0.1908 -0.0611 -0.1947
83572W        W84436  15.068  10.671   2.559  0.0464 -0.0782  0.2503
83573W        W84437  10.350   7.671   4.902  0.0995  0.6047  0.2066
83574W        W84438  14.366   8.538   4.229 -0.0143 -0.1493  0.1807
83575W        W84439  15.392   7.355   3.885 -0.0626 -0.0908 -0.2247
83576W        W84440  12.203   9.727   2.032 -0.2883  0.1342 -0.0817
83577W        W84441  14.528   8.802   1.258 -0.0343  0.0020 -0.4676
83578W        W84442   9.818  10.306   3.962 -0.0852 -0.0184  0.0549
83579W        W84443  13.772   8.092   2.066 -0.0306  0.1091 -0.1613
83580W        W84444  11.939  10.552  28.806 -0.1617 -0.0188 -0.4807
83581W        W84445  11.180   7.173   2.311  0.0720  0.1926 -0.2510
83582W        W84446  10.223   8.293   2.698 -0.3870  0.0893 -0.1746
83583W        W84447  12.063   9.515   2.634  0.0771 -0.4290  0.2614
83584W        W84448  14.025   8.631   3.157 -0.1978 -0.0604  0.3278
83585W        W84449  11.163   5.611   1.514 -0.0441  0.3245  0.2299
83586W        W84450  14.858   8.555   4.433  0.0887  0.1553  0.2806
83587W        W84451  15.273   7.871   3.125  0.1991 -0.0179  0.0232
83588W        W84452  11.052   9.050   1.397  0.0754 -0.1544  0.3532
83589W        W84453  12.517   7.294   3.277 -0.0020  0.2793 -0.0912
83590W        W84454  13.288   5.526   3.321 -0.0540 -0.1095  0.0028
83591W        W84455   8.446   8.840   2.298 -0.1444  0.2014  0.2534
83592W        W84456  11.209   7.664   1.404  0.3419  0.2249  0.0729
83593W        W84457   9.974   8.181   1.442 -0.1642 -0.0245 -0.0578
83594W        W84458  14.316   8.885   2.160 -0.0412  0.0747 -0.0236
83595W        W84459  13.394   9.494   3.714 -0.1003 -0.1219 -0.2768
83596W        W84460  14.744  11.903  27.967 -0.0011  0.1400 -0.0406
83597W        W84461   9.852   6.869   0.840  0.0461  0.0345 -0.0601
83598W        W84462  12.939   8.601   2.329 -0.2266 -0.2627 -0.1537
83599W        W84463  10.708  13.469   5.159 -0.2419  0.0145 -0.0252
83600W        W84464  14.325  11.245   4.053 -0.0656 -0.1325  0.1413
83601W        W84465  12.931   6.856   0.955 -0.1322 -0.0248  0.0623
83602W        W84466  11.257   9.700   0.635 -0.0035 -0.1785  0.2156
83603W        W84467  14.673   8.985   1.746  0.0049  0.3336  0.1050
83604W        W84468  14.634   4.679   1.442 -0.3106  0.4020 -0.1445
83605W        W84469  10.960   8.749   3.367  0.0436 -0.3167 -0.0910
83606W        W84470  13.523   7.158   1.729  0.0633  0.1375  0.0089
83607W        W84471  12.251  10.879  28.498 -0.1469 -0.0753  0.0815
83608W        W84472  13.022   7.823   4.458 -0.0635  0.0459 -0.3032
83609W        W84473  13.699   8.173   2.541 -0.0583  0.0238 -0.1269
83610W        W84474  11.671   8.102   3.003 -0.1306 -0.2369  0.1282
83611W        W84475  11.656   8.967   3.513 -0.2483  0.3528 -0.2412
83612W        W84476  11.304   9.362   1.887  0.0016 -0.0717 -0.1062
83613W        W84477  12.930   9.286   3.797 -0.1102 -0.1369  0.0707
83614W        W84478  10.760   9.167   1.797 -0.0888 -0.3534 -0.1889
83615W        W84479  15.886   8.100   2.178  0.1321 -0.2160  0.1537
83616W        W84480  11.091   7.739   4.371  0.2874 -0.1519  0.1601
83617W        W84481  12.474   7.898   1.201  0.0878 -0.0981  0.1586
83618W        W84482  11.569  11.014   2.364 -0.4257  0.2124 -0.0413
83619W        W84483  13.553   8.264   5.725  0.0049 -0.2845 -0.0188
83620W        W84484  11.987   7.948   1.052 -0.0987 -0.0904  0.0664
83621W        W84485  13.235   8.738   4.451 -0.3310 -0.0743 -0.0354
83622W        W84486  13.250  12.569   4.242 -0.2439 -0.0499  0.1412
83623W        W84487  15.263   5.694   1.985  0.0554  0.0342 -0.1374
83624W        W84488  13.236   8.394   2.716 -0.0830  0.1276 -0.0079
83625W        W84489  12.187   9.951   2.911 -0.2301  0.0585  0.0153
83626W        W84490  10.234   8.673   1.104 -0.0056 -0.1108  0.0997
83627W        W84491  10.630  10.484   5.111  0.0425  0.0168  0.1013
83628W        W84492  13.311  10.010   3.037  0.2898  0.1161 -0.0197
83629W        W84493  10.688  10.450   1.109 -0.3625 -0.4542  0.0854
83630W        W84494  10.365   7.729   2.357 -0.0674  0.3908  0.1803
83631W        W84495  11.462  12.602   3.311 -0.1205  0.1588  0.2438
83632W        W84496  12.427   7.680   0.051 -0.0190 -0.2649  0.2175
83633W        W84497  16.401   8.198   3.566 -0.1280  0.0135 -0.0897
83634W        W84498  13.908   7.372   1.967  0.3539  0.0957  0.2217
83635W        W84499  11.631  11.891   2.041  0.4506  0.1649  0.0564
83636W        W84500  13.967   5.878   0.621 -0.2436  0.2437 -0.3325
83637W        W84501  11.775  10.057  28.796 -0.2422 -0.0860 -0.1641
83638W        W84502  11.431  10.336   3.185  0.5220 -0.1395 -0.0098
83639W        W84503  14.719   6.064  28.490  0.0022  0.1609 -0.0665
83640W        W84504  12.268   6.496   1.721 -0.0685  0.1405  0.0334
83641W        W84505  10.276   8.209   3.832  0.2451  0.3282  0.0585
83642W        W84506  10.144   7.726   1.341  0.1570 -0.1375  0.1117
83643W        W84507  11.068   9.426   2.473  0.2683  0.0080 -0.3247
83644W        W84508  10.738  10.110   2.190 -0.0010  0.0395 -0.0033
83645W        W84509  14.358  10.310   2.837  0.1020  0.4780  0.1458
83646W        W84510  15.362   5.926   2.428  0.2951 -0.3714 -0.1564
83647W        W84511  11.563   9.936   3.440  0.3608  0.0274 -0.0339
83648W        W84512  12.051  13.126   1.084  0.1236  0.0170  0.0987
83649W        W84513  10.954   6.533   2.898  0.1248  0.0348  0.1262
83650W        W84514  12.410   9.227   2.041 -0.3190  0.0295 -0.1932
83651W        W84515  12.795   8.752   0.526 -0.2651 -0.4466 -0.0295
83652W        W84516  13.937   9.030  28.998 -0.2379 -0.1460  0.1349
83653W        W84517  13.115  12.104   4.298  0.2245  0.0971 -0.0567
83654W        W84518  14.272   8.662   1.697 -0.1497  0.1423 -0.0577
83655W        W84519  12.194   6.640   2.224 -0.3962  0.0144  0.0995
83656W        W84520  13.381   7.857   0.744  0.0614  0.1091 -0.0272
83657W        W84521  11.007  11.041   1.419 -0.1686 -0.0533  0.0079
83658W        W84522   9.772   9.523   0.137  0.0372 -0.1057  0.0389
83659W        W84523  15.132  10.263   2.102 -0.0719  0.0172  0.0696
83660W        W84524  12.693   5.099   0.983  0.2950  0.0793 -0.1546
83661W        W84525  15.142   8.389   3.015  0.0198  0.0450 -0.1010
83662W        W84526  12.630   7.293   2.740  0.1503 -0.1412  0.0535
83663W        W84527  12.212  11.683   1.275  0.3105 -0.4050 -0.0133
83664W        W84528  10.397   8.514   1.591  0.3542  0.0757  0.2246
83665W        W84529  12.304   8.896   1.202 -0.2021  0.0183  0.1572
83666W        W84530  13.281   8.197   4.622 -0.1653  0.1307 -0.0519
83667W        W84531  11.910   6.187   2.903 -0.1714  0.2781 -0.2622
83668W        W84532  15.113  11.816   2.069 -0.0643  0.4394 -0.0884
83669W        W84533  14.356   9.760   0.518  0.0185  0.3204  0.2428
83670W        W84534  10.079   9.600   5.091  0.0489  0.1925  0.2835
83671W        W84535  11.335   7.663   2.301 -0.1635 -0.2601  0.1006
83672W        W84536  13.338   8.343  27.331 -0.1105  0.1778  0.0628
83673W        W84537  13.997  12.710   1.654  0.1723  0.3502  0.0561
83674W        W84538   9.971   6.962   1.804 -0.0673 -0.1240  0.0479
83675W        W84539  12.919   9.131   3.070 -0.0763 -0.1607  0.1830
83676W        W84540  13.567   8.303   0.561  0.0217 -0.2537  0.3571
83677W        W84541  12.995   8.472   1.849 -0.0904 -0.1397 -0.0107
83678W        W84542  11.943   9.219   2.265  0.0006  0.0059  0.0473
83679W        W84543  12.706   7.643  27.867 -0.0417  0.0427 -0.0005
83680W        W84544  14.102  10.748   3.832 -0.0177 -0.0719 -0.3779
83681W        W84545  15.942  10.253   5.873 -0.0398 -0.2964 -0.0864
83682W        W84546  14.653  10.034   3.778 -0.0921  0.2177  0.1847
83683W        W84547  14.605   8.159   5.108 -0.1362 -0.4002 -0.1746
83684W        W84548  13.497   7.665   1.304 -0.3930 -0.1055  0.0234
83685W        W84549  14.326   7.905   0.861 -0.2033 -0.2745  0.0179
83686W        W84550  12.754  11.647   1.069 -0.0067  0.0265 -0.1589
83687W        W84551  12.523   2.589   1.279  0.0287 -0.0518  0.2312
83688W        W84552  10.853   8.441   1.890 -0.0850 -0.0651  0.3246
83689W        W84553  12.313   8.028   3.647  0.3039 -0.1009  0.0440
83690W        W84554  10.233   6.102   1.078  0.0581  0.2585  0.1868
83691W        W84555  11.957  11.051  28.871  0.2041  0.0884 -0.1822
83692W        W84556  13.389   7.869   2.839  0.0080  0.3896  0.2852
83693W        W84557  12.335  13.391   2.243  0.0867  0.0217 -0.1478
83694W        W84558  11.172  10.266   2.719  0.0214  0.2670  0.1226
83695W        W84559  10.321   8.735   3.882 -0.0146  0.0522 -0.0590
83696W        W84560  11.898   9.843   1.459  0.0209 -0.1876  0.1066
83697W        W84561  10.497   7.492  28.875  0.0487 -0.0934 -0.4374
83698W        W84562  11.483   6.553   1.554  0.2553  0.2364  0.2711
83699W        W84563  14.808   6.835   1.246 -0.1295  0.2129 -0.0333
83700W        W84564  13.441   8.558   2.316 -0.3239  0.1676 -0.0044
83701W        W84565  10.894   8.006   2.196  0.0949  0.1150 -0.1112
83702W        W84566  12.851   9.746   1.153  0.1521  0.1104 -0.0265
83703W        W84567  14.636   5.350   1.047 -0.0919 -0.1732 -0.1765
83704W        W84568  12.286  12.008   3.846  0.3441  0.2543 -0.1464
83705W        W84569  11.998   7.421   1.751 -0.0910 -0.3138 -0.0350
83706W        W84570  12.980   9.703   2.876 -0.4222  0.3788 -0.3939
83707W        W84571  10.625   9.140   0.933  0.2860 -0.2610 -0.1396
83708W        W84572  12.538  10.137   1.022  0.2200  0.0649  0.2037
83709W        W84573  13.066   8.608   3.389 -0.1070 -0.0596  0.1584
83710W        W84574   9.831   7.232   5.841  0.0455 -0.3013  0.1979
83711W        W84575  12.668   5.504   0.309  0.1133 -0.4368  0.1665
83712W        W84576  11.945  12.244   2.045  0.2752  0.1002 -0.1317
83713W        W84577  14.295   9.367   2.552  0.1445 -0.0679  0.4064
83714W        W84578  12.420   9.070   0.618  0.5088 -0.1921 -0.2199
83715W        W84579  12.770   5.569   1.186 -0.0805  0.0744  0.2685
83716W        W84580  11.650   7.257   2.196  0.3795 -0.0489 -0.0841
83717W        W84581  15.023   8.848   1.100  0.2645  0.2971 -0.4149
83718W        W84582   8.079  10.730  27.443  0.0969 -0.0062  0.0077
83719W        W84583  13.829   9.562  28.424  0.1322 -0.0699 -0.0005
83720W        W84584  10.429   9.705   1.892 -0.2625  0.1166  0.0606
83721W        W84585  13.941   8.590  28.389  0.1729 -0.0922 -0.0288
83722W        W84586  13.007   9.305   1.275 -0.1944  0.1600  0.2005
83723W        W84587  13.978   6.499   4.083 -0.2487 -0.0267 -0.0344
83724W        W84588  11.682   7.033   4.589 -0.2494  0.0716 -0.3083
83725W        W84589  16.649   8.947   1.713 -0.0871  0.1151 -0.3455
83726W        W84590  12.772   7.297   2.259  0.1803 -0.2177  0.0381
83727W        W84591  12.528   7.199   4.753  0.0634 -0.1095 -0.0229
83728W        W84592  11.425   9.562   6.431  0.0154 -0.0744  0.1589
83729W        W84593   9.803  12.137   4.229 -0.2874 -0.0626 -0.2269
83730W        W84594  10.397   8.785   1.961  0.4036 -0.2589  0.1299
83731W        W84595  14.562   8.561   3.056  0.0585  0.3183  0.0766
83732W        W84596  13.585  11.152   5.806  0.2447 -0.0960  0.1193
83733W        W84597  15.151   7.745   0.911  0.4575  0.2315 -0.3787
83734W        W84598  14.077   8.506   1.257 -0.0352 -0.2543  0.2891
83735W        W84599  13.713  11.612   0.680 -0.2800  0.1065  0.0554
83736W        W84600   9.240   9.137   3.314 -0.0623  0.3023  0.3001
83737W        W84601  14.552   8.465   0.883  0.2481  0.1159 -0.2727
83738W        W84602  13.113  10.940   4.395  0.1577 -0.0083 -0.0475
83739W        W84603  12.352   9.420   1.532  0.3061  0.1272 -0.2551
83740W        W84604   8.450   8.106  28.244 -0.0418 -0.3714 -0.1130
83741W        W84605  12.064   7.915   2.750  0.0124 -0.0270 -0.2250
83742W        W84606  12.883   9.828   3.600 -0.1932  0.0342  0.0367
83743W        W84607  15.180   8.392   5.255  0.0228 -0.0060 -0.0717
83744W        W84608  13.995  10.044   3.132  0.5437 -0.0206 -0.0437
83745W        W84609  12.408   8.619   2.407 -0.0829  0.0071  0.2083
83746W        W84610  12.142   8.186   3.148 -0.0473 -0.0494  0.3942
83747W        W84611  10.940   9.544   1.490 -0.1445 -0.2508 -0.0950
83748W        W84612  11.337   9.788   5.876  0.1105 -0.2361  0.3439
83749W        W84613  11.436  11.399   6.593 -0.0611  0.1017  0.3064
83750W        W84614  15.172   8.927   3.012  0.1425 -0.0984 -0.1310
83751W        W84615  17.638  10.865   7.607 -0.0512  0.2900 -0.0521
83752W        W84616  13.429   8.027   4.142 -0.0544 -0.1839  0.2358
83753W        W84617  10.788   8.068   5.828  0.1906  0.0195 -0.1246
83754W        W84618  11.270   7.251   4.292  0.0508 -0.0815  0.1389
83755W        W84619  13.275  11.624   5.618 -0.0581 -0.1085 -0.0256
83756W        W84620  12.892  10.554   6.379  0.0099  0.0584  0.1157
83757W        W84621  12.246   6.706   7.352  0.0360 -0.2885 -0.0869
83758W        W84622  13.695   8.890   4.973 -0.2391  0.2262  0.1957
83759W        W84623  16.496   6.744   6.873  0.0828 -0.1438  0.2896
83760W        W84624  13.856   8.699   4.040  0.0033 -0.0392 -0.1264
83761W        W84625  14.125   8.211   6.264 -0.3080  0.1613  0.1157
83762W        W84626  12.314   5.405   5.043  0.3048  0.5684 -0.0144
83763W        W84627  12.692  10.649   6.819 -0.0214 -0.1733  0.0364
83764W        W84628  10.807  11.966   3.461 -0.0803  0.2339 -0.2517
83765W        W84629  12.511   7.826   4.554  0.2510  0.0730  0.1252
83766W        W84630  15.430   7.938   7.827  0.0827 -0.1132 -0.2521
83767W        W84631  12.442   6.590   3.109 -0.1778  0.0654  0.1700
83768W        W84632  15.686  12.006   6.542  0.2551  0.3014 -0.0440
83769W        W84633  13.525   6.833   5.511 -0.0402  0.2917 -0.0503
83770W        W84634  13.625   8.359   3.090  0.1418 -0.3418 -0.1311
83771W        W84635  12.985   8.010   5.023 -0.0606 -0.2948  0.1162
83772W        W84636  13.151   7.932   5.537  0.2006  0.0295 -0.0630
83773W        W84637   9.505   4.972   6.446  0.0797  0.2223  0.1319
83774W        W84638  12.599   9.163   7.028  0.0249 -0.1909 -0.0418
83775W        W84639  13.065  10.453   5.238  0.1054  0.0368 -0.2821
83776W        W84640  11.744  10.431   5.463  0.0489  0.3606  0.0754
83777W        W84641  12.919   8.223   3.744 -0.0679  0.2249 -0.2724
83778W        W84642  12.511   8.636   6.714 -0.0802  0.3136 -0.0114
83779W        W84643  13.373  13.134   8.281  0.0079 -0.0344  0.0194
83780W        W84644  12.913   7.076   7.974  0.1474 -0.2663  0.0404
83781W        W84645  11.526   8.059   5.831  0.0768  0.0842  0.0741
83782W        W84646  13.439  11.221   7.073  0.0017  0.2858 -0.1076
83783W        W84647  15.974   9.297   6.132 -0.0703 -0.0262  0.0129
83784W        W84648  12.291   8.242   4.243 -0.3809 -0.2024  0.0244
83785W        W84649  11.313  12.096   3.384 -0.2876  0.2799 -0.1764
83786W        W84650  14.212  11.588   4.851  0.0092  0.4209 -0.0951
83787W        W84651  13.823   9.425   4.746  0.1608  0.1486  0.1533
83788W        W84652  17.441   3.831   4.584  0.1905 -0.3431  0.2625
83789W        W84653  14.489   9.876   6.915 -0.0438  0.0441 -0.1047
83790W        W84654  12.239  11.149   8.164  0.0322 -0.1306  0.2163
83791W        W84655  14.589  12.334   5.542  0.2904 -0.2100  0.0504
83792W        W84656  11.770  10.512   4.087  0.0419 -0.0322  0.1340
83793W        W84657  10.059  11.751   3.951 -0.0813 -0.3781 -0.0205
83794W        W84658   9.845   6.275   5.752 -0.1140 -0.0958 -0.0847
83795W        W84659  14.808   9.883   8.145 -0.0536  0.1348  0.1112
83796W        W84660  15.352   8.509   4.344 -0.1300  0.0920  0.1753
83797W        W84661  13.633   5.515   1.955  0.1794 -0.1153 -0.2026
83798W        W84662  12.948  12.040   5.708  0.0087  0.0347 -0.1153
83799W        W84663  14.149   8.906   5.512  0.2070  0.3758 -0.0936
83800W        W84664  12.310   8.649   3.032 -0.0748 -0.0651  0.0437
83801W        W84665  13.475   6.331   4.110 -0.1204  0.2161 -0.0602
83802W        W84666  13.735  10.102   1.732 -0.1364 -0.1186  0.2637
83803W        W84667   7.063   5.189   4.558  0.3929  0.0593  0.0681
83804W        W84668  14.736  10.314   2.414  0.0225  0.0835  0.1078
83805W        W84669  10.986   9.032   5.251  0.0210  0.2468 -0.0752
83806W        W84670  13.676   8.721   3.528  0.0598 -0.1861  0.0270
83807W        W84671  11.370  10.057   5.468 -0.1689 -0.2083 -0.0160
83808W        W84672  11.539  11.426   2.937 -0.0324 -0.0090  0.2135
83809W        W84673  15.631   8.948   7.292  0.0425 -0.2404 -0.3420
83810W        W84674  14.958   9.687   3.636  0.0355  0.0197  0.0067
83811W        W84675  10.564   6.756   5.743  0.0064  0.0760  0.0150
83812W        W84676  14.647   8.763   5.430 -0.0098 -0.0891  0.1451
83813W        W84677  11.439   8.093   4.317 -0.2699  0.1806  0.1810
83814W        W84678  15.035   6.069   4.315 -0.0827  0.0548 -0.0669
83815W        W84679  10.216  11.332   3.444 -0.2038  0.3088  0.1290
83816W        W84680  10.995  10.242   6.015  0.0520  0.0673 -0.0033
83817W        W84681  13.322  10.140   4.974  0.1035 -0.0017  0.2084
83818W        W84682  11.050   7.460   5.774  0.5443 -0.0389  0.0715
83819W        W84683  14.512  12.226   7.247 -0.2651 -0.1259  0.2221
83820W        W84684  16.204   7.751   7.851  0.0911  0.1671 -0.2927
83821W        W84685  16.479  12.083   5.752  0.0399 -0.1823 -0.1685
83822W        W84686  15.195  11.211   6.310 -0.2215 -0.4400 -0.0134
83823W        W84687  12.070   6.600   5.178  0.2230  0.3876 -0.0634
83824W        W84688  12.306   7.222   6.755 -0.2969  0.0586  0.0433
83825W        W84689  12.499   8.824   4.940 -0.0576  0.0210 -0.5152
83826W        W84690  12.898  10.924   5.297 -0.0798  0.0522  0.0268
83827W        W84691  12.551   8.094   5.603 -0.1236 -0.1051 -0.3833
83828W        W84692  13.566   7.110   6.759  0.0814 -0.0729 -0.0408
83829W        W84693   9.738   6.412   7.045  0.1808  0.2623 -0.1365
83830W        W84694  13.964   7.000   5.369  0.2040  0.0342  0.0103
83831W        W84695  14.582   9.227   7.210  0.0916  0.3262  0.0666
83832W        W84696  16.849   6.289   6.170 -0.2694  0.0328  0.4325
83833W        W84697  15.724  11.574   7.105  0.0695  0.0441 -0.0287
83834W        W84698  14.336   8.320   8.110 -0.1399  0.1802 -0.1453
83835W        W84699  16.463  10.347   5.946 -0.2962 -0.3067 -0.1527
83836W        W84700  13.356   8.528   3.855  0.0023 -0.0848  0.0140
83837W        W84701  14.341   6.936   2.079  0.0965 -0.1051  0.0429
83838W        W84702  15.230  11.237   5.307  0.0536  0.2817  0.2100
83839W        W84703  10.200  12.948   3.886  0.2003  0.3946  0.4136
83840W        W84704  13.361   9.073   4.075 -0.2592  0.2477 -0.1726
83841W        W84705  11.321   7.726   3.804  0.0068 -0.0384 -0.1731
83842W        W84706  13.859   8.656   1.993  0.0566 -0.2785  0.5028
83843W        W84707  15.446   6.293   4.551 -0.1022  0.2935  0.0238
83844W        W84708  14.103   9.827   8.884 -0.1871 -0.1216 -0.1317
83845W        W84709  11.769   6.360   1.938 -0.0370  0.0149  0.1186
83846W        W84710  13.892   8.918   4.502 -0.2132 -0.0852  0.2494
83847W        W84711  12.817  11.033   6.211 -0.3074  0.0022  0.1102
83848W        W84712   9.467   8.788   4.271 -0.1189  0.0219  0.1541
83849W        W84713  12.721   5.631   2.912 -0.0948  0.0599  0.0004
83850W        W84714  14.860   9.638   7.135  0.2214 -0.2779  0.0608
83851W        W84715  14.636   5.950   4.814 -0.1371 -0.0753 -0.0625
83852W        W84716  13.941   9.314   5.220 -0.0750  0.0635  0.2457
83853W        W84717  14.675  11.655   6.343 -0.0030 -0.1010 -0.3093
83854W        W84718  15.782   9.987   7.191 -0.0152 -0.1761  0.3499
83855W        W84719  12.006   6.350   5.783  0.3786  0.0621 -0.2676
83856W        W84720  11.830   6.859   1.907  0.1757 -0.1593  0.2230
83857W        W84721  12.549  10.253   7.043  0.1988  0.2702 -0.3730
83858W        W84722  13.079  12.303   6.056 -0.0328 -0.0945 -0.0276
83859W        W84723  15.278   8.993   5.935 -0.1653 -0.0552 -0.2511
83860W        W84724  12.340  11.427   6.967 -0.2477 -0.1258 -0.2219
83861W        W84725  14.394   8.065   5.888  0.2594  0.0801 -0.0545
83862W        W84726  12.106   7.095   3.085  0.2176 -0.2117  0.2958
83863W        W84727  15.751   7.761   8.545  0.2172 -0.0860 -0.0205
83864W        W84728  15.008  10.906   8.681 -0.1313  0.6849  0.0073
83865W        W84729  12.498   9.937   4.417 -0.4490  0.0365  0.0459
83866W        W84730  13.597   6.891   4.979  0.2111 -0.0209  0.1547
83867W        W84731  14.750   9.585   3.121 -0.1317 -0.2379 -0.0042
83868W        W84732  15.912  11.157   4.276 -0.3169 -0.2833  0.0293
83869W        W84733  13.621   7.685   2.387  0.0543 -0.1363  0.1226
83870W        W84734  13.855   9.035   2.345 -0.3058  0.3086  0.1046
83871W        W84735  14.345   7.438   5.215  0.2280 -0.2425  0.1247
83872W        W84736  16.464   9.233   6.312  0.1191  0.0724 -0.1889
83873W        W84737  10.896   7.545   6.414 -0.1402  0.0156 -0.0090
83874W        W84738  14.681  11.193   4.969  0.0748  0.1135 -0.2549
83875W        W84739  13.966  10.205   5.054 -0.1532 -0.0940  0.1609
83876W        W84740  13.436  13.119   3.214 -0.0983  0.1863 -0.0137
83877W        W84741  14.603  11.564   4.485  0.0297 -0.1313  0.1790
83878W        W84742  12.186   8.711   4.543  0.0145  0.1547 -0.1197
83879W        W84743  11.950  11.937   7.364  0.2710  0.1426 -0.3235
83880W        W84744  13.207   6.928   4.698  0.3617  0.2322 -0.1122
83881W        W84745  14.126   8.249   2.877  0.0670 -0.0378 -0.0013
83882W        W84746  10.798   5.933   6.720  0.0677 -0.1918 -0.4224
83883W        W84747  14.292   7.269   6.097 -0.1726 -0.0925  0.1265
83884W        W84748  15.752  10.751   6.734  0.0787 -0.1128 -0.1780
83885W        W84749  14.922  11.157   7.500  0.3608  0.1180 -0.0404
83886W        W84750  11.109   9.966   4.165  0.4295 -0.0057  0.3481
83887W        W84751  11.826   6.706   2.965  0.1344  0.0230  0.1394
83888W        W84752  13.056  10.824   3.798 -0.0171  0.0516  0.2143
83889W        W84753  13.646  10.269   2.238 -0.1832  0.1343  0.0095
83890W        W84754  12.929   9.059   4.778  0.1420 -0.0183  0.0887
83891W        W84755  12.621  11.500   8.293  0.1413  0.0527 -0.2828
83892W        W84756  11.937   6.264   4.763  0.1557  0.0070  0.3072
83893W        W84757  15.117   5.315   3.603  0.2530  0.0396  0.4443
83894W        W84758  13.001   8.350   4.199  0.0554  0.4042 -0.3046
83895W        W84759  13.356  11.901   6.018 -0.2445 -0.1398  0.0952
83896W        W84760  11.821   9.651   4.660  0.2572 -0.1201 -0.0771
83897W        W84761  16.302  10.573   8.230 -0.3499 -0.0682  0.0546
83898W        W84762  13.560   7.045   4.342 -0.2259 -0.0693 -0.3690
83899W        W84763  11.291   9.924   4.865 -0.0315 -0.0791 -0.0897
83900W        W84764  12.345   7.684   1.975  0.0031  0.1010  0.0208
83901W        W84765  10.704   9.061   6.162 -0.1559  0.0840  0.0949
83902W        W84766  12.303   5.219   5.847  0.1463  0.1253  0.1760
83903W        W84767  12.254   8.466   5.351 -0.0047 -0.1448  0.1184
83904W        W84768  13.555  10.846   0.946  0.0522 -0.2410  0.2021
83905W        W84769  13.747   7.344   2.958  0.3410 -0.3180  0.2499
83906W        W84770  13.911   7.812   2.839 -0.2375 -0.0509  0.1939
83907W        W84771  12.445   9.193   6.518  0.1094  0.1566  0.0645
83908W        W84772  11.997   9.533   5.179 -0.0398 -0.2572  0.3377
83909W        W84773  12.430   7.952   8.366 -0.1001 -0.3631  0.1698
83910W        W84774  12.752  10.221   6.048 -0.1438 -0.0195  0.0069
83911W        W84775  12.573   5.450   7.211 -0.0441  0.0202  0.0408
83912W        W84776  13.047   9.188   6.127  0.0415 -0.0382  0.0401
83913W        W84777  11.614   6.260   5.129 -0.1060  0.0409  0.2428
83914W        W84778  11.332  11.250   4.573 -0.3448 -0.1888 -0.1263
83915W        W84779  13.352   9.776   7.276  0.2250  0.0780  0.1383
83916W        W84780  13.216   9.542   4.201  0.0080  0.0001  0.0675
83917W        W84781  14.378  10.150   5.473 -0.1269  0.0903  0.0725
83918W        W84782  13.970   7.496   3.684  0.0894  0.0950 -0.4331
83919W        W84783  13.607   9.897   4.152 -0.0670 -0.2386 -0.0818
83920W        W84784  15.336   9.867   2.550 -0.0291 -0.0222  0.0854
83921W        W84785  14.690   6.258   3.407 -0.1883 -0.1773  0.1313
83922W        W84786  14.640   8.644   4.922 -0.0843  0.1110  0.0502
83923W        W84787   9.768   9.693   6.859  0.0615  0.2390 -0.1061
83924W        W84788  12.838   7.525   5.184 -0.3167  0.0725  0.0702
83925W        W84789  11.427  12.865   1.682 -0.0206 -0.0564  0.2311
83926W        W84790  14.606   6.396   7.284  0.0585 -0.0803  0.1465
83927W        W84791  12.276  10.163   5.204  0.4414  0.4407 -0.3451
83928W        W84792  13.607  10.594   5.110  0.3276 -0.2216 -0.1355
83929W        W84793  14.337   8.402   6.841 -0.1329 -0.0509 -0.2732
83930W        W84794  13.305   8.098   3.377  0.1743  0.1169  0.0424
83931W        W84795  14.337   8.181   3.367 -0.0827  0.0065  0.0330
83932W        W84796  14.300  11.086   5.198  0.0066  0.0916  0.1172
83933W        W84797  14.899   5.738   3.397  0.1293  0.2987  0.0424
83934W        W84798  13.753   6.337   3.612  0.0022 -0.0456  0.1116
83935W        W84799  14.792  11.264   6.561 -0.0974 -0.1160 -0.2450
83936W        W84800  12.554   8.302   4.677  0.0880 -0.0790  0.0875
83937W        W84801  11.525  12.242   2.404 -0.1369 -0.0639  0.3449
83938W        W84802  11.636   7.557   4.534  0.3249  0.2416  0.2055
83939W        W84803  13.036   7.260   8.422  0.1182  0.1369  0.0345
83940W        W84804  10.512   9.099   8.785  0.0236  0.1581  0.2711
83941W        W84805  12.794   8.415   5.264 -0.0185  0.2510 -0.0869
83942W        W84806  13.920  10.292   3.643 -0.1376  0.0430 -0.2510
83943W        W84807  12.140   6.738   3.998 -0.1780 -0.1198  0.1128
83944W        W84808  11.288   5.775   5.166 -0.1226 -0.2190  0.1995
83945W        W84809  10.135   6.107   5.270 -0.0086 -0.1914 -0.0464
83946W        W84810  15.020   5.717   5.735 -0.0713  0.0208  0.3929
83947W        W84811   8.288   8.391   3.720 -0.2329 -0.0479 -0.2460
83948W        W84812  13.580   7.317   3.927 -0.0633  0.0251  0.1766
83949W        W84813  14.610   7.256   3.021 -0.0142 -0.1133 -0.1422
83950W        W84814  13.587   7.775   3.747 -0.1719 -0.0468  0.1208
83951W        W84815  14.696   8.169   9.845 -0.2389  0.0586  0.1462
83952W        W84816   8.916   6.972   4.074 -0.4214 -0.0480  0.0302
83953W        W84817  12.712   9.134   9.659 -0.0343  0.0435  0.0981
83954W        W84818  12.941   8.560   4.818  0.0733 -0.0176  0.2778
83955W        W84819  13.487   8.830   3.062  0.0496  0.4920  0.0177
83956W        W84820   9.551   9.026   3.732  0.1345 -0.1098 -0.0593
83957W        W84821  11.740   9.380   5.855  0.1375 -0.2407  0.3088
83958W        W84822  11.114   6.555   5.962  0.4192 -0.1147  0.0688
83959W        W84823  12.154  11.163   5.978  0.0830  0.3725 -0.0643
83960W        W84824  14.050   6.842   6.780  0.1049 -0.6083 -0.1427
83961W        W84825  13.909  10.855   7.859  0.2300  0.1612  0.1595
83962W        W84826  14.627   8.489   3.666 -0.3015  0.1399 -0.2690
83963W        W84827  14.978   7.450   1.815 -0.2560 -0.1840 -0.0513
83964W        W84828  14.462  12.854   3.189  0.0098  0.1166  0.0195
83965W        W84829  15.570  10.217   7.631 -0.1090  0.3726  0.1011
83966W        W84830  12.794   7.551   7.024  0.2470  0.0381 -0.0253
83967W        W84831  14.562   9.710   5.600  0.1006  0.1467 -0.0421
83968W        W84832  11.025   8.031   5.376  0.0106  0.3756  0.0355
83969W        W84833  12.813   9.637   7.748 -0.1786  0.2277 -0.3514
83970W        W84834  12.718   5.500   2.137  0.2262  0.2668  0.0142
83971W        W84835  15.979   9.475   3.735  0.0476  0.1110  0.1610
83972W        W84836  12.688   9.334   5.571 -0.1884 -0.1158 -0.0587
83973W        W84837  11.940  11.432   6.696  0.3557  0.1342  0.1083
83974W        W84838  14.415   6.882   5.181  0.0787 -0.1567 -0.1450
83975W        W84839  11.393  10.763   5.264  0.0132  0.0867 -0.0715
83976W        W84840  13.672   9.940   6.368  0.1055  0.3925  0.0651
83977W        W84841  10.793   7.327   4.664 -0.4442  0.3149 -0.0295
83978W        W84842  15.034  10.312   6.450 -0.4050  0.1127 -0.0967
83979W        W84843  12.999   9.410   0.804 -0.1884 -0.0198  0.0850
83980W        W84844  11.406   8.297   3.881 -0.0567 -0.1083  0.2573
83981W        W84845  10.980   7.003   5.192 -0.3168  0.2359  0.0247
83982W        W84846  13.267   8.768   5.259  0.0823  0.2738 -0.1103
83983W        W84847  14.404   9.558   3.895  0.2072 -0.1925  0.1018
83984W        W84848  14.140   8.512   4.688 -0.0740 -0.1371  0.4699
83985W        W84849  14.804   7.082   6.083  0.1854  0.0510 -0.4118
83986W        W84850  13.718  11.918   7.205 -0.0534 -0.0017  0.2597
83987W        W84851  14.755  11.447   3.741  0.0999 -0.1907  0.1144
83988W        W84852  10.626   8.112   5.070  0.3041 -0.2476  0.0035
83989W        W84853  10.886   8.469   4.606 -0.2836  0.1102  0.0590
83990W        W84854  12.796   8.915   5.355  0.1157  0.1316  0.2338
83991W        W84855  13.926   9.047   6.490 -0.1658 -0.0801  0.0963
83992W        W84856  12.921   9.288   2.595 -0.1995  0.2195 -0.1472
83993W        W84857  14.195   8.927   4.936 -0.1490  0.1621 -0.2152
83994W        W84858  12.078   8.947   8.836 -0.2845 -0.1714  0.0136
83995W        W84859  11.828   8.467   4.366  0.0661 -0.0179 -0.0933
83996W        W84860  13.680   8.427   4.836  0.2308  0.0697  0.0948
83997W        W84861  10.452   6.716   5.245  0.1672  0.2413  0.0449
83998W        W84862  11.376   9.184   7.308  0.0796 -0.1109 -0.1459
83999W        W84863  13.664  10.405   9.915 -0.0210 -0.2045  0.0732
84000W        W84864  12.406   6.956   5.211  0.0027 -0.1020  0.3572
84001W        W84865  11.131   8.898   4.798  0.1723 -0.0933 -0.1524
84002W        W84866  13.826   9.298   8.961 -0.0542  0.1984  0.1849
84003W        W84867  14.421   6.794   2.589 -0.1234  0.2035 -0.2578
84004W        W84868  11.861   6.686   7.639  0.0005 -0.1415  0.0591
84005W        W84869  13.359  10.939   6.193 -0.2286 -0.1456 -0.0337
84006W        W84870  15.994   9.925   4.205 -0.0152  0.1526 -0.2471
84007W        W84871  12.151  11.684   3.503  0.1341  0.3667  0.0041
84008W        W84872  13.511   9.740   4.611 -0.0871 -0.0325  0.4948
84009W        W84873  14.768  11.078   4.501 -0.2622  0.1247  0.0287
84010W        W84874  10.235   6.967   8.077 -0.2300 -0.1435  0.0734
84011W        W84875  12.003   7.652   3.178 -0.1911 -0.0057 -0.5969
84012W        W84876  12.800  11.052   8.126 -0.0752 -0.0042  0.5050
84013W        W84877  13.714   9.496   1.891 -0.2218 -0.2810  0.1201
84014W        W84878  15.085  11.616   5.798  0.1680  0.1356  0.4180
84015W        W84879  11.765   7.173   6.229 -0.3658 -0.3089 -0.0781
84016W        W84880  12.437   7.174   4.045  0.2411 -0.0233 -0.2601
84017W        W84881  13.459  11.570   3.948 -0.1439  0.0415 -0.0133
84018W        W84882  13.569  10.165   6.980 -0.2357  0.1271  0.1490
84019W        W84883  13.891   8.554   6.680  0.1298 -0.2469 -0.2706
84020W        W84884  11.416  12.367   4.758  0.0619  0.1704 -0.0116
84021W        W84885  14.664  11.552   9.851 -0.3025  0.0231  0.1289
84022W        W84886   9.703   9.436   2.927  0.1353  0.2706  0.3307
84023W        W84887  14.246   6.754   7.296 -0.1430 -0.3328  0.0137
84024W        W84888  11.145   8.406   5.637  0.0663 -0.1008  0.0076
84025W        W84889  11.816   6.972   2.558  0.2268  0.0793  0.0859
84026W        W84890  10.138   9.953   4.587  0.2255 -0.1678  0.2308
84027W        W84891  13.707   9.682   6.852  0.0222 -0.0871 -0.0374
84028W        W84892  11.583  10.137   4.439  0.0238  0.0236  0.0547
84029W        W84893  10.980   7.586   3.428  0.0625  0.2083  0.3486
84030W        W84894  12.548   6.371   5.305  0.0399 -0.0088  0.1579
84031W        W84895  14.165   7.125   2.874 -0.0138 -0.0985  0.0138
84032W        W84896  16.951  10.457   7.321  0.0271 -0.0353  0.1924
84033W        W84897  15.680   8.150   0.363  0.0114  0.1141  0.0242
84034W        W84898  13.003   8.413   6.753 -0.2474 -0.3926  0.2024
84035W        W84899  14.356   4.895   3.212  0.1466  0.3108  0.0886
84036W        W84900  15.344   7.964   6.085 -0.3565 -0.0592 -0.2036
84037W        W84901  11.698   6.417   3.942  0.0458 -0.2353  0.0183
84038W        W84902  17.026   6.549   3.303  0.1250 -0.2845 -0.3316
84039W        W84903  13.865   7.612   5.008  0.0385 -0.1283 -0.0292
84040W        W84904   9.882   9.381   1.416 -0.1644 -0.0734 -0.4544
84041W        W84905  10.652  11.071   4.059  0.0695 -0.2751  0.2484
84042W        W84906  14.123   7.828   1.861 -0.1445 -0.1137  0.1193
84043W        W84907  14.653   6.428   5.153  0.2269 -0.0043 -0.2994
84044W        W84908  13.826  11.867   6.240  0.2908  0.1632 -0.2674
84045W        W84909  15.249   7.441   7.628 -0.2425 -0.3431  0.0330
84046W        W84910   9.528  11.653   3.963  0.1277  0.0563 -0.0272
84047W        W84911  11.649  10.431   3.599 -0.0145 -0.2093 -0.0688
84048W        W84912  14.690   8.644   7.085  0.1970  0.0518 -0.1435
84049W        W84913  14.255   9.544   7.534 -0.1782 -0.1775  0.2260
84050W        W84914  14.305   7.674   3.266 -0.0071  0.1949 -0.0426
84051W        W84915  14.705   7.915   1.167 -0.1182 -0.0691  0.1014
84052W        W84916  10.441   9.738   5.529 -0.0495  0.0926  0.3397
84053W        W84917  14.714  10.088   5.931  0.1053 -0.1610  0.0200
84054W        W84918  16.656   7.183   6.670 -0.1302 -0.0237 -0.1108
84055W        W84919  13.074   8.958   6.950  0.0035  0.0767  0.0956
84056W        W84920  11.910   8.417   3.629  0.0692 -0.2277 -0.0111
84057W        W84921  13.220   5.574   5.686 -0.0850  0.0401 -0.0746
84058W        W84922  14.268   9.360   5.755  0.3108 -0.2247 -0.0481
84059W        W84923  12.873   9.992   5.311 -0.3349 -0.1335  0.0595
84060W        W84924  12.394  10.949   5.269  0.0668 -0.4625 -0.1386
84061W        W84925  12.642   9.514   4.183 -0.0288  0.1475  0.0270
84062W        W84926  13.393   9.285   6.789  0.0031 -0.0917 -0.0270
84063W        W84927  12.280   5.867   3.457 -0.2125 -0.2300  0.1822
84064W        W84928  14.522   6.487   4.005 -0.2400 -0.0087 -0.2686
84065W        W84929  10.246   7.493   3.882 -0.1468  0.1837 -0.0271
84066W        W84930  10.702  12.005   4.063  0.0664 -0.1218  0.0776
84067W        W84931  15.347  11.185   5.787  0.1688  0.2232  0.0241
84068W        W84932  11.381   6.147  10.213 -0.2379 -0.0987 -0.0384
84069W        W84933  12.464   9.940   3.897 -0.0748 -0.0410  0.0391
84070W        W84934  12.053  10.079   4.760  0.0847  0.0852 -0.0469
84071W        W84935   9.527  11.028   5.427 -0.0612  0.2749 -0.1419
84072W        W84936  13.818   7.657   4.164 -0.0500 -0.3658  0.0657
84073W        W84937  11.868   9.989   5.688  0.1537  0.2511  0.0131
84074W        W84938  13.307   7.330   2.827 -0.0671 -0.0062  0.0421
84075W        W84939  10.579   6.931   3.106  0.2398 -0.0500  0.1128
84076W        W84940  12.685   7.106   5.626  0.1578 -0.1202  0.0112
84077W        W84941  12.430   6.356   2.564  0.0858 -0.2569 -0.0597
84078W        W84942  14.894  10.940   3.838  0.1215 -0.1006 -0.0781
84079W        W84943  13.403   7.545   4.379 -0.0016 -0.0796 -0.1405
84080W        W84944  14.042   9.771   5.554 -0.0347  0.3440  0.0740
84081W        W84945  14.067   8.937   6.011 -0.1780 -0.0569  0.0676
84082W        W84946  12.004   9.062   4.903  0.2562  0.0668  0.2235
84083W        W84947  13.993  11.110   2.722 -0.1535 -0.3117 -0.0975
84084W        W84948  14.998   8.240   4.787 -0.1289 -0.0691  0.1337
84085W        W84949  14.410   6.737   3.562  0.2115  0.1196 -0.0059
84086W        W84950  12.559  10.494   2.339  0.2434 -0.2631 -0.1751
84087W        W84951  14.026   7.640   7.474 -0.4409  0.0269 -0.2932
84088W        W84952  11.394   7.331   4.875 -0.0441  0.0862 -0.3725
84089W        W84953  11.621  12.876   2.585 -0.1439  0.0281 -0.3515
84090W        W84954  13.708   9.724   3.371 -0.1889 -0.2673 -0.2431
84091W        W84955  12.143   9.130   6.128 -0.1023 -0.3117  0.3393
84092W        W84956   8.120   8.642   3.134  0.0948  0.1476  0.4078
84093W        W84957  13.184   8.792   5.910 -0.2001  0.3854 -0.0268
84094W        W84958  12.670  11.863   4.418 -0.0375 -0.1648  0.1382
84095W        W84959  11.121   8.028   4.781  0.0059 -0.0349  0.1490
84096W        W84960  14.812  10.527   5.652 -0.1831 -0.1023  0.1656
84097W        W84961  15.088   9.430   4.090  0.1631 -0.0508 -0.2364
84098W        W84962  15.292  12.593   8.484  0.0171 -0.3222  0.0792
84099W        W84963  12.976  10.503   4.631 -0.2079 -0.2651 -0.0786
84100W        W84964  12.049  10.114   4.196 -0.1557 -0.0509 -0.0458
84101W        W84965  14.116   7.976   3.780  0.1051 -0.0579 -0.0289
84102W        W84966  11.549  10.299   6.019  0.0980 -0.2668 -0.2148
84103W        W84967  16.038   8.047   9.078 -0.3336  0.0998 -0.0572
84104W        W84968  12.042   9.480   9.101  0.2016 -0.2355 -0.1948
84105W        W84969  10.575   7.239   5.626  0.0003  0.1553  0.1475
84106W        W84970  10.940   9.673   4.513  0.0103 -0.0251  0.1279
84107W        W84971  16.401   8.981   7.257 -0.2190 -0.0920  0.1667
84108W        W84972  11.626  10.973   4.908  0.3242 -0.0638 -0.2262
84109W        W84973  13.522   4.391   1.858  0.1442  0.3563  0.1502
84110W        W84974  13.470  12.147   7.589  0.3085 -0.0030  0.1741
84111W        W84975  15.840  10.438   8.399  0.1134  0.2028 -0.1605
84112W        W84976  13.339  10.080   3.643 -0.3280  0.0282 -0.1955
84113W        W84977  14.330   8.400   5.433 -0.1319 -0.0189  0.0697
84114W        W84978  12.244  10.543   1.947  0.1563  0.0149  0.2460
84115W        W84979  14.544   7.305   2.437  0.0216  0.2749  0.2835
84116W        W84980  11.220  10.499   5.663 -0.1628  0.0082  0.0627
84117W        W84981  17.100   4.297   6.013  0.1158  0.0343  0.0564
84118W        W84982  14.505   9.124   3.032  0.0406  0.1483 -0.1000
84119W        W84983  13.209  10.076   6.214  0.0058 -0.1632  0.0014
84120W        W84984  14.158  10.213   2.324  0.3202  0.1197 -0.2137
84121W        W84985  13.266   7.837   6.995 -0.1867  0.0329  0.0899
84122W        W84986  12.897   8.788   6.374 -0.1276 -0.0046  0.1199
84123W        W84987  15.447  11.179   4.495  0.0940 -0.0314  0.2497
84124W        W84988  11.435  11.729   6.109 -0.1145  0.2958 -0.0276
84125W        W84989  12.969   8.353   5.790  0.0167  0.1237  0.0696
84126W        W84990  13.433   9.330   5.169  0.0367 -0.0536  0.0446
84127W        W84991  11.073  10.259   4.591  0.0689  0.2348  0.1652
84128W        W84992  10.458   6.298   4.932 -0.2241 -0.0562  0.0797
84129W        W84993  13.224  10.120   4.475  0.0333  0.0014 -0.2440
84130W        W84994   9.782  10.501   8.307 -0.0422 -0.1274 -0.1226
84131W        W84995  12.630  10.063   4.860 -0.0848 -0.0833  0.3680
84132W        W84996  12.304   9.040   7.503 -0.1545  0.0227  0.0108
84133W        W84997  11.178  11.769   6.894 -0.0611  0.3161  0.1132
84134W        W84998  11.406   7.182   5.365  0.0924  0.4153 -0.3069
84135W        W84999  13.248  12.764   6.277 -0.1344  0.0237  0.4688
84136W        W85000  11.182   8.709   9.129  0.1023 -0.3178 -0.3340
84137W        W85001   9.937   9.397   3.911  0.0234 -0.1042 -0.1061
84138W        W85002  14.485  10.157   3.277  0.1876  0.2762  0.2490
84139W        W85003  13.841  10.883   7.362 -0.1952  0.1399  0.0272
84140W        W85004  12.458   9.135   2.573  0.0147  0.0362 -0.0933
84141W        W85005  12.701  10.489   5.574  0.2083 -0.0688 -0.0540
84142W        W85006  12.210  10.709   5.666 -0.2452  0.2583 -0.1832
84143W        W85007  13.430   7.284   7.655  0.1745  0.0998 -0.2057
84144W        W85008  12.296  12.080   3.274 -0.0983 -0.2383 -0.0468
84145W        W85009   8.739   7.224   1.960 -0.1236 -0.1789 -0.0255
84146W        W85010  10.532  10.950   9.076  0.0667 -0.2006 -0.1680
84147W        W85011  11.020   8.831  10.067  0.0517  0.1195  0.2885
84148W        W85012  15.385  10.758   8.172  0.2187  0.0943  0.1200
84149W        W85013  16.511  10.511  10.193  0.0923 -0.1843 -0.2470
84150W        W85014  10.838  12.326   5.831  0.0928 -0.0556 -0.0692
84151W        W85015  12.933   6.557   7.946 -0.0016 -0.0518 -0.0875
84152W        W85016  11.348   9.058   6.752 -0.2000 -0.0362  0.3384
84153W        W85017  14.210   9.962   7.897  0.0120 -0.1006 -0.2272
84154W        W85018  12.542   9.470  13.840  0.4165 -0.1344  0.3101
84155W        W85019   9.501   6.702  10.859  0.0614  0.0668  0.2003
84156W        W85020  14.610   6.134  12.197  0.1670 -0.0482  0.0118
84157W        W85021  13.735   9.206   9.528  0.3948  0.0322  0.0969
84158W        W85022  15.057   8.103   7.412 -0.4218  0.0042 -0.1626
84159W        W85023  15.208   8.712  12.456  0.1624  0.2377  0.2015
84160W        W85024  10.252   6.898  10.218  0.1270 -0.4373 -0.1830
84161W        W85025  12.248   9.909  11.919 -0.0004  0.0987 -0.0429
84162W        W85026  12.393   7.750   6.900  0.1669 -0.1027 -0.3578
84163W        W85027  11.798  11.635   9.582  0.0036 -0.2496 -0.0856
84164W        W85028   9.199   7.299   9.611  0.3164  0.1361  0.2972
84165W        W85029  15.266   9.128   8.471  0.1001 -0.0622 -0.0820
84166W        W85030  14.511  10.206   8.333  0.1041 -0.1793 -0.2605
84167W        W85031  15.754   9.936   9.906 -0.1310 -0.3868  0.3713
84168W        W85032  13.140  10.149  13.576  0.1727 -0.1428  0.1127
84169W        W85033  11.768  10.184  11.630  0.0186  0.1368 -0.3498
84170W        W85034  10.160  12.271  11.003  0.2173  0.0655 -0.0599
84171W        W85035  14.826   9.674   7.646 -0.0669  0.0890 -0.2025
84172W        W85036  12.406   9.204  11.655  0.2343  0.0154  0.1267
84173W        W85037  12.883   9.223   8.577  0.2718  0.3386 -0.3477
84174W        W85038  13.122   7.355  11.857 -0.0946 -0.0128  0.2722
84175W        W85039  12.443   8.667   9.117 -0.0662  0.0654 -0.2017
84176W        W85040  12.504   9.677   9.268  0.0151 -0.0056 -0.2598
84177W        W85041  14.086   8.897  12.196 -0.1012 -0.0744 -0.0237
84178W        W85042  13.412   9.624   9.493 -0.5408 -0.2348 -0.0818
84179W        W85043  10.777   6.785  10.697 -0.2244 -0.0344  0.0145
84180W        W85044  10.964   6.980  11.252  0.2825 -0.0263 -0.1887
84181W        W85045  13.545   8.723  11.938 -0.2843 -0.2937  0.0710
84182W        W85046  11.699   9.378   8.671  0.0256 -0.2224 -0.0962
84183W        W85047  12.547  13.148  11.634  0.0911  0.1678 -0.0482
84184W        W85048  14.468   9.210   5.240  0.1321 -0.0075  0.0224
84185W        W85049  13.659   9.086  12.270  0.1060  0.3297 -0.1274
84186W        W85050  13.708   8.620   6.197 -0.1469 -0.2388 -0.1131
84187W        W85051  13.734   8.534  10.039  0.2244 -0.0379 -0.1572
84188W        W85052  12.067   9.458  12.036 -0.0718 -0.2550  0.0021
84189W        W85053  12.895  10.358   8.814 -0.0271 -0.0573 -0.2877
84190W        W85054  11.891   8.084   3.979  0.2248  0.0839  0.2328
84191W        W85055  13.346   9.942   9.925  0.3713 -0.2925 -0.0282
84192W        W85056  13.471   6.344  10.181  0.0945 -0.0932 -0.3264
84193W        W85057  14.988   8.148  11.221 -0.0013  0.0504  0.1715
84194W        W85058  13.453   8.041   9.662 -0.0811  0.0397 -0.0453
84195W        W85059  12.372   8.543   9.604  0.1831 -0.2085 -0.0693
84196W        W85060  12.875   9.596   9.808 -0.0940 -0.0870  0.1749
84197W        W85061  12.098   9.549  10.660  0.1224  0.1146  0.0848
84198W        W85062  13.006   7.761   9.334 -0.0176  0.1722 -0.0151
84199W        W85063  14.528   8.872  12.051 -0.0274 -0.0689  0.1750
84200W        W85064  14.005   5.812   6.198  0.0892 -0.1377 -0.0883
84201W        W85065  10.096   9.605   8.205 -0.0581 -0.1339  0.2783
84202W        W85066  12.106  10.644   9.957  0.0654 -0.1305 -0.1378
84203W        W85067  12.524   8.934   8.327 -0.0421 -0.2177 -0.1229
84204W        W85068   9.595   9.168   7.330 -0.0031  0.3339  0.1056
84205W        W85069  12.019  11.221  10.287 -0.1644  0.1044 -0.0223
84206W        W85070  16.678   7.848   7.883 -0.1240  0.1403 -0.0432
84207W        W85071  12.336  10.928   9.601  0.1548  0.0046  0.2096
84208W        W85072  13.749  10.837   8.421 -0.2057  0.0134  0.0510
84209W        W85073  11.965  10.113   9.824 -0.0638  0.0740 -0.4021
84210W        W85074  12.656   6.121  11.186 -0.0181 -0.1589  0.1719
84211W        W85075  13.477   8.931  10.051  0.1181 -0.1102  0.0992
84212W        W85076  13.739  10.313   8.429  0.0969  0.0721  0.1052
84213W        W85077   9.212   9.291   6.998 -0.1629  0.2967  0.0913
84214W        W85078  12.534   9.155   8.958 -0.1170  0.0447 -0.0381
84215W        W85079  13.283   9.951   8.626 -0.3007  0.0903  0.1608
84216W        W85080  15.491   9.394  11.191 -0.2477 -0.0767 -0.1167
84217W        W85081  13.630   7.576   6.519  0.1483  0.1023  0.0415
84218W        W85082  12.810  10.647   9.323  0.0383 -0.4296 -0.1992
84219W        W85083  13.549   8.836  11.444  0.0503 -0.0843 -0.0603
84220W        W85084  14.460   9.507   9.034 -0.1035  0.2634  0.2957
84221W        W85085  11.297   8.044  10.160 -0.0486 -0.0066  0.2197
84222W        W85086  12.057   9.888  10.266 -0.3025  0.1321  0.3852
84223W        W85087  10.682   9.850   7.260  0.2953  0.1660 -0.0422
84224W        W85088  13.406   9.146   7.293  0.2702  0.0341  0.0071
84225W        W85089  13.634   9.777   9.037 -0.0187 -0.0022 -0.0826
84226W        W85090  11.257   8.787   7.680 -0.4124 -0.1816 -0.2462
84227W        W85091  11.169   6.503   9.924 -0.1655  0.0002  0.2857
84228W        W85092  11.323   9.135   9.410  0.0198  0.1559 -0.2373
84229W        W85093  14.043   7.871   6.666 -0.1299 -0.0750 -0.2222
84230W        W85094  13.663   6.204   9.107 -0.1272  0.1390  0.0967
84231W        W85095  14.468   9.740   8.549 -0.1465  0.0414 -0.2906
84232W        W85096  15.016  10.056  12.524 -0.1838 -0.0632 -0.0264
84233W        W85097  13.421  10.600  11.471  0.2934  0.3706 -0.0469
84234W        W85098  15.463   6.687   9.243 -0.1532  0.0581  0.0293
84235W        W85099  12.873   6.985  11.089  0.0064  0.0846  0.1489
84236W        W85100  11.250   6.337   9.357  0.2360 -0.2861 -0.1610
84237W        W85101  13.653   9.293  10.943 -0.1482  0.0658 -0.1594
84238W        W85102  14.442  10.372   7.038 -0.3338  0.0647  0.0521
84239W        W85103  13.833   8.451   5.371 -0.3209 -0.1361 -0.2029
84240W        W85104  10.601   7.193  10.434  0.2485  0.1473 -0.2750
84241W        W85105  13.840   8.876   8.701 -0.1292  0.1294 -0.1706
84242W        W85106  15.266   8.849   8.876  0.3149 -0.3945 -0.3785
84243W        W85107  12.828   8.937  10.979 -0.0553 -0.0210  0.1883
84244W        W85108  10.570   7.549   9.569  0.0346 -0.1820 -0.0401
84245W        W85109  14.725   6.116  11.159  0.0815 -0.1933 -0.0577
84246W        W85110  14.634  10.486   9.400  0.0353 -0.0656  0.0945
84247W        W85111  11.084  11.557   8.399  0.0162 -0.1852 -0.0607
84248W        W85112  12.440   7.707   9.200  0.1464 -0.0732  0.0999
84249W        W85113  14.643  10.410  10.783 -0.0584 -0.0523 -0.2291
84250W        W85114  12.574   8.626  11.700 -0.1497 -0.0088 -0.1173
84251W        W85115  12.582  10.012  15.132  0.1415 -0.1082  0.3135
84252W        W85116  14.711   9.222   9.917 -0.1705  0.1695  0.2394
84253W        W85117  12.747   9.935  11.322  0.0518 -0.0227 -0.3115
84254W        W85118  11.790   8.160   9.735  0.0987 -0.2508 -0.2948
84255W        W85119  11.924   6.761  14.314 -0.1159 -0.0880  0.3797
84256W        W85120  12.388  10.407   9.599 -0.2261 -0.4170  0.3037
84257W        W85121  12.453  11.575  10.235  0.0192  0.2071 -0.0881
84258W        W85122  13.413   8.652  10.415  0.1437 -0.0298  0.1418
84259W        W85123   9.855  13.499   9.206  0.1250 -0.1929 -0.2486
84260W        W85124  14.390   9.496   8.085 -0.0031  0.1892  0.0568
84261W        W85125  12.263   8.966   9.859 -0.0094 -0.0844 -0.1697
84262W        W85126  15.643   5.896  11.315 -0.0366 -0.2893  0.1267
84263W        W85127  11.570   9.440  11.313 -0.0495  0.0524 -0.3085
84264W        W85128  11.799   7.962  10.257 -0.0525 -0.2150 -0.0364
84265W        W85129  13.375   8.255   5.236 -0.0713  0.1191  0.1434
84266W        W85130  11.681   8.052   9.058  0.2701 -0.3315  0.0346
84267W        W85131  13.310   9.506   7.687  0.2353 -0.1526 -0.1621
84268W        W85132  15.925   8.988  11.085 -0.0178 -0.3911  0.0229
84269W        W85133  14.033   8.466   5.825 -0.1650 -0.1679  0.2306
84270W        W85134  13.714   9.656  12.972  0.1201  0.0171  0.0967
84271W        W85135  15.457  10.368   6.842  0.1514  0.0884 -0.3342
84272W        W85136  11.110   8.459  10.393 -0.0239 -0.1308 -0.1583
84273W        W85137  14.400   8.344  11.455 -0.1326 -0.1574  0.1370
84274W        W85138  15.386  12.752  12.186 -0.3176  0.3272  0.3793
84275W        W85139  12.018  11.893  10.344  0.0188 -0.0046  0.0311
84276W        W85140  12.958  12.501  11.037 -0.0473  0.1214 -0.0694
84277W        W85141  11.953   8.032  11.278 -0.0038  0.1064  0.0078
84278W        W85142  11.815  10.373   8.052 -0.1980  0.1462  0.0839
84279W        W85143  12.852   8.219   7.922  0.1297 -0.0800  0.3676
84280W        W85144  13.129   7.365   9.673 -0.1002  0.0466 -0.0592
84281W        W85145  13.889   8.827   9.189 -0.2356 -0.1225  0.3735
84282W        W85146  13.651   9.157  10.439 -0.0442  0.2297 -0.2243
84283W        W85147  14.799   8.168  14.234  0.2008 -0.0166 -0.1511
84284W        W85148  15.199   9.395   6.729  0.1682  0.0628 -0.2646
84285W        W85149  12.939  10.881  10.262 -0.2347  0.2801 -0.1083
84286W        W85150  11.896   8.691   9.701  0.1102 -0.2485 -0.2354
84287W        W85151  10.163   8.698   8.540 -0.1513  0.2011  0.0513
84288W        W85152  12.342  11.646   7.473 -0.1449 -0.0830 -0.1689
84289W        W85153  11.415   7.621   9.046  0.3158 -0.1566  0.3459
84290W        W85154  13.405  10.848  10.339 -0.2308 -0.1315 -0.0017
84291W        W85155  12.746   6.427   7.045 -0.2111  0.1548 -0.2172
84292W        W85156  12.392   6.093  10.341  0.0018 -0.2104 -0.0840
84293W        W85157  12.819  11.418   9.788  0.0566  0.0433  0.0984
84294W        W85158  13.277   8.351  10.086 -0.1564 -0.0294 -0.0897
84295W        W85159  12.243   8.636  12.400 -0.2265 -0.1826  0.1110
84296W        W85160  13.722  10.450  10.972 -0.0333  0.2276  0.0667
84297W        W85161  12.141   8.546   7.588 -0.0711  0.1943  0.1197
84298W        W85162  14.610  10.664   8.896  0.0552 -0.0204  0.2976
84299W        W85163  12.408   8.832  10.371  0.2127  0.2288 -0.1265
84300W        W85164  12.664   8.370  11.295 -0.1541  0.0267  0.4062
84301W        W85165  14.493   7.662   8.971  0.0773  0.1899 -0.0938
84302W        W85166  13.063   8.628   9.715 -0.0942  0.0728  0.1398
84303W        W85167  14.556   6.201   4.427  0.0977  0.1780 -0.2138
84304W        W85168  10.562   6.071   9.765 -0.0233 -0.3844  0.0554
84305W        W85169  14.112   7.330   6.698 -0.0147 -0.2075  0.1479
84306W        W85170  14.513   7.163  10.857 -0.0301 -0.0642 -0.0545
84307W        W85171  14.205  13.693  11.371  0.0220 -0.2097 -0.1528
84308W        W85172  12.874   8.095   9.668 -0.2272  0.3556  0.3347
84309W        W85173  14.656   7.835  12.111 -0.2880 -0.2406  0.0561
84310W        W85174  14.045   9.102  13.025  0.2181 -0.2208 -0.0048
84311W        W85175  13.370   7.180  10.968  0.2263 -0.1258 -0.0965
84312W        W85176  11.473   8.231  11.131 -0.0043  0.0161  0.1031
84313W        W85177   9.900  11.589   9.091  0.0342 -0.0731 -0.2001
84314W        W85178  13.340   9.587  10.646  0.0675  0.1270  0.1192
84315W        W85179  13.339   9.561   6.310 -0.1452  0.2233 -0.0387
84316W        W85180  16.296   9.886  10.853 -0.0383  0.1806  0.0575
84317W        W85181  14.883  10.301   8.694 -0.3050 -0.0805  0.0392
84318W        W85182  13.090  11.208   7.626 -0.2596 -0.1250 -0.2143
84319W        W85183  13.539   9.128   6.151  0.0856  0.1996 -0.0967
84320W        W85184  13.452   6.876   9.951  0.0960  0.1373  0.2437
84321W        W85185  16.109   9.342   7.198  0.0501 -0.1504  0.0511
84322W        W85186  10.250   9.397  11.668 -0.1404  0.2370  0.1729
84323W        W85187  13.853  11.312   8.641 -0.0116 -0.2502  0.2339
84324W        W85188   9.849   9.791  10.547 -0.1462  0.1571 -0.1629
84325W        W85189  12.690   7.181  11.516 -0.3605  0.5203  0.1119
84326W        W85190  12.645  10.694   7.376 -0.0200 -0.1370  0.1849
84327W        W85191  14.471  12.134   8.404  0.0300 -0.1736 -0.2079
84328W        W85192  13.376   8.468   7.932 -0.0887  0.1229 -0.0303
84329W        W85193  12.830  12.177  11.887 -0.1018 -0.0397  0.0831
84330W        W85194  12.207   8.837   7.027  0.1121 -0.1399 -0.0869
84331W        W85195  12.794   7.095   6.891  0.0362  0.0390  0.0639
84332W        W85196  12.302   5.964   7.820  0.0149 -0.0576  0.0209
84333W        W85197  13.201   6.351   6.409  0.3415  0.0361 -0.2307
84334W        W85198  13.909  11.258  11.644  0.0125  0.0467 -0.2598
84335W        W85199  13.836   8.688   8.029  0.1485  0.3538  0.0669
84336W        W85200  15.432  10.764   6.330  0.0313  0.0681  0.1047
84337W        W85201  10.925  10.824   5.371 -0.0460 -0.0905 -0.0074
84338W        W85202  12.350   8.813  11.250  0.1772 -0.0948 -0.0803
84339W        W85203  12.693   7.510  14.574  0.3205 -0.0293  0.1022
84340W        W85204  13.523   6.872   9.099 -0.3087 -0.1797  0.0839
84341W        W85205  11.874   6.542   6.926 -0.0912  0.0548  0.4340
84342W        W85206  15.545   6.311   3.590  0.1629  0.1510 -0.0977
84343W        W85207  10.053   6.481   7.456 -0.0636 -0.3127 -0.1127
84344W        W85208  12.905   8.866   9.258  0.0147 -0.2479  0.0975
84345W        W85209  13.687   7.386  10.670 -0.3202  0.1088  0.2085
84346W        W85210  11.080   7.013   7.326 -0.0232  0.1070 -0.3154
84347W        W85211  14.432   5.950   8.021  0.2113  0.0990 -0.1434
84348W        W85212  14.341   8.930   6.852  0.0513 -0.0808  0.1661
84349W        W85213  12.907   9.569  11.707 -0.0400 -0.1151  0.0960
84350W        W85214  16.758   9.425  10.381 -0.1063 -0.0417 -0.0201
84351W        W85215   9.951   8.853   5.723 -0.0533 -0.0919  0.1786
84352W        W85216  13.680  10.135   9.458  0.0819 -0.3108 -0.1603
84353W        W85217  12.317   8.526   8.659 -0.3358 -0.0975 -0.0674
84354W        W85218  13.403  11.739   7.963 -0.1644  0.1803 -0.1616
84355W        W85219  13.625  10.426   7.420  0.2319  0.1138 -0.1922
84356W        W85220  12.875  11.351  10.496  0.1637 -0.0675 -0.1576
84357W        W85221  11.718  11.568  10.073  0.0958  0.0559  0.1063
84358W        W85222  10.363   9.707   9.638  0.0340 -0.1743 -0.2201
84359W        W85223  13.456   6.865  14.667 -0.4030  0.1652 -0.0831
84360W        W85224  14.914   9.112  12.299  0.2927 -0.1653  0.1286
84361W        W85225  13.723  10.415   7.906 -0.0765  0.1326 -0.2977
84362W        W85226  11.994   8.459  10.531 -0.1267  0.3950  0.0482
84363W        W85227  12.364  11.144   7.350 -0.0144 -0.0458 -0.2492
84364W        W85228  13.664  10.895   8.961 -0.0864  0.1091  0.0808
84365W        W85229  10.829   8.753  11.426 -0.1309 -0.5191  0.0989
84366W        W85230  15.178  10.694  12.621 -0.0201  0.1461  0.1183
84367W        W85231  13.471   7.081   8.137 -0.1533 -0.1199 -0.0506
84368W        W85232  13.093   9.402  12.809  0.0557  0.3002  0.4369
84369W        W85233  12.762   8.045   6.995 -0.0439 -0.0745 -0.2971
84370W        W85234  13.132   8.739   7.518  0.2825 -0.1278  0.3136
84371W        W85235  11.266   8.404  13.115  0.0322 -0.1318  0.0217
84372W        W85236  13.899  10.773  10.135 -0.1115 -0.0222  0.1421
84373W        W85237  12.246   4.442   8.864  0.0449 -0.0904 -0.0697
84374W        W85238  14.336   9.762  11.918 -0.1020  0.0279  0.1656
84375W        W85239  14.062   8.801  11.699 -0.1913  0.0450 -0.3418
84376W        W85240   9.629   8.132  10.015  0.2988 -0.0964 -0.1319
84377W        W85241  11.148   9.646  11.799  0.1416  0.2761  0.2663
84378W        W85242  13.268   9.475   8.859  0.0964  0.0806  0.3501
84379W        W85243  14.634  11.193   8.540 -0.1889  0.1035  0.1524
84380W        W85244  12.396   9.700  12.997  0.2722  0.1228  0.1049
84381W        W85245  11.960   8.062   8.410 -0.1298  0.1585  0.1038
84382W        W85246  16.229   5.717   8.562  0.3722 -0.1925  0.0636
84383W        W85247  11.797   7.265   8.560  0.3440  0.3322  0.0665
84384W        W85248  14.520  10.168   8.952 -0.1337 -0.0103  0.0888
84385W        W85249  15.418  11.908  10.239 -0.1464 -0.2151 -0.2947
84386W        W85250  13.974  11.586   9.798  0.0457  0.5423  0.1821
84387W        W85251  12.212  13.430  11.378  0.1340 -0.0751 -0.0827
84388W        W85252   8.891   6.696   7.999  0.0853  0.1850  0.0135
84389W        W85253  10.894   8.290   9.390  0.0116  0.1678 -0.2548
84390W        W85254  12.083   8.453  11.039 -0.1460  0.1602 -0.1110
84391W        W85255  13.492   8.234   6.655  0.1767  0.0103 -0.2418
84392W        W85256  12.288   8.042   9.596  0.1423  0.0366  0.1875
84393W        W85257  10.223   9.904  11.727  0.0094  0.0636 -0.0649
84394W        W85258  14.674  11.310  10.532  0.1518 -0.0465 -0.2252
84395W        W85259  11.906   9.194   7.257  0.1205  0.0373  0.1958
84396W        W85260  11.583   7.736   8.599 -0.0504 -0.0373 -0.0579
84397W        W85261  15.864   8.634  10.747 -0.2987  0.0165 -0.1805
84398W        W85262  14.709   9.986  11.187 -0.0053 -0.2376  0.0137
84399W        W85263  13.604   7.494   9.824  0.2403 -0.1015  0.0783
84400W        W85264  12.592   8.672   7.793  0.0944  0.0811 -0.1997
84401W        W85265  14.504   6.955   6.498  0.0500  0.1228 -0.2606
84402W        W85266  15.509   7.547   8.122 -0.0478 -0.0133 -0.2355
84403W        W85267  11.890   7.757   9.426  0.0231  0.1538 -0.0638
84404W        W85268  15.069  10.635   9.120  0.0626  0.4587 -0.0054
84405W        W85269  12.803   9.944   7.400 -0.1581  0.0297 -0.2347
84406W        W85270   9.954   6.680  11.061 -0.1356 -0.0593 -0.1249
84407W        W85271  13.675  10.414  10.435  0.0162  0.2083  0.1623
84408W        W85272  13.956  10.471  11.428  0.2990  0.2365  0.0921
84409W        W85273  11.028   6.826   8.538  0.1214  0.0665 -0.0775
84410W        W85274  12.824   7.321   6.138 -0.2290  0.1239  0.3102
84411W        W85275  11.034  10.686  10.737 -0.0379 -0.2865  0.1620
84412W        W85276  13.448   8.802   6.575  0.0250  0.0976  0.0986
84413W        W85277  14.699   8.887  10.381 -0.0593  0.0264 -0.2188
84414W        W85278  11.430   9.867  11.359  0.1694  0.1459  0.1660
84415W        W85279  15.989   8.800   7.548 -0.4517  0.0408  0.0130
84416W        W85280  15.114   8.753   7.527 -0.0455  0.3047 -0.1509
84417W        W85281  12.805  10.354  10.465  0.2271 -0.0599  0.0998
84418W        W85282  10.587   9.039  10.198  0.2060  0.4094 -0.0705
84419W        W85283  13.004   9.211   7.990  0.1349 -0.0210 -0.1417
84420W        W85284  14.096  12.813  10.212 -0.2629  0.0822 -0.1707
84421W        W85285  13.010   7.056  12.247 -0.1082 -0.1246 -0.2152
84422W        W85286  13.034   6.303   7.484  0.2152  0.0942  0.1827
84423W        W85287  11.804   7.153  11.291 -0.0429 -0.0487  0.3099
84424W        W85288  14.095   7.092   4.868 -0.2695  0.1948  0.1579
84425W        W85289  12.163  10.407   9.027 -0.0196 -0.1680 -0.1609
84426W        W85290  11.676   9.339  10.512 -0.0603 -0.2633  0.0371
84427W        W85291  12.328   6.299   9.438 -0.3244 -0.1578  0.2061
84428W        W85292  12.538   7.551   5.778 -0.0714  0.0575 -0.2901
84429W        W85293  11.148  11.978   9.845  0.2034  0.0131  0.0110
84430W        W85294  15.593   9.299   8.072 -0.1526  0.2652  0.0937
84431W        W85295  13.287   5.601  12.425  0.1581  0.1971  0.2156
84432W        W85296  11.409  11.377  11.026 -0.3071  0.0863  0.1642
84433W        W85297  10.942  10.035  11.398 -0.1131  0.2218 -0.2955
84434W        W85298  13.730   7.675   7.884  0.1148 -0.5201  0.3456
84435W        W85299  14.317   8.640   6.441  0.0362  0.1400  0.0041
84436W        W85300  11.738   8.339   7.878  0.1549  0.2031  0.1912
84437W        W85301  12.944   9.614   4.578 -0.1182  0.0450  0.1280
84438W        W85302  12.686   7.305  13.221  0.3210 -0.2014 -0.2957
84439W        W85303  11.670  10.488  12.025 -0.1579 -0.0140 -0.2552
84440W        W85304  11.273   9.209  12.530  0.1289 -0.0193  0.1438
84441W        W85305  12.948   7.979  11.252 -0.4663 -0.0455 -0.1015
84442W        W85306  13.912   6.745  11.399 -0.2389  0.1950  0.0449
84443W        W85307  12.642   8.214   7.450 -0.0268  0.1673  0.3409
84444W        W85308  15.876   6.267   8.115 -0.0200  0.0013 -0.0283
84445W        W85309   9.548   9.346   8.633  0.0100 -0.0792  0.1509
84446W        W85310  13.258   8.341   6.216 -0.2245  0.3627 -0.1612
84447W        W85311  10.498   7.638  10.147 -0.0135 -0.1814  0.2463
84448W        W85312  11.043   9.733  13.136 -0.1453  0.1900 -0.3777
84449W        W85313  14.312   7.369   9.896 -0.0622 -0.1116 -0.0307
84450W        W85314  14.986  11.524   8.257  0.0868  0.1142  0.2373
84451W        W85315  14.213  10.478   9.708  0.1455  0.1987  0.0263
84452W        W85316  13.339   7.622  12.273  0.0921 -0.0055  0.0688
84453W        W85317  11.088   6.682   6.917 -0.0215 -0.2957  0.3612
84454W        W85318  12.321   7.343   7.725  0.1493 -0.2119  0.0445
84455W        W85319  14.058   8.739   9.686  0.1462  0.3363 -0.0226
84456W        W85320  11.348   7.486   7.800  0.0427  0.2258 -0.0204
84457W        W85321  11.741  10.026  12.079  0.2688  0.3227  0.0557
84458W        W85322  13.250   6.474   9.208  0.1018 -0.3435  0.0655
84459W        W85323  13.788   9.494   7.342 -0.0922 -0.1110 -0.0321
84460W        W85324  12.508   9.786  10.424  0.1084 -0.2027  0.2047
84461W        W85325  11.959  13.138  10.934  0.1398  0.3643 -0.1196
84462W        W85326  12.069   9.364   8.204  0.1014 -0.0688 -0.1851
84463W        W85327  13.357   5.904   9.410 -0.0116  0.1163 -0.1011
84464W        W85328  13.707  10.820  12.859  0.0084  0.1412  0.1271
84465W        W85329  13.165   9.075  10.497 -0.1840  0.1948  0.1314
84466W        W85330  11.622  10.942  10.121  0.2636 -0.0710  0.2907
84467W        W85331  13.010   7.949   6.576 -0.0965  0.0403  0.1585
84468W        W85332  10.839   8.454   7.776 -0.0680  0.1189  0.0733
84469W        W85333  14.558  13.248  11.891 -0.1085  0.0313 -0.2957
84470W        W85334  11.090   8.422   9.855 -0.2061 -0.0211 -0.1181
84471W        W85335  13.073  11.361  12.188 -0.1847  0.0361 -0.2322
84472W        W85336  12.340   7.509   8.651 -0.3467 -0.0068 -0.4679
84473W        W85337  11.903   8.696   8.339 -0.3236 -0.0333 -0.0874
84474W        W85338  13.827   6.614   7.776  0.3033  0.2193 -0.1398
84475W        W85339  13.143  11.793   9.752 -0.5812  0.1682  0.0353
84476W        W85340  13.904   7.639   8.744  0.1665  0.1206  0.0089
84477W        W85341  14.125   8.018   4.849 -0.1685 -0.0559  0.1829
84478W        W85342  13.346  10.880  10.860 -0.2320  0.0466  0.2089
84479W        W85343  14.373  10.227  11.699  0.2628 -0.2776  0.0109
84480W        W85344  14.164  10.558   9.147 -0.1894  0.2853  0.0654
84481W        W85345  14.699  10.947   9.590  0.1230  0.1612 -0.0300
84482W        W85346  12.309  12.289   9.563  0.1011 -0.1413  0.0786
84483W        W85347  14.180  11.161  10.806 -0.2998  0.0954  0.1112
84484W        W85348  12.266   9.508   8.651 -0.1077  0.1486  0.1075
84485W        W85349  12.671   7.171   9.346  0.3648  0.2121  0.1756
84486W        W85350  12.439  10.059   8.722 -0.1020  0.3334  0.1228
84487W        W85351  11.295   4.277  11.878 -0.0700 -0.3341  0.1227
84488W        W85352  10.869   8.681  12.364 -0.3343 -0.0655  0.2399
84489W        W85353  11.747  10.826   8.427  0.0371  0.2873 -0.2384
84490W        W85354  12.256  10.588  11.371  0.0406 -0.2156 -0.3426
84491W        W85355  13.260   9.291  11.328  0.0790  0.1597  0.1235
84492W        W85356  12.150   8.923   7.974  0.0704  0.3625 -0.2277
84493W        W85357  11.331   9.399   8.971 -0.0649  0.1056 -0.1172
84494W        W85358  13.522   8.704   9.588  0.1160 -0.2120  0.1457
84495W        W85359  10.100   7.537   8.311 -0.3195  0.2386  0.1464
84496W        W85360  13.883  12.831  12.156 -0.3165  0.2192 -0.1344
84497W        W85361  14.270   9.873   6.055 -0.0847 -0.0935  0.1744
84498W        W85362  15.396   7.727  10.421  0.0815 -0.0305 -0.1235
84499W        W85363  14.694   9.571   6.177 -0.2915  0.0476  0.2988
84500W        W85364  13.408   8.959   9.165 -0.1946  0.1336  0.0299
84501W        W85365  15.182   8.702   8.120 -0.2485 -0.1034  0.1987
84502W        W85366  11.683  12.031   9.906  0.1561  0.0865 -0.1255
84503W        W85367  14.029   9.983   9.805 -0.2342  0.3840  0.3281
84504W        W85368  10.134   6.640   8.997  0.0703  0.3595  0.1226
84505W        W85369  10.742   9.105  12.576  0.0029  0.3189  0.0800
84506W        W85370  14.225   8.566   7.631  0.1094  0.0360  0.3511
84507W        W85371  16.220   9.421  10.489 -0.1001  0.1274 -0.1260
84508W        W85372  10.660  11.218  11.081 -0.2655 -0.1510  0.0835
84509W        W85373  14.840   9.321   8.079 -0.2293  0.0557  0.4799
84510W        W85374  13.860   9.534   7.933  0.0796 -0.0979  0.0735
84511W        W85375  15.138  10.771  11.662  0.0538  0.2614  0.0312
84512W        W85376  14.071   8.734  10.389  0.1920  0.1787 -0.0953
84513W        W85377  12.426  10.216  10.126 -0.0492 -0.1814 -0.1310
84514W        W85378  12.803   7.291   7.526 -0.1587 -0.2196 -0.1467
84515W        W85379  13.179   8.381   9.321  0.0280  0.0756 -0.0930
84516W        W85380  13.482   7.649   5.766 -0.3884  0.2617  0.0128
84517W        W85381  13.240   5.610  11.428  0.3026  0.3350 -0.1344
84518W        W85382  13.556   7.966   6.153  0.0470 -0.0237 -0.1444
84519W        W85383  15.726   6.464  12.115 -0.0154 -0.1873  0.2594
84520W        W85384  13.680   9.488   5.664  0.1559  0.0760  0.0055
84521W        W85385  13.241  10.437  10.702  0.0028 -0.0181 -0.1341
84522W        W85386  11.958   7.095   8.079 -0.3529  0.3999  0.1144
84523W        W85387  16.058   8.843  11.611  0.1734 -0.2343 -0.0543
84524W        W85388  13.545   9.600  12.435  0.2485  0.0656 -0.1224
84525W        W85389  11.851   6.755   9.466  0.1429  0.1906 -0.1710
84526W        W85390  11.799  10.351  12.529 -0.1814  0.1124  0.3900
84527W        W85391  12.807   9.089   7.522  0.1415  0.1890 -0.3155
84528W        W85392  10.166  10.235   5.999  0.2635 -0.2365 -0.1882
84529W        W85393  16.918  10.934  10.206 -0.1590 -0.1991  0.1393
84530W        W85394  17.202  10.380  10.484  0.4052  0.0778  0.1493
84531W        W85395  13.216   8.170   8.326  0.0226 -0.0708  0.0918
84532W        W85396  12.574  12.587   9.858  0.0282 -0.0100  0.0272
84533W        W85397  16.155   9.640  10.053  0.2625 -0.1110 -0.1240
84534W        W85398  12.069  12.069   8.828 -0.4964 -0.0817  0.2385
84535W        W85399  13.008   9.722  13.886 -0.1550 -0.1229  0.2375
84536W        W85400  12.177  10.421  11.862 -0.0430  0.0343 -0.0892
84537W        W85401  12.864   9.762   8.834  0.1821 -0.0231  0.3213
84538W        W85402  16.706   9.480   9.116  0.1931 -0.0871 -0.0691
84539W        W85403  16.452  11.053  10.136 -0.2394 -0.0807 -0.0804
84540W        W85404  10.054  10.620  11.337 -0.0993 -0.0428 -0.4019
84541W        W85405  11.576   8.649  10.871  0.0264  0.3845 -0.1023
84542W        W85406  12.464  10.668   6.081  0.3253  0.0073  0.0041
84543W        W85407  11.680  10.587  11.435 -0.0401  0.2717  0.4892
84544W        W85408  13.126  10.885   6.677 -0.1489  0.0293  0.1111
84545W        W85409  10.964   9.343   6.573 -0.3006  0.2452 -0.0323
84546W        W85410  10.881  10.440  12.625  0.1929 -0.4192  0.0534
84547W        W85411  11.346   8.694  15.067 -0.0497 -0.0843 -0.2216
84548W        W85412  16.667   8.304  14.237  0.2599  0.5015  0.1689
84549W        W85413  13.142  10.280  11.179 -0.0595  0.0195 -0.2296
84550W        W85414  12.518  11.108  10.020 -0.1530 -0.1477  0.1029
84551W        W85415  12.105   9.502  14.172 -0.1456 -0.0913  0.0080
84552W        W85416  10.492   7.343  15.806 -0.0573 -0.1056 -0.0733
84553W        W85417  15.579  10.614  12.978  0.1455  0.2991 -0.2990
84554W        W85418  12.955   9.050  14.305  0.0294  0.1281  0.1565
84555W        W85419  11.633   6.706  13.382  0.1119 -0.0197  0.1591
84556W        W85420  14.185   8.007  13.108 -0.1671  0.2045 -0.0124
84557W        W85421  14.773   6.461  12.587 -0.0313  0.0952 -0.2711
84558W        W85422  14.113  12.279  12.331 -0.1733  0.1209 -0.0169
84559W        W85423  14.735   8.408  17.870  0.1117 -0.1769 -0.1658
84560W        W85424   9.297   8.343  13.098  0.0506  0.0499  0.1055
84561W        W85425  12.093   8.832  16.106 -0.1626  0.2445  0.0006
84562W        W85426  12.695   8.788  12.623  0.1510 -0.1631 -0.3662
84563W        W85427  10.122   8.087  11.646 -0.0222  0.1452  0.2422
84564W        W85428  13.811   8.122  15.808 -0.1340 -0.2299  0.0882
84565W        W85429  13.777   8.040  14.174  0.1874  0.1261  0.3232
84566W        W85430  13.563  12.716  16.281 -0.0580  0.1036 -0.0184
84567W        W85431  13.834   7.598  11.653  0.2198  0.0651  0.3351
84568W        W85432  13.923  11.272  12.860 -0.1335 -0.2594  0.0265
84569W        W85433  12.030   7.976  15.705 -0.1533 -0.0257 -0.1825
84570W        W85434  11.378  11.449  14.354 -0.1720 -0.0291 -0.0003
84571W        W85435  13.382   8.014  16.080  0.0026 -0.2402 -0.0822
84572W        W85436  16.666   8.800  14.539 -0.2111  0.0603  0.2249
84573W        W85437  13.143   9.649  12.156  0.2718 -0.1714 -0.3348
84574W        W85438  14.272   8.358  17.679  0.0466 -0.1142 -0.1685
84575W        W85439  13.841   8.374  11.594 -0.0642 -0.1724  0.1499
84576W        W85440  14.307  10.428  13.174 -0.0904  0.0530 -0.0359
84577W        W85441  14.784   9.867  16.777  0.4009  0.1968 -0.2187
84578W        W85442  13.393   6.745  15.838 -0.3921 -0.0139 -0.0327
84579W        W85443  12.518   6.135  14.875 -0.0791  0.1426  0.1931
84580W        W85444  12.861   6.436  14.516  0.0858  0.1366 -0.1352
84581W        W85445  12.902  10.405  16.337 -0.2801 -0.4177 -0.0817
84582W        W85446  11.198   8.834  14.106  0.1543 -0.0223  0.3683
84583W        W85447  12.924  10.754  13.093  0.0503  0.0316  0.0488
84584W        W85448  15.445   5.766  14.265 -0.2653  0.0446  0.1676
84585W        W85449  13.349   7.180  13.606 -0.2062 -0.0879  0.1109
84586W        W85450  14.518   9.382  10.454  0.2100  0.1047  0.1522
84587W        W85451  13.168   8.857  12.794  0.1743 -0.0714  0.1634
84588W        W85452  13.366  12.091  14.289  0.3894 -0.2345  0.0255
84589W        W85453  15.212   9.178  12.669 -0.1256  0.1359 -0.1589
84590W        W85454  11.862  12.043  11.453  0.0778 -0.2041  0.0885
84591W        W85455  13.582  10.342  15.176  0.1485 -0.1318  0.0981
84592W        W85456  12.667   7.171  14.241 -0.1993 -0.0495 -0.1355
84593W        W85457  15.917   6.683  15.348 -0.1274  0.0380  0.3137
84594W        W85458  16.193  10.000  13.031  0.2376 -0.0355 -0.0607
84595W        W85459  16.875   6.678  12.709 -0.0672  0.0848 -0.0416
84596W        W85460  12.184  10.235  12.270 -0.3636 -0.0817 -0.4127
84597W        W85461  13.364   8.387  12.901  0.0298 -0.1247  0.0725
84598W        W85462  11.888   9.173  11.599  0.3450  0.2579 -0.3168
84599W        W85463  14.743  10.136  15.070  0.1422  0.3371 -0.1632
84600W        W85464  13.176   7.460  11.333  0.1878  0.0306 -0.4399
84601W        W85465  12.359  11.077  12.156  0.0970 -0.0056  0.0310
84602W        W85466  12.105   9.257  13.722  0.0092  0.3638 -0.1344
84603W        W85467  12.782   9.423  12.461  0.0287 -0.0101  0.0542
84604W        W85468  12.920   9.760  14.874 -0.0538 -0.1418  0.1186
84605W        W85469  13.231  12.016   9.275 -0.2361 -0.0610  0.2962
84606W        W85470  14.731   7.435  12.543 -0.3317 -0.1941  0.0865
84607W        W85471  12.339   5.249   9.357 -0.1052 -0.2730  0.1583
84608W        W85472  14.355   9.135  17.512  0.0442 -0.0541 -0.1408
84609W        W85473  12.656   8.228  13.966  0.0013  0.0042 -0.1455
84610W        W85474  10.477   7.593  14.119 -0.2114 -0.0353 -0.0445
84611W        W85475  15.716   6.375  10.361  0.0885 -0.3146 -0.1348
84612W        W85476  11.710   8.873  11.309  0.0838  0.0902  0.0552
84613W        W85477  11.531   8.268  11.683  0.0074  0.0554 -0.0541
84614W        W85478  13.582  11.149  12.478  0.4384  0.0586 -0.2168
84615W        W85479  12.775   8.819  13.143 -0.1854  0.1933  0.3116
84616W        W85480  13.025  10.061  16.715 -0.2736  0.0612 -0.0539
84617W        W85481  12.932   8.622  10.465 -0.2122 -0.2166 -0.0078
84618W        W85482  13.632   7.947  11.342  0.0132 -0.0929 -0.3097
84619W        W85483  14.732   8.462  16.206 -0.1400 -0.1196 -0.0041
84620W        W85484  14.891   8.589  13.267  0.1725 -0.0728 -0.0111
84621W        W85485  13.280   9.584  14.375  0.2714  0.1321  0.2900
84622W        W85486  11.715   8.041  13.956 -0.0715 -0.1302  0.0336
84623W        W85487  12.186   9.726  14.679  0.4152 -0.1984  0.1423
84624W        W85488  13.114   8.349   8.819 -0.0427  0.1462  0.0019
84625W        W85489  13.867  10.001  11.773  0.3030  0.0210 -0.0675
84626W        W85490  11.502   8.805  13.282  0.0619  0.3195 -0.2155
84627W        W85491  11.964   8.064  16.909 -0.0193  0.2256 -0.0393
84628W        W85492  12.198   6.976  11.528 -0.4339  0.1342 -0.3445
84629W        W85493  14.036   7.572  14.374  0.1912 -0.2574  0.1264
84630W        W85494  13.495   9.193  15.796  0.0240  0.1009  0.0852
84631W        W85495  13.706   8.005  10.103  0.2958  0.0401  0.0521
84632W        W85496  15.157  12.672  17.244 -0.1369  0.1563  0.2113
84633W        W85497  14.454   6.065  14.791 -0.2166  0.2210  0.0953
84634W        W85498  13.970  11.346  14.831 -0.1998 -0.0004  0.1384
84635W        W85499  13.462   9.125  14.466  0.0685  0.0710 -0.0768
84636W        W85500  15.481   8.374  14.574  0.1456 -0.1692  0.1327
84637W        W85501  15.001   7.646  15.716  0.0931  0.1966  0.0915
84638W        W85502  13.525   9.989  12.138  0.0498  0.4614  0.1296
84639W        W85503   9.060   8.471  12.505 -0.0732 -0.1298 -0.1452
84640W        W85504   9.464   8.861  17.016  0.1011 -0.0357  0.0069
84641W        W85505  11.644   8.769  11.830 -0.0874  0.4033  0.2885
84642W        W85506  14.344   9.319  12.150  0.2100 -0.0159 -0.1433
84643W        W85507  11.159   9.510  16.332 -0.1932 -0.0980  0.2176
84644W        W85508   9.302   5.486  10.016  0.3347 -0.1327 -0.0907
84645W        W85509  14.901   9.609  12.757  0.2049 -0.1107  0.2530
84646W        W85510  13.591   7.944  13.025 -0.0476  0.4627 -0.0626
84647W        W85511  12.980  10.009  14.404  0.0743 -0.1636 -0.2988
84648W        W85512  11.441   8.830   9.808  0.0522  0.0038 -0.1275
84649W        W85513  13.397  11.054  11.919  0.0134 -0.0279  0.2250
84650W        W85514  13.489   5.265  11.138  0.0214 -0.0052  0.3853
84651W        W85515  13.727   8.690  12.506  0.2199  0.4888 -0.0924
84652W        W85516  13.944  10.251  13.614  0.0494  0.1840 -0.0979
84653W        W85517  12.477   8.962  13.963  0.2394  0.2030 -0.0413
84654W        W85518  11.584   7.484  10.340 -0.3062  0.2136 -0.0591
84655W        W85519  12.828   8.983  11.539  0.1882  0.3823  0.1274
84656W        W85520  10.958   7.005  13.006  0.1501  0.0052 -0.0011
84657W        W85521  12.763  11.266  15.756 -0.2771  0.0183  0.0672
84658W        W85522  13.085   8.772  15.180 -0.1945  0.4465 -0.1101
84659W        W85523  15.098  11.345  12.367  0.0196  0.2499 -0.4124
84660W        W85524  12.348   8.078  10.878  0.0392 -0.0527 -0.0791
84661W        W85525  12.990   6.971  13.906  0.0713  0.0415 -0.0853
84662W        W85526  16.220   8.143  17.162 -0.2122  0.0210 -0.2554
84663W        W85527  14.147  10.239  15.056 -0.3713 -0.0645 -0.0617
84664W        W85528  12.665   6.862  14.623  0.1680 -0.1642 -0.0939
84665W        W85529  14.822  10.456  13.330  0.2533 -0.1798 -0.2831
84666W        W85530  12.103   7.683  12.798 -0.0425 -0.1723  0.1602
84667W        W85531  14.191  13.141  13.970  0.0503  0.2135  0.1470
84668W        W85532  12.249   7.965  13.743  0.0549 -0.1725 -0.1347
84669W        W85533  12.793   7.619  10.320 -0.1368 -0.1889  0.2468
84670W        W85534  17.231   9.447  13.830  0.1897 -0.0479  0.0156
84671W        W85535  12.015   8.808  14.717  0.0362  0.1346  0.0311
84672W        W85536   9.718   8.600  16.240  0.0306 -0.1666 -0.0068
84673W        W85537  12.072   8.536  15.655  0.0182  0.0944 -0.2405
84674W        W85538  13.259  11.544  16.356 -0.1134  0.1598 -0.2135
84675W        W85539  13.020   9.199  14.871  0.0595 -0.0989 -0.2153
84676W        W85540  13.385  10.490  14.392  0.1817 -0.1097 -0.1187
84677W        W85541  13.930   8.940  15.028 -0.1057  0.0980 -0.1376
84678W        W85542  14.959  10.567  11.218  0.2675 -0.0730 -0.1436
84679W        W85543  15.248   9.788  10.234 -0.1831  0.1847 -0.1343
84680W        W85544  13.215   8.646  13.361 -0.0655  0.0285 -0.1162
84681W        W85545  10.105   8.645  15.921 -0.0423 -0.0633 -0.1723
84682W        W85546  13.633   7.646  13.414 -0.0498 -0.2380 -0.2196
84683W        W85547  14.482   7.615  15.832  0.3415 -0.1039 -0.0252
84684W        W85548  12.906  11.128  14.878 -0.0066 -0.2248  0.1042
84685W        W85549  14.316  11.310  12.502  0.1206  0.4643  0.0507
84686W        W85550  12.296   5.565  10.279 -0.0593 -0.2953  0.0876
84687W        W85551  11.645   5.434  12.722  0.1884  0.0797  0.2748
84688W        W85552  12.652  11.723  10.878  0.0270 -0.1280  0.2435
84689W        W85553  14.227  10.071   9.365  0.1994  0.2870 -0.1424
84690W        W85554  11.488   6.122  12.048  0.0252 -0.1774  0.0154
84691W        W85555  13.695   7.268  14.520 -0.0403 -0.2155  0.0068
84692W        W85556  12.260   8.534  13.798 -0.0323  0.0233 -0.2683
84693W        W85557  16.181   9.617  11.281 -0.0704 -0.0478 -0.1345
84694W        W85558  13.654  10.840  14.117  0.1357  0.0916 -0.0725
84695W        W85559  14.448   9.733  14.737  0.0502  0.2882  0.0815
84696W        W85560  13.811  13.095  15.540 -0.0070  0.1233 -0.0555
84697W        W85561  12.711   8.276  13.336  0.4312 -0.0735  0.2459
84698W        W85562  12.302   9.348  15.877  0.0765 -0.0545  0.0631
84699W        W85563  10.861   7.431  13.847 -0.2485  0.1045  0.2102
84700W        W85564  13.217   9.170  16.233  0.1976 -0.1894  0.2424
84701W        W85565  13.534   6.628  12.400  0.2376 -0.2715 -0.0833
84702W        W85566  12.178  10.067  13.912  0.0359  0.3064  0.1143
84703W        W85567   8.524   9.196   8.970 -0.0661 -0.1868  0.0483
84704W        W85568  12.244   8.056  13.151 -0.2326 -0.0493  0.3325
84705W        W85569  12.557   5.526  14.312 -0.0813  0.1506 -0.1487
84706W        W85570  11.872   7.121  13.115  0.1699  0.0375  0.0297
84707W        W85571  12.088   9.223  16.503  0.1238 -0.3328 -0.1932
84708W        W85572  13.835   9.320  13.745  0.0882  0.0509 -0.0864
84709W        W85573  13.964   9.933  14.645  0.1481  0.0031 -0.3506
84710W        W85574  13.419   7.960  15.020  0.2467  0.2096 -0.1157
84711W        W85575  10.591   9.018  16.779 -0.0915 -0.3834 -0.2807
84712W        W85576  11.796   8.207  14.438  0.1211  0.1811 -0.4051
84713W        W85577  11.323  10.775  11.784  0.2200 -0.5837  0.0468
84714W        W85578  12.821   8.286  16.327 -0.1247  0.1509  0.3383
84715W        W85579  13.911   8.401  12.074 -0.1551 -0.2354  0.2832
84716W        W85580  13.029  12.544  14.187 -0.2326  0.0719  0.0373
84717W        W85581  12.955   7.133  14.893 -0.0861 -0.1893  0.2989
84718W        W85582  13.423   9.931  14.672  0.0574 -0.2495 -0.0149
84719W        W85583  14.672  11.352  11.087  0.1057 -0.1225  0.3811
84720W        W85584  11.816   7.211  13.646  0.0967 -0.1096 -0.5385
84721W        W85585  14.916   8.492  10.680  0.1476  0.1831 -0.2831
84722W        W85586  11.432   8.010  13.517 -0.1028 -0.0733  0.0428
84723W        W85587  12.274   9.084   9.374 -0.0936  0.0081 -0.4630
84724W        W85588  12.259  11.750  12.338 -0.2338  0.2484  0.0730
84725W        W85589  12.844   5.926  11.667 -0.3172 -0.0470  0.1081
84726W        W85590  11.773  10.937  12.183 -0.2983 -0.0335 -0.1620
84727W        W85591  14.930  12.677  13.838  0.0300 -0.0662  0.1297
84728W        W85592  13.061   8.642  11.846 -0.2335  0.2233 -0.0107
84729W        W85593  12.767   9.936  11.994  0.0628  0.0195 -0.1515
84730W        W85594  12.547  11.018  12.785  0.0831  0.2507 -0.1029
84731W        W85595  13.736   8.347  16.361 -0.1208  0.0824 -0.1322
84732W        W85596  13.944   6.776  12.671 -0.1389  0.1611 -0.0790
84733W        W85597  11.498   7.739  10.807  0.3295  0.0862 -0.1325
84734W        W85598  13.104   9.170  13.283  0.0679 -0.0309 -0.1193
84735W        W85599  13.913   9.946  12.558  0.0271 -0.2580  0.0709
84736W        W85600  11.573   8.704  14.428  0.0246 -0.1448 -0.0789
84737W        W85601  12.218   9.225  11.020 -0.1554  0.2624  0.1235
84738W        W85602  13.227   6.481  16.710 -0.0696 -0.2425  0.1554
84739W        W85603  10.924   8.324  12.717  0.0258 -0.1640  0.1835
84740W        W85604  10.866   6.897  13.625  0.2685 -0.1530  0.3990
84741W        W85605  11.848   5.645  11.142 -0.0841 -0.3302 -0.2905
84742W        W85606  13.444   7.925  13.835  0.3240 -0.1291 -0.0011
84743W        W85607  11.008   8.304  15.037 -0.1806 -0.1088  0.0891
84744W        W85608  13.176   9.056  12.316 -0.3490  0.3379  0.0713
84745W        W85609  13.192   9.246  15.310 -0.3028 -0.1496 -0.3364
84746W        W85610   9.918   7.721  10.164 -0.2255  0.0506 -0.2472
84747W        W85611  13.342   8.382  14.319  0.1169 -0.0003  0.0914
84748W        W85612  14.343   8.382  11.938  0.0206  0.2546  0.1479
84749W        W85613  10.463   8.690  14.286  0.0964  0.0655 -0.2050
84750W        W85614  16.272   7.487  14.647 -0.3173 -0.0375  0.2394
84751W        W85615   8.344   7.483   9.216  0.0174 -0.4676  0.0069
84752W        W85616  12.729   8.679  13.649  0.0352  0.5013 -0.0518
84753W        W85617  11.692   6.648  12.790 -0.1232  0.1062  0.0047
84754W        W85618  12.446  12.191  12.193 -0.1307 -0.0420  0.2827
84755W        W85619  13.118   7.521  13.929  0.1466  0.0917 -0.1200
84756W        W85620  13.281  10.493  16.062 -0.2585  0.1946 -0.1265
84757W        W85621  11.435   8.594  13.718 -0.2252 -0.2649 -0.1181
84758W        W85622  14.287   6.800  17.129  0.0796  0.0650 -0.1657
84759W        W85623  13.262   8.766  17.009 -0.1828 -0.0490 -0.0535
84760W        W85624  15.020   9.483  14.376 -0.1239 -0.0532 -0.0258
84761W        W85625  13.781   9.951  10.224  0.3328  0.1901  0.1736
84762W        W85626  12.422   8.866  15.703 -0.2292 -0.0382  0.2252
84763W        W85627  14.182   5.914  11.967  0.1907  0.0635 -0.1439
84764W        W85628  11.619   9.542  14.705  0.0070  0.4084 -0.0684
84765W        W85629  11.397  11.107  10.587 -0.2189 -0.0703  0.0102
84766W        W85630  13.091   8.287  15.314  0.1775 -0.1644  0.1739
84767W        W85631  16.018   8.594  12.068  0.0318 -0.1291  0.0633
84768W        W85632  14.323  10.663  15.864  0.2154 -0.0183 -0.1231
84769W        W85633  11.403   7.556  13.940  0.3452  0.2876 -0.0825
84770W        W85634  16.241  11.469  10.393 -0.0265  0.1180 -0.1961
84771W        W85635  12.468  10.518  13.066  0.0558 -0.2120 -0.0837
84772W        W85636  13.462   9.041  14.980 -0.0149 -0.2418  0.0934
84773W        W85637  13.061   8.197  14.715 -0.0649  0.0031 -0.0611
84774W        W85638  15.715  10.892  11.764 -0.0567 -0.1262 -0.2856
84775W        W85639  13.017  10.147  15.303  0.1248  0.3000 -0.0734
84776W        W85640  12.201   7.750  14.562  0.0013  0.0146  0.0595
84777W        W85641  11.574   7.759  14.353  0.2683  0.2940  0.2359
84778W        W85642  11.250  12.832  12.449 -0.0074  0.0555 -0.2714
84779W        W85643  15.097   8.301  12.737  0.0603  0.1405 -0.0592
84780W        W85644  12.016   5.960  14.787  0.2180 -0.0793  0.1053
84781W        W85645  13.166  12.532  15.179  0.1375  0.1464  0.1691
84782W        W85646  16.612   9.606  12.807  0.0956  0.0639 -0.2338
84783W        W85647  11.393   6.611  16.370 -0.0500  0.2262  0.0029
84784W        W85648  13.508  10.400  13.855  0.2317 -0.2205 -0.1707
84785W        W85649  14.684  10.105  12.889  0.2034 -0.1877  0.1057
84786W        W85650  11.820   9.900  14.289 -0.0838 -0.0997 -0.1643
84787W        W85651  11.238  13.083  13.872  0.0121  0.0779 -0.1629
84788W        W85652  11.835   7.355  12.631  0.0579  0.3143  0.2728
84789W        W85653  12.263   6.515  14.692 -0.0386  0.1437 -0.0409
84790W        W85654  13.589   9.746  13.707  0.1078 -0.0665 -0.0352
84791W        W85655  12.136   8.388  10.037  0.1977  0.2148 -0.1603
84792W        W85656  13.982  10.275  12.190 -0.0473  0.0654  0.4141
84793W        W85657  11.800  12.169  14.052  0.0002  0.0990  0.3135
84794W        W85658  15.165  10.297  13.014  0.1855 -0.1721 -0.0794
84795W        W85659  12.635   6.774  13.030 -0.2002  0.1192 -0.0775
84796W        W85660  12.390   9.190  14.423 -0.1813 -0.3123 -0.0647
84797W        W85661  13.638   8.806  15.424 -0.2343  0.0575 -0.1272
84798W        W85662  14.592   8.638  17.430  0.1343 -0.1265  0.1561
84799W        W85663  12.186   8.098  14.182 -0.0655 -0.3180  0.2625
84800W        W85664   8.775   5.333  11.951 -0.1369  0.0169 -0.4706
84801W        W85665  17.664  15.408  13.836  0.2353 -0.1939  0.0408
84802W        W85666  14.230   7.314  12.683  0.3481  0.0130 -0.0459
84803W        W85667  12.606   3.812  11.204  0.0296  0.1705 -0.2571
84804W        W85668  16.839  10.300  11.382 -0.1391  0.0120 -0.0120
84805W        W85669  12.937   9.186  13.752  0.0593  0.1761  0.1100
84806W        W85670  13.538  10.425  12.398 -0.0942 -0.3305 -0.1331
84807W        W85671  13.895   8.362  15.233 -0.1220 -0.1413  0.0560
84808W        W85672  12.834  11.334  13.146  0.0360  0.1565  0.0115
84809W        W85673  13.831  10.809  16.535 -0.1091 -0.0430 -0.0469
84810W        W85674  15.063  10.820  14.471 -0.0904  0.0255  0.1357
84811W        W85675  15.216  11.646  12.904 -0.1750  0.4912  0.1723
84812W        W85676  12.550   9.480  12.039 -0.2096 -0.0445 -0.0367
84813W        W85677  14.785   8.705   8.868  0.0828  0.3116 -0.0123
84814W        W85678  11.375   7.350  16.453 -0.1872  0.0939 -0.0943
84815W        W85679  14.229   4.861  12.771  0.2258 -0.0595  0.0547
84816W        W85680  12.466   9.662  10.950 -0.2337 -0.1941 -0.2958
84817W        W85681  13.754   8.933  14.063 -0.1334  0.0848 -0.2171
84818W        W85682  11.893   9.702  15.074 -0.0819 -0.1530 -0.0602
84819W        W85683  10.436   8.163  15.959 -0.1024  0.1902 -0.0361
84820W        W85684  12.351  11.385  13.119 -0.0088 -0.4174  0.2798
84821W        W85685  15.299  10.127  14.969 -0.1829 -0.1371  0.0007
84822W        W85686  10.572   9.090  16.222 -0.1661  0.0314 -0.2847
84823W        W85687  10.642   8.248  14.091  0.0978 -0.1070  0.1232
84824W        W85688  12.125   8.817  11.955  0.1324  0.0738  0.0375
84825W        W85689  10.197  10.992  14.208 -0.2375 -0.0081 -0.1497
84826W        W85690  12.068   7.565  10.866  0.1021 -0.1842  0.0056
84827W        W85691  11.239   9.107  11.150 -0.1243 -0.1703  0.1393
84828W        W85692  12.369   7.845  11.953  0.3041 -0.0390  0.1547
84829W        W85693  14.254   9.456  14.373  0.0266  0.0357  0.0733
84830W        W85694  12.624  10.808  11.807  0.1596  0.0730  0.0645
84831W        W85695  15.363   6.766  14.571 -0.0223 -0.0651 -0.0331
84832W        W85696  15.070  10.149  11.555  0.1839  0.1039  0.2401
84833W        W85697  13.005  10.626  13.549 -0.0082 -0.1284 -0.0927
84834W        W85698  14.217   7.540  10.817 -0.0811 -0.2373  0.1818
84835W        W85699  16.434  10.087   9.908 -0.1768 -0.2990  0.0964
84836W        W85700  10.682   9.314  11.162 -0.2255  0.0881  0.1870
84837W        W85701  15.170   7.451  12.225 -0.0379  0.0835  0.1891
84838W        W85702  13.754   6.910  15.461  0.2683 -0.0936 -0.1524
84839W        W85703   9.455   8.453  14.254  0.1399  0.1525  0.0441
84840W        W85704  11.052   7.853  10.571 -0.0608  0.0028 -0.0151
84841W        W85705  13.627   7.266  13.977 -0.2347  0.1315  0.1735
84842W        W85706  10.821   9.276  11.665  0.1166 -0.0602  0.2698
84843W        W85707  15.714  10.152  11.991 -0.2064  0.1747  0.0746
84844W        W85708  11.840   6.863  14.829  0.0395 -0.0656 -0.1433
84845W        W85709  10.400   9.967  10.460  0.1553  0.0474  0.2898
84846W        W85710  12.545   8.865  14.765  0.0183 -0.1321 -0.0168
84847W        W85711  11.818   5.383  14.617  0.2634 -0.4059 -0.0516
84848W        W85712  13.439   8.378  15.652  0.1659  0.4603  0.0921
84849W        W85713  14.656   9.369  14.001  0.1668 -0.1444  0.0001
84850W        W85714  11.549  11.126  11.472  0.0052  0.0564  0.1688
84851W        W85715  14.271  10.355  12.644  0.2428 -0.2220 -0.1667
84852W        W85716  16.191  11.646  16.275  0.1262  0.0969  0.0699
84853W        W85717  13.747   7.324  12.926  0.0423  0.1242  0.1290
84854W        W85718  14.985   9.121  11.395  0.1201 -0.0295 -0.1201
84855W        W85719  11.067   9.035  13.528  0.2532 -0.1517  0.0720
84856W        W85720  11.394   4.312  10.989  0.2450  0.3869 -0.2461
84857W        W85721  12.844   8.383  17.814  0.0771 -0.0727 -0.1326
84858W        W85722  10.573   9.739  11.410  0.2508 -0.2692  0.0900
84859W        W85723  12.033  10.195  16.466  0.0636 -0.2265  0.1181
84860W        W85724  11.376   9.801  15.976 -0.1333  0.3251 -0.2597
84861W        W85725  11.703  12.175  16.371 -0.1584  0.2083 -0.1589
84862W        W85726  11.324   8.050   9.532 -0.0342  0.0563 -0.3057
84863W        W85727  14.911   9.777  10.598  0.2583  0.3351  0.0573
84864W        W85728  12.632   9.096  15.258 -0.1567  0.2681  0.3014
84865W        W85729  11.840   8.968  12.380 -0.1863  0.1720 -0.0423
84866W        W85730  13.289   9.685  13.312 -0.1099 -0.1954 -0.0985
84867W        W85731  13.745   9.173  11.740 -0.0709 -0.0214 -0.2453
84868W        W85732  13.526  11.434  15.556  0.1730 -0.2245  0.1620
84869W        W85733  14.536   9.542  13.589  0.0754 -0.3295 -0.0568
84870W        W85734  12.957  11.171  11.708  0.0808 -0.2022  0.1295
84871W        W85735  12.757  10.642  14.907 -0.1768  0.1372  0.0745
84872W        W85736  12.229   7.531  13.260  0.0367 -0.0921 -0.0078
84873W        W85737  12.977   7.432  10.866  0.2681 -0.1476 -0.0559
84874W        W85738  11.050   7.459  14.306 -0.0969 -0.1710 -0.0003
84875W        W85739  10.931   8.021  13.466 -0.2649 -0.0381  0.0116
84876W        W85740  13.462   6.851  16.332  0.0772 -0.0170 -0.1088
84877W        W85741  14.113   7.986   9.122  0.2255 -0.2407 -0.1000
84878W        W85742  14.898   9.378  15.873  0.1676 -0.0843  0.2464
84879W        W85743  14.788  10.768  15.669  0.3936 -0.2542  0.2492
84880W        W85744  13.229   8.790  14.029 -0.1277 -0.0538 -0.1218
84881W        W85745  14.135   7.294  17.242 -0.0112 -0.0573 -0.0623
84882W        W85746  13.587   9.260  13.273 -0.0673 -0.0690  0.0480
84883W        W85747  14.009   9.653  13.400 -0.2509  0.2014 -0.2376
84884W        W85748  11.041  10.167  14.130 -0.0198 -0.2099 -0.0808
84885W        W85749  13.107   7.617  13.363 -0.0570  0.2028 -0.1174
84886W        W85750  14.965  11.205  12.925  0.1171  0.1269 -0.1136
84887W        W85751  13.607   6.787  14.159  0.2066 -0.0881  0.0436
84888W        W85752  11.738   8.069  13.057  0.1123  0.0930  0.0139
84889W        W85753  12.903  11.183  11.055 -0.0717  0.2544 -0.4622
84890W        W85754  13.234  13.593  11.092  0.0335  0.0819  0.0127
84891W        W85755  11.360   9.799  15.065 -0.2054 -0.1897 -0.0803
84892W        W85756  10.579  11.304  12.343 -0.0844 -0.0574  0.0585
84893W        W85757  10.435   6.685  14.587 -0.0093  0.1476  0.2091
84894W        W85758  14.450  10.540  13.654  0.1156 -0.1933 -0.0922
84895W        W85759   9.118   9.314   8.780  0.1498  0.1177  0.1790
84896W        W85760  14.425   7.164  15.593  0.0158 -0.0255  0.0412
84897W        W85761  13.713   8.167   8.155  0.0050 -0.0211 -0.0484
84898W        W85762  15.737  10.155  13.048  0.1665  0.0651 -0.0130
84899W        W85763  13.024  11.143  13.574  0.0128  0.3739  0.0742
84900W        W85764  15.048  14.675  11.982  0.1161  0.0327  0.2523
84901W        W85765  13.416   5.927  12.952  0.3112  0.0824 -0.1245
84902W        W85766  12.610  11.209  15.307  0.0177  0.0141  0.1021
84903W        W85767  14.351  10.667  16.392 -0.0240 -0.4014  0.1536
84904W        W85768  14.096   8.639  16.220 -0.2075 -0.1481  0.2351
84905W        W85769  10.710   8.516  13.293 -0.1158  0.2507 -0.3359
84906W        W85770  11.889   6.634  11.377  0.0638  0.2177 -0.2378
84907W        W85771  14.090   9.662  15.586  0.0486  0.0584  0.0507
84908W        W85772  12.187   9.590  11.439 -0.0262  0.1384 -0.0441
84909W        W85773  13.100   5.559  11.909  0.2223  0.1885  0.2231
84910W        W85774  13.841   9.661  11.357 -0.0774  0.3247  0.1584
84911W        W85775  15.123   9.726  13.936 -0.0222  0.2788 -0.1191
84912W        W85776  14.786   9.432  14.892 -0.0493 -0.0921 -0.0900
84913W        W85777  14.521  10.081  12.216 -0.1173  0.1360  0.2247
84914W        W85778  12.700   7.645  11.668  0.0767  0.0065  0.1084
84915W        W85779  13.898   5.195  12.418 -0.1065 -0.1094  0.1800
84916W        W85780  12.511   7.668  11.181 -0.0051 -0.0533  0.1012
84917W        W85781  15.342   6.657  11.250 -0.3088  0.2615 -0.0754
84918W        W85782  13.305   8.248  11.610  0.0144  0.0665 -0.0073
84919W        W85783  13.793  12.079  11.980  0.0544  0.0687  0.2230
84920W        W85784  14.609  11.831  11.159 -0.2236  0.1101  0.0665
84921W        W85785  12.355   9.722  12.461  0.0550  0.3198 -0.2224
84922W        W85786  11.696   6.220  11.240 -0.0529  0.2395  0.0457
84923W        W85787  12.878   8.509  14.310 -0.2302  0.1037 -0.2166
84924W        W85788  14.094   8.632  13.212 -0.1337  0.2769  0.0756
84925W        W85789  12.588   7.722  14.108 -0.4334 -0.1527 -0.1954
84926W        W85790  14.191   8.688  11.216 -0.2556 -0.1112  0.1670
84927W        W85791  12.291   8.376  11.994  0.0868  0.0752 -0.0828
84928W        W85792   9.758   9.238  13.663 -0.3653  0.0237  0.1145
84929W        W85793  14.857   6.809  15.233 -0.1839 -0.1371 -0.1075
84930W        W85794  14.402  11.589  17.003  0.2474 -0.1448  0.2110
84931W        W85795  11.723   7.317  15.701 -0.0713  0.1358  0.1977
84932W        W85796  13.556  10.122  11.387 -0.0090 -0.4957 -0.1090
84933W        W85797  11.775   9.608  13.700  0.2581 -0.1706  0.0096
84934W        W85798  11.876  11.241  13.579  0.0833 -0.0435 -0.1671
84935W        W85799  13.741  11.337  16.248 -0.3231 -0.0286  0.1792
84936W        W85800  12.873  11.151  16.298 -0.2471  0.1689 -0.1746
84937W        W85801  10.252   9.143  14.375  0.2544  0.0271 -0.1573
84938W        W85802  14.359  11.240  13.558  0.5064 -0.0871 -0.0192
84939W        W85803  14.387  10.005  13.467 -0.2411  0.1754  0.1990
84940W        W85804  12.908   9.897  12.595 -0.1332 -0.1262 -0.0857
84941W        W85805  11.429   7.734  15.570  0.0375 -0.0845  0.0679
84942W        W85806  12.786  11.893  12.368 -0.1042 -0.3655 -0.1393
84943W        W85807  14.274   9.233  15.328  0.1913  0.0872  0.3700
84944W        W85808   9.941  12.570  14.220  0.1035  0.3472 -0.3788
84945W        W85809  12.019   9.407  12.760  0.1667 -0.0422 -0.0023
84946W        W85810  10.000  10.282  18.617  0.1756  0.3625 -0.1613
84947W        W85811  10.623  10.144  19.185 -0.2881  0.0730 -0.4328
84948W        W85812  14.726   7.601  14.447 -0.2009 -0.0633  0.3728
84949W        W85813  17.451  11.110  18.668 -0.1462 -0.0714 -0.1645
84950W        W85814  13.204  10.760  12.260  0.1061  0.0415 -0.3045
84951W        W85815  12.992   8.825  16.500 -0.0916 -0.1731 -0.0251
84952W        W85816  10.196   9.722  17.382  0.2013  0.0490  0.2081
84953W        W85817  12.858  10.672  18.838  0.1530 -0.0193 -0.0347
84954W        W85818  12.674   9.203  18.056  0.0949  0.0278 -0.0937
84955W        W85819   9.023   8.802  19.522 -0.1443 -0.0158  0.3660
84956W        W85820  10.407   6.967  17.856  0.1283 -0.2620 -0.1079
84957W        W85821  10.774   9.163  15.502  0.1273  0.0578  0.3735
84958W        W85822  13.437  10.410  16.567 -0.1582 -0.2142  0.1828
84959W        W85823  13.445   7.266  20.129  0.3407 -0.0234 -0.0162
84960W        W85824  12.508  10.379  16.638  0.2493  0.1671 -0.0557
84961W        W85825  12.290  10.857  20.578 -0.1471 -0.0654  0.0255
84962W        W85826  10.982  13.488  13.917  0.0649  0.2040 -0.0902
84963W        W85827  11.841   9.682  17.306 -0.2440 -0.0351  0.0134
84964W        W85828  10.050   9.487  18.171  0.1906 -0.1999 -0.0290
84965W        W85829  15.515   9.348  14.456  0.0927 -0.1857  0.1589
84966W        W85830  15.643   8.294  17.734 -0.0896 -0.2000 -0.1907
84967W        W85831  14.962   9.521  18.890  0.0127 -0.1279  0.1776
84968W        W85832  12.349  12.281  15.884  0.1490 -0.1839 -0.1027
84969W        W85833  10.998   8.942  15.945 -0.0319 -0.2725  0.0202
84970W        W85834  13.198  12.433  17.430 -0.0696  0.2178 -0.0576
84971W        W85835  10.073  10.911  17.828 -0.4863 -0.0977  0.1505
84972W        W85836  13.757   7.392  19.780  0.1423 -0.0151  0.0713
84973W        W85837  11.236  11.054  14.653 -0.2797 -0.2449 -0.1634
84974W        W85838  16.660  11.522  17.655 -0.1519 -0.1130 -0.2299
84975W        W85839  10.100   8.849  19.632  0.2127  0.0173 -0.0612
84976W        W85840  12.843   7.859  15.400  0.0310  0.0376 -0.0973
84977W        W85841   9.672   9.557  21.483 -0.0376 -0.1836 -0.2648
84978W        W85842  12.381   8.932  16.794 -0.0984 -0.3960 -0.2347
84979W        W85843  12.850  10.046  18.584 -0.0626 -0.0826  0.1874
84980W        W85844   7.199   8.820  17.469 -0.0333  0.2938  0.0011
84981W        W85845  11.979   8.206  19.680 -0.1046 -0.2097 -0.0035
84982W        W85846  11.042   4.172  16.277 -0.0733  0.0338  0.0608
84983W        W85847  13.815   9.664  18.828  0.1450  0.1538  0.3071
84984W        W85848  15.345   7.295  14.541 -0.2476  0.1731  0.1195
84985W        W85849  15.172  10.848  18.889  0.0659 -0.0250 -0.1424
84986W        W85850  13.951   7.135  14.948 -0.3928 -0.1721 -0.0765
84987W        W85851  13.958  10.013  19.716 -0.2375 -0.0218 -0.1303
84988W        W85852  12.071  10.662  16.341  0.3759 -0.0833  0.0770
84989W        W85853  14.557   9.644  15.400 -0.1244  0.3504  0.0148
84990W        W85854  11.370  11.935  14.335 -0.1960 -0.1773 -0.0536
84991W        W85855  11.864  10.990  16.692  0.0847 -0.0915  0.0085
84992W        W85856  10.008   8.108  18.367  0.2146  0.0034 -0.1538
84993W        W85857  12.683   7.140  20.704 -0.0455  0.0785  0.0109
84994W        W85858  15.689   9.062  18.537  0.0103 -0.0849 -0.0589
84995W        W85859  14.837   8.525  16.938 -0.0879  0.2335  0.1474
84996W        W85860  14.591   9.474  17.021 -0.0149  0.0433 -0.0913
84997W        W85861   9.009   9.957  15.948 -0.0792  0.1855 -0.0109
84998W        W85862  14.625  12.680  15.571 -0.0331  0.0777 -0.2205
84999W        W85863  15.559   6.737  16.316  0.2233  0.0847 -0.1577
85000W        W85864  11.417   6.626  17.147  0.0096  0.2438  0.3024
85001W        W85865  11.035  11.126  16.423  0.2441  0.0587 -0.3307
85002W        W85866   9.184   5.816  15.936 -0.3308 -0.0470 -0.5779
85003W        W85867  11.678   7.098  18.367  0.2786  0.0693  0.0029
85004W        W85868  12.766  11.593  15.045  0.1933  0.2807 -0.0060
85005W        W85869  13.117  11.681  14.101  0.1678 -0.2399 -0.3987
85006W        W85870  14.762   9.550  16.358  0.0424  0.1661 -0.1726
85007W        W85871  13.627  11.172  16.728 -0.3854 -0.2060 -0.1706
85008W        W85872  13.397   8.452  17.941 -0.1648  0.0211 -0.0688
85009W        W85873  14.230  11.830  17.843 -0.0277 -0.0669  0.1897
85010W        W85874  10.485   8.139  17.037  0.1160  0.3669 -0.0248
85011W        W85875  15.452   5.896  19.011  0.2564 -0.0474  0.0144
85012W        W85876  15.122   8.868  15.074 -0.1706  0.0114 -0.0883
85013W        W85877   9.768   6.275  16.508 -0.1900  0.0434 -0.0221
85014W        W85878  11.503   9.372  15.248  0.0378  0.1401  0.5915
85015W        W85879  13.718  11.917  17.776  0.1417 -0.0404 -0.3871
85016W        W85880  14.027  12.204  18.348  0.0335  0.2196  0.0716
85017W        W85881  12.270   9.330  17.038 -0.0322  0.1136  0.2172
85018W        W85882  12.389   8.590  14.333 -0.2198  0.1208 -0.1772
85019W        W85883  14.705  10.269  18.875 -0.1774 -0.2950 -0.1402
85020W        W85884  16.534   8.499  15.072 -0.0634 -0.0082 -0.2068
85021W        W85885  12.908  12.231  18.919 -0.1089  0.0370  0.0801
85022W        W85886  10.480   9.577  16.957 -0.0877 -0.2010 -0.1262
85023W        W85887   9.647   7.973  16.463  0.1845 -0.0411  0.1656
85024W        W85888  11.874   9.653  18.553 -0.0742  0.3963  0.1351
85025W        W85889  12.614   6.922  15.796  0.0932  0.1475 -0.0641
85026W        W85890  12.319   9.761  17.377  0.0699 -0.2865  0.5213
85027W        W85891   8.554   9.183  16.457  0.2315 -0.1308 -0.3157
85028W        W85892  10.803   7.772  15.664  0.2657  0.3611 -0.0223
85029W        W85893  10.346   8.435  18.269  0.0918  0.0846 -0.0958
85030W        W85894  10.773   9.588  19.172  0.0949 -0.1253 -0.0898
85031W        W85895  14.482   8.946  17.038 -0.2002  0.2478 -0.5065
85032W        W85896  14.211  13.166  22.666  0.3208 -0.0434 -0.2955
85033W        W85897  11.164   8.110  17.619  0.0875  0.0222  0.0335
85034W        W85898  11.681   8.148  18.315  0.5178  0.1246 -0.0251
85035W        W85899  12.190   7.533  21.071  0.1934 -0.2704  0.0667
85036W        W85900  12.933   7.148  19.191 -0.0004  0.0242 -0.0922
85037W        W85901  15.899   8.370  16.898  0.0997 -0.1990 -0.0615
85038W        W85902  10.030   9.781  18.664  0.2292  0.0617  0.0235
85039W        W85903  12.759   7.922  18.484  0.4306  0.4446 -0.0511
85040W        W85904   8.870   9.472  18.817 -0.0579  0.2830  0.0074
85041W        W85905  11.219   7.088  18.533  0.1417 -0.3346  0.0263
85042W        W85906  12.167   6.094  16.448 -0.1621  0.0038  0.1451
85043W        W85907  13.865  15.539  21.225 -0.1902  0.3043 -0.1550
85044W        W85908  10.976   9.392  16.911  0.2586  0.0796 -0.0784
85045W        W85909  12.772   7.008  15.327 -0.0265 -0.0055  0.2059
85046W        W85910  14.977   9.832  15.709  0.1621 -0.3938 -0.0038
85047W        W85911  11.332  10.029  14.611 -0.2972 -0.1418 -0.0516
85048W        W85912  15.198   7.810  14.534 -0.1131 -0.0949 -0.2702
85049W        W85913  15.439  11.613  18.520  0.0024  0.3214  0.0806
85050W        W85914  12.464   5.198  18.999 -0.3552 -0.3437 -0.2253
85051W        W85915  12.856  10.381  17.539 -0.1379  0.0190 -0.4117
85052W        W85916  14.099   9.770  16.993  0.1581  0.0454  0.1388
85053W        W85917  14.142  11.418  19.806 -0.1680  0.2833  0.1187
85054W        W85918  15.210   8.569  18.495 -0.3067 -0.0432  0.0768
85055W        W85919  11.731   7.636  18.485  0.0545 -0.2892 -0.1307
85056W        W85920  11.518   8.043  17.294  0.1268 -0.1514  0.0094
85057W        W85921  10.834  12.220  17.048 -0.2498 -0.1668 -0.0788
85058W        W85922  12.591   7.988  17.979 -0.1413 -0.1610  0.2098
85059W        W85923  15.125  10.443  18.612 -0.1894  0.1620  0.0091
85060W        W85924  14.184   8.889  18.702  0.3947  0.0388 -0.2847
85061W        W85925  12.676  10.249  18.983  0.1011  0.0091 -0.1067
85062W        W85926  13.011   6.298  20.921  0.1720 -0.2326  0.2173
85063W        W85927  13.615  12.069  18.615  0.2293  0.2945  0.0002
85064W        W85928  11.085   4.568  17.163 -0.1433 -0.2272 -0.2410
85065W        W85929  11.837   6.934  17.807  0.0700 -0.0379 -0.1311
85066W        W85930  11.631   7.046  16.909  0.3102 -0.1865 -0.1845
85067W        W85931  15.726  12.559  15.240 -0.1315 -0.1035 -0.2473
85068W        W85932  14.449   8.894  18.013 -0.1482  0.1675  0.0840
85069W        W85933  13.133   9.915  16.235  0.0273  0.4512  0.0284
85070W        W85934  14.405  10.650  20.202  0.1132 -0.2360 -0.0109
85071W        W85935  13.518   9.887  16.657 -0.0278 -0.1698 -0.1038
85072W        W85936   9.855   9.483  15.792 -0.4985 -0.3493 -0.1518
85073W        W85937  13.804   8.826  19.188 -0.1029  0.2424 -0.0667
85074W        W85938  13.758   9.841  17.845 -0.1340  0.0318  0.2074
85075W        W85939  13.104  11.267  16.798 -0.1537  0.2195 -0.1668
85076W        W85940  13.335  10.840  16.376  0.0122  0.1063 -0.1203
85077W        W85941  12.962   6.581  18.920  0.0302  0.0702 -0.1291
85078W        W85942  14.296  11.014  13.979  0.1250  0.2514  0.1234
85079W        W85943  12.437   8.022  19.399  0.1360  0.0920  0.1279
85080W        W85944  14.546   5.837  18.039 -0.2584 -0.0760  0.2554
85081W        W85945   9.135   8.660  17.553 -0.1292 -0.2992  0.0367
85082W        W85946  14.341   6.625  18.122 -0.0924  0.1842  0.1690
85083W        W85947   9.312   8.306  17.216  0.1640 -0.0338  0.3177
85084W        W85948  13.234  11.204  15.975 -0.2525 -0.1450  0.0495
85085W        W85949  14.125   9.648  15.064  0.5153 -0.0964  0.0821
85086W        W85950  13.132   9.573  15.832  0.1515 -0.0190  0.1610
85087W        W85951  12.359   6.593  16.621  0.0458 -0.0672 -0.0071
85088W        W85952  11.735   8.385  14.914  0.1564  0.0743 -0.4232
85089W        W85953  10.249   9.591  16.212  0.2772 -0.1083  0.1929
85090W        W85954  12.858  10.818  18.229  0.0788  0.0350 -0.1095
85091W        W85955  13.585   8.677  17.460  0.0699 -0.2310  0.1082
85092W        W85956  16.143   7.736  19.502  0.1779 -0.1509 -0.1874
85093W        W85957  14.642  12.655  16.066  0.2821 -0.2062  0.0615
85094W        W85958  11.403   8.489  19.673  0.0495  0.3900  0.1979
85095W        W85959  11.977  10.982  17.697 -0.0736  0.0435 -0.1633
85096W        W85960  13.611  11.138  20.438 -0.3985  0.0198 -0.0722
85097W        W85961  11.203   9.190  17.528  0.0156 -0.0190 -0.1750
85098W        W85962  12.818   9.682  18.958 -0.0948 -0.3577 -0.1733
85099W        W85963  12.478  10.534  17.980  0.3603  0.2593 -0.0776
85100W        W85964  10.883  10.542  18.844 -0.3375 -0.2316 -0.1040
85101W        W85965  12.884   7.357  16.239  0.2570 -0.0430  0.0829
85102W        W85966  11.227   8.526  15.823 -0.0371 -0.1594  0.1700
85103W        W85967  13.412  11.572  13.012 -0.2167 -0.1170  0.0094
85104W        W85968  11.554   9.297  16.500 -0.0850  0.2973  0.0894
85105W        W85969  11.164   9.638  17.329 -0.2072  0.3021 -0.0251
85106W        W85970  11.759   8.464  18.682  0.1579  0.1290  0.0109
85107W        W85971  12.334   8.044  20.457  0.4821 -0.3667  0.0578
85108W        W85972  12.899  10.029  20.486 -0.1127 -0.1635  0.0052
85109W        W85973  13.245   9.788  18.074 -0.2568  0.4823 -0.4473
85110W        W85974  12.022   6.440  20.777 -0.1664 -0.0167 -0.0221
85111W        W85975   8.186   8.752  16.040  0.0299  0.2024  0.0459
85112W        W85976  10.721   9.003  17.659  0.5836  0.2354 -0.0855
85113W        W85977  13.697   9.032  16.970 -0.0644  0.0986  0.0613
85114W        W85978  14.138   8.300  16.604 -0.0624  0.2459 -0.0453
85115W        W85979  10.869  11.938  15.828 -0.0932 -0.1118  0.0888
85116W        W85980  14.010   8.920  16.653  0.0995  0.4187 -0.0999
85117W        W85981  13.334  10.246  17.780 -0.0723 -0.0279  0.0305
85118W        W85982  14.910   9.995  16.235  0.0805  0.0383  0.0481
85119W        W85983  15.106   8.151  15.145  0.0540 -0.1858  0.3771
85120W        W85984  11.479   9.258  17.035  0.1470  0.0247  0.2892
85121W        W85985  12.412   6.198  15.343 -0.2316 -0.1109 -0.0522
85122W        W85986   9.341   8.257  17.819  0.0029  0.0580  0.1060
85123W        W85987  12.992   7.726  15.839 -0.1801 -0.2092 -0.1357
85124W        W85988  13.722  11.662  12.580  0.0786 -0.5081 -0.0159
85125W        W85989  12.161   6.864  18.459 -0.1717 -0.0026  0.1862
85126W        W85990  14.235  11.741  12.184 -0.0818  0.1624  0.0151
85127W        W85991  13.115  11.141  15.376  0.3581  0.0575  0.0504
85128W        W85992  11.994   8.355  16.487 -0.1101  0.0127 -0.0981
85129W        W85993  14.156   7.098  16.700  0.1213  0.1957 -0.0238
85130W        W85994  11.864   7.618  15.325 -0.1224 -0.1958 -0.1215
85131W        W85995  12.464   9.314  18.746  0.3492  0.3901 -0.1222
85132W        W85996  12.881   7.039  17.838 -0.0065  0.1687  0.0627
85133W        W85997  10.347   6.066  13.281  0.1380 -0.1473 -0.1525
85134W        W85998  11.095   8.511  20.601 -0.0159  0.3767  0.1335
85135W        W85999  12.299  10.998  18.050 -0.1846 -0.2698 -0.2371
85136W        W86000  14.838  12.904  14.845 -0.1070  0.0591  0.2421
85137W        W86001  12.661  11.613  14.470  0.0519  0.2849  0.1387
85138W        W86002  13.207   9.583  16.991 -0.1718  0.1091 -0.1325
85139W        W86003  12.548   9.243  19.247 -0.1762  0.3497  0.2036
85140W        W86004  13.833   9.311  17.930  0.1501  0.0372 -0.0086
85141W        W86005  11.070   8.988  16.506 -0.0102 -0.0513 -0.1745
85142W        W86006  13.719   9.884  15.225 -0.2382  0.0515 -0.1286
85143W        W86007  10.639   9.515  16.519  0.0684 -0.1631 -0.2244
85144W        W86008  11.427   8.099  15.883  0.2760 -0.0643 -0.0886
85145W        W86009  13.807   7.626  17.238  0.0486 -0.1189  0.1225
85146W        W86010   8.103   7.243  16.804 -0.1188  0.1492  0.0608
85147W        W86011  12.136   8.203  21.332 -0.1835  0.2735  0.0434
85148W        W86012  16.150   9.421  16.564  0.0999  0.1275  0.0251
85149W        W86013   9.123   7.103  15.465 -0.1899  0.0404 -0.0210
85150W        W86014  12.255   7.176  15.512 -0.0825  0.2136 -0.0433
85151W        W86015  10.043   7.011  16.322  0.2553  0.3713 -0.1199
85152W        W86016  11.237  10.349  15.274  0.0123  0.0815 -0.2064
85153W        W86017  11.565   8.957  19.429  0.0094  0.3699 -0.0242
85154W        W86018  14.189  12.545  15.387 -0.7036 -0.1653  0.0116
85155W        W86019  12.129  10.291  14.962 -0.3491 -0.0901  0.2917
85156W        W86020  10.908   8.580  19.383  0.1624 -0.0224 -0.1950
85157W        W86021  12.045  12.476  18.021  0.0444 -0.0632  0.0626
85158W        W86022   9.868   8.796  16.695 -0.0662 -0.0833 -0.2170
85159W        W86023  13.804   6.850  17.899 -0.3190 -0.1628 -0.0375
85160W        W86024  15.373  11.817  19.210  0.0051  0.0240  0.0313
85161W        W86025  14.524   7.584  16.671  0.4032 -0.1866  0.2231
85162W        W86026  13.121  10.013  17.261 -0.0527  0.0522 -0.3189
85163W        W86027  15.232  11.423  16.175  0.0419  0.0177  0.1622
85164W        W86028  13.665  12.483  20.611  0.2236  0.2011 -0.1454
85165W        W86029  13.170   9.867  19.235  0.1008 -0.4028  0.0448
85166W        W86030  13.670   6.384  17.631 -0.1631 -0.1027 -0.0898
85167W        W86031  13.706   9.168  17.455 -0.0943  0.2019 -0.1811
85168W        W86032  13.779  10.625  16.051 -0.2570 -0.1595 -0.0722
85169W        W86033  11.353   7.767  16.878 -0.2433 -0.0519  0.1577
85170W        W86034  13.776  10.763  17.242  0.1655  0.2078  0.0302
85171W        W86035  10.524  10.885  16.181  0.0304 -0.1077 -0.2374
85172W        W86036  10.490  10.887  19.298 -0.0163 -0.1709  0.2956
85173W        W86037  14.728   6.567  20.411 -0.2971  0.2745  0.0823
85174W        W86038  14.500  10.304  16.892  0.1758 -0.2390  0.0358
85175W        W86039  13.631   8.678  15.962  0.0811  0.0053 -0.1575
85176W        W86040   9.879  10.857  17.379  0.3699 -0.0453 -0.0173
85177W        W86041  11.507   7.895  21.625  0.1985  0.0755  0.0942
85178W        W86042  13.656  12.754  14.768 -0.3272 -0.1664  0.1463
85179W        W86043  16.780   7.614  17.404 -0.0927 -0.2053  0.1705
85180W        W86044  11.958   8.040  17.772  0.0120  0.0153  0.1560
85181W        W86045  12.193   8.795  17.299  0.0322 -0.4121  0.1747
85182W        W86046  15.119   7.302  18.467  0.0465 -0.0039 -0.1176
85183W        W86047  12.461   9.002  19.671 -0.0073 -0.2311 -0.3836
85184W        W86048  16.108   9.916  16.889  0.1984 -0.3680  0.0477
85185W        W86049  13.430  11.136  17.246  0.1948  0.1476 -0.0621
85186W        W86050  13.221   9.192  17.296 -0.2955 -0.0424  0.1119
85187W        W86051  11.470  11.398  17.828 -0.1559 -0.3005  0.0296
85188W        W86052   9.396  10.305  16.746  0.3806 -0.1486 -0.0949
85189W        W86053  12.759   7.044  18.391  0.1588 -0.0529 -0.1833
85190W        W86054  12.780   7.506  18.192 -0.0721  0.1864  0.2129
85191W        W86055  14.716   8.963  15.579 -0.0329 -0.0636 -0.2795
85192W        W86056  13.846   7.385  16.415 -0.0547 -0.0396 -0.0315
85193W        W86057  14.436   9.307  15.850 -0.0025 -0.1370  0.3534
85194W        W86058  12.731  11.659  16.093 -0.1839  0.0785 -0.0952
85195W        W86059  12.853   8.335  19.232  0.2097 -0.0843 -0.0308
85196W        W86060  12.347  10.946  19.541  0.1934  0.0802  0.1159
85197W        W86061  13.117   8.722  17.579  0.0147  0.0401  0.0927
85198W        W86062  13.527  12.376  16.770  0.3732 -0.0019  0.2546
85199W        W86063  14.679   7.343  19.698  0.1398 -0.0057  0.0721
85200W        W86064   9.945   8.974  15.569 -0.0392 -0.1273 -0.0708
85201W        W86065  14.110   8.924  14.494 -0.3826 -0.0825  0.0501
85202W        W86066  15.934   7.567  15.216  0.2635 -0.2906  0.0260
85203W        W86067  11.515   9.216  18.412  0.0963 -0.0364  0.0895
85204W        W86068  14.172  10.393  18.388 -0.0825 -0.3101 -0.2959
85205W        W86069  14.132   9.260  17.110 -0.2739 -0.0108 -0.1235
85206W        W86070  11.360   7.850  16.375 -0.2217  0.2428  0.1361
85207W        W86071   8.718   9.717  17.361  0.0822 -0.0184  0.2292
85208W        W86072  13.501  13.088  19.931 -0.0369  0.0325  0.3194
85209W        W86073  12.036   8.778  17.747 -0.0545 -0.0608 -0.0165
85210W        W86074  12.413  10.144  17.673 -0.1043  0.1601 -0.2711
85211W        W86075  12.751  12.264  17.786 -0.3251  0.2234 -0.0683
85212W        W86076  11.667  10.173  15.030 -0.1716 -0.1748 -0.0427
85213W        W86077  16.460   9.080  16.395  0.1459  0.0188  0.0068
85214W        W86078  12.428   9.588  19.754  0.0098 -0.2481  0.1946
85215W        W86079  15.910   8.565  14.302 -0.0036 -0.0341  0.0107
85216W        W86080  11.798  10.288  13.686 -0.0106  0.0650  0.0439
85217W        W86081  11.453  10.050  17.319  0.0473  0.3147 -0.0179
85218W        W86082  11.336   8.333  18.633  0.0946 -0.0126  0.2545
85219W        W86083  10.302   7.757  16.692 -0.2155  0.2049  0.0447
85220W        W86084  14.081  14.091  19.710  0.1501  0.2890  0.5465
85221W        W86085  11.524   3.124  17.134 -0.2179 -0.1321 -0.0184
85222W        W86086  10.711   8.914  18.207 -0.1437 -0.0714 -0.0074
85223W        W86087  12.086   9.159  15.083  0.1574  0.0063  0.0557
85224W        W86088  11.943   8.327  17.400  0.1157 -0.2590 -0.0411
85225W        W86089  12.463   9.583  17.823 -0.0127 -0.2142  0.1590
85226W        W86090  11.948   9.125  18.601 -0.0501 -0.0298 -0.2984
85227W        W86091  11.008   8.925  17.151  0.2742 -0.0148 -0.2093
85228W        W86092  13.029   8.609  18.858  0.0446  0.1071  0.2626
85229W        W86093  11.011   9.970  19.403 -0.2353  0.2293 -0.1499
85230W        W86094  11.986   8.960  14.153  0.0203 -0.2958 -0.3475
85231W        W86095  12.406   7.409  19.062  0.4883  0.1849 -0.0197
85232W        W86096  11.181   9.205  20.507  0.0808  0.1601 -0.3509
85233W        W86097   8.867  10.940  19.370  0.3170 -0.0025 -0.1345
85234W        W86098  11.577   8.777  17.363 -0.0421  0.4795 -0.1012
85235W        W86099  12.574  10.195  17.152 -0.0652  0.2434 -0.3710
85236W        W86100  12.128  12.402  14.772  0.1173  0.0951 -0.1437
85237W        W86101  13.694   7.442  15.350 -0.3112  0.1937  0.0030
85238W        W86102  13.142   7.732  19.178  0.2166  0.1550  0.2254
85239W        W86103  12.525   9.237  12.924  0.0467 -0.3726  0.0530
85240W        W86104  13.238   8.513  16.209 -0.1289 -0.0222  0.0740
85241W        W86105  12.326   8.369  17.729 -0.0071 -0.3055 -0.0232
85242W        W86106  12.569   7.824  17.514  0.0187 -0.1147  0.0268
85243W        W86107  14.812   9.154  16.729  0.2228 -0.0375  0.3328
85244W        W86108  14.365   9.316  16.628 -0.1885 -0.1129  0.0922
85245W        W86109  10.721  11.340  15.377  0.1724  0.0572 -0.0622
85246W        W86110  10.174   9.155  16.566 -0.1215  0.0710  0.0828
85247W        W86111   9.890   9.008  21.025  0.4377  0.3087 -0.0406
85248W        W86112  11.345  10.316  20.539 -0.0173 -0.2834  0.1748
85249W        W86113  14.464   9.806  15.985 -0.4403 -0.0768 -0.0697
85250W        W86114  14.743   9.023  16.181  0.2483  0.1251 -0.0529
85251W        W86115  13.562  12.740  17.201  0.3954  0.2155  0.0547
85252W        W86116  14.123   7.685  21.182  0.0757  0.1263 -0.1459
85253W        W86117  11.196   6.559  17.583  0.0078  0.5323 -0.0221
85254W        W86118  10.742   6.002  16.647 -0.1244 -0.0696 -0.0673
85255W        W86119  11.107   9.379  18.143  0.1308  0.2125 -0.2179
85256W        W86120  12.557   9.822  14.152  0.3596  0.2301  0.0898
85257W        W86121  10.254   6.435  17.130 -0.0792  0.0694 -0.0168
85258W        W86122  12.906   9.119  18.936  0.1977  0.0601  0.1196
85259W        W86123  13.888   9.486  16.571 -0.0505 -0.2471 -0.2191
85260W        W86124  11.915  10.302  19.384  0.2224 -0.1252  0.1004
85261W        W86125   9.796   9.035  20.004  0.0738 -0.1255  0.0079
85262W        W86126  12.702   8.914  17.262  0.0477 -0.1513 -0.0930
85263W        W86127  14.222   9.092  16.226  0.3273  0.1565 -0.0170
85264W        W86128  14.332   8.349  20.570 -0.2409 -0.0898  0.1359
85265W        W86129  12.367  10.925  16.632  0.0391  0.3917  0.1538
85266W        W86130  14.151  10.695  16.893  0.0741 -0.0575  0.1089
85267W        W86131  15.205  12.847  16.363 -0.2047 -0.1106 -0.0366
85268W        W86132  10.718   8.456  17.868 -0.2028  0.1493  0.2063
85269W        W86133  15.981   8.423  18.692 -0.1272 -0.4108  0.2470
85270W        W86134  12.981   7.718  14.903 -0.0598 -0.1214 -0.2966
85271W        W86135  12.861   9.810  17.682 -0.1136 -0.0929  0.1693
85272W        W86136  13.947   7.603  15.776  0.0523  0.1786 -0.0622
85273W        W86137  10.454   6.628  15.100 -0.1812  0.1223 -0.2490
85274W        W86138  11.970   9.245  14.581  0.1762 -0.2392  0.0282
85275W        W86139  11.849   9.344  18.010  0.1515  0.2052 -0.1014
85276W        W86140  13.340   8.589  19.254  0.1498  0.2440 -0.1721
85277W        W86141  12.684   8.377  15.068  0.0580  0.0561 -0.2941
85278W        W86142  15.748   7.826  17.940 -0.2793 -0.1731  0.0129
85279W        W86143  13.214  10.298  18.934 -0.1246  0.3797 -0.1812
85280W        W86144  14.542  12.582  19.037  0.2064 -0.3178  0.3592
85281W        W86145  13.758  10.394  17.627 -0.0249 -0.1240  0.0086
85282W        W86146  11.173  11.444  15.510  0.0898  0.2289  0.4597
85283W        W86147  17.230  10.614  16.564 -0.0884 -0.2129 -0.0895
85284W        W86148  11.124   8.681  17.698 -0.0465  0.2246  0.0218
85285W        W86149  12.602   6.733  13.731  0.0875  0.2010 -0.0171
85286W        W86150  11.988  11.121  15.076 -0.0704  0.2305  0.0057
85287W        W86151  11.215   8.371  18.083 -0.0615 -0.2914  0.1109
85288W        W86152   9.084   5.081  15.312  0.0115  0.0414 -0.0318
85289W        W86153  13.705  12.169  13.794 -0.0857 -0.0148  0.0664
85290W        W86154  14.172   9.846  18.283 -0.1811 -0.0218 -0.1269
85291W        W86155  13.569  10.336  17.064  0.2575  0.0001  0.0149
85292W        W86156  11.543   9.170  13.864  0.3249  0.2510 -0.0028
85293W        W86157   9.688   6.707  16.224 -0.2365 -0.1676 -0.1087
85294W        W86158  12.252   9.806  16.849 -0.0038  0.0470 -0.0066
85295W        W86159  11.529   8.959  17.890  0.0698 -0.0403  0.3175
85296W        W86160  15.109  11.935  18.797 -0.4161  0.1124 -0.2930
85297W        W86161  13.461   6.502  15.410  0.3302  0.0248 -0.0818
85298W        W86162  15.576  10.074  16.824  0.2486 -0.0796  0.0272
85299W        W86163  11.556  11.143  16.336 -0.0412  0.0572  0.1503
85300W        W86164  11.120  10.611  16.767 -0.1122 -0.0229  0.2819
85301W        W86165  11.852   9.490  16.844  0.2943 -0.2876  0.2946
85302W        W86166   9.350   8.922  17.955  0.0774 -0.5688  0.2013
85303W        W86167  10.858   8.471  18.453 -0.3138 -0.2671 -0.1011
85304W        W86168   9.944   8.119  19.505  0.1670 -0.0401 -0.0605
85305W        W86169  11.335   9.375  15.776 -0.0232 -0.1509  0.1162
85306W        W86170  10.501   6.720  16.021 -0.3151 -0.3305  0.1574
85307W        W86171  13.823   7.870  16.298  0.2015 -0.0888 -0.0710
85308W        W86172  11.400  10.943  17.525 -0.1699 -0.0944 -0.0296
85309W        W86173  15.962   8.914  16.817  0.2258 -0.0843 -0.2084
85310W        W86174  10.658  12.704  17.035 -0.0289  0.1173 -0.0433
85311W        W86175  10.536  11.920  14.330 -0.1040 -0.0129  0.0755
85312W        W86176  15.003  10.777  18.186  0.0276  0.1279 -0.0031
85313W        W86177  13.214   8.163  19.464 -0.1849  0.0193 -0.0828
85314W        W86178  12.232   5.864  15.860 -0.0756  0.0955 -0.0489
85315W        W86179  13.609   5.966  15.581 -0.1739  0.0677  0.2849
85316W        W86180  11.887   7.468  18.025  0.0761  0.0713 -0.0394
85317W        W86181  15.132   8.848  15.840  0.2048 -0.0459 -0.2906
85318W        W86182  12.685  13.175  15.136  0.2718  0.2814 -0.0787
85319W        W86183  12.178   7.229  19.965 -0.0501 -0.0132 -0.4590
85320W        W86184  14.025  10.172  15.958  0.0624  0.1632 -0.2125
85321W        W86185  11.690   6.799  19.342 -0.0659  0.1040 -0.2775
85322W        W86186  12.589   8.809  17.713 -0.0736  0.0769 -0.1701
85323W        W86187  16.231  10.056  17.741  0.3888 -0.0668 -0.1268
85324W        W86188   9.894   6.910  18.102  0.1256  0.3112 -0.0846
85325W        W86189  10.104   9.301  17.071  0.0960  0.1719  0.3491
85326W        W86190  11.983   8.029  20.861 -0.3621  0.0002  0.0055
85327W        W86191   9.735   8.167  17.551  0.1866 -0.1151  0.3001
85328W        W86192  13.866   8.655  18.327 -0.0334  0.0747 -0.3609
85329W        W86193  11.921   7.313  18.854 -0.1243  0.3468  0.1877
85330W        W86194  15.553  13.463  19.667  0.0998  0.2074  0.0154
85331W        W86195  13.566   7.493  20.585 -0.4249  0.0922  0.1755
85332W        W86196  12.762   9.424  17.390 -0.3767  0.0425  0.1592
85333W        W86197  12.031   8.404  18.146 -0.3617  0.0161  0.3025
85334W        W86198   9.509  12.096  15.442 -0.3308 -0.0391  0.1079
85335W        W86199  15.009  10.710  17.385  0.1527 -0.2940 -0.2023
85336W        W86200  13.551   7.899  18.957  0.0463  0.0617  0.2170
85337W        W86201  11.284  10.710  16.236  0.0924  0.2061 -0.1838
85338W        W86202  15.250   8.442  18.008 -0.0411  0.3124  0.2081
85339W        W86203  13.532  12.290  18.107 -0.2567  0.1038 -0.1408
85340W        W86204  10.931  10.887  18.490 -0.1712 -0.1076  0.2114
85341W        W86205  11.582  10.088  17.841  0.1066 -0.0622 -0.0230
85342W        W86206  13.656   9.714  15.777  0.3077  0.0538 -0.2244
85343W        W86207  13.281   9.316  19.287  0.0733  0.2745 -0.1718
85344W        W86208  11.812   9.209  17.465  0.0662 -0.1174 -0.2294
85345W        W86209   9.360   7.420  15.125  0.1826 -0.1843  0.4590
85346W        W86210  11.403  11.829  22.038 -0.1314 -0.0358 -0.0719
85347W        W86211  11.353   6.252  21.123 -0.0755 -0.1756 -0.0461
85348W        W86212  14.789   8.255  20.818  0.0165 -0.0604 -0.0724
85349W        W86213  14.984   6.962  19.452  0.0046 -0.0474 -0.2219
85350W        W86214  11.462  10.155  19.558 -0.1873 -0.0070  0.2202
85351W        W86215  11.275   8.108  22.052  0.2409  0.2237  0.0536
85352W        W86216  10.499   9.799  19.526  0.1114 -0.0985 -0.0093
85353W        W86217  13.423   9.318  16.677  0.3785 -0.0025  0.3635
85354W        W86218  11.853  10.998  20.863  0.0951 -0.3317 -0.2225
85355W        W86219  10.576   6.617  22.043  0.0360 -0.0287 -0.3538
85356W        W86220  13.166   5.505  22.355 -0.2921  0.2931  0.4885
85357W        W86221  12.663   6.853  21.727 -0.2438  0.1828  0.2224
85358W        W86222  11.368   9.817  19.056  0.2172  0.3343  0.3625
85359W        W86223  14.537   5.777  22.664  0.1060 -0.0612 -0.1804
85360W        W86224  13.786   6.614  21.412  0.0124 -0.0674  0.1245
85361W        W86225  10.797  12.841  21.398 -0.0214 -0.1372 -0.0829
85362W        W86226  15.466   8.793  20.303 -0.2543  0.0152  0.0179
85363W        W86227  11.274  11.264  20.402  0.0238 -0.0266  0.0549
85364W        W86228  10.094   8.931  18.071 -0.2251  0.2466 -0.2523
85365W        W86229  14.428   5.980  21.443  0.1649 -0.2531 -0.3274
85366W        W86230  11.759   8.071  22.264 -0.0939  0.0760  0.2487
85367W        W86231  14.539  11.356  19.475 -0.0984 -0.1957  0.1066
85368W        W86232  12.694  10.594  19.858  0.1986  0.0943  0.3178
85369W        W86233  13.306   8.531  20.314 -0.2186 -0.0277  0.0848
85370W        W86234  13.872   8.327  20.686 -0.0809  0.3181  0.0379
85371W        W86235  12.857   8.781  22.029 -0.2221  0.0381 -0.0605
85372W        W86236  15.270  10.713  22.173  0.0250 -0.3764 -0.1454
85373W        W86237  11.064   9.008  19.582  0.1980  0.1453 -0.3909
85374W        W86238  10.127  11.366  20.780  0.0468 -0.0972  0.3543
85375W        W86239  14.358  10.010  22.445 -0.1717 -0.0168 -0.1121
85376W        W86240  12.308   9.930  21.553  0.2587 -0.1935 -0.1429
85377W        W86241  13.285  14.426  19.860  0.0306  0.0165  0.0543
85378W        W86242   8.756   7.635  20.434  0.0396  0.0970 -0.0297
85379W        W86243  13.667   8.142  21.256 -0.0488  0.2611  0.0103
85380W        W86244  12.038   7.672  21.580 -0.0917  0.1556  0.1075
85381W        W86245  12.893   8.553  23.239 -0.4809  0.2360  0.0028
85382W        W86246   8.719   7.511  19.345  0.2129 -0.1243 -0.0091
85383W        W86247  10.600   8.844  19.676 -0.0899 -0.0385 -0.0175
85384W        W86248  14.921  11.248  21.011  0.1641  0.1042  0.2473
85385W        W86249  16.579   5.747  19.792 -0.1234  0.0563  0.0646
85386W        W86250  16.740   7.980  16.915  0.0152  0.2211 -0.1906
85387W        W86251  13.185   7.383  21.143 -0.2367  0.0708  0.0706
85388W        W86252   9.277   9.689  21.150 -0.1451 -0.1268 -0.0878
85389W        W86253  14.478  13.360  18.761  0.1324  0.0252 -0.1028
85390W        W86254   8.950  11.116  18.821 -0.2752  0.1226 -0.1278
85391W        W86255  11.613   9.406  18.916 -0.0889 -0.3759  0.1181
85392W        W86256  12.747   7.605  21.092 -0.0032 -0.0415  0.0615
85393W        W86257  14.041  10.235  20.176  0.0249  0.0502  0.3414
85394W        W86258  12.926  10.203  19.528 -0.0044  0.0100 -0.2359
85395W        W86259  11.837   8.616  19.172  0.2051 -0.3262 -0.0339
85396W        W86260  14.236   9.987  18.749  0.1332 -0.2902 -0.1052
85397W        W86261  13.135  10.135  21.226  0.2024  0.0664 -0.1266
85398W        W86262   9.695   9.409  22.783 -0.0999 -0.2731  0.1542
85399W        W86263  13.349   9.925  18.544  0.1638 -0.0493 -0.1750
85400W        W86264  11.856  10.075  18.291  0.3151 -0.1891  0.3003
85401W        W86265  12.088   9.950  19.678 -0.0989 -0.0410  0.0552
85402W        W86266   7.038   7.363  19.479  0.2043 -0.4261  0.2585
85403W        W86267  13.167   6.357  19.780 -0.2799 -0.0523 -0.2633
85404W        W86268  11.941  13.275  20.257 -0.1172 -0.1667 -0.3265
85405W        W86269  10.498   9.794  18.766 -0.1695 -0.1187 -0.1558
85406W        W86270  15.339   7.619  18.111  0.0765  0.2006 -0.0974
85407W        W86271  13.013  12.033  19.337  0.0908 -0.2901 -0.2804
85408W        W86272  10.686   8.622  20.289 -0.0077 -0.3516  0.0298
85409W        W86273  12.437   9.847  19.299  0.0215  0.0945 -0.1547
85410W        W86274  12.323   9.032  20.732 -0.0291  0.5025  0.1925
85411W        W86275  16.307   6.717  19.249  0.1773 -0.0465 -0.0642
85412W        W86276  10.870  10.095  17.308 -0.1960  0.3221 -0.1833
85413W        W86277  12.639  11.803  19.002  0.2696 -0.0147  0.3803
85414W        W86278  14.045   9.225  21.942  0.1301 -0.1042 -0.0074
85415W        W86279  10.762   9.399  19.669  0.2019  0.1424  0.4358
85416W        W86280  13.331  12.849  20.412 -0.0716  0.1356 -0.0610
85417W        W86281  15.616  11.258  20.231 -0.3341 -0.0735 -0.0756
85418W        W86282  14.638  12.378  20.274  0.0417 -0.3322  0.1669
85419W        W86283  15.259   8.258  24.363 -0.0094  0.1352 -0.0572
85420W        W86284  16.119  10.133  19.317 -0.1821  0.3329 -0.1364
85421W        W86285  13.795   9.572  19.733 -0.1259  0.0986  0.3392
85422W        W86286  11.590   9.378  20.780 -0.0086 -0.3373 -0.1807
85423W        W86287  12.796   8.420  19.710 -0.0762 -0.1756  0.3888
85424W        W86288  10.902  10.884  19.669  0.0613 -0.0726 -0.2099
85425W        W86289  13.626   9.034  19.626  0.0937 -0.1167 -0.3114
85426W        W86290  12.919   9.555  19.553 -0.0579 -0.0843 -0.0232
85427W        W86291  10.943   7.354  18.859 -0.1647 -0.1869 -0.0067
85428W        W86292  10.016   7.537  20.946 -0.0738 -0.1588  0.1046
85429W        W86293  12.519   7.462  19.648  0.1470 -0.0221  0.2003
85430W        W86294  11.455   7.841  20.730 -0.1155  0.0916  0.2600
85431W        W86295  13.563   8.493  18.805 -0.0352 -0.0009  0.0527
85432W        W86296  15.171  11.846  23.121  0.0420  0.3354  0.0764
85433W        W86297  12.307   8.538  21.002 -0.4421  0.1428 -0.1609
85434W        W86298  13.670  10.568  22.209  0.0091  0.2299 -0.1174
85435W        W86299  13.627   8.280  22.335 -0.0142 -0.1343 -0.2058
85436W        W86300  15.422   8.465  19.842 -0.1506  0.2357  0.0045
85437W        W86301  13.154   8.531  23.705  0.2165 -0.0583 -0.2697
85438W        W86302  10.768  11.957  21.216  0.3770 -0.0287 -0.0069
85439W        W86303  10.236   7.747  18.644 -0.1665  0.0599 -0.0285
85440W        W86304   8.726   7.006  18.584 -0.1225  0.0647 -0.0187
85441W        W86305  14.895   7.322  21.527  0.1322  0.0446  0.1834
85442W        W86306  13.683   7.214  18.297  0.3429  0.0320 -0.0065
85443W        W86307  11.515  13.425  21.746 -0.0275 -0.2117 -0.4131
85444W        W86308  12.197   6.272  19.903 -0.2164  0.1492 -0.0730
85445W        W86309  11.042   3.464  19.646  0.0036  0.0532 -0.1665
85446W        W86310  13.898  12.318  18.860 -0.2771 -0.2492 -0.1412
85447W        W86311   9.840   8.470  19.883  0.2474 -0.0512 -0.1295
85448W        W86312   9.517   9.632  20.474  0.0220  0.1284  0.0685
85449W        W86313  15.152  10.188  21.883 -0.1922  0.2819 -0.0273
85450W        W86314  14.067   6.435  20.027  0.0312 -0.0388  0.1524
85451W        W86315  12.625   6.076  20.714 -0.1643  0.1676 -0.0772
85452W        W86316  12.044  11.560  20.898 -0.0809  0.0020 -0.1340
85453W        W86317  16.662  12.111  23.353  0.2784  0.0260 -0.3796
85454W        W86318  15.796   5.878  20.238 -0.1189  0.1366 -0.4965
85455W        W86319  10.018   9.601  20.244 -0.0003  0.1563  0.1523
85456W        W86320  15.410  10.714  21.336 -0.0016 -0.2135 -0.1484
85457W        W86321  12.179  11.012  21.566  0.1311 -0.1547 -0.0664
85458W        W86322  13.634   6.179  18.991 -0.0684  0.1082  0.0077
85459W        W86323  10.820  13.252  21.100  0.1065  0.0760 -0.0038
85460W        W86324  15.158   7.465  20.567  0.3075  0.3154 -0.0285
85461W        W86325  13.323   6.776  17.765  0.0191  0.0686 -0.2724
85462W        W86326  11.509   6.390  20.673 -0.0570  0.1686  0.0226
85463W        W86327  14.295   9.037  22.360  0.0837  0.2944  0.0807
85464W        W86328  13.837   7.050  19.456  0.0040 -0.0179  0.1142
85465W        W86329  11.886   9.990  18.925  0.0558  0.1942 -0.0933
85466W        W86330  11.548   8.838  20.442  0.2019  0.0458 -0.2928
85467W        W86331  15.589  10.906  17.294 -0.1116 -0.1454 -0.2549
85468W        W86332  12.671  11.081  19.093 -0.1449  0.1380  0.4245
85469W        W86333  12.578   6.997  18.837 -0.0899 -0.1242 -0.0223
85470W        W86334  12.494   7.514  20.175 -0.0660  0.1211  0.0499
85471W        W86335  12.816   8.683  20.913  0.0664  0.2200 -0.0680
85472W        W86336  11.080   6.018  21.568 -0.2321 -0.1506  0.0113
85473W        W86337  14.673   9.518  22.310  0.1705 -0.0057  0.2645
85474W        W86338  17.338  13.414  20.344  0.0860 -0.1061  0.0166
85475W        W86339  13.156  12.812  21.375 -0.3314 -0.2190  0.2461
85476W        W86340  10.753  11.251  22.252 -0.1252 -0.0402 -0.2886
85477W        W86341  14.568   4.943  18.636 -0.1723 -0.0324 -0.0606
85478W        W86342  14.979   8.075  19.974  0.1050  0.0095  0.1908
85479W        W86343  11.523   4.736  16.947  0.2839 -0.2313 -0.0852
85480W        W86344  13.771   9.325  19.223  0.0161  0.0508  0.1688
85481W        W86345   8.791   9.061  19.143 -0.2235 -0.1419 -0.1575
85482W        W86346  13.381   5.119  20.990  0.2748 -0.0471  0.0659
85483W        W86347  13.461   9.163  24.559 -0.0301 -0.1306 -0.2961
85484W        W86348  15.707  12.286  20.206 -0.2186  0.0328  0.2743
85485W        W86349  15.124   9.051  18.728  0.0163 -0.1457  0.0715
85486W        W86350  10.652   8.481  21.412 -0.1462 -0.2340  0.0034
85487W        W86351  11.943   6.414  19.311 -0.2391  0.0139  0.1677
85488W        W86352  12.271  12.215  20.335  0.1408 -0.0166 -0.1166
85489W        W86353  10.553   9.625  20.081  0.1285  0.1995  0.4570
85490W        W86354  13.649  10.492  21.381 -0.3283 -0.0418  0.1952
85491W        W86355  12.965   6.841  20.949 -0.3618  0.0732  0.0351
85492W        W86356  13.209   6.817  18.313 -0.2647 -0.1104  0.0269
85493W        W86357  14.325  13.338  20.978  0.3521  0.2395 -0.2431
85494W        W86358  15.658   9.981  22.034  0.0290  0.1064  0.1690
85495W        W86359  11.006  10.096  22.858 -0.0536  0.0351  0.2127
85496W        W86360  14.720   9.817  20.601  0.1913  0.0045 -0.1665
85497W        W86361  11.652   7.327  21.682  0.1217 -0.0048 -0.0132
85498W        W86362  13.738   9.158  21.001 -0.0765 -0.0069  0.2215
85499W        W86363  10.205   8.808  20.686  0.1707  0.1783  0.0570
85500W        W86364  14.777   6.081  21.122 -0.0136 -0.1062  0.1183
85501W        W86365  11.939   6.205  23.805 -0.1121  0.1002 -0.0973
85502W        W86366  12.552  10.438  18.461 -0.0113 -0.0769  0.1634
85503W        W86367  15.845  10.431  19.610 -0.1008  0.1891 -0.0524
85504W        W86368  11.381   8.767  16.807 -0.0491  0.2413 -0.0772
85505W        W86369  13.146   8.207  19.990 -0.1549  0.1693 -0.1136
85506W        W86370  14.886   6.847  21.163  0.0583 -0.0054 -0.2567
85507W        W86371  12.349   8.555  19.477  0.2339 -0.2245  0.0104
85508W        W86372  17.079  10.453  23.353 -0.0398  0.0812 -0.1491
85509W        W86373  12.809  10.452  22.661  0.2458 -0.0219  0.0633
85510W        W86374  13.900   7.834  22.446  0.2102  0.3326 -0.0615
85511W        W86375  11.457   8.929  21.679  0.1278  0.0269 -0.0041
85512W        W86376  12.324   9.194  17.525 -0.1273  0.0164 -0.0192
85513W        W86377  12.518  11.847  20.626 -0.0389  0.2238 -0.4090
85514W        W86378  11.440  10.397  20.053 -0.0965  0.1141  0.0634
85515W        W86379  11.739  11.017  18.137  0.1404 -0.0138  0.0397
85516W        W86380  14.963  12.267  20.603 -0.1634  0.0303  0.0747
85517W        W86381  14.564   7.067  20.273  0.2014  0.1565 -0.0954
85518W        W86382  14.145   8.458  21.491 -0.0695  0.0453 -0.0060
85519W        W86383  14.829  10.903  19.235 -0.1092  0.2930  0.1039
85520W        W86384  12.368   9.544  20.962  0.1615  0.0199  0.0374
85521W        W86385  12.386   6.917  20.261 -0.0910 -0.1238 -0.2421
85522W        W86386  11.901  10.353  23.715  0.3516 -0.1884  0.2698
85523W        W86387  12.810   8.283  21.296 -0.2960 -0.1961  0.2613
85524W        W86388  10.442  10.339  20.539  0.1677  0.0662 -0.1521
85525W        W86389  13.386   8.928  21.370 -0.1509  0.0483  0.5050
85526W        W86390  12.607  11.332  19.871 -0.0796  0.0124 -0.1375
85527W        W86391  10.901  11.976  15.327  0.3856 -0.0425  0.2479
85528W        W86392  11.527   9.701  18.170 -0.0982 -0.2529  0.1268
85529W        W86393   9.417   9.102  17.477 -0.1361  0.2570  0.2425
85530W        W86394  13.389   8.993  18.940  0.0623 -0.0826 -0.1001
85531W        W86395  15.207  11.147  21.429 -0.1801 -0.3072  0.2593
85532W        W86396  13.344   6.332  18.034 -0.1486 -0.1701 -0.0990
85533W        W86397  10.706   7.925  21.195  0.1122 -0.2176 -0.0574
85534W        W86398  12.360  10.299  20.656  0.0840 -0.2581  0.0044
85535W        W86399  13.128   8.107  18.830 -0.0414  0.1859  0.2593
85536W        W86400  12.033   9.344  19.571  0.4901 -0.2856  0.2188
85537W        W86401  12.116  11.055  19.006  0.0501  0.2103  0.0613
85538W        W86402  12.534   9.502  21.749 -0.0341 -0.0600 -0.0712
85539W        W86403  14.562   6.441  20.868 -0.0374  0.2744 -0.1144
85540W        W86404  11.458   4.475  20.991  0.1399  0.2165  0.0066
85541W        W86405  11.055   6.061  19.070 -0.3677  0.0638  0.4164
85542W        W86406  12.338   6.959  18.029 -0.3218 -0.1982  0.2835
85543W        W86407  10.131   8.361  20.471  0.0281 -0.1023  0.1552
85544W        W86408  14.985  10.294  20.978 -0.3724 -0.1536  0.0076
85545W        W86409  13.537   6.113  21.320 -0.1614  0.1158  0.0048
85546W        W86410   8.907   8.403  21.036 -0.5370  0.1283 -0.0471
85547W        W86411  14.550   4.463  18.719  0.0189 -0.0365 -0.0035
85548W        W86412  16.930  11.031  19.303 -0.1712  0.1054  0.3155
85549W        W86413  10.429   8.528  19.306  0.1364  0.3073  0.0383
85550W        W86414  11.409   6.325  19.270 -0.1598 -0.1040 -0.1870
85551W        W86415  11.574  10.692  19.506 -0.1878  0.0366  0.4291
85552W        W86416  13.220  11.077  21.761  0.0625  0.0755 -0.0097
85553W        W86417  14.486   7.871  20.731 -0.2246 -0.0548  0.1989
85554W        W86418  13.000   9.526  16.502 -0.0817 -0.0759 -0.1525
85555W        W86419  10.369   7.396  16.302  0.0418  0.0623  0.1830
85556W        W86420  12.809   9.867  21.520  0.5322  0.0389  0.1790
85557W        W86421  10.122   8.080  21.130  0.3809  0.0202 -0.0535
85558W        W86422  15.484   8.015  19.665 -0.0778 -0.0227 -0.0515
85559W        W86423  13.437   3.499  21.364 -0.0379 -0.1267  0.3542
85560W        W86424  14.559  10.609  24.197  0.1557  0.0954 -0.2123
85561W        W86425  15.282   7.704  18.718 -0.0102  0.0861 -0.1755
85562W        W86426  14.616   9.675  18.554 -0.0389  0.1644 -0.0947
85563W        W86427  14.535  10.745  18.838  0.1550  0.1314  0.1920
85564W        W86428  12.469   8.786  23.108  0.2341  0.1505  0.0331
85565W        W86429  12.300   8.529  19.998  0.1225 -0.5521  0.0558
85566W        W86430  15.832   6.090  19.241  0.2552  0.3102 -0.4361
85567W        W86431  13.607   5.636  20.901  0.3612  0.2345  0.2363
85568W        W86432  13.407  10.600  21.796 -0.2035 -0.2460  0.2896
85569W        W86433  11.317   8.496  19.105 -0.0530  0.1206 -0.2260
85570W        W86434  15.943  11.875  17.794  0.0056  0.3754  0.1044
85571W        W86435  11.226   6.997  22.572 -0.1309 -0.1038 -0.4370
85572W        W86436  14.666  10.396  20.581  0.0125  0.1208  0.1830
85573W        W86437  13.692   7.433  21.115  0.1902  0.2015 -0.1976
85574W        W86438  14.245  11.050  21.832 -0.0045 -0.1638  0.0775
85575W        W86439  14.984  11.976  17.845 -0.0598 -0.0116  0.0588
85576W        W86440  13.020   7.696  20.157 -0.1981  0.2032 -0.0101
85577W        W86441  12.580  11.210  23.016  0.1042  0.0697  0.0535
85578W        W86442  11.911  11.564  18.820 -0.2171 -0.0508 -0.1725
85579W        W86443  13.386  12.055  19.693  0.1392 -0.1267  0.0702
85580W        W86444  12.138   5.344  15.967  0.0354  0.2478 -0.1225
85581W        W86445  10.110  10.124  22.346 -0.1096 -0.0461 -0.3098
85582W        W86446  13.748   6.450  20.456 -0.2502 -0.4265 -0.0141
85583W        W86447  12.474   6.276  22.432 -0.0475 -0.0695  0.0937
85584W        W86448  11.444  10.315  19.002  0.0427 -0.1640 -0.0962
85585W        W86449  11.614  11.371  21.831 -0.1060 -0.1819  0.0384
85586W        W86450  13.881  12.874  19.737 -0.1476  0.2230 -0.0896
85587W        W86451  12.011   9.357  20.557  0.1611 -0.0227  0.3072
85588W        W86452  11.440   7.044  22.119  0.0951  0.1381  0.2494
85589W        W86453   9.955   7.550  20.458 -0.0667  0.0239  0.1703
85590W        W86454  14.966   7.506  20.067  0.2018  0.1498  0.0172
85591W        W86455  15.014  11.104  22.103  0.0980  0.1819 -0.1650
85592W        W86456  12.790  11.908  22.791 -0.0526 -0.2013  0.0451
85593W        W86457  12.489  12.611  20.237 -0.1347 -0.1106  0.2756
85594W        W86458  14.406   9.378  19.834 -0.3385 -0.2516 -0.0403
85595W        W86459  11.820   7.331  20.725 -0.0498  0.1181 -0.0839
85596W        W86460  12.854  10.402  20.958 -0.1761 -0.1582 -0.0096
85597W        W86461  12.490  12.086  21.417  0.2921 -0.0582 -0.0358
85598W        W86462  14.089  12.311  20.918 -0.1235  0.0377 -0.0817
85599W        W86463  15.271   9.601  19.966 -0.0799  0.0505 -0.0437
85600W        W86464   9.491   9.624  19.184  0.1808  0.3397  0.0365
85601W        W86465  13.707  10.150  18.855 -0.0214 -0.2058  0.0289
85602W        W86466  15.241   6.339  18.330  0.1105 -0.1690 -0.1274
85603W        W86467  11.557   7.626  22.071 -0.0812  0.1708 -0.0480
85604W        W86468  14.627   9.079  21.134  0.1655  0.3430  0.0889
85605W        W86469  14.300   9.556  17.926  0.0812  0.1680  0.4144
85606W        W86470  12.411  10.143  19.950  0.2864 -0.0373  0.1999
85607W        W86471  14.148   9.860  21.230 -0.0437  0.0106  0.1195
85608W        W86472  16.447  10.419  24.285  0.2102  0.0977 -0.0831
85609W        W86473  12.736   8.262  20.276 -0.0287 -0.1552 -0.0603
85610W        W86474  15.065  11.375  22.848 -0.0116 -0.2687 -0.0675
85611W        W86475  13.318   9.415  21.185  0.1726  0.4207  0.2045
85612W        W86476  11.158   9.248  19.109 -0.0164 -0.1522  0.2263
85613W        W86477  16.976  14.356  18.077 -0.1863  0.3823  0.1245
85614W        W86478  11.335   8.340  21.612  0.2896  0.3024  0.1106
85615W        W86479  11.970   6.590  20.233  0.3530 -0.1789  0.3120
85616W        W86480  13.457   8.952  17.924  0.1983 -0.0463 -0.2254
85617W        W86481  13.714   9.701  20.231  0.1184 -0.2821  0.2243
85618W        W86482  11.151   8.167  20.096  0.1280 -0.1706  0.1849
85619W        W86483  11.373   6.868  21.632  0.0914 -0.0448  0.0299
85620W        W86484  14.281  11.850  19.577  0.0350  0.0878  0.0675
85621W        W86485  11.325   4.388  21.527 -0.0466  0.1938 -0.0136
85622W        W86486  12.188   6.812  21.318  0.0129 -0.0118 -0.0702
85623W        W86487   9.949   8.599  21.446  0.0949  0.0914 -0.0481
85624W        W86488  11.500   8.935  18.916 -0.0134  0.0266 -0.0250
85625W        W86489  11.309  12.068  21.279 -0.2627 -0.2781  0.0135
85626W        W86490  12.810   9.035  20.502 -0.0714 -0.0086 -0.1394
85627W        W86491  11.531   5.106  21.121  0.0597 -0.4454 -0.1584
85628W        W86492  11.986   8.786  19.641  0.1242  0.0008 -0.0534
85629W        W86493  12.031  11.560  19.848 -0.4373 -0.0724 -0.0416
85630W        W86494  13.741   9.114  18.576  0.4141  0.0067 -0.4305
85631W        W86495  11.584   9.016  23.632 -0.4042  0.1936  0.3038
85632W        W86496  14.319   9.282  18.386  0.3524 -0.1660  0.1507
85633W        W86497  11.944   7.637  22.554 -0.3480  0.1048  0.2957
85634W        W86498  13.388   8.334  20.849  0.0042  0.1549 -0.1137
85635W        W86499  13.686  10.626  18.535  0.3387 -0.0370 -0.1549
85636W        W86500  11.453   7.877  17.941  0.0332 -0.1828  0.0451
85637W        W86501  13.410   7.011  19.195  0.2045 -0.1043 -0.1770
85638W        W86502  13.887   5.823  22.870  0.1677 -0.1106 -0.1742
85639W        W86503   9.279   9.198  18.749  0.0369  0.1002  0.3035
85640W        W86504   9.012  10.622  18.697 -0.1769  0.1720 -0.0796
85641W        W86505  11.588   9.341  20.277  0.0528  0.0150  0.1028
85642W        W86506   9.663   6.277  18.812 -0.1402  0.0097 -0.3180
85643W        W86507  14.961  10.360  21.499  0.2589 -0.1100  0.4066
85644W        W86508  14.121   7.442  20.717 -0.1220  0.1320 -0.0130
85645W        W86509  11.715  10.448  20.878  0.1972  0.1962  0.1783
85646W        W86510  12.945   8.892  19.423  0.1815 -0.0184  0.3172
85647W        W86511  12.421   9.145  24.933  0.1162  0.1750 -0.0871
85648W        W86512  12.121  11.114  22.864  0.1686 -0.2724 -0.1481
85649W        W86513  16.148  10.197  23.377 -0.4872  0.0006 -0.0342
85650W        W86514  12.936   9.244  21.641  0.0313 -0.0009  0.2403
85651W        W86515  13.232   8.963  20.901  0.1281 -0.1118 -0.1297
85652W        W86516  14.161   6.286  22.724  0.0111  0.0952  0.2045
85653W        W86517  12.048   4.970  18.647  0.0711 -0.2333 -0.2568
85654W        W86518  14.008   7.055  21.181  0.2260  0.0179 -0.0885
85655W        W86519  11.125  10.543  20.970 -0.0536  0.0362 -0.2370
85656W        W86520  11.379   5.906  19.598  0.1406  0.0473  0.2278
85657W        W86521  13.925   8.663  22.443  0.0113 -0.0830 -0.0490
85658W        W86522  11.975   9.837  20.658 -0.0881 -0.1877  0.1538
85659W        W86523  12.786   9.514  20.538  0.1653 -0.0366 -0.0271
85660W        W86524  13.099  11.126  21.109  0.1329  0.4276 -0.1396
85661W        W86525  11.608  12.300  22.258 -0.0387  0.1776 -0.0991
85662W        W86526  10.976   8.734  18.925  0.2660 -0.1566 -0.2348
85663W        W86527  15.392  12.961  16.840 -0.1740  0.0002 -0.1103
85664W        W86528  14.974   9.452  21.916  0.1768  0.2355 -0.1142
85665W        W86529  15.017  10.805  21.703  0.2056  0.2420  0.3402
85666W        W86530  13.317  10.853  20.728 -0.0812  0.2789 -0.0455
85667W        W86531  16.444  13.046  19.483  0.3385  0.3687 -0.0286
85668W        W86532  11.089   9.299  21.536  0.1120 -0.1467 -0.2381
85669W        W86533  14.665  10.297  18.336  0.0327  0.0941 -0.1611
85670W        W86534  13.236  10.619  19.647  0.0710  0.3823  0.1124
85671W        W86535  13.275   9.702  21.582 -0.2902 -0.0416  0.0145
85672W        W86536  11.599   7.971  19.838  0.1428  0.0443  0.1924
85673W        W86537   8.723   8.008  18.961 -0.1853 -0.0310 -0.3367
85674W        W86538   9.762   9.243  19.441  0.1236 -0.1047  0.0984
85675W        W86539  10.660   9.315  17.311  0.0743  0.1012  0.0360
85676W        W86540  11.274   7.178  20.049  0.1486  0.1144  0.3211
85677W        W86541  13.327   6.414  19.296  0.0863  0.1949  0.1804
85678W        W86542  15.773  12.804  21.417  0.1960 -0.1348 -0.0999
85679W        W86543  13.189   9.614  20.284  0.0204 -0.0070  0.1750
85680W        W86544  14.435  10.592  21.049  0.4479 -0.1630  0.1358
85681W        W86545  17.219   9.501  20.912 -0.3108 -0.0187 -0.1744
85682W        W86546  12.271  10.044  23.762 -0.0101 -0.1080 -0.0206
85683W        W86547  15.846  11.938  20.894 -0.1688 -0.0999  0.0221
85684W        W86548  14.801   9.893  22.711 -0.0756  0.0162  0.1127
85685W        W86549  13.844   7.291  17.666  0.1431  0.2914 -0.2251
85686W        W86550  14.598  11.401  18.367  0.3861 -0.1153  0.0154
85687W        W86551  13.338   6.159  21.770  0.1237 -0.0441  0.0947
85688W        W86552  10.145   4.959  19.104 -0.1150 -0.1882 -0.3976
85689W        W86553   9.711   8.041  20.255 -0.2118 -0.1080  0.3537
85690W        W86554  13.628  12.050  20.848 -0.0070 -0.3994 -0.0789
85691W        W86555  14.547  11.241  22.615  0.0295 -0.0851  0.1599
85692W        W86556  12.164  12.371  15.258  0.2080  0.0006 -0.2400
85693W        W86557  10.840   7.661  19.487  0.2808 -0.2235 -0.0804
85694W        W86558  12.940   9.360  18.527 -0.1401 -0.2056  0.0900
85695W        W86559   9.734   8.659  20.403 -0.0121  0.0466 -0.1153
85696W        W86560  13.022   7.550  20.673  0.0140  0.0827 -0.0568
85697W        W86561  13.743   8.267  19.707  0.1177 -0.2749  0.3027
85698W        W86562  14.528  10.720  21.668  0.1648 -0.1760  0.0728
85699W        W86563  12.959   9.702  22.006  0.1174  0.1863 -0.2596
85700W        W86564  13.283   9.521  18.833 -0.4754 -0.0244 -0.0310
85701W        W86565  11.035   6.583  18.368  0.3417 -0.1057  0.1814
85702W        W86566  13.375   9.723  22.532 -0.1072 -0.1657  0.0090
85703W        W86567  13.310   7.560  23.642  0.0032  0.1364  0.2009
85704W        W86568  10.997   9.380  22.447  0.2332 -0.0808  0.1026
85705W        W86569  11.501   9.846  19.973 -0.4502 -0.0378 -0.0810
85706W        W86570   9.248   7.102  18.669  0.3198 -0.2605 -0.1527
85707W        W86571  13.000   7.822  21.482 -0.0399 -0.1958  0.0298
85708W        W86572  13.911   8.305  19.220  0.0311  0.1021  0.0661
85709W        W86573  12.338   5.858  20.325 -0.4744 -0.1220 -0.0389
85710W        W86574   8.808  12.164  19.092 -0.0245 -0.1058 -0.2033
85711W        W86575  14.980   9.693  19.592  0.0815  0.0143 -0.0535
85712W        W86576  15.994   9.039  20.108  0.2014  0.2606  0.2160
85713W        W86577  14.180   9.820  20.663 -0.0855  0.1705 -0.4273
85714W        W86578  13.282   7.907  21.063  0.4961 -0.0466  0.0209
85715W        W86579  14.376   5.376  18.802  0.3401  0.0997 -0.0320
85716W        W86580  14.443  10.205  16.313 -0.0291 -0.2257 -0.0589
85717W        W86581  16.100   6.107  20.548 -0.0550  0.1729  0.1670
85718W        W86582  15.137  11.686  17.420  0.1045 -0.0690  0.0490
85719W        W86583  15.160   9.744  21.078 -0.0885 -0.0198  0.0998
85720W        W86584  17.119  11.194  21.168  0.0306 -0.0164  0.0280
85721W        W86585  12.943   6.214  22.105  0.1766 -0.0168 -0.1045
85722W        W86586  14.016   9.340  20.480 -0.0516  0.1874  0.1712
85723W        W86587  13.904   9.702  21.754  0.3200 -0.0425 -0.0774
85724W        W86588  13.118   7.752  22.787 -0.1123 -0.4949  0.0129
85725W        W86589  12.541   7.713  23.335 -0.0026 -0.0067 -0.2385
85726W        W86590  13.891   8.324  17.977 -0.1407  0.1173 -0.1985
85727W        W86591  11.738   9.699  19.402  0.1064 -0.2024  0.2116
85728W        W86592  14.308   4.039  18.177  0.1108 -0.0203  0.1706
85729W        W86593  14.761   9.008  22.163  0.1422 -0.0066 -0.1259
85730W        W86594  13.163  13.499  22.497 -0.2335  0.0782  0.0887
85731W        W86595  14.410   8.565  22.294  0.0684 -0.1146 -0.1676
85732W        W86596  15.497  11.943  21.521  0.0439 -0.0078  0.1324
85733W        W86597  14.597  10.167  21.273  0.0003 -0.2549  0.0955
85734W        W86598  12.797  10.877  23.409 -0.0338  0.1557  0.0318
85735W        W86599  14.724  10.447  21.995  0.0994  0.2358  0.1216
85736W        W86600  13.612   7.810  21.990  0.0651  0.1566 -0.0267
85737W        W86601  14.110   7.540  18.051 -0.1428 -0.1832 -0.0133
85738W        W86602  14.533  12.513  20.755  0.4457  0.1972  0.2419
85739W        W86603  13.874   9.458  21.354  0.0316 -0.1823  0.1044
85740W        W86604  12.637  10.904  21.366  0.0252 -0.1412 -0.2641
85741W        W86605  10.122   9.643  21.209 -0.1330  0.3453  0.0800
85742W        W86606  12.634  11.771  17.452 -0.0445  0.0265 -0.1393
85743W        W86607  13.293  11.430  22.488 -0.1614  0.3834 -0.0996
85744W        W86608  10.779  12.709  20.924  0.0906  0.0618  0.2901
85745W        W86609  12.593   7.873  18.977 -0.0083 -0.2247  0.2525
85746W        W86610  12.923  10.090  27.227  0.3599  0.2225 -0.0891
85747W        W86611   7.867   7.313  23.529  0.2010 -0.0259 -0.0664
85748W        W86612  14.685   9.614  24.578 -0.2690  0.2469  0.0188
85749W        W86613  13.340  11.879  25.058 -0.3734  0.1720 -0.1429
85750W        W86614  12.414  11.438  23.854  0.0694 -0.3481 -0.2379
85751W        W86615  11.461  11.005  23.708  0.2189  0.1424 -0.0298
85752W        W86616  13.659  11.602  22.988  0.0335 -0.0512 -0.0786
85753W        W86617  13.207  11.331  24.270  0.0263  0.0360 -0.0768
85754W        W86618  11.981  10.148  26.065 -0.0377 -0.1100  0.0454
85755W        W86619  11.526   7.980  26.513  0.0791 -0.0559  0.3328
85756W        W86620  10.962   8.161  24.331  0.2540 -0.4498  0.1987
85757W        W86621  14.055   8.166  25.716  0.3909  0.1771 -0.0488
85758W        W86622  11.532   9.505  21.761 -0.0712 -0.2063 -0.1928
85759W        W86623  13.679   9.191  25.334  0.2054 -0.1482 -0.0670
85760W        W86624  13.381   7.676  25.483  0.1139  0.1035 -0.0442
85761W        W86625   9.692   9.897  25.175 -0.2116 -0.1067  0.0374
85762W        W86626  15.017  11.725  21.334 -0.1905 -0.0136 -0.0202
85763W        W86627  10.435   5.995  22.903  0.0710  0.1544 -0.2328
85764W        W86628  14.887   9.284  22.766 -0.0006 -0.2276  0.0737
85765W        W86629  16.477   6.514  25.932  0.0216 -0.1999  0.2372
85766W        W86630  16.485   9.283  25.917 -0.1378 -0.2732 -0.0778
85767W        W86631  11.922  10.003  23.365 -0.0934  0.0495  0.2494
85768W        W86632  13.409  10.719  23.124  0.1776 -0.4546  0.2157
85769W        W86633  11.847  12.228  23.728 -0.0070 -0.0418 -0.1926
85770W        W86634  14.518   8.712  25.073 -0.2516  0.4968 -0.1431
85771W        W86635  14.092   7.622  24.926 -0.1623  0.1529 -0.3227
85772W        W86636  15.977   9.058  25.938  0.0826 -0.1433 -0.1823
85773W        W86637  12.507  10.567  22.107 -0.0002 -0.0288  0.1923
85774W        W86638  14.783   9.660  28.392  0.1374  0.2352  0.1740
85775W        W86639  13.091   8.460  24.386 -0.1079  0.0924  0.2085
85776W        W86640  12.923  11.786  21.378 -0.4212  0.1988  0.1372
85777W        W86641  13.090  10.798  26.369  0.0463  0.1355  0.1136
85778W        W86642  11.697   9.086  24.950  0.2406  0.0058  0.1739
85779W        W86643  13.206   9.495  23.612 -0.2488 -0.2812  0.0079
85780W        W86644  10.558   8.844  26.283  0.1414 -0.1067 -0.0284
85781W        W86645  15.047   7.317  24.573 -0.2912 -0.2204  0.1130
85782W        W86646  11.877   7.772  23.903  0.1928 -0.2711  0.0330
85783W        W86647  14.385   9.515  21.589  0.1215 -0.3537  0.1928
85784W        W86648  13.195  11.539  24.739  0.0567  0.2883  0.0583
85785W        W86649  14.354   8.914  24.559 -0.2386 -0.2329  0.1302
85786W        W86650  11.692   5.640  22.818  0.3060 -0.3729  0.0864
85787W        W86651  13.276   8.439  22.767 -0.3756  0.0890  0.1988
85788W        W86652  12.690  11.340  22.554  0.1257 -0.1249 -0.0053
85789W        W86653  13.310   8.855  23.212 -0.3473  0.0295 -0.1436
85790W        W86654  10.718  11.379  26.646  0.1004  0.0715 -0.0293
85791W        W86655  12.614  11.472  24.414 -0.0218 -0.1182 -0.2252
85792W        W86656  15.464   7.167  24.322  0.2051 -0.2574  0.2422
85793W        W86657  14.304  10.111  23.914  0.3581 -0.0437  0.1647
85794W        W86658  14.289   8.132  24.100 -0.0720  0.3071  0.0500
85795W        W86659  13.489   8.059  23.661 -0.1627 -0.0636  0.1434
85796W        W86660  12.424   9.723  24.883 -0.0895 -0.1715  0.2542
85797W        W86661  15.196   6.410  24.950  0.2408 -0.0715  0.1171
85798W        W86662  13.326  10.119  23.777 -0.1550  0.1251  0.0930
85799W        W86663  13.284   6.624  22.896  0.1002 -0.2457 -0.2837
85800W        W86664  13.452   9.675  22.022  0.3218  0.2343 -0.0331
85801W        W86665   9.965   9.188  20.513 -0.0103  0.0533 -0.0360
85802W        W86666  12.223   6.692  22.677  0.1225 -0.2266  0.0498
85803W        W86667  14.945  10.758  21.183  0.0218  0.1483 -0.1743
85804W        W86668  10.313   7.958  22.198 -0.1045  0.1297  0.2288
85805W        W86669  15.331   9.761  21.682 -0.0442  0.0395  0.1495
85806W        W86670  14.306   7.899  22.980  0.1582  0.1963  0.1565
85807W        W86671  11.941   9.597  24.836  0.0504 -0.1882  0.2773
85808W        W86672  12.594  10.054  23.006 -0.1816  0.1363  0.0751
85809W        W86673  13.430  11.453  23.853  0.0614 -0.0700  0.0512
85810W        W86674  12.289   9.531  24.462 -0.0756 -0.1003  0.1337
85811W        W86675  12.043   8.161  26.515 -0.2060 -0.0946 -0.3334
85812W        W86676  12.637   8.395  22.362  0.1573  0.0824 -0.2534
85813W        W86677  13.141   7.575  21.912  0.0473  0.0401  0.0352
85814W        W86678  11.419   9.492  24.817 -0.1926  0.0913 -0.1380
85815W        W86679  12.355  11.629  22.850 -0.0048  0.1273 -0.5035
85816W        W86680  14.097  10.818  25.582 -0.1266 -0.1661 -0.1013
85817W        W86681  12.670   7.137  21.266  0.1380 -0.1397  0.2089
85818W        W86682  14.528  11.197  25.657  0.0121  0.0258 -0.2028
85819W        W86683  11.654   7.950  27.959  0.2029  0.2179 -0.0631
85820W        W86684  12.976  10.945  22.944  0.0406  0.0818 -0.0317
85821W        W86685  14.817   8.355  26.296  0.0123  0.1128  0.0442
85822W        W86686  12.702  10.498  25.317 -0.3047  0.0277 -0.1303
85823W        W86687  12.683   7.197  26.102 -0.0238 -0.1709  0.1256
85824W        W86688  11.539  11.983  23.437  0.0733 -0.1639 -0.1042
85825W        W86689  13.921   9.991  23.181  0.0035  0.1970  0.1449
85826W        W86690  13.343   8.853  24.118 -0.1496 -0.1350 -0.0751
85827W        W86691  13.059   7.132  22.182 -0.0263 -0.0009 -0.1993
85828W        W86692  12.381   8.766  24.003  0.5004  0.0388  0.1781
85829W        W86693  13.723   8.561  22.953 -0.1346  0.0904  0.0359
85830W        W86694  13.992   8.026  24.518  0.1112  0.0945  0.0938
85831W        W86695  13.362   7.447  24.485 -0.1386  0.1957  0.0107
85832W        W86696  12.918  11.506  25.200 -0.1168 -0.0372 -0.0846
85833W        W86697  15.835   5.673  26.205  0.0475 -0.1460 -0.0887
85834W        W86698  12.620  10.402  28.061  0.1682 -0.3237 -0.0236
85835W        W86699  13.895   8.812  25.642  0.1424 -0.2437  0.0494
85836W        W86700  10.425   9.170  22.416  0.0524 -0.1036  0.0077
85837W        W86701  14.818   9.898  27.085 -0.1759 -0.0148  0.0564
85838W        W86702  12.341   9.258  23.325 -0.2288 -0.1364  0.4717
85839W        W86703  10.863  10.242  23.337 -0.4231  0.0878 -0.1002
85840W        W86704  11.744  10.027  27.036  0.2991  0.0185  0.0291
85841W        W86705  13.881   9.987  22.240 -0.0711 -0.0634 -0.0376
85842W        W86706  14.967   7.151  22.047  0.2668  0.0785 -0.1664
85843W        W86707  13.772  10.169  20.814 -0.2006  0.1056  0.3001
85844W        W86708  12.742   9.267  22.154 -0.0964 -0.1536  0.0155
85845W        W86709  14.418   5.840  23.234 -0.1505 -0.1811 -0.2701
85846W        W86710  14.170  10.866  23.444 -0.2490 -0.2767  0.1252
85847W        W86711  11.414  10.082  22.505 -0.1147  0.2976 -0.3325
85848W        W86712  11.733   6.349  24.262 -0.0202  0.1363 -0.0241
85849W        W86713  12.439  10.696  22.961 -0.0849  0.0951 -0.0449
85850W        W86714  14.554   8.450  24.469 -0.0533  0.0565  0.0648
85851W        W86715  11.891  12.240  26.528  0.0732 -0.3575  0.4297
85852W        W86716  13.265  10.957  22.222  0.0007 -0.2339 -0.2103
85853W        W86717  15.353   8.236  27.256 -0.1677 -0.0032 -0.4335
85854W        W86718  15.334   7.486  22.943 -0.0200  0.0695 -0.0762
85855W        W86719   9.914   8.237  22.026  0.1325 -0.0945  0.1575
85856W        W86720  13.239  11.684  25.503  0.0049 -0.0865 -0.5813
85857W        W86721  13.729  11.056  23.956 -0.1736 -0.0504  0.2840
85858W        W86722  12.303  11.023  23.386 -0.2152  0.0584 -0.1133
85859W        W86723  13.183  14.193  26.679  0.2111 -0.3239  0.3579
85860W        W86724  13.645   4.188  21.694 -0.0637 -0.1926  0.1585
85861W        W86725  11.118  11.516  22.444  0.1607  0.2017 -0.0732
85862W        W86726  16.253   9.262  27.992  0.3307  0.1531  0.0454
85863W        W86727  14.263  10.368  25.496 -0.0848  0.0663 -0.0338
85864W        W86728  13.650   8.070  22.788 -0.3402  0.3228 -0.0373
85865W        W86729  14.769   8.055  24.349 -0.2313  0.1880 -0.0403
85866W        W86730  15.164   8.270  22.519  0.0116 -0.0775  0.4892
85867W        W86731  11.190  10.629  21.659 -0.0193  0.1195 -0.1774
85868W        W86732  15.099  10.425  22.824  0.0817 -0.2759 -0.1434
85869W        W86733  15.633  10.712  24.487  0.3266 -0.0442 -0.4282
85870W        W86734  13.121   7.957  25.088 -0.1339 -0.2229 -0.2731
85871W        W86735  15.729  10.839  22.339  0.1189 -0.2992  0.0505
85872W        W86736  12.813  10.140  23.687  0.0022  0.1606 -0.0570
85873W        W86737  12.938   9.210  25.744 -0.0771 -0.1274  0.0289
85874W        W86738  16.159  14.488  23.841 -0.0781  0.2523  0.0974
85875W        W86739  13.717  12.958  22.591 -0.0919  0.1316 -0.1245
85876W        W86740  10.652   9.702  26.128 -0.0793 -0.0180  0.2299
85877W        W86741  12.954   6.405  22.535  0.0052  0.2514  0.0894
85878W        W86742  13.865  12.268  24.718  0.0009 -0.0763  0.1756
85879W        W86743  13.744   7.596  22.878 -0.2277 -0.1727  0.3044
85880W        W86744  16.157  11.500  24.395  0.1797  0.0569 -0.0650
85881W        W86745  12.717   8.909  23.535  0.1913  0.1801  0.0117
85882W        W86746  13.783   9.226  22.792 -0.1341 -0.2482 -0.4599
85883W        W86747  15.646   8.652  25.182 -0.3831  0.2505 -0.0145
85884W        W86748  14.354  10.018  21.679 -0.1242 -0.0839 -0.1294
85885W        W86749  12.104  10.322  25.596 -0.0881 -0.2165 -0.0804
85886W        W86750  14.895   6.176  23.999 -0.0448 -0.2706  0.0051
85887W        W86751  13.923   6.443  24.311 -0.1171 -0.2253  0.0897
85888W        W86752  12.157  10.145  22.027  0.0536  0.0027  0.1177
85889W        W86753  11.260   7.923  22.487 -0.2559 -0.1392 -0.2991
85890W        W86754  15.224  11.678  23.748  0.1799 -0.1510  0.2009
85891W        W86755  12.418   8.218  23.307 -0.0046  0.0264 -0.2294
85892W        W86756  14.065   7.065  24.313  0.0151 -0.1440  0.1487
85893W        W86757  15.507  11.904  25.018  0.3279  0.1999  0.0312
85894W        W86758  11.901  11.938  24.508 -0.0216 -0.0992 -0.0047
85895W        W86759  11.786   9.421  25.355  0.0224  0.0265 -0.2600
85896W        W86760  12.853  10.643  21.754 -0.0702 -0.1202 -0.0064
85897W        W86761  12.417   7.844  24.843  0.3372 -0.1546 -0.2100
85898W        W86762  12.393  10.235  22.503 -0.0803 -0.0651  0.0012
85899W        W86763  10.315   9.244  20.974  0.0876 -0.1676 -0.2736
85900W        W86764  13.203  10.647  25.323  0.0797  0.1778 -0.1648
85901W        W86765  12.552   8.357  24.243  0.3293  0.1275 -0.3248
85902W        W86766  12.279   8.715  22.111 -0.4244 -0.2248 -0.3644
85903W        W86767  12.509  11.009  21.945 -0.0197  0.0380 -0.1950
85904W        W86768  11.112   7.482  22.304 -0.3543  0.2449  0.4506
85905W        W86769  12.972   9.903  23.309  0.0471  0.0972  0.0463
85906W        W86770  13.291   8.170  25.479 -0.1465 -0.1457 -0.0121
85907W        W86771  13.511  10.507  26.464  0.0698 -0.1768  0.0100
85908W        W86772  10.548   9.249  27.231  0.0052  0.1946  0.1569
85909W        W86773  11.619   8.972  25.524  0.1345  0.0372 -0.0515
85910W        W86774  13.770   8.323  24.885 -0.2652  0.2275  0.0126
85911W        W86775  10.267   5.853  21.318  0.1300  0.0579 -0.0498
85912W        W86776  12.857   8.802  24.088  0.2644  0.0617 -0.0218
85913W        W86777  14.434   9.960  25.056 -0.0705  0.3082  0.1450
85914W        W86778  13.017  10.263  24.221  0.1009  0.1240  0.1194
85915W        W86779  13.236   9.174  22.036 -0.2437  0.1973  0.3116
85916W        W86780  13.635  10.244  22.807 -0.2194  0.0236 -0.3020
85917W        W86781  14.517  11.728  25.034  0.3143  0.1286  0.1841
85918W        W86782  15.529  11.028  21.808  0.3549  0.0180 -0.2944
85919W        W86783  14.641   6.071  21.897 -0.1207 -0.0502 -0.0157
85920W        W86784  10.707   8.250  25.911 -0.1966  0.1211  0.0775
85921W        W86785  14.474   9.161  23.081 -0.2631 -0.0781 -0.1358
85922W        W86786  14.619  13.520  24.783  0.0411  0.1545  0.1755
85923W        W86787  12.284   6.890  26.335 -0.2627  0.1262 -0.0058
85924W        W86788   9.450  10.964  25.147 -0.1091  0.0912  0.0391
85925W        W86789  13.475   7.815  23.195  0.1706  0.3465 -0.2180
85926W        W86790  14.811   9.808  21.579  0.1795  0.0620 -0.2322
85927W        W86791  13.329  10.966  24.624 -0.1168 -0.1748  0.0664
85928W        W86792  13.737  11.027  24.875 -0.2437 -0.0589 -0.1249
85929W        W86793  12.072   8.699  24.896 -0.1658  0.1909  0.0291
85930W        W86794  11.942   7.192  22.133  0.1895 -0.1448 -0.0890
85931W        W86795  15.856   9.637  25.262  0.2568  0.1163 -0.4617
85932W        W86796  14.110   8.724  21.949 -0.0976 -0.2092 -0.5601
85933W        W86797  13.891   6.331  25.038 -0.0727  0.1989 -0.0793
85934W        W86798  12.635  10.098  21.938  0.0305  0.3797  0.0461
85935W        W86799  13.565   8.871  24.996  0.1778  0.1732 -0.0369
85936W        W86800  14.461   7.220  21.296 -0.2805 -0.2894  0.1623
85937W        W86801  10.446  10.122  19.985  0.0856 -0.5091  0.1132
85938W        W86802  15.798  10.247  24.669  0.1769  0.1295  0.2002
85939W        W86803  13.940   7.256  26.601 -0.1177 -0.0318 -0.0628
85940W        W86804  14.105   4.713  24.848 -0.0430 -0.0260 -0.1649
85941W        W86805  11.356   8.290  24.733  0.0195  0.1243  0.0958
85942W        W86806  14.702   8.076  22.400 -0.0753  0.2652 -0.0706
85943W        W86807  14.860   6.852  26.401 -0.1676 -0.1810  0.0353
85944W        W86808   9.983   9.726  23.221  0.0537 -0.0197  0.0378
85945W        W86809  13.153   7.176  22.655 -0.2778  0.0183  0.0952
85946W        W86810  12.323   7.547  21.958 -0.1138 -0.2117  0.1135
85947W        W86811  14.240   7.188  25.203 -0.0824 -0.0730  0.1387
85948W        W86812  16.987  10.764  23.717 -0.0336 -0.0365 -0.0355
85949W        W86813  11.559   8.721  24.659 -0.1051 -0.0433 -0.3684
85950W        W86814  15.303   9.060  23.966 -0.0530  0.0301  0.1374
85951W        W86815   9.478   7.293  21.157  0.0727 -0.1659  0.4761
85952W        W86816  11.440   8.864  26.025 -0.1727 -0.0310 -0.0523
85953W        W86817  12.815   5.471  24.685  0.3626 -0.1752  0.2100
85954W        W86818  15.635   9.999  19.707 -0.1583 -0.0622  0.0572
85955W        W86819  12.138   9.589  26.214  0.3540  0.0420  0.1105
85956W        W86820  12.802  10.987  25.218  0.4165 -0.2137  0.0186
85957W        W86821   9.517  10.019  23.423  0.0886 -0.2037 -0.2687
85958W        W86822  11.281   5.083  24.944 -0.5442 -0.1292 -0.0851
85959W        W86823  12.849   8.999  22.856 -0.0751  0.1929  0.1850
85960W        W86824  15.728   8.153  24.561 -0.0701  0.2064  0.1013
85961W        W86825  14.724   9.972  22.081  0.2968 -0.1632  0.2524
85962W        W86826  12.393   9.837  20.387 -0.1473  0.0937 -0.0486
85963W        W86827  15.646   9.444  19.466  0.2330 -0.1531 -0.2852
85964W        W86828  13.639   9.662  26.903 -0.3025 -0.2143 -0.0939
85965W        W86829  10.233   9.603  25.899  0.2381 -0.2359 -0.0145
85966W        W86830  14.749  10.005  26.298  0.2013 -0.3226  0.1080
85967W        W86831  14.446   9.830  23.094  0.2854  0.0734  0.0988
85968W        W86832  11.646  12.691  25.155 -0.1162  0.4833  0.1116
85969W        W86833  12.315   7.229  21.625  0.0518 -0.4565  0.2851
85970W        W86834  13.813   9.475  22.313 -0.0153  0.0168 -0.0572
85971W        W86835  13.476   8.605  26.885  0.2573  0.0955 -0.3758
85972W        W86836  12.448  10.042  26.346 -0.0344 -0.0828  0.0100
85973W        W86837  16.744   7.740  24.084 -0.0116 -0.3107  0.2917
85974W        W86838  13.264  11.126  23.326 -0.1477  0.1625 -0.2459
85975W        W86839  11.255  10.054  21.645  0.2689 -0.0781  0.1407
85976W        W86840  12.556   7.816  24.320 -0.0816 -0.1033  0.2280
85977W        W86841  12.208   8.973  26.825 -0.3734  0.1220  0.1199
85978W        W86842  12.482   8.814  22.585  0.1244 -0.1202  0.0648
85979W        W86843  15.062   9.449  24.172 -0.1311 -0.0957  0.1770
85980W        W86844  10.256   8.916  25.340  0.0695  0.1304  0.0581
85981W        W86845  11.025  12.376  22.542 -0.2227 -0.0944  0.0338
85982W        W86846  15.231   8.828  24.413  0.0053  0.3527  0.1754
85983W        W86847  15.441   5.735  24.340 -0.2402 -0.1664  0.0631
85984W        W86848  14.182   9.027  25.271 -0.0231  0.0760 -0.0069
85985W        W86849  14.690  10.407  22.484 -0.1557 -0.1056 -0.0384
85986W        W86850  13.215   9.092  20.247  0.1804 -0.0839 -0.1812
85987W        W86851  12.198  10.956  27.563 -0.4786  0.2985 -0.0292
85988W        W86852  13.589   8.931  26.461 -0.0953  0.1591 -0.2105
85989W        W86853  13.007   8.298  26.066 -0.0033  0.0257 -0.0402
85990W        W86854  11.839  10.089  24.163  0.0386  0.2867 -0.0646
85991W        W86855  13.626   8.425  24.081 -0.3238 -0.3225  0.0263
85992W        W86856  13.399  11.833  24.241  0.0700 -0.0358 -0.0761
85993W        W86857  12.530  10.732  24.810  0.2102 -0.1257 -0.1478
85994W        W86858  14.171   9.379  20.979  0.1519  0.1046  0.0280
85995W        W86859  12.504   9.529  25.479 -0.2654 -0.3565 -0.1153
85996W        W86860  14.611   8.887  19.608 -0.2651 -0.1419  0.2301
85997W        W86861  13.968  10.267  24.788  0.2700  0.0478 -0.2631
85998W        W86862  13.674  11.849  25.871 -0.4410  0.1519 -0.1124
85999W        W86863  12.777   9.839  24.509  0.1764  0.0982  0.0077
86000W        W86864  12.179   8.190  18.572  0.0431  0.0531  0.1024
86001W        W86865  11.652  10.540  26.432 -0.0748  0.1696  0.2866
86002W        W86866  15.747   6.552  19.089  0.0406  0.3537  0.3158
86003W        W86867  13.468   7.214  25.742 -0.0271 -0.0785 -0.0484
86004W        W86868  15.808  11.692  21.794 -0.0679  0.2053 -0.2132
86005W        W86869  14.132   6.940  21.671 -0.1127  0.0162 -0.0288
86006W        W86870  13.229   6.990  26.285 -0.0610 -0.1528 -0.1694
86007W        W86871  12.083   9.029  25.425  0.0141  0.3359 -0.2437
86008W        W86872  12.185  10.701  23.880 -0.5571  0.1458  0.1300
86009W        W86873  12.852   8.619  25.640  0.3562  0.2578 -0.0306
86010W        W86874  13.896  11.540  23.866 -0.0087 -0.1743 -0.0328
86011W        W86875  13.116   9.213  26.345  0.3791  0.1319  0.1211
86012W        W86876  14.098  10.357  21.322 -0.0850  0.1263 -0.2838
86013W        W86877  13.731  11.332  23.469  0.0569 -0.2029 -0.2419
86014W        W86878  12.554  10.051  25.396 -0.2364  0.2973  0.0759
86015W        W86879  13.959   7.215  23.337 -0.1610  0.0801  0.0964
86016W        W86880  10.499   9.139  23.662  0.2299 -0.2369  0.0997
86017W        W86881  12.607   9.521  26.596  0.0485 -0.0332  0.0387
86018W        W86882  12.984  10.585  24.851 -0.3588  0.2711  0.0350
86019W        W86883   9.672   9.205  26.147 -0.1402  0.0632  0.1805
86020W        W86884  13.317  11.426  27.237 -0.1158  0.0171 -0.1889
86021W        W86885  14.242   9.410  24.496 -0.0401  0.2052 -0.1399
86022W        W86886  12.857   7.426  26.514  0.0996  0.0832 -0.1268
86023W        W86887  12.179   9.186  22.879 -0.2350 -0.1305  0.1507
86024W        W86888  12.999   6.768  19.512  0.4470 -0.2013 -0.2416
86025W        W86889  11.589   9.913  24.640 -0.2943  0.3322  0.3198
86026W        W86890  11.977   7.717  25.115  0.1268 -0.1284 -0.2682
86027W        W86891  12.342   8.331  25.005 -0.0562 -0.0633 -0.2244
86028W        W86892  13.819  10.792  22.613  0.4070  0.4609  0.0632
86029W        W86893  11.609  10.366  25.057 -0.3468 -0.0266  0.5186
86030W        W86894  13.544   8.671  24.548  0.1849 -0.0613  0.0901
86031W        W86895  14.149   6.663  26.089  0.2860 -0.0982  0.1308
86032W        W86896  14.867  12.736  21.870 -0.1058  0.4321 -0.0260
86033W        W86897  10.114   9.135  25.863  0.1034 -0.2109 -0.2274
86034W        W86898  13.412   6.447  22.264 -0.1464  0.3575  0.2023
86035W        W86899  12.957   9.251  23.265 -0.1576  0.0961  0.2760
86036W        W86900  12.970   9.418  22.556  0.1119 -0.1061  0.0566
86037W        W86901  16.009   8.264  24.974  0.1473 -0.0098  0.3770
86038W        W86902  13.286   8.442  24.986  0.0579 -0.0261  0.0542
86039W        W86903   9.934  12.163  25.824 -0.3810 -0.1688  0.4413
86040W        W86904  14.600  10.495  22.951 -0.0626 -0.0804 -0.2732
86041W        W86905  10.129   8.166  27.370 -0.0947 -0.2292 -0.1162
86042W        W86906  13.578   5.969  24.271 -0.0522  0.3556  0.2508
86043W        W86907  12.135  11.984  24.990  0.2981  0.0762  0.0509
86044W        W86908  13.352   8.282  23.207 -0.0089  0.1780 -0.1014
86045W        W86909  11.175  12.630  24.366  0.0038 -0.1795 -0.1900
86046W        W86910  13.571   9.263  21.711 -0.0184  0.1905  0.1165
86047W        W86911  11.408   7.152  26.833 -0.0833  0.1104  0.0811
86048W        W86912  14.371  10.050  26.731 -0.3269  0.0063 -0.0551
86049W        W86913  15.393  10.364  24.189 -0.2902 -0.1411  0.0122
86050W        W86914  15.590   9.792  20.335 -0.1710 -0.1195 -0.1252
86051W        W86915  12.599  10.355  26.008  0.2427 -0.1409 -0.0870
86052W        W86916  14.545   9.579   0.022  0.0053  0.1002 -0.0401
86053W        W86917  12.124   8.042  24.234 -0.1029  0.0711  0.1786
86054W        W86918  12.916   9.729  25.693  0.1185 -0.2287 -0.1100
86055W        W86919   9.133   8.984  25.437 -0.5480 -0.1408 -0.0945
86056W        W86920  13.228   7.983  22.345 -0.1197 -0.1522 -0.2316
86057W        W86921  15.432   9.702  25.576 -0.3154  0.3563  0.2316
86058W        W86922  10.910  10.650  23.903  0.0835 -0.0587 -0.2017
86059W        W86923  13.407  10.168  22.364  0.1210 -0.1527  0.1702
86060W        W86924  12.814   7.785  26.185 -0.1406  0.2431  0.0299
86061W        W86925  11.164   9.684  26.089  0.1758 -0.2993 -0.0559
86062W        W86926  11.898   8.808  23.966 -0.0317  0.1582 -0.1747
86063W        W86927  12.821   9.397  24.723  0.2781 -0.4115  0.0835
86064W        W86928  12.080  10.046  24.682  0.0308  0.1519  0.1264
86065W        W86929  14.087   9.540  25.147  0.1067 -0.0883 -0.1011
86066W        W86930  12.010   9.491  22.500  0.0531  0.2176 -0.0407
86067W        W86931  14.651   9.341  20.701 -0.0307  0.0908  0.1589
86068W        W86932  10.565   9.907  24.944  0.1015 -0.3545  0.2672
86069W        W86933  12.134  10.276  22.968  0.0493  0.3963  0.0483
86070W        W86934   9.713   6.944  22.446 -0.3961 -0.3400  0.0773
86071W        W86935  13.508  10.295  23.334 -0.2945 -0.0010  0.2601
86072W        W86936  13.105  10.082  24.719 -0.3768  0.2431 -0.1297
86073W        W86937  11.982   9.601  20.033 -0.0142  0.1105  0.0804
86074W        W86938  11.810   8.262  21.764  0.0752 -0.3728 -0.2401
86075W        W86939   8.988   8.403  23.199  0.1971 -0.0631  0.0192
86076W        W86940  13.610   8.311  25.866 -0.0294 -0.0511  0.2393
86077W        W86941  13.021   7.285  19.742  0.0353 -0.0903 -0.2008
86078W        W86942  14.404  10.473  24.621 -0.2172 -0.0596 -0.5239
86079W        W86943  13.455   9.846  23.089  0.0933 -0.0677 -0.0615
86080W        W86944  15.115  10.027  26.655  0.1039  0.2952  0.2946
86081W        W86945  12.878  10.539  27.035  0.3572  0.1747  0.0048
86082W        W86946  12.022   9.680  21.971  0.0984 -0.3454  0.4050
86083W        W86947  17.870  11.354  22.579  0.0927  0.2307  0.0583
86084W        W86948  15.344   9.431  25.088  0.1490  0.4275  0.3051
86085W        W86949  12.972   4.157  24.075  0.1092 -0.2143  0.0821
86086W        W86950  10.610  11.506  20.854 -0.0663  0.4647 -0.0378
86087W        W86951  12.985   8.765  25.129 -0.2041 -0.2353 -0.1674
86088W        W86952  15.524   6.608  25.283 -0.1689 -0.0268 -0.1469
86089W        W86953  10.331  11.348  21.870  0.0453 -0.1394  0.1728
86090W        W86954  13.229  12.117  25.725  0.2092 -0.3698 -0.0138
86091W        W86955  13.493  10.407  25.979  0.4355 -0.0901  0.0075
86092W        W86956  12.382   6.438  21.718  0.3613  0.0039  0.3473
86093W        W86957  11.399   9.434  23.321 -0.0620 -0.2448 -0.0336
86094W        W86958  16.323   9.558  26.715 -0.0075  0.1596 -0.0453
86095W        W86959   9.873   9.193  23.842  0.2532 -0.0978  0.1729
86096W        W86960  15.712   9.192  24.854  0.0716  0.1015 -0.1705
86097W        W86961  12.087   8.032  22.950  0.1360  0.0922 -0.2756
86098W        W86962  13.723  10.347  26.885 -0.1583 -0.1027  0.1686
86099W        W86963  11.469   9.761  20.449  0.0680 -0.1761 -0.0367
86100W        W86964  14.910  10.900  22.630 -0.0194  0.4005  0.2986
86101W        W86965  11.462   5.560  25.101 -0.2451  0.1643 -0.0521
86102W        W86966  11.603  10.225  22.986 -0.0259  0.0343 -0.2149
86103W        W86967  12.851   9.629  27.106 -0.0339 -0.1379  0.1125
86104W        W86968  10.587   9.230  25.989 -0.1230 -0.1385  0.5790
86105W        W86969  11.659   9.734  22.953  0.0045  0.1046  0.1434
86106W        W86970  12.304   7.949  22.485  0.0586  0.2479 -0.0143
86107W        W86971  14.765   7.236  27.608 -0.0423 -0.1729 -0.2341
86108W        W86972   9.855  11.031  23.713  0.1263  0.0642  0.0850
86109W        W86973  12.744   8.308  21.805  0.2293  0.0704  0.3397
86110W        W86974  13.855  13.221  24.413 -0.1901  0.2996  0.1155
86111W        W86975  15.678  10.683  25.580 -0.2070 -0.0649  0.1186
86112W        W86976  11.322   9.075  24.491 -0.2408  0.1253 -0.1224
86113W        W86977  12.938  10.441  23.120  0.0100  0.1253 -0.0751
86114W        W86978  10.687   5.920  22.364  0.1525 -0.1282  0.0415
86115W        W86979  14.210   7.270  26.086  0.0917 -0.0267 -0.1025
86116W        W86980  12.854   8.406  24.797  0.2266 -0.0394  0.0508
86117W        W86981  14.226   7.416  22.850  0.0018  0.1991  0.0750
86118W        W86982  14.181  10.462  22.310  0.1706 -0.1496 -0.1061
86119W        W86983  13.632   9.168  25.853  0.2064 -0.1391  0.0271
86120W        W86984  14.689   8.590  21.302 -0.0014 -0.2062  0.3549
86121W        W86985  13.667   6.649  26.058  0.1758 -0.4227  0.0482
86122W        W86986  14.038   8.220  22.124 -0.0251  0.0870 -0.0836
86123W        W86987  14.011   9.373  25.621 -0.1109 -0.0348 -0.0874
86124W        W86988  12.060   7.820  23.425 -0.0137  0.0710 -0.1129
86125W        W86989  13.976  10.748  24.405  0.0194  0.0336 -0.0166
86126W        W86990  11.802   8.108  24.850 -0.1627  0.0865 -0.1411
86127W        W86991  10.502  11.563  22.607  0.0554 -0.0787 -0.2074
86128W        W86992  12.474   9.745  23.434 -0.0334  0.0683  0.1137
86129W        W86993  13.823  11.010  23.108  0.0861 -0.1206  0.3040
86130W        W86994  12.179  10.606  26.223  0.1458 -0.2074  0.2590
86131W        W86995  11.830   9.049  26.419  0.0241 -0.0984 -0.0079
86132W        W86996  11.942  10.827  21.944  0.0191  0.0173  0.0287
86133W        W86997  15.292  10.633  23.761  0.0236 -0.1250  0.1184
86134W        W86998  12.927  12.618  25.019 -0.1734  0.1826 -0.3047
86135W        W86999  13.057   9.295  24.272 -0.1405  0.2103 -0.1159
86136W        W87000  13.349   9.884  27.257 -0.1362 -0.2380  0.0173
86137W        W87001  13.151  11.016  23.799  0.2520 -0.1342  0.0397
86138W        W87002  12.860  12.596  23.924 -0.0757  0.0617 -0.0689
86139W        W87003  15.028  12.616  25.961 -0.0946  0.3606 -0.2510
86140W        W87004  12.859  11.113  24.725  0.2034 -0.3898 -0.0929
86141W        W87005  13.243   8.990  23.658  0.0397 -0.1409 -0.1689
86142W        W87006  10.727  10.664  26.059  0.0524  0.0340  0.0940
86143W        W87007  12.500   8.721  25.248 -0.2440 -0.0396 -0.2234
86144W        W87008  14.940   9.393  21.416  0.2821  0.0973  0.2530
86145W        W87009  14.286   7.309  22.083 -0.0231  0.0186  0.0868
86146W        W87010  10.166  11.692   1.134 -0.3183  0.0903  0.2206
86147W        W87011  14.899   9.119  25.903  0.3802 -0.2771 -0.0840
86148W        W87012  14.699  10.164   1.958  0.0121 -0.0585  0.0972
86149W        W87013  11.628  12.715  26.570  0.3801  0.2724  0.2153
86150W        W87014  12.654   9.525  26.083  0.1725  0.1722 -0.1838
86151W        W87015  12.532   9.346  27.488 -0.1871  0.1176 -0.2091
86152W        W87016  11.086   8.014  27.712 -0.0026  0.1735  0.3596
86153W        W87017  14.557  11.516   0.218  0.1505 -0.1645 -0.0993
86154W        W87018   8.117   7.874  26.786  0.2595  0.2516 -0.1596
86155W        W87019  12.921   6.855  26.737 -0.0150 -0.0664  0.1831
86156W        W87020  15.061   9.556  26.880 -0.1138 -0.0930 -0.2178
86157W        W87021  13.665   6.598  29.049 -0.2845  0.0480  0.0844
86158W        W87022  12.541   9.308   1.061  0.5796 -0.0124  0.0228
86159W        W87023   8.528   7.030  28.730  0.1221 -0.1634  0.1362
86160W        W87024  10.800   9.912  27.552  0.3910 -0.2352 -0.0907
86161W        W87025  13.463   9.992  24.242  0.0555 -0.2555  0.0772
86162W        W87026  11.033  11.357  28.925  0.1229  0.2019 -0.2549
86163W        W87027   8.512   5.592  28.927  0.3067  0.0954 -0.0180
86164W        W87028  14.315   8.342  26.426  0.1704 -0.1035 -0.1360
86165W        W87029  10.770   8.683   1.165  0.0106  0.2790  0.2350
86166W        W87030  12.765   8.438  29.066  0.1478 -0.1041 -0.0635
86167W        W87031  13.251  10.212  26.811  0.0402 -0.0419  0.1848
86168W        W87032  11.245   8.788  27.506  0.4880  0.1035 -0.0944
86169W        W87033  11.449   8.431  28.509  0.0837  0.3453 -0.1081
86170W        W87034  11.490   9.843   1.759 -0.2168 -0.0046  0.1991
86171W        W87035  12.469  11.036   0.018  0.0123  0.0208  0.0997
86172W        W87036  13.118  11.644  26.801 -0.3383 -0.2643 -0.0376
86173W        W87037  12.362  10.174   0.416 -0.1390 -0.0888 -0.2021
86174W        W87038  13.835   7.786  27.375 -0.0308  0.0774  0.0273
86175W        W87039  11.970   8.606  28.491 -0.1144 -0.0146 -0.0246
86176W        W87040  11.571  10.727   1.518  0.0463  0.0317 -0.1314
86177W        W87041  12.634   9.738   0.639 -0.4655  0.1979 -0.2965
86178W        W87042  13.117  11.613  28.456  0.0324 -0.2436 -0.0052
86179W        W87043   9.974   8.748   1.517  0.0006 -0.1787 -0.0190
86180W        W87044  14.231   8.797   2.672  0.1820 -0.1846 -0.2439
86181W        W87045  10.951   6.349  26.062  0.0013  0.2333 -0.3149
86182W        W87046   9.726   9.252  26.646 -0.0897  0.1303 -0.0022
86183W        W87047  16.487   9.387   1.499 -0.1280 -0.1498 -0.1647
86184W        W87048  12.242   8.212  28.195 -0.1784 -0.0787 -0.0131
86185W        W87049  14.029   9.311  26.719  0.1278  0.0207  0.0256
86186W        W87050  14.224   9.711  28.713  0.2617  0.0702 -0.0411
86187W        W87051   9.968  10.748   1.368  0.1883  0.0202  0.2869
86188W        W87052  15.595  10.182  26.375 -0.0720 -0.0275  0.0471
86189W        W87053  13.036   8.915   0.033 -0.0844 -0.1145  0.1329
86190W        W87054  12.434   8.777   0.142  0.0863 -0.0055  0.1307
86191W        W87055   9.785   7.149  28.803  0.0370  0.0250  0.1362
86192W        W87056  12.752   8.820  28.684  0.0335  0.3015 -0.5173
86193W        W87057  11.903   9.755   0.031 -0.0081 -0.2196 -0.2485
86194W        W87058  14.658   8.626  26.673 -0.1702 -0.3221  0.1455
86195W        W87059  11.734  10.046  28.056 -0.3180 -0.1167 -0.0104
86196W        W87060  14.528   6.721  26.853 -0.2454 -0.0105 -0.0555
86197W        W87061  15.761   9.907  28.917 -0.2857 -0.0743 -0.0544
86198W        W87062  14.537   9.463  27.247 -0.0310 -0.1732  0.0939
86199W        W87063  12.177   6.450  25.918  0.1810 -0.1904  0.2123
86200W        W87064  11.007  10.353  25.760 -0.0368  0.1349 -0.3461
86201W        W87065   8.588   7.964  26.616 -0.0944  0.0116  0.2956
86202W        W87066  14.547   8.324  27.805  0.0410 -0.0812 -0.1752
86203W        W87067  11.655  10.956  26.696 -0.1074  0.1212 -0.1374
86204W        W87068  11.420  10.880  25.254  0.0770 -0.0720  0.1079
86205W        W87069  11.673   8.487  26.277  0.0315  0.3004  0.1977
86206W        W87070  10.868   9.370  28.605  0.0671 -0.4723 -0.0387
86207W        W87071  11.939   9.581  27.195  0.0198 -0.1050  0.0578
86208W        W87072  10.239   9.320  26.368  0.0624  0.5017  0.0035
86209W        W87073  14.376   7.582  27.531  0.0661 -0.0184 -0.0038
86210W        W87074  13.286   9.234   0.392 -0.2253 -0.0345  0.0773
86211W        W87075  11.294  11.401  26.464 -0.4888 -0.0350  0.0817
86212W        W87076   8.872   8.427  26.683 -0.0883 -0.0057 -0.2199
86213W        W87077  10.829  10.603  27.087  0.2008 -0.1930  0.2271
86214W        W87078  13.210   8.035  27.812 -0.0281  0.0009  0.0506
86215W        W87079  14.061   9.545  29.140 -0.0596 -0.1608 -0.0548
86216W        W87080  12.526   8.357  26.330  0.3465 -0.0008  0.1326
86217W        W87081  13.671  11.624  26.358  0.0492 -0.3627  0.2038
86218W        W87082  12.464   8.165   0.213  0.1146  0.0003  0.0362
86219W        W87083  14.929   9.738  28.913  0.0266 -0.1107  0.1236
86220W        W87084  14.380   8.275   0.425  0.4111  0.1388 -0.0402
86221W        W87085   9.379   7.645  27.760 -0.0891 -0.1618 -0.0961
86222W        W87086  11.669   9.029  28.528  0.0405  0.1260 -0.0698
86223W        W87087  12.325   9.126  26.276 -0.3493  0.0745 -0.1218
86224W        W87088  14.535  11.329  26.225  0.1970  0.0366  0.1615
86225W        W87089  10.167   9.709  28.553  0.2411 -0.0649  0.2056
86226W        W87090   9.048   9.583  28.101  0.0875  0.0236  0.1417
86227W        W87091  11.263   8.710  26.965  0.0828 -0.0102 -0.1022
86228W        W87092  14.559   8.176  28.490 -0.0972 -0.3381 -0.1314
86229W        W87093  12.774   7.263   0.097  0.2814  0.0593 -0.0544
86230W        W87094  10.384   9.295  28.243 -0.0087 -0.0594 -0.0194
86231W        W87095  13.871  10.010  27.219  0.2464  0.3137  0.1980
86232W        W87096  13.904  10.444   0.953  0.0971 -0.0745  0.2680
86233W        W87097  11.678   7.248  29.138  0.3900 -0.3544  0.1988
86234W        W87098  12.673   8.313   0.904 -0.0363  0.0489  0.4189
86235W        W87099  12.253   6.578  26.840 -0.1678  0.2396  0.2005
86236W        W87100  13.623   8.214   1.107 -0.2200  0.0043  0.1400
86237W        W87101  10.882  10.105  27.034  0.0626 -0.1290 -0.0827
86238W        W87102  11.294   8.239  27.140  0.0586  0.1719 -0.1942
86239W        W87103   9.438   7.449   2.385  0.0331 -0.0858 -0.2441
86240W        W87104  16.229  10.192  28.920  0.2044  0.0440 -0.1262
86241W        W87105  14.174   5.566  27.297  0.0320 -0.3181  0.2595
86242W        W87106  13.091   9.113  28.451  0.2043 -0.0146  0.1345
86243W        W87107  12.149   8.464  26.928 -0.0514 -0.0340 -0.0208
86244W        W87108  15.787   9.833  27.579 -0.2909 -0.2535  0.1064
86245W        W87109  13.536  12.518  25.829  0.2410  0.3210  0.1974
86246W        W87110  10.534   7.510  27.468  0.2617  0.3757  0.0685
86247W        W87111  14.286   8.044  27.226  0.3499  0.0760 -0.1697
86248W        W87112  13.119   9.948  29.060 -0.1008 -0.1945 -0.3251
86249W        W87113  13.868   9.720   0.425  0.3019 -0.1074 -0.1160
86250W        W87114  10.931  10.232  28.790  0.0065 -0.0124  0.0472
86251W        W87115   9.340  11.114  25.716  0.4828 -0.0722 -0.2054
86252W        W87116  11.684   8.077   2.452 -0.0827 -0.2108 -0.1117
86253W        W87117  12.118   7.129  27.631  0.2977  0.1938  0.0539
86254W        W87118  10.092   8.684  28.492  0.1305 -0.1671  0.0087
86255W        W87119  11.375   7.216  28.298  0.1325  0.4218 -0.0035
86256W        W87120  11.725   9.909  27.584  0.0945 -0.0811 -0.0387
86257W        W87121  14.451  10.116  28.541 -0.5115 -0.1331  0.0936
86258W        W87122  12.416   6.828   0.523  0.1443 -0.0534 -0.1111
86259W        W87123  15.474  12.807  25.181 -0.1369  0.1042  0.1410
86260W        W87124  12.572   8.868  27.186  0.0131 -0.0969  0.1707
86261W        W87125  11.824   8.584   0.974  0.0961  0.0548 -0.0129
86262W        W87126  11.202   9.985  26.567 -0.0892 -0.3950 -0.4493
86263W        W87127  13.308   7.843  27.283 -0.2413 -0.1217 -0.2509
86264W        W87128  15.271  10.385  26.077 -0.2209  0.2701  0.1304
86265W        W87129  15.566   8.111  25.232 -0.3291 -0.0659  0.1752
86266W        W87130  11.761   9.536  28.621 -0.1383 -0.2116 -0.1057
86267W        W87131  15.231  10.482  28.056 -0.0307  0.0033 -0.0499
86268W        W87132  15.128   9.727   0.241 -0.1646  0.0069  0.0158
86269W        W87133  11.442   6.063  25.873 -0.1218 -0.0219 -0.1728
86270W        W87134  14.342  12.146  28.118  0.3110  0.2326 -0.0851
86271W        W87135  12.027   8.256  27.549  0.1037 -0.2940  0.0660
86272W        W87136  15.468   8.210  28.433 -0.1518 -0.3013  0.1770
86273W        W87137  12.222  11.088   0.481  0.0099  0.0209  0.0005
86274W        W87138  10.796  10.812  27.525  0.1820  0.0429  0.0440
86275W        W87139  14.988  10.496   1.609  0.0395 -0.0653 -0.2949
86276W        W87140  13.054   8.716  26.563  0.0303 -0.0735 -0.0311
86277W        W87141  10.863  10.613  28.055  0.1359 -0.2013  0.0135
86278W        W87142  13.314   7.248  24.976 -0.3142  0.0812 -0.2312
86279W        W87143  12.229   7.159   0.171  0.1591  0.1227  0.0381
86280W        W87144   9.699  10.004   0.072  0.1565 -0.3015  0.1118
86281W        W87145  13.864   6.747  27.722 -0.1602  0.3507 -0.1702
86282W        W87146  13.648   7.532  29.109 -0.0072  0.1827  0.0532
86283W        W87147  10.304  10.012  26.354 -0.0007 -0.1030 -0.2126
86284W        W87148  12.817   9.214  25.267 -0.0772 -0.2168  0.0188
86285W        W87149  11.778   7.607  26.152 -0.0719 -0.2541  0.0867
86286W        W87150  12.825   7.652  27.048 -0.1829  0.1051  0.0708
86287W        W87151  11.750   9.906  26.504  0.3044 -0.0314  0.2565
86288W        W87152  13.301   9.984  25.848  0.0439 -0.1238 -0.0539
86289W        W87153  12.575  10.491  26.522 -0.2830 -0.0995 -0.2822
86290W        W87154  15.570   8.272  26.808 -0.0650 -0.0376  0.2389
86291W        W87155  16.571   9.053  25.165  0.3009  0.1671 -0.0724
86292W        W87156  13.726  11.127   2.270 -0.0864  0.0659  0.1765
86293W        W87157   8.884  11.323  28.379  0.1112 -0.0016 -0.1648
86294W        W87158  12.126   8.656  26.359 -0.1139 -0.0720 -0.5083
86295W        W87159  12.885  10.311  28.594  0.0912  0.0413 -0.1748
86296W        W87160   7.969   6.321  26.551 -0.2172 -0.0918 -0.0700
86297W        W87161  10.779   7.922   0.580 -0.0678  0.1782  0.0857
86298W        W87162  15.216   9.229  24.645  0.0201  0.1446 -0.0790
86299W        W87163  12.379   8.559  27.747 -0.3440  0.0714 -0.0501
86300W        W87164  11.639   4.629  27.051 -0.3059  0.0023 -0.2031
86301W        W87165   9.692   9.848  28.306 -0.3713  0.1445  0.0086
86302W        W87166  13.671  10.431  28.147  0.0274 -0.2006 -0.2480
86303W        W87167   9.996   8.406  26.668 -0.1540  0.0353  0.2092
86304W        W87168  12.631   5.278  26.421  0.0648 -0.2449 -0.0641
86305W        W87169  13.463   9.158   1.406 -0.0965 -0.1889  0.2085
86306W        W87170  10.531   6.230  27.656 -0.1594 -0.3345  0.1125
86307W        W87171  11.690   8.946   1.930 -0.1005  0.3133  0.1002
86308W        W87172  15.439  10.269   1.518  0.0754 -0.1396  0.0901
86309W        W87173  11.689   7.595   1.307  0.1561  0.0667  0.1807
86310W        W87174  13.890   6.735  26.528  0.5091 -0.0076  0.1903
86311W        W87175  11.145   8.696  24.963  0.0527  0.1692  0.0596
86312W        W87176  14.074  12.622  23.701 -0.0232 -0.0513 -0.1997
86313W        W87177  11.328   9.462  28.847  0.0785  0.0090  0.0007
86314W        W87178  11.951   9.439  26.637 -0.0562  0.3086 -0.3392
86315W        W87179  14.068   9.407  27.701  0.2614  0.2823 -0.0380
86316W        W87180  13.609   7.935  28.154 -0.0291  0.1004 -0.1518
86317W        W87181  12.908   9.258  28.042 -0.0076 -0.2275 -0.0909
86318W        W87182  15.264  10.868  25.295  0.1864 -0.1120 -0.1516
86319W        W87183  12.087   9.526  27.672 -0.1090 -0.2846  0.0806
86320W        W87184  14.551   9.273  26.252 -0.2380  0.0848 -0.1301
86321W        W87185  11.711  10.423  28.425  0.0327  0.0197 -0.1690
86322W        W87186   9.800   8.980  27.784 -0.1801 -0.1091  0.1853
86323W        W87187   9.378  11.999  26.175  0.3049  0.0215 -0.1672
86324W        W87188  13.206   8.572  28.520 -0.0961  0.3131 -0.2049
86325W        W87189   9.665   9.314  27.307  0.0934  0.1010  0.0574
86326W        W87190  14.084  11.337  26.461  0.0396  0.1984  0.2908
86327W        W87191  13.342   7.944  26.058  0.2682  0.0472  0.0740
86328W        W87192  13.933   8.871  26.914 -0.3562  0.0024  0.1244
86329W        W87193  14.189   8.536  27.505 -0.1683 -0.4533 -0.1127
86330W        W87194  12.140   9.618   0.523 -0.1395 -0.2493 -0.0539
86331W        W87195  10.986   8.637  24.480  0.0112  0.0587 -0.0762
86332W        W87196  12.504   4.002  25.764  0.0288 -0.1311 -0.0585
86333W        W87197  10.337   9.948  25.502 -0.2050  0.0332  0.0371
86334W        W87198  11.031   8.811  28.556  0.2113 -0.2045  0.2884
86335W        W87199  10.408  10.511  26.391  0.0301  0.1109 -0.2263
86336W        W87200  10.073   9.384  27.593  0.0218  0.1834 -0.0828
86337W        W87201  11.223   9.931   2.163 -0.0636  0.2721 -0.1714
86338W        W87202  13.661   8.165  27.735 -0.1756 -0.1170  0.0775
86339W        W87203  15.064   7.598   2.278 -0.2950  0.1508  0.1024
86340W        W87204  14.716   7.947  27.440  0.2938  0.2435 -0.0774
86341W        W87205  11.983   8.294  25.928 -0.1327  0.2943 -0.1814
86342W        W87206  10.023   5.250  27.245  0.1115  0.1201  0.2001
86343W        W87207  10.954   8.305  28.665  0.2068 -0.1563  0.3632
86344W        W87208  15.783   6.245  23.375 -0.1088  0.1047 -0.0650
86345W        W87209  10.042   9.272  27.055 -0.1085 -0.4326  0.3226
86346W        W87210  12.554   9.978  28.313 -0.0615 -0.0164 -0.2915
86347W        W87211  14.786  10.946  25.996  0.0365  0.2207 -0.0040
86348W        W87212  10.618   6.366  26.438  0.2714  0.2527 -0.1079
86349W        W87213  11.465   7.196   0.613  0.3963 -0.0787  0.2369
86350W        W87214  10.649   7.126  25.341  0.1591  0.1027  0.2638
86351W        W87215  11.083   9.455   1.023 -0.4782  0.0225 -0.2636
86352W        W87216  12.507  10.606  28.885  0.2818 -0.1799 -0.1698
86353W        W87217  14.730  10.383  28.214  0.3302  0.2270  0.0697
86354W        W87218  13.008   8.191  26.984 -0.3202  0.0576  0.0126
86355W        W87219  11.199   7.755  28.238 -0.2844  0.0606 -0.3758
86356W        W87220   9.439   8.629  27.831  0.0500 -0.0201 -0.1752
86357W        W87221  10.073   9.652  28.028 -0.0710 -0.0277  0.0589
86358W        W87222  14.670   9.169  28.242 -0.2462  0.3685  0.1865
86359W        W87223  11.459   9.362   1.415 -0.1182  0.0730  0.2021
86360W        W87224  14.095   8.439  25.321 -0.2336 -0.1483  0.2212
86361W        W87225  12.766  10.056  27.729 -0.5080 -0.4012  0.2406
86362W        W87226  14.530  11.662  25.801  0.1301 -0.0377  0.0192
86363W        W87227  13.594  10.049   0.106  0.0346 -0.0370 -0.2498
86364W        W87228   8.472  10.375  28.153 -0.1921 -0.0204  0.0296
86365W        W87229  15.221   7.916  26.345  0.0715 -0.3691  0.2551
86366W        W87230  15.751   8.509  28.026  0.3123 -0.2902  0.2876
86367W        W87231  10.737  11.998   0.801  0.1422  0.2237 -0.4139
86368W        W87232  13.575   9.436  26.443  0.0901 -0.0352  0.2626
86369W        W87233  14.429   8.400  25.936  0.2248  0.1834  0.3480
86370W        W87234  11.875   7.473   0.422 -0.3568 -0.0685 -0.4411
86371W        W87235  12.549   9.143  29.005  0.1538  0.1487  0.2669
86372W        W87236  10.756   6.152  28.403 -0.2077 -0.0575  0.2394
86373W        W87237  12.300   8.618   0.823 -0.1813  0.2161 -0.0595
86374W        W87238  11.772   8.645  27.308  0.0141  0.0035 -0.0182
86375W        W87239  10.094   9.167   1.028  0.0280  0.1083 -0.1134
86376W        W87240  10.524  10.872   1.413 -0.1515  0.0916 -0.1787
86377W        W87241   9.432   9.258  25.133  0.2081 -0.0892  0.1065
86378W        W87242  12.901  11.212  27.614 -0.2299  0.0211  0.0381
86379W        W87243  10.424   9.706  27.163 -0.0448  0.0203 -0.2674
86380W        W87244  15.134   8.222  27.705  0.0434  0.1151  0.3200
86381W        W87245  15.946  10.130  27.205  0.0568  0.0863 -0.0875
86382W        W87246  14.225   7.012   0.389 -0.0748 -0.2197 -0.0298
86383W        W87247  13.255  10.433   0.233 -0.4733  0.1276  0.0663
86384W        W87248  11.667   6.725  28.546 -0.1249  0.1100 -0.1197
86385W        W87249  10.864   8.120  26.916  0.1667 -0.2733 -0.2877
86386W        W87250  10.099  12.579   0.112 -0.1812 -0.3162 -0.3796
86387W        W87251  12.038   6.410  25.098  0.1189 -0.1687  0.0120
86388W        W87252  10.672   6.558  27.030 -0.0037 -0.0964  0.1239
86389W        W87253  11.964   6.605   0.725  0.2998  0.0084 -0.0193
86390W        W87254  10.666  11.226  25.190 -0.1227  0.0058 -0.0005
86391W        W87255  12.110   9.664  28.180 -0.0585 -0.2448  0.0113
86392W        W87256  14.261  11.873   2.092 -0.0393 -0.0222  0.0111
86393W        W87257  14.393  11.991   0.168 -0.1239 -0.0126  0.0497
86394W        W87258  10.838   7.381  26.954  0.0351 -0.2176 -0.0034
86395W        W87259  11.021   9.487  27.476 -0.0670  0.0243  0.2463
86396W        W87260  10.400  10.104  26.842 -0.0387 -0.0044  0.1154
86397W        W87261  15.903  10.940   2.016  0.0832  0.1685 -0.3731
86398W        W87262  10.500  10.302  27.336 -0.0423 -0.0381 -0.1004
86399W        W87263  12.024   7.255  24.644  0.0372  0.0127 -0.1187
86400W        W87264  15.657   7.408  27.387 -0.0971 -0.0183  0.1975
86401W        W87265  13.251   9.153  27.710  0.1374 -0.5450 -0.1931
86402W        W87266  11.899   6.402  27.158 -0.0413 -0.1929 -0.0039
86403W        W87267  13.035   9.790  28.145  0.0989  0.1486  0.3826
86404W        W87268  15.539  11.345   0.595 -0.0378  0.2340 -0.0490
86405W        W87269  11.071   8.333  28.166  0.0434 -0.1153  0.0932
86406W        W87270  13.586   8.757  27.345 -0.0833 -0.0630  0.1263
86407W        W87271  11.638   7.698   0.772 -0.3530 -0.1389  0.0997
86408W        W87272  10.908   8.438  27.536 -0.2137 -0.0691  0.1079
86409W        W87273  15.360   9.611  28.307  0.3018 -0.0206 -0.0870
86410W        W87274   9.906  10.238   0.941 -0.1640  0.0832  0.0601
86411W        W87275  13.527   9.725  25.096  0.1289  0.2452  0.1023
86412W        W87276  13.767   7.677  25.943 -0.1687  0.3281  0.0026
86413W        W87277  12.456   9.671   0.111 -0.0747 -0.0223 -0.1064
86414W        W87278  16.158   7.803  24.815  0.1162 -0.1249  0.2662
86415W        W87279  13.034   8.729  27.125 -0.0983 -0.0139  0.0301
86416W        W87280  12.265   6.128   0.837 -0.0420 -0.0201  0.1712
86417W        W87281  11.963   8.850  25.907 -0.0228 -0.1117  0.3520
86418W        W87282  13.320   7.678  28.487  0.0123 -0.0357 -0.2371
86419W        W87283  10.830  12.694  27.973 -0.2266  0.1525 -0.0072
86420W        W87284  14.160  10.664   0.262 -0.0986 -0.2328  0.1342
86421W        W87285  12.209  10.177  29.112  0.0961 -0.0845  0.1405
86422W        W87286  12.821   8.892  27.685 -0.2166 -0.0104  0.1354
86423W        W87287  11.600   9.308  25.869  0.1300 -0.1959 -0.2096
86424W        W87288   9.583   8.482   1.623  0.0379 -0.0236 -0.3160
86425W        W87289  10.616  11.883  28.515  0.0913  0.2410 -0.3286
86426W        W87290  12.151   8.923  27.434 -0.0550  0.1407 -0.0965
86427W        W87291   9.958   8.489  25.460 -0.0550 -0.0885  0.5525
86428W        W87292   9.372   8.563  28.780 -0.2198 -0.0417 -0.2888
86429W        W87293  16.070   8.831  27.256 -0.0380  0.3063 -0.0316
86430W        W87294  16.023   8.533  26.741  0.1914 -0.0591 -0.1157
86431W        W87295  13.540  11.022  26.210  0.3297 -0.2023  0.0615
86432W        W87296   9.872   7.253  28.295  0.0149 -0.1068  0.1751
86433W        W87297  14.089   7.996  26.794 -0.1726 -0.0081 -0.2357
86434W        W87298  10.560  11.040  27.884 -0.0929 -0.1434 -0.2646
86435W        W87299  10.659   8.105  23.139 -0.1522  0.0627  0.0563
86436W        W87300  11.783   5.434  24.136 -0.1607  0.0189  0.0147
86437W        W87301  14.041   8.959  27.375  0.3958 -0.2871  0.2611
86438W        W87302  11.919  10.197   1.872 -0.3238 -0.0756  0.2358
86439W        W87303  10.632   8.662  28.084 -0.2882  0.1956 -0.2708
86440W        W87304  14.299   5.132  27.546  0.0366 -0.0133  0.0618
86441W        W87305  11.018   7.641  27.359  0.0396 -0.1972 -0.0934
86442W        W87306  15.622   9.954   0.292 -0.1973 -0.0029 -0.0935
86443W        W87307  15.373   7.737  28.328 -0.0237  0.0012 -0.3498
86444W        W87308   9.079   9.549  27.139  0.3710  0.1714 -0.1309
86445W        W87309   9.840   8.122  24.781 -0.1991 -0.5005 -0.0910
86446W        W87310   9.984   7.481   2.200  0.3815 -0.3126  0.0960
86447W        W87311  11.629   9.770   1.020  0.2380 -0.0477  0.1698
86448W        W87312  17.781   8.452  26.076 -0.3359 -0.1530 -0.2047
86449W        W87313  12.391   8.532  25.811 -0.3265  0.0174  0.2229
86450W        W87314  14.409   8.660  28.147 -0.0031 -0.1659 -0.0758
86451W        W87315  11.362  10.433  28.085  0.1662  0.2871  0.1867
86452W        W87316  13.786   7.409  25.326  0.2253 -0.2014  0.0220
86453W        W87317  12.008   9.147  28.187  0.0093  0.0241 -0.0193
86454W        W87318  12.202   9.249   0.177  0.2805 -0.1911 -0.2681
86455W        W87319  12.879   9.715  25.139 -0.1920 -0.4749  0.0412
86456W        W87320  10.738   9.890  26.579  0.0525  0.2681  0.1611
86457W        W87321  13.315   9.219  26.830 -0.0391  0.0324 -0.1346
86458W        W87322  12.825   8.323  27.866  0.1070  0.0634 -0.0013
86459W        W87323  11.237   9.950  27.317 -0.1240 -0.1733 -0.3412
86460W        W87324  10.097   9.814   1.165 -0.2080  0.2634 -0.0203
86461W        W87325   9.358   8.585  26.817  0.3143  0.2175  0.3355
86462W        W87326  13.625   9.663  27.668  0.0473 -0.4756 -0.1317
86463W        W87327  11.074  10.920  28.813  0.0958  0.4157 -0.2646
86464W        W87328  11.814   6.877  25.987 -0.0849  0.0689 -0.0443
86465W        W87329  10.197  10.217   0.138  0.2214  0.0545 -0.2371
86466W        W87330  15.883   9.230  27.525 -0.2172 -0.1143 -0.1608
86467W        W87331   9.273  10.319   1.671  0.0640 -0.4304  0.2574
86468W        W87332  10.819   8.965  27.683  0.0507  0.0547  0.0134
86469W        W87333   9.994  11.104  27.940  0.0284 -0.2856 -0.0044
86470W        W87334  13.256  10.020  27.728 -0.0300  0.0113  0.0904
86471W        W87335  13.038   6.680  29.081  0.0296  0.1789 -0.0725
86472W        W87336  12.023   8.517  24.392 -0.2298  0.2805 -0.0118
86473W        W87337  13.437   9.970  26.366  0.0152 -0.2870  0.1133
86474W        W87338  12.397   6.768  28.051 -0.1176  0.0442 -0.1875
86475W        W87339  11.613   7.806   1.874 -0.1478 -0.0084 -0.1156
86476W        W87340  16.391   8.068  24.308 -0.0221  0.1068 -0.0621
86477W        W87341  12.677  12.508   0.913  0.0233 -0.0029 -0.2798
86478W        W87342  11.290   9.185  27.856 -0.2881 -0.1598  0.0139
86479W        W87343  18.418   9.183   1.243  0.0828  0.0496 -0.0905
86480W        W87344  12.281   6.908  28.539  0.3752 -0.0219  0.1417
86481W        W87345   8.790   8.980  28.771  0.2969  0.0989 -0.0279
86482W        W87346  15.660   7.008  26.963  0.0111 -0.0609  0.2770
86483W        W87347  15.685  10.102  25.782 -0.1606 -0.0720  0.0828
86484W        W87348  12.889   7.950  25.699 -0.1402 -0.2723  0.1048
86485W        W87349  14.013   9.467  27.212 -0.0594 -0.3542  0.2167
86486W        W87350  10.322   8.657  25.757 -0.2539  0.1590  0.0428
86487W        W87351  12.339   7.974  26.136  0.0108 -0.1676 -0.0409
86488W        W87352  10.958   9.617  26.944  0.1720  0.1501  0.0459
86489W        W87353  13.261   8.777  26.055 -0.0772  0.4534  0.2078
86490W        W87354  10.221   9.931  27.617  0.2617 -0.0447  0.1790
86491W        W87355  11.630   8.098  24.348  0.0953 -0.1188  0.0351
86492W        W87356  13.655   6.529  27.309 -0.2276  0.1921 -0.0621
86493W        W87357  13.038   9.602  27.592  0.1631 -0.0793 -0.0240
86494W        W87358  14.268   7.785  26.091  0.4241 -0.3748 -0.0589
86495W        W87359  12.890   7.927  27.422 -0.0867 -0.1410  0.1469
86496W        W87360  13.868   6.256  26.336  0.0150 -0.0823 -0.1474
86497W        W87361  14.748  10.926  28.736  0.1187 -0.1074 -0.0151
86498W        W87362  14.753  10.721  25.492  0.1221 -0.1169 -0.0491
86499W        W87363  10.368  10.736  25.660 -0.0071 -0.4497 -0.0626
86500W        W87364  11.619   7.407  27.211  0.0383  0.0231 -0.3336
86501W        W87365  10.280  12.168   0.204 -0.0473 -0.2160 -0.1769
86502W        W87366  14.039   7.421   2.500 -0.3041 -0.1912  0.2225
86503W        W87367   9.361   8.085   0.832  0.1041 -0.2881  0.0372
86504W        W87368  10.085   9.122  28.706  0.4395  0.0346  0.2370
86505W        W87369  14.144   7.340  28.982 -0.0757  0.1438  0.1462
86506W        W87370   9.970   9.054   0.119 -0.1303 -0.0087 -0.0165
86507W        W87371  11.534   6.121  26.478  0.2536  0.0030  0.3257
86508W        W87372  15.470  10.396  26.972 -0.1722 -0.0398  0.1550
86509W        W87373  10.786  10.133   0.178 -0.1485  0.1925 -0.1271
86510W        W87374  12.382   8.716  28.229  0.2238  0.1148  0.1252
86511W        W87375  14.472  10.582  28.993 -0.0209  0.1167  0.2032
86512W        W87376  13.724   9.065  27.724 -0.0702 -0.2027 -0.3420
86513W        W87377  13.012   8.168  26.516 -0.2011 -0.0987 -0.3713
86514W        W87378  14.690   7.700  25.295  0.1395 -0.0302  0.1167
86515W        W87379  12.386   9.431  27.061  0.0205 -0.0415 -0.0067
86516W        W87380  14.370   5.990  26.463  0.1666  0.0215 -0.1046
86517W        W87381  11.208  10.646  26.214  0.1667  0.1905 -0.0466
86518W        W87382  15.874   7.631   0.242  0.2846 -0.2175 -0.0270
86519W        W87383  14.733  10.334  25.209  0.0232 -0.1461 -0.1307
86520W        W87384   8.788   8.569   0.439 -0.2018  0.0199 -0.0832
86521W        W87385  10.301   5.902  28.406 -0.3983 -0.0193  0.1680
86522W        W87386  14.275  11.051   2.221  0.1322 -0.0957 -0.0966
86523W        W87387  12.652   7.424   1.089 -0.2064 -0.3732  0.0677
86524W        W87388   8.220   7.670  28.095 -0.0524 -0.1082 -0.0172
86525W        W87389  13.801  10.762  27.211 -0.4467 -0.0511 -0.0129
86526W        W87390   6.212   8.264  26.371  0.0763 -0.0187  0.0848
86527W        W87391  10.468   8.322  28.452  0.1959 -0.4394  0.2432
86528W        W87392  11.710   9.422   0.406  0.0064 -0.2017  0.1956
86529W        W87393  10.807  10.919   0.914  0.0379  0.0807 -0.1326
86530W        W87394  12.092   9.095  28.765  0.0764 -0.0139  0.2135
86531W        W87395  15.273  10.015  28.605 -0.1097  0.1387  0.2734
86532W        W87396  11.374   8.892  28.940  0.0133 -0.0149 -0.0277
86533W        W87397  12.768   9.069  26.751  0.2227  0.0103 -0.1356
86534W        W87398  13.380   7.480  26.314 -0.0367 -0.3518  0.0440
86535W        W87399  10.934   9.115  28.171  0.5574 -0.1305  0.0702
86536W        W87400  14.201  10.931  27.423 -0.1689  0.0490 -0.0272
86537W        W87401  12.338   8.514  28.820  0.1359 -0.0406  0.0858
86538W        W87402  13.903  10.381  28.679 -0.1534 -0.3036  0.0713
86539W        W87403   9.197   9.752  26.604 -0.2955  0.1206 -0.2043
86540W        W87404   9.608   9.456  27.903 -0.0228 -0.2075 -0.0968
86541W        W87405  12.734   8.824  26.103  0.1501  0.3037 -0.3695
86542W        W87406   8.476   8.556  27.933  0.0407 -0.1658 -0.2867
86543W        W87407  14.296   9.865  25.553 -0.1967  0.0842  0.0459
86544W        W87408  12.689  10.947  27.239  0.0804 -0.2452 -0.0749
86545W        W87409  10.954  13.274   6.126 -0.0483  0.1149  0.2128
86546W        W87410  11.045  13.854   4.941 -0.1057 -0.0512 -0.0723
86547W        W87411  14.806  13.232   2.246 -0.1113  0.4032  0.0467
86548W        W87412  13.015  12.408   4.642  0.0090 -0.0796  0.0292
86549W        W87413  11.144  12.797  28.328  0.0120 -0.5269 -0.0913
86550W        W87414  11.579  10.880  28.568  0.3498 -0.1326 -0.0237
86551W        W87415  12.492  11.311   1.419  0.2679  0.0327  0.2012
86552W        W87416  11.652  14.702   1.179 -0.1420 -0.0999  0.3649
86553W        W87417   9.374  16.316   2.502  0.2356 -0.1701  0.0271
86554W        W87418  11.516  11.308   1.555  0.0410  0.0590 -0.1278
86555W        W87419  11.525  11.238   3.563  0.0469  0.1010 -0.1364
86556W        W87420  12.539  12.553   1.463 -0.1224 -0.1267 -0.1298
86557W        W87421  14.619   9.158   0.932 -0.0687 -0.2604  0.2508
86558W        W87422  13.349  12.756   7.138 -0.0716  0.0949 -0.0084
86559W        W87423  11.468  12.145   0.466 -0.0101 -0.2237 -0.0642
86560W        W87424   9.064  18.269   3.818  0.0309 -0.3578 -0.1531
86561W        W87425  11.364  10.321   1.771  0.0138  0.2597 -0.1559
86562W        W87426   9.198  10.032   3.637 -0.1445 -0.4042  0.0704
86563W        W87427  12.764  14.042   4.237  0.1336 -0.2248 -0.0048
86564W        W87428  13.080  12.616   3.539 -0.0057  0.0130  0.5477
86565W        W87429  17.298  15.022   5.839  0.0684 -0.1859 -0.2753
86566W        W87430  11.844  12.565   0.381  0.3479  0.2673 -0.3746
86567W        W87431  10.027  12.447   4.619 -0.2603 -0.0173  0.0871
86568W        W87432  13.413  12.952   4.980  0.0079 -0.1543  0.3672
86569W        W87433  11.376  13.711   3.733 -0.1430 -0.0920 -0.0435
86570W        W87434  13.881  13.918   6.068 -0.0890 -0.2326  0.2666
86571W        W87435  13.420  12.301   3.309 -0.1355 -0.3798  0.1117
86572W        W87436  12.317  15.117   1.217 -0.3077  0.0053 -0.0760
86573W        W87437  11.916  13.850   3.996  0.1212 -0.0928  0.1768
86574W        W87438  13.419  10.991   1.433  0.0162 -0.2225 -0.2986
86575W        W87439  12.826  13.660   2.475 -0.0190 -0.1380 -0.0101
86576W        W87440  14.758  13.813   0.954  0.2680  0.2754  0.1446
86577W        W87441  15.507  12.917   4.060 -0.6193 -0.1474 -0.2696
86578W        W87442  12.534  11.328   4.964  0.0390  0.0224 -0.1151
86579W        W87443  11.070  13.300   3.884  0.0407  0.4108  0.0746
86580W        W87444  14.028  16.202   3.871  0.1742 -0.1842 -0.0783
86581W        W87445  10.290  11.106   2.279 -0.0043  0.0958 -0.0345
86582W        W87446  11.548  13.135   3.565 -0.1149 -0.1311  0.0619
86583W        W87447  12.928  12.812   1.214  0.1245  0.2386  0.1186
86584W        W87448  13.476  12.082   0.610  0.0397 -0.0194  0.1705
86585W        W87449  16.404  10.392   3.563 -0.0734 -0.0696  0.3707
86586W        W87450  15.067  12.298   3.754  0.1358 -0.0426 -0.1102
86587W        W87451  11.097  14.520   1.842  0.0876  0.0505 -0.3506
86588W        W87452  12.328  11.742   0.793  0.1903  0.4080  0.1866
86589W        W87453   9.955  15.427   0.719 -0.2413  0.3131 -0.0646
86590W        W87454  10.673  14.377  27.702  0.1672  0.0256  0.0752
86591W        W87455  13.342  12.847   3.866 -0.1360 -0.0945  0.0093
86592W        W87456  13.878  13.699   2.846  0.0561  0.0158  0.2231
86593W        W87457  11.765  13.005   0.194 -0.1929  0.1003  0.1206
86594W        W87458  12.830  12.763  25.718 -0.1020  0.0895  0.0385
86595W        W87459  14.289  16.140   1.723 -0.2596 -0.0598  0.0589
86596W        W87460   9.284  13.877   0.473  0.0448 -0.0321  0.0848
86597W        W87461  13.743  14.428   2.138 -0.3133 -0.0976  0.0367
86598W        W87462  13.707  12.810   1.038  0.2999  0.1498  0.2033
86599W        W87463  12.224  11.238   2.215  0.2755  0.1595 -0.2457
86600W        W87464  13.439  14.735   0.590  0.0743 -0.0734 -0.1142
86601W        W87465  11.115  11.709   3.018  0.2171 -0.1646 -0.1045
86602W        W87466  13.190  10.832   4.922  0.2667  0.2693 -0.0441
86603W        W87467  11.822  11.952   4.637  0.0907  0.1390 -0.1589
86604W        W87468  13.582  16.024   0.160  0.1990  0.0088  0.1949
86605W        W87469  13.489  13.282   1.847 -0.2451 -0.2798  0.1194
86606W        W87470   9.673  14.160   2.903 -0.1785 -0.0927 -0.1201
86607W        W87471  11.799  13.672   4.445 -0.3372 -0.0081  0.0697
86608W        W87472  10.707  13.239   0.075  0.3274 -0.0519 -0.2386
86609W        W87473  12.722  14.491   1.834 -0.2056  0.0023 -0.6041
86610W        W87474  14.115  12.919   2.755 -0.0599 -0.1626  0.2894
86611W        W87475  12.782  11.166  28.661  0.1983 -0.0401  0.0030
86612W        W87476  11.241   9.363   0.254  0.2019  0.1362 -0.0026
86613W        W87477  12.986  10.265   1.187  0.0205  0.2911 -0.4762
86614W        W87478  14.352  14.086   1.233 -0.4012  0.3456  0.1094
86615W        W87479  14.387  14.470   4.750  0.0169  0.0143  0.5346
86616W        W87480  12.773  11.573  28.937 -0.0318  0.2416 -0.0489
86617W        W87481  12.901  11.104   1.724 -0.1160 -0.0070  0.0088
86618W        W87482  13.728  12.886   6.078 -0.0575 -0.1777  0.1384
86619W        W87483  14.798  12.743   2.082  0.0153  0.1367 -0.0789
86620W        W87484  13.708  12.684   2.955  0.1425  0.0926 -0.1298
86621W        W87485  11.957  12.414   4.679  0.0797  0.0697  0.0194
86622W        W87486  13.205  12.535   5.190 -0.1900 -0.1304  0.0817
86623W        W87487  12.845  12.784   1.808 -0.2747  0.3558 -0.0069
86624W        W87488  12.665  14.657   4.448  0.1017  0.0418 -0.0628
86625W        W87489   7.878  13.129   3.545 -0.1325 -0.0452 -0.0714
86626W        W87490   9.665  12.215   7.069 -0.2302  0.2060  0.0886
86627W        W87491  11.617  13.357   0.986  0.3635 -0.3131 -0.1047
86628W        W87492  12.988  10.049   1.653  0.0673  0.3771  0.3702
86629W        W87493  12.463  11.525   3.911  0.0246  0.2860  0.1157
86630W        W87494  12.257  10.340  28.417 -0.3127  0.1132 -0.0499
86631W        W87495  17.264  13.872   2.915  0.1866  0.1571 -0.0509
86632W        W87496  11.572  13.429   4.100 -0.0159 -0.0853  0.0336
86633W        W87497  15.193  14.438   3.959  0.0402 -0.1230  0.2794
86634W        W87498  13.237  11.417   6.180 -0.0441  0.2711  0.0266
86635W        W87499  15.513  10.714   1.694 -0.0338 -0.1395 -0.1154
86636W        W87500  12.464  13.409   3.564 -0.0781  0.1741 -0.2347
86637W        W87501  12.632  15.710   0.312 -0.0060 -0.0255  0.1708
86638W        W87502  13.107  12.229   1.038  0.1927 -0.2259  0.1581
86639W        W87503  10.647  11.071   3.524  0.0610 -0.1600 -0.1469
86640W        W87504  11.703   9.900   0.528  0.2612  0.0768 -0.1532
86641W        W87505  10.742  14.619   1.435 -0.0372 -0.1416 -0.0415
86642W        W87506  11.454  15.483   3.881 -0.1150  0.2385  0.0527
86643W        W87507  14.136  10.097   1.408  0.1475 -0.1965 -0.0937
86644W        W87508  13.237  11.153   2.536 -0.1863  0.1570  0.1646
86645W        W87509  12.564   9.613  27.958  0.0395 -0.0090 -0.1536
86646W        W87510  10.763  11.522   2.120  0.2235 -0.1652  0.2263
86647W        W87511  12.030  10.155   0.894  0.1639  0.2191  0.4881
86648W        W87512  13.829  14.793   2.469  0.0530 -0.0095 -0.1840
86649W        W87513  13.698   9.231   3.327  0.0967  0.1038 -0.0156
86650W        W87514  11.948   9.791   3.753 -0.4459  0.0879  0.1888
86651W        W87515  12.595  14.344   1.004 -0.1002  0.1321 -0.0131
86652W        W87516  14.346  13.237   2.439  0.0525  0.0958 -0.0545
86653W        W87517   9.636  10.813   0.699  0.3023  0.1133 -0.2346
86654W        W87518  12.759  10.273   0.077  0.0281 -0.0102 -0.0099
86655W        W87519  10.733  14.192   4.704  0.0926 -0.0553 -0.2014
86656W        W87520  11.994  12.799   1.536 -0.0193 -0.1327 -0.2784
86657W        W87521  13.412  12.099   2.361 -0.2251 -0.0785  0.0535
86658W        W87522  11.324  14.565   3.259 -0.1709  0.0900  0.0087
86659W        W87523  11.151  13.073   0.820 -0.0839  0.0324 -0.2272
86660W        W87524  11.300  14.367   1.367 -0.0533  0.1547  0.2096
86661W        W87525  15.260   9.421   5.031 -0.1794 -0.0782  0.1081
86662W        W87526  11.781  15.701   0.960  0.2316  0.1223 -0.2420
86663W        W87527  12.351  14.493   4.964 -0.1636 -0.0359  0.4803
86664W        W87528  13.623  12.858   0.488 -0.2692 -0.0031  0.1773
86665W        W87529  14.098  12.513  28.958 -0.1349  0.3735  0.1389
86666W        W87530  11.793  11.861   0.716  0.0140  0.0355 -0.1903
86667W        W87531  11.380  16.962   1.641 -0.0131  0.1271 -0.1042
86668W        W87532  12.308  13.791  28.469  0.0434  0.0909  0.0385
86669W        W87533  13.102  11.307   4.045  0.1374 -0.0580 -0.0008
86670W        W87534  14.588  13.780  28.665  0.1128  0.4153  0.1314
86671W        W87535  11.820  13.887   1.616  0.1030  0.2841  0.1653
86672W        W87536  11.784  12.198   3.275 -0.2138 -0.0197  0.2058
86673W        W87537  17.085  13.975   1.591 -0.0012  0.0838  0.0131
86674W        W87538  11.726  14.400   0.730  0.1332  0.0569 -0.1799
86675W        W87539  14.053  15.287   3.816 -0.2757 -0.0052 -0.0721
86676W        W87540  12.870  11.448   5.410  0.0469 -0.5265 -0.2727
86677W        W87541  13.561  15.778   4.808  0.0876  0.0457 -0.0916
86678W        W87542  15.124  12.880   2.482 -0.1324 -0.0186  0.0378
86679W        W87543  15.620  13.410   3.807 -0.1903  0.1439  0.2835
86680W        W87544  12.611  12.261   4.179 -0.0245  0.0552 -0.5211
86681W        W87545  14.020  10.684   2.345 -0.2091 -0.1410 -0.1541
86682W        W87546  15.878  12.397   3.566 -0.1435 -0.0738  0.2203
86683W        W87547  13.333  13.115   1.055 -0.2849  0.0425  0.0779
86684W        W87548  11.885  13.431   1.934  0.3101  0.0335 -0.0958
86685W        W87549   9.503  10.441   1.194 -0.1587 -0.1143 -0.2167
86686W        W87550  12.416  12.229   2.415  0.1854 -0.0895  0.1292
86687W        W87551  10.800  15.658   0.302  0.0832  0.4600 -0.0443
86688W        W87552  13.771  13.089   3.812  0.0949  0.0169 -0.1597
86689W        W87553  11.858  14.624   5.398  0.3350  0.0121 -0.2964
86690W        W87554  12.020  10.685   0.178 -0.1900 -0.1020  0.1034
86691W        W87555  13.194  12.426   2.016  0.2442 -0.2800 -0.2148
86692W        W87556  13.288  14.079   3.351  0.0200  0.0496 -0.0636
86693W        W87557  12.102  15.517   2.270  0.2262 -0.3523  0.0796
86694W        W87558  12.053  12.976   4.502 -0.2723  0.1753  0.1492
86695W        W87559  13.606  16.495   2.237 -0.0118  0.2087  0.0911
86696W        W87560  12.729  11.079   2.258 -0.2118  0.0325 -0.4343
86697W        W87561  12.519  13.142   3.999  0.6158  0.3865 -0.0514
86698W        W87562  11.360  10.491  28.869 -0.0438  0.2424  0.1857
86699W        W87563  12.821  14.518   4.899  0.1413  0.2403  0.0744
86700W        W87564  12.589  10.409   1.581 -0.1241  0.4084 -0.2537
86701W        W87565  10.194  12.594   1.157 -0.0036  0.2509  0.0788
86702W        W87566  13.188  11.698   0.840  0.0264  0.0541  0.1075
86703W        W87567  10.868  10.055   0.688 -0.0142  0.2177 -0.2143
86704W        W87568  13.362  13.329   3.937 -0.1988  0.3028  0.2410
86705W        W87569  13.736  13.225   2.805 -0.4332 -0.0942  0.4704
86706W        W87570  11.080  14.529   4.244 -0.1728  0.1835  0.5010
86707W        W87571  13.459  13.635   3.113 -0.0432  0.1243  0.1634
86708W        W87572  10.164  14.832   4.784 -0.3598  0.2045 -0.2319
86709W        W87573  10.941  12.864   4.624  0.0666 -0.0158  0.0512
86710W        W87574  11.387  11.924   1.566 -0.2891  0.0421 -0.0410
86711W        W87575  11.040  10.105   1.226  0.0899  0.0563 -0.0350
86712W        W87576   8.562  15.502  28.189  0.1602 -0.3095  0.3720
86713W        W87577  14.362  15.382   3.316  0.0985 -0.2842 -0.2153
86714W        W87578  12.336  11.327  28.750 -0.0641  0.2433 -0.3273
86715W        W87579  14.068  13.808   6.879 -0.0669 -0.3330 -0.2122
86716W        W87580  14.415  12.693   4.432 -0.0508 -0.1896  0.3539
86717W        W87581  15.381  14.572   3.434 -0.2687  0.2563 -0.1878
86718W        W87582  12.984  13.132  28.465 -0.3544 -0.1721  0.0035
86719W        W87583  11.737  11.184   0.240  0.0564  0.2545  0.2420
86720W        W87584  15.044  14.911   2.011 -0.2151 -0.1794  0.2827
86721W        W87585  11.562  14.793   2.148  0.2115  0.1085 -0.0665
86722W        W87586  10.166  13.395   2.636 -0.1253  0.4257 -0.0502
86723W        W87587  12.234  13.885   0.302  0.0287  0.0636  0.0632
86724W        W87588  14.494   9.807   2.252  0.0978  0.0142  0.2427
86725W        W87589  10.629  14.830  27.917 -0.0104 -0.0088 -0.2825
86726W        W87590  13.291  14.213   2.204 -0.0977  0.1411 -0.0013
86727W        W87591  15.547  10.577   1.075 -0.0045  0.1692  0.0259
86728W        W87592  11.603  11.634   1.156 -0.0829  0.1030 -0.0125
86729W        W87593  13.318  11.114  28.455 -0.2008 -0.1101  0.0830
86730W        W87594  14.531  15.574   5.151  0.1150  0.0706 -0.1785
86731W        W87595  14.523  11.952   0.740  0.2020 -0.1165 -0.0926
86732W        W87596  10.490   9.987   1.458 -0.0286  0.0888  0.1655
86733W        W87597  11.560  16.902   0.220  0.0754  0.1853  0.1743
86734W        W87598  11.170  11.385   1.086  0.1040  0.0881  0.2069
86735W        W87599  11.916  12.118   1.143 -0.0580 -0.2499  0.1059
86736W        W87600  10.638  12.712   2.417 -0.2108  0.1905  0.1119
86737W        W87601  10.028  13.333   0.732 -0.4478  0.2833 -0.1387
86738W        W87602  12.912   7.987   2.874  0.3081  0.1900  0.1443
86739W        W87603  11.093  15.532   2.477  0.0995 -0.1511 -0.2866
86740W        W87604   9.735   8.296  28.522  0.3191  0.3748 -0.1573
86741W        W87605  11.390  13.880   1.228 -0.2596 -0.1309  0.0767
86742W        W87606  10.930   8.173   4.179  0.1301  0.1567  0.0213
86743W        W87607  10.909  12.575   3.230 -0.0072  0.3652  0.1092
86744W        W87608  12.233  10.641   0.684 -0.0610 -0.0726  0.2720
86745W        W87609  10.960  10.541   1.503  0.1588  0.1099  0.1494
86746W        W87610  15.352  10.358   4.668 -0.1665 -0.0390 -0.0329
86747W        W87611  16.696  11.061  29.017  0.4327  0.0684 -0.1201
86748W        W87612  12.368  11.856   4.825  0.0806 -0.1280 -0.2130
86749W        W87613  14.208  10.925   1.719  0.0083  0.1010  0.1792
86750W        W87614  12.066  10.288  27.373  0.3249  0.2321  0.1244
86751W        W87615  10.944  13.146   3.307  0.0356  0.0835 -0.1254
86752W        W87616  13.757  14.179   2.582 -0.1534  0.0536  0.2727
86753W        W87617  12.700  13.096  28.912 -0.0657 -0.1778  0.0755
86754W        W87618  12.476  11.516   0.199 -0.2351  0.3095  0.1903
86755W        W87619  10.182  15.133   2.479 -0.0780  0.1377  0.0579
86756W        W87620  11.298  14.496   6.745 -0.1260 -0.1211  0.1849
86757W        W87621  13.500  13.317   2.383  0.0534  0.1777 -0.0862
86758W        W87622  13.756  12.630   4.080  0.0685 -0.1296 -0.5435
86759W        W87623  12.040  13.503   5.165  0.0449  0.6811  0.1056
86760W        W87624  12.551  14.033   1.740 -0.0685 -0.0583  0.1047
86761W        W87625  13.633  12.450  28.853 -0.0080 -0.1597 -0.2647
86762W        W87626  14.543  13.066   0.402  0.1259  0.0073 -0.0611
86763W        W87627  13.922  16.766   3.180  0.2169 -0.0058  0.1251
86764W        W87628  10.686  15.465   3.549 -0.1621  0.2429  0.3144
86765W        W87629  14.712   9.791   4.211 -0.0719 -0.0016 -0.0646
86766W        W87630  14.523  12.256   2.993  0.2382 -0.0647 -0.1672
86767W        W87631  11.714  14.736   5.909  0.2060 -0.1239  0.2834
86768W        W87632  11.254  11.317   0.171  0.0537  0.2612  0.1464
86769W        W87633  17.608  10.964  28.679  0.0212  0.2087  0.0274
86770W        W87634  11.403  14.345   2.349  0.1010  0.2548 -0.0704
86771W        W87635  11.666  15.316   5.991  0.1789  0.2411  0.0505
86772W        W87636  13.539  10.600   1.860 -0.1747 -0.0728  0.0026
86773W        W87637  10.526  14.901  28.402  0.0037 -0.0012  0.0986
86774W        W87638  14.482  13.581   0.443  0.1124 -0.0320  0.1341
86775W        W87639  12.342  10.893   2.542 -0.1231  0.2983 -0.3647
86776W        W87640  12.397  14.055   7.908 -0.1758 -0.1891  0.1979
86777W        W87641  12.205  13.472   1.572 -0.1525 -0.1530 -0.0120
86778W        W87642  14.590  11.538   2.169 -0.0471 -0.0828 -0.0786
86779W        W87643  11.987  11.695   4.209 -0.2152 -0.0738  0.0900
86780W        W87644  11.088  13.615   1.995  0.2189  0.2121 -0.2076
86781W        W87645  12.996  11.301   1.288 -0.2028  0.1901  0.2005
86782W        W87646  13.725  13.494   3.497 -0.1192 -0.0849  0.3468
86783W        W87647  12.638  11.861   3.556 -0.0290 -0.5304  0.0590
86784W        W87648  13.713  13.328  28.686 -0.0282 -0.0740  0.0845
86785W        W87649  12.287  12.803   2.780  0.1792  0.1216 -0.1742
86786W        W87650  12.127  13.405   4.169  0.0558 -0.0722 -0.1979
86787W        W87651   9.443  10.413   3.366 -0.0349  0.3559 -0.4383
86788W        W87652  12.451  11.846   2.737  0.1307 -0.0444 -0.4140
86789W        W87653  13.264  11.036   3.373 -0.0101 -0.1326  0.2939
86790W        W87654  12.678  14.754   3.939  0.1337 -0.2069  0.1146
86791W        W87655  16.938  12.919   2.774  0.2244  0.2741 -0.1489
86792W        W87656  10.756  15.265   2.728 -0.1274  0.0027  0.0140
86793W        W87657  13.089  16.344   2.258 -0.2468 -0.0598  0.0111
86794W        W87658  12.676  12.798   3.275  0.0636 -0.1544  0.1497
86795W        W87659  11.316  10.977   0.853  0.1531 -0.1998  0.1060
86796W        W87660  13.096  14.728   3.502 -0.2242 -0.0996 -0.1763
86797W        W87661  14.996  12.513   5.877  0.4113  0.1533  0.1508
86798W        W87662  14.158  12.509   4.835 -0.0042  0.1669  0.4751
86799W        W87663  12.801  11.528   1.977  0.1209  0.3678 -0.2043
86800W        W87664  12.434  13.914  28.982 -0.1935  0.2545 -0.0635
86801W        W87665  15.782  11.575   1.917 -0.3005  0.2108 -0.0257
86802W        W87666  13.664  13.703   1.643 -0.4556 -0.2515  0.0645
86803W        W87667  14.028  12.625  28.325 -0.1068  0.1104  0.0350
86804W        W87668  13.312   8.706   0.528  0.1845  0.3271  0.1206
86805W        W87669  12.346  12.081   1.689 -0.2147 -0.1902  0.0569
86806W        W87670  13.028  11.255   4.915 -0.1693  0.0314  0.0588
86807W        W87671  12.208  12.851   4.931  0.4132 -0.2438 -0.3741
86808W        W87672  13.525  12.294   4.506  0.0441  0.3271  0.0309
86809W        W87673  12.019  14.514   0.264  0.0218  0.0586  0.0662
86810W        W87674  13.017  14.989   4.222 -0.2914  0.1297 -0.1754
86811W        W87675  12.968  12.318   1.596  0.0370  0.0397 -0.0021
86812W        W87676  14.281  13.256   3.609  0.0391 -0.0295  0.0131
86813W        W87677  12.210  12.086   4.397 -0.0623  0.0086 -0.0892
86814W        W87678  14.105  12.874   0.638 -0.2389  0.1384  0.0393
86815W        W87679  10.837  14.460   0.487  0.1563  0.5696  0.1373
86816W        W87680  12.657  10.987   4.127  0.1895  0.1121 -0.0758
86817W        W87681  12.053  11.467   4.940 -0.0112  0.0027  0.1705
86818W        W87682  12.594  13.052   4.560  0.1079  0.3477 -0.2618
86819W        W87683  15.121  15.683   1.149 -0.1183 -0.0550  0.2901
86820W        W87684  13.889  12.801   5.140  0.3169 -0.0246  0.0966
86821W        W87685  13.063  11.391   2.990  0.0516 -0.3690  0.0395
86822W        W87686  10.523  12.438   0.539 -0.1603  0.0913  0.0860
86823W        W87687  12.045  11.521  29.081 -0.1322  0.0477  0.3112
86824W        W87688  12.315  14.870   1.730 -0.1240 -0.2388 -0.0762
86825W        W87689  12.915  13.318   4.893 -0.0692 -0.1881 -0.1127
86826W        W87690  13.322  11.291  28.888  0.0119  0.1548  0.1350
86827W        W87691  11.861  11.807   1.583 -0.0392  0.2126  0.1302
86828W        W87692  13.019  13.238   1.587 -0.3861  0.0640 -0.0149
86829W        W87693  13.410  13.232  28.124 -0.3499  0.0726 -0.0186
86830W        W87694  12.814  12.909   2.798  0.1085 -0.0283 -0.0188
86831W        W87695  12.015  14.206  28.158 -0.2126 -0.1993  0.1427
86832W        W87696  11.818  11.463   1.970 -0.1982  0.1387  0.0948
86833W        W87697  14.419  11.060   3.546 -0.3204 -0.4295  0.3288
86834W        W87698  13.883  14.733  26.615 -0.0687 -0.0500 -0.0833
86835W        W87699  10.713  10.942   2.540 -0.1532  0.0313  0.0236
86836W        W87700  12.855  10.202   0.555  0.0554 -0.0548 -0.1629
86837W        W87701  13.290   9.037   3.538 -0.1218 -0.0770 -0.1554
86838W        W87702   9.811  13.409  27.171  0.0386  0.2140 -0.3971
86839W        W87703  12.244  12.819   0.575 -0.0070 -0.0639  0.1368
86840W        W87704  14.952  10.289   3.456 -0.0063 -0.4687 -0.1267
86841W        W87705  12.647  14.277   3.752  0.0753  0.1135  0.0647
86842W        W87706  13.188  13.517   3.545 -0.2098  0.0174  0.2926
86843W        W87707  12.020  13.240   2.774  0.2604 -0.1075  0.0079
86844W        W87708  12.730  13.567  28.695 -0.1739 -0.1057  0.0065
86845W        W87709  10.383  11.477   4.239 -0.0063 -0.0095  0.1174
86846W        W87710  10.564  12.700   3.618 -0.0355 -0.2663  0.1461
86847W        W87711  10.809  13.591   2.402 -0.1317 -0.2423  0.1110
86848W        W87712  14.553  13.508   1.275 -0.1483  0.2081 -0.2420
86849W        W87713  11.327  12.038   0.970 -0.1527  0.0782 -0.2503
86850W        W87714  13.649  17.030   2.829  0.1754  0.3705 -0.0031
86851W        W87715  15.229  16.316   3.099  0.1848 -0.2007  0.0443
86852W        W87716  14.000  11.674   2.875  0.2844 -0.3498 -0.2193
86853W        W87717  12.802  10.543   2.874 -0.3122  0.0612  0.2612
86854W        W87718  10.329  12.325   3.157 -0.1744  0.0744  0.2547
86855W        W87719  13.543  12.369   0.198  0.0235  0.0942 -0.1037
86856W        W87720  10.462  12.660   4.669  0.1615 -0.2237  0.1885
86857W        W87721  11.090  11.978  28.649 -0.3234 -0.0406  0.1577
86858W        W87722  12.123  13.837   2.052  0.3277  0.1073 -0.1429
86859W        W87723  11.845  15.119   3.846  0.1773  0.1162 -0.0891
86860W        W87724  11.710  12.763   2.037 -0.4092 -0.4345 -0.3021
86861W        W87725  10.862  10.531   2.004  0.2388  0.1750  0.0251
86862W        W87726  13.272  11.463   1.671 -0.0767 -0.0684  0.2854
86863W        W87727  14.134  13.742   3.357 -0.0137 -0.0256  0.1355
86864W        W87728  10.689  15.571  28.580 -0.0592 -0.0388 -0.2134
86865W        W87729  12.103  14.276   1.726 -0.0052 -0.1879 -0.2277
86866W        W87730  13.108  12.542  28.868 -0.0456  0.2407 -0.0900
86867W        W87731  11.338  13.680   4.584 -0.1285 -0.4103  0.3717
86868W        W87732  14.109  12.485   5.414  0.2790  0.1230 -0.1799
86869W        W87733  11.989  15.097   2.088  0.1042  0.1110  0.1963
86870W        W87734  12.168  14.567   4.464  0.1061 -0.2963 -0.1123
86871W        W87735  11.755  11.873   3.763 -0.2935  0.1976 -0.2344
86872W        W87736   9.641  14.666   0.288  0.0107 -0.0981  0.1222
86873W        W87737  12.709  12.704   0.442 -0.1108 -0.3336  0.2104
86874W        W87738   9.630  15.228   1.811 -0.2552 -0.1385 -0.1685
86875W        W87739  14.621  12.462   6.361  0.0230  0.1689 -0.1754
86876W        W87740  15.153  11.335   1.913  0.2173  0.0392 -0.1142
86877W        W87741  14.217  14.150   3.892  0.0681  0.1733  0.0991
86878W        W87742  14.348  14.191   3.374 -0.4888 -0.0833 -0.2312
86879W        W87743  15.288  14.240   2.348  0.1629  0.1097  0.3298
86880W        W87744  15.353  12.288   4.851  0.3690 -0.0687 -0.4345
86881W        W87745  11.996  13.431   3.698 -0.0228  0.0276 -0.2214
86882W        W87746  15.871  15.542   0.729 -0.2816 -0.1387  0.0149
86883W        W87747  12.511  12.481   3.715 -0.0664  0.1413  0.1104
86884W        W87748  13.885  11.973   2.439  0.1100 -0.2172  0.4326
86885W        W87749  13.245  13.591   1.345 -0.0920  0.2532  0.3134
86886W        W87750  11.359  12.375   1.904  0.1217  0.1179 -0.0970
86887W        W87751  11.133  12.814   4.184 -0.0501  0.1278 -0.1908
86888W        W87752  12.080  14.183  29.081  0.2590 -0.0530  0.1364
86889W        W87753  11.810  14.236   1.287 -0.0280  0.0745 -0.0440
86890W        W87754  11.643  15.293   2.401  0.2713 -0.1801  0.2312
86891W        W87755  14.075  10.147   0.281 -0.0350 -0.1629  0.2672
86892W        W87756  13.004  10.682   2.449 -0.1127  0.1349  0.0687
86893W        W87757  12.566  14.114   4.731 -0.1255  0.1589  0.0785
86894W        W87758   7.324  11.413   1.438 -0.2869 -0.0530 -0.1760
86895W        W87759  14.161  11.829   4.184 -0.3133  0.0075  0.3527
86896W        W87760  12.205  11.060   1.064 -0.3662  0.0753  0.1930
86897W        W87761  12.790  15.487   3.928 -0.0677  0.0300 -0.0469
86898W        W87762   9.635  12.961   5.430 -0.0470  0.0972 -0.2664
86899W        W87763  13.320  12.735  27.557 -0.2551  0.3467 -0.0472
86900W        W87764  11.364   9.820   2.658 -0.0009  0.1540  0.0946
86901W        W87765  10.650  12.512   2.853  0.0482  0.1167 -0.1326
86902W        W87766  12.206  15.037   4.825 -0.1629  0.1280  0.1317
86903W        W87767  10.248  15.016   1.960  0.3466  0.1494  0.1205
86904W        W87768  14.567  10.565  27.782  0.2526  0.2699 -0.3180
86905W        W87769  10.347  10.641   2.144 -0.0149 -0.2563  0.1269
86906W        W87770  14.417  14.557   3.712 -0.0574  0.2223  0.0561
86907W        W87771  10.556  13.222   3.604  0.3037  0.1570  0.0998
86908W        W87772  12.174  10.616  28.028 -0.0609 -0.0544 -0.1709
86909W        W87773  13.478  14.604   3.196 -0.1452 -0.1826  0.0942
86910W        W87774  13.792  11.610   5.798 -0.3058  0.0476  0.1203
86911W        W87775  13.343  14.593   1.375  0.1230  0.1073 -0.0886
86912W        W87776  15.847  12.183   3.076  0.0248 -0.2262 -0.0197
86913W        W87777  13.983   9.007   1.211 -0.2698  0.0630  0.2437
86914W        W87778  15.505   7.339   0.981 -0.1144  0.0717 -0.2059
86915W        W87779  13.665  12.647   1.976 -0.1182 -0.0216 -0.2661
86916W        W87780  13.153  13.330   2.796 -0.2594 -0.0930 -0.0467
86917W        W87781  13.196  14.655   0.196 -0.0783 -0.1556  0.3863
86918W        W87782  11.294  14.606   3.769 -0.1765 -0.1246 -0.1200
86919W        W87783  13.581  13.611  27.383  0.0875 -0.0748  0.0005
86920W        W87784  12.751  12.865   6.093  0.1020 -0.0893  0.3049
86921W        W87785  11.605  13.520   2.923  0.0876 -0.1124 -0.0730
86922W        W87786  16.984  13.043   2.328  0.1033  0.0124 -0.2969
86923W        W87787  12.074  11.807   2.360  0.0418  0.1298  0.3438
86924W        W87788  11.993  12.511   2.449  0.1992  0.0969 -0.1807
86925W        W87789  12.482  12.529   4.569  0.2710 -0.1192  0.0390
86926W        W87790  10.169  10.993  28.822 -0.1583 -0.0118  0.0124
86927W        W87791  11.466  13.076   3.098 -0.2264  0.2145 -0.1114
86928W        W87792  15.831  12.737   3.092 -0.0279 -0.0415 -0.1184
86929W        W87793  13.949  14.350   5.884  0.0603 -0.0256  0.2500
86930W        W87794  12.083  11.883   5.296  0.0985  0.2300 -0.1463
86931W        W87795  13.845  16.057   0.637  0.1600  0.0670 -0.3163
86932W        W87796  13.245  15.205   3.185 -0.0980  0.3692 -0.2276
86933W        W87797  10.154  14.665   2.565  0.5136  0.3639  0.1738
86934W        W87798  11.254  13.508   3.300  0.0308 -0.0929  0.2672
86935W        W87799  14.810  11.880   5.473  0.1397 -0.0855 -0.0849
86936W        W87800  12.713  13.179   0.307 -0.0226 -0.2781  0.1584
86937W        W87801  14.319  13.750   2.582  0.0710  0.2119  0.2074
86938W        W87802  12.797  12.695   4.200  0.1071 -0.0340  0.0405
86939W        W87803  12.955  14.474   0.605  0.2403 -0.2232 -0.1362
86940W        W87804  12.199  13.314   5.593 -0.0005 -0.1893  0.1748
86941W        W87805  14.804  15.723   2.491 -0.2614 -0.2569 -0.1545
86942W        W87806  13.072  14.468   4.119 -0.0709 -0.0863  0.1292
86943W        W87807  12.475  12.107   1.168  0.4495  0.0164  0.3118
86944W        W87808  10.932  12.158   1.634 -0.0109  0.0874 -0.0624
86945W        W87809   9.759  12.424   7.548 -0.2019 -0.0992 -0.0129
86946W        W87810  12.852  12.037   7.409 -0.3283 -0.0825 -0.0471
86947W        W87811  14.740  11.703   4.952 -0.3366  0.0398  0.1530
86948W        W87812  15.699  14.274   3.908 -0.1745  0.0541 -0.0171
86949W        W87813  12.011  13.752   6.708  0.0414  0.2070 -0.0059
86950W        W87814  10.851  12.318   5.263 -0.1250  0.1492 -0.1772
86951W        W87815  12.848  11.906   6.153 -0.2240  0.0428  0.3099
86952W        W87816  11.596  13.512  10.764 -0.0692  0.0690  0.2444
86953W        W87817  11.488  15.915   7.176  0.0308  0.3674 -0.0313
86954W        W87818  11.807  12.947   4.006  0.3723  0.2629  0.0321
86955W        W87819  11.697  11.456   5.363  0.1111  0.1395  0.0096
86956W        W87820  16.150  10.497   7.509  0.2434 -0.3285 -0.3408
86957W        W87821  14.765  12.386   4.632  0.2159  0.1709  0.2735
86958W        W87822  13.721  13.539   7.426  0.0695 -0.0108 -0.0141
86959W        W87823  11.050   6.993   5.663 -0.0080 -0.4481 -0.0177
86960W        W87824  11.672  14.104   6.644 -0.0925  0.2990 -0.0946
86961W        W87825  15.378  13.887   6.919 -0.0289  0.0780  0.0093
86962W        W87826  10.232  12.448   4.007  0.0706  0.2139 -0.3762
86963W        W87827  11.577  14.891   7.383 -0.3222 -0.2676 -0.0274
86964W        W87828  15.172  12.776   6.918 -0.1516 -0.1147  0.1605
86965W        W87829  16.980  12.970   5.175  0.1514 -0.1038  0.2350
86966W        W87830  11.143  12.661   7.357  0.2497  0.2363 -0.0468
86967W        W87831  13.452  10.703   7.057 -0.1994  0.1945  0.0465
86968W        W87832  14.410  12.662   8.358 -0.5450  0.0337  0.1853
86969W        W87833  12.690  13.878   7.417 -0.1576  0.1880 -0.0911
86970W        W87834  12.562  15.141   4.326 -0.2554 -0.0814 -0.0678
86971W        W87835  13.737  12.181   9.212  0.1514  0.3840 -0.1215
86972W        W87836  11.297  14.508   7.299  0.0725  0.2355  0.0838
86973W        W87837  13.359  10.517   8.706  0.1472 -0.2211  0.0480
86974W        W87838  11.794  11.398   8.304 -0.3019  0.1003 -0.1506
86975W        W87839  12.208  14.425   7.459  0.2562  0.1461  0.1252
86976W        W87840  15.130  14.379   6.823  0.2671 -0.2983 -0.2995
86977W        W87841  10.950  13.027   7.795  0.0392  0.1184  0.1888
86978W        W87842  15.751  12.842   5.503 -0.4062 -0.1957 -0.0737
86979W        W87843   9.785   8.877   7.888 -0.1074 -0.0361  0.1216
86980W        W87844  13.818  16.373   5.418 -0.2270 -0.0671  0.1068
86981W        W87845   9.655   9.874   4.298 -0.3248 -0.0899  0.2463
86982W        W87846  10.899  15.276   6.465  0.1345 -0.0611 -0.0986
86983W        W87847  14.796  13.359   5.788  0.2378 -0.2094  0.0537
86984W        W87848  14.831  11.075   3.317 -0.0863 -0.1775 -0.1737
86985W        W87849  14.801  12.954   6.069 -0.1074 -0.0022 -0.0313
86986W        W87850  14.568  13.293   7.475  0.0269 -0.0893  0.0554
86987W        W87851  12.173  13.936   7.424 -0.0701 -0.2580  0.0070
86988W        W87852  14.924  13.669   4.004  0.1957  0.1149 -0.0521
86989W        W87853  11.624  15.466   4.377 -0.2632 -0.4471  0.0763
86990W        W87854  10.475  12.681   5.813  0.2937  0.0316 -0.1266
86991W        W87855  12.091  10.573   5.079 -0.0982  0.0756 -0.3015
86992W        W87856  15.010  12.194   7.657 -0.2077 -0.0972  0.1037
86993W        W87857  15.543  11.599   5.546 -0.2283  0.2576  0.1875
86994W        W87858  12.573  12.616   5.354  0.1192 -0.1710  0.0596
86995W        W87859  14.480  13.824   6.541  0.2218 -0.0008 -0.1294
86996W        W87860  14.197  12.398   6.897 -0.1448  0.1523  0.0564
86997W        W87861  14.321  12.961   6.759  0.2887 -0.0815 -0.2117
86998W        W87862  14.260  13.013   4.854  0.0999 -0.1396 -0.2599
86999W        W87863  12.326   9.642   4.770 -0.0271  0.2859 -0.3266
87000W        W87864  11.998  15.248   2.787 -0.3685 -0.2894 -0.0946
87001W        W87865  11.934  12.469   3.680  0.0631  0.0385  0.1110
87002W        W87866  14.258  13.019   6.123 -0.1296 -0.0349 -0.0442
87003W        W87867  11.483  15.969   3.824 -0.3317 -0.0835  0.2942
87004W        W87868  11.714  12.852   4.887  0.1199  0.1407 -0.2854
87005W        W87869  12.509  14.243   6.075  0.2177  0.1276  0.2893
87006W        W87870  11.948  14.603   9.578 -0.1038  0.1751  0.1364
87007W        W87871  12.560  15.032   6.740  0.1486 -0.0124  0.0691
87008W        W87872  12.882  13.432   5.880  0.2132 -0.1499 -0.0594
87009W        W87873  13.373  11.274   6.611 -0.2057  0.1025  0.0125
87010W        W87874  15.232  10.373   5.868 -0.2704 -0.0913 -0.1288
87011W        W87875  12.557  12.010   5.393  0.2361  0.2470  0.2500
87012W        W87876   8.769  11.651   5.239  0.0491  0.4309 -0.0126
87013W        W87877  10.683  12.748   5.093 -0.2683 -0.2165 -0.2350
87014W        W87878  11.784  13.752   7.174 -0.0213  0.1575  0.0214
87015W        W87879  16.473  12.779   7.805 -0.2185  0.1782  0.1161
87016W        W87880  12.884  13.331   3.200  0.3616  0.0553 -0.0461
87017W        W87881  15.214  13.230   6.147 -0.1977 -0.1274 -0.2557
87018W        W87882  13.375  13.274   7.112 -0.1115 -0.1924  0.0325
87019W        W87883  14.446  14.417   5.813  0.0668 -0.0615  0.3070
87020W        W87884  14.381  14.761   6.184  0.2163 -0.1930  0.0369
87021W        W87885   9.286  13.663   6.689 -0.0172 -0.0031  0.0934
87022W        W87886  12.598  15.087   9.980  0.0805  0.2636 -0.2548
87023W        W87887  13.761  14.681   6.521  0.0689 -0.0203 -0.0193
87024W        W87888  13.918  10.408   5.620  0.0944 -0.0431 -0.0390
87025W        W87889  12.097  14.538   6.221 -0.1743  0.1472  0.0142
87026W        W87890  11.283  10.738   8.688  0.0331 -0.5008 -0.2810
87027W        W87891  10.549  10.193   4.656  0.2483  0.1095 -0.2385
87028W        W87892  12.111  11.624   8.020  0.3197  0.0121 -0.2641
87029W        W87893  12.693  12.502   8.193  0.3540 -0.0308  0.1721
87030W        W87894  13.476  11.145   4.633 -0.0870 -0.0682 -0.2157
87031W        W87895  13.233  16.002   6.598  0.1573  0.1225  0.1307
87032W        W87896  14.096  13.002   8.241  0.1798  0.0132 -0.1235
87033W        W87897  14.568  11.772   7.607 -0.1470 -0.2079 -0.2328
87034W        W87898  11.840  11.559   5.847  0.0831 -0.0091  0.3974
87035W        W87899  16.488  11.445   6.449  0.1115 -0.0905 -0.1794
87036W        W87900  13.748  12.635   9.828 -0.0327  0.0051 -0.0797
87037W        W87901  15.543  14.815   6.403  0.0241  0.3380 -0.1011
87038W        W87902  11.604  10.856   5.725 -0.0353 -0.0810 -0.2579
87039W        W87903  10.788  11.214   4.525  0.0301 -0.1565  0.1227
87040W        W87904  12.255  14.560   7.912  0.1245  0.3026  0.0113
87041W        W87905  15.772  11.377   3.504 -0.1051 -0.2207  0.0902
87042W        W87906  12.960  16.617   4.889 -0.0347  0.0370  0.3267
87043W        W87907   9.838   6.420   1.807  0.3239 -0.1816  0.0405
87044W        W87908  15.491  11.652   6.068 -0.0668  0.0514 -0.2412
87045W        W87909  16.764  13.471   5.112  0.3142  0.1633  0.3069
87046W        W87910  13.279  14.694   5.709 -0.0775 -0.0116  0.0296
87047W        W87911  13.333  13.076   5.813 -0.0162 -0.2456  0.1162
87048W        W87912  15.280  12.070   5.656  0.2302 -0.2644  0.2044
87049W        W87913  15.637  10.935   7.551  0.1007 -0.1971 -0.1527
87050W        W87914  12.330  13.530   7.712  0.0742 -0.0568 -0.0222
87051W        W87915  11.093  15.153   7.141  0.0107 -0.0824 -0.2098
87052W        W87916  11.932  14.114   7.882  0.0254 -0.0429  0.0260
87053W        W87917  13.114  11.817   8.834 -0.3774  0.0071  0.0959
87054W        W87918  12.146  12.241   2.830 -0.1421 -0.3333 -0.0169
87055W        W87919  10.206  13.502   6.499 -0.1762  0.0306 -0.0817
87056W        W87920  11.712  16.025   5.698 -0.1151  0.1699 -0.2270
87057W        W87921  13.844  12.885   7.078 -0.2119  0.2187  0.2840
87058W        W87922  15.316  14.614   8.470 -0.1571  0.1643  0.0082
87059W        W87923  13.355  13.460   5.044 -0.1388 -0.2659  0.1375
87060W        W87924  11.149  13.545   6.490  0.3520 -0.0780 -0.0241
87061W        W87925  17.220  12.724   9.303  0.2736  0.3203  0.3463
87062W        W87926  10.240  12.894   6.598  0.1871 -0.0767 -0.1135
87063W        W87927  13.338  13.614   5.655 -0.1244  0.4054 -0.2568
87064W        W87928  14.967  10.564   6.876 -0.0336 -0.1477  0.1382
87065W        W87929  13.416  11.997   4.872  0.1439  0.0250  0.1972
87066W        W87930  16.297  12.695   4.855 -0.3758 -0.0708 -0.0715
87067W        W87931  15.579  14.523   7.907 -0.0362  0.0034  0.0214
87068W        W87932  12.147  12.308   5.579 -0.2943 -0.5050 -0.3173
87069W        W87933  14.397  12.921   7.785  0.0334 -0.1238  0.0648
87070W        W87934  14.809  14.117   5.081  0.2230 -0.1206  0.1364
87071W        W87935   9.948  10.467   6.403  0.2466  0.0534  0.1949
87072W        W87936  16.151  11.551   8.222 -0.3053 -0.0812  0.2310
87073W        W87937  16.757  15.123   5.736 -0.4143  0.2100  0.2122
87074W        W87938  12.099  13.499   6.168  0.0685 -0.1753 -0.0438
87075W        W87939  13.378  13.719   6.137  0.0836  0.0904  0.1918
87076W        W87940  11.628  10.451   4.901 -0.0192 -0.0103 -0.1266
87077W        W87941  13.361  14.006   7.755 -0.1084  0.1720  0.2011
87078W        W87942  15.343  11.930   5.156  0.3174  0.2255 -0.0649
87079W        W87943  15.337  13.094   7.274 -0.1539 -0.0745 -0.2132
87080W        W87944  11.576  12.936   5.382 -0.1488 -0.1382  0.2331
87081W        W87945  14.311  10.968   6.244  0.1530 -0.0156 -0.2924
87082W        W87946  14.497  10.743   8.391 -0.0138  0.0471 -0.0189
87083W        W87947  16.258  15.914   4.428  0.0358 -0.1197 -0.5549
87084W        W87948  12.122  12.570   6.013  0.3703  0.1260  0.1393
87085W        W87949  12.239  11.384   2.802  0.2286  0.1579 -0.1162
87086W        W87950  13.970  10.557   7.008 -0.0618  0.0201  0.0927
87087W        W87951  11.423  15.453   2.846 -0.1020  0.0934 -0.0570
87088W        W87952  11.075  10.854   4.813  0.1417 -0.1293 -0.0842
87089W        W87953   9.888  14.343   9.210 -0.0596 -0.1191  0.1516
87090W        W87954  12.135  10.254   3.720  0.0185 -0.2661  0.1749
87091W        W87955  13.955  11.241   3.758 -0.1399  0.1115 -0.0081
87092W        W87956  13.163  13.248   6.260  0.0075  0.1994 -0.1075
87093W        W87957  14.495  13.485   6.890 -0.1410 -0.1037  0.2919
87094W        W87958  12.774  14.062   5.203 -0.2792 -0.5014  0.1775
87095W        W87959  13.122  13.520   6.690 -0.0349 -0.0479 -0.2752
87096W        W87960  12.764  12.250   5.043  0.1213 -0.0018 -0.1271
87097W        W87961  11.149  13.465   7.643  0.0586 -0.1303  0.0797
87098W        W87962  11.906  10.939   2.798  0.0509 -0.0875  0.1939
87099W        W87963  12.903  12.461   6.970  0.0246 -0.1528 -0.2341
87100W        W87964  14.358   9.215   6.274 -0.0472  0.2138 -0.3989
87101W        W87965  12.653   8.958   3.494  0.4459 -0.2745 -0.2525
87102W        W87966  14.755  13.916   5.527 -0.0381  0.1749 -0.0469
87103W        W87967  12.093   9.498   3.332 -0.3885  0.4504 -0.0093
87104W        W87968  13.888  15.016   4.223 -0.1930  0.0354  0.0721
87105W        W87969  14.290  10.567   5.214  0.0634 -0.0844  0.0203
87106W        W87970  14.692  16.903  10.471 -0.0385 -0.1154 -0.0251
87107W        W87971  13.797  13.877   8.768 -0.1410  0.0246  0.0619
87108W        W87972  12.691  14.956   8.095  0.1307 -0.0000 -0.0762
87109W        W87973  14.154  10.513   8.116 -0.1893 -0.3725 -0.2249
87110W        W87974  10.670  10.237   6.413  0.1914 -0.1837  0.0714
87111W        W87975  10.484   8.377   4.259 -0.2796  0.0770 -0.2747
87112W        W87976  14.262  13.901   5.712  0.0564 -0.0326 -0.3936
87113W        W87977  14.442  14.486   5.216 -0.0133  0.0517 -0.2599
87114W        W87978  11.558  15.677   3.396 -0.2322 -0.0286  0.1005
87115W        W87979  15.726  13.659   7.685 -0.0572  0.0559  0.0895
87116W        W87980  15.411  13.022   5.123  0.2972 -0.1625  0.0978
87117W        W87981  17.044  12.632   5.559 -0.0562 -0.2169  0.0439
87118W        W87982  12.771  12.773   4.938  0.0570 -0.0370 -0.3273
87119W        W87983  12.182  10.568   6.603 -0.0156  0.2399 -0.1107
87120W        W87984  13.734  11.552   4.829  0.0359  0.0953  0.0616
87121W        W87985  13.040  15.717  10.181  0.4037 -0.0534  0.0086
87122W        W87986  12.317  14.292   8.330  0.1168  0.0779  0.0805
87123W        W87987  11.775  12.479   5.186  0.1948 -0.3520 -0.0162
87124W        W87988  13.725  12.181   5.668  0.1568  0.2980  0.0806
87125W        W87989  11.292  13.272   2.595  0.0357 -0.0803  0.1964
87126W        W87990  16.588  13.261   4.040  0.1632  0.1117  0.1938
87127W        W87991  12.644  13.004   5.606  0.2539  0.0890  0.1710
87128W        W87992  12.363  10.451   4.582 -0.1966 -0.0001 -0.0073
87129W        W87993  13.092  11.139   5.768  0.0095 -0.1216  0.2163
87130W        W87994  12.448  15.883   6.435 -0.0486 -0.2513  0.1562
87131W        W87995  16.014  10.685   6.266 -0.0905  0.0510  0.0423
87132W        W87996  11.168  12.765   2.785  0.0272  0.0703  0.1246
87133W        W87997  13.696  13.580   4.230 -0.0101  0.3472  0.2353
87134W        W87998  14.172  11.902   6.881  0.0981 -0.0130  0.1813
87135W        W87999  12.229  11.360   4.479  0.3700 -0.0160  0.0236
87136W        W88000  10.292  14.062   6.353  0.3464 -0.0835 -0.1207
87137W        W88001  12.055  12.501   7.431 -0.1408 -0.1503  0.1916
87138W        W88002  12.189  12.787   9.440  0.1860  0.3586 -0.0485
87139W        W88003  11.899  11.052   5.387  0.1609 -0.0602  0.0267
87140W        W88004  12.800  13.221   2.243 -0.0973  0.1209  0.0315
87141W        W88005  14.015  10.606   4.754 -0.2734 -0.1722  0.1763
87142W        W88006  10.129   9.851   4.062 -0.1660 -0.2837  0.1932
87143W        W88007   9.126  12.877   5.661 -0.1092  0.1481  0.2406
87144W        W88008  14.420  11.332   7.347 -0.2513  0.2152  0.0715
87145W        W88009  10.115  12.648   5.457 -0.0777  0.1115  0.0742
87146W        W88010  13.190   9.179   5.555  0.0663 -0.2316  0.0154
87147W        W88011  15.740  12.030   3.946  0.0767 -0.2523  0.0848
87148W        W88012   9.949  12.254   5.304  0.2757 -0.1747  0.4074
87149W        W88013  10.976  11.485   4.889  0.0521  0.2366 -0.0310
87150W        W88014  11.401   8.771   5.330 -0.2130 -0.2114 -0.1283
87151W        W88015  10.224  15.185   6.110 -0.0905  0.3398  0.2565
87152W        W88016  10.748  11.834   5.182 -0.1028  0.0344  0.0776
87153W        W88017  14.738  13.034   4.619 -0.0101  0.1325  0.0427
87154W        W88018  10.757  14.153   1.623  0.0422 -0.1152 -0.0254
87155W        W88019  11.168  14.957   8.528  0.2443 -0.0199  0.0216
87156W        W88020  11.865  12.403   6.505  0.1070  0.1511  0.1247
87157W        W88021  12.872  13.397   7.650  0.1345 -0.0341  0.1544
87158W        W88022  13.466  10.454   6.052  0.0956  0.1870  0.0587
87159W        W88023  15.275  15.108   8.332 -0.0070 -0.0655  0.3444
87160W        W88024  13.644  11.855   4.356 -0.1200 -0.3355 -0.0344
87161W        W88025  14.346  13.476   4.669  0.0563 -0.1481  0.0218
87162W        W88026  12.567  15.068   6.215  0.3201  0.0609  0.1469
87163W        W88027  12.022  15.104   6.830  0.1355  0.1885  0.1647
87164W        W88028  11.881  16.451  10.467  0.1937 -0.1148 -0.0804
87165W        W88029  12.224  11.629   8.626  0.0768 -0.0426 -0.1131
87166W        W88030  14.553  10.803   7.837 -0.1975 -0.0544  0.2533
87167W        W88031  14.595  15.555   9.484 -0.0550 -0.2125  0.1378
87168W        W88032  11.718   7.974   3.512 -0.1201  0.0630  0.2742
87169W        W88033  14.748  14.150   3.845  0.0148 -0.0724  0.0539
87170W        W88034  11.686  10.893   7.943 -0.0186  0.2681  0.1626
87171W        W88035  12.439  12.897   8.370  0.3466  0.1114  0.3358
87172W        W88036  13.959  13.167   6.444  0.0676 -0.1276  0.2263
87173W        W88037  13.482  13.886   4.749  0.2954 -0.0630 -0.1791
87174W        W88038  14.474  14.185   7.492  0.1165  0.0405  0.0141
87175W        W88039  13.101  10.524   3.279  0.0532 -0.0104 -0.1898
87176W        W88040  10.595  14.128   8.466 -0.1844  0.3366 -0.1381
87177W        W88041  12.058  14.022   6.149  0.0886  0.0798  0.0695
87178W        W88042  16.649  12.562   2.940  0.0593 -0.0451  0.2341
87179W        W88043  11.777  11.134   4.459 -0.1623  0.1068 -0.0732
87180W        W88044  10.368  13.183   7.979 -0.2168 -0.1152  0.2327
87181W        W88045  13.016  10.978   7.191 -0.0770  0.0167  0.0577
87182W        W88046  11.191  12.145  10.333 -0.5514 -0.2294  0.1982
87183W        W88047  12.857  12.070   6.604  0.2357 -0.2264 -0.1401
87184W        W88048  13.062  12.923   4.609  0.0474 -0.2508 -0.0948
87185W        W88049  13.956  14.645   5.080 -0.0125 -0.0748 -0.0079
87186W        W88050  11.599  15.778   7.642  0.0766  0.0326  0.0297
87187W        W88051  11.172  12.618   5.570  0.1662  0.1006  0.4184
87188W        W88052  10.809  10.644   6.770 -0.0346 -0.0353  0.0414
87189W        W88053  13.912  13.368   6.921  0.3155 -0.3501  0.0077
87190W        W88054  14.087  13.327   5.253  0.1427  0.0578  0.0185
87191W        W88055  14.917  14.045   4.337 -0.3300 -0.0867 -0.0476
87192W        W88056  14.986  14.064   6.468 -0.0278 -0.1323  0.0603
87193W        W88057  15.563  13.591   3.268  0.3524 -0.0434 -0.0485
87194W        W88058  11.854   9.456   1.791 -0.0058 -0.1993 -0.1544
87195W        W88059  13.337  15.217   2.683  0.1011  0.0143  0.3021
87196W        W88060  12.173  14.771   3.999 -0.1413  0.3092  0.0048
87197W        W88061  17.088  14.620   4.624  0.0066  0.2223 -0.2428
87198W        W88062  14.276  11.649   6.079 -0.0238  0.1982  0.1440
87199W        W88063  11.454  13.026   7.596  0.1456  0.3155  0.0654
87200W        W88064  15.111  14.858   2.546  0.1416  0.0320 -0.1705
87201W        W88065  11.453  11.331   8.682 -0.0262  0.1038  0.1199
87202W        W88066  11.525  11.415   7.753  0.0365  0.2654 -0.2288
87203W        W88067  16.656  13.838   5.869 -0.0480 -0.0249 -0.0803
87204W        W88068  16.500  11.686   7.035 -0.1137 -0.0831 -0.1736
87205W        W88069  15.187  13.927   5.286  0.0804 -0.1345  0.0473
87206W        W88070  12.028  15.076   9.785  0.4132  0.2461 -0.1690
87207W        W88071  13.657  15.540   5.242  0.0245  0.0158 -0.2075
87208W        W88072  10.390  11.847  10.086  0.1250 -0.0160  0.0723
87209W        W88073  14.593  14.235   6.235 -0.0642 -0.2015  0.0340
87210W        W88074  12.164  15.800   5.722 -0.0493 -0.1116 -0.1179
87211W        W88075  12.462  15.888   3.849  0.2632  0.0114 -0.2982
87212W        W88076  12.429  13.290   8.651  0.1361  0.0904  0.0054
87213W        W88077  12.870  11.525   6.473 -0.0782  0.2605 -0.2362
87214W        W88078  15.527  10.614   2.251  0.0275 -0.3850  0.0823
87215W        W88079  12.671  13.601   4.451 -0.2852 -0.0266 -0.3846
87216W        W88080  16.166  14.079   7.618 -0.0660  0.1077 -0.1351
87217W        W88081  12.599  10.175   6.503 -0.1177  0.0457  0.1161
87218W        W88082   8.872  12.376   7.550 -0.2024 -0.0661  0.2166
87219W        W88083  15.591  14.557   4.620  0.3837  0.0338  0.0424
87220W        W88084  11.475  10.701   4.499 -0.0791  0.0509  0.0130
87221W        W88085  10.952   8.842   9.554  0.0477 -0.2367 -0.0102
87222W        W88086  12.797  12.527   6.469  0.1840 -0.1132  0.0542
87223W        W88087  13.834  10.886   5.443  0.2032  0.0709 -0.0011
87224W        W88088  11.936  15.432   4.763 -0.2254 -0.0462 -0.2761
87225W        W88089  11.979  12.001   8.340 -0.2190  0.0982 -0.1508
87226W        W88090   9.569  14.082   6.863  0.4264  0.3376 -0.2177
87227W        W88091  11.600  12.643   4.379  0.1355 -0.2661  0.1957
87228W        W88092  10.060  13.261   5.704 -0.0538  0.1323 -0.3390
87229W        W88093  14.406  12.605   5.887 -0.0410  0.2555  0.0089
87230W        W88094  15.334  12.065   8.031  0.0655  0.1996  0.1439
87231W        W88095  12.969  13.620   5.302  0.0652  0.3294 -0.2239
87232W        W88096  12.494  15.576   6.059 -0.0916  0.1035  0.3023
87233W        W88097  11.895  11.211   3.237  0.4099 -0.1214 -0.2926
87234W        W88098  12.333  12.825   6.499  0.2594  0.3470  0.3113
87235W        W88099  12.542  13.122   6.928 -0.0233  0.0320 -0.0240
87236W        W88100  13.226  11.821   1.324  0.1627 -0.2279  0.0471
87237W        W88101  14.742  11.253   6.049 -0.2368 -0.3004 -0.0634
87238W        W88102   8.993  11.916   5.577  0.2678  0.0890 -0.2122
87239W        W88103  10.681  13.647   6.589  0.3737  0.1342 -0.1340
87240W        W88104  14.598  13.744   3.041  0.1102 -0.1486 -0.1393
87241W        W88105  12.426  12.377   6.782 -0.1296  0.0174 -0.4450
87242W        W88106  15.813  12.631   8.219 -0.0987 -0.1334  0.3162
87243W        W88107  15.426  15.085   5.788  0.0710 -0.0325  0.1124
87244W        W88108  12.710  15.085   3.545  0.0418 -0.2310  0.1024
87245W        W88109   9.353  13.941   4.253  0.0965  0.0569  0.2248
87246W        W88110  11.642  13.694   6.312 -0.2890  0.0985 -0.0201
87247W        W88111  12.883  16.420   7.353  0.4077 -0.1072  0.0211
87248W        W88112  15.050  12.697   4.932  0.0105  0.1394  0.4378
87249W        W88113  14.463  13.808   4.133  0.1219  0.0536  0.0371
87250W        W88114  14.479  14.285   4.283 -0.0736  0.1309 -0.0238
87251W        W88115  13.536  10.180   5.471  0.1737 -0.0606  0.0916
87252W        W88116  10.794  12.967   5.543 -0.0490  0.1010  0.2858
87253W        W88117  12.916  11.773   4.839 -0.1267  0.1842 -0.1533
87254W        W88118   8.943  10.548   6.797 -0.0758 -0.1341 -0.0389
87255W        W88119  11.645  12.011   5.081  0.2351  0.1581 -0.0876
87256W        W88120  11.161  12.860   6.464 -0.1166 -0.2302 -0.0412
87257W        W88121  14.083  12.247   6.006  0.1769 -0.0071  0.1174
87258W        W88122  14.664  12.071   6.763  0.1546  0.1891  0.0795
87259W        W88123  12.633  13.291   6.320 -0.0622 -0.0105  0.2067
87260W        W88124  12.964  15.601   5.936 -0.2075 -0.3194 -0.2407
87261W        W88125  10.425   9.209   4.148 -0.0380 -0.1336  0.1832
87262W        W88126  12.737  11.355   4.487  0.0081 -0.1922 -0.2070
87263W        W88127  17.149  13.180   5.958 -0.1968  0.1831 -0.2513
87264W        W88128  11.304  13.543   5.872 -0.3133 -0.0957  0.0662
87265W        W88129  13.054  14.446   6.852 -0.2479 -0.0801 -0.1623
87266W        W88130  14.375  14.939   4.012 -0.3190 -0.0807 -0.0456
87267W        W88131  12.113  13.148   8.101 -0.0392 -0.1377  0.2926
87268W        W88132  12.701  11.795   6.994  0.0813 -0.1481 -0.1509
87269W        W88133  10.680  12.485   4.250  0.3090  0.2240 -0.1015
87270W        W88134  13.312  11.699   7.417 -0.1188 -0.3306 -0.3169
87271W        W88135   8.755   9.670   4.560  0.0176  0.2998 -0.0777
87272W        W88136  14.086  13.138   4.384 -0.1855 -0.1961  0.2011
87273W        W88137  11.628  13.398   5.412  0.2037 -0.0698 -0.0454
87274W        W88138  10.744  15.450   6.914  0.0387  0.1287 -0.0905
87275W        W88139  10.180   9.767   7.686 -0.0483  0.0093 -0.2347
87276W        W88140  12.370  13.875   2.513  0.1045  0.0157  0.0460
87277W        W88141  14.045  12.576   7.942 -0.2038 -0.1022 -0.1477
87278W        W88142  16.806  14.252   6.280  0.2578 -0.0603  0.1232
87279W        W88143  15.558  14.785   6.931 -0.1495  0.0223  0.0637
87280W        W88144  15.929  13.781   7.237 -0.0146  0.2067 -0.0772
87281W        W88145  12.059  14.184   7.025 -0.2467 -0.0578 -0.2191
87282W        W88146  14.036  12.303   4.315  0.1514 -0.1210 -0.0298
87283W        W88147  11.786  12.158   6.047 -0.1216  0.1085  0.2124
87284W        W88148  12.244  12.624   4.081  0.1631 -0.2551 -0.1445
87285W        W88149  12.901  13.103   3.667 -0.1384 -0.2749 -0.1738
87286W        W88150  12.597  12.379   5.835  0.0106 -0.1318  0.1761
87287W        W88151  11.786  10.884   7.426  0.2947  0.3720  0.1450
87288W        W88152  12.512  13.186   5.182 -0.2726  0.0945  0.1392
87289W        W88153  11.614  12.996   6.751  0.2227 -0.0950 -0.1706
87290W        W88154  15.338  12.147   6.203 -0.0327  0.1498 -0.3057
87291W        W88155  13.125  14.236   4.598  0.1100  0.1132 -0.0835
87292W        W88156  13.105  10.222   5.699  0.0974 -0.0322  0.0883
87293W        W88157  15.622  13.403   6.955  0.3106  0.0215 -0.0085
87294W        W88158  11.128  11.607   3.558  0.0101  0.2224  0.2092
87295W        W88159  15.095  12.258   7.137  0.0733 -0.0686 -0.0474
87296W        W88160  13.848  11.018   4.967 -0.1316  0.0078 -0.0571
87297W        W88161  14.167  13.736   7.401  0.0324 -0.2023 -0.0220
87298W        W88162  11.861  15.081   5.207 -0.0884  0.0377  0.0371
87299W        W88163  14.902  12.203   5.110  0.2840 -0.0735 -0.3607
87300W        W88164  14.441  10.729   4.191  0.0500 -0.2667  0.1613
87301W        W88165  11.615  15.840   9.205 -0.0691 -0.1334 -0.0748
87302W        W88166  12.301  11.913   5.825  0.3955  0.0925 -0.1879
87303W        W88167  12.258  11.868   6.716 -0.1295  0.1023  0.1072
87304W        W88168   9.644  12.649   5.005  0.0503  0.0266 -0.3808
87305W        W88169  11.612  11.676   3.360 -0.1618 -0.1501 -0.2643
87306W        W88170  12.554  11.306   7.784 -0.0922 -0.0408 -0.4824
87307W        W88171  12.864  11.690   7.775  0.2888  0.1355 -0.0116
87308W        W88172  12.105  10.207   6.149 -0.1061 -0.1449  0.0060
87309W        W88173  12.331  14.058   6.533  0.0778  0.0756  0.0607
87310W        W88174  14.576  14.873   4.477  0.0579  0.0134 -0.0330
87311W        W88175  14.085  14.746   5.564  0.0438 -0.3669 -0.0531
87312W        W88176  15.706  15.924   4.295 -0.2089  0.2569  0.2880
87313W        W88177  13.222  10.338   2.656 -0.3915  0.0027  0.2779
87314W        W88178  13.789  10.252   4.535  0.3405  0.1760 -0.1337
87315W        W88179  12.521  12.613   7.293  0.1763 -0.3728 -0.2157
87316W        W88180  15.586   9.012   4.941 -0.0627 -0.1650 -0.0174
87317W        W88181  14.699  12.586   6.915  0.2103  0.0317 -0.0451
87318W        W88182  13.577  14.271   6.226 -0.0200  0.0052 -0.3769
87319W        W88183  14.867  16.216   2.592  0.0927  0.0781  0.3617
87320W        W88184  13.908  10.225   6.079 -0.0275  0.0447  0.0310
87321W        W88185  13.351  11.566   5.127 -0.3186 -0.0892  0.1825
87322W        W88186  12.909  16.031   7.649  0.0875 -0.0636  0.0152
87323W        W88187  13.852  11.360   5.341 -0.2470  0.1484 -0.1109
87324W        W88188  11.096  11.663   8.917 -0.3045 -0.2366  0.1605
87325W        W88189  12.320  13.078   5.992 -0.2010  0.1671 -0.0126
87326W        W88190  11.920  13.932   8.582 -0.2451  0.2700 -0.1305
87327W        W88191  13.268  12.441   6.667 -0.0127 -0.0888 -0.0459
87328W        W88192  14.190  14.962   6.646 -0.2334  0.1573 -0.0126
87329W        W88193  16.030  11.962   4.307 -0.2894 -0.0505  0.0336
87330W        W88194  14.048  13.396   7.862 -0.0722  0.2212 -0.0636
87331W        W88195  11.559  11.572   4.900  0.1332  0.2525 -0.0758
87332W        W88196  11.152  16.515   7.747  0.0762 -0.0083 -0.0282
87333W        W88197  14.242  16.287   5.203  0.0027 -0.0004 -0.0783
87334W        W88198  13.921  11.323   6.283 -0.0415  0.2371 -0.0469
87335W        W88199  13.962  15.072   7.158  0.1218 -0.1428  0.1570
87336W        W88200  12.051  12.800   5.538 -0.2420  0.2159  0.1740
87337W        W88201  13.000  13.015   8.053 -0.0068  0.3098 -0.0915
87338W        W88202  13.841  13.890   7.789 -0.1411  0.0597 -0.1666
87339W        W88203  13.764  17.109   7.709 -0.1713  0.1996  0.2714
87340W        W88204  11.710  11.234   6.194  0.0887  0.1628  0.1453
87341W        W88205  17.292  14.340   2.315 -0.1435 -0.2728  0.1752
87342W        W88206  12.331  13.698   8.401 -0.1725 -0.1073  0.1219
87343W        W88207  13.628  15.030   5.506  0.0281 -0.2516 -0.0010
87344W        W88208  12.344  11.415   5.464 -0.1822 -0.0169 -0.1981
87345W        W88209  11.316  12.566   9.803 -0.2892 -0.2517  0.2379
87346W        W88210  11.403  12.208   7.189 -0.0451  0.0689 -0.0560
87347W        W88211  14.660  14.304   9.977 -0.2218 -0.1742  0.1080
87348W        W88212  11.271  14.030  10.300  0.0407  0.3756 -0.1448
87349W        W88213  11.635  15.006   8.362 -0.0520  0.0937  0.2092
87350W        W88214  12.826  11.440   7.288  0.1516 -0.0196  0.2147
87351W        W88215  12.472  15.132   7.236  0.1181 -0.0817 -0.0022
87352W        W88216  11.315  13.523   9.293  0.0177 -0.1498  0.1551
87353W        W88217  13.293  13.100   8.867  0.0570  0.0274 -0.1475
87354W        W88218   9.191  10.942  11.032 -0.2004  0.0180  0.2637
87355W        W88219  12.912   8.984  10.083 -0.2385  0.0913 -0.0192
87356W        W88220  14.916  12.445   8.082 -0.4985  0.2205  0.0243
87357W        W88221  15.152  13.561   7.171 -0.0491  0.3486 -0.0397
87358W        W88222  15.491  12.418  10.999  0.0582 -0.3253 -0.1432
87359W        W88223  12.501  11.111  11.394  0.0260  0.1122 -0.0056
87360W        W88224  12.184  14.149  12.303  0.0880 -0.0402  0.3301
87361W        W88225  12.735  12.841   7.681 -0.0448  0.0103 -0.0328
87362W        W88226  13.555   9.924   8.149 -0.0664  0.0305 -0.2216
87363W        W88227  12.485  10.547   8.700  0.0586  0.0039  0.1218
87364W        W88228  12.024  13.722  10.471  0.0676 -0.2530  0.1218
87365W        W88229  15.397  13.081   8.478  0.0979  0.0590 -0.0580
87366W        W88230  13.661  11.311   8.160 -0.3460  0.0203 -0.0251
87367W        W88231  12.867  13.405  10.714  0.0131  0.2508 -0.3753
87368W        W88232  12.769  12.242   9.082 -0.0330 -0.1173 -0.3556
87369W        W88233  10.573  12.015   9.669 -0.0161 -0.3344 -0.1098
87370W        W88234  11.412  12.067   9.456  0.2280  0.0308  0.2227
87371W        W88235  15.552  11.963  11.243  0.2444  0.1340 -0.2355
87372W        W88236  12.196  16.105   6.765 -0.0402  0.0116 -0.0222
87373W        W88237  12.628  14.610  11.741 -0.2371 -0.1630  0.0634
87374W        W88238  13.178  11.601   6.913 -0.0850  0.1271 -0.1111
87375W        W88239  13.092  12.868   9.578 -0.2263 -0.0999  0.2110
87376W        W88240  12.660  15.972  11.019 -0.0008 -0.1078  0.1485
87377W        W88241  13.618  14.346   8.412  0.0200 -0.0102 -0.1651
87378W        W88242  13.694  12.430   7.086  0.2172 -0.3603  0.1418
87379W        W88243  13.651  11.699  11.535  0.0162 -0.1615  0.0273
87380W        W88244  12.763  13.085  10.181  0.1006  0.0225  0.0999
87381W        W88245  10.779   9.343   5.707 -0.0664  0.0094 -0.0441
87382W        W88246  10.695  14.398   9.368 -0.1403  0.1537 -0.0341
87383W        W88247  15.462  13.183  11.472 -0.1469  0.1264  0.1239
87384W        W88248  14.125  13.621  10.454 -0.3641 -0.2797  0.2722
87385W        W88249  13.630  12.703   9.018  0.1762  0.2589  0.1736
87386W        W88250  13.142  13.020  10.445 -0.2078 -0.1384 -0.0358
87387W        W88251  13.360  13.534   8.616  0.0725 -0.1027  0.2096
87388W        W88252  12.995  14.697   9.790 -0.1774  0.0140 -0.1594
87389W        W88253  13.254  15.379   5.022 -0.0823  0.0429  0.1221
87390W        W88254   9.679  16.277   7.495 -0.3080  0.0556  0.0309
87391W        W88255  12.667  11.947   9.836 -0.1811 -0.0706  0.0205
87392W        W88256  17.555  10.872  11.241  0.1320  0.1316 -0.2046
87393W        W88257  13.387  13.378   7.782 -0.0830  0.0200 -0.2686
87394W        W88258  13.847  10.763   6.056 -0.0683  0.0006 -0.1164
87395W        W88259  11.771  12.523   9.619  0.0990  0.1178  0.1281
87396W        W88260  11.930  11.329   7.208 -0.1667  0.0152 -0.1017
87397W        W88261  13.588  11.736  10.063  0.2591 -0.1454 -0.0997
87398W        W88262  13.631  17.160   8.185 -0.2575 -0.0060 -0.1274
87399W        W88263  13.313  10.959   8.072  0.3945  0.1857 -0.2100
87400W        W88264  11.626  13.644  10.192  0.4802  0.3403  0.4541
87401W        W88265  13.073  12.916   6.706 -0.1578  0.0130  0.2397
87402W        W88266  13.548  14.632   7.547 -0.0152  0.0336 -0.0853
87403W        W88267  11.854  12.850   9.954  0.1429  0.0654 -0.2661
87404W        W88268  12.356  13.210  10.501 -0.2691  0.0361 -0.0879
87405W        W88269  12.853   9.683   6.273 -0.3999  0.0610  0.0695
87406W        W88270  10.143  13.504  10.680 -0.0678 -0.1051 -0.1739
87407W        W88271  11.528  14.924   9.050  0.2650  0.3236 -0.0511
87408W        W88272  15.019   9.606   5.820  0.3448  0.2373 -0.1685
87409W        W88273  11.907   9.906   8.856  0.2750 -0.0652  0.0717
87410W        W88274  13.035  11.879   8.287  0.2763 -0.1199 -0.1628
87411W        W88275  11.608  13.497   6.755  0.2494 -0.0830 -0.2385
87412W        W88276  12.896  10.698  11.336 -0.2300 -0.0413 -0.2585
87413W        W88277  11.538  15.577  10.257 -0.5747  0.2262  0.2696
87414W        W88278  14.163  10.455   7.646  0.0894 -0.2183 -0.1449
87415W        W88279  14.027  15.033  10.432 -0.1652 -0.0869  0.1124
87416W        W88280  13.743   9.930   7.583  0.0015 -0.0693  0.0062
87417W        W88281  13.382  13.645   9.940  0.1809 -0.1187  0.1252
87418W        W88282  12.277  12.726  10.836 -0.1352 -0.0152  0.1854
87419W        W88283  14.686  14.992  10.292  0.1718 -0.2087  0.4512
87420W        W88284  13.798  15.551   9.508 -0.0951 -0.1606  0.1147
87421W        W88285   8.373  13.127   9.645 -0.0901  0.0052  0.1310
87422W        W88286  12.373  12.296  11.586 -0.0180 -0.2039  0.2355
87423W        W88287  12.910  15.513   9.734  0.1606  0.0273  0.0444
87424W        W88288  13.389  12.482   9.442  0.2565 -0.0238  0.0221
87425W        W88289  14.171  14.519   9.529 -0.0369 -0.0026  0.0688
87426W        W88290  11.609  12.171  10.639 -0.3065 -0.0578 -0.0796
87427W        W88291  11.754   7.225   9.685 -0.2095  0.3504 -0.0156
87428W        W88292  13.419  11.237  11.437  0.0963 -0.0946  0.0593
87429W        W88293  12.139  11.452  11.617  0.2506 -0.0998 -0.0942
87430W        W88294  14.383  12.250   7.809  0.2191 -0.2208 -0.1455
87431W        W88295  13.968  17.856  13.028 -0.2437 -0.2956 -0.0869
87432W        W88296   9.841  11.387  11.388 -0.3086 -0.1782 -0.0248
87433W        W88297  14.519  12.826  11.583  0.1538 -0.0350  0.1995
87434W        W88298  15.597  14.275   9.742 -0.1943  0.0330  0.1070
87435W        W88299  13.772  11.651   6.729  0.1562 -0.2395 -0.0957
87436W        W88300  10.738  13.341  12.076 -0.0726 -0.1185 -0.0953
87437W        W88301  11.666  14.156   7.405 -0.2978 -0.1792 -0.0535
87438W        W88302  12.577   9.364   6.061 -0.2235 -0.1282  0.0234
87439W        W88303  12.463  11.181  10.639  0.0952 -0.2215 -0.2546
87440W        W88304  13.282  10.105   7.676  0.2129 -0.0318 -0.1154
87441W        W88305  14.665  16.055   9.850  0.3748  0.2317  0.1086
87442W        W88306  14.078  14.842   9.071  0.0083  0.1975  0.1031
87443W        W88307  11.803  13.328   7.755  0.2316 -0.3298 -0.2218
87444W        W88308  14.747  10.658   7.377 -0.0006  0.2215  0.1523
87445W        W88309  14.211  15.123   5.814 -0.0279  0.1200  0.2356
87446W        W88310  12.725  12.882  10.749  0.1880  0.1994 -0.0890
87447W        W88311  12.326  10.246   7.687 -0.2686 -0.4008 -0.0102
87448W        W88312  12.898  12.924   7.159  0.2769  0.0958 -0.0530
87449W        W88313  13.730  11.254  10.079 -0.2140  0.0803  0.2515
87450W        W88314  12.663  12.673   9.381 -0.2662  0.0102  0.3312
87451W        W88315  13.852  14.908   9.756 -0.1678  0.0573 -0.1166
87452W        W88316  14.737  13.781  12.685 -0.1291 -0.0168  0.0890
87453W        W88317  13.172  11.308   9.049 -0.0396  0.0137 -0.1586
87454W        W88318  11.852  11.033  10.787 -0.0218 -0.1756 -0.3091
87455W        W88319  11.763  17.333  10.707  0.1067  0.1760 -0.3358
87456W        W88320  12.762  15.266   9.227 -0.1610 -0.2086  0.1239
87457W        W88321  13.385  13.148   9.939 -0.0083 -0.0413  0.0548
87458W        W88322  12.394  13.558  10.880 -0.1296  0.1121 -0.2342
87459W        W88323  14.021  13.914   8.306 -0.0822 -0.3417 -0.1374
87460W        W88324  12.968   9.841   9.345 -0.0077  0.1262 -0.0226
87461W        W88325  14.551  12.891   8.895 -0.3384 -0.0379 -0.0462
87462W        W88326  13.685   8.836   7.553  0.0541  0.1192 -0.1812
87463W        W88327  13.092  12.644  10.018  0.3114  0.0260  0.3517
87464W        W88328  12.040  16.216   6.340 -0.5410 -0.1923 -0.0400
87465W        W88329  13.619   8.286   7.536  0.0658 -0.2429  0.2101
87466W        W88330  14.600  13.113  10.729 -0.3540  0.0790 -0.2011
87467W        W88331  15.080  14.776  10.967 -0.3291  0.2155  0.1508
87468W        W88332  12.995  14.008   9.047 -0.1661 -0.1752 -0.2836
87469W        W88333  13.184  14.307   8.156 -0.2754 -0.0583 -0.1709
87470W        W88334  12.584  13.879   9.819 -0.0764  0.0798  0.0642
87471W        W88335  10.604  11.814  12.346  0.4346 -0.2095 -0.1529
87472W        W88336  16.059  10.264  12.390 -0.2640 -0.0645 -0.0794
87473W        W88337  15.234  15.563   8.152 -0.0358  0.0133 -0.1677
87474W        W88338  13.060  13.591   8.210  0.0733  0.2479  0.3113
87475W        W88339  13.072  13.875   9.528 -0.0468  0.3163 -0.0746
87476W        W88340  12.749  12.654  11.806 -0.1786  0.0381 -0.4363
87477W        W88341  13.015  16.249  10.678  0.2470  0.1335 -0.1822
87478W        W88342  14.813  11.950   8.071  0.0450  0.1215  0.1167
87479W        W88343  12.381  15.289   8.526 -0.1875 -0.3487 -0.1845
87480W        W88344  11.072  11.610  12.564  0.0817  0.0682 -0.0494
87481W        W88345  15.040  12.868   9.348  0.1712  0.0813 -0.0291
87482W        W88346  15.468  12.101  12.961 -0.0831  0.1239 -0.0258
87483W        W88347  11.829  13.339   9.197  0.2163  0.0158  0.0905
87484W        W88348  13.670  13.407   9.010 -0.4261 -0.2438 -0.0026
87485W        W88349  12.469  11.364   9.019  0.1143  0.1668 -0.1517
87486W        W88350  13.161  10.438  10.092  0.0796 -0.0014  0.3386
87487W        W88351  13.076  15.932   4.940  0.2253 -0.0060 -0.3921
87488W        W88352  12.511  15.505  10.208  0.0301  0.1401  0.0670
87489W        W88353  14.034  11.718   8.415  0.0383 -0.0186 -0.2674
87490W        W88354  15.428  10.252   8.072 -0.3009  0.4852 -0.0272
87491W        W88355  13.735  12.121   8.117  0.1281  0.0818 -0.1499
87492W        W88356  16.399  13.580  11.213  0.2002 -0.0926 -0.1735
87493W        W88357  12.514  16.097   8.975  0.1769  0.1870  0.1321
87494W        W88358  14.815  14.235   9.391  0.1834  0.2421  0.1019
87495W        W88359  14.752  14.382   8.590 -0.1776 -0.0776  0.2007
87496W        W88360  13.773   9.541   9.902 -0.1784  0.0090  0.0352
87497W        W88361  12.448  15.596   8.879 -0.0938  0.1296  0.2714
87498W        W88362  11.943  10.745   6.145 -0.2094 -0.4143  0.0688
87499W        W88363  14.099  11.288   7.741  0.0430 -0.5030 -0.1567
87500W        W88364  13.474  11.557  11.946  0.2571 -0.2517 -0.1494
87501W        W88365   9.808  13.197  10.075 -0.2109 -0.2988  0.0105
87502W        W88366  10.293  15.959   8.127  0.2302 -0.3042 -0.2449
87503W        W88367  11.343  10.516   9.754 -0.1776 -0.3751  0.2927
87504W        W88368  12.999  12.249   8.619  0.1376 -0.1588 -0.0641
87505W        W88369  16.030  11.286   6.687  0.1635 -0.2978 -0.1904
87506W        W88370  10.486  14.227   7.371 -0.0452  0.2209  0.3981
87507W        W88371  12.891  14.393   8.615 -0.1898  0.4019 -0.2232
87508W        W88372  14.694  11.461  11.652  0.1101 -0.0069 -0.0084
87509W        W88373  14.729  10.593   9.983  0.1231 -0.0324  0.0117
87510W        W88374  14.047  13.042   9.131  0.0047  0.1755  0.0734
87511W        W88375  12.561   9.239  10.683 -0.0206 -0.1796 -0.0273
87512W        W88376  12.603  14.873   9.485 -0.0247 -0.0891  0.3228
87513W        W88377  12.085  12.867  11.395  0.4564 -0.0427  0.0919
87514W        W88378  11.717  13.729   8.974  0.2545  0.1240 -0.4573
87515W        W88379  12.150  11.788   9.873  0.1720 -0.1801 -0.2478
87516W        W88380  14.241  11.790  11.636 -0.1361 -0.1683 -0.1018
87517W        W88381  13.128  12.586  10.605  0.2651  0.1362  0.2405
87518W        W88382  12.464  15.967   7.301 -0.1654 -0.0160  0.1490
87519W        W88383  14.387  10.471   6.029 -0.0968  0.1538 -0.1107
87520W        W88384  14.825  14.061   7.828 -0.2054  0.2222 -0.1057
87521W        W88385  11.196  15.351  12.105 -0.0896  0.0931  0.3902
87522W        W88386  11.802  14.592  10.073  0.1225  0.0274 -0.1413
87523W        W88387  13.455  15.157   7.761  0.1697  0.4916 -0.2435
87524W        W88388  14.241  10.770  11.777 -0.2898  0.0084 -0.2446
87525W        W88389  11.917  12.288   6.963 -0.4378 -0.0394 -0.2549
87526W        W88390  12.890  13.887   7.863  0.1933  0.0415  0.2006
87527W        W88391  12.798  16.876   9.943  0.0574  0.2317  0.2575
87528W        W88392  15.757  10.789   5.810 -0.0200  0.1760 -0.0347
87529W        W88393  11.923  10.650   4.572  0.0803 -0.1854 -0.0235
87530W        W88394  13.848  14.084  13.958  0.2397  0.1164  0.2577
87531W        W88395  14.166  11.277   5.730 -0.1566 -0.2776 -0.1907
87532W        W88396  11.673  10.205   7.418 -0.1416  0.0536 -0.2661
87533W        W88397  11.827  12.412   8.640 -0.0782 -0.1698 -0.3698
87534W        W88398  13.098  12.470   7.479  0.3350 -0.1735 -0.2126
87535W        W88399  10.946  11.772   5.933 -0.1434  0.1125 -0.2216
87536W        W88400  11.248  12.732   8.101 -0.1087  0.1260  0.3389
87537W        W88401  14.694  10.570  11.875  0.3180  0.0779 -0.2708
87538W        W88402  12.810  13.420  11.912  0.3061  0.2522 -0.1755
87539W        W88403  14.199  10.865  11.248  0.1656 -0.2061 -0.0886
87540W        W88404  15.047  10.153   7.731  0.0927  0.0182  0.0157
87541W        W88405  15.062   9.340  10.340 -0.1712  0.1361  0.2104
87542W        W88406  14.041  10.185  10.661  0.2601  0.1380  0.1798
87543W        W88407  12.628   8.841  12.133 -0.1503  0.5702 -0.0213
87544W        W88408  14.354  12.750   7.255  0.3095 -0.2916 -0.0426
87545W        W88409  12.922  12.335   9.640 -0.0191 -0.3015  0.1887
87546W        W88410  15.051  12.129  11.185 -0.5444 -0.0343 -0.1490
87547W        W88411  13.551  13.762   8.193  0.0252 -0.1216 -0.1136
87548W        W88412  12.860   9.939  10.158 -0.1368 -0.0863 -0.0931
87549W        W88413  15.430  11.568  11.626  0.1232  0.0710  0.1243
87550W        W88414  12.746   8.243   6.310 -0.0977  0.0931  0.0578
87551W        W88415  12.888  13.071   9.181 -0.0551  0.2827  0.1232
87552W        W88416  12.811  12.059  11.380 -0.0749  0.2291  0.0578
87553W        W88417  14.694  13.774   6.105  0.3894  0.0961 -0.3236
87554W        W88418  11.641  13.514   9.660 -0.0954  0.0174  0.0777
87555W        W88419  12.276  11.831  11.301  0.0946  0.1659 -0.0902
87556W        W88420  13.302  13.386  12.068  0.1773  0.1359 -0.4211
87557W        W88421  15.064  11.622  11.339  0.1832  0.1125  0.2625
87558W        W88422  14.634   8.330  10.340  0.0015  0.2611  0.2644
87559W        W88423  13.989  15.311   8.768  0.1831  0.2236  0.0570
87560W        W88424  14.220  14.135   8.674  0.1617  0.4376  0.2085
87561W        W88425  14.155  15.561   9.183  0.1044 -0.1667  0.0939
87562W        W88426  15.420  11.652   8.641 -0.2299 -0.1857 -0.0300
87563W        W88427  14.281  11.712  13.220  0.2279 -0.0176  0.0759
87564W        W88428  12.879  16.624  11.344  0.0638 -0.2999 -0.0918
87565W        W88429  13.259  10.440   9.554 -0.1845  0.2698  0.0358
87566W        W88430  13.444  12.211   9.809  0.3308 -0.0323  0.0999
87567W        W88431  14.040  13.168  10.753 -0.0473  0.1387 -0.0810
87568W        W88432  12.254  11.157   6.464 -0.1652  0.4250  0.1220
87569W        W88433  14.313  14.737   7.457  0.2139 -0.0558 -0.1827
87570W        W88434  12.131  10.030   7.286 -0.0144 -0.0304 -0.1671
87571W        W88435  11.497  13.678   8.501  0.0902  0.0612 -0.1254
87572W        W88436  17.216  13.631   7.007 -0.0788  0.0467  0.1277
87573W        W88437  12.811  13.957   8.324 -0.0560 -0.0250 -0.0991
87574W        W88438  15.159  14.341  11.247  0.1297 -0.0711  0.1368
87575W        W88439  11.362  10.271  12.324  0.0520  0.4203  0.1890
87576W        W88440  13.626  12.221  12.420  0.2180 -0.0506 -0.0777
87577W        W88441  12.428  15.240   7.815 -0.0594  0.2815 -0.1884
87578W        W88442  11.490  13.295   8.783 -0.1559 -0.1025 -0.1021
87579W        W88443  11.541  12.332   8.166  0.1496  0.0407 -0.4453
87580W        W88444  15.119  15.250   7.568 -0.0195 -0.0270  0.1800
87581W        W88445  13.819  12.526   8.412 -0.1777  0.2070  0.0707
87582W        W88446  14.361  12.381  11.019  0.2329 -0.1664 -0.2789
87583W        W88447  13.640  12.524  11.733  0.1140  0.1325  0.2220
87584W        W88448  15.430  12.507  10.406  0.1714  0.0863  0.0060
87585W        W88449  12.472  16.628   8.145  0.1557 -0.1789  0.3646
87586W        W88450  11.160  10.379  10.318 -0.2296  0.0148  0.1935
87587W        W88451  11.464  13.185   8.101  0.1286 -0.1114  0.0786
87588W        W88452  13.224  10.369   8.129 -0.0350 -0.0075  0.1888
87589W        W88453  12.605  10.201   9.191  0.2304  0.1138  0.2102
87590W        W88454  13.718  14.261   6.805 -0.1767  0.0162 -0.0222
87591W        W88455  13.331  12.602   7.989  0.0958 -0.2642 -0.0062
87592W        W88456  12.469  15.006   8.951  0.1396 -0.0858  0.2780
87593W        W88457  14.928  16.374  11.931 -0.1903 -0.1180 -0.1235
87594W        W88458  13.211  10.328   6.683  0.0686 -0.1556 -0.0215
87595W        W88459  11.048   9.107   8.681 -0.1621  0.0173 -0.0825
87596W        W88460  11.495  15.310   8.749  0.1029 -0.0561  0.1757
87597W        W88461  14.803  17.217   9.403 -0.1066  0.1691 -0.2738
87598W        W88462  13.349  11.129   8.580 -0.0404  0.0764  0.2035
87599W        W88463  11.174  12.981   8.544 -0.3024  0.1364  0.1214
87600W        W88464  14.868  15.529   9.068 -0.0225 -0.0079 -0.0529
87601W        W88465  14.594  11.537   6.928 -0.1513  0.2516 -0.0299
87602W        W88466  11.236  12.706  10.798 -0.0203  0.0355 -0.1629
87603W        W88467  14.654  15.149   7.503  0.4566 -0.1262 -0.4132
87604W        W88468  15.000  15.671   9.797  0.1550 -0.1477  0.1916
87605W        W88469  14.565  11.653   8.438  0.0178  0.0707 -0.1038
87606W        W88470  13.537  12.719  10.258 -0.5587 -0.1751 -0.2726
87607W        W88471  13.025  13.360   9.650  0.0034 -0.1158  0.0942
87608W        W88472  14.612  10.825  10.477 -0.2510  0.0109 -0.0437
87609W        W88473  13.275  14.002   8.566  0.0771 -0.1267 -0.0112
87610W        W88474  11.177  13.812   8.882  0.1632 -0.0283 -0.0860
87611W        W88475  12.416  18.684   7.965  0.1820 -0.0921  0.0996
87612W        W88476  16.034  10.405   9.881  0.1876 -0.0592  0.0953
87613W        W88477  12.803  10.160   7.880 -0.2488 -0.1110 -0.1060
87614W        W88478  12.823  14.713   6.504 -0.1591 -0.1057 -0.1563
87615W        W88479  12.053  12.800   6.998 -0.1905  0.4732  0.1747
87616W        W88480  13.360  12.120  11.692  0.0856 -0.0710  0.0089
87617W        W88481  12.077  12.350  10.604  0.1709  0.1369  0.1617
87618W        W88482  13.646  12.584   7.646  0.0229  0.1741  0.0017
87619W        W88483  11.538  13.975  11.190 -0.0915  0.0875 -0.1466
87620W        W88484  14.693  12.299   9.747  0.2542  0.0095  0.3363
87621W        W88485  10.124  11.491  10.431  0.1012  0.1877 -0.1647
87622W        W88486  14.666  11.014   6.979 -0.2121 -0.1023 -0.0444
87623W        W88487  10.595  13.479  10.400  0.2730 -0.2726 -0.0838
87624W        W88488  13.543  11.693   9.020  0.0985  0.1623 -0.0671
87625W        W88489  10.812   9.211   7.825  0.1354 -0.2547 -0.2750
87626W        W88490  11.587  13.781   7.680  0.1099 -0.1468 -0.1359
87627W        W88491  12.975  14.997  10.658 -0.3026  0.1534  0.0550
87628W        W88492  15.515  13.759   8.977  0.1949  0.0809 -0.1229
87629W        W88493  15.241  13.325   9.071  0.0971  0.1403  0.2507
87630W        W88494  11.172  16.085   8.508  0.0899  0.1150 -0.0833
87631W        W88495  12.547  12.616  11.237  0.1317  0.0084  0.1437
87632W        W88496  13.778  10.227   8.898  0.3425 -0.0652  0.0071
87633W        W88497  12.589  12.825   8.855 -0.0440  0.1637  0.1683
87634W        W88498  13.340  15.449   6.281  0.2102  0.1080  0.0692
87635W        W88499  14.907  11.757   7.214  0.3434  0.0353  0.1666
87636W        W88500  12.472  13.113  11.103  0.3255  0.0505 -0.0246
87637W        W88501   8.442   8.265   8.921  0.1347  0.3650 -0.0553
87638W        W88502  11.480  12.188   8.929  0.0486  0.1748 -0.0295
87639W        W88503  14.899  11.737  10.770  0.0693  0.0415 -0.2561
87640W        W88504  13.028  13.536  10.238  0.2384  0.0113 -0.0386
87641W        W88505  14.867  16.448   9.294  0.0527  0.5245  0.1745
87642W        W88506  15.079  11.098  11.310  0.1106 -0.0607 -0.0259
87643W        W88507  12.027  14.084   9.117  0.0385  0.0026  0.2891
87644W        W88508   9.393  14.206   9.023 -0.1195  0.1152 -0.1327
87645W        W88509  12.625  13.084  12.209 -0.0109  0.1001  0.1640
87646W        W88510  11.448  13.076  10.471 -0.0559  0.1358  0.3764
87647W        W88511  13.325  15.587   9.376 -0.0878 -0.1607  0.0187
87648W        W88512  13.517  13.487   9.468  0.1382  0.1198  0.1205
87649W        W88513  13.077  12.603   9.025  0.2538 -0.1179  0.1634
87650W        W88514  13.064  12.447  11.491  0.3065 -0.0087 -0.0992
87651W        W88515  13.252  12.083   6.973 -0.2413  0.0521 -0.4683
87652W        W88516  12.396  11.908   9.272 -0.2995 -0.0522  0.0828
87653W        W88517  11.183  12.702  10.236  0.0134  0.1959  0.0848
87654W        W88518  11.516  11.045   7.034 -0.1068 -0.1415 -0.3579
87655W        W88519  14.343  12.740  12.163  0.0049  0.1717  0.2850
87656W        W88520  13.491  11.761   8.456 -0.3781  0.2007  0.0104
87657W        W88521  14.605  11.977   8.873  0.1539  0.1149  0.3577
87658W        W88522  12.256  15.796   9.746 -0.1941 -0.1071  0.3231
87659W        W88523  13.222  12.891  13.237  0.0476  0.2444  0.1154
87660W        W88524  12.364   9.795   7.861  0.0576 -0.0502  0.1927
87661W        W88525  13.812  12.166   6.664 -0.3623 -0.0414  0.2860
87662W        W88526  16.027  11.668  12.164 -0.2999 -0.1341 -0.1924
87663W        W88527  13.310   9.429  10.068 -0.1847  0.0727  0.0490
87664W        W88528  12.174  14.422  11.338 -0.1374  0.2108  0.3890
87665W        W88529  14.259  13.911   9.733  0.1276 -0.0401 -0.2735
87666W        W88530  13.565  13.015   9.416  0.2252 -0.0488 -0.0593
87667W        W88531  15.024  11.984   8.491  0.0564  0.0843 -0.1396
87668W        W88532  11.606  11.819   8.120  0.2251  0.0991  0.0392
87669W        W88533  13.856  15.696   7.066 -0.0009 -0.2099  0.2189
87670W        W88534  13.704  11.200   9.375 -0.1156 -0.1985 -0.1337
87671W        W88535  14.202  13.207   8.711  0.1455  0.1833 -0.0192
87672W        W88536  11.853  13.357   8.473  0.0680  0.2403  0.0177
87673W        W88537  11.028  13.542   8.463 -0.0012  0.1008  0.0247
87674W        W88538  15.948  11.066  10.354  0.0695 -0.2929 -0.0071
87675W        W88539  14.886  12.891   6.554  0.0563  0.3984 -0.0874
87676W        W88540  14.422  14.371   9.113 -0.0632 -0.1124  0.1481
87677W        W88541  12.644  15.741   9.336  0.3197  0.1006 -0.0321
87678W        W88542  11.972  15.122  11.508 -0.0749 -0.4441  0.0410
87679W        W88543  15.399  14.660  10.008  0.0873 -0.0954 -0.2103
87680W        W88544  11.650  14.450   9.261  0.3102  0.2047  0.3849
87681W        W88545  14.085  12.214  10.581  0.0505  0.2058  0.0304
87682W        W88546  12.559   9.349  10.136  0.1082 -0.0495 -0.1299
87683W        W88547  15.750  11.088   8.086 -0.2991 -0.0244 -0.0727
87684W        W88548  13.272  16.909   6.429 -0.3584  0.1319 -0.1329
87685W        W88549  14.323  11.025   9.239  0.2259  0.0599 -0.0292
87686W        W88550  11.578   9.683   8.206  0.1659 -0.0982 -0.0647
87687W        W88551  11.247  13.792   8.106 -0.0058 -0.1107 -0.0580
87688W        W88552  13.107  15.234   8.177 -0.3617 -0.1796 -0.3729
87689W        W88553  12.200  14.537   9.190 -0.1147  0.0372  0.2540
87690W        W88554  12.608  13.691   6.698  0.2412  0.2135 -0.0736
87691W        W88555   8.540   9.998   8.739 -0.0595  0.0540 -0.1327
87692W        W88556  14.045   9.866   8.380  0.1886 -0.0410  0.0346
87693W        W88557  11.913   8.571   6.229  0.1926  0.0705 -0.1070
87694W        W88558  14.607  14.488   8.075 -0.0822 -0.0120  0.1409
87695W        W88559  14.804  11.491   9.386  0.2080  0.0065  0.0653
87696W        W88560  12.731  14.342  10.125  0.0856 -0.0815 -0.3110
87697W        W88561  14.188  10.625  10.789 -0.0150  0.0518 -0.0455
87698W        W88562  12.434  14.745   8.564 -0.2387  0.4048 -0.0071
87699W        W88563  14.026  11.624   8.995 -0.1139 -0.0406 -0.1185
87700W        W88564  11.713  15.886  10.678 -0.1061 -0.2961 -0.0924
87701W        W88565  11.944  11.199   9.751  0.6199 -0.0895 -0.2871
87702W        W88566  11.576  12.923   9.437  0.0644  0.1339 -0.0389
87703W        W88567  12.153  12.361  10.063 -0.2374 -0.1317  0.1711
87704W        W88568  15.507  12.401   6.825  0.0977  0.1337  0.1592
87705W        W88569  14.921  14.698  14.726 -0.1047 -0.1691  0.0232
87706W        W88570  12.605   9.695   8.346 -0.1173 -0.0547  0.0057
87707W        W88571  13.020   8.653   8.236  0.1657 -0.2176  0.1475
87708W        W88572  11.953  13.754  11.013 -0.0431 -0.2953  0.0880
87709W        W88573  11.973  11.123   9.230 -0.0819 -0.3509  0.3190
87710W        W88574  12.428  13.213   9.180 -0.0195 -0.0943 -0.2562
87711W        W88575  13.373  13.449  10.615 -0.0431  0.0950  0.1176
87712W        W88576  13.744  11.060  11.117  0.1934  0.2084 -0.1742
87713W        W88577  11.790  12.543   9.155 -0.1323  0.1855  0.2865
87714W        W88578  12.452  12.324   7.697 -0.3089  0.2022  0.0652
87715W        W88579  13.917  12.275  10.108 -0.1438 -0.1493  0.5049
87716W        W88580  13.511  13.202   6.647 -0.0215 -0.0933 -0.3478
87717W        W88581  14.148  12.498  11.769 -0.0780  0.1554 -0.3762
87718W        W88582  13.534  13.710   6.945 -0.1222 -0.0167 -0.2776
87719W        W88583  12.032  11.164   8.750 -0.0007  0.0831 -0.2030
87720W        W88584  10.569  12.684   9.262  0.1265 -0.2082 -0.1219
87721W        W88585  12.994  13.688  13.043 -0.0525 -0.0235 -0.3046
87722W        W88586  12.920  12.622  13.541 -0.0409  0.0393  0.0798
87723W        W88587  11.917  14.420   8.739  0.2706 -0.0026 -0.0475
87724W        W88588  11.547  12.682  11.385  0.0273  0.0985 -0.3327
87725W        W88589  10.625  11.561   7.270 -0.4406 -0.0378  0.0779
87726W        W88590  11.330  11.194   8.240  0.1560 -0.3193  0.3787
87727W        W88591  13.160  14.778   9.268 -0.0336 -0.0445  0.1271
87728W        W88592  15.834  12.943  13.858 -0.2325 -0.2101  0.0563
87729W        W88593  15.393  13.256  12.206 -0.0130 -0.2937 -0.1511
87730W        W88594  15.209  14.134   8.852  0.2060 -0.3287 -0.3355
87731W        W88595  12.618  17.575  10.662  0.1000 -0.0851 -0.0144
87732W        W88596  12.907  16.904   7.019 -0.1984 -0.0608 -0.1072
87733W        W88597  13.495  13.919  10.709 -0.4798 -0.1562 -0.1108
87734W        W88598  13.624  13.922  13.090  0.0861  0.3021  0.3378
87735W        W88599  13.479  14.178  10.309  0.0385 -0.1506  0.1236
87736W        W88600  10.976  15.189   8.926  0.1090  0.1130 -0.0002
87737W        W88601  15.536  14.064  10.724 -0.1434 -0.0464  0.1825
87738W        W88602  10.330  11.721   9.350  0.1038  0.0339  0.2731
87739W        W88603  12.733  11.171   6.824 -0.1487  0.1040  0.1448
87740W        W88604  13.126  13.520   9.067 -0.0178  0.1219  0.0095
87741W        W88605  12.183  14.525  10.396  0.3312  0.0869 -0.1534
87742W        W88606  15.376  13.303   9.558 -0.2468  0.2826 -0.0062
87743W        W88607  12.891  11.371   8.656 -0.0697 -0.0893 -0.0293
87744W        W88608   8.994  17.249  16.003  0.1907  0.0111  0.0070
87745W        W88609  12.304  13.511  12.589  0.1943  0.0895 -0.2258
87746W        W88610  13.898  14.824  12.681  0.1244 -0.0478  0.2491
87747W        W88611  14.296  16.144  13.729 -0.1249 -0.1748 -0.1562
87748W        W88612  14.788  19.856  11.667 -0.0171  0.0772  0.0784
87749W        W88613  15.298  11.375  13.436 -0.1757 -0.0304  0.1445
87750W        W88614  13.286  10.057  10.407  0.2871 -0.0063 -0.0208
87751W        W88615  12.895  13.466   7.109 -0.1200  0.2032 -0.3157
87752W        W88616  12.968  16.232  13.520 -0.1459  0.0956 -0.0951
87753W        W88617  11.008   9.572  14.752 -0.0970 -0.0889  0.1648
87754W        W88618  13.786  11.029  15.762  0.0245  0.1990  0.1557
87755W        W88619  11.983  10.674  10.442  0.1609  0.2256 -0.2440
87756W        W88620  15.504  10.565  10.626 -0.1121  0.0339  0.2533
87757W        W88621  13.573  11.702  14.644 -0.1567 -0.2679 -0.1114
87758W        W88622  11.779   7.839  14.806  0.4125 -0.2500  0.0138
87759W        W88623   9.936  15.375  14.702 -0.1122  0.3012  0.3970
87760W        W88624  13.229  12.483  12.079 -0.2124  0.0455 -0.2315
87761W        W88625  11.307  11.735  11.497 -0.1514 -0.0283 -0.2709
87762W        W88626  12.002   9.799  17.847  0.3538  0.1438 -0.2190
87763W        W88627  14.486  11.926  14.361  0.0680 -0.1043 -0.0469
87764W        W88628  15.430  10.125  15.701  0.2572  0.0444  0.1662
87765W        W88629  10.460  14.842  13.084 -0.1787  0.0456  0.1035
87766W        W88630  12.234  14.785  12.307  0.0255  0.1351  0.2250
87767W        W88631  12.497  11.351  13.630  0.0900 -0.1524 -0.0352
87768W        W88632  12.613  11.454  11.978  0.2238  0.0929 -0.0448
87769W        W88633  13.088  12.310  12.523 -0.0460 -0.2042 -0.0699
87770W        W88634  16.991  11.414  13.652  0.2616 -0.1959  0.0451
87771W        W88635   9.712  14.480  13.462  0.0133 -0.0146  0.0970
87772W        W88636  14.882  11.777  15.832  0.0072 -0.2917  0.1675
87773W        W88637  16.492  12.564  13.286 -0.2230  0.0282  0.0715
87774W        W88638  12.254  12.922  14.476  0.0699  0.0359  0.0948
87775W        W88639  12.995  12.245  15.648 -0.1540 -0.2520  0.0807
87776W        W88640  12.701  13.792  13.575  0.1385 -0.0613  0.0926
87777W        W88641  13.886  10.775  12.373  0.0674 -0.2217  0.0527
87778W        W88642  10.668  10.528  17.174  0.4884 -0.3243 -0.0562
87779W        W88643  16.058  12.305  17.545 -0.1297 -0.0819 -0.3703
87780W        W88644  13.553   9.181  12.757 -0.3193 -0.1467 -0.1205
87781W        W88645  13.668  11.207  14.416  0.0391 -0.2070  0.1902
87782W        W88646  12.961  12.945  11.411  0.2287 -0.3319  0.0002
87783W        W88647  11.891   8.284  13.469  0.3272  0.0753 -0.2564
87784W        W88648  16.555  11.404  13.393 -0.2446  0.0160 -0.1833
87785W        W88649  14.936   9.008  17.306 -0.0326 -0.0771  0.1536
87786W        W88650  13.807  13.510  15.286  0.1016 -0.3186 -0.1985
87787W        W88651  15.929  13.471  16.682  0.2398 -0.0984 -0.2321
87788W        W88652  12.435  11.843  11.739  0.2118 -0.0322  0.2654
87789W        W88653  11.603  14.047  12.376  0.1769 -0.0364  0.2147
87790W        W88654  11.301  12.348  12.790 -0.1261 -0.0092 -0.4178
87791W        W88655  14.718  12.503  15.056  0.0316 -0.0191  0.1644
87792W        W88656  16.229  10.913  11.732 -0.1093 -0.0006 -0.0413
87793W        W88657  11.820  11.528  11.255 -0.4319 -0.0366 -0.0833
87794W        W88658  10.716  14.816  15.041 -0.4147  0.0872  0.3677
87795W        W88659  15.470  11.935  13.428  0.0990  0.2226 -0.4297
87796W        W88660  13.871  12.333  16.320  0.0763 -0.0066  0.1241
87797W        W88661  16.216  12.368  11.610 -0.1618 -0.1194  0.0540
87798W        W88662  13.246   9.780  11.110 -0.3593  0.1391 -0.0715
87799W        W88663  12.784  13.438  11.282 -0.2621  0.1298  0.0290
87800W        W88664  11.283   9.729  12.257  0.2945  0.2673 -0.0263
87801W        W88665  12.885  14.530  12.811 -0.1652  0.0469  0.2696
87802W        W88666  13.236  14.124  11.119 -0.1547 -0.1855  0.1135
87803W        W88667  14.705  14.562  13.763  0.1198  0.1968 -0.0980
87804W        W88668  13.488   9.603  11.669 -0.2102  0.0066  0.0918
87805W        W88669  11.334  16.874  12.059 -0.2732  0.0685  0.1415
87806W        W88670  13.128  17.321  12.048 -0.3487 -0.2593 -0.0947
87807W        W88671  12.504  13.586  13.090 -0.1800  0.0409 -0.0403
87808W        W88672  10.474  12.696  14.166 -0.3269 -0.2508 -0.0317
87809W        W88673  15.550  10.413  11.530  0.3885 -0.1921  0.1039
87810W        W88674  14.038  13.266  11.289  0.3313 -0.1293  0.4432
87811W        W88675  12.772  14.358  10.666  0.2939 -0.0486  0.2958
87812W        W88676  11.318  12.698  11.852  0.4056 -0.1853  0.1598
87813W        W88677  13.785  15.402  10.773 -0.0104  0.0395  0.2640
87814W        W88678  13.219  14.126  13.003  0.1614  0.1104  0.0780
87815W        W88679  12.868  12.291  10.274  0.0289  0.1054  0.0223
87816W        W88680  16.228  15.245  15.386  0.0873 -0.3168 -0.1938
87817W        W88681  13.941  12.174  15.150  0.2700  0.0221  0.3581
87818W        W88682  14.552  12.960  13.608 -0.4102 -0.2391  0.0254
87819W        W88683  10.654  15.305  14.771  0.0454 -0.1679 -0.1357
87820W        W88684  10.406  11.135   9.551 -0.0757  0.0887 -0.0073
87821W        W88685  12.235  13.426  14.459 -0.2626 -0.2053  0.0468
87822W        W88686  14.546  13.332  11.226 -0.1730 -0.0284  0.2234
87823W        W88687  14.930  11.154  14.837 -0.1618 -0.0506  0.2718
87824W        W88688  13.761  13.613  12.665 -0.1587  0.1958  0.1548
87825W        W88689  14.158  12.395  14.377 -0.1696 -0.1034 -0.0046
87826W        W88690  15.654  11.587  13.123 -0.0057  0.0120 -0.0782
87827W        W88691  14.639  10.868  10.976 -0.2705  0.0600 -0.0213
87828W        W88692  13.238  12.411  14.656 -0.0132 -0.2879  0.0052
87829W        W88693  14.240   9.323  11.685  0.2987  0.0868 -0.1169
87830W        W88694  14.902  14.722  15.601 -0.2656 -0.3988 -0.1886
87831W        W88695  12.979  13.975  15.517  0.0799  0.0410 -0.0125
87832W        W88696  12.016  15.596  11.731 -0.0768  0.1761 -0.1918
87833W        W88697  13.138  10.152  11.735  0.1517  0.1333  0.0661
87834W        W88698  14.588  13.365  14.756 -0.0907 -0.4027 -0.0135
87835W        W88699  16.269  13.031  14.105 -0.1503 -0.0665 -0.0234
87836W        W88700  13.396  12.671  12.759 -0.1340 -0.3591  0.0420
87837W        W88701  13.163  11.641  11.380 -0.0533 -0.2226 -0.3960
87838W        W88702  11.245  13.472  14.995 -0.1177 -0.0240 -0.1222
87839W        W88703  15.798  12.412  11.941 -0.2288 -0.2463  0.2908
87840W        W88704  14.887  12.499  11.717  0.1310  0.1076 -0.2698
87841W        W88705  11.721  17.508  12.197  0.3625  0.2333 -0.1440
87842W        W88706  10.681  12.720  13.221  0.1609 -0.1645  0.0503
87843W        W88707  16.840   8.802  16.558 -0.0950  0.0478 -0.2159
87844W        W88708  15.141  14.373  13.482 -0.2013  0.2224 -0.0261
87845W        W88709  12.800  10.369  12.636  0.0424 -0.1144  0.3399
87846W        W88710  13.222  11.959  12.170 -0.1248  0.1037  0.1187
87847W        W88711  14.017  15.373  10.024 -0.0290 -0.0057 -0.0349
87848W        W88712  14.650  11.005  15.219  0.0849  0.2851  0.1067
87849W        W88713  12.288  13.686  16.784  0.1400  0.2835  0.1256
87850W        W88714  14.916  11.860  14.115  0.3572 -0.2239 -0.1385
87851W        W88715  11.807  12.268  16.848  0.0008  0.2633 -0.1781
87852W        W88716  17.534  10.482  12.775  0.0542  0.0219 -0.1423
87853W        W88717  12.666  10.784  13.950  0.0045  0.0847 -0.1731
87854W        W88718  11.676  11.378  13.081  0.1246 -0.3335  0.3023
87855W        W88719  13.997  12.142  13.383  0.1198  0.1113  0.0577
87856W        W88720  16.111   8.539  16.449  0.1818 -0.3780 -0.2147
87857W        W88721  12.245  14.434  14.474 -0.3283 -0.0767  0.1034
87858W        W88722  15.018  13.471  11.340  0.0844  0.0104  0.1059
87859W        W88723  12.649  14.385  14.122 -0.1344  0.2661 -0.0502
87860W        W88724  16.000  10.593  15.276  0.0870  0.1063 -0.0423
87861W        W88725  13.096  14.560  13.320  0.1123 -0.0081 -0.3136
87862W        W88726  13.343  15.375  13.732 -0.3774  0.0328  0.1267
87863W        W88727  13.469  10.898   9.860 -0.1484  0.2437 -0.3624
87864W        W88728  12.738  10.860  12.380 -0.0676 -0.0905 -0.2737
87865W        W88729  15.357  13.022  13.708  0.1352  0.2914 -0.0517
87866W        W88730  12.658  13.826  14.451 -0.1422  0.4421 -0.0608
87867W        W88731  12.192  15.263  13.902  0.1597  0.1160 -0.1006
87868W        W88732  14.410  11.285  12.997 -0.1929 -0.1482 -0.0859
87869W        W88733  15.577  15.510  11.880 -0.0731 -0.0580 -0.2167
87870W        W88734  13.860  12.663  12.676  0.2883 -0.0587 -0.3572
87871W        W88735  14.130  13.078  13.466 -0.0613  0.0973 -0.0195
87872W        W88736  15.295  11.666  15.339 -0.2209 -0.1078 -0.1224
87873W        W88737  14.060  16.594   8.684  0.0863 -0.1452 -0.1673
87874W        W88738  12.415  11.190  16.094 -0.0546 -0.0740  0.1192
87875W        W88739  14.207  13.136  16.616 -0.0142  0.3352  0.1422
87876W        W88740  12.458  14.857  11.374  0.2049  0.0340 -0.0828
87877W        W88741  12.641   8.329  12.332 -0.1763 -0.2670 -0.1243
87878W        W88742  15.002  14.236  12.577  0.3133  0.3053  0.0127
87879W        W88743  11.304  12.934  15.079  0.0646  0.0245 -0.1742
87880W        W88744  14.676  12.280  13.965  0.1807  0.1373 -0.1811
87881W        W88745  16.429  12.041  13.155 -0.1601 -0.0500  0.1674
87882W        W88746  15.177  13.770  10.534  0.2570 -0.0458  0.1608
87883W        W88747  14.026  15.019  14.492  0.0175  0.0736  0.0125
87884W        W88748  13.411  10.047  12.674  0.2339  0.0327 -0.1156
87885W        W88749  13.776  10.874  10.638 -0.1546  0.1192 -0.1910
87886W        W88750  11.204  11.535   9.612 -0.4478  0.1163 -0.0297
87887W        W88751  13.944  14.778  10.873  0.0562  0.1302  0.2079
87888W        W88752  14.223  12.713  16.351 -0.3475  0.1630  0.1530
87889W        W88753  15.333   8.266   9.765  0.2846  0.0598  0.1638
87890W        W88754  14.649  10.936  13.300 -0.2885  0.3197 -0.3133
87891W        W88755  14.302  15.210  11.983  0.1222 -0.0198 -0.2201
87892W        W88756  15.007  12.081  13.205  0.0160  0.1193 -0.0820
87893W        W88757  14.081  10.866  13.170  0.0032 -0.1989  0.2334
87894W        W88758  13.630  12.630  14.208 -0.1328 -0.0737  0.3464
87895W        W88759  11.930   9.646  13.203  0.0927 -0.2786 -0.2692
87896W        W88760  13.039  13.818  12.122  0.1939  0.1424  0.2543
87897W        W88761  13.052  11.812  10.270  0.3802  0.1976 -0.2938
87898W        W88762  14.020  12.243  12.843 -0.0823 -0.0348  0.1529
87899W        W88763  14.939  13.392  12.408 -0.0118 -0.2104 -0.1384
87900W        W88764  14.026  11.543  11.232  0.0618  0.1266 -0.2760
87901W        W88765  12.437  13.734  11.705  0.2218  0.2810 -0.0805
87902W        W88766  15.666  12.946  10.644 -0.0297  0.1491  0.2423
87903W        W88767  14.837  12.508  12.460 -0.1073 -0.2032 -0.0240
87904W        W88768  11.791  12.836  15.193 -0.1518  0.1054  0.1053
87905W        W88769   9.714  14.534  14.245 -0.3181  0.0773  0.0974
87906W        W88770  11.968  13.328  16.835 -0.0498 -0.1250  0.2934
87907W        W88771  11.920  14.848  13.517 -0.2707  0.1671  0.1824
87908W        W88772  16.931   8.842  15.803 -0.0719  0.0054 -0.0145
87909W        W88773  12.593  10.460  12.190  0.2294 -0.1733  0.1402
87910W        W88774  15.272  10.447  13.518 -0.0848 -0.1283  0.1675
87911W        W88775  13.048  15.064  12.547  0.0407 -0.0283  0.2002
87912W        W88776  13.409  15.664  12.861  0.4701 -0.0108  0.0720
87913W        W88777  12.009  12.084  11.968 -0.0210  0.1385 -0.2568
87914W        W88778  15.142  12.944  12.701 -0.2702 -0.0257  0.0782
87915W        W88779  13.897  11.233  13.901  0.0326  0.1782  0.0190
87916W        W88780  17.063  11.150  12.334  0.2236  0.1370 -0.1948
87917W        W88781  13.172  13.077  10.947  0.0807 -0.0028 -0.0543
87918W        W88782  13.883   9.574  12.005 -0.1150  0.0079  0.0637
87919W        W88783  13.592  11.510  10.996 -0.0229 -0.2150  0.1410
87920W        W88784  11.761  14.684  11.568 -0.1084 -0.3636 -0.4192
87921W        W88785  11.674  12.365  15.441  0.0730 -0.0176  0.4076
87922W        W88786  10.112  12.563  10.541  0.1355 -0.0790  0.0220
87923W        W88787  16.452  11.647  13.796 -0.0962 -0.1627 -0.1932
87924W        W88788  13.153  13.907  13.531  0.2607 -0.0443  0.0259
87925W        W88789  15.199  13.999  11.626  0.1940 -0.1827 -0.1015
87926W        W88790  14.945  12.770  14.335 -0.1257 -0.0384 -0.2824
87927W        W88791  14.667  11.704  12.828 -0.0161 -0.0503  0.0147
87928W        W88792  11.854   8.567  13.027  0.1882 -0.1784 -0.2248
87929W        W88793  10.911  13.150  16.647  0.3678 -0.2572 -0.3473
87930W        W88794  14.338  12.607  12.687 -0.1536 -0.1025  0.0758
87931W        W88795  12.192  10.589   7.253  0.0695 -0.2133 -0.2116
87932W        W88796  11.455  15.426  14.272  0.0890  0.4202 -0.1780
87933W        W88797  14.199  14.366  12.565  0.1120 -0.0453  0.0216
87934W        W88798  13.439  15.813  10.890  0.0058 -0.0895 -0.3161
87935W        W88799  12.355  15.872  11.389 -0.0123  0.0290 -0.0325
87936W        W88800  13.954  11.689  13.699 -0.0345 -0.2083  0.0774
87937W        W88801  11.928  12.746  15.667 -0.1791  0.5340  0.3930
87938W        W88802  12.373  11.964  14.701  0.0062  0.2035 -0.1435
87939W        W88803  14.106  11.807  10.290  0.1520 -0.0451  0.3416
87940W        W88804  12.839   8.153  11.732  0.1750 -0.0651 -0.0662
87941W        W88805  12.479  12.013  15.205  0.0310  0.0727 -0.1299
87942W        W88806  13.595  12.354  10.768  0.1649 -0.3807 -0.0647
87943W        W88807  14.232  14.285  15.693 -0.0902 -0.0642 -0.1583
87944W        W88808  12.358  12.103   7.202 -0.1489 -0.1799 -0.3538
87945W        W88809  15.985  11.993  13.009  0.0364 -0.3490 -0.1137
87946W        W88810  14.860  13.571  10.857 -0.0912 -0.1905  0.0551
87947W        W88811  10.824  13.075  12.500 -0.0226 -0.0674  0.1675
87948W        W88812  10.853  14.455  16.546  0.1565 -0.0106 -0.2682
87949W        W88813  12.218  11.969  14.218  0.1774 -0.1342 -0.0857
87950W        W88814  11.048  13.809  14.341 -0.2611  0.2396  0.0710
87951W        W88815  14.222  12.382  15.972 -0.3388  0.0654  0.0262
87952W        W88816  13.668  14.167  12.649 -0.0591  0.0618  0.0368
87953W        W88817  11.421  10.972  13.240 -0.3690 -0.0132 -0.0315
87954W        W88818   9.818  15.674  13.780 -0.1663  0.2200  0.0767
87955W        W88819  10.237  12.361  14.536  0.0626 -0.2223  0.1932
87956W        W88820  14.498  13.415  14.254 -0.2220  0.2825 -0.3041
87957W        W88821  14.672   9.839  14.285  0.1064 -0.1884  0.2396
87958W        W88822  15.970  12.426  13.198  0.0882 -0.1151 -0.1985
87959W        W88823  14.537  12.288  12.048  0.2696  0.0512 -0.2136
87960W        W88824  11.810  14.396  13.071  0.0404 -0.1527  0.3316
87961W        W88825  14.867  16.885   8.930 -0.2456 -0.1454  0.1383
87962W        W88826  10.890  13.004  17.575 -0.2020 -0.1123 -0.1309
87963W        W88827  12.375  14.461  12.799  0.1623  0.0666  0.4569
87964W        W88828  16.033  11.163  12.329 -0.1338  0.0411  0.1353
87965W        W88829  16.267  12.624  15.247  0.1077  0.0667  0.0997
87966W        W88830  14.477  14.279  17.529  0.0803 -0.0856  0.0153
87967W        W88831  13.834  13.452  12.148 -0.2385 -0.0805 -0.1755
87968W        W88832  17.186  14.032  12.284 -0.1365  0.0430  0.1021
87969W        W88833  12.675  13.208  14.647 -0.0350  0.0884  0.0773
87970W        W88834  10.760  13.237  12.964 -0.2719  0.0773 -0.1727
87971W        W88835  14.279  13.321  15.404  0.2941  0.1178 -0.2192
87972W        W88836  13.388  11.074  13.147  0.1625  0.0715  0.2397
87973W        W88837  14.422  13.357  16.137  0.0764 -0.1093 -0.1116
87974W        W88838  13.918  10.739  13.693  0.0023 -0.2385  0.0489
87975W        W88839  11.884  10.636  15.376  0.0223 -0.2529 -0.3484
87976W        W88840  12.411  15.322  11.540 -0.1364  0.1014  0.0315
87977W        W88841  16.254  13.773  12.535 -0.0439 -0.2161  0.2910
87978W        W88842  13.216  10.750  14.996 -0.0601  0.1789 -0.0082
87979W        W88843  13.803  12.645  15.858  0.2677  0.0860 -0.0869
87980W        W88844  14.061  10.911  14.426  0.1550 -0.2119  0.0400
87981W        W88845  12.293  12.936  15.430  0.1877  0.0054 -0.0199
87982W        W88846  16.113  14.715  14.659 -0.1370  0.3202 -0.0290
87983W        W88847  13.274  13.510  13.894  0.0676  0.1513  0.0644
87984W        W88848  13.724  14.280  10.948  0.1753  0.0700  0.0606
87985W        W88849  11.530  14.228  15.163  0.0813  0.1611 -0.0649
87986W        W88850  16.818  11.528  12.177  0.0770 -0.2664 -0.2303
87987W        W88851  11.633   8.338  15.528 -0.0786 -0.0656 -0.0324
87988W        W88852  13.810  10.374  12.824  0.2067 -0.0885  0.0301
87989W        W88853  11.729  12.659  10.902 -0.2333  0.1225 -0.1325
87990W        W88854  16.553  12.708  14.325  0.0143  0.0219  0.1700
87991W        W88855  12.179  13.951  13.313 -0.2383 -0.0946  0.0738
87992W        W88856  14.153  14.786  12.239 -0.1358 -0.1847 -0.0001
87993W        W88857  10.392  11.511  11.412 -0.2338  0.1655 -0.1716
87994W        W88858  12.741  16.578  14.025  0.1795 -0.2032  0.0343
87995W        W88859  13.287  12.937  14.410  0.2723  0.0682 -0.1393
87996W        W88860  15.371  13.980  13.639 -0.2292  0.2802  0.1691
87997W        W88861  16.444  10.636  13.763 -0.1363  0.0277 -0.0284
87998W        W88862  10.900  12.019  12.762  0.3382 -0.0826  0.2460
87999W        W88863  15.474  15.304  11.313  0.1733 -0.1099  0.2075
88000W        W88864  14.634  13.021  12.600  0.0795  0.1756 -0.0461
88001W        W88865  13.565  11.994  15.501  0.2441  0.1252  0.0105
88002W        W88866  16.539  13.651  13.536 -0.1920 -0.2320 -0.3010
88003W        W88867  14.598  12.848  13.103 -0.0404  0.2192 -0.0405
88004W        W88868  14.234  12.937  15.783  0.1875  0.0931  0.1338
88005W        W88869  13.389  13.956  15.251  0.3786 -0.4424 -0.2159
88006W        W88870  13.134  14.775  11.677 -0.0689 -0.2696 -0.0176
88007W        W88871  12.658  12.467  15.378  0.0936 -0.4223  0.1165
88008W        W88872  12.810  13.348  13.774 -0.0942 -0.2474  0.1390
88009W        W88873  11.102  15.874  12.166  0.1444 -0.2550 -0.1003
88010W        W88874  11.932  13.249  10.253 -0.1085 -0.0957 -0.1062
88011W        W88875  13.661  13.118  14.122  0.2673  0.1743  0.1601
88012W        W88876  13.272  11.646  15.208  0.6149 -0.0792  0.0228
88013W        W88877  13.641  12.481  13.226 -0.0090 -0.1423 -0.0569
88014W        W88878  12.817  13.885  10.890 -0.3093 -0.1219 -0.1781
88015W        W88879  15.082  11.933  12.508 -0.2505  0.1595 -0.2081
88016W        W88880  14.797  10.776  16.170  0.0809 -0.0070 -0.0252
88017W        W88881  12.155  10.133  13.179 -0.0192  0.1820 -0.0220
88018W        W88882  12.186  15.231  16.640  0.0827 -0.0517  0.2443
88019W        W88883  11.658  10.548  16.633 -0.2045  0.3152 -0.0266
88020W        W88884   9.432  11.556  11.735  0.2880  0.0761  0.0353
88021W        W88885  12.789   9.494  14.459 -0.2357 -0.0381 -0.2902
88022W        W88886  13.868  11.432  10.540  0.4912 -0.1164 -0.3062
88023W        W88887  12.736  12.237  12.949  0.1021  0.1533 -0.1885
88024W        W88888  13.265  11.336   9.535  0.0483 -0.0460 -0.3800
88025W        W88889  15.875  11.569  11.193 -0.0236  0.2724  0.0687
88026W        W88890  10.716  10.077  11.816 -0.0383 -0.0284  0.0125
88027W        W88891  12.012  15.954  13.184 -0.1390  0.0174 -0.1226
88028W        W88892  14.988  10.825  12.158  0.2430  0.0365  0.0825
88029W        W88893  15.442   9.678  16.133  0.1803 -0.0896 -0.2710
88030W        W88894  13.714  13.492  11.674 -0.2462  0.0893 -0.0171
88031W        W88895  11.893  14.217  14.721 -0.1729 -0.1855  0.0536
88032W        W88896  10.795  13.665  12.556 -0.0882  0.0829  0.1142
88033W        W88897  14.383  12.878  11.137  0.0140 -0.1055 -0.3507
88034W        W88898  13.101  12.903  12.395  0.0269  0.1339  0.2599
88035W        W88899  13.362  12.657   8.589  0.0725 -0.1700 -0.1630
88036W        W88900  13.088  10.219  12.258  0.3863  0.0220  0.2475
88037W        W88901   8.426  11.978  13.638 -0.0002 -0.0053  0.0313
88038W        W88902  13.457  14.819  15.073 -0.2124 -0.1345  0.0516
88039W        W88903  15.510  12.651  12.989  0.1370 -0.1052  0.1607
88040W        W88904  13.566  10.642  13.341 -0.1303  0.1215 -0.1855
88041W        W88905  14.679   9.052  14.356 -0.1934 -0.1890  0.0623
88042W        W88906  15.364  13.288  14.126  0.2049  0.2125  0.2392
88043W        W88907  13.796  14.049  11.818  0.1033  0.1165 -0.0806
88044W        W88908  10.481  13.294  13.380  0.0098 -0.0540 -0.3292
88045W        W88909  11.083  10.920  15.437 -0.1735 -0.1226  0.0585
88046W        W88910  10.233  16.135  13.856  0.0821 -0.0532  0.1568
88047W        W88911  15.883  13.309  11.231  0.3090  0.0651 -0.0649
88048W        W88912  13.937  12.189  11.464 -0.1476 -0.0741  0.0191
88049W        W88913  14.978  12.982  13.327 -0.0660  0.1421  0.0278
88050W        W88914  15.671  13.967  16.506  0.0844  0.2331 -0.1226
88051W        W88915  13.147  11.181  12.709  0.0034  0.6125 -0.1406
88052W        W88916  12.273  10.068  11.411  0.1001  0.2648 -0.2669
88053W        W88917  12.897  13.433  14.257  0.2840  0.1062 -0.0273
88054W        W88918  13.078  12.995  11.897 -0.1509 -0.0929 -0.2880
88055W        W88919  13.151  13.364  13.451 -0.1647  0.3560  0.0626
88056W        W88920  14.657  12.140  10.686 -0.2009 -0.1760 -0.0281
88057W        W88921  16.190  11.235  13.758 -0.1216  0.3627  0.1218
88058W        W88922  12.418  15.189  12.987 -0.0247  0.0995  0.1765
88059W        W88923   9.940  14.113  15.965 -0.0943  0.3366 -0.1090
88060W        W88924  13.076  12.096  10.708 -0.2240  0.1705 -0.1162
88061W        W88925  15.090   8.024  12.322  0.0212  0.1455  0.0268
88062W        W88926  16.336  10.689  12.513  0.1968  0.0839 -0.1818
88063W        W88927  14.130  11.440  14.386  0.0598 -0.1041  0.2448
88064W        W88928  12.851  14.784  14.271 -0.1080 -0.0675  0.0631
88065W        W88929  12.057  14.979  11.004  0.1332 -0.1846 -0.0469
88066W        W88930   8.172  15.326  15.342  0.1992  0.0420 -0.0215
88067W        W88931  13.036  11.850  13.147  0.0173  0.1528  0.1225
88068W        W88932  14.119  13.086  11.715  0.2707 -0.1781  0.3871
88069W        W88933  10.286  15.226  14.364  0.1421  0.0002 -0.0466
88070W        W88934  14.760  10.514  12.413 -0.0802  0.0442  0.1072
88071W        W88935  12.788  13.151  13.294  0.0456  0.1788  0.1980
88072W        W88936  13.917  11.965   7.656 -0.1427 -0.3005 -0.0097
88073W        W88937  12.695  12.071  14.298 -0.0997  0.0057  0.0208
88074W        W88938  11.622  10.841  13.796  0.4348  0.0806 -0.1330
88075W        W88939  14.687  11.546  14.614 -0.2803 -0.1785  0.1278
88076W        W88940  15.707  12.750  16.452 -0.2669 -0.0771 -0.1147
88077W        W88941  12.418  13.393  16.291  0.0117  0.2511  0.2563
88078W        W88942  15.876  14.995  15.012  0.0067  0.0250 -0.0394
88079W        W88943  13.119  13.681  15.942 -0.0742 -0.3052 -0.0230
88080W        W88944  11.440  14.565  12.318  0.0138 -0.0731 -0.1178
88081W        W88945  15.474  13.425  10.954  0.1937  0.3673 -0.0460
88082W        W88946  13.496  11.919  13.400  0.2515  0.0569  0.0946
88083W        W88947  12.023  10.862  11.762  0.0450  0.1495 -0.0127
88084W        W88948  14.269  10.835  12.722  0.2527  0.1764  0.2237
88085W        W88949  15.186  14.273  14.553  0.4144  0.1119 -0.0448
88086W        W88950  14.769  10.644  12.913  0.1356 -0.0155  0.2365
88087W        W88951  13.137  14.323   9.449 -0.0601 -0.4482  0.1153
88088W        W88952  14.772  11.531  13.286 -0.1755  0.0887 -0.2214
88089W        W88953  12.697  13.507  17.132  0.0214 -0.0367 -0.0940
88090W        W88954  13.072  13.120  12.841 -0.0622 -0.0837 -0.0861
88091W        W88955  11.742  13.328  11.371  0.2607 -0.2274 -0.1656
88092W        W88956  11.893  16.053  14.800 -0.2588 -0.1508  0.0126
88093W        W88957  11.549  10.109  12.937  0.0719 -0.1042 -0.2132
88094W        W88958  14.119  11.831  15.456  0.5693 -0.2621 -0.0880
88095W        W88959  16.497  10.246  12.716  0.1348 -0.0565  0.1370
88096W        W88960  16.487  15.496  15.672  0.1707  0.3789 -0.1157
88097W        W88961  14.285  15.428  10.587  0.0112  0.0986 -0.1125
88098W        W88962  13.171  11.662  10.870 -0.2039  0.0089  0.4111
88099W        W88963  13.671  12.996   7.894 -0.1147  0.1835  0.0817
88100W        W88964  12.953  14.778  11.211 -0.0241  0.0558  0.2114
88101W        W88965  11.487  11.822  17.477 -0.4832  0.0500 -0.2651
88102W        W88966  12.563  13.104  12.750  0.1210 -0.0950 -0.0666
88103W        W88967  11.114  11.490  10.078 -0.1679  0.3877 -0.0568
88104W        W88968  12.848  10.138   8.406  0.0077  0.2640  0.1374
88105W        W88969  14.442  11.107  14.711 -0.3799  0.2612  0.1252
88106W        W88970  11.483  10.458  13.308  0.1249  0.0872 -0.0880
88107W        W88971  14.556  12.116  12.551 -0.1862  0.1840  0.2411
88108W        W88972  12.520  13.729  12.235 -0.2214  0.0924  0.2335
88109W        W88973  12.717  14.281  13.575 -0.2386  0.1447  0.1041
88110W        W88974  14.072  16.226  12.180  0.1753  0.1803  0.4746
88111W        W88975  15.077  13.454  13.450 -0.0409 -0.0979  0.1849
88112W        W88976  13.273  13.630  12.575 -0.0314 -0.1770  0.0956
88113W        W88977  13.409  12.668  11.193  0.1028 -0.3141  0.0282
88114W        W88978  10.390  13.334  11.568 -0.0445  0.1734  0.0086
88115W        W88979  15.109   9.694  11.271  0.1325 -0.0711 -0.2410
88116W        W88980  12.184  12.662  12.839 -0.1890  0.2400 -0.0635
88117W        W88981  15.253  12.479  15.458  0.0127  0.1959 -0.0263
88118W        W88982  13.118  14.487  13.794 -0.0274  0.1433  0.0609
88119W        W88983  10.106  13.879  16.506 -0.2020 -0.1595  0.1839
88120W        W88984  11.464  13.830  14.735  0.0175 -0.1486 -0.0323
88121W        W88985  15.644  12.831  18.840 -0.0725 -0.0405 -0.2070
88122W        W88986  11.039   9.726  15.540 -0.0373  0.0231 -0.0169
88123W        W88987  11.275  14.255  14.612  0.0370  0.3085  0.3709
88124W        W88988  14.037  10.815  15.034 -0.1176  0.1587  0.4883
88125W        W88989  12.563  14.084  13.081  0.1560  0.4633  0.1714
88126W        W88990  11.126  12.860  13.074  0.0254 -0.0518 -0.2776
88127W        W88991  11.958  10.982  11.268 -0.1694  0.0343 -0.1310
88128W        W88992  12.646  12.460  16.285  0.0136  0.1314  0.0322
88129W        W88993  16.691   8.375  15.683 -0.3357 -0.4020  0.1481
88130W        W88994  14.125  16.317  10.394  0.2518  0.0755  0.0052
88131W        W88995  14.249  10.153  15.520 -0.1184  0.3347  0.0678
88132W        W88996  13.107  11.666  12.654 -0.1637 -0.0201 -0.1272
88133W        W88997  13.758  12.930  13.075  0.3549  0.0966 -0.1722
88134W        W88998   9.882  12.433  15.195  0.3264 -0.1188  0.3424
88135W        W88999  11.825  14.236  14.178  0.0775 -0.3100 -0.0532
88136W        W89000  15.431  13.909  14.342  0.2653 -0.1948  0.0703
88137W        W89001  13.856  11.996  10.993 -0.3050  0.1522 -0.0149
88138W        W89002  12.839  15.814  13.767 -0.2619  0.2302 -0.0592
88139W        W89003  11.939  12.818  16.860  0.0121 -0.1791  0.0072
88140W        W89004  15.427  13.704  13.192 -0.2692  0.0650  0.0086
88141W        W89005  12.789  12.942  15.595 -0.1526 -0.0800 -0.0951
88142W        W89006  12.457  16.629  12.415 -0.0435  0.4272  0.0332
88143W        W89007  13.215   9.071   9.625  0.1543 -0.1503  0.2622
88144W        W89008  12.197  12.059  21.848 -0.0510  0.0655  0.1197
88145W        W89009  11.213  10.528  17.297  0.0327 -0.3724 -0.3246
88146W        W89010  13.909  15.123  14.996 -0.0934 -0.0869 -0.0070
88147W        W89011  14.639  14.952  17.759 -0.0979 -0.0107 -0.3202
88148W        W89012  11.571  16.175  14.414 -0.3053  0.0533  0.2219
88149W        W89013  10.989  13.710  19.346 -0.1904 -0.2191 -0.0048
88150W        W89014  11.490  12.371  18.122  0.0220  0.2174 -0.1723
88151W        W89015  11.542  13.100  16.715  0.0705 -0.0377 -0.1418
88152W        W89016  10.565  10.892  18.082  0.2298 -0.4391  0.1247
88153W        W89017   8.377   9.349  18.597  0.0272 -0.2396  0.0324
88154W        W89018  11.846  11.762  17.140  0.2083 -0.2000  0.0340
88155W        W89019  13.766  11.667  15.127  0.1985 -0.0426  0.1132
88156W        W89020  14.187   9.142  19.397 -0.0790  0.0597 -0.0125
88157W        W89021  11.170  10.340  17.875 -0.1401  0.0143  0.2001
88158W        W89022   9.041  12.235  17.860 -0.4162 -0.2333  0.1632
88159W        W89023  12.092  11.583  14.622 -0.0295  0.1084  0.4736
88160W        W89024  11.185  11.431  17.443 -0.1829  0.3877  0.0743
88161W        W89025  13.126  12.646  19.255 -0.0849  0.2470 -0.0469
88162W        W89026  14.653  13.033  16.477  0.1391 -0.0023 -0.0679
88163W        W89027  13.466  14.168  17.204 -0.0161 -0.2487  0.0474
88164W        W89028  12.651  14.067  15.911  0.0215  0.1392 -0.3700
88165W        W89029  12.081  15.948  18.095  0.0492  0.0606  0.1166
88166W        W89030  11.602  13.006  16.081 -0.1454 -0.0075 -0.0971
88167W        W89031  10.100  13.636  17.877  0.0156 -0.4363 -0.1322
88168W        W89032  11.397  11.823  18.566 -0.0557 -0.2309  0.1291
88169W        W89033  14.280  14.312  17.016  0.3666 -0.2388  0.0740
88170W        W89034  12.180  12.568  19.380  0.1327  0.1053  0.1759
88171W        W89035  11.517  11.383  20.000  0.0529  0.1035 -0.2892
88172W        W89036  13.036  13.217  16.903 -0.0479 -0.0804 -0.2250
88173W        W89037  15.102  13.033  18.918 -0.4282 -0.1926 -0.2422
88174W        W89038  14.149  16.450  16.918 -0.2011 -0.0998  0.0396
88175W        W89039  12.174  13.602  17.279  0.0819  0.0170  0.3653
88176W        W89040  12.207  11.440  16.923  0.1407  0.0244  0.2625
88177W        W89041   9.893  12.693  16.873  0.1929  0.0565 -0.1042
88178W        W89042  10.680  13.243  17.127  0.0145 -0.0080 -0.2582
88179W        W89043   8.866  11.206  17.928 -0.2507 -0.6522 -0.2664
88180W        W89044  12.594  13.890  18.384  0.0590  0.2553 -0.1621
88181W        W89045  14.461  16.630  16.124 -0.0173  0.3166 -0.1576
88182W        W89046  13.883  12.021  15.943  0.1036  0.2358  0.1775
88183W        W89047  15.719  12.079  15.417  0.0155 -0.1471  0.1907
88184W        W89048  15.799  12.472  18.477  0.1513  0.3780 -0.0190
88185W        W89049  10.956  14.599  17.079  0.3019  0.1892  0.1117
88186W        W89050  16.390  13.131  15.480 -0.1734  0.0663 -0.2190
88187W        W89051   9.970  15.607  14.271  0.2054 -0.2366  0.1005
88188W        W89052  11.300  15.508  17.212  0.1307  0.1357 -0.0313
88189W        W89053  12.635  11.304  18.340 -0.1160  0.0188  0.0416
88190W        W89054  13.397  12.939  16.704 -0.0383 -0.1036 -0.2804
88191W        W89055  12.421  11.214  14.870  0.0895 -0.4974  0.0627
88192W        W89056  14.759  14.765  16.262  0.2154 -0.0790  0.0055
88193W        W89057  11.341  12.768  15.633  0.2707 -0.0363 -0.0061
88194W        W89058  12.491  13.312  18.129 -0.0366  0.0793 -0.0392
88195W        W89059  10.661  14.931  18.102 -0.2533  0.2134 -0.1003
88196W        W89060  12.763  12.664  17.446  0.1515  0.0536 -0.2392
88197W        W89061  14.605  14.582  15.226 -0.0759 -0.0618  0.0002
88198W        W89062  11.302  11.850  17.956 -0.1240 -0.0780 -0.3617
88199W        W89063   9.871  13.298  14.830 -0.1733 -0.1354 -0.1237
88200W        W89064  12.152  11.910  17.610  0.1948  0.0124 -0.1456
88201W        W89065  10.722  13.404  15.238 -0.0141 -0.0389 -0.2393
88202W        W89066  14.930  15.156  15.040  0.2233  0.1307 -0.2850
88203W        W89067  12.964  10.128  15.828  0.0483  0.1971 -0.0369
88204W        W89068  10.071  15.395  17.247  0.0594 -0.0949  0.1759
88205W        W89069   7.720  12.937  17.302 -0.0175 -0.1154 -0.2087
88206W        W89070  10.727  13.169  19.289 -0.0423  0.2988 -0.1350
88207W        W89071  10.512  14.310  18.686  0.1775 -0.0115  0.1519
88208W        W89072  16.731  11.107  17.394  0.0447 -0.1124  0.0111
88209W        W89073  11.835  15.099  14.191  0.1202  0.1706  0.1878
88210W        W89074  12.431  12.451  13.389 -0.1158 -0.2005  0.1997
88211W        W89075  11.558  10.858  14.304  0.3228  0.3404  0.2668
88212W        W89076  12.391  14.789  15.716  0.2646 -0.1536 -0.2315
88213W        W89077  11.267  14.000  20.527  0.2814  0.0404  0.0373
88214W        W89078  14.386  13.915  16.048  0.0457 -0.1435  0.0766
88215W        W89079  13.574  11.939  16.471 -0.3308 -0.0455 -0.0876
88216W        W89080  13.898  11.480  19.375  0.0697 -0.1540 -0.1426
88217W        W89081  16.396  13.050  18.452 -0.2309  0.0171  0.3779
88218W        W89082  11.932  15.201  19.449 -0.1502  0.1879 -0.1652
88219W        W89083  12.153  13.873  14.425 -0.0340 -0.4653  0.0296
88220W        W89084  11.007  11.120  19.138 -0.1259 -0.0527  0.1467
88221W        W89085  14.710  13.107  15.738 -0.0340  0.3595  0.0230
88222W        W89086  10.066  17.100  13.474  0.0077 -0.0177 -0.0999
88223W        W89087  10.194  11.913  20.035  0.1376 -0.0568 -0.0364
88224W        W89088  11.302  13.149  18.570 -0.3268 -0.1703  0.0757
88225W        W89089  11.542   9.963  15.533  0.3495 -0.1946 -0.0466
88226W        W89090  13.585  15.583  17.006  0.1579 -0.2581 -0.1183
88227W        W89091  13.244  11.732  18.339  0.1048 -0.2060 -0.0297
88228W        W89092  13.840  10.415  15.599 -0.0569 -0.1921  0.0049
88229W        W89093  10.021  13.248  20.206 -0.0553  0.1721  0.0385
88230W        W89094  14.480  11.962  18.251  0.1318 -0.2321  0.0508
88231W        W89095  15.514  15.280  17.263 -0.0457  0.0265  0.1523
88232W        W89096  13.887  11.724  18.204  0.1618  0.2952  0.0708
88233W        W89097  11.280  12.291  16.629  0.0222 -0.0888 -0.4041
88234W        W89098  12.184  13.598  19.233  0.0804 -0.0677  0.1619
88235W        W89099  10.696  14.895  16.743 -0.3178 -0.0678 -0.4189
88236W        W89100  13.980  12.290  17.803 -0.2073  0.3875  0.3497
88237W        W89101  12.103  11.014  20.070 -0.3497 -0.1822 -0.0356
88238W        W89102  16.700  10.408  16.473  0.0292 -0.0292  0.1085
88239W        W89103  13.818   9.395  14.732  0.1002  0.0422  0.0845
88240W        W89104  12.944  14.717  19.746  0.0912 -0.2545  0.0953
88241W        W89105  13.088  11.997  16.699 -0.0860 -0.0677  0.1900
88242W        W89106  14.459  12.249  17.690 -0.2138  0.2442 -0.0311
88243W        W89107  16.240  12.123  15.495  0.1670 -0.0313  0.0240
88244W        W89108   9.336  14.344  16.789  0.1612 -0.0949  0.1328
88245W        W89109  14.562  11.521  16.263 -0.2309 -0.2682  0.1417
88246W        W89110  14.525  10.636  17.509 -0.3313 -0.2546 -0.0600
88247W        W89111  14.927  12.271  16.866  0.0278  0.0050  0.1427
88248W        W89112  13.375  14.108  19.332  0.0025 -0.1923 -0.3050
88249W        W89113  13.571  10.113  16.158  0.0812 -0.3920 -0.2300
88250W        W89114  13.588  12.337  21.843  0.1038 -0.1647 -0.1094
88251W        W89115  15.195  13.206  18.029 -0.0739 -0.2946  0.0922
88252W        W89116  12.062  10.921  17.170 -0.0737 -0.0078 -0.1966
88253W        W89117  13.477  10.953  17.728 -0.2914 -0.2251  0.2482
88254W        W89118  12.781  16.227  16.026  0.0883 -0.1453 -0.0817
88255W        W89119  15.359  12.624  18.180  0.0568 -0.0718 -0.0092
88256W        W89120  13.856  14.573  16.062  0.0585  0.3021 -0.1455
88257W        W89121  14.117  12.355  17.324 -0.0770 -0.0888  0.1267
88258W        W89122  13.371  13.911  17.997 -0.0734 -0.0173 -0.0832
88259W        W89123  13.752  11.754  19.909 -0.2921 -0.1917 -0.1060
88260W        W89124  12.232  14.646  21.045  0.0655  0.0165  0.3170
88261W        W89125  12.904  13.159  17.874 -0.4743 -0.0066 -0.2870
88262W        W89126  17.451  14.266  14.014  0.1092  0.0644  0.0976
88263W        W89127  15.176  11.528  14.370  0.1706  0.1062 -0.1302
88264W        W89128  14.006  14.497  14.351 -0.0437  0.2038 -0.4193
88265W        W89129  14.274  11.136  16.617 -0.0317  0.1964 -0.0168
88266W        W89130  12.561  13.782  17.529  0.1487  0.0299 -0.0434
88267W        W89131  13.381  11.182  19.585 -0.2828  0.0095 -0.0787
88268W        W89132  14.702  13.464  17.900 -0.1301 -0.0481  0.0908
88269W        W89133   9.952  11.780  18.478  0.1509  0.4367  0.0620
88270W        W89134  13.164  12.601  17.884 -0.2355 -0.3141  0.2095
88271W        W89135  15.862  14.637  15.901 -0.0249 -0.0382  0.3389
88272W        W89136  11.530  14.767  12.800  0.0118  0.1457 -0.1140
88273W        W89137  13.894  14.031  16.727 -0.3630 -0.1167 -0.1716
88274W        W89138  13.427  11.604  20.183 -0.0448 -0.2370 -0.1169
88275W        W89139  10.642  15.145  17.613  0.0657  0.1786 -0.1182
88276W        W89140  14.248  11.958  16.442 -0.1527 -0.1836 -0.1770
88277W        W89141  13.708  14.018  15.799 -0.3809  0.0022  0.0945
88278W        W89142  10.511  13.336  20.130  0.2412 -0.0952 -0.0803
88279W        W89143  13.899  13.460  17.407 -0.0046 -0.1910 -0.0468
88280W        W89144  14.456  12.195  15.583 -0.2681 -0.0623 -0.1084
88281W        W89145  14.706  14.301  15.835 -0.0084 -0.1550 -0.2473
88282W        W89146  14.865  15.630  15.238 -0.0481  0.3225  0.0238
88283W        W89147  12.246  11.548  15.185  0.1618 -0.2990  0.3086
88284W        W89148  13.937  11.513  15.743 -0.2282  0.0472  0.0756
88285W        W89149  12.018  13.524  13.075 -0.2602 -0.2549 -0.0797
88286W        W89150  14.071  11.865  14.739  0.2864 -0.2307  0.0620
88287W        W89151  14.169  13.708  20.183 -0.1563  0.3379 -0.0192
88288W        W89152  11.978   9.922  15.919  0.0315  0.1609  0.2593
88289W        W89153  14.030   9.551  16.085 -0.4202 -0.0327 -0.2251
88290W        W89154  12.554  16.054  16.843 -0.3328 -0.1021  0.1000
88291W        W89155  12.315  11.959  16.991  0.0047 -0.1314 -0.1192
88292W        W89156  11.718  11.538  18.318 -0.1090 -0.0809 -0.0740
88293W        W89157  15.813  13.374  17.547 -0.0129 -0.0224 -0.1264
88294W        W89158  10.519  10.007  15.892  0.0743 -0.0745  0.0225
88295W        W89159  12.078  15.758  16.506  0.1954 -0.0003  0.1065
88296W        W89160  11.244  13.787  12.873  0.0876 -0.2427 -0.1008
88297W        W89161  15.802  11.964  18.396 -0.2390  0.0841  0.2960
88298W        W89162  12.712   9.617  16.108 -0.0718 -0.0976 -0.0005
88299W        W89163  10.425  12.665  15.838 -0.2095 -0.2192 -0.0936
88300W        W89164  12.142  13.431  15.331 -0.0049  0.2807 -0.3266
88301W        W89165  12.025  12.768  13.826  0.2463  0.1936 -0.1905
88302W        W89166  12.760  11.653  16.989 -0.2075 -0.0707  0.0005
88303W        W89167  11.760   8.106  20.327  0.0647 -0.0697  0.2496
88304W        W89168  11.878  12.002  18.388 -0.1554  0.1368 -0.0798
88305W        W89169  11.375  11.254  19.544  0.1923  0.1180 -0.0967
88306W        W89170  12.837  13.728  17.971  0.6077  0.0954  0.1454
88307W        W89171  11.837  10.642  18.922 -0.0767 -0.0707 -0.1793
88308W        W89172  11.787  11.560  15.329 -0.0996  0.0412  0.0188
88309W        W89173   9.388  11.335  15.631 -0.1297 -0.0808  0.2084
88310W        W89174  10.299  15.446  15.101  0.2379 -0.1977  0.0077
88311W        W89175  13.269  14.396  18.913  0.0127  0.0089  0.1797
88312W        W89176  10.421  15.074  16.028  0.3601 -0.1083 -0.0525
88313W        W89177  15.860  10.501  17.087 -0.1225 -0.3875  0.1248
88314W        W89178  14.232  12.041  19.140 -0.0252 -0.0953  0.2126
88315W        W89179  14.026  12.768  17.524  0.1364 -0.0172  0.0127
88316W        W89180  14.576  15.145  14.624 -0.2027 -0.5037  0.0705
88317W        W89181  17.065  13.622  14.076 -0.2640  0.1852 -0.1969
88318W        W89182  13.937  11.845  16.950  0.1768  0.1789 -0.0084
88319W        W89183   9.132  13.928  16.957  0.1357 -0.0152 -0.0659
88320W        W89184  11.970  11.915  15.006  0.2485  0.6069  0.1596
88321W        W89185  11.238  13.787  17.700 -0.3075  0.4682 -0.2693
88322W        W89186   9.595  10.500  20.762 -0.2922  0.3737 -0.2658
88323W        W89187  14.759  11.137  16.528 -0.0351  0.1973  0.0393
88324W        W89188  10.513  14.227  11.256  0.2978  0.0009 -0.0540
88325W        W89189  15.132  12.262  12.123  0.0720 -0.0095  0.2047
88326W        W89190  14.086  11.837  17.398 -0.0225 -0.1685 -0.0170
88327W        W89191  13.635  10.833  14.740  0.0758  0.0799  0.2150
88328W        W89192  14.663  15.464  17.905  0.0428  0.0111  0.2322
88329W        W89193  13.691   9.532  17.096 -0.1589 -0.0275 -0.1212
88330W        W89194   9.966  10.986  15.972  0.0656 -0.3693 -0.0976
88331W        W89195  12.131  12.581  18.488  0.0780  0.1528  0.1163
88332W        W89196   9.517  16.275  13.076 -0.1708  0.1586 -0.3516
88333W        W89197  11.441  12.540  14.408  0.0492  0.2420  0.1111
88334W        W89198   9.329  14.766  13.905  0.2164 -0.3884 -0.1520
88335W        W89199  11.377  14.365  16.128 -0.1032 -0.1244 -0.1249
88336W        W89200   9.055   8.740  21.434  0.0860 -0.2796 -0.0998
88337W        W89201  15.222  11.112  19.522  0.1266 -0.0506 -0.4016
88338W        W89202  10.535  10.745  15.347  0.0411  0.2710  0.1360
88339W        W89203  11.390  11.324  15.058 -0.0986 -0.1333  0.1883
88340W        W89204   9.630  11.604  14.586  0.1316  0.0928 -0.0865
88341W        W89205  11.003  13.700  17.291  0.2497 -0.1119  0.0959
88342W        W89206  13.240  12.034  17.724  0.0970  0.2134  0.5176
88343W        W89207  11.395  11.866  15.278 -0.3863  0.2508  0.2084
88344W        W89208  14.892  11.701  16.973  0.0475  0.0089  0.1698
88345W        W89209  14.491  11.941  13.627  0.1967  0.0133 -0.1407
88346W        W89210  12.939  11.350  18.744 -0.1186  0.0952  0.0871
88347W        W89211  11.668  11.386  16.786 -0.2096 -0.0705  0.1334
88348W        W89212  13.405  12.387  15.917 -0.1195  0.1929 -0.0348
88349W        W89213  11.714  11.984  15.762 -0.1827 -0.0088  0.2729
88350W        W89214  10.649  12.681  16.405 -0.0270  0.1357  0.3738
88351W        W89215  13.368  13.139  16.047  0.0691 -0.3534 -0.0094
88352W        W89216  11.911  14.449  12.590 -0.1945 -0.1551  0.0642
88353W        W89217   9.950  15.910  16.003 -0.4200 -0.1457  0.2487
88354W        W89218   9.105  12.758  18.199 -0.5780 -0.2323  0.1367
88355W        W89219  13.095  11.646  19.747  0.1665  0.0949  0.1607
88356W        W89220  13.349  12.921  15.577  0.0945  0.0030  0.1002
88357W        W89221  12.749  12.766  18.829  0.1571  0.1438  0.0820
88358W        W89222  15.432  13.137  13.116  0.2320  0.1021  0.0467
88359W        W89223  12.674  12.828  16.926  0.1305  0.3588 -0.0476
88360W        W89224  17.053  12.336  17.565  0.1411  0.2522  0.0693
88361W        W89225  10.978  12.335  19.424 -0.1264  0.0559 -0.1833
88362W        W89226   9.495  11.084  18.694 -0.2380 -0.1727  0.0037
88363W        W89227  13.868  13.524  21.041  0.1295 -0.0506 -0.0147
88364W        W89228  15.720  12.042  16.814  0.1015 -0.0109  0.3280
88365W        W89229  11.482  12.376  18.628 -0.0707 -0.0110 -0.0520
88366W        W89230  14.228  13.804  15.511  0.2375  0.3533  0.1994
88367W        W89231  13.455  13.771  17.493  0.1062 -0.1570  0.0980
88368W        W89232  12.383  12.354  19.844 -0.2310 -0.0411  0.0926
88369W        W89233   7.503  14.279  14.989  0.0164  0.3804  0.3241
88370W        W89234  14.066  12.335  16.806  0.0650  0.1752 -0.1161
88371W        W89235  15.922  14.454  12.015 -0.4611 -0.3431  0.2608
88372W        W89236  14.977  12.303  19.075  0.1145 -0.3975  0.0021
88373W        W89237  11.084  12.498  18.939  0.0149  0.1488  0.4006
88374W        W89238  13.358  10.775  16.926 -0.0602 -0.1432 -0.0663
88375W        W89239  14.865  12.039  15.345  0.1049 -0.2615 -0.0201
88376W        W89240  12.417  13.879  16.300  0.1622 -0.1134  0.0872
88377W        W89241  12.030  11.844  16.605 -0.0142  0.1701  0.1028
88378W        W89242  13.052  14.581  16.470  0.1326 -0.0032  0.1400
88379W        W89243  17.895  12.501  16.999  0.0781  0.1755 -0.1446
88380W        W89244  12.453  11.606  21.283  0.0390 -0.0267 -0.0924
88381W        W89245  14.771  13.409  15.230  0.1141  0.3641  0.0754
88382W        W89246  16.305  14.429  16.018  0.0222  0.0845 -0.1031
88383W        W89247  15.664  13.488  15.446 -0.0150  0.1507 -0.1903
88384W        W89248   9.972  13.640  18.742  0.1286  0.0718 -0.2876
88385W        W89249  12.165  12.063  19.274  0.3022 -0.2521 -0.1948
88386W        W89250  12.000  13.049  16.394  0.2300  0.0523 -0.1680
88387W        W89251  13.164  10.889  19.236 -0.0508 -0.1907  0.1886
88388W        W89252  15.983  13.040  15.264  0.0840 -0.1803 -0.0042
88389W        W89253  13.662  13.085  17.599  0.1149 -0.2693 -0.0813
88390W        W89254   9.973  13.159  16.704  0.1363 -0.3262  0.0473
88391W        W89255  16.163  14.265  15.526  0.1615 -0.1297 -0.0046
88392W        W89256   9.276  10.928  16.813 -0.1564 -0.2379 -0.1414
88393W        W89257  11.958  13.655  16.439 -0.2494 -0.5319 -0.0465
88394W        W89258  10.076  14.097  17.010  0.0713  0.3488 -0.1219
88395W        W89259  11.012  14.215  17.458 -0.0094  0.2102  0.2764
88396W        W89260  13.633  12.679  18.485 -0.1300 -0.1840  0.1854
88397W        W89261  11.478  10.761  15.170  0.0492  0.0326 -0.1443
88398W        W89262  14.901  15.129  16.595 -0.0147 -0.1260 -0.2394
88399W        W89263  14.996  13.309  16.073 -0.0361 -0.0360  0.4044
88400W        W89264  12.757   9.699  18.173 -0.0573  0.0652  0.3777
88401W        W89265  14.987  12.966  15.327 -0.0623  0.4008  0.0551
88402W        W89266  15.131  12.444  14.718  0.0889  0.2820 -0.0709
88403W        W89267  12.913  15.489  16.331  0.0930  0.0907 -0.0240
88404W        W89268  10.460  11.902  17.579 -0.0908 -0.0828 -0.1979
88405W        W89269  13.503  13.513  18.444 -0.3028 -0.0366  0.2093
88406W        W89270  12.001  10.295  17.888 -0.1897 -0.2612  0.0378
88407W        W89271  12.386  14.438  16.218  0.0945  0.2265  0.0240
88408W        W89272  10.611  14.025  16.565 -0.0862  0.1404 -0.0693
88409W        W89273  10.012  14.357  13.876  0.1096 -0.3473 -0.0560
88410W        W89274  12.554  15.523  16.854  0.1600  0.0469  0.3314
88411W        W89275  10.075   9.648  20.724  0.1926 -0.3738  0.0092
88412W        W89276  12.971  12.028  15.207 -0.5441  0.0327  0.1438
88413W        W89277  11.124  14.947  13.020  0.0693 -0.0401  0.0124
88414W        W89278  14.329  13.134  18.257  0.3908 -0.1983  0.0227
88415W        W89279  12.434  15.103  17.210  0.2025  0.1685  0.1571
88416W        W89280   9.714  11.519  15.114 -0.1024  0.0306  0.0606
88417W        W89281  16.030  12.829  19.215  0.1290 -0.1288 -0.2289
88418W        W89282  13.346   9.852  19.817 -0.2280 -0.1709 -0.2186
88419W        W89283   9.291  11.354  19.197 -0.2896  0.0294 -0.3150
88420W        W89284  10.865  13.500  17.795 -0.0353 -0.2075  0.1360
88421W        W89285  10.924  12.887  15.843  0.3022  0.0427  0.0268
88422W        W89286  10.366  13.898  18.541  0.0991  0.0193 -0.1797
88423W        W89287  12.739  12.216  17.211 -0.0169  0.1125  0.1203
88424W        W89288  12.721  12.375  16.742 -0.1094 -0.1052 -0.3963
88425W        W89289  13.395  10.722  18.136 -0.4399 -0.3137  0.0199
88426W        W89290  10.353  12.286  17.271 -0.1266  0.0443 -0.1901
88427W        W89291  13.424  12.105  15.001 -0.1393  0.1758 -0.1183
88428W        W89292  14.469  11.074  21.248 -0.1706 -0.3247 -0.0276
88429W        W89293  13.108  12.611  16.963  0.1235  0.0751  0.3312
88430W        W89294  12.489  12.012  18.147 -0.0766  0.0333 -0.2336
88431W        W89295  15.110  10.489  16.003 -0.2008 -0.1004  0.0998
88432W        W89296  14.803  14.155  17.020 -0.0231  0.1438 -0.3210
88433W        W89297  12.550  10.880  17.638 -0.2471  0.1355 -0.2051
88434W        W89298  11.684  13.417  14.622  0.1898  0.0494 -0.0811
88435W        W89299  13.106  11.480  17.464 -0.1761  0.0593  0.0525
88436W        W89300  11.744  11.441  15.897 -0.1054 -0.2316  0.1209
88437W        W89301  11.333  15.114  14.929 -0.1378  0.0785 -0.0277
88438W        W89302  12.613  11.729  15.589  0.0159 -0.0066 -0.3446
88439W        W89303  14.344   8.619  15.321  0.0659 -0.0771  0.0469
88440W        W89304  15.304  11.669  16.694 -0.0708 -0.0774 -0.1974
88441W        W89305  16.247  11.880  17.395  0.1611  0.1168  0.1084
88442W        W89306  10.242  14.929  15.003 -0.0568 -0.2476 -0.1411
88443W        W89307   9.587  15.825  12.733  0.0421  0.2359 -0.1374
88444W        W89308  11.917  11.541  17.874 -0.1556 -0.0053 -0.1393
88445W        W89309  11.230  13.627  19.825  0.0809 -0.0571 -0.2029
88446W        W89310  15.441  13.284  16.424 -0.0475  0.1095  0.0175
88447W        W89311  13.993  14.098  14.782  0.0966  0.0911 -0.0124
88448W        W89312  13.616  14.471  16.807 -0.0973  0.2074  0.1449
88449W        W89313  13.154  11.203  20.067  0.0674 -0.2029  0.2326
88450W        W89314  11.661   8.463  17.798  0.0626  0.1133 -0.0817
88451W        W89315  13.137  10.416  18.439  0.3536  0.1452 -0.0836
88452W        W89316  12.217  14.694  14.025  0.1019  0.3373 -0.0052
88453W        W89317  12.376  10.829  15.735 -0.0301  0.0067  0.0558
88454W        W89318  13.793  11.157  18.152  0.0140 -0.2470 -0.0319
88455W        W89319  12.038  10.075  15.413  0.0797  0.2616  0.0929
88456W        W89320  13.880  12.786  17.981 -0.1722 -0.0656 -0.1871
88457W        W89321  10.742  14.790  16.233  0.1098 -0.0739 -0.0416
88458W        W89322   9.234  12.181  16.232 -0.0911 -0.2942  0.4198
88459W        W89323  10.334  11.626  15.662  0.3426  0.1672  0.3078
88460W        W89324  10.546  11.804  16.255  0.2256  0.4085 -0.0135
88461W        W89325  11.164  14.789  15.959  0.1311 -0.2890 -0.2602
88462W        W89326  13.308  10.662  17.379 -0.1010 -0.1250  0.1472
88463W        W89327  10.835  12.861  15.154  0.4046  0.0464 -0.0728
88464W        W89328  14.461  14.032  16.620  0.1236  0.1574 -0.1064
88465W        W89329  12.021  16.157  13.728 -0.2216 -0.1110  0.1245
88466W        W89330  10.075  14.409  17.848 -0.0086  0.1635  0.5881
88467W        W89331  13.151  12.151  13.838  0.0646 -0.1575 -0.1693
88468W        W89332  10.951  12.531  17.406 -0.1191 -0.0329 -0.0495
88469W        W89333  11.672  11.319  17.333 -0.1922  0.0930  0.1477
88470W        W89334  10.241  16.149  13.333  0.0148  0.1791  0.1310
88471W        W89335  13.386  13.048  15.079 -0.1871 -0.0964 -0.0799
88472W        W89336  11.502  11.858  16.769 -0.0891 -0.0017 -0.0015
88473W        W89337  11.698  12.044  18.950  0.0554  0.0989  0.0659
88474W        W89338  16.637  14.284  12.857 -0.0450 -0.1139 -0.0957
88475W        W89339  15.419  12.565  17.673  0.0378 -0.0596  0.0462
88476W        W89340  11.840  14.153  20.409  0.0811 -0.4890  0.1109
88477W        W89341  13.730  15.023  21.055  0.2445 -0.0272  0.1538
88478W        W89342  11.802  14.906  16.766 -0.0321  0.3806  0.0110
88479W        W89343  11.429  12.235  17.108  0.0693  0.0015  0.2605
88480W        W89344  14.571  12.380  16.535  0.0958 -0.0641  0.2172
88481W        W89345  13.929  13.093  17.094 -0.0973 -0.0053  0.1789
88482W        W89346  16.602  12.107  18.480 -0.0003 -0.1670 -0.3006
88483W        W89347  13.043  15.565  15.403  0.1246 -0.1759  0.0966
88484W        W89348  12.836  12.221  19.756  0.2013  0.0395 -0.0462
88485W        W89349  12.420  11.462  17.860 -0.0335 -0.1247 -0.2050
88486W        W89350   9.727  14.834  15.643 -0.1256 -0.4137  0.0919
88487W        W89351  13.355  14.325  15.540 -0.1283  0.2295  0.1851
88488W        W89352   9.318  12.679  17.313  0.1213 -0.2025 -0.2391
88489W        W89353  11.997  12.596  13.283  0.1619 -0.2442 -0.1605
88490W        W89354  11.770  12.128  14.561  0.1928 -0.0856  0.0965
88491W        W89355  15.464  14.830  14.810  0.1755 -0.0664 -0.1765
88492W        W89356  13.314  11.255  14.089 -0.1514  0.0700  0.0896
88493W        W89357  13.882  13.114  18.798 -0.1347  0.2363  0.1223
88494W        W89358  14.382   7.463  14.797 -0.2463  0.3819  0.1837
88495W        W89359  13.517  11.016  13.667  0.3990 -0.1062  0.0908
88496W        W89360  12.041  11.815  16.088  0.0480  0.1051  0.0018
88497W        W89361  14.533  14.007  14.812 -0.0236  0.1992  0.1523
88498W        W89362  14.168   8.496  14.827 -0.2407 -0.0108  0.0389
88499W        W89363  14.385  14.434  16.205 -0.2213 -0.1210 -0.0323
88500W        W89364  10.843  12.922  18.759  0.2387 -0.0701  0.1606
88501W        W89365  11.228  11.552  16.009  0.1606 -0.2332 -0.0113
88502W        W89366  10.889  13.911  18.467 -0.2116 -0.0910 -0.2861
88503W        W89367  14.497  12.146  16.971  0.4421  0.3245 -0.2531
88504W        W89368  15.001  11.726  18.298 -0.0837 -0.3227  0.1279
88505W        W89369  11.030  11.503  18.722  0.3908  0.1487  0.1008
88506W        W89370  13.145  12.534  16.457 -0.0767  0.0715  0.1640
88507W        W89371  12.269  14.217  18.857 -0.1306 -0.2203 -0.1718
88508W        W89372  13.059  12.731  16.004  0.0540 -0.0140  0.0677
88509W        W89373  14.940  13.806  15.980  0.0318  0.1134 -0.1424
88510W        W89374  11.426  13.054  18.101  0.0964 -0.2780  0.1180
88511W        W89375  13.719  10.219  18.228  0.3906 -0.1243  0.1098
88512W        W89376  15.161  13.788  16.767 -0.0059  0.0331 -0.1981
88513W        W89377  13.934  15.492  14.484  0.1919 -0.0595  0.2103
88514W        W89378  12.062  10.393  16.922 -0.1116  0.1984 -0.1197
88515W        W89379  12.054  12.503  14.284 -0.0440  0.0262 -0.1082
88516W        W89380  15.831  14.957  16.318 -0.0456 -0.1091 -0.2213
88517W        W89381  13.550  14.275  14.890  0.0431 -0.1159  0.1905
88518W        W89382  12.190  12.339  16.459 -0.1942 -0.2675  0.0823
88519W        W89383  12.037  12.749  17.468  0.1684  0.2224  0.0908
88520W        W89384  15.348  12.137  18.361 -0.1223  0.0584 -0.1819
88521W        W89385  13.080   9.232  17.822 -0.2645  0.1647 -0.0696
88522W        W89386  10.446  13.055  16.704  0.0809  0.3010  0.1018
88523W        W89387  11.698  13.554  17.413  0.0644 -0.0184 -0.2372
88524W        W89388  10.047  16.533  15.210 -0.0746  0.0865 -0.1061
88525W        W89389  11.867  14.439  16.823 -0.1949 -0.3729  0.1410
88526W        W89390  13.499  11.245  19.077 -0.1312  0.0453 -0.2332
88527W        W89391  13.402  11.685  19.352 -0.2385  0.0282 -0.1614
88528W        W89392  11.737  13.475  21.190 -0.2079  0.0520  0.2441
88529W        W89393  14.001  13.576  16.948  0.0389  0.0660 -0.1833
88530W        W89394   9.914  14.310  16.536  0.2323 -0.3613 -0.3667
88531W        W89395  11.132  13.196  15.483  0.0712  0.0738  0.0982
88532W        W89396  13.638  14.183  17.705 -0.0137 -0.2158 -0.0988
88533W        W89397  12.448  13.118  20.398 -0.0997 -0.1436 -0.0881
88534W        W89398  11.615  15.132  13.181  0.1273 -0.0533 -0.0965
88535W        W89399  15.928  11.408  11.711  0.1661 -0.2223 -0.0579
88536W        W89400  12.682  12.949  14.153 -0.3585 -0.0928 -0.0748
88537W        W89401  12.517  13.248  16.760 -0.0340  0.2250  0.0802
88538W        W89402  12.870  11.625  20.278  0.0782 -0.3405 -0.0311
88539W        W89403  15.187  14.705  15.202 -0.0262  0.0999  0.2023
88540W        W89404  13.204  14.132  16.764 -0.0407 -0.1592  0.0457
88541W        W89405  12.803  15.234  17.843 -0.1064 -0.1285  0.0310
88542W        W89406  10.427  14.080  14.849  0.2388  0.2836  0.0783
88543W        W89407  11.193  13.519  21.351  0.0969 -0.1935 -0.0843
88544W        W89408  10.947  13.735  20.832 -0.1480 -0.1631 -0.1398
88545W        W89409  11.608  15.721  20.302  0.3196  0.0570  0.1250
88546W        W89410  14.495  14.133  21.758 -0.2065 -0.2646  0.3949
88547W        W89411  13.812  15.311  22.315  0.1635  0.0341  0.1095
88548W        W89412  10.276  10.430  19.009  0.1141 -0.0605 -0.0474
88549W        W89413  12.028  13.032  21.185 -0.3249 -0.4070 -0.2577
88550W        W89414   8.485  11.515  17.995  0.2256 -0.2019  0.3951
88551W        W89415  11.178  16.180  22.330  0.1285  0.1314 -0.3389
88552W        W89416  11.369  14.110  21.607  0.2080 -0.0877 -0.0689
88553W        W89417  12.220  12.544  21.077  0.1491 -0.1028 -0.2245
88554W        W89418  16.306  11.683  18.988 -0.0396 -0.2361 -0.0916
88555W        W89419  12.281  12.517  17.025 -0.1170  0.1610  0.0625
88556W        W89420  14.312  12.213  23.041 -0.2317  0.1377 -0.0978
88557W        W89421   9.670  12.253  21.549 -0.0146  0.0779 -0.1567
88558W        W89422  14.679  14.037  25.074 -0.0795 -0.0439 -0.1565
88559W        W89423  11.634  16.346  21.670  0.0548 -0.3704  0.0798
88560W        W89424  11.775  12.835  19.598  0.3901 -0.0221  0.0974
88561W        W89425  12.534  12.928  23.732  0.0051 -0.0187  0.0196
88562W        W89426  14.422  10.689  18.035 -0.1941  0.1932 -0.0939
88563W        W89427  15.621  13.236  21.924  0.2272  0.3696  0.3011
88564W        W89428  12.069  14.612  18.667  0.3701 -0.1803  0.1430
88565W        W89429  12.425  14.246  22.864 -0.1541  0.2293  0.1427
88566W        W89430  10.763  13.379  21.601 -0.1290  0.2580  0.0951
88567W        W89431  11.187   9.408  19.997  0.0167  0.0482 -0.1547
88568W        W89432  12.041  14.627  20.096 -0.1447  0.0424  0.0192
88569W        W89433  14.335  13.561  23.497 -0.2053  0.0530  0.3765
88570W        W89434   9.936  12.473  20.015 -0.1141 -0.0668  0.2689
88571W        W89435  10.374  11.755  20.445 -0.1768  0.0554  0.0134
88572W        W89436  10.200  11.891  19.214 -0.2675 -0.0743  0.0899
88573W        W89437  12.858  14.911  21.823  0.0131  0.0289  0.2547
88574W        W89438  10.917  13.925  21.475  0.0279 -0.4701 -0.3147
88575W        W89439  10.851  15.332  21.761  0.4549  0.1456 -0.1726
88576W        W89440  10.003  12.880  20.949  0.1086 -0.1846  0.1631
88577W        W89441  12.737  11.357  21.604  0.0747  0.0466 -0.0779
88578W        W89442   9.994  11.037  20.408 -0.2045  0.0705  0.0782
88579W        W89443  11.013  14.263  18.877 -0.0006 -0.0146  0.0416
88580W        W89444  13.231  13.842  20.395 -0.2136  0.2427  0.2287
88581W        W89445  13.822  11.993  19.425  0.1259  0.3043  0.1778
88582W        W89446  13.510  15.914  20.425  0.0538 -0.2731 -0.1181
88583W        W89447  13.738  10.987  21.854 -0.1237  0.0335  0.0186
88584W        W89448  10.081  16.545  19.712 -0.0798 -0.2746  0.1640
88585W        W89449  13.842  13.241  18.261  0.0006  0.0301 -0.4337
88586W        W89450  13.711  14.781  17.819 -0.0143  0.2364 -0.0505
88587W        W89451  11.993  14.619  20.621  0.1398 -0.1067  0.2871
88588W        W89452  11.998   8.931  21.775  0.0307 -0.1926  0.2828
88589W        W89453  13.420   7.792  19.829  0.1183  0.0753 -0.1519
88590W        W89454  12.984  13.607  20.016  0.1135  0.3688 -0.1090
88591W        W89455  14.458  13.630  21.613  0.2131 -0.1974  0.0264
88592W        W89456  11.063  14.386  21.209  0.0168  0.2586  0.0202
88593W        W89457  14.638   8.384  19.757  0.0098 -0.2672 -0.0379
88594W        W89458  10.756  16.705  18.189 -0.2605 -0.0524  0.2691
88595W        W89459  14.938  13.212  20.517  0.1456 -0.1890  0.0712
88596W        W89460  11.877  11.087  19.599 -0.0104 -0.0872  0.1943
88597W        W89461  10.778  11.653  17.875 -0.3092  0.0611  0.0393
88598W        W89462  11.316  10.760  18.848  0.1265  0.1545 -0.1707
88599W        W89463  14.542  11.543  21.192 -0.2741  0.1039  0.0592
88600W        W89464  13.416  15.036  19.105  0.0863  0.0138 -0.0464
88601W        W89465  16.040  12.347  19.155 -0.1358  0.1513 -0.0613
88602W        W89466  14.057  11.434  20.451 -0.3211 -0.2207 -0.1423
88603W        W89467  11.210  12.671  21.190 -0.1765  0.2482 -0.0800
88604W        W89468  11.714  13.043  22.221 -0.2726  0.0532  0.0709
88605W        W89469  12.271  12.013  18.644  0.2485 -0.1417  0.1443
88606W        W89470   9.518  12.514  20.320 -0.2788  0.0252  0.4451
88607W        W89471  15.099  10.234  20.467  0.0614  0.0648  0.0811
88608W        W89472  11.301  13.260  17.633  0.0300  0.2844  0.0698
88609W        W89473  10.293  13.922  19.559  0.2950 -0.0265 -0.1168
88610W        W89474  11.484  14.172  19.515  0.0877 -0.0330  0.5349
88611W        W89475  11.535  13.046  21.055 -0.0169  0.1761  0.2594
88612W        W89476  12.613  14.592  22.060  0.0290  0.2481 -0.0726
88613W        W89477  12.615  12.391  18.506  0.1602  0.0369  0.2020
88614W        W89478  13.764  13.740  19.392 -0.3710  0.1830 -0.0368
88615W        W89479  15.700  12.757  22.886 -0.0864 -0.1254 -0.0669
88616W        W89480  11.823  15.472  18.998  0.0509 -0.0931  0.1522
88617W        W89481  11.494  13.931  22.038 -0.1527  0.1760  0.0706
88618W        W89482  10.850  11.827  18.364 -0.2534  0.2189 -0.0985
88619W        W89483  10.241  13.837  22.748 -0.2656 -0.0612  0.1314
88620W        W89484  14.744  15.342  19.406 -0.0057  0.3148  0.3677
88621W        W89485  12.725  12.587  21.166  0.1288  0.0066 -0.0026
88622W        W89486  10.738  12.325  23.553 -0.2040  0.3696 -0.3367
88623W        W89487   9.037  12.709  20.928  0.0695  0.4960 -0.0688
88624W        W89488  11.902  13.743  21.639  0.0971 -0.3164  0.1774
88625W        W89489  10.967  10.063  18.820 -0.0312 -0.1585 -0.1232
88626W        W89490  11.984  12.052  21.332  0.1357  0.3269 -0.0734
88627W        W89491  14.065  15.948  15.718  0.1836  0.1016 -0.2672
88628W        W89492  11.643  15.161  21.096  0.1545  0.0058 -0.2673
88629W        W89493  14.550  12.883  21.090 -0.0637  0.1140 -0.0247
88630W        W89494  12.243  12.887  19.842 -0.1547  0.0839 -0.0044
88631W        W89495  15.846  13.716  20.079  0.1764  0.0122 -0.0653
88632W        W89496  12.530  11.936  16.517 -0.2807 -0.1741 -0.0016
88633W        W89497  13.122  13.791  25.862 -0.3231 -0.1604  0.3642
88634W        W89498  10.837  12.327  18.529 -0.0361  0.1697  0.0348
88635W        W89499   9.225  11.967  21.438  0.1432 -0.2438 -0.0318
88636W        W89500  12.456   9.736  22.257 -0.4636  0.1484  0.1283
88637W        W89501  13.707  12.431  20.072  0.1112 -0.2691 -0.1207
88638W        W89502  15.056  11.625  19.558  0.3236 -0.1424  0.0572
88639W        W89503  10.699  14.802  21.726  0.2479  0.2410 -0.0369
88640W        W89504  12.103   9.600  19.113  0.1535  0.2617  0.0820
88641W        W89505  14.464  12.013  21.079 -0.1136 -0.0009  0.4076
88642W        W89506  12.922  16.077  19.445  0.1019  0.3270 -0.1664
88643W        W89507  10.692  12.099  20.290  0.0822 -0.0230 -0.2732
88644W        W89508  12.211  11.601  18.325 -0.2929  0.1804  0.1943
88645W        W89509  12.685  13.782  21.458  0.0764  0.0310  0.2973
88646W        W89510  15.625  10.516  21.881 -0.0350  0.1800 -0.3017
88647W        W89511  16.267   9.849  23.091  0.1054 -0.0831 -0.0518
88648W        W89512  16.110  14.424  16.520 -0.3595  0.1171 -0.0323
88649W        W89513  14.297  13.892  24.825  0.0755  0.1525 -0.0252
88650W        W89514  13.156  10.183  21.828 -0.2655 -0.2550 -0.0773
88651W        W89515  10.727  14.691  23.104  0.1240 -0.0758 -0.0273
88652W        W89516  12.090  11.643  21.588 -0.0954 -0.0471 -0.0878
88653W        W89517  12.801  16.616  19.316 -0.2296  0.0587 -0.0981
88654W        W89518  15.818  13.406  20.611 -0.0444 -0.2206  0.2434
88655W        W89519  11.901  13.497  22.084 -0.1840  0.1105 -0.1540
88656W        W89520  13.559  13.461  19.009 -0.1103 -0.1819  0.0389
88657W        W89521  12.268  14.358  19.770 -0.2324 -0.2480 -0.0956
88658W        W89522  15.610  11.496  22.772 -0.5078 -0.3678 -0.1536
88659W        W89523  10.137  14.435  20.876 -0.3354 -0.3662 -0.2650
88660W        W89524  13.295   9.770  20.844  0.0215  0.2750  0.0454
88661W        W89525  12.597  13.694  20.328  0.0547 -0.2460  0.2331
88662W        W89526  14.644  11.573  17.818  0.1910  0.3109 -0.0099
88663W        W89527  11.822  13.124  17.696  0.0511 -0.0133  0.1151
88664W        W89528  12.505  16.617  20.855 -0.0614 -0.0731 -0.3342
88665W        W89529  11.236  14.978  21.394 -0.0370  0.1351  0.0085
88666W        W89530  10.911  14.082  17.939 -0.1519 -0.0871 -0.0029
88667W        W89531  13.139  13.179  19.125 -0.4241 -0.5003  0.1404
88668W        W89532   9.585  11.950  21.979 -0.1926 -0.1942 -0.0000
88669W        W89533  15.603  13.602  21.023  0.1072 -0.2031 -0.2543
88670W        W89534  13.228  14.926  21.534 -0.1809 -0.2281  0.0281
88671W        W89535  14.658  15.112  15.631  0.1751 -0.0656 -0.2837
88672W        W89536  13.184  14.251  22.265  0.0808  0.2670 -0.2766
88673W        W89537  13.309  12.622  19.793  0.0113  0.1077  0.3375
88674W        W89538  10.380  12.810  20.224  0.0895 -0.3960  0.1202
88675W        W89539  11.235  12.306  20.378 -0.0778 -0.2298 -0.1233
88676W        W89540  16.877  11.971  20.858 -0.0385  0.0583 -0.0912
88677W        W89541   7.915  12.195  21.125  0.3458 -0.1821  0.1018
88678W        W89542  15.434  12.901  19.274 -0.1284 -0.2071  0.0556
88679W        W89543  14.746  11.909  19.293 -0.1914  0.0854  0.0624
88680W        W89544  13.246  14.853  18.014  0.0065 -0.0185 -0.2135
88681W        W89545  12.810  14.185  18.909 -0.2255 -0.0971 -0.0944
88682W        W89546  13.431  10.078  20.344 -0.0134 -0.1289  0.1361
88683W        W89547  10.369  13.025  21.272 -0.0057 -0.1053  0.0371
88684W        W89548  12.148  13.387  18.549 -0.0363  0.1761 -0.2311
88685W        W89549  12.589  12.840  19.269  0.2485 -0.1335 -0.1376
88686W        W89550  12.477  11.841  20.075  0.0687  0.3280  0.1324
88687W        W89551  14.190  10.368  20.688 -0.0121 -0.2202  0.1076
88688W        W89552  11.961  11.767  22.124 -0.0951  0.0512 -0.1823
88689W        W89553  10.355  14.600  21.329 -0.2207  0.1009 -0.2908
88690W        W89554  10.888  15.335  20.569 -0.2102  0.1765 -0.0909
88691W        W89555  11.687  12.866  18.479  0.2091  0.0786 -0.1799
88692W        W89556  13.862  13.955  21.841 -0.2258 -0.3609 -0.0584
88693W        W89557  13.709  11.208  19.973  0.0598 -0.2033 -0.1631
88694W        W89558   8.620  12.155  20.001  0.0263 -0.0148 -0.0058
88695W        W89559  11.684  11.827  21.022 -0.2054  0.0038  0.1049
88696W        W89560  14.303   9.712  22.026 -0.0557 -0.2667  0.0270
88697W        W89561  16.701  12.355  20.572 -0.0922 -0.1226  0.0971
88698W        W89562   9.436  14.178  22.673 -0.1838  0.0211 -0.0974
88699W        W89563  10.795  12.570  20.433  0.1511 -0.1809  0.2981
88700W        W89564  12.057  11.117  18.507 -0.0987 -0.4098  0.0644
88701W        W89565  13.243  15.508  20.639 -0.1736  0.3127  0.2916
88702W        W89566  11.705  12.138  21.740 -0.2326 -0.1579  0.1630
88703W        W89567  10.311  12.573  20.744  0.0473  0.0974  0.3042
88704W        W89568  12.256  13.284  22.547  0.2037  0.0229 -0.0896
88705W        W89569  11.858  12.670  21.991  0.2945 -0.0603  0.3051
88706W        W89570  13.899  14.168  23.043 -0.0330 -0.0593  0.1493
88707W        W89571  12.921  10.990  19.651  0.2967 -0.2821  0.2934
88708W        W89572  12.216   8.281  19.029 -0.2728 -0.0706 -0.1136
88709W        W89573  11.123  14.452  19.341 -0.2307 -0.0281  0.3388
88710W        W89574  12.053  14.635  22.851  0.0361  0.1959 -0.0570
88711W        W89575  11.933  13.818  18.775 -0.0380  0.0666  0.0502
88712W        W89576  13.667  12.709  21.036 -0.0829  0.1200 -0.1240
88713W        W89577  12.110  12.061  20.843 -0.1259 -0.1935 -0.3097
88714W        W89578  10.286  15.397  21.774  0.2826  0.3440 -0.0387
88715W        W89579  14.647  13.986  17.925  0.1277  0.0745 -0.2727
88716W        W89580  13.419  11.397  17.876  0.1666  0.4379  0.0041
88717W        W89581  11.414  14.491  16.614  0.0884 -0.0313 -0.1114
88718W        W89582   8.432  13.582  20.202  0.2199  0.0050 -0.0575
88719W        W89583  11.548  11.147  22.782  0.1357  0.1664  0.1345
88720W        W89584  10.380  17.644  18.375 -0.1002 -0.0190 -0.0301
88721W        W89585  12.788  11.476  23.460  0.1404 -0.1701 -0.0573
88722W        W89586  13.920  10.672  18.053 -0.2319 -0.0594  0.0703
88723W        W89587  16.216  13.637  18.176 -0.3415 -0.0647  0.0375
88724W        W89588  15.622  14.391  20.577  0.1360 -0.2074 -0.0512
88725W        W89589  13.217  11.205  18.300  0.0012  0.0681 -0.0116
88726W        W89590  13.161  11.336  20.533  0.2551 -0.2032  0.1154
88727W        W89591  14.615  15.269  20.620 -0.0485 -0.4093 -0.1465
88728W        W89592  12.513   8.721  19.011 -0.1353 -0.0686  0.0357
88729W        W89593  11.142  10.416  18.428 -0.0466  0.0211 -0.0994
88730W        W89594  12.009  15.438  20.480 -0.0373 -0.1398 -0.1298
88731W        W89595  13.417  12.207  19.091 -0.0601 -0.2106  0.0513
88732W        W89596   8.262  12.927  19.370 -0.3305 -0.0535  0.0922
88733W        W89597  10.408  15.372  18.084  0.0541  0.0930 -0.1813
88734W        W89598  10.538  13.070  22.551 -0.3176 -0.0920  0.2189
88735W        W89599  14.187  12.070  23.805  0.0682  0.2664 -0.1318
88736W        W89600  13.367  12.004  21.573 -0.0350 -0.0305 -0.0452
88737W        W89601  11.228  12.750  20.690 -0.1674 -0.1741 -0.1336
88738W        W89602  13.209  11.778  18.886 -0.1282 -0.1742  0.0899
88739W        W89603  12.757  11.455  20.861  0.1928 -0.2397  0.1903
88740W        W89604  13.438  11.952  22.051 -0.0045  0.2182 -0.2230
88741W        W89605  16.548   8.827  20.695  0.0091 -0.1028  0.1108
88742W        W89606  13.610  10.116  21.827 -0.1351 -0.0564 -0.2201
88743W        W89607  14.822  10.587  19.715 -0.2635  0.3996 -0.1470
88744W        W89608  13.039  10.769  17.778  0.0977  0.3225 -0.0336
88745W        W89609  12.687  10.965  20.184 -0.1703 -0.1879  0.0163
88746W        W89610  11.144  11.439  21.957 -0.2759  0.1678 -0.0204
88747W        W89611   7.243  12.663  16.705 -0.0007  0.1672 -0.0014
88748W        W89612  11.992  13.352  19.664 -0.2699 -0.0828 -0.2172
88749W        W89613  12.540  15.451  20.400  0.4518 -0.1646  0.3915
88750W        W89614  12.650  14.035  17.138 -0.1167  0.1360  0.0812
88751W        W89615  11.708  13.117  17.207  0.0590 -0.2180  0.0448
88752W        W89616   9.906  12.190  22.934  0.0441  0.1856 -0.0530
88753W        W89617  12.523  12.430  20.715  0.0223 -0.0765 -0.0920
88754W        W89618  10.159  12.784  22.208  0.3405  0.1860  0.0678
88755W        W89619  14.288  10.772  22.740  0.2021 -0.3657 -0.0990
88756W        W89620  15.400  12.547  19.755 -0.0622  0.1121  0.3715
88757W        W89621  14.895  12.605  19.885 -0.1144  0.2582 -0.0902
88758W        W89622  13.309  11.439  21.487  0.2066  0.1987  0.0808
88759W        W89623  13.060  13.582  18.779 -0.1061  0.2591 -0.2910
88760W        W89624  14.056  12.745  22.329  0.1775 -0.0519  0.1957
88761W        W89625   9.917  13.031  21.867 -0.0775  0.0933 -0.3395
88762W        W89626  15.285  10.358  19.625  0.0400 -0.0736  0.0649
88763W        W89627  17.408  13.258  19.018 -0.0885  0.4360  0.4037
88764W        W89628  11.773  13.570  22.639  0.0524  0.3522  0.1694
88765W        W89629  12.673   8.854  18.507 -0.0518 -0.0316 -0.1190
88766W        W89630  14.236  13.518  19.174  0.1952 -0.2235  0.0816
88767W        W89631  12.978  13.064  20.055 -0.0692  0.3129 -0.2720
88768W        W89632  12.269  15.896  24.037  0.1414 -0.0219 -0.0343
88769W        W89633  17.189  14.474  18.786  0.0445 -0.1575  0.0822
88770W        W89634  13.988  14.958  19.855 -0.0429 -0.0062 -0.4203
88771W        W89635  12.274  14.275  21.877 -0.0274 -0.0481  0.1446
88772W        W89636  12.559  13.224  22.916 -0.1971  0.0034 -0.0488
88773W        W89637  15.423  10.394  23.178 -0.0417  0.0310  0.0656
88774W        W89638  11.130  11.776  17.122 -0.1645  0.0548  0.3626
88775W        W89639  14.834  15.592  16.884 -0.1405 -0.0920 -0.1135
88776W        W89640  10.322  11.709  22.163 -0.3441 -0.1260  0.1402
88777W        W89641  12.859  11.732  17.924 -0.3710  0.1247  0.1409
88778W        W89642  15.900  11.913  19.315  0.1104 -0.1048  0.0109
88779W        W89643  13.689   9.016  22.139  0.1837  0.0286 -0.2613
88780W        W89644  12.681  14.109  22.338 -0.1397  0.0881 -0.1152
88781W        W89645  11.462  14.547  20.303 -0.1653  0.1912 -0.1595
88782W        W89646  15.066  14.380  17.488  0.0771  0.0944  0.1262
88783W        W89647  10.827  16.608  24.200  0.0452  0.0677 -0.1907
88784W        W89648  13.223  11.650  20.991 -0.1616  0.3147 -0.0747
88785W        W89649  14.075  11.803  20.860  0.0167 -0.1723  0.0047
88786W        W89650  13.531  10.986  21.400  0.7019  0.0621 -0.0610
88787W        W89651  11.245  15.020  20.360  0.0862 -0.1438 -0.0538
88788W        W89652  13.700  11.146  22.317  0.2146  0.0815  0.0734
88789W        W89653   9.531  14.041  22.105  0.2668  0.0803  0.1467
88790W        W89654  13.001  16.231  18.061 -0.1736  0.2013  0.0669
88791W        W89655  12.638  11.791  19.578  0.3036 -0.0322 -0.1193
88792W        W89656  11.166  13.050  19.103 -0.1057 -0.1990 -0.1233
88793W        W89657   9.842  14.773  20.691  0.4902  0.2209  0.2519
88794W        W89658  15.482  14.625  25.194 -0.0423  0.1270  0.3077
88795W        W89659  13.963  13.951  23.492 -0.2884  0.2265 -0.3180
88796W        W89660   8.967  11.737  17.177 -0.1362  0.0310  0.0097
88797W        W89661  12.951  13.630  23.084  0.0601  0.1286  0.2108
88798W        W89662  15.316  14.056  20.836  0.2445  0.0514  0.2068
88799W        W89663  11.456  11.645  24.500 -0.2272  0.2926  0.1034
88800W        W89664  12.927  14.601  23.206 -0.0214 -0.0973  0.0559
88801W        W89665  12.990  12.563  20.139 -0.0477 -0.1841  0.0070
88802W        W89666  11.800  11.350  20.449 -0.1979  0.1542  0.1139
88803W        W89667  10.081  12.695  21.495 -0.1093 -0.1259  0.0118
88804W        W89668  13.162  15.275  21.958 -0.3342 -0.1450  0.3054
88805W        W89669  13.340  12.095  20.225 -0.1622 -0.0150 -0.0636
88806W        W89670  11.919  15.662  14.361  0.0411  0.0711  0.3168
88807W        W89671   9.765  14.483  22.148 -0.0082  0.2138 -0.3471
88808W        W89672  10.406  12.559  18.743  0.2972 -0.2812  0.0526
88809W        W89673  13.221  15.700  21.643 -0.2754 -0.1889  0.1499
88810W        W89674  11.793  10.539  20.359  0.2248 -0.0303 -0.3791
88811W        W89675  14.386  12.745  21.938 -0.1546  0.0196 -0.0919
88812W        W89676  10.467  10.890  20.531 -0.2794 -0.0794  0.0238
88813W        W89677  13.636  13.142  20.731  0.1453  0.0944  0.2207
88814W        W89678  12.966  13.638  21.093  0.0805 -0.1326  0.0456
88815W        W89679  11.414  13.437  22.249 -0.2172 -0.1455 -0.1568
88816W        W89680  14.535  13.644  22.486 -0.0183  0.0851 -0.2113
88817W        W89681  11.599  10.888  21.573  0.0055  0.1971 -0.0251
88818W        W89682  11.538  14.854  23.491  0.0510 -0.1699 -0.0649
88819W        W89683  11.364  13.894  21.105 -0.2993 -0.0925 -0.2801
88820W        W89684  11.957  10.579  19.811  0.1203 -0.1309 -0.0951
88821W        W89685   9.792  13.822  22.539  0.0538  0.0429 -0.2882
88822W        W89686  12.968  11.836  22.298  0.0801 -0.3054 -0.1551
88823W        W89687  12.799  11.772  18.506  0.0689  0.0446  0.0042
88824W        W89688  12.074  12.705  20.617  0.2560  0.0679 -0.0011
88825W        W89689   8.740  13.108  21.339 -0.3436  0.1072 -0.0298
88826W        W89690  14.203  13.153  20.009  0.0745  0.0694  0.4468
88827W        W89691  16.151  11.301  21.670  0.2191 -0.1200 -0.1846
88828W        W89692  15.113  14.047  19.209 -0.3793 -0.0372 -0.0185
88829W        W89693  11.731  11.196  24.553  0.0053  0.2431 -0.1724
88830W        W89694  13.714   9.638  18.315  0.0326  0.1564  0.4226
88831W        W89695  12.449  14.411  18.377 -0.2864  0.3557  0.2444
88832W        W89696  10.863  12.959  20.133  0.0724 -0.2677 -0.1504
88833W        W89697  12.831  10.208  18.073 -0.5352  0.0795 -0.1395
88834W        W89698  13.589  11.950  23.785  0.3381 -0.2034 -0.1504
88835W        W89699  13.659   8.949  20.512  0.1552  0.2056  0.2400
88836W        W89700   9.429  10.710  18.400  0.1364 -0.2915  0.0786
88837W        W89701  11.740  12.714  22.596  0.1754 -0.2430 -0.2597
88838W        W89702  10.185  11.082  19.705 -0.3421 -0.0113 -0.1800
88839W        W89703  16.331  12.197  22.442  0.1124 -0.0298 -0.0291
88840W        W89704  17.467  11.521  22.854  0.1869 -0.1156  0.1205
88841W        W89705  11.890  13.920  17.057  0.0834  0.4680 -0.1011
88842W        W89706  11.856  12.264  19.684  0.1565 -0.3513 -0.0128
88843W        W89707  10.129  17.783  21.442  0.2629 -0.2112 -0.4664
88844W        W89708  12.754  14.845  21.085  0.2263  0.2713 -0.2387
88845W        W89709  16.667  11.340  22.815 -0.1332 -0.3712 -0.2080
88846W        W89710  11.651  11.110  19.117  0.2446 -0.0020 -0.0522
88847W        W89711  12.381  13.822  21.853 -0.2077 -0.1390  0.0450
88848W        W89712  12.389  11.323  20.309  0.1938 -0.0596 -0.0944
88849W        W89713  12.122   9.089  19.107 -0.3198  0.0515  0.1754
88850W        W89714  14.001  12.595  19.319  0.3544  0.0584 -0.5725
88851W        W89715   8.960  11.750  18.146 -0.0130  0.1644  0.1867
88852W        W89716  12.976  10.555  20.413  0.0921 -0.1489  0.0338
88853W        W89717  12.753  10.932  20.705  0.0077  0.2132  0.0941
88854W        W89718  13.189  12.968  20.907  0.3502  0.0938 -0.4548
88855W        W89719  10.390  13.007  19.009  0.0662  0.0607 -0.4945
88856W        W89720   9.589  15.572  19.709  0.0769 -0.2353 -0.0008
88857W        W89721  11.766  16.384  22.641 -0.2184  0.1020  0.2529
88858W        W89722   9.018  10.478  19.515  0.5149  0.0096  0.2712
88859W        W89723  12.492  12.955  18.455  0.1436  0.2983  0.1310
88860W        W89724  14.002  14.548  23.910 -0.0884 -0.1685  0.1448
88861W        W89725  11.058  11.749  20.246  0.1348 -0.0562  0.2341
88862W        W89726  12.078  15.407  21.246 -0.1381 -0.0333 -0.1777
88863W        W89727  13.317  16.351  16.339  0.0313  0.0815 -0.0557
88864W        W89728  10.957  13.796  22.392 -0.3535  0.0920  0.0388
88865W        W89729  12.530  11.566  21.975  0.0491 -0.0910  0.1951
88866W        W89730  10.144  12.922  19.800  0.1401  0.1844  0.2515
88867W        W89731  12.756  14.528  23.722 -0.0974 -0.1056 -0.3088
88868W        W89732  10.036  12.350  21.173  0.1007 -0.2797 -0.2687
88869W        W89733  12.435  11.415  18.745  0.1258  0.0979  0.2134
88870W        W89734  15.111  14.951  20.660  0.1253  0.1347 -0.2097
88871W        W89735   9.727  11.406  19.876 -0.3099  0.1098 -0.3639
88872W        W89736  13.339  10.354  20.818  0.2287  0.1157  0.2365
88873W        W89737  13.309  10.735  20.100 -0.0894  0.0344 -0.2429
88874W        W89738  15.412  11.938  20.585  0.1639  0.1734  0.2045
88875W        W89739  12.942  15.421  23.608 -0.0679 -0.0342  0.2622
88876W        W89740  13.383  11.939  22.610  0.2634 -0.0077 -0.0668
88877W        W89741  11.380  12.730  21.839 -0.1718 -0.0678 -0.0015
88878W        W89742  12.633  14.363  17.594 -0.0023 -0.1132 -0.0391
88879W        W89743  13.552  11.236  20.995 -0.0339 -0.1751 -0.2978
88880W        W89744  12.964  11.490  19.259  0.0448  0.1271 -0.0914
88881W        W89745  13.697  10.534  20.392 -0.1402 -0.0770 -0.2144
88882W        W89746  12.699  15.477  17.415  0.1322  0.1099  0.0141
88883W        W89747  12.000  14.672  22.000  0.2035  0.0081  0.0656
88884W        W89748  10.195  10.665  20.063 -0.1257 -0.0041 -0.2681
88885W        W89749  11.699  16.013  18.468 -0.1914  0.2134  0.2193
88886W        W89750  11.549  15.317  20.639  0.2231 -0.0489 -0.0740
88887W        W89751   9.725  15.707  19.245  0.1258 -0.1227 -0.1572
88888W        W89752  10.632  12.192  19.084  0.0091 -0.5768 -0.0645
88889W        W89753  11.099  10.776  20.154 -0.0560 -0.1735 -0.0831
88890W        W89754  11.637  14.969  19.732  0.2887  0.0575  0.1036
88891W        W89755  12.346  12.378  17.513  0.2480  0.0197  0.1418
88892W        W89756  11.709  13.397  18.403 -0.0049  0.0619  0.2074
88893W        W89757  12.871  11.210  17.890 -0.1006 -0.1510 -0.0430
88894W        W89758  12.872  14.154  23.077 -0.0134 -0.5453 -0.1283
88895W        W89759  11.633  15.325  23.705  0.2350 -0.0447 -0.0315
88896W        W89760  12.767  15.145  18.396 -0.1574  0.1575 -0.0335
88897W        W89761  14.663  12.624  17.293 -0.1490  0.1341  0.2730
88898W        W89762  12.410  16.237  21.346  0.1372 -0.0782 -0.0789
88899W        W89763  13.666   9.906  21.322  0.0438  0.3218 -0.0680
88900W        W89764  11.008  11.842  23.317 -0.0771 -0.0416  0.0269
88901W        W89765  10.092  12.479  18.305  0.0270 -0.2290 -0.1939
88902W        W89766  11.628  10.494  18.491  0.0928  0.4483  0.0976
88903W        W89767  14.508  14.095  22.300  0.0083  0.2127  0.2929
88904W        W89768  10.226  12.624  19.337  0.0607 -0.0695 -0.0240
88905W        W89769  12.594  14.580  20.062  0.1448 -0.1200 -0.0655
88906W        W89770  11.714  14.971  20.248  0.0174 -0.0624 -0.1978
88907W        W89771  13.405  13.559  20.826 -0.0626 -0.0907  0.2849
88908W        W89772  12.521  14.497  20.672  0.1365 -0.0693  0.1989
88909W        W89773   9.460  13.575  21.325  0.0288  0.0063  0.0264
88910W        W89774  12.664  12.375  19.341 -0.0302  0.1341 -0.1222
88911W        W89775  16.602  11.873  21.565  0.1785  0.0021 -0.0316
88912W        W89776  11.589  13.258  19.887 -0.2359 -0.2737  0.1988
88913W        W89777  15.010   9.088  20.391 -0.2249 -0.1428  0.1648
88914W        W89778  10.171  14.371  19.950 -0.0271  0.1736 -0.0639
88915W        W89779  12.253  13.885  22.336 -0.1278 -0.1408 -0.1503
88916W        W89780  14.252  12.990  19.077 -0.2075  0.1704 -0.0090
88917W        W89781  11.829  12.788  20.105  0.1630  0.0859 -0.0335
88918W        W89782  10.439  12.371  19.839 -0.1658 -0.2703 -0.0734
88919W        W89783  15.740  12.754  20.165  0.0099 -0.0078  0.0857
88920W        W89784  13.921  12.167  22.257 -0.0325  0.1619 -0.3736
88921W        W89785  11.232  12.372  23.534 -0.0058 -0.0664 -0.1606
88922W        W89786  11.119  12.241  22.998  0.1380  0.2837  0.0467
88923W        W89787  11.188  13.273  17.115  0.3168 -0.1053  0.0585
88924W        W89788  11.028  11.316  19.958 -0.1356  0.1879 -0.2924
88925W        W89789  13.191  14.530  21.179 -0.2341 -0.1688 -0.0015
88926W        W89790  13.872  12.387  22.712 -0.0213  0.1934 -0.0374
88927W        W89791  16.874  13.415  23.042 -0.3847  0.3138  0.1672
88928W        W89792  14.248  13.761  20.725 -0.3084 -0.0525  0.0050
88929W        W89793   9.872  16.472  21.279  0.0426 -0.0044  0.0717
88930W        W89794  11.371  12.800  17.334  0.2148 -0.4008 -0.1263
88931W        W89795  13.589  13.551  21.964 -0.0400 -0.0901  0.2627
88932W        W89796  11.883  16.620  20.602  0.2221 -0.0386  0.0571
88933W        W89797  11.085  11.653  19.430 -0.1197 -0.0225  0.0455
88934W        W89798  12.375  14.932  20.535 -0.0109  0.1973  0.0173
88935W        W89799  13.213  14.448  21.694 -0.2098 -0.1524 -0.0195
88936W        W89800  11.019  13.535  20.292 -0.1268 -0.0490 -0.2145
88937W        W89801  10.358  15.571  21.269  0.2122 -0.0570 -0.3185
88938W        W89802   9.938  12.708  18.902  0.0234 -0.4171 -0.0101
88939W        W89803  11.498  14.768  20.849 -0.2100  0.0711  0.0144
88940W        W89804  11.551  13.608  20.314 -0.0788 -0.2121  0.1110
88941W        W89805  11.500  10.863  20.588  0.2210 -0.2334 -0.1388
88942W        W89806  11.122  13.870  26.587  0.0114 -0.1352 -0.1623
88943W        W89807  10.941  11.668  25.168  0.2171 -0.0430  0.3591
88944W        W89808  16.128  12.941  23.075  0.0953  0.0055 -0.1406
88945W        W89809  15.072  13.795  23.863  0.1802 -0.2005 -0.1428
88946W        W89810  15.640  16.770  21.875  0.0457  0.2015  0.0084
88947W        W89811  12.142  12.388  24.626 -0.0707 -0.0037  0.0942
88948W        W89812  10.000  10.319  25.017 -0.1159 -0.0676 -0.0587
88949W        W89813  11.689  14.264  23.564  0.1132  0.1944 -0.1746
88950W        W89814  14.039  16.520  27.165  0.0825  0.3785 -0.0544
88951W        W89815  13.764  13.055  23.833 -0.0425 -0.1297  0.1467
88952W        W89816  13.539  12.115  23.031 -0.2163 -0.0958  0.0445
88953W        W89817  13.844  13.456  23.464  0.1243  0.2479 -0.2562
88954W        W89818  14.995  11.994  25.921 -0.1126 -0.0306 -0.0396
88955W        W89819  16.089  10.978  24.732  0.0318  0.0222 -0.0368
88956W        W89820  12.978  12.170  25.256 -0.0010 -0.0755  0.5280
88957W        W89821   9.558  13.005  25.236  0.0441 -0.1880 -0.1567
88958W        W89822  10.885  14.194  23.274  0.0339  0.0512  0.0463
88959W        W89823  13.465  11.411  25.060  0.2755 -0.0486  0.1630
88960W        W89824  12.645  14.163  24.460  0.0672  0.3159  0.1094
88961W        W89825  15.573  13.016  27.232  0.0760 -0.1469  0.0009
88962W        W89826  15.291  11.796  25.544  0.0160  0.1461  0.2775
88963W        W89827  12.624  14.019  24.904  0.2510 -0.2271 -0.0419
88964W        W89828  16.166  12.062  21.719  0.2623  0.3571 -0.2018
88965W        W89829  11.321  12.816  22.350  0.1361  0.4133 -0.2558
88966W        W89830  11.349  13.268  25.363  0.0737 -0.0915 -0.0903
88967W        W89831  11.598  11.508  25.409  0.3536  0.1774  0.1266
88968W        W89832  17.185  11.444  27.736  0.1997 -0.1734  0.0399
88969W        W89833  11.968  12.040  25.450  0.1541 -0.2418  0.0619
88970W        W89834  10.643  13.525  22.681  0.1983 -0.1711 -0.2340
88971W        W89835  11.598  10.598  24.409  0.0401  0.1327 -0.1189
88972W        W89836  15.032  14.954  23.915 -0.1923  0.2924  0.0834
88973W        W89837  12.527  13.794  23.239 -0.3233 -0.1526  0.2372
88974W        W89838  13.734  11.756  25.377  0.2535 -0.0001  0.1695
88975W        W89839  12.973  14.858  24.403  0.0476 -0.0375 -0.2641
88976W        W89840  12.460  11.908  23.600  0.0947  0.0198 -0.2323
88977W        W89841  14.429  13.926  24.336 -0.0548  0.4540 -0.1035
88978W        W89842  10.167  12.395  23.797  0.0439  0.0384 -0.3710
88979W        W89843  13.569  14.371  23.680 -0.0217  0.0666  0.0354
88980W        W89844  16.668  12.743  20.181 -0.2985  0.0607  0.0431
88981W        W89845  11.266  13.582  22.824 -0.2841 -0.0660 -0.2860
88982W        W89846  16.180  11.228  21.146  0.1497  0.1336  0.0939
88983W        W89847  14.341  13.513  26.524 -0.1194 -0.0641  0.2932
88984W        W89848  12.061  16.752  23.499  0.0622  0.0562 -0.3991
88985W        W89849  12.770  13.139  22.441 -0.0054 -0.1540 -0.1342
88986W        W89850  10.523  12.448  21.345  0.0958 -0.1581  0.1246
88987W        W89851   9.712  13.071  24.216  0.0788 -0.1282 -0.1685
88988W        W89852  13.143  10.727  24.203 -0.3034  0.2469 -0.2072
88989W        W89853  15.954  11.249  23.983 -0.1984  0.0545 -0.0649
88990W        W89854  13.642  14.582  24.315  0.3659 -0.0583  0.3193
88991W        W89855  15.534  11.224  23.750  0.2362 -0.0834 -0.1091
88992W        W89856  12.499  14.099  23.664  0.0146 -0.0167  0.4745
88993W        W89857  13.484  13.666  24.407 -0.0808  0.1140 -0.2319
88994W        W89858  15.297  13.406  23.525 -0.2226  0.0158 -0.0043
88995W        W89859  16.984  12.567  22.097  0.1157 -0.2726 -0.3912
88996W        W89860  13.382  12.296  23.531  0.2164 -0.3622  0.0805
88997W        W89861  10.574  10.258  23.864 -0.2287 -0.0181  0.0105
88998W        W89862  12.715  11.741  24.832  0.0685  0.0542 -0.2142
88999W        W89863  14.821  13.742  20.724  0.0427  0.0736  0.0357
89000W        W89864  11.603  14.175  24.871  0.0219  0.0103  0.1892
89001W        W89865  10.510  14.985  22.647  0.0305  0.3584 -0.1694
89002W        W89866  13.004  11.766  21.829  0.0641 -0.1689 -0.0160
89003W        W89867   9.383  15.757  24.318  0.1989  0.5015 -0.2980
89004W        W89868  11.003  15.840  27.669 -0.1634 -0.1735  0.2862
89005W        W89869  10.353  12.346  24.250 -0.0534 -0.3243 -0.1422
89006W        W89870  12.255  11.718  25.742  0.0871  0.0451 -0.0356
89007W        W89871  15.830  10.190  25.250  0.1818 -0.0248  0.0310
89008W        W89872  10.595  13.348  23.474 -0.2964 -0.0918 -0.2225
89009W        W89873  11.564  13.248  23.608  0.1941  0.3313  0.0153
89010W        W89874  13.665  13.881  25.434 -0.1186  0.0713 -0.0222
89011W        W89875  11.652  13.450  23.149 -0.2016 -0.0373  0.0527
89012W        W89876  17.261  14.866  27.059 -0.2272 -0.1528 -0.3494
89013W        W89877  13.943  10.294  24.227 -0.1869 -0.1273 -0.2593
89014W        W89878  14.559  15.225  22.861  0.2735 -0.1474 -0.1268
89015W        W89879  14.124  14.338  25.043  0.4269  0.2176  0.4803
89016W        W89880  11.568  14.558  23.969  0.0477  0.1253 -0.0809
89017W        W89881  14.368  14.546  23.048 -0.0645  0.2336  0.0677
89018W        W89882  12.436  11.948  24.527  0.0038  0.2813 -0.0719
89019W        W89883  10.122  15.467  24.784 -0.1601 -0.0805 -0.2091
89020W        W89884  14.862  14.301  22.008 -0.1500  0.0681  0.0076
89021W        W89885  12.666  13.590  23.864 -0.1417  0.0441 -0.0528
89022W        W89886  10.243  12.996  23.329  0.3724 -0.1931 -0.1598
89023W        W89887  11.527  11.727  27.678 -0.2098 -0.0526 -0.0141
89024W        W89888  11.538  11.411  24.041 -0.1738 -0.0504  0.1918
89025W        W89889  14.549  12.564  24.010 -0.0920 -0.0929  0.1239
89026W        W89890  12.351  11.284  25.996  0.2035  0.1272 -0.2276
89027W        W89891  14.667   9.671  21.082 -0.0098 -0.1320  0.6250
89028W        W89892  15.823  13.903  24.235 -0.0093 -0.1091 -0.0869
89029W        W89893  13.900  12.165  26.290  0.2140  0.0622  0.0238
89030W        W89894  12.305  14.642  26.757 -0.1194  0.0611 -0.0445
89031W        W89895  14.046   8.743  24.923  0.0906 -0.0076  0.0079
89032W        W89896  12.472  12.307  22.594  0.3226 -0.0139  0.1010
89033W        W89897  13.208  14.603  23.975  0.0223  0.3364  0.1815
89034W        W89898  13.397  15.353  21.387  0.3010  0.1332 -0.0986
89035W        W89899  11.094  13.613  23.433 -0.2283 -0.2358 -0.1649
89036W        W89900  13.506  11.952  26.675  0.1172 -0.0910  0.0198
89037W        W89901  13.654  13.764  23.927  0.0791 -0.3161  0.1175
89038W        W89902  14.076  13.546  23.054 -0.0686  0.3838  0.2053
89039W        W89903  12.022  13.425  24.711 -0.1629  0.0666 -0.2254
89040W        W89904  13.105  12.068  23.894  0.3050  0.2191 -0.0314
89041W        W89905  16.207  12.674  21.679 -0.0181  0.1704  0.2944
89042W        W89906  12.940  14.726  19.009 -0.1604  0.2764 -0.2155
89043W        W89907  10.913  15.039  26.074 -0.1488 -0.0242 -0.2725
89044W        W89908  12.125  11.994  23.219 -0.0955  0.0885 -0.0957
89045W        W89909  16.106  13.148  23.620 -0.2365 -0.0668 -0.0693
89046W        W89910  14.563  11.613  22.886 -0.0144 -0.1327 -0.1318
89047W        W89911  14.556   9.607  26.660 -0.0849  0.1571  0.0568
89048W        W89912  14.197  16.083  22.775 -0.4273  0.2498  0.0878
89049W        W89913  12.105  12.333  22.243  0.0459  0.3304 -0.1019
89050W        W89914  11.987  11.919  22.594  0.1160  0.2320  0.0603
89051W        W89915  11.473  12.422  24.013 -0.1271  0.3099 -0.0526
89052W        W89916  11.624  11.940  24.109  0.2506  0.0331  0.1129
89053W        W89917  17.285  17.041  24.828 -0.2796 -0.2155  0.0828
89054W        W89918  15.325  14.117  21.383  0.0129 -0.0997 -0.0867
89055W        W89919  17.973  13.999  23.707  0.0206 -0.1329  0.1328
89056W        W89920  14.698  15.086  21.872 -0.0620 -0.0267 -0.2366
89057W        W89921  10.317  11.909  24.475  0.0409 -0.0571  0.3111
89058W        W89922  12.790  12.341  24.481  0.0851  0.0568  0.2906
89059W        W89923  10.686  13.212  22.068  0.0715  0.1242 -0.3292
89060W        W89924  13.133  13.167  22.901  0.3601 -0.2023  0.3861
89061W        W89925  13.886  11.889  21.809  0.2188  0.2663  0.0429
89062W        W89926  14.626  14.000  23.716 -0.1369  0.0307 -0.2287
89063W        W89927  12.819  15.037  20.600  0.0070 -0.0030 -0.1436
89064W        W89928  16.570  16.523  22.351  0.2239 -0.0442  0.2814
89065W        W89929   9.839  12.117  24.169 -0.3566 -0.1597  0.1534
89066W        W89930  14.095  11.987  25.046  0.0604 -0.0073 -0.2413
89067W        W89931  15.676  11.972  22.966 -0.2278 -0.1225 -0.0758
89068W        W89932  12.017   9.092  24.430  0.1316  0.2656  0.3970
89069W        W89933  18.632  15.128  22.013 -0.1263 -0.0828  0.1031
89070W        W89934  15.964  14.772  21.436 -0.0427  0.2184 -0.1219
89071W        W89935  12.006  10.654  22.665 -0.1891 -0.2449  0.0752
89072W        W89936  14.836  14.386  23.328  0.0107  0.3574 -0.3920
89073W        W89937  12.766  12.972  21.830  0.0663 -0.0602  0.0626
89074W        W89938  14.352  14.835  26.263 -0.0315 -0.0553  0.1595
89075W        W89939  12.985  12.266  22.552  0.0962  0.0354 -0.0797
89076W        W89940  14.534  12.635  26.017 -0.4757  0.1182  0.2335
89077W        W89941  10.440  11.764  25.231 -0.1385 -0.0097  0.0767
89078W        W89942  14.266  11.378  24.646 -0.1022 -0.0799 -0.1462
89079W        W89943  14.808  12.191  27.342 -0.0483 -0.3373 -0.3562
89080W        W89944  13.777  18.027  18.695  0.1399  0.2343  0.0157
89081W        W89945  11.075  15.068  24.756  0.0742  0.1900  0.4536
89082W        W89946  11.994  12.864  24.771 -0.1470 -0.2319  0.1449
89083W        W89947  11.688  12.265  22.864  0.0027 -0.1687 -0.3374
89084W        W89948  11.035  14.926  23.887 -0.3207 -0.2678 -0.1460
89085W        W89949  12.836  13.159  21.282 -0.0170 -0.0758 -0.0733
89086W        W89950  12.573  11.683  26.789  0.0656 -0.0388  0.1793
89087W        W89951  11.942  14.867  23.825 -0.2161  0.2276 -0.0171
89088W        W89952  14.864  12.543  24.566 -0.1179 -0.1082 -0.1838
89089W        W89953  14.705  16.329  25.419  0.0948 -0.0615 -0.2867
89090W        W89954  14.374  13.394  24.323 -0.1166 -0.1094  0.1353
89091W        W89955  14.713  13.719  22.041  0.0546  0.1124  0.0004
89092W        W89956  15.137  12.359  25.543  0.0387  0.0925  0.0809
89093W        W89957  10.213  11.445  23.471  0.0722 -0.0801  0.0404
89094W        W89958  12.394  15.506  22.643  0.3686  0.0304  0.0751
89095W        W89959   9.350  11.272  23.100  0.2892  0.1346 -0.0294
89096W        W89960  13.662  14.178  24.558 -0.0874 -0.0515  0.4412
89097W        W89961  13.739  11.468  24.391  0.0083  0.0992 -0.1669
89098W        W89962  12.662  11.088  24.113 -0.2614  0.1701 -0.0246
89099W        W89963  15.079  13.527  22.843  0.2444  0.2668 -0.2024
89100W        W89964   9.465  11.903  20.481  0.1053  0.1240 -0.1025
89101W        W89965  13.790  10.618  25.189 -0.3607 -0.0977  0.2872
89102W        W89966  13.392  14.273  23.098 -0.0165 -0.2102  0.0196
89103W        W89967  11.238  12.395  24.859  0.3356  0.2003  0.1964
89104W        W89968  13.984  12.925  25.938  0.0105 -0.1254 -0.0615
89105W        W89969  14.006  13.356  26.169  0.1267 -0.1928 -0.2339
89106W        W89970  17.327   8.954  26.255 -0.2432 -0.1166  0.1507
89107W        W89971  12.883  12.286  23.469 -0.1170  0.1790 -0.0620
89108W        W89972  12.448  14.894  24.505 -0.0795  0.3292 -0.2085
89109W        W89973  10.920  13.014  23.490  0.0550  0.0559 -0.2742
89110W        W89974  12.763  14.041  26.387 -0.1986 -0.0182  0.1547
89111W        W89975  14.196  12.947  24.149  0.2497 -0.0680  0.0451
89112W        W89976  12.753  14.538  24.740 -0.1131  0.2164 -0.1559
89113W        W89977  14.356  13.436  27.090  0.0556 -0.0504 -0.1664
89114W        W89978  14.830  12.775  23.186 -0.0261  0.2764  0.2481
89115W        W89979  12.587  15.462  23.258 -0.0258  0.0989 -0.4226
89116W        W89980  14.655  11.616  24.460 -0.0922 -0.0988 -0.3132
89117W        W89981  14.862  12.294  23.219  0.1669 -0.0272 -0.2132
89118W        W89982   8.910  15.858  24.212  0.0207 -0.2242  0.4501
89119W        W89983  10.387  14.571  25.172  0.0581 -0.3120 -0.1117
89120W        W89984  10.296  13.480  22.338  0.0559 -0.0696 -0.1428
89121W        W89985  14.622  12.069  25.501 -0.1120 -0.0885 -0.0047
89122W        W89986  12.013  14.687  23.370 -0.1349 -0.1764 -0.0736
89123W        W89987  13.647  15.070  23.323 -0.0705  0.2648  0.1937
89124W        W89988  13.852  12.350  23.393 -0.1226 -0.0018 -0.1985
89125W        W89989  12.307  12.135  25.974  0.0143  0.2868  0.2101
89126W        W89990  11.820  14.054  21.281 -0.0405  0.0361  0.1362
89127W        W89991  14.778  14.102  22.823  0.2202  0.2328 -0.0794
89128W        W89992  11.503  11.317  20.879 -0.0603  0.0900  0.2195
89129W        W89993  10.193  11.774  23.017 -0.3295  0.0759 -0.1649
89130W        W89994  11.882  14.916  24.289 -0.1672  0.2146  0.0294
89131W        W89995  13.874  16.191  26.194  0.1667  0.1213  0.0487
89132W        W89996  12.942  14.418  22.659 -0.1191 -0.1414  0.1800
89133W        W89997  13.667  10.774  23.565 -0.1833 -0.0207  0.1576
89134W        W89998  12.383  12.119  26.439  0.0075 -0.3152 -0.0403
89135W        W89999  13.241   9.504  25.404  0.1222 -0.2293 -0.1639
89136W        W90000  15.802  14.146  23.817  0.0818  0.0733  0.4010
89137W        W90001  11.135   9.691  21.976 -0.0715  0.1288 -0.1321
89138W        W90002  15.209  11.827  22.579  0.0397 -0.0922 -0.0026
89139W        W90003  13.239   9.495  25.965  0.0879  0.0672  0.1211
89140W        W90004  12.558  13.129  24.517 -0.1259  0.0160 -0.1250
89141W        W90005  12.645  12.608  22.242 -0.2068 -0.0026  0.0831
89142W        W90006  10.409  12.756  24.662 -0.0780 -0.0399  0.1636
89143W        W90007  12.381  10.205  24.232  0.0448  0.2210  0.3433
89144W        W90008  14.409  13.061  23.173  0.3169  0.0337  0.1551
89145W        W90009  12.234  10.505  21.652  0.3787 -0.2940 -0.2114
89146W        W90010  11.816  11.971  25.928 -0.1665 -0.0250 -0.1023
89147W        W90011  11.206  12.822  25.209  0.2335 -0.1363  0.3032
89148W        W90012  11.162  12.105  24.401  0.1606 -0.0112  0.0712
89149W        W90013  12.821  13.121  24.068  0.0198 -0.0538 -0.2910
89150W        W90014  11.475  12.882  24.712  0.2180 -0.0929  0.1021
89151W        W90015  12.071  11.356  24.236  0.3065  0.1872 -0.1110
89152W        W90016   9.813  12.625  24.475 -0.4328 -0.3549 -0.1643
89153W        W90017  12.463  12.680  24.288  0.0537 -0.5591 -0.1330
89154W        W90018  13.653  12.232  25.303 -0.0963  0.1472 -0.0158
89155W        W90019  13.952   9.867  27.932 -0.0378  0.0255  0.1799
89156W        W90020  13.685  13.471  24.815 -0.2362 -0.1406  0.1345
89157W        W90021  15.151  12.981  22.162  0.2323  0.0261 -0.0201
89158W        W90022  13.548  12.763  22.122 -0.4083 -0.2318 -0.1080
89159W        W90023  12.321  10.939  22.426 -0.1544 -0.0534  0.0707
89160W        W90024  14.337  11.685  24.054  0.1480 -0.2902 -0.0529
89161W        W90025  11.363  14.789  25.259 -0.2902 -0.3330 -0.1058
89162W        W90026  14.146  11.087  22.286  0.1743 -0.2026 -0.0701
89163W        W90027  13.762  13.248  25.692  0.0783 -0.1085  0.1402
89164W        W90028  12.787  13.447  25.239 -0.2382 -0.2369  0.3410
89165W        W90029  13.121  11.464  22.970  0.3436 -0.1719 -0.1372
89166W        W90030  12.095  13.147  23.005  0.1125 -0.0240 -0.1686
89167W        W90031  11.679  11.698  24.932  0.0983 -0.3115  0.3362
89168W        W90032  14.860  13.431  26.414  0.2384 -0.1526  0.3155
89169W        W90033  11.207  12.274  22.023 -0.1204 -0.4063 -0.0471
89170W        W90034  13.291  14.890  23.047  0.1662  0.0626 -0.1981
89171W        W90035  11.976  12.308  24.173 -0.0451  0.2230 -0.2277
89172W        W90036  11.385  11.311  26.962  0.0888  0.0433  0.2939
89173W        W90037  13.048  12.717  28.084 -0.0927  0.0644  0.0327
89174W        W90038  13.491  16.405  25.921 -0.1122 -0.2340 -0.0213
89175W        W90039  13.659  14.215  22.617 -0.2240  0.1352  0.2641
89176W        W90040  11.132  10.441  25.192 -0.1788  0.0012  0.1793
89177W        W90041  16.247  17.341  22.425  0.0334 -0.1659 -0.1399
89178W        W90042  12.800  12.737  22.723  0.0951  0.1968  0.2639
89179W        W90043  14.031   9.760  26.493 -0.2349  0.3503  0.1069
89180W        W90044  15.383  14.688  24.083 -0.3007  0.0514  0.1291
89181W        W90045  18.243  14.152  22.822  0.0448 -0.2219  0.1053
89182W        W90046  12.073  13.800  23.689  0.0888 -0.3451  0.3036
89183W        W90047  11.089  12.681  27.489  0.0992 -0.1081 -0.3721
89184W        W90048  14.799  11.066  25.111  0.1120  0.0082 -0.1232
89185W        W90049  11.850  11.644  23.596  0.0653  0.1791  0.1800
89186W        W90050  13.137  11.985  24.640  0.0536 -0.0910  0.0460
89187W        W90051  12.369  12.445  23.637  0.2577 -0.0322 -0.0509
89188W        W90052  14.250  14.757  24.706  0.0558  0.0198  0.1078
89189W        W90053  13.347  15.398  27.334  0.2499 -0.1540 -0.3368
89190W        W90054  14.567  14.668  21.663  0.2358  0.0771 -0.1132
89191W        W90055  12.502  12.715  24.786 -0.0050  0.0129  0.0660
89192W        W90056  13.920  16.840  24.181 -0.3919 -0.1412  0.5072
89193W        W90057  14.377  16.861  26.891  0.1165 -0.2964 -0.1244
89194W        W90058  14.510  10.939  26.512  0.1406 -0.0667  0.1101
89195W        W90059  11.487  13.781  25.509 -0.0020 -0.0465 -0.3589
89196W        W90060   9.800  16.027  21.607  0.2592 -0.1746 -0.0680
89197W        W90061  14.571  17.078  21.540  0.2736  0.0829 -0.1920
89198W        W90062  15.772  12.283  26.605  0.1598 -0.0065  0.2519
89199W        W90063  11.926  14.114  25.969  0.3768 -0.0510 -0.0039
89200W        W90064  13.605  15.965  21.510 -0.1222 -0.3758  0.0078
89201W        W90065  14.239  11.640  22.438 -0.1095  0.0532 -0.2992
89202W        W90066  10.216  10.637  23.903  0.3353 -0.0603 -0.1462
89203W        W90067  14.817  10.146  24.772  0.1195 -0.0479 -0.0594
89204W        W90068  13.361  14.140  24.026 -0.0195  0.1490 -0.1963
89205W        W90069  15.304  12.431  26.393  0.3702 -0.0948  0.1434
89206W        W90070  10.544  13.676  23.138  0.2753  0.0237  0.1314
89207W        W90071  12.592  14.459  26.140 -0.0757  0.1914 -0.0075
89208W        W90072  10.954  10.934  21.262  0.4459  0.1822 -0.0036
89209W        W90073  17.854  13.792  22.635 -0.0742 -0.0660 -0.0761
89210W        W90074  13.247  13.431  25.529 -0.2297  0.2444 -0.0268
89211W        W90075  15.761  11.666  23.619  0.0210 -0.0171 -0.0060
89212W        W90076  13.558  12.758  23.450 -0.0757 -0.1211 -0.2115
89213W        W90077  14.063  12.420  25.897  0.0538  0.1049 -0.1424
89214W        W90078  14.182  13.989  25.436 -0.1680  0.0993  0.0726
89215W        W90079  11.319  14.228  24.422 -0.0544 -0.0717 -0.3806
89216W        W90080  17.280  13.917  23.881 -0.0808 -0.1512 -0.1770
89217W        W90081  14.071  11.074  26.885  0.2640  0.0207 -0.0660
89218W        W90082  12.540  10.410  27.498 -0.4078  0.0448  0.2133
89219W        W90083  13.092  13.866  24.696  0.2281  0.1460 -0.2252
89220W        W90084  10.383  11.033  21.496  0.0314 -0.0928  0.1007
89221W        W90085  13.548  15.515  24.625 -0.7122  0.1240 -0.1398
89222W        W90086  11.867  10.716  25.392 -0.2029  0.1401 -0.0154
89223W        W90087  11.606  12.386  24.530  0.0001  0.0995 -0.4646
89224W        W90088  14.389  12.406  24.569 -0.2380 -0.2427  0.1280
89225W        W90089  11.944  17.461  23.578 -0.2307  0.2791  0.1378
89226W        W90090  15.058  14.536  20.977 -0.0654 -0.0672  0.1733
89227W        W90091  15.231  11.499  26.479 -0.1903 -0.1588 -0.1184
89228W        W90092  14.439  13.216  22.192 -0.1280  0.1437 -0.0137
89229W        W90093  10.725  11.012  24.217  0.1230  0.3436  0.0139
89230W        W90094  15.925  12.954  24.608 -0.0756 -0.1188  0.2274
89231W        W90095  15.708  12.861  23.403  0.0233 -0.0441  0.0636
89232W        W90096  12.847  14.199  18.058 -0.1021 -0.0125 -0.0242
89233W        W90097  16.658   9.362  21.530  0.0877  0.0069 -0.0186
89234W        W90098  11.560  12.728  23.653 -0.0511  0.1752  0.3649
89235W        W90099  12.060  13.045  24.327 -0.3073 -0.2942  0.1596
89236W        W90100  10.615  11.561  23.831 -0.3848 -0.0323 -0.0506
89237W        W90101  14.892  14.098  21.146 -0.1384  0.0651  0.0419
89238W        W90102  13.402  13.426  26.006 -0.1463  0.0031 -0.1098
89239W        W90103  14.099  14.346  24.428  0.1069 -0.3213 -0.0660
89240W        W90104  13.447  11.411  25.869  0.1050 -0.0439  0.2350
89241W        W90105  11.695  14.441  23.088  0.0245 -0.0400 -0.2791
89242W        W90106   8.449  14.433  23.017  0.0510 -0.0274  0.1453
89243W        W90107  10.639  10.788  22.541 -0.0797  0.2660  0.0702
89244W        W90108  12.640  13.208  27.534  0.1621  0.1763 -0.1129
89245W        W90109  14.999  12.485  23.674 -0.1734  0.0788  0.1163
89246W        W90110  14.395  11.921  22.032 -0.0189 -0.0087  0.2517
89247W        W90111  13.455  15.551  23.783 -0.1938 -0.1914 -0.1684
89248W        W90112  13.248  12.995  23.765 -0.1338 -0.0509 -0.0666
89249W        W90113  12.654  12.884  23.246  0.0922 -0.1660  0.1552
89250W        W90114  13.905  11.954  24.220  0.0124  0.2069  0.0272
89251W        W90115  12.087   9.902  25.276 -0.2115  0.1325  0.1477
89252W        W90116  13.104  10.682  21.331 -0.3001  0.2257  0.0714
89253W        W90117  13.883  14.426  25.454 -0.1535  0.0791 -0.0067
89254W        W90118  14.768  10.385  23.817 -0.0176  0.2438  0.2841
89255W        W90119  10.781  12.492  25.077  0.2702 -0.2604 -0.0237
89256W        W90120  11.781  10.911  24.088  0.3291  0.0509  0.3298
89257W        W90121  13.950  13.509  25.282 -0.1201 -0.0368  0.0624
89258W        W90122  13.407  13.244  21.244  0.0628  0.0735  0.0366
89259W        W90123  16.425  12.614  22.175  0.2117  0.1589 -0.0860
89260W        W90124  12.464  15.449  23.781  0.2440 -0.0592  0.4085
89261W        W90125  10.359  11.034  24.641 -0.0234  0.1671  0.0975
89262W        W90126  13.228  15.174  22.648 -0.1112  0.4099 -0.0244
89263W        W90127  12.191  14.943  22.473 -0.0614  0.3283 -0.1308
89264W        W90128   9.406  15.639  26.804  0.0010 -0.1516 -0.2190
89265W        W90129  16.525  16.179  25.092 -0.1476  0.2614 -0.1024
89266W        W90130  10.665  13.252  23.980  0.1993  0.0037 -0.1355
89267W        W90131  16.579  13.107  23.298  0.1006 -0.1592  0.0500
89268W        W90132  10.921  12.416  24.003  0.2146 -0.1223  0.1626
89269W        W90133  11.031  11.737  21.588 -0.1272 -0.0665  0.1079
89270W        W90134  12.924  11.307  22.106 -0.1423  0.1935  0.0067
89271W        W90135  13.193  13.578  23.930 -0.1658  0.0389  0.1642
89272W        W90136  15.556  12.709  25.968 -0.1187  0.2007  0.0029
89273W        W90137  14.022  10.823  21.443 -0.1639 -0.1701 -0.1104
89274W        W90138  16.030  13.275  24.971 -0.1350  0.2338  0.0258
89275W        W90139  13.605  15.197  24.996  0.2228  0.2217 -0.0273
89276W        W90140  16.453  11.269  23.957  0.4842 -0.2019 -0.1228
89277W        W90141  18.293  15.103  22.972  0.1862  0.1637  0.0536
89278W        W90142  13.045  13.860  25.284 -0.2676 -0.3148 -0.3312
89279W        W90143  19.080  14.337  21.610  0.1180  0.3841 -0.1761
89280W        W90144  12.539  13.443  22.142 -0.2355 -0.1942 -0.1216
89281W        W90145  11.463  10.486  23.984 -0.2693  0.0449 -0.1343
89282W        W90146  14.755  14.018  25.601  0.1334 -0.1465  0.0666
89283W        W90147  10.880  11.887  22.717  0.0267  0.3332 -0.4456
89284W        W90148  12.784  12.083  20.977  0.1489  0.2947 -0.0057
89285W        W90149   9.194  13.041  26.313  0.4068  0.1329 -0.0401
89286W        W90150  14.729  12.998  24.159 -0.0572  0.4636  0.0793
89287W        W90151  12.057  13.212  23.840  0.0365  0.1029  0.3483
89288W        W90152   9.109  12.931  21.948  0.1440 -0.4073  0.2393
89289W        W90153  12.224  12.799  22.419  0.0539  0.2521 -0.2023
89290W        W90154  14.391  12.134  22.543  0.1273 -0.1762  0.2557
89291W        W90155  13.995  10.499  21.848 -0.0951 -0.0294  0.2673
89292W        W90156  12.849  15.113  22.953 -0.1139  0.1248  0.0359
89293W        W90157  15.380  11.562  22.243 -0.1325 -0.0163  0.0539
89294W        W90158  16.966  17.039  24.451  0.0807  0.0187  0.1554
89295W        W90159  14.887  15.541  23.168 -0.3282  0.0835  0.1208
89296W        W90160  11.100  13.359  23.801  0.1556 -0.1083  0.0044
89297W        W90161  15.827  13.900  20.564  0.1276 -0.1329  0.0796
89298W        W90162  13.281  15.164  26.496 -0.2832  0.0710  0.0554
89299W        W90163  15.216  10.345  25.475 -0.0228  0.1214  0.5386
89300W        W90164  11.321  10.812  27.192  0.2892 -0.2385  0.0561
89301W        W90165  10.255  12.540  23.356 -0.0204 -0.2741 -0.1260
89302W        W90166  13.443  13.749  23.340 -0.2427  0.0684 -0.1602
89303W        W90167  12.034  11.197  23.759 -0.0116  0.2407  0.0095
89304W        W90168  11.179  14.734  25.728  0.3354 -0.0886 -0.2070
89305W        W90169  12.074  11.293  21.946  0.2074  0.0021  0.0543
89306W        W90170  13.627  16.010  24.372  0.1973  0.2857 -0.0715
89307W        W90171  16.150  15.752  20.997  0.0041 -0.1530 -0.0851
89308W        W90172  15.753  15.924  22.000 -0.2253 -0.1246 -0.0786
89309W        W90173  15.801  14.787  23.179 -0.0997  0.1767  0.1595
89310W        W90174  10.654  11.665  20.016 -0.0012 -0.0197 -0.0182
89311W        W90175  14.484  10.958  24.753 -0.2352 -0.1331  0.0208
89312W        W90176  12.358  14.167  20.241 -0.2383  0.1977 -0.0254
89313W        W90177  13.914  13.169  22.113 -0.0150 -0.0450  0.1227
89314W        W90178  13.360  15.568  22.329 -0.1353  0.0629 -0.1823
89315W        W90179  14.407  14.714  26.755 -0.0685 -0.1504 -0.2749
89316W        W90180  16.130  11.343  22.574  0.1539  0.0052  0.1625
89317W        W90181  12.343   9.879  25.849  0.1262  0.0283  0.0925
89318W        W90182  12.887  13.744  24.303  0.0089  0.0494 -0.2523
89319W        W90183  13.502  15.127  28.593  0.1628 -0.0422  0.0784
89320W        W90184  15.010  14.512  21.531  0.0567  0.0630 -0.0085
89321W        W90185  12.442  13.379  26.604 -0.2503 -0.1716 -0.0217
89322W        W90186  15.125  14.753  23.483 -0.0673 -0.0495  0.1104
89323W        W90187  11.368  12.711  27.041 -0.1177  0.1776  0.2413
89324W        W90188  11.838  14.140  25.487  0.1158  0.0111 -0.0291
89325W        W90189  12.680  12.143  21.969 -0.2528 -0.3120 -0.1135
89326W        W90190  13.539  12.587  23.913 -0.3434 -0.0968 -0.1685
89327W        W90191  15.421  10.461  25.005  0.2517 -0.0664  0.1227
89328W        W90192  14.887  15.266  23.581 -0.1169 -0.1128  0.0576
89329W        W90193  12.216  15.753  23.424 -0.1639  0.1741  0.2454
89330W        W90194  12.044  16.125  23.171 -0.0532 -0.2773 -0.1927
89331W        W90195  14.849  13.279  23.386 -0.1802  0.2276  0.0079
89332W        W90196  11.931  11.184  25.026  0.2134  0.1031 -0.1823
89333W        W90197  11.189  14.344  22.937  0.2623 -0.1503  0.0216
89334W        W90198  13.522  13.113  21.679 -0.4873 -0.3326  0.1874
89335W        W90199  15.130  13.247  24.000  0.0104 -0.3133 -0.0393
89336W        W90200  14.371  14.006  23.143 -0.1431  0.0375  0.0679
89337W        W90201  12.169  14.302  26.390 -0.0235 -0.0252  0.2905
89338W        W90202  13.734  13.186  23.025 -0.2893 -0.1244  0.2211
89339W        W90203  12.944  13.248  25.880 -0.0694 -0.0390  0.1447
89340W        W90204   9.821  13.671  23.058 -0.0097  0.0913 -0.2723
89341W        W90205  13.140  12.748  23.234  0.2579 -0.0894  0.2776
89342W        W90206   9.732  14.369  26.454 -0.2982 -0.1942 -0.0474
89343W        W90207  11.500  11.228  28.919  0.2607 -0.2145  0.2075
89344W        W90208  12.393  13.888  26.083 -0.1843  0.2888 -0.3928
89345W        W90209  14.388  14.538   1.422 -0.0877  0.1386  0.1303
89346W        W90210  13.267  15.204  25.440  0.4622 -0.1032  0.1746
89347W        W90211  12.862  11.944  27.102  0.0711 -0.3618 -0.0841
89348W        W90212  14.812  11.585  25.394 -0.0666 -0.3058  0.0979
89349W        W90213  11.097  11.748  26.766  0.0046 -0.1017  0.1890
89350W        W90214  13.712  12.256  28.128  0.2184  0.0883  0.2011
89351W        W90215  11.552  12.104  28.519  0.1023  0.0928 -0.3061
89352W        W90216  12.638   9.943  28.865  0.0312  0.1538  0.0842
89353W        W90217  11.941  11.323  27.743 -0.1497 -0.0328 -0.1406
89354W        W90218  14.040  12.843  24.687 -0.0130  0.1153  0.1659
89355W        W90219  15.467  11.549  28.634 -0.0826 -0.0684 -0.1994
89356W        W90220   9.528  12.418   0.080  0.2077 -0.1568 -0.0998
89357W        W90221  11.865  14.723   1.714 -0.1202  0.5526  0.2976
89358W        W90222  13.287  13.450  25.087  0.2452 -0.2188  0.2018
89359W        W90223   9.856  12.017  26.313 -0.2430 -0.1603  0.0130
89360W        W90224  12.739  14.900   1.371 -0.2739  0.2438 -0.0652
89361W        W90225  14.146  11.425  27.490 -0.0041 -0.1614  0.3395
89362W        W90226  12.784  12.309  26.033 -0.0906  0.1845  0.0609
89363W        W90227  13.403  10.343  28.866  0.1484  0.4395  0.0269
89364W        W90228  13.236  13.507  28.703 -0.3734 -0.0469 -0.2705
89365W        W90229   9.573  12.696  27.653 -0.1689  0.1064  0.2305
89366W        W90230  10.592  14.006  28.008 -0.1661  0.3266 -0.1079
89367W        W90231  10.671  10.591  28.937 -0.2936 -0.1459  0.2020
89368W        W90232  15.459  10.924   0.207 -0.1396 -0.4608  0.0350
89369W        W90233  12.195  11.560  24.713 -0.0593 -0.1415  0.2523
89370W        W90234  13.912  13.720  25.871  0.3795  0.0952 -0.2024
89371W        W90235   9.871  13.708  27.620  0.1134  0.0575  0.2328
89372W        W90236  11.263  10.835  27.771 -0.0322  0.3614  0.0932
89373W        W90237  14.795  12.145  26.814 -0.0948  0.0256  0.2465
89374W        W90238  13.453  12.638  28.413 -0.4850 -0.0768  0.0903
89375W        W90239  11.815  11.484  26.582  0.0905 -0.0352 -0.1696
89376W        W90240  13.436  10.458   1.293 -0.0812 -0.0541 -0.1136
89377W        W90241  13.552  12.962  26.237  0.3222 -0.2941  0.2613
89378W        W90242  12.876  11.370  28.113  0.0156  0.0567  0.2113
89379W        W90243  11.215  13.640  27.084  0.0467  0.1211 -0.0771
89380W        W90244  13.654  12.780  27.978  0.1055  0.3133  0.3866
89381W        W90245  12.998  12.042  26.485  0.2891 -0.1349  0.0892
89382W        W90246  15.367  12.782  27.756 -0.0632 -0.1556 -0.1261
89383W        W90247  12.623  14.227   0.246 -0.1303 -0.0660 -0.1925
89384W        W90248  12.177  14.861  24.933 -0.1224 -0.1058  0.3368
89385W        W90249  16.489  13.828  25.523 -0.0106  0.0502  0.0616
89386W        W90250  10.905  15.390  27.871  0.2699 -0.2072  0.2268
89387W        W90251  12.243  13.604  25.105  0.1010  0.2289 -0.1582
89388W        W90252  12.403  10.219  27.007  0.0849 -0.2236  0.0723
89389W        W90253  12.573  10.939  26.766 -0.3637  0.0315 -0.2295
89390W        W90254  16.270  13.328  27.777 -0.0640  0.0589 -0.0202
89391W        W90255  12.997  14.899  27.193  0.0075  0.1873  0.1590
89392W        W90256  12.918  14.797  25.178 -0.2310  0.2716 -0.0781
89393W        W90257  11.578   9.368  27.421 -0.1622 -0.1878  0.1532
89394W        W90258  14.357  12.212  26.572  0.2176  0.1835  0.1241
89395W        W90259  11.845  12.462  25.721  0.0379 -0.2322 -0.0368
89396W        W90260  12.618  10.906  27.978  0.3705 -0.1062  0.0730
89397W        W90261   8.751  14.491  25.748 -0.1325  0.4526  0.1767
89398W        W90262  14.924  10.880  28.031  0.2772  0.3121 -0.0193
89399W        W90263  15.997   9.473  28.447 -0.1927  0.0566  0.2243
89400W        W90264  12.582  12.580  26.374 -0.0556 -0.3315  0.1974
89401W        W90265  12.828  15.227  25.968 -0.0985 -0.1175 -0.0621
89402W        W90266  11.489  12.458   0.831 -0.1545  0.1080 -0.0899
89403W        W90267  12.441  12.862  27.088 -0.0820 -0.0414 -0.2439
89404W        W90268  12.450   9.871  27.382  0.0295  0.1686  0.1125
89405W        W90269  12.905  11.874  28.068  0.2057  0.1299 -0.1240
89406W        W90270  15.869  11.595   0.166  0.1382 -0.0066 -0.0246
89407W        W90271  10.816  10.169  26.189 -0.0230  0.0493 -0.3356
89408W        W90272  10.702  12.191  28.049  0.0345  0.4752  0.2329
89409W        W90273  10.869  13.410  25.180 -0.2856  0.2840 -0.0342
89410W        W90274  12.084  10.785  26.663  0.4198  0.0418 -0.3400
89411W        W90275  14.743  14.560  26.373 -0.1175  0.3501  0.1854
89412W        W90276  14.577  11.772  28.414  0.2706  0.1437 -0.0491
89413W        W90277  11.707  12.528  27.560 -0.1438 -0.1675 -0.0809
89414W        W90278  16.309   9.882   0.626  0.0176  0.2120 -0.1214
89415W        W90279  13.963  13.845  27.867 -0.2126  0.2074 -0.1726
89416W        W90280  14.051  13.305   0.404 -0.3605 -0.1959  0.1143
89417W        W90281  10.693  11.106  25.718  0.0600 -0.2870 -0.2478
89418W        W90282  11.288   9.915  28.359  0.0323 -0.1577 -0.0572
89419W        W90283  12.526  13.445  28.205 -0.1177 -0.0746  0.1483
89420W        W90284  11.642  14.335  26.345  0.2390  0.1498 -0.0922
89421W        W90285   9.822  12.517   2.468  0.0226  0.1278  0.0379
89422W        W90286  11.237  12.553  28.727 -0.1397  0.0744 -0.2858
89423W        W90287  12.245  10.733  27.135  0.0563 -0.1051  0.2438
89424W        W90288  13.563  12.480  26.483  0.0072 -0.0384 -0.0047
89425W        W90289  10.467  10.090  28.864 -0.3868  0.0588  0.3219
89426W        W90290  13.108  13.147  26.308  0.1255  0.0938 -0.2944
89427W        W90291  13.127  11.931   1.891 -0.0941 -0.0284 -0.1697
89428W        W90292  13.190   9.932  28.586  0.1860 -0.0551  0.1986
89429W        W90293  13.695  13.866  28.699  0.2843  0.0220  0.0119
89430W        W90294  13.644  10.175   0.640 -0.0548 -0.1779  0.1050
89431W        W90295  14.422  12.416  27.091 -0.2083  0.0926 -0.3488
89432W        W90296  13.385  13.711   2.552 -0.2153  0.4251  0.1389
89433W        W90297  11.499  11.582  28.519 -0.1867  0.3913 -0.1104
89434W        W90298  13.131  10.285  28.167 -0.0316 -0.1027 -0.0041
89435W        W90299  10.352   8.985  27.756 -0.1221 -0.0037 -0.0201
89436W        W90300  16.950  14.112  26.411 -0.1553 -0.0427  0.0496
89437W        W90301  14.793  14.071  28.140 -0.0487  0.1856 -0.3221
89438W        W90302  13.407  14.414   0.924 -0.0577  0.2984 -0.1676
89439W        W90303  12.301  11.264  27.211 -0.0538 -0.0195  0.1834
89440W        W90304  15.485  12.215  25.865 -0.0654 -0.1013 -0.1443
89441W        W90305  17.398  16.927  28.129 -0.4341 -0.1349 -0.3255
89442W        W90306  12.321  15.798  28.462  0.1338 -0.1387 -0.4160
89443W        W90307  13.591  14.112  25.973  0.0722  0.0095  0.2253
89444W        W90308  13.311  10.386  27.291  0.1405 -0.0878  0.3979
89445W        W90309  11.501   8.874   1.256  0.0048  0.2343  0.1063
89446W        W90310  14.110  11.454   1.857 -0.0170  0.3855 -0.2071
89447W        W90311  11.238  15.208  27.475  0.2965  0.1953  0.0938
89448W        W90312  11.970  11.383   0.753 -0.0679 -0.1104  0.2395
89449W        W90313  12.590  10.674   0.311 -0.0234  0.2154  0.0528
89450W        W90314  10.562  12.917  28.379 -0.1790  0.1052 -0.1610
89451W        W90315  10.256  10.345   1.306  0.1812 -0.1535 -0.0311
89452W        W90316  13.579  14.718  25.776  0.0777  0.2011 -0.0274
89453W        W90317  13.364  12.932  25.758  0.1431 -0.4395 -0.1001
89454W        W90318  12.373  14.915  26.226  0.1515 -0.0832  0.2133
89455W        W90319  16.097  13.520  25.438  0.3138 -0.0968 -0.1522
89456W        W90320  14.262  10.343  28.154 -0.1211 -0.0714  0.0336
89457W        W90321  13.556  13.297   0.268  0.1757  0.0286 -0.1672
89458W        W90322  12.770  13.719   0.206 -0.1031  0.1417  0.1655
89459W        W90323  13.264   9.919   0.882  0.0106 -0.0697 -0.1896
89460W        W90324  15.891  12.562  27.039  0.1096  0.0686  0.0058
89461W        W90325  14.793  13.500  25.651 -0.2794 -0.1023  0.0603
89462W        W90326  15.161  14.332  26.567 -0.0857 -0.0295  0.0666
89463W        W90327  11.230  12.198  27.181 -0.2277 -0.0463 -0.0693
89464W        W90328  12.831  15.546  25.199  0.0262  0.3265  0.2122
89465W        W90329  13.881  10.080  25.861  0.1506 -0.0483 -0.0725
89466W        W90330  13.743  11.710  28.803 -0.3061 -0.0220  0.3310
89467W        W90331   8.893  12.808  25.947  0.2167  0.3197 -0.0163
89468W        W90332  14.277  11.792   1.539  0.1607  0.0044  0.0620
89469W        W90333  15.250  14.791  28.185  0.2780 -0.0275 -0.6978
89470W        W90334  10.577  15.189  25.643  0.1844  0.0640  0.3777
89471W        W90335  11.686  14.867  27.652  0.0333 -0.1693  0.1411
89472W        W90336  11.014  11.392  28.403  0.2289 -0.0910  0.3724
89473W        W90337  10.409  13.609  27.804 -0.0670 -0.3023  0.3328
89474W        W90338  15.635  11.077  24.901  0.1929 -0.3324  0.1823
89475W        W90339  15.081  11.774   0.918 -0.2983 -0.2425  0.0291
89476W        W90340   9.602  10.324   0.516  0.2165 -0.0164  0.0526
89477W        W90341  13.336  11.330  27.873 -0.0635 -0.0208 -0.4067
89478W        W90342  12.478  12.176  28.564 -0.0331  0.1174 -0.0250
89479W        W90343  14.109  14.895  27.115  0.1641  0.3901  0.0481
89480W        W90344  12.095  12.984  26.550 -0.0356  0.1631 -0.0607
89481W        W90345  11.802  10.516  26.953  0.0104 -0.2540 -0.2279
89482W        W90346   9.803  11.383  28.754  0.1854 -0.1409  0.1727
89483W        W90347  13.651  11.817  24.696 -0.2026 -0.1418 -0.0959
89484W        W90348  14.732  13.108  25.296 -0.2181 -0.0961 -0.2476
89485W        W90349  10.463  13.123  27.853 -0.1839  0.1812 -0.1202
89486W        W90350  13.887  12.097  29.144  0.1161 -0.0533  0.1541
89487W        W90351  17.190  11.628  28.240 -0.0465  0.2834 -0.2211
89488W        W90352  13.587  12.410  27.150  0.0246 -0.0825  0.0679
89489W        W90353  11.686  12.368  27.014  0.0851  0.0677 -0.0372
89490W        W90354  11.492  13.218  26.899  0.1912 -0.1020 -0.1421
89491W        W90355  13.867  14.767  28.404 -0.0978 -0.0689  0.1081
89492W        W90356  13.941  10.066  25.315  0.0822  0.0068  0.1999
89493W        W90357  13.220  15.104  28.181 -0.0939  0.3924 -0.0616
89494W        W90358   9.883  12.967  25.893 -0.1914  0.0740 -0.0822
89495W        W90359  12.790  11.456  27.197 -0.3177 -0.1554 -0.0898
89496W        W90360  10.176  11.680  28.515 -0.0665  0.0921  0.1489
89497W        W90361  10.239  10.548  28.700  0.0682 -0.1639 -0.0187
89498W        W90362  14.293  14.321  23.509  0.1244 -0.1320  0.3630
89499W        W90363  12.599  12.194  24.926  0.1951 -0.0770  0.2046
89500W        W90364  11.717   9.150  27.031  0.1225  0.2798  0.1158
89501W        W90365  15.213  11.040   1.458 -0.1586 -0.2759  0.0177
89502W        W90366  12.984  12.221  28.437 -0.1186  0.0137  0.1533
89503W        W90367  12.075  11.740  28.598  0.1485  0.0612  0.1719
89504W        W90368  14.074  12.462  27.890  0.0593 -0.2930  0.0247
89505W        W90369  11.910  11.202  28.424 -0.1361 -0.2684  0.1393
89506W        W90370  11.952   7.729  28.906  0.2045  0.4344 -0.1356
89507W        W90371  10.205  10.719   0.135 -0.1971 -0.0686 -0.0091
89508W        W90372  11.847  14.490  27.324 -0.1480 -0.2423 -0.0295
89509W        W90373  11.112  14.674  27.861  0.4171  0.2041 -0.0038
89510W        W90374  13.085  12.994  25.359 -0.1329 -0.1489  0.3281
89511W        W90375  13.205  13.637   0.462  0.1966  0.3723  0.0241
89512W        W90376  14.534  14.037  27.281  0.3463  0.0218  0.0907
89513W        W90377  13.001  12.341   0.226 -0.0781 -0.1214  0.2866
89514W        W90378  11.910  16.073  24.906  0.0485  0.2631 -0.1008
89515W        W90379  12.442   9.281  28.392 -0.0663  0.0088  0.0096
89516W        W90380  13.663  12.655  25.020 -0.2344  0.1484 -0.0728
89517W        W90381  13.368  14.246  29.026 -0.0734 -0.1667 -0.0009
89518W        W90382  11.949  12.219  28.822  0.1209  0.2922 -0.1736
89519W        W90383  10.103  14.284  26.814  0.1302  0.0041  0.3330
89520W        W90384  11.023  10.329  27.621 -0.1020 -0.1045  0.0635
89521W        W90385  12.122  13.941  24.599  0.1434  0.0242  0.1894
89522W        W90386   9.762  14.666  26.811 -0.0571 -0.1551  0.0412
89523W        W90387  12.667  14.974  26.803 -0.0970  0.1730 -0.0232
89524W        W90388  11.639   9.559  28.001 -0.1223 -0.2508  0.0564
89525W        W90389  15.677  13.725  26.495  0.0419 -0.0421 -0.1654
89526W        W90390  13.049  12.257  27.455 -0.1034  0.0243 -0.0072
89527W        W90391  14.507  12.130  25.999  0.0480  0.0514 -0.6224
89528W        W90392  10.537   9.421  27.661 -0.1513 -0.3219 -0.0393
89529W        W90393  11.715  12.197  27.962 -0.0415 -0.0815  0.0141
89530W        W90394  10.729  11.770  27.096  0.0101 -0.2078  0.0418
89531W        W90395  12.635  13.556  24.774  0.0030 -0.0579 -0.0381
89532W        W90396   9.049  13.742  26.926  0.3743  0.0843 -0.2383
89533W        W90397  11.989  13.316   0.610 -0.0290  0.1777 -0.1206
89534W        W90398  10.916  11.793   1.269  0.1057 -0.1973 -0.2371
89535W        W90399  11.451  11.454   0.638 -0.0430 -0.0767  0.0854
89536W        W90400  13.088   9.256  27.277 -0.0262 -0.1752 -0.1865
89537W        W90401  12.296  11.353  28.155  0.3292 -0.0422  0.1374
89538W        W90402  10.314   8.877  26.806  0.1534  0.1250 -0.1556
89539W        W90403  11.688  11.095   1.166 -0.4492  0.0570 -0.0721
89540W        W90404  14.067  11.792  28.334  0.0541 -0.1148 -0.1260
89541W        W90405  11.445   9.589  26.848  0.0550  0.0100  0.1944
89542W        W90406  14.290  10.801  28.475 -0.1215  0.1672  0.1204
89543W        W90407  12.518  14.013  25.345 -0.0885 -0.1165  0.2281
89544W        W90408  11.304   9.954  28.827  0.2195 -0.2420 -0.1125
89545W        W90409  15.289  10.109  29.083 -0.0933 -0.4238 -0.0151
89546W        W90410  14.798  10.090  24.297  0.1536 -0.1297 -0.2348
89547W        W90411  10.588  11.479  26.092 -0.2972  0.3193 -0.1341
89548W        W90412  13.883  13.865  26.345 -0.1790  0.2506  0.0246
89549W        W90413  14.672  15.535  26.539 -0.0735 -0.3914  0.0262
89550W        W90414  12.667  12.609  29.095  0.0254 -0.2660 -0.0238
89551W        W90415  11.607  13.112  28.538 -0.2023 -0.0361 -0.1840
89552W        W90416  12.845  12.097  28.928  0.0582  0.5820  0.0285
89553W        W90417  11.413  12.645  27.975 -0.0615 -0.2765  0.2258
89554W        W90418  14.282  11.026  27.994 -0.3174  0.0003  0.2129
89555W        W90419  12.674  12.387  27.986  0.0914  0.3157  0.2101
89556W        W90420  15.326  11.832  26.908  0.3729  0.1921 -0.0583
89557W        W90421  14.244  11.806  28.837 -0.1731  0.2105  0.0791
89558W        W90422  14.849  11.996  23.647 -0.0235 -0.3145 -0.2132
89559W        W90423  12.719  12.360   2.104  0.0863 -0.0154 -0.0411
89560W        W90424  12.215  13.214  27.834 -0.1179  0.1181 -0.1334
89561W        W90425  13.050   8.846   1.478 -0.1860 -0.1192  0.5712
89562W        W90426  13.059  11.753   0.241  0.1017  0.0986 -0.2240
89563W        W90427  12.352  13.750   0.766  0.1914  0.0432 -0.3737
89564W        W90428  15.816  14.649  27.265  0.1173 -0.3553  0.0469
89565W        W90429  13.458  14.442  27.000 -0.1689  0.0497  0.3340
89566W        W90430  12.172  10.876  25.820 -0.2418 -0.4373 -0.1274
89567W        W90431   8.417  13.533  27.480 -0.3650  0.1480  0.1706
89568W        W90432  13.180  12.581   0.625  0.2858 -0.0624  0.0109
89569W        W90433  10.980  16.542  25.885  0.0190 -0.0558  0.1370
89570W        W90434  13.959  11.490  24.986  0.0685  0.2802 -0.2609
89571W        W90435  11.964  11.998   0.185 -0.2053 -0.1798 -0.1830
89572W        W90436  13.016  11.718  27.568 -0.2106  0.0347  0.1600
89573W        W90437  10.172  14.063  26.310  0.1031  0.0208 -0.1005
89574W        W90438  13.843  12.695  27.454  0.0550  0.1003 -0.0375
89575W        W90439  11.448  11.229  27.453  0.1229 -0.1365 -0.1564
89576W        W90440  13.761  15.982  25.506  0.2765  0.0214  0.1746
89577W        W90441  12.761  11.769  25.575 -0.0979  0.3229 -0.1724
89578W        W90442  11.535  11.080  26.155 -0.1241  0.0687  0.3150
89579W        W90443  14.623  11.604  27.460  0.0985 -0.1668 -0.1746
89580W        W90444  14.399  13.385  27.588 -0.2148  0.3790 -0.2343
89581W        W90445  12.586  13.046  26.155  0.0280  0.1526 -0.1073
89582W        W90446  10.358  12.468  27.619  0.0910  0.1858  0.0730
89583W        W90447   8.230  11.027   1.070 -0.0086  0.0338 -0.0844
89584W        W90448  10.217  11.579  27.793  0.0818  0.0542 -0.1637
89585W        W90449  11.566  10.372  27.423 -0.0848  0.0084  0.1594
89586W        W90450  12.919  10.682  27.630  0.2641 -0.0382 -0.2706
89587W        W90451  15.081  11.736  28.964 -0.1733  0.1617  0.2668
89588W        W90452  12.784  12.059   0.698  0.1771  0.0543 -0.0013
89589W        W90453  11.741  13.866  26.703  0.0593  0.0897 -0.3458
89590W        W90454  12.805   8.253  25.294  0.1869  0.1413 -0.3126
89591W        W90455  12.141  12.603   1.006  0.2972 -0.2565  0.1379
89592W        W90456  11.567  15.331  28.930  0.1098  0.2271  0.0675
89593W        W90457  14.924  13.593  28.041 -0.0025 -0.0877 -0.0475
89594W        W90458  12.197   9.856  26.708 -0.0163 -0.1578 -0.0098
89595W        W90459  12.330  11.018  24.492 -0.0288 -0.0376  0.0542
89596W        W90460  15.368  13.321  26.655 -0.2753 -0.0894 -0.0312
89597W        W90461  12.869  11.301  25.918  0.1581 -0.0988 -0.0220
89598W        W90462  10.390  10.083   0.873  0.1423  0.1465 -0.2580
89599W        W90463  17.160  15.769  28.045  0.1511 -0.1489 -0.1937
89600W        W90464  14.137  11.756  26.214  0.0201  0.2178 -0.0975
89601W        W90465  13.507  10.756  27.667 -0.1029 -0.1775  0.1670
89602W        W90466  14.124  13.028  28.717  0.3773 -0.3440 -0.0236
89603W        W90467  13.476  14.811  26.237 -0.2040  0.0750 -0.1933
89604W        W90468  13.275  11.042   2.061 -0.2379 -0.2484  0.2345
89605W        W90469  14.798  14.593  24.249  0.3468  0.2028 -0.2677
89606W        W90470  10.926  14.555   2.389  0.0804  0.1125 -0.0536
89607W        W90471  10.696  13.498  26.944  0.0858 -0.1677 -0.0341
89608W        W90472  13.969  11.880  26.741  0.2122  0.0553  0.2420
89609W        W90473  11.740  10.423   0.526  0.1187  0.0616 -0.2972
89610W        W90474  14.708  12.958  27.875  0.1182  0.0626 -0.1227
89611W        W90475  11.851  11.426  25.984  0.0564 -0.2567 -0.1918
89612W        W90476  14.662  13.097  28.738  0.1714  0.3270 -0.2217
89613W        W90477  13.363  11.289   0.511  0.0532  0.3020 -0.0185
89614W        W90478  11.664  11.998  27.308 -0.0951 -0.1899  0.0599
89615W        W90479  14.867  15.697  28.828  0.6998 -0.0880 -0.1475
89616W        W90480   8.987  10.001   0.573  0.0179  0.0574 -0.3952
89617W        W90481  10.670   9.729   1.062  0.1452  0.5079 -0.0423
89618W        W90482  10.655  12.695   0.949 -0.0579  0.2347 -0.0279
89619W        W90483  11.579  12.407  26.167 -0.1621 -0.1389  0.0879
89620W        W90484   9.359  12.923  25.784  0.2012  0.0665 -0.0940
89621W        W90485  14.281  10.661  25.094 -0.0561  0.0306  0.0495
89622W        W90486  10.066  11.388  26.163  0.0609  0.2658 -0.1008
89623W        W90487  14.472  13.287  26.083  0.3898 -0.3159  0.0896
89624W        W90488   9.217  14.417  25.578 -0.1210 -0.1044  0.3361
89625W        W90489  14.660  11.045  27.602 -0.0247 -0.3685  0.1215
89626W        W90490  13.484  12.132   1.544  0.2841 -0.2765 -0.0595
89627W        W90491  13.809  14.057   0.051  0.3952 -0.0629 -0.0724
89628W        W90492  12.271  12.957   0.111 -0.0752  0.0972  0.1939
89629W        W90493  15.840  11.062  25.366  0.1150  0.2712 -0.2136
89630W        W90494  14.085  13.701  27.413  0.1000  0.4165  0.2761
89631W        W90495  12.479  11.601  27.744  0.0828 -0.0523 -0.0758
89632W        W90496  13.970  11.995  27.769 -0.1231 -0.1797  0.0794
89633W        W90497  16.384   9.831  27.149  0.0252 -0.0834 -0.0618
89634W        W90498  10.115  13.233  28.224  0.1922  0.3156 -0.2309
89635W        W90499  12.343  11.609  25.225 -0.6193 -0.2203  0.0474
89636W        W90500  14.419  12.137  27.655 -0.2021 -0.0370  0.1305
89637W        W90501  13.160  11.745  26.114  0.1060 -0.1020 -0.1081
89638W        W90502  15.503  14.120  28.462 -0.3220  0.1413 -0.0341
89639W        W90503  15.906  13.405  27.356  0.2806  0.0729  0.1058
89640W        W90504  13.380  14.598  28.363  0.1137 -0.0595  0.1854
89641W        W90505  13.161  11.575   2.327  0.0496 -0.1060  0.0523
89642W        W90506  11.227  13.967   1.721  0.0383 -0.0091 -0.2428
89643W        W90507  12.652  11.771  26.119 -0.0956 -0.0624 -0.3882
89644W        W90508  13.893  11.220   0.419 -0.2725  0.3676  0.1528
89645W        W90509  12.176  13.775  25.631  0.0015  0.1908  0.0760
89646W        W90510  13.327  13.231  27.576  0.0517  0.0078  0.0505
89647W        W90511  15.772   9.476  28.032  0.0495  0.4705  0.3341
89648W        W90512  15.584  12.432  24.303  0.1481  0.2167 -0.1739
89649W        W90513  10.246  12.891  26.544  0.0371  0.0790  0.0903
89650W        W90514  14.015  10.772  26.464  0.0949  0.2646  0.0246
89651W        W90515  12.043  11.111  26.322 -0.2461 -0.1231  0.0269
89652W        W90516  13.414  12.133  26.179 -0.0408 -0.3481  0.1527
89653W        W90517  14.933  14.600   1.636  0.2120  0.0991  0.2311
89654W        W90518  11.740  12.577  28.506  0.1041 -0.1979 -0.0477
89655W        W90519  11.010  13.632  25.588 -0.2870 -0.0023 -0.0570
89656W        W90520  13.716  11.182  27.531  0.2357 -0.0199  0.3603
89657W        W90521  14.265  11.152  25.213 -0.1354 -0.0230 -0.2575
89658W        W90522  12.983  13.610  28.261 -0.0644  0.4388 -0.0371
89659W        W90523   9.817  11.450  28.251 -0.2476  0.0392 -0.0207
89660W        W90524  10.629  14.688  29.091  0.2105  0.2155 -0.0133
89661W        W90525  16.332  13.473  28.548  0.1353 -0.0841  0.0668
89662W        W90526  11.887  11.648  28.092  0.2474 -0.1713  0.0961
89663W        W90527  12.947  14.378  27.099 -0.0496 -0.4532 -0.1054
89664W        W90528   9.198  11.730  28.156  0.3832 -0.0064 -0.0568
89665W        W90529  13.212  10.956  27.298  0.0213  0.0052 -0.0898
89666W        W90530  13.336   9.024   0.929  0.1321  0.2126  0.2103
89667W        W90531   7.971  12.049  24.597 -0.3268 -0.2075 -0.1120
89668W        W90532  12.486  12.272  25.475  0.1400 -0.0535 -0.0128
89669W        W90533  10.703  10.290  25.394  0.0863  0.1067 -0.1353
89670W        W90534  12.356  11.898  28.959  0.1857 -0.2812 -0.2143
89671W        W90535  14.400   8.961  26.975 -0.0455  0.4420  0.1089
89672W        W90536  13.374  10.885   0.034  0.1765 -0.0277  0.2192
89673W        W90537  12.001  11.272  25.549  0.3710 -0.1172 -0.1962
89674W        W90538  14.123  14.021  28.772  0.0287  0.1255 -0.1876
89675W        W90539  15.040  11.562   2.920  0.1219 -0.0168 -0.2342
89676W        W90540  11.279  16.089  25.953  0.3939 -0.1267  0.2403
89677W        W90541  13.416  13.325  27.022 -0.1143 -0.0085 -0.2749
89678W        W90542  12.632  11.317  26.408 -0.1705 -0.1272 -0.0727
89679W        W90543  16.944  10.408  28.043  0.1206  0.1222 -0.3544
89680W        W90544  12.091  12.249  27.369 -0.3487  0.1581  0.1431
89681W        W90545  10.794   9.048   0.426 -0.1446 -0.3568 -0.2489
89682W        W90546   9.019  10.803  28.267 -0.1109  0.2633 -0.0227
89683W        W90547   9.908  16.121  25.110 -0.1029  0.0603  0.2542
89684W        W90548  13.149  14.090   0.323  0.0043  0.2822 -0.1197
89685W        W90549  10.077  16.678  26.813 -0.0697 -0.0477 -0.1001
89686W        W90550   9.687  11.773  27.877  0.1050 -0.2675  0.3836
89687W        W90551   8.533  11.863   2.125 -0.0132  0.1922 -0.2058
89688W        W90552  12.009  13.920  27.114  0.0531  0.5160  0.0926
89689W        W90553  12.359  11.881  28.134  0.0484 -0.1925 -0.1855
89690W        W90554  12.695  10.580   0.877 -0.2379 -0.2238 -0.0479
89691W        W90555  12.016  13.465  26.398  0.1032 -0.3024  0.1483
89692W        W90556  15.440  12.453  27.090  0.1919 -0.1643 -0.2229
89693W        W90557  12.431  16.964  25.010 -0.1070 -0.0137  0.0887
89694W        W90558  12.065  15.342  27.631  0.0138 -0.5593 -0.0366
89695W        W90559   9.977   8.864  26.425 -0.4232  0.2254 -0.1213
89696W        W90560  10.495  14.788   0.442  0.6179  0.0633  0.2070
89697W        W90561  12.414  11.001   1.831  0.2332 -0.6311  0.1089
89698W        W90562  10.169  10.115  28.208 -0.1296  0.1809 -0.2034
89699W        W90563   9.573  11.554  26.346 -0.0435 -0.1189 -0.0951
89700W        W90564  13.151  10.876  25.886  0.1220 -0.0030  0.0793
89701W        W90565  13.719  10.950  28.145  0.1709 -0.4403  0.0897
89702W        W90566  14.330   9.899  27.492 -0.3890 -0.2206  0.0922
89703W        W90567  13.531  11.234  26.693  0.0436 -0.1113  0.0484
89704W        W90568  10.862  13.046  26.153 -0.0201  0.3793 -0.2521
89705W        W90569  14.016  12.477   0.343 -0.3758  0.2645 -0.0415
89706W        W90570  14.358  14.787  28.179 -0.1383 -0.2083  0.1604
89707W        W90571  10.813  12.123  26.785  0.0471 -0.4388 -0.0660
89708W        W90572  12.709  13.695  25.661 -0.0111 -0.1162  0.3964
89709W        W90573  11.812   8.444  28.064  0.1414  0.0292 -0.0114
89710W        W90574  13.575   9.238  27.289 -0.1794  0.0003  0.1204
89711W        W90575  15.992  11.220  26.861 -0.0203  0.0358  0.1221
89712W        W90576  11.632  12.919  24.113  0.1232 -0.0938 -0.1474
89713W        W90577  12.771  14.060  28.487 -0.1724  0.2270  0.0185
89714W        W90578  13.540  14.993  26.930  0.0322  0.3347  0.0335
89715W        W90579  10.763  12.461  28.426 -0.1988  0.0530  0.0985
89716W        W90580  13.831   9.799   2.314 -0.0255 -0.1215 -0.2285
89717W        W90581  16.287  13.835   1.279  0.0044 -0.3464 -0.1292
89718W        W90582  11.533  10.789   0.044 -0.2179 -0.0478  0.0439
89719W        W90583  12.195  12.663  28.754  0.0969 -0.3066  0.0031
89720W        W90584  14.218  13.041  27.883  0.1879 -0.1819 -0.2144
89721W        W90585  12.075  11.946  26.923 -0.0601 -0.0881  0.2384
89722W        W90586  12.167  11.708  26.249 -0.2333  0.0852 -0.0808
89723W        W90587  12.248   9.629  28.769 -0.0854 -0.0407 -0.0686
89724W        W90588  15.341  13.256  27.617  0.1642  0.1106 -0.2110
89725W        W90589  10.194  12.031   0.808  0.0238 -0.0264  0.1540
89726W        W90590  13.196  14.377  24.414 -0.3716  0.0695  0.1717
89727W        W90591  11.536  11.840  26.283  0.1194  0.0193  0.0296
89728W        W90592  11.860  11.530  27.133 -0.1967  0.1730  0.0641
89729W        W90593  14.816  15.528  27.751  0.0574  0.0167 -0.0510
89730W        W90594  11.825  11.028  27.192 -0.1757  0.0378  0.1186
89731W        W90595   8.798  12.927  28.164 -0.0344  0.1097 -0.0868
89732W        W90596  13.080  12.712  26.174 -0.1141  0.2015  0.1188
89733W        W90597  12.137  14.916  25.441 -0.1238 -0.0991 -0.0019
89734W        W90598  10.855  11.608  25.682 -0.0130  0.0300  0.0034
89735W        W90599  10.205  11.719  29.017  0.1716  0.1394 -0.0173
89736W        W90600  13.128  14.276  23.519  0.1046 -0.1918 -0.1651
89737W        W90601  12.010  11.814  27.671  0.3870 -0.2133  0.1819
89738W        W90602  12.950  14.332  25.209  0.1775  0.2092  0.4621
89739W        W90603  11.001  11.827  26.228 -0.1296 -0.0969 -0.0068
89740W        W90604  13.219  18.447   4.047 -0.1386  0.1765 -0.1033
89741W        W90605  11.881  15.577   1.810  0.0122  0.0329  0.3155
89742W        W90606  14.669  16.914   1.399 -0.0611  0.0600  0.0763
89743W        W90607  16.578  16.362   3.552 -0.1301 -0.1513 -0.0033
89744W        W90608  14.030  17.278   2.479  0.2717  0.1333 -0.1723
89745W        W90609  11.944  16.058  28.742  0.0029 -0.0850 -0.1866
89746W        W90610  12.284  16.335   0.071  0.1134  0.1786  0.0755
89747W        W90611  11.879  15.190   1.030 -0.2320 -0.0801  0.1690
89748W        W90612  11.146  17.310   5.293  0.1646  0.0701  0.1027
89749W        W90613  13.249  15.002   1.707  0.0648  0.1868 -0.2086
89750W        W90614   9.498  14.370   2.190 -0.0550  0.2742  0.0461
89751W        W90615  13.804  15.269   1.690  0.3820 -0.1294  0.0272
89752W        W90616  14.034  14.984  27.696 -0.2467  0.1505  0.0721
89753W        W90617  13.766  16.001   3.048  0.0231 -0.1575  0.3775
89754W        W90618  11.826  15.719   0.016 -0.0981  0.5524  0.1323
89755W        W90619  11.270  16.372   3.080  0.2515  0.3578 -0.3399
89756W        W90620  13.826  16.523   0.970  0.0012 -0.2237 -0.4563
89757W        W90621  10.474  13.559   0.830 -0.2270  0.0026  0.1633
89758W        W90622   9.451  15.006   2.818 -0.0786 -0.2056  0.1124
89759W        W90623  12.959  13.185   4.217  0.0339  0.0922 -0.1902
89760W        W90624  16.761  16.815   0.601  0.0271 -0.0067  0.0957
89761W        W90625  13.287  14.725  28.876 -0.1171 -0.1025  0.0646
89762W        W90626  11.772  16.533   3.934  0.0245  0.0619 -0.3472
89763W        W90627  12.940  17.692   2.646 -0.2191  0.1302 -0.0655
89764W        W90628  11.496  15.405   1.323  0.0720  0.2260 -0.3263
89765W        W90629  10.649  13.939   5.236 -0.3073  0.0498 -0.1842
89766W        W90630  15.811  17.859   1.258  0.0433 -0.3505  0.2588
89767W        W90631  12.264  17.328   1.435 -0.4203 -0.3015  0.1777
89768W        W90632  12.182  17.466   2.596  0.0460 -0.4822 -0.0326
89769W        W90633  11.533  16.447   3.483 -0.1083 -0.0880  0.1057
89770W        W90634  12.171  15.000   0.357  0.0216 -0.1327 -0.0829
89771W        W90635  12.248  16.981   2.535 -0.1043  0.1237  0.3116
89772W        W90636   9.818  16.636   1.719 -0.3453 -0.2719  0.1601
89773W        W90637  13.963  16.966   1.173 -0.0950  0.3560  0.1788
89774W        W90638   9.374  15.250   3.567 -0.1182 -0.2015 -0.1134
89775W        W90639  14.112  17.772   2.445  0.1226 -0.0811 -0.0662
89776W        W90640  13.919  14.408   1.268 -0.0864 -0.2924  0.1435
89777W        W90641  12.348  17.862   1.348 -0.1101  0.0294  0.1489
89778W        W90642  16.060  18.322   0.789  0.0766 -0.1308  0.1272
89779W        W90643  15.185  15.275   0.369 -0.0120  0.5092 -0.2975
89780W        W90644  15.307  15.731  26.170  0.0530  0.0477  0.1960
89781W        W90645  14.337  16.030   2.574 -0.1025  0.0406  0.1711
89782W        W90646  10.683  16.392   2.094  0.0561 -0.1900 -0.1771
89783W        W90647  12.299  13.992   1.291 -0.1034 -0.1728  0.1557
89784W        W90648  11.429  17.681   1.013 -0.0722 -0.0446  0.0971
89785W        W90649  12.823  18.496   1.815 -0.0208 -0.0243 -0.4278
89786W        W90650  13.470  13.047   4.323 -0.1904  0.2783  0.2023
89787W        W90651  19.507  16.128   3.621 -0.1302 -0.1555  0.0273
89788W        W90652  10.128  16.939   2.157  0.0044 -0.3238  0.1852
89789W        W90653  15.453  15.389   1.388 -0.1585  0.4107  0.0423
89790W        W90654  11.737  16.949   1.283  0.0593  0.1174 -0.1397
89791W        W90655  13.343  15.764   0.875  0.2187  0.2194 -0.0036
89792W        W90656  15.061  15.339   2.849  0.1498 -0.0204 -0.1982
89793W        W90657  15.843  14.384  28.171 -0.0661  0.2537  0.0016
89794W        W90658  15.645  17.482   1.654 -0.4374 -0.1530  0.1801
89795W        W90659  11.896  17.173   1.740  0.3177 -0.0016 -0.1028
89796W        W90660  12.480  14.639   0.490 -0.3222  0.2484 -0.1562
89797W        W90661  11.839  15.387   0.513  0.2658 -0.2256  0.1450
89798W        W90662  12.467  18.046   1.833  0.0035 -0.2179 -0.2653
89799W        W90663  12.866  19.451   2.270  0.1409 -0.0405  0.2388
89800W        W90664  14.547  16.893  27.747 -0.0848  0.3005 -0.0082
89801W        W90665   8.393  19.142   2.322 -0.0243  0.0327  0.1225
89802W        W90666   9.857  14.352   3.589  0.1607  0.4121 -0.3454
89803W        W90667  11.226  16.360  28.940 -0.1639  0.4943 -0.2221
89804W        W90668  12.062  14.747   3.061 -0.0617 -0.2561  0.1913
89805W        W90669  14.636  17.266   2.606 -0.2630  0.2726  0.1546
89806W        W90670   9.646  17.390  29.113  0.3768  0.2067  0.1096
89807W        W90671   9.472  13.452   0.655  0.1626  0.1288  0.2391
89808W        W90672   8.299  18.746   1.506  0.0937  0.0852  0.0783
89809W        W90673  12.000  18.152   1.585  0.1849  0.2424 -0.1115
89810W        W90674  14.556  15.966   3.997  0.0606  0.1339 -0.2748
89811W        W90675  13.366  16.392   0.944  0.1389  0.0865 -0.1181
89812W        W90676  10.729  20.187   1.739  0.1471  0.1990 -0.2913
89813W        W90677  11.470  15.311   1.930  0.3293  0.0519 -0.2375
89814W        W90678  14.439  17.843   0.788 -0.1368 -0.1241  0.4770
89815W        W90679  14.714  15.791   1.414  0.2721 -0.0329  0.4531
89816W        W90680  10.597  15.510   1.636  0.1141 -0.0177  0.0151
89817W        W90681  14.048  14.898   1.541  0.1361  0.2419  0.2988
89818W        W90682  12.379  14.803   2.244  0.0049 -0.0793  0.1844
89819W        W90683  10.551  18.868   1.554 -0.2040  0.3695 -0.2979
89820W        W90684  10.337  15.912   1.547 -0.0348  0.0887  0.0696
89821W        W90685  11.379  14.873   1.588 -0.0325 -0.1224  0.3532
89822W        W90686  10.373  17.251  28.367 -0.1607  0.1504  0.1960
89823W        W90687  11.237  14.974   1.097  0.2568  0.0853  0.0911
89824W        W90688  12.013  16.769   5.456  0.3040 -0.3650  0.1926
89825W        W90689  12.986  13.556  27.403 -0.1430 -0.1433  0.1680
89826W        W90690  15.373  16.270   1.965  0.1276  0.2069  0.4219
89827W        W90691  11.176  11.763   5.497 -0.1563 -0.1024 -0.0729
89828W        W90692  15.801  19.964   2.955  0.2099 -0.1497  0.1137
89829W        W90693  16.695  16.530   1.930  0.0974  0.0814  0.0869
89830W        W90694  13.731  17.252   0.333  0.1350 -0.0563 -0.0889
89831W        W90695  16.965  19.553   4.543 -0.1094  0.0027  0.0013
89832W        W90696  11.963  19.433   3.589 -0.1286 -0.0533  0.0890
89833W        W90697  13.068  14.075   3.825  0.0809 -0.0195  0.1938
89834W        W90698  10.750  14.066   3.148 -0.1289  0.1300  0.1482
89835W        W90699  15.374  15.688   0.724 -0.3029  0.1016  0.1317
89836W        W90700  15.258  14.918   1.380 -0.0521  0.2504  0.3268
89837W        W90701  13.158  16.404   1.375  0.0698  0.1168 -0.1292
89838W        W90702  14.602  15.225   1.364  0.2048 -0.0921 -0.1273
89839W        W90703  15.295  13.795   0.975  0.1329 -0.0786  0.0576
89840W        W90704  15.027  16.499  28.687 -0.2435  0.0239  0.0954
89841W        W90705  11.964  14.850   2.523  0.0662  0.0918  0.0389
89842W        W90706  12.830  12.662  27.624 -0.2347 -0.1148 -0.0521
89843W        W90707  16.353  17.630   2.249 -0.2008  0.0244 -0.0330
89844W        W90708  14.631  15.136   2.906 -0.0130  0.0051 -0.3403
89845W        W90709  11.179  18.586   2.122 -0.1261  0.3113 -0.0672
89846W        W90710  12.740  14.742   0.075 -0.4292  0.2752  0.1077
89847W        W90711  15.997  16.911   1.998 -0.0648 -0.0743 -0.1057
89848W        W90712  13.013  13.807   4.809  0.0301  0.0357  0.0437
89849W        W90713  12.786  16.243   0.985 -0.0120  0.1623 -0.1572
89850W        W90714  12.101  14.023   4.921  0.0383 -0.0790  0.1364
89851W        W90715  14.362  16.422   2.215  0.2172 -0.0661  0.4840
89852W        W90716  14.177  14.552   1.873 -0.0098  0.0145  0.1161
89853W        W90717  14.544  21.163   4.392  0.1031  0.3685  0.0102
89854W        W90718  13.712  17.083   1.617  0.0253  0.0638 -0.1583
89855W        W90719  13.411  15.686   1.727 -0.0499  0.1767 -0.0206
89856W        W90720  14.232  15.842   3.292 -0.1760 -0.1357 -0.2097
89857W        W90721  14.041  14.525   4.330 -0.2448 -0.1203  0.0486
89858W        W90722  12.156  16.857   1.976  0.0761 -0.1080  0.0792
89859W        W90723  14.868  14.573  28.027  0.0805 -0.0593 -0.0134
89860W        W90724  16.284  14.670   1.153  0.1317 -0.0949  0.0178
89861W        W90725  12.823  17.548   0.704  0.1791 -0.4024  0.2222
89862W        W90726  14.602  16.214   4.843  0.1045 -0.2795 -0.1975
89863W        W90727  13.390  17.775   1.964  0.1668 -0.3073 -0.0575
89864W        W90728  11.499  17.669   3.172  0.0924 -0.2023  0.0311
89865W        W90729  13.849  15.552   2.093  0.1305  0.0271 -0.0980
89866W        W90730  11.140  13.252   5.319 -0.1426  0.2866  0.2577
89867W        W90731  15.361  14.474   2.820  0.1712 -0.1843 -0.2229
89868W        W90732  14.042  15.048   2.123 -0.0822 -0.2427 -0.3479
89869W        W90733  12.792  14.989   1.892  0.0345 -0.2534 -0.1481
89870W        W90734  16.193  20.705   3.566  0.1253 -0.2123 -0.2263
89871W        W90735  12.176  14.386   2.669  0.0187  0.0946 -0.2563
89872W        W90736  13.297  18.879   1.510 -0.0240  0.2317  0.3500
89873W        W90737  15.544  12.984  28.309  0.2540  0.1475 -0.0452
89874W        W90738  14.563  17.786   0.137  0.1185  0.2785 -0.0956
89875W        W90739  11.078  17.652   0.692 -0.1157 -0.1402 -0.1009
89876W        W90740  13.041  16.401   2.998  0.2206  0.1300 -0.2037
89877W        W90741  15.630  13.820   5.618  0.2237  0.1261  0.1642
89878W        W90742  12.002  18.592   1.905 -0.0620  0.0498 -0.0181
89879W        W90743  13.941  16.835  28.907  0.0296  0.0987  0.1488
89880W        W90744  11.874  15.146   1.543 -0.3839  0.1083 -0.0675
89881W        W90745  13.630  13.120   5.405  0.1342  0.2307  0.1749
89882W        W90746  10.315  17.257   1.420  0.2619  0.2236  0.1700
89883W        W90747  11.705  17.483   1.441  0.0714  0.1674  0.2979
89884W        W90748  11.941  15.062   4.322 -0.0065 -0.0539  0.1299
89885W        W90749  11.259  15.542   0.312 -0.2437  0.1165 -0.2809
89886W        W90750  13.466  15.520   0.006 -0.1970 -0.3024 -0.0923
89887W        W90751  12.025  18.935   2.823  0.2140  0.0480  0.5817
89888W        W90752  12.967  16.203  27.920 -0.3775 -0.1796 -0.3789
89889W        W90753  10.436  16.380   2.519 -0.2725  0.0776  0.1927
89890W        W90754  12.204  18.325   3.114 -0.1996 -0.0361  0.1555
89891W        W90755  13.412  13.682   0.913 -0.0033  0.1161 -0.1277
89892W        W90756  10.950  14.409   5.082  0.0818  0.0959  0.4430
89893W        W90757  11.570  14.494  29.025 -0.0312  0.1086 -0.1285
89894W        W90758  14.527  16.344   1.335  0.3356 -0.1745  0.0046
89895W        W90759  15.030  17.808   0.774 -0.2445  0.0633  0.0773
89896W        W90760  14.058  15.580   2.834  0.0660  0.1821 -0.2112
89897W        W90761  13.909  15.612   0.859  0.0253 -0.0503  0.2147
89898W        W90762  13.297  14.063  28.536  0.1439  0.0516 -0.2765
89899W        W90763  12.712  17.206   4.023 -0.2692 -0.1130  0.1753
89900W        W90764  12.867  13.937   1.201 -0.1396 -0.0217  0.1523
89901W        W90765  12.841  14.968   3.071 -0.0668 -0.1783  0.0413
89902W        W90766  14.145  18.083   5.452  0.0903 -0.4113  0.0692
89903W        W90767  15.676  16.063   3.099 -0.1853 -0.0641  0.1182
89904W        W90768  11.745  16.754   4.989  0.1257  0.3275  0.0841
89905W        W90769  11.890  15.305   3.301 -0.1471  0.0552  0.0219
89906W        W90770  12.115  14.610  28.863  0.2368  0.0117 -0.2623
89907W        W90771  10.990  18.732   3.051 -0.2040  0.3060  0.0983
89908W        W90772  14.499  17.818   1.371  0.0185 -0.0537  0.0291
89909W        W90773  12.692  16.760   1.134  0.1226 -0.1236 -0.3191
89910W        W90774  14.593  15.290   4.738 -0.0287 -0.0390  0.0801
89911W        W90775  14.713  18.590   2.759 -0.3546  0.1734 -0.2376
89912W        W90776  12.674  17.560   4.351 -0.1458 -0.0713  0.1577
89913W        W90777  14.357  16.628  29.100 -0.0324 -0.0033  0.2276
89914W        W90778  12.897  15.557  28.286 -0.1103  0.0272 -0.1519
89915W        W90779  13.724  13.593  28.274  0.1924  0.2770 -0.0253
89916W        W90780  11.560  17.470   2.651 -0.1378 -0.2078  0.2610
89917W        W90781  13.157  18.449   1.283  0.1212 -0.4022 -0.2440
89918W        W90782   8.997  18.026  28.065  0.1002 -0.0788  0.1355
89919W        W90783  17.075  13.455   4.018 -0.0576 -0.2428 -0.3588
89920W        W90784  13.673  16.928   0.716 -0.1732  0.0422  0.3352
89921W        W90785  12.487  17.199   0.102 -0.1375  0.3587  0.1877
89922W        W90786  13.543  17.166  29.001 -0.0123 -0.0714 -0.0900
89923W        W90787  12.888  14.390   1.421  0.0371 -0.1187 -0.2106
89924W        W90788  10.961  12.687   1.843  0.1876 -0.0764 -0.0236
89925W        W90789  15.422  14.641   1.785 -0.2896 -0.1990  0.0392
89926W        W90790  14.342  15.802   0.517 -0.1478  0.0125  0.0688
89927W        W90791  10.984  16.800   0.132 -0.2159  0.0488  0.3763
89928W        W90792  11.324  17.362   3.603  0.1209  0.1260 -0.0465
89929W        W90793   9.743  17.775   1.866 -0.3809  0.2050 -0.0571
89930W        W90794  15.105  17.319   0.729  0.0284  0.3049  0.1220
89931W        W90795   8.993  17.179   1.749 -0.0116  0.0648  0.4177
89932W        W90796  13.640  14.438   5.473  0.0437  0.1878  0.1850
89933W        W90797  13.271  16.203   1.796  0.1120 -0.0982 -0.1053
89934W        W90798  14.841  15.710   3.314  0.0391 -0.1236  0.3086
89935W        W90799  10.834  14.079   2.571 -0.2083 -0.0539 -0.1341
89936W        W90800  13.134  13.088   0.589 -0.1399 -0.0267  0.0730
89937W        W90801  11.907  13.486  28.389  0.0487  0.1102  0.1094
89938W        W90802  14.649  11.419   1.643 -0.0036 -0.1865 -0.1704
89939W        W90803  13.586  11.232   2.999 -0.3103 -0.1449 -0.2987
89940W        W90804  11.338  15.827   1.119 -0.1973 -0.0010  0.3108
89941W        W90805  15.557  15.610   3.650  0.2420 -0.0227 -0.0660
89942W        W90806  13.692  16.058  28.473  0.1121  0.0603 -0.1431
89943W        W90807  13.346  14.724   2.316 -0.0500  0.3503 -0.2756
89944W        W90808  14.496  16.770   0.479  0.1691 -0.1850  0.0994
89945W        W90809  11.699  16.776  26.418 -0.0638 -0.1573  0.0692
89946W        W90810   9.096  17.215   5.996 -0.1855  0.3134 -0.4937
89947W        W90811  14.193  13.368   3.053  0.2332 -0.0673 -0.2403
89948W        W90812  15.703  19.934   0.295  0.3643 -0.1485 -0.0554
89949W        W90813  13.800  14.755   0.923 -0.0868 -0.1241  0.0538
89950W        W90814   9.276  14.926   3.954 -0.1040 -0.0650 -0.2506
89951W        W90815  12.447  16.344   1.876  0.0866 -0.3515 -0.2325
89952W        W90816  13.614  15.551  28.302  0.0022 -0.1528  0.0303
89953W        W90817  14.048  14.116   1.621 -0.0582  0.0081 -0.2319
89954W        W90818  16.716  14.630   2.922  0.0488  0.1669 -0.0732
89955W        W90819  15.491  16.567  27.853 -0.1753 -0.2269  0.1212
89956W        W90820  15.403  17.907   3.895  0.1791  0.1309 -0.2217
89957W        W90821  14.085  18.217   0.763  0.2070  0.0153 -0.1259
89958W        W90822  13.860  18.448   3.014  0.1441  0.2942 -0.0270
89959W        W90823  13.328  18.666   6.294  0.3611  0.0776 -0.0609
89960W        W90824  14.076  15.984   2.151 -0.0820 -0.1409 -0.1937
89961W        W90825  10.800  20.222   4.163  0.1060 -0.3957 -0.4223
89962W        W90826  11.233  16.750   1.173  0.1667  0.0192 -0.3332
89963W        W90827  14.997  15.483   1.673 -0.0321  0.0175  0.0553
89964W        W90828  12.568  14.616   3.338  0.0701  0.0447 -0.1105
89965W        W90829  13.815  18.253   3.554 -0.1630 -0.0183 -0.2688
89966W        W90830  15.292  13.935   3.833 -0.2083  0.1720 -0.0937
89967W        W90831  13.154  15.341   1.349  0.0429  0.0564  0.3312
89968W        W90832  15.871  14.984   1.098  0.1123 -0.2596 -0.2638
89969W        W90833  11.153  14.112  27.801  0.1587  0.1477  0.1501
89970W        W90834  14.781  15.306   2.108  0.3620  0.2010 -0.1200
89971W        W90835  13.558  15.558   0.454  0.1045  0.1905 -0.1585
89972W        W90836  17.219  16.793   2.736 -0.2516 -0.3422  0.1281
89973W        W90837  14.172  14.942   3.485  0.0699  0.2331  0.0469
89974W        W90838  13.331  16.675   1.861 -0.0725 -0.2084 -0.1741
89975W        W90839  15.199  14.799  26.447 -0.0161 -0.3894 -0.3974
89976W        W90840  13.178  15.224   3.675  0.2010  0.0775  0.1803
89977W        W90841  12.097  17.688   1.766 -0.0590 -0.1552 -0.0034
89978W        W90842  15.568  18.456   3.859  0.1876 -0.1261  0.1808
89979W        W90843  13.177  14.561   1.903  0.0926 -0.0003  0.3170
89980W        W90844  12.492  16.310   1.374  0.3020 -0.1238 -0.1009
89981W        W90845  11.021  14.474   2.894  0.0015 -0.1049 -0.2490
89982W        W90846  13.404  13.790  26.843 -0.1671 -0.1469  0.0051
89983W        W90847  17.078  14.893   1.070 -0.0631  0.1359 -0.3557
89984W        W90848  15.023  14.172   1.905  0.2127  0.0029 -0.1365
89985W        W90849  14.586  16.519   3.887  0.0513 -0.2754 -0.0738
89986W        W90850  12.804  16.051   1.721 -0.1330  0.0041 -0.1182
89987W        W90851  15.005  17.759   1.724 -0.0877  0.2686  0.0710
89988W        W90852  13.742  16.463  28.059  0.1171  0.2482 -0.0969
89989W        W90853  10.663  16.445  29.074  0.1043  0.0978 -0.2922
89990W        W90854  12.859  19.806   0.370  0.0325  0.0545  0.2440
89991W        W90855  15.968  16.655   3.080  0.1628  0.0526 -0.0806
89992W        W90856  12.720  15.944   2.901  0.2434 -0.1200 -0.1937
89993W        W90857  13.675  14.782   1.799  0.0185  0.3626 -0.2063
89994W        W90858  16.277  20.120   2.684  0.1261  0.2234 -0.1565
89995W        W90859  15.316  15.832  26.700 -0.0068  0.3231 -0.2440
89996W        W90860  13.793  14.797   5.989 -0.2056  0.1014  0.2045
89997W        W90861  15.190  18.664   0.511 -0.3106  0.1655 -0.2823
89998W        W90862  15.137  13.966   2.792 -0.0487 -0.0806 -0.0037
89999W        W90863  13.215  16.098   0.565 -0.1920 -0.0552  0.1776
90000W        W90864  13.961  14.528   3.344  0.1280 -0.0423 -0.1244
90001W        W90865  15.177  19.402   2.894 -0.0653 -0.0947 -0.0346
90002W        W90866  13.145  13.589   2.118 -0.3710 -0.0788  0.0212
90003W        W90867  13.818  18.794   0.057  0.2591  0.1110 -0.2417
90004W        W90868  10.890  19.406   2.907  0.1543  0.1486 -0.0330
90005W        W90869  14.797  17.174   3.118  0.0223 -0.0284 -0.2894
90006W        W90870  16.102  15.453   1.192  0.1382 -0.2554 -0.0137
90007W        W90871  14.472  15.927   0.977 -0.0112  0.0350 -0.3354
90008W        W90872  14.577  14.874  27.729 -0.0894 -0.2604 -0.0979
90009W        W90873  13.352  17.228   1.954  0.0356 -0.2650 -0.1425
90010W        W90874  14.454  17.131  29.122  0.3987  0.0333 -0.3941
90011W        W90875  11.042  16.227   1.288  0.4075  0.2239 -0.1247
90012W        W90876  11.082  15.052   2.217  0.2661 -0.0195 -0.1825
90013W        W90877  15.929  20.468   3.142 -0.0793 -0.1871 -0.0357
90014W        W90878  14.533  16.653   1.790  0.0767 -0.0082 -0.0668
90015W        W90879   9.938  14.247   6.016 -0.0898 -0.1383 -0.1385
90016W        W90880  11.768  16.200   3.087 -0.0790 -0.0037 -0.0676
90017W        W90881  13.263  16.891   0.438  0.0287  0.0534 -0.2049
90018W        W90882  11.088  17.908   3.216 -0.2550  0.0160 -0.0473
90019W        W90883  11.569  15.782   2.181  0.0214 -0.1832 -0.0544
90020W        W90884  13.283  13.664  27.881 -0.1049 -0.4360 -0.4344
90021W        W90885  11.215  15.413  28.523 -0.2253 -0.1434  0.2410
90022W        W90886  13.340  18.455   4.505  0.0755 -0.3766  0.1458
90023W        W90887  13.341  16.589  27.725 -0.1441  0.0388  0.1046
90024W        W90888  13.736  13.332   4.739  0.0553 -0.0239 -0.3552
90025W        W90889  12.908  19.539   1.708  0.0490  0.0172 -0.3129
90026W        W90890  11.762  17.172   2.235  0.1208 -0.0623 -0.0938
90027W        W90891  13.061  13.865   2.939 -0.1068  0.1475 -0.0068
90028W        W90892  12.857  16.594   1.745 -0.1234 -0.3258  0.2470
90029W        W90893  13.981  18.418   1.213 -0.0402 -0.0858  0.2902
90030W        W90894  12.742  16.271  29.051 -0.0385 -0.0492 -0.1310
90031W        W90895  13.997  15.228   1.125  0.2354 -0.0598  0.0622
90032W        W90896  13.072  15.575   0.455 -0.3060  0.3665  0.1051
90033W        W90897  10.815  21.669   1.389 -0.0618 -0.2365  0.1815
90034W        W90898  11.575  16.417   1.322  0.1205  0.3618  0.0384
90035W        W90899  13.569  14.292   1.683 -0.0373 -0.3253  0.0532
90036W        W90900  16.537  15.887   2.746  0.3533  0.1353 -0.0020
90037W        W90901  15.650  15.207   3.391  0.1162 -0.2482 -0.1859
90038W        W90902  10.191  19.743  28.766 -0.2663 -0.1106  0.2460
90039W        W90903  10.088  16.828   0.691  0.1783  0.2588 -0.2017
90040W        W90904  11.469  14.063   4.198  0.0273  0.3131  0.4052
90041W        W90905  13.503  16.276   3.844  0.3104  0.0495  0.0072
90042W        W90906  13.819  16.325   1.799  0.2327 -0.1178  0.2642
90043W        W90907  12.441  15.043   2.684 -0.2697 -0.1895 -0.1771
90044W        W90908  16.671  19.192   1.864  0.1099  0.0488 -0.1863
90045W        W90909  15.382  19.491   3.766 -0.4895  0.2403  0.2502
90046W        W90910  12.057  12.633  26.192 -0.2010  0.1087 -0.1912
90047W        W90911  13.814  16.359   2.650 -0.1754 -0.1096 -0.1960
90048W        W90912  13.755  17.955   2.731  0.3507 -0.0324 -0.2879
90049W        W90913  12.564  12.342  27.257  0.1455  0.3056 -0.0941
90050W        W90914  10.331  16.839   1.740  0.0573 -0.0208 -0.0804
90051W        W90915  14.118  14.218   0.402  0.1142  0.2071  0.0169
90052W        W90916  10.393  14.998   1.465  0.0295  0.0692  0.0298
90053W        W90917  11.364  20.152   2.762 -0.1119  0.1545 -0.0714
90054W        W90918  12.055  15.760   3.213 -0.2443 -0.1631 -0.1518
90055W        W90919  12.903  14.984   2.486  0.3038 -0.0520  0.1306
90056W        W90920  15.243  14.781   0.141 -0.0635 -0.0597 -0.0210
90057W        W90921  12.425  20.279   3.584  0.4254 -0.1482 -0.0821
90058W        W90922  13.257  17.545   3.501  0.1182 -0.0725  0.0829
90059W        W90923  11.551  19.094   3.616 -0.0736  0.4079  0.3227
90060W        W90924  14.189  19.321   1.685  0.0484  0.2217 -0.1463
90061W        W90925  10.766  15.785   2.766  0.2002 -0.0306  0.0028
90062W        W90926  16.191  16.883   0.622 -0.1650 -0.2225 -0.0404
90063W        W90927  12.283  18.519   0.638 -0.1427  0.2041  0.0668
90064W        W90928  16.646  18.893   3.692  0.0493  0.3387 -0.2322
90065W        W90929  12.380  16.806   1.534  0.0656 -0.2398  0.4872
90066W        W90930  14.302  17.341   1.162  0.1404 -0.1447 -0.1169
90067W        W90931  12.447  16.711  28.354  0.0419  0.2172  0.0491
90068W        W90932  12.699  18.875  29.056  0.0517 -0.2023  0.1477
90069W        W90933  14.544  14.880   1.788  0.0387 -0.2367 -0.2484
90070W        W90934  14.112  13.522  28.569  0.1298  0.0582 -0.0761
90071W        W90935  15.054  16.274   5.038  0.1158  0.1297 -0.0667
90072W        W90936  15.438  20.297   4.435  0.2007 -0.1009 -0.3831
90073W        W90937  12.405  15.613   2.697 -0.0719  0.0631 -0.0096
90074W        W90938  15.725  20.384   5.079  0.0331  0.2800  0.1127
90075W        W90939  10.578  21.153   3.589  0.0193 -0.1256  0.1722
90076W        W90940  15.287  18.806   2.787  0.0203  0.0544 -0.2048
90077W        W90941  10.992  16.345   2.528  0.0085  0.0000  0.1184
90078W        W90942  14.630  14.175  29.020  0.0202  0.0722 -0.0420
90079W        W90943  12.957  15.391   0.911 -0.0393  0.1500  0.0575
90080W        W90944  10.962  15.026   3.777  0.2313 -0.0040 -0.1003
90081W        W90945  10.734  14.586   3.862  0.0713  0.4134  0.1081
90082W        W90946  11.345  17.872   0.272  0.1323 -0.0720 -0.1104
90083W        W90947  12.293  16.014   1.057 -0.1478  0.2982 -0.0260
90084W        W90948  12.309  17.365   2.059 -0.2431  0.2056  0.0231
90085W        W90949  11.025  16.818   2.881  0.1442  0.0855 -0.0111
90086W        W90950  13.495  15.198   0.838  0.1714  0.0233 -0.3018
90087W        W90951  14.514  18.217   1.044 -0.1372  0.1510  0.1949
90088W        W90952   9.957  13.698  28.102  0.2263  0.1632  0.1461
90089W        W90953  15.313  16.479   2.404 -0.0691  0.0118 -0.0359
90090W        W90954  11.697  13.561  27.241 -0.1097 -0.0306  0.1923
90091W        W90955  15.099  15.913   2.886  0.3091 -0.0965  0.1030
90092W        W90956  12.287  18.054   0.167 -0.1339 -0.3315 -0.0832
90093W        W90957  13.599  17.708   0.055 -0.1146 -0.0200 -0.1715
90094W        W90958  13.451  11.995  28.544 -0.0922  0.3272  0.1495
90095W        W90959  13.750  18.503   0.501  0.0260 -0.2288  0.2616
90096W        W90960  15.726  15.017   1.550  0.5287  0.2052 -0.1975
90097W        W90961  11.176  14.998   2.717 -0.2375 -0.0476 -0.0687
90098W        W90962   9.845  19.674   0.653 -0.2604 -0.0386 -0.0663
90099W        W90963  11.413  14.546   0.368  0.1512  0.1555  0.2612
90100W        W90964  14.321  15.567   2.342 -0.0231  0.1098 -0.1639
90101W        W90965  10.512  17.322   0.827 -0.2049 -0.4599 -0.0392
90102W        W90966  12.452  15.341   0.793  0.0312 -0.4582  0.0215
90103W        W90967  10.321  19.964   3.192 -0.0246 -0.1519 -0.0594
90104W        W90968  17.508  18.068   1.406 -0.0077  0.1415 -0.1982
90105W        W90969  15.312  16.698   4.924  0.1531 -0.1151 -0.1251
90106W        W90970  15.289  18.551   1.438 -0.0306  0.2493 -0.0524
90107W        W90971  14.421  15.423  28.961  0.2811  0.1209  0.1877
90108W        W90972  12.851  14.545  28.473 -0.0150  0.0901 -0.2859
90109W        W90973  12.851  13.558   0.846  0.2209 -0.2847 -0.1350
90110W        W90974  15.534  14.160   0.671  0.0939  0.2179  0.0734
90111W        W90975  12.732  17.136   1.734 -0.1174  0.1952 -0.3700
90112W        W90976  13.066  17.130   3.677  0.1546 -0.2513  0.5214
90113W        W90977  13.808  20.242  28.625 -0.0878  0.1392 -0.0614
90114W        W90978  13.788  15.305   2.532  0.0661 -0.0622  0.2908
90115W        W90979  12.600  16.611   3.343  0.0194  0.0419 -0.1359
90116W        W90980  16.553  14.815   4.774 -0.2546 -0.2332  0.0275
90117W        W90981  14.267  16.296   4.377  0.0112  0.0939  0.1204
90118W        W90982  11.963  17.705   1.063  0.2112 -0.1723  0.0069
90119W        W90983  12.797  16.918   2.766  0.0419 -0.2758  0.0678
90120W        W90984   9.580  16.944   2.066  0.4655 -0.1959 -0.0294
90121W        W90985  11.870  15.704   2.639 -0.1665  0.0741  0.1761
90122W        W90986  13.817  18.087   2.254  0.3278  0.2081  0.3520
90123W        W90987  15.479  19.570   5.240  0.0969 -0.1530  0.5293
90124W        W90988  14.314  18.173   2.276 -0.4155 -0.0690 -0.2843
90125W        W90989  14.648  16.130   3.079  0.2683 -0.1307 -0.0403
90126W        W90990  14.899  18.948   2.423 -0.1203  0.0300  0.2326
90127W        W90991  14.640  17.401   1.615  0.0306  0.2800  0.1690
90128W        W90992  12.591  14.614   2.858  0.1048  0.3109 -0.2789
90129W        W90993  13.744  19.355   3.330 -0.1576  0.0334 -0.1002
90130W        W90994   9.680  18.095   2.894  0.2772 -0.0173  0.0911
90131W        W90995  13.544  16.697   1.338 -0.1450  0.1394 -0.1387
90132W        W90996  12.736  18.313   3.915  0.4403 -0.0008  0.0633
90133W        W90997  14.940  18.972   1.459  0.1033 -0.0968 -0.0270
90134W        W90998  13.147  17.764   5.111  0.0263  0.2484 -0.2282
90135W        W90999  11.468  16.424   0.342 -0.0834  0.0657 -0.3760
90136W        W91000  14.691  14.493   2.113  0.0780  0.1361  0.0886
90137W        W91001  14.192  20.809   0.570  0.2423 -0.0318 -0.0289
90138W        W91002  12.335  15.889   1.559  0.0758 -0.0128  0.0563
90139W        W91003  10.687  17.743   6.533 -0.1389 -0.1158  0.1140
90140W        W91004  11.997  17.025   4.569  0.0401 -0.1850 -0.1331
90141W        W91005  14.881  14.531   3.539 -0.0821  0.0773  0.1797
90142W        W91006  14.262  17.578   4.682 -0.2028 -0.1887 -0.3285
90143W        W91007  12.422  18.531   2.668  0.0759 -0.0919 -0.0562
90144W        W91008  11.359  16.027   2.649  0.0427 -0.2513 -0.1473
90145W        W91009  11.938  16.221   9.126  0.1084  0.0259  0.2264
90146W        W91010  15.460  18.952   4.679  0.2079  0.1382 -0.1765
90147W        W91011  14.262  18.431   3.352 -0.0850 -0.0248  0.0679
90148W        W91012  13.075  16.173   8.749  0.1223 -0.2203 -0.0795
90149W        W91013  11.345  15.218   4.689 -0.1001  0.4383  0.1742
90150W        W91014  13.215  16.720   3.924 -0.2865  0.0487 -0.1234
90151W        W91015  17.079  16.587   2.235 -0.2487  0.1204 -0.0714
90152W        W91016  15.138  13.607   7.675 -0.3287  0.1159  0.0206
90153W        W91017  10.780  14.584   7.750  0.2787  0.1728  0.3099
90154W        W91018  11.485  17.523   8.124 -0.0741  0.0497  0.1472
90155W        W91019  17.426  13.487   2.665  0.1959  0.3842 -0.2019
90156W        W91020  11.610  15.402   7.160 -0.4566  0.0069  0.1104
90157W        W91021  12.405  16.994   6.888 -0.0222 -0.0328 -0.2218
90158W        W91022  13.564  15.355   3.935 -0.2940 -0.0894 -0.0467
90159W        W91023  15.696  16.438   9.210  0.2269 -0.0186 -0.0563
90160W        W91024  13.368  16.081   2.662  0.1153  0.4566 -0.4714
90161W        W91025  12.129  15.525   7.360  0.1249  0.0919 -0.2156
90162W        W91026  10.295  16.450   4.599 -0.0806  0.2382 -0.1505
90163W        W91027  10.178  18.534   3.639 -0.0727 -0.0205 -0.1416
90164W        W91028  13.121  16.853   7.460 -0.0082 -0.0114  0.2945
90165W        W91029  14.883  13.578   8.139  0.3123  0.1372  0.0332
90166W        W91030  14.373  15.332   4.275 -0.2111 -0.0396  0.2183
90167W        W91031  11.123  17.889   7.903 -0.3949 -0.5465  0.4741
90168W        W91032  11.535  16.277   4.229  0.1945  0.0899 -0.0185
90169W        W91033  10.780  17.853   3.676  0.1481 -0.0720 -0.0345
90170W        W91034  15.457  16.035   5.773 -0.1580  0.1735 -0.0786
90171W        W91035  14.166  16.313   6.331 -0.0118 -0.1886  0.0616
90172W        W91036  15.061  16.971   4.304 -0.0801  0.0022 -0.0967
90173W        W91037  10.382  15.953   6.780  0.1791 -0.2574 -0.1623
90174W        W91038  13.158  18.676   9.012 -0.0839 -0.1120 -0.2008
90175W        W91039  13.269  16.200   4.297  0.1716  0.1781  0.2226
90176W        W91040  12.371  14.933   5.304  0.0479  0.1211 -0.0355
90177W        W91041  16.289  16.883   3.419  0.0193 -0.1379 -0.0613
90178W        W91042  14.296  16.357   6.827  0.0627 -0.1264 -0.1106
90179W        W91043  12.334  15.234   3.893 -0.4672  0.1914  0.1292
90180W        W91044  17.681  18.303   5.606 -0.2679  0.0608 -0.1494
90181W        W91045  15.523  16.461   5.335  0.0719 -0.3155  0.1049
90182W        W91046  14.447  17.032   3.567  0.1041  0.2095 -0.1475
90183W        W91047  11.702  14.487   4.073 -0.0266  0.1067  0.1812
90184W        W91048  10.832  20.361   6.100 -0.2054 -0.0836 -0.2136
90185W        W91049   8.794  11.950  11.174 -0.0667 -0.0758  0.1585
90186W        W91050  14.932  16.544  10.195  0.0771 -0.0293 -0.0503
90187W        W91051  15.148  15.075   6.211 -0.1369  0.3648  0.1768
90188W        W91052  13.947  15.811   1.660 -0.0838  0.0341 -0.0263
90189W        W91053  14.315  18.966   5.373  0.1852  0.1052  0.1773
90190W        W91054  13.183  16.890   3.192 -0.0498  0.0979 -0.0913
90191W        W91055  13.614  17.527   4.955 -0.2631 -0.1368 -0.0023
90192W        W91056  17.702  17.762   6.672 -0.1515  0.0936  0.2198
90193W        W91057  14.125  14.161   6.470  0.0217  0.0262  0.0477
90194W        W91058  11.709  15.390   6.554  0.0966  0.1215  0.4273
90195W        W91059  10.022  12.755   5.939  0.0331 -0.3519  0.1437
90196W        W91060  15.442  15.231   5.300  0.1290 -0.4867  0.1936
90197W        W91061  10.338  16.577   6.163  0.0053 -0.1866 -0.0272
90198W        W91062  10.545  17.716   4.125 -0.0915 -0.1486 -0.1527
90199W        W91063  15.064  16.920   2.408  0.0873  0.1620  0.2134
90200W        W91064   9.926  19.973   7.666 -0.0673  0.1253  0.1774
90201W        W91065  13.805  16.645   4.872  0.3035 -0.2023  0.0197
90202W        W91066  13.775  15.845   2.546  0.1724 -0.0317  0.2543
90203W        W91067  13.325  16.943   4.951  0.1838 -0.0683 -0.0274
90204W        W91068  15.661  14.103   5.175 -0.0964  0.0116  0.2668
90205W        W91069  10.738  15.015   1.829  0.2858  0.1585  0.0070
90206W        W91070  13.110  15.900   3.777 -0.3397 -0.2890  0.1522
90207W        W91071  10.859  18.295   5.824  0.2705 -0.1244  0.2464
90208W        W91072  15.002  18.218   4.141  0.0811 -0.3166  0.1307
90209W        W91073  13.619  16.734   3.647  0.1444  0.2520  0.0969
90210W        W91074  11.252  15.490   5.422  0.3427 -0.0025 -0.2038
90211W        W91075  17.155  18.513   4.688  0.0465  0.0132  0.0440
90212W        W91076  17.023  17.015   4.780  0.0446  0.2146 -0.0058
90213W        W91077  13.480  17.624   8.387  0.2378  0.0196  0.3175
90214W        W91078  13.127  17.045   4.277  0.0453 -0.0637 -0.0307
90215W        W91079  12.502  15.794   2.063  0.1472 -0.1526 -0.0300
90216W        W91080  12.639  17.068   4.504 -0.1418  0.0506 -0.1873
90217W        W91081  14.128  16.758   2.494  0.1648 -0.3522 -0.3069
90218W        W91082  14.085  18.662   2.594  0.2296  0.1178 -0.0152
90219W        W91083  10.308  13.574   5.451  0.3609  0.0153  0.0813
90220W        W91084  11.349  16.279   8.936 -0.1169 -0.3609  0.0205
90221W        W91085  14.341  10.864   7.297  0.2315  0.3624 -0.1904
90222W        W91086  15.220  16.236   6.686 -0.0813 -0.1099 -0.1543
90223W        W91087  15.626  13.769   6.120  0.1788 -0.2344 -0.1628
90224W        W91088  16.819  13.282   3.174 -0.0299  0.1061  0.0763
90225W        W91089  16.904  19.295   5.329 -0.0996 -0.0453 -0.0434
90226W        W91090  12.557  15.570   7.502 -0.4243 -0.2594 -0.3386
90227W        W91091  11.745  14.402   4.952 -0.2163  0.0346  0.1591
90228W        W91092  16.062  14.118   4.854  0.2789  0.0752 -0.0027
90229W        W91093  15.208  15.901   4.018  0.1506  0.1564  0.2099
90230W        W91094  13.826  17.099   5.168  0.1982 -0.2886  0.0956
90231W        W91095  11.448  18.673   3.360 -0.0860  0.0032 -0.0000
90232W        W91096  10.325  13.490   4.414  0.1597  0.1236  0.0527
90233W        W91097  13.093  15.193   5.463  0.0894  0.1501 -0.1819
90234W        W91098  15.660  15.131   4.434 -0.1764  0.0364 -0.2063
90235W        W91099  18.110  16.990   6.163  0.1294  0.1580  0.1045
90236W        W91100  12.891  19.605   7.573  0.0576  0.0086  0.2196
90237W        W91101  11.225  16.971   5.661 -0.1752 -0.2907  0.1153
90238W        W91102  12.310  16.754   4.215 -0.0430  0.1214  0.2484
90239W        W91103  15.820  17.154   2.883  0.2742  0.1786  0.1728
90240W        W91104   9.024  11.970   6.504 -0.2141  0.1372  0.3447
90241W        W91105  12.364  16.528   4.694  0.3180 -0.1632 -0.1710
90242W        W91106  15.975  15.750   7.496  0.0455  0.1810 -0.1335
90243W        W91107  14.647  12.071   5.956 -0.1728  0.0898  0.3269
90244W        W91108  14.564  17.134   4.621 -0.0494  0.2460 -0.1606
90245W        W91109  12.207  17.284   4.150 -0.0175  0.0765  0.1570
90246W        W91110  13.965  17.488   8.511  0.0153  0.1511  0.0580
90247W        W91111  13.671  15.913   4.169  0.1343  0.0300  0.2295
90248W        W91112  16.009  17.843   5.535  0.0108  0.2675  0.2468
90249W        W91113  10.318  14.741   7.610 -0.0687 -0.0050  0.0196
90250W        W91114  15.969  17.218   3.704  0.2696  0.1343 -0.4078
90251W        W91115  15.509  16.729   6.642 -0.1088  0.3156 -0.0274
90252W        W91116  14.764  18.163   6.985 -0.0072 -0.2887  0.1156
90253W        W91117  15.828  15.804   4.742  0.2166 -0.3963  0.0951
90254W        W91118  12.072  17.253   5.060  0.3064 -0.4331 -0.2383
90255W        W91119  14.253  13.510   6.189 -0.0191 -0.1914 -0.4736
90256W        W91120  13.778  16.389   4.309 -0.0795  0.0476 -0.0424
90257W        W91121  12.014  15.834   8.722 -0.1904  0.3077 -0.1502
90258W        W91122  16.180  15.198   3.265 -0.1018 -0.1641 -0.2217
90259W        W91123  15.136  16.311   5.565 -0.0639  0.0895  0.1521
90260W        W91124  16.926  18.722   4.265 -0.2501 -0.0235  0.1644
90261W        W91125  15.882  16.903   7.903  0.0677  0.3053  0.0477
90262W        W91126  16.333  18.103   5.283 -0.0605 -0.1165 -0.0949
90263W        W91127  13.874  15.445   3.297 -0.0788  0.1970  0.2235
90264W        W91128  14.399  15.846   4.585 -0.0937 -0.1300  0.0165
90265W        W91129  12.816  13.799   6.213 -0.0209  0.2252 -0.0396
90266W        W91130  13.831  16.471   7.706  0.0262 -0.1294  0.1921
90267W        W91131  15.322  19.425   4.762 -0.2389  0.1148 -0.0704
90268W        W91132  12.447  16.270   4.271  0.2298 -0.0408 -0.0208
90269W        W91133  16.223  16.115   6.380 -0.0257  0.1059 -0.6260
90270W        W91134  12.643  16.584   9.025 -0.0599 -0.0113 -0.2478
90271W        W91135  11.633  17.120   5.357 -0.2802  0.0171  0.1262
90272W        W91136  13.916  15.921   5.148 -0.0655  0.2474 -0.1209
90273W        W91137  13.406  17.291   3.970  0.0636  0.1553  0.0840
90274W        W91138   9.198  12.894   6.273  0.1469  0.0409 -0.1346
90275W        W91139  15.856  14.540   5.052 -0.1080  0.1479 -0.0129
90276W        W91140  15.765  15.950   5.253 -0.0160 -0.2206  0.1331
90277W        W91141  13.748  16.595   6.731 -0.0312  0.1709  0.1708
90278W        W91142  12.895  18.339   5.654  0.3747  0.0341  0.0815
90279W        W91143   9.526  15.638   6.209 -0.2900 -0.0262 -0.3217
90280W        W91144  15.165  16.831   5.414  0.2609 -0.1358  0.1159
90281W        W91145  11.222  18.473   2.626 -0.1475  0.0428  0.1388
90282W        W91146  13.459  14.362   3.777  0.0879  0.0927 -0.0558
90283W        W91147  13.856  16.268   7.169  0.1162  0.1148  0.1055
90284W        W91148  14.044  13.889   4.406  0.2313  0.1155  0.1180
90285W        W91149  13.428  14.114   5.762  0.0414 -0.4945  0.0268
90286W        W91150  16.812  18.912   5.675  0.0991 -0.2269  0.1989
90287W        W91151  12.461  18.812   3.134  0.4461 -0.1555  0.0612
90288W        W91152  13.930  16.116   4.722  0.0064 -0.0794  0.0460
90289W        W91153  15.236  18.721   4.229 -0.0853 -0.2602  0.0388
90290W        W91154  11.298  15.819   1.671  0.2961 -0.0022  0.0226
90291W        W91155  14.214  16.774   5.313 -0.1883 -0.0508 -0.1196
90292W        W91156  11.959  15.580   3.763 -0.0822  0.0494  0.1132
90293W        W91157  11.124  15.305   5.863  0.2915  0.3290 -0.1903
90294W        W91158  13.320  15.904   6.049  0.1160 -0.0868  0.1921
90295W        W91159  12.096  22.258   4.631  0.2564 -0.2647  0.0114
90296W        W91160  11.213  16.576   6.072 -0.0023 -0.1649 -0.0269
90297W        W91161   9.422  13.319   4.890  0.0150  0.2622  0.2409
90298W        W91162  14.056  17.550   5.286  0.0646 -0.0991  0.1564
90299W        W91163  13.320  16.286   5.318 -0.1130  0.2071  0.3047
90300W        W91164  12.035  17.503   8.105 -0.1075  0.1212  0.2465
90301W        W91165  14.456  15.151   8.506 -0.0833 -0.1227 -0.2743
90302W        W91166  14.262  16.646   8.006 -0.0259 -0.2955  0.0058
90303W        W91167  13.816  13.743   5.586  0.0101 -0.2834 -0.0353
90304W        W91168  15.482  14.699   5.404 -0.0022  0.0486 -0.1662
90305W        W91169  10.320  15.730   5.187 -0.2685  0.0506  0.3589
90306W        W91170   9.628  21.205   2.520  0.2518 -0.2374 -0.1588
90307W        W91171  14.928  17.243   5.163 -0.2668  0.0558 -0.2369
90308W        W91172  10.790  18.495   1.242  0.1248 -0.1259  0.1616
90309W        W91173  15.973  15.066   4.907  0.0164  0.1459 -0.0349
90310W        W91174  16.729  17.868   5.459 -0.0553  0.4020 -0.3287
90311W        W91175  13.316  14.856   5.169 -0.2651  0.3101 -0.5125
90312W        W91176  11.129  20.822   1.417 -0.2014 -0.4370 -0.0174
90313W        W91177  12.115  15.598   4.289 -0.1970  0.0711 -0.0844
90314W        W91178  15.965  16.581   5.097  0.1330  0.0982  0.1233
90315W        W91179  13.063  16.423   8.314 -0.0565  0.0391 -0.0106
90316W        W91180   9.368  16.660   7.634 -0.0358 -0.0514  0.0536
90317W        W91181  10.723  17.304   3.847 -0.0279  0.0602  0.0962
90318W        W91182  14.453  15.587   5.713  0.3677 -0.3720 -0.3089
90319W        W91183  12.559  16.717   2.237 -0.2516  0.0175  0.0608
90320W        W91184  15.846  18.041   3.654  0.1405 -0.0296  0.0651
90321W        W91185  15.332  15.730   5.067 -0.1475 -0.0951 -0.0944
90322W        W91186  13.643  16.895   4.180  0.0376  0.2778  0.1039
90323W        W91187  13.704  15.037   3.017  0.1545  0.5823 -0.1287
90324W        W91188  13.446  16.076   3.417 -0.0271  0.2841  0.2197
90325W        W91189  10.796  16.815   3.991 -0.1402 -0.0309  0.2793
90326W        W91190  10.792  13.694   4.577  0.1444 -0.1472  0.1887
90327W        W91191  13.066  18.530   2.318  0.2357 -0.2244 -0.0347
90328W        W91192  10.969  14.158   5.547  0.0205  0.2780 -0.1674
90329W        W91193  12.444  15.545   3.500 -0.1032 -0.0364  0.1187
90330W        W91194  13.554  17.221   4.564 -0.1744 -0.1955  0.1133
90331W        W91195   9.004  15.954   9.254 -0.1707  0.5784 -0.2235
90332W        W91196  13.838  16.178   5.918 -0.0428 -0.2370 -0.0992
90333W        W91197  11.364  15.369   7.624 -0.0814 -0.2678  0.0073
90334W        W91198   9.814  16.051   3.230 -0.1963  0.1606 -0.0121
90335W        W91199  14.765  14.646   4.048 -0.0427 -0.1473 -0.1137
90336W        W91200  11.644  14.348   6.192  0.0952 -0.2598  0.1511
90337W        W91201  11.584  12.702   7.206 -0.1183  0.0816 -0.2358
90338W        W91202  14.553  13.405   5.374 -0.0271 -0.2980  0.2059
90339W        W91203  12.463  16.484   5.152  0.0233 -0.0575 -0.2557
90340W        W91204  15.225  16.285   7.728  0.3351  0.0706 -0.2771
90341W        W91205  14.549  15.652   2.896  0.2896  0.1385  0.1864
90342W        W91206  12.283  16.382   3.748 -0.3091  0.0364 -0.0117
90343W        W91207  11.786  15.609   5.426 -0.1861  0.0048 -0.2148
90344W        W91208  12.955  12.214   3.749  0.0715 -0.2010 -0.1033
90345W        W91209  12.004  17.451   6.120  0.2049  0.1837  0.1902
90346W        W91210  14.292  17.697   4.210 -0.1083  0.4005  0.0202
90347W        W91211  14.977  18.415   4.602  0.3616 -0.1890  0.0452
90348W        W91212  12.233  16.057   2.787 -0.1738  0.0334 -0.0937
90349W        W91213  12.052  15.838   5.040 -0.0353  0.0206  0.1917
90350W        W91214  11.300  16.295   5.653  0.1191 -0.0114 -0.1623
90351W        W91215  16.279  15.284   5.564 -0.2899  0.5675  0.2752
90352W        W91216  14.470  14.644   3.200  0.0086  0.2672 -0.0539
90353W        W91217  16.761  17.141   8.060 -0.1969  0.1186  0.1053
90354W        W91218  18.085  18.150   5.237 -0.1042 -0.4742  0.0499
90355W        W91219  15.579  17.573   3.517  0.1023  0.1040 -0.1874
90356W        W91220  13.442  18.053   3.218 -0.0933 -0.0962  0.0254
90357W        W91221  12.152  18.262   7.998 -0.0078  0.0451 -0.0458
90358W        W91222  11.885  14.568   8.249 -0.0255 -0.0237  0.0312
90359W        W91223  15.884  14.784   5.990 -0.0519  0.0935  0.3217
90360W        W91224  16.333  15.133   7.490 -0.0221 -0.1430  0.0183
90361W        W91225  13.239  17.499   5.741  0.0133  0.2086  0.0158
90362W        W91226  11.369  14.567   5.487 -0.0023  0.1130  0.2372
90363W        W91227  14.588  15.155   5.508  0.1721 -0.2435  0.1767
90364W        W91228  11.437  14.878   5.074  0.1920  0.0964 -0.2340
90365W        W91229  11.953  15.764   6.201  0.0425 -0.1672  0.3192
90366W        W91230  14.413  16.192   3.532  0.1096 -0.3426  0.2418
90367W        W91231  13.873  17.159   3.756  0.1923 -0.1338 -0.2683
90368W        W91232  15.467  18.359   4.549 -0.1204  0.1930  0.1112
90369W        W91233  13.310  14.708   6.236  0.0576  0.0530  0.3326
90370W        W91234  12.234  16.277   3.261 -0.2032  0.1152  0.0238
90371W        W91235  14.340  18.846   3.075  0.1630 -0.2371 -0.0007
90372W        W91236  13.309  17.626   4.337  0.2058  0.0512 -0.0348
90373W        W91237  11.607  16.253   6.166  0.0021  0.1501 -0.0915
90374W        W91238  13.699  14.997   3.588  0.1473 -0.2238 -0.2484
90375W        W91239  15.059  15.039   5.488 -0.0734  0.0033  0.1219
90376W        W91240  13.025  14.213   6.068 -0.0826 -0.0157  0.1631
90377W        W91241  14.392  16.849   6.041  0.2242 -0.3442  0.0975
90378W        W91242  14.810  14.850   4.925  0.2212  0.0152 -0.2307
90379W        W91243  11.248  16.516   3.849  0.0135  0.1426 -0.2266
90380W        W91244  11.580  16.267   7.548 -0.3990 -0.1992 -0.0239
90381W        W91245  12.819  16.668   5.429 -0.0977 -0.0208  0.1298
90382W        W91246  11.680  14.770   4.614  0.0413 -0.0753 -0.2279
90383W        W91247  12.168  15.843   7.769 -0.0662 -0.2726 -0.0912
90384W        W91248  14.540  16.683   3.179 -0.3585 -0.0032  0.0125
90385W        W91249  16.537  17.163   5.695 -0.2995 -0.0745 -0.0725
90386W        W91250  12.895  15.680   2.506 -0.2120  0.2824 -0.1783
90387W        W91251  15.195  18.526   8.279 -0.0154  0.0859  0.0622
90388W        W91252  13.095  15.108   6.544  0.1262  0.1165  0.0129
90389W        W91253  14.689  14.981   3.551 -0.0915 -0.4856 -0.0730
90390W        W91254  14.010  18.809   4.991  0.1355 -0.1231 -0.0459
90391W        W91255  10.682  19.857   4.916  0.0625  0.0677 -0.1763
90392W        W91256  16.777  16.289   6.148  0.1253  0.1129  0.1430
90393W        W91257  12.806  16.657   4.336 -0.1455 -0.2783  0.0655
90394W        W91258  15.427  17.315   4.344 -0.1909 -0.0910 -0.2333
90395W        W91259  12.961  15.356   4.621  0.0035 -0.2936 -0.1526
90396W        W91260  14.386  14.957   5.120 -0.0621  0.2730 -0.1650
90397W        W91261  15.283  18.373   6.334  0.3180 -0.1171 -0.0433
90398W        W91262  15.035  15.236   4.551 -0.1032  0.3483 -0.2316
90399W        W91263  12.888  17.046   5.110 -0.1218  0.0538 -0.1303
90400W        W91264  13.123  15.711   5.411 -0.0937 -0.0352 -0.1192
90401W        W91265  12.415  15.503   4.690  0.3061 -0.2145 -0.2284
90402W        W91266  14.257  15.464   7.242  0.0803  0.2300 -0.2136
90403W        W91267  12.271  17.627   3.148  0.0578  0.2124  0.0214
90404W        W91268  13.943  18.121   7.984 -0.0598 -0.2168 -0.1291
90405W        W91269  14.627  18.122   3.137  0.0795  0.2070 -0.0584
90406W        W91270  15.775  18.226   4.989  0.4918 -0.2800  0.0691
90407W        W91271  12.293  17.333   7.662 -0.0323  0.1982 -0.1586
90408W        W91272  18.217  17.910   5.870  0.0405  0.1141  0.1488
90409W        W91273  14.296  16.714   4.688 -0.2233 -0.0257  0.0084
90410W        W91274  12.121  18.188   3.984  0.1671 -0.0538 -0.0548
90411W        W91275  12.861  16.179   4.615  0.1098 -0.1771  0.1108
90412W        W91276  11.172  13.738   5.406  0.0941  0.0012  0.3907
90413W        W91277  12.601  18.409   5.198  0.0588 -0.1396  0.0296
90414W        W91278  13.991  14.265   7.329  0.2654 -0.2143  0.0168
90415W        W91279  10.404  16.988   8.096  0.1725  0.0206 -0.0990
90416W        W91280  11.229  14.068   6.419  0.2378  0.1060 -0.1075
90417W        W91281  13.460  15.131   4.470 -0.0563  0.0298 -0.2131
90418W        W91282  13.273  18.657   5.324 -0.3077 -0.3513  0.0398
90419W        W91283  13.380  16.914   6.914  0.1197  0.1385  0.1868
90420W        W91284  10.370  14.439   3.417 -0.0392  0.0386  0.0087
90421W        W91285  12.003  18.181   5.098 -0.0936 -0.1744 -0.0914
90422W        W91286  12.490  17.658   5.670 -0.0440 -0.0724  0.3936
90423W        W91287  16.221  15.817   5.386 -0.0460  0.0628 -0.1302
90424W        W91288  16.153  18.510   6.619  0.3352 -0.0879 -0.0075
90425W        W91289  14.711  17.627   3.418  0.1404 -0.1386  0.2210
90426W        W91290  10.061  17.381   7.271  0.1465  0.1453  0.1758
90427W        W91291  15.426  14.245   5.595  0.2450  0.0503 -0.1577
90428W        W91292  14.677  16.113   6.421 -0.2618  0.1795  0.3005
90429W        W91293  11.874  17.309   3.288 -0.2240 -0.0921 -0.1968
90430W        W91294  13.414  15.602   3.463  0.3631  0.0957  0.1258
90431W        W91295  14.637  15.644   6.299 -0.2286 -0.4015  0.1628
90432W        W91296  12.271  15.421   6.501 -0.1001 -0.0959  0.2582
90433W        W91297  11.759  17.438   3.821  0.0713  0.1329  0.1794
90434W        W91298  14.147  16.286   3.042  0.3098 -0.0493  0.1625
90435W        W91299   9.953  16.688   4.848 -0.1270 -0.0422 -0.3013
90436W        W91300  16.020  17.407   3.216  0.2970 -0.1359 -0.0519
90437W        W91301  13.750  15.130   6.347 -0.2575 -0.1207  0.0498
90438W        W91302  12.995  17.878   3.107 -0.2133  0.1694  0.2974
90439W        W91303  11.519  15.113   5.591  0.1702  0.0815  0.0544
90440W        W91304  12.857  15.385   8.655  0.0764 -0.1381 -0.1117
90441W        W91305  14.665  17.089   7.446 -0.1293 -0.1398  0.2801
90442W        W91306  15.525  16.384   7.091 -0.1429 -0.1349 -0.3160
90443W        W91307  12.474  18.880   1.932  0.2646 -0.2314  0.1147
90444W        W91308  14.923  17.918   8.891 -0.0795  0.0832 -0.1890
90445W        W91309  14.527  16.775   8.528  0.1762  0.1781  0.0378
90446W        W91310  12.655  15.777   4.339  0.1287 -0.0209 -0.0487
90447W        W91311  16.744  15.371   6.124  0.0991 -0.0243 -0.1416
90448W        W91312   8.868  18.259   5.740  0.3643 -0.3946 -0.1453
90449W        W91313  12.157  15.995   4.591  0.0755 -0.1298  0.2486
90450W        W91314  13.501  16.355   6.352  0.0084  0.1352  0.0479
90451W        W91315  12.168  14.925   3.535 -0.1864 -0.0906 -0.3822
90452W        W91316  11.627  17.185   5.810 -0.0627 -0.0235 -0.2795
90453W        W91317  14.748  16.715   4.995 -0.1893  0.0391  0.0822
90454W        W91318  13.115  17.364   4.768  0.0223  0.0588 -0.0874
90455W        W91319  11.658  13.316   4.902 -0.0220 -0.1227 -0.0362
90456W        W91320  12.744  16.795   3.802  0.1261 -0.0708  0.1423
90457W        W91321  14.197  16.516   5.745  0.1407 -0.0055  0.0858
90458W        W91322  13.093  19.130   4.102 -0.0810  0.0173 -0.0361
90459W        W91323  10.941  15.349   4.498 -0.3056 -0.1879 -0.0846
90460W        W91324  15.247  17.193   2.852 -0.3503 -0.0373  0.2844
90461W        W91325   9.771  19.199   9.699 -0.0608 -0.1425  0.3673
90462W        W91326  11.680  16.913   6.916  0.1689 -0.2717  0.0734
90463W        W91327  10.081  18.088   1.922  0.1297  0.0760  0.3207
90464W        W91328  11.144  16.055   6.134 -0.1359  0.0659 -0.0334
90465W        W91329  15.590  13.823   2.672  0.0797  0.1664  0.1063
90466W        W91330  11.652  13.811   4.954 -0.0419 -0.1993  0.1200
90467W        W91331  14.901  16.483   3.480 -0.1774 -0.1993 -0.0081
90468W        W91332  12.817  14.726   5.393 -0.1197 -0.0194 -0.1169
90469W        W91333  11.654  17.292   6.411 -0.0577 -0.0801  0.1932
90470W        W91334  12.897  15.546   3.389  0.2106  0.1566 -0.0244
90471W        W91335  13.793  15.675   8.484 -0.0246  0.0961 -0.0649
90472W        W91336  16.005  16.712   5.864  0.1476  0.1344 -0.1981
90473W        W91337  12.721  15.885   8.554 -0.3802  0.1323 -0.1081
90474W        W91338  12.693  19.379   5.724 -0.1510  0.2622  0.0342
90475W        W91339  15.858  17.723   4.037 -0.2946 -0.1346  0.1671
90476W        W91340  17.245  15.840   6.174 -0.2504  0.0584 -0.1606
90477W        W91341  14.683  15.980   5.377  0.0215  0.1412 -0.0850
90478W        W91342  15.235  14.826   4.351 -0.0931  0.5466 -0.0100
90479W        W91343  14.864  15.727   4.819  0.0131  0.0750  0.1762
90480W        W91344  12.874  15.583   6.643  0.0212 -0.0175  0.3024
90481W        W91345  11.353  17.023   2.586  0.1062  0.3145 -0.2228
90482W        W91346  13.906  17.512   2.915 -0.1590  0.1625  0.2063
90483W        W91347  14.267  18.678   7.838 -0.3543 -0.0407  0.1419
90484W        W91348  10.503  16.179   4.970  0.2024  0.1725  0.2477
90485W        W91349  11.806  14.243   4.497 -0.2444  0.1290  0.0222
90486W        W91350  13.712  15.104   4.936 -0.0083 -0.1451  0.0982
90487W        W91351  13.100  14.345   5.418 -0.2561 -0.2339  0.0439
90488W        W91352  17.060  16.623   5.057  0.0077 -0.1408  0.0370
90489W        W91353  15.403  15.857   1.573 -0.0391 -0.0530 -0.1236
90490W        W91354  12.510  18.003   3.374 -0.1049 -0.0508  0.1706
90491W        W91355  15.595  16.254   4.907  0.0867  0.0212 -0.0774
90492W        W91356  11.091  17.922   5.183  0.2260 -0.1844 -0.2590
90493W        W91357  14.215  11.991   5.646 -0.2027 -0.0037  0.2239
90494W        W91358  12.363  21.200   3.913 -0.3013  0.1104  0.2282
90495W        W91359  15.272  17.211   6.572 -0.1669  0.3222  0.0732
90496W        W91360  12.253  14.747   5.772 -0.0623  0.0427  0.0637
90497W        W91361  12.406  13.710   5.850 -0.0931  0.0771  0.2835
90498W        W91362  13.378  14.366   5.035  0.0039  0.1872  0.2805
90499W        W91363  15.332  14.631   5.965  0.0646 -0.2497  0.0092
90500W        W91364  11.775  16.376   5.353  0.0958  0.2226 -0.0651
90501W        W91365  14.688  12.639   4.045 -0.0457  0.2220 -0.1021
90502W        W91366  11.151  17.892   5.671 -0.0564  0.2782  0.0507
90503W        W91367  14.449  18.297   6.597  0.2910  0.2315  0.0463
90504W        W91368  13.673  14.650   4.613 -0.2012 -0.3605 -0.0433
90505W        W91369  16.661  17.370   4.503 -0.0307 -0.2453  0.0114
90506W        W91370  12.843  13.567   3.889 -0.2608 -0.2491  0.1496
90507W        W91371  15.647  14.310   6.980  0.0655 -0.0568  0.0490
90508W        W91372  11.401  13.371   7.236  0.1383 -0.1414 -0.0030
90509W        W91373  13.908  15.517   4.425  0.0491  0.2012 -0.0755
90510W        W91374  14.103  17.914   3.152 -0.0600  0.1740  0.2869
90511W        W91375  12.650  15.779   5.562  0.1054  0.2395  0.0227
90512W        W91376  17.082  18.957   1.225  0.0889  0.4589  0.1176
90513W        W91377  14.036  14.160   5.315  0.0850 -0.0130  0.0413
90514W        W91378  12.204  16.187   8.324  0.0732 -0.0942  0.1648
90515W        W91379  16.458  16.707   7.237  0.2012 -0.1605 -0.2904
90516W        W91380  15.558  15.267   3.980 -0.0756  0.2291  0.4417
90517W        W91381  10.665  15.431   6.061  0.1134 -0.2812 -0.0479
90518W        W91382  14.049  15.459   6.680 -0.0634 -0.0879  0.2374
90519W        W91383   9.986  16.899   7.205  0.0742  0.1805 -0.1984
90520W        W91384  10.642  18.572   8.328 -0.0132  0.1954  0.0506
90521W        W91385  15.817  18.656   4.760 -0.3056  0.0205  0.4942
90522W        W91386  16.080  17.565   7.699  0.0073  0.0719 -0.2513
90523W        W91387  13.359  15.476   6.857 -0.1580  0.0444 -0.3497
90524W        W91388  12.972  17.328   3.067 -0.2333  0.0148 -0.2458
90525W        W91389  12.244  16.180   5.421 -0.2493  0.1671 -0.1339
90526W        W91390  11.618  16.423   6.961 -0.0802  0.2079 -0.1991
90527W        W91391  12.345  16.423   7.623 -0.1060 -0.1928 -0.0708
90528W        W91392  12.906  16.931   8.181 -0.4812 -0.0592 -0.0222
90529W        W91393  12.161  18.612   6.125  0.0907 -0.1751 -0.1127
90530W        W91394  15.481  16.613   5.896 -0.2637 -0.0390 -0.4161
90531W        W91395  11.357  15.602   6.329 -0.0872 -0.0838  0.2333
90532W        W91396  10.753  18.228   6.397  0.0211 -0.2279 -0.1627
90533W        W91397  14.490  17.518   5.494 -0.0463  0.2513  0.0094
90534W        W91398  15.086  18.622   3.770 -0.0478 -0.0919  0.0492
90535W        W91399  10.447  18.712   9.099 -0.1343 -0.2764  0.0064
90536W        W91400  12.421  16.950   4.953  0.1635  0.1583  0.1084
90537W        W91401   9.227  13.113   4.047  0.1779  0.1827 -0.2198
90538W        W91402   9.462  16.638  10.546 -0.2305 -0.0531  0.4088
90539W        W91403  11.585  15.799  13.944  0.1949  0.0632  0.0807
90540W        W91404  14.575  15.793   7.840 -0.1465 -0.1728  0.2539
90541W        W91405  13.054  19.508   9.015 -0.1922 -0.2849  0.0914
90542W        W91406  12.605  19.196   8.886 -0.2346 -0.0975 -0.0461
90543W        W91407  13.042  15.976   8.204 -0.0170 -0.4046  0.0089
90544W        W91408  10.805  12.230  10.055 -0.0513 -0.3277 -0.0734
90545W        W91409  14.473  18.799   6.786  0.2428 -0.0019  0.1216
90546W        W91410  11.736  16.777   8.796  0.2320 -0.1027 -0.1463
90547W        W91411  14.346  14.846   9.928  0.0143  0.1151  0.1519
90548W        W91412  13.553  14.826   8.854  0.4218  0.0739  0.0860
90549W        W91413  14.424  15.592   8.783 -0.0882  0.1833  0.1736
90550W        W91414  14.439  17.173   8.909 -0.0408 -0.0694 -0.5592
90551W        W91415  13.179  17.755  12.319 -0.1091 -0.0939 -0.0635
90552W        W91416  11.187  14.901   9.877  0.1325 -0.1806  0.1194
90553W        W91417  11.754  19.709  11.724  0.0686  0.2381  0.1873
90554W        W91418  11.911  18.073   4.521  0.2046  0.0477  0.1105
90555W        W91419  12.016  15.527  10.085 -0.0238  0.0707 -0.0390
90556W        W91420   9.773  16.702  11.414 -0.4034  0.2354  0.1816
90557W        W91421  14.528  14.962   7.055 -0.0347  0.0870 -0.0842
90558W        W91422  11.588  18.520  10.781 -0.2308 -0.0781  0.0526
90559W        W91423  15.160  17.285   7.463 -0.1345  0.0923 -0.1258
90560W        W91424  11.306  18.729  11.758 -0.0558 -0.3419 -0.1991
90561W        W91425  12.079  18.742   8.938 -0.0295  0.0417 -0.0879
90562W        W91426  12.300  17.176   9.482  0.0306 -0.0451  0.1198
90563W        W91427  12.521  19.915   9.604  0.1696  0.1076  0.2297
90564W        W91428  14.347  17.336  10.423 -0.2986  0.2638  0.0215
90565W        W91429  13.873  19.495   8.419  0.1616  0.1188 -0.0194
90566W        W91430  10.814  19.405   8.541 -0.1184  0.1467  0.5016
90567W        W91431  12.966  16.176   9.287  0.0216  0.0458  0.3870
90568W        W91432  11.338  17.104  10.676 -0.0783 -0.1597  0.3488
90569W        W91433  10.273  17.831  13.311 -0.1548 -0.0061  0.1460
90570W        W91434  13.377  19.004   9.967 -0.1827  0.1346 -0.4933
90571W        W91435  14.215  17.983   9.227  0.1194 -0.0950  0.0360
90572W        W91436  10.267  15.201  12.191  0.0542  0.1343  0.1756
90573W        W91437  13.034  18.475  10.665 -0.0008  0.3839 -0.1688
90574W        W91438   9.871  14.090   8.683  0.0424 -0.0293 -0.2490
90575W        W91439   9.634  16.618  10.061  0.0460 -0.1358  0.0246
90576W        W91440  13.344  16.432   5.852  0.0379  0.0076  0.0307
90577W        W91441  14.804  18.112   9.473 -0.2170 -0.1419 -0.1306
90578W        W91442  16.751  16.333   8.227  0.2304 -0.0750  0.1256
90579W        W91443  16.676  16.189   9.580 -0.2935 -0.0712  0.3343
90580W        W91444  12.241  17.621   9.253  0.2891 -0.1488 -0.3468
90581W        W91445  14.853  16.560   8.124  0.0432  0.0761  0.3489
90582W        W91446  13.399  20.226   7.897  0.2728  0.1117  0.0214
90583W        W91447  12.838  17.516   9.242  0.1460  0.0816 -0.3005
90584W        W91448  13.759  16.417  11.564  0.0384 -0.0460 -0.1961
90585W        W91449  15.365  14.574  13.891  0.0505 -0.3195  0.0063
90586W        W91450  13.575  17.446   9.343 -0.1313  0.0508 -0.1600
90587W        W91451  14.348  15.735   8.297 -0.1271 -0.0802 -0.0718
90588W        W91452  13.569  15.629   8.969  0.0163 -0.0877  0.4622
90589W        W91453  13.111  15.678  11.304 -0.2848 -0.1310 -0.1969
90590W        W91454  12.560  19.577  10.845  0.0174  0.1070  0.1438
90591W        W91455  13.249  16.660   9.850 -0.1595 -0.0358 -0.0301
90592W        W91456  14.041  14.053   9.250 -0.1135 -0.1104  0.2534
90593W        W91457  10.469  20.178   9.600  0.3639  0.0641  0.1062
90594W        W91458  13.523  17.481   7.012  0.0297 -0.0596  0.2174
90595W        W91459  13.539  14.662   7.020  0.2598 -0.0363  0.0610
90596W        W91460  10.202  19.047  10.829  0.0669 -0.0919  0.2256
90597W        W91461  11.843  17.560   4.365  0.0750  0.2536 -0.0825
90598W        W91462  14.559  14.511   6.689  0.0804 -0.0645  0.2086
90599W        W91463  11.884  16.845  10.715  0.0178 -0.0048  0.1847
90600W        W91464  10.980  19.091  10.336  0.4247 -0.0920  0.1694
90601W        W91465  13.019  15.674   7.237 -0.2166  0.1211 -0.0094
90602W        W91466  15.643  18.470   6.832 -0.0469  0.2443  0.0514
90603W        W91467  15.171  15.937   8.573 -0.2047 -0.0779 -0.0490
90604W        W91468  13.314  17.858   7.964  0.0662  0.0365  0.1156
90605W        W91469  10.844  18.978   8.220 -0.0073 -0.0254  0.1021
90606W        W91470  14.618  15.297   9.870 -0.0190 -0.1072  0.1594
90607W        W91471  14.195  15.216   9.498 -0.1201  0.5042  0.0609
90608W        W91472  11.359  17.153  12.440 -0.0996 -0.2160  0.0933
90609W        W91473  14.035  15.892   7.501 -0.0472 -0.2804  0.0668
90610W        W91474  14.569  17.007   7.999  0.1697 -0.1754 -0.1371
90611W        W91475  14.140  16.888   9.751 -0.0977  0.2286 -0.3486
90612W        W91476  15.373  16.697   8.714  0.1495  0.2195 -0.0748
90613W        W91477  14.148  18.726   9.892 -0.0203  0.0176 -0.3110
90614W        W91478  11.209  17.539   9.415 -0.0130 -0.1021 -0.0511
90615W        W91479  11.770  19.260   8.415 -0.0574  0.1353 -0.1674
90616W        W91480  16.498  15.991   7.335 -0.0448  0.0624 -0.1692
90617W        W91481  13.983  17.714   9.574 -0.2383  0.0905  0.1722
90618W        W91482  12.697  15.985  10.415  0.0100  0.0244 -0.1082
90619W        W91483  13.785  16.697  10.501  0.0140  0.2797 -0.2196
90620W        W91484  13.649  15.087   6.791  0.2010 -0.3712 -0.1505
90621W        W91485  13.042  15.621  10.691  0.1087  0.0080  0.4039
90622W        W91486   8.802  14.449   9.117 -0.1008 -0.0402 -0.1732
90623W        W91487  13.672  13.969  11.349 -0.0843  0.0421 -0.3126
90624W        W91488  14.180  19.644   7.987 -0.0562 -0.1141 -0.0687
90625W        W91489  10.103  16.353   7.853 -0.2026 -0.0205 -0.0383
90626W        W91490  15.409  17.487  11.119  0.0436  0.0283  0.0491
90627W        W91491  14.382  13.319   9.593  0.1015  0.2535 -0.1654
90628W        W91492  14.458  13.861  13.240 -0.4780 -0.1923 -0.4934
90629W        W91493  13.372  17.665  11.174 -0.1521 -0.0355  0.1934
90630W        W91494  10.897  19.220  10.790 -0.1896  0.0401  0.0164
90631W        W91495  12.787  14.201   6.509 -0.0557  0.0527  0.1810
90632W        W91496  13.624  17.929   9.285 -0.0404  0.0834  0.0873
90633W        W91497  14.299  16.213   7.801  0.4938  0.1227 -0.1342
90634W        W91498  16.993  16.714  12.655 -0.1511 -0.1062  0.1534
90635W        W91499  13.188  19.820  10.310 -0.3139 -0.1515  0.1693
90636W        W91500  12.075  15.044   6.270  0.2201  0.2961 -0.1261
90637W        W91501  13.320  14.432   8.932  0.4906 -0.0161  0.1122
90638W        W91502  14.989  16.961   7.840  0.3782  0.1169  0.1672
90639W        W91503   9.272  16.814  13.055 -0.0088  0.0129  0.0625
90640W        W91504  13.143  15.098   5.993  0.0653 -0.0271  0.1605
90641W        W91505  14.026  16.939   9.091  0.0404  0.1504  0.0212
90642W        W91506  14.290  14.203  15.169  0.1248  0.2871 -0.1031
90643W        W91507  15.193  18.064   8.485  0.1784 -0.2686 -0.1826
90644W        W91508  12.035  17.569   9.807 -0.1263 -0.3297 -0.1330
90645W        W91509  12.103  18.614  10.030  0.1242 -0.2509 -0.1445
90646W        W91510  13.357  16.428   7.564 -0.1508  0.1117 -0.1018
90647W        W91511  12.929  16.657   6.043 -0.0488 -0.2329 -0.0886
90648W        W91512  10.101  15.436  11.461 -0.0309 -0.0178 -0.1751
90649W        W91513  13.907  15.223   8.214  0.1403 -0.3290 -0.0689
90650W        W91514  13.516  15.241   8.532  0.0849 -0.1607  0.1994
90651W        W91515  13.687  18.074   8.413 -0.1630 -0.0267 -0.1138
90652W        W91516  15.892  16.560   4.592 -0.0095  0.0567 -0.2643
90653W        W91517  14.010  16.249   8.290  0.1124 -0.0441  0.3104
90654W        W91518  14.588  16.557  12.833  0.0104  0.1108  0.0731
90655W        W91519  12.507  18.289   9.980 -0.1072 -0.1651 -0.2140
90656W        W91520  15.306  18.014  10.830 -0.0965  0.5102  0.0626
90657W        W91521  16.828  15.471   7.016 -0.0160  0.0690  0.4346
90658W        W91522  12.905  14.325   7.681  0.0095 -0.2868  0.1349
90659W        W91523  13.642  17.172   8.835 -0.1788 -0.1809  0.1288
90660W        W91524  12.432  17.810  10.228  0.0012 -0.2979 -0.0578
90661W        W91525  17.123  18.057   8.926 -0.0121  0.0925  0.0063
90662W        W91526  12.707  15.986   9.782  0.2626  0.0051 -0.1315
90663W        W91527  13.910  14.349  12.206 -0.0440  0.0650  0.4152
90664W        W91528  10.610  17.743   8.633 -0.4203  0.2341 -0.1072
90665W        W91529  14.490  16.526   9.833 -0.2232 -0.0505 -0.1166
90666W        W91530  13.640  18.509  11.194  0.1359  0.0196  0.0910
90667W        W91531  12.821  16.843   8.629 -0.2357 -0.0682 -0.0693
90668W        W91532  12.803  19.219   8.320  0.1927 -0.3346  0.0314
90669W        W91533  12.449  16.375  11.434 -0.0184  0.0177  0.0137
90670W        W91534  13.268  13.720   7.330 -0.0816  0.2198 -0.0500
90671W        W91535  16.386  14.838   8.021 -0.1702 -0.1157 -0.3459
90672W        W91536  15.189  16.945  10.039 -0.0098 -0.1045 -0.2052
90673W        W91537  11.090  14.828  10.736  0.0868 -0.3125 -0.2078
90674W        W91538  13.764  12.997   8.610  0.0252 -0.0273  0.0045
90675W        W91539  16.407  16.540   9.710  0.2912  0.0630 -0.1750
90676W        W91540  13.883  17.735  10.162 -0.1157  0.0589 -0.3654
90677W        W91541  11.652  17.977  10.801  0.3119 -0.1569 -0.1614
90678W        W91542  10.268  13.740   4.922 -0.4675  0.2950 -0.1198
90679W        W91543  13.430  17.653   8.864  0.1661  0.3655  0.0349
90680W        W91544  12.007  17.134   9.067  0.2540 -0.1082 -0.0943
90681W        W91545  12.070  16.670   6.751 -0.0705  0.0706 -0.1340
90682W        W91546  16.560  19.344  11.781  0.0262 -0.1541  0.0149
90683W        W91547  14.824  13.084   7.068  0.2123 -0.1957 -0.0779
90684W        W91548  14.776  13.907   8.774 -0.0866  0.0010  0.0100
90685W        W91549  14.556  19.559   7.499 -0.0534  0.2017 -0.0082
90686W        W91550  12.794  17.772  11.184  0.1821  0.2502  0.1530
90687W        W91551  15.021  18.967   8.053 -0.1351  0.1738 -0.3090
90688W        W91552  14.503  16.790   9.357  0.2747  0.0719  0.1224
90689W        W91553  10.962  18.144   8.665 -0.2648  0.0578  0.0309
90690W        W91554  12.520  19.722   9.097  0.0862  0.0088  0.0132
90691W        W91555  15.306  17.075   5.810  0.0647 -0.0139 -0.1703
90692W        W91556  14.584  14.075   6.963 -0.1763  0.3104 -0.0990
90693W        W91557  14.166  12.614  13.264  0.0776 -0.0200 -0.3358
90694W        W91558  13.272  15.985   9.741  0.0686  0.0130 -0.2095
90695W        W91559  13.826  17.183   6.070 -0.0420 -0.2268 -0.2937
90696W        W91560  11.156  16.005   7.641  0.4282 -0.1749  0.1760
90697W        W91561  15.650  16.714  10.259  0.0063  0.1761  0.0051
90698W        W91562  12.637  14.385   9.634  0.0713  0.0478 -0.2659
90699W        W91563  15.585  16.833  11.305 -0.2337  0.3168 -0.3773
90700W        W91564  12.191  20.224  10.887 -0.0921  0.3685 -0.3501
90701W        W91565  15.075  16.182  11.519  0.4412  0.0666  0.1864
90702W        W91566  11.729  16.537  14.018  0.1185  0.3473 -0.1439
90703W        W91567  10.054  15.427   9.385  0.0346  0.1935 -0.1087
90704W        W91568  13.042  16.256  10.125 -0.1619  0.1474 -0.0420
90705W        W91569  13.541  18.076   7.612 -0.0232  0.4003 -0.1732
90706W        W91570  11.119  17.207  11.653  0.0095 -0.2177 -0.0865
90707W        W91571  11.717  18.385   8.273  0.2549 -0.0387  0.1881
90708W        W91572  15.067  14.035   8.326 -0.1383 -0.1151 -0.0002
90709W        W91573  13.287  16.731  10.383 -0.4331  0.1217 -0.2251
90710W        W91574  13.250  17.075   8.512 -0.1657  0.0786 -0.0144
90711W        W91575  13.143  17.627   9.677 -0.0358 -0.0565  0.0713
90712W        W91576  13.288  15.074   9.606  0.2515  0.0474  0.2540
90713W        W91577   9.856  17.816  11.105 -0.1674  0.2718  0.3183
90714W        W91578  10.760  15.911   9.602  0.1301 -0.0034 -0.0187
90715W        W91579   9.560  16.485   8.084 -0.0629 -0.2650 -0.0351
90716W        W91580  13.239  15.751   8.576 -0.0734 -0.1182 -0.0334
90717W        W91581  12.487  17.292   8.154  0.2943  0.2439  0.1825
90718W        W91582  15.796  16.913   8.433  0.0410 -0.0431 -0.1728
90719W        W91583  15.823  15.274   7.448 -0.4220  0.0668 -0.0767
90720W        W91584  10.837  15.091   9.390 -0.2303  0.0424 -0.2530
90721W        W91585  10.321  15.123   7.899 -0.3886  0.0701  0.0850
90722W        W91586  14.650  17.840  10.619  0.1947 -0.2415 -0.3313
90723W        W91587  14.224  16.919   7.657  0.2375 -0.3484 -0.0434
90724W        W91588  12.942  16.554   7.848  0.1974  0.0175 -0.0515
90725W        W91589  11.484  18.284  12.595 -0.0087  0.0759  0.0212
90726W        W91590  11.247  17.458  12.043 -0.1968 -0.0124 -0.1190
90727W        W91591  13.463  15.606   8.098 -0.2703  0.1279 -0.1082
90728W        W91592  11.863  18.305  11.156  0.2251  0.0419  0.0635
90729W        W91593  10.783  17.978   8.228  0.0077 -0.0082 -0.4113
90730W        W91594  14.645  16.741  11.646  0.3317 -0.2931  0.0882
90731W        W91595  12.591  13.330   8.138  0.0339 -0.3264  0.0981
90732W        W91596  13.446  15.036  10.693  0.0829  0.2179 -0.2525
90733W        W91597  15.264  14.482   7.470  0.0108  0.0303  0.1424
90734W        W91598  12.030  18.016   8.987 -0.2004 -0.1835 -0.2495
90735W        W91599   9.898  15.609   7.342  0.1001  0.3145  0.1436
90736W        W91600  14.073  13.819  12.372 -0.1249  0.2243  0.0812
90737W        W91601  14.423  17.451   7.737  0.0410  0.2915 -0.2708
90738W        W91602  12.080  18.032   9.534 -0.0295 -0.1564  0.1245
90739W        W91603  14.988  17.121   7.015  0.2107  0.2813  0.0764
90740W        W91604  13.075  15.143  10.098  0.0767 -0.1807  0.0629
90741W        W91605  14.261  18.379   8.538  0.0263 -0.3002 -0.0138
90742W        W91606  11.339  17.134   8.480 -0.1944  0.0586  0.0879
90743W        W91607  12.191  17.241  10.840 -0.2880 -0.2284 -0.4037
90744W        W91608  12.716  17.320   9.787 -0.0119  0.2262  0.0013
90745W        W91609  11.889  17.754   7.207  0.3699 -0.0718  0.1214
90746W        W91610  13.404  14.195   7.172 -0.1532 -0.2325  0.1742
90747W        W91611   9.107  18.001  13.588 -0.0575  0.0392  0.4475
90748W        W91612  13.727  16.008   9.842  0.0656  0.0332  0.1986
90749W        W91613  13.408  15.174   7.250  0.3640  0.2240  0.3222
90750W        W91614  12.971  16.058  12.014  0.3627  0.0644  0.0067
90751W        W91615  13.786  17.232  10.276  0.0531 -0.0403  0.0090
90752W        W91616  14.453  18.429   9.523  0.0095  0.0210 -0.2070
90753W        W91617  12.119  18.585   8.409 -0.2126 -0.1232  0.0587
90754W        W91618  15.213  18.062   6.671  0.0272  0.0227  0.0493
90755W        W91619  11.724  16.432  11.905 -0.1316  0.2356 -0.0805
90756W        W91620   9.685  18.360  14.076 -0.2808  0.2699  0.0732
90757W        W91621  14.214  14.179   7.938 -0.0429 -0.1066  0.2173
90758W        W91622  12.641  15.859  12.341 -0.2968  0.2276  0.0198
90759W        W91623  11.245  18.395  13.012 -0.0587  0.2375  0.4613
90760W        W91624  11.968  16.723   7.313 -0.2366  0.3451  0.0704
90761W        W91625  11.626  17.942   4.000 -0.0345  0.3579  0.3253
90762W        W91626  12.009  20.512  15.083 -0.1157 -0.0837 -0.0440
90763W        W91627  10.332  20.439   8.868 -0.1686 -0.0552 -0.2770
90764W        W91628  15.149  16.788  11.474 -0.0492  0.1140  0.1241
90765W        W91629  14.135  16.439   9.372 -0.0799 -0.1034  0.0133
90766W        W91630  14.600  16.225  12.269  0.0013 -0.0039  0.1663
90767W        W91631  13.808  17.546  10.648  0.0015  0.0921 -0.1493
90768W        W91632   9.246  19.270  12.221 -0.0503 -0.0562 -0.2439
90769W        W91633  13.474  15.480  10.369 -0.1317  0.1203  0.0995
90770W        W91634  15.101  19.240   9.539  0.0446 -0.2171  0.0202
90771W        W91635  13.774  14.570  10.470 -0.2347  0.0613  0.1161
90772W        W91636  14.230  18.237   7.105  0.1042 -0.0554 -0.1123
90773W        W91637  15.880  17.535   9.991 -0.0142  0.0620  0.2763
90774W        W91638  11.500  17.894  10.272 -0.1318  0.2231  0.5197
90775W        W91639  12.225  18.842  10.631  0.1418  0.0218 -0.0496
90776W        W91640  14.639  17.175  10.832 -0.0282  0.1367 -0.1228
90777W        W91641  14.107  18.497   6.081 -0.2414  0.1057  0.3282
90778W        W91642  10.777  16.025   9.106 -0.2847 -0.1770 -0.1869
90779W        W91643  13.037  16.757  10.825  0.2681 -0.1295  0.0746
90780W        W91644  13.278  16.669   9.246 -0.0847  0.1069 -0.1403
90781W        W91645  12.117  14.992   8.142  0.2069 -0.1457 -0.2624
90782W        W91646  10.757  16.061   7.359 -0.3385  0.2340 -0.1313
90783W        W91647  11.113  19.222  14.099 -0.1854 -0.0111  0.1180
90784W        W91648   9.624  19.991  11.682  0.0849 -0.2687  0.3639
90785W        W91649  15.780  17.407   8.225  0.4042 -0.1628  0.0043
90786W        W91650  14.263  15.426   7.736 -0.3792  0.5408  0.0499
90787W        W91651  13.446  16.047   9.274 -0.1027  0.0686 -0.0487
90788W        W91652  10.820  18.003  10.129 -0.0191  0.1622  0.1639
90789W        W91653  15.154  18.373   8.897 -0.0894  0.2407 -0.0904
90790W        W91654  12.363  16.222   9.472 -0.0884 -0.1697  0.1578
90791W        W91655  11.838  15.882   8.219 -0.0476 -0.3268 -0.1973
90792W        W91656  14.377  17.909   8.647  0.2194 -0.0394 -0.1628
90793W        W91657  14.503  15.376   6.796 -0.3956  0.2029  0.0051
90794W        W91658  12.914  13.106   8.539 -0.2186  0.1714 -0.1262
90795W        W91659  14.175  19.053   8.220 -0.1485  0.1299 -0.1935
90796W        W91660  14.058  17.783   7.536  0.0549  0.1552 -0.0712
90797W        W91661  12.027  16.872   7.801 -0.1910 -0.2674  0.2675
90798W        W91662  12.761  16.613  10.424 -0.2386 -0.0884 -0.3550
90799W        W91663  14.915  19.105  10.439  0.1564 -0.0462  0.4750
90800W        W91664  11.824  17.224   8.614  0.2567  0.1288  0.2828
90801W        W91665  12.245  17.462   8.625  0.1220 -0.2775 -0.1897
90802W        W91666   9.305  16.700   9.730  0.0567 -0.0529 -0.1547
90803W        W91667  11.076  20.157   8.717 -0.0862 -0.0222  0.1160
90804W        W91668  13.629  14.851   8.109  0.2020  0.0731 -0.0963
90805W        W91669  10.622  15.289  10.472  0.2801  0.0013  0.1134
90806W        W91670  17.269  17.721   5.930 -0.4226 -0.0228 -0.2678
90807W        W91671  11.523  19.319   8.884  0.0536 -0.0757 -0.2372
90808W        W91672  13.491  14.552   9.804 -0.2592  0.3000  0.0541
90809W        W91673  14.551  15.998   9.237 -0.0214  0.2735  0.0792
90810W        W91674  10.657  18.354  11.109 -0.4375  0.0049  0.2385
90811W        W91675  13.881  18.345  10.165 -0.0696 -0.0541 -0.2211
90812W        W91676  14.528  13.811   9.261 -0.0879  0.3114  0.4026
90813W        W91677  13.897  15.672  11.810  0.0431 -0.1548 -0.0300
90814W        W91678  10.253  18.085  11.045  0.1570 -0.0519  0.1029
90815W        W91679  12.590  17.783   7.415  0.0931 -0.0082  0.0546
90816W        W91680  11.407  14.447  10.777 -0.1607 -0.2375  0.1403
90817W        W91681  11.591  17.937   9.264 -0.1588 -0.4532  0.0248
90818W        W91682  12.827  17.214   7.727  0.0388  0.0954  0.0238
90819W        W91683  13.739  17.272  11.104  0.0624 -0.1149  0.1826
90820W        W91684  12.391  19.121  11.022 -0.2994 -0.2016  0.0261
90821W        W91685  14.710  15.968   8.765 -0.0152  0.1609 -0.2089
90822W        W91686  14.945  16.776   9.657  0.0013  0.0590  0.4860
90823W        W91687  13.310  15.585   7.604  0.0987 -0.1365  0.2959
90824W        W91688  12.870  13.411  12.430 -0.0839  0.0487  0.1316
90825W        W91689  12.139  15.281   5.738  0.2524  0.0919  0.0235
90826W        W91690  13.541  16.206   8.070 -0.1236  0.2245  0.1205
90827W        W91691  12.923  15.209   7.596  0.2480 -0.0662  0.0753
90828W        W91692  11.060  15.626   7.348 -0.0775  0.2614 -0.1698
90829W        W91693  14.852  14.822   8.363  0.4465  0.0395 -0.3286
90830W        W91694  14.212  15.837   9.701  0.0096  0.0481  0.1547
90831W        W91695  10.488  19.090   9.405  0.1416  0.1118 -0.0765
90832W        W91696  16.138  16.462   7.627 -0.0938  0.1969 -0.0592
90833W        W91697  12.765  14.468   9.121 -0.1376  0.2921  0.0047
90834W        W91698  12.286  16.966   8.608 -0.1541 -0.0092 -0.0193
90835W        W91699  15.921  13.742  11.057  0.0718 -0.2588 -0.0534
90836W        W91700  10.748  20.984   8.872  0.2704  0.2610  0.0196
90837W        W91701  11.234  18.341   9.031  0.1767 -0.1896  0.1230
90838W        W91702  14.094  15.724  11.037 -0.1515  0.2675  0.1229
90839W        W91703  12.676  19.500  10.296 -0.0157  0.2633 -0.2938
90840W        W91704  16.039  18.998  10.673  0.3197  0.0049  0.1344
90841W        W91705  14.297  15.862   6.608 -0.1827 -0.0834 -0.0984
90842W        W91706  14.816  19.108  11.175 -0.0660  0.1432 -0.2593
90843W        W91707  13.765  19.559  10.301 -0.0154 -0.1934 -0.1107
90844W        W91708  13.133  14.750   7.903 -0.1284  0.0430 -0.3284
90845W        W91709  15.282  15.949   4.644  0.2343 -0.1230 -0.1698
90846W        W91710  12.593  17.097   9.019  0.1755  0.1504 -0.1837
90847W        W91711  12.658  15.157   5.699  0.0275  0.2999  0.1284
90848W        W91712  10.832  15.176  11.545  0.2378 -0.1365  0.2253
90849W        W91713  17.463  16.408   7.265 -0.3296  0.0947 -0.2499
90850W        W91714  14.926  17.572  10.900  0.0693  0.0756  0.1840
90851W        W91715  12.929  17.623  10.163  0.0836  0.2838 -0.1536
90852W        W91716  13.101  17.417  10.750 -0.2654 -0.1554  0.0807
90853W        W91717  13.145  18.129   8.371  0.1023 -0.0958 -0.0937
90854W        W91718  13.671  14.540   9.344  0.0835 -0.0884  0.1478
90855W        W91719  10.339  17.741  11.843 -0.2163 -0.1242  0.1442
90856W        W91720  11.673  17.098   8.113  0.0957 -0.1777 -0.2755
90857W        W91721  11.105  18.944  11.215 -0.0232  0.1777  0.1160
90858W        W91722  15.154  18.451   7.078 -0.1137 -0.2173 -0.2908
90859W        W91723  10.458  16.517  10.381 -0.1901 -0.0506  0.0049
90860W        W91724  15.869  17.267  11.229 -0.1734  0.2873  0.2569
90861W        W91725  11.750  17.953   8.006 -0.3183  0.2112  0.2600
90862W        W91726  13.027  17.487   8.210  0.0164  0.1885  0.0023
90863W        W91727  14.052  17.016   8.509  0.0008 -0.2008  0.1563
90864W        W91728  10.332  16.366   7.066 -0.2289 -0.0015  0.0354
90865W        W91729  14.398  19.862   7.106  0.0520  0.1198 -0.1060
90866W        W91730  11.790  16.686   6.271 -0.1399 -0.1722 -0.0130
90867W        W91731  14.115  17.362   9.954  0.0305 -0.0279  0.0642
90868W        W91732  14.742  15.645   7.341 -0.0369 -0.0367  0.0865
90869W        W91733  15.942  16.600  11.997  0.0345 -0.1192  0.3364
90870W        W91734  13.172  16.180  11.182  0.1775  0.0515 -0.1851
90871W        W91735  14.820  16.186  13.703 -0.2693 -0.1667 -0.2177
90872W        W91736  13.921  17.963   8.834  0.1476  0.0896 -0.0544
90873W        W91737  12.156  17.803  10.675 -0.0061  0.0714  0.0325
90874W        W91738  12.959  17.596  11.708  0.3714  0.1392  0.0480
90875W        W91739  13.616  16.659   8.415 -0.0345  0.0253 -0.2143
90876W        W91740  13.399  16.931   5.916 -0.1518 -0.0445  0.1522
90877W        W91741   9.391  17.541  10.935  0.2641 -0.2619  0.0510
90878W        W91742  12.957  16.129   5.813  0.2694  0.0320 -0.0961
90879W        W91743  15.239  16.292   8.975  0.4291 -0.1188  0.0509
90880W        W91744  10.080  21.153   8.065 -0.1101  0.2582  0.2474
90881W        W91745  14.685  13.350   9.085  0.0804  0.1241 -0.1328
90882W        W91746  10.108  18.848  12.469  0.1060 -0.1903  0.0019
90883W        W91747  12.543  16.121   8.025 -0.4245  0.0978 -0.2378
90884W        W91748  10.782  15.045   8.023  0.1718  0.3720 -0.0652
90885W        W91749  12.844  15.567   7.923  0.3209 -0.1234  0.0781
90886W        W91750  12.539  15.601   7.002  0.0159 -0.3313  0.4467
90887W        W91751  13.257  15.222  11.119  0.0458  0.1676  0.0128
90888W        W91752  15.611  17.748   7.543 -0.1122 -0.0147 -0.1242
90889W        W91753  14.142  18.643  10.500  0.0156  0.2804  0.2425
90890W        W91754  11.460  17.210   9.815 -0.2688 -0.0242 -0.1498
90891W        W91755  10.991  15.934   6.956 -0.1809  0.1066  0.3468
90892W        W91756  12.730  15.537   5.063  0.0545  0.1903  0.1829
90893W        W91757  10.270  18.336   7.518 -0.0552  0.1424  0.2805
90894W        W91758  14.259  18.326  11.836 -0.0632 -0.1790 -0.0681
90895W        W91759  12.199  16.708   9.213  0.1323  0.3119  0.1927
90896W        W91760  12.148  16.473   8.753 -0.2657 -0.2015 -0.0469
90897W        W91761  12.808  16.187   5.316  0.2600 -0.2286 -0.1740
90898W        W91762  14.767  15.108  12.829 -0.0886 -0.1611  0.1549
90899W        W91763  12.949  14.847   8.798 -0.1138  0.0621 -0.0633
90900W        W91764  11.740  16.019   6.648 -0.1197 -0.2097 -0.1475
90901W        W91765  12.391  19.219  12.246 -0.4414 -0.3277  0.1143
90902W        W91766  15.649  18.543   9.698  0.0069 -0.1887 -0.0626
90903W        W91767  12.918  16.840  12.654  0.1101  0.2454 -0.2360
90904W        W91768  12.488  17.714   7.931  0.0780 -0.1241 -0.1608
90905W        W91769  12.055  18.077  10.087  0.4733  0.1586 -0.1665
90906W        W91770  16.892  17.084  10.062  0.0227  0.0380  0.4240
90907W        W91771  12.856  17.451   5.370 -0.4135  0.1545  0.0469
90908W        W91772  14.481  16.253   8.366  0.2780 -0.0094 -0.1564
90909W        W91773  11.947  17.053   9.806  0.1510  0.1534  0.0698
90910W        W91774  12.501  17.751   9.658  0.2642 -0.2785  0.0612
90911W        W91775  14.273  17.268   9.433 -0.0914  0.0250 -0.0957
90912W        W91776  13.899  15.993   9.201  0.0030 -0.2838  0.1926
90913W        W91777  11.363  16.323  12.378 -0.2158  0.1270 -0.1775
90914W        W91778  14.408  19.857   9.589  0.2861 -0.0490 -0.2183
90915W        W91779  14.592  15.574  11.184  0.0897  0.3342 -0.1945
90916W        W91780  14.939  13.027  11.551 -0.1162 -0.1830  0.0416
90917W        W91781  13.144  14.568  10.240  0.0644  0.2342 -0.0814
90918W        W91782  14.467  19.068   7.270 -0.1214 -0.1045  0.0004
90919W        W91783  11.808  16.185   9.994  0.2781 -0.2754  0.0648
90920W        W91784  13.626  16.468   9.583  0.2524  0.1640 -0.1784
90921W        W91785  12.357  16.832  11.211 -0.0540 -0.2608 -0.0517
90922W        W91786  13.143  17.104   8.982 -0.1579  0.0682 -0.1906
90923W        W91787  14.174  19.182   7.681 -0.1054  0.0827  0.0722
90924W        W91788  13.942  18.604   8.243 -0.1673  0.0143  0.1089
90925W        W91789  13.958  19.624   9.540 -0.0556  0.1508  0.0275
90926W        W91790  16.317  17.928  10.192  0.1817  0.3285  0.0921
90927W        W91791  12.566  18.525  10.470 -0.0811 -0.1518  0.3264
90928W        W91792  12.738  17.335   8.611  0.1373 -0.3008 -0.0542
90929W        W91793  12.938  18.654  10.148  0.4263 -0.1178 -0.2922
90930W        W91794  12.261  19.054   8.498  0.0946  0.0205 -0.0821
90931W        W91795  11.784  18.927  10.416  0.1895 -0.0129  0.1806
90932W        W91796   9.241  16.909  15.215 -0.0533  0.2289  0.1037
90933W        W91797  12.556  18.278   8.315  0.1316 -0.4002 -0.0873
90934W        W91798  15.144  17.713   7.692 -0.1220  0.0812 -0.2861
90935W        W91799  14.770  18.735   8.713  0.0968 -0.0387 -0.0735
90936W        W91800  12.343  13.913   5.428  0.0098  0.2078 -0.1077
90937W        W91801   8.712  19.783  15.255 -0.1385 -0.1515  0.2445
90938W        W91802  10.329  16.026  12.525 -0.1645 -0.0806  0.1188
90939W        W91803  14.604  17.869  11.904 -0.2518 -0.0342  0.1868
90940W        W91804  16.664  18.850  16.220  0.0077 -0.0056 -0.0829
90941W        W91805  11.358  20.246  13.835  0.1862  0.1071 -0.0294
90942W        W91806  13.392  15.969  10.394  0.0678 -0.1415 -0.1722
90943W        W91807  10.600  16.541  12.630  0.1878 -0.0287 -0.0652
90944W        W91808  12.551  16.841  11.707  0.2534  0.1123  0.1494
90945W        W91809  11.460  18.816  17.366  0.0877 -0.2180 -0.1699
90946W        W91810  11.912  16.609  15.662  0.1525  0.2620 -0.1888
90947W        W91811  11.668  15.445  12.191 -0.0428  0.1716 -0.2323
90948W        W91812  13.527  13.489  15.698 -0.1270  0.1158 -0.0135
90949W        W91813  15.334  17.535  10.633 -0.1793 -0.0934 -0.5762
90950W        W91814  11.657  17.701  14.536  0.1927 -0.1088 -0.0533
90951W        W91815  10.204  16.400  12.210  0.0267 -0.1859  0.0380
90952W        W91816  10.831  19.793  17.106 -0.1332 -0.0270 -0.0523
90953W        W91817  10.291  17.021  14.220  0.2360  0.1451 -0.1496
90954W        W91818  10.291  14.563  11.517 -0.0490  0.1261  0.2375
90955W        W91819  10.612  17.465  14.287  0.1262 -0.2639  0.2654
90956W        W91820  14.506  16.186  11.667 -0.0018 -0.0497 -0.2199
90957W        W91821  14.606  18.933  15.041  0.2370 -0.0643 -0.1634
90958W        W91822  15.362  15.948  11.894 -0.2383 -0.0074 -0.1885
90959W        W91823  14.319  15.041  13.687 -0.1118  0.1604  0.1620
90960W        W91824  10.445  16.202  14.746  0.0355 -0.1045  0.1093
90961W        W91825   9.315  16.958  14.214  0.1970 -0.1220 -0.5801
90962W        W91826  11.010  15.809  16.245 -0.0008  0.1009  0.1209
90963W        W91827  13.017  15.053  13.411  0.1609  0.0970 -0.2676
90964W        W91828  12.094  16.821  14.334  0.2988  0.2884 -0.1657
90965W        W91829  13.577  15.237  14.182 -0.3864 -0.0937  0.0080
90966W        W91830  13.573  15.206  12.683 -0.0070  0.1984  0.0536
90967W        W91831  11.842  16.141  12.662  0.0314  0.1973  0.0889
90968W        W91832  13.038  16.150  14.089  0.0749 -0.0025  0.1032
90969W        W91833  11.751  16.289  16.532 -0.1872  0.2676  0.2404
90970W        W91834  12.025  17.939  14.901 -0.3150 -0.2098  0.2334
90971W        W91835   9.270  17.750  16.020 -0.0418 -0.1857  0.1832
90972W        W91836  15.261  17.827  12.791  0.0680 -0.0156 -0.0148
90973W        W91837  11.088  16.007  13.814  0.0315  0.1092 -0.4259
90974W        W91838  10.638  17.786  15.399  0.0172  0.1294 -0.0898
90975W        W91839  16.087  16.227  13.425 -0.3493 -0.3130 -0.1653
90976W        W91840  15.996  15.608  14.540  0.0951 -0.0134  0.1124
90977W        W91841  12.620  16.458  10.937  0.1859 -0.1784 -0.0360
90978W        W91842  16.117  16.549  15.763 -0.4368 -0.0303  0.4845
90979W        W91843  11.236  16.547  11.526 -0.0646 -0.2052 -0.1353
90980W        W91844  14.173  17.865  13.744 -0.1498  0.2305 -0.1706
90981W        W91845   9.771  16.852  12.238  0.0384  0.0796 -0.3567
90982W        W91846  10.761  18.926  11.603  0.1671  0.1228  0.2021
90983W        W91847  12.683  14.335  11.306 -0.0500  0.0230 -0.0372
90984W        W91848  14.355  15.527  14.915 -0.2911 -0.2367 -0.1096
90985W        W91849  11.689  16.766  13.575 -0.1191 -0.0323 -0.1025
90986W        W91850  15.040  17.170  12.355 -0.0181  0.3651  0.1017
90987W        W91851  13.475  16.545  13.573 -0.0666 -0.0047  0.2578
90988W        W91852  10.035  16.426  12.953 -0.1445  0.0650 -0.1188
90989W        W91853  10.897  17.135  14.560  0.0152  0.0098  0.0892
90990W        W91854  15.326  17.300  12.764  0.0701 -0.0047 -0.5458
90991W        W91855  13.864  14.946  13.141 -0.0795  0.0187 -0.0788
90992W        W91856  11.019  16.716  12.433 -0.1200 -0.0734  0.3311
90993W        W91857  11.524  15.476  11.690 -0.3391  0.1607 -0.1946
90994W        W91858  12.204  15.854  10.709  0.1587  0.0049 -0.0255
90995W        W91859  10.982  17.970  11.077  0.0043 -0.0852  0.2007
90996W        W91860  11.695  18.433  12.022  0.1412  0.0106  0.0601
90997W        W91861  10.423  18.324  15.781 -0.2118  0.2789 -0.3314
90998W        W91862  12.010  15.439  13.218  0.1123 -0.0888  0.0972
90999W        W91863  11.909  15.883  11.199  0.0460  0.0214 -0.2611
91000W        W91864  12.751  14.751  13.708  0.2583 -0.0975  0.2405
91001W        W91865  12.838  18.148  10.322  0.0323 -0.1381  0.1033
91002W        W91866  13.844  15.166  11.917 -0.1969 -0.0906  0.1366
91003W        W91867  10.496  20.058  13.041  0.1696 -0.3026  0.2184
91004W        W91868  13.170  16.176  13.002 -0.0753  0.1618  0.3775
91005W        W91869  11.638  16.900  14.955  0.0900 -0.0766 -0.0804
91006W        W91870  13.181  16.359  11.704 -0.4284 -0.0775  0.0394
91007W        W91871  13.551  18.095  16.020 -0.0272 -0.1915 -0.2677
91008W        W91872  12.378  16.579  15.281 -0.1597 -0.1791 -0.1029
91009W        W91873  15.642  18.504  11.434  0.0013  0.1606 -0.1163
91010W        W91874  10.807  16.739  14.191  0.2358 -0.0734  0.0511
91011W        W91875  10.403  17.951  12.320 -0.3516  0.1036  0.1308
91012W        W91876  11.061  17.929  15.160  0.3472 -0.1892 -0.2916
91013W        W91877  13.337  16.590  14.087 -0.0515 -0.1038 -0.2892
91014W        W91878  12.518  17.911  11.650 -0.2036  0.0047  0.2433
91015W        W91879   8.725  16.664  16.506  0.0391 -0.2889 -0.1202
91016W        W91880  11.298  17.675  16.040 -0.2553  0.0047  0.1025
91017W        W91881  11.881  14.525  12.079 -0.0565  0.0507 -0.1017
91018W        W91882  14.924  11.951  14.805 -0.0930  0.1628 -0.1162
91019W        W91883  12.573  15.729  13.106 -0.0393  0.2907 -0.2878
91020W        W91884  14.946  16.448  13.244 -0.0774 -0.3167 -0.2350
91021W        W91885  14.171  17.432  16.988  0.0018  0.0041 -0.3957
91022W        W91886  11.977  12.628  16.165 -0.2990  0.0553 -0.2059
91023W        W91887  12.122  15.540  15.320  0.0149 -0.6868  0.3595
91024W        W91888  14.750  15.594  13.039 -0.3719  0.1138  0.1312
91025W        W91889  11.954  16.581  14.740  0.2323  0.0297 -0.1063
91026W        W91890  16.593  20.972  14.586 -0.2807  0.3346 -0.1466
91027W        W91891  10.672  19.715  10.726 -0.0640  0.1177 -0.1631
91028W        W91892  14.032  14.388  10.072 -0.1057  0.2215 -0.0327
91029W        W91893  11.596  13.678  15.393  0.3354  0.1481  0.0419
91030W        W91894  14.650  14.972  12.276  0.0081 -0.0011 -0.1363
91031W        W91895  14.655  14.790   9.387  0.1964 -0.2582 -0.0801
91032W        W91896  12.027  17.784  13.661  0.1973  0.0807 -0.2244
91033W        W91897  10.620  15.787  10.739 -0.1347  0.0613  0.1102
91034W        W91898  13.149  13.426  14.698 -0.3424  0.1582 -0.0297
91035W        W91899  14.611  18.756  10.179  0.2600 -0.1528 -0.1399
91036W        W91900  14.551  14.391  14.332 -0.0398  0.1806 -0.0437
91037W        W91901  12.634  15.422  12.595  0.3411  0.3498  0.0569
91038W        W91902  14.432  18.029  11.044 -0.3041 -0.1151 -0.1176
91039W        W91903  15.800  16.333  13.822 -0.3736 -0.0174 -0.3906
91040W        W91904  10.573  17.244  17.879  0.2867  0.0739  0.0059
91041W        W91905  12.913  18.058   9.800  0.0043 -0.2211  0.0048
91042W        W91906  14.467  16.574  13.403  0.2581  0.0250 -0.0274
91043W        W91907  11.539  16.235  13.589 -0.0556  0.0610 -0.3240
91044W        W91908  11.501  16.725  14.495 -0.0084  0.4274 -0.1951
91045W        W91909  11.553  18.506  14.198 -0.0023  0.0883  0.0603
91046W        W91910  15.538  19.768  10.945  0.2004  0.1034  0.2292
91047W        W91911  13.367  14.034  13.929 -0.1058  0.0568 -0.2748
91048W        W91912  11.836  20.704  14.652  0.2562 -0.1114  0.2799
91049W        W91913  17.662  15.797  12.079 -0.0991  0.2588 -0.1726
91050W        W91914  12.167  16.490  13.398  0.2507  0.0276  0.0304
91051W        W91915  15.021  14.234  14.009 -0.0050 -0.0521  0.1199
91052W        W91916  10.577  14.356  13.269 -0.1425 -0.2290 -0.0540
91053W        W91917  12.553  14.910  12.619 -0.1203 -0.0704  0.0216
91054W        W91918  15.825  16.745  14.157  0.0623  0.2786 -0.1677
91055W        W91919  14.252  16.690  12.414  0.0102  0.0922  0.1130
91056W        W91920  12.787  19.040  10.445 -0.2615  0.2283 -0.3223
91057W        W91921  15.639  16.811  12.903 -0.5576  0.1938 -0.1914
91058W        W91922  16.693  13.277  13.921 -0.2998  0.2898  0.3797
91059W        W91923  13.102  16.690  13.114 -0.0047  0.4016  0.2715
91060W        W91924  14.829  16.945  14.328 -0.1387  0.3789 -0.1733
91061W        W91925  11.545  13.402  13.093  0.0180 -0.0288  0.0831
91062W        W91926  13.937  18.375  14.341  0.1999  0.0188  0.4971
91063W        W91927  15.090  17.315  13.318 -0.0313 -0.4316 -0.1201
91064W        W91928  10.135  17.428  10.841  0.0361  0.1431  0.2196
91065W        W91929  13.615  17.201  15.389  0.0600  0.0229  0.1414
91066W        W91930  12.569  15.944  15.553  0.0029  0.1111  0.3318
91067W        W91931  12.332  17.314  13.106 -0.0329  0.0864 -0.2342
91068W        W91932  14.069  16.757  13.646 -0.0703  0.2251  0.1523
91069W        W91933  15.123  17.432  15.490 -0.1834 -0.4222  0.1194
91070W        W91934  11.137  16.716  14.801  0.2058 -0.1311 -0.3316
91071W        W91935  13.037  14.218  11.857  0.1349 -0.1975 -0.0896
91072W        W91936  13.051  14.903  15.577 -0.0281  0.1572 -0.1110
91073W        W91937  13.437  19.415  12.520  0.0521 -0.1921 -0.1701
91074W        W91938  12.153  15.658  12.255 -0.0108 -0.0545  0.2890
91075W        W91939  12.583  13.087   9.631 -0.1328 -0.0024  0.1137
91076W        W91940  13.531  13.752  14.795 -0.0644 -0.2982  0.1233
91077W        W91941   9.729  17.840  11.939  0.5826 -0.0042  0.4244
91078W        W91942  11.805  17.330  13.554 -0.0749 -0.2453  0.0558
91079W        W91943  13.032  16.532  14.489  0.1330  0.0631  0.0750
91080W        W91944  14.075  17.452  11.466  0.3047 -0.0907  0.1170
91081W        W91945  12.475  13.640  13.999 -0.1632  0.3499  0.1001
91082W        W91946  12.252  15.739  13.562 -0.1697  0.2476 -0.0668
91083W        W91947  13.197  18.552  14.094 -0.1922  0.1039 -0.0610
91084W        W91948  15.416  17.690  13.363  0.2077 -0.3477  0.1052
91085W        W91949  16.764  18.860  14.100  0.1638  0.0971  0.2044
91086W        W91950  13.393  14.561  12.656  0.2276  0.2105  0.3644
91087W        W91951  12.517  17.178  12.630  0.0383 -0.2086 -0.0322
91088W        W91952  13.281  16.022  12.476 -0.1700  0.2180 -0.1780
91089W        W91953  13.045  15.616  14.812 -0.1227  0.3168  0.0296
91090W        W91954  14.276  15.766  12.111 -0.0260  0.0697  0.2020
91091W        W91955  11.304  20.968   9.035 -0.0157 -0.0903  0.0311
91092W        W91956  13.222  18.523   9.767  0.2207 -0.3444  0.0721
91093W        W91957  12.453  13.911  11.259 -0.2612  0.1876  0.0323
91094W        W91958  12.887  15.803  12.745  0.2886 -0.1841 -0.0179
91095W        W91959  15.159  16.072  14.105  0.0759  0.0055 -0.1655
91096W        W91960  14.155  16.345  12.780 -0.1826 -0.0773  0.1083
91097W        W91961  13.262  17.479  14.306 -0.5131 -0.1665  0.1337
91098W        W91962  12.164  17.363  16.305  0.2250 -0.3280  0.0715
91099W        W91963  12.486  13.587  14.895  0.1407  0.0917  0.2244
91100W        W91964  15.339  15.993  10.093  0.1770  0.3745 -0.2864
91101W        W91965  11.366  17.277  11.211 -0.0641  0.0593  0.0937
91102W        W91966   9.950  18.303  14.625  0.2067 -0.2399  0.0716
91103W        W91967  13.660  16.586  12.965 -0.1345  0.2019 -0.1204
91104W        W91968  12.267  17.940  11.171  0.0199  0.3095 -0.3263
91105W        W91969  15.658  18.287  13.763  0.2054  0.1849 -0.3364
91106W        W91970  13.130  15.241  14.409 -0.0694 -0.1416 -0.0443
91107W        W91971  14.468  16.922  13.869  0.1123  0.1638  0.0699
91108W        W91972  12.743  17.191  10.953  0.1242 -0.2252  0.1284
91109W        W91973  13.800  16.516  12.479 -0.0795  0.0696  0.0131
91110W        W91974  15.688  17.107  10.817 -0.3026  0.0550 -0.2566
91111W        W91975  11.256  18.824  13.810 -0.2379  0.0080 -0.0326
91112W        W91976   8.437  19.082  13.944  0.0042 -0.2061 -0.3920
91113W        W91977  11.187  19.466  10.506 -0.1899 -0.4524 -0.4642
91114W        W91978  13.024  15.543  11.831 -0.1190 -0.2200 -0.2631
91115W        W91979  13.544  16.617  14.534  0.0610 -0.0404  0.0937
91116W        W91980  14.929  19.844   7.531 -0.0352  0.3798  0.2014
91117W        W91981  12.211  16.637  13.901  0.0475  0.1284  0.1948
91118W        W91982  14.101  19.248  14.085 -0.0701  0.2794 -0.0721
91119W        W91983  14.593  14.022  10.783  0.0690 -0.3216  0.0690
91120W        W91984  12.873  12.955  16.486  0.3841 -0.2782 -0.0271
91121W        W91985  11.677  15.398  12.694  0.0378  0.0591 -0.0742
91122W        W91986  11.067  13.486  10.740 -0.1186  0.0959  0.3067
91123W        W91987  12.348  17.423  13.597 -0.0375  0.3323 -0.1819
91124W        W91988  13.054  17.928  10.675  0.1744  0.2940  0.1129
91125W        W91989  11.756  15.351  11.147  0.0748  0.0313  0.0332
91126W        W91990  12.478  18.541  12.353 -0.0241  0.1393 -0.2271
91127W        W91991  13.118  19.064  13.384 -0.1099  0.1314  0.1567
91128W        W91992  12.507  16.163  13.752  0.0653 -0.3817 -0.0586
91129W        W91993  14.246  15.192  12.805  0.0226 -0.1560 -0.1048
91130W        W91994  11.407  14.673  13.398 -0.2993  0.0905 -0.1130
91131W        W91995  16.033  15.097  11.902  0.0095 -0.2035  0.2556
91132W        W91996  11.220  15.036  12.469  0.1749 -0.0238  0.2341
91133W        W91997  11.794  14.710  10.674 -0.1900  0.1049 -0.0610
91134W        W91998  17.085  12.971  12.813  0.0202 -0.1801 -0.1145
91135W        W91999  15.013  14.788  14.198  0.1307 -0.0622  0.0304
91136W        W92000  17.734  17.031  13.671 -0.1934  0.1680 -0.2476
91137W        W92001  14.842  17.393  12.779  0.0237 -0.0713  0.4583
91138W        W92002  13.922  14.145  10.549 -0.5086 -0.0582 -0.5012
91139W        W92003  11.313  14.397  14.082 -0.0756 -0.1839  0.1244
91140W        W92004  11.549  14.134   8.257 -0.0778  0.0777 -0.3535
91141W        W92005  11.559  15.687  14.740  0.3683  0.3445 -0.0763
91142W        W92006  13.514  17.603  12.873 -0.0178  0.1697  0.0169
91143W        W92007  14.461  18.267  10.400 -0.1071  0.1239 -0.0379
91144W        W92008  11.140  16.972   9.287  0.0348  0.1241 -0.1699
91145W        W92009  11.410  17.420  10.266  0.0055  0.1375  0.1660
91146W        W92010  13.029  15.376  12.944 -0.3970  0.1221  0.0627
91147W        W92011  12.306  16.224  12.705 -0.2476  0.1939  0.3509
91148W        W92012  12.294  16.067  15.144 -0.1694  0.2360  0.0061
91149W        W92013  15.708  14.942  13.790 -0.1432 -0.0223  0.0121
91150W        W92014  14.982  16.478  14.640 -0.0421  0.2452 -0.1912
91151W        W92015  14.489  17.016  12.684 -0.2035 -0.1833  0.1143
91152W        W92016  14.067  17.304  12.942 -0.1935 -0.0064 -0.2722
91153W        W92017  10.799  17.343  16.854  0.2765 -0.2913 -0.3440
91154W        W92018   8.879  18.189  14.040  0.0044 -0.1435  0.2491
91155W        W92019  14.377  16.388  15.648  0.2740 -0.0852  0.0855
91156W        W92020  14.941  16.588  13.993 -0.3131  0.1561  0.2952
91157W        W92021  10.874  19.319  14.858  0.1562 -0.3358  0.1139
91158W        W92022  14.529  17.635   9.107  0.0646  0.0708  0.1554
91159W        W92023  13.056  18.072  11.974 -0.1176  0.1891  0.3715
91160W        W92024  12.051  16.158  14.257 -0.0362  0.1678  0.2569
91161W        W92025  15.110  16.910  11.948 -0.0689 -0.0548 -0.1477
91162W        W92026  15.185  15.924  13.191  0.0853  0.0615  0.2977
91163W        W92027  12.333  16.374  10.564  0.1047  0.1526 -0.0003
91164W        W92028  14.630  16.105  13.233 -0.1370  0.1320 -0.1122
91165W        W92029  14.486  14.889  14.200 -0.0592 -0.0637 -0.0071
91166W        W92030  11.579  15.910  15.319 -0.1041  0.3186  0.2874
91167W        W92031  11.866  17.133  11.212 -0.0565  0.1631 -0.3948
91168W        W92032  12.594  12.412  13.943 -0.0559  0.1306  0.1222
91169W        W92033  12.357  14.102  14.814  0.1033 -0.2283 -0.2592
91170W        W92034  11.980  18.430  12.451  0.0696 -0.0035 -0.0951
91171W        W92035  16.454  18.113  13.488 -0.0186 -0.0606 -0.1852
91172W        W92036  11.788  13.824  13.602  0.1104  0.1136 -0.2228
91173W        W92037  13.135  19.598  10.765 -0.1390  0.1422 -0.1322
91174W        W92038  14.158  17.963  11.478 -0.0114 -0.0166 -0.2331
91175W        W92039  14.878  19.105  12.101 -0.1344 -0.3325 -0.0163
91176W        W92040  11.866  17.632  13.168  0.0300 -0.2303 -0.0668
91177W        W92041  12.008  16.534  12.931  0.0588 -0.0865  0.2460
91178W        W92042  12.836  13.906  12.624 -0.1268 -0.1401  0.1480
91179W        W92043  10.957  17.268  13.967 -0.0391  0.0632  0.0412
91180W        W92044  12.136  15.065  10.293  0.1600  0.0774 -0.0345
91181W        W92045  13.854  15.443  12.998  0.0443 -0.2628  0.0685
91182W        W92046   8.097  17.878  10.951 -0.1850 -0.2262 -0.1519
91183W        W92047  11.684  15.941  12.104 -0.1582  0.1820  0.3053
91184W        W92048  12.684  15.423  13.475  0.0233 -0.2039 -0.0440
91185W        W92049  10.874  17.499  11.294  0.2884  0.2906  0.0419
91186W        W92050  10.715  18.807  14.785  0.0884  0.2127 -0.2683
91187W        W92051  17.035  22.027  17.214  0.1168 -0.1295  0.0782
91188W        W92052  12.325  18.140  12.130 -0.0031  0.4252 -0.1746
91189W        W92053  14.133  15.948  11.441 -0.0911 -0.1994 -0.4432
91190W        W92054  18.765  15.342  15.028 -0.0107 -0.2964  0.0621
91191W        W92055  14.464  14.813  10.782 -0.0430  0.1987  0.1603
91192W        W92056  13.685  15.610  11.324  0.1098 -0.1912 -0.1519
91193W        W92057  12.153  17.559  11.947 -0.1341 -0.0815  0.2443
91194W        W92058  15.938  16.404  12.928  0.1166  0.4117  0.0628
91195W        W92059  13.083  15.709  13.287  0.1707  0.0575 -0.0159
91196W        W92060  10.624  16.658  14.688  0.4914 -0.3170  0.0150
91197W        W92061  14.887  14.282  15.008  0.0187  0.0816  0.3518
91198W        W92062  12.269  13.752  15.746  0.1849 -0.0275  0.0103
91199W        W92063  10.392  18.793  12.878  0.0865 -0.0864  0.0703
91200W        W92064   9.488  17.890  15.519  0.0457  0.0615  0.0182
91201W        W92065  10.354  15.470  12.735 -0.5518 -0.0993  0.0864
91202W        W92066  12.615  18.446  12.845 -0.0055 -0.2764 -0.3076
91203W        W92067  10.828  14.450  14.248 -0.3990 -0.2898 -0.1668
91204W        W92068  15.622  15.391  12.392  0.1623 -0.0936  0.1764
91205W        W92069  14.032  17.094  12.126  0.1450 -0.1790  0.4331
91206W        W92070  16.537  16.377  15.998 -0.1031 -0.0714  0.0257
91207W        W92071  12.847  13.988  14.014  0.2120 -0.0368  0.0094
91208W        W92072  11.882  17.941  12.287 -0.0206 -0.0816  0.0682
91209W        W92073  14.450  18.513  14.621 -0.1925  0.1590 -0.3037
91210W        W92074  15.210  13.727  15.084  0.1364  0.0649 -0.2296
91211W        W92075  13.123  17.056  15.254  0.3922 -0.0665 -0.2421
91212W        W92076  13.743  17.042  13.226  0.0104 -0.1774  0.1152
91213W        W92077  12.749  17.167  10.388  0.2146 -0.1540 -0.2562
91214W        W92078   9.089  17.868  12.795 -0.0359 -0.1467 -0.0238
91215W        W92079  14.150  15.291  14.099  0.0608 -0.3731 -0.2946
91216W        W92080  11.561  16.342  13.130 -0.1657 -0.1361 -0.1369
91217W        W92081  12.542  17.341  11.795 -0.2628 -0.0996  0.4329
91218W        W92082  10.006  17.603  14.769 -0.1017  0.0550 -0.1270
91219W        W92083  14.901  18.132  11.112 -0.1236  0.0157 -0.1041
91220W        W92084  15.701  15.215  13.381  0.0022 -0.0526 -0.0015
91221W        W92085  15.442  19.532   9.704 -0.2754  0.0783 -0.1413
91222W        W92086   9.511  16.727  14.737 -0.2933 -0.1338 -0.1606
91223W        W92087  12.353  15.737  14.028  0.1151  0.1325 -0.2440
91224W        W92088  14.729  18.680  11.748 -0.0906 -0.0008 -0.2698
91225W        W92089  13.574  16.777  11.891 -0.1337 -0.3779 -0.1479
91226W        W92090  15.074  14.721  12.515  0.0148 -0.0626 -0.1006
91227W        W92091  10.593  15.233  13.711 -0.0703  0.0446 -0.0285
91228W        W92092  12.616  16.351  11.904 -0.1253  0.0673  0.2291
91229W        W92093  10.902  17.153  12.180  0.0026  0.2588  0.0949
91230W        W92094  15.553  14.958  12.908 -0.1344 -0.2629 -0.4313
91231W        W92095  13.443  15.283  11.638 -0.0131  0.1852 -0.1246
91232W        W92096  14.111  15.857  13.218  0.1568 -0.1428  0.0654
91233W        W92097  15.481  14.475  11.747 -0.2024 -0.3548 -0.5207
91234W        W92098   8.692  18.472  10.497  0.1955  0.1120  0.0676
91235W        W92099  10.769  17.667  13.092 -0.1809  0.1574 -0.0104
91236W        W92100  12.336  15.143  15.033  0.1321  0.1137 -0.3068
91237W        W92101  12.370  15.847  14.646 -0.2295 -0.0431 -0.0505
91238W        W92102  15.774  13.597  12.412  0.1515  0.4635 -0.0749
91239W        W92103  15.602  16.048  12.752  0.1883  0.2144 -0.0506
91240W        W92104  13.306  18.107  13.253 -0.2678  0.1549  0.0764
91241W        W92105  12.958  13.842  14.984 -0.0817  0.0177  0.3789
91242W        W92106  12.490  12.918  13.633 -0.3574  0.1524  0.2937
91243W        W92107  13.580  14.521  13.129  0.0261 -0.3178 -0.1260
91244W        W92108   8.560  18.030  13.618  0.0085  0.1721 -0.2410
91245W        W92109  11.248  15.036  13.988  0.2008 -0.1409  0.0104
91246W        W92110  11.851  16.376  15.217 -0.0087 -0.0015 -0.1932
91247W        W92111  11.619  15.081  10.279  0.2158 -0.0330 -0.0641
91248W        W92112  14.951  17.069  13.788 -0.1381 -0.0496  0.2699
91249W        W92113  11.854  17.269  14.387 -0.0011 -0.2474  0.3857
91250W        W92114  10.091  17.184  12.615  0.2553 -0.1868 -0.1432
91251W        W92115  15.567  15.788  11.417 -0.0895 -0.1187  0.1722
91252W        W92116  13.477  16.477  10.847 -0.0532  0.1094  0.1419
91253W        W92117  12.766  15.751  14.332 -0.0017  0.1522  0.0909
91254W        W92118  10.724  15.321  12.093  0.0032  0.2976 -0.2753
91255W        W92119  12.032  18.864  13.414 -0.2052 -0.2129  0.1901
91256W        W92120  15.009  19.167   8.542 -0.1049 -0.1407 -0.1364
91257W        W92121   9.025  16.567  13.585 -0.0602  0.2477  0.0159
91258W        W92122  13.745  15.645  13.440  0.1590  0.1338  0.1261
91259W        W92123  10.931  16.856  13.731 -0.1425  0.0634 -0.3912
91260W        W92124  11.268  18.027  13.344  0.0659  0.1710 -0.3451
91261W        W92125  14.197  13.962  14.353 -0.2109  0.0005  0.0199
91262W        W92126   9.415  18.821  10.892 -0.0226  0.0677 -0.1535
91263W        W92127  14.044  19.230  11.443 -0.0404  0.3698  0.1044
91264W        W92128   7.480  18.228  14.317  0.0080 -0.1024  0.1919
91265W        W92129  13.654  13.613  16.181 -0.0317 -0.1840 -0.0280
91266W        W92130  15.119  14.635   9.456  0.2289 -0.2913 -0.0871
91267W        W92131  15.566  19.933  14.997  0.2991  0.0661  0.0141
91268W        W92132  13.112  17.451  16.123 -0.2322 -0.1275  0.2690
91269W        W92133  13.594  16.117  14.731 -0.2403 -0.0671 -0.0672
91270W        W92134  13.255  15.946  15.077  0.1155  0.2652 -0.2816
91271W        W92135   9.055  19.125  15.620 -0.1212 -0.2569 -0.2214
91272W        W92136  17.276  15.216  12.913  0.0628 -0.0934  0.0735
91273W        W92137  10.359  15.628  13.493 -0.0285 -0.2173 -0.0462
91274W        W92138  13.147  12.399  13.145 -0.3864  0.2718  0.6225
91275W        W92139  12.604  17.675  12.731 -0.1473  0.2312  0.0087
91276W        W92140  12.067  15.646  17.036 -0.1836 -0.2267  0.1161
91277W        W92141  12.479  14.698  10.931 -0.0944 -0.0760 -0.0330
91278W        W92142  10.911  16.334   9.754 -0.2373 -0.0425 -0.4170
91279W        W92143  13.739  18.234  11.670  0.1358 -0.4118  0.0955
91280W        W92144   9.934  20.067  13.379 -0.0715  0.2077  0.0231
91281W        W92145  10.665  16.088  13.553 -0.1976  0.0226 -0.0074
91282W        W92146   9.980  14.228  11.169  0.1703 -0.3422  0.2090
91283W        W92147  13.513  15.332  15.294 -0.3819 -0.1471 -0.1251
91284W        W92148  13.964  13.496  13.135 -0.1929 -0.0349 -0.1323
91285W        W92149  13.531  16.023  14.231  0.0605 -0.3213 -0.1848
91286W        W92150  13.417  18.138  10.927  0.1928  0.0901  0.1010
91287W        W92151  15.830  18.072  14.836 -0.0217 -0.0120 -0.0061
91288W        W92152  12.765  18.133  13.202  0.1233 -0.2372 -0.1109
91289W        W92153  13.590  18.677  12.066  0.0855 -0.0945 -0.0149
91290W        W92154  11.622  12.529  10.235 -0.1843  0.0382  0.2897
91291W        W92155   7.106  19.376  13.500 -0.0872 -0.3542 -0.3474
91292W        W92156  10.711  16.756  15.877  0.0060 -0.0116  0.0706
91293W        W92157  14.075  17.311  13.793  0.1833  0.2929 -0.1653
91294W        W92158  11.078  16.034  13.134  0.0089 -0.3237 -0.0620
91295W        W92159  13.042  16.806  13.672 -0.2345  0.3893  0.2248
91296W        W92160  15.930  13.745  14.476 -0.2271 -0.1723  0.0191
91297W        W92161  13.541  14.998  10.185 -0.1562  0.0103 -0.0878
91298W        W92162  16.034  13.622  11.547 -0.2774 -0.0464 -0.0566
91299W        W92163  13.270  18.061  11.374 -0.4485 -0.1288  0.1808
91300W        W92164  15.413  17.302  13.680 -0.1404 -0.2265 -0.0573
91301W        W92165  13.167  19.137  11.510 -0.0903  0.2264 -0.0172
91302W        W92166  13.719  15.603  14.942  0.0022 -0.1797 -0.1440
91303W        W92167  13.582  17.431  12.306 -0.2479 -0.2509  0.0672
91304W        W92168  15.565  13.898  14.787 -0.0328  0.0620 -0.3407
91305W        W92169  12.822  17.171  11.444 -0.0179  0.0419  0.1025
91306W        W92170  13.326  12.062  11.176  0.4381  0.0362  0.0366
91307W        W92171  14.245  18.361  13.552  0.0347  0.0754 -0.0563
91308W        W92172  12.712  17.375  14.561 -0.0650 -0.1124  0.3564
91309W        W92173  13.644  18.775  12.718  0.2807 -0.0789  0.1428
91310W        W92174  11.750  13.330  15.108  0.0233  0.0894  0.0067
91311W        W92175  12.853  15.149  11.563  0.0898 -0.2259  0.3637
91312W        W92176  13.415  18.240  12.354  0.0666  0.0912 -0.0439
91313W        W92177  10.744  17.968  14.323 -0.2085  0.3867 -0.2589
91314W        W92178   9.716  15.823  14.666 -0.0193  0.3755 -0.1519
91315W        W92179  12.505  15.823  11.851  0.2192 -0.2728  0.1390
91316W        W92180   8.984  15.408  12.244  0.1361  0.0981 -0.1887
91317W        W92181  10.580  16.266  15.454 -0.0378 -0.1558  0.1940
91318W        W92182  16.322  16.536  13.692 -0.0099  0.0787  0.0468
91319W        W92183  12.997  18.739  14.865 -0.0928 -0.0149  0.0413
91320W        W92184  15.696  19.897   9.505  0.4797  0.1426  0.1866
91321W        W92185  14.126  15.961  14.167 -0.0238  0.2963 -0.2790
91322W        W92186  12.633  18.882  12.043  0.0405  0.0307 -0.0736
91323W        W92187  11.740  19.670  14.410 -0.0142  0.1102 -0.2985
91324W        W92188  15.472  16.757  13.785  0.1259  0.2421  0.0920
91325W        W92189  12.013  16.620  16.822  0.1291 -0.0024  0.0363
91326W        W92190  10.666  18.865  11.072 -0.0079  0.0256  0.0022
91327W        W92191  14.390  17.684  12.744  0.2628  0.0061  0.2556
91328W        W92192  12.799  17.549  14.034  0.5848 -0.1249 -0.1551
91329W        W92193  12.705  17.637  13.260  0.1661  0.2000  0.0336
91330W        W92194  12.254  17.516  14.077 -0.0271 -0.0476 -0.2501
91331W        W92195  14.094  18.695  12.524  0.0452 -0.5562 -0.2650
91332W        W92196  10.499  18.519  13.411 -0.2346 -0.0746  0.2011
91333W        W92197  11.479  17.893  11.254 -0.1507  0.0735  0.3234
91334W        W92198  13.562  13.105  12.622  0.0426  0.2148  0.3263
91335W        W92199   9.619  17.082  18.880 -0.0254  0.2770  0.0376
91336W        W92200  12.133  18.433  15.143 -0.0601  0.0548  0.0793
91337W        W92201  15.396  18.199  14.308  0.0740  0.3050  0.1649
91338W        W92202  17.116  19.062  16.078  0.0324  0.1738  0.0973
91339W        W92203  12.395  19.397  16.027  0.0275  0.0146 -0.2686
91340W        W92204  14.446  15.528  15.471 -0.3493 -0.0635  0.0213
91341W        W92205  10.621  18.875  15.899  0.3477 -0.2547  0.0988
91342W        W92206  13.296  17.165  16.992 -0.1942 -0.0936  0.1859
91343W        W92207  11.467  15.229  18.141 -0.1397  0.1779  0.1385
91344W        W92208  11.007  14.568  17.969  0.0087 -0.0883  0.0099
91345W        W92209  10.618  12.858  19.701 -0.1591  0.1210 -0.0608
91346W        W92210  11.402  14.913  14.391 -0.2613 -0.0164 -0.0414
91347W        W92211  13.568  14.762  14.410 -0.2249  0.2891 -0.1382
91348W        W92212  12.687  14.716  16.952 -0.4697 -0.3387  0.0630
91349W        W92213  11.135  15.078  17.810 -0.0091  0.2225  0.0271
91350W        W92214  12.640  21.327  16.038 -0.1218 -0.0062  0.4411
91351W        W92215  12.425  15.405  14.455 -0.0597 -0.0750  0.1738
91352W        W92216   9.435  17.354  16.229  0.0824 -0.0278  0.0473
91353W        W92217  14.225  19.053  16.674 -0.0951  0.1465  0.2727
91354W        W92218  13.580  16.295  15.805  0.1388  0.0455 -0.0801
91355W        W92219  14.526  16.772  15.252  0.2083 -0.1007 -0.1170
91356W        W92220  11.474  18.422  15.544  0.0538 -0.2020 -0.3509
91357W        W92221  11.428  17.702  15.554  0.0735 -0.1140 -0.0062
91358W        W92222  12.473  18.633  14.409 -0.1999 -0.2290  0.1130
91359W        W92223  14.093  13.387  14.539 -0.0473 -0.0983  0.0982
91360W        W92224   8.014  16.815  15.981 -0.2300 -0.0663 -0.1828
91361W        W92225  12.340  16.334  15.829  0.0932 -0.1917 -0.0753
91362W        W92226  12.300  14.914  18.207  0.2981  0.3084 -0.0071
91363W        W92227  11.610  19.621  17.096 -0.1779 -0.1222 -0.1248
91364W        W92228  11.736  15.627  18.076 -0.5920  0.0294 -0.1302
91365W        W92229  11.611  17.039  18.621 -0.1710  0.0028 -0.2940
91366W        W92230  14.745  18.585  19.476 -0.0807 -0.3308  0.2697
91367W        W92231  12.123  17.908  17.581  0.4254  0.0313  0.0441
91368W        W92232  12.026  16.029  18.976  0.2157 -0.0326 -0.2420
91369W        W92233  11.311  15.357  16.102 -0.3631  0.2627  0.1660
91370W        W92234  12.479  16.260  19.381 -0.2937 -0.0267 -0.1021
91371W        W92235  11.405  13.555  16.445 -0.1575  0.2384 -0.1441
91372W        W92236  11.974  17.133  17.588 -0.1965 -0.0485 -0.1260
91373W        W92237  12.115  16.866  16.431  0.0807  0.0685 -0.1607
91374W        W92238  12.967  16.798  18.838 -0.0059 -0.4958  0.1413
91375W        W92239  10.842  14.325  16.067 -0.2395 -0.1365 -0.0051
91376W        W92240  11.921  14.491  16.323  0.0696  0.0292  0.2211
91377W        W92241  11.615  17.184  15.452  0.0311 -0.0505  0.0551
91378W        W92242  13.791  18.857  14.213  0.0520 -0.2433  0.2007
91379W        W92243   9.849  17.517  16.777 -0.3290 -0.0732 -0.1286
91380W        W92244  12.019  18.622  14.671  0.1489  0.1583  0.2755
91381W        W92245  12.409  12.779  16.557 -0.0876  0.0079  0.1686
91382W        W92246  13.624  16.801  15.013 -0.1271 -0.3375  0.2178
91383W        W92247  14.848  18.514  14.269  0.1230  0.1408  0.0796
91384W        W92248  11.335  16.161  14.869 -0.0370  0.0819 -0.2784
91385W        W92249  12.262  16.737  17.703 -0.1290 -0.0918 -0.0249
91386W        W92250  11.517  14.644  14.890 -0.1388  0.1748  0.0267
91387W        W92251  12.766  15.683  15.945 -0.0030  0.1907 -0.2646
91388W        W92252  14.667  16.705  17.087  0.1646 -0.2157  0.2527
91389W        W92253  11.470  13.932  14.103  0.2649 -0.0205 -0.3763
91390W        W92254  10.966  20.486  16.310 -0.0722  0.4484  0.0756
91391W        W92255   9.525  15.571  15.064 -0.2394 -0.1301 -0.0689
91392W        W92256  12.253  16.350  16.445 -0.2014  0.0076 -0.1995
91393W        W92257  10.386  17.285  16.026  0.0495 -0.0250 -0.2368
91394W        W92258  12.448  17.493  15.017 -0.0439 -0.3700  0.0864
91395W        W92259  13.326  14.701  15.979  0.2772  0.4451 -0.1029
91396W        W92260  10.406  17.105  17.028  0.0080  0.2463 -0.3074
91397W        W92261  14.001  17.330  16.517 -0.5812  0.0720  0.2413
91398W        W92262  10.871  17.442  15.082  0.1647 -0.3103 -0.3748
91399W        W92263  10.174  12.293  16.257  0.1403  0.1109 -0.3129
91400W        W92264  12.847  13.211  16.063  0.0460  0.1758 -0.1351
91401W        W92265  11.048  17.061  12.864 -0.0157 -0.2345  0.3544
91402W        W92266  11.253  18.061  14.475  0.2295  0.1674 -0.0149
91403W        W92267  11.477  14.504  17.117  0.2376  0.1792 -0.2152
91404W        W92268  11.091  17.613  14.609 -0.1239  0.1262 -0.0169
91405W        W92269  14.060  19.473  16.249 -0.0142  0.1916 -0.3756
91406W        W92270  13.310  14.925  12.968 -0.2437 -0.0717 -0.0093
91407W        W92271  14.882  18.309  16.381  0.2176 -0.5330 -0.0201
91408W        W92272  13.845  16.017  16.966  0.1223 -0.0561 -0.0885
91409W        W92273  14.858  18.327  15.818  0.1349 -0.0058 -0.0918
91410W        W92274  11.418  17.227  14.614  0.3562  0.2446 -0.5267
91411W        W92275  11.171  18.412  15.160 -0.2707 -0.0104  0.3652
91412W        W92276  13.179  17.689  17.174  0.0572 -0.2029  0.1172
91413W        W92277  15.663  13.881  15.753  0.0645  0.1471 -0.0402
91414W        W92278  12.003  14.041  15.298  0.4029  0.3177  0.0658
91415W        W92279  11.308  14.503  19.824  0.0798  0.2781  0.1857
91416W        W92280  11.971  14.019  16.111 -0.0132 -0.1026  0.1583
91417W        W92281  10.832  15.634  17.224  0.3142  0.0684  0.0760
91418W        W92282  13.917  14.882  14.017  0.2312  0.0180 -0.0026
91419W        W92283  13.176  13.360  16.455 -0.0642 -0.2364 -0.1406
91420W        W92284  11.096  14.051  15.046 -0.1320  0.3562  0.0034
91421W        W92285  14.332  17.445  18.238 -0.0287  0.2270  0.4674
91422W        W92286  13.435  14.684  17.314  0.2757  0.2532 -0.1465
91423W        W92287  13.036  15.927  16.694  0.1226  0.3164 -0.0357
91424W        W92288  14.233  15.985  19.164  0.0017 -0.0735 -0.2243
91425W        W92289  11.260  12.229  15.633 -0.0570  0.1693 -0.0743
91426W        W92290  14.881  17.526  17.508 -0.1196 -0.0271  0.0177
91427W        W92291  12.336  19.843  16.267  0.4791 -0.0895  0.2973
91428W        W92292  11.909  14.550  15.366  0.0480 -0.0495  0.1229
91429W        W92293  12.629  14.820  15.279 -0.4077 -0.1402 -0.0861
91430W        W92294  12.394  16.470  17.162 -0.2031  0.0789 -0.1103
91431W        W92295  13.487  16.053  17.272  0.0929 -0.1749  0.1163
91432W        W92296  10.926  15.399  18.208 -0.0251 -0.1634  0.0953
91433W        W92297  15.857  12.814  14.336 -0.0331  0.0530  0.1104
91434W        W92298  14.156  13.608  16.465  0.0985  0.0783  0.1229
91435W        W92299  12.938  15.222  17.000  0.1365 -0.3687  0.2963
91436W        W92300  10.012  16.809  16.622  0.3150 -0.1186  0.0557
91437W        W92301  13.006  14.490  15.165 -0.0327 -0.0709 -0.0897
91438W        W92302  12.578  19.633  14.593  0.2848 -0.2276  0.4086
91439W        W92303  16.151  14.564  19.155 -0.0322  0.0082  0.3317
91440W        W92304  11.472  14.874  15.343  0.0134  0.1067  0.1722
91441W        W92305  15.102  15.952  16.678 -0.1617 -0.1445 -0.0828
91442W        W92306  12.647  16.002  19.859 -0.0680 -0.0916 -0.0028
91443W        W92307  11.334  14.453  15.567  0.1128  0.2151  0.1565
91444W        W92308  12.739  16.744  17.843  0.0841  0.2342  0.0326
91445W        W92309   9.182  17.505  19.907  0.2663  0.3447 -0.0865
91446W        W92310  14.529  18.904  17.049  0.2499  0.1137 -0.0933
91447W        W92311  12.960  15.905  17.660 -0.1024 -0.0124  0.0875
91448W        W92312  13.798  16.894  19.993  0.2126 -0.0640 -0.0158
91449W        W92313  15.354  15.633  15.309 -0.1064  0.2744  0.2974
91450W        W92314  13.709  18.233  16.815 -0.1655  0.4296  0.2340
91451W        W92315  14.505  17.870  17.399 -0.1240 -0.1099  0.2386
91452W        W92316  10.559  17.588  17.415  0.0997 -0.0937  0.1886
91453W        W92317  12.999  13.348  18.303  0.2684  0.1110  0.0707
91454W        W92318  11.434  16.846  13.203  0.0964 -0.2768 -0.2219
91455W        W92319  13.148  16.009  15.717  0.1965 -0.2115 -0.1792
91456W        W92320  14.650  16.713  18.676  0.2808 -0.2386  0.1640
91457W        W92321  17.106  18.413  16.216  0.4239  0.0743  0.1652
91458W        W92322  13.496  15.205  14.755  0.0483 -0.2046  0.0466
91459W        W92323  13.488  17.751  17.842  0.2655 -0.3470  0.1205
91460W        W92324  15.123  17.869  19.258  0.0965  0.1583  0.1338
91461W        W92325  12.661  13.353  18.629 -0.3349 -0.1881  0.2387
91462W        W92326  13.671  17.634  16.771 -0.0788 -0.2033  0.2027
91463W        W92327  12.265  18.866  15.955  0.1141 -0.0636 -0.2084
91464W        W92328  11.356  18.390  17.158 -0.0698  0.4186 -0.2728
91465W        W92329  11.704  17.540  18.891  0.2298  0.3655 -0.4991
91466W        W92330  13.502  16.350  18.140 -0.1319 -0.0885  0.1065
91467W        W92331  12.987  18.026  16.356  0.1119 -0.1921  0.2906
91468W        W92332  11.817  13.921  17.698  0.2364 -0.0591  0.0033
91469W        W92333  13.324  17.578  15.572 -0.1505  0.0676  0.1088
91470W        W92334   9.185  14.897  19.002  0.0829  0.2674 -0.3761
91471W        W92335  12.627  15.593  18.645  0.1565 -0.1392  0.0199
91472W        W92336  11.760  14.574  15.801 -0.0726 -0.3017 -0.2399
91473W        W92337  12.655  15.293  15.450 -0.0722  0.0093  0.0849
91474W        W92338  11.587  19.050  14.889  0.0884  0.2387  0.5628
91475W        W92339  12.883  19.734  13.692 -0.3679  0.1626  0.0921
91476W        W92340  12.443  15.936  17.364  0.1013 -0.2551  0.0058
91477W        W92341  13.668  17.564  16.052  0.1173  0.1584  0.1934
91478W        W92342  12.348  15.095  13.465  0.0151 -0.0701  0.1357
91479W        W92343  15.205  18.946  16.870  0.1161 -0.0762 -0.1972
91480W        W92344  11.230  13.874  15.980  0.0409  0.1431 -0.4814
91481W        W92345  13.121  15.669  17.144  0.1550  0.2938 -0.3072
91482W        W92346  12.637  18.045  17.093  0.3313  0.1071 -0.2171
91483W        W92347  12.039  18.926  15.059 -0.2934 -0.0926  0.2710
91484W        W92348  12.009  16.072  15.587 -0.1324  0.0610 -0.1969
91485W        W92349  12.484  16.680  18.252  0.4144  0.0655 -0.0542
91486W        W92350  11.930  15.058  15.409  0.0542 -0.0734  0.3857
91487W        W92351  10.683  16.953  15.059 -0.0304  0.2347 -0.1387
91488W        W92352   9.483  16.505  15.355 -0.0423 -0.0865  0.2287
91489W        W92353  14.112  14.650  15.252 -0.0368  0.0517 -0.0003
91490W        W92354  12.810  14.707  16.043 -0.0581  0.1160 -0.0111
91491W        W92355  10.645  18.284  15.303  0.0383  0.1158 -0.0250
91492W        W92356  11.190  16.466  13.985  0.1120  0.2194 -0.1823
91493W        W92357  14.021  16.410  13.267 -0.3329  0.1389 -0.0030
91494W        W92358  12.458  15.717  17.839  0.2513  0.0963  0.0385
91495W        W92359  13.629  16.804  17.647 -0.0244 -0.0165  0.0132
91496W        W92360  14.598  17.279  19.400  0.1342  0.0675  0.0608
91497W        W92361  11.885  16.692  18.232 -0.3781 -0.0092 -0.0003
91498W        W92362  13.167  17.076  19.346 -0.0256  0.1205 -0.0437
91499W        W92363  12.110  15.769  18.580 -0.2969 -0.3228  0.0232
91500W        W92364  10.263  17.134  17.520  0.1205 -0.3683  0.2702
91501W        W92365  11.438  14.280  17.752  0.0554 -0.1539 -0.0379
91502W        W92366  13.120  16.983  17.501 -0.0996 -0.1419  0.0010
91503W        W92367   9.033  17.811  21.165  0.0044 -0.0070 -0.0212
91504W        W92368  11.582  19.297  14.028 -0.2316  0.0444  0.0095
91505W        W92369  13.370  16.268  16.834  0.1949 -0.1315  0.0982
91506W        W92370  13.632  14.718  15.550 -0.2482 -0.1079 -0.0403
91507W        W92371  12.172  14.106  17.430 -0.1446  0.0533  0.0040
91508W        W92372  13.716  16.043  15.331  0.3160  0.1186 -0.3205
91509W        W92373  11.621  15.807  16.888 -0.3213  0.2228 -0.1856
91510W        W92374  12.385  14.360  15.332  0.1845 -0.0683 -0.0295
91511W        W92375  10.736  21.742  18.269 -0.1500  0.2641 -0.0890
91512W        W92376  10.218  14.928  19.231  0.0459 -0.0827 -0.2540
91513W        W92377  11.397  16.817  16.677 -0.2028 -0.0872  0.0995
91514W        W92378  11.866  15.094  17.836 -0.1055 -0.0771 -0.0692
91515W        W92379  10.643  20.633  14.324  0.1031  0.0556 -0.1634
91516W        W92380  13.148  18.285  14.957 -0.2728  0.1028  0.0484
91517W        W92381  11.428  17.216  15.929 -0.0940  0.1385 -0.0589
91518W        W92382  12.349  12.449  18.929 -0.1927  0.0211  0.3903
91519W        W92383  12.708  14.186  16.598  0.0389  0.0525 -0.1157
91520W        W92384  12.349  16.770  20.429 -0.2985 -0.1178  0.1405
91521W        W92385  11.669  13.558  15.975  0.2002  0.0166  0.2236
91522W        W92386  10.423  12.911  12.219 -0.0713  0.0345 -0.0085
91523W        W92387  13.228  16.560  18.459  0.0676 -0.0088 -0.2733
91524W        W92388  14.583  18.439  15.077  0.0776 -0.0129 -0.0682
91525W        W92389  11.119  15.426  14.642 -0.0849 -0.1556  0.1474
91526W        W92390  12.844  20.169  14.695 -0.1128 -0.1307 -0.1261
91527W        W92391  10.830  14.554  22.145 -0.1656 -0.0037  0.0253
91528W        W92392   9.061  14.857  19.507 -0.0631  0.0272 -0.1735
91529W        W92393  11.037  14.071  19.693  0.1430  0.0378  0.3502
91530W        W92394   9.468  15.421  14.576  0.1251 -0.2728  0.0619
91531W        W92395  14.436  13.863  17.128  0.0844 -0.2510  0.0124
91532W        W92396  11.090  16.046  15.303  0.1654 -0.0238  0.0602
91533W        W92397  10.397  15.561  16.004  0.1275  0.2055  0.2119
91534W        W92398  12.140  13.511  17.792  0.0977  0.0364  0.1227
91535W        W92399  10.982  18.429  14.229 -0.2803 -0.0299  0.1637
91536W        W92400  12.989  15.976  18.495  0.0192  0.1364 -0.0854
91537W        W92401  12.410  17.971  15.283  0.1566 -0.0801  0.2771
91538W        W92402  12.069  13.728  20.390 -0.1158 -0.0558 -0.0006
91539W        W92403  12.277  17.953  15.799 -0.0837  0.3286 -0.1287
91540W        W92404  10.491  14.751  14.472 -0.1670  0.1589  0.1120
91541W        W92405  13.270  17.672  19.119 -0.1171 -0.0680 -0.2233
91542W        W92406  11.927  18.430  16.663 -0.3907 -0.0578 -0.1902
91543W        W92407  14.497  19.829  16.333 -0.0466 -0.0500 -0.0140
91544W        W92408   9.214  15.813  14.793 -0.0323  0.0277 -0.2998
91545W        W92409  10.123  16.130  18.545 -0.1119  0.0981  0.0271
91546W        W92410  10.158  14.914  17.945  0.1493 -0.2576  0.2058
91547W        W92411  12.587  14.670  19.425 -0.0533  0.3851  0.3161
91548W        W92412  14.098  13.273  17.811  0.0804  0.1576  0.1209
91549W        W92413  17.280  17.984  16.924  0.0544  0.1260  0.1918
91550W        W92414  13.568  17.282  14.748 -0.1963  0.0811 -0.2271
91551W        W92415  10.494  17.045  13.730 -0.2796 -0.1909 -0.1596
91552W        W92416  12.693  18.199  15.655  0.0350  0.1955  0.1891
91553W        W92417   9.904  16.138  19.505  0.0842  0.0831  0.1621
91554W        W92418  11.379  17.245  19.121 -0.0709 -0.1386  0.1969
91555W        W92419  12.279  15.218  18.590 -0.0266  0.0862  0.1537
91556W        W92420  13.824  17.903  16.382  0.0900 -0.0436 -0.3994
91557W        W92421  10.779  15.646  19.681  0.0992 -0.0358  0.1968
91558W        W92422  14.772  13.916  15.321  0.0506  0.0879  0.0221
91559W        W92423  12.105  15.194  12.029 -0.2917 -0.5273 -0.1134
91560W        W92424   7.671  15.605  15.501 -0.3865  0.0833 -0.0262
91561W        W92425  12.091  15.548  17.546 -0.1898  0.0601 -0.0498
91562W        W92426  11.870  12.222  17.350 -0.1680 -0.0619 -0.0432
91563W        W92427  13.909  17.580  15.171  0.0801  0.1593  0.1086
91564W        W92428  12.699  16.365  17.559  0.1159 -0.0164  0.1029
91565W        W92429   8.914  15.369  14.494  0.0130  0.1060  0.1457
91566W        W92430   9.602  18.525  17.091 -0.0819 -0.0360 -0.0198
91567W        W92431  11.631  14.110  15.724 -0.0865 -0.0694  0.1716
91568W        W92432  12.421  16.298  17.929  0.0080 -0.0299  0.0232
91569W        W92433  12.753  17.878  18.227  0.1017  0.2051  0.1109
91570W        W92434  12.451  19.012  13.122  0.1307 -0.1396  0.1131
91571W        W92435  13.616  18.226  12.859  0.0726 -0.0012 -0.0086
91572W        W92436  12.520  15.922  16.385 -0.0276 -0.0644  0.0622
91573W        W92437  12.608  16.788  14.430 -0.2345  0.1504 -0.3183
91574W        W92438  17.505  16.360  15.499  0.0803 -0.2493 -0.3991
91575W        W92439   9.890  19.116  14.845 -0.2566 -0.2319  0.1259
91576W        W92440   8.044  17.107  19.452  0.1354 -0.2284 -0.5032
91577W        W92441  10.959  15.527  17.703  0.0175 -0.2403  0.1395
91578W        W92442  11.200  12.883  19.731  0.1989  0.1346 -0.1815
91579W        W92443  15.244  14.174  15.405 -0.1101 -0.2028  0.0326
91580W        W92444  11.666  18.446  13.730  0.0500  0.0691 -0.3595
91581W        W92445  12.510  17.570  17.866  0.0503 -0.0567 -0.0369
91582W        W92446  10.593  18.633  16.657  0.0143 -0.0961  0.1124
91583W        W92447  14.965  16.782  16.187  0.1594  0.0675  0.1441
91584W        W92448  13.119  13.784  17.115 -0.1704 -0.2305  0.0894
91585W        W92449  10.334  14.564  16.817 -0.2907 -0.4031 -0.3199
91586W        W92450  13.540  18.705  16.684  0.2257  0.1072  0.1667
91587W        W92451  13.386  19.569  16.728  0.0821 -0.0860  0.1633
91588W        W92452  11.426  15.725  19.121  0.1855 -0.2577  0.0335
91589W        W92453  12.279  16.977  13.484 -0.0194 -0.0922 -0.0403
91590W        W92454  10.560  16.507  13.770  0.0211  0.1797  0.0910
91591W        W92455  13.922  14.878  16.935 -0.1843  0.0628  0.0357
91592W        W92456  13.385  12.968  18.060 -0.2837 -0.0743  0.0394
91593W        W92457  12.726  17.129  15.969 -0.1463  0.2157 -0.2298
91594W        W92458  13.789  16.223  13.864 -0.0438  0.2222  0.1459
91595W        W92459   9.708  16.968  15.285 -0.0860 -0.0135  0.0637
91596W        W92460  12.030  16.588  19.345 -0.2047 -0.1187  0.4549
91597W        W92461  12.965  17.322  19.853 -0.1785  0.4269 -0.0014
91598W        W92462  10.003  15.468  16.661 -0.0908 -0.0177  0.0810
91599W        W92463  11.494  18.705  16.742  0.1320 -0.1104 -0.0333
91600W        W92464  11.110  16.001  19.300 -0.1155  0.1529 -0.0681
91601W        W92465  10.061  19.501  15.210  0.0676  0.1694  0.0100
91602W        W92466  13.164  16.542  15.915 -0.0644 -0.1010 -0.4026
91603W        W92467  11.680  17.179  16.364  0.0266 -0.0153 -0.1267
91604W        W92468  12.814  13.688  16.678 -0.2878 -0.4079 -0.0420
91605W        W92469  12.694  17.901  14.778 -0.0422 -0.1163  0.1261
91606W        W92470  12.718  16.386  18.548 -0.2050  0.1671 -0.0751
91607W        W92471  12.807  14.442  15.599  0.1201 -0.2489 -0.0365
91608W        W92472  11.641  19.296  17.594 -0.1209 -0.2048  0.0758
91609W        W92473  15.836  17.801  18.455  0.2822  0.2239  0.0541
91610W        W92474  10.722  17.091  20.872 -0.0239  0.0995  0.1960
91611W        W92475  12.573  11.257  17.309 -0.0983  0.1480 -0.0668
91612W        W92476  10.592  14.240  17.094  0.1546 -0.2061  0.1605
91613W        W92477  12.415  19.315  14.947 -0.1829  0.2459 -0.0207
91614W        W92478  13.240  18.052  19.524  0.2135  0.1757 -0.1412
91615W        W92479  11.561  15.326  16.730 -0.1330  0.3288 -0.2361
91616W        W92480  14.695  15.288  14.001  0.0622 -0.1573  0.0508
91617W        W92481   8.445  14.380  16.642  0.1613  0.0776  0.0379
91618W        W92482  11.606  18.866  15.899 -0.3339 -0.1161  0.1001
91619W        W92483  14.253  14.386  13.916  0.0005  0.1498 -0.3053
91620W        W92484  12.491  13.752  18.885  0.0419 -0.1030  0.0443
91621W        W92485  12.935  18.594  13.259  0.0250  0.0665  0.2711
91622W        W92486  11.945  17.111  15.954  0.2403 -0.0435 -0.1738
91623W        W92487  13.872  14.688  14.808 -0.0062  0.2216 -0.1045
91624W        W92488  10.750  15.938  15.856  0.0727  0.1358  0.1787
91625W        W92489  11.313  13.138  20.292 -0.1245 -0.0281 -0.1267
91626W        W92490  15.244  14.210  16.575  0.0610  0.1527  0.0317
91627W        W92491  14.275  14.817  17.425 -0.1225 -0.1063  0.2432
91628W        W92492   9.514  13.210  19.594  0.2795  0.1622  0.0025
91629W        W92493  11.479  16.460  18.484  0.1995 -0.0761  0.0814
91630W        W92494  15.612  14.431  16.281 -0.0964  0.1935 -0.0854
91631W        W92495  11.289  15.821  15.859  0.2114  0.0386  0.0068
91632W        W92496  14.570  19.177  15.537  0.0447 -0.1510  0.0017
91633W        W92497  12.872  15.641  18.114 -0.4308 -0.1979  0.2537
91634W        W92498  11.672  18.625  15.154 -0.2091  0.1470  0.5086
91635W        W92499  11.812  17.041  16.994  0.0146  0.0973  0.3463
91636W        W92500  11.455  14.014  17.286 -0.3188 -0.1533 -0.0395
91637W        W92501  11.980  17.898  19.298 -0.2092  0.2880  0.0019
91638W        W92502  15.538  19.052  15.529 -0.3910  0.1642 -0.0348
91639W        W92503  15.649  15.064  15.886  0.0068  0.1004 -0.3344
91640W        W92504  13.262  19.889  14.604  0.1112  0.2161 -0.2417
91641W        W92505  12.423  17.760  19.188  0.0636  0.1221 -0.0812
91642W        W92506  11.102  13.743  15.488  0.1607 -0.0746 -0.1079
91643W        W92507  11.628  14.911  16.298 -0.3957 -0.0574  0.0801
91644W        W92508  12.525  17.153  17.550 -0.0419 -0.0577 -0.0733
91645W        W92509  10.071  15.296  15.698 -0.0227  0.1865  0.1326
91646W        W92510  12.757  15.211  18.962 -0.0468  0.0578 -0.0831
91647W        W92511  13.724  17.022  17.087 -0.2369  0.0503 -0.2541
91648W        W92512  11.187  17.081  15.249 -0.0739 -0.2104 -0.1387
91649W        W92513  10.458  18.661  18.135 -0.1272  0.2821  0.2577
91650W        W92514  11.461  17.559  17.830  0.2613  0.1859 -0.2499
91651W        W92515  10.141  16.583  14.722 -0.0704  0.0629  0.0585
91652W        W92516  17.101  13.114  18.162 -0.3290 -0.0732  0.5885
91653W        W92517  11.370  19.230  18.762 -0.0902 -0.1171 -0.1792
91654W        W92518  15.186  17.399  18.417 -0.1972 -0.2686 -0.4313
91655W        W92519  12.267  19.321  17.661  0.0127  0.1634 -0.2770
91656W        W92520  11.180  16.251  16.568 -0.2515 -0.0361 -0.0203
91657W        W92521  11.456  14.964  17.406 -0.0769 -0.1040 -0.2547
91658W        W92522  13.517  15.149  15.783  0.2332  0.3436  0.1797
91659W        W92523  10.382  14.726  17.274  0.0416 -0.4068 -0.0393
91660W        W92524  11.723  20.044  17.282 -0.0069  0.2369 -0.2408
91661W        W92525  10.420  17.230  14.701  0.3365 -0.0515  0.0499
91662W        W92526  11.983  19.992  12.905 -0.2794 -0.1077  0.0046
91663W        W92527  14.600  17.756  14.001 -0.2305 -0.1631 -0.1045
91664W        W92528  11.523  16.253  15.661  0.0421  0.2403  0.0322
91665W        W92529  13.952  14.065  16.280  0.0152  0.1164  0.0166
91666W        W92530  14.809  13.767  14.411  0.0996  0.1758 -0.4431
91667W        W92531  15.352  17.019  15.702 -0.2201 -0.0251  0.1707
91668W        W92532  10.760  18.788  19.549 -0.1928 -0.1131  0.1848
91669W        W92533  15.627  18.312  18.219  0.0519 -0.0701  0.1187
91670W        W92534  14.269  18.484  19.320 -0.0976 -0.2040  0.0171
91671W        W92535  10.077  19.008  18.756  0.2043  0.2098 -0.0453
91672W        W92536  11.899  15.375  16.128  0.0145  0.0807 -0.1832
91673W        W92537  13.587  15.663  15.718  0.0013  0.1042  0.1870
91674W        W92538  12.296  14.073  13.915  0.0261 -0.1110  0.3281
91675W        W92539  11.173  18.866  14.496  0.0038 -0.0802 -0.0888
91676W        W92540  12.844  17.432  19.176 -0.2863  0.0986 -0.0297
91677W        W92541  12.300  14.549  17.185 -0.1832 -0.2596 -0.0884
91678W        W92542  11.817  18.207  14.506  0.2209  0.1535  0.0539
91679W        W92543  11.624  18.034  14.115  0.0952 -0.2561  0.2297
91680W        W92544  10.862  16.789  20.475 -0.1299  0.1523  0.2200
91681W        W92545  10.745  17.701  15.894 -0.1013  0.3503  0.2918
91682W        W92546  10.330  13.529  19.091  0.3255 -0.0030  0.2264
91683W        W92547  12.531  15.974  18.312 -0.0391 -0.3137 -0.0484
91684W        W92548   9.729  17.832  14.407  0.1291 -0.0352 -0.0980
91685W        W92549  14.410  17.641  16.558 -0.1323  0.1411 -0.1149
91686W        W92550  14.465  17.276  15.367 -0.0783 -0.1388 -0.4922
91687W        W92551  14.725  17.551  17.021 -0.2470 -0.3025  0.2855
91688W        W92552  13.058  16.971  14.232 -0.2623  0.0250  0.0280
91689W        W92553  14.956  17.422  14.222 -0.0351 -0.0165 -0.1743
91690W        W92554  15.350  17.099  16.235  0.4268 -0.0379  0.2067
91691W        W92555  13.191  21.053  15.948  0.1378 -0.0354 -0.4759
91692W        W92556  11.691  15.879  17.372 -0.2151 -0.1287 -0.2795
91693W        W92557  13.699  17.061  19.486  0.0420  0.2312 -0.1895
91694W        W92558  11.614  15.056  15.810  0.2100  0.2650 -0.1063
91695W        W92559  11.902  17.411  14.869  0.0995 -0.1575 -0.0441
91696W        W92560  10.382  17.648  21.006  0.0093  0.1061  0.1092
91697W        W92561  14.577  17.894  16.111 -0.1495 -0.1735  0.0334
91698W        W92562  15.253  17.254  14.624  0.2335 -0.3966  0.1690
91699W        W92563  12.356  18.868  13.899 -0.0713 -0.2171  0.1750
91700W        W92564  14.372  17.551  17.728 -0.0634  0.4861 -0.0063
91701W        W92565  15.208  17.455  15.954  0.1798 -0.0633 -0.0853
91702W        W92566  14.217  17.545  16.087  0.0164  0.1743 -0.0382
91703W        W92567  12.232  12.108  13.733 -0.0288  0.2981 -0.3006
91704W        W92568  14.608  13.560  15.720  0.0998  0.0868  0.2177
91705W        W92569  11.237  13.550  18.870 -0.4033 -0.1545 -0.2141
91706W        W92570  10.383  14.333  16.286 -0.1195 -0.0104  0.0092
91707W        W92571  13.264  14.414  14.286 -0.0575  0.2544  0.2721
91708W        W92572  13.341  16.723  19.699  0.0385 -0.0238 -0.0016
91709W        W92573   9.283  18.744  15.318  0.1028 -0.1660 -0.0409
91710W        W92574  12.682  14.121  19.865  0.1274 -0.2400 -0.2873
91711W        W92575  10.899  17.608  16.401 -0.1258  0.5008  0.1880
91712W        W92576  13.179  18.772  18.727 -0.1167 -0.2587  0.1274
91713W        W92577  11.151  14.949  19.709  0.2004  0.1958 -0.2263
91714W        W92578   9.467  14.289  18.209  0.0353 -0.0939 -0.0527
91715W        W92579  10.918  16.701  15.422  0.3180 -0.1524 -0.1788
91716W        W92580  11.763  21.353  17.025 -0.0500  0.1599  0.0869
91717W        W92581  12.084  15.572  14.844  0.2165 -0.1352  0.3144
91718W        W92582  12.814  19.216  15.244  0.1102  0.2093 -0.3442
91719W        W92583  11.131  18.448  17.613  0.1049 -0.0438 -0.0822
91720W        W92584  11.820  15.327  18.478  0.0180 -0.1283  0.1274
91721W        W92585  13.557  19.916  15.330  0.1565 -0.1812  0.0702
91722W        W92586  12.184  15.386  18.081 -0.3131  0.0676  0.1713
91723W        W92587  12.640  17.603  17.325  0.0335 -0.2704  0.2843
91724W        W92588  12.837  14.780  17.445  0.2542  0.0661  0.1349
91725W        W92589  10.019  15.298  19.608 -0.1732  0.0592  0.1599
91726W        W92590  11.375  15.620  18.469  0.0698  0.1505 -0.0396
91727W        W92591  15.371  16.398  18.228  0.0175  0.1127 -0.1162
91728W        W92592  15.546  19.944  16.376 -0.0660  0.0039  0.2918
91729W        W92593  12.664  18.324  15.043  0.2321 -0.0702 -0.2490
91730W        W92594  11.105  16.215  19.753 -0.3014 -0.1095  0.0164
91731W        W92595  15.011  17.559  14.973  0.4228 -0.1383 -0.0484
91732W        W92596  11.318  16.670  21.447  0.1598  0.1636  0.1446
91733W        W92597  12.082  18.505  14.178  0.1874 -0.1886 -0.2235
91734W        W92598  10.185  17.395  13.871  0.1557 -0.3300 -0.0898
91735W        W92599  11.495  20.355  20.830  0.1244  0.2612  0.2065
91736W        W92600   9.487  17.504  23.531  0.0745 -0.1720 -0.0608
91737W        W92601  14.427  17.746  20.410 -0.1224 -0.1128  0.2168
91738W        W92602  16.688  19.655  21.436  0.1133 -0.0659 -0.2084
91739W        W92603  11.876  16.596  17.323 -0.0242  0.1364  0.3815
91740W        W92604   8.965  15.396  18.664 -0.1186 -0.0264  0.3106
91741W        W92605  10.624  15.196  19.009 -0.2831  0.3951  0.3677
91742W        W92606  11.162  18.402  19.577 -0.0925  0.0832  0.0256
91743W        W92607  11.029  15.022  23.393  0.0452  0.0443  0.3021
91744W        W92608   9.941  13.655  21.191 -0.2550  0.3954  0.0361
91745W        W92609  12.457  12.881  21.446 -0.0178 -0.0109  0.1063
91746W        W92610  13.066  14.566  20.661 -0.0734  0.0037 -0.1703
91747W        W92611  12.223  14.447  22.401  0.2996 -0.1636 -0.3498
91748W        W92612  13.289  15.437  23.242  0.2305  0.4059 -0.0602
91749W        W92613  11.132  11.622  21.018 -0.1849  0.1029 -0.1122
91750W        W92614  11.039  18.174  22.509 -0.0479  0.0983 -0.2372
91751W        W92615  10.776  18.079  22.017  0.0911 -0.1407  0.0230
91752W        W92616  12.408  18.391  18.609  0.0799 -0.0008 -0.1108
91753W        W92617  12.558  14.915  23.930  0.1631  0.0813  0.1292
91754W        W92618  14.090  15.671  22.073  0.2775 -0.2682  0.0008
91755W        W92619  13.255  15.655  24.232  0.0266  0.0184 -0.0099
91756W        W92620  15.666  16.468  22.284 -0.2376  0.0454  0.3294
91757W        W92621  11.161  16.105  21.696  0.2678 -0.2634 -0.0334
91758W        W92622  10.888  15.915  20.568 -0.3390  0.0775  0.0808
91759W        W92623  11.445  16.940  22.226 -0.1758 -0.1620 -0.0587
91760W        W92624  10.700  17.299  18.434  0.0544  0.1016  0.0319
91761W        W92625  14.461  17.029  22.529 -0.1636  0.0252  0.1936
91762W        W92626  12.881  15.388  21.343  0.1592  0.3236  0.0226
91763W        W92627  12.391  17.289  19.978  0.2204  0.2297  0.1619
91764W        W92628  11.287  16.685  22.627  0.1663  0.2057  0.2182
91765W        W92629   9.399  17.916  20.851 -0.0379  0.0971 -0.0709
91766W        W92630  14.943  17.853  21.828  0.2318 -0.2102  0.1067
91767W        W92631   9.594  16.544  19.725  0.3848 -0.0936 -0.3606
91768W        W92632  12.109  17.459  21.126  0.0466 -0.1902  0.1172
91769W        W92633  11.724  14.272  20.871 -0.1437 -0.0268  0.0276
91770W        W92634  14.628  15.731  21.821 -0.2029  0.0307  0.0101
91771W        W92635   9.788  13.198  18.728  0.3373 -0.0388 -0.3488
91772W        W92636   9.492  18.540  21.580  0.0583 -0.2798 -0.1807
91773W        W92637  14.252  18.529  18.622 -0.2950 -0.0334 -0.1141
91774W        W92638  14.039  14.278  20.576 -0.0029  0.0768 -0.1582
91775W        W92639  10.647  15.180  19.548 -0.3945 -0.1818  0.3466
91776W        W92640  15.470  15.666  21.328  0.1204  0.0712 -0.0553
91777W        W92641  11.350  17.401  22.045 -0.1135  0.2622 -0.2003
91778W        W92642  14.431  16.971  20.114  0.1203  0.2373  0.0794
91779W        W92643  10.017  17.430  17.957  0.0830  0.1011 -0.0198
91780W        W92644  11.038  16.431  17.132  0.0142 -0.0842  0.0790
91781W        W92645  13.005  12.409  21.569  0.1499 -0.0093 -0.2943
91782W        W92646  13.105  16.703  20.184 -0.0380  0.2940  0.0620
91783W        W92647  10.708  13.925  20.402  0.2220  0.1596  0.0133
91784W        W92648  12.678  15.125  20.048  0.1620  0.1886  0.3799
91785W        W92649  11.872  15.729  20.922  0.3878  0.3175  0.1046
91786W        W92650  10.902  15.492  18.703  0.1496 -0.0004 -0.1785
91787W        W92651  11.463  17.374  19.871  0.2396 -0.0545 -0.0148
91788W        W92652  13.181  18.222  21.222 -0.0546 -0.0382  0.1283
91789W        W92653  12.005  15.063  20.763  0.1624  0.2197  0.0071
91790W        W92654  12.096  17.861  18.822 -0.2401  0.0272 -0.2858
91791W        W92655  10.340  14.525  22.054 -0.1438  0.1446  0.1828
91792W        W92656  14.647  16.698  19.672  0.0716 -0.2876 -0.0620
91793W        W92657   9.542  17.786  21.314  0.0116  0.4038 -0.0031
91794W        W92658  12.478  17.363  19.511 -0.3729  0.0986  0.0657
91795W        W92659  14.747  18.693  15.472 -0.0028 -0.2085  0.0140
91796W        W92660   9.802  19.902  20.986 -0.1813  0.0103  0.0894
91797W        W92661  13.305  17.653  20.512  0.0719 -0.1376  0.1704
91798W        W92662  11.867  14.429  24.432 -0.1075  0.3792 -0.0203
91799W        W92663  10.815  17.019  19.870 -0.1709  0.0856  0.1081
91800W        W92664  14.886  14.634  22.856  0.0894 -0.0683  0.0873
91801W        W92665   9.764  18.048  19.224 -0.0928 -0.2416 -0.0045
91802W        W92666   9.576  15.072  16.955 -0.1689 -0.3250  0.1651
91803W        W92667   9.955  16.543  20.205 -0.4959 -0.1897  0.1020
91804W        W92668  11.979  17.232  22.182 -0.2738 -0.0022  0.1489
91805W        W92669  14.507  17.259  20.546  0.4493 -0.0492 -0.0735
91806W        W92670   9.762  13.898  20.828 -0.2337 -0.0590 -0.0404
91807W        W92671  15.533  17.509  18.801 -0.0108  0.0570  0.3049
91808W        W92672  13.094  12.458  22.070  0.1496 -0.1128  0.0644
91809W        W92673  14.427  19.500  18.463 -0.0120  0.2862 -0.1739
91810W        W92674  12.470  17.933  23.129 -0.4604 -0.1617  0.0696
91811W        W92675  11.395  15.193  18.733 -0.0510  0.2833  0.1083
91812W        W92676  11.280  17.601  20.357  0.1548 -0.3968  0.0723
91813W        W92677  12.980  17.330  18.709 -0.3372  0.1693 -0.1390
91814W        W92678  11.073  16.297  21.201 -0.0458  0.2194  0.0956
91815W        W92679  10.220  14.704  22.903 -0.1928 -0.2960  0.1479
91816W        W92680   9.253  14.745  20.975 -0.2592 -0.0766 -0.1757
91817W        W92681  10.646  13.853  18.974 -0.1035  0.1136 -0.0228
91818W        W92682  12.473  13.014  20.957  0.3201  0.0887  0.0006
91819W        W92683   9.300  14.095  21.113  0.0420 -0.1775  0.0923
91820W        W92684  13.496  16.154  18.609 -0.0528  0.2899  0.3523
91821W        W92685  11.649  16.547  19.675  0.0089 -0.0342 -0.2501
91822W        W92686  12.904  16.834  23.241 -0.0516 -0.0069 -0.0529
91823W        W92687  14.045  16.379  20.766 -0.1998  0.0091  0.0504
91824W        W92688  10.654  14.274  21.763 -0.3954 -0.0639 -0.2323
91825W        W92689  14.372  16.179  21.879  0.1691  0.0679 -0.0965
91826W        W92690  13.242  16.226  21.775  0.0095  0.0793 -0.1668
91827W        W92691  12.051  18.799  22.008 -0.0884  0.0976 -0.1024
91828W        W92692  10.670  17.912  21.472  0.0259 -0.3351  0.1053
91829W        W92693   8.966  14.177  20.594  0.0770 -0.0653  0.0029
91830W        W92694  15.685  18.650  19.047  0.1014 -0.1355  0.0829
91831W        W92695  15.504  17.184  19.181  0.0425 -0.1818 -0.0526
91832W        W92696  12.999  18.408  23.979 -0.2355 -0.0792 -0.1067
91833W        W92697  11.242  16.678  19.965  0.1445 -0.0687 -0.4412
91834W        W92698  11.212  15.626  21.523 -0.0223  0.0762  0.2004
91835W        W92699  15.129  15.270  17.643  0.2438 -0.1088 -0.0521
91836W        W92700   8.217  14.815  20.367 -0.0508 -0.0819 -0.0960
91837W        W92701  11.522  16.356  17.091  0.0741 -0.1405  0.4611
91838W        W92702  13.000  15.853  22.132  0.2011  0.2322 -0.1872
91839W        W92703  15.302  16.145  22.139 -0.1116 -0.2032  0.1694
91840W        W92704  14.190  15.608  20.826 -0.2675  0.0672  0.1224
91841W        W92705  12.317  19.950  20.186  0.2590  0.1002 -0.1773
91842W        W92706  12.026  16.070  22.267  0.1734 -0.2580 -0.1071
91843W        W92707  10.250  11.846  21.199 -0.0103  0.1593 -0.0943
91844W        W92708  12.912  16.436  21.312 -0.0389 -0.0004 -0.1119
91845W        W92709  12.940  17.840  22.516  0.3175  0.3775 -0.1492
91846W        W92710  14.155  17.258  19.215 -0.0443  0.3065  0.2569
91847W        W92711  12.883  19.262  19.976 -0.1106 -0.0866  0.1914
91848W        W92712  11.372  18.938  23.986  0.0940  0.0071  0.0668
91849W        W92713  11.171  15.605  20.927  0.1992  0.0372 -0.0565
91850W        W92714  13.362  16.196  19.690  0.2698  0.0378 -0.0054
91851W        W92715  13.821  15.534  24.106 -0.0322 -0.1328 -0.1565
91852W        W92716  12.512  15.748  21.379  0.0364  0.0222 -0.0334
91853W        W92717  12.797  15.737  19.104  0.0768  0.0392  0.2510
91854W        W92718  14.055  17.294  20.815  0.0007 -0.0591 -0.1008
91855W        W92719  14.801  16.156  16.230  0.0476 -0.0732  0.0822
91856W        W92720  14.728  18.552  20.071  0.1904  0.2119 -0.0543
91857W        W92721  14.058  17.664  18.906 -0.0406 -0.2363 -0.0487
91858W        W92722  13.733  17.969  19.646  0.0065  0.1116  0.1031
91859W        W92723  10.254  15.732  19.608 -0.2067 -0.3154  0.2963
91860W        W92724  16.365  16.910  22.614 -0.0549 -0.0387 -0.1891
91861W        W92725   8.273  14.007  21.109 -0.1789  0.1800  0.0489
91862W        W92726  13.841  18.561  18.868  0.1278 -0.1326  0.1120
91863W        W92727  16.923  20.607  20.836 -0.0853 -0.3358 -0.0682
91864W        W92728  10.359  15.012  20.369 -0.2077 -0.1918  0.1929
91865W        W92729  12.896  16.354  22.097  0.1386  0.1770  0.0296
91866W        W92730  11.716  16.877  21.724 -0.0060  0.1592 -0.4432
91867W        W92731  12.913  17.479  20.812 -0.2088 -0.0173 -0.5533
91868W        W92732  13.412  15.986  19.176  0.0207 -0.4304  0.1420
91869W        W92733  13.911  16.123  18.315 -0.1356 -0.0286  0.0896
91870W        W92734  11.487  15.818  22.375  0.1814  0.0291 -0.2214
91871W        W92735  13.291  13.485  19.530  0.0461  0.0094  0.2223
91872W        W92736  14.200  15.058  22.104 -0.2057  0.0182 -0.0959
91873W        W92737  15.036  18.375  19.109 -0.0938 -0.3343 -0.1319
91874W        W92738  12.122  20.325  19.388  0.1677  0.1661  0.2792
91875W        W92739  10.069  13.324  20.710 -0.1409  0.1472 -0.0713
91876W        W92740  14.093  14.065  21.079 -0.0067  0.1446  0.0094
91877W        W92741  12.376  18.325  19.898  0.4162 -0.1332 -0.1369
91878W        W92742  10.314  16.175  21.282  0.1951 -0.3927  0.3748
91879W        W92743  10.318  17.710  22.804  0.3675  0.2489  0.0474
91880W        W92744  10.833  14.787  20.107  0.0594  0.0987  0.2754
91881W        W92745  14.552  12.946  17.753  0.1618 -0.1115  0.0888
91882W        W92746  13.169  17.690  22.140 -0.1092  0.0596 -0.2479
91883W        W92747  13.842  18.974  19.704  0.0502 -0.4276  0.0431
91884W        W92748  11.009  19.546  20.727  0.0992 -0.0833  0.1729
91885W        W92749  13.119  18.088  20.384  0.0050  0.1753  0.1154
91886W        W92750  12.145  15.115  20.113  0.0957  0.1400 -0.0759
91887W        W92751  12.874  16.453  19.809  0.2402 -0.0219  0.1817
91888W        W92752  11.768  14.950  18.983 -0.1179  0.1263  0.0204
91889W        W92753  12.270  16.149  22.661 -0.0343  0.2291 -0.2712
91890W        W92754  11.808  14.324  21.681  0.0019  0.0642 -0.3447
91891W        W92755  11.926  16.783  22.443 -0.1670  0.0176 -0.0915
91892W        W92756  13.989  14.479  18.304  0.0258 -0.3472 -0.1189
91893W        W92757  11.661  15.998  19.834 -0.1232  0.1857 -0.2597
91894W        W92758  13.940  14.552  20.216  0.1167  0.3390  0.0739
91895W        W92759  11.495  13.974  22.589  0.0474  0.3000 -0.0158
91896W        W92760  12.539  17.111  20.880  0.0518  0.0339 -0.1937
91897W        W92761  11.268  17.537  21.447  0.3199  0.1864  0.1469
91898W        W92762  13.539  17.194  21.405  0.1517 -0.3092 -0.0063
91899W        W92763  10.902  13.155  20.593 -0.0096 -0.0782 -0.1334
91900W        W92764  12.574  18.167  20.659 -0.0067  0.2812  0.0703
91901W        W92765  12.580  13.486  20.801 -0.0522  0.0872 -0.3574
91902W        W92766   8.989  16.676  20.540  0.2644  0.2661 -0.0321
91903W        W92767  12.408  16.995  22.456  0.2118 -0.0549 -0.2831
91904W        W92768  10.789  14.842  18.642 -0.0172 -0.0915  0.2030
91905W        W92769  12.450  15.212  21.560 -0.2911 -0.0962  0.0438
91906W        W92770  13.377  16.668  17.180  0.4708 -0.1811  0.1918
91907W        W92771  14.106  16.769  21.680 -0.0645 -0.2162  0.2857
91908W        W92772  11.486  15.502  17.634 -0.1333 -0.3396 -0.0369
91909W        W92773  12.487  13.186  17.567 -0.2797  0.0219  0.0578
91910W        W92774  13.009  17.630  17.713  0.0212 -0.1951 -0.1874
91911W        W92775  11.161  19.765  24.125 -0.4213  0.2853 -0.0830
91912W        W92776  10.382  18.179  21.155 -0.1951 -0.1102 -0.1722
91913W        W92777  10.568  18.147  18.308 -0.2135  0.0812 -0.3601
91914W        W92778  12.085  13.626  23.027  0.2089 -0.0227 -0.1353
91915W        W92779  10.593  16.950  18.822 -0.0293 -0.1516 -0.0352
91916W        W92780  13.467  17.184  18.389  0.2320  0.0433 -0.0574
91917W        W92781  12.111  15.953  20.134  0.0451  0.1499  0.1565
91918W        W92782  11.722  13.192  19.146  0.1278 -0.2847  0.2316
91919W        W92783  11.061  14.368  18.394 -0.1876 -0.2736 -0.0070
91920W        W92784  14.200  16.397  23.128  0.0565 -0.0441  0.1506
91921W        W92785  12.051  12.962  18.163  0.2019  0.0928 -0.2505
91922W        W92786  10.198  16.025  19.014 -0.0341  0.1148  0.0502
91923W        W92787  12.288  18.082  22.199 -0.0356  0.1615  0.3949
91924W        W92788  10.844  15.269  20.012  0.0706 -0.3294 -0.0503
91925W        W92789  13.226  19.240  19.603  0.1966  0.2170  0.2255
91926W        W92790  11.950  17.583  17.891  0.2627 -0.0004 -0.0598
91927W        W92791  11.641  17.522  22.440  0.0771  0.1338 -0.3681
91928W        W92792   9.431  14.072  20.363 -0.1218  0.1874 -0.2220
91929W        W92793  12.751  12.758  19.734 -0.0424  0.4199 -0.2269
91930W        W92794   9.770  14.584  16.899  0.0540  0.0991 -0.0632
91931W        W92795  12.500  16.044  18.836 -0.1597  0.1096  0.2420
91932W        W92796  12.121  14.555  19.200  0.1647  0.2052 -0.0060
91933W        W92797   9.401  18.176  17.339 -0.4400  0.4834  0.0651
91934W        W92798   9.884  13.647  19.695 -0.3313 -0.0131  0.0162
91935W        W92799  11.316  17.842  17.029  0.0931 -0.0625  0.0148
91936W        W92800  13.645  17.679  18.310  0.1302 -0.2531 -0.1843
91937W        W92801  13.921  18.781  16.965 -0.2176  0.1392 -0.2306
91938W        W92802   8.466  15.217  22.305  0.0558  0.2248  0.3136
91939W        W92803  13.865  15.937  23.123  0.2276  0.0235  0.2645
91940W        W92804   8.902  16.675  19.515  0.0451 -0.1549  0.1821
91941W        W92805   9.299  17.003  22.398 -0.0348  0.0143  0.2434
91942W        W92806  10.709  16.756  21.294 -0.0746  0.0108  0.0475
91943W        W92807  10.493  18.778  18.639  0.2318  0.1118 -0.1819
91944W        W92808  12.661  15.011  16.493 -0.2407 -0.3517  0.0890
91945W        W92809  13.100  17.983  21.714 -0.2774 -0.0703 -0.0304
91946W        W92810   9.829  16.236  22.567  0.2639 -0.3556  0.1112
91947W        W92811  11.104  16.647  20.869 -0.0476 -0.4178 -0.1287
91948W        W92812  13.746  15.443  22.935 -0.0616 -0.1085  0.2322
91949W        W92813  14.206  14.944  22.633 -0.0270 -0.0961  0.2221
91950W        W92814  16.453  15.568  19.312 -0.2587  0.2243 -0.1025
91951W        W92815  13.889  18.664  18.327 -0.0920 -0.3071 -0.2686
91952W        W92816  15.062  17.921  16.120  0.1645  0.2502  0.3356
91953W        W92817  13.622  14.653  21.379 -0.0923 -0.0874  0.0548
91954W        W92818  13.551  17.528  22.883 -0.1092 -0.0528 -0.1856
91955W        W92819  15.430  13.772  23.200 -0.2271 -0.2545 -0.2360
91956W        W92820  10.511  15.894  20.885 -0.3479  0.2195 -0.0878
91957W        W92821  10.598  20.243  21.241  0.2032  0.2441  0.2553
91958W        W92822  11.949  14.061  19.409 -0.2043  0.4191 -0.2236
91959W        W92823  11.679  15.788  21.918 -0.2453  0.1425 -0.0512
91960W        W92824   8.500  12.559  17.768 -0.1650  0.0161  0.1907
91961W        W92825  12.186  18.136  20.350 -0.1528 -0.1825  0.1018
91962W        W92826  15.479  17.802  17.335  0.3709  0.2587  0.0887
91963W        W92827  12.824  17.731  19.578  0.0018  0.4800 -0.1654
91964W        W92828  12.337  16.917  19.532  0.0199  0.0020  0.1420
91965W        W92829  11.393  14.090  20.072 -0.0995 -0.0116  0.1104
91966W        W92830   9.427  15.128  21.295  0.0208 -0.1655  0.0017
91967W        W92831  12.407  16.942  22.974 -0.1330 -0.1137  0.3036
91968W        W92832  14.019  18.826  21.578  0.3117  0.0383 -0.0275
91969W        W92833  10.937  18.834  17.972 -0.3452 -0.0842  0.1794
91970W        W92834  11.767  17.012  19.685 -0.1655  0.1608 -0.1140
91971W        W92835  16.126  16.150  19.738  0.2892 -0.1077  0.0807
91972W        W92836  12.759  13.250  19.624 -0.0896  0.1207 -0.0179
91973W        W92837  12.265  18.632  21.099 -0.0173  0.0385  0.0429
91974W        W92838  13.371  18.569  22.743 -0.0809 -0.3880  0.0677
91975W        W92839  10.998  15.461  19.236 -0.1742 -0.2918 -0.1610
91976W        W92840   8.799  17.703  22.171 -0.0165 -0.1105  0.1044
91977W        W92841  11.666  16.909  20.175  0.1008  0.2681 -0.0265
91978W        W92842   9.827  13.925  18.320 -0.0439 -0.1168 -0.1090
91979W        W92843  12.716  14.436  21.327  0.1469  0.3140  0.0269
91980W        W92844  10.537  14.297  17.673 -0.1443 -0.0294  0.0693
91981W        W92845  12.012  16.964  20.956  0.0293  0.1021  0.1723
91982W        W92846  12.227  17.470  23.163 -0.2483 -0.1266  0.0647
91983W        W92847  14.808  16.894  19.135 -0.0338  0.1534  0.0976
91984W        W92848  14.228  15.996  21.085 -0.1475  0.1215 -0.1993
91985W        W92849   9.496  14.615  19.983  0.0430 -0.2879 -0.1949
91986W        W92850  11.407  16.627  20.490 -0.0349 -0.1572 -0.0319
91987W        W92851  14.811  21.043  21.251 -0.0829 -0.2728 -0.1240
91988W        W92852  12.522  17.116  21.932 -0.3007 -0.2359 -0.0617
91989W        W92853  11.934  14.378  18.179 -0.0628  0.2208  0.0633
91990W        W92854  13.842  16.410  19.019 -0.2155 -0.0832  0.0709
91991W        W92855  12.187  13.839  19.907 -0.2526 -0.1012 -0.2722
91992W        W92856  12.970  11.873  23.260 -0.0917  0.0845 -0.2372
91993W        W92857  12.769  19.669  19.600 -0.2571  0.3177  0.0640
91994W        W92858  13.830  15.845  19.435 -0.1144  0.1988 -0.1911
91995W        W92859  11.071  17.642  22.360 -0.0027  0.0142  0.0929
91996W        W92860  11.226  14.800  22.524  0.2391 -0.1297  0.0243
91997W        W92861  15.630  19.002  20.924  0.2404  0.0430 -0.1773
91998W        W92862  10.246  13.933  20.103 -0.2490 -0.1146  0.1501
91999W        W92863  12.458  17.064  18.610  0.0586 -0.1782  0.0521
92000W        W92864  12.192  19.119  23.217  0.1634 -0.0899 -0.2406
92001W        W92865  11.948  21.397  21.888 -0.1612  0.4064 -0.0512
92002W        W92866  11.406  17.960  19.934  0.3170 -0.3818  0.3344
92003W        W92867   8.498  13.412  21.668 -0.2818 -0.0346  0.0319
92004W        W92868  12.970  15.061  19.358 -0.0716  0.0922 -0.0854
92005W        W92869  10.431  18.743  19.157  0.1754  0.0855 -0.0413
92006W        W92870  14.305  16.739  21.009  0.0298  0.1543  0.0807
92007W        W92871  13.718  15.511  21.741 -0.1085 -0.0891 -0.0133
92008W        W92872  12.612  14.732  22.770  0.0505 -0.1266 -0.1498
92009W        W92873  14.222  19.287  21.499 -0.1260 -0.0902 -0.1783
92010W        W92874  13.176  14.959  23.515 -0.1479 -0.2218  0.0993
92011W        W92875   8.398  12.281  22.394 -0.0029  0.0300  0.0914
92012W        W92876   9.682  16.180  20.973  0.3875 -0.1838 -0.1126
92013W        W92877  10.792  17.066  19.304 -0.1766 -0.0591 -0.1862
92014W        W92878  10.754  18.011  20.811 -0.0527  0.2209 -0.0913
92015W        W92879  12.806  16.045  21.701  0.2961  0.0675  0.0364
92016W        W92880  11.970  14.874  17.368 -0.1806 -0.2290 -0.2642
92017W        W92881  11.608  14.449  22.579  0.0021 -0.1596 -0.1672
92018W        W92882  10.687  17.345  21.413 -0.2339 -0.2034  0.2479
92019W        W92883  14.142  15.244  19.442 -0.2024 -0.1771 -0.1026
92020W        W92884  14.056  15.113  23.840 -0.0037  0.1443 -0.1448
92021W        W92885  11.991  17.490  19.587  0.1852 -0.1963  0.3418
92022W        W92886  12.740  15.527  21.805 -0.0877 -0.1313 -0.2697
92023W        W92887  11.552  14.745  17.915  0.2236 -0.0065  0.1127
92024W        W92888  11.157  17.187  20.701 -0.0107  0.0800  0.2767
92025W        W92889  12.127  16.849  19.993 -0.2047 -0.2129 -0.0637
92026W        W92890  12.851  15.569  19.638 -0.1571 -0.4245 -0.0393
92027W        W92891  14.348  16.064  20.449  0.1028  0.1398 -0.1819
92028W        W92892   9.726  16.066  18.854 -0.2665 -0.0576  0.1034
92029W        W92893  11.782  16.439  18.893 -0.0689 -0.1622  0.0227
92030W        W92894  11.381  13.461  20.768  0.3063 -0.0924 -0.0582
92031W        W92895  13.961  17.212  18.572 -0.1244 -0.0899  0.3103
92032W        W92896  15.456  17.798  23.087 -0.3775 -0.0499 -0.0046
92033W        W92897  15.112  18.011  23.342 -0.0213  0.4592  0.0117
92034W        W92898  11.197  20.546  18.933 -0.2096 -0.3802 -0.1111
92035W        W92899  11.361  19.884  20.929 -0.2036  0.1694 -0.1698
92036W        W92900  12.093  17.888  21.396 -0.3033  0.2987 -0.0700
92037W        W92901  11.516  17.774  23.588  0.0076 -0.2696  0.2878
92038W        W92902  14.667  15.847  18.767  0.1593  0.1409 -0.1505
92039W        W92903  12.069  16.213  19.644 -0.0850 -0.1862  0.1080
92040W        W92904  11.655  15.385  21.563 -0.1535 -0.4503 -0.4150
92041W        W92905  11.773  14.994  22.849  0.3015  0.4854  0.1444
92042W        W92906  12.794  16.412  20.446 -0.2221 -0.1654 -0.0440
92043W        W92907  12.265  14.146  20.911 -0.0187 -0.0946 -0.0389
92044W        W92908   9.715  15.172  22.596 -0.2198 -0.0559  0.1237
92045W        W92909   9.995  15.271  20.601  0.1449 -0.1143 -0.2371
92046W        W92910  12.652  17.754  22.076  0.1023  0.1993  0.0889
92047W        W92911   9.024  13.356  19.486 -0.2381 -0.2778  0.0039
92048W        W92912  10.403  18.422  22.141  0.3488  0.2187  0.0993
92049W        W92913   9.768  16.148  22.101  0.1100  0.0896  0.1231
92050W        W92914  11.820  18.690  20.913  0.0352 -0.1794 -0.4971
92051W        W92915   8.694  13.044  20.174 -0.0478  0.0066 -0.1888
92052W        W92916  10.684  14.589  19.045  0.0367  0.1054  0.3107
92053W        W92917  11.845  16.405  20.136  0.0998  0.4316  0.0244
92054W        W92918  11.027  17.164  18.024  0.2035 -0.0428  0.0226
92055W        W92919  11.600  17.513  23.024 -0.0846  0.1808 -0.0642
92056W        W92920  14.637  16.312  18.383 -0.3745 -0.3429 -0.0508
92057W        W92921  10.358  17.697  23.278  0.0982  0.2074  0.0717
92058W        W92922  13.351  17.565  19.589  0.0416  0.0251 -0.0295
92059W        W92923  11.538  14.685  19.351  0.0736 -0.2566 -0.1461
92060W        W92924  13.905  17.831  20.624 -0.1199 -0.1479  0.2713
92061W        W92925  12.968  13.821  19.269 -0.1104 -0.0068 -0.3442
92062W        W92926  10.304  17.157  21.098 -0.0099 -0.1954  0.0470
92063W        W92927  13.004  15.564  20.179 -0.1313  0.0598  0.0225
92064W        W92928  10.478  15.792  18.644 -0.0414 -0.1356 -0.2050
92065W        W92929  12.091  16.316  20.968 -0.0091  0.0919  0.2227
92066W        W92930  13.712  13.780  20.514 -0.3650 -0.0173  0.1663
92067W        W92931  14.555  17.502  23.988 -0.2400 -0.0717  0.0955
92068W        W92932  13.389  16.291  21.195 -0.3240 -0.0737  0.1056
92069W        W92933  13.145  17.788  19.988  0.2198  0.1686  0.1147
92070W        W92934  16.414  17.777  22.541 -0.0049 -0.2612  0.0012
92071W        W92935   9.273  20.092  20.431 -0.1191 -0.1451  0.0825
92072W        W92936  11.291  15.694  19.595  0.1222 -0.0087 -0.0023
92073W        W92937  15.208  16.869  18.867 -0.1066 -0.1591  0.1772
92074W        W92938  12.575  14.770  18.704  0.1950 -0.2219 -0.3620
92075W        W92939  10.975  15.128  17.239  0.2987  0.3089 -0.0871
92076W        W92940  11.475  13.382  24.294  0.1270  0.2003  0.4328
92077W        W92941  11.816  14.250  19.876  0.2127 -0.0963 -0.1570
92078W        W92942   9.955  17.949  18.150  0.2039  0.0094 -0.0906
92079W        W92943  13.979  16.256  19.762 -0.1975 -0.0009  0.1888
92080W        W92944  12.236  15.707  21.818 -0.1879 -0.1270  0.2490
92081W        W92945  12.938  16.977  18.352 -0.1158 -0.1513 -0.2194
92082W        W92946  10.535  15.030  22.152 -0.1021 -0.1021  0.0579
92083W        W92947  11.038  14.945  19.206  0.1863 -0.0358 -0.0152
92084W        W92948   8.828  13.793  18.277 -0.0238 -0.1040 -0.3932
92085W        W92949  12.943  14.276  20.269  0.3156  0.0962 -0.3534
92086W        W92950  10.675  13.754  19.869  0.0122  0.0481 -0.0437
92087W        W92951  11.673  14.930  22.370 -0.3274  0.1885 -0.3113
92088W        W92952  10.838  16.390  20.115 -0.2532  0.0389  0.1764
92089W        W92953   8.690  15.913  19.576 -0.0514 -0.3477  0.0519
92090W        W92954  10.797  15.325  21.203  0.2867 -0.0657 -0.0849
92091W        W92955  12.718  18.219  19.558 -0.0696 -0.1337 -0.3406
92092W        W92956  10.898  15.198  24.247  0.0474 -0.3400  0.2697
92093W        W92957  11.033  13.182  24.378 -0.2883 -0.3303  0.0223
92094W        W92958  11.072  15.992  18.487 -0.0034 -0.0098  0.1571
92095W        W92959  10.354  14.847  20.837 -0.0634 -0.5077  0.1869
92096W        W92960  11.909  15.441  24.121  0.0719  0.3114 -0.4131
92097W        W92961   9.780  16.464  20.614  0.3823 -0.2100  0.0041
92098W        W92962  13.245  16.393  17.568 -0.3518  0.1453 -0.0412
92099W        W92963  10.095  19.477  20.652  0.1413  0.1365 -0.0481
92100W        W92964  15.248  18.237  22.426  0.1109  0.1678 -0.0495
92101W        W92965  12.684  16.864  19.957 -0.2318  0.0307  0.0611
92102W        W92966  13.012  14.023  17.559 -0.1773  0.0282 -0.2117
92103W        W92967   9.779  17.067  21.934  0.1433  0.1439 -0.2845
92104W        W92968  14.527  13.458  20.394  0.4147  0.2611 -0.0509
92105W        W92969  13.198  14.881  20.194  0.1540 -0.0592  0.0837
92106W        W92970  13.266  15.019  18.598 -0.0015 -0.2842 -0.1376
92107W        W92971  11.806  16.087  20.595  0.0736  0.0466  0.1755
92108W        W92972  13.745  17.548  19.324  0.2001  0.1383  0.1312
92109W        W92973  13.043  18.799  20.334 -0.2344  0.0926  0.1751
92110W        W92974  11.630  16.456  22.149  0.1463  0.0863  0.4327
92111W        W92975  11.152  17.087  21.229  0.0866  0.3230  0.1251
92112W        W92976  13.861  20.349  20.737  0.1345 -0.6829  0.0411
92113W        W92977  10.193  14.918  21.828 -0.0976  0.0089  0.1946
92114W        W92978   9.801  15.167  22.077 -0.0926  0.0507 -0.2540
92115W        W92979  11.439  19.095  20.843 -0.1891  0.0981  0.2320
92116W        W92980  10.838  15.831  21.279 -0.0945  0.0580  0.1082
92117W        W92981   9.719  14.102  19.886 -0.1105  0.2429  0.3040
92118W        W92982  13.754  16.560  18.527  0.1867 -0.0994 -0.0438
92119W        W92983  13.701  18.115  19.168  0.1505 -0.0641 -0.0317
92120W        W92984  14.710  16.977  22.040  0.0281 -0.1080  0.1556
92121W        W92985  12.391  16.398  20.038 -0.0430  0.0971 -0.0047
92122W        W92986  12.399  17.661  23.609  0.0672 -0.1542 -0.0818
92123W        W92987  11.568  18.111  19.437  0.0629  0.0801  0.0284
92124W        W92988  12.625  18.048  21.682  0.1046 -0.0872 -0.1604
92125W        W92989  13.891  15.961  23.663 -0.3832 -0.0502  0.0091
92126W        W92990  10.972  17.566  21.048  0.0835 -0.1654 -0.1079
92127W        W92991  12.128  17.275  20.519 -0.1171  0.2365 -0.2367
92128W        W92992  13.641  20.687  23.064 -0.0446  0.1146 -0.0103
92129W        W92993  13.302  18.187  22.409  0.2033 -0.0951 -0.1143
92130W        W92994  11.306  16.087  20.775  0.0738 -0.0721  0.0881
92131W        W92995  13.196  15.135  20.991  0.0365 -0.0459 -0.2983
92132W        W92996  10.327  17.145  23.343  0.0804  0.1833 -0.0418
92133W        W92997  12.353  15.576  19.961  0.0638  0.1543 -0.1462
92134W        W92998  11.078  15.540  16.749  0.1396 -0.1725  0.2276
92135W        W92999  13.049  19.702  26.360 -0.0653  0.2030 -0.1330
92136W        W93000  13.362  17.145  27.040  0.0426 -0.0895 -0.0794
92137W        W93001  13.372  14.838  22.284 -0.0049 -0.3302 -0.1857
92138W        W93002  13.890  19.680  24.151 -0.0295  0.2506 -0.1193
92139W        W93003  11.892  19.295  24.507  0.0546 -0.0420 -0.0032
92140W        W93004  13.291  14.781  24.740  0.0450  0.0187  0.0048
92141W        W93005  10.871  17.091  23.757 -0.0412 -0.2851  0.2693
92142W        W93006  13.663  16.945  21.896 -0.5436 -0.0509 -0.0067
92143W        W93007  11.518  18.494  22.685  0.1262 -0.0208 -0.1566
92144W        W93008  11.033  17.788  24.623 -0.1560 -0.0014  0.3346
92145W        W93009  12.585  15.092  24.977 -0.1350  0.0849  0.0376
92146W        W93010  15.920  15.769  23.031 -0.2939  0.3237  0.0503
92147W        W93011  13.297  16.950  22.474 -0.1906 -0.1607  0.1610
92148W        W93012  16.352  18.502  26.048  0.1083 -0.2882  0.0157
92149W        W93013  10.230  14.540  23.378 -0.0816 -0.0410 -0.1458
92150W        W93014   9.862  18.607  25.200  0.1506 -0.0461 -0.4357
92151W        W93015  10.352  17.039  24.105 -0.0384 -0.1784  0.2181
92152W        W93016  11.219  17.852  25.943  0.0476  0.0215 -0.0850
92153W        W93017  12.107  16.851  25.407  0.3380 -0.0922  0.2080
92154W        W93018  14.231  14.917  25.240 -0.2434  0.1234  0.1744
92155W        W93019  11.063  15.381  25.734  0.1493 -0.0513 -0.0657
92156W        W93020  12.656  17.952  20.019  0.0626 -0.0376  0.0311
92157W        W93021  13.927  16.819  27.756 -0.1235  0.1451  0.0322
92158W        W93022  10.305  14.766  25.747  0.0577 -0.1886 -0.0879
92159W        W93023   8.731  19.224  25.162  0.0795 -0.1303  0.2089
92160W        W93024  13.788  16.727  26.134  0.1155  0.1885 -0.2164
92161W        W93025  14.554  17.122  26.438 -0.0633 -0.0701 -0.3318
92162W        W93026  12.464  17.041  23.467 -0.1408  0.0285  0.1345
92163W        W93027  11.935  16.382  25.326 -0.1148  0.3075 -0.0369
92164W        W93028  12.881  16.078  25.195  0.0367  0.0667  0.2145
92165W        W93029  10.313  16.238  23.388 -0.1780  0.3199  0.1848
92166W        W93030   9.138  21.655  23.297  0.1005  0.2359 -0.0829
92167W        W93031  12.021  18.864  24.771 -0.2241  0.1415  0.1869
92168W        W93032  10.353  17.660  25.895 -0.0096 -0.1693 -0.2092
92169W        W93033   8.395  14.765  25.469  0.0093 -0.3772 -0.1853
92170W        W93034  12.772  17.172  24.713  0.3494  0.2040 -0.2164
92171W        W93035  12.649  13.691  22.713  0.0784 -0.0161 -0.1538
92172W        W93036  12.156  16.599  24.088 -0.0312 -0.2713  0.2914
92173W        W93037  13.792  16.626  25.529  0.0184  0.3223 -0.0766
92174W        W93038  16.189  16.603  25.813 -0.0931 -0.1855 -0.1455
92175W        W93039  12.320  17.895  19.704 -0.1952 -0.0516  0.2196
92176W        W93040  16.255  15.618  21.779  0.0017  0.0912 -0.0458
92177W        W93041  13.104  16.093  24.374 -0.4655 -0.3513 -0.0186
92178W        W93042  14.578  17.475  19.961  0.2137  0.2980  0.0571
92179W        W93043  11.880  19.638  23.648 -0.2032  0.3769  0.1078
92180W        W93044  14.805  17.626  25.313 -0.2425 -0.1747 -0.1269
92181W        W93045  10.235  14.006  23.401 -0.0230  0.1255 -0.1555
92182W        W93046  15.115  14.970  24.406 -0.0402  0.1060  0.3083
92183W        W93047  14.606  16.360  24.474  0.0730  0.2407  0.2010
92184W        W93048  11.228  16.402  24.960  0.1062 -0.2332  0.0994
92185W        W93049  13.709  19.738  22.280  0.0538 -0.3023 -0.1203
92186W        W93050  16.867  17.041  25.519 -0.0222  0.0345  0.3155
92187W        W93051  12.820  17.935  24.262  0.0877 -0.2223  0.2571
92188W        W93052  15.204  16.720  19.926  0.3759 -0.0531 -0.0264
92189W        W93053  11.996  15.576  22.314  0.1220 -0.1730 -0.1521
92190W        W93054  10.530  19.327  21.029 -0.0639 -0.0812  0.2562
92191W        W93055  13.041  16.808  21.695  0.1920  0.0309 -0.1070
92192W        W93056  16.374  15.921  22.906 -0.0694  0.0902 -0.1895
92193W        W93057  13.924  17.383  23.252  0.3418  0.3431 -0.1222
92194W        W93058  13.188  17.595  23.515  0.1221  0.1796  0.1317
92195W        W93059  15.290  17.935  21.453 -0.0262 -0.0666 -0.0433
92196W        W93060   9.337  21.257  24.765  0.3248 -0.1796 -0.1899
92197W        W93061  11.969  18.020  25.253 -0.2179 -0.0357 -0.1248
92198W        W93062  11.893  17.845  23.299  0.0570  0.0675  0.1751
92199W        W93063  13.445  18.928  26.537  0.1268 -0.0402 -0.1430
92200W        W93064  18.387  13.739  22.567  0.1874  0.0010 -0.1363
92201W        W93065   9.303  16.464  20.879  0.1180 -0.3283 -0.3809
92202W        W93066  10.620  17.418  22.555  0.3792  0.2751  0.2159
92203W        W93067   9.041  15.458  20.461 -0.1748  0.0061 -0.0749
92204W        W93068  12.475  18.012  22.639  0.0986 -0.0202  0.0562
92205W        W93069  15.061  17.767  26.316  0.1918  0.3201  0.3686
92206W        W93070  10.413  16.352  25.223 -0.0678  0.2384 -0.0973
92207W        W93071  13.946  17.885  23.113 -0.0927  0.0771  0.0572
92208W        W93072  12.627  16.740  25.520  0.3440 -0.3221 -0.1565
92209W        W93073  14.097  18.674  25.777 -0.2071  0.3355  0.2391
92210W        W93074  16.628  18.198  26.396 -0.0701  0.1638 -0.3184
92211W        W93075  13.063  18.570  21.918  0.1074 -0.0652  0.2180
92212W        W93076  10.881  15.534  23.231 -0.1274 -0.2143 -0.3497
92213W        W93077  11.856  13.032  21.637 -0.0600  0.0583 -0.0791
92214W        W93078  12.796  15.473  22.365  0.1608  0.1279 -0.2463
92215W        W93079  10.171  14.555  23.887 -0.0437  0.4154  0.2933
92216W        W93080  12.642  15.232  27.263  0.1157 -0.3402  0.1111
92217W        W93081  12.976  15.619  22.864 -0.2317 -0.0415 -0.1070
92218W        W93082  15.355  14.621  23.072  0.0863  0.1034  0.3587
92219W        W93083  13.886  16.313  24.122 -0.0730 -0.3970  0.0006
92220W        W93084  11.388  13.797  24.082  0.2996  0.2697 -0.1882
92221W        W93085  14.407  18.094  24.430 -0.0291 -0.1427  0.0370
92222W        W93086  14.957  15.961  24.539 -0.0040  0.0069 -0.2461
92223W        W93087  14.014  16.737  25.084  0.2753  0.0157  0.2373
92224W        W93088  13.985  13.128  26.716  0.0295  0.1195  0.0679
92225W        W93089  14.024  18.678  20.535  0.0099  0.2869  0.0644
92226W        W93090  12.021  17.945  24.728 -0.0529 -0.2164 -0.1327
92227W        W93091  11.719  19.170  23.426 -0.0398 -0.0423  0.0189
92228W        W93092  12.682  16.615  23.614  0.2049 -0.0441 -0.0558
92229W        W93093  12.060  15.912  26.440 -0.5267  0.0171  0.1150
92230W        W93094  14.810  13.571  24.230  0.0408  0.2478  0.0429
92231W        W93095  14.945  16.973  20.352 -0.0785  0.2070  0.3300
92232W        W93096  11.254  17.952  27.769 -0.3309 -0.0782  0.0016
92233W        W93097  12.786  13.866  26.812  0.2422 -0.0016  0.2098
92234W        W93098  17.558  16.179  22.309 -0.3147  0.0467 -0.2803
92235W        W93099  13.328  16.659  22.990 -0.0476  0.0144 -0.0382
92236W        W93100  11.357  18.185  23.233 -0.2209  0.0031  0.1714
92237W        W93101  11.653  14.335  19.052 -0.0000  0.0380 -0.2094
92238W        W93102  12.455  16.643  24.535 -0.2373  0.0196  0.3179
92239W        W93103  16.543  15.023  26.736  0.2201 -0.1494  0.3601
92240W        W93104  16.017  16.430  26.841  0.0336 -0.1082  0.0165
92241W        W93105  13.187  17.146  22.043  0.2719  0.0779  0.0806
92242W        W93106  10.717  18.826  24.892 -0.1267  0.5047  0.0695
92243W        W93107  10.914  15.668  24.031  0.1025  0.0433  0.2125
92244W        W93108  13.113  15.228  24.961  0.0135 -0.0093  0.0197
92245W        W93109  11.776  17.490  25.998 -0.0130 -0.0852 -0.0153
92246W        W93110  14.265  16.940  23.297 -0.1418 -0.0413 -0.1095
92247W        W93111  14.827  15.949  26.292  0.0183  0.0129  0.0690
92248W        W93112  12.414  17.604  28.525 -0.1075  0.3288 -0.0551
92249W        W93113  16.558  18.362  18.920  0.3891  0.0190 -0.2083
92250W        W93114  15.148  14.386  24.504 -0.1469  0.0095 -0.2579
92251W        W93115  14.696  16.260  25.938 -0.1820  0.0198  0.0540
92252W        W93116  12.124  18.255  26.133  0.0403 -0.2945 -0.0753
92253W        W93117  11.712  15.676  24.501  0.1979 -0.1108 -0.2210
92254W        W93118  13.034  16.511  22.587 -0.3226  0.1400  0.1477
92255W        W93119  11.167  14.525  21.673 -0.0337  0.1130  0.2738
92256W        W93120  16.165  18.028  26.442  0.1457  0.3555 -0.2396
92257W        W93121  11.151  16.499  23.784 -0.1293 -0.0423  0.1818
92258W        W93122  14.233  18.186  20.661 -0.0891  0.1910  0.0640
92259W        W93123  14.894  14.495  25.474 -0.0305  0.0376  0.3048
92260W        W93124  15.341  16.818  24.355 -0.0911 -0.0123  0.0652
92261W        W93125  13.611  15.995  24.949  0.0553  0.0126 -0.2984
92262W        W93126  12.966  15.891  23.880 -0.2767  0.1851  0.2191
92263W        W93127  14.518  17.855  25.756 -0.1124 -0.3203  0.0756
92264W        W93128  12.759  18.282  22.296 -0.2150  0.0475 -0.2818
92265W        W93129  15.315  19.115  22.507  0.4866 -0.3003 -0.1951
92266W        W93130  12.292  17.137  23.908  0.0194 -0.0417 -0.1204
92267W        W93131  13.732  16.410  21.943  0.1912  0.2086  0.0837
92268W        W93132  14.575  15.388  22.251 -0.0040 -0.0485  0.2728
92269W        W93133  13.358  15.153  24.129  0.3265  0.0183  0.2015
92270W        W93134  10.349  17.323  24.575 -0.1069  0.0062 -0.0462
92271W        W93135  12.985  15.839  23.291 -0.0060 -0.0535 -0.0398
92272W        W93136  13.971  14.522  27.522 -0.0720 -0.0013 -0.0913
92273W        W93137  13.527  18.009  20.889  0.2787  0.1184  0.1022
92274W        W93138  12.380  16.293  25.526 -0.1170  0.2133  0.0633
92275W        W93139  11.735  13.199  25.063 -0.2534  0.0481  0.1198
92276W        W93140  13.205  13.943  22.676 -0.2028  0.1148 -0.1573
92277W        W93141  12.949  18.050  23.413  0.1472  0.1360  0.2013
92278W        W93142  14.065  18.334  23.983  0.0188  0.1702  0.0702
92279W        W93143  13.003  15.740  27.529 -0.0029  0.1317 -0.1058
92280W        W93144  11.155  14.073  23.691  0.1293 -0.2102 -0.2376
92281W        W93145  15.377  16.339  24.994  0.1376  0.1356  0.2299
92282W        W93146  12.864  16.315  23.051 -0.0256  0.0419  0.1343
92283W        W93147  12.461  18.729  25.232  0.1540  0.4488 -0.1766
92284W        W93148  13.298  17.039  23.542 -0.0138 -0.2100  0.0294
92285W        W93149  14.109  18.978  23.928 -0.0442 -0.0937  0.1115
92286W        W93150  14.110  16.403  21.303  0.1699  0.0245  0.1382
92287W        W93151  12.516  18.136  23.829  0.0166 -0.0017 -0.0946
92288W        W93152   9.746  14.660  23.568 -0.3378 -0.0563  0.1677
92289W        W93153  14.285  14.807  24.247  0.4219 -0.1092 -0.0558
92290W        W93154  13.852  17.122  25.699  0.4097  0.0970 -0.3965
92291W        W93155  11.381  17.904  24.039  0.4634 -0.3511  0.0691
92292W        W93156   9.876  17.603  24.584  0.3243  0.1345 -0.0233
92293W        W93157  12.350  15.764  20.715  0.0624  0.0748  0.0013
92294W        W93158  10.875  14.977  25.284  0.1601 -0.1122  0.0791
92295W        W93159  14.069  14.047  24.024  0.1031  0.0438 -0.1096
92296W        W93160  11.058  18.356  24.846 -0.1531 -0.0331  0.1004
92297W        W93161  12.953  17.236  26.275  0.1782  0.0053 -0.0481
92298W        W93162  13.544  16.410  26.555  0.0248 -0.1353  0.0995
92299W        W93163  11.978  15.709  25.930 -0.0053  0.1517 -0.0271
92300W        W93164   9.739  17.111  25.915  0.1011  0.2293 -0.0995
92301W        W93165  12.464  15.839  22.239 -0.0291  0.2769  0.0705
92302W        W93166   8.467  16.553  23.479  0.1507 -0.0113  0.3007
92303W        W93167  13.399  16.873  25.623 -0.1585  0.1189  0.3041
92304W        W93168  11.862  17.133  23.188  0.2695  0.2246  0.0209
92305W        W93169  13.157  16.291  24.855 -0.0684 -0.0112 -0.0521
92306W        W93170  14.667  16.170  23.958  0.0280  0.4808  0.0683
92307W        W93171  10.714  16.796  26.321 -0.0087 -0.1368  0.1012
92308W        W93172  15.295  18.691  22.169  0.2073 -0.0277  0.1279
92309W        W93173  14.107  15.119  23.095 -0.5161  0.0564  0.0281
92310W        W93174  16.357  17.092  24.464 -0.0493  0.1292 -0.2365
92311W        W93175  12.343  16.446  25.058 -0.0259  0.1658  0.0411
92312W        W93176  13.617  17.525  23.729  0.0825 -0.1352  0.0529
92313W        W93177  10.080  19.826  25.496 -0.1486  0.1586  0.0689
92314W        W93178  10.669  14.740  24.779 -0.2014 -0.2428 -0.0072
92315W        W93179  10.116  16.688  22.052 -0.4325 -0.3105  0.1246
92316W        W93180  16.118  17.669  22.115 -0.1207 -0.0560 -0.0542
92317W        W93181  11.438  14.454  22.133  0.1730 -0.1402 -0.3917
92318W        W93182  12.626  16.874  21.362  0.1818  0.0695  0.0583
92319W        W93183  11.901  14.164  22.137 -0.0690 -0.0004 -0.0555
92320W        W93184  14.633  17.544  26.211  0.1872  0.3037  0.1210
92321W        W93185  13.449  13.685  21.368  0.1628  0.1709 -0.0185
92322W        W93186  10.879  17.479  20.070  0.0262  0.0486 -0.1571
92323W        W93187  14.923  20.106  22.372  0.1012 -0.0884  0.2513
92324W        W93188  13.275  16.010  25.637 -0.1696 -0.0008  0.0330
92325W        W93189  12.584  17.627  21.324  0.0337 -0.2356 -0.0144
92326W        W93190  12.276  19.454  22.815  0.0534  0.0634  0.0347
92327W        W93191  11.620  15.882  26.265  0.0894 -0.1158  0.4150
92328W        W93192  12.224  15.760  24.557  0.2528 -0.0978 -0.0705
92329W        W93193  14.535  14.771  23.744  0.3393 -0.1421 -0.0286
92330W        W93194  10.795  15.488  25.161 -0.1190 -0.1457  0.0401
92331W        W93195  14.565  13.042  24.635  0.0010 -0.0616 -0.3396
92332W        W93196  12.553  15.930  23.045 -0.1649 -0.2255 -0.1578
92333W        W93197  11.542  16.696  25.243 -0.2197  0.0011 -0.2069
92334W        W93198  14.346  16.161  23.571 -0.0488 -0.0386 -0.1085
92335W        W93199  11.601  16.443  21.002 -0.0543 -0.0153 -0.2726
92336W        W93200  15.372  14.445  25.641 -0.1403 -0.2026  0.1608
92337W        W93201  16.087  16.336  21.834 -0.2474  0.0541  0.1238
92338W        W93202  11.095  15.745  22.027 -0.0849  0.3112  0.0178
92339W        W93203  13.195  16.379  23.493 -0.0909  0.0840 -0.0031
92340W        W93204  11.810  11.264  21.307  0.1118 -0.0107  0.3581
92341W        W93205  12.980  15.579  25.665  0.1128  0.0856  0.0374
92342W        W93206  15.212  15.848  22.802 -0.1084  0.0189 -0.0481
92343W        W93207  12.734  17.447  23.252 -0.3902  0.3868 -0.2037
92344W        W93208  10.230  16.252  22.273 -0.2053  0.2086 -0.1493
92345W        W93209  11.579  18.563  25.897  0.0117  0.1809  0.2937
92346W        W93210  11.760  18.007  25.800  0.2075  0.0335 -0.1667
92347W        W93211  11.167  16.830  25.567 -0.0426  0.0050 -0.0678
92348W        W93212  18.142  13.051  23.715 -0.4297 -0.0495  0.0610
92349W        W93213  13.786  18.302  22.549 -0.0093  0.1372  0.0435
92350W        W93214  16.188  17.599  21.581 -0.1901 -0.1915 -0.2167
92351W        W93215  13.004  17.182  21.249 -0.1234  0.0713  0.2391
92352W        W93216  15.571  19.471  22.803 -0.2618 -0.0765 -0.2041
92353W        W93217  12.722  15.664  27.058  0.1071  0.2377 -0.0152
92354W        W93218  10.229  15.906  24.394  0.0003 -0.1405  0.0458
92355W        W93219  13.115  13.339  24.467 -0.0684 -0.2175 -0.1324
92356W        W93220  15.160  14.307  25.010 -0.2505 -0.1932  0.1121
92357W        W93221  12.248  16.653  26.334 -0.1673 -0.0678 -0.0410
92358W        W93222  10.579  17.941  22.438 -0.1279 -0.0003 -0.1208
92359W        W93223  14.257  14.433  22.600 -0.1133  0.1952 -0.0962
92360W        W93224  14.036  16.168  24.640 -0.1255  0.2234  0.0024
92361W        W93225  11.810  20.459  25.668 -0.3890  0.0917  0.2717
92362W        W93226  15.879  14.523  25.533  0.0895 -0.0145  0.0361
92363W        W93227  14.266  17.061  23.828 -0.1277  0.1456 -0.2652
92364W        W93228  10.667  18.578  26.701 -0.2680  0.0684  0.1252
92365W        W93229  12.472  17.851  25.418  0.1245 -0.1740 -0.1131
92366W        W93230  11.404  16.864  23.572 -0.0728 -0.0388 -0.3708
92367W        W93231  10.749  16.468  22.527 -0.0755  0.1763 -0.1069
92368W        W93232  12.853  17.771  23.793 -0.0308 -0.1499 -0.0378
92369W        W93233  14.196  15.363  25.574 -0.0529 -0.0601  0.1976
92370W        W93234  12.891  17.495  21.704  0.3037 -0.0738  0.1905
92371W        W93235  16.357  17.139  21.468 -0.0110 -0.0262  0.2188
92372W        W93236  12.129  13.300  25.968  0.1386  0.2098  0.3146
92373W        W93237  10.763  16.175  23.951 -0.0385 -0.2761 -0.0840
92374W        W93238  10.632  19.438  26.735  0.2166  0.0720  0.2740
92375W        W93239  14.666  17.829  23.508  0.3528 -0.2211 -0.1474
92376W        W93240  14.551  17.324  27.023 -0.3416 -0.1372  0.1778
92377W        W93241  11.959  14.083  22.718 -0.1065  0.2920 -0.4277
92378W        W93242  13.079  12.364  22.994 -0.0440  0.0157  0.0850
92379W        W93243  15.263  14.169  23.587  0.0636 -0.1698 -0.0124
92380W        W93244  11.802  16.997  23.938  0.3056 -0.2737 -0.0024
92381W        W93245  14.807  17.782  24.288 -0.1978 -0.2592  0.1304
92382W        W93246  10.223  19.016  24.901  0.1420 -0.0919  0.1179
92383W        W93247  14.052  17.347  24.151  0.1922 -0.0144 -0.1048
92384W        W93248  11.497  13.121  22.725  0.2455 -0.2332 -0.0555
92385W        W93249  10.504  17.714  25.354  0.0601  0.4211 -0.0174
92386W        W93250  10.977  18.648  22.975 -0.0995 -0.0153  0.2352
92387W        W93251  11.810  18.075  24.275  0.1666  0.1618  0.0890
92388W        W93252  12.636  15.521  24.734  0.1638  0.0577  0.1555
92389W        W93253  10.347  16.352  22.859  0.1267 -0.1583 -0.0892
92390W        W93254  10.762  16.517  24.706 -0.3462 -0.1167  0.2673
92391W        W93255  16.924  20.217  22.067  0.2086  0.2960  0.0068
92392W        W93256  13.178  16.788  26.163  0.4832  0.1311 -0.3221
92393W        W93257  16.350  18.693  22.573  0.1704  0.1519 -0.0310
92394W        W93258  15.863  16.403  24.998 -0.4669 -0.0461  0.1748
92395W        W93259  13.687  15.004  22.743 -0.2201 -0.1188  0.0200
92396W        W93260  10.849  16.551  25.256  0.0254 -0.0624  0.0211
92397W        W93261  10.259  17.040  25.845  0.0952 -0.0745  0.2535
92398W        W93262  14.377  14.423  25.494  0.1729 -0.2085  0.0134
92399W        W93263  11.034  18.603  23.482  0.2125  0.0193 -0.1684
92400W        W93264   9.239  19.062  23.817 -0.1625  0.1409 -0.3561
92401W        W93265  10.927  16.870  23.331  0.0147 -0.0468 -0.4072
92402W        W93266  14.918  18.384  22.044  0.2791 -0.0633 -0.0118
92403W        W93267  13.338  15.191  25.956 -0.2766  0.0153 -0.1104
92404W        W93268  11.804  16.120  24.188 -0.3327 -0.0214  0.0535
92405W        W93269  13.614  17.548  24.501 -0.2392  0.0088 -0.2987
92406W        W93270  13.447  16.348  25.286 -0.0381 -0.1263 -0.1212
92407W        W93271  14.322  15.699  24.674 -0.0575 -0.0338 -0.0677
92408W        W93272  12.867  13.303  23.517 -0.0278  0.0697 -0.0444
92409W        W93273  13.509  18.071  21.967 -0.0884 -0.0983 -0.0774
92410W        W93274  16.040  15.806  23.848 -0.1240  0.0392 -0.0652
92411W        W93275   9.314  14.861  23.882  0.1568 -0.0149  0.1296
92412W        W93276  11.738  16.576  24.409  0.0506 -0.0671  0.0963
92413W        W93277  10.089  16.305  23.909 -0.2706 -0.0643 -0.0699
92414W        W93278  10.982  17.611  23.798 -0.2990  0.1469  0.1289
92415W        W93279  11.875  17.617  25.487  0.1590 -0.0172  0.2974
92416W        W93280   8.787  13.925  20.186  0.2528  0.1725 -0.1339
92417W        W93281  12.602  17.476  22.786  0.0479  0.0050 -0.0321
92418W        W93282  14.661  16.872  24.495 -0.0322  0.2218 -0.0861
92419W        W93283  13.638  14.537  20.774  0.2090 -0.0134  0.2443
92420W        W93284  13.026  16.494  25.614 -0.2578 -0.0853 -0.0243
92421W        W93285  12.848  16.839  22.266 -0.0301  0.0408  0.2794
92422W        W93286  12.117  16.985  24.396  0.3021 -0.3836 -0.0462
92423W        W93287  12.269  14.011  24.126  0.6123 -0.2628  0.1864
92424W        W93288  11.270  16.287  25.492 -0.0187 -0.4097  0.3436
92425W        W93289  14.135  17.483  22.694 -0.4860 -0.0426 -0.0657
92426W        W93290  13.588  14.154  21.404  0.0053  0.0466 -0.0338
92427W        W93291  13.930  14.617  26.090  0.1722  0.1364  0.2651
92428W        W93292  13.373  15.889  22.802 -0.0132 -0.2562 -0.0569
92429W        W93293  13.843  18.327  24.459 -0.3116 -0.0465  0.1904
92430W        W93294  13.299  16.627  22.115 -0.0684  0.1336  0.0036
92431W        W93295  15.374  14.169  24.067  0.2274 -0.1407 -0.0156
92432W        W93296  12.619  16.260  24.134 -0.1203 -0.0488  0.1791
92433W        W93297  14.660  16.161  23.144  0.0187 -0.0802  0.3926
92434W        W93298  10.499  18.834  21.178  0.1552  0.0615 -0.1181
92435W        W93299  11.517  16.121  24.646 -0.0376  0.0706 -0.1864
92436W        W93300  10.724  14.516  25.594  0.0420 -0.1556 -0.0182
92437W        W93301  15.293  19.143  23.229 -0.0782 -0.0070 -0.1178
92438W        W93302  12.860  17.005  22.744  0.1746  0.1563 -0.0208
92439W        W93303  14.229  15.647  23.819  0.0667 -0.1619 -0.2452
92440W        W93304  14.333  21.059  25.111  0.3319  0.0213 -0.0280
92441W        W93305  13.720  15.761  27.247 -0.2006  0.0186 -0.0922
92442W        W93306  10.403  16.823  24.555  0.0247 -0.1976 -0.0846
92443W        W93307  12.897  14.824  26.280  0.3878 -0.6337  0.0485
92444W        W93308  13.829  18.070  23.631 -0.1090  0.2815 -0.0306
92445W        W93309  11.837  12.448  23.298  0.2288 -0.1363 -0.2668
92446W        W93310  11.754  15.098  25.103  0.0843  0.2338  0.1135
92447W        W93311  12.902  15.355  24.143  0.1283 -0.1697 -0.1278
92448W        W93312  12.693  15.769  24.314 -0.1499  0.1207  0.1744
92449W        W93313  12.968  18.236  26.776 -0.1358 -0.1931  0.3335
92450W        W93314  12.456  14.560  23.268  0.3440  0.2074 -0.2766
92451W        W93315  13.347  16.199  22.365  0.0736  0.0816 -0.3930
92452W        W93316  14.153  17.655  22.177 -0.5029  0.0152  0.1215
92453W        W93317  11.582  17.700  24.481  0.0049 -0.0540 -0.0931
92454W        W93318  10.637  20.823  27.787 -0.0604 -0.2890 -0.0455
92455W        W93319  17.592  20.970  20.044 -0.0597  0.2905  0.3001
92456W        W93320  10.061  17.539  27.005 -0.0652  0.1104 -0.1821
92457W        W93321  13.403  14.304  24.987  0.0362  0.1188 -0.1090
92458W        W93322  10.633  17.992  23.588  0.1405  0.1173  0.1616
92459W        W93323  12.007  18.944  25.279 -0.1108 -0.1730 -0.0497
92460W        W93324  14.201  15.492  22.579 -0.2836  0.0587 -0.3376
92461W        W93325   9.919  20.305  24.454  0.0408  0.0203  0.1339
92462W        W93326  11.155  13.110  21.984 -0.2498  0.0539  0.0164
92463W        W93327  12.433  17.392  27.208 -0.0152  0.0637  0.0523
92464W        W93328  14.450  13.774  26.048 -0.1541 -0.0669 -0.0270
92465W        W93329  13.653  16.337  22.796 -0.1993 -0.3530  0.0186
92466W        W93330  14.574  15.961  27.561 -0.0191  0.1420 -0.1485
92467W        W93331  12.112  17.023  27.470 -0.1726 -0.3288  0.1412
92468W        W93332  15.276  17.606  25.102 -0.0485 -0.0034 -0.0237
92469W        W93333  12.516  18.092  24.618  0.3335 -0.0895 -0.1826
92470W        W93334  10.991  17.390  25.273 -0.1936  0.1060  0.2800
92471W        W93335  15.057  15.420  24.057  0.0003  0.2531  0.2441
92472W        W93336  12.115  14.147  23.242 -0.1108 -0.0671  0.0882
92473W        W93337  10.642  14.507  22.676 -0.1625  0.1430  0.1082
92474W        W93338  13.882  21.606  27.342  0.1463 -0.0661  0.2884
92475W        W93339  13.571  16.591  23.798 -0.2215  0.1044 -0.1200
92476W        W93340  15.653  14.652  22.666 -0.0919 -0.0577  0.0386
92477W        W93341  11.747  18.339  23.533 -0.0729  0.0426 -0.0611
92478W        W93342  11.598  14.870  21.743 -0.0035  0.0544 -0.0845
92479W        W93343  10.708  20.302  21.687  0.0670  0.2602  0.0107
92480W        W93344  12.352  18.090  27.683 -0.0030 -0.0165  0.0236
92481W        W93345  10.521  13.737  24.492 -0.2191  0.1053  0.0778
92482W        W93346  12.638  16.153  24.749  0.2196  0.0478  0.1421
92483W        W93347   8.108  14.508  21.168  0.0497 -0.0335  0.1711
92484W        W93348  12.059  17.482  24.536 -0.2325  0.0880 -0.0162
92485W        W93349  11.522  16.892  20.874  0.0424  0.2527  0.1587
92486W        W93350  13.427  18.507  23.712 -0.3084  0.2383 -0.0338
92487W        W93351  11.928  19.194  21.612  0.2968 -0.0269  0.0090
92488W        W93352  10.614  18.604  24.137 -0.0077 -0.1389  0.0093
92489W        W93353  11.563  15.364  22.580 -0.1697  0.2583 -0.0485
92490W        W93354   9.640  19.743  25.930  0.2621  0.1326  0.2348
92491W        W93355  12.626  15.543  27.871  0.1607  0.1802  0.1713
92492W        W93356  10.751  17.786  26.230  0.0558 -0.0464  0.3110
92493W        W93357  10.531  17.458  23.718  0.0222 -0.1132  0.0662
92494W        W93358  10.021  18.583  21.041 -0.0760 -0.0781  0.0152
92495W        W93359  13.778  15.058  24.520 -0.2326  0.2095 -0.3016
92496W        W93360  11.268  15.317  25.207  0.2885  0.2794  0.1377
92497W        W93361  14.718  14.952  22.377 -0.2254  0.2245 -0.0754
92498W        W93362   9.609  17.903  22.307  0.1880  0.0354 -0.1652
92499W        W93363  11.618  18.389  24.799 -0.3373 -0.1389  0.0433
92500W        W93364  12.280  18.741  23.593  0.0794 -0.1143 -0.0496
92501W        W93365  14.770  15.682  25.424 -0.0509  0.2954 -0.1451
92502W        W93366  10.130  14.339  22.545 -0.4280  0.0526 -0.0822
92503W        W93367  14.084  16.956  22.250  0.0990  0.0294 -0.0520
92504W        W93368  13.630  15.899  22.084 -0.1593 -0.0126 -0.1414
92505W        W93369  10.736  16.097  22.057  0.2117  0.0822 -0.0723
92506W        W93370  11.864  18.246  22.988 -0.4446 -0.0813  0.0668
92507W        W93371  11.448  17.199  26.747  0.1544  0.0502 -0.0851
92508W        W93372  14.175  18.579  21.056 -0.4159  0.2569  0.0498
92509W        W93373  11.200  16.925  24.077  0.2351 -0.0517  0.3889
92510W        W93374  14.078  17.077  21.286 -0.1356  0.0841  0.0782
92511W        W93375  12.196  17.821  25.853 -0.2479 -0.1465  0.4617
92512W        W93376  15.178  13.160  26.047  0.1375  0.1513 -0.0022
92513W        W93377  12.570  16.210  26.425 -0.1046 -0.0770  0.1019
92514W        W93378  12.997  14.692  25.683 -0.2513  0.1183  0.1320
92515W        W93379  11.206  16.602  24.484 -0.0409  0.3173 -0.2231
92516W        W93380  12.671  16.561  25.991 -0.1247  0.2035 -0.4072
92517W        W93381  13.781  17.023  23.714 -0.0185  0.1585 -0.0328
92518W        W93382  13.547  19.502  26.837  0.2862 -0.0444  0.2146
92519W        W93383  12.412  16.471  23.225  0.2549 -0.0656  0.0883
92520W        W93384  13.803  15.808  22.533  0.0634  0.0705  0.0756
92521W        W93385  13.480  18.024  22.821  0.0248  0.2263  0.2034
92522W        W93386  15.506  16.391  23.557 -0.2117 -0.0837 -0.2334
92523W        W93387  14.253  18.188  23.412  0.2692 -0.1355  0.3112
92524W        W93388  14.455  18.193  26.597  0.0762  0.1463 -0.0859
92525W        W93389  13.118  15.755  24.774 -0.1106 -0.0550 -0.0936
92526W        W93390  14.046  16.612  23.685  0.0641 -0.2409  0.0748
92527W        W93391  13.796  18.833  22.605  0.0085  0.0054  0.0785
92528W        W93392  11.827  19.780  24.672  0.0059  0.4666 -0.0971
92529W        W93393  12.860  14.150  23.995 -0.0735  0.0033 -0.0765
92530W        W93394  13.152  17.682  21.277  0.3624 -0.0301  0.0765
92531W        W93395  11.489  19.652  25.521 -0.2235  0.1987  0.0274
92532W        W93396  11.841  16.328  26.256  0.0178  0.2462 -0.2043
92533W        W93397  11.436  15.312  23.089  0.1790 -0.1154 -0.0536
92534W        W93398  10.586  18.399   0.787 -0.2355  0.0034  0.0702
92535W        W93399   8.002  20.789  28.820  0.1817 -0.3721 -0.2328
92536W        W93400  12.084  14.904  28.096  0.0181  0.0023  0.2533
92537W        W93401  17.071  19.370  28.256 -0.1027 -0.0242  0.1208
92538W        W93402  14.088  15.519  26.996  0.1504 -0.2607  0.0372
92539W        W93403  10.023  17.896  27.754 -0.0247  0.0324 -0.1544
92540W        W93404  12.561  16.524  26.928  0.0295  0.1092 -0.1248
92541W        W93405  11.744  13.025  26.130 -0.3831 -0.1531 -0.1498
92542W        W93406  11.390  16.006   0.654  0.1553 -0.1076 -0.1396
92543W        W93407  13.811  14.938  28.901  0.0749  0.0216 -0.1949
92544W        W93408  13.599  14.656  27.871 -0.3164  0.1499  0.2088
92545W        W93409  13.819  17.393  27.093  0.2463  0.1825 -0.2399
92546W        W93410  12.538  14.597  27.272  0.2556 -0.0504  0.0553
92547W        W93411  12.723  13.494   1.338  0.0499  0.1756  0.2160
92548W        W93412  12.637  11.684  28.451  0.0322  0.0838 -0.1140
92549W        W93413  13.125  15.299   2.099  0.1951 -0.1864 -0.1356
92550W        W93414  10.545  15.243  27.412 -0.5295  0.2465  0.1933
92551W        W93415  11.632  13.828  28.179  0.0021 -0.2141  0.2120
92552W        W93416  13.015  17.245  27.901  0.2278 -0.0495 -0.0367
92553W        W93417  14.569  15.809   0.107 -0.1097 -0.0454  0.1091
92554W        W93418  15.188  15.121  28.637 -0.4326 -0.2012  0.0167
92555W        W93419  12.284  15.922  27.975  0.2331 -0.1071 -0.2820
92556W        W93420  12.341  15.383   1.765 -0.3863 -0.1697 -0.3806
92557W        W93421  12.410  14.323   2.188  0.1004  0.0937  0.4699
92558W        W93422  11.186  18.450  26.676  0.2345  0.1196  0.1166
92559W        W93423   9.973  15.958  27.308 -0.1483 -0.2499 -0.2269
92560W        W93424  14.194  13.482  28.043  0.2119 -0.2661  0.1788
92561W        W93425  14.992  18.618  28.243  0.0925 -0.3282 -0.0688
92562W        W93426  12.224  17.594  29.037 -0.1458  0.0645  0.0226
92563W        W93427  11.050  16.021  26.793 -0.1339 -0.0473 -0.0342
92564W        W93428  14.022  15.663   0.168 -0.0195 -0.1355  0.0627
92565W        W93429  14.543  17.816  28.744 -0.2143  0.0524  0.0244
92566W        W93430  14.852  19.333   0.570  0.0887 -0.0106  0.1298
92567W        W93431  15.765  18.121   0.104  0.0617 -0.0495 -0.1535
92568W        W93432   9.343  17.471  25.801  0.2225 -0.1014 -0.3666
92569W        W93433  14.031  16.741   0.314  0.1009 -0.1413 -0.1920
92570W        W93434  14.915  16.823  26.785  0.1446 -0.0512 -0.0653
92571W        W93435  12.625  20.006  24.582 -0.1566 -0.0178 -0.3693
92572W        W93436  12.340  18.921  27.255 -0.0477 -0.1573  0.1441
92573W        W93437  13.080  14.106  28.099  0.0123 -0.1137  0.0220
92574W        W93438  15.693  14.960  26.363  0.0303 -0.2322 -0.0717
92575W        W93439  14.239  13.865   0.772  0.0293  0.3097 -0.0807
92576W        W93440  13.995  17.214  28.092 -0.0178  0.0416  0.3472
92577W        W93441  16.217  20.317  26.344  0.1648 -0.2415  0.1349
92578W        W93442  12.137  15.468  28.116 -0.3281  0.0311 -0.0055
92579W        W93443  13.515  17.245   1.164  0.0306 -0.0105 -0.0316
92580W        W93444  12.582  12.888  28.044  0.0092 -0.0084 -0.2388
92581W        W93445  16.293  16.811   1.591 -0.0658  0.0792 -0.2185
92582W        W93446  15.178  18.374  28.661 -0.3144 -0.1690 -0.2041
92583W        W93447  14.149  14.396  27.089 -0.0556  0.0384  0.4657
92584W        W93448  15.306  16.822   0.378 -0.1416 -0.2403  0.3543
92585W        W93449  13.048  13.465  26.755 -0.2695 -0.1232 -0.1565
92586W        W93450  14.246  18.567   0.365  0.0896  0.1878  0.0565
92587W        W93451  13.450  17.227  26.071 -0.0405 -0.1035  0.0746
92588W        W93452  11.912  12.828  26.997 -0.1102 -0.0042 -0.0067
92589W        W93453  12.507  15.710  26.159  0.1913  0.0053 -0.5553
92590W        W93454  13.675  14.614   0.100  0.0443 -0.0996 -0.0177
92591W        W93455  12.953  17.049  25.209 -0.0723  0.0463 -0.3397
92592W        W93456  13.618  18.102  24.890  0.3956  0.0368 -0.1734
92593W        W93457  12.188  15.218  26.814 -0.4323  0.1128 -0.1068
92594W        W93458  14.168  13.351  24.812 -0.4034  0.2086  0.0557
92595W        W93459  12.141  20.299  26.020  0.0978  0.0300  0.0636
92596W        W93460  13.063  17.926   1.614 -0.2462  0.1370 -0.0861
92597W        W93461  13.143  17.873  27.360 -0.1027 -0.0753  0.1112
92598W        W93462  12.701  15.438  29.008 -0.1350  0.3686  0.2214
92599W        W93463  12.687  14.378  28.900 -0.1130  0.2198  0.0672
92600W        W93464  12.636  17.341  24.237 -0.0010 -0.2023 -0.2386
92601W        W93465  13.196  14.677  26.646 -0.3641 -0.1288 -0.1459
92602W        W93466  11.088  16.177  27.256  0.0945 -0.1135 -0.3691
92603W        W93467  13.255  19.157  27.884 -0.2308 -0.0034 -0.2934
92604W        W93468  16.920  19.858  28.347 -0.2822  0.0604  0.0543
92605W        W93469  12.639  13.650  27.762 -0.1728 -0.3678  0.1615
92606W        W93470  14.262  19.321  27.533 -0.0337  0.1816 -0.2578
92607W        W93471  16.919  13.495  28.443  0.0359  0.0300  0.2706
92608W        W93472  14.217  17.065  28.517 -0.2220  0.2229  0.1023
92609W        W93473  10.922  18.109   0.551 -0.2667 -0.1036  0.1853
92610W        W93474  11.726  14.651  25.634  0.1177  0.2419  0.0090
92611W        W93475  10.970  14.528  28.646  0.0202 -0.1928 -0.0207
92612W        W93476  14.845  16.707  25.077  0.3869 -0.0207  0.2762
92613W        W93477  11.386  17.919  27.292 -0.0939 -0.0716  0.1806
92614W        W93478  11.840  14.588  28.426  0.2511 -0.0855 -0.0385
92615W        W93479  11.986  15.516  28.710 -0.0034 -0.0357  0.0523
92616W        W93480  11.200  10.967  28.229 -0.1468  0.0270  0.4525
92617W        W93481  12.804  13.552  26.242 -0.1756 -0.1583 -0.1947
92618W        W93482  13.676  14.113  28.223  0.2062  0.0652  0.1762
92619W        W93483  13.838  15.610  25.146  0.0332  0.0091  0.0654
92620W        W93484  15.281  20.058   0.046 -0.1957  0.0675  0.2159
92621W        W93485  11.712  13.647  25.946  0.0743 -0.1263  0.0390
92622W        W93486  13.685  18.227   0.081 -0.1657  0.3352  0.1207
92623W        W93487  13.019  14.988   0.550  0.1419 -0.2280  0.0520
92624W        W93488  13.202  13.800  26.335 -0.0331 -0.2026 -0.1460
92625W        W93489  13.713  15.162  28.082 -0.0398  0.2836 -0.0254
92626W        W93490  13.503  18.350  27.215 -0.0537  0.0990  0.2858
92627W        W93491  12.580  15.080  28.182 -0.4061 -0.1356  0.0265
92628W        W93492  12.175  14.585   1.336  0.3450  0.1117 -0.2840
92629W        W93493  13.856  16.951  26.762  0.1806  0.3016  0.1089
92630W        W93494  14.097  15.724  28.090  0.0429  0.0247 -0.1595
92631W        W93495  15.505  18.024   1.608 -0.0124  0.1030 -0.0460
92632W        W93496  12.712  12.391  26.782  0.0241  0.2597 -0.0229
92633W        W93497  14.412  13.305  29.089  0.1635 -0.1378 -0.0366
92634W        W93498  12.688  17.923  27.160 -0.1078  0.0045  0.1033
92635W        W93499  14.281  16.702  28.130 -0.3217  0.0423 -0.0316
92636W        W93500  13.131  14.415  26.108 -0.1168  0.1624 -0.0712
92637W        W93501  11.373  17.726  25.502  0.3263  0.1140 -0.0146
92638W        W93502  13.131  16.292  26.211  0.0743 -0.1202 -0.4525
92639W        W93503  12.007  18.848   0.806  0.2568 -0.1497 -0.3018
92640W        W93504  12.197  17.623  25.061 -0.1853 -0.1929  0.2320
92641W        W93505  12.359  15.149   3.177 -0.0696 -0.0834 -0.1562
92642W        W93506  15.828  14.659  28.665  0.0975  0.0287 -0.1079
92643W        W93507  12.709  18.554   0.878 -0.0630  0.0565  0.1147
92644W        W93508  10.042  16.854  28.147  0.2931  0.2373 -0.1630
92645W        W93509  13.013  16.296  26.799 -0.0751 -0.1349 -0.2588
92646W        W93510  14.259  14.864  25.794  0.2549  0.1712  0.3366
92647W        W93511  14.880  17.046   0.240  0.4706  0.1446 -0.2284
92648W        W93512  13.020  18.168  24.674  0.1591 -0.1773 -0.0913
92649W        W93513  14.821  16.560  28.188 -0.1586 -0.0343  0.0719
92650W        W93514  14.122  14.174  25.917 -0.1239  0.0476  0.4346
92651W        W93515  10.903  17.192   0.465  0.0060  0.2061 -0.1585
92652W        W93516  13.112  15.168   0.032 -0.0662 -0.1397  0.0788
92653W        W93517  12.774  12.951  26.650  0.3416  0.0003  0.2015
92654W        W93518  14.472  16.120  28.009  0.2557  0.0068 -0.0278
92655W        W93519  14.660  17.849  27.697  0.2037 -0.0573  0.2423
92656W        W93520  14.510  16.300  27.119  0.2060  0.4103 -0.0624
92657W        W93521  13.197  15.828  26.984  0.0507  0.2358  0.1297
92658W        W93522  13.494  16.022  27.842  0.2863  0.2268 -0.1908
92659W        W93523  14.402  14.456  28.537  0.1537  0.1781 -0.0181
92660W        W93524  11.483  13.076  27.686 -0.1919  0.0458  0.3328
92661W        W93525  15.701  18.479  28.813  0.0151 -0.0228 -0.1960
92662W        W93526  13.561  19.464  26.352 -0.1984  0.0939 -0.0438
92663W        W93527  14.256  17.794   1.918 -0.0964  0.1168  0.0009
92664W        W93528  15.297  18.177   1.013  0.0510 -0.0117  0.3370
92665W        W93529  14.132  15.993  27.226 -0.2816  0.1870  0.2100
92666W        W93530  13.096  18.160  28.266 -0.2205  0.1852 -0.3004
92667W        W93531  14.966  12.857  26.400  0.0028 -0.0501 -0.0520
92668W        W93532  14.306  14.879   1.108  0.1266  0.2647 -0.0834
92669W        W93533  12.167  14.569  27.739  0.1471  0.1213  0.0354
92670W        W93534  12.947  16.536   0.634  0.1225 -0.0391 -0.2952
92671W        W93535  15.284  15.433  27.498  0.4991  0.0697 -0.0965
92672W        W93536  14.601  15.704  28.213 -0.1596  0.0001  0.0120
92673W        W93537  13.027  18.111  25.351  0.3397  0.1901  0.0576
92674W        W93538  10.353  17.262  26.712 -0.0105  0.0238 -0.1004
92675W        W93539  14.544  14.357  27.701  0.0627 -0.1269 -0.0503
92676W        W93540  10.189  18.537  24.467 -0.1507 -0.1354 -0.1450
92677W        W93541  14.829  16.189  24.947  0.3368 -0.2201  0.1356
92678W        W93542  13.104  18.800   0.187  0.0455 -0.1350 -0.0456
92679W        W93543  13.091  15.563  26.272 -0.1501 -0.2239  0.3392
92680W        W93544  13.322  16.124  27.375  0.0643 -0.0196  0.1295
92681W        W93545  13.608  22.056  28.460 -0.1131 -0.1135  0.1069
92682W        W93546  11.091  19.933  28.992 -0.2181  0.1671  0.2162
92683W        W93547  12.389  15.866  29.020  0.0631 -0.0689  0.0119
92684W        W93548  14.914  20.905  29.000 -0.2429  0.2349 -0.1769
92685W        W93549  11.809  14.815  26.949 -0.1341  0.1433  0.3680
92686W        W93550  15.633  18.329   0.546  0.1944 -0.1912 -0.1386
92687W        W93551  12.287  13.890  26.610 -0.1117 -0.0100  0.2564
92688W        W93552  14.118  16.193   0.245 -0.0554  0.1384 -0.0402
92689W        W93553  12.814  16.102  27.269 -0.1538  0.1764  0.0198
92690W        W93554  10.559  16.777   0.589  0.1250  0.1467  0.3012
92691W        W93555  10.881  16.546  26.739  0.1879 -0.0270  0.1324
92692W        W93556  12.379  15.621  26.643 -0.0099 -0.0984 -0.2085
92693W        W93557  12.050  16.624  25.847  0.2402 -0.1850 -0.3147
92694W        W93558  12.092  14.751   0.859 -0.4734  0.1807  0.0708
92695W        W93559  10.757  17.065  27.532  0.0444 -0.1192 -0.1250
92696W        W93560  14.631  17.472   0.491 -0.1591  0.1319  0.2019
92697W        W93561  13.580  14.237   0.481 -0.1204  0.0790  0.0465
92698W        W93562  12.796  11.468   0.596  0.2819  0.2686  0.0263
92699W        W93563  13.569  12.256  27.630  0.3281  0.1210  0.0905
92700W        W93564  13.199  13.950  27.233  0.2312  0.2297 -0.1222
92701W        W93565  12.388  15.830  27.454  0.0810  0.3154 -0.0232
92702W        W93566  10.536  16.333  28.072 -0.1009 -0.0430  0.0092
92703W        W93567  11.565  17.315  25.244 -0.0258  0.0296 -0.0562
92704W        W93568  11.107  14.419  27.387 -0.0504 -0.1537  0.2641
92705W        W93569  14.572  16.422  26.653 -0.0914 -0.0911  0.1100
92706W        W93570  13.257  16.956  28.269  0.1032  0.0687  0.0872
92707W        W93571  10.520  16.293  28.624  0.0560 -0.1585 -0.0819
92708W        W93572  13.762  15.053  25.415  0.1123  0.3026 -0.1327
92709W        W93573  15.723  16.385  25.993  0.1301 -0.1957 -0.0925
92710W        W93574  12.319  16.925   0.567  0.0513 -0.2680 -0.0653
92711W        W93575  11.121  15.970  28.507 -0.5644  0.1653  0.1725
92712W        W93576  13.064  15.861   1.389  0.2369  0.2177 -0.0856
92713W        W93577  13.477  15.848  26.043 -0.0205 -0.2238 -0.4635
92714W        W93578  10.501  18.201  26.408 -0.0350 -0.2181 -0.0367
92715W        W93579  13.196  16.866   0.934  0.2556  0.0001  0.0526
92716W        W93580  11.753  16.164  25.817  0.5049  0.0010 -0.0176
92717W        W93581  12.429  14.183  26.945  0.1669  0.0555 -0.0276
92718W        W93582  16.023  14.880  24.399  0.0235 -0.1365  0.5945
92719W        W93583  13.353  16.782  28.693  0.1908  0.3763  0.1256
92720W        W93584  15.752  16.036  27.221  0.0894 -0.0667 -0.2454
92721W        W93585  10.642  14.472  27.218  0.1406  0.0552  0.2211
92722W        W93586  12.933  16.435  28.597  0.3584 -0.1131 -0.5116
92723W        W93587  15.402  17.974  28.841  0.0303 -0.0481  0.0454
92724W        W93588  12.389  16.364  22.241 -0.1763 -0.0568  0.1503
92725W        W93589  10.850  17.635   0.273 -0.2118  0.0663  0.1955
92726W        W93590  12.683  16.149   0.439 -0.1630  0.3214 -0.1196
92727W        W93591  10.971  14.112  27.024 -0.0761 -0.1153 -0.0318
92728W        W93592  10.985  14.127  25.647 -0.0242  0.0659  0.0855
92729W        W93593  13.317  15.677  25.290  0.0925 -0.2185  0.0657
92730W        W93594  12.217  12.476  26.838  0.0570 -0.1623 -0.0669
92731W        W93595   9.099  15.696  27.550  0.0079  0.0574  0.0753
92732W        W93596  12.708  17.683   0.091 -0.2380 -0.0093  0.5385
92733W        W93597  17.317  15.172   1.504 -0.1553 -0.1811  0.1595
92734W        W93598  12.188  16.019  27.003  0.1717 -0.2611  0.0162
92735W        W93599  13.969  12.215  28.582  0.1471 -0.1299  0.0667
92736W        W93600  14.733  16.668  26.267 -0.2950  0.2925  0.0111
92737W        W93601  11.653  11.826  28.936  0.1911 -0.0277  0.3052
92738W        W93602  14.205  16.412   0.652 -0.1509 -0.3774 -0.0106
92739W        W93603  11.266  13.832  26.099  0.0264 -0.0927  0.4197
92740W        W93604  12.413  17.178   2.969  0.2953  0.3983  0.3453
92741W        W93605  14.219  16.706  26.397 -0.0180 -0.0578  0.1404
92742W        W93606  13.681  17.691  28.457 -0.2163 -0.2606  0.0339
92743W        W93607  13.100  17.110  24.391  0.1913  0.0335 -0.1449
92744W        W93608  14.342  15.303  27.995  0.0790 -0.0440  0.1381
92745W        W93609  12.785  16.040  25.929  0.2054 -0.1410  0.4119
92746W        W93610  12.180  17.301  25.714  0.0197 -0.0287 -0.0423
92747W        W93611  12.126  15.576  27.144  0.0757  0.2427 -0.2905
92748W        W93612  13.378  16.405  28.402  0.2732 -0.2631  0.1277
92749W        W93613  13.538  17.200  24.174 -0.3788 -0.0921 -0.1955
92750W        W93614  12.831  16.716  27.954 -0.0624  0.0124 -0.1902
92751W        W93615  13.322  16.133  28.814  0.0789 -0.2753  0.0058
92752W        W93616  11.910  16.616   1.611 -0.4148  0.0473  0.1616
92753W        W93617  12.656  16.664   0.254 -0.1564 -0.2661 -0.2005
92754W        W93618  14.395  12.396  28.553 -0.3207 -0.0166 -0.0374
92755W        W93619  16.459  16.716  28.774  0.0477  0.0509 -0.0952
92756W        W93620  13.640  17.018   2.311 -0.0016 -0.1536  0.1572
92757W        W93621  12.166  15.419  26.272  0.2101  0.0600 -0.0581
92758W        W93622  15.155  18.379  26.410  0.2333  0.0642 -0.3035
92759W        W93623  10.635  15.333   2.242  0.1312 -0.0295 -0.0317
92760W        W93624  14.325  18.974  28.173  0.1936 -0.1180  0.0958
92761W        W93625  14.052  15.251   0.588 -0.1725  0.1517 -0.1821
92762W        W93626  15.488  19.022  25.797 -0.0075  0.1055  0.0552
92763W        W93627  17.156  15.280  28.048 -0.3078 -0.1805  0.0138
92764W        W93628  11.227  14.057  28.684 -0.1708 -0.0410  0.1015
92765W        W93629   9.561  16.582  29.012  0.2434 -0.5457 -0.1278
92766W        W93630  11.158  17.526  27.517 -0.0536 -0.0880 -0.3288
92767W        W93631  14.896  17.417  27.877 -0.2713 -0.0128 -0.0554
92768W        W93632   9.515  16.044  29.039 -0.1375 -0.1872 -0.2181
92769W        W93633  14.716  17.762  27.201  0.1228 -0.0143  0.1742
92770W        W93634  13.608  14.764  27.368 -0.2048  0.1641 -0.1019
92771W        W93635  12.223  13.057  28.357 -0.0842 -0.1494  0.0534
92772W        W93636  14.132  15.163  26.539  0.2427 -0.1705 -0.0377
92773W        W93637  15.379  17.911  27.128 -0.0774  0.1454 -0.2875
92774W        W93638  14.197  17.396  25.309 -0.0278  0.2532  0.1782
92775W        W93639  12.478  14.795  28.638 -0.3492 -0.2246 -0.1064
92776W        W93640  13.123  13.357   0.010  0.1767  0.1489  0.1489
92777W        W93641  10.739  14.075  28.553  0.1999  0.2669  0.0149
92778W        W93642  15.040  15.581  28.391  0.1239  0.2509 -0.2535
92779W        W93643  11.047  14.967  28.305 -0.0167  0.0657  0.2033
92780W        W93644  15.667  15.273   0.352  0.1473 -0.0711 -0.1600
92781W        W93645  10.113  17.591   0.681  0.1186  0.0504  0.4330
92782W        W93646  15.955  16.025  28.422 -0.0875 -0.1991 -0.3441
92783W        W93647  13.738  17.746  26.700  0.1968 -0.0667 -0.0410
92784W        W93648  14.651  15.274  25.737  0.2624  0.1656 -0.0896
92785W        W93649  16.102  19.078   1.802  0.0364  0.0788 -0.0269
92786W        W93650  16.421  20.839  28.329  0.1949 -0.2444 -0.1021
92787W        W93651  13.980  17.180  26.297  0.0149  0.2750  0.0289
92788W        W93652   9.068  17.684  24.984 -0.3648 -0.0756 -0.3228
92789W        W93653  10.028  17.321  26.339 -0.3339 -0.0216  0.0181
92790W        W93654  14.445  14.354  24.084  0.1704 -0.0310  0.0683
92791W        W93655  10.322  14.433  28.161  0.0884  0.1344 -0.1878
92792W        W93656  12.928  19.535  25.790  0.3006  0.1650  0.0631
92793W        W93657  16.820  18.765  27.081  0.0961 -0.1599 -0.1853
92794W        W93658  13.687  15.587  27.753 -0.0953 -0.1183 -0.0094
92795W        W93659  14.903  18.621  27.685  0.0214 -0.2077  0.2357
92796W        W93660  15.640  18.476  28.314 -0.1171  0.0764  0.2655
92797W        W93661  13.146  14.886   1.018  0.0634 -0.0232  0.1997
92798W        W93662   9.393  17.887  28.350  0.0948 -0.0889  0.2051
92799W        W93663  10.340  17.301  27.893 -0.0770  0.2204 -0.0673
92800W        W93664  12.395  18.802  26.145 -0.2196 -0.0408 -0.0298
92801W        W93665  13.751  14.393  28.746 -0.0795 -0.0125  0.0359
92802W        W93666  14.006  16.255  25.188 -0.0656  0.2609  0.0773
92803W        W93667  15.049  16.386  26.593 -0.1726  0.0080 -0.0166
92804W        W93668   9.144  18.481  26.182  0.0445 -0.2509 -0.1481
92805W        W93669  13.828  17.429   1.994 -0.1811  0.0894  0.2224
92806W        W93670  12.524  14.121  28.037  0.1057  0.1094 -0.0104
92807W        W93671  14.939  16.912   1.893  0.0738  0.2196  0.2882
92808W        W93672  14.838  21.060   1.604  0.0214 -0.2682  0.0699
92809W        W93673  14.499  15.203  26.923 -0.0105  0.1441  0.1112
92810W        W93674  11.255  13.512  27.594 -0.0701 -0.0861 -0.1967
92811W        W93675  14.230  17.989  27.942 -0.0604 -0.1330 -0.0526
92812W        W93676  14.908  17.131  26.102  0.0666 -0.0871 -0.2962
92813W        W93677   9.681  16.543  27.286 -0.0146  0.0956 -0.0241
92814W        W93678  11.885  17.818  26.373 -0.0277  0.2454 -0.2293
92815W        W93679  17.082  17.269  24.019  0.1302  0.3068  0.1654
92816W        W93680  12.349  20.454  24.482 -0.4027 -0.2065 -0.1419
92817W        W93681  11.457  16.126  27.600  0.0798 -0.1879  0.1327
92818W        W93682  11.299  15.630  26.647 -0.0090 -0.3789  0.0237
92819W        W93683  16.005  16.118  27.655 -0.1432  0.2055  0.2596
92820W        W93684  12.808  17.250   1.127 -0.0686 -0.0820 -0.1066
92821W        W93685  12.191  14.449   3.654 -0.0281  0.0787  0.2433
92822W        W93686  13.088  15.328  26.916  0.1342  0.1677  0.0121
92823W        W93687  13.792  17.629  25.598 -0.1921 -0.0792 -0.1429
92824W        W93688  11.860  13.898  27.614  0.0792 -0.0522  0.1562
92825W        W93689  13.313  12.894  26.696 -0.0855 -0.0673 -0.0877
92826W        W93690  14.931  15.294   0.774  0.1600 -0.0042  0.2930
92827W        W93691  14.244  17.672  27.463  0.1683 -0.3260 -0.1627
92828W        W93692  11.600  17.138  24.394  0.0280  0.0861 -0.0145
92829W        W93693  12.709  15.166  25.451 -0.0554  0.1373  0.0291
92830W        W93694  12.045  16.037   1.994  0.1845 -0.1174  0.1119
92831W        W93695  13.894  17.264  27.590  0.3106 -0.0012 -0.0331
92832W        W93696  16.055  14.040   0.790  0.0063 -0.1137 -0.0355
92833W        W93697  11.351  19.281  26.100  0.2673  0.3061 -0.0953
92834W        W93698  12.808  16.622  25.000  0.1107 -0.0558 -0.0735
92835W        W93699  13.556  16.489   0.495  0.3016  0.3334 -0.0619
92836W        W93700  17.175  14.160   1.092  0.3994  0.0519  0.0222
92837W        W93701  13.171  18.159  26.245 -0.3581  0.3459  0.0936
92838W        W93702  13.431  17.445  27.481  0.3308  0.0099 -0.1936
92839W        W93703  14.616  18.313  28.540  0.1288 -0.0561  0.0665
92840W        W93704  14.786  14.316   1.288 -0.0795 -0.3714 -0.1688
92841W        W93705  10.711  12.653  25.860  0.0705 -0.1305  0.3328
92842W        W93706  12.186  13.529  27.412 -0.2835  0.1414  0.1059
92843W        W93707  10.136  18.371  27.417  0.1709 -0.1353 -0.0269
92844W        W93708   8.978  15.441  24.623 -0.1604 -0.0032  0.0028
92845W        W93709  11.108  14.764  29.123  0.3183 -0.1792 -0.1959
92846W        W93710  13.800  13.395  27.756  0.1364  0.4183  0.0178
92847W        W93711  13.346  17.347   0.672  0.0419  0.1069  0.4448
92848W        W93712  10.707  15.758  28.134  0.2178 -0.3304  0.2521
92849W        W93713  11.951  18.156   0.532 -0.0378 -0.1938 -0.0986
92850W        W93714  10.174  14.296  27.396 -0.0810 -0.1354  0.1677
92851W        W93715  13.393  16.793  25.037  0.0843  0.1484  0.0024
92852W        W93716  14.010  17.888  24.651  0.3723 -0.1925 -0.1649
92853W        W93717  13.083  16.965  29.116 -0.1415 -0.1036 -0.1883
92854W        W93718  11.494  15.784  28.796 -0.0524 -0.2446 -0.3109
92855W        W93719  13.864  15.522  23.458  0.2889  0.1462 -0.1854
92856W        W93720  12.795  17.051   0.530 -0.3466  0.0663  0.0118
92857W        W93721  15.555  17.203  25.185  0.1186 -0.1033  0.0891
92858W        W93722  12.372  16.389  27.839  0.0922  0.1712 -0.2309
92859W        W93723  11.960  19.814   0.131  0.0067  0.0550 -0.0298
92860W        W93724  11.875  14.352  26.784 -0.3175 -0.1969  0.2854
92861W        W93725  11.049  18.294  27.169 -0.0965  0.5869 -0.1308
92862W        W93726  12.984  17.161  25.766 -0.0461 -0.1240 -0.0208
92863W        W93727  12.361  16.306  28.756  0.1220  0.3549  0.0924
92864W        W93728  11.412  14.302  25.893  0.0322  0.3230 -0.2284
92865W        W93729  15.243  13.246  25.239  0.2014  0.1065  0.1259
92866W        W93730  16.184  15.345  28.886  0.0445  0.0997  0.1400
92867W        W93731  13.146  16.940   1.433  0.0448 -0.1463  0.1418
92868W        W93732  14.499  16.151  28.890  0.0370  0.0503 -0.2075
92869W        W93733  15.335  18.408   0.058  0.2067  0.1380  0.1087
92870W        W93734  11.744  15.811  27.292  0.1583  0.2599 -0.1084
92871W        W93735  15.073  16.925  27.909  0.0221 -0.2147  0.2708
92872W        W93736  13.684  16.204  27.036  0.1015  0.1431 -0.2455
92873W        W93737  13.204  12.243  26.854  0.2061 -0.1155 -0.0816
92874W        W93738  14.170  17.496   0.247 -0.0623  0.2374  0.0645
92875W        W93739  14.855  14.863  26.832  0.0998 -0.0594 -0.0860
92876W        W93740  11.123  17.082  27.204  0.1155 -0.1163 -0.1572
92877W        W93741  10.761  18.641  26.266 -0.0835 -0.0312  0.3562
92878W        W93742  12.036  17.172  28.384  0.1633  0.3992  0.1065
92879W        W93743  12.643  17.252   2.411  0.1475 -0.1772 -0.1267
92880W        W93744  13.135  16.987  27.474 -0.2536  0.2200 -0.0203
92881W        W93745  10.464  15.301   0.474  0.1495 -0.1530  0.0040
92882W        W93746  10.377  21.239   0.591  0.1089 -0.0689  0.3180
92883W        W93747  12.159  16.242  24.534  0.0315 -0.1408  0.2519
92884W        W93748  16.783  13.248  28.909  0.0705 -0.3388 -0.0225
92885W        W93749  11.556  16.356  28.568  0.0472  0.1568  0.0072
92886W        W93750  12.926  15.045  28.654 -0.3814  0.1124 -0.1615
92887W        W93751  11.925  19.225  26.994  0.0068 -0.1837 -0.0954
92888W        W93752  11.648  19.881  25.128 -0.1820 -0.1071  0.0990
92889W        W93753  12.347  13.326  23.431  0.2441  0.0486 -0.0781
92890W        W93754  11.362  16.981  28.941  0.4771 -0.0379 -0.1349
92891W        W93755  13.547  17.591   1.528  0.2492  0.0741 -0.2467
92892W        W93756  10.257  14.012  29.070 -0.0832  0.0205 -0.3058
92893W        W93757  10.256  18.869  26.386  0.1739 -0.0409 -0.3555
92894W        W93758  12.673  17.613  24.967 -0.2194 -0.4098 -0.0817
92895W        W93759  12.698  16.976  27.101  0.2322  0.2304  0.0208
92896W        W93760   9.890  15.522  27.029 -0.0501  0.0464 -0.3465
92897W        W93761  13.703  15.413  26.328  0.4959 -0.0497  0.1019
92898W        W93762  11.673  17.936   1.889  0.2477 -0.0749  0.2978
92899W        W93763  12.020  18.777  25.774 -0.1672  0.0515 -0.0658
92900W        W93764  12.544  17.269  25.400  0.3027  0.1549 -0.0942
92901W        W93765  11.413  14.763  26.647  0.5007 -0.2479  0.1313
92902W        W93766  13.764  13.953  24.958 -0.2814 -0.0702 -0.0784
92903W        W93767  14.494  14.665  27.282  0.0176  0.5438  0.0395
92904W        W93768  14.307  15.793  25.205 -0.0967 -0.1420 -0.2484
92905W        W93769  14.429  16.343  28.450  0.0348  0.0564 -0.0130
92906W        W93770  11.029  13.021  25.649  0.0651 -0.2568 -0.1450
92907W        W93771  15.353  18.128  28.138  0.0483  0.1450  0.4549
92908W        W93772  11.682  15.608  25.017  0.0149  0.0836  0.2141
92909W        W93773   9.059  15.095  26.757 -0.3447 -0.0958 -0.0718
92910W        W93774  13.423  15.109  27.713  0.1907  0.0582  0.2256
92911W        W93775  18.026  18.444  28.279 -0.1333 -0.2760  0.1064
92912W        W93776  13.895  16.045  28.920  0.0345  0.3166  0.1115
92913W        W93777  10.747  15.151   1.207 -0.1270 -0.1438  0.1205
92914W        W93778  11.314  16.700  26.826 -0.1635  0.0757  0.2984
92915W        W93779   9.276  18.138   0.446 -0.2631 -0.1234 -0.1291
92916W        W93780  11.900  15.099  25.989 -0.0581 -0.2087  0.0289
92917W        W93781  13.547  17.284  26.572  0.0404 -0.1412 -0.1730
92918W        W93782  14.628  17.339  28.720  0.0904 -0.2270  0.1030
92919W        W93783  12.259  14.132  27.473 -0.2915  0.1738 -0.1793
92920W        W93784  14.661  17.081  28.241  0.3011 -0.1390 -0.2026
92921W        W93785  11.268  17.038  28.077 -0.0747  0.1598  0.1712
92922W        W93786  10.780  17.616   1.229 -0.1348  0.3642  0.2136
92923W        W93787  14.419  19.182  28.923 -0.1729 -0.0593 -0.2753
92924W        W93788  14.858  15.764   0.552 -0.2601  0.1067 -0.1962
92925W        W93789   9.377  15.686  27.996  0.0888  0.1241  0.2136
92926W        W93790  14.608  17.363  27.512  0.0411  0.0695 -0.1227
92927W        W93791  12.012  16.713  28.730 -0.3086 -0.2115  0.2581
92928W        W93792  14.184  19.923  28.378  0.2045 -0.0039  0.0996
92929W        W93793  12.659  16.157  28.295  0.1028  0.1018  0.1506
92930W        W93794  15.392  18.355  26.892  0.0028  0.0309  0.1512
92931W        W93795  14.388  18.251  29.019 -0.1249 -0.1029 -0.1715
92932W        W93796   9.149  17.887  25.531 -0.0973 -0.1785  0.1901
92933W        W93797  10.809  14.841  26.525 -0.0311 -0.3125 -0.2067
92934W        W93798  10.605  23.335   0.608  0.3093 -0.0102 -0.1320
92935W        W93799  12.740  23.752   4.584  0.2590 -0.0566  0.2922
92936W        W93800  17.661  19.605   3.104 -0.2805 -0.1668  0.3888
92937W        W93801  15.830  19.509   3.155 -0.0714  0.2667 -0.0384
92938W        W93802  13.239  21.742  26.480 -0.1304  0.0064  0.0508
92939W        W93803  11.263  17.241   1.270  0.0310  0.2067 -0.3232
92940W        W93804  13.436  19.823   2.628 -0.0596  0.0929  0.1149
92941W        W93805  11.387  22.476   3.130 -0.4498  0.3664  0.1414
92942W        W93806  13.340  21.617   5.061 -0.2559 -0.1727 -0.3143
92943W        W93807  11.556  18.868   1.895 -0.2957  0.2198  0.1666
92944W        W93808  11.327  16.555   5.218  0.1826  0.0106  0.2350
92945W        W93809  12.426  19.948   2.286  0.0943  0.0833  0.1925
92946W        W93810  12.063  20.581  28.841 -0.1667  0.2936  0.0251
92947W        W93811  14.055  20.382   5.511 -0.0578  0.1414 -0.2427
92948W        W93812   8.814  19.330   4.864  0.1228  0.2089  0.3118
92949W        W93813  13.405  21.824   3.781  0.2060 -0.0308 -0.2321
92950W        W93814  12.312  18.721   1.182  0.0576 -0.3095 -0.4624
92951W        W93815   9.718  20.258   2.399  0.0112  0.1982 -0.1753
92952W        W93816  11.587  16.781   3.151  0.0541 -0.0518  0.2435
92953W        W93817  15.477  18.945   3.771 -0.2797  0.2269 -0.0878
92954W        W93818  15.557  19.857   4.575  0.1616 -0.1839 -0.2431
92955W        W93819  12.462  19.231   1.522 -0.0780  0.1095  0.2500
92956W        W93820  10.756  22.498   0.978  0.0787 -0.1409  0.0377
92957W        W93821  11.387  21.234   2.910  0.3454 -0.2290 -0.0736
92958W        W93822  12.343  17.980   2.712  0.0704 -0.0787 -0.0514
92959W        W93823   9.548  20.400   2.877 -0.0432 -0.0880  0.1052
92960W        W93824  14.823  18.629   3.332 -0.0808  0.1473  0.0898
92961W        W93825  12.717  19.311  28.669 -0.0556  0.2250 -0.1256
92962W        W93826  13.652  21.021   2.640 -0.1418  0.1037  0.0978
92963W        W93827  14.057  18.422   1.959 -0.0172 -0.2627 -0.3152
92964W        W93828  13.102  19.034   2.355 -0.0108  0.0214  0.0250
92965W        W93829  10.228  20.030   4.790 -0.2702  0.1624  0.0355
92966W        W93830  10.098  22.424   4.252  0.0083  0.1387  0.1220
92967W        W93831  11.796  21.441   5.019  0.1859 -0.4360 -0.1251
92968W        W93832  11.570  20.270   5.118 -0.0402 -0.2792  0.1096
92969W        W93833  16.816  19.770   5.585  0.1658  0.2314  0.0400
92970W        W93834  14.207  17.080   0.699 -0.0190 -0.0059 -0.2313
92971W        W93835  10.605  22.633   2.446  0.2939 -0.2572 -0.0806
92972W        W93836  13.787  19.080   2.462  0.1177 -0.0412 -0.0032
92973W        W93837  13.360  17.996   2.441  0.0549  0.3807  0.3792
92974W        W93838  13.732  19.774   0.333  0.0228 -0.1753 -0.4430
92975W        W93839  15.055  17.852   3.076 -0.0245 -0.0820  0.0416
92976W        W93840  13.978  21.919   0.555 -0.1186  0.3015  0.2527
92977W        W93841  12.288  23.054   0.155  0.2350 -0.1848 -0.3450
92978W        W93842  13.415  22.034   2.466 -0.0013  0.1820 -0.2411
92979W        W93843  15.427  21.025   1.556  0.0664  0.0546  0.1483
92980W        W93844  12.034  18.634   2.386 -0.1815 -0.1344  0.0562
92981W        W93845  13.561  21.229   5.241 -0.1165  0.1287 -0.1406
92982W        W93846  12.488  21.251   0.936 -0.0930  0.0916  0.0651
92983W        W93847  13.217  21.758   1.145  0.0412  0.1618  0.1142
92984W        W93848  13.930  21.091   3.082 -0.1408  0.1313  0.1559
92985W        W93849  11.732  19.637   0.569  0.2159 -0.3626 -0.2294
92986W        W93850  13.884  21.106   1.909  0.1256 -0.0252  0.0431
92987W        W93851  12.857  21.908  28.182 -0.2111 -0.1480  0.2324
92988W        W93852  10.751  17.039   1.420 -0.2112  0.0574  0.0456
92989W        W93853  13.222  20.159  28.341 -0.0863 -0.2531  0.0383
92990W        W93854  10.639  21.701   0.648 -0.3539  0.0140  0.3097
92991W        W93855  13.084  19.205   2.827  0.2551 -0.1352  0.0309
92992W        W93856  11.636  22.090   0.989  0.0770 -0.2471  0.1284
92993W        W93857  12.640  19.885   1.422 -0.1534  0.0917 -0.2105
92994W        W93858  13.539  20.660   0.062 -0.0879 -0.1098 -0.1945
92995W        W93859  11.305  21.731   2.300  0.0773  0.0266  0.2772
92996W        W93860  12.875  19.979   3.137  0.1800  0.2589  0.1640
92997W        W93861  11.129  21.552  28.857 -0.0419  0.1661 -0.1911
92998W        W93862  12.113  18.273   1.117  0.0374  0.1931  0.1541
92999W        W93863  17.804  19.186   3.423  0.0055  0.3522 -0.1491
93000W        W93864  11.753  22.415  27.370  0.0810 -0.2207  0.1130
93001W        W93865  12.069  21.356  27.895 -0.2741  0.1746 -0.1538
93002W        W93866  11.292  22.236   0.231  0.3186 -0.0136 -0.3804
93003W        W93867  10.240  22.645   0.024  0.0122  0.1301 -0.0641
93004W        W93868  16.420  17.931   3.145 -0.0666  0.3838  0.1715
93005W        W93869  13.207  18.648   0.766  0.1976 -0.0468  0.0963
93006W        W93870  13.398  22.713   1.628  0.1495  0.0378  0.2676
93007W        W93871  15.400  18.624   2.141  0.0455 -0.0657 -0.2410
93008W        W93872  16.686  23.605   1.151 -0.0211 -0.1705 -0.0089
93009W        W93873  14.262  17.947   3.619 -0.1579 -0.1894 -0.2746
93010W        W93874   8.980  19.915   2.389  0.1485 -0.0439  0.2160
93011W        W93875  13.316  20.971   3.835 -0.0063 -0.0221  0.0625
93012W        W93876  14.585  20.015   1.653 -0.1030 -0.3787 -0.3260
93013W        W93877  15.868  17.369   2.074 -0.2837  0.0880  0.4478
93014W        W93878  11.796  19.698   5.717 -0.2578 -0.0424 -0.1430
93015W        W93879  10.813  19.279   2.320  0.1808  0.1483 -0.1415
93016W        W93880  11.598  18.368   2.181 -0.1991  0.3909  0.1032
93017W        W93881  12.981  18.151   0.900 -0.1537  0.0903  0.2716
93018W        W93882  11.351  19.672   2.957  0.3306 -0.2620 -0.1409
93019W        W93883  13.342  19.314   1.841  0.1520 -0.1250 -0.0084
93020W        W93884  15.043  20.324   2.597 -0.3026  0.0399 -0.0275
93021W        W93885  15.311  18.540   3.363 -0.1828 -0.0202 -0.1063
93022W        W93886  16.249  18.800   3.263 -0.1552 -0.0876 -0.2027
93023W        W93887  14.489  18.900   1.741  0.1085 -0.0123  0.0408
93024W        W93888  12.697  19.314   0.217  0.2833 -0.3296  0.3817
93025W        W93889  13.439  19.846   1.988  0.1032 -0.3166 -0.1318
93026W        W93890  12.753  21.930   3.187 -0.1952  0.3539  0.1326
93027W        W93891  11.825  18.587   1.348  0.0824 -0.0133  0.0238
93028W        W93892  13.379  18.023   4.754  0.1158 -0.0291 -0.3502
93029W        W93893  16.466  19.810   1.403  0.1122  0.0632 -0.1226
93030W        W93894  15.152  20.102   1.796  0.0493  0.2815  0.0370
93031W        W93895   8.683  21.766   4.845 -0.3854 -0.0571  0.0780
93032W        W93896   9.468  18.013   1.551  0.0783 -0.0114  0.1463
93033W        W93897  18.144  18.141   0.631  0.1331 -0.1428 -0.0927
93034W        W93898  15.230  22.342  27.190 -0.1893  0.1065  0.0567
93035W        W93899  10.875  19.808   2.055  0.1656 -0.1929 -0.1410
93036W        W93900  15.260  20.773   0.806  0.0535  0.0075 -0.3826
93037W        W93901  13.645  21.580   2.553  0.0534 -0.0363 -0.1234
93038W        W93902  13.046  16.930   2.200  0.0952 -0.1962 -0.1107
93039W        W93903  14.303  18.208   1.590  0.2537  0.0958  0.1803
93040W        W93904  13.209  21.610  28.489 -0.0764 -0.1884 -0.2787
93041W        W93905  12.283  20.600   8.437 -0.0078  0.1531 -0.1246
93042W        W93906  12.513  18.405   2.201  0.2005  0.0780  0.0858
93043W        W93907  13.170  20.842  27.081  0.1246  0.1608 -0.1405
93044W        W93908  11.813  21.479   3.163 -0.2480 -0.0929 -0.0137
93045W        W93909  14.243  23.724  28.259 -0.1308  0.0546  0.1225
93046W        W93910  15.228  16.465   4.493  0.0741 -0.1362 -0.0249
93047W        W93911  14.081  22.554   1.475  0.1887  0.0979  0.2777
93048W        W93912  15.376  21.738  28.454 -0.0531 -0.1048 -0.1235
93049W        W93913  14.971  19.056   0.006 -0.1051 -0.0078  0.2369
93050W        W93914  16.033  19.861   4.547  0.1396 -0.1700 -0.1421
93051W        W93915  14.787  19.074   2.977 -0.1673  0.0304  0.2285
93052W        W93916  14.752  17.015   0.900 -0.0877  0.1844 -0.0739
93053W        W93917  16.600  18.217   1.234  0.1650  0.0512  0.1962
93054W        W93918  14.743  18.053   2.659 -0.5066 -0.2197  0.2282
93055W        W93919  12.994  23.665   0.685 -0.2646  0.0171 -0.1171
93056W        W93920  14.688  25.046  26.980 -0.1215 -0.0641 -0.3566
93057W        W93921  15.658  19.187   2.700 -0.0806 -0.0877 -0.1877
93058W        W93922  16.348  19.302   3.042 -0.0293 -0.1278 -0.2881
93059W        W93923  13.842  20.558   1.514  0.2097 -0.0153  0.0056
93060W        W93924  12.683  21.824   2.666  0.1200 -0.1956 -0.1219
93061W        W93925  17.129  19.780   2.477  0.0020  0.3303 -0.2613
93062W        W93926  13.500  23.176   1.784 -0.1371 -0.0382 -0.0647
93063W        W93927  13.063  19.712   1.087 -0.1581 -0.1703  0.1043
93064W        W93928  16.118  23.062   3.916 -0.1392 -0.1473  0.0681
93065W        W93929  11.338  17.209   3.110  0.1940 -0.2099  0.0035
93066W        W93930  12.715  23.794   2.850  0.1116  0.1674 -0.0099
93067W        W93931  13.686  18.576   1.594 -0.1068 -0.1160 -0.2023
93068W        W93932  16.881  19.300   2.897 -0.1337  0.0164  0.0156
93069W        W93933  11.468  19.872   0.906 -0.1066  0.2497 -0.0016
93070W        W93934  12.990  20.490   0.048  0.2575 -0.1611 -0.0304
93071W        W93935  12.711  16.078   3.418  0.4642  0.0773  0.0841
93072W        W93936  15.095  20.481   3.073 -0.1871 -0.1766 -0.1336
93073W        W93937  12.049  19.153   1.214 -0.0679 -0.1151 -0.3403
93074W        W93938  12.222  16.820   0.051 -0.2374  0.4325  0.2201
93075W        W93939  14.129  17.336   3.338  0.1494  0.1599  0.1871
93076W        W93940  10.388  22.543   0.573 -0.1089 -0.0828 -0.3505
93077W        W93941  13.942  20.586  28.154 -0.3105  0.2830 -0.0761
93078W        W93942  11.519  17.190   4.519  0.0603 -0.1218 -0.1209
93079W        W93943  13.191  19.295   0.353 -0.1730  0.1923 -0.1191
93080W        W93944  13.043  17.432   1.512  0.1156  0.1098  0.0456
93081W        W93945  12.609  20.162   2.667  0.2483 -0.2708  0.0982
93082W        W93946  12.637  19.212   4.352  0.2105  0.0146 -0.1915
93083W        W93947  12.038  21.166   0.791 -0.0231  0.1201 -0.1115
93084W        W93948  14.427  21.861   2.827  0.0065  0.3878  0.4079
93085W        W93949  13.641  18.828   1.065 -0.2547  0.1461 -0.0987
93086W        W93950  11.517  23.398   1.322 -0.1181 -0.2262 -0.3015
93087W        W93951  12.735  18.819   1.432  0.0524 -0.0858 -0.1447
93088W        W93952  13.909  20.582   2.612  0.0839  0.0957  0.0957
93089W        W93953  14.999  18.099   1.383  0.1319 -0.1349  0.2406
93090W        W93954  11.976  19.821   3.859  0.0972  0.0397  0.4154
93091W        W93955  15.303  19.194   2.301  0.0305 -0.0006  0.0876
93092W        W93956  11.477  19.668   0.028  0.2319  0.0108 -0.2281
93093W        W93957  16.641  21.562  27.667  0.1616  0.1690 -0.1287
93094W        W93958  14.675  18.982   3.640 -0.1808 -0.0386  0.4836
93095W        W93959  13.119  21.339   4.541  0.0705 -0.1031  0.0075
93096W        W93960  13.396  19.053   3.247  0.1215  0.0191 -0.0532
93097W        W93961  12.497  19.243   2.869 -0.2825 -0.0490  0.1879
93098W        W93962  14.937  18.254   5.032 -0.0950 -0.0462 -0.3186
93099W        W93963  12.143  20.531   1.340  0.2401  0.1461  0.2160
93100W        W93964  14.121  20.051   1.360  0.0171 -0.0105 -0.0296
93101W        W93965  11.498  22.213   2.675 -0.4762  0.0053 -0.1032
93102W        W93966  12.933  21.643   4.237 -0.3697  0.0090  0.0771
93103W        W93967  10.669  19.614  29.003  0.2172 -0.1334 -0.2849
93104W        W93968  12.975  18.823  28.079  0.1087 -0.0325  0.1229
93105W        W93969  12.852  19.034   3.363  0.0632  0.0064 -0.3118
93106W        W93970  15.374  20.469   3.914 -0.0563  0.0643  0.1850
93107W        W93971  12.736  23.033   1.022 -0.1425  0.0275  0.2345
93108W        W93972  12.423  17.946   0.828 -0.2155 -0.4938  0.0954
93109W        W93973  14.046  20.423   0.023  0.1374  0.2993 -0.1572
93110W        W93974  11.056  19.502   8.085  0.2331 -0.0121  0.3835
93111W        W93975   9.501  21.737   1.241 -0.1819  0.0041  0.0672
93112W        W93976  12.898  21.228   0.507  0.0089  0.0847  0.0010
93113W        W93977  12.540  21.629   5.826  0.1682 -0.1551 -0.1293
93114W        W93978  11.008  18.974   1.186 -0.1301 -0.0153 -0.0551
93115W        W93979  12.877  21.826   0.381  0.1312 -0.0218  0.2604
93116W        W93980  14.537  19.735  27.688  0.3319 -0.1812  0.2866
93117W        W93981  12.333  20.224   3.098  0.4383 -0.1293  0.0121
93118W        W93982  15.476  19.668   1.484 -0.0016  0.3407 -0.1683
93119W        W93983  13.694  19.959   4.311  0.0891 -0.1426 -0.0348
93120W        W93984  15.044  19.922   2.929 -0.0199 -0.0873 -0.3523
93121W        W93985   9.404  19.234  28.897  0.1665  0.1959 -0.2155
93122W        W93986  14.341  24.150   1.071  0.0317 -0.0116  0.3555
93123W        W93987  12.395  19.734  29.093  0.0917 -0.0862  0.2322
93124W        W93988  15.427  20.689   3.472  0.0888  0.0264 -0.0204
93125W        W93989  10.333  21.012  27.420  0.1023  0.2643  0.3316
93126W        W93990   8.609  21.020   2.247 -0.0644 -0.1839 -0.0146
93127W        W93991  11.199  17.494   2.309  0.0173 -0.0008  0.1393
93128W        W93992  10.873  20.423   3.663 -0.0952  0.2325  0.2702
93129W        W93993  13.460  18.085   1.354 -0.0279 -0.0543 -0.0627
93130W        W93994  14.463  20.291   0.339 -0.1608  0.1003 -0.1999
93131W        W93995  11.309  17.749   1.511  0.1235  0.1945  0.0284
93132W        W93996  12.546  19.060   0.964 -0.2661 -0.0557  0.3612
93133W        W93997  13.537  15.555   2.948 -0.0340 -0.0400 -0.0385
93134W        W93998   9.107  20.310  28.134  0.2306  0.1598 -0.1600
93135W        W93999  16.495  18.463   2.383  0.2365 -0.2387 -0.0881
93136W        W94000  14.724  19.909   0.088 -0.3617  0.0305  0.0158
93137W        W94001  12.918  18.012   2.054  0.0685  0.0516  0.1127
93138W        W94002  10.675  17.717   5.033 -0.2200  0.2539 -0.1198
93139W        W94003   8.769  18.193   2.210 -0.2341 -0.3000 -0.0295
93140W        W94004  11.500  20.791   2.037 -0.0130  0.1271  0.1176
93141W        W94005  14.691  19.463   1.646 -0.0839 -0.1572  0.3307
93142W        W94006  11.499  22.887   1.347 -0.0955 -0.0197 -0.1068
93143W        W94007  12.152  22.164   1.980 -0.4528 -0.0456 -0.0504
93144W        W94008  14.497  21.987   4.724 -0.1099  0.0509 -0.1012
93145W        W94009  10.535  21.685   0.069  0.0544  0.0869 -0.2322
93146W        W94010  12.095  21.734   2.773 -0.3168 -0.1014  0.0991
93147W        W94011  13.156  20.568   3.969 -0.0540  0.4454  0.5615
93148W        W94012  15.529  19.041   1.862  0.1444 -0.1347  0.0674
93149W        W94013  13.291  21.229   0.211 -0.1929 -0.0377 -0.0927
93150W        W94014  14.286  20.840   2.848 -0.2353 -0.0849  0.2498
93151W        W94015  14.294  24.968  28.243 -0.1701  0.2007 -0.0582
93152W        W94016  13.418  21.337   2.989  0.1128  0.2285 -0.0355
93153W        W94017  14.148  20.310   3.261  0.0573 -0.1435  0.0957
93154W        W94018  14.369  20.943   1.624 -0.2370  0.1410 -0.1080
93155W        W94019  13.341  19.787   1.550 -0.1078  0.0585  0.0574
93156W        W94020  15.684  21.268   2.763  0.2041  0.0754 -0.2445
93157W        W94021  11.462  21.259   2.057  0.1599 -0.1880  0.0747
93158W        W94022  12.350  20.649   0.902  0.0142  0.0293  0.3568
93159W        W94023  11.873  17.807   2.790 -0.0095  0.1696  0.3824
93160W        W94024  12.958  21.524   3.004  0.4058 -0.3036  0.1592
93161W        W94025  10.661  18.275   3.898  0.0400 -0.1381 -0.2890
93162W        W94026  13.801  20.645   2.005  0.3596 -0.1448 -0.2368
93163W        W94027  15.099  18.296   1.846 -0.0758 -0.0873  0.1046
93164W        W94028  15.905  17.844   2.924 -0.0263  0.0353  0.1054
93165W        W94029  16.252  19.511   4.132  0.0605  0.1764  0.0115
93166W        W94030  12.603  21.081  27.281 -0.0128 -0.0609  0.2210
93167W        W94031  13.596  20.251   2.265 -0.0698  0.3070 -0.1203
93168W        W94032  12.143  16.800   3.226  0.2886 -0.1753  0.0768
93169W        W94033  12.377  22.208  27.966 -0.0178 -0.0999 -0.1154
93170W        W94034  14.751  18.487   1.610 -0.2362 -0.1188 -0.0708
93171W        W94035  10.518  17.738   3.293  0.5297  0.2557 -0.0515
93172W        W94036  13.612  22.003   2.883 -0.2013  0.0187 -0.0384
93173W        W94037  13.746  18.598   3.949 -0.3102 -0.0832  0.0258
93174W        W94038  11.634  20.955  28.783  0.1767  0.2176  0.0644
93175W        W94039  11.683  20.247   2.021 -0.0449  0.3822  0.0289
93176W        W94040  11.501  17.489   1.946  0.3234 -0.0273 -0.3452
93177W        W94041  12.623  18.599   0.292 -0.1056 -0.1981 -0.0373
93178W        W94042  11.736  20.534   1.591 -0.0965  0.0613 -0.0427
93179W        W94043  15.062  18.875   1.915 -0.1300 -0.0189 -0.1028
93180W        W94044  16.117  19.691  28.522  0.0137  0.2359 -0.0114
93181W        W94045  10.434  23.547   3.298 -0.0020  0.1414 -0.0126
93182W        W94046  11.707  24.109  29.140  0.0293  0.1558 -0.2425
93183W        W94047  11.480  18.053  28.981 -0.0864  0.1432  0.1620
93184W        W94048  13.657  19.106   0.421  0.1204 -0.3383 -0.0077
93185W        W94049   9.281  23.562   3.615 -0.0751  0.0771  0.3482
93186W        W94050  13.401  18.825   2.803  0.1254 -0.0923  0.2525
93187W        W94051  12.806  19.975  28.013  0.2116 -0.0478  0.0617
93188W        W94052  13.357  20.425  28.802 -0.0615  0.0158 -0.1699
93189W        W94053  12.561  23.487   1.295 -0.1188  0.1317  0.1851
93190W        W94054  14.206  19.924   0.076  0.0502 -0.4189  0.0866
93191W        W94055  12.035  19.541   2.911 -0.3046 -0.1724 -0.3869
93192W        W94056  13.972  21.807   1.781 -0.3808  0.3015 -0.3574
93193W        W94057  17.580  18.822   2.024  0.2225 -0.1361 -0.3878
93194W        W94058  12.343  20.187  28.865 -0.1199  0.1836  0.1137
93195W        W94059  14.610  18.372   3.744 -0.1013 -0.1960  0.2775
93196W        W94060  15.523  20.248   3.258 -0.0411  0.1706 -0.1376
93197W        W94061  11.977  19.806   2.002 -0.0805 -0.1405  0.0166
93198W        W94062  13.938  21.759   3.800  0.3637  0.0011 -0.1098
93199W        W94063  11.528  22.833   2.743 -0.2300  0.2506  0.0459
93200W        W94064  11.607  21.697   2.741 -0.0181 -0.0334  0.0359
93201W        W94065  15.141  21.566   0.025  0.0285  0.1546  0.0679
93202W        W94066  10.481  19.373   0.462 -0.0717 -0.0651  0.0223
93203W        W94067  14.398  17.326   2.079 -0.1856  0.1435  0.0075
93204W        W94068  13.057  20.701   1.427  0.0141 -0.1302 -0.2158
93205W        W94069  13.846  18.020   1.670  0.3996  0.1309 -0.1735
93206W        W94070  14.314  20.384   2.011 -0.3027 -0.0348  0.2485
93207W        W94071  10.095  21.909   3.110 -0.2067 -0.0364 -0.1294
93208W        W94072  17.655  20.261   5.209  0.1820  0.1470  0.2850
93209W        W94073  16.286  17.675   3.641 -0.2065 -0.0164 -0.1220
93210W        W94074  12.106  17.843   3.596  0.0800  0.0135 -0.1276
93211W        W94075  11.691  19.438   2.184  0.3454 -0.0189 -0.2564
93212W        W94076  12.084  20.565   2.031  0.1302 -0.2174 -0.0317
93213W        W94077  11.304  20.771   4.644  0.1671 -0.0911 -0.0716
93214W        W94078  12.832  21.612   0.844 -0.0002 -0.1309  0.2210
93215W        W94079  14.015  17.901  28.872 -0.2430 -0.1642  0.2996
93216W        W94080  13.585  23.881   1.348 -0.0265  0.1360 -0.0703
93217W        W94081  11.203  20.385   3.157  0.2873 -0.2242 -0.1268
93218W        W94082  16.227  23.039  28.781 -0.1050  0.1913 -0.1582
93219W        W94083  15.486  18.009   3.336 -0.3197  0.0869  0.2846
93220W        W94084  11.897  23.112  28.976 -0.1871  0.1641 -0.0247
93221W        W94085  11.267  19.275   1.999  0.0948  0.1896  0.4980
93222W        W94086  13.596  15.521   1.292 -0.0759 -0.3536  0.0833
93223W        W94087  12.488  19.092  27.716 -0.0196  0.1650  0.3151
93224W        W94088  12.473  19.740   2.981  0.1264  0.0460  0.2537
93225W        W94089  13.409  19.429   2.344  0.2658  0.1275 -0.2220
93226W        W94090  14.668  19.914   2.583  0.1905 -0.3094 -0.0688
93227W        W94091  11.361  17.228   0.711  0.0014 -0.0257 -0.0741
93228W        W94092  11.927  21.298  28.386  0.0720  0.0309 -0.3955
93229W        W94093  12.765  20.045   1.894  0.0446  0.1211 -0.0004
93230W        W94094  14.407  18.905   4.623 -0.1512 -0.0334 -0.1938
93231W        W94095  14.352  19.566   2.471  0.1475 -0.1574 -0.2540
93232W        W94096  16.586  18.499   3.968  0.1255  0.0605  0.1279
93233W        W94097  12.593  21.341   2.616  0.3936 -0.1382  0.1560
93234W        W94098  11.204  21.373   0.542 -0.0427  0.0147 -0.1545
93235W        W94099  12.063  16.516   1.159 -0.1081  0.0049  0.0052
93236W        W94100  12.616  23.457   3.190 -0.2283  0.0951  0.1402
93237W        W94101  16.043  20.616   2.602 -0.2898  0.2374 -0.1229
93238W        W94102  13.872  20.503   1.021 -0.0014 -0.4699 -0.0399
93239W        W94103  15.157  20.414   4.869 -0.0327 -0.1993 -0.0742
93240W        W94104  16.056  19.094   5.406  0.0722 -0.0387 -0.0915
93241W        W94105  15.169  19.904   0.517  0.3601  0.3903 -0.1690
93242W        W94106  12.645  20.513   0.527 -0.0443 -0.0381 -0.1271
93243W        W94107  12.086  22.285   1.141  0.3309 -0.1541 -0.2502
93244W        W94108  13.069  20.332   2.600  0.1358 -0.1719  0.0383
93245W        W94109  11.702  20.948   3.683 -0.2033 -0.0392 -0.1782
93246W        W94110  14.612  18.600   0.707  0.1119  0.2556 -0.2491
93247W        W94111  15.606  20.460   1.638  0.0405 -0.3508  0.1533
93248W        W94112  12.198  20.416   2.540 -0.3137 -0.1690  0.2269
93249W        W94113  14.070  21.848   2.460  0.0004  0.1052  0.3046
93250W        W94114  11.735  15.944   1.438  0.2008  0.1451 -0.0267
93251W        W94115  11.789  18.372   2.702 -0.0521 -0.1015  0.0101
93252W        W94116  14.716  18.720   4.132 -0.2125 -0.1149 -0.2083
93253W        W94117  11.997  19.054   2.139 -0.1316  0.1336  0.0122
93254W        W94118  11.168  24.921   3.922  0.1094  0.0268 -0.1521
93255W        W94119  12.481  22.893   0.561 -0.4396  0.0265  0.1054
93256W        W94120  11.792  19.354   5.333  0.2031 -0.1582  0.3501
93257W        W94121  12.594  20.398   1.588 -0.0098  0.0759  0.0883
93258W        W94122  10.950  19.463  27.746 -0.0392  0.0828 -0.0130
93259W        W94123  14.271  21.658   3.321 -0.1775  0.2671  0.1413
93260W        W94124  12.597  18.240   1.238  0.1770 -0.0553 -0.4311
93261W        W94125  10.274  21.108  28.683 -0.1208 -0.2896 -0.1009
93262W        W94126  11.989  18.981   1.659 -0.1521 -0.1923 -0.2201
93263W        W94127  11.709  23.614   1.834 -0.3063 -0.0548  0.1548
93264W        W94128  13.654  17.824   5.486 -0.2193  0.2707  0.1368
93265W        W94129  15.298  17.987   0.360  0.1031 -0.1609 -0.0387
93266W        W94130  13.186  19.116   4.641 -0.1904 -0.0668  0.2503
93267W        W94131  12.602  21.477   5.335 -0.0903 -0.3772 -0.3698
93268W        W94132  13.385  21.395   4.041  0.1600  0.1331  0.1231
93269W        W94133  15.439  22.770   3.429 -0.0428 -0.0156 -0.0594
93270W        W94134  13.285  25.547   2.799  0.5202  0.0257 -0.4186
93271W        W94135  14.610  18.546   2.238 -0.0238 -0.1593  0.1290
93272W        W94136  11.459  18.765   2.914 -0.1557  0.1724  0.2440
93273W        W94137  13.667  17.557   2.430  0.2217 -0.1377 -0.1056
93274W        W94138  13.797  21.511  28.460 -0.1037 -0.0818 -0.2534
93275W        W94139  11.067  18.698   1.605 -0.0252 -0.3348 -0.1378
93276W        W94140  16.158  18.624   2.034 -0.0343 -0.3058  0.1422
93277W        W94141  14.013  20.173   0.542 -0.0090 -0.1725  0.0238
93278W        W94142  16.400  19.650   0.876  0.0341 -0.3847 -0.0329
93279W        W94143  11.905  21.577   1.950 -0.0271  0.0536 -0.0301
93280W        W94144  12.645  20.068   0.749 -0.0650  0.0194 -0.1863
93281W        W94145  14.086  19.016   1.248  0.1414 -0.1439  0.0878
93282W        W94146  11.874  25.434  28.578 -0.1339  0.0460  0.0297
93283W        W94147  10.373  17.354  28.898 -0.0306  0.2516 -0.0275
93284W        W94148  12.451  19.731   4.061  0.0514  0.2503  0.2060
93285W        W94149  16.281  18.091   2.070 -0.1767  0.1600 -0.1282
93286W        W94150  14.424  20.134   3.950  0.0559 -0.3011 -0.0772
93287W        W94151  13.875  19.835   2.336  0.1761  0.0939 -0.0643
93288W        W94152  12.816  20.458   1.086  0.0214  0.0154  0.1390
93289W        W94153  13.099  20.405   2.029  0.0450 -0.1190  0.2524
93290W        W94154  10.631  21.162   1.873  0.3119 -0.0545 -0.0121
93291W        W94155  11.850  19.247   4.095  0.0053 -0.0596 -0.0380
93292W        W94156  10.577  18.070   4.458 -0.3020  0.1968 -0.0907
93293W        W94157  13.490  19.481  29.128 -0.1098  0.3657 -0.3630
93294W        W94158  12.534  20.190   0.187 -0.2156  0.0198 -0.1456
93295W        W94159  13.803  21.992   3.346 -0.1969  0.0254 -0.0709
93296W        W94160  11.236  23.827   1.661  0.0219  0.0734  0.3424
93297W        W94161  12.941  17.523   2.072  0.3561  0.1096 -0.1435
93298W        W94162  13.039  20.772   3.347  0.2095  0.0156 -0.2850
93299W        W94163  11.921  21.053   2.014 -0.0991 -0.0966  0.3566
93300W        W94164  13.041  22.713   2.941 -0.2007 -0.0665 -0.0362
93301W        W94165  10.545  19.052   3.168  0.0683  0.0237 -0.1075
93302W        W94166  13.170  17.191   2.671 -0.2060 -0.1309 -0.2851
93303W        W94167  15.363  20.089   1.294 -0.1956 -0.1731 -0.0881
93304W        W94168  13.051  21.654  27.675  0.4421 -0.0395 -0.1994
93305W        W94169  13.292  19.734   0.625 -0.0398  0.1458 -0.1284
93306W        W94170  13.486  18.855   2.006  0.0664 -0.0454 -0.1191
93307W        W94171  14.211  21.319   0.648 -0.0918  0.2078 -0.3102
93308W        W94172  14.091  21.500  28.956 -0.2137 -0.1604 -0.1444
93309W        W94173  13.933  20.265   3.840 -0.3742  0.2155  0.1268
93310W        W94174  12.255  19.489   5.943 -0.1878  0.2042  0.0689
93311W        W94175  12.275  20.762   0.093 -0.1273  0.0908  0.0022
93312W        W94176  13.495  18.876   4.259  0.0624 -0.0776  0.0296
93313W        W94177  11.272  20.391   1.726  0.1055  0.0410  0.3978
93314W        W94178  13.536  20.196   1.269 -0.0345  0.1075  0.2363
93315W        W94179  11.453  21.145  28.279 -0.1440  0.1443  0.0073
93316W        W94180  11.561  21.013   0.552  0.1023 -0.1790  0.3393
93317W        W94181  13.351  22.619   2.612 -0.2287 -0.1040 -0.1844
93318W        W94182  12.596  20.698  28.737  0.3729 -0.4261 -0.2982
93319W        W94183  15.621  20.719   4.312  0.3557  0.0575 -0.0478
93320W        W94184  12.523  22.491   2.185  0.2603 -0.4161 -0.2294
93321W        W94185  15.172  20.687   1.814  0.0164  0.3038  0.5047
93322W        W94186  13.300  23.121   2.523 -0.3285 -0.1504 -0.1975
93323W        W94187  11.255  19.351   4.625  0.0430 -0.1871  0.2622
93324W        W94188  13.907  20.834   5.391 -0.0155  0.1246  0.3082
93325W        W94189  11.911  22.475   6.158 -0.1639 -0.0788  0.0140
93326W        W94190  14.142  21.603   1.045 -0.0564 -0.0230 -0.1011
93327W        W94191  12.271  22.107   2.473 -0.0883 -0.0311 -0.2503
93328W        W94192  14.839  20.250   2.121  0.1700  0.2183 -0.0988
93329W        W94193  11.182  20.287   6.437 -0.2383 -0.0709 -0.0930
93330W        W94194  14.716  21.535   1.601  0.1141  0.0960 -0.0058
93331W        W94195  14.003  19.521   2.876 -0.1024 -0.2418 -0.1052
93332W        W94196  12.478  21.718  27.813  0.2588 -0.0080  0.1206
93333W        W94197  10.329  17.721   1.629  0.0317 -0.2036 -0.0754
93334W        W94198  10.435  22.136   6.488  0.3359  0.0797 -0.1528
93335W        W94199  11.961  23.686   8.762  0.0952  0.0223  0.1250
93336W        W94200  12.366  21.254   6.174 -0.0575 -0.1168  0.0569
93337W        W94201  15.354  22.424   5.880 -0.0567  0.4247  0.3708
93338W        W94202  13.780  18.313   4.696 -0.0389 -0.0405  0.1517
93339W        W94203   9.486  19.973   3.669 -0.1653 -0.2261 -0.1711
93340W        W94204  12.953  18.041   3.585 -0.1770 -0.1568  0.1030
93341W        W94205  11.689  17.853   6.443 -0.1232 -0.0887 -0.0090
93342W        W94206   9.954  21.757   5.351  0.0441  0.0144 -0.4018
93343W        W94207  12.418  16.623   5.752 -0.0550  0.3660  0.0230
93344W        W94208  13.088  18.261   5.134  0.2509  0.0192  0.0595
93345W        W94209  14.611  16.813   2.305 -0.4576  0.1661 -0.1017
93346W        W94210  13.802  21.570   4.263 -0.0937  0.2061 -0.0909
93347W        W94211  12.240  17.706   4.639  0.0588  0.2548  0.0838
93348W        W94212   8.825  19.128   7.032 -0.0412 -0.0514 -0.1631
93349W        W94213  13.447  20.482   3.533  0.0092  0.1702 -0.0039
93350W        W94214  12.869  19.451   5.281  0.0831  0.0806 -0.0475
93351W        W94215  15.537  18.104   8.956  0.1953  0.0557  0.0580
93352W        W94216  12.404  19.366   3.308 -0.0415  0.3366  0.1364
93353W        W94217  13.343  20.968   5.716 -0.0095 -0.0540 -0.3450
93354W        W94218  14.302  21.574   4.520  0.0626  0.2380  0.1937
93355W        W94219  12.953  20.244   5.308 -0.1727 -0.0476 -0.2298
93356W        W94220  12.945  18.998   5.450 -0.0610  0.2514 -0.1083
93357W        W94221   9.287  21.117   5.952  0.0564  0.1166  0.1700
93358W        W94222   8.061  18.238   6.729 -0.2291 -0.2599 -0.3586
93359W        W94223  15.359  17.986   4.865 -0.0630 -0.2330 -0.2030
93360W        W94224  11.441  21.196   6.562  0.0647 -0.3535  0.1513
93361W        W94225  14.980  17.538   6.256 -0.1054 -0.4667 -0.0945
93362W        W94226  11.113  20.818   6.383 -0.2548  0.0641 -0.2816
93363W        W94227  10.630  22.136   3.321  0.1285 -0.0463  0.0999
93364W        W94228  12.377  22.121   7.166  0.0069 -0.0781  0.2120
93365W        W94229  12.070  20.085   5.779  0.1732 -0.0436  0.2691
93366W        W94230  13.161  15.805   3.054  0.2385 -0.3158 -0.2195
93367W        W94231  10.412  19.426   8.238  0.2071  0.0505 -0.0456
93368W        W94232  14.897  20.216   8.336 -0.1841 -0.3085 -0.0034
93369W        W94233  12.848  17.824   5.930  0.0703 -0.1863  0.1736
93370W        W94234  11.580  21.132   7.151  0.1282  0.1777 -0.1100
93371W        W94235  12.510  19.429   6.396  0.0698  0.0580  0.1769
93372W        W94236  13.615  18.265   5.211 -0.0989  0.2011  0.0421
93373W        W94237  12.364  18.920   6.534 -0.0130  0.1522  0.0121
93374W        W94238  14.693  19.293   6.031  0.0015 -0.2450 -0.0850
93375W        W94239  11.500  22.172   6.380  0.1132 -0.0377  0.1245
93376W        W94240  17.657  20.635   1.084 -0.0554  0.0045 -0.2321
93377W        W94241  10.462  23.164   2.202  0.3111 -0.1518  0.1994
93378W        W94242  11.111  20.738   2.406 -0.0113  0.3099 -0.3148
93379W        W94243  11.075  19.336   5.529 -0.4306 -0.0143 -0.0686
93380W        W94244  14.438  18.454   4.984  0.0182 -0.1750  0.1288
93381W        W94245  13.530  22.164   6.493  0.1389 -0.1567  0.2070
93382W        W94246  12.103  19.105   5.586  0.2488 -0.0301  0.0957
93383W        W94247  10.987  19.717   4.223  0.0635 -0.1182  0.0683
93384W        W94248  11.275  17.048   3.985  0.2579 -0.3292 -0.0030
93385W        W94249  14.185  21.815   5.557  0.2020  0.5798 -0.0537
93386W        W94250  13.851  21.633   3.005  0.2609 -0.0128  0.0650
93387W        W94251  14.941  17.756   4.948 -0.0408 -0.0706  0.2930
93388W        W94252  10.643  20.509   4.550  0.0255 -0.2161 -0.0597
93389W        W94253  11.259  21.514   6.915 -0.2952  0.1442 -0.5853
93390W        W94254  14.207  18.171   4.057 -0.2902  0.0844 -0.2353
93391W        W94255  10.185  21.225   2.469 -0.1342  0.2038 -0.1108
93392W        W94256  13.524  20.948   3.323  0.0461  0.0172 -0.0993
93393W        W94257  11.425  15.708   5.867  0.3260  0.0777 -0.0569
93394W        W94258  11.421  22.281   3.551 -0.0926 -0.2498  0.0430
93395W        W94259  12.028  20.420   6.566 -0.1090  0.2981 -0.0014
93396W        W94260  10.473  21.707   6.129 -0.1043  0.0442 -0.1197
93397W        W94261  12.755  18.548   6.171  0.0311  0.0251  0.1715
93398W        W94262  13.940  18.641   5.609  0.1551  0.1262 -0.0554
93399W        W94263  12.806  20.502   2.998 -0.1977  0.2218 -0.1919
93400W        W94264  11.568  20.519   2.459 -0.0293  0.4575 -0.0764
93401W        W94265  11.289  23.601   4.413  0.3648 -0.1446  0.2001
93402W        W94266  12.088  20.518   4.401 -0.2134  0.3849 -0.1354
93403W        W94267  13.729  18.575   8.652  0.1122  0.1492  0.2611
93404W        W94268  12.717  17.589   3.442 -0.0360 -0.0482  0.0505
93405W        W94269  14.173  19.923   5.697 -0.1476  0.0180 -0.0180
93406W        W94270  12.877  19.160   6.778  0.0789 -0.1064  0.2872
93407W        W94271  14.743  22.076   6.443  0.5157  0.0990 -0.3272
93408W        W94272  12.221  18.130   7.195  0.0720 -0.4874  0.0291
93409W        W94273   9.937  18.490   2.776  0.1307 -0.4098 -0.2071
93410W        W94274  11.996  19.080   6.177  0.4115 -0.0327 -0.0506
93411W        W94275  15.728  18.764   4.281  0.1093  0.0610 -0.0506
93412W        W94276  14.155  19.807   6.206  0.1102  0.0932  0.1681
93413W        W94277  10.568  20.215   5.567  0.1207  0.0231  0.0217
93414W        W94278  11.440  19.576   7.474  0.4013  0.1549  0.0789
93415W        W94279  11.015  17.127   4.375 -0.1115 -0.2347 -0.1141
93416W        W94280  10.849  16.851   6.429  0.0524  0.1153  0.1172
93417W        W94281  11.962  19.942   5.317 -0.2375 -0.0337  0.2087
93418W        W94282  10.998  19.536   3.743 -0.0368 -0.1075 -0.0748
93419W        W94283  12.778  19.823   5.561 -0.2344  0.0812  0.0176
93420W        W94284  13.243  18.751   7.629 -0.2704  0.0474  0.0168
93421W        W94285  12.411  18.188   5.645 -0.1137  0.1664  0.1849
93422W        W94286  14.812  21.544   5.350 -0.1490  0.0599 -0.3268
93423W        W94287  15.629  19.285   6.530  0.1763  0.3683 -0.0715
93424W        W94288  11.245  21.819   5.945  0.1668  0.0979 -0.1278
93425W        W94289  12.624  17.078   3.384 -0.0061  0.3082 -0.0389
93426W        W94290  11.717  18.966   4.998  0.1678 -0.0324 -0.0197
93427W        W94291  13.659  18.136   4.132 -0.1207  0.3105 -0.2066
93428W        W94292  14.260  18.195   2.775  0.0314  0.1169 -0.2423
93429W        W94293  10.863  26.705   4.712 -0.0324 -0.2586 -0.3564
93430W        W94294  11.548  18.132   4.934  0.1012  0.2992  0.2781
93431W        W94295  19.014  18.946   3.915 -0.0439  0.0351 -0.0220
93432W        W94296  15.102  21.883   5.038 -0.0701  0.0219 -0.0959
93433W        W94297  10.900  19.922   6.807 -0.2187 -0.1307  0.1544
93434W        W94298  12.337  14.313   4.107 -0.2548  0.2631 -0.0014
93435W        W94299  14.272  22.126   7.309 -0.1060  0.1211  0.3328
93436W        W94300  15.415  17.266   5.252 -0.1097  0.0829 -0.0603
93437W        W94301  16.318  16.156   5.895  0.1774  0.1301 -0.1456
93438W        W94302  11.565  22.831   5.911  0.0270 -0.0509 -0.2102
93439W        W94303  13.081  21.168   8.796  0.0980 -0.1504  0.2135
93440W        W94304  12.559  17.722   2.358 -0.0433 -0.0328 -0.2382
93441W        W94305  12.079  17.949   6.010 -0.0736 -0.1476 -0.2803
93442W        W94306  11.705  24.108   7.637  0.0442  0.0151  0.0970
93443W        W94307  12.915  21.830   5.115  0.1664  0.2228 -0.0653
93444W        W94308  15.768  20.118   6.412  0.1182  0.2586  0.0330
93445W        W94309  13.633  21.892   5.993 -0.0594  0.1798  0.0459
93446W        W94310  12.834  18.552   3.435 -0.0824 -0.0322 -0.1783
93447W        W94311  14.029  21.068   4.380  0.1211  0.0047 -0.0392
93448W        W94312  13.661  19.246   3.942 -0.0427  0.1303 -0.0740
93449W        W94313  13.580  21.257   4.701  0.1938  0.0759 -0.3863
93450W        W94314  11.325  19.695   5.960 -0.4742 -0.0492 -0.1279
93451W        W94315  14.106  19.227   3.658  0.0239 -0.0216 -0.1118
93452W        W94316  12.351  22.281   6.394 -0.2589 -0.1498  0.3021
93453W        W94317  14.971  19.164   3.957 -0.0941  0.0855 -0.0857
93454W        W94318  14.589  23.293   5.431  0.1896 -0.0074 -0.3768
93455W        W94319  11.502  20.652   7.497  0.0607  0.0067 -0.0927
93456W        W94320  14.056  24.026   6.740 -0.0701 -0.1900 -0.0603
93457W        W94321  13.557  19.339   2.823 -0.0396 -0.0582  0.2250
93458W        W94322  13.701  19.227   4.795 -0.2089  0.0157 -0.3336
93459W        W94323  14.988  19.441   7.850  0.0919 -0.0182  0.1965
93460W        W94324  12.557  22.620   7.344 -0.0331 -0.1992 -0.1673
93461W        W94325  12.701  21.506   4.787  0.2164 -0.2828 -0.3127
93462W        W94326  14.536  21.629   8.418 -0.0346 -0.0486  0.0187
93463W        W94327  16.015  20.065   5.948 -0.3758 -0.1225 -0.1175
93464W        W94328  11.334  20.578   6.044  0.1372 -0.3715 -0.1616
93465W        W94329  16.597  17.842   4.778 -0.0303 -0.0612 -0.0891
93466W        W94330  13.923  19.369   6.377  0.1621  0.3693 -0.0331
93467W        W94331  10.714  20.829   4.987 -0.1785 -0.2349 -0.1688
93468W        W94332  15.745  18.108   6.445 -0.0980 -0.0782 -0.1504
93469W        W94333  15.285  19.984   5.092  0.3238  0.1702 -0.1922
93470W        W94334  11.542  21.379   5.940  0.0365  0.0916 -0.2817
93471W        W94335  12.593  22.962   2.888  0.0680  0.0495  0.1820
93472W        W94336  10.690  19.559   3.353  0.0765 -0.3235  0.3634
93473W        W94337  11.749  17.018   4.078  0.2438  0.2545  0.2944
93474W        W94338  11.609  22.298   5.832  0.3289  0.1765 -0.1199
93475W        W94339  11.751  19.446   4.587 -0.0669  0.0580  0.3388
93476W        W94340  13.545  19.861   4.798  0.1445  0.1467 -0.0329
93477W        W94341  13.275  18.367   2.831  0.0256  0.1625  0.0925
93478W        W94342  15.139  17.450   3.454 -0.2703 -0.1154  0.2920
93479W        W94343  14.063  21.292   5.527 -0.2497  0.5624 -0.2605
93480W        W94344  14.498  21.902   3.722 -0.1960  0.0919  0.0716
93481W        W94345  12.554  20.470   4.611  0.0286 -0.1877  0.1565
93482W        W94346  16.813  22.560   3.982  0.1339  0.0977 -0.0007
93483W        W94347  10.128  19.440   6.945 -0.1434 -0.1985 -0.0855
93484W        W94348  15.273  23.929   4.670 -0.0989 -0.1824 -0.1469
93485W        W94349  14.015  19.082   4.271 -0.0288 -0.1886  0.1083
93486W        W94350  12.761  20.873   3.761 -0.3152 -0.2920 -0.1495
93487W        W94351  11.961  16.399   5.829 -0.1142  0.0548  0.0282
93488W        W94352  10.636  22.572   8.971 -0.1958  0.1286 -0.0298
93489W        W94353  12.354  23.140   3.589  0.0393 -0.2164  0.2039
93490W        W94354  10.498  16.836   2.803 -0.1055  0.0007  0.0733
93491W        W94355  14.760  20.648   4.727  0.0995  0.1012  0.2574
93492W        W94356  14.016  19.090   6.891 -0.0459 -0.0554 -0.3050
93493W        W94357  11.714  18.602   6.993  0.0458 -0.1476  0.0473
93494W        W94358  14.094  17.310   7.325 -0.0583 -0.1442 -0.0466
93495W        W94359  11.068  19.416   7.160 -0.2194 -0.0190 -0.1935
93496W        W94360  11.525  18.587   7.475  0.0803 -0.1204 -0.0240
93497W        W94361  12.474  18.530   4.296  0.2007 -0.4848  0.2281
93498W        W94362  10.857  21.882   4.715  0.2955 -0.0621  0.0621
93499W        W94363  11.544  20.180   5.609  0.0275  0.0769 -0.2341
93500W        W94364  12.675  20.453   4.025  0.0806  0.4129 -0.1180
93501W        W94365  12.206  20.171   4.082 -0.1003 -0.2531  0.0301
93502W        W94366  16.666  18.266   4.455  0.1188  0.1232  0.0854
93503W        W94367  13.836  18.976   2.920 -0.1748  0.0069  0.1852
93504W        W94368  11.412  18.347   4.444  0.2121 -0.1223  0.0617
93505W        W94369  11.502  22.344   4.046 -0.0785  0.1592  0.0091
93506W        W94370  15.280  17.837   4.393  0.2662  0.1048 -0.1245
93507W        W94371  14.477  18.398   4.444  0.1855 -0.0830  0.2052
93508W        W94372  12.707  20.961   4.711  0.0138  0.1829  0.1535
93509W        W94373  12.437  22.336   4.998 -0.4890 -0.3132  0.1596
93510W        W94374  12.213  21.876   4.965 -0.0677 -0.1528  0.0266
93511W        W94375  13.333  20.837   4.785  0.0716  0.1903 -0.0475
93512W        W94376  11.863  17.994   3.254  0.2555  0.1446 -0.0351
93513W        W94377  12.379  18.528   3.600 -0.1262  0.0953 -0.0089
93514W        W94378  12.163  18.973   4.383  0.0544 -0.1646  0.0323
93515W        W94379  11.545  19.266   5.852  0.0497 -0.3247 -0.3098
93516W        W94380  12.022  19.040   3.331 -0.0041  0.0622  0.0956
93517W        W94381  12.437  19.891   7.724 -0.1792  0.2130  0.2889
93518W        W94382  11.135  19.058   2.702 -0.3056 -0.1630  0.0980
93519W        W94383  12.673  14.674   7.090 -0.0394  0.0201  0.3039
93520W        W94384  11.571  20.207   6.780 -0.2405  0.1032 -0.0124
93521W        W94385  13.834  20.329   6.869  0.1409 -0.3233  0.3476
93522W        W94386  11.019  20.934   1.980  0.2481 -0.1351 -0.0921
93523W        W94387   9.475  22.736   3.538  0.3366 -0.0135 -0.0864
93524W        W94388  10.824  20.818   5.934 -0.1108  0.2546 -0.0303
93525W        W94389  12.893  18.334   4.705  0.0617  0.0766 -0.0592
93526W        W94390  12.687  18.294   2.985 -0.1330 -0.0334 -0.2031
93527W        W94391  10.769  18.596   4.608 -0.0473  0.2941  0.0845
93528W        W94392  12.061  18.479   5.567  0.1975 -0.1139 -0.2276
93529W        W94393  11.367  19.180   4.122  0.2771 -0.0151  0.1734
93530W        W94394  11.504  21.428   4.635 -0.0638 -0.0288 -0.2363
93531W        W94395  13.226  18.148   6.171 -0.1424  0.0839 -0.0491
93532W        W94396  11.307  20.115   3.976  0.2799  0.1646 -0.1642
93533W        W94397  16.422  18.073   7.763 -0.2072  0.1324  0.1108
93534W        W94398  15.404  19.301   4.269 -0.0254 -0.0586  0.1514
93535W        W94399  13.065  15.845   2.100 -0.1488 -0.0701 -0.1026
93536W        W94400  11.654  16.978   3.575 -0.3404 -0.0770 -0.0853
93537W        W94401  13.730  17.638   3.390  0.0982 -0.2045 -0.2751
93538W        W94402  13.689  20.643   5.775 -0.1255 -0.0572  0.0893
93539W        W94403  12.339  19.196   3.871 -0.2124  0.0077 -0.0519
93540W        W94404  13.893  20.723   4.049 -0.3994  0.0860  0.1031
93541W        W94405  10.684  20.354   6.608  0.1325 -0.3004 -0.1461
93542W        W94406  11.686  21.351   5.481  0.2409 -0.0076  0.1305
93543W        W94407  13.453  18.434   5.810  0.1714  0.1198  0.1088
93544W        W94408  10.639  20.813   6.370  0.0170  0.0142 -0.2062
93545W        W94409  15.584  17.494   4.832  0.1600 -0.0477  0.1566
93546W        W94410  15.647  18.076   8.395 -0.1573  0.2113  0.2293
93547W        W94411  11.615  19.833   2.417 -0.1384 -0.1197 -0.1358
93548W        W94412  12.544  18.831   4.715  0.3478 -0.4276  0.1445
93549W        W94413  16.198  20.737   4.473  0.0662 -0.3324  0.1473
93550W        W94414  11.564  20.125   7.401 -0.2139  0.1075  0.0019
93551W        W94415  11.925  19.984   7.813  0.0761  0.2386  0.1643
93552W        W94416  16.476  19.635   6.299 -0.2132  0.2843 -0.0637
93553W        W94417  14.477  20.105   4.438  0.1598 -0.0379  0.1768
93554W        W94418  12.997  19.685   8.580  0.0781 -0.0626  0.2124
93555W        W94419  14.565  19.265   2.131  0.0683 -0.1746  0.0443
93556W        W94420  14.631  20.272   2.988 -0.0585 -0.2345  0.0208
93557W        W94421   9.915  23.121   7.518  0.1089 -0.1404 -0.0265
93558W        W94422  12.981  19.643   8.058 -0.1352  0.3706 -0.1929
93559W        W94423  12.943  17.627   3.930  0.2278 -0.1633 -0.1062
93560W        W94424  16.728  21.548   2.308  0.0678  0.1967  0.1594
93561W        W94425  14.016  19.768   4.645 -0.4027 -0.0870 -0.1176
93562W        W94426  11.132  18.336   5.393 -0.1259  0.1350 -0.1723
93563W        W94427  14.576  23.571   7.631 -0.0201  0.1884  0.3403
93564W        W94428  12.964  18.736   4.401  0.3334  0.1914 -0.1878
93565W        W94429  12.922  20.634   5.001 -0.1786 -0.0506 -0.1806
93566W        W94430  10.339  19.826   5.830 -0.0038 -0.0291  0.1151
93567W        W94431  11.338  20.704   2.835 -0.0753 -0.2545 -0.0665
93568W        W94432  16.841  21.377   5.595 -0.0041 -0.1720 -0.2405
93569W        W94433  12.273  16.636   6.217 -0.1171  0.1086 -0.0134
93570W        W94434  14.290  22.754   6.312  0.0835  0.1628  0.1591
93571W        W94435  16.237  20.605   4.987  0.1409 -0.4204  0.1186
93572W        W94436  14.152  21.174   3.524 -0.1780  0.0485 -0.0249
93573W        W94437  13.604  19.511   5.178  0.0629 -0.1493  0.0305
93574W        W94438  12.205  18.700   5.107  0.1232 -0.2315 -0.0854
93575W        W94439  10.974  19.089   5.941  0.1692 -0.3557  0.0215
93576W        W94440  10.892  17.696   4.613 -0.2810  0.0820 -0.1435
93577W        W94441  16.033  20.304   5.480  0.2921  0.0074 -0.0839
93578W        W94442  17.501  21.358   6.215  0.0956 -0.3428 -0.1135
93579W        W94443  10.871  23.509   5.778  0.0177  0.2377  0.0479
93580W        W94444  15.088  23.535   5.123  0.1577  0.2320 -0.1422
93581W        W94445  11.665  18.940   4.433  0.1954  0.0384  0.1399
93582W        W94446   9.466  19.932   7.393  0.0648 -0.0693  0.1179
93583W        W94447  12.724  21.078   3.000  0.2753  0.1577  0.1164
93584W        W94448  14.489  23.056   7.526  0.0741 -0.1989 -0.1369
93585W        W94449  13.815  20.761   4.701  0.1241 -0.1285  0.0984
93586W        W94450  14.782  20.461   1.610 -0.0027 -0.0181  0.0273
93587W        W94451  12.035  22.179   6.742  0.5007 -0.3672 -0.1926
93588W        W94452  15.383  19.698   3.204  0.1229  0.1705 -0.2464
93589W        W94453  13.389  18.922   3.737  0.1026  0.3956  0.1492
93590W        W94454  13.527  20.739   7.928  0.0506  0.1309  0.1045
93591W        W94455  12.861  20.042   3.911 -0.2101  0.0220  0.2231
93592W        W94456  13.391  17.885   3.836  0.2044  0.4012 -0.1971
93593W        W94457  13.713  19.742   5.596 -0.1737 -0.1276 -0.0665
93594W        W94458  15.212  19.378   6.163  0.3047  0.3039 -0.1520
93595W        W94459  12.154  20.263   4.883 -0.0390  0.1625  0.0719
93596W        W94460  12.044  22.150   5.439  0.0635  0.2179 -0.2025
93597W        W94461  12.208  20.444   7.091 -0.0092  0.1587 -0.2204
93598W        W94462  12.018  18.785   3.813  0.3491 -0.0915  0.2003
93599W        W94463  15.244  19.796   4.191  0.1408  0.1052  0.2294
93600W        W94464  11.460  22.751   7.303 -0.1065 -0.1692  0.0023
93601W        W94465  11.662  19.313   2.675  0.0787  0.0748 -0.0201
93602W        W94466  11.542  19.629   4.058  0.1541 -0.1864  0.2880
93603W        W94467  13.434  20.657   5.316  0.2044  0.1379 -0.1594
93604W        W94468  14.864  17.113   6.054 -0.0517 -0.4482 -0.2887
93605W        W94469   8.974  19.778   7.322 -0.0646  0.1421  0.1780
93606W        W94470  16.061  22.721   6.247 -0.0220 -0.1510  0.0964
93607W        W94471   9.803  16.871   6.594 -0.0414 -0.1179 -0.0849
93608W        W94472  11.410  19.728   5.376  0.2629  0.4268 -0.1755
93609W        W94473  12.400  19.514   1.988 -0.2134 -0.0823  0.1785
93610W        W94474  12.091  22.367   7.487 -0.1908  0.2516  0.0236
93611W        W94475  11.869  20.520   6.023  0.1111 -0.2069  0.1898
93612W        W94476  10.411  21.104   5.691 -0.1121  0.1688  0.2203
93613W        W94477  10.200  20.899   2.060 -0.0537  0.1697  0.0568
93614W        W94478   9.494  23.061   6.653 -0.3586 -0.1860 -0.0883
93615W        W94479  14.132  19.427   5.092  0.0015  0.1886  0.1840
93616W        W94480  14.663  16.649   7.592  0.0686 -0.3725 -0.0143
93617W        W94481  15.781  19.693   4.051  0.1605  0.1860  0.3489
93618W        W94482  10.227  21.617   8.278 -0.1990 -0.0156 -0.1976
93619W        W94483  16.041  17.303   5.756 -0.1085  0.0803 -0.1572
93620W        W94484  15.363  20.939   3.039 -0.0147  0.1955  0.0830
93621W        W94485  11.698  19.837   4.920 -0.1677  0.2986  0.1043
93622W        W94486  14.329  17.477   3.776 -0.0494 -0.1487  0.0555
93623W        W94487  12.542  19.958   4.536  0.2502  0.1016  0.0484
93624W        W94488   9.895  22.435   4.705  0.1210  0.2726 -0.2918
93625W        W94489  11.839  24.162   4.250 -0.0524  0.0737 -0.2405
93626W        W94490  11.886  16.080   3.570  0.0429 -0.0901  0.1795
93627W        W94491  11.132  18.780   4.327 -0.1117  0.1699 -0.2218
93628W        W94492  13.406  18.376   6.740  0.1923 -0.0909 -0.0334
93629W        W94493  12.092  19.220   4.847  0.1713 -0.0157 -0.0420
93630W        W94494  10.832  19.551   5.927 -0.1430  0.1255  0.1560
93631W        W94495  11.950  19.923   4.414 -0.1124  0.3170 -0.1080
93632W        W94496  11.918  16.675   8.325  0.0377  0.0983 -0.1200
93633W        W94497  11.931  24.963   7.140  0.0432  0.0631  0.0679
93634W        W94498  16.830  17.968   5.963 -0.0768 -0.1020 -0.1463
93635W        W94499  12.154  19.872   3.387 -0.0821  0.0460  0.0620
93636W        W94500  13.858  22.225   5.610 -0.0031 -0.0157 -0.1356
93637W        W94501  12.834  19.743   6.506  0.1842 -0.1584 -0.2538
93638W        W94502  11.214  15.832   4.313 -0.2260  0.1083 -0.1401
93639W        W94503  13.542  16.498   3.039 -0.0014  0.1169  0.0019
93640W        W94504  10.567  22.544   4.268  0.0379 -0.0838 -0.0757
93641W        W94505  10.678  18.166   5.288 -0.0027  0.3004 -0.0070
93642W        W94506  11.866  18.128   6.849  0.0304  0.0309 -0.2298
93643W        W94507  11.847  17.104   2.807  0.2065 -0.2606  0.0890
93644W        W94508  13.721  19.904   6.484  0.2244  0.2487  0.0280
93645W        W94509  10.549  22.492   6.059  0.0052  0.0120  0.1874
93646W        W94510  12.051  20.353   7.545  0.1113 -0.0399  0.0250
93647W        W94511  12.538  22.565   3.836 -0.0341 -0.0368  0.2124
93648W        W94512  14.937  16.974   3.575 -0.0255  0.0209  0.0729
93649W        W94513  12.628  21.915   9.046 -0.3279  0.0537  0.2374
93650W        W94514  12.654  19.840   6.053  0.0896 -0.1008  0.2309
93651W        W94515  12.687  24.628   5.720  0.0128  0.2480 -0.0746
93652W        W94516  14.185  19.410   5.870  0.0022 -0.0716 -0.1598
93653W        W94517  13.437  23.564   9.008 -0.0652  0.0784 -0.0002
93654W        W94518  11.369  21.196   5.089  0.0619 -0.0728 -0.3467
93655W        W94519  12.491  20.704   3.343 -0.1592  0.0827  0.1282
93656W        W94520  12.816  21.184   5.757 -0.0296 -0.4094 -0.0884
93657W        W94521  13.222  15.683   4.311 -0.2160  0.0920  0.3493
93658W        W94522  11.681  22.004   3.161  0.2892  0.0970  0.0039
93659W        W94523  11.060  20.300   4.788  0.0747  0.1417 -0.0013
93660W        W94524  10.994  19.991   3.453 -0.3872 -0.2830  0.0971
93661W        W94525  12.748  20.622   7.993  0.2402 -0.0256  0.1717
93662W        W94526  16.061  19.661   3.640  0.0662 -0.2290  0.1008
93663W        W94527  15.485  20.574   9.497 -0.1745 -0.0760 -0.0633
93664W        W94528  14.647  18.556   7.358 -0.1014  0.0571  0.1884
93665W        W94529  13.316  19.953   6.792  0.2109  0.2960  0.0111
93666W        W94530  14.145  19.758   6.725  0.3398 -0.3274 -0.0907
93667W        W94531  11.988  21.756   6.395 -0.0166 -0.0030 -0.0305
93668W        W94532  14.365  21.847   6.206  0.2457  0.0829 -0.2425
93669W        W94533  14.325  16.843   4.187  0.0659 -0.2218 -0.1921
93670W        W94534  11.920  18.554   4.236 -0.0959 -0.0172 -0.1263
93671W        W94535   9.354  24.007   2.912  0.1862  0.3935 -0.2029
93672W        W94536  12.100  16.977   5.903  0.1062 -0.0514  0.1812
93673W        W94537   9.122  15.760   6.503  0.0629 -0.0560  0.0900
93674W        W94538  11.483  21.036   2.479  0.0819 -0.0317  0.0016
93675W        W94539  13.101  19.569   4.804  0.0970 -0.0308 -0.0756
93676W        W94540   9.952  21.293   7.515 -0.0467  0.1138  0.0087
93677W        W94541  11.614  20.358   4.548 -0.1201 -0.2371 -0.4880
93678W        W94542  11.973  17.888   5.502  0.2800 -0.0770 -0.2947
93679W        W94543  10.929  22.815   5.091  0.0255 -0.1695 -0.2165
93680W        W94544   9.773  20.769   4.914 -0.2324 -0.1443  0.0100
93681W        W94545  14.113  21.219   4.897 -0.2820  0.1357 -0.0309
93682W        W94546  11.993  22.284   3.425 -0.1319 -0.1667  0.2033
93683W        W94547  14.793  19.032   5.573 -0.0712  0.0757  0.0466
93684W        W94548  14.016  21.587   5.990 -0.0909 -0.0455 -0.1482
93685W        W94549  12.794  23.089   4.013 -0.1394  0.1956  0.2932
93686W        W94550  15.480  20.779   5.142  0.2081  0.0149  0.0909
93687W        W94551  10.779  18.783   2.422 -0.0288  0.2047  0.1539
93688W        W94552  13.245  19.923   3.506  0.1556  0.1541 -0.0710
93689W        W94553  12.932  18.525   8.044  0.1643  0.2407 -0.0132
93690W        W94554  10.524  19.600   4.546 -0.0185  0.1428  0.1014
93691W        W94555   9.995  21.322   4.924  0.3239  0.3292 -0.1635
93692W        W94556  14.739  22.558   7.892  0.1545  0.0647 -0.2795
93693W        W94557  13.095  20.577   7.638 -0.2416  0.0494 -0.1223
93694W        W94558  15.022  19.992   5.556 -0.4498 -0.0682 -0.0331
93695W        W94559  14.718  17.966   4.530  0.1661  0.0593 -0.0791
93696W        W94560  13.046  21.574   5.612 -0.1159  0.1490 -0.0660
93697W        W94561  13.058  18.781   5.857 -0.0895  0.3074  0.1536
93698W        W94562  15.887  20.244   7.492  0.3337 -0.0572  0.1896
93699W        W94563  11.171  20.611   4.205 -0.0545 -0.2309 -0.0711
93700W        W94564  13.939  15.553   5.817  0.0431  0.1142  0.3761
93701W        W94565  11.691  22.075   4.442  0.2865  0.0199  0.1961
93702W        W94566  14.590  20.178   5.578  0.1150 -0.1190 -0.4180
93703W        W94567  12.610  19.398   4.814 -0.2179  0.1737 -0.0781
93704W        W94568  13.577  19.598   6.068  0.1587  0.0769  0.0841
93705W        W94569  11.708  22.937   3.994 -0.1451 -0.2220 -0.3641
93706W        W94570  13.390  19.114   6.067 -0.0112  0.2256  0.1595
93707W        W94571  15.036  18.124   3.518 -0.2039  0.2079 -0.0075
93708W        W94572  12.718  20.295   5.754 -0.1322  0.0700 -0.0460
93709W        W94573  14.503  18.027   5.811  0.4027  0.0624 -0.1430
93710W        W94574  11.307  21.915   7.262 -0.1047  0.0383 -0.2665
93711W        W94575  16.235  19.198   5.885  0.1449  0.2250 -0.0976
93712W        W94576  13.032  21.183   2.606 -0.2007 -0.1023 -0.0086
93713W        W94577  11.712  19.520   6.267 -0.2584 -0.3112  0.0663
93714W        W94578  13.693  19.028   8.476 -0.0598  0.0478 -0.1633
93715W        W94579  13.323  19.783   7.665 -0.2484 -0.0165 -0.0497
93716W        W94580  12.204  16.879   3.740  0.0553 -0.0855 -0.2193
93717W        W94581  12.464  21.959   4.480 -0.1683 -0.0830 -0.0131
93718W        W94582  14.040  20.386   4.457  0.1098 -0.1391 -0.3570
93719W        W94583  12.358  22.795   7.774 -0.1635  0.2060 -0.1313
93720W        W94584  13.740  19.208   8.001 -0.1775  0.3519 -0.0042
93721W        W94585  12.530  21.160   7.895 -0.0658 -0.0674 -0.0838
93722W        W94586  12.384  18.437   6.772  0.1247 -0.0425 -0.0541
93723W        W94587  13.485  19.450   4.376 -0.1514  0.4226 -0.1860
93724W        W94588  16.055  21.298   4.601  0.2055  0.1475  0.1078
93725W        W94589  14.862  21.667   6.141  0.0630 -0.1800 -0.2924
93726W        W94590  13.374  18.862   8.120 -0.3699  0.2042 -0.0091
93727W        W94591  15.031  21.293   4.220  0.1727  0.1844  0.2376
93728W        W94592  13.217  22.139   6.897  0.3205  0.0076  0.0403
93729W        W94593  11.498  19.592   3.504 -0.2920  0.1905 -0.1376
93730W        W94594  13.297  21.335   3.460 -0.0023 -0.1641 -0.1852
93731W        W94595  12.073  23.600  13.408 -0.0195 -0.1609  0.3541
93732W        W94596  10.244  19.709   9.862 -0.2405  0.0264  0.0343
93733W        W94597  15.311  19.737   6.500 -0.1206 -0.0201  0.1150
93734W        W94598  13.023  21.478  10.035  0.0180 -0.0680  0.0254
93735W        W94599  11.052  19.980   7.252  0.0414  0.0933  0.0055
93736W        W94600  10.770  19.769  11.286  0.1257 -0.4260 -0.1835
93737W        W94601  12.790  20.552   7.155  0.1782  0.0850  0.3179
93738W        W94602  13.488  19.622   8.703  0.3414 -0.0442 -0.0350
93739W        W94603  11.521  20.736  10.254  0.2375  0.2341  0.0332
93740W        W94604   9.839  22.168  13.005  0.1787 -0.0614  0.0321
93741W        W94605  11.793  17.100  10.295  0.0338  0.2524 -0.1009
93742W        W94606  12.904  20.196   6.863  0.0088 -0.0285  0.0793
93743W        W94607  14.103  18.735   7.330  0.2125  0.1302  0.2733
93744W        W94608  13.777  19.305   8.905 -0.4157 -0.1011 -0.0266
93745W        W94609  10.573  16.832   9.060  0.3285  0.1136 -0.1483
93746W        W94610  10.357  22.390  10.775 -0.2806 -0.0294 -0.3017
93747W        W94611  11.368  18.054   3.594  0.0555  0.0266 -0.0668
93748W        W94612  12.913  18.419   9.378  0.1394 -0.2407 -0.1286
93749W        W94613  11.827  20.962  12.544  0.2335  0.3612  0.2268
93750W        W94614  12.890  21.430   6.223 -0.1306 -0.1626  0.2269
93751W        W94615  16.221  19.581  10.081  0.0523  0.0150  0.4218
93752W        W94616  11.962  19.761   8.827 -0.2431  0.1503 -0.0871
93753W        W94617  12.765  22.935   9.255 -0.3309  0.1110 -0.0195
93754W        W94618  10.188  20.422  10.245  0.3169 -0.2065  0.1339
93755W        W94619  10.689  20.674   8.459  0.2279 -0.2786  0.0336
93756W        W94620  12.582  18.766   9.149  0.0962 -0.1878  0.0196
93757W        W94621  15.573  21.571  11.348  0.0786  0.1188 -0.5843
93758W        W94622   9.330  19.114   7.796  0.1163  0.0927  0.2632
93759W        W94623  12.860  19.154   9.903  0.2438 -0.0991  0.0518
93760W        W94624  15.809  16.908   8.915  0.1374 -0.0366  0.0631
93761W        W94625  12.860  17.969   8.038  0.0618 -0.0207  0.3327
93762W        W94626  12.518  22.615  11.283 -0.0656  0.0082 -0.0230
93763W        W94627  14.361  21.568   9.085 -0.0512  0.1055 -0.0565
93764W        W94628  12.676  20.973   8.375  0.2388 -0.1918  0.1421
93765W        W94629  10.832  22.598  10.533 -0.3778 -0.1013  0.1228
93766W        W94630  15.185  21.071   9.329  0.2479 -0.2327  0.0556
93767W        W94631  11.704  18.747   8.587  0.1278  0.0888  0.2659
93768W        W94632  12.341  24.226   6.521  0.0452  0.1451 -0.0631
93769W        W94633  15.378  20.244   7.644  0.0108  0.1099 -0.1236
93770W        W94634  16.595  19.904  10.063  0.0023  0.0844  0.1687
93771W        W94635  16.851  20.398   6.569 -0.1507  0.0923  0.0106
93772W        W94636  13.596  17.564   7.491  0.1268  0.0443 -0.4083
93773W        W94637  12.502  21.475   9.546 -0.2201 -0.1398 -0.0839
93774W        W94638  12.588  18.218   7.695  0.0239 -0.0042 -0.0186
93775W        W94639  10.946  22.175   6.339  0.1034  0.4130 -0.2329
93776W        W94640  10.937  25.083   7.088 -0.1206  0.0422 -0.2455
93777W        W94641   8.457  19.328   8.925 -0.2272  0.0708  0.0105
93778W        W94642  14.551  18.838   9.203  0.1010 -0.0804  0.0052
93779W        W94643  14.036  17.962   6.681  0.0913 -0.0888 -0.3485
93780W        W94644  13.768  20.071   6.008  0.0282 -0.3874 -0.2289
93781W        W94645  13.462  22.145   9.238 -0.1756 -0.0369  0.0272
93782W        W94646  12.142  20.781   7.876 -0.1058  0.2307 -0.2232
93783W        W94647  14.605  21.206   6.847  0.2375 -0.5343  0.3080
93784W        W94648  15.121  22.313   8.703 -0.1198  0.1779 -0.0065
93785W        W94649  14.311  17.716   8.165  0.0455 -0.2497  0.1543
93786W        W94650  13.712  17.058   6.529  0.3958 -0.0206 -0.1277
93787W        W94651  13.074  17.287   6.729 -0.0764 -0.0994  0.1908
93788W        W94652  12.357  21.379   7.277 -0.2442 -0.0781  0.0321
93789W        W94653  10.177  20.439   6.842 -0.0543 -0.3431 -0.1863
93790W        W94654  11.878  21.280   6.328 -0.2403  0.0386 -0.0014
93791W        W94655  14.731  19.436   6.944  0.0464  0.1265 -0.0637
93792W        W94656  10.925  20.342   9.548  0.0713 -0.1177 -0.0731
93793W        W94657  12.464  24.923   8.917 -0.0294  0.2107  0.2130
93794W        W94658  15.397  20.142   9.963  0.2961 -0.0515 -0.0305
93795W        W94659  14.566  18.700   8.254  0.0648  0.3232  0.0481
93796W        W94660  14.988  18.060   8.091  0.3071 -0.1839 -0.1489
93797W        W94661  11.881  19.486   7.092 -0.0659  0.0862  0.2672
93798W        W94662  14.231  18.002   6.231  0.1706  0.1459  0.1967
93799W        W94663  11.054  19.321   9.917  0.4232  0.0127  0.0415
93800W        W94664  11.056  21.149   8.386 -0.1017 -0.0214 -0.2160
93801W        W94665  14.822  20.787   7.526  0.1646  0.1037 -0.0866
93802W        W94666  14.781  17.570   7.246  0.0480 -0.0814 -0.0496
93803W        W94667  13.446  21.303   9.863 -0.2661 -0.0378  0.0129
93804W        W94668  15.182  20.495   8.693 -0.0945  0.1116  0.1249
93805W        W94669  14.760  22.063   8.393  0.3682 -0.1084 -0.1845
93806W        W94670  13.503  21.400   8.573  0.0195 -0.0892 -0.1686
93807W        W94671  14.149  21.639   7.601  0.0730  0.2585  0.5595
93808W        W94672  14.472  18.753  12.181 -0.2188 -0.2998  0.2067
93809W        W94673  11.997  22.164   8.022  0.0906  0.1004  0.1710
93810W        W94674  12.436  19.295   6.867 -0.0973 -0.0252  0.0795
93811W        W94675  12.320  21.028   9.172 -0.1418 -0.0304  0.0773
93812W        W94676  11.574  17.834   9.770 -0.0461 -0.0857  0.3899
93813W        W94677  11.273  19.921   8.024 -0.2541 -0.2062  0.1968
93814W        W94678  13.933  20.267   7.819  0.2564  0.0117  0.1519
93815W        W94679  14.077  20.451   8.828  0.2886  0.0343 -0.1092
93816W        W94680  11.369  17.834   4.495 -0.1674 -0.0551  0.1324
93817W        W94681  14.907  22.589   9.718  0.0094 -0.0434  0.0290
93818W        W94682  12.311  17.882  13.233 -0.0493  0.2214 -0.1002
93819W        W94683  14.755  18.064  12.803 -0.4057 -0.0669  0.1727
93820W        W94684  14.756  19.539   9.329  0.0924 -0.2735  0.0660
93821W        W94685  14.723  17.088   6.554 -0.0848  0.1356  0.1074
93822W        W94686  14.714  21.853   8.834 -0.2596  0.0835 -0.0309
93823W        W94687  10.288  22.761   7.686  0.0761  0.3164 -0.2238
93824W        W94688  11.331  18.695  10.323 -0.1577  0.1536 -0.1708
93825W        W94689  11.948  18.752  11.617 -0.0910 -0.0708 -0.0706
93826W        W94690  15.924  17.516   7.113  0.1806 -0.2036 -0.0573
93827W        W94691  12.564  19.953   5.113  0.2243 -0.2588  0.4125
93828W        W94692  10.143  22.885   9.090  0.0025  0.0860 -0.0428
93829W        W94693  11.123  21.435   8.830 -0.3806 -0.3059 -0.1410
93830W        W94694  13.244  19.992   8.959 -0.2105  0.1259 -0.0290
93831W        W94695  12.298  21.626   8.185 -0.0301  0.0942  0.1343
93832W        W94696  12.337  20.314   7.999 -0.2213 -0.1044 -0.2252
93833W        W94697  12.108  18.042   8.427  0.3169 -0.0809  0.0306
93834W        W94698  14.543  22.067   7.804  0.0468  0.2552 -0.0967
93835W        W94699  14.529  21.235   8.804  0.0170  0.0925 -0.2167
93836W        W94700  14.125  21.572   9.614 -0.1724  0.2083  0.0393
93837W        W94701  13.086  20.287  10.580  0.0235 -0.3440 -0.1332
93838W        W94702  14.448  20.460  10.336  0.1570  0.2382 -0.1419
93839W        W94703  11.778  18.368   9.705  0.2080 -0.0408  0.1275
93840W        W94704  13.823  22.002   7.537 -0.0015 -0.1987  0.2381
93841W        W94705  11.847  21.310   8.911 -0.1320  0.1367  0.1262
93842W        W94706  12.830  21.827   8.180 -0.0693 -0.1682  0.0843
93843W        W94707  14.991  20.430  10.755  0.1465 -0.0906 -0.1884
93844W        W94708  14.832  19.681   8.872 -0.0542 -0.3678 -0.2022
93845W        W94709  14.412  19.312   6.481  0.1167 -0.4916 -0.4556
93846W        W94710  16.191  18.336   8.455  0.1108 -0.0458  0.1778
93847W        W94711  13.635  18.518  10.676 -0.1073 -0.0816  0.0862
93848W        W94712  14.520  21.585   7.907 -0.0994 -0.1904 -0.0510
93849W        W94713  14.377  22.350  10.265  0.1156 -0.2448 -0.1922
93850W        W94714  14.559  18.063   7.534 -0.2666 -0.0504 -0.0624
93851W        W94715  11.348  17.114   7.683 -0.1795  0.2502  0.0622
93852W        W94716  14.186  23.917   7.628  0.3774  0.0769 -0.1246
93853W        W94717  15.013  21.771   7.553 -0.2332 -0.1233 -0.2122
93854W        W94718  13.479  18.994   7.170  0.2196 -0.2568 -0.0467
93855W        W94719  14.507  17.310   8.385 -0.2162  0.0801  0.0132
93856W        W94720  14.316  19.980   7.590  0.1284  0.0073  0.2442
93857W        W94721  14.039  16.880   6.996 -0.0058 -0.2888 -0.0978
93858W        W94722  15.304  21.163  11.321  0.2203  0.1511  0.0013
93859W        W94723  13.658  20.052  10.212  0.0437  0.0279  0.0168
93860W        W94724  12.730  22.378   8.535  0.1387  0.0585  0.0515
93861W        W94725  14.240  21.911  10.003 -0.0032 -0.2930  0.0004
93862W        W94726  12.762  16.864   6.505  0.0136 -0.2415  0.0295
93863W        W94727  10.967  23.058  11.319 -0.1480 -0.0182  0.4709
93864W        W94728  15.682  17.042   9.857  0.2931  0.0111  0.0007
93865W        W94729  12.530  20.549   7.546  0.0727  0.3533 -0.1348
93866W        W94730  13.356  20.412   6.919  0.1216  0.0141 -0.2380
93867W        W94731  12.368  16.447   7.077 -0.0967 -0.1618  0.2440
93868W        W94732  14.649  19.206   8.214 -0.1297 -0.1973 -0.1716
93869W        W94733  11.981  21.609   8.521  0.2228  0.0241 -0.4242
93870W        W94734  12.230  25.001   9.331  0.1539  0.0747 -0.0583
93871W        W94735  10.907  19.362   9.408  0.3702  0.3935  0.1108
93872W        W94736  11.186  19.704   8.539 -0.1156 -0.3318  0.2177
93873W        W94737   9.612  20.854   7.467 -0.0123  0.2269 -0.0479
93874W        W94738  15.369  20.267   9.121  0.1057 -0.1434 -0.0027
93875W        W94739  12.415  21.398  11.986 -0.3701 -0.0043 -0.1728
93876W        W94740  12.965  19.969  11.932 -0.0631 -0.0572 -0.0007
93877W        W94741  16.548  17.669   9.432  0.1869  0.2061 -0.3246
93878W        W94742  12.859  22.616  10.899 -0.2114  0.1308  0.1473
93879W        W94743  14.629  21.928  10.560  0.0324 -0.0331  0.2945
93880W        W94744  13.036  21.703   8.662  0.0691 -0.0742 -0.1183
93881W        W94745  15.887  22.890  12.331 -0.1409 -0.0762  0.1274
93882W        W94746  13.822  21.180   9.550 -0.0398  0.1507  0.1213
93883W        W94747  15.193  23.185   7.772 -0.0865 -0.4029 -0.1173
93884W        W94748  10.766  21.239   5.314  0.2715  0.1248 -0.1487
93885W        W94749  14.954  21.243   7.406 -0.1278 -0.1622 -0.0725
93886W        W94750  11.411  20.440   8.943 -0.1382 -0.2252 -0.0032
93887W        W94751  12.978  17.732   7.046 -0.0725 -0.1233  0.1165
93888W        W94752  13.846  18.475   6.905  0.1913 -0.3474  0.0531
93889W        W94753  12.955  17.819   4.660  0.2335  0.1732  0.5658
93890W        W94754  13.191  20.003   4.433 -0.3320 -0.3103 -0.0113
93891W        W94755  17.411  17.980   8.522  0.0382  0.0597  0.0373
93892W        W94756  13.022  21.358   8.334 -0.0202  0.0721 -0.1647
93893W        W94757  13.507  19.636   9.224 -0.0384  0.2262 -0.2753
93894W        W94758  13.640  20.937   8.435 -0.1247  0.0624  0.0107
93895W        W94759  12.350  17.470  11.289 -0.1481 -0.1042  0.2422
93896W        W94760  13.283  20.142  11.018  0.2159 -0.1303 -0.2710
93897W        W94761  10.078  18.036  11.525 -0.2720 -0.0143  0.2765
93898W        W94762  13.073  23.871   9.103  0.2089 -0.2371  0.1460
93899W        W94763  13.676  21.194  11.820  0.0219 -0.1760 -0.1231
93900W        W94764  10.137  21.252   6.300  0.1865 -0.0709 -0.0306
93901W        W94765  15.007  21.729   8.120 -0.1017  0.1379  0.0435
93902W        W94766  14.376  21.045  11.056 -0.1620 -0.1295  0.3420
93903W        W94767  14.491  20.244   8.700 -0.1713  0.1475  0.3788
93904W        W94768  14.601  20.756   7.125  0.0519 -0.0221  0.2522
93905W        W94769  12.999  17.791   8.664  0.0431 -0.1209  0.1386
93906W        W94770  17.545  18.124  10.867  0.1972  0.0395 -0.0836
93907W        W94771  12.117  20.563   9.540 -0.1780 -0.1121 -0.1910
93908W        W94772   9.601  20.629   8.699  0.1133  0.2562  0.1852
93909W        W94773   9.726  22.471   8.538  0.0372  0.1273 -0.0682
93910W        W94774  11.491  19.727  10.799  0.1846  0.0787  0.0466
93911W        W94775  11.103  22.000   6.792  0.0860  0.1495  0.0424
93912W        W94776  13.582  21.433   6.792  0.0277  0.0828  0.0260
93913W        W94777  15.118  19.722   7.066 -0.3812  0.0888 -0.2052
93914W        W94778  13.651  20.105   8.616  0.0846 -0.1615  0.1161
93915W        W94779  11.689  20.962   7.789  0.0151  0.0432  0.1768
93916W        W94780  12.878  19.739  11.215 -0.0384 -0.0932  0.0097
93917W        W94781  13.869  17.736   3.911  0.1341  0.0767 -0.0012
93918W        W94782  11.765  17.683   4.999 -0.0862 -0.2455 -0.3022
93919W        W94783  12.486  21.639   7.739  0.0306 -0.0948  0.3129
93920W        W94784  11.293  18.565   9.530 -0.1774 -0.1408 -0.1044
93921W        W94785  12.237  22.765   4.702  0.0913 -0.0799 -0.3012
93922W        W94786  12.417  19.406   9.857  0.3373 -0.1635  0.2032
93923W        W94787  11.388  19.035  10.719 -0.0581 -0.1229 -0.0731
93924W        W94788  10.599  17.994   9.632  0.0870  0.1266  0.0382
93925W        W94789  14.719  18.250   8.544 -0.0220  0.0395  0.0252
93926W        W94790  12.594  17.388   6.690  0.1569 -0.0481 -0.0265
93927W        W94791  11.762  20.974   9.329  0.2213  0.1194 -0.0651
93928W        W94792  13.884  21.409   8.178  0.0490 -0.1989  0.2445
93929W        W94793  12.043  21.293   7.671 -0.1580 -0.1153  0.0337
93930W        W94794  15.231  20.918  10.719 -0.2047 -0.3424 -0.1276
93931W        W94795  13.710  20.436   8.268 -0.2612  0.2456 -0.0476
93932W        W94796  13.026  16.487  12.196  0.0158  0.1184  0.0536
93933W        W94797  13.558  18.860   6.688  0.1240 -0.2245 -0.0825
93934W        W94798  12.376  18.330   8.862  0.2094 -0.2808 -0.1288
93935W        W94799  13.379  18.200   8.859 -0.1472 -0.0396 -0.1463
93936W        W94800  12.442  17.661   6.277  0.0040  0.1591  0.0424
93937W        W94801  10.475  19.200   9.900  0.1380 -0.1473  0.1537
93938W        W94802  14.032  18.951   9.435  0.0536  0.0340 -0.0307
93939W        W94803  11.670  19.515   7.936 -0.0932  0.1695  0.0789
93940W        W94804  11.218  20.866   6.858 -0.0758 -0.2691 -0.1658
93941W        W94805  12.005  20.442  12.527 -0.0981 -0.0417 -0.1555
93942W        W94806  12.543  20.872  10.758 -0.0050 -0.0092  0.0561
93943W        W94807  13.782  21.383   9.065 -0.0754 -0.3594  0.1344
93944W        W94808  13.861  19.760   7.510 -0.1580 -0.3222  0.3057
93945W        W94809  14.147  18.219  12.684  0.0886 -0.0708  0.0173
93946W        W94810  16.348  21.061   7.519 -0.0937  0.1417 -0.0304
93947W        W94811  11.510  19.909   8.881  0.3390 -0.5687  0.3963
93948W        W94812  13.947  21.882   9.124  0.0978 -0.1624 -0.1850
93949W        W94813  11.406  19.956  11.977 -0.1094  0.0930  0.1884
93950W        W94814  10.631  21.532   9.623 -0.1280  0.3226  0.0883
93951W        W94815  14.444  17.318  11.736 -0.0472 -0.0974  0.0571
93952W        W94816  13.742  19.267   7.455 -0.1801  0.0646 -0.1696
93953W        W94817  14.799  20.996  12.725 -0.1287 -0.1021 -0.2554
93954W        W94818  12.189  18.578   7.424 -0.2126 -0.2357  0.0104
93955W        W94819  13.606  18.508   7.352  0.3772  0.0190 -0.0146
93956W        W94820  10.763  18.851  13.693 -0.1456  0.0739 -0.0506
93957W        W94821  12.233  18.931  12.648  0.3461 -0.1297 -0.2070
93958W        W94822  14.811  17.713   8.368  0.3101 -0.1223  0.1380
93959W        W94823  13.528  22.917   7.362 -0.1182 -0.1877 -0.0841
93960W        W94824  14.566  21.131   8.330 -0.2762  0.0118 -0.1442
93961W        W94825  12.864  16.161   6.305 -0.1907 -0.0490 -0.2562
93962W        W94826  13.310  20.439  10.162  0.2376 -0.0492 -0.0495
93963W        W94827  14.883  23.536   8.055  0.0354 -0.1151 -0.1290
93964W        W94828  13.750  18.167   6.352 -0.3367 -0.3446  0.0225
93965W        W94829  13.880  19.212   9.902 -0.2029 -0.1243 -0.0978
93966W        W94830  12.022  21.195   8.139  0.1195  0.0162 -0.4674
93967W        W94831  13.541  20.190   7.451 -0.1428 -0.0943  0.1887
93968W        W94832  11.740  18.395   9.158 -0.2969 -0.1210  0.3526
93969W        W94833  15.013  21.956   9.183 -0.2161  0.0590 -0.2014
93970W        W94834  11.655  20.286  11.673  0.1201 -0.3364 -0.1179
93971W        W94835  14.396  19.885   5.229  0.1271  0.0821  0.3338
93972W        W94836  13.571  18.859   9.203 -0.0456 -0.0858 -0.2109
93973W        W94837  11.099  20.007  10.999 -0.1155  0.0169 -0.0543
93974W        W94838  12.470  17.050   5.454  0.0435  0.1678 -0.0819
93975W        W94839  13.351  19.453   6.545  0.1846 -0.0002 -0.2417
93976W        W94840  13.280  19.253   7.592  0.1542 -0.1042 -0.0519
93977W        W94841  16.036  18.125   7.269  0.1062 -0.2314  0.0990
93978W        W94842  12.135  20.084  11.738 -0.0182  0.2612  0.1904
93979W        W94843  15.659  21.108   9.335 -0.1011 -0.0851  0.0856
93980W        W94844  14.042  18.281   7.549 -0.0845  0.0135 -0.2140
93981W        W94845  10.726  20.073   9.166  0.0341 -0.0005 -0.0787
93982W        W94846  11.190  20.385  10.009 -0.0542  0.0573 -0.2616
93983W        W94847  15.085  20.938   8.344  0.3095  0.0074 -0.0840
93984W        W94848  15.497  21.273  10.368 -0.0950  0.0380  0.1024
93985W        W94849  11.296  18.763   6.732 -0.0222 -0.0073  0.2137
93986W        W94850  13.355  22.897   7.834  0.1800 -0.0266 -0.0696
93987W        W94851  16.379  18.150   5.775  0.1172  0.0325 -0.1188
93988W        W94852  13.464  18.379   9.312 -0.2948 -0.0128  0.0077
93989W        W94853  14.657  21.659   9.609  0.1872  0.1160 -0.1326
93990W        W94854  15.339  19.351   8.233  0.0169  0.0373 -0.1766
93991W        W94855  13.502  19.568   9.880 -0.2907  0.1375  0.1166
93992W        W94856  14.407  19.843   9.089 -0.0953 -0.2373  0.1048
93993W        W94857  12.665  20.715   8.784 -0.1465 -0.1728  0.1492
93994W        W94858  12.029  19.119  10.063 -0.0871 -0.4553 -0.1251
93995W        W94859  11.018  22.466   8.178  0.1454  0.0702  0.1460
93996W        W94860   9.497  22.707  10.221 -0.2795  0.3328  0.1466
93997W        W94861   8.558  23.709   8.118 -0.0162 -0.4723 -0.0179
93998W        W94862  14.965  16.924   8.417  0.1007  0.0404  0.1285
93999W        W94863  14.272  19.370   9.150  0.1221  0.0122 -0.2167
94000W        W94864  15.341  18.871   8.759 -0.2347 -0.0524 -0.0824
94001W        W94865  13.907  22.979   7.017  0.0273 -0.0843  0.3438
94002W        W94866  10.185  18.700  11.218  0.2100  0.0581  0.1080
94003W        W94867  13.905  19.976   8.230 -0.0326 -0.0709  0.2251
94004W        W94868   8.663  18.801   9.008  0.3071  0.0045 -0.2872
94005W        W94869  12.046  20.641  10.115  0.1454  0.0819  0.1234
94006W        W94870  12.138  16.412  11.063 -0.2810  0.3226 -0.2611
94007W        W94871  12.891  18.706  11.511 -0.3139 -0.0633  0.1292
94008W        W94872  12.662  20.152   8.936 -0.0416  0.1357  0.0147
94009W        W94873  13.806  19.716   3.717  0.2828  0.2374 -0.1039
94010W        W94874  13.648  21.654   9.466  0.0481 -0.1777  0.0062
94011W        W94875  14.811  21.729  11.003 -0.0550  0.2335 -0.1246
94012W        W94876  13.305  17.266   5.309  0.1744 -0.2721  0.1388
94013W        W94877  12.504  18.139   9.298  0.0120  0.2826 -0.0484
94014W        W94878  13.093  22.724   8.839 -0.3058 -0.0610  0.0385
94015W        W94879  11.512  19.083   7.168  0.3615  0.1700  0.2902
94016W        W94880  14.693  19.592  12.083 -0.1540  0.1242  0.1413
94017W        W94881  12.334  22.048   8.473 -0.1593  0.1875  0.2948
94018W        W94882   9.474  19.744  10.427  0.0643  0.3390  0.1496
94019W        W94883  14.792  20.126   9.111  0.0872 -0.4269 -0.0887
94020W        W94884  15.668  19.426   7.090  0.3127 -0.0134  0.1950
94021W        W94885  13.124  18.611   7.098 -0.1574  0.4389  0.2913
94022W        W94886  12.486  17.276   5.949  0.0062  0.0399  0.0884
94023W        W94887  15.202  17.897   7.135 -0.0744 -0.0390 -0.2115
94024W        W94888  10.437  18.961  12.000 -0.0704 -0.0703 -0.1310
94025W        W94889  13.166  20.846   7.115 -0.0752  0.0567  0.0664
94026W        W94890  15.593  19.245   5.572  0.2456 -0.0054  0.1275
94027W        W94891  12.208  19.014   9.578 -0.0803  0.3437 -0.1829
94028W        W94892  15.432  23.237   8.784  0.1576 -0.0561  0.1285
94029W        W94893  15.036  20.587   9.246 -0.2060 -0.1879  0.3104
94030W        W94894   9.444  22.089   8.462 -0.0268  0.0598 -0.2708
94031W        W94895   9.875  23.765   8.015  0.0357 -0.2906  0.0537
94032W        W94896  12.176  21.809  13.248 -0.0356 -0.1297  0.1065
94033W        W94897  11.948  20.112   9.697  0.2338  0.4437 -0.1351
94034W        W94898  12.568  21.516   8.669  0.2470 -0.1270 -0.0209
94035W        W94899  13.086  17.737   6.445  0.4847  0.0115  0.0297
94036W        W94900  12.616  23.338   9.479 -0.3314 -0.2496 -0.0949
94037W        W94901  14.653  20.754  10.017 -0.3442  0.0421  0.0738
94038W        W94902  13.622  16.963   9.544  0.1425 -0.2523 -0.1434
94039W        W94903  13.083  20.131   7.332 -0.1062  0.2037 -0.2671
94040W        W94904   9.389  21.796   6.300  0.1274 -0.2264  0.3914
94041W        W94905  12.970  18.118   6.739 -0.1969 -0.1315 -0.0647
94042W        W94906   9.388  19.065  10.241 -0.0556  0.1045  0.4300
94043W        W94907  14.798  19.637   6.439  0.0554  0.1410  0.2008
94044W        W94908  12.654  19.236   9.447  0.0285  0.1977  0.1811
94045W        W94909  13.749  20.054   9.412 -0.0033  0.1731 -0.1056
94046W        W94910  12.866  20.753  11.463  0.0566 -0.1965  0.0066
94047W        W94911  13.254  19.828   5.258  0.4098  0.0922  0.0967
94048W        W94912  17.664  18.204   8.947  0.1225 -0.4626  0.2741
94049W        W94913  11.744  21.794   9.774 -0.1026 -0.1911 -0.2684
94050W        W94914  13.067  20.686   6.637 -0.2582 -0.1242 -0.0296
94051W        W94915  13.130  19.316  10.287 -0.0006 -0.1740 -0.1807
94052W        W94916  12.336  23.202   8.947 -0.0828  0.0505 -0.2285
94053W        W94917  10.024  20.089  11.360 -0.0150  0.2544  0.2546
94054W        W94918  14.596  21.573   7.328 -0.2039  0.0553 -0.0601
94055W        W94919  12.036  22.488  10.295  0.0687  0.1837 -0.0246
94056W        W94920  13.149  19.059   8.697 -0.0537  0.0693 -0.1870
94057W        W94921  12.595  17.820   8.927  0.1157  0.0048  0.0637
94058W        W94922  10.935  21.626   7.527  0.0289  0.4719  0.1475
94059W        W94923  13.848  20.442   5.078  0.2258  0.0265  0.1812
94060W        W94924  12.022  18.997   7.092  0.2364  0.0362  0.0745
94061W        W94925  13.071  16.864  11.823  0.0236  0.0428 -0.0278
94062W        W94926  15.973  17.873   8.091 -0.1095  0.0610  0.0992
94063W        W94927  15.437  21.058   9.860  0.1433 -0.2281 -0.2419
94064W        W94928  13.117  23.452  10.963  0.1507 -0.1879  0.2368
94065W        W94929  15.821  22.188  10.695 -0.1403 -0.1411  0.1354
94066W        W94930  15.115  21.988  10.670 -0.2810 -0.0915  0.0351
94067W        W94931  10.525  22.349   7.874 -0.0744 -0.2984 -0.0178
94068W        W94932  10.831  21.965   7.176 -0.1403  0.5020 -0.0152
94069W        W94933  13.173  20.392   8.298 -0.1001 -0.4299  0.2280
94070W        W94934  12.030  19.097   8.008  0.0577  0.0853  0.1786
94071W        W94935  13.433  22.488   9.727  0.1550  0.0779  0.0561
94072W        W94936  12.390  19.055   7.493 -0.3853 -0.0536 -0.3214
94073W        W94937  13.392  19.486  11.187 -0.4949 -0.1852 -0.1464
94074W        W94938  10.774  23.701   8.188 -0.1327 -0.1214  0.4924
94075W        W94939  14.164  20.928  10.287 -0.1119 -0.0155 -0.2681
94076W        W94940  11.101  21.873  10.505 -0.1280 -0.0117 -0.0879
94077W        W94941  10.949  23.223   8.896 -0.5404 -0.2036  0.1382
94078W        W94942   9.443  19.327   8.257  0.0511  0.0068 -0.2292
94079W        W94943  15.228  19.854   8.016  0.0284  0.0252 -0.1514
94080W        W94944   9.635  19.598   8.588  0.1566 -0.3418  0.0488
94081W        W94945  12.810  20.362   9.846 -0.1556 -0.1625  0.1488
94082W        W94946  15.479  18.807   7.166 -0.0402  0.1610  0.0918
94083W        W94947  16.090  19.707   8.617  0.0310 -0.3371 -0.1082
94084W        W94948  12.099  23.329   9.635  0.0459  0.0587 -0.1411
94085W        W94949  10.225  21.524   9.251 -0.1842  0.1248 -0.0986
94086W        W94950  14.512  13.677   7.822 -0.1178 -0.3164 -0.3699
94087W        W94951  12.846  22.204   9.481  0.0174  0.0198  0.0240
94088W        W94952  14.149  19.984  10.400  0.0130  0.1510  0.3958
94089W        W94953  11.185  19.520  11.117 -0.0409  0.4150 -0.0221
94090W        W94954  12.487  19.439   7.968 -0.1331  0.0533  0.0482
94091W        W94955  10.276  19.542   7.614 -0.1017 -0.2462 -0.0925
94092W        W94956  14.819  22.697  12.155 -0.1521  0.2069  0.1575
94093W        W94957  13.871  21.094   7.628  0.1789  0.0285 -0.3615
94094W        W94958  11.279  17.615  10.873 -0.1217  0.0563 -0.0351
94095W        W94959  13.261  22.014   9.740  0.1190 -0.1650 -0.1279
94096W        W94960  14.436  21.113   7.679  0.0330 -0.2932  0.1597
94097W        W94961  14.944  23.834  11.132 -0.1784  0.1926  0.1687
94098W        W94962  12.443  19.535   7.301 -0.3996  0.1296 -0.1296
94099W        W94963  11.073  18.723   3.767 -0.3798  0.0764 -0.0748
94100W        W94964  16.481  17.717   8.776  0.2764  0.1108  0.1833
94101W        W94965  12.999  18.060   4.254  0.1750 -0.1910  0.0494
94102W        W94966  14.184  22.133   6.730 -0.1909  0.1758  0.3090
94103W        W94967  13.664  20.456   9.786  0.0799  0.1701  0.0009
94104W        W94968  13.776  21.988   9.813  0.1544 -0.0899  0.0999
94105W        W94969  17.165  20.371   8.916 -0.0127 -0.0835 -0.3585
94106W        W94970  12.116  18.812  12.090  0.0905 -0.0036  0.0749
94107W        W94971  11.657  19.444  11.167 -0.0332  0.1741  0.1124
94108W        W94972  12.019  19.228  11.882 -0.1948 -0.2484  0.1116
94109W        W94973  12.776  18.064  12.431 -0.1829  0.1446  0.3456
94110W        W94974  11.242  18.222  10.541  0.2326 -0.0311  0.2699
94111W        W94975  14.814  18.567   7.846 -0.1728 -0.0973  0.1148
94112W        W94976  13.716  20.805   6.649  0.0726 -0.0238 -0.1473
94113W        W94977  11.566  21.483  11.488  0.0254 -0.0553 -0.0780
94114W        W94978  14.240  21.698   6.971 -0.1357  0.0632  0.0434
94115W        W94979  12.657  18.708   9.711  0.0431 -0.1999  0.3388
94116W        W94980  12.918  18.273   8.790  0.4092  0.0620 -0.1081
94117W        W94981  13.512  20.356   6.381 -0.0319 -0.1347 -0.0863
94118W        W94982  13.061  22.221   8.936 -0.0554  0.0194  0.1738
94119W        W94983  13.409  23.400   7.175 -0.2428 -0.0737  0.0493
94120W        W94984  15.132  23.225   8.373 -0.2158 -0.1929  0.3890
94121W        W94985  11.835  19.965  10.601 -0.1204  0.0536 -0.0401
94122W        W94986  12.736  21.022   6.440 -0.2766 -0.0191  0.1544
94123W        W94987  16.080  20.850   7.972  0.3125  0.1799 -0.2403
94124W        W94988  15.089  22.074   9.690 -0.0414  0.3680 -0.1105
94125W        W94989  14.163  20.999   8.622  0.0703 -0.0098 -0.2066
94126W        W94990  10.970  19.368  11.609  0.0989 -0.0507 -0.0309
94127W        W94991  12.694  21.008   7.452  0.1064 -0.1266  0.0283
94128W        W94992  11.020  21.502  11.874 -0.2226  0.2337 -0.3208
94129W        W94993  12.650  18.123   6.368 -0.3288 -0.1031  0.1529
94130W        W94994  10.421  22.085   7.462 -0.5110 -0.0410  0.0009
94131W        W94995  10.996  23.114  16.179  0.1577  0.3487 -0.2990
94132W        W94996  12.393  22.664  13.390  0.1622  0.1750 -0.1258
94133W        W94997  11.912  20.440  10.560  0.1594 -0.0903 -0.0794
94134W        W94998  11.688  20.691  12.140  0.0425 -0.2670 -0.0446
94135W        W94999  12.586  23.866  11.730 -0.1540 -0.1698 -0.1180
94136W        W95000  12.654  19.504  13.266 -0.2323 -0.1097 -0.0225
94137W        W95001  12.823  19.179  14.666  0.0116  0.2399  0.0590
94138W        W95002  13.359  18.963  12.408 -0.1635 -0.1007  0.0643
94139W        W95003  11.462  21.774  15.270  0.1612  0.2226 -0.5400
94140W        W95004  12.513  18.838  14.890 -0.2579 -0.0239 -0.0772
94141W        W95005  10.134  19.485  13.141  0.0569  0.1334  0.1980
94142W        W95006  11.041  16.823  11.066 -0.0659 -0.2884 -0.0578
94143W        W95007  15.688  18.859  12.827 -0.2560  0.0944 -0.0392
94144W        W95008  11.426  17.618  15.009 -0.0497  0.3021  0.0192
94145W        W95009  11.810  18.068  13.343  0.0409 -0.0720 -0.1126
94146W        W95010  10.218  22.878  13.620  0.0450  0.1372  0.1000
94147W        W95011  12.100  18.333  10.704 -0.0792 -0.0323 -0.0702
94148W        W95012  10.516  19.750  14.671 -0.0879 -0.1671  0.0122
94149W        W95013  14.062  21.336  15.388 -0.0928 -0.2719 -0.3445
94150W        W95014  16.882  20.729  12.687 -0.1502  0.1675  0.1027
94151W        W95015  14.015  21.460  14.745 -0.1575  0.0977 -0.0373
94152W        W95016  11.588  20.204  10.970  0.2114 -0.0683 -0.0727
94153W        W95017  13.346  23.705  14.059 -0.1973 -0.0371 -0.0243
94154W        W95018  11.611  22.441  13.209 -0.0912 -0.0660  0.0644
94155W        W95019  11.538  20.654  15.542 -0.0992 -0.0124 -0.0268
94156W        W95020  14.012  20.807  14.249  0.2428  0.6730 -0.2699
94157W        W95021  13.651  19.773  16.342  0.4246 -0.1727 -0.1875
94158W        W95022  10.350  23.160  12.250 -0.0175  0.1405  0.2948
94159W        W95023  15.210  20.227  13.301  0.1343  0.2039  0.1862
94160W        W95024  14.646  17.984  13.540 -0.1723 -0.4077  0.1281
94161W        W95025  11.929  19.366  13.644  0.1588 -0.2595  0.0161
94162W        W95026  13.818  20.388  15.436  0.1752 -0.1147 -0.2139
94163W        W95027  13.927  21.577  14.257  0.0063  0.4172 -0.0184
94164W        W95028  14.103  19.081  13.537 -0.0445 -0.1063  0.1264
94165W        W95029  11.023  20.388  15.168 -0.0599 -0.0130 -0.2129
94166W        W95030  13.849  23.695  17.362 -0.3406 -0.0451  0.3236
94167W        W95031  11.206  19.341  13.010  0.3145  0.1049 -0.0558
94168W        W95032  10.370  21.223  13.079  0.2814  0.0283 -0.0026
94169W        W95033  13.049  17.318  12.550  0.0772  0.1613 -0.2091
94170W        W95034  11.879  18.043  12.850  0.1998 -0.0926  0.0453
94171W        W95035  13.581  20.405   9.122  0.0863  0.5549 -0.0411
94172W        W95036  12.353  20.315  12.901 -0.0033  0.2390 -0.1500
94173W        W95037  12.140  22.247  13.472 -0.0879 -0.1635  0.1559
94174W        W95038  15.072  18.380  12.583 -0.1401  0.0200 -0.1840
94175W        W95039  12.804  21.436   9.100 -0.0038  0.3208  0.0146
94176W        W95040  12.996  21.596  10.630 -0.1093  0.2155 -0.1320
94177W        W95041   9.465  19.316  10.698  0.1393  0.1543 -0.3680
94178W        W95042  15.169  18.669  15.092  0.0872 -0.3399  0.0601
94179W        W95043  14.673  21.719  11.554  0.0791  0.3318 -0.3113
94180W        W95044  14.454  19.118   9.764 -0.1095 -0.2117 -0.1202
94181W        W95045  14.165  20.234  12.870  0.0135  0.1977 -0.3736
94182W        W95046  13.742  19.290  14.572  0.2603  0.0808  0.1657
94183W        W95047  11.075  22.077  13.127  0.0875 -0.0407 -0.2005
94184W        W95048  13.893  20.690   9.410  0.0202  0.1263  0.0054
94185W        W95049  13.574  19.213   9.538 -0.0283  0.1570 -0.0948
94186W        W95050  13.511  24.702  12.244  0.0279  0.0519  0.0663
94187W        W95051  10.975  18.318  11.553 -0.1520  0.2409 -0.1647
94188W        W95052  14.125  16.797  12.938 -0.1920 -0.3148  0.0425
94189W        W95053  12.478  20.712   9.917  0.2653 -0.1111 -0.1950
94190W        W95054  13.324  23.384  11.904  0.1342  0.0146 -0.1089
94191W        W95055  12.154  20.119   9.263  0.2297 -0.0686 -0.3244
94192W        W95056  14.146  19.673  16.724 -0.1600  0.0926 -0.1693
94193W        W95057  12.667  23.647  13.343 -0.3205 -0.1157  0.2441
94194W        W95058  12.715  20.100  10.830 -0.0782 -0.0165 -0.1065
94195W        W95059  10.367  19.233  14.851 -0.2647 -0.1079  0.0144
94196W        W95060  13.500  15.922  11.634 -0.0507  0.1244 -0.1727
94197W        W95061  12.977  19.961   9.400 -0.2758  0.3163  0.2906
94198W        W95062  11.602  20.636  13.550  0.1782 -0.0498  0.1875
94199W        W95063  10.221  22.395   8.689  0.1752 -0.1872  0.1106
94200W        W95064  11.888  21.269  11.906 -0.3747 -0.2081  0.0843
94201W        W95065  15.273  22.779  11.720  0.4309 -0.0031 -0.0518
94202W        W95066  10.510  17.432  13.463  0.1190 -0.2464 -0.1578
94203W        W95067  16.405  19.150  10.940 -0.1008  0.0768 -0.2824
94204W        W95068  13.492  23.468  18.255 -0.2658  0.3293 -0.4081
94205W        W95069  14.440  20.149  11.534  0.1672 -0.0829 -0.1554
94206W        W95070  15.821  23.283  13.017 -0.1427  0.1857 -0.1850
94207W        W95071  10.715  21.917  12.681 -0.0346 -0.0063  0.1169
94208W        W95072  11.919  18.780  15.555  0.0193 -0.3350 -0.2385
94209W        W95073  11.547  19.132  11.608  0.2892 -0.0214 -0.0727
94210W        W95074  12.975  25.639   9.751 -0.1599  0.1789  0.0786
94211W        W95075  11.093  20.148  12.732  0.2035 -0.3049 -0.0158
94212W        W95076   8.104  19.207  13.447 -0.3211  0.0403 -0.2351
94213W        W95077   9.854  18.646  10.849  0.0444 -0.0414  0.1142
94214W        W95078  12.868  18.299  11.228 -0.0709 -0.0831  0.0874
94215W        W95079  12.206  18.320  13.713 -0.0582  0.1895 -0.2075
94216W        W95080  11.298  19.718  11.529  0.0117  0.0789  0.1578
94217W        W95081  15.788  20.846  13.317  0.3270 -0.4435 -0.1742
94218W        W95082  12.768  19.027  14.185 -0.1465  0.1541 -0.0860
94219W        W95083  13.698  21.111  14.520 -0.0196 -0.0628 -0.1800
94220W        W95084  13.047  20.400  14.261 -0.3080  0.0346 -0.1754
94221W        W95085  14.303  20.505  12.371 -0.4235  0.1138  0.1614
94222W        W95086  14.496  18.912  14.342  0.2630  0.2765 -0.1091
94223W        W95087   9.438  20.842  12.475  0.0246 -0.1579 -0.0456
94224W        W95088  11.658  19.750  13.878 -0.1069  0.3325 -0.4337
94225W        W95089  11.699  19.204  15.334 -0.3134 -0.2265  0.1668
94226W        W95090  14.463  21.704  12.142 -0.1062  0.1689  0.0031
94227W        W95091  14.980  22.305  10.125  0.1738 -0.1107 -0.1327
94228W        W95092  14.169  22.009  14.267  0.2218 -0.2151  0.0540
94229W        W95093  10.459  18.668   9.840  0.1361 -0.2229 -0.0241
94230W        W95094  15.755  20.308  13.378  0.1423 -0.0267 -0.0712
94231W        W95095  12.815  20.166  12.545 -0.1147  0.4462 -0.0539
94232W        W95096  10.965  18.641  10.720 -0.0506 -0.0327  0.1325
94233W        W95097  11.749  17.427  11.595 -0.0870 -0.2382  0.0665
94234W        W95098  12.838  21.265  11.593 -0.3397 -0.1354  0.2086
94235W        W95099  14.142  19.472  13.053  0.1057 -0.0153  0.0258
94236W        W95100  13.089  17.832  13.692  0.0610 -0.1150  0.0805
94237W        W95101  12.327  21.591  13.690 -0.2424 -0.0576  0.2252
94238W        W95102  12.563  21.155  13.756 -0.1080  0.2353 -0.0183
94239W        W95103  13.596  14.540  13.964 -0.2525  0.0594 -0.2535
94240W        W95104   9.654  18.478  15.596 -0.1998  0.1775  0.2065
94241W        W95105  10.864  19.920  15.114  0.1834  0.0286  0.1297
94242W        W95106  12.354  19.654  13.659 -0.1034  0.0220 -0.1488
94243W        W95107  15.362  20.670  14.535  0.1206  0.1169 -0.0211
94244W        W95108  12.056  23.018  11.734  0.0480  0.4502  0.1960
94245W        W95109  15.094  23.041  14.367  0.0196 -0.0331 -0.1149
94246W        W95110  12.629  19.729  12.338 -0.1044  0.1371  0.1218
94247W        W95111  13.845  18.291  14.850  0.1408  0.4151  0.6400
94248W        W95112  12.135  20.807  12.935  0.4101  0.1446  0.0583
94249W        W95113  10.039  18.696  13.376 -0.0986 -0.1370  0.1905
94250W        W95114  11.976  21.501  12.324  0.1206 -0.1853 -0.1524
94251W        W95115  13.634  20.341  10.625  0.4015 -0.0672 -0.2732
94252W        W95116  13.872  21.978  14.853 -0.1484  0.1388  0.0443
94253W        W95117  13.653  20.124  14.796 -0.0214 -0.1375 -0.0967
94254W        W95118  13.109  21.976  11.448 -0.3783  0.1046  0.0233
94255W        W95119  13.606  21.832  12.903 -0.1334 -0.0246  0.1334
94256W        W95120  15.551  19.934  13.676  0.1589  0.1572  0.0707
94257W        W95121  10.892  21.141  13.028 -0.0511 -0.3342  0.1790
94258W        W95122  13.546  21.636  14.650  0.1032  0.1459  0.3877
94259W        W95123  14.519  18.818  13.418 -0.2040  0.2631  0.0955
94260W        W95124  10.486  20.819  10.898  0.0903 -0.0078  0.4193
94261W        W95125  14.928  21.748  13.809  0.1521  0.4207 -0.1527
94262W        W95126  13.348  17.121  12.883  0.3088  0.0478 -0.2468
94263W        W95127  12.203  23.139  13.524  0.0045 -0.1719 -0.0143
94264W        W95128  14.577  17.484  12.221 -0.1875  0.1323 -0.3933
94265W        W95129  14.273  21.149  13.930 -0.2259 -0.0937  0.0776
94266W        W95130  13.204  20.175  15.611  0.1256  0.1887  0.3168
94267W        W95131  13.911  21.212  10.713 -0.0682  0.0628  0.1875
94268W        W95132  13.441  18.279  14.443  0.2586 -0.2199  0.0890
94269W        W95133  13.754  18.863  10.261  0.1243 -0.1562  0.0412
94270W        W95134  11.780  19.998  13.426 -0.2375  0.1086  0.0955
94271W        W95135   9.475  16.784  13.558 -0.2150  0.1512  0.0757
94272W        W95136  13.707  19.773  14.426  0.1742  0.2088 -0.2759
94273W        W95137  10.186  22.286  11.545 -0.3397 -0.1084  0.0909
94274W        W95138  11.618  20.965  11.268  0.0622 -0.3176  0.0241
94275W        W95139  13.156  21.849  16.407  0.0572  0.0546 -0.1258
94276W        W95140  14.422  21.153  12.026 -0.0854 -0.0508  0.1279
94277W        W95141  12.352  18.074  12.644 -0.1809 -0.2311  0.0103
94278W        W95142  11.802  20.173  12.155  0.0007 -0.2280 -0.0163
94279W        W95143   9.970  19.959  14.858 -0.0202 -0.1511 -0.1112
94280W        W95144  12.618  19.787  12.854  0.2168 -0.1431 -0.0358
94281W        W95145  13.331  18.519  11.685  0.0329 -0.0283 -0.1915
94282W        W95146  13.448  22.100  13.938 -0.2337 -0.0956 -0.0984
94283W        W95147  11.632  18.784  11.202 -0.1183 -0.3377  0.1422
94284W        W95148  12.042  19.224  11.399 -0.1369 -0.1272  0.0922
94285W        W95149  12.298  17.730  14.548 -0.2557 -0.3037 -0.0202
94286W        W95150  10.984  20.249  14.312 -0.2076 -0.3105 -0.1691
94287W        W95151  11.138  23.387  12.271  0.4480  0.3109 -0.2299
94288W        W95152  11.916  17.629  11.053  0.0886 -0.1894 -0.1720
94289W        W95153  11.553  19.531  13.429  0.0804  0.0889  0.0167
94290W        W95154  13.299  18.931  14.359 -0.0732 -0.1809  0.1961
94291W        W95155  11.928  16.951  13.197 -0.0179  0.0736 -0.0320
94292W        W95156  12.688  19.219  13.657 -0.1371 -0.1166  0.2783
94293W        W95157  14.062  20.881  15.688  0.1494 -0.0055 -0.0611
94294W        W95158  15.967  19.600  15.987  0.0179 -0.1926  0.0538
94295W        W95159  15.506  20.562  13.006 -0.1295 -0.0480  0.0684
94296W        W95160   9.875  18.750  14.427  0.3219 -0.2492  0.1942
94297W        W95161   7.739  22.126  13.781 -0.2385  0.3528  0.3126
94298W        W95162  10.533  18.734  15.225 -0.2516 -0.2998  0.3180
94299W        W95163  12.869  19.756   9.950  0.0479 -0.0064 -0.0520
94300W        W95164  11.259  20.850  12.301 -0.0161  0.0034  0.1208
94301W        W95165  13.533  17.788  11.955  0.1489 -0.2377  0.4430
94302W        W95166  11.580  21.880  12.426  0.1519  0.0204  0.0834
94303W        W95167  12.722  22.154  11.177 -0.0695  0.1268 -0.2786
94304W        W95168  10.870  19.411  12.475  0.3437 -0.0330 -0.1097
94305W        W95169  14.704  20.190  13.515 -0.2502  0.4188  0.0513
94306W        W95170  12.937  19.521  16.854  0.0202 -0.3564 -0.0222
94307W        W95171  11.509  21.316  10.964  0.0366  0.0540 -0.0319
94308W        W95172  11.866  19.085  10.923 -0.0030 -0.0723  0.1225
94309W        W95173  11.947  19.323  14.676  0.1909  0.2196  0.3508
94310W        W95174  13.344  19.963  11.533 -0.0015  0.1822  0.1079
94311W        W95175  16.165  24.468  12.174 -0.2430  0.0210 -0.5159
94312W        W95176  13.963  20.486  10.259  0.1210  0.2775  0.1088
94313W        W95177   9.639  18.735  13.629  0.2937 -0.2111  0.2317
94314W        W95178  12.289  20.057  12.455 -0.0239  0.4646  0.0564
94315W        W95179  14.842  23.622  17.629 -0.2137 -0.0348  0.5704
94316W        W95180  13.694  18.671   9.746  0.1234  0.1402  0.0811
94317W        W95181  10.711  15.091  12.631  0.2802 -0.1521 -0.1270
94318W        W95182  11.077  20.611  14.028 -0.1314  0.2011  0.1859
94319W        W95183  12.510  20.610  12.487 -0.0547  0.0126  0.2571
94320W        W95184  10.265  23.002  10.054  0.1127  0.3301 -0.3318
94321W        W95185  10.988  21.443  12.358 -0.1183 -0.2590  0.2664
94322W        W95186  11.261  19.549  16.734 -0.0363 -0.2181 -0.3300
94323W        W95187  13.608  19.590  13.030 -0.2521 -0.0520 -0.2577
94324W        W95188  11.115  20.692  12.950 -0.1550  0.0060  0.1369
94325W        W95189  13.273  19.042  12.923  0.0821 -0.0431  0.0094
94326W        W95190  12.645  17.563  12.208 -0.3456 -0.2609 -0.2884
94327W        W95191  12.890  20.153  13.233 -0.1899  0.4544  0.0706
94328W        W95192  12.066  19.478  14.152  0.3418  0.1964  0.2644
94329W        W95193  14.044  18.805  11.748  0.0495  0.1672  0.2745
94330W        W95194  10.325  17.115   9.810  0.1131 -0.0068 -0.0967
94331W        W95195  13.554  17.050  14.272  0.0128  0.0963  0.2801
94332W        W95196  18.259  20.397  13.184  0.0785 -0.2335 -0.0548
94333W        W95197  11.090  19.752  13.443  0.3445  0.1338 -0.1750
94334W        W95198  15.248  18.554  13.953  0.1072  0.1166  0.1558
94335W        W95199  10.414  18.580  10.720  0.0606 -0.1577  0.1692
94336W        W95200  11.700  20.173  15.699 -0.2325  0.2110  0.1958
94337W        W95201  14.413  18.924  11.459 -0.1572  0.1736  0.1729
94338W        W95202  13.853  20.950  11.153 -0.2067 -0.3479 -0.1327
94339W        W95203  11.071  21.028  11.055 -0.0553  0.2535 -0.0847
94340W        W95204  12.492  20.782  15.417 -0.2089  0.0969  0.0807
94341W        W95205  11.136  19.495  16.230  0.0959 -0.0557  0.0817
94342W        W95206  13.585  23.207  13.292 -0.1234 -0.1323 -0.1438
94343W        W95207  12.578  15.625  15.092 -0.3631 -0.0990 -0.0331
94344W        W95208  16.032  20.811  14.719 -0.0932  0.0761 -0.0432
94345W        W95209  13.741  22.177  10.825 -0.1053 -0.2361 -0.0536
94346W        W95210  13.107  20.445   8.840  0.3519  0.3539 -0.0298
94347W        W95211  14.466  22.627   9.459  0.0033 -0.6081 -0.2102
94348W        W95212  13.110  18.959  11.956 -0.0948  0.2703  0.2983
94349W        W95213  11.235  21.190  17.148  0.0153 -0.1492 -0.1948
94350W        W95214  19.118  16.935  13.176  0.0285 -0.3441 -0.2077
94351W        W95215  12.481  17.069  13.966 -0.2066 -0.0686  0.5175
94352W        W95216  13.295  20.845  14.542 -0.0139 -0.0334  0.0304
94353W        W95217  11.108  18.812  12.746  0.0035 -0.2620  0.2819
94354W        W95218  14.098  22.013  12.143  0.2067  0.1782 -0.1628
94355W        W95219  12.046  21.048  15.206 -0.0149 -0.1309  0.0959
94356W        W95220  13.012  20.872  13.338 -0.2073  0.2439 -0.3487
94357W        W95221  14.932  20.485  14.252  0.0718  0.0415 -0.0095
94358W        W95222  15.974  21.441  15.278  0.1747  0.0385  0.2384
94359W        W95223  11.750  20.208  14.753  0.0906  0.1217  0.0510
94360W        W95224  10.388  19.033  13.328 -0.0516 -0.2011 -0.0237
94361W        W95225  12.387  20.964  14.337 -0.3468  0.1052 -0.2923
94362W        W95226  10.512  20.046  12.146 -0.2690  0.0137 -0.1462
94363W        W95227  12.508  21.014  13.195  0.2973  0.0333  0.3427
94364W        W95228  11.180  20.108  15.552 -0.2010 -0.1370  0.1054
94365W        W95229  12.941  20.477  11.853 -0.0273  0.0595  0.0651
94366W        W95230  15.300  19.513  12.179  0.0025  0.1356  0.0467
94367W        W95231  10.550  18.017  12.784 -0.0298 -0.0717  0.1022
94368W        W95232  13.127  19.437  14.409 -0.0488  0.0307 -0.2369
94369W        W95233  13.474  20.476  12.033 -0.2822  0.0268 -0.1128
94370W        W95234  14.400  19.327  11.125 -0.0739 -0.0234  0.0303
94371W        W95235  11.396  21.037  13.875  0.0491 -0.3599 -0.0245
94372W        W95236  11.349  19.181  12.551  0.2794 -0.1256 -0.2882
94373W        W95237  14.014  18.446  13.135 -0.0784 -0.1852  0.1521
94374W        W95238  13.024  19.450  12.795 -0.2245 -0.0610  0.3291
94375W        W95239  12.947  21.536  11.987 -0.2483  0.3345 -0.2621
94376W        W95240  15.199  24.214  10.070 -0.0951  0.3106 -0.1429
94377W        W95241   8.721  22.363  14.794  0.0642  0.0871 -0.0299
94378W        W95242  15.175  23.664  13.494  0.0182  0.1559 -0.0509
94379W        W95243  13.514  18.681  13.237  0.1259  0.0545 -0.3408
94380W        W95244   9.643  17.872  14.981  0.0015 -0.0717  0.2616
94381W        W95245  12.219  20.224  16.594 -0.4697 -0.3026  0.1926
94382W        W95246  13.291  22.910  13.680  0.1263  0.0761 -0.1169
94383W        W95247  13.577  20.285  14.342  0.0134  0.0996  0.0942
94384W        W95248  14.349  19.673  12.639 -0.2655 -0.2421 -0.1581
94385W        W95249  16.079  22.158  11.146 -0.0509  0.0604 -0.2460
94386W        W95250  13.107  19.531  11.795  0.3945  0.1460 -0.0094
94387W        W95251  11.004  20.610  14.680 -0.0222 -0.2503  0.1243
94388W        W95252  13.471  20.734  10.930 -0.1719  0.1855 -0.1694
94389W        W95253  13.998  20.402  11.952 -0.1811  0.1459 -0.0916
94390W        W95254  13.142  19.760  12.370 -0.1102  0.1681  0.0654
94391W        W95255  11.346  21.640  15.702  0.0077  0.0347  0.1386
94392W        W95256  14.478  22.916  16.691  0.2868 -0.2454 -0.0355
94393W        W95257  11.570  21.895  12.946 -0.2712  0.3440  0.1638
94394W        W95258  11.753  22.773  12.077 -0.0344  0.1395 -0.0497
94395W        W95259  10.080  19.491  14.585 -0.0675  0.0353  0.1772
94396W        W95260   8.468  19.762  12.244  0.1686 -0.0889  0.1935
94397W        W95261  14.273  19.741  11.768 -0.0632  0.0977 -0.0813
94398W        W95262  11.166  22.717  14.010 -0.2578 -0.0410 -0.1634
94399W        W95263  13.260  20.471  11.479  0.3702  0.2571 -0.1275
94400W        W95264  13.449  20.005  13.359  0.2905 -0.2278 -0.1645
94401W        W95265  13.660  20.085  15.878 -0.1113 -0.3198 -0.1379
94402W        W95266  12.330  16.853  15.818 -0.2752  0.0043 -0.0131
94403W        W95267  11.365  20.521  11.266  0.0845 -0.0724 -0.2056
94404W        W95268  15.034  18.055  11.862  0.3527  0.3352  0.0670
94405W        W95269  11.961  16.556  12.393 -0.2415  0.3421  0.1945
94406W        W95270  10.441  17.094  13.026 -0.1277  0.0364  0.2835
94407W        W95271   9.830  20.408  14.537 -0.0433  0.1360  0.3246
94408W        W95272  12.160  20.469  12.093 -0.2645 -0.1631 -0.1445
94409W        W95273  11.098  23.325  10.319 -0.2116 -0.2326  0.1712
94410W        W95274  12.853  20.630  13.727  0.1354  0.0016  0.0318
94411W        W95275  14.899  18.529   9.758 -0.0040  0.1454  0.0010
94412W        W95276  11.105  16.504  12.898  0.4355  0.0418 -0.0821
94413W        W95277  12.308  18.249  14.646 -0.1631  0.0163 -0.0114
94414W        W95278  14.968  21.768  12.087  0.1670 -0.0158  0.1907
94415W        W95279  11.391  16.939  14.063  0.3438  0.0590 -0.0412
94416W        W95280  13.604  18.319  13.883 -0.1230 -0.1371 -0.0385
94417W        W95281  12.331  20.663  13.780  0.0865 -0.4245  0.1484
94418W        W95282  12.959  19.210  10.964  0.1324 -0.0338 -0.0148
94419W        W95283  15.635  20.890  12.242 -0.3893  0.2932  0.2711
94420W        W95284  10.618  19.541  15.249 -0.1012  0.0589 -0.1811
94421W        W95285  13.153  20.149  13.745 -0.0767 -0.1289 -0.2578
94422W        W95286  14.887  19.383  12.568 -0.0070 -0.1788  0.0565
94423W        W95287   7.676  20.916  11.593  0.0145  0.0430  0.1601
94424W        W95288  13.261  21.307  14.404 -0.1769  0.1857  0.1304
94425W        W95289  15.150  18.726  13.436  0.2342  0.0986 -0.2817
94426W        W95290  14.569  17.378  13.672  0.0283 -0.1442  0.0248
94427W        W95291  15.377  21.719  13.599 -0.0320  0.0583 -0.2651
94428W        W95292  13.051  17.918  12.833 -0.0086 -0.1263  0.1976
94429W        W95293  11.702  22.570  11.239 -0.0165 -0.1388  0.0961
94430W        W95294  12.278  21.216  12.673  0.1037 -0.1967 -0.0449
94431W        W95295  10.760  18.494  16.140 -0.2206 -0.2356 -0.1526
94432W        W95296  11.630  19.782  17.725 -0.1094  0.0052 -0.0866
94433W        W95297  15.582  20.017  12.999  0.3120  0.0230 -0.1179
94434W        W95298  13.305  22.419  10.552  0.0584  0.0160  0.0171
94435W        W95299  13.965  23.859  14.132  0.4874  0.0095 -0.5317
94436W        W95300  11.824  21.411  13.845  0.1128 -0.0078  0.0170
94437W        W95301  13.537  17.120  10.656  0.1516 -0.1638 -0.2329
94438W        W95302  16.036  18.915  13.210 -0.0047 -0.1822  0.2533
94439W        W95303  12.499  21.583  12.968  0.1186 -0.1049 -0.2008
94440W        W95304  11.398  19.310  14.515 -0.0856 -0.0470 -0.3552
94441W        W95305  11.874  21.677  16.315 -0.1547  0.1904 -0.1550
94442W        W95306  12.767  21.175  12.287  0.2282 -0.1403  0.2708
94443W        W95307  14.542  21.452  13.559 -0.1037 -0.0151 -0.0500
94444W        W95308   9.294  20.694  12.950 -0.0163 -0.0662 -0.1859
94445W        W95309  12.793  20.670  14.586 -0.1216  0.2207  0.0142
94446W        W95310  11.040  17.770  10.540 -0.1924  0.0853 -0.0570
94447W        W95311  12.169  18.024  14.145 -0.2499  0.1001  0.1560
94448W        W95312  12.793  22.585  17.187 -0.2538 -0.1670  0.0718
94449W        W95313  11.761  18.538  13.147  0.2183 -0.0969  0.0248
94450W        W95314  12.190  19.612  12.632  0.0154 -0.0260 -0.0925
94451W        W95315  13.424  21.288  10.408  0.3360  0.2793  0.0403
94452W        W95316   9.048  20.743  13.379  0.0391 -0.2411 -0.1574
94453W        W95317  14.963  20.289  11.769  0.1342  0.3215  0.1054
94454W        W95318  13.223  19.974  12.919 -0.4440  0.1239  0.0074
94455W        W95319  12.231  19.845  16.922  0.2532  0.2492 -0.1632
94456W        W95320  13.289  16.517  12.646 -0.0636 -0.2413  0.2830
94457W        W95321  13.232  18.985  15.270 -0.2795 -0.1708  0.1442
94458W        W95322  11.733  19.894   9.294 -0.1232  0.1093 -0.0782
94459W        W95323  11.455  19.871  13.057 -0.1537  0.0216 -0.1119
94460W        W95324  12.118  19.509  13.122 -0.2257 -0.0414 -0.2154
94461W        W95325  12.372  20.978  11.446 -0.0611 -0.1197  0.2367
94462W        W95326  14.364  19.642  15.603  0.0573  0.1041 -0.0919
94463W        W95327  13.119  21.800  14.381  0.0492 -0.1232 -0.2318
94464W        W95328  14.454  19.183  12.469 -0.0723 -0.1834  0.0221
94465W        W95329  14.371  22.756  14.989  0.0496  0.2429  0.1396
94466W        W95330  10.748  22.470  14.216  0.0076  0.0585  0.1080
94467W        W95331  14.478  20.842  13.070 -0.1264  0.0019 -0.2620
94468W        W95332  14.606  20.080  12.074  0.1000  0.0528  0.2009
94469W        W95333  13.000  20.600  11.034  0.4180  0.0619 -0.0745
94470W        W95334  10.583  21.693  12.122 -0.2117  0.0383  0.3438
94471W        W95335  12.557  19.905  15.087  0.0277 -0.1809  0.1732
94472W        W95336  11.109  19.242  13.580 -0.1577 -0.0201 -0.3907
94473W        W95337  11.963  22.147  10.703 -0.2770  0.0099  0.1145
94474W        W95338  13.411  20.786  14.067 -0.5217  0.0837  0.1516
94475W        W95339  11.741  23.722  17.915  0.0411 -0.1020  0.1438
94476W        W95340  11.657  18.762  12.615 -0.0201 -0.3922 -0.2386
94477W        W95341  10.854  20.353  11.996 -0.0432  0.0508  0.0765
94478W        W95342  11.389  22.142  13.515  0.1051 -0.0395 -0.3483
94479W        W95343  10.482  19.426  12.131 -0.3146  0.1708  0.1175
94480W        W95344  13.564  19.302  11.862  0.2314  0.1240 -0.3536
94481W        W95345  13.548  20.405  13.800  0.2812 -0.1058  0.1421
94482W        W95346  11.806  22.133  11.916  0.4600  0.0529  0.0775
94483W        W95347  13.829  21.410  11.314 -0.0090 -0.1466  0.2290
94484W        W95348  11.102  17.788  11.657  0.2072 -0.3724  0.3195
94485W        W95349  13.659  22.591  11.394  0.2022 -0.1371 -0.4238
94486W        W95350  13.559  20.328  12.884 -0.0939  0.1983  0.1026
94487W        W95351  12.932  18.380  14.518 -0.1157 -0.1152  0.3067
94488W        W95352  11.882  19.211  12.394 -0.0779  0.0809 -0.0127
94489W        W95353  14.453  17.716   9.645  0.2047 -0.0481 -0.4038
94490W        W95354  15.768  17.454  16.117 -0.0170 -0.2351  0.3267
94491W        W95355  11.915  20.117  14.221  0.4983  0.1656 -0.1754
94492W        W95356  12.671  18.760   8.580  0.2332  0.1608  0.2326
94493W        W95357  12.347  21.973  12.029  0.1181 -0.3303  0.1342
94494W        W95358  13.063  23.817  13.622 -0.2479 -0.2584  0.0593
94495W        W95359  11.637  18.941  12.073 -0.1593 -0.0527 -0.2945
94496W        W95360  12.594  20.184  13.735  0.1444 -0.0402 -0.0636
94497W        W95361   9.880  17.906  12.441 -0.1057  0.0923  0.0653
94498W        W95362  16.718  19.308  14.910 -0.1884  0.1246  0.0051
94499W        W95363  12.253  20.526   8.939 -0.0104 -0.4297  0.1638
94500W        W95364  16.128  20.784  11.527 -0.0334  0.0275 -0.3919
94501W        W95365  12.590  18.125  10.784 -0.2493 -0.0426  0.1190
94502W        W95366  14.240  22.926  14.021 -0.1608 -0.0547  0.0340
94503W        W95367  13.439  22.721  10.917 -0.3760  0.2494  0.0783
94504W        W95368  13.744  18.023  13.513  0.2785  0.1551  0.2316
94505W        W95369  10.324  21.552  14.074 -0.0121 -0.1646  0.0093
94506W        W95370  17.197  20.713  13.873  0.0313 -0.2633  0.1194
94507W        W95371  15.604  21.731  14.508  0.0207 -0.1583 -0.3513
94508W        W95372   8.968  19.747  16.957 -0.1351  0.0475  0.0331
94509W        W95373  14.348  21.086  12.489 -0.1837 -0.0120  0.1629
94510W        W95374  10.677  19.962  13.563 -0.0508 -0.0052  0.1922
94511W        W95375   9.660  19.551  14.093  0.1657 -0.0867  0.2608
94512W        W95376  14.444  19.725  13.439 -0.1283 -0.0942 -0.0334
94513W        W95377  11.322  20.346  12.268  0.3477 -0.0039  0.0305
94514W        W95378   9.009  19.144  13.968  0.0472 -0.0728  0.0585
94515W        W95379  14.906  22.203  11.623  0.0466  0.2771  0.1558
94516W        W95380  12.768  21.233  14.599 -0.0100 -0.1759  0.1249
94517W        W95381  12.107  20.209  13.784  0.3480  0.0005 -0.1188
94518W        W95382  14.955  20.523  13.753  0.1018  0.2419 -0.1408
94519W        W95383  13.464  21.344  12.746  0.1255  0.0819 -0.1913
94520W        W95384  10.330  22.713  11.839 -0.0741 -0.2538  0.0323
94521W        W95385  12.220  20.965  12.217  0.1424  0.2988  0.0516
94522W        W95386  14.486  21.346  14.932  0.1273 -0.0711 -0.0337
94523W        W95387  12.448  19.123  15.570  0.0920  0.2435 -0.1252
94524W        W95388  11.561  20.141  18.148  0.0134 -0.3088 -0.0287
94525W        W95389  11.465  19.850  10.299  0.0987 -0.1842  0.0296
94526W        W95390  11.756  22.617  12.654  0.0162 -0.1636  0.0954
94527W        W95391  11.036  19.935  12.323 -0.1019  0.1020 -0.2035
94528W        W95392  13.933  19.782   8.910 -0.2975 -0.1270 -0.4246
94529W        W95393  13.527  20.656  17.684  0.1944  0.0838  0.0127
94530W        W95394  10.722  20.350  18.911  0.1280 -0.1536 -0.0885
94531W        W95395  16.384  19.363  16.302  0.2536  0.0200  0.0246
94532W        W95396  13.084  19.035  16.626  0.3093  0.1103 -0.0657
94533W        W95397  12.022  22.777  17.158 -0.0050 -0.1536 -0.0246
94534W        W95398  13.364  22.336  15.552  0.2658 -0.2708 -0.0603
94535W        W95399  11.857  18.892  13.900 -0.1130 -0.4432 -0.0063
94536W        W95400  16.351  20.831  13.239 -0.3063 -0.1470  0.1840
94537W        W95401  12.043  21.819  16.796 -0.0896  0.0159 -0.4064
94538W        W95402  13.292  20.082  16.259  0.1161 -0.0294  0.1048
94539W        W95403  11.948  18.423  18.906 -0.1624  0.1398 -0.1970
94540W        W95404  13.979  18.995  17.769  0.1686 -0.0014 -0.0218
94541W        W95405  13.168  19.598  13.270  0.0193  0.0277  0.0608
94542W        W95406  12.306  20.981  16.412 -0.0700 -0.0862  0.2280
94543W        W95407  10.869  19.074  15.480 -0.1622 -0.0779 -0.1992
94544W        W95408  11.901  21.616  19.508  0.2172 -0.0018  0.1665
94545W        W95409  15.215  22.816  17.293 -0.0939  0.0997 -0.1483
94546W        W95410   7.983  18.824  17.526 -0.1985 -0.2069  0.3107
94547W        W95411  11.575  17.971  17.434  0.2367  0.0169 -0.1415
94548W        W95412  12.841  18.836  15.805 -0.2632  0.0534  0.0918
94549W        W95413  12.911  18.538  16.420  0.0289  0.1631 -0.4204
94550W        W95414  10.247  19.281  17.422  0.0262  0.0967  0.2711
94551W        W95415  13.008  20.622  15.482  0.2688 -0.0884  0.0449
94552W        W95416  13.028  21.374  17.000 -0.0836  0.1561  0.0895
94553W        W95417  13.273  19.448  17.253 -0.1672  0.0094 -0.1270
94554W        W95418   9.114  18.690  17.287  0.0303 -0.0474  0.1364
94555W        W95419  13.643  19.883  20.739  0.1132  0.0716  0.1878
94556W        W95420  14.674  22.653  16.154 -0.0498  0.2711  0.0656
94557W        W95421  15.141  22.186  15.135 -0.2754 -0.0092 -0.0453
94558W        W95422  11.034  18.395  18.189  0.1599 -0.2247 -0.0442
94559W        W95423  15.150  21.633  15.995 -0.0301  0.0984 -0.1366
94560W        W95424  12.785  21.167  19.414  0.0865  0.0198  0.0449
94561W        W95425  12.452  19.445  16.520  0.1013 -0.0506  0.2662
94562W        W95426  11.940  22.452  19.292 -0.0586  0.1568  0.2217
94563W        W95427  11.394  19.722  18.538 -0.1606  0.0813  0.0470
94564W        W95428  14.077  21.594  20.744 -0.1345 -0.3943  0.3223
94565W        W95429  11.535  17.624  12.663 -0.0717 -0.4222 -0.0389
94566W        W95430  14.214  19.875  18.711 -0.0251 -0.1805  0.0725
94567W        W95431  15.304  22.073  17.827 -0.0132  0.0001  0.2016
94568W        W95432  11.869  18.029  15.456  0.1298 -0.0671 -0.3231
94569W        W95433  14.558  20.113  14.298 -0.0476 -0.2667 -0.1268
94570W        W95434  12.535  20.023  18.813  0.0478 -0.2064 -0.0672
94571W        W95435  11.370  20.227  18.628  0.0361 -0.0493  0.0169
94572W        W95436  13.927  23.384  14.130 -0.2083 -0.0215 -0.0751
94573W        W95437  10.787  23.193  11.908 -0.0363 -0.1595  0.1759
94574W        W95438  11.177  22.628  17.545  0.1505  0.2195 -0.1726
94575W        W95439  13.976  21.412  17.467  0.1629  0.4209  0.2948
94576W        W95440  12.470  19.374  17.052  0.1008 -0.3375  0.0325
94577W        W95441  13.410  18.303  16.418 -0.1306  0.0469  0.0415
94578W        W95442  12.370  22.119  16.614  0.0644 -0.1312  0.4156
94579W        W95443  12.568  20.439  14.184 -0.0099  0.0613  0.1894
94580W        W95444  13.527  17.351  17.405 -0.1184  0.0715  0.1324
94581W        W95445  13.824  20.750  16.595  0.1260  0.2648 -0.5636
94582W        W95446  16.199  24.701  17.987  0.1192  0.0746  0.2548
94583W        W95447  11.362  16.288  16.093 -0.1762 -0.1031 -0.1720
94584W        W95448  11.454  21.589  14.735  0.2875  0.0660 -0.1328
94585W        W95449  13.034  22.232  16.054  0.0829  0.2958  0.0447
94586W        W95450  15.175  21.239  13.581 -0.0190  0.0776 -0.2434
94587W        W95451  12.348  19.917  14.214 -0.1738 -0.0318  0.0113
94588W        W95452  13.995  21.741  13.242  0.1059  0.1167  0.1606
94589W        W95453  13.562  19.623  14.905  0.2869  0.5447 -0.1187
94590W        W95454  10.675  23.882  17.173 -0.0993 -0.2144 -0.0543
94591W        W95455  12.184  19.618  20.934 -0.0125 -0.0040 -0.0090
94592W        W95456  11.144  18.865  15.010  0.1737 -0.0158 -0.0313
94593W        W95457  12.619  21.143  17.246 -0.0737  0.1163  0.4346
94594W        W95458  13.425  16.438  15.343  0.3299 -0.4056 -0.1183
94595W        W95459  10.656  18.536  17.655  0.2706 -0.0460  0.1239
94596W        W95460  12.834  19.700  15.433 -0.3035 -0.0182  0.2635
94597W        W95461  10.255  18.773  16.272  0.4080 -0.0631  0.0523
94598W        W95462  15.526  19.500  15.758 -0.2209  0.0178 -0.0420
94599W        W95463  14.392  20.197  17.302  0.0885  0.2160 -0.1872
94600W        W95464  13.150  20.034  15.074  0.0160  0.0871 -0.1784
94601W        W95465  14.658  19.928  16.902  0.0256  0.1818  0.3687
94602W        W95466  12.583  18.174  16.606  0.0201 -0.2599 -0.0482
94603W        W95467  13.775  19.423  15.410  0.0830  0.1998 -0.2087
94604W        W95468  12.440  22.817  17.501  0.0182 -0.0540 -0.0397
94605W        W95469   7.901  18.103  16.213  0.1905  0.1692  0.3839
94606W        W95470  13.924  20.777  20.461  0.3531 -0.1380 -0.2019
94607W        W95471  11.556  18.060  14.974  0.3744 -0.1351  0.2486
94608W        W95472  13.083  18.368  15.957  0.0482 -0.3846 -0.0473
94609W        W95473  12.980  18.602  19.396  0.0370 -0.0038 -0.3262
94610W        W95474   9.027  18.247  18.579 -0.1354  0.1237 -0.1004
94611W        W95475   8.978  18.508  14.896  0.1590 -0.1732 -0.2456
94612W        W95476  12.563  17.052  19.103  0.0215 -0.0374  0.1029
94613W        W95477  11.038  15.751  20.106 -0.3437 -0.0864 -0.0828
94614W        W95478  12.895  16.660  17.244  0.5100  0.0834 -0.0105
94615W        W95479  11.586  21.107  21.990 -0.1605 -0.0251  0.2708
94616W        W95480  14.911  19.246  17.166 -0.1476 -0.2902  0.0215
94617W        W95481  11.856  20.473  17.514 -0.0893 -0.0447  0.1032
94618W        W95482  13.920  17.665  17.412  0.2464  0.2904  0.0725
94619W        W95483  13.199  16.472  14.929 -0.0605  0.3340  0.4241
94620W        W95484  12.168  19.800  17.519 -0.2075  0.1407  0.3468
94621W        W95485   9.890  21.253  18.389 -0.2171 -0.0734 -0.0986
94622W        W95486  13.742  20.598  14.706 -0.1203 -0.2260 -0.1956
94623W        W95487  12.615  18.024  17.614 -0.1129  0.0931 -0.1207
94624W        W95488  13.005  17.875  15.903  0.1642 -0.1985 -0.1756
94625W        W95489  13.095  18.021  14.109 -0.1230 -0.1410 -0.1470
94626W        W95490  11.918  23.215  17.968 -0.1392  0.1603  0.2112
94627W        W95491  10.410  16.758  15.469  0.1011  0.0680  0.1214
94628W        W95492  14.618  17.102  14.825 -0.1006  0.0537  0.3619
94629W        W95493  13.696  22.556  13.630  0.0926  0.1815 -0.3751
94630W        W95494  11.848  20.120  16.199 -0.2459  0.0178 -0.0635
94631W        W95495  12.486  18.680  13.480  0.3111 -0.2942  0.1837
94632W        W95496  15.274  21.248  14.592 -0.0553  0.1007 -0.1668
94633W        W95497  13.077  18.150  17.388  0.1226 -0.1113  0.2442
94634W        W95498  14.490  19.751  18.005 -0.1557 -0.0450  0.0040
94635W        W95499  15.157  21.806  15.542  0.1795  0.1311 -0.1389
94636W        W95500  11.946  22.740  17.698  0.4433 -0.1568  0.0665
94637W        W95501  11.774  16.682  16.098  0.2982  0.1025 -0.0395
94638W        W95502  12.095  21.752  15.773  0.0256 -0.1675 -0.3187
94639W        W95503  10.725  21.057  18.101  0.0536 -0.1262 -0.0684
94640W        W95504  12.540  22.389  16.068 -0.0091  0.0462  0.1646
94641W        W95505  15.755  18.059  16.976  0.0300 -0.1829 -0.1891
94642W        W95506  12.266  20.532  18.886  0.0009  0.0600  0.1564
94643W        W95507  15.100  20.382  15.141 -0.0726  0.0014 -0.0387
94644W        W95508  15.665  20.832  16.208 -0.0450  0.1152  0.0325
94645W        W95509  12.757  17.600  16.846  0.2978 -0.0519 -0.3119
94646W        W95510  14.475  20.255  16.025  0.4567  0.3646  0.1007
94647W        W95511  12.625  20.240  16.237  0.0381 -0.1316  0.0906
94648W        W95512  14.096  19.279  15.781  0.1793 -0.0213 -0.0072
94649W        W95513  15.464  19.082  14.869  0.1742  0.0694  0.4441
94650W        W95514  13.548  20.899  13.515  0.0236 -0.3100  0.1424
94651W        W95515  13.606  16.716  16.163 -0.1291  0.1738 -0.1991
94652W        W95516  12.604  21.766  11.651  0.1494 -0.0525  0.1120
94653W        W95517  13.189  19.684  15.989  0.0950 -0.1075 -0.0071
94654W        W95518  15.919  19.273  16.454  0.1267  0.0342 -0.1051
94655W        W95519   9.202  18.605  18.269  0.1032  0.0299 -0.0573
94656W        W95520  13.285  19.257  15.703  0.3875  0.0508 -0.1539
94657W        W95521  17.741  21.050  17.114 -0.1761  0.2124  0.1686
94658W        W95522  13.348  19.399  18.241 -0.2357  0.1569  0.0046
94659W        W95523  12.950  22.134  16.836  0.0606  0.0447 -0.1280
94660W        W95524  15.654  16.718  19.336  0.0054 -0.0312  0.0463
94661W        W95525  13.265  22.307  12.982 -0.1441  0.0588  0.0824
94662W        W95526  14.120  18.056  15.312 -0.0703 -0.2009 -0.0050
94663W        W95527  15.891  21.977  19.131 -0.0753 -0.1557 -0.1447
94664W        W95528  12.177  20.135  17.936  0.2482  0.0527  0.1405
94665W        W95529  11.450  15.762  16.427 -0.0506  0.4401  0.1359
94666W        W95530  15.524  21.761  17.250 -0.0726 -0.4173 -0.1545
94667W        W95531  14.446  23.038  15.806  0.3486  0.2914 -0.0416
94668W        W95532  12.761  22.466  16.516  0.0961 -0.1800 -0.0305
94669W        W95533  11.522  20.602  12.682 -0.3481 -0.1171 -0.1681
94670W        W95534  11.158  15.957  17.523 -0.0737 -0.5104  0.3029
94671W        W95535  10.055  20.107  15.683  0.5380 -0.1760 -0.0197
94672W        W95536   8.302  19.162  14.773  0.0588 -0.4141 -0.3031
94673W        W95537  12.600  20.898  18.611  0.0082  0.0786  0.2832
94674W        W95538  12.883  18.927  18.042  0.0389 -0.1472 -0.0752
94675W        W95539  12.627  16.684  16.159 -0.2716  0.3818 -0.1181
94676W        W95540  13.568  22.106  14.474  0.1851  0.2283  0.1663
94677W        W95541  12.652  20.284  17.994  0.0559  0.0354  0.1321
94678W        W95542  12.996  22.672  15.814  0.1158 -0.0883  0.1191
94679W        W95543  11.777  19.904  19.456 -0.0365 -0.4119 -0.0512
94680W        W95544  13.665  17.794  14.732 -0.1865  0.2415 -0.1361
94681W        W95545  12.708  21.701  16.799 -0.1660 -0.0983 -0.0054
94682W        W95546  11.948  20.955  13.606 -0.2635  0.1590 -0.2091
94683W        W95547  13.244  22.340  17.246  0.0405  0.4093 -0.0466
94684W        W95548  15.434  19.794  14.213  0.1660 -0.1286 -0.3286
94685W        W95549  13.250  20.376  18.053 -0.1285  0.0741  0.0345
94686W        W95550  10.869  21.922  13.536  0.0160  0.1968 -0.2559
94687W        W95551  14.219  15.763  12.689 -0.3634 -0.1663 -0.0623
94688W        W95552  17.034  21.166  14.229 -0.2187  0.2172 -0.1688
94689W        W95553  12.273  17.732  18.320 -0.0695  0.3030 -0.0468
94690W        W95554  13.758  22.906  18.197  0.1080  0.0394 -0.0960
94691W        W95555  14.136  18.050  17.868  0.0450  0.1439 -0.0583
94692W        W95556  15.434  16.447  20.264  0.1033  0.2189 -0.2842
94693W        W95557  11.835  15.712  19.414 -0.3208  0.1610  0.0145
94694W        W95558   7.436  18.506  16.197  0.1237 -0.0331  0.2577
94695W        W95559  12.397  19.617  15.556  0.1247  0.1371 -0.3090
94696W        W95560  12.252  21.433  16.991  0.0740 -0.1771  0.0396
94697W        W95561  12.343  21.704  18.617  0.0192  0.0477 -0.0276
94698W        W95562  12.654  22.328  14.878 -0.1309 -0.3607  0.2741
94699W        W95563  13.169  22.765  16.318 -0.0638 -0.1202 -0.1468
94700W        W95564  14.954  21.046  16.115 -0.1335  0.0534  0.1090
94701W        W95565  13.450  20.644  15.729  0.2503 -0.1342  0.0153
94702W        W95566  15.132  22.045  17.001  0.4551 -0.2016  0.1720
94703W        W95567  14.330  18.089  18.833  0.1858 -0.1628 -0.3071
94704W        W95568  14.019  20.835  17.745 -0.0231  0.0343 -0.0973
94705W        W95569  13.233  21.328  19.794  0.1998 -0.2562  0.1654
94706W        W95570  11.284  24.612  14.509  0.0559 -0.0877 -0.1885
94707W        W95571  11.540  23.153  14.274  0.2419 -0.1779  0.0437
94708W        W95572  12.116  21.068  17.943  0.2498  0.0841  0.0805
94709W        W95573  12.746  20.652  17.147 -0.0264  0.3319 -0.0065
94710W        W95574  14.517  21.077  18.331  0.2114  0.0304 -0.0495
94711W        W95575  13.932  19.044  12.197  0.3234  0.2146 -0.1830
94712W        W95576  12.858  19.959  14.154 -0.0709 -0.2915  0.0273
94713W        W95577  11.428  20.699  14.919 -0.0118  0.0371 -0.1898
94714W        W95578  15.000  19.460  17.603 -0.1597 -0.0163  0.2781
94715W        W95579  12.170  18.129  16.350 -0.0389  0.0726 -0.0497
94716W        W95580  10.710  19.343  17.320 -0.3803  0.0485 -0.1911
94717W        W95581  13.225  18.726  17.473  0.0934  0.0946  0.0506
94718W        W95582  12.288  21.338  15.527 -0.1138 -0.3901  0.0338
94719W        W95583  13.117  21.258  13.765  0.1207 -0.2481  0.0009
94720W        W95584  11.447  23.052  17.941 -0.1124  0.1165  0.0747
94721W        W95585  11.060  18.795  17.000  0.0649  0.1637 -0.3111
94722W        W95586   9.682  17.394  20.125 -0.0010  0.1365  0.2988
94723W        W95587  13.617  18.981  18.641  0.0993 -0.1118 -0.2298
94724W        W95588  11.445  19.354  15.744 -0.1435 -0.0279 -0.1469
94725W        W95589  16.009  18.993  13.727  0.1126  0.1108 -0.1559
94726W        W95590  10.165  20.875  15.919  0.1773  0.2388 -0.0720
94727W        W95591  11.524  19.651  14.861 -0.1445 -0.1175 -0.0888
94728W        W95592  11.858  18.744  16.289 -0.0777  0.3003  0.1640
94729W        W95593  11.024  18.286  16.698 -0.1652  0.1138 -0.0339
94730W        W95594  16.304  18.024  16.794 -0.1882 -0.2478  0.1035
94731W        W95595  13.959  18.769  14.687 -0.3906 -0.2629  0.3633
94732W        W95596  12.599  17.687  16.248  0.2317 -0.1105  0.0623
94733W        W95597  12.060  16.790  18.704 -0.1385  0.1829  0.0503
94734W        W95598   9.801  20.376  15.201 -0.2732 -0.0201  0.1530
94735W        W95599  10.939  20.078  18.367  0.2394  0.1477 -0.0610
94736W        W95600  11.993  19.572  17.955 -0.2837  0.2176 -0.1285
94737W        W95601   9.987  21.159  14.166  0.1920  0.1037  0.1849
94738W        W95602  10.387  23.162  16.854 -0.0186  0.0453  0.2364
94739W        W95603  12.413  21.985  17.665  0.1485  0.2764  0.0537
94740W        W95604  10.633  19.634  18.268 -0.0974  0.3123  0.0658
94741W        W95605  13.712  18.167  18.084 -0.0573  0.0959 -0.1799
94742W        W95606  14.525  17.144  16.735  0.0908 -0.1957 -0.2312
94743W        W95607  14.171  17.921  18.373 -0.1944 -0.2454  0.2065
94744W        W95608  12.510  20.446  11.664  0.3640  0.1160  0.0321
94745W        W95609  17.389  21.745  17.485  0.2165  0.0229 -0.0403
94746W        W95610  14.718  21.571  18.529  0.0816  0.4023 -0.0748
94747W        W95611  11.884  19.108  18.924 -0.1813 -0.0477 -0.2553
94748W        W95612  10.667  22.668  17.947  0.0606 -0.2077 -0.1188
94749W        W95613  11.992  19.324  17.210 -0.5140  0.0114  0.0914
94750W        W95614  14.184  16.925  17.089 -0.2557 -0.1512  0.1180
94751W        W95615  13.317  22.244  17.783 -0.1188  0.3092 -0.1517
94752W        W95616  14.023  19.953  15.396  0.1437  0.0021 -0.1670
94753W        W95617  15.021  22.552  14.331  0.3618 -0.1910  0.2550
94754W        W95618  11.499  18.930  18.386 -0.2000 -0.1919 -0.3127
94755W        W95619  11.633  21.337  17.736 -0.1461  0.0896 -0.0774
94756W        W95620  16.138  19.243  18.551 -0.0708  0.0623 -0.0805
94757W        W95621  13.749  22.688  15.414 -0.1022 -0.2082 -0.0165
94758W        W95622  15.013  20.312  15.975 -0.0561 -0.2111 -0.0664
94759W        W95623  13.282  21.378  19.233  0.2442 -0.1236  0.0387
94760W        W95624  15.174  18.883  17.409 -0.1486  0.0676  0.4126
94761W        W95625  10.906  20.312  16.750 -0.0664 -0.2775 -0.0944
94762W        W95626  13.603  18.876  11.546 -0.2620  0.2240 -0.0955
94763W        W95627   6.903  17.499  17.690 -0.0554  0.1005 -0.1468
94764W        W95628  13.708  21.867  17.383 -0.0418 -0.4217 -0.1201
94765W        W95629  14.476  20.968  15.450 -0.0203 -0.0597  0.0120
94766W        W95630  12.876  17.998  19.119 -0.1477 -0.1673 -0.2142
94767W        W95631  14.536  21.571  16.145 -0.0919  0.0006 -0.0495
94768W        W95632  16.012  20.270  15.198  0.0894 -0.3534  0.2022
94769W        W95633  12.656  21.900  14.248 -0.0734  0.0641 -0.2901
94770W        W95634   8.779  21.864  18.805  0.0437  0.0740  0.0633
94771W        W95635  11.993  18.687  17.165  0.4272 -0.0105  0.1638
94772W        W95636  10.775  19.254  16.834  0.1591  0.0189  0.0054
94773W        W95637  13.128  18.187  16.898 -0.1119 -0.3353 -0.2144
94774W        W95638  14.108  23.387  18.118  0.0732  0.1192  0.1734
94775W        W95639  13.788  21.953  18.317 -0.0606 -0.1425  0.0362
94776W        W95640  13.544  21.017  16.885  0.0752  0.0848 -0.0547
94777W        W95641  14.221  20.890  14.815 -0.1151  0.1191  0.0052
94778W        W95642  10.310  19.043  14.422 -0.1205  0.0590 -0.0804
94779W        W95643  11.732  20.044  16.735  0.0283 -0.2049  0.1254
94780W        W95644  12.783  23.277  14.526  0.0247  0.0511 -0.0350
94781W        W95645  14.190  23.000  20.074 -0.2840  0.5044  0.1570
94782W        W95646  11.599  18.065  15.921 -0.1535 -0.1175  0.1148
94783W        W95647  14.115  19.923  15.895  0.1485  0.0533  0.2248
94784W        W95648  15.342  19.992  15.499  0.3283  0.1055 -0.3210
94785W        W95649  12.091  17.533  15.400 -0.6023  0.1949  0.0665
94786W        W95650  14.769  17.699  18.356 -0.0640  0.2340 -0.0336
94787W        W95651  13.737  19.561  15.879 -0.1299 -0.0748  0.0008
94788W        W95652  14.146  19.113  15.221 -0.3457  0.1356  0.1827
94789W        W95653  14.030  20.423  15.924  0.0861  0.0669  0.0679
94790W        W95654  12.720  20.445  19.184 -0.0349  0.1618 -0.2663
94791W        W95655  14.695  20.703  15.876  0.1454 -0.1840 -0.1084
94792W        W95656  13.754  19.665  17.050 -0.0215  0.0196  0.0414
94793W        W95657   9.587  19.554  14.874  0.0144  0.0163  0.1515
94794W        W95658  11.502  20.719  18.341 -0.0612  0.2299  0.1150
94795W        W95659  10.172  20.816  14.548 -0.0412 -0.0518 -0.3138
94796W        W95660  15.601  19.656  16.778 -0.0245  0.2231  0.0320
94797W        W95661   9.493  18.220  18.116  0.0386  0.0566 -0.0203
94798W        W95662  16.747  22.651  14.300  0.1502  0.1006  0.1407
94799W        W95663  15.685  20.974  14.318  0.0171  0.1474 -0.1487
94800W        W95664  14.550  19.394  16.014 -0.2422  0.1988 -0.0755
94801W        W95665  13.462  17.896  15.199 -0.3007  0.0174 -0.1764
94802W        W95666  11.418  18.967  17.909 -0.1037  0.0559 -0.0908
94803W        W95667  12.579  21.652  17.308  0.0230 -0.1363 -0.0651
94804W        W95668  11.115  14.962  22.004  0.1347  0.2226  0.3766
94805W        W95669  12.480  18.862  17.761 -0.0225  0.0646 -0.1216
94806W        W95670  10.667  19.386  15.836 -0.3210  0.1183 -0.0597
94807W        W95671  13.450  18.843  13.759  0.1655 -0.0133  0.2186
94808W        W95672  11.083  19.947  18.907  0.2322 -0.3358 -0.0254
94809W        W95673   7.048  22.224  19.904  0.0572 -0.2064 -0.1288
94810W        W95674  12.648  19.467  14.082  0.2477 -0.0289 -0.0962
94811W        W95675  13.114  20.495  16.080 -0.1695  0.0368  0.0600
94812W        W95676  11.617  22.024  19.279  0.2014 -0.1482 -0.1629
94813W        W95677  14.847  21.327  16.494  0.1572 -0.1281  0.2780
94814W        W95678  15.935  19.851  15.473 -0.2387  0.0595 -0.0001
94815W        W95679  16.038  18.859  15.541  0.1256 -0.5173 -0.0213
94816W        W95680   9.740  21.982  19.025 -0.1316 -0.1846 -0.0217
94817W        W95681  17.026  16.267  15.225  0.0996 -0.0113 -0.0594
94818W        W95682  14.945  19.387  14.746  0.0923 -0.0808  0.0298
94819W        W95683  14.021  20.240  16.869  0.0835 -0.3606 -0.1556
94820W        W95684  13.590  16.089  13.299 -0.0378  0.0872  0.0628
94821W        W95685  12.015  18.910  17.567 -0.0386  0.0103 -0.4789
94822W        W95686  11.081  19.043  15.939 -0.1118  0.0681  0.1707
94823W        W95687  11.439  20.498  14.366 -0.3835  0.3304  0.0902
94824W        W95688  12.660  18.378  14.018  0.0288 -0.1844 -0.0510
94825W        W95689  11.416  19.144  16.346 -0.1579 -0.1454 -0.3381
94826W        W95690  11.703  22.521  20.473  0.0265  0.3117  0.2244
94827W        W95691  12.383  18.477  16.943 -0.3117  0.1656  0.2280
94828W        W95692  10.012  20.092  16.639 -0.0213 -0.2703 -0.2077
94829W        W95693   8.976  21.162  16.110  0.3137 -0.1104  0.0227
94830W        W95694  10.424  18.098  17.416  0.2007  0.1044  0.0854
94831W        W95695  13.204  22.050  19.163 -0.1428 -0.2040 -0.1548
94832W        W95696  12.765  21.406  14.120  0.0038  0.0698 -0.0964
94833W        W95697  15.661  18.720  15.168 -0.2365 -0.0355 -0.0141
94834W        W95698  15.891  22.006  15.932 -0.0003  0.0607 -0.0997
94835W        W95699  12.834  19.987  20.918  0.1827 -0.1313 -0.4434
94836W        W95700  12.450  18.611  15.516  0.2198 -0.1305 -0.4513
94837W        W95701  12.318  19.118  14.378  0.1572  0.2164  0.3587
94838W        W95702  12.724  19.877  15.916  0.0270 -0.1679  0.0243
94839W        W95703  11.974  19.551  15.114  0.0392 -0.2888 -0.2306
94840W        W95704  10.542  18.151  16.460 -0.1111  0.0249 -0.1839
94841W        W95705  13.915  18.669  13.731 -0.1950 -0.1923 -0.1254
94842W        W95706  14.523  22.059  16.271  0.1338 -0.4177  0.0624
94843W        W95707  11.808  20.868  17.176  0.0535  0.0585 -0.0494
94844W        W95708  13.530  19.903  19.123  0.0324 -0.1325  0.3691
94845W        W95709  10.513  17.007  12.539 -0.1174  0.0930  0.0037
94846W        W95710  12.058  20.028  15.256  0.1462  0.2876  0.3326
94847W        W95711  13.676  18.636  17.903 -0.0521  0.3159  0.2041
94848W        W95712  11.771  21.493  15.519 -0.0622 -0.0402 -0.1636
94849W        W95713  12.213  23.763  17.770  0.0783  0.1028  0.1001
94850W        W95714  13.332  19.847  14.085 -0.0877  0.0131  0.1121
94851W        W95715  11.161  19.795  17.503 -0.0241  0.1230  0.2770
94852W        W95716  11.723  22.639  16.449 -0.2717  0.0684 -0.3256
94853W        W95717   9.725  18.745  16.172  0.3389  0.1834 -0.1839
94854W        W95718  13.066  21.309  17.497  0.1731 -0.1032 -0.2125
94855W        W95719  14.156  22.064  16.682 -0.1042 -0.0582 -0.0027
94856W        W95720  13.242  19.485  15.281 -0.0359 -0.1875  0.1385
94857W        W95721  11.462  19.769  15.319  0.0128  0.2080 -0.0936
94858W        W95722  13.331  20.830  16.362 -0.1739 -0.0017 -0.0022
94859W        W95723  11.999  20.590  18.012  0.0038  0.0603 -0.0529
94860W        W95724  13.924  19.228  12.686  0.3271 -0.2088 -0.3776
94861W        W95725  14.658  20.755  16.426  0.0070 -0.0180 -0.1497
94862W        W95726  12.306  19.155  18.547  0.1678 -0.2175 -0.1835
94863W        W95727  15.164  22.126  18.609 -0.0772 -0.2179  0.1684
94864W        W95728  11.491  18.257  20.950 -0.0501  0.0842 -0.0997
94865W        W95729  12.506  21.184  15.089 -0.3652 -0.2686  0.2276
94866W        W95730  14.703  21.939  15.797  0.0475  0.0522 -0.1919
94867W        W95731  14.304  18.404  16.996 -0.1758  0.2527  0.1405
94868W        W95732  12.594  18.455  16.061 -0.0372  0.1484 -0.0599
94869W        W95733  13.611  20.429  16.218  0.2470 -0.1450  0.1407
94870W        W95734  12.051  18.383  15.934 -0.1020 -0.1194  0.2137
94871W        W95735  13.507  17.164  16.519  0.3610 -0.1417  0.0830
94872W        W95736  11.025  21.441  14.450  0.2699 -0.1819 -0.0470
94873W        W95737  14.058  21.321  13.041  0.0897 -0.2264  0.2154
94874W        W95738  16.242  21.311  18.879 -0.2323  0.1024  0.2189
94875W        W95739  12.528  23.563  16.766  0.1585 -0.1115  0.1552
94876W        W95740   9.553  20.362  15.656 -0.3547 -0.1433 -0.1368
94877W        W95741  12.691  22.928  16.679  0.0612  0.1596  0.0829
94878W        W95742  11.846  19.709  15.781  0.1611 -0.1206  0.1533
94879W        W95743  12.706  18.971  16.262  0.1463 -0.1258 -0.0416
94880W        W95744  12.359  17.396  15.837  0.0159 -0.1991 -0.1830
94881W        W95745  13.846  20.700  21.154 -0.5602  0.0264 -0.1580
94882W        W95746  12.691  20.194  15.468  0.1516 -0.2553  0.0258
94883W        W95747  13.282  22.848  18.376  0.0177 -0.0777 -0.0564
94884W        W95748  13.795  17.854  12.507 -0.1021  0.1536 -0.1462
94885W        W95749  10.964  20.543  15.694  0.1115  0.0450 -0.0643
94886W        W95750  10.112  15.542  19.076  0.0729  0.1893 -0.1386
94887W        W95751  13.022  21.321  16.389 -0.0046  0.2315  0.0396
94888W        W95752   9.666  23.247  16.255  0.1481 -0.1012 -0.0652
94889W        W95753  14.413  21.685  14.489  0.1404  0.0026  0.2278
94890W        W95754  12.891  17.190  17.913 -0.1335  0.0580 -0.0050
94891W        W95755  14.389  20.462  15.514  0.2593  0.1202 -0.2158
94892W        W95756  13.037  20.006  17.734  0.0728  0.1613 -0.0853
94893W        W95757  13.730  22.836  16.325  0.1875  0.3538 -0.0686
94894W        W95758  15.084  23.924  13.983  0.0100  0.0333 -0.1886
94895W        W95759  15.339  22.085  15.946 -0.1338 -0.1147 -0.1670
94896W        W95760  13.786  19.267  16.628 -0.3413  0.1989  0.0902
94897W        W95761  13.160  18.079  18.695 -0.2582 -0.0183  0.3617
94898W        W95762  15.414  17.647  14.261 -0.4153  0.2366  0.1422
94899W        W95763  10.427  19.775  16.092 -0.0290 -0.1112 -0.0649
94900W        W95764  13.726  19.059  16.045 -0.0493  0.1029 -0.1419
94901W        W95765  12.606  20.444  15.042  0.1155 -0.1013 -0.0617
94902W        W95766  14.665  19.215  16.438  0.2135 -0.1492  0.0744
94903W        W95767  13.780  22.828  14.931 -0.1042 -0.0520  0.1670
94904W        W95768  11.899  20.352  18.543 -0.0133 -0.1220  0.1397
94905W        W95769  12.796  19.802  17.315  0.0282 -0.4607 -0.1258
94906W        W95770  11.981  19.138  20.658 -0.0189  0.0915 -0.1197
94907W        W95771  13.707  18.728  17.441 -0.1140  0.2846  0.0025
94908W        W95772  11.542  21.326  18.803 -0.0100  0.0448  0.3443
94909W        W95773  14.219  20.647  16.293  0.0570  0.1791  0.0155
94910W        W95774  11.609  18.466  18.213 -0.0424 -0.3473  0.1806
94911W        W95775  10.779  20.685  17.122 -0.2963 -0.0059 -0.2031
94912W        W95776  12.363  18.633  16.448 -0.0908 -0.1460 -0.0662
94913W        W95777  13.992  20.667  19.183  0.1494 -0.2475 -0.4640
94914W        W95778  12.910  20.097  18.439  0.1105  0.0566 -0.1086
94915W        W95779  14.448  23.546  15.992  0.2002 -0.0017  0.1968
94916W        W95780  12.545  20.795  18.096 -0.0105  0.0242  0.0317
94917W        W95781  13.241  21.708  15.532 -0.2859 -0.1576 -0.2075
94918W        W95782  16.477  21.290  14.259  0.0227 -0.0414  0.2328
94919W        W95783   9.760  22.448  16.942  0.2698 -0.0819 -0.0991
94920W        W95784  10.505  20.290  18.494 -0.0404 -0.1870  0.0303
94921W        W95785  15.284  18.816  14.407  0.3133 -0.1613  0.1727
94922W        W95786  12.149  22.377  17.405 -0.2677  0.1714  0.3546
94923W        W95787  12.203  19.608  18.772  0.1403 -0.3628 -0.2123
94924W        W95788  12.970  19.150  18.450 -0.2914  0.0524 -0.0841
94925W        W95789  12.294  21.498  16.482 -0.2483  0.2708 -0.0585
94926W        W95790  11.865  19.858  18.430 -0.0536  0.1231 -0.1900
94927W        W95791  10.143  19.902  18.656  0.2089 -0.1778  0.1511
94928W        W95792  11.384  19.977  14.253 -0.0632 -0.2294 -0.0212
94929W        W95793  10.895  22.658  23.305  0.0927  0.0465 -0.2012
94930W        W95794  11.714  18.999  19.801 -0.2753  0.0468  0.2066
94931W        W95795  11.581  21.198  18.226 -0.1193 -0.1368  0.2071
94932W        W95796  14.214  23.140  22.297  0.2487  0.1121 -0.3387
94933W        W95797  10.374  19.627  19.502  0.0818  0.5076  0.0429
94934W        W95798  12.150  16.304  18.437  0.1084 -0.0154 -0.3089
94935W        W95799  11.268  19.276  17.269 -0.1370 -0.0535 -0.4101
94936W        W95800  14.142  17.334  20.226 -0.1403 -0.1776  0.1165
94937W        W95801  11.832  20.057  22.202 -0.0965 -0.3511 -0.0149
94938W        W95802  11.318  18.071  18.491 -0.1308 -0.0400  0.0282
94939W        W95803  11.813  18.939  22.811  0.0298 -0.0397 -0.3360
94940W        W95804  13.313  18.436  20.710 -0.2104 -0.1050 -0.0083
94941W        W95805  12.678  19.483  19.139  0.0091  0.1844 -0.0472
94942W        W95806  16.240  19.528  20.575 -0.1173 -0.1168  0.1202
94943W        W95807   9.674  18.223  22.672  0.0212  0.0454  0.0999
94944W        W95808  10.195  20.349  20.933 -0.2666  0.0565 -0.1424
94945W        W95809  13.303  19.207  14.807 -0.0909 -0.1016 -0.2026
94946W        W95810   9.394  18.403  22.333 -0.0670 -0.0942 -0.0176
94947W        W95811   9.097  21.226  22.044 -0.0935 -0.1272  0.2848
94948W        W95812  14.217  16.867  18.414 -0.0560 -0.1451 -0.0538
94949W        W95813  14.637  20.479  23.236  0.0972  0.1829 -0.2692
94950W        W95814  12.566  15.190  19.539  0.0362  0.1413 -0.1310
94951W        W95815  14.122  22.085  17.193 -0.0274  0.1868 -0.2379
94952W        W95816   9.733  21.229  18.894 -0.1004 -0.0108 -0.2525
94953W        W95817   8.705  22.728  22.263  0.0355  0.0326 -0.0665
94954W        W95818  13.168  19.227  21.289  0.0102 -0.0322  0.0204
94955W        W95819  17.165  20.511  21.319 -0.1926  0.0257 -0.0847
94956W        W95820  11.366  20.733  20.226  0.0777  0.3357  0.1094
94957W        W95821  11.494  20.251  20.268 -0.0523 -0.2724  0.3162
94958W        W95822  13.796  19.964  19.709 -0.2909 -0.2252 -0.1142
94959W        W95823  12.048  20.090  18.940  0.3766  0.0122 -0.0235
94960W        W95824  11.891  21.105  21.345 -0.2667  0.3541 -0.0428
94961W        W95825  12.471  21.396  23.939 -0.3585  0.0806 -0.0448
94962W        W95826  11.615  19.032  21.307 -0.0535  0.1533  0.0182
94963W        W95827  12.624  18.610  20.379  0.0629 -0.0427  0.1078
94964W        W95828  14.121  19.872  21.526  0.0336  0.1009  0.0523
94965W        W95829   9.022  19.797  15.720 -0.0503 -0.2150  0.2506
94966W        W95830  12.073  18.318  19.479  0.0072 -0.1551 -0.1222
94967W        W95831  15.789  19.065  16.023 -0.4715  0.1270 -0.0467
94968W        W95832  13.252  18.724  19.806  0.1206  0.2713  0.0257
94969W        W95833  11.532  17.618  19.474  0.1575  0.2845  0.0280
94970W        W95834  12.489  21.018  20.561 -0.0461 -0.0387  0.1018
94971W        W95835  13.962  18.289  21.592 -0.3481 -0.3685 -0.3461
94972W        W95836  13.571  20.306  16.701 -0.1556 -0.3802 -0.1079
94973W        W95837  10.745  22.984  20.916  0.0891 -0.0119 -0.0628
94974W        W95838   9.173  22.214  18.371  0.2538 -0.1406 -0.1367
94975W        W95839  13.793  18.504  19.582  0.0462  0.0389  0.4077
94976W        W95840  15.072  19.466  16.186 -0.0382  0.1886  0.0882
94977W        W95841  12.439  19.064  20.364 -0.0511  0.1637  0.1990
94978W        W95842  14.597  19.807  19.094 -0.1618  0.2887 -0.0287
94979W        W95843   8.527  17.394  22.718  0.3944  0.0737 -0.1097
94980W        W95844  11.345  20.038  16.457 -0.0462  0.0281  0.2167
94981W        W95845  12.141  20.644  21.444  0.0686 -0.0368 -0.1862
94982W        W95846  13.201  17.444  22.594 -0.2686 -0.2168  0.0274
94983W        W95847  12.347  15.775  19.522 -0.1137  0.2734 -0.0599
94984W        W95848  10.723  19.349  19.247 -0.2652  0.1704 -0.1600
94985W        W95849   7.968  17.319  21.956 -0.0139  0.0726 -0.0948
94986W        W95850  14.407  18.224  19.745  0.0888  0.1794 -0.4228
94987W        W95851   9.804  23.084  17.716  0.1289  0.0660 -0.0350
94988W        W95852  12.924  19.053  19.061 -0.1021 -0.0772  0.3597
94989W        W95853  12.572  20.634  16.683 -0.0535  0.0680  0.2954
94990W        W95854  10.684  21.246  20.008  0.1273  0.1089  0.1875
94991W        W95855  12.201  20.116  21.646  0.0786 -0.2003 -0.1467
94992W        W95856  11.915  17.338  20.085 -0.0738  0.2787 -0.3536
94993W        W95857  13.313  19.062  22.652 -0.1552  0.0789  0.0039
94994W        W95858  14.776  21.615  21.991 -0.1819 -0.0089 -0.1491
94995W        W95859  12.976  24.121  20.374 -0.0106 -0.0023 -0.2237
94996W        W95860  10.242  19.424  17.932 -0.1892 -0.0629  0.2034
94997W        W95861  10.102  18.990  18.237 -0.1905  0.1216  0.1457
94998W        W95862  11.874  21.201  19.209 -0.0351 -0.3407  0.1453
94999W        W95863  15.639  19.529  21.709  0.1541 -0.2096  0.0906
95000W        W95864  11.025  18.021  15.704 -0.2545 -0.0338  0.1661
95001W        W95865  13.675  20.394  21.600 -0.2186 -0.0504  0.0122
95002W        W95866  11.911  17.698  20.737  0.0516  0.0068 -0.0216
95003W        W95867  14.175  22.640  21.437 -0.2052  0.2035  0.1723
95004W        W95868  13.468  19.683  21.428 -0.0571 -0.1442 -0.2428
95005W        W95869  10.968  19.003  18.937  0.1751  0.0274  0.0466
95006W        W95870   9.942  19.438  22.328  0.0309  0.1767 -0.3600
95007W        W95871  14.481  19.283  19.062 -0.2140  0.1719 -0.1776
95008W        W95872  10.801  20.655  18.444  0.0267  0.1139  0.2797
95009W        W95873  10.089  19.969  19.759  0.0720 -0.1906  0.3526
95010W        W95874   9.335  20.494  23.007  0.1828  0.0356  0.0665
95011W        W95875  10.432  18.308  18.901  0.1630  0.1844 -0.0459
95012W        W95876  13.989  18.855  19.265 -0.0276 -0.1965 -0.0117
95013W        W95877  10.994  20.429  20.419 -0.0543  0.3694 -0.1469
95014W        W95878  10.714  17.911  19.215 -0.0513 -0.2552  0.0109
95015W        W95879  14.510  22.431  24.890 -0.2422 -0.2029  0.2610
95016W        W95880  13.900  19.470  20.671 -0.3915  0.0028  0.0662
95017W        W95881  12.841  21.254  22.657 -0.2031 -0.2090  0.1074
95018W        W95882  14.351  19.362  17.551 -0.1167 -0.2600  0.0117
95019W        W95883  11.776  19.367  18.531  0.2438  0.0267  0.0064
95020W        W95884  12.618  21.468  23.391 -0.0035  0.2890  0.0110
95021W        W95885  10.104  18.027  22.512 -0.0132  0.0387 -0.1904
95022W        W95886  13.888  17.475  17.932 -0.2202 -0.0969  0.1948
95023W        W95887  14.725  17.040  23.508  0.1521 -0.3269 -0.2819
95024W        W95888  12.877  19.653  18.165  0.0371  0.2343  0.3330
95025W        W95889  16.437  21.136  17.898  0.0854 -0.1347  0.2749
95026W        W95890  11.437  19.848  19.988 -0.0835 -0.3927  0.2118
95027W        W95891  11.527  17.115  22.753  0.0069  0.0479 -0.1266
95028W        W95892  14.620  19.743  17.365 -0.3061 -0.0511  0.1096
95029W        W95893  14.353  20.887  18.771  0.0768 -0.0934 -0.1136
95030W        W95894   9.585  18.419  21.063  0.0917  0.0887  0.0603
95031W        W95895  14.785  15.951  19.926 -0.0344 -0.0303 -0.2196
95032W        W95896  15.089  20.487  19.818 -0.0151 -0.0207 -0.0108
95033W        W95897  15.222  19.974  19.723 -0.2449 -0.0333  0.0391
95034W        W95898   8.845  18.838  20.641  0.0058 -0.1412 -0.0592
95035W        W95899  12.494  21.312  18.260  0.0358  0.0885 -0.0330
95036W        W95900  14.778  20.641  23.679 -0.0656 -0.0379  0.0887
95037W        W95901  11.968  19.661  21.915 -0.0111  0.1180 -0.0153
95038W        W95902   8.701  18.852  19.491  0.0868 -0.0724  0.0378
95039W        W95903  11.694  22.802  22.322 -0.2679 -0.0899  0.1639
95040W        W95904  16.129  20.410  21.090 -0.3313 -0.1634 -0.2343
95041W        W95905  15.846  19.965  23.074 -0.1598 -0.1723 -0.0678
95042W        W95906   8.336  23.111  19.924  0.1562  0.0609 -0.0671
95043W        W95907  14.771  18.508  18.621 -0.1824  0.2464  0.1542
95044W        W95908  14.335  19.001  18.202  0.0579 -0.0678  0.0350
95045W        W95909  15.403  17.212  23.397  0.0203 -0.2081  0.2270
95046W        W95910  13.932  20.201  22.527  0.1575 -0.1113  0.0019
95047W        W95911  13.300  19.373  19.018 -0.0331  0.3902 -0.1881
95048W        W95912  13.246  20.156  21.490  0.0782  0.3692  0.1026
95049W        W95913  13.932  20.567  18.623  0.1842 -0.3299  0.2343
95050W        W95914  14.059  21.659  21.220 -0.0679  0.2987 -0.1024
95051W        W95915  14.072  21.133  16.913  0.0791  0.2254  0.1443
95052W        W95916  11.762  20.516  22.454 -0.0557 -0.5112  0.5149
95053W        W95917  11.199  19.968  20.475  0.0771  0.2633  0.1932
95054W        W95918  13.453  19.450  21.888  0.4208  0.0497 -0.2844
95055W        W95919  10.920  18.886  21.472 -0.0695 -0.1528  0.0069
95056W        W95920  12.295  22.691  22.501  0.3657  0.1399 -0.0621
95057W        W95921  15.443  20.459  21.803  0.2511 -0.0955 -0.1334
95058W        W95922  12.903  23.439  18.018 -0.0289  0.1973 -0.0955
95059W        W95923  14.341  20.524  20.394 -0.0801 -0.3947 -0.0271
95060W        W95924  11.715  18.303  20.505  0.0477 -0.0851 -0.1696
95061W        W95925  11.035  21.848  20.545  0.2368 -0.1561  0.0824
95062W        W95926  12.411  19.450  20.016  0.4135 -0.1434 -0.0645
95063W        W95927  11.922  18.111  19.906 -0.2520  0.1712  0.0267
95064W        W95928  11.772  19.516  19.788  0.0379  0.1320  0.1084
95065W        W95929  12.813  19.793  20.087 -0.1060  0.2302  0.0084
95066W        W95930  13.837  19.676  20.083  0.0076  0.2963 -0.1613
95067W        W95931  13.868  19.628  21.145  0.1686 -0.0855 -0.0777
95068W        W95932  13.750  21.802  19.741  0.2283  0.0555  0.1107
95069W        W95933  10.822  17.858  16.802  0.0880  0.0007 -0.2033
95070W        W95934  11.414  19.319  20.185 -0.2677  0.1347  0.2909
95071W        W95935  11.387  22.226  19.764  0.1030  0.0662  0.2031
95072W        W95936   8.284  20.389  18.194 -0.0594 -0.0261  0.2610
95073W        W95937  12.357  21.290  22.292  0.0139  0.0039  0.0373
95074W        W95938  14.233  18.673  17.468 -0.0982 -0.0662  0.1169
95075W        W95939  10.924  17.823  18.775 -0.1252 -0.1810  0.0098
95076W        W95940  13.502  22.084  20.520  0.3306 -0.0929 -0.1195
95077W        W95941  13.504  21.994  22.721 -0.0465  0.1464  0.1707
95078W        W95942  11.326  20.194  22.118  0.1214 -0.0911 -0.1275
95079W        W95943  14.836  20.349  18.934  0.0814 -0.0126 -0.0384
95080W        W95944  10.351  20.824  20.029  0.1556 -0.3504 -0.2432
95081W        W95945  11.206  19.905  19.474 -0.1870  0.1146 -0.0868
95082W        W95946  11.438  16.829  17.261 -0.3062 -0.0882  0.0575
95083W        W95947  13.138  17.568  18.258  0.0435 -0.4093  0.0837
95084W        W95948  10.994  19.318  22.546 -0.2226 -0.0488  0.0656
95085W        W95949  11.033  21.355  20.623 -0.0478 -0.1514 -0.0342
95086W        W95950   9.775  19.387  18.123 -0.1980 -0.2781 -0.1277
95087W        W95951  11.656  19.289  19.334  0.0929 -0.1468 -0.1475
95088W        W95952  11.705  19.536  21.187  0.1027  0.0670  0.0750
95089W        W95953  15.002  18.827  21.811 -0.3916 -0.0257  0.0962
95090W        W95954  12.063  23.820  22.767  0.4080  0.3043  0.1032
95091W        W95955  11.688  20.433  21.319 -0.2730 -0.3217  0.1400
95092W        W95956  13.882  22.077  22.282 -0.1244  0.2244  0.0096
95093W        W95957  15.373  20.179  21.026 -0.0834 -0.2685  0.0493
95094W        W95958   9.694  19.681  19.765 -0.1148  0.1422 -0.1654
95095W        W95959  10.015  18.644  21.727 -0.1001  0.3011  0.2488
95096W        W95960  11.876  18.699  21.531 -0.1162  0.0263  0.1984
95097W        W95961  11.120  19.376  19.742 -0.0488  0.2162  0.0006
95098W        W95962   9.285  18.459  17.757 -0.3861  0.1783  0.0829
95099W        W95963  13.143  19.003  20.835  0.0780 -0.4003  0.1003
95100W        W95964  12.681  18.813  19.947 -0.0197 -0.0327  0.0578
95101W        W95965  15.207  21.552  20.508 -0.1793  0.1288  0.0263
95102W        W95966  12.221  20.794  17.480 -0.0867  0.1970  0.0499
95103W        W95967  13.395  17.239  19.996 -0.0801 -0.1249 -0.1750
95104W        W95968  15.871  19.366  17.374  0.0133 -0.1175  0.2050
95105W        W95969   9.859  20.854  21.332  0.2773  0.3021 -0.1039
95106W        W95970  13.250  19.611  19.996  0.1901  0.0509  0.1305
95107W        W95971  10.380  23.860  19.359  0.2584 -0.2168  0.0642
95108W        W95972  10.647  18.996  22.763 -0.0398 -0.2098 -0.2432
95109W        W95973  11.112  20.201  21.258  0.0310 -0.2829  0.0018
95110W        W95974  17.003  20.471  18.763  0.0970  0.0272 -0.1081
95111W        W95975  11.642  19.527  20.704 -0.1680  0.0645  0.2709
95112W        W95976  12.018  17.312  18.587  0.0236  0.0379  0.1905
95113W        W95977  10.086  18.533  16.729  0.2356 -0.0497 -0.0435
95114W        W95978  14.332  24.598  21.121 -0.1885 -0.0967 -0.0314
95115W        W95979  14.898  17.346  16.345  0.0000  0.2910 -0.0404
95116W        W95980  10.733  14.641  19.583  0.1533 -0.1594 -0.3419
95117W        W95981  13.679  18.445  21.130  0.0377 -0.0635  0.3080
95118W        W95982  14.410  18.222  20.206 -0.2561 -0.0755  0.0512
95119W        W95983  11.906  21.652  18.980 -0.0392 -0.3352  0.1211
95120W        W95984  11.302  24.207  20.064  0.0146  0.1458 -0.1816
95121W        W95985   8.508  18.322  22.893  0.0251  0.0111 -0.1187
95122W        W95986  14.516  16.649  20.502  0.4240  0.0483  0.2441
95123W        W95987  10.653  16.413  20.830  0.2659  0.0949  0.0250
95124W        W95988   9.666  21.138  24.322 -0.2713  0.1684  0.2910
95125W        W95989  13.445  16.875  20.473  0.3526 -0.1502  0.0946
95126W        W95990  11.613  17.826  21.305  0.0277 -0.0508 -0.2331
95127W        W95991  11.039  19.319  17.784  0.1225  0.2176 -0.1690
95128W        W95992  11.658  17.134  21.270 -0.0143 -0.1917 -0.2125
95129W        W95993   7.831  17.525  20.531 -0.1322 -0.2132 -0.2806
95130W        W95994  14.788  20.085  19.886  0.1465 -0.1362 -0.1950
95131W        W95995  14.550  18.661  16.555  0.0147 -0.2659  0.0018
95132W        W95996   9.335  17.930  19.537 -0.1076  0.1062  0.2453
95133W        W95997  14.172  17.848  19.954 -0.2347  0.1439  0.1746
95134W        W95998  10.268  19.480  18.995 -0.1014 -0.1957  0.1264
95135W        W95999   8.569  22.111  22.853 -0.3775 -0.3215 -0.3220
95136W        W96000  11.580  18.493  19.798 -0.0792 -0.1106 -0.3416
95137W        W96001  10.614  21.558  17.863  0.2978  0.0386  0.1017
95138W        W96002  10.642  20.673  15.042 -0.3688 -0.1631  0.2522
95139W        W96003  10.263  20.199  21.971  0.0372  0.0474 -0.0175
95140W        W96004  10.149  20.037  21.438 -0.3848  0.0495 -0.0159
95141W        W96005  10.854  20.756  21.902  0.0111 -0.2224 -0.1178
95142W        W96006  15.326  18.157  21.899 -0.2032  0.0376  0.1555
95143W        W96007  13.003  19.677  21.467  0.2414 -0.0469  0.0055
95144W        W96008  15.400  19.298  17.242  0.0385  0.3098 -0.0550
95145W        W96009  12.748  19.537  18.683  0.2355 -0.0278  0.1720
95146W        W96010  13.322  24.853  19.424 -0.2323 -0.0681  0.1576
95147W        W96011  12.154  21.769  21.593 -0.1546 -0.2327  0.2003
95148W        W96012  10.850  19.717  23.495  0.2079  0.0875  0.1335
95149W        W96013  16.192  17.191  21.928 -0.0551  0.0267 -0.1317
95150W        W96014  14.405  17.092  18.829 -0.0877  0.0911  0.0210
95151W        W96015  11.986  20.884  20.531 -0.1996  0.0675 -0.1394
95152W        W96016  14.570  19.472  16.841 -0.2889 -0.2242 -0.4443
95153W        W96017  14.995  19.396  18.340 -0.0277 -0.0937 -0.0166
95154W        W96018  11.704  19.265  22.054 -0.2577 -0.2081 -0.1852
95155W        W96019  12.561  19.773  21.224 -0.0678  0.0484 -0.2360
95156W        W96020  11.188  18.147  20.575 -0.0309 -0.2347 -0.0315
95157W        W96021  13.082  21.148  18.502  0.0192 -0.0838 -0.1621
95158W        W96022  14.591  21.466  21.040  0.0376 -0.2080 -0.0772
95159W        W96023  12.911  21.873  23.402  0.0155  0.0119  0.1141
95160W        W96024  12.215  18.279  23.403 -0.3633 -0.0188 -0.4947
95161W        W96025   9.734  22.110  18.545  0.1324 -0.5299 -0.3824
95162W        W96026   9.603  18.011  21.853  0.1106  0.0029  0.3291
95163W        W96027  11.725  17.788  20.270  0.3519 -0.5290  0.1981
95164W        W96028  15.740  20.573  17.623 -0.0275  0.1878 -0.0370
95165W        W96029  12.722  19.122  19.521  0.0228 -0.0563  0.0287
95166W        W96030  12.623  19.313  21.426 -0.1993  0.0821  0.0261
95167W        W96031  16.667  19.856  22.329  0.3590 -0.0889  0.2475
95168W        W96032  11.917  20.689  16.588 -0.4879 -0.0287 -0.1306
95169W        W96033   8.963  20.354  19.789 -0.2565  0.3948  0.1266
95170W        W96034  13.515  20.561  20.302  0.1630 -0.2297  0.1040
95171W        W96035  10.240  17.124  22.094  0.1245 -0.0941 -0.0821
95172W        W96036   8.525  18.344  20.736 -0.1406 -0.3354 -0.1806
95173W        W96037  12.875  20.587  18.346  0.2826 -0.1119 -0.0311
95174W        W96038  12.534  20.584  21.825  0.0146 -0.2035 -0.0373
95175W        W96039  11.797  22.056  24.153 -0.0083  0.3112  0.0464
95176W        W96040  15.328  22.805  19.173 -0.3410  0.2004 -0.0035
95177W        W96041  12.717  20.772  17.611  0.0505 -0.1329  0.2722
95178W        W96042   9.407  19.292  21.228  0.1042 -0.0501  0.0312
95179W        W96043  11.888  21.202  19.775 -0.0555  0.2123 -0.2205
95180W        W96044  14.281  22.044  24.143 -0.2074 -0.0246 -0.0249
95181W        W96045  12.811  20.171  20.451 -0.0350  0.1338  0.0750
95182W        W96046  11.810  17.598  15.889 -0.2037  0.2370 -0.3227
95183W        W96047  14.110  20.311  21.309  0.1318  0.0610 -0.2763
95184W        W96048  16.039  18.240  20.042 -0.1178 -0.1550 -0.0392
95185W        W96049   9.443  18.272  20.397  0.0017 -0.1528 -0.0990
95186W        W96050  13.700  20.294  19.358  0.1125  0.0303 -0.1535
95187W        W96051  13.697  19.473  19.603  0.3940 -0.4068  0.0419
95188W        W96052  14.533  19.977  20.505 -0.1599  0.0003  0.0369
95189W        W96053  13.488  20.358  19.792 -0.1932  0.1332  0.0057
95190W        W96054  12.454  21.559  22.953  0.0374  0.0801 -0.2108
95191W        W96055  12.483  19.223  20.900 -0.4059 -0.2323 -0.1616
95192W        W96056  12.188  20.373  22.100 -0.3151  0.5142 -0.2807
95193W        W96057  10.460  23.542  23.283 -0.2591  0.0034 -0.1178
95194W        W96058  11.997  24.178  18.171  0.0310  0.1002 -0.2325
95195W        W96059  13.348  20.707  21.184  0.1674 -0.2528  0.0171
95196W        W96060  14.528  22.270  17.462  0.0918  0.1392  0.1483
95197W        W96061  13.337  18.441  19.080 -0.1378  0.2330  0.0779
95198W        W96062  15.246  17.484  21.641  0.2146 -0.3239 -0.1425
95199W        W96063  12.581  19.676  20.539  0.3714  0.0843 -0.0058
95200W        W96064   9.346  20.627  21.417 -0.1703  0.0605 -0.0966
95201W        W96065  13.800  20.457  22.078  0.1361  0.0531 -0.4945
95202W        W96066  13.639  18.680  20.126 -0.4938 -0.0819 -0.3613
95203W        W96067   9.906  19.013  20.365 -0.1688  0.0566  0.3349
95204W        W96068   8.003  19.171  22.716  0.0846  0.1697 -0.1967
95205W        W96069  13.393  19.492  20.951  0.1499 -0.0193  0.2584
95206W        W96070   9.192  21.466  19.649 -0.0466 -0.1108  0.0242
95207W        W96071  12.821  18.460  17.887 -0.1288  0.0691 -0.0852
95208W        W96072  11.000  18.782  18.487 -0.1403  0.1227 -0.3079
95209W        W96073  13.419  19.116  17.735 -0.2732 -0.0379  0.1856
95210W        W96074  11.207  23.690  18.940 -0.1013  0.4016 -0.0786
95211W        W96075  13.825  19.382  17.482 -0.1087 -0.2733  0.0786
95212W        W96076  14.412  18.449  21.968  0.3085  0.1524 -0.2664
95213W        W96077  12.534  20.307  17.523 -0.0781  0.3379 -0.3119
95214W        W96078  12.125  20.110  23.528  0.0876 -0.0927 -0.2024
95215W        W96079  12.624  16.124  20.929 -0.1488 -0.2874  0.3967
95216W        W96080  11.872  18.291  21.275  0.0427  0.1864 -0.2048
95217W        W96081  11.113  16.307  18.084 -0.1289  0.2520 -0.1995
95218W        W96082  13.243  20.460  19.314  0.0303  0.2421 -0.0506
95219W        W96083  12.955  17.977  20.893  0.1190  0.1284 -0.2994
95220W        W96084  10.078  20.173  17.721  0.1480  0.0360 -0.1416
95221W        W96085  12.767  18.532  17.362  0.2194  0.3099  0.1485
95222W        W96086  15.173  20.735  16.534  0.1454 -0.2172  0.3785
95223W        W96087  13.917  20.409  20.081  0.1101 -0.0718 -0.1311
95224W        W96088  15.604  20.593  19.167  0.4171  0.0025 -0.1178
95225W        W96089  12.288  20.093  20.694 -0.1618 -0.0126 -0.1704
95226W        W96090  11.220  21.261  21.086 -0.1350 -0.0750  0.1500
95227W        W96091   9.618  22.723  19.359 -0.0183 -0.0564  0.1516
95228W        W96092  11.093  17.743  23.273  0.3110 -0.0803 -0.0831
95229W        W96093  13.358  22.004  25.329  0.0431 -0.0219 -0.1826
95230W        W96094  15.104  21.550  17.784  0.0074  0.1955  0.2519
95231W        W96095  16.557  21.176  17.354  0.2530  0.0734 -0.2133
95232W        W96096  14.146  20.909  20.036  0.1811  0.2194 -0.3984
95233W        W96097  14.023  21.213  19.145  0.2331  0.1174  0.0189
95234W        W96098  15.062  19.498  16.673  0.3441  0.1361 -0.0283
95235W        W96099  12.396  18.938  17.216  0.1021 -0.1534  0.1376
95236W        W96100  11.239  22.132  21.011 -0.0372  0.1981 -0.3887
95237W        W96101  11.921  18.729  18.500  0.1342 -0.0777 -0.1013
95238W        W96102  14.382  19.053  20.493 -0.0432  0.1510  0.0122
95239W        W96103  10.762  20.122  22.126 -0.2179 -0.1189 -0.1188
95240W        W96104  14.412  19.997  22.524  0.1279 -0.1880 -0.1311
95241W        W96105  11.374  22.489  19.337  0.0740 -0.2642 -0.4548
95242W        W96106  11.774  20.474  21.790  0.2732 -0.4984 -0.1628
95243W        W96107  12.373  18.139  18.067  0.0396  0.1911  0.0811
95244W        W96108  15.817  21.075  15.598  0.1095  0.0386  0.2556
95245W        W96109  13.579  19.269  24.010  0.1594 -0.1678  0.0060
95246W        W96110  12.592  20.527  20.703 -0.1853 -0.3113  0.0059
95247W        W96111  12.000  20.870  22.211 -0.2473  0.0699 -0.2491
95248W        W96112  12.189  22.103  18.827 -0.2061  0.4098 -0.1085
95249W        W96113  12.908  19.241  20.479 -0.0355 -0.0872  0.0025
95250W        W96114  13.291  20.361  21.971  0.3253  0.0155  0.0119
95251W        W96115  11.858  19.705  20.252 -0.1420  0.1058 -0.3938
95252W        W96116  12.448  19.941  19.305  0.0330  0.0165  0.0382
95253W        W96117  12.761  17.732  20.440 -0.3747  0.4699  0.2320
95254W        W96118   9.847  19.717  19.269 -0.0515 -0.1981  0.1460
95255W        W96119  12.932  19.111  17.224  0.0573 -0.0343  0.1977
95256W        W96120  10.200  20.010  20.593 -0.3284 -0.1985 -0.0603
95257W        W96121  10.645  19.785  22.589  0.0216 -0.3797 -0.0083
95258W        W96122  13.991  19.547  17.904  0.0441  0.0306  0.0381
95259W        W96123  14.392  21.972  22.159  0.0129  0.0467  0.0518
95260W        W96124   9.399  21.714  21.544  0.0025  0.0455  0.0320
95261W        W96125  16.619  20.302  20.165 -0.2898  0.5115  0.0770
95262W        W96126  16.273  22.635  21.009  0.1509 -0.2580 -0.4485
95263W        W96127  11.809  20.671  18.918 -0.4219 -0.0939  0.1401
95264W        W96128  14.500  18.227  18.258 -0.0563  0.0190 -0.4711
95265W        W96129  10.765  20.084  20.753 -0.1207  0.2703 -0.0802
95266W        W96130  12.956  20.251  19.697  0.0303 -0.0865  0.3133
95267W        W96131  11.678  18.863  20.384  0.2537  0.1256 -0.0387
95268W        W96132   9.881  16.929  19.332  0.3323  0.0979  0.1022
95269W        W96133  10.553  15.660  19.242  0.0125  0.2217  0.1086
95270W        W96134  10.406  21.974  17.600 -0.3086  0.1453  0.2912
95271W        W96135  13.108  20.622  21.613 -0.0077 -0.0706  0.0808
95272W        W96136   9.992  18.531  23.051  0.0323 -0.3135  0.0116
95273W        W96137  10.251  22.537  17.612  0.1077 -0.0696  0.3159
95274W        W96138   9.941  19.132  21.876  0.0050  0.0118  0.0632
95275W        W96139  11.435  19.692  22.165  0.0140  0.0740 -0.2602
95276W        W96140  10.807  19.347  20.206  0.0376  0.1695  0.1478
95277W        W96141  13.692  21.630  22.361  0.1022 -0.2428 -0.2534
95278W        W96142  11.910  19.258  16.233 -0.3231 -0.1080  0.0192
95279W        W96143  14.177  18.724  19.972 -0.1681 -0.1370  0.0782
95280W        W96144  15.127  18.223  20.153  0.1033 -0.2402 -0.1974
95281W        W96145  12.073  19.568  19.307  0.1382 -0.1109  0.1608
95282W        W96146  11.708  14.845  18.369  0.1299  0.0562 -0.2194
95283W        W96147  10.433  22.245  21.745 -0.4560  0.0868 -0.2924
95284W        W96148  14.180  16.573  22.603  0.3448  0.0800  0.0811
95285W        W96149  13.268  19.881  19.592 -0.2221  0.1770 -0.2104
95286W        W96150   9.247  19.441  19.639  0.2239 -0.1451  0.1114
95287W        W96151  10.374  19.692  20.045 -0.0581 -0.3032 -0.0503
95288W        W96152  12.654  18.927  22.192 -0.0284 -0.0728 -0.1990
95289W        W96153  12.967  18.351  19.965 -0.1397  0.0173  0.2140
95290W        W96154  12.160  17.161  21.566 -0.0014 -0.1199 -0.0817
95291W        W96155  12.860  21.365  21.429  0.0897  0.0536  0.0194
95292W        W96156  15.365  21.276  21.960 -0.1469 -0.3321  0.2110
95293W        W96157  11.993  19.195  20.139 -0.2307  0.3385  0.0515
95294W        W96158  13.728  19.962  17.873  0.1096  0.0745 -0.0513
95295W        W96159  12.054  18.695  20.067 -0.3139 -0.0582  0.0840
95296W        W96160  13.104  22.355  20.309  0.0107  0.1403  0.1036
95297W        W96161  11.339  21.650  17.449 -0.1998  0.2169 -0.0275
95298W        W96162  14.284  20.108  17.800  0.0780  0.2046 -0.0797
95299W        W96163  10.098  21.536  19.194  0.0959 -0.1504 -0.2401
95300W        W96164  13.750  17.766  22.406 -0.1532 -0.1407 -0.3520
95301W        W96165  12.012  22.478  20.040 -0.2640 -0.2096  0.2143
95302W        W96166  12.968  20.007  23.134 -0.1951 -0.0449  0.1700
95303W        W96167  12.935  20.446  21.122 -0.0289  0.3362 -0.2622
95304W        W96168  12.780  18.473  21.456  0.1243  0.0535  0.4044
95305W        W96169  12.618  19.551  23.265  0.0288  0.0750  0.2050
95306W        W96170  12.751  20.730  19.788 -0.1564 -0.1291 -0.1054
95307W        W96171  11.258  18.639  20.518 -0.0657  0.0984 -0.0894
95308W        W96172   9.420  21.277  20.058 -0.2099  0.1080  0.2205
95309W        W96173  10.701  18.863  20.110 -0.0420  0.1253 -0.2377
95310W        W96174  13.737  19.273  21.531  0.0722 -0.1853  0.1557
95311W        W96175  12.539  21.986  21.769 -0.2292 -0.1275  0.2570
95312W        W96176  12.555  18.180  21.140  0.0285 -0.0378  0.1716
95313W        W96177  12.327  18.896  21.530 -0.2041  0.1843 -0.3679
95314W        W96178  11.439  21.597  20.441  0.2962 -0.2812  0.3295
95315W        W96179  12.937  21.675  19.916 -0.0146 -0.0967  0.1861
95316W        W96180  14.863  20.222  19.387 -0.2373 -0.0091 -0.5488
95317W        W96181  12.387  22.271  21.353 -0.0704 -0.0360 -0.0070
95318W        W96182   9.123  21.100  21.576 -0.1989 -0.1399  0.0153
95319W        W96183  15.843  20.610  17.145  0.4094 -0.1369  0.0173
95320W        W96184  13.081  20.706  20.663  0.0069  0.0781  0.0942
95321W        W96185   8.475  19.919  19.213  0.2530  0.1806 -0.4066
95322W        W96186  15.449  21.128  20.676 -0.0768 -0.1895 -0.5150
95323W        W96187  14.000  19.894  17.457  0.2897  0.1470 -0.1357
95324W        W96188  12.967  18.703  22.489 -0.0304  0.0522  0.1200
95325W        W96189  14.468  21.115  16.014  0.0108  0.4318 -0.0502
95326W        W96190   9.898  20.815  18.642  0.0044  0.0434 -0.2613
95327W        W96191  11.428  21.572  26.925 -0.0555 -0.1925 -0.3578
95328W        W96192  12.121  21.239  23.569  0.0697  0.0181  0.3360
95329W        W96193  15.092  20.705  23.188  0.0229  0.0757  0.1156
95330W        W96194  11.667  20.344  23.422 -0.2868  0.0147  0.0340
95331W        W96195  10.605  22.563  24.519  0.1430 -0.0305  0.1060
95332W        W96196  11.433  18.791  21.750  0.1107 -0.0248 -0.1048
95333W        W96197  12.092  19.077  22.444 -0.4866 -0.1846  0.0152
95334W        W96198  14.684  23.822  22.932  0.1944  0.6053  0.1865
95335W        W96199  10.466  19.998  25.854 -0.0207  0.2221 -0.2504
95336W        W96200  10.227  20.030  24.128 -0.1716  0.1561  0.0956
95337W        W96201  10.631  19.289  24.723 -0.2429  0.0348  0.1795
95338W        W96202  10.305  19.769  21.042  0.3148 -0.1244 -0.0975
95339W        W96203  14.825  16.214  22.049 -0.0078  0.2963 -0.0680
95340W        W96204  14.301  19.049  27.125  0.2169 -0.1530 -0.3013
95341W        W96205  10.104  20.785  25.370  0.0133 -0.0429 -0.0799
95342W        W96206  12.022  19.457  25.509 -0.4405  0.0673 -0.1954
95343W        W96207   9.684  20.327  22.648 -0.0492  0.1247 -0.1317
95344W        W96208  11.058  21.872  24.778 -0.1298 -0.0672  0.1409
95345W        W96209  13.386  20.423  27.243  0.2049  0.0942 -0.1914
95346W        W96210  15.093  16.452  23.105  0.0680  0.1477 -0.0549
95347W        W96211  13.725  18.690  24.112  0.1265 -0.1177 -0.0225
95348W        W96212  13.537  20.310  23.357  0.0537  0.1521 -0.0083
95349W        W96213  12.969  20.746  24.580  0.4219 -0.2075  0.1325
95350W        W96214  10.322  20.836  21.112 -0.1144  0.2307 -0.0709
95351W        W96215   8.793  17.877  23.737  0.5775 -0.0685 -0.0626
95352W        W96216  13.929  21.138  26.302  0.0233 -0.3252  0.2389
95353W        W96217  16.794  21.069  26.771  0.2257 -0.1563  0.2009
95354W        W96218  11.919  22.495  24.735 -0.0904 -0.1710 -0.0696
95355W        W96219  14.023  18.846  23.128  0.2347 -0.0358  0.2002
95356W        W96220  12.037  17.234  22.699  0.1412  0.0502 -0.2148
95357W        W96221  13.714  21.408  22.989 -0.1216  0.0753 -0.0552
95358W        W96222  12.303  20.821  26.957  0.2125 -0.3076 -0.2175
95359W        W96223  11.920  23.654  26.745  0.0593  0.0120  0.0833
95360W        W96224  11.833  22.042  26.722 -0.2857 -0.0777  0.2785
95361W        W96225  10.130  19.803  26.816  0.1820  0.0954 -0.0882
95362W        W96226  13.259  19.351  24.782  0.0443 -0.4224 -0.1143
95363W        W96227  10.811  18.955  23.266 -0.0487 -0.2420 -0.1715
95364W        W96228  13.023  19.683  23.511 -0.6031  0.1550 -0.0029
95365W        W96229  10.781  21.138  23.108 -0.1203 -0.2215  0.0762
95366W        W96230  13.256  19.572  22.355 -0.4127 -0.0037 -0.0782
95367W        W96231  16.021  18.768  23.797  0.2055 -0.1075  0.1608
95368W        W96232  14.836  19.233  25.100  0.0793 -0.1203 -0.0888
95369W        W96233  13.808  20.843  24.745 -0.1987  0.2505  0.1352
95370W        W96234  15.919  21.310  24.947 -0.0489  0.2827  0.1411
95371W        W96235  12.953  23.165  23.061  0.2666 -0.3274  0.0524
95372W        W96236  13.981  23.334  24.067  0.5482 -0.0263  0.3085
95373W        W96237  12.418  15.947  25.113 -0.7194 -0.0800 -0.2055
95374W        W96238  13.197  21.208  24.557  0.2255 -0.1073 -0.2580
95375W        W96239  15.359  20.526  22.290 -0.0423 -0.1537  0.1347
95376W        W96240  13.313  20.263  20.828 -0.0288  0.4303  0.0206
95377W        W96241   9.610  20.921  26.149 -0.0790 -0.0940 -0.0091
95378W        W96242  10.452  21.002  21.661  0.0375  0.0717 -0.1757
95379W        W96243  13.922  21.179  23.555 -0.0142 -0.1280 -0.3244
95380W        W96244  13.972  19.407  23.636  0.0885 -0.0755  0.0347
95381W        W96245  13.462  18.447  21.591  0.0067 -0.1599 -0.1495
95382W        W96246   9.658  20.656  21.810  0.1067 -0.0215 -0.0220
95383W        W96247  10.378  20.623  25.790  0.1295  0.3317  0.0722
95384W        W96248  14.145  17.660  23.763 -0.1955 -0.0252 -0.2631
95385W        W96249  11.601  21.048  22.512  0.3606  0.1841 -0.1376
95386W        W96250  14.875  20.790  24.265 -0.1136  0.1722 -0.1546
95387W        W96251  16.405  19.803  22.739 -0.0033  0.1708 -0.2683
95388W        W96252  11.363  22.637  24.882 -0.0556  0.2741  0.0977
95389W        W96253  13.035  21.686  25.555  0.4818 -0.0747  0.1401
95390W        W96254  11.816  19.393  22.970 -0.1464 -0.2410  0.1488
95391W        W96255   9.980  20.150  23.586  0.2870 -0.2761 -0.2160
95392W        W96256  15.969  18.367  24.597 -0.2840  0.2896  0.2084
95393W        W96257   9.141  20.072  22.846 -0.4192  0.1702  0.1671
95394W        W96258  10.799  20.163  22.887  0.2091 -0.2830 -0.0201
95395W        W96259  12.632  21.511  25.213  0.0050 -0.1447 -0.1736
95396W        W96260  10.713  21.807  21.784 -0.0274  0.1175 -0.0953
95397W        W96261  12.308  17.820  24.196 -0.1710  0.0764 -0.1350
95398W        W96262   8.889  21.251  24.034  0.1476 -0.2301  0.3798
95399W        W96263  14.542  19.590  23.318 -0.0797 -0.0590  0.0252
95400W        W96264  12.863  19.066  25.063  0.1209 -0.1415 -0.1988
95401W        W96265  16.257  22.060  24.400  0.1720 -0.0609 -0.1578
95402W        W96266  15.574  17.657  22.035  0.0405  0.2577 -0.3991
95403W        W96267   9.846  21.599  24.479  0.1537 -0.0763  0.1859
95404W        W96268  12.780  19.498  24.792  0.1873 -0.0446  0.4296
95405W        W96269  11.804  20.065  23.915  0.3314 -0.2146 -0.0330
95406W        W96270  12.291  18.366  21.542 -0.3158  0.2291 -0.0729
95407W        W96271  14.676  18.243  23.042 -0.1172  0.4269  0.0380
95408W        W96272  14.414  16.427  24.961 -0.1964 -0.0628 -0.0338
95409W        W96273  10.916  21.567  23.047 -0.0493 -0.0674 -0.3169
95410W        W96274  14.866  20.646  22.325 -0.0771  0.1953  0.4394
95411W        W96275  14.414  16.996  25.097  0.0755 -0.0238 -0.0074
95412W        W96276  11.827  20.848  23.376 -0.2120  0.0252  0.5000
95413W        W96277  12.286  21.048  26.491 -0.3290  0.2657 -0.0436
95414W        W96278  10.227  16.892  26.314 -0.1510 -0.0339 -0.1467
95415W        W96279  15.761  19.118  26.470 -0.2197 -0.2985  0.2332
95416W        W96280  14.083  20.740  26.069  0.0482  0.0374 -0.0561
95417W        W96281  10.457  17.155  25.434 -0.2437  0.1931  0.0201
95418W        W96282  12.509  19.755  27.723 -0.1982 -0.1297 -0.3147
95419W        W96283   9.515  22.276  22.069 -0.4069 -0.0920 -0.0638
95420W        W96284  12.540  18.554  21.917 -0.0487  0.2320 -0.1630
95421W        W96285  13.296  21.441  24.152 -0.1373 -0.1341 -0.3076
95422W        W96286  12.583  17.235  20.425 -0.0700 -0.0290 -0.0167
95423W        W96287  14.640  20.942  23.167 -0.1484  0.1055  0.1619
95424W        W96288  14.853  19.485  25.555 -0.1998 -0.4500  0.0211
95425W        W96289  10.948  20.065  23.821 -0.1227 -0.0848 -0.3589
95426W        W96290  15.154  22.094  25.388 -0.1793  0.3326 -0.0904
95427W        W96291  14.144  19.517  22.344  0.0854 -0.2481 -0.1948
95428W        W96292  11.459  21.926  23.643 -0.1305 -0.3083 -0.0808
95429W        W96293  15.820  19.313  21.301 -0.0206 -0.1580  0.1768
95430W        W96294  15.780  20.336  22.693  0.1157  0.1093  0.1881
95431W        W96295  15.397  17.504  24.077  0.3126 -0.0985 -0.0286
95432W        W96296  13.298  18.019  23.824 -0.0105  0.2752  0.0401
95433W        W96297  15.569  18.298  22.914 -0.0529 -0.1769  0.0430
95434W        W96298  10.943  22.246  23.628  0.2154 -0.0060 -0.4257
95435W        W96299  16.889  16.951  23.572  0.1667  0.2317 -0.0026
95436W        W96300  11.354  20.518  27.454 -0.4881  0.0408 -0.3837
95437W        W96301  11.415  24.063  24.585  0.0965  0.0552  0.0497
95438W        W96302  12.820  19.270  22.621 -0.1750  0.2101 -0.0048
95439W        W96303  13.709  18.955  23.603  0.1515  0.1989  0.0859
95440W        W96304  15.139  19.881  25.698 -0.2939 -0.2825 -0.0763
95441W        W96305  14.876  20.457  20.321 -0.0089  0.3701  0.0505
95442W        W96306  10.730  22.495  24.045  0.0376  0.3802 -0.2962
95443W        W96307  14.082  17.257  24.800 -0.3364 -0.0907  0.0941
95444W        W96308  12.298  21.018  25.081  0.2039 -0.2429 -0.0454
95445W        W96309  14.199  18.317  22.913 -0.0149 -0.1529 -0.1432
95446W        W96310  12.566  21.976  24.946  0.0757  0.1124  0.1568
95447W        W96311  17.066  20.902  22.758  0.3627 -0.0264 -0.1829
95448W        W96312  15.022  19.088  24.647 -0.1900  0.0585 -0.2378
95449W        W96313  13.478  20.455  23.945 -0.2408  0.3937  0.1091
95450W        W96314  14.585  17.527  22.490 -0.2134 -0.1644  0.1177
95451W        W96315  13.176  19.679  24.020  0.0215 -0.2578 -0.0010
95452W        W96316  17.902  19.672  22.093  0.0193  0.1469  0.2190
95453W        W96317  10.707  21.080  24.950 -0.2249 -0.1482 -0.1113
95454W        W96318  13.207  20.112  25.331 -0.0360  0.2018 -0.0185
95455W        W96319  14.038  20.228  26.640 -0.0959  0.1995  0.2479
95456W        W96320  13.030  19.653  22.832 -0.1174 -0.0333 -0.0070
95457W        W96321  13.940  19.718  26.508 -0.1257  0.3419  0.0590
95458W        W96322  13.976  19.773  23.306 -0.1911  0.0183 -0.3307
95459W        W96323  13.578  21.324  21.987  0.1489 -0.0695  0.0886
95460W        W96324  14.573  18.602  20.742  0.0384  0.2656 -0.0808
95461W        W96325  13.288  17.161  23.051 -0.2260  0.0027  0.1225
95462W        W96326  11.236  21.375  26.267 -0.3173 -0.1336  0.0584
95463W        W96327  12.040  18.357  23.932  0.2719 -0.2832  0.1463
95464W        W96328  15.893  18.622  23.326  0.3770 -0.0660  0.1223
95465W        W96329  11.307  21.885  24.341  0.1476 -0.3387 -0.4229
95466W        W96330  12.432  19.470  22.357 -0.0535 -0.1819 -0.1778
95467W        W96331   9.612  19.806  23.603 -0.2249  0.6627  0.0398
95468W        W96332  11.979  16.656  24.825  0.4117  0.0103 -0.3377
95469W        W96333  11.069  23.391  22.703 -0.0392  0.2883 -0.2406
95470W        W96334  12.014  20.408  23.085 -0.3203  0.3532 -0.5214
95471W        W96335  12.712  19.580  24.264 -0.0480 -0.0751  0.0556
95472W        W96336  13.419  16.480  24.344  0.1779  0.1990  0.1466
95473W        W96337  14.834  19.386  21.209 -0.2648 -0.0464 -0.0458
95474W        W96338  14.782  20.000  27.239  0.0114  0.4375  0.0106
95475W        W96339  12.631  20.656  24.088 -0.2671 -0.1074 -0.3160
95476W        W96340  16.610  19.842  24.366 -0.0568  0.2714 -0.0492
95477W        W96341  14.619  22.109  23.731  0.3321  0.1919 -0.0820
95478W        W96342  12.126  21.359  25.968  0.0743  0.0348 -0.1673
95479W        W96343  11.659  22.714  26.343 -0.1638 -0.0623  0.0042
95480W        W96344  13.130  20.147  23.722 -0.0566 -0.1576  0.0272
95481W        W96345  14.461  19.691  26.391  0.3272 -0.3099 -0.1682
95482W        W96346  13.766  19.518  25.857 -0.0831  0.0611 -0.0326
95483W        W96347  11.705  19.870  23.211 -0.1393 -0.1862  0.0458
95484W        W96348  11.640  18.909  24.416 -0.0648  0.0206 -0.0433
95485W        W96349  13.424  17.524  21.792  0.0657 -0.2011 -0.0375
95486W        W96350  10.677  22.485  22.461  0.2079 -0.0969 -0.1225
95487W        W96351  14.576  18.802  23.802 -0.1237 -0.2224 -0.1177
95488W        W96352  12.915  20.610  25.280 -0.3151  0.0228 -0.1631
95489W        W96353  13.026  18.829  25.419  0.1885 -0.0004 -0.4248
95490W        W96354  13.278  19.218  25.672  0.1385  0.0145  0.3386
95491W        W96355  15.290  20.060  27.374  0.1509  0.0203  0.1356
95492W        W96356   9.521  20.318  23.521 -0.1540  0.1766 -0.4548
95493W        W96357   9.285  18.747  24.485 -0.0079 -0.0958  0.0077
95494W        W96358  11.303  19.507  23.248 -0.2629  0.0814  0.0867
95495W        W96359  11.067  23.076  26.760  0.1954 -0.2980 -0.3017
95496W        W96360  10.569  20.639  24.586 -0.0633  0.0674 -0.0848
95497W        W96361  15.044  17.693  22.269  0.4520  0.1367  0.0995
95498W        W96362  15.055  20.238  23.257 -0.1451 -0.0463  0.0551
95499W        W96363  11.372  19.105  22.951 -0.2420  0.0653  0.0222
95500W        W96364  13.193  23.247  22.628  0.0475  0.0255  0.2419
95501W        W96365  14.733  21.872  24.350 -0.0663 -0.3956 -0.0079
95502W        W96366  16.155  18.964  21.236  0.0236  0.0788  0.0587
95503W        W96367   9.107  19.209  26.713 -0.1799 -0.1273 -0.2388
95504W        W96368  12.507  20.613  24.944  0.0615 -0.1353 -0.0712
95505W        W96369  10.405  24.831  20.943  0.1179  0.3927 -0.1466
95506W        W96370  13.065  20.653  22.490 -0.0583  0.0516  0.1436
95507W        W96371  13.467  19.794  23.232 -0.2784 -0.0643  0.1565
95508W        W96372  15.964  20.368  21.610  0.0656  0.0011  0.0393
95509W        W96373   8.308  18.623  22.554  0.0792 -0.0520 -0.0991
95510W        W96374  12.802  17.336  22.329  0.4156 -0.1978  0.2086
95511W        W96375  13.755  19.302  23.151  0.0189  0.0629  0.0233
95512W        W96376  13.690  18.748  25.494 -0.0107 -0.2737  0.1987
95513W        W96377   9.163  18.515  23.937  0.0840 -0.1339 -0.3140
95514W        W96378  11.447  22.885  24.058 -0.0501  0.0598 -0.1764
95515W        W96379  15.248  20.676  24.680 -0.2018  0.2198 -0.3336
95516W        W96380   9.928  20.401  22.239 -0.0393  0.2248  0.0425
95517W        W96381  10.817  23.176  23.679 -0.3543 -0.1599 -0.4748
95518W        W96382   9.691  20.867  24.796 -0.1350  0.4842  0.1589
95519W        W96383  14.388  17.720  24.937 -0.0440  0.2187  0.0511
95520W        W96384  11.082  16.899  25.003  0.0743 -0.2006 -0.2952
95521W        W96385  10.320  20.536  23.576 -0.1249  0.1134  0.2842
95522W        W96386  15.514  18.764  23.615  0.1643 -0.0019 -0.2679
95523W        W96387   8.807  18.979  23.544 -0.2603  0.0442  0.2867
95524W        W96388   9.490  21.226  25.735  0.2366  0.2109  0.1491
95525W        W96389  14.715  18.327  23.585  0.0468  0.3632  0.0403
95526W        W96390  12.116  19.148  21.170  0.2439  0.0557 -0.1399
95527W        W96391  16.465  20.425  21.964 -0.4092  0.0157  0.1318
95528W        W96392  15.552  19.515  22.250 -0.0802  0.2096  0.1503
95529W        W96393   7.333  18.785  23.346  0.3983 -0.1977 -0.3497
95530W        W96394  13.331  17.966  24.355 -0.2714 -0.1687  0.1144
95531W        W96395  12.104  18.175  20.869 -0.3095 -0.3204 -0.1404
95532W        W96396  11.599  19.169  26.498 -0.0568  0.1869 -0.3971
95533W        W96397  12.453  18.472  24.222 -0.4298  0.0025 -0.3008
95534W        W96398  12.406  21.095  23.091 -0.0502 -0.2293 -0.2316
95535W        W96399  11.110  19.922  22.455  0.1608 -0.1642 -0.0974
95536W        W96400  12.100  18.318  25.596  0.2180 -0.2117 -0.2471
95537W        W96401  10.742  18.632  22.493  0.2143 -0.4856  0.0600
95538W        W96402  11.005  21.760  22.235  0.1492  0.2881 -0.0478
95539W        W96403  14.368  18.698  26.760 -0.0084  0.1256  0.0917
95540W        W96404  14.845  22.627  23.967  0.4675 -0.0096 -0.3464
95541W        W96405  13.712  19.333  22.601 -0.0851  0.0561 -0.1988
95542W        W96406  11.668  23.494  25.422  0.0763 -0.1024  0.0977
95543W        W96407  15.582  20.573  20.816 -0.1016  0.2540  0.0777
95544W        W96408  16.554  18.737  25.239 -0.1362 -0.2321 -0.5145
95545W        W96409  10.917  19.184  27.097 -0.0090  0.1332  0.2052
95546W        W96410  14.829  20.830  26.497 -0.2139 -0.3469 -0.1327
95547W        W96411  13.631  17.629  25.026  0.0215 -0.0067  0.0040
95548W        W96412  13.534  23.337  25.139 -0.0595 -0.0159 -0.0395
95549W        W96413  14.060  18.015  21.114 -0.1423  0.4967 -0.2051
95550W        W96414  14.167  21.073  21.966 -0.1535  0.0188 -0.0439
95551W        W96415  13.701  21.206  24.395  0.1952 -0.0131  0.1670
95552W        W96416  12.659  20.869  25.622  0.2390 -0.0646 -0.3995
95553W        W96417  14.616  17.342  25.649 -0.1963  0.1589 -0.2287
95554W        W96418  15.531  24.191  23.385  0.2453  0.0842  0.0568
95555W        W96419  13.037  20.771  26.261  0.3194 -0.2099  0.0812
95556W        W96420  11.543  18.889  24.894 -0.1409  0.0283 -0.0188
95557W        W96421  14.265  17.981  22.527  0.0915 -0.1569  0.2091
95558W        W96422  11.540  20.266  22.851 -0.1676  0.0351  0.0162
95559W        W96423  14.338  17.695  20.881  0.1083  0.0498 -0.0008
95560W        W96424  11.332  19.045  27.497  0.0900  0.0286  0.1504
95561W        W96425  12.780  20.229  22.100 -0.0549  0.2938 -0.0952
95562W        W96426  15.078  21.267  20.037  0.1219  0.1918 -0.2381
95563W        W96427  12.625  20.090  25.303  0.0152 -0.1631  0.0835
95564W        W96428  13.691  18.260  20.476  0.0451 -0.0750  0.1267
95565W        W96429  14.806  19.660  26.819 -0.3089 -0.0687  0.3072
95566W        W96430  14.624  20.631  21.868  0.1020 -0.0441  0.1979
95567W        W96431   8.093  21.088  25.196  0.0138  0.2552  0.1611
95568W        W96432  11.018  20.611  25.026 -0.2055  0.1237  0.1251
95569W        W96433  12.480  17.160  26.531 -0.1198  0.1395  0.1346
95570W        W96434  14.234  18.577  24.553  0.0370  0.0014 -0.0292
95571W        W96435  14.819  18.614  21.190  0.2465 -0.0805  0.5180
95572W        W96436  14.121  15.268  24.915 -0.2028 -0.1508 -0.0243
95573W        W96437  11.051  21.435  23.477 -0.0952 -0.3850  0.0567
95574W        W96438  16.730  20.797  24.558  0.0830  0.1512  0.0870
95575W        W96439  10.712  21.352  22.557 -0.2733 -0.2975  0.0222
95576W        W96440  10.519  20.438  22.374  0.1746  0.0214 -0.0997
95577W        W96441  12.195  20.189  24.919  0.1251  0.0453  0.0601
95578W        W96442  14.097  19.932  25.839 -0.1870 -0.1203  0.3846
95579W        W96443  11.805  20.297  24.417 -0.2426  0.0584  0.0416
95580W        W96444  11.583  21.446  23.566 -0.0259 -0.3115  0.1107
95581W        W96445  15.471  20.023  21.553 -0.0785 -0.0989  0.0744
95582W        W96446  14.310  19.091  23.484 -0.1728 -0.1543 -0.1762
95583W        W96447  11.461  21.185  24.452  0.1586  0.0783  0.1768
95584W        W96448  12.528  19.093  24.444  0.0320 -0.0536  0.0940
95585W        W96449  17.171  19.157  24.151 -0.2404  0.0809 -0.0661
95586W        W96450  14.844  19.223  22.614  0.0552  0.1469  0.1937
95587W        W96451  13.769  18.723  24.776  0.3707 -0.1372 -0.0969
95588W        W96452  14.275  19.024  22.521 -0.3218 -0.0301 -0.0284
95589W        W96453  12.945  17.412  27.266  0.0972 -0.0137  0.3139
95590W        W96454  13.066  20.917  24.037 -0.1629 -0.1477 -0.0053
95591W        W96455  11.562  21.554  27.896 -0.0455 -0.1973 -0.0022
95592W        W96456   7.911  20.130  21.295 -0.0826  0.2135 -0.0196
95593W        W96457  16.197  16.715  24.087 -0.0686  0.0628  0.0514
95594W        W96458  11.925  18.693  26.312 -0.0191 -0.2060 -0.1439
95595W        W96459  15.583  18.215  23.485  0.0980 -0.1099 -0.3182
95596W        W96460  13.614  19.083  22.170  0.1881  0.1085 -0.0347
95597W        W96461  11.194  19.967  23.189 -0.0272 -0.0883 -0.1958
95598W        W96462  11.213  16.725  26.329  0.1415  0.2225  0.1309
95599W        W96463  11.763  20.677  23.832 -0.0332 -0.0216  0.1070
95600W        W96464  13.569  23.450  22.900 -0.0882 -0.1287  0.1448
95601W        W96465  17.153  19.092  24.802  0.0852  0.1179  0.0355
95602W        W96466  11.174  20.677  27.021 -0.0095  0.0033 -0.0671
95603W        W96467   8.886  20.436  21.067 -0.1325  0.3357  0.0324
95604W        W96468  12.146  18.642  20.544  0.0142  0.0499 -0.2374
95605W        W96469   9.162  21.901  25.498 -0.1127  0.0772 -0.4274
95606W        W96470  12.367  19.206  25.013  0.0047 -0.2762  0.1018
95607W        W96471  11.666  18.838  22.331 -0.0409  0.3482  0.3136
95608W        W96472  10.400  22.838  24.958 -0.1150 -0.0628 -0.0462
95609W        W96473  11.725  21.870  21.869  0.0139 -0.2598 -0.0077
95610W        W96474  13.621  16.955  24.590  0.1688 -0.0845 -0.0104
95611W        W96475  14.152  17.757  26.457  0.0106 -0.0977 -0.3527
95612W        W96476  14.772  18.353  24.084  0.3513  0.0920 -0.2471
95613W        W96477  11.652  20.114  27.249  0.3132 -0.2376 -0.2564
95614W        W96478  15.892  17.098  24.230 -0.0484  0.1596  0.2357
95615W        W96479  12.238  19.429  24.181 -0.0382 -0.0273  0.1462
95616W        W96480  13.578  20.653  22.544 -0.3765  0.1466  0.1462
95617W        W96481  13.847  16.621  19.450  0.0949  0.2029 -0.1013
95618W        W96482  12.657  19.930  26.118  0.0238 -0.1062  0.0963
95619W        W96483  13.656  20.233  22.903 -0.1127  0.0619  0.3602
95620W        W96484  10.810  22.929  22.687  0.2246 -0.1340  0.2433
95621W        W96485  10.481  19.792  23.091  0.0989 -0.2583 -0.3031
95622W        W96486   9.715  19.906  22.225  0.1089 -0.1152 -0.0879
95623W        W96487  14.004  19.960  24.913  0.0105  0.2973  0.1178
95624W        W96488  13.446  20.324  25.712 -0.4200  0.1548 -0.1029
95625W        W96489  10.249  20.139  22.602 -0.0270  0.2354 -0.1914
95626W        W96490   9.006  21.866  22.776 -0.0668 -0.1397  0.3266
95627W        W96491  13.211  18.410  23.194  0.2511  0.1941  0.3276
95628W        W96492  13.184  23.389  23.902 -0.0578 -0.1481  0.1020
95629W        W96493  15.839  20.391  20.190  0.0260 -0.0257 -0.3448
95630W        W96494  10.440  18.674  23.081  0.0089 -0.1209 -0.3997
95631W        W96495  14.760  24.636  25.981  0.0308  0.0656 -0.4339
95632W        W96496  15.243  21.945  25.853  0.0549  0.1602 -0.1415
95633W        W96497  13.513  16.384  20.637  0.1556  0.1129  0.1630
95634W        W96498  14.672  19.653  22.239 -0.0619 -0.0071 -0.1812
95635W        W96499   9.990  21.601  25.671  0.0374 -0.2867 -0.0296
95636W        W96500  11.926  18.787  19.349 -0.1060  0.1007 -0.1735
95637W        W96501  11.931  20.221  27.925  0.0331  0.1466  0.0316
95638W        W96502  13.586  18.997  21.155  0.1998 -0.0576  0.1419
95639W        W96503  14.038  19.648  22.806  0.0400 -0.0699 -0.2096
95640W        W96504  10.762  22.782  25.553 -0.0463  0.0885  0.2530
95641W        W96505  11.216  20.062  26.958  0.1928 -0.0966 -0.0697
95642W        W96506  12.400  17.693  20.755  0.3989  0.2284  0.2407
95643W        W96507  15.090  17.033  23.085  0.1749 -0.2494 -0.2586
95644W        W96508  13.211  22.265  27.772 -0.1369 -0.0010  0.1924
95645W        W96509  12.651  20.022  24.037 -0.1219  0.0883 -0.0271
95646W        W96510  15.018  19.538  23.025 -0.1124 -0.1022  0.0131
95647W        W96511  15.079  21.262  24.816  0.1867  0.0055 -0.2592
95648W        W96512  12.556  20.479  26.301  0.1155  0.1426 -0.0448
95649W        W96513  13.030  17.768  22.971  0.1417  0.1171 -0.2248
95650W        W96514  12.756  20.148  21.570  0.5665 -0.2730  0.1651
95651W        W96515  11.959  23.897  23.728  0.1946  0.2570  0.1662
95652W        W96516  13.970  19.539  21.898  0.1733  0.2216 -0.0692
95653W        W96517  12.256  20.948  23.945  0.2417 -0.2997 -0.0345
95654W        W96518  14.602  19.698  21.756 -0.0231 -0.2502  0.0499
95655W        W96519  12.089  22.146  25.126  0.1515  0.1105  0.0568
95656W        W96520  11.216  18.656  24.538  0.2538 -0.1802 -0.1288
95657W        W96521  15.176  19.836  18.730  0.1218  0.0659  0.3665
95658W        W96522  15.023  19.705  23.481 -0.0517 -0.0432 -0.0773
95659W        W96523  14.813  21.257  25.263  0.0110  0.2616  0.0280
95660W        W96524  16.641  19.834  23.697 -0.1516  0.1600  0.0240
95661W        W96525  11.905  24.181  26.703  0.2914 -0.0361  0.2960
95662W        W96526  14.062  21.615  23.301 -0.0653  0.0918 -0.1953
95663W        W96527  12.715  18.889  21.200 -0.2755  0.1985  0.2797
95664W        W96528  11.953  18.098  21.818  0.2711 -0.2937  0.0983
95665W        W96529  12.901  19.408  21.930  0.0120 -0.0674 -0.2708
95666W        W96530  11.788  21.140  23.989 -0.1672  0.0586  0.1376
95667W        W96531  11.947  17.122  24.956 -0.1099  0.1354  0.1123
95668W        W96532  14.275  20.648  23.821  0.0470  0.1361 -0.1073
95669W        W96533  10.962  18.981  24.301 -0.1894 -0.1221 -0.1246
95670W        W96534  12.659  20.780  21.392  0.3039 -0.0067 -0.0796
95671W        W96535  10.164  22.360  26.009  0.2951 -0.2909  0.0840
95672W        W96536   9.901  19.484  20.235 -0.1187 -0.0196  0.1033
95673W        W96537  10.657  19.852  24.174 -0.1355 -0.0487 -0.0524
95674W        W96538  12.319  21.500  20.705 -0.1563 -0.3454 -0.0484
95675W        W96539  11.335  21.591  21.868  0.2174  0.0714 -0.0873
95676W        W96540  13.324  20.224  22.487  0.5392 -0.1969  0.2734
95677W        W96541  15.016  18.988  19.687 -0.3194 -0.3038 -0.2263
95678W        W96542  14.242  18.480  22.448  0.0390  0.1831  0.0258
95679W        W96543  11.237  21.263  22.982 -0.3359 -0.3036 -0.2901
95680W        W96544  11.186  22.084  21.817  0.3206  0.0194 -0.1314
95681W        W96545  17.003  18.239  23.128 -0.1047 -0.1266 -0.1452
95682W        W96546  14.577  17.978  22.144  0.0214  0.0240  0.1257
95683W        W96547  12.217  17.866  27.217  0.1012  0.0723 -0.5448
95684W        W96548  12.739  15.856  28.686  0.1113  0.0004 -0.0184
95685W        W96549  13.448  19.395  23.533  0.2658  0.0432  0.2747
95686W        W96550  11.781  19.995  20.651  0.0122 -0.2986 -0.1875
95687W        W96551  13.846  20.598  25.639  0.0989 -0.2583 -0.0278
95688W        W96552  11.276  20.427  23.635 -0.3301 -0.0766 -0.0264
95689W        W96553  12.193  20.301  22.626  0.0310 -0.3464 -0.2614
95690W        W96554  11.335  20.706  22.165  0.1806 -0.0208 -0.1524
95691W        W96555  15.517  21.163  25.878  0.0214  0.1340  0.2290
95692W        W96556  15.795  20.692  24.560  0.2455  0.2014  0.2555
95693W        W96557  11.477  20.517  24.776 -0.0578 -0.2445  0.2824
95694W        W96558  14.507  16.581  22.219  0.1224  0.2255  0.0621
95695W        W96559  15.585  18.924  24.059 -0.1512 -0.0572  0.2135
95696W        W96560  12.621  19.093  23.436 -0.0709 -0.2949  0.2169
95697W        W96561  13.314  17.316  25.470  0.0158  0.0359  0.2168
95698W        W96562  11.923  22.608  23.363 -0.1123 -0.4041 -0.0082
95699W        W96563  13.977  20.254  23.925 -0.0714  0.0779 -0.1390
95700W        W96564  12.492  19.930  22.905 -0.0079 -0.1470 -0.2246
95701W        W96565  11.352  19.297  24.293 -0.0830  0.3111 -0.1516
95702W        W96566  10.890  21.835  27.143  0.2503  0.0783  0.0553
95703W        W96567  15.323  20.845  26.693 -0.2307  0.0977 -0.1838
95704W        W96568  13.286  19.365  27.370 -0.1487  0.4691  0.1112
95705W        W96569  10.441  19.678  24.567 -0.1162  0.0142  0.1332
95706W        W96570  12.662  18.923  24.011 -0.2086 -0.2564 -0.2954
95707W        W96571  11.369  21.436  23.975  0.1734  0.0430  0.1186
95708W        W96572  10.339  20.259  23.149 -0.1761  0.1569 -0.0159
95709W        W96573  14.742  19.770  25.998  0.1624  0.0230  0.0932
95710W        W96574  14.559  20.485  22.755  0.1260  0.0739  0.1687
95711W        W96575  13.827  17.080  22.757  0.0927  0.2608 -0.2896
95712W        W96576  12.694  20.987  23.672 -0.1799  0.4200 -0.1825
95713W        W96577  12.736  20.229  22.635  0.0637  0.0789 -0.2889
95714W        W96578  14.202  23.433  21.188  0.1989  0.2493  0.1981
95715W        W96579  15.249  19.812  26.951 -0.3489  0.0178 -0.2109
95716W        W96580  12.486  21.387  26.875 -0.0665 -0.2070 -0.0301
95717W        W96581  12.714  23.712  23.921 -0.1441 -0.3451 -0.3474
95718W        W96582  13.092  19.853  24.596 -0.0079 -0.0331 -0.1500
95719W        W96583  14.169  20.590  23.103 -0.0886 -0.0283 -0.0070
95720W        W96584  11.934  20.800  24.316 -0.0585 -0.0395 -0.0730
95721W        W96585  10.757  16.972  25.867 -0.1169 -0.3276 -0.1838
95722W        W96586  13.052  21.004  20.228 -0.0668  0.0098 -0.4356
95723W        W96587  11.616  21.693  26.447  0.1668 -0.0799  0.0399
95724W        W96588  10.467  20.824  23.986  0.0725 -0.0957 -0.1277
95725W        W96589  13.479  18.598  22.239 -0.1135  0.1315 -0.3453
95726W        W96590   9.273  21.319   2.121 -0.0634 -0.1580  0.0375
95727W        W96591  11.655  20.408  28.704 -0.1660 -0.2078  0.1036
95728W        W96592  15.359  19.933  22.953  0.2319  0.3709 -0.1448
95729W        W96593  14.118  22.085  26.485  0.3210 -0.3311  0.1262
95730W        W96594  12.250  23.202  27.981 -0.0093 -0.2241 -0.3841
95731W        W96595  14.453  20.889  27.575 -0.0261  0.0299 -0.3998
95732W        W96596  11.389  17.583  26.443 -0.1330  0.2283 -0.2306
95733W        W96597  11.243  20.003  26.411 -0.0972  0.1426  0.2317
95734W        W96598  10.583  25.048  26.794  0.0336  0.0652 -0.2969
95735W        W96599  10.536  16.784  28.240 -0.2077 -0.2142 -0.0928
95736W        W96600  12.207  16.478  27.290  0.0548 -0.3497  0.1488
95737W        W96601  15.899  19.172  29.024  0.0353 -0.2126  0.1899
95738W        W96602  12.946  21.742  26.054 -0.0708 -0.1469  0.0626
95739W        W96603  15.204  20.472  27.730  0.1976  0.3917 -0.0193
95740W        W96604  13.252  18.459  27.785 -0.0489  0.1967 -0.0403
95741W        W96605   9.888  22.464   0.332  0.1654 -0.0475  0.1431
95742W        W96606  11.151  22.347  25.590  0.0102 -0.2546 -0.0754
95743W        W96607  11.804  17.954  27.652 -0.0602 -0.0207  0.1504
95744W        W96608  11.329  19.767   1.930  0.1036 -0.0570 -0.3828
95745W        W96609  15.039  17.059  28.815  0.0410  0.1729 -0.0664
95746W        W96610  11.593  22.512   0.508 -0.0355  0.2861  0.0499
95747W        W96611  14.261  22.125  27.012  0.1081 -0.0644 -0.1579
95748W        W96612  11.951  21.588  26.891  0.0274  0.1619  0.2717
95749W        W96613  11.524  20.946  27.230  0.0155 -0.0555 -0.1954
95750W        W96614  12.615  17.972  28.229  0.1559  0.1531 -0.1461
95751W        W96615  11.813  18.330   0.083 -0.1580  0.0065 -0.1350
95752W        W96616  14.121  19.500   1.187 -0.3424 -0.1646 -0.0417
95753W        W96617  11.577  20.080  28.291 -0.0834  0.2740  0.1533
95754W        W96618  12.824  23.155  27.974  0.1570 -0.0641  0.3021
95755W        W96619  15.107  19.557   0.167 -0.2500  0.2226  0.0962
95756W        W96620  12.067  18.443  24.494 -0.0125 -0.0831 -0.3495
95757W        W96621  12.087  22.495   0.555  0.0118 -0.1051  0.1738
95758W        W96622  14.320  20.491   1.452 -0.1238  0.1575  0.0518
95759W        W96623  11.818  20.578  27.032  0.1283 -0.0298 -0.1820
95760W        W96624  10.441  18.299   1.626 -0.3209 -0.0120  0.1165
95761W        W96625  13.013  23.342  28.507  0.0011 -0.1331  0.1734
95762W        W96626  11.775  17.059  27.915  0.1428 -0.0368  0.1084
95763W        W96627  11.601  20.235  26.219  0.1167 -0.0564  0.2920
95764W        W96628  15.424  19.393  25.462  0.0794 -0.0611 -0.1567
95765W        W96629  12.832  18.028  25.830 -0.1352  0.1726  0.2963
95766W        W96630  14.636  18.697  27.226 -0.0304 -0.3493  0.2334
95767W        W96631  14.439  21.891  28.836 -0.0145  0.0071  0.0917
95768W        W96632   9.351  23.028  26.259 -0.3573 -0.0841  0.1895
95769W        W96633  14.119  18.625  23.609  0.0273  0.0197 -0.4037
95770W        W96634  11.560  21.459  25.862 -0.2063 -0.0190 -0.1517
95771W        W96635  12.620  21.393  25.752  0.0723 -0.0304 -0.2062
95772W        W96636  11.605  18.754  27.845  0.1248 -0.0776  0.3054
95773W        W96637  13.755  18.117  26.325 -0.1633  0.1336  0.2568
95774W        W96638  13.584  22.445  29.021 -0.1669 -0.1168 -0.0367
95775W        W96639  13.514  18.032  25.354  0.0377  0.0451  0.1171
95776W        W96640  11.104  21.331  27.192  0.0385 -0.0047  0.0845
95777W        W96641  13.602  20.175  27.981 -0.3153  0.2294 -0.2063
95778W        W96642  13.219  20.907  28.959  0.3088  0.1260  0.1276
95779W        W96643  18.334  19.249  26.445  0.0310 -0.1945  0.1263
95780W        W96644  13.143  17.205  28.705  0.1275  0.1055 -0.0830
95781W        W96645  11.075  22.578  29.039 -0.2553  0.0855  0.0356
95782W        W96646  12.213  17.508  27.656  0.1666  0.0859  0.3155
95783W        W96647  15.612  19.835  27.702  0.1247 -0.1235  0.1795
95784W        W96648  11.746  19.967  25.814  0.1810  0.0054  0.0125
95785W        W96649  12.440  22.105   0.413  0.1386  0.0600 -0.1632
95786W        W96650  14.040  19.485  27.141 -0.1459 -0.0834 -0.2223
95787W        W96651  11.031  20.416  24.559  0.1490  0.0302 -0.0589
95788W        W96652   9.680  19.494  28.527 -0.0139  0.2539  0.1792
95789W        W96653  13.755  19.484  27.534  0.1044  0.1734 -0.0739
95790W        W96654  15.148  18.141  27.683  0.1872 -0.1933  0.1410
95791W        W96655  16.076  19.280  28.219  0.0261  0.1660 -0.1844
95792W        W96656   8.826  22.318  25.561 -0.2153  0.0101 -0.0968
95793W        W96657  13.059  20.476  26.765 -0.2141  0.1716  0.3651
95794W        W96658  10.349  23.367  24.870  0.0637  0.0623 -0.0983
95795W        W96659  12.458  20.376  27.922  0.1507 -0.1171  0.1595
95796W        W96660  12.349  20.660  27.479 -0.1686  0.0183 -0.1938
95797W        W96661  11.899  21.068  26.812  0.0841  0.0204  0.1296
95798W        W96662  13.498  22.351  27.385  0.0885  0.0222 -0.2171
95799W        W96663  14.394  19.696  28.793  0.1045 -0.0700 -0.0492
95800W        W96664  16.346  18.859  28.192  0.0217 -0.0190 -0.1602
95801W        W96665  11.970  18.501  28.653  0.1215 -0.4903  0.1437
95802W        W96666  12.223  20.288  27.001 -0.3294  0.2974  0.0682
95803W        W96667  10.534  22.014  27.440 -0.2855  0.0578  0.0024
95804W        W96668  15.118  17.698  27.478  0.1266  0.1050 -0.2088
95805W        W96669  14.410  18.746  28.607  0.0986 -0.0315  0.2260
95806W        W96670  11.922  19.257  26.128  0.2306  0.0945  0.0339
95807W        W96671  15.159  17.224   1.572  0.4782 -0.4342  0.0230
95808W        W96672  11.860  17.758   0.181  0.3031 -0.1973  0.3278
95809W        W96673  14.672  19.817  28.214  0.0500  0.1901  0.1589
95810W        W96674  11.700  16.703   0.837  0.0199 -0.0385 -0.1291
95811W        W96675  14.656  21.285  27.323 -0.2764  0.2001 -0.0091
95812W        W96676  12.663  20.823  28.092  0.3691 -0.0259 -0.1393
95813W        W96677  14.941  19.447   2.443  0.2833 -0.1359 -0.0256
95814W        W96678  14.182  19.712   0.526 -0.0167 -0.1711 -0.1608
95815W        W96679  15.308  17.692   1.291 -0.0237  0.0588 -0.2676
95816W        W96680  11.294  18.408  27.583  0.2401  0.2105 -0.0502
95817W        W96681  15.494  19.063   0.118 -0.2499  0.1316  0.4427
95818W        W96682  11.060  19.376  28.736 -0.1305  0.2882 -0.0068
95819W        W96683  12.759  20.849  26.701 -0.1651  0.3182  0.0952
95820W        W96684   9.635  18.273   1.952  0.2387  0.3119 -0.1036
95821W        W96685  13.246  17.632  26.908  0.0348 -0.0446  0.0304
95822W        W96686  14.122  18.596  27.240  0.1202  0.0922  0.3095
95823W        W96687  10.146  22.326   1.513  0.0389 -0.0936  0.1139
95824W        W96688  11.832  18.922  27.335  0.2397 -0.1120 -0.2508
95825W        W96689  12.817  19.587  26.892 -0.2443  0.1644 -0.0257
95826W        W96690  13.935  20.773  26.725  0.0180 -0.0184  0.1708
95827W        W96691  12.674  22.659  28.535  0.0029 -0.2011  0.0455
95828W        W96692  16.054  22.880  26.630  0.1845 -0.0891 -0.0503
95829W        W96693  14.183  23.906  27.060  0.0488  0.2579 -0.3118
95830W        W96694  14.418  23.355  27.316  0.2142  0.2577 -0.1909
95831W        W96695  11.586  22.018  28.214 -0.2819 -0.0820  0.0427
95832W        W96696  12.031  20.989  27.342  0.2374  0.1632  0.1903
95833W        W96697  13.260  19.957   0.128  0.1020 -0.3378  0.4429
95834W        W96698  15.277  19.000  25.060 -0.1767 -0.1991 -0.2310
95835W        W96699  13.352  23.198  28.055 -0.2014  0.2916  0.1339
95836W        W96700  11.124  20.841   0.251 -0.2545 -0.1265  0.0688
95837W        W96701  11.332  19.120  28.009 -0.0920 -0.1374  0.1266
95838W        W96702  14.745  18.069   0.481  0.2309  0.1903  0.1810
95839W        W96703  10.842  22.944   0.724 -0.0060 -0.1543 -0.2170
95840W        W96704  15.754  17.538  24.854 -0.1940  0.2021 -0.0898
95841W        W96705  12.875  22.494  28.054  0.1597 -0.0328  0.2793
95842W        W96706  13.918  19.757  28.821 -0.1192  0.0840  0.2199
95843W        W96707  11.924  18.980  28.707 -0.1460  0.0800 -0.0291
95844W        W96708  13.849  19.344   0.807  0.1802 -0.1210  0.0493
95845W        W96709  11.269  19.791  25.984  0.1224  0.1657  0.0739
95846W        W96710  15.817  20.570  26.558 -0.1851  0.1776  0.0902
95847W        W96711  11.361  20.987  23.788  0.2032  0.2065  0.2157
95848W        W96712  12.699  21.662  27.285  0.1301  0.0521 -0.2459
95849W        W96713   9.929  21.151  26.521  0.0903 -0.1339  0.0273
95850W        W96714  12.500  19.626   1.071  0.1103 -0.0668 -0.1978
95851W        W96715  14.947  20.915  27.572 -0.0511 -0.2520  0.0701
95852W        W96716   8.529  19.843  27.051 -0.3460 -0.0201  0.3595
95853W        W96717  14.565  19.780   1.170  0.2132  0.1326  0.0854
95854W        W96718  14.186  21.252  26.805 -0.0169  0.0668 -0.1295
95855W        W96719  10.257  22.708  26.521  0.2993  0.5202  0.2655
95856W        W96720  11.942  21.393  28.904  0.1175  0.0876  0.1165
95857W        W96721  12.883  18.156  27.784 -0.0507  0.0729 -0.1026
95858W        W96722  12.284  25.711  28.387 -0.1201 -0.1088 -0.0348
95859W        W96723  13.125  17.496  24.056  0.1877  0.0762  0.1367
95860W        W96724  15.798  18.720   1.036  0.0807 -0.2244 -0.1641
95861W        W96725  10.141  18.886   0.267  0.1841 -0.3615 -0.2465
95862W        W96726  13.165  17.767  27.945 -0.0182  0.1573 -0.0044
95863W        W96727  17.158  19.556   0.818 -0.2520  0.0142 -0.2307
95864W        W96728  11.097  18.885  28.465 -0.3684  0.2733  0.1973
95865W        W96729  12.543  23.761  26.249  0.1441 -0.1058 -0.2215
95866W        W96730  12.004  17.928  23.765 -0.0335  0.2134 -0.1018
95867W        W96731  14.296  18.757  29.085  0.2636 -0.2351 -0.0107
95868W        W96732  14.525  22.071  26.191 -0.0483 -0.2829 -0.0593
95869W        W96733  10.759  20.466  28.204 -0.3385  0.0484 -0.1646
95870W        W96734  10.294  20.823  28.235  0.1284 -0.1184  0.2969
95871W        W96735  13.546  19.472   1.151  0.0221 -0.0573 -0.0387
95872W        W96736  12.969  17.593  28.362 -0.0106 -0.2130  0.0909
95873W        W96737  13.115  20.738   0.463  0.1365 -0.1674 -0.1476
95874W        W96738  11.764  23.243   0.941 -0.0787  0.0603 -0.0246
95875W        W96739  12.953  19.723  28.458 -0.0047  0.0663  0.0251
95876W        W96740  15.657  22.021  27.967 -0.3022  0.0218 -0.1662
95877W        W96741  13.749  19.954  26.967  0.1575 -0.0774  0.1640
95878W        W96742  10.915  20.883  27.387 -0.1938  0.0676  0.1681
95879W        W96743  13.068  18.366  28.737 -0.0369  0.1718 -0.3427
95880W        W96744  16.286  18.602   1.194 -0.0737  0.0950  0.1691
95881W        W96745  15.252  19.873   2.263  0.1948  0.0912  0.2941
95882W        W96746   9.718  21.912  28.057 -0.4183 -0.3730  0.2898
95883W        W96747  14.407  18.918  26.209  0.1829  0.0354 -0.3752
95884W        W96748  14.502  17.770  22.994  0.0974  0.2707 -0.0083
95885W        W96749  12.244  19.864  28.143  0.2102 -0.1297  0.0742
95886W        W96750  14.793  18.453   0.164  0.2720  0.1441 -0.3719
95887W        W96751  10.223  21.591  28.635 -0.2087 -0.2686  0.2736
95888W        W96752  12.092  21.833  28.141  0.0755 -0.1516 -0.2396
95889W        W96753  13.599  20.622   0.595  0.0341 -0.4164 -0.2414
95890W        W96754  14.159  19.091   0.365 -0.2578  0.2093  0.3553
95891W        W96755  15.508  19.510   0.997 -0.3231 -0.0561 -0.1368
95892W        W96756  11.383  20.034  24.558 -0.5649  0.0329  0.0853
95893W        W96757  11.515  22.980  26.755  0.0432 -0.3394 -0.1825
95894W        W96758  11.129  22.789  28.540  0.0156 -0.0690  0.3174
95895W        W96759  12.334  22.408  23.817  0.1598  0.1347  0.2437
95896W        W96760  12.521  19.812  27.212  0.0090 -0.2743 -0.0989
95897W        W96761  11.558  20.709  26.661 -0.2130  0.0432  0.4029
95898W        W96762  13.127  20.954  28.033  0.0226 -0.0028  0.1268
95899W        W96763  13.051  21.222  26.572  0.1283 -0.3870  0.4855
95900W        W96764  12.622  18.367  28.534  0.0871  0.0974  0.2109
95901W        W96765  15.841  18.039  28.660 -0.2276  0.0425  0.1800
95902W        W96766   9.263  21.856  27.936 -0.2931 -0.0634  0.2027
95903W        W96767  12.573  21.155  27.768  0.0420 -0.3613 -0.0040
95904W        W96768  10.883  22.832  26.107  0.1005 -0.3363  0.2690
95905W        W96769  14.358  19.304   0.781 -0.0221 -0.0934  0.2465
95906W        W96770  11.821  17.901  26.989  0.2015 -0.0002 -0.1984
95907W        W96771  11.786  17.534  24.063 -0.0315  0.1099  0.2874
95908W        W96772  13.641  17.886  27.189 -0.1178 -0.0460 -0.1232
95909W        W96773  11.573  18.426  27.102 -0.2282  0.1591 -0.1042
95910W        W96774  13.792  17.659  27.979 -0.0386 -0.1990 -0.0606
95911W        W96775  10.649  19.705   1.574 -0.0603 -0.2373  0.0117
95912W        W96776  16.019  21.332  26.957 -0.1075 -0.1575 -0.2955
95913W        W96777  12.446  19.796  25.660 -0.0935  0.1074 -0.0805
95914W        W96778  12.020  25.061  27.636 -0.1367 -0.2235 -0.1942
95915W        W96779   9.787  21.463  26.118  0.2092 -0.0120 -0.1522
95916W        W96780   9.627  21.587  26.597  0.2519 -0.0972 -0.1061
95917W        W96781   8.757  23.764  28.077  0.0257  0.1339 -0.0605
95918W        W96782  12.824  21.631   1.473 -0.0256  0.3678 -0.1526
95919W        W96783  13.220  19.204  28.443 -0.2126  0.2438  0.1029
95920W        W96784  14.241  20.841   1.119 -0.1510 -0.0371  0.2543
95921W        W96785  12.490  18.364  27.089  0.0355 -0.2226 -0.1676
95922W        W96786  16.141  20.121  27.758 -0.3166  0.0242 -0.0285
95923W        W96787  12.140  18.632  27.631  0.0795 -0.0598  0.0245
95924W        W96788  10.152  22.131  26.504 -0.0679 -0.3050 -0.3138
95925W        W96789  16.516  20.035  26.995  0.1918  0.0748  0.0241
95926W        W96790  14.196  17.324  26.705  0.1313 -0.0715  0.2902
95927W        W96791  14.374  17.498  27.908 -0.3345  0.2491 -0.1220
95928W        W96792  13.683  20.317  24.755  0.1293 -0.1688  0.1124
95929W        W96793  14.512  14.987   0.618 -0.0693  0.0991 -0.1369
95930W        W96794  15.781  21.547  27.680  0.0212 -0.1116 -0.2588
95931W        W96795  11.176  19.972  27.415 -0.1542  0.0806  0.0332
95932W        W96796  13.046  21.662  29.108 -0.1098  0.1409  0.0243
95933W        W96797  12.489  18.423  28.989 -0.0176 -0.1283  0.1128
95934W        W96798  14.476  21.674  26.931  0.1494  0.2738  0.0318
95935W        W96799  11.909  21.114  24.709  0.0585 -0.1503 -0.0751
95936W        W96800   9.458  19.863   0.974  0.0091  0.1776 -0.2507
95937W        W96801  10.135  17.674  28.537  0.0129 -0.0416 -0.1198
95938W        W96802  12.834  21.204  28.711  0.4928  0.1435  0.1437
95939W        W96803  13.102  18.029   0.029 -0.2407 -0.2096  0.1913
95940W        W96804  15.327  18.815  28.816 -0.0717 -0.2679 -0.1772
95941W        W96805  17.318  20.528  27.498  0.1018  0.2050  0.1415
95942W        W96806  11.842  23.296  26.368  0.1945 -0.3512  0.3625
95943W        W96807  14.605  22.183  26.678  0.0755  0.1672 -0.1691
95944W        W96808  12.996  19.668  27.663 -0.1674 -0.0814 -0.1566
95945W        W96809  11.896  19.027  28.164  0.0322 -0.4879 -0.1625
95946W        W96810  13.880  21.125  27.903  0.1490  0.3953 -0.0663
95947W        W96811  14.400  22.917  28.352  0.0576  0.2382 -0.0044
95948W        W96812  15.071  20.284   3.547 -0.1499  0.1375  0.0804
95949W        W96813  13.241  18.651  26.908 -0.2706 -0.2973  0.1074
95950W        W96814  14.612  20.478  27.837 -0.0094  0.0780  0.2896
95951W        W96815  11.943  19.880  28.562  0.4143 -0.1212  0.1792
95952W        W96816   8.699  19.775   1.614 -0.2659  0.1447  0.3247
95953W        W96817  14.586  20.759   0.195 -0.1086  0.0826  0.1129
95954W        W96818  14.369  20.281  27.379 -0.0020 -0.0635  0.0317
95955W        W96819  11.914  20.094   1.484  0.0894 -0.0970 -0.1169
95956W        W96820  16.568  18.157   0.737  0.1281 -0.2327  0.2053
95957W        W96821  11.341  22.346  28.481  0.0759  0.1007 -0.1227
95958W        W96822  11.333  20.659  28.420  0.4364  0.1047 -0.1563
95959W        W96823  14.386  22.512  28.646 -0.0339 -0.2917 -0.1284
95960W        W96824  14.067  17.497   1.573 -0.2310  0.1176  0.2751
95961W        W96825  10.594  21.127  25.714 -0.1806  0.0433  0.1306
95962W        W96826  15.186  19.417  25.930 -0.0612  0.0461 -0.0038
95963W        W96827  14.174  18.773   0.859 -0.1774  0.0823  0.4489
95964W        W96828  12.375  19.704   0.484 -0.0986  0.0777 -0.2566
95965W        W96829  12.294  21.937  27.254  0.2217  0.0627 -0.1978
95966W        W96830  13.967  20.484  27.123  0.0337 -0.1496  0.2030
95967W        W96831  11.208  20.315   0.256 -0.0091  0.4552  0.0773
95968W        W96832  13.305  16.569  27.194  0.0805  0.0547  0.0367
95969W        W96833  12.367  19.017   0.412 -0.1883 -0.1620 -0.2482
95970W        W96834  13.938  18.441  28.840 -0.4511 -0.3482  0.3897
95971W        W96835  13.131  19.227  26.165  0.0567  0.0800 -0.1149
95972W        W96836  14.598  19.372  28.457  0.1148 -0.0276 -0.0451
95973W        W96837  10.640  23.316  26.897  0.0930  0.1066 -0.0462
95974W        W96838  13.160  22.235   0.122 -0.0494 -0.0652  0.0233
95975W        W96839  13.530  19.889  24.945  0.1357  0.5154 -0.1064
95976W        W96840  11.378  19.955   1.447 -0.1747 -0.1024  0.0640
95977W        W96841  13.070  20.462  27.981 -0.2759  0.2051 -0.0631
95978W        W96842  15.274  21.284  25.389 -0.0025 -0.2223  0.0046
95979W        W96843  10.482  19.479  27.893  0.0298 -0.0400 -0.0062
95980W        W96844  10.371  19.031  25.898 -0.0981  0.0896 -0.0304
95981W        W96845  13.040  21.079  27.591 -0.0417 -0.2338  0.1257
95982W        W96846  13.729  21.040   0.387 -0.1904 -0.3652 -0.0729
95983W        W96847  12.398  17.487   0.972 -0.0592  0.0474  0.1166
95984W        W96848  15.199  20.731  25.720  0.0664  0.1350 -0.0827
95985W        W96849  13.035  21.186  25.982  0.0973 -0.2877  0.2098
95986W        W96850  10.706  16.229  25.647  0.2072 -0.0466 -0.0011
95987W        W96851  12.950  19.696   2.695 -0.1674 -0.2208 -0.0273
95988W        W96852  13.662  21.190  26.882  0.0784  0.1833 -0.0101
95989W        W96853  13.080  20.197   1.481  0.6877 -0.0826 -0.1562
95990W        W96854  12.475  23.275  26.902  0.2367 -0.0326  0.1126
95991W        W96855   9.791  23.982  27.336 -0.1243  0.1401  0.2320
95992W        W96856  11.060  21.501  25.103 -0.0179 -0.0225  0.0752
95993W        W96857  10.297  21.002  26.189 -0.4668  0.1623  0.2031
95994W        W96858  14.439  18.682   1.279 -0.0951 -0.0199  0.2168
95995W        W96859  12.965  20.031  27.177  0.2645 -0.0122  0.0430
95996W        W96860  13.094  21.435  25.035 -0.0761  0.0309 -0.1910
95997W        W96861  13.971  19.159  26.717 -0.2740  0.2409 -0.3516
95998W        W96862  11.592  17.872  28.108 -0.1906  0.2080  0.3371
95999W        W96863   9.878  20.686   0.114  0.0046 -0.1686 -0.0398
96000W        W96864  14.908  20.254  28.247  0.2776 -0.2959  0.1610
96001W        W96865  17.471  18.542   1.165  0.0813  0.0891 -0.0540
96002W        W96866  13.576  15.121   2.115  0.0791 -0.0334 -0.0416
96003W        W96867  14.863  19.486  28.897  0.2762 -0.1736  0.1853
96004W        W96868  10.699  21.481  27.462 -0.2203 -0.0899  0.0397
96005W        W96869  11.417  22.588   1.837  0.3144  0.1154 -0.1324
96006W        W96870  13.531  21.713  26.917 -0.1681  0.2233 -0.1211
96007W        W96871  11.313  18.163  24.437 -0.1336  0.0495 -0.1684
96008W        W96872  11.163  22.659  27.596 -0.1880 -0.1557 -0.0446
96009W        W96873  11.631  25.108  28.214  0.1257 -0.0412  0.1896
96010W        W96874  10.469  19.166  27.478 -0.3937  0.3035  0.3335
96011W        W96875  14.802  22.062  27.188  0.1518 -0.0455  0.4164
96012W        W96876  13.702  21.094  29.025  0.0838 -0.1649 -0.0084
96013W        W96877  13.170  19.120  28.958  0.0657  0.2119 -0.0697
96014W        W96878  15.301  18.807  26.749  0.1754 -0.0068 -0.0533
96015W        W96879  11.403  20.909  26.230 -0.2554  0.2056 -0.2556
96016W        W96880  12.836  18.975   0.579 -0.1675  0.4030 -0.0793
96017W        W96881  15.526  16.753  24.812 -0.0374 -0.1045  0.2113
96018W        W96882  13.395  19.812  28.730 -0.2837 -0.0601 -0.0352
96019W        W96883   8.749  22.334  27.665  0.0248  0.2408  0.0417
96020W        W96884  12.918  18.807  28.571  0.0214  0.2135  0.0632
96021W        W96885  15.458  17.673  26.625 -0.0107 -0.1835  0.2061
96022W        W96886  12.506  19.360  26.035  0.3118  0.5108 -0.0562
96023W        W96887  13.691  22.812  26.327 -0.1591  0.1877  0.0270
96024W        W96888  16.248  20.271   0.100 -0.1120  0.2849  0.2134
96025W        W96889   9.194  19.975  25.523 -0.0298 -0.0777 -0.3562
96026W        W96890  13.444  22.158  24.592  0.0961  0.2091  0.0051
96027W        W96891   9.001  17.817   1.300 -0.3026 -0.1090 -0.2578
96028W        W96892  13.304  19.748  28.014 -0.1147 -0.3137  0.0150
96029W        W96893  12.160  19.177  23.722 -0.0056  0.0056  0.0048
96030W        W96894  13.143  20.257  26.260 -0.1318  0.3076  0.0174
96031W        W96895  13.331  22.727   0.252  0.1150  0.0259 -0.0494
96032W        W96896  14.207  23.296   1.237 -0.2126 -0.4609 -0.0607
96033W        W96897  13.161  17.777  24.975 -0.1465  0.1749  0.0190
96034W        W96898  14.182  23.646  28.754  0.1128  0.1416 -0.3717
96035W        W96899   9.669  19.328  28.043 -0.0050  0.0879 -0.0333
96036W        W96900  12.189  19.390  27.954 -0.0886 -0.0919  0.2611
96037W        W96901  12.721  21.706  28.689 -0.0308 -0.1055 -0.1368
96038W        W96902  14.327  19.888  26.962  0.3402 -0.1131  0.0173
96039W        W96903  13.101  20.249   0.504  0.2054 -0.0849 -0.2966
96040W        W96904  10.672  24.133   0.908  0.1880  0.1309  0.0039
96041W        W96905  12.029  22.629   1.916 -0.1822  0.0416 -0.0547
96042W        W96906  12.050  19.568  26.579 -0.0299  0.1850 -0.0055
96043W        W96907  14.631  18.847  22.213  0.0463  0.0776  0.1628
96044W        W96908  13.426  21.032   1.304  0.0557 -0.0726 -0.0774
96045W        W96909  11.073  19.572  28.295 -0.0095 -0.0074  0.1472
96046W        W96910  11.739  21.938  27.218  0.0003  0.0031 -0.3804
96047W        W96911  12.934  23.031  26.798  0.3961  0.3754  0.0588
96048W        W96912   9.644  17.880   0.184 -0.0734 -0.3088 -0.0697
96049W        W96913  14.002  22.605   0.030 -0.2020 -0.0299 -0.0394
96050W        W96914  11.779  18.315  27.981 -0.0209 -0.1210 -0.0401
96051W        W96915  10.331  22.888  26.986 -0.0996  0.2727  0.0305
96052W        W96916  14.860  15.986  26.813 -0.0202 -0.3982 -0.0199
96053W        W96917  11.686  17.680   0.614  0.0649  0.0062 -0.2459
96054W        W96918  12.032  19.821  27.047 -0.4125 -0.0280 -0.0310
96055W        W96919   9.041  22.177  27.215  0.0325  0.3351  0.1817
96056W        W96920   9.766  18.854  26.756 -0.1666  0.4161 -0.0644
96057W        W96921  14.611  21.386  29.001 -0.0697 -0.0383 -0.2704
96058W        W96922  12.829  20.879   0.836 -0.0490 -0.0601  0.0592
96059W        W96923  13.015  19.962   2.280  0.1415 -0.4376 -0.1610
96060W        W96924  13.785  21.510   0.702  0.2029 -0.2692  0.2402
96061W        W96925  12.851  22.218  28.848  0.0752 -0.1112 -0.1751
96062W        W96926  10.134  24.000  29.049  0.0431  0.0548 -0.2816
96063W        W96927  18.131  17.463  26.622  0.3054 -0.0642 -0.0197
96064W        W96928  13.313  18.259   0.419  0.4224 -0.0171 -0.0715
96065W        W96929  13.661  19.317  28.234  0.2579  0.1577 -0.1831
96066W        W96930  12.172  20.100  27.500 -0.0884 -0.3251  0.0204
96067W        W96931  13.198  18.832  27.409  0.2004 -0.0837  0.3151
96068W        W96932  12.620  17.164  27.606  0.3238 -0.2710  0.1018
96069W        W96933  15.144  20.977  26.173  0.1806  0.0719  0.2976
96070W        W96934  13.451  18.771  28.215 -0.0543  0.0387 -0.1676
96071W        W96935   8.893  22.953  26.987  0.0178 -0.2398 -0.1830
96072W        W96936  10.475  20.159  28.991  0.0159 -0.0403  0.1935
96073W        W96937  12.772  21.034  24.935 -0.0188 -0.5152 -0.1684
96074W        W96938  12.085  22.857  26.708  0.1610 -0.2421 -0.2405
96075W        W96939  11.368  17.363   0.138  0.0808 -0.0958  0.0775
96076W        W96940  15.733  20.857   0.220 -0.2763 -0.0286 -0.2234
96077W        W96941  13.144  19.190  26.908  0.1766 -0.0561 -0.2147
96078W        W96942  13.338  20.600   1.016  0.0113  0.1258  0.0495
96079W        W96943  12.001  18.269  27.272 -0.2019 -0.0733 -0.0319
96080W        W96944   8.780  25.581  29.143 -0.0876 -0.1622  0.1778
96081W        W96945  11.838  20.566  27.533  0.2882  0.0992 -0.0720
96082W        W96946  10.765  19.161  28.158 -0.0826  0.0889 -0.1929
96083W        W96947  12.784  19.466   0.714 -0.0995 -0.0115 -0.0621
96084W        W96948  11.492  19.751  28.667  0.0562 -0.0196  0.1320
96085W        W96949  16.146  20.986  26.562  0.2664 -0.0280 -0.0813
96086W        W96950  12.525  19.697  26.549 -0.0485  0.2284  0.1031
96087W        W96951  13.821  21.012   0.902  0.0350 -0.0657  0.1449
96088W        W96952  14.572  19.436   0.162  0.3954  0.1425 -0.0073
96089W        W96953  14.361  15.932  26.761 -0.0770 -0.2483 -0.1050
96090W        W96954  10.469  23.211  28.513  0.0117  0.1138  0.0929
96091W        W96955  12.748  23.375   0.067  0.2790  0.3661 -0.2325
96092W        W96956  13.666  18.759  27.530  0.4285  0.1030 -0.0059
96093W        W96957  13.416  19.844  27.300  0.0109 -0.0953 -0.0632
96094W        W96958  10.912  16.634  27.275  0.0876 -0.2008  0.1462
96095W        W96959  15.851  18.943  28.562  0.1297 -0.1227 -0.1179
96096W        W96960  12.424  19.311  26.907 -0.0242  0.0654  0.2942
96097W        W96961  16.220  18.996  26.175 -0.0345  0.0357 -0.2237
96098W        W96962  12.368  23.500  27.483 -0.0627 -0.1062  0.0743
96099W        W96963  12.429  19.002  28.204 -0.1694 -0.3337 -0.1493
96100W        W96964  11.129  21.961  26.490 -0.0672 -0.0273 -0.0994
96101W        W96965  13.646  17.924   0.514 -0.2606  0.0347  0.0317
96102W        W96966  13.538  18.300   0.900  0.1035 -0.1942 -0.0129
96103W        W96967  16.542  20.139   0.537  0.1562  0.0084 -0.1485
96104W        W96968  15.303  19.775  28.687  0.0219 -0.1056  0.0123
96105W        W96969  11.598  18.804   2.389  0.0897 -0.3135 -0.0604
96106W        W96970  13.940  20.720  28.786  0.0748  0.1306 -0.0594
96107W        W96971   9.829  21.255  25.294  0.0670 -0.0386  0.0396
96108W        W96972  12.211  19.409  27.457  0.0776 -0.3245  0.0770
96109W        W96973  11.265  20.633  28.965  0.0786 -0.0302 -0.0156
96110W        W96974  12.320  21.609   1.265  0.2694  0.0273  0.0970
96111W        W96975  14.856  20.441   0.592  0.1415 -0.1129 -0.1872
96112W        W96976  12.944  23.986  28.055  0.1746  0.1823  0.2533
96113W        W96977  12.575  23.386   0.656 -0.0823 -0.1377  0.1653
96114W        W96978  12.080  22.821  28.238  0.1636  0.1312 -0.1703
96115W        W96979  14.849  19.113  28.044  0.0304  0.0234 -0.0945
96116W        W96980  11.693  20.111   0.463 -0.0090 -0.0025  0.0832
96117W        W96981  10.875  18.966  27.659 -0.1620  0.1591 -0.0803
96118W        W96982  14.439  20.465  28.366  0.1339 -0.2244  0.0878
96119W        W96983  12.024  23.689  28.297  0.0002 -0.2149 -0.0595
96120W        W96984  10.645  22.804  28.828 -0.3200  0.0329 -0.0017
96121W        W96985  14.174  19.854  27.439  0.0318 -0.0031 -0.0750
96122W        W96986  14.229  23.441  26.838 -0.2654  0.0532 -0.1686
96123W        W96987  13.503  20.174   0.749  0.0097  0.1737  0.1552
96124W        W96988  11.612  18.761  26.716 -0.1249  0.2327 -0.1563
96125W        W96989  11.562  19.689  26.793 -0.1830  0.2555  0.0753
96126W        W96990  10.075  25.651   4.637 -0.3104 -0.0217  0.3490
96127W        W96991   8.802  24.272  28.784 -0.0710 -0.0958 -0.2102
96128W        W96992  13.763  24.190   0.342 -0.0100 -0.1008  0.0653
96129W        W96993  17.363  27.911   3.324 -0.2144 -0.1103 -0.2205
96130W        W96994  11.776  28.099   3.125  0.1149 -0.0525 -0.1585
96131W        W96995   6.990  24.441   1.255  0.0590 -0.1019 -0.0481
96132W        W96996  10.020  24.905   1.157  0.0841 -0.0406  0.0464
96133W        W96997  13.818  25.869   1.012  0.1375 -0.0726  0.0016
96134W        W96998  10.222  24.819   4.905  0.2871  0.1862 -0.1505
96135W        W96999   8.803  22.774   2.633  0.2722  0.2549  0.0633
96136W        W97000  11.795  22.412   1.530 -0.1833  0.2551 -0.3199
96137W        W97001  14.143  18.924   2.126  0.3977  0.2092  0.2289
96138W        W97002  10.699  22.751   0.180 -0.2996 -0.0103 -0.1203
96139W        W97003  14.968  19.809   3.724  0.0342 -0.1613  0.2069
96140W        W97004  12.024  22.837   1.433  0.1198 -0.2357 -0.0483
96141W        W97005  13.179  26.620   5.558  0.1933  0.1871  0.3524
96142W        W97006  13.337  26.075  28.761  0.0495  0.2191  0.3496
96143W        W97007  11.747  21.946   2.284 -0.0716 -0.3365  0.0693
96144W        W97008  11.664  26.894   3.528 -0.2052 -0.1812 -0.1708
96145W        W97009  12.614  23.844   0.919  0.0787  0.1562  0.0809
96146W        W97010  12.890  25.177   4.660 -0.1800 -0.0458  0.1807
96147W        W97011  10.746  23.897   2.070 -0.0812  0.0141  0.2968
96148W        W97012  13.827  26.846   1.703  0.2498  0.0947  0.0651
96149W        W97013   9.540  23.443   0.794  0.3967 -0.0990  0.0049
96150W        W97014   7.610  22.821   2.032 -0.1796  0.0221 -0.1039
96151W        W97015  11.490  26.812   3.991 -0.1065 -0.3138  0.2005
96152W        W97016  13.481  25.197   3.245  0.0195 -0.1986  0.0177
96153W        W97017  10.283  24.024   3.372  0.0304  0.2103  0.0289
96154W        W97018  13.945  22.916   4.584  0.0115  0.1678 -0.0575
96155W        W97019   9.994  26.167   5.061  0.0959  0.1413 -0.1095
96156W        W97020  13.070  24.124   3.882  0.1818 -0.0814  0.0534
96157W        W97021  14.010  24.460   4.973 -0.0664 -0.2027 -0.0639
96158W        W97022  14.394  22.637   3.270 -0.1245  0.0279  0.2119
96159W        W97023  14.817  23.661   3.762 -0.0326  0.0683  0.5006
96160W        W97024  13.809  21.165   3.896  0.1247 -0.1884 -0.1046
96161W        W97025  13.905  24.692   2.958 -0.1082  0.0159  0.3108
96162W        W97026  11.335  22.846   0.843 -0.3782  0.0651 -0.2411
96163W        W97027  11.547  24.826   2.384  0.1909 -0.0150  0.3442
96164W        W97028  13.568  23.346   1.281 -0.0570  0.0362 -0.5835
96165W        W97029  13.006  23.194   2.101  0.0109  0.1461  0.0621
96166W        W97030  13.968  24.531  28.424  0.1738  0.1016  0.1392
96167W        W97031  15.255  23.512   0.085 -0.1985  0.1092 -0.0994
96168W        W97032  14.784  25.660   2.871  0.1059  0.1283 -0.1697
96169W        W97033  13.542  23.554   2.415  0.1590 -0.2934 -0.0325
96170W        W97034  12.501  27.619  27.781 -0.0287  0.1165 -0.3158
96171W        W97035  11.508  25.634  28.197 -0.0443 -0.2588  0.0548
96172W        W97036  13.946  21.885   4.686  0.2634 -0.0944 -0.2895
96173W        W97037  12.414  24.057   2.181 -0.2360  0.1581 -0.1494
96174W        W97038  13.541  24.497  28.747  0.0549 -0.2565  0.0329
96175W        W97039  12.266  25.177   1.047  0.2377 -0.0997  0.1388
96176W        W97040  11.229  23.947   2.815 -0.1203 -0.0550 -0.0982
96177W        W97041  11.873  23.653  28.808 -0.3340  0.0341  0.1486
96178W        W97042  12.786  26.220   0.327 -0.1385  0.2953 -0.2464
96179W        W97043  10.833  23.583   0.242  0.2831 -0.0547  0.0171
96180W        W97044   9.388  23.569  28.426  0.1467  0.2074 -0.2197
96181W        W97045  10.798  23.439   1.973  0.1536  0.0391 -0.2625
96182W        W97046  10.613  21.743   3.046  0.1226 -0.1037 -0.1971
96183W        W97047  14.138  22.409   4.686  0.2087  0.2553 -0.2811
96184W        W97048  10.884  25.182   3.408  0.1981  0.4213  0.0639
96185W        W97049  13.857  24.800   1.836 -0.0565 -0.0800 -0.2760
96186W        W97050  14.632  22.137  28.372  0.2431 -0.1077  0.0485
96187W        W97051  12.753  25.549   1.971  0.3305 -0.0628 -0.1144
96188W        W97052   9.779  23.973   4.793  0.0043 -0.0410  0.1280
96189W        W97053  12.071  25.678   0.981 -0.4437 -0.0033  0.2285
96190W        W97054  12.542  20.870   1.782 -0.0954 -0.0171 -0.2613
96191W        W97055  14.355  19.882   2.082  0.0561 -0.0562 -0.1606
96192W        W97056  11.257  24.693  26.094 -0.0254 -0.0918  0.2370
96193W        W97057   8.143  22.628   1.358  0.0704 -0.1562 -0.2138
96194W        W97058  10.206  26.334   2.440  0.1425 -0.2228  0.0778
96195W        W97059   9.201  25.993   1.224  0.2529  0.1576 -0.1503
96196W        W97060  13.507  27.172   3.327  0.1376 -0.3518 -0.1790
96197W        W97061  12.922  22.639   0.804  0.1878  0.3384  0.1919
96198W        W97062  14.835  23.801   1.338  0.3532  0.0371 -0.2297
96199W        W97063  14.564  20.552   2.497 -0.0446 -0.0501  0.2267
96200W        W97064  14.422  24.452   3.658  0.1578  0.2943 -0.0763
96201W        W97065  13.569  22.714   4.902 -0.4041  0.0689 -0.2153
96202W        W97066  10.445  22.172   0.904 -0.0250  0.0467 -0.1187
96203W        W97067  11.240  24.299   2.361 -0.0241 -0.1644  0.1352
96204W        W97068  12.080  24.390  27.188 -0.0218  0.2126  0.0141
96205W        W97069  13.919  22.825   1.926 -0.0160  0.2722  0.0932
96206W        W97070  10.996  22.946   2.733  0.2096 -0.2600  0.1167
96207W        W97071  10.618  25.576   3.186 -0.0948 -0.0957  0.0314
96208W        W97072  11.248  24.255   3.170 -0.1905 -0.2033 -0.1637
96209W        W97073  13.220  23.632   2.766  0.0576 -0.1855  0.1495
96210W        W97074  12.457  21.483   3.101 -0.2488 -0.0182  0.1544
96211W        W97075  14.935  22.591  28.853  0.0093  0.1937 -0.5160
96212W        W97076  12.642  25.030   6.068 -0.1526  0.1154 -0.3648
96213W        W97077  14.439  22.487   5.090  0.0631  0.1850  0.2926
96214W        W97078  13.049  24.485   5.355 -0.0162 -0.2049  0.1182
96215W        W97079  13.319  21.234   2.211  0.2011 -0.1074 -0.0312
96216W        W97080  11.498  21.711   0.049 -0.0825  0.0726  0.0644
96217W        W97081  12.306  23.904   3.085 -0.2355 -0.2002 -0.1847
96218W        W97082  11.447  25.153   2.694  0.2209  0.0423 -0.1691
96219W        W97083  13.326  22.284   1.949 -0.1297  0.0448 -0.0458
96220W        W97084  10.771  21.529   5.775 -0.3068 -0.0672  0.1255
96221W        W97085   9.711  21.944   0.242 -0.0966  0.0337  0.1620
96222W        W97086  17.750  22.927   0.866  0.0055 -0.0037  0.0477
96223W        W97087  11.810  26.476   3.757 -0.1074  0.0775  0.1098
96224W        W97088  13.887  23.543   1.647 -0.0055 -0.1124  0.0364
96225W        W97089  14.617  21.872   1.227  0.0177 -0.0442 -0.0963
96226W        W97090  15.864  23.942   1.472 -0.1449 -0.1853 -0.1565
96227W        W97091  10.324  22.676   1.852 -0.0422  0.0003 -0.0000
96228W        W97092  11.994  21.151   0.228 -0.3229 -0.1988  0.1072
96229W        W97093  14.932  25.697   0.324 -0.1981 -0.1956 -0.1223
96230W        W97094  15.639  23.253   2.418  0.0063 -0.0388 -0.0820
96231W        W97095  14.250  23.534   5.088 -0.1322 -0.3431 -0.3495
96232W        W97096  14.382  22.780   1.143  0.2339  0.0675  0.1446
96233W        W97097  13.313  24.624   4.925  0.6141  0.0948 -0.2441
96234W        W97098  15.825  20.961   3.139 -0.1636  0.1568  0.1806
96235W        W97099  14.491  24.188   1.666 -0.5170  0.2344 -0.2051
96236W        W97100  14.593  26.052   4.131  0.6092 -0.2230 -0.3565
96237W        W97101  10.669  25.873  28.886  0.1005  0.4765  0.4577
96238W        W97102   9.987  25.709   3.794  0.1682  0.0631 -0.3311
96239W        W97103  11.717  24.905   3.682  0.3048  0.0300 -0.0064
96240W        W97104  13.889  24.954  28.691 -0.1081 -0.0035  0.0853
96241W        W97105  13.494  25.544   2.304  0.0232 -0.0483 -0.1732
96242W        W97106  13.722  22.418   2.277  0.1096  0.0456  0.2358
96243W        W97107  13.448  24.914   4.183 -0.0647 -0.0402  0.0216
96244W        W97108  14.378  23.972   3.582  0.0699 -0.2211  0.0912
96245W        W97109  12.016  23.396   1.442  0.1895  0.0952 -0.0872
96246W        W97110  12.007  21.679   0.181  0.1108 -0.1668 -0.2580
96247W        W97111  13.295  26.788   0.222 -0.1460  0.1056  0.0267
96248W        W97112  12.802  26.402   2.179 -0.4174  0.0220  0.2367
96249W        W97113  10.647  23.095   1.632 -0.0693 -0.0117 -0.0097
96250W        W97114  10.995  23.533  28.877 -0.2895 -0.0788 -0.4623
96251W        W97115  11.717  24.524   3.295 -0.2048 -0.0241  0.1941
96252W        W97116  11.651  22.457   2.277 -0.0049  0.0952  0.1521
96253W        W97117  15.773  24.718   3.599  0.0320  0.2659 -0.2613
96254W        W97118  12.786  24.235   2.482 -0.1459 -0.0841  0.0884
96255W        W97119  10.994  23.401   2.465  0.0627  0.1554 -0.0538
96256W        W97120  13.143  24.969   0.284  0.0578 -0.1348 -0.0080
96257W        W97121  12.593  20.906   1.294  0.3174  0.0580 -0.0278
96258W        W97122  12.539  26.026   3.293  0.1767  0.4479  0.1395
96259W        W97123  15.459  21.781   2.051  0.1326  0.2052  0.0471
96260W        W97124  12.492  22.968   1.469 -0.1201  0.1349  0.1994
96261W        W97125  11.547  25.492   0.762  0.1229  0.0489  0.0942
96262W        W97126  12.556  23.932   0.426 -0.1555  0.0007  0.3183
96263W        W97127  14.160  24.591   2.301 -0.0149  0.0371  0.4112
96264W        W97128  13.580  24.705   0.475  0.5427 -0.2152  0.0951
96265W        W97129  12.850  28.611   2.203  0.1687  0.0952  0.0996
96266W        W97130  11.300  22.423   1.300 -0.1698  0.4512  0.1227
96267W        W97131  13.021  23.078   1.557 -0.1974  0.2774 -0.1018
96268W        W97132  13.558  27.676  28.291  0.0268 -0.0399 -0.2338
96269W        W97133  10.224  23.071   0.330  0.0832  0.0060 -0.1825
96270W        W97134  12.426  25.586   3.527  0.1762  0.1714  0.1298
96271W        W97135  13.106  24.165   2.956  0.0920  0.0232  0.3171
96272W        W97136  14.216  21.145   0.136  0.3350  0.0090  0.1554
96273W        W97137  12.873  25.400   0.524 -0.0009 -0.2502  0.0544
96274W        W97138  12.293  28.023   0.456 -0.2035  0.0884 -0.2242
96275W        W97139   9.603  25.373   2.084 -0.0256  0.0004  0.1432
96276W        W97140  14.470  25.543   3.341 -0.2154  0.0137 -0.0045
96277W        W97141  14.667  20.896   0.732 -0.2984  0.0242  0.0599
96278W        W97142  12.226  26.105   0.096 -0.2634  0.1707  0.0395
96279W        W97143  12.198  23.026   0.985 -0.0925 -0.0886  0.0667
96280W        W97144  11.441  25.706   1.478  0.0435 -0.2697 -0.0155
96281W        W97145  11.480  24.159   1.919 -0.1366 -0.0389  0.1424
96282W        W97146  11.200  24.100   1.087 -0.1871  0.0488 -0.0678
96283W        W97147  10.227  22.538  28.660  0.0428 -0.0880 -0.0446
96284W        W97148  11.799  22.717   3.175 -0.0761  0.1555  0.2440
96285W        W97149  11.915  24.389   3.793  0.0442 -0.0863 -0.0794
96286W        W97150  15.816  22.469   3.731 -0.0742 -0.0060 -0.0525
96287W        W97151  10.648  25.384   4.501 -0.1864  0.1259  0.1426
96288W        W97152  14.265  24.165   5.838  0.1949  0.1497 -0.1018
96289W        W97153  12.339  24.269   4.143 -0.0151  0.0710 -0.0092
96290W        W97154  14.669  21.599   4.122 -0.3404 -0.0044 -0.1377
96291W        W97155  10.544  24.427   3.996 -0.1021  0.0705 -0.1405
96292W        W97156  10.059  22.664   3.548 -0.0497  0.2150  0.2204
96293W        W97157  10.673  26.901   3.541 -0.0913 -0.3104 -0.1438
96294W        W97158  11.984  23.371   5.757  0.1576 -0.0643  0.0633
96295W        W97159   9.424  24.401  28.138 -0.2454  0.1699  0.1259
96296W        W97160  12.605  24.588   4.493  0.0259 -0.1013  0.2236
96297W        W97161  13.965  25.432   1.722  0.1267  0.1767  0.1274
96298W        W97162  12.145  24.967   2.352 -0.0398  0.2694 -0.3025
96299W        W97163  15.061  24.759   1.664 -0.0450 -0.1752  0.3163
96300W        W97164  12.506  22.458   5.508  0.1396  0.0647 -0.2905
96301W        W97165  12.520  22.549  29.043  0.2884 -0.1074  0.2719
96302W        W97166  13.069  24.344   3.384  0.2291 -0.2282 -0.0131
96303W        W97167  12.176  26.121   3.644 -0.0562  0.4731 -0.1569
96304W        W97168  12.174  27.726  28.624 -0.0339 -0.4315  0.1733
96305W        W97169  15.887  21.850   3.360 -0.0773 -0.1307  0.0163
96306W        W97170  10.357  25.427  29.016  0.0483  0.0154  0.0229
96307W        W97171  13.428  24.481   1.996 -0.0545 -0.0892 -0.0940
96308W        W97172  11.537  25.654   2.680  0.1631  0.0240  0.1028
96309W        W97173  10.939  25.232   2.366  0.0875 -0.1222  0.1676
96310W        W97174  11.264  23.519  28.007 -0.4393 -0.1262  0.0264
96311W        W97175  13.134  26.746   2.364  0.2621 -0.1858 -0.0515
96312W        W97176  13.138  22.281  28.423 -0.1484  0.1476 -0.4279
96313W        W97177  13.287  19.237   0.829  0.0856 -0.0854 -0.0527
96314W        W97178  13.501  25.010   2.072  0.0076  0.1271  0.0081
96315W        W97179  11.043  24.915   1.592  0.0399 -0.2764 -0.1678
96316W        W97180  11.233  22.315   0.821 -0.2313 -0.0860 -0.1132
96317W        W97181  14.260  25.996   2.508 -0.2215  0.1324  0.0366
96318W        W97182  10.303  23.845   2.880 -0.0280 -0.1328  0.1377
96319W        W97183  14.318  19.883   2.936 -0.3966  0.1119  0.1111
96320W        W97184  12.932  22.561   4.147  0.2666 -0.1013 -0.2225
96321W        W97185  12.465  21.960  29.098 -0.1016  0.1091  0.1350
96322W        W97186  11.058  24.761   2.486  0.1371 -0.0384 -0.0722
96323W        W97187  13.225  24.051   0.986  0.0621 -0.3213 -0.2476
96324W        W97188  11.397  23.681   3.321 -0.0035  0.1189  0.1270
96325W        W97189  13.985  22.260  28.759  0.2748  0.1507 -0.4538
96326W        W97190  10.631  22.728  28.354 -0.0045  0.0519  0.2288
96327W        W97191  14.212  21.457   1.594  0.2011  0.1187  0.0498
96328W        W97192  14.338  24.784  28.840 -0.0003 -0.0320 -0.1931
96329W        W97193  12.970  22.233   5.579  0.1101 -0.1942  0.1480
96330W        W97194  12.665  23.949   1.757  0.1705 -0.0200 -0.3008
96331W        W97195   9.554  21.298  28.040  0.1470 -0.0354 -0.1294
96332W        W97196  13.180  24.454   1.302 -0.0403 -0.2015 -0.0332
96333W        W97197  13.491  20.253   1.762  0.0142 -0.2696  0.0346
96334W        W97198  13.731  27.571   0.387  0.2631 -0.1019 -0.3597
96335W        W97199  10.223  22.592  27.421 -0.1420 -0.2171  0.4210
96336W        W97200  12.573  23.558   7.782  0.2567 -0.1209  0.2261
96337W        W97201  10.935  22.539   3.408 -0.1428  0.1752  0.2259
96338W        W97202  10.406  22.273   2.732 -0.3242 -0.1113  0.0761
96339W        W97203  13.702  21.552   1.227  0.0083  0.1894 -0.0210
96340W        W97204  14.990  22.724   3.637 -0.2411 -0.0101 -0.0034
96341W        W97205  12.955  23.797   2.231 -0.0266  0.0338 -0.2269
96342W        W97206  13.267  23.317   4.027 -0.2753  0.2021  0.1879
96343W        W97207  15.133  26.534  26.936 -0.0557  0.0906  0.3865
96344W        W97208  10.935  26.073   6.277  0.2194  0.1009  0.1154
96345W        W97209  11.089  24.384   4.897 -0.2996  0.1094 -0.1235
96346W        W97210  14.415  19.378   3.253  0.1028  0.2494 -0.0796
96347W        W97211  12.555  23.732   5.044 -0.0052  0.0169 -0.1227
96348W        W97212  11.467  25.485   4.896 -0.0505  0.0999  0.1358
96349W        W97213  13.272  22.151   0.649  0.1971 -0.0046 -0.1799
96350W        W97214  12.415  20.989   0.520  0.1204 -0.1068  0.1501
96351W        W97215  13.465  22.386   4.546 -0.1720  0.1072  0.2048
96352W        W97216  13.488  25.402   1.634  0.0958 -0.0676 -0.0470
96353W        W97217  11.564  22.412  28.920  0.4705  0.0945  0.2317
96354W        W97218  14.094  25.771   1.402  0.4257  0.2299  0.0206
96355W        W97219  13.674  22.962  29.079 -0.0156  0.1796 -0.0256
96356W        W97220  13.768  22.896   3.695 -0.0080 -0.1300  0.0206
96357W        W97221  12.358  20.939   4.349 -0.0100 -0.1096  0.0032
96358W        W97222  13.130  25.072   0.766 -0.1796 -0.0309 -0.0325
96359W        W97223  13.591  23.274   2.953 -0.0518  0.1191  0.0749
96360W        W97224  11.149  23.132   4.121 -0.4065  0.1790  0.0426
96361W        W97225  12.593  25.120   4.250 -0.0496 -0.1586 -0.1613
96362W        W97226  14.334  23.854   2.726 -0.1472 -0.2435  0.0075
96363W        W97227  15.148  21.251   5.214  0.2352  0.1569 -0.0473
96364W        W97228  12.833  24.848   1.138  0.2213 -0.0814 -0.0272
96365W        W97229  13.233  26.290   0.599 -0.0860 -0.0378  0.1246
96366W        W97230  14.283  25.629   0.935  0.1924  0.1072 -0.0520
96367W        W97231   9.366  26.449   3.178 -0.1441 -0.1371 -0.2069
96368W        W97232  11.309  22.781   3.706  0.1771 -0.1305 -0.2945
96369W        W97233  15.187  23.955   4.118 -0.0996 -0.1566  0.2471
96370W        W97234  12.203  23.726   1.848  0.0303 -0.1136 -0.1935
96371W        W97235  12.404  25.322   1.506  0.0682  0.1728 -0.1528
96372W        W97236  13.777  25.157   3.815 -0.0005 -0.0325 -0.2803
96373W        W97237  11.434  26.148   2.392  0.0982  0.0656 -0.2843
96374W        W97238  13.612  23.844   2.018  0.0308 -0.0775 -0.1518
96375W        W97239  11.383  24.661   2.896  0.0603 -0.1896 -0.0971
96376W        W97240  11.199  26.256   4.694  0.0259 -0.2852  0.0498
96377W        W97241  12.327  27.902   2.430 -0.0964  0.2413  0.1098
96378W        W97242  13.413  27.526   6.561 -0.1677 -0.0671 -0.3812
96379W        W97243  12.836  22.164   1.799  0.0846 -0.1974  0.0054
96380W        W97244   9.353  23.175   0.180 -0.0913 -0.2514 -0.4594
96381W        W97245  15.218  25.596  28.648  0.0028 -0.4553 -0.2712
96382W        W97246  12.453  25.863  28.838  0.0032 -0.1010 -0.3368
96383W        W97247  15.160  24.048   3.592 -0.1224 -0.0166 -0.1305
96384W        W97248  13.755  24.802   3.424  0.2338 -0.4193  0.0972
96385W        W97249  11.494  24.443  28.808  0.0959  0.1372  0.2832
96386W        W97250  10.590  25.721   1.226  0.0552  0.0550 -0.2245
96387W        W97251  12.625  22.965   4.540 -0.1970 -0.2912 -0.0281
96388W        W97252  16.790  24.216   4.057 -0.2133 -0.1219 -0.0045
96389W        W97253  11.543  23.130   4.463 -0.0605  0.1211  0.0790
96390W        W97254  12.585  25.079   1.978  0.3177  0.0490 -0.1344
96391W        W97255  12.752  28.249   6.013  0.2295  0.3371 -0.1676
96392W        W97256  11.204  24.019  28.821 -0.2790 -0.1286  0.2498
96393W        W97257  13.482  24.760  28.250 -0.4125 -0.2330 -0.1851
96394W        W97258  13.830  22.699   2.960  0.0884  0.0375  0.2816
96395W        W97259  15.586  21.669   1.532  0.0268  0.1971  0.0314
96396W        W97260  12.846  23.934   1.344  0.0321 -0.1289 -0.0139
96397W        W97261  12.446  25.313   2.636 -0.0190 -0.1821 -0.5096
96398W        W97262  11.571  26.758   0.623 -0.0061  0.0158 -0.0414
96399W        W97263   6.729  24.011   0.478  0.2088 -0.1723 -0.0014
96400W        W97264  14.863  28.554   3.599  0.1053  0.0512  0.0526
96401W        W97265  13.450  21.837   4.565 -0.3210 -0.0556  0.0906
96402W        W97266  14.173  22.068   5.090 -0.0331  0.0852  0.2858
96403W        W97267  12.562  21.679   3.803 -0.0178  0.1791  0.0203
96404W        W97268  13.020  23.485   3.606  0.2092 -0.0158 -0.0589
96405W        W97269   9.958  23.852   4.318  0.0688 -0.1252 -0.2961
96406W        W97270  13.840  23.863   3.400  0.1587  0.0800 -0.4352
96407W        W97271  12.701  20.991   0.013 -0.1449 -0.1409  0.0331
96408W        W97272  10.241  23.699   1.932 -0.1528  0.0195  0.0768
96409W        W97273  11.634  23.763   2.546 -0.0720 -0.2578  0.0343
96410W        W97274  12.538  22.937   2.029 -0.1887 -0.2161  0.0020
96411W        W97275  15.138  22.890   2.705  0.0796  0.1016  0.1383
96412W        W97276  14.055  24.074   1.465  0.2319 -0.0022  0.0901
96413W        W97277  10.924  25.818   4.468 -0.4471  0.2418 -0.1353
96414W        W97278  11.797  22.155   0.132 -0.0495 -0.0750 -0.2624
96415W        W97279  15.623  23.681   4.988 -0.0328  0.0432  0.1021
96416W        W97280  12.322  23.131   2.411 -0.0957  0.1098 -0.1051
96417W        W97281  13.261  22.907   1.113 -0.0930  0.1447 -0.3499
96418W        W97282  11.872  23.237   2.690 -0.0135 -0.1611  0.0109
96419W        W97283  10.701  23.912   2.592 -0.0595  0.0316  0.2383
96420W        W97284  13.686  24.412   1.396 -0.0086  0.2577 -0.0859
96421W        W97285  11.261  23.883   0.134  0.0044 -0.3720  0.4100
96422W        W97286  11.887  22.954   2.272  0.1780  0.1628 -0.3494
96423W        W97287  14.727  25.098   2.768  0.0118 -0.1099 -0.0900
96424W        W97288  13.437  23.193   4.753  0.1314 -0.2927 -0.0603
96425W        W97289   8.569  25.125   1.688  0.1339  0.2176 -0.1698
96426W        W97290  11.167  23.148   0.362  0.1984 -0.1472 -0.0100
96427W        W97291  11.213  26.251   5.404  0.0039 -0.0352  0.1247
96428W        W97292  13.341  25.421   3.700 -0.1292 -0.1750  0.2566
96429W        W97293  11.579  24.361   0.425  0.1834  0.0442  0.1849
96430W        W97294  16.526  23.546  28.619 -0.2220  0.1237  0.0668
96431W        W97295  12.565  25.747   2.436  0.1528  0.1898 -0.0662
96432W        W97296  15.475  23.459   2.874  0.1500  0.0182  0.1326
96433W        W97297  11.745  20.731   0.085 -0.1267 -0.1466  0.0291
96434W        W97298  14.437  23.620   2.308  0.1533  0.1366  0.0506
96435W        W97299   8.245  23.079   1.607 -0.2355 -0.0682  0.2291
96436W        W97300  13.282  21.923   3.275 -0.0059  0.0453  0.3421
96437W        W97301  11.842  24.802   2.805 -0.1383  0.1963 -0.0025
96438W        W97302  12.909  22.671   1.869  0.1395 -0.2638  0.1472
96439W        W97303  12.606  23.440   1.874  0.1400  0.2158  0.1921
96440W        W97304  11.838  23.994   5.619 -0.1316  0.1189  0.2107
96441W        W97305  11.615  27.297   2.784 -0.1563 -0.0916  0.0328
96442W        W97306  13.273  20.778   2.928  0.0887  0.1787  0.2640
96443W        W97307  13.758  22.890   2.501 -0.0894  0.0201  0.1287
96444W        W97308  14.619  28.108   2.352  0.3255 -0.0978  0.1298
96445W        W97309  10.850  25.297   3.931  0.0059  0.2951  0.0139
96446W        W97310  11.446  28.104   5.216  0.2025  0.0023  0.2503
96447W        W97311  14.507  26.130   0.198 -0.0855 -0.1897  0.0137
96448W        W97312  12.162  23.854   1.328 -0.0215  0.0886  0.0011
96449W        W97313  11.214  24.747   3.355 -0.0152  0.0673  0.1261
96450W        W97314  12.818  25.417   1.022 -0.1515  0.0108 -0.0911
96451W        W97315  14.360  27.971   2.934 -0.1689 -0.0584 -0.0580
96452W        W97316  13.354  21.126  28.532  0.2729 -0.1884  0.0514
96453W        W97317  10.976  24.287   1.804  0.0330 -0.0911  0.0559
96454W        W97318  11.604  21.996   1.741 -0.1674 -0.0717  0.1573
96455W        W97319  10.295  23.649   0.964 -0.1294  0.0763  0.4315
96456W        W97320  13.502  22.400   3.871  0.0451 -0.1356 -0.1042
96457W        W97321  13.499  22.584  28.055 -0.0339  0.3120  0.1364
96458W        W97322  13.381  23.731   3.196 -0.1602  0.3356 -0.0371
96459W        W97323  13.502  26.885   5.229  0.4338  0.0687  0.0289
96460W        W97324  13.269  22.870   4.398  0.0513  0.1277  0.1419
96461W        W97325  13.359  24.693   5.678 -0.2208  0.3711  0.0412
96462W        W97326  15.924  24.191   0.523 -0.1109  0.4026 -0.2877
96463W        W97327  15.059  24.533   0.758 -0.1579  0.0583 -0.0156
96464W        W97328  11.390  24.824   4.996 -0.0440 -0.0412  0.0505
96465W        W97329  14.455  21.853   1.903 -0.2363  0.1269 -0.1908
96466W        W97330   9.875  21.596   1.559  0.0965 -0.0791  0.0178
96467W        W97331  13.783  21.447   3.453  0.0087  0.1361 -0.0230
96468W        W97332  12.423  22.475   1.594  0.1056  0.1643 -0.2310
96469W        W97333  10.123  24.082   0.811  0.3029  0.1434  0.4206
96470W        W97334  11.849  25.859   0.530 -0.0049  0.1560 -0.0421
96471W        W97335  12.954  25.637   1.543  0.1804 -0.0212 -0.1828
96472W        W97336  11.958  23.538   2.289 -0.1543 -0.1860  0.0506
96473W        W97337   8.897  23.724   1.844  0.0002  0.0750  0.0720
96474W        W97338  10.779  24.990   0.582 -0.2771 -0.2947  0.2840
96475W        W97339  12.331  21.127  28.812 -0.2704 -0.1334  0.3645
96476W        W97340  14.953  23.002   1.717  0.3933 -0.0710 -0.0210
96477W        W97341  14.862  23.730   0.481  0.2643  0.3265  0.2960
96478W        W97342  12.978  23.297   4.418 -0.3212 -0.1032  0.0060
96479W        W97343  12.003  26.765   5.115 -0.0876  0.1702  0.1859
96480W        W97344   9.750  26.300   0.352  0.2569 -0.0552 -0.1231
96481W        W97345  12.621  25.004   0.677 -0.3475 -0.1786 -0.0023
96482W        W97346  11.831  24.571   2.069  0.1366  0.3315  0.0918
96483W        W97347  11.787  23.618   4.406  0.1562 -0.2804  0.1106
96484W        W97348  10.333  23.571   2.437  0.1828 -0.2226  0.1757
96485W        W97349  11.491  23.582  27.568 -0.1870  0.0398 -0.1629
96486W        W97350   8.339  26.222   3.418 -0.2142  0.0301  0.2861
96487W        W97351  12.030  23.600   3.474  0.1834 -0.0867  0.0486
96488W        W97352  10.277  24.599   2.383  0.3375  0.0892  0.1204
96489W        W97353  13.031  21.182   1.719 -0.0189  0.1767  0.0854
96490W        W97354  12.957  23.860   0.184 -0.0992  0.1323  0.0120
96491W        W97355  13.730  25.698   3.798  0.0471 -0.0771 -0.0013
96492W        W97356  14.727  26.076   1.847  0.0445  0.2945 -0.0724
96493W        W97357  14.371  23.730   1.470 -0.0731  0.4288 -0.3162
96494W        W97358  12.900  19.070   1.839 -0.0050  0.2529  0.0023
96495W        W97359  12.876  25.128   1.546 -0.3320 -0.3628  0.1265
96496W        W97360  11.023  22.862  28.046  0.0649 -0.0759 -0.1185
96497W        W97361  14.936  23.999   1.784  0.2687 -0.2036 -0.2082
96498W        W97362  13.060  23.455   1.147 -0.1200 -0.1721 -0.0032
96499W        W97363  14.346  25.971   4.571 -0.0505  0.2411 -0.2791
96500W        W97364  16.138  24.776   1.140 -0.2366 -0.1732  0.1507
96501W        W97365  11.676  24.041   3.516  0.0996 -0.1791 -0.2995
96502W        W97366  12.263  24.466   2.445  0.0230  0.0196 -0.1705
96503W        W97367  15.177  27.972   2.960 -0.1064  0.2946 -0.0638
96504W        W97368  14.108  23.064   3.138  0.0789  0.2562  0.1882
96505W        W97369   9.411  25.700   4.050 -0.2608 -0.1537  0.2701
96506W        W97370  11.304  25.247   3.602  0.0923  0.0312 -0.0488
96507W        W97371  10.502  26.848   6.105 -0.0325  0.0420 -0.0068
96508W        W97372   8.593  23.880   3.375 -0.1725  0.3181  0.0107
96509W        W97373  15.559  22.557   1.206  0.1957 -0.0484 -0.0871
96510W        W97374  12.500  24.460   1.979  0.2853 -0.3507 -0.0593
96511W        W97375  13.639  22.004   1.044 -0.0432  0.0650 -0.0077
96512W        W97376  12.175  24.856   0.353 -0.1387 -0.2956  0.0100
96513W        W97377  11.985  23.345   3.904  0.1960  0.2359  0.1814
96514W        W97378  13.714  25.946   1.855 -0.0432  0.0232 -0.0123
96515W        W97379  11.702  24.322   2.531 -0.3164  0.1187  0.2673
96516W        W97380  16.010  24.286   3.419  0.3015 -0.0665  0.0390
96517W        W97381  11.736  25.346   2.329  0.1421  0.1638  0.0732
96518W        W97382  15.483  24.441   3.289  0.0225  0.3504 -0.4255
96519W        W97383  11.927  26.350   1.881 -0.2346 -0.2238  0.1449
96520W        W97384  12.786  24.570   1.592 -0.1447 -0.1499  0.4684
96521W        W97385  13.860  22.841   5.522 -0.0215 -0.6195 -0.0596
96522W        W97386  12.926  27.119   0.228  0.1087 -0.3481 -0.1623
96523W        W97387  12.983  25.486   5.554 -0.2022  0.0806  0.0580
96524W        W97388  13.310  24.753   3.058 -0.2227  0.2323 -0.2894
96525W        W97389  10.269  24.060   1.323  0.5210  0.0816  0.2300
96526W        W97390   9.030  24.883   9.081  0.1449  0.0489 -0.0286
96527W        W97391  10.757  21.609   6.699 -0.1065  0.2988 -0.2008
96528W        W97392  15.044  23.252   2.988  0.0272 -0.0903 -0.0401
96529W        W97393  13.085  23.227   7.555  0.0341  0.0155  0.2150
96530W        W97394  11.081  25.217   4.821  0.3074  0.0788 -0.2414
96531W        W97395  12.893  23.315   4.952  0.1143 -0.0260 -0.0505
96532W        W97396  13.442  22.441   7.444  0.0457  0.0922 -0.1433
96533W        W97397  13.568  24.304   7.433 -0.1042 -0.1271 -0.1284
96534W        W97398  12.417  25.032   4.699 -0.0789  0.3480 -0.0773
96535W        W97399  11.740  22.085   7.268 -0.1040 -0.1138  0.0196
96536W        W97400  10.380  25.735   7.182  0.0233  0.2665 -0.0847
96537W        W97401  16.381  22.034   5.699  0.0374  0.0834  0.0262
96538W        W97402  12.864  20.910   4.263  0.2192  0.0655 -0.1858
96539W        W97403  12.906  23.888   6.757 -0.3184 -0.0619  0.1772
96540W        W97404  12.690  18.852   3.952  0.0392  0.1259  0.2071
96541W        W97405  12.128  24.204   7.385  0.3294 -0.0163  0.0486
96542W        W97406  11.193  26.398   2.742 -0.0640  0.2409  0.0367
96543W        W97407  13.070  20.490   4.469 -0.0902  0.0766  0.1813
96544W        W97408  11.076  22.382   5.123 -0.0961  0.2753 -0.0621
96545W        W97409  16.741  22.000   7.118 -0.1419 -0.0573 -0.0048
96546W        W97410  16.035  24.709   6.715  0.1224  0.1400  0.3572
96547W        W97411  13.130  21.944   5.980 -0.0960  0.0843 -0.0028
96548W        W97412  13.784  24.579  11.255  0.0617  0.2800 -0.0770
96549W        W97413  12.543  22.998   6.824  0.2650  0.0285  0.1624
96550W        W97414  13.330  21.396   5.977  0.1813 -0.0969 -0.0368
96551W        W97415  11.760  25.230   8.541  0.0315 -0.2235 -0.1683
96552W        W97416  16.287  21.381   8.090  0.1384  0.1926  0.0010
96553W        W97417  12.889  24.876   6.939  0.1320 -0.0017 -0.0714
96554W        W97418  14.279  25.588   6.839  0.0642 -0.0507  0.1787
96555W        W97419  13.650  22.712   6.350  0.0425 -0.1541 -0.0129
96556W        W97420  12.480  23.856   7.395 -0.1738  0.0248 -0.1263
96557W        W97421  16.755  23.043   7.159 -0.1314  0.1522 -0.0072
96558W        W97422  12.879  22.780   8.300  0.2924 -0.0565  0.1540
96559W        W97423  14.030  20.339   6.364 -0.2247 -0.1711  0.1629
96560W        W97424  11.081  23.862   5.007 -0.3745  0.0497 -0.1081
96561W        W97425  15.460  23.833   5.949  0.0961 -0.3223  0.1395
96562W        W97426   9.577  24.052   5.747 -0.1077 -0.2090 -0.0803
96563W        W97427  13.169  25.009   5.197  0.0732 -0.0422 -0.3145
96564W        W97428  12.097  23.136   3.130 -0.0945  0.1165 -0.3541
96565W        W97429  12.576  25.559   6.212  0.1717  0.2601 -0.0236
96566W        W97430  12.530  21.441   0.080 -0.1915  0.2158  0.0462
96567W        W97431  15.099  23.843   6.792 -0.2216 -0.2062  0.0749
96568W        W97432  12.332  26.409   5.901 -0.1751 -0.0375  0.0203
96569W        W97433  14.757  25.121   5.584 -0.1224 -0.0625 -0.0090
96570W        W97434  10.783  25.988   7.310 -0.0906  0.0702 -0.0869
96571W        W97435  14.174  25.981   5.490 -0.1601 -0.3440  0.0131
96572W        W97436  12.158  21.658   5.423 -0.0749 -0.0552 -0.1543
96573W        W97437  13.010  21.272   5.180  0.0365  0.0046 -0.1652
96574W        W97438  14.402  23.702   8.157 -0.0912 -0.1316 -0.1644
96575W        W97439  13.420  23.828   3.675 -0.2548 -0.1834  0.0450
96576W        W97440  12.575  25.418   9.017  0.1714 -0.0765 -0.2320
96577W        W97441   9.057  21.941   5.875  0.0671 -0.1262  0.2873
96578W        W97442  14.475  26.421   6.356  0.1567  0.0590  0.0511
96579W        W97443  15.099  22.030   5.606  0.1859 -0.2917 -0.2046
96580W        W97444  14.665  24.946   1.427  0.0331 -0.0145  0.1059
96581W        W97445  11.177  23.293   4.771 -0.0186 -0.0050 -0.0628
96582W        W97446  13.427  25.187   5.635  0.0225  0.4385 -0.0085
96583W        W97447  14.333  22.347   5.595  0.1854 -0.1104 -0.1583
96584W        W97448  11.331  27.456   5.181 -0.3119 -0.0378 -0.0498
96585W        W97449  12.823  24.746   4.967  0.0298  0.0513 -0.0287
96586W        W97450  14.604  21.140   2.535  0.1788 -0.1483 -0.2615
96587W        W97451  11.642  24.540   4.698 -0.0890 -0.0832 -0.0446
96588W        W97452  11.977  24.773   8.757  0.0614  0.2573  0.0787
96589W        W97453  12.507  22.473   4.389 -0.0690  0.1549  0.1658
96590W        W97454  14.040  23.445   3.614  0.1830  0.0215 -0.1439
96591W        W97455  16.772  19.397   5.910 -0.0401  0.2510  0.0379
96592W        W97456  10.595  24.902   2.679  0.0013 -0.1769 -0.1017
96593W        W97457  12.314  23.450   2.786 -0.1419  0.1346 -0.1005
96594W        W97458  12.184  25.257   3.865  0.3035 -0.1843  0.2420
96595W        W97459  11.842  25.147   6.673 -0.3129  0.2203  0.2122
96596W        W97460  14.620  26.271   8.649 -0.2329  0.2113 -0.2346
96597W        W97461  11.150  22.430   5.977  0.2412 -0.1154 -0.0800
96598W        W97462  14.192  23.891   5.425 -0.1890  0.2533 -0.0098
96599W        W97463  13.314  21.146   7.544 -0.0727  0.1826  0.1096
96600W        W97464  13.239  26.138   6.116  0.1324  0.2494 -0.0065
96601W        W97465  12.210  23.885   7.814 -0.0486 -0.0773 -0.1228
96602W        W97466  11.600  21.863   6.827  0.4675 -0.1908 -0.0137
96603W        W97467  12.748  22.967   6.037 -0.0974 -0.0211 -0.0156
96604W        W97468  14.526  22.858   2.773  0.2272  0.1360 -0.0652
96605W        W97469  13.533  23.365   7.970 -0.1132 -0.1165 -0.1722
96606W        W97470  12.784  23.445   5.437 -0.1311  0.0634 -0.1432
96607W        W97471   9.371  26.634   5.586  0.2072  0.0801  0.1189
96608W        W97472  13.859  24.885   5.641 -0.2832 -0.0439 -0.0223
96609W        W97473  14.195  23.794   4.513  0.1235  0.0176 -0.3321
96610W        W97474  14.047  18.811   6.461 -0.0482 -0.2998 -0.1992
96611W        W97475  12.041  22.409   4.020 -0.0063  0.2630 -0.0112
96612W        W97476  15.216  24.089   9.266 -0.0273 -0.0434  0.1342
96613W        W97477   9.936  20.200   8.793  0.1641  0.0323  0.2309
96614W        W97478  16.924  27.736   7.125 -0.3040 -0.1440 -0.1996
96615W        W97479  12.794  23.756   5.845  0.2397  0.2878  0.2144
96616W        W97480  14.060  22.203   2.799  0.0747 -0.3601 -0.3565
96617W        W97481  15.887  24.780   9.348 -0.0358 -0.0646 -0.0739
96618W        W97482  10.730  26.140   4.914 -0.0393 -0.0067  0.2322
96619W        W97483  12.952  22.626   4.675 -0.3239  0.1788  0.1688
96620W        W97484  11.620  21.608   4.155 -0.2677 -0.2250 -0.0136
96621W        W97485  15.409  21.243   2.210  0.0918 -0.2471  0.1070
96622W        W97486  16.524  24.787   7.041  0.1296 -0.1510  0.2458
96623W        W97487  11.839  24.015   4.762 -0.3671  0.0220  0.2927
96624W        W97488  11.685  21.918   4.902  0.0988 -0.0993 -0.2337
96625W        W97489  14.884  20.287   5.958  0.2145 -0.0835 -0.1757
96626W        W97490  16.408  24.738   4.260  0.0113 -0.0556 -0.1910
96627W        W97491  16.021  22.313   6.823  0.0861 -0.0774  0.1622
96628W        W97492  12.852  23.291   2.583 -0.0516  0.1351 -0.1267
96629W        W97493  15.521  23.524   4.315  0.3366  0.1569 -0.1210
96630W        W97494  15.719  23.434   6.759  0.2664  0.0823  0.0049
96631W        W97495  13.071  23.462   7.968 -0.1690  0.0441 -0.0366
96632W        W97496  11.300  26.368   3.614 -0.3260  0.0564  0.0952
96633W        W97497  11.176  22.718   7.718  0.1284  0.3455 -0.0605
96634W        W97498  17.690  22.521   4.635 -0.1393 -0.0413  0.3082
96635W        W97499  12.602  24.027   3.787  0.0142 -0.0926  0.0461
96636W        W97500  10.737  24.591   7.111  0.1187  0.0607 -0.0913
96637W        W97501  12.262  24.763   5.109 -0.0685 -0.3255  0.0493
96638W        W97502  15.097  22.915   4.960  0.0427  0.1227 -0.0307
96639W        W97503  12.591  24.326   9.723  0.2904  0.1787  0.1873
96640W        W97504  14.800  24.174   3.892  0.1459 -0.1681  0.3629
96641W        W97505  14.238  21.924   4.203  0.0940  0.0555  0.0207
96642W        W97506  12.525  21.974   5.361 -0.1278  0.0382  0.2571
96643W        W97507  12.612  24.844   9.599 -0.0123 -0.2213  0.2108
96644W        W97508  13.583  24.321   3.332  0.0978 -0.0883 -0.4551
96645W        W97509  15.406  23.053   4.548  0.1992  0.3089  0.0797
96646W        W97510  13.001  22.107   4.658 -0.0452  0.2610  0.0459
96647W        W97511  10.205  24.675   3.635 -0.1295  0.0368 -0.2953
96648W        W97512  13.729  24.815   7.188 -0.3100  0.0896 -0.1484
96649W        W97513  12.413  23.607   3.774 -0.5799  0.1891 -0.4437
96650W        W97514  14.619  23.783   4.233 -0.2760 -0.3541 -0.0231
96651W        W97515  14.937  23.592   5.626  0.0152 -0.0025  0.0215
96652W        W97516  12.335  21.169   5.679  0.0416  0.0763  0.1810
96653W        W97517  13.717  24.948   9.000 -0.1687 -0.1886  0.0710
96654W        W97518  15.137  27.400   5.931  0.0939  0.0589  0.1207
96655W        W97519  12.847  26.607   7.872  0.1072  0.1092  0.0046
96656W        W97520  14.607  24.894   6.160  0.1238 -0.0863 -0.2647
96657W        W97521  15.750  19.784   6.733 -0.1367 -0.0793  0.1525
96658W        W97522  13.796  25.273   5.918 -0.0160  0.2083 -0.0205
96659W        W97523  14.258  20.827   5.707  0.0104  0.2413  0.1958
96660W        W97524  15.834  22.165   4.242  0.1619 -0.2029  0.2006
96661W        W97525  12.533  25.336   5.711 -0.2471  0.1671 -0.2290
96662W        W97526  13.391  21.690   6.383  0.0018  0.0387 -0.0700
96663W        W97527  14.827  20.599   3.796 -0.1485 -0.1502 -0.1891
96664W        W97528  12.182  24.051   3.564 -0.0787 -0.1748 -0.0252
96665W        W97529  11.505  25.248   7.081 -0.0107  0.1061 -0.0114
96666W        W97530  12.435  20.010   6.690  0.1720 -0.1672  0.1751
96667W        W97531  13.326  23.898   7.149 -0.4121  0.1523 -0.3321
96668W        W97532  15.034  25.564   5.213 -0.2527  0.3391  0.3351
96669W        W97533  12.937  25.499   5.059  0.0003 -0.0443 -0.5730
96670W        W97534  13.354  25.424   6.545  0.0654  0.0658 -0.2671
96671W        W97535  15.033  22.378   5.069  0.1559 -0.2584  0.2408
96672W        W97536  16.060  21.920   4.757 -0.1123 -0.1063 -0.0158
96673W        W97537  13.123  25.002   8.297  0.0841  0.1148 -0.3178
96674W        W97538  12.659  25.515   7.675 -0.1756  0.4868  0.1891
96675W        W97539  13.828  22.523   8.331 -0.0783  0.3155  0.1425
96676W        W97540  14.267  25.064   8.084  0.0323 -0.1074  0.0153
96677W        W97541  12.880  22.819   2.433  0.2196  0.0160  0.3372
96678W        W97542  13.120  22.211   3.605  0.1848 -0.1200 -0.0292
96679W        W97543  13.573  24.385   2.779  0.1702 -0.1959 -0.1384
96680W        W97544  14.021  22.591   5.919 -0.0456  0.1317 -0.0626
96681W        W97545  15.151  25.165   7.018 -0.1432  0.4758 -0.2547
96682W        W97546  14.744  22.784   5.296  0.1911 -0.2681 -0.2057
96683W        W97547  10.842  23.568   3.528  0.3466  0.0469 -0.0621
96684W        W97548  14.984  21.960   4.528 -0.0639  0.1642 -0.3174
96685W        W97549  13.000  23.050   6.495 -0.0767 -0.1235  0.0698
96686W        W97550  12.764  21.686   7.175  0.1978 -0.0405  0.1868
96687W        W97551  12.360  23.412   7.085  0.0662 -0.1713 -0.1145
96688W        W97552  15.089  25.396   9.144 -0.2882 -0.1330  0.2507
96689W        W97553  14.680  23.079   6.460  0.0950 -0.1730  0.1576
96690W        W97554  12.599  22.033   6.737  0.1418 -0.2915 -0.0390
96691W        W97555  10.255  25.420   5.999  0.4050  0.0720 -0.1196
96692W        W97556  10.196  25.138   4.443 -0.1892  0.1548 -0.0500
96693W        W97557  12.084  25.634   2.507 -0.0216  0.1003 -0.1012
96694W        W97558  13.033  24.575   8.609  0.0543 -0.0159 -0.1313
96695W        W97559  11.977  24.368   5.104 -0.1334 -0.1900 -0.1976
96696W        W97560  11.765  23.016   5.442  0.2421  0.1262 -0.1610
96697W        W97561  14.975  20.788   5.171 -0.1982 -0.0127 -0.0767
96698W        W97562  13.452  22.380   5.984 -0.0833 -0.3011  0.1538
96699W        W97563  13.496  23.664   4.710  0.0478 -0.0407  0.1088
96700W        W97564  14.234  22.154   3.305  0.2579  0.0212  0.0198
96701W        W97565  14.224  22.749   3.826  0.0638  0.1251 -0.2862
96702W        W97566  10.909  24.253   6.762  0.2994 -0.1669 -0.2881
96703W        W97567  11.457  24.872   7.462  0.0366 -0.1498  0.3631
96704W        W97568  10.830  24.884   5.640 -0.1447  0.1672  0.0880
96705W        W97569  15.534  23.076   6.341 -0.3132  0.2220 -0.3454
96706W        W97570  11.531  24.222   5.961  0.0277  0.0522  0.3202
96707W        W97571  12.011  25.224   3.358  0.0625 -0.3951  0.1337
96708W        W97572  12.915  24.728   4.137 -0.2135 -0.0284  0.0731
96709W        W97573  14.829  21.526   4.750 -0.3232 -0.0069 -0.2097
96710W        W97574  13.687  23.638   5.235  0.1543 -0.0820  0.0880
96711W        W97575  14.764  23.361   6.012  0.3047  0.2827  0.1365
96712W        W97576  16.450  17.337   6.631 -0.0366  0.2872 -0.0373
96713W        W97577  12.349  22.707   3.235 -0.1487  0.3084 -0.3695
96714W        W97578  12.063  22.834   6.531 -0.2437  0.0560  0.1521
96715W        W97579  10.921  26.250   6.925 -0.0755 -0.2511  0.0164
96716W        W97580  10.283  23.804   6.484  0.2055 -0.2310 -0.0254
96717W        W97581  10.590  25.211   5.357 -0.0069 -0.0697 -0.1797
96718W        W97582  15.165  21.832   6.625  0.1779 -0.3414 -0.0278
96719W        W97583  11.483  22.394   6.916  0.7124  0.2692  0.0646
96720W        W97584  14.712  20.222   5.097 -0.0409 -0.2175 -0.0878
96721W        W97585  12.054  22.753   3.631  0.1065  0.3218  0.0681
96722W        W97586  14.170  22.600   2.496 -0.0346  0.0120  0.1206
96723W        W97587  12.677  22.697   6.424  0.2575 -0.0209  0.0445
96724W        W97588  11.198  21.090   5.700  0.0653 -0.3198 -0.4617
96725W        W97589  15.129  23.967   5.405  0.1367  0.0740 -0.1139
96726W        W97590  11.434  24.983   6.367 -0.1949 -0.2310  0.2890
96727W        W97591  15.345  23.566   7.183 -0.0563 -0.3905 -0.0618
96728W        W97592  14.040  23.800   0.572 -0.2153 -0.1334 -0.6033
96729W        W97593  11.067  22.081   4.290  0.0264  0.2354 -0.2237
96730W        W97594  12.958  18.743   4.979 -0.0752  0.0596 -0.0894
96731W        W97595   9.553  24.477   3.036  0.0134 -0.0305 -0.0423
96732W        W97596  11.472  23.148   7.634 -0.0336 -0.0822 -0.0900
96733W        W97597  12.540  22.128   5.878 -0.1901  0.1699 -0.0371
96734W        W97598  12.388  27.294   6.181  0.1800 -0.0365  0.0911
96735W        W97599  11.186  23.242   3.621  0.0303  0.2226  0.5294
96736W        W97600  12.633  23.138   7.411  0.2448 -0.1870 -0.1717
96737W        W97601  10.892  25.409  10.527  0.0001 -0.2833 -0.1526
96738W        W97602  14.148  23.429   5.640  0.0136  0.5424  0.1424
96739W        W97603  12.922  19.033   6.287 -0.1287  0.1500  0.1121
96740W        W97604  15.710  23.342   5.970  0.0550 -0.1562  0.1328
96741W        W97605  14.584  22.397   3.727 -0.0694 -0.4921 -0.1928
96742W        W97606  13.572  25.436   4.238 -0.0329  0.3047  0.1759
96743W        W97607  10.475  25.879   5.877 -0.2315  0.0635  0.0500
96744W        W97608  14.459  21.520   5.816 -0.1171 -0.2139  0.0228
96745W        W97609  11.893  26.283   8.601 -0.2054 -0.0237 -0.0570
96746W        W97610  12.562  21.760   6.296  0.0153 -0.1576 -0.1071
96747W        W97611  14.343  22.448   4.198  0.3770 -0.1934  0.5212
96748W        W97612  13.262  24.657   7.321  0.1960 -0.2218  0.1637
96749W        W97613  15.001  21.919   3.777 -0.5849  0.1150  0.3168
96750W        W97614  14.770  22.698   4.153  0.0396 -0.3452  0.3322
96751W        W97615  12.220  22.952   7.232 -0.1563  0.1607 -0.0574
96752W        W97616  11.539  23.234   6.242 -0.0270 -0.1701 -0.0700
96753W        W97617  13.944  23.163   6.549 -0.1454  0.1378  0.1507
96754W        W97618  13.003  25.355   3.268  0.0070 -0.0474  0.2204
96755W        W97619  13.935  22.493   7.248 -0.0883  0.0778 -0.1506
96756W        W97620  12.129  21.720   6.959  0.0649 -0.3381  0.1464
96757W        W97621  12.789  21.175   6.914 -0.3500  0.0065 -0.1280
96758W        W97622  11.926  26.080   3.262 -0.2622 -0.0312  0.0092
96759W        W97623  12.891  23.904   7.646  0.3192  0.1309 -0.1688
96760W        W97624  11.742  20.616   7.024  0.0858  0.1479 -0.1914
96761W        W97625  13.776  23.869   5.824  0.1508  0.3143 -0.0077
96762W        W97626  15.143  22.514   4.476 -0.0438  0.1269 -0.0260
96763W        W97627  10.331  22.584   5.491  0.0435 -0.0554 -0.0600
96764W        W97628  14.912  25.623   6.279 -0.3635 -0.0995 -0.1971
96765W        W97629  14.474  23.748   5.819  0.0026  0.2112 -0.3080
96766W        W97630  13.224  24.904   3.583  0.1768 -0.0722 -0.0546
96767W        W97631  11.682  23.949   6.373 -0.1361  0.2825 -0.1391
96768W        W97632   9.977  24.278   6.411  0.1296 -0.1627  0.1292
96769W        W97633  12.975  24.236   7.245 -0.3080 -0.0978  0.0415
96770W        W97634  14.640  21.054   3.918  0.1012  0.0736 -0.0737
96771W        W97635  10.698  24.912   4.215  0.1662 -0.1140 -0.0384
96772W        W97636  15.937  23.057   7.890 -0.2353  0.0871 -0.1221
96773W        W97637  13.526  24.637   6.648  0.2704  0.2177  0.0505
96774W        W97638  15.145  24.609   6.231  0.0250 -0.0426 -0.1752
96775W        W97639  12.471  20.401   5.233 -0.2706  0.0985  0.0996
96776W        W97640  12.857  24.370   8.173 -0.4295  0.0013 -0.0421
96777W        W97641   9.172  24.350  10.432  0.1821  0.4408  0.2029
96778W        W97642  13.471  26.964   6.881  0.2903  0.2005  0.1376
96779W        W97643  14.285  22.953   5.328 -0.0733 -0.4417  0.3836
96780W        W97644  12.318  24.795   3.979 -0.2841 -0.3969 -0.2190
96781W        W97645  15.957  24.044   5.025  0.0173  0.0202  0.2797
96782W        W97646  14.643  21.406   3.500  0.1242  0.0069 -0.1906
96783W        W97647  13.714  22.064   4.196  0.0697 -0.1438 -0.3316
96784W        W97648  16.587  25.981   3.137 -0.2236  0.0327  0.0888
96785W        W97649  14.371  22.883   4.860 -0.1726  0.0309  0.1314
96786W        W97650  13.520  23.281   3.491  0.0372  0.4143 -0.1607
96787W        W97651  16.911  25.646   6.165  0.0849 -0.3187  0.3168
96788W        W97652  14.652  27.237   5.747  0.2076 -0.0238  0.1274
96789W        W97653  11.835  18.853   6.589 -0.3122 -0.1148  0.0617
96790W        W97654  13.077  23.215   3.024 -0.1271 -0.1040  0.0711
96791W        W97655  12.481  23.594   8.698  0.0271 -0.3812 -0.0474
96792W        W97656  12.444  21.469   4.305  0.3159  0.2161  0.0407
96793W        W97657  15.228  25.951   5.412  0.0020  0.2816 -0.3188
96794W        W97658  10.931  20.876   7.896  0.2328 -0.2221  0.0842
96795W        W97659  13.272  23.331   5.324  0.0145  0.0509 -0.1360
96796W        W97660  11.509  25.107   7.916 -0.1204 -0.1202  0.3684
96797W        W97661  13.038  23.659   8.614  0.2989  0.0089 -0.1844
96798W        W97662  13.397  23.867   6.647  0.0642  0.0301 -0.1755
96799W        W97663  12.852  20.785   5.502  0.1283 -0.1047  0.3768
96800W        W97664  13.692  24.713   4.613 -0.1617  0.0661 -0.1891
96801W        W97665  13.230  19.898   6.260 -0.3115  0.0880  0.2896
96802W        W97666   9.108  22.523   5.899  0.0894 -0.0815 -0.0583
96803W        W97667  11.672  23.597   5.385  0.1015 -0.1018 -0.0624
96804W        W97668  10.780  25.852   5.352 -0.1145 -0.2568 -0.2369
96805W        W97669   9.401  24.218   7.334  0.3321 -0.3797  0.2371
96806W        W97670  13.039  22.394   5.104  0.0282 -0.1887 -0.0376
96807W        W97671  13.163  22.902   5.128  0.1875 -0.3662  0.0373
96808W        W97672  11.492  26.777   6.284 -0.0568  0.1705  0.0461
96809W        W97673  10.682  27.095   4.409 -0.2007 -0.1392  0.0742
96810W        W97674  16.923  22.341   5.761 -0.2109 -0.2385  0.1596
96811W        W97675  13.891  21.612   5.119  0.1405  0.0565 -0.2272
96812W        W97676  13.855  25.571   6.298 -0.2202 -0.0858  0.0446
96813W        W97677   9.224  24.383   9.145  0.2409 -0.1988  0.2181
96814W        W97678  16.036  23.293   2.946  0.1473 -0.0417 -0.0282
96815W        W97679  13.697  24.884   5.161  0.1340 -0.0656 -0.2409
96816W        W97680  11.027  24.164   5.894  0.1247 -0.1570 -0.1421
96817W        W97681  12.962  22.825   5.607 -0.2029 -0.2686 -0.1812
96818W        W97682  12.794  23.051   7.905  0.0954  0.3288 -0.1092
96819W        W97683   9.414  23.586   5.115 -0.3747 -0.2258 -0.0048
96820W        W97684  11.742  25.131   5.805  0.0289 -0.0122  0.0996
96821W        W97685  13.904  23.685   6.305  0.1178  0.0445 -0.1534
96822W        W97686  15.923  22.032   5.480  0.1256  0.0822 -0.1159
96823W        W97687  15.831  25.137   6.468  0.0040 -0.0928 -0.3991
96824W        W97688  15.174  22.035   6.131 -0.0042 -0.3166  0.1438
96825W        W97689  12.013  24.221   6.155 -0.1530  0.1264 -0.2932
96826W        W97690  11.412  22.616   5.476  0.2537 -0.1902  0.1058
96827W        W97691  10.071  22.452   6.399 -0.1549 -0.1684 -0.2362
96828W        W97692  12.208  26.810   8.311 -0.2593  0.0327  0.4881
96829W        W97693  14.882  22.505   6.202  0.1049 -0.1526 -0.1540
96830W        W97694  13.298  27.112   6.320  0.1731  0.1553  0.0409
96831W        W97695  13.174  25.027  10.355 -0.0194  0.0502  0.2447
96832W        W97696  16.130  22.247   6.293  0.1221  0.1745 -0.0782
96833W        W97697  14.700  19.527   2.888  0.3053 -0.2992  0.3606
96834W        W97698  14.589  22.532   6.697 -0.0993  0.1568  0.0938
96835W        W97699  10.680  25.828   6.770  0.2867 -0.0734 -0.1552
96836W        W97700  14.650  23.129   3.750 -0.0501 -0.0301 -0.1329
96837W        W97701  13.436  20.148   3.912 -0.1852 -0.2156  0.2076
96838W        W97702  15.715  22.283   3.263 -0.3160  0.0502 -0.1051
96839W        W97703  13.425  22.592   5.474 -0.1017 -0.0285 -0.1549
96840W        W97704  11.812  25.631   5.875 -0.3444 -0.0616 -0.2117
96841W        W97705  14.911  26.368   8.275  0.1404 -0.0729 -0.1864
96842W        W97706  11.987  20.425   5.342 -0.0560  0.4564 -0.1410
96843W        W97707  12.338  24.063   4.650  0.1465  0.0943  0.0666
96844W        W97708  14.120  25.161   8.701 -0.0988 -0.0319  0.0544
96845W        W97709  12.279  25.379   6.593  0.0620 -0.0850 -0.0832
96846W        W97710  11.230  22.126   5.523 -0.0287 -0.3201  0.3568
96847W        W97711  12.890   0.441   4.277 -0.2847 -0.0630  0.1473
96848W        W97712   9.218  22.583   7.673 -0.0619  0.0420  0.0109
96849W        W97713  13.909  24.190   6.273  0.1216  0.0315 -0.0376
96850W        W97714  11.397  24.477   3.776 -0.4329  0.0591  0.1991
96851W        W97715  11.192  23.954   7.520 -0.0132 -0.1878  0.2046
96852W        W97716  14.304  20.618   3.731 -0.0922 -0.1432  0.2624
96853W        W97717  12.814  24.180   4.329  0.0192 -0.1970 -0.1677
96854W        W97718  12.471  22.148   3.574  0.1330 -0.1395  0.0948
96855W        W97719  10.752  22.041   5.810  0.1861 -0.3980  0.0078
96856W        W97720  12.856  18.612   6.659  0.2021 -0.1929 -0.0083
96857W        W97721  12.855  23.897   3.365 -0.0972  0.2094 -0.2363
96858W        W97722  15.983  25.848   8.670  0.0021 -0.1304 -0.3971
96859W        W97723  11.149  26.772   5.499  0.0896 -0.1182 -0.1330
96860W        W97724  16.191  22.133   8.002 -0.3393  0.2212  0.0240
96861W        W97725  13.311  26.615   9.439  0.0580 -0.2425 -0.0614
96862W        W97726  11.051  27.109   4.979 -0.0207 -0.0366  0.1825
96863W        W97727  17.988  23.723   5.849  0.2257 -0.3787 -0.2785
96864W        W97728  13.161  24.204   5.818  0.1083  0.1224  0.4017
96865W        W97729  11.861  20.984   5.857  0.1441 -0.2820 -0.0207
96866W        W97730  12.081  23.589   4.758 -0.0449  0.2869 -0.1292
96867W        W97731  16.075  21.092   5.134 -0.0083  0.3358  0.3735
96868W        W97732  12.386  23.240   4.870 -0.1057  0.1902  0.0703
96869W        W97733   9.962  25.231   3.692 -0.0379  0.0991 -0.1340
96870W        W97734  14.067  24.407   7.267  0.1579 -0.1118 -0.2815
96871W        W97735  12.694  24.403   6.921  0.1831 -0.1581  0.1587
96872W        W97736   9.802  24.137   5.287  0.2205  0.2191 -0.0740
96873W        W97737  12.343  20.318   6.198 -0.1080 -0.0456 -0.0842
96874W        W97738  13.964  22.487   5.155  0.1894  0.0598  0.1300
96875W        W97739  10.737  22.573   2.945 -0.2543 -0.0763 -0.1113
96876W        W97740  16.511  24.228   5.910  0.3569 -0.1201  0.0067
96877W        W97741  13.658  22.077   5.111 -0.1442 -0.1939 -0.4452
96878W        W97742  16.051  22.389   4.595 -0.1399 -0.0397 -0.2371
96879W        W97743  11.281  24.047   4.564  0.2224  0.2717  0.0491
96880W        W97744  11.991  23.019   6.048  0.0335  0.0498  0.1066
96881W        W97745  13.825  22.640   4.166 -0.0278  0.0799  0.3509
96882W        W97746  14.283  25.965   8.197 -0.1336  0.3328 -0.0485
96883W        W97747  10.986  21.167   7.151  0.1180 -0.1760 -0.0076
96884W        W97748  14.837  20.247   7.836 -0.2872  0.1682  0.2382
96885W        W97749  11.631  23.677   5.978 -0.1147  0.1174 -0.0381
96886W        W97750  12.889  22.495   6.027  0.1161 -0.1299 -0.1713
96887W        W97751  15.493  22.113   4.656 -0.0799 -0.2474 -0.0813
96888W        W97752  12.400  20.867   6.964 -0.1216 -0.1139 -0.1962
96889W        W97753  13.549  20.466   4.335 -0.0352  0.1059 -0.0614
96890W        W97754  10.442  25.252   7.026 -0.0748  0.4790 -0.3065
96891W        W97755  13.852  24.523   9.219  0.0930  0.1244 -0.2652
96892W        W97756  12.374  22.678   5.974 -0.0759 -0.1087 -0.0829
96893W        W97757  16.137  22.632   7.196 -0.1201  0.1935  0.0754
96894W        W97758  15.986  24.836   0.646  0.1491  0.0941 -0.3514
96895W        W97759  15.881  22.869   4.889  0.0112 -0.2087  0.1195
96896W        W97760  14.592  22.348   1.481  0.2017  0.2312 -0.4958
96897W        W97761  14.172  24.301   2.753  0.2450 -0.2142 -0.2202
96898W        W97762  16.157  26.400   5.636 -0.3247  0.1924 -0.0500
96899W        W97763  14.674  23.433   6.947  0.0815 -0.0580 -0.0521
96900W        W97764  11.508   0.071   3.895 -0.0978 -0.0042 -0.0165
96901W        W97765  11.345  23.105   5.184  0.1779 -0.1863  0.0455
96902W        W97766  12.267  21.272   4.852  0.1737  0.3504 -0.2300
96903W        W97767  15.212  26.451   5.815 -0.0280  0.1501  0.3291
96904W        W97768  11.156  23.541   6.164  0.2164  0.2160  0.1423
96905W        W97769  12.031  25.466   7.073  0.2464  0.1560  0.3146
96906W        W97770  14.604  22.854   8.960 -0.1666  0.1712 -0.0546
96907W        W97771  13.807  25.966   6.020 -0.2520  0.0214 -0.0469
96908W        W97772  12.417  25.031   6.958  0.2621  0.3866 -0.0241
96909W        W97773  11.811  23.154   8.028 -0.1201  0.4033 -0.0731
96910W        W97774  15.112   0.042   7.488  0.1947 -0.2117  0.0007
96911W        W97775  13.205  22.610   6.414 -0.2024  0.0527  0.1066
96912W        W97776  13.050  23.447   6.183 -0.3351  0.0793 -0.3710
96913W        W97777  12.028  26.634   7.810  0.1346  0.1248 -0.3581
96914W        W97778  11.176  25.287   7.564 -0.1296 -0.3291  0.0029
96915W        W97779  14.741  25.844   8.407 -0.1282  0.0901 -0.3625
96916W        W97780  12.648  27.249   7.216  0.1546  0.0656 -0.0562
96917W        W97781  13.750  23.572   6.850  0.0959 -0.0790  0.1130
96918W        W97782  16.852  21.008   3.010 -0.1257 -0.1393 -0.0897
96919W        W97783  11.061  24.474   8.709  0.2204  0.0855  0.0456
96920W        W97784  11.644  26.198   6.366  0.2052 -0.1288  0.1067
96921W        W97785  10.363  22.932   6.480 -0.0472 -0.2789 -0.0251
96922W        W97786  13.660  23.371   5.709  0.1280  0.0578  0.1873
96923W        W97787  14.912  23.278   7.383  0.3043 -0.2698  0.2016
96924W        W97788  14.148  25.635   5.870 -0.3176 -0.0685  0.0292
96925W        W97789  10.970  24.964   2.971  0.0446 -0.1603 -0.3712
96926W        W97790  10.903  24.648   9.613  0.2580  0.5478 -0.1596
96927W        W97791  10.997  22.695   9.876 -0.0800 -0.2314  0.0586
96928W        W97792  14.299  24.153   8.359 -0.2618  0.1312 -0.1575
96929W        W97793  13.862  25.695  10.638  0.0636 -0.1625 -0.1621
96930W        W97794  12.387  25.103   9.899  0.2404 -0.0523  0.0202
96931W        W97795   9.835  23.186   8.051 -0.2498  0.0322 -0.1533
96932W        W97796  10.917  24.793   6.663 -0.3490  0.0915  0.2207
96933W        W97797  12.123  26.289  10.315  0.1708 -0.1907  0.1541
96934W        W97798  12.472  25.503  12.153  0.1694  0.2269 -0.1542
96935W        W97799  10.309  24.325   7.231  0.4238  0.0362 -0.0264
96936W        W97800  14.791  23.903   8.375 -0.0462 -0.0864  0.2226
96937W        W97801  12.377  22.958   8.284  0.1168  0.0734  0.0751
96938W        W97802  13.750  21.957   7.029  0.0796  0.1707 -0.1776
96939W        W97803  16.536  22.930  10.175 -0.0476  0.0592 -0.0467
96940W        W97804   9.509  23.453   9.517  0.0350  0.0677  0.1679
96941W        W97805  10.006  24.425   8.342 -0.5009 -0.0118  0.3348
96942W        W97806  15.589  26.083   7.859 -0.1669 -0.1854 -0.0528
96943W        W97807  11.079  21.973   8.154 -0.1114  0.0249 -0.1695
96944W        W97808  13.362  22.991  11.332 -0.1780  0.0709  0.0380
96945W        W97809  15.761  22.711   9.558  0.3591  0.0200 -0.0211
96946W        W97810  14.077  22.856  10.191 -0.2472 -0.1459  0.1973
96947W        W97811  14.662  22.767   8.464  0.0658  0.1867 -0.0506
96948W        W97812  13.817  23.257   8.991 -0.2387 -0.0426 -0.0702
96949W        W97813  13.510  25.861   8.803 -0.2556  0.0922  0.1153
96950W        W97814  13.361  23.886   6.115 -0.1466 -0.0641  0.0306
96951W        W97815  11.361  23.430  11.287 -0.1920 -0.4066  0.2587
96952W        W97816  15.480  23.418   8.068 -0.1185 -0.1416  0.1699
96953W        W97817  12.255  24.065  11.176 -0.3554 -0.2888  0.3090
96954W        W97818  12.613  21.647  10.293  0.2317  0.4435  0.0767
96955W        W97819  13.157  21.409   7.116 -0.3418  0.1493  0.1249
96956W        W97820  11.265  24.521   9.209 -0.2460 -0.1771  0.0466
96957W        W97821  14.033  22.885  11.685  0.0867 -0.2954  0.1692
96958W        W97822  13.734  21.702  11.751 -0.2479  0.0729 -0.0522
96959W        W97823  12.584  21.377  10.681  0.2486 -0.0973 -0.0931
96960W        W97824  10.441  23.827  10.444  0.1212 -0.0225 -0.1017
96961W        W97825  12.299  27.281  13.161 -0.0155  0.0874  0.0972
96962W        W97826  11.604  22.780  10.048  0.0662 -0.2039 -0.2723
96963W        W97827  11.823  21.721  10.943 -0.2679 -0.0508  0.0636
96964W        W97828  12.886  25.173   9.930 -0.1205 -0.0874  0.1834
96965W        W97829  10.689  22.119   8.726 -0.1053  0.4483  0.0363
96966W        W97830  17.078  23.798   9.426 -0.1028  0.2551 -0.0113
96967W        W97831  15.139  21.798  11.399 -0.0300  0.2434 -0.3542
96968W        W97832  15.133  26.380   9.154  0.2076 -0.2189  0.1163
96969W        W97833  12.381  22.411   9.473  0.2791 -0.0467  0.3298
96970W        W97834   9.159  24.652   8.166  0.2523  0.0079 -0.1041
96971W        W97835  12.146  24.085   8.949 -0.3672  0.2253  0.0003
96972W        W97836  10.876  21.403   9.228 -0.0982 -0.0473 -0.1027
96973W        W97837  12.888  22.033  12.781  0.3948 -0.2318 -0.0903
96974W        W97838  13.449  25.635   9.858  0.0877  0.3872  0.3898
96975W        W97839  14.402  24.382   6.712 -0.2483 -0.0579 -0.1309
96976W        W97840  11.693  24.672  10.524  0.1477  0.1317 -0.1253
96977W        W97841  12.152  24.191   9.963 -0.1171 -0.1885 -0.2021
96978W        W97842  12.290  26.817  10.214 -0.0079  0.3404  0.0748
96979W        W97843  13.786  25.612   4.734 -0.0317  0.1738 -0.2434
96980W        W97844  13.179  20.899  10.087 -0.0959  0.1393  0.0181
96981W        W97845  11.273  26.403   9.391  0.2477  0.1365  0.2706
96982W        W97846  10.786  26.094   7.800 -0.1923  0.0492  0.0744
96983W        W97847  13.496  19.322  10.661 -0.0856 -0.1695 -0.0464
96984W        W97848  11.098  22.796  11.771  0.1629 -0.0319 -0.1542
96985W        W97849   9.607  27.476  10.188 -0.1109 -0.0991  0.1433
96986W        W97850  17.222  22.058   8.054  0.0555  0.2398 -0.2196
96987W        W97851   9.901  25.429   8.652  0.0726  0.3807  0.3663
96988W        W97852  10.298  22.667  11.280  0.3041 -0.0355 -0.1151
96989W        W97853  10.969  23.169   6.551 -0.1674  0.0478 -0.2776
96990W        W97854  14.112  22.073   8.051  0.0261 -0.0418  0.0302
96991W        W97855  15.848  25.116   7.749 -0.1209  0.2965  0.0172
96992W        W97856  12.760  24.092   8.565 -0.3048  0.3136  0.0393
96993W        W97857  12.201  20.784   6.240  0.2088 -0.0555 -0.1159
96994W        W97858  11.641  23.030   6.781  0.0756  0.0355  0.0207
96995W        W97859  13.800  21.533   7.280 -0.1260  0.0355 -0.0719
96996W        W97860  13.905  25.616  10.073 -0.1582 -0.1214  0.1090
96997W        W97861  13.433  25.076   6.878  0.3179 -0.0559  0.0692
96998W        W97862  13.736  25.284   9.435  0.0468 -0.3818  0.0485
96999W        W97863  13.223  23.724  10.066 -0.0572 -0.2323 -0.2787
97000W        W97864  16.295  26.319   9.571  0.1074 -0.0011  0.0165
97001W        W97865  13.638  25.186   9.992  0.0100 -0.2136 -0.2725
97002W        W97866   9.898  23.786   9.077  0.0232 -0.1429 -0.1083
97003W        W97867  12.617  24.007  10.570  0.1491  0.3180  0.1114
97004W        W97868  13.770  22.257   8.819 -0.0602 -0.1163  0.0301
97005W        W97869  13.030  22.258   8.165  0.0838  0.1222  0.0948
97006W        W97870  13.078  21.973  10.225 -0.0535  0.0046  0.0977
97007W        W97871   9.723  24.789  11.379 -0.1387 -0.0482  0.1540
97008W        W97872  14.244  21.992   8.718  0.4058 -0.0908 -0.1942
97009W        W97873  12.803  20.640  10.253 -0.4738  0.2245  0.2928
97010W        W97874   8.680  20.839   9.768 -0.2407 -0.0190  0.0684
97011W        W97875  14.093  21.545   8.684  0.1698  0.0240 -0.2190
97012W        W97876  15.334  23.899  10.514  0.1144  0.0742 -0.2121
97013W        W97877  13.146  20.879   8.376 -0.1425  0.0386  0.1992
97014W        W97878  15.912  25.879  10.510  0.0687  0.0407  0.0834
97015W        W97879  16.104  22.976  11.444  0.0041  0.2713 -0.2438
97016W        W97880  14.559  23.236   9.308 -0.1072 -0.0894  0.0727
97017W        W97881  14.800  23.065   9.685 -0.0367  0.0266 -0.1569
97018W        W97882  11.819  25.266  10.665  0.0953 -0.3041 -0.0987
97019W        W97883   9.645  20.350   7.644  0.2144  0.2173  0.1512
97020W        W97884  15.523  22.736   9.048  0.0971  0.0608 -0.0742
97021W        W97885  15.301  25.820   9.122  0.0460  0.0986  0.5319
97022W        W97886  13.804  25.171   6.551  0.1609 -0.0559 -0.4689
97023W        W97887  12.296  25.587  13.106  0.0391  0.2091 -0.1603
97024W        W97888  13.268  23.115   8.266 -0.0883  0.1973  0.1739
97025W        W97889  14.214  24.003  11.872 -0.1067 -0.1033  0.0314
97026W        W97890  16.987  25.140   6.267 -0.1386 -0.0556 -0.2415
97027W        W97891   9.905  24.991   8.182 -0.2203 -0.1127 -0.0480
97028W        W97892  12.270  22.627   8.713  0.0211  0.0794  0.0546
97029W        W97893  15.746  24.658  11.672 -0.0776  0.0819 -0.1925
97030W        W97894  16.070  20.394   9.651  0.0185  0.0774 -0.0572
97031W        W97895  13.199  20.484   9.553 -0.1631  0.1495 -0.2612
97032W        W97896  13.582  23.482   8.456 -0.2156  0.0113 -0.4430
97033W        W97897  14.439  21.462  10.087  0.0689  0.1093  0.3015
97034W        W97898  14.004  24.821   9.674  0.0624  0.1176 -0.2310
97035W        W97899  10.941  24.172   9.391  0.1487  0.1526 -0.2131
97036W        W97900   9.109  23.076   9.551  0.1095  0.0358 -0.0536
97037W        W97901  14.016  23.715   8.574  0.1289 -0.0459  0.0701
97038W        W97902  14.957  23.401   8.897  0.0111 -0.2124 -0.4329
97039W        W97903  13.452  24.796  10.825  0.2540  0.1851 -0.2034
97040W        W97904  14.761  25.018   8.024  0.1026 -0.4499 -0.2439
97041W        W97905  12.466  22.928   5.526  0.2612  0.4860 -0.2648
97042W        W97906  14.186  22.476   9.061 -0.0755  0.0563 -0.1672
97043W        W97907  12.286  21.909  11.134 -0.1086 -0.0737  0.0365
97044W        W97908  13.329  23.089   9.184  0.3194 -0.0230  0.2008
97045W        W97909  15.986  23.513   8.048  0.1928 -0.1080  0.1693
97046W        W97910  15.441  25.131   8.712  0.3184  0.0440 -0.0613
97047W        W97911  16.096  26.047  10.022 -0.0249  0.2469  0.2558
97048W        W97912  11.703  23.876   9.853 -0.0055  0.0493 -0.1806
97049W        W97913  12.976  20.765   6.067  0.2175  0.1554  0.1015
97050W        W97914  14.075  24.411   7.913 -0.0859  0.3958 -0.1577
97051W        W97915  16.171  27.181  10.791  0.2639  0.2011 -0.0978
97052W        W97916   8.868  24.922   6.706 -0.1768 -0.0130  0.0401
97053W        W97917  12.255  24.226  11.653 -0.2051 -0.1827  0.0447
97054W        W97918  13.995  24.940  10.980 -0.0339  0.3190 -0.2139
97055W        W97919  10.474  24.304   7.676  0.1033  0.2018 -0.3857
97056W        W97920  11.925  23.881  11.805  0.1635  0.2218  0.2643
97057W        W97921  12.966  23.002  11.798  0.1999 -0.0596  0.3206
97058W        W97922  11.271  23.977  10.648  0.1018  0.4189  0.1610
97059W        W97923  16.499  25.658  10.357  0.1781 -0.2375  0.1403
97060W        W97924  15.514  24.914   7.469  0.1557 -0.0133 -0.1227
97061W        W97925  13.341  21.889   7.364  0.2471 -0.0948 -0.1422
97062W        W97926  15.044  22.913   9.256 -0.0401 -0.3723  0.4130
97063W        W97927  13.771  23.063  10.530  0.0090 -0.2005 -0.2079
97064W        W97928  12.060  24.222  10.494 -0.1802  0.3667 -0.2293
97065W        W97929  10.808  24.142   8.362  0.1974 -0.1029  0.0866
97066W        W97930   9.137  23.880   8.014  0.1652 -0.3271  0.0882
97067W        W97931   9.428  22.038  10.421  0.2071 -0.0053  0.0797
97068W        W97932   9.357  24.654  10.010  0.1217  0.1873 -0.2066
97069W        W97933  11.702  22.361   5.150  0.0435 -0.5818 -0.0098
97070W        W97934  12.162  21.275  10.943  0.0329  0.0860  0.1675
97071W        W97935  12.580  24.288   7.737  0.0437 -0.0918 -0.0817
97072W        W97936  12.597  23.802   6.345 -0.1708 -0.3447  0.1746
97073W        W97937  13.780  23.927  10.081  0.1146  0.1077 -0.1509
97074W        W97938  12.494  26.545  10.570  0.2497  0.1038 -0.0159
97075W        W97939  13.234  23.239   9.955 -0.0828 -0.2127  0.4563
97076W        W97940  13.222  25.138  12.050  0.2275  0.0142  0.2654
97077W        W97941  11.114  23.506   7.428  0.0854  0.4696 -0.1086
97078W        W97942  13.696  23.304  10.104 -0.0969  0.3304 -0.0780
97079W        W97943  12.177  23.392   8.375  0.2898  0.1210  0.2161
97080W        W97944  12.866  22.899  10.217  0.0811 -0.0592  0.6388
97081W        W97945  12.926  20.843   9.152 -0.3920 -0.1647  0.0027
97082W        W97946  12.563  23.841   9.130 -0.0081 -0.0074  0.3041
97083W        W97947  11.664  23.977   9.138  0.0716 -0.3765 -0.0703
97084W        W97948  13.767  21.251   6.371  0.2489 -0.4920  0.0724
97085W        W97949  11.596  23.489   8.396 -0.0204  0.1343  0.0820
97086W        W97950  12.324  20.041   8.634 -0.2309  0.2878  0.1289
97087W        W97951  13.444  23.620  11.396 -0.0014  0.0732  0.1828
97088W        W97952  13.552  25.709  11.218  0.0258  0.0137  0.2601
97089W        W97953  12.699  21.709  12.439  0.1472 -0.0019 -0.1065
97090W        W97954  11.203  21.014  13.400  0.0656 -0.1748  0.1214
97091W        W97955  10.544  22.605   9.646 -0.0490  0.0411  0.1462
97092W        W97956  12.727  20.329   8.444 -0.1719 -0.2981  0.2621
97093W        W97957   8.660  23.193   9.760  0.0761 -0.1020  0.0217
97094W        W97958  14.187  23.756  14.997 -0.2060 -0.0599 -0.1042
97095W        W97959  10.094  22.729   5.019 -0.1100  0.0564  0.0592
97096W        W97960  15.634  25.436   9.128  0.0113  0.1560  0.0350
97097W        W97961  12.248  21.044   8.708  0.2004 -0.1942  0.0342
97098W        W97962  12.110  25.701   8.561  0.0818 -0.0871 -0.0682
97099W        W97963  16.421  24.701   8.469  0.0075  0.0485 -0.0974
97100W        W97964  12.611  21.876  10.757 -0.0955 -0.0822  0.2106
97101W        W97965  15.185  23.698   7.610 -0.0097 -0.1188 -0.0566
97102W        W97966   8.700  26.528  10.483 -0.3662  0.0384  0.0017
97103W        W97967  11.704  23.478  11.647 -0.1063 -0.0681  0.2599
97104W        W97968   9.356  25.136   8.373 -0.3165 -0.1060  0.3262
97105W        W97969  11.962  20.194   8.319  0.1603 -0.1712 -0.1728
97106W        W97970  12.281  25.154   7.495  0.2297  0.0163  0.0942
97107W        W97971  14.446  27.009   7.700  0.0361 -0.2846  0.0966
97108W        W97972  13.028  22.748   7.458 -0.1084  0.0422 -0.0297
97109W        W97973  11.606  25.440   6.274  0.2154  0.2338 -0.1043
97110W        W97974  10.483  23.950   6.949 -0.0688 -0.2896  0.0027
97111W        W97975  19.208  25.538  10.490 -0.4783  0.0400 -0.1027
97112W        W97976  14.748  24.765   9.317 -0.0910 -0.0293 -0.2536
97113W        W97977   9.043  22.223   6.287 -0.1054  0.0331 -0.1910
97114W        W97978  11.171  23.532  10.840  0.0514 -0.0277 -0.0997
97115W        W97979  11.843  25.084  10.196  0.0887 -0.0835  0.3707
97116W        W97980  13.559  25.297   7.967 -0.0710  0.0621  0.1940
97117W        W97981   8.556  22.643   7.163 -0.3761 -0.1809  0.1232
97118W        W97982  15.950  24.984  12.498  0.0466  0.2210 -0.3107
97119W        W97983  11.048  21.500   7.973  0.0721 -0.2864 -0.0227
97120W        W97984  12.819  21.123  10.359 -0.0745  0.1104  0.3102
97121W        W97985  12.181  22.252   9.877  0.1750  0.0900  0.0249
97122W        W97986  14.467  23.735   8.755 -0.0386 -0.1603 -0.0758
97123W        W97987  11.445  22.632   9.515  0.0274 -0.1441 -0.0125
97124W        W97988  10.343  23.998   8.143 -0.1367  0.0522 -0.1011
97125W        W97989  13.355  22.611   8.293  0.1327  0.3003  0.0682
97126W        W97990  11.595  25.661   7.799  0.1918  0.3107  0.2351
97127W        W97991  14.399  23.069  12.054  0.1089  0.3459  0.0865
97128W        W97992  12.855  24.366   9.035 -0.2606 -0.1388 -0.2920
97129W        W97993  13.365  20.035   9.756  0.0394  0.1657 -0.1861
97130W        W97994  14.873  21.267  10.785  0.0872 -0.1864  0.2798
97131W        W97995   8.581  23.535   4.549 -0.0508 -0.2760 -0.0021
97132W        W97996  14.256  21.203  14.426  0.1804 -0.0743 -0.2020
97133W        W97997  13.733  22.636   9.191  0.0543  0.1314 -0.2676
97134W        W97998  11.664  25.807   8.680  0.0576  0.1707 -0.0155
97135W        W97999  11.780  23.280   7.234 -0.2482 -0.0549  0.0722
97136W        W98000  10.975  22.811   8.580  0.1549 -0.2033  0.0158
97137W        W98001  10.271  21.928   8.914  0.1719  0.0175  0.0328
97138W        W98002  13.108  22.467  10.125  0.0248 -0.3460  0.1522
97139W        W98003  13.045  24.642   9.508 -0.0603 -0.1011  0.0906
97140W        W98004  16.858  22.198   9.261  0.1153  0.0047 -0.1135
97141W        W98005  14.963  26.248   6.900 -0.2386  0.3034  0.1919
97142W        W98006  14.806  23.562   6.462 -0.1310  0.2207 -0.2272
97143W        W98007  15.220  25.464   6.578 -0.0219 -0.1488  0.1653
97144W        W98008  14.108  22.976   9.269 -0.2951 -0.2606  0.1034
97145W        W98009   9.867  23.676  13.383 -0.0217  0.0507  0.4977
97146W        W98010  16.776  21.844  10.765  0.2307 -0.0111  0.0490
97147W        W98011  14.196  23.229   7.918  0.0254 -0.2618 -0.0100
97148W        W98012  13.170  21.697  12.555 -0.1940 -0.0249 -0.0585
97149W        W98013  10.734  22.896   7.931 -0.0635 -0.1427 -0.0543
97150W        W98014  16.069  24.192   4.530  0.1949  0.1984 -0.2131
97151W        W98015  11.500  22.957  11.473 -0.2826 -0.1118  0.2239
97152W        W98016  10.597  24.552  13.347  0.0237 -0.1978  0.2429
97153W        W98017  15.891  23.108   8.969 -0.1925  0.0234  0.1029
97154W        W98018  15.404  26.305  10.851 -0.0358 -0.1296 -0.2102
97155W        W98019  12.930  22.064  12.213 -0.3361 -0.1401  0.3605
97156W        W98020  10.716  24.536  11.524  0.0582  0.1408  0.3027
97157W        W98021  11.530  23.703  12.085 -0.2103 -0.3436 -0.1259
97158W        W98022  11.597  26.135   6.891  0.3095 -0.3380 -0.1160
97159W        W98023  13.782  22.940   8.074  0.1341 -0.1451  0.0394
97160W        W98024  10.229  19.977  10.944 -0.1678  0.0458  0.1825
97161W        W98025  11.812  22.039  10.244 -0.0795  0.0005 -0.1709
97162W        W98026  15.122  23.793   9.677 -0.0798 -0.1958 -0.1279
97163W        W98027  11.779  20.789   8.862 -0.0087 -0.0426  0.3168
97164W        W98028  10.072  24.531  10.723  0.1484 -0.1520  0.0035
97165W        W98029  13.306  25.415  10.826 -0.1143  0.0921 -0.1876
97166W        W98030  14.511  24.607   8.134  0.0016 -0.0509 -0.0735
97167W        W98031  10.426  24.995   8.960  0.3185 -0.2079 -0.0501
97168W        W98032  13.507  23.761   9.612  0.3370 -0.0276  0.0740
97169W        W98033  10.755  23.167   9.759 -0.2749  0.0791  0.1195
97170W        W98034  14.770  21.812  10.053 -0.1386  0.1391  0.1947
97171W        W98035  13.814  25.490   9.012 -0.1579  0.3787  0.1327
97172W        W98036  12.706  25.424  10.625  0.1332 -0.1259 -0.1027
97173W        W98037  11.236  23.072   9.749  0.0002  0.2059  0.0516
97174W        W98038  15.582  25.413  10.641 -0.1210  0.0479  0.0126
97175W        W98039   9.872  22.432   9.473  0.0308  0.2532  0.1751
97176W        W98040  12.429  25.919   7.466 -0.1314 -0.0407  0.0305
97177W        W98041  12.568  24.383  10.194 -0.2378  0.1996 -0.1328
97178W        W98042  14.391  25.805  12.589 -0.2567  0.0694  0.0185
97179W        W98043  13.813  20.419  12.465  0.1397 -0.0598 -0.0679
97180W        W98044  13.173  25.173   6.074  0.1763 -0.3141  0.1892
97181W        W98045  16.418  23.582   9.322 -0.1044  0.0568  0.0874
97182W        W98046  10.783  23.375   7.096  0.2012 -0.0275 -0.1319
97183W        W98047  14.402  21.267  10.626  0.0416 -0.0924 -0.0856
97184W        W98048  13.400  24.429  10.432 -0.1824 -0.4573  0.3980
97185W        W98049  13.538  22.234  10.152  0.2415 -0.1119  0.0717
97186W        W98050  11.512  23.657   4.893  0.0389  0.3894 -0.3267
97187W        W98051  12.946  24.642  10.002  0.1597  0.2562  0.0385
97188W        W98052  11.023  23.332   9.368 -0.1164  0.0209 -0.0417
97189W        W98053  12.906  20.867  15.091  0.3614 -0.1510 -0.0422
97190W        W98054  12.673  24.855  10.342 -0.1662  0.2726 -0.1510
97191W        W98055  10.898  26.985  12.876 -0.0559 -0.0947  0.0489
97192W        W98056  10.726  24.581   9.125  0.1895 -0.2451 -0.2411
97193W        W98057  13.137  23.209   8.772  0.4041 -0.2518 -0.2508
97194W        W98058  10.926  22.213  10.802  0.2533 -0.0156 -0.1051
97195W        W98059  15.952  23.769   5.690 -0.0681  0.0811 -0.0396
97196W        W98060  16.811  23.619  10.940 -0.0232  0.4270  0.1349
97197W        W98061  11.946  22.524  11.652 -0.0121 -0.3234 -0.1477
97198W        W98062  13.300  21.291   9.208  0.0735 -0.0185  0.0264
97199W        W98063  12.508  22.915   9.840 -0.1608  0.0265 -0.1104
97200W        W98064  10.528  25.707   8.091  0.1811 -0.1163 -0.1323
97201W        W98065  16.885  22.473   9.978  0.0871  0.2500  0.0411
97202W        W98066   9.849  20.619   8.121 -0.0511 -0.0874 -0.0958
97203W        W98067  13.412  25.039  11.245  0.1586 -0.4241 -0.2221
97204W        W98068  12.562  20.505   6.648 -0.0330 -0.0981  0.0421
97205W        W98069   9.929  25.003  12.852  0.2299 -0.0982 -0.1017
97206W        W98070  10.667  23.218   8.342 -0.1885 -0.1715  0.0388
97207W        W98071  13.297  19.116   5.144  0.0024 -0.1242 -0.2221
97208W        W98072  10.295  24.829   7.309  0.0246 -0.1452 -0.3992
97209W        W98073  12.838  24.189  13.369 -0.2219 -0.3591 -0.1322
97210W        W98074  16.130  24.308   7.103  0.2665 -0.2151 -0.0450
97211W        W98075  14.557  22.180   9.800  0.0516 -0.0075 -0.0244
97212W        W98076  12.776  26.625  11.389  0.0352  0.4782  0.1220
97213W        W98077  11.329  19.658  12.605 -0.2305  0.0597  0.2595
97214W        W98078  13.783  23.829   7.267  0.1101  0.0258  0.3158
97215W        W98079  10.073  24.898   9.300  0.0556  0.0536  0.0597
97216W        W98080  12.141  24.634  10.228  0.0172  0.1407 -0.0113
97217W        W98081  13.253  23.050  10.533  0.4056  0.1761  0.0671
97218W        W98082  15.006  24.599   8.265  0.0473 -0.0444 -0.1450
97219W        W98083  11.046  23.312   7.913  0.2387  0.3606 -0.1094
97220W        W98084  12.021  23.685   9.264  0.0967 -0.3537 -0.2328
97221W        W98085  13.154  22.572   9.351  0.0423  0.1347  0.0626
97222W        W98086  12.616  21.923   9.889 -0.0249 -0.2346 -0.0462
97223W        W98087  14.131  24.330  10.156 -0.0940 -0.0317 -0.0817
97224W        W98088  11.780  24.314  11.504  0.3732  0.0141 -0.0128
97225W        W98089   9.727  26.348  10.596 -0.1486  0.0970 -0.0277
97226W        W98090  10.377  23.411   6.740  0.0644  0.0724  0.2597
97227W        W98091  11.943  22.636  10.787  0.2670 -0.0993 -0.0685
97228W        W98092  15.056  25.455  10.787 -0.0601  0.0640 -0.0879
97229W        W98093  15.401  23.710   8.916 -0.2575 -0.1333 -0.1449
97230W        W98094  16.038  21.877   5.988 -0.0674 -0.2848  0.2349
97231W        W98095  15.256  26.241  10.321  0.1299 -0.0907  0.1724
97232W        W98096  13.193  24.074  11.252  0.0515 -0.1045  0.0715
97233W        W98097  13.057  20.956   7.902  0.0131 -0.0568 -0.0219
97234W        W98098  10.023  23.962   7.485  0.2879  0.0568  0.0216
97235W        W98099  11.861  26.041   9.964  0.1060 -0.2005  0.2359
97236W        W98100  11.954  22.656   8.191 -0.1654  0.0002 -0.0256
97237W        W98101  12.404  24.434   8.669  0.0985  0.2087 -0.1721
97238W        W98102  11.877  22.309   9.381  0.2111 -0.0790 -0.1561
97239W        W98103  12.777  22.975  13.283  0.1086 -0.1116 -0.2182
97240W        W98104  11.729  25.083   9.189 -0.2551  0.0728 -0.0097
97241W        W98105  12.201  21.628   9.934 -0.0255  0.1989 -0.1795
97242W        W98106  13.245  23.953   8.204 -0.0149 -0.0362  0.2457
97243W        W98107  13.261  23.970  11.751 -0.3388  0.1434  0.1743
97244W        W98108  13.270  22.614  12.311 -0.2029 -0.1236 -0.4273
97245W        W98109  11.512  22.183   8.983  0.1624 -0.5370 -0.1637
97246W        W98110  10.025  25.772  10.760  0.1011 -0.2762  0.1967
97247W        W98111  11.985  24.330   7.967  0.1579 -0.2727  0.0035
97248W        W98112  10.108  25.444  11.997  0.1606 -0.1235 -0.0044
97249W        W98113  11.387  25.366   9.456 -0.0173 -0.0138  0.1777
97250W        W98114  12.240  21.936   9.499 -0.2072 -0.0177  0.2050
97251W        W98115  12.460  24.530  10.722  0.0086 -0.1550 -0.1015
97252W        W98116  12.209  20.116  10.107 -0.0834  0.1677 -0.0165
97253W        W98117   8.529  23.677   9.486  0.4658  0.0885  0.3685
97254W        W98118  14.523  25.401   8.506  0.0057 -0.1904 -0.0333
97255W        W98119  11.587  24.574   7.863  0.2089 -0.0059  0.1043
97256W        W98120  11.198  23.792   9.880  0.0206 -0.2937  0.1031
97257W        W98121  15.262  21.171   6.098  0.0582 -0.4203 -0.1759
97258W        W98122  16.224  25.742  13.079  0.0264  0.3627 -0.1323
97259W        W98123  13.595  25.160  12.420 -0.0049 -0.1251  0.3030
97260W        W98124  16.903  25.194  10.922 -0.0516 -0.0141  0.0469
97261W        W98125  16.869  28.087  12.074  0.0308 -0.1882  0.2068
97262W        W98126   9.072  25.125  10.006 -0.2308  0.0231  0.0801
97263W        W98127  13.796  23.943   9.181  0.2653  0.0294  0.0835
97264W        W98128  15.704  25.922   7.314 -0.1360  0.0634  0.0457
97265W        W98129  11.986  24.009   6.919  0.0291 -0.1438 -0.1149
97266W        W98130  11.466  24.785   9.604  0.0753  0.1297 -0.3082
97267W        W98131  13.517  21.643   7.727 -0.3116 -0.1592 -0.1916
97268W        W98132  11.713  20.424   9.297 -0.0015  0.1735  0.0886
97269W        W98133  10.226  23.486   7.720  0.2946 -0.0760 -0.1553
97270W        W98134  13.338  24.111   8.713 -0.3040  0.1948  0.1704
97271W        W98135  12.502  23.485  10.568  0.3649 -0.0244 -0.1901
97272W        W98136  11.431  23.636   6.614  0.1032 -0.0071  0.4853
97273W        W98137  11.079  22.967   6.033 -0.1088  0.0021  0.2780
97274W        W98138  13.021  22.777   9.780 -0.0836 -0.1612  0.0737
97275W        W98139   9.329  23.550   6.791 -0.1229 -0.1607 -0.0922
97276W        W98140  15.392  21.305  12.001 -0.0457  0.2575  0.1574
97277W        W98141  13.443  20.871   9.011  0.2349  0.1210 -0.1886
97278W        W98142  14.008  24.242   8.778 -0.0324  0.0506  0.2050
97279W        W98143  12.891  26.277  10.311  0.0366  0.1748  0.0154
97280W        W98144  12.234  26.525   8.865 -0.0709  0.0396  0.1883
97281W        W98145  13.422  22.042   5.607  0.3567 -0.2400  0.1847
97282W        W98146  10.930  25.961  10.495  0.5018 -0.0911 -0.1088
97283W        W98147  13.778  20.892   9.957 -0.3230  0.2104  0.0235
97284W        W98148  11.153  22.243   8.598  0.1467 -0.4248  0.4176
97285W        W98149   8.960  24.027   9.468 -0.1310 -0.2668 -0.2708
97286W        W98150  10.570  22.591   8.362 -0.1079  0.0133 -0.2357
97287W        W98151  16.873  20.168   8.547  0.2000  0.1544  0.0301
97288W        W98152  11.249  25.102   8.449  0.0565  0.0663  0.0703
97289W        W98153   9.660  23.807   7.228  0.3531  0.3988 -0.1354
97290W        W98154  13.674  23.312  12.237  0.1335  0.0359  0.0119
97291W        W98155  12.515  23.204  11.609 -0.0716 -0.3126 -0.4055
97292W        W98156  11.446  24.197   9.561 -0.0217  0.1058  0.2030
97293W        W98157  14.683  24.018   9.679  0.3002  0.0193  0.1683
97294W        W98158  13.516  25.341   7.511 -0.2271 -0.0570 -0.0807
97295W        W98159  12.762  22.484   7.802 -0.1294 -0.5996  0.0232
97296W        W98160  15.532  22.951   5.727  0.2950 -0.0616 -0.1072
97297W        W98161  12.632  22.935   8.739 -0.1063  0.0572 -0.0750
97298W        W98162  13.996  25.509   8.330  0.2466  0.0089  0.1565
97299W        W98163  16.160  24.517   8.932 -0.1347  0.3053  0.4219
97300W        W98164  16.403  24.054   6.342 -0.0795 -0.1632  0.1478
97301W        W98165  11.563  21.644  10.474  0.0859 -0.0286 -0.1222
97302W        W98166  11.382  19.545   9.355 -0.0996 -0.2291 -0.1842
97303W        W98167  15.048  24.476   9.570 -0.0455 -0.1229  0.1751
97304W        W98168  14.501  22.702   9.978 -0.0097 -0.1880 -0.2552
97305W        W98169  10.927  22.315   9.333 -0.2310  0.0054 -0.0266
97306W        W98170  15.455  24.696   9.737 -0.2036  0.0940 -0.1237
97307W        W98171  10.935  24.373  10.970 -0.2844 -0.0619  0.2281
97308W        W98172  11.760  22.669   9.023 -0.0298 -0.0508 -0.2905
97309W        W98173  14.293  23.262   8.792 -0.1590 -0.0980  0.3889
97310W        W98174  11.714  24.727  12.002 -0.1666  0.2651  0.2249
97311W        W98175  15.369  22.430   9.468  0.0578 -0.0364 -0.1288
97312W        W98176  13.533  22.809  10.085  0.2358  0.0533 -0.3369
97313W        W98177  12.774  23.051  10.694  0.2392  0.0187 -0.2650
97314W        W98178  12.256  23.512  11.933 -0.2585  0.1508 -0.1354
97315W        W98179  14.582  23.539   9.798 -0.1159 -0.0640  0.2000
97316W        W98180  12.869  24.361  11.581 -0.2396 -0.0452 -0.1166
97317W        W98181  11.916  24.555  12.889 -0.1588 -0.1243 -0.1889
97318W        W98182  12.125  23.187  10.614  0.1970  0.1998 -0.2857
97319W        W98183  12.081  24.589  11.110  0.2936 -0.1835 -0.0068
97320W        W98184  10.559  22.569  10.127 -0.1002 -0.2554 -0.0066
97321W        W98185  12.103  20.782  10.975  0.0487  0.1542 -0.0554
97322W        W98186  12.140  24.761   6.618 -0.0488 -0.0922 -0.1543
97323W        W98187  10.529  24.362  10.559  0.0049  0.0901  0.0786
97324W        W98188  11.133  25.585   7.027 -0.0178  0.0150 -0.1838
97325W        W98189   5.860  23.210   6.734 -0.0961  0.0445 -0.1609
97326W        W98190  12.208  25.305  16.597  0.0533 -0.1029  0.0922
97327W        W98191  13.282  23.776  12.226  0.1435 -0.1118 -0.2056
97328W        W98192  12.754  25.233  11.268 -0.2215 -0.1063 -0.1293
97329W        W98193  14.468  25.581  14.508 -0.0237  0.2004  0.0561
97330W        W98194  11.425  24.327  13.726 -0.1217  0.2119 -0.3049
97331W        W98195  14.005  23.914  10.500 -0.0250  0.0818 -0.0560
97332W        W98196  12.261  19.627  11.495 -0.3466 -0.0044  0.3645
97333W        W98197  11.254  23.882  13.216 -0.0945  0.1164  0.0774
97334W        W98198  14.576  25.018  12.224 -0.1897  0.1391 -0.1327
97335W        W98199  10.733  20.873  13.390 -0.4910  0.0283  0.2457
97336W        W98200  10.004  21.121  16.436 -0.3242  0.1677  0.1073
97337W        W98201  15.044  21.901  14.237 -0.1844  0.2167  0.1080
97338W        W98202  13.648  21.429  13.439 -0.0293  0.0969 -0.0449
97339W        W98203  15.240  20.917  14.958 -0.1376 -0.0223 -0.2694
97340W        W98204  12.324  22.654  14.754 -0.2380  0.0688 -0.0140
97341W        W98205   7.926  25.853  16.805  0.1905 -0.1020  0.0460
97342W        W98206  11.502  26.825  12.067  0.0968  0.0129 -0.1072
97343W        W98207  11.320  24.188  12.757 -0.2588 -0.2529 -0.0540
97344W        W98208  12.601  20.519  15.818  0.0121  0.0163  0.1725
97345W        W98209  14.609  24.478  14.405  0.2743  0.1145  0.0570
97346W        W98210  15.080  23.551  14.394 -0.0730  0.2184  0.0120
97347W        W98211  13.571  23.763  15.073  0.0184  0.2142  0.1112
97348W        W98212  13.948  26.436  13.401 -0.0221  0.3490 -0.0748
97349W        W98213  11.911  23.075  15.574 -0.0735  0.0061  0.1451
97350W        W98214  12.545  24.008  15.380 -0.1703  0.1866 -0.0856
97351W        W98215  11.585  22.629  14.440  0.1204 -0.0656  0.1376
97352W        W98216  15.934  23.577  13.693 -0.1205  0.2263 -0.0581
97353W        W98217  11.655  25.236  12.353 -0.1890  0.0227 -0.3817
97354W        W98218  14.119  26.280  14.324  0.0585  0.1094 -0.0501
97355W        W98219  13.159  22.325  13.615 -0.0587 -0.0607  0.2066
97356W        W98220  14.215  21.112  11.510  0.0221  0.1383  0.0105
97357W        W98221  13.962  26.386  16.707 -0.1819 -0.3969 -0.2490
97358W        W98222  13.297  24.182  16.486 -0.0302  0.0316 -0.1615
97359W        W98223  13.199  24.542  14.882 -0.3083 -0.2947 -0.0657
97360W        W98224   9.545  21.913  13.320 -0.0980  0.0749 -0.1164
97361W        W98225  15.074  24.041  11.966 -0.0775  0.1145  0.0714
97362W        W98226  10.505  23.117  10.984 -0.0124  0.0770 -0.0637
97363W        W98227  13.446  26.261  12.450  0.0683 -0.0350 -0.1304
97364W        W98228  13.135  24.684  13.470  0.5906 -0.0326  0.2206
97365W        W98229  15.049  21.459  12.869  0.2627 -0.1856  0.0247
97366W        W98230  14.211  23.188  10.752  0.0969 -0.1762 -0.2962
97367W        W98231  13.575  23.239  15.289  0.2740 -0.2426 -0.1537
97368W        W98232  15.369  22.240  11.733  0.5470  0.1433 -0.2452
97369W        W98233  12.234  25.819  13.831 -0.3743 -0.0028  0.0246
97370W        W98234  12.268  23.629  11.474  0.0768 -0.2972  0.3542
97371W        W98235  11.775  24.702  14.388 -0.0734 -0.0204 -0.4503
97372W        W98236  13.380  23.311  17.502 -0.1661 -0.3376 -0.1524
97373W        W98237  13.536  23.779  13.178  0.1213 -0.0423 -0.2056
97374W        W98238  10.644  24.031  11.352 -0.1173 -0.0324 -0.0160
97375W        W98239  13.623  27.158  11.522  0.0886 -0.0421 -0.1810
97376W        W98240  12.807  23.492  11.980  0.0789 -0.0305  0.2023
97377W        W98241  13.895  25.391  15.351 -0.1850 -0.4030 -0.2800
97378W        W98242  12.643  22.430   9.936 -0.1087 -0.2260 -0.0140
97379W        W98243  14.454  23.472  13.919 -0.2719  0.2742 -0.1387
97380W        W98244  14.227  24.344  11.445 -0.1282 -0.1575  0.1503
97381W        W98245   9.120  22.724  12.413  0.1824  0.1298 -0.0803
97382W        W98246  12.926  23.250  13.870 -0.0989  0.1399 -0.1630
97383W        W98247  10.694  23.812  13.834 -0.0192 -0.1658  0.1520
97384W        W98248   9.564  24.261  12.859 -0.4044  0.0103  0.2110
97385W        W98249  16.575  23.570  11.854 -0.0798 -0.0385  0.0063
97386W        W98250  12.040  24.265  13.233 -0.2904 -0.0073  0.1822
97387W        W98251  14.462  23.921  11.156 -0.1070  0.0828  0.1716
97388W        W98252  13.202  21.571  13.075  0.1965 -0.0476 -0.2853
97389W        W98253  14.571  23.046  12.533  0.4986  0.2290 -0.1429
97390W        W98254  13.740  20.450  13.341  0.0985  0.1073  0.1317
97391W        W98255  11.610  23.164  10.461 -0.1348 -0.0670 -0.0186
97392W        W98256  12.985  21.300   9.598 -0.2722  0.0861  0.1391
97393W        W98257  11.660  23.654  10.754 -0.1018  0.0871  0.1194
97394W        W98258  16.110  24.664  10.690  0.0236  0.0790 -0.2227
97395W        W98259  14.356  25.887  14.919 -0.1288  0.1821 -0.0888
97396W        W98260  13.335  21.483  11.587 -0.3405 -0.1528  0.0217
97397W        W98261  16.180  24.824  11.833  0.3105 -0.0808 -0.0649
97398W        W98262  15.295  22.543  14.764 -0.0387  0.1562  0.0418
97399W        W98263  16.801  23.865  12.480 -0.4343  0.0211 -0.0841
97400W        W98264  14.320  25.227  15.786  0.0362 -0.1357  0.0273
97401W        W98265  10.601  24.176  11.875  0.0047  0.1814  0.1607
97402W        W98266  15.069  26.305  14.552 -0.0382  0.2708 -0.0599
97403W        W98267  13.755  19.974  13.955  0.2064 -0.1707 -0.0045
97404W        W98268  12.701  20.073  10.323  0.0392  0.1946 -0.2298
97405W        W98269  10.844  23.935  15.069 -0.0537 -0.0960  0.0204
97406W        W98270  12.643  24.514  13.674 -0.0404  0.1257  0.0316
97407W        W98271   9.867  22.651  12.984 -0.1231 -0.0347  0.2102
97408W        W98272  12.983  20.614  12.335  0.0104  0.0374 -0.0050
97409W        W98273  12.839  21.368  13.362  0.2107 -0.0868  0.1178
97410W        W98274  14.160  19.763  11.289 -0.2042 -0.3469 -0.4733
97411W        W98275  11.973  25.641  12.396  0.1435  0.2549 -0.1377
97412W        W98276  12.781  18.873  12.789  0.2498  0.0995 -0.0415
97413W        W98277  13.365  22.159  12.511  0.2021 -0.2388 -0.0827
97414W        W98278  16.596  22.998  12.681  0.1429 -0.0762  0.3048
97415W        W98279  14.670  20.935  14.275 -0.1788  0.0425 -0.1247
97416W        W98280  14.812  22.386  14.846 -0.1646  0.1402  0.1298
97417W        W98281  12.332  23.242  13.084 -0.1274 -0.0869 -0.0286
97418W        W98282  12.222  24.696  11.832 -0.1891 -0.1677  0.0917
97419W        W98283  13.862  23.358  14.886 -0.2098 -0.0850 -0.0285
97420W        W98284  13.732  20.720  11.616  0.3071  0.0434 -0.2813
97421W        W98285  15.216  24.108  11.457  0.1819  0.0945  0.1665
97422W        W98286  14.081  24.330  14.310 -0.2770 -0.0012  0.2980
97423W        W98287  11.736  24.817  13.420 -0.0261 -0.0917  0.1941
97424W        W98288  15.530  22.931  13.270 -0.1473  0.0196 -0.0071
97425W        W98289  15.726  27.186   9.796  0.0820 -0.1049 -0.0322
97426W        W98290  13.563  21.756  10.177 -0.0783  0.0234  0.0744
97427W        W98291  13.131  20.791  10.588  0.0206  0.1310  0.2979
97428W        W98292  13.704  23.255  11.608  0.0454  0.0532  0.1216
97429W        W98293  16.261  23.911  16.094 -0.1680 -0.1737 -0.0630
97430W        W98294  14.198  24.658  13.988 -0.0952  0.0109 -0.0432
97431W        W98295  11.279  24.724  13.447  0.1258 -0.1115  0.6271
97432W        W98296  14.901  26.515  13.143 -0.0791  0.2378 -0.1749
97433W        W98297  12.095  21.325  13.266  0.2126  0.0954 -0.1287
97434W        W98298   8.494  22.708  12.850  0.0354  0.2836 -0.3248
97435W        W98299  11.593  24.403  16.248 -0.0913  0.1235 -0.0047
97436W        W98300  14.715  25.983  13.194 -0.0686  0.1843 -0.1964
97437W        W98301  14.886  23.724  13.127  0.1836  0.1057 -0.1011
97438W        W98302  13.239  22.851  15.412  0.1928 -0.2629 -0.2501
97439W        W98303  14.145  25.841  11.184  0.0356  0.0519  0.0075
97440W        W98304  13.885  24.345  11.822  0.0787 -0.1110 -0.1392
97441W        W98305  15.633  22.309  16.341 -0.0749 -0.0956  0.2638
97442W        W98306  13.630  24.482  15.152  0.2461  0.2055  0.1710
97443W        W98307  13.650  21.670  10.681  0.1232 -0.0941 -0.0611
97444W        W98308  12.526  21.450  11.196  0.0703  0.1806  0.1161
97445W        W98309  13.546  23.782  10.947  0.1499 -0.1285 -0.2795
97446W        W98310  16.439  26.393  10.853 -0.0689  0.2487  0.0919
97447W        W98311  13.556  24.168  14.222  0.1760  0.0067 -0.3264
97448W        W98312  14.837  20.529  12.243 -0.1058  0.0846 -0.1683
97449W        W98313  14.040  23.158  13.607  0.1004  0.1847 -0.2043
97450W        W98314  14.488  20.542  14.001 -0.2688 -0.1907  0.1898
97451W        W98315  13.628  23.902  13.686 -0.0896 -0.0198 -0.1266
97452W        W98316  15.603  24.534  12.288  0.0643 -0.2030  0.3019
97453W        W98317  14.788  25.095  11.709  0.2157  0.4526  0.1148
97454W        W98318  13.377  23.047  12.694  0.2757 -0.0371  0.1116
97455W        W98319  11.885  23.358  12.256  0.0669  0.2889 -0.0833
97456W        W98320  13.974  23.544  13.157 -0.0882 -0.0075 -0.1671
97457W        W98321  15.189  24.641  12.009  0.1561 -0.1934  0.0928
97458W        W98322  12.904  19.342  12.233  0.1439 -0.1984  0.0367
97459W        W98323  14.275  20.628  11.373 -0.0044 -0.1072 -0.0369
97460W        W98324   9.260  24.184  13.410 -0.0735  0.3245 -0.2089
97461W        W98325  14.776  23.522  12.488  0.3336 -0.2289 -0.3441
97462W        W98326  16.459  21.634  15.219 -0.0089  0.2148 -0.0710
97463W        W98327  14.435  24.127  13.976 -0.2029  0.0599  0.0896
97464W        W98328  15.485  25.958  13.567 -0.0006  0.0950 -0.0215
97465W        W98329  11.465  21.172  10.390  0.1015 -0.0611 -0.0755
97466W        W98330  13.857  22.336  14.041  0.1949  0.1331 -0.2698
97467W        W98331   8.889  25.113  14.851 -0.0566  0.1501  0.1263
97468W        W98332  14.030  20.726  10.735  0.0804  0.3714 -0.3858
97469W        W98333  12.526  27.821  14.884 -0.0499  0.3745 -0.0423
97470W        W98334  14.875  22.782  13.127 -0.2584  0.2080  0.0036
97471W        W98335  14.549  23.031  13.600  0.2237 -0.0356  0.1727
97472W        W98336  13.651  27.691  12.974  0.0367 -0.0418  0.2364
97473W        W98337  17.073  26.674  12.763  0.0173 -0.2950 -0.3203
97474W        W98338  14.107  25.635  16.756  0.0049  0.0307 -0.1143
97475W        W98339  13.833  24.160  13.259  0.1347  0.0509  0.1271
97476W        W98340  11.532  23.965  15.455  0.0861 -0.2780  0.1255
97477W        W98341  14.944  25.552  14.214 -0.0538  0.0462 -0.0816
97478W        W98342  16.922  23.412  11.442 -0.1595 -0.3599  0.1174
97479W        W98343  15.028  25.171  13.650 -0.1916  0.2332  0.2700
97480W        W98344  14.877  21.348  15.694  0.1775 -0.0769  0.0929
97481W        W98345  13.001  23.289  16.502  0.1805  0.0336  0.3485
97482W        W98346  10.151  20.883  13.292 -0.1760 -0.1932  0.1983
97483W        W98347  13.647  24.148  11.423 -0.1198  0.4242 -0.1320
97484W        W98348  12.123  23.115  12.606 -0.1139  0.1387  0.0714
97485W        W98349  13.996  20.622  13.779 -0.0521 -0.0637  0.0112
97486W        W98350  14.177  25.106  13.069 -0.2980 -0.1504 -0.0163
97487W        W98351  10.969  24.868  13.045  0.1070  0.0194 -0.0469
97488W        W98352  13.743  24.406  15.673  0.1192  0.0710 -0.0432
97489W        W98353  13.173  21.978  14.965  0.1736  0.0654  0.3382
97490W        W98354  16.409  21.213  12.917 -0.3591 -0.2371  0.0865
97491W        W98355  11.836  23.210   9.022 -0.3470 -0.3186  0.4087
97492W        W98356  11.974  25.648  14.310  0.0133 -0.0454  0.0681
97493W        W98357  14.350  26.129  13.729 -0.1426 -0.1635  0.1632
97494W        W98358  11.869  22.760   7.681 -0.1658 -0.0167 -0.0590
97495W        W98359  13.668  22.184  12.091  0.0549 -0.0751 -0.0504
97496W        W98360  13.576  24.586  13.644  0.1649  0.2571 -0.3599
97497W        W98361  15.048  25.048  14.169  0.1293 -0.3154 -0.1557
97498W        W98362  13.594  23.253  10.953 -0.0810 -0.0001 -0.0284
97499W        W98363  14.116  21.652  12.586 -0.1106  0.0785  0.3036
97500W        W98364  15.942  22.109  11.923  0.1216 -0.0337  0.1204
97501W        W98365  13.876  23.978  14.675 -0.2417 -0.1110 -0.0098
97502W        W98366  14.217  23.623  12.258 -0.0298  0.2099  0.0436
97503W        W98367   9.773  26.084  11.379  0.3277 -0.1153  0.1050
97504W        W98368  13.488  20.821  13.047 -0.1962 -0.1101 -0.1624
97505W        W98369  13.178  25.042  13.049 -0.2018 -0.2236 -0.0129
97506W        W98370  14.190  23.564   9.182 -0.4780  0.2111  0.0605
97507W        W98371  10.737  24.981  10.264  0.0846  0.2574 -0.0348
97508W        W98372  12.939  24.176  12.058 -0.0901  0.2515 -0.0839
97509W        W98373  13.503  21.619  14.047 -0.3704 -0.2443  0.2340
97510W        W98374  13.807  26.216  13.913  0.1335  0.2309 -0.1443
97511W        W98375  14.272  23.168   9.733 -0.0558  0.1284 -0.0941
97512W        W98376  11.241  21.405  10.008 -0.0385  0.0909 -0.1576
97513W        W98377  13.024  24.602  15.756  0.0674 -0.1367  0.1165
97514W        W98378  13.234  24.527  17.465 -0.1455 -0.2427 -0.3862
97515W        W98379  13.288  22.319  11.135  0.2783  0.1080  0.2715
97516W        W98380  13.139  24.588  11.175  0.2791 -0.0010  0.3625
97517W        W98381  13.046  25.025  14.405  0.0291 -0.0263  0.3354
97518W        W98382  12.938  21.556  15.146  0.3798  0.3003  0.1636
97519W        W98383  14.231  21.752  15.077  0.0840 -0.2143 -0.3043
97520W        W98384  13.095  23.417  13.409 -0.1386 -0.2940  0.1612
97521W        W98385  12.389  20.446  10.443 -0.4237  0.0986 -0.1823
97522W        W98386  13.736  21.836  16.482 -0.0911 -0.0472 -0.1213
97523W        W98387  12.458  24.073  12.224 -0.1354 -0.1273 -0.2438
97524W        W98388  15.372  22.403  10.728 -0.0149 -0.1778  0.0759
97525W        W98389  11.998  21.273  11.407 -0.0354  0.2719  0.0327
97526W        W98390  14.795  20.224  14.750 -0.4238 -0.1780 -0.3360
97527W        W98391  14.442  25.296  12.644  0.0797  0.0241 -0.3296
97528W        W98392  13.353  22.763  13.201 -0.2093  0.1918  0.1174
97529W        W98393  12.272  22.180  11.595  0.0662  0.3256 -0.0804
97530W        W98394  11.281  23.774  14.262 -0.0466  0.1679 -0.0313
97531W        W98395  13.420  25.671  13.652  0.3502  0.0100 -0.1085
97532W        W98396  10.411  22.930  12.710 -0.0922  0.0490 -0.2516
97533W        W98397  13.191  24.280  12.521 -0.0504  0.1008 -0.0440
97534W        W98398   9.596  22.579  12.568  0.0161 -0.1351 -0.0686
97535W        W98399  12.611  24.096  14.400 -0.3234 -0.3487  0.0302
97536W        W98400  12.407  24.861  15.861  0.2542 -0.0539 -0.0011
97537W        W98401  12.700  24.328  12.601 -0.0307  0.1222  0.0092
97538W        W98402  14.704  23.875  15.746  0.0421  0.0022  0.3220
97539W        W98403  14.333  24.235  12.462 -0.1410 -0.2521 -0.1778
97540W        W98404  13.299  26.319  14.034 -0.0139  0.2347  0.1793
97541W        W98405  14.456  24.780  14.792 -0.0110  0.0940  0.0094
97542W        W98406  13.095  26.271  12.926  0.1515  0.0789  0.2826
97543W        W98407  13.439  24.168  14.800 -0.1409  0.1546  0.0573
97544W        W98408  10.697  22.838  17.470  0.1114  0.2018 -0.1035
97545W        W98409  14.206  20.402  13.325 -0.3715 -0.5234 -0.1863
97546W        W98410  14.587  22.681  14.498 -0.0071 -0.0296 -0.0315
97547W        W98411  12.930  22.140  19.588  0.1872  0.1507  0.0908
97548W        W98412  11.738  23.918  13.023 -0.0901  0.1296  0.0632
97549W        W98413  13.984  23.813  11.385 -0.1262  0.0497 -0.0154
97550W        W98414  13.049  21.827  13.828  0.0229  0.1290  0.0933
97551W        W98415  16.052  24.187  11.047  0.0846  0.2207  0.0063
97552W        W98416  15.263  23.610  15.556 -0.2872 -0.1050  0.1645
97553W        W98417  14.181  23.471  10.347  0.4879 -0.0977  0.0402
97554W        W98418  14.852  22.932  14.853  0.1101  0.0597  0.2011
97555W        W98419  12.906  19.624  14.909  0.2474 -0.0146  0.1118
97556W        W98420  13.120  24.611  16.289 -0.0669 -0.0484  0.1015
97557W        W98421   8.365  27.018  12.651  0.1820  0.0111  0.1576
97558W        W98422  13.824  25.353  11.989 -0.1285 -0.1005  0.1090
97559W        W98423  12.706  23.595  16.222 -0.0379  0.0995  0.1564
97560W        W98424  12.819  25.387  11.745 -0.1383 -0.0918 -0.1879
97561W        W98425  14.623  22.523  12.732 -0.0196 -0.1646 -0.1023
97562W        W98426  14.604  22.775  17.530  0.0976  0.0560 -0.2250
97563W        W98427  14.769  25.667  13.745 -0.3470 -0.1818  0.1608
97564W        W98428  14.512  26.652  12.864 -0.4233 -0.0903  0.0667
97565W        W98429  14.719  26.011  11.214  0.1730 -0.1873 -0.2343
97566W        W98430  12.118  25.538  14.833 -0.0503 -0.3074 -0.0865
97567W        W98431  12.412  23.608  14.465  0.1681  0.0996 -0.0601
97568W        W98432  12.854  25.095  12.397  0.0715 -0.1021 -0.0423
97569W        W98433  14.487  23.496  13.193 -0.0720  0.0146 -0.1385
97570W        W98434  12.400  25.366  13.527  0.2318  0.1303 -0.1919
97571W        W98435  13.716  23.486  12.726  0.4612 -0.0823 -0.0885
97572W        W98436  11.787  25.753  15.728 -0.0824  0.1074 -0.0951
97573W        W98437  10.614  25.486  12.188  0.2415 -0.1059  0.1726
97574W        W98438  13.016  23.540  10.465 -0.2019  0.1015  0.1122
97575W        W98439  13.537  23.380  13.769 -0.2034 -0.0889  0.4049
97576W        W98440  13.586  25.925  13.264  0.0806 -0.1780 -0.0097
97577W        W98441  11.663  20.916  13.048  0.1470  0.0749  0.1663
97578W        W98442  11.524  23.101  12.521 -0.1926  0.1011  0.2796
97579W        W98443  14.882  25.222  13.040  0.3178 -0.1598 -0.2635
97580W        W98444  15.625  24.594  10.225  0.4010  0.2426 -0.4304
97581W        W98445  10.731  22.331  17.336 -0.1936 -0.1953 -0.0510
97582W        W98446  15.661  27.495  14.152  0.0780  0.0330 -0.0625
97583W        W98447  15.040  19.972  13.869  0.0462  0.2612 -0.0188
97584W        W98448  12.104  22.915  11.218  0.0463  0.0993 -0.0944
97585W        W98449  12.093  23.614  14.844  0.0179  0.1413 -0.1305
97586W        W98450  13.433  24.117  15.433  0.4131  0.1858 -0.0247
97587W        W98451  11.609  21.286  13.427 -0.0844 -0.1556 -0.2901
97588W        W98452  14.576  27.256  14.333 -0.2038 -0.2885 -0.0673
97589W        W98453  11.381  25.144  13.690  0.0378 -0.0357  0.1360
97590W        W98454  10.320  25.872  12.149 -0.1682 -0.1827 -0.1386
97591W        W98455  12.241  25.483   9.381  0.0694  0.1455  0.1482
97592W        W98456  11.024  25.179  15.961 -0.0909  0.1422  0.0465
97593W        W98457  12.141  26.041  11.310 -0.2005  0.0050 -0.0071
97594W        W98458  13.339  21.868  11.990 -0.0384 -0.2263 -0.0002
97595W        W98459  15.591  24.916  14.340  0.2592 -0.1119  0.2840
97596W        W98460  13.828  27.004  15.222  0.3100 -0.0474  0.1876
97597W        W98461  10.942  24.584  12.649  0.1781  0.1313 -0.2440
97598W        W98462  13.985  26.890  11.114 -0.1369 -0.0643  0.0262
97599W        W98463  15.080  19.250  15.714  0.0663 -0.0845 -0.1472
97600W        W98464  11.228  20.659  11.775 -0.2993 -0.2378 -0.1433
97601W        W98465  13.050  23.869  13.020  0.3336 -0.3322 -0.1458
97602W        W98466  12.501  22.284  12.472 -0.0221 -0.1992  0.0346
97603W        W98467  12.412  26.440  14.606  0.1011 -0.0260  0.1004
97604W        W98468  12.033  24.314  12.138 -0.0637  0.1072 -0.1557
97605W        W98469  11.250  21.748  11.086  0.0403  0.0072 -0.0627
97606W        W98470  14.079  23.082  12.493 -0.1943 -0.2412 -0.0226
97607W        W98471  12.136  25.862  17.430  0.1374 -0.0570  0.0519
97608W        W98472  14.732  23.722  13.654  0.5091 -0.0892  0.0502
97609W        W98473  14.014  20.912  13.362  0.2575 -0.1589  0.0898
97610W        W98474  14.671  24.044  11.610 -0.4226  0.1068  0.1126
97611W        W98475  11.070  24.222  14.127  0.2488  0.0367  0.0972
97612W        W98476  13.441  22.897  11.939  0.2829  0.0756  0.4209
97613W        W98477  17.347  26.565  10.920  0.0358  0.0320  0.0435
97614W        W98478  12.562  20.181  12.085  0.2735 -0.1988 -0.0595
97615W        W98479  12.498  23.307  11.113  0.0483 -0.2390  0.0234
97616W        W98480  11.477  25.682  12.520 -0.1628  0.0483  0.1799
97617W        W98481   9.934  24.259  11.311  0.2167 -0.1220  0.0130
97618W        W98482   9.332  24.112  11.981  0.0172 -0.2323  0.1595
97619W        W98483  14.530  22.855  11.019  0.1556  0.0343 -0.3584
97620W        W98484  12.592  26.170  12.661 -0.1299 -0.1300 -0.2587
97621W        W98485  15.401  23.600  11.160 -0.0031  0.0278 -0.0875
97622W        W98486  13.769  21.149  13.938  0.0782 -0.1374  0.0703
97623W        W98487   9.794  24.837  11.977 -0.0339  0.1969 -0.0471
97624W        W98488  12.000  20.390  11.328 -0.0233 -0.2555  0.0515
97625W        W98489  12.637  21.701  15.565  0.2018  0.1311 -0.0050
97626W        W98490  14.368  24.506  13.528 -0.0854 -0.0651 -0.0075
97627W        W98491  13.895  22.786  11.013  0.0310  0.4381 -0.4563
97628W        W98492  13.963  22.393   9.995  0.1356  0.4791  0.0600
97629W        W98493  15.115  27.414  13.011  0.0734  0.0509  0.0819
97630W        W98494  15.095  23.973  15.231 -0.0128  0.1851 -0.4920
97631W        W98495  14.630  22.186  12.200 -0.0972 -0.1719 -0.1545
97632W        W98496  12.216  22.677  12.327  0.1929 -0.1517 -0.0816
97633W        W98497  12.806  25.488  13.291  0.2990 -0.0485  0.0885
97634W        W98498  12.687  25.497  16.664  0.0602  0.0903 -0.1210
97635W        W98499  13.154  22.609  16.820 -0.1993 -0.1847  0.0542
97636W        W98500  13.555  21.773  11.150  0.2386  0.0912 -0.2682
97637W        W98501  13.161  27.032  11.734  0.0077  0.0545  0.2885
97638W        W98502  14.419   0.191  12.828 -0.0294  0.0082 -0.1315
97639W        W98503  14.552  23.195  14.386  0.1955  0.2658 -0.1550
97640W        W98504  12.468  24.530  13.172 -0.1601 -0.0548  0.2191
97641W        W98505  12.558  20.524  13.296 -0.1332  0.2620  0.1861
97642W        W98506  15.195  24.791  12.977 -0.0000 -0.2046  0.0318
97643W        W98507  14.258  22.049  15.537 -0.0765 -0.1260  0.2647
97644W        W98508  11.295  26.381  13.159 -0.1133  0.0786  0.0056
97645W        W98509  11.884  25.432  11.820  0.2144  0.0230 -0.1268
97646W        W98510  12.767  24.594  14.166  0.2599 -0.0623  0.1739
97647W        W98511  13.995  23.904  12.788  0.0551 -0.1138  0.0850
97648W        W98512  10.355  21.689  11.362  0.1031 -0.0708 -0.0213
97649W        W98513  15.123  24.644  14.466  0.0474  0.2499  0.2306
97650W        W98514  14.783  23.793  14.788 -0.2390 -0.2013  0.0831
97651W        W98515   9.358  26.042  12.132 -0.2636  0.0705  0.2254
97652W        W98516  14.019  26.218  10.418 -0.0199  0.1617  0.0266
97653W        W98517  12.965  21.564  11.179  0.2589 -0.1380  0.0996
97654W        W98518  11.175  23.277  12.847  0.3330  0.0436 -0.0713
97655W        W98519  14.933  20.232  10.000  0.0392  0.0069 -0.0253
97656W        W98520  12.470  24.544  15.151 -0.0762 -0.2345  0.3591
97657W        W98521  12.870  26.723  18.255 -0.3096  0.3613 -0.4299
97658W        W98522  14.258  23.929  13.326 -0.1265  0.2087  0.1206
97659W        W98523  16.408  25.087  14.413 -0.1438 -0.1905  0.1448
97660W        W98524  11.504  25.626  13.507 -0.1305  0.0957  0.0755
97661W        W98525  14.428  26.853  11.599  0.0489  0.0891  0.0442
97662W        W98526  15.666  20.755  11.229 -0.1629 -0.1485  0.5279
97663W        W98527  14.207  23.536  14.505 -0.0937  0.0379  0.0965
97664W        W98528  12.436  25.708  12.652  0.3196  0.1034  0.0471
97665W        W98529  14.548  25.298  14.034 -0.1269 -0.1806  0.0888
97666W        W98530  13.016  22.287  14.536 -0.1565 -0.0409  0.2774
97667W        W98531   9.787  25.096   9.763  0.1975 -0.1128  0.2116
97668W        W98532  10.901  24.929  13.652 -0.2631  0.1036 -0.2759
97669W        W98533  14.774  28.589  14.512 -0.3475  0.1500 -0.0780
97670W        W98534  10.538  25.086  11.374  0.1249  0.1528  0.0096
97671W        W98535  14.067  22.308  15.115  0.3414  0.0258 -0.0155
97672W        W98536  11.971  22.255  12.373 -0.1299  0.1811 -0.6202
97673W        W98537  12.479  22.112  13.081  0.1996  0.1347  0.0903
97674W        W98538  13.471  20.825  12.416  0.0587 -0.1843  0.0995
97675W        W98539  14.933  23.203  12.052  0.0113  0.4084  0.1757
97676W        W98540  14.460  25.536  13.129 -0.3920  0.0562  0.3316
97677W        W98541  12.956  24.941  11.591  0.2687  0.0072 -0.0864
97678W        W98542  12.995  25.522  12.194  0.0131  0.2081 -0.0804
97679W        W98543  15.177  22.212  12.174 -0.1472  0.0239  0.0922
97680W        W98544  11.039  25.105  14.154 -0.1777  0.0068  0.3019
97681W        W98545  15.598  22.748  14.320  0.0795  0.0143  0.0912
97682W        W98546  11.663  22.017  15.866  0.2296 -0.4655  0.2084
97683W        W98547  10.913  19.802  11.829  0.3049 -0.1323  0.0305
97684W        W98548   9.123  22.768  11.286  0.1529  0.1272  0.0839
97685W        W98549  13.851  23.327  15.960  0.2110 -0.2344  0.1066
97686W        W98550  11.747  24.328  12.512  0.0158  0.3939  0.1784
97687W        W98551  13.914  21.374  10.004  0.0351 -0.0029 -0.1572
97688W        W98552  11.877  25.195  14.517  0.0232 -0.1408 -0.0097
97689W        W98553  17.029  24.664  14.020 -0.1212  0.0100  0.0693
97690W        W98554  14.031  26.136   9.890  0.2423 -0.3025 -0.2681
97691W        W98555  14.329  27.320   9.927  0.0829 -0.0574 -0.0175
97692W        W98556  12.629  17.978  14.262 -0.0936 -0.2556 -0.0510
97693W        W98557  15.377  22.519  11.315 -0.0452  0.3215  0.0272
97694W        W98558  13.315  21.996  10.745  0.2239  0.1508  0.0995
97695W        W98559  12.266  24.566  17.172 -0.2388  0.0620 -0.1314
97696W        W98560  15.457  25.522  14.805  0.1106 -0.1819  0.2077
97697W        W98561  13.644  23.577  14.484  0.0566  0.2820  0.1902
97698W        W98562  14.345  22.191  14.736 -0.3915 -0.1564  0.0518
97699W        W98563  12.285  22.880  15.278 -0.0071  0.2085 -0.0987
97700W        W98564  13.439  23.719  16.534  0.2085 -0.0600  0.0234
97701W        W98565  14.339  24.717  12.613 -0.0883 -0.1904 -0.2206
97702W        W98566  12.713  22.589  12.145 -0.2015 -0.2220 -0.1429
97703W        W98567  13.788  22.423  13.156  0.2971  0.1496  0.2753
97704W        W98568  12.541  26.218  16.074 -0.2623 -0.0696  0.5098
97705W        W98569  11.203  23.869  13.755  0.2475  0.2254 -0.1139
97706W        W98570   8.747  21.163  13.395 -0.1160  0.0328  0.1273
97707W        W98571  16.226  24.442  13.818  0.1883 -0.0385 -0.1752
97708W        W98572  15.807  24.755  13.903  0.2230  0.0991  0.0153
97709W        W98573  13.631  21.468  15.198  0.1530  0.1355 -0.0496
97710W        W98574  17.147  23.855  11.668  0.0997  0.2724  0.3487
97711W        W98575  13.339  23.592  15.602  0.0345  0.0135 -0.1448
97712W        W98576  13.637  26.517  11.204 -0.0689 -0.1156 -0.1237
97713W        W98577  13.590  22.119  11.530  0.1717 -0.0173  0.1583
97714W        W98578  13.927  23.563  15.439  0.4433  0.0891 -0.0461
97715W        W98579  10.468  24.566  12.516 -0.2509 -0.3409  0.2841
97716W        W98580  15.481  25.825  11.526  0.2244  0.0517 -0.1443
97717W        W98581  13.160  25.343  14.054 -0.4982  0.2715  0.5137
97718W        W98582  13.560  25.068  16.285 -0.0576 -0.0286  0.2553
97719W        W98583  11.994  22.191  14.318 -0.0698 -0.2024 -0.2141
97720W        W98584  13.559  24.992  13.370  0.2390 -0.0577  0.3489
97721W        W98585  14.465  23.326  14.881 -0.0840  0.2826 -0.1906
97722W        W98586  12.392  22.644  11.773 -0.0401 -0.3612 -0.3407
97723W        W98587  12.424  22.401  10.775 -0.1499  0.0032  0.0583
97724W        W98588  11.918  28.941  19.541  0.0945 -0.2414 -0.0183
97725W        W98589  12.479  23.855  19.303  0.2319 -0.1294  0.0911
97726W        W98590  16.781  23.204  14.461 -0.1010 -0.1909  0.0867
97727W        W98591  15.258  22.609  18.601  0.2093 -0.0196  0.3165
97728W        W98592  13.007  24.885  16.723  0.0065 -0.4408  0.2615
97729W        W98593  13.790  22.431  17.308 -0.0370  0.0279  0.1957
97730W        W98594  12.270  24.559  17.728 -0.1711  0.1523  0.0221
97731W        W98595  13.326  23.433  16.972  0.0188  0.1829 -0.1073
97732W        W98596  12.172  27.827  19.004  0.2073 -0.0892  0.0861
97733W        W98597  11.580  24.297  20.954 -0.3287 -0.2305  0.2502
97734W        W98598  13.161  24.203  17.903  0.1455  0.0345  0.4543
97735W        W98599  11.585  24.045  20.485 -0.0537  0.1953  0.0029
97736W        W98600  14.543  23.947  12.807 -0.3556  0.1216 -0.1778
97737W        W98601  14.352  25.344  18.882 -0.0722  0.0252 -0.2395
97738W        W98602   8.713  24.353  16.881  0.3567 -0.1974 -0.0144
97739W        W98603  10.393  27.040  16.329  0.3189  0.0097  0.1537
97740W        W98604  16.031  23.739  14.342  0.1600  0.1795  0.0618
97741W        W98605   9.365  23.672  16.517  0.1191 -0.2752 -0.0950
97742W        W98606  14.032  21.362  15.958 -0.0765 -0.1183  0.0881
97743W        W98607  16.081  22.936  16.405 -0.1060 -0.0113 -0.1451
97744W        W98608  13.212  24.431  19.164  0.0775 -0.0136  0.0986
97745W        W98609  14.206  22.538  16.464  0.0109  0.1287  0.1826
97746W        W98610  14.384  25.363  18.010  0.2507 -0.2192 -0.1090
97747W        W98611   8.150  25.725  16.318  0.3456  0.2272 -0.0683
97748W        W98612  10.968  26.236  16.565  0.1599  0.1887 -0.2014
97749W        W98613  11.895  25.732  16.632 -0.3299  0.0985 -0.2045
97750W        W98614  13.254  25.020  17.110 -0.1214  0.1603  0.0696
97751W        W98615  14.621  26.867  16.207  0.0145 -0.0726 -0.3130
97752W        W98616  12.110  23.346  20.572 -0.1637  0.2536  0.0701
97753W        W98617  13.388  21.665  17.672 -0.1182  0.0112 -0.2676
97754W        W98618  10.708  26.089  18.596 -0.0776  0.0797 -0.4959
97755W        W98619  14.237  24.495  19.907  0.0902  0.2924 -0.1437
97756W        W98620  12.034  25.028  17.643  0.0227  0.1673 -0.0985
97757W        W98621  10.470  25.480  19.939 -0.3062 -0.1728  0.0261
97758W        W98622  11.926  22.454  16.020 -0.1995 -0.1943  0.1333
97759W        W98623  11.569  27.576  18.378 -0.1540  0.1936  0.0988
97760W        W98624   9.297  22.225  16.045  0.1236  0.2940 -0.0301
97761W        W98625  11.911  24.966  18.210  0.0590 -0.1695 -0.2027
97762W        W98626  14.846  24.407  19.324 -0.1104 -0.6747  0.0749
97763W        W98627  11.404  25.268  17.350  0.1556  0.0699 -0.0162
97764W        W98628  14.760  22.579  17.087 -0.2098  0.2865 -0.1719
97765W        W98629  15.334  24.826  17.118  0.1636  0.1459  0.0185
97766W        W98630  11.123  23.963  16.747 -0.0638 -0.2641  0.2241
97767W        W98631  13.799  27.165  16.648 -0.0444 -0.1999 -0.1169
97768W        W98632  12.135  24.930  14.856  0.2801 -0.4608 -0.0720
97769W        W98633  12.824  24.249  14.881  0.0585  0.0889  0.1605
97770W        W98634  12.411  22.708  19.434 -0.2003 -0.0875 -0.0252
97771W        W98635  17.261  24.302  19.134  0.2292  0.5231 -0.1338
97772W        W98636  10.857  21.020  13.850 -0.1121 -0.4804  0.1236
97773W        W98637  12.739  25.674  17.182  0.2098  0.0291  0.1200
97774W        W98638  13.398  23.071  16.707 -0.1791  0.1355 -0.1677
97775W        W98639  12.754  25.429  17.807  0.0392 -0.1384 -0.0696
97776W        W98640  12.093  26.694  19.043  0.4679  0.1234  0.3296
97777W        W98641  15.414  24.151  17.796  0.0879 -0.2254  0.1448
97778W        W98642  12.405  21.730  15.106 -0.0539  0.1813  0.0035
97779W        W98643  12.755  26.842  14.468 -0.1495  0.1025 -0.0415
97780W        W98644  11.163  25.138  18.806  0.0383 -0.0077  0.0719
97781W        W98645  14.140  24.220  17.134  0.0540  0.1310  0.2157
97782W        W98646  12.318  24.148  14.892  0.6139  0.0585 -0.3870
97783W        W98647  12.807  22.701  13.699 -0.1016  0.3480 -0.1867
97784W        W98648  16.047  21.304  13.245 -0.3607 -0.1038 -0.0590
97785W        W98649  10.080  26.902  16.699 -0.4130  0.4834  0.0018
97786W        W98650  12.045  23.642  18.304 -0.0124 -0.2469  0.0268
97787W        W98651  11.342  21.780  16.183  0.2995  0.0317  0.2084
97788W        W98652  11.229  25.438  18.372  0.0721 -0.0149 -0.2746
97789W        W98653  13.606  22.826  17.186 -0.1311  0.1830 -0.1106
97790W        W98654  12.743  23.449  12.867 -0.0021  0.0108  0.0887
97791W        W98655  12.343  22.610  13.905  0.2404 -0.0767  0.0972
97792W        W98656  11.952  26.239  13.771  0.1161  0.1590 -0.0015
97793W        W98657  13.320  22.325  16.457 -0.0196  0.0127  0.0747
97794W        W98658  13.816  25.363  17.800 -0.2262 -0.0737  0.0768
97795W        W98659  14.102  22.732  13.343 -0.2246  0.1596 -0.1449
97796W        W98660  14.673  25.268  14.956 -0.3127 -0.0078 -0.1529
97797W        W98661  14.064  19.805  19.236  0.2360 -0.0099  0.0190
97798W        W98662  12.743  24.356  17.607 -0.2421  0.0693  0.3109
97799W        W98663  11.714  25.583  17.618 -0.2162  0.2207  0.1921
97800W        W98664  12.246  25.244  14.043 -0.0713  0.3095  0.1303
97801W        W98665  13.002  25.183  19.603 -0.1010 -0.0985  0.3391
97802W        W98666  13.725  25.217  15.864  0.3217 -0.1803  0.2099
97803W        W98667  14.226  24.106  16.609 -0.2779  0.1711  0.1442
97804W        W98668   8.605  23.665  19.691  0.1013 -0.2164  0.3563
97805W        W98669  11.964  25.342  19.523  0.1267 -0.1874  0.0816
97806W        W98670  11.115  25.612  17.864 -0.3011  0.5151  0.2079
97807W        W98671  12.182  22.353  15.101  0.0994 -0.0942  0.1442
97808W        W98672  12.463  20.260  19.700  0.1220 -0.0226 -0.1712
97809W        W98673  13.385  21.514  16.689 -0.1405 -0.2209  0.1445
97810W        W98674  16.029  28.594  18.375  0.0530 -0.1902  0.1567
97811W        W98675  13.062  22.608  18.032 -0.0284  0.0190 -0.0631
97812W        W98676  14.620  24.870  18.711 -0.3576 -0.0374  0.3310
97813W        W98677  13.800  24.249  19.909  0.1688  0.0886  0.0724
97814W        W98678  13.571  24.085  17.681  0.4253 -0.0440  0.0704
97815W        W98679  15.630  23.651  18.403 -0.1038 -0.4061  0.5521
97816W        W98680  10.173  26.329  17.219 -0.2315 -0.2587 -0.2210
97817W        W98681  12.675  22.935  16.131  0.0580  0.1963  0.0295
97818W        W98682  15.719  20.895  18.774 -0.1559 -0.1842  0.1413
97819W        W98683  14.999  24.093  14.431 -0.0642  0.0576  0.1618
97820W        W98684  14.615  22.110  14.357 -0.1345 -0.0157 -0.0302
97821W        W98685  12.461  26.580  18.653 -0.1095 -0.3161 -0.0841
97822W        W98686  12.428  24.546  14.651 -0.0121 -0.0362  0.1442
97823W        W98687  15.339  23.792  14.821 -0.0292 -0.4322 -0.0067
97824W        W98688  13.608  26.123  14.420 -0.1361  0.3262  0.0869
97825W        W98689  10.332  23.857  17.593 -0.0716  0.3276  0.2095
97826W        W98690  12.461  22.597  12.882 -0.1202  0.1078  0.0201
97827W        W98691  14.049  23.666  13.703 -0.1630 -0.0295  0.0981
97828W        W98692  15.729  23.183  18.130 -0.0469  0.2749  0.3932
97829W        W98693  13.366  24.112  19.639 -0.0693  0.2218 -0.0714
97830W        W98694  15.092  24.544  18.916  0.0894 -0.1673  0.1381
97831W        W98695  13.195  22.734  17.515 -0.0349 -0.0521 -0.1025
97832W        W98696  13.895  21.641  16.885 -0.0369 -0.0836 -0.1915
97833W        W98697  11.452  24.370  17.251 -0.1194 -0.2508 -0.2575
97834W        W98698  10.276  26.113  18.300  0.0674 -0.0185 -0.3406
97835W        W98699  12.787  27.933  18.140 -0.2894  0.1233 -0.0372
97836W        W98700  14.850  24.450  18.477 -0.3230  0.0379 -0.1588
97837W        W98701  13.824  25.267  19.606  0.1065 -0.0180 -0.0505
97838W        W98702  14.786  25.422  15.665 -0.1787 -0.1512 -0.1185
97839W        W98703  13.217  23.791  17.415 -0.0692 -0.1508 -0.0246
97840W        W98704  13.734  20.901  18.133 -0.0156 -0.4084  0.1373
97841W        W98705  13.217  25.170  15.633  0.1337  0.2068 -0.0213
97842W        W98706  13.504  23.919  17.027  0.0653 -0.1513 -0.3437
97843W        W98707  11.526  24.253  14.284 -0.1333 -0.0572 -0.3167
97844W        W98708  12.805  23.836  17.710  0.2033 -0.1384 -0.1264
97845W        W98709  12.314  24.826  18.848  0.2298 -0.0195 -0.2425
97846W        W98710  14.959  26.114  18.373  0.2264 -0.0077  0.1151
97847W        W98711  13.485  22.455  15.987 -0.1940 -0.4201  0.1126
97848W        W98712  13.358  24.936  17.721 -0.0256  0.2749 -0.0190
97849W        W98713  14.373  23.380  17.557  0.0784 -0.0862  0.0210
97850W        W98714  13.014  24.492  19.677  0.1663  0.2382  0.0320
97851W        W98715  15.568  21.842  18.507  0.0549  0.0905 -0.1459
97852W        W98716  14.812  26.437  15.845  0.0722 -0.1864 -0.1130
97853W        W98717  10.269  25.925  14.464 -0.2264 -0.0151  0.0890
97854W        W98718  12.879  23.462  19.539  0.1285  0.0232 -0.0081
97855W        W98719  13.009  23.027  17.074 -0.1058 -0.0312 -0.1686
97856W        W98720  13.265  26.080  18.825  0.3694 -0.1709 -0.2840
97857W        W98721  13.717  22.442  16.770  0.3813  0.0323 -0.0598
97858W        W98722  13.844  22.153  17.785  0.0088 -0.1179  0.2539
97859W        W98723  12.879  23.841  18.312  0.1549  0.1710  0.3328
97860W        W98724  14.073  23.337  20.685 -0.2188  0.0727  0.0033
97861W        W98725  14.471  24.346  17.988  0.2143  0.0999  0.0252
97862W        W98726  12.377  21.632  19.140 -0.2779  0.1694 -0.2186
97863W        W98727  12.524  25.668  15.242  0.2015  0.0357  0.0573
97864W        W98728  12.390  20.951  15.864 -0.1433  0.0442 -0.0275
97865W        W98729  10.991  23.100  16.666 -0.0902  0.2762 -0.1923
97866W        W98730  13.650  21.975  15.330  0.0263 -0.0846 -0.0282
97867W        W98731  13.691  23.849  15.810 -0.1346  0.2754  0.0582
97868W        W98732  12.880  21.642  18.357  0.1024  0.1123  0.1013
97869W        W98733  11.558  21.323  16.027  0.1926 -0.0576 -0.0028
97870W        W98734  13.281  21.213  14.889  0.0566 -0.0634 -0.1467
97871W        W98735  14.447  26.109  19.664  0.1595 -0.0432  0.1881
97872W        W98736  13.876  26.235  15.692 -0.0604  0.1536  0.0342
97873W        W98737  10.935  27.712  14.092  0.1813 -0.4237  0.0404
97874W        W98738  14.462  24.373  18.865 -0.0312  0.1137 -0.0881
97875W        W98739  11.617  23.750  18.657 -0.0347 -0.0493  0.1327
97876W        W98740  11.487  26.214  16.491 -0.0499  0.0330 -0.2249
97877W        W98741  14.431  21.481  15.651  0.2459 -0.0355  0.0911
97878W        W98742  15.626  22.192  16.955  0.1849 -0.3227  0.0726
97879W        W98743  14.203  25.060  18.422 -0.0489 -0.1653  0.0892
97880W        W98744  10.904  26.089  17.446  0.1447  0.1110  0.0339
97881W        W98745  12.492  23.444  13.815 -0.2331  0.0855  0.1663
97882W        W98746  12.295  22.080  13.944 -0.0173 -0.2115  0.0826
97883W        W98747  13.279  24.186  15.934 -0.3119 -0.5175  0.2810
97884W        W98748  15.145  19.684  17.101 -0.0459  0.1210 -0.0346
97885W        W98749   8.676  22.226  18.356  0.1648  0.0699  0.2908
97886W        W98750  11.532  25.097  17.919 -0.0481 -0.1129  0.0166
97887W        W98751  12.990  21.682  15.971 -0.0388  0.0558 -0.3534
97888W        W98752  12.490  21.271  17.730 -0.1899  0.1406 -0.0806
97889W        W98753  12.241  20.915  16.942 -0.1553  0.0908 -0.2543
97890W        W98754  12.344  23.261  16.320 -0.0288 -0.0646 -0.1770
97891W        W98755  12.877  27.123  17.976 -0.0576 -0.1684  0.2109
97892W        W98756  11.600  25.123  18.548  0.0792  0.1807  0.4192
97893W        W98757  15.529  28.161  15.403  0.0258 -0.0688  0.1013
97894W        W98758  14.782  26.208  15.000 -0.0804 -0.0342  0.3549
97895W        W98759  14.812  23.574  15.236  0.3110  0.0078 -0.2335
97896W        W98760  12.125  24.828  15.456 -0.2270 -0.2049 -0.1130
97897W        W98761  14.132  25.880  16.341 -0.0396  0.2948 -0.1094
97898W        W98762  14.078  24.914  17.913  0.1201  0.0793  0.1549
97899W        W98763  13.008  20.920  16.796  0.3386 -0.3022  0.2808
97900W        W98764   9.207  26.689  18.592 -0.0467  0.0305 -0.0824
97901W        W98765  11.699  24.662  17.794 -0.0509 -0.2870  0.0660
97902W        W98766  11.966  23.016  16.118  0.0248 -0.3999 -0.1064
97903W        W98767  12.785  20.894  16.301 -0.1993  0.0176  0.3569
97904W        W98768  11.826  24.693  17.326  0.2223 -0.1301 -0.1886
97905W        W98769  15.379  24.668  16.060  0.0508 -0.0163 -0.1045
97906W        W98770  13.412  22.604  14.566  0.1987  0.0936  0.4089
97907W        W98771  14.999  20.170  17.245 -0.2254  0.1638 -0.1429
97908W        W98772  15.455  20.378  16.135 -0.0626 -0.1242  0.3560
97909W        W98773  11.553  22.972  17.406  0.1753 -0.0742  0.0741
97910W        W98774  14.772  23.999  16.585 -0.1059 -0.1100  0.1746
97911W        W98775  11.918  21.459  18.501  0.2799 -0.1272 -0.0425
97912W        W98776  14.103  25.107  16.731 -0.1029  0.0816 -0.1521
97913W        W98777  13.916  23.738  17.835 -0.0909 -0.1823  0.0897
97914W        W98778  12.791  24.871  14.891  0.1059  0.1300  0.0079
97915W        W98779  12.806  25.494  16.161  0.3828 -0.1548  0.3092
97916W        W98780  11.762  24.335  19.780  0.2214 -0.2746  0.1640
97917W        W98781  13.263  23.874  19.157  0.1008 -0.1022  0.2661
97918W        W98782  12.225  19.817  19.717 -0.0197 -0.1399 -0.3464
97919W        W98783  13.572  21.228  17.741 -0.3362  0.2743 -0.2714
97920W        W98784  12.936  24.690  17.888 -0.1699  0.3441 -0.0237
97921W        W98785  11.210  19.351  15.222 -0.0185 -0.0401 -0.1172
97922W        W98786  12.077  24.847  16.289 -0.2478 -0.2494  0.3942
97923W        W98787  13.872  21.645  17.887  0.3041  0.0561 -0.1211
97924W        W98788  13.831  21.759  15.688  0.1783  0.2300 -0.1558
97925W        W98789  13.310  21.017  15.386  0.0324  0.2193  0.0820
97926W        W98790  16.000  24.781  16.732 -0.0251 -0.3487  0.2287
97927W        W98791  11.180  23.077  17.140  0.1999  0.2695  0.1437
97928W        W98792  13.295  23.706  18.661  0.4722  0.1854  0.0613
97929W        W98793  11.543  23.409  17.563  0.0515 -0.0882 -0.1639
97930W        W98794  11.244  26.234  17.862  0.0492 -0.1644  0.2205
97931W        W98795  13.793  22.998  19.069 -0.0941  0.0221 -0.1512
97932W        W98796  14.923  24.855  14.891  0.3683 -0.3742 -0.1112
97933W        W98797  14.751  24.425  12.780 -0.4205 -0.0406  0.1066
97934W        W98798  10.939  25.140  17.650  0.0357 -0.1402  0.2903
97935W        W98799  11.466  21.407  19.383  0.4148  0.1250 -0.0016
97936W        W98800  11.747  25.142  16.804 -0.1084  0.1113  0.0993
97937W        W98801  13.406  23.237  16.228 -0.0547  0.0439  0.1278
97938W        W98802  13.627  24.019  18.864 -0.0487 -0.0879  0.0015
97939W        W98803  13.199  24.278  18.694  0.0482  0.1592 -0.0153
97940W        W98804  14.623  24.879  18.091 -0.1948  0.0238  0.1895
97941W        W98805  12.589  24.049  12.940  0.0736  0.2458 -0.0661
97942W        W98806  15.120  23.156  18.877  0.2411  0.1178  0.0695
97943W        W98807  11.309  23.010  19.429 -0.1950  0.1425  0.0743
97944W        W98808  14.517  22.448  18.109  0.0833  0.3708 -0.3320
97945W        W98809  15.391  23.304  20.137 -0.1458 -0.0107 -0.0335
97946W        W98810  14.068  25.947  21.817 -0.1170  0.0490 -0.2637
97947W        W98811   9.217  20.752  18.124  0.0195  0.0797  0.2028
97948W        W98812  14.520  24.064  15.232 -0.1513 -0.1976 -0.3543
97949W        W98813  12.815  24.020  18.933 -0.0663 -0.2749 -0.1224
97950W        W98814  13.125  26.933  19.333 -0.1932  0.1266 -0.2875
97951W        W98815  14.306  21.130  16.469  0.1217  0.3037 -0.0918
97952W        W98816  14.386  25.659  15.404 -0.1210  0.2078  0.0522
97953W        W98817  13.031  22.888  18.826  0.4606 -0.1729  0.1448
97954W        W98818  12.371  23.606  17.232 -0.1653  0.1070 -0.0462
97955W        W98819  12.896  23.952  19.520 -0.0760  0.0163 -0.1701
97956W        W98820  11.682  23.098  13.699 -0.1230 -0.2441 -0.0203
97957W        W98821  13.614  24.556  16.369  0.0528  0.1063  0.0210
97958W        W98822  11.316  22.928  18.441 -0.3051  0.0302  0.1624
97959W        W98823  10.959  23.017  15.689 -0.0104  0.1496  0.0254
97960W        W98824  15.811  24.347  17.059 -0.2150 -0.0867  0.1589
97961W        W98825  12.927  21.342  17.964 -0.5099  0.0972 -0.2025
97962W        W98826  13.786  25.922  17.541 -0.1006  0.1668 -0.1807
97963W        W98827  12.814  24.430  16.650  0.0327  0.0985 -0.1406
97964W        W98828  13.900  25.418  17.152  0.1760  0.1570  0.0108
97965W        W98829  12.184  25.703  19.275 -0.2297 -0.4247  0.2193
97966W        W98830  12.324  22.900  18.123  0.1223 -0.0966  0.2064
97967W        W98831  11.657  22.372  18.393 -0.1330 -0.0252 -0.2477
97968W        W98832  17.162  20.912  19.006 -0.0900  0.1458  0.1935
97969W        W98833  14.126  23.024  14.623 -0.2361 -0.1443 -0.0773
97970W        W98834  11.868  26.379  19.850 -0.0671 -0.0509 -0.2177
97971W        W98835  13.123  25.700  17.511 -0.1094  0.3022 -0.2633
97972W        W98836  13.301  25.538  15.985  0.1005  0.2332 -0.2403
97973W        W98837  12.807  23.685  14.161  0.2038  0.1024 -0.1069
97974W        W98838  12.940  25.878  18.009  0.0378  0.1070  0.2119
97975W        W98839  11.320  25.879  17.404 -0.3704 -0.1016  0.0324
97976W        W98840  15.491  22.558  19.704 -0.2370 -0.1707 -0.0839
97977W        W98841  13.861  22.244  16.245 -0.0436 -0.2905  0.0054
97978W        W98842  11.117  25.960  12.210 -0.0993  0.1612 -0.3844
97979W        W98843  13.775  26.457  17.881 -0.1875 -0.2561  0.1887
97980W        W98844  15.486  23.895  14.347  0.3229  0.1338 -0.0442
97981W        W98845   8.312  23.801  18.250 -0.2676 -0.0163  0.0892
97982W        W98846  13.809  23.627  18.604  0.1779  0.3574  0.4203
97983W        W98847  14.377  22.631  15.530  0.2092 -0.0749  0.2274
97984W        W98848  12.790  22.961  17.829 -0.3269  0.0190 -0.0877
97985W        W98849  12.036  23.014  18.958  0.1432  0.0504  0.1222
97986W        W98850  15.366  26.060  19.211  0.0867  0.2731 -0.2006
97987W        W98851  12.964  23.277  18.525 -0.0747  0.2151 -0.0569
97988W        W98852  13.145  26.955  16.539  0.0890 -0.3284 -0.0448
97989W        W98853  12.678  26.022  16.767  0.0864 -0.0462  0.0632
97990W        W98854  12.182  26.144  16.560  0.0996 -0.2033 -0.1750
97991W        W98855  13.050  26.746  17.728 -0.0124 -0.0764 -0.1007
97992W        W98856  11.997  21.931  18.326 -0.0162  0.2155  0.1106
97993W        W98857  15.507  21.782  15.141 -0.1208  0.0427 -0.0524
97994W        W98858  13.797  23.300  17.052  0.3161 -0.0471 -0.1977
97995W        W98859  11.906  22.545  18.817  0.1480 -0.2780 -0.0656
97996W        W98860  12.654  23.116  19.763  0.1576  0.1764 -0.1760
97997W        W98861  11.393  24.677  15.878 -0.1629  0.1686  0.1033
97998W        W98862  14.154  25.351  14.808  0.0543 -0.4253  0.1529
97999W        W98863  14.414  23.811  17.941  0.1020  0.0397 -0.1624
98000W        W98864  12.080  21.549  17.836  0.3156  0.3024 -0.0172
98001W        W98865  11.612  24.974  14.937 -0.0972 -0.2490  0.1058
98002W        W98866  12.244  23.451  15.826 -0.0757  0.3445 -0.0394
98003W        W98867  11.092  23.159  18.990  0.0533  0.0506 -0.1673
98004W        W98868  12.358  22.572  16.883 -0.1735 -0.1158  0.0804
98005W        W98869  11.918  21.532  14.990  0.1766 -0.1878 -0.1802
98006W        W98870  12.674  23.041  15.639 -0.0240  0.1807 -0.0134
98007W        W98871   8.390  23.246  15.874  0.0601 -0.0577 -0.1991
98008W        W98872  14.533  21.980  13.557  0.0181 -0.2560 -0.0991
98009W        W98873  15.727  23.700  17.876 -0.2232 -0.1038 -0.0941
98010W        W98874  17.758  25.132  15.970  0.0413 -0.2230 -0.0575
98011W        W98875  12.499  24.847  16.785 -0.1574  0.1617 -0.1114
98012W        W98876  13.500  21.992  16.020  0.0132  0.0445  0.0870
98013W        W98877  13.745  28.132  18.517  0.0556 -0.2241  0.1624
98014W        W98878  13.646  22.635  17.762  0.0739 -0.0041 -0.0202
98015W        W98879  15.273  21.021  12.978 -0.0971 -0.0277 -0.2239
98016W        W98880  13.644  21.828  19.221 -0.2344  0.1666 -0.0424
98017W        W98881  13.610  22.379  14.987 -0.1452  0.0024  0.0201
98018W        W98882  11.315  24.139  18.715  0.2771 -0.1469 -0.0877
98019W        W98883  14.398  23.981  16.184 -0.2230  0.0297 -0.2860
98020W        W98884  12.525  22.127  17.100 -0.1913  0.0636  0.0432
98021W        W98885  13.608  25.467  16.746 -0.1138  0.0969 -0.3329
98022W        W98886  17.371  20.492  16.465 -0.0117 -0.0313  0.0944
98023W        W98887  10.988  26.466  17.152 -0.1456 -0.3296 -0.1931
98024W        W98888  13.171  25.348  16.478 -0.5232  0.1313  0.0200
98025W        W98889  10.563  20.386  19.899 -0.1073  0.2032  0.1665
98026W        W98890  13.684  26.154  20.427  0.2508  0.3431 -0.0076
98027W        W98891  15.185  24.304  16.923  0.0495  0.0918 -0.1588
98028W        W98892  14.639  23.059  18.586 -0.1152  0.1704 -0.1139
98029W        W98893  12.050  25.397  18.895  0.3241  0.0852 -0.3458
98030W        W98894  12.592  26.108  15.549  0.0501  0.1737 -0.0544
98031W        W98895  13.457  21.407  17.206 -0.1639  0.0813 -0.0896
98032W        W98896  15.387  26.195  17.116 -0.2408  0.1376  0.0130
98033W        W98897  11.857  26.512  16.798  0.0102  0.1136 -0.0479
98034W        W98898  13.717  24.334  16.796  0.1128 -0.0040 -0.0433
98035W        W98899  12.490  24.412  20.808  0.1475  0.2943 -0.2293
98036W        W98900  14.395  24.082  14.619 -0.1734  0.1944  0.2238
98037W        W98901  14.116  21.819  16.090  0.1124 -0.0404 -0.2560
98038W        W98902  11.393  24.828  16.928  0.0277  0.2313 -0.1068
98039W        W98903  10.966  22.476  19.616 -0.0433 -0.0575  0.2592
98040W        W98904  13.562  21.966  13.460  0.3274 -0.1154 -0.0406
98041W        W98905  14.420  23.811  16.908  0.0457  0.1334  0.1734
98042W        W98906  11.474  22.246  18.843  0.0773  0.1625  0.2831
98043W        W98907  13.651  24.934  16.757 -0.0798  0.1072 -0.2303
98044W        W98908  10.053  25.932  16.906 -0.0387 -0.1411 -0.0749
98045W        W98909  15.923  25.206  14.126 -0.1095  0.4672 -0.2157
98046W        W98910  10.860  23.725  17.621  0.0244  0.3332 -0.0039
98047W        W98911  13.819  24.718  18.426  0.1927  0.0930 -0.0905
98048W        W98912  13.284  24.456  16.948 -0.0061 -0.2335  0.1150
98049W        W98913  13.705  24.598  17.713 -0.0106  0.3799  0.0243
98050W        W98914  15.211  20.614  17.021  0.0938  0.2130 -0.0030
98051W        W98915  13.603  25.180  14.406 -0.3558 -0.4719 -0.2143
98052W        W98916  14.254  22.595  12.260  0.3090 -0.0561  0.2197
98053W        W98917  10.993  26.788  14.161  0.1502  0.2006 -0.1264
98054W        W98918  13.886  21.855  13.807  0.0423  0.0032 -0.3004
98055W        W98919  13.501  22.921  15.862 -0.0001 -0.1090 -0.1194
98056W        W98920  14.255  25.559  17.489  0.1665  0.0417 -0.1666
98057W        W98921  12.684  22.752  18.442 -0.0345  0.1906 -0.0850
98058W        W98922  15.134  24.879  17.964  0.1449  0.0082  0.2050
98059W        W98923  15.048  25.223  18.865 -0.1915 -0.3452  0.0507
98060W        W98924  11.721  25.862  19.761 -0.0140 -0.0091 -0.3813
98061W        W98925  14.168  22.536  17.662 -0.1225  0.0085 -0.1480
98062W        W98926  13.677  25.589  16.282  0.0053 -0.0303 -0.2135
98063W        W98927  14.350  22.412  13.913  0.2083  0.0711  0.0084
98064W        W98928  12.937  23.772  16.612 -0.3114  0.1236 -0.1244
98065W        W98929  12.930  24.206  20.888 -0.0051 -0.0391  0.1039
98066W        W98930  13.326  23.709  17.872  0.2017 -0.3198  0.0659
98067W        W98931  12.954  25.588  14.357 -0.0130 -0.3275 -0.0453
98068W        W98932  11.985  23.218  17.405  0.0835  0.1515  0.3562
98069W        W98933  10.807  24.241  18.877  0.0150 -0.0165 -0.0904
98070W        W98934  11.397  22.713  15.913 -0.0994 -0.2396  0.2080
98071W        W98935  10.862  25.665  16.259 -0.3873 -0.2362 -0.2373
98072W        W98936  14.424  24.926  16.167  0.2054 -0.0116 -0.1434
98073W        W98937  12.693  22.549  15.368  0.0786  0.1511  0.0854
98074W        W98938  13.628  21.980  21.448  0.1283  0.0977  0.1312
98075W        W98939  15.298  21.683  12.459 -0.0840 -0.0825  0.0981
98076W        W98940  15.027  23.803  18.073 -0.1121 -0.0677  0.3253
98077W        W98941  15.061  20.749  15.459  0.1020  0.3146  0.0662
98078W        W98942  11.849  28.885  15.887  0.3781 -0.0527 -0.2663
98079W        W98943  17.522  22.098  12.559 -0.1084 -0.2466 -0.0768
98080W        W98944  11.235  26.735  18.089  0.0845  0.1233 -0.2087
98081W        W98945  13.763  21.969  20.993  0.0095  0.3414  0.0479
98082W        W98946   8.890  22.476  17.497 -0.0066  0.0883  0.2518
98083W        W98947  13.962  22.383  14.520  0.0341 -0.1444  0.0566
98084W        W98948  12.870  24.091  16.222 -0.0902  0.2834  0.0935
98085W        W98949  14.856  21.903  17.386  0.0501 -0.0937 -0.0917
98086W        W98950  10.583  25.175  13.930  0.1021 -0.0358 -0.0884
98087W        W98951  13.971  24.333  18.710  0.1383  0.1862 -0.0338
98088W        W98952  13.376  26.919  18.900  0.1928  0.0154 -0.0867
98089W        W98953  12.499  24.938  17.444  0.1795  0.0227 -0.1436
98090W        W98954  16.209  21.628  15.653 -0.1836  0.1058  0.1354
98091W        W98955  12.492  23.345  18.279  0.2838  0.0925  0.1423
98092W        W98956  11.202  20.780  16.867  0.0982  0.0408  0.3163
98093W        W98957  14.233  22.492  17.016 -0.3476 -0.3039 -0.0203
98094W        W98958  13.163  23.683  14.693  0.1045  0.0819 -0.0617
98095W        W98959  13.057  23.222  20.673 -0.0874  0.0733 -0.1614
98096W        W98960  15.822  24.020  14.702  0.1606  0.0052  0.1457
98097W        W98961  12.270  24.638  18.362  0.2067 -0.1824 -0.0525
98098W        W98962  15.786  24.564  14.623 -0.0883 -0.1725 -0.1859
98099W        W98963  14.331  21.802  20.307  0.0729 -0.1533 -0.2112
98100W        W98964   9.230  25.008  16.487  0.0448 -0.1122  0.0722
98101W        W98965  14.134  26.827  16.505  0.6332  0.1920 -0.2390
98102W        W98966  13.596  21.069  20.041 -0.0543 -0.2315 -0.0974
98103W        W98967  11.254  24.780  17.487 -0.0274  0.1950  0.0840
98104W        W98968  13.952  23.703  16.785  0.1353  0.0777 -0.0057
98105W        W98969   9.753  28.292  14.334 -0.2395 -0.0060  0.2636
98106W        W98970  12.859  23.689  17.138  0.0919  0.1640  0.0575
98107W        W98971  14.348  24.280  19.426  0.2410 -0.4618  0.1612
98108W        W98972  12.939  22.116  18.095  0.3625 -0.0470 -0.0109
98109W        W98973  13.199  22.525  19.333  0.1545  0.3624 -0.0720
98110W        W98974  14.684  26.426  17.418 -0.2638 -0.1982 -0.0210
98111W        W98975  13.900  22.527  19.155  0.2173  0.0626  0.2200
98112W        W98976  12.908  28.185  17.293  0.1956 -0.2165  0.1974
98113W        W98977  12.675  24.901  18.420  0.1442 -0.2481 -0.0296
98114W        W98978  12.416  23.295  17.771  0.0634 -0.0950  0.1143
98115W        W98979  11.911  23.136  15.056  0.0674 -0.0585 -0.1419
98116W        W98980  15.104  25.583  18.386  0.0647  0.0463  0.0343
98117W        W98981  13.935  23.731  16.237  0.0108 -0.0898 -0.0547
98118W        W98982  11.541  23.852  16.404 -0.1406 -0.1225 -0.1138
98119W        W98983  12.861  21.771  17.779 -0.0224 -0.1984  0.2108
98120W        W98984  13.102  26.029  17.117  0.0149  0.2779  0.1817
98121W        W98985  12.851  25.144  18.811 -0.2302  0.1087 -0.2583
98122W        W98986  14.112  26.909  13.386  0.3657  0.2134 -0.0460
98123W        W98987  10.880  26.768  15.457 -0.0921 -0.0536 -0.1036
98124W        W98988  14.418  23.870  23.377 -0.2049  0.2283  0.2049
98125W        W98989  10.754  23.640  20.217  0.2644 -0.2929 -0.1267
98126W        W98990  10.961  22.632  19.105  0.0164  0.2427 -0.0398
98127W        W98991  12.941  27.178  20.603  0.0496  0.1761  0.2045
98128W        W98992   9.746  25.401  17.993 -0.0414 -0.0601  0.1268
98129W        W98993  10.391  23.813  21.099 -0.0879  0.0297  0.0215
98130W        W98994  11.177  23.466  21.164 -0.0703 -0.3140  0.1184
98131W        W98995  13.267  24.774  18.603  0.1107 -0.0981  0.2063
98132W        W98996  12.333  23.285  20.112  0.1070 -0.1799 -0.1127
98133W        W98997   9.120  20.910  21.057  0.2581 -0.0376  0.1118
98134W        W98998  12.595  21.734  21.310 -0.0041  0.1561  0.0737
98135W        W98999  13.681  22.116  18.821 -0.2638 -0.0744 -0.1455
98136W        W99000  12.281  20.748  21.014 -0.0682 -0.3284 -0.1099
98137W        W99001  12.274  22.908  23.671  0.0111 -0.0582 -0.4446
98138W        W99002   9.344  21.181  22.447  0.1117  0.1889  0.2051
98139W        W99003  11.649  24.481  23.681  0.2175 -0.1189  0.1278
98140W        W99004  10.106  26.436  18.958  0.0188  0.2370 -0.3258
98141W        W99005  11.593  24.668  20.206  0.2675 -0.2676  0.0783
98142W        W99006  10.819  24.364  19.975  0.1351 -0.2569  0.0753
98143W        W99007  12.988  23.681  20.516 -0.0395 -0.0936  0.5389
98144W        W99008  15.620  25.843  19.609  0.0134  0.0886 -0.1971
98145W        W99009  14.425  25.992  20.196 -0.1570  0.3358  0.0591
98146W        W99010  11.533  27.339  20.956  0.1327 -0.0397 -0.1291
98147W        W99011  10.496  22.818  19.984 -0.0863 -0.1816 -0.1300
98148W        W99012  11.047  23.421  21.773  0.0859 -0.0229  0.3509
98149W        W99013  13.193  22.904  21.703  0.1687 -0.2216  0.0243
98150W        W99014  12.825  23.377  20.174 -0.0254  0.1459 -0.0828
98151W        W99015  11.940  27.112  20.568  0.2783 -0.0273  0.2726
98152W        W99016  14.616  24.657  21.517  0.1002 -0.0155 -0.0303
98153W        W99017  10.969  25.341  19.864 -0.0820 -0.0521 -0.2084
98154W        W99018  13.299  22.490  19.815 -0.3304 -0.0957 -0.0730
98155W        W99019  13.315  24.419  20.088 -0.3767 -0.3116 -0.0012
98156W        W99020  12.568  23.347  20.830  0.1596 -0.2319  0.0582
98157W        W99021  10.931  25.673  21.450  0.2229  0.1023 -0.0685
98158W        W99022  12.849  22.365  21.474 -0.2415  0.0715  0.0003
98159W        W99023  14.907  25.542  21.138  0.0468  0.0482  0.1898
98160W        W99024  13.041  19.185  24.340 -0.0989  0.2187 -0.0420
98161W        W99025  11.605  24.877  19.582 -0.0636 -0.0004  0.2645
98162W        W99026  13.839  24.243  21.151 -0.1361  0.3291  0.0413
98163W        W99027  15.362  20.174  19.031 -0.4055  0.0226  0.0524
98164W        W99028  14.871  23.935  19.458  0.0896 -0.1919 -0.0386
98165W        W99029  13.529  20.080  20.228 -0.0982  0.1112  0.0707
98166W        W99030  14.040  25.661  23.520  0.0555  0.0262 -0.0482
98167W        W99031  12.449  21.815  19.833 -0.1041 -0.4761 -0.2204
98168W        W99032  10.733  25.914  19.064 -0.0188 -0.0891  0.1104
98169W        W99033  10.640  25.515  19.360 -0.2307  0.2358  0.0020
98170W        W99034  11.092  19.875  21.740  0.0655 -0.2703 -0.1504
98171W        W99035  15.696  23.026  22.364 -0.0151  0.0017  0.0514
98172W        W99036  11.202  23.876  21.593  0.0978 -0.0687 -0.2947
98173W        W99037  14.981  23.380  22.895  0.0704  0.0177 -0.0609
98174W        W99038  11.811  25.440  21.560 -0.1568 -0.0776  0.4956
98175W        W99039  12.689  22.979  22.633 -0.2579  0.1589  0.0932
98176W        W99040  16.391  25.994  25.211  0.0982  0.0874  0.0532
98177W        W99041  12.233  25.255  21.289 -0.0484 -0.2476 -0.0208
98178W        W99042  14.481  21.009  22.400 -0.3397 -0.0306  0.1036
98179W        W99043   9.967  25.174  17.484 -0.2477  0.0670  0.0644
98180W        W99044  12.814  22.600  22.266 -0.0812 -0.3582 -0.2523
98181W        W99045  13.829  21.580  21.694  0.1337 -0.2224  0.1819
98182W        W99046   9.848  22.885  22.889  0.1975  0.0455 -0.0551
98183W        W99047  13.375  23.522  19.535 -0.2448  0.1473 -0.1464
98184W        W99048  14.628  22.250  20.466 -0.1597 -0.2401  0.3259
98185W        W99049  12.067  27.331  20.130  0.4307 -0.2146  0.1814
98186W        W99050  12.854  23.652  22.409 -0.4289  0.2255  0.0347
98187W        W99051  11.450  21.701  20.892  0.4709 -0.0885 -0.1449
98188W        W99052  10.814  23.555  22.307 -0.0447 -0.2985 -0.2502
98189W        W99053  14.461  20.240  16.557  0.2680 -0.0999  0.1498
98190W        W99054  12.116  21.983  19.334  0.0638  0.0494  0.0266
98191W        W99055  11.460  21.953  21.389 -0.2353  0.0238  0.1232
98192W        W99056  11.143  23.418  20.635  0.1751  0.0654  0.0563
98193W        W99057  12.006  23.720  20.097 -0.1098  0.1572  0.0357
98194W        W99058  12.798  25.448  23.651 -0.2005 -0.0894 -0.3302
98195W        W99059  12.814  22.941  19.304 -0.1585  0.1282 -0.0626
98196W        W99060  14.682  25.709  19.829  0.1127  0.2921 -0.1141
98197W        W99061  14.375  23.778  22.459  0.1843  0.3974 -0.1771
98198W        W99062  15.878  24.194  19.158  0.1005 -0.0489 -0.1285
98199W        W99063  13.120  25.677  21.620 -0.0000  0.2665  0.0291
98200W        W99064   9.121  21.721  18.333 -0.2173  0.1572  0.0009
98201W        W99065  12.726  25.572  22.077  0.0730 -0.1786  0.0478
98202W        W99066  14.151  22.721  20.473  0.1438 -0.1284  0.1335
98203W        W99067  12.772  24.151  19.938 -0.2776 -0.1256 -0.2328
98204W        W99068  10.592  23.071  22.250  0.2973  0.1193  0.0834
98205W        W99069  14.326  21.226  21.404 -0.0860  0.0300  0.0104
98206W        W99070   9.819  20.940  22.282 -0.1334  0.0245  0.1460
98207W        W99071  14.634  20.261  18.192  0.0023  0.0680  0.1563
98208W        W99072  11.806  21.289  20.809  0.0530  0.2660 -0.1027
98209W        W99073  15.455  20.926  17.303  0.2286 -0.0813  0.0901
98210W        W99074  14.349  23.297  22.762 -0.2217 -0.4295  0.0812
98211W        W99075  12.431  21.951  23.500  0.1518  0.1766 -0.0700
98212W        W99076  13.119  20.523  23.041  0.0607  0.1990  0.4129
98213W        W99077  13.209  18.747  21.273  0.2224  0.2078 -0.0323
98214W        W99078  13.153  20.890  17.893 -0.2023  0.4524 -0.0062
98215W        W99079  14.882  26.821  20.017 -0.3885  0.1846 -0.2251
98216W        W99080  12.641  27.500  18.864  0.0304 -0.1403 -0.1347
98217W        W99081  14.467  24.718  19.190 -0.1092  0.0926  0.2843
98218W        W99082  10.704  21.911  22.640  0.4193  0.0260  0.1629
98219W        W99083  15.184  25.978  19.801  0.1715  0.2633  0.3099
98220W        W99084  13.568  22.445  18.245  0.0768 -0.0217  0.0114
98221W        W99085  14.014  25.949  21.270 -0.1182 -0.0790  0.0884
98222W        W99086  12.738  21.639  22.307 -0.0214 -0.2365 -0.1092
98223W        W99087  16.395  22.743  19.257 -0.1268 -0.1086 -0.1487
98224W        W99088  14.981  24.925  19.847  0.0791  0.0854 -0.0782
98225W        W99089  10.049  24.248  20.195  0.0060 -0.1026  0.1077
98226W        W99090  10.436  20.888  19.555  0.2435 -0.0067  0.1403
98227W        W99091  15.987  23.063  21.951  0.1280 -0.2980  0.1589
98228W        W99092  14.644  23.235  19.964 -0.1428 -0.0669 -0.3152
98229W        W99093  12.027  23.358  22.887 -0.0074 -0.0203 -0.0948
98230W        W99094  13.442  26.860  18.059  0.0189 -0.2407  0.1009
98231W        W99095  13.550  21.005  23.801  0.0110  0.4697 -0.3298
98232W        W99096  14.840  19.819  15.414  0.1689  0.2394  0.0401
98233W        W99097  10.329  22.743  21.707  0.1396 -0.0034  0.4019
98234W        W99098  10.581  22.220  21.162 -0.0494  0.2447  0.4042
98235W        W99099  13.929  27.279  19.578  0.0877 -0.0412 -0.1918
98236W        W99100  14.598  24.198  20.733  0.0223 -0.2824  0.0857
98237W        W99101  15.770  25.035  21.155  0.1335 -0.1219  0.1095
98238W        W99102  13.217  24.907  19.958 -0.0712 -0.2165 -0.0714
98239W        W99103  14.117  22.940  19.488 -0.2269  0.2345  0.2654
98240W        W99104  14.325  20.521  22.237  0.1601 -0.2541 -0.2195
98241W        W99105   9.729  23.103  20.360  0.0771 -0.1083 -0.1541
98242W        W99106  11.879  22.336  21.297  0.1977 -0.2610 -0.3742
98243W        W99107  10.582  22.130  20.441 -0.2308  0.0215 -0.1224
98244W        W99108  15.433  22.819  20.210  0.2579 -0.1428 -0.0156
98245W        W99109  13.487  20.088  17.465 -0.1146 -0.2195 -0.0802
98246W        W99110  13.839  22.642  18.669 -0.1008 -0.0651 -0.1983
98247W        W99111  13.915  22.600  19.839 -0.3430  0.2260 -0.2765
98248W        W99112  17.203  23.059  20.782 -0.0824 -0.1819 -0.1698
98249W        W99113  12.777  25.920  21.284  0.1481  0.2021 -0.0081
98250W        W99114  12.155  22.800  20.517 -0.1237  0.0263 -0.0100
98251W        W99115  14.370  23.756  20.700 -0.0012 -0.1519 -0.2183
98252W        W99116  15.555  24.411  18.773  0.0620  0.2503 -0.2232
98253W        W99117  12.409  21.861  20.357  0.2156  0.0990 -0.0317
98254W        W99118  14.268  24.561  25.063 -0.0089 -0.1384  0.3615
98255W        W99119  12.937  22.211  21.949  0.0949  0.1087  0.0406
98256W        W99120  13.771  26.705  24.578 -0.0126 -0.1209  0.1116
98257W        W99121  14.183  19.390  19.897  0.0483 -0.1448 -0.0393
98258W        W99122  13.124  24.902  21.628 -0.4276 -0.0721 -0.1186
98259W        W99123  10.984  22.658  20.132  0.3873  0.0338 -0.0224
98260W        W99124  15.672  25.148  19.345  0.0611 -0.1481  0.3434
98261W        W99125  15.473  21.849  20.102 -0.0769  0.0204  0.1235
98262W        W99126  15.965  26.228  21.066 -0.3108 -0.1573 -0.1921
98263W        W99127  13.401  25.463  19.392  0.0130  0.0867 -0.1016
98264W        W99128  10.723  21.998  19.620 -0.0387 -0.2141  0.0856
98265W        W99129  12.659  22.989  20.534 -0.1104  0.0373  0.4525
98266W        W99130   9.334  25.166  19.237  0.2601  0.1262 -0.2649
98267W        W99131  12.895  23.500  19.040  0.1644  0.1056 -0.0322
98268W        W99132  11.681  23.677  20.774  0.0460  0.1874  0.0673
98269W        W99133  12.549  22.554  21.824  0.1656  0.0616 -0.0178
98270W        W99134  15.601  25.128  20.321  0.1233 -0.2441 -0.2758
98271W        W99135  15.270  26.226  20.239  0.1504  0.3196  0.1774
98272W        W99136  11.535  25.205  19.163 -0.0521  0.1713  0.0811
98273W        W99137  11.683  23.013  20.749  0.0769 -0.0625  0.0160
98274W        W99138  13.073  21.769  21.140  0.1517 -0.0064 -0.1891
98275W        W99139  13.262  22.109  18.571 -0.0887  0.1168 -0.3062
98276W        W99140  10.233  25.019  20.513  0.0770  0.0097  0.1042
98277W        W99141  12.412  22.783  20.063 -0.0396 -0.1566 -0.1220
98278W        W99142  14.873  22.282  20.944  0.1180 -0.0578  0.3024
98279W        W99143  12.858  18.972  21.686  0.0643  0.2648  0.1852
98280W        W99144  13.198  22.651  22.635 -0.0723  0.1506  0.2953
98281W        W99145  13.416  24.025  18.323 -0.1726 -0.0837  0.2537
98282W        W99146  11.502  20.315  19.677  0.0026 -0.0521  0.0585
98283W        W99147   9.923  23.813  21.853 -0.2233 -0.1708  0.0507
98284W        W99148  14.547  21.908  21.378 -0.1322 -0.1207 -0.4849
98285W        W99149   9.294  23.899  19.898 -0.2486 -0.1290 -0.0821
98286W        W99150  12.467  23.650  19.799 -0.4656 -0.1677  0.0892
98287W        W99151  15.128  22.609  25.354  0.1760  0.1376  0.0077
98288W        W99152   9.852  22.399  19.761  0.1634  0.3654 -0.3676
98289W        W99153  10.987  20.403  19.422 -0.3288 -0.0678  0.0598
98290W        W99154  11.340  22.489  21.393 -0.3137 -0.1909 -0.0511
98291W        W99155  10.951  27.370  18.768 -0.0657  0.3870  0.0727
98292W        W99156  12.059  23.732  21.463 -0.0223 -0.0314 -0.1847
98293W        W99157  12.552  23.618  18.679 -0.0208  0.0179 -0.0311
98294W        W99158  11.740  20.816  21.001  0.0995  0.2365 -0.0794
98295W        W99159  12.688  25.452  21.472 -0.1149 -0.3470 -0.2749
98296W        W99160  12.244  22.760  21.383  0.0281  0.3893  0.0130
98297W        W99161  12.083  20.808  18.469 -0.1673  0.0478  0.0346
98298W        W99162  13.488  18.435  18.527 -0.0293  0.1254  0.1569
98299W        W99163  14.320  24.532  18.408 -0.1221 -0.0155 -0.1497
98300W        W99164  10.787  26.971  20.679  0.0807  0.0925 -0.0984
98301W        W99165  10.674  25.285  22.752  0.0551 -0.1476 -0.2098
98302W        W99166  11.268  21.737  19.024 -0.2044  0.1025  0.3408
98303W        W99167  11.087  22.473  18.549 -0.1839 -0.0841 -0.1316
98304W        W99168  10.707  26.060  17.919  0.2491 -0.0691  0.1518
98305W        W99169  14.348  22.609  18.942  0.1071  0.0456  0.0674
98306W        W99170  14.673  22.182  19.722  0.0221 -0.1008 -0.1297
98307W        W99171  13.082  23.217  21.186 -0.1959  0.1375  0.2443
98308W        W99172  12.763  20.929  20.950 -0.0600  0.0848 -0.0076
98309W        W99173  14.429  25.732  21.091  0.2520 -0.0006 -0.4485
98310W        W99174  14.792  20.824  18.994  0.1042 -0.0915 -0.0170
98311W        W99175  10.291  23.418  19.098 -0.2245  0.4860 -0.4031
98312W        W99176  14.124  24.475  21.571 -0.0076  0.3167 -0.0699
98313W        W99177  11.704  23.392  21.189  0.1610  0.1430  0.1981
98314W        W99178  12.368  21.403  19.571  0.0787 -0.1225  0.2353
98315W        W99179  13.656  25.718  19.810 -0.2382  0.0388  0.1221
98316W        W99180  12.627  22.455  20.584  0.2413  0.0002  0.0137
98317W        W99181   9.816  20.386  21.317 -0.0290  0.0402 -0.0791
98318W        W99182  13.049  21.844  17.246 -0.2514  0.1426 -0.0862
98319W        W99183  12.483  20.576  20.175 -0.1483  0.2744 -0.0916
98320W        W99184  12.825  24.613  18.824 -0.4660 -0.1893  0.0041
98321W        W99185   9.415  22.547  21.646  0.0845 -0.1672 -0.1978
98322W        W99186  10.774  23.755  20.737 -0.0943 -0.0446 -0.0980
98323W        W99187  14.942  21.975  22.364  0.1424 -0.1421  0.0367
98324W        W99188   8.110  22.708  17.156 -0.3168 -0.2482  0.2907
98325W        W99189  15.703  21.956  24.558 -0.1172 -0.1208  0.3014
98326W        W99190  15.028  22.128  21.419 -0.2512  0.1840  0.0310
98327W        W99191  11.611  21.519  22.277  0.4059  0.1349  0.0312
98328W        W99192  15.750  24.427  21.532  0.1826 -0.1247  0.0110
98329W        W99193   9.375  22.726  21.173 -0.0749  0.3094 -0.1436
98330W        W99194  10.754  22.658  21.951  0.5386 -0.2011  0.1000
98331W        W99195  12.738  21.463  20.386 -0.0510  0.2526  0.1042
98332W        W99196   9.328  28.006  21.387 -0.2618 -0.0672  0.3436
98333W        W99197  10.682  23.362  17.275  0.1354  0.3573  0.0080
98334W        W99198  13.014  27.407  22.591 -0.0327 -0.0022  0.1563
98335W        W99199   9.328  22.063  22.480  0.2791 -0.0250  0.1165
98336W        W99200   9.176  23.522  19.475  0.1685  0.0364  0.2007
98337W        W99201  13.008  20.441  20.139  0.0174 -0.1607 -0.0055
98338W        W99202  16.501  23.599  22.529 -0.1832  0.2348 -0.0048
98339W        W99203  16.065  22.145  18.499  0.0051 -0.3747 -0.2031
98340W        W99204  11.117  25.577  19.116 -0.1927  0.0761  0.0437
98341W        W99205  12.194  27.019  17.272  0.3366 -0.1970  0.0022
98342W        W99206  13.798  25.755  22.169  0.1304  0.0822  0.0626
98343W        W99207  12.490  25.546  23.068 -0.3257 -0.0137  0.0113
98344W        W99208  13.095  22.683  23.150 -0.1141  0.0112  0.1342
98345W        W99209  13.775  23.468  21.654 -0.0254 -0.1378 -0.1256
98346W        W99210  13.246  25.333  24.793 -0.3400  0.0450 -0.1515
98347W        W99211  12.207  21.179  20.158 -0.0346 -0.0761  0.1483
98348W        W99212  12.456  24.198  17.973  0.0080 -0.2631  0.0111
98349W        W99213  11.534  20.844  21.578  0.1049 -0.2927  0.1380
98350W        W99214  13.916  23.793  20.856  0.1099  0.0643 -0.1182
98351W        W99215  13.312  22.197  20.970  0.1301 -0.2174 -0.1406
98352W        W99216  12.168  25.328  20.704 -0.1991 -0.1338 -0.1086
98353W        W99217  15.509  24.940  18.865  0.5410  0.0986  0.3555
98354W        W99218   9.018  19.526  22.340 -0.0999  0.0005  0.2184
98355W        W99219  12.581  23.095  18.821 -0.0107 -0.0018 -0.0390
98356W        W99220  12.296  25.260  18.417  0.2246  0.2072  0.2293
98357W        W99221  14.851  21.241  20.656 -0.0601 -0.2368  0.2358
98358W        W99222  11.574  21.441  21.496  0.2560 -0.0929  0.1963
98359W        W99223  15.027  26.192  18.910  0.1274  0.2287  0.4205
98360W        W99224  13.183  20.911  17.251 -0.1551 -0.0242  0.0818
98361W        W99225  11.751  22.822  21.265 -0.1425  0.4009  0.1134
98362W        W99226  13.309  21.767  19.593  0.0173  0.0301 -0.0626
98363W        W99227  13.285  26.412  19.289  0.1173  0.2091  0.2823
98364W        W99228  15.823  23.785  20.512 -0.3930 -0.1629  0.1061
98365W        W99229  12.328  26.084  19.606  0.0321  0.0858 -0.0503
98366W        W99230  10.547  22.556  22.932  0.3764  0.0457 -0.1029
98367W        W99231  11.239  22.717  21.810  0.1150  0.0267 -0.1020
98368W        W99232  12.357  21.265  21.326  0.2307 -0.1611 -0.1604
98369W        W99233  10.276  22.974  18.628 -0.3289 -0.2414  0.0542
98370W        W99234  15.104  20.834  21.933 -0.0286 -0.0407  0.0574
98371W        W99235  14.697  26.238  22.370  0.0356 -0.1814  0.1022
98372W        W99236  13.642  25.988  18.070  0.4386  0.2248  0.1721
98373W        W99237  11.911  21.715  20.567  0.1339  0.2608 -0.2479
98374W        W99238  11.217  22.923  21.103  0.1461 -0.2537  0.0979
98375W        W99239  10.607  25.645  20.925 -0.0971 -0.1138  0.0111
98376W        W99240  15.155  24.290  22.674  0.2840  0.0502 -0.0077
98377W        W99241  13.689  23.215  22.479  0.1771  0.0130 -0.2101
98378W        W99242  11.356  23.029  20.017  0.2616  0.1580 -0.1049
98379W        W99243  14.929  23.869  20.929 -0.1474  0.3965 -0.1951
98380W        W99244  13.735  22.986  20.571 -0.2085 -0.0760 -0.2710
98381W        W99245  11.827  20.746  19.474  0.1168  0.3448 -0.1033
98382W        W99246  12.182  25.681  19.789 -0.2055  0.0791 -0.0924
98383W        W99247  12.592  24.683  19.888 -0.1872  0.0455 -0.0242
98384W        W99248  11.736  22.076  20.248  0.1622 -0.0428 -0.0129
98385W        W99249  10.059  24.621  22.371  0.0963  0.1461  0.2891
98386W        W99250  11.939  25.800  20.791 -0.0454  0.0716 -0.1391
98387W        W99251   9.330  20.155  21.111  0.3005 -0.0064 -0.0750
98388W        W99252  11.720  26.489  22.603 -0.1711 -0.0633 -0.0701
98389W        W99253  14.759  25.174  21.510  0.2471 -0.0621 -0.3328
98390W        W99254  11.293  23.550  19.453  0.2269 -0.1578  0.1129
98391W        W99255  12.850  24.755  20.893  0.0707 -0.4377  0.3792
98392W        W99256  11.979  20.395  20.914  0.1347  0.3216  0.0606
98393W        W99257  15.813  22.360  20.118  0.0562 -0.0855 -0.0292
98394W        W99258  13.256  20.828  19.785  0.1546 -0.2857 -0.0098
98395W        W99259  13.391  22.326  23.478  0.1246 -0.1351  0.1623
98396W        W99260  14.028  24.619  20.357 -0.1567 -0.0605 -0.4528
98397W        W99261  12.317  22.026  20.891  0.1696  0.0451  0.2904
98398W        W99262  15.445  24.801  23.169 -0.1728  0.1449 -0.2269
98399W        W99263  13.228  23.002  19.681  0.0974  0.2395 -0.2327
98400W        W99264   9.462  23.760  22.464 -0.1122 -0.0186 -0.0973
98401W        W99265   8.649  21.029  21.841 -0.0604 -0.0863  0.2427
98402W        W99266  10.697  24.635  16.578  0.0003 -0.0800 -0.1385
98403W        W99267  10.355  25.497  20.465  0.1360  0.1190  0.0779
98404W        W99268  11.743  23.328  19.294  0.0329 -0.1481 -0.0591
98405W        W99269  14.161  25.085  17.408 -0.0339 -0.0544  0.3438
98406W        W99270  13.558  23.117  18.654 -0.0344  0.1482 -0.1359
98407W        W99271  10.927  25.505  20.326 -0.1567 -0.4339  0.2859
98408W        W99272  14.653  20.928  20.245 -0.0222  0.1043 -0.0348
98409W        W99273  14.110  21.557  19.487 -0.1245  0.3519  0.0824
98410W        W99274  12.462  24.293  20.326  0.1423  0.1680  0.2522
98411W        W99275  13.823  23.395  20.238  0.1794 -0.3411 -0.0326
98412W        W99276  10.917  23.143  19.786  0.0805 -0.1018  0.0991
98413W        W99277  13.155  25.017  20.566  0.0137 -0.0734  0.2210
98414W        W99278  14.593  21.019  17.818  0.2704  0.2462  0.0284
98415W        W99279  13.240  22.840  20.339 -0.0404  0.1968  0.0484
98416W        W99280  10.085  19.105  22.801  0.5811  0.1344 -0.0758
98417W        W99281  10.061  21.660  18.716 -0.1941 -0.0238 -0.2182
98418W        W99282  10.620  25.353  21.703  0.0054  0.0928 -0.1348
98419W        W99283  13.642  22.447  21.236  0.2619  0.0773  0.0593
98420W        W99284   9.778  22.659  20.763 -0.1221 -0.1360  0.0814
98421W        W99285  14.814  24.288  21.184  0.1143  0.3726  0.2573
98422W        W99286  15.390  23.029  21.239  0.0533 -0.3104 -0.2083
98423W        W99287  15.037  24.917  20.484  0.2829  0.0826  0.1144
98424W        W99288  11.634  26.889  18.936 -0.5438  0.3263  0.0039
98425W        W99289   8.404  22.868  22.701 -0.0000  0.0280  0.1389
98426W        W99290  12.003  24.313  22.303 -0.0725  0.1534 -0.1104
98427W        W99291  12.247  20.770  19.797  0.4441 -0.1570 -0.2968
98428W        W99292  12.962  27.609  23.149 -0.1058 -0.1947 -0.5207
98429W        W99293  16.922  25.381  22.493  0.2600  0.2408 -0.1097
98430W        W99294  12.869  21.884  20.612 -0.1681 -0.1187 -0.4367
98431W        W99295  14.147  23.432  19.806  0.1395  0.4115  0.1852
98432W        W99296   9.360  23.034  18.949  0.0284 -0.2835  0.2969
98433W        W99297  12.007  21.631  20.046  0.1334 -0.1180 -0.2821
98434W        W99298  13.293  24.300  21.710  0.1464 -0.1052 -0.1696
98435W        W99299  13.305  19.882  18.225 -0.1838  0.0322 -0.0043
98436W        W99300  15.806  25.912  19.043  0.1496  0.2423 -0.1279
98437W        W99301  10.503  26.056  19.825 -0.5251  0.2782 -0.0690
98438W        W99302  10.136  25.812  20.801 -0.0011  0.0784  0.0996
98439W        W99303  11.309  20.927  19.182  0.0050 -0.2450 -0.2190
98440W        W99304  11.643  23.433  20.337  0.0171  0.0448  0.2197
98441W        W99305  14.080  22.461  20.960 -0.0454 -0.3384  0.0157
98442W        W99306  12.563  24.320  19.507 -0.1628 -0.3121 -0.0570
98443W        W99307  14.374  25.004  22.450  0.0332 -0.2594  0.0302
98444W        W99308  14.204  26.222  17.659  0.2269  0.1065 -0.1229
98445W        W99309  10.376  24.795  22.075  0.1136  0.0453  0.3897
98446W        W99310  11.368  26.153  19.227  0.1137 -0.0535 -0.1365
98447W        W99311  13.603  23.448  19.008  0.0084 -0.2304  0.0671
98448W        W99312  13.609  25.169  20.745 -0.0871  0.0587  0.2124
98449W        W99313  12.426  18.784  18.231  0.0865  0.1036  0.1657
98450W        W99314  11.357  26.189  19.770 -0.2139 -0.2063 -0.2347
98451W        W99315  10.994  24.627  17.855  0.1404  0.1945 -0.1658
98452W        W99316  13.871  21.560  18.830  0.3741  0.0169 -0.1484
98453W        W99317  11.581  22.396  22.016 -0.0101 -0.1441  0.1098
98454W        W99318  13.798  20.913  15.172 -0.1976  0.0466 -0.1048
98455W        W99319  13.863  23.718  19.414  0.1528 -0.3742 -0.2130
98456W        W99320  14.146  25.887  20.649 -0.0354 -0.1239  0.0328
98457W        W99321  13.601  22.927  21.348  0.1986  0.0828  0.2942
98458W        W99322  14.942  23.082  24.325  0.0832  0.0182  0.1134
98459W        W99323  11.232  26.361  20.339  0.0234 -0.1867  0.1648
98460W        W99324  12.855  24.861  19.258 -0.4085 -0.0189  0.0692
98461W        W99325  13.609  22.528  20.733 -0.0048  0.3891 -0.1948
98462W        W99326  10.858  20.605  20.845 -0.1529 -0.1642 -0.2974
98463W        W99327  13.941  24.870  22.101 -0.0140  0.3107  0.3932
98464W        W99328  11.041  21.683  20.058  0.0741 -0.0939  0.0451
98465W        W99329  10.568  22.371  19.300  0.3307 -0.2157 -0.0396
98466W        W99330  12.811  25.494  18.403 -0.0908 -0.5680 -0.3631
98467W        W99331  11.192  21.556  22.618 -0.1747 -0.0735  0.3396
98468W        W99332  13.118  22.618  20.752 -0.1742 -0.0050 -0.0172
98469W        W99333  12.841  25.154  20.112  0.4510 -0.0375 -0.2396
98470W        W99334   8.496  23.324  20.982 -0.1042 -0.0196 -0.0323
98471W        W99335  12.115  23.949  20.536 -0.1009 -0.0105 -0.3077
98472W        W99336  12.838  23.328  17.479  0.3577 -0.2710  0.0085
98473W        W99337  13.633  24.691  19.762  0.0365  0.0331 -0.0385
98474W        W99338  15.045  23.529  19.181  0.3050  0.0127  0.0855
98475W        W99339  14.492  23.225  20.535  0.3145 -0.0794  0.1047
98476W        W99340  13.291  23.529  21.511  0.0423 -0.1407 -0.0815
98477W        W99341  13.113  23.796  19.961  0.0438 -0.2986  0.0445
98478W        W99342  12.041  21.248  17.443  0.3219  0.1881  0.3941
98479W        W99343  11.740  26.631  19.384  0.0560  0.0415  0.5155
98480W        W99344  10.265  22.418  20.801  0.0811 -0.0025 -0.1438
98481W        W99345  10.965  23.741  23.753  0.1978  0.0478 -0.2139
98482W        W99346  12.349  24.445  21.360 -0.2117  0.0226  0.1759
98483W        W99347  14.254  21.993  18.116 -0.0725 -0.0141  0.0583
98484W        W99348  13.352  21.164  20.591  0.2842 -0.0692  0.1329
98485W        W99349  11.508  22.574  20.891  0.2051 -0.1536 -0.0245
98486W        W99350  10.193  20.864  18.259  0.2153  0.2069 -0.0864
98487W        W99351  16.732  27.291  20.075 -0.0662  0.3224 -0.1176
98488W        W99352  15.075  25.045  22.975  0.2064 -0.2095  0.0048
98489W        W99353  14.637  25.262  20.784 -0.0204  0.0546 -0.0621
98490W        W99354  13.328  25.138  18.999 -0.1795 -0.3094  0.0004
98491W        W99355  10.865  22.951  21.462  0.1851  0.1191  0.0200
98492W        W99356  15.625  22.211  18.810  0.2015  0.2154  0.0172
98493W        W99357  11.803  20.748  20.005 -0.1783  0.0769  0.2347
98494W        W99358  14.355  21.303  20.424 -0.2447 -0.0224  0.1669
98495W        W99359  14.372  27.023  19.915  0.1877  0.1083  0.2475
98496W        W99360  17.199  25.015  21.861 -0.0864  0.0815  0.0122
98497W        W99361  13.456  27.777  18.873  0.0085  0.1814  0.0113
98498W        W99362   9.576  21.344  22.009 -0.1376 -0.1408 -0.0995
98499W        W99363  11.032  20.902  24.411  0.0526 -0.2357  0.0595
98500W        W99364  12.372  22.289  22.249 -0.1181 -0.1672 -0.0418
98501W        W99365   8.800  21.491  21.736  0.0481 -0.0343  0.1499
98502W        W99366  10.147  23.213  23.082 -0.0210 -0.0901 -0.0376
98503W        W99367  13.184  22.706  21.222  0.0159 -0.1811 -0.3355
98504W        W99368  11.252  20.763  21.159  0.1786 -0.1056 -0.2855
98505W        W99369   8.508  22.220  20.072 -0.0121 -0.1485  0.0452
98506W        W99370  14.606  23.988  22.039  0.2153 -0.2261 -0.5556
98507W        W99371  15.295  23.574  20.762 -0.1964  0.1273 -0.0504
98508W        W99372  12.623  22.285  20.012 -0.0332  0.2467  0.1077
98509W        W99373  15.662  27.071  19.634  0.2676  0.1215  0.0617
98510W        W99374  13.688  26.713  21.814 -0.1352 -0.0752 -0.0885
98511W        W99375  11.101  24.946  20.481 -0.2497 -0.1010 -0.0833
98512W        W99376  15.186  27.228  21.100 -0.0285 -0.2252  0.1109
98513W        W99377  15.194  23.074  22.524 -0.0397  0.0907  0.0342
98514W        W99378  13.087  25.643  19.831  0.1156  0.1116  0.4324
98515W        W99379  13.404  24.032  20.726 -0.0453 -0.1945 -0.1348
98516W        W99380  14.470  23.585  18.433  0.0082  0.1090 -0.0536
98517W        W99381  13.761  25.523  18.300 -0.2238 -0.0605 -0.0364
98518W        W99382  13.563  22.233  19.498  0.2013 -0.2827 -0.1016
98519W        W99383  12.198  25.753  22.193 -0.1104 -0.0096  0.4137
98520W        W99384  13.854  24.116  25.179 -0.2914 -0.3001 -0.1935
98521W        W99385  14.785  25.328  20.236 -0.2305  0.1159  0.1494
98522W        W99386  12.823  22.616  19.692 -0.3430 -0.0388 -0.0280
98523W        W99387   9.510  24.375  27.554 -0.0340  0.0016 -0.2448
98524W        W99388  12.433  24.830  24.441 -0.0634  0.1043  0.0361
98525W        W99389  15.323  25.877  21.727 -0.0574  0.0210 -0.0282
98526W        W99390  12.519  24.597  24.024 -0.1030 -0.1001 -0.0520
98527W        W99391  11.902  24.791  23.236  0.0361  0.3001  0.0219
98528W        W99392  12.033  23.568  21.990 -0.0255  0.1052  0.1953
98529W        W99393  11.839  22.860  22.851 -0.0875  0.0042  0.0855
98530W        W99394  13.668  24.088  22.460  0.1082 -0.1568 -0.0667
98531W        W99395  12.400  24.165  26.568  0.1446 -0.1812 -0.0437
98532W        W99396   7.818  22.277  26.748  0.2334  0.0364  0.0329
98533W        W99397  10.892  20.233  26.002  0.0328 -0.1410  0.0189
98534W        W99398  13.878  22.377  24.859  0.0805  0.0390 -0.0313
98535W        W99399  12.587  23.851  20.757  0.2066 -0.0536  0.3467
98536W        W99400  12.790  24.538  26.551  0.2032  0.0061  0.1255
98537W        W99401  14.417  21.946  23.048  0.0157  0.0957  0.0239
98538W        W99402  11.695  27.482  24.453 -0.2178  0.1261  0.0492
98539W        W99403   9.940  19.358  21.075 -0.0788  0.2306  0.0431
98540W        W99404  12.069  21.848  24.702  0.0043  0.0345 -0.0227
98541W        W99405  13.426  23.712  23.306 -0.0564 -0.1147 -0.0428
98542W        W99406  13.945  23.696  22.670  0.1128 -0.3718  0.1221
98543W        W99407  14.963  22.935  26.645  0.0760 -0.2339  0.1321
98544W        W99408  12.390  22.377  23.311  0.2417  0.2542 -0.0428
98545W        W99409  11.370  25.998  24.879 -0.4158 -0.0433  0.5080
98546W        W99410  11.149  23.684  23.308 -0.0863  0.3800  0.2989
98547W        W99411  12.205  22.388  26.965 -0.1641 -0.1036  0.1821
98548W        W99412  11.698  23.015  25.239 -0.1116  0.0058  0.2838
98549W        W99413  14.019  23.649  24.487  0.3139  0.0334 -0.0122
98550W        W99414  11.586  27.199  25.364 -0.3074  0.0823  0.0517
98551W        W99415  14.142  23.953  25.551  0.0918 -0.2170 -0.4095
98552W        W99416  13.449  23.196  23.328  0.2964 -0.2356 -0.2666
98553W        W99417  12.377  24.740  22.386 -0.2080 -0.3580 -0.0551
98554W        W99418  14.388  27.038  27.444  0.0856  0.0170 -0.2470
98555W        W99419   9.621  23.929  27.929 -0.1957 -0.2126  0.3323
98556W        W99420  12.528  23.460  21.332  0.0931  0.1063  0.0790
98557W        W99421  10.004  23.107  24.080  0.0582 -0.1340  0.4197
98558W        W99422  13.315  26.153  23.512  0.1987 -0.1469 -0.1277
98559W        W99423  14.119  21.096  23.016 -0.2594 -0.0707 -0.2152
98560W        W99424  12.709  24.441  23.587  0.1874 -0.1188 -0.1326
98561W        W99425  16.464  22.834  22.656  0.1028 -0.0908  0.0025
98562W        W99426  12.622  25.678  27.976  0.0370  0.1777 -0.3411
98563W        W99427  14.984  21.157  22.250  0.2105 -0.0085 -0.1369
98564W        W99428  13.774  24.676  25.112 -0.1302 -0.0817  0.2145
98565W        W99429  11.583  23.643  24.151  0.0492 -0.0574  0.1602
98566W        W99430  14.954  23.810  22.521 -0.2227 -0.1281  0.0959
98567W        W99431  11.147  22.501  22.294  0.0585  0.2287  0.0905
98568W        W99432  12.686  24.369  26.109  0.0234  0.0600 -0.1817
98569W        W99433   9.360  20.632  25.834 -0.1053 -0.0418  0.0031
98570W        W99434  13.718  27.940  25.190 -0.0509 -0.0202 -0.0541
98571W        W99435  12.298  21.909  22.626  0.0016 -0.0965 -0.0024
98572W        W99436  13.356  21.493  20.240 -0.2228  0.0856 -0.0153
98573W        W99437  12.621  26.018  26.293 -0.2126  0.0664  0.0008
98574W        W99438  10.077  20.678  22.653 -0.2418  0.0503 -0.1665
98575W        W99439  12.817  24.144  23.043 -0.3910  0.0751  0.3768
98576W        W99440  15.151  25.062  25.048 -0.4773  0.0975  0.1233
98577W        W99441  13.130  22.188  23.025  0.0996  0.1319  0.0033
98578W        W99442  11.171  23.891  24.215  0.1274 -0.0271 -0.2474
98579W        W99443  10.273  22.167  22.571 -0.1084  0.0837  0.2185
98580W        W99444  12.511  20.389  23.184 -0.0452 -0.0181  0.0398
98581W        W99445  11.760  24.592  21.883 -0.1274  0.0105 -0.2432
98582W        W99446  14.431  23.767  25.191 -0.3425  0.0216 -0.4879
98583W        W99447  13.603  21.512  23.740 -0.0919 -0.2233 -0.1214
98584W        W99448  11.071  25.523  24.454  0.1581  0.2538  0.0025
98585W        W99449  12.155  26.305  25.461  0.1950 -0.2307  0.0404
98586W        W99450  14.043  21.741  22.805 -0.0571 -0.1222  0.1496
98587W        W99451  13.790  23.169  24.580  0.3672 -0.0404  0.2076
98588W        W99452  14.659  22.008  25.233  0.2365 -0.0765  0.0750
98589W        W99453  11.730  24.011  21.951  0.1144 -0.0512 -0.0073
98590W        W99454  11.553  23.731  22.885 -0.4164  0.4442 -0.1555
98591W        W99455  12.548  23.621  22.906  0.0218 -0.2817  0.1369
98592W        W99456  12.258  21.780  22.124 -0.0657  0.0724 -0.2154
98593W        W99457  13.307  27.923  24.914 -0.0067 -0.1252  0.4114
98594W        W99458  11.660  21.153  20.257 -0.0317  0.0674  0.4214
98595W        W99459  17.407  24.724  23.834  0.0419  0.1863 -0.1491
98596W        W99460  13.420  26.996  25.212  0.1929 -0.0023  0.3149
98597W        W99461  14.243  22.731  23.479  0.0437 -0.0589  0.0172
98598W        W99462  11.243  23.917  22.523 -0.1598 -0.0317 -0.0413
98599W        W99463  10.229  21.586  22.658  0.0220 -0.2231  0.0959
98600W        W99464  14.574  25.005  24.305  0.2312 -0.1952 -0.0505
98601W        W99465  13.561  23.015  24.136 -0.0574 -0.2059  0.0166
98602W        W99466  15.682  23.250  20.613  0.3613  0.1911 -0.2294
98603W        W99467  12.982  25.082  22.803 -0.1168  0.1579 -0.1537
98604W        W99468  12.799  22.716  25.204 -0.0652 -0.2291 -0.2122
98605W        W99469  12.184  22.188  24.349 -0.2922 -0.1219  0.0308
98606W        W99470  12.508  19.548  23.741  0.0575 -0.1966 -0.4799
98607W        W99471  13.498  21.880  25.967  0.0581  0.2101 -0.1416
98608W        W99472  13.723  18.392  23.262 -0.0095 -0.1743  0.5026
98609W        W99473  18.330  26.198  26.001  0.1135  0.0874 -0.2930
98610W        W99474  11.866  21.909  26.046  0.1176  0.1495  0.1473
98611W        W99475  13.370  23.812  26.596  0.0196 -0.0594 -0.0890
98612W        W99476  13.333  26.590  24.899 -0.1404  0.1855 -0.0077
98613W        W99477  13.022  23.080  22.185  0.2524 -0.0714 -0.1461
98614W        W99478  14.290  21.643  25.158 -0.1927 -0.1925  0.2276
98615W        W99479  10.165  28.240  21.942  0.4506 -0.1650 -0.4217
98616W        W99480  14.353  22.483  23.920 -0.0245 -0.3279 -0.0155
98617W        W99481  13.244  20.653  23.572 -0.0690  0.2796 -0.1263
98618W        W99482  14.031  22.851  22.715 -0.3295  0.0953  0.1397
98619W        W99483  12.699  20.761  22.809 -0.0382  0.0201  0.1178
98620W        W99484  14.480  24.216  25.935  0.2060 -0.3762 -0.2299
98621W        W99485  11.850  22.928  20.173 -0.2058  0.0736  0.0307
98622W        W99486  12.409  21.888  25.498  0.0950  0.3921 -0.0759
98623W        W99487  14.610  26.196  24.230  0.0989  0.1148 -0.1320
98624W        W99488  11.736  23.711  22.397 -0.1926 -0.5194  0.0918
98625W        W99489   9.735  23.818  20.346  0.2911  0.1007  0.0476
98626W        W99490  15.537  23.538  22.538 -0.2567 -0.0382  0.2331
98627W        W99491  13.536  23.721  26.031 -0.0911  0.1309 -0.1653
98628W        W99492  13.064  23.071  26.313  0.0828 -0.1712  0.3165
98629W        W99493  14.343  24.495  24.525 -0.0705 -0.0050 -0.0042
98630W        W99494  13.058  26.135  25.354  0.2475 -0.0745  0.2806
98631W        W99495  14.496  20.425  26.885 -0.0701  0.0512  0.0388
98632W        W99496  12.247  24.271  24.415  0.2217  0.1536 -0.1865
98633W        W99497  15.546  24.021  24.869 -0.0778 -0.0527 -0.0030
98634W        W99498  11.097  25.006  22.714 -0.0344 -0.3589 -0.0762
98635W        W99499  14.529  22.836  24.450  0.3394 -0.1855  0.0683
98636W        W99500  11.157  26.777  26.433 -0.0960  0.2861  0.0533
98637W        W99501  16.589  25.887  19.779  0.0257  0.0845  0.0971
98638W        W99502  13.407  21.818  23.320  0.0267 -0.1289 -0.0321
98639W        W99503  12.802  22.292  23.994  0.1203 -0.1720  0.0231
98640W        W99504  14.146  22.882  24.737 -0.0294  0.1067  0.0186
98641W        W99505  13.743  21.888  24.953  0.4114  0.3159 -0.2958
98642W        W99506  14.920  23.720  21.795 -0.0115  0.0815  0.0944
98643W        W99507  12.251  23.450  23.626  0.1037  0.1114  0.0377
98644W        W99508  13.699  25.296  23.249  0.2275 -0.1623 -0.1979
98645W        W99509  15.744  26.035  25.934  0.2145  0.1236  0.0032
98646W        W99510  12.529  23.902  23.486 -0.0272  0.1639  0.1459
98647W        W99511  12.004  23.800  23.241 -0.2504 -0.1641 -0.0537
98648W        W99512  14.259  20.998  24.545  0.3858 -0.0192 -0.0836
98649W        W99513  12.669  22.839  23.331 -0.1965  0.0452 -0.1835
98650W        W99514  14.812  24.225  26.362  0.1072  0.1485  0.2019
98651W        W99515  15.030  25.311  24.037 -0.1412  0.2279  0.1441
98652W        W99516  13.889  26.139  25.540  0.2181  0.0106  0.0937
98653W        W99517  14.699  28.047  26.614  0.0110  0.2559  0.2343
98654W        W99518  15.855  24.517  25.450 -0.1744 -0.2515  0.2124
98655W        W99519  12.008  27.522  21.816  0.0123 -0.0034  0.1542
98656W        W99520  12.047  22.782  24.283  0.0916 -0.0175 -0.2506
98657W        W99521  14.693  22.518  23.340 -0.0283  0.1310 -0.2585
98658W        W99522  11.270  24.144  28.295  0.1517  0.0101  0.0472
98659W        W99523  12.795  25.009  25.053 -0.1388  0.0204 -0.1800
98660W        W99524  12.763  21.615  24.680  0.0902 -0.4521 -0.3534
98661W        W99525  14.062  24.060  21.871 -0.2183  0.2727  0.0812
98662W        W99526  13.011  26.570  23.504  0.1583 -0.1057  0.1033
98663W        W99527  11.749  21.209  23.016 -0.2167 -0.0603 -0.2431
98664W        W99528  14.154  22.452  24.448 -0.0806  0.1680  0.0388
98665W        W99529  11.661  25.369  24.217  0.2667 -0.0772 -0.0057
98666W        W99530  13.361  24.224  23.079  0.2146 -0.0829 -0.1568
98667W        W99531  14.177  23.164  25.268 -0.0834  0.0821 -0.1770
98668W        W99532  15.994  23.973  23.465  0.3318 -0.0507 -0.1758
98669W        W99533  13.027  21.194  25.510  0.0124 -0.0636  0.1657
98670W        W99534  13.104  24.654  24.062 -0.3713 -0.0081 -0.1495
98671W        W99535  14.332  23.323  24.806  0.1058 -0.0134  0.0913
98672W        W99536  11.926  22.056  23.589  0.0197  0.1005  0.0239
98673W        W99537  13.152  26.188  26.196  0.1801 -0.0618  0.0841
98674W        W99538  11.930  19.572  22.422 -0.2843  0.2379 -0.1303
98675W        W99539  11.981  24.329  23.153 -0.3939  0.0356  0.3337
98676W        W99540  12.331  21.433  24.810 -0.3291  0.1481  0.2955
98677W        W99541  14.364  23.497  26.318 -0.2351 -0.0771  0.0292
98678W        W99542  13.375  19.736  25.608  0.0436  0.0051 -0.0099
98679W        W99543  11.540  25.041  21.775  0.2420 -0.4340 -0.1926
98680W        W99544  14.841  25.713  21.609 -0.2179  0.1308  0.1164
98681W        W99545  13.020  21.863  21.603 -0.2694 -0.1862 -0.2490
98682W        W99546  10.307  22.004  23.054  0.2083  0.0757  0.2737
98683W        W99547  13.413  23.387  27.402 -0.0661 -0.3529  0.1026
98684W        W99548  15.116  22.109  28.228  0.0286 -0.0444 -0.1832
98685W        W99549  13.430  24.842  24.631 -0.0403  0.1974  0.0647
98686W        W99550  13.716  24.184  25.754 -0.2691 -0.1682  0.2254
98687W        W99551  13.341  24.407  26.046  0.1515 -0.1578 -0.0296
98688W        W99552  11.434  24.024  23.843 -0.2591 -0.1818  0.0903
98689W        W99553  13.196  22.876  23.580  0.0326  0.0269  0.2239
98690W        W99554  11.800  28.199  20.972  0.3541  0.1218 -0.0258
98691W        W99555  12.547  24.974  23.637 -0.0906  0.3480 -0.2462
98692W        W99556   9.624  25.272  21.813 -0.2263  0.3880 -0.0811
98693W        W99557  11.674  25.665  26.412 -0.0311 -0.0394 -0.0643
98694W        W99558  13.318  22.586  23.992 -0.3089  0.1964 -0.3460
98695W        W99559  13.370  24.698  22.861 -0.1301 -0.1948 -0.3336
98696W        W99560  12.037  24.865  21.459  0.2173  0.0322  0.1278
98697W        W99561  15.122  22.589  22.520 -0.0352 -0.0659  0.0089
98698W        W99562  13.948  21.962  24.541 -0.0358  0.1346 -0.1020
98699W        W99563  10.674  24.306  22.963  0.0278 -0.2292 -0.2149
98700W        W99564  13.855  23.481  25.536 -0.1114 -0.2851  0.0680
98701W        W99565  10.095  24.332  22.001 -0.0356  0.1030 -0.1149
98702W        W99566  12.731  22.629  25.768 -0.0090  0.2266  0.1020
98703W        W99567  13.009  23.983  21.413 -0.3368  0.2150  0.1459
98704W        W99568  15.622  26.348  22.621  0.3161  0.1859 -0.1595
98705W        W99569  12.703  25.108  22.399  0.0612 -0.0690  0.0685
98706W        W99570   9.635  22.647  24.404 -0.0368 -0.0147  0.1723
98707W        W99571  11.687  22.753  19.687 -0.2290  0.0412 -0.4545
98708W        W99572  12.412  22.335  26.010  0.2226  0.1003 -0.1139
98709W        W99573  15.586  23.687  23.318 -0.1023 -0.0226 -0.1804
98710W        W99574   8.178  18.789  22.990 -0.1363  0.0133  0.2735
98711W        W99575  12.551  25.482  25.691  0.1770 -0.0576  0.0067
98712W        W99576  12.975  23.528  25.306 -0.1523  0.1128 -0.0935
98713W        W99577  11.798  26.069  22.935  0.3369 -0.0281 -0.1455
98714W        W99578  10.698  25.143  20.724 -0.2219  0.2926  0.2297
98715W        W99579  12.635  22.411  26.639  0.0698  0.1061  0.2922
98716W        W99580  12.737  22.032  26.392 -0.1863  0.0552  0.0151
98717W        W99581  13.085  19.570  25.268 -0.0918  0.0011 -0.1316
98718W        W99582  13.842  22.130  23.094 -0.1151 -0.0802 -0.2304
98719W        W99583  15.328  22.508  23.745 -0.0097  0.3193 -0.0165
98720W        W99584  13.749  22.526  25.792  0.2258  0.0939 -0.1211
98721W        W99585  10.370  25.606  21.376  0.3222 -0.2520  0.2651
98722W        W99586  13.852  20.865  25.225  0.0588  0.1030  0.0122
98723W        W99587  11.744  22.792  21.756 -0.1552 -0.0444  0.0961
98724W        W99588  13.813  23.473  26.416 -0.3139  0.1033 -0.0262
98725W        W99589  13.091  23.692  22.857 -0.1029  0.2282  0.0405
98726W        W99590  13.606  21.307  24.997 -0.1330  0.0271  0.0415
98727W        W99591  13.106  21.917  24.868  0.1996 -0.3389  0.5326
98728W        W99592  10.280  22.470  22.193 -0.2010 -0.1022 -0.0426
98729W        W99593  10.470  26.031  27.337 -0.1390  0.0191  0.0872
98730W        W99594  13.283  22.942  24.757 -0.0807 -0.1662 -0.0015
98731W        W99595  11.341  27.414  23.903  0.1708 -0.2492  0.1241
98732W        W99596  10.207  22.731  23.257 -0.1147 -0.1961  0.0491
98733W        W99597  10.357  25.422  25.246  0.3245 -0.3818 -0.0481
98734W        W99598  11.414  20.639  25.326  0.1922  0.1308  0.0904
98735W        W99599  13.396  24.149  24.933 -0.2507  0.0034 -0.0041
98736W        W99600  16.035  20.089  25.065  0.1277 -0.1483  0.1097
98737W        W99601  12.626  25.253  24.685 -0.2201 -0.0880  0.2569
98738W        W99602  12.989  24.608  23.142 -0.3319  0.1508 -0.1109
98739W        W99603  13.466  25.379  21.208  0.0131  0.3996 -0.0776
98740W        W99604  13.715  23.414  21.132  0.1850  0.1452 -0.1931
98741W        W99605  12.471  25.014  25.953  0.3422  0.0782 -0.0214
98742W        W99606  12.062  23.901  27.218 -0.2105  0.1127 -0.1910
98743W        W99607  12.674  26.845  24.194  0.4515 -0.1231 -0.1036
98744W        W99608  13.505  23.486  20.656  0.1948  0.0747  0.0859
98745W        W99609  12.780  26.673  26.944  0.1093 -0.0391  0.2070
98746W        W99610  13.563  20.459  25.227 -0.0227  0.1683  0.1935
98747W        W99611  16.004  22.491  22.757 -0.0197 -0.1575 -0.2800
98748W        W99612  10.951  23.252  28.431 -0.1485 -0.1913 -0.1255
98749W        W99613  13.833  25.600  25.291  0.0546 -0.1071 -0.2457
98750W        W99614  13.133  23.421  24.703 -0.1867  0.0508  0.0252
98751W        W99615  15.731  23.656  23.826 -0.1031 -0.1301 -0.0089
98752W        W99616  11.324  22.177  23.144  0.4473 -0.0067 -0.0998
98753W        W99617  10.438  24.301  26.421  0.0140  0.0465  0.3420
98754W        W99618  14.393  21.986  24.786  0.1914 -0.1268  0.1946
98755W        W99619  10.762  24.179  27.508  0.2273  0.1140 -0.1727
98756W        W99620  14.755  24.733  22.662  0.0056  0.4144  0.0589
98757W        W99621  11.830  23.293  27.053  0.1727 -0.0422 -0.0420
98758W        W99622  14.392  24.738  23.588  0.1375  0.0994 -0.1003
98759W        W99623  13.400  23.636  22.418 -0.4132  0.0187  0.2512
98760W        W99624  12.825  23.343  24.279 -0.0413  0.0132 -0.0131
98761W        W99625  13.807  22.976  25.531  0.0242  0.0414  0.2578
98762W        W99626  15.850  25.428  24.346  0.3638  0.1604  0.2082
98763W        W99627  14.006  24.305  24.146  0.0370  0.0547  0.1471
98764W        W99628  12.575  23.838  24.386  0.0861 -0.1792 -0.2223
98765W        W99629  12.176  24.271  26.105  0.1231  0.1125  0.2217
98766W        W99630  10.863  22.394  21.593  0.0506  0.2428 -0.1219
98767W        W99631  11.679  25.573  25.690 -0.0400 -0.1890  0.3792
98768W        W99632  11.681  24.249  22.754  0.1500  0.0426  0.1363
98769W        W99633  13.617  25.335  25.667 -0.0198  0.0781  0.0390
98770W        W99634  11.510  25.927  25.963  0.0796 -0.0512 -0.2038
98771W        W99635  15.270  27.789  23.480  0.0729 -0.0279 -0.4075
98772W        W99636  12.022  21.616  23.244 -0.1061  0.0169 -0.0429
98773W        W99637  12.223  24.107  21.886 -0.1740 -0.1317  0.2137
98774W        W99638  13.213  24.452  23.564 -0.1275 -0.2751  0.2235
98775W        W99639  11.338   0.120  25.649  0.1901 -0.0136  0.0154
98776W        W99640  14.892  25.306  24.696  0.0302  0.2968 -0.0872
98777W        W99641   8.727  24.110  20.642  0.1592  0.1258 -0.0123
98778W        W99642  15.254  23.296  22.081 -0.2864  0.5061 -0.0519
98779W        W99643  14.600  18.732  22.784 -0.0362 -0.0572 -0.0454
98780W        W99644  11.274  20.882  23.298 -0.0921 -0.1842  0.0343
98781W        W99645  14.202  25.171  23.465 -0.0225 -0.1488  0.3289
98782W        W99646  13.477  22.019  21.958 -0.2674  0.1725  0.1338
98783W        W99647  15.372  23.797  22.130  0.3919  0.2880  0.1695
98784W        W99648  12.221  20.396  23.928 -0.1450  0.0668  0.1399
98785W        W99649  12.677  24.199  21.784  0.1364 -0.1135  0.1678
98786W        W99650  11.543  23.747  26.246 -0.0953 -0.0322  0.2553
98787W        W99651   9.795  23.968  26.767  0.2738  0.0078 -0.0511
98788W        W99652  10.436  26.770  28.128 -0.1013  0.0831  0.0345
98789W        W99653  12.963  23.650  21.029  0.2426  0.2723  0.2475
98790W        W99654  12.251  22.892  24.722 -0.1771  0.0187  0.1134
98791W        W99655  12.246  25.189  23.317 -0.0602 -0.1275 -0.1906
98792W        W99656  16.417  24.418  21.726 -0.5773  0.0279 -0.2681
98793W        W99657   9.971  23.711  22.378  0.0145  0.1699 -0.0869
98794W        W99658  11.938  23.804  24.570  0.1313  0.0154  0.1856
98795W        W99659  13.193  24.086  22.604  0.1338  0.0782 -0.1851
98796W        W99660  13.355  22.304  22.354  0.1292 -0.0843 -0.0640
98797W        W99661  11.697  26.604  25.497 -0.3332 -0.0136 -0.1441
98798W        W99662  11.963  21.797  27.631  0.2473  0.1990  0.1434
98799W        W99663  10.229  25.974  26.902 -0.2677 -0.0495 -0.0279
98800W        W99664  16.904  21.400  24.606 -0.2513  0.1637  0.0423
98801W        W99665  10.724  19.357  21.499  0.3004 -0.0466  0.2847
98802W        W99666  12.258  26.216  22.635  0.0860  0.0935  0.0253
98803W        W99667  13.683  23.443  23.670 -0.2339 -0.0605  0.2072
98804W        W99668  13.024  21.460  21.890  0.1469 -0.2056  0.0402
98805W        W99669  12.175  22.486  20.954  0.1497 -0.0640 -0.3162
98806W        W99670  12.222  26.476  24.905 -0.2265  0.2904  0.0118
98807W        W99671  14.274  22.228  22.577 -0.1362 -0.0698  0.0442
98808W        W99672  13.155  22.175  26.226 -0.0693  0.2132  0.0553
98809W        W99673  14.642  22.469  25.380 -0.0212 -0.1961  0.1771
98810W        W99674  11.977  22.303  25.714  0.0343 -0.1421  0.1378
98811W        W99675  14.200  21.482  22.302 -0.2216  0.1918  0.1392
98812W        W99676  15.088  24.418  23.188  0.2457  0.1133  0.0020
98813W        W99677  12.536  23.262  22.243  0.0655 -0.0551 -0.0721
98814W        W99678  13.540  22.942  22.940 -0.3421 -0.2429  0.0550
98815W        W99679  13.961  23.652  25.089  0.0700  0.1257  0.0076
98816W        W99680  10.807  24.007  23.377  0.0477 -0.0391  0.1786
98817W        W99681  10.171  22.427  24.700 -0.2563 -0.2389  0.1709
98818W        W99682  13.175  21.803  22.286  0.0646 -0.0954  0.1905
98819W        W99683  13.418  20.877  25.549 -0.0311  0.0117 -0.4021
98820W        W99684  16.594  26.331  25.535 -0.0461  0.2538 -0.0654
98821W        W99685  14.323  20.437  25.773 -0.1963  0.1301 -0.2963
98822W        W99686  11.034  24.940  21.779  0.2110 -0.2574  0.0601
98823W        W99687  13.226  24.960  22.376 -0.0317  0.0854  0.1377
98824W        W99688  10.667  23.239  26.264 -0.1690  0.0048 -0.0907
98825W        W99689  11.605  26.789  26.080 -0.1262 -0.0907  0.3764
98826W        W99690  12.698  22.797  21.030  0.1743  0.0147  0.0605
98827W        W99691  14.623  23.423  23.315 -0.0536  0.3155 -0.1062
98828W        W99692  13.080  25.824  23.818  0.3263  0.1554 -0.0323
98829W        W99693  14.332  27.089  25.452  0.0156  0.2571  0.0062
98830W        W99694  13.112  21.407  23.634  0.0274  0.1501  0.0484
98831W        W99695  13.098  21.912  24.296  0.0598  0.2101  0.2728
98832W        W99696  11.068  24.063  22.115 -0.0133 -0.0890  0.3856
98833W        W99697  12.912  20.979  23.241  0.2997  0.0268  0.0914
98834W        W99698  12.481  22.601  24.328  0.1538  0.4281 -0.2067
98835W        W99699  11.992  23.155  23.378 -0.0665  0.2015  0.2115
98836W        W99700  13.029  27.125  24.979 -0.0984  0.0456 -0.0252
98837W        W99701  12.002  26.086  23.721 -0.0139  0.0099 -0.0217
98838W        W99702  10.394  25.596  25.951  0.2178 -0.0964 -0.3958
98839W        W99703  10.543  22.757  23.684  0.0889 -0.2370 -0.2231
98840W        W99704  12.747  23.208  23.714  0.2153  0.4274  0.4292
98841W        W99705  14.627  27.063  23.867  0.3581 -0.0115  0.1052
98842W        W99706   9.923  23.693  23.338  0.1114 -0.0129 -0.0562
98843W        W99707  11.389  26.119  22.567 -0.0332  0.1331  0.3423
98844W        W99708  15.380  24.960  20.864 -0.2435  0.4520  0.2563
98845W        W99709  11.635  26.466  27.010  0.1329 -0.1369 -0.0816
98846W        W99710  14.297  24.145  23.772 -0.1068 -0.2046  0.1008
98847W        W99711  13.651  22.664  24.511  0.0489 -0.0007  0.1507
98848W        W99712  12.552  23.848  25.259  0.2877 -0.0803 -0.3515
98849W        W99713  13.875  20.960  21.577 -0.1249 -0.2932 -0.1991
98850W        W99714  12.374  23.409  24.585 -0.0657  0.0374 -0.1134
98851W        W99715  10.170  22.679  19.564  0.0059 -0.0748 -0.0912
98852W        W99716  12.693  22.917  21.526  0.3849  0.0173  0.4525
98853W        W99717  11.846  21.877  25.531  0.0611 -0.0561 -0.2200
98854W        W99718  12.062  21.187  22.654 -0.0595 -0.0829 -0.0235
98855W        W99719  16.015  24.504  27.277 -0.1826 -0.0264 -0.0467
98856W        W99720  11.482  25.070  25.814  0.1026 -0.0308  0.0749
98857W        W99721  12.213  25.715  24.100 -0.3292 -0.1063  0.3085
98858W        W99722  10.636  28.042  22.119 -0.1093  0.2963  0.2900
98859W        W99723  17.071  23.336  23.986 -0.0628 -0.2147  0.2329
98860W        W99724  14.601  22.920  25.056 -0.2293  0.1440 -0.1181
98861W        W99725  14.700  24.248  23.486  0.0227  0.0218 -0.1831
98862W        W99726  12.393  23.133  24.102 -0.1114  0.2742 -0.1546
98863W        W99727  14.286  24.208  27.562  0.3056  0.1001  0.1289
98864W        W99728  12.294  22.975  22.957  0.1821  0.2044  0.2193
98865W        W99729  13.812  24.404  22.895 -0.0633 -0.1863  0.0422
98866W        W99730  10.858  24.269  20.842 -0.2679 -0.0210  0.2881
98867W        W99731  12.894  23.350  21.817  0.2635  0.0217  0.1344
98868W        W99732  11.205  20.826  22.765 -0.2458 -0.0760  0.0576
98869W        W99733  12.645  22.072  24.461 -0.0253 -0.0034  0.2032
98870W        W99734  11.219  22.038  22.689 -0.1774 -0.1549 -0.1474
98871W        W99735   9.969  21.257  24.803 -0.2247 -0.0913 -0.3854
98872W        W99736  11.484  25.225  25.319 -0.2069 -0.1621  0.2453
98873W        W99737  14.963  21.676  22.827 -0.1433  0.2104 -0.0896
98874W        W99738  14.466  23.033  23.995  0.2478  0.2387 -0.0327
98875W        W99739  16.115  24.733  21.421  0.0753  0.3028 -0.0328
98876W        W99740  15.020  24.076  25.118  0.0842 -0.1708 -0.1420
98877W        W99741  10.698  21.309  21.999 -0.1669 -0.1157  0.0148
98878W        W99742  11.504  28.400  24.591 -0.2510 -0.0807  0.1154
98879W        W99743  10.753  24.123  26.715  0.1173 -0.0351 -0.2860
98880W        W99744  14.636  20.834  26.031 -0.1187  0.1481 -0.0215
98881W        W99745  10.195  25.289  20.976  0.1495 -0.2096 -0.0721
98882W        W99746  11.581  22.399  22.660 -0.0530  0.1768 -0.0889
98883W        W99747  12.551  24.231  27.099  0.0107 -0.3776 -0.0181
98884W        W99748  15.185  23.436  25.604 -0.0234  0.0143  0.3302
98885W        W99749  16.491  21.431  25.868  0.3324 -0.0549  0.0505
98886W        W99750  13.013  24.896  23.615 -0.1167 -0.2896  0.2529
98887W        W99751  12.362  24.246  22.718  0.2727 -0.2880 -0.0857
98888W        W99752  13.975  24.884  24.597  0.0104 -0.0461  0.1775
98889W        W99753  10.265  23.311  25.777  0.0769  0.4334  0.2579
98890W        W99754  13.389  20.667  24.427 -0.0242 -0.3327 -0.1472
98891W        W99755  15.394  24.518  24.729  0.1181  0.0716  0.2184
98892W        W99756  11.374  20.938  19.698  0.1433  0.2423  0.2836
98893W        W99757  15.251  23.764  23.719 -0.0288  0.2694  0.1824
98894W        W99758  11.481  21.700  23.157  0.0625 -0.1518 -0.0380
98895W        W99759  13.490  21.389  26.165  0.3386  0.0354 -0.0682
98896W        W99760  13.285  24.406  22.263  0.0128  0.2291 -0.0379
98897W        W99761  12.581  22.894  26.506  0.1290  0.1543 -0.0720
98898W        W99762  12.756  25.017  24.058 -0.0807 -0.0041  0.0590
98899W        W99763  13.902  28.308  26.105 -0.2918  0.1449  0.0671
98900W        W99764  11.805  22.662   1.023 -0.1223  0.1373  0.1212
98901W        W99765  13.360  25.013  25.365 -0.1786  0.2978 -0.2811
98902W        W99766  13.353  24.508  25.421 -0.1886 -0.0294 -0.1962
98903W        W99767  11.328  24.388  25.041 -0.2047 -0.0583  0.0097
98904W        W99768  12.447  22.427  25.431 -0.2334  0.3183  0.0604
98905W        W99769  14.355  24.479  26.344  0.1829  0.0238 -0.1593
98906W        W99770  15.531  23.199  24.988 -0.3472  0.2288 -0.1008
98907W        W99771  14.811  23.389  23.807 -0.2010 -0.0156  0.1946
98908W        W99772  14.538  24.470  24.010  0.0852 -0.0399  0.1175
98909W        W99773  13.892  26.417  24.098 -0.0513 -0.0102 -0.3168
98910W        W99774  12.552  25.549  22.562 -0.2047  0.3516 -0.0527
98911W        W99775  13.469  21.614  24.604 -0.3248 -0.0701 -0.0791
98912W        W99776  12.442  25.401  25.164  0.5099  0.0838  0.6509
98913W        W99777  11.843  25.394  24.821  0.2287  0.0551 -0.1140
98914W        W99778  13.599  24.621  23.319 -0.2534 -0.4493  0.0340
98915W        W99779  13.461  24.840  23.761  0.1738 -0.2355  0.3864
98916W        W99780  14.483  23.420  24.306 -0.0258  0.0480 -0.1248
98917W        W99781  12.919  22.610  26.255 -0.2072 -0.0778 -0.1596
98918W        W99782  13.243  25.131  23.217 -0.0305 -0.0505 -0.2004
98919W        W99783  13.709  25.101  26.710  0.2607 -0.3359  0.1940
98920W        W99784  13.665  24.264  20.387 -0.2846  0.1959  0.1551
98921W        W99785  12.077  22.334  21.812  0.4312  0.0211  0.1300
98922W        W99786  11.430  26.174   0.591  0.0676 -0.0386  0.0517
98923W        W99787  11.516  25.594  28.853 -0.0222 -0.0407 -0.2249
98924W        W99788  13.491  23.672  28.084 -0.1281  0.0085 -0.1939
98925W        W99789  15.131  24.812   0.285  0.2128  0.0906  0.2301
98926W        W99790  11.617  26.194  27.928  0.0664 -0.1355  0.0630
98927W        W99791  11.333  26.850  25.019  0.0242 -0.2293  0.1574
98928W        W99792  10.574  27.178  26.089 -0.0505  0.1454  0.0096
98929W        W99793  13.023  24.104  25.267  0.0806 -0.1552  0.3630
98930W        W99794  13.445  24.775   0.999 -0.1055 -0.0680 -0.1451
98931W        W99795  11.484  24.407  27.951  0.0750 -0.0162  0.0061
98932W        W99796  12.454  22.597   1.030  0.0121 -0.0874 -0.1156
98933W        W99797  12.080  22.391  26.369 -0.0976  0.1121  0.0591
98934W        W99798  12.621  23.175  25.075 -0.1118  0.1443 -0.0747
98935W        W99799  14.122  27.229  28.823  0.0105  0.0250 -0.2920
98936W        W99800  11.243  22.636  27.061 -0.2858 -0.1673 -0.0867
98937W        W99801  11.906  26.516   0.086 -0.1894  0.2336 -0.0096
98938W        W99802  12.588  25.582  26.673  0.0666 -0.0472 -0.2829
98939W        W99803  10.145  21.682  27.653 -0.3230 -0.0558  0.0221
98940W        W99804   9.163  23.980  28.221 -0.0635 -0.1938  0.3301
98941W        W99805  12.907  24.917  27.776  0.0726  0.1410 -0.0651
98942W        W99806  12.295  26.056   0.643 -0.2077 -0.0501  0.3818
98943W        W99807  11.633  24.201   0.877 -0.0574 -0.2686 -0.3090
98944W        W99808  12.524  23.160  28.426 -0.0585 -0.0525  0.1257
98945W        W99809  13.670  25.298  26.226  0.1936 -0.0096 -0.1614
98946W        W99810   6.807  25.875   0.080  0.1607 -0.0063 -0.2159
98947W        W99811  12.635  25.069  28.899 -0.2049 -0.3905 -0.3471
98948W        W99812  16.553  25.299  28.850 -0.0070 -0.3258  0.1588
98949W        W99813   9.867  26.317  27.327 -0.2427  0.0790  0.1614
98950W        W99814  13.612  24.191  28.354 -0.0221  0.0146  0.0767
98951W        W99815  11.764  21.866  28.830  0.0585  0.1914  0.0888
98952W        W99816  13.413  25.478  27.258  0.0427 -0.0905  0.2205
98953W        W99817  13.240  25.723   1.919  0.1441  0.2267 -0.1648
98954W        W99818  10.356  25.519  27.522 -0.0952  0.0923  0.1004
98955W        W99819  14.042  24.605   0.993 -0.1533  0.0472 -0.1902
98956W        W99820   7.972  25.042   0.043  0.1925  0.0812  0.3277
98957W        W99821  13.371  25.522   0.922 -0.4352  0.3359  0.3037
98958W        W99822  10.431  23.742  28.370  0.0243 -0.1346  0.1419
98959W        W99823  11.081  25.520  29.118  0.0729 -0.1482 -0.1475
98960W        W99824  14.776  25.226   0.345  0.0419 -0.1950 -0.0946
98961W        W99825  12.705  24.196  28.576 -0.1236 -0.0687  0.1806
98962W        W99826  13.750  21.670  24.186 -0.2840  0.0737  0.1454
98963W        W99827  15.149  25.665   1.307  0.0315  0.0569 -0.3122
98964W        W99828  11.554  24.960  28.703  0.3404 -0.0111 -0.1297
98965W        W99829  12.805  25.740  27.445  0.0179  0.1083  0.0091
98966W        W99830   9.954  26.062  24.721 -0.0131 -0.3150  0.0510
98967W        W99831  13.007  27.152  28.827  0.1004  0.2609 -0.0817
98968W        W99832  12.294  23.414  28.972 -0.1936 -0.3096  0.2875
98969W        W99833  10.855  25.547  27.450  0.1793  0.1095  0.1524
98970W        W99834  13.105  26.687  26.129 -0.0982  0.1330  0.1282
98971W        W99835  12.289  25.604  27.604 -0.1468  0.1032 -0.1315
98972W        W99836  12.171  24.190  28.334  0.1096 -0.2366  0.2722
98973W        W99837  12.426  23.995  27.520  0.1150 -0.1951  0.2213
98974W        W99838  12.287  25.390  28.826  0.0646 -0.1487 -0.0687
98975W        W99839  12.976  23.566  26.031 -0.1907 -0.1785  0.0701
98976W        W99840  11.247  24.021  27.712 -0.4271  0.2063 -0.0053
98977W        W99841  12.235  26.757  24.479 -0.1135  0.3072  0.1969
98978W        W99842  10.604  20.820  25.338 -0.1101  0.1311  0.0683
98979W        W99843   9.634  24.888  26.674  0.1024  0.1328  0.4169
98980W        W99844   9.247  27.265  26.322 -0.0981 -0.0136  0.0244
98981W        W99845  11.745  26.301  25.070  0.0137 -0.2645  0.1207
98982W        W99846  12.515  25.206  28.370  0.0864 -0.1149  0.1386
98983W        W99847  10.627  27.836  27.379 -0.2954  0.4011  0.1136
98984W        W99848  10.959  24.637  25.691  0.0868 -0.0700  0.3532
98985W        W99849  13.904  25.314  28.257  0.0847 -0.2663  0.4114
98986W        W99850  14.247  25.231  25.616  0.0414 -0.1647  0.3499
98987W        W99851  12.827  22.856   0.133 -0.0536 -0.1654 -0.1589
98988W        W99852  11.198  24.162  22.960  0.0357 -0.0493 -0.1592
98989W        W99853   9.741  25.357  26.450 -0.0771 -0.0422 -0.1079
98990W        W99854  10.052  25.432  26.979 -0.0465 -0.3929  0.1670
98991W        W99855  11.900  27.503  27.180 -0.0668  0.1793 -0.0124
98992W        W99856  13.456  25.562  28.531  0.0941  0.0797 -0.3922
98993W        W99857  16.216  21.360  27.483 -0.0519 -0.2567  0.1627
98994W        W99858  12.154  25.745  26.674 -0.0482 -0.1253  0.0175
98995W        W99859  11.800  23.854   0.522 -0.0902  0.2375  0.0105
98996W        W99860  13.205  24.049  25.695  0.3628  0.3178 -0.5226
98997W        W99861  10.362  25.643  28.017 -0.3326  0.1977 -0.1248
98998W        W99862  12.367  24.556  25.734 -0.0490  0.1531 -0.1700
98999W        W99863  12.574  28.032  26.987 -0.2254  0.1971  0.1585
99000W        W99864   9.486  25.586  28.951  0.1139  0.1807  0.0835
99001W        W99865  12.304  24.648  26.852  0.0407  0.0914 -0.4551
99002W        W99866  11.451  23.179  28.771  0.2274 -0.0066 -0.0075
99003W        W99867  12.344  21.309   1.733 -0.0629 -0.3347  0.0797
99004W        W99868  11.556  22.230  26.355  0.0289 -0.2878  0.0076
99005W        W99869  11.068  22.355  28.060 -0.1630 -0.0654  0.3182
99006W        W99870  10.672  22.209   1.379 -0.1711 -0.1102  0.0966
99007W        W99871  12.896  23.127  25.618  0.0353 -0.0879 -0.0391
99008W        W99872  16.956  23.835  28.466 -0.2132 -0.2282  0.0851
99009W        W99873  13.314  21.991  28.848  0.0662  0.1253  0.0280
99010W        W99874  13.624  26.459  28.939 -0.1293  0.0653  0.0459
99011W        W99875  11.687  22.496  26.778  0.1380  0.0683  0.3463
99012W        W99876  14.620  25.092  26.479  0.1851  0.1217  0.2383
99013W        W99877  16.453  21.954   2.030 -0.1321 -0.2190 -0.1833
99014W        W99878  12.545  27.088  29.067 -0.4113  0.0403  0.1691
99015W        W99879  11.835  24.823  26.790 -0.2816 -0.5827  0.2000
99016W        W99880  11.441  23.080  28.270  0.1228 -0.0071 -0.1063
99017W        W99881  12.229  24.893  28.147  0.0409 -0.0736 -0.1879
99018W        W99882  13.486  23.183  26.624 -0.2560  0.3492  0.0828
99019W        W99883  12.937  26.419  28.331 -0.0920 -0.2606 -0.0834
99020W        W99884  11.685  21.596  24.343  0.2331 -0.2477 -0.0513
99021W        W99885  14.020  24.878  26.362 -0.2568  0.2673  0.2184
99022W        W99886  13.453  23.822  25.342 -0.2809 -0.1412  0.2074
99023W        W99887   9.701  24.716  27.855  0.0913 -0.1921 -0.0274
99024W        W99888  13.211  21.405  27.118 -0.1438  0.1692  0.1015
99025W        W99889  11.059  25.036  27.493  0.0836 -0.2812  0.0644
99026W        W99890  15.419  23.644  27.757  0.2068  0.0376  0.0633
99027W        W99891  12.240  26.917  28.490  0.0072 -0.2495  0.2284
99028W        W99892  12.759  24.929  26.926  0.0480 -0.0099 -0.1747
99029W        W99893  11.052  23.379   1.430  0.2007 -0.0392 -0.0587
99030W        W99894  12.657  21.383  26.380 -0.1680 -0.1726 -0.2750
99031W        W99895   9.366  24.138  27.066  0.1689  0.1414  0.2448
99032W        W99896  15.003  28.597  28.080 -0.0971  0.0607  0.0198
99033W        W99897  13.458  25.824  25.610 -0.0815  0.2689  0.0081
99034W        W99898  16.802  24.284   0.665 -0.1161 -0.2603 -0.1635
99035W        W99899  16.369  24.966  27.531 -0.0387 -0.1647 -0.3372
99036W        W99900  13.032  27.231  25.467 -0.2416  0.0002 -0.2848
99037W        W99901  12.679  23.703  27.169 -0.1838  0.0769 -0.3010
99038W        W99902  13.553  22.591  28.529  0.0374  0.2595  0.1647
99039W        W99903  12.416  24.689  28.552 -0.2007 -0.2145 -0.3792
99040W        W99904  13.410  24.098  27.862 -0.1789 -0.0461 -0.1008
99041W        W99905  12.808  22.433   0.367 -0.1001  0.0335 -0.0859
99042W        W99906  13.186  26.897  26.660  0.0739 -0.0766  0.2023
99043W        W99907  12.319  26.496  27.256 -0.2530 -0.2193 -0.2429
99044W        W99908  11.362  25.451  26.098 -0.1544 -0.3157  0.0482
99045W        W99909   9.222  27.454  25.111  0.0355 -0.0405  0.1207
99046W        W99910  12.112  28.217  25.906  0.2303  0.1371  0.2439
99047W        W99911  13.064  24.337  27.009  0.0719  0.0202  0.0468
99048W        W99912  11.012  23.802  26.389 -0.0650 -0.2864 -0.0791
99049W        W99913  14.737  24.481   1.221  0.2585  0.2720 -0.2830
99050W        W99914  13.040  27.423  27.917  0.1452  0.1809 -0.1442
99051W        W99915   9.752  26.258  26.826 -0.2602 -0.1443 -0.1919
99052W        W99916  15.056  27.471  28.823  0.1509 -0.1025  0.0625
99053W        W99917  11.873  25.450  27.235 -0.0861 -0.0236  0.3334
99054W        W99918  10.764  23.992  29.054  0.0956 -0.1641  0.0181
99055W        W99919  13.553  22.928  27.516  0.0913 -0.1461  0.1760
99056W        W99920  15.536  25.375  27.764 -0.0686 -0.1597  0.1719
99057W        W99921  10.169  24.378   0.328  0.1058 -0.1211  0.1963
99058W        W99922  12.043  24.354   0.265  0.0126  0.0203 -0.2148
99059W        W99923  15.797  24.816  25.952 -0.2362  0.0061 -0.0453
99060W        W99924  11.827  25.910  27.533 -0.0038 -0.0292  0.0467
99061W        W99925  12.109  27.935  26.898  0.1767 -0.0012 -0.0304
99062W        W99926  11.721  22.760  28.591  0.1131  0.2110  0.1553
99063W        W99927  13.074  22.525  27.068  0.0178  0.0535 -0.0887
99064W        W99928  10.715  26.897  27.154 -0.2680  0.2434 -0.0513
99065W        W99929  11.177  25.511  25.628 -0.0446 -0.1630 -0.0304
99066W        W99930  16.591  24.915   1.326 -0.0003 -0.1289 -0.1647
99067W        W99931  12.369  21.948   0.907  0.0027  0.0643  0.0866
99068W        W99932  13.804  24.830  25.708  0.0155  0.2864 -0.0314
99069W        W99933  11.279  26.698  27.385 -0.1485 -0.2170 -0.0854
99070W        W99934  12.985  24.633   0.638  0.3351 -0.0471 -0.0261
99071W        W99935  12.885  24.911  28.530  0.2811  0.0671  0.4087
99072W        W99936  13.588  25.624  28.024 -0.3122 -0.1497 -0.0364
99073W        W99937   7.091  24.606  26.512 -0.0302  0.2570  0.1732
99074W        W99938   8.717  25.790  26.737 -0.1340 -0.0042  0.0523
99075W        W99939  12.790  22.080  27.597  0.0698  0.0729  0.0906
99076W        W99940  14.068  25.814  26.922 -0.3862 -0.0713  0.2492
99077W        W99941  13.900  24.427  26.645  0.3098  0.0571 -0.1171
99078W        W99942   8.051  23.518   0.745  0.0526  0.0477 -0.1521
99079W        W99943  12.740  24.990  25.542 -0.1852  0.1158  0.0722
99080W        W99944  10.841  23.772  27.952 -0.0002 -0.0753  0.0844
99081W        W99945  12.922  26.125  27.824  0.1852  0.1742 -0.2956
99082W        W99946  10.341  26.285  28.185 -0.0608 -0.4922 -0.1545
99083W        W99947  12.812  26.659   0.006 -0.0056 -0.0174  0.1338
99084W        W99948  11.606  23.703   0.990  0.3749  0.1691 -0.0885
99085W        W99949  12.096  23.765   0.097 -0.0250  0.0735 -0.0094
99086W        W99950  12.481  22.748  27.947  0.0738  0.2366  0.0321
99087W        W99951  10.254  24.085  27.468  0.0293  0.2813 -0.3196
99088W        W99952  11.015  23.659  26.839  0.2816  0.3139 -0.2846
99089W        W99953  11.297  27.617  26.154 -0.0438 -0.1588  0.0932
99090W        W99954  13.852  25.554   0.639  0.0003  0.2694  0.1472
99091W        W99955  12.677  26.635  26.438 -0.0690 -0.0747 -0.0098
99092W        W99956  11.370  25.493  27.352  0.0272  0.0959 -0.1231
99093W        W99957  12.990  23.096   0.598  0.1813  0.1416 -0.2107
99094W        W99958  10.853  25.083  28.339 -0.0807 -0.0521  0.2010
99095W        W99959  14.404  28.434  25.826  0.2902 -0.2639 -0.0194
99096W        W99960  11.942  23.257  27.598  0.1265 -0.2784 -0.1428
99097W        W99961  16.458  22.303  26.447 -0.2164 -0.1748 -0.3359
99098W        W99962  11.364  26.736   1.112  0.0036 -0.0453  0.0753
99099W        W99963  11.616  23.891  28.022 -0.2450 -0.2834 -0.1824
99100W        W99964   9.280  28.113  24.164 -0.2661  0.0192 -0.0207
99101W        W99965   9.027  23.613   0.100  0.0879 -0.1400  0.2501
99102W        W99966  12.039  26.926  27.137  0.1438  0.1693 -0.1377
99103W        W99967  14.917  23.483  27.637  0.2248 -0.1815  0.1624
99104W        W99968  10.274  26.781  25.032  0.1863 -0.0048 -0.1784
99105W        W99969  12.358  21.906  26.791  0.0252 -0.5330 -0.2054
99106W        W99970  11.683  21.498   0.491 -0.1162 -0.2879  0.1982
99107W        W99971  14.025  23.852   0.077  0.0734  0.2948  0.2166
99108W        W99972  12.889  21.414  28.074 -0.1132 -0.1402  0.0003
99109W        W99973  12.717  20.532  27.112  0.0189  0.1881  0.0503
99110W        W99974  11.464  23.600  28.515  0.1467  0.4186  0.0074
99111W        W99975   9.557  24.916  28.860  0.0278  0.0526 -0.1714
99112W        W99976  11.701  26.338  24.532  0.3317  0.1382  0.3399
99113W        W99977   9.080  23.163  27.670  0.0929  0.3803 -0.2102
99114W        W99978  11.738  24.672   0.042  0.0650  0.0282 -0.0992
99115W        W99979  10.603  22.338   0.005 -0.1949  0.1456  0.0052
99116W        W99980  12.883  23.952  26.782 -0.5543 -0.1464 -0.1029
99117W        W99981  12.541  22.170  28.487 -0.1783  0.0704  0.0140
99118W        W99982  14.174  24.056  24.718  0.2421  0.4157 -0.1182
99119W        W99983  10.942  21.936   1.001  0.3176  0.1730  0.0260
99120W        W99984  11.233  25.342  27.906 -0.0755  0.3845 -0.0002
99121W        W99985  15.763  24.454  26.885 -0.0107  0.0433  0.1081
99122W        W99986  12.186  25.179  26.976 -0.0577  0.1818  0.1522
99123W        W99987  15.760  24.480  26.317  0.0825  0.0702  0.0233
99124W        W99988  14.108  20.358  25.306  0.1303  0.3109 -0.0993
99125W        W99989  11.930  23.733  27.692  0.1100  0.1828  0.0064
99126W        W99990  11.626  18.657  28.369 -0.1951  0.0477 -0.0445
99127W        W99991  13.025  20.567  25.772 -0.0344 -0.0826 -0.2170
99128W        W99992   9.882  25.539  27.871  0.3323 -0.0372 -0.2843
99129W        W99993  12.132  23.462  25.951 -0.0303  0.0542  0.1871
99130W        W99994  12.157  27.134  24.883  0.0293  0.1595 -0.0585
99131W        W99995  12.096  25.087  26.438 -0.0223 -0.1635 -0.0465
99132W        W99996  13.875  25.180   2.780 -0.0150 -0.1380 -0.1326
99133W        W99997  14.033  22.080   0.058  0.0061 -0.0817  0.0795
99134W        W99998  12.815  23.359  27.491  0.1259 -0.1057 -0.1857
99135W        W99999  13.058  25.148  28.174 -0.2110  0.2642 -0.2234
99136W        W    0  12.693  27.139  28.403 -0.1531 -0.2231 -0.1285
99137W        W    1  12.904  24.822  26.094  0.0510  0.1299  0.3026
99138W        W    2  13.400  26.304  25.754 -0.3736 -0.0165  0.0730
99139W        W    3  14.132  25.938   0.573 -0.1589  0.1320 -0.2828
99140W        W    4  12.657  24.738   2.410 -0.1952  0.1661  0.0652
99141W        W    5  11.778  20.001   3.084 -0.1155  0.1695  0.2334
99142W        W    6  13.152  24.796  28.974 -0.3005 -0.1337  0.0807
99143W        W    7  11.645  25.911   0.988  0.0995  0.0774  0.0811
99144W        W    8  12.422  23.755  26.768 -0.1239 -0.0577  0.2659
99145W        W    9  11.678  22.462  25.316  0.1138  0.1250  0.3459
99146W        W   10   9.883  24.425   2.643  0.2822 -0.1107  0.0081
99147W        W   11  12.520  24.499   0.492  0.3331 -0.1391 -0.1612
99148W        W   12  15.409  24.125   0.626  0.1040 -0.1898  0.2666
99149W        W   13  15.847  24.000  25.360  0.0547  0.1458 -0.0257
99150W        W   14  13.352  26.318  27.435  0.0999 -0.1394 -0.0227
99151W        W   15  10.885  22.246  26.832 -0.1803  0.3240 -0.1304
99152W        W   16  10.002  23.443   0.590  0.1676  0.1048  0.1097
99153W        W   17  11.842  24.210  24.907 -0.0768  0.3404  0.0698
99154W        W   18  13.916  26.189  26.106 -0.1194  0.1296  0.0696
99155W        W   19  11.671  24.136  27.437  0.1840 -0.0886  0.1167
99156W        W   20  12.061  25.298  25.451 -0.0218 -0.4566  0.0143
99157W        W   21  13.266  22.226  25.732 -0.0050 -0.1115 -0.1632
99158W        W   22  11.930  22.632   0.086  0.4419  0.0655  0.4006
99159W        W   23  11.823  24.729  26.110  0.0706 -0.1904  0.1258
99160W        W   24  15.076  25.456  27.897  0.1398 -0.2347 -0.0038
99161W        W   25  15.306  24.508  26.584  0.5811  0.0154 -0.3070
99162W        W   26  12.090  24.423   2.979  0.2448  0.2105  0.0048
99163W        W   27  11.116  22.211  27.410  0.2135  0.0712  0.0656
99164W        W   28  11.124  23.228  27.606 -0.1561  0.0104  0.1497
99165W        W   29  11.139  23.762   0.621  0.0543  0.0313 -0.0589
99166W        W   30  12.145  25.684  25.838 -0.1555  0.1624 -0.1812
99167W        W   31  13.835  25.751  27.425 -0.0126 -0.4123  0.1053
99168W        W   32  12.897  26.081   1.806 -0.1416 -0.1242  0.0135
99169W        W   33  12.973  28.812  26.847 -0.1108 -0.3008  0.0470
99170W        W   34  12.228  22.813  28.706 -0.0674  0.0308 -0.0727
99171W        W   35  12.920  25.862  25.907  0.1082  0.0064 -0.1107
99172W        W   36  12.306  28.742   1.414 -0.0071  0.1700 -0.1371
99173W        W   37  14.410  25.244  28.640  0.0184 -0.0538 -0.0290
99174W        W   38  13.918  27.576   1.353 -0.1290  0.0716 -0.1127
99175W        W   39  12.513  26.160  26.795 -0.1894 -0.1294  0.0345
99176W        W   40  12.354  27.078  26.592  0.0412  0.1846  0.1722
99177W        W   41  15.202  22.134  24.526  0.1453 -0.0026  0.1737
99178W        W   42  13.093  22.848  28.335 -0.0775 -0.3040  0.1030
99179W        W   43  14.896  25.522  26.741 -0.0180 -0.0070  0.4354
99180W        W   44  15.085  23.798  26.542 -0.1012 -0.0623  0.2416
99181W        W   45  12.735  24.019  25.724 -0.0694 -0.0428  0.0908
99182W        W   46  12.440  24.157   0.006 -0.0790  0.0404  0.1885
99183W        W   47  13.008  25.347  29.117 -0.3636  0.1233 -0.1323
99184W        W   48  10.782  24.813   2.043  0.0713 -0.1264 -0.0485
99185W        W   49  13.315  27.732  28.776  0.2286  0.4282 -0.2142
99186W        W   50  11.939  27.579   0.476 -0.0384 -0.2114  0.3802
99187W        W   51  11.981  27.611  24.832 -0.1850  0.0603 -0.1297
99188W        W   52  14.291  28.168  25.366  0.1702  0.1115  0.1567
99189W        W   53  10.557  24.794  27.731  0.1788  0.1427 -0.2059
99190W        W   54  14.866  21.160  25.749  0.2919  0.3492  0.3032
99191W        W   55  12.784  24.616  27.348 -0.1912  0.2146 -0.0514
99192W        W   56  13.364  24.755  27.682 -0.0378  0.6287 -0.3266
99193W        W   57  12.017  24.401  28.781 -0.0727 -0.0587 -0.0303
99194W        W   58  10.247  24.290  28.617  0.3052 -0.1741 -0.1908
99195W        W   59  15.980  24.808  26.593 -0.0667 -0.0223  0.1051
99196W        W   60  14.579  23.968  28.699 -0.3708  0.1646 -0.0234
99197W        W   61   9.630  23.386  26.467  0.2910 -0.1384 -0.2618
99198W        W   62  10.989  24.913  26.472 -0.3047 -0.0546 -0.1012
99199W        W   63  13.698  22.170  26.846 -0.2465 -0.0156  0.1858
99200W        W   64  11.124  24.266   0.593  0.0535  0.3118 -0.1800
99201W        W   65  13.704  24.908  27.343 -0.1526 -0.0628 -0.2453
99202W        W   66  13.112  23.491  27.038  0.2246  0.0625  0.2101
99203W        W   67  11.532  24.941  27.787 -0.1400 -0.2102  0.0066
99204W        W   68  12.369  24.665  26.328  0.2598  0.1777  0.0483
99205W        W   69  15.917  23.934  26.118 -0.4406 -0.0644 -0.0656
99206W        W   70  12.786  24.357   1.034  0.0397  0.1370  0.2318
99207W        W   71  12.496  25.163  27.732 -0.1548  0.0277 -0.0568
99208W        W   72  10.398  22.248  26.981 -0.0719  0.0281 -0.0043
99209W        W   73  14.221  22.496  23.042  0.1265  0.0061  0.0930
99210W        W   74  13.439  24.794  26.327  0.0157 -0.0805  0.0342
99211W        W   75   9.461  26.966  25.479  0.0941  0.1788 -0.0701
99212W        W   76  13.718  21.822  26.425  0.2166  0.1708  0.1149
99213W        W   77  14.629  25.206  25.926  0.2498 -0.0860  0.1540
99214W        W   78  11.155  24.398   0.077  0.0795  0.0860  0.0235
99215W        W   79  12.866  26.337  25.786 -0.0783  0.1599 -0.1081
99216W        W   80  16.278  23.260  28.297 -0.0564  0.2140  0.1675
99217W        W   81  12.551  25.954  25.553 -0.0023 -0.1338 -0.0373
99218W        W   82  14.046  23.317  28.460 -0.1043  0.1166 -0.0984
99219W        W   83  12.326  24.686  29.088  0.1961  0.1816 -0.1007
99220W        W   84  13.007  28.465  26.377  0.0443 -0.1063 -0.0912
99221W        W   85  10.928  24.296  27.962  0.0742  0.0261 -0.1470
99222W        W   86  10.332  23.586   0.235 -0.1730  0.0891 -0.0484
99223W        W   87  13.421  23.867   0.125 -0.0204  0.0925  0.0327
99224W        W   88  13.059  25.417  26.927  0.0182  0.1772  0.5243
99225W        W   89  13.784  22.962  23.656  0.1119 -0.2115  0.1313
99226W        W   90  15.656  26.948  28.242 -0.1170  0.0753  0.1103
99227W        W   91  13.698  23.549  28.938 -0.0958 -0.2819  0.0605
99228W        W   92  14.956  24.309  28.528 -0.1255 -0.0572  0.1272
99229W        W   93  12.094  25.879  27.963 -0.0492  0.0896 -0.1208
99230W        W   94   8.316  27.275  26.537  0.0745  0.2622  0.0411
99231W        W   95   8.964  24.092  25.409 -0.0953 -0.0396 -0.1836
99232W        W   96  11.985  25.775  28.936  0.0759 -0.0380  0.0501
99233W        W   97  11.516  22.999  27.804 -0.1695 -0.1623  0.3228
99234W        W   98  11.795  25.028   1.103 -0.0989 -0.5251 -0.0188
99235W        W   99  12.361  26.531   0.404 -0.0367 -0.1027 -0.1541
99236W        W  100  12.110  26.121   1.141 -0.3511 -0.0932 -0.1118
99237W        W  101  16.571  20.705  26.560  0.1729  0.0740  0.0508
99238W        W  102  15.248  25.308  27.115  0.7106 -0.0506 -0.1496
99239W        W  103  14.754  27.616   0.241 -0.0348  0.0785 -0.0162
99240W        W  104  10.641  25.908  26.267 -0.1420  0.1657 -0.1692
99241W        W  105  12.584  27.507   0.256 -0.1836  0.2752 -0.0042
99242W        W  106  15.299  25.838  25.827 -0.0181  0.3621  0.0430
99243W        W  107  10.159  25.024  27.874 -0.2121  0.0533  0.3603
99244W        W  108  12.753  26.724  28.645 -0.1935  0.0960  0.0424
99245W        W  109  10.050  24.533  28.195 -0.2607  0.0230  0.1808
99246W        W  110  11.048  24.804  27.951  0.2301 -0.0576  0.1729
99247W        W  111  11.007  23.658  27.416  0.1791 -0.1486 -0.2547
99248W        W  112   9.503  24.285  26.117  0.1295  0.0354  0.1008
99249W        W  113  11.611  22.883  27.286  0.1273  0.3075 -0.2571
99250W        W  114  11.011  24.936  28.832 -0.1775  0.2204 -0.0287
99251W        W  115  12.460  21.237  28.339 -0.0673  0.1245 -0.1596
99252W        W  116  14.946  23.045  28.571 -0.0491 -0.0769  0.1441
99253W        W  117  13.928  24.315   1.912  0.0784  0.3501  0.2655
99254W        W  118  12.867  24.564   2.854  0.0617 -0.0274 -0.1469
99255W        W  119  13.153  26.237  29.145  0.1971  0.0612  0.0269
99256W        W  120  14.798  26.526   0.505  0.2780  0.1417 -0.1062
99257W        W  121  12.676  26.630  27.620  0.2336  0.0288 -0.1546
99258W        W  122  16.843  23.793  25.845  0.1141  0.0047  0.2300
99259W        W  123  10.327  26.553  27.360  0.0879 -0.0703  0.0815
99260W        W  124  15.812  20.510  27.502  0.0673 -0.1010 -0.2072
99261W        W  125  10.232  25.764  28.468  0.3105 -0.0118  0.1538
99262W        W  126   9.161  22.743  27.348 -0.2107 -0.0431 -0.2270
99263W        W  127  11.098  20.878  28.002 -0.0505 -0.3049 -0.1219
99264W        W  128   9.449  25.492  27.467  0.0320 -0.0878 -0.1712
99265W        W  129  11.187  26.186  26.807 -0.1959  0.1035  0.4749
99266W        W  130  13.505  28.313   1.025 -0.1972 -0.2363 -0.3441
99267W        W  131   9.049  23.375  26.683  0.2240 -0.0060  0.0869
99268W        W  132  11.675  21.027  27.800 -0.1693  0.0707 -0.2069
99269W        W  133  14.393  24.236  26.772  0.0756  0.0734  0.0248
99270W        W  134  10.363  20.197  28.493 -0.0192 -0.0913 -0.0757
99271W        W  135  14.530  26.170  25.376 -0.0804  0.0249 -0.0346
99272W        W  136  12.786  24.620  28.185  0.4549  0.1878 -0.0287
99273W        W  137  14.315  25.839  28.928 -0.1662  0.0829 -0.0989
99274W        W  138  12.514  26.692  28.120  0.0057 -0.2407 -0.0535
99275W        W  139  13.339  24.976  25.889 -0.2866 -0.0884 -0.0354
99276W        W  140  12.882  21.694  26.828 -0.2954 -0.0448  0.0046
99277W        W  141  13.371  26.901  28.434 -0.1203  0.0044 -0.0158
99278W        W  142   9.797  23.386   0.030  0.1373  0.1582 -0.2426
99279W        W  143  13.162  23.633  28.887 -0.0878  0.0404  0.0628
99280W        W  144  11.619  24.137  25.373  0.2853  0.0072 -0.2546
99281W        W  145  14.646  21.633  25.944 -0.0280  0.0506  0.0584
99282W        W  146  14.999  26.152  28.365  0.1387 -0.1046  0.0566
99283W        W  147   9.615  25.993  27.642 -0.0961 -0.2189 -0.2974
99284W        W  148  12.849  20.611  27.581 -0.0183 -0.1400  0.2806
99285W        W  149  12.024  28.357  28.873 -0.3016 -0.0659 -0.1281
99286W        W  150  13.648  26.930  29.047  0.2305  0.2557 -0.3513
99287W        W  151  16.309  25.221  28.031  0.1171 -0.1329 -0.1779
99288W        W  152   9.266  27.003  27.499 -0.2125  0.1074  0.2472
99289W        W  153  14.236  24.719  26.794  0.0332  0.0373 -0.0846
99290W        W  154  15.051  22.477  26.682 -0.0551 -0.0044 -0.2752
99291W        W  155  11.203  22.648  26.538  0.1685  0.2470  0.1221
99292W        W  156  16.141  24.671  27.972  0.2390  0.0683  0.0680
99293W        W  157  13.610  27.481  26.867  0.3578 -0.2476  0.1227
99294W        W  158  14.281  25.135   1.200 -0.0440 -0.4450  0.2583
99295W        W  159  16.807  25.639  26.278 -0.0517 -0.4682  0.1143
99296W        W  160  12.840  22.581  27.521 -0.0593  0.0849  0.2313
99297W        W  161  12.430  25.573   0.679 -0.2393 -0.0762 -0.2645
99298W        W  162  14.426  25.448  28.133  0.0358  0.3727 -0.1113
99299W        W  163  10.715  22.377  27.729  0.0910 -0.1581 -0.0670
99300W        W  164  12.070  25.005  28.658  0.1634 -0.0863  0.0111
99301W        W  165  12.247  22.467  27.556 -0.2806  0.1498 -0.2632
99302W        W  166  10.319  24.544  25.040  0.2111 -0.0332  0.1733
99303W        W  167  11.551  22.549  28.067 -0.0538 -0.0113 -0.3237
99304W        W  168  12.919  24.407   0.178  0.2401 -0.0784  0.0486
99305W        W  169  16.072  24.063   0.038  0.3117  0.3522 -0.1713
99306W        W  170  12.388  21.539   0.573  0.4119 -0.1294 -0.0566
99307W        W  171  15.237  27.327  24.900 -0.2822  0.0244 -0.0366
99308W        W  172  13.048  25.770  26.501  0.1273  0.0249 -0.1864
99309W        W  173  12.941  25.439  28.561  0.0145  0.1131 -0.3158
99310W        W  174  13.353  23.879  27.202 -0.0159  0.0490 -0.3233
99311W        W  175   9.928  22.657   2.321 -0.4003 -0.0500  0.4587
99312W        W  176  11.807  26.234  26.632  0.3079 -0.1527  0.1886
99313W        W  177  14.383  28.199  28.181 -0.1862  0.2908 -0.1262
99314W        W  178  11.952  25.240  25.978  0.1300  0.2396  0.3984
99315W        W  179  11.662  26.706  27.869  0.1149  0.0328 -0.0713
99316W        W  180  12.976  24.343   2.025  0.1857 -0.0869 -0.3085
99317W        W  181  10.407  27.297  25.115 -0.2865 -0.2359 -0.0578
99318W        W  182  13.670  24.243   0.836 -0.3020  0.1436 -0.2646
99319W        W  183  12.881  26.310  24.922 -0.0758 -0.1420  0.1238
99320W        W  184  13.289  21.994  23.838  0.2391  0.2425 -0.1230
99321W        W  185  11.627   0.438   3.529 -0.0514  0.2085  0.1041
99322W        W  186  10.328  27.333   1.657 -0.1089  0.1358  0.1606
99323W        W  187  14.249   0.311   1.605 -0.0028  0.1688  0.0479
99324W        W  188  13.168  27.873   4.004  0.0144 -0.0717 -0.1555
99325W        W  189  11.081  28.572   0.600 -0.1191 -0.1930 -0.3710
99326W        W  190  14.029   0.016   2.081 -0.1259 -0.0294 -0.0565
99327W        W  191  10.925   0.203   0.544  0.3826  0.1352 -0.0838
99328W        W  192   9.984  28.214   3.234  0.0454 -0.1142 -0.0145
99329W        W  193  13.627   1.365   4.231  0.0344  0.1020  0.2224
99330W        W  194   8.959  27.351   3.210 -0.2491 -0.0541  0.1720
99331W        W  195  11.429  26.558  28.859  0.3791 -0.0023  0.1144
99332W        W  196  14.141  25.089   3.200  0.3655 -0.0070 -0.1920
99333W        W  197  11.334  28.833   2.368 -0.0716  0.2633  0.1440
99334W        W  198  13.575  27.804   3.183 -0.1122 -0.0681 -0.1128
99335W        W  199  11.738  26.507   4.781  0.0215  0.3338  0.0992
99336W        W  200  10.486  28.180   3.064 -0.2052 -0.1057  0.1600
99337W        W  201  11.987   0.583   0.610 -0.0979 -0.0757  0.0785
99338W        W  202   9.581  24.336   0.275 -0.1762  0.3701 -0.0042
99339W        W  203  11.152  28.834   6.965  0.0191  0.0773  0.0922
99340W        W  204  13.174  28.186   2.125 -0.1362  0.2681 -0.3061
99341W        W  205  14.745  25.304   3.810  0.3575 -0.1210 -0.2527
99342W        W  206  12.703  28.872   0.753  0.3030 -0.0439 -0.3199
99343W        W  207  13.138  27.871   2.829 -0.0630 -0.4265 -0.0690
99344W        W  208  11.600  27.774   3.473  0.2605 -0.4168 -0.0609
99345W        W  209   7.848  27.608   3.219  0.2413  0.0988 -0.0154
99346W        W  210  13.041  27.096   4.309  0.1979  0.0343 -0.0414
99347W        W  211  13.997  28.518   4.889  0.1066  0.2068 -0.1120
99348W        W  212  10.894  27.332   3.092  0.0622 -0.0710 -0.1983
99349W        W  213  11.445  27.300   3.315 -0.1260  0.2523  0.0118
99350W        W  214  13.139  27.479   3.120  0.0312  0.0730  0.1212
99351W        W  215  13.464  26.755   0.777 -0.1657  0.2598  0.0616
99352W        W  216  15.308   0.924   5.043  0.2733 -0.0152 -0.2497
99353W        W  217  10.601  28.981   2.221 -0.2136 -0.1660 -0.0372
99354W        W  218  11.164  27.030   1.901 -0.2262  0.2454  0.1005
99355W        W  219  12.721  26.256   6.792 -0.2462  0.1995 -0.0623
99356W        W  220  13.402  28.115   1.483 -0.0366 -0.1339 -0.2472
99357W        W  221   9.554  24.163   1.185 -0.1810 -0.0810 -0.0891
99358W        W  222  11.558  28.880   0.843 -0.0929  0.1475 -0.1326
99359W        W  223  13.585  28.063   3.746 -0.3559 -0.0980 -0.1031
99360W        W  224  14.848  27.355   3.438  0.0535  0.1241 -0.2494
99361W        W  225  14.452   0.644   0.622  0.3612  0.0885  0.2491
99362W        W  226  15.993  27.807   3.085 -0.0097 -0.1723 -0.1893
99363W        W  227  14.297   2.058   2.179 -0.1766 -0.2222 -0.1020
99364W        W  228  12.044   1.330   0.825  0.1734 -0.1889  0.1856
99365W        W  229   9.792   0.283   0.226  0.2960 -0.1314  0.3285
99366W        W  230  11.690  27.445  29.113 -0.2983  0.2112 -0.1879
99367W        W  231  11.288  27.269  28.311 -0.0939 -0.1836  0.0530
99368W        W  232  14.282  26.231   1.029 -0.1860  0.1648 -0.1055
99369W        W  233  12.518  28.636   2.985 -0.1930  0.0708  0.0395
99370W        W  234  14.053  28.885  28.757 -0.0013 -0.1331 -0.5735
99371W        W  235  12.513   1.272   3.214 -0.1598 -0.0591 -0.2860
99372W        W  236  11.932  28.570   0.728  0.1899  0.3154  0.0394
99373W        W  237  11.980  28.499   4.674  0.0458 -0.1178 -0.0226
99374W        W  238  15.584  27.208   2.142  0.2374  0.3353 -0.0362
99375W        W  239  15.076  24.239   3.060 -0.1159  0.0912  0.0501
99376W        W  240   9.319   0.211   1.502 -0.2321 -0.1489  0.2675
99377W        W  241  10.598  25.781   0.231  0.3032 -0.0955 -0.1648
99378W        W  242  14.266  27.268   1.065  0.0958  0.2356 -0.3235
99379W        W  243  11.493  27.539  27.480  0.1689  0.3462 -0.1015
99380W        W  244   9.141   0.608   2.474 -0.3454  0.1683 -0.0259
99381W        W  245  14.504  27.198   0.039 -0.0512 -0.0185  0.0480
99382W        W  246   7.563  29.001   3.822 -0.2624  0.1795 -0.2024
99383W        W  247  12.245   0.151   1.469  0.2429  0.1893  0.1063
99384W        W  248  11.844  27.931  29.035  0.2208  0.0490 -0.1451
99385W        W  249  12.129  26.666   2.861  0.1521 -0.1337  0.0637
99386W        W  250  12.796  28.122   1.359 -0.0607  0.0385 -0.0862
99387W        W  251  11.208  28.800  28.245  0.1108  0.2396 -0.2898
99388W        W  252   9.949  26.255   1.709 -0.0634  0.5867  0.2537
99389W        W  253  12.864  27.661   3.602  0.3935  0.0909  0.0442
99390W        W  254  10.779   1.045   0.565  0.0782 -0.1518  0.1278
99391W        W  255  14.374   0.259   3.865  0.0496  0.3767  0.0334
99392W        W  256  14.161  27.778  28.404 -0.4222  0.0963 -0.1281
99393W        W  257  14.554   1.670   0.808  0.1446 -0.1398 -0.2822
99394W        W  258  14.692   1.275   3.409 -0.0079 -0.0126 -0.0690
99395W        W  259  14.318  27.202   2.737  0.0808  0.1162  0.1825
99396W        W  260  11.230  28.628   4.111  0.0027  0.1028  0.0898
99397W        W  261   9.420  26.884   2.894 -0.0978  0.0981 -0.0227
99398W        W  262  11.254  26.950   2.900  0.2039  0.1239 -0.0736
99399W        W  263  14.618  23.366   2.741 -0.2320  0.0143  0.1570
99400W        W  264  16.092   0.569   1.207  0.1375  0.2774 -0.0633
99401W        W  265  13.279  26.188   2.175 -0.0171  0.4900 -0.3078
99402W        W  266  12.243  24.739   3.497 -0.0797  0.0424 -0.0580
99403W        W  267  11.083  25.683   1.806  0.0542 -0.0628 -0.1025
99404W        W  268  13.110  28.576   0.795 -0.0499  0.0807  0.0231
99405W        W  269  11.841  28.294   5.461  0.0557 -0.0475 -0.1430
99406W        W  270  16.815  26.919   0.209 -0.0909 -0.1924  0.0937
99407W        W  271  14.861  28.422   0.701  0.3365 -0.1922 -0.3247
99408W        W  272  15.989  25.145   3.305  0.1952  0.3318  0.3159
99409W        W  273  14.441  26.560   3.663 -0.1394  0.2927 -0.1058
99410W        W  274  12.493  27.458   1.177 -0.0865 -0.2397 -0.0669
99411W        W  275  14.542  23.904   0.028 -0.4550 -0.2698  0.1769
99412W        W  276  14.398   0.201   3.271 -0.1447 -0.0764 -0.0644
99413W        W  277  10.707   0.846   2.457 -0.0030 -0.0637 -0.1461
99414W        W  278  12.053  28.195   2.039  0.0773 -0.0555 -0.0806
99415W        W  279  12.826  26.629   4.014  0.0955 -0.0939  0.2041
99416W        W  280  14.713  26.925   1.558  0.2085 -0.0974  0.2325
99417W        W  281  13.472  28.245   2.914 -0.0256  0.0429 -0.1212
99418W        W  282  12.867  28.202   3.775  0.0786  0.2076 -0.2351
99419W        W  283  12.114  26.377  27.818  0.0228 -0.1278  0.3278
99420W        W  284  15.358  25.790   0.032  0.0394  0.1051  0.3823
99421W        W  285  13.712  28.749  29.109 -0.1103 -0.2419 -0.0158
99422W        W  286  12.402  25.964   1.991 -0.0497  0.2751 -0.1622
99423W        W  287  15.237  25.864   0.691  0.0796 -0.0837  0.3800
99424W        W  288  15.102  27.979   2.416 -0.1734  0.1950 -0.1647
99425W        W  289  12.311  26.328   2.328  0.0055 -0.3569  0.3809
99426W        W  290  12.022  26.998   0.704  0.1644 -0.0975  0.0337
99427W        W  291  10.324  28.913  28.808  0.0628 -0.0714 -0.0788
99428W        W  292  11.799  28.202   3.672 -0.2361 -0.1384 -0.0085
99429W        W  293  14.709  27.103   2.048  0.0559  0.0391  0.2771
99430W        W  294  12.473  25.864   1.502 -0.0893 -0.1239  0.3189
99431W        W  295  12.270  27.334   3.610 -0.1278 -0.2741 -0.0438
99432W        W  296  13.686   0.364   1.773  0.2331 -0.0234 -0.2356
99433W        W  297  13.454  27.200   2.229  0.0075  0.2789  0.0203
99434W        W  298  13.663  29.001   2.382  0.1366 -0.2572  0.1829
99435W        W  299  15.091   1.477  28.919  0.0696  0.0950 -0.1250
99436W        W  300  13.612  26.674   2.477  0.0069 -0.1797 -0.1767
99437W        W  301  16.277  25.105   2.825 -0.0757  0.0781  0.0226
99438W        W  302  13.159  28.028   3.354 -0.0584  0.0132  0.3542
99439W        W  303  14.985   0.365   0.384  0.1829  0.0195 -0.0015
99440W        W  304  13.913  28.177   0.760 -0.0936 -0.0119 -0.1075
99441W        W  305  13.472  26.725   1.369 -0.1433 -0.6252  0.1017
99442W        W  306  14.961  28.289  28.849  0.1679  0.1556  0.0651
99443W        W  307  15.125  26.876   0.902 -0.1532  0.1461 -0.0961
99444W        W  308  11.948  27.939   0.841  0.1978 -0.1089  0.1732
99445W        W  309  12.698  27.585   2.710 -0.1969 -0.3003 -0.1025
99446W        W  310  15.022  28.667   1.100 -0.1124 -0.1023  0.0015
99447W        W  311  12.428  28.451   2.552 -0.3365 -0.1916  0.0335
99448W        W  312  14.355  26.870   2.361  0.3676 -0.0158 -0.0639
99449W        W  313  12.776   0.360   2.913 -0.0705  0.2819  0.2306
99450W        W  314  11.771   1.140   2.367 -0.0534  0.1636  0.0485
99451W        W  315  13.315   2.600   2.931  0.0396  0.0289 -0.0624
99452W        W  316   9.417  25.120   3.817  0.0326 -0.0218  0.1843
99453W        W  317  13.152   0.032   2.930 -0.1895 -0.1233  0.1352
99454W        W  318  13.014  26.145   3.170  0.2419 -0.0768 -0.0726
99455W        W  319  14.244  27.320   2.070 -0.0488 -0.1265  0.0483
99456W        W  320  10.221  25.995   2.082 -0.0202  0.1722  0.0850
99457W        W  321  16.185  25.487  28.492 -0.0153 -0.1088 -0.1556
99458W        W  322  13.703  25.932   5.158 -0.0431  0.2154 -0.0580
99459W        W  323  13.195   0.050   1.490 -0.3716  0.1774  0.1365
99460W        W  324  13.358   0.390   0.605  0.1263 -0.0303  0.2314
99461W        W  325   8.127  26.763   1.611  0.0346  0.1713  0.1765
99462W        W  326  13.824  24.858   1.345  0.1151  0.1000  0.1970
99463W        W  327  11.282  28.847  26.842 -0.2602  0.1716 -0.3142
99464W        W  328  12.270  26.604   0.926  0.0914  0.0543  0.1962
99465W        W  329  11.863   1.519   4.202 -0.1149 -0.0492  0.0044
99466W        W  330  14.542   0.116   0.442 -0.0808  0.0090 -0.5793
99467W        W  331  15.977  26.356   4.240  0.0772 -0.0424  0.0200
99468W        W  332  14.427   1.189   0.691 -0.3309  0.1291 -0.1301
99469W        W  333  12.019  28.718   3.882  0.0404  0.1508 -0.1115
99470W        W  334  11.225  27.936   1.886 -0.1826 -0.0808  0.1756
99471W        W  335  12.236   1.300   1.312  0.1641 -0.2983  0.1544
99472W        W  336  12.167  24.835   1.687 -0.1527  0.1533  0.0878
99473W        W  337  12.896   2.227  28.867 -0.2185  0.0651  0.1117
99474W        W  338  11.531  25.617   0.235  0.1466  0.0651 -0.1363
99475W        W  339  12.160  27.762   2.901  0.1289  0.1084 -0.2112
99476W        W  340  11.825  26.168   2.725  0.1169 -0.0787 -0.5219
99477W        W  341  10.602  28.639   3.552  0.1767  0.1286 -0.1048
99478W        W  342  13.113  28.617  28.372  0.0324 -0.0937 -0.1959
99479W        W  343  11.172  25.287   0.485  0.0710  0.0773  0.0488
99480W        W  344  12.468  27.283   1.765 -0.0977  0.0305  0.1642
99481W        W  345  11.491  26.035   1.894 -0.0054 -0.1809 -0.1080
99482W        W  346   9.149  28.489   3.885  0.0113  0.3319  0.0339
99483W        W  347  12.197  28.951   0.933  0.1536  0.1215  0.2553
99484W        W  348  13.938  28.467   3.607  0.1681  0.1049 -0.1081
99485W        W  349  12.809  28.494   4.571 -0.2934  0.1365 -0.1295
99486W        W  350  10.368  27.737   3.878 -0.3314  0.1884 -0.1286
99487W        W  351  12.307  27.289   2.821  0.1471  0.0238 -0.0754
99488W        W  352  12.880  27.130   1.518  0.1665  0.0950 -0.2821
99489W        W  353  14.956  26.634   4.721  0.0603  0.0539  0.0748
99490W        W  354  10.577  27.204   2.073 -0.0887  0.1834  0.1906
99491W        W  355  15.806  25.152   1.006  0.1392  0.2355  0.2725
99492W        W  356  12.199  28.268   3.223 -0.2434  0.1673  0.0417
99493W        W  357  14.247  25.984   2.996 -0.3390  0.1278 -0.0734
99494W        W  358  14.731  27.502   1.715  0.4255 -0.1117 -0.0592
99495W        W  359  11.362  27.703   0.297 -0.0805 -0.1924 -0.1076
99496W        W  360  14.270  28.951   0.146 -0.0137  0.2286  0.0299
99497W        W  361  12.993  26.720   1.123  0.2886 -0.3070  0.0163
99498W        W  362  11.515  28.417   2.690  0.2395 -0.1086  0.0309
99499W        W  363  12.045  28.990  28.366  0.0501 -0.3212 -0.0090
99500W        W  364  13.030  25.251   2.266 -0.0730  0.1643  0.0394
99501W        W  365  12.238  28.668   1.941 -0.0969  0.1276 -0.0790
99502W        W  366  14.100  28.913   0.608 -0.1827  0.1011  0.0456
99503W        W  367  13.422  27.640   1.415 -0.2824  0.2268  0.1137
99504W        W  368  12.571  25.877   1.030 -0.0611 -0.1254  0.0669
99505W        W  369  12.397  27.967  29.022  0.0196  0.0489 -0.0043
99506W        W  370  12.531  28.085   2.857  0.1163  0.1051 -0.1449
99507W        W  371  13.398  26.328   1.096 -0.0216 -0.1575 -0.1097
99508W        W  372  11.982  25.261   0.607  0.1663  0.0138  0.0536
99509W        W  373  11.335  27.593   3.892  0.2299  0.0065 -0.2641
99510W        W  374  10.073   0.610   2.593 -0.3505  0.1506  0.0324
99511W        W  375  10.097   0.610   0.019 -0.0532 -0.1802  0.0511
99512W        W  376  11.842   0.122   0.679 -0.2267 -0.3252 -0.2633
99513W        W  377  11.805  27.364   3.808 -0.0330 -0.0858  0.1312
99514W        W  378  12.257  26.689   4.669 -0.2138  0.2960  0.1390
99515W        W  379  13.784  25.087   0.890  0.1146 -0.1451  0.1484
99516W        W  380  12.121  25.582   0.253 -0.0549 -0.0730 -0.0742
99517W        W  381  14.487  26.341   1.483  0.1309 -0.0076 -0.3370
99518W        W  382  11.790  27.748  28.225  0.2368  0.0672  0.2615
99519W        W  383  10.631  27.595   2.457  0.3292 -0.3242  0.2069
99520W        W  384  13.660  24.372   5.893 -0.1084 -0.0876  0.1915
99521W        W  385  13.531  25.939   0.643  0.0904  0.0676  0.0294
99522W        W  386  14.541  25.036   2.263  0.2769 -0.1492  0.0987
99523W        W  387  13.412  25.800   1.356 -0.0529 -0.2002  0.1376
99524W        W  388   9.862  25.952   2.487  0.1255  0.1203  0.1946
99525W        W  389  11.945  25.268   2.834 -0.4179  0.0236 -0.0689
99526W        W  390   9.788  24.328   2.087 -0.0758 -0.1873 -0.0503
99527W        W  391  13.857  26.048   3.336 -0.3224 -0.3370  0.2333
99528W        W  392  14.112  26.908   0.807 -0.1873  0.0108 -0.0867
99529W        W  393  12.464  28.458   0.687 -0.2197  0.1299 -0.1465
99530W        W  394  11.637  28.596  28.502 -0.0948 -0.1271 -0.3755
99531W        W  395  10.692  27.666   3.486  0.1914 -0.1952 -0.1117
99532W        W  396  11.546  26.708   1.548  0.0330  0.0305 -0.3437
99533W        W  397  11.479  27.207   1.468 -0.0231  0.0623 -0.1349
99534W        W  398  14.841  26.159   2.733  0.0084 -0.1088 -0.2857
99535W        W  399  13.674   1.127   2.268 -0.0245  0.1645  0.0074
99536W        W  400  14.638  27.454   0.750 -0.0825  0.0263  0.1705
99537W        W  401  12.945   2.117  27.780 -0.1785 -0.0024  0.2100
99538W        W  402  11.969   2.540   2.321 -0.0826 -0.3928 -0.0523
99539W        W  403  13.685  25.998   2.376 -0.0705 -0.0760 -0.0974
99540W        W  404  11.263  28.100   3.828  0.2021  0.0703  0.2474
99541W        W  405  12.701  26.884   1.993  0.0592 -0.0341 -0.2610
99542W        W  406  13.340  27.676   1.922 -0.0269 -0.0266 -0.5459
99543W        W  407  14.725  28.962   3.848 -0.0519  0.1088  0.0457
99544W        W  408  13.311  27.280   0.610  0.0871  0.2166 -0.0766
99545W        W  409  11.415   0.316   1.355 -0.1650 -0.2502 -0.0603
99546W        W  410  12.079  26.540   3.333  0.1073  0.1501  0.0427
99547W        W  411  12.507   0.700   6.081 -0.1379  0.2631  0.3950
99548W        W  412  12.782  26.770   4.575 -0.0672 -0.4365 -0.2794
99549W        W  413  14.033   1.583  28.758  0.0180  0.0014  0.3395
99550W        W  414  12.170  26.857   3.814 -0.1176 -0.3059  0.0702
99551W        W  415  12.651  26.124   3.878 -0.1547  0.0127 -0.2039
99552W        W  416  12.570  26.668   5.458  0.1989 -0.0353 -0.1096
99553W        W  417   9.843  27.515  28.779 -0.1034 -0.3388 -0.0980
99554W        W  418  13.360  28.123   0.541  0.3693  0.0180 -0.2013
99555W        W  419  10.168  27.281   2.442 -0.1255 -0.0662  0.0439
99556W        W  420  11.330   1.642   0.220  0.0766  0.1980  0.0344
99557W        W  421  15.934  24.921   2.566  0.1377 -0.3623  0.1487
99558W        W  422  12.652  28.051   3.349 -0.0689  0.0219 -0.2825
99559W        W  423  11.721   1.645   2.125 -0.1487 -0.3226 -0.1024
99560W        W  424  12.902  29.056   1.854  0.2440  0.0513 -0.4468
99561W        W  425  12.607   1.164   2.319 -0.0629  0.0369 -0.0326
99562W        W  426  13.031  28.692   3.734 -0.2693 -0.1672 -0.1182
99563W        W  427  11.800  26.560   1.025  0.2529 -0.2160 -0.1184
99564W        W  428  13.075  28.127   0.080 -0.0461 -0.1721 -0.1057
99565W        W  429  12.579  28.213   2.073 -0.0252  0.3081 -0.1368
99566W        W  430  13.684  27.127   3.856  0.0576 -0.1067 -0.1053
99567W        W  431  12.356  27.424   0.645  0.0273 -0.0602 -0.1418
99568W        W  432   9.734  27.573   3.410  0.2863  0.1559 -0.1793
99569W        W  433  13.739   1.920   0.807  0.1085 -0.1637  0.2177
99570W        W  434  14.246  26.761   1.337 -0.0635  0.4037 -0.1184
99571W        W  435  11.754   1.553   0.484 -0.1397 -0.2333  0.0295
99572W        W  436  12.007   1.118   3.265 -0.2664  0.2114  0.3706
99573W        W  437  11.217   1.639   0.725 -0.0003 -0.0947 -0.0642
99574W        W  438  11.965  27.464   1.020  0.0858 -0.1127  0.2592
99575W        W  439   9.835  25.220   0.151  0.0426 -0.2335  0.0733
99576W        W  440  12.433   0.654   0.235  0.0255 -0.0565 -0.1761
99577W        W  441  13.266  25.810   4.108 -0.1453  0.0177 -0.0720
99578W        W  442  13.655  26.440   2.038 -0.3661 -0.0279  0.0994
99579W        W  443  14.306  26.687   1.869 -0.1512 -0.3663 -0.3497
99580W        W  444  15.032  26.362   2.251  0.1422 -0.0686 -0.0109
99581W        W  445  12.442  26.424   1.815 -0.3849 -0.2810  0.2026
99582W        W  446  12.429  26.910   4.264 -0.1938 -0.2218  0.1910
99583W        W  447  13.449   1.184   2.942 -0.2282 -0.2931  0.0996
99584W        W  448  12.525  26.840   1.539 -0.0978 -0.2669  0.3065
99585W        W  449  13.295   0.586   1.508  0.1720  0.2551 -0.0869
99586W        W  450   9.314  28.821   2.933 -0.0524  0.0492  0.1708
99587W        W  451  12.300   0.306  27.418  0.1383 -0.0252 -0.1836
99588W        W  452  14.402   1.346   0.242 -0.0339 -0.0638  0.2717
99589W        W  453   9.031  27.011   1.901 -0.0019 -0.0313  0.0772
99590W        W  454  16.061  24.165   2.852  0.1280 -0.1191  0.3131
99591W        W  455  11.717  28.587   3.214  0.0399 -0.0990  0.0833
99592W        W  456  13.689  26.533   3.592  0.0098  0.1019  0.0913
99593W        W  457  12.627  27.064   3.864  0.1214  0.2820  0.0639
99594W        W  458  11.329  26.919   4.609  0.0214  0.0528 -0.0941
99595W        W  459  13.536   0.793   1.167 -0.1197  0.2744  0.0298
99596W        W  460  13.832  26.344   2.841  0.0038 -0.0857 -0.0455
99597W        W  461  11.009  27.056   1.191  0.1112 -0.0080 -0.1010
99598W        W  462  13.381  27.172   1.599  0.0084 -0.0610  0.1833
99599W        W  463  12.166  27.533   0.005 -0.1638  0.4727 -0.1728
99600W        W  464  12.474  26.096   4.349  0.2189 -0.1556 -0.0518
99601W        W  465  12.902   1.455   0.737  0.1290 -0.0385  0.0959
99602W        W  466  11.467  27.843   2.856 -0.0193  0.1580  0.4195
99603W        W  467  15.052  25.676   1.780 -0.0359  0.0112 -0.0532
99604W        W  468  12.821  26.183   2.659 -0.2303  0.0973  0.1012
99605W        W  469  14.247  25.771  28.425  0.1156  0.0194 -0.4056
99606W        W  470  15.169  25.824   7.113  0.1592  0.0735  0.0990
99607W        W  471  12.984   0.012   0.464 -0.0223  0.0062  0.0702
99608W        W  472  11.028  27.328   3.582  0.1023 -0.1255  0.0594
99609W        W  473  14.380  27.931  27.730 -0.0665 -0.0573  0.0091
99610W        W  474  15.263  28.982  27.833 -0.4954  0.0834  0.0703
99611W        W  475  11.945  28.260   0.223 -0.1442  0.0969 -0.1213
99612W        W  476  14.563  25.608  27.686 -0.1967  0.1194 -0.1775
99613W        W  477  13.032  28.050   0.943  0.3106  0.0114  0.1474
99614W        W  478  12.506  27.934   0.981  0.0341 -0.5105 -0.0873
99615W        W  479   9.973  29.054   3.509 -0.4519  0.2774  0.1000
99616W        W  480  13.962  23.715   1.076 -0.2146 -0.1531  0.1459
99617W        W  481  11.083  27.472   1.560 -0.0909 -0.3674  0.0266
99618W        W  482  13.957  28.904   3.880  0.1922  0.3103  0.2777
99619W        W  483  14.297  24.867   4.638  0.3370  0.2384  0.1009
99620W        W  484   9.805  28.067   1.941 -0.0775 -0.2950  0.0971
99621W        W  485  12.926   0.184   0.924  0.1094  0.1087 -0.1506
99622W        W  486  10.200  24.209   4.869 -0.2351  0.1424 -0.1367
99623W        W  487  10.510   1.319   2.017 -0.0831  0.1583  0.0646
99624W        W  488  14.452  28.175   1.002 -0.0071  0.3631  0.0703
99625W        W  489  15.842  28.222  27.753 -0.3668  0.0365 -0.2338
99626W        W  490  13.695   1.872   3.481 -0.2097 -0.1573 -0.0284
99627W        W  491  12.388  28.376   3.674 -0.2358  0.2386  0.0269
99628W        W  492  11.032  26.571   1.542 -0.0809  0.2703  0.3124
99629W        W  493  13.857  26.604   1.084  0.0052 -0.0449 -0.0788
99630W        W  494   9.712  27.882   2.932 -0.3293 -0.0566  0.1001
99631W        W  495  13.528   0.990   0.707 -0.1958 -0.1819  0.1414
99632W        W  496  13.781   2.333   2.817 -0.3782 -0.1999  0.0664
99633W        W  497  13.210  26.708  28.868 -0.1989  0.2253 -0.1362
99634W        W  498  12.467  27.778   1.553  0.2687 -0.0525 -0.1736
99635W        W  499  12.558  27.515   3.246 -0.0420  0.1001 -0.1652
99636W        W  500  11.453   0.432   4.434  0.2367 -0.1985 -0.1304
99637W        W  501  11.910  26.286  28.815 -0.1149  0.1376 -0.3781
99638W        W  502  17.644  26.160   1.568 -0.1382 -0.0677  0.2018
99639W        W  503  13.206  28.156   4.803 -0.2262  0.2032 -0.1855
99640W        W  504  12.044  26.552  28.244 -0.1046 -0.1459 -0.1899
99641W        W  505  12.186   1.222   2.751 -0.0271  0.2511  0.2090
99642W        W  506  11.563   0.679   2.615 -0.2036  0.1575 -0.2744
99643W        W  507  11.896  28.687   2.330 -0.1310 -0.2191  0.1311
99644W        W  508  12.352   0.095  28.854 -0.1063 -0.1042 -0.0258
99645W        W  509  11.139  28.623   3.508  0.1802 -0.1655  0.1479
99646W        W  510  10.108  28.590   3.567 -0.0858 -0.0411 -0.0687
99647W        W  511  11.223  26.827   2.450  0.2986  0.2181  0.0902
99648W        W  512  10.734  28.005   2.158  0.1058 -0.3760  0.4328
99649W        W  513  10.726  28.702   3.079  0.1054 -0.2640 -0.0136
99650W        W  514  12.468   0.629   0.743 -0.0795  0.3468  0.2248
99651W        W  515  13.513  25.186   4.708 -0.0933  0.1004  0.1756
99652W        W  516  14.078  26.931   0.100 -0.0284  0.0798 -0.0314
99653W        W  517  15.163  24.988   3.765 -0.0878 -0.3373 -0.3738
99654W        W  518  13.509  28.625   4.518  0.0620 -0.0101  0.1243
99655W        W  519  13.837  27.643   3.970  0.0416 -0.0816 -0.0219
99656W        W  520  12.980   1.113   3.951 -0.0165  0.0195  0.1181
99657W        W  521  12.105   1.581   0.135  0.2050 -0.0785 -0.1407
99658W        W  522  13.443  26.435  28.442 -0.0735  0.0878  0.2032
99659W        W  523  14.316  25.091   1.775  0.3188 -0.1215 -0.2034
99660W        W  524  13.390  24.516   3.808  0.1692 -0.0173 -0.0412
99661W        W  525  11.076  27.993   2.532  0.1588  0.0925  0.2211
99662W        W  526  12.160  28.986   2.841 -0.0832 -0.0455  0.1781
99663W        W  527  11.516  23.347   2.369  0.0559  0.3483  0.0189
99664W        W  528  10.783  29.059   1.514  0.3159 -0.3523  0.2490
99665W        W  529  13.525  29.026   1.893  0.1505 -0.1513 -0.2872
99666W        W  530  11.017  27.494   2.148  0.1252 -0.1690 -0.3908
99667W        W  531  10.220  28.592   0.788 -0.2505  0.1223  0.1180
99668W        W  532  13.122  26.612   2.847 -0.2248 -0.2044  0.1985
99669W        W  533  13.001  27.290   1.967  0.1630  0.1118 -0.1300
99670W        W  534   9.847  28.541   1.745  0.2186 -0.0117  0.2787
99671W        W  535  11.093  27.184   4.127  0.0411 -0.0006 -0.1648
99672W        W  536  16.216  25.359   2.289  0.1292 -0.2815  0.0560
99673W        W  537  13.728  28.872   3.375 -0.1033 -0.0317  0.4544
99674W        W  538  12.033   0.748   2.825 -0.2315 -0.3596 -0.0671
99675W        W  539  11.062  28.412   2.235  0.2031 -0.1760 -0.4619
99676W        W  540  14.641  25.976   0.680 -0.0319  0.0694 -0.0937
99677W        W  541   9.824   0.895   2.146 -0.0307 -0.1599 -0.4651
99678W        W  542  13.656  28.097   4.245  0.1323 -0.1118  0.0600
99679W        W  543  15.323  25.971   5.995  0.2465 -0.2705  0.1799
99680W        W  544  12.685  28.555   1.133  0.2703 -0.0041  0.0373
99681W        W  545  10.628  25.539   0.661 -0.2071 -0.1423 -0.2269
99682W        W  546  14.934  26.224   0.998  0.1146  0.1920  0.2300
99683W        W  547  13.361  26.294   1.630 -0.0896  0.1920  0.0383
99684W        W  548  13.380  25.116  28.718 -0.2496  0.3305  0.0829
99685W        W  549  11.493   0.517   0.395  0.1538  0.3384  0.0448
99686W        W  550  14.420  27.683   1.261  0.0993 -0.0681 -0.0438
99687W        W  551  12.861  28.109   2.515 -0.1782 -0.0744  0.1253
99688W        W  552  13.785  27.372   1.823  0.2544 -0.0229  0.1891
99689W        W  553   9.844  26.086   3.441 -0.0409 -0.0353  0.0978
99690W        W  554  16.808  26.087   2.084 -0.2759 -0.0663  0.3198
99691W        W  555  13.815  27.128   1.281 -0.1811 -0.1268  0.0626
99692W        W  556  14.867  25.020   0.959 -0.0166 -0.1113  0.2856
99693W        W  557  11.981  27.222   3.181  0.3770  0.2594 -0.1247
99694W        W  558  12.239   0.023   3.854 -0.1087 -0.1230  0.0290
99695W        W  559  12.984  27.576   1.147  0.2187 -0.1407  0.0718
99696W        W  560  13.753  27.905   1.738 -0.0406  0.3437 -0.1395
99697W        W  561  10.317  27.691   2.035  0.1662  0.0194  0.0074
99698W        W  562  12.146   0.654   3.441  0.0021 -0.0779 -0.1495
99699W        W  563  11.894  26.002   2.253 -0.0385 -0.1356  0.0380
99700W        W  564   9.783  27.023   3.284 -0.1254  0.0587 -0.2272
99701W        W  565  14.028  26.783   2.746  0.1188 -0.1160  0.1417
99702W        W  566  10.048   1.131   2.542 -0.1630 -0.0844  0.0643
99703W        W  567  11.583  25.043   3.188  0.2704  0.0258 -0.0253
99704W        W  568  12.683  25.935   4.951 -0.1583  0.1439  0.3170
99705W        W  569  11.543  29.079   3.380 -0.2724  0.3259  0.0773
99706W        W  570  12.156  26.965   0.203 -0.0560 -0.1717  0.1185
99707W        W  571  13.616   0.619   3.071 -0.1036  0.3381  0.3369
99708W        W  572   9.915  27.979   3.690 -0.0969 -0.0045 -0.0244
99709W        W  573  11.598  28.154   1.127  0.1212 -0.1105  0.2826
99710W        W  574  15.479  28.561   5.337 -0.1268  0.1776  0.1508
99711W        W  575  13.563  29.065   4.215  0.1578  0.0292 -0.3127
99712W        W  576  10.193  27.742   2.685  0.0593  0.1049  0.0819
99713W        W  577  11.771  26.993   1.865  0.2158 -0.1056  0.1615
99714W        W  578  12.559  27.712   2.001  0.1130  0.4051 -0.1697
99715W        W  579  10.597   0.418   0.124  0.0212  0.1080 -0.0211
99716W        W  580  13.159   0.126   4.548  0.1270  0.0675  0.2889
99717W        W  581  14.895  28.951  28.454  0.2365  0.2578 -0.0672
99718W        W  582  11.923  25.637   3.571  0.0536 -0.0825  0.1200
99719W        W  583  10.438  28.534   2.143  0.1977 -0.0215 -0.2174
99720W        W  584  11.164  28.096   0.833 -0.1348  0.1043 -0.0884
99721W        W  585  11.501  28.432   9.089 -0.0571 -0.0961  0.1665
99722W        W  586   7.317  27.171   4.470 -0.0243 -0.0620  0.2144
99723W        W  587  13.150  26.296   4.144 -0.0866  0.1146 -0.0333
99724W        W  588  13.197  24.946   6.479 -0.0718  0.0217  0.0435
99725W        W  589  12.241  28.182   4.174 -0.1103  0.0900  0.1556
99726W        W  590  10.971  25.826   5.805  0.2677  0.1142  0.3024
99727W        W  591  14.353  28.894   5.032  0.0419 -0.2680 -0.0366
99728W        W  592  13.492   1.806   4.067  0.3633 -0.0401  0.1261
99729W        W  593  14.529  29.093   8.069  0.1448  0.1206 -0.2650
99730W        W  594  12.744  26.974   6.344  0.0780  0.0328  0.1056
99731W        W  595  11.277  26.499   8.310  0.0559  0.1406  0.0908
99732W        W  596  14.069  22.587   6.733  0.0925 -0.0485 -0.1478
99733W        W  597  16.505  26.838   3.782  0.2151 -0.1604 -0.3341
99734W        W  598  13.897  26.747   8.601 -0.2262 -0.3211 -0.0339
99735W        W  599  10.881  26.068   8.304 -0.3074  0.1091  0.1490
99736W        W  600  11.726   1.277   8.034  0.3809  0.0435 -0.4722
99737W        W  601  14.211  28.149   4.675  0.5602  0.0558 -0.2686
99738W        W  602   9.159  27.204   5.642 -0.3068 -0.0011 -0.0436
99739W        W  603   9.972  25.524   6.995 -0.0394 -0.0698 -0.0137
99740W        W  604  15.170  26.979   6.680 -0.1516 -0.2369 -0.0382
99741W        W  605  14.071  27.160   5.687  0.0161  0.1296 -0.2425
99742W        W  606  12.720  27.397   5.732  0.2051 -0.0436 -0.3393
99743W        W  607  13.939  26.283   4.546  0.0123 -0.3418  0.2152
99744W        W  608   9.097  28.728   6.228  0.0908  0.0642 -0.2540
99745W        W  609  11.855   0.238   6.844 -0.0706 -0.3942 -0.2933
99746W        W  610  12.934  27.837   5.844 -0.5659  0.0662  0.0512
99747W        W  611  12.066  27.260  10.367 -0.0317 -0.0512  0.3129
99748W        W  612  12.947  28.413   7.618  0.1761  0.2804  0.1369
99749W        W  613  12.131   0.412   7.476  0.2190 -0.1572 -0.1741
99750W        W  614  12.886  28.449   5.070 -0.0734 -0.1662  0.3489
99751W        W  615  12.030  27.314   5.127 -0.2425 -0.2240  0.1303
99752W        W  616  15.490   0.089   6.303 -0.2435 -0.0264 -0.2640
99753W        W  617  14.216  26.486   8.359 -0.2911  0.0384  0.1723
99754W        W  618  15.431  27.621   4.287  0.1160  0.1718  0.2632
99755W        W  619  12.930  27.555   8.349 -0.0694  0.0073  0.2762
99756W        W  620  13.815  27.635   5.710 -0.3581  0.2201 -0.1087
99757W        W  621  11.650  25.304   3.985  0.3151  0.0469  0.0020
99758W        W  622  11.982  28.022   4.518 -0.1274  0.2970  0.0719
99759W        W  623  14.810  27.994   6.683 -0.0077 -0.0938 -0.0762
99760W        W  624  13.216  26.267   6.751 -0.0290  0.3324 -0.0206
99761W        W  625  16.545  28.812   3.726  0.3228  0.1476 -0.0607
99762W        W  626  16.064  27.968   4.913  0.0085  0.1387  0.0166
99763W        W  627  12.150   0.992   7.676  0.0416  0.0206 -0.3983
99764W        W  628  13.040  26.360   3.601 -0.2900 -0.1816 -0.0376
99765W        W  629   8.156  26.960   4.283  0.1567 -0.0337 -0.0935
99766W        W  630  11.445   0.273   5.819  0.0388  0.2989  0.0101
99767W        W  631  14.170  26.781   6.460 -0.6451 -0.1102 -0.0147
99768W        W  632  15.913  27.372   8.186  0.1751  0.2569 -0.1454
99769W        W  633  13.672  26.669   4.760  0.0510 -0.0293  0.2482
99770W        W  634  11.998  28.483   2.790 -0.1161  0.0877  0.0162
99771W        W  635  14.201  28.308   5.327  0.0236  0.0842  0.2470
99772W        W  636  10.158  28.093   5.203 -0.0660  0.2850  0.3659
99773W        W  637  13.062  27.065   5.854  0.0959  0.1468 -0.0886
99774W        W  638  10.392  29.106   3.777 -0.1901  0.1758  0.0735
99775W        W  639  11.887  24.517   5.800  0.0308  0.1405  0.0222
99776W        W  640  12.136  27.838   3.444 -0.1574  0.0910 -0.1877
99777W        W  641  11.855  26.595   6.036 -0.1663  0.2850 -0.0822
99778W        W  642  11.821  24.766   6.255  0.1674 -0.1200 -0.1449
99779W        W  643  12.352   0.163   6.742 -0.0919  0.0343 -0.1817
99780W        W  644  14.682  26.793   2.784 -0.1404  0.2004 -0.0856
99781W        W  645  11.320  28.243   3.289 -0.0943 -0.0081  0.0813
99782W        W  646  13.533   1.407   5.923 -0.0129  0.0173  0.0392
99783W        W  647  11.015   0.674   7.090  0.1912 -0.0260  0.1091
99784W        W  648  11.950  28.560   5.861 -0.0996  0.3718 -0.2426
99785W        W  649  11.980  28.154   5.003  0.3321  0.1550 -0.0720
99786W        W  650  12.968   0.141   3.775 -0.2378 -0.0046 -0.0384
99787W        W  651  13.360   0.334   4.092 -0.2793 -0.0115  0.0035
99788W        W  652  13.236  24.460   4.402  0.3015  0.0756  0.1402
99789W        W  653  12.608  27.804   7.154 -0.1135 -0.1276  0.5193
99790W        W  654  12.359  27.297   2.278  0.0758  0.1965 -0.1204
99791W        W  655  11.668  28.215   7.072 -0.2980  0.3669 -0.3157
99792W        W  656  12.205  24.911   5.682 -0.1946  0.1065  0.1945
99793W        W  657  14.531   0.831   6.850  0.1646 -0.2006 -0.1455
99794W        W  658  13.028  29.068   9.242  0.1814 -0.0095  0.2654
99795W        W  659  14.635  26.938   4.520 -0.1679  0.0267  0.0552
99796W        W  660  12.229  27.928   7.632 -0.3464  0.0044 -0.0175
99797W        W  661   8.905  28.061   3.625  0.1921 -0.2205 -0.2173
99798W        W  662  13.215  28.746   5.356  0.1269 -0.0718 -0.1678
99799W        W  663  13.614  29.039   4.784  0.1476  0.1725  0.1835
99800W        W  664  12.551  26.733   2.505  0.0248  0.1598 -0.1611
99801W        W  665  11.964  25.840   5.390 -0.3033 -0.1804  0.1063
99802W        W  666   9.453  29.145   6.377 -0.2117  0.1677  0.0635
99803W        W  667  16.042  26.503   6.660  0.1636 -0.1513 -0.0749
99804W        W  668  13.737  26.287   8.098  0.4061 -0.2195 -0.2120
99805W        W  669  10.623  26.865   7.729 -0.0229 -0.2457  0.2511
99806W        W  670  10.390  25.748   7.651 -0.0759  0.0969  0.1905
99807W        W  671  15.530   0.939   7.319  0.1481  0.1247  0.2666
99808W        W  672  14.190  25.120   9.277 -0.0315 -0.2266  0.0210
99809W        W  673  14.683   0.655   7.335  0.2946 -0.1023 -0.0937
99810W        W  674  15.608  27.718   7.350 -0.0049  0.0920 -0.3913
99811W        W  675  13.950  25.117   4.367  0.0496 -0.1479  0.4293
99812W        W  676  14.434  26.496   4.658  0.2108 -0.2488  0.0485
99813W        W  677  12.420   1.019   5.412 -0.1897 -0.1546 -0.4026
99814W        W  678  13.585  24.837   6.133  0.3263 -0.0866 -0.0012
99815W        W  679  10.786  25.299   7.977  0.4254  0.0113  0.0237
99816W        W  680  15.502  27.140   4.569  0.0524 -0.0347 -0.2522
99817W        W  681  15.590  26.316   5.055 -0.1506  0.0116  0.0208
99818W        W  682  12.665   0.830   8.566 -0.1000  0.1139  0.2335
99819W        W  683  12.519  26.775   6.821 -0.2724  0.0573  0.1683
99820W        W  684  12.791  24.022   5.419 -0.0458  0.3179  0.0941
99821W        W  685  14.366  26.416   2.770  0.0035 -0.1168  0.0257
99822W        W  686  10.483  28.059   5.631 -0.0899 -0.2817  0.0974
99823W        W  687  13.323  26.058   2.758 -0.2348  0.0591  0.0185
99824W        W  688  14.775   0.367   4.354  0.1629 -0.0852 -0.0251
99825W        W  689  16.703  26.403   8.555  0.0240 -0.0871  0.0297
99826W        W  690  12.976  26.741   8.910 -0.1295  0.1137  0.0627
99827W        W  691  10.691  29.015   4.317  0.2582  0.0027 -0.0501
99828W        W  692  16.214  27.113   9.968  0.0180  0.1056 -0.4621
99829W        W  693  13.364  24.834   7.793  0.0990 -0.0276 -0.0694
99830W        W  694  13.109  27.292   3.858 -0.0160  0.0612  0.1847
99831W        W  695  13.568  25.947   6.515 -0.0247 -0.2182  0.0287
99832W        W  696  12.978   1.336   7.359 -0.0456 -0.2764  0.0927
99833W        W  697  13.282  26.784   3.825  0.4007 -0.0865 -0.0570
99834W        W  698  13.794   0.539   9.741 -0.2262  0.1914 -0.3070
99835W        W  699  14.540  26.348   2.232 -0.0359 -0.1030 -0.0518
99836W        W  700  13.999  26.160   3.816  0.1171  0.0498  0.2953
99837W        W  701  13.397  25.594   6.080 -0.0002 -0.0741 -0.3678
99838W        W  702  11.766  26.157   5.821  0.0883  0.0883  0.0094
99839W        W  703  12.249  28.635   5.419  0.0960  0.2423 -0.1556
99840W        W  704  11.978  26.231   4.387  0.2490 -0.3186  0.0833
99841W        W  705  11.583  25.930   4.618 -0.0652 -0.0967 -0.1173
99842W        W  706  13.280   0.708   5.283  0.1922 -0.0333  0.3241
99843W        W  707  13.362  27.373   8.222 -0.1316  0.0655 -0.2366
99844W        W  708  13.455  28.774   2.890  0.6416  0.0058  0.0270
99845W        W  709  11.303  25.415   5.820  0.1682 -0.0756  0.1177
99846W        W  710  12.732  27.463   4.145  0.1564  0.4949  0.1531
99847W        W  711  13.757  27.109   6.543 -0.1563 -0.4958  0.2413
99848W        W  712  14.470  28.739   7.236 -0.0343 -0.0003  0.1617
99849W        W  713  14.878  26.738   5.581  0.2254 -0.1938 -0.1216
99850W        W  714  11.341   0.047   5.309 -0.0565 -0.2151 -0.0258
99851W        W  715  11.538  28.689   3.740 -0.0371 -0.0750 -0.1109
99852W        W  716  14.647  27.468   6.862 -0.0995 -0.0476 -0.1759
99853W        W  717  12.668  28.085   7.866  0.1365 -0.0253  0.0915
99854W        W  718  14.006  26.905   3.487  0.1222 -0.0160  0.0018
99855W        W  719  11.326  26.168   7.855 -0.3326 -0.0773  0.0203
99856W        W  720  11.236  25.280   6.675  0.1958 -0.0619 -0.1767
99857W        W  721  14.492  27.066   3.642 -0.0368  0.0375  0.2538
99858W        W  722  16.042  27.845   7.647 -0.0901 -0.1547 -0.1096
99859W        W  723  13.825  27.133   4.918  0.0485 -0.1552  0.1555
99860W        W  724  14.116  27.769   4.372 -0.0371 -0.1857  0.0753
99861W        W  725  10.269  24.616   4.407  0.0308 -0.1245 -0.0586
99862W        W  726  12.530  27.529   7.645  0.4466  0.1252  0.0306
99863W        W  727  13.191  28.913   3.308  0.1436 -0.0607  0.1017
99864W        W  728  10.452   0.737   3.365 -0.2106  0.3007 -0.0750
99865W        W  729  11.845  26.096   7.664 -0.2388 -0.0297  0.3535
99866W        W  730  12.391  24.840   2.907  0.2783  0.1285 -0.0662
99867W        W  731  13.343  25.755   6.928 -0.0105 -0.3263  0.2720
99868W        W  732  14.081  28.737   6.267  0.2044 -0.0048 -0.0661
99869W        W  733  13.633  28.983   7.114  0.1861  0.3172  0.2146
99870W        W  734  13.735  28.386   5.554 -0.1286  0.1506  0.3967
99871W        W  735  13.390  27.548   6.003 -0.0494  0.1837 -0.0583
99872W        W  736   9.644  27.431   5.221  0.0985 -0.0195  0.0960
99873W        W  737  12.325   0.016   5.260 -0.0125 -0.0473 -0.1356
99874W        W  738  12.537  26.488   3.571  0.1278  0.1396 -0.0971
99875W        W  739  11.562  27.718   4.288  0.1681 -0.1588 -0.0920
99876W        W  740  11.729  26.548   9.029  0.2543 -0.0869  0.0402
99877W        W  741  12.063  25.204   6.202  0.2099  0.3057  0.2444
99878W        W  742  11.317  26.539   1.993  0.0532  0.0265  0.0305
99879W        W  743  12.235  26.226   4.910  0.0936  0.1854  0.3172
99880W        W  744  10.427  26.008   3.414 -0.1720  0.0722  0.0895
99881W        W  745  14.083  26.634   7.814  0.0440  0.0003 -0.0369
99882W        W  746  11.776  26.984   7.476  0.2995  0.1581  0.0038
99883W        W  747  13.060  25.513   7.389  0.1684 -0.0403 -0.0103
99884W        W  748  13.027  27.928   7.467  0.2919 -0.2137  0.1630
99885W        W  749  14.229  24.820   5.286  0.1275  0.1214  0.1248
99886W        W  750  11.402  26.611   9.945 -0.1645 -0.0293  0.1830
99887W        W  751  12.821  25.616   4.019  0.1557 -0.0825 -0.0880
99888W        W  752   9.866   0.162   5.148 -0.1935 -0.3424 -0.1578
99889W        W  753  11.807  28.127   6.609 -0.1719 -0.1083 -0.0809
99890W        W  754  12.643  27.464   5.172  0.1343  0.0846  0.1295
99891W        W  755  13.149  27.865   6.979 -0.0051  0.1834  0.2980
99892W        W  756  12.990  27.215   6.691 -0.1550  0.1852 -0.0234
99893W        W  757  13.712  26.675   9.035  0.1358 -0.1968  0.0929
99894W        W  758  14.057  28.112   2.075 -0.2290 -0.0694 -0.0656
99895W        W  759  13.807  23.049   6.056 -0.2832  0.0979  0.0823
99896W        W  760  14.700  25.951   5.245 -0.0020  0.2601  0.0590
99897W        W  761  10.038  28.865   9.013  0.0192 -0.3716  0.0335
99898W        W  762  10.276  27.008   6.505 -0.0395 -0.0123  0.0214
99899W        W  763  10.917   1.889   2.629  0.1352  0.3239  0.0017
99900W        W  764  16.158  26.529   6.123 -0.1385  0.2489 -0.2178
99901W        W  765  12.740  27.887   4.842  0.0642  0.1074  0.3178
99902W        W  766  14.895  28.432   4.086  0.1033 -0.0532  0.1781
99903W        W  767  15.429  25.915   3.529 -0.1385  0.0684  0.0720
99904W        W  768  12.337  23.794   5.556 -0.1784 -0.4973  0.0508
99905W        W  769  14.861  25.760   3.699 -0.0799 -0.3013 -0.2073
99906W        W  770  13.966  28.280   6.498 -0.3060 -0.1241  0.1923
99907W        W  771  14.173  26.271   5.040 -0.3644  0.1520 -0.0203
99908W        W  772  11.874  26.354   0.525 -0.1256 -0.3493 -0.0767
99909W        W  773  11.512  26.663   7.000 -0.0120 -0.0841 -0.1915
99910W        W  774  13.757  29.120   6.255  0.1216 -0.0781 -0.0919
99911W        W  775  12.660   0.736   3.273 -0.1431  0.0755  0.1719
99912W        W  776   8.524  27.571   4.411 -0.1269 -0.4270 -0.4571
99913W        W  777  12.041  27.247   7.855 -0.0081  0.1111  0.0859
99914W        W  778  12.799  25.087   7.417  0.0179  0.3666  0.2573
99915W        W  779  12.507  24.648   7.307 -0.1518 -0.0516 -0.2509
99916W        W  780  11.048  25.417   5.334 -0.5398 -0.1497 -0.3772
99917W        W  781  13.899  25.292   7.120 -0.1388 -0.0647 -0.0565
99918W        W  782  13.103  26.102   8.622 -0.1953 -0.2455  0.2174
99919W        W  783  12.004  25.801   6.251 -0.1769  0.0743 -0.1892
99920W        W  784  13.360  22.903   5.987 -0.3786  0.0350  0.2907
99921W        W  785  12.339  26.221   5.404 -0.1083  0.0809  0.2549
99922W        W  786  13.426  27.966   5.327  0.0291  0.1260 -0.0085
99923W        W  787  14.599  26.491   5.187  0.0919 -0.1612 -0.2563
99924W        W  788  12.582  26.847   5.895  0.0902  0.0366  0.3636
99925W        W  789  13.918  27.084   7.859  0.1688  0.2234 -0.0459
99926W        W  790  12.326  26.107   2.839 -0.2078  0.2868  0.2151
99927W        W  791  11.252   2.215   8.530 -0.4040 -0.2871  0.4385
99928W        W  792  15.704  26.586   5.799  0.1132 -0.0029  0.2758
99929W        W  793  14.191  27.301   4.027  0.1845 -0.0805  0.2196
99930W        W  794  11.688  28.255   4.158  0.1559 -0.1089  0.0953
99931W        W  795  12.815  28.175   8.875 -0.0362  0.1193  0.0964
99932W        W  796  10.024  26.963   2.800  0.1468  0.0993 -0.1771
99933W        W  797  12.810  26.350   5.822 -0.1000 -0.0033 -0.1346
99934W        W  798  12.454  23.869   6.920 -0.1095 -0.2490  0.1457
99935W        W  799  13.147  27.519   5.513 -0.0093 -0.1410  0.0609
99936W        W  800  15.101  27.615   3.709 -0.1607  0.1464  0.2665
99937W        W  801  13.278   0.424   5.698 -0.1309 -0.0424  0.3218
99938W        W  802  12.506   1.786   6.031  0.0593  0.0138  0.0086
99939W        W  803  12.946  27.875   6.420  0.0433  0.1485 -0.0173
99940W        W  804  11.472   3.476   7.252  0.1818  0.1086 -0.3521
99941W        W  805  15.034  27.145   8.644  0.1661 -0.1512  0.1045
99942W        W  806  15.995  26.996   4.683  0.3656  0.1120  0.1762
99943W        W  807  13.069  28.805   7.110 -0.3351 -0.0429 -0.3134
99944W        W  808  15.160  26.847   3.095  0.0125 -0.0424  0.0247
99945W        W  809  14.188   0.637   3.487  0.0028  0.0804 -0.0723
99946W        W  810  13.938   0.201   4.071  0.1427  0.0346 -0.1325
99947W        W  811  12.264  28.746   4.368 -0.1216 -0.1109 -0.0555
99948W        W  812  13.649  26.192   5.550  0.0855 -0.1059 -0.0518
99949W        W  813  14.547  28.326   4.994  0.3115  0.1084 -0.0853
99950W        W  814  14.941  27.318   4.427 -0.1884 -0.3313 -0.0014
99951W        W  815  12.398  26.997   8.749  0.1146 -0.0503  0.2675
99952W        W  816  13.900  27.396   7.457 -0.0367 -0.0096  0.2576
99953W        W  817  11.628  28.547   5.086 -0.3177  0.0526 -0.1351
99954W        W  818  13.817  27.166   9.001 -0.2822  0.3843  0.1982
99955W        W  819  11.789  25.273   7.503  0.1322  0.0489 -0.0632
99956W        W  820  14.579  28.060   5.948  0.2640  0.1148  0.1437
99957W        W  821  13.723  25.659   5.593  0.0944  0.0526 -0.2222
99958W        W  822  14.797  26.109   4.708 -0.0924  0.0534 -0.2554
99959W        W  823  14.264  26.402   4.193  0.2542 -0.0004  0.0305
99960W        W  824  13.451   1.550   7.613  0.0633  0.0013 -0.2926
99961W        W  825  14.549   0.064   2.823 -0.3028  0.1293 -0.1726
99962W        W  826  10.659  27.547   5.706  0.0851  0.0214  0.0942
99963W        W  827  12.239  23.777   9.691  0.2297  0.0841 -0.1131
99964W        W  828  10.454  26.254   5.346  0.0315  0.0255 -0.2134
99965W        W  829  13.548  27.739   7.500 -0.2318 -0.2033 -0.0084
99966W        W  830  10.757  26.709   2.200 -0.0211 -0.2334  0.2456
99967W        W  831  14.075  25.213   4.996 -0.1658  0.3377  0.2522
99968W        W  832  10.269   0.106   6.258  0.0999  0.0299 -0.0476
99969W        W  833  13.716  28.045   4.817 -0.2460 -0.0644 -0.0266
99970W        W  834  15.005  25.150   6.108 -0.0959 -0.1103 -0.1496
99971W        W  835  12.267  27.733   4.969 -0.0812 -0.0821  0.2344
99972W        W  836  13.666  28.130   6.063  0.0966  0.2473 -0.1443
99973W        W  837  11.739   0.010   7.288  0.1428 -0.2262  0.0031
99974W        W  838  12.451  28.638   6.017  0.0569  0.1913  0.1706
99975W        W  839  10.801  25.583   4.921  0.0206  0.0275  0.0020
99976W        W  840  15.663  25.349   4.276  0.0965 -0.2475  0.1188
99977W        W  841  15.041  26.334   5.113  0.2847 -0.1205 -0.0342
99978W        W  842  11.091  22.399   7.227  0.0296  0.4296 -0.2806
99979W        W  843  14.977   0.960   7.059 -0.0096 -0.1106  0.2062
99980W        W  844  12.341  26.463   4.059  0.0475  0.0342  0.0879
99981W        W  845  13.426  26.724   7.670  0.2296 -0.2810  0.0350
99982W        W  846  12.852  25.945   7.116 -0.4802  0.2508 -0.0216
99983W        W  847  13.604  25.841   8.294  0.2069  0.2748  0.0455
99984W        W  848  11.815  24.841   5.363 -0.1722 -0.0033 -0.0713
99985W        W  849  12.609   0.038   4.197  0.1715  0.1315 -0.0621
99986W        W  850  11.246   3.113   8.329  0.0135 -0.0708 -0.0992
99987W        W  851  11.125  27.785   3.241 -0.1465 -0.2442 -0.1566
99988W        W  852  15.172  24.839   3.285 -0.0253  0.0930  0.1707
99989W        W  853  10.143  28.505   5.580 -0.0696 -0.0123 -0.4477
99990W        W  854  12.287  25.715   4.108  0.1768  0.2915 -0.0787
99991W        W  855  10.087  27.221   5.445 -0.1997  0.4025 -0.2351
99992W        W  856  13.435   0.711   6.739 -0.1568 -0.0918  0.0188
99993W        W  857  13.630  26.867   4.250  0.5785  0.1319  0.2282
99994W        W  858  12.130  23.744   6.021  0.1269  0.1938 -0.1334
99995W        W  859  12.391  26.135   8.455  0.2399  0.0412 -0.0775
99996W        W  860  12.631  25.626   8.579  0.1238  0.3608  0.0022
99997W        W  861  15.030  27.711   7.684  0.3903 -0.4785 -0.1116
99998W        W  862  11.626  25.626   6.768 -0.2189 -0.0555  0.0824
99999W        W  863  12.868  28.961   5.740 -0.1638 -0.2100  0.0005
    0W        W  864  10.913  28.765   7.447  0.3386 -0.0600  0.0618
    1W        W  865  11.625  25.383   5.358 -0.1354  0.3767  0.1868
    2W        W  866  14.463  25.499   2.391  0.1407 -0.1390  0.2361
    3W        W  867  11.829  28.949   5.493  0.3238  0.0090  0.1567
    4W        W  868  11.138   1.020   5.690 -0.1285 -0.2929 -0.1552
    5W        W  869  14.786  27.281   2.501  0.1201 -0.2795  0.0008
    6W        W  870  12.710  25.383   8.156  0.0793  0.0838  0.0239
    7W        W  871  13.575  27.589   4.648  0.1356  0.0414  0.2325
    8W        W  872  12.186  26.350   6.893 -0.0944  0.2458  0.2156
    9W        W  873  13.803  25.638   6.793 -0.2015 -0.1495  0.1141
   10W        W  874  13.064  25.756   2.361 -0.3400 -0.6498 -0.0508
   11W        W  875  12.498  25.281   3.142  0.0899  0.1439  0.2764
   12W        W  876  12.372  27.166   5.482  0.0004  0.0608  0.0699
   13W        W  877  13.038  25.788  10.355  0.0712 -0.1812  0.3361
   14W        W  878  12.509  27.783   5.532 -0.1387  0.0466  0.1322
   15W        W  879   8.181  27.369   4.736 -0.0192  0.1248  0.1320
   16W        W  880  13.963  24.373   5.465  0.2992 -0.0254 -0.0812
   17W        W  881  12.501  24.171   5.958  0.0404  0.3713  0.2451
   18W        W  882  15.221  27.350   8.081 -0.1585 -0.1339 -0.0359
   19W        W  883  13.279  23.744   5.617 -0.0940 -0.2811 -0.2219
   20W        W  884  12.342   0.520   5.499 -0.1513 -0.1951 -0.0794
   21W        W  885  10.752  26.327   5.877 -0.1101  0.1364  0.0064
   22W        W  886  11.797  23.886   8.116 -0.0599  0.0357 -0.3336
   23W        W  887  13.543   1.015   9.779  0.1151 -0.1834  0.0264
   24W        W  888  13.458  26.540   7.145  0.0425  0.2323  0.3803
   25W        W  889  14.588   0.712   3.904 -0.1188  0.2346 -0.0747
   26W        W  890  14.519  27.517   7.550  0.2804  0.2644  0.2100
   27W        W  891  13.182  27.802   8.824  0.0100 -0.0088 -0.0462
   28W        W  892  16.402  27.295   8.318 -0.2262  0.0329  0.2587
   29W        W  893  14.884  28.664   6.632 -0.1913 -0.2896  0.1681
   30W        W  894  11.964  26.715   4.252  0.1884  0.0167 -0.2338
   31W        W  895  11.492  26.475   4.331  0.1192  0.3716 -0.0415
   32W        W  896  11.733  27.333   5.518  0.0187 -0.1051  0.1033
   33W        W  897  15.887  24.905   4.384  0.0934  0.2716 -0.3511
   34W        W  898  12.075  25.902   6.754 -0.3814  0.1127 -0.0873
   35W        W  899  11.852  28.053   5.949 -0.1666 -0.0515  0.0628
   36W        W  900  14.137   2.456   6.513 -0.1997 -0.0424 -0.3275
   37W        W  901  14.731  27.624   6.128 -0.0978 -0.1150  0.0761
   38W        W  902  16.158  26.079   6.438  0.2056 -0.1584  0.0157
   39W        W  903  12.284  28.852   6.440 -0.0277  0.3402 -0.1344
   40W        W  904  14.047  26.744   3.938  0.0384  0.1583  0.0621
   41W        W  905  10.816   1.212   7.150 -0.1909 -0.2838 -0.1355
   42W        W  906  14.513  25.042   4.227 -0.1399 -0.1577  0.1992
   43W        W  907  13.147  28.813   4.783  0.0791 -0.0430  0.0910
   44W        W  908  12.453  26.449   7.432 -0.3381  0.0543  0.2500
   45W        W  909  10.082  26.874   3.741 -0.0089 -0.4717 -0.0723
   46W        W  910  14.540  28.517   7.743 -0.2334  0.1632  0.0559
   47W        W  911  13.011  25.775   8.183  0.3141 -0.1403 -0.2090
   48W        W  912   9.895  26.481   5.493 -0.1327 -0.1831 -0.1108
   49W        W  913  12.799  26.089   5.409  0.0246 -0.2324  0.4470
   50W        W  914   9.744  28.079   5.870 -0.0877 -0.1761  0.0245
   51W        W  915  12.783  23.445   9.008  0.1137  0.0475  0.0310
   52W        W  916  13.953  23.982   4.980 -0.1321  0.2420  0.0199
   53W        W  917  15.203   3.232   8.963 -0.0684 -0.0387 -0.3610
   54W        W  918  12.866  28.308   7.117  0.3028  0.0729  0.0979
   55W        W  919  14.018  25.349   7.657  0.1143 -0.0221 -0.0525
   56W        W  920  13.399  28.620   9.955 -0.0616  0.0371  0.0389
   57W        W  921   9.998  28.932   4.047 -0.3298  0.2332 -0.0566
   58W        W  922  13.208  26.805   3.322  0.0627 -0.3539 -0.2845
   59W        W  923  13.451  25.494   5.194  0.1063  0.1934 -0.1052
   60W        W  924  11.717  25.895   4.106  0.1506 -0.1870 -0.2065
   61W        W  925   8.906  27.552   3.756  0.4216 -0.0632 -0.0120
   62W        W  926  14.110  24.685   8.434  0.0227 -0.2664  0.0239
   63W        W  927  10.687  25.399   5.813  0.0081 -0.0272 -0.0410
   64W        W  928   9.216  28.197   5.697  0.2456  0.4662  0.0726
   65W        W  929  15.272  25.071   5.612  0.0691 -0.1611 -0.1555
   66W        W  930  14.166   1.659   6.870 -0.0774 -0.1901  0.0267
   67W        W  931   8.823  26.981   5.045 -0.0746  0.0675 -0.4188
   68W        W  932  11.460  25.520   8.237 -0.0620  0.2014  0.1577
   69W        W  933   8.861  27.933   4.712 -0.2730 -0.2669 -0.0399
   70W        W  934   8.649  25.284   2.180  0.0582 -0.1632  0.2121
   71W        W  935  14.309  25.599   7.345  0.0718  0.2045  0.0672
   72W        W  936  12.326  25.872   5.805 -0.4537 -0.2824  0.2923
   73W        W  937  14.595  27.793   4.581  0.3604 -0.0965 -0.2568
   74W        W  938  13.394  28.344   7.281 -0.0411  0.3970  0.1564
   75W        W  939  11.922   2.899   5.627  0.0211  0.0465 -0.1492
   76W        W  940  13.356  25.082   2.568  0.2831 -0.0541 -0.1989
   77W        W  941  12.299  28.206   7.210  0.4258 -0.3137  0.1809
   78W        W  942  14.001  27.599   8.457  0.1126 -0.1138 -0.0126
   79W        W  943  12.182  26.253   6.430 -0.1165  0.2005  0.2128
   80W        W  944  11.234  26.423   6.553 -0.3158 -0.2350 -0.3662
   81W        W  945  11.649  26.682   2.732 -0.2751  0.2142 -0.0538
   82W        W  946  13.378  26.008   7.445 -0.1213 -0.0102  0.1914
   83W        W  947  10.835  28.370   7.140  0.0091  0.2025  0.1680
   84W        W  948  14.374  24.705   5.778  0.0149  0.0286 -0.1869
   85W        W  949  10.885   0.632   4.892  0.1741  0.2576  0.2687
   86W        W  950  13.206  28.876   6.501  0.0843 -0.1312 -0.1818
   87W        W  951  13.199   0.227   6.556 -0.0922  0.3256  0.0116
   88W        W  952  14.851  26.794   3.472 -0.1575 -0.0892 -0.0938
   89W        W  953  12.715  28.468   5.555 -0.1521 -0.2744 -0.0767
   90W        W  954  12.097  27.758   6.345 -0.0649 -0.2337  0.1895
   91W        W  955  11.575  27.011   5.185  0.0202  0.0215 -0.2395
   92W        W  956  14.090   0.713   5.202 -0.1861  0.3196  0.0383
   93W        W  957  13.714  26.726   3.127  0.0329  0.1225 -0.2712
   94W        W  958  14.013  28.502   4.287 -0.0398 -0.0300 -0.0644
   95W        W  959  14.192  26.457   5.571  0.0076  0.0262 -0.0090
   96W        W  960  13.539  27.490   8.652 -0.0437  0.1759 -0.1176
   97W        W  961  13.744  27.429   6.951  0.0022  0.0268 -0.3189
   98W        W  962  15.368  28.433   6.677 -0.3627  0.1909 -0.3902
   99W        W  963  14.720  27.261   8.208 -0.1778 -0.0668  0.0944
  100W        W  964  11.162  25.914   5.051  0.0414 -0.0725  0.0808
  101W        W  965  12.133  27.542   5.808 -0.1166  0.0381 -0.3115
  102W        W  966  11.187   1.053   5.060 -0.4036  0.1912 -0.0385
  103W        W  967  13.827  28.092   7.190 -0.0099 -0.1391  0.0225
  104W        W  968  13.027  25.788   6.499  0.2111  0.0754  0.2209
  105W        W  969  14.229   0.948   7.297  0.2314  0.1000 -0.0954
  106W        W  970  13.386  27.894   8.316  0.0799  0.1122  0.0385
  107W        W  971  15.802  28.829   4.137  0.0297  0.3198  0.2826
  108W        W  972  15.710   1.249   6.560  0.2501 -0.2610  0.0620
  109W        W  973  13.263   0.018   6.015 -0.0282  0.2038 -0.1187
  110W        W  974  15.627  25.984   8.341  0.2022  0.1486  0.2147
  111W        W  975  12.920  26.006   7.643 -0.1069  0.2781 -0.0088
  112W        W  976  14.610  28.889   6.313  0.0806  0.1966 -0.0411
  113W        W  977  16.177  26.818   3.344 -0.0462 -0.0610  0.1797
  114W        W  978  14.809   0.969   5.812  0.0562  0.0090 -0.3481
  115W        W  979  11.667   0.986   4.127  0.4408  0.0839 -0.3486
  116W        W  980  15.219  26.710   8.769 -0.2637 -0.1428  0.1782
  117W        W  981  10.878  28.925   4.846  0.2018  0.3121  0.1911
  118W        W  982  13.039  26.886   7.398  0.0715 -0.0795 -0.1583
  119W        W  983  12.548   0.866   2.808 -0.0378  0.1508 -0.0407
  120W        W  984  12.081  25.777   4.736 -0.0489  0.2258 -0.0817
  121W        W  985  10.230   1.934  11.510  0.2863 -0.0539  0.0784
  122W        W  986  10.684  28.449   9.313 -0.1060 -0.1097  0.4805
  123W        W  987  13.439  28.145   7.766  0.3238  0.0419 -0.0792
  124W        W  988  16.289   1.506   8.797  0.2518 -0.1214  0.0696
  125W        W  989  11.698  24.564   6.727  0.0825  0.1605 -0.2793
  126W        W  990  14.110  28.089   8.893  0.2896 -0.1969 -0.3485
  127W        W  991  12.662  27.314   9.137 -0.1457 -0.0756  0.2316
  128W        W  992  11.352  26.868   8.990  0.1111 -0.1958 -0.4004
  129W        W  993  11.775  27.282   9.494  0.2903 -0.0932  0.0832
  130W        W  994  10.068  25.296  10.116  0.0757  0.1246  0.1093
  131W        W  995  11.753  23.909  11.176  0.2534  0.2424  0.1157
  132W        W  996  15.147  25.822  11.201 -0.1059 -0.0982  0.0085
  133W        W  997  14.090   0.805   8.837  0.0165  0.1211  0.0748
  134W        W  998  11.968  25.796  10.402  0.0400  0.1933 -0.0653
  135W        W  999   9.788  24.180   9.850  0.3527 -0.0380  0.2597
  136W        W 1000  12.882   1.098   9.393 -0.0985  0.0375  0.0810
  137W        W 1001  14.313  27.712   5.592 -0.2185 -0.0778 -0.2211
  138W        W 1002  10.756  26.358  11.056 -0.1183  0.0495  0.0404
  139W        W 1003  11.515  24.300  10.921 -0.0219 -0.1595 -0.0590
  140W        W 1004  13.693  24.685  10.049 -0.1843  0.0881  0.2460
  141W        W 1005  14.657   0.409  10.708 -0.0416  0.1855 -0.1958
  142W        W 1006  14.894  26.029   9.389  0.2149 -0.0107  0.0980
  143W        W 1007  15.043   0.356  11.489  0.1959  0.0899  0.3906
  144W        W 1008  13.927  25.632  11.552 -0.0432 -0.1024  0.0934
  145W        W 1009   9.822  25.722  10.248  0.1922  0.2713  0.0685
  146W        W 1010  11.488  28.291  10.736  0.2015 -0.1452  0.2717
  147W        W 1011  12.372  28.002   8.641 -0.2303 -0.1775  0.1072
  148W        W 1012  11.573  25.499   9.891  0.1321  0.2185  0.0491
  149W        W 1013  13.015  28.968  11.299 -0.1884  0.3312  0.0076
  150W        W 1014  11.803  25.073  12.794 -0.1409  0.1686 -0.4077
  151W        W 1015  12.200  28.734   8.213 -0.2523  0.2595  0.0142
  152W        W 1016  11.996  28.328  10.429  0.1353 -0.1229  0.0194
  153W        W 1017  10.887  25.484   8.423 -0.1660 -0.1175 -0.2602
  154W        W 1018  12.343   0.388  10.970 -0.2066 -0.1708  0.2140
  155W        W 1019  11.366  26.080   9.731  0.1529 -0.0019  0.0433
  156W        W 1020  13.022  27.291  10.703  0.0107 -0.0369  0.2007
  157W        W 1021  16.563  25.445  11.071 -0.2176 -0.1049 -0.2519
  158W        W 1022  11.008  25.617   9.187 -0.2216 -0.0422 -0.0409
  159W        W 1023  15.736  26.666   8.747  0.0751 -0.1646  0.1184
  160W        W 1024  11.846  27.983  10.831 -0.1865 -0.3240  0.0869
  161W        W 1025  14.663  26.979  10.834  0.1784  0.0178 -0.3201
  162W        W 1026  14.715  25.789   8.956 -0.1421  0.0497 -0.0322
  163W        W 1027  12.044   0.063  10.170  0.0153  0.0120 -0.1281
  164W        W 1028  15.243   1.781   7.047 -0.1710 -0.0046  0.0128
  165W        W 1029  11.513  27.217   8.686  0.2563 -0.3102  0.1357
  166W        W 1030  11.711  28.317   7.576  0.1837  0.0796  0.0830
  167W        W 1031   9.420  24.398  11.404 -0.2984  0.2121  0.0284
  168W        W 1032  16.115  28.624   9.645  0.1269  0.0031  0.0579
  169W        W 1033  12.782  24.898  10.889 -0.2361  0.1189 -0.2070
  170W        W 1034  12.568   1.297   6.769 -0.1096  0.2547  0.0961
  171W        W 1035  13.097  27.543   9.221 -0.1671 -0.0992  0.0835
  172W        W 1036  11.017  27.075   9.444  0.0458 -0.0102  0.2474
  173W        W 1037  12.047  28.714  11.366  0.0380 -0.0742 -0.0156
  174W        W 1038  15.531  29.040   8.892 -0.4660  0.0578 -0.0285
  175W        W 1039  14.508  25.146  10.738 -0.2568 -0.1613 -0.1517
  176W        W 1040  13.405   0.098  11.516  0.1308 -0.0419 -0.0396
  177W        W 1041   7.991  23.723  10.277  0.2118  0.1591  0.0261
  178W        W 1042  15.217  28.699  10.487  0.1510  0.1006  0.2125
  179W        W 1043   8.580  26.694   9.932  0.0122  0.1403  0.2218
  180W        W 1044  15.714  28.678   7.070 -0.1026 -0.0368  0.4360
  181W        W 1045  13.910  27.869   6.782 -0.0780 -0.1486 -0.3896
  182W        W 1046   8.964  26.079  11.797  0.1839 -0.2599  0.3308
  183W        W 1047  11.304  28.356  12.607 -0.0212  0.1685  0.0485
  184W        W 1048  13.749  28.466   8.959 -0.0074  0.1609  0.0535
  185W        W 1049  12.964  26.251   9.070 -0.0308 -0.2205 -0.0765
  186W        W 1050  15.878  25.063  10.913 -0.1965 -0.0655 -0.0767
  187W        W 1051  10.490  26.748   6.886 -0.0065 -0.0423  0.1219
  188W        W 1052  11.314  23.762   8.019  0.0132  0.2451 -0.0475
  189W        W 1053  11.631  28.826   9.395 -0.0363 -0.3856 -0.0912
  190W        W 1054  13.475  28.021   6.567 -0.0274  0.0504 -0.1978
  191W        W 1055  16.643  27.796  11.522  0.2008  0.0436 -0.4531
  192W        W 1056  12.543  25.897   7.995  0.2734  0.1197 -0.2551
  193W        W 1057  15.016  28.189   9.013 -0.5263 -0.2462 -0.2721
  194W        W 1058  12.529  24.680  11.381 -0.0130 -0.1312  0.0525
  195W        W 1059  17.724  28.431   9.776  0.0834 -0.1925 -0.1533
  196W        W 1060  14.473  26.231  10.700 -0.0437 -0.1502  0.2442
  197W        W 1061   9.892  27.453   8.794 -0.0887 -0.0308  0.0172
  198W        W 1062  10.540  25.884  10.843  0.0427 -0.1927 -0.0510
  199W        W 1063  13.404  25.479  10.348 -0.0654 -0.0761  0.1201
  200W        W 1064  14.158   0.462  10.597  0.0867 -0.0352  0.0501
  201W        W 1065  11.341  26.042  11.752  0.1692 -0.0575  0.0854
  202W        W 1066   9.379  25.311  11.302  0.2493  0.0945  0.0753
  203W        W 1067  13.947  24.145  11.039 -0.1033 -0.1205  0.1650
  204W        W 1068  12.317  25.242   8.482 -0.0258 -0.3572  0.0562
  205W        W 1069  13.422  25.829  11.753  0.1824 -0.1197  0.5505
  206W        W 1070  12.619  27.855  11.501 -0.0945  0.1248  0.1446
  207W        W 1071  15.325   0.125   9.393 -0.2428 -0.1607 -0.2997
  208W        W 1072   9.549  23.014  11.398 -0.1768  0.0312  0.4420
  209W        W 1073  17.323   0.912  10.820 -0.1149  0.1134  0.3222
  210W        W 1074  13.778  27.140   9.930 -0.1851 -0.1280  0.2340
  211W        W 1075  13.860  25.227  10.475 -0.1983 -0.3110  0.2706
  212W        W 1076  11.484  26.847   9.480 -0.0598 -0.0130 -0.1494
  213W        W 1077  12.627  26.578   8.492 -0.1893  0.1722  0.0943
  214W        W 1078  11.944  27.293   8.446 -0.0184  0.0268  0.1222
  215W        W 1079  10.319  24.218  10.979 -0.0668  0.1223 -0.0934
  216W        W 1080  12.632  25.817   9.411  0.1945  0.0574 -0.0456
  217W        W 1081  15.322  28.320   8.357 -0.3077  0.1774 -0.1329
  218W        W 1082  10.930  29.109  12.261  0.0208  0.1474 -0.1384
  219W        W 1083   8.693  26.692   7.331 -0.3593 -0.0793 -0.1878
  220W        W 1084  12.126  24.876  10.694  0.2119  0.1120  0.1225
  221W        W 1085  14.098   1.163   6.861  0.0281 -0.2445 -0.0339
  222W        W 1086  11.401  27.834   6.978  0.2675  0.2389  0.2770
  223W        W 1087  13.449  26.203   9.188  0.2033  0.0273 -0.3363
  224W        W 1088  15.678  27.199   8.966  0.0127 -0.1180 -0.0772
  225W        W 1089  11.158  24.668  11.817  0.3590 -0.0020 -0.0294
  226W        W 1090  12.673  25.879  10.874  0.3270 -0.1157 -0.0000
  227W        W 1091  13.366  28.743   7.573  0.0366  0.0820  0.0743
  228W        W 1092  14.229  28.215   9.733 -0.1768 -0.2021 -0.0978
  229W        W 1093  11.990  26.474  11.535  0.1111 -0.1297 -0.1379
  230W        W 1094  12.468  26.867   9.722  0.0535 -0.2872 -0.3331
  231W        W 1095  10.371  27.873   8.453 -0.0464 -0.1129  0.1200
  232W        W 1096  13.877  28.320   7.615  0.0577 -0.0708  0.3131
  233W        W 1097  12.152  27.664   9.826  0.0182 -0.0094  0.0764
  234W        W 1098  11.843   0.473  12.330  0.1608  0.0591 -0.0272
  235W        W 1099  14.249  27.653   7.122  0.0645  0.2200  0.1410
  236W        W 1100  14.133  26.654   9.774  0.2407 -0.0748 -0.1108
  237W        W 1101  12.454  26.710  11.814 -0.4977  0.0158 -0.1184
  238W        W 1102  12.967  26.963   9.534  0.2611 -0.1900 -0.2409
  239W        W 1103  13.709  26.529   9.981 -0.0123 -0.2565 -0.0085
  240W        W 1104  14.793  26.016   7.350 -0.0183  0.1206  0.3123
  241W        W 1105  14.210  28.268   7.983  0.0086 -0.1378  0.0030
  242W        W 1106  13.138  28.261   8.559 -0.2864 -0.0506  0.0466
  243W        W 1107  11.571   0.702  10.691 -0.0885 -0.0769  0.1930
  244W        W 1108  12.904  27.945   9.365 -0.0150  0.0283 -0.1299
  245W        W 1109  13.282  25.140   9.640 -0.2092 -0.0272 -0.0216
  246W        W 1110  13.127  28.400   6.683  0.0812 -0.3619 -0.0509
  247W        W 1111   9.628  25.708  11.096  0.2448  0.0988 -0.0858
  248W        W 1112  14.059  27.171  10.745 -0.0938  0.0955  0.0965
  249W        W 1113  11.227   1.104  10.622 -0.5265  0.2484  0.0714
  250W        W 1114  15.365  28.663   9.251 -0.1245  0.1597 -0.1027
  251W        W 1115  13.559  27.883   9.616 -0.1099 -0.0474  0.0308
  252W        W 1116  11.411  25.989   8.293 -0.1007 -0.1672  0.3269
  253W        W 1117  14.258   2.710  11.865  0.2440 -0.1450 -0.0670
  254W        W 1118  14.218  27.696  10.760 -0.0458  0.2417 -0.0119
  255W        W 1119  12.480  26.779  13.575  0.0364  0.1528 -0.3134
  256W        W 1120  11.948  27.062   8.960  0.0116 -0.0183  0.0775
  257W        W 1121  14.010  25.729   9.505  0.0304 -0.0166 -0.0877
  258W        W 1122  13.316  26.780  12.202  0.2289 -0.0246  0.0151
  259W        W 1123  12.575  28.370   9.650 -0.2439  0.1259  0.0451
  260W        W 1124  13.382   1.195   9.333  0.0143 -0.1369  0.0494
  261W        W 1125  10.960  27.538   6.535 -0.1629 -0.3804  0.0264
  262W        W 1126  13.925  26.611  11.626 -0.0973  0.1088  0.1308
  263W        W 1127  13.217  28.216   6.174 -0.0709 -0.0453 -0.0768
  264W        W 1128   8.925  28.915   8.315  0.2183 -0.0073 -0.2348
  265W        W 1129  10.349  26.721   9.865 -0.1687 -0.0454 -0.0470
  266W        W 1130   8.047  26.221   8.760  0.1217  0.2272  0.2264
  267W        W 1131  15.715  28.133   8.011 -0.0217  0.0315  0.1117
  268W        W 1132  13.924   0.958   9.270 -0.0653  0.1128 -0.0664
  269W        W 1133  12.420  28.264   9.156  0.0633  0.0029 -0.1079
  270W        W 1134  13.324  25.888  10.751 -0.1372 -0.0173 -0.1445
  271W        W 1135  15.494   0.179  11.647  0.0998 -0.2348  0.2525
  272W        W 1136  13.324  25.738   7.841 -0.0269  0.0060 -0.2552
  273W        W 1137  10.565  26.042   8.805  0.3736 -0.1966  0.1630
  274W        W 1138  10.655  22.851   6.930  0.0610 -0.2554  0.1700
  275W        W 1139  13.724  26.108  10.904 -0.1095  0.1004 -0.0669
  276W        W 1140  12.783  26.044   9.897  0.2440 -0.0120 -0.2311
  277W        W 1141  11.187  25.789   8.704  0.3250 -0.0247  0.0630
  278W        W 1142  14.740  27.799   9.869  0.1986  0.0877  0.1068
  279W        W 1143  13.476  25.729   9.361 -0.0965 -0.1320 -0.1429
  280W        W 1144  14.606   0.137   7.313  0.4362  0.0345  0.1202
  281W        W 1145  14.924  26.237  12.763 -0.1505  0.0367  0.0002
  282W        W 1146  12.734  29.139  10.154  0.0477 -0.0622  0.0982
  283W        W 1147  11.847  25.802  11.024 -0.0736  0.0738  0.0458
  284W        W 1148  13.082  28.747  10.335  0.2641 -0.0455 -0.0112
  285W        W 1149  11.637  25.931  15.230 -0.0212  0.1163 -0.0224
  286W        W 1150   8.866  25.721   9.455 -0.0994  0.1014  0.1521
  287W        W 1151  11.683  26.754   8.541  0.2190 -0.0156 -0.3070
  288W        W 1152  11.244   0.064   9.620  0.0201 -0.0809 -0.0536
  289W        W 1153  14.116  27.725  12.019  0.1748 -0.0416  0.3601
  290W        W 1154  11.192  27.721   7.440  0.0718  0.1088  0.2855
  291W        W 1155  14.013  26.863  10.295  0.3400 -0.1395  0.1577
  292W        W 1156  14.529  23.655  10.717 -0.0070 -0.2622 -0.4551
  293W        W 1157  12.705  28.972   8.431 -0.0721  0.0937  0.1268
  294W        W 1158  13.133   0.432   8.468  0.1631  0.3520 -0.0653
  295W        W 1159  13.119  26.038   9.516  0.1460  0.1872  0.2106
  296W        W 1160  15.954  24.513   8.502 -0.0427 -0.0513 -0.2720
  297W        W 1161  11.238  27.577  11.387  0.2733  0.1561  0.0887
  298W        W 1162  13.810  28.855   9.278  0.0034 -0.0398  0.0608
  299W        W 1163  10.420   0.044   8.638  0.3301  0.1872  0.3792
  300W        W 1164  11.793  26.280   9.477  0.3144 -0.1937 -0.0366
  301W        W 1165  12.360   1.158   6.215  0.1170  0.0373 -0.1801
  302W        W 1166  11.832   0.692  10.256 -0.1220 -0.1576  0.1641
  303W        W 1167  11.410  29.141   8.434 -0.0603 -0.0751 -0.0761
  304W        W 1168   8.629  26.132   9.676  0.2622 -0.1262 -0.0210
  305W        W 1169  12.901  28.255  10.589 -0.1116 -0.0149 -0.0848
  306W        W 1170  11.714  28.346  11.276 -0.0646 -0.0754  0.0822
  307W        W 1171  14.887  28.990   9.579  0.0923  0.1005  0.0973
  308W        W 1172   9.757  22.606   6.764  0.1050  0.1869  0.2510
  309W        W 1173   8.951  23.266   8.276  0.2059  0.1920 -0.2128
  310W        W 1174  12.908  28.491   9.255  0.1191 -0.0744  0.2896
  311W        W 1175  13.283   0.836   7.274  0.3399 -0.0505  0.2143
  312W        W 1176  11.735  26.934   8.103 -0.2030  0.0438  0.1827
  313W        W 1177  11.245  27.582  10.222  0.2165  0.1912  0.3577
  314W        W 1178  10.797  23.511  11.152  0.2139  0.2823 -0.2456
  315W        W 1179  12.987  23.909   9.673 -0.0496  0.2451 -0.1053
  316W        W 1180  12.010  26.509   9.799  0.3648 -0.1519 -0.3034
  317W        W 1181  12.370  28.055  10.624  0.1824  0.0029  0.3274
  318W        W 1182  10.627  23.684   8.688 -0.1110 -0.2193  0.0391
  319W        W 1183  12.175  27.382   7.201 -0.0673 -0.2471 -0.0877
  320W        W 1184  13.564  28.834   8.037 -0.3424 -0.1437  0.1659
  321W        W 1185  12.832  26.232   8.169  0.0019 -0.0084 -0.2498
  322W        W 1186  13.221  26.167  11.249 -0.1206 -0.1504 -0.2121
  323W        W 1187  17.069  27.922   7.873 -0.0656  0.0139 -0.1006
  324W        W 1188  11.162  25.628  10.193  0.0475 -0.0569 -0.0366
  325W        W 1189  12.043  26.771   9.399 -0.0135  0.4334 -0.2233
  326W        W 1190  13.623  24.587   8.638 -0.0316  0.0252  0.0585
  327W        W 1191  12.300  27.843  11.107  0.0039  0.1094  0.0673
  328W        W 1192  12.342   0.365  10.423 -0.2872  0.0005  0.3815
  329W        W 1193  11.230   0.512   9.907 -0.1493 -0.0887  0.0350
  330W        W 1194   9.699  26.300   8.801 -0.0778 -0.0661  0.0452
  331W        W 1195  11.858  27.722   9.285  0.1588 -0.3451  0.3472
  332W        W 1196  10.058  25.144  11.103 -0.0586  0.3946  0.0320
  333W        W 1197  13.454  25.376  11.625 -0.0625 -0.3498 -0.0491
  334W        W 1198  11.525  23.099  10.944  0.2386 -0.1163  0.3263
  335W        W 1199  15.609  27.030  11.718  0.1279 -0.0516 -0.0656
  336W        W 1200  14.495  27.512   8.603  0.0592  0.5166 -0.0860
  337W        W 1201  15.232   0.489   8.006  0.1457 -0.0827 -0.3089
  338W        W 1202  10.851   0.403   7.582 -0.2659 -0.3224  0.1575
  339W        W 1203  11.706  26.667  11.123 -0.3785  0.0979  0.1554
  340W        W 1204  11.564  24.375   8.836 -0.2537  0.0676 -0.2583
  341W        W 1205  16.826  26.889   8.536 -0.3259 -0.0133 -0.0119
  342W        W 1206  13.191  28.284   9.600 -0.2069 -0.0163  0.0703
  343W        W 1207  10.800  23.907  10.811 -0.0133  0.2370  0.0395
  344W        W 1208  11.676  24.447   7.304 -0.0820  0.0264 -0.2704
  345W        W 1209  13.008   1.560   5.860 -0.2098  0.0445 -0.1964
  346W        W 1210  10.221  24.277  10.138 -0.0696  0.1197 -0.1710
  347W        W 1211  10.491  26.281   9.228  0.4598  0.0075 -0.0865
  348W        W 1212  12.722   0.249   9.330 -0.0211  0.0944  0.0472
  349W        W 1213  13.947   2.578   8.523 -0.0166 -0.1025  0.0291
  350W        W 1214  13.788   0.373  10.214  0.2918  0.1725 -0.2141
  351W        W 1215  11.246  24.778  10.690  0.0171 -0.1140 -0.1144
  352W        W 1216  11.512  26.134  10.298 -0.1424 -0.1263  0.0480
  353W        W 1217  11.289  27.257   6.196  0.0879  0.1238  0.0438
  354W        W 1218  13.836   2.009   6.843 -0.0414 -0.0204  0.5770
  355W        W 1219  13.437  26.702  12.717  0.0501  0.0520  0.0032
  356W        W 1220  13.177   1.268  11.478 -0.2385 -0.2271 -0.0358
  357W        W 1221  16.679  25.744   9.852  0.3519  0.3273  0.1511
  358W        W 1222  12.264  24.921  13.657 -0.0676 -0.0415  0.2581
  359W        W 1223  12.922   0.894   9.872 -0.4035 -0.2213  0.0032
  360W        W 1224  12.927  27.267   7.807 -0.0646  0.0296  0.1794
  361W        W 1225  12.754  28.621   6.451 -0.0020 -0.1028 -0.1656
  362W        W 1226  11.018  28.706   9.894 -0.1321 -0.0642  0.2001
  363W        W 1227   8.138  25.520   8.047 -0.1924  0.1057 -0.0606
  364W        W 1228   9.464  24.009   9.493  0.0268 -0.2113  0.1375
  365W        W 1229  11.100  25.224  10.931 -0.2821 -0.0980  0.0616
  366W        W 1230  11.648  27.619   6.589 -0.1800 -0.0542  0.4286
  367W        W 1231  11.690  24.518   9.975 -0.1001  0.0225  0.1082
  368W        W 1232  11.571  27.082  10.804 -0.1779 -0.0357  0.0635
  369W        W 1233  15.871   0.489   8.564  0.1728  0.2131 -0.1826
  370W        W 1234   8.457  24.238  11.066 -0.0864  0.2154 -0.0462
  371W        W 1235  10.981  28.239   8.875  0.0831 -0.2039 -0.4753
  372W        W 1236  13.788  27.158   8.337  0.0048  0.0222  0.0021
  373W        W 1237  17.165  28.950  10.262  0.4193 -0.1623 -0.3734
  374W        W 1238  14.426  24.127  10.730  0.1893 -0.2508  0.1138
  375W        W 1239  13.699  28.294   9.421  0.2000 -0.2848 -0.3458
  376W        W 1240  15.044   0.964  11.697  0.0349 -0.2734 -0.2601
  377W        W 1241  17.482  27.245   9.810  0.1373 -0.3868  0.1331
  378W        W 1242  11.261  25.146  12.696 -0.0352 -0.1053 -0.0983
  379W        W 1243  15.485   1.243   9.182  0.1988 -0.2823 -0.1382
  380W        W 1244  14.867   0.304   9.776  0.1081 -0.0086 -0.2635
  381W        W 1245  14.491  25.786   9.618 -0.1771  0.0210 -0.3461
  382W        W 1246   9.928  27.066  12.005 -0.1218  0.1645  0.1240
  383W        W 1247  14.296  28.193  10.752  0.0118 -0.2278  0.2702
  384W        W 1248  11.065  25.035   9.152  0.0005  0.1176  0.1002
  385W        W 1249  11.936  28.614   9.037 -0.0947 -0.0078  0.1430
  386W        W 1250   9.514  27.332  12.215  0.2119  0.1307 -0.0836
  387W        W 1251  12.522  29.090   9.735  0.0171  0.2656 -0.4149
  388W        W 1252  11.120  28.020  10.467 -0.1631  0.0863 -0.1902
  389W        W 1253   9.214  28.029  11.042 -0.0713  0.1881  0.0247
  390W        W 1254  15.919  27.436   9.378 -0.1188  0.0431 -0.0489
  391W        W 1255  12.553   1.549   7.215 -0.1044 -0.1044  0.2256
  392W        W 1256  12.158  28.389  10.930  0.3308 -0.2313 -0.2471
  393W        W 1257  14.664  27.961  10.469 -0.0991 -0.0708 -0.0219
  394W        W 1258  10.447  26.837   9.343  0.0024  0.0078 -0.1824
  395W        W 1259  16.515   0.658  10.077 -0.3678 -0.1851  0.0867
  396W        W 1260  14.279  25.439  13.620 -0.1466 -0.3829 -0.3387
  397W        W 1261  13.313  26.531  11.626 -0.2191 -0.0724  0.0645
  398W        W 1262  12.459  27.420   8.448  0.0747 -0.0497 -0.2448
  399W        W 1263  11.196  28.171   4.358  0.0046  0.0276  0.0643
  400W        W 1264  14.987  28.213   7.472  0.1263 -0.0160  0.1354
  401W        W 1265  12.717  27.258   9.926 -0.0191  0.2289 -0.0083
  402W        W 1266  13.229  28.758   8.437 -0.0176  0.2106  0.1053
  403W        W 1267  13.116  27.268   8.782 -0.0747  0.0513  0.2561
  404W        W 1268  13.303  28.008  10.026  0.2660 -0.0086 -0.0372
  405W        W 1269  11.035  26.720   6.937 -0.0107 -0.1103 -0.0987
  406W        W 1270  13.312  27.423  11.137 -0.1581  0.2587  0.0464
  407W        W 1271  12.923  28.751   9.702  0.0307 -0.0463  0.1321
  408W        W 1272   9.376  25.727   9.351  0.1618  0.1890  0.1788
  409W        W 1273  14.538  27.951   7.770 -0.3257  0.2384 -0.0909
  410W        W 1274  15.293  27.556   9.080  0.1974 -0.1261 -0.0128
  411W        W 1275  12.103  24.786   8.239 -0.1772  0.0969  0.2075
  412W        W 1276  15.921  28.741  10.870 -0.1576  0.1849 -0.0306
  413W        W 1277  16.265  25.877   9.158  0.0477  0.0623  0.0489
  414W        W 1278  14.272  27.032   8.203 -0.1770 -0.0123  0.0203
  415W        W 1279  12.769  25.222   6.552 -0.2535  0.1174 -0.3169
  416W        W 1280  15.425   1.066  10.428 -0.0310  0.1586 -0.0961
  417W        W 1281  11.197   0.066  11.395 -0.1996  0.1606  0.2808
  418W        W 1282  15.929  28.515  10.063  0.0202  0.0055  0.0761
  419W        W 1283  16.232  27.120  11.307  0.0777  0.0375  0.0836
  420W        W 1284  11.775  26.350   8.133 -0.1718  0.2753 -0.2232
  421W        W 1285  12.087  25.324   8.900  0.2781 -0.1003 -0.0535
  422W        W 1286  10.866  25.930  15.085 -0.3278 -0.1076 -0.0845
  423W        W 1287  13.280  27.129  13.571 -0.0548 -0.2386 -0.3611
  424W        W 1288  16.292  27.729   9.562  0.0031 -0.2180  0.1023
  425W        W 1289  13.865  25.842   7.920  0.1299  0.4309  0.1301
  426W        W 1290  12.850  26.727  10.046 -0.2496  0.0397  0.3511
  427W        W 1291  12.220  26.529  12.625 -0.0348  0.0219  0.2479
  428W        W 1292  11.895  25.850   8.148 -0.2955  0.2623 -0.2850
  429W        W 1293  15.679  26.786  10.702 -0.0559  0.1795  0.1657
  430W        W 1294  12.276  27.520  10.737  0.1238  0.1901 -0.2480
  431W        W 1295  14.218  24.873  10.134  0.2939 -0.1865 -0.0011
  432W        W 1296  10.670  25.917  11.340 -0.0217  0.1584  0.0720
  433W        W 1297  17.016  25.700   9.291 -0.2398 -0.0790 -0.1637
  434W        W 1298  12.023  27.052  11.137 -0.0210 -0.1573  0.0464
  435W        W 1299  13.112  27.479  12.032 -0.1726  0.1209  0.0732
  436W        W 1300   9.708  26.860  10.640  0.2478 -0.0163 -0.0792
  437W        W 1301   8.833  25.736   7.686 -0.0509  0.0189  0.1657
  438W        W 1302  14.613  24.374   8.673 -0.2172  0.2481  0.1987
  439W        W 1303  14.121  27.884  11.202 -0.0525  0.3010  0.0595
  440W        W 1304  12.295  26.065   9.680  0.2115 -0.0540  0.1208
  441W        W 1305  13.968  29.034  10.209 -0.3326 -0.0865 -0.3851
  442W        W 1306  14.181  27.364   6.691 -0.0072 -0.0778  0.0602
  443W        W 1307   9.875  26.967  11.447 -0.1558 -0.2197  0.0763
  444W        W 1308  13.251   0.477  11.883 -0.1635 -0.0370 -0.2660
  445W        W 1309  13.126  27.173  10.196  0.1253 -0.0857 -0.1046
  446W        W 1310  11.492  26.610   7.730  0.3414  0.0295  0.0023
  447W        W 1311  11.673  28.977  10.423 -0.0029  0.1986  0.0170
  448W        W 1312  10.870  27.307   7.620 -0.1471  0.0591  0.4361
  449W        W 1313  10.710  25.397   8.873  0.3017 -0.0152 -0.0264
  450W        W 1314  11.076  26.263  10.115  0.1579  0.0205  0.3301
  451W        W 1315  13.230  24.526  14.391 -0.0331 -0.3484  0.0674
  452W        W 1316  14.988  24.688  10.040 -0.1688 -0.1679 -0.0399
  453W        W 1317  12.404  27.251  12.306 -0.0750  0.2872  0.1409
  454W        W 1318  17.210  29.063  13.273 -0.2050  0.1713 -0.1252
  455W        W 1319  15.887  26.636  12.962  0.3086 -0.0457 -0.0820
  456W        W 1320  13.239  26.361   9.908 -0.0018  0.2280 -0.0927
  457W        W 1321  14.972  28.568  10.082 -0.1377  0.3457  0.2837
  458W        W 1322  13.961  27.359  10.301  0.0608 -0.0631 -0.0814
  459W        W 1323  14.300  24.450   9.496  0.0021 -0.0099  0.0378
  460W        W 1324  11.307  23.316   7.012  0.1588 -0.0405 -0.0669
  461W        W 1325  13.261  28.352   5.665 -0.0668 -0.2543 -0.0850
  462W        W 1326  11.952  24.134   9.471  0.0485  0.1748  0.1173
  463W        W 1327  10.216  25.727   9.948  0.1449  0.0454  0.0756
  464W        W 1328  13.140  27.737   7.915 -0.0735 -0.2313  0.2309
  465W        W 1329  13.437  27.229   7.644 -0.1315 -0.1426  0.0269
  466W        W 1330  11.601  27.944  10.344 -0.1434  0.1143  0.1013
  467W        W 1331  10.828  27.880   7.108 -0.5151 -0.0287 -0.0996
  468W        W 1332  10.658  25.257   9.385 -0.3080 -0.1945 -0.3595
  469W        W 1333  13.835  26.844   7.372 -0.2810 -0.2374 -0.1364
  470W        W 1334  11.827  25.096   9.703 -0.1485  0.2062  0.1921
  471W        W 1335  14.691  26.823   8.933 -0.2100 -0.0060 -0.1253
  472W        W 1336  11.189  27.003   7.909 -0.3790  0.0429  0.1429
  473W        W 1337  14.819  28.561  11.324  0.1245 -0.0248  0.1261
  474W        W 1338  12.774  26.492   9.600 -0.0296  0.2077 -0.0348
  475W        W 1339  11.420  28.527  10.297 -0.1729 -0.2311  0.1604
  476W        W 1340  13.907  28.677   9.741  0.0947  0.2258 -0.1388
  477W        W 1341   9.903  28.100   8.839  0.0609  0.0440  0.0373
  478W        W 1342  13.615  26.123   9.640 -0.0419 -0.2117 -0.1600
  479W        W 1343  13.733  24.383  12.640 -0.0606 -0.0216 -0.0344
  480W        W 1344  11.056  25.666   9.695  0.0879  0.0651 -0.0870
  481W        W 1345  12.805  27.050   8.429 -0.0484 -0.0060  0.2183
  482W        W 1346  10.169  24.181  12.686  0.2387  0.0887  0.1184
  483W        W 1347  11.878  26.443   7.307 -0.2689  0.1799  0.1845
  484W        W 1348  12.760  23.313   8.386 -0.0551 -0.0121 -0.0698
  485W        W 1349  10.978   2.855  10.454 -0.0018 -0.1111 -0.0539
  486W        W 1350  14.567  27.184  12.007 -0.0180 -0.3579  0.4440
  487W        W 1351  13.543   0.122   7.808  0.0745  0.2763  0.0106
  488W        W 1352  11.889  26.080  11.926 -0.0307 -0.1930 -0.2469
  489W        W 1353  11.394  25.205  10.353 -0.5361 -0.0644  0.0505
  490W        W 1354  13.829  25.731   7.405 -0.0476 -0.0103 -0.0018
  491W        W 1355  11.915  27.963   8.368 -0.0762  0.3509  0.0486
  492W        W 1356  14.202  25.787   8.669 -0.1271  0.0689  0.0744
  493W        W 1357  14.610  27.916   8.927  0.1028  0.2049 -0.2910
  494W        W 1358  15.026  27.561  10.492 -0.2341  0.3026 -0.0258
  495W        W 1359  14.317  28.238   7.390  0.2014 -0.1021 -0.0350
  496W        W 1360  10.583  26.378  10.173  0.1086 -0.1415 -0.0958
  497W        W 1361  11.219  24.729  10.112  0.0232  0.0494 -0.1689
  498W        W 1362  16.027   0.621   9.888 -0.3964 -0.2249 -0.0827
  499W        W 1363  11.430  24.169  10.185  0.0630  0.2096  0.0052
  500W        W 1364  13.761  26.874   9.507  0.0208 -0.1198  0.0511
  501W        W 1365  13.059  27.741  10.375  0.3533  0.1826  0.3453
  502W        W 1366  13.683  27.912   8.771 -0.3606  0.1196  0.0721
  503W        W 1367  12.038  25.840   9.069 -0.0499 -0.1501 -0.0654
  504W        W 1368  13.458  28.317  10.390  0.1593  0.0842  0.0420
  505W        W 1369  13.589  27.909  11.167  0.3513  0.1292 -0.0092
  506W        W 1370  10.605  25.407  10.928 -0.1433 -0.0239 -0.3110
  507W        W 1371  12.516   1.462   9.394 -0.1348 -0.1615 -0.0495
  508W        W 1372  10.865  28.402  11.401 -0.2955  0.0811  0.0687
  509W        W 1373  10.144  25.400  13.068 -0.0277 -0.2030 -0.0203
  510W        W 1374  16.400  27.771  13.234  0.1780  0.1181 -0.0442
  511W        W 1375  13.569  27.008  11.012 -0.5010 -0.0185 -0.1549
  512W        W 1376  11.646  23.601   7.673 -0.0434  0.0535 -0.0996
  513W        W 1377  12.275   0.286   8.039  0.3269 -0.2084 -0.3411
  514W        W 1378  14.212   0.715   9.630  0.0702 -0.1922 -0.1060
  515W        W 1379  12.416  26.356   9.323  0.1347 -0.2288  0.1963
  516W        W 1380  11.797  27.317  12.044  0.0481  0.0225  0.1646
  517W        W 1381  14.011   0.061   9.580 -0.0121  0.1051 -0.2845
  518W        W 1382  11.445  25.854   9.222  0.2050 -0.1556 -0.1297
  519W        W 1383  14.426  28.668   6.757  0.1504 -0.1681 -0.1525
  520W        W 1384  11.095  25.708   7.926 -0.0396 -0.2438 -0.3074
  521W        W 1385  11.690   0.005  15.243 -0.0373 -0.3755  0.0471
  522W        W 1386   9.540  26.775  16.751  0.0503 -0.0511 -0.0905
  523W        W 1387  16.376  27.746  10.085  0.1261  0.1466  0.0877
  524W        W 1388  17.328  28.905  11.825  0.0369 -0.0434  0.0402
  525W        W 1389  11.810  27.501  11.037  0.0003 -0.1517 -0.1025
  526W        W 1390  11.178  23.951  11.130 -0.0501 -0.3955 -0.0947
  527W        W 1391   8.354  24.737  12.005 -0.1038  0.1646 -0.1981
  528W        W 1392  14.260  26.609  12.021 -0.0511  0.0268 -0.3182
  529W        W 1393  15.177  28.754  12.944  0.0489 -0.1560 -0.1358
  530W        W 1394  10.595  26.978  13.274 -0.1156  0.0141 -0.4202
  531W        W 1395  14.081  25.347  14.158 -0.5108 -0.2617 -0.1829
  532W        W 1396  15.747  25.650  12.874  0.0594 -0.0059  0.0620
  533W        W 1397  13.922  26.994  11.931 -0.1162 -0.2512  0.2209
  534W        W 1398  15.593  28.398  12.222  0.0554 -0.1992 -0.2146
  535W        W 1399  14.887  24.852  12.617  0.0079 -0.2667  0.0172
  536W        W 1400   8.955   0.375  14.771  0.2429 -0.2808  0.1286
  537W        W 1401  10.717  26.097  11.861  0.1910  0.3879  0.0272
  538W        W 1402  12.960  24.414  15.345 -0.2275 -0.0670  0.1179
  539W        W 1403  13.460  28.161  13.081  0.1781 -0.1542 -0.2287
  540W        W 1404  13.390  27.639  11.615  0.1497 -0.0246  0.1656
  541W        W 1405  14.041  27.704  15.867 -0.1424  0.1312  0.3585
  542W        W 1406  10.999  27.004  12.004 -0.1266 -0.2638  0.2622
  543W        W 1407   9.857  27.824  13.222 -0.2547 -0.0017 -0.1564
  544W        W 1408   8.635  26.875  14.082 -0.1365 -0.1834 -0.0246
  545W        W 1409   8.720  28.791  15.044  0.1790 -0.0464  0.0331
  546W        W 1410  12.748  29.147  14.612 -0.0473  0.0393  0.0044
  547W        W 1411  12.855  27.531  13.253  0.1953  0.0076 -0.0520
  548W        W 1412  13.977  28.416  13.578 -0.0519  0.0073  0.0731
  549W        W 1413  13.219  26.608  14.454  0.2162 -0.1522  0.1658
  550W        W 1414   7.958  26.639  14.525  0.1744 -0.1478 -0.4386
  551W        W 1415  13.708  28.981  12.534  0.0046  0.0427  0.0578
  552W        W 1416  12.948  28.009  13.268  0.1292 -0.0290 -0.0274
  553W        W 1417  11.682  27.117  12.473 -0.0332  0.2776  0.1212
  554W        W 1418  11.367  28.771  16.058 -0.3654 -0.1333 -0.0432
  555W        W 1419  11.117  25.367  12.246 -0.0347  0.0204 -0.0124
  556W        W 1420  12.069   0.036  13.526  0.0943 -0.0051  0.0892
  557W        W 1421   9.830  29.129  12.506 -0.0304  0.2353 -0.0560
  558W        W 1422  12.585  27.109  14.068 -0.1306 -0.0030  0.0787
  559W        W 1423  15.568  27.820   9.559 -0.4617 -0.0582 -0.0820
  560W        W 1424  15.633  28.033  10.809 -0.1339  0.1002 -0.3472
  561W        W 1425  16.029  26.788   9.579 -0.0749 -0.1737  0.4423
  562W        W 1426  12.750  28.536  11.481  0.6568  0.0599  0.1356
  563W        W 1427  12.699   1.167  11.288 -0.0595  0.2583 -0.0310
  564W        W 1428  15.835  27.941  12.140  0.0155  0.2642 -0.2915
  565W        W 1429  14.696   0.569  11.831  0.2087 -0.1468  0.1243
  566W        W 1430  12.035  28.889  11.849  0.0624  0.0129  0.0239
  567W        W 1431  12.134  24.327  15.404 -0.2445  0.2410  0.1226
  568W        W 1432  16.640  26.718  14.030  0.2400  0.0187 -0.2892
  569W        W 1433  12.082  26.831  13.250 -0.0078  0.0807  0.2033
  570W        W 1434  12.840  26.341  10.929  0.0400  0.1865  0.0430
  571W        W 1435  12.412  28.158  13.145  0.0271 -0.3451  0.0857
  572W        W 1436  12.454  25.975  10.383  0.1824  0.1062 -0.0789
  573W        W 1437  14.090  28.643  12.323 -0.0831  0.0927 -0.0036
  574W        W 1438  15.579  26.714   9.772  0.3215 -0.0472 -0.0533
  575W        W 1439  13.752  26.122  11.454 -0.3537  0.2266  0.1586
  576W        W 1440  14.643  26.788   9.744 -0.2825  0.3426 -0.2242
  577W        W 1441   9.526  29.048  15.643 -0.1234 -0.0061 -0.2200
  578W        W 1442  12.595  28.086  13.728 -0.0149  0.2259  0.0643
  579W        W 1443  10.663   1.280  11.550  0.2379 -0.1854  0.0131
  580W        W 1444  11.394  27.713  13.792 -0.0158 -0.0296  0.2152
  581W        W 1445  10.263  25.052  12.381 -0.1889  0.2233 -0.2108
  582W        W 1446  11.220   0.306  14.509 -0.0776 -0.1493 -0.2596
  583W        W 1447  11.609  28.835  13.217 -0.0614  0.1153 -0.0914
  584W        W 1448  10.935  27.571  11.985  0.0722  0.1832 -0.1609
  585W        W 1449  12.729  26.093  11.381  0.1588 -0.0120 -0.1602
  586W        W 1450  14.326  26.424  14.909  0.3651  0.0849 -0.0491
  587W        W 1451  12.285  25.747  11.695 -0.1119  0.0033  0.1173
  588W        W 1452  10.992  26.355  11.562  0.1193 -0.1792 -0.2132
  589W        W 1453   9.727   1.972  11.391  0.1649  0.2915  0.1857
  590W        W 1454  13.697   0.775  13.596 -0.0494  0.0845 -0.2271
  591W        W 1455  14.678  27.586  13.009  0.5270 -0.0515  0.4330
  592W        W 1456  11.558  28.128  13.515  0.1550  0.0134 -0.1587
  593W        W 1457  13.894  29.089  12.107 -0.0083  0.1726  0.1705
  594W        W 1458  12.871  27.816  16.969  0.3360  0.0834 -0.1316
  595W        W 1459  16.643  25.966  12.973 -0.1441 -0.0768 -0.0715
  596W        W 1460  11.042  27.188  11.094 -0.0656 -0.1070 -0.0780
  597W        W 1461  11.305  28.758  11.161  0.0277  0.0845 -0.0361
  598W        W 1462  11.882  28.557  14.483  0.1580 -0.0798 -0.3433
  599W        W 1463  12.346  25.093  11.068 -0.0270 -0.4583 -0.2143
  600W        W 1464  14.609  27.824  11.035  0.1953  0.1266 -0.0587
  601W        W 1465  10.673  27.882  14.467  0.1503  0.1636  0.0928
  602W        W 1466  11.193  26.608  13.599  0.2180  0.0776  0.0515
  603W        W 1467  12.582  25.994  13.395 -0.0798 -0.1268  0.4265
  604W        W 1468  12.632  27.986  12.675  0.0543  0.1452 -0.0065
  605W        W 1469  11.137  27.501  16.006  0.0804 -0.0134  0.1176
  606W        W 1470  13.755   1.344  10.560  0.2006 -0.0326  0.0492
  607W        W 1471  16.564  26.731  15.612 -0.2792  0.0654 -0.1973
  608W        W 1472  15.758  25.706  13.989  0.0612 -0.1677 -0.1270
  609W        W 1473  13.592  28.501  16.417  0.2405  0.0271  0.1852
  610W        W 1474  16.437  24.159  13.322  0.0895  0.0729 -0.1293
  611W        W 1475  11.777  27.442  12.911  0.1539  0.1645  0.2538
  612W        W 1476  13.706   1.448  14.825  0.2578 -0.0327  0.2973
  613W        W 1477  11.204  28.132  13.136  0.0943 -0.1107 -0.1851
  614W        W 1478  12.780  25.895  11.859  0.2230  0.1028  0.0251
  615W        W 1479  13.274  26.237  14.791 -0.0457 -0.0487 -0.0764
  616W        W 1480  15.584  25.407  10.063 -0.0174  0.0405 -0.2026
  617W        W 1481  12.332  26.543  11.097  0.0596 -0.2420  0.2656
  618W        W 1482  13.566   0.520  16.126 -0.1421  0.1582  0.0368
  619W        W 1483  13.805  25.360  10.996 -0.0007  0.2988 -0.1043
  620W        W 1484  16.334  28.206  11.508  0.2625  0.2498  0.2184
  621W        W 1485  15.289   0.569  11.916  0.2700  0.0557 -0.1193
  622W        W 1486   9.920  27.451  11.174 -0.1019  0.0239 -0.1090
  623W        W 1487  11.424  25.380   8.874  0.1918  0.5112  0.1007
  624W        W 1488  14.969  28.090  15.495  0.4066 -0.2924  0.1345
  625W        W 1489  18.862  27.758  12.149  0.1179  0.0440  0.1072
  626W        W 1490  14.069  25.945  13.384 -0.2836 -0.2209 -0.1853
  627W        W 1491  11.235  27.956   9.806 -0.1459  0.1275 -0.0975
  628W        W 1492  14.705  27.438  13.895  0.0221  0.0636  0.1127
  629W        W 1493  11.724  26.639  12.518  0.0995  0.0648  0.4222
  630W        W 1494  14.675  26.399  12.381 -0.2879 -0.2552  0.1390
  631W        W 1495   8.925  26.323  13.407  0.3017 -0.2972  0.0715
  632W        W 1496  14.974  27.009  10.405 -0.2706  0.1165 -0.0436
  633W        W 1497  12.795  28.448  12.341  0.0718  0.0361  0.4714
  634W        W 1498  13.617  27.625  13.929 -0.0373  0.1650  0.2925
  635W        W 1499  10.019  28.913  11.205 -0.1316 -0.0326  0.1328
  636W        W 1500  11.678  28.720  12.687 -0.0939  0.0654  0.1091
  637W        W 1501  17.569  26.455  12.824  0.1836 -0.2741 -0.3408
  638W        W 1502  14.630   0.755  14.093 -0.0344  0.0354 -0.0645
  639W        W 1503  12.679  23.685  14.912  0.0985 -0.1289 -0.3319
  640W        W 1504  13.998  28.774  11.594  0.0261  0.1204 -0.2060
  641W        W 1505  15.546  27.241  12.634 -0.0868  0.2966 -0.0876
  642W        W 1506  15.064  28.067  10.112 -0.0269  0.1399 -0.0435
  643W        W 1507  15.492  26.712  11.171 -0.0516 -0.0816  0.1151
  644W        W 1508  14.215  27.495   9.032 -0.0787  0.0104 -0.2407
  645W        W 1509  13.281  27.876  14.184 -0.0638 -0.0246 -0.1809
  646W        W 1510  13.946  28.135  12.369  0.0563 -0.1405 -0.3403
  647W        W 1511  11.699  27.833  12.315 -0.0783 -0.3782 -0.1511
  648W        W 1512  17.041  28.396  14.297 -0.1300 -0.0500 -0.2670
  649W        W 1513  16.537   0.377  13.134  0.4079  0.1230  0.3214
  650W        W 1514   9.779   0.096  11.506  0.1949  0.1013 -0.2161
  651W        W 1515  14.081  27.939  14.893 -0.2620 -0.0372 -0.3307
  652W        W 1516  13.003  26.554  12.495 -0.1366  0.2814 -0.2862
  653W        W 1517  13.418   0.419  13.101  0.2417  0.1070  0.2247
  654W        W 1518  16.105  24.686  14.301  0.3263  0.1785 -0.4392
  655W        W 1519  13.594  27.419  12.009 -0.0835  0.1462 -0.0877
  656W        W 1520  11.632  25.932  13.058  0.0333 -0.1079  0.1889
  657W        W 1521  11.550  24.359  13.268 -0.1394 -0.0432 -0.0383
  658W        W 1522  13.945  25.736  13.850  0.0433  0.0661 -0.0025
  659W        W 1523  10.626  27.275  10.707  0.1105  0.0902 -0.0063
  660W        W 1524   9.997  27.533  12.182  0.1034 -0.0881 -0.0391
  661W        W 1525  10.249  24.297  12.180 -0.2329  0.0360 -0.1652
  662W        W 1526  12.413  25.169  15.153  0.1135 -0.0480 -0.1230
  663W        W 1527  14.239   1.377  11.673 -0.0724 -0.0712  0.1307
  664W        W 1528  11.167  26.634  11.093  0.0715 -0.0283 -0.0069
  665W        W 1529  11.196   0.960  11.359 -0.0194  0.0269  0.2222
  666W        W 1530  12.032  26.681  10.664  0.1868 -0.0046 -0.1756
  667W        W 1531  15.699  26.672  14.933 -0.0277 -0.1505 -0.0794
  668W        W 1532  10.736   2.076  10.784  0.0740 -0.0421  0.2891
  669W        W 1533  12.746  27.760  10.738 -0.2962 -0.0191  0.2729
  670W        W 1534  12.896  26.663  11.973 -0.2544 -0.0850  0.1805
  671W        W 1535  13.911   1.645  11.427  0.0520  0.0204 -0.1426
  672W        W 1536  12.599  23.945  10.006  0.0351 -0.0054 -0.2604
  673W        W 1537  12.206  25.597  10.811 -0.2010  0.3260  0.1824
  674W        W 1538  10.653  26.169  12.598  0.1140 -0.1581 -0.0411
  675W        W 1539  13.105   1.586  12.483  0.2633  0.3076 -0.1748
  676W        W 1540  14.203  26.446  12.535 -0.0796 -0.1680 -0.1627
  677W        W 1541  10.969  27.791  13.536  0.1250 -0.0144  0.2081
  678W        W 1542  10.575  28.791  15.529 -0.2995 -0.1345  0.2349
  679W        W 1543  10.329  26.203  13.983 -0.0118 -0.3791 -0.2535
  680W        W 1544  12.999  25.631  11.287 -0.0915 -0.1325  0.1292
  681W        W 1545  13.578  27.813  14.965 -0.1169 -0.0320 -0.0008
  682W        W 1546  12.847  27.199  15.441 -0.1354  0.0034 -0.0689
  683W        W 1547  14.381  27.312  13.470  0.1810 -0.0874 -0.2805
  684W        W 1548  13.820  29.018  13.733  0.1489  0.0416  0.1716
  685W        W 1549  14.877  26.724  14.209 -0.0390 -0.1656  0.0127
  686W        W 1550  12.578  25.081  14.375  0.2222 -0.1752 -0.0123
  687W        W 1551  12.906  27.475  11.553 -0.1726 -0.0271 -0.0830
  688W        W 1552  13.120   0.416  14.155 -0.2533 -0.2755  0.0083
  689W        W 1553  13.903  27.395  11.201  0.2864 -0.0854  0.0387
  690W        W 1554   9.670  27.884  11.506  0.0256 -0.1292 -0.0523
  691W        W 1555  15.549  27.207  10.414  0.0827 -0.0012  0.1818
  692W        W 1556   9.858  25.502  14.003  0.1571  0.0833 -0.1073
  693W        W 1557  12.860   0.018  11.974 -0.1675 -0.0046  0.5916
  694W        W 1558  17.662  28.003  10.058  0.0765  0.0834  0.2482
  695W        W 1559  11.848  27.089  16.471 -0.0860 -0.2743 -0.2665
  696W        W 1560  16.955  26.580  13.654 -0.2227  0.2347  0.2317
  697W        W 1561  11.860   0.217  11.810 -0.0353  0.2621  0.0668
  698W        W 1562  13.482  29.039  14.139 -0.2365 -0.0654 -0.1032
  699W        W 1563  11.819  26.906  11.667 -0.0882  0.1703  0.0053
  700W        W 1564  12.940  26.824  13.815  0.0731 -0.0732  0.1570
  701W        W 1565  12.060  26.493  12.085 -0.1073 -0.2536 -0.0827
  702W        W 1566  14.344  26.484  10.228 -0.1374  0.1429  0.0999
  703W        W 1567  13.304  28.512  10.827 -0.2653  0.0075  0.1878
  704W        W 1568  13.963  25.483  12.507 -0.2202 -0.1330  0.1426
  705W        W 1569  13.511  26.862  10.299  0.0512  0.1092 -0.3211
  706W        W 1570  13.204  25.366  12.685 -0.2185  0.0486  0.1251
  707W        W 1571  15.247  24.946  11.628 -0.1938  0.0122  0.1598
  708W        W 1572  12.121  25.075  12.091  0.0033  0.0040  0.1119
  709W        W 1573  14.505  26.946  10.250  0.0669 -0.0463 -0.1852
  710W        W 1574  13.615  28.172  13.908  0.0440  0.2398 -0.0168
  711W        W 1575  14.242  26.895   9.289  0.2998  0.1363  0.0233
  712W        W 1576  10.089   0.435  15.449  0.2666 -0.0737  0.2377
  713W        W 1577  15.189  24.460  12.563  0.2638 -0.2099  0.0059
  714W        W 1578  15.744  25.398  11.900  0.0167 -0.2295 -0.0172
  715W        W 1579  12.598  27.298  14.573  0.1685  0.0370  0.0109
  716W        W 1580  12.287  25.051  13.093 -0.3553 -0.3051  0.0145
  717W        W 1581  14.084  25.058  12.252  0.4165  0.2271  0.1738
  718W        W 1582  11.199  25.650  13.055  0.0594  0.2146  0.0815
  719W        W 1583  11.998  22.808  13.084 -0.0765  0.0844  0.1939
  720W        W 1584  16.325  25.084  13.887 -0.1586 -0.0278  0.1985
  721W        W 1585  11.877  25.553  12.860 -0.3272  0.0240  0.1922
  722W        W 1586  11.314   0.219  12.439  0.1291 -0.1107  0.0794
  723W        W 1587  16.732  27.332  11.252 -0.0989  0.0913 -0.1469
  724W        W 1588  12.916  22.832  14.157  0.2484  0.0029 -0.4133
  725W        W 1589  13.322  27.115  16.034  0.2267 -0.2385 -0.3155
  726W        W 1590   7.265  23.789   8.774 -0.1268  0.2782  0.1193
  727W        W 1591  13.544  26.787  13.269  0.0010 -0.1917  0.3145
  728W        W 1592  12.297  28.232  11.461  0.0878 -0.1428  0.1418
  729W        W 1593  11.597  28.990  11.531 -0.0974 -0.4228 -0.0283
  730W        W 1594   9.493  27.582  14.829  0.1728  0.0377  0.4428
  731W        W 1595   9.446  27.675  13.525 -0.1421 -0.1278  0.0382
  732W        W 1596  11.351  28.652  14.103  0.2351 -0.1099 -0.1186
  733W        W 1597  12.988  28.674  15.400  0.1998  0.0856  0.3952
  734W        W 1598  15.819  26.314  13.521  0.2686  0.3069 -0.3672
  735W        W 1599  16.592   0.851  14.294  0.0674 -0.2715  0.0209
  736W        W 1600  13.262  28.635  13.951 -0.0588  0.0695 -0.0296
  737W        W 1601  15.592  27.757  11.280 -0.0076  0.2329  0.1468
  738W        W 1602  12.098  28.445  12.798 -0.3930  0.0126  0.0995
  739W        W 1603  11.834  27.428  11.557  0.0142 -0.0215  0.0835
  740W        W 1604  11.651  25.860  13.935  0.0572 -0.0681  0.1721
  741W        W 1605  11.618  26.140  13.484 -0.0603  0.0751  0.0968
  742W        W 1606  14.598  26.128  14.506  0.1696 -0.0068 -0.1689
  743W        W 1607  11.045  28.178  18.008 -0.1730 -0.4949 -0.0275
  744W        W 1608  12.474  27.693  13.477 -0.2329  0.1780  0.2189
  745W        W 1609  13.940  28.366  11.919  0.1941 -0.2658 -0.0170
  746W        W 1610  13.795  26.645  12.358  0.0335 -0.1390  0.1303
  747W        W 1611  12.089  28.051  13.704 -0.3111  0.1038  0.3083
  748W        W 1612  13.768  26.663  14.282 -0.1208 -0.1748 -0.2353
  749W        W 1613  12.037  28.127  11.988 -0.2529  0.3086 -0.3064
  750W        W 1614  15.605  26.728  13.807 -0.1459  0.0918 -0.1979
  751W        W 1615  11.825  27.467  15.267 -0.1530 -0.1306 -0.4278
  752W        W 1616  11.711  25.143  15.665  0.3087  0.1526  0.2144
  753W        W 1617  12.374  25.192  11.602 -0.0426 -0.0867  0.1082
  754W        W 1618  13.795  28.246  10.751 -0.3128 -0.1270  0.0789
  755W        W 1619  12.260  25.965  12.249 -0.0073  0.2081 -0.0024
  756W        W 1620  11.418  25.530  11.618  0.0926  0.2395 -0.0013
  757W        W 1621  12.124  24.126  12.736 -0.4322  0.3912 -0.0965
  758W        W 1622  15.430  26.347  12.325  0.0277  0.0683 -0.0236
  759W        W 1623  11.327  27.251  12.830  0.2345 -0.0661 -0.2838
  760W        W 1624  14.314  28.487  13.236 -0.0307  0.0438  0.0509
  761W        W 1625  13.652  28.757  10.514 -0.1609  0.2093  0.0964
  762W        W 1626   9.706  28.680  18.152  0.2700 -0.1588 -0.0666
  763W        W 1627  10.093  28.461  16.187 -0.0036  0.2058 -0.0888
  764W        W 1628  12.710  25.501  13.897  0.2641  0.0922  0.2733
  765W        W 1629  10.296  28.408  14.082  0.1324 -0.0848  0.0617
  766W        W 1630  11.266  26.156  10.930  0.0946 -0.4829 -0.1107
  767W        W 1631  12.581  27.013  12.743 -0.0631  0.3331  0.1288
  768W        W 1632  12.387   1.022  13.596 -0.0997  0.0665 -0.0784
  769W        W 1633  14.989  28.979  11.530 -0.0049 -0.1811  0.0339
  770W        W 1634  13.786  23.929  12.333 -0.1817 -0.0569  0.4027
  771W        W 1635  13.910   0.186  12.916 -0.1547  0.1075  0.1738
  772W        W 1636  12.457   0.342  15.445 -0.2672  0.1704 -0.0901
  773W        W 1637  14.119  28.076  12.944  0.2601 -0.1095  0.3490
  774W        W 1638   9.847  26.370  12.928  0.1664 -0.0949 -0.0396
  775W        W 1639   8.770  27.422  12.693 -0.2527 -0.4204  0.0535
  776W        W 1640  14.874  28.821  11.975 -0.0175 -0.1889 -0.0481
  777W        W 1641  13.120  27.772  12.842 -0.0287 -0.0485  0.2178
  778W        W 1642  13.630  23.092  14.532 -0.0684  0.0647  0.0420
  779W        W 1643  17.583  27.821  11.008  0.1153 -0.0727 -0.2865
  780W        W 1644  14.183  27.285  12.386 -0.4081  0.2825  0.1428
  781W        W 1645   9.258  28.351  14.268 -0.5008 -0.2711  0.2062
  782W        W 1646  12.091  26.051  12.925  0.1633  0.0738  0.2104
  783W        W 1647  12.524  28.076  11.982 -0.0442 -0.0208 -0.0740
  784W        W 1648  12.090  23.829  16.182 -0.1209  0.0407  0.4751
  785W        W 1649  10.884   2.649  12.810  0.5125 -0.0585 -0.3415
  786W        W 1650  11.963   2.347  14.304  0.3505  0.1212  0.1145
  787W        W 1651   8.238  25.877  10.847 -0.0273  0.1665  0.1780
  788W        W 1652  15.442  27.369  12.190 -0.1969 -0.2733  0.1242
  789W        W 1653   9.719  24.678  14.189  0.1377  0.1442  0.0686
  790W        W 1654  17.845  25.897  10.349  0.1963  0.0204  0.0775
  791W        W 1655   9.922  24.639   9.923  0.3170  0.0755 -0.2135
  792W        W 1656  14.698  26.982  13.325  0.1156  0.0003  0.1859
  793W        W 1657  12.860  26.483  14.810  0.0487 -0.0476  0.1020
  794W        W 1658  12.961  24.516  13.005 -0.0771  0.3720 -0.2177
  795W        W 1659  13.464  28.659  13.504 -0.2464  0.2655 -0.0004
  796W        W 1660  15.825  28.136  12.617 -0.1750  0.1290 -0.0789
  797W        W 1661  12.641  25.989  14.158  0.2087 -0.0554 -0.2178
  798W        W 1662  12.026  27.935  12.730  0.2134  0.1439  0.1952
  799W        W 1663  12.122  23.749  10.750 -0.2296 -0.0191  0.4331
  800W        W 1664  11.185   0.402  13.530  0.4455  0.1228  0.0825
  801W        W 1665   9.907  26.482  13.921 -0.3638  0.0840 -0.0121
  802W        W 1666  13.164  28.401  11.301 -0.2716 -0.1042  0.0562
  803W        W 1667   9.806  26.973  13.757  0.3200  0.1124 -0.1817
  804W        W 1668  11.067   0.069  15.388  0.0276  0.1644  0.1887
  805W        W 1669  13.801  28.426  11.300 -0.1930 -0.1337 -0.0374
  806W        W 1670  14.168  24.520  15.497  0.5778  0.5417  0.3368
  807W        W 1671  11.792  27.913  11.554 -0.4001  0.3589  0.0212
  808W        W 1672  11.356  27.399  14.972 -0.1314 -0.3043  0.4265
  809W        W 1673  13.005  24.669  12.047 -0.2723 -0.1452  0.0530
  810W        W 1674  12.423  28.928  11.031 -0.0027  0.0530 -0.2363
  811W        W 1675  12.260  24.770  14.194  0.4162  0.0340 -0.0678
  812W        W 1676  15.933  27.368  11.524  0.1006 -0.0060  0.3132
  813W        W 1677  11.380  25.179  13.187 -0.0188 -0.0430 -0.3300
  814W        W 1678  11.030  28.963  13.860  0.0987  0.0146  0.0333
  815W        W 1679  11.380  27.232  11.765  0.3570 -0.0899  0.2242
  816W        W 1680  14.341  25.534  12.159  0.3362  0.1473  0.2771
  817W        W 1681  11.778  26.249  10.678 -0.0816 -0.1514  0.0995
  818W        W 1682  16.855  28.437  15.667  0.0709  0.2878 -0.1870
  819W        W 1683  14.965  28.412  13.232  0.0539 -0.1682 -0.0544
  820W        W 1684   9.647   0.501  13.831 -0.0648 -0.0275 -0.1916
  821W        W 1685  12.539  27.656  10.275  0.2324 -0.0288 -0.0014
  822W        W 1686  13.925  24.100  15.275 -0.0317 -0.3366  0.0779
  823W        W 1687  11.586  27.109  16.029  0.2615  0.1921 -0.2462
  824W        W 1688  12.083  26.910  12.283 -0.0909  0.0594 -0.0600
  825W        W 1689  13.865  28.964  11.135 -0.1165 -0.1459  0.0677
  826W        W 1690  13.061   0.805  13.554 -0.0047 -0.0726  0.3859
  827W        W 1691  15.021   0.741  13.752  0.1646 -0.2643  0.1612
  828W        W 1692  12.117  27.130  13.781  0.0887 -0.1464  0.2170
  829W        W 1693  11.348  26.816  15.190 -0.0145 -0.0564 -0.1461
  830W        W 1694  10.621  27.938  10.605 -0.1208  0.1841 -0.0032
  831W        W 1695  11.223  25.548  14.434 -0.0955 -0.2316 -0.0373
  832W        W 1696  13.020  25.953  16.077 -0.0994  0.2429 -0.0170
  833W        W 1697  15.769  26.285  14.022  0.1494 -0.0521  0.2565
  834W        W 1698  13.148  28.319  12.735 -0.0900  0.0057  0.3955
  835W        W 1699  10.608   0.779  15.036  0.0728 -0.0454  0.1333
  836W        W 1700  13.733  26.235  12.868 -0.4260 -0.3620 -0.0528
  837W        W 1701  10.644  26.621  11.886 -0.0516 -0.2613  0.1761
  838W        W 1702  13.250  26.663  10.905  0.0167  0.0739  0.2215
  839W        W 1703  13.262  24.312  13.865 -0.0087 -0.3546 -0.3874
  840W        W 1704  11.012  25.640  11.842  0.1560 -0.1569  0.0877
  841W        W 1705   9.045   2.825  13.065 -0.0066 -0.3078  0.2156
  842W        W 1706  12.654   0.638  11.252  0.0074 -0.0208 -0.0678
  843W        W 1707   9.945  28.455  13.319  0.0541  0.3725 -0.0321
  844W        W 1708  12.268  25.292  10.372 -0.2250  0.1254  0.2851
  845W        W 1709   9.733  24.897  10.827 -0.0246 -0.1262 -0.3289
  846W        W 1710  11.180  29.076  13.353 -0.0558  0.5198  0.0080
  847W        W 1711  12.724  24.969  13.342 -0.1025 -0.4669 -0.2010
  848W        W 1712  12.746   0.652  10.712  0.4046 -0.0815  0.0534
  849W        W 1713  13.221  26.206  12.027 -0.2973  0.1397 -0.1846
  850W        W 1714   8.157  28.514  13.303  0.2110 -0.2035 -0.0939
  851W        W 1715  11.996  26.073  14.774  0.1520 -0.0266  0.0615
  852W        W 1716  15.503  27.782  12.840 -0.3995 -0.2235  0.1488
  853W        W 1717  11.778  26.077  17.025 -0.1683  0.0501 -0.1528
  854W        W 1718  12.816  28.996  15.995  0.0588 -0.2280  0.0574
  855W        W 1719  14.418  26.102  16.714 -0.2197 -0.0359  0.1084
  856W        W 1720  13.965   0.807  14.244 -0.1856 -0.3064 -0.0608
  857W        W 1721  10.407   2.736  11.246  0.1845 -0.2082  0.2174
  858W        W 1722  15.306  25.932  13.046  0.0502  0.1666 -0.3839
  859W        W 1723  13.889  25.662  12.950 -0.0624 -0.4738  0.0522
  860W        W 1724  12.532  26.763  12.318  0.0453  0.2193  0.4754
  861W        W 1725  10.164  28.856  10.757  0.1241  0.1247 -0.0252
  862W        W 1726  14.351  25.612  10.731 -0.0816 -0.0348  0.1095
  863W        W 1727  14.339  22.122  12.612  0.0323  0.0611 -0.2919
  864W        W 1728  10.253  26.360  12.018 -0.1993  0.2123 -0.1649
  865W        W 1729   9.631  25.989  13.725  0.1328 -0.1169  0.0790
  866W        W 1730  14.686   0.105  11.839 -0.1871  0.0636 -0.1397
  867W        W 1731   9.049  27.350  11.925 -0.1331  0.1197  0.1740
  868W        W 1732  13.719  24.761  14.136 -0.1448 -0.0715  0.0955
  869W        W 1733  10.605  25.618  13.626 -0.2610  0.1876  0.0570
  870W        W 1734   9.913  25.278  10.617 -0.0931  0.0080 -0.3698
  871W        W 1735  15.854  27.593  10.752 -0.0207  0.0367  0.0373
  872W        W 1736  11.562  25.720  12.046 -0.1025  0.1779  0.1086
  873W        W 1737  16.330  27.274  12.267  0.2290  0.2499  0.2591
  874W        W 1738  14.941  27.450  10.977  0.1197  0.0904 -0.0508
  875W        W 1739  11.090  23.827   8.577  0.3241 -0.4005 -0.0013
  876W        W 1740  13.348  25.521  13.146 -0.2948  0.1297  0.0084
  877W        W 1741  13.993   0.115  11.504  0.2296 -0.0905 -0.1802
  878W        W 1742  12.642  26.934  10.911  0.1534 -0.2103  0.1512
  879W        W 1743   9.930  25.555  15.879 -0.0384 -0.0452 -0.0792
  880W        W 1744   9.364  25.284  12.799  0.0621 -0.1608 -0.0390
  881W        W 1745  13.899  26.008  12.445 -0.0828 -0.3782  0.2190
  882W        W 1746  12.857  27.107  12.269 -0.3571  0.1092  0.0598
  883W        W 1747  13.321  26.961  14.127 -0.0840  0.0021 -0.2333
  884W        W 1748  12.078  21.887  12.736  0.1707  0.0078 -0.3538
  885W        W 1749  13.026  27.860  11.188 -0.0467  0.0409  0.2161
  886W        W 1750  15.917  27.855  15.236 -0.0568  0.0022  0.1194
  887W        W 1751  14.633  28.824  12.434 -0.1407  0.0267 -0.0425
  888W        W 1752  17.289  27.661  13.070  0.1350  0.1933  0.1907
  889W        W 1753   9.702  27.409  11.687 -0.0606  0.2360  0.0052
  890W        W 1754  16.468  25.191  14.985  0.0811 -0.2378 -0.1035
  891W        W 1755   9.038  25.670  11.316 -0.4079  0.1155 -0.1878
  892W        W 1756  15.235  27.525  13.861 -0.0059  0.2554 -0.0461
  893W        W 1757  13.647  25.254  13.825  0.1674  0.1153  0.3084
  894W        W 1758  14.338  27.120  12.923  0.1904 -0.0448 -0.0237
  895W        W 1759  15.477  28.510  10.854  0.0144  0.0358 -0.0898
  896W        W 1760  13.334  24.873  15.270 -0.0541 -0.0825 -0.2271
  897W        W 1761   8.797   1.234  15.434 -0.1559  0.0869  0.0169
  898W        W 1762  15.224  25.749  15.621  0.0616  0.1216 -0.1520
  899W        W 1763  13.087  26.068  14.376  0.5120 -0.1169  0.4470
  900W        W 1764   9.185   1.515  14.474  0.0165  0.4848  0.1166
  901W        W 1765  16.732  26.689  12.407  0.0844 -0.2568 -0.2790
  902W        W 1766  11.048  28.252  11.843  0.0346 -0.3169 -0.0676
  903W        W 1767   9.311  28.303  11.416  0.0565  0.0409 -0.2596
  904W        W 1768  15.667  27.213  13.710 -0.1799 -0.1514 -0.1153
  905W        W 1769  12.076   0.054  11.328 -0.0944 -0.0531  0.2568
  906W        W 1770  12.818  26.980  13.242  0.0253 -0.0392  0.0537
  907W        W 1771  13.513   2.824  10.006 -0.0798 -0.0389  0.0492
  908W        W 1772  13.821  27.593  12.470  0.0907  0.0365 -0.1253
  909W        W 1773  14.758   1.598  13.697 -0.3640 -0.1178  0.0106
  910W        W 1774  11.142  28.137  13.921  0.0020 -0.3346  0.0229
  911W        W 1775  12.865  28.294  14.621 -0.2142 -0.1454  0.1915
  912W        W 1776  10.931  25.631  12.642  0.2142  0.0137 -0.1733
  913W        W 1777  13.775  28.233   9.909  0.0475 -0.2596 -0.3586
  914W        W 1778  15.103  27.196  11.810  0.1954 -0.1772  0.2333
  915W        W 1779  11.640  28.304  12.986 -0.2614  0.3082 -0.1260
  916W        W 1780  13.039  27.028  12.771 -0.0152 -0.2403 -0.3623
  917W        W 1781   9.892  28.277  11.333  0.0119  0.0813  0.1034
  918W        W 1782  14.229  27.522  15.240 -0.0028  0.0586 -0.0444
  919W        W 1783  12.598   0.151  12.963 -0.0061  0.1775  0.3438
  920W        W 1784  11.016  26.461  12.185  0.0895  0.2066  0.0521
  921W        W 1785   9.921  28.921  16.441  0.2116  0.1323 -0.3541
  922W        W 1786  12.896  28.659  17.726 -0.2603 -0.2382  0.0993
  923W        W 1787  14.464   0.526  15.878  0.2625 -0.2366  0.0964
  924W        W 1788  14.525   0.063  15.256 -0.0161  0.2271  0.2723
  925W        W 1789  12.900  28.331  14.085  0.5083  0.0059 -0.2133
  926W        W 1790  12.107  26.502  18.121  0.1750 -0.1930  0.1762
  927W        W 1791  12.521  24.431  15.690 -0.4249 -0.2221 -0.0532
  928W        W 1792  12.025  28.383  15.825 -0.3491  0.1407 -0.0957
  929W        W 1793  12.966  26.502  16.057  0.0650 -0.0193  0.1095
  930W        W 1794   9.780  24.483  16.580 -0.0641  0.4647  0.1141
  931W        W 1795  10.614  27.968  16.725 -0.2519 -0.1545 -0.3099
  932W        W 1796  11.576  24.767  20.796 -0.1483 -0.0407  0.1460
  933W        W 1797   9.911  27.330  12.972 -0.1119 -0.4374  0.1766
  934W        W 1798  11.902  25.923  18.910  0.1662  0.2189  0.4366
  935W        W 1799  14.605  27.335  15.882  0.3966 -0.1460  0.0095
  936W        W 1800  10.392  27.345  17.947  0.0522 -0.0667  0.1578
  937W        W 1801  10.760   0.039  14.612 -0.0784 -0.0932  0.1149
  938W        W 1802  10.352  25.989  17.585 -0.0285 -0.0698  0.0936
  939W        W 1803  12.248  26.091  20.079  0.1181 -0.0132  0.1631
  940W        W 1804  11.121  28.036  19.464  0.0580  0.0771  0.0243
  941W        W 1805  14.771  27.782  19.350  0.0001 -0.1906  0.2473
  942W        W 1806  14.052  25.647  15.869 -0.0471  0.0858 -0.3094
  943W        W 1807  14.425   1.800  17.056  0.0024 -0.2553  0.0147
  944W        W 1808  11.659  27.491  14.566  0.1206 -0.0928  0.1105
  945W        W 1809   9.374  28.240  16.740  0.2607  0.3996  0.0637
  946W        W 1810  10.586  28.724  19.127 -0.0107  0.0791  0.0766
  947W        W 1811  16.045  27.138  16.103  0.2207  0.1588  0.3296
  948W        W 1812   9.428   0.507  14.336  0.4265  0.1020  0.0279
  949W        W 1813  11.701  28.499  16.310 -0.3288  0.1253  0.1345
  950W        W 1814  12.738  27.520  12.544 -0.0673 -0.0681 -0.2062
  951W        W 1815  14.064  26.781  17.525  0.0143  0.1198  0.0902
  952W        W 1816  12.616  29.001  18.684 -0.2004 -0.0370 -0.1446
  953W        W 1817  11.072  26.534  20.785 -0.0751 -0.0502  0.1607
  954W        W 1818  14.376  28.005  16.859  0.1605 -0.0040 -0.2275
  955W        W 1819  10.545  27.237  18.528 -0.0232  0.0110 -0.1576
  956W        W 1820  12.380  27.742  20.388  0.0679 -0.1297 -0.1655
  957W        W 1821  10.344  27.777  15.327  0.0990 -0.0611 -0.2074
  958W        W 1822  12.191  28.410  15.332  0.1106  0.1053 -0.1506
  959W        W 1823  15.336  28.470  16.632  0.1591  0.0700 -0.1759
  960W        W 1824  12.578  26.440  16.508  0.0278  0.1849  0.2177
  961W        W 1825  12.809  28.648  13.741  0.1519  0.1020 -0.0618
  962W        W 1826  12.872  27.441  16.229 -0.1046  0.2827  0.0501
  963W        W 1827   7.697  27.020  16.090 -0.0105 -0.2071  0.2151
  964W        W 1828  14.408  25.798  14.045 -0.2445 -0.2979  0.0413
  965W        W 1829  13.163  28.826  11.761  0.0062  0.0940  0.2302
  966W        W 1830  11.317  27.752  15.360 -0.2195 -0.0196 -0.3372
  967W        W 1831  14.488  28.008  19.704  0.1188 -0.0345 -0.2408
  968W        W 1832  16.133  27.079  19.331 -0.1238 -0.0615 -0.1056
  969W        W 1833  13.133  27.318  18.927  0.5246 -0.1945 -0.2852
  970W        W 1834  12.026  26.775  17.732  0.2033  0.0681  0.2589
  971W        W 1835  12.030  28.264  16.916  0.0361 -0.2941  0.2002
  972W        W 1836  13.456  26.767  14.865 -0.0355  0.1833 -0.3316
  973W        W 1837  11.042   0.370  16.508  0.0491 -0.1924  0.3341
  974W        W 1838  13.782   1.935  14.591  0.0721  0.1288 -0.1222
  975W        W 1839  12.149  26.668  14.981  0.0085 -0.3202  0.1555
  976W        W 1840  13.606  27.957  15.584 -0.3081  0.0675 -0.1632
  977W        W 1841  11.326  24.896  15.434 -0.1565  0.1564  0.0183
  978W        W 1842  12.337  26.980  15.520  0.0081 -0.0741  0.1499
  979W        W 1843   8.689   0.405  16.233 -0.2265  0.1922  0.0675
  980W        W 1844  13.182  28.103  13.729  0.0326 -0.2203  0.2127
  981W        W 1845  17.697  27.724  14.116  0.0163  0.0418  0.1703
  982W        W 1846  10.869  29.094  16.709  0.0438  0.1516 -0.0611
  983W        W 1847  11.279   1.541  19.244 -0.2732 -0.2706  0.2150
  984W        W 1848  14.789  27.935  16.049  0.2780  0.0992 -0.0976
  985W        W 1849  13.605  26.476  15.317 -0.1479 -0.2083 -0.0480
  986W        W 1850  12.931  25.625  18.869 -0.2176  0.0736  0.0307
  987W        W 1851  12.166   0.443  14.552  0.1940 -0.0928 -0.0534
  988W        W 1852  12.452  25.551  14.368 -0.1270  0.1184  0.1918
  989W        W 1853  14.268   0.153  13.714  0.0408 -0.0743  0.2439
  990W        W 1854  11.452  26.691  15.722 -0.1184 -0.1352  0.1013
  991W        W 1855  11.949   1.934  17.788 -0.0866 -0.2434  0.0180
  992W        W 1856   9.085  25.911  13.732  0.0211 -0.3550  0.0773
  993W        W 1857  13.443  28.384  15.856  0.1779  0.1194  0.0692
  994W        W 1858  13.265  28.473  19.695 -0.0443  0.1137 -0.1559
  995W        W 1859  10.820  28.497  14.738 -0.2062  0.1708  0.0202
  996W        W 1860  13.067  28.633  18.668  0.0215 -0.1319  0.3083
  997W        W 1861  11.098  26.641  16.315 -0.0448 -0.3523  0.3316
  998W        W 1862  10.921  27.483  16.967  0.0007  0.1595  0.2948
  999W        W 1863  11.780  28.065  15.389 -0.1379 -0.2181 -0.0994
 1000W        W 1864  11.464  27.254  15.499  0.3122 -0.1211  0.0069
 1001W        W 1865  12.027  27.978  16.088  0.0608 -0.0400  0.3784
 1002W        W 1866  12.501  25.952  17.752  0.0871 -0.0061 -0.2361
 1003W        W 1867  12.460  24.024  16.418 -0.2059  0.2640 -0.2582
 1004W        W 1868  12.319  24.150  18.515 -0.0293  0.1982  0.1049
 1005W        W 1869  10.776  27.678  18.085  0.1864  0.0014  0.0041
 1006W        W 1870  13.585  27.339  18.211  0.0122  0.2476  0.3136
 1007W        W 1871  14.074  27.741  18.632  0.0632  0.2953 -0.2276
 1008W        W 1872  10.851  25.599  18.641  0.0361  0.1330  0.3299
 1009W        W 1873  13.888  28.093  18.980  0.2813 -0.2973  0.1380
 1010W        W 1874  10.494  28.969  17.228  0.2329 -0.0477  0.0109
 1011W        W 1875  12.307  25.747  16.939  0.0110 -0.0568 -0.0657
 1012W        W 1876  11.400  27.632  19.825  0.0033  0.0702  0.0819
 1013W        W 1877  13.653   0.093  15.853 -0.0411  0.1951 -0.1514
 1014W        W 1878  13.415  27.282  14.984  0.0511 -0.2279  0.2594
 1015W        W 1879  13.552  26.858  17.535  0.2218  0.1517  0.0578
 1016W        W 1880  14.514  25.457  16.508 -0.0668 -0.0738 -0.2476
 1017W        W 1881  14.086  29.022  14.197 -0.1085  0.2236 -0.1311
 1018W        W 1882  10.565   2.179  18.203  0.1426  0.0807 -0.0700
 1019W        W 1883  13.389  28.452  15.360 -0.2269 -0.1381 -0.0161
 1020W        W 1884  12.409  25.207  19.250 -0.0119 -0.1112 -0.1307
 1021W        W 1885  13.805  28.757  16.038 -0.0597 -0.0114 -0.3077
 1022W        W 1886  12.532  26.728  17.875 -0.2004 -0.0743 -0.1439
 1023W        W 1887  12.470  25.725  18.833 -0.0164  0.1660 -0.0095
 1024W        W 1888  14.441   0.383  18.253 -0.0453  0.0247  0.0547
 1025W        W 1889  13.945  24.761  15.988 -0.0413  0.1985  0.1941
 1026W        W 1890  12.544  27.361  16.639  0.0453  0.1125  0.0259
 1027W        W 1891  11.630  27.488  10.514  0.0568 -0.2704  0.2005
 1028W        W 1892  13.252   1.044  19.029  0.1911 -0.0447 -0.3005
 1029W        W 1893  13.975  26.435  19.251  0.0876 -0.0849  0.0922
 1030W        W 1894  11.016  28.399  17.231 -0.1085 -0.0873 -0.0590
 1031W        W 1895  11.750  27.849  17.976  0.1538  0.2009  0.0896
 1032W        W 1896  13.991  26.508  16.134 -0.0999 -0.1862 -0.0895
 1033W        W 1897  12.228  26.157  18.569  0.2256 -0.0828  0.3802
 1034W        W 1898  13.745   0.083  16.948  0.0777 -0.2920 -0.2011
 1035W        W 1899  15.619  28.365  13.806 -0.0429  0.0450  0.0496
 1036W        W 1900  11.854   0.906  15.237 -0.1322 -0.1408 -0.0740
 1037W        W 1901  13.677  26.786  17.032  0.0325  0.3905 -0.1918
 1038W        W 1902  11.933  28.262  19.126 -0.3094  0.1559  0.1519
 1039W        W 1903  13.096  27.461  15.762  0.1054 -0.0562 -0.1759
 1040W        W 1904  13.706  25.965  16.617  0.2735  0.2241 -0.0192
 1041W        W 1905  14.992  27.615  15.725 -0.1126 -0.2772  0.4490
 1042W        W 1906  14.385  27.944  14.479 -0.0355 -0.0516 -0.0693
 1043W        W 1907  13.831  27.181  17.796 -0.0809  0.0223 -0.0138
 1044W        W 1908  13.283  26.346  18.043  0.0367  0.1797  0.1189
 1045W        W 1909  11.877  28.948  16.423 -0.2586 -0.0475  0.0069
 1046W        W 1910  13.229   0.744  17.674  0.0677  0.4039  0.0607
 1047W        W 1911  12.019  27.012  19.425 -0.1270 -0.1652  0.0040
 1048W        W 1912  11.731   0.341  18.397 -0.0442  0.0701 -0.2110
 1049W        W 1913  13.331   2.994  21.233  0.3811 -0.2553  0.1641
 1050W        W 1914  13.214  26.956  20.194  0.2875  0.4556  0.2055
 1051W        W 1915  11.627   0.233  16.582  0.1460  0.0561  0.0530
 1052W        W 1916  13.460  28.895  16.772  0.1995  0.1591 -0.1098
 1053W        W 1917   8.718   2.055  16.613  0.1377  0.1455 -0.1691
 1054W        W 1918  16.047  26.726  15.810  0.0910  0.2093  0.0078
 1055W        W 1919  14.931   0.520  17.048 -0.2258 -0.2354 -0.1734
 1056W        W 1920  11.428  27.384  18.918 -0.0355  0.0456  0.1200
 1057W        W 1921  12.913  26.460  18.848 -0.0355  0.3769  0.0502
 1058W        W 1922  17.654  25.181  16.890 -0.0125  0.0422 -0.3173
 1059W        W 1923  11.923   0.327  15.560 -0.2909 -0.2280  0.0813
 1060W        W 1924  13.114   0.077  16.845  0.0389  0.1492 -0.1330
 1061W        W 1925  11.758  26.964  14.277 -0.0826  0.1553  0.0266
 1062W        W 1926  12.988  25.188  17.485 -0.0412 -0.0790 -0.2549
 1063W        W 1927  10.917  26.926  16.844  0.1730  0.0282  0.3302
 1064W        W 1928  12.244  26.943  16.749 -0.1940  0.1198 -0.0879
 1065W        W 1929  10.995  29.055  18.017 -0.0728 -0.0153 -0.1901
 1066W        W 1930  10.585   0.279  15.377  0.0867 -0.2457  0.1445
 1067W        W 1931  15.564  26.677  17.252  0.0311  0.1323  0.1188
 1068W        W 1932  12.815  27.359  15.004 -0.0772  0.1896 -0.3655
 1069W        W 1933  12.432   2.190  16.428  0.1921 -0.0561 -0.1696
 1070W        W 1934  11.537  28.322  15.796  0.0169  0.0976  0.0011
 1071W        W 1935  11.788  28.071  14.539  0.0022  0.1134 -0.0747
 1072W        W 1936  11.085  26.957  15.884 -0.3097 -0.4118  0.0395
 1073W        W 1937  13.718   1.006  15.121  0.1531 -0.0898  0.0139
 1074W        W 1938  12.462  24.153  16.914  0.0861 -0.0981 -0.1150
 1075W        W 1939  10.455  27.435  14.528  0.0316  0.0458  0.0284
 1076W        W 1940  12.289  28.371  18.717  0.0026 -0.0406  0.2353
 1077W        W 1941  11.823  26.215  17.688 -0.0784 -0.0189  0.2276
 1078W        W 1942  14.102  27.946  15.413 -0.1565 -0.1755  0.0982
 1079W        W 1943  13.309  26.213  15.663  0.0448  0.0306  0.2016
 1080W        W 1944  12.624  26.931  16.397  0.2135  0.0310 -0.2512
 1081W        W 1945  12.523  27.431  17.206 -0.3113  0.0031 -0.2886
 1082W        W 1946  13.848  26.608  20.169  0.3962  0.2701  0.2340
 1083W        W 1947  10.386  28.853  16.532  0.0528  0.3899 -0.3066
 1084W        W 1948  10.498  25.973  20.365 -0.0667  0.4155  0.4150
 1085W        W 1949  14.010  22.172  20.556 -0.0302 -0.0379 -0.0067
 1086W        W 1950  13.765  26.397  18.360  0.0974  0.0549 -0.1188
 1087W        W 1951  13.252  26.515  17.315 -0.0643  0.1000 -0.3166
 1088W        W 1952  13.359  27.744  16.071  0.2973 -0.2690 -0.1868
 1089W        W 1953   9.893  27.702  17.180  0.0357 -0.0495 -0.1341
 1090W        W 1954  12.584  28.321  15.054 -0.0136 -0.0809 -0.3238
 1091W        W 1955  12.669  28.639  19.035  0.1206 -0.0383 -0.0966
 1092W        W 1956  12.165  29.133  17.981  0.1254  0.2971 -0.0313
 1093W        W 1957  14.894  27.146  16.978 -0.1355 -0.0956  0.5004
 1094W        W 1958  14.585  28.094  13.002 -0.1033 -0.2888 -0.0054
 1095W        W 1959  12.181  25.408  17.959  0.0036  0.0689 -0.2982
 1096W        W 1960  15.042  26.937  16.515 -0.0947 -0.1239 -0.2354
 1097W        W 1961   9.385   1.917  15.723 -0.0954 -0.1509  0.1378
 1098W        W 1962  11.766  26.418  15.241  0.0502 -0.0021  0.0858
 1099W        W 1963  10.502  28.779  16.024  0.1758 -0.2877 -0.0436
 1100W        W 1964  13.730  24.878  17.329 -0.1193 -0.1058  0.1319
 1101W        W 1965  13.064  27.796  14.605  0.1385 -0.0463  0.0891
 1102W        W 1966  14.822  28.095  14.661 -0.0943 -0.1802  0.1900
 1103W        W 1967  12.038  27.862  14.960 -0.1166  0.0973 -0.0558
 1104W        W 1968  13.090  26.850  15.162 -0.0028 -0.1242 -0.1639
 1105W        W 1969  12.250  27.478  12.725 -0.0863  0.2390 -0.2748
 1106W        W 1970  13.806  28.102  17.222  0.3743 -0.0883  0.0717
 1107W        W 1971  14.293  25.078  15.251  0.1975  0.1107  0.1381
 1108W        W 1972  12.682  26.616  15.535 -0.2463 -0.0192  0.3068
 1109W        W 1973  13.970  28.340  15.651 -0.2670  0.0781  0.0649
 1110W        W 1974  10.915   0.805  14.590  0.3275  0.2460 -0.0255
 1111W        W 1975   9.471   1.889  14.716 -0.1163  0.2799 -0.1234
 1112W        W 1976  13.537  27.939  16.488 -0.2046  0.3131  0.0696
 1113W        W 1977  11.818  27.548  16.194 -0.0511 -0.0503 -0.3523
 1114W        W 1978  11.798  25.056  19.999 -0.0279  0.0361 -0.0228
 1115W        W 1979  11.866  26.884  19.973  0.2612 -0.1257 -0.0135
 1116W        W 1980  14.235  23.065  16.234 -0.1981 -0.1315 -0.2053
 1117W        W 1981  13.006  25.937  12.437 -0.0661 -0.0537  0.0806
 1118W        W 1982  13.673  26.254  19.633 -0.0336  0.3653  0.0148
 1119W        W 1983  10.280   0.335  14.905  0.0471  0.2873 -0.1555
 1120W        W 1984  14.396  27.597  17.951  0.2331 -0.1296  0.0654
 1121W        W 1985  11.432  28.007  16.160  0.1094 -0.0948  0.1201
 1122W        W 1986  13.776  25.727  14.896 -0.0469 -0.1608 -0.1111
 1123W        W 1987  13.680  27.116  12.513 -0.0841  0.2472 -0.0838
 1124W        W 1988  14.103  24.908  14.454  0.2139 -0.0062 -0.1010
 1125W        W 1989  13.955  25.482  19.181 -0.0350  0.0326  0.3427
 1126W        W 1990  11.621   0.592  16.061 -0.1693  0.1847  0.0203
 1127W        W 1991   9.549  28.327  18.454 -0.0263 -0.0552  0.2673
 1128W        W 1992  14.138  28.824  17.153  0.0320 -0.0112 -0.0669
 1129W        W 1993  11.619  28.206  14.002 -0.0630 -0.2736  0.3374
 1130W        W 1994  11.180  28.902  14.556 -0.2291  0.1028 -0.0515
 1131W        W 1995   9.634   1.466  19.969 -0.0753  0.0008 -0.0139
 1132W        W 1996  13.599  26.750  16.508 -0.0070 -0.0866 -0.0147
 1133W        W 1997  13.924  28.533  17.508 -0.1258 -0.2009  0.2053
 1134W        W 1998  15.881  26.537  18.741 -0.1265  0.1771 -0.0900
 1135W        W 1999  14.539  28.247  17.851 -0.0928 -0.1070 -0.0609
 1136W        W 2000  15.024  27.211  16.096 -0.0254  0.0390  0.2767
 1137W        W 2001  15.442  26.446  16.341  0.3438 -0.1046  0.0879
 1138W        W 2002  14.593  27.673  12.105 -0.0987  0.2170 -0.1479
 1139W        W 2003  14.531  28.244  19.009  0.1412  0.0426 -0.1375
 1140W        W 2004  13.173   1.862  17.048 -0.0306  0.1311 -0.2351
 1141W        W 2005  14.310  28.693  15.892  0.1675  0.0830 -0.0781
 1142W        W 2006  15.805  28.676  17.733  0.2740  0.2394 -0.0774
 1143W        W 2007  14.339  25.487  20.426 -0.1337  0.2849  0.0872
 1144W        W 2008  13.572  25.571  18.874  0.1503  0.1803  0.1338
 1145W        W 2009  14.735  27.366  15.391 -0.2423  0.2500  0.0863
 1146W        W 2010  13.366  27.425  16.453  0.2569 -0.1027  0.0928
 1147W        W 2011  11.726  29.030  20.073  0.1380 -0.2242 -0.0568
 1148W        W 2012  16.759  26.030  17.069  0.1701 -0.0260 -0.1468
 1149W        W 2013  11.404  27.456  16.459 -0.0567  0.1734 -0.1338
 1150W        W 2014  13.865  27.028  16.139  0.0755 -0.0343  0.1199
 1151W        W 2015  11.551  27.779  19.294 -0.0728 -0.0052  0.0769
 1152W        W 2016   6.995  26.460  17.287  0.0229 -0.2357 -0.1422
 1153W        W 2017  10.745  25.870  14.039 -0.1987 -0.3686 -0.2545
 1154W        W 2018  13.947  27.483  14.820 -0.0884  0.1568  0.2157
 1155W        W 2019  10.446  27.617  17.103 -0.1333 -0.3420  0.0665
 1156W        W 2020  10.937   1.301  18.342  0.1285 -0.0285 -0.0907
 1157W        W 2021  13.170  26.929  17.066  0.2303 -0.1678 -0.0261
 1158W        W 2022  12.847  26.319  17.788  0.2541  0.2719  0.1124
 1159W        W 2023  14.258   0.100  16.741 -0.0083  0.2424  0.0230
 1160W        W 2024  13.750   0.852  18.068 -0.2409  0.0221  0.0359
 1161W        W 2025  14.147   1.535  14.448  0.1669  0.0475  0.1710
 1162W        W 2026  11.481   0.260  17.452 -0.1665 -0.1495 -0.3658
 1163W        W 2027  13.476  25.367  17.426  0.0904  0.2141  0.2204
 1164W        W 2028  12.738  24.888  15.442  0.1162  0.1121  0.2680
 1165W        W 2029  13.645  25.756  15.638  0.1251 -0.3204 -0.1459
 1166W        W 2030  11.692  28.329  14.977 -0.0292 -0.0384 -0.0494
 1167W        W 2031  15.455  26.314  19.628  0.1800 -0.2583 -0.2521
 1168W        W 2032  10.163   0.960  19.425  0.2806 -0.0812  0.3249
 1169W        W 2033  14.929   0.339  15.043  0.0768 -0.3513  0.2966
 1170W        W 2034  14.342  28.014  13.426 -0.1425 -0.0538  0.1598
 1171W        W 2035  12.612  28.224  15.541 -0.0845 -0.1340 -0.1081
 1172W        W 2036  10.428   0.180  16.726 -0.0866 -0.2328 -0.2502
 1173W        W 2037  13.361   1.353  18.464 -0.1531 -0.0134 -0.3450
 1174W        W 2038  12.360  26.217  19.057 -0.3631 -0.1574 -0.1659
 1175W        W 2039  11.810  26.445  12.993  0.0064 -0.1539  0.1025
 1176W        W 2040  14.036  27.125  13.866 -0.0340 -0.1000  0.0359
 1177W        W 2041  14.567  27.671  18.850 -0.2065 -0.0847 -0.1592
 1178W        W 2042  10.968  27.198  19.709 -0.1804 -0.2840 -0.3283
 1179W        W 2043  14.617  29.143  15.939  0.1735  0.0436  0.1177
 1180W        W 2044  12.367  27.618  16.261 -0.1435  0.0196 -0.3327
 1181W        W 2045  14.004  25.765  14.423 -0.3416 -0.0262  0.0671
 1182W        W 2046  14.008   0.671  18.470  0.1518 -0.1708  0.0132
 1183W        W 2047  12.062  27.417  16.918  0.0804 -0.3101  0.1466
 1184W        W 2048  11.222  28.542  17.644 -0.3013  0.0826 -0.0087
 1185W        W 2049  12.151  28.722  14.044 -0.0304 -0.1898  0.1891
 1186W        W 2050  13.161  28.222  16.295 -0.1882 -0.2678 -0.1212
 1187W        W 2051  12.280  27.801  17.967  0.1299  0.0492  0.1405
 1188W        W 2052  13.046  25.766  14.948 -0.3488  0.2244  0.3198
 1189W        W 2053  12.313  28.242  14.629 -0.2161  0.1108 -0.1389
 1190W        W 2054  14.579  26.272  18.651 -0.0054 -0.1843 -0.1541
 1191W        W 2055  13.301  26.319  16.484 -0.1679  0.3743  0.0207
 1192W        W 2056   9.985  28.524  18.818  0.1447  0.1298 -0.0349
 1193W        W 2057  15.145  29.063  15.277  0.1075  0.0450  0.2447
 1194W        W 2058  15.399  27.101  20.092 -0.1051  0.0397  0.0609
 1195W        W 2059  10.537  26.545  17.531  0.3425  0.0488 -0.2026
 1196W        W 2060  12.381  26.994  19.876  0.0366 -0.2506 -0.0677
 1197W        W 2061  10.626  27.576  14.996 -0.1711  0.0489  0.0834
 1198W        W 2062  10.837   0.219  17.245  0.2932 -0.2732 -0.0941
 1199W        W 2063  11.428  28.244  19.123  0.0468  0.0265  0.2225
 1200W        W 2064  12.433  26.254  13.820  0.0754 -0.0961  0.0455
 1201W        W 2065  10.421  26.599  13.593  0.2313 -0.0156 -0.2608
 1202W        W 2066  10.651   2.132  15.389  0.1678  0.2804 -0.2684
 1203W        W 2067  10.726  26.593  18.023  0.1530 -0.1253  0.1650
 1204W        W 2068  13.227  27.755  17.565  0.1640 -0.2527 -0.0402
 1205W        W 2069  12.987  27.370  14.195  0.1555 -0.1936  0.0631
 1206W        W 2070  12.976  27.630  18.580  0.1299 -0.0593 -0.1418
 1207W        W 2071  14.205  23.953  15.699 -0.0528 -0.0436 -0.1801
 1208W        W 2072  11.836  27.573  13.614 -0.4599 -0.2272  0.1309
 1209W        W 2073  13.483  26.648  16.074 -0.1290  0.0476  0.2569
 1210W        W 2074  15.603  27.593  14.939 -0.3421  0.2860 -0.4465
 1211W        W 2075  12.967  28.723  16.871  0.1113 -0.0443 -0.1736
 1212W        W 2076  13.346  26.073  19.949  0.0862  0.0247 -0.0938
 1213W        W 2077  12.920   0.266  17.505  0.0431  0.1516  0.0593
 1214W        W 2078  11.778  26.987  16.965  0.2543 -0.1025  0.0163
 1215W        W 2079  13.168  25.819  16.574  0.5729  0.1201  0.0359
 1216W        W 2080  13.140   0.464  18.541  0.1397  0.1929 -0.2403
 1217W        W 2081  18.136  27.549  19.392  0.1536 -0.1544 -0.0605
 1218W        W 2082  13.782  26.789  15.668  0.0878  0.1766  0.1378
 1219W        W 2083  11.645  27.678  15.724 -0.2416 -0.1615 -0.2262
 1220W        W 2084  11.111  26.926  18.939  0.0031 -0.0922  0.0266
 1221W        W 2085  12.329  28.762  18.291 -0.1717 -0.3171  0.2221
 1222W        W 2086  14.407  28.326  17.351  0.2314  0.0111 -0.0840
 1223W        W 2087  11.837  28.445  11.727  0.3103 -0.0924 -0.0872
 1224W        W 2088  14.704   1.992  13.933 -0.1389 -0.0689  0.0792
 1225W        W 2089  12.677  27.773  15.374 -0.0173  0.1015 -0.0290
 1226W        W 2090  14.688  26.558  15.359  0.0407 -0.1223  0.0269
 1227W        W 2091  16.498  27.454  16.465  0.0097 -0.3076 -0.1078
 1228W        W 2092  10.852  28.821  18.577 -0.0194 -0.3057 -0.0220
 1229W        W 2093  13.158  25.544  16.976 -0.3553 -0.1934  0.0095
 1230W        W 2094  12.345  29.038  19.798  0.1094 -0.2674  0.2000
 1231W        W 2095  12.169  26.166  14.277  0.0618  0.1079  0.2053
 1232W        W 2096  13.488  28.457  18.136  0.1059  0.1934 -0.0446
 1233W        W 2097  11.824   1.213  17.254 -0.1201  0.2722  0.0069
 1234W        W 2098  11.918  29.146  16.986 -0.0789  0.0480 -0.1729
 1235W        W 2099  12.912  25.036  15.985  0.0536  0.1270  0.1765
 1236W        W 2100  13.457  25.970  15.217  0.2174 -0.0132  0.0576
 1237W        W 2101  12.548  29.088  17.653 -0.0073 -0.2001  0.3056
 1238W        W 2102  12.225  27.804  15.643 -0.1603  0.1140  0.1340
 1239W        W 2103  10.614  28.292  17.745  0.3416 -0.1802 -0.0520
 1240W        W 2104  12.644  26.482  13.059  0.1423  0.0190  0.1887
 1241W        W 2105   8.630  27.398  17.618  0.1468 -0.0024 -0.0058
 1242W        W 2106  14.088  27.722  17.227  0.0206  0.0761 -0.1496
 1243W        W 2107   9.759  28.036  16.168  0.2841 -0.1449  0.2204
 1244W        W 2108  10.279   0.396  18.209  0.1651 -0.1201  0.0704
 1245W        W 2109  14.068  23.173  18.639  0.0110  0.1812  0.2572
 1246W        W 2110   9.180  26.451  15.910  0.1143 -0.0163 -0.1685
 1247W        W 2111  12.940  25.293  15.235 -0.0535 -0.1867 -0.2190
 1248W        W 2112  11.100  27.737  17.386  0.2105  0.2852 -0.0053
 1249W        W 2113  10.483  24.853  17.013  0.0748 -0.0795  0.0198
 1250W        W 2114  14.191  27.470  16.774  0.2100 -0.1018 -0.1898
 1251W        W 2115  14.733  27.659  16.996  0.2261  0.2533  0.4392
 1252W        W 2116  13.030  27.998  21.541  0.1475 -0.1900 -0.0673
 1253W        W 2117  15.134  26.993  18.354  0.0153 -0.0153  0.1742
 1254W        W 2118  15.877   0.509  19.211  0.2086 -0.0403  0.0136
 1255W        W 2119  11.693  27.124  17.465  0.1257 -0.1824 -0.1157
 1256W        W 2120  15.650  26.118  17.636 -0.0173  0.0946  0.0223
 1257W        W 2121  13.779  27.827  14.405  0.2309 -0.4159  0.3288
 1258W        W 2122  11.983  26.231  15.986 -0.0713  0.1476  0.1842
 1259W        W 2123  12.000  27.551  17.415  0.0345  0.0064  0.1350
 1260W        W 2124  12.232  26.995  18.187 -0.0972 -0.0448  0.0009
 1261W        W 2125   8.776  26.252  17.655  0.0027 -0.0192 -0.1944
 1262W        W 2126  14.328   0.664  16.784  0.1300  0.0005 -0.2049
 1263W        W 2127  12.683   0.569  14.477  0.3158  0.0172 -0.1070
 1264W        W 2128  10.449   0.716  17.822 -0.1036 -0.1791 -0.1334
 1265W        W 2129  12.588  27.918  14.308 -0.2110  0.1029 -0.0607
 1266W        W 2130  12.666  27.010  17.007  0.2503  0.2137 -0.3699
 1267W        W 2131  13.625  28.121  17.797 -0.1909 -0.3607 -0.1778
 1268W        W 2132  11.904  24.184  16.535 -0.1651  0.0243  0.0419
 1269W        W 2133  15.504  27.804  19.307 -0.1334  0.0226  0.0200
 1270W        W 2134  13.979  28.759  16.626  0.0661  0.1680 -0.1208
 1271W        W 2135  13.494  27.429  14.538 -0.2864 -0.1022  0.3438
 1272W        W 2136  11.290   1.090  17.056 -0.3536  0.4426  0.0006
 1273W        W 2137  11.184  27.261  14.233  0.0135  0.0678 -0.0190
 1274W        W 2138  13.393  25.578  14.612  0.0542  0.2331  0.3117
 1275W        W 2139  12.660  29.064  16.524 -0.1566  0.3590  0.0962
 1276W        W 2140  11.906  27.365  19.038 -0.0733 -0.4003  0.1839
 1277W        W 2141  12.122  27.983  19.542 -0.2028 -0.0788 -0.1750
 1278W        W 2142  13.752  28.641  14.069  0.1110 -0.0052 -0.3560
 1279W        W 2143  14.384  28.472  14.119  0.1026  0.1212 -0.3678
 1280W        W 2144  14.268  27.014  19.307 -0.0690  0.1521  0.0916
 1281W        W 2145  13.644  24.612  18.992 -0.1756  0.2329 -0.1249
 1282W        W 2146  14.910  26.882  17.733  0.2983  0.1423 -0.1863
 1283W        W 2147   8.235  28.488  18.439 -0.0106 -0.3794 -0.1431
 1284W        W 2148  15.192   1.088  16.912  0.0349  0.1294 -0.0621
 1285W        W 2149  12.076   1.316  14.106  0.1352  0.1544  0.3135
 1286W        W 2150  12.323  27.416  15.324 -0.0675  0.1325 -0.4595
 1287W        W 2151  11.257  21.463  13.163 -0.0431  0.1247  0.0234
 1288W        W 2152  16.836  26.626  18.891  0.0171 -0.0449 -0.2350
 1289W        W 2153  15.491  28.018  15.921 -0.2872 -0.0391  0.0510
 1290W        W 2154  15.966  25.397  15.524  0.2079 -0.1345  0.2116
 1291W        W 2155  12.141  28.990  15.475 -0.3132 -0.0160 -0.0403
 1292W        W 2156  16.305  26.037  16.885  0.0045  0.0621  0.0625
 1293W        W 2157  12.954   1.588  15.139 -0.0229 -0.0420  0.1640
 1294W        W 2158  10.911  26.098  20.094 -0.0154 -0.3458  0.0023
 1295W        W 2159  15.858  27.202  16.628  0.2094  0.1014  0.2494
 1296W        W 2160  12.629  28.357  18.310  0.0139  0.1874 -0.3956
 1297W        W 2161  11.207  28.372  16.363  0.0617 -0.0737  0.0913
 1298W        W 2162  13.449   0.485  16.618  0.0535  0.0855  0.1140
 1299W        W 2163   8.917   1.586  15.906 -0.1136 -0.0736  0.0423
 1300W        W 2164  11.023  26.605  17.653  0.1278  0.3679 -0.2450
 1301W        W 2165  11.382  26.983  16.627  0.2325 -0.3099  0.0254
 1302W        W 2166  13.116  27.711  19.246  0.0192  0.0486 -0.0075
 1303W        W 2167  13.618  27.327  18.673  0.2253  0.2531 -0.0322
 1304W        W 2168  14.110  26.503  15.324  0.3286 -0.1513 -0.2920
 1305W        W 2169   9.116  27.803  20.561 -0.0064 -0.0631  0.0587
 1306W        W 2170  10.535  28.777  17.706 -0.1327  0.1894  0.0540
 1307W        W 2171  12.358  26.554  17.058 -0.2810  0.3611 -0.2297
 1308W        W 2172  13.316  27.992  20.338 -0.0733  0.1017  0.0934
 1309W        W 2173   9.497  27.398  18.065  0.2257  0.0847 -0.0469
 1310W        W 2174  14.866   0.565  16.139  0.0744 -0.1334  0.3988
 1311W        W 2175  13.809   1.176  17.060 -0.0037 -0.0883 -0.0159
 1312W        W 2176  11.531  27.589  17.517 -0.1779 -0.2178  0.1367
 1313W        W 2177  15.064  25.011  18.437 -0.5298 -0.0127  0.0934
 1314W        W 2178  12.463  28.309  15.994  0.0322  0.0217 -0.2111
 1315W        W 2179  15.304  27.076  19.229  0.2802 -0.2752 -0.0352
 1316W        W 2180  13.060  28.039  15.642  0.0202  0.0232  0.0944
 1317W        W 2181  11.566  27.876  14.959 -0.1725  0.1026  0.1918
 1318W        W 2182  12.712   1.180  21.474 -0.0597 -0.5282  0.0502
 1319W        W 2183  11.124  27.724  21.666  0.0024  0.0392 -0.0808
 1320W        W 2184  14.731  28.086  20.215 -0.0448 -0.3057  0.4870
 1321W        W 2185  16.269   0.229  24.333  0.0652  0.1563 -0.0134
 1322W        W 2186  12.802  28.730  19.562 -0.3006  0.1430  0.0137
 1323W        W 2187  11.065  28.204  19.920  0.1752 -0.1079 -0.0350
 1324W        W 2188  11.017  27.414  19.304  0.1074  0.0340  0.2239
 1325W        W 2189  10.894  28.659  19.869 -0.1236 -0.3172  0.0660
 1326W        W 2190  12.971  28.846  21.753  0.0132 -0.2350 -0.0895
 1327W        W 2191   9.665  28.768  22.144 -0.2532  0.0790 -0.1403
 1328W        W 2192   7.733  25.181  21.950  0.0230  0.1357 -0.0625
 1329W        W 2193  14.097  26.266  18.759 -0.0921  0.0730  0.0600
 1330W        W 2194  12.043  28.161  17.611 -0.0565 -0.0514 -0.5142
 1331W        W 2195  12.440  28.458  20.491  0.3769 -0.0258  0.1295
 1332W        W 2196  13.033  23.990  23.492  0.2763 -0.1558  0.0638
 1333W        W 2197  10.894   1.259  20.503 -0.1083 -0.0653  0.4057
 1334W        W 2198  12.949   0.144  19.476  0.0929  0.2359 -0.1146
 1335W        W 2199  11.253  26.657  19.331  0.1015 -0.2644  0.3063
 1336W        W 2200  11.540  27.053  21.340  0.1228 -0.0051  0.2022
 1337W        W 2201  16.311  22.723  23.103 -0.1036  0.0676  0.3199
 1338W        W 2202  15.190  24.972  19.281 -0.3250 -0.0763 -0.0816
 1339W        W 2203  13.742  26.729  21.321 -0.0728 -0.1593  0.1169
 1340W        W 2204  16.245   2.545  18.609  0.4050 -0.0217 -0.0046
 1341W        W 2205  12.155  28.445  22.906 -0.2984  0.1780 -0.1633
 1342W        W 2206   7.587   0.071  21.087  0.0432  0.0892  0.2179
 1343W        W 2207  10.220  28.979  18.787  0.1576  0.2138 -0.1102
 1344W        W 2208  13.538  27.205  20.463 -0.3023 -0.2971 -0.0972
 1345W        W 2209  12.289   0.416  18.225  0.1349  0.1432  0.3279
 1346W        W 2210  12.719   0.238  20.664  0.0501 -0.1427  0.4533
 1347W        W 2211  14.476  26.058  21.515  0.0979  0.3008 -0.0729
 1348W        W 2212  12.503  27.922  18.586  0.1161 -0.0541  0.0724
 1349W        W 2213  13.627  26.778  19.349  0.2420 -0.0596 -0.0374
 1350W        W 2214  15.083  28.273  22.440  0.0908 -0.2254 -0.2602
 1351W        W 2215  14.396  25.971  22.851 -0.0599  0.1613 -0.1348
 1352W        W 2216   9.328  23.454  20.368  0.0818 -0.1737  0.3606
 1353W        W 2217  13.587  29.103  23.740 -0.1729 -0.1548  0.2024
 1354W        W 2218  11.477  27.185  19.545  0.0722 -0.2536  0.0294
 1355W        W 2219  12.828   0.617  21.640  0.3106 -0.0444 -0.0346
 1356W        W 2220  15.732  26.544  17.871  0.1336  0.2344  0.2114
 1357W        W 2221  13.467  26.626  20.506 -0.0834  0.2887  0.1156
 1358W        W 2222  15.807  27.452  19.031  0.0300  0.0660 -0.1795
 1359W        W 2223  18.059  26.560  23.602  0.0384  0.2011  0.2095
 1360W        W 2224  11.289   0.587  23.158 -0.1437  0.1680 -0.0003
 1361W        W 2225  15.261  28.354  20.359 -0.0671  0.0573 -0.1261
 1362W        W 2226  14.264   5.013  17.968  0.3554 -0.2618  0.1351
 1363W        W 2227  10.604   1.254  22.021  0.3365  0.1249  0.0601
 1364W        W 2228   9.851  26.259  20.041  0.1170 -0.1511  0.0080
 1365W        W 2229  13.602  26.242  21.382 -0.1649  0.0088 -0.2163
 1366W        W 2230  14.077  27.788  19.676 -0.2402 -0.0227 -0.0653
 1367W        W 2231  15.205  27.528  20.175  0.1996 -0.3927 -0.1187
 1368W        W 2232  10.763  29.123  19.929  0.2962 -0.0515  0.3102
 1369W        W 2233  13.539  24.828  20.331  0.0079 -0.1717 -0.2959
 1370W        W 2234  13.015  27.173  22.091  0.1914 -0.0421 -0.1548
 1371W        W 2235  16.350  26.631  18.613 -0.0261 -0.0371 -0.2504
 1372W        W 2236  13.718  26.905  18.432 -0.1105  0.2168 -0.3165
 1373W        W 2237  12.230  28.718  19.244 -0.1360  0.1388 -0.0230
 1374W        W 2238  11.688  26.620  20.322  0.1710  0.1134 -0.2008
 1375W        W 2239  12.292  27.478  19.351  0.0323 -0.2945  0.1054
 1376W        W 2240  11.324   2.155  19.585  0.2160 -0.0029 -0.2054
 1377W        W 2241  12.895   1.226  19.297 -0.1058  0.1146 -0.0655
 1378W        W 2242  13.010   1.001  18.618  0.1406 -0.0522  0.0961
 1379W        W 2243   9.574   1.729  19.358 -0.2277  0.0828  0.0857
 1380W        W 2244  10.767   0.624  23.159  0.0552 -0.1250 -0.2729
 1381W        W 2245  11.787   0.494  18.896 -0.1673  0.1829 -0.0288
 1382W        W 2246  13.312  27.164  21.675  0.3203  0.0513  0.0092
 1383W        W 2247  16.549  27.473  20.492 -0.2285  0.1799  0.1436
 1384W        W 2248  11.249  28.511  19.484 -0.1220 -0.0558 -0.0021
 1385W        W 2249  12.546  28.210  17.759  0.1374  0.0536  0.0913
 1386W        W 2250  12.186   1.351  19.162  0.0211  0.0867  0.1539
 1387W        W 2251  11.884  26.120  19.343 -0.1648 -0.1645 -0.1376
 1388W        W 2252  14.986   1.035  19.356  0.0418  0.2343  0.1901
 1389W        W 2253  11.336  28.943  19.728  0.1254 -0.0382 -0.0203
 1390W        W 2254  15.662   0.995  18.927  0.0937 -0.1654 -0.0202
 1391W        W 2255  13.945  23.866  20.311 -0.2488 -0.3945  0.0864
 1392W        W 2256  15.090  28.980  20.430  0.3673 -0.3230  0.4252
 1393W        W 2257  13.931  27.319  20.661  0.1999  0.2015 -0.0031
 1394W        W 2258   9.081  28.141  18.723 -0.1468  0.3484  0.5833
 1395W        W 2259  10.738  28.453  20.318  0.3167  0.1054 -0.1221
 1396W        W 2260  14.974  26.081  21.312 -0.1456 -0.1102  0.2382
 1397W        W 2261  13.033   0.044  18.992  0.1170  0.0286 -0.2671
 1398W        W 2262  13.660  24.620  21.521 -0.0763 -0.1411  0.0532
 1399W        W 2263  12.366  27.491  20.903 -0.4360  0.0748  0.2197
 1400W        W 2264  12.546  23.776  20.269  0.0496 -0.2574 -0.0859
 1401W        W 2265  13.455  24.769  21.973 -0.0197 -0.2471  0.0039
 1402W        W 2266  13.262  25.878  22.129  0.0167 -0.0925 -0.2312
 1403W        W 2267  14.941  24.452  22.135 -0.2285  0.2095 -0.0654
 1404W        W 2268  14.862  28.891  19.355 -0.0720 -0.0026  0.0886
 1405W        W 2269  12.110  23.097  21.043  0.1011 -0.4510  0.1108
 1406W        W 2270  16.336  26.718  22.901 -0.1164  0.1220  0.0581
 1407W        W 2271  11.950  24.896  20.517 -0.0844 -0.0230  0.0159
 1408W        W 2272  17.300  25.705  19.289 -0.4046  0.0146  0.3244
 1409W        W 2273  16.438  26.193  24.119  0.1030  0.1014 -0.4413
 1410W        W 2274  12.184  28.648  17.740 -0.3471 -0.0359 -0.1501
 1411W        W 2275  12.125  28.799  18.740 -0.0381  0.1723  0.2053
 1412W        W 2276  12.024  24.573  21.020 -0.0072 -0.2433 -0.2373
 1413W        W 2277  15.253  28.181  19.478 -0.2491  0.1276  0.0451
 1414W        W 2278  16.678  26.226  18.433  0.0529  0.0581 -0.1761
 1415W        W 2279  11.735  28.701  19.124 -0.0699  0.4108  0.1049
 1416W        W 2280  11.066  25.800  19.597 -0.1362  0.0626  0.2396
 1417W        W 2281  14.290  22.803  21.934 -0.0424  0.0715  0.0310
 1418W        W 2282  13.291  28.249  16.814  0.1600 -0.0795  0.0498
 1419W        W 2283  10.323   0.699  20.702 -0.0866 -0.1568  0.1607
 1420W        W 2284  13.314  25.726  23.251  0.3081 -0.0804  0.0492
 1421W        W 2285  14.326  26.818  21.971 -0.1605  0.4506 -0.0914
 1422W        W 2286  15.208  26.803  19.656 -0.0567  0.0562 -0.1412
 1423W        W 2287  14.468   0.208  20.929  0.3708  0.0423  0.2376
 1424W        W 2288  13.606  26.457  18.864  0.0383  0.0784 -0.0181
 1425W        W 2289  12.176  28.476  21.932 -0.1353 -0.0809  0.1014
 1426W        W 2290  13.722  24.619  20.805 -0.2042 -0.1640 -0.1104
 1427W        W 2291  11.476  28.082  20.210  0.1113 -0.0040 -0.2251
 1428W        W 2292  12.782  27.261  20.106 -0.3049  0.2299 -0.2321
 1429W        W 2293  11.377   1.623  19.759 -0.0448 -0.2045  0.2668
 1430W        W 2294  15.601  26.383  20.526  0.1700  0.3092  0.0778
 1431W        W 2295  14.808  27.714  20.544  0.0246  0.0643 -0.1339
 1432W        W 2296  14.416  27.086  17.709 -0.1568 -0.2671  0.3956
 1433W        W 2297  11.280  25.730  20.059  0.0345  0.1515 -0.3056
 1434W        W 2298  18.725  25.120  22.487  0.0619  0.0265 -0.3062
 1435W        W 2299  12.739  26.792  20.333  0.2134 -0.0295  0.2747
 1436W        W 2300  13.960  24.892  21.267  0.0434  0.0968  0.2369
 1437W        W 2301  14.879  24.096  18.874  0.0023 -0.1911  0.0490
 1438W        W 2302  16.714  28.211  19.495 -0.1241  0.0347  0.2355
 1439W        W 2303  15.587  27.402  20.514  0.0405  0.2652  0.2256
 1440W        W 2304  15.315  27.085  17.489 -0.0500  0.0968 -0.2269
 1441W        W 2305  14.817   0.106  18.346  0.0646 -0.1186  0.0803
 1442W        W 2306  12.659  28.661  20.057 -0.0785  0.1105  0.2927
 1443W        W 2307  13.167  28.148  18.448 -0.3572  0.0135 -0.0888
 1444W        W 2308  12.605  26.422  19.919  0.1001  0.0362 -0.0793
 1445W        W 2309  13.869  26.852  20.787 -0.2459 -0.3832 -0.1172
 1446W        W 2310  11.970  28.015  19.993  0.0957 -0.4034  0.0533
 1447W        W 2311  16.532   1.430  18.545  0.0808  0.1303  0.1177
 1448W        W 2312  15.465  28.072  19.915 -0.2547 -0.1272  0.0887
 1449W        W 2313  16.634  25.069  21.743  0.0843  0.2306  0.0305
 1450W        W 2314  13.790   1.322  20.283  0.1876  0.1537  0.1276
 1451W        W 2315  16.461  27.662  17.711 -0.1711 -0.4068 -0.2993
 1452W        W 2316  15.605  28.227  20.728  0.0966  0.1902  0.0582
 1453W        W 2317  12.099  22.986  19.694  0.2273 -0.0660 -0.0842
 1454W        W 2318  14.708  26.313  20.493 -0.3518  0.1552 -0.0647
 1455W        W 2319  17.292  24.917  22.427  0.2363 -0.2527  0.1698
 1456W        W 2320  11.623  28.499  17.951 -0.4339 -0.0206 -0.4576
 1457W        W 2321  13.677  28.907  19.884 -0.0692 -0.0206  0.0972
 1458W        W 2322  12.795  26.008  19.672 -0.0981  0.0193 -0.2064
 1459W        W 2323  10.585  26.240  20.754 -0.0688  0.1555  0.2144
 1460W        W 2324   8.265  28.501  16.564  0.0765 -0.0426  0.0784
 1461W        W 2325  10.252  28.226  19.344 -0.0654  0.1107 -0.1394
 1462W        W 2326  14.115  28.195  21.047  0.1074  0.0933 -0.0104
 1463W        W 2327  12.707  27.636  17.721  0.1861 -0.0615 -0.0741
 1464W        W 2328  13.793  21.767  20.302  0.0367  0.1473  0.1401
 1465W        W 2329  13.530  29.074  18.243  0.0206 -0.2151 -0.0574
 1466W        W 2330  13.502   1.429  21.006  0.0907 -0.2442  0.0423
 1467W        W 2331  13.931  28.878  18.991  0.2537  0.0460  0.0213
 1468W        W 2332  13.336  27.576  20.693  0.0878  0.0095  0.0230
 1469W        W 2333  12.858  26.056  20.211  0.2146  0.1573 -0.2889
 1470W        W 2334  11.668   2.465  18.687  0.2374 -0.0662  0.2228
 1471W        W 2335  12.374  27.792  16.773 -0.1267 -0.0341  0.1217
 1472W        W 2336  14.658  26.498  22.794  0.1286  0.0689 -0.2578
 1473W        W 2337  14.228  24.364  23.300 -0.1710  0.1090 -0.0885
 1474W        W 2338  10.631  27.423  20.590 -0.0129 -0.0881 -0.0654
 1475W        W 2339  13.227  25.898  19.425  0.1147 -0.0568  0.1677
 1476W        W 2340  13.533  25.259  19.975  0.3026 -0.1911 -0.1565
 1477W        W 2341  13.962  26.128  20.006  0.1032  0.0106 -0.1747
 1478W        W 2342  12.590  26.446  21.610  0.0128  0.1781  0.1451
 1479W        W 2343  12.485   0.716  20.670 -0.0935  0.1479  0.0701
 1480W        W 2344  15.519  28.370  21.217 -0.0770 -0.3618  0.0472
 1481W        W 2345  14.258  25.630  22.477  0.0226 -0.0410 -0.3202
 1482W        W 2346  14.934  27.371  22.762 -0.2194 -0.0552  0.2977
 1483W        W 2347  14.221  27.254  22.570  0.3110 -0.0224  0.2422
 1484W        W 2348  10.607  27.364  20.097 -0.1400  0.0151 -0.1243
 1485W        W 2349  13.190   2.592  17.871 -0.0064 -0.1065  0.3779
 1486W        W 2350  13.809  29.010  21.991 -0.2024 -0.0715  0.3385
 1487W        W 2351   8.960   0.457  18.485 -0.0257 -0.0374 -0.0711
 1488W        W 2352  11.974  27.046  21.619 -0.4990 -0.3775 -0.0156
 1489W        W 2353  13.278  27.212  19.738 -0.0182  0.0768  0.0205
 1490W        W 2354  12.494  26.906  19.294  0.3405 -0.0033 -0.2354
 1491W        W 2355  12.267  28.702  16.684 -0.0564 -0.3701  0.2374
 1492W        W 2356  14.976  25.110  22.404 -0.0032 -0.2690 -0.0975
 1493W        W 2357  12.324  25.276  20.197  0.2507  0.1027 -0.3092
 1494W        W 2358  11.019   0.415  22.231 -0.5225  0.0003 -0.0676
 1495W        W 2359  12.772  24.145  22.262 -0.1863 -0.0185  0.1062
 1496W        W 2360   8.375   3.120  20.001 -0.3080 -0.1609 -0.1159
 1497W        W 2361  13.408  26.853  22.296 -0.3540 -0.1306 -0.0276
 1498W        W 2362  11.077   0.668  19.774  0.1261 -0.0702  0.0448
 1499W        W 2363  15.475  29.135  18.532 -0.3642  0.1685 -0.0844
 1500W        W 2364  15.377  26.332  21.547 -0.0618  0.0223 -0.3471
 1501W        W 2365  14.197  28.502  18.764  0.1762  0.0262  0.1188
 1502W        W 2366  14.565  27.059  18.315 -0.1589 -0.1280  0.0250
 1503W        W 2367  14.026  28.843  22.835 -0.1776 -0.3189  0.0686
 1504W        W 2368  12.401  24.267  18.991 -0.1236  0.1859 -0.1916
 1505W        W 2369  11.191  28.614  20.235 -0.0104  0.1007 -0.0444
 1506W        W 2370  13.219   0.413  22.402  0.1058 -0.0925 -0.0510
 1507W        W 2371  13.379  27.377  17.191  0.0467 -0.2058  0.2681
 1508W        W 2372  10.005  27.172  19.034  0.0664  0.1449  0.2869
 1509W        W 2373  12.067   0.055  19.110  0.1966  0.0545 -0.0703
 1510W        W 2374  13.280   0.156  20.018 -0.1772  0.1194  0.0800
 1511W        W 2375  11.417  26.544  22.160  0.3206  0.4203  0.0786
 1512W        W 2376  15.051  26.021  20.801 -0.0666  0.0508 -0.2290
 1513W        W 2377  12.655  25.258  20.591  0.0539  0.1716 -0.3404
 1514W        W 2378  13.709  27.746  20.005 -0.1341  0.0961 -0.1751
 1515W        W 2379  11.407  27.716  20.642  0.1174  0.0488 -0.0420
 1516W        W 2380   9.634  28.075  17.961  0.2315 -0.1206  0.1005
 1517W        W 2381  16.011  26.178  19.758 -0.1541 -0.0868 -0.1021
 1518W        W 2382  14.015  26.713  19.692 -0.2093 -0.0890  0.2575
 1519W        W 2383  15.890  25.506  21.327 -0.0127 -0.0926  0.0169
 1520W        W 2384  14.828  26.597  18.203 -0.0608 -0.1215  0.1658
 1521W        W 2385  12.903  28.188  19.579  0.0812  0.3263  0.2242
 1522W        W 2386  14.873  26.715  21.934  0.0659  0.2208 -0.0984
 1523W        W 2387  10.920  27.187  16.370 -0.0935 -0.0204 -0.1879
 1524W        W 2388  11.692  27.639  20.200 -0.0156  0.0318 -0.0108
 1525W        W 2389  13.954  25.426  21.433  0.0742  0.1248  0.1786
 1526W        W 2390  10.906  27.679  19.776  0.2149 -0.2277 -0.0762
 1527W        W 2391  11.184  25.886  21.072 -0.0933  0.2577  0.1872
 1528W        W 2392  13.837  27.083  22.884  0.1804 -0.2782 -0.1138
 1529W        W 2393  10.613  22.963  19.029 -0.0515 -0.0629 -0.2537
 1530W        W 2394  11.977  28.662  20.618 -0.0090  0.1292 -0.4293
 1531W        W 2395  15.352  25.419  24.437 -0.0048 -0.1451  0.2356
 1532W        W 2396  17.126  26.199  21.000  0.1191  0.1451  0.2150
 1533W        W 2397  16.283  27.825  18.171 -0.2238 -0.0760  0.2145
 1534W        W 2398  14.828  27.842  18.040 -0.1814  0.1445  0.3514
 1535W        W 2399  10.174   0.699  16.775  0.2737  0.0879 -0.2480
 1536W        W 2400  14.411  26.359  21.982 -0.2444 -0.1583  0.1695
 1537W        W 2401  12.558   0.901  21.097  0.2036 -0.5403 -0.3314
 1538W        W 2402  14.586  24.743  20.702 -0.2689  0.5107  0.0029
 1539W        W 2403  13.213  26.718  21.457 -0.1696  0.0731 -0.1694
 1540W        W 2404  12.677   1.698  22.501  0.0484  0.0725 -0.3110
 1541W        W 2405  11.640  26.360  18.122  0.0290 -0.1983  0.0625
 1542W        W 2406  14.315   0.688  18.939  0.0919  0.0583 -0.3982
 1543W        W 2407  11.109   1.988  20.018  0.0636  0.0594 -0.0055
 1544W        W 2408  14.392  27.417  19.548 -0.0008  0.2541  0.1473
 1545W        W 2409  15.661  25.254  22.863 -0.1321  0.1169  0.2780
 1546W        W 2410  15.981   1.092  19.267  0.1521  0.1298  0.2717
 1547W        W 2411  15.474  26.770  22.449  0.1292  0.2288  0.0072
 1548W        W 2412  14.150  24.274  22.378 -0.1021  0.1303 -0.1524
 1549W        W 2413  12.788  28.358  21.826 -0.0233 -0.1468  0.1322
 1550W        W 2414  11.691  28.586  20.227  0.0248  0.0858 -0.1013
 1551W        W 2415  14.351  26.862  23.422  0.0578 -0.0051  0.1163
 1552W        W 2416  12.423   0.376  19.664  0.1635  0.0598  0.2591
 1553W        W 2417  13.281  28.965  19.585  0.0192  0.0192  0.0226
 1554W        W 2418  13.262  27.903  19.819  0.1038 -0.0742 -0.1877
 1555W        W 2419  13.810  24.066  23.532 -0.0701  0.1472 -0.0093
 1556W        W 2420  11.625  26.243  21.707 -0.0839 -0.0121 -0.2942
 1557W        W 2421  14.090  28.080  20.073  0.0042 -0.0416 -0.0992
 1558W        W 2422  13.482  27.286  19.332 -0.1610 -0.0430 -0.2033
 1559W        W 2423  10.976  28.385  22.308  0.1244 -0.0316  0.1225
 1560W        W 2424  12.770  27.926  21.103  0.0066 -0.3461  0.1053
 1561W        W 2425  12.778  26.957  21.410 -0.3195 -0.2036  0.1408
 1562W        W 2426  12.882  24.505  21.352 -0.0129  0.1912  0.1354
 1563W        W 2427  14.321  28.034  18.291 -0.3226  0.1144 -0.0179
 1564W        W 2428  12.523  25.559  21.017 -0.1019 -0.1663  0.2416
 1565W        W 2429  12.172   0.334  23.587 -0.3160  0.2950  0.2213
 1566W        W 2430  16.542  27.068  15.999  0.1511  0.0398 -0.1192
 1567W        W 2431  13.641  27.712  19.426  0.1473 -0.0417  0.2476
 1568W        W 2432   9.590  26.929  18.280 -0.2175  0.0427  0.1132
 1569W        W 2433  12.139   1.906  19.188 -0.2090  0.0287  0.0299
 1570W        W 2434  13.661   1.804  21.368  0.0661  0.0587  0.1596
 1571W        W 2435  11.781   0.362  20.409  0.1898 -0.1784 -0.1514
 1572W        W 2436  13.465  27.877  22.529  0.3413 -0.1184  0.3208
 1573W        W 2437  15.279   1.305  16.080  0.1247 -0.2398 -0.0366
 1574W        W 2438  13.769  27.125  20.045  0.3775  0.0718 -0.1870
 1575W        W 2439  13.075  23.895  21.926 -0.0511  0.1936  0.3495
 1576W        W 2440  17.360  27.981  20.214  0.2283 -0.3528 -0.0692
 1577W        W 2441  14.522  27.538  18.391  0.0520 -0.1854 -0.2351
 1578W        W 2442  11.919  27.664  20.714  0.0204  0.2841 -0.1585
 1579W        W 2443  12.838  25.888  20.779 -0.0588  0.3033  0.0562
 1580W        W 2444  14.352   1.213  20.070  0.1495 -0.1259 -0.0701
 1581W        W 2445  13.966  25.174  20.328 -0.0660  0.4645  0.0808
 1582W        W 2446  12.842  27.786  20.162  0.0768 -0.0692 -0.0593
 1583W        W 2447  12.805   0.452  21.150  0.0723 -0.0497  0.0511
 1584W        W 2448  10.327  27.741  18.340 -0.1445  0.0213  0.0277
 1585W        W 2449  14.407  28.733  18.296 -0.0022 -0.0433  0.2019
 1586W        W 2450  14.612  27.338  23.224  0.1637  0.2264 -0.0804
 1587W        W 2451  16.928  27.695  18.902 -0.3074 -0.2113  0.3434
 1588W        W 2452  12.227  26.700  20.261  0.4609  0.2884  0.0540
 1589W        W 2453  13.521  28.915  18.681 -0.2502 -0.2313  0.0418
 1590W        W 2454  13.745  28.167  19.723 -0.0843  0.0948 -0.0577
 1591W        W 2455  11.855  27.578  19.608 -0.2587  0.1327 -0.0002
 1592W        W 2456  12.434  27.215  20.443  0.1394  0.1426 -0.2070
 1593W        W 2457  13.636  24.720  22.440 -0.1520 -0.4772  0.1437
 1594W        W 2458  11.568  26.990  21.910  0.2877 -0.3125  0.0613
 1595W        W 2459  12.719  28.123  23.044  0.0312  0.0648  0.2162
 1596W        W 2460  13.929  27.357  19.071  0.2238 -0.1785  0.2645
 1597W        W 2461  13.272  28.411  21.697 -0.0579  0.1665  0.0480
 1598W        W 2462  12.978  25.593  22.887  0.0538 -0.3764  0.0705
 1599W        W 2463  15.295  24.598  20.144  0.1873  0.0636  0.1348
 1600W        W 2464  13.276  27.511  20.161 -0.0526  0.3485  0.2255
 1601W        W 2465  11.585   0.733  23.639 -0.1080  0.2973  0.0290
 1602W        W 2466  15.678  27.700  20.854 -0.0403 -0.2185  0.1528
 1603W        W 2467  16.037  25.679  19.869  0.1344 -0.1880  0.2766
 1604W        W 2468  12.997  28.231  18.955  0.3457  0.0876  0.1494
 1605W        W 2469   9.770  25.441  22.694 -0.0766  0.0332  0.0927
 1606W        W 2470  16.012  25.565  18.446  0.1375 -0.0788  0.2019
 1607W        W 2471  17.338  27.451  18.762  0.2187  0.1500  0.1151
 1608W        W 2472  14.202  25.840  18.977  0.0588 -0.2158  0.0861
 1609W        W 2473  11.465  26.369  17.298  0.4425 -0.1627  0.0293
 1610W        W 2474  17.352  25.405  22.242  0.0293  0.1333  0.0176
 1611W        W 2475  11.423  25.454  19.613  0.1296 -0.0566 -0.2653
 1612W        W 2476  14.910  28.659  16.640  0.1023 -0.3008 -0.3920
 1613W        W 2477  13.129  26.473  20.153  0.0314  0.1025 -0.0548
 1614W        W 2478  14.239  24.061  22.896 -0.3093  0.2201  0.0061
 1615W        W 2479  15.076  28.152  20.766  0.0249 -0.0737  0.0249
 1616W        W 2480  15.965  25.563  19.385 -0.0164  0.1324  0.0698
 1617W        W 2481  11.416   2.555  19.102  0.1467 -0.2500 -0.0213
 1618W        W 2482  11.992  27.302  15.720 -0.1784  0.1104 -0.1351
 1619W        W 2483  11.561  26.296  20.753  0.0607 -0.1314 -0.0697
 1620W        W 2484  14.347  27.996  23.385 -0.0664 -0.0101  0.0442
 1621W        W 2485  16.568   0.104  16.589 -0.0385  0.0992 -0.3463
 1622W        W 2486  15.583  27.654  16.831  0.0273  0.4578  0.1668
 1623W        W 2487  12.843   1.285  20.841  0.2193 -0.1849  0.0824
 1624W        W 2488  14.504  29.070  22.720  0.0224 -0.0418 -0.0142
 1625W        W 2489  12.943  25.653  15.644 -0.2313 -0.3127 -0.0619
 1626W        W 2490  16.197  26.656  17.713  0.0374  0.1844 -0.3596
 1627W        W 2491  12.196  29.088  20.269  0.0313  0.0077  0.0605
 1628W        W 2492  13.627  25.638  21.715 -0.1578  0.1702  0.2395
 1629W        W 2493  10.244  27.836  21.301  0.0826  0.0009  0.3000
 1630W        W 2494  16.383  25.616  20.623 -0.0117 -0.0781  0.0337
 1631W        W 2495  13.378  28.155  19.300 -0.1130  0.0716 -0.1474
 1632W        W 2496  12.623  27.968  19.213 -0.0248  0.1460  0.2355
 1633W        W 2497  12.029  27.121  22.104  0.0916 -0.1384 -0.0663
 1634W        W 2498  14.453  26.617  19.014  0.1520 -0.0225 -0.1237
 1635W        W 2499  14.810  27.149  19.665  0.0570  0.0039  0.0530
 1636W        W 2500  14.511  27.313  20.788  0.1017  0.1196 -0.0796
 1637W        W 2501  11.157   0.048  18.477 -0.0283 -0.0277  0.1136
 1638W        W 2502  12.485   0.425  20.191 -0.2119  0.0988 -0.0192
 1639W        W 2503  16.427   0.836  18.819 -0.1431  0.1382  0.1526
 1640W        W 2504  10.962   0.131  21.291 -0.3374  0.1916 -0.0452
 1641W        W 2505  12.981  28.315  20.129 -0.2128 -0.1533 -0.1695
 1642W        W 2506  13.418   0.659  19.867 -0.1610  0.0539 -0.2056
 1643W        W 2507  10.045   1.092  24.455  0.3035  0.1205 -0.2462
 1644W        W 2508  12.117  24.871  19.667 -0.0180  0.2022 -0.2252
 1645W        W 2509   9.803   2.577  19.657  0.0785 -0.3932  0.0519
 1646W        W 2510  14.054  28.428  17.988 -0.2163  0.3137  0.1372
 1647W        W 2511   9.981  29.122  18.333 -0.1757 -0.0394  0.1196
 1648W        W 2512  13.572   0.155  21.054 -0.1468  0.1428 -0.0997
 1649W        W 2513  14.021  24.696  19.441 -0.1359  0.0745  0.2781
 1650W        W 2514  17.194   0.322  22.234 -0.1170 -0.0661 -0.0209
 1651W        W 2515  14.546   1.201  22.167 -0.0925  0.0987 -0.1243
 1652W        W 2516  13.798  27.960  20.469  0.0900  0.2311 -0.2385
 1653W        W 2517  12.830   1.673  21.648 -0.0173  0.2711  0.2026
 1654W        W 2518  10.256   1.519  16.139 -0.0025  0.1569  0.1979
 1655W        W 2519  13.890  28.723  18.439  0.2767  0.0315 -0.0788
 1656W        W 2520  15.989  27.077  21.363  0.0083  0.4710  0.0355
 1657W        W 2521  15.467  27.046  18.746  0.1773 -0.1619  0.0682
 1658W        W 2522  11.597  27.845  18.811 -0.1170  0.3197  0.3828
 1659W        W 2523  12.523  27.008  20.950  0.0732 -0.0402 -0.4266
 1660W        W 2524  12.163  22.775  22.027  0.1609 -0.0422 -0.1481
 1661W        W 2525  10.197   0.527  15.938 -0.0825 -0.0216 -0.1534
 1662W        W 2526  12.898   0.554  19.034 -0.0798  0.3005 -0.2024
 1663W        W 2527  10.035   0.062  21.399  0.2147 -0.1423  0.1059
 1664W        W 2528  11.661  25.376  20.641 -0.3262  0.2352  0.2830
 1665W        W 2529  10.507  26.523  19.547 -0.1850  0.0150  0.1469
 1666W        W 2530  12.895  26.863  19.795 -0.0629  0.1360  0.4290
 1667W        W 2531  12.437  25.722  18.232  0.0865  0.0257 -0.0279
 1668W        W 2532  13.650   0.720  22.383  0.3021  0.0291  0.0194
 1669W        W 2533  12.141  26.004  15.331  0.1161  0.0632  0.0349
 1670W        W 2534  14.677  27.153  22.369  0.0691  0.0771 -0.0380
 1671W        W 2535  14.577  26.547  21.437 -0.1221  0.1302  0.1781
 1672W        W 2536  11.226   1.547  18.746  0.1430 -0.3458  0.2769
 1673W        W 2537  14.919  27.350  18.601  0.1529 -0.1079 -0.0906
 1674W        W 2538  11.515  28.903  20.547  0.0820 -0.1671 -0.4960
 1675W        W 2539  14.183  28.384  21.907 -0.0978  0.0229  0.0394
 1676W        W 2540  12.460  25.268  19.719  0.2513 -0.0042 -0.0548
 1677W        W 2541  10.989  27.301  18.307 -0.0422 -0.0248  0.2244
 1678W        W 2542  12.734  25.573  19.385  0.1374 -0.3601  0.0643
 1679W        W 2543  11.381  28.414  20.638 -0.0695  0.2312  0.3929
 1680W        W 2544  13.359  25.687  20.274  0.2947 -0.4010  0.2305
 1681W        W 2545  14.129  27.285  18.295  0.2430 -0.1459  0.0157
 1682W        W 2546  11.471   2.173  17.411 -0.0364 -0.1631  0.2024
 1683W        W 2547  13.387  28.321  17.366 -0.0022  0.0456  0.2221
 1684W        W 2548  14.503  28.891  18.838  0.0243  0.1990  0.2539
 1685W        W 2549  11.723   0.000  18.740 -0.0916  0.0367  0.0222
 1686W        W 2550  11.482  26.517  18.569  0.2259 -0.0754  0.1460
 1687W        W 2551  12.445  26.710  15.943  0.0918  0.0955  0.2559
 1688W        W 2552  11.767   0.386  17.893  0.2154 -0.2760 -0.3680
 1689W        W 2553  13.124  25.512  20.721  0.1051  0.0617  0.4302
 1690W        W 2554  12.835  26.045  19.153  0.0190 -0.0570 -0.0116
 1691W        W 2555  13.338  27.070  22.731  0.0122  0.2331  0.1007
 1692W        W 2556  12.956  27.350  21.096 -0.1768  0.0040 -0.2307
 1693W        W 2557  12.806  26.177  21.955 -0.1912 -0.0091 -0.0966
 1694W        W 2558  10.787  26.936  19.312 -0.0314  0.0976  0.2291
 1695W        W 2559  14.443  27.996  23.906  0.0810  0.1461  0.1773
 1696W        W 2560  14.042  25.384  22.059 -0.0528  0.0346 -0.0393
 1697W        W 2561  11.407  25.760  20.577 -0.1304  0.2974  0.1128
 1698W        W 2562  13.184  29.122  20.534 -0.1159 -0.0414 -0.1183
 1699W        W 2563   8.153   0.607  19.161 -0.0902 -0.0755  0.2986
 1700W        W 2564  11.416  27.207  17.935  0.2729 -0.2692 -0.2611
 1701W        W 2565  12.871  26.405  21.154 -0.1136 -0.0136 -0.1066
 1702W        W 2566  14.944  27.524  22.192  0.2990 -0.1300 -0.0328
 1703W        W 2567  16.764  23.570  21.496  0.1132  0.0665 -0.0110
 1704W        W 2568  12.528  29.110  19.315 -0.3628  0.1195 -0.0176
 1705W        W 2569  14.710  28.040  22.692  0.2212 -0.1484  0.1496
 1706W        W 2570  14.073   0.554  22.357 -0.2221 -0.0210  0.3136
 1707W        W 2571  17.136  26.748  21.097  0.0711 -0.1012  0.1320
 1708W        W 2572  13.097   0.194  21.829  0.0574 -0.1042 -0.0137
 1709W        W 2573  13.366  26.465  20.989 -0.2695  0.3532  0.0154
 1710W        W 2574  13.733  28.158  22.019  0.1834 -0.0709 -0.0864
 1711W        W 2575  12.842  29.136  20.071 -0.0174 -0.1059 -0.0328
 1712W        W 2576  10.581   1.282  18.827 -0.1610  0.6222  0.3258
 1713W        W 2577  12.062  27.130  21.099  0.0393 -0.0516  0.3132
 1714W        W 2578  15.522  28.253  19.025 -0.3118 -0.0537  0.0540
 1715W        W 2579  13.343  27.645  21.190  0.1570 -0.0091 -0.0100
 1716W        W 2580  12.549  27.376  15.827  0.3091 -0.0105 -0.0174
 1717W        W 2581  13.207  26.152  20.641  0.0955  0.0532  0.1153
 1718W        W 2582  11.777  28.699  27.077 -0.0379 -0.1449  0.2246
 1719W        W 2583  11.980  27.889  25.327  0.1130 -0.0453 -0.3366
 1720W        W 2584  15.430  27.152  25.313  0.1849  0.0161  0.0389
 1721W        W 2585  15.583  28.896  24.540  0.0596  0.0134  0.0527
 1722W        W 2586   9.718   2.562  24.989 -0.1202  0.2046 -0.0476
 1723W        W 2587  13.565  23.896  21.838 -0.4161  0.5334 -0.0533
 1724W        W 2588  11.649  29.049  21.494  0.1948  0.0473  0.1150
 1725W        W 2589  12.142  26.219  20.632  0.1857 -0.0373  0.2693
 1726W        W 2590  11.486  27.729  25.266 -0.1127  0.0829  0.1161
 1727W        W 2591  10.539  24.449  25.490  0.0113  0.1004 -0.1256
 1728W        W 2592  11.228  26.453  25.360  0.3589 -0.0478 -0.0869
 1729W        W 2593  11.029  22.530  22.848 -0.0058  0.2870 -0.1995
 1730W        W 2594  12.339  23.879  22.330  0.0158 -0.0699  0.3209
 1731W        W 2595  15.832  27.856  25.940  0.0573 -0.0296  0.0758
 1732W        W 2596  12.813  25.737  25.183  0.2900 -0.2030  0.0499
 1733W        W 2597  11.405   1.008  25.120  0.1865 -0.1747 -0.0250
 1734W        W 2598  10.732  26.758  22.745 -0.2067  0.0130 -0.1253
 1735W        W 2599  12.673  24.585  24.812 -0.2095  0.0050 -0.1388
 1736W        W 2600  10.996  26.072  23.889  0.0224  0.1879 -0.1977
 1737W        W 2601  14.522  28.713  25.370  0.0265  0.3145 -0.1686
 1738W        W 2602  13.454  26.681  23.185 -0.0715 -0.1724  0.1592
 1739W        W 2603  11.358  27.719  21.205 -0.0606 -0.2210  0.0103
 1740W        W 2604  13.629  28.378  22.972 -0.2168 -0.0212 -0.1716
 1741W        W 2605  11.689  28.114  23.496 -0.4700 -0.2808 -0.0158
 1742W        W 2606  11.978  28.620  24.307 -0.2512  0.2121 -0.0720
 1743W        W 2607  10.466  26.863  24.455 -0.2353 -0.2075  0.2961
 1744W        W 2608  14.391  26.221  26.373  0.0424  0.2754 -0.1111
 1745W        W 2609   9.695  24.574  22.737 -0.0036  0.0808 -0.0764
 1746W        W 2610  14.056  27.663  24.280  0.0864 -0.1326  0.2744
 1747W        W 2611  12.429  29.088  25.018  0.0250 -0.0434 -0.0950
 1748W        W 2612  12.183  26.935  24.010  0.1287 -0.4023  0.0569
 1749W        W 2613  14.377  27.988  26.017 -0.0454  0.0521  0.2089
 1750W        W 2614  14.036  25.789  27.976 -0.1965 -0.1151 -0.1469
 1751W        W 2615  12.617  28.586  22.759 -0.0628 -0.0075 -0.0135
 1752W        W 2616  11.399  26.292  26.293  0.0335 -0.3626 -0.3210
 1753W        W 2617  13.183   0.448  26.028 -0.2034  0.0623  0.4136
 1754W        W 2618  11.276  25.395  22.028 -0.0937  0.1779 -0.0349
 1755W        W 2619  10.698   0.638  24.819 -0.1097 -0.2212 -0.0984
 1756W        W 2620  14.407  27.743  22.951 -0.1910  0.1150  0.2160
 1757W        W 2621  12.356  26.427  24.027 -0.0198  0.1272 -0.0374
 1758W        W 2622  15.029  26.662  21.361  0.5789 -0.3961  0.3051
 1759W        W 2623  12.621  26.408  25.341 -0.1680 -0.1001  0.4650
 1760W        W 2624  13.629  28.962  22.627 -0.1589 -0.0199  0.0340
 1761W        W 2625  14.416  26.375  23.206 -0.0495 -0.0691  0.2818
 1762W        W 2626  12.573   1.281  22.844  0.1323  0.2601  0.0604
 1763W        W 2627  10.520   0.074  23.571 -0.0636  0.1979  0.1161
 1764W        W 2628  11.914  27.186  26.740  0.0443  0.0326  0.3337
 1765W        W 2629  13.531  24.306  23.945 -0.2012 -0.0080  0.2189
 1766W        W 2630  13.443  27.810  21.692 -0.2227  0.0707  0.0782
 1767W        W 2631  13.458  28.122  21.330  0.0788 -0.0517  0.1137
 1768W        W 2632  13.491  26.627  23.732  0.0266 -0.0915  0.0056
 1769W        W 2633  11.102  26.181  21.713 -0.2293 -0.5288  0.0941
 1770W        W 2634  13.799   1.037  21.010 -0.0095  0.1707  0.0750
 1771W        W 2635  14.477  28.539  22.711  0.5459  0.1041 -0.2193
 1772W        W 2636  10.505  25.966  23.766 -0.0005  0.1118 -0.0440
 1773W        W 2637  12.578  28.575  23.271  0.0125 -0.1217  0.0000
 1774W        W 2638  12.639  24.953  21.392  0.0359 -0.0263 -0.1942
 1775W        W 2639  13.297  27.542  22.089  0.2418  0.3106 -0.1162
 1776W        W 2640  11.123  28.109  25.513  0.0136 -0.0194 -0.0832
 1777W        W 2641  13.785  28.584  21.230  0.2758  0.1733  0.2393
 1778W        W 2642  12.845  27.721  22.163 -0.1840  0.1909  0.0209
 1779W        W 2643  12.093   1.643  23.569  0.3742 -0.3160 -0.0212
 1780W        W 2644  12.508   0.681  26.733 -0.1380  0.1043  0.0605
 1781W        W 2645  13.797  28.249  22.525 -0.1266 -0.0600 -0.3406
 1782W        W 2646  14.012  28.194  24.838 -0.0504  0.0669  0.0367
 1783W        W 2647  15.504  26.821  23.970  0.2834 -0.1542 -0.1428
 1784W        W 2648   9.500  29.058  21.654 -0.0513 -0.2020 -0.0922
 1785W        W 2649  13.286  22.406  21.651  0.0535  0.0154  0.0674
 1786W        W 2650  11.261  28.478  22.784 -0.1838 -0.1700  0.3709
 1787W        W 2651  12.445  27.632  23.387 -0.0511  0.0603 -0.0604
 1788W        W 2652  14.788  29.054  24.955  0.0465 -0.2374  0.1902
 1789W        W 2653  10.758  24.192  21.616  0.1064  0.3936 -0.0276
 1790W        W 2654  16.728   0.279  23.905  0.2414  0.1511 -0.1319
 1791W        W 2655  12.954  27.269  24.207  0.0097  0.1001  0.3784
 1792W        W 2656  15.720  27.099  22.252 -0.0478 -0.0070 -0.2659
 1793W        W 2657  12.304  28.025  20.859 -0.0370  0.0236 -0.1261
 1794W        W 2658  10.526   0.285  21.360  0.0322 -0.0731 -0.4226
 1795W        W 2659  13.929  24.595  23.703  0.1948 -0.4072  0.0525
 1796W        W 2660  13.512  25.590  24.149  0.1806 -0.0661  0.0056
 1797W        W 2661  12.314  27.596  22.176 -0.1600 -0.0225  0.1316
 1798W        W 2662  11.291  24.372  24.113 -0.0140  0.2614  0.1703
 1799W        W 2663  12.822  28.013  24.811  0.3448 -0.1147  0.3728
 1800W        W 2664  10.760  24.252  23.882  0.1268  0.0747  0.0104
 1801W        W 2665  13.454  28.367  25.070 -0.0803  0.0035  0.0276
 1802W        W 2666  14.982  27.194  26.253 -0.0303 -0.1440 -0.0763
 1803W        W 2667  14.484  24.887  23.078 -0.1665  0.0373  0.0341
 1804W        W 2668  14.158  28.915  25.719  0.2474  0.2882  0.1081
 1805W        W 2669  14.911  23.621  24.313 -0.2908  0.0337 -0.0685
 1806W        W 2670  11.600  27.264  24.865  0.0404  0.1245  0.1118
 1807W        W 2671  16.902  25.426  20.503  0.2276  0.3692 -0.0820
 1808W        W 2672  15.134  25.503  20.706  0.0056  0.2565  0.1174
 1809W        W 2673  12.249  28.169  23.338 -0.1617 -0.1419 -0.2223
 1810W        W 2674  13.464   3.211  24.417 -0.0463  0.3708 -0.0225
 1811W        W 2675  13.894  23.673  22.189  0.2509 -0.1890 -0.0864
 1812W        W 2676  13.162  24.621  25.004 -0.0480 -0.0811  0.1105
 1813W        W 2677  12.236  26.739  21.313 -0.0389  0.1596 -0.1909
 1814W        W 2678  12.641  25.478  24.178 -0.1208  0.2333 -0.2510
 1815W        W 2679  11.317   1.589  23.742  0.3104  0.0488  0.0199
 1816W        W 2680  13.325  27.986  23.089 -0.2474  0.2514 -0.1249
 1817W        W 2681  15.327  26.394  24.355  0.3571  0.0141 -0.0351
 1818W        W 2682  13.644   1.062  22.010 -0.3226 -0.2409  0.0617
 1819W        W 2683   9.989  29.095  23.109 -0.0097  0.0132 -0.1509
 1820W        W 2684  12.553  21.487  21.825 -0.0462 -0.1044 -0.1647
 1821W        W 2685  18.269  28.392  22.684 -0.0507  0.0178  0.3998
 1822W        W 2686  15.210  24.939  24.523  0.1783 -0.0516  0.0783
 1823W        W 2687  11.092  26.915  24.011  0.1797  0.0845 -0.0794
 1824W        W 2688  15.221  27.918  22.028  0.0013 -0.0458 -0.2811
 1825W        W 2689  11.152  25.950  25.354  0.2344  0.2794  0.2000
 1826W        W 2690  12.190  24.577  24.829 -0.0280  0.0320 -0.1892
 1827W        W 2691   9.968  26.404  25.028 -0.0137 -0.0301  0.3180
 1828W        W 2692  12.961   0.180  25.037 -0.0741 -0.0755 -0.0148
 1829W        W 2693  13.296  28.780  22.965  0.1653  0.4013 -0.1812
 1830W        W 2694  12.225  29.110  23.937 -0.1794  0.0485  0.1462
 1831W        W 2695  15.367  28.478  24.658  0.2700 -0.0935  0.2391
 1832W        W 2696  13.567  26.188  21.876  0.0978 -0.1447 -0.5131
 1833W        W 2697  10.338  26.898  21.475 -0.2197  0.1298  0.2357
 1834W        W 2698  16.473  25.045  24.161 -0.0009 -0.2077 -0.2960
 1835W        W 2699  14.145  28.504  23.447  0.0158 -0.0510 -0.1154
 1836W        W 2700  13.161  26.000  22.643  0.3047 -0.1365  0.6753
 1837W        W 2701  14.386  27.881  21.353  0.1829 -0.1638 -0.0040
 1838W        W 2702  14.737  26.620  23.567 -0.1740 -0.0085  0.2846
 1839W        W 2703  14.850  27.784  23.148 -0.1907  0.4751  0.1448
 1840W        W 2704  12.582  26.256  23.622  0.0838  0.0186 -0.1591
 1841W        W 2705  10.618  25.790  23.021  0.1149  0.2461  0.0922
 1842W        W 2706  11.373  25.021  23.153 -0.4997  0.3707 -0.0403
 1843W        W 2707  13.737   0.087  21.552 -0.1727 -0.0681 -0.1558
 1844W        W 2708  13.589  25.785  23.641 -0.0454 -0.1895 -0.1345
 1845W        W 2709  13.850  27.199  24.590 -0.0572 -0.2219 -0.1043
 1846W        W 2710  12.837   1.116  24.049  0.0228  0.0960 -0.0299
 1847W        W 2711  13.410   0.403  25.035  0.2868 -0.1769  0.0256
 1848W        W 2712  11.194  27.246  24.534  0.2240 -0.1448 -0.0239
 1849W        W 2713  12.519   1.755  25.645  0.1879 -0.0045  0.2380
 1850W        W 2714  10.755  26.561  21.542  0.1219 -0.2232  0.1789
 1851W        W 2715  14.048  26.038  23.197 -0.2759 -0.0346  0.0012
 1852W        W 2716  12.742  27.169  23.440  0.0761  0.0534  0.0031
 1853W        W 2717  15.128  26.418  22.768 -0.5075 -0.1994 -0.4823
 1854W        W 2718  15.725  26.179  25.419 -0.1210  0.0224 -0.0712
 1855W        W 2719  13.019   0.861  22.640 -0.0537  0.2024 -0.1057
 1856W        W 2720  12.669   0.280  23.900  0.2056  0.1504 -0.1977
 1857W        W 2721  12.485  27.125  21.801 -0.1414  0.0817 -0.0488
 1858W        W 2722  12.946  24.867  24.526 -0.1210 -0.1051  0.2485
 1859W        W 2723  12.394   0.097  22.505  0.0974 -0.0148 -0.2093
 1860W        W 2724  10.957  26.892  23.514 -0.2329  0.0270 -0.0491
 1861W        W 2725  17.140  26.434  23.420  0.1110 -0.1342 -0.3554
 1862W        W 2726  11.823  27.516  21.335 -0.2171  0.2379  0.0942
 1863W        W 2727  14.675  25.893  24.902  0.0271 -0.1698  0.1594
 1864W        W 2728  10.797  27.964  23.643  0.0757  0.2151  0.2328
 1865W        W 2729  12.827  27.652  20.651  0.1261 -0.0590 -0.1702
 1866W        W 2730  12.517  27.959  21.735  0.2363 -0.2656  0.0174
 1867W        W 2731  13.885  28.474  26.668  0.2487  0.0140  0.0567
 1868W        W 2732  12.149  25.281  24.378  0.1879  0.1167  0.1399
 1869W        W 2733  14.813  28.342  24.002 -0.3531 -0.1806  0.0864
 1870W        W 2734  11.134  26.921  21.094 -0.2207  0.0177 -0.1128
 1871W        W 2735  12.013  27.710  23.681 -0.0765  0.4230  0.1418
 1872W        W 2736  12.096  25.797  25.341  0.1287 -0.3421 -0.1271
 1873W        W 2737  10.143   0.187  25.272  0.1291  0.1111 -0.1027
 1874W        W 2738  13.766  28.582  21.743 -0.0020  0.1728  0.3457
 1875W        W 2739  13.312  25.368  23.713  0.0276 -0.0810  0.0264
 1876W        W 2740  11.922  27.791  23.204 -0.0577  0.1851 -0.1664
 1877W        W 2741  13.039  25.520  24.401 -0.1010 -0.0242 -0.1868
 1878W        W 2742  14.348   0.867  25.221 -0.0343  0.0479  0.2162
 1879W        W 2743  12.980  27.526  24.637 -0.3800 -0.0618  0.0615
 1880W        W 2744  10.862  27.784  24.530  0.1056 -0.1759 -0.3618
 1881W        W 2745  14.046  25.936  24.987 -0.0766 -0.2468 -0.1138
 1882W        W 2746  12.589  26.743  23.662  0.2568 -0.1195 -0.0654
 1883W        W 2747  13.182  26.459  22.061 -0.1466  0.1466 -0.0938
 1884W        W 2748  14.591  27.015  21.592 -0.1500  0.0480 -0.1444
 1885W        W 2749  13.389   0.016  24.752  0.0332  0.0587 -0.1323
 1886W        W 2750  10.360  29.025  21.799  0.1456 -0.0154 -0.1810
 1887W        W 2751  14.281  26.436  22.503  0.1251  0.1035 -0.3179
 1888W        W 2752  12.749  25.833  24.660 -0.1266  0.1592  0.0536
 1889W        W 2753  12.586  26.426  23.147  0.0254  0.0265  0.2730
 1890W        W 2754  11.270  27.398  22.106 -0.4986 -0.0091 -0.0659
 1891W        W 2755  13.542  27.020  26.294 -0.0322  0.0658 -0.1055
 1892W        W 2756  13.498  26.271  22.365  0.2537  0.1858 -0.2519
 1893W        W 2757  12.539   0.413  24.825  0.1222 -0.1298  0.3369
 1894W        W 2758  10.609   0.319  24.337  0.0219 -0.2104 -0.2300
 1895W        W 2759   9.441  28.447  22.904  0.3656  0.2003 -0.0909
 1896W        W 2760  13.434  28.229  26.410 -0.0403 -0.0273  0.1296
 1897W        W 2761  13.442  28.521  22.271  0.3791  0.2419 -0.1328
 1898W        W 2762  14.875  26.701  22.425 -0.2311 -0.3304 -0.3622
 1899W        W 2763  14.147   2.732  20.670  0.3821  0.1762 -0.0984
 1900W        W 2764  14.013  28.628  20.235 -0.1766 -0.1983  0.1491
 1901W        W 2765  15.182  26.425  23.359  0.1724  0.1554 -0.1659
 1902W        W 2766  13.933  28.581  24.304  0.2603  0.1210  0.1063
 1903W        W 2767  15.237  28.138  22.868  0.1097 -0.2138  0.0172
 1904W        W 2768  11.881  25.191  22.848 -0.5341 -0.1240 -0.1549
 1905W        W 2769  13.661  24.690  24.214 -0.1016 -0.0247  0.3070
 1906W        W 2770  11.137  27.874  22.197 -0.1855  0.2756 -0.4361
 1907W        W 2771  10.410  28.319  22.502 -0.3531 -0.2191  0.0050
 1908W        W 2772  10.568  27.629  23.401 -0.1850 -0.2496 -0.1724
 1909W        W 2773   9.522  25.971  24.550  0.0915 -0.0569  0.1684
 1910W        W 2774  10.355  26.257  26.441  0.1524 -0.0395  0.2734
 1911W        W 2775  12.888  26.846  23.063  0.4092 -0.0672  0.1155
 1912W        W 2776  12.871  26.372  22.581  0.1739 -0.0793  0.0645
 1913W        W 2777  13.314  25.690  25.088  0.1463 -0.0580  0.0047
 1914W        W 2778  10.944  27.686  24.043 -0.0802  0.2763  0.1025
 1915W        W 2779  11.920  28.153  24.523  0.2017 -0.2291 -0.2270
 1916W        W 2780  16.175  26.565  25.346  0.0054 -0.0617  0.1455
 1917W        W 2781   9.660  26.336  20.507  0.3567 -0.1136 -0.0173
 1918W        W 2782  15.712  26.714  24.516  0.3101  0.3045  0.1399
 1919W        W 2783  12.976  26.625  20.722  0.1464 -0.1115 -0.1432
 1920W        W 2784  13.789  26.196  23.597 -0.1550 -0.3342  0.1891
 1921W        W 2785  11.867  26.469  24.072 -0.0062  0.1451 -0.1702
 1922W        W 2786   9.838  25.992  19.193  0.1224 -0.3352  0.1384
 1923W        W 2787  12.556   0.841  23.566  0.0886  0.0787 -0.2437
 1924W        W 2788  12.669  25.979  24.126  0.3490  0.0349  0.0370
 1925W        W 2789  13.888   0.006  20.629 -0.1405 -0.0334 -0.1001
 1926W        W 2790  11.928  29.061  23.439 -0.0587 -0.2077  0.2755
 1927W        W 2791  14.086  27.376  23.218 -0.1224 -0.1085 -0.0841
 1928W        W 2792  13.280   0.510  24.574 -0.0916  0.1275 -0.2647
 1929W        W 2793  12.301   0.830  24.844 -0.3044 -0.1008 -0.3279
 1930W        W 2794  12.572  26.819  24.949  0.1495  0.1029 -0.1847
 1931W        W 2795  14.974  26.640  24.055  0.0473  0.3876 -0.1577
 1932W        W 2796  13.742  26.184  24.621 -0.1484  0.0465  0.1292
 1933W        W 2797  10.893  28.921  19.441 -0.1176 -0.1041  0.1011
 1934W        W 2798  14.511  27.626  22.425  0.0312  0.0211 -0.1284
 1935W        W 2799  10.899  28.293  24.653 -0.2800 -0.0049 -0.1364
 1936W        W 2800  11.557   0.442  24.436 -0.0597  0.0029 -0.0043
 1937W        W 2801  12.532  27.228  25.212 -0.0882  0.0198 -0.1419
 1938W        W 2802  12.818  28.294  24.048 -0.0290 -0.0666  0.0096
 1939W        W 2803  12.504   0.170  28.333  0.0937 -0.1286  0.0006
 1940W        W 2804  13.165  26.209  21.559 -0.1171 -0.0072 -0.0576
 1941W        W 2805  14.307   0.951  22.527 -0.1290 -0.0343  0.2999
 1942W        W 2806  10.474  26.678  26.231 -0.0643 -0.0583 -0.0729
 1943W        W 2807  14.578  29.105  23.595  0.1216 -0.0074 -0.1714
 1944W        W 2808  15.428  25.768  25.318  0.1616 -0.1142  0.0856
 1945W        W 2809  15.019   0.098  22.280 -0.0905 -0.1867 -0.2370
 1946W        W 2810  12.604  27.235  22.882 -0.1058  0.1409  0.0530
 1947W        W 2811  12.333  24.616  21.845 -0.0546  0.1976  0.1757
 1948W        W 2812  13.610  27.748  23.892  0.0023  0.2440 -0.2571
 1949W        W 2813  10.536   1.046  22.884  0.0492 -0.0581  0.0778
 1950W        W 2814  16.340  26.624  23.796 -0.0735 -0.1434  0.2103
 1951W        W 2815  13.210  27.158  23.318  0.0511 -0.1948 -0.0515
 1952W        W 2816  14.581  25.373  22.222 -0.1310 -0.3488  0.0506
 1953W        W 2817  13.234  24.357  24.453 -0.1208  0.0986  0.1154
 1954W        W 2818  13.643  26.973  24.121 -0.0935  0.0828 -0.0439
 1955W        W 2819  13.372  28.908  21.409 -0.2036 -0.0113 -0.0130
 1956W        W 2820  14.304  29.135  25.209  0.2829 -0.0056  0.0399
 1957W        W 2821  11.399  29.050  23.462  0.1552  0.0396 -0.6259
 1958W        W 2822  10.330  27.816  27.774 -0.0013  0.0857  0.3971
 1959W        W 2823  12.503  28.259  21.308 -0.3044 -0.1713  0.0659
 1960W        W 2824  11.185  25.479  22.476  0.0087  0.0742 -0.1456
 1961W        W 2825  12.621  27.708  22.638 -0.0089  0.2298  0.3238
 1962W        W 2826  10.224   3.039  22.754 -0.1485 -0.0327 -0.2407
 1963W        W 2827  17.109  26.948  22.473 -0.1879  0.2513  0.1811
 1964W        W 2828  14.317  28.891  24.341  0.2202  0.3777  0.3386
 1965W        W 2829  13.250   0.411  20.846 -0.2880 -0.0712 -0.0330
 1966W        W 2830  13.992  27.345  23.914 -0.0044  0.0516  0.4251
 1967W        W 2831   8.564   0.368  23.671 -0.1191 -0.2069  0.1159
 1968W        W 2832  12.304   1.167  24.499  0.0066 -0.2317  0.0701
 1969W        W 2833  14.321  26.855  27.915  0.1820 -0.3599 -0.0311
 1970W        W 2834  13.957  26.058  22.596 -0.0308  0.0522  0.0823
 1971W        W 2835  11.656  28.053  21.492 -0.0365  0.0307 -0.0225
 1972W        W 2836  15.528  28.052  22.419 -0.2170 -0.1418 -0.1693
 1973W        W 2837  14.281  27.729  20.457 -0.1435  0.0875 -0.1311
 1974W        W 2838  13.213  25.972  24.650 -0.0208 -0.0874  0.1077
 1975W        W 2839  13.045  26.191  23.096  0.0523 -0.0246  0.0526
 1976W        W 2840  15.314  28.236  23.924  0.1653 -0.1259  0.1971
 1977W        W 2841  10.364  28.317  23.494 -0.2991  0.2943  0.0878
 1978W        W 2842  13.521  27.790  25.888 -0.2191  0.0742 -0.0713
 1979W        W 2843  13.972  26.358  22.146  0.1917  0.1697 -0.1198
 1980W        W 2844  12.947  26.399  24.029 -0.1321  0.0372  0.0469
 1981W        W 2845  14.056  29.011  21.100  0.0887 -0.0926  0.2585
 1982W        W 2846  11.733   0.849  25.411  0.0434 -0.1165  0.2173
 1983W        W 2847  11.584  28.555  21.589 -0.0318  0.2176  0.1498
 1984W        W 2848  14.658  28.944  22.112  0.1038  0.1524  0.1345
 1985W        W 2849  11.867   0.621  24.029 -0.1647 -0.0373  0.2348
 1986W        W 2850  16.658  26.591  23.404 -0.1999  0.3501 -0.0663
 1987W        W 2851  11.181  26.961  22.396 -0.1149  0.1007 -0.0412
 1988W        W 2852  13.527  28.954  24.196 -0.0318  0.0843 -0.1159
 1989W        W 2853  14.138  28.756  22.315 -0.0431 -0.0818  0.0691
 1990W        W 2854  11.208  28.168  23.825  0.0113  0.1497 -0.3885
 1991W        W 2855  14.770  28.017  22.136  0.0402  0.2679 -0.0407
 1992W        W 2856  12.637  23.653  27.885  0.2464  0.0112 -0.1230
 1993W        W 2857  11.399  27.750  24.726 -0.0312 -0.3167 -0.3519
 1994W        W 2858  11.286  27.687  22.604  0.0891 -0.1378  0.1690
 1995W        W 2859  13.331  24.335  21.151  0.3476  0.0290 -0.0785
 1996W        W 2860  10.247   1.141  26.931 -0.2831 -0.0542  0.3775
 1997W        W 2861  10.154  26.455  21.510  0.2474  0.2629 -0.0131
 1998W        W 2862  13.091  25.446  22.430 -0.0748 -0.2313  0.2602
 1999W        W 2863  13.728  27.395  26.049 -0.1820 -0.1194  0.5280
 2000W        W 2864  12.183   1.592  22.745 -0.0394 -0.1898  0.0112
 2001W        W 2865  16.910  25.525  23.581  0.0452 -0.0456 -0.2566
 2002W        W 2866  13.605  24.566  27.015  0.0220  0.2726 -0.1724
 2003W        W 2867  14.417  27.543  23.633 -0.0860  0.1428 -0.0165
 2004W        W 2868  11.605  28.818  23.032 -0.1498 -0.0934  0.1002
 2005W        W 2869  14.184  24.650  22.696  0.0378 -0.1911  0.1237
 2006W        W 2870  13.808  27.930  23.061  0.0581  0.3129 -0.1008
 2007W        W 2871  12.457  28.694  21.577 -0.0835  0.0514 -0.1334
 2008W        W 2872  14.846  24.839  21.099  0.1622 -0.2315 -0.2790
 2009W        W 2873  15.644  25.510  21.784 -0.0253  0.1263 -0.0741
 2010W        W 2874  11.929  28.556  23.437  0.1974  0.1868 -0.2578
 2011W        W 2875  11.498   0.096  24.780 -0.1242 -0.1004 -0.2741
 2012W        W 2876  14.654  25.615  24.415  0.1819  0.0271 -0.2306
 2013W        W 2877  12.411  25.054  22.848  0.0953  0.1840  0.1630
 2014W        W 2878  16.699   0.158  25.461 -0.0485  0.1575  0.2065
 2015W        W 2879  14.131  26.937  24.299  0.1948 -0.3617  0.0627
 2016W        W 2880  10.599   0.492  22.709 -0.0321  0.1743  0.0636
 2017W        W 2881  13.208  28.050  23.709  0.0397  0.0321  0.1847
 2018W        W 2882  10.126  24.447  22.955  0.1264 -0.2571 -0.1987
 2019W        W 2883  10.726   1.233  27.128 -0.0859  0.0089  0.1500
 2020W        W 2884  15.090  27.354  25.761 -0.1124 -0.0592  0.0591
 2021W        W 2885  14.813  28.311  25.412 -0.2833  0.0780  0.2049
 2022W        W 2886  12.222  26.034  23.231  0.0809 -0.2139 -0.0664
 2023W        W 2887  15.222  28.597  22.929 -0.0113 -0.1020 -0.0040
 2024W        W 2888  12.586  25.072  21.926 -0.0556 -0.1724 -0.0871
 2025W        W 2889  16.983  25.030  23.487 -0.0089 -0.0699 -0.1168
 2026W        W 2890  10.053   0.572  22.209 -0.1443  0.1841 -0.4167
 2027W        W 2891  12.916  26.900  22.538  0.0204 -0.3712 -0.0969
 2028W        W 2892  11.442  26.895  22.908 -0.0186  0.1840 -0.0635
 2029W        W 2893  14.844  24.795  23.407 -0.0636 -0.0599  0.1142
 2030W        W 2894  12.267  25.264  23.870  0.3763  0.0060 -0.0164
 2031W        W 2895  10.785  27.346  23.748  0.1128 -0.0935  0.2485
 2032W        W 2896  13.064   0.961  24.493  0.2056  0.0577 -0.4093
 2033W        W 2897  10.476  24.407  22.421  0.4012  0.2372 -0.1925
 2034W        W 2898  14.055  26.382  21.561  0.1355 -0.2557 -0.0615
 2035W        W 2899  13.947  26.838  22.368 -0.1238 -0.3503 -0.1748
 2036W        W 2900  10.222  28.157  22.948 -0.1995  0.1272 -0.4791
 2037W        W 2901  10.864   3.566  27.773  0.2099 -0.0282  0.1421
 2038W        W 2902  17.300  28.131  21.415  0.3691  0.0469 -0.0301
 2039W        W 2903  11.266   0.624  24.804 -0.2065  0.2269 -0.2200
 2040W        W 2904  12.373   0.120  23.036 -0.0817  0.2182 -0.0107
 2041W        W 2905  12.404  24.977  20.946 -0.4841 -0.0965 -0.2057
 2042W        W 2906  12.857  28.977  22.474  0.1330 -0.0202  0.1126
 2043W        W 2907  13.619  26.173  23.006 -0.2784 -0.1523  0.1362
 2044W        W 2908   9.881   0.282  20.473  0.0886 -0.4208  0.0447
 2045W        W 2909  13.088  25.228  21.982 -0.0987 -0.1710 -0.2890
 2046W        W 2910  12.153  27.366  23.025  0.2008 -0.1802 -0.0210
 2047W        W 2911  12.604  27.130  24.593 -0.1596 -0.1956  0.0792
 2048W        W 2912  12.278  28.054  24.919 -0.1253  0.2026 -0.0208
 2049W        W 2913  13.671  25.692  24.644 -0.1410  0.1077  0.1801
 2050W        W 2914  11.879   1.290  26.898  0.1546 -0.0166 -0.0667
 2051W        W 2915  13.414  27.510  22.950 -0.1506  0.2662 -0.4090
 2052W        W 2916  16.213  28.079  24.676  0.1419  0.1038 -0.1989
 2053W        W 2917  11.319   2.577  24.903  0.0357 -0.0197  0.0057
 2054W        W 2918  13.927  28.154  23.944  0.0470 -0.2605  0.1129
 2055W        W 2919  14.368  25.573  21.660 -0.0051 -0.3355 -0.0030
 2056W        W 2920  13.303  26.545  22.780  0.1432  0.3421  0.0820
 2057W        W 2921  13.176  28.661  25.358 -0.0556  0.2477  0.1597
 2058W        W 2922  12.304  24.859  25.294 -0.1004 -0.0897 -0.0171
 2059W        W 2923  14.544  25.138  23.853  0.1704 -0.1703  0.1268
 2060W        W 2924  12.014  28.185  22.518 -0.2355 -0.1460 -0.0604
 2061W        W 2925  11.152  28.723  23.173 -0.0105 -0.2056  0.0836
 2062W        W 2926  11.433   1.588  24.776 -0.1140  0.0880  0.2508
 2063W        W 2927  11.641  28.688  21.052  0.1667 -0.1517  0.0596
 2064W        W 2928  12.867  28.560  22.278  0.1408 -0.0664 -0.2357
 2065W        W 2929  12.292  25.430  21.842 -0.2293 -0.0812  0.2448
 2066W        W 2930  13.161  28.277  24.570  0.2181 -0.1351 -0.2460
 2067W        W 2931  13.921  28.043  21.506 -0.0516  0.2328 -0.5758
 2068W        W 2932  17.185  27.322  24.623 -0.0949 -0.1517 -0.0185
 2069W        W 2933  13.876  27.545  21.643 -0.1010 -0.0325  0.0765
 2070W        W 2934  13.262   0.535  22.906 -0.2069 -0.0155 -0.3930
 2071W        W 2935  13.923  25.870  23.962  0.0524  0.1211  0.0241
 2072W        W 2936  12.451   3.038  25.587  0.3118 -0.2756 -0.0866
 2073W        W 2937  13.992  28.633  27.144  0.1343  0.0394  0.1094
 2074W        W 2938  12.946  24.534  25.688 -0.0543  0.0395  0.0213
 2075W        W 2939  11.123  25.376  20.863  0.1783 -0.1489 -0.0952
 2076W        W 2940  12.486  25.883  21.731 -0.1373 -0.0754  0.2566
 2077W        W 2941  13.352  27.032  24.552 -0.1057 -0.2098 -0.2984
 2078W        W 2942  13.931  26.553  23.296 -0.0356 -0.4300 -0.0378
 2079W        W 2943  15.447  23.283  23.101 -0.3417  0.2851  0.1151
 2080W        W 2944  12.706   0.787  23.069  0.0319 -0.0963 -0.1401
 2081W        W 2945  14.836   0.527  24.438  0.0734 -0.2081  0.1362
 2082W        W 2946  13.106   0.474  20.368  0.1683 -0.3289  0.1491
 2083W        W 2947  15.240  27.404  23.948 -0.2437  0.2053  0.0830
 2084W        W 2948  15.865  25.499  22.417 -0.4411  0.0341  0.1235
 2085W        W 2949  13.344  26.630  24.265  0.0213  0.0320 -0.0055
 2086W        W 2950  11.629   0.888  20.516  0.0717  0.1319  0.2104
 2087W        W 2951  14.847  27.947  25.792  0.2425  0.1671 -0.3340
 2088W        W 2952  14.284  26.167  23.673  0.0293 -0.0200  0.0288
 2089W        W 2953  14.976  27.816  24.032  0.2327  0.5386  0.2582
 2090W        W 2954  14.392  27.767  24.782 -0.2085 -0.0746 -0.0411
 2091W        W 2955  13.442  23.804  23.821 -0.0008  0.0787 -0.1307
 2092W        W 2956  11.880  26.214  22.239  0.3953  0.0486 -0.2548
 2093W        W 2957  13.493  28.379  24.163 -0.0952  0.3382  0.0843
 2094W        W 2958  12.770  27.570  25.724 -0.0687  0.1609  0.0852
 2095W        W 2959   9.664  27.629  21.251  0.1796 -0.0552 -0.1741
 2096W        W 2960  12.771   0.298  23.355  0.0389 -0.0044 -0.3457
 2097W        W 2961  10.995  28.057  22.682  0.1045 -0.0146 -0.1672
 2098W        W 2962  13.728  25.701  22.924 -0.0303 -0.1647 -0.0311
 2099W        W 2963  13.778  27.370  21.163 -0.2589  0.1041 -0.0036
 2100W        W 2964  15.202  28.188  21.584  0.0291  0.0021 -0.2997
 2101W        W 2965  14.163  25.419  23.020 -0.0844  0.0075 -0.1722
 2102W        W 2966  13.822   0.619  21.613  0.0206 -0.3643  0.3405
 2103W        W 2967  13.244   1.265  24.954 -0.0741  0.2461  0.2938
 2104W        W 2968  12.260   0.412  24.205 -0.0413  0.3033  0.3217
 2105W        W 2969  13.552  28.157  26.949 -0.2545  0.2421 -0.1209
 2106W        W 2970  11.927  28.926  24.716 -0.2625 -0.1040  0.2315
 2107W        W 2971  12.681  28.518  24.538 -0.2049 -0.1466 -0.0471
 2108W        W 2972  13.024  28.417  27.706 -0.0736  0.3193 -0.1226
 2109W        W 2973  14.929  28.974  23.214 -0.1928 -0.2523  0.0883
 2110W        W 2974  11.027  27.928  25.041  0.0398  0.0440 -0.0642
 2111W        W 2975  14.593  27.533  24.178 -0.1699  0.2288  0.2486
 2112W        W 2976  13.321   0.696  21.715 -0.2822  0.0701 -0.1936
 2113W        W 2977  13.238  27.746  27.118  0.0080  0.0075 -0.0148
 2114W        W 2978  11.190  28.976  22.668  0.1451  0.1878 -0.1405
 2115W        W 2979  10.400  28.566  21.535 -0.1872  0.0272 -0.0755
 2116W        W 2980  10.943  27.199  28.638 -0.0200 -0.0710  0.0126
 2117W        W 2981  12.326  27.375  26.988  0.1112 -0.1076  0.0993
 2118W        W 2982  16.407  26.735  24.306 -0.0831 -0.1426  0.3314
 2119W        W 2983  16.863   1.525  26.306  0.0164 -0.1918  0.1478
 2120W        W 2984  14.918  28.497  24.971 -0.1715 -0.4268 -0.0584
 2121W        W 2985  13.255  28.799  27.944 -0.0693 -0.0088  0.0817
 2122W        W 2986  10.942  27.375  25.767 -0.0963 -0.2177  0.2365
 2123W        W 2987  15.199  28.385  27.580 -0.3040  0.0877  0.1596
 2124W        W 2988  14.642   0.953  28.336 -0.0006 -0.0828 -0.1989
 2125W        W 2989  11.567  26.518   3.176 -0.1519  0.0759 -0.1032
 2126W        W 2990  11.838  26.478  27.433  0.1333  0.1129  0.1186
 2127W        W 2991   9.985  26.209  28.568 -0.0518  0.1483 -0.0690
 2128W        W 2992  14.729  27.038  28.135 -0.0397  0.4994 -0.2727
 2129W        W 2993  13.298  27.167   1.072  0.2131 -0.0917 -0.4446
 2130W        W 2994  11.535  24.574  26.509  0.0961 -0.1778  0.2025
 2131W        W 2995  10.245  27.552  28.433 -0.2783  0.1903 -0.3211
 2132W        W 2996  12.457   1.095  27.991  0.1080 -0.2363 -0.0273
 2133W        W 2997  13.408  26.902  27.661 -0.0159 -0.0092  0.2357
 2134W        W 2998  11.849  25.090   1.950  0.0907  0.0639 -0.1672
 2135W        W 2999  13.771  27.297   0.856 -0.1096 -0.3150  0.0319
 2136W        W 3000  15.895  26.861  26.116  0.1971 -0.0092 -0.0225
 2137W        W 3001  14.698  26.724  27.240  0.2219 -0.0964  0.0803
 2138W        W 3002  14.681  28.609   0.253  0.3891 -0.1027  0.0866
 2139W        W 3003  10.811  28.272  27.211  0.0410  0.0432 -0.1693
 2140W        W 3004   9.010  28.202  28.080 -0.1506  0.2705  0.3172
 2141W        W 3005  12.182  28.308   1.100  0.0424  0.0135  0.0637
 2142W        W 3006  13.924  27.627  27.970 -0.0646 -0.0457  0.1914
 2143W        W 3007  11.927   0.011  26.053 -0.1470 -0.1463 -0.0092
 2144W        W 3008  13.853  28.786  26.152  0.1092 -0.2279  0.0686
 2145W        W 3009  12.611  28.257  27.436  0.0780  0.0902  0.2049
 2146W        W 3010  15.375  28.052  27.952 -0.1269  0.1493 -0.0845
 2147W        W 3011  11.033   0.462   2.606 -0.1255  0.4942  0.0201
 2148W        W 3012  11.206   0.584  27.956 -0.1302 -0.1130  0.1746
 2149W        W 3013  13.421  27.368   0.046 -0.3312 -0.0361 -0.0237
 2150W        W 3014   9.982  26.410   0.852  0.1219 -0.0277  0.0914
 2151W        W 3015  11.385   0.588  27.415 -0.1775  0.0185 -0.0301
 2152W        W 3016  12.952  24.071  24.754 -0.1426  0.0275 -0.3183
 2153W        W 3017  12.141  28.987  27.391 -0.2978  0.1613  0.0799
 2154W        W 3018  16.872   0.398  28.809  0.1806  0.0477  0.0277
 2155W        W 3019  13.838  26.322   0.699  0.0362 -0.0425 -0.2528
 2156W        W 3020  12.997  28.782  27.387 -0.0765  0.1681  0.0131
 2157W        W 3021  13.893  27.078  27.730 -0.1119  0.1991  0.0043
 2158W        W 3022  12.614  27.525  28.708  0.1439 -0.1822 -0.1351
 2159W        W 3023  12.547  27.583  24.842 -0.2855  0.0878  0.0759
 2160W        W 3024  10.422  28.691  28.301  0.2878 -0.0735  0.2165
 2161W        W 3025  11.963  27.105  26.212  0.1480 -0.1824 -0.1695
 2162W        W 3026  10.359  25.220  28.341  0.1068  0.2113 -0.0194
 2163W        W 3027  16.071  26.219  28.960 -0.0323  0.0870  0.0699
 2164W        W 3028  15.232  26.965  27.194 -0.3463  0.1249  0.0083
 2165W        W 3029  14.627  27.757  28.205  0.0832 -0.0109  0.1982
 2166W        W 3030  14.244  28.758  27.991  0.0796  0.1780  0.0235
 2167W        W 3031  13.763  28.985  26.664 -0.1483  0.0721  0.1141
 2168W        W 3032  15.218  27.343   0.894 -0.3382  0.0071 -0.0637
 2169W        W 3033  14.998  28.990  27.442 -0.1956 -0.1970  0.1797
 2170W        W 3034  12.476  28.290  27.896  0.0804 -0.0214  0.1567
 2171W        W 3035  11.437  27.888  27.822 -0.0805 -0.0021 -0.0965
 2172W        W 3036  14.637  24.281  27.909  0.0877  0.1798  0.0995
 2173W        W 3037  15.563  24.564  27.921 -0.1023  0.6125 -0.0685
 2174W        W 3038  12.797  27.579  27.293 -0.2318 -0.0082  0.0463
 2175W        W 3039  13.554   0.907  24.894  0.0515 -0.0946 -0.3832
 2176W        W 3040  13.377  26.957  25.720  0.0202  0.3375  0.1415
 2177W        W 3041  13.370  28.512   0.248  0.0156 -0.1789  0.0796
 2178W        W 3042  10.656  27.330  27.526  0.0277 -0.4243  0.1133
 2179W        W 3043  11.340   0.096  27.922  0.0492  0.3912  0.0153
 2180W        W 3044  10.700  25.958  28.402  0.0313  0.1617  0.0538
 2181W        W 3045  14.372  26.040  25.864 -0.1558  0.4759  0.1238
 2182W        W 3046  13.177  27.836  24.178  0.1522  0.1547 -0.2706
 2183W        W 3047  11.346  28.412  27.250 -0.0558  0.0278 -0.1660
 2184W        W 3048  11.762  28.180  26.289  0.1724  0.5129 -0.0268
 2185W        W 3049  13.127  27.404  28.437  0.0382  0.0311 -0.0144
 2186W        W 3050  15.615  28.709  26.763  0.4810 -0.1726 -0.1962
 2187W        W 3051  14.943   1.179  27.117  0.1234 -0.1943 -0.0570
 2188W        W 3052  12.893   0.463  28.251  0.0031 -0.0690  0.1581
 2189W        W 3053  14.075  28.566   0.973  0.2535 -0.0586  0.1842
 2190W        W 3054  15.254  28.334  26.694 -0.2377  0.2691 -0.1062
 2191W        W 3055  14.511  26.965   0.520 -0.0299  0.1560  0.2155
 2192W        W 3056  11.561  25.098  26.336  0.0995  0.1137 -0.0390
 2193W        W 3057  12.965  26.708   0.575 -0.1924  0.1163  0.0275
 2194W        W 3058  12.089  28.204  23.791 -0.0760 -0.0385  0.2677
 2195W        W 3059  12.400  28.632  23.740 -0.0895  0.5227 -0.0619
 2196W        W 3060  11.580  26.462  28.396  0.1313 -0.0130 -0.0482
 2197W        W 3061   9.864  26.601   3.087 -0.1179 -0.1726 -0.0457
 2198W        W 3062  11.017  26.028  25.883  0.0339 -0.1057  0.2633
 2199W        W 3063  13.617  27.296  28.684 -0.0935  0.1207  0.3082
 2200W        W 3064  11.199  28.469  28.667 -0.3073 -0.4013 -0.2185
 2201W        W 3065  12.372  27.197  25.674 -0.0976 -0.0578 -0.1793
 2202W        W 3066  15.756   0.314   2.197  0.3065  0.0397 -0.0579
 2203W        W 3067  12.295  27.415  28.264 -0.3148  0.2156  0.3826
 2204W        W 3068  15.170   0.649   1.974  0.0145 -0.0738  0.0901
 2205W        W 3069  13.584  28.615  28.405 -0.2908 -0.1189  0.1377
 2206W        W 3070  15.404  26.850  28.803 -0.1112 -0.0377  0.1035
 2207W        W 3071  13.556  27.587   2.743 -0.1134  0.2915  0.1251
 2208W        W 3072  13.193  27.668   0.362  0.2754 -0.2419  0.1775
 2209W        W 3073  11.681  27.437  23.465 -0.1935  0.1899 -0.2046
 2210W        W 3074  11.627  24.793   1.627 -0.1075  0.2799  0.0013
 2211W        W 3075  15.004  28.136  27.046  0.0859  0.0076  0.0692
 2212W        W 3076  14.344  29.033  28.365 -0.0144  0.1105  0.4145
 2213W        W 3077  13.795   2.699   0.204  0.3168  0.0318  0.2463
 2214W        W 3078  10.815  24.192  25.929 -0.2156 -0.2328  0.0039
 2215W        W 3079  14.415   0.889  27.072 -0.1414 -0.2048 -0.4172
 2216W        W 3080  15.760   0.471  25.325 -0.2886  0.0571 -0.2751
 2217W        W 3081  12.315  27.847  27.365 -0.3374  0.1076 -0.0800
 2218W        W 3082  13.085  26.941  23.844  0.0187  0.0410  0.0305
 2219W        W 3083  16.618   1.066  27.754  0.1608 -0.0874  0.1286
 2220W        W 3084  15.268  27.822  28.541  0.1656  0.3425  0.0839
 2221W        W 3085  14.520  26.800  28.758 -0.1364  0.1755  0.0035
 2222W        W 3086  14.164  27.681  25.302 -0.0146  0.0637  0.2027
 2223W        W 3087   9.662   0.018   3.098 -0.2748 -0.3894  0.1545
 2224W        W 3088  13.530  26.545  26.407  0.1837 -0.0270 -0.2445
 2225W        W 3089  10.387  28.733   1.700 -0.3414 -0.3221  0.1893
 2226W        W 3090  12.602  27.104  27.868  0.1425  0.1195 -0.1474
 2227W        W 3091  13.311  28.972  28.672 -0.3379 -0.4263 -0.0351
 2228W        W 3092  16.167  27.864  27.667 -0.0576  0.3374 -0.3720
 2229W        W 3093  13.994   0.608  29.145 -0.0511  0.2327  0.3788
 2230W        W 3094  14.302  28.490  23.960 -0.3099 -0.0586 -0.2382
 2231W        W 3095  13.812  28.567  27.972  0.0645 -0.0798  0.0397
 2232W        W 3096  16.380  27.477  28.619  0.0400  0.1712  0.0402
 2233W        W 3097  11.935  27.286  28.650  0.3477 -0.1499  0.2903
 2234W        W 3098  14.167  27.580   0.095  0.0580  0.0804  0.2260
 2235W        W 3099  12.206  28.686  25.819  0.4780  0.0068 -0.0300
 2236W        W 3100  14.435  27.536  26.545 -0.2057 -0.1217  0.0515
 2237W        W 3101  17.286  28.395  26.818 -0.0332 -0.3908 -0.0868
 2238W        W 3102  15.623   0.207  25.729  0.1657 -0.1408 -0.2037
 2239W        W 3103  14.516  27.320  28.513 -0.2065  0.2322  0.0428
 2240W        W 3104  14.262   0.097  24.696  0.1232  0.1599  0.3596
 2241W        W 3105  15.304  27.880  25.659  0.1338  0.2923 -0.0195
 2242W        W 3106  11.687  28.260  26.814 -0.1545  0.0517  0.1238
 2243W        W 3107  13.892  27.682  28.795  0.0617 -0.4160  0.1885
 2244W        W 3108  14.098   0.368  26.643 -0.3022  0.1748  0.0820
 2245W        W 3109  12.286  28.599  24.773 -0.0361 -0.0777 -0.0608
 2246W        W 3110  16.819  27.012  28.611  0.0332 -0.0416  0.0739
 2247W        W 3111  14.987  23.421   0.985 -0.1945  0.1626 -0.1380
 2248W        W 3112  10.863   2.202  27.086  0.1843 -0.5690  0.1738
 2249W        W 3113  13.927  26.263  26.623 -0.1241 -0.1416  0.0485
 2250W        W 3114  16.343  27.491  27.952 -0.1349 -0.2626 -0.1182
 2251W        W 3115  10.838  28.272  28.372  0.0200  0.0757 -0.0218
 2252W        W 3116  15.263  26.830  25.686  0.0830 -0.0752  0.1488
 2253W        W 3117  15.375  24.232  27.058 -0.1136  0.0859 -0.1491
 2254W        W 3118  13.083   0.857  27.060  0.1524  0.2765 -0.0898
 2255W        W 3119  12.672  28.876   0.177  0.1765  0.0090 -0.0639
 2256W        W 3120  12.066  26.110  27.107 -0.0411  0.1417  0.3285
 2257W        W 3121  12.775  27.953   0.526  0.0933  0.1249 -0.2254
 2258W        W 3122  10.637   1.019  26.532 -0.3187 -0.1060 -0.1166
 2259W        W 3123  12.172  28.688  25.309  0.1257  0.0794  0.3094
 2260W        W 3124  12.615  28.807  28.486  0.2190 -0.1601  0.2309
 2261W        W 3125  12.824  26.929  25.851  0.0448  0.1319  0.1110
 2262W        W 3126  13.617  26.116   0.193  0.0492 -0.0498 -0.0511
 2263W        W 3127  13.844   1.952  27.301 -0.0699  0.0846  0.2448
 2264W        W 3128  12.296   1.136  26.609 -0.1677 -0.1433 -0.3135
 2265W        W 3129  13.482  27.242  28.082  0.1919 -0.0489 -0.1712
 2266W        W 3130  13.170   1.346  27.260 -0.0731  0.2056 -0.1645
 2267W        W 3131  10.718  25.755  25.571 -0.4045  0.4242 -0.0977
 2268W        W 3132  11.768   1.405  27.693  0.0539  0.1320 -0.2433
 2269W        W 3133  12.070  23.848  26.312 -0.3183 -0.2371  0.0072
 2270W        W 3134  13.810   0.589   0.753 -0.0654 -0.2045  0.3504
 2271W        W 3135  12.036  26.632  26.263 -0.5283 -0.0767  0.0473
 2272W        W 3136   9.715  27.233   0.916  0.1970  0.0469  0.1914
 2273W        W 3137  11.511  27.265  26.498 -0.1006 -0.0675 -0.0861
 2274W        W 3138  12.165  26.787  25.345  0.0392 -0.1281 -0.0884
 2275W        W 3139  11.891  27.014  25.714 -0.2355  0.0609  0.0713
 2276W        W 3140  12.840  27.016   2.930  0.1052 -0.2407 -0.1175
 2277W        W 3141  12.531  25.249   0.230 -0.1054  0.2144  0.4656
 2278W        W 3142  12.970  27.121  27.506  0.5204  0.0761  0.1271
 2279W        W 3143  11.661   1.252  28.251  0.3528  0.2496  0.0408
 2280W        W 3144  14.068  27.688   0.856 -0.1910 -0.0329  0.0906
 2281W        W 3145  13.255  25.883  27.544 -0.0901  0.0024  0.1300
 2282W        W 3146  12.978  26.700  25.331 -0.0719 -0.3069  0.2124
 2283W        W 3147   9.845  28.069  25.197  0.0637 -0.2616 -0.1818
 2284W        W 3148  12.541   1.438  25.227  0.2541  0.1528 -0.0373
 2285W        W 3149  10.324  25.570  26.457 -0.1411  0.0760  0.0988
 2286W        W 3150  14.629  28.671  28.800 -0.2179 -0.0223 -0.4248
 2287W        W 3151  13.309  27.101  27.107  0.2658 -0.0029  0.3094
 2288W        W 3152  14.991  26.998  28.597  0.2109  0.0739  0.0807
 2289W        W 3153  12.167  27.254  24.400 -0.0954 -0.0606 -0.3606
 2290W        W 3154  13.217  28.597   1.784 -0.2321  0.0280 -0.3140
 2291W        W 3155  14.838  26.586  25.693 -0.0311  0.2068  0.0564
 2292W        W 3156  12.329   1.651   1.704 -0.1617 -0.2512  0.1465
 2293W        W 3157   9.626   0.655  28.060 -0.0819 -0.1087 -0.0857
 2294W        W 3158  10.388  29.010  24.502 -0.1988  0.1714  0.0258
 2295W        W 3159  13.712  27.055   0.422 -0.1588  0.1979 -0.0648
 2296W        W 3160  11.700   0.465  25.651  0.0436 -0.1547 -0.0186
 2297W        W 3161  15.802   1.935  26.720  0.2077 -0.2046  0.1522
 2298W        W 3162  13.023  28.669  25.888  0.2508 -0.0298  0.1263
 2299W        W 3163   9.885  27.107  25.112  0.0783  0.1073  0.4294
 2300W        W 3164  14.461  27.340  25.046  0.0519 -0.0674  0.1504
 2301W        W 3165  14.277  28.479  29.134 -0.1953  0.0207 -0.4006
 2302W        W 3166  14.793   1.107  25.371  0.1167 -0.0044 -0.0749
 2303W        W 3167  11.152  24.500  26.764  0.0990  0.0311 -0.0493
 2304W        W 3168  12.396  26.928  26.085  0.2586 -0.0415 -0.0547
 2305W        W 3169  11.715   0.108   0.177 -0.3973  0.2613  0.0103
 2306W        W 3170  13.416  27.314  23.853 -0.4277 -0.1147 -0.1791
 2307W        W 3171  10.049  27.113  24.661 -0.0419  0.0955 -0.3785
 2308W        W 3172  12.791  26.285  28.826 -0.2675  0.4412  0.2640
 2309W        W 3173   9.332  24.359   1.605 -0.2137  0.2262  0.0523
 2310W        W 3174  14.843  27.273  27.158 -0.0624  0.1159  0.2252
 2311W        W 3175  13.079   0.468  25.426 -0.3105 -0.3449 -0.0311
 2312W        W 3176  14.553  26.642  26.175 -0.0359  0.2646 -0.0662
 2313W        W 3177   8.524  26.196   2.880  0.0905  0.0387  0.3581
 2314W        W 3178  10.988  26.317  28.650  0.0741 -0.0339 -0.2108
 2315W        W 3179  15.126  26.011  26.952  0.0617  0.1146  0.0041
 2316W        W 3180   9.721  24.899  26.205 -0.2459  0.1218 -0.0340
 2317W        W 3181  11.988  27.119  27.971 -0.0089 -0.0078 -0.1032
 2318W        W 3182  13.578  28.319  25.580 -0.0548 -0.1071 -0.1246
 2319W        W 3183  12.965  26.611   1.661 -0.0406  0.0177 -0.1682
 2320W        W 3184  12.153  26.830  27.632 -0.2471 -0.2382 -0.1930
 2321W        W 3185  11.592  24.994  27.268 -0.0154 -0.2399  0.1185
 2322W        W 3186  12.545  28.741  27.543  0.0821 -0.0427  0.1384
 2323W        W 3187  12.775  28.061  25.674  0.3543 -0.1063 -0.3131
 2324W        W 3188  12.338  28.223  25.406  0.0470 -0.0617  0.3863
 2325W        W 3189  11.055  27.562  27.813  0.0284 -0.0482 -0.0186
 2326W        W 3190  10.443  26.788  29.021 -0.3229 -0.0957 -0.2539
 2327W        W 3191  10.788  27.585  28.352  0.0796  0.1741  0.0566
 2328W        W 3192  11.392   0.409  26.970  0.2325  0.0789  0.1684
 2329W        W 3193  14.549  25.954  28.050  0.2797 -0.0964 -0.0496
 2330W        W 3194  13.794  26.555   0.289 -0.0458 -0.4955 -0.3072
 2331W        W 3195  13.854  26.239  27.120  0.1187 -0.2257 -0.0772
 2332W        W 3196  13.277  29.081  25.965 -0.4411 -0.1365 -0.2142
 2333W        W 3197  16.370  29.031  26.428 -0.1012  0.1379 -0.0049
 2334W        W 3198  12.964  25.795  28.910 -0.1795  0.0551 -0.1579
 2335W        W 3199  10.041  27.104  29.025  0.1594 -0.2506  0.2450
 2336W        W 3200  15.433  27.258   0.158 -0.1942  0.1154  0.0060
 2337W        W 3201  16.379  25.124  26.662 -0.1198  0.1886 -0.2823
 2338W        W 3202   8.863   1.099  28.219  0.0083 -0.2350 -0.0549
 2339W        W 3203   9.780  26.478  25.988 -0.1697 -0.0089 -0.3099
 2340W        W 3204  14.402   1.119  24.155 -0.1972  0.0410  0.1025
 2341W        W 3205  11.997  27.395   1.615 -0.0382  0.1934  0.0987
 2342W        W 3206  12.260  28.529  28.276 -0.2293 -0.0158 -0.2067
 2343W        W 3207  15.677  25.438  28.383 -0.0473 -0.2848  0.2154
 2344W        W 3208  13.882   1.231  24.181 -0.1047 -0.0253  0.1265
 2345W        W 3209  13.874  27.812  26.304  0.2620 -0.0535 -0.3173
 2346W        W 3210   9.231  26.446  26.009  0.2103  0.0652  0.0853
 2347W        W 3211  14.347  28.162  28.664  0.0442 -0.1690  0.0618
 2348W        W 3212  13.660  26.719  27.259 -0.0183  0.0828 -0.1055
 2349W        W 3213  14.998   2.004  25.911 -0.0473 -0.0127  0.1365
 2350W        W 3214  12.832  26.265  27.267  0.0255 -0.3782  0.3726
 2351W        W 3215  14.134  28.424  27.560  0.3447 -0.0092  0.1155
 2352W        W 3216  16.714  24.175  26.285 -0.2421 -0.0137 -0.0599
 2353W        W 3217  14.146  26.271  28.553 -0.0847 -0.0236 -0.2232
 2354W        W 3218  15.247  28.449   0.107  0.4251  0.2293  0.0769
 2355W        W 3219  15.105  27.922   0.887 -0.1697 -0.0885 -0.1095
 2356W        W 3220  11.223  28.043  26.443 -0.2152  0.0085  0.2673
 2357W        W 3221   9.634   0.608  28.984 -0.1019 -0.0943 -0.0425
 2358W        W 3222  14.013  27.115  28.303 -0.1247  0.0551  0.1276
 2359W        W 3223  14.050  27.925  26.758 -0.0333  0.0262 -0.0122
 2360W        W 3224  13.192   0.856  27.540 -0.0374 -0.2323  0.0389
 2361W        W 3225  12.861   0.390  26.950  0.1923 -0.1491 -0.0554
 2362W        W 3226  13.336  29.133  27.578 -0.0396 -0.2871 -0.1234
 2363W        W 3227  11.268  28.543   1.058  0.1056 -0.1618  0.1497
 2364W        W 3228  13.316   1.040  26.638  0.0988  0.2418 -0.1340
 2365W        W 3229  13.769  26.650  28.111  0.1732  0.0179  0.0164
 2366W        W 3230  12.856  27.972  27.820  0.0095 -0.0900  0.0795
 2367W        W 3231  12.456   1.022   1.753  0.1228  0.1441 -0.0025
 2368W        W 3232  15.085  26.489  29.046  0.0428 -0.0216 -0.2315
 2369W        W 3233  13.768   0.099   0.813  0.1222 -0.2016  0.1322
 2370W        W 3234  12.068  24.354  25.349 -0.1651 -0.3571  0.0887
 2371W        W 3235  15.099   1.214  28.506  0.1081  0.1157  0.0422
 2372W        W 3236  15.961  25.254  26.213 -0.0334  0.1206  0.0500
 2373W        W 3237  11.861  26.794  28.782  0.1296 -0.0809 -0.2364
 2374W        W 3238  14.637  28.711  27.189 -0.0953  0.3377  0.1265
 2375W        W 3239  13.742   0.182  28.551  0.1299 -0.0417 -0.1331
 2376W        W 3240  11.238   1.225  27.205  0.0861  0.1992 -0.1549
 2377W        W 3241  13.342  26.479  27.940  0.1600  0.0568 -0.1093
 2378W        W 3242  14.654  27.754  28.776  0.0460  0.4107  0.0679
 2379W        W 3243  13.828  26.218  27.650  0.0741 -0.0765 -0.1159
 2380W        W 3244  11.160  28.523  27.705  0.2999  0.0119 -0.0740
 2381W        W 3245  10.830  27.146   2.542  0.0030  0.0593 -0.0207
 2382W        W 3246  12.101  28.629  27.707  0.1472  0.2308  0.0602
 2383W        W 3247  15.268  28.946  25.854 -0.0965  0.0592 -0.1249
 2384W        W 3248  11.976  27.580  27.795 -0.0844 -0.1787  0.1129
 2385W        W 3249  15.059  26.603  27.532 -0.0017  0.2557  0.0895
 2386W        W 3250  11.229  27.996  27.004 -0.2239 -0.2973  0.0267
 2387W        W 3251  13.176  27.570   2.345 -0.0754 -0.1043 -0.1795
 2388W        W 3252  14.208   1.622  28.168 -0.2450  0.0147  0.0798
 2389W        W 3253  11.058  28.714   0.106 -0.0061 -0.0306 -0.0560
 2390W        W 3254  14.794  25.110  28.047  0.0064  0.2198 -0.0740
 2391W        W 3255  15.756  28.334   0.973  0.0201  0.1712 -0.2751
 2392W        W 3256  11.605  26.172   1.418 -0.2422 -0.1538 -0.0933
 2393W        W 3257   9.178  28.541  25.825 -0.0732  0.0093  0.1398
 2394W        W 3258  11.457  27.535  27.001  0.1103  0.0733 -0.0199
 2395W        W 3259   9.638   0.155   0.966  0.1490  0.2142 -0.2911
 2396W        W 3260  12.990   0.758  29.074 -0.1742  0.2671 -0.1838
 2397W        W 3261  11.125  27.420  24.989 -0.3251  0.1355  0.1769
 2398W        W 3262  12.840  27.174  26.353  0.1717 -0.2638 -0.0993
 2399W        W 3263  11.601   0.010  28.451 -0.2586  0.0829 -0.0899
 2400W        W 3264  14.858  27.090  27.656 -0.0681  0.0276 -0.0325
 2401W        W 3265  15.126  25.170   1.445 -0.0798  0.2047  0.1575
 2402W        W 3266  12.537  28.581  27.064 -0.0625 -0.2279  0.0376
 2403W        W 3267  11.052  26.539   0.507  0.1991  0.4084  0.2174
 2404W        W 3268  14.215  27.598  27.413 -0.1139 -0.3576 -0.2134
 2405W        W 3269  13.131  27.422  26.651  0.0120  0.2427  0.0917
 2406W        W 3270  12.865  27.767  26.241 -0.0156  0.0314 -0.2483
 2407W        W 3271  15.337  25.408  26.513  0.0588 -0.3927 -0.1301
 2408W        W 3272  15.259   0.461   0.834  0.0953  0.3017  0.0689
 2409W        W 3273  12.368  26.269  28.578 -0.0653 -0.0121  0.1721
 2410W        W 3274  10.956  28.969  27.716  0.1091 -0.1638  0.2367
 2411W        W 3275  12.450  27.392  26.160 -0.0187  0.0928  0.1298
 2412W        W 3276  12.385  25.718  27.096 -0.1908  0.2096 -0.3370
 2413W        W 3277  14.172   0.316  28.776  0.0179  0.0169  0.1689
 2414W        W 3278  12.399  26.061  27.506  0.1672  0.1455  0.1340
 2415W        W 3279  11.529  27.696   1.357 -0.1555 -0.2543 -0.3229
 2416W        W 3280  11.896  27.637  26.156 -0.0754 -0.1593 -0.0264
 2417W        W 3281  11.671  26.943  28.363 -0.2477  0.0068  0.0907
 2418W        W 3282  12.254   0.865  27.085 -0.0986 -0.0076  0.1138
 2419W        W 3283  12.666  28.678  25.057 -0.4391  0.0765 -0.0214
 2420W        W 3284  13.510  28.641  27.520 -0.1098 -0.2932 -0.1152
 2421W        W 3285  15.940  27.997  29.135 -0.0815 -0.0083 -0.1756
 2422W        W 3286  15.855  27.151  28.840  0.1125 -0.3203 -0.1140
 2423W        W 3287  13.674  27.731  27.331  0.1223 -0.0104  0.0497
 2424W        W 3288  13.907  28.501   0.374  0.0364  0.1654 -0.2209
 2425W        W 3289  10.827  28.042  27.871  0.0337  0.2940  0.3426
 2426W        W 3290  14.274  28.781  26.681  0.1718  0.0101  0.2293
 2427W        W 3291  12.548  26.991   0.582  0.2514 -0.2085  0.2363
 2428W        W 3292  12.661  27.688  26.674  0.0172  0.1968  0.1927
 2429W        W 3293  14.902   1.108   1.810  0.0664 -0.0278 -0.0182
 2430W        W 3294  11.722   0.202  27.508 -0.2741  0.2486 -0.0043
 2431W        W 3295  12.405   0.685   1.393 -0.0709  0.0614  0.2080
 2432W        W 3296  12.909   0.263  27.436  0.0267 -0.0462 -0.0787
 2433W        W 3297  13.558  27.361  25.506 -0.1594  0.2171  0.0374
 2434W        W 3298  15.426  26.514  28.455 -0.1630 -0.1564 -0.1952
 2435W        W 3299  13.408  28.798  26.397  0.2822  0.0269 -0.2006
 2436W        W 3300  14.366   0.786  28.718  0.2115  0.0726  0.1364
 2437W        W 3301  12.610   0.303  25.369  0.1873 -0.3498 -0.0262
 2438W        W 3302  13.441  27.801  27.869 -0.0805 -0.0567 -0.0357
 2439W        W 3303  10.718  27.974  26.636  0.3796  0.0691 -0.0378
 2440W        W 3304  13.080  26.697  27.324  0.0545  0.1516 -0.1654
 2441W        W 3305  11.702  28.706  26.529 -0.1207  0.0304  0.0994
 2442W        W 3306   9.459  26.070  27.167  0.1099  0.0410 -0.1040
 2443W        W 3307  11.009  26.761  24.532 -0.0535 -0.1889  0.3998
 2444W        W 3308  12.758  27.166  26.867 -0.0412 -0.1359  0.2415
 2445W        W 3309  11.662  27.940  25.831 -0.1052 -0.1246 -0.1088
 2446W        W 3310   9.649  24.712  28.412  0.0311  0.0984 -0.1835
 2447W        W 3311  13.121  28.758  24.848 -0.3414 -0.5417  0.0136
 2448W        W 3312  15.772  27.102  27.237 -0.0094 -0.0157 -0.1081
 2449W        W 3313  12.709  28.689  28.028 -0.1159 -0.0002 -0.0933
 2450W        W 3314  15.295  28.777  28.894  0.1268 -0.1347 -0.1656
 2451W        W 3315  13.461   1.163  28.518 -0.0832  0.0340 -0.0032
 2452W        W 3316  11.910   0.745  26.171 -0.1917  0.0753  0.0587
 2453W        W 3317  16.641  27.562  25.028  0.1388  0.0859  0.0143
 2454W        W 3318  14.044   0.142  27.129 -0.1513  0.2661  0.1369
 2455W        W 3319  12.848  27.972  28.710  0.1452  0.0214  0.1095
 2456W        W 3320  12.975  29.105  28.314 -0.2367  0.2309  0.0201
 2457W        W 3321  13.417  24.309  27.399  0.5041  0.1210  0.3105
 2458W        W 3322  12.038  27.693   2.034 -0.1178  0.2188  0.0780
 2459W        W 3323  12.490  27.832  23.844  0.3549  0.1610  0.1068
 2460W        W 3324  13.164   0.451  27.853 -0.0686  0.2084 -0.1460
 2461W        W 3325  11.485  28.855  27.440 -0.0472 -0.0503  0.0065
 2462W        W 3326  10.029  27.467  27.788 -0.1126 -0.0321 -0.0892
 2463W        W 3327  13.461   1.127  27.827 -0.1261  0.0228 -0.0454
 2464W        W 3328  14.601  28.610  27.688  0.0437 -0.3154 -0.0778
 2465W        W 3329  11.767  25.343  26.771  0.0465  0.0450 -0.1029
 2466W        W 3330  12.878  28.973  26.270 -0.1600 -0.1368 -0.3164
 2467W        W 3331  15.061  27.700  27.886 -0.2297  0.1214 -0.0499
 2468W        W 3332  14.270  27.319  26.936 -0.2031 -0.1386 -0.0376
 2469W        W 3333  15.402  28.990  28.373  0.3873 -0.1129 -0.1396
 2470W        W 3334  12.480  27.746  25.342  0.2306  0.0741  0.1531
 2471W        W 3335  12.027  26.001  26.248  0.0288 -0.1215 -0.0488
 2472W        W 3336  10.970  28.762   1.906  0.1789 -0.2490 -0.1666
 2473W        W 3337  15.276  27.088   1.349 -0.2696  0.2019  0.0814
 2474W        W 3338  12.014  26.988   1.311  0.1995  0.1370  0.0792
 2475W        W 3339  10.585  26.357  27.768 -0.3826  0.1185 -0.0190
 2476W        W 3340  12.757  28.219  23.538  0.1278 -0.3197 -0.0388
 2477W        W 3341  15.561  27.607  29.044  0.4850 -0.2077  0.3227
 2478W        W 3342  13.150  27.883  28.289 -0.0713 -0.0417 -0.0109
 2479W        W 3343  13.954  25.663  25.883  0.1859  0.3458  0.3990
 2480W        W 3344   9.383   1.700  27.737 -0.2706 -0.2168 -0.1345
 2481W        W 3345  15.596   0.152   1.251 -0.0828 -0.0649 -0.0457
 2482W        W 3346  12.177   0.196   0.214 -0.2004  0.0504  0.2268
 2483W        W 3347  16.480  28.692  26.784  0.2433  0.2547  0.1669
 2484W        W 3348  11.569  27.742  26.568 -0.1564 -0.2133  0.0391
 2485W        W 3349  14.161  25.250  26.128  0.0170 -0.2686  0.2193
 2486W        W 3350  11.014   1.281  26.167  0.0408 -0.0690  0.1187
 2487W        W 3351  14.004  28.046   0.181  0.0951  0.2037  0.0845
 2488W        W 3352  11.223  28.052  24.300 -0.1939 -0.1195  0.0495
 2489W        W 3353  17.289  29.070   0.608 -0.0581  0.1595  0.1264
 2490W        W 3354  15.186   0.644  26.270  0.1082 -0.1706 -0.1811
 2491W        W 3355  10.297  26.985  27.671 -0.0292 -0.1936 -0.1568
 2492W        W 3356  12.364  26.348  25.906 -0.2214 -0.1492 -0.0117
 2493W        W 3357  15.690  27.705  27.597 -0.1270 -0.1034 -0.0709
 2494W        W 3358  15.587  26.290  28.994  0.2708 -0.0154  0.1628
 2495W        W 3359  10.053  28.625   1.281 -0.0802 -0.2286 -0.0478
 2496W        W 3360  15.595  27.655  28.133 -0.1521  0.0632 -0.2307
 2497W        W 3361  13.252  25.961  28.266  0.0264  0.1204  0.0988
 2498W        W 3362  11.856  28.982  28.873  0.1662 -0.1040 -0.3207
 2499W        W 3363  12.995  26.293  26.645  0.1856  0.1688 -0.1110
 2500W        W 3364  15.967   0.246   1.620 -0.0670  0.3565  0.0487
 2501W        W 3365  14.800   1.692   0.282  0.1079  0.2098  0.2375
 2502W        W 3366  14.114   0.287  25.561 -0.2177 -0.3515  0.0261
 2503W        W 3367  13.852  28.088  27.732 -0.2592  0.0121  0.2086
 2504W        W 3368  10.842  28.583   1.371 -0.0819 -0.2447 -0.0312
 2505W        W 3369  14.867  25.236  27.470  0.0645 -0.1236 -0.1770
 2506W        W 3370  11.707  28.672   1.285  0.1084  0.0052 -0.0016
 2507W        W 3371  13.314  27.454  27.516  0.3879  0.1886 -0.1498
 2508W        W 3372  16.919  27.319  27.141 -0.2936 -0.0516 -0.1650
 2509W        W 3373  13.359  28.505  28.893 -0.1062 -0.1310  0.0227
 2510W        W 3374  10.794  27.801   0.012  0.3359  0.0097 -0.2519
 2511W        W 3375  12.538  28.390   0.081  0.1526  0.1795 -0.4964
 2512W        W 3376  14.187   0.520  26.149 -0.1327 -0.0769  0.2910
 2513W        W 3377  13.647  28.741   0.747 -0.1129 -0.0387  0.1582
 2514W        W 3378  12.159   0.253  26.907 -0.1667  0.0004  0.1337
 2515W        W 3379  13.465  28.544  25.979  0.1253 -0.0201  0.0228
 2516W        W 3380  13.592   0.451   3.650 -0.1432 -0.1514  0.0215
 2517W        W 3381  16.000   0.515   3.090 -0.0726 -0.1393  0.1533
 2518W        W 3382  16.785   2.297  26.976  0.4171  0.0560 -0.2336
 2519W        W 3383  19.460   5.012   1.749  0.0663  0.2835  0.0038
 2520W        W 3384  14.695   3.913   0.731  0.1156  0.1532 -0.0100
 2521W        W 3385  16.715  29.018  28.843  0.4346 -0.0052 -0.1986
 2522W        W 3386  15.818   1.072   1.986 -0.0989 -0.2106 -0.0682
 2523W        W 3387  15.469   2.913   2.166 -0.2186 -0.0853 -0.0214
 2524W        W 3388  16.470   2.155   2.339 -0.0924 -0.0616 -0.2813
 2525W        W 3389  15.708   3.351   2.487 -0.0508  0.2121  0.0792
 2526W        W 3390  12.870  27.151   3.445 -0.0727 -0.1513  0.1059
 2527W        W 3391  14.665   0.052   1.362  0.1427  0.2810  0.0807
 2528W        W 3392  18.694   3.047   2.090 -0.0483 -0.1649 -0.0798
 2529W        W 3393  18.451   1.354   3.396 -0.3618 -0.1538 -0.2937
 2530W        W 3394  12.902   1.554   4.743 -0.3618  0.1403 -0.2508
 2531W        W 3395  15.046   1.685   4.761 -0.1540 -0.2329 -0.1799
 2532W        W 3396  17.284   3.899  28.407  0.0828  0.0278 -0.1522
 2533W        W 3397  11.444   0.319   3.010 -0.0317 -0.0395 -0.2107
 2534W        W 3398  15.984   0.530   2.623 -0.1730 -0.1039  0.2842
 2535W        W 3399  16.762  26.640   1.529 -0.1039  0.0393 -0.0167
 2536W        W 3400  18.380   0.289   0.834 -0.0907  0.1206  0.2082
 2537W        W 3401  17.645   4.846   0.077 -0.3292  0.0767 -0.1307
 2538W        W 3402  17.609   2.848   2.818 -0.1421  0.2627 -0.0273
 2539W        W 3403  16.497   4.429  28.569 -0.4049 -0.2783  0.1055
 2540W        W 3404  13.699   2.193   4.347 -0.3120 -0.1863 -0.1559
 2541W        W 3405  18.025   2.681   3.732  0.0942  0.0403  0.1458
 2542W        W 3406  17.133   1.936   2.617 -0.1199  0.0124 -0.0139
 2543W        W 3407  14.015   2.812   0.838 -0.3985  0.0023  0.1955
 2544W        W 3408  18.342   2.995   1.127  0.1440 -0.1328  0.0878
 2545W        W 3409  14.759   0.407   2.460 -0.1990  0.2538 -0.2113
 2546W        W 3410  17.797   3.830   2.305 -0.0954  0.0562  0.1175
 2547W        W 3411  16.622   3.680   2.505  0.0663 -0.0355 -0.3271
 2548W        W 3412  17.744   4.451   5.560 -0.0177 -0.0305  0.1931
 2549W        W 3413  15.065   1.608   1.567  0.0727  0.0083 -0.2470
 2550W        W 3414  15.778   0.968   4.862 -0.1439  0.2782 -0.0016
 2551W        W 3415  17.242   2.116   5.052 -0.0322  0.4806  0.2858
 2552W        W 3416  15.667   2.290   0.701  0.0812  0.2263 -0.1441
 2553W        W 3417  15.977   3.391   3.083  0.0435 -0.0846  0.2850
 2554W        W 3418  16.022   4.063   1.915 -0.0121  0.0570  0.0717
 2555W        W 3419  18.202  29.105   2.108 -0.1203 -0.0191 -0.1800
 2556W        W 3420  14.960   0.896   0.515 -0.1201  0.2816 -0.3545
 2557W        W 3421  19.575   2.990   3.170 -0.0497 -0.2161 -0.1218
 2558W        W 3422  16.550   4.333   1.985 -0.1458 -0.0752 -0.0786
 2559W        W 3423  16.247   2.851  26.809 -0.1762  0.3064 -0.1185
 2560W        W 3424  13.800   2.842   1.334 -0.1332 -0.1868 -0.2385
 2561W        W 3425  16.999   3.788   1.710  0.3608 -0.6094 -0.0848
 2562W        W 3426  15.734  25.713   2.298 -0.0754 -0.2307  0.2000
 2563W        W 3427  18.474   1.708   4.907 -0.0452  0.0763 -0.3398
 2564W        W 3428  18.350   1.669  27.489 -0.0618 -0.1857  0.0323
 2565W        W 3429  16.964   3.564   3.266 -0.2642  0.0789 -0.1097
 2566W        W 3430  15.367   1.610   4.291 -0.0184 -0.1352 -0.2490
 2567W        W 3431  15.443   4.048   1.904 -0.1757 -0.4751  0.0636
 2568W        W 3432  18.058   1.662   3.612  0.1711 -0.2742  0.0778
 2569W        W 3433  16.658  28.576   1.802 -0.2222  0.1801 -0.0837
 2570W        W 3434  17.651   0.939   1.353  0.0969 -0.0346 -0.2929
 2571W        W 3435  15.813   4.244   2.830 -0.1917  0.0106 -0.0103
 2572W        W 3436  13.321   1.526   3.281 -0.0935  0.2316  0.1667
 2573W        W 3437  17.107   3.819   0.754 -0.1647  0.0122 -0.1982
 2574W        W 3438  15.446   1.930   3.891 -0.0943 -0.0871 -0.0539
 2575W        W 3439  17.609   5.184   0.744 -0.2273  0.1283  0.0920
 2576W        W 3440  18.513   0.646  28.086 -0.3785  0.1439 -0.0768
 2577W        W 3441  15.969   2.921   0.301 -0.2931  0.3601  0.1048
 2578W        W 3442  16.900   1.764   2.222  0.2116 -0.0475  0.0147
 2579W        W 3443  14.102   1.967   2.655 -0.3897 -0.1789 -0.2294
 2580W        W 3444  14.435  28.147   1.578  0.0524 -0.0438  0.0468
 2581W        W 3445  13.936   0.956   0.359 -0.1633 -0.0935 -0.1767
 2582W        W 3446  15.560   2.675   1.144  0.1383  0.2290 -0.0581
 2583W        W 3447  15.311   0.023   0.059  0.0094 -0.0942 -0.1276
 2584W        W 3448  15.583   2.779  29.093  0.0884  0.0707 -0.1465
 2585W        W 3449  17.011   2.630   1.036 -0.0976 -0.0428 -0.1291
 2586W        W 3450  20.359   3.384   1.219  0.1386 -0.0555 -0.0061
 2587W        W 3451  16.158   3.687   0.728 -0.1423  0.0403  0.2682
 2588W        W 3452  17.367   3.947   2.122 -0.0882  0.1221  0.2234
 2589W        W 3453  18.980   2.658   2.385  0.3360  0.2043  0.0278
 2590W        W 3454  17.571   3.367  28.014 -0.1301  0.1394 -0.3462
 2591W        W 3455  19.213   5.427   2.550  0.3824 -0.1200  0.0190
 2592W        W 3456  14.422   3.676  29.074  0.2853 -0.0382 -0.2328
 2593W        W 3457  17.119   3.496   2.317 -0.1379 -0.1722  0.3776
 2594W        W 3458  15.646   1.238   1.278  0.1355 -0.2203 -0.0023
 2595W        W 3459  13.393   4.985  28.244  0.2835 -0.0932 -0.2155
 2596W        W 3460  14.492   1.612   2.559  0.3694 -0.0547  0.2272
 2597W        W 3461  17.282   3.155   3.086 -0.1018 -0.1707 -0.1557
 2598W        W 3462  14.227   2.342   1.760  0.1239  0.0269  0.1134
 2599W        W 3463  15.450  28.513   1.871  0.1850  0.0708 -0.3021
 2600W        W 3464  14.439  28.733   4.523  0.2944  0.4741 -0.1158
 2601W        W 3465  16.189   3.507   1.885  0.1997 -0.1746 -0.3397
 2602W        W 3466  17.184   2.548   4.842  0.0583  0.3442 -0.0982
 2603W        W 3467  14.410  28.575   3.844 -0.2676  0.2973 -0.0452
 2604W        W 3468  18.032   3.842   6.324 -0.2283 -0.2473  0.1040
 2605W        W 3469  19.986   3.820   1.736  0.1136 -0.2089  0.1747
 2606W        W 3470  18.618   1.026   0.374 -0.0684  0.0597  0.0634
 2607W        W 3471  17.657   1.057   1.861  0.0649  0.3511  0.2254
 2608W        W 3472  16.756   4.854   3.238  0.0314 -0.4072 -0.1851
 2609W        W 3473  15.456   0.860  28.498 -0.1085 -0.0189 -0.1436
 2610W        W 3474  14.230  28.893   2.529  0.0265  0.0746  0.2912
 2611W        W 3475  18.490   2.575   0.826 -0.1325  0.1845  0.1370
 2612W        W 3476  18.675   0.817   1.355  0.2099 -0.2187 -0.1732
 2613W        W 3477  16.444   1.775   0.944  0.2182  0.2052  0.1600
 2614W        W 3478  16.658  27.499   3.058 -0.0568  0.1138 -0.0946
 2615W        W 3479  18.979  28.443   1.472  0.1387 -0.0154  0.0078
 2616W        W 3480  18.505   2.499  28.493  0.3332  0.0893 -0.0029
 2617W        W 3481  17.280   1.482   2.030 -0.4722 -0.1510  0.0498
 2618W        W 3482  16.282   2.207  27.204  0.0887 -0.0594 -0.2317
 2619W        W 3483  17.729   4.321   0.215  0.0156  0.1701  0.0836
 2620W        W 3484  18.208   0.470   3.416 -0.0511 -0.2888 -0.3026
 2621W        W 3485  15.634   2.096   5.682 -0.1821 -0.1449 -0.2948
 2622W        W 3486  17.775   2.541   2.026 -0.4383  0.0327 -0.2837
 2623W        W 3487  18.964   3.651   2.732 -0.1222 -0.0371  0.0224
 2624W        W 3488  18.225  28.927   2.997 -0.1340 -0.0062 -0.2251
 2625W        W 3489  13.410   0.822   3.948  0.0443  0.0233 -0.0235
 2626W        W 3490  16.127   2.517   2.546 -0.1569  0.2081 -0.0928
 2627W        W 3491  16.192   3.619   1.321  0.1065 -0.1647 -0.2001
 2628W        W 3492  19.109   4.721   0.524  0.2871 -0.4683  0.0476
 2629W        W 3493  17.068   4.240   1.781  0.2958  0.0629  0.0531
 2630W        W 3494  15.190   1.031  27.634 -0.1345 -0.2038  0.2309
 2631W        W 3495  15.297   1.831   0.667 -0.2441  0.1179  0.1160
 2632W        W 3496  16.082   1.446   1.173  0.1304 -0.2153  0.1557
 2633W        W 3497  17.348   1.327   1.540  0.3343 -0.2560 -0.2226
 2634W        W 3498  16.945   1.674   1.736  0.0684  0.1538  0.0868
 2635W        W 3499  16.645   3.733   0.497 -0.0510 -0.1135  0.0479
 2636W        W 3500  17.764   0.721  27.211  0.0625 -0.0597  0.1189
 2637W        W 3501  17.162   0.894   1.215 -0.1696  0.0416 -0.1871
 2638W        W 3502  16.920   4.075   2.269 -0.1469  0.0238 -0.0579
 2639W        W 3503  17.499   2.540   0.237 -0.1132 -0.0129 -0.0250
 2640W        W 3504  16.919   2.320   0.464 -0.1252 -0.2597 -0.4502
 2641W        W 3505  18.942   2.770   1.713 -0.0983 -0.1574  0.0976
 2642W        W 3506  16.069   0.617   1.934 -0.2196 -0.1436 -0.1267
 2643W        W 3507  15.291   0.630   2.994  0.0967 -0.1790  0.0701
 2644W        W 3508  19.868   3.078   1.967 -0.0866  0.0709  0.1118
 2645W        W 3509  16.806   4.504   3.631 -0.3098  0.1018  0.2995
 2646W        W 3510  16.369  28.568   2.399  0.3604 -0.2031  0.1844
 2647W        W 3511  16.889   2.017   0.849 -0.1326 -0.3366  0.0314
 2648W        W 3512  17.082   5.795   1.410  0.0562  0.2652 -0.1389
 2649W        W 3513  17.512  28.225   1.290 -0.0874  0.3598  0.0623
 2650W        W 3514  17.760  27.818   2.548  0.1880  0.3070  0.1600
 2651W        W 3515  12.171   1.978   2.350  0.0969 -0.0047 -0.0617
 2652W        W 3516  17.589  28.709   1.583 -0.2373 -0.0381  0.2836
 2653W        W 3517  16.702   0.959   3.336  0.0872 -0.0428  0.2319
 2654W        W 3518  16.625  29.063   3.274  0.0671 -0.2350  0.0388
 2655W        W 3519  16.113   4.690  28.427  0.0786 -0.2176 -0.0702
 2656W        W 3520  15.279  25.145   1.917  0.0626 -0.1695 -0.0701
 2657W        W 3521  14.543   1.847   1.296 -0.0828  0.0680  0.1091
 2658W        W 3522  13.710   1.704  28.006  0.0143  0.0552 -0.0588
 2659W        W 3523  17.195   2.438  28.678  0.0901  0.1958  0.0931
 2660W        W 3524  16.839   2.910   2.925  0.3271 -0.0293  0.0972
 2661W        W 3525  15.935   4.601   1.113 -0.0128 -0.1254 -0.2667
 2662W        W 3526  18.264  26.472   1.721 -0.1646  0.3038 -0.0013
 2663W        W 3527  17.918   4.769   2.881  0.1536 -0.3043  0.1109
 2664W        W 3528  16.556   2.685   2.410  0.1073 -0.0068  0.2496
 2665W        W 3529  16.073   1.243   5.659  0.0363  0.1724  0.2073
 2666W        W 3530  19.210   1.653   4.604 -0.2865 -0.1957 -0.0427
 2667W        W 3531  14.510  28.968   0.886 -0.1528  0.0445 -0.2780
 2668W        W 3532  16.509   1.183   1.170  0.2859  0.2208 -0.1375
 2669W        W 3533  15.957   2.674  27.233 -0.1259  0.0773 -0.1600
 2670W        W 3534  15.243  28.421   2.668 -0.0612 -0.2703 -0.0014
 2671W        W 3535  17.944   1.312   1.485  0.3409 -0.0766 -0.2116
 2672W        W 3536  16.011   2.529  28.975 -0.0509 -0.1050  0.1426
 2673W        W 3537  17.536   1.465  28.607  0.1408 -0.1012 -0.0389
 2674W        W 3538  16.628   1.724  28.926  0.0244 -0.0218  0.1379
 2675W        W 3539  18.578   1.190   2.041  0.0294 -0.1494 -0.3015
 2676W        W 3540  13.647   1.669   1.531 -0.0580 -0.0285 -0.3462
 2677W        W 3541  17.345   4.389   2.403 -0.1194  0.1330  0.2957
 2678W        W 3542  15.337  28.550   4.752 -0.0344 -0.0322 -0.2781
 2679W        W 3543  17.369   3.910   3.099  0.0000  0.0061 -0.1838
 2680W        W 3544  14.632   0.067   6.809  0.1530 -0.0581  0.1750
 2681W        W 3545  18.702   3.198   3.377 -0.0404 -0.1519  0.4056
 2682W        W 3546  15.322   1.074   4.524 -0.3032 -0.1994  0.0937
 2683W        W 3547  15.408   2.908   2.705 -0.1621 -0.0624 -0.0823
 2684W        W 3548  15.818   0.089   5.855 -0.1147 -0.3575 -0.0417
 2685W        W 3549  16.189   3.607  27.495 -0.0452  0.2157  0.2762
 2686W        W 3550  17.831   3.035   3.269 -0.2545 -0.1698 -0.1817
 2687W        W 3551  17.820   1.851   3.210  0.2504  0.0438  0.1540
 2688W        W 3552  16.425   0.213   1.388 -0.2524 -0.3110 -0.0772
 2689W        W 3553  16.800   3.464  25.786 -0.1582  0.1349  0.0263
 2690W        W 3554  15.604   0.726   0.652  0.0591 -0.1824 -0.1372
 2691W        W 3555  20.054   2.486   2.753  0.0075  0.2187  0.1512
 2692W        W 3556  16.191   3.351   2.387 -0.2038  0.0375  0.0659
 2693W        W 3557  17.211   3.579   1.287 -0.0283 -0.2017  0.0335
 2694W        W 3558  14.548   2.264  27.760 -0.0267 -0.2104 -0.0112
 2695W        W 3559  16.380   1.092   1.899 -0.1938 -0.0124 -0.1096
 2696W        W 3560  18.504   4.438   0.559  0.0193  0.3009  0.3641
 2697W        W 3561  16.737   3.618   0.020  0.1056  0.0733 -0.1813
 2698W        W 3562  16.882   2.720   0.149  0.2032 -0.1629  0.2742
 2699W        W 3563  18.612   1.761   0.243 -0.0830 -0.0035 -0.4760
 2700W        W 3564  16.234   2.090  28.123  0.4009  0.0924 -0.3527
 2701W        W 3565  17.542   4.095   6.016  0.0855 -0.2958 -0.0913
 2702W        W 3566  19.467   0.798  27.951 -0.0065  0.2656 -0.1599
 2703W        W 3567  13.139   2.502   0.870  0.2076  0.0730  0.2443
 2704W        W 3568  15.734   3.259   1.917 -0.2295 -0.2620  0.1567
 2705W        W 3569  14.566   3.025   0.980 -0.0442  0.4879  0.0518
 2706W        W 3570  15.092   2.183  27.779  0.1959  0.2163  0.1326
 2707W        W 3571  16.413   4.510   1.090  0.0957  0.0115 -0.0761
 2708W        W 3572  15.693   1.283   2.567 -0.0962 -0.2010 -0.1984
 2709W        W 3573  16.593  29.098   4.901  0.0945 -0.0772 -0.1552
 2710W        W 3574  15.023  28.390   2.192 -0.1969 -0.0433 -0.1719
 2711W        W 3575  14.333  28.456   0.585  0.1103  0.1407 -0.2990
 2712W        W 3576  16.969   0.125   3.821  0.1934 -0.1787 -0.1903
 2713W        W 3577  13.534   0.938   3.464 -0.1068  0.1166  0.0601
 2714W        W 3578  10.710   2.918  28.977  0.0522 -0.2303  0.1192
 2715W        W 3579  13.003  28.503   2.774  0.0515 -0.0702  0.0579
 2716W        W 3580  11.874   0.264   2.777 -0.0237 -0.0080  0.5107
 2717W        W 3581  16.041  29.046   2.006 -0.0091  0.0558 -0.0853
 2718W        W 3582  18.536   3.259  27.605  0.2351 -0.0864  0.0759
 2719W        W 3583  15.193   1.645   2.075  0.0834 -0.4158 -0.3393
 2720W        W 3584  19.337   2.957   2.020  0.1993 -0.0110  0.0396
 2721W        W 3585  15.352   1.611   1.157  0.3832 -0.1205  0.0568
 2722W        W 3586  15.905   0.707   4.436 -0.0560  0.0694  0.2470
 2723W        W 3587  17.570   3.219   1.456  0.1282  0.0075  0.2936
 2724W        W 3588  17.813   2.465   1.127  0.1174  0.2025 -0.0551
 2725W        W 3589  17.446   2.881  28.484 -0.0666 -0.2126  0.2779
 2726W        W 3590  15.147   0.696   2.486 -0.1953 -0.0197  0.0867
 2727W        W 3591  13.535   0.172   3.229 -0.1756  0.4719 -0.0454
 2728W        W 3592  17.315   2.299   1.297 -0.1201  0.1519 -0.1194
 2729W        W 3593  17.361  27.965   2.224  0.0666 -0.0121 -0.1816
 2730W        W 3594  20.040   1.967   4.464  0.1595  0.1309  0.0393
 2731W        W 3595  19.082   3.114  28.844  0.2324 -0.4526  0.0406
 2732W        W 3596  16.046   4.112  27.386 -0.0218 -0.0662  0.3450
 2733W        W 3597  16.639   3.244  28.252  0.1092  0.2555 -0.1385
 2734W        W 3598  15.005  27.872   5.786  0.3187 -0.2020  0.1278
 2735W        W 3599  14.578   2.821   4.401 -0.0442 -0.0572 -0.0418
 2736W        W 3600  18.574  27.050   5.825  0.2649 -0.1257  0.1166
 2737W        W 3601  16.778   0.913   2.587 -0.1358 -0.2399  0.1347
 2738W        W 3602  14.572   2.708   4.909  0.1332 -0.1860  0.1408
 2739W        W 3603  16.554  28.964   2.082  0.2440 -0.1370  0.2682
 2740W        W 3604  12.981   1.979  26.905  0.2317 -0.0104 -0.4500
 2741W        W 3605  13.830  28.563   2.610  0.1219 -0.1066  0.1149
 2742W        W 3606  15.357   2.104   2.429 -0.0278  0.0811 -0.1758
 2743W        W 3607  18.818   1.658   3.237 -0.1659 -0.0267  0.0996
 2744W        W 3608  15.903   4.413   3.794 -0.0422  0.0463 -0.1577
 2745W        W 3609  17.760  28.289  28.893  0.0739  0.2544 -0.0476
 2746W        W 3610  13.939   1.226   1.841  0.0628 -0.0698  0.0891
 2747W        W 3611  16.845   0.349   2.567 -0.1285  0.1271  0.1173
 2748W        W 3612  15.780   3.767  28.202 -0.0115 -0.0650 -0.1034
 2749W        W 3613  16.926   3.289   0.792  0.1887 -0.0353 -0.3391
 2750W        W 3614  15.538   0.679   1.179  0.2497 -0.0790 -0.0093
 2751W        W 3615  16.405   0.717  28.786  0.2484 -0.1406  0.2173
 2752W        W 3616  17.175   4.653   1.388  0.2874 -0.0798  0.1135
 2753W        W 3617  15.143  29.113   3.620 -0.1297  0.1915 -0.0391
 2754W        W 3618  18.666   3.346   0.432 -0.3957 -0.1679 -0.4746
 2755W        W 3619  16.765   2.992   1.718  0.0039  0.0231 -0.0481
 2756W        W 3620  14.503   1.549  27.046  0.3735 -0.2223  0.1079
 2757W        W 3621  15.910   4.874   3.317  0.2392  0.0620 -0.0222
 2758W        W 3622  14.438  28.944   1.810 -0.0933  0.1563  0.2778
 2759W        W 3623  15.691  27.467   2.914 -0.0906 -0.3459 -0.0964
 2760W        W 3624  16.644   2.569   1.939 -0.0866  0.2350  0.1587
 2761W        W 3625  15.252   3.773  27.941 -0.1447 -0.5266 -0.0740
 2762W        W 3626  17.866   4.032   1.301  0.0367 -0.0353  0.2123
 2763W        W 3627  16.875   0.552   3.010  0.0529 -0.0512  0.9565
 2764W        W 3628  19.160   4.126  28.851  0.1881 -0.3517  0.4562
 2765W        W 3629  15.513  28.046   0.245  0.0364  0.1919 -0.3314
 2766W        W 3630  16.375   2.135  28.984 -0.2394 -0.3247  0.0666
 2767W        W 3631  16.964   3.660   4.801  0.0571  0.0387 -0.1048
 2768W        W 3632  19.139   4.132   1.305 -0.2437  0.4811 -0.2756
 2769W        W 3633  19.538   4.208   2.777 -0.1953  0.1615  0.3838
 2770W        W 3634  14.159   0.498   2.942  0.3795 -0.2125  0.2772
 2771W        W 3635  17.532   4.693   0.573  0.2534 -0.0565  0.0372
 2772W        W 3636  17.583   0.173   0.310 -0.1251 -0.0085 -0.1286
 2773W        W 3637  13.882   1.330   2.769  0.0166  0.0835  0.0363
 2774W        W 3638  19.435   3.504  28.494  0.1200 -0.0117  0.0333
 2775W        W 3639  17.209   0.499   0.316  0.0113  0.2366  0.0546
 2776W        W 3640  15.288   3.391   1.357  0.3578 -0.2070  0.0603
 2777W        W 3641  15.562   0.765   3.453 -0.1650 -0.1235 -0.0552
 2778W        W 3642  18.168   4.322   2.896  0.0424  0.1308 -0.0316
 2779W        W 3643  14.918  28.064   0.366  0.0041  0.0025  0.0704
 2780W        W 3644  13.900   2.038   1.321 -0.0820 -0.0072 -0.0922
 2781W        W 3645  15.571   3.370   3.413  0.0339 -0.1034  0.2894
 2782W        W 3646  13.773   3.041  28.549  0.2082 -0.0439 -0.2925
 2783W        W 3647  14.823   3.304   1.673 -0.3018  0.4178  0.1554
 2784W        W 3648  14.154   0.234   2.495 -0.1966  0.0518  0.3210
 2785W        W 3649  15.385   1.953   1.610 -0.1840 -0.0729 -0.0460
 2786W        W 3650  15.968   4.479   0.615 -0.1569 -0.0313 -0.0619
 2787W        W 3651  17.732   3.160   3.755  0.2276 -0.1858 -0.0314
 2788W        W 3652  16.141   0.974   1.512  0.2389 -0.0177  0.3064
 2789W        W 3653  17.360   2.451   2.655  0.3994  0.0799 -0.2125
 2790W        W 3654  17.613   4.420   1.915  0.0270  0.2453 -0.0104
 2791W        W 3655  18.362  28.546   3.743 -0.2941 -0.2944  0.0220
 2792W        W 3656  12.533   1.010   3.608  0.0893  0.0525 -0.0974
 2793W        W 3657  15.872   1.863   1.374  0.1573  0.2450  0.1751
 2794W        W 3658  16.947   1.466   1.289 -0.2715 -0.1342 -0.3731
 2795W        W 3659  15.507   2.532   3.530  0.1043  0.0622 -0.0990
 2796W        W 3660  15.838  28.693   1.675 -0.1825 -0.1946  0.0227
 2797W        W 3661  15.330  28.252   1.346  0.0768  0.2214 -0.0073
 2798W        W 3662  14.250   3.187   2.939  0.1546 -0.1833 -0.0365
 2799W        W 3663  14.528   0.890   0.170 -0.5322  0.0880 -0.0289
 2800W        W 3664  18.283   3.127   0.161 -0.1665 -0.2061  0.1193
 2801W        W 3665  18.996   1.013   1.731  0.2323 -0.0813 -0.0386
 2802W        W 3666  18.390   5.868   2.239  0.3831  0.2844  0.6191
 2803W        W 3667  15.431   0.367   3.689  0.0664  0.0614 -0.3688
 2804W        W 3668  17.052  28.819  27.484  0.1520 -0.1049  0.0708
 2805W        W 3669  16.250   1.825  28.559  0.0680 -0.1925 -0.2677
 2806W        W 3670  16.955  28.696  28.505  0.1885  0.2997  0.0815
 2807W        W 3671  16.043   3.372  28.392 -0.1227  0.0523  0.0370
 2808W        W 3672  16.822   1.005   0.356  0.0314  0.0523 -0.2041
 2809W        W 3673  16.052   2.730   1.177 -0.0790  0.1393 -0.2515
 2810W        W 3674  16.504   1.211  28.762 -0.1467  0.0241 -0.2159
 2811W        W 3675  18.208   2.564   1.546 -0.0805 -0.2973 -0.1610
 2812W        W 3676  15.266  28.955   5.070 -0.0165  0.0124  0.0157
 2813W        W 3677  19.293   3.553   1.247 -0.0401 -0.0836  0.1445
 2814W        W 3678  17.656  27.829  28.293  0.1170  0.0365  0.0250
 2815W        W 3679  12.816   3.228   2.463 -0.1104 -0.2929  0.4055
 2816W        W 3680  17.743   1.927  28.756  0.0271 -0.0989  0.2183
 2817W        W 3681  15.045   0.339   3.327  0.0211  0.1469 -0.0511
 2818W        W 3682  15.661   0.726   1.644 -0.3392 -0.0855 -0.0286
 2819W        W 3683  16.360  28.199   0.182  0.6010 -0.2123 -0.0301
 2820W        W 3684  15.332   1.521   0.266 -0.1446  0.0801  0.0077
 2821W        W 3685  14.901   2.255   5.893  0.1285 -0.0234  0.1330
 2822W        W 3686  16.683   2.552   4.851  0.0083 -0.0600 -0.0190
 2823W        W 3687  14.557  28.080   0.058 -0.3209  0.0829  0.2070
 2824W        W 3688  18.379   2.027   2.770 -0.2721  0.1544 -0.0260
 2825W        W 3689  14.327   2.325  28.250 -0.0615 -0.1236 -0.0225
 2826W        W 3690  18.174   0.776   0.070  0.2145  0.0110 -0.3128
 2827W        W 3691  16.079   1.653   2.596  0.2800 -0.1432 -0.3345
 2828W        W 3692  16.509   2.306   1.088 -0.0973 -0.2472  0.3920
 2829W        W 3693  17.041   4.368   2.765  0.1135 -0.1913 -0.1834
 2830W        W 3694  17.736   2.202   1.602  0.1177 -0.3248  0.1115
 2831W        W 3695  16.243   2.093   2.811  0.0078 -0.1319  0.0192
 2832W        W 3696  15.294   3.082   0.256  0.2106  0.0375 -0.0217
 2833W        W 3697  17.341   2.450   1.837  0.0696 -0.0007  0.0869
 2834W        W 3698  18.410   2.614   2.111  0.0939 -0.1562  0.1720
 2835W        W 3699  16.052   1.500   1.746  0.1138  0.1260 -0.1965
 2836W        W 3700  14.544   2.385   2.489  0.1411 -0.2066  0.2697
 2837W        W 3701  20.510   1.467  25.655  0.0405 -0.1440 -0.1163
 2838W        W 3702  12.542   1.939   5.041 -0.0855  0.1035  0.2672
 2839W        W 3703  17.518   3.582   1.836 -0.1276 -0.0642 -0.0606
 2840W        W 3704  13.541   0.613  28.895  0.0205  0.1965 -0.0823
 2841W        W 3705  16.242   4.472   2.914  0.1687 -0.0182  0.0802
 2842W        W 3706  14.461  28.566   1.311 -0.0057  0.2239  0.1478
 2843W        W 3707  13.213   1.258   2.101 -0.2030 -0.2705  0.3082
 2844W        W 3708  16.316   2.486   1.563  0.1295 -0.4136 -0.0552
 2845W        W 3709  14.374   1.917  28.522  0.0641  0.4297 -0.2066
 2846W        W 3710  14.839   1.149   3.907  0.4802 -0.1021 -0.2014
 2847W        W 3711  17.324  28.537   0.473  0.0830  0.0690  0.0949
 2848W        W 3712  17.687   2.510   3.149 -0.0053 -0.1697 -0.3525
 2849W        W 3713  17.413   5.885   5.239 -0.3245  0.2115 -0.2486
 2850W        W 3714  20.276   0.890   4.744 -0.4562  0.2002 -0.0399
 2851W        W 3715  19.087   3.175   4.919  0.4176 -0.0688 -0.0159
 2852W        W 3716  15.479   3.405   2.914 -0.0820 -0.1726 -0.1160
 2853W        W 3717  19.901   3.539  28.802  0.1460 -0.2272 -0.3038
 2854W        W 3718  16.561   2.819   1.194  0.0098  0.0444  0.3387
 2855W        W 3719  13.548   1.617   2.017 -0.2744 -0.2038 -0.3629
 2856W        W 3720  16.285   3.125  27.432  0.1841  0.4150 -0.3762
 2857W        W 3721  15.219   1.598   2.622 -0.0336 -0.1163  0.1985
 2858W        W 3722  12.114  26.534   1.458  0.1736  0.2250  0.2899
 2859W        W 3723  15.602   3.506   0.550  0.3079  0.2401  0.1556
 2860W        W 3724  17.565   4.286  28.268  0.1338 -0.0226 -0.1386
 2861W        W 3725  16.347   3.578   4.146 -0.0437  0.1245 -0.0717
 2862W        W 3726  15.106   2.612   1.783 -0.4598 -0.0019  0.0392
 2863W        W 3727  14.476   1.411   4.132  0.1352  0.0739  0.0785
 2864W        W 3728  15.868   4.811   2.657  0.0790  0.4189 -0.3386
 2865W        W 3729  13.504   0.705   0.215  0.0508  0.2259  0.1285
 2866W        W 3730  18.109   1.179   2.554 -0.2030 -0.1044  0.1305
 2867W        W 3731  15.726   1.064  27.311  0.1661 -0.1029 -0.1444
 2868W        W 3732  17.582   3.450   2.716 -0.3861 -0.0158  0.2824
 2869W        W 3733  16.457   1.289   0.135 -0.1626 -0.2384 -0.1553
 2870W        W 3734  14.794   2.976  28.783  0.0324 -0.6004  0.1050
 2871W        W 3735  17.345   1.785   0.791 -0.1180 -0.2531  0.0692
 2872W        W 3736  14.139   3.045   4.587  0.5284 -0.4840 -0.1040
 2873W        W 3737  16.618   1.796   2.623  0.1747 -0.1626  0.1129
 2874W        W 3738  11.830   0.051   1.209  0.3217 -0.0315 -0.3395
 2875W        W 3739  14.854   1.342   2.303  0.0433  0.3037 -0.0152
 2876W        W 3740  14.571   2.850   0.064  0.0671 -0.1944 -0.2096
 2877W        W 3741  18.525   0.071   4.616 -0.1511 -0.0981 -0.1595
 2878W        W 3742  15.042   2.923   1.264  0.1693 -0.1489 -0.0781
 2879W        W 3743  16.598  25.721   1.199  0.3229 -0.0103  0.2172
 2880W        W 3744  16.490   3.478   3.008 -0.0875  0.3783  0.0027
 2881W        W 3745  16.243   3.023   3.207 -0.1854  0.1546  0.0333
 2882W        W 3746  15.913   4.065   1.423  0.3290  0.3931  0.1453
 2883W        W 3747  18.656   2.158   3.211  0.2619  0.1009 -0.1467
 2884W        W 3748  17.710   2.710   0.637  0.0668 -0.0068  0.0091
 2885W        W 3749  18.519   3.408   2.713  0.2276  0.0468  0.0371
 2886W        W 3750  15.244   3.740   0.839  0.1108  0.0463 -0.0004
 2887W        W 3751  16.650  28.145   1.574 -0.3157 -0.3055  0.0371
 2888W        W 3752  17.867   3.781  28.179  0.1536  0.0024 -0.1431
 2889W        W 3753  17.531   3.342   4.734  0.4510 -0.0164 -0.1229
 2890W        W 3754  17.674   4.201   3.679 -0.1364 -0.0543 -0.2624
 2891W        W 3755  15.740  28.247   3.576  0.2728 -0.0262  0.0784
 2892W        W 3756  19.241   4.446   1.674 -0.0900 -0.0369 -0.3065
 2893W        W 3757  19.282   2.833   0.621  0.0043  0.1126  0.2709
 2894W        W 3758  12.571   1.321   5.747  0.2559 -0.2688  0.1969
 2895W        W 3759  15.508   2.116   1.114 -0.1557  0.1212 -0.0793
 2896W        W 3760  17.248   3.062   2.573  0.0287 -0.2245  0.1910
 2897W        W 3761  17.209   2.780   1.516 -0.3542 -0.1907 -0.1665
 2898W        W 3762  16.331   1.594   2.173  0.1687 -0.2869  0.1004
 2899W        W 3763  16.885   3.904   2.925  0.0832 -0.2883  0.0293
 2900W        W 3764  17.955   1.622   2.786  0.0271 -0.1942 -0.0589
 2901W        W 3765  16.392   1.352   3.460  0.0235  0.0032  0.1235
 2902W        W 3766  18.958   6.260   0.938  0.2709 -0.0652 -0.2447
 2903W        W 3767  14.018   4.662   3.558 -0.2447  0.0388  0.1430
 2904W        W 3768  15.003   1.070   2.777 -0.0501  0.1188 -0.0998
 2905W        W 3769  18.175   2.130   1.917  0.3411 -0.2390  0.1417
 2906W        W 3770  15.628   2.559   2.453 -0.3601  0.0942 -0.2653
 2907W        W 3771  15.897   3.719   2.728 -0.1692 -0.0961 -0.1787
 2908W        W 3772  17.015   0.155   1.007  0.0571  0.1814 -0.4052
 2909W        W 3773  16.377   3.031   2.045  0.0262  0.2843  0.2924
 2910W        W 3774  13.457   3.212   4.013  0.1011 -0.2710  0.2728
 2911W        W 3775  17.011   1.750   4.640 -0.1702 -0.0870  0.1599
 2912W        W 3776  17.057   3.190  29.106  0.0799  0.0433  0.0436
 2913W        W 3777  15.661   1.606   3.494 -0.1396  0.0731  0.0965
 2914W        W 3778  17.351   3.377  28.460  0.3521  0.0381 -0.1666
 2915W        W 3779  15.574   3.029  27.345 -0.0019 -0.1651 -0.0953
 2916W        W 3780  13.240   5.217   5.297 -0.0208 -0.0393 -0.0948
 2917W        W 3781  16.856   2.977   5.930  0.4336 -0.0899  0.2609
 2918W        W 3782  16.239   1.138   4.729  0.1334  0.2070 -0.0337
 2919W        W 3783  17.891   6.258   5.976  0.1063 -0.0191  0.1296
 2920W        W 3784  15.020   0.389   1.328 -0.1403  0.2714 -0.1961
 2921W        W 3785  14.426   1.274   5.568  0.1411 -0.0938 -0.0141
 2922W        W 3786  16.412   0.485   3.291  0.1069 -0.0928  0.2548
 2923W        W 3787  14.985   0.222   5.526 -0.0182  0.1458  0.1236
 2924W        W 3788  14.612   3.451   5.539 -0.0963  0.1215  0.3416
 2925W        W 3789  13.630   1.150   6.738  0.2233  0.1770  0.0139
 2926W        W 3790  16.202   0.647   6.734  0.2674  0.1476 -0.0021
 2927W        W 3791  17.559   0.235   4.730 -0.2988  0.0705 -0.1883
 2928W        W 3792  19.735   0.340   3.874 -0.0044 -0.0340 -0.1569
 2929W        W 3793  16.536   2.438   8.950 -0.2601 -0.3511 -0.1077
 2930W        W 3794  15.442   1.326   7.004  0.0498  0.2653  0.1787
 2931W        W 3795  13.058   4.329   7.383 -0.3573 -0.0737 -0.0589
 2932W        W 3796  17.737   1.711   1.839  0.1111  0.0248 -0.2179
 2933W        W 3797  16.525   1.918   6.188  0.1119 -0.3139  0.1721
 2934W        W 3798  15.691   2.512   6.354 -0.0776 -0.0089 -0.2632
 2935W        W 3799  17.629   2.231   5.916  0.0300  0.1457  0.2983
 2936W        W 3800  16.395   5.403   7.826 -0.0132  0.1847 -0.0060
 2937W        W 3801  15.237  27.887   6.224 -0.2572 -0.3241 -0.1483
 2938W        W 3802  17.251   2.305   7.164 -0.1088  0.4878  0.2689
 2939W        W 3803  12.395   3.160   6.524  0.1505  0.0053  0.0870
 2940W        W 3804  12.792   0.367   4.831  0.0096 -0.3373  0.0402
 2941W        W 3805  14.392   1.771   5.853 -0.3414 -0.1605  0.3037
 2942W        W 3806  18.918  28.908   4.384  0.0226  0.2072 -0.0869
 2943W        W 3807  16.238   4.026   3.848 -0.0582  0.3299 -0.1859
 2944W        W 3808  16.682   2.747   7.698 -0.0446 -0.0285 -0.2801
 2945W        W 3809  16.790  28.078   5.310  0.0876  0.1931  0.1293
 2946W        W 3810  18.400  27.823   6.626 -0.1387 -0.3285  0.2068
 2947W        W 3811  14.687   1.686   7.680  0.0315 -0.4640 -0.1268
 2948W        W 3812  17.721   3.427   6.665 -0.0761 -0.0072 -0.0029
 2949W        W 3813  17.181   1.119   4.575  0.1848 -0.1187  0.1487
 2950W        W 3814  16.488   3.648   9.264 -0.2191  0.0738  0.0508
 2951W        W 3815  16.364   0.300   0.857  0.0112 -0.2522  0.2850
 2952W        W 3816  17.453   4.572   6.737 -0.2713 -0.0720  0.0561
 2953W        W 3817  19.150   1.036   7.010 -0.1646  0.0522  0.2694
 2954W        W 3818  18.656   1.696   4.380 -0.0789  0.1295 -0.1170
 2955W        W 3819  16.516   1.469   1.608  0.1267  0.0484 -0.2671
 2956W        W 3820  20.245   1.333   6.293 -0.2498 -0.1415  0.0892
 2957W        W 3821  16.872   4.107   7.458 -0.1304 -0.3043 -0.0940
 2958W        W 3822  17.941   1.758   2.264 -0.1796 -0.2193  0.2225
 2959W        W 3823  18.035   4.637   5.155 -0.0060  0.0568  0.1344
 2960W        W 3824  13.866   4.196   2.654 -0.1570 -0.2419  0.0891
 2961W        W 3825  17.075   2.004   4.127  0.2253 -0.1430  0.1287
 2962W        W 3826  17.117   0.935   4.108 -0.1070  0.2396  0.1411
 2963W        W 3827  18.043   1.345   5.978 -0.3199  0.0789 -0.0634
 2964W        W 3828  16.200   0.141   2.399  0.1375 -0.0786 -0.0942
 2965W        W 3829  16.194   1.888   7.038  0.2273  0.2297 -0.1142
 2966W        W 3830  19.156  27.406   6.270 -0.3203 -0.0321  0.0554
 2967W        W 3831  17.486   3.677   3.690  0.0012  0.0884  0.1104
 2968W        W 3832  16.420   1.632   3.069 -0.0008  0.0493  0.0763
 2969W        W 3833  16.460   0.211   3.664  0.1593  0.1407  0.2303
 2970W        W 3834  15.270   4.404   5.633 -0.0139  0.2101  0.0509
 2971W        W 3835  15.223  25.485   4.752 -0.0084 -0.1080 -0.0409
 2972W        W 3836  17.231   1.427   4.955 -0.2179 -0.1949 -0.1957
 2973W        W 3837  17.194   4.165   6.476 -0.1544  0.0403 -0.2021
 2974W        W 3838  16.702   3.185   3.477  0.1287  0.4471  0.2058
 2975W        W 3839  18.228   0.762   2.246  0.1827  0.0882 -0.0999
 2976W        W 3840  15.726   5.105   6.890  0.1884  0.2579 -0.1092
 2977W        W 3841  14.696   4.344   4.733 -0.1138  0.0322  0.2487
 2978W        W 3842  17.065   0.182   3.335  0.1706  0.3107 -0.0212
 2979W        W 3843  17.834  28.666   5.314  0.1696  0.2466 -0.4575
 2980W        W 3844  17.757   0.562   4.095  0.0569  0.1081  0.2382
 2981W        W 3845  17.136   0.961   3.626 -0.0084 -0.2656 -0.0883
 2982W        W 3846  13.628  29.026   1.253  0.2437  0.1550  0.0543
 2983W        W 3847  14.157   3.720   5.696  0.1036  0.0752 -0.1232
 2984W        W 3848  18.379   5.491   6.782  0.0589 -0.0166 -0.2230
 2985W        W 3849  18.402   5.051   7.064 -0.0744 -0.2432 -0.2026
 2986W        W 3850  15.638   0.175   3.233  0.0875 -0.0003  0.0173
 2987W        W 3851  17.268   2.972   5.152  0.2877  0.1811 -0.0270
 2988W        W 3852  17.992   1.599   7.013  0.2020  0.1911  0.1079
 2989W        W 3853  19.594   0.988   5.687 -0.2943 -0.3022 -0.0832
 2990W        W 3854  17.850   2.634   5.510 -0.2356 -0.0114 -0.1749
 2991W        W 3855  17.345   3.121   5.646 -0.1809  0.0319  0.1847
 2992W        W 3856  16.247  28.939   5.871  0.2347  0.1036  0.3175
 2993W        W 3857  16.903   2.525   8.088  0.4185  0.1769 -0.1836
 2994W        W 3858  15.743  28.442   7.521 -0.0126  0.0814  0.2268
 2995W        W 3859  13.634   0.832   4.414 -0.3640 -0.0450  0.1751
 2996W        W 3860  15.540   1.424   7.688 -0.1871  0.0303  0.2757
 2997W        W 3861  15.504   0.484   4.681  0.0530  0.1472  0.0929
 2998W        W 3862  18.707  28.770   4.848 -0.0064  0.1558 -0.1923
 2999W        W 3863  16.218   3.202   6.707  0.4548 -0.0205  0.3278
 3000W        W 3864  15.840   2.001   1.849  0.2836 -0.4374  0.0036
 3001W        W 3865  17.710   3.152   4.293  0.0226  0.3341 -0.0330
 3002W        W 3866  18.272   0.014   7.109  0.1529 -0.0234  0.2293
 3003W        W 3867  19.785   3.640   8.770 -0.1545 -0.2080 -0.0759
 3004W        W 3868  15.914  28.492   5.588 -0.3437 -0.0503  0.2839
 3005W        W 3869  19.041   0.890   5.621  0.0800  0.0791 -0.1347
 3006W        W 3870  15.002   1.541   6.678  0.3494 -0.0117 -0.1413
 3007W        W 3871  18.017   3.590   3.692  0.0899  0.0269  0.1342
 3008W        W 3872  18.081   0.251   4.796 -0.0923 -0.1624 -0.1717
 3009W        W 3873  14.249  27.177   6.161  0.4953 -0.0629  0.0400
 3010W        W 3874  19.679   0.462   5.938 -0.1802  0.0268 -0.1551
 3011W        W 3875  16.501  28.582   5.080  0.0649 -0.0892  0.0867
 3012W        W 3876  16.086   3.579   5.733 -0.1655  0.1683 -0.0710
 3013W        W 3877  14.970   1.114   5.371  0.0616  0.1130 -0.0096
 3014W        W 3878  17.071   0.297   6.324 -0.2071 -0.1912  0.0023
 3015W        W 3879  17.794  28.501   4.345 -0.1524  0.0923  0.1478
 3016W        W 3880  14.400   1.227   6.030 -0.0414 -0.1601 -0.0585
 3017W        W 3881  18.036   2.495   5.992 -0.0062  0.0777  0.1583
 3018W        W 3882  18.840   4.975   3.259  0.2228  0.2866  0.2302
 3019W        W 3883  17.678  27.637   5.815 -0.0611  0.2094 -0.2908
 3020W        W 3884  17.215   2.913   7.713  0.2094  0.0082  0.0566
 3021W        W 3885  19.202   2.792   6.429 -0.3227  0.4664 -0.4695
 3022W        W 3886  16.366   1.473   7.394 -0.1225  0.0680  0.0264
 3023W        W 3887  15.361   0.658   6.876  0.0513  0.1745 -0.1728
 3024W        W 3888  13.681   0.911   5.452  0.1529 -0.1208 -0.0022
 3025W        W 3889  13.875   2.939   6.597 -0.1776  0.1001 -0.0146
 3026W        W 3890  15.073   1.994   4.236 -0.0437 -0.2115  0.1734
 3027W        W 3891  18.835  28.802   6.548  0.1325  0.2292  0.1614
 3028W        W 3892  15.002   3.336   7.122  0.2634  0.0316 -0.4310
 3029W        W 3893  16.885   0.566   4.689 -0.1036  0.1577 -0.0027
 3030W        W 3894  17.237   0.551   2.245  0.0973 -0.1093 -0.0260
 3031W        W 3895  18.780  28.538   6.960 -0.2020  0.0176  0.1518
 3032W        W 3896  15.661   1.762   6.711 -0.0145 -0.2313 -0.0775
 3033W        W 3897  16.601   0.652   6.289  0.0081  0.2730  0.2891
 3034W        W 3898  18.676   3.506   4.818  0.0954 -0.0795 -0.0110
 3035W        W 3899  17.043   2.042   6.135 -0.0867 -0.1640 -0.0275
 3036W        W 3900  16.659   2.712   3.346 -0.1040 -0.1253 -0.1175
 3037W        W 3901  16.891   3.712   4.305  0.2527  0.0899  0.2969
 3038W        W 3902  17.141   1.573   6.304  0.2539 -0.0299  0.2577
 3039W        W 3903  16.927   1.025   6.294  0.1587  0.0141 -0.0472
 3040W        W 3904  18.496  27.966   5.417  0.3018 -0.1569 -0.1278
 3041W        W 3905  14.913   0.715   8.534 -0.0513  0.0183 -0.0643
 3042W        W 3906  16.912  28.750   4.123 -0.2513 -0.1665  0.0365
 3043W        W 3907  19.488   1.556   5.038  0.0390  0.0332  0.1787
 3044W        W 3908  17.467   1.690   5.310 -0.0340 -0.1892  0.4758
 3045W        W 3909  20.107   4.991   4.281 -0.3313  0.2060  0.0694
 3046W        W 3910  14.035   0.739   6.629  0.0077 -0.1697 -0.4244
 3047W        W 3911  16.708   3.275   6.770 -0.2766 -0.2171  0.0588
 3048W        W 3912  15.049  27.779   4.730 -0.2021 -0.1216 -0.2503
 3049W        W 3913  17.009   1.616   5.760  0.2261  0.2861  0.1087
 3050W        W 3914  14.821   1.018   8.956  0.2036  0.2285 -0.2859
 3051W        W 3915  18.825  29.140   2.955  0.2989 -0.3298  0.2320
 3052W        W 3916  18.368   0.395   5.182 -0.0317 -0.3601  0.3320
 3053W        W 3917  17.178   2.594   4.316 -0.2163  0.0706 -0.2788
 3054W        W 3918  17.927   6.760   4.266  0.1091  0.1629  0.4521
 3055W        W 3919  14.431   0.999   1.857  0.1040  0.1642 -0.0306
 3056W        W 3920  17.050  26.945   7.720 -0.0001 -0.0532  0.0128
 3057W        W 3921  16.594   4.116  29.047  0.2747  0.1289  0.2605
 3058W        W 3922  15.188   2.007   5.073  0.0014 -0.0865 -0.2273
 3059W        W 3923  16.556   2.471   8.431 -0.0263 -0.1076  0.0580
 3060W        W 3924  17.776   0.478   6.180  0.2143  0.0366  0.2641
 3061W        W 3925  16.151   2.139   5.175 -0.1004 -0.0304 -0.1079
 3062W        W 3926  19.754   2.146   6.215  0.1607  0.3047 -0.0322
 3063W        W 3927  17.596   3.938   5.533  0.1208  0.2102 -0.1737
 3064W        W 3928  15.591   2.647   7.377  0.1123 -0.1637  0.0253
 3065W        W 3929  19.063   4.662   2.952  0.5785 -0.2251  0.1129
 3066W        W 3930  15.356  27.304   5.397 -0.0913 -0.1301 -0.0015
 3067W        W 3931  17.035   0.971   5.008 -0.1269 -0.2941 -0.0238
 3068W        W 3932  15.837   0.749   3.855 -0.0507 -0.0239 -0.0135
 3069W        W 3933  13.197   0.735   6.288 -0.1142 -0.0584  0.0354
 3070W        W 3934  16.372  28.829   6.415 -0.1510  0.5428 -0.0299
 3071W        W 3935  15.718   0.301   4.106 -0.0170  0.1100  0.4281
 3072W        W 3936  15.968   0.700   5.718  0.1953  0.1891  0.0324
 3073W        W 3937  14.891  26.507   1.808  0.2211 -0.2302  0.0154
 3074W        W 3938  14.029   1.228   5.238 -0.1892 -0.0605  0.1063
 3075W        W 3939  18.296  27.743   7.614  0.1066 -0.3105  0.1453
 3076W        W 3940  17.508   1.224   5.879 -0.1959  0.0491 -0.1801
 3077W        W 3941  16.859  28.927   5.343 -0.0830  0.2482  0.1475
 3078W        W 3942  17.482  29.107   6.249  0.0941 -0.0351  0.1761
 3079W        W 3943  16.489   0.886   9.106  0.0773  0.0830 -0.3985
 3080W        W 3944  16.071   0.275   5.394  0.0291  0.1002 -0.0848
 3081W        W 3945  17.377  28.806   4.031 -0.0724  0.0020  0.0453
 3082W        W 3946  14.891   4.881   5.788  0.0562  0.0807 -0.3161
 3083W        W 3947  14.507   4.407   6.435  0.0802  0.0255  0.1072
 3084W        W 3948  13.609   0.256   2.699  0.1262 -0.0672 -0.0145
 3085W        W 3949  16.766   0.780   7.915 -0.3103 -0.1834 -0.0865
 3086W        W 3950  17.071  29.138   5.785  0.1439  0.1479 -0.2488
 3087W        W 3951  16.640   1.117   5.383  0.1008 -0.0396 -0.1593
 3088W        W 3952  18.162   0.903   3.177 -0.0598 -0.1440  0.1045
 3089W        W 3953  18.733   0.403   5.550 -0.1186 -0.0338 -0.0048
 3090W        W 3954  18.199   0.902   1.159  0.1180  0.5237 -0.2848
 3091W        W 3955  13.922   4.451   7.253 -0.1673  0.1662 -0.0341
 3092W        W 3956  18.634   3.100   5.734  0.2221 -0.0124  0.0325
 3093W        W 3957  15.158   2.813   3.379 -0.1005  0.1228 -0.0304
 3094W        W 3958  18.044   1.786   5.691 -0.0487  0.0988 -0.2783
 3095W        W 3959  14.917   1.393   4.376 -0.3569  0.0144  0.3965
 3096W        W 3960  20.514   2.864   1.351 -0.2910  0.1590 -0.0345
 3097W        W 3961  16.808   3.421   5.190  0.2437  0.2131  0.0810
 3098W        W 3962  17.203   1.256   5.421  0.1179 -0.0887  0.0265
 3099W        W 3963  17.405   1.816   1.370  0.0458 -0.0160 -0.0478
 3100W        W 3964  16.726   3.074   7.359  0.1893  0.1571  0.0787
 3101W        W 3965  16.566  28.474   5.571 -0.0610 -0.1171  0.0454
 3102W        W 3966  13.288   0.102   5.136  0.0485 -0.0614 -0.0601
 3103W        W 3967  18.327   4.512   6.782 -0.1280 -0.0673  0.1414
 3104W        W 3968  14.395   4.745   6.012 -0.2191 -0.1178 -0.2097
 3105W        W 3969  15.862   2.202   3.675  0.1704  0.0943 -0.0134
 3106W        W 3970  16.070   2.213   4.642 -0.0374 -0.0943 -0.1331
 3107W        W 3971  16.631   2.470   6.192 -0.0693  0.3773  0.1234
 3108W        W 3972  15.742   2.706   7.838 -0.3498  0.0730  0.2252
 3109W        W 3973  17.126   0.440   7.102 -0.0133 -0.0867  0.5509
 3110W        W 3974  17.270  28.559   5.324 -0.0880  0.1714 -0.2929
 3111W        W 3975  18.298  29.142   3.429 -0.0223 -0.1060 -0.0488
 3112W        W 3976  13.664   0.494   6.325 -0.1285  0.0023  0.0785
 3113W        W 3977  17.888   2.351   4.519 -0.2286  0.0988 -0.0743
 3114W        W 3978  19.544   1.218   6.454  0.1544 -0.0189  0.1446
 3115W        W 3979  17.051   0.148   4.907 -0.0377  0.1626  0.0267
 3116W        W 3980  18.075  28.177   7.318 -0.2176 -0.1478  0.0092
 3117W        W 3981  17.149   1.926   7.508 -0.3815  0.0179 -0.0676
 3118W        W 3982  15.187   0.569   7.438 -0.1923  0.1075 -0.2154
 3119W        W 3983  19.785   0.560   4.746  0.0741  0.1931  0.1357
 3120W        W 3984  16.401  28.658   4.188  0.0761  0.2802 -0.0909
 3121W        W 3985  15.925   1.230   7.430 -0.0613  0.0845 -0.2828
 3122W        W 3986  15.555  27.251   7.022  0.2173  0.3087 -0.4297
 3123W        W 3987  18.134   0.867   5.379  0.0427 -0.3382  0.1657
 3124W        W 3988  15.475   2.901   1.631 -0.3360  0.1596  0.1760
 3125W        W 3989  13.369   1.393   3.751  0.1119  0.0020 -0.1293
 3126W        W 3990  15.124   1.914   7.907 -0.1437 -0.2298  0.0728
 3127W        W 3991  15.469   2.102   4.619 -0.1817  0.1850 -0.1823
 3128W        W 3992  18.405   1.366   5.578 -0.0807 -0.1744  0.0576
 3129W        W 3993  18.776   4.103   6.875 -0.2183  0.3462 -0.0455
 3130W        W 3994  15.524  29.026   1.896  0.1060 -0.0619  0.2145
 3131W        W 3995  16.131   1.673   6.563  0.1191  0.4285 -0.1065
 3132W        W 3996  17.673   4.121   2.728 -0.2050  0.6483  0.2123
 3133W        W 3997  16.212   2.608   6.684  0.0905 -0.1901 -0.0253
 3134W        W 3998  16.926   2.401   6.644 -0.0774 -0.0270  0.2512
 3135W        W 3999  19.584  28.666   7.208  0.1579  0.1874 -0.2210
 3136W        W 4000  17.364   1.096   6.424  0.1276  0.0739  0.4023
 3137W        W 4001  15.994   2.396   7.177 -0.1633 -0.1272  0.0285
 3138W        W 4002  15.668  28.205   3.113 -0.2640  0.0813  0.2271
 3139W        W 4003  16.801   3.310   6.289  0.2070 -0.2595 -0.0354
 3140W        W 4004  16.267  26.930   6.486  0.1771  0.3393  0.2872
 3141W        W 4005  18.545   3.611   6.740 -0.0662  0.0951 -0.1435
 3142W        W 4006  20.296   1.427   5.060 -0.1636  0.4719 -0.0186
 3143W        W 4007  17.468   3.747   6.360  0.4396  0.0655  0.0499
 3144W        W 4008  18.652  28.240   4.885  0.0518  0.1416  0.2132
 3145W        W 4009  13.971   0.229   7.368 -0.1041 -0.2123 -0.1424
 3146W        W 4010  16.010   2.246   7.777  0.0991  0.2100  0.0319
 3147W        W 4011  16.439   2.488   4.291 -0.1079 -0.0348  0.2136
 3148W        W 4012  18.925   2.980   4.447  0.0550 -0.2829 -0.1216
 3149W        W 4013  13.660   0.958   6.210  0.1701 -0.2517 -0.0213
 3150W        W 4014  16.206   1.087   2.880  0.3035  0.2208 -0.0682
 3151W        W 4015  17.482  28.960   5.593 -0.1229  0.1946 -0.0529
 3152W        W 4016  16.859  29.003   7.591 -0.0698 -0.3395 -0.0049
 3153W        W 4017  16.324   4.280   7.424  0.2367 -0.0320 -0.0699
 3154W        W 4018  16.591   5.053   5.783  0.1804  0.0989 -0.0767
 3155W        W 4019  19.542   3.027   5.234  0.0435 -0.3268 -0.1435
 3156W        W 4020  13.581   4.828   5.444  0.2139  0.0605 -0.1623
 3157W        W 4021  15.293  28.594   7.876  0.1025  0.1442 -0.2785
 3158W        W 4022  14.693   1.822   7.013 -0.0221 -0.1506  0.1571
 3159W        W 4023  17.687  28.535   4.812 -0.0723 -0.0174 -0.2435
 3160W        W 4024  16.026   3.162   4.615  0.4900  0.0476 -0.3381
 3161W        W 4025  17.056  28.859   6.239  0.1238 -0.1518 -0.0059
 3162W        W 4026  13.775   3.957   5.382 -0.0321 -0.2190  0.0537
 3163W        W 4027  19.693   4.717   4.397  0.0738 -0.1725  0.1190
 3164W        W 4028  15.563  28.156   4.991  0.0656  0.0630 -0.0335
 3165W        W 4029  13.987   5.308   4.670 -0.3837  0.0575  0.1447
 3166W        W 4030  14.297   2.438   4.598 -0.0917 -0.3124 -0.2048
 3167W        W 4031  18.627   2.992   5.263 -0.2286 -0.0520  0.1998
 3168W        W 4032  15.301  28.793   6.235 -0.0592 -0.1905  0.2043
 3169W        W 4033  14.856  28.734   4.843  0.1182 -0.0670 -0.2307
 3170W        W 4034  18.652   2.173   4.908  0.1324 -0.0239 -0.5079
 3171W        W 4035  17.590   1.078   4.295  0.1993 -0.2255 -0.0492
 3172W        W 4036  18.307   0.336   8.529 -0.0153 -0.0536 -0.0464
 3173W        W 4037  18.151   4.244   8.041 -0.1226  0.0079 -0.0289
 3174W        W 4038  14.804   0.696   5.209 -0.0656 -0.2503 -0.1178
 3175W        W 4039  16.451   3.100   4.885  0.1971  0.1952  0.1877
 3176W        W 4040  14.533   1.323   6.668  0.0823  0.0268 -0.2087
 3177W        W 4041  17.561   1.472   6.783  0.2053 -0.3365  0.0049
 3178W        W 4042  15.177   0.170   7.010 -0.2608  0.2392  0.2766
 3179W        W 4043  15.004   3.659   3.654 -0.0694  0.0712  0.2369
 3180W        W 4044  14.597   2.625   5.964 -0.0487 -0.3614 -0.1543
 3181W        W 4045  12.905   3.493   3.728  0.0017  0.0174 -0.1422
 3182W        W 4046  18.841   2.636   4.791 -0.1712 -0.2116 -0.0074
 3183W        W 4047  14.998   0.216   8.403 -0.1929 -0.2972  0.3372
 3184W        W 4048  16.653   0.026   6.138 -0.2889 -0.1798  0.2482
 3185W        W 4049  16.940   1.391   3.373  0.0650  0.0117 -0.4484
 3186W        W 4050  17.373   2.536   5.401 -0.0828 -0.0954 -0.2539
 3187W        W 4051  15.687   1.786   5.240  0.0568 -0.1352 -0.3161
 3188W        W 4052  15.657   3.598   6.009  0.0141 -0.0637 -0.1660
 3189W        W 4053  18.762   4.915   6.191 -0.0364  0.0988  0.1792
 3190W        W 4054  18.550   1.059   7.703 -0.2804  0.0922  0.0807
 3191W        W 4055  14.352   1.484   8.464  0.0567  0.0363  0.1418
 3192W        W 4056  16.086  28.926   5.375  0.1045 -0.1672 -0.0828
 3193W        W 4057  14.357   2.520   2.976  0.3720 -0.1723  0.0824
 3194W        W 4058  15.329   4.365   8.134 -0.1475 -0.1564  0.1874
 3195W        W 4059  15.752   0.126   4.988 -0.0170 -0.1381  0.0149
 3196W        W 4060  17.332   1.970   1.841 -0.0243 -0.0694 -0.1271
 3197W        W 4061  16.089   2.018   4.199 -0.3695 -0.0109  0.0642
 3198W        W 4062  12.822   3.569   5.950 -0.1697 -0.0162  0.0523
 3199W        W 4063  16.186   1.622   5.368 -0.0653  0.1729  0.3426
 3200W        W 4064  15.567   0.839   7.837 -0.1674  0.1024  0.2554
 3201W        W 4065  16.726   3.961   5.106 -0.0849 -0.3660 -0.2504
 3202W        W 4066  16.074   3.694   4.533 -0.1881 -0.1960  0.1268
 3203W        W 4067  16.842   2.142   1.832  0.1313  0.1133  0.2341
 3204W        W 4068  17.578   2.625   7.645 -0.1522 -0.1854  0.1221
 3205W        W 4069  15.676   0.690   5.240 -0.0532 -0.0599 -0.2272
 3206W        W 4070  19.145  28.091   4.377  0.0550  0.0357  0.3444
 3207W        W 4071  19.332   1.049   5.259  0.0576  0.1643 -0.2477
 3208W        W 4072  13.508   2.614   5.146  0.1056 -0.2366  0.1713
 3209W        W 4073  16.604   5.488   6.205  0.4151  0.0185 -0.0324
 3210W        W 4074  16.520   2.726   5.711 -0.0096 -0.1598  0.0308
 3211W        W 4075  15.153   0.494   6.469 -0.3376 -0.0067  0.0813
 3212W        W 4076  17.832  28.997   4.563  0.0703 -0.0863 -0.1506
 3213W        W 4077  18.028   2.308   7.591  0.0163  0.1138  0.1323
 3214W        W 4078  19.796   2.132   4.890 -0.0494  0.1273  0.1526
 3215W        W 4079  13.165   4.112   4.462  0.0986 -0.0714 -0.2781
 3216W        W 4080  14.600   1.132   7.602  0.0811 -0.1500  0.2997
 3217W        W 4081  16.052   3.879   6.117 -0.0441 -0.2805 -0.0356
 3218W        W 4082  18.940   2.102   4.528  0.4358 -0.0762  0.1200
 3219W        W 4083  16.747   0.553   4.042 -0.0452 -0.0542 -0.0575
 3220W        W 4084  17.378   6.155   5.734  0.2497  0.1512 -0.0934
 3221W        W 4085  15.130   2.700   6.829  0.0002 -0.1677  0.0582
 3222W        W 4086  15.489  28.863   5.727 -0.2768 -0.3068  0.2224
 3223W        W 4087  18.452  27.126   4.037 -0.2431 -0.0519  0.1800
 3224W        W 4088  15.951   2.212   6.722  0.1745 -0.2626  0.0468
 3225W        W 4089  15.702  26.479   7.211 -0.0136  0.0424 -0.1908
 3226W        W 4090  14.739   2.774   7.587  0.1862 -0.1756 -0.0004
 3227W        W 4091  15.447  28.958   6.719 -0.3614 -0.1506 -0.1233
 3228W        W 4092  19.522   2.035   4.493  0.0064  0.1312 -0.1333
 3229W        W 4093  15.254   1.821   5.873  0.2235 -0.1842 -0.0783
 3230W        W 4094  16.803   2.316   5.289  0.1417  0.1219  0.0543
 3231W        W 4095  16.018   1.620   7.716  0.5028 -0.3102 -0.0080
 3232W        W 4096  16.034   0.981   3.384 -0.1134  0.2348 -0.2975
 3233W        W 4097  16.333   3.654   6.458 -0.0212  0.1090 -0.1761
 3234W        W 4098  16.619  28.690   6.017  0.3497  0.1091 -0.1192
 3235W        W 4099  15.143   3.377   5.377  0.1373 -0.0636 -0.0363
 3236W        W 4100  18.828   5.611   2.849 -0.2713  0.1849  0.1385
 3237W        W 4101  15.811   0.894   6.946 -0.1182  0.0842 -0.1721
 3238W        W 4102  18.358   0.563   4.432 -0.2760  0.0372  0.0494
 3239W        W 4103  12.314   4.716   5.776 -0.2373 -0.4035 -0.0423
 3240W        W 4104  15.878   4.835   5.066  0.0455 -0.2690  0.2290
 3241W        W 4105  16.689   0.919   4.469 -0.1605 -0.0129  0.1618
 3242W        W 4106  14.537   1.945   3.936  0.0926 -0.0708 -0.2226
 3243W        W 4107  16.311   2.579   3.004  0.3390 -0.0602 -0.0926
 3244W        W 4108  16.674   1.091   3.869 -0.5037  0.0358  0.3494
 3245W        W 4109  15.965   0.760   7.483 -0.2436  0.0138 -0.0169
 3246W        W 4110  18.448  28.263   1.761  0.0732 -0.1038 -0.0386
 3247W        W 4111  18.151   2.142   4.968 -0.1052 -0.0006  0.1789
 3248W        W 4112  15.758   3.459   6.463  0.2061  0.1614 -0.0124
 3249W        W 4113  19.548   3.571   5.277  0.1796 -0.1902 -0.0172
 3250W        W 4114  16.892   4.298   8.759  0.2079  0.5124 -0.1769
 3251W        W 4115  16.507   3.685   5.476 -0.0169  0.1468  0.0583
 3252W        W 4116  16.419   1.701   4.674  0.1233  0.2386  0.0072
 3253W        W 4117  15.751  28.748   3.249 -0.2167  0.1248 -0.0385
 3254W        W 4118  16.242  27.920   6.240  0.2822 -0.1026 -0.4241
 3255W        W 4119  17.390   5.326   7.424 -0.1440 -0.0516 -0.1404
 3256W        W 4120  19.184  29.078   6.372  0.2070 -0.3979 -0.1139
 3257W        W 4121  15.263  26.768   7.593  0.0362  0.0799 -0.0656
 3258W        W 4122  15.292   3.193   4.851  0.1708 -0.2055  0.0456
 3259W        W 4123  17.324   0.582   4.976  0.0311 -0.1668 -0.0226
 3260W        W 4124  17.649   4.661   8.875  0.2968  0.1131  0.3022
 3261W        W 4125  16.095   4.517   2.166 -0.0900 -0.0424 -0.1344
 3262W        W 4126  16.503   1.466   6.931 -0.1484  0.0129 -0.1715
 3263W        W 4127  16.107   2.360   5.619  0.1179  0.0925 -0.2790
 3264W        W 4128  15.186  25.923   8.177 -0.0557  0.0788 -0.0683
 3265W        W 4129  16.731   1.688   3.843 -0.0350  0.0693 -0.2782
 3266W        W 4130  16.515   0.347   5.137  0.2606 -0.1617 -0.1817
 3267W        W 4131  16.890   3.047   4.875 -0.1401 -0.3894  0.0953
 3268W        W 4132  18.732   4.588   4.392  0.1932  0.0863 -0.2705
 3269W        W 4133  15.931   1.453   3.113 -0.1433 -0.2739 -0.2724
 3270W        W 4134  16.858   0.424   5.882 -0.2082 -0.0517 -0.4470
 3271W        W 4135  16.994   3.801   6.090 -0.1104 -0.0059  0.0692
 3272W        W 4136  15.156   1.040   7.622  0.3354 -0.2388 -0.0374
 3273W        W 4137  14.319   2.393   9.860 -0.0449  0.1277 -0.0598
 3274W        W 4138  13.945   2.993   6.087  0.0819 -0.1130  0.2948
 3275W        W 4139  15.821   1.688   4.528  0.0711 -0.3215 -0.1647
 3276W        W 4140  17.790   2.600   7.181  0.2055  0.3611 -0.0271
 3277W        W 4141  16.193  28.760   4.723 -0.0562  0.1788  0.0045
 3278W        W 4142  16.013   0.175   4.558  0.4029  0.1404 -0.3470
 3279W        W 4143  16.578   4.887   4.454  0.1584 -0.5273  0.0988
 3280W        W 4144  17.051   2.800   7.070 -0.0748  0.0918 -0.2671
 3281W        W 4145  17.683   2.152   5.433  0.2120 -0.0104  0.4133
 3282W        W 4146  14.125  28.332   5.893  0.2284  0.0335  0.1058
 3283W        W 4147  16.127  29.093   3.365  0.1893  0.0573  0.0681
 3284W        W 4148  18.461  29.085   3.934  0.2347 -0.0464 -0.3629
 3285W        W 4149  15.223   3.981   5.943  0.0622 -0.0288  0.0965
 3286W        W 4150  16.924   1.818   3.007 -0.0439  0.2901 -0.2456
 3287W        W 4151  16.565   4.650   7.167 -0.3251  0.0293 -0.2554
 3288W        W 4152  19.462   3.870   4.036 -0.0922  0.1094  0.1173
 3289W        W 4153  16.771   1.329   2.152 -0.0774 -0.2911  0.1904
 3290W        W 4154  14.742   3.927   5.576 -0.2700  0.0036  0.1618
 3291W        W 4155  17.877   0.706   9.702 -0.0732 -0.0928 -0.0929
 3292W        W 4156  21.198   4.040   5.102 -0.0759 -0.0751 -0.2066
 3293W        W 4157  17.787   0.833   5.778 -0.4808 -0.1849 -0.1480
 3294W        W 4158  14.419   2.942   6.381  0.3463  0.1715  0.1201
 3295W        W 4159  17.072   2.925   8.368  0.2901  0.1967  0.0564
 3296W        W 4160  15.086   2.479   5.048 -0.2530 -0.0370  0.0098
 3297W        W 4161  14.792   0.853   4.387  0.0601  0.0928  0.0673
 3298W        W 4162  18.964   0.320   7.366  0.1433  0.3927 -0.2502
 3299W        W 4163  15.888   3.613   3.731 -0.1106 -0.1303  0.4605
 3300W        W 4164  14.421   3.564   4.722 -0.2560  0.0098 -0.2626
 3301W        W 4165  18.269   1.971   3.997 -0.4104 -0.0310  0.0260
 3302W        W 4166  16.589   1.962   4.273  0.2078 -0.0118 -0.1709
 3303W        W 4167  15.073   2.577   4.227 -0.1885 -0.1586 -0.0019
 3304W        W 4168  15.864   2.718   5.297  0.2283 -0.0074  0.1534
 3305W        W 4169  13.869   3.884   7.785  0.2986 -0.1733  0.1387
 3306W        W 4170  15.607   1.851   2.817 -0.1250  0.0009 -0.0505
 3307W        W 4171  20.624   2.946   6.152 -0.2705 -0.2320 -0.0464
 3308W        W 4172  16.962   2.672   3.859 -0.0072 -0.2772  0.1912
 3309W        W 4173  13.827   3.692   3.922  0.2929  0.0318 -0.2227
 3310W        W 4174  17.755   0.259   3.298 -0.0079 -0.0064 -0.3045
 3311W        W 4175  16.343   2.282   3.451  0.0492  0.1880 -0.3283
 3312W        W 4176  15.524   3.945   3.052 -0.1958  0.0056  0.1238
 3313W        W 4177  15.442   1.159   3.947  0.0125 -0.1538  0.1391
 3314W        W 4178  15.998   1.462   4.948  0.0510 -0.2561 -0.1634
 3315W        W 4179  15.007   3.144  10.697 -0.0743 -0.1768 -0.1632
 3316W        W 4180  14.323   1.338   8.927 -0.4766 -0.2538  0.0370
 3317W        W 4181  17.043   3.657  10.104  0.0053  0.0624 -0.0624
 3318W        W 4182  20.121   5.768  11.821  0.1469  0.1915 -0.2176
 3319W        W 4183  14.010   4.479   5.549  0.2928 -0.1365  0.0521
 3320W        W 4184  16.140   0.890   8.735 -0.0569  0.3180  0.0335
 3321W        W 4185  15.907   2.160   8.302 -0.2149  0.2163  0.3748
 3322W        W 4186  13.869   5.438   8.781  0.0674  0.0455  0.0273
 3323W        W 4187  17.616   3.331  10.887 -0.1882 -0.2191  0.1483
 3324W        W 4188  15.804   2.612  10.099 -0.0626  0.0782 -0.1853
 3325W        W 4189  14.793   0.347   7.769  0.0312 -0.0904 -0.2623
 3326W        W 4190  13.917   2.842  10.418  0.2209 -0.2490  0.3130
 3327W        W 4191  16.859   2.226   4.550 -0.0576  0.1728  0.1117
 3328W        W 4192  19.290  29.117   9.277  0.1290  0.1095 -0.1236
 3329W        W 4193  14.673   2.105  10.303  0.4215 -0.4809  0.1579
 3330W        W 4194  13.374   4.130  11.796  0.0324  0.0506 -0.0111
 3331W        W 4195  15.961   0.167   7.461  0.1985 -0.2935  0.0088
 3332W        W 4196  14.656  28.736  10.447  0.0534  0.2338 -0.3356
 3333W        W 4197  14.113   3.122   8.385  0.1920  0.0528  0.1547
 3334W        W 4198  17.561   1.742   5.923  0.0199  0.2760  0.2112
 3335W        W 4199  16.412   1.129   7.836  0.1033  0.1717  0.0105
 3336W        W 4200  13.537   0.604   8.187 -0.3605  0.0544 -0.0955
 3337W        W 4201  17.572   5.833   8.115 -0.0018 -0.3714 -0.0276
 3338W        W 4202  15.653   1.814   7.991  0.0449  0.4199 -0.1331
 3339W        W 4203  12.224   0.898  11.204  0.0932 -0.0929  0.0245
 3340W        W 4204  15.961   1.456  11.106  0.1158  0.3827  0.0994
 3341W        W 4205  17.941   1.715  11.111 -0.3277 -0.0189  0.1615
 3342W        W 4206  12.465   4.419  10.487 -0.1970 -0.1163 -0.0204
 3343W        W 4207  15.965   3.400  10.469  0.0325  0.2302 -0.0678
 3344W        W 4208  17.072   3.312   7.982 -0.2017  0.0884 -0.1061
 3345W        W 4209  16.956   2.414   9.770  0.0367  0.3315 -0.1395
 3346W        W 4210  15.710   3.171  11.201  0.1610  0.1714  0.1101
 3347W        W 4211  16.446   4.137  11.310  0.0696  0.1637  0.1387
 3348W        W 4212  14.669   2.900  11.101 -0.1186 -0.0041 -0.0251
 3349W        W 4213  15.388   1.252  12.306 -0.3334 -0.1359  0.1685
 3350W        W 4214  17.296   1.865   6.738  0.0850 -0.1426 -0.0442
 3351W        W 4215  11.673   0.244   7.751 -0.0785 -0.1238 -0.2545
 3352W        W 4216  15.712   4.140  10.146  0.1533  0.0494 -0.0559
 3353W        W 4217  16.634   4.153   7.956 -0.2323  0.4946 -0.0790
 3354W        W 4218  16.510   2.408   9.535  0.0418  0.0676  0.1086
 3355W        W 4219  20.400  28.359   6.237  0.2379 -0.0954 -0.1199
 3356W        W 4220  16.992  28.505   7.812 -0.0102  0.3136  0.1147
 3357W        W 4221  15.756   5.341   7.840  0.1673  0.2055 -0.1523
 3358W        W 4222  19.693   0.432   7.674 -0.2747  0.3455 -0.0326
 3359W        W 4223  14.958   4.652   7.286 -0.2573 -0.5213 -0.1598
 3360W        W 4224  15.183   5.747   9.842 -0.1958 -0.2567 -0.1786
 3361W        W 4225  14.265   2.399  10.453 -0.2164  0.0124 -0.3863
 3362W        W 4226  17.756  29.146  10.523  0.2307 -0.1943 -0.0713
 3363W        W 4227  16.409   1.888   9.154  0.0951 -0.0941 -0.2572
 3364W        W 4228  17.293   2.440   6.305 -0.2049 -0.0130 -0.3011
 3365W        W 4229  18.224   1.453  11.424  0.1832 -0.1165 -0.1454
 3366W        W 4230  18.824   2.575   7.769 -0.1021  0.2523  0.1019
 3367W        W 4231  15.686   1.943   9.618 -0.4493  0.2019  0.0068
 3368W        W 4232  16.289   4.517   7.959  0.1542 -0.0029  0.2063
 3369W        W 4233  16.761   1.085   7.181  0.1267 -0.1995  0.1010
 3370W        W 4234  14.477   2.174   6.150 -0.0753 -0.0152 -0.0235
 3371W        W 4235  15.527   0.199   8.326  0.3758  0.1832  0.2144
 3372W        W 4236  17.513   0.949   7.504  0.5035  0.1466  0.0010
 3373W        W 4237  15.279   4.412   8.639 -0.0224  0.4462  0.0718
 3374W        W 4238  15.983   4.428   5.982  0.0017  0.1232  0.4533
 3375W        W 4239  18.385  27.785   7.091 -0.1726  0.5427  0.3287
 3376W        W 4240  14.156   2.883  11.037  0.3608 -0.3028  0.2160
 3377W        W 4241  13.822   5.092   9.392  0.1541  0.3282  0.0230
 3378W        W 4242  12.916   5.229   7.715 -0.3840 -0.0313 -0.0826
 3379W        W 4243  14.838   2.621   8.097 -0.0306 -0.4015 -0.0386
 3380W        W 4244  18.191   1.916   9.988  0.0161 -0.0766 -0.0843
 3381W        W 4245  16.140   5.053   4.245  0.0733  0.1090  0.0052
 3382W        W 4246  15.260   3.012   9.395 -0.2760  0.0561 -0.0391
 3383W        W 4247  15.361   1.250   5.677 -0.1195  0.0703 -0.0062
 3384W        W 4248  15.309   3.956   7.724 -0.0583  0.0261 -0.0416
 3385W        W 4249  18.133   4.038   9.277 -0.0895 -0.1757 -0.0248
 3386W        W 4250  18.486   0.546   7.551  0.0632  0.0044 -0.0265
 3387W        W 4251  17.229   4.818   7.420  0.0690 -0.1058 -0.0385
 3388W        W 4252  17.668   1.453   9.130  0.2033  0.2125  0.0676
 3389W        W 4253  17.986   2.979   9.348 -0.0834 -0.3931  0.3630
 3390W        W 4254  14.902   2.849   8.651  0.0019  0.1153  0.3205
 3391W        W 4255  14.063   4.928   7.333 -0.2689 -0.0366 -0.1704
 3392W        W 4256  13.865   2.800   8.020 -0.2097  0.2758 -0.1648
 3393W        W 4257  16.840   3.564   7.501 -0.0108  0.1058  0.0965
 3394W        W 4258  17.361   2.174   9.437 -0.2014  0.3499  0.0399
 3395W        W 4259  14.744   3.811   7.928  0.0098 -0.0584  0.0540
 3396W        W 4260  15.141   2.257  10.299  0.1167  0.0635  0.0740
 3397W        W 4261  12.941   0.492   7.363  0.1833  0.1672 -0.0407
 3398W        W 4262  15.860  28.557   9.219  0.2321  0.2136 -0.1388
 3399W        W 4263  14.665   1.715   9.546  0.0828 -0.3638  0.1686
 3400W        W 4264  17.193   0.316   9.035  0.2253 -0.2208 -0.2464
 3401W        W 4265  18.868   2.772   8.657  0.0874  0.0037 -0.2924
 3402W        W 4266  17.601  26.163  13.243  0.3238 -0.2684 -0.0717
 3403W        W 4267  19.199   3.732   9.454  0.5027 -0.0799  0.0021
 3404W        W 4268  15.077   0.350  10.249 -0.1941 -0.0714  0.1838
 3405W        W 4269  17.217   0.564   7.978 -0.1579  0.0063  0.0732
 3406W        W 4270  15.425   2.289   8.108 -0.1540  0.1883 -0.2145
 3407W        W 4271  14.395   4.814   8.602  0.2399  0.2024 -0.0241
 3408W        W 4272  17.419   2.678   8.141 -0.0862 -0.1632  0.2704
 3409W        W 4273  14.451   4.262  10.108 -0.0622  0.2196  0.0163
 3410W        W 4274  17.729   1.171   5.281  0.1025  0.1979  0.2634
 3411W        W 4275  16.549  27.915   7.740 -0.2655  0.1642  0.2328
 3412W        W 4276  16.997   4.924  10.517 -0.3330  0.1057 -0.1003
 3413W        W 4277  18.367  28.330   7.716  0.0363 -0.1232  0.2431
 3414W        W 4278  17.741  25.602   9.666 -0.0705  0.1186 -0.3089
 3415W        W 4279  19.204   5.861   8.458 -0.0681  0.2914 -0.0803
 3416W        W 4280  14.007   5.108  11.155 -0.0891  0.1274  0.3136
 3417W        W 4281  16.468  28.462   7.397 -0.0948 -0.4167  0.1730
 3418W        W 4282  18.389   2.202  10.389  0.0482 -0.1030  0.2236
 3419W        W 4283  17.622   0.600   7.095  0.0966  0.1403 -0.2940
 3420W        W 4284  17.184   1.112   8.428 -0.1807  0.1724  0.0819
 3421W        W 4285  16.614   2.828   6.780 -0.3112  0.0197  0.0631
 3422W        W 4286  18.711   0.912  10.889  0.3129  0.1281  0.2503
 3423W        W 4287  15.995   1.109   9.168  0.2350  0.2937 -0.3944
 3424W        W 4288  14.534  28.464   8.316  0.0142 -0.4340 -0.0467
 3425W        W 4289  17.386  28.720   7.954  0.0777  0.0599 -0.0426
 3426W        W 4290  18.484   1.480   8.769 -0.1629 -0.0647  0.2164
 3427W        W 4291  16.729  29.045  10.428 -0.1419  0.2282 -0.1513
 3428W        W 4292  15.916   2.686  11.369  0.0020 -0.3699  0.0196
 3429W        W 4293  16.269   4.080   5.760  0.1694 -0.0174  0.4336
 3430W        W 4294  14.217   2.342   7.008 -0.3313  0.1592  0.2192
 3431W        W 4295  18.991  26.016   9.601  0.0757  0.2484 -0.2240
 3432W        W 4296  16.602   3.724   9.800 -0.0234  0.0807  0.1584
 3433W        W 4297  18.100   0.549   8.046  0.3128 -0.1243 -0.1659
 3434W        W 4298  17.835   0.793   8.457  0.0530  0.0636  0.3023
 3435W        W 4299  19.874  28.889   5.797  0.0638  0.0563  0.3049
 3436W        W 4300  16.461   3.438   7.173 -0.0721  0.1804 -0.0937
 3437W        W 4301  15.550   0.271   5.503  0.0627  0.0392 -0.6093
 3438W        W 4302  17.805   1.524   6.376 -0.3188  0.1603  0.0188
 3439W        W 4303  15.978   3.670   9.110  0.1429  0.3546 -0.0821
 3440W        W 4304  17.254   2.062   8.036  0.0356  0.2820  0.2393
 3441W        W 4305  15.490   1.410   8.266 -0.0356  0.3202  0.1444
 3442W        W 4306  19.444   0.627  10.593 -0.3850  0.2561 -0.2629
 3443W        W 4307  18.105   5.067   8.937 -0.1192  0.1669 -0.0736
 3444W        W 4308  15.548   2.072   7.589 -0.0110  0.1623  0.1777
 3445W        W 4309  17.630   4.955   7.734  0.0995  0.2801 -0.3033
 3446W        W 4310  16.201   3.310  10.010  0.0807  0.2404 -0.4379
 3447W        W 4311  17.558   4.680  11.993  0.0430  0.0266 -0.1212
 3448W        W 4312  17.821   3.561   7.724 -0.1284 -0.1873 -0.0984
 3449W        W 4313  16.720   3.335   8.437  0.0298  0.0714  0.0168
 3450W        W 4314  15.273   0.339   8.927 -0.0805  0.1312  0.1897
 3451W        W 4315  18.891   0.512   8.428  0.1018  0.1491 -0.0547
 3452W        W 4316  18.907   0.388  11.712 -0.0130  0.2654 -0.1378
 3453W        W 4317  18.247   3.044  10.089 -0.0646  0.0995  0.1612
 3454W        W 4318  16.774   4.613   7.705  0.0409 -0.2915 -0.0505
 3455W        W 4319  14.249   0.454   7.011  0.2800 -0.0632  0.0255
 3456W        W 4320  17.876   0.536  10.168  0.1338 -0.0480  0.0754
 3457W        W 4321  15.581   4.089   9.255 -0.4070 -0.0748  0.3168
 3458W        W 4322  18.820   3.260   8.824  0.2685  0.0609 -0.1165
 3459W        W 4323  16.259   1.399  10.537  0.2349 -0.2426 -0.1591
 3460W        W 4324  17.365   4.199  10.765  0.1072 -0.1699  0.2377
 3461W        W 4325  16.388   0.788   8.238 -0.0562  0.0242  0.2735
 3462W        W 4326  15.142   4.921   8.809 -0.0000 -0.1536  0.0920
 3463W        W 4327  17.444   4.711   9.609  0.1084 -0.1092  0.0344
 3464W        W 4328  17.156   5.195   8.400  0.0406 -0.1006  0.1312
 3465W        W 4329  19.068   1.761  10.230 -0.1963 -0.0319 -0.2331
 3466W        W 4330  13.491   0.110   8.327 -0.2358 -0.3715  0.2107
 3467W        W 4331  17.674   2.489   8.554  0.1961 -0.0758  0.1168
 3468W        W 4332  15.796   1.291   8.740 -0.0719 -0.0525 -0.2046
 3469W        W 4333  14.935   3.176   8.315 -0.0663  0.0966  0.1951
 3470W        W 4334  17.499   0.470   7.563  0.3626 -0.4083  0.0743
 3471W        W 4335  14.823   3.013  10.228 -0.0900  0.0256  0.0813
 3472W        W 4336  17.533   2.739   5.935 -0.0032 -0.1618 -0.2077
 3473W        W 4337  16.301  28.359   9.273 -0.2204  0.4141  0.1328
 3474W        W 4338  14.185   2.857   9.003  0.1594  0.0127  0.3664
 3475W        W 4339  17.204   1.454   9.970 -0.1359 -0.3255  0.0503
 3476W        W 4340  14.419   4.818   8.105 -0.0257  0.0058 -0.0705
 3477W        W 4341  16.735   3.464  10.753  0.0678 -0.0688  0.0831
 3478W        W 4342  17.015   0.766   8.878 -0.1574 -0.1487 -0.0128
 3479W        W 4343  14.908   0.747  12.224  0.0107  0.0759 -0.1945
 3480W        W 4344  16.407   1.354   9.299 -0.0034 -0.1743 -0.0422
 3481W        W 4345  15.709   0.385   9.135 -0.3353 -0.0997  0.0253
 3482W        W 4346  14.772   5.585   8.367  0.4155 -0.2688 -0.0530
 3483W        W 4347  17.121   3.277   8.730 -0.0946 -0.1916  0.0190
 3484W        W 4348  14.497   1.330   7.131  0.0385  0.0836  0.0268
 3485W        W 4349  17.454   0.682   9.422  0.2672  0.4153  0.2421
 3486W        W 4350  18.226   2.700  10.486  0.2693 -0.0235 -0.1255
 3487W        W 4351  16.965   2.752   8.879  0.0364  0.0470  0.1372
 3488W        W 4352  18.148   1.957   7.978 -0.1138 -0.0136  0.2727
 3489W        W 4353  16.050  28.122   9.850  0.0132  0.0112 -0.0327
 3490W        W 4354  19.442   0.292   8.108  0.0803  0.2761  0.2082
 3491W        W 4355  16.167   5.687  13.285 -0.1423 -0.1980 -0.1808
 3492W        W 4356  18.066   3.539  10.839 -0.1694  0.1177 -0.0360
 3493W        W 4357  11.806   3.799   7.038 -0.0189  0.1170  0.2079
 3494W        W 4358  19.167  26.829   9.144  0.2178  0.1719  0.1743
 3495W        W 4359  16.927   1.328   7.695  0.1798 -0.0022 -0.1691
 3496W        W 4360  17.554   3.204   9.409  0.2037 -0.1616 -0.0664
 3497W        W 4361  16.988   1.570   7.208  0.0080 -0.2030  0.2518
 3498W        W 4362  14.377   2.014   7.450  0.1183 -0.2350  0.0804
 3499W        W 4363  17.765   1.451   4.809  0.1690  0.1097  0.1502
 3500W        W 4364  16.816   0.376   7.617  0.0754  0.2378 -0.0521
 3501W        W 4365  18.870  27.852   8.967  0.1800  0.0341 -0.2502
 3502W        W 4366  14.589  28.224   9.351  0.0273  0.0084  0.0493
 3503W        W 4367  15.131   3.789  10.691  0.2388  0.0750  0.3335
 3504W        W 4368  17.434   6.337   6.182 -0.0045 -0.4880  0.1337
 3505W        W 4369  15.559   2.339   4.173  0.1148  0.4987  0.0635
 3506W        W 4370  14.453   0.683   9.184  0.1843  0.0253  0.0272
 3507W        W 4371  15.815   1.765   8.813 -0.0995  0.0934  0.1193
 3508W        W 4372  17.132   0.164  11.584 -0.0700  0.1161 -0.1475
 3509W        W 4373  17.183  28.766   8.498 -0.3760  0.0031 -0.4458
 3510W        W 4374  16.402   2.091   8.087  0.0737 -0.0108 -0.2385
 3511W        W 4375  16.268   2.075   8.656  0.0271 -0.2391 -0.0149
 3512W        W 4376  15.087   0.803  10.048  0.1202 -0.0005 -0.0876
 3513W        W 4377  16.093  28.488   6.126  0.1076 -0.1708 -0.1256
 3514W        W 4378  17.585  28.278  10.748 -0.0341  0.0438  0.3806
 3515W        W 4379  16.500   0.873   9.646  0.1171  0.1019  0.1007
 3516W        W 4380  20.347  28.047   8.327 -0.2347  0.0401  0.3287
 3517W        W 4381  16.642   1.430   6.326  0.1415  0.1791 -0.3863
 3518W        W 4382  16.875   1.212   9.077 -0.0362 -0.0787  0.1255
 3519W        W 4383  15.161   2.894   7.326 -0.0525  0.1832 -0.0191
 3520W        W 4384  15.043  28.220   9.520  0.1587  0.0550 -0.0826
 3521W        W 4385  17.025   4.225  11.124  0.1110  0.0959 -0.0881
 3522W        W 4386  15.340   4.490   9.848 -0.2901  0.2158 -0.0644
 3523W        W 4387  16.566   3.476   4.571  0.2076 -0.1277  0.1430
 3524W        W 4388  16.528   1.577   5.744  0.1646 -0.1828 -0.1217
 3525W        W 4389  14.921   4.583  11.935  0.1705 -0.3448  0.0341
 3526W        W 4390  15.240   2.400  10.892  0.0247  0.0738 -0.1325
 3527W        W 4391  14.787   4.539   8.826 -0.0041 -0.4474  0.3496
 3528W        W 4392  18.441  27.915   8.054  0.1810  0.2154  0.2637
 3529W        W 4393  17.666  28.948   8.380 -0.0861  0.2050 -0.1647
 3530W        W 4394  18.613   1.913   8.113 -0.2321  0.1209 -0.2395
 3531W        W 4395  16.168  28.327   7.790 -0.1168 -0.1744 -0.0860
 3532W        W 4396  17.884   5.108   4.885  0.1223 -0.1190  0.2262
 3533W        W 4397  15.105   0.392  10.823  0.1063  0.1374 -0.0926
 3534W        W 4398  14.811   3.574  10.378 -0.0400  0.0386 -0.0410
 3535W        W 4399  18.522   3.642  10.680  0.2357 -0.0206 -0.0145
 3536W        W 4400  16.896   0.688   8.366 -0.0952 -0.0995 -0.0901
 3537W        W 4401  15.776   3.671   9.933  0.3299 -0.2553 -0.1535
 3538W        W 4402  17.703  28.999   7.666  0.0891 -0.3190  0.1566
 3539W        W 4403  18.015   3.791   8.842 -0.3243  0.4171 -0.2631
 3540W        W 4404  15.004  26.930   9.311 -0.1276 -0.0918 -0.0553
 3541W        W 4405  15.090   2.008   8.830  0.2220 -0.0509 -0.2267
 3542W        W 4406  17.797   2.518  11.561  0.2163  0.1321  0.1070
 3543W        W 4407  17.637   5.508   7.047  0.1061 -0.0296 -0.0137
 3544W        W 4408  15.676   0.717   6.468 -0.3553 -0.1881 -0.2050
 3545W        W 4409  16.256   1.750  13.274  0.2367 -0.1465  0.1023
 3546W        W 4410  14.700   2.345  11.669  0.2298  0.0793  0.0531
 3547W        W 4411  14.584   2.078   4.906 -0.0921  0.4269  0.1799
 3548W        W 4412  16.752   1.197   8.188 -0.3434 -0.2563 -0.1363
 3549W        W 4413  13.197   4.334  11.296 -0.2233 -0.2369 -0.0612
 3550W        W 4414  17.561   5.137  10.615 -0.1148  0.2187  0.3638
 3551W        W 4415  16.548   1.653   7.902  0.0906 -0.0397 -0.0828
 3552W        W 4416  14.787   0.680  11.115  0.1254  0.0678 -0.1129
 3553W        W 4417  18.119   2.787   7.831 -0.0925 -0.0910  0.1019
 3554W        W 4418  16.934   2.932  10.617  0.1700 -0.3765 -0.0087
 3555W        W 4419  15.315   2.820   8.110 -0.0599 -0.0042 -0.0717
 3556W        W 4420  12.668   1.225   8.980  0.2110 -0.0761  0.1791
 3557W        W 4421  17.431  29.080   8.785 -0.6124  0.1278 -0.1406
 3558W        W 4422  18.731   0.091   8.694  0.0367 -0.0837  0.1505
 3559W        W 4423  16.185   1.159   6.498 -0.2185  0.0167  0.0405
 3560W        W 4424  16.247   1.079   7.087 -0.0032  0.1924 -0.1469
 3561W        W 4425  16.441   3.596  10.394 -0.1990 -0.0394 -0.0511
 3562W        W 4426  18.262   1.974   7.177 -0.1734 -0.2496 -0.2091
 3563W        W 4427  15.077   0.434   5.930  0.3138 -0.0353  0.0737
 3564W        W 4428  15.339   1.907   8.409 -0.0729  0.0811  0.1380
 3565W        W 4429  17.799   1.209   9.615 -0.2077 -0.3935 -0.0822
 3566W        W 4430  21.279   4.629  13.268 -0.0615  0.0582 -0.0537
 3567W        W 4431  15.272   4.017  10.201  0.0433  0.2013 -0.0896
 3568W        W 4432  12.479   2.471   7.349  0.1335  0.0308 -0.2880
 3569W        W 4433  17.647   2.072  11.366 -0.1447  0.0594 -0.2850
 3570W        W 4434  16.411   0.292   7.355 -0.1915  0.2261 -0.0831
 3571W        W 4435  16.081   0.209   6.941  0.0485  0.0129  0.0483
 3572W        W 4436  17.019   2.499   5.774  0.1015 -0.1582  0.1285
 3573W        W 4437  15.526   3.300   8.163 -0.0694 -0.1181 -0.0721
 3574W        W 4438  14.543   2.441   9.357  0.1988  0.1762  0.2306
 3575W        W 4439  16.181   3.880  10.011 -0.1020  0.0546  0.0078
 3576W        W 4440  16.851   4.016  11.634 -0.3178  0.1730 -0.1584
 3577W        W 4441  15.939   1.588   9.291  0.2714 -0.1472  0.1583
 3578W        W 4442  15.505   3.885   8.201 -0.0079  0.3600  0.1268
 3579W        W 4443  14.188   5.569   9.492 -0.0859 -0.0549  0.3415
 3580W        W 4444  16.247   4.341   8.628 -0.0124 -0.0302 -0.3483
 3581W        W 4445  14.394   0.781   5.643  0.0831  0.2196 -0.1823
 3582W        W 4446  13.004   2.677  10.166 -0.1805 -0.2505 -0.2948
 3583W        W 4447  20.870   2.196   7.815  0.2730 -0.2291  0.0723
 3584W        W 4448  16.250   2.955   7.222  0.2981  0.0296 -0.3972
 3585W        W 4449  18.863   1.325  10.133  0.2904 -0.0502 -0.0011
 3586W        W 4450  18.322   0.491   6.216  0.1251 -0.1118 -0.0037
 3587W        W 4451  13.239   1.495  10.663 -0.1447  0.3159 -0.0990
 3588W        W 4452  17.918   5.569   9.167  0.0841 -0.0050 -0.1157
 3589W        W 4453  16.271  27.671   9.030 -0.4238  0.2295  0.1808
 3590W        W 4454  14.863   1.188   8.419  0.1799  0.1850  0.0412
 3591W        W 4455  15.361   4.544   9.091  0.1075 -0.2002  0.0361
 3592W        W 4456  14.933   1.348   6.173  0.2370 -0.0197 -0.0233
 3593W        W 4457  14.514   1.673   6.359 -0.0103  0.5324 -0.1600
 3594W        W 4458  19.405   1.582  10.648  0.2126 -0.2990  0.1380
 3595W        W 4459  18.212  28.575   8.133  0.2484  0.2561  0.0332
 3596W        W 4460  16.639  27.899   6.697  0.1925 -0.1017  0.4063
 3597W        W 4461  14.190   3.747  10.842 -0.0376  0.0194 -0.0292
 3598W        W 4462  17.622   4.936   7.155 -0.0552  0.4142 -0.1982
 3599W        W 4463  19.291  28.354  10.444  0.2097  0.2892 -0.1074
 3600W        W 4464  18.246   2.593   6.833 -0.1885 -0.1240 -0.3144
 3601W        W 4465  14.234   0.688  11.006  0.1794 -0.0487  0.1517
 3602W        W 4466  18.274  28.818   6.681  0.0411 -0.1499 -0.0266
 3603W        W 4467  17.240   1.953   8.532  0.1394 -0.1998 -0.0004
 3604W        W 4468  18.278   2.813   6.361  0.0056  0.2369 -0.1165
 3605W        W 4469  18.648  28.899   7.965 -0.0618 -0.1299 -0.2850
 3606W        W 4470  18.694  28.675   7.532  0.0278 -0.0288  0.1628
 3607W        W 4471  14.330   1.599   4.897  0.0907  0.0597  0.0229
 3608W        W 4472  14.933   2.220   6.834  0.1199  0.2103  0.0437
 3609W        W 4473  16.830   2.054   8.272 -0.0417  0.0268  0.1984
 3610W        W 4474  13.693   1.502   9.616 -0.2294  0.1416 -0.0944
 3611W        W 4475  16.576   3.874   8.430 -0.0418 -0.1887 -0.0857
 3612W        W 4476  19.058   0.326   8.982  0.0166  0.1753 -0.0795
 3613W        W 4477  14.591   3.490   9.504 -0.2579 -0.4017  0.5023
 3614W        W 4478  13.114   2.439   6.326 -0.1944 -0.3156 -0.0756
 3615W        W 4479  15.925   0.133  10.761  0.2465 -0.0145 -0.1215
 3616W        W 4480  16.234   6.502  10.279  0.0768 -0.0115  0.0247
 3617W        W 4481  15.573  29.136   7.188 -0.0953 -0.1716 -0.0726
 3618W        W 4482  17.452   2.986   7.282  0.0491 -0.3696 -0.0252
 3619W        W 4483  16.999   3.881  10.505 -0.0495 -0.0244 -0.0351
 3620W        W 4484  17.638   1.288   8.255 -0.1434 -0.1226 -0.3326
 3621W        W 4485  15.187   1.446   9.972  0.3932  0.2969  0.1393
 3622W        W 4486  17.540   1.033   4.868  0.3340 -0.1991  0.0570
 3623W        W 4487  13.882   1.231  10.079  0.0031  0.2150 -0.0051
 3624W        W 4488  16.107  27.977   6.761  0.1530 -0.5606  0.1263
 3625W        W 4489  14.064   1.733   8.782 -0.0450 -0.3819  0.0335
 3626W        W 4490  16.824  28.802   6.666 -0.1306 -0.1173  0.4154
 3627W        W 4491  14.782   3.192   7.784 -0.1946  0.0301 -0.1399
 3628W        W 4492  16.097   5.273   8.797  0.2119 -0.1965 -0.0638
 3629W        W 4493  16.215   5.368   7.296  0.0479  0.0218 -0.4492
 3630W        W 4494  14.089  29.094   8.387 -0.0522 -0.3805 -0.0231
 3631W        W 4495  18.509   0.013   7.588  0.3198  0.0597 -0.0330
 3632W        W 4496  16.939   3.748   8.863  0.1704 -0.1324 -0.0353
 3633W        W 4497  13.819   1.826   7.374 -0.0057  0.3134 -0.2335
 3634W        W 4498  13.858   5.034   8.414 -0.0061 -0.1154 -0.1365
 3635W        W 4499  17.449   4.582   6.247 -0.2739 -0.1277 -0.0649
 3636W        W 4500  15.686   3.256   9.039  0.0416  0.1116 -0.1234
 3637W        W 4501  18.229   3.515   9.292 -0.1212 -0.2184  0.1740
 3638W        W 4502  16.205   2.666   7.624 -0.0736 -0.2494  0.3187
 3639W        W 4503  16.499   2.990   8.170  0.6173 -0.0896  0.0092
 3640W        W 4504  14.386  28.985   7.628  0.0947  0.1577  0.0215
 3641W        W 4505  17.552   3.727   8.615 -0.1377  0.2616  0.5137
 3642W        W 4506  17.882   4.740   6.500 -0.4509  0.0570 -0.0492
 3643W        W 4507  13.378   2.772  10.515  0.2038 -0.1127 -0.1675
 3644W        W 4508  14.214   1.461  10.425  0.0062 -0.1841 -0.0202
 3645W        W 4509  20.544   0.537   7.295 -0.2015 -0.0117 -0.3006
 3646W        W 4510  15.636   0.187  12.656  0.3031 -0.0554  0.1716
 3647W        W 4511  17.106   2.190   8.984  0.0169  0.0598  0.1522
 3648W        W 4512  18.315   1.324   9.823  0.0965  0.2479  0.2073
 3649W        W 4513  18.668   3.380  10.269  0.0306 -0.2256  0.0149
 3650W        W 4514  16.593   5.150   8.727  0.2252 -0.0609 -0.0629
 3651W        W 4515  16.123   1.481   6.101  0.1787  0.0558  0.0337
 3652W        W 4516  17.141   2.430   8.560  0.1300 -0.3056 -0.2150
 3653W        W 4517  16.808   0.291   8.095 -0.0064  0.3265  0.1648
 3654W        W 4518  15.311   4.925  10.158  0.1163  0.2163 -0.0845
 3655W        W 4519  14.571   2.055  11.274 -0.1207 -0.1020 -0.4391
 3656W        W 4520  18.504  27.371   7.972 -0.1117 -0.2350  0.4601
 3657W        W 4521  13.819   5.578   6.726 -0.0962  0.0416  0.0185
 3658W        W 4522  16.720   1.975   8.777 -0.1742 -0.1380 -0.1748
 3659W        W 4523  16.309   3.449   8.728 -0.0910 -0.2059 -0.3587
 3660W        W 4524  15.685   2.656   8.346 -0.0229 -0.1593  0.2008
 3661W        W 4525  16.035   2.575   9.249 -0.1302 -0.1517 -0.0112
 3662W        W 4526  17.552   0.116   9.292 -0.4325  0.4138 -0.2479
 3663W        W 4527  17.393   1.581   9.538  0.0267  0.0056 -0.1067
 3664W        W 4528  16.462   1.680  10.980  0.0937  0.4479 -0.0366
 3665W        W 4529  18.483   0.461   9.601 -0.1866  0.2193 -0.2826
 3666W        W 4530  16.553   0.810   5.002  0.4283 -0.1164 -0.0587
 3667W        W 4531  13.991   3.311   7.900 -0.1506 -0.1522  0.1131
 3668W        W 4532  17.205   5.122   4.168  0.0663 -0.0343  0.0726
 3669W        W 4533  15.324  27.864   8.188  0.1308 -0.0727 -0.0385
 3670W        W 4534  15.266   2.922   6.439  0.0702 -0.1791  0.0730
 3671W        W 4535  18.368   0.952  11.273  0.3624  0.0161  0.1477
 3672W        W 4536  16.149   2.423  10.429  0.1083 -0.0129 -0.2259
 3673W        W 4537  17.020   3.833   7.866 -0.1125 -0.0536  0.1191
 3674W        W 4538  15.828   2.923   6.580 -0.0388 -0.1151 -0.0454
 3675W        W 4539  17.453   2.837  10.704  0.2326 -0.0685  0.2256
 3676W        W 4540  13.809   2.528   9.037  0.0255  0.0981 -0.0745
 3677W        W 4541  17.342   1.047   9.084 -0.0076 -0.1185  0.1289
 3678W        W 4542  15.787   4.579   8.843  0.3551  0.0275  0.1693
 3679W        W 4543  17.622   3.305  10.111 -0.1849  0.0777 -0.0743
 3680W        W 4544  17.405   6.918  11.264  0.1066  0.0437 -0.1037
 3681W        W 4545  17.611   1.948  10.836 -0.1334  0.1836  0.2642
 3682W        W 4546  17.611  28.231   7.128  0.1683 -0.1580 -0.2614
 3683W        W 4547  16.835   0.078   7.116 -0.1502  0.1328  0.1449
 3684W        W 4548  13.016   0.827   8.164 -0.2066  0.0658 -0.0262
 3685W        W 4549  20.587   1.552   5.845  0.0318  0.0936 -0.1768
 3686W        W 4550  17.555   1.859   7.209 -0.3613 -0.2288  0.0895
 3687W        W 4551  15.625   2.790   9.597 -0.2227 -0.0155  0.0889
 3688W        W 4552  15.428   4.473   7.616  0.1077 -0.1336 -0.0905
 3689W        W 4553  18.696   1.172  13.038  0.1639  0.1410 -0.0328
 3690W        W 4554  16.778   4.755   8.994 -0.0596  0.0348  0.0720
 3691W        W 4555  17.827   4.301   7.689  0.4111  0.2092  0.1400
 3692W        W 4556  17.617  27.783   9.081 -0.0736  0.2873 -0.4137
 3693W        W 4557  14.007   3.041  12.654  0.1301  0.0050 -0.0384
 3694W        W 4558  16.965   0.794   9.866  0.5210 -0.2333  0.0826
 3695W        W 4559  16.150   3.173   9.124 -0.1270 -0.2643  0.1099
 3696W        W 4560  14.511   4.092  10.886 -0.1434  0.1276  0.0316
 3697W        W 4561  14.734   5.210   8.724 -0.0568  0.1338 -0.0639
 3698W        W 4562  17.910   5.506   9.689 -0.0463  0.0224  0.1224
 3699W        W 4563  18.177  28.021  11.603 -0.0039 -0.2596  0.2618
 3700W        W 4564  16.801   3.266  10.252 -0.4971  0.2679  0.1507
 3701W        W 4565  14.802   3.949   9.369  0.3600 -0.2451  0.0534
 3702W        W 4566  16.348   3.203   7.687  0.0876 -0.1604 -0.0272
 3703W        W 4567  17.765   0.295   8.508  0.1318  0.1718 -0.1137
 3704W        W 4568  16.974   5.486  11.844  0.1782  0.0802  0.1030
 3705W        W 4569  14.975   2.120   9.334 -0.0316  0.0119 -0.0962
 3706W        W 4570  17.646   3.079   7.863 -0.0302 -0.0673 -0.0098
 3707W        W 4571  16.034   3.939  10.510  0.0823 -0.1782  0.1400
 3708W        W 4572  12.344   2.158   8.968  0.1571  0.2222 -0.1350
 3709W        W 4573  16.252   1.249   8.376 -0.0184  0.0338 -0.2153
 3710W        W 4574  16.519   4.000   8.913  0.0734 -0.0223  0.0145
 3711W        W 4575  17.521   3.800  10.441  0.1405  0.0648  0.0558
 3712W        W 4576  14.902   2.230   8.345 -0.0560 -0.2159 -0.1225
 3713W        W 4577  16.325   3.756   7.634 -0.3171 -0.3640 -0.1547
 3714W        W 4578  16.691   2.820  18.898 -0.1837  0.0429  0.3792
 3715W        W 4579  12.582   0.921  16.849 -0.0269 -0.2017 -0.0025
 3716W        W 4580  15.631   0.818  10.062 -0.0239  0.2312  0.0155
 3717W        W 4581  16.431   4.255  11.792 -0.0026 -0.0086 -0.2506
 3718W        W 4582  16.273   3.742  10.926  0.0564 -0.0374  0.3382
 3719W        W 4583  15.393   0.667  11.350 -0.3040 -0.1262  0.0259
 3720W        W 4584  15.960   1.486  12.436 -0.3462 -0.2051  0.0489
 3721W        W 4585  19.332   4.187  11.662  0.1608 -0.0281 -0.2727
 3722W        W 4586  13.921   4.037  14.511 -0.1084 -0.1879  0.1989
 3723W        W 4587  15.431  28.127  13.289 -0.0469  0.0353  0.2087
 3724W        W 4588  14.889  27.749  14.287  0.5170  0.1957  0.1044
 3725W        W 4589  16.268   0.669  11.590 -0.1299  0.1935 -0.0720
 3726W        W 4590  16.853   1.445  11.291 -0.1804 -0.2654  0.2452
 3727W        W 4591  17.770   2.731  14.389  0.0506  0.0420  0.2904
 3728W        W 4592  13.916   2.507  10.859  0.0379 -0.2149  0.0846
 3729W        W 4593  15.035   3.797  15.122  0.2240 -0.0962 -0.5247
 3730W        W 4594  15.559   3.522  11.595 -0.2932 -0.2155 -0.0965
 3731W        W 4595  13.313   3.596  13.394 -0.0361  0.1779 -0.1547
 3732W        W 4596  17.024  28.169  13.037  0.0893 -0.1822  0.3916
 3733W        W 4597  17.641   0.805  11.196 -0.4411  0.3720  0.3203
 3734W        W 4598  20.109   1.296  12.758 -0.1682 -0.1187 -0.0933
 3735W        W 4599  17.377   1.216  10.373  0.0674 -0.1340  0.3616
 3736W        W 4600  18.032   1.112  13.484 -0.0318  0.0230  0.2570
 3737W        W 4601  13.816   2.145  13.103 -0.2532  0.2028 -0.1574
 3738W        W 4602  14.478   2.798  12.362 -0.3495  0.0152  0.0304
 3739W        W 4603  15.237   2.073  14.125  0.0738  0.0743  0.2664
 3740W        W 4604  17.804  28.823  14.529  0.3509  0.0129 -0.0275
 3741W        W 4605  14.856   2.452  11.208  0.1102  0.1549  0.3770
 3742W        W 4606  15.428   2.002  14.916  0.3374  0.2010  0.1242
 3743W        W 4607  15.147  27.960  10.896  0.0152 -0.2024  0.1592
 3744W        W 4608  16.846   1.902  11.441 -0.0020 -0.1483  0.2304
 3745W        W 4609  15.221   5.688  15.280  0.1040 -0.1497 -0.2653
 3746W        W 4610  14.848   2.641  13.046  0.2322  0.1807  0.0716
 3747W        W 4611  15.855   1.021  12.174  0.1777  0.0100 -0.0299
 3748W        W 4612  17.003   0.523  14.401  0.0355 -0.1475  0.1594
 3749W        W 4613  18.350   3.804  15.655 -0.1032  0.0197 -0.0997
 3750W        W 4614  16.032  29.000  11.272  0.0570  0.1786  0.1557
 3751W        W 4615  17.315   3.403  13.794 -0.3276  0.0394  0.1825
 3752W        W 4616  18.028   3.397  12.553  0.0537  0.4170  0.2368
 3753W        W 4617  18.222   0.656  10.851 -0.0360  0.4441 -0.0400
 3754W        W 4618  16.482   1.146  10.129 -0.5027  0.3007 -0.1231
 3755W        W 4619  18.137   1.001  14.072  0.0177  0.0596  0.0261
 3756W        W 4620  15.334   2.797  12.027 -0.2725  0.0125  0.1210
 3757W        W 4621  17.457   5.854   9.366 -0.2371 -0.0627 -0.1434
 3758W        W 4622  15.486   5.835  11.767  0.2161 -0.4120 -0.0059
 3759W        W 4623  13.280   3.386  11.387 -0.0006 -0.1014 -0.2474
 3760W        W 4624  14.058   1.017  13.390 -0.0341 -0.0423  0.1511
 3761W        W 4625  17.123   2.134  17.762 -0.0607  0.1457  0.1815
 3762W        W 4626  16.786   0.100  11.210 -0.1311  0.2976 -0.0829
 3763W        W 4627  17.088   3.249   9.738 -0.3008 -0.1626 -0.3722
 3764W        W 4628  15.804   3.651  13.268 -0.1550 -0.1212  0.1447
 3765W        W 4629  18.242  29.080  14.819  0.1526  0.2188  0.0454
 3766W        W 4630  17.496   4.622  13.097 -0.1498  0.1042 -0.2825
 3767W        W 4631  17.519   2.402  13.058  0.0498 -0.0387 -0.2405
 3768W        W 4632  15.561  26.315  14.663 -0.2447  0.0498 -0.1409
 3769W        W 4633  14.413   3.343  10.599 -0.2850 -0.0519 -0.0738
 3770W        W 4634  14.389   0.034  10.434  0.0884  0.4696 -0.2408
 3771W        W 4635  17.477   1.856  12.634  0.0464  0.0534  0.2434
 3772W        W 4636  14.719   3.893  12.919  0.3091 -0.4563  0.0330
 3773W        W 4637  14.875   4.855   9.692  0.0710  0.1903 -0.0799
 3774W        W 4638  17.912   3.319  11.373 -0.2398  0.2607  0.0028
 3775W        W 4639  14.945   4.551  10.187  0.0977  0.1872 -0.0970
 3776W        W 4640  14.364   3.769  14.942 -0.0580 -0.1225 -0.0805
 3777W        W 4641  16.125   0.436  10.414  0.2959 -0.0296  0.1463
 3778W        W 4642  16.006   0.850  14.110  0.0695  0.1633 -0.0161
 3779W        W 4643  18.501   1.373  13.979 -0.0381  0.2378 -0.2574
 3780W        W 4644  15.492   1.858  10.154 -0.1207  0.0711  0.2677
 3781W        W 4645  17.602  28.212   9.303  0.1013 -0.4359  0.0646
 3782W        W 4646  17.332   4.132  13.224 -0.0711  0.0150 -0.1655
 3783W        W 4647  16.777   4.554  11.405  0.0770 -0.2791  0.1372
 3784W        W 4648  16.176   1.842  12.761 -0.1781 -0.1766 -0.1870
 3785W        W 4649  12.412   2.573  13.615  0.2697 -0.0690 -0.0082
 3786W        W 4650  17.793   4.628  12.555 -0.0794 -0.2376  0.2518
 3787W        W 4651  16.325   4.100  15.334  0.0871  0.2506 -0.1033
 3788W        W 4652  19.930   3.877  11.930  0.0452 -0.1820  0.1669
 3789W        W 4653  15.577   0.709  12.449  0.3635 -0.0278  0.0594
 3790W        W 4654  14.964   1.076  15.092  0.0118 -0.0370 -0.0343
 3791W        W 4655  18.756   2.734  11.425  0.1474 -0.1930 -0.1688
 3792W        W 4656  18.619   0.963  12.272  0.1012  0.2133 -0.0635
 3793W        W 4657  16.035   0.202  11.856 -0.0374  0.2252 -0.1956
 3794W        W 4658  16.065   0.948  12.608 -0.0363 -0.0007  0.2981
 3795W        W 4659  16.011   1.794  13.691 -0.1393  0.3137  0.1334
 3796W        W 4660  15.373   0.053  10.600  0.0172  0.1522  0.2514
 3797W        W 4661  15.883  27.657  12.511  0.0785  0.0440 -0.0734
 3798W        W 4662  13.890   1.672  13.001  0.2175 -0.3327 -0.2635
 3799W        W 4663  17.497   0.261  10.127  0.1396 -0.0973  0.0246
 3800W        W 4664  19.006   3.528  13.110  0.0767 -0.1656 -0.1029
 3801W        W 4665  18.013  27.507  11.006  0.0886 -0.3586 -0.5167
 3802W        W 4666  18.779   2.789  14.496 -0.0647  0.0281 -0.0228
 3803W        W 4667  19.826   1.369  17.027 -0.0817  0.1817  0.4014
 3804W        W 4668  18.315  27.094  11.195  0.0146  0.2285  0.3617
 3805W        W 4669  17.839   0.368  16.255 -0.3093 -0.1070  0.0412
 3806W        W 4670  15.283   4.012  12.438 -0.1039 -0.1155 -0.0359
 3807W        W 4671  17.992   0.303  11.900  0.0213 -0.2724 -0.1374
 3808W        W 4672  16.995   1.277  14.973 -0.0686 -0.2797 -0.2340
 3809W        W 4673  18.555  28.745  10.890  0.1091  0.0550  0.2758
 3810W        W 4674  16.306   1.458  12.071  0.1252 -0.0717  0.2306
 3811W        W 4675  17.348   0.597   8.494 -0.0800  0.3314 -0.0368
 3812W        W 4676  17.537  26.982  12.680 -0.0895  0.0205  0.1280
 3813W        W 4677  18.239   5.190   9.453  0.1929 -0.1365 -0.1391
 3814W        W 4678  14.519   3.791  12.489 -0.1684 -0.2062 -0.0946
 3815W        W 4679  16.720  28.539   9.674 -0.2295  0.0079  0.2296
 3816W        W 4680  20.110   1.784  11.015 -0.3065  0.1868  0.2328
 3817W        W 4681  19.255  28.764  11.483  0.2399 -0.1001 -0.2780
 3818W        W 4682  14.767   3.358  13.089 -0.0541 -0.0917  0.0479
 3819W        W 4683  15.240   3.579   8.574 -0.1614  0.2421  0.0444
 3820W        W 4684  19.358   0.268  15.026 -0.1914  0.2789 -0.1012
 3821W        W 4685  16.383   2.176  12.255  0.1521 -0.1621  0.5500
 3822W        W 4686  16.239   0.836  13.161 -0.1028 -0.1256 -0.0565
 3823W        W 4687  17.205   1.842  14.467  0.4997 -0.3258  0.1789
 3824W        W 4688  16.762   2.769  11.872 -0.0805  0.3765 -0.0310
 3825W        W 4689  19.043  28.713  12.451 -0.0553  0.0230 -0.0236
 3826W        W 4690  15.948   2.387  12.703 -0.0548 -0.0470  0.0536
 3827W        W 4691  18.779   2.986  10.017  0.0772  0.1115 -0.3503
 3828W        W 4692  18.295   1.410  10.708 -0.0584  0.1447  0.0245
 3829W        W 4693  18.876   1.970  13.481  0.1306  0.0250  0.1872
 3830W        W 4694  15.358   0.508  12.919  0.1504 -0.3432 -0.0952
 3831W        W 4695  17.663  28.603  11.616  0.0497 -0.1388  0.1549
 3832W        W 4696  16.980   0.146  12.107  0.1700 -0.0089 -0.1187
 3833W        W 4697  16.981   2.612  12.659 -0.1537 -0.0976  0.0326
 3834W        W 4698  17.171   2.933  10.192 -0.0294  0.2016 -0.1300
 3835W        W 4699  16.808   3.725  11.154 -0.1677  0.1096 -0.4445
 3836W        W 4700  16.481   0.773  10.559  0.3279 -0.0139  0.0910
 3837W        W 4701  15.673   2.674  10.906  0.0551 -0.1486  0.5569
 3838W        W 4702  19.656   1.486  14.549 -0.0139  0.1915 -0.0821
 3839W        W 4703  14.814   2.080  10.787 -0.1537  0.2085  0.0293
 3840W        W 4704  19.096   1.448  12.780 -0.3961 -0.2483 -0.1538
 3841W        W 4705  19.591   5.218  11.100  0.1560 -0.1432 -0.4205
 3842W        W 4706  15.234   2.340  11.776 -0.1183  0.1223 -0.0157
 3843W        W 4707  15.068   3.491  13.622 -0.5788 -0.0900 -0.2892
 3844W        W 4708  17.149  27.967  11.122 -0.0901 -0.0296 -0.0043
 3845W        W 4709  15.749   5.479  13.535  0.0084  0.2784 -0.0237
 3846W        W 4710  18.938  28.321  12.781 -0.0402 -0.2864 -0.0569
 3847W        W 4711  17.733   0.107  13.298 -0.0298  0.0220  0.4090
 3848W        W 4712  16.231  29.139  13.405  0.0984 -0.2148  0.1988
 3849W        W 4713  19.044  28.547  11.022  0.1738 -0.1153  0.1895
 3850W        W 4714  18.515   3.540  15.262  0.2032 -0.0277  0.2478
 3851W        W 4715  14.711   2.112   9.766  0.0864 -0.1210  0.0544
 3852W        W 4716  14.425   4.320  12.641 -0.1391 -0.2958 -0.2665
 3853W        W 4717  14.599   0.586  10.190  0.0725  0.1227  0.1086
 3854W        W 4718  19.356  28.722  13.701  0.0203 -0.3088  0.1562
 3855W        W 4719  16.304   2.783  10.129  0.0776  0.1417 -0.0888
 3856W        W 4720  15.942   2.617  12.245 -0.1106  0.0950  0.2588
 3857W        W 4721  12.858   2.544  15.373 -0.1955 -0.0279  0.0185
 3858W        W 4722  17.147  28.692  12.839  0.1173 -0.1076 -0.1654
 3859W        W 4723  17.382  28.406  11.226  0.0170  0.3793 -0.0637
 3860W        W 4724  16.518   5.444  13.577  0.0040  0.1665 -0.2267
 3861W        W 4725  18.007   0.271  12.912  0.0092 -0.0933  0.2785
 3862W        W 4726  17.732   0.619  13.370 -0.0373  0.0447  0.0814
 3863W        W 4727  16.886   3.026  14.986 -0.0819 -0.0663  0.2245
 3864W        W 4728  16.575  28.786  11.402 -0.1924 -0.1895  0.0563
 3865W        W 4729  14.717   3.501  11.600 -0.1781 -0.0332  0.0399
 3866W        W 4730  17.939  28.333  10.292 -0.0390  0.0730 -0.2016
 3867W        W 4731  15.920   0.432  11.240 -0.1085  0.1838  0.0939
 3868W        W 4732  19.229   0.664  13.335  0.0820  0.1063 -0.1770
 3869W        W 4733  14.565   0.886  13.156  0.1819 -0.0315  0.3268
 3870W        W 4734  17.206   2.513  12.003  0.2506  0.0209 -0.0406
 3871W        W 4735  17.438  28.754  10.643 -0.3835 -0.1309  0.1594
 3872W        W 4736  15.787   1.424  10.190  0.0561  0.0850  0.0348
 3873W        W 4737  17.889  27.943  12.058 -0.3212  0.0371  0.1800
 3874W        W 4738  14.628   3.230  14.194 -0.0956 -0.1113 -0.1771
 3875W        W 4739  15.154   3.106  14.156 -0.3666 -0.4859  0.2229
 3876W        W 4740  16.914   4.567  14.499  0.0133 -0.1441 -0.2005
 3877W        W 4741  15.563   0.781  13.861 -0.2311  0.2374 -0.1682
 3878W        W 4742  18.136   0.640  13.668  0.0208 -0.2765  0.2358
 3879W        W 4743  15.296  28.074  11.880 -0.0285 -0.0092 -0.0121
 3880W        W 4744  17.669   4.855  11.505  0.0042  0.1533 -0.4015
 3881W        W 4745  15.164   2.409  13.360 -0.1709 -0.1994  0.1758
 3882W        W 4746  15.749   0.651  11.673 -0.3492 -0.1949 -0.1364
 3883W        W 4747  17.425   1.570  14.812  0.3220  0.0743  0.0247
 3884W        W 4748  17.120   2.164  12.805 -0.0311  0.1548 -0.0675
 3885W        W 4749  18.914   2.763  14.963 -0.1834 -0.1369  0.0341
 3886W        W 4750  17.882   1.719   9.544 -0.1905  0.2349 -0.1004
 3887W        W 4751  15.839   0.982  11.289 -0.0933 -0.1873 -0.1472
 3888W        W 4752  16.764   1.665  11.906  0.0083 -0.2982 -0.0001
 3889W        W 4753  14.838   0.763  14.676  0.1424 -0.0074  0.2686
 3890W        W 4754  15.009   3.580  14.247 -0.0396 -0.0228 -0.0007
 3891W        W 4755  13.190   4.657  11.759 -0.2114 -0.0073  0.2281
 3892W        W 4756  14.763  28.817  14.042 -0.2248  0.2294  0.3886
 3893W        W 4757  14.517   3.347  10.042  0.0903  0.0511 -0.0646
 3894W        W 4758  17.929   1.557  13.327  0.0055 -0.1338  0.0235
 3895W        W 4759  15.263  28.182  11.317 -0.2095 -0.2067 -0.1469
 3896W        W 4760  15.781  28.361  11.754  0.1289  0.0338 -0.0785
 3897W        W 4761  15.290   1.952  13.176 -0.0309 -0.0855  0.1190
 3898W        W 4762  13.953   3.240  14.385  0.1376  0.2471 -0.0188
 3899W        W 4763  19.377  28.967  10.913 -0.0054  0.4492 -0.0428
 3900W        W 4764  16.239  27.648  11.241  0.0206 -0.0328 -0.1671
 3901W        W 4765  16.500   4.308  13.083  0.1558 -0.0364 -0.3079
 3902W        W 4766  17.535   2.466  12.572  0.1597  0.0374  0.0965
 3903W        W 4767  16.007   2.838  12.886  0.0262 -0.2451  0.2250
 3904W        W 4768  16.995   3.022   9.276 -0.0224 -0.2200  0.3112
 3905W        W 4769  17.100   2.091  14.938 -0.0374  0.1717  0.0491
 3906W        W 4770  15.511   0.186  16.373 -0.2277 -0.1146 -0.3180
 3907W        W 4771  17.217  26.663  14.083  0.1850  0.0650  0.0465
 3908W        W 4772  18.870  27.193   9.920  0.3461  0.1853  0.1299
 3909W        W 4773  18.379   0.909  12.752 -0.0688  0.1185  0.1075
 3910W        W 4774  17.024   0.556  12.899 -0.0725 -0.1784  0.1929
 3911W        W 4775  16.901   0.589  10.768 -0.2634 -0.3795  0.1434
 3912W        W 4776  17.668   0.999  12.454 -0.1924 -0.4051 -0.0785
 3913W        W 4777  14.399   0.950  10.516  0.3068  0.2674 -0.0954
 3914W        W 4778  19.447   2.365  10.279  0.0150 -0.0554 -0.0810
 3915W        W 4779  17.181   1.120   9.500  0.2868 -0.0026  0.0579
 3916W        W 4780  15.544   0.501  13.404  0.1495  0.1137  0.2406
 3917W        W 4781  17.648   0.711  11.993  0.0347 -0.1190 -0.0843
 3918W        W 4782  17.084   0.737  11.311  0.1295 -0.2622  0.3355
 3919W        W 4783  17.998   2.279  12.825  0.0033 -0.1153 -0.0249
 3920W        W 4784  15.518   2.342  12.975 -0.2921 -0.3122 -0.0772
 3921W        W 4785  18.587   5.720   9.861  0.0177 -0.0517 -0.0941
 3922W        W 4786  13.053   2.095  10.886  0.0047  0.0116 -0.0433
 3923W        W 4787  14.788   2.897  16.465 -0.0501  0.1182  0.2654
 3924W        W 4788  16.167  28.640  11.669  0.1792  0.1570 -0.0058
 3925W        W 4789  17.989   2.423  13.321 -0.1614 -0.1809  0.0922
 3926W        W 4790  17.280  28.129  14.642 -0.0087  0.3458 -0.0903
 3927W        W 4791  15.812   3.986  14.457 -0.1804 -0.0996 -0.1091
 3928W        W 4792  20.306   4.210  11.012 -0.2413  0.0593  0.0153
 3929W        W 4793  15.394   3.290   9.783  0.3081 -0.2161 -0.3121
 3930W        W 4794  17.250   3.732  10.902 -0.0989 -0.0771  0.1993
 3931W        W 4795  17.953  28.393  11.968  0.0292 -0.1674  0.1311
 3932W        W 4796  12.694   2.053  15.738 -0.1787 -0.3817  0.0521
 3933W        W 4797  18.904   0.010  12.718 -0.1501  0.0227 -0.0469
 3934W        W 4798  16.804   1.760  14.152  0.1506  0.0705  0.0962
 3935W        W 4799  16.550   4.790  12.847  0.0712  0.2556 -0.3119
 3936W        W 4800  18.214   0.198  10.440  0.1014  0.3445 -0.2188
 3937W        W 4801  16.952   2.537   9.304  0.0220  0.2648 -0.1678
 3938W        W 4802  15.015   2.699  12.489  0.1005  0.0260 -0.1845
 3939W        W 4803  15.491   2.975  11.586 -0.0096 -0.0327 -0.4408
 3940W        W 4804  18.227  29.025  12.492  0.3211 -0.0890 -0.0854
 3941W        W 4805  17.992   4.037  13.964  0.1400  0.1069 -0.0179
 3942W        W 4806  17.161   5.043  12.114 -0.2296 -0.2760  0.0291
 3943W        W 4807  16.369  29.073  14.468  0.0395 -0.3517  0.1095
 3944W        W 4808  16.241   1.184  15.250 -0.3292  0.0709 -0.0284
 3945W        W 4809  17.250   4.470   9.139  0.0140 -0.2536  0.0998
 3946W        W 4810  16.641   3.214  11.848  0.0219  0.0677  0.1315
 3947W        W 4811  14.166  28.768  10.776  0.0770  0.0871 -0.0587
 3948W        W 4812  16.968   2.072  12.321  0.3774  0.1122 -0.2444
 3949W        W 4813  18.360   2.589  12.601  0.1337  0.1026  0.2616
 3950W        W 4814  18.170  28.950  15.524  0.1816 -0.2929  0.1960
 3951W        W 4815  14.403   3.379  11.129  0.1691 -0.0759 -0.0875
 3952W        W 4816  19.372   5.024  12.023 -0.1881 -0.1246 -0.1681
 3953W        W 4817  16.456   3.027  10.528 -0.3491 -0.0046 -0.1636
 3954W        W 4818  14.050   2.527  12.616  0.1423 -0.2011 -0.2591
 3955W        W 4819  13.594   2.130  13.565 -0.0043  0.5361  0.2073
 3956W        W 4820  16.881   0.317  10.187 -0.0481 -0.1441 -0.0532
 3957W        W 4821  18.173   1.629  12.041  0.1135  0.3090  0.0846
 3958W        W 4822  15.899   5.036  11.326  0.3001  0.0165  0.1869
 3959W        W 4823  17.502   4.034  11.313 -0.2054 -0.1660  0.1948
 3960W        W 4824  16.993   1.334  14.330  0.0161  0.2084  0.1964
 3961W        W 4825  20.289   3.446  11.649 -0.1851  0.3283  0.0801
 3962W        W 4826  14.941   1.162  13.145  0.1913  0.1985 -0.2638
 3963W        W 4827  15.588   1.432   9.639 -0.0707 -0.4202 -0.0656
 3964W        W 4828  15.873   4.116  12.495  0.2816  0.0727  0.1473
 3965W        W 4829  20.567   4.363  14.348 -0.1452 -0.0173  0.1539
 3966W        W 4830  17.206   2.020  11.807  0.1348 -0.2069  0.2244
 3967W        W 4831  14.375   2.829  10.144 -0.1483  0.1214 -0.0120
 3968W        W 4832  17.315   2.530  11.523 -0.0107 -0.1901 -0.0445
 3969W        W 4833  16.083   0.473  12.712 -0.0165 -0.2307  0.0668
 3970W        W 4834  15.684  28.208  14.880  0.0598 -0.1580 -0.0212
 3971W        W 4835  14.955   4.059  11.130 -0.0608 -0.1596 -0.0693
 3972W        W 4836  16.074   2.334  13.660 -0.0738 -0.1414 -0.1119
 3973W        W 4837  16.491   1.307  14.278  0.4856  0.1548 -0.4060
 3974W        W 4838  14.353   3.071  11.492 -0.0679  0.1137  0.0961
 3975W        W 4839  17.346   3.928  11.826  0.1443 -0.0009 -0.1973
 3976W        W 4840  19.289  28.496  14.362 -0.3888  0.1437 -0.0533
 3977W        W 4841  18.652   1.382  12.521  0.3643  0.1155 -0.1239
 3978W        W 4842  14.493   4.660  12.283  0.0258 -0.1407  0.0577
 3979W        W 4843  15.933   2.069   9.150  0.1632  0.1219  0.1058
 3980W        W 4844  16.839   2.399  11.422 -0.0854  0.1046 -0.1309
 3981W        W 4845  15.154   1.352  13.568  0.1262 -0.2190 -0.0998
 3982W        W 4846  19.138  27.673  12.589  0.0760  0.1301 -0.2546
 3983W        W 4847  15.805   3.280  12.934 -0.2414 -0.0119 -0.0517
 3984W        W 4848  19.309   1.177  16.494 -0.1438  0.0620 -0.1999
 3985W        W 4849  17.189   0.107  10.659  0.0709 -0.2410 -0.2422
 3986W        W 4850  15.968   1.408  14.476  0.0912  0.0401  0.1876
 3987W        W 4851  16.847   5.651  13.267 -0.4466  0.1046  0.2690
 3988W        W 4852  19.314   1.657  16.487 -0.1225 -0.1622  0.2822
 3989W        W 4853  15.667   1.202  12.739  0.1264  0.0231  0.4458
 3990W        W 4854  15.320   1.804  12.204 -0.0317 -0.0920  0.3941
 3991W        W 4855  14.599   1.907   9.116 -0.1292 -0.0679  0.0811
 3992W        W 4856  14.881   2.278  12.129 -0.0846  0.1677  0.0242
 3993W        W 4857  15.761   0.788  13.034  0.0495  0.2395  0.2905
 3994W        W 4858  17.229  27.779   8.352 -0.2433 -0.2261 -0.0148
 3995W        W 4859  15.291   1.674  12.697  0.2114  0.1922  0.0609
 3996W        W 4860  14.151   2.031  13.582 -0.1824  0.2173 -0.3559
 3997W        W 4861  15.534   3.641  12.719 -0.1155  0.2982  0.3102
 3998W        W 4862  18.269   0.153  13.352  0.0184  0.1036  0.0657
 3999W        W 4863  16.214   2.498  11.783 -0.1694 -0.0885  0.0553
 4000W        W 4864  17.832   3.620  16.043  0.1014 -0.0038 -0.2711
 4001W        W 4865  17.678  27.422  10.433 -0.1183  0.0656 -0.0160
 4002W        W 4866  17.078  28.403   9.200  0.0856  0.1367  0.0459
 4003W        W 4867  15.266   1.166  11.317 -0.2153  0.0705 -0.1882
 4004W        W 4868  18.353   0.618  10.049 -0.2047 -0.2071  0.0150
 4005W        W 4869  17.514   1.258  13.408 -0.2109 -0.1700 -0.0727
 4006W        W 4870  14.973   2.066  14.582 -0.1660  0.0958  0.4474
 4007W        W 4871  14.866   4.244   9.775 -0.0303  0.2790  0.1235
 4008W        W 4872  15.510  28.801  11.298  0.1438 -0.0045 -0.0821
 4009W        W 4873  17.683  28.760  10.178 -0.0318  0.2078 -0.0528
 4010W        W 4874  20.552  28.611  15.039  0.0552 -0.0931 -0.0288
 4011W        W 4875  18.622  28.610  15.032 -0.2221  0.2937  0.3787
 4012W        W 4876  14.805   4.163  12.337  0.1170  0.1642 -0.1925
 4013W        W 4877  17.847  27.871  10.590  0.1969 -0.0589  0.3234
 4014W        W 4878  12.797   0.368  15.859  0.0318  0.0274  0.2786
 4015W        W 4879  18.450   4.124  13.669 -0.4046  0.3190 -0.0644
 4016W        W 4880  18.706   5.746  13.419  0.0239 -0.0286 -0.1230
 4017W        W 4881  15.040   1.743  10.369  0.2145  0.0287 -0.1671
 4018W        W 4882  16.067   6.336  16.903 -0.3243  0.0701  0.4479
 4019W        W 4883  17.664   0.422  11.541  0.0060 -0.0631  0.2138
 4020W        W 4884  19.102  28.719  11.968 -0.2270  0.1560 -0.1088
 4021W        W 4885  17.838   3.793  11.590  0.2569  0.0080 -0.3666
 4022W        W 4886  14.826   2.546  10.043  0.0076  0.3104 -0.1073
 4023W        W 4887  18.074  26.615  11.388 -0.2197 -0.3341 -0.3573
 4024W        W 4888  15.872   3.623  12.374  0.1167 -0.0797  0.0573
 4025W        W 4889  15.609   0.159  12.126  0.2214  0.2000  0.0078
 4026W        W 4890  15.301   1.621  13.926  0.0471 -0.1232  0.1368
 4027W        W 4891  14.363   1.930  12.582 -0.1133  0.0348  0.0244
 4028W        W 4892  15.917   4.294  15.923  0.2637  0.4231 -0.2257
 4029W        W 4893  16.242   1.043  10.961 -0.0716 -0.1803  0.1118
 4030W        W 4894  16.623   2.399  10.735 -0.2641  0.1655  0.3027
 4031W        W 4895  16.583   3.429  13.714  0.0139  0.0950  0.0984
 4032W        W 4896  19.466  27.681   8.106 -0.2572 -0.1475 -0.1402
 4033W        W 4897  14.498   5.824  13.254 -0.0322  0.1032  0.0695
 4034W        W 4898  17.245   1.683  12.185 -0.1997  0.0450 -0.1375
 4035W        W 4899  15.892   1.261  13.339  0.1026  0.0117  0.1514
 4036W        W 4900  14.992   3.570  12.611 -0.4979 -0.0112 -0.2227
 4037W        W 4901  15.553   1.627  13.500  0.1567  0.0357  0.0776
 4038W        W 4902  15.466   3.955  13.539  0.0397  0.2412 -0.0330
 4039W        W 4903  17.277  28.977  12.408  0.2170  0.0510 -0.2627
 4040W        W 4904  14.577   1.218  14.238  0.1170 -0.0524 -0.0179
 4041W        W 4905  14.891   1.368  12.135  0.0410  0.2464  0.0478
 4042W        W 4906  15.124   0.125  11.986  0.1301 -0.0560 -0.5092
 4043W        W 4907  15.423  28.832  11.918  0.0662  0.1515 -0.0074
 4044W        W 4908  15.947   1.237   7.973  0.1332 -0.1588 -0.2595
 4045W        W 4909  18.414   2.344  13.573 -0.3314 -0.2356  0.3542
 4046W        W 4910  16.233   4.422  16.654  0.3744  0.0108 -0.0735
 4047W        W 4911  18.254   2.698  14.362  0.1444  0.3109 -0.0458
 4048W        W 4912  18.367   1.831  12.457 -0.3283  0.1328 -0.0994
 4049W        W 4913  17.940   4.846  10.431  0.2271  0.1307 -0.2013
 4050W        W 4914  18.303   3.597  11.351 -0.1135  0.0745  0.1830
 4051W        W 4915  16.920   0.988  11.786  0.1958  0.1529 -0.1085
 4052W        W 4916  17.624  26.958  10.167  0.3280 -0.2595  0.0445
 4053W        W 4917  14.431   0.576  12.323 -0.4456  0.0625 -0.1507
 4054W        W 4918  13.130   3.156  12.134  0.0435 -0.1009 -0.0298
 4055W        W 4919  16.538  28.855   9.344 -0.3300  0.0765  0.2500
 4056W        W 4920  14.863   4.661  11.055 -0.5077  0.0396 -0.0445
 4057W        W 4921  16.891   3.040  12.920  0.0497  0.1445 -0.0392
 4058W        W 4922  14.769   2.720  14.084  0.0663 -0.0989  0.3256
 4059W        W 4923  17.509   3.125   8.362  0.2709  0.1107 -0.0012
 4060W        W 4924  14.063   2.082  11.119 -0.0812  0.0136 -0.1477
 4061W        W 4925  15.829   0.008  14.443  0.2592  0.2312 -0.0270
 4062W        W 4926  16.816   1.068  10.930 -0.2405  0.0911 -0.1292
 4063W        W 4927  17.075  28.318  12.500  0.1306 -0.0278  0.0943
 4064W        W 4928  17.465  28.584   8.873  0.0240  0.2049 -0.1007
 4065W        W 4929  17.412   2.929  12.817  0.0690 -0.2197 -0.1567
 4066W        W 4930  15.285   1.684  15.273  0.0358  0.0988  0.0047
 4067W        W 4931  15.727   4.040  11.995 -0.1085  0.0950 -0.1445
 4068W        W 4932  15.454   0.541  10.530 -0.3047  0.0261 -0.1739
 4069W        W 4933  16.036   4.039  11.620 -0.2864 -0.1039 -0.1986
 4070W        W 4934  17.772   1.840  14.516 -0.1385 -0.0323 -0.0620
 4071W        W 4935  16.264   0.715  15.089  0.0482  0.3386 -0.2934
 4072W        W 4936  14.499   0.330  11.391  0.0582 -0.0518  0.1462
 4073W        W 4937  12.954   3.548  10.446 -0.2931  0.1974 -0.1750
 4074W        W 4938  17.587   1.167  15.756 -0.0363 -0.0436  0.2715
 4075W        W 4939  13.555   3.628  11.776  0.1850 -0.0102 -0.1173
 4076W        W 4940  17.201   1.080  12.619  0.0524  0.1325 -0.0599
 4077W        W 4941  16.575   1.788  12.500 -0.1967  0.1240  0.3099
 4078W        W 4942  17.869   1.435  13.870 -0.1050  0.1427 -0.0417
 4079W        W 4943  14.401   3.021  13.332  0.0959 -0.0998  0.1044
 4080W        W 4944  17.561   3.400  12.746 -0.3770  0.1778 -0.0261
 4081W        W 4945  16.781   1.548  10.378 -0.1930  0.0490 -0.1539
 4082W        W 4946  21.416  28.615  11.301 -0.1293  0.0296 -0.0898
 4083W        W 4947  17.705   2.380   9.771 -0.0557  0.1101  0.0758
 4084W        W 4948  14.856   1.945  12.848  0.2025 -0.3289 -0.1420
 4085W        W 4949  15.455   0.226  11.107  0.0387 -0.3851 -0.1087
 4086W        W 4950  17.110   2.425  13.589  0.0563  0.2410 -0.1289
 4087W        W 4951  17.736   4.268  11.741 -0.0542 -0.2099  0.1294
 4088W        W 4952  16.887   1.249  12.260 -0.1083  0.0719  0.0633
 4089W        W 4953  14.802   1.778  12.381 -0.1932  0.2418 -0.0823
 4090W        W 4954  17.344   5.594  12.176  0.0149  0.2721  0.6653
 4091W        W 4955  17.738   0.086  14.814 -0.0436 -0.0363 -0.0990
 4092W        W 4956  13.882   0.376  11.090 -0.1362 -0.0184  0.0008
 4093W        W 4957  14.519   1.407  12.894 -0.1755  0.0758 -0.0880
 4094W        W 4958  14.791   2.811  11.559 -0.0458 -0.0772 -0.3263
 4095W        W 4959  13.984   0.412   9.232 -0.1799  0.0409  0.2057
 4096W        W 4960  16.713   3.415  13.151 -0.0871 -0.0596  0.3000
 4097W        W 4961  14.425   5.591  15.829  0.0477  0.1808  0.2758
 4098W        W 4962  20.007   1.412  15.414  0.1129 -0.1760 -0.1027
 4099W        W 4963  18.969   4.969  12.855 -0.0082  0.0748  0.0632
 4100W        W 4964  15.994   2.224  14.201 -0.2229  0.0281  0.1403
 4101W        W 4965  15.700   2.512  11.790  0.1464 -0.2629 -0.2125
 4102W        W 4966  17.443   0.541  14.940  0.0255  0.1971 -0.1047
 4103W        W 4967  16.716   1.697  13.074  0.1600  0.0803 -0.2067
 4104W        W 4968  14.375   2.835  12.882 -0.1490  0.0483 -0.0503
 4105W        W 4969  18.017   1.016  10.109 -0.2625  0.0774 -0.1279
 4106W        W 4970  18.532   5.166  12.605  0.0900 -0.0097 -0.0504
 4107W        W 4971  14.574   1.067  12.422 -0.2503 -0.1324  0.0170
 4108W        W 4972  18.063   2.629  15.087  0.2060 -0.0238 -0.2525
 4109W        W 4973  20.036   4.388   9.875  0.0538 -0.0565  0.1030
 4110W        W 4974  17.698   0.576  17.240  0.1965  0.2501 -0.1749
 4111W        W 4975  16.665   2.554  12.290 -0.0909 -0.1207  0.0354
 4112W        W 4976  19.706   4.129   7.977  0.0822 -0.1444  0.0021
 4113W        W 4977  15.024   3.728  16.418 -0.3554  0.1690 -0.0215
 4114W        W 4978  15.637   3.397  15.197 -0.4307 -0.1869  0.0611
 4115W        W 4979  17.719   0.952  14.371 -0.0996  0.0014  0.3404
 4116W        W 4980  15.004   3.039  17.671  0.2081  0.0752  0.3933
 4117W        W 4981  16.494   5.306  14.421 -0.1973  0.2283  0.1039
 4118W        W 4982  15.702   0.532  18.694  0.0364  0.0355 -0.0329
 4119W        W 4983  16.132   0.283  14.810 -0.2957  0.2796  0.0367
 4120W        W 4984  16.933   3.396  16.200  0.0503  0.0573  0.1245
 4121W        W 4985  17.345   2.263  19.216 -0.1862 -0.2313 -0.0365
 4122W        W 4986  16.011  28.748  19.726 -0.1633 -0.0989 -0.2917
 4123W        W 4987  15.653  27.671  17.362 -0.0245  0.0888  0.1726
 4124W        W 4988  16.807   2.568  14.680  0.0830  0.1393 -0.1081
 4125W        W 4989  13.647   3.222  15.347  0.2801  0.0595 -0.0185
 4126W        W 4990  20.484   2.007  21.180  0.1750 -0.1811  0.1707
 4127W        W 4991  14.427   1.900  18.317  0.2373  0.1331  0.1296
 4128W        W 4992  15.049   1.136  17.409  0.1975 -0.2621  0.2437
 4129W        W 4993  18.503   2.197  16.097  0.3297  0.0804 -0.0336
 4130W        W 4994  15.887   1.972  15.177 -0.0252 -0.1332 -0.0270
 4131W        W 4995  14.283   3.827  17.700  0.4311 -0.3231  0.1411
 4132W        W 4996  16.816   3.480  15.165  0.4433 -0.1856 -0.1680
 4133W        W 4997  18.483   1.948  19.238 -0.2121  0.2656 -0.2486
 4134W        W 4998  17.199   0.176  14.691 -0.0438 -0.0199 -0.1343
 4135W        W 4999  16.365   3.820  15.768 -0.0993  0.0121 -0.2535
 4136W        W 5000  15.296   2.582  17.952  0.2824  0.1509 -0.0333
 4137W        W 5001  14.035   4.707  16.223  0.0704 -0.3978 -0.3394
 4138W        W 5002  16.928   1.703  16.875  0.1513  0.1703  0.0487
 4139W        W 5003  18.521   0.760  19.293  0.0541 -0.0969 -0.1029
 4140W        W 5004  17.485   2.254  17.458 -0.0780 -0.1848 -0.2300
 4141W        W 5005  15.001   2.119  15.211  0.0617 -0.1295  0.1187
 4142W        W 5006  14.638   0.560  13.544 -0.0629 -0.0095 -0.1403
 4143W        W 5007  17.315  26.943  13.630  0.1150  0.1134  0.1935
 4144W        W 5008  20.524   2.012  16.147  0.1130  0.1137  0.0969
 4145W        W 5009  16.422   4.203  18.940 -0.1590  0.1309  0.1152
 4146W        W 5010  15.788   1.503  17.900 -0.0785  0.0727 -0.3025
 4147W        W 5011  14.472  28.462  20.016  0.1025 -0.1531 -0.1856
 4148W        W 5012  16.248   4.220  17.085 -0.0397 -0.1361 -0.1660
 4149W        W 5013  11.681  28.858  14.835  0.0095 -0.0765 -0.0628
 4150W        W 5014  16.046   3.127  14.407 -0.4118  0.2852  0.0055
 4151W        W 5015  17.786   1.908  17.283 -0.1849 -0.0409 -0.0595
 4152W        W 5016  16.871   1.768  15.682  0.2861 -0.0524  0.0767
 4153W        W 5017  18.509   0.404  15.462  0.2978  0.4033  0.0056
 4154W        W 5018  21.677   0.305  18.843 -0.1186  0.4171  0.1984
 4155W        W 5019  13.571   3.558  20.388 -0.0445 -0.0062 -0.0253
 4156W        W 5020  17.291   2.898  16.295  0.2044 -0.2770  0.1153
 4157W        W 5021  14.369   2.296  12.155  0.0602  0.2121 -0.1488
 4158W        W 5022  15.682   5.656  15.517 -0.1187 -0.0080  0.1651
 4159W        W 5023  15.133  28.264  16.212 -0.0087  0.0096  0.1075
 4160W        W 5024  18.846   2.259  19.121  0.0669  0.0270 -0.1848
 4161W        W 5025  18.931   2.752  16.154 -0.0067 -0.1762 -0.0640
 4162W        W 5026  17.935   0.527  14.140  0.0054 -0.0628  0.1426
 4163W        W 5027  17.728   1.964  16.743  0.5600 -0.1324 -0.2068
 4164W        W 5028  16.299   0.709  15.612  0.0434 -0.1152  0.1725
 4165W        W 5029  13.711   2.586  17.002 -0.0777 -0.2861  0.0784
 4166W        W 5030  16.245   3.614  15.215  0.0194  0.0115  0.1892
 4167W        W 5031  16.967   2.626  16.758  0.0898 -0.0816 -0.4314
 4168W        W 5032  17.533   6.659  13.142 -0.0332  0.1683 -0.0303
 4169W        W 5033  17.042  28.064  15.207  0.2399  0.1167  0.1771
 4170W        W 5034  17.137   0.856  16.389  0.4021  0.1383 -0.1031
 4171W        W 5035  14.020   2.543  15.147 -0.1033  0.0605  0.2863
 4172W        W 5036  18.275   0.698  14.466 -0.2215  0.0109 -0.0072
 4173W        W 5037  18.517   0.789  15.757 -0.2812  0.0712  0.0156
 4174W        W 5038  16.005   4.720  15.458 -0.2540  0.0228  0.0664
 4175W        W 5039  15.880   1.875  14.668  0.1644  0.2988  0.1118
 4176W        W 5040  14.950   3.188  12.308 -0.0030 -0.0281  0.1400
 4177W        W 5041  14.863   1.029  17.899  0.1717  0.0028 -0.1852
 4178W        W 5042  19.057   0.871  17.742  0.1215  0.0723  0.1608
 4179W        W 5043  16.421   2.482  14.336 -0.2339  0.1191  0.1352
 4180W        W 5044  13.740   2.390  15.992 -0.0069  0.1783 -0.1120
 4181W        W 5045  15.806   1.905  15.683  0.1501  0.0218  0.1401
 4182W        W 5046  16.397   2.887  14.663 -0.2425 -0.1235  0.0999
 4183W        W 5047  18.496   3.627  13.430  0.1310 -0.1806 -0.1709
 4184W        W 5048  16.716   2.027  14.535  0.2140  0.2010 -0.3628
 4185W        W 5049  19.396   1.454  17.354 -0.0644  0.2697 -0.0285
 4186W        W 5050  17.467   2.743  17.605 -0.2754  0.2580  0.0366
 4187W        W 5051  18.124   2.255  14.108 -0.1070 -0.0124  0.0614
 4188W        W 5052  18.202   1.834  14.827 -0.0349 -0.0592  0.4392
 4189W        W 5053  13.740   2.792  15.492 -0.1197 -0.0771  0.1456
 4190W        W 5054  14.331  28.141  15.968 -0.2087  0.2135  0.1182
 4191W        W 5055  17.307  28.703  14.637 -0.1428 -0.0435  0.1969
 4192W        W 5056  17.118   2.007  16.539 -0.1470  0.0227  0.0605
 4193W        W 5057  16.877   1.885  17.382  0.2115 -0.1447 -0.0914
 4194W        W 5058  14.957   0.386  14.317 -0.0173 -0.2565  0.0112
 4195W        W 5059  16.559  27.313  14.674  0.0428 -0.0919  0.1119
 4196W        W 5060  17.150   4.351  20.026 -0.1367  0.1161  0.1810
 4197W        W 5061  16.883   2.090  19.220  0.1232  0.0487 -0.0222
 4198W        W 5062  18.239  28.393  13.760  0.1098 -0.1664 -0.2446
 4199W        W 5063  21.971   4.677  16.668 -0.1274  0.3844  0.0314
 4200W        W 5064  15.917   1.256  15.659  0.0667 -0.1829  0.1341
 4201W        W 5065  18.408   4.139  17.788  0.1443  0.0948  0.2569
 4202W        W 5066  15.502   2.720  16.508 -0.2937  0.0265  0.1876
 4203W        W 5067  19.063   3.251  16.119 -0.0330 -0.2864  0.3371
 4204W        W 5068  20.852   2.495  17.655 -0.0400 -0.1159  0.1262
 4205W        W 5069  13.868   4.258  16.197  0.4216 -0.2420  0.0257
 4206W        W 5070  15.529   1.410  14.803  0.1579 -0.0070 -0.0464
 4207W        W 5071  16.254   1.771  19.815 -0.0519 -0.0889  0.0302
 4208W        W 5072  17.270   1.460  11.690 -0.2102 -0.0105 -0.0840
 4209W        W 5073  17.913   1.415  17.558  0.4736 -0.1252 -0.1063
 4210W        W 5074  16.530   3.087  16.428  0.0964  0.1432  0.0008
 4211W        W 5075  15.732   0.710  16.791  0.0765 -0.1038 -0.0834
 4212W        W 5076  20.114   3.269  18.313  0.1445  0.2961 -0.0462
 4213W        W 5077  18.976   1.343  14.794 -0.1408 -0.0092  0.1345
 4214W        W 5078  15.740   4.700  14.975  0.3670  0.1306 -0.0468
 4215W        W 5079  17.451   3.293  15.960 -0.1504  0.0906 -0.0022
 4216W        W 5080  16.575   2.445  17.865  0.2498 -0.1171 -0.1399
 4217W        W 5081  16.134  28.694  14.231  0.1211  0.1106  0.3001
 4218W        W 5082  14.409   1.105  15.818 -0.3489 -0.3659 -0.0912
 4219W        W 5083  17.734   1.689  15.451  0.0826 -0.1515 -0.1699
 4220W        W 5084  13.409   1.724  18.107 -0.0166 -0.1888  0.1080
 4221W        W 5085  17.966   0.360  18.282 -0.1864 -0.1258  0.2774
 4222W        W 5086  15.897   1.914  16.159  0.0650  0.1399 -0.0476
 4223W        W 5087  17.062   2.306  14.298 -0.0910  0.2378  0.2326
 4224W        W 5088  15.009   5.307  14.894 -0.2692 -0.0586  0.2059
 4225W        W 5089  18.626   0.478  17.082 -0.2112 -0.0059 -0.1877
 4226W        W 5090  15.892   4.080  16.731 -0.1058  0.1167  0.1914
 4227W        W 5091  17.619   3.002  14.902  0.3188  0.1622  0.0382
 4228W        W 5092  14.673   3.384  16.244 -0.1243  0.0706  0.2467
 4229W        W 5093  17.691   0.057  18.633  0.0436  0.3473  0.0971
 4230W        W 5094  16.561   4.016  16.632  0.3148 -0.0380 -0.2102
 4231W        W 5095  15.612   0.950  15.898  0.1438  0.2087 -0.1573
 4232W        W 5096  19.477   2.314  15.540  0.0787 -0.2300  0.4054
 4233W        W 5097  18.857   2.699  12.864  0.0806  0.3540 -0.1337
 4234W        W 5098  18.355   2.789  15.997  0.2795  0.1614 -0.1125
 4235W        W 5099  18.072   4.304  16.586 -0.3834 -0.0815  0.1192
 4236W        W 5100  16.948   3.328  14.134 -0.3718 -0.1421 -0.1077
 4237W        W 5101  14.427   2.882  15.043  0.0040 -0.2797 -0.1849
 4238W        W 5102  16.299   1.756  14.283 -0.2096 -0.1602  0.0695
 4239W        W 5103  16.415  28.610  14.598  0.0625  0.2686 -0.0271
 4240W        W 5104  19.989   0.580  17.705  0.0593  0.0162 -0.0155
 4241W        W 5105  18.739   4.279  16.915  0.1737  0.2541 -0.2847
 4242W        W 5106  14.236   4.083  14.158 -0.1644 -0.1074  0.0270
 4243W        W 5107  17.039   2.470  17.326  0.4374  0.1444  0.0482
 4244W        W 5108  16.864   2.945  17.165 -0.3786 -0.1349  0.0891
 4245W        W 5109  16.698   3.052  19.351  0.1217 -0.1412  0.1417
 4246W        W 5110  15.961   2.149  17.301  0.1288  0.1421 -0.0003
 4247W        W 5111  19.153   3.175  16.847 -0.0054 -0.2220 -0.0577
 4248W        W 5112  15.817   2.417  14.907  0.1560  0.2921  0.1977
 4249W        W 5113  18.355   2.196  17.918 -0.1348  0.2319 -0.1910
 4250W        W 5114  17.693   3.154  17.307  0.1545  0.2868  0.2518
 4251W        W 5115  16.792   5.235  15.864 -0.1089 -0.1725  0.0645
 4252W        W 5116  17.274   2.885  15.264 -0.0451  0.0041 -0.0387
 4253W        W 5117  16.624  28.820  13.550 -0.3814 -0.1036 -0.4011
 4254W        W 5118  15.239  28.608  14.214  0.2362  0.0981  0.0993
 4255W        W 5119  15.503   2.336  12.187 -0.1117  0.3596 -0.2298
 4256W        W 5120  15.491   2.329  17.510 -0.1383 -0.0789  0.2721
 4257W        W 5121  16.002   5.316  15.291  0.1452 -0.1203  0.0445
 4258W        W 5122  17.238   3.793  14.839  0.0918  0.1517 -0.0709
 4259W        W 5123  17.003   1.095  17.546 -0.0618  0.0279  0.2531
 4260W        W 5124  17.617   2.542  15.367  0.0572 -0.2292  0.0433
 4261W        W 5125  16.367   3.035  18.575 -0.0850  0.1007 -0.2609
 4262W        W 5126  16.820   1.695  16.190  0.0729  0.0301  0.0377
 4263W        W 5127  14.324   4.532  18.242 -0.1175 -0.0271  0.1144
 4264W        W 5128  14.249   1.858  14.079 -0.1742 -0.0062 -0.1169
 4265W        W 5129  15.446   2.806  15.084  0.0801 -0.3003 -0.1690
 4266W        W 5130  16.687   0.235  15.973 -0.0113 -0.2051  0.2317
 4267W        W 5131  14.213   2.237  14.563 -0.1173 -0.0524 -0.2313
 4268W        W 5132  18.101  28.990  16.066 -0.0510 -0.1019 -0.1505
 4269W        W 5133  15.031   0.899  19.949 -0.1481 -0.0483  0.0569
 4270W        W 5134  16.922   2.544  15.240 -0.1394  0.0987 -0.0269
 4271W        W 5135  14.650  27.810  15.159  0.0507  0.0112 -0.0483
 4272W        W 5136  15.740   2.756  15.984 -0.1025  0.0811  0.4309
 4273W        W 5137  17.383   0.425  16.513 -0.0348  0.1994 -0.0300
 4274W        W 5138  16.207   3.171  16.016 -0.0461 -0.0560  0.1339
 4275W        W 5139  17.675   1.156  17.004 -0.1788 -0.1994 -0.1796
 4276W        W 5140  19.485   2.405  14.796 -0.0363 -0.0589  0.0922
 4277W        W 5141  20.341   0.227  17.193 -0.1050  0.1567  0.1768
 4278W        W 5142  15.036   1.381  18.991 -0.0317 -0.2301 -0.1990
 4279W        W 5143  14.287   0.482  15.386 -0.0251  0.0104  0.1288
 4280W        W 5144  16.637   2.455  15.724 -0.1385  0.1248  0.1252
 4281W        W 5145  14.824   4.215  16.625  0.0639  0.0563  0.1566
 4282W        W 5146  15.433   4.533  16.027 -0.0245  0.1844  0.0709
 4283W        W 5147  17.524   4.041  14.273 -0.0492 -0.3217  0.0735
 4284W        W 5148  16.484   2.058  13.806  0.2223 -0.4383  0.1640
 4285W        W 5149  16.312   2.642  16.170 -0.1118  0.0868  0.0329
 4286W        W 5150  15.767   1.703  12.935  0.2952 -0.1381  0.1162
 4287W        W 5151  16.284   2.202  14.712 -0.0587 -0.0711 -0.2752
 4288W        W 5152  18.045   0.975  16.246  0.2812  0.1717 -0.0909
 4289W        W 5153  14.858   3.742  16.991  0.3061 -0.1362  0.0367
 4290W        W 5154  16.767   4.051  17.064 -0.0354  0.2138 -0.1162
 4291W        W 5155  12.337   4.518  13.943  0.1356 -0.0060 -0.0768
 4292W        W 5156  13.050   0.160  15.010  0.3093  0.1032 -0.0251
 4293W        W 5157  15.468   2.825  13.185 -0.0937 -0.0096  0.0127
 4294W        W 5158  16.811   4.127  15.506  0.1977  0.2129  0.0511
 4295W        W 5159  18.510   0.638  14.016 -0.0896 -0.0298  0.1164
 4296W        W 5160  14.455   0.844  15.054  0.0405  0.1240 -0.2088
 4297W        W 5161  17.437  29.107  15.177  0.1971  0.1222  0.1916
 4298W        W 5162  18.338   3.437  16.707 -0.0256 -0.3304  0.0705
 4299W        W 5163  19.789   0.948  17.416 -0.0082 -0.0896  0.2359
 4300W        W 5164  14.207   0.743  13.789 -0.0673  0.0263  0.0992
 4301W        W 5165  15.367   1.790  16.127  0.1378  0.0147  0.1396
 4302W        W 5166  14.809   5.969  15.523  0.1546 -0.0587 -0.1735
 4303W        W 5167  15.052   4.106  16.073 -0.0569 -0.1022  0.0951
 4304W        W 5168  15.174   4.954  15.912  0.0455  0.0664  0.0203
 4305W        W 5169  17.954   2.746  17.405  0.0067  0.0077  0.1473
 4306W        W 5170  16.257   0.708  16.685 -0.1879  0.1761 -0.1857
 4307W        W 5171  17.782   0.932  17.679  0.0419  0.1184 -0.0165
 4308W        W 5172  15.463  27.104  14.975  0.1866 -0.2158  0.0200
 4309W        W 5173  17.456   0.100  16.056 -0.1655  0.0467 -0.2478
 4310W        W 5174  14.675  27.614  16.424  0.0130  0.3230  0.1334
 4311W        W 5175  16.146   1.624  15.526 -0.0390 -0.0001 -0.1479
 4312W        W 5176  21.602   0.770  18.938  0.0467 -0.0332 -0.3887
 4313W        W 5177  14.273   0.498  13.250  0.1555 -0.0763 -0.0234
 4314W        W 5178  15.775  28.546  16.366  0.1370 -0.0968  0.0402
 4315W        W 5179  16.619   2.581  13.807  0.1036 -0.4233 -0.0100
 4316W        W 5180  15.944   1.618  17.101 -0.1511  0.1764 -0.2368
 4317W        W 5181  18.394   0.005  17.341 -0.1110  0.0299 -0.2900
 4318W        W 5182  16.246  29.103  13.914  0.0837  0.1389  0.0250
 4319W        W 5183  14.516  27.803  15.638 -0.4137  0.0306  0.0495
 4320W        W 5184  17.277   2.073  17.051 -0.0301  0.1647 -0.1900
 4321W        W 5185  18.173   5.703  13.584  0.0940  0.1296 -0.2441
 4322W        W 5186  17.224   1.405  13.849  0.1070  0.0447  0.2549
 4323W        W 5187  12.939   4.628  17.033  0.2821  0.2399 -0.1698
 4324W        W 5188  13.513   2.197  16.684 -0.0184 -0.1470 -0.2258
 4325W        W 5189  15.781   1.770  14.136 -0.0991  0.0203 -0.1292
 4326W        W 5190  17.061   1.319  17.146 -0.2252 -0.2003  0.2507
 4327W        W 5191  17.141   3.798  16.817  0.2050 -0.2208 -0.0188
 4328W        W 5192  18.811   3.636  16.598  0.1309 -0.0918 -0.0135
 4329W        W 5193  16.707   2.964  15.419 -0.1236 -0.0166  0.1706
 4330W        W 5194  17.082   5.664  12.700  0.2235  0.2730 -0.1446
 4331W        W 5195  16.625   0.535  16.993 -0.1068  0.3590 -0.0548
 4332W        W 5196  13.872   1.813  18.297 -0.1493  0.1622  0.0151
 4333W        W 5197  20.394  28.352  16.461  0.1284  0.0262  0.1882
 4334W        W 5198  17.359   2.127  15.436 -0.0559 -0.0070  0.0603
 4335W        W 5199  13.600   3.396  18.004 -0.1778 -0.1115 -0.2554
 4336W        W 5200  13.857   2.283  12.144 -0.0116  0.1437 -0.0130
 4337W        W 5201  18.186   1.245  12.418  0.2736  0.2048  0.1220
 4338W        W 5202  16.152   1.616  19.298 -0.3482  0.2054  0.0805
 4339W        W 5203  18.123   2.264  17.423 -0.1244 -0.3834  0.0225
 4340W        W 5204  15.779   0.067  15.917  0.0935  0.1862 -0.2434
 4341W        W 5205  17.851   4.060  15.689  0.0656  0.3897 -0.1470
 4342W        W 5206  18.651   5.729  13.924 -0.0665  0.0924  0.1862
 4343W        W 5207  15.372   1.573  17.095  0.0254 -0.0943 -0.2143
 4344W        W 5208  14.514   1.852  14.544 -0.0383  0.1899  0.4583
 4345W        W 5209  15.837  28.985  13.097 -0.0739  0.0342 -0.1401
 4346W        W 5210  17.219   2.730  14.506 -0.0851 -0.0220 -0.2599
 4347W        W 5211  16.751   0.429  18.691 -0.0759  0.0115  0.1331
 4348W        W 5212  15.817   3.879  15.034  0.2202  0.0999 -0.1585
 4349W        W 5213  16.300   2.145  15.476 -0.2330  0.0489 -0.3100
 4350W        W 5214  15.980  27.813  15.756 -0.0468 -0.3152  0.2098
 4351W        W 5215  17.732   4.148  16.151 -0.0510 -0.1032  0.1023
 4352W        W 5216  16.909   4.859  14.880 -0.0826 -0.1732 -0.1394
 4353W        W 5217  17.441   1.721  13.548 -0.4261 -0.2156  0.0348
 4354W        W 5218  15.006   2.407  19.948 -0.0929 -0.2326  0.1769
 4355W        W 5219  15.758  28.354  16.891 -0.0771 -0.1564  0.2516
 4356W        W 5220  15.179  28.663  15.636  0.1030 -0.0890  0.0042
 4357W        W 5221  17.656   0.837  16.554 -0.0498  0.1120  0.3167
 4358W        W 5222  18.191   1.970  13.191 -0.0083 -0.1067 -0.1916
 4359W        W 5223  14.743   0.683  17.537  0.0355 -0.1711 -0.1178
 4360W        W 5224  15.912   3.861  17.205 -0.0452 -0.0463  0.1670
 4361W        W 5225  14.672   3.359  14.988  0.2276  0.1467  0.0839
 4362W        W 5226  14.624  28.471  13.668  0.0017  0.1635  0.1769
 4363W        W 5227  16.757   0.818  14.802 -0.0910 -0.0118  0.2035
 4364W        W 5228  15.515   3.763  17.826 -0.4000  0.1024 -0.0002
 4365W        W 5229  18.659   4.123  19.706 -0.1472 -0.0534  0.3661
 4366W        W 5230  15.701   4.333  15.352 -0.2781  0.1100 -0.0556
 4367W        W 5231  16.126   1.016  16.033 -0.1593 -0.2900 -0.0114
 4368W        W 5232  17.607   3.190  15.461  0.1690  0.0805 -0.1281
 4369W        W 5233  20.375   1.782  16.609  0.0617 -0.1535 -0.0751
 4370W        W 5234  16.574  27.129  16.859 -0.0204 -0.0525  0.2941
 4371W        W 5235  17.995   2.871  10.945  0.2404 -0.1036 -0.0127
 4372W        W 5236  16.206  28.694  12.642  0.3045  0.0992  0.1520
 4373W        W 5237  16.974   0.243  15.105 -0.2256  0.1471  0.0805
 4374W        W 5238  15.815   0.799  15.370 -0.3224  0.1791  0.0275
 4375W        W 5239  16.254   2.609  15.085 -0.0561 -0.0626 -0.0727
 4376W        W 5240  16.457   1.793  17.122  0.1625  0.0579 -0.0635
 4377W        W 5241  11.836   5.794  12.353  0.3547  0.2145 -0.2217
 4378W        W 5242  14.335   0.879  16.217 -0.2076  0.2151 -0.0642
 4379W        W 5243  15.480   4.118  16.309 -0.0486 -0.0092  0.5418
 4380W        W 5244  17.601   1.361  12.878 -0.2108  0.3287  0.2577
 4381W        W 5245  13.943   3.729  16.187 -0.2474 -0.0941 -0.0197
 4382W        W 5246  17.661   3.497  14.681  0.0555 -0.1557  0.0073
 4383W        W 5247  18.494   3.173  14.908 -0.0032 -0.0213 -0.2699
 4384W        W 5248  17.008   1.546  17.740 -0.1887 -0.2375  0.0818
 4385W        W 5249  16.503   1.566  16.611  0.3350 -0.3005 -0.0328
 4386W        W 5250  16.031   3.421  15.623 -0.0002  0.1170  0.1578
 4387W        W 5251  15.881   4.460  14.534  0.1077 -0.2275  0.2716
 4388W        W 5252  18.718  27.218  17.923  0.1859  0.0507 -0.1208
 4389W        W 5253  17.591  29.022  20.063  0.0421 -0.0436  0.2445
 4390W        W 5254  15.571   1.587  16.639  0.0608  0.1904  0.1232
 4391W        W 5255  17.235  28.783  15.549 -0.2614 -0.1861  0.0011
 4392W        W 5256  13.829   2.212  18.580 -0.1778 -0.2261 -0.1788
 4393W        W 5257  15.948  29.017  16.308 -0.1173  0.5205  0.3036
 4394W        W 5258  15.412   0.427  15.961  0.0172 -0.0576 -0.1127
 4395W        W 5259  17.643   1.991  14.985 -0.0261 -0.0778  0.0987
 4396W        W 5260  11.843   4.228  16.899  0.1473  0.2288  0.1333
 4397W        W 5261  17.003   2.818  14.079 -0.0035  0.2590 -0.1542
 4398W        W 5262  19.315  29.012  16.590  0.1172 -0.0806 -0.1677
 4399W        W 5263  18.132   2.772  13.836  0.2187  0.0567  0.1476
 4400W        W 5264  17.555  28.872  17.081 -0.3080  0.2168  0.2632
 4401W        W 5265  19.693  28.181  16.737  0.1898  0.1243  0.0195
 4402W        W 5266  15.449   4.729  15.522  0.3667 -0.0431 -0.2495
 4403W        W 5267  18.072  29.128  16.548 -0.2203  0.0210  0.1109
 4404W        W 5268  17.549   0.512  12.918  0.0565 -0.0484  0.1367
 4405W        W 5269  20.428   3.634  17.017 -0.1268  0.0998  0.3101
 4406W        W 5270  13.751   2.739  18.751 -0.1105 -0.0714  0.1493
 4407W        W 5271  14.032   4.279  14.981 -0.0064 -0.1373  0.0505
 4408W        W 5272  17.518   2.400  16.020  0.3143  0.1626 -0.0692
 4409W        W 5273  17.198   1.376  16.587  0.1275  0.1330  0.1660
 4410W        W 5274  19.351   2.963  16.399 -0.2147  0.0277 -0.1768
 4411W        W 5275  20.430   3.422  18.731 -0.0604 -0.3790 -0.1488
 4412W        W 5276  13.325   4.035  16.387 -0.1432 -0.0890  0.3147
 4413W        W 5277  14.634   5.116  15.712  0.0215 -0.1025  0.3396
 4414W        W 5278  12.007   1.136  19.608 -0.1413  0.0221  0.0176
 4415W        W 5279  14.925   3.618  15.806  0.2340 -0.0396  0.0188
 4416W        W 5280  15.732   3.401  18.050  0.0240  0.0981 -0.1583
 4417W        W 5281  15.772   2.078  13.324  0.2212  0.0470 -0.0734
 4418W        W 5282  17.458   1.265  15.268 -0.1399 -0.0489 -0.2006
 4419W        W 5283  16.870   3.546  14.657  0.1688  0.1805  0.0865
 4420W        W 5284  16.834  29.136  15.590 -0.2120  0.1411 -0.4737
 4421W        W 5285  18.187   1.951  15.780  0.0301  0.1154 -0.0388
 4422W        W 5286  15.484   3.583  13.970  0.0350 -0.0162 -0.1898
 4423W        W 5287  15.091   0.735  13.284 -0.0837 -0.3088 -0.0929
 4424W        W 5288  15.564   2.051  16.898  0.4005 -0.0197 -0.1900
 4425W        W 5289  17.526   2.806  15.790 -0.0490  0.4615 -0.2207
 4426W        W 5290  15.919   3.919  15.542 -0.2761  0.2408 -0.0263
 4427W        W 5291  15.105   2.075  17.680 -0.0574  0.2173 -0.0368
 4428W        W 5292  18.475   5.524  17.671 -0.0512  0.2682 -0.3802
 4429W        W 5293  15.975  28.412  15.269 -0.3394 -0.3161  0.3153
 4430W        W 5294  18.491   2.529  16.484  0.0787 -0.1475 -0.0705
 4431W        W 5295  17.481   1.106  19.866 -0.1942  0.2024 -0.1599
 4432W        W 5296  17.098   0.055  16.517 -0.1727  0.3014 -0.2890
 4433W        W 5297  15.104   2.426  16.671 -0.1177 -0.1338  0.1208
 4434W        W 5298  18.631   1.128  14.446  0.4390  0.1662  0.2860
 4435W        W 5299  16.068   1.223  16.503 -0.0015  0.0654  0.2841
 4436W        W 5300  17.266   3.808  16.122 -0.0966  0.1522 -0.2044
 4437W        W 5301  15.011   2.429  15.713  0.0437 -0.0161 -0.0923
 4438W        W 5302  15.331   5.805  17.492 -0.1418  0.2724  0.3566
 4439W        W 5303  16.006  28.096  14.115 -0.2202 -0.3812  0.0224
 4440W        W 5304  16.048   2.672  14.009 -0.0000 -0.0661 -0.0426
 4441W        W 5305  14.754   0.635  12.738 -0.3331 -0.1221  0.1361
 4442W        W 5306  15.139   0.878  15.763  0.1078  0.0889  0.1541
 4443W        W 5307  13.385   0.358  17.200  0.1791  0.1976  0.0332
 4444W        W 5308  18.129  28.539  12.533  0.2039  0.1627 -0.1115
 4445W        W 5309  17.898   4.542  17.034 -0.0931  0.0094  0.0683
 4446W        W 5310  15.176   3.381  16.823  0.2555 -0.0360  0.1009
 4447W        W 5311  20.113   2.294  16.476 -0.0835 -0.1730  0.2708
 4448W        W 5312  17.353   3.479  16.455 -0.2441  0.3227  0.0900
 4449W        W 5313  13.880   4.817  17.238  0.0105 -0.3919 -0.2958
 4450W        W 5314  14.822   4.090  15.504 -0.3363 -0.0379 -0.0896
 4451W        W 5315  17.154   2.030  15.945 -0.0205 -0.4033  0.0854
 4452W        W 5316  16.097   1.852  18.097 -0.1964 -0.2406 -0.0186
 4453W        W 5317  16.916   5.873  14.281 -0.0915  0.1053 -0.1092
 4454W        W 5318  16.390  28.312  18.269 -0.0206 -0.0239 -0.0765
 4455W        W 5319  14.089   0.042  16.183  0.0459 -0.2818  0.0747
 4456W        W 5320  17.438   2.485  14.892  0.0838  0.1225 -0.2409
 4457W        W 5321  15.651   0.028  14.988 -0.0573 -0.0440 -0.0735
 4458W        W 5322  14.482   2.268  16.861  0.0590 -0.4790 -0.0354
 4459W        W 5323  13.878   0.374  12.438 -0.0468 -0.1538 -0.0767
 4460W        W 5324  16.555   1.040  17.802 -0.0416 -0.0030  0.0334
 4461W        W 5325  15.929   3.241  17.647 -0.0598 -0.1706 -0.0312
 4462W        W 5326  15.752   0.540  14.952  0.1214  0.0069  0.1770
 4463W        W 5327  18.083   1.027  17.243 -0.3986  0.0477  0.0765
 4464W        W 5328  19.283   0.649  16.413 -0.0385  0.1048  0.1279
 4465W        W 5329  18.693   2.310  17.332  0.2700 -0.0273 -0.1383
 4466W        W 5330  16.083   5.730  14.406 -0.6115 -0.2737 -0.0967
 4467W        W 5331  15.599   6.239  15.312 -0.1189  0.2366  0.0687
 4468W        W 5332  15.917   2.386  16.545  0.1170  0.0392  0.0095
 4469W        W 5333  13.855   4.046  15.747 -0.0268  0.1312 -0.2225
 4470W        W 5334  17.578   0.400  17.739  0.1362 -0.0396 -0.1991
 4471W        W 5335  13.613   1.834  15.497  0.0726  0.0226 -0.1433
 4472W        W 5336  13.944  28.157  16.743  0.1185  0.0557 -0.0510
 4473W        W 5337  12.724   0.963  13.222 -0.0528  0.2179 -0.1238
 4474W        W 5338  17.676   4.791  16.128 -0.0070  0.4413  0.0332
 4475W        W 5339  17.723   1.989  15.859  0.0957 -0.5380  0.0835
 4476W        W 5340  19.389  29.005  14.223  0.2224 -0.0914  0.2604
 4477W        W 5341  14.952   5.543  17.202  0.1307 -0.0820  0.0327
 4478W        W 5342  17.092   4.172  16.519 -0.0874  0.0828  0.1043
 4479W        W 5343  16.193   1.620  14.931  0.1991  0.0269  0.1323
 4480W        W 5344  17.029   1.640  12.629  0.2972 -0.2487 -0.0046
 4481W        W 5345  18.037   2.162  15.328 -0.1079  0.0709 -0.1896
 4482W        W 5346  16.822  27.515  14.277  0.3022  0.0310 -0.1089
 4483W        W 5347  17.465   2.118  12.173 -0.1244 -0.1049  0.1524
 4484W        W 5348  18.997   0.280  15.603 -0.2257 -0.1880  0.4910
 4485W        W 5349  14.387   2.347  12.999 -0.0037  0.1570 -0.1104
 4486W        W 5350  17.404   2.417  16.587 -0.0827 -0.0368  0.2761
 4487W        W 5351  19.803   1.487  11.937 -0.1888  0.1071  0.1457
 4488W        W 5352  16.352   2.071  19.321  0.2368  0.0152  0.0366
 4489W        W 5353  19.097   0.919  16.020 -0.2290 -0.4660 -0.4171
 4490W        W 5354  18.916   1.250  17.369  0.2833 -0.1158 -0.0557
 4491W        W 5355  18.328  28.637  16.548 -0.0344 -0.1720 -0.2783
 4492W        W 5356  15.735   0.649  16.297 -0.3590  0.3007 -0.0614
 4493W        W 5357  14.637   2.396  16.369 -0.2867 -0.1016  0.1299
 4494W        W 5358  14.915   1.645  14.808 -0.2075 -0.0273  0.1265
 4495W        W 5359  15.141   2.904  16.835  0.0552  0.5403 -0.1175
 4496W        W 5360  15.722   2.760  19.587 -0.0108 -0.0927  0.0696
 4497W        W 5361  17.659   4.810  17.370 -0.2696 -0.1098  0.0117
 4498W        W 5362  16.130   0.969  18.047  0.2925 -0.1749  0.0647
 4499W        W 5363  17.713   3.602  14.060  0.1532  0.0557 -0.0366
 4500W        W 5364  17.264   3.336  15.033 -0.4520  0.1596  0.0542
 4501W        W 5365  16.249   5.121  16.187 -0.0114  0.0644 -0.0311
 4502W        W 5366  15.507   2.535  17.017 -0.0306 -0.4497 -0.0341
 4503W        W 5367  17.293   4.113  15.785 -0.1830  0.0612 -0.0512
 4504W        W 5368  16.300   5.078  15.698 -0.2361  0.1437 -0.0744
 4505W        W 5369  21.606   1.247  16.575  0.1363  0.0889 -0.0305
 4506W        W 5370  19.238   3.332  15.693  0.3238  0.0049 -0.0724
 4507W        W 5371  14.435   3.588  13.402 -0.0148 -0.0369 -0.2462
 4508W        W 5372  15.441   2.342  15.314  0.1702 -0.1488  0.3491
 4509W        W 5373  18.405   2.651  13.087  0.1067 -0.1425 -0.0436
 4510W        W 5374  15.516   2.955  18.313  0.1738  0.1794 -0.0378
 4511W        W 5375  15.974   1.850  16.623 -0.0191  0.1829  0.3381
 4512W        W 5376  17.765  28.124  15.707  0.1449  0.0422 -0.0602
 4513W        W 5377  13.840   4.506  22.250  0.1026  0.1648 -0.0811
 4514W        W 5378  17.248   2.914  20.911  0.0574 -0.2190  0.1060
 4515W        W 5379  17.217   3.956  17.309 -0.1392  0.0664 -0.0687
 4516W        W 5380  16.398   2.864  20.784  0.0726  0.0891  0.1054
 4517W        W 5381  13.322   1.540  19.201 -0.1021  0.1108 -0.3534
 4518W        W 5382  16.933   0.739  20.614 -0.0565  0.2854  0.2839
 4519W        W 5383  15.959  28.946  18.695  0.2072 -0.1455 -0.0571
 4520W        W 5384  15.155   3.888  17.370 -0.1088  0.3031 -0.4741
 4521W        W 5385  15.813   3.380  21.176  0.1302  0.2184 -0.0518
 4522W        W 5386  15.115   2.338  21.359 -0.3293 -0.0112 -0.0316
 4523W        W 5387  17.378  27.610  20.675  0.2580  0.0623  0.1335
 4524W        W 5388  17.479  28.525  18.910  0.1323 -0.1282 -0.2620
 4525W        W 5389  18.164  28.139  20.675 -0.0948  0.1860  0.0652
 4526W        W 5390  17.494   3.282  21.315 -0.0559 -0.1561 -0.2738
 4527W        W 5391  13.233   3.295  20.086 -0.0047 -0.0747 -0.0370
 4528W        W 5392  13.212   0.312  21.378 -0.2634 -0.0456  0.1637
 4529W        W 5393  19.571   2.350  17.799 -0.0166  0.0906  0.2397
 4530W        W 5394  14.539   1.731  21.245  0.1431  0.0704  0.2269
 4531W        W 5395  15.730   0.223  21.029  0.1267 -0.2096 -0.0848
 4532W        W 5396  18.169   1.324  21.348  0.1994 -0.1598  0.0693
 4533W        W 5397  20.098   0.815  19.459  0.1127  0.1139  0.2026
 4534W        W 5398  18.220  26.414  20.255 -0.1080  0.0433  0.0196
 4535W        W 5399  18.150   0.848  21.080  0.1753  0.1557 -0.3368
 4536W        W 5400  14.297   2.990  21.142  0.0504  0.0705 -0.5211
 4537W        W 5401  12.846   3.184  18.554 -0.1465  0.1429  0.2226
 4538W        W 5402  13.027   2.492  19.566  0.0016  0.1083  0.0228
 4539W        W 5403  17.506   1.925  20.345 -0.1505 -0.2756  0.4113
 4540W        W 5404  14.459   1.967  19.061  0.0485 -0.0135  0.1934
 4541W        W 5405  14.736  28.663  21.667  0.0850 -0.2399  0.1090
 4542W        W 5406  16.587   2.248  18.814  0.3861 -0.0752  0.4114
 4543W        W 5407  17.157  29.097  18.822 -0.1041  0.1294 -0.0541
 4544W        W 5408  18.049  29.091  20.871  0.2177 -0.0795  0.1354
 4545W        W 5409  15.627  29.099  21.912 -0.1899  0.0774 -0.0029
 4546W        W 5410  16.726  28.031  24.808  0.3163  0.0842  0.1161
 4547W        W 5411  14.776  28.328  21.224 -0.4374  0.1687  0.0453
 4548W        W 5412  16.117   2.971  20.338  0.0233  0.1223 -0.0326
 4549W        W 5413  14.867   0.109  18.950 -0.0117 -0.1417  0.0816
 4550W        W 5414  14.577   2.111  19.976  0.0753  0.0511 -0.2965
 4551W        W 5415  18.970   1.942  20.096 -0.2842  0.1069 -0.2699
 4552W        W 5416  17.651  27.177  23.225 -0.0662 -0.0241  0.1030
 4553W        W 5417  17.191  27.751  16.436  0.2731 -0.1464  0.3629
 4554W        W 5418  16.358   0.266  20.427 -0.0059  0.4090  0.0445
 4555W        W 5419  17.367   1.008  18.929 -0.3155 -0.2887 -0.1098
 4556W        W 5420  17.080   4.675  16.635 -0.2949 -0.0543  0.1299
 4557W        W 5421  13.928   2.011  17.826  0.2571 -0.0426  0.1153
 4558W        W 5422  14.100   4.135  18.679  0.0217  0.1242  0.4151
 4559W        W 5423  15.998   1.537  22.388  0.0125 -0.1335  0.1479
 4560W        W 5424  17.968  28.736  20.079 -0.0978  0.6310  0.0126
 4561W        W 5425  19.187   0.775  19.831  0.0156  0.3704 -0.1339
 4562W        W 5426  17.246   0.792  17.809 -0.0771 -0.0309 -0.1822
 4563W        W 5427  16.298   4.775  17.157  0.0034 -0.0534 -0.2721
 4564W        W 5428  16.731   1.697  19.977 -0.1015  0.1381  0.2267
 4565W        W 5429  17.887   3.694  20.742  0.0328  0.0731  0.1608
 4566W        W 5430  20.852   2.092  22.045  0.2814 -0.1509 -0.1294
 4567W        W 5431  13.636  28.301  20.148  0.1216  0.0674  0.1402
 4568W        W 5432  13.402   3.999  17.317  0.2860  0.0403 -0.2804
 4569W        W 5433  14.037   0.015  18.562  0.1943 -0.2012 -0.2144
 4570W        W 5434  18.754   2.844  18.341  0.1531 -0.3613  0.1198
 4571W        W 5435  14.819   2.389  20.943 -0.0169 -0.0005 -0.1437
 4572W        W 5436  12.177   3.738  19.082 -0.0903 -0.1553  0.2429
 4573W        W 5437  16.653   0.210  22.168 -0.0627  0.0448  0.1257
 4574W        W 5438  17.036   3.430  19.459 -0.1028 -0.0273 -0.1462
 4575W        W 5439  16.184   2.749  21.224  0.1399  0.1727 -0.2204
 4576W        W 5440  14.787   4.470  19.401 -0.0247 -0.0383  0.0760
 4577W        W 5441  16.409   0.803  19.366 -0.1607  0.0963 -0.3448
 4578W        W 5442  18.264   0.886  20.032 -0.1059  0.1507  0.1528
 4579W        W 5443  15.734   0.939  17.745  0.1459 -0.3791 -0.1021
 4580W        W 5444  14.512   1.540  18.630 -0.1995  0.0871  0.1068
 4581W        W 5445  15.929   2.124  20.095  0.4583  0.0997 -0.0449
 4582W        W 5446  17.135   1.769  18.758 -0.1989 -0.1997 -0.2496
 4583W        W 5447  15.944   3.987  20.290  0.0697  0.0070 -0.1195
 4584W        W 5448  15.823   3.059  18.709 -0.3259  0.1982 -0.2407
 4585W        W 5449  17.130   4.242  18.546  0.0655 -0.2687  0.1593
 4586W        W 5450  17.159   2.928  19.584  0.1301  0.3643  0.2218
 4587W        W 5451  16.717   1.108  20.331 -0.4617 -0.0490  0.0895
 4588W        W 5452  17.931   2.054  19.417 -0.0581 -0.0527  0.0014
 4589W        W 5453  15.134   3.190  18.624  0.0681 -0.0823  0.2098
 4590W        W 5454  15.831   1.391  21.952  0.3027 -0.1853  0.1115
 4591W        W 5455  16.934   3.457  20.090  0.0736  0.1139  0.2953
 4592W        W 5456  18.280   3.683  17.925 -0.0033 -0.0227 -0.1159
 4593W        W 5457  17.563   2.005  19.769 -0.1211  0.1130 -0.1050
 4594W        W 5458  13.422   2.348  20.638 -0.2466  0.0788 -0.0947
 4595W        W 5459  15.840   1.023  20.603  0.2451  0.2294  0.1520
 4596W        W 5460  17.273   1.339  19.366  0.2145 -0.1301  0.3539
 4597W        W 5461  16.992  27.542  22.006  0.0137 -0.1486 -0.1644
 4598W        W 5462  17.364  27.880  19.242  0.1338 -0.2428 -0.3107
 4599W        W 5463  16.702   2.616  19.690 -0.0345  0.2404  0.0473
 4600W        W 5464  16.724  28.937  17.901 -0.0461  0.2359 -0.1824
 4601W        W 5465  15.878   3.752  22.327 -0.2793 -0.0182  0.1060
 4602W        W 5466  15.419   1.407  22.406 -0.2611  0.1321 -0.0193
 4603W        W 5467  17.870  28.150  17.981 -0.0949  0.1827 -0.0077
 4604W        W 5468  17.334   1.211  22.938 -0.1091 -0.0812  0.1513
 4605W        W 5469  15.109   2.530  19.017  0.0984 -0.2340  0.0336
 4606W        W 5470  15.662   0.141  18.982 -0.1641  0.0531 -0.2641
 4607W        W 5471  16.370   0.932  20.673 -0.0239 -0.0975 -0.1528
 4608W        W 5472  17.679   1.535  19.614 -0.0177  0.1872 -0.2555
 4609W        W 5473  18.794   1.941  18.234  0.1009  0.2795 -0.0777
 4610W        W 5474  14.307   3.663  20.421 -0.0741 -0.0823  0.1660
 4611W        W 5475  15.469   1.209  18.154 -0.1150  0.1237  0.0255
 4612W        W 5476  19.407   1.060  20.770  0.0778  0.1668  0.2947
 4613W        W 5477  18.278   4.542  18.066  0.0175  0.0713 -0.2018
 4614W        W 5478  15.022   1.629  17.425  0.0621 -0.4552 -0.1151
 4615W        W 5479  19.454  29.088  17.141  0.0601  0.1272 -0.2596
 4616W        W 5480  18.161   4.923  18.567 -0.0277  0.0754 -0.0402
 4617W        W 5481  19.293   0.191  20.668  0.0205  0.0604 -0.0967
 4618W        W 5482  17.635   2.306  20.701  0.2372  0.0158 -0.1392
 4619W        W 5483  16.075   2.289  15.900  0.1408 -0.1361  0.2762
 4620W        W 5484  16.095   1.845  22.928 -0.1121 -0.1401 -0.0093
 4621W        W 5485  18.523  27.421  20.351 -0.0362 -0.0166 -0.1290
 4622W        W 5486  13.781   1.277  19.284  0.0214 -0.0025 -0.2282
 4623W        W 5487  12.797  28.133  20.568 -0.3314 -0.0747 -0.0893
 4624W        W 5488  15.957   2.727  16.914  0.0552 -0.3700  0.1932
 4625W        W 5489  19.931   6.227  17.131 -0.0335  0.1742  0.1668
 4626W        W 5490  15.576   4.696  21.346  0.0628 -0.3140  0.1686
 4627W        W 5491  18.254   1.163  19.468 -0.4680  0.0854 -0.2073
 4628W        W 5492  14.526   3.113  18.462 -0.0817  0.1852  0.1411
 4629W        W 5493  16.962  27.696  24.389  0.1559 -0.2213  0.1651
 4630W        W 5494  15.273   0.218  19.921 -0.2359  0.0650  0.1950
 4631W        W 5495  18.240   1.298  20.438  0.1374 -0.0336 -0.1090
 4632W        W 5496  16.972   2.620  19.287  0.3525  0.0487  0.0339
 4633W        W 5497  15.957   1.381  18.883 -0.0388 -0.2129  0.0970
 4634W        W 5498  17.577   2.955  19.898  0.0604 -0.2835  0.1265
 4635W        W 5499  18.196   2.624  21.307  0.1444 -0.1390  0.1080
 4636W        W 5500  18.687   1.058  18.067  0.1587  0.0902  0.2992
 4637W        W 5501  19.022   2.474  20.168 -0.0553  0.0999  0.0621
 4638W        W 5502  17.169   0.814  19.499 -0.2676 -0.3677  0.1464
 4639W        W 5503  17.003   1.492  21.180 -0.1014 -0.1216 -0.0303
 4640W        W 5504  17.749   1.660  21.361 -0.0793  0.2248  0.2303
 4641W        W 5505  18.047   1.580  19.246 -0.0597  0.1034  0.1939
 4642W        W 5506  15.362   1.171  21.495 -0.2286 -0.1925  0.0902
 4643W        W 5507  16.727   3.092  19.810  0.0685 -0.3910 -0.1134
 4644W        W 5508  16.641   1.626  19.437  0.1996  0.0459 -0.2007
 4645W        W 5509  14.875   4.065  19.741  0.0656  0.0884  0.0715
 4646W        W 5510  17.767  26.706  20.598 -0.2676 -0.3019  0.0252
 4647W        W 5511  19.807   0.122  21.618 -0.1590 -0.1683  0.0419
 4648W        W 5512  14.289   2.750  18.819  0.2545  0.0465  0.2066
 4649W        W 5513  19.895   0.317  19.180 -0.0875 -0.1614 -0.0560
 4650W        W 5514  19.022   0.248  22.397 -0.1878 -0.0309  0.0306
 4651W        W 5515  18.133   1.511  18.687  0.1797 -0.3395 -0.1511
 4652W        W 5516  16.018   1.679  20.285 -0.0097  0.0250  0.4566
 4653W        W 5517  16.741   2.123  19.671 -0.0592 -0.3963 -0.3912
 4654W        W 5518  15.533   1.664  20.389  0.4091 -0.1336  0.0539
 4655W        W 5519  12.063   1.345  18.410 -0.1181  0.0546 -0.1054
 4656W        W 5520  15.478   0.654  20.688  0.0534  0.1289 -0.0245
 4657W        W 5521  17.401  28.276  23.020 -0.2068  0.0778  0.1739
 4658W        W 5522  17.507  28.611  22.058  0.0655 -0.1860  0.3906
 4659W        W 5523  16.996   0.044  18.318  0.0866  0.0841  0.0283
 4660W        W 5524  17.299   4.118  18.988 -0.2228  0.2325 -0.1404
 4661W        W 5525  16.345   3.679  18.832  0.2816  0.0304 -0.0856
 4662W        W 5526  18.988   2.693  21.024  0.1755  0.1128 -0.0236
 4663W        W 5527  16.527   2.753  20.137 -0.2101  0.1789  0.3228
 4664W        W 5528  17.823  28.974  19.117  0.1389 -0.3891 -0.0419
 4665W        W 5529  15.710   3.120  19.934  0.0651  0.2789 -0.1011
 4666W        W 5530  16.509   1.939  17.770  0.1987  0.0791 -0.0503
 4667W        W 5531  17.562  27.005  20.946 -0.1470  0.2140 -0.0180
 4668W        W 5532  16.415  28.914  20.540  0.0846  0.1845 -0.1669
 4669W        W 5533  14.038   0.501  21.098  0.0134  0.1589  0.0672
 4670W        W 5534  18.241   1.131  17.816 -0.0797 -0.3897 -0.1064
 4671W        W 5535  12.071  28.764  17.254  0.3029 -0.0107 -0.0340
 4672W        W 5536  15.499   1.529  19.242 -0.2021  0.2117  0.0921
 4673W        W 5537  17.434   0.403  19.600  0.4998  0.0941 -0.0551
 4674W        W 5538  14.739   1.678  21.913 -0.0045  0.1289 -0.2569
 4675W        W 5539  19.375   0.652  23.088 -0.1990 -0.0697  0.0054
 4676W        W 5540  15.500   3.713  20.083  0.1028  0.1597 -0.0601
 4677W        W 5541  16.262   0.455  19.628 -0.3481 -0.2759 -0.1661
 4678W        W 5542  14.803   0.586  19.082  0.0141  0.0453 -0.1316
 4679W        W 5543  15.676   0.446  19.631 -0.0863  0.4243 -0.3364
 4680W        W 5544  16.044   2.385  20.952 -0.0549  0.1686 -0.2634
 4681W        W 5545  14.107   0.295  21.911  0.0830  0.2792 -0.3043
 4682W        W 5546  15.075   1.654  18.529  0.3078 -0.0620  0.2492
 4683W        W 5547  15.013   0.827  20.857  0.2471 -0.0624 -0.2390
 4684W        W 5548  19.285   2.095  19.267 -0.2880  0.1287 -0.0086
 4685W        W 5549  16.615   1.199  21.109  0.4603  0.1216  0.0399
 4686W        W 5550  16.149   2.750  17.790 -0.4227  0.0750  0.0832
 4687W        W 5551  16.286   1.263  19.598 -0.1070  0.2822  0.1981
 4688W        W 5552  18.354  26.151  17.610 -0.2066 -0.0351  0.0598
 4689W        W 5553  16.635   2.004  20.353 -0.1813  0.0392  0.0124
 4690W        W 5554  13.026   3.712  20.317  0.0287  0.2737 -0.2017
 4691W        W 5555  12.722   2.493  19.977 -0.0477 -0.1642 -0.2247
 4692W        W 5556  18.420   2.708  18.053 -0.2834 -0.2681 -0.0644
 4693W        W 5557  17.198   2.394  19.704  0.0862 -0.1015 -0.2548
 4694W        W 5558  18.448   2.785  17.476  0.2153 -0.0130  0.1464
 4695W        W 5559  17.980   2.329  18.285 -0.2191  0.1812  0.1115
 4696W        W 5560  16.637   1.759  18.944 -0.0999  0.0678 -0.2462
 4697W        W 5561  18.193   0.172  17.808 -0.2912  0.0937  0.2711
 4698W        W 5562  18.827   2.708  20.548 -0.0141  0.1575 -0.1450
 4699W        W 5563  18.109   1.590  17.127  0.2185 -0.0440  0.1708
 4700W        W 5564  16.009   4.300  18.507  0.0005  0.1375  0.0876
 4701W        W 5565  16.096  28.837  21.827 -0.0997  0.0881  0.2418
 4702W        W 5566  16.756   0.503  18.063 -0.1946 -0.4442  0.2714
 4703W        W 5567  17.505   3.668  18.504 -0.0442 -0.2473 -0.1284
 4704W        W 5568  14.708   0.814  15.487  0.0510 -0.0474  0.3041
 4705W        W 5569  15.342   2.149  20.880  0.2105  0.0146 -0.0943
 4706W        W 5570  17.733  26.830  19.687 -0.1053  0.1535  0.1435
 4707W        W 5571  14.775  28.400  19.385  0.0513 -0.1463 -0.3753
 4708W        W 5572  18.276  28.412  18.619  0.5341 -0.0825  0.1873
 4709W        W 5573  16.507   0.303  19.157  0.0458 -0.0958  0.0827
 4710W        W 5574  13.396   1.146  19.641 -0.0768  0.3716 -0.1316
 4711W        W 5575  17.044  28.585  19.658 -0.1602 -0.1059  0.0522
 4712W        W 5576  12.052   0.822  20.217  0.2569  0.1087 -0.0746
 4713W        W 5577  16.407   2.312  19.957 -0.0851 -0.0876 -0.2256
 4714W        W 5578  18.681   1.935  18.734  0.0856 -0.2724 -0.2050
 4715W        W 5579  12.743   1.929  19.429  0.1865 -0.0183 -0.0915
 4716W        W 5580  19.550  27.881  22.314  0.0035  0.2948 -0.0971
 4717W        W 5581  18.061  28.884  17.666  0.0950  0.0653  0.2810
 4718W        W 5582  15.569   1.797  19.907 -0.2499 -0.2253  0.0185
 4719W        W 5583  16.604   1.953  18.283 -0.2172 -0.0299 -0.1031
 4720W        W 5584  14.021   2.915  19.207  0.2412  0.0074 -0.5379
 4721W        W 5585  14.222   1.661  17.541 -0.2111  0.0952  0.2413
 4722W        W 5586  15.255   2.589  19.483  0.0182 -0.1258 -0.0746
 4723W        W 5587  14.296   0.653  21.683 -0.2922  0.0093  0.2428
 4724W        W 5588  16.221  29.021  20.953 -0.1583 -0.2951 -0.0713
 4725W        W 5589  18.850  26.442  19.743 -0.2856 -0.0178  0.2247
 4726W        W 5590  17.859   0.910  18.193  0.0279  0.1334 -0.0345
 4727W        W 5591  18.212   4.093  20.948 -0.1632 -0.0094  0.2084
 4728W        W 5592  15.610   1.870  17.600  0.1495 -0.0660  0.0557
 4729W        W 5593  14.510   5.138  20.425 -0.0743  0.2188 -0.1984
 4730W        W 5594  17.188   0.992  21.135 -0.3424  0.3865 -0.4413
 4731W        W 5595  16.614   1.591  21.517 -0.2486  0.1644 -0.2028
 4732W        W 5596  18.439   1.132  22.895  0.0957  0.0316  0.0409
 4733W        W 5597  16.858  28.655  20.577 -0.1831 -0.2131  0.2523
 4734W        W 5598  18.219   1.058  18.984  0.0063  0.0288 -0.1527
 4735W        W 5599  18.088   5.050  16.269  0.1024  0.2782  0.2497
 4736W        W 5600  15.924   0.502  20.598 -0.0663 -0.1224  0.1481
 4737W        W 5601  16.175  28.457  22.069 -0.2139  0.0095  0.0149
 4738W        W 5602  18.592  28.225  22.252 -0.0059  0.0791  0.2437
 4739W        W 5603  15.066   4.276  17.140  0.0484 -0.1844 -0.0293
 4740W        W 5604  14.151   3.439  20.002  0.0832 -0.0076 -0.0907
 4741W        W 5605  18.098  25.538  21.025 -0.1926  0.3659  0.1517
 4742W        W 5606  13.954   3.282  18.430  0.0060 -0.0310  0.0685
 4743W        W 5607  17.298  29.030  20.597 -0.3562 -0.2627 -0.2776
 4744W        W 5608  14.146   1.722  19.378 -0.0972 -0.0957 -0.1277
 4745W        W 5609  17.780   1.423  20.337  0.2202  0.0598  0.0700
 4746W        W 5610  17.899  28.734  18.647 -0.1199 -0.0298  0.0830
 4747W        W 5611  18.564  26.095  20.497 -0.0411  0.3275 -0.0006
 4748W        W 5612  18.710   1.724  20.533  0.2244  0.2335  0.0746
 4749W        W 5613  18.041   3.900  18.708 -0.0368 -0.0199  0.2167
 4750W        W 5614  16.601   3.769  18.018 -0.1108  0.1583  0.1567
 4751W        W 5615  13.156   2.339  20.220 -0.1862  0.2486  0.1122
 4752W        W 5616  13.203   0.988  20.146  0.1429 -0.3660 -0.0368
 4753W        W 5617  13.568  29.147  19.177  0.2228  0.0081 -0.0228
 4754W        W 5618  16.998   1.265  20.735 -0.0438  0.2506  0.1849
 4755W        W 5619  15.783   3.926  18.259  0.0063 -0.0602  0.1072
 4756W        W 5620  20.480  28.842  22.258  0.4525  0.0190  0.0183
 4757W        W 5621  15.490   4.212  20.376 -0.0424 -0.3489  0.1642
 4758W        W 5622  16.774   3.459  18.987 -0.1741  0.1695  0.1910
 4759W        W 5623  15.539   2.318  19.794  0.1139 -0.1323 -0.3394
 4760W        W 5624  17.682   1.460  18.971 -0.2110 -0.0630  0.0139
 4761W        W 5625  14.092   2.337  19.969 -0.0674  0.0617  0.0784
 4762W        W 5626  17.439   2.936  23.158  0.1728  0.5171 -0.1069
 4763W        W 5627  14.058  28.594  19.733 -0.0971  0.2172 -0.0941
 4764W        W 5628  16.878   3.729  15.791  0.0108  0.0636  0.0581
 4765W        W 5629  18.236   3.432  20.102 -0.0041  0.2434 -0.0783
 4766W        W 5630  17.385   1.781  17.484 -0.0591  0.1258 -0.0469
 4767W        W 5631  14.277  28.058  22.331 -0.2300 -0.2200 -0.1074
 4768W        W 5632  15.307   3.398  17.497  0.2075  0.0957  0.1713
 4769W        W 5633  18.365  28.923  18.931  0.3341  0.2857  0.0043
 4770W        W 5634  15.911   0.470  17.962 -0.2567 -0.1455 -0.1885
 4771W        W 5635  17.650  28.346  18.424  0.1305 -0.0416 -0.5455
 4772W        W 5636  17.575   4.249  17.489  0.1405  0.0633 -0.1641
 4773W        W 5637  14.886   1.659  20.530 -0.4150 -0.0237 -0.3580
 4774W        W 5638  17.629   3.292  20.816 -0.0074  0.4350 -0.0741
 4775W        W 5639  13.327   5.401  23.795 -0.0838  0.1877  0.0258
 4776W        W 5640  14.089   2.107  17.308 -0.2843  0.1811  0.0322
 4777W        W 5641  16.792   5.014  19.958 -0.0739  0.0093 -0.2088
 4778W        W 5642  16.914   0.293  22.601  0.3531  0.2590 -0.4372
 4779W        W 5643  16.401  28.609  18.666 -0.2588 -0.1339  0.0367
 4780W        W 5644  17.219   2.120  18.390  0.1902 -0.2252 -0.0060
 4781W        W 5645  19.275   3.076  19.513 -0.0566  0.3384 -0.1790
 4782W        W 5646  16.433  27.158  21.661  0.1254 -0.1923 -0.0256
 4783W        W 5647  15.658  27.443  21.319 -0.0915 -0.0543  0.3431
 4784W        W 5648  18.684   3.473  21.438 -0.0912 -0.0247 -0.2392
 4785W        W 5649  18.457   3.299  24.020  0.0812  0.1583  0.1585
 4786W        W 5650  14.871  27.373  18.060  0.1019 -0.0041  0.0697
 4787W        W 5651  16.994   2.879  18.496 -0.5260  0.3168  0.0149
 4788W        W 5652  17.297   0.436  18.174  0.2307 -0.0675 -0.1925
 4789W        W 5653  14.481   2.220  21.975 -0.0989 -0.0416 -0.0098
 4790W        W 5654  15.065   1.534  19.516 -0.0262 -0.2293  0.0737
 4791W        W 5655  13.664   1.301  17.939 -0.0765  0.0532  0.1422
 4792W        W 5656  16.054   3.002  18.213  0.0506  0.2008 -0.0083
 4793W        W 5657  15.257   2.038  19.542  0.2107  0.0754 -0.0609
 4794W        W 5658  18.485   1.476  19.056  0.2459 -0.1186 -0.0797
 4795W        W 5659  16.251   0.250  25.273  0.2699  0.0217  0.3474
 4796W        W 5660  17.379   1.585  20.038  0.0999 -0.0960 -0.0315
 4797W        W 5661  14.027   5.645  20.668 -0.2186 -0.3064 -0.0392
 4798W        W 5662  18.159  27.550  16.630  0.1430  0.1382  0.1894
 4799W        W 5663  17.570   2.662  19.478 -0.2802 -0.2360  0.0069
 4800W        W 5664  19.434   0.673  18.480  0.3557  0.1870  0.1221
 4801W        W 5665  17.834  28.051  19.393 -0.1962  0.3761  0.1703
 4802W        W 5666  18.298  27.542  21.696 -0.2720  0.0413  0.0971
 4803W        W 5667  14.695   1.529  18.072  0.0183 -0.1086 -0.3632
 4804W        W 5668  15.007   0.049  17.182  0.0074 -0.2254  0.3026
 4805W        W 5669  16.356  28.949  21.412  0.1203 -0.1188  0.3167
 4806W        W 5670  15.696   1.900  18.851 -0.1568 -0.1327 -0.2739
 4807W        W 5671  16.978   1.276  19.904 -0.1985 -0.2809 -0.0490
 4808W        W 5672  19.706   2.321  19.214 -0.0518  0.3371  0.0906
 4809W        W 5673  14.945   2.944  18.177  0.2939  0.1891 -0.0621
 4810W        W 5674  14.141   1.919  20.435 -0.1459 -0.1765  0.0115
 4811W        W 5675  15.764   0.447  22.008 -0.1262 -0.2077  0.1288
 4812W        W 5676  14.656   4.632  20.356 -0.1277  0.0718 -0.1594
 4813W        W 5677  19.951   2.901  17.296  0.4373 -0.3453 -0.2169
 4814W        W 5678  18.106   5.182  18.168 -0.1048 -0.1042  0.0519
 4815W        W 5679  16.078   3.486  18.384  0.0540 -0.1158 -0.0183
 4816W        W 5680  19.003  29.078  22.029  0.0816 -0.0544  0.2124
 4817W        W 5681  18.156   0.325  16.968  0.0305  0.3629 -0.1972
 4818W        W 5682  20.232   0.431  23.144  0.4301  0.0991 -0.4156
 4819W        W 5683  15.806   1.497  21.493 -0.2384 -0.0087 -0.1013
 4820W        W 5684  14.362   2.227  19.501  0.0488 -0.1722 -0.0220
 4821W        W 5685  12.835   0.550  19.862 -0.3077 -0.0857 -0.0014
 4822W        W 5686  17.749   0.605  18.664  0.3657  0.0004 -0.2726
 4823W        W 5687  19.330   3.964  17.393 -0.0883 -0.3838 -0.4111
 4824W        W 5688  16.389   4.146  20.117  0.0799 -0.0304 -0.0864
 4825W        W 5689  17.369   2.763  21.451 -0.3637  0.0468  0.0337
 4826W        W 5690  14.548   2.052  17.756  0.4485 -0.0594 -0.0317
 4827W        W 5691  16.674  27.406  21.110  0.0516 -0.2037 -0.1238
 4828W        W 5692  15.329   2.740  19.941 -0.0416 -0.1268  0.2897
 4829W        W 5693  16.021   3.869  19.833  0.1326 -0.1367  0.0318
 4830W        W 5694  16.714   1.117  22.123  0.3591  0.1378  0.1336
 4831W        W 5695  17.917   3.667  19.818  0.0080 -0.0906 -0.1918
 4832W        W 5696  14.525  28.923  21.292  0.0256 -0.1626 -0.1380
 4833W        W 5697  16.783   1.158  19.408 -0.5522  0.0288  0.0702
 4834W        W 5698  15.571   3.664  16.455 -0.0604  0.3288  0.3614
 4835W        W 5699  15.363   1.269  19.854  0.0924  0.3668 -0.1302
 4836W        W 5700  16.547  28.691  19.570  0.6759  0.0107  0.1691
 4837W        W 5701  14.573   1.210  19.614 -0.2770 -0.1998  0.0184
 4838W        W 5702  16.975  28.647  18.805  0.1047  0.1814 -0.2977
 4839W        W 5703  15.496   1.000  19.428  0.1790  0.0662  0.1786
 4840W        W 5704  15.186  27.082  22.236 -0.0224  0.2944  0.1102
 4841W        W 5705  16.957  28.143  17.181  0.1582  0.0769  0.1048
 4842W        W 5706  16.730   1.849  20.826 -0.4200 -0.2935 -0.1652
 4843W        W 5707  16.708   0.725  21.761 -0.2576 -0.0399 -0.0464
 4844W        W 5708  15.391   4.105  19.718 -0.3173  0.0435 -0.1782
 4845W        W 5709  16.820   2.820  20.555 -0.0058 -0.1427 -0.4027
 4846W        W 5710  15.705   5.596  16.888 -0.0559  0.0594  0.0021
 4847W        W 5711  17.996   1.842  20.568  0.0793  0.1133 -0.1205
 4848W        W 5712  19.447   1.585  19.116 -0.1981 -0.1555 -0.0571
 4849W        W 5713  17.845  27.816  17.028 -0.2078 -0.0722 -0.2162
 4850W        W 5714  17.105   1.790  19.612  0.3265  0.4930  0.1646
 4851W        W 5715  14.463   0.779  20.661 -0.1316 -0.2118 -0.0427
 4852W        W 5716  16.879   0.474  19.681 -0.0355 -0.0899 -0.0440
 4853W        W 5717  15.048   0.047  16.264 -0.0037  0.1411  0.0768
 4854W        W 5718  16.942   1.361  18.999  0.0163  0.2257 -0.0085
 4855W        W 5719  17.082   2.304  18.804 -0.0950  0.1168  0.0809
 4856W        W 5720  16.065   2.279  18.976  0.0707 -0.0723  0.0491
 4857W        W 5721  16.610  28.472  19.084  0.0240  0.1578  0.1357
 4858W        W 5722  16.703   0.690  21.013  0.0132 -0.0153 -0.1900
 4859W        W 5723  14.517  27.547  14.775  0.3018 -0.0040  0.0226
 4860W        W 5724  17.017  28.946  22.371 -0.1257  0.2151  0.0850
 4861W        W 5725  18.281   1.908  18.323  0.0784  0.0826  0.1249
 4862W        W 5726  18.836   1.053  21.891  0.1218  0.1184 -0.0951
 4863W        W 5727  15.070   1.824  19.953  0.0633  0.2421  0.0462
 4864W        W 5728  15.824   4.196  19.519 -0.2677 -0.3603 -0.1983
 4865W        W 5729  18.375   2.425  19.042  0.0451 -0.4304 -0.2336
 4866W        W 5730  17.478   3.943  19.940  0.1250  0.0414  0.0074
 4867W        W 5731  15.078  28.430  21.991 -0.0258 -0.0280  0.0678
 4868W        W 5732  14.307  28.254  20.502 -0.0784  0.3056  0.0124
 4869W        W 5733  13.618   3.147  19.049 -0.2048 -0.0338 -0.2733
 4870W        W 5734  17.369   3.287  16.952 -0.0304  0.1010 -0.0501
 4871W        W 5735  18.248   0.193  22.727  0.0268 -0.1551 -0.3828
 4872W        W 5736  16.341   4.128  19.558  0.1957 -0.0455 -0.3367
 4873W        W 5737  16.936  28.290  20.182  0.2480  0.2568 -0.2689
 4874W        W 5738  16.111   5.548  19.936 -0.5311  0.1428  0.0260
 4875W        W 5739  18.842   2.162  19.664 -0.3570 -0.0318  0.2939
 4876W        W 5740  15.881   0.337  20.129  0.1938 -0.3249  0.0810
 4877W        W 5741  16.789   2.192  16.879  0.1621  0.0024 -0.0615
 4878W        W 5742  19.200  28.672  17.344  0.1317 -0.1215  0.2745
 4879W        W 5743  19.772  28.826  18.840 -0.0311 -0.0522  0.5374
 4880W        W 5744  15.792   2.753  17.419  0.0529 -0.2311  0.2020
 4881W        W 5745  18.718   1.572  19.669  0.2181  0.0159 -0.3524
 4882W        W 5746  16.529   3.399  15.518  0.1288 -0.0627  0.2474
 4883W        W 5747  18.937  28.888  22.545  0.2981 -0.1713 -0.0394
 4884W        W 5748  17.301  28.896  19.252 -0.3414 -0.0763 -0.0172
 4885W        W 5749  16.166   1.824  21.578  0.1882  0.1464  0.2141
 4886W        W 5750  14.591   1.748  19.641  0.2615  0.0954  0.6281
 4887W        W 5751  15.617   2.334  21.279  0.0295  0.0848  0.1590
 4888W        W 5752  16.467  26.203  22.441  0.3057  0.1059  0.0624
 4889W        W 5753  15.126   1.948  21.775 -0.1958  0.1909 -0.0617
 4890W        W 5754  16.952   0.926  18.599 -0.2597  0.1746 -0.1224
 4891W        W 5755  15.817   3.241  19.215 -0.1785  0.2206  0.0878
 4892W        W 5756  13.276   3.908  19.097  0.0713 -0.1139  0.2540
 4893W        W 5757  15.776   4.761  18.522  0.1152 -0.1146  0.0248
 4894W        W 5758  17.187   3.206  22.306 -0.4698 -0.4811 -0.1025
 4895W        W 5759  16.310   0.150  23.085 -0.1026 -0.0863 -0.0363
 4896W        W 5760  16.295   4.674  20.101  0.0535  0.1081  0.2992
 4897W        W 5761  14.338   2.436  20.994  0.2991 -0.0135 -0.1004
 4898W        W 5762  14.796   4.093  19.130  0.1678 -0.0831  0.2881
 4899W        W 5763  18.005   3.473  15.608  0.0953  0.1512 -0.1543
 4900W        W 5764  18.121  27.523  24.223 -0.0172 -0.1529 -0.1310
 4901W        W 5765  15.053   4.306  18.693 -0.1751  0.0521 -0.3864
 4902W        W 5766  19.761   2.567  18.207 -0.3359 -0.0668  0.2519
 4903W        W 5767  14.516   2.647  19.942 -0.0699  0.2063  0.0291
 4904W        W 5768  17.911   5.322  17.695 -0.0964  0.0851  0.2791
 4905W        W 5769  17.787  28.343  25.199 -0.3036 -0.1558  0.2665
 4906W        W 5770  17.437   3.912  21.018 -0.1119 -0.1833 -0.1967
 4907W        W 5771  15.355   3.422  19.094 -0.3529  0.1656  0.0564
 4908W        W 5772  15.121   3.806  18.896  0.1902  0.1374 -0.1407
 4909W        W 5773  14.529   3.785  16.497 -0.3518  0.2239 -0.0773
 4910W        W 5774  13.382   3.894  26.885 -0.1691  0.0885 -0.0472
 4911W        W 5775  13.929   3.975  23.138 -0.1384  0.2793 -0.4298
 4912W        W 5776  17.525   0.474  23.497  0.0895  0.0328 -0.2162
 4913W        W 5777  18.205   4.108  28.573  0.1560 -0.0045  0.2264
 4914W        W 5778  13.547   1.902  20.879 -0.3629 -0.1007 -0.1115
 4915W        W 5779  14.949   0.745  23.049  0.2010 -0.1101 -0.1598
 4916W        W 5780  14.251   3.314  22.682  0.3376 -0.0323 -0.2302
 4917W        W 5781  16.218  27.999  21.626 -0.1342 -0.0496 -0.6087
 4918W        W 5782  15.573   2.845  20.367  0.1131 -0.0341  0.0086
 4919W        W 5783  12.771   1.198  24.868  0.2663  0.2292 -0.5217
 4920W        W 5784  16.031   1.794  25.163 -0.2830  0.0446  0.0854
 4921W        W 5785  17.502   0.319  26.675 -0.1801  0.2740 -0.1290
 4922W        W 5786  17.231   0.711  22.629  0.2300 -0.0042  0.0635
 4923W        W 5787  18.346   0.808  23.812  0.2870 -0.0544 -0.1150
 4924W        W 5788  14.697  28.863  25.831 -0.2620  0.1797  0.2262
 4925W        W 5789  17.046   4.267  23.860 -0.0081 -0.0466  0.0692
 4926W        W 5790  18.271  28.571  21.838 -0.0616  0.1171 -0.2657
 4927W        W 5791  15.071   0.081  23.596  0.1817  0.2735  0.1637
 4928W        W 5792  16.598   0.278  26.662  0.0030 -0.2452  0.0548
 4929W        W 5793  19.056   1.486  23.521 -0.1982 -0.4561 -0.1052
 4930W        W 5794  16.994   3.413  24.257  0.0086  0.0251  0.1399
 4931W        W 5795  17.648   0.980  22.570 -0.0533 -0.4356  0.3254
 4932W        W 5796  18.094   1.821  24.115 -0.0325 -0.2065 -0.1370
 4933W        W 5797  15.656   3.461  23.385 -0.0925  0.3259 -0.0550
 4934W        W 5798  14.973   2.036  24.389  0.1499  0.0156 -0.2476
 4935W        W 5799  15.384   3.041  23.507 -0.0222  0.0209 -0.0693
 4936W        W 5800  21.621   0.283  25.225 -0.3246 -0.0873  0.1678
 4937W        W 5801  15.130   0.659  23.570 -0.0115  0.0584 -0.0224
 4938W        W 5802  17.547   4.516  23.988 -0.0030  0.0202 -0.2971
 4939W        W 5803  16.252   0.153  23.791  0.0124  0.0209  0.0221
 4940W        W 5804  16.601  28.254  24.392  0.0376 -0.2146  0.2315
 4941W        W 5805  14.993   3.430  24.245 -0.0533  0.0318 -0.0917
 4942W        W 5806  16.664  28.950  23.711  0.0491  0.1650 -0.1812
 4943W        W 5807  16.851   2.092  23.691 -0.0128  0.0694  0.3587
 4944W        W 5808  14.150   0.610  24.854  0.1597 -0.0357  0.0092
 4945W        W 5809  17.725   1.902  24.509  0.1236  0.3477  0.1509
 4946W        W 5810  15.337   1.544  23.199  0.1023  0.1906  0.1191
 4947W        W 5811  16.474   3.013  25.818 -0.2486 -0.1466 -0.1193
 4948W        W 5812  15.483   2.086  24.084 -0.0697  0.1509 -0.0576
 4949W        W 5813  17.606   1.629  24.892 -0.4452 -0.1116  0.2052
 4950W        W 5814  16.079  27.548  22.325 -0.2051  0.2442  0.0500
 4951W        W 5815  17.801   1.447  22.737  0.0010 -0.1905  0.0423
 4952W        W 5816  16.133   0.081  22.182 -0.1824  0.2892 -0.1136
 4953W        W 5817  18.561   1.581  22.476 -0.0871 -0.0073 -0.0004
 4954W        W 5818  13.589   1.647  19.656 -0.3227 -0.2751 -0.1414
 4955W        W 5819  15.089   4.510  22.732  0.2020  0.0272  0.1798
 4956W        W 5820  18.273   2.377  21.698  0.1606  0.2702  0.0420
 4957W        W 5821  17.177   3.489  24.789  0.3965 -0.0136 -0.5392
 4958W        W 5822  17.796   2.908  23.504  0.1200  0.0461  0.0861
 4959W        W 5823  16.529   0.322  21.356  0.4077  0.0617 -0.0670
 4960W        W 5824  16.397   0.266  26.101  0.1893 -0.0782  0.3349
 4961W        W 5825  17.048   1.306  24.704  0.1970 -0.0041  0.1939
 4962W        W 5826  14.072   2.704  23.756 -0.1017  0.0107 -0.4353
 4963W        W 5827  15.956   1.053  24.008 -0.1478  0.0224  0.5546
 4964W        W 5828  20.729   0.317  24.068  0.2237  0.0368  0.3804
 4965W        W 5829  14.098   2.840  20.046  0.1971 -0.1321  0.1301
 4966W        W 5830  16.938  28.849  25.321 -0.0032  0.1279 -0.3213
 4967W        W 5831  17.820   3.625  23.945  0.0691  0.1264  0.1397
 4968W        W 5832  17.157   4.144  23.401 -0.0856 -0.2783 -0.4368
 4969W        W 5833  16.226   2.989  19.546 -0.1835  0.3310  0.0879
 4970W        W 5834  15.284   0.355  21.896 -0.0304 -0.1461 -0.0763
 4971W        W 5835  14.607   3.709  21.856 -0.3363 -0.1221 -0.0433
 4972W        W 5836  14.598   4.166  22.188  0.0571  0.1719  0.0310
 4973W        W 5837  17.674   2.505  22.978  0.1811 -0.1421  0.0945
 4974W        W 5838  15.754   0.223  24.486 -0.0047 -0.4530 -0.2154
 4975W        W 5839  17.202   0.745  21.953 -0.3427 -0.1255  0.2387
 4976W        W 5840  14.460   1.430  22.629  0.3228 -0.1293 -0.0291
 4977W        W 5841  18.706  27.273  24.417 -0.1635  0.3512 -0.2944
 4978W        W 5842  15.401   2.832  22.649 -0.0220  0.0451  0.0573
 4979W        W 5843  13.956   5.378  21.595  0.0701  0.2517 -0.0174
 4980W        W 5844  17.808   3.141  24.363  0.0060  0.0007 -0.0365
 4981W        W 5845  17.468  27.474  23.571 -0.0359  0.1679  0.2521
 4982W        W 5846  15.063   3.471  21.477  0.3502  0.2531  0.1189
 4983W        W 5847  20.317   1.669  26.909  0.0451 -0.0249 -0.0283
 4984W        W 5848  17.543   1.664  23.123  0.2096  0.2254  0.1254
 4985W        W 5849  17.869  29.071  24.558  0.0132 -0.1107  0.1778
 4986W        W 5850  14.115   2.990  21.690  0.2574  0.2388  0.5230
 4987W        W 5851  15.680   1.464  24.102 -0.2329  0.2551  0.0243
 4988W        W 5852  18.166  28.947  23.755  0.2845  0.2411  0.4630
 4989W        W 5853  15.714   4.440  23.443 -0.1172  0.4442 -0.0479
 4990W        W 5854  14.329   0.750  25.701 -0.3029  0.0412 -0.2253
 4991W        W 5855  13.868   0.212  25.098 -0.2266 -0.4188  0.4011
 4992W        W 5856  14.926  27.107  24.277 -0.0792 -0.0036  0.2510
 4993W        W 5857  17.066   2.340  25.736 -0.1785  0.0687 -0.1060
 4994W        W 5858  18.478  27.094  21.369 -0.1586 -0.0299 -0.3456
 4995W        W 5859  19.466   1.491  23.856 -0.1584  0.2507  0.0941
 4996W        W 5860  16.806   2.968  22.820 -0.1519  0.1950  0.1206
 4997W        W 5861  18.464  28.667  24.835 -0.0624  0.1879  0.2785
 4998W        W 5862  17.750   4.535  26.472  0.1728 -0.1094 -0.2008
 4999W        W 5863  19.466   1.039  24.958  0.0798 -0.2648  0.0853
 5000W        W 5864  16.999  28.707  21.841 -0.1335 -0.0581  0.0537
 5001W        W 5865  15.953   1.912  24.136  0.1837  0.1406 -0.1478
 5002W        W 5866  13.202   2.808  20.441  0.0424 -0.2243 -0.0361
 5003W        W 5867  14.800   0.991  22.589 -0.0553  0.0754  0.0219
 5004W        W 5868  14.648  26.464  26.753 -0.2305  0.1827  0.1407
 5005W        W 5869  17.209   1.664  21.867  0.0867 -0.1869  0.0359
 5006W        W 5870  14.543   3.487  23.297 -0.1802 -0.1377 -0.0625
 5007W        W 5871  15.286  28.841  22.167  0.0686  0.0251  0.1939
 5008W        W 5872  16.852   2.143  23.045 -0.2529 -0.2855  0.2053
 5009W        W 5873  17.817   4.218  21.320  0.0713  0.0521 -0.2370
 5010W        W 5874  13.629   3.479  19.875 -0.0395 -0.1768 -0.3225
 5011W        W 5875  12.832   3.077  21.034 -0.0095  0.2246 -0.0553
 5012W        W 5876  17.359   6.954  23.183  0.1172  0.0016  0.2818
 5013W        W 5877  17.641   0.010  23.668  0.0216 -0.3845  0.1311
 5014W        W 5878  18.656   1.173  23.624 -0.2967 -0.2871 -0.0443
 5015W        W 5879  17.993   3.271  21.973 -0.3826  0.0076 -0.1390
 5016W        W 5880  19.147   4.037  25.192 -0.2418 -0.0822 -0.0264
 5017W        W 5881  17.069   0.123  23.448 -0.0386  0.0403  0.1463
 5018W        W 5882  15.440   1.841  23.603  0.0707  0.0925  0.0052
 5019W        W 5883  15.519  28.714  25.502  0.1292 -0.0245 -0.0524
 5020W        W 5884  16.987   1.516  23.194 -0.1018  0.0303  0.0365
 5021W        W 5885  20.527   0.186  24.927 -0.0429 -0.0453  0.1188
 5022W        W 5886  16.462   2.720  23.063 -0.4608 -0.1952 -0.1244
 5023W        W 5887  20.310   0.987  24.586 -0.3219 -0.0709  0.0642
 5024W        W 5888  16.161  28.095  23.541  0.0520 -0.0519 -0.0027
 5025W        W 5889  18.384   1.389  24.167  0.0470 -0.1565  0.2201
 5026W        W 5890  15.625   0.727  24.286  0.0023  0.2283  0.0385
 5027W        W 5891  16.439  28.889  22.314  0.2630  0.0599 -0.0704
 5028W        W 5892  16.328   0.599  22.072 -0.1551 -0.0316  0.1331
 5029W        W 5893  18.539   3.009  21.284 -0.3587 -0.1137 -0.0711
 5030W        W 5894  18.866   1.441  22.906  0.1469 -0.1108 -0.1926
 5031W        W 5895  15.241   2.436  24.521  0.0291 -0.0158  0.1065
 5032W        W 5896  15.777   3.011  25.056  0.0999 -0.0211 -0.0068
 5033W        W 5897  16.705   3.066  22.316 -0.0820  0.1783  0.1185
 5034W        W 5898  18.119  27.905  25.300 -0.2275  0.1092 -0.4023
 5035W        W 5899  16.811   0.708  22.368 -0.2163  0.1061 -0.4876
 5036W        W 5900  16.902   1.987  24.178 -0.0613  0.0506  0.2522
 5037W        W 5901  16.356   1.489  21.990 -0.3685 -0.1717 -0.0237
 5038W        W 5902  15.222   5.348  19.847 -0.3317  0.4351 -0.0222
 5039W        W 5903  16.129   1.360  23.012  0.1541 -0.1313  0.3240
 5040W        W 5904  19.851   0.888  20.928  0.0160 -0.0750 -0.0101
 5041W        W 5905  14.975   3.265  24.798  0.0380 -0.0688 -0.0859
 5042W        W 5906  18.785   1.525  21.992  0.0964 -0.1230  0.1106
 5043W        W 5907  16.683   3.449  24.854 -0.0398  0.1063 -0.0515
 5044W        W 5908  16.179   0.936  24.507 -0.2369  0.2270 -0.0428
 5045W        W 5909  18.095   1.467  25.074  0.0933  0.3377  0.1260
 5046W        W 5910  18.923  28.971  27.707  0.1226 -0.2587  0.0428
 5047W        W 5911  16.717   1.018  24.466 -0.1084  0.4643  0.0161
 5048W        W 5912  16.337   4.350  21.950 -0.0538 -0.0068  0.4178
 5049W        W 5913  14.776  28.511  20.529  0.0576 -0.2136 -0.2348
 5050W        W 5914  15.090   1.106  23.353 -0.1624 -0.0890  0.2824
 5051W        W 5915  17.670  28.895  21.163 -0.2442 -0.1311 -0.1290
 5052W        W 5916  16.678  28.949  23.226 -0.4811  0.2186  0.2791
 5053W        W 5917  15.296   5.623  23.282  0.2635  0.0657 -0.3623
 5054W        W 5918  17.394   0.777  23.921 -0.0205  0.1335  0.2797
 5055W        W 5919  16.432  28.559  23.403  0.0279  0.1568 -0.0233
 5056W        W 5920  18.004   4.212  22.378 -0.0903  0.0572 -0.2974
 5057W        W 5921  15.079   3.445  23.232  0.0592 -0.2011 -0.0890
 5058W        W 5922  16.766   3.982  22.665  0.2197 -0.0953 -0.1951
 5059W        W 5923  17.948   5.871  22.956 -0.1160 -0.2326  0.1207
 5060W        W 5924  17.027  28.364  22.281 -0.2589 -0.1858  0.0478
 5061W        W 5925  17.959   0.716  24.954 -0.3653  0.0723  0.0446
 5062W        W 5926  16.569  29.071  22.737 -0.1262 -0.1674  0.1572
 5063W        W 5927  17.498   1.477  25.383  0.2772 -0.1473 -0.2062
 5064W        W 5928  18.744  28.572  24.395  0.0749 -0.0086  0.0196
 5065W        W 5929  14.656   3.986  20.635 -0.0765 -0.1706 -0.1304
 5066W        W 5930  16.098   2.467  19.572 -0.1041  0.1115  0.1501
 5067W        W 5931  16.123  28.149  20.841  0.0246 -0.1119  0.1498
 5068W        W 5932  17.604  28.598  23.632 -0.0268  0.0331  0.2096
 5069W        W 5933  18.241   2.879  24.236  0.0108  0.1483 -0.1755
 5070W        W 5934  15.344   1.709  26.805  0.3025 -0.2127  0.0530
 5071W        W 5935  16.906   1.373  24.174 -0.1193  0.1508  0.0141
 5072W        W 5936  17.544   3.586  24.429  0.1217 -0.1345 -0.1306
 5073W        W 5937  17.506  29.044  26.329  0.2787 -0.2363  0.3189
 5074W        W 5938  15.098   1.058  22.195 -0.1161  0.0285 -0.2293
 5075W        W 5939  15.835   1.627  23.283 -0.0110 -0.0482  0.0506
 5076W        W 5940  13.958   5.905  21.709  0.0944  0.2006 -0.1417
 5077W        W 5941  15.944   2.459  26.741  0.4601  0.0373 -0.1395
 5078W        W 5942  17.322   1.100  23.475 -0.1784 -0.0797  0.1765
 5079W        W 5943  20.642   1.789  24.889  0.2507  0.2015  0.0087
 5080W        W 5944  18.451   0.233  23.662 -0.4037  0.0607  0.0814
 5081W        W 5945  17.826  28.684  25.605  0.1279 -0.0832 -0.2400
 5082W        W 5946  17.568   2.012  21.993 -0.0552  0.1786 -0.1285
 5083W        W 5947  18.459   1.309  24.757 -0.0045 -0.0959  0.0948
 5084W        W 5948  18.989   2.608  25.011 -0.3107 -0.0813  0.3031
 5085W        W 5949  15.621   6.905  25.754  0.0970 -0.2481  0.0053
 5086W        W 5950  14.620   0.692  22.175  0.0896 -0.2188 -0.0065
 5087W        W 5951  16.958   3.046  23.279  0.1674 -0.2439  0.2874
 5088W        W 5952  16.438   2.033  24.322 -0.0281 -0.2915 -0.1310
 5089W        W 5953  17.494   5.645  24.151  0.1998 -0.1385 -0.2498
 5090W        W 5954  16.762   2.251  22.452 -0.2187 -0.2196  0.1937
 5091W        W 5955  16.891   1.756  22.272 -0.4008  0.1022 -0.1344
 5092W        W 5956  13.760   0.319  19.938 -0.1973 -0.2395  0.0554
 5093W        W 5957  19.666  27.644  24.035 -0.2504  0.1750 -0.1226
 5094W        W 5958  17.187   0.976  24.356 -0.1501  0.0853 -0.2549
 5095W        W 5959  17.382  28.887  23.257 -0.0022  0.1706  0.0992
 5096W        W 5960  12.151  27.314  22.564  0.0289 -0.0859 -0.1645
 5097W        W 5961  15.644   4.710  24.349  0.3086 -0.3080 -0.0729
 5098W        W 5962  14.023   0.053  22.453  0.2763 -0.0609  0.0887
 5099W        W 5963  17.458  28.072  22.424  0.1280 -0.1400  0.0140
 5100W        W 5964  13.042   1.579  22.198 -0.1955  0.1894 -0.2443
 5101W        W 5965  15.763   2.190  27.113  0.0084 -0.1809 -0.0463
 5102W        W 5966  17.446   0.361  25.733  0.1244 -0.2139 -0.0000
 5103W        W 5967  19.401   1.070  23.392 -0.1928 -0.0414 -0.0186
 5104W        W 5968  18.683   0.757  21.002 -0.0341  0.0157  0.1136
 5105W        W 5969  16.693  27.065  23.747 -0.3922 -0.0093  0.1538
 5106W        W 5970  15.500   0.708  23.204 -0.0240  0.1716 -0.2147
 5107W        W 5971  12.184   1.532  24.817 -0.1581  0.0709 -0.0039
 5108W        W 5972  20.482  28.172  24.298  0.1898 -0.0865 -0.1641
 5109W        W 5973  17.860   0.143  20.430 -0.0973  0.1126 -0.3646
 5110W        W 5974  16.245  27.865  25.137  0.0549 -0.0280 -0.0660
 5111W        W 5975  15.804   0.942  21.501 -0.0280 -0.2226  0.2017
 5112W        W 5976  16.149  28.397  24.203  0.4463  0.1780  0.0240
 5113W        W 5977  18.777  28.103  24.204 -0.0278  0.0202 -0.1141
 5114W        W 5978  14.634   0.723  19.581 -0.1040  0.1142  0.1003
 5115W        W 5979  17.026   0.399  24.315  0.1488 -0.2204  0.0304
 5116W        W 5980  18.007   3.112  21.127  0.1491  0.1350 -0.1258
 5117W        W 5981  15.795   0.452  21.470 -0.0031 -0.1138 -0.0167
 5118W        W 5982  17.654  26.421  21.719  0.0309 -0.0263 -0.0119
 5119W        W 5983  16.021   0.545  23.506 -0.0983 -0.4226 -0.0019
 5120W        W 5984  16.968   1.076  25.865 -0.0638  0.0481  0.0776
 5121W        W 5985  14.327   2.377  25.578 -0.2233 -0.0019 -0.2311
 5122W        W 5986  18.620   1.501  21.541  0.1671  0.0850  0.1490
 5123W        W 5987  19.229   2.324  23.875 -0.0974  0.0565 -0.1206
 5124W        W 5988  17.790  28.959  21.719 -0.0449 -0.1570  0.1914
 5125W        W 5989  16.976   3.158  21.369 -0.1870  0.0523  0.2311
 5126W        W 5990  18.848   3.475  21.926  0.0418  0.3429 -0.1570
 5127W        W 5991  17.261  28.958  25.775  0.0495 -0.1755  0.1614
 5128W        W 5992  16.745   2.127  25.149 -0.0676  0.1196  0.0355
 5129W        W 5993  21.924   1.046  25.459  0.1936 -0.0386  0.0371
 5130W        W 5994  16.583   0.276  23.464  0.0529  0.3045 -0.2262
 5131W        W 5995  13.949   3.509  23.024 -0.3886 -0.1178 -0.0052
 5132W        W 5996  17.580  29.112  22.205  0.1479  0.3746 -0.4892
 5133W        W 5997  17.947   1.941  21.710 -0.2972 -0.0213 -0.2448
 5134W        W 5998  16.441  28.266  22.905  0.3655 -0.1661  0.2633
 5135W        W 5999  16.587   0.997  24.982 -0.0902  0.1285 -0.0623
 5136W        W 6000  20.609  28.769  26.619 -0.1300 -0.0883 -0.0253
 5137W        W 6001  17.099   2.662  22.370 -0.0840  0.0827  0.0235
 5138W        W 6002  15.925   3.728  24.191 -0.1697  0.1936  0.3835
 5139W        W 6003  15.808  28.310  23.769  0.0001 -0.1005  0.1034
 5140W        W 6004  14.456   3.169  26.672  0.2817  0.2593 -0.2103
 5141W        W 6005  14.689   2.134  21.513  0.1684  0.2724 -0.2069
 5142W        W 6006  17.992  27.898  22.297 -0.0285  0.0528  0.0776
 5143W        W 6007  15.953  29.063  23.525 -0.2295 -0.1784  0.0399
 5144W        W 6008  18.461   0.368  23.171  0.1118 -0.4504 -0.4099
 5145W        W 6009  19.398  29.000  22.371  0.3016 -0.0541 -0.3602
 5146W        W 6010  18.386  28.913  26.415  0.0979 -0.0038 -0.3151
 5147W        W 6011  18.304   1.574  21.911  0.4441 -0.2356  0.0794
 5148W        W 6012  16.610   4.709  24.312  0.0305 -0.0040  0.5140
 5149W        W 6013  16.016   1.212  21.120 -0.2785  0.2605  0.2361
 5150W        W 6014  13.589   5.611  24.661  0.1793 -0.1644  0.1253
 5151W        W 6015  16.722  27.963  25.377  0.0199 -0.1763 -0.1497
 5152W        W 6016  15.062  28.671  23.665  0.0285 -0.1298  0.0295
 5153W        W 6017  20.683   0.685  24.950  0.0370  0.1852 -0.2623
 5154W        W 6018  15.179   1.469  20.937 -0.1037  0.1280 -0.0411
 5155W        W 6019  19.203   1.766  21.873 -0.1220  0.1350 -0.0216
 5156W        W 6020  16.053   3.007  22.770 -0.2924 -0.4540 -0.1854
 5157W        W 6021  17.078   2.168  22.004 -0.3375  0.2597  0.0805
 5158W        W 6022  16.913  27.123  24.985 -0.0130 -0.2333 -0.1846
 5159W        W 6023  16.842   3.050  21.827  0.0291 -0.1295  0.1082
 5160W        W 6024  14.598   4.778  24.908  0.1621  0.2801 -0.0027
 5161W        W 6025  18.167   7.742  26.548 -0.0462  0.1575  0.2047
 5162W        W 6026  16.588   0.568  24.520 -0.0181 -0.0967  0.2041
 5163W        W 6027  15.773   2.306  22.060  0.0923  0.1511 -0.3015
 5164W        W 6028  18.635   2.365  22.522 -0.2720  0.1661 -0.3040
 5165W        W 6029  19.880   0.370  22.345  0.1603 -0.0416  0.0573
 5166W        W 6030  18.835   0.458  25.841  0.0965 -0.0025 -0.0084
 5167W        W 6031  19.029   3.167  24.776  0.0218  0.2802  0.2472
 5168W        W 6032  18.959   0.245  23.871  0.2257 -0.0624 -0.1445
 5169W        W 6033  18.561   0.153  22.215  0.0653 -0.0335  0.0108
 5170W        W 6034  17.641   2.545  24.820 -0.0136 -0.0830  0.1814
 5171W        W 6035  16.079   2.603  23.399 -0.0811 -0.2181 -0.1121
 5172W        W 6036  14.208   3.522  24.275 -0.0861 -0.0624 -0.1633
 5173W        W 6037  16.065   3.131  21.527 -0.1199 -0.0246 -0.2086
 5174W        W 6038  18.019   2.800  22.119 -0.1840 -0.3707 -0.1266
 5175W        W 6039  14.962   0.194  26.057  0.0718 -0.0413  0.0310
 5176W        W 6040  18.496   2.275  23.575 -0.0491 -0.2116  0.0762
 5177W        W 6041  14.970   1.931  21.101  0.0108 -0.1674  0.0573
 5178W        W 6042  18.369  28.549  23.223 -0.3440 -0.0657 -0.0284
 5179W        W 6043  15.839   0.379  23.980 -0.0965  0.0728 -0.0244
 5180W        W 6044  16.187  28.755  23.841  0.0708  0.0892  0.0088
 5181W        W 6045  16.388   2.738  22.554  0.2347  0.0901 -0.0482
 5182W        W 6046  16.660  27.292  24.589 -0.1394  0.3934  0.1336
 5183W        W 6047  11.012   3.206  21.944  0.1917 -0.2497  0.1484
 5184W        W 6048  12.898   1.669  23.044  0.0294 -0.0171 -0.1171
 5185W        W 6049  16.790  28.745  18.355  0.0541  0.1898  0.0292
 5186W        W 6050  14.282   2.674  25.209 -0.0348  0.1173  0.0562
 5187W        W 6051  17.622   0.174  20.905  0.0200 -0.2448 -0.2679
 5188W        W 6052  18.176  27.802  20.237  0.1925 -0.0599  0.0005
 5189W        W 6053  16.558   0.564  25.749  0.1857  0.1887  0.0179
 5190W        W 6054  15.137   1.575  24.008 -0.1577 -0.0023  0.1914
 5191W        W 6055  18.817  28.892  23.052  0.0148 -0.1949  0.0556
 5192W        W 6056  17.690   0.428  25.349 -0.2695  0.1551 -0.0593
 5193W        W 6057  16.796   2.673  24.393 -0.0675  0.2340 -0.0892
 5194W        W 6058  12.973   0.651  24.911  0.0500  0.1179  0.6100
 5195W        W 6059  19.525  28.083  21.361  0.0188 -0.1048 -0.2841
 5196W        W 6060  19.239   1.054  22.658 -0.3411 -0.1097 -0.1105
 5197W        W 6061  16.393   1.823  22.422  0.3248 -0.1484  0.0108
 5198W        W 6062  17.160   0.013  21.079  0.2586  0.1300 -0.1650
 5199W        W 6063  16.788   3.183  26.158  0.1947  0.2142 -0.3270
 5200W        W 6064  15.846   2.264  24.609  0.1264  0.2690 -0.1564
 5201W        W 6065  15.600   1.877  22.227  0.1161  0.0875 -0.2258
 5202W        W 6066  18.210   1.686  22.869 -0.3687 -0.0506  0.0644
 5203W        W 6067  18.597  28.810  22.173  0.2667  0.0213 -0.2080
 5204W        W 6068  16.972   3.429  22.783  0.0590  0.0400  0.2198
 5205W        W 6069  18.878   1.186  24.473  0.1469 -0.1385  0.1849
 5206W        W 6070  13.353   2.829  23.610  0.2239 -0.1955 -0.0112
 5207W        W 6071  17.130   2.177  20.581  0.2783  0.2030 -0.1081
 5208W        W 6072  13.994   1.255  25.030  0.4340 -0.1426  0.0065
 5209W        W 6073  16.251   1.850  24.734  0.1138  0.1137  0.0257
 5210W        W 6074  17.864   2.378  23.586  0.2541 -0.1352  0.0357
 5211W        W 6075  19.574   3.621  21.192 -0.0662  0.1957 -0.1863
 5212W        W 6076  16.310   5.055  24.359  0.1770  0.0363 -0.1769
 5213W        W 6077  19.528   2.651  24.710 -0.1091 -0.1486 -0.0657
 5214W        W 6078  16.923   0.054  26.366 -0.1118  0.1624 -0.2381
 5215W        W 6079  18.362  28.589  21.185  0.0207 -0.0613 -0.1501
 5216W        W 6080  15.704   1.965  21.681  0.1053  0.1609 -0.0857
 5217W        W 6081  16.520  26.290  23.036  0.1804 -0.0500 -0.1044
 5218W        W 6082  14.579   0.404  25.076 -0.1486  0.1902  0.3052
 5219W        W 6083  17.041  27.230  21.644 -0.0900 -0.2212  0.1286
 5220W        W 6084  17.660   4.953  23.790  0.0346  0.0519  0.0696
 5221W        W 6085  12.302   3.086  24.246  0.1597 -0.2526  0.0680
 5222W        W 6086  15.045   2.603  23.675 -0.1215 -0.1365 -0.3525
 5223W        W 6087  14.784  27.623  21.120 -0.0619  0.1466  0.1246
 5224W        W 6088  17.223   1.127  22.284 -0.0655 -0.1257 -0.0466
 5225W        W 6089  17.170   4.762  26.866 -0.1645  0.0988 -0.0696
 5226W        W 6090  17.054  28.193  24.181 -0.2725  0.1693  0.1499
 5227W        W 6091  15.408   3.812  25.084  0.1738 -0.1593  0.0435
 5228W        W 6092  17.830   2.950  21.584  0.0393 -0.0227  0.0358
 5229W        W 6093  13.298   4.521  25.322 -0.3100 -0.1311 -0.0950
 5230W        W 6094  16.610   0.929  19.839  0.0104 -0.0224  0.1017
 5231W        W 6095  16.833   2.655  21.128 -0.0038  0.2925  0.2076
 5232W        W 6096  17.376   2.009  23.552 -0.0805  0.0162 -0.0728
 5233W        W 6097  14.893   1.104  21.307  0.3061 -0.2027  0.1595
 5234W        W 6098  15.716   2.847  21.322  0.2403 -0.1119 -0.1352
 5235W        W 6099  16.390   1.433  20.641  0.0712 -0.0550 -0.0986
 5236W        W 6100  14.361   4.702  22.181  0.1727  0.2339  0.1444
 5237W        W 6101  17.085  27.620  25.289  0.0599 -0.0517  0.0040
 5238W        W 6102  18.093  28.784  22.319  0.3686 -0.2158 -0.2239
 5239W        W 6103  17.732   1.374  25.847 -0.0102  0.3038 -0.0398
 5240W        W 6104  16.206   3.902  25.697  0.2374 -0.1418  0.0744
 5241W        W 6105  18.049   3.225  25.415 -0.2525 -0.1818  0.1054
 5242W        W 6106  17.205   4.142  25.507 -0.2759 -0.2329 -0.0245
 5243W        W 6107  16.470   0.037  24.900 -0.5918 -0.4207 -0.2919
 5244W        W 6108  20.283   2.395  22.649 -0.0244  0.0975  0.4949
 5245W        W 6109  17.315   2.473  23.347  0.1380  0.3635 -0.1213
 5246W        W 6110  16.390   0.385  22.617  0.1774 -0.2457  0.0310
 5247W        W 6111  15.072   3.094  20.721 -0.2472  0.1156  0.2118
 5248W        W 6112  16.441  28.601  24.720  0.1577 -0.0883  0.0193
 5249W        W 6113  18.011   1.398  23.211  0.5180  0.0900 -0.2634
 5250W        W 6114  13.907   4.081  19.204 -0.0139  0.1131 -0.1474
 5251W        W 6115  20.990   1.012  26.174 -0.1955  0.0867 -0.0857
 5252W        W 6116  14.417   3.056  23.127  0.1036  0.1200 -0.4291
 5253W        W 6117  16.509  29.140  19.541 -0.1225  0.2703 -0.2087
 5254W        W 6118  16.143   1.622  23.690  0.0928  0.0649  0.0879
 5255W        W 6119  16.906   1.121  23.722 -0.1022  0.0725 -0.0524
 5256W        W 6120  14.468   0.252  22.339 -0.3184  0.1507 -0.2289
 5257W        W 6121  19.090   0.943  27.547  0.0360  0.1567 -0.3041
 5258W        W 6122  17.815  27.904  22.799 -0.1041  0.5003  0.0507
 5259W        W 6123  16.457   4.781  23.118  0.2069  0.0180 -0.1491
 5260W        W 6124  16.468   3.173  21.239  0.3248 -0.0916  0.2668
 5261W        W 6125  17.156   2.665  21.900 -0.0868  0.2097 -0.1420
 5262W        W 6126  18.635  27.677  23.983 -0.0830 -0.1392  0.2281
 5263W        W 6127  13.588   4.271  23.374  0.1449 -0.0293 -0.0935
 5264W        W 6128  16.527   1.517  25.146  0.1083  0.0121 -0.2848
 5265W        W 6129  13.479  28.644  27.002 -0.1011  0.0936  0.1571
 5266W        W 6130  14.405  27.345  21.966 -0.1250  0.2598 -0.0725
 5267W        W 6131  14.202   2.086  23.622 -0.1472 -0.1033 -0.1382
 5268W        W 6132  16.821  26.101  28.234  0.0374 -0.2031 -0.0453
 5269W        W 6133  14.931   1.374  22.892 -0.0981 -0.1260  0.1402
 5270W        W 6134  17.962  28.276  23.113  0.0243  0.0624 -0.1602
 5271W        W 6135  16.464   2.233  21.279  0.1611  0.3788 -0.1589
 5272W        W 6136  16.856   2.604  23.570 -0.3176 -0.0557  0.0734
 5273W        W 6137  15.558   1.108  21.014 -0.3286 -0.2061 -0.4709
 5274W        W 6138  19.497   0.418  24.336 -0.0791 -0.2530  0.3141
 5275W        W 6139  17.925   2.343  20.328 -0.0678  0.1401 -0.1521
 5276W        W 6140  16.980  28.776  24.685  0.3030  0.3426  0.0773
 5277W        W 6141  17.344   2.601  25.343 -0.0059 -0.0839 -0.0015
 5278W        W 6142  17.666   0.846  24.381 -0.0300 -0.0648 -0.1741
 5279W        W 6143  17.831   0.912  23.632 -0.2964  0.0407 -0.2209
 5280W        W 6144  18.170   1.391  23.662 -0.2880  0.0627 -0.0946
 5281W        W 6145  17.828   1.978  21.006 -0.0574  0.2339  0.1893
 5282W        W 6146  16.726   0.522  23.040  0.0665  0.0288 -0.1041
 5283W        W 6147  17.268   0.234  23.888  0.0376  0.0084 -0.0429
 5284W        W 6148  15.865   6.484  25.615  0.0682 -0.3215  0.0144
 5285W        W 6149  17.449   2.776  25.867 -0.0910  0.1370 -0.4314
 5286W        W 6150  15.113  28.693  24.238  0.0531  0.0286 -0.3819
 5287W        W 6151  17.511   0.497  24.710  0.0487 -0.1600  0.0296
 5288W        W 6152  14.631   2.045  23.326  0.2335 -0.1899  0.1746
 5289W        W 6153  14.374   2.609  23.336  0.1322 -0.0808 -0.0884
 5290W        W 6154  16.524   1.311  23.388 -0.0508  0.1237  0.1845
 5291W        W 6155  16.036   3.381  24.679 -0.0510  0.0062  0.1133
 5292W        W 6156  15.777   2.695  26.335 -0.1493  0.1663  0.0120
 5293W        W 6157  18.079   4.104  23.054  0.0146 -0.0321 -0.1854
 5294W        W 6158  18.557   3.227  23.553  0.1612 -0.1553 -0.0943
 5295W        W 6159  15.592   4.560  22.584 -0.1529  0.2499  0.5390
 5296W        W 6160  17.756   0.950  23.146  0.0781 -0.0359  0.1056
 5297W        W 6161  16.143   2.867  25.458  0.0357 -0.0650  0.2354
 5298W        W 6162  15.503   0.121  22.359 -0.1659  0.2024 -0.0909
 5299W        W 6163  14.679   3.271  22.280 -0.0203 -0.0618  0.1979
 5300W        W 6164  17.473   4.764  24.937 -0.1937 -0.2649 -0.0330
 5301W        W 6165  15.438   2.609  24.110 -0.1832  0.1135 -0.1496
 5302W        W 6166  17.198  28.889  26.697 -0.0538  0.2483 -0.2528
 5303W        W 6167  15.316   3.231  21.112  0.0910 -0.0498  0.3246
 5304W        W 6168  15.960   0.619  22.459  0.3763  0.2834  0.3706
 5305W        W 6169  15.426   0.823  21.828  0.0619 -0.1402  0.1394
 5306W        W 6170  15.407   0.664  21.297  0.0573  0.1204 -0.0481
 5307W        W 6171  14.444   2.879  24.741  0.2356 -0.1143 -0.0396
 5308W        W 6172  15.365  29.084  26.977  0.0164 -0.2994  0.2771
 5309W        W 6173  17.895   2.026  27.795  0.5841 -0.2081 -0.0866
 5310W        W 6174  18.251   1.600  28.027 -0.1550 -0.2730  0.2588
 5311W        W 6175  15.965   4.941  23.092 -0.0888  0.0206 -0.0178
 5312W        W 6176  12.135   1.168  25.180  0.4503  0.1209 -0.1216
 5313W        W 6177  14.523   1.716  23.771  0.0752 -0.1586 -0.0400
 5314W        W 6178  15.321   2.650  23.105  0.0998 -0.2953 -0.1786
 5315W        W 6179  15.500   2.564  28.031  0.2320 -0.3069  0.2125
 5316W        W 6180  14.729   0.349   0.913  0.3100 -0.2631 -0.1802
 5317W        W 6181  16.901   1.181   0.839  0.2357  0.2238  0.0070
 5318W        W 6182  16.904   1.679  27.832  0.1087 -0.1202  0.0296
 5319W        W 6183  15.936  28.659  25.736  0.0845 -0.0876  0.0091
 5320W        W 6184  17.371   1.453  27.989 -0.0835 -0.1436  0.0465
 5321W        W 6185  14.371   1.134   1.236  0.1547  0.0570  0.1110
 5322W        W 6186  15.759   3.869  27.710  0.2012  0.3229  0.2691
 5323W        W 6187  13.679   0.413  26.377  0.2844  0.0523  0.3274
 5324W        W 6188  15.123  28.632  27.104  0.3969  0.1229 -0.1176
 5325W        W 6189  15.982   2.244  26.277 -0.0319 -0.1824  0.1136
 5326W        W 6190  19.539   0.885  26.681  0.2259 -0.1919  0.0278
 5327W        W 6191  17.381   5.888  27.718 -0.2047  0.2385  0.3688
 5328W        W 6192  19.640   1.186  25.762  0.0425 -0.0797  0.1257
 5329W        W 6193  16.752   3.205  25.316  0.0753 -0.3220  0.1288
 5330W        W 6194  14.944   2.672  24.887  0.1538 -0.1810  0.0263
 5331W        W 6195  16.601   3.883  26.137 -0.0119 -0.2245  0.0069
 5332W        W 6196  16.120   2.684  24.944  0.0034  0.0374  0.3278
 5333W        W 6197  16.964   2.852  28.433 -0.2724  0.0733  0.0486
 5334W        W 6198  17.576   4.739  27.241  0.0538  0.1705  0.0133
 5335W        W 6199  17.255   2.443  26.169  0.0617 -0.0758 -0.0595
 5336W        W 6200  16.017   2.196  25.779  0.1282 -0.0207 -0.1968
 5337W        W 6201  18.809   0.984  25.031 -0.2397 -0.2283  0.0440
 5338W        W 6202  19.006   5.645  28.353 -0.1512 -0.3111  0.0748
 5339W        W 6203  14.470   2.374  28.729 -0.2008  0.0008 -0.1235
 5340W        W 6204  15.263   2.575  25.447 -0.0496 -0.5823  0.2425
 5341W        W 6205  15.168   2.374   1.364 -0.4010 -0.2905  0.1415
 5342W        W 6206  17.439   4.098  28.867  0.3704  0.0222 -0.2121
 5343W        W 6207  15.668   0.412  26.971 -0.1396  0.0988 -0.1397
 5344W        W 6208  17.212   2.444  26.695  0.0756  0.0010  0.0064
 5345W        W 6209  18.216   4.914  27.125  0.1050 -0.3433  0.1428
 5346W        W 6210  19.671   4.108  27.323  0.3681  0.0407  0.1293
 5347W        W 6211  19.270   1.252  25.385  0.1160 -0.2315 -0.0024
 5348W        W 6212  19.808   2.151  28.505  0.1645  0.0129 -0.0116
 5349W        W 6213  18.148   3.526  27.867 -0.0850 -0.2797 -0.1686
 5350W        W 6214  17.141   2.588  24.801  0.0288 -0.0388 -0.1658
 5351W        W 6215  16.557   3.305  23.461  0.0390  0.2359 -0.2823
 5352W        W 6216  16.171   4.620  22.610  0.0700 -0.0292 -0.1339
 5353W        W 6217  12.291   1.033   0.494 -0.0939  0.0049  0.0084
 5354W        W 6218  16.539   0.459  27.201 -0.2348 -0.2031 -0.1851
 5355W        W 6219  17.458   1.557  27.491  0.2126 -0.0116 -0.3596
 5356W        W 6220  15.292   3.095  27.932 -0.0581  0.2453 -0.0220
 5357W        W 6221  12.490   5.548  25.067  0.1409 -0.1520  0.3831
 5358W        W 6222  15.618   0.980  26.244 -0.1689 -0.1145 -0.2563
 5359W        W 6223  17.035   3.325  26.590  0.0123  0.3922 -0.1758
 5360W        W 6224  18.098   2.782  24.706  0.2740  0.0501 -0.0063
 5361W        W 6225  18.863   0.442  24.462  0.0492  0.1025  0.0487
 5362W        W 6226  17.493   3.011  24.695  0.0512  0.1961 -0.1488
 5363W        W 6227  14.138   0.494  27.487 -0.0583  0.1001  0.1211
 5364W        W 6228  19.681   0.796  25.412  0.2276 -0.0356 -0.1305
 5365W        W 6229  12.651   3.928  27.642  0.0546  0.0571  0.0484
 5366W        W 6230  16.782   2.200  26.365  0.2069  0.2459  0.0476
 5367W        W 6231  19.435  26.687  25.466  0.2641 -0.4211  0.0616
 5368W        W 6232  12.206   5.356  26.147 -0.2800  0.2729  0.2631
 5369W        W 6233  16.305   2.341  28.533 -0.1332  0.0487 -0.0147
 5370W        W 6234  15.036   5.156  25.668 -0.0138  0.2423 -0.1609
 5371W        W 6235  17.263  26.997  27.250  0.1881  0.0756  0.0667
 5372W        W 6236  19.158  27.452  27.036  0.2719 -0.2729  0.2310
 5373W        W 6237  15.084   1.036  25.807  0.0293 -0.1932  0.0233
 5374W        W 6238  14.075   2.061  27.889  0.1224 -0.0484  0.4134
 5375W        W 6239  16.559   2.481  24.825 -0.0219  0.1016  0.0687
 5376W        W 6240  15.002   2.171  24.899 -0.1746 -0.2283  0.1194
 5377W        W 6241  18.054   2.181  27.390 -0.2645  0.1354  0.2188
 5378W        W 6242  15.120   1.846  26.374  0.1323 -0.0337 -0.0541
 5379W        W 6243  17.699   0.934  21.978  0.1060 -0.0234  0.1540
 5380W        W 6244  20.926   1.796   1.030 -0.1671  0.0718 -0.0232
 5381W        W 6245  18.307   4.737  27.853 -0.0877  0.0150  0.1693
 5382W        W 6246  13.824   0.159  25.945 -0.0272  0.2098  0.0800
 5383W        W 6247  14.734   0.640  26.026  0.2352  0.2635 -0.0865
 5384W        W 6248  15.679   2.091  27.970 -0.0297  0.0675  0.2155
 5385W        W 6249  20.453   0.612  25.473 -0.0275  0.0462  0.2523
 5386W        W 6250  16.502   0.322  28.375  0.1161  0.0526  0.1199
 5387W        W 6251  15.056   0.374  27.670 -0.1178  0.0788  0.4448
 5388W        W 6252  18.280   2.802  28.944  0.0859 -0.2007  0.5322
 5389W        W 6253  13.505   0.652  28.365 -0.0763  0.0720 -0.1892
 5390W        W 6254  13.913   0.974  27.558  0.0341  0.2110 -0.0042
 5391W        W 6255  15.557   1.595  28.966 -0.1696 -0.0502 -0.0717
 5392W        W 6256  18.414   1.433  27.051  0.1608  0.0466 -0.3983
 5393W        W 6257  16.919   3.137   1.262  0.0829 -0.1423 -0.1328
 5394W        W 6258  16.706  27.972   1.117 -0.1704 -0.0818 -0.1017
 5395W        W 6259  15.578   2.825   0.607  0.2373 -0.1456 -0.2070
 5396W        W 6260  15.320   3.576  29.010  0.0093  0.0417  0.1296
 5397W        W 6261  16.868   1.521  25.604 -0.0211  0.1416  0.1342
 5398W        W 6262  18.772   0.095  28.089 -0.1703  0.3051 -0.3139
 5399W        W 6263  15.444   3.934  26.156 -0.2412  0.1540 -0.0679
 5400W        W 6264  14.252   0.258  27.902  0.1654  0.1385 -0.0084
 5401W        W 6265  15.300   1.579  25.797  0.1657  0.0945  0.1788
 5402W        W 6266  17.280   0.441  26.211  0.1666 -0.0423  0.0479
 5403W        W 6267  17.874   1.241  24.070 -0.0099  0.1653  0.2976
 5404W        W 6268  15.483   2.640  28.581  0.0218  0.0284  0.0862
 5405W        W 6269  15.985  29.099  24.854  0.0296  0.2443 -0.4535
 5406W        W 6270  20.320  29.124  26.883 -0.3608 -0.2491  0.1329
 5407W        W 6271  16.511   3.390  22.947 -0.1108  0.1101 -0.0385
 5408W        W 6272  14.556   2.075  24.113 -0.0302  0.0124  0.0512
 5409W        W 6273  18.362   0.879  24.367  0.1078  0.0119 -0.3499
 5410W        W 6274  18.246   4.537  26.572  0.1550 -0.0828  0.3664
 5411W        W 6275  18.731   1.607  27.834  0.0438  0.0236  0.0452
 5412W        W 6276  16.011   2.719  25.916 -0.1606 -0.1521  0.0932
 5413W        W 6277  15.389   3.529  25.891  0.3823 -0.4595  0.1663
 5414W        W 6278  17.307   2.137   3.119  0.1733  0.0455 -0.1469
 5415W        W 6279  17.300   0.353  27.140 -0.1436  0.0531  0.2828
 5416W        W 6280  14.984   2.374  26.760  0.4038  0.2529 -0.4022
 5417W        W 6281  16.413   0.295  29.014 -0.2532 -0.2618 -0.0469
 5418W        W 6282  15.803   4.854  26.358 -0.0782 -0.0394  0.0651
 5419W        W 6283  16.992   3.554  28.024 -0.0511  0.0824 -0.0339
 5420W        W 6284  16.489   4.375  28.081 -0.0438 -0.0619  0.3214
 5421W        W 6285  18.576   3.987  22.984 -0.1507 -0.0937  0.2653
 5422W        W 6286  17.991   3.212  24.903 -0.1188 -0.0663 -0.4506
 5423W        W 6287  15.742   3.025  26.831 -0.2105  0.1008 -0.0044
 5424W        W 6288  15.139   4.652  26.847 -0.0094 -0.0253 -0.0381
 5425W        W 6289  17.487   2.145  29.106  0.0264 -0.0002 -0.0440
 5426W        W 6290  18.610  28.571  26.993 -0.0569 -0.3220 -0.0855
 5427W        W 6291  20.681   0.939  27.535 -0.1938 -0.1846 -0.0071
 5428W        W 6292  19.216   4.670  26.768 -0.3843 -0.1752  0.2265
 5429W        W 6293  15.925   1.634  28.217 -0.1295 -0.1688 -0.0933
 5430W        W 6294  17.341   3.740  23.712  0.1082  0.1213 -0.0665
 5431W        W 6295  15.059   0.992  24.429  0.1570 -0.1068 -0.0400
 5432W        W 6296  19.643   1.172  27.503  0.0741 -0.2530 -0.1172
 5433W        W 6297  14.716   1.510  28.366  0.0937 -0.1350 -0.1049
 5434W        W 6298  17.654   2.042   0.456  0.2673 -0.0538 -0.1465
 5435W        W 6299  17.891   4.110  24.212  0.0565  0.2609 -0.2760
 5436W        W 6300  17.676   1.683  26.260 -0.2219  0.2005 -0.2073
 5437W        W 6301  15.846   2.821  27.732 -0.3182 -0.2011 -0.2659
 5438W        W 6302  17.577  28.362  28.027  0.3169  0.1756 -0.1908
 5439W        W 6303  13.344   3.349  26.101  0.1390  0.1564  0.0031
 5440W        W 6304  18.460   2.424  25.049  0.0802 -0.1714  0.0011
 5441W        W 6305  18.883   1.121  28.532  0.1168 -0.1176  0.0836
 5442W        W 6306  16.220  27.901  28.333 -0.0206  0.3291  0.0101
 5443W        W 6307  14.463   0.125  25.935 -0.0639 -0.0789 -0.2690
 5444W        W 6308  19.100   1.438  25.939 -0.1049 -0.0701  0.0073
 5445W        W 6309  14.681   3.750  24.914 -0.0601  0.1122 -0.0394
 5446W        W 6310  16.352   3.646  23.756  0.2434  0.0602 -0.0588
 5447W        W 6311  14.694  27.853  25.187 -0.1794  0.4252 -0.2891
 5448W        W 6312  15.132  28.175  24.374 -0.0502  0.1245  0.3924
 5449W        W 6313  15.717   3.866  24.736 -0.0783  0.0659 -0.0452
 5450W        W 6314  17.367  29.033  27.114 -0.1849  0.1009  0.3426
 5451W        W 6315  15.165   5.302  27.331  0.1378 -0.0457 -0.1101
 5452W        W 6316  14.756   1.071  26.287 -0.1386  0.0388 -0.1572
 5453W        W 6317  16.959  28.493  25.766 -0.2308  0.0306  0.1269
 5454W        W 6318  15.699   3.153  26.102 -0.1198 -0.0925 -0.0051
 5455W        W 6319  16.478   4.981  27.463 -0.0034 -0.0556 -0.1237
 5456W        W 6320  15.652   1.919   0.344 -0.0690 -0.3341  0.0866
 5457W        W 6321  19.237   1.659  26.992 -0.0768  0.3403 -0.0769
 5458W        W 6322  14.438   2.675  26.815  0.1653  0.1075  0.0762
 5459W        W 6323  14.967   1.371  24.932 -0.0669 -0.0099 -0.2531
 5460W        W 6324  16.208  28.379  27.469 -0.2128 -0.1655 -0.0278
 5461W        W 6325  16.116   1.480  28.984  0.0896  0.1464 -0.3124
 5462W        W 6326  18.097   0.192  28.598 -0.1126 -0.0162  0.0929
 5463W        W 6327  17.170   1.408  26.979  0.3385  0.1260  0.0032
 5464W        W 6328  16.701   0.536  25.160 -0.5799  0.3015  0.4232
 5465W        W 6329  15.149  28.872  26.412 -0.3259 -0.1097 -0.1361
 5466W        W 6330  17.500  28.527  25.987  0.0248  0.0844 -0.2386
 5467W        W 6331  17.690   0.587  28.560 -0.0708 -0.1922  0.0506
 5468W        W 6332  15.865   1.624  27.169  0.0725  0.0429 -0.2248
 5469W        W 6333  14.758   2.668  25.333  0.0741 -0.1385  0.4371
 5470W        W 6334  17.273   2.016  26.997 -0.4685 -0.0298  0.0240
 5471W        W 6335  15.912   1.957  29.024  0.0119  0.1402 -0.0784
 5472W        W 6336  15.979  27.400  28.358  0.0479  0.1063 -0.0223
 5473W        W 6337  16.089   0.713  26.194 -0.3200 -0.0980 -0.0090
 5474W        W 6338  15.312   3.888  26.739 -0.1062 -0.1731 -0.2010
 5475W        W 6339  15.648   3.837  27.193  0.1831  0.0150 -0.1290
 5476W        W 6340  16.327   3.380  25.463 -0.1989 -0.0304 -0.1928
 5477W        W 6341  19.553   0.687  27.215 -0.0940 -0.2875 -0.0565
 5478W        W 6342  16.335   2.136  26.653 -0.2484 -0.1188  0.1197
 5479W        W 6343  17.361   2.229  24.419  0.1068  0.3744 -0.4676
 5480W        W 6344  18.842   3.317  25.816  0.0244  0.0529 -0.3398
 5481W        W 6345  15.586  28.644  28.025  0.3034  0.0972 -0.1252
 5482W        W 6346  16.939  28.833  28.030  0.0828 -0.0698  0.1687
 5483W        W 6347  13.162   4.696  26.935  0.2148 -0.0112  0.1623
 5484W        W 6348  12.037   1.966  28.361 -0.1712 -0.0391  0.0912
 5485W        W 6349  13.482   2.113  28.720  0.1386  0.1504 -0.3625
 5486W        W 6350  14.954   2.189  25.387  0.0350 -0.0485 -0.0229
 5487W        W 6351  17.524   3.328  23.506  0.0288 -0.0716  0.2443
 5488W        W 6352  17.663   2.989  26.265 -0.4124  0.0380 -0.0260
 5489W        W 6353  17.400   2.135  25.008 -0.0130 -0.1522  0.2904
 5490W        W 6354  15.525   2.584  24.937  0.3063 -0.1077 -0.0981
 5491W        W 6355  18.318  26.979  25.301 -0.2415  0.1560  0.1629
 5492W        W 6356  18.529   0.239  26.551  0.4230  0.1623 -0.0961
 5493W        W 6357  17.751   1.199   0.274  0.4659  0.1986 -0.0943
 5494W        W 6358  15.656   1.545  25.418  0.0972 -0.2623  0.0021
 5495W        W 6359  16.854   2.106  24.657 -0.0668 -0.0732  0.1945
 5496W        W 6360  14.507   3.569  26.303  0.0582 -0.0804  0.0058
 5497W        W 6361  15.015   4.305  23.722 -0.0080  0.1248 -0.0103
 5498W        W 6362  15.079   3.125  25.608 -0.0755  0.0170  0.0347
 5499W        W 6363  15.009   3.705  26.382 -0.1089  0.0416 -0.3772
 5500W        W 6364  15.659   0.109  28.766 -0.0223 -0.0805  0.1879
 5501W        W 6365  16.088  28.706  28.210 -0.0764  0.0084  0.2158
 5502W        W 6366  16.066   0.874  25.682 -0.0000  0.1327 -0.1912
 5503W        W 6367  17.831   1.203  26.368  0.0366 -0.0474  0.0303
 5504W        W 6368  14.083   2.330   0.513  0.0131  0.2112  0.0249
 5505W        W 6369  13.998  27.248  26.514  0.1769  0.3169  0.2295
 5506W        W 6370  19.833   1.003  28.260 -0.1600 -0.2045 -0.0349
 5507W        W 6371  15.312   0.077  25.367  0.1162 -0.0464 -0.1719
 5508W        W 6372  18.268  28.844  28.440  0.2026  0.3267  0.1547
 5509W        W 6373  17.472   1.103  24.836 -0.0237  0.3020  0.2093
 5510W        W 6374  16.542  29.040   0.169 -0.1314  0.0072  0.1052
 5511W        W 6375  17.255   2.863  26.432 -0.0909 -0.0818  0.1636
 5512W        W 6376  15.948   1.723  26.226  0.2436  0.0972 -0.1188
 5513W        W 6377  17.863   1.182  28.289 -0.3419  0.0690  0.0071
 5514W        W 6378  14.867   3.605  25.883 -0.1118  0.1227 -0.2248
 5515W        W 6379  16.385   4.029  26.563 -0.0005 -0.2002 -0.1769
 5516W        W 6380  13.424   2.523  25.147 -0.0115 -0.1089  0.1573
 5517W        W 6381  15.785   3.590  28.815  0.1199  0.0068 -0.0967
 5518W        W 6382  15.185   2.437  26.284 -0.2593  0.0080 -0.2147
 5519W        W 6383  13.738   4.615  26.145  0.2095 -0.2039 -0.2852
 5520W        W 6384  15.218   0.311  26.649 -0.1142 -0.2703 -0.0036
 5521W        W 6385  18.601   1.599  28.364  0.3576  0.0102 -0.3728
 5522W        W 6386  19.023   1.731  25.525  0.2126 -0.3170 -0.1313
 5523W        W 6387  15.456   2.299  26.661 -0.3227 -0.2413 -0.1662
 5524W        W 6388  17.104   5.880  25.554  0.1318 -0.5126  0.2633
 5525W        W 6389  15.486   2.254  28.906 -0.1638  0.2096 -0.0863
 5526W        W 6390  14.488   2.086   0.411  0.2683 -0.2205 -0.0506
 5527W        W 6391  19.701  28.220  26.648 -0.3401 -0.0405 -0.0275
 5528W        W 6392  18.982   3.934  23.465  0.6142  0.2705  0.2447
 5529W        W 6393  16.700   3.636   1.120  0.0726 -0.0252 -0.3843
 5530W        W 6394  17.237   1.550  25.964  0.0297 -0.1958  0.1556
 5531W        W 6395  16.479   2.353  23.362  0.0698 -0.0978 -0.3036
 5532W        W 6396  14.992   2.708   0.362 -0.0777  0.1067  0.2415
 5533W        W 6397  15.482   5.585  27.607 -0.1423 -0.1996 -0.3423
 5534W        W 6398  18.650   2.940  28.024  0.0901  0.0941 -0.3032
 5535W        W 6399  15.455   5.018  26.695 -0.0093  0.4216 -0.1903
 5536W        W 6400  17.185   3.562  27.575  0.0065 -0.1483 -0.1311
 5537W        W 6401  14.867   2.611  27.983 -0.2251 -0.2668 -0.1618
 5538W        W 6402  16.517   3.106   0.405  0.3045 -0.1626 -0.0416
 5539W        W 6403  17.043   0.729  24.848  0.0925  0.1854  0.3138
 5540W        W 6404  14.648   0.462  27.425  0.2545  0.0110 -0.1112
 5541W        W 6405  15.260   1.284  25.384 -0.2344  0.0628  0.1743
 5542W        W 6406  18.924   3.199  25.296  0.1480 -0.4006 -0.1577
 5543W        W 6407  18.187  28.556  27.215  0.3712  0.1425  0.1976
 5544W        W 6408  17.965  28.727  27.986  0.1901  0.2044  0.1665
 5545W        W 6409  15.943   3.801  26.105  0.0951 -0.0770  0.0840
 5546W        W 6410  16.100   5.520  26.989 -0.1708 -0.1794  0.1022
 5547W        W 6411  16.861   2.695  25.196  0.0373 -0.1509  0.2727
 5548W        W 6412  14.759   2.389   0.052  0.1255 -0.2045  0.1625
 5549W        W 6413  17.696  28.594  27.103  0.2903  0.0048 -0.2288
 5550W        W 6414  14.233   2.884  26.306 -0.3966  0.2297  0.1698
 5551W        W 6415  16.832   2.107  28.151  0.1613 -0.2931 -0.0687
 5552W        W 6416  14.013   3.386  26.586  0.0731 -0.0744 -0.0025
 5553W        W 6417  16.049   1.714  25.704  0.0019  0.1302  0.0884
 5554W        W 6418  13.002   2.890  27.212 -0.2529 -0.0150 -0.3044
 5555W        W 6419  21.055   0.985  25.012 -0.1655  0.2509  0.1914
 5556W        W 6420  15.488   1.181  26.862 -0.0591  0.4069  0.0729
 5557W        W 6421  15.992   0.565  22.950  0.1315 -0.1921  0.0588
 5558W        W 6422  15.176   3.777  24.610  0.0724  0.1889 -0.0068
 5559W        W 6423  19.476   2.941  27.575 -0.2523  0.0064 -0.1371
 5560W        W 6424  16.620   0.630  26.298 -0.0967 -0.1085 -0.2044
 5561W        W 6425  13.672   2.276  22.778  0.2090  0.3355  0.0309
 5562W        W 6426  18.813   1.422  26.761  0.3225 -0.1868  0.0359
 5563W        W 6427  17.365   1.411  26.523  0.2918  0.0543  0.0842
 5564W        W 6428  18.069   3.206   1.453 -0.0662 -0.0715 -0.0309
 5565W        W 6429  16.849   4.173  25.178  0.0900 -0.0305 -0.0531
 5566W        W 6430  17.634   1.659  26.882  0.2602  0.1027  0.1398
 5567W        W 6431  16.319   3.468  25.995 -0.2389  0.2453  0.1632
 5568W        W 6432  16.859   1.915  25.962 -0.1654  0.2606  0.3104
 5569W        W 6433  17.560   2.074  27.423 -0.0525 -0.1743  0.0876
 5570W        W 6434  13.849  29.034  28.186  0.1783 -0.1681  0.1876
 5571W        W 6435  16.464   3.832  25.175 -0.0906  0.2818  0.2957
 5572W        W 6436  16.218   3.843  28.854 -0.1152 -0.0522 -0.1654
 5573W        W 6437  14.881   2.547  25.836 -0.0296 -0.3204  0.2485
 5574W        W 6438  19.326   2.475  26.870  0.0259 -0.0733  0.0786
 5575W        W 6439  16.035  29.016   0.097 -0.0277 -0.1484 -0.0839
 5576W        W 6440  17.897  28.869  25.035 -0.0149  0.4906  0.1439
 5577W        W 6441  14.878   4.115  26.026 -0.1826  0.1324  0.2123
 5578W        W 6442  14.856   1.520  26.119  0.0868  0.2190 -0.1410
 5579W        W 6443  18.370   1.971  28.602  0.3025  0.0578 -0.0660
 5580W        W 6444  15.656   1.328  28.568 -0.1737  0.1272  0.1833
 5581W        W 6445  17.242   1.941  28.501  0.1445  0.0307  0.1036
 5582W        W 6446  18.160   1.606  26.103  0.3876  0.1022  0.2564
 5583W        W 6447  15.605   0.407  28.322 -0.0520  0.1212  0.1255
 5584W        W 6448  16.741   2.761  26.594 -0.1687 -0.1143  0.1283
 5585W        W 6449  15.084   0.277  25.010 -0.0031  0.1526  0.1071
 5586W        W 6450  15.371   1.937  24.678  0.1716  0.3886  0.2532
 5587W        W 6451  14.529   1.806  26.510  0.0778 -0.0221  0.1421
 5588W        W 6452  15.177   1.722  25.269 -0.1274  0.0150  0.0116
 5589W        W 6453  13.568   1.203  25.397 -0.0412  0.0241  0.0271
 5590W        W 6454  15.251   2.943  26.057 -0.1342  0.3511 -0.0486
 5591W        W 6455  16.058   1.256  26.091  0.0323 -0.0629  0.1139
 5592W        W 6456  16.854  26.709  27.310 -0.1269  0.0897  0.0529
 5593W        W 6457  16.222   3.321  22.391 -0.0288 -0.1885  0.1128
 5594W        W 6458  13.637   3.943  28.734 -0.4362  0.2609  0.2092
 5595W        W 6459  18.813  28.654  28.456 -0.2497  0.1995 -0.1108
 5596W        W 6460  17.895   2.873  25.743  0.3143  0.0538 -0.2227
 5597W        W 6461  17.401   0.990  26.164 -0.2228  0.0664  0.0308
 5598W        W 6462  18.188   1.236  25.677  0.0587  0.0002  0.0191
 5599W        W 6463  18.771   2.756  28.909  0.2561  0.3230 -0.2968
 5600W        W 6464  13.754   0.638  25.935 -0.1222  0.0714 -0.1135
 5601W        W 6465  15.014   2.026  23.882  0.1186 -0.1034  0.0042
 5602W        W 6466  17.580   3.103  26.790 -0.0893  0.2479 -0.1417
 5603W        W 6467  16.497   0.990  27.283  0.3120 -0.1463  0.0010
 5604W        W 6468  19.832   2.057  27.429  0.0670 -0.1682 -0.1029
 5605W        W 6469  19.429  27.899  26.907 -0.1290  0.1138 -0.2712
 5606W        W 6470  15.846   1.678  24.569  0.2083 -0.3740 -0.1323
 5607W        W 6471  13.639   1.501  27.469 -0.4392 -0.3441 -0.1548
 5608W        W 6472  12.421   0.006   1.860  0.1692  0.1997 -0.2754
 5609W        W 6473  15.038   3.217  27.297  0.0257 -0.1009  0.4198
 5610W        W 6474  18.741   2.462  28.010 -0.0034  0.1721 -0.0286
 5611W        W 6475  19.804   2.819  23.397 -0.4499  0.0358  0.2690
 5612W        W 6476  15.251   1.689  27.736 -0.0879  0.3745 -0.2432
 5613W        W 6477  18.745  28.302  26.549 -0.0758 -0.1179  0.1511
 5614W        W 6478  16.287   2.315  25.216  0.1022 -0.0919  0.3531
 5615W        W 6479  15.177   0.711  28.020 -0.0490 -0.1068  0.1869
 5616W        W 6480  12.622   2.228  26.645 -0.1564 -0.1814 -0.0274
 5617W        W 6481  15.519   1.510  26.243 -0.2730  0.0719  0.3492
 5618W        W 6482  17.223   2.875   0.577 -0.1128 -0.1100  0.5076
 5619W        W 6483  16.252   2.596  24.313  0.0744 -0.5078 -0.2829
 5620W        W 6484  14.775   2.730  26.432 -0.0534  0.0900  0.1576
 5621W        W 6485  17.602   3.837   0.449  0.2389 -0.0166  0.1872
 5622W        W 6486  14.399   1.239  26.648  0.2037 -0.0894 -0.0872
 5623W        W 6487  17.731  27.009  27.033  0.0047 -0.0927  0.0956
 5624W        W 6488  16.623   4.859  28.232 -0.1140 -0.0587 -0.0024
 5625W        W 6489  14.488   1.254  27.469  0.3152 -0.0451  0.0650
 5626W        W 6490  13.150   1.396  26.337 -0.2274 -0.0949  0.1335
 5627W        W 6491  15.107   2.192  23.401 -0.5406 -0.0380 -0.2988
 5628W        W 6492  14.708   2.236  26.262  0.0838 -0.1098  0.0779
 5629W        W 6493  14.778   1.586  25.678 -0.1299 -0.1204  0.1330
 5630W        W 6494  13.626   2.169  26.103  0.2180  0.4215  0.1430
 5631W        W 6495  17.343   5.903  27.189  0.3586  0.0560 -0.0641
 5632W        W 6496  17.141   0.275  25.293 -0.2579 -0.1183 -0.2383
 5633W        W 6497  14.024   3.518  25.591 -0.2470 -0.0845 -0.0958
 5634W        W 6498  14.938   1.862  26.955  0.1995 -0.1744 -0.2630
 5635W        W 6499  12.111   2.462  26.024 -0.4152  0.2696 -0.0905
 5636W        W 6500  14.243   0.838  27.954 -0.2012 -0.0166  0.0080
 5637W        W 6501  18.845  26.670  23.659 -0.0499 -0.0510 -0.3551
 5638W        W 6502  17.812   0.937  28.898 -0.0983  0.1842 -0.2291
 5639W        W 6503  15.995   1.724  27.668  0.2045  0.1497  0.0907
 5640W        W 6504  18.159   1.359  29.093  0.0752  0.0108 -0.2345
 5641W        W 6505  18.284   3.512  28.386  0.0479 -0.1852  0.1361
 5642W        W 6506  15.919   3.579  25.165 -0.1222 -0.0115 -0.0080
 5643W        W 6507  21.480  28.431  26.026  0.3144 -0.1659  0.0174
 5644W        W 6508  18.763   0.969  25.906 -0.0813  0.0415  0.1288
 5645W        W 6509  13.676   1.064  28.976 -0.2492  0.0889 -0.3826
 5646W        W 6510  16.273   1.367  27.516 -0.3910 -0.2084  0.0702
 5647W        W 6511  15.984   1.439  26.567 -0.1894 -0.2811 -0.0856
 5648W        W 6512  17.534  28.787  27.577 -0.2556  0.2635  0.0102
 5649W        W 6513  15.774   2.869  24.550  0.1640  0.2313 -0.3217
 5650W        W 6514  16.679   2.655  28.804 -0.2977  0.0611 -0.0048
 5651W        W 6515  17.053   1.161  25.257  0.0106  0.3183 -0.0969
 5652W        W 6516  14.740   1.108  28.812  0.2391 -0.1668  0.0100
 5653W        W 6517  15.706   3.808  25.656 -0.1677 -0.1123 -0.1528
 5654W        W 6518  14.963   1.264  27.996 -0.0341  0.1502 -0.4914
 5655W        W 6519  18.864   1.524  25.067  0.2349  0.1500 -0.3000
 5656W        W 6520  16.585   1.052  25.453  0.1125  0.3727 -0.2073
 5657W        W 6521  18.997   4.235  25.603  0.3738  0.0356  0.0792
 5658W        W 6522  17.209   1.756  28.922 -0.0620  0.0724  0.0014
 5659W        W 6523  15.366   3.803  24.161 -0.1114  0.0174  0.1628
 5660W        W 6524  17.032   0.533  26.657 -0.0919  0.1802  0.2032
 5661W        W 6525  16.792   4.225  27.100  0.2364 -0.0985  0.1758
 5662W        W 6526  17.062   0.864  27.078 -0.2228  0.0442  0.1314
 5663W        W 6527  16.556  28.457   0.893 -0.0471  0.1684  0.0435
 5664W        W 6528  15.615   0.635  27.722 -0.1775 -0.0375  0.1225
 5665W        W 6529  16.558   0.752  23.544  0.1355  0.1937 -0.1474
 5666W        W 6530  13.075   1.812  28.645 -0.1056  0.0048 -0.1049
 5667W        W 6531  16.130   1.219  27.034  0.0513  0.2273 -0.0569
 5668W        W 6532  17.863   1.217  26.943 -0.3275 -0.1304  0.0529
 5669W        W 6533  15.044   6.001  26.676  0.0690 -0.1050 -0.1324
 5670W        W 6534  14.693   3.870  25.426  0.1179 -0.2267  0.1367
 5671W        W 6535  14.606   3.391  24.551  0.2543  0.0134  0.1315
 5672W        W 6536  17.858   0.703  26.392 -0.2537  0.0163 -0.1125
 5673W        W 6537  16.163   1.295  25.425  0.2762  0.1381  0.0946
 5674W        W 6538  17.769   2.144  26.981  0.0949  0.0646  0.0162
 5675W        W 6539  18.201   2.151  25.481 -0.1895  0.1954 -0.0998
 5676W        W 6540  19.351   1.400   1.444  0.1114 -0.2399  0.0805
 5677W        W 6541  16.382   2.285  22.765 -0.1146  0.2146 -0.0019
 5678W        W 6542  17.841   1.526  27.795  0.2425 -0.2674 -0.1620
 5679W        W 6543  17.220   2.371  23.930  0.3405 -0.0603  0.0472
 5680W        W 6544  16.892   1.995   1.363  0.0713 -0.1248 -0.0167
 5681W        W 6545  15.267   3.008  25.131 -0.3175 -0.2275  0.0673
 5682W        W 6546  16.701   4.422  25.686 -0.2751 -0.0851 -0.1145
 5683W        W 6547  16.164  29.105  28.747  0.2491  0.0450 -0.2349
 5684W        W 6548  13.088   3.645   1.509  0.0864  0.2096  0.3331
 5685W        W 6549  16.623   2.546  28.248 -0.0253  0.0813  0.0592
 5686W        W 6550  15.604   4.320  26.632  0.0333  0.3510 -0.2538
 5687W        W 6551  15.969   3.376  26.464 -0.0881 -0.1671  0.0580
 5688W        W 6552  18.584   1.691  25.823 -0.2602 -0.0407 -0.1655
 5689W        W 6553  13.932   3.985  28.258  0.2790 -0.0750 -0.1255
 5690W        W 6554  17.351   1.970  27.954 -0.0337 -0.1299  0.0592
 5691W        W 6555  18.848   5.130  26.815  0.0580 -0.2726 -0.0147
 5692W        W 6556  15.369   2.690  27.024  0.3310 -0.1932  0.1982
 5693W        W 6557  14.213   3.915  25.271  0.1645  0.0928 -0.1017
 5694W        W 6558  15.814   2.339  28.343  0.3040  0.1308  0.2632
 5695W        W 6559  16.494   3.494  26.499  0.0370 -0.0885 -0.2019
 5696W        W 6560  14.496   3.539   0.377  0.3074  0.2269  0.0789
 5697W        W 6561  17.674   2.646  26.622  0.3873  0.1509 -0.1878
 5698W        W 6562  17.493   3.180  25.591 -0.1752  0.0150 -0.1938
 5699W        W 6563  17.345   2.890  27.526 -0.0559  0.0099  0.2960
 5700W        W 6564  15.671   1.867  28.582 -0.0011 -0.0578  0.1193
 5701W        W 6565  16.449   2.485  25.719  0.2311 -0.1792  0.0207
 5702W        W 6566  15.271   2.223  28.224 -0.2860  0.1714 -0.0547
 5703W        W 6567  18.541   1.894  24.897 -0.2951  0.0298  0.6061
 5704W        W 6568  17.979   0.368  25.829 -0.2942 -0.3788 -0.5892
 5705W        W 6569  15.573   6.167   2.033 -0.0121  0.1448  0.0931
 5706W        W 6570  16.262   3.557   0.213  0.1769 -0.0919  0.0409
 5707W        W 6571  16.986   6.913  28.325 -0.0352  0.0387  0.1895
 5708W        W 6572  19.072   7.564   3.117  0.0964  0.1944 -0.0235
 5709W        W 6573  16.485   6.675  28.427  0.1960  0.0994  0.0266
 5710W        W 6574  15.713   6.160   0.791  0.3510  0.1708 -0.3430
 5711W        W 6575  13.498   6.027  28.563 -0.2857 -0.1778  0.2710
 5712W        W 6576  17.172   5.882   0.459 -0.3038  0.1583 -0.1908
 5713W        W 6577  14.094   5.826   2.876  0.4676 -0.1403 -0.1566
 5714W        W 6578  12.529   4.940   2.844 -0.2583 -0.4076  0.2511
 5715W        W 6579  17.951   3.518   1.100  0.2572  0.0428  0.2922
 5716W        W 6580  18.060   4.304   0.868  0.2651 -0.3157 -0.0888
 5717W        W 6581  15.386   5.251   1.341  0.1915  0.1441  0.1525
 5718W        W 6582  18.176   4.833   1.409 -0.0650 -0.0744  0.0573
 5719W        W 6583  14.072   2.404   2.337  0.1829 -0.1206 -0.0862
 5720W        W 6584  16.579   4.431   4.657  0.0207 -0.2997 -0.1094
 5721W        W 6585  15.296   9.362   0.965 -0.2156  0.0532  0.0583
 5722W        W 6586  12.167   3.507  28.438 -0.2264 -0.1776  0.0517
 5723W        W 6587  17.170   6.341   2.669  0.0560 -0.1007 -0.0753
 5724W        W 6588  19.768   5.332   0.275  0.1319 -0.0682  0.0747
 5725W        W 6589  18.726   6.091   3.755  0.2451 -0.0897 -0.2665
 5726W        W 6590  16.911   4.535   0.850  0.0505 -0.0130  0.0733
 5727W        W 6591  15.157   8.231   1.125  0.2706 -0.1006  0.1446
 5728W        W 6592  12.732   6.684   2.246  0.0680  0.2319  0.2292
 5729W        W 6593  12.251   6.858   3.524  0.2689 -0.1558 -0.2312
 5730W        W 6594  17.163   5.412   4.554  0.0870 -0.0616 -0.0302
 5731W        W 6595  18.480   6.918   3.270 -0.1901 -0.1337 -0.0099
 5732W        W 6596  17.067   6.739   0.005  0.2237 -0.0404 -0.2392
 5733W        W 6597  16.457   5.309   2.557  0.0312  0.0954  0.0879
 5734W        W 6598  15.009   3.143   2.878  0.4531 -0.5088  0.1398
 5735W        W 6599  16.513   5.311   1.518  0.2205 -0.2213  0.0688
 5736W        W 6600  16.822   8.546   1.984 -0.0412 -0.1013  0.0003
 5737W        W 6601  18.151   3.717   2.720 -0.2807  0.2122  0.3849
 5738W        W 6602  14.057   5.608   1.503 -0.0993  0.2693  0.0356
 5739W        W 6603  13.340   3.413   0.898  0.0334 -0.0640  0.2070
 5740W        W 6604  17.272   7.322   2.753 -0.0209  0.3779  0.1406
 5741W        W 6605  16.253   3.334  28.889 -0.1461  0.0345  0.1154
 5742W        W 6606  15.771   5.043   0.930  0.0986  0.0425 -0.1821
 5743W        W 6607  18.058   5.314   2.912 -0.1141  0.2375  0.2465
 5744W        W 6608  17.383   5.152   2.048  0.0096  0.0279  0.4700
 5745W        W 6609  16.472   4.037   1.439 -0.2219 -0.2634  0.0124
 5746W        W 6610  20.315   5.151   1.325 -0.2124 -0.0928  0.3113
 5747W        W 6611  18.425   9.252   4.023  0.1211 -0.0163  0.2087
 5748W        W 6612  17.122   6.321   0.700 -0.1016 -0.3163 -0.1090
 5749W        W 6613  14.162   7.117   1.596 -0.2504  0.0631  0.0701
 5750W        W 6614  14.859   6.631   2.402 -0.1570  0.3019  0.0765
 5751W        W 6615  14.798   2.930   2.013  0.1038  0.0549 -0.0895
 5752W        W 6616  14.191   4.596   2.375 -0.2676  0.4069 -0.0480
 5753W        W 6617  18.170   4.126   3.795  0.1193  0.1130  0.0366
 5754W        W 6618  16.575   4.089   0.883 -0.0118  0.0297 -0.1604
 5755W        W 6619  14.965   7.109   2.154 -0.2608  0.3923 -0.1187
 5756W        W 6620  16.815   4.177   0.375 -0.1166  0.0904 -0.1861
 5757W        W 6621  15.732   3.900   4.144 -0.1388 -0.1153 -0.2284
 5758W        W 6622  18.881   2.996  27.254 -0.1333  0.0447 -0.0023
 5759W        W 6623  15.737   3.324   0.127 -0.2327 -0.0598  0.1531
 5760W        W 6624  13.929   8.286   0.137  0.0724 -0.0746 -0.0477
 5761W        W 6625  15.831   3.883   0.016 -0.2500  0.1968  0.0316
 5762W        W 6626  15.017   5.627   0.721 -0.5038 -0.0900 -0.2523
 5763W        W 6627  14.523   5.500   2.701 -0.0521 -0.2576 -0.0694
 5764W        W 6628  20.166   2.810  28.087  0.0967 -0.2514  0.1103
 5765W        W 6629  15.885   7.494   2.462 -0.0180  0.0956  0.0336
 5766W        W 6630  17.426   4.340   4.611  0.3180  0.0215  0.1353
 5767W        W 6631  15.801   3.994   0.533 -0.1116  0.3348 -0.1151
 5768W        W 6632  16.717   3.226   4.038 -0.0873 -0.0218 -0.1750
 5769W        W 6633  19.044   5.807   1.317 -0.1130 -0.1210 -0.2009
 5770W        W 6634  16.681   6.558  27.391 -0.1287  0.2167 -0.1229
 5771W        W 6635  13.198   4.615  28.589 -0.0796  0.0621  0.1016
 5772W        W 6636  12.971   5.724   2.508  0.1587  0.0627  0.1170
 5773W        W 6637  15.356   4.777   1.199 -0.0073 -0.2639 -0.2097
 5774W        W 6638  18.244   8.209   1.863  0.0168  0.5335  0.0183
 5775W        W 6639  17.198   4.641   0.250 -0.1031  0.0712 -0.2007
 5776W        W 6640  17.711   5.526   2.061 -0.2733 -0.1026 -0.1016
 5777W        W 6641  16.557   5.804   1.247 -0.0777  0.1195  0.1629
 5778W        W 6642  15.806   5.012   1.532 -0.0850 -0.3060 -0.2235
 5779W        W 6643  15.027   6.956   3.884 -0.1913  0.2142 -0.0510
 5780W        W 6644  13.948   4.222   1.249  0.3436 -0.1319 -0.0554
 5781W        W 6645  15.056   5.655   1.391 -0.3727  0.2486  0.1520
 5782W        W 6646  14.090   5.422   2.378  0.0713  0.1753  0.0337
 5783W        W 6647  13.783   4.473   0.782 -0.2092  0.0482 -0.2042
 5784W        W 6648  13.673   3.617   2.074 -0.1610  0.0334 -0.2271
 5785W        W 6649  14.014   4.116   2.164 -0.1411  0.0310 -0.1338
 5786W        W 6650  16.962   3.401   2.785  0.3286 -0.1801 -0.0812
 5787W        W 6651  17.391   5.831   3.359 -0.2927 -0.0101 -0.0874
 5788W        W 6652  17.699   2.540   5.001 -0.0237 -0.0304  0.0214
 5789W        W 6653  19.702   1.595  28.468 -0.0645 -0.2193  0.1931
 5790W        W 6654  16.969   7.860   3.980  0.0175 -0.1397 -0.4139
 5791W        W 6655  15.983   1.172   3.821  0.2074 -0.0124 -0.1853
 5792W        W 6656  18.585   6.382   2.423  0.0774 -0.1234  0.1290
 5793W        W 6657  16.718   4.456   1.487 -0.1114  0.0662  0.0817
 5794W        W 6658  20.450   4.547   0.807  0.1646 -0.0369 -0.2060
 5795W        W 6659  18.948   6.631   4.537 -0.1395 -0.2326 -0.3755
 5796W        W 6660  14.693   5.297   2.230  0.0802 -0.1201 -0.1218
 5797W        W 6661  17.682   3.101  28.846 -0.0073 -0.0454 -0.0391
 5798W        W 6662  16.186   2.899   4.239  0.0750  0.0344  0.1513
 5799W        W 6663  16.995   5.076  29.051  0.0616 -0.2592  0.1452
 5800W        W 6664  18.082   7.365   0.489  0.2267 -0.1560  0.2738
 5801W        W 6665  14.408   7.032   4.006  0.2754 -0.1804  0.0146
 5802W        W 6666  17.564   5.140   2.896 -0.1518  0.0057  0.1832
 5803W        W 6667  15.728   4.201   2.291 -0.0477 -0.3127  0.4058
 5804W        W 6668  17.180   7.636  28.048 -0.0499 -0.2413 -0.0189
 5805W        W 6669  15.283   5.586  28.867  0.2746  0.0313  0.0224
 5806W        W 6670  19.421   4.391   0.749 -0.1504 -0.0641 -0.1131
 5807W        W 6671  19.673   3.879  29.105 -0.0713 -0.0335 -0.1360
 5808W        W 6672  20.078   4.832   2.625 -0.0423  0.0281 -0.0661
 5809W        W 6673  18.415   3.942   3.380  0.0934  0.2162 -0.1158
 5810W        W 6674  17.131   7.829   0.578 -0.2064  0.0748 -0.2640
 5811W        W 6675  17.285   5.188   1.434 -0.0049 -0.1838 -0.2351
 5812W        W 6676  17.298   4.218   0.609 -0.0912 -0.0375  0.2643
 5813W        W 6677  12.465   3.347   3.334  0.2797  0.0405  0.2313
 5814W        W 6678  15.780   3.214   1.380  0.0567 -0.0512  0.1036
 5815W        W 6679  15.544   6.941   0.663 -0.0322 -0.2284 -0.0905
 5816W        W 6680  16.366   5.350   0.901 -0.2340 -0.1013 -0.0657
 5817W        W 6681  17.169   6.205   1.725 -0.0542 -0.1259  0.0661
 5818W        W 6682  15.125   6.211   0.096 -0.1424  0.0053  0.0762
 5819W        W 6683  15.655   6.983   1.367  0.0754 -0.1216  0.2015
 5820W        W 6684  18.808   4.745   0.938 -0.1532 -0.2635  0.1903
 5821W        W 6685  15.363   3.934   1.323 -0.0306  0.1801  0.2564
 5822W        W 6686  17.878   4.014   1.839  0.2451  0.2671  0.2910
 5823W        W 6687  19.328   2.718   0.143 -0.2415 -0.0815 -0.2069
 5824W        W 6688  18.657   6.239  28.504  0.2243 -0.0000  0.0358
 5825W        W 6689  16.815   7.059   2.515 -0.2024  0.0326 -0.0469
 5826W        W 6690  16.261   4.907   1.336  0.1710  0.2228  0.0540
 5827W        W 6691  14.060   3.093   0.425  0.0538 -0.1049  0.1371
 5828W        W 6692  15.999   6.989   0.603  0.2268  0.0293 -0.0875
 5829W        W 6693  19.010   5.854   1.819 -0.1354 -0.2561 -0.0977
 5830W        W 6694  13.930   3.583   0.235 -0.3487 -0.1496 -0.0397
 5831W        W 6695  18.262   6.371   2.039  0.2031 -0.4979  0.2377
 5832W        W 6696  18.838   7.477   1.182  0.0472 -0.0850  0.4176
 5833W        W 6697  15.024   6.858  28.559 -0.0093 -0.0823 -0.0567
 5834W        W 6698  17.500   7.950   3.986 -0.0364  0.3045  0.3687
 5835W        W 6699  18.429   5.488   2.572  0.2098 -0.1222 -0.2169
 5836W        W 6700  17.111   8.782   3.056  0.0229  0.1957 -0.0466
 5837W        W 6701  17.787   6.229  28.811  0.0454  0.0065 -0.5122
 5838W        W 6702  19.001   6.444   2.675 -0.0545  0.1188  0.2220
 5839W        W 6703  13.683   3.251   4.422  0.2663 -0.2701 -0.0506
 5840W        W 6704  18.015   3.518   0.627 -0.1742  0.0046  0.0067
 5841W        W 6705  15.394   5.696   1.051  0.1082 -0.2407  0.1214
 5842W        W 6706  15.604   5.665   1.565  0.2271  0.0197 -0.0153
 5843W        W 6707  18.642   4.271  28.752 -0.1922  0.0171 -0.1676
 5844W        W 6708  14.556   3.906   1.870  0.2224  0.0901  0.1342
 5845W        W 6709  16.431   7.196   1.768  0.1437 -0.1262  0.0197
 5846W        W 6710  18.596  10.301  28.116  0.3597  0.1412 -0.0571
 5847W        W 6711  15.090   6.369  28.744  0.2226 -0.4250 -0.3683
 5848W        W 6712  15.980   2.807   1.759 -0.1032  0.0694  0.1597
 5849W        W 6713  14.631   3.656   1.325 -0.1726  0.0760  0.1241
 5850W        W 6714  18.620   5.644   1.361 -0.1521  0.2844  0.0991
 5851W        W 6715  17.284   8.780   2.219 -0.1801  0.1733 -0.0598
 5852W        W 6716  16.987   6.709   0.973  0.0538  0.1042 -0.0108
 5853W        W 6717  17.589   4.895   3.325  0.2257 -0.1470 -0.0455
 5854W        W 6718  18.380   8.994   3.277 -0.4476 -0.2836  0.0356
 5855W        W 6719  15.359   4.862   0.207 -0.0769  0.0727  0.1522
 5856W        W 6720  15.854   5.706   0.942 -0.1477 -0.1085 -0.0251
 5857W        W 6721  15.545   2.419   1.966  0.0288 -0.0753  0.1760
 5858W        W 6722  18.727   6.693   3.699  0.0310  0.2362 -0.3055
 5859W        W 6723  18.360   1.862   0.819  0.1194  0.0932 -0.2361
 5860W        W 6724  14.820   5.952   2.558 -0.1350  0.0640 -0.0554
 5861W        W 6725  16.795   5.990  29.022 -0.2959  0.2695 -0.3849
 5862W        W 6726  12.946   4.782  26.482 -0.3711 -0.2837 -0.0402
 5863W        W 6727  16.271   3.952  28.359  0.1131  0.2348 -0.1996
 5864W        W 6728  18.168   4.226   2.424 -0.0096  0.1614 -0.0708
 5865W        W 6729  15.537   5.623   2.797 -0.0340  0.2009 -0.0271
 5866W        W 6730  17.709   5.578   0.496 -0.0837  0.1205  0.0382
 5867W        W 6731  17.269   4.494   3.698  0.2778  0.0563  0.1752
 5868W        W 6732  16.438   5.143   5.291  0.0408  0.1367  0.1810
 5869W        W 6733  15.264   3.135   0.813 -0.0446 -0.1496 -0.0569
 5870W        W 6734  14.371   4.562   2.786 -0.1644  0.1410 -0.0883
 5871W        W 6735  15.205   7.131   0.229 -0.0815  0.0274  0.1606
 5872W        W 6736  15.188   6.670   2.062 -0.1438  0.1056 -0.1490
 5873W        W 6737  15.915   5.937  27.274 -0.0129 -0.0597 -0.0830
 5874W        W 6738  18.020   7.298  29.111 -0.2373  0.2244 -0.1825
 5875W        W 6739  14.872   4.248   0.332  0.0900  0.0258 -0.2104
 5876W        W 6740  16.467   5.672   4.070  0.1384 -0.2813  0.1257
 5877W        W 6741  17.082   6.275  27.577 -0.0203 -0.0914  0.0612
 5878W        W 6742  15.984   5.433   3.176  0.0191  0.2361 -0.3875
 5879W        W 6743  19.602   3.556   0.315  0.1725 -0.1220  0.1392
 5880W        W 6744  11.024   5.000   0.215  0.1498  0.3109  0.0826
 5881W        W 6745  14.304   4.334   3.262  0.0840 -0.0725 -0.0067
 5882W        W 6746  15.019   8.789  29.136  0.1401  0.0983  0.1767
 5883W        W 6747  15.835   2.433   3.095  0.1211  0.1025  0.1194
 5884W        W 6748  15.965  10.443  27.858  0.0810  0.2099 -0.0930
 5885W        W 6749  17.660   6.802  27.034 -0.1359  0.1217 -0.0480
 5886W        W 6750  14.944   4.927  28.686  0.1485  0.3547  0.0234
 5887W        W 6751  13.754   6.355   0.748 -0.0441  0.0210  0.2815
 5888W        W 6752  15.919   5.973  28.698  0.0862 -0.2258  0.1788
 5889W        W 6753  14.945   6.569   1.644  0.0214 -0.0466 -0.0152
 5890W        W 6754  17.544   3.834   1.010 -0.0745  0.1467 -0.0808
 5891W        W 6755  16.894   5.460  25.746  0.0969 -0.1670  0.1356
 5892W        W 6756  15.770   6.223   2.631 -0.1430 -0.2063  0.1751
 5893W        W 6757  14.668   5.898   0.977 -0.6615  0.0762 -0.0370
 5894W        W 6758  13.671   4.421  28.922  0.1211 -0.1017  0.0009
 5895W        W 6759  14.247   3.669   2.249  0.3018  0.0664 -0.1330
 5896W        W 6760  16.227   7.524   1.462  0.0526  0.0242  0.0047
 5897W        W 6761  15.779   1.593   2.205 -0.1458  0.0055 -0.3223
 5898W        W 6762  17.945   5.302   1.657  0.0211 -0.3541  0.1002
 5899W        W 6763  17.316   8.239   3.165  0.0889  0.2068 -0.1612
 5900W        W 6764  15.491   3.866   2.578  0.1001  0.1276 -0.0586
 5901W        W 6765  16.166   2.581  28.053 -0.1310  0.2192 -0.1743
 5902W        W 6766  15.866   6.642   0.333  0.1923  0.0207 -0.0417
 5903W        W 6767  19.775   3.355   0.792 -0.0849  0.1318 -0.3887
 5904W        W 6768  16.101   4.336  28.925 -0.1791  0.2595  0.0850
 5905W        W 6769  17.934   3.953   3.174 -0.5275 -0.2033  0.1545
 5906W        W 6770  18.038   5.001  28.168 -0.1538 -0.0153 -0.1627
 5907W        W 6771  18.895   3.803   4.102 -0.2191 -0.0905 -0.1570
 5908W        W 6772  17.428   4.662   4.177  0.2008  0.0698 -0.3644
 5909W        W 6773  14.825   6.217  27.760 -0.0753 -0.1179 -0.1468
 5910W        W 6774  14.200   2.943   1.782 -0.4040 -0.3210 -0.0633
 5911W        W 6775  16.651   4.844   2.710 -0.0065  0.1147 -0.0149
 5912W        W 6776  15.499   4.666   0.740 -0.0121 -0.0038  0.0656
 5913W        W 6777  12.539   6.871  29.008  0.0861 -0.0832  0.1213
 5914W        W 6778  15.491   4.461   3.507  0.1182 -0.5354  0.0466
 5915W        W 6779  13.935   6.573   2.788 -0.3715 -0.3351  0.1735
 5916W        W 6780  14.892   4.208   2.103 -0.0066  0.0633  0.0111
 5917W        W 6781  16.473   1.332   2.570  0.2108  0.2805  0.0385
 5918W        W 6782  19.047   6.218   2.186 -0.4329 -0.0135 -0.1057
 5919W        W 6783  16.852   7.486  28.945  0.0354  0.0155  0.3591
 5920W        W 6784  16.985   5.289   2.732  0.0186 -0.1939 -0.1112
 5921W        W 6785  17.003   5.535  28.403  0.3504 -0.0232 -0.0183
 5922W        W 6786  19.290   6.787   3.836 -0.1369 -0.1837 -0.0596
 5923W        W 6787  13.233   5.370   2.229  0.0174 -0.0818 -0.2736
 5924W        W 6788  16.429   0.649   2.798 -0.0670 -0.2861 -0.5244
 5925W        W 6789  17.193   5.781   2.078 -0.3487 -0.1041  0.0449
 5926W        W 6790  17.937   9.231   1.989  0.0546 -0.1244  0.2482
 5927W        W 6791  17.842   6.128  27.782  0.1818 -0.0345  0.3023
 5928W        W 6792  18.230   8.971  26.630 -0.0098 -0.1161  0.2266
 5929W        W 6793  15.563   5.419   0.627  0.2321 -0.2692 -0.1797
 5930W        W 6794  18.230   6.371   1.507 -0.1675  0.1885 -0.1152
 5931W        W 6795  15.025   4.197   3.231 -0.0389 -0.1002  0.0930
 5932W        W 6796  17.347   7.974  27.157 -0.1497  0.3423  0.0304
 5933W        W 6797  17.533   7.490   3.199  0.3235  0.4321  0.1538
 5934W        W 6798  13.401   5.015   3.754  0.2312  0.2523  0.0520
 5935W        W 6799  19.150   3.709   4.980  0.1816 -0.1202  0.3115
 5936W        W 6800  14.040   8.136  28.165 -0.2951 -0.1588  0.0164
 5937W        W 6801  17.603   4.803   1.581 -0.0891 -0.2402 -0.2390
 5938W        W 6802  14.286   3.999   0.372 -0.0110  0.2958  0.4486
 5939W        W 6803  14.830   6.455  28.244  0.0795 -0.0853  0.1117
 5940W        W 6804  18.620   4.996   0.526 -0.2382 -0.0057 -0.0672
 5941W        W 6805  18.006   6.115   0.558  0.3176 -0.0781 -0.0701
 5942W        W 6806  19.662   7.249   5.170 -0.3093 -0.0027  0.1010
 5943W        W 6807  17.628   8.887   1.775  0.1184  0.0652 -0.0499
 5944W        W 6808  17.442   5.940  28.543 -0.0101  0.2318 -0.0283
 5945W        W 6809  13.562   4.477   4.642  0.2669 -0.1179 -0.0356
 5946W        W 6810  16.475   5.139   0.315  0.1623  0.5691 -0.0309
 5947W        W 6811  15.210   4.246   0.700  0.0189  0.4176 -0.1956
 5948W        W 6812  14.513   4.411   0.601 -0.2393 -0.2862  0.2616
 5949W        W 6813  15.689   5.533  28.520 -0.3456 -0.0042 -0.0882
 5950W        W 6814  17.919   5.643   2.557 -0.0523 -0.0535 -0.0105
 5951W        W 6815  13.243   4.882   2.604  0.2988  0.3939 -0.3818
 5952W        W 6816  16.004   5.922   1.950 -0.0835 -0.0969 -0.0168
 5953W        W 6817  17.263   3.243   3.558 -0.1019  0.3087 -0.4857
 5954W        W 6818  16.222   5.680   2.329 -0.1679  0.0018 -0.0300
 5955W        W 6819  14.394   7.511   1.311 -0.2249 -0.1974 -0.1129
 5956W        W 6820  18.121   8.648   1.156  0.0216  0.1666  0.1153
 5957W        W 6821  16.462   5.286   2.008  0.2354 -0.0998 -0.0218
 5958W        W 6822  13.187   5.617   0.269 -0.0569  0.2275 -0.0402
 5959W        W 6823  16.946   7.149   1.819 -0.0369 -0.3110  0.0960
 5960W        W 6824  17.608   2.160  26.426 -0.0219  0.0078  0.2554
 5961W        W 6825  16.216   4.982   2.946  0.2628  0.2468  0.3365
 5962W        W 6826  16.081   7.775  28.926  0.0050  0.1883 -0.1151
 5963W        W 6827  16.943   6.627   2.352  0.0662  0.2007  0.0721
 5964W        W 6828  15.060   3.486   0.457 -0.0635 -0.2012 -0.4448
 5965W        W 6829  14.852   4.679   2.343  0.2069  0.3005  0.0682
 5966W        W 6830  18.196   5.314   2.137 -0.3652 -0.3558 -0.3616
 5967W        W 6831  16.463   5.671   3.491  0.0353 -0.2450  0.1365
 5968W        W 6832  16.160   6.434   2.063 -0.2812 -0.0465  0.3455
 5969W        W 6833  15.207   5.875   4.749  0.2160 -0.0208 -0.0483
 5970W        W 6834  15.262   6.939   1.102 -0.0214  0.2219 -0.1086
 5971W        W 6835  16.637   5.278  28.741 -0.1820  0.2157  0.0286
 5972W        W 6836  15.150   3.761   2.173 -0.0465  0.0066  0.4015
 5973W        W 6837  20.214   3.752  28.430 -0.3264 -0.2108 -0.0283
 5974W        W 6838  14.502   5.251  27.962 -0.1677 -0.0399  0.3173
 5975W        W 6839  16.569   4.303   2.579 -0.3224 -0.2905  0.0426
 5976W        W 6840  15.366   5.703   3.351  0.0031  0.1445 -0.2435
 5977W        W 6841  16.304   3.623   3.454  0.2661  0.1104 -0.1953
 5978W        W 6842  16.708   7.491   2.114 -0.0846 -0.0610  0.0055
 5979W        W 6843  18.187   2.995   4.178 -0.1973  0.0049  0.0238
 5980W        W 6844  14.788   4.208   1.577 -0.1705  0.0251  0.0838
 5981W        W 6845  13.598   6.895   2.891 -0.0061  0.1623  0.0837
 5982W        W 6846  16.717   5.598   0.572 -0.0364  0.0607 -0.0826
 5983W        W 6847  15.318   5.464   4.537  0.0308  0.3013  0.1460
 5984W        W 6848  18.081   5.956   2.952  0.1211  0.2506  0.0560
 5985W        W 6849  17.023   4.317  28.597 -0.0089  0.2747  0.0798
 5986W        W 6850  13.706   4.463  28.328 -0.0386  0.2237  0.0283
 5987W        W 6851  15.617   6.039   1.270 -0.2780 -0.1224  0.1250
 5988W        W 6852  17.371   5.250   0.244 -0.1612  0.2040 -0.0112
 5989W        W 6853  19.948   5.282   2.905 -0.1454 -0.3477 -0.2056
 5990W        W 6854  17.164   7.751   1.482 -0.2010  0.2121 -0.0471
 5991W        W 6855  14.522   3.353   4.303  0.0455 -0.4149 -0.2162
 5992W        W 6856  18.326   4.777   0.936 -0.2716  0.4212 -0.1319
 5993W        W 6857  13.877   5.003   2.136 -0.0287  0.1061 -0.0820
 5994W        W 6858  17.423   4.053   1.485  0.0733 -0.0897  0.0427
 5995W        W 6859  17.266   3.958   0.162 -0.0318  0.1053 -0.2870
 5996W        W 6860  18.022   4.752   0.460 -0.0536 -0.1854  0.2243
 5997W        W 6861  13.889   3.330   1.103  0.2068 -0.3347 -0.2387
 5998W        W 6862  16.632   5.840   2.788  0.0286  0.0038 -0.1755
 5999W        W 6863  16.639   2.859  27.846  0.0564  0.1803 -0.0428
 6000W        W 6864  12.783   3.797   1.920  0.0805 -0.0387 -0.0105
 6001W        W 6865  19.371   5.637   0.615 -0.0754  0.2040 -0.0304
 6002W        W 6866  16.933   5.136   2.252 -0.2131 -0.2782  0.0829
 6003W        W 6867  14.420   8.195   2.004 -0.0347  0.0380 -0.0174
 6004W        W 6868  14.468   4.295   1.113  0.3985  0.1579  0.1820
 6005W        W 6869  15.767   4.700   4.204 -0.1958 -0.1134  0.0457
 6006W        W 6870  15.591   5.130   2.978  0.0944 -0.1899 -0.3201
 6007W        W 6871  18.627   5.346  28.723 -0.0695  0.2722 -0.0871
 6008W        W 6872  16.962   6.098  28.546 -0.3137 -0.1056 -0.1412
 6009W        W 6873  15.885   8.854   3.629 -0.0406 -0.1160 -0.1077
 6010W        W 6874  19.388   7.317   3.763  0.1294  0.0695  0.0517
 6011W        W 6875  16.671   4.900   1.787 -0.0603 -0.0371  0.4633
 6012W        W 6876  18.226   5.659   0.452  0.0839 -0.2002  0.2050
 6013W        W 6877  12.278   5.851   1.257 -0.0029 -0.1315 -0.2173
 6014W        W 6878  17.029   4.314  27.538 -0.0380  0.0852 -0.5869
 6015W        W 6879  18.397   4.604   3.913  0.2726  0.0975 -0.4715
 6016W        W 6880  16.923   5.595   0.119  0.4064 -0.0897  0.1803
 6017W        W 6881  15.739   7.064   2.782  0.4345 -0.0437 -0.1355
 6018W        W 6882  15.676   7.121   0.157 -0.0580  0.1396 -0.2778
 6019W        W 6883  18.006   6.131   2.464 -0.1077  0.2669  0.2947
 6020W        W 6884  15.281   4.524   2.109 -0.3057  0.0364 -0.1577
 6021W        W 6885  14.503   4.199  28.424 -0.0580 -0.3388  0.0095
 6022W        W 6886  16.001   8.424   1.591 -0.1212 -0.0266 -0.0788
 6023W        W 6887  13.208   3.558   2.478 -0.0196 -0.0816 -0.1546
 6024W        W 6888  15.438   6.529   0.887 -0.1093 -0.1265  0.0618
 6025W        W 6889  20.360   6.248   0.562  0.0925  0.2107 -0.2044
 6026W        W 6890  15.712   4.504   4.661  0.3113  0.1702  0.1806
 6027W        W 6891  17.679   6.463   1.582  0.3245 -0.1913  0.0291
 6028W        W 6892  13.759   5.005   0.569  0.0459 -0.1162  0.0046
 6029W        W 6893  16.780   6.448   1.931  0.0391  0.3898 -0.1291
 6030W        W 6894  17.194   4.737   1.936 -0.1556 -0.1576  0.1457
 6031W        W 6895  13.697   6.768  28.263  0.1008 -0.0568  0.3044
 6032W        W 6896  18.028   1.908  26.567  0.2345 -0.3242 -0.3405
 6033W        W 6897  15.485   7.786   2.038  0.0471  0.1536  0.2523
 6034W        W 6898  13.896   4.731   2.777 -0.1488  0.2747  0.0033
 6035W        W 6899  17.885   1.704  27.318  0.0754  0.0497 -0.1001
 6036W        W 6900  19.447   8.216   1.675  0.2970  0.0147  0.0399
 6037W        W 6901  17.209   6.713   1.434  0.1065 -0.0960 -0.0621
 6038W        W 6902  19.472   6.395   2.396  0.1676 -0.2137  0.1736
 6039W        W 6903  17.050   9.987   3.845  0.0331  0.0659  0.1948
 6040W        W 6904  16.061   5.104  29.135 -0.3366  0.0860 -0.1795
 6041W        W 6905  17.249   6.182  28.927  0.0866 -0.4636  0.1112
 6042W        W 6906  15.616   5.264   3.489  0.0385 -0.4731 -0.1539
 6043W        W 6907  18.473   4.691   2.117  0.3025  0.1489 -0.0117
 6044W        W 6908  17.656   7.609   1.253  0.0641  0.0472  0.1271
 6045W        W 6909  14.269   3.722   2.768  0.0924 -0.0717  0.1808
 6046W        W 6910  14.300   4.699   4.153 -0.1214 -0.0052  0.2168
 6047W        W 6911  17.980   6.285   1.061 -0.2682  0.0365  0.2568
 6048W        W 6912  16.842   5.120   0.757 -0.0436  0.0196  0.2329
 6049W        W 6913  16.606   6.342   2.851  0.2536 -0.0150 -0.1953
 6050W        W 6914  13.938   5.872   2.148 -0.1263 -0.0299 -0.0856
 6051W        W 6915  15.701   4.661  29.049  0.0969  0.1458 -0.0223
 6052W        W 6916  16.252   4.052   0.274  0.2643  0.1543  0.0450
 6053W        W 6917  16.498   4.359  27.535 -0.0295 -0.1379  0.0161
 6054W        W 6918  19.844   7.764   3.141  0.2654  0.0642  0.0020
 6055W        W 6919  19.376   3.875   0.805  0.4820 -0.0725 -0.0668
 6056W        W 6920  19.067   7.737   3.612 -0.2050  0.3223  0.2488
 6057W        W 6921  15.430   7.485   1.479  0.1161 -0.1007 -0.1357
 6058W        W 6922  20.320   8.151  27.150 -0.1871 -0.0559 -0.0476
 6059W        W 6923  15.829   5.596  29.007 -0.0241 -0.0233 -0.0491
 6060W        W 6924  12.754   8.468   1.364 -0.1030 -0.1174  0.2614
 6061W        W 6925  17.517   5.587   1.614  0.1885  0.0659  0.2081
 6062W        W 6926  14.592   2.895   2.713 -0.3141 -0.1454 -0.0809
 6063W        W 6927  15.335   5.638   0.214  0.3202 -0.2723  0.0605
 6064W        W 6928  16.165   6.115   1.042  0.0760  0.0617 -0.0144
 6065W        W 6929  17.922   4.644   3.632 -0.2973  0.1519 -0.2285
 6066W        W 6930  17.023   3.812  28.810  0.1031 -0.2420 -0.0991
 6067W        W 6931  17.371   2.974   1.041  0.2313  0.3412  0.1042
 6068W        W 6932  16.306   4.907   0.819 -0.0107  0.0071  0.1368
 6069W        W 6933  17.244   7.752   3.502  0.2765 -0.0561 -0.1540
 6070W        W 6934  17.922   5.990  28.341 -0.1632 -0.0816  0.0765
 6071W        W 6935  16.539   3.585  28.575 -0.0446  0.3039  0.1217
 6072W        W 6936  17.132   3.279   1.722 -0.3083 -0.0661 -0.0560
 6073W        W 6937  14.776   1.789  27.903  0.3155 -0.2272  0.2873
 6074W        W 6938  14.752   4.843   0.126  0.6021 -0.1611 -0.3744
 6075W        W 6939  18.109   5.275   1.136 -0.0069 -0.1953  0.0737
 6076W        W 6940  16.549   3.862   1.971 -0.0226 -0.2915  0.1983
 6077W        W 6941  18.321   7.006   2.202 -0.1644  0.0690  0.0732
 6078W        W 6942  16.934   5.691  27.613  0.2433  0.1159  0.2447
 6079W        W 6943  16.723   3.666   3.770  0.4567  0.0319 -0.2727
 6080W        W 6944  15.379   3.864   0.298  0.0468  0.1043 -0.1691
 6081W        W 6945  18.255   7.853   2.552 -0.4538  0.0783 -0.2477
 6082W        W 6946  15.987   4.283   4.322  0.0924 -0.3103 -0.0168
 6083W        W 6947  15.248   3.318   1.944  0.0790  0.0276 -0.1127
 6084W        W 6948  18.507   5.359   3.118 -0.0273  0.2107 -0.1288
 6085W        W 6949  14.601   7.278   0.278 -0.3203 -0.2755  0.0760
 6086W        W 6950  13.911   5.077   1.648 -0.1098  0.0192  0.2121
 6087W        W 6951  18.225   6.609   0.621  0.0810 -0.3449 -0.3218
 6088W        W 6952  17.439   5.942   4.411 -0.0572  0.0034 -0.2772
 6089W        W 6953  16.711   4.327   3.120 -0.1099  0.0508  0.3403
 6090W        W 6954  15.201   6.084   1.682 -0.0428 -0.3020  0.0083
 6091W        W 6955  16.028   5.200   2.228 -0.0258  0.1311  0.3821
 6092W        W 6956  17.525   6.117   2.907 -0.3588  0.2148 -0.1191
 6093W        W 6957  16.563   7.931  28.265 -0.0860  0.0496 -0.3175
 6094W        W 6958  16.999   5.571   4.013  0.0798 -0.1183  0.0806
 6095W        W 6959  16.079   5.806   1.481  0.1713  0.2079 -0.1960
 6096W        W 6960  14.342   6.299   2.709 -0.1443  0.0774  0.2879
 6097W        W 6961  18.441   8.246   4.064  0.3226 -0.0199  0.2327
 6098W        W 6962  14.930   4.045   1.147 -0.3198 -0.0947 -0.1289
 6099W        W 6963  19.744   4.211   4.482  0.0831  0.0737 -0.1701
 6100W        W 6964  17.681   8.303  27.539  0.0446 -0.4658 -0.1153
 6101W        W 6965  16.940   6.126   2.305 -0.3617 -0.3496 -0.0720
 6102W        W 6966  18.144   8.299   0.176 -0.1719  0.2339  0.0431
 6103W        W 6967  14.203   4.745   0.767 -0.1316 -0.2101  0.1469
 6104W        W 6968  13.865   6.991   6.361  0.1065  0.1493  0.1157
 6105W        W 6969  16.402   5.638   5.224  0.1739  0.2378 -0.1051
 6106W        W 6970  20.533   6.329   5.243 -0.0496 -0.0347  0.2123
 6107W        W 6971  18.514   5.679   4.682 -0.0199 -0.3796  0.1443
 6108W        W 6972  15.506   8.051   5.006 -0.0272 -0.0217  0.1390
 6109W        W 6973  16.048   5.771   2.822 -0.0988  0.0662  0.1512
 6110W        W 6974  15.110   7.684   5.776 -0.2746  0.0026 -0.0841
 6111W        W 6975  15.907   4.075   3.387  0.0051 -0.3800 -0.2895
 6112W        W 6976  16.541   7.425   4.494  0.0726  0.0275  0.0357
 6113W        W 6977  14.378   3.975   4.461  0.2063 -0.1792  0.2639
 6114W        W 6978  16.551   0.776   7.454  0.2607  0.0514  0.0882
 6115W        W 6979  16.066   5.115   6.465 -0.1156  0.3067 -0.0992
 6116W        W 6980  18.128   6.628   2.470 -0.0677  0.0698 -0.0874
 6117W        W 6981  16.420   4.292   5.306 -0.2622 -0.0677  0.1491
 6118W        W 6982  12.711   3.143   6.919  0.3606  0.0850  0.1017
 6119W        W 6983  14.579   5.828   9.368 -0.2098  0.4278 -0.0495
 6120W        W 6984  15.419   6.817   4.200  0.1370  0.2778 -0.1855
 6121W        W 6985  15.116   5.635   4.117 -0.1669 -0.4156 -0.0132
 6122W        W 6986  16.023   6.745   7.617 -0.1129  0.0147 -0.0837
 6123W        W 6987  18.177   1.437   1.041  0.0380  0.3009 -0.3180
 6124W        W 6988  17.813   8.224   4.782 -0.0534  0.0391 -0.1495
 6125W        W 6989  17.074   4.694   4.598  0.1288 -0.3255  0.0699
 6126W        W 6990  17.343   8.776   5.912  0.0384  0.0049  0.0550
 6127W        W 6991  14.450   5.245   5.728  0.3914 -0.1489  0.1268
 6128W        W 6992  15.259   3.552   6.465  0.0862 -0.0581  0.3145
 6129W        W 6993  16.422   7.465   8.721  0.0443 -0.0977 -0.1372
 6130W        W 6994  15.146   7.545   6.238  0.0714  0.1260 -0.0487
 6131W        W 6995  16.025   5.693   5.607  0.0044 -0.0916  0.0683
 6132W        W 6996  16.209   7.969   6.347 -0.0366  0.0802 -0.0425
 6133W        W 6997  18.044   7.191   4.689  0.0061  0.0204 -0.1908
 6134W        W 6998  15.305   7.097   6.335  0.0439 -0.1390  0.1365
 6135W        W 6999  17.078   6.054   7.232 -0.0688  0.0184  0.2430
 6136W        W 7000  16.710   6.977   8.430  0.1461 -0.4924  0.0793
 6137W        W 7001  16.788   3.800   7.052  0.1436  0.0685 -0.1907
 6138W        W 7002  13.348   6.060   5.342  0.2709  0.0886  0.0085
 6139W        W 7003  15.480   8.270   8.289 -0.1257 -0.1350 -0.2842
 6140W        W 7004  15.812   6.602   5.895 -0.0379 -0.0807  0.1291
 6141W        W 7005  14.990   5.432   6.596  0.0096  0.0373  0.0798
 6142W        W 7006  19.629   7.818   5.018  0.1576 -0.0612 -0.3993
 6143W        W 7007  19.726   4.399   7.135 -0.2607  0.0124  0.0204
 6144W        W 7008  17.910   4.113   4.585 -0.1030 -0.0182 -0.0622
 6145W        W 7009  19.749   6.231   5.060  0.1469 -0.0472  0.3077
 6146W        W 7010  16.634   4.576   5.999  0.1289 -0.1236 -0.1447
 6147W        W 7011  17.093   8.297   4.637 -0.3868  0.3607  0.1596
 6148W        W 7012  15.541   6.345   4.098 -0.0623  0.1711 -0.0234
 6149W        W 7013  16.269   9.138   3.820  0.0908 -0.1045 -0.3695
 6150W        W 7014  13.317   3.733   3.933  0.0121  0.2576  0.1059
 6151W        W 7015  20.395   6.255   4.780  0.1865  0.1386  0.1552
 6152W        W 7016  16.183   2.295   6.299 -0.4592  0.0864 -0.1422
 6153W        W 7017  17.171   5.114   3.199  0.0253  0.1229 -0.0303
 6154W        W 7018  16.781   5.985   9.228 -0.1660 -0.0218 -0.0281
 6155W        W 7019  15.486   3.476   4.525  0.0520 -0.0826  0.1382
 6156W        W 7020  19.403   8.435   5.837  0.0008 -0.1426  0.1393
 6157W        W 7021  17.691   2.668   4.190  0.3035 -0.3235 -0.1051
 6158W        W 7022  16.663   2.901   4.442 -0.2611  0.0744  0.1294
 6159W        W 7023  14.660   2.741   3.275  0.1717 -0.0876  0.0009
 6160W        W 7024  14.800   4.957   3.562 -0.1306 -0.0289 -0.0611
 6161W        W 7025  16.886   6.243   3.929 -0.1010 -0.2389 -0.0140
 6162W        W 7026  15.816   5.693   6.081 -0.1589  0.1846 -0.2754
 6163W        W 7027  15.114   5.454   2.550  0.1302 -0.0134 -0.0603
 6164W        W 7028  17.167   4.593   3.239 -0.0949  0.2397  0.3739
 6165W        W 7029  15.764   7.020   5.624  0.0537 -0.3713  0.0024
 6166W        W 7030  15.288   8.131   6.947  0.1549  0.1257  0.1816
 6167W        W 7031  16.224   6.168   3.072  0.1574  0.0880 -0.1095
 6168W        W 7032  18.013   4.736   7.472 -0.0022 -0.1344  0.1019
 6169W        W 7033  17.785   4.222   6.522 -0.1925  0.1563 -0.2868
 6170W        W 7034  14.328   3.119   3.456 -0.0853 -0.0952 -0.2928
 6171W        W 7035  17.204   4.310   5.501  0.1930  0.0243 -0.1764
 6172W        W 7036  14.836   7.041   4.341  0.1681  0.0211 -0.0186
 6173W        W 7037  14.739   5.985   3.924  0.2367 -0.0730  0.2160
 6174W        W 7038  17.706   7.340   5.045  0.2366  0.0148  0.2659
 6175W        W 7039  16.626   4.045   3.483 -0.3088 -0.1023 -0.1273
 6176W        W 7040  18.859   8.494   5.353  0.0768  0.1707 -0.0938
 6177W        W 7041  15.016   5.276   5.517 -0.0370 -0.3948  0.1952
 6178W        W 7042  18.896   8.096   3.177 -0.0232  0.0296 -0.1037
 6179W        W 7043  16.269   8.966   5.704 -0.2947  0.0303  0.0154
 6180W        W 7044  16.863   5.917   5.804  0.1735 -0.0603  0.1025
 6181W        W 7045  14.212   5.391   7.028  0.0073 -0.2103 -0.1875
 6182W        W 7046  17.055   4.813   5.998  0.0438 -0.0061 -0.2509
 6183W        W 7047  17.827   2.221   3.994 -0.1634  0.2040 -0.1254
 6184W        W 7048  14.012   5.884   7.065  0.0802 -0.3211  0.2030
 6185W        W 7049  15.235   6.899   7.573  0.1657  0.0279 -0.4296
 6186W        W 7050  15.052   5.042   6.964 -0.0481 -0.0931 -0.0251
 6187W        W 7051  15.581   4.039   5.138 -0.3420 -0.1642  0.0450
 6188W        W 7052  17.082   4.327   7.004  0.2407  0.1214 -0.0029
 6189W        W 7053  17.506   4.470   5.100  0.5296 -0.1706 -0.1460
 6190W        W 7054  18.260   6.695   6.801  0.2070 -0.3140 -0.2441
 6191W        W 7055  16.829   1.381   4.316 -0.0471 -0.1233  0.2905
 6192W        W 7056  17.961   4.381   6.069  0.0385  0.0173 -0.1848
 6193W        W 7057  15.516   5.119   5.311  0.1099 -0.0453  0.0254
 6194W        W 7058  19.985   1.367   4.146 -0.1213 -0.0653  0.0393
 6195W        W 7059  16.414   8.310   8.658  0.0919 -0.1895 -0.0287
 6196W        W 7060  17.090   6.807   2.872 -0.3674 -0.2217  0.2462
 6197W        W 7061  18.681   5.194   2.268 -0.2032 -0.0955 -0.0501
 6198W        W 7062  12.844   2.688   7.106 -0.2107  0.3103  0.0923
 6199W        W 7063  17.891   4.435   1.513 -0.2760 -0.3057 -0.0513
 6200W        W 7064  19.900   3.928   3.140  0.3230  0.0378 -0.4205
 6201W        W 7065  16.363   6.856   8.043  0.0703 -0.1223 -0.1416
 6202W        W 7066  14.004   3.256   2.131  0.1254  0.0482  0.0031
 6203W        W 7067  17.642   2.196   3.528 -0.2157  0.1509 -0.2143
 6204W        W 7068  20.341   6.712   3.961  0.0474 -0.1622  0.1355
 6205W        W 7069  16.149   8.804   6.323 -0.0954 -0.2579  0.1133
 6206W        W 7070  14.995   5.333   1.736 -0.0721  0.1536  0.0122
 6207W        W 7071  18.606   5.573   4.082  0.0877 -0.0207  0.0603
 6208W        W 7072  18.951   5.297   5.677 -0.0063 -0.1051 -0.3535
 6209W        W 7073  16.440   4.428   4.116 -0.1910 -0.1349  0.0004
 6210W        W 7074  16.700   6.923   5.863  0.3144  0.1371  0.3889
 6211W        W 7075  19.296   4.693   7.316  0.1731  0.3705  0.0115
 6212W        W 7076  19.056   5.316   4.163  0.2192  0.1736 -0.2916
 6213W        W 7077  15.176   5.916   2.872  0.3253  0.1089  0.0317
 6214W        W 7078  14.022   3.243   5.540  0.0544 -0.0960 -0.2004
 6215W        W 7079  18.828   6.916   4.127  0.0010  0.0345  0.2320
 6216W        W 7080  17.473   5.159   6.728 -0.1338  0.1843 -0.0421
 6217W        W 7081  17.446   7.770   6.388  0.0511  0.0004  0.1674
 6218W        W 7082  18.487   7.653   3.979 -0.0511  0.1665 -0.0470
 6219W        W 7083  15.508   3.947   3.595  0.1611  0.0240  0.4062
 6220W        W 7084  18.910   2.694   5.653  0.0532  0.0114  0.0428
 6221W        W 7085  15.768   7.190   6.637  0.3063  0.0040  0.0491
 6222W        W 7086  18.168   6.995   5.590 -0.0115  0.1738  0.0573
 6223W        W 7087  17.453   2.949   2.020 -0.0037  0.1017  0.3060
 6224W        W 7088  16.669   5.361   4.430 -0.0231 -0.3818  0.0823
 6225W        W 7089  15.484   8.028   4.463 -0.3264 -0.1302  0.1999
 6226W        W 7090  17.957   6.557   3.066  0.2195  0.1193 -0.1294
 6227W        W 7091  19.868   6.560   3.050  0.0617  0.1298 -0.2572
 6228W        W 7092  16.803   4.671   5.512  0.3133 -0.2835  0.0145
 6229W        W 7093  17.223   3.040   4.031  0.1138 -0.1399 -0.0609
 6230W        W 7094  17.422   4.918   4.866  0.3094 -0.1483 -0.0886
 6231W        W 7095  18.025   5.223   7.351 -0.2934 -0.4377 -0.1017
 6232W        W 7096  17.285   5.390   3.636 -0.2439 -0.1362 -0.0098
 6233W        W 7097  19.158   7.019   4.701  0.3226  0.0591  0.0357
 6234W        W 7098  16.638   5.914   9.788  0.0504 -0.2053  0.2225
 6235W        W 7099  15.150   1.908   3.035  0.0950 -0.1196 -0.2326
 6236W        W 7100  16.988   4.469   5.020 -0.2048 -0.1815 -0.0671
 6237W        W 7101  16.596   3.132   2.569  0.0952  0.0013  0.0264
 6238W        W 7102  18.181   5.889   3.774  0.3365  0.0391  0.0795
 6239W        W 7103  13.885   4.699   4.962 -0.1835  0.0182  0.0982
 6240W        W 7104  17.311   4.053   4.049  0.1958  0.0145  0.0486
 6241W        W 7105  18.746   5.532   5.134 -0.1198  0.0147 -0.0646
 6242W        W 7106  15.637   2.947   4.326  0.1646  0.4085 -0.0731
 6243W        W 7107  16.537   6.578   3.900  0.3518 -0.1459  0.1311
 6244W        W 7108  16.868   2.353   2.807  0.1909 -0.0163 -0.1039
 6245W        W 7109  14.839   4.727   4.483 -0.2505 -0.3844  0.0533
 6246W        W 7110  16.660   8.357   3.949 -0.1838 -0.3288 -0.0575
 6247W        W 7111  14.574   6.248   2.172 -0.0628 -0.3046 -0.0966
 6248W        W 7112  16.060   6.080   5.896  0.4909 -0.1294  0.0136
 6249W        W 7113  16.310   3.894   7.147  0.0406  0.1934 -0.0999
 6250W        W 7114  19.796   3.704   2.703 -0.1244  0.1016  0.1235
 6251W        W 7115  16.853   7.172   4.949  0.2374  0.1770 -0.2321
 6252W        W 7116  17.393   8.738   7.562  0.4602 -0.1836  0.1416
 6253W        W 7117  13.850   6.220   4.510  0.0035  0.1631 -0.0000
 6254W        W 7118  17.958   5.172   6.317 -0.2637  0.3033 -0.0041
 6255W        W 7119  16.368   5.104   3.470 -0.3573  0.2681 -0.2901
 6256W        W 7120  16.009   6.997   7.143 -0.1894 -0.0852  0.0929
 6257W        W 7121  15.949   2.893   2.806  0.3020 -0.1795  0.3755
 6258W        W 7122  17.020   7.627   3.070  0.1902 -0.0353  0.0362
 6259W        W 7123  16.490   2.036   5.556 -0.2323 -0.2623 -0.0724
 6260W        W 7124  13.813   5.782   3.425 -0.0112  0.0923 -0.3029
 6261W        W 7125  16.936   5.202   5.475  0.0472  0.2068  0.0955
 6262W        W 7126  14.952   3.623   4.595 -0.0225  0.0779  0.0503
 6263W        W 7127  16.077   6.983   5.212 -0.1927 -0.0700  0.3205
 6264W        W 7128  18.190   3.078   5.486  0.1845 -0.0801 -0.2077
 6265W        W 7129  15.940   5.459   5.130 -0.2078  0.0360  0.1165
 6266W        W 7130  15.732   7.083   9.347 -0.2142  0.1633  0.1871
 6267W        W 7131  16.197   7.555   5.893 -0.1733  0.0706  0.1281
 6268W        W 7132  16.664   5.194   7.074  0.1215  0.1851  0.0239
 6269W        W 7133  16.086   3.201   5.196  0.0703 -0.1747  0.2069
 6270W        W 7134  15.538   4.532   6.091 -0.2311  0.2035 -0.1071
 6271W        W 7135  16.310   5.834   4.690  0.2925 -0.1795 -0.0416
 6272W        W 7136  15.973   8.166   4.883 -0.4254  0.2657  0.1215
 6273W        W 7137  16.179   4.488   1.647  0.1857  0.0594  0.0188
 6274W        W 7138  18.049   5.891   7.973  0.1224  0.0055  0.1054
 6275W        W 7139  20.246   6.728   5.276  0.1682  0.1051  0.0369
 6276W        W 7140  15.195   7.416   3.447  0.0429  0.0132 -0.3740
 6277W        W 7141  17.438   8.921   4.274 -0.0904 -0.1089  0.0860
 6278W        W 7142  16.782   2.012   7.110 -0.0263  0.1224 -0.3517
 6279W        W 7143  19.321   4.697   3.338 -0.0797  0.1331 -0.0972
 6280W        W 7144  15.671   5.251   7.366  0.2167 -0.2016  0.1251
 6281W        W 7145  15.760   4.769   5.679 -0.1687  0.2068  0.1276
 6282W        W 7146  16.168   8.463   3.924 -0.0943  0.3860 -0.0191
 6283W        W 7147  17.317   5.660   8.507 -0.2517  0.0529  0.1724
 6284W        W 7148  15.358   6.743   4.733 -0.2027 -0.2838  0.0316
 6285W        W 7149  17.379   8.090   5.209  0.0143 -0.0796  0.0804
 6286W        W 7150  15.535   5.218   2.450 -0.0963 -0.1759 -0.0176
 6287W        W 7151  16.745   2.228   3.879 -0.2408 -0.4739  0.0108
 6288W        W 7152  13.355   4.417   2.689 -0.4387 -0.0146  0.0505
 6289W        W 7153  16.514   3.687   6.016 -0.1331  0.0380  0.4588
 6290W        W 7154  17.962   2.879   2.398 -0.2179 -0.0346  0.0515
 6291W        W 7155  15.145   1.506   3.502  0.1357  0.0503  0.4682
 6292W        W 7156  16.205   7.741   8.331 -0.0750  0.0361 -0.0897
 6293W        W 7157  17.215   5.901   6.149  0.0010  0.1666 -0.1511
 6294W        W 7158  16.796   5.348   3.543 -0.1375 -0.0547  0.0272
 6295W        W 7159  14.892   5.089   2.754 -0.0598  0.0238  0.0032
 6296W        W 7160  17.349   6.275   3.595  0.3183 -0.2733 -0.1870
 6297W        W 7161  13.773   0.762   7.088  0.2830 -0.3945  0.1629
 6298W        W 7162  18.415   4.888   4.814  0.1904  0.1707  0.1291
 6299W        W 7163  14.465   2.990   3.964  0.1714  0.2130  0.1940
 6300W        W 7164  16.470   2.924   6.305  0.0959  0.0343 -0.2519
 6301W        W 7165  14.839   3.175   3.454  0.0680 -0.2138 -0.2710
 6302W        W 7166  15.905   4.359   5.363  0.0704 -0.0698 -0.2882
 6303W        W 7167  16.423   0.531   4.524  0.0603 -0.0289  0.2307
 6304W        W 7168  15.690   4.496   1.748 -0.0057  0.2284 -0.1721
 6305W        W 7169  18.606   2.857   3.887 -0.1247  0.0104 -0.1273
 6306W        W 7170  20.500   6.782   2.542 -0.0120 -0.0177  0.0988
 6307W        W 7171  15.612   3.137   5.228 -0.1805  0.1656 -0.1313
 6308W        W 7172  16.268   4.620   5.601 -0.1046 -0.0797  0.1112
 6309W        W 7173  14.641   5.305   3.109 -0.1531 -0.0936  0.0659
 6310W        W 7174  15.434   7.214   7.194 -0.1216  0.1237 -0.4898
 6311W        W 7175  15.903   3.044   5.670 -0.0815 -0.1419 -0.2253
 6312W        W 7176  14.621   7.715   4.927 -0.1518  0.0422  0.3737
 6313W        W 7177  14.324   2.832   5.469 -0.1058 -0.1508  0.3583
 6314W        W 7178  13.632   7.074   9.556  0.1154 -0.0830 -0.1997
 6315W        W 7179  14.996   4.703   8.349  0.1138  0.0699 -0.1225
 6316W        W 7180  16.016   6.430   3.930 -0.1644 -0.0796  0.1132
 6317W        W 7181  21.976   3.550   9.642  0.1098 -0.2602 -0.1557
 6318W        W 7182  16.527   2.481   7.126  0.1071  0.1295  0.0520
 6319W        W 7183  17.362   5.478   2.446 -0.1877 -0.0762 -0.0968
 6320W        W 7184  17.316   3.493   5.173  0.1430  0.0008 -0.1874
 6321W        W 7185  17.524   5.959   2.402  0.2894 -0.4626 -0.2438
 6322W        W 7186  17.075   3.786   5.506 -0.1208  0.0388 -0.1224
 6323W        W 7187  17.731   5.836   5.820 -0.1101  0.1191  0.2055
 6324W        W 7188  17.795   6.530   6.559  0.1292 -0.1729 -0.3547
 6325W        W 7189  16.402   6.927   4.761  0.3191 -0.0723  0.0911
 6326W        W 7190  13.348   6.761   7.701  0.2602  0.0037 -0.1281
 6327W        W 7191  15.675   2.645   4.758  0.1490  0.0829 -0.0418
 6328W        W 7192  18.504   6.539   1.048  0.3922  0.2594 -0.0106
 6329W        W 7193  15.920   3.439   7.094  0.2939 -0.2944 -0.1232
 6330W        W 7194  14.562   7.196   4.701  0.0640 -0.1493 -0.1181
 6331W        W 7195  17.769   3.435   6.170 -0.1545  0.0885 -0.0315
 6332W        W 7196  19.237   8.245   2.385 -0.1971  0.2742  0.1055
 6333W        W 7197  18.384   7.455   5.193 -0.1203 -0.0484  0.1112
 6334W        W 7198  17.282   5.674   5.688  0.3519  0.3293 -0.1570
 6335W        W 7199  16.517   8.527   5.927 -0.0703 -0.2073 -0.1536
 6336W        W 7200  13.626   5.225   4.320  0.1077 -0.0015  0.1337
 6337W        W 7201  18.989   7.047   3.449 -0.1706  0.0398  0.1218
 6338W        W 7202  15.849   8.005   8.113 -0.0559 -0.0595  0.0091
 6339W        W 7203  15.742   8.129   3.083  0.0804  0.4494  0.2290
 6340W        W 7204  19.777   6.912   3.901  0.1000 -0.2923  0.2219
 6341W        W 7205  16.227   4.821   6.108  0.1358  0.2432  0.0369
 6342W        W 7206  17.023   3.294   4.474  0.2223 -0.0249  0.0728
 6343W        W 7207  17.081   6.300   4.551  0.2895 -0.0493 -0.3079
 6344W        W 7208  13.661   5.172   2.574 -0.5870  0.3264  0.1482
 6345W        W 7209  12.935   3.938   6.526 -0.1972 -0.2501 -0.1533
 6346W        W 7210  17.494   6.649   3.235 -0.2116 -0.2486 -0.2484
 6347W        W 7211  15.709   4.098   5.752 -0.2721 -0.1998  0.0612
 6348W        W 7212  17.513   6.550   5.544 -0.1216 -0.2836  0.1041
 6349W        W 7213  17.272   7.521   4.810 -0.0361  0.0788 -0.1947
 6350W        W 7214  20.124   7.386   4.520 -0.0435 -0.1000  0.0048
 6351W        W 7215  15.505   5.868   4.318  0.0645 -0.0354  0.0426
 6352W        W 7216  17.843   8.077   2.807  0.1996 -0.2479 -0.4574
 6353W        W 7217  14.461   6.640   3.051 -0.1632  0.0097 -0.0053
 6354W        W 7218  16.082   7.798   3.390  0.0718  0.1157 -0.3376
 6355W        W 7219  17.026   6.814   5.420  0.0026  0.2845 -0.3709
 6356W        W 7220  16.425   8.439   7.307  0.2903  0.4036  0.2251
 6357W        W 7221  16.976   5.308   5.954 -0.0861  0.0000  0.0239
 6358W        W 7222  13.567   4.504   3.682 -0.2313 -0.0489 -0.1076
 6359W        W 7223  18.576   9.316   4.913  0.1074  0.0937 -0.0287
 6360W        W 7224  19.240   2.081   4.083 -0.1088  0.1226  0.1918
 6361W        W 7225  15.726   2.932   3.249  0.0891 -0.0011 -0.0791
 6362W        W 7226  20.066   8.282   4.909 -0.2193 -0.3720  0.0340
 6363W        W 7227  19.029   5.562   3.442  0.2757 -0.0083 -0.1582
 6364W        W 7228  15.181   5.149   4.053 -0.3280  0.0162  0.1468
 6365W        W 7229  16.821   4.504   6.528  0.0427  0.0214  0.0173
 6366W        W 7230  14.649   5.446   6.128 -0.0645  0.4553 -0.1617
 6367W        W 7231  18.203   3.437   4.537  0.2354  0.0057 -0.2022
 6368W        W 7232  17.341   7.732   5.926 -0.2323  0.0049 -0.1157
 6369W        W 7233  14.928   6.580   4.315 -0.2856 -0.1209 -0.2900
 6370W        W 7234  16.297   7.331   3.468 -0.0782 -0.0454 -0.0822
 6371W        W 7235  17.470   7.078   3.591 -0.1505 -0.1679 -0.0821
 6372W        W 7236  13.537   4.259   6.286  0.5298  0.4316  0.0547
 6373W        W 7237  17.307   6.815   1.883 -0.3100  0.1906  0.3017
 6374W        W 7238  14.540   7.732   3.679 -0.0817  0.0289  0.0479
 6375W        W 7239  19.464   5.959   7.102 -0.1566 -0.1002  0.0167
 6376W        W 7240  16.617   4.139   6.779  0.1805 -0.2742  0.0267
 6377W        W 7241  14.975   5.969   5.215  0.0328 -0.0692 -0.0970
 6378W        W 7242  15.846   3.635   4.979  0.2737  0.0269  0.2934
 6379W        W 7243  16.604   5.531   5.664  0.4753  0.1719  0.0542
 6380W        W 7244  15.200   5.005   7.560  0.1105 -0.1295 -0.0071
 6381W        W 7245  15.602   3.096   6.152  0.1084 -0.1617  0.3548
 6382W        W 7246  16.850   5.884   4.392  0.1330 -0.0829  0.3737
 6383W        W 7247  13.606   5.636   5.284 -0.2417  0.0767  0.1911
 6384W        W 7248  18.541   4.569   5.277  0.1780  0.2290  0.1638
 6385W        W 7249  14.663   5.528   3.777  0.2277 -0.4079  0.1614
 6386W        W 7250  18.158   6.488   5.263  0.1069 -0.1314  0.0496
 6387W        W 7251  15.770   9.873   8.294 -0.0462 -0.1231 -0.1202
 6388W        W 7252  18.063   4.849   1.949 -0.2496  0.2336 -0.0670
 6389W        W 7253  18.251   4.234   7.264  0.1833  0.2703  0.1147
 6390W        W 7254  17.685   5.120   4.373  0.3219  0.1277 -0.0059
 6391W        W 7255  15.639   5.532   6.488 -0.1127 -0.0866  0.2685
 6392W        W 7256  18.634   4.169   3.854  0.1598  0.1370 -0.2567
 6393W        W 7257  20.409   6.694   3.169  0.1430  0.0052 -0.4215
 6394W        W 7258  18.993   4.921   3.733  0.0916  0.2550 -0.1161
 6395W        W 7259  19.347   3.813   2.977 -0.2697  0.3235 -0.1262
 6396W        W 7260  19.346   4.642   5.227 -0.0010 -0.0323 -0.1206
 6397W        W 7261  13.270   5.292   6.599 -0.1527  0.0510 -0.2789
 6398W        W 7262  14.519   4.530   3.758  0.0812  0.1162  0.3014
 6399W        W 7263  18.434   6.288   4.374  0.1104  0.1885  0.1705
 6400W        W 7264  14.842   4.408   5.368  0.4460  0.1633  0.1942
 6401W        W 7265  18.151   6.663   6.260 -0.3699  0.0077  0.2171
 6402W        W 7266  19.458   5.447   6.169 -0.1795 -0.0069 -0.2783
 6403W        W 7267  14.810   7.901   6.109 -0.0213  0.2535 -0.0066
 6404W        W 7268  15.358   4.337   2.617  0.2427 -0.2235 -0.0198
 6405W        W 7269  14.392   4.803  10.228  0.1296  0.0292  0.1256
 6406W        W 7270  15.852   7.124   4.185 -0.2071 -0.1255 -0.1174
 6407W        W 7271  18.816   4.979   5.197 -0.0520  0.2992  0.2904
 6408W        W 7272  18.414   6.356   3.416  0.2102 -0.0027  0.0765
 6409W        W 7273  16.966   5.639   3.143 -0.2448  0.0521  0.0982
 6410W        W 7274  18.265   8.389   5.044  0.0286 -0.0856 -0.0497
 6411W        W 7275  16.752   5.461   4.933  0.1909  0.1939  0.4217
 6412W        W 7276  18.473   3.644   3.819  0.0748  0.1568 -0.1447
 6413W        W 7277  14.410   4.976   4.547  0.2328  0.0929 -0.3814
 6414W        W 7278  16.690   2.198   7.743 -0.0220  0.0784 -0.4490
 6415W        W 7279  16.074   5.999   9.987  0.3466  0.1446 -0.3467
 6416W        W 7280  14.609   5.695   4.317 -0.0658  0.0763  0.0534
 6417W        W 7281  17.507   5.542   4.094  0.1639  0.2428  0.2378
 6418W        W 7282  16.085   5.005   7.999 -0.0483  0.3798  0.2242
 6419W        W 7283  15.688   7.202   4.946  0.2156  0.0707  0.3679
 6420W        W 7284  17.042   7.301   4.437  0.0655 -0.2245 -0.1242
 6421W        W 7285  16.736   7.010   3.672  0.2064  0.1299  0.0021
 6422W        W 7286  17.517   7.850   8.567  0.1712 -0.4625 -0.0009
 6423W        W 7287  16.888   5.888   5.327  0.0683 -0.0590  0.0045
 6424W        W 7288  14.929   6.299   6.863 -0.1137  0.0830  0.0028
 6425W        W 7289  17.741   6.211   3.350 -0.2034  0.0709  0.0004
 6426W        W 7290  14.805   6.235   7.725 -0.2956 -0.1119  0.1262
 6427W        W 7291  18.751   6.729   5.001  0.2337 -0.1043 -0.0552
 6428W        W 7292  16.655   6.484   4.671  0.3830 -0.0968  0.2210
 6429W        W 7293  16.197   9.767   7.467 -0.1611  0.1767 -0.2144
 6430W        W 7294  17.167   1.461   3.917  0.0108  0.1195 -0.0318
 6431W        W 7295  14.358   5.039   3.746 -0.1371  0.0199 -0.2893
 6432W        W 7296  18.204   4.334   1.916  0.0346  0.0705 -0.4282
 6433W        W 7297  15.182   4.553   4.818 -0.0641 -0.0748  0.2937
 6434W        W 7298  18.846   3.928   4.607 -0.1592 -0.1007 -0.1130
 6435W        W 7299  16.004   1.953   3.244 -0.2453  0.5128 -0.0578
 6436W        W 7300  16.513   7.952   7.381 -0.0607  0.1418  0.0459
 6437W        W 7301  15.755   7.218   8.552 -0.1813 -0.0461  0.1418
 6438W        W 7302  15.890   8.365   6.213 -0.0006 -0.0662  0.0333
 6439W        W 7303  17.949   7.080   6.591  0.3142 -0.1078  0.1849
 6440W        W 7304  14.989   9.253   5.433  0.1780 -0.1891 -0.0780
 6441W        W 7305  16.847   6.400   5.595 -0.2488 -0.4345 -0.0411
 6442W        W 7306  16.244   5.254   4.795  0.0714 -0.2639 -0.2150
 6443W        W 7307  16.124   2.688   6.002  0.0230  0.1073  0.0858
 6444W        W 7308  17.831   7.141   3.936  0.2695  0.3813  0.2193
 6445W        W 7309  13.658   3.681   6.925 -0.0905 -0.1807  0.0056
 6446W        W 7310  15.952   5.912   3.440 -0.3539  0.0791 -0.0676
 6447W        W 7311  16.542   6.860   2.113  0.2262  0.0978 -0.2164
 6448W        W 7312  17.659   5.356   3.306 -0.1513 -0.1686  0.0117
 6449W        W 7313  14.237   6.175   3.720  0.2148  0.0190 -0.2015
 6450W        W 7314  17.848   5.013   5.403 -0.1293  0.0441  0.0678
 6451W        W 7315  15.983   6.592   6.806 -0.0041 -0.2792 -0.0265
 6452W        W 7316  16.926   5.860   3.603 -0.1695 -0.2102  0.1601
 6453W        W 7317  16.350   1.533   4.215  0.3538 -0.1190 -0.1499
 6454W        W 7318  17.017   7.523   6.214  0.0643  0.0580  0.2055
 6455W        W 7319  17.755   3.729   4.969 -0.3369  0.1237  0.0083
 6456W        W 7320  18.225   4.974   2.556  0.0238 -0.1256  0.0426
 6457W        W 7321  17.266   8.301   3.764  0.4033 -0.1446  0.0566
 6458W        W 7322  15.059   8.394   3.883  0.0643  0.2559 -0.0315
 6459W        W 7323  18.530   4.571   2.623 -0.1690 -0.2036 -0.0597
 6460W        W 7324  14.728   8.077   2.961 -0.0482 -0.3819  0.0644
 6461W        W 7325  18.201   4.723   5.608 -0.3255 -0.1307 -0.2022
 6462W        W 7326  15.001   3.783   6.920 -0.0752 -0.0299 -0.4452
 6463W        W 7327  12.992   4.749   5.169  0.1563  0.0484  0.3207
 6464W        W 7328  16.147   4.180   4.861 -0.0778  0.0078 -0.0694
 6465W        W 7329  17.207   4.642   8.609  0.0771  0.1840 -0.0800
 6466W        W 7330  16.123   6.326   6.333  0.0348 -0.6722 -0.1691
 6467W        W 7331  18.665   4.288   3.014  0.1251 -0.0462  0.0370
 6468W        W 7332  15.796   8.841   5.801 -0.4475 -0.1237 -0.1582
 6469W        W 7333  19.530   6.624   4.314 -0.2656 -0.2197  0.1595
 6470W        W 7334  18.104   5.624   3.326 -0.0455 -0.1031 -0.2545
 6471W        W 7335  18.170   6.977   2.903  0.0736  0.0388  0.1184
 6472W        W 7336  18.333   3.886   4.792 -0.0594  0.1544  0.1048
 6473W        W 7337  18.235   4.394   3.375  0.0564  0.2264 -0.0764
 6474W        W 7338  15.582   5.478   5.679  0.2972 -0.1525 -0.0777
 6475W        W 7339  18.079   4.869   4.269 -0.1298 -0.0895  0.1028
 6476W        W 7340  18.569   5.841   3.303 -0.0960  0.1823  0.2329
 6477W        W 7341  16.292   7.328   6.969 -0.0564 -0.0991  0.0691
 6478W        W 7342  17.190   8.825   3.799 -0.1882  0.1107  0.3702
 6479W        W 7343  15.209   2.325   5.556 -0.0194 -0.2327  0.1503
 6480W        W 7344  15.109   5.460   3.022  0.0478  0.0019 -0.1746
 6481W        W 7345  16.398   7.446   4.963  0.1493  0.1675  0.0887
 6482W        W 7346  18.206   6.405   3.906 -0.2670  0.0965 -0.4154
 6483W        W 7347  13.937   6.031   8.001 -0.0785 -0.1226  0.0255
 6484W        W 7348  16.358   3.976   3.048  0.1255  0.0113 -0.0889
 6485W        W 7349  14.184   6.263   3.185 -0.3315 -0.1073  0.0049
 6486W        W 7350  16.004   4.967   3.816 -0.2371  0.0551  0.2235
 6487W        W 7351  15.512   4.808   3.839 -0.1215 -0.1059 -0.0632
 6488W        W 7352  17.076   6.292   5.102  0.0978 -0.0542  0.0978
 6489W        W 7353  18.028   5.848   6.777  0.0616 -0.1020 -0.0485
 6490W        W 7354  18.321   7.019   5.060 -0.2821 -0.1296 -0.0334
 6491W        W 7355  17.116   5.862   4.840 -0.2269  0.0950 -0.3482
 6492W        W 7356  17.139   8.952   1.751  0.1943 -0.0168  0.0946
 6493W        W 7357  17.395   6.704   4.988  0.0889  0.0230 -0.1550
 6494W        W 7358  15.541   9.469   7.156  0.3338 -0.0978  0.0352
 6495W        W 7359  16.006   7.420   5.419 -0.0197 -0.1283  0.2142
 6496W        W 7360  20.364   9.314   3.314 -0.2319  0.1699  0.0430
 6497W        W 7361  18.921   6.114   3.139 -0.0350  0.1386 -0.0809
 6498W        W 7362  15.049   3.688   3.118  0.0101  0.1898 -0.0399
 6499W        W 7363  16.479   6.489   7.650  0.1660 -0.0804 -0.0282
 6500W        W 7364  17.662   9.066   3.743  0.1382  0.0272  0.2074
 6501W        W 7365  16.359   8.166   8.126 -0.1784 -0.1557 -0.0318
 6502W        W 7366  16.492   7.710   3.763  0.0508 -0.2012  0.3693
 6503W        W 7367  13.635   2.998  27.869 -0.2782 -0.3013 -0.1557
 6504W        W 7368  14.584   7.883  11.508  0.0482  0.0919  0.1364
 6505W        W 7369  14.745   6.639  11.145  0.1683 -0.3313  0.1280
 6506W        W 7370  20.873   6.119   7.118  0.0887 -0.2769 -0.1264
 6507W        W 7371  16.494   7.041  11.856 -0.1361 -0.1117 -0.0423
 6508W        W 7372  13.920   7.924   5.860 -0.0487 -0.1907  0.0495
 6509W        W 7373  16.414   5.943   7.705 -0.3166  0.0238 -0.1688
 6510W        W 7374  14.933   7.791   7.808  0.4162 -0.3096 -0.2480
 6511W        W 7375  17.689   7.988   9.964  0.0288 -0.1214  0.0785
 6512W        W 7376  16.299   8.466  14.638  0.0246 -0.0630  0.1963
 6513W        W 7377  12.828   3.856   9.165  0.0935  0.0348  0.0403
 6514W        W 7378  13.305   3.928  10.442 -0.0148 -0.1649 -0.0150
 6515W        W 7379  17.077   3.719   8.403  0.0547 -0.0311 -0.1959
 6516W        W 7380  16.502   5.119   9.238  0.1406  0.2961 -0.0194
 6517W        W 7381  22.470   3.052  12.290  0.3449  0.1806 -0.1254
 6518W        W 7382  12.982   3.897   8.231 -0.0552 -0.1430 -0.1821
 6519W        W 7383  17.796   7.054  12.817 -0.0694  0.4028 -0.3532
 6520W        W 7384  16.473   7.198  10.289 -0.0150 -0.2355  0.3909
 6521W        W 7385  14.045   0.479   8.445 -0.0340  0.0516 -0.1374
 6522W        W 7386  15.698   5.781  12.196  0.0214 -0.0612  0.4224
 6523W        W 7387  19.575   4.363   6.318  0.1509  0.0263  0.0518
 6524W        W 7388  20.595   4.832  10.665  0.1177 -0.0245  0.0143
 6525W        W 7389  16.632   6.934   8.961  0.2402  0.2532  0.1085
 6526W        W 7390  14.453   8.123   8.704  0.1558  0.0995 -0.0188
 6527W        W 7391  15.857   3.933   7.287 -0.0985  0.1549  0.2182
 6528W        W 7392  12.596   3.467  10.802 -0.0003  0.4932 -0.0606
 6529W        W 7393  14.511   7.440  11.676 -0.1547  0.0163  0.2866
 6530W        W 7394  18.685   4.718  10.762  0.0160 -0.3266  0.1743
 6531W        W 7395  15.142   7.692  11.254 -0.0530 -0.2598 -0.1548
 6532W        W 7396  18.538   7.303   7.954  0.0335  0.0314 -0.0373
 6533W        W 7397  13.846   3.589   7.382  0.1230 -0.0132  0.1650
 6534W        W 7398  17.446   6.722   8.944 -0.3018 -0.2052  0.1441
 6535W        W 7399  18.350   6.064   7.406 -0.1013  0.0345 -0.0440
 6536W        W 7400  17.185   5.174   9.886 -0.2467 -0.0025  0.1604
 6537W        W 7401  16.469   5.681  11.942  0.2397  0.2356  0.4143
 6538W        W 7402  14.246   6.256   9.359  0.3202 -0.0486 -0.0463
 6539W        W 7403  16.364   6.397   9.805 -0.0900  0.1544  0.0795
 6540W        W 7404  14.836   5.128   8.139  0.3354  0.0131 -0.3178
 6541W        W 7405  14.132   6.526   8.297 -0.1468  0.1984  0.1146
 6542W        W 7406  20.443   7.239  10.503 -0.3351 -0.1870 -0.0191
 6543W        W 7407  19.254   5.309   9.359 -0.0609  0.1217  0.1977
 6544W        W 7408  16.612   7.220   5.410  0.1996  0.3227 -0.2967
 6545W        W 7409  15.546   3.966   8.742 -0.0524 -0.0253  0.0085
 6546W        W 7410  16.438   7.632  11.408 -0.0900 -0.1440  0.0189
 6547W        W 7411  15.581   6.134   5.115  0.4054 -0.0025 -0.3474
 6548W        W 7412  16.183   5.729   6.426  0.0651 -0.0774 -0.1263
 6549W        W 7413  15.556   6.554   7.908  0.0647  0.3721  0.2710
 6550W        W 7414  15.109   6.487   7.328  0.0099 -0.1084 -0.0346
 6551W        W 7415  18.495   5.714  10.903  0.1003  0.1407  0.0750
 6552W        W 7416  19.455   5.809   7.982  0.0107 -0.1735 -0.3487
 6553W        W 7417  17.997   5.160   6.817 -0.3354  0.1612  0.0858
 6554W        W 7418  19.032   6.850   7.381  0.0378  0.1976  0.0510
 6555W        W 7419  18.475   5.110   8.402 -0.0249 -0.0224 -0.0899
 6556W        W 7420  15.464   7.335  10.081  0.0538 -0.1558 -0.3092
 6557W        W 7421  16.689   5.001   6.312  0.0227  0.2227 -0.2622
 6558W        W 7422  18.369   5.387   6.217 -0.0495 -0.2983  0.0915
 6559W        W 7423  16.258   6.131   9.331 -0.0057  0.2591 -0.0630
 6560W        W 7424  16.040   3.852   8.590 -0.0251 -0.1997 -0.0153
 6561W        W 7425  16.758   5.605   8.611  0.0809  0.0825  0.0464
 6562W        W 7426  14.666   5.375   9.684  0.1380  0.2848 -0.0523
 6563W        W 7427  17.513   7.596   9.140  0.0728 -0.3400  0.2621
 6564W        W 7428  15.129   5.333   5.999 -0.3373 -0.0117  0.2293
 6565W        W 7429  19.038   5.034  11.203 -0.1876 -0.1520 -0.1222
 6566W        W 7430  13.747   7.879  12.140  0.0828  0.0174  0.2035
 6567W        W 7431  15.895   4.162   7.734 -0.2005  0.1295  0.0347
 6568W        W 7432  16.763   5.063  11.189  0.2035  0.0240  0.0893
 6569W        W 7433  16.495   4.660   9.437 -0.1321  0.0326 -0.2005
 6570W        W 7434  13.770   6.706   8.617  0.0019 -0.2622  0.2907
 6571W        W 7435  17.025   6.779   9.230  0.0396  0.2310  0.1837
 6572W        W 7436  14.625   7.916   8.207 -0.2339  0.4089 -0.3431
 6573W        W 7437  16.650   6.252  11.152  0.0221  0.1538 -0.1615
 6574W        W 7438  18.540   7.354  10.011  0.3879  0.0071  0.1828
 6575W        W 7439  16.811   6.196   8.425 -0.1686 -0.1399  0.0036
 6576W        W 7440  17.525   8.965   8.032  0.1632  0.0496 -0.0897
 6577W        W 7441  21.491   4.156  11.770  0.3702  0.1577 -0.0331
 6578W        W 7442  16.646   4.665   8.527  0.2176  0.1719 -0.0514
 6579W        W 7443  18.361   4.770   9.827  0.0400  0.0067  0.1192
 6580W        W 7444  12.916   4.396   6.347  0.0062 -0.0308 -0.0032
 6581W        W 7445  14.775   6.384  11.616 -0.0995  0.2085  0.0434
 6582W        W 7446  18.027   3.419   8.460  0.1830 -0.0732 -0.1895
 6583W        W 7447  17.224   7.230   9.378 -0.0607 -0.0106  0.2175
 6584W        W 7448  14.709   7.181   9.464 -0.1640  0.2509 -0.1505
 6585W        W 7449  14.702   4.837  10.632  0.1141 -0.1395 -0.0542
 6586W        W 7450  14.426   2.804   8.542 -0.0744  0.3324 -0.0709
 6587W        W 7451  16.887   3.385   5.695  0.0681 -0.0997  0.0054
 6588W        W 7452  17.556   5.223  11.800  0.0425  0.1617 -0.0014
 6589W        W 7453  17.745   3.405   5.548 -0.2220  0.1723  0.1296
 6590W        W 7454  17.010   5.878  10.111 -0.2535  0.1679 -0.3413
 6591W        W 7455  17.639   5.243   8.713 -0.0932  0.3441 -0.0773
 6592W        W 7456  19.057   6.725  10.977  0.3696  0.0353  0.0362
 6593W        W 7457  17.968   3.821   8.100  0.2748  0.2345  0.2691
 6594W        W 7458  18.283   2.604   9.182  0.0949  0.2485  0.1308
 6595W        W 7459  17.766   5.844  11.959 -0.2450  0.1191  0.1721
 6596W        W 7460  17.481   8.436  10.488 -0.1709  0.1701  0.0495
 6597W        W 7461  14.680   5.665   6.936  0.0115 -0.0721  0.0930
 6598W        W 7462  15.895   5.539  11.118 -0.2802 -0.0234 -0.2803
 6599W        W 7463  18.397   5.531   7.674 -0.0701 -0.1948 -0.0947
 6600W        W 7464  17.234   3.156   6.656  0.5149 -0.2395 -0.1138
 6601W        W 7465  18.318   7.249  11.552 -0.0153 -0.1224 -0.2414
 6602W        W 7466  15.616   2.289   5.197  0.0948 -0.3078 -0.0211
 6603W        W 7467  18.144   4.449   8.960 -0.1865  0.0112  0.1443
 6604W        W 7468  16.948   6.485   6.993  0.0050 -0.1264  0.0372
 6605W        W 7469  16.146   6.572  11.836  0.4138  0.1221 -0.1069
 6606W        W 7470  16.236   4.325   6.449 -0.2910  0.2350  0.0520
 6607W        W 7471  17.784   7.268   7.243  0.1147  0.2032  0.0920
 6608W        W 7472  18.529   3.397   9.758 -0.1314  0.2580 -0.1716
 6609W        W 7473  14.961   5.916  13.528  0.0911  0.1103  0.2601
 6610W        W 7474  15.922   3.559   8.209 -0.0455  0.3732  0.3993
 6611W        W 7475  19.818   5.262  10.581 -0.0334 -0.0802 -0.0609
 6612W        W 7476  15.450   6.727   8.371 -0.3821  0.1835  0.3547
 6613W        W 7477  14.396   2.335   8.222 -0.0134  0.0843  0.2928
 6614W        W 7478  12.207   7.072  10.491  0.0967 -0.1507 -0.2040
 6615W        W 7479  14.114   9.051   7.343 -0.2613  0.1143 -0.1394
 6616W        W 7480  15.863   5.622   9.093 -0.3208  0.0081  0.1298
 6617W        W 7481  16.417   7.653   9.859  0.1109 -0.2041  0.1925
 6618W        W 7482  17.672   6.774   6.168  0.1204 -0.2306  0.0834
 6619W        W 7483  18.269   6.499   9.126  0.0124 -0.0389  0.0078
 6620W        W 7484  18.737   4.444   9.138  0.1725 -0.0792  0.1893
 6621W        W 7485  15.210   7.153   9.244 -0.3764 -0.0479 -0.1825
 6622W        W 7486  16.867   4.628  11.911  0.1134 -0.0231  0.1118
 6623W        W 7487  17.671   7.398  10.473 -0.2179  0.1318  0.2480
 6624W        W 7488  19.351   5.973   5.423  0.2581  0.4500 -0.2593
 6625W        W 7489  17.060  10.147   9.292  0.0126  0.0463 -0.0318
 6626W        W 7490  17.812   7.940   8.939 -0.2709  0.0714 -0.0335
 6627W        W 7491  18.014   2.867   4.601 -0.1933  0.0719 -0.1015
 6628W        W 7492  16.424   4.836   6.753 -0.3001 -0.2852  0.0946
 6629W        W 7493  19.887   4.262   9.006  0.0485 -0.1029 -0.1084
 6630W        W 7494  15.943   4.484  10.705 -0.0963 -0.4464 -0.0200
 6631W        W 7495  17.399   4.673  10.685 -0.0564 -0.0286 -0.0929
 6632W        W 7496  19.205   7.486   9.268 -0.0452  0.1549  0.0087
 6633W        W 7497  17.640   9.575   8.834 -0.1919 -0.0731 -0.1675
 6634W        W 7498  15.448   9.088  10.166  0.2080  0.0444 -0.2437
 6635W        W 7499  16.231   4.785   8.973  0.2003 -0.2332  0.3022
 6636W        W 7500  17.969   6.699  11.844  0.1396 -0.1590 -0.1561
 6637W        W 7501  17.954   1.842   7.528 -0.0960  0.0726 -0.0791
 6638W        W 7502  17.851   5.891   7.415  0.2526  0.1643 -0.0303
 6639W        W 7503  13.013   3.610  10.995 -0.2361  0.0641  0.1814
 6640W        W 7504  18.125   1.249   6.705 -0.1586  0.2633  0.2102
 6641W        W 7505  15.246   2.848  10.023  0.4207  0.3277 -0.1113
 6642W        W 7506  19.948   4.582   9.424 -0.2934  0.0301  0.1601
 6643W        W 7507  17.327   5.846   7.640 -0.0547 -0.1511 -0.2556
 6644W        W 7508  15.728   5.830   7.070  0.1869  0.0116  0.0321
 6645W        W 7509  17.842   4.809   9.900 -0.0089  0.1313 -0.3198
 6646W        W 7510  14.985   8.275   7.967  0.2340  0.1907  0.0109
 6647W        W 7511  15.276   3.297  10.298  0.0886  0.2702  0.1965
 6648W        W 7512  14.549   6.220   9.001 -0.3291  0.2099  0.0446
 6649W        W 7513  17.501   4.323   7.267  0.2276 -0.3116 -0.0981
 6650W        W 7514  18.447   4.766   9.338 -0.0682  0.1917 -0.0711
 6651W        W 7515  15.838   8.543   8.060 -0.1201 -0.2716  0.1362
 6652W        W 7516  17.786   6.838   9.799  0.2809 -0.0859 -0.0298
 6653W        W 7517  15.960   5.985  11.796 -0.0364 -0.1630 -0.0699
 6654W        W 7518  18.552   6.947   9.790 -0.0741 -0.2003 -0.2711
 6655W        W 7519  14.253   3.917   8.101 -0.0611 -0.1244  0.3504
 6656W        W 7520  17.068   7.326  11.085  0.1364  0.1051  0.1181
 6657W        W 7521  17.887   5.512   8.256  0.0304  0.0619 -0.3897
 6658W        W 7522  18.031   4.848   8.377 -0.0513  0.0833  0.1877
 6659W        W 7523  14.439   3.262   8.692 -0.2839 -0.4028 -0.1202
 6660W        W 7524  15.064   3.590   9.962  0.0883 -0.1869 -0.1667
 6661W        W 7525  14.300   8.269   9.595 -0.0553  0.0205 -0.3725
 6662W        W 7526  14.815   5.671   8.935  0.2285  0.2110 -0.2799
 6663W        W 7527  16.469   5.979   6.130  0.3217 -0.1402 -0.0846
 6664W        W 7528  16.810   5.923  13.706 -0.1655 -0.1471 -0.0040
 6665W        W 7529  17.059   9.376  10.897  0.1417  0.0497  0.0216
 6666W        W 7530  16.514   8.095  11.222 -0.0245 -0.1314 -0.1043
 6667W        W 7531  19.200   5.379  11.569 -0.2007  0.0920 -0.0607
 6668W        W 7532  16.543   4.942   8.054 -0.1838 -0.4192 -0.0039
 6669W        W 7533  15.742   4.298   8.429 -0.2020  0.1050 -0.1997
 6670W        W 7534  15.690   4.873   9.795 -0.1139 -0.0702  0.2494
 6671W        W 7535  15.685   8.851   8.410 -0.0852  0.1550  0.3160
 6672W        W 7536  18.494   7.799  12.043  0.2354  0.1799  0.4012
 6673W        W 7537  14.805   4.252   6.892  0.0100  0.0639 -0.0851
 6674W        W 7538  18.178   5.508   8.691  0.0189 -0.0153 -0.2103
 6675W        W 7539  18.720   6.798   7.739 -0.1778  0.2287 -0.0422
 6676W        W 7540  17.474   4.500  11.142 -0.1688 -0.0419  0.0684
 6677W        W 7541  15.743   6.014   6.533 -0.1047 -0.0065 -0.1061
 6678W        W 7542  16.955   5.355   6.616 -0.0820 -0.1546 -0.0167
 6679W        W 7543  18.162   2.282   5.460  0.5315 -0.0667 -0.0694
 6680W        W 7544  13.079   6.685  10.209  0.2065 -0.1147  0.2195
 6681W        W 7545  15.077   6.238   9.003 -0.1708 -0.0001 -0.3920
 6682W        W 7546  15.638   5.045   9.033  0.1068  0.0641  0.2098
 6683W        W 7547  15.550   4.079  11.435 -0.0459 -0.2370  0.1230
 6684W        W 7548  15.831   4.434   7.331 -0.2955  0.1665 -0.2884
 6685W        W 7549  17.918   8.048   5.722  0.0208 -0.1152 -0.1256
 6686W        W 7550  18.387   6.409   7.778  0.0243 -0.0075 -0.0074
 6687W        W 7551  17.745   5.630   6.272  0.1819  0.1949  0.1502
 6688W        W 7552  16.362   3.664   4.956 -0.0926 -0.1364 -0.0884
 6689W        W 7553  15.107   5.544   7.853  0.1130 -0.1479 -0.2344
 6690W        W 7554  17.700   6.236   9.136 -0.1586  0.3466  0.3080
 6691W        W 7555  14.007   4.321   5.991  0.0385 -0.1910  0.1960
 6692W        W 7556  16.654   7.979   8.971 -0.0111  0.2391 -0.0489
 6693W        W 7557  17.400   7.478  11.514  0.0534  0.0325 -0.1946
 6694W        W 7558  18.786   7.233   5.008 -0.0619  0.2987 -0.0431
 6695W        W 7559  17.855   5.499   7.736 -0.1394 -0.0903  0.1395
 6696W        W 7560  15.031   5.312   9.292 -0.3129  0.0373 -0.1502
 6697W        W 7561  16.739   3.650  12.033 -0.3316  0.0535 -0.2377
 6698W        W 7562  19.013   3.825   9.005 -0.1268  0.1929 -0.2202
 6699W        W 7563  16.024   5.513   6.843  0.0196  0.3505 -0.2773
 6700W        W 7564  15.472   4.771   7.245  0.0536  0.0561 -0.0234
 6701W        W 7565  14.901   3.132   9.761 -0.2648 -0.0107 -0.0184
 6702W        W 7566  15.989   3.908   6.767 -0.2425  0.2964 -0.0138
 6703W        W 7567  17.822   3.329   8.990  0.0743 -0.0731  0.0567
 6704W        W 7568  13.554   5.889   7.382 -0.0125  0.0400 -0.0151
 6705W        W 7569  17.390   6.485  10.471 -0.0505  0.0057 -0.1249
 6706W        W 7570  17.314   4.853   5.407  0.2407  0.2997  0.1279
 6707W        W 7571  15.709   3.615   7.739 -0.0860  0.1808 -0.0583
 6708W        W 7572  18.532   3.943   8.939 -0.2198 -0.1910 -0.1958
 6709W        W 7573  13.899   4.028   4.330 -0.2535 -0.1101 -0.3801
 6710W        W 7574  15.804   8.249   9.983  0.0041  0.1556  0.3309
 6711W        W 7575  16.675   5.009   9.827  0.1096  0.0198  0.0296
 6712W        W 7576  16.623   6.238   6.701  0.1836 -0.1835  0.3411
 6713W        W 7577  15.680   4.309   6.865 -0.3037 -0.1722 -0.1220
 6714W        W 7578  15.393   7.183  11.166 -0.0429  0.2923  0.0390
 6715W        W 7579  15.532   6.685  10.777  0.0408  0.3434  0.1396
 6716W        W 7580  16.274   4.310  10.255 -0.0139 -0.1261  0.0454
 6717W        W 7581  21.958   2.973   8.243 -0.2008  0.0130 -0.1546
 6718W        W 7582  19.673   4.549  11.809  0.1725  0.1980  0.1403
 6719W        W 7583  15.972   7.395   8.082  0.0080  0.0051  0.3507
 6720W        W 7584  16.090   6.899   9.664  0.3054  0.1135  0.2635
 6721W        W 7585  18.191  11.646   7.726  0.0588 -0.0284 -0.0142
 6722W        W 7586  20.037   6.747   9.034 -0.0696 -0.0311  0.0014
 6723W        W 7587  17.186   4.876  11.657 -0.3269 -0.4784  0.1594
 6724W        W 7588  16.676   4.009  10.200 -0.1553 -0.3523 -0.1051
 6725W        W 7589  18.192   6.259   6.575 -0.2056  0.0708  0.0529
 6726W        W 7590  14.947   7.824  13.727 -0.0416 -0.0833 -0.1234
 6727W        W 7591  16.125   0.746   6.187  0.1017  0.0547  0.1626
 6728W        W 7592  16.472   7.175   9.785 -0.3369  0.0263  0.1246
 6729W        W 7593  14.366   6.953  10.227  0.0127 -0.0076  0.0724
 6730W        W 7594  15.966   9.442  10.894  0.0327  0.1181  0.2785
 6731W        W 7595  18.599   4.766   8.819 -0.0830 -0.0225  0.1354
 6732W        W 7596  13.247   7.730   8.726  0.2584  0.0966 -0.0327
 6733W        W 7597  15.775   4.628   8.031  0.0394  0.1210 -0.1664
 6734W        W 7598  17.144   8.322  11.610  0.1131 -0.0295  0.2419
 6735W        W 7599  17.747   5.598  11.520 -0.2540  0.2342 -0.5574
 6736W        W 7600  15.640   6.867  11.562  0.1279  0.0838 -0.1975
 6737W        W 7601  19.135   5.856   6.387  0.0514 -0.1091  0.1537
 6738W        W 7602  15.020   7.725  11.775 -0.3771 -0.0008 -0.2633
 6739W        W 7603  17.757   5.838   8.675  0.0387  0.1625 -0.2487
 6740W        W 7604  18.745   5.158   7.981  0.0544  0.3868  0.0064
 6741W        W 7605  16.419   3.542   8.058 -0.0616  0.0818  0.1006
 6742W        W 7606  17.555   8.372   8.773  0.1277 -0.0398  0.2745
 6743W        W 7607  18.472   6.823   8.601 -0.0703  0.2800  0.0667
 6744W        W 7608  16.622   5.759   6.948 -0.0543  0.0714  0.1162
 6745W        W 7609  14.725   5.783   7.668 -0.2293  0.1440  0.1942
 6746W        W 7610  14.755   5.649  10.233  0.1816  0.2500 -0.2657
 6747W        W 7611  17.676   3.479   7.210  0.0311 -0.0073  0.0305
 6748W        W 7612  16.807   5.680  11.138 -0.1592 -0.0182  0.1047
 6749W        W 7613  14.307   4.137   5.437 -0.3209  0.0617  0.0092
 6750W        W 7614  17.236   7.648  10.125  0.2922  0.0816  0.0501
 6751W        W 7615  15.924   7.501  12.223 -0.2124 -0.1713  0.1951
 6752W        W 7616  18.164   5.121   8.003 -0.0988  0.0112  0.1731
 6753W        W 7617  15.396   3.168   7.699 -0.0411 -0.0128 -0.0717
 6754W        W 7618  17.290   6.297   8.207  0.2557 -0.2684  0.2624
 6755W        W 7619  14.201   7.831  12.548  0.1346 -0.0451  0.1234
 6756W        W 7620  20.279   5.282  12.383  0.1734 -0.2174  0.0133
 6757W        W 7621  18.727   8.975   9.308  0.1530 -0.0142  0.0357
 6758W        W 7622  15.318   4.639   6.773 -0.2012 -0.2892  0.1351
 6759W        W 7623  18.882   5.634   9.218 -0.0657  0.2548 -0.0909
 6760W        W 7624  19.591   3.859   9.168 -0.2014 -0.0048  0.1318
 6761W        W 7625  16.634   6.454   9.095  0.3055 -0.0897  0.0369
 6762W        W 7626  17.553   6.667   8.403 -0.0015 -0.0785  0.3690
 6763W        W 7627  18.042   5.335   5.842  0.0882 -0.1127  0.2640
 6764W        W 7628  18.648   5.943  11.471  0.3822 -0.0540 -0.0639
 6765W        W 7629  17.629   6.413  10.053 -0.1658  0.0273  0.1223
 6766W        W 7630  17.049   8.080  10.567 -0.1291  0.1634  0.1663
 6767W        W 7631  15.118   7.269   9.697  0.1337 -0.1767  0.2807
 6768W        W 7632  16.024   6.540  10.730  0.2697  0.4849  0.1304
 6769W        W 7633  15.210   8.364  11.958 -0.0240  0.0870  0.1628
 6770W        W 7634  15.433   7.134  10.583  0.1264 -0.1910 -0.2246
 6771W        W 7635  16.683   6.705   5.118 -0.1749  0.2012  0.2124
 6772W        W 7636  13.824   7.244  10.185 -0.2819 -0.1168  0.1157
 6773W        W 7637  17.681   6.097   6.496  0.0605 -0.0330  0.3376
 6774W        W 7638  14.883   6.930   8.347 -0.2186 -0.3025  0.0007
 6775W        W 7639  18.204   6.063   9.980  0.2804 -0.2095 -0.0999
 6776W        W 7640  18.453   4.261   6.322  0.0247  0.0502  0.0411
 6777W        W 7641  15.947   4.722   9.414 -0.0593  0.0349 -0.2715
 6778W        W 7642  18.623   6.213   8.717  0.2511  0.1011  0.1730
 6779W        W 7643  16.445   3.742  11.618 -0.0761  0.2709  0.0328
 6780W        W 7644  15.466   5.393  11.422 -0.1956 -0.0812  0.1551
 6781W        W 7645  16.011   5.723   8.080 -0.1433 -0.0341 -0.1311
 6782W        W 7646  16.201   5.832   7.246  0.1261 -0.0254 -0.2427
 6783W        W 7647  13.516   6.457  11.572  0.0611  0.0454  0.0327
 6784W        W 7648  17.035   8.814   9.476  0.0206 -0.0344  0.0741
 6785W        W 7649  15.094   3.521   9.470 -0.1652 -0.0574 -0.0120
 6786W        W 7650  17.905   6.980   8.429  0.0513 -0.2265 -0.0074
 6787W        W 7651  15.573   7.634  10.902  0.1534 -0.0901  0.2345
 6788W        W 7652  16.835   8.727   6.278 -0.2917  0.0543 -0.1206
 6789W        W 7653  18.944   4.313  10.966 -0.0326 -0.1339 -0.0431
 6790W        W 7654  16.457   6.566   8.494 -0.1065 -0.0866  0.1074
 6791W        W 7655  14.100   6.450   8.900  0.2595 -0.1660  0.1963
 6792W        W 7656  16.496   2.170   6.695  0.3339 -0.0239  0.0698
 6793W        W 7657  20.020   4.812   7.177  0.1726 -0.0227  0.4401
 6794W        W 7658  16.190   4.378   6.959  0.1464  0.1703  0.2334
 6795W        W 7659  16.421   4.983   7.577  0.2379  0.1473 -0.1090
 6796W        W 7660  18.930   4.973  11.683  0.0922 -0.3214  0.1385
 6797W        W 7661  13.770   6.466   7.035  0.1474 -0.0240  0.0382
 6798W        W 7662  20.117   5.877   7.091  0.0555 -0.4997  0.2181
 6799W        W 7663  18.535   3.768   6.261  0.1224 -0.0411 -0.3886
 6800W        W 7664  15.262   5.370   8.489 -0.1687 -0.1927  0.3155
 6801W        W 7665  19.908   8.413  10.172  0.1158 -0.1659 -0.0947
 6802W        W 7666  17.429   5.365   9.436  0.0970  0.1531  0.1006
 6803W        W 7667  13.994   7.185   7.193  0.2074 -0.0602  0.0660
 6804W        W 7668  14.037   6.173   5.873 -0.0353  0.2058 -0.1116
 6805W        W 7669  14.776   8.254  11.805  0.3557  0.0015  0.0677
 6806W        W 7670  17.497   6.106  12.301  0.1179  0.1787 -0.0552
 6807W        W 7671  18.143   6.715  10.630 -0.2652  0.0878  0.2859
 6808W        W 7672  14.490   6.576   6.812 -0.3056 -0.1145  0.5017
 6809W        W 7673  16.019   7.392  11.137  0.0171 -0.2380 -0.0355
 6810W        W 7674  17.660   6.789  12.270  0.2208  0.0224  0.3239
 6811W        W 7675  16.095   3.996   9.541  0.1605  0.1959  0.2547
 6812W        W 7676  18.273   3.846   9.803  0.2734  0.1153  0.1368
 6813W        W 7677  15.008   6.761   9.520  0.1783 -0.2208 -0.0534
 6814W        W 7678  15.744   5.074   4.619 -0.0700 -0.2538 -0.1853
 6815W        W 7679  17.755   5.984   9.758  0.4150  0.1042 -0.0962
 6816W        W 7680  16.825   5.701   7.537 -0.0486  0.3694 -0.1318
 6817W        W 7681  19.018   4.220   9.466 -0.0642 -0.2139 -0.1872
 6818W        W 7682  15.990   7.323  10.142  0.2543  0.2264 -0.0493
 6819W        W 7683  17.185   3.825  12.318 -0.2193  0.0292 -0.0377
 6820W        W 7684  17.122   4.896   6.504  0.2796 -0.3200  0.0505
 6821W        W 7685  19.163   3.731   7.354  0.1526 -0.2973 -0.2840
 6822W        W 7686  17.628   7.275  11.062 -0.0132  0.2173  0.0793
 6823W        W 7687  16.304   5.511  10.019 -0.0486  0.1346  0.2860
 6824W        W 7688  14.251   8.817  12.681  0.1950  0.0611 -0.0934
 6825W        W 7689  17.084   7.886   7.261 -0.2451  0.3132 -0.3027
 6826W        W 7690  16.958   9.015   8.917  0.2279  0.0982  0.1720
 6827W        W 7691  16.402   5.676   9.097  0.1764 -0.1987 -0.0434
 6828W        W 7692  16.516   6.053   8.795  0.0329 -0.0095  0.0975
 6829W        W 7693  14.775   6.258   9.508 -0.1811  0.1043 -0.1017
 6830W        W 7694  18.735   6.443   8.181  0.0436  0.2524  0.2826
 6831W        W 7695  15.295   4.258   7.144  0.0390 -0.0510 -0.0629
 6832W        W 7696  19.693   5.046   7.442  0.0306  0.3101 -0.1714
 6833W        W 7697  14.897   4.196   7.471  0.0185 -0.0075 -0.0813
 6834W        W 7698  17.959   3.446   9.730  0.2754 -0.2162  0.1015
 6835W        W 7699  19.113   5.093   6.480  0.0884  0.1048 -0.4280
 6836W        W 7700  19.064   7.265  10.009  0.2297 -0.2687  0.2232
 6837W        W 7701  16.788   7.641  10.396  0.2150 -0.2488  0.0506
 6838W        W 7702  17.886   5.790  10.306 -0.2434 -0.1268 -0.0934
 6839W        W 7703  19.505   6.881  10.878 -0.1354 -0.1051  0.0020
 6840W        W 7704  17.421   8.383   9.674 -0.0719  0.1861  0.0703
 6841W        W 7705  17.834   8.384   9.201 -0.1102  0.0061 -0.1686
 6842W        W 7706  16.988   5.072   9.419 -0.1463 -0.0756 -0.2691
 6843W        W 7707  16.517   2.837   9.272  0.1398  0.0201  0.0116
 6844W        W 7708  14.743   7.122  10.026 -0.0286 -0.0342 -0.1476
 6845W        W 7709  15.495   5.360   9.428  0.0724 -0.2100 -0.0638
 6846W        W 7710  14.329   3.643   7.635  0.2977 -0.2452  0.0630
 6847W        W 7711  16.317   7.597   9.233 -0.2473 -0.1201  0.3636
 6848W        W 7712  17.658   7.691   8.061  0.1317 -0.1126 -0.3188
 6849W        W 7713  15.232   4.863  11.423 -0.0812 -0.0881 -0.0074
 6850W        W 7714  14.684   3.513   6.017  0.0412  0.3524  0.2591
 6851W        W 7715  13.362   3.825   8.600 -0.0394  0.1882 -0.2543
 6852W        W 7716  16.101   4.829   8.475 -0.0650  0.4081 -0.1474
 6853W        W 7717  14.810   3.100   6.693  0.2238  0.0903 -0.0635
 6854W        W 7718  18.705   5.266   8.767  0.0427  0.0647 -0.1472
 6855W        W 7719  17.400   5.240   6.242 -0.0303  0.1264  0.1544
 6856W        W 7720  19.288   7.250   8.153 -0.1049 -0.2517 -0.2252
 6857W        W 7721  15.609   4.914   8.527 -0.2225  0.0764  0.1440
 6858W        W 7722  16.843   5.841   6.472 -0.0066  0.1231  0.2397
 6859W        W 7723  15.583   3.618   9.482  0.0273 -0.2668  0.0483
 6860W        W 7724  15.160   5.863   8.662  0.1588 -0.1062  0.0842
 6861W        W 7725  18.933   5.125  12.247  0.1703 -0.0983  0.3209
 6862W        W 7726  15.910   2.198  11.437 -0.0981  0.1059  0.1227
 6863W        W 7727  17.401   4.127   8.722  0.3592 -0.1176  0.1102
 6864W        W 7728  15.999   3.075   8.058 -0.1368  0.3759  0.1407
 6865W        W 7729  15.369   4.955   8.051  0.0055 -0.0094 -0.0669
 6866W        W 7730  15.208   5.250   9.761  0.0849 -0.1294 -0.1771
 6867W        W 7731  18.003   2.216   8.834 -0.2028  0.3383  0.3207
 6868W        W 7732  17.860   6.247  10.663  0.2819  0.2055 -0.1623
 6869W        W 7733  16.767   8.021   9.779  0.0478 -0.0570  0.1650
 6870W        W 7734  15.872   6.864  10.311  0.1243  0.0543  0.0613
 6871W        W 7735  15.267   4.839   9.426 -0.0748 -0.2775  0.0088
 6872W        W 7736  16.432   2.926   8.741  0.0213 -0.2255  0.0294
 6873W        W 7737  16.633   4.101   6.274  0.2318 -0.4830 -0.0760
 6874W        W 7738  17.601   6.224   4.955 -0.2652 -0.1383 -0.0694
 6875W        W 7739  19.616   3.752   8.314  0.2689  0.0300  0.1210
 6876W        W 7740  15.742   5.738   4.791 -0.0661 -0.0031 -0.0375
 6877W        W 7741  19.051   5.586   9.737  0.2936  0.1944  0.0337
 6878W        W 7742  17.190   4.855   8.013  0.3185  0.2075 -0.0865
 6879W        W 7743  16.825   7.216  10.649  0.0632 -0.1491 -0.1251
 6880W        W 7744  15.405   6.331   9.672 -0.0196 -0.0741 -0.3900
 6881W        W 7745  18.191   6.492  10.190 -0.0195  0.0795 -0.2410
 6882W        W 7746  16.360   5.315   8.336 -0.0432 -0.2874 -0.0631
 6883W        W 7747  16.199   6.526  11.331  0.2793 -0.0952 -0.2264
 6884W        W 7748  19.360   6.214  13.484 -0.0248 -0.2998  0.1255
 6885W        W 7749  14.338   7.849  10.065 -0.1103 -0.4221 -0.0261
 6886W        W 7750  15.779   5.441   9.877  0.1703 -0.1603  0.1775
 6887W        W 7751  17.902   8.296  10.744  0.0322  0.0325 -0.0138
 6888W        W 7752  17.659   8.884  10.273 -0.0716  0.0416 -0.1921
 6889W        W 7753  16.490   6.265  10.670  0.0928 -0.0187  0.0274
 6890W        W 7754  17.221   5.026   8.960 -0.0749 -0.1060  0.3800
 6891W        W 7755  18.722   7.170   8.804  0.1637 -0.0766 -0.1003
 6892W        W 7756  17.161   6.913   8.173  0.0887  0.0056 -0.1238
 6893W        W 7757  18.170   8.357   8.746 -0.2017  0.3038  0.0587
 6894W        W 7758  17.962   8.067  11.735  0.0362  0.0518  0.0590
 6895W        W 7759  14.763   5.878  10.736 -0.0477  0.2259 -0.1861
 6896W        W 7760  19.216   1.290   5.998  0.1019  0.0571  0.3546
 6897W        W 7761  17.272   7.596  10.670 -0.0934  0.0774  0.0695
 6898W        W 7762  16.594   6.979  12.399 -0.1803  0.1309 -0.0938
 6899W        W 7763  16.379   4.342  12.541  0.3192  0.0076 -0.1461
 6900W        W 7764  15.770   4.714   6.508 -0.0375  0.1740 -0.0627
 6901W        W 7765  15.628   6.184  10.858 -0.1576  0.0022  0.0052
 6902W        W 7766  16.452   5.368   6.689 -0.0603 -0.0075  0.1226
 6903W        W 7767  15.870   3.147   7.567 -0.2767  0.0635  0.0454
 6904W        W 7768  14.912  10.608  15.052 -0.0726  0.2763 -0.1740
 6905W        W 7769  15.364   6.118  12.251 -0.0526 -0.0674 -0.2913
 6906W        W 7770  19.958   6.833  11.620  0.1429  0.0444 -0.2103
 6907W        W 7771  18.249   7.311  12.460 -0.1972 -0.0032 -0.0236
 6908W        W 7772  12.505   5.790  12.030  0.1238  0.0036 -0.0933
 6909W        W 7773  13.983   4.622  12.358  0.3419 -0.3810  0.2790
 6910W        W 7774  14.341   6.233  10.794 -0.0413 -0.0124 -0.0233
 6911W        W 7775  16.638   6.600  11.561  0.0207 -0.0638  0.0712
 6912W        W 7776  15.850   7.646  13.722  0.0114  0.1392 -0.1435
 6913W        W 7777  14.437   4.174  14.640 -0.4828  0.0537 -0.1852
 6914W        W 7778  17.671   3.632  13.396 -0.4049 -0.1387 -0.0679
 6915W        W 7779  17.950   6.589   8.753  0.1399 -0.0461 -0.0882
 6916W        W 7780  17.576   4.641  14.932 -0.2728 -0.0610  0.2321
 6917W        W 7781  15.763   6.329  13.698  0.1129 -0.1139  0.1628
 6918W        W 7782  13.550   6.148  14.877 -0.0390 -0.0653  0.4409
 6919W        W 7783  17.838   6.202  13.127  0.1464  0.1361  0.0107
 6920W        W 7784  15.137   4.351  11.512  0.1745 -0.0621 -0.1342
 6921W        W 7785  13.732   4.324  12.079  0.0798  0.3460 -0.1423
 6922W        W 7786  17.196   5.473  11.350  0.3536  0.0506 -0.0139
 6923W        W 7787  18.663   8.538  16.038  0.2711 -0.1139 -0.0524
 6924W        W 7788  16.813   5.936  11.538 -0.1683 -0.1822  0.1480
 6925W        W 7789  17.242   6.503  14.747  0.0873  0.0939 -0.1767
 6926W        W 7790  14.616   7.179  13.100 -0.1360 -0.2466 -0.2485
 6927W        W 7791  12.250   8.309  14.730 -0.3248 -0.0266  0.0909
 6928W        W 7792  16.325   5.305  11.032  0.0943 -0.0910  0.0975
 6929W        W 7793  18.506   7.126  13.353  0.2191  0.0630 -0.0341
 6930W        W 7794  16.201   7.287  13.710  0.0720  0.2143  0.0875
 6931W        W 7795  19.048   6.789  15.200  0.3270 -0.0346  0.0026
 6932W        W 7796  16.572   5.766  12.815  0.0547 -0.2493 -0.1260
 6933W        W 7797  14.778   6.637  12.048 -0.4449  0.0556  0.1884
 6934W        W 7798  16.147   5.127  13.399  0.2426 -0.3093 -0.2387
 6935W        W 7799  17.022   4.604  13.051 -0.1424  0.1616  0.0795
 6936W        W 7800  16.613   7.186  14.570 -0.2059 -0.0552 -0.1797
 6937W        W 7801  13.887   7.362  19.072  0.0593 -0.0523  0.0398
 6938W        W 7802  19.919   4.547  13.832  0.2759  0.0491 -0.1414
 6939W        W 7803  15.697   5.727   8.574 -0.3278  0.1252 -0.0592
 6940W        W 7804  15.993   3.571  11.884 -0.1348 -0.0595  0.0331
 6941W        W 7805  18.070   7.601  10.166  0.1252  0.0895  0.0494
 6942W        W 7806  17.297   4.692  12.631  0.1589  0.0425 -0.1499
 6943W        W 7807  16.482   4.608  10.589 -0.2582  0.0706 -0.2449
 6944W        W 7808  20.498   6.277  13.827 -0.1597 -0.0740  0.0688
 6945W        W 7809  14.871   6.528  13.469  0.0545  0.1192 -0.4331
 6946W        W 7810  20.155   7.619  10.117 -0.0595  0.1070 -0.1174
 6947W        W 7811  13.084   5.378  10.636  0.1474 -0.2774  0.0086
 6948W        W 7812  16.494   3.366  11.318  0.1848 -0.0055 -0.2072
 6949W        W 7813  16.916   6.143  12.526  0.1986 -0.3955  0.0548
 6950W        W 7814  15.925   5.548  12.866  0.1842  0.0456 -0.0507
 6951W        W 7815  18.957   6.877  13.484  0.1357 -0.2233 -0.1652
 6952W        W 7816  17.295   5.443  10.835  0.2787 -0.0794  0.1061
 6953W        W 7817  15.914   4.799  12.345  0.0605 -0.2822  0.0848
 6954W        W 7818  15.264   3.608  13.107 -0.0145  0.0662 -0.1922
 6955W        W 7819  19.308   5.354  15.379  0.0630 -0.0311  0.1499
 6956W        W 7820  19.399   5.479  12.874  0.0066  0.3267 -0.2677
 6957W        W 7821  14.858   5.088  10.163 -0.0515 -0.1345  0.1543
 6958W        W 7822  13.890   7.674  14.928  0.1171  0.1055 -0.0668
 6959W        W 7823  13.689   3.253   9.785 -0.2618  0.0286 -0.2257
 6960W        W 7824  20.429   5.514  11.393  0.0678 -0.0759  0.0475
 6961W        W 7825  14.671   5.370  11.629  0.0592  0.0618  0.2454
 6962W        W 7826  17.297   5.024  11.030 -0.3381  0.0206  0.1622
 6963W        W 7827  19.284   3.981   9.936  0.1714 -0.1306 -0.0532
 6964W        W 7828  13.268   5.156  11.607  0.0438  0.2016 -0.0028
 6965W        W 7829  14.847   7.046  14.576 -0.0212 -0.0037 -0.0436
 6966W        W 7830  17.321   7.802  12.816  0.1816  0.2123 -0.2313
 6967W        W 7831  12.256   3.758  15.154 -0.2921  0.0699 -0.0506
 6968W        W 7832  20.402   5.902  10.862  0.3424 -0.1937 -0.0451
 6969W        W 7833  16.592   2.998  10.981 -0.0773  0.1205  0.1958
 6970W        W 7834  14.126   4.651  11.407 -0.1260  0.0230  0.0733
 6971W        W 7835  15.740   6.337  11.527  0.1923  0.2032  0.2037
 6972W        W 7836  18.643   6.336  10.055 -0.0972  0.2317  0.3101
 6973W        W 7837  19.603   5.394  14.061 -0.1996 -0.2271 -0.3192
 6974W        W 7838  14.012   4.030   9.845 -0.3180 -0.2225  0.2918
 6975W        W 7839  19.107   7.058  10.574  0.3270  0.0066 -0.2377
 6976W        W 7840  18.342   8.030  13.960  0.0857 -0.0264  0.0049
 6977W        W 7841  18.485   4.943  11.933 -0.2668 -0.1062  0.0589
 6978W        W 7842  18.875   6.837  12.965 -0.0542 -0.1384  0.2216
 6979W        W 7843  15.822   5.273  12.413  0.2125 -0.2083  0.0326
 6980W        W 7844  15.611   7.960  14.901  0.1347  0.0896  0.1896
 6981W        W 7845  17.238   6.051  11.209  0.1796  0.2044  0.3148
 6982W        W 7846  17.962   5.335  10.394  0.0527  0.3171  0.1547
 6983W        W 7847  14.090   4.110  11.253  0.0485  0.3053  0.2239
 6984W        W 7848  14.969   7.103  13.473  0.0390 -0.3031 -0.0756
 6985W        W 7849  15.657   2.135  11.017 -0.0491 -0.1652  0.2339
 6986W        W 7850  15.839   4.333  13.673  0.2764 -0.0645 -0.0829
 6987W        W 7851  17.535   0.465  13.854  0.1246 -0.0516  0.3267
 6988W        W 7852  16.631   5.438   9.621  0.0255  0.0824  0.1426
 6989W        W 7853  19.746   7.260  12.506 -0.0797 -0.0728 -0.0777
 6990W        W 7854  15.364   5.812  13.744  0.0362  0.0595 -0.1933
 6991W        W 7855  15.530   4.233  14.826  0.0408  0.0320  0.2343
 6992W        W 7856  17.128   3.311  11.998  0.2030 -0.0889  0.0201
 6993W        W 7857  19.143   5.094  14.045  0.4015  0.2011  0.1984
 6994W        W 7858  18.631   4.405  11.810  0.3572  0.1851  0.0120
 6995W        W 7859  15.483   4.534  11.809 -0.0345 -0.2686 -0.1800
 6996W        W 7860  19.208   3.894  11.262  0.3772  0.0344 -0.2625
 6997W        W 7861  15.978   4.509  12.815  0.0858  0.1474  0.2107
 6998W        W 7862  19.107   7.278  12.878  0.1407  0.1373  0.0745
 6999W        W 7863  18.627   5.178  14.072 -0.0754  0.2239  0.0674
 7000W        W 7864  14.038   8.591  13.738 -0.0071  0.0493  0.0062
 7001W        W 7865  14.601   5.597  11.133  0.1515  0.2148 -0.2809
 7002W        W 7866  17.429   3.724   9.765 -0.1685  0.1421 -0.0813
 7003W        W 7867  19.067   6.253  12.142 -0.1710 -0.2229 -0.2910
 7004W        W 7868  14.330   6.439  11.863 -0.0672 -0.2566  0.1579
 7005W        W 7869  16.656   3.282   8.992 -0.3277  0.1124  0.0564
 7006W        W 7870  18.097   7.234  10.724  0.0880  0.2749 -0.0572
 7007W        W 7871  17.170   2.035  13.943 -0.0637 -0.1308 -0.0033
 7008W        W 7872  17.287   5.895  13.917  0.1130 -0.1667  0.1432
 7009W        W 7873  19.568   6.309  12.470  0.1753 -0.2798 -0.1181
 7010W        W 7874  16.921   5.064  14.366 -0.0379  0.0314  0.0538
 7011W        W 7875  14.729   5.180  13.603  0.0616 -0.1173  0.0290
 7012W        W 7876  14.433   3.686  11.954  0.0669  0.0794 -0.0928
 7013W        W 7877  16.231   8.283  15.553  0.3822 -0.2686  0.0183
 7014W        W 7878  17.362   7.288  11.947 -0.0482  0.1265 -0.1900
 7015W        W 7879  19.355   6.698  13.787  0.1412 -0.1654 -0.0379
 7016W        W 7880  15.538   5.194  15.065 -0.1929  0.0103 -0.0203
 7017W        W 7881  19.195   7.235  11.147 -0.0343  0.0035  0.0422
 7018W        W 7882  13.773   4.847  11.984  0.2567 -0.1206  0.0495
 7019W        W 7883  16.133   3.236  13.793 -0.2456 -0.0944  0.0786
 7020W        W 7884  19.978   6.107  14.375  0.0684 -0.1697 -0.1185
 7021W        W 7885  17.517   5.113  12.851 -0.1532 -0.4243  0.3401
 7022W        W 7886  19.025   5.985  13.725  0.1711  0.0965 -0.0163
 7023W        W 7887  19.964   4.724  10.225 -0.0485 -0.0562 -0.1452
 7024W        W 7888  16.970   6.365  10.795  0.0539 -0.1996 -0.2553
 7025W        W 7889  18.013   1.701  12.800 -0.0617 -0.2484 -0.0489
 7026W        W 7890  16.950   5.903  10.625  0.1677  0.2073 -0.1436
 7027W        W 7891  16.051   6.036  15.307  0.2014 -0.1892  0.1902
 7028W        W 7892  20.881   7.292  12.510 -0.0567 -0.1432 -0.1706
 7029W        W 7893  14.651   6.685  13.027  0.0601 -0.0406 -0.0960
 7030W        W 7894  17.160   8.993  12.835 -0.1587  0.2338 -0.1635
 7031W        W 7895  18.530   8.177  13.339 -0.0470 -0.1205 -0.0564
 7032W        W 7896  17.052   6.858  14.392 -0.3105 -0.4001 -0.0024
 7033W        W 7897  16.970   6.256  13.015  0.2257 -0.0841 -0.0570
 7034W        W 7898  16.064   4.086  13.257  0.1338  0.0352  0.3891
 7035W        W 7899  16.668   4.789  13.349  0.0885  0.0221 -0.2850
 7036W        W 7900  20.476   3.617  12.640  0.1523  0.1407 -0.1692
 7037W        W 7901  17.384   6.032  10.758 -0.0671 -0.1015 -0.0892
 7038W        W 7902  12.037   5.607  11.930 -0.2920 -0.1634  0.3068
 7039W        W 7903  16.146   6.017  12.870  0.0703  0.0529  0.2041
 7040W        W 7904  17.525   2.989  14.025 -0.0739 -0.1157  0.1887
 7041W        W 7905  16.615   6.751  10.069  0.2915 -0.0440 -0.3695
 7042W        W 7906  18.020   4.958  13.008  0.2019  0.3585 -0.1685
 7043W        W 7907  14.794   3.559  10.913  0.4189  0.1376 -0.1500
 7044W        W 7908  16.183   2.671  10.900 -0.2210 -0.1207  0.0467
 7045W        W 7909  13.175   7.764   9.963  0.0010 -0.1167 -0.2725
 7046W        W 7910  18.296   4.563  12.760 -0.3014 -0.2556 -0.1714
 7047W        W 7911  14.933   7.748  16.323  0.1839 -0.1028  0.0349
 7048W        W 7912  15.070   6.839  10.842 -0.1616  0.1509  0.0420
 7049W        W 7913  18.895   5.381  13.156  0.1368 -0.1854 -0.0071
 7050W        W 7914  19.688   7.252  12.976 -0.1355  0.1172  0.1517
 7051W        W 7915  16.089   6.336  13.278 -0.0585 -0.0537  0.2614
 7052W        W 7916  19.587   6.336  11.965  0.0901 -0.0421  0.0188
 7053W        W 7917  18.454   6.972  11.997  0.0337 -0.2090  0.2949
 7054W        W 7918  17.382   7.262  12.816 -0.0108 -0.1693 -0.2503
 7055W        W 7919  17.590   7.178  13.688 -0.1764  0.0058 -0.0786
 7056W        W 7920  16.979   4.394  10.498  0.1560  0.2638 -0.0054
 7057W        W 7921  15.886   4.885  11.867 -0.2171  0.3841 -0.2043
 7058W        W 7922  13.940   3.010  13.427 -0.1994  0.0182 -0.0824
 7059W        W 7923  13.118   2.718  12.944 -0.0853  0.1291 -0.0902
 7060W        W 7924  14.598   5.349  10.573  0.3628  0.1761  0.0269
 7061W        W 7925  17.251   4.370   7.744  0.0076 -0.0026 -0.3010
 7062W        W 7926  18.414   5.295  14.599 -0.0063  0.0400 -0.1681
 7063W        W 7927  16.965   2.622  13.159 -0.2886 -0.1276 -0.0173
 7064W        W 7928  15.584   8.949  13.551 -0.0554  0.1164 -0.0006
 7065W        W 7929  15.334   5.822  14.769 -0.0275 -0.1166  0.1237
 7066W        W 7930  16.314   3.893  12.161 -0.3736  0.1097  0.2037
 7067W        W 7931  15.698   7.889  12.503 -0.2062 -0.3045 -0.2725
 7068W        W 7932  15.201   4.136  11.976 -0.0659 -0.0434 -0.0288
 7069W        W 7933  12.788   5.322  11.555 -0.3139 -0.0088  0.2175
 7070W        W 7934  15.355   6.049   7.807  0.2809  0.2757 -0.1097
 7071W        W 7935  17.841   6.631  15.545  0.0010  0.0130  0.0353
 7072W        W 7936  19.099   8.388   8.923 -0.0888  0.2283 -0.1106
 7073W        W 7937  18.218   5.571  12.621 -0.0836 -0.0092 -0.1928
 7074W        W 7938  17.368   6.542  12.695  0.0257 -0.1709  0.4127
 7075W        W 7939  19.173   7.781  15.135  0.0592 -0.1021  0.0287
 7076W        W 7940  17.090   6.518  11.338  0.0808  0.0000 -0.0918
 7077W        W 7941  14.133   2.210  11.686  0.1821 -0.2176 -0.1081
 7078W        W 7942  19.780   6.796  13.542 -0.2064 -0.1639  0.3948
 7079W        W 7943  13.406   5.460  13.153 -0.3141 -0.3605  0.0395
 7080W        W 7944  16.929   5.168  13.141 -0.1782  0.0721  0.1143
 7081W        W 7945  13.178   7.317  14.397 -0.1305 -0.2099 -0.2714
 7082W        W 7946  17.884   6.760  13.659 -0.0380 -0.0621 -0.0289
 7083W        W 7947  15.443   5.605  12.604 -0.2517  0.1218 -0.2349
 7084W        W 7948  19.524   6.303  11.389 -0.3078 -0.1450 -0.1829
 7085W        W 7949  19.493   5.423  12.395  0.1564 -0.2037  0.1554
 7086W        W 7950  16.586   4.156  10.807  0.2633  0.1967  0.1766
 7087W        W 7951  16.006   3.603  11.360 -0.0534 -0.0759  0.1147
 7088W        W 7952  14.169   5.524  14.906  0.2660  0.1219 -0.0332
 7089W        W 7953  17.330   5.898  11.677  0.2312  0.0947  0.1515
 7090W        W 7954  14.234   3.765  10.296  0.0377  0.0335  0.1267
 7091W        W 7955  16.323   8.707  12.851 -0.3074 -0.0857  0.1900
 7092W        W 7956  13.067   6.796  13.314  0.3681  0.2361 -0.1320
 7093W        W 7957  14.202   5.434  11.811 -0.0961  0.1018  0.3798
 7094W        W 7958  16.880   5.109  13.626  0.1181 -0.0613 -0.1221
 7095W        W 7959  13.042   3.794  11.498  0.0453  0.0219  0.5424
 7096W        W 7960  14.817   4.680  14.575  0.1858  0.0893  0.1695
 7097W        W 7961  17.527   2.781  13.378 -0.1054  0.0816  0.0099
 7098W        W 7962  13.650   3.165  12.292 -0.0427 -0.0417 -0.0314
 7099W        W 7963  15.123   3.765  11.690  0.1026 -0.0105  0.1046
 7100W        W 7964  15.438   4.966  12.119 -0.3813  0.0011 -0.0492
 7101W        W 7965  14.289   5.525  12.752  0.3165 -0.0210 -0.1410
 7102W        W 7966  18.291   5.321  15.589 -0.1672  0.0392 -0.0284
 7103W        W 7967  12.966   6.448  11.057 -0.3182  0.0334  0.3161
 7104W        W 7968  17.737   3.167  13.626  0.1685  0.0365 -0.1207
 7105W        W 7969  21.349   4.242  12.710  0.1530  0.2400  0.0662
 7106W        W 7970  16.031   5.434  13.992  0.1455 -0.0035  0.0531
 7107W        W 7971  16.240   6.613  12.349  0.0413 -0.1437  0.0615
 7108W        W 7972  13.840   5.012  10.229  0.0317  0.0823  0.1202
 7109W        W 7973  12.778   5.420  12.319 -0.0098 -0.0019  0.1224
 7110W        W 7974  16.418   4.266  13.575  0.0285  0.0840  0.0851
 7111W        W 7975  16.456   5.777  10.827 -0.2794  0.0155  0.2135
 7112W        W 7976  11.922   4.432  11.726 -0.2366  0.0753  0.4865
 7113W        W 7977  13.666   4.878  11.504 -0.0116 -0.2900 -0.0401
 7114W        W 7978  15.475   4.502  12.821  0.4129  0.1699  0.0567
 7115W        W 7979  13.958   5.450  13.096 -0.3393 -0.0940  0.0454
 7116W        W 7980  18.959   4.777  13.316 -0.0379 -0.3891  0.1707
 7117W        W 7981  18.079   5.010  12.519 -0.1981  0.0815  0.1351
 7118W        W 7982  19.305   4.542   8.668 -0.2747 -0.3011  0.0565
 7119W        W 7983  19.154   4.684  13.765 -0.0458  0.0944  0.1073
 7120W        W 7984  14.253   8.358  12.473 -0.0784 -0.0049 -0.0258
 7121W        W 7985  17.556   2.290  14.469 -0.3222  0.4644  0.1243
 7122W        W 7986  15.250   7.318  11.607  0.1514 -0.2334  0.2419
 7123W        W 7987  19.981   4.017  13.620  0.2360 -0.1317  0.2292
 7124W        W 7988  15.361   4.420  11.066  0.1819 -0.1235 -0.2774
 7125W        W 7989  15.005   6.785  15.867 -0.2914 -0.2700 -0.3154
 7126W        W 7990  18.009   2.441  10.142 -0.0404 -0.0768  0.0776
 7127W        W 7991  20.120   5.122  11.199 -0.3007 -0.0621  0.0427
 7128W        W 7992  16.737   4.622  10.115  0.2087 -0.0253  0.0908
 7129W        W 7993  17.835   4.779  14.499  0.3895 -0.0687  0.2562
 7130W        W 7994  19.046   6.334  14.983 -0.0553 -0.1719  0.1133
 7131W        W 7995  19.865   5.514  13.545 -0.0411  0.1901 -0.0296
 7132W        W 7996  19.393   7.411  12.123  0.1651 -0.2965 -0.0697
 7133W        W 7997  17.164   3.728  14.306 -0.2251 -0.2779 -0.0486
 7134W        W 7998  16.416   6.255  14.953  0.0056  0.0166  0.1633
 7135W        W 7999  14.952   6.972  12.380  0.1493  0.0578 -0.0245
 7136W        W 8000  15.842   6.766  13.973  0.1427 -0.1650 -0.2030
 7137W        W 8001  16.027   3.122  11.635  0.3132 -0.0460  0.3226
 7138W        W 8002  20.429   4.687  11.152 -0.0089  0.2132 -0.2288
 7139W        W 8003  20.179   4.669  14.188  0.1255  0.2889 -0.1202
 7140W        W 8004  15.049   5.665  11.507 -0.0986 -0.1833  0.1296
 7141W        W 8005  15.507   6.490  14.173 -0.2742  0.2133 -0.5030
 7142W        W 8006  18.053   6.284  14.413  0.1655  0.1156 -0.0938
 7143W        W 8007  18.953   5.465  12.624  0.2370  0.3179  0.2062
 7144W        W 8008  15.133   8.197  16.524 -0.0980 -0.0720 -0.1079
 7145W        W 8009  17.302   3.237  14.423  0.3428  0.3725 -0.1322
 7146W        W 8010  15.934   2.147  12.032 -0.1278 -0.1923  0.2356
 7147W        W 8011  19.597   4.677  13.472 -0.1574  0.0690  0.1078
 7148W        W 8012  16.653   3.677  12.565  0.0411  0.0545 -0.1449
 7149W        W 8013  18.900   7.760  12.704  0.3272 -0.1819 -0.0781
 7150W        W 8014  16.433   5.294  13.017 -0.0032  0.0187 -0.0332
 7151W        W 8015  17.773   4.982  13.834 -0.0646  0.1512 -0.0767
 7152W        W 8016  15.318   4.561  14.474  0.0766  0.2940 -0.2689
 7153W        W 8017  12.935   6.457  14.016 -0.0359 -0.0126 -0.2422
 7154W        W 8018  16.481   6.237  11.868 -0.0169 -0.1058 -0.0699
 7155W        W 8019  18.881   6.310  13.320  0.4491 -0.1973 -0.1626
 7156W        W 8020  17.831   4.217  13.521  0.0271 -0.2815 -0.3543
 7157W        W 8021  13.301   4.506   9.615 -0.1464  0.1935  0.0223
 7158W        W 8022  18.104   8.626  11.204  0.2398 -0.1197 -0.2292
 7159W        W 8023  17.230   3.305  10.535  0.0815 -0.2658 -0.1416
 7160W        W 8024  15.437   3.325  14.469  0.0626 -0.1939  0.1003
 7161W        W 8025  19.158   7.378  11.605  0.0339  0.0019  0.1729
 7162W        W 8026  16.882   4.649  10.937 -0.2374  0.2951 -0.2428
 7163W        W 8027  13.118   3.237  13.053  0.1993 -0.0863  0.4527
 7164W        W 8028  18.547   4.851  13.583 -0.1858  0.1796  0.2203
 7165W        W 8029  16.272   7.940  14.383  0.0612 -0.3337  0.0130
 7166W        W 8030  14.491   6.833  13.502 -0.0586 -0.1322 -0.0853
 7167W        W 8031  17.020   8.317  11.100  0.0938  0.0762 -0.0246
 7168W        W 8032  14.788   8.443  15.598  0.4309 -0.1020  0.0092
 7169W        W 8033  17.191   6.026  13.406 -0.1888  0.3805  0.0363
 7170W        W 8034  18.925   8.991  12.662 -0.0185  0.2146 -0.0696
 7171W        W 8035  15.117   9.067  14.623  0.0965 -0.1341 -0.0037
 7172W        W 8036  17.777   6.023  11.259 -0.1045 -0.2422  0.2413
 7173W        W 8037  15.643   4.054  14.038 -0.0671  0.0466  0.2859
 7174W        W 8038  17.655   5.044  15.317 -0.2474 -0.0300  0.1647
 7175W        W 8039  15.985   6.989  12.060  0.3673  0.1524 -0.1523
 7176W        W 8040  14.018   5.930  14.084 -0.1213  0.2711  0.5086
 7177W        W 8041  18.301   6.947  12.865  0.3279  0.0589  0.1588
 7178W        W 8042  15.222   0.375  12.476 -0.1222 -0.1345  0.1529
 7179W        W 8043  15.924   2.630  14.478 -0.2401  0.0745  0.0223
 7180W        W 8044  15.133   5.245  12.439 -0.0010  0.0389 -0.0778
 7181W        W 8045  13.452   3.836  10.901 -0.2361 -0.0822  0.4764
 7182W        W 8046  15.264   8.143  14.118  0.0027 -0.2787  0.2394
 7183W        W 8047  16.320   4.634  11.085  0.2153  0.1307  0.1985
 7184W        W 8048  15.244   3.597  11.174 -0.1035  0.2843  0.1296
 7185W        W 8049  15.849   4.602  10.177  0.0354 -0.0977  0.1722
 7186W        W 8050  16.061   8.977  14.578  0.3125 -0.0384  0.2646
 7187W        W 8051  18.685   4.934  14.952 -0.2659  0.3508 -0.0542
 7188W        W 8052  19.797   4.742  12.991 -0.1055  0.2549 -0.0775
 7189W        W 8053  18.856   4.177   9.919  0.0287  0.0066  0.1806
 7190W        W 8054  17.790   3.152  13.159  0.5569 -0.1506  0.0074
 7191W        W 8055  18.695   1.713  13.035 -0.0035 -0.0450  0.0702
 7192W        W 8056  18.055   5.155  11.433 -0.0120  0.2001  0.2438
 7193W        W 8057  16.137   7.559  12.827  0.1938  0.0842  0.0640
 7194W        W 8058  15.079   3.075  13.345 -0.0639  0.1237 -0.2591
 7195W        W 8059  15.914   3.746  13.722  0.2966 -0.2271  0.1031
 7196W        W 8060  13.995   8.406   8.503 -0.0598 -0.0490  0.0339
 7197W        W 8061  18.199   5.564  11.824 -0.1050  0.3284 -0.0845
 7198W        W 8062  19.327   4.459  12.960 -0.2962 -0.2469 -0.0293
 7199W        W 8063  18.610   4.623  12.352  0.0524  0.0075  0.0529
 7200W        W 8064  19.864   4.892  12.070 -0.3480 -0.3545 -0.0237
 7201W        W 8065  18.195   4.868  14.123  0.0733 -0.3972 -0.0172
 7202W        W 8066  13.033   7.937  14.244  0.4213 -0.1643  0.1398
 7203W        W 8067  17.355   5.534  14.243  0.0789 -0.2177 -0.2247
 7204W        W 8068  12.958   2.761  13.421  0.1811 -0.0272 -0.0443
 7205W        W 8069  15.299   6.287  13.349  0.2335  0.1138 -0.1801
 7206W        W 8070  20.194   5.228  11.795  0.1312  0.1413  0.0560
 7207W        W 8071  18.316  10.061  10.104 -0.0210  0.2666 -0.1398
 7208W        W 8072  17.576   7.436  14.878  0.4131  0.0557  0.0112
 7209W        W 8073  17.989   4.411  15.335 -0.3181  0.1028  0.3011
 7210W        W 8074  15.605   3.711  10.437  0.0865  0.0263  0.0439
 7211W        W 8075  19.647   5.904  13.135  0.0453 -0.0306  0.2905
 7212W        W 8076  15.279   5.999  10.479  0.0904 -0.0855  0.1255
 7213W        W 8077  14.991   7.615   9.304  0.1007  0.1434  0.4556
 7214W        W 8078  16.940   4.267  12.720  0.0295  0.3465  0.1592
 7215W        W 8079  16.278   4.747  11.552  0.0467 -0.1789 -0.1781
 7216W        W 8080  16.585   7.402  14.082 -0.1111 -0.0493 -0.1263
 7217W        W 8081  12.370   5.980   9.762 -0.4113  0.0380 -0.1284
 7218W        W 8082  18.230   6.534  13.983 -0.1936 -0.0008  0.0695
 7219W        W 8083  17.374   3.475  11.408 -0.1107  0.3288  0.2861
 7220W        W 8084  16.725   2.232  11.870  0.2025 -0.0180 -0.1996
 7221W        W 8085  14.675   7.769  15.313 -0.0214 -0.0466 -0.2478
 7222W        W 8086  15.483   5.322  10.964 -0.2783 -0.2910 -0.1689
 7223W        W 8087  17.647   7.699  11.943  0.0035  0.4129  0.0405
 7224W        W 8088  19.567   6.704   9.400  0.0782  0.0174 -0.2616
 7225W        W 8089  15.575   7.505  12.767 -0.0344 -0.0944  0.2196
 7226W        W 8090  17.848   7.666  11.409  0.3873  0.1128 -0.2023
 7227W        W 8091  15.974   4.189  11.136 -0.2092  0.0840 -0.0212
 7228W        W 8092  16.625   6.829  14.025 -0.0215  0.0035  0.2819
 7229W        W 8093  16.381   3.296  12.813  0.2434 -0.2334 -0.0342
 7230W        W 8094  15.197   5.845  11.042 -0.1359 -0.4519 -0.3459
 7231W        W 8095  16.125   6.135  11.030  0.1542 -0.0886  0.4157
 7232W        W 8096  14.491   6.905  12.573  0.0930 -0.0766 -0.0278
 7233W        W 8097  16.031   5.023  12.806  0.0112  0.1189  0.0613
 7234W        W 8098  17.951   2.958  11.725 -0.0061  0.1458  0.2114
 7235W        W 8099  18.838   6.204  12.828 -0.0953 -0.3003 -0.1644
 7236W        W 8100  15.610   4.547  14.100  0.0559  0.0417  0.1297
 7237W        W 8101  18.040   7.120  16.093  0.0231 -0.2383  0.4089
 7238W        W 8102  18.295   7.662  13.606  0.1618 -0.1835  0.3355
 7239W        W 8103  17.164   6.384  14.256  0.2362  0.1086 -0.1674
 7240W        W 8104  21.494   6.366  10.862  0.0502  0.0587  0.1106
 7241W        W 8105  16.151   5.636  12.418  0.1461  0.2314 -0.0966
 7242W        W 8106  15.839   6.428   9.882  0.1120  0.0206  0.2966
 7243W        W 8107  17.502   6.810  11.748 -0.2299  0.0437  0.3697
 7244W        W 8108  15.386   6.774  10.201  0.0077  0.0212 -0.0455
 7245W        W 8109  15.264   5.814  13.042  0.0635 -0.0175  0.2277
 7246W        W 8110  15.611   5.928  10.137  0.1414  0.0649  0.1773
 7247W        W 8111  17.742   5.262  13.405 -0.3384  0.1413 -0.0013
 7248W        W 8112  14.631  10.646  14.166  0.0671  0.1762 -0.0459
 7249W        W 8113  17.196   6.259   9.203  0.0344  0.1454  0.1993
 7250W        W 8114  14.755   5.583  12.489 -0.2212  0.1103 -0.0860
 7251W        W 8115  16.322   6.202  14.446  0.0591  0.3445 -0.2193
 7252W        W 8116  14.948   6.097  10.095  0.1148  0.0563  0.1902
 7253W        W 8117  18.691   3.160  13.067 -0.3449  0.0204 -0.1160
 7254W        W 8118  18.397   6.162  10.602 -0.5764 -0.0818  0.0857
 7255W        W 8119  19.339   6.659  13.206  0.0338 -0.1928 -0.3767
 7256W        W 8120  17.453   8.757  15.710  0.2250 -0.0180 -0.1470
 7257W        W 8121  15.473   6.182   8.364 -0.1831  0.3380  0.2224
 7258W        W 8122  17.168   2.169  11.158 -0.3211  0.1627  0.0792
 7259W        W 8123  14.214   7.493  12.099 -0.2165 -0.1711 -0.1795
 7260W        W 8124  18.291   4.523  13.304  0.2720  0.3901  0.1788
 7261W        W 8125  14.784   2.691  13.498 -0.0904 -0.3266  0.1017
 7262W        W 8126  13.908   6.591  12.030 -0.1321 -0.1416  0.2750
 7263W        W 8127  14.068   7.138  11.724 -0.1171 -0.0919 -0.2149
 7264W        W 8128  17.537   5.702  15.687  0.1900 -0.1355 -0.6336
 7265W        W 8129  16.044   4.954  14.231 -0.1204  0.0060  0.0345
 7266W        W 8130  18.310   4.639  11.550 -0.1528 -0.0481 -0.4288
 7267W        W 8131  17.976   4.938  11.944  0.0842  0.0815 -0.2775
 7268W        W 8132  18.781   5.934  12.387 -0.0208  0.0338 -0.4427
 7269W        W 8133  16.620   6.606  13.108 -0.0886  0.1352  0.0320
 7270W        W 8134  17.809   7.177  11.623 -0.1353  0.1935  0.0768
 7271W        W 8135  14.274   2.021   9.511  0.1976 -0.4383  0.1725
 7272W        W 8136  17.914   4.409  11.275 -0.1442 -0.1011 -0.1887
 7273W        W 8137  17.687   4.441  10.257  0.1233 -0.1196  0.4248
 7274W        W 8138  18.388   4.416  11.061 -0.2899  0.1213  0.0578
 7275W        W 8139  18.665   8.161  12.832 -0.1052 -0.3315  0.1056
 7276W        W 8140  19.264   5.854  12.640 -0.0899 -0.1178  0.0063
 7277W        W 8141  17.990   8.093  11.161 -0.4208 -0.0675 -0.1656
 7278W        W 8142  16.733   5.519  12.365 -0.1171  0.0146  0.2053
 7279W        W 8143  14.224   4.571  13.605  0.0421 -0.0661 -0.0403
 7280W        W 8144  19.401   4.468  15.279  0.2325  0.2129  0.3770
 7281W        W 8145  18.608   4.928  15.541  0.0061  0.0466 -0.3152
 7282W        W 8146  15.676   6.044  12.654  0.1103 -0.0865 -0.1656
 7283W        W 8147  19.130   5.888  13.133  0.1696  0.0589  0.4466
 7284W        W 8148  16.423   5.145  12.486 -0.2638 -0.0806 -0.1602
 7285W        W 8149  12.420   6.530  12.260  0.2325  0.0785  0.2146
 7286W        W 8150  18.794   5.573  14.376 -0.2039  0.0993  0.0941
 7287W        W 8151  19.173   6.440  16.493  0.2139  0.0403 -0.0571
 7288W        W 8152  17.696   4.133  14.866 -0.0913  0.0239 -0.2096
 7289W        W 8153  17.344   5.995  14.462  0.1006 -0.0408 -0.2656
 7290W        W 8154  18.726   6.983  12.502 -0.1198  0.1217 -0.3357
 7291W        W 8155  14.398   8.217  13.900  0.2492 -0.0399 -0.1395
 7292W        W 8156  18.585   6.185  14.737  0.0402  0.1125  0.1069
 7293W        W 8157  19.352   7.171  14.473  0.0601 -0.0428  0.3335
 7294W        W 8158  15.161   5.257  12.929  0.0131  0.1773 -0.1017
 7295W        W 8159  18.804   6.553  11.802  0.3837 -0.2784  0.1048
 7296W        W 8160  16.497   6.029  12.303 -0.2073  0.3236  0.0152
 7297W        W 8161  14.266   7.298  11.253 -0.1095 -0.1287 -0.3615
 7298W        W 8162  16.119   4.607  13.361  0.0808 -0.1756  0.0559
 7299W        W 8163  16.528   4.278   9.769 -0.0422 -0.0607 -0.2362
 7300W        W 8164  17.350   7.627  14.509 -0.1334  0.3303  0.4990
 7301W        W 8165  15.849   4.549  11.478  0.1238  0.2257 -0.1481
 7302W        W 8166  17.697   4.215   9.125  0.1442  0.1517 -0.1285
 7303W        W 8167  15.458   7.287  20.162  0.0430 -0.1487 -0.0199
 7304W        W 8168  14.673   6.318  16.420  0.3618  0.2214  0.0399
 7305W        W 8169  19.615   4.570  12.545 -0.2016  0.3499  0.1542
 7306W        W 8170  19.729   9.098  18.244 -0.1009 -0.3107 -0.0310
 7307W        W 8171  15.029   9.761  15.224  0.1338  0.1519  0.1883
 7308W        W 8172  15.114   7.266  16.297  0.0841 -0.0663 -0.0620
 7309W        W 8173  20.256   6.529  16.912  0.1364 -0.2422  0.0383
 7310W        W 8174  20.240   6.955  11.248  0.4315  0.2472  0.0564
 7311W        W 8175  15.013   7.026  20.040 -0.1157  0.2089 -0.2508
 7312W        W 8176  16.122   5.275  20.359  0.0550  0.4146 -0.0527
 7313W        W 8177  14.700   2.238  17.290 -0.2174 -0.1256  0.0620
 7314W        W 8178  16.588   0.311  12.574  0.1647 -0.0184 -0.5233
 7315W        W 8179  17.866   4.773  13.428 -0.4523  0.3454 -0.3236
 7316W        W 8180  15.580   3.820  19.254  0.2667 -0.4126  0.1399
 7317W        W 8181  14.526   5.661  17.004 -0.2943 -0.2154  0.0343
 7318W        W 8182  16.256   5.182  21.814  0.0400  0.0643  0.0823
 7319W        W 8183  19.178   6.912  16.308 -0.0046  0.2089  0.1333
 7320W        W 8184  14.583   6.344  15.204  0.0629  0.0322  0.0277
 7321W        W 8185  14.996   5.849  16.146 -0.2392 -0.2463  0.0774
 7322W        W 8186  15.703   3.116  14.011 -0.2301 -0.0007  0.1940
 7323W        W 8187  20.076   6.605  18.084  0.2404  0.3263 -0.0159
 7324W        W 8188  16.390   6.380  15.557  0.2271 -0.3624  0.1947
 7325W        W 8189  17.406   7.853  15.677 -0.2786  0.0033  0.0027
 7326W        W 8190  13.171   6.069  18.929  0.1773  0.0235 -0.2273
 7327W        W 8191  12.291   5.770  13.869 -0.2909  0.1820  0.1179
 7328W        W 8192  15.696   8.194  15.844 -0.0243  0.1813 -0.1726
 7329W        W 8193  19.570   3.636  15.443  0.0259  0.1809 -0.0960
 7330W        W 8194  16.136   5.223  14.802  0.0926  0.2076  0.0601
 7331W        W 8195  15.291   4.497  16.669  0.2808  0.1002  0.0927
 7332W        W 8196  15.037   3.731  19.405 -0.1016  0.1871  0.1249
 7333W        W 8197  16.392   6.239  16.375  0.2680  0.0808 -0.2091
 7334W        W 8198  17.303   5.907  20.288 -0.0631 -0.0251 -0.1848
 7335W        W 8199  13.981   8.312  20.168  0.0074 -0.0330 -0.1054
 7336W        W 8200  14.007   7.963  18.837 -0.1428 -0.0689 -0.0235
 7337W        W 8201  15.576   5.685  19.473 -0.2427 -0.0535 -0.0353
 7338W        W 8202  16.613   5.959  15.979  0.1030  0.1449  0.1043
 7339W        W 8203  14.299   5.420  12.289  0.0207 -0.1242 -0.0673
 7340W        W 8204  15.105   6.386  16.837  0.2122  0.3612 -0.3914
 7341W        W 8205  18.868   6.038  17.532  0.0321  0.0128  0.0765
 7342W        W 8206  16.248   4.120  16.267  0.2112  0.0765 -0.0422
 7343W        W 8207  20.840   6.547  15.755  0.1682 -0.2401  0.0144
 7344W        W 8208  19.160   3.161  18.244  0.0166 -0.1360  0.2110
 7345W        W 8209  14.557   7.398  18.203 -0.2331 -0.0242  0.0332
 7346W        W 8210  17.767   8.256  17.775  0.0684  0.2506  0.3629
 7347W        W 8211  12.706   8.262  17.336 -0.1280 -0.0217  0.3250
 7348W        W 8212  15.203   7.076  14.971 -0.1590  0.1030  0.2088
 7349W        W 8213  13.366   4.888  16.829 -0.1074  0.0244  0.3263
 7350W        W 8214  15.917   7.007  19.063  0.2638 -0.1889 -0.1745
 7351W        W 8215  18.074   5.760  15.875  0.1621  0.3615  0.1865
 7352W        W 8216  18.380   5.314  13.154  0.0707 -0.2562  0.0104
 7353W        W 8217  16.205   6.477  18.066  0.0904  0.0652 -0.1925
 7354W        W 8218  13.051   7.096  15.769  0.2631 -0.3147 -0.1620
 7355W        W 8219  20.680   7.757  16.578  0.0360 -0.0426 -0.1137
 7356W        W 8220  15.782   6.013  16.618  0.0620 -0.3183 -0.0973
 7357W        W 8221  18.301   1.400  13.074  0.1389 -0.1214  0.1480
 7358W        W 8222  12.439   2.073  13.477 -0.3278 -0.0324  0.0488
 7359W        W 8223  12.797   2.959  15.126  0.0463  0.1108  0.3111
 7360W        W 8224  15.970   5.665  14.949 -0.0047  0.0393  0.2049
 7361W        W 8225  14.218   6.972  19.007 -0.1959  0.0850 -0.0792
 7362W        W 8226  13.400   7.356  14.930 -0.1752 -0.0189  0.0967
 7363W        W 8227  18.423   5.008  10.345 -0.0166 -0.1895 -0.0691
 7364W        W 8228  12.565   8.470  18.196 -0.0276 -0.0042  0.0782
 7365W        W 8229  15.439   7.590  17.124 -0.0818 -0.1893 -0.1602
 7366W        W 8230  15.846   5.879  13.908 -0.0237 -0.0601  0.1832
 7367W        W 8231  12.903   2.178  17.658 -0.5621  0.0283 -0.2112
 7368W        W 8232  14.923   4.200  14.757 -0.1535  0.0790  0.0995
 7369W        W 8233  16.552   6.654  14.442 -0.2261 -0.2313 -0.1055
 7370W        W 8234  13.746   6.429  15.775 -0.0313 -0.2852  0.1008
 7371W        W 8235  15.607   8.188  16.376 -0.1599 -0.1596 -0.0509
 7372W        W 8236  19.236   7.435  16.604 -0.3916  0.2007  0.0554
 7373W        W 8237  18.655   4.505  16.061  0.0947  0.0554 -0.1365
 7374W        W 8238  14.528   4.610  15.583 -0.1560  0.2586 -0.2104
 7375W        W 8239  15.840   8.484  21.008 -0.0034 -0.2055 -0.1125
 7376W        W 8240  14.414   5.532  17.490  0.0431 -0.1048  0.0985
 7377W        W 8241  15.671   6.846  14.929  0.1958 -0.0247 -0.4555
 7378W        W 8242  18.796   6.516  19.838  0.0462 -0.2723  0.1433
 7379W        W 8243  14.112   6.809  15.784  0.1619  0.2556 -0.1328
 7380W        W 8244  15.197   7.531  17.513  0.0212  0.2099 -0.0724
 7381W        W 8245  15.161   4.829  13.347  0.0795 -0.0232 -0.1744
 7382W        W 8246  15.350   5.256  17.036  0.0681 -0.2667 -0.0284
 7383W        W 8247  14.348   5.321  19.351  0.1552  0.1106 -0.1498
 7384W        W 8248  10.654   4.854  16.977  0.0073  0.1486 -0.2607
 7385W        W 8249  13.979   6.392  17.181 -0.1283 -0.1394 -0.2058
 7386W        W 8250  16.280   1.067  13.786  0.0754  0.0099  0.0770
 7387W        W 8251  16.806   6.783  14.818 -0.3917  0.2750  0.0692
 7388W        W 8252  16.091   4.263  14.079 -0.2143 -0.3094  0.2195
 7389W        W 8253  18.909   6.963  17.859  0.1311 -0.0321 -0.0011
 7390W        W 8254  17.281   4.483  16.128  0.2596 -0.1214  0.1259
 7391W        W 8255  17.240   5.480  16.050  0.0793 -0.0614 -0.0964
 7392W        W 8256  16.063   4.913  16.586  0.2074 -0.1455  0.2399
 7393W        W 8257  16.606   5.257  14.895 -0.1341 -0.2118 -0.3250
 7394W        W 8258  15.253   6.279  17.358  0.5314  0.0473  0.2555
 7395W        W 8259  14.996   6.585  18.665 -0.1935  0.1723 -0.1692
 7396W        W 8260  14.370   4.481  11.789  0.0112  0.1534 -0.0714
 7397W        W 8261  15.030   3.386  15.394  0.0655  0.0954 -0.2328
 7398W        W 8262  15.466   5.073  16.327  0.0662  0.0650 -0.1152
 7399W        W 8263  17.925   5.190  14.791 -0.0524 -0.1342 -0.1098
 7400W        W 8264  14.873   4.456  18.182  0.1442 -0.1387 -0.0631
 7401W        W 8265  15.271   1.611  17.915  0.0723 -0.0978  0.1367
 7402W        W 8266  18.233   4.118  16.089 -0.2251 -0.2915 -0.0204
 7403W        W 8267  17.649   8.066  13.124  0.0778 -0.0940 -0.1853
 7404W        W 8268  15.191   4.328  15.246 -0.1171  0.2205  0.3490
 7405W        W 8269  15.641   5.954  13.342  0.0678  0.1477 -0.1788
 7406W        W 8270  18.445   6.103  17.820 -0.2833 -0.1495  0.0035
 7407W        W 8271  17.024   6.148  18.600 -0.3746 -0.0474 -0.0325
 7408W        W 8272  15.888   6.847  17.852 -0.0884 -0.3391  0.2215
 7409W        W 8273  17.808   5.289  14.329  0.1075  0.1133 -0.0984
 7410W        W 8274  15.454   7.064  19.278  0.1946 -0.2023 -0.1581
 7411W        W 8275  14.370   5.357  13.321  0.1791 -0.0138 -0.2234
 7412W        W 8276  14.717   6.824  17.920 -0.0435  0.4592 -0.1164
 7413W        W 8277  13.477   5.787  18.141 -0.0137  0.1856  0.1976
 7414W        W 8278  15.636   7.090  18.415 -0.1510  0.1415 -0.1279
 7415W        W 8279  16.395   3.868  13.912  0.3361  0.0407  0.0169
 7416W        W 8280  17.329   5.521  20.739  0.1719 -0.0552  0.3486
 7417W        W 8281  19.065   6.422  17.075 -0.1843 -0.1315 -0.0049
 7418W        W 8282  17.142   7.382  16.508 -0.0525  0.0487  0.2593
 7419W        W 8283  17.090   5.383  17.154  0.2729  0.0377  0.0834
 7420W        W 8284  17.702   7.377  17.580 -0.1298  0.0708  0.0705
 7421W        W 8285  16.039   5.553  19.378  0.3314  0.0673 -0.0726
 7422W        W 8286  18.404   8.555  12.966 -0.5223  0.0276  0.4241
 7423W        W 8287  14.302   3.043  17.017  0.2134 -0.1276  0.0836
 7424W        W 8288  18.871   8.063  15.676 -0.0494  0.1730  0.0199
 7425W        W 8289  17.190   6.857  15.139 -0.0212 -0.0456  0.3253
 7426W        W 8290  17.598   5.315  17.267 -0.1890  0.0029  0.1976
 7427W        W 8291  15.880   6.365  14.911  0.2949  0.1407 -0.2085
 7428W        W 8292  15.153   5.170  15.401 -0.0863  0.2377 -0.1453
 7429W        W 8293  15.859  10.994  17.750 -0.0387  0.2893  0.3614
 7430W        W 8294  17.037   3.657  17.666 -0.0921 -0.2200 -0.0753
 7431W        W 8295  15.808   4.866  17.352  0.4476  0.0604 -0.0825
 7432W        W 8296  14.179   7.528  19.685  0.3243 -0.0565  0.1974
 7433W        W 8297  17.616   7.647  18.993 -0.0851 -0.6680  0.0817
 7434W        W 8298  16.337   6.632  17.311 -0.2146 -0.0232  0.1169
 7435W        W 8299  18.900   5.359  17.422 -0.1026  0.0360 -0.0119
 7436W        W 8300  17.747   3.072  12.287 -0.0134 -0.3386  0.3486
 7437W        W 8301  15.558   2.518  14.030  0.0231 -0.3290  0.0302
 7438W        W 8302  14.639   6.595  16.872  0.1914  0.0228 -0.2705
 7439W        W 8303  15.078   3.155  15.840  0.0013  0.2075 -0.1086
 7440W        W 8304  17.385   4.598  18.235  0.1359 -0.0254  0.0180
 7441W        W 8305  15.855   4.525  16.921 -0.0920  0.2603 -0.1702
 7442W        W 8306  16.198   7.088  15.262  0.0351  0.0082  0.0136
 7443W        W 8307  14.706   4.969  14.160  0.0854  0.3104  0.3226
 7444W        W 8308  16.727   3.557  16.647  0.2544  0.0390  0.3293
 7445W        W 8309  14.120   7.005  13.086  0.1069 -0.1023  0.0696
 7446W        W 8310  16.463   4.777  14.331 -0.0584  0.0286 -0.0775
 7447W        W 8311  16.675   5.392  19.411 -0.0895  0.0656  0.0112
 7448W        W 8312  12.562   4.894  12.281  0.3995 -0.0219 -0.0718
 7449W        W 8313  15.956   3.369  17.109 -0.1167 -0.0011  0.2891
 7450W        W 8314  16.391   6.875  17.771  0.0202  0.4481  0.0432
 7451W        W 8315  18.246   6.817  19.007 -0.2195  0.0322 -0.1067
 7452W        W 8316  15.272   6.677  20.265  0.0941  0.2223  0.0266
 7453W        W 8317  14.842   6.286  15.899  0.0552  0.0177 -0.0085
 7454W        W 8318  15.515   3.070  17.177 -0.0388  0.4019 -0.1783
 7455W        W 8319  15.935   7.238  14.877  0.2086  0.0196  0.0774
 7456W        W 8320  19.141   7.132  13.969  0.1722 -0.0334  0.2640
 7457W        W 8321  15.547   3.219  13.498 -0.0175 -0.0584 -0.3886
 7458W        W 8322  15.540   4.219  17.202 -0.0146 -0.0013 -0.2338
 7459W        W 8323  13.390   5.548  16.189  0.1362  0.1325  0.4062
 7460W        W 8324  18.312   3.052  13.368  0.3179  0.2106 -0.0647
 7461W        W 8325  17.336   1.607  15.796  0.1487 -0.1040 -0.3450
 7462W        W 8326  15.725   3.235  16.119  0.1226 -0.0157  0.0471
 7463W        W 8327  15.888   4.139  19.011  0.1525  0.6026  0.3498
 7464W        W 8328  16.838   6.638  17.846  0.0407  0.0126 -0.1745
 7465W        W 8329  16.547   4.906  19.052 -0.1062  0.1200  0.1754
 7466W        W 8330  15.000   4.710  19.030 -0.2590  0.0025 -0.3945
 7467W        W 8331  15.673   2.385  20.562 -0.1612  0.1363  0.2621
 7468W        W 8332  13.717   7.229  16.898  0.2977 -0.0343 -0.3367
 7469W        W 8333  14.819   5.907  17.622 -0.0334  0.2615 -0.0891
 7470W        W 8334  14.252   6.194  18.324 -0.1306 -0.2711 -0.2201
 7471W        W 8335  15.605   5.984  18.306 -0.0108  0.4394  0.0474
 7472W        W 8336  16.361   4.690  13.769 -0.0662  0.2735 -0.0525
 7473W        W 8337  14.468   5.021  16.634  0.2011  0.1531  0.0040
 7474W        W 8338  18.108   5.986  14.017 -0.2714  0.1155 -0.1849
 7475W        W 8339  15.654   4.955  16.842  0.4108  0.2009 -0.3200
 7476W        W 8340  16.510   5.759  14.695 -0.1725 -0.2306 -0.3740
 7477W        W 8341  16.834   6.257  14.629 -0.1234 -0.1245  0.0314
 7478W        W 8342  17.961   5.352  12.199 -0.3082  0.0487  0.3084
 7479W        W 8343  12.149   7.827  18.238 -0.1627 -0.5542  0.1160
 7480W        W 8344  15.055   4.539  15.701 -0.3851  0.0373 -0.5395
 7481W        W 8345  14.816   6.084  17.114 -0.0948 -0.0152 -0.2529
 7482W        W 8346  15.327   5.595  16.578  0.2238  0.0431 -0.1054
 7483W        W 8347  14.441   6.728  14.387  0.2069  0.1353  0.4068
 7484W        W 8348  17.662   7.681  16.572  0.1336  0.0377  0.0198
 7485W        W 8349  17.359   4.057  13.796  0.0381  0.2224  0.3644
 7486W        W 8350  14.506   6.046  13.748 -0.1219 -0.0198  0.0796
 7487W        W 8351  15.623   4.605  13.309 -0.2238 -0.1312 -0.0479
 7488W        W 8352  14.922   5.619  19.051 -0.0204 -0.3054 -0.0637
 7489W        W 8353  15.275   5.961  15.699 -0.3918 -0.0538 -0.0162
 7490W        W 8354  13.670   5.732  16.765 -0.0428 -0.1869  0.0322
 7491W        W 8355  16.356   6.988  16.944 -0.0255 -0.0700  0.0654
 7492W        W 8356  16.168   6.402  14.027  0.1182 -0.0572 -0.3020
 7493W        W 8357  14.164   6.483  13.974 -0.1754 -0.0898 -0.0609
 7494W        W 8358  13.973   6.152  15.210  0.1906 -0.2447 -0.0272
 7495W        W 8359  13.331   9.308  18.281 -0.0287  0.3554 -0.1701
 7496W        W 8360  15.484   3.607  17.094 -0.0952  0.0117 -0.0536
 7497W        W 8361  16.713   4.514  16.954  0.2189  0.1201 -0.2028
 7498W        W 8362  14.476   6.001  16.072  0.1879 -0.0243 -0.0894
 7499W        W 8363  13.422   6.363  16.272 -0.1081  0.0152  0.2672
 7500W        W 8364  14.002   4.280  17.861  0.1217  0.1354  0.2104
 7501W        W 8365  14.750   4.712  13.719 -0.1273 -0.1406  0.1561
 7502W        W 8366  19.920   2.463  16.950 -0.0799 -0.2484  0.1095
 7503W        W 8367  14.258   3.374  13.005  0.1897 -0.2159 -0.2445
 7504W        W 8368  16.593   5.379  17.067 -0.0329  0.2417  0.0662
 7505W        W 8369  16.961   5.938  12.083  0.0738  0.0090 -0.0518
 7506W        W 8370  12.053   6.894  15.937  0.1729  0.1224 -0.1399
 7507W        W 8371  12.957   5.032  16.685 -0.0554 -0.0124 -0.0827
 7508W        W 8372  12.856   5.264  15.325  0.4034 -0.0214 -0.2379
 7509W        W 8373  14.383   7.018  19.538 -0.0411 -0.0429 -0.4143
 7510W        W 8374  16.062   5.224  17.017  0.2386 -0.1137  0.0919
 7511W        W 8375  16.320   6.924  15.676 -0.1572  0.0162  0.0898
 7512W        W 8376  13.941   6.819  13.640 -0.0015 -0.1021  0.0491
 7513W        W 8377  16.148   7.298  16.564 -0.0488  0.1932  0.1256
 7514W        W 8378  16.257   5.499  18.510  0.0923  0.2371  0.0210
 7515W        W 8379  15.756   2.585  18.108  0.2119  0.1110  0.3947
 7516W        W 8380  15.698   2.573  18.629 -0.2926 -0.0873  0.1607
 7517W        W 8381  19.696   4.609  18.421 -0.0059 -0.0954  0.2397
 7518W        W 8382  18.169   5.251  16.734 -0.0591 -0.0790 -0.0389
 7519W        W 8383  17.410   4.267  15.282  0.1573  0.1192 -0.2630
 7520W        W 8384  18.038   8.195  16.508  0.2216  0.0780 -0.0509
 7521W        W 8385  16.936   3.206  18.024  0.0887 -0.3446  0.2169
 7522W        W 8386  16.107   4.673  19.622  0.0079  0.0821 -0.1069
 7523W        W 8387  15.313   5.069  18.079  0.1695 -0.1656 -0.0300
 7524W        W 8388  18.140   5.494  17.197 -0.2295 -0.0130  0.3558
 7525W        W 8389  18.668   5.754  20.056 -0.2209 -0.1103  0.0747
 7526W        W 8390  16.208   3.840  12.778 -0.0940  0.0668 -0.3914
 7527W        W 8391  19.709   6.155  17.604 -0.0476  0.2550  0.1221
 7528W        W 8392  15.272   4.746  17.133  0.2487 -0.2661 -0.0078
 7529W        W 8393  15.165   9.151  20.896  0.0540 -0.1906 -0.3798
 7530W        W 8394  19.027   5.623  17.011  0.2748 -0.2009  0.3632
 7531W        W 8395  17.352   5.529  13.143 -0.0951  0.2720  0.0041
 7532W        W 8396  16.860   4.195  16.035  0.5470  0.2548 -0.1027
 7533W        W 8397  14.266   7.094  17.926 -0.1272  0.2865  0.2472
 7534W        W 8398  15.647   4.657  19.656  0.0662 -0.2482 -0.0938
 7535W        W 8399  15.957   5.415  15.891  0.1788  0.1251 -0.0811
 7536W        W 8400  21.010   9.225  17.646 -0.2267 -0.0703 -0.2573
 7537W        W 8401  13.058   6.258  18.449  0.2378  0.3306  0.0925
 7538W        W 8402  14.231   7.553  15.305 -0.0079  0.2121  0.0329
 7539W        W 8403  22.774   3.208  16.701 -0.4422 -0.2027 -0.1747
 7540W        W 8404  18.122   2.046  18.794 -0.2653 -0.2428  0.0006
 7541W        W 8405  14.975   7.462  16.802  0.0331 -0.0933 -0.1775
 7542W        W 8406  15.331   7.004  14.138  0.0810 -0.0607 -0.1747
 7543W        W 8407  17.528   6.611  16.094  0.0669 -0.2635 -0.1507
 7544W        W 8408  12.630   7.002  19.858 -0.3236 -0.0265 -0.4887
 7545W        W 8409  15.515   3.014  17.810  0.2756 -0.2262  0.4729
 7546W        W 8410  15.193   4.721  14.902  0.0068 -0.1755  0.3996
 7547W        W 8411  18.615   3.772  13.940  0.0893  0.0649  0.0256
 7548W        W 8412  17.242   5.497  13.620 -0.0992  0.1630 -0.2406
 7549W        W 8413  14.630   5.424  15.340 -0.3278 -0.1100  0.2085
 7550W        W 8414  16.815   6.959  19.102 -0.0217  0.2569  0.0641
 7551W        W 8415  17.111   8.684  17.640 -0.1297  0.3740 -0.1319
 7552W        W 8416  16.181   6.695  12.845 -0.0607  0.1181 -0.0821
 7553W        W 8417  13.532   5.458  14.714 -0.1002  0.0071 -0.1258
 7554W        W 8418  16.408   5.621  15.226  0.2989 -0.0225 -0.1940
 7555W        W 8419  20.876   6.834  18.415 -0.0283 -0.0801  0.2033
 7556W        W 8420  17.167   6.435  16.873  0.3164  0.0541  0.0294
 7557W        W 8421  17.638   5.823  13.488 -0.0487 -0.0206 -0.0704
 7558W        W 8422  18.940   6.462  14.486  0.2121  0.1553 -0.0349
 7559W        W 8423  16.924   5.474  14.009  0.1288 -0.2100 -0.3477
 7560W        W 8424  13.828   5.214  18.072  0.0643 -0.1622  0.2292
 7561W        W 8425  19.298   6.880  15.573 -0.2613  0.0342  0.2588
 7562W        W 8426  17.334   4.992  13.388 -0.1089  0.0185 -0.2046
 7563W        W 8427  12.237   5.329  13.694  0.1458  0.3012 -0.0433
 7564W        W 8428  14.321   4.396  19.156 -0.0532 -0.2041 -0.0412
 7565W        W 8429  18.188   4.973  19.651 -0.0265  0.2983  0.3955
 7566W        W 8430  13.015   5.762  20.903  0.0130  0.0456 -0.1371
 7567W        W 8431  16.688   7.185  16.485  0.3698 -0.0005  0.5551
 7568W        W 8432  15.814   5.785  17.625  0.1211  0.0146 -0.4256
 7569W        W 8433  14.723   7.286  15.252  0.1310 -0.1755  0.3831
 7570W        W 8434  16.093   7.966  14.890 -0.0078  0.3192  0.2920
 7571W        W 8435  13.510   5.469  17.781 -0.1672  0.0503  0.4398
 7572W        W 8436  18.564   6.177  14.218  0.1357 -0.4680 -0.0545
 7573W        W 8437  14.198   7.216  16.052 -0.0380 -0.1352 -0.4238
 7574W        W 8438  16.867   6.098  20.053  0.0220 -0.1677  0.1588
 7575W        W 8439  15.555   4.966  14.590 -0.0233  0.0563  0.0333
 7576W        W 8440  15.798   4.864  16.023 -0.0347 -0.0139  0.2705
 7577W        W 8441  18.403   8.528  15.543 -0.0600 -0.2315 -0.1787
 7578W        W 8442  16.593   3.445  18.406  0.1265  0.1375 -0.0168
 7579W        W 8443  14.427   7.233  14.381  0.1736 -0.1080 -0.0534
 7580W        W 8444  15.066   4.944  16.590  0.1096 -0.1608 -0.1131
 7581W        W 8445  16.749   7.303  16.000  0.3915 -0.1256  0.2364
 7582W        W 8446  12.521   5.905  16.944  0.0488 -0.0568 -0.1196
 7583W        W 8447  16.234   4.632  16.155  0.3035 -0.4041  0.0943
 7584W        W 8448  16.174   3.300  13.277 -0.1884 -0.0336 -0.0109
 7585W        W 8449  13.911   4.535  14.534 -0.0945  0.2365 -0.2554
 7586W        W 8450  16.314   9.162  17.742  0.0339  0.0857  0.3568
 7587W        W 8451  19.588   9.296  15.361 -0.0491 -0.1838 -0.0677
 7588W        W 8452  14.139   3.498  16.806 -0.2409  0.2863 -0.0377
 7589W        W 8453  16.448   4.367  14.653 -0.2669 -0.4143  0.0201
 7590W        W 8454  14.360   4.878  19.987  0.1440  0.1547  0.1055
 7591W        W 8455  14.996   4.336  14.129 -0.3710  0.2352  0.1020
 7592W        W 8456  17.848   5.485  15.355 -0.0359  0.0756 -0.0295
 7593W        W 8457  16.938   4.255  13.538  0.0474  0.2269  0.0288
 7594W        W 8458  16.433   5.377  17.994  0.0937 -0.1957 -0.1337
 7595W        W 8459  12.864   4.533  13.985 -0.1309 -0.0096 -0.0789
 7596W        W 8460  13.403   6.647  13.713 -0.1082 -0.0016 -0.1735
 7597W        W 8461  17.245   5.228  15.035  0.0267 -0.2317  0.0745
 7598W        W 8462  15.441   7.152  17.917  0.1433 -0.0704  0.0374
 7599W        W 8463  22.471   6.124  17.695  0.2517  0.2011 -0.2843
 7600W        W 8464  16.641   2.204  13.341  0.1702 -0.0411  0.2353
 7601W        W 8465  15.428  10.600  16.804  0.0153  0.0348 -0.0935
 7602W        W 8466  16.551   5.445  11.515  0.1187  0.2919 -0.0738
 7603W        W 8467  15.110   5.987  18.027 -0.1093 -0.2467 -0.2374
 7604W        W 8468  15.263   9.012  18.242 -0.0650 -0.1506  0.2380
 7605W        W 8469  17.282   4.578  13.681 -0.0774 -0.0078 -0.0434
 7606W        W 8470  20.219   3.158  14.743 -0.1056  0.3529  0.0477
 7607W        W 8471  17.631   6.608  19.596  0.0118  0.0591  0.0565
 7608W        W 8472  17.011   6.178  18.016 -0.2400  0.0711  0.0535
 7609W        W 8473  17.955   1.240  15.430  0.0876 -0.0528  0.0289
 7610W        W 8474  15.020   6.939  16.790  0.2245 -0.0420 -0.1270
 7611W        W 8475  13.378   5.566  17.212 -0.0673 -0.2164 -0.0987
 7612W        W 8476  13.078   7.442  15.363  0.0600 -0.1324 -0.3620
 7613W        W 8477  15.120   4.243  17.720  0.0690 -0.2177 -0.1752
 7614W        W 8478  15.560   5.170  15.618 -0.0932 -0.1013  0.1597
 7615W        W 8479  16.183   5.780  16.277 -0.0158  0.1069  0.0112
 7616W        W 8480  12.655   7.072  16.815 -0.3369  0.0425 -0.1896
 7617W        W 8481  15.526   4.868  20.137 -0.2244 -0.2066  0.1453
 7618W        W 8482  13.496   4.591  13.307  0.0105  0.0761 -0.2701
 7619W        W 8483  14.553   6.638  15.641  0.1075  0.0095 -0.0056
 7620W        W 8484  16.356   5.824  17.719  0.1190 -0.0397  0.0318
 7621W        W 8485  15.538   5.238  14.060 -0.1234 -0.0662 -0.0765
 7622W        W 8486  19.184   7.715  16.220 -0.2039  0.0564  0.3646
 7623W        W 8487  19.109   6.547  12.550  0.1131 -0.0437  0.2001
 7624W        W 8488  16.280   6.945  19.932 -0.0641  0.0449 -0.3291
 7625W        W 8489  15.469   6.672  15.532  0.0853 -0.4241  0.0167
 7626W        W 8490  16.432   4.291  15.792 -0.1810 -0.0579  0.2486
 7627W        W 8491  16.953   9.197  16.264  0.0392  0.2724 -0.1370
 7628W        W 8492  10.784   5.976  13.544  0.2597 -0.2364  0.1476
 7629W        W 8493  13.937   6.771  16.259  0.1404  0.0260 -0.1858
 7630W        W 8494  17.587   5.568  12.613 -0.1652 -0.1176  0.0564
 7631W        W 8495  14.396   6.389  13.338 -0.1521  0.0620  0.0678
 7632W        W 8496  18.152   4.962  17.219  0.1956 -0.1643 -0.1390
 7633W        W 8497  18.879   4.160  14.875  0.2074 -0.3021 -0.1080
 7634W        W 8498  19.849   6.300  18.794  0.1166 -0.1880  0.0422
 7635W        W 8499  17.314   6.790  15.695 -0.2799  0.2266  0.2140
 7636W        W 8500  19.208   6.867  18.904  0.0638 -0.0570  0.1097
 7637W        W 8501  17.727   6.265  15.802  0.2358 -0.2035 -0.4848
 7638W        W 8502  15.677   5.241  18.471  0.2698  0.0928 -0.1382
 7639W        W 8503  19.478   8.380  16.146 -0.1013 -0.0555  0.0670
 7640W        W 8504  14.055   5.648  17.140  0.1177 -0.2727 -0.2914
 7641W        W 8505  14.315   4.753  14.732 -0.1587  0.1356 -0.0909
 7642W        W 8506  15.375   6.748  17.052  0.0580 -0.0496  0.0540
 7643W        W 8507  15.143   1.870  16.583 -0.1352 -0.1880  0.0146
 7644W        W 8508  12.661   5.609  16.028  0.1158  0.0186  0.3142
 7645W        W 8509  15.588   7.366  18.874  0.0857  0.0835 -0.0814
 7646W        W 8510  14.315   5.191  14.206  0.0999 -0.0064 -0.0118
 7647W        W 8511  15.103   7.748  19.627  0.3372  0.1228 -0.0108
 7648W        W 8512  15.782   8.055  15.388 -0.0373 -0.1192 -0.3658
 7649W        W 8513  15.547   6.657  17.535 -0.0608 -0.0973  0.0403
 7650W        W 8514  18.061   4.775  15.015  0.0393 -0.2864 -0.2927
 7651W        W 8515  12.969   5.010  12.016  0.0219 -0.2923  0.4238
 7652W        W 8516  16.466   6.136  17.283 -0.0479  0.0729 -0.0313
 7653W        W 8517  18.390   3.289  13.800  0.2266  0.1404 -0.1659
 7654W        W 8518  16.851   6.352  15.701  0.0513 -0.3585  0.2756
 7655W        W 8519  15.924   7.300  16.986 -0.1442  0.0836  0.3488
 7656W        W 8520  17.071   7.188  14.769  0.0810  0.3247  0.2022
 7657W        W 8521  17.589   2.199  13.605 -0.3314  0.0848  0.3031
 7658W        W 8522  12.004   5.346  16.901 -0.2280  0.4027 -0.3158
 7659W        W 8523  14.540   3.794  19.488 -0.4101 -0.0872  0.1282
 7660W        W 8524  15.808   4.493  16.401 -0.0444  0.0564  0.0247
 7661W        W 8525  12.179   7.227  14.534  0.0842  0.3911 -0.0614
 7662W        W 8526  13.680   4.377  11.583 -0.0982  0.0000  0.1359
 7663W        W 8527  18.410   3.692  20.600  0.1133  0.1525  0.0860
 7664W        W 8528  15.895   7.150  15.719  0.0662  0.1482 -0.0066
 7665W        W 8529  14.589   3.668  15.369  0.0322  0.0039  0.0788
 7666W        W 8530  18.716   6.003  15.251 -0.1676  0.0212 -0.0916
 7667W        W 8531  18.310   7.032  17.690 -0.1096  0.1404  0.2293
 7668W        W 8532  16.246  10.212  15.623  0.0557 -0.4273 -0.0646
 7669W        W 8533  17.615   6.296  11.837  0.1268  0.0935  0.2593
 7670W        W 8534  17.790   4.479  14.097  0.1988  0.1180 -0.0163
 7671W        W 8535  18.362   6.057  13.173  0.0175  0.4618  0.0846
 7672W        W 8536  13.685   5.676  13.889 -0.0389 -0.1676 -0.2756
 7673W        W 8537  15.706   5.919  16.137 -0.1358  0.2498  0.0023
 7674W        W 8538  17.956   7.163  16.555  0.2941  0.1442  0.3542
 7675W        W 8539  20.718   7.266  17.306  0.0616 -0.1482 -0.2018
 7676W        W 8540  19.499   5.160  16.198 -0.2235 -0.2826  0.2546
 7677W        W 8541  16.541   6.717  15.280 -0.2755  0.0989  0.2834
 7678W        W 8542  13.923   5.484  14.316 -0.0184  0.0866  0.0542
 7679W        W 8543  15.779  10.139  15.352 -0.4409 -0.2962 -0.0883
 7680W        W 8544  13.285   5.933  17.545 -0.0987  0.2081  0.1376
 7681W        W 8545  14.821   8.822  18.327  0.0709  0.4865  0.0245
 7682W        W 8546  17.770   6.646  17.623 -0.1710 -0.3248  0.4382
 7683W        W 8547  14.729   7.568  17.296  0.0253  0.0387 -0.1290
 7684W        W 8548  15.725   6.608  12.627  0.1737  0.0104 -0.2555
 7685W        W 8549  19.104   5.788  15.548  0.0007 -0.1776 -0.3010
 7686W        W 8550  15.281   8.013  17.476 -0.1176 -0.0974  0.0977
 7687W        W 8551  16.151   4.859  17.685 -0.0272  0.2876 -0.3401
 7688W        W 8552  19.090   4.969  16.987  0.2598 -0.0608  0.3476
 7689W        W 8553  17.373   5.868  18.315 -0.0876 -0.5316  0.0769
 7690W        W 8554  17.692   5.827  16.168  0.0267  0.2816  0.0427
 7691W        W 8555  16.342   5.888  16.778 -0.0022 -0.1361  0.1800
 7692W        W 8556  13.236   7.554  17.036 -0.4206  0.0494  0.2565
 7693W        W 8557  14.255   5.137  17.126 -0.3408 -0.1716  0.0933
 7694W        W 8558  20.469   5.582  18.589  0.2248 -0.0034  0.1339
 7695W        W 8559  18.842   6.915  14.348 -0.1001  0.3551 -0.0831
 7696W        W 8560  14.856   5.397  16.751  0.2952  0.3118  0.1242
 7697W        W 8561  16.420   4.028  17.518 -0.3469 -0.1098 -0.1709
 7698W        W 8562  15.615   7.172  15.324  0.0442 -0.1107  0.0514
 7699W        W 8563  15.493   7.210  16.804  0.1590 -0.1016  0.1407
 7700W        W 8564  14.159   9.642  19.414 -0.1694 -0.0102  0.1568
 7701W        W 8565  15.431   7.013  15.927  0.0901  0.1093 -0.2829
 7702W        W 8566  15.025   6.575  23.165 -0.0365 -0.1075  0.0406
 7703W        W 8567  15.138   5.450  23.818 -0.0982  0.1309  0.1877
 7704W        W 8568  16.835   5.872  19.048 -0.1861  0.1072 -0.0108
 7705W        W 8569  19.378   8.369  22.537 -0.1718  0.1577 -0.3496
 7706W        W 8570  14.346   9.424  18.924  0.2909  0.0452 -0.1683
 7707W        W 8571  15.716   3.527  19.661 -0.0534  0.1063  0.1860
 7708W        W 8572  16.748   6.589  22.564 -0.1904 -0.1483 -0.2928
 7709W        W 8573  16.416   5.872  18.784 -0.0987  0.0494  0.0669
 7710W        W 8574  18.960   4.302  23.124 -0.1892  0.0871 -0.5517
 7711W        W 8575  15.025   1.932  19.076 -0.0780 -0.2151 -0.0735
 7712W        W 8576  15.537   0.717  20.075  0.1433 -0.0250  0.2707
 7713W        W 8577  16.792   3.842  18.710 -0.4658  0.0854  0.3169
 7714W        W 8578  18.171   3.263  20.691  0.1068 -0.0341  0.1361
 7715W        W 8579  15.003   3.961  21.319  0.1293 -0.1369 -0.0985
 7716W        W 8580  10.981   6.341  20.530  0.0860  0.1459  0.3083
 7717W        W 8581  14.584   4.983  22.533  0.0244 -0.0234  0.1293
 7718W        W 8582  15.215   4.943  21.111  0.0727  0.0907 -0.0076
 7719W        W 8583  11.739   2.498  21.998 -0.2405 -0.0610 -0.4324
 7720W        W 8584  16.708   5.614  22.612  0.2033  0.1292 -0.1303
 7721W        W 8585  16.392   5.169  19.724  0.3784  0.1514  0.0596
 7722W        W 8586  17.737   7.484  20.993 -0.1232 -0.0729 -0.1836
 7723W        W 8587  17.739   5.188  19.454 -0.0375 -0.0893  0.1718
 7724W        W 8588  18.848   5.510  22.889  0.2967  0.2536  0.1371
 7725W        W 8589  12.927   4.552  20.660 -0.1357 -0.2513  0.0869
 7726W        W 8590  13.026   4.847  20.232  0.1739 -0.1607  0.2151
 7727W        W 8591  16.433   3.500  19.457 -0.0441 -0.0449 -0.2921
 7728W        W 8592  18.892   4.144  19.179 -0.0780 -0.1497 -0.0364
 7729W        W 8593  14.591   3.635  19.951  0.2174  0.0788 -0.1267
 7730W        W 8594  14.511   6.882  22.182 -0.1934 -0.0417  0.1766
 7731W        W 8595  13.306   3.173  19.564 -0.1089  0.0413  0.0919
 7732W        W 8596  16.834   4.060  21.279 -0.0016  0.2410 -0.2403
 7733W        W 8597  17.076   6.999  20.720 -0.0549  0.0109 -0.2453
 7734W        W 8598  15.580   8.566  22.667 -0.1965 -0.2106 -0.0914
 7735W        W 8599  15.231   5.344  19.323  0.0200 -0.0927 -0.0202
 7736W        W 8600  12.714   5.815  24.157  0.2070 -0.2512  0.0720
 7737W        W 8601  18.277   6.674  21.300  0.2651  0.2626  0.1535
 7738W        W 8602  13.365   5.120  19.153  0.3737 -0.2486  0.1413
 7739W        W 8603  15.060   3.850  20.243 -0.0228  0.2869 -0.0850
 7740W        W 8604  18.040   4.957  19.154  0.1844 -0.2268  0.0363
 7741W        W 8605  17.515   4.314  19.448 -0.2762  0.0108 -0.0553
 7742W        W 8606  17.515   2.862  20.442 -0.1712 -0.2411 -0.0639
 7743W        W 8607  17.862   6.640  22.298 -0.2712 -0.0905  0.1442
 7744W        W 8608  15.074   6.490  20.800 -0.1888 -0.0311 -0.0602
 7745W        W 8609  18.719   5.725  18.625 -0.2063 -0.0306  0.4216
 7746W        W 8610  15.442   8.924  19.092 -0.1169 -0.0030  0.3075
 7747W        W 8611  15.424   6.796  19.697 -0.3709 -0.1445  0.0088
 7748W        W 8612  15.840   3.445  20.320  0.1945  0.3487  0.1926
 7749W        W 8613  18.122   6.210  21.164  0.1617  0.1298 -0.0975
 7750W        W 8614  17.317   6.068  19.816 -0.4206  0.1005 -0.2616
 7751W        W 8615  15.723   5.102  17.825  0.3697 -0.3519 -0.1261
 7752W        W 8616  16.129   7.243  21.230 -0.0084 -0.0612 -0.3299
 7753W        W 8617  15.270   3.165  19.637 -0.0976 -0.1037 -0.0752
 7754W        W 8618  17.614   6.157  22.065 -0.1278  0.0180  0.0934
 7755W        W 8619  16.370   5.401  18.995 -0.2204 -0.2648  0.0972
 7756W        W 8620  17.288   4.243  20.518 -0.0325  0.0501 -0.3573
 7757W        W 8621  12.807   5.779  18.582  0.1323 -0.2491  0.0050
 7758W        W 8622  14.919   3.705  20.926 -0.0795  0.0466  0.4119
 7759W        W 8623  17.016   5.000  19.437 -0.1106 -0.1862  0.1113
 7760W        W 8624  15.994   6.176  18.551 -0.3530 -0.0630  0.1648
 7761W        W 8625  15.159   7.465  19.202 -0.3757  0.0726  0.1145
 7762W        W 8626  16.044   4.433  17.466  0.1259  0.1029  0.1252
 7763W        W 8627  12.928   5.745  21.953 -0.0690 -0.1565  0.3139
 7764W        W 8628  14.322   5.535  21.314  0.0704 -0.1295 -0.0015
 7765W        W 8629  15.075   4.782  18.509  0.1446  0.0614 -0.3172
 7766W        W 8630  14.425   3.178  19.065  0.2085 -0.0139  0.1283
 7767W        W 8631  17.396   5.108  19.824 -0.1156  0.1865  0.3541
 7768W        W 8632  15.600   6.474  16.712  0.1238  0.0454  0.0723
 7769W        W 8633  13.864   4.731  18.135 -0.0065  0.1562 -0.4316
 7770W        W 8634  15.486   6.231  20.441 -0.1896 -0.0514  0.3583
 7771W        W 8635  15.771   4.929  20.985 -0.0581 -0.2041 -0.0519
 7772W        W 8636  19.135   6.128  19.980  0.0739 -0.4250 -0.1549
 7773W        W 8637  17.223   5.017  17.444 -0.4135 -0.0320  0.2022
 7774W        W 8638  15.769   8.383  21.759  0.0308 -0.1689  0.0917
 7775W        W 8639  16.134   7.149  22.946 -0.1145  0.2104  0.4723
 7776W        W 8640  16.012   3.604  16.616  0.3225  0.1489 -0.1223
 7777W        W 8641  14.494   4.110  20.139  0.0618  0.0107 -0.0295
 7778W        W 8642  12.650   4.581  19.741  0.0626 -0.0859  0.0296
 7779W        W 8643  15.151   4.798  21.623  0.1159  0.0650  0.1475
 7780W        W 8644  15.776   4.588  18.054 -0.3740  0.1266 -0.1540
 7781W        W 8645  18.022   4.915  20.159  0.1624  0.0485 -0.1279
 7782W        W 8646  12.798   3.344  21.503 -0.1888 -0.1310 -0.1620
 7783W        W 8647  16.286   3.266  19.063 -0.1046 -0.0050 -0.1026
 7784W        W 8648  14.607   2.554  18.310 -0.2821  0.0536  0.1798
 7785W        W 8649  12.861   5.144  19.341 -0.1989 -0.0276  0.0028
 7786W        W 8650  16.640   3.737  19.871  0.2702  0.0318 -0.0609
 7787W        W 8651  16.088   5.099  18.268 -0.0691  0.1684 -0.0783
 7788W        W 8652  17.931   7.230  22.292  0.4346 -0.0121 -0.1691
 7789W        W 8653  15.844   3.699  20.745  0.2254 -0.0176 -0.1375
 7790W        W 8654  19.149   7.887  22.076 -0.2703 -0.1769  0.1316
 7791W        W 8655  18.187   4.505  21.519 -0.0572  0.0157 -0.0595
 7792W        W 8656  19.670   5.713  20.236 -0.1092  0.1055 -0.2209
 7793W        W 8657  17.904   6.086  20.674 -0.0737 -0.0876  0.1452
 7794W        W 8658  15.695   7.594  19.289  0.2179 -0.0370 -0.1081
 7795W        W 8659  17.568   3.138  19.303 -0.5730  0.1315  0.4385
 7796W        W 8660  13.512   5.663  19.076 -0.3243  0.0621 -0.3195
 7797W        W 8661  18.816   4.987  19.859  0.1734  0.0412  0.2246
 7798W        W 8662  15.630   5.454  14.571  0.1946  0.2752  0.1449
 7799W        W 8663  15.440   9.510  23.783  0.0666  0.2567 -0.0640
 7800W        W 8664  11.175   6.872  19.161  0.2923 -0.0679  0.1565
 7801W        W 8665  17.905   5.324  19.944 -0.3563  0.2087  0.4710
 7802W        W 8666  19.079   8.002  17.326  0.0360 -0.0168  0.0193
 7803W        W 8667  13.503   4.809  19.565  0.1454 -0.1453  0.1478
 7804W        W 8668  13.308   5.978  16.598  0.0152 -0.2560 -0.2129
 7805W        W 8669  15.964   7.991  21.421 -0.1351  0.3215 -0.1148
 7806W        W 8670  18.030   4.483  23.382  0.2419 -0.0239  0.2048
 7807W        W 8671  14.606   5.167  21.435  0.0401  0.0415 -0.2056
 7808W        W 8672  17.535   4.999  18.507  0.1549  0.1142  0.1829
 7809W        W 8673  15.455   6.259  19.517 -0.1341 -0.2088  0.0313
 7810W        W 8674  16.359   4.673  18.468 -0.2794 -0.1965  0.2500
 7811W        W 8675  18.513   4.723  20.309  0.0448 -0.1056  0.0943
 7812W        W 8676  14.227   6.129  20.629 -0.0579  0.0277 -0.0698
 7813W        W 8677  15.701   5.784  20.732 -0.0265 -0.1155  0.1263
 7814W        W 8678  20.327   3.766  19.969 -0.1139 -0.1391  0.0100
 7815W        W 8679  18.187   8.955  23.199 -0.0788  0.0787 -0.0340
 7816W        W 8680  17.818   4.493  19.030 -0.0051  0.2250 -0.0133
 7817W        W 8681  14.495   6.392  18.740 -0.0202  0.1340 -0.1456
 7818W        W 8682  16.613   2.017  21.933  0.0534  0.0654 -0.0871
 7819W        W 8683  14.873   5.797  22.304  0.2334  0.1225 -0.0153
 7820W        W 8684  16.091   3.780  19.267  0.2668  0.1674 -0.1486
 7821W        W 8685  16.630   5.512  16.240  0.0447  0.1111  0.2965
 7822W        W 8686  18.640   2.334  21.236 -0.2207  0.0515  0.4988
 7823W        W 8687  17.276   8.497  19.343  0.0322  0.2208 -0.1837
 7824W        W 8688  14.920   5.491  17.970  0.1942 -0.2160  0.1259
 7825W        W 8689  18.162   6.106  17.376 -0.0670  0.2980  0.2967
 7826W        W 8690  17.472   3.148  18.642  0.2281  0.1278  0.1104
 7827W        W 8691  19.429   6.982  21.116 -0.0463  0.2143  0.0688
 7828W        W 8692  12.449   3.723  20.208  0.3392  0.1488 -0.0405
 7829W        W 8693  18.121   8.758  22.134 -0.0017 -0.1474 -0.1071
 7830W        W 8694  16.480   9.801  20.359  0.2906  0.4258  0.0429
 7831W        W 8695  15.230   5.460  20.790 -0.3028 -0.3248 -0.2705
 7832W        W 8696  20.018   7.033  19.886 -0.1542 -0.1143 -0.1016
 7833W        W 8697  17.788   3.729  21.775 -0.1144 -0.1249 -0.1353
 7834W        W 8698  14.125   4.858  21.313  0.0973 -0.1585 -0.5238
 7835W        W 8699  19.872   2.905  20.521 -0.0423 -0.1876 -0.1002
 7836W        W 8700  17.845   3.728  21.293  0.1493 -0.1492  0.1666
 7837W        W 8701  12.548   5.958  21.662 -0.1208  0.2212  0.1130
 7838W        W 8702  16.563   2.056  15.938  0.0827 -0.0894  0.1391
 7839W        W 8703  19.142   6.660  21.996  0.1281  0.0942 -0.0832
 7840W        W 8704  17.645   5.945  19.472  0.0158 -0.0320  0.0961
 7841W        W 8705  16.318   7.684  21.641 -0.2494  0.2115 -0.1748
 7842W        W 8706  16.183   5.362  17.536 -0.1038 -0.2274  0.2338
 7843W        W 8707  16.334   3.625  20.273  0.2111 -0.1779 -0.4198
 7844W        W 8708  14.857   5.710  19.962 -0.0611 -0.1033 -0.2149
 7845W        W 8709  17.342   5.496  19.355  0.0680  0.0712 -0.1986
 7846W        W 8710  15.535   6.877  24.748  0.3355 -0.0725  0.0686
 7847W        W 8711  16.883   4.143  17.731 -0.0675 -0.2355 -0.1913
 7848W        W 8712  16.941   3.906  20.255 -0.1545  0.1380 -0.2032
 7849W        W 8713  15.589   6.297  17.851  0.2953  0.1265 -0.3727
 7850W        W 8714  16.442   7.386  19.771 -0.1142 -0.0479 -0.1017
 7851W        W 8715  14.937   7.122  22.989  0.2683 -0.3486  0.1783
 7852W        W 8716  18.010   7.108  21.330  0.1030 -0.0396  0.2143
 7853W        W 8717  15.750   6.944  21.734 -0.2278 -0.1457 -0.0402
 7854W        W 8718  15.252   5.778  20.389 -0.0465 -0.0863 -0.1173
 7855W        W 8719  14.690   4.957  16.176 -0.1928 -0.1930 -0.1701
 7856W        W 8720  16.915   4.133  20.774  0.0253  0.1819 -0.0111
 7857W        W 8721  14.807   2.729  21.239  0.0430 -0.0329 -0.3675
 7858W        W 8722  13.861   4.286  20.913  0.0415 -0.0133 -0.2003
 7859W        W 8723  15.864   5.683  18.764 -0.1082  0.1248  0.1233
 7860W        W 8724  14.814   2.526  17.789 -0.0281  0.3382 -0.3984
 7861W        W 8725  20.590   4.803  20.537  0.0179  0.1372 -0.0382
 7862W        W 8726  17.454   0.810  21.565  0.0613 -0.1016 -0.1651
 7863W        W 8727  16.618   6.285  21.404 -0.1343 -0.2240  0.3689
 7864W        W 8728  17.736   5.674  20.448 -0.1565  0.2014  0.0091
 7865W        W 8729  18.951   4.927  21.651 -0.0045 -0.0748  0.0248
 7866W        W 8730  16.654   5.038  21.061 -0.2492  0.0160  0.1230
 7867W        W 8731  15.045   4.271  22.236  0.1325  0.3229 -0.2725
 7868W        W 8732  15.899   4.834  20.511 -0.1184  0.1519  0.2498
 7869W        W 8733  14.258   6.633  20.486 -0.3548 -0.2375  0.0648
 7870W        W 8734  18.972   8.866  22.493 -0.1504  0.0555 -0.1844
 7871W        W 8735  16.307   3.720  16.954 -0.1828 -0.5291 -0.1024
 7872W        W 8736  15.870   6.803  17.183 -0.2333 -0.1377  0.0102
 7873W        W 8737  14.812   4.660  17.383  0.1927 -0.2577  0.0125
 7874W        W 8738  14.211   4.384  21.214 -0.0877 -0.2354  0.1042
 7875W        W 8739  18.596   4.625  19.498  0.1217  0.0001  0.2733
 7876W        W 8740  18.327   4.438  19.941  0.4451 -0.1203 -0.0011
 7877W        W 8741  17.247   5.257  21.709  0.1452 -0.0809  0.1589
 7878W        W 8742  14.128   4.840  20.407  0.0834 -0.0765  0.2334
 7879W        W 8743  14.494   6.161  20.185  0.0529 -0.0194 -0.0557
 7880W        W 8744  13.803   6.423  18.262 -0.0854 -0.2707 -0.0289
 7881W        W 8745  15.772   5.478  21.140  0.0524 -0.0447  0.0807
 7882W        W 8746  16.220   4.378  20.480  0.0579  0.1149  0.0905
 7883W        W 8747  15.388   4.432  18.301  0.2543  0.0069 -0.4833
 7884W        W 8748  18.481   4.664  19.032  0.2014 -0.1061 -0.2172
 7885W        W 8749  17.535   4.827  21.859  0.3237 -0.0133 -0.4206
 7886W        W 8750  16.789   7.452  18.975 -0.0067  0.2130  0.2707
 7887W        W 8751  15.836   7.484  21.512  0.0283  0.1337 -0.2264
 7888W        W 8752  18.202   5.587  20.274  0.0492  0.0263 -0.2673
 7889W        W 8753  13.975   3.530  18.931  0.2051 -0.0154  0.4203
 7890W        W 8754  14.506   4.102  21.573 -0.1256 -0.1178 -0.4335
 7891W        W 8755  15.437   5.587  17.961  0.1287  0.0180  0.0135
 7892W        W 8756  15.046   6.074  18.780  0.3446 -0.0343  0.2105
 7893W        W 8757  12.785   5.171  18.005 -0.0329 -0.0940 -0.1308
 7894W        W 8758  14.315   4.769  19.520 -0.0368 -0.0255  0.3421
 7895W        W 8759  16.604   6.147  20.554  0.2510  0.5406 -0.0984
 7896W        W 8760  16.804   3.623  20.617  0.3104 -0.0672 -0.0685
 7897W        W 8761  17.303   3.518  19.021 -0.2436  0.2062  0.1417
 7898W        W 8762  19.385   3.853  18.901 -0.0127  0.1007 -0.2097
 7899W        W 8763  15.702   5.305  20.641 -0.0926 -0.1242  0.0166
 7900W        W 8764  13.458   6.465  20.981  0.0274  0.2136  0.2686
 7901W        W 8765  18.477   4.834  22.358 -0.1025  0.1861 -0.0593
 7902W        W 8766  14.065   1.825  20.997  0.2278  0.1201  0.3420
 7903W        W 8767  15.065   3.564  19.870 -0.0917  0.0155  0.1119
 7904W        W 8768  16.790   4.397  18.172 -0.0585 -0.1714  0.0172
 7905W        W 8769  15.423   2.877  18.955 -0.0549 -0.0122  0.0148
 7906W        W 8770  16.538   2.759  21.564  0.0826  0.2142 -0.1100
 7907W        W 8771  15.120   4.747  17.777 -0.0072 -0.1582 -0.0359
 7908W        W 8772  12.559   4.634  19.176 -0.0633  0.0152  0.0501
 7909W        W 8773  15.355   5.075  18.857  0.0869  0.0794 -0.0731
 7910W        W 8774  14.092   7.914  20.431 -0.0485 -0.0102  0.0299
 7911W        W 8775  15.822   4.408  20.061 -0.1809  0.1278  0.1883
 7912W        W 8776  12.090   4.645  19.689 -0.5905  0.0619  0.0637
 7913W        W 8777  14.074   1.809  19.919 -0.2697  0.2973 -0.2984
 7914W        W 8778  13.385   4.512  20.913 -0.1137 -0.1052 -0.3093
 7915W        W 8779  17.135   4.938  21.207 -0.1634  0.4389  0.3303
 7916W        W 8780  17.207   4.913  22.260 -0.1916 -0.0440  0.1071
 7917W        W 8781  20.024   4.678  18.798 -0.1658 -0.1280 -0.0430
 7918W        W 8782  16.489   7.063  20.919  0.0781 -0.0874 -0.2633
 7919W        W 8783  17.558   6.364  20.344 -0.2268 -0.1388  0.2135
 7920W        W 8784  14.858   2.854  19.649 -0.1108 -0.1126 -0.1722
 7921W        W 8785  15.265   4.242  19.248  0.0847  0.0930  0.0476
 7922W        W 8786  19.168   3.159  20.673  0.3167  0.0795  0.3132
 7923W        W 8787  17.448   6.588  21.804  0.2329  0.1518 -0.3300
 7924W        W 8788  15.734   8.884  21.818 -0.0134  0.0192  0.2199
 7925W        W 8789  15.508   2.189  16.416  0.1171  0.1085 -0.2608
 7926W        W 8790  21.374   7.140  17.725 -0.1268 -0.1249  0.1557
 7927W        W 8791  15.151   4.447  21.173 -0.2561 -0.1206  0.3140
 7928W        W 8792  13.632   6.737  21.892 -0.1063 -0.2586  0.1597
 7929W        W 8793  16.944   5.476  21.089 -0.1132  0.0610  0.1456
 7930W        W 8794  15.530   4.567  17.592 -0.0640  0.1455 -0.1399
 7931W        W 8795  17.020   5.504  19.839  0.0540 -0.4057 -0.1288
 7932W        W 8796  15.369   1.126  20.407  0.0188  0.1696 -0.1451
 7933W        W 8797  15.927   6.774  22.696 -0.0320  0.0060  0.2432
 7934W        W 8798  14.624   5.308  19.942  0.2030 -0.2472  0.0940
 7935W        W 8799  15.637   6.345  20.013  0.5607 -0.1744  0.2272
 7936W        W 8800  17.322   4.388  20.971 -0.1854 -0.2725  0.0766
 7937W        W 8801  18.857   4.629  22.737  0.3273 -0.0109  0.7039
 7938W        W 8802  19.249   4.332  18.759 -0.0074 -0.1464  0.1922
 7939W        W 8803  16.555   3.231  20.410 -0.2627 -0.1833 -0.0333
 7940W        W 8804  15.474   7.957  21.701  0.0042 -0.1438  0.0615
 7941W        W 8805  17.354   7.251  20.164 -0.0093  0.1627  0.0397
 7942W        W 8806  15.777   6.209  20.924  0.1139 -0.1600  0.1980
 7943W        W 8807  15.641   6.031  21.516 -0.2504 -0.2020  0.0992
 7944W        W 8808  17.678   4.194  18.524  0.0394 -0.0094 -0.2198
 7945W        W 8809  14.669   1.406  20.904 -0.0748 -0.5350  0.2954
 7946W        W 8810  17.458   5.461  23.648 -0.2730 -0.0649  0.1590
 7947W        W 8811  12.309   4.171  19.353 -0.0688 -0.0921  0.0388
 7948W        W 8812  21.486   6.310  20.285 -0.0431 -0.0078 -0.0574
 7949W        W 8813  15.532   8.264  20.309 -0.0101  0.1789 -0.1235
 7950W        W 8814  17.805  10.527  20.136 -0.0314 -0.0784  0.2979
 7951W        W 8815  16.033   6.278  17.559  0.0361 -0.2472 -0.2151
 7952W        W 8816  16.412   5.975  19.327  0.1325 -0.3023  0.0379
 7953W        W 8817  16.694   9.512  20.682 -0.2367 -0.1718  0.1680
 7954W        W 8818  15.769   9.542  23.428  0.1020  0.0967  0.0472
 7955W        W 8819  18.021   7.488  22.757  0.0603 -0.1394  0.2946
 7956W        W 8820  16.334   3.963  18.375  0.1122  0.0760  0.0402
 7957W        W 8821  17.409   9.134  20.044 -0.1936  0.0818  0.0978
 7958W        W 8822  16.751   4.341  21.685 -0.1550 -0.0740  0.0695
 7959W        W 8823  16.191   3.354  20.745  0.1805 -0.1500  0.2904
 7960W        W 8824  18.912   5.699  21.125  0.0845  0.1939  0.2434
 7961W        W 8825  17.940   2.517  19.860 -0.1045 -0.0542  0.2603
 7962W        W 8826  15.644   5.388  19.064  0.0677 -0.4069 -0.0391
 7963W        W 8827  14.383   6.501  21.828 -0.1940  0.0387 -0.0214
 7964W        W 8828  18.376   5.351  21.288 -0.3502  0.1026 -0.0522
 7965W        W 8829  14.366   4.228  19.650 -0.1011  0.0867  0.2170
 7966W        W 8830  13.120   5.703  23.371  0.0478  0.1009  0.1336
 7967W        W 8831  13.980   5.551  23.314 -0.1833  0.0515  0.0349
 7968W        W 8832  16.152   8.217  20.503 -0.0668  0.0096  0.0500
 7969W        W 8833  16.495   6.483  19.718  0.2731 -0.2036  0.2346
 7970W        W 8834  12.827   4.026  19.981 -0.2778 -0.4635 -0.3157
 7971W        W 8835  17.169   3.213  20.471  0.1083 -0.2889 -0.1966
 7972W        W 8836  17.231   4.295  21.503  0.2383 -0.1655 -0.1084
 7973W        W 8837  17.641   5.197  20.399  0.3481 -0.0793  0.1782
 7974W        W 8838  14.624   1.063  19.011 -0.1983  0.2450 -0.0720
 7975W        W 8839  15.361   5.814  19.926 -0.1898  0.2125 -0.1300
 7976W        W 8840  17.758   6.591  21.366 -0.1745 -0.2901  0.0614
 7977W        W 8841  19.602   3.382  20.781  0.1214  0.0672 -0.4298
 7978W        W 8842  14.958   3.031  19.159  0.1007 -0.0548 -0.1341
 7979W        W 8843  14.863   2.297  19.485  0.0022 -0.1348  0.2624
 7980W        W 8844  16.008   3.619  14.192  0.1887 -0.0910 -0.0967
 7981W        W 8845  15.582   7.058  21.295 -0.0103  0.2875 -0.1433
 7982W        W 8846  15.010   6.224  20.036 -0.1769 -0.2325 -0.1421
 7983W        W 8847  15.177   6.810  18.195 -0.2800  0.1701 -0.0079
 7984W        W 8848  15.457   4.537  18.784 -0.3722  0.1042  0.1676
 7985W        W 8849  14.355   7.719  22.402 -0.2478 -0.0295 -0.2521
 7986W        W 8850  17.347   5.702  16.546  0.0302 -0.0151  0.0297
 7987W        W 8851  17.847   0.578  23.986 -0.0726 -0.1014 -0.0803
 7988W        W 8852  18.213   7.021  20.281 -0.0471  0.1922 -0.1219
 7989W        W 8853  13.170   5.918  23.828 -0.2330  0.1881 -0.0583
 7990W        W 8854  19.134   1.365  19.466  0.0347  0.1069  0.0256
 7991W        W 8855  14.048   6.930  18.480  0.3031 -0.1000  0.2288
 7992W        W 8856  18.293   3.067  17.123  0.1278 -0.1484 -0.1481
 7993W        W 8857  16.452   2.566  19.244 -0.1596  0.1270 -0.0389
 7994W        W 8858  19.503   4.097  21.336  0.1221 -0.1534 -0.2673
 7995W        W 8859  13.424   6.539  18.661 -0.0012  0.2785 -0.0543
 7996W        W 8860  15.840   3.632  18.856  0.1832 -0.1467  0.0241
 7997W        W 8861  17.872   4.539  20.921 -0.2039 -0.0434 -0.2111
 7998W        W 8862  18.315   2.207  19.694 -0.0623 -0.2069 -0.0963
 7999W        W 8863  18.620   7.910  21.327 -0.2279  0.1667  0.1496
 8000W        W 8864  19.030   3.626  20.935 -0.0180 -0.2764  0.3871
 8001W        W 8865  10.697   5.645  18.996  0.0455 -0.0398  0.2001
 8002W        W 8866  11.486   6.741  20.137 -0.0652  0.1238 -0.0726
 8003W        W 8867  13.248   7.040  20.574 -0.1317 -0.3660 -0.0345
 8004W        W 8868  16.196   6.045  21.214  0.0647  0.1906  0.0269
 8005W        W 8869  19.438   5.364  20.450  0.2793 -0.0076 -0.2807
 8006W        W 8870  16.109   8.665  19.170  0.0811  0.1189  0.0704
 8007W        W 8871  17.198   6.759  19.305 -0.2923 -0.1406  0.0735
 8008W        W 8872  16.303   7.749  23.176 -0.1991 -0.2902  0.0166
 8009W        W 8873  16.212   2.369  18.187 -0.3546 -0.0052  0.0095
 8010W        W 8874  15.558   3.765  21.667 -0.1241  0.2887 -0.0272
 8011W        W 8875  14.951   4.915  20.061  0.0356 -0.4332 -0.2969
 8012W        W 8876  14.590   1.473  19.238  0.0074  0.1348  0.0166
 8013W        W 8877  14.647   6.329  22.408  0.0504  0.0919 -0.1639
 8014W        W 8878  18.281   3.891  21.495  0.2711 -0.2750  0.0848
 8015W        W 8879  17.444   4.784  19.231  0.1900  0.2257 -0.3619
 8016W        W 8880  14.488   7.179  23.879  0.1400 -0.1701 -0.1616
 8017W        W 8881  13.547   5.542  23.063 -0.3180  0.0318  0.2007
 8018W        W 8882  14.466   5.860  18.851  0.0867  0.0210  0.1590
 8019W        W 8883  17.949   1.903  20.088 -0.2220 -0.0116 -0.1422
 8020W        W 8884  17.682   8.390  18.954  0.1582 -0.0849 -0.1291
 8021W        W 8885  14.710   4.531  19.901  0.2989  0.0439  0.0680
 8022W        W 8886  16.083   4.993  21.386  0.2385 -0.1245 -0.0514
 8023W        W 8887  16.597   7.892  19.694 -0.1865 -0.2295  0.1808
 8024W        W 8888  16.487   6.586  22.129  0.1034 -0.0144  0.2488
 8025W        W 8889  15.808   4.177  20.733 -0.2050 -0.0271 -0.0546
 8026W        W 8890  15.686   5.192  19.576  0.3434  0.0841 -0.1807
 8027W        W 8891  18.173   6.683  21.889 -0.2745  0.0331  0.3781
 8028W        W 8892  17.314   3.756  21.450  0.2022  0.1026  0.0226
 8029W        W 8893  16.656   4.933  20.524  0.0025  0.2297  0.1276
 8030W        W 8894  15.283   4.875  19.368 -0.4395  0.3365  0.0755
 8031W        W 8895  18.659   4.086  18.280  0.2371 -0.4644  0.0254
 8032W        W 8896  15.109   4.496  20.203  0.0768  0.0981 -0.1525
 8033W        W 8897  17.253   3.918  21.922 -0.2134 -0.2290 -0.0229
 8034W        W 8898  19.932   8.095  21.802 -0.0653  0.0071  0.1474
 8035W        W 8899  16.442   7.471  22.791 -0.0502  0.0376 -0.3070
 8036W        W 8900  19.157   6.039  20.800  0.2079 -0.0506 -0.0882
 8037W        W 8901  19.897   7.276  20.454  0.1671 -0.4494  0.1110
 8038W        W 8902  16.743   4.464  20.333 -0.4566 -0.1029 -0.3255
 8039W        W 8903  19.285   7.236  17.623 -0.1030 -0.0986  0.0685
 8040W        W 8904  16.010   6.232  22.897  0.0614 -0.3017  0.1653
 8041W        W 8905  18.090   3.446  17.478  0.2727  0.2269 -0.0774
 8042W        W 8906  14.929   5.279  18.432 -0.1004  0.1011 -0.2912
 8043W        W 8907  18.446   3.950  20.176  0.1275 -0.1320  0.0822
 8044W        W 8908  17.257   5.652  22.807 -0.0441 -0.0068  0.1188
 8045W        W 8909  15.108   5.834  19.476  0.1914 -0.1704  0.0263
 8046W        W 8910  17.666   6.304  18.538  0.0326 -0.2703 -0.2310
 8047W        W 8911  14.646   6.913  21.666  0.1949 -0.1826 -0.3133
 8048W        W 8912  15.055   2.243  16.190  0.2527  0.0792  0.0572
 8049W        W 8913  12.862   5.647  20.356 -0.0892 -0.2940  0.1567
 8050W        W 8914  16.329   7.019  23.414 -0.0062 -0.2298  0.1822
 8051W        W 8915  14.333   5.787  19.899  0.1032  0.1717  0.2866
 8052W        W 8916  18.159   4.429  20.412  0.3206 -0.0136  0.2427
 8053W        W 8917  17.757   8.039  16.072 -0.2113 -0.1022  0.0753
 8054W        W 8918  17.787   7.795  21.414  0.4899 -0.2323  0.3274
 8055W        W 8919  18.072   5.836  19.867  0.2846 -0.2207 -0.1934
 8056W        W 8920  14.682   6.731  19.078 -0.0895  0.0574  0.1791
 8057W        W 8921  17.423   4.561  18.779  0.2705  0.3408 -0.2523
 8058W        W 8922  14.329   5.249  20.873  0.2447  0.0374 -0.0355
 8059W        W 8923  18.174   3.340  21.520  0.3637 -0.0070  0.1634
 8060W        W 8924  15.339   3.677  20.624  0.2493  0.0330  0.0422
 8061W        W 8925  13.247   5.450  20.621  0.1216  0.3248 -0.0808
 8062W        W 8926  16.272   4.700  20.827  0.1258 -0.1455 -0.1157
 8063W        W 8927  16.891   6.325  20.934  0.0268  0.1133  0.0649
 8064W        W 8928  16.516   4.447  21.248 -0.2007  0.0118  0.1245
 8065W        W 8929  18.299   3.446  18.911 -0.2131 -0.2657 -0.2319
 8066W        W 8930  14.214   4.362  20.558  0.0199  0.0861  0.1364
 8067W        W 8931  20.465   6.185  20.217 -0.1889  0.0943  0.3831
 8068W        W 8932  18.632   7.144  19.192 -0.1552  0.3308  0.1113
 8069W        W 8933  19.178   4.429  20.595  0.1180 -0.0409  0.0116
 8070W        W 8934  17.763   4.156  20.608 -0.0771 -0.2410  0.4219
 8071W        W 8935  18.128   4.479  19.426 -0.2673  0.1251  0.1874
 8072W        W 8936  13.716   5.656  19.902  0.2431 -0.2683  0.1860
 8073W        W 8937  17.199   3.215  17.457  0.1686 -0.0714 -0.0822
 8074W        W 8938  17.303   5.739  18.864 -0.3509  0.1625  0.1445
 8075W        W 8939  16.129   6.429  20.100  0.0705 -0.0998  0.0053
 8076W        W 8940  15.726   7.932  18.715  0.1493 -0.1620 -0.1323
 8077W        W 8941  17.039   4.817  21.664  0.0193 -0.0216 -0.2771
 8078W        W 8942  17.160   4.785  20.267  0.2846 -0.2793 -0.1236
 8079W        W 8943  17.578   8.081  22.580  0.2236 -0.1840 -0.1383
 8080W        W 8944  15.730   4.120  21.247 -0.1491 -0.0126 -0.1031
 8081W        W 8945  14.692   4.729  21.242 -0.0412 -0.1938  0.0145
 8082W        W 8946  15.882   3.982  23.132 -0.2052  0.1363 -0.0529
 8083W        W 8947  13.978   5.739  18.953 -0.1006 -0.0792 -0.1313
 8084W        W 8948  16.000   2.795  19.064 -0.1321  0.3009 -0.1038
 8085W        W 8949  17.440   5.668  21.951  0.1748 -0.0145 -0.1014
 8086W        W 8950  16.744   6.657  23.886 -0.1958  0.0493  0.1301
 8087W        W 8951  16.940   7.410  20.378 -0.0584  0.3447 -0.0819
 8088W        W 8952  16.283   5.930  22.616 -0.2352  0.0352 -0.0769
 8089W        W 8953  17.892   6.764  23.342  0.2942  0.2854 -0.2712
 8090W        W 8954  16.898   8.239  20.036 -0.0798 -0.0221 -0.1754
 8091W        W 8955  16.009   5.660  21.585  0.0818 -0.1284 -0.1880
 8092W        W 8956  20.385   7.611  20.464  0.1079 -0.3441  0.0715
 8093W        W 8957  13.219   7.312  18.167  0.1188 -0.1569  0.0224
 8094W        W 8958  16.658   6.677  20.650  0.1083  0.3626 -0.0351
 8095W        W 8959  17.249   7.691  22.718 -0.1919 -0.2127  0.1965
 8096W        W 8960  15.355   9.179  21.751 -0.0363  0.1498 -0.1571
 8097W        W 8961  14.361   3.879  18.996  0.0471  0.0761 -0.0767
 8098W        W 8962  16.563   5.418  20.167  0.2437 -0.2406  0.1689
 8099W        W 8963  14.783   5.645  21.394 -0.3309 -0.4717  0.0358
 8100W        W 8964  14.019   5.921  20.228 -0.0373  0.0402 -0.2378
 8101W        W 8965  11.903   4.248  18.067 -0.1234  0.0172  0.1065
 8102W        W 8966  16.098   8.804  25.484 -0.2492  0.0552 -0.1423
 8103W        W 8967  14.871   6.489  25.920  0.0812 -0.1451  0.0233
 8104W        W 8968  19.081   4.141  21.078  0.0056  0.0002  0.0932
 8105W        W 8969  18.061   9.162  27.026 -0.3289 -0.1671 -0.1623
 8106W        W 8970  18.602   7.655  22.707  0.1647 -0.0390  0.1938
 8107W        W 8971  13.355   4.515  22.254  0.0107 -0.1701 -0.2358
 8108W        W 8972  15.865   7.086  23.553  0.0551  0.1308 -0.0376
 8109W        W 8973  18.117   6.227  22.061 -0.0585 -0.2208 -0.0015
 8110W        W 8974  14.904   5.117  26.394 -0.0128  0.0271  0.0437
 8111W        W 8975  16.007   5.647  25.649  0.0312  0.0662  0.2516
 8112W        W 8976  15.501   4.773  23.112 -0.2638  0.1305 -0.0682
 8113W        W 8977  18.297  29.062  23.255  0.0937 -0.1200 -0.2368
 8114W        W 8978  17.805   3.191  22.977 -0.1720  0.0620  0.0061
 8115W        W 8979  19.740   5.751  25.940  0.0066  0.1521 -0.2847
 8116W        W 8980  16.552   4.477  23.859  0.1569  0.1337 -0.2845
 8117W        W 8981  15.336   7.445  26.862 -0.1838  0.1787  0.1809
 8118W        W 8982  11.995   5.534  23.535 -0.0978  0.0392 -0.2731
 8119W        W 8983  16.786   4.404  26.195  0.1302  0.0682 -0.1611
 8120W        W 8984  16.368   4.836  26.193 -0.0445  0.4373  0.0132
 8121W        W 8985  17.269   3.762  26.819 -0.0546 -0.2310 -0.0176
 8122W        W 8986  16.835   7.721  23.010  0.0001  0.0457 -0.2639
 8123W        W 8987  15.896   4.478  23.012  0.1116 -0.1047  0.1145
 8124W        W 8988  17.347   6.962  25.538  0.0711 -0.2231  0.2116
 8125W        W 8989  16.968   6.192  24.555  0.2145 -0.0712  0.0180
 8126W        W 8990  15.909   5.198  23.571  0.1516  0.0299 -0.0378
 8127W        W 8991  16.641   7.638  26.353 -0.1122  0.2974  0.0179
 8128W        W 8992  18.466   4.239  23.457 -0.2626 -0.1882  0.1330
 8129W        W 8993  15.177  10.870  23.036  0.0244 -0.0585 -0.0552
 8130W        W 8994  16.005   6.977  24.965  0.1663 -0.3964  0.1266
 8131W        W 8995  14.996   4.815  22.316 -0.3756 -0.2038 -0.3291
 8132W        W 8996  13.980   6.083  23.880  0.0581  0.1535  0.0096
 8133W        W 8997  16.592   5.788  24.719  0.2289  0.0709 -0.1639
 8134W        W 8998  15.343   5.917  28.535 -0.3411  0.0418  0.2059
 8135W        W 8999  15.693   7.087  23.084  0.0885  0.4093 -0.0774
 8136W        W 9000  14.816   6.886  24.476 -0.1279 -0.0872  0.1506
 8137W        W 9001  19.929   8.545  26.035  0.0359  0.2244 -0.0600
 8138W        W 9002  13.672   3.190  21.665  0.2721 -0.1935 -0.3542
 8139W        W 9003  14.247   6.638  25.203  0.2185  0.1499 -0.2702
 8140W        W 9004  16.803   8.310  23.027  0.0308  0.3237  0.3483
 8141W        W 9005  16.190   0.313  21.704  0.1204  0.0577 -0.1843
 8142W        W 9006  15.945   4.141  22.624 -0.2898  0.1778 -0.2424
 8143W        W 9007  17.919   5.672  24.532  0.0788  0.0835 -0.1004
 8144W        W 9008  18.087   6.751  25.019  0.0648  0.0246  0.0994
 8145W        W 9009  20.831   7.569  21.706 -0.1161 -0.2724 -0.1289
 8146W        W 9010  15.636   7.854  22.541  0.0338 -0.0715 -0.3415
 8147W        W 9011  13.862   5.963  22.247 -0.0303  0.2005 -0.1863
 8148W        W 9012  14.202   4.589  25.360 -0.0191  0.3033  0.1224
 8149W        W 9013  16.717   6.181  25.630  0.3366 -0.0380  0.1626
 8150W        W 9014  15.966   8.131  22.848  0.0766 -0.2359  0.0217
 8151W        W 9015  19.126   6.910  23.682  0.1407 -0.1997  0.1132
 8152W        W 9016  19.038   4.787  22.209 -0.2117  0.0076 -0.3417
 8153W        W 9017  17.636   5.200  21.385 -0.1143  0.2236  0.1087
 8154W        W 9018  16.037   7.608  22.536  0.1069 -0.0872 -0.0708
 8155W        W 9019  15.200   6.912  21.675  0.2946 -0.2544 -0.1508
 8156W        W 9020  17.943   0.713  21.555 -0.2798  0.1455 -0.1488
 8157W        W 9021  16.105   8.059  22.368  0.1889 -0.1627  0.0310
 8158W        W 9022  15.807   2.841  21.837 -0.1914 -0.0032 -0.1627
 8159W        W 9023  16.996   4.759  23.907 -0.0269  0.2762 -0.1011
 8160W        W 9024  14.600   5.683  25.270 -0.0609  0.0692 -0.0185
 8161W        W 9025  18.531   5.474  22.433  0.0344  0.0273 -0.1968
 8162W        W 9026  18.395   5.997  22.693 -0.1195 -0.0055  0.0344
 8163W        W 9027  16.201   7.489  23.593  0.2831  0.2004 -0.2930
 8164W        W 9028  15.481   5.606  21.687 -0.0177  0.1139  0.2185
 8165W        W 9029  17.259   6.138  24.176  0.1613  0.1937 -0.0253
 8166W        W 9030  17.381   1.291  23.942  0.1849 -0.0839 -0.2310
 8167W        W 9031  16.296   3.779  22.712  0.1305 -0.0874  0.1473
 8168W        W 9032  15.531   6.472  22.407  0.0003 -0.2052  0.1915
 8169W        W 9033  13.736   4.554  20.400 -0.0075 -0.1877 -0.1536
 8170W        W 9034  14.895   4.666  20.796  0.2457 -0.2855  0.0257
 8171W        W 9035  14.065   5.014  24.082  0.2223 -0.1085  0.3630
 8172W        W 9036  19.178   8.678  24.920 -0.0390 -0.2643  0.4071
 8173W        W 9037  15.578   5.318  23.934  0.3494  0.0798 -0.0424
 8174W        W 9038  17.502   8.308  23.402  0.1249 -0.2074  0.1506
 8175W        W 9039  17.638   7.743  24.231 -0.1346 -0.0698  0.0168
 8176W        W 9040  18.587   5.474  23.760  0.0862  0.0157 -0.0351
 8177W        W 9041  18.073   5.242  25.870 -0.1665  0.1636  0.0298
 8178W        W 9042  13.802   5.951  25.391 -0.2563 -0.1543 -0.1550
 8179W        W 9043  15.183   4.248  24.276 -0.1370 -0.1176 -0.0269
 8180W        W 9044  19.191   5.017  22.734 -0.0511 -0.0690  0.1202
 8181W        W 9045  16.083   6.248  21.660 -0.0553  0.1408 -0.1016
 8182W        W 9046  17.207   5.227  26.052  0.0269 -0.3317 -0.0587
 8183W        W 9047  15.798   4.728  26.925 -0.1540  0.2180  0.2754
 8184W        W 9048  15.897   4.431  22.174  0.0548 -0.3799  0.2298
 8185W        W 9049  14.758   5.003  21.941 -0.1029 -0.3493  0.0656
 8186W        W 9050  17.230   1.846  25.488  0.0912 -0.2714  0.2525
 8187W        W 9051  16.747   4.608  22.722  0.1100 -0.2490  0.0632
 8188W        W 9052  16.352   8.273  26.295  0.3324 -0.2520  0.0048
 8189W        W 9053  16.569   1.676  23.972 -0.0954 -0.0388  0.1315
 8190W        W 9054  17.135   6.708  24.753  0.1897  0.0789  0.2152
 8191W        W 9055  18.078   6.926  22.847  0.2106 -0.0795  0.1003
 8192W        W 9056  16.710   4.000  22.081  0.2269  0.1351 -0.2158
 8193W        W 9057  17.453   5.006  26.479  0.0369 -0.2495  0.0729
 8194W        W 9058  15.687   8.452  24.171 -0.0013  0.0374  0.0052
 8195W        W 9059  17.317   5.160  23.318  0.2241 -0.1660  0.2333
 8196W        W 9060  13.887   1.815  24.597 -0.2358 -0.2048  0.1722
 8197W        W 9061  17.754   5.317  21.887 -0.0756 -0.1508  0.0473
 8198W        W 9062  15.539   6.013  22.031 -0.2228 -0.1493 -0.1676
 8199W        W 9063  16.768   6.650  24.409  0.0676 -0.0778 -0.0194
 8200W        W 9064  15.436   2.468  21.743  0.0481  0.1475 -0.2545
 8201W        W 9065  17.607   4.443  24.541 -0.1187 -0.0819 -0.0607
 8202W        W 9066  16.727   5.073  22.017  0.0881 -0.2454 -0.1224
 8203W        W 9067  16.758   3.608  21.595 -0.4614  0.0065  0.0398
 8204W        W 9068  17.440   6.920  22.303  0.1049  0.0656  0.1755
 8205W        W 9069  17.644   4.326  25.981  0.1480  0.1850 -0.0787
 8206W        W 9070  18.230   2.819  23.703 -0.1581 -0.2618  0.0045
 8207W        W 9071  16.834   7.757  21.359  0.2593  0.1416  0.2488
 8208W        W 9072  17.754   2.781  27.270  0.3534  0.0070 -0.2819
 8209W        W 9073  17.612   4.512  22.214  0.1328  0.2228 -0.4906
 8210W        W 9074  15.873   2.538  22.906  0.3478  0.0477 -0.2084
 8211W        W 9075  15.476   5.552  25.808  0.0351 -0.1139 -0.1677
 8212W        W 9076  16.792   6.603  23.411  0.0630 -0.0027  0.0882
 8213W        W 9077  18.953   4.337  22.033 -0.2446  0.0632 -0.1282
 8214W        W 9078  15.656   8.508  27.549 -0.2263  0.0699 -0.0333
 8215W        W 9079  16.531   7.104  22.497 -0.0636  0.0947 -0.0749
 8216W        W 9080  16.904   6.209  21.893  0.0119  0.0330 -0.1841
 8217W        W 9081  18.366   5.503  22.936  0.0589  0.1919 -0.2245
 8218W        W 9082  15.450   7.893  25.848 -0.2791 -0.0474  0.1729
 8219W        W 9083  16.544   3.641  21.041 -0.0249 -0.2145  0.1520
 8220W        W 9084  17.037   5.690  23.841  0.3815  0.1070 -0.0279
 8221W        W 9085  17.782   4.390  20.088  0.0505  0.1266  0.1259
 8222W        W 9086  16.984   5.678  21.718  0.0821 -0.1931  0.2038
 8223W        W 9087  16.282   5.115  25.254  0.0997  0.1479  0.0453
 8224W        W 9088  11.822   4.271  19.231 -0.3053 -0.1856 -0.0334
 8225W        W 9089  16.016   6.674  23.184 -0.3073  0.1752  0.0708
 8226W        W 9090  18.431   7.189  22.527 -0.0514 -0.1270 -0.2629
 8227W        W 9091  13.321   6.967  25.346 -0.0054 -0.0343 -0.2309
 8228W        W 9092  17.590   6.411  23.858  0.2985  0.0312  0.4501
 8229W        W 9093  18.820   5.286  24.734 -0.3130  0.1255  0.1567
 8230W        W 9094  13.253   5.824  22.835 -0.2735  0.1843  0.1943
 8231W        W 9095  16.174   6.115  25.865 -0.3463 -0.0196  0.0006
 8232W        W 9096  18.955   4.812  24.264  0.3285  0.1129 -0.0512
 8233W        W 9097  15.079   8.033  25.307 -0.0447 -0.1188 -0.2028
 8234W        W 9098  18.869   5.638  22.057 -0.0689  0.0974 -0.4624
 8235W        W 9099  18.729   4.394  26.029 -0.0523 -0.0427 -0.1571
 8236W        W 9100  14.047   3.350  22.144 -0.1724 -0.1123 -0.0356
 8237W        W 9101  15.446   4.560  20.756  0.3663 -0.0229  0.0575
 8238W        W 9102  18.614   6.697  23.749  0.3129  0.0621 -0.2535
 8239W        W 9103  18.610   7.926  21.886 -0.3833 -0.3052 -0.3572
 8240W        W 9104  13.897   6.497  23.574  0.0179  0.1785  0.0302
 8241W        W 9105  15.882   4.225  21.704 -0.0908  0.0003 -0.1909
 8242W        W 9106  16.082   1.920  22.044 -0.5264 -0.0360 -0.2256
 8243W        W 9107  13.482   7.718  21.486 -0.2636  0.1544 -0.2220
 8244W        W 9108  17.046   5.448  22.325  0.0380  0.2046 -0.0259
 8245W        W 9109  15.467   7.410  25.856  0.3172  0.0896  0.2014
 8246W        W 9110  17.487   2.937  22.580  0.1122 -0.1758  0.1138
 8247W        W 9111  18.866   4.277  24.440  0.1536  0.0186  0.4678
 8248W        W 9112  18.793   8.015  24.001 -0.2044 -0.0936  0.0789
 8249W        W 9113  18.113   7.408  25.499  0.1971 -0.3398  0.1869
 8250W        W 9114  15.281   5.141  25.212  0.0139 -0.0254  0.0267
 8251W        W 9115  17.892   5.713  25.819 -0.2785  0.0643 -0.1143
 8252W        W 9116  13.283   2.893  22.218 -0.3356  0.3469 -0.0953
 8253W        W 9117  16.081   6.200  23.911  0.0251 -0.2080 -0.5078
 8254W        W 9118  16.013   6.866  20.875  0.1168  0.1128 -0.0483
 8255W        W 9119  16.452   4.831  24.810 -0.2222  0.0578  0.2681
 8256W        W 9120  15.477   4.026  22.119  0.1441  0.1678 -0.1083
 8257W        W 9121  14.372   5.330  26.415 -0.0130 -0.1490  0.2422
 8258W        W 9122  15.358   4.621  22.104 -0.1244  0.1041 -0.3880
 8259W        W 9123  15.051   3.926  21.816  0.1070  0.0556  0.1042
 8260W        W 9124  14.958   2.439  22.628  0.0875 -0.2665  0.1886
 8261W        W 9125  16.682   1.629  24.609  0.0116  0.0329  0.0424
 8262W        W 9126  17.913   6.750  26.171 -0.3179  0.0480  0.0169
 8263W        W 9127  17.039   5.698  26.182 -0.1606 -0.0508 -0.1066
 8264W        W 9128  17.171   4.633  25.282  0.2086 -0.3698 -0.2663
 8265W        W 9129  16.705   3.955  24.767  0.0830 -0.2458 -0.0383
 8266W        W 9130  17.576   3.549  22.265  0.1150  0.0059 -0.1321
 8267W        W 9131  16.119   3.636  21.527 -0.2287  0.0545  0.3655
 8268W        W 9132  14.976   9.467  23.707  0.0352 -0.1359 -0.1148
 8269W        W 9133  19.114   7.649  26.216  0.2141  0.1903  0.0927
 8270W        W 9134  15.649   5.180  21.534 -0.1019 -0.1461 -0.1882
 8271W        W 9135  17.799   4.270  21.819 -0.0059  0.2713  0.2559
 8272W        W 9136  16.219   7.191  21.722  0.0330  0.1477  0.0391
 8273W        W 9137  18.264   3.671  24.896 -0.1160  0.1749 -0.0422
 8274W        W 9138  15.356   5.737  22.462 -0.1856 -0.1248  0.1844
 8275W        W 9139  14.869   3.874  24.060  0.0597 -0.0151  0.0804
 8276W        W 9140  19.129   5.759  20.381 -0.1139 -0.0299 -0.0611
 8277W        W 9141  16.101   9.397  26.293 -0.1630  0.2746  0.1739
 8278W        W 9142  16.476   7.104  25.350  0.0076 -0.1356  0.0366
 8279W        W 9143  15.670   8.948  20.801 -0.0995  0.0543  0.1927
 8280W        W 9144  16.205   1.445  24.283 -0.2179 -0.2569 -0.2447
 8281W        W 9145  16.319   6.773  21.312  0.0334 -0.0624 -0.1710
 8282W        W 9146  17.415   6.159  22.821 -0.2553  0.2065 -0.0560
 8283W        W 9147  17.258   4.967  20.709  0.0937 -0.1066 -0.1845
 8284W        W 9148  18.951   2.991  23.046  0.3591  0.0198 -0.3355
 8285W        W 9149  14.775   3.318  19.526 -0.0788 -0.2820  0.0355
 8286W        W 9150  19.121   6.421  26.518 -0.1793  0.1713  0.0533
 8287W        W 9151  16.183   5.724  20.819 -0.1461 -0.0393 -0.0900
 8288W        W 9152  13.652   4.235  22.698 -0.1354 -0.0266  0.1031
 8289W        W 9153  16.220   4.234  23.458 -0.0581  0.1122  0.0704
 8290W        W 9154  15.664   8.339  23.714  0.0293  0.1413 -0.1495
 8291W        W 9155  13.567   6.187  20.073  0.3245  0.0735  0.0241
 8292W        W 9156  17.116   8.224  22.345 -0.1568  0.3071  0.0076
 8293W        W 9157  17.171   4.595  25.775  0.0767 -0.1514  0.0681
 8294W        W 9158  15.436   4.980  22.448 -0.1601  0.0456 -0.2490
 8295W        W 9159  16.870   3.688  23.352 -0.1690  0.2558 -0.1204
 8296W        W 9160  16.298   2.761  23.813  0.1198  0.0596  0.0197
 8297W        W 9161  19.299  28.652  21.951  0.1320 -0.2046  0.0182
 8298W        W 9162  14.004   2.150  21.379 -0.0942  0.0833  0.0817
 8299W        W 9163  16.483   6.366  22.984 -0.3078  0.4814  0.1016
 8300W        W 9164  17.915   4.942  25.084  0.1507 -0.1880 -0.1742
 8301W        W 9165  15.253   6.032  25.300 -0.0002  0.0137 -0.0428
 8302W        W 9166  17.037   5.708  24.826  0.0853 -0.4226 -0.0058
 8303W        W 9167  16.238   2.877  22.108 -0.4625 -0.1220 -0.3571
 8304W        W 9168  15.267   2.466  22.251  0.1950 -0.0062  0.1451
 8305W        W 9169  16.238   6.393  22.469  0.0732  0.2185  0.0660
 8306W        W 9170  15.354   2.950  22.074 -0.1501 -0.0301  0.0948
 8307W        W 9171  15.027   6.719  22.270 -0.0522  0.0059 -0.1394
 8308W        W 9172  16.278   4.071  24.007 -0.0262 -0.0896 -0.1058
 8309W        W 9173  15.221   8.181  23.464 -0.1214  0.4244 -0.0333
 8310W        W 9174  13.915   5.772  21.238  0.0415  0.1567 -0.1176
 8311W        W 9175  16.073   5.421  23.941  0.2127 -0.0848 -0.3213
 8312W        W 9176  16.211   5.696  24.333 -0.1374 -0.1267 -0.2047
 8313W        W 9177  17.627   4.916  22.632  0.0413  0.2823 -0.1468
 8314W        W 9178  15.293   3.779  23.653  0.1099  0.1205  0.3850
 8315W        W 9179  16.992   3.688  25.193 -0.0316  0.0261  0.0527
 8316W        W 9180  22.548   8.204  21.600  0.3516  0.0718 -0.0228
 8317W        W 9181  18.437   6.945  23.296 -0.2549 -0.1835  0.2333
 8318W        W 9182  15.789   9.924  21.539 -0.4236  0.1364  0.0641
 8319W        W 9183  16.806   4.700  27.277  0.1246 -0.1181  0.2317
 8320W        W 9184  16.059   5.508  23.184  0.2266  0.0100 -0.0342
 8321W        W 9185  18.660   2.433  23.045  0.0105 -0.2125  0.2648
 8322W        W 9186  15.889   3.927  23.661 -0.0453  0.0810 -0.0388
 8323W        W 9187  17.572   9.208  24.400 -0.2192 -0.1162  0.3626
 8324W        W 9188  14.177   4.150  22.464 -0.1175  0.1530 -0.0240
 8325W        W 9189  17.492   6.856  23.674 -0.0938 -0.1966 -0.0392
 8326W        W 9190  15.694   4.178  24.334  0.0296  0.0896  0.0333
 8327W        W 9191  17.499   6.635  25.139 -0.0252  0.1442  0.0972
 8328W        W 9192  19.277   7.347  23.593  0.1038 -0.2007 -0.1407
 8329W        W 9193  18.398   7.534  23.437  0.0202 -0.2394  0.3053
 8330W        W 9194  15.959   4.567  25.245 -0.0810 -0.1170  0.2628
 8331W        W 9195  15.434   5.984  24.804  0.0568  0.0580 -0.0213
 8332W        W 9196  16.643   6.290  26.462  0.1455  0.1880  0.4145
 8333W        W 9197  16.393   5.899  23.145  0.0339 -0.0111  0.1089
 8334W        W 9198  15.621   8.191  22.197  0.3981  0.1201  0.0987
 8335W        W 9199  14.745   5.153  25.241  0.1749 -0.0148 -0.0293
 8336W        W 9200  15.318   6.283  24.380  0.0211  0.0007 -0.1769
 8337W        W 9201  16.779   3.967  25.597  0.0264 -0.0197  0.1278
 8338W        W 9202  18.159   5.156  23.784  0.1012  0.2709  0.1092
 8339W        W 9203  14.632   6.314  23.414 -0.1850 -0.0557  0.1631
 8340W        W 9204  17.020   8.368  25.585  0.1930  0.2292 -0.0980
 8341W        W 9205  17.102   8.980  24.436 -0.0993 -0.0456 -0.0822
 8342W        W 9206  16.207   7.012  24.430  0.1244 -0.0731  0.2284
 8343W        W 9207  15.799   5.113  25.542 -0.0574  0.0077 -0.0169
 8344W        W 9208  17.210   5.143  22.715 -0.1731  0.0394  0.0265
 8345W        W 9209  16.621   5.468  25.120 -0.1727 -0.3954  0.1116
 8346W        W 9210  17.022   6.996  23.535  0.0050 -0.2048 -0.0835
 8347W        W 9211  18.777   7.535  22.248 -0.1052  0.0322  0.1852
 8348W        W 9212  13.809   7.929  24.046  0.2780 -0.0414  0.1274
 8349W        W 9213  18.435   7.336  23.000  0.2481  0.0853 -0.0918
 8350W        W 9214  15.970   5.547  22.623 -0.4172  0.3112  0.2151
 8351W        W 9215  14.784   9.123  24.396 -0.0440  0.1128  0.1061
 8352W        W 9216  17.010   9.311  24.947  0.2968  0.0093 -0.0236
 8353W        W 9217  19.300   8.396  24.046 -0.1308  0.1581  0.2235
 8354W        W 9218  17.694   4.823  23.162  0.1132 -0.4854 -0.1275
 8355W        W 9219  15.710   8.712  25.720 -0.1410 -0.3102  0.2935
 8356W        W 9220  16.100   9.059  22.227 -0.2480 -0.3044  0.2041
 8357W        W 9221  17.684   3.806  23.173  0.1088 -0.0596 -0.0824
 8358W        W 9222  14.604   2.884  23.724  0.3445  0.2946  0.1879
 8359W        W 9223  19.371   6.139  23.732  0.0481  0.3390  0.0957
 8360W        W 9224  17.122   5.952  21.191  0.2097  0.1026  0.1977
 8361W        W 9225  17.227   3.076  25.159  0.0386 -0.1967  0.1278
 8362W        W 9226  14.490   4.470  23.450 -0.1341  0.2182 -0.2148
 8363W        W 9227  16.592   7.196  23.847  0.0089  0.0997  0.0100
 8364W        W 9228  16.347   4.258  25.400  0.1864  0.1572  0.0605
 8365W        W 9229  13.351   9.413  22.920 -0.1868  0.2013  0.0546
 8366W        W 9230  14.502   8.542  23.930 -0.1422  0.0070 -0.0381
 8367W        W 9231  13.613   5.618  20.356  0.0555 -0.1062  0.1070
 8368W        W 9232  16.538   5.433  20.686 -0.1546 -0.2037  0.3379
 8369W        W 9233  13.404   3.507  24.821 -0.1569 -0.0957  0.2404
 8370W        W 9234  17.878   5.739  21.032  0.0103 -0.1632 -0.0577
 8371W        W 9235  17.200   5.945  22.326 -0.0807  0.2600  0.0750
 8372W        W 9236  18.487   3.196  22.128  0.0537  0.1686  0.2178
 8373W        W 9237  16.791   5.814  26.613  0.2737  0.2583  0.0489
 8374W        W 9238  15.204   6.721  27.103 -0.1634 -0.1715 -0.1628
 8375W        W 9239  14.826   8.763  22.647  0.1200  0.1240  0.0245
 8376W        W 9240  16.417   1.133  23.854 -0.2961  0.0418 -0.1905
 8377W        W 9241  12.803   4.052  21.763  0.2136 -0.0032  0.0075
 8378W        W 9242  14.446   5.307  24.955  0.0584  0.1733 -0.3860
 8379W        W 9243  16.273   4.846  22.183 -0.1958  0.2373 -0.0023
 8380W        W 9244  11.680   3.035  22.673 -0.0080 -0.1364  0.1477
 8381W        W 9245  17.445   3.438  22.715  0.0179 -0.1465 -0.1999
 8382W        W 9246  16.792   4.332  23.143 -0.1624 -0.2741  0.1780
 8383W        W 9247  15.793   6.070  22.478 -0.2515 -0.3754  0.1920
 8384W        W 9248  15.010   5.927  24.457 -0.1943  0.2717 -0.0860
 8385W        W 9249  17.691   7.629  22.457  0.2701  0.0301  0.1488
 8386W        W 9250  17.958   5.552  23.366  0.0855  0.1679 -0.2681
 8387W        W 9251  17.283   5.163  24.019  0.3514  0.3180 -0.0582
 8388W        W 9252  17.371   4.317  26.899  0.0035 -0.1471 -0.2568
 8389W        W 9253  15.558   0.822  22.297 -0.2475  0.1605 -0.3489
 8390W        W 9254  14.683   4.070  22.714 -0.1200  0.0106 -0.1216
 8391W        W 9255  13.369   3.929  20.050  0.1008  0.2110  0.0410
 8392W        W 9256  16.019   3.180  23.572 -0.1343  0.1629  0.0220
 8393W        W 9257  17.270   6.052  25.097  0.2278  0.0157 -0.0156
 8394W        W 9258  14.058   4.381  23.704  0.3861 -0.0304  0.0241
 8395W        W 9259  16.126   5.819  23.604 -0.2820 -0.2426  0.3151
 8396W        W 9260  16.523   5.840  21.612  0.1500 -0.1124 -0.3171
 8397W        W 9261  15.151   3.069  23.990 -0.1643  0.3628 -0.0443
 8398W        W 9262  15.826   6.221  24.313  0.2223 -0.0326  0.0824
 8399W        W 9263  18.283   5.981  24.304  0.1661  0.0545  0.1315
 8400W        W 9264  14.250   7.616  24.002 -0.0908  0.0720  0.4235
 8401W        W 9265  16.286   5.364  22.273  0.0315 -0.0602  0.0218
 8402W        W 9266  13.412   4.856  26.404  0.0387  0.1136  0.2185
 8403W        W 9267  16.117   6.952  26.677  0.0088  0.2051  0.2204
 8404W        W 9268  18.858   6.169  24.398  0.0308  0.1898  0.0406
 8405W        W 9269  19.413   7.106  22.696  0.1406 -0.0043  0.1449
 8406W        W 9270  18.195   7.826  23.057 -0.3254  0.0498  0.0258
 8407W        W 9271  18.368   3.802  23.895 -0.0401 -0.2446  0.1436
 8408W        W 9272  17.900   6.143  22.542  0.0279 -0.0148 -0.0893
 8409W        W 9273  15.120   6.241  22.660  0.1557 -0.0953  0.0113
 8410W        W 9274  16.712   7.683  24.572  0.2434 -0.1810 -0.2900
 8411W        W 9275  16.198   3.950  21.085 -0.0447 -0.2628  0.2695
 8412W        W 9276  15.027   4.112  25.115 -0.1132 -0.3977  0.2851
 8413W        W 9277  17.266   7.439  23.133  0.2002  0.1874 -0.0227
 8414W        W 9278  15.239   6.022  20.853  0.3580  0.1366 -0.0234
 8415W        W 9279  16.506   8.418  25.708 -0.0959  0.0673 -0.0331
 8416W        W 9280  17.939   4.967  26.363 -0.2857 -0.0599 -0.0450
 8417W        W 9281  15.869   2.615  20.057 -0.1398 -0.2756  0.0667
 8418W        W 9282  17.510   4.042  22.372  0.1117  0.0306  0.1569
 8419W        W 9283  16.232   6.088  25.321 -0.0947 -0.0121  0.0337
 8420W        W 9284  15.924   6.559  22.072  0.2136  0.3578 -0.0669
 8421W        W 9285  15.205   6.902  25.502  0.1267  0.0581  0.0723
 8422W        W 9286  20.688   4.471  21.771  0.0325  0.0131  0.1339
 8423W        W 9287  14.128   5.681  25.078 -0.5033  0.1198 -0.0694
 8424W        W 9288  15.765   5.829  23.993 -0.1495  0.0716  0.2314
 8425W        W 9289  16.564   6.105  23.597  0.0797  0.2485  0.1223
 8426W        W 9290  16.507   5.737  25.570 -0.0094  0.0503 -0.1261
 8427W        W 9291  16.179   2.397  21.685  0.1609  0.2334  0.0211
 8428W        W 9292  16.206   6.006  22.085 -0.2983 -0.0241  0.1252
 8429W        W 9293  16.350   7.459  22.188 -0.0990  0.2608 -0.1078
 8430W        W 9294  15.191   5.100  23.398 -0.2149 -0.2051 -0.1410
 8431W        W 9295  16.124   4.761  23.523 -0.2548  0.0211  0.2997
 8432W        W 9296  18.518   4.841  21.395 -0.0960 -0.0858  0.2193
 8433W        W 9297  16.947   7.664  26.788 -0.2619  0.3889  0.0275
 8434W        W 9298  17.820   9.306  24.914  0.0444  0.3674  0.1148
 8435W        W 9299  18.894   4.222  26.661 -0.1510 -0.2320  0.0644
 8436W        W 9300  18.628   7.300  27.230  0.2570  0.1632  0.2011
 8437W        W 9301  15.858   8.045  23.326 -0.3854 -0.1881 -0.0344
 8438W        W 9302  18.806   6.037  22.950  0.3818 -0.1736 -0.0767
 8439W        W 9303  14.860   5.858  23.500  0.2606  0.3587  0.1508
 8440W        W 9304  15.830   1.096  22.640  0.2299  0.1823  0.0032
 8441W        W 9305  15.289   5.029  20.513  0.3586 -0.0308 -0.1715
 8442W        W 9306  17.153   2.559  22.877  0.1781  0.0231 -0.0384
 8443W        W 9307  14.455   2.225  25.036 -0.2235  0.0119 -0.1859
 8444W        W 9308  15.401   7.537  22.160 -0.0763  0.2978  0.1269
 8445W        W 9309  17.472   5.965  23.702 -0.1329 -0.0873 -0.2583
 8446W        W 9310  15.012   8.561  25.262  0.1372  0.0597 -0.0195
 8447W        W 9311  15.685   1.628  22.760 -0.1063  0.0078 -0.2213
 8448W        W 9312  13.166   3.383  25.268 -0.2205 -0.1322  0.2350
 8449W        W 9313  17.872   6.244  25.869 -0.2901  0.0077 -0.1360
 8450W        W 9314  13.055   4.618  22.689 -0.2928 -0.1410 -0.2008
 8451W        W 9315  15.394   3.432  27.001 -0.3215  0.0898  0.1885
 8452W        W 9316  16.703   4.573  22.175 -0.0420  0.0769 -0.1530
 8453W        W 9317  16.125   6.541  24.636 -0.5341  0.3475 -0.3504
 8454W        W 9318  16.508   6.828  22.959  0.0247 -0.2241  0.1119
 8455W        W 9319  14.818   7.991  23.823 -0.1695 -0.2480  0.1143
 8456W        W 9320  16.398   5.486  21.286  0.1440 -0.0081 -0.1703
 8457W        W 9321  14.439   8.914  23.541 -0.1736 -0.0500  0.0212
 8458W        W 9322  14.754   6.360  24.525  0.0983  0.0703  0.2828
 8459W        W 9323  15.872   2.119  23.628 -0.1953  0.2139  0.1612
 8460W        W 9324  12.544   3.873  21.123 -0.0495 -0.2646  0.1921
 8461W        W 9325  16.058   3.195  24.147  0.1131 -0.2218  0.0722
 8462W        W 9326  15.701   2.958  23.894 -0.2746 -0.1901  0.0659
 8463W        W 9327  15.179   6.685  24.206 -0.0476  0.1012  0.1377
 8464W        W 9328  16.814   0.759  24.020  0.4393 -0.1282 -0.1334
 8465W        W 9329  15.358   7.422  21.586  0.1566  0.1318  0.2186
 8466W        W 9330  18.575   7.616  25.929  0.1241 -0.2122 -0.0709
 8467W        W 9331  18.609   6.141  23.921  0.0508  0.1241  0.0923
 8468W        W 9332  16.920   7.141  22.803  0.1895  0.1826 -0.1094
 8469W        W 9333  18.064   5.612  22.572 -0.3234 -0.0391  0.0809
 8470W        W 9334  15.751   3.245  22.485  0.1806  0.2562 -0.0742
 8471W        W 9335  15.452   3.513  22.139  0.0853  0.0518  0.0642
 8472W        W 9336  17.608   5.214  24.815 -0.2000  0.0794 -0.1137
 8473W        W 9337  14.553   5.707  20.871  0.0007 -0.1163  0.1191
 8474W        W 9338  16.970   6.424  25.289 -0.0818  0.2241 -0.0245
 8475W        W 9339  15.844   7.580  23.016  0.0012  0.2211  0.2075
 8476W        W 9340  16.745   2.942  23.964 -0.1180 -0.4033 -0.0528
 8477W        W 9341  16.293   4.713  25.645  0.0317  0.1469  0.2483
 8478W        W 9342  15.811   5.264  24.423 -0.0820  0.0450 -0.2848
 8479W        W 9343  17.043   4.241  22.399 -0.0017  0.0875  0.2214
 8480W        W 9344  11.024   4.451  26.262 -0.2053  0.0266  0.2383
 8481W        W 9345  15.681   6.708  26.511 -0.0371 -0.4630 -0.3179
 8482W        W 9346  15.383   5.305  24.735 -0.1496  0.0125 -0.1721
 8483W        W 9347  15.464   6.952  23.842 -0.1708  0.1172  0.0944
 8484W        W 9348  15.523   7.520  23.999 -0.1664  0.0107  0.2779
 8485W        W 9349  14.643   8.029  26.846 -0.0379 -0.2860 -0.2137
 8486W        W 9350  15.551   4.275  25.267 -0.0091  0.4258 -0.1250
 8487W        W 9351  17.164   7.975  23.814  0.3220 -0.1545 -0.1403
 8488W        W 9352  15.704   8.518  23.136  0.2070 -0.1075  0.0241
 8489W        W 9353  15.607   7.170  25.277  0.1884 -0.1562 -0.0909
 8490W        W 9354  18.906   5.834  22.537 -0.0961  0.3220  0.4265
 8491W        W 9355  16.389   7.491  25.666 -0.0884  0.1082 -0.0574
 8492W        W 9356  16.869   6.765  25.653  0.4285  0.0137  0.1193
 8493W        W 9357  17.847   7.337  24.166  0.5369  0.0021 -0.0856
 8494W        W 9358  16.562   8.907  22.436 -0.1467 -0.0159  0.1232
 8495W        W 9359  16.252   5.346  24.757 -0.0255 -0.1157 -0.3991
 8496W        W 9360  15.155   4.595  27.866 -0.0976 -0.2046 -0.0788
 8497W        W 9361  16.226   7.874  23.867 -0.0100 -0.7159 -0.2281
 8498W        W 9362  16.498   6.838  26.350  0.2111 -0.1864 -0.1240
 8499W        W 9363  17.066   6.561  22.969 -0.1755  0.1218  0.4626
 8500W        W 9364  14.412   4.600  21.640  0.1785  0.0086  0.0139
 8501W        W 9365  15.471   6.539   1.468  0.0358  0.0629  0.1998
 8502W        W 9366  17.180   5.452   0.720  0.3297  0.1732  0.0101
 8503W        W 9367  15.548   8.080  27.954 -0.0397 -0.1273  0.0816
 8504W        W 9368  17.094   7.216  27.892 -0.1575  0.1452  0.1522
 8505W        W 9369  14.949   6.465  26.719 -0.0306  0.0307 -0.1463
 8506W        W 9370  15.363   5.541  26.707  0.1789 -0.1577 -0.1660
 8507W        W 9371  15.926   3.359  25.712  0.0443 -0.0130  0.1125
 8508W        W 9372  13.752   8.584  28.856 -0.0193 -0.2921  0.0137
 8509W        W 9373  17.698   8.155  26.488  0.0925 -0.0929  0.1411
 8510W        W 9374  15.091   3.728  27.233  0.3418  0.2221  0.0646
 8511W        W 9375  14.299   3.236   1.382 -0.0774 -0.1059 -0.1560
 8512W        W 9376  18.312   3.945  28.117 -0.1866  0.0123 -0.0935
 8513W        W 9377  15.688   7.579  23.511 -0.2422  0.1585 -0.0230
 8514W        W 9378  17.676   3.356   2.240  0.1269  0.2556 -0.0583
 8515W        W 9379  15.239   3.914  25.571 -0.2177 -0.1286 -0.0347
 8516W        W 9380  15.829   7.258  28.816  0.2082 -0.1486  0.2232
 8517W        W 9381  16.204   6.384  28.073 -0.2509 -0.0035  0.2059
 8518W        W 9382  15.821   4.340  24.784 -0.0662 -0.0625  0.3467
 8519W        W 9383  15.226   5.370  28.355 -0.1195  0.0366 -0.3525
 8520W        W 9384  19.526   2.557  28.283 -0.3444  0.3180  0.0447
 8521W        W 9385  18.332   3.797  26.890 -0.0220 -0.3794  0.1243
 8522W        W 9386  15.030   5.934  28.118 -0.3276  0.1464  0.2123
 8523W        W 9387  16.132   6.406  28.611  0.1657  0.1732 -0.0274
 8524W        W 9388  14.693   2.550  27.224 -0.2633 -0.0420 -0.0207
 8525W        W 9389  14.309   6.885   1.119 -0.1390  0.2514  0.1220
 8526W        W 9390  15.293   4.803  28.336  0.2512  0.1053 -0.0223
 8527W        W 9391  17.524   6.574  29.103 -0.0448  0.0819 -0.0095
 8528W        W 9392  15.869   6.748  28.267  0.1359 -0.1068  0.0189
 8529W        W 9393  16.904   6.403  28.190  0.0499 -0.2553  0.0832
 8530W        W 9394  17.217   2.337  27.652 -0.0110 -0.1661 -0.1660
 8531W        W 9395  16.987   5.836   0.921 -0.3817 -0.0290  0.0355
 8532W        W 9396  15.587   6.236   0.327 -0.1625 -0.1744  0.0729
 8533W        W 9397  21.175   5.205   0.204  0.2128 -0.0595  0.0605
 8534W        W 9398  14.969   5.495  27.850  0.2536  0.0313 -0.1538
 8535W        W 9399  13.658   5.356   1.341  0.0047 -0.0079 -0.1635
 8536W        W 9400  17.245   6.961  28.746  0.0829  0.0584 -0.1469
 8537W        W 9401  13.810   5.111  27.343 -0.0107 -0.3636 -0.0977
 8538W        W 9402  15.129   5.233   0.377  0.1377 -0.2079  0.0964
 8539W        W 9403  18.621   6.905  26.435  0.1523  0.4990 -0.1996
 8540W        W 9404  19.632   4.094   0.403 -0.1092  0.1580  0.1925
 8541W        W 9405  15.512   3.344  25.363 -0.0398  0.1823 -0.5362
 8542W        W 9406  19.139   7.992  28.058  0.1735  0.0708 -0.1379
 8543W        W 9407  14.415   6.511  28.536 -0.1486  0.2121  0.0609
 8544W        W 9408  16.907   4.879  26.365 -0.0295 -0.2155  0.2097
 8545W        W 9409  13.449   7.099  27.831  0.0043  0.3816  0.1073
 8546W        W 9410  16.918   9.151  28.089 -0.1491  0.2376 -0.0246
 8547W        W 9411  15.569   4.320  27.666 -0.0611  0.3349  0.1131
 8548W        W 9412  17.167   2.512  28.129  0.2799  0.0875 -0.3124
 8549W        W 9413  15.800   5.220  25.005  0.0174  0.2096  0.0188
 8550W        W 9414  17.867   6.592  25.450 -0.3518 -0.2310  0.0842
 8551W        W 9415  16.895   6.712  26.821 -0.1517  0.6364 -0.0198
 8552W        W 9416  15.090   4.475  29.057 -0.1457 -0.3179 -0.1497
 8553W        W 9417  15.992   9.141   0.237  0.0412 -0.3369  0.1957
 8554W        W 9418  15.996   4.041  25.132  0.0234  0.0312  0.0974
 8555W        W 9419  16.545   3.417  27.092 -0.1244 -0.0409 -0.1333
 8556W        W 9420  15.397   7.665  25.293 -0.0160 -0.4121  0.0535
 8557W        W 9421  13.203   5.526  25.607  0.2051  0.0006  0.0205
 8558W        W 9422  17.543   7.404  26.892  0.3133 -0.0762 -0.1513
 8559W        W 9423  16.075   5.627  25.143 -0.2558  0.2857  0.3616
 8560W        W 9424  17.771   5.864  26.447  0.1537  0.2793  0.0204
 8561W        W 9425  16.799   5.145  24.134 -0.2014  0.1975 -0.2459
 8562W        W 9426  13.159   9.719   0.376 -0.0121  0.3664 -0.0426
 8563W        W 9427  14.892   5.748   0.225  0.1285 -0.0938 -0.3959
 8564W        W 9428  13.472   5.841  26.738  0.2231  0.1518  0.0578
 8565W        W 9429  15.381   5.147  27.885 -0.0718  0.3654 -0.2869
 8566W        W 9430  17.927   3.158  28.360 -0.0612 -0.2533  0.1008
 8567W        W 9431  12.383   6.412  26.407  0.6230 -0.0437  0.2525
 8568W        W 9432  17.310   4.658  23.529  0.0222 -0.0279  0.2118
 8569W        W 9433  15.231   6.318  26.296  0.1171  0.0042 -0.0047
 8570W        W 9434  17.800   6.898   0.326  0.1352  0.0112  0.1844
 8571W        W 9435  17.217   7.734  25.727 -0.1786  0.0896  0.0466
 8572W        W 9436  15.702   6.398  26.128 -0.1549 -0.0019  0.0651
 8573W        W 9437  16.438   8.339  28.548 -0.1331 -0.3458 -0.1951
 8574W        W 9438  17.374   6.302  27.953 -0.1122  0.1668  0.0674
 8575W        W 9439  16.941   9.335   0.560  0.1729 -0.3252 -0.1161
 8576W        W 9440  15.819   6.141  28.257 -0.0886 -0.2427 -0.0904
 8577W        W 9441  13.107   5.402  28.907 -0.0457 -0.3245 -0.1024
 8578W        W 9442  14.087   8.211  28.705 -0.0215  0.3015  0.0992
 8579W        W 9443  17.251   7.294  26.489 -0.1307  0.1098 -0.0680
 8580W        W 9444  16.263   4.932  26.683  0.2552 -0.1289  0.3067
 8581W        W 9445  14.725   5.551  28.349  0.0003  0.2110 -0.2964
 8582W        W 9446  14.719   6.728   0.338 -0.1202 -0.0480  0.0730
 8583W        W 9447  13.908   3.519  28.777 -0.2526  0.1274  0.1205
 8584W        W 9448  17.317   4.789  27.660  0.5028  0.0077  0.0002
 8585W        W 9449  17.299   2.519  27.190  0.4674  0.1159  0.0873
 8586W        W 9450  15.279   5.164  21.942 -0.0846 -0.0765  0.4072
 8587W        W 9451  18.215   5.966  28.773 -0.0819 -0.0374 -0.1136
 8588W        W 9452  16.365   3.269   1.024  0.4018 -0.1830 -0.1085
 8589W        W 9453  16.631   6.042  27.351 -0.3703  0.0366  0.0495
 8590W        W 9454  16.983   4.127   1.216  0.1156 -0.0779  0.2894
 8591W        W 9455  17.204   8.191  27.702 -0.2291  0.2020 -0.2019
 8592W        W 9456  16.043   6.717  27.123 -0.1311  0.1027  0.1617
 8593W        W 9457  16.308   9.797  28.652  0.1710  0.1982  0.1017
 8594W        W 9458  15.387   7.668  24.450 -0.2871 -0.1834  0.2974
 8595W        W 9459  15.764   5.828  26.750 -0.0645  0.1921  0.0191
 8596W        W 9460  19.253   3.416  27.199 -0.2600  0.2392  0.0195
 8597W        W 9461  15.366   6.864  26.198 -0.2408  0.5677  0.0239
 8598W        W 9462  16.827   7.179   1.064 -0.1230  0.0175 -0.1663
 8599W        W 9463  16.468   5.417  26.571 -0.0175  0.1895  0.1161
 8600W        W 9464  15.043   5.239  26.881  0.0047 -0.1529 -0.0124
 8601W        W 9465  17.089   3.379  27.114  0.0772  0.6140  0.1531
 8602W        W 9466  15.952   7.590  28.419  0.3014 -0.0504  0.1105
 8603W        W 9467  14.890  28.774  22.582 -0.1653  0.2548  0.0749
 8604W        W 9468  19.381   5.370  29.127  0.0311 -0.2423  0.0711
 8605W        W 9469  17.801   3.219  27.609 -0.2137 -0.0613  0.2336
 8606W        W 9470  15.822   2.950  28.233  0.2602 -0.0477 -0.1024
 8607W        W 9471  15.467   8.697  26.586 -0.2653 -0.2033  0.3055
 8608W        W 9472  16.741   4.903   1.207  0.0200  0.5490 -0.0249
 8609W        W 9473  14.658   3.027  25.976  0.1005  0.0956  0.2472
 8610W        W 9474  13.113   3.479  27.099  0.1028 -0.1603  0.1608
 8611W        W 9475  16.481   5.436  27.309  0.1731  0.0702  0.2809
 8612W        W 9476  17.618   4.870  25.983  0.1697  0.1562  0.2536
 8613W        W 9477  19.027   3.759  24.301 -0.0045 -0.1580 -0.0406
 8614W        W 9478  17.019   7.729  28.499 -0.0667  0.1739 -0.0345
 8615W        W 9479  18.685   6.106  26.242  0.1202  0.0489  0.3757
 8616W        W 9480  15.331   6.127  27.724  0.0020 -0.1766  0.1392
 8617W        W 9481  18.076   3.294  23.654 -0.0944  0.2568  0.0256
 8618W        W 9482  15.058   5.808  27.464 -0.0304  0.3433  0.3422
 8619W        W 9483  14.440   4.180  29.040 -0.0378 -0.1538  0.0095
 8620W        W 9484  15.932   5.213  26.042 -0.1766  0.0812 -0.3310
 8621W        W 9485  15.271   5.878  23.912 -0.1408  0.2005  0.0076
 8622W        W 9486  16.119   8.918  26.442 -0.1896 -0.1595  0.1399
 8623W        W 9487  18.459   8.592  26.111  0.1794 -0.2404 -0.0258
 8624W        W 9488  17.925   9.181  27.471 -0.1998  0.0703 -0.0639
 8625W        W 9489  18.063   6.713  26.640 -0.1438 -0.0940  0.0040
 8626W        W 9490  18.711   8.499  27.625  0.0405 -0.2114  0.1199
 8627W        W 9491  14.871   3.524  27.717  0.2069 -0.0170 -0.2361
 8628W        W 9492  17.180   5.663  28.874 -0.2877  0.1880 -0.0464
 8629W        W 9493  19.419   8.445  26.034 -0.1249  0.0955 -0.0049
 8630W        W 9494  16.770   6.805  27.905 -0.4734 -0.1544 -0.2997
 8631W        W 9495  14.255   9.539  28.159  0.0140  0.2481  0.0629
 8632W        W 9496  16.668   3.962  27.805 -0.2662  0.2652 -0.0550
 8633W        W 9497  13.680   7.353  28.258  0.0927 -0.1041 -0.0535
 8634W        W 9498  17.105   4.222  28.020  0.3103  0.2133  0.0283
 8635W        W 9499  16.536   8.075  26.859 -0.1935 -0.3464  0.1089
 8636W        W 9500  14.637   4.556  28.805  0.1405 -0.3616  0.0205
 8637W        W 9501  17.117   5.451  25.280 -0.2375 -0.1319  0.0708
 8638W        W 9502  18.209   0.709  28.574 -0.1273 -0.1639 -0.0418
 8639W        W 9503  14.962   4.335  25.523  0.0139 -0.2948  0.1236
 8640W        W 9504  16.819   7.943  27.240 -0.0130  0.1483 -0.0543
 8641W        W 9505  13.264   6.008  25.378 -0.0038 -0.0902 -0.0325
 8642W        W 9506  17.602   4.666  25.500  0.2085  0.3016 -0.1010
 8643W        W 9507  14.830   6.082  24.990 -0.0977  0.0676  0.0779
 8644W        W 9508  17.678   5.403  26.193 -0.1953 -0.0848 -0.0643
 8645W        W 9509  16.534   8.923   2.251 -0.1514 -0.1599  0.0903
 8646W        W 9510  15.566   2.028  25.105  0.1027  0.0478 -0.2247
 8647W        W 9511  18.923   3.595  26.639  0.2083 -0.1688  0.3007
 8648W        W 9512  15.201   7.167  27.261  0.2486  0.3085  0.0164
 8649W        W 9513  13.535   8.946   0.097  0.1321 -0.1933 -0.2054
 8650W        W 9514  16.460   5.731  27.775 -0.2132 -0.1436 -0.1831
 8651W        W 9515  17.745   9.205   0.109 -0.4474  0.0547 -0.0002
 8652W        W 9516  15.632   0.833  23.655 -0.1983 -0.2960  0.0244
 8653W        W 9517  18.239   8.455  27.511  0.1497 -0.2253  0.0367
 8654W        W 9518  15.865   4.706  25.883  0.1238 -0.1097  0.1630
 8655W        W 9519  17.581   4.286  27.466  0.3251  0.1737  0.0516
 8656W        W 9520  18.623   4.194  27.169 -0.1001  0.1202 -0.0496
 8657W        W 9521  12.904   5.963  27.982  0.2307  0.0211  0.1785
 8658W        W 9522  15.134   7.446  28.681 -0.2419  0.3905 -0.1926
 8659W        W 9523  17.002   2.988  25.736 -0.6531 -0.0996  0.0846
 8660W        W 9524  14.192   4.890  28.031  0.1228  0.2014  0.0571
 8661W        W 9525  17.360   2.342   0.790  0.2282 -0.1731 -0.1796
 8662W        W 9526  14.493   5.964   0.022 -0.1625  0.0950  0.4760
 8663W        W 9527  15.809   4.943   0.470  0.1160 -0.2140  0.1874
 8664W        W 9528  17.848   6.490  28.275  0.0798  0.2806 -0.1247
 8665W        W 9529  16.722   3.409   2.078 -0.0604 -0.0040  0.0186
 8666W        W 9530  16.965   3.021  24.722 -0.1875  0.0216 -0.0281
 8667W        W 9531  14.920   3.450  23.753 -0.0014 -0.0471 -0.0666
 8668W        W 9532  15.447   8.922  26.132 -0.0388  0.2463 -0.1542
 8669W        W 9533  14.118   7.479   0.314  0.0205  0.1739 -0.0252
 8670W        W 9534  11.320   5.667  26.185  0.0815  0.0246 -0.3283
 8671W        W 9535  15.835   6.018  27.740 -0.1692 -0.1449  0.1463
 8672W        W 9536  18.363   5.902  27.800 -0.1600  0.1046  0.0359
 8673W        W 9537  16.581   7.403  27.668  0.1453 -0.2167  0.0259
 8674W        W 9538  16.765   6.203  24.062 -0.1421 -0.3282 -0.2475
 8675W        W 9539  16.289   4.392  24.893  0.1212  0.0332  0.1670
 8676W        W 9540  18.685   5.983  26.809 -0.0641 -0.1224  0.0145
 8677W        W 9541  13.647   7.602  26.962  0.0317 -0.0726  0.1863
 8678W        W 9542  13.932   7.934   0.463  0.1768 -0.1504 -0.3212
 8679W        W 9543  13.681   5.419  26.475 -0.0151  0.1932 -0.0736
 8680W        W 9544  15.429   5.846  27.173 -0.0537  0.1623 -0.1610
 8681W        W 9545  12.862   7.533  24.797  0.0496  0.2071  0.2135
 8682W        W 9546  18.411   6.401  24.715 -0.0223 -0.1960  0.2280
 8683W        W 9547  16.405   5.934  26.953 -0.3322 -0.2309  0.1221
 8684W        W 9548  15.607   3.473  23.890 -0.1745  0.1165 -0.0718
 8685W        W 9549  15.944   5.284  26.561  0.2200 -0.0280 -0.3709
 8686W        W 9550  15.976   5.860   0.302 -0.1705 -0.0462 -0.4039
 8687W        W 9551  18.522   4.087  26.416  0.0336  0.1006  0.1873
 8688W        W 9552  13.770   4.250  27.192  0.3931  0.0795  0.1540
 8689W        W 9553  16.523   7.029   0.599  0.2918  0.0643  0.2038
 8690W        W 9554  16.534   7.529  27.154  0.1190 -0.2834 -0.0595
 8691W        W 9555  14.655   5.959  25.720  0.1755 -0.0436 -0.0558
 8692W        W 9556  16.088   7.698  27.190  0.1924 -0.1752 -0.1158
 8693W        W 9557  14.691   4.906  27.155 -0.1377 -0.1705 -0.1058
 8694W        W 9558  16.426   2.178   0.595 -0.0297 -0.0197  0.0629
 8695W        W 9559  16.785   3.781  27.362 -0.0688 -0.0453  0.3603
 8696W        W 9560  16.306   4.588  27.096 -0.1835 -0.2605  0.0149
 8697W        W 9561  15.986   4.201  28.049 -0.1974  0.0271  0.0187
 8698W        W 9562  16.163   4.011  24.590  0.1948  0.2551 -0.3465
 8699W        W 9563  13.207   6.355   0.799 -0.2387 -0.2081 -0.0634
 8700W        W 9564  17.712   2.837  28.040 -0.1146 -0.1546 -0.4399
 8701W        W 9565  16.295   4.348  25.975 -0.1567  0.0066  0.0141
 8702W        W 9566  17.019   2.237  29.137  0.1683  0.1150  0.2731
 8703W        W 9567  18.208   6.118  26.711 -0.0401 -0.0881  0.0715
 8704W        W 9568  15.029   7.256  28.238  0.0545 -0.1592  0.0955
 8705W        W 9569  18.415   2.987  28.531  0.1038  0.0128  0.1959
 8706W        W 9570  15.866   2.386  24.096 -0.0952  0.1992  0.0055
 8707W        W 9571  13.285   5.555   1.081  0.0792 -0.0069 -0.2768
 8708W        W 9572  18.012   5.304  27.340  0.0576 -0.0385  0.1213
 8709W        W 9573  15.581   9.320  24.334 -0.0354  0.1400 -0.3707
 8710W        W 9574  13.057   5.831  28.686 -0.0462 -0.2177  0.0371
 8711W        W 9575  13.634   6.107   0.154 -0.1168 -0.1264 -0.2941
 8712W        W 9576  15.626   5.278   0.137 -0.0279  0.0092  0.1620
 8713W        W 9577  15.556   7.200  28.361 -0.1470  0.1021  0.0650
 8714W        W 9578  20.047   3.870   0.299 -0.0379 -0.2198  0.1412
 8715W        W 9579  18.859   6.103  28.032 -0.1728 -0.3428  0.0246
 8716W        W 9580  16.667   5.112  26.966  0.2730 -0.1042  0.1089
 8717W        W 9581  17.788   5.267  25.497  0.1405 -0.3311 -0.0855
 8718W        W 9582  19.811   6.262  24.106  0.0332  0.0137 -0.0475
 8719W        W 9583  17.114   5.052  28.555  0.3146 -0.0776  0.4699
 8720W        W 9584  15.370   4.899   1.750  0.4431 -0.0430  0.1707
 8721W        W 9585  17.967   2.315   0.128  0.0857  0.5355  0.1760
 8722W        W 9586  17.158   4.124  26.015 -0.2457  0.2428 -0.1744
 8723W        W 9587  16.143   5.293  28.593  0.0970  0.2191 -0.1856
 8724W        W 9588  16.120   1.343  24.874  0.3328 -0.1763  0.0889
 8725W        W 9589  18.813   5.767  24.822 -0.0597 -0.2635 -0.0157
 8726W        W 9590  14.327   3.459   0.869  0.1955 -0.1699 -0.0453
 8727W        W 9591  14.707   6.133   1.678  0.0667  0.2589  0.0974
 8728W        W 9592  16.693   4.696   0.383  0.0893 -0.0084 -0.0594
 8729W        W 9593  19.554   7.787  28.244  0.1361 -0.2489  0.1554
 8730W        W 9594  15.980   4.634  27.454  0.1482 -0.0406 -0.0484
 8731W        W 9595  16.853   1.376  27.390 -0.1318  0.1206  0.2082
 8732W        W 9596  14.038   5.285  28.936 -0.3744 -0.1372  0.1343
 8733W        W 9597  14.475   9.192   0.446  0.0085 -0.0792 -0.0037
 8734W        W 9598  18.222   7.030  27.327  0.2967 -0.2232  0.2408
 8735W        W 9599  14.594   6.155  26.921  0.0532 -0.0013 -0.2251
 8736W        W 9600  15.321   7.151  27.719  0.2813 -0.1771  0.1552
 8737W        W 9601  18.993   5.318  24.125 -0.2929 -0.1673  0.2283
 8738W        W 9602  17.109   2.901  26.886  0.1554 -0.1172 -0.0566
 8739W        W 9603  16.920   6.231  26.933  0.1839  0.3576 -0.2496
 8740W        W 9604  15.733   6.152  25.208  0.0906 -0.1048 -0.0072
 8741W        W 9605  16.845   7.276  25.610 -0.0901  0.1026 -0.3054
 8742W        W 9606  12.794   5.151   1.470 -0.1989  0.0975  0.1324
 8743W        W 9607  16.866   5.626  27.055  0.1098  0.0610 -0.0972
 8744W        W 9608  13.728   4.982  25.589 -0.0460 -0.1782 -0.0475
 8745W        W 9609  16.086   5.735  28.131 -0.2054 -0.0659  0.3291
 8746W        W 9610  17.784   7.133  25.281  0.0122 -0.1902  0.0240
 8747W        W 9611  16.244   5.267  27.874 -0.2302 -0.1136 -0.1964
 8748W        W 9612  14.652   7.032   0.795 -0.2631 -0.0704 -0.1702
 8749W        W 9613  16.990   9.337  26.002 -0.0507 -0.1675  0.2505
 8750W        W 9614  15.525   6.040  28.971  0.1046  0.0239 -0.3145
 8751W        W 9615  13.559   5.514  27.192 -0.0320 -0.1239 -0.2624
 8752W        W 9616  14.134   6.668  27.280  0.1521  0.2503  0.0617
 8753W        W 9617  19.020  10.682  28.199 -0.1496 -0.0019  0.0386
 8754W        W 9618  17.355   5.648  26.736  0.0011  0.0898 -0.0747
 8755W        W 9619  15.295   2.952  24.605  0.4901  0.0797  0.1753
 8756W        W 9620  19.181   7.514  28.047 -0.5023 -0.1479 -0.1193
 8757W        W 9621  17.429   3.310  24.013  0.1941  0.1206  0.3010
 8758W        W 9622  15.834   4.035  28.610 -0.0290 -0.1069 -0.1367
 8759W        W 9623  19.224   7.089  24.549  0.2230 -0.1529 -0.0968
 8760W        W 9624  16.113   7.208  27.161  0.4250  0.0140 -0.0611
 8761W        W 9625  14.996   6.976  24.963 -0.2325  0.0049  0.1976
 8762W        W 9626  18.964   4.811  28.422  0.0859 -0.1493  0.0237
 8763W        W 9627  16.642   7.061  28.752  0.0894  0.0525 -0.0722
 8764W        W 9628  15.392   4.846  27.361  0.0991 -0.0986  0.1915
 8765W        W 9629  13.457   8.106  28.674 -0.2083  0.1348 -0.2402
 8766W        W 9630  17.297   9.005  28.387 -0.1668 -0.4225 -0.2895
 8767W        W 9631  14.065   6.477   1.269 -0.0275 -0.0879 -0.1591
 8768W        W 9632  19.098   9.093  22.043 -0.0780  0.0597 -0.1393
 8769W        W 9633  17.482   5.746   0.086  0.3804 -0.1542 -0.1533
 8770W        W 9634  17.821   7.371  27.313  0.1441  0.0948  0.1911
 8771W        W 9635  13.250   6.225  29.024  0.0699 -0.1140  0.4009
 8772W        W 9636  17.957   5.348   0.091  0.4264 -0.1019 -0.0104
 8773W        W 9637  18.830   2.595  26.934 -0.1295 -0.0211  0.2925
 8774W        W 9638  16.356   5.186  25.786 -0.2834  0.1291 -0.1598
 8775W        W 9639  18.577   8.329  27.181 -0.1163  0.1605  0.4225
 8776W        W 9640  19.182   3.036  28.287 -0.0270  0.0249 -0.1814
 8777W        W 9641  16.761   3.970  28.315 -0.0497  0.1123 -0.0021
 8778W        W 9642  15.749   5.003  28.640  0.1056  0.1260  0.2094
 8779W        W 9643  16.519   3.619  24.407 -0.1004  0.1132 -0.4094
 8780W        W 9644  12.872   3.583   0.646  0.0206  0.2666 -0.1088
 8781W        W 9645  14.453   5.742   0.497 -0.0201 -0.2467 -0.1296
 8782W        W 9646  17.155   4.413  24.353  0.1673 -0.2586  0.0642
 8783W        W 9647  16.627   6.252  27.800  0.2700 -0.1560 -0.2992
 8784W        W 9648  12.436   6.893   1.005  0.1350  0.3113  0.1389
 8785W        W 9649  15.904   7.176  24.030  0.3119  0.0321  0.2300
 8786W        W 9650  18.282   1.104  26.150 -0.2638  0.5029 -0.0762
 8787W        W 9651  17.725   9.522  27.052 -0.3092 -0.1174 -0.3162
 8788W        W 9652  13.913   5.773  28.688  0.5356  0.0865 -0.0278
 8789W        W 9653  16.999   5.170  27.357 -0.2153  0.3578  0.0623
 8790W        W 9654  15.585   8.744  27.078 -0.0710  0.2143 -0.2921
 8791W        W 9655  14.535   4.720  27.656 -0.0091 -0.0800  0.2509
 8792W        W 9656  15.567   2.506  25.840 -0.1621 -0.2521  0.1447
 8793W        W 9657  16.371   5.666   0.019  0.1069  0.4176 -0.0585
 8794W        W 9658  16.671   4.526  26.741  0.1842 -0.1548  0.2132
 8795W        W 9659  14.544   5.899  27.409  0.1740  0.1357  0.1580
 8796W        W 9660  15.991   6.310  26.891  0.0704 -0.2757 -0.1305
 8797W        W 9661  15.408   3.513  27.543 -0.1437  0.1965 -0.1042
 8798W        W 9662  16.536   7.024  27.032  0.2809 -0.4407  0.1908
 8799W        W 9663  14.962   4.956  27.606 -0.0115 -0.2170 -0.2035
 8800W        W 9664  14.107   8.060  27.681 -0.1841 -0.0649 -0.0270
 8801W        W 9665  12.097   6.472  28.313  0.1273 -0.0268  0.2466
 8802W        W 9666  15.030   3.773   1.706 -0.1855  0.2527 -0.0819
 8803W        W 9667  16.497   7.640   0.098  0.1686 -0.1634  0.0365
 8804W        W 9668  18.372   7.019  24.129  0.2762 -0.0626  0.0848
 8805W        W 9669  15.944   4.447  23.865  0.1035  0.1622 -0.6035
 8806W        W 9670  17.003   8.221  28.784 -0.1421  0.0783 -0.0276
 8807W        W 9671  14.190   2.441  27.391 -0.0433 -0.1687  0.2139
 8808W        W 9672  16.326   3.877  27.081  0.1700  0.0544  0.0785
 8809W        W 9673  17.819   3.350  25.932 -0.2652 -0.0528  0.0451
 8810W        W 9674  12.909   6.864   0.386  0.1947 -0.2068 -0.1788
 8811W        W 9675  17.439   4.037  24.065  0.2176 -0.0731  0.0251
 8812W        W 9676  15.681   6.917  27.484  0.1966  0.1334  0.1708
 8813W        W 9677  14.701   4.729  25.533  0.2753  0.1682  0.0210
 8814W        W 9678  13.785   6.408  28.565 -0.1049 -0.0859  0.0163
 8815W        W 9679  13.712   9.897  28.786  0.1286 -0.3558  0.0295
 8816W        W 9680  13.319   6.555   0.380  0.1173 -0.0516 -0.1400
 8817W        W 9681  14.063   3.839  26.347  0.2564 -0.0527 -0.4121
 8818W        W 9682  15.717   4.685  28.096 -0.3923 -0.0742  0.2621
 8819W        W 9683  16.520   6.441  28.973  0.1891 -0.1039 -0.4233
 8820W        W 9684  14.885   5.071  28.158 -0.1072 -0.3497 -0.2378
 8821W        W 9685  16.455   6.411  26.900  0.1306 -0.1582  0.0227
 8822W        W 9686  19.040   7.585  25.589  0.2635 -0.2331 -0.3068
 8823W        W 9687  13.819   4.863  28.627 -0.2166 -0.0744  0.2602
 8824W        W 9688  14.776   4.593  24.174  0.1321  0.2068 -0.1988
 8825W        W 9689  16.276   7.678  26.694 -0.1685 -0.2217  0.2149
 8826W        W 9690  16.272   9.838  28.122  0.1668  0.1140 -0.2158
 8827W        W 9691  14.800   5.416  28.826  0.4148  0.1836 -0.3590
 8828W        W 9692  14.825   6.773  27.874  0.1403 -0.1457  0.0557
 8829W        W 9693  14.853   5.749  27.022  0.0389 -0.1271 -0.1056
 8830W        W 9694  15.812   7.120  27.918 -0.1003  0.0002  0.0289
 8831W        W 9695  16.672   3.133  28.750  0.1827  0.1176 -0.0562
 8832W        W 9696  18.091   1.921  23.628 -0.0165 -0.2584 -0.0588
 8833W        W 9697  14.761   7.611  28.373  0.0611  0.0944 -0.1559
 8834W        W 9698  14.620   6.245   0.481 -0.2924  0.0091  0.1812
 8835W        W 9699  20.030   7.695  28.062  0.2018 -0.1801  0.4342
 8836W        W 9700  18.137   5.888  27.187 -0.2555  0.2026  0.1510
 8837W        W 9701  12.761   6.074  26.263 -0.1284 -0.3106 -0.1963
 8838W        W 9702  18.121   3.398  27.256  0.2223  0.0628 -0.0015
 8839W        W 9703  18.401   5.476  26.871 -0.1332  0.4754  0.0381
 8840W        W 9704  18.221   2.363  23.964  0.2595  0.0947 -0.1765
 8841W        W 9705  13.520   6.296  28.105 -0.0614  0.1412 -0.1938
 8842W        W 9706  13.807   6.621   0.334  0.2251 -0.1362 -0.2434
 8843W        W 9707  17.583   3.828  26.016 -0.3124 -0.0986  0.1561
 8844W        W 9708  14.081   5.271  25.952 -0.2058 -0.4233  0.0199
 8845W        W 9709  17.023   7.159  26.984 -0.1238 -0.1867 -0.0091
 8846W        W 9710  13.301   8.489  29.111 -0.1556  0.0360  0.1603
 8847W        W 9711  16.126   6.373  27.452  0.2419 -0.2914 -0.1059
 8848W        W 9712  15.348   5.056  28.907  0.1094  0.1763  0.0469
 8849W        W 9713  13.215   6.711  28.082 -0.3031 -0.0228 -0.2767
 8850W        W 9714  13.335   1.604  25.522 -0.1721 -0.0895  0.2745
 8851W        W 9715  18.665   7.523  28.349  0.0299 -0.0439  0.2284
 8852W        W 9716  18.955   2.573  26.474  0.1352  0.4257 -0.3170
 8853W        W 9717  17.720   9.061  28.130  0.0597  0.1435  0.0652
 8854W        W 9718  18.235   7.530  27.103  0.1676 -0.1190 -0.0995
 8855W        W 9719  15.883   7.743  25.565 -0.1761 -0.1377  0.1357
 8856W        W 9720  16.982   4.168  26.606  0.1686 -0.0818  0.1794
 8857W        W 9721  14.235   5.636  28.282 -0.4162  0.2372  0.3740
 8858W        W 9722  17.811   1.555   0.747  0.1777  0.1960 -0.0480
 8859W        W 9723  14.053   4.251  28.676  0.0511 -0.1680  0.3140
 8860W        W 9724  15.840   4.268  25.638  0.0109  0.1692  0.0341
 8861W        W 9725  13.805   7.070   0.063 -0.0282  0.1135  0.2983
 8862W        W 9726  18.225   2.916  27.482 -0.1376 -0.0028  0.1428
 8863W        W 9727  15.751   4.307  26.171  0.2387  0.1714  0.4322
 8864W        W 9728  19.554   6.014  27.421 -0.3443 -0.2274 -0.0181
 8865W        W 9729  17.963   8.933  26.234  0.0803  0.1508 -0.0474
 8866W        W 9730  17.626   7.336  27.942  0.3086  0.1314 -0.0255
 8867W        W 9731  18.248   5.847  26.266 -0.0996  0.0824  0.1538
 8868W        W 9732  16.049   5.572  27.577 -0.0832 -0.0603  0.0290
 8869W        W 9733  16.623   4.201  24.334 -0.1050  0.0244  0.2327
 8870W        W 9734  18.326   3.435  25.843 -0.1561  0.1140  0.0213
 8871W        W 9735  18.399   6.119  25.815  0.2674  0.0628 -0.0176
 8872W        W 9736  18.359   5.336  27.945  0.3564  0.2875  0.3301
 8873W        W 9737  16.485   6.002  28.237 -0.0360  0.3069 -0.0878
 8874W        W 9738  19.243   6.644  28.800 -0.0082  0.3984 -0.3674
 8875W        W 9739  18.120   7.747  25.149 -0.1959  0.0995  0.0299
 8876W        W 9740  15.494   4.316   1.083  0.0240 -0.0623  0.2980
 8877W        W 9741  17.103   7.575  27.378  0.1187  0.0337 -0.0174
 8878W        W 9742  16.906   6.558  28.718 -0.2087 -0.1117 -0.2757
 8879W        W 9743  16.068   4.076   0.979  0.0610  0.0300 -0.0687
 8880W        W 9744  11.467   5.373  28.462 -0.3033 -0.1725 -0.0458
 8881W        W 9745  17.863   3.726  27.516 -0.1918  0.0821 -0.2070
 8882W        W 9746  12.335   6.495  27.656 -0.1869  0.1228 -0.0633
 8883W        W 9747  15.777   6.539  27.816  0.1930  0.1568  0.0117
 8884W        W 9748  18.806   4.543   0.128  0.0877 -0.4331 -0.1471
 8885W        W 9749  18.925   6.897   1.614 -0.2592  0.1137 -0.1392
 8886W        W 9750  14.631   4.865   0.944 -0.2662 -0.1167 -0.2258
 8887W        W 9751  17.224   6.086  26.470  0.0369 -0.1414 -0.1109
 8888W        W 9752  16.915   7.032  26.134 -0.1414 -0.1882 -0.1250
 8889W        W 9753  14.955   8.096   2.039  0.1273 -0.0006 -0.3002
 8890W        W 9754  18.236   6.363  26.240  0.0734  0.2531 -0.2833
 8891W        W 9755  15.974   6.800  28.902 -0.0945 -0.1196 -0.2111
 8892W        W 9756  15.037   6.237  27.171  0.0741 -0.0889 -0.0550
 8893W        W 9757  18.674   8.956  26.928 -0.1467  0.0019 -0.2249
 8894W        W 9758  17.486   6.923  28.270  0.2979  0.0122 -0.3427
 8895W        W 9759  13.915   5.718  26.921  0.0909  0.0445  0.1772
 8896W        W 9760  16.853   4.673  27.817  0.2350  0.1437 -0.0057
 8897W        W 9761  15.193   7.392  26.307 -0.0759 -0.0214 -0.0312
 8898W        W 9762  17.120   7.626   1.950  0.0295 -0.1608 -0.0887
 8899W        W 9763  15.833   5.139  27.573 -0.2518 -0.0635 -0.1977
 8900W        W 9764  14.899   4.447  26.399  0.0312 -0.2364 -0.0206
 8901W        W 9765  15.082   9.922   4.955 -0.3593  0.0690 -0.0281
 8902W        W 9766  15.456  10.279   3.403  0.1627  0.1142  0.0661
 8903W        W 9767  16.019   9.009   5.231  0.2283  0.1747 -0.1107
 8904W        W 9768  16.715  10.199   5.051  0.3197  0.2508 -0.2076
 8905W        W 9769  12.597  11.488   2.453  0.4442 -0.0331 -0.2967
 8906W        W 9770  17.508   8.444   2.486 -0.3767  0.0170  0.0212
 8907W        W 9771  16.479   6.705   0.991  0.0108 -0.3272 -0.1000
 8908W        W 9772  18.116   8.732   1.740  0.1634 -0.1666  0.1510
 8909W        W 9773  12.669  10.906   4.598  0.1894  0.3517 -0.0265
 8910W        W 9774  13.153   5.874   1.979  0.3986  0.1184 -0.0198
 8911W        W 9775  14.949   8.785   2.167  0.0459  0.1999  0.2236
 8912W        W 9776  16.287   5.827   0.676  0.2029 -0.1084 -0.1939
 8913W        W 9777  17.882   8.530  28.290 -0.5285 -0.5535 -0.0837
 8914W        W 9778  18.537   8.735   4.119  0.0595  0.3403  0.3260
 8915W        W 9779  15.354   4.794   2.563 -0.1683  0.0044  0.1454
 8916W        W 9780  14.172   9.536   4.342  0.2823  0.1368  0.1562
 8917W        W 9781  15.435   9.395   0.438  0.0053 -0.2896 -0.0885
 8918W        W 9782  12.972   7.131  28.798 -0.0807  0.0803 -0.0654
 8919W        W 9783  16.457   7.965   4.224  0.3809 -0.2473 -0.2462
 8920W        W 9784  18.572   8.020   0.512 -0.0325 -0.1246 -0.2981
 8921W        W 9785  17.968   8.316   3.268  0.1238  0.0750  0.0614
 8922W        W 9786  17.418  12.804   1.625  0.1130  0.1438 -0.0861
 8923W        W 9787  16.497   8.478   1.506  0.2793  0.1359  0.1547
 8924W        W 9788  14.193   8.666   3.669 -0.1942  0.0158  0.2104
 8925W        W 9789  17.710   7.670   0.224  0.3511 -0.2341 -0.0556
 8926W        W 9790  15.641   8.348   0.827  0.3531  0.0407  0.0397
 8927W        W 9791  19.806  10.234   2.783  0.0428 -0.0665  0.3029
 8928W        W 9792  14.734   9.956   2.734  0.0167 -0.0823 -0.2100
 8929W        W 9793  17.379  10.414   4.008  0.3984 -0.0795  0.0565
 8930W        W 9794  18.088   9.332   3.580 -0.1063 -0.1558  0.0630
 8931W        W 9795  13.469  11.807   3.045  0.1529 -0.1826  0.4827
 8932W        W 9796  21.307   9.106   4.607  0.0569 -0.1523  0.3416
 8933W        W 9797  15.539   9.510   2.082 -0.0855 -0.0603  0.1344
 8934W        W 9798  17.149  10.745   6.152  0.0741  0.1358  0.1357
 8935W        W 9799  15.496   6.660   3.016 -0.0221 -0.1417 -0.0452
 8936W        W 9800  13.383  11.127   5.327 -0.1854 -0.1968 -0.1304
 8937W        W 9801  14.949  11.090   0.440 -0.1655 -0.0474  0.1386
 8938W        W 9802  17.228  10.305   5.023  0.2678 -0.1023 -0.1177
 8939W        W 9803  18.485  12.179   0.378  0.0543 -0.2676  0.2217
 8940W        W 9804  18.807  11.603   1.138  0.0651  0.2505 -0.0430
 8941W        W 9805  17.611   7.545   1.835 -0.1405  0.1113  0.2094
 8942W        W 9806  17.321   6.936   4.200  0.0181  0.1596 -0.3277
 8943W        W 9807  15.558   8.967   2.700  0.0896  0.1921  0.2133
 8944W        W 9808  18.122   9.384  25.875 -0.0748  0.1375  0.2339
 8945W        W 9809  13.198   8.470   0.963 -0.0757 -0.1398  0.1251
 8946W        W 9810  14.529  10.691   4.783 -0.0338 -0.2901 -0.1161
 8947W        W 9811  12.343   5.192   0.047  0.1820  0.0038  0.0597
 8948W        W 9812  15.848   9.327   1.743  0.1203 -0.1578  0.1277
 8949W        W 9813  19.956   8.155  28.219  0.0544 -0.1336  0.0475
 8950W        W 9814  16.736   9.729  27.985 -0.0272  0.1125  0.2520
 8951W        W 9815  14.136  12.472   3.170 -0.0499 -0.0666  0.0069
 8952W        W 9816  14.961   7.837   5.258 -0.0420  0.3416  0.1037
 8953W        W 9817  15.592  11.235   3.925 -0.1161 -0.0829  0.2624
 8954W        W 9818  18.209   9.881   0.964 -0.2837  0.1187  0.1280
 8955W        W 9819  16.200   8.690   0.182 -0.1025 -0.0487 -0.1733
 8956W        W 9820  14.383  12.451   0.634  0.1074 -0.1618  0.2450
 8957W        W 9821  13.607   5.649   2.460  0.1226  0.0864 -0.1362
 8958W        W 9822  20.302  10.092   0.568  0.0192  0.0327 -0.0182
 8959W        W 9823  16.265  12.394   2.008  0.4997 -0.2337 -0.1809
 8960W        W 9824  16.156  10.448   1.053  0.1244  0.3492  0.1008
 8961W        W 9825  17.301  10.692  28.372 -0.2902 -0.0242 -0.1068
 8962W        W 9826  14.475  10.453   1.609  0.0824  0.5430  0.2363
 8963W        W 9827  14.119  10.081   4.093 -0.2762 -0.1291  0.0536
 8964W        W 9828  16.337   8.372   2.037  0.0164 -0.0767 -0.0343
 8965W        W 9829  15.989   7.564   1.028  0.3438  0.0067 -0.0886
 8966W        W 9830  16.496   4.829  28.913  0.0267 -0.1313  0.0485
 8967W        W 9831  12.225   7.007   1.534 -0.0474  0.1064 -0.1050
 8968W        W 9832  15.767  10.365  29.119  0.1246  0.1147 -0.1451
 8969W        W 9833  12.798   9.595   1.721 -0.1444  0.0416 -0.0262
 8970W        W 9834  14.617   7.935  29.035 -0.2346 -0.3608  0.1906
 8971W        W 9835  16.138   9.189   4.735 -0.1639 -0.0757  0.1089
 8972W        W 9836  18.587   7.538   0.332  0.1759 -0.0279  0.2261
 8973W        W 9837  17.138  10.270   2.975 -0.0968  0.0072  0.0485
 8974W        W 9838  20.104  10.489   0.767  0.0354  0.2089 -0.0385
 8975W        W 9839  16.502   7.532   1.011 -0.1284 -0.2989 -0.0631
 8976W        W 9840  15.232  12.665   1.500 -0.1084 -0.0494 -0.0410
 8977W        W 9841  12.897   8.761  28.143  0.2330 -0.0331  0.0678
 8978W        W 9842  16.531  10.324   1.914 -0.0507 -0.0258 -0.1424
 8979W        W 9843  17.560   9.743   0.603  0.1060  0.0180 -0.0300
 8980W        W 9844  19.324   9.663   1.724  0.1644 -0.0723  0.1492
 8981W        W 9845  14.157   4.682   1.310 -0.0242  0.1425  0.0128
 8982W        W 9846  15.405   8.304   2.227 -0.0802 -0.4456 -0.0074
 8983W        W 9847  14.132   8.453   2.379  0.1180  0.3041 -0.2336
 8984W        W 9848  13.712   8.703   0.959  0.0390 -0.1172  0.2804
 8985W        W 9849  16.095   8.853   4.259  0.0043 -0.0535  0.1247
 8986W        W 9850  16.957   7.746   1.053  0.1139  0.1436  0.3073
 8987W        W 9851  18.155  12.959   3.302 -0.1268 -0.2587  0.0571
 8988W        W 9852  15.701   4.826   2.158  0.1137  0.4223 -0.4336
 8989W        W 9853  17.556  11.437   3.572  0.0522  0.3228 -0.0653
 8990W        W 9854  18.044  10.303   5.019  0.2982  0.2126  0.2047
 8991W        W 9855  15.885  10.074   1.267 -0.1557 -0.0627  0.0175
 8992W        W 9856  18.212   9.402   4.457  0.2608 -0.1835 -0.0072
 8993W        W 9857  15.680   8.770   1.679 -0.1213  0.0632  0.0325
 8994W        W 9858  15.652   7.805   0.823  0.1106 -0.2841 -0.1006
 8995W        W 9859  16.891   7.603   2.589 -0.0145  0.1478  0.2817
 8996W        W 9860  18.853   6.672   0.640 -0.0004  0.1673 -0.2409
 8997W        W 9861  20.768   9.166  28.285  0.1463  0.0688 -0.0524
 8998W        W 9862  14.561  10.563   3.608 -0.3147  0.0644 -0.0066
 8999W        W 9863  16.425   7.585  28.639  0.0536 -0.1655 -0.3230
 9000W        W 9864  18.881   6.866   1.072  0.0344 -0.0448  0.2196
 9001W        W 9865  18.303   7.362   2.540 -0.1295 -0.0294 -0.2958
 9002W        W 9866  16.113   7.129   2.218 -0.0158  0.1571  0.0209
 9003W        W 9867  16.319   7.104   1.239 -0.0533 -0.1591 -0.1674
 9004W        W 9868  18.338  10.860   2.439 -0.4212 -0.0999  0.2241
 9005W        W 9869  15.966   8.605   2.287 -0.0716 -0.1365  0.0142
 9006W        W 9870  15.541   8.504   4.842 -0.1757 -0.0137  0.0179
 9007W        W 9871  15.414   7.038  28.890  0.0184  0.2069 -0.0909
 9008W        W 9872  17.389   7.927   4.453 -0.1318  0.0401 -0.0423
 9009W        W 9873  16.763   7.129   0.173  0.2282  0.2345 -0.0464
 9010W        W 9874  11.666   6.471   0.348 -0.1026 -0.2728 -0.0492
 9011W        W 9875  15.816  10.406   3.681 -0.0796 -0.0445 -0.1568
 9012W        W 9876  16.362  11.946   1.736  0.0453 -0.0081 -0.1526
 9013W        W 9877  20.490  10.029  28.154 -0.0253  0.0753  0.1397
 9014W        W 9878  15.502  11.116   2.243 -0.0320 -0.4028 -0.0430
 9015W        W 9879  20.354  11.574   0.059 -0.0070  0.0092 -0.1136
 9016W        W 9880  15.171   9.950   4.036  0.1233  0.1581 -0.0528
 9017W        W 9881  16.988   7.531   5.264  0.1169 -0.1348  0.2210
 9018W        W 9882  15.729   9.501   1.253  0.0183  0.2563  0.1442
 9019W        W 9883  16.964  10.021   4.652  0.1724 -0.2537  0.0226
 9020W        W 9884  19.478   8.721   0.335  0.0379 -0.1995 -0.1986
 9021W        W 9885  16.668   8.346  27.969  0.2520 -0.0345 -0.3924
 9022W        W 9886  16.155  12.046   0.237 -0.0850 -0.0555  0.0531
 9023W        W 9887  19.085  11.233   1.342  0.0115 -0.1260 -0.0274
 9024W        W 9888  18.123   6.441  27.543 -0.1883  0.1782  0.2147
 9025W        W 9889  15.614  10.084   5.013 -0.0255  0.1938 -0.1038
 9026W        W 9890  18.456   7.977  27.682  0.1290  0.1656 -0.0276
 9027W        W 9891  16.855   7.436   3.465  0.0354  0.0404  0.3785
 9028W        W 9892  18.604   7.977   3.583  0.0717 -0.0938 -0.0166
 9029W        W 9893  18.256  10.945   0.829  0.2519 -0.1327  0.1822
 9030W        W 9894  14.191   7.379   0.837  0.2956  0.1345  0.1769
 9031W        W 9895  19.750  12.010   2.240 -0.0063 -0.0391  0.3248
 9032W        W 9896  17.922   7.179   3.308  0.0812 -0.3802  0.2423
 9033W        W 9897  17.099  10.643   5.626 -0.0332  0.1954 -0.0472
 9034W        W 9898  17.436   7.091   0.028 -0.0434  0.0011  0.0980
 9035W        W 9899  17.564  10.424   0.950  0.0840  0.3510  0.4164
 9036W        W 9900  15.271   6.976   2.501 -0.1379 -0.1528 -0.1854
 9037W        W 9901  19.016   9.363  28.472 -0.1922 -0.2861 -0.1529
 9038W        W 9902  17.340   8.519   1.697  0.1616 -0.2480  0.0225
 9039W        W 9903  16.015  10.459   2.139  0.0605 -0.2476 -0.1233
 9040W        W 9904  16.211   8.970   2.645 -0.1727  0.0703 -0.0601
 9041W        W 9905  14.616   6.936  28.306  0.0947  0.0640 -0.0287
 9042W        W 9906  18.515   6.237   0.638 -0.1465 -0.2956  0.1655
 9043W        W 9907  13.360  10.635  28.429  0.1498  0.0895  0.0131
 9044W        W 9908  15.685  11.212   1.633  0.0597 -0.1695 -0.0764
 9045W        W 9909  14.778   9.457   2.664  0.1771  0.0063 -0.2191
 9046W        W 9910  18.139   9.357   0.852 -0.0702 -0.0976  0.0806
 9047W        W 9911  16.001   8.163   1.166 -0.0756  0.2301  0.0168
 9048W        W 9912  15.247  11.084  28.808  0.0418  0.1967  0.0596
 9049W        W 9913  16.424   9.755   4.882  0.1908  0.0968 -0.1453
 9050W        W 9914  16.330  11.371   5.055  0.0383 -0.2864  0.0790
 9051W        W 9915  18.663   7.927   1.035  0.1332 -0.0259  0.0751
 9052W        W 9916  18.332   7.074   0.809  0.0660  0.1584  0.0265
 9053W        W 9917  16.476  10.232   4.640 -0.0662  0.0960  0.1914
 9054W        W 9918  15.858   8.148  25.875  0.1663  0.6268 -0.0075
 9055W        W 9919  17.897   9.514   3.988 -0.0444  0.1505  0.0722
 9056W        W 9920  17.288   7.128   5.197  0.1348 -0.2141  0.3028
 9057W        W 9921  15.577  10.304   4.231  0.5088 -0.2303  0.0985
 9058W        W 9922  15.469   9.047   0.049 -0.2160  0.1581 -0.3579
 9059W        W 9923  16.695   8.591  26.560  0.3428  0.1904  0.1204
 9060W        W 9924  16.260  11.260   3.327 -0.1264  0.0027  0.2937
 9061W        W 9925  17.354   6.792   0.456 -0.0648 -0.0143 -0.2244
 9062W        W 9926  17.137   9.005   5.544 -0.2228  0.1162  0.2668
 9063W        W 9927  16.602   9.856   6.140  0.2982  0.1466 -0.1834
 9064W        W 9928  16.469  10.839   5.555 -0.1173 -0.1095  0.1178
 9065W        W 9929  16.656   9.228   5.352  0.0723 -0.1424 -0.0504
 9066W        W 9930  16.098   9.377   2.905  0.0852 -0.0426  0.0380
 9067W        W 9931  16.646   8.943   0.316  0.0074 -0.0842 -0.0993
 9068W        W 9932  14.572  12.772   1.641 -0.2157 -0.0793 -0.1849
 9069W        W 9933  16.480   9.952   5.548 -0.2596 -0.0983 -0.0320
 9070W        W 9934  16.120   9.705   1.545 -0.3871  0.0065 -0.0911
 9071W        W 9935  18.683   8.938   2.856 -0.2461  0.1127  0.0436
 9072W        W 9936  16.354   9.901   1.159  0.1626 -0.2498  0.0315
 9073W        W 9937  17.112  11.428   3.751 -0.1118  0.2536  0.1162
 9074W        W 9938  17.552   9.575  28.315  0.3387 -0.1232  0.0854
 9075W        W 9939  16.637   9.679   2.909 -0.1209  0.5021 -0.0029
 9076W        W 9940  18.660   9.255   0.764 -0.1143  0.0477  0.2089
 9077W        W 9941  13.015   7.090   1.827 -0.0704 -0.0371  0.2898
 9078W        W 9942  15.482   9.122   1.345 -0.0488 -0.1618  0.1122
 9079W        W 9943  14.880  10.481   0.469 -0.1135  0.0639 -0.1513
 9080W        W 9944  17.133   7.104   3.258  0.3336  0.6236 -0.0014
 9081W        W 9945  14.415   9.653   1.061 -0.0407 -0.0341 -0.0390
 9082W        W 9946  20.253  10.645   1.252  0.2588  0.0454  0.1840
 9083W        W 9947  15.334   6.802  28.056  0.0006 -0.0850 -0.2645
 9084W        W 9948  15.221   9.497   1.660  0.2258  0.1141 -0.0877
 9085W        W 9949  16.099   8.004   0.686  0.1743 -0.0043  0.0309
 9086W        W 9950  15.976   9.895   5.475 -0.3629 -0.4022 -0.0568
 9087W        W 9951  14.866   8.243   0.234 -0.2963 -0.2364  0.2562
 9088W        W 9952  15.439   9.582  29.028  0.5151 -0.1378  0.1921
 9089W        W 9953  16.964   9.412   1.678  0.0562 -0.1026  0.0330
 9090W        W 9954  15.588   7.865  28.785 -0.0172  0.0451  0.2445
 9091W        W 9955  13.327   6.795   1.495  0.1241  0.1539 -0.1941
 9092W        W 9956  14.664  10.767   0.837 -0.1227  0.1241 -0.0333
 9093W        W 9957  15.968   5.499   4.399 -0.2582  0.3143 -0.3426
 9094W        W 9958  16.480   5.809  28.700  0.0479 -0.1070 -0.0036
 9095W        W 9959  15.651   7.513   4.559  0.0125  0.1282  0.2107
 9096W        W 9960  14.237   6.048   1.350  0.1565 -0.2578  0.0736
 9097W        W 9961  17.904   8.065  28.399 -0.2009 -0.0145 -0.3969
 9098W        W 9962  12.552   7.296   0.540 -0.1162  0.0716  0.0378
 9099W        W 9963  14.470   4.485   1.924 -0.1089  0.3428  0.1221
 9100W        W 9964  17.728   8.430   1.988 -0.0153  0.0902 -0.3350
 9101W        W 9965  17.266   7.418   0.879 -0.1636 -0.1141 -0.0233
 9102W        W 9966  20.978   7.189   1.064  0.0796  0.5083  0.1918
 9103W        W 9967  18.846   9.325   1.567  0.2504 -0.1150 -0.1751
 9104W        W 9968  13.546   2.928   0.904 -0.0506 -0.1255  0.0402
 9105W        W 9969  17.331   8.491   0.791 -0.0495 -0.0786 -0.0067
 9106W        W 9970  12.690   7.803   0.487  0.2038  0.0642  0.0349
 9107W        W 9971  15.966  11.617   3.912 -0.0488 -0.1248 -0.2568
 9108W        W 9972  16.693   9.334   4.876 -0.0945  0.0530  0.0129
 9109W        W 9973  16.708  11.235   4.069 -0.0121  0.4168  0.5843
 9110W        W 9974  15.909   9.780   4.651 -0.2257  0.1068  0.2938
 9111W        W 9975  14.226   9.849   2.654 -0.1760  0.1307  0.2858
 9112W        W 9976  12.485   7.706   2.442 -0.1242 -0.2349  0.1250
 9113W        W 9977  15.387   7.530   2.626 -0.0771  0.0299 -0.0387
 9114W        W 9978  17.623   8.599   0.055  0.1310  0.1674  0.1631
 9115W        W 9979  21.061  10.297   0.863  0.0204  0.4025 -0.0047
 9116W        W 9980  18.965  10.275  28.562 -0.0778 -0.2726  0.1659
 9117W        W 9981  16.423   7.854   1.853 -0.1313 -0.4371  0.0477
 9118W        W 9982  19.437  11.058   0.496  0.0110  0.0811  0.1479
 9119W        W 9983  15.736   8.452   5.304  0.2327  0.3408 -0.2672
 9120W        W 9984  13.872   9.168   3.810  0.0850  0.0776 -0.3818
 9121W        W 9985  16.993   9.151   4.346 -0.5278  0.0017 -0.2567
 9122W        W 9986  17.377   6.958   0.992  0.1238  0.1564  0.0103
 9123W        W 9987  17.366  13.379   2.157 -0.0769  0.0474  0.3481
 9124W        W 9988  16.858   6.669   0.471 -0.2720  0.0531  0.0802
 9125W        W 9989  16.753  11.566   1.592  0.0966 -0.3452  0.0370
 9126W        W 9990  17.805   8.388   1.504 -0.1851  0.0437 -0.2780
 9127W        W 9991  16.153   9.950   3.703  0.1780 -0.0329 -0.3689
 9128W        W 9992  17.471   8.642   3.389  0.1259 -0.1647  0.1937
 9129W        W 9993  17.933  11.737   0.208  0.1207  0.1927 -0.0802
 9130W        W 9994  15.621  12.398   4.419  0.2456 -0.3594  0.1004
 9131W        W 9995  16.473   6.820   3.192  0.0562 -0.1909  0.1445
 9132W        W 9996  16.510   7.944   1.257  0.3244 -0.0893 -0.3210
 9133W        W 9997  13.546   9.472   0.075 -0.0371 -0.0941  0.2662
 9134W        W 9998  18.551   7.079  28.514  0.0143 -0.0100 -0.0616
 9135W        W 9999  15.721   6.694   1.894 -0.0119 -0.0844 -0.2726
 9136W        W10000  16.844   9.638   0.182  0.1236 -0.0670  0.1215
 9137W        W10001  19.516   9.100   0.027  0.0689 -0.1214 -0.0872
 9138W        W10002  16.639   8.871   3.950  0.1515  0.2139 -0.2458
 9139W        W10003  16.500   9.792   4.396 -0.2533  0.0186  0.0389
 9140W        W10004  14.187  13.391   0.877 -0.1179  0.0627  0.0733
 9141W        W10005  17.663  10.361   1.942  0.0686  0.1172  0.5132
 9142W        W10006  15.202   9.429   2.898 -0.1759 -0.1217 -0.3322
 9143W        W10007  13.976  10.012  28.419 -0.0921  0.0530  0.1437
 9144W        W10008  18.073   6.813   1.236 -0.0275  0.2041  0.0844
 9145W        W10009  15.512   8.280   1.740  0.0019  0.2133  0.0613
 9146W        W10010  16.294   8.225   3.100  0.0495 -0.0318 -0.0723
 9147W        W10011  17.416  10.787   2.109  0.2183  0.2878 -0.3154
 9148W        W10012  15.408  11.010   2.736 -0.1156  0.1414 -0.0962
 9149W        W10013  16.973  12.762   1.342 -0.0619  0.1054  0.1001
 9150W        W10014  15.986   8.664   1.046  0.1638 -0.1390 -0.0227
 9151W        W10015  16.618   7.997   2.713 -0.2546 -0.2232 -0.1589
 9152W        W10016  15.427   9.890   4.517  0.0634  0.0264 -0.1442
 9153W        W10017  19.404  12.216   5.551 -0.1716 -0.0613 -0.1902
 9154W        W10018  16.147   9.874   2.787  0.0183 -0.1822  0.0202
 9155W        W10019  16.824   9.309   3.824  0.4782  0.2464  0.1811
 9156W        W10020  17.930   9.082   1.407 -0.0244  0.0438  0.2043
 9157W        W10021  19.363   6.471   1.816  0.0607  0.0241  0.0206
 9158W        W10022  16.195   6.882   3.729  0.0039  0.1739  0.2813
 9159W        W10023  19.046   8.493   0.154 -0.1435  0.1013  0.0270
 9160W        W10024  17.047  11.313   2.039  0.2688 -0.1612  0.1013
 9161W        W10025  16.699   6.807   1.545  0.2417  0.1935 -0.2308
 9162W        W10026  18.765   8.549   6.429  0.2798  0.2925 -0.0414
 9163W        W10027  16.316   9.529   3.341 -0.2279  0.1140  0.2004
 9164W        W10028  14.043  10.411   1.898  0.4334 -0.0903  0.3192
 9165W        W10029  15.068   9.060   0.624 -0.0138  0.0094  0.3589
 9166W        W10030  14.569   9.928   1.521 -0.1156 -0.0443 -0.0460
 9167W        W10031  14.239   8.867   0.760  0.0981 -0.1041  0.0764
 9168W        W10032  15.158   8.596   1.519 -0.0826 -0.0407  0.0338
 9169W        W10033  15.101   8.068   2.617 -0.1722 -0.1436  0.1192
 9170W        W10034  20.449   7.123  26.783 -0.0377  0.2415  0.1595
 9171W        W10035  14.788   8.957   2.670 -0.2339  0.1279  0.1103
 9172W        W10036  16.478   8.364   0.985 -0.0578  0.1294 -0.1724
 9173W        W10037  21.658  11.670   3.815  0.1830 -0.0751 -0.0044
 9174W        W10038  15.644   9.444   2.558 -0.0389  0.1057 -0.4606
 9175W        W10039  20.880   9.270   3.112 -0.0924 -0.4514 -0.2100
 9176W        W10040  16.445   8.856   4.960 -0.1902  0.1605 -0.1300
 9177W        W10041  14.667   9.258   2.251  0.0683  0.2078  0.0140
 9178W        W10042  17.334   7.875   2.589 -0.0979 -0.4003  0.0624
 9179W        W10043  15.152  11.458   2.445  0.1130  0.0618 -0.0953
 9180W        W10044  15.018  13.134   4.168 -0.2752  0.2265 -0.0376
 9181W        W10045  17.707   9.924   1.108  0.0388  0.1721 -0.0543
 9182W        W10046  16.031   8.611  28.562  0.2629  0.2075  0.2563
 9183W        W10047  15.515   7.971   1.293 -0.1320 -0.3030 -0.2058
 9184W        W10048  13.365  10.739   2.922  0.2784  0.2181  0.2931
 9185W        W10049  17.071   8.373   0.333  0.1386  0.0543  0.1840
 9186W        W10050  18.762   9.400   2.041 -0.0349  0.0110 -0.1478
 9187W        W10051  15.064  10.673   1.130 -0.2114  0.1116 -0.0557
 9188W        W10052  14.335   9.301   1.428 -0.0010 -0.1066 -0.2482
 9189W        W10053  16.349   6.731   0.176  0.1183  0.0627  0.0286
 9190W        W10054  13.725  11.915   3.495  0.0727  0.0288 -0.0113
 9191W        W10055  17.190   7.252   1.377  0.2233  0.1842 -0.0763
 9192W        W10056  18.892   8.877   0.508  0.0441  0.0056  0.1186
 9193W        W10057  17.644   7.045   2.969 -0.1891 -0.2770 -0.0881
 9194W        W10058  14.666   7.574   0.809 -0.3422 -0.3619 -0.0842
 9195W        W10059  16.580   8.408   0.009 -0.0245  0.1245  0.1887
 9196W        W10060  16.289   8.945   0.634 -0.0137  0.0431  0.1055
 9197W        W10061  15.575   7.565  27.912 -0.1110  0.3585  0.0809
 9198W        W10062  17.560  10.055   3.723  0.0859  0.0884  0.0410
 9199W        W10063  18.825   8.604  28.772 -0.3612 -0.2240  0.0020
 9200W        W10064  13.479  11.452   1.122  0.0877 -0.3354  0.2937
 9201W        W10065  13.897  11.224   0.958 -0.1633 -0.0683  0.3116
 9202W        W10066  17.578   8.126   0.469  0.4802  0.0377  0.3318
 9203W        W10067  14.421  11.062   3.053 -0.0404 -0.1155 -0.0762
 9204W        W10068  18.030   8.789  27.849 -0.3186 -0.1744  0.4388
 9205W        W10069  16.261   8.425  27.593 -0.1092  0.3193 -0.2177
 9206W        W10070  18.592  14.150   2.007  0.1115 -0.0534  0.0548
 9207W        W10071  15.921   7.205   1.686 -0.0401 -0.0552 -0.1375
 9208W        W10072  15.497   6.562  29.097  0.0449  0.0576  0.0259
 9209W        W10073  17.176   8.328   1.275 -0.1952  0.0960  0.3142
 9210W        W10074  12.780   9.304   0.358  0.2755  0.0618 -0.0988
 9211W        W10075  17.767   8.299   0.984 -0.1941 -0.0148 -0.2728
 9212W        W10076  16.762   8.069   2.155 -0.0364  0.0062  0.2057
 9213W        W10077  14.668   5.259   0.548 -0.2670  0.0412 -0.0100
 9214W        W10078  16.982   8.358   2.457  0.0913 -0.1776  0.1482
 9215W        W10079  16.523   7.693   3.157  0.2109  0.0956  0.0612
 9216W        W10080  15.055  11.831   4.529  0.1712  0.1808  0.1082
 9217W        W10081  14.361   6.585   1.683 -0.0450 -0.2046 -0.0895
 9218W        W10082  18.778  10.043  28.998 -0.1929 -0.2530 -0.1894
 9219W        W10083  15.313  12.286   2.395  0.3470 -0.1370 -0.0604
 9220W        W10084  14.845  11.157   1.042  0.0660  0.0740 -0.2484
 9221W        W10085  14.798  12.526   3.404  0.1443  0.3078 -0.4172
 9222W        W10086  19.116  11.591   2.684 -0.0372  0.1895  0.2745
 9223W        W10087  15.873  10.834   2.534  0.2040  0.0524 -0.1846
 9224W        W10088  17.441   9.153   2.515 -0.0946  0.0904 -0.0470
 9225W        W10089  15.852   9.234   0.777  0.0881  0.0532  0.1203
 9226W        W10090  13.901   9.078   2.900 -0.2291  0.0811  0.2839
 9227W        W10091  13.360   6.050   2.554 -0.0344 -0.1463  0.0651
 9228W        W10092  13.020   9.483  29.090  0.0203  0.1541 -0.0102
 9229W        W10093  17.058   8.714  27.794  0.3333  0.0905 -0.0282
 9230W        W10094  12.844   7.695   1.975  0.0197  0.0241  0.1552
 9231W        W10095  15.894   6.266   1.628 -0.0802 -0.1812  0.1359
 9232W        W10096  18.313   8.920   0.680 -0.2561 -0.0815  0.0263
 9233W        W10097  21.291   9.688   1.719  0.0235 -0.1120  0.1207
 9234W        W10098  16.374  11.783   3.191 -0.0775 -0.2913  0.0131
 9235W        W10099  17.597  11.746   3.111 -0.0602 -0.2478 -0.2995
 9236W        W10100  16.907   9.380   6.257  0.2527 -0.0275 -0.1268
 9237W        W10101  13.772  10.941   3.361  0.1696  0.2077  0.0915
 9238W        W10102  17.288  11.166  29.067 -0.4721  0.3280  0.0603
 9239W        W10103  18.558   9.365   0.206 -0.0352 -0.0192 -0.0170
 9240W        W10104  16.456   8.492   2.554 -0.1112  0.0372 -0.0216
 9241W        W10105  15.645   9.940   3.746  0.1553  0.0040 -0.0384
 9242W        W10106  16.192   7.284   2.987 -0.1644  0.0743 -0.0696
 9243W        W10107  15.601   6.072   3.058 -0.1465 -0.0779 -0.3399
 9244W        W10108  15.392  12.527   3.442 -0.0086 -0.2534 -0.0141
 9245W        W10109  14.090  11.491   2.386  0.2138 -0.1606 -0.1296
 9246W        W10110  14.954  11.838   3.946  0.5286 -0.0402 -0.0074
 9247W        W10111  14.946  11.402  28.572  0.0513 -0.1944  0.2522
 9248W        W10112  14.142   6.480   2.264 -0.1380 -0.1869  0.1999
 9249W        W10113  17.416   9.969   1.892  0.0409 -0.0171 -0.3824
 9250W        W10114  12.807   6.821  28.417  0.3467  0.3375  0.0881
 9251W        W10115  16.600  12.125   3.482 -0.0744 -0.1465 -0.0224
 9252W        W10116  16.579   7.936   0.576 -0.1521  0.1580  0.1044
 9253W        W10117  18.805  12.849   2.707  0.0154  0.0329  0.3528
 9254W        W10118  15.483   8.787   0.874 -0.5127  0.1150  0.1198
 9255W        W10119  15.198   8.926   4.605  0.1420 -0.1315 -0.0166
 9256W        W10120  16.897   6.338   1.258  0.0491 -0.0459 -0.1153
 9257W        W10121  12.901  10.011   4.103  0.0254  0.0003 -0.2066
 9258W        W10122  18.594   9.888   3.213  0.1500  0.1946 -0.3051
 9259W        W10123  14.397   7.739   2.718  0.1615 -0.0633 -0.2137
 9260W        W10124  13.274   8.114   2.274 -0.0466  0.1304  0.2091
 9261W        W10125  15.842   8.969  28.271 -0.0774 -0.2041 -0.2891
 9262W        W10126  18.315  10.083   1.979 -0.1383  0.1433 -0.1060
 9263W        W10127  15.145   9.020   1.727 -0.0952 -0.1568 -0.0164
 9264W        W10128  18.778   6.592   1.985  0.0189  0.1869 -0.1559
 9265W        W10129  14.631  12.167   2.210 -0.1359  0.0186 -0.0014
 9266W        W10130  16.901  10.704   5.181 -0.1670 -0.0825 -0.2772
 9267W        W10131  17.501  10.319   4.531  0.0065  0.2011 -0.0444
 9268W        W10132  17.502   8.058   1.663 -0.1427 -0.1179  0.0071
 9269W        W10133  17.607   9.194   0.577 -0.0636  0.1410  0.0130
 9270W        W10134  19.309   7.636  29.020  0.0747  0.0600 -0.2363
 9271W        W10135  15.998  10.209  28.462 -0.1983  0.2539  0.0496
 9272W        W10136  17.535   9.018   2.978 -0.2306 -0.2950 -0.1094
 9273W        W10137  14.330  12.925   2.055 -0.2654 -0.0783 -0.0664
 9274W        W10138  16.692  10.668   2.663  0.1151 -0.3463  0.1661
 9275W        W10139  15.310  12.372   1.027 -0.2123  0.1381 -0.3193
 9276W        W10140  16.634   6.303   3.426  0.0011  0.0045  0.1293
 9277W        W10141  16.031   9.361   4.247  0.1712  0.2178 -0.1187
 9278W        W10142  22.303  10.357   1.812 -0.1533  0.1012 -0.1632
 9279W        W10143  18.820   5.916   4.391 -0.1635 -0.1021  0.1948
 9280W        W10144  15.320   8.527   0.243 -0.1063  0.3428  0.2721
 9281W        W10145  14.869  10.415   4.110  0.1882 -0.0766  0.0066
 9282W        W10146  12.417   9.900   1.529  0.0805 -0.2131  0.4937
 9283W        W10147  14.600   7.803   2.289  0.0450  0.1304  0.3451
 9284W        W10148  17.799   8.978   4.796 -0.3335 -0.0589  0.0220
 9285W        W10149  17.120  10.131   5.480 -0.4831 -0.0730  0.1134
 9286W        W10150  16.319  11.825   4.768  0.1007  0.2723 -0.3036
 9287W        W10151  19.607  12.038   0.367  0.3866  0.1739  0.1322
 9288W        W10152  17.285  10.446   3.451 -0.1434  0.2098 -0.0771
 9289W        W10153  13.879  12.959   2.311 -0.2080 -0.0115  0.3351
 9290W        W10154  16.298   9.446   2.424  0.2735  0.0739  0.2470
 9291W        W10155  15.416   9.493   3.569  0.0627  0.1828 -0.2329
 9292W        W10156  14.238   9.160   3.447  0.2997 -0.0923 -0.1850
 9293W        W10157  15.940   9.330   5.627 -0.1228 -0.0886  0.1093
 9294W        W10158  18.904  10.883   0.277  0.0673  0.0834  0.1314
 9295W        W10159  15.920  11.507   3.000 -0.0767 -0.1810  0.3412
 9296W        W10160  16.894   8.179   1.647 -0.2723 -0.3838  0.1975
 9297W        W10161  16.842   8.367   2.977 -0.0328  0.0499 -0.1034
 9298W        W10162  18.149  13.958   3.786  0.1237  0.1529  0.1271
 9299W        W10163  16.375  10.849   2.287  0.2510  0.1987  0.0353
 9300W        W10164  16.903   8.192   0.867 -0.1478 -0.2111 -0.0862
 9301W        W10165  16.267  13.202   7.027 -0.0789 -0.2652  0.1947
 9302W        W10166  15.763  11.119   6.301  0.2091 -0.1186 -0.1052
 9303W        W10167  20.050   9.851   4.762 -0.3075 -0.1616  0.0156
 9304W        W10168  18.149  11.179   6.749 -0.0433  0.2881 -0.1256
 9305W        W10169  16.272  11.178   3.868  0.1787 -0.1661  0.3650
 9306W        W10170  15.000   8.659   3.401 -0.0143  0.0806  0.0216
 9307W        W10171  13.446   9.261   2.867 -0.2245 -0.4434  0.0861
 9308W        W10172  16.459   9.630   3.882  0.2090 -0.2291 -0.2507
 9309W        W10173  16.844   8.726   6.997  0.0859 -0.1529  0.2165
 9310W        W10174  13.114   9.647   5.856  0.2251  0.2275  0.3524
 9311W        W10175  11.539   6.672   6.286 -0.2372 -0.1188 -0.0286
 9312W        W10176  16.926   8.843   4.833 -0.1500 -0.2799 -0.0409
 9313W        W10177  16.981   8.451   5.780  0.1743 -0.3844 -0.0400
 9314W        W10178  16.570   9.171   6.800 -0.1245  0.0535  0.0220
 9315W        W10179  12.764   7.388   3.729 -0.1071  0.1839 -0.0200
 9316W        W10180  14.212  11.155   8.234 -0.2122  0.0005 -0.0982
 9317W        W10181  14.581  12.901   5.536 -0.1142  0.0644 -0.1140
 9318W        W10182  13.779   7.945   5.387 -0.1002 -0.0215  0.2389
 9319W        W10183  16.079   8.379   5.712  0.3768 -0.2619 -0.1949
 9320W        W10184  15.087  11.395   6.930  0.0109 -0.1509 -0.3084
 9321W        W10185  18.255  10.516   4.658  0.0551  0.0409  0.0273
 9322W        W10186  17.450   7.628   5.397  0.3089 -0.0768  0.1660
 9323W        W10187  14.965   8.667   5.744  0.2031  0.2794 -0.0127
 9324W        W10188  13.128  10.436   7.314  0.1825 -0.0691 -0.2184
 9325W        W10189  15.348   6.934   3.431 -0.3907  0.0921  0.1464
 9326W        W10190  15.599   5.668   3.775 -0.2678  0.3354  0.0171
 9327W        W10191  19.205  10.519   4.947 -0.0967 -0.0177  0.1094
 9328W        W10192  14.779   9.153   4.855 -0.0525  0.0821  0.4561
 9329W        W10193  18.479   8.820   5.844  0.0434  0.3586 -0.0788
 9330W        W10194  15.244   7.225   4.686  0.1368 -0.0352 -0.0322
 9331W        W10195  14.291   7.883   5.431 -0.0276 -0.0851  0.0618
 9332W        W10196  16.273   9.188   8.428  0.0473 -0.0722  0.0051
 9333W        W10197  14.323   8.959   8.871  0.1853 -0.0921 -0.2209
 9334W        W10198  16.632   8.201   6.399 -0.3749  0.1999 -0.0625
 9335W        W10199  14.930   7.823   8.749  0.1079 -0.0376  0.2863
 9336W        W10200  17.789  13.948  10.494 -0.1719  0.2856  0.1244
 9337W        W10201  14.437   6.764   4.454 -0.0490  0.0747 -0.1993
 9338W        W10202  14.215   9.660   6.544  0.1692 -0.0782  0.1393
 9339W        W10203  20.202  10.049   4.141 -0.0870  0.0226  0.1323
 9340W        W10204  19.186   8.134   5.030  0.0600 -0.1015 -0.0976
 9341W        W10205  16.813   9.774   1.278  0.1691 -0.1781  0.0474
 9342W        W10206  17.245  11.432   7.170  0.1103 -0.1126  0.0078
 9343W        W10207  20.223  11.963   2.061 -0.1744  0.0298  0.0944
 9344W        W10208  15.592  10.265   6.268  0.2736 -0.0913  0.2129
 9345W        W10209  15.318  11.280   3.149 -0.1840  0.2652 -0.1075
 9346W        W10210  16.516   8.505   7.801 -0.1192 -0.1591 -0.0700
 9347W        W10211  14.935   8.161   3.409  0.3202  0.2619  0.0289
 9348W        W10212  16.918   9.616   5.770 -0.1084 -0.0877 -0.1957
 9349W        W10213  15.419   9.628   8.667  0.0122 -0.1101  0.1146
 9350W        W10214  15.310   6.420   2.533  0.0057  0.0611  0.0616
 9351W        W10215  17.451   9.882   8.423  0.2205 -0.2249  0.0749
 9352W        W10216  19.596  11.677   5.156 -0.3021 -0.2506  0.2950
 9353W        W10217  18.958   7.481   4.244  0.0970 -0.1676 -0.0054
 9354W        W10218  16.667  10.764   6.102  0.1232  0.0709  0.0318
 9355W        W10219  13.006   7.432   4.765  0.0291  0.1165  0.0545
 9356W        W10220  15.023   7.922   6.585 -0.0447  0.2235 -0.4395
 9357W        W10221  15.308  10.425   3.818  0.0385  0.0110 -0.3490
 9358W        W10222  13.713  14.171   3.083  0.1692  0.0172 -0.0767
 9359W        W10223  19.808   7.851   1.380  0.0915  0.1786  0.1790
 9360W        W10224  17.374   9.950   6.771 -0.1736 -0.0515 -0.1010
 9361W        W10225  12.941   9.486   7.190  0.0959 -0.0390 -0.2234
 9362W        W10226  15.619   9.424   4.624  0.1103  0.0212  0.0778
 9363W        W10227  15.738   7.171   6.111  0.0667 -0.1805  0.0513
 9364W        W10228  15.113   8.868   5.087  0.0590  0.1828  0.0324
 9365W        W10229  14.711   7.220   3.531  0.0016  0.2529  0.1274
 9366W        W10230  15.047   9.575   4.575  0.1288 -0.0186  0.3037
 9367W        W10231  15.224  10.407   5.156 -0.0666  0.0095  0.3332
 9368W        W10232  15.765   9.842   6.492  0.0267 -0.1833  0.0880
 9369W        W10233  18.353  13.200   7.299 -0.0593  0.1533 -0.0699
 9370W        W10234  14.946  10.087   4.520 -0.1346  0.2560  0.1032
 9371W        W10235  17.611   9.414   5.029  0.2092 -0.2920 -0.0548
 9372W        W10236  17.131   8.608   8.706 -0.1648 -0.0654  0.0134
 9373W        W10237  20.437  11.468   4.462  0.0022 -0.3088 -0.3049
 9374W        W10238  17.309  10.175   8.058 -0.1952 -0.0908  0.0023
 9375W        W10239  15.119   7.309   3.000  0.0266  0.1088 -0.0424
 9376W        W10240  15.427   8.774   5.486 -0.0653  0.1748  0.2000
 9377W        W10241  16.021   8.662   4.775  0.1923 -0.0529  0.3103
 9378W        W10242  17.703  10.222   3.282  0.0425 -0.3001  0.2219
 9379W        W10243  14.207  10.634   6.593  0.2165  0.0430  0.3100
 9380W        W10244  15.806   9.306   7.607 -0.1047  0.1104 -0.1629
 9381W        W10245  13.756   5.176   5.178 -0.0791 -0.1817 -0.1505
 9382W        W10246  15.402   7.600   5.211 -0.2872  0.0624 -0.3209
 9383W        W10247  13.276   9.416   8.392 -0.3409 -0.0177 -0.0496
 9384W        W10248  16.958   8.877   2.545 -0.0313 -0.0123 -0.0856
 9385W        W10249  15.049  12.286   6.593 -0.1855  0.1804 -0.0112
 9386W        W10250  17.202   6.202   6.593 -0.2921 -0.0680 -0.0282
 9387W        W10251  21.160  13.227   7.526  0.0751 -0.0515 -0.3130
 9388W        W10252  18.587   7.890   7.841  0.3128 -0.0304  0.2742
 9389W        W10253  16.824   7.998   3.481  0.0458  0.0988 -0.1583
 9390W        W10254  19.218   8.288   6.777 -0.0628  0.0530  0.2348
 9391W        W10255  16.204   8.474   5.206  0.0818  0.1154  0.0601
 9392W        W10256  18.359   9.695   2.286  0.0310 -0.0367  0.1449
 9393W        W10257  15.324   7.699   7.193  0.1110  0.3678  0.5203
 9394W        W10258  17.268  12.021   4.178  0.0733  0.2000 -0.2636
 9395W        W10259  18.031   8.037   3.854  0.0270 -0.1413  0.1807
 9396W        W10260  14.911  13.114   7.787 -0.0262  0.1605  0.0154
 9397W        W10261  15.773   6.705   2.401 -0.0311 -0.2635  0.3666
 9398W        W10262  16.903   8.487   3.426 -0.1183  0.2794  0.1647
 9399W        W10263  20.040  10.266   2.277  0.0101 -0.1693 -0.2027
 9400W        W10264  16.952  11.236   5.497  0.5325 -0.1947  0.1417
 9401W        W10265  19.434   6.234   3.959 -0.1667  0.0534 -0.0885
 9402W        W10266  19.929  10.428   3.897 -0.0305 -0.0529 -0.1246
 9403W        W10267  18.009   8.635   5.856  0.0090 -0.4006  0.0121
 9404W        W10268  14.916   8.364   6.153 -0.1552  0.0002  0.1533
 9405W        W10269  16.904  11.494   6.818 -0.0199 -0.2498 -0.2850
 9406W        W10270  16.483   8.664   6.679  0.1743  0.2311 -0.2883
 9407W        W10271  16.544  10.385   6.908  0.0416 -0.0747  0.1311
 9408W        W10272  15.412   7.980   5.518  0.0114 -0.1725  0.0108
 9409W        W10273  14.227   9.848   3.539 -0.0198  0.1738 -0.1292
 9410W        W10274  18.398  11.288   8.023  0.3789 -0.1330  0.0819
 9411W        W10275  17.523  10.982   7.109  0.0983  0.3091  0.0096
 9412W        W10276  15.952  14.417   6.577  0.3502 -0.0148 -0.2203
 9413W        W10277  16.362   8.329   4.571 -0.1612 -0.1437 -0.2387
 9414W        W10278  15.367   9.789   5.380 -0.0145  0.0619  0.4452
 9415W        W10279  17.167   9.590   7.211 -0.0306  0.0376 -0.0876
 9416W        W10280  16.691   8.240   6.923 -0.0346 -0.1215  0.2879
 9417W        W10281  17.935   8.841   3.413 -0.1285 -0.3915 -0.1109
 9418W        W10282  17.708   9.617   1.693  0.3034 -0.1818 -0.1404
 9419W        W10283  18.440   9.892   2.741  0.1574 -0.0904  0.3379
 9420W        W10284  17.745  11.404   5.856 -0.2302 -0.3942 -0.0232
 9421W        W10285  15.644   7.727   4.075 -0.0125 -0.0249 -0.0680
 9422W        W10286  17.395  12.197   5.397  0.3400 -0.0389 -0.1390
 9423W        W10287  17.769   8.590   2.865 -0.2085  0.0959 -0.1324
 9424W        W10288  17.165  11.138   5.041  0.1280 -0.3288  0.0477
 9425W        W10289  15.337   8.278   6.464 -0.1941  0.0791 -0.0908
 9426W        W10290  16.244   9.341   8.969  0.2342 -0.1906 -0.1765
 9427W        W10291  17.820  10.415   6.170 -0.0650 -0.1937 -0.2541
 9428W        W10292  15.313  12.115   4.194 -0.0119  0.6679  0.1052
 9429W        W10293  16.582  10.178   4.015 -0.0923  0.2823  0.0098
 9430W        W10294  15.398   8.521   5.995 -0.3474  0.2935 -0.0456
 9431W        W10295  17.805  10.809   6.514 -0.0619 -0.2703 -0.0916
 9432W        W10296  15.251   7.534   4.307  0.0809 -0.2700  0.0642
 9433W        W10297  15.719   6.813   3.779 -0.0039  0.2987 -0.2239
 9434W        W10298  17.851   9.688   6.633 -0.0361  0.3791 -0.0498
 9435W        W10299  16.061   7.279   4.623 -0.1690 -0.0031  0.2140
 9436W        W10300  17.224  13.258   3.422  0.0138 -0.1170 -0.0426
 9437W        W10301  17.991  11.464   3.821  0.2454  0.4242  0.2136
 9438W        W10302  14.833   6.789   4.848  0.1732 -0.0990  0.1790
 9439W        W10303  17.013   9.009   6.659 -0.3001 -0.2501 -0.0319
 9440W        W10304  15.657  12.625   4.982 -0.1807 -0.0304  0.2098
 9441W        W10305  15.695   8.644   4.045  0.0174 -0.3329 -0.0401
 9442W        W10306  15.897   8.370   3.536 -0.1403  0.1124 -0.1283
 9443W        W10307  16.342   6.925   2.615 -0.2850  0.1817 -0.3318
 9444W        W10308  16.304   6.603   5.509 -0.0239 -0.2003 -0.3425
 9445W        W10309  16.022   8.802   6.983 -0.1142 -0.1503 -0.0758
 9446W        W10310  14.804   8.156   5.590  0.0982 -0.0689  0.0508
 9447W        W10311  14.677   7.484   6.451 -0.2394  0.0136  0.1067
 9448W        W10312  16.715   9.011   5.898 -0.3185  0.0457  0.0290
 9449W        W10313  13.969   6.775   3.265 -0.0517 -0.0758  0.1308
 9450W        W10314  16.842   9.766   5.198 -0.3812 -0.0113  0.0097
 9451W        W10315  15.759   8.735   0.381 -0.0124 -0.1894  0.2151
 9452W        W10316  16.429   9.481   5.872  0.0610  0.1590 -0.0328
 9453W        W10317  17.389   9.282   6.832 -0.0678  0.1774 -0.0691
 9454W        W10318  15.634  10.735   4.516  0.0725 -0.0443 -0.2786
 9455W        W10319  19.750  10.587   4.796  0.1278  0.1016 -0.1694
 9456W        W10320  16.883   4.597   2.290  0.2820 -0.0432  0.3131
 9457W        W10321  16.714  11.563   4.663 -0.2860  0.0409 -0.0581
 9458W        W10322  16.843   8.694   7.488 -0.0185 -0.1660 -0.1498
 9459W        W10323  15.736   8.566   6.668 -0.0264 -0.0762 -0.1118
 9460W        W10324  14.925   9.497   8.536 -0.1444  0.0284  0.1530
 9461W        W10325  17.762  10.376   7.096  0.5328 -0.0631  0.1031
 9462W        W10326  16.969   6.680   7.482 -0.1049  0.3116 -0.2185
 9463W        W10327  15.975  11.075   4.850 -0.1189 -0.2153  0.1194
 9464W        W10328  15.508   8.651   3.259  0.1726  0.0337 -0.2803
 9465W        W10329  14.615  11.308   7.953  0.0408  0.0451 -0.0197
 9466W        W10330  16.694  11.086   4.907  0.2111  0.1657 -0.1313
 9467W        W10331  16.308  11.309   5.570 -0.1037 -0.6096  0.6440
 9468W        W10332  17.229   7.085   7.566 -0.3940  0.0816  0.3117
 9469W        W10333  18.036   9.970   7.034 -0.3060 -0.2793  0.1771
 9470W        W10334  17.160  13.295   7.386  0.1869 -0.0956  0.0886
 9471W        W10335  19.389   9.886   5.352  0.0013  0.0973 -0.0055
 9472W        W10336  17.312   6.384   2.134  0.2872 -0.1448 -0.1952
 9473W        W10337  17.386   8.649   4.701 -0.0888 -0.0670 -0.0726
 9474W        W10338  16.273   9.703   8.570 -0.3568  0.1251  0.0836
 9475W        W10339  15.294   9.686   8.076 -0.1307 -0.0058  0.3190
 9476W        W10340  14.749   8.862   6.244  0.0516  0.0741 -0.0933
 9477W        W10341  16.657   7.708   6.448 -0.0934  0.1418  0.2020
 9478W        W10342  16.040  10.850   5.297 -0.0517  0.2468 -0.1416
 9479W        W10343  17.925  11.123   3.494 -0.0292 -0.0869  0.1605
 9480W        W10344  15.709   9.161   3.128 -0.0800 -0.1217  0.0966
 9481W        W10345  17.991   7.617   4.161  0.0496 -0.0832 -0.1640
 9482W        W10346  17.230  10.683   4.743 -0.0348 -0.2535 -0.1408
 9483W        W10347  17.947   8.099   8.433  0.1122 -0.3479  0.5571
 9484W        W10348  20.565   8.089   4.216  0.0419 -0.2854 -0.1165
 9485W        W10349  12.973   7.343   0.749  0.2222 -0.1078 -0.2824
 9486W        W10350  16.249  10.093   8.359  0.2141 -0.2261  0.0610
 9487W        W10351  17.227  10.431   6.920  0.3246 -0.0072 -0.0667
 9488W        W10352  15.514   8.163   3.966  0.0769 -0.0067  0.2022
 9489W        W10353  13.178  10.432   4.131  0.2429  0.0722  0.0706
 9490W        W10354  13.971   6.719   4.528 -0.0456  0.2761  0.0566
 9491W        W10355  15.654   8.901   6.274  0.1071  0.1719 -0.3218
 9492W        W10356  16.800   7.036   7.816  0.1654  0.2399 -0.0445
 9493W        W10357  16.856   6.662   4.234  0.0964  0.5472  0.0836
 9494W        W10358  16.228   7.524   4.131  0.2375  0.1258 -0.0090
 9495W        W10359  15.291   5.905   6.739  0.0088 -0.0252 -0.6024
 9496W        W10360  14.773   7.657   4.462 -0.1130  0.1626 -0.2750
 9497W        W10361  18.943   5.866   6.880  0.0183 -0.1847 -0.2571
 9498W        W10362  14.650   8.433   2.509  0.0430  0.0162 -0.2387
 9499W        W10363  16.472   7.918   4.805  0.2018 -0.1060  0.0311
 9500W        W10364  19.366   7.727   4.122  0.0811  0.1686 -0.0608
 9501W        W10365  15.339   7.520   6.732 -0.2815  0.0487  0.0256
 9502W        W10366  13.805   7.499   6.079  0.3752 -0.1135  0.1238
 9503W        W10367  15.894   7.377   3.784 -0.4299  0.3705 -0.1016
 9504W        W10368  14.754   8.163   7.011 -0.0796  0.1552 -0.0607
 9505W        W10369  15.046  10.708   7.745 -0.1082  0.1630 -0.1024
 9506W        W10370  16.892  11.060   6.473 -0.1811 -0.0189 -0.1442
 9507W        W10371  17.386   6.831   2.448  0.0102 -0.1283 -0.2173
 9508W        W10372  16.777  12.407   6.884 -0.0876 -0.0726  0.2284
 9509W        W10373  15.698  11.095   7.082 -0.1056 -0.2511 -0.2261
 9510W        W10374  16.638   9.537   7.110  0.0097  0.0351  0.1702
 9511W        W10375  15.771   7.273   7.580  0.0175 -0.0673 -0.1931
 9512W        W10376  18.988  11.324   5.425 -0.2192  0.1765 -0.0132
 9513W        W10377  20.583   9.816   3.967  0.0129 -0.0363  0.0259
 9514W        W10378  17.590   9.506   2.870 -0.0100  0.0681  0.2158
 9515W        W10379  18.862  12.094   4.875  0.1403  0.2017 -0.0800
 9516W        W10380  15.284   9.847   7.440 -0.0875  0.3038  0.1032
 9517W        W10381  15.846   7.541   7.029 -0.1359  0.0547  0.2387
 9518W        W10382  17.987   7.436   5.497 -0.2296  0.1177  0.1381
 9519W        W10383  20.006   8.042   3.620  0.1176 -0.1812  0.2948
 9520W        W10384  14.064   9.991   7.191  0.2439 -0.2183 -0.2109
 9521W        W10385  16.275   7.885   2.398  0.2975  0.0919 -0.1030
 9522W        W10386  16.386   8.665   3.548  0.3940 -0.0064 -0.0965
 9523W        W10387  15.442   8.228   3.482  0.0672  0.4268  0.0935
 9524W        W10388  16.114  11.322   2.363  0.0859 -0.3070  0.0719
 9525W        W10389  17.307   7.378   7.141  0.2819  0.0013  0.0531
 9526W        W10390  19.075   9.410   5.512 -0.0546  0.0326  0.0503
 9527W        W10391  17.161  11.344   8.561 -0.3757  0.1301 -0.0053
 9528W        W10392  14.430   6.085   6.787 -0.1325  0.1949  0.0450
 9529W        W10393  16.004  10.589   8.911 -0.2114 -0.0219 -0.1004
 9530W        W10394  16.282  10.695   3.178 -0.1778  0.0182 -0.0968
 9531W        W10395  16.453  12.174   7.280 -0.2550  0.0739  0.0423
 9532W        W10396  13.278   9.741   5.413 -0.1912  0.2128  0.1219
 9533W        W10397  17.761  11.386   6.970  0.0739  0.0835 -0.0371
 9534W        W10398  19.337   9.029   7.853  0.1575  0.2333 -0.4224
 9535W        W10399  14.842   7.415   3.971  0.0039  0.0698  0.1870
 9536W        W10400  18.967  10.293   7.621 -0.1643 -0.1431  0.0682
 9537W        W10401  19.611   9.223   7.363  0.1236 -0.1028  0.0922
 9538W        W10402  18.647   9.019   6.542  0.0285  0.0571 -0.0824
 9539W        W10403  15.084   9.315   8.982 -0.4237 -0.2329  0.1095
 9540W        W10404  14.569   5.659   5.439 -0.1674  0.0590 -0.0562
 9541W        W10405  16.717   7.570   5.741  0.3165 -0.3367 -0.3201
 9542W        W10406  18.313   8.405   6.527 -0.1390 -0.0660 -0.2448
 9543W        W10407  15.859  11.286   5.835  0.0988 -0.0731 -0.1458
 9544W        W10408  18.165   8.914   6.920  0.0247 -0.0317 -0.1021
 9545W        W10409  13.572   9.926   5.875  0.1017 -0.0290  0.1091
 9546W        W10410  20.079  11.919   5.896  0.0436 -0.0108 -0.0729
 9547W        W10411  14.223   9.063   4.168  0.1043  0.0148 -0.1255
 9548W        W10412  15.752  10.527   7.201  0.3686  0.0646 -0.1073
 9549W        W10413  17.987  12.442   8.949  0.2288  0.1181 -0.3366
 9550W        W10414  19.626   9.806   7.275 -0.3032  0.0455 -0.2326
 9551W        W10415  14.280  11.120   4.615 -0.0800  0.1346 -0.0738
 9552W        W10416  14.655   9.314   4.349  0.1721  0.1567 -0.1118
 9553W        W10417  16.288  11.109   6.079 -0.1397  0.1095  0.2444
 9554W        W10418  21.204   7.599   4.081  0.1223 -0.2105  0.0304
 9555W        W10419  17.208   7.364   3.881 -0.0675 -0.3391  0.1255
 9556W        W10420  18.787  10.289   4.583 -0.0896 -0.0341  0.0407
 9557W        W10421  16.165   6.457   4.875 -0.1040  0.2684  0.0905
 9558W        W10422  15.607   7.998   2.578  0.3681 -0.1125 -0.1039
 9559W        W10423  17.000   8.409   6.671  0.1838 -0.2073  0.1242
 9560W        W10424  18.269   7.825   8.658  0.1405  0.0247  0.0157
 9561W        W10425  15.137   8.109   9.248  0.2047  0.0481  0.2393
 9562W        W10426  16.729  10.783   8.258  0.0374 -0.1834 -0.1256
 9563W        W10427  13.343  10.856   9.328 -0.0628 -0.0236 -0.0098
 9564W        W10428  15.689   9.141   3.962  0.0595  0.0949  0.2037
 9565W        W10429  17.490   8.364   4.222  0.0437  0.0800  0.0375
 9566W        W10430  15.554   6.255   7.397  0.0079  0.0120  0.0682
 9567W        W10431  21.705   9.884   3.956  0.0675 -0.0996  0.0492
 9568W        W10432  16.417  11.191   4.529 -0.3017 -0.1088  0.1357
 9569W        W10433  16.168   6.480   7.235 -0.0414 -0.1005  0.1733
 9570W        W10434  18.667   9.103   7.010  0.0060 -0.1243 -0.0078
 9571W        W10435  14.120   9.028   7.838  0.1006  0.0179  0.1544
 9572W        W10436  18.927  10.353   7.099 -0.0285 -0.0811  0.0755
 9573W        W10437  17.325   6.844   7.127  0.0357 -0.0086 -0.1574
 9574W        W10438  14.594   7.729   7.457  0.0640 -0.0770  0.0811
 9575W        W10439  16.432   7.991   5.899  0.1660  0.1105 -0.0474
 9576W        W10440  14.015   4.570   1.894 -0.2778  0.3374 -0.0568
 9577W        W10441  12.351  10.747   7.824  0.1390 -0.2521 -0.1173
 9578W        W10442  15.594   9.569   4.151  0.2723  0.1199  0.2335
 9579W        W10443  17.928   8.107   4.320 -0.1937  0.0401  0.0181
 9580W        W10444  15.895   7.964   5.940 -0.1795 -0.3267 -0.3156
 9581W        W10445  16.184  11.282   7.225  0.0645 -0.1069  0.3435
 9582W        W10446  18.246  12.075   5.209  0.3217 -0.1309  0.0253
 9583W        W10447  18.738   9.479   6.362 -0.1117  0.2034 -0.1659
 9584W        W10448  16.589   6.164   7.282  0.1465 -0.0778  0.0210
 9585W        W10449  13.807   9.145   8.264 -0.2755 -0.0316 -0.0291
 9586W        W10450  18.348   8.402   5.534  0.0654 -0.1952  0.2829
 9587W        W10451  15.504   9.930   5.851 -0.0098  0.0081  0.0359
 9588W        W10452  18.696   6.285   4.780 -0.0613 -0.0672  0.1961
 9589W        W10453  18.854   7.615   4.741  0.1375 -0.1616  0.1316
 9590W        W10454  17.339   7.765   7.706 -0.0510  0.1646  0.3228
 9591W        W10455  15.423  10.877   3.620  0.1041  0.0859  0.0445
 9592W        W10456  12.635  10.577   4.966 -0.1135  0.0200  0.0197
 9593W        W10457  16.464  10.768   6.571  0.3319 -0.0454 -0.0850
 9594W        W10458  15.798   8.006   6.697 -0.0811 -0.0430 -0.0197
 9595W        W10459  20.168  10.223   8.004  0.1141  0.0353  0.0712
 9596W        W10460  14.858   7.650   2.746 -0.3560 -0.0241 -0.0385
 9597W        W10461  15.903  12.038   7.022 -0.1882  0.1415  0.3572
 9598W        W10462  17.075  10.786   4.183  0.0655  0.0409  0.1980
 9599W        W10463  14.479   5.932   6.033  0.1804 -0.1603  0.1924
 9600W        W10464  15.726  12.246   5.389 -0.1702 -0.0283 -0.1551
 9601W        W10465  19.090   8.780   6.819  0.2748 -0.1004  0.2804
 9602W        W10466  17.050   9.295   3.002 -0.0998  0.1200 -0.1156
 9603W        W10467  18.333  11.430   6.343 -0.1547 -0.0030  0.1455
 9604W        W10468  17.768   9.034   6.135  0.0675 -0.0437 -0.0265
 9605W        W10469  16.399   6.070   3.790  0.1497 -0.1161 -0.1113
 9606W        W10470  15.837   6.821   4.584 -0.1677 -0.1141  0.0792
 9607W        W10471  16.260  10.169   6.366  0.0948  0.2815  0.1369
 9608W        W10472  16.655   9.982   3.438 -0.2320  0.0585  0.2024
 9609W        W10473  18.614   7.891  11.027  0.0398 -0.1557 -0.0379
 9610W        W10474  14.511   8.007   6.553  0.2742  0.2255  0.0135
 9611W        W10475  15.861  11.384   7.598  0.1431 -0.2961  0.0465
 9612W        W10476  14.695   9.113   5.834  0.1575 -0.0548  0.1732
 9613W        W10477  14.556   8.684   9.860 -0.2560  0.3291  0.1259
 9614W        W10478  15.569   8.491   2.686  0.0850 -0.2824 -0.2905
 9615W        W10479  16.105   6.046   5.134  0.0432 -0.0657 -0.2954
 9616W        W10480  16.163  11.754   7.453 -0.1409  0.1351  0.1027
 9617W        W10481  16.079   7.779   2.863 -0.2123 -0.2137 -0.0886
 9618W        W10482  15.346  11.627   3.756  0.1656  0.0161  0.2756
 9619W        W10483  19.981  12.940   3.977  0.1970  0.0049  0.0481
 9620W        W10484  13.872   9.520   6.124 -0.0279  0.0306  0.0287
 9621W        W10485  17.483  11.169   5.481  0.0929  0.1049  0.2570
 9622W        W10486  14.724   8.914   4.044  0.0316  0.2120 -0.0698
 9623W        W10487  16.804  10.203   8.138 -0.0252 -0.1205  0.0742
 9624W        W10488  16.818   9.535   3.401 -0.1114 -0.0869 -0.1950
 9625W        W10489  14.510  10.727   2.612 -0.1344 -0.0257  0.0799
 9626W        W10490  18.943   8.092   6.115  0.3818  0.1547  0.1243
 9627W        W10491  15.465   8.827   2.182  0.1036 -0.1790  0.5468
 9628W        W10492  16.424   6.480   5.953 -0.0945  0.2605 -0.0553
 9629W        W10493  18.086   9.770   4.981 -0.1355  0.0018  0.0806
 9630W        W10494  20.978   9.538   8.387 -0.1608 -0.0176  0.0768
 9631W        W10495  16.575  10.427   8.623 -0.1284  0.4343  0.0474
 9632W        W10496  14.922  10.067   5.440 -0.0533 -0.1114 -0.0440
 9633W        W10497  17.082  12.710   9.808 -0.3880  0.3767 -0.2731
 9634W        W10498  15.382  11.212   8.433 -0.1338  0.3900 -0.3731
 9635W        W10499  17.637  10.201   5.391 -0.1195  0.1914  0.0357
 9636W        W10500  16.649   8.730   5.411  0.2254  0.0300  0.3477
 9637W        W10501  16.765   5.597   2.286  0.2994  0.0285 -0.1205
 9638W        W10502  15.548  11.464   6.627  0.2277  0.2218 -0.0057
 9639W        W10503  17.407   9.312   8.462  0.2314  0.3188 -0.2713
 9640W        W10504  17.849   9.140   4.294 -0.0367 -0.2318 -0.0729
 9641W        W10505  14.161  11.080   6.838  0.0107 -0.0719 -0.0635
 9642W        W10506  17.492  11.083   6.175  0.0484 -0.0701 -0.2095
 9643W        W10507  14.321  12.032   6.352  0.1561 -0.1629 -0.1824
 9644W        W10508  17.526   7.897   7.057  0.1890  0.0643  0.0218
 9645W        W10509  16.735  10.999   7.752  0.0253  0.0653 -0.0311
 9646W        W10510  15.808   9.719   3.279  0.4470  0.0472 -0.0573
 9647W        W10511  16.258   6.202   2.554  0.1410 -0.2566 -0.2434
 9648W        W10512  16.929   8.027   6.068 -0.1761 -0.1174 -0.2517
 9649W        W10513  17.834   7.092   0.888  0.1495 -0.0668  0.0188
 9650W        W10514  19.189   9.165   6.458 -0.0724  0.1951 -0.2801
 9651W        W10515  17.722  11.894   5.739  0.0522 -0.3188  0.2419
 9652W        W10516  14.805   7.689   3.246 -0.0780 -0.2142  0.0512
 9653W        W10517  16.413   7.078   4.177  0.0128 -0.0527 -0.3288
 9654W        W10518  16.239  12.130   9.017  0.1164 -0.2200  0.0142
 9655W        W10519  18.173   9.960   6.383 -0.0796 -0.2156 -0.1676
 9656W        W10520  13.509   8.571   8.429 -0.1201 -0.1601 -0.1219
 9657W        W10521  15.356   5.623   5.208 -0.0817  0.1749  0.0421
 9658W        W10522  15.871   7.892   5.399 -0.3324  0.2001 -0.2715
 9659W        W10523  16.188  10.951   7.637 -0.1904 -0.2465 -0.0023
 9660W        W10524  15.573  10.614   9.142  0.0233 -0.3211 -0.3108
 9661W        W10525  17.765   8.542   5.198  0.2434  0.0932  0.2878
 9662W        W10526  16.948  11.879   7.063  0.0177  0.1063  0.1035
 9663W        W10527  19.191  11.345   7.260 -0.2694  0.1236 -0.2261
 9664W        W10528  16.837  10.067   6.539  0.1492  0.0162 -0.2775
 9665W        W10529  17.404  10.044   7.267 -0.0077  0.2423 -0.1280
 9666W        W10530  15.555   9.458   5.962  0.3302  0.0219  0.1439
 9667W        W10531  17.414   8.259   6.041 -0.1989 -0.0381  0.2895
 9668W        W10532  14.061  11.383   3.249  0.2975  0.1182  0.1280
 9669W        W10533  18.403   7.811   4.863 -0.0513 -0.3291 -0.1578
 9670W        W10534  17.650   8.018   3.514 -0.2490  0.0537 -0.2867
 9671W        W10535  18.184  10.869   4.999  0.4641  0.0296  0.0042
 9672W        W10536  14.487  10.280   4.384 -0.0401 -0.3273 -0.0468
 9673W        W10537  17.336   8.042   9.140  0.2126 -0.1449 -0.2241
 9674W        W10538  14.927   7.369   5.027  0.0120 -0.2286  0.1056
 9675W        W10539  18.711   9.479   5.841  0.2671  0.0275 -0.2743
 9676W        W10540  17.436   8.417   5.600  0.3685 -0.2639  0.2806
 9677W        W10541  17.473   6.255   8.715 -0.2703 -0.0147 -0.2947
 9678W        W10542  16.149  10.166   4.983  0.1155  0.0985 -0.0226
 9679W        W10543  14.585   7.584   5.715 -0.2370  0.4604  0.1006
 9680W        W10544  15.980  10.864   3.571  0.1024  0.1793  0.2613
 9681W        W10545  17.806   9.486   5.955 -0.0798 -0.0196  0.2789
 9682W        W10546  18.622  15.012   8.652 -0.0674 -0.0460 -0.2224
 9683W        W10547  17.947   8.046   7.756 -0.1011 -0.0141 -0.2173
 9684W        W10548  16.938  10.299   6.037  0.0571  0.1680 -0.1644
 9685W        W10549  16.108   8.231   7.674 -0.2781 -0.1170 -0.1103
 9686W        W10550  19.635   8.707   6.549  0.1453  0.1367 -0.0867
 9687W        W10551  19.029   9.017   5.083  0.0075  0.0884 -0.4156
 9688W        W10552  15.495   9.277   5.464  0.1134 -0.1319 -0.0179
 9689W        W10553  15.831  13.263   7.395 -0.0050  0.2553  0.0032
 9690W        W10554  18.723  10.974   3.924 -0.1550  0.0891 -0.3480
 9691W        W10555  17.511  13.144   6.357 -0.2303 -0.1011  0.3208
 9692W        W10556  16.071  12.459   5.780  0.0109 -0.2468  0.2540
 9693W        W10557  16.497  10.650   9.142  0.0058 -0.0991  0.0968
 9694W        W10558  16.920  11.992   5.990 -0.2974 -0.0701  0.0595
 9695W        W10559  14.484   9.559   9.549 -0.2095 -0.1009  0.1977
 9696W        W10560  16.211   9.081   3.305 -0.0318 -0.0117 -0.1525
 9697W        W10561  17.285   9.167   3.420 -0.3132  0.3324 -0.1508
 9698W        W10562  13.206   9.160  11.816 -0.2427  0.1404 -0.0473
 9699W        W10563  14.574   8.850  11.560 -0.2828 -0.2305  0.0319
 9700W        W10564  17.662   7.183   8.904 -0.1338 -0.2391 -0.0001
 9701W        W10565  18.940  11.708   9.950  0.1390 -0.0478 -0.1389
 9702W        W10566  16.391  11.683   8.796 -0.2983 -0.0459 -0.0327
 9703W        W10567  17.644   6.203   7.797  0.0440  0.0453 -0.1062
 9704W        W10568  13.937   8.265  10.515  0.5569 -0.0810  0.0758
 9705W        W10569  15.197   8.585   7.036  0.0085  0.0784  0.2144
 9706W        W10570  15.325   9.806  12.882 -0.1076  0.1428 -0.1500
 9707W        W10571  13.948   8.263  11.086  0.4239 -0.0530 -0.3899
 9708W        W10572  14.385   5.538   8.633  0.0443  0.0595  0.0604
 9709W        W10573  14.183   7.878  11.816  0.0322 -0.0561  0.1209
 9710W        W10574  14.793   8.448   6.607 -0.1580 -0.0809  0.1263
 9711W        W10575  17.698   6.848  10.809 -0.4044 -0.0342  0.1475
 9712W        W10576  13.581   5.904   8.290  0.2664 -0.0988 -0.0066
 9713W        W10577  14.819   8.345   8.425  0.0605  0.0849  0.0905
 9714W        W10578  17.622  12.065   8.166  0.2455 -0.1139  0.2234
 9715W        W10579  16.674   7.916   8.463 -0.3254  0.0256 -0.1841
 9716W        W10580  13.267   6.178  12.562  0.1829 -0.0222  0.0527
 9717W        W10581  17.839   9.977   9.882 -0.1395  0.0080  0.1214
 9718W        W10582  17.692   8.748   8.459 -0.0878 -0.2750  0.1153
 9719W        W10583  16.089  10.009  10.377 -0.2452 -0.2792 -0.0473
 9720W        W10584  17.618   7.952  10.474  0.2747 -0.3457  0.1300
 9721W        W10585  15.640   8.624  11.258 -0.0649 -0.1543 -0.1719
 9722W        W10586  14.400   7.782   9.470 -0.0403 -0.0461 -0.0015
 9723W        W10587  13.110   8.609  11.310 -0.1265 -0.1415 -0.3046
 9724W        W10588  19.081   8.937  13.688  0.0753 -0.0066  0.0678
 9725W        W10589  15.181   8.854  10.485 -0.1332 -0.0985  0.1741
 9726W        W10590  16.888   7.849  12.447  0.1136 -0.0133  0.2117
 9727W        W10591  16.358   8.326   9.846  0.0482 -0.1466 -0.0737
 9728W        W10592  14.429   7.934  10.544 -0.0886  0.1122  0.0996
 9729W        W10593  15.551   8.744   9.789 -0.1023 -0.2632 -0.2546
 9730W        W10594  14.494   9.098  11.093  0.3730 -0.1808 -0.2825
 9731W        W10595  16.460   8.244  12.149  0.2412 -0.0557 -0.1873
 9732W        W10596  13.333   8.882  10.950 -0.0410 -0.2658  0.1640
 9733W        W10597  18.820   7.977  11.544  0.0918  0.0593 -0.0161
 9734W        W10598  14.142   7.917   8.359  0.1857  0.4546  0.2765
 9735W        W10599  14.925   9.848   8.942  0.2860 -0.1168  0.0389
 9736W        W10600  18.988  12.160   8.185 -0.0221  0.0312  0.1395
 9737W        W10601  16.959   5.181   7.650  0.1343  0.0848 -0.1065
 9738W        W10602  19.657  10.070   9.203  0.1067  0.2701 -0.2380
 9739W        W10603  17.770   8.807   9.590  0.1447  0.2024 -0.0978
 9740W        W10604  15.900  11.059   9.089 -0.1329  0.2055  0.1035
 9741W        W10605  18.090   9.584   9.741 -0.1143 -0.0849 -0.0391
 9742W        W10606  15.270  11.658   9.115  0.1061 -0.1084 -0.1044
 9743W        W10607  15.258  10.871   7.249  0.0156 -0.0203 -0.0021
 9744W        W10608  16.823   6.402   9.600 -0.2663 -0.2710  0.1781
 9745W        W10609  17.753   7.974   9.457 -0.2337 -0.0915 -0.0086
 9746W        W10610  16.585   8.866   8.620  0.2941 -0.0515 -0.1896
 9747W        W10611  15.160   6.805   6.888  0.0155 -0.0375 -0.0232
 9748W        W10612  15.196  10.515  10.179  0.0628  0.2821  0.4071
 9749W        W10613  12.972   8.336  10.870 -0.0320 -0.4237 -0.2804
 9750W        W10614  16.468   6.770   9.448 -0.0121  0.5674  0.1363
 9751W        W10615  19.269   8.728   6.239  0.1573  0.0814 -0.1614
 9752W        W10616  15.221   9.316   7.661 -0.0131 -0.6563  0.2013
 9753W        W10617  16.053   9.014   8.012  0.2555 -0.1925  0.0353
 9754W        W10618  15.456   9.185   9.474 -0.1941  0.0317  0.0551
 9755W        W10619  14.193   8.340  10.063  0.2805  0.0856  0.0422
 9756W        W10620  16.706   9.112  13.092  0.1696 -0.1187 -0.0515
 9757W        W10621  17.068   8.972   8.377 -0.0286 -0.1493 -0.1682
 9758W        W10622  17.322   6.654   7.809  0.1632 -0.0278  0.5028
 9759W        W10623  14.606  10.323   7.825 -0.0030  0.0579 -0.1014
 9760W        W10624  14.440   9.541  13.066 -0.1484  0.0873  0.1586
 9761W        W10625  15.388   8.200  10.267  0.2963  0.1254  0.4541
 9762W        W10626  17.143   7.957   8.162 -0.1737 -0.1414 -0.0933
 9763W        W10627  18.290   8.269   8.023  0.0875 -0.0738  0.0800
 9764W        W10628  15.700   8.521   8.982 -0.2450 -0.0564  0.2503
 9765W        W10629  13.359   8.008   7.856 -0.0030 -0.1872  0.1552
 9766W        W10630  13.760   8.078   7.059  0.0024 -0.0426 -0.0101
 9767W        W10631  14.500  10.060   9.818 -0.2805  0.0186 -0.0876
 9768W        W10632  17.205   8.775  11.279 -0.0204  0.0945  0.0462
 9769W        W10633  16.020   9.180   6.690  0.0286 -0.0950  0.1206
 9770W        W10634  16.337  10.232   9.358 -0.0762 -0.0365  0.0061
 9771W        W10635  18.335   9.571  11.537  0.0450  0.1419 -0.1000
 9772W        W10636  19.956  11.833   9.665 -0.0931  0.2371 -0.2875
 9773W        W10637  15.613   7.543  11.424 -0.0503  0.1902  0.2005
 9774W        W10638  12.849   6.779   7.416  0.0481 -0.1429  0.0154
 9775W        W10639  12.762  11.157   9.337  0.0994  0.1343  0.1920
 9776W        W10640  17.354   8.811   6.963 -0.0568 -0.1516 -0.1835
 9777W        W10641  18.706   9.878   9.677 -0.3583  0.2079  0.0950
 9778W        W10642  14.641  11.853  10.242  0.0866 -0.0490 -0.1212
 9779W        W10643  15.514   7.615   9.444 -0.0497 -0.4680  0.3710
 9780W        W10644  12.181   7.376   9.493  0.1004 -0.0920  0.1574
 9781W        W10645  16.983   7.391  12.611  0.1352  0.1762  0.0684
 9782W        W10646  16.921  10.632   9.445  0.2648  0.0739  0.0300
 9783W        W10647  15.070   7.372   8.500  0.1106  0.0176 -0.3222
 9784W        W10648  18.053  10.603   9.519 -0.0928  0.0020  0.0068
 9785W        W10649  18.222   8.687   9.329 -0.0717  0.1564 -0.0241
 9786W        W10650  16.769  11.935   9.065  0.0635 -0.0670 -0.2084
 9787W        W10651  17.308   7.857   9.700  0.1489  0.0455 -0.0618
 9788W        W10652  18.692   8.769   7.360  0.1791 -0.0012  0.3214
 9789W        W10653  18.735   9.241  12.317 -0.1174  0.0914 -0.1264
 9790W        W10654  14.452  12.411   9.292 -0.0282  0.1141  0.1753
 9791W        W10655  16.998  12.251   7.360 -0.0809  0.1479  0.0441
 9792W        W10656  15.850   6.906  13.429 -0.0795  0.0138 -0.2557
 9793W        W10657  17.386   7.229   8.479 -0.2403  0.1188  0.2074
 9794W        W10658  18.342  10.286   9.100  0.2165  0.0197 -0.2123
 9795W        W10659  15.816  10.233  10.801  0.1588  0.1265 -0.1287
 9796W        W10660  14.120   7.362   9.410  0.2337 -0.0034 -0.1831
 9797W        W10661  14.680   9.042   7.679  0.2397  0.0696 -0.1551
 9798W        W10662  17.554  12.961   9.591 -0.1772  0.3290  0.0321
 9799W        W10663  17.077   9.615   9.671  0.1187  0.1540  0.1121
 9800W        W10664  14.859   7.191   5.462 -0.1236  0.1478  0.2119
 9801W        W10665  18.037  13.119  10.785 -0.4093 -0.0201 -0.0519
 9802W        W10666  18.183   7.715   8.135 -0.0765 -0.3788 -0.0824
 9803W        W10667  14.891  10.218  13.879  0.2434 -0.1182 -0.0532
 9804W        W10668  15.593  11.273  10.047 -0.1881  0.2005 -0.1562
 9805W        W10669  18.825   8.575  11.688 -0.2001  0.2226  0.1948
 9806W        W10670  15.468   7.726  11.944 -0.0308 -0.0642 -0.0299
 9807W        W10671  14.203  10.329  10.172  0.2608 -0.3277 -0.0006
 9808W        W10672  16.657  11.083  11.435  0.0723 -0.1810  0.1336
 9809W        W10673  18.419   9.637   9.308 -0.0665  0.1231  0.4017
 9810W        W10674  15.389   8.081  11.573  0.1268  0.2242  0.0506
 9811W        W10675  14.049   9.176  10.102  0.1316  0.0268  0.3608
 9812W        W10676  19.056   8.637   7.693 -0.0304  0.1073 -0.1043
 9813W        W10677  17.092   8.098   8.659  0.1678 -0.3631 -0.0358
 9814W        W10678  17.084   7.745  11.865  0.1003 -0.2357  0.1474
 9815W        W10679  14.172   9.997  11.221  0.0237 -0.4273 -0.1094
 9816W        W10680  16.609   8.433  13.698 -0.1027 -0.2013 -0.1582
 9817W        W10681  18.683  10.359   9.912  0.0846 -0.0562 -0.0025
 9818W        W10682  16.694  10.042   9.004 -0.1954  0.2506 -0.2339
 9819W        W10683  17.836   7.485   8.490  0.3026 -0.1735 -0.0473
 9820W        W10684  15.026  10.152   9.860 -0.1444  0.0033 -0.2907
 9821W        W10685  15.837   7.534   9.066  0.3215 -0.4499 -0.1006
 9822W        W10686  17.915  10.001   7.513  0.0460  0.0664  0.1652
 9823W        W10687  16.931   7.561   8.921  0.3499  0.4336 -0.2969
 9824W        W10688  13.712   9.877  10.918 -0.2893  0.0511 -0.2121
 9825W        W10689  16.521   7.742  11.972 -0.2893  0.3597 -0.0527
 9826W        W10690  16.163  12.426  10.579 -0.1024 -0.2629 -0.2368
 9827W        W10691  18.783  11.381   8.443  0.1669 -0.0335  0.0796
 9828W        W10692  18.204  11.250  10.076 -0.3802 -0.1014 -0.0865
 9829W        W10693  17.062   9.157  14.484 -0.0647 -0.4567  0.0602
 9830W        W10694  16.384  10.189  11.213  0.3131  0.1048 -0.0981
 9831W        W10695  18.175   9.213   9.255 -0.0086 -0.1056 -0.1293
 9832W        W10696  16.722   8.594  11.381 -0.1405  0.1400  0.0768
 9833W        W10697  14.217   9.666  10.099 -0.1598 -0.1169 -0.0463
 9834W        W10698  17.900  11.393   9.330  0.1688 -0.4048 -0.2268
 9835W        W10699  19.103   8.318   9.615 -0.1890 -0.0904  0.1273
 9836W        W10700  17.443  10.129   8.964 -0.0692  0.0525  0.0573
 9837W        W10701  16.012   8.717   9.986 -0.2983  0.0660 -0.1705
 9838W        W10702  14.840   6.636   5.579  0.1317  0.1556  0.2616
 9839W        W10703  18.561   9.421   7.929  0.0639 -0.2493  0.2660
 9840W        W10704  16.578  11.329   8.533 -0.3275  0.0628  0.2063
 9841W        W10705  16.651   8.942   8.085  0.1312  0.2942  0.2017
 9842W        W10706  16.252   8.935  10.696  0.0666 -0.0837 -0.0407
 9843W        W10707  15.335   7.574   8.900 -0.1276  0.1204 -0.0452
 9844W        W10708  18.338   7.921   6.345  0.2511  0.1946 -0.1733
 9845W        W10709  18.599  10.902   9.904 -0.3896  0.2008 -0.0546
 9846W        W10710  17.422   9.722   9.275  0.1494  0.0065 -0.0216
 9847W        W10711  15.362   9.712  10.784 -0.0328 -0.1349  0.0942
 9848W        W10712  16.980  13.115   9.460  0.0569  0.3344 -0.2044
 9849W        W10713  16.523   5.767  10.345 -0.2067 -0.1974  0.0871
 9850W        W10714  14.799  10.013   9.374  0.1398 -0.0644 -0.0949
 9851W        W10715  18.166   9.112   8.019 -0.1507  0.0575 -0.1261
 9852W        W10716  16.117   7.140  12.535 -0.0708  0.0142 -0.0612
 9853W        W10717  17.286  11.815   8.474  0.0346  0.0310 -0.0957
 9854W        W10718  16.033  10.932   9.898  0.0381  0.0760 -0.1797
 9855W        W10719  15.540   8.081   8.923 -0.2882  0.1647  0.1291
 9856W        W10720  16.196   8.497   9.052  0.1159  0.1590 -0.3088
 9857W        W10721  17.315   8.596   9.176 -0.0310 -0.1841  0.1711
 9858W        W10722  17.835   9.529  11.566 -0.0934 -0.1391 -0.2346
 9859W        W10723  15.874   6.916  11.109  0.1678  0.0537  0.0639
 9860W        W10724  15.598   7.224  13.729 -0.2396  0.1515  0.0705
 9861W        W10725  18.020   7.885  12.278 -0.1375 -0.1690 -0.1012
 9862W        W10726  16.479   7.487  12.378  0.0595  0.0356 -0.1747
 9863W        W10727  14.132   9.112  10.712  0.2163  0.0031 -0.1567
 9864W        W10728  16.084   7.012  11.552  0.0267 -0.1902  0.2301
 9865W        W10729  15.591   9.241   8.965 -0.3531 -0.0686 -0.1951
 9866W        W10730  19.246  10.222   8.985  0.1761  0.0622 -0.4851
 9867W        W10731  15.178   7.890   8.328 -0.1879 -0.1397 -0.1311
 9868W        W10732  17.255   8.182  10.070 -0.1114  0.1399 -0.3250
 9869W        W10733  15.826   9.489   9.426  0.0775 -0.1428 -0.2249
 9870W        W10734  17.970   7.747  10.744 -0.1829  0.0984  0.2432
 9871W        W10735  16.937   8.207   7.591  0.1244  0.1742  0.0993
 9872W        W10736  17.650   9.277   9.319 -0.0931  0.0418 -0.1996
 9873W        W10737  16.802   9.434   8.585 -0.2405 -0.0807 -0.0596
 9874W        W10738  16.079   8.410  12.541 -0.0539 -0.0718 -0.2033
 9875W        W10739  13.142   8.329  13.830  0.1175  0.4421 -0.0654
 9876W        W10740  13.779   9.067   6.979 -0.0131 -0.5367  0.1904
 9877W        W10741  15.544   8.092  13.731  0.0176 -0.1580  0.3343
 9878W        W10742  15.695   9.738   7.799  0.2610  0.1165 -0.1610
 9879W        W10743  17.629  12.261   6.355  0.1622 -0.0944 -0.1152
 9880W        W10744  17.401   8.765   6.427 -0.0655 -0.0474 -0.0563
 9881W        W10745  14.932  10.996   8.223 -0.0712  0.1241 -0.2291
 9882W        W10746  16.899   6.919   9.695  0.0949 -0.1526  0.1339
 9883W        W10747  17.102   9.470  12.809  0.3760 -0.0178  0.1217
 9884W        W10748  16.741   7.588   7.052 -0.0423  0.3659 -0.0114
 9885W        W10749  15.494   5.707   8.132  0.3438 -0.1507 -0.5265
 9886W        W10750  12.924   8.088  10.249 -0.3559  0.5017 -0.1774
 9887W        W10751  16.079  12.382   8.537 -0.2167  0.4706  0.0004
 9888W        W10752  14.545  13.947   8.303  0.0783  0.0375 -0.0604
 9889W        W10753  16.215  12.876   7.387 -0.1875  0.0757  0.1332
 9890W        W10754  15.867  12.227   9.797  0.1037  0.1836  0.2129
 9891W        W10755  17.105   3.723  13.451 -0.1574  0.3772  0.0698
 9892W        W10756  17.057   6.871  10.923 -0.0274  0.0273 -0.1614
 9893W        W10757  15.906   8.977   9.272  0.5551  0.0768  0.0021
 9894W        W10758  16.201   5.094   9.703 -0.0270  0.1988  0.1360
 9895W        W10759  14.316   6.902   9.693 -0.1401  0.0747 -0.2034
 9896W        W10760  13.318   7.773  10.952 -0.2837  0.1490  0.2639
 9897W        W10761  17.936   9.326  10.847 -0.1682 -0.2413  0.0251
 9898W        W10762  12.767   8.304   8.450 -0.1277 -0.2642  0.2545
 9899W        W10763  17.837   9.175   6.620  0.2378  0.0583  0.4063
 9900W        W10764  19.981   6.496   7.614  0.0328  0.1342  0.1290
 9901W        W10765  16.009   7.848  10.915  0.0479 -0.1377  0.0549
 9902W        W10766  14.856   7.736  10.421 -0.1190  0.1329  0.2926
 9903W        W10767  14.608   8.214   7.608 -0.1394  0.2076 -0.2568
 9904W        W10768  14.470  10.437  11.280 -0.4159 -0.0302  0.1580
 9905W        W10769  16.142   9.016  12.467  0.1182  0.3644  0.1701
 9906W        W10770  16.167   8.314   6.857  0.2853  0.1887 -0.3694
 9907W        W10771  14.259   8.913   8.355 -0.3370  0.1438  0.2701
 9908W        W10772  16.042  11.788  13.433  0.0404  0.1482 -0.1905
 9909W        W10773  13.394   8.218  12.109 -0.1615  0.2811 -0.0386
 9910W        W10774  17.928   9.659   9.240  0.0092  0.1906 -0.1164
 9911W        W10775  18.643   6.480  12.427 -0.0098 -0.1801 -0.0393
 9912W        W10776  17.599   9.931   6.245  0.1434  0.0601  0.1937
 9913W        W10777  20.229   8.945   8.238  0.1717 -0.1082 -0.1807
 9914W        W10778  16.999  11.382   9.979 -0.2292 -0.0664 -0.0162
 9915W        W10779  16.688   8.370   4.939  0.1095  0.1948  0.2386
 9916W        W10780  16.010   7.875  11.457 -0.0929 -0.1891 -0.1812
 9917W        W10781  14.791   9.623  12.257  0.1570 -0.2083 -0.0310
 9918W        W10782  18.893  10.054   8.536  0.2565  0.1786  0.3942
 9919W        W10783  18.507  10.645   7.920  0.0384 -0.0458 -0.0844
 9920W        W10784  16.812   9.071  10.007 -0.2412  0.2895  0.0254
 9921W        W10785  16.799   5.366  10.161 -0.1276 -0.0193  0.0718
 9922W        W10786  17.743   7.547   9.712 -0.0330 -0.1015  0.0190
 9923W        W10787  15.189   5.691  12.118 -0.1344  0.2090  0.1774
 9924W        W10788  12.673   8.564   9.994 -0.1354  0.2000 -0.0839
 9925W        W10789  17.886   8.528   8.013 -0.1560  0.1410  0.1316
 9926W        W10790  16.031   7.950   9.595  0.3123  0.1034 -0.1229
 9927W        W10791  15.573   9.148  10.711 -0.1880 -0.1101 -0.0367
 9928W        W10792  15.428   8.479  10.801 -0.2367  0.3418  0.2715
 9929W        W10793  16.752   4.731  12.390 -0.1268  0.2371  0.1897
 9930W        W10794  12.923   7.817   7.454  0.0312 -0.1701 -0.0636
 9931W        W10795  17.058   9.718   8.058  0.1477  0.1458  0.2001
 9932W        W10796  13.735   7.468  11.203 -0.1241 -0.1088  0.1678
 9933W        W10797  15.086  11.652   7.773  0.1503 -0.1501 -0.1663
 9934W        W10798  18.309  11.824  10.027  0.1102  0.1897 -0.0555
 9935W        W10799  15.759   8.350  11.699 -0.2139  0.0874  0.3051
 9936W        W10800  20.217  12.836   7.584  0.2577  0.0482 -0.2342
 9937W        W10801  19.358  10.188   8.431  0.2999  0.0186 -0.2619
 9938W        W10802  15.349   8.587   9.340 -0.1406  0.0900  0.2451
 9939W        W10803  14.451   9.953  10.655 -0.2420  0.2706 -0.1924
 9940W        W10804  14.383   8.682  10.771  0.3460 -0.0078  0.2596
 9941W        W10805  14.936   4.607   7.890 -0.1924 -0.0978  0.1792
 9942W        W10806  17.557  10.100  10.713  0.0479  0.0119  0.4531
 9943W        W10807  18.148  11.072   7.570  0.0322  0.1087  0.0370
 9944W        W10808  16.619   9.584   9.953  0.0586  0.0133 -0.2306
 9945W        W10809  15.793  12.076  12.572  0.0962 -0.2017  0.1339
 9946W        W10810  18.212  12.265   6.462  0.0121 -0.1628 -0.2330
 9947W        W10811  13.445   7.987   9.139 -0.0060  0.1703 -0.1807
 9948W        W10812  17.681  10.977   9.299  0.0470  0.0972 -0.0314
 9949W        W10813  16.654   9.800   9.486 -0.0730 -0.0118 -0.0536
 9950W        W10814  16.792  10.907   8.734  0.0779  0.1954 -0.0536
 9951W        W10815  18.228   6.953   9.384  0.2773  0.1353  0.0386
 9952W        W10816  15.259   7.128   5.832  0.2049  0.0354 -0.1499
 9953W        W10817  15.536  12.794   9.719 -0.0357 -0.0959  0.0668
 9954W        W10818  18.227   7.586   7.629 -0.1605 -0.2359 -0.1146
 9955W        W10819  18.067   6.097  11.633  0.0594 -0.0929 -0.3270
 9956W        W10820  14.738   9.746  10.113 -0.1671 -0.3895  0.2358
 9957W        W10821  18.245  10.072   9.577 -0.2679  0.0285 -0.2270
 9958W        W10822  15.734   8.132  10.600 -0.0365 -0.0474 -0.0678
 9959W        W10823  13.125   6.839  11.517  0.1123 -0.1198 -0.0270
 9960W        W10824  17.272  11.453  10.573  0.2629  0.2428 -0.0736
 9961W        W10825  13.446   8.374  11.077 -0.0923  0.0910  0.2085
 9962W        W10826  16.478   9.999   7.780  0.0349  0.3446  0.0844
 9963W        W10827  16.185  10.133   8.877  0.0339  0.1671 -0.0757
 9964W        W10828  14.683  10.201  10.293 -0.0389 -0.0780 -0.3557
 9965W        W10829  19.472   9.219   5.278  0.1489  0.0229 -0.4229
 9966W        W10830  15.676   7.766   9.877  0.1152  0.0811  0.5233
 9967W        W10831  16.757   8.448   8.307  0.2015  0.1103  0.1904
 9968W        W10832  16.518  10.761   7.295 -0.1133 -0.3182 -0.2888
 9969W        W10833  15.956   7.365  13.292 -0.0188 -0.1459  0.2235
 9970W        W10834  15.264   8.924  10.999 -0.0330  0.0028 -0.1451
 9971W        W10835  14.108   7.523  13.229 -0.1025  0.0365  0.1645
 9972W        W10836  17.245  15.116   9.091  0.2479  0.0265  0.0714
 9973W        W10837  16.105   6.030  10.493 -0.0380 -0.1416 -0.0387
 9974W        W10838  16.506   6.324  12.737  0.0245 -0.0725  0.2963
 9975W        W10839  16.391   7.469  10.791  0.1345 -0.2966 -0.3032
 9976W        W10840  14.868   8.466   9.469 -0.0530  0.1727 -0.0598
 9977W        W10841  15.167  10.986  10.349  0.0845 -0.0201  0.0436
 9978W        W10842  17.992  10.548  11.103  0.0479 -0.0012  0.0244
 9979W        W10843  13.165   7.323   7.199 -0.0001  0.1204 -0.1330
 9980W        W10844  15.875  10.624   7.948 -0.0295  0.0185  0.2538
 9981W        W10845  13.737  10.727  11.854  0.1474  0.0163 -0.0350
 9982W        W10846  18.344   8.255   6.020  0.2722  0.3010 -0.0070
 9983W        W10847  18.686   7.375  11.820 -0.1677 -0.2543 -0.0862
 9984W        W10848  15.737   9.597   5.113 -0.0600 -0.0353  0.0482
 9985W        W10849  13.722   7.660   9.273  0.1649 -0.0172  0.0162
 9986W        W10850  14.667   8.754   8.046  0.1576  0.0947 -0.2598
 9987W        W10851  15.995  10.502  10.375 -0.3330 -0.0849 -0.0764
 9988W        W10852  15.069   8.920   9.776 -0.2918  0.0717  0.2174
 9989W        W10853  17.938   8.770   8.920  0.0016  0.1065  0.0503
 9990W        W10854  17.580   8.462  11.144  0.1723  0.0391  0.1796
 9991W        W10855  14.821   7.285   7.934  0.0793  0.0423  0.0482
 9992W        W10856  14.461  11.455   8.940  0.0939 -0.2818 -0.0425
 9993W        W10857  16.626   8.230  10.254  0.1484 -0.0911  0.1243
 9994W        W10858  15.062   7.486  10.854 -0.1710  0.1704 -0.1105
 9995W        W10859  19.699  11.023   8.968 -0.0473  0.0092  0.3473
 9996W        W10860  16.368   7.964  10.611  0.1863 -0.1636 -0.1967
 9997W        W10861  15.680  10.111   8.742 -0.2117  0.0007  0.0329
 9998W        W10862  11.505   7.928   8.092  0.0852  0.2277  0.2565
 9999W        W10863  15.349   6.895  12.724 -0.3899 -0.0054  0.0647
10000W        W10864  15.320   9.615  12.416  0.0578  0.2020  0.0069
10001W        W10865  17.749  11.956   7.647  0.0330 -0.2152 -0.5855
10002W        W10866  17.445   9.721   7.616  0.1568 -0.0773 -0.0995
10003W        W10867  16.212   6.625   8.932  0.2216 -0.2605 -0.3012
10004W        W10868  18.642  12.397  11.124  0.0778 -0.1998 -0.0358
10005W        W10869  15.919   6.498   9.387  0.2355  0.0388  0.2403
10006W        W10870  15.932   8.295   8.585 -0.0904  0.0896  0.0954
10007W        W10871  15.113  11.708  11.999  0.3265  0.2816 -0.0500
10008W        W10872  14.572   6.653   9.255 -0.2145 -0.0474 -0.2064
10009W        W10873  14.443   8.220  10.910 -0.2440 -0.2653 -0.1996
10010W        W10874  15.793   7.753   7.571  0.2309 -0.1365  0.0879
10011W        W10875  16.960   7.433   9.754  0.0062 -0.2882  0.1132
10012W        W10876  16.504   8.984   9.156  0.2858 -0.3590 -0.1716
10013W        W10877  17.614   9.601   9.714  0.0670  0.0489 -0.4928
10014W        W10878  14.082   4.867   6.850 -0.1507 -0.2123  0.1552
10015W        W10879  17.345   8.421   8.280 -0.1501  0.1010 -0.1074
10016W        W10880  14.464  14.429  10.478  0.0654  0.3535 -0.0042
10017W        W10881  17.868  10.959  10.337  0.1616  0.0394  0.0376
10018W        W10882  13.738  13.566  10.979  0.0127  0.2794  0.0534
10019W        W10883  18.258  11.450   7.176  0.1399  0.1115  0.1653
10020W        W10884  14.163   9.554  10.982 -0.3909 -0.2682 -0.4047
10021W        W10885  17.196  11.213  11.860 -0.0114 -0.2477 -0.2782
10022W        W10886  15.917   9.056  10.338 -0.1208  0.0828 -0.1549
10023W        W10887  17.060  11.524   9.384  0.1596 -0.2928  0.0259
10024W        W10888  15.808   6.879   8.885  0.1494  0.1499 -0.1918
10025W        W10889  14.036   9.619   9.399 -0.1476  0.0919  0.2973
10026W        W10890  15.597   7.536   5.803  0.1210  0.1529  0.0700
10027W        W10891  15.731   8.419   7.166 -0.1711 -0.1894 -0.1591
10028W        W10892  16.987   6.608   8.673 -0.0984 -0.0494  0.0432
10029W        W10893  17.612   7.094   5.678 -0.1218 -0.1528  0.4334
10030W        W10894  18.516  10.792  10.365 -0.3520  0.0964  0.2685
10031W        W10895  16.230  10.372  13.381  0.0709  0.1696  0.2616
10032W        W10896  17.705   9.425  10.174  0.4247  0.0678 -0.0487
10033W        W10897  16.742  10.697  11.811 -0.0918 -0.1015  0.4207
10034W        W10898  17.348  11.373   6.609  0.2254  0.1776  0.1320
10035W        W10899  18.530   9.535  10.150 -0.1393 -0.0711  0.4304
10036W        W10900  16.429  11.136   8.973  0.1042 -0.3009 -0.3350
10037W        W10901  17.076   5.912   8.839 -0.2520 -0.3472  0.2631
10038W        W10902  15.099   9.152   7.163  0.3165 -0.4520  0.0502
10039W        W10903  16.685   8.066  11.683  0.0550  0.0231 -0.0162
10040W        W10904  15.781   5.788   7.593  0.0190  0.0336 -0.0096
10041W        W10905  15.144   9.344   6.240 -0.5652  0.1924  0.1038
10042W        W10906  16.846   7.709  10.890 -0.2665 -0.2081 -0.0640
10043W        W10907  14.556   9.505  11.322  0.0363  0.1815  0.0893
10044W        W10908  15.591   9.367   6.460 -0.0650  0.0988 -0.1336
10045W        W10909  15.175   8.353   8.750 -0.0018  0.2861  0.0657
10046W        W10910  15.523   6.856   9.703 -0.0988  0.4039 -0.2109
10047W        W10911  14.416   8.733   9.292 -0.2800  0.1255  0.0929
10048W        W10912  18.475   8.767   8.880 -0.0904 -0.6806 -0.1489
10049W        W10913  17.890   9.423   7.649  0.2843 -0.1252 -0.2029
10050W        W10914  18.416   9.534   8.399 -0.4323  0.1990 -0.2415
10051W        W10915  16.029  10.135   7.920  0.0372 -0.0824  0.0151
10052W        W10916  15.966  10.621   9.413  0.0719 -0.3985 -0.1896
10053W        W10917  16.251   8.690   8.294  0.3023 -0.0507  0.0187
10054W        W10918  14.814   9.037   9.275 -0.0653  0.1329 -0.2394
10055W        W10919  18.699   7.911   8.409 -0.2083 -0.2160 -0.0892
10056W        W10920  16.068   7.470  14.140  0.0258 -0.1149  0.0804
10057W        W10921  16.473   8.174   9.376  0.0981  0.1943 -0.0570
10058W        W10922  16.299   9.784   9.164  0.0613  0.0871  0.1209
10059W        W10923  16.514   8.695  12.342  0.3667  0.2548 -0.1446
10060W        W10924  17.194   9.481  11.881 -0.2593  0.1161 -0.0876
10061W        W10925  17.112  10.259   8.563 -0.0752 -0.1234  0.1140
10062W        W10926  15.048   9.351  10.856 -0.0261 -0.0141  0.0819
10063W        W10927  16.004  10.553  11.336 -0.3516  0.0085  0.0691
10064W        W10928  16.744   8.994  10.595 -0.1205 -0.0733  0.3463
10065W        W10929  16.789  12.273   9.897 -0.0725 -0.0654 -0.0499
10066W        W10930  15.204  10.018   8.458 -0.1623 -0.1196  0.0478
10067W        W10931  18.993   6.675   9.632 -0.0354  0.1590 -0.3142
10068W        W10932  13.388   8.121  10.627  0.0233 -0.0198  0.1214
10069W        W10933  16.308   7.259   7.734 -0.1808 -0.0149 -0.3666
10070W        W10934  17.430  10.372   7.641 -0.1327  0.0200  0.3502
10071W        W10935  15.666   8.794  12.621 -0.0525  0.1044  0.0130
10072W        W10936  17.843   6.240   8.283  0.1914  0.0823  0.1506
10073W        W10937  16.007   8.303  11.197  0.1915 -0.4106  0.2242
10074W        W10938  13.803   7.011  10.994 -0.0544  0.0669  0.1839
10075W        W10939  17.356  11.946  10.842  0.2466 -0.1334  0.1732
10076W        W10940  16.848   8.484   9.859 -0.0264 -0.2484 -0.2788
10077W        W10941  16.245   7.922  12.455 -0.0199  0.1186 -0.0290
10078W        W10942  16.585   7.166  11.142 -0.1424 -0.2161 -0.0037
10079W        W10943  17.380   9.145   9.726 -0.1317  0.2304 -0.3427
10080W        W10944  15.515   9.517   9.886 -0.1751  0.1156 -0.1227
10081W        W10945  16.398  11.376  11.914 -0.0549  0.3644  0.0837
10082W        W10946  17.527  12.178  11.772  0.0810  0.0124 -0.2066
10083W        W10947  17.784  10.176   9.393 -0.1425  0.3356 -0.1776
10084W        W10948  17.097  11.338  11.401 -0.1301  0.0614  0.0823
10085W        W10949  13.388   8.931   8.124 -0.0666  0.0905 -0.2498
10086W        W10950  14.192  10.419   8.635 -0.2379 -0.1031  0.0594
10087W        W10951  17.805  10.957   9.804  0.2375  0.1506  0.0716
10088W        W10952  14.212  11.153  16.082  0.4302 -0.1145  0.0299
10089W        W10953  15.750  10.133   9.377 -0.1687 -0.1763  0.1265
10090W        W10954  18.446   9.448  10.933 -0.0007  0.3310 -0.0471
10091W        W10955  16.560  10.492   7.782 -0.4438 -0.1384  0.0060
10092W        W10956  14.177   8.459   8.952 -0.2366 -0.1874  0.3081
10093W        W10957  14.458   8.393  12.937 -0.1608  0.0162  0.0588
10094W        W10958  17.148  11.044   8.028 -0.0807  0.1727  0.4978
10095W        W10959  15.617   8.639  10.275  0.0433 -0.3903 -0.3434
10096W        W10960  17.586   7.172   7.986  0.1517  0.1418 -0.2932
10097W        W10961  14.545   9.966   7.395  0.0703 -0.0850 -0.1323
10098W        W10962  13.448  13.397  17.109 -0.1690 -0.1321 -0.2332
10099W        W10963  15.535   9.403  13.836 -0.0129  0.0131 -0.1227
10100W        W10964  15.821   9.867  12.602 -0.1691  0.0302  0.0550
10101W        W10965  21.298  10.289  12.694 -0.0815 -0.0872 -0.0235
10102W        W10966  17.132  13.080  13.659  0.0570  0.3777 -0.1654
10103W        W10967  18.311  11.271  10.580 -0.1564  0.1865  0.1320
10104W        W10968  16.963   6.989  11.395 -0.1136  0.0588 -0.0470
10105W        W10969  14.594   9.254  12.682 -0.0278 -0.2616 -0.4909
10106W        W10970  15.431  10.995  12.254  0.2119 -0.3058 -0.0713
10107W        W10971  17.430   9.586  14.548 -0.0081  0.0229 -0.0166
10108W        W10972  14.989   6.838  11.622 -0.0103  0.0480 -0.3114
10109W        W10973  16.877   7.081  15.522  0.0751 -0.0522 -0.2139
10110W        W10974  17.001   8.627  13.401 -0.0029 -0.0592  0.0504
10111W        W10975  18.155   4.634  16.005  0.0888  0.0698  0.3968
10112W        W10976  15.843   7.719  16.223  0.1109 -0.2078  0.1028
10113W        W10977  14.697  11.899  16.577  0.2215  0.1398 -0.3267
10114W        W10978  16.209  11.028  12.820 -0.1969 -0.0981  0.0277
10115W        W10979  13.732   5.613  12.676 -0.0428 -0.4962 -0.0411
10116W        W10980  15.907   8.411  14.897 -0.0503 -0.3223 -0.1057
10117W        W10981  17.525   7.623  13.906  0.3657 -0.3246 -0.0903
10118W        W10982  16.872   7.835  14.040  0.2282  0.0315  0.2038
10119W        W10983  16.932   9.605  13.320 -0.1263 -0.2796  0.0121
10120W        W10984  16.405   9.659  13.379 -0.1852  0.3844 -0.0857
10121W        W10985  12.793  11.317  14.053 -0.3665  0.1830 -0.1549
10122W        W10986  14.781   8.086  13.145 -0.1458 -0.0545  0.2456
10123W        W10987  12.553  11.425  16.570 -0.3826 -0.0169 -0.0308
10124W        W10988  18.991   7.441  15.792 -0.0711  0.2270  0.2948
10125W        W10989  12.834   9.602  15.358 -0.0190  0.1903 -0.2060
10126W        W10990  17.043   8.861  14.895 -0.0354  0.2130  0.1559
10127W        W10991  14.180   9.041  13.519 -0.1947 -0.0268 -0.1137
10128W        W10992  17.186   9.892  13.613 -0.2437 -0.1581 -0.0286
10129W        W10993  18.710   7.607  15.411 -0.0812 -0.0143  0.0185
10130W        W10994  16.786  10.829  12.672  0.2394  0.0558  0.1809
10131W        W10995  18.942  10.589  14.061  0.0088  0.2889  0.1509
10132W        W10996  16.237   6.992  14.220  0.1622  0.2359  0.1945
10133W        W10997  17.370   6.255  15.335 -0.1060  0.0231  0.0323
10134W        W10998  13.919   7.032  12.215 -0.2343 -0.4690  0.2005
10135W        W10999  16.497   9.272  14.353 -0.2396  0.1319 -0.0469
10136W        W11000  19.411   7.303  16.033  0.1608  0.0380  0.2119
10137W        W11001  15.657   7.288  11.865  0.0167  0.1910 -0.0493
10138W        W11002  20.702   4.539  11.989 -0.0981 -0.3427 -0.0682
10139W        W11003  15.712   7.855  13.226  0.1420 -0.2730 -0.2597
10140W        W11004  16.183  10.906  16.452 -0.1603 -0.2905 -0.0157
10141W        W11005  19.888  10.424  11.212 -0.0169 -0.1350 -0.0722
10142W        W11006  16.027  11.470  12.690 -0.2341 -0.1022  0.0769
10143W        W11007  13.238  10.578  12.723 -0.1344  0.1641 -0.0062
10144W        W11008  17.529   7.195  14.322 -0.0737  0.0036 -0.0407
10145W        W11009  16.555   8.288  13.214 -0.0783  0.1416  0.0429
10146W        W11010  19.066   8.246  11.918  0.0596 -0.0961 -0.0425
10147W        W11011  16.784   7.895  13.499 -0.2913 -0.0015  0.4072
10148W        W11012  18.349   7.950  15.579  0.0427  0.0145  0.1093
10149W        W11013  15.793  10.267  13.583  0.0069  0.3125 -0.1193
10150W        W11014  18.194   7.659  16.812 -0.1520  0.1612  0.5129
10151W        W11015  18.783   8.526  12.513 -0.2861 -0.0742 -0.0270
10152W        W11016  19.310   9.137  12.389 -0.1179  0.2676  0.1426
10153W        W11017  15.943   9.077  14.074  0.3733 -0.2323  0.0989
10154W        W11018  12.746  10.040  13.067  0.2565 -0.0569 -0.1866
10155W        W11019  19.508   7.206  13.573  0.0824  0.1297 -0.0794
10156W        W11020  15.075   9.382  13.623  0.0198 -0.1791 -0.0719
10157W        W11021  16.320  11.026   9.468  0.2878  0.0846 -0.2082
10158W        W11022  17.052  10.259  11.887 -0.0776 -0.2000 -0.1072
10159W        W11023  15.303   8.843  13.062 -0.1547  0.2057 -0.1974
10160W        W11024  17.229  10.080  14.507  0.0565  0.1734  0.0240
10161W        W11025  14.860   8.271  13.629  0.3763 -0.0708  0.0502
10162W        W11026  13.979   6.853  14.547 -0.0229  0.2188  0.0357
10163W        W11027  18.004   5.822  10.836 -0.4161  0.2559  0.0550
10164W        W11028  13.332   8.985   8.673  0.4547 -0.2874 -0.1119
10165W        W11029  13.996   9.148  11.275  0.0932  0.5696  0.0241
10166W        W11030  15.488  10.928  13.598  0.1633 -0.4318 -0.2128
10167W        W11031  14.843  11.217  13.738 -0.0958 -0.2502 -0.1910
10168W        W11032  19.326  12.327  12.223  0.1468 -0.0827 -0.2711
10169W        W11033  15.215   9.439  11.689 -0.0140  0.0814 -0.2055
10170W        W11034  20.036   9.246  11.807 -0.0183  0.2521 -0.1005
10171W        W11035  16.312   5.431  16.592 -0.1407  0.3975 -0.0809
10172W        W11036  19.407  10.494   9.457 -0.0080  0.0581  0.1485
10173W        W11037  17.967   8.389  14.635 -0.2193  0.2457  0.0331
10174W        W11038  14.156   5.949  12.495 -0.0485 -0.2224 -0.0337
10175W        W11039  14.779  10.315  14.620 -0.0278  0.0848 -0.1622
10176W        W11040  17.862   7.610  14.403 -0.0243 -0.0276  0.0651
10177W        W11041  15.676   8.340  12.307 -0.1603 -0.0364 -0.3042
10178W        W11042  14.454   8.440  13.435 -0.0837  0.2253  0.0349
10179W        W11043  16.113  10.426  16.663 -0.3312  0.1834 -0.1613
10180W        W11044  13.336   7.537  12.769  0.3965 -0.2494  0.2468
10181W        W11045  16.920   6.847  11.889  0.0200  0.4085 -0.1387
10182W        W11046  14.999   7.554  13.268 -0.1008 -0.1584 -0.2594
10183W        W11047  14.781   7.188  11.272  0.1222 -0.1048  0.1275
10184W        W11048  19.836   9.183  16.258  0.0359  0.3188 -0.0456
10185W        W11049  14.966   5.655  14.446 -0.1316  0.1455 -0.1609
10186W        W11050  16.529   9.749  14.380 -0.0215  0.3901 -0.1566
10187W        W11051  19.615   6.335  14.018 -0.1236 -0.4417 -0.3985
10188W        W11052  18.502   6.488   9.574 -0.0431 -0.0661  0.0027
10189W        W11053  15.896  11.292  14.565  0.2003  0.1554  0.2629
10190W        W11054  13.552   8.888  13.612  0.0772 -0.1127  0.1455
10191W        W11055  16.834   7.429  11.616 -0.0406 -0.0334 -0.2386
10192W        W11056  14.446   7.887  13.496  0.4428  0.0837  0.1671
10193W        W11057  17.452  11.900  12.212 -0.0671 -0.0411 -0.2264
10194W        W11058  16.672   7.900  12.944  0.0700 -0.1239 -0.3139
10195W        W11059  13.043  12.052  16.132 -0.2247  0.2031  0.0466
10196W        W11060  15.941   5.050  10.779  0.0994 -0.0223 -0.1227
10197W        W11061  17.611   6.465  14.442 -0.1095  0.2434  0.0141
10198W        W11062  16.889   7.323  12.125 -0.1151 -0.0939 -0.1783
10199W        W11063  12.878   9.149  15.742 -0.0657  0.1173 -0.0493
10200W        W11064  17.514   9.147  11.709 -0.3423 -0.0605 -0.0684
10201W        W11065  18.476   9.911  15.959 -0.1680 -0.0071 -0.0320
10202W        W11066  16.723   7.341  15.106  0.0718  0.0618  0.1273
10203W        W11067  15.784   7.592  14.542 -0.1053  0.3220 -0.1227
10204W        W11068  17.323   7.633  12.323  0.0094  0.2642  0.0209
10205W        W11069  16.225   7.963  16.561  0.0478 -0.0161  0.1989
10206W        W11070  17.927   7.593  12.714 -0.1339  0.1211 -0.1389
10207W        W11071  14.296   7.963  14.956 -0.2457  0.1719  0.1293
10208W        W11072  14.544  11.588  13.954  0.1584 -0.1667  0.0709
10209W        W11073  18.841   8.512  13.114  0.1055 -0.3818 -0.0233
10210W        W11074  18.596   5.715  12.896 -0.5168  0.3043 -0.3158
10211W        W11075  14.366   9.763  12.631  0.0072  0.0408  0.2626
10212W        W11076  19.129   9.243  11.936 -0.3927  0.2303  0.0577
10213W        W11077  13.195  10.287  13.126 -0.2230  0.3023 -0.3669
10214W        W11078  19.124   8.008  13.407  0.0434  0.1174 -0.1002
10215W        W11079  18.356   9.947  14.566  0.1747  0.0802 -0.0069
10216W        W11080  17.540   8.121  14.678  0.0052  0.0383 -0.4365
10217W        W11081  14.507   8.871  13.114 -0.2942  0.0137  0.1427
10218W        W11082  16.147   8.084  12.896  0.4143  0.3343 -0.2992
10219W        W11083  17.333   9.089  12.251 -0.1169 -0.0188 -0.0357
10220W        W11084  17.700  12.692  12.013  0.0368 -0.0068  0.0936
10221W        W11085  18.797   9.543  11.455 -0.1802  0.0632 -0.0741
10222W        W11086  16.928   9.955  14.895  0.2025  0.0951  0.1552
10223W        W11087  16.085   9.165  13.450  0.1132 -0.1593  0.1541
10224W        W11088  13.628   8.154  12.536 -0.1307 -0.1014  0.2439
10225W        W11089  18.063  10.691  12.762  0.1782  0.0978 -0.0223
10226W        W11090  20.355  12.363  10.382 -0.0419 -0.0333 -0.1269
10227W        W11091  15.334   9.440  14.961 -0.2265  0.0359  0.2393
10228W        W11092  18.391  11.831  14.397  0.0584 -0.3116 -0.0540
10229W        W11093  18.501   7.359  15.016 -0.0690 -0.0406  0.1709
10230W        W11094  18.222  11.187  15.119 -0.2441  0.0405 -0.3212
10231W        W11095  19.669   7.847  10.827  0.0416  0.0585  0.0294
10232W        W11096  19.557   6.884  15.116  0.1656  0.0362  0.2824
10233W        W11097  14.861   8.834  12.794  0.0941  0.0357 -0.0394
10234W        W11098  18.093   8.929  13.005 -0.2089 -0.0296 -0.0457
10235W        W11099  16.240   9.480  14.824  0.0716 -0.3483 -0.0471
10236W        W11100  17.855  10.559  12.232  0.0360  0.2067  0.0804
10237W        W11101  16.090   9.496  13.760  0.1280  0.1732 -0.1511
10238W        W11102  16.009   5.479  11.609  0.2238 -0.2462  0.1608
10239W        W11103  17.920   6.879  14.210 -0.2152 -0.0465 -0.0496
10240W        W11104  16.473  11.469  12.506  0.0300  0.1047 -0.2180
10241W        W11105  14.528   8.539  14.461  0.0602 -0.1216  0.2148
10242W        W11106  15.617   8.733  16.501  0.1187  0.1003 -0.0241
10243W        W11107  16.389   5.584  15.756 -0.0517 -0.1796 -0.3060
10244W        W11108  18.625   7.308  12.837 -0.0612  0.2318  0.0777
10245W        W11109  18.216  11.533  11.018  0.0038 -0.2074 -0.0952
10246W        W11110  14.396  11.095  15.644 -0.1582 -0.0984 -0.2075
10247W        W11111  14.326  10.171  14.469 -0.1804 -0.2155  0.2826
10248W        W11112  17.765   9.314  13.101 -0.1779 -0.0194  0.1896
10249W        W11113  15.119   6.340  10.904  0.1705 -0.1165 -0.0587
10250W        W11114  15.381  10.680  14.071  0.2816 -0.1555  0.1537
10251W        W11115  14.259   6.423   9.886 -0.0025 -0.0059  0.0671
10252W        W11116  18.399   9.989  12.778  0.1515 -0.1492 -0.3397
10253W        W11117  18.762   7.704  13.235  0.0684 -0.1546  0.2681
10254W        W11118  14.880   9.748  13.255  0.2665  0.0751 -0.0447
10255W        W11119  13.428   5.235  12.110  0.1744 -0.0601 -0.1314
10256W        W11120  12.894   8.394  12.815  0.3798 -0.2384  0.2088
10257W        W11121  18.218  11.338  11.849 -0.1338  0.0332 -0.0095
10258W        W11122  17.523   7.882  15.178 -0.1641 -0.1692  0.0330
10259W        W11123  14.397   9.954  17.332 -0.1154  0.1771 -0.0667
10260W        W11124  19.873   8.512  13.467  0.0911  0.1827  0.1024
10261W        W11125  17.568   9.044  14.688  0.0236  0.2788  0.1111
10262W        W11126  16.672   8.142  14.750 -0.0933 -0.0300 -0.0108
10263W        W11127  17.744   5.583  13.883  0.0849 -0.0134 -0.0047
10264W        W11128  17.353   9.920  12.692  0.1099  0.2122  0.5825
10265W        W11129  16.212  11.084  15.113 -0.0247 -0.0134  0.0406
10266W        W11130  14.147   9.994  13.024  0.2050 -0.1098 -0.3991
10267W        W11131  17.388  10.586   9.257 -0.1062  0.2141 -0.0029
10268W        W11132  18.240   8.289  16.009 -0.0726  0.0730 -0.0474
10269W        W11133  14.215   9.078  14.013  0.0495 -0.0475  0.0302
10270W        W11134  17.823   8.605  13.737  0.0950 -0.1703 -0.1926
10271W        W11135  19.026  10.885  10.287 -0.0298  0.0464 -0.1772
10272W        W11136  17.905   5.978  12.638  0.1212  0.0772  0.1523
10273W        W11137  18.100   7.260  13.765 -0.3100 -0.0828  0.0883
10274W        W11138  15.880  11.955  15.984 -0.2860 -0.1712  0.1870
10275W        W11139  18.441   6.630  13.558 -0.2798 -0.1363 -0.0118
10276W        W11140  14.065  11.269  15.324  0.2682  0.2298  0.0121
10277W        W11141  17.024   8.660  15.366  0.2415  0.3788  0.0182
10278W        W11142  14.355  10.796  12.253 -0.0424  0.0032  0.0303
10279W        W11143  18.391   7.770  12.581 -0.0210 -0.2928  0.0358
10280W        W11144  17.672   8.856  13.344  0.1929 -0.0991  0.3425
10281W        W11145  17.575   6.343  13.512  0.6285 -0.2058  0.0156
10282W        W11146  16.630   8.472  10.752  0.0714  0.0589  0.1723
10283W        W11147  17.601   7.485  13.139  0.1453  0.1903 -0.0592
10284W        W11148  15.266   8.018  13.261  0.0070  0.0592  0.0245
10285W        W11149  17.021   8.104  15.431  0.0577  0.0306  0.2549
10286W        W11150  17.132  10.687  13.094 -0.1434 -0.2251  0.1313
10287W        W11151  16.993  10.504   8.937 -0.2127 -0.1998 -0.3416
10288W        W11152  17.536   7.974  11.000 -0.2117  0.1429  0.1404
10289W        W11153  15.513  10.255  12.543 -0.5883  0.1143  0.1203
10290W        W11154  13.169   8.756  15.763  0.1213 -0.1768  0.1726
10291W        W11155  17.986   8.390  15.203 -0.2232  0.0726  0.0326
10292W        W11156  14.598   8.317  15.061  0.2358 -0.1012 -0.2573
10293W        W11157  17.056   7.807  11.376 -0.1841  0.0203  0.2035
10294W        W11158  18.052   6.266  13.587  0.0925  0.2111 -0.0038
10295W        W11159  13.957   8.044  13.706 -0.1002 -0.1471  0.2204
10296W        W11160  15.239   8.422  16.035  0.2017  0.0952  0.0704
10297W        W11161  16.273   6.987  10.717 -0.1181  0.1174 -0.1794
10298W        W11162  16.630   5.122  11.907  0.0455 -0.0051 -0.2228
10299W        W11163  17.588   9.815  14.161  0.0627  0.0538 -0.1068
10300W        W11164  16.929   7.153  10.130 -0.3342 -0.5003 -0.1073
10301W        W11165  15.507   8.872  14.345  0.4370  0.2519  0.1296
10302W        W11166  13.752   6.653  15.022  0.1609  0.2887  0.4297
10303W        W11167  13.314   7.650  10.460 -0.0986  0.0465  0.1348
10304W        W11168  15.044   7.923  16.970 -0.0533 -0.0270  0.0506
10305W        W11169  16.208  10.911  14.122  0.0926 -0.0567 -0.2729
10306W        W11170  17.064   6.384  13.760  0.0063 -0.1530  0.0433
10307W        W11171  14.665   7.050  13.946  0.0811  0.1321 -0.0906
10308W        W11172  16.909  11.065  14.350 -0.2853 -0.0786 -0.2895
10309W        W11173  16.275  10.634  14.675 -0.0336 -0.0928  0.2284
10310W        W11174  19.064   9.026  11.406  0.0272  0.1540 -0.2176
10311W        W11175  18.504   8.616  13.600  0.0030 -0.0645 -0.0768
10312W        W11176  17.446  11.168  13.841 -0.0693  0.1672 -0.0290
10313W        W11177  19.627   8.443  11.732  0.0529  0.1998  0.3209
10314W        W11178  15.287  10.145  11.097 -0.1534 -0.3644  0.3113
10315W        W11179  17.340   9.850  12.152 -0.1010  0.2175 -0.0941
10316W        W11180  18.500   7.473  15.892  0.2612 -0.3053  0.2498
10317W        W11181  15.768  11.483  16.027 -0.0961  0.0672  0.1181
10318W        W11182  20.851   5.862  16.709 -0.0812 -0.1724 -0.1165
10319W        W11183  18.233   6.302  15.467 -0.0480  0.0335  0.0294
10320W        W11184  16.680  10.446  13.123  0.0681  0.0320 -0.0010
10321W        W11185  17.286   6.999  10.510  0.1870  0.1316  0.1856
10322W        W11186  15.849   9.319  11.543 -0.1357  0.3513  0.0785
10323W        W11187  13.492   7.695  16.631 -0.0324  0.2853 -0.0897
10324W        W11188  15.115   9.240  15.386  0.3461 -0.0522  0.1447
10325W        W11189  19.363   7.413  15.416  0.4175 -0.0168  0.1189
10326W        W11190  17.305   8.855  13.703 -0.0817  0.4902 -0.0217
10327W        W11191  20.173  10.039  13.708 -0.1573  0.1757  0.0035
10328W        W11192  15.041   7.404  13.913  0.2327  0.0136 -0.1578
10329W        W11193  16.827   9.110  17.664  0.0420 -0.1715 -0.0136
10330W        W11194  15.284   9.830  11.954  0.0345  0.1880  0.0019
10331W        W11195  15.138   8.572  11.422  0.1382  0.2463 -0.0011
10332W        W11196  15.308  11.029  15.166 -0.1272  0.1001  0.0384
10333W        W11197  15.857   8.983  13.019 -0.0499  0.1200 -0.2058
10334W        W11198  16.487   9.108  14.956  0.2879  0.1948 -0.2140
10335W        W11199  17.221   7.363  15.232  0.0538 -0.0247 -0.1781
10336W        W11200  18.448   9.116  11.341  0.1391  0.0597  0.1610
10337W        W11201  18.185   8.947  13.487  0.0254 -0.0378  0.3419
10338W        W11202  16.471   9.401  10.907  0.3431  0.2785 -0.0072
10339W        W11203  15.492   9.678  17.523 -0.4485 -0.1964 -0.3477
10340W        W11204  13.944   8.356  12.851  0.1335  0.0576 -0.0784
10341W        W11205  14.296   9.231  14.826 -0.2612  0.1686 -0.2600
10342W        W11206  14.413  10.604  14.775 -0.0526 -0.0246 -0.1189
10343W        W11207  14.401  10.152  13.954  0.0069  0.0584 -0.0037
10344W        W11208  17.652   9.646  13.600 -0.1919  0.0579  0.0266
10345W        W11209  17.178  11.754  16.921 -0.2376  0.1377  0.0550
10346W        W11210  16.581  11.049  12.277  0.0676  0.1673  0.0040
10347W        W11211  17.179   9.296   9.278 -0.2398  0.0614  0.1435
10348W        W11212  18.108  10.184  14.096  0.1081  0.1417 -0.1146
10349W        W11213  15.925  10.608  13.881 -0.0884 -0.0474 -0.4102
10350W        W11214  17.419   8.407  13.471 -0.1554 -0.1194 -0.0533
10351W        W11215  17.126   8.129  14.366  0.0872  0.4042 -0.1128
10352W        W11216  12.328   7.715  10.427  0.1801 -0.1494  0.2184
10353W        W11217  18.380  10.695  11.515 -0.1638 -0.2601  0.0828
10354W        W11218  17.467   5.610  14.741  0.1195  0.0369 -0.0886
10355W        W11219  16.445   7.431  15.572 -0.0470  0.1932  0.0060
10356W        W11220  16.688   8.554   8.996  0.2816 -0.0992 -0.0101
10357W        W11221  15.330   6.951  12.039 -0.0801 -0.0934  0.2408
10358W        W11222  13.794   7.854  10.857 -0.1620  0.0236  0.0096
10359W        W11223  18.295  10.445  15.705  0.0779 -0.0992  0.1784
10360W        W11224  16.029   9.505  14.384 -0.0904 -0.1264 -0.2622
10361W        W11225  17.327   7.797  13.460 -0.0145 -0.0548  0.0172
10362W        W11226  13.370  11.263  14.896 -0.1822  0.1188  0.3617
10363W        W11227  17.699   7.116  15.723 -0.2163 -0.1717  0.0356
10364W        W11228  16.280   9.848  12.526  0.1086 -0.1271  0.0506
10365W        W11229  18.896  11.150  10.746 -0.0657  0.2263 -0.1746
10366W        W11230  15.438   8.461  13.379 -0.1269  0.2774 -0.1183
10367W        W11231  18.612   8.934  13.186 -0.2048  0.1480 -0.1155
10368W        W11232  15.146   7.705  12.750 -0.2788  0.2268  0.1347
10369W        W11233  17.712   7.450  15.401 -0.0754 -0.2996  0.2437
10370W        W11234  18.270   5.479  14.105  0.1356  0.1741 -0.0550
10371W        W11235  13.688   8.670  14.625  0.0189 -0.3104  0.2663
10372W        W11236  18.145  10.342  13.139 -0.0816  0.2227 -0.2403
10373W        W11237  16.929   7.599  15.605 -0.0131 -0.2087 -0.1476
10374W        W11238  16.449  10.754  16.946  0.0334 -0.1240 -0.0553
10375W        W11239  14.458   6.783  16.185  0.1242  0.2193  0.0788
10376W        W11240  18.101   8.106  12.878  0.1233 -0.3440  0.0330
10377W        W11241  15.060  11.223  11.860  0.1183 -0.0070 -0.2381
10378W        W11242  16.325  12.273  14.530 -0.0277  0.2653  0.0735
10379W        W11243  15.655   6.536  13.125 -0.0358 -0.1873  0.2583
10380W        W11244  16.384   7.837  13.910 -0.0575  0.1154  0.2935
10381W        W11245  16.381  10.237  15.022  0.0417 -0.0403 -0.0065
10382W        W11246  18.546   9.947  11.058  0.2768 -0.1739  0.0149
10383W        W11247  21.222   7.216  17.259  0.0656  0.2736  0.0709
10384W        W11248  17.046  11.947  11.945 -0.2250  0.1116  0.0428
10385W        W11249  18.138  11.272  14.586  0.2565  0.1361 -0.1316
10386W        W11250  16.973   8.703  12.475 -0.0185 -0.0508  0.2318
10387W        W11251  16.286   7.035  13.214  0.2004  0.0707  0.0401
10388W        W11252  19.633   7.608  11.280  0.1922  0.0509 -0.0363
10389W        W11253  19.209   5.012   9.904 -0.1346 -0.2565  0.3329
10390W        W11254  17.067   8.378  14.923 -0.1728 -0.2344 -0.0496
10391W        W11255  16.315  10.904  13.355  0.2234 -0.3205  0.2445
10392W        W11256  14.538   8.672  13.990 -0.0806 -0.0393 -0.1805
10393W        W11257  15.547   9.007  15.328  0.0945 -0.1999 -0.2603
10394W        W11258  17.798   5.823  14.372 -0.0547  0.2443  0.3109
10395W        W11259  16.149  10.028  14.620  0.1646 -0.2254  0.1790
10396W        W11260  19.219   9.434  12.822 -0.1996  0.1628 -0.2992
10397W        W11261  13.096   7.943  12.973  0.0731 -0.0806 -0.1897
10398W        W11262  16.259   8.400  11.619 -0.0628  0.3277  0.2606
10399W        W11263  14.490   7.725  14.028  0.0282  0.1143 -0.0028
10400W        W11264  18.495  10.969  14.327 -0.3894  0.1106 -0.0676
10401W        W11265  19.288  11.361  10.121  0.0328  0.0898 -0.3249
10402W        W11266  15.950   8.285  13.342 -0.0089  0.0818 -0.3311
10403W        W11267  17.837  11.181  13.297  0.0678  0.1353 -0.1241
10404W        W11268  19.944   7.210  16.109 -0.0645  0.1395  0.0815
10405W        W11269  16.275   6.833  14.828  0.0526 -0.3048 -0.1133
10406W        W11270  16.576   6.082  13.244  0.0981  0.0029  0.0686
10407W        W11271  14.092  10.512  14.066 -0.0553  0.0335 -0.0509
10408W        W11272  16.994   4.544   9.682  0.0588 -0.2789 -0.0202
10409W        W11273  16.686   9.130  12.603  0.2178  0.1975  0.4313
10410W        W11274  16.684   6.982  13.543  0.1602 -0.3767  0.0032
10411W        W11275  19.609  10.320  14.569 -0.4215 -0.1644 -0.1216
10412W        W11276  15.814   9.638  13.189  0.0579 -0.0520  0.3053
10413W        W11277  17.768   9.085  16.346 -0.2667 -0.2169  0.1283
10414W        W11278  15.557   8.071  11.138  0.0213  0.1708  0.2095
10415W        W11279  17.188   6.955  12.432 -0.1863  0.2720  0.0284
10416W        W11280  16.475   8.990  15.933 -0.1126 -0.0459  0.0353
10417W        W11281  17.656   7.015  15.215  0.0783 -0.0177 -0.0605
10418W        W11282  17.243   8.356  15.836  0.0830 -0.2795  0.0924
10419W        W11283  15.124  12.223  13.728  0.3535  0.1738  0.1564
10420W        W11284  15.252  10.969  15.884  0.0921  0.1360  0.1067
10421W        W11285  19.826   7.055  14.666  0.1251 -0.4219  0.2224
10422W        W11286  17.052   6.661  13.334 -0.1756  0.0569  0.0258
10423W        W11287  16.104  12.510  16.035 -0.2227 -0.2357  0.2137
10424W        W11288  15.389   7.646  13.611 -0.0910 -0.0164  0.2825
10425W        W11289  16.137   8.261  13.922 -0.1883 -0.1760 -0.1305
10426W        W11290  14.747   8.499  12.260 -0.2216  0.0005  0.0139
10427W        W11291  16.917  10.107  10.152  0.1075 -0.1258 -0.1458
10428W        W11292  15.787   7.034  12.925 -0.1244  0.0143  0.1229
10429W        W11293  16.029   6.137  12.354  0.0363  0.1460  0.1678
10430W        W11294  19.409   8.132  15.449  0.0316 -0.0520  0.0860
10431W        W11295  16.704   9.617  15.232  0.0112  0.0899 -0.1572
10432W        W11296  20.783   8.062  11.837 -0.3887 -0.0516  0.0836
10433W        W11297  17.156  12.724  14.389 -0.0463 -0.0796  0.1404
10434W        W11298  17.611  10.390  14.265  0.2190 -0.3642 -0.2745
10435W        W11299  18.324  10.318  11.921 -0.0648 -0.1938 -0.1423
10436W        W11300  16.168   5.673   9.563 -0.0385 -0.1425 -0.0765
10437W        W11301  17.874   6.501  12.751 -0.0206 -0.4220  0.0788
10438W        W11302  16.609  10.669  14.316 -0.1032  0.0653 -0.2109
10439W        W11303  15.395   6.400  14.900  0.1187  0.1239 -0.1472
10440W        W11304  18.833   7.433  12.323 -0.1817  0.2788  0.2170
10441W        W11305  15.062   8.903  11.831 -0.0677  0.0137 -0.0544
10442W        W11306  15.826   9.102  11.969  0.3440 -0.0056 -0.3564
10443W        W11307  17.128  11.387  18.376 -0.1803  0.1801  0.1076
10444W        W11308  15.302  11.138  14.128 -0.1540 -0.3429  0.0925
10445W        W11309  11.095   8.852  14.639  0.1766  0.1256 -0.1888
10446W        W11310  16.423   9.158  13.850  0.0173  0.1017 -0.0408
10447W        W11311  18.222   5.925  12.210 -0.0233 -0.0017  0.2144
10448W        W11312  20.156   6.070  15.588  0.1169  0.0761  0.1133
10449W        W11313  19.423   7.378  10.717  0.0390 -0.2900  0.4959
10450W        W11314  19.657   8.733  12.469  0.2262  0.0509  0.0195
10451W        W11315  18.711   8.394  14.079  0.0978  0.1066 -0.2798
10452W        W11316  16.333  10.342  11.733 -0.0477  0.0701 -0.0850
10453W        W11317  18.830   6.987  11.473  0.1373  0.0919  0.0541
10454W        W11318  15.680   8.616  17.322 -0.2876  0.3567  0.0736
10455W        W11319  15.237   9.678  16.607 -0.1706  0.3396 -0.1191
10456W        W11320  18.719   7.402  13.945  0.1972  0.1934  0.0984
10457W        W11321  18.515   8.265  11.916 -0.0742  0.2143 -0.1772
10458W        W11322  17.162  10.403  13.510  0.0277 -0.0810 -0.0448
10459W        W11323  18.135  10.024  13.587  0.1414  0.0507 -0.0130
10460W        W11324  18.387   8.229  12.407 -0.0083  0.0644 -0.0237
10461W        W11325  19.943   7.420  10.938 -0.2903  0.0933  0.3485
10462W        W11326  13.842  11.798  13.069  0.0140  0.0450 -0.1106
10463W        W11327  18.861   9.735  15.695  0.0945  0.0588  0.0981
10464W        W11328  16.668  11.509  14.265  0.0377  0.4316 -0.0675
10465W        W11329  16.173  11.054  11.264  0.0911  0.0547 -0.2814
10466W        W11330  16.015   8.737  13.717  0.0982 -0.1936  0.1603
10467W        W11331  18.956   9.371  13.899  0.0293  0.2874 -0.0931
10468W        W11332  14.860   9.286  13.130  0.0289 -0.1008 -0.0865
10469W        W11333  18.685   9.783  12.428 -0.0266 -0.0107 -0.0025
10470W        W11334  16.823   8.638  12.979 -0.0769  0.3120 -0.2040
10471W        W11335  17.357  11.781  15.016 -0.0199  0.1128 -0.0575
10472W        W11336  15.501   9.889  11.495 -0.2749 -0.1685 -0.0803
10473W        W11337  18.450   8.620  14.494 -0.0073  0.0475 -0.3246
10474W        W11338  14.927  10.715  13.735  0.2057 -0.2051 -0.3229
10475W        W11339  20.755  12.485  14.175 -0.2462  0.2286 -0.3079
10476W        W11340  16.229   6.774  13.680  0.3967 -0.1109 -0.1182
10477W        W11341  15.240   9.372  17.825  0.2174  0.1142  0.1774
10478W        W11342  15.039   8.642  14.300 -0.0678  0.0668 -0.1728
10479W        W11343  16.341   8.994  11.973  0.1583 -0.3564  0.1907
10480W        W11344  14.678   9.033  13.570  0.0455  0.2601  0.2691
10481W        W11345  17.152  10.916  14.813  0.0677  0.1539  0.0754
10482W        W11346  19.176  10.283  11.709 -0.5815  0.1959 -0.2211
10483W        W11347  18.044  10.641  14.355 -0.4459 -0.2159 -0.0505
10484W        W11348  15.421   9.861  13.397  0.0758  0.0080 -0.3336
10485W        W11349  18.675  11.585  10.790  0.0647 -0.3328 -0.0235
10486W        W11350  15.584  11.062  10.662  0.1814  0.1394 -0.1161
10487W        W11351  18.810   9.499  13.330 -0.2210  0.1946 -0.3592
10488W        W11352  15.161   9.466  17.115 -0.0049  0.0696  0.0597
10489W        W11353  12.796  10.747  15.420  0.2773 -0.1910  0.0480
10490W        W11354  18.495  14.231  12.763  0.2760  0.2034 -0.1392
10491W        W11355  16.501   7.503  13.345  0.0432 -0.2482  0.1672
10492W        W11356  15.718  11.374  16.919 -0.2321  0.4316 -0.0701
10493W        W11357  17.623  10.679  13.241  0.0883  0.1670  0.1008
10494W        W11358  19.219   8.146  12.854 -0.0995  0.1184 -0.0539
10495W        W11359  18.157   7.770  16.258  0.0383  0.0423 -0.1350
10496W        W11360  17.188   8.297  12.680 -0.1774 -0.0678  0.2930
10497W        W11361  14.551   5.978  12.758  0.0512  0.1129 -0.1740
10498W        W11362  16.348  11.003  19.711 -0.1767  0.1767  0.2147
10499W        W11363  15.992  10.126  18.188  0.2470 -0.1663 -0.0922
10500W        W11364  17.202   8.587  14.505  0.1418  0.0063  0.1807
10501W        W11365  18.816  10.501  17.004  0.0455  0.1753 -0.0185
10502W        W11366  16.311  10.697  15.636 -0.7515 -0.0865 -0.1104
10503W        W11367  15.314   9.117  16.269  0.0739  0.3833 -0.0656
10504W        W11368  16.602   7.665  16.394  0.0721 -0.0463 -0.1522
10505W        W11369  18.654   8.772  16.552  0.0921  0.1258 -0.0211
10506W        W11370  17.359  11.867  19.477 -0.2104 -0.1092  0.1775
10507W        W11371  13.446  10.266  19.391 -0.1514 -0.0083  0.1367
10508W        W11372  15.430   7.247  13.245 -0.0131  0.0776  0.1873
10509W        W11373  17.344   4.637  14.208 -0.3710  0.1124  0.1527
10510W        W11374  18.756   9.246  17.984  0.2496 -0.1220 -0.1440
10511W        W11375  19.645   6.442  19.872  0.1935 -0.0028  0.0920
10512W        W11376  16.194   8.266  17.679 -0.0288 -0.0192 -0.2557
10513W        W11377  14.493   9.883  19.709 -0.0813  0.1441  0.1177
10514W        W11378  16.088  11.402  17.299 -0.4685 -0.0334 -0.2149
10515W        W11379  12.987   6.036  17.986  0.1256 -0.0894  0.1421
10516W        W11380  14.523   6.283  17.843 -0.1822  0.1934  0.2227
10517W        W11381  17.239   8.169  17.754  0.0608  0.0078 -0.0417
10518W        W11382  21.487  10.072  16.471  0.0903  0.0243  0.0614
10519W        W11383  16.027   8.974  16.223  0.1729 -0.2626 -0.1147
10520W        W11384  17.940   9.467  18.275  0.1027 -0.1226  0.0263
10521W        W11385  15.092   6.481  17.828  0.1298 -0.1077 -0.0993
10522W        W11386  13.525   8.803  16.538  0.3955 -0.0287 -0.2825
10523W        W11387  14.039   8.751  17.278  0.2502 -0.2465 -0.2324
10524W        W11388  19.390   8.828  18.578 -0.1027  0.3004 -0.3373
10525W        W11389  14.912  10.391  16.599  0.2511 -0.0153 -0.1831
10526W        W11390  19.146  11.980  15.437  0.1061 -0.2091  0.0223
10527W        W11391  16.759  10.447  15.750 -0.3327  0.0410  0.1317
10528W        W11392  16.986   9.948  17.217  0.0828  0.0183 -0.0052
10529W        W11393  17.912   8.490  21.731  0.0450 -0.3098  0.2498
10530W        W11394  15.347   7.967  19.164 -0.0067 -0.1752 -0.3191
10531W        W11395  15.174   9.287  19.305  0.0772  0.1497  0.1917
10532W        W11396  14.655   7.239  19.155 -0.0604  0.0526 -0.1792
10533W        W11397  14.037   8.007  21.592  0.1598 -0.1773 -0.1847
10534W        W11398  14.940   7.907  17.853 -0.1100 -0.1896  0.0548
10535W        W11399  18.098   8.106  18.670 -0.0184  0.1428  0.4148
10536W        W11400  17.814   9.436  19.691  0.0058  0.1732 -0.0045
10537W        W11401  18.207   9.006  18.193 -0.1287 -0.1702 -0.0374
10538W        W11402  17.141   7.936  16.500  0.3802  0.1079 -0.0521
10539W        W11403  16.537  10.753  16.083  0.0950 -0.3948  0.1354
10540W        W11404  16.778  11.513  19.099 -0.2407  0.1735 -0.1944
10541W        W11405  17.710   9.727  15.397  0.0190  0.1447 -0.2537
10542W        W11406  11.605  11.116  15.550 -0.3228  0.1343  0.1753
10543W        W11407  15.760  11.751  16.420  0.0104 -0.0742 -0.0603
10544W        W11408  14.537   8.083  18.623 -0.2655 -0.1128 -0.1215
10545W        W11409  20.081   8.918  17.968  0.0817  0.0635 -0.0643
10546W        W11410  17.259   7.251  15.826  0.0186  0.1282 -0.1166
10547W        W11411  19.144   8.571  18.971 -0.2168  0.0474  0.2521
10548W        W11412  15.883   8.667  15.457  0.0374  0.1211  0.3554
10549W        W11413  12.503   8.596  20.515  0.0264 -0.0299 -0.0531
10550W        W11414  15.716   9.834  18.853  0.1544 -0.0743 -0.0293
10551W        W11415  15.800  10.344  14.897  0.2525  0.1766  0.4336
10552W        W11416  16.681   7.057  17.327  0.0727 -0.0216 -0.0821
10553W        W11417  15.357  10.941  16.460  0.0460  0.0366 -0.1244
10554W        W11418  12.544   9.426  16.610 -0.1919 -0.0068  0.3396
10555W        W11419  17.506   6.657  16.618 -0.2194  0.1525  0.1334
10556W        W11420  11.640   8.747  18.284  0.2333  0.1741 -0.1160
10557W        W11421  18.526   8.591  15.033  0.0904 -0.1543 -0.0559
10558W        W11422  18.750   8.926  14.212 -0.1969 -0.3178 -0.0208
10559W        W11423  15.627   8.820  15.979  0.1384  0.2865  0.1720
10560W        W11424  17.418  10.685  17.070 -0.1924 -0.0748  0.1389
10561W        W11425  12.788   8.604  15.504 -0.1824  0.2566  0.0349
10562W        W11426  17.268  10.611  15.681  0.0491  0.1477  0.1661
10563W        W11427  21.008   7.984  16.202  0.3169  0.2116  0.0420
10564W        W11428  15.861  11.130  15.561  0.1070  0.1696 -0.1567
10565W        W11429  15.887   6.867  16.703 -0.3618 -0.0814  0.1479
10566W        W11430  14.659  10.273  15.853  0.1959 -0.0734  0.0080
10567W        W11431  15.766  10.479  15.769 -0.1934 -0.0951  0.2047
10568W        W11432  15.919   9.134  19.025 -0.6347 -0.2218  0.2562
10569W        W11433  20.166   6.958  17.120  0.0397 -0.0472 -0.2957
10570W        W11434  17.982  10.682  15.156  0.2528  0.0602  0.2071
10571W        W11435  16.224   8.878  18.680 -0.2789 -0.3562 -0.1263
10572W        W11436  17.253   9.040  18.096 -0.1768  0.0847 -0.1345
10573W        W11437  16.877  11.132  18.708 -0.0255 -0.0648  0.0129
10574W        W11438  16.788   7.733  17.923 -0.0752  0.0021  0.4223
10575W        W11439  14.015  10.550  19.399  0.3138 -0.1078 -0.0889
10576W        W11440  17.071   7.337  14.154  0.1881  0.0770  0.0483
10577W        W11441  16.075   9.635  17.474 -0.1031 -0.1299  0.4099
10578W        W11442  14.222   8.136  19.749  0.0359 -0.2115  0.0464
10579W        W11443  15.038   8.265  19.519  0.3367  0.3586 -0.2164
10580W        W11444  17.322   9.167  16.012  0.0322  0.0988  0.2206
10581W        W11445  17.595   9.821  16.815 -0.0249 -0.4603 -0.0698
10582W        W11446  17.390   6.187  16.427  0.1363 -0.2143  0.0689
10583W        W11447  17.749   5.741  17.478 -0.0999  0.0679 -0.0666
10584W        W11448  17.640   9.684  17.820  0.0806  0.0131  0.4254
10585W        W11449  17.137   8.407  18.846 -0.4816 -0.0422 -0.0309
10586W        W11450  18.681   8.351  17.413 -0.0741 -0.1176  0.0691
10587W        W11451  18.318   8.535  18.380  0.1092 -0.0753 -0.0904
10588W        W11452  19.682   7.637  16.387 -0.0607 -0.0744 -0.2298
10589W        W11453  16.630   9.090  19.715  0.0016  0.0356 -0.1928
10590W        W11454  11.023   8.636  19.921  0.0772  0.2826 -0.2526
10591W        W11455  15.542   9.289  16.651 -0.2097  0.1218  0.1224
10592W        W11456  16.042   5.115  18.757 -0.1213  0.0491  0.2061
10593W        W11457  18.150   7.201  15.528 -0.0075  0.2189 -0.1000
10594W        W11458  19.595   9.352  14.519 -0.1989 -0.1970  0.0021
10595W        W11459  14.636  12.095  16.137 -0.0697 -0.1988  0.0297
10596W        W11460  15.003   6.095  15.037  0.1680 -0.0265  0.3867
10597W        W11461  16.551   5.897  18.198  0.2107  0.0965  0.0465
10598W        W11462  22.264  12.158  14.652 -0.3649 -0.2642 -0.0074
10599W        W11463  15.468   7.518  15.011  0.2332 -0.1229 -0.0485
10600W        W11464  15.794   9.844  14.946  0.1645 -0.1990  0.1182
10601W        W11465  18.700   9.780  17.906 -0.0339 -0.0879  0.0199
10602W        W11466  19.820   8.058  17.462  0.2190  0.1266 -0.1301
10603W        W11467  17.073   8.086  17.277 -0.2335 -0.3622 -0.0511
10604W        W11468  17.567   8.524  12.906  0.1223  0.1204 -0.1270
10605W        W11469  16.399   9.160  19.156 -0.3129  0.2198 -0.0383
10606W        W11470  16.582   6.323  18.421 -0.0705  0.0205  0.0508
10607W        W11471  16.566   8.347  16.608 -0.1093 -0.1477 -0.0640
10608W        W11472  16.673   9.215  16.841  0.0945 -0.1167  0.0129
10609W        W11473  15.847  12.700  16.961 -0.2037 -0.0384  0.0672
10610W        W11474  18.232   7.610  18.462  0.1155 -0.0523  0.0952
10611W        W11475  16.479  10.332  18.534 -0.2164  0.2977 -0.2517
10612W        W11476  17.364  11.959  14.560 -0.0792  0.0597 -0.3463
10613W        W11477  17.692   9.282  16.852  0.2337 -0.1224  0.0462
10614W        W11478  17.805   6.747  18.613 -0.2323  0.0288  0.0995
10615W        W11479  16.236   8.109  16.099  0.0626 -0.0226  0.2949
10616W        W11480  16.226   6.301  18.949  0.1927 -0.1263  0.0266
10617W        W11481  20.395   7.597  16.979 -0.3634  0.0123  0.2835
10618W        W11482  15.576   9.027  14.813 -0.2262 -0.0554 -0.0099
10619W        W11483  19.960  12.323  16.634 -0.4478  0.2041 -0.1700
10620W        W11484  18.556   9.167  16.997  0.0148  0.0037  0.1147
10621W        W11485  20.016   7.481  17.242  0.1658  0.0822 -0.1089
10622W        W11486  16.333   9.380  15.523  0.1274  0.4082  0.1646
10623W        W11487  18.675   8.145  17.911 -0.0522 -0.0284 -0.6366
10624W        W11488  12.971  10.488  17.012  0.2321 -0.1628  0.4062
10625W        W11489  18.342   9.049  18.723  0.1893  0.2681  0.0170
10626W        W11490  17.341   9.670  15.875 -0.1452 -0.0558 -0.2176
10627W        W11491  16.196  12.313  17.061 -0.3058 -0.1421  0.1485
10628W        W11492  18.968  10.194  18.207  0.0963 -0.0143 -0.1253
10629W        W11493  14.235   7.512  18.728  0.3547 -0.1695 -0.1856
10630W        W11494  16.227   9.264  17.054  0.0261 -0.3005 -0.2956
10631W        W11495  17.996   7.254  14.888  0.2305  0.1825 -0.0555
10632W        W11496  19.470   8.728  17.953  0.1136 -0.1062  0.1613
10633W        W11497  14.468   3.587  17.208 -0.0582 -0.3697 -0.0956
10634W        W11498  20.802   8.272  16.551  0.0382 -0.2074 -0.0866
10635W        W11499  19.628   7.970  18.034  0.1277 -0.4723 -0.1317
10636W        W11500  16.281  10.577  17.979  0.0026 -0.0553 -0.2186
10637W        W11501  14.086  10.308  17.241  0.2284  0.0164 -0.0094
10638W        W11502  16.017   6.935  16.127  0.1598 -0.3964 -0.3972
10639W        W11503  17.207   6.937  18.056  0.1144  0.1828  0.0762
10640W        W11504  18.127   9.554  16.877 -0.0131  0.1648 -0.2760
10641W        W11505  17.516   7.598  16.074 -0.0469 -0.0142 -0.3000
10642W        W11506  18.594   9.871  18.386  0.0062 -0.0703 -0.1785
10643W        W11507  17.587  10.359  16.685 -0.3890 -0.1612  0.0418
10644W        W11508  16.213   6.068  13.656  0.0597  0.1415 -0.0946
10645W        W11509  16.231  10.357  16.102 -0.0471 -0.0917  0.0096
10646W        W11510  16.784  10.904  17.946  0.3639 -0.1876  0.0891
10647W        W11511  16.092   8.589  15.934 -0.0201  0.1807  0.5078
10648W        W11512  19.079  11.863  18.131  0.1487 -0.3059 -0.3183
10649W        W11513  14.309   8.117  15.468  0.0825  0.0314 -0.0154
10650W        W11514  17.664   8.942  18.307  0.0840 -0.1265 -0.1837
10651W        W11515  15.790  10.790  14.376 -0.0561 -0.1504 -0.1446
10652W        W11516  15.707   8.701  18.182  0.2334  0.0618  0.2598
10653W        W11517  17.577   7.136  16.242  0.0790  0.0250 -0.0064
10654W        W11518  14.365   8.443  18.271 -0.2299  0.2629 -0.0986
10655W        W11519  17.641   9.293  19.170  0.1309  0.0587  0.1565
10656W        W11520  14.300   8.191  15.979 -0.1749 -0.0933 -0.1511
10657W        W11521  16.644   6.410  16.798 -0.1960  0.2590 -0.2272
10658W        W11522  16.334   6.745  16.502 -0.0634  0.2882  0.0271
10659W        W11523  16.420  11.811  18.053 -0.1945  0.2054 -0.5494
10660W        W11524  18.452   9.366  18.376 -0.4640  0.3149  0.0123
10661W        W11525  18.574   7.776  20.002 -0.0316  0.0607 -0.0618
10662W        W11526  18.693   8.924  18.366  0.0213  0.0375  0.1594
10663W        W11527  17.281  10.120  17.683 -0.0472  0.0173 -0.2907
10664W        W11528  12.446   7.481  17.167  0.0025 -0.2487  0.1043
10665W        W11529  15.278  11.160  16.884 -0.1711  0.1909  0.1896
10666W        W11530  17.912   8.995  20.664  0.1133  0.0655  0.2859
10667W        W11531  17.746  10.669  15.667  0.0071  0.1671  0.1494
10668W        W11532  17.114   9.533  17.819 -0.0926 -0.0645  0.0598
10669W        W11533  16.654   7.366  16.948 -0.0749  0.1558  0.0238
10670W        W11534  17.466   9.616  17.290  0.0211 -0.5345  0.0422
10671W        W11535  16.806  11.898  17.396 -0.0625 -0.0540 -0.1019
10672W        W11536  15.902   6.388  16.320  0.0541 -0.1536  0.1358
10673W        W11537  17.433   9.305  15.576 -0.2952 -0.0971  0.0223
10674W        W11538  11.607  11.799  19.647 -0.3086 -0.0452 -0.1723
10675W        W11539  14.977  10.309  15.487  0.5557 -0.1604  0.0464
10676W        W11540  14.450  10.558  15.360 -0.0208  0.0572  0.2703
10677W        W11541  16.094   6.699  18.638 -0.4194  0.1810 -0.1704
10678W        W11542  14.927  12.319  15.801  0.3374 -0.1472 -0.0934
10679W        W11543  17.779  10.247  15.367 -0.3162 -0.2801 -0.1308
10680W        W11544  17.459  11.760  13.975  0.1551 -0.1322  0.0233
10681W        W11545  16.566   7.817  15.887  0.1138 -0.2064 -0.0169
10682W        W11546  18.275   7.680  13.072  0.1846  0.2684  0.3195
10683W        W11547  15.213   9.986  17.168 -0.1260  0.0200 -0.1009
10684W        W11548  18.069   6.718  13.205 -0.0772 -0.0359  0.1037
10685W        W11549  16.240   7.432  16.053 -0.1268  0.0241  0.0176
10686W        W11550  21.127   9.358  15.909  0.0409 -0.2763  0.0386
10687W        W11551  14.189  10.125  19.232  0.0379  0.2978  0.0175
10688W        W11552  14.020   9.050  15.740  0.0708  0.2533  0.2054
10689W        W11553  14.442   8.765  16.552 -0.0415 -0.2414 -0.0409
10690W        W11554  16.555   9.492  18.131  0.1947 -0.1625  0.0082
10691W        W11555  17.642   7.551  18.453 -0.1526  0.1158  0.0084
10692W        W11556  17.127   7.548  18.644 -0.1552  0.0798  0.2090
10693W        W11557  14.732   7.632  18.841  0.3809 -0.2022  0.1274
10694W        W11558  13.587   8.076  17.033 -0.0081 -0.2233 -0.1368
10695W        W11559  15.365  10.780  17.797  0.2072 -0.0236  0.0301
10696W        W11560  14.607   7.093  16.501  0.0069 -0.2112  0.2619
10697W        W11561  16.645   5.993  15.438 -0.1064  0.1732  0.1661
10698W        W11562  14.656   9.129  18.675  0.2366 -0.4187  0.0063
10699W        W11563  19.322   6.021  17.260  0.1017  0.1221  0.0140
10700W        W11564  18.872   7.321  16.264 -0.1778 -0.1845  0.0789
10701W        W11565  15.330   7.916  16.062 -0.4009 -0.2880 -0.0650
10702W        W11566  15.153  10.058  17.672  0.1721  0.0548 -0.0320
10703W        W11567  15.660   9.210  18.001 -0.0141  0.1685  0.0582
10704W        W11568  15.446  10.407  17.401  0.2200  0.1089  0.1111
10705W        W11569  17.709   8.626  16.174  0.0390  0.1885  0.1962
10706W        W11570  17.529  10.667  13.752  0.1345 -0.3276 -0.0897
10707W        W11571  16.832   6.446  17.256 -0.2542 -0.1109 -0.0879
10708W        W11572  18.686   9.748  19.319  0.0151  0.1134  0.1365
10709W        W11573  16.749  10.121  17.587 -0.0161  0.0065 -0.1705
10710W        W11574  16.973   9.479  17.306 -0.0572  0.1648  0.2589
10711W        W11575  16.923   7.209  17.727  0.4657 -0.2097  0.0090
10712W        W11576  21.141   7.680  20.070  0.0358 -0.1565 -0.3219
10713W        W11577  17.572   8.065  16.864  0.0573 -0.0083  0.0075
10714W        W11578  18.475   7.304  16.524 -0.4081  0.2110 -0.0881
10715W        W11579  18.527   9.489  14.261  0.1184 -0.3098  0.0665
10716W        W11580  17.625   8.270  20.312 -0.2464 -0.2671 -0.0196
10717W        W11581  14.345   7.710  19.170 -0.2218 -0.0665 -0.1096
10718W        W11582  17.506   6.615  17.122  0.0410  0.2589 -0.1477
10719W        W11583  18.493   9.994  18.877  0.0440  0.0110  0.1054
10720W        W11584  16.913  15.852  19.222 -0.1590 -0.0830  0.3250
10721W        W11585  17.550   8.643  16.714  0.0994  0.0212  0.1829
10722W        W11586  18.303  11.579  15.454  0.0566 -0.0092  0.1025
10723W        W11587  14.524  10.491  19.290 -0.0356 -0.0856  0.1837
10724W        W11588  14.242  11.831  20.105  0.2791  0.0256 -0.1017
10725W        W11589  18.691  13.554  18.796  0.1096 -0.1067 -0.0471
10726W        W11590  18.018   8.804  14.921 -0.0421  0.0150  0.0247
10727W        W11591  16.058   9.675  18.072 -0.0925  0.1116  0.0685
10728W        W11592  14.735   8.124  17.346  0.2223  0.0530 -0.0435
10729W        W11593  15.177   6.573  19.150  0.0697 -0.1359 -0.1356
10730W        W11594  15.752  10.304  14.293  0.2566  0.0060 -0.1170
10731W        W11595  17.930   7.534  15.816  0.1796 -0.1004 -0.1119
10732W        W11596  17.192   5.349  18.499  0.1079  0.0968 -0.0135
10733W        W11597  16.724   8.473  17.165  0.0110  0.1124 -0.0866
10734W        W11598  16.423   7.387  17.783  0.1575  0.1243  0.0612
10735W        W11599  15.372   7.808  20.110 -0.0584  0.0286  0.3241
10736W        W11600  16.436  11.217  18.730  0.0824  0.0564 -0.1154
10737W        W11601  15.014  12.215  17.398  0.2044 -0.0896  0.1679
10738W        W11602  16.148  10.856  17.329  0.2954  0.2040  0.0685
10739W        W11603  14.925   8.233  18.341 -0.1208  0.1261 -0.2128
10740W        W11604  15.031   6.499  19.638  0.0920 -0.0623  0.0567
10741W        W11605  13.625   8.110  18.511 -0.1992 -0.1018 -0.2439
10742W        W11606  14.942   7.729  18.327 -0.1548  0.2831  0.0241
10743W        W11607  14.982   8.487  14.738 -0.0880  0.5060  0.2694
10744W        W11608  16.353   8.300  20.977  0.0178  0.1198 -0.0282
10745W        W11609  15.455  10.345  20.108  0.1905  0.1731 -0.1173
10746W        W11610  19.922  10.280  19.451  0.0893 -0.0436  0.2156
10747W        W11611  15.378   8.564  15.509  0.0486 -0.0862 -0.2785
10748W        W11612  13.816   7.818  19.462  0.1753 -0.1012 -0.0191
10749W        W11613  17.283  10.669  17.823  0.1930 -0.3373  0.3364
10750W        W11614  16.124  10.350  18.894 -0.1711 -0.0296  0.1282
10751W        W11615  15.365   8.049  18.346 -0.2253 -0.1650  0.1183
10752W        W11616  13.667   5.483  15.535  0.1740  0.1257  0.4633
10753W        W11617  21.287  10.456  14.835 -0.1410  0.1130 -0.1736
10754W        W11618  21.344   8.384  16.621  0.1571  0.0537 -0.3545
10755W        W11619  15.340   6.420  15.957 -0.2081  0.0513 -0.0520
10756W        W11620  19.918   9.750  15.275  0.1105  0.0712  0.0699
10757W        W11621  17.761  10.457  17.485 -0.1776  0.1922  0.0272
10758W        W11622  15.151   9.139  14.092  0.2981  0.0611 -0.0748
10759W        W11623  17.518   8.820  20.390 -0.2859 -0.1524  0.2327
10760W        W11624  16.620   9.645  17.616  0.1470 -0.1707 -0.0520
10761W        W11625  15.032   9.834  18.178  0.0883 -0.3994 -0.2181
10762W        W11626  12.530  10.765  17.084 -0.1833 -0.0789 -0.0947
10763W        W11627  16.560  10.009  18.137 -0.0163  0.0499 -0.0521
10764W        W11628  13.159  11.933  17.214 -0.1711 -0.1052 -0.1349
10765W        W11629  16.882   9.125  15.409  0.1085  0.0755 -0.1705
10766W        W11630  12.472   7.628  20.690 -0.1130 -0.1625  0.3763
10767W        W11631  18.267  10.158  15.250 -0.2341 -0.0914  0.0233
10768W        W11632  16.407  11.333  15.561 -0.0510  0.0512 -0.2613
10769W        W11633  18.627   9.496  18.846  0.1390  0.0600 -0.0036
10770W        W11634  15.845  10.059  17.278  0.1086  0.1189 -0.0117
10771W        W11635  15.353   9.428  18.456  0.0160 -0.0545  0.0663
10772W        W11636  19.760  11.900  17.847 -0.0049  0.0951 -0.1050
10773W        W11637  19.571   7.143  18.649  0.0781 -0.3376  0.0026
10774W        W11638  13.781   8.515  16.892  0.0534  0.0587 -0.2540
10775W        W11639  14.846   7.918  19.207 -0.1438 -0.1062 -0.0178
10776W        W11640  14.860  12.331  18.300  0.0629  0.0346  0.3477
10777W        W11641  12.792  12.158  20.315  0.0675  0.0896  0.0473
10778W        W11642  14.783   9.474  17.559 -0.2490 -0.1147 -0.1417
10779W        W11643  15.866   6.545  15.847 -0.1625 -0.1973  0.1917
10780W        W11644  13.723   9.338  15.363  0.0120 -0.0914  0.0690
10781W        W11645  15.987  11.642  15.539 -0.1604  0.1227 -0.1171
10782W        W11646  17.146   9.457  16.831 -0.3029 -0.1574  0.0207
10783W        W11647  18.172   7.313  17.245 -0.1752 -0.1212  0.0292
10784W        W11648  20.329   9.497  14.938  0.3891  0.2084 -0.0179
10785W        W11649  13.978   7.907  17.751 -0.2952  0.0507 -0.3240
10786W        W11650  17.693   7.067  17.204  0.2082  0.0525  0.0147
10787W        W11651  15.453  12.025  17.634 -0.1801  0.1595  0.1134
10788W        W11652  13.147  10.304  14.825  0.0500 -0.0608 -0.4013
10789W        W11653  17.303   5.081  13.935  0.2210 -0.0427  0.0252
10790W        W11654  17.173   8.656  16.242 -0.0135 -0.1155  0.0779
10791W        W11655  16.700  11.631  18.655 -0.0561 -0.1592  0.0398
10792W        W11656  15.045   8.756  16.523 -0.0425  0.1073  0.1007
10793W        W11657  17.764   9.182  17.889  0.2007  0.1765  0.0005
10794W        W11658  16.329   8.238  20.000  0.0394  0.2679  0.1236
10795W        W11659  18.943   9.436  17.299 -0.1680  0.0548  0.0209
10796W        W11660  17.167   7.318  17.235  0.0040  0.2563 -0.4385
10797W        W11661  14.326   8.746  19.122 -0.1498  0.0792 -0.0607
10798W        W11662  15.724   9.605  17.063 -0.2028 -0.0992 -0.0067
10799W        W11663  15.535   6.300  18.721  0.1807 -0.0355 -0.2334
10800W        W11664  15.652  10.118  17.754  0.2847 -0.3449 -0.1046
10801W        W11665  18.989  10.631  15.284  0.1233  0.1140 -0.0575
10802W        W11666  18.342   8.099  15.079 -0.0252 -0.5554 -0.1389
10803W        W11667  18.707   8.691  17.038 -0.2731 -0.0702 -0.1153
10804W        W11668  17.274   6.378  17.665 -0.4527  0.1662 -0.1933
10805W        W11669  16.829   6.810  15.943 -0.2755  0.0552 -0.2145
10806W        W11670  18.777   6.681  16.707 -0.1053  0.0879 -0.1058
10807W        W11671  12.889  10.487  14.444  0.2004 -0.0407 -0.0179
10808W        W11672  16.810   8.926  14.096 -0.2715  0.2890 -0.1022
10809W        W11673  15.244  10.254  18.146 -0.2809 -0.2074 -0.0355
10810W        W11674  16.870   7.121  18.585  0.2418  0.1825  0.0674
10811W        W11675  15.288   8.073  15.596 -0.0552  0.3236  0.2749
10812W        W11676  14.209  10.247  17.839 -0.4491 -0.3339 -0.1561
10813W        W11677  14.120  12.410  20.330  0.0928 -0.3493  0.2988
10814W        W11678  14.862  10.411  17.889 -0.0253 -0.2479  0.0332
10815W        W11679  17.674   6.514  15.026 -0.0621 -0.0383 -0.1403
10816W        W11680  16.018  11.273  19.031 -0.2445 -0.1439  0.0600
10817W        W11681  12.550   8.003  19.918  0.2063  0.0572 -0.0490
10818W        W11682  16.146  11.475  19.422 -0.3614 -0.2604 -0.1764
10819W        W11683  17.814  11.204  15.828 -0.1906  0.1562 -0.1154
10820W        W11684  16.121  11.756  20.323  0.0007  0.0622 -0.3285
10821W        W11685  15.560   7.167  17.382 -0.1090  0.0025 -0.2321
10822W        W11686  15.880  10.032  16.034  0.1698  0.1308  0.1167
10823W        W11687  16.547   9.807  15.648  0.1494 -0.0134  0.0427
10824W        W11688  15.670   6.108  17.203 -0.0855 -0.0844  0.0854
10825W        W11689  13.972   9.391  12.591 -0.0535 -0.1367 -0.0614
10826W        W11690  17.107   7.837  14.894 -0.0011  0.1143  0.1059
10827W        W11691  14.647   8.803  14.875  0.0050 -0.1485  0.0813
10828W        W11692  16.417   8.275  18.976 -0.1539 -0.0125  0.2986
10829W        W11693  18.756   7.722  16.631 -0.3980  0.1052 -0.0232
10830W        W11694  21.199   8.912  16.489 -0.2078  0.1817  0.2041
10831W        W11695  15.122   8.547  17.374 -0.1341  0.1929 -0.0485
10832W        W11696  17.963   9.468  17.506 -0.1234  0.2856 -0.2741
10833W        W11697  18.113   8.215  19.673 -0.0435 -0.1615  0.0563
10834W        W11698  14.423  12.759  16.892 -0.1297 -0.1434 -0.0670
10835W        W11699  18.756   8.157  16.934  0.1444 -0.0909  0.0423
10836W        W11700  14.908   9.327  18.289  0.0937 -0.1383 -0.0725
10837W        W11701  14.046   4.791  16.719  0.3962  0.1566 -0.0218
10838W        W11702  13.098  13.452  15.371 -0.2527  0.2452 -0.3784
10839W        W11703  16.376   7.357  19.249  0.0060 -0.2803  0.1485
10840W        W11704  16.605   7.878  15.304  0.0147  0.1037  0.1145
10841W        W11705  12.061  10.930  14.366 -0.0321 -0.2602  0.0855
10842W        W11706  17.494   8.354  15.420 -0.2204 -0.1552 -0.2375
10843W        W11707  16.030  13.160  20.217 -0.1197 -0.0546 -0.2713
10844W        W11708  13.814   7.919  15.361 -0.1196 -0.3547 -0.2751
10845W        W11709  12.681   6.508  19.818  0.0212  0.1173 -0.0219
10846W        W11710  16.823   8.188  16.212 -0.1171 -0.1410 -0.0970
10847W        W11711  15.688   7.262  16.347  0.2659  0.0338 -0.0694
10848W        W11712  20.999   7.494  16.295 -0.1620 -0.1008 -0.0892
10849W        W11713  15.941   9.078  17.410 -0.0635 -0.1575  0.0201
10850W        W11714  19.810   9.522  15.714 -0.4398 -0.1693 -0.1821
10851W        W11715  16.510   9.755  17.132  0.2153 -0.1892 -0.0324
10852W        W11716  14.078  10.997  17.594 -0.2397 -0.0047  0.0363
10853W        W11717  13.716   9.923  17.365  0.3611 -0.0888  0.0783
10854W        W11718  13.800  11.009  19.427  0.1061  0.0774 -0.0839
10855W        W11719  16.188   7.107  17.404 -0.0552 -0.0696  0.0050
10856W        W11720  15.880   7.202  20.473  0.0416 -0.2734  0.0071
10857W        W11721  17.518   6.704  13.965  0.1907 -0.1328  0.0298
10858W        W11722  15.950   9.136  15.742  0.3500  0.0496 -0.2231
10859W        W11723  17.940   7.886  14.892  0.1277 -0.2395 -0.2710
10860W        W11724  15.432   9.291  15.836  0.3778  0.0938  0.4328
10861W        W11725  15.591   7.643  15.576 -0.0343  0.2357 -0.3016
10862W        W11726  17.420   8.952  15.223 -0.0502 -0.2564 -0.0133
10863W        W11727  16.316   9.943  19.747 -0.1356  0.0310  0.0869
10864W        W11728  18.167   9.899  18.137 -0.1986  0.2056 -0.2850
10865W        W11729  15.844  10.891  16.804 -0.2018  0.0389 -0.2808
10866W        W11730  17.825   7.620  13.542 -0.1497 -0.1963  0.0295
10867W        W11731  17.179   6.039  14.906  0.0673 -0.2015  0.1029
10868W        W11732  17.326   7.070  13.276 -0.2789  0.0014  0.1761
10869W        W11733  17.881   9.541  15.918  0.2297 -0.0993 -0.1954
10870W        W11734  16.017   8.966  15.074 -0.0354  0.1865  0.0349
10871W        W11735  17.380   7.786  20.112 -0.0803  0.2029  0.1100
10872W        W11736  18.375   9.428  16.307 -0.2825  0.3169  0.3894
10873W        W11737  18.457  10.286  16.770 -0.0941  0.0090 -0.4070
10874W        W11738  14.160  10.915  18.413 -0.0698 -0.1274  0.2209
10875W        W11739  22.606  10.558  15.736  0.2275 -0.0512  0.0394
10876W        W11740  18.648   8.205  14.703 -0.0452 -0.1102  0.1076
10877W        W11741  18.778   6.131  16.704 -0.0280 -0.3572 -0.1908
10878W        W11742  17.343   9.198  17.465  0.0777  0.0239 -0.2785
10879W        W11743  12.286   8.873  18.146  0.2013 -0.1954 -0.1221
10880W        W11744  15.223   9.922  18.620  0.2795 -0.2176 -0.2373
10881W        W11745  17.120   9.884  18.165 -0.0286 -0.0083  0.1695
10882W        W11746  17.845   8.409  17.337 -0.4138 -0.3939  0.0267
10883W        W11747  19.668   8.570  18.880  0.4765  0.0414  0.1355
10884W        W11748  17.048  11.326  17.881 -0.0412 -0.2745 -0.1404
10885W        W11749  16.095  12.204  16.446  0.1871  0.0515 -0.0659
10886W        W11750  15.913  12.832  15.687 -0.1079  0.2971  0.1393
10887W        W11751  17.810  11.570  19.438  0.5036 -0.1177  0.0083
10888W        W11752  19.177   9.054  18.202  0.0784  0.1462 -0.0592
10889W        W11753  14.846  10.248  17.310  0.0487 -0.0115  0.0789
10890W        W11754  16.751  10.925  16.485  0.1110 -0.0886  0.0378
10891W        W11755  17.862   9.950  19.317  0.0462 -0.0214 -0.0705
10892W        W11756  13.955  11.313  17.149 -0.0015  0.1525 -0.0106
10893W        W11757  14.793   8.997  19.113 -0.2580  0.1926 -0.0356
10894W        W11758  15.934   9.652  15.681  0.1615 -0.0661  0.0058
10895W        W11759  18.197   8.628  20.406  0.0404 -0.1534 -0.3714
10896W        W11760  19.649  10.369  17.617  0.2065  0.0738 -0.2081
10897W        W11761  15.400  10.602  14.743 -0.1724  0.0876 -0.1500
10898W        W11762  16.126  10.299  22.263  0.1265 -0.0705 -0.1046
10899W        W11763  13.278   9.343  19.820  0.0946  0.1508 -0.3421
10900W        W11764  18.975  10.158  19.235 -0.0536 -0.1659 -0.1527
10901W        W11765  16.642  10.774  22.701  0.0465 -0.1114  0.0570
10902W        W11766  15.709  10.501  16.344  0.2645 -0.2102 -0.0837
10903W        W11767  17.717  11.000  17.401 -0.2826  0.2433 -0.0345
10904W        W11768  14.945   7.008  20.677  0.1876 -0.1232  0.0860
10905W        W11769  14.600   6.864  18.490  0.2539  0.1628  0.2188
10906W        W11770  15.323  10.916  19.958 -0.1879  0.1321  0.1635
10907W        W11771  13.008   7.521  23.266  0.4101 -0.1746  0.2951
10908W        W11772  16.686   9.984  23.293  0.0529  0.0196 -0.1863
10909W        W11773  19.637   7.971  22.222  0.2637 -0.0857 -0.0331
10910W        W11774  16.937   7.588  19.882 -0.3511 -0.0804  0.3237
10911W        W11775  15.269  10.129  23.576  0.1341 -0.0245 -0.0421
10912W        W11776  14.043   7.409  21.568  0.1360 -0.0425 -0.0019
10913W        W11777  14.500  12.023  20.548  0.2278 -0.2732 -0.1675
10914W        W11778  14.630   9.850  19.154 -0.0743 -0.1104  0.4591
10915W        W11779  15.443   6.474  21.816 -0.0489 -0.1730 -0.1320
10916W        W11780  18.756   6.364  22.454  0.0280  0.0172  0.0042
10917W        W11781  15.670   8.856  21.319 -0.2456 -0.0118  0.0490
10918W        W11782  15.868  10.841  20.964  0.1144  0.0101  0.0043
10919W        W11783  15.890   7.460  19.908 -0.0181 -0.0411 -0.1291
10920W        W11784  19.329  10.941  20.495  0.4407  0.2443  0.2249
10921W        W11785  15.169   8.786  21.316 -0.2163  0.2248 -0.0128
10922W        W11786  12.803  10.915  22.415 -0.0588  0.0474 -0.0186
10923W        W11787  14.636   7.385  20.811  0.0061  0.0779  0.0108
10924W        W11788  17.297   9.978  21.223 -0.2596  0.2077  0.0825
10925W        W11789  12.965   6.900  17.366 -0.1410 -0.2480  0.1658
10926W        W11790  14.602  10.119  20.220  0.1109 -0.1461  0.0590
10927W        W11791  15.428   8.450  19.331  0.0756  0.2883 -0.1580
10928W        W11792  17.080   9.681  20.393 -0.1143  0.0583  0.1082
10929W        W11793  19.194   9.588  21.961 -0.0006  0.0557  0.1676
10930W        W11794  15.735   8.762  19.477 -0.0243 -0.1666  0.2006
10931W        W11795  14.067   7.706  21.991  0.1368 -0.1505  0.2080
10932W        W11796  13.283   8.366  21.394 -0.3901  0.2611  0.0629
10933W        W11797  17.148   7.326  21.255  0.0023 -0.0048  0.0931
10934W        W11798  16.657   7.250  21.480 -0.0339  0.0308 -0.0016
10935W        W11799  13.456   7.489  19.413  0.0581  0.0268 -0.0474
10936W        W11800  16.120   8.487  21.443 -0.2193 -0.1560  0.2305
10937W        W11801  16.797   8.582  21.026  0.5537 -0.3064 -0.3723
10938W        W11802  17.155   7.407  18.130  0.2551 -0.0162  0.2166
10939W        W11803  18.998   7.811  23.192 -0.1287 -0.1045  0.1066
10940W        W11804  16.116  11.685  22.227  0.0311  0.0782 -0.0151
10941W        W11805  17.478  11.121  18.123 -0.3199  0.1694  0.0622
10942W        W11806  12.149  11.414  22.461 -0.0834  0.1387  0.3659
10943W        W11807  16.889  13.984  17.619 -0.0146 -0.0223 -0.0647
10944W        W11808  15.098   7.402  21.105  0.0850 -0.0495 -0.2048
10945W        W11809  15.464   9.475  22.136  0.2124 -0.1256 -0.1765
10946W        W11810  17.894   9.047  21.773 -0.0190  0.3906  0.3568
10947W        W11811  18.144  10.788  17.540 -0.1281 -0.0238 -0.0730
10948W        W11812  15.083   7.845  20.866  0.2191  0.0059  0.0590
10949W        W11813  15.881   5.999  19.742 -0.0594 -0.0591 -0.2857
10950W        W11814  18.926   7.999  20.705 -0.0295 -0.2467 -0.1982
10951W        W11815  18.418   9.090  20.198  0.4582 -0.0096 -0.0375
10952W        W11816  15.279   6.440  21.332  0.0731  0.0373  0.0320
10953W        W11817  13.237  12.414  21.105  0.2109  0.3289 -0.1222
10954W        W11818  16.626   8.417  20.414  0.1370  0.0123  0.0348
10955W        W11819  17.651  10.723  18.464  0.3085  0.3814  0.1882
10956W        W11820  13.573  10.354  19.900 -0.1780  0.0293  0.0771
10957W        W11821  16.744   8.203  17.642 -0.1168  0.0545  0.1032
10958W        W11822  19.421   9.427  19.487  0.1261 -0.2286 -0.1268
10959W        W11823  13.621  11.448  18.513  0.0302  0.3143  0.2351
10960W        W11824  14.767  11.303  21.634  0.2225 -0.3315 -0.1046
10961W        W11825  16.108   9.137  18.245  0.0059 -0.0252  0.5550
10962W        W11826  14.562   6.613  19.984  0.0108 -0.0063 -0.1460
10963W        W11827  19.772   7.886  19.813 -0.1980  0.0551  0.4295
10964W        W11828  14.264   9.728  20.120  0.2774 -0.2200  0.1759
10965W        W11829  14.387   6.513  19.443 -0.0184  0.2087 -0.1155
10966W        W11830  14.617   8.137  21.491  0.1850 -0.1365  0.3507
10967W        W11831  14.920  12.732  19.368  0.0258  0.1466 -0.0354
10968W        W11832  18.827  11.886  23.012 -0.0954  0.1356  0.1897
10969W        W11833  15.865   9.501  19.903  0.5431 -0.2831  0.0461
10970W        W11834  17.530  12.301  18.711 -0.1632  0.1090  0.1318
10971W        W11835  17.306   7.448  20.737 -0.0776 -0.0546  0.0303
10972W        W11836  17.613   9.468  20.360 -0.2424 -0.0993  0.1584
10973W        W11837  16.091  10.236  22.815 -0.1328  0.2518  0.1083
10974W        W11838  13.912   6.601  19.215  0.2077 -0.3474  0.1183
10975W        W11839  13.958  11.444  22.008  0.1985  0.0472  0.0695
10976W        W11840  17.014   8.259  18.398 -0.2762  0.0687 -0.2924
10977W        W11841  16.637   9.510  19.535 -0.0439  0.0212  0.1725
10978W        W11842  14.305   5.103  21.862  0.0472  0.1009  0.0753
10979W        W11843  12.040   8.301  23.732 -0.2263 -0.1067 -0.0659
10980W        W11844  14.379   6.951  20.789 -0.0137  0.1487  0.1128
10981W        W11845  15.502   8.154  20.854  0.0041  0.0796 -0.1375
10982W        W11846  15.336   6.879  22.755  0.0484 -0.4420  0.0313
10983W        W11847  15.470   9.415  18.932 -0.0088 -0.2558  0.1283
10984W        W11848  18.525   8.437  21.385 -0.0337 -0.0125  0.0247
10985W        W11849  20.397   7.516  20.916  0.0092  0.1677  0.0077
10986W        W11850  17.920  12.659  23.289 -0.1612 -0.1794 -0.0889
10987W        W11851  14.515   9.125  20.259 -0.1412 -0.0724  0.0262
10988W        W11852  14.749   6.325  18.315  0.2549  0.3041 -0.3044
10989W        W11853  16.978   9.519  23.254  0.1619  0.1336  0.1730
10990W        W11854  17.893  11.286  17.921  0.1828  0.0217  0.1640
10991W        W11855  17.751   7.647  17.072  0.4585  0.1480  0.0810
10992W        W11856  15.890   7.381  22.010  0.0456 -0.0832 -0.0486
10993W        W11857  20.370   5.974  18.195 -0.1533 -0.2481 -0.0851
10994W        W11858  18.447  10.351  18.450  0.3642  0.0477 -0.1327
10995W        W11859  16.604  10.461  21.693 -0.2023 -0.0734 -0.1638
10996W        W11860  15.684   6.566  18.269 -0.2037  0.1438  0.1181
10997W        W11861  14.714   7.744  21.206  0.0833  0.0526  0.1209
10998W        W11862  18.727  11.414  16.265 -0.1339 -0.0297  0.0861
10999W        W11863  15.950  10.759  20.008  0.0492 -0.1897 -0.0137
11000W        W11864  16.822   8.281  19.240 -0.1071 -0.3440 -0.1522
11001W        W11865  18.229   9.678  19.561  0.1147 -0.2321 -0.0809
11002W        W11866  18.077   4.092  19.709  0.1927 -0.0138 -0.5819
11003W        W11867  16.791   7.507  21.879 -0.0023 -0.0272 -0.1496
11004W        W11868  14.454   7.559  20.222  0.1819  0.2950  0.2425
11005W        W11869  16.500   7.994  22.760  0.0991 -0.1394  0.0188
11006W        W11870  13.683   7.687  18.137  0.2257 -0.1118 -0.1734
11007W        W11871  18.677   7.147  20.650 -0.1073 -0.1470  0.0301
11008W        W11872  16.013   9.567  20.335 -0.0950 -0.0308  0.2205
11009W        W11873  13.241  13.946  19.785 -0.1087 -0.1048  0.0094
11010W        W11874  17.498   9.905  20.766 -0.1340  0.2381  0.0731
11011W        W11875  16.421  12.234  19.867 -0.2100 -0.0325 -0.0930
11012W        W11876  18.170   9.013  17.669 -0.2084 -0.1367  0.0775
11013W        W11877  16.613   9.016  18.279  0.0800  0.1298  0.2228
11014W        W11878  18.419   6.259  21.568 -0.0690 -0.3623  0.0997
11015W        W11879  18.934   8.266  21.705  0.1671 -0.2254  0.0509
11016W        W11880  15.406   8.613  22.106  0.0370 -0.4722 -0.0352
11017W        W11881  16.008   9.995  20.648 -0.2679  0.4378 -0.1018
11018W        W11882  15.527   9.318  20.276 -0.0522  0.3023 -0.1484
11019W        W11883  17.161  10.426  21.068  0.2523  0.0770 -0.0400
11020W        W11884  15.581   9.495  20.772 -0.0597 -0.1295  0.3442
11021W        W11885  14.393   7.975  17.987 -0.0404  0.1047  0.2596
11022W        W11886  16.190   7.436  20.776  0.1706  0.2967 -0.0927
11023W        W11887  14.404   9.003  21.584  0.0418  0.1208 -0.0100
11024W        W11888  15.491   6.965  22.148  0.0167  0.2323 -0.1527
11025W        W11889  19.302   7.796  19.048 -0.3778 -0.2059 -0.1100
11026W        W11890  17.984  10.423  20.606  0.4880 -0.0999  0.1308
11027W        W11891  14.074  10.484  18.891 -0.4314  0.4075 -0.2344
11028W        W11892  17.665  12.166  18.267 -0.0637  0.1214  0.1025
11029W        W11893  15.404   7.814  21.235  0.4167  0.3102  0.1588
11030W        W11894  19.508  11.264  21.393 -0.0961 -0.2345  0.0682
11031W        W11895  16.706   6.891  19.611 -0.0446 -0.1906 -0.2686
11032W        W11896  14.578  11.348  22.091 -0.2599 -0.0620  0.2975
11033W        W11897  13.155   8.457  22.295  0.3930 -0.3608  0.1045
11034W        W11898  12.844   7.468  18.835  0.1060  0.1945 -0.2805
11035W        W11899  17.475   9.990  22.524  0.0189  0.2116  0.0790
11036W        W11900  17.129  11.580  21.566  0.0153  0.0347  0.0823
11037W        W11901  16.077   7.612  18.917  0.0596 -0.0876  0.1342
11038W        W11902  13.332   6.648  17.229 -0.0918 -0.0151  0.1536
11039W        W11903  14.930   9.214  19.828  0.0730 -0.0458  0.1629
11040W        W11904  16.139  11.015  18.291  0.0580 -0.0159 -0.0855
11041W        W11905  17.428   8.575  18.029 -0.1392  0.0381 -0.0180
11042W        W11906  13.770  10.717  20.905  0.2757 -0.0747 -0.0810
11043W        W11907  13.717   7.592  18.626 -0.1860  0.0126  0.0611
11044W        W11908  16.298   6.833  20.395  0.1429  0.0384  0.0571
11045W        W11909  15.627  14.777  18.888  0.2968 -0.2272  0.2812
11046W        W11910  15.715  12.282  17.988  0.0081  0.1691 -0.0535
11047W        W11911  15.099  13.173  19.657 -0.4193  0.2321  0.0254
11048W        W11912  17.214  11.098  21.840 -0.0259 -0.1361 -0.0560
11049W        W11913  14.176   6.962  19.990  0.0725 -0.0131  0.2100
11050W        W11914  13.619  11.610  20.673 -0.1147 -0.1327  0.2917
11051W        W11915  16.318   7.756  21.157 -0.1996 -0.1510  0.0005
11052W        W11916  17.240   7.745  22.175  0.1126 -0.1572 -0.0988
11053W        W11917  18.625   8.052  23.474  0.0871  0.0716  0.2498
11054W        W11918  16.570   8.896  21.446  0.0043  0.0678 -0.2370
11055W        W11919  12.390   8.557  21.554 -0.1894  0.0333 -0.1028
11056W        W11920  16.544   5.124  18.605 -0.3009 -0.0373  0.0729
11057W        W11921  15.044   8.158  18.832 -0.2198  0.0134  0.2732
11058W        W11922  17.881   6.034  23.424 -0.1090 -0.0462 -0.0163
11059W        W11923  17.067   8.733  20.657  0.1120 -0.2497 -0.1751
11060W        W11924  14.145  10.268  22.803  0.0945  0.2322  0.1445
11061W        W11925  14.293   8.693  20.968 -0.0398 -0.2956 -0.0647
11062W        W11926  19.049   5.780  23.933  0.0827 -0.1971 -0.1304
11063W        W11927  18.137   5.907  19.319  0.1100 -0.3593  0.2864
11064W        W11928  12.486   6.973  19.340 -0.2112  0.1674 -0.3087
11065W        W11929  16.401  11.875  19.463  0.0346 -0.1606 -0.0129
11066W        W11930  15.548   9.706  18.064 -0.2350  0.1722 -0.0758
11067W        W11931  15.040  12.940  17.680 -0.1054  0.0632  0.1379
11068W        W11932  16.701  11.410  19.668  0.0017  0.1395 -0.3139
11069W        W11933  16.847   8.617  19.681  0.0849 -0.0367 -0.0784
11070W        W11934  16.436   9.278  21.094 -0.0457  0.0418  0.1526
11071W        W11935  16.685   9.557  18.973 -0.1290  0.1452  0.1172
11072W        W11936  14.161   6.200  19.053  0.0334 -0.0180  0.0875
11073W        W11937  20.685  10.234  17.671  0.0992  0.2311  0.0172
11074W        W11938  15.414  12.557  20.531  0.2814  0.2208 -0.0106
11075W        W11939  14.194  11.189  24.162  0.1590 -0.1036 -0.0254
11076W        W11940  13.769   9.657  20.898 -0.2346 -0.4729  0.1021
11077W        W11941  16.914   8.832  20.195  0.2387 -0.0033  0.1607
11078W        W11942  14.656  11.709  18.727  0.2634  0.2028  0.0881
11079W        W11943  15.448  10.869  20.460  0.1755  0.0086  0.0979
11080W        W11944  17.061   9.017  17.081  0.1409  0.0246  0.0057
11081W        W11945  15.853   9.564  22.939  0.2431 -0.1427 -0.0106
11082W        W11946  17.998   6.916  19.396 -0.1044  0.2911 -0.2324
11083W        W11947  17.070   9.201  22.339 -0.0481 -0.3085  0.1275
11084W        W11948  17.147   8.256  20.422 -0.1548  0.0141 -0.1997
11085W        W11949  15.765   7.909  16.795  0.0075  0.2261  0.1396
11086W        W11950  15.081  11.200  18.508  0.2689 -0.2550  0.0498
11087W        W11951  15.101   8.828  19.479  0.1384 -0.1364 -0.1772
11088W        W11952  14.394  11.026  17.103 -0.3395 -0.0852  0.0451
11089W        W11953  14.732  13.376  21.266 -0.3316 -0.1939 -0.0302
11090W        W11954  16.041   4.507  21.264  0.2350 -0.1441  0.1953
11091W        W11955  15.689   7.203  22.613  0.0866 -0.1061  0.1450
11092W        W11956  18.175   4.865  20.662 -0.1142  0.0287  0.1937
11093W        W11957  13.401   6.972  19.728 -0.2117  0.2178 -0.1216
11094W        W11958  17.791   6.257  19.859  0.1338  0.2833 -0.2032
11095W        W11959  15.132   6.947  17.625  0.0358 -0.0579 -0.1794
11096W        W11960  13.689   6.973  18.814 -0.4191  0.2362 -0.2723
11097W        W11961  19.083   8.365  20.331  0.2557 -0.1911  0.0635
11098W        W11962  12.857   9.652  21.040  0.0545  0.2954 -0.0897
11099W        W11963  17.073   6.342  20.489 -0.3254  0.5205 -0.0822
11100W        W11964  17.426   9.655  19.895 -0.0029  0.1377 -0.0578
11101W        W11965  14.559   5.386  22.207  0.2047  0.0178 -0.0092
11102W        W11966  19.318   7.749  21.060  0.0203 -0.4824  0.1295
11103W        W11967  13.684   9.877  19.312  0.5245  0.2893 -0.0257
11104W        W11968  14.829  10.161  19.466 -0.0647  0.2134  0.0400
11105W        W11969  15.511   6.701  20.976  0.1289  0.4090 -0.2315
11106W        W11970  16.886  13.013  19.662  0.2525  0.0622 -0.2754
11107W        W11971  12.902   7.786  19.637 -0.1397  0.4348  0.0334
11108W        W11972  15.526   9.097  23.510  0.1574  0.1436  0.1707
11109W        W11973  15.054   8.458  21.665  0.1317  0.2376  0.2931
11110W        W11974  16.079  10.703  19.278 -0.0249 -0.4055  0.2961
11111W        W11975  17.870   6.748  20.035  0.0926  0.0849 -0.2439
11112W        W11976  18.861   8.321  19.790 -0.0678 -0.0330  0.1358
11113W        W11977  18.162   9.540  19.037  0.2216  0.2370  0.1890
11114W        W11978  15.909   9.534  18.494 -0.0318  0.0115  0.1626
11115W        W11979  18.039  11.285  16.980  0.2087  0.1894 -0.1808
11116W        W11980  14.672   4.282  21.036  0.1154 -0.1921 -0.1298
11117W        W11981  16.074  11.427  19.931  0.1961  0.0015 -0.0893
11118W        W11982  20.120   8.063  22.308  0.0235 -0.0977  0.0202
11119W        W11983  16.767   7.461  20.915  0.1618 -0.1690 -0.0811
11120W        W11984  17.965  11.617  24.519  0.1417  0.0255 -0.0158
11121W        W11985  14.046   4.643  18.710  0.2273 -0.2958  0.0328
11122W        W11986  18.033   8.980  19.124 -0.3384 -0.0456 -0.2899
11123W        W11987  15.437   7.021  20.607 -0.4323 -0.0928  0.3035
11124W        W11988  16.301   8.000  18.577  0.2540 -0.0858 -0.2032
11125W        W11989  16.557  10.213  22.616  0.0628  0.0649 -0.1933
11126W        W11990  16.941  12.259  20.157  0.2815 -0.0063 -0.2437
11127W        W11991  16.802  10.787  19.804  0.0168  0.2203  0.1522
11128W        W11992  14.051   6.892  22.178  0.3277  0.1182  0.1792
11129W        W11993  18.948  10.303  22.027 -0.0659  0.1142 -0.2373
11130W        W11994  16.503  11.524  17.097  0.2470 -0.2042 -0.0328
11131W        W11995  15.758  10.500  20.486 -0.3557 -0.0555  0.0714
11132W        W11996  15.852   6.548  20.496  0.0402  0.0088  0.1105
11133W        W11997  16.948   8.635  18.132  0.1814  0.2033 -0.1438
11134W        W11998  15.841   9.414  21.844  0.2391 -0.1020 -0.1186
11135W        W11999  16.880   8.558  21.793 -0.1433  0.3002 -0.0214
11136W        W12000  17.649   9.871  18.354 -0.1414 -0.0988 -0.2185
11137W        W12001  17.049  13.822  18.067 -0.3652 -0.1431  0.1864
11138W        W12002  16.545   7.542  18.572 -0.0427  0.1892 -0.0517
11139W        W12003  14.394   6.706  21.273 -0.1935  0.1122 -0.3124
11140W        W12004  13.912   8.993  21.458 -0.0011  0.4169 -0.1426
11141W        W12005  14.773   6.462  21.456  0.0784 -0.3545  0.1866
11142W        W12006  15.959   7.881  20.816  0.1402 -0.4061  0.1484
11143W        W12007  15.566  11.230  18.819 -0.0815  0.1279 -0.0224
11144W        W12008  17.177  12.036  19.020  0.0855 -0.0246 -0.1245
11145W        W12009  15.132   9.549  20.464 -0.1910  0.0352 -0.0750
11146W        W12010  15.564  11.525  19.640  0.0152 -0.0729 -0.0200
11147W        W12011  17.825   7.015  20.840 -0.0704 -0.5063 -0.1283
11148W        W12012  14.152   8.636  19.575  0.2842  0.2393  0.1652
11149W        W12013  19.143  12.039  21.550  0.1603  0.1714  0.2635
11150W        W12014  19.737  11.730  21.627 -0.1833  0.1907 -0.1069
11151W        W12015  16.231  10.112  21.266 -0.2509 -0.0320 -0.0184
11152W        W12016  17.320   6.248  19.184 -0.1568 -0.0293  0.2525
11153W        W12017  15.099  10.425  19.134  0.4044 -0.0348  0.1852
11154W        W12018  17.011   6.443  19.674  0.3569 -0.2519  0.1555
11155W        W12019  19.439   8.292  21.909 -0.1185  0.1009 -0.0813
11156W        W12020  19.340  11.792  20.637 -0.0235  0.1807  0.2936
11157W        W12021  18.181  10.815  18.186  0.1855 -0.1065 -0.0768
11158W        W12022  15.799   6.934  20.064 -0.0341  0.1378  0.0568
11159W        W12023  14.487   8.052  20.139 -0.2798 -0.1447  0.1379
11160W        W12024  16.293   8.285  21.879  0.1071 -0.2630 -0.0743
11161W        W12025  12.787   6.673  20.430  0.0748  0.0124 -0.1105
11162W        W12026  14.720  12.052  19.867 -0.0469 -0.0729  0.4500
11163W        W12027  15.656  10.359  18.629 -0.5012 -0.4142 -0.0923
11164W        W12028  15.100  12.154  19.567 -0.0879 -0.0126  0.3111
11165W        W12029  18.723  10.336  20.174 -0.0914 -0.0338  0.1447
11166W        W12030  15.136   5.277  21.458  0.0290 -0.1438  0.0992
11167W        W12031  17.340   7.781  21.164 -0.1427 -0.0668 -0.0736
11168W        W12032  15.584  12.112  19.682  0.1629 -0.2803  0.0223
11169W        W12033  18.585   9.056  22.109  0.0847  0.0141  0.2251
11170W        W12034  14.424   8.643  20.130 -0.3094 -0.2645  0.0002
11171W        W12035  14.177   6.355  22.238 -0.0243 -0.3852  0.2924
11172W        W12036  17.807  12.147  19.657  0.2017  0.1130 -0.0771
11173W        W12037  16.184   8.518  23.986  0.0290 -0.1470 -0.1910
11174W        W12038  15.352   9.426  22.628 -0.1085  0.0788 -0.0377
11175W        W12039  15.124   7.264  22.502  0.1425  0.0447 -0.2738
11176W        W12040  14.661   8.790  20.656  0.1408 -0.1917  0.2232
11177W        W12041  15.845  10.327  21.092  0.0862 -0.1583  0.0432
11178W        W12042  16.182   9.887  18.602  0.1182 -0.0293 -0.0554
11179W        W12043  16.687   6.516  20.199  0.0491 -0.0197  0.2904
11180W        W12044  15.150   8.622  20.755 -0.1533 -0.0012 -0.1040
11181W        W12045  14.579  12.052  21.574  0.1567  0.1683 -0.1336
11182W        W12046  18.100   9.847  18.638  0.0902  0.1197  0.0839
11183W        W12047  18.082   6.528  24.301  0.1194  0.1512  0.1417
11184W        W12048  17.325  12.361  20.404 -0.0598  0.0462  0.0849
11185W        W12049  16.305   7.807  18.119 -0.0674 -0.0770 -0.0499
11186W        W12050  16.764   9.716  21.164 -0.5823 -0.0924 -0.0433
11187W        W12051  17.266  10.687  18.799  0.1128  0.3356 -0.2492
11188W        W12052  16.599   8.729  19.232  0.2462  0.0835 -0.1006
11189W        W12053  18.001   8.556  16.890  0.1214 -0.1842 -0.1054
11190W        W12054  20.196   8.850  21.395  0.2279  0.0700 -0.2665
11191W        W12055  15.933  10.033  20.106 -0.1085 -0.0868  0.0074
11192W        W12056  14.755   9.595  20.116 -0.2254 -0.0910 -0.2305
11193W        W12057  17.780   7.570  19.898 -0.2230 -0.0746 -0.1635
11194W        W12058  18.060   7.463  21.692  0.1632  0.1798 -0.1718
11195W        W12059  16.283  12.085  20.695 -0.2052 -0.0336  0.0695
11196W        W12060  15.962   5.006  19.969 -0.1536  0.2836  0.0158
11197W        W12061  13.159  12.401  20.574 -0.4069 -0.3440  0.1232
11198W        W12062  14.124  10.921  20.569  0.0394  0.0275  0.0289
11199W        W12063  13.967   7.304  22.447  0.1620  0.0752 -0.1873
11200W        W12064  15.668  11.005  22.923 -0.1497 -0.1481 -0.0390
11201W        W12065  18.802   7.577  21.005  0.0860 -0.1385  0.0547
11202W        W12066  16.537   7.840  19.171 -0.1094  0.0392 -0.0199
11203W        W12067  15.322  12.594  21.404  0.3052  0.1621 -0.0104
11204W        W12068  17.716  11.481  21.105 -0.0772 -0.0676 -0.0353
11205W        W12069  16.874   6.878  21.143  0.1249  0.0040  0.0657
11206W        W12070  15.507   6.827  18.805  0.0628 -0.2130  0.1094
11207W        W12071  15.482  10.031  20.779  0.1964  0.3378 -0.2025
11208W        W12072  17.980   7.189  18.437  0.0245  0.0346 -0.0595
11209W        W12073  15.434  10.773  18.405 -0.2400 -0.0780 -0.1403
11210W        W12074  15.100   7.797  22.649 -0.0082 -0.3492 -0.0246
11211W        W12075  16.304  10.731  20.669 -0.0515 -0.1592  0.4801
11212W        W12076  16.899  10.736  21.381 -0.1280  0.0954  0.1118
11213W        W12077  17.237   9.347  19.591 -0.3212 -0.1756 -0.1109
11214W        W12078  12.911   6.139  19.414 -0.1089  0.2235  0.1418
11215W        W12079  16.890   5.964  17.030 -0.0282  0.0347  0.0397
11216W        W12080  16.393  10.892  21.575 -0.0436  0.2891 -0.0551
11217W        W12081  18.384   7.779  20.790  0.1044  0.2627  0.0424
11218W        W12082  14.180  11.350  23.219 -0.1055  0.3133  0.1727
11219W        W12083  15.759   7.555  18.386  0.3580 -0.2486  0.1457
11220W        W12084  15.390  11.028  20.894  0.1418  0.1655  0.2634
11221W        W12085  13.730   8.706  20.012  0.0509 -0.1574 -0.2073
11222W        W12086  13.100  11.890  20.598  0.1799  0.2374 -0.1138
11223W        W12087  14.837  11.046  19.898  0.3037 -0.3123 -0.2320
11224W        W12088  16.192   9.173  20.632  0.0417 -0.1385  0.1951
11225W        W12089  12.766  10.636  19.321  0.1230  0.0143  0.0707
11226W        W12090  16.174   4.596  18.919  0.2660  0.2271 -0.1901
11227W        W12091  14.116   9.025  20.021  0.0892  0.0100 -0.2546
11228W        W12092  14.599  10.855  22.253 -0.0405 -0.0466 -0.1184
11229W        W12093  16.732   6.446  19.253  0.0590  0.0057  0.0996
11230W        W12094  17.892   9.934  22.222  0.2617 -0.1211  0.3308
11231W        W12095  15.559   7.686  20.588 -0.0407 -0.0481  0.1406
11232W        W12096  17.667  12.580  20.105 -0.0545 -0.0012 -0.1196
11233W        W12097  15.762  10.008  23.146 -0.1045 -0.1610 -0.1924
11234W        W12098  16.945  11.600  22.033  0.3173  0.0098 -0.0818
11235W        W12099  14.954  10.628  20.191 -0.0162 -0.0673 -0.0036
11236W        W12100  14.940   7.915  20.420  0.0922  0.0152 -0.3027
11237W        W12101  16.169   3.349  19.894 -0.6446 -0.2712  0.2217
11238W        W12102  16.957   9.418  18.398 -0.2757 -0.0437  0.2493
11239W        W12103  16.077   8.650  20.613  0.0674 -0.0324  0.0473
11240W        W12104  14.324   3.666  18.536 -0.0290  0.0183  0.0571
11241W        W12105  15.202  11.191  17.416 -0.0375  0.0295 -0.1399
11242W        W12106  19.533   9.483  17.970 -0.5482  0.0140 -0.0181
11243W        W12107  15.439   9.388  21.298  0.3024  0.0504 -0.0171
11244W        W12108  13.313  10.934  18.688 -0.0390 -0.1212 -0.0451
11245W        W12109  16.978   5.895  19.503  0.1896  0.0427 -0.3203
11246W        W12110  18.174   9.571  20.079  0.0740  0.1142 -0.0961
11247W        W12111  15.855   7.933  20.006  0.0819 -0.1357  0.1164
11248W        W12112  16.962   9.335  19.985  0.3627 -0.0096 -0.2866
11249W        W12113  17.602   7.231  18.061 -0.1834  0.1873  0.2999
11250W        W12114  17.380   7.560  19.565  0.3993 -0.3454 -0.2994
11251W        W12115  17.444  13.072  19.858 -0.0132  0.0747  0.1672
11252W        W12116  15.799  11.708  18.846  0.2744  0.2113  0.0442
11253W        W12117  14.093   5.411  20.230 -0.0311  0.2407 -0.0335
11254W        W12118  15.535   8.381  18.808 -0.1070  0.1574  0.2360
11255W        W12119  15.317   5.707  21.240  0.1153 -0.4673  0.0529
11256W        W12120  13.768   6.111  20.802  0.2624 -0.0664 -0.0160
11257W        W12121  14.897   8.947  21.725 -0.1936 -0.0045 -0.1798
11258W        W12122  14.947   8.421  20.372 -0.0722  0.0910 -0.0915
11259W        W12123  16.562   8.888  23.072 -0.1070 -0.0641 -0.2453
11260W        W12124  16.128   9.082  21.532 -0.1434 -0.1449 -0.2538
11261W        W12125  14.890   4.460  21.808 -0.1794 -0.1556  0.1616
11262W        W12126  15.312   9.910  19.253  0.0554 -0.2458 -0.1353
11263W        W12127  15.924   8.263  19.656 -0.2939  0.0239  0.2344
11264W        W12128  16.968  13.424  21.930  0.1662  0.1566  0.2053
11265W        W12129  17.201   9.645  19.217 -0.2405 -0.3699  0.0130
11266W        W12130  16.281   6.406  20.899 -0.2044 -0.1554 -0.2647
11267W        W12131  18.255   7.599  20.333  0.3229  0.3192  0.0376
11268W        W12132  15.030   8.717  20.006  0.2616  0.1028 -0.1530
11269W        W12133  18.059   6.383  19.434 -0.1157 -0.2955  0.2293
11270W        W12134  16.614   8.533  18.534 -0.0647 -0.1212 -0.1243
11271W        W12135  16.627   9.419  22.444 -0.0218  0.1461 -0.0305
11272W        W12136  17.968  10.783  17.000  0.1703 -0.1469 -0.1298
11273W        W12137  12.605   7.882  22.879  0.4210  0.0744  0.1049
11274W        W12138  17.054   9.026  21.550 -0.0470  0.0076  0.1719
11275W        W12139  17.933  10.293  18.330  0.2450 -0.1079  0.0228
11276W        W12140  17.924   8.482  22.495 -0.1782 -0.1904 -0.1620
11277W        W12141  12.275   9.226  23.814 -0.1557 -0.1098  0.2564
11278W        W12142  14.442   8.259  19.296 -0.0426 -0.0171 -0.1581
11279W        W12143  14.163   6.212  21.154  0.1660 -0.2480  0.2216
11280W        W12144  13.025   7.953  23.463 -0.1200 -0.1237 -0.1572
11281W        W12145  16.238   9.667  20.876  0.0633 -0.1366  0.1576
11282W        W12146  16.481  11.424  22.032 -0.3087  0.1486  0.0229
11283W        W12147  20.367   8.184  19.181 -0.1113  0.0756 -0.0571
11284W        W12148  19.876  12.907  19.915  0.0578  0.0728 -0.2075
11285W        W12149  16.032  13.261  21.620 -0.0369 -0.1878  0.2812
11286W        W12150  15.926  12.400  22.133 -0.0698  0.1084 -0.3004
11287W        W12151  18.351  10.805  21.686 -0.1883 -0.2689 -0.0382
11288W        W12152  15.410  11.353  23.210 -0.3226 -0.1743  0.1879
11289W        W12153  15.932  10.674  21.513 -0.0679  0.2370  0.1679
11290W        W12154  16.253   8.631  18.133  0.0336 -0.0612  0.1386
11291W        W12155  15.435  11.589  21.099  0.1114 -0.0847 -0.2225
11292W        W12156  15.648  10.298  19.104  0.1282 -0.1443 -0.1790
11293W        W12157  15.734   9.071  23.049 -0.1938  0.1727 -0.0249
11294W        W12158  19.618   8.983  21.255  0.1288  0.1327 -0.0185
11295W        W12159  16.240   9.286  22.710 -0.1341  0.2583  0.1272
11296W        W12160  16.138  12.132  18.726 -0.2101  0.0102 -0.0068
11297W        W12161  14.476   8.007  21.966 -0.1293 -0.1433  0.2787
11298W        W12162  13.920  10.227  26.407  0.0738  0.0242 -0.0918
11299W        W12163  15.422  12.080  23.468  0.1642  0.2152  0.1093
11300W        W12164  19.411   8.837  23.370  0.3039  0.0135  0.2059
11301W        W12165  17.087  13.004  22.777 -0.1241 -0.2245  0.2038
11302W        W12166  15.521  12.794  20.946  0.0261  0.1720 -0.3411
11303W        W12167  17.281   8.183  21.852 -0.0131  0.0901  0.0371
11304W        W12168  14.204   9.774  23.551 -0.0037  0.1124 -0.3387
11305W        W12169  15.465   9.131  19.826  0.3856  0.1670 -0.2586
11306W        W12170  16.221  10.514  24.735 -0.1011 -0.0632  0.1020
11307W        W12171  15.240   8.954  25.078 -0.0215  0.1741 -0.1391
11308W        W12172  14.382   9.103  24.068 -0.1634 -0.2779  0.1471
11309W        W12173  17.301   8.032  25.291  0.0458 -0.0893 -0.0741
11310W        W12174  16.488  10.934  23.519  0.1533 -0.1716  0.2960
11311W        W12175  19.002   9.184  25.820 -0.0279  0.0029 -0.1918
11312W        W12176  12.960   6.039  24.582  0.2027  0.0929 -0.0051
11313W        W12177  13.132  11.345  26.403 -0.2696 -0.2476 -0.0047
11314W        W12178  17.626   9.649  21.726  0.0851 -0.0533 -0.0754
11315W        W12179  16.212   9.386  24.928  0.0576  0.1994  0.3432
11316W        W12180  15.019   8.098  28.159  0.0070  0.1953 -0.3382
11317W        W12181  19.918   9.381  21.103  0.1371  0.0363 -0.1358
11318W        W12182  17.220   7.458  25.338  0.1104  0.1242  0.0211
11319W        W12183  18.849  10.893  26.741 -0.0378  0.3428  0.1202
11320W        W12184  17.013  12.429  24.955  0.2936 -0.0034 -0.2597
11321W        W12185  16.200  11.985  23.412 -0.0626  0.3796 -0.1132
11322W        W12186  14.514   7.892  24.726  0.0404  0.2307 -0.1473
11323W        W12187  15.542   9.310  25.897  0.3038  0.0240 -0.2765
11324W        W12188  16.473   6.538  25.416  0.0741  0.1647  0.0700
11325W        W12189  15.999   9.523  24.464 -0.1819 -0.1256  0.2377
11326W        W12190  16.321  15.290  24.540 -0.0091  0.0710 -0.0836
11327W        W12191  14.333   8.734  22.867  0.0292 -0.1768 -0.3919
11328W        W12192  18.543   8.921  22.804  0.1456  0.0990  0.0588
11329W        W12193  15.613  12.080  27.914  0.1143  0.0334  0.1905
11330W        W12194  18.310   9.784  26.284  0.2513  0.0929  0.0757
11331W        W12195  16.547  10.744   1.266 -0.2591  0.0676 -0.2143
11332W        W12196  15.215   9.920  25.961  0.0024  0.0412  0.2417
11333W        W12197  17.056  11.657  25.070  0.1300  0.1766  0.1348
11334W        W12198  15.083   6.022  21.619  0.1169  0.3884  0.1758
11335W        W12199  13.192   9.264  24.968  0.0970  0.0455 -0.1740
11336W        W12200  20.233   8.533  21.808 -0.5276 -0.0591 -0.1204
11337W        W12201  14.440   6.523  25.650 -0.1360  0.1374  0.4262
11338W        W12202  14.992   7.805  21.629  0.0202 -0.2097 -0.1784
11339W        W12203  19.249   9.730  26.393 -0.1241  0.1781  0.4532
11340W        W12204  16.242  13.683  25.969  0.1202  0.0033  0.0931
11341W        W12205  15.699  11.140  21.363  0.0187 -0.1366 -0.0078
11342W        W12206  15.049  11.088  23.766 -0.2768  0.3316  0.0293
11343W        W12207  15.399  11.146  22.516 -0.1005 -0.2342 -0.1840
11344W        W12208  13.201   6.492  25.989  0.0378 -0.1705  0.1682
11345W        W12209  19.033  10.797  22.189 -0.0039  0.2786  0.0492
11346W        W12210  17.394  10.547  23.918 -0.0436  0.0801  0.0636
11347W        W12211  16.660   8.610  24.252  0.1423 -0.1228 -0.2090
11348W        W12212  15.024  11.217  25.607 -0.2735  0.1277  0.0346
11349W        W12213  15.364   9.454  23.103 -0.1605  0.1988  0.0507
11350W        W12214  16.517  12.254  24.769 -0.0850  0.0226 -0.0318
11351W        W12215  18.255   9.819  22.522  0.2562 -0.4547 -0.0098
11352W        W12216  15.252   8.902  22.906 -0.3780  0.2361  0.1189
11353W        W12217  14.616  10.823  23.681 -0.0796 -0.0248 -0.2245
11354W        W12218  14.405   5.602  21.798 -0.0555  0.0376  0.1713
11355W        W12219  20.068   9.546  22.645 -0.0121 -0.3627 -0.0010
11356W        W12220  10.813   9.895  25.704 -0.0866 -0.4031 -0.3301
11357W        W12221  17.842   9.263  18.721 -0.1985 -0.0626  0.0382
11358W        W12222  19.575   7.296  19.621 -0.2075 -0.1255  0.0920
11359W        W12223  15.977  11.012  23.422 -0.2324 -0.0303  0.1540
11360W        W12224  17.194  12.722  24.423 -0.1024 -0.0699 -0.1849
11361W        W12225  16.876   9.552  21.913  0.3365  0.1349  0.0779
11362W        W12226  14.368   6.842  27.736 -0.0985  0.3875 -0.1109
11363W        W12227  18.607   6.496  22.012 -0.1669 -0.2394  0.3170
11364W        W12228  15.188   9.033  22.335 -0.2194  0.1759 -0.1111
11365W        W12229  15.262   9.880  24.006 -0.0696  0.1668  0.0433
11366W        W12230  14.753  11.749  22.414  0.0301 -0.0283  0.0362
11367W        W12231  17.923  10.115  22.702 -0.0566  0.0866  0.0687
11368W        W12232  18.491  12.437  22.031  0.4042 -0.1630  0.4517
11369W        W12233  17.133   9.586  21.449  0.2541  0.3601 -0.0505
11370W        W12234  17.384  11.289  22.312 -0.1177 -0.1796 -0.0554
11371W        W12235  19.393   9.349  26.107 -0.0414  0.0037  0.0378
11372W        W12236  18.107  11.758  22.477  0.1716  0.1491 -0.1463
11373W        W12237  18.289  11.623  24.083 -0.1784 -0.1385 -0.3754
11374W        W12238  16.778   8.056  21.963 -0.0906 -0.0610  0.2059
11375W        W12239  16.999   8.012  23.362  0.0804  0.0616  0.0356
11376W        W12240  18.182   8.221  22.173 -0.0573  0.1029  0.0112
11377W        W12241  15.365   9.911  25.049  0.0225 -0.1161  0.0408
11378W        W12242  15.701  10.821  23.948 -0.1257  0.0360  0.0987
11379W        W12243  14.833   8.959  23.883 -0.3683  0.1223  0.1654
11380W        W12244  14.334   8.472  23.367 -0.3015 -0.0124  0.1977
11381W        W12245  17.460   7.768  23.494 -0.1948 -0.2341 -0.2624
11382W        W12246  15.842   7.538  24.479 -0.0576  0.1069 -0.0528
11383W        W12247  17.566   8.283  21.380  0.0651 -0.0492 -0.0640
11384W        W12248  18.892  10.006  25.109 -0.2516 -0.1490  0.5221
11385W        W12249  15.664   6.428  27.313 -0.5053 -0.3478 -0.0364
11386W        W12250  16.547  11.105  24.623  0.3053  0.2015  0.2380
11387W        W12251  19.268   7.968  27.317  0.2159 -0.1712  0.2930
11388W        W12252  20.124   6.976  23.005 -0.0927 -0.1547 -0.0314
11389W        W12253  17.124  11.004  25.952 -0.1488 -0.2449 -0.2843
11390W        W12254  14.816  11.493  23.918  0.0005  0.1935 -0.1296
11391W        W12255  16.610   8.188  23.847 -0.0620  0.2291 -0.1421
11392W        W12256  17.639   8.689  26.549  0.0891 -0.3167  0.1931
11393W        W12257  16.277   9.815  22.543 -0.2157 -0.0392 -0.2206
11394W        W12258  17.898   8.746  25.048  0.2291  0.0153  0.0311
11395W        W12259  16.650   8.299  24.665  0.1316  0.1030 -0.1736
11396W        W12260  14.803   6.717  22.716  0.0181 -0.0380 -0.2215
11397W        W12261  15.736  10.433  23.647  0.0791  0.1653 -0.1336
11398W        W12262  17.617  12.493  24.193 -0.1223  0.1533  0.0010
11399W        W12263  18.694   9.009  24.055 -0.0610  0.5422  0.2511
11400W        W12264  15.799   9.841  21.078 -0.2778  0.1192  0.0861
11401W        W12265  19.906  13.140  24.419  0.2124 -0.1668  0.2655
11402W        W12266  20.181   7.651  24.832  0.1966  0.1308  0.0278
11403W        W12267  16.896   8.953  23.484  0.3944  0.3349 -0.2081
11404W        W12268  16.181  10.006  24.374  0.2919 -0.1863  0.3814
11405W        W12269  15.892   9.415  23.985 -0.0267  0.0206  0.1282
11406W        W12270  18.902   7.249  23.304  0.1805  0.0701  0.0789
11407W        W12271  15.680   9.098  22.486  0.1438  0.1627 -0.2036
11408W        W12272  14.353  10.334  23.447  0.2594  0.2931  0.1557
11409W        W12273  15.716  10.011  22.600  0.0090  0.0360  0.0976
11410W        W12274  13.871   5.528  19.405 -0.0239  0.0387 -0.0988
11411W        W12275  13.967  10.585  26.015  0.1154  0.1700  0.4419
11412W        W12276  16.537   8.323  22.297 -0.2303 -0.3138 -0.2168
11413W        W12277  14.587   7.243  22.505  0.2560 -0.1448  0.0604
11414W        W12278  17.053   8.240  21.398  0.1417  0.1975 -0.0291
11415W        W12279  15.698   9.759  24.735 -0.1226 -0.0940  0.1561
11416W        W12280  14.851  10.118  23.192 -0.4192 -0.2925 -0.1985
11417W        W12281  17.325   9.948  22.059  0.2269 -0.1778 -0.2609
11418W        W12282  20.301   6.413  23.782  0.1900 -0.0647 -0.3203
11419W        W12283  18.356  13.907  23.370 -0.2546  0.2474 -0.0589
11420W        W12284  18.462  10.488  20.795  0.0844  0.0168  0.1311
11421W        W12285  15.558  10.843  23.404 -0.1187  0.4284 -0.1477
11422W        W12286  17.807   7.717  20.516  0.3099  0.0386 -0.3384
11423W        W12287  16.549   7.574  25.232 -0.3037 -0.1296  0.0565
11424W        W12288  15.040   7.678  23.261 -0.1570 -0.1346 -0.1265
11425W        W12289  19.849   9.331  25.817  0.2051  0.1414  0.0622
11426W        W12290  18.016  10.066  21.687  0.0322 -0.0867 -0.2875
11427W        W12291  16.825   9.230  22.801 -0.1868 -0.1519  0.1157
11428W        W12292  15.103  11.672  24.286 -0.2668  0.3135  0.0381
11429W        W12293  15.998   8.784  22.717 -0.3845 -0.0615  0.0516
11430W        W12294  16.988  13.324  24.840 -0.1022  0.3933 -0.0676
11431W        W12295  19.770  10.488  22.552 -0.1381  0.1768 -0.3323
11432W        W12296  16.669  10.869  27.209  0.1616 -0.1508  0.1280
11433W        W12297  15.055   9.990  28.150 -0.1306  0.0424  0.3071
11434W        W12298  15.691   6.390  24.785 -0.2566  0.1279  0.0295
11435W        W12299  17.368  13.898  27.104  0.3795 -0.2549  0.3473
11436W        W12300  16.073   8.848  24.895 -0.0028  0.2730 -0.1391
11437W        W12301  17.309   9.513  22.829  0.2300  0.1109 -0.0897
11438W        W12302  13.816   7.578  24.423 -0.1011 -0.1520 -0.0431
11439W        W12303  14.426   7.038  23.077 -0.0022 -0.2359  0.1068
11440W        W12304  13.883  11.862  23.414  0.2061 -0.1886  0.3180
11441W        W12305  17.558  10.273  23.285 -0.1452 -0.1486  0.0289
11442W        W12306  15.426   8.980  27.845 -0.0928 -0.0043  0.0422
11443W        W12307  16.471   9.154  24.581  0.1724  0.0158  0.1140
11444W        W12308  17.654  10.542  24.659  0.4248 -0.2332 -0.1732
11445W        W12309  16.148  12.327  25.129 -0.0554  0.0153 -0.0305
11446W        W12310  16.485  12.201  28.043  0.0072  0.0642 -0.2299
11447W        W12311  15.874   8.028  26.532 -0.0039  0.1891  0.1921
11448W        W12312  17.293   9.798  24.240  0.1691 -0.0685  0.1581
11449W        W12313  14.234   6.523  23.194  0.2595  0.1393 -0.2850
11450W        W12314  16.672  10.838  24.055 -0.1493 -0.1503  0.0320
11451W        W12315  14.755   8.707  23.159 -0.0513 -0.3100  0.2313
11452W        W12316  17.114   7.693  26.211  0.1423  0.1515 -0.0510
11453W        W12317  18.542   9.315  23.505  0.0095 -0.2246 -0.3072
11454W        W12318  14.408   9.600  24.061  0.0441 -0.0298 -0.2808
11455W        W12319  20.759   6.485  21.569  0.0761  0.2488 -0.2299
11456W        W12320  15.714   7.452  20.984  0.2386  0.3610  0.0275
11457W        W12321  14.883   9.506  23.218 -0.1076  0.1948  0.0165
11458W        W12322  19.569  10.497  23.491 -0.1047  0.4320 -0.0247
11459W        W12323  15.008   7.488  23.723  0.1179 -0.0450  0.3242
11460W        W12324  19.080  11.375  23.831  0.4705 -0.0232  0.0966
11461W        W12325  16.497  10.655  27.665 -0.1386  0.1523  0.1049
11462W        W12326  17.711   8.474  24.623  0.1510 -0.0803 -0.1603
11463W        W12327  15.857   9.547  22.389  0.2646 -0.4046  0.0543
11464W        W12328  15.121   8.054  22.053 -0.1485  0.2548  0.1216
11465W        W12329  12.533  12.192  24.080 -0.0508 -0.2909  0.2395
11466W        W12330  17.621   8.386  22.147 -0.0056  0.2460 -0.0069
11467W        W12331  17.175   8.669  23.143  0.0298  0.3157 -0.0260
11468W        W12332  17.340   8.585  25.930 -0.1687  0.0595 -0.0509
11469W        W12333  17.379   9.229  25.395 -0.2276 -0.2263 -0.1522
11470W        W12334  16.646   9.886  23.783 -0.4824  0.1227  0.0759
11471W        W12335  16.652  13.773  25.080 -0.2133 -0.0413  0.1561
11472W        W12336  15.193   4.105  20.825  0.2498 -0.1681 -0.0283
11473W        W12337  20.934   9.437  21.028 -0.1081  0.0452  0.4061
11474W        W12338  14.304   9.985  24.454  0.1637 -0.0110  0.0020
11475W        W12339  15.079   8.303  26.757 -0.4077  0.0714 -0.0506
11476W        W12340  13.602   9.268  23.408 -0.5271  0.1684  0.0058
11477W        W12341  17.860   8.213  23.062  0.0726  0.0365  0.0980
11478W        W12342  17.768   8.762  21.286  0.0874  0.0201  0.1608
11479W        W12343  17.172  10.580  21.927 -0.0294 -0.1738  0.1827
11480W        W12344  16.469   8.100  25.143 -0.0299  0.1874 -0.3693
11481W        W12345  17.185   9.648  25.225 -0.1600 -0.0227  0.1138
11482W        W12346  16.624   7.851  20.184  0.1266 -0.1931 -0.1648
11483W        W12347  17.012   9.953  24.796  0.2132 -0.1001  0.2630
11484W        W12348  19.278   6.956  23.197  0.0380  0.0988 -0.2269
11485W        W12349  15.996   8.570  22.164  0.3355  0.1670  0.0280
11486W        W12350  16.222   9.093  23.955 -0.3299 -0.2024  0.1325
11487W        W12351  16.524   9.656  24.625 -0.0911  0.0646  0.1060
11488W        W12352  14.625   6.162  19.716 -0.1906 -0.0388 -0.1808
11489W        W12353  14.849   8.780  24.736 -0.1400 -0.3375  0.2155
11490W        W12354  14.040   7.147  28.020 -0.3965  0.0218  0.0172
11491W        W12355  16.205   7.825  26.140  0.1094 -0.0760 -0.0403
11492W        W12356  18.502   9.787  24.414  0.1444  0.0246 -0.2470
11493W        W12357  13.551   9.449  24.138 -0.0025 -0.2521  0.0369
11494W        W12358  15.297   8.659  23.439 -0.3953  0.2779  0.1478
11495W        W12359  15.047   5.628  25.510  0.1388  0.0028 -0.2275
11496W        W12360  13.079   9.756  24.093  0.0897 -0.1767  0.4000
11497W        W12361  17.341   7.062  24.434  0.4040  0.1968  0.1195
11498W        W12362  13.999   8.908  23.261 -0.2109  0.1523  0.0825
11499W        W12363  17.828   7.222  24.702  0.0074  0.1650  0.1137
11500W        W12364  18.421   9.890  21.502  0.1365  0.1915  0.1040
11501W        W12365  15.424   6.743  23.378  0.1681  0.1642 -0.2233
11502W        W12366  18.514   8.533  23.338 -0.1175  0.1840  0.0457
11503W        W12367  14.516   9.429  23.517 -0.0854  0.0596  0.0237
11504W        W12368  16.471   8.605  27.072  0.0906  0.4004 -0.1062
11505W        W12369  17.127   8.502  24.610 -0.2816 -0.1000 -0.4426
11506W        W12370  15.602  12.717  22.431  0.1083 -0.0793  0.2674
11507W        W12371  18.401  11.955  24.448  0.0191  0.1563 -0.2105
11508W        W12372  14.789   9.913  25.437 -0.0598  0.4448 -0.1077
11509W        W12373  16.936   6.906  25.193  0.2088 -0.0424 -0.0956
11510W        W12374  15.012   7.388  25.538  0.1982  0.0640  0.0716
11511W        W12375  18.997  10.728  24.759 -0.0625 -0.0236  0.1897
11512W        W12376  18.191  10.401  22.482  0.1942  0.4238 -0.0356
11513W        W12377  19.049  10.220  22.835  0.1370 -0.1883 -0.1587
11514W        W12378  17.453  10.842  23.329 -0.0081 -0.1510  0.1056
11515W        W12379  14.901  12.011  24.663  0.0549  0.0463  0.0375
11516W        W12380  13.629   8.483  25.351 -0.0300  0.2783  0.0196
11517W        W12381  15.088   9.600  26.300 -0.1146  0.0029  0.1603
11518W        W12382  17.578   8.692  23.702 -0.0035  0.0942 -0.2566
11519W        W12383  16.575   9.387  23.656 -0.1779  0.1302 -0.0374
11520W        W12384  17.377  10.099  27.236  0.3401 -0.0845  0.3164
11521W        W12385  19.974   6.663  21.999 -0.0261 -0.1859 -0.1426
11522W        W12386  14.333  10.391  19.761 -0.1186 -0.0207  0.2035
11523W        W12387  14.181   7.389  28.441  0.1845  0.0761 -0.0862
11524W        W12388  17.684  10.363  28.538  0.0461 -0.0749 -0.1259
11525W        W12389  19.108   5.486  25.081 -0.0057  0.0248 -0.0149
11526W        W12390  17.584  10.347  22.156  0.2461 -0.0539  0.1015
11527W        W12391  17.636  13.181  25.515  0.0434  0.1100  0.0967
11528W        W12392  15.020   7.092  24.050  0.0869  0.2233 -0.3118
11529W        W12393  17.012   8.127  28.232 -0.0350  0.3370  0.0398
11530W        W12394  15.578  10.504  22.718  0.2300 -0.0682  0.1796
11531W        W12395  17.916  10.914  23.864  0.2005 -0.1367  0.0400
11532W        W12396  15.012   7.794  24.837 -0.0884 -0.1685  0.3111
11533W        W12397  18.353   9.787  23.160 -0.1850  0.2953 -0.2392
11534W        W12398  17.984   6.427  22.952 -0.1328 -0.1963 -0.3019
11535W        W12399  14.563   7.346  25.764 -0.2115 -0.0512 -0.0966
11536W        W12400  15.984  11.858  25.240 -0.0593  0.0369  0.2810
11537W        W12401  18.286   9.281  22.417  0.2325  0.0147  0.4006
11538W        W12402  18.285   9.428  20.535  0.3582 -0.1025  0.2074
11539W        W12403  14.822  12.375  26.355  0.4281 -0.0161 -0.2278
11540W        W12404  14.328   6.119  25.284  0.0109 -0.0508  0.1928
11541W        W12405  15.300   6.178  23.456 -0.3147  0.0536  0.1613
11542W        W12406  16.532  10.166  24.744  0.3015 -0.0505  0.0965
11543W        W12407  16.937   9.100  21.030 -0.1749 -0.0796 -0.0317
11544W        W12408  17.408   8.555  22.727  0.1646  0.1191 -0.4557
11545W        W12409  15.046   9.423  25.524  0.2239  0.0361 -0.0337
11546W        W12410  18.828   8.907  23.275  0.0433 -0.2397 -0.0067
11547W        W12411  14.854   7.667  22.141  0.0144  0.0001 -0.0143
11548W        W12412  14.697   9.249  24.925  0.0466  0.2416 -0.0138
11549W        W12413  13.731   9.618  26.046 -0.2818 -0.2162 -0.0487
11550W        W12414  18.385  12.538  23.783  0.2081 -0.1695 -0.0818
11551W        W12415  17.828   9.148  23.646  0.1579  0.0433  0.0346
11552W        W12416  13.617   7.072  21.517 -0.2284  0.0156  0.1466
11553W        W12417  17.351   7.097  24.963 -0.4565 -0.1091  0.1835
11554W        W12418  15.691   8.648  24.684  0.3620  0.0546  0.2694
11555W        W12419  16.877   8.566  26.070 -0.1115  0.0383  0.3684
11556W        W12420  17.387  12.073  24.981 -0.0458 -0.2273  0.2904
11557W        W12421  16.147   9.802  22.069 -0.0396 -0.2954  0.3432
11558W        W12422  16.216   9.705  23.606  0.1560 -0.3727  0.0093
11559W        W12423  15.706   6.694  24.302 -0.3111 -0.3751 -0.0136
11560W        W12424  16.906  10.113  25.392 -0.1535 -0.0926 -0.0910
11561W        W12425  14.908   8.611  25.823  0.0793  0.0153  0.0549
11562W        W12426  13.558  10.802  25.672  0.0553 -0.0520  0.0843
11563W        W12427  15.081  10.810  26.994 -0.1204 -0.0615 -0.0946
11564W        W12428  18.591  11.353  20.910  0.1766  0.2940  0.1862
11565W        W12429  17.952   9.382  22.092  0.1053 -0.0096 -0.0837
11566W        W12430  18.265   6.892  24.581  0.1270 -0.0328 -0.1394
11567W        W12431  18.160   8.120  21.153  0.0583  0.1551  0.2274
11568W        W12432  16.188  10.892  24.238 -0.1787  0.2080  0.2624
11569W        W12433  17.787   9.549  24.048 -0.3641  0.0517  0.0480
11570W        W12434  18.982   7.752  25.059 -0.1156 -0.2145 -0.3910
11571W        W12435  16.610  10.384  23.637  0.2715 -0.0971 -0.2027
11572W        W12436  18.427  12.693  19.523  0.0737 -0.3447  0.1489
11573W        W12437  16.841   7.906  25.466 -0.0495 -0.0649  0.1122
11574W        W12438  16.499   6.845  24.919  0.1001 -0.1884 -0.1064
11575W        W12439  14.848   8.485  23.616  0.1468  0.2663 -0.0007
11576W        W12440  12.931   5.437  22.976 -0.2719 -0.0956 -0.0919
11577W        W12441  13.102  10.141  25.231 -0.0706 -0.0255 -0.2002
11578W        W12442  15.293   9.956  22.976 -0.0832  0.0084 -0.2511
11579W        W12443  17.311   8.705  21.253  0.3022  0.0763 -0.0738
11580W        W12444  15.842   6.593  23.748  0.1751 -0.0897  0.0052
11581W        W12445  12.963   7.321  25.379  0.2034  0.0604 -0.0299
11582W        W12446  16.465  10.553  23.149  0.2312  0.0779 -0.0441
11583W        W12447  18.538   9.242  25.635 -0.0978  0.0000  0.0529
11584W        W12448  16.298  10.822  25.982 -0.1612 -0.0451 -0.2382
11585W        W12449  16.023   6.541  25.145  0.0306  0.1896 -0.1172
11586W        W12450  20.295   7.437  24.163 -0.0740  0.0436 -0.2706
11587W        W12451  18.473   8.495  22.485 -0.0028 -0.2390 -0.2790
11588W        W12452  16.930  10.374  22.889  0.1501  0.0555 -0.1405
11589W        W12453  16.637   7.760  23.536 -0.0008  0.0108 -0.1569
11590W        W12454  18.691   9.564  26.032 -0.0506  0.1239 -0.0342
11591W        W12455  14.169   8.246  22.694 -0.2503  0.0689  0.0924
11592W        W12456  16.068   7.428  25.195  0.1991 -0.0839 -0.3433
11593W        W12457  18.106   6.146  23.886 -0.0243 -0.1025  0.0501
11594W        W12458  13.932   8.286  23.715  0.1181  0.2919  0.0792
11595W        W12459  18.644  11.546  23.757  0.2297 -0.1976  0.2894
11596W        W12460  17.450   8.982  24.892 -0.3745 -0.0299  0.0285
11597W        W12461  13.768  11.191  25.388 -0.1378  0.1021  0.0530
11598W        W12462  13.950  10.532  23.155  0.1651 -0.1791  0.1271
11599W        W12463  13.860   8.693   0.493  0.0665 -0.0289 -0.1293
11600W        W12464  14.437   9.028  25.729 -0.1428 -0.0196 -0.2556
11601W        W12465  16.444   9.497  24.152  0.1980 -0.1802 -0.2365
11602W        W12466  17.415  10.112  25.849  0.0631 -0.2483 -0.0317
11603W        W12467  17.616  11.323  24.783  0.0348  0.0713  0.0593
11604W        W12468  17.811  10.926  24.941 -0.4356  0.3087 -0.1172
11605W        W12469  13.898   6.345  21.841 -0.0348  0.1351  0.3082
11606W        W12470  16.810   9.926  24.304 -0.1592 -0.3493  0.3467
11607W        W12471  13.050  10.350  26.318 -0.0244  0.0112  0.0618
11608W        W12472  13.299   5.106  22.819 -0.3288  0.2353  0.2382
11609W        W12473  16.923   8.342  25.080  0.3554 -0.0419  0.1059
11610W        W12474  14.492   5.841  24.707 -0.1264  0.1576  0.1374
11611W        W12475  18.862   9.726  23.350  0.0222 -0.0200  0.2244
11612W        W12476  13.872  12.747  25.485 -0.1267  0.1099 -0.0741
11613W        W12477  14.899  10.207  27.735  0.1635  0.0870 -0.0477
11614W        W12478  14.845   7.102  23.480  0.0772 -0.0278 -0.2457
11615W        W12479  19.724   9.654  24.081 -0.0229  0.2025 -0.5030
11616W        W12480  18.055   7.144  23.735 -0.0772  0.1894 -0.2004
11617W        W12481  15.920   8.978  24.371 -0.0984 -0.0181 -0.0574
11618W        W12482  13.654   9.766  23.528 -0.1167  0.0834  0.1253
11619W        W12483  15.373  10.213  21.248 -0.1578  0.0578  0.5801
11620W        W12484  14.716   7.630  22.890 -0.1027 -0.1952 -0.1683
11621W        W12485  16.668   9.701  25.806  0.0362 -0.0830  0.1495
11622W        W12486  12.723   7.879  22.092 -0.0304 -0.0857 -0.0767
11623W        W12487  14.402  10.162  25.976  0.1716 -0.3159 -0.0627
11624W        W12488  16.362   8.229  23.405 -0.1114 -0.0673 -0.0669
11625W        W12489  15.007   9.082  23.406  0.1495  0.0906 -0.0290
11626W        W12490  15.778   8.902  23.868 -0.3250  0.1787  0.1607
11627W        W12491  13.608   8.621  23.494 -0.1468  0.0950 -0.0839
11628W        W12492  17.003   8.871  25.217 -0.1356  0.2620  0.2423
11629W        W12493  15.116   8.410  23.084 -0.4003 -0.3061  0.1900
11630W        W12494  21.519   8.272  25.709  0.0035 -0.0902  0.1256
11631W        W12495  16.329  12.643  25.760  0.0471  0.2699  0.3132
11632W        W12496  16.096  12.427  24.489 -0.0715 -0.0092  0.0507
11633W        W12497  16.247  11.579  27.644  0.0954  0.0826  0.3868
11634W        W12498  15.407  11.217  24.229  0.0152  0.2247  0.5133
11635W        W12499  15.436  11.414  25.216 -0.0706 -0.3511 -0.1190
11636W        W12500  17.443  10.138  26.411 -0.0892 -0.1134  0.1146
11637W        W12501  16.849   7.858  27.772  0.2084 -0.2225  0.0520
11638W        W12502  15.704  13.237  26.238  0.2461 -0.4907  0.3625
11639W        W12503  18.360   8.793  25.286  0.0225 -0.2426  0.1589
11640W        W12504  14.772   5.717  24.022 -0.0750 -0.0309 -0.0715
11641W        W12505  15.277  10.269  22.401  0.1547  0.0972  0.0439
11642W        W12506  16.802  14.300  24.114  0.1040  0.0419 -0.0601
11643W        W12507  15.734   9.942  23.727  0.1791  0.0598  0.1628
11644W        W12508  17.323  11.721  24.607  0.4867 -0.1729  0.1081
11645W        W12509  13.897   9.758  23.969 -0.2958  0.0956  0.1289
11646W        W12510  14.495   9.426  25.423 -0.0891 -0.0730  0.1948
11647W        W12511  13.546   7.000  22.355 -0.1065 -0.0688 -0.0354
11648W        W12512  16.648   9.028  26.306  0.1974  0.1394  0.1883
11649W        W12513  16.544   8.082  21.493  0.4203  0.0854  0.1490
11650W        W12514  17.267  11.183  25.120 -0.0701 -0.1218 -0.2494
11651W        W12515  16.468  11.433  25.927 -0.3903 -0.1041 -0.3294
11652W        W12516  13.221   8.729  19.779  0.0090  0.1473  0.2980
11653W        W12517  18.233   5.892  24.841 -0.1656  0.0461 -0.0028
11654W        W12518  13.495  10.179  24.951  0.0343  0.1192  0.1051
11655W        W12519  17.387   8.812  26.977 -0.1212  0.0067 -0.0807
11656W        W12520  14.522   7.793   0.331 -0.0475 -0.1798 -0.0906
11657W        W12521  15.946  10.428  24.196  0.2395 -0.2555 -0.1781
11658W        W12522  17.008   9.552  23.855  0.1067  0.1195  0.0086
11659W        W12523  15.172   8.754  27.464 -0.0451  0.1573 -0.0562
11660W        W12524  16.642  11.691  23.868 -0.2107  0.2509 -0.0657
11661W        W12525  18.061   9.467  23.358 -0.1814 -0.0520 -0.6313
11662W        W12526  17.289   8.088  22.998 -0.2321  0.0356  0.0601
11663W        W12527  16.421  11.091  26.404 -0.2363  0.0521  0.0529
11664W        W12528  14.695  12.951  23.652 -0.2468  0.1687  0.0357
11665W        W12529  17.229  10.431  26.861 -0.1125  0.1022  0.0599
11666W        W12530  17.481   7.264  22.700 -0.0139  0.1438 -0.0101
11667W        W12531  20.049   7.817  24.381 -0.0251 -0.3071  0.3349
11668W        W12532  15.076   8.235  21.194 -0.1459  0.2274  0.2885
11669W        W12533  15.683   7.765  24.884  0.1285  0.4758  0.0953
11670W        W12534  17.445   8.509  25.178 -0.0078 -0.0964 -0.0820
11671W        W12535  21.286   9.576  25.741 -0.0338  0.0160 -0.2086
11672W        W12536  16.190   9.562  21.425  0.0841 -0.2125  0.1738
11673W        W12537  15.403   8.387  26.175  0.0178  0.1916  0.0891
11674W        W12538  17.682   8.715  25.592 -0.1570 -0.0263  0.0985
11675W        W12539  15.668  14.142  25.161 -0.0667  0.0262  0.3275
11676W        W12540  18.475   9.120  26.115 -0.1235 -0.1327 -0.1251
11677W        W12541  15.006   8.874  26.335  0.0330 -0.1513 -0.3911
11678W        W12542  17.753   9.843  26.126  0.1166 -0.1888  0.0137
11679W        W12543  15.344  10.179  24.616  0.1222  0.1896 -0.1225
11680W        W12544  15.210   8.574  23.950  0.0166 -0.1762  0.0026
11681W        W12545  16.189  10.741  28.146  0.1420  0.1156 -0.1641
11682W        W12546  15.222  10.817  25.776 -0.0543 -0.0547 -0.4184
11683W        W12547  16.541   8.673  23.652  0.1029  0.2334 -0.0521
11684W        W12548  16.780  11.198  21.581 -0.1026 -0.4772 -0.0811
11685W        W12549  18.821  12.282  22.416 -0.0431  0.1694  0.0657
11686W        W12550  16.109   9.204  23.419 -0.0666  0.2065 -0.1680
11687W        W12551  16.190  10.117  23.895 -0.1956  0.3219 -0.1270
11688W        W12552  15.866  10.476  26.051  0.0767 -0.1255 -0.0484
11689W        W12553  16.365  10.332  25.189  0.1486 -0.0649  0.1426
11690W        W12554  18.602  10.943  24.573  0.0368 -0.0004 -0.3322
11691W        W12555  18.315   8.842  21.624  0.2075  0.0232 -0.1657
11692W        W12556  16.749   8.379  27.435  0.0988 -0.0416  0.1668
11693W        W12557  18.278   7.430  24.429  0.1403  0.0024 -0.4207
11694W        W12558  14.522   7.561  23.316 -0.1892 -0.0904  0.0626
11695W        W12559  15.225   9.693  24.555  0.0751 -0.2010 -0.1216
11696W        W12560  16.124  11.991  24.680 -0.0247  0.0176 -0.1461
11697W        W12561  13.852  10.260  23.710  0.0269  0.1291 -0.0393
11698W        W12562  13.525   9.947  28.211 -0.0873  0.1550  0.1178
11699W        W12563  15.953  10.399  26.741 -0.1837 -0.3113 -0.1835
11700W        W12564  18.206   8.662  26.997 -0.2085  0.3777 -0.3078
11701W        W12565  18.160  12.021  27.060  0.2703  0.2279  0.0822
11702W        W12566  16.516   9.038  26.789  0.2594  0.2063 -0.1920
11703W        W12567  15.621   7.802  27.064  0.0997  0.0671  0.0635
11704W        W12568  13.291   7.084   0.034  0.0617  0.0341 -0.1147
11705W        W12569  17.294   9.142  23.751  0.3198  0.0137  0.0278
11706W        W12570  16.519   9.446  28.375 -0.1978  0.2286 -0.0165
11707W        W12571  13.388   9.421  28.663 -0.0238 -0.0745 -0.1914
11708W        W12572  13.929   6.154   2.563 -0.1015 -0.0357 -0.0499
11709W        W12573  19.387   7.194  25.983  0.0110 -0.0362 -0.0450
11710W        W12574  14.025  11.433  25.803  0.3154  0.1815  0.2651
11711W        W12575  16.508  10.528   0.668 -0.0217 -0.1465 -0.0438
11712W        W12576  14.942   7.623  25.937 -0.4359  0.1942 -0.1902
11713W        W12577  13.579   9.445   0.954  0.1029 -0.0750 -0.1391
11714W        W12578  18.218  11.228  23.720 -0.0343 -0.1245  0.1227
11715W        W12579  15.099   7.894  27.067  0.4395  0.3291 -0.1036
11716W        W12580  16.133   8.879   1.853 -0.2236 -0.1659  0.1732
11717W        W12581  20.675   6.854  26.062 -0.3281 -0.1386  0.1398
11718W        W12582  18.250   7.465  28.641  0.0407  0.2942 -0.4439
11719W        W12583  18.121   7.413   1.131 -0.0519  0.2158  0.3503
11720W        W12584  16.288  11.322  28.066  0.1201 -0.2201  0.0763
11721W        W12585  17.028  10.437   0.613 -0.0155 -0.2135  0.0212
11722W        W12586  15.036  10.699  27.533  0.1678  0.0456 -0.0309
11723W        W12587  17.488  10.377   0.423  0.0897 -0.2264  0.3128
11724W        W12588  19.960   8.638   1.233  0.2648  0.1810  0.0898
11725W        W12589  17.064   9.675   2.131 -0.0100 -0.0329 -0.2684
11726W        W12590  15.285  10.836   0.674 -0.0814 -0.0190 -0.0320
11727W        W12591  15.651   9.730  26.201 -0.1404  0.1004 -0.1473
11728W        W12592  13.791   9.083  28.525  0.0650  0.2229  0.0792
11729W        W12593  16.437   8.912   1.237 -0.1031 -0.1057 -0.3170
11730W        W12594  17.464  10.533  27.846 -0.1123  0.0500  0.1656
11731W        W12595  16.063  10.203   0.316  0.1285  0.2276 -0.1106
11732W        W12596  13.122   8.107   1.287 -0.2326 -0.0048  0.3472
11733W        W12597  16.434  10.251   1.469 -0.0524  0.0322  0.0728
11734W        W12598  16.075   7.386  27.601  0.3108  0.0388 -0.0812
11735W        W12599  13.733   7.997  25.299 -0.2568  0.2079 -0.1576
11736W        W12600  19.425  10.292  25.663  0.1932 -0.0403 -0.1826
11737W        W12601  18.652   8.466  26.646  0.1232 -0.0166  0.1697
11738W        W12602  17.132   7.111  24.013 -0.2641  0.0524 -0.2332
11739W        W12603  18.546   9.693  27.576  0.3275 -0.0579  0.0790
11740W        W12604  16.611  12.117  26.629 -0.0529  0.1656 -0.3927
11741W        W12605  18.100  10.106  25.805  0.2520  0.1462 -0.1442
11742W        W12606  16.008   9.508  28.962 -0.1289 -0.2488 -0.0346
11743W        W12607  17.035   9.561  28.422 -0.1419  0.1038  0.2664
11744W        W12608  14.374  11.230   0.906  0.0551  0.3055 -0.2769
11745W        W12609  18.170   8.218  26.836  0.1864 -0.1573  0.1050
11746W        W12610  17.867   9.987  27.088 -0.2015  0.1982  0.0046
11747W        W12611  15.893   8.476  26.260  0.1956 -0.0095 -0.0346
11748W        W12612  14.750  10.067   0.748 -0.1079 -0.0208  0.2533
11749W        W12613  18.197   9.564  25.414  0.0575 -0.2739  0.2405
11750W        W12614  18.423  10.002  25.259  0.2860  0.3539 -0.1567
11751W        W12615  16.734  10.436  26.892  0.1255  0.0603 -0.0088
11752W        W12616  16.890   8.613  28.476  0.0845  0.0312  0.0068
11753W        W12617  13.270  12.567  25.405 -0.0190 -0.0106 -0.1534
11754W        W12618  10.461   7.750  27.005  0.2794  0.0098  0.1247
11755W        W12619  17.845  10.827   1.020 -0.0221 -0.0902  0.3661
11756W        W12620  14.521   9.948  28.002 -0.0297 -0.2235  0.1287
11757W        W12621  17.428  11.065  23.793 -0.2280 -0.0443 -0.0926
11758W        W12622  18.109   7.514  26.006 -0.0782 -0.0986  0.0682
11759W        W12623  14.528  10.374   1.076 -0.0966 -0.0544  0.1151
11760W        W12624  14.454  10.631  25.913  0.0606  0.1589  0.5901
11761W        W12625  16.519   9.778  26.279 -0.2592  0.2469  0.0333
11762W        W12626  15.345   8.368  28.909 -0.1755 -0.1143 -0.1151
11763W        W12627  19.127   7.719  26.707 -0.0266 -0.1457  0.3012
11764W        W12628  16.840  10.568  24.535 -0.1373 -0.1056  0.1187
11765W        W12629  14.985   8.120  25.885 -0.0276  0.1947 -0.1465
11766W        W12630  15.700  10.045  28.073 -0.0083  0.0990 -0.2452
11767W        W12631  14.843   9.158  26.704 -0.3876 -0.5274  0.2384
11768W        W12632  17.014  10.146   1.542  0.0710  0.3327 -0.2342
11769W        W12633  18.127   8.522  26.481  0.1018  0.0498 -0.0882
11770W        W12634  17.135  10.995  27.027 -0.0426 -0.0945 -0.3374
11771W        W12635  18.516   8.986  27.895 -0.0665 -0.4700 -0.2056
11772W        W12636  15.421  11.924  26.355  0.0309  0.3483  0.0164
11773W        W12637  16.514   8.796  28.866  0.1768  0.0849  0.0180
11774W        W12638  14.448   9.032  27.814 -0.1056 -0.0816 -0.0335
11775W        W12639  17.161  10.630   1.163 -0.0206  0.1608 -0.0125
11776W        W12640  15.092   8.825  26.987 -0.0482 -0.2132 -0.0305
11777W        W12641  17.176   8.528  26.475  0.0085  0.1398 -0.0182
11778W        W12642  15.665   9.153  28.721  0.0808  0.2078 -0.0559
11779W        W12643  15.217  10.319   0.841  0.1264  0.0816  0.3309
11780W        W12644  16.369  10.440  27.224  0.1419 -0.1255  0.0330
11781W        W12645  14.450   7.906  28.065  0.0436  0.2097  0.0797
11782W        W12646  15.567   6.458  28.631  0.2364  0.0037 -0.0316
11783W        W12647  17.239   7.559  24.563 -0.0821  0.2029  0.0183
11784W        W12648  17.960   9.630   0.339 -0.0593 -0.1482 -0.0518
11785W        W12649  21.287   8.135  28.266  0.1092  0.0800 -0.0517
11786W        W12650  18.564  11.235   0.515 -0.0113 -0.0939 -0.2709
11787W        W12651  20.412   9.935   0.125  0.1103  0.2280 -0.0078
11788W        W12652  17.653   7.667  25.458 -0.0963 -0.1765  0.1164
11789W        W12653  18.735   6.639  28.794 -0.1517 -0.1181 -0.0578
11790W        W12654  16.782   9.281  27.641 -0.0206 -0.0098  0.1476
11791W        W12655  14.814  10.534  26.254 -0.2403 -0.1430  0.0304
11792W        W12656  15.238   8.090   0.528  0.2639  0.1150  0.0235
11793W        W12657  17.864   9.205  25.425  0.2144  0.1254 -0.2585
11794W        W12658  17.438   8.051  28.547 -0.0609 -0.0119  0.1257
11795W        W12659  13.439  12.510   1.265  0.2863  0.0908  0.0314
11796W        W12660  14.663   7.854  26.345 -0.1447 -0.1064  0.1836
11797W        W12661  18.947   8.616  23.670  0.1917  0.2506  0.0636
11798W        W12662  17.332  13.450  24.500  0.0052 -0.0894 -0.2492
11799W        W12663  17.020   8.713  29.047 -0.0726  0.5367  0.0843
11800W        W12664  17.550   7.689  26.461 -0.0560 -0.0669  0.0172
11801W        W12665  20.879  10.014  27.758  0.3724  0.0648 -0.1196
11802W        W12666  15.908   5.152  28.189  0.1903 -0.1637 -0.0285
11803W        W12667  16.109  10.728   0.086 -0.2110 -0.2812  0.1302
11804W        W12668  16.977  10.770  25.316  0.1361  0.1397 -0.0718
11805W        W12669  19.035   8.992  28.128  0.0577 -0.3982  0.1329
11806W        W12670  16.480   8.912  28.334  0.3353 -0.3904  0.3297
11807W        W12671  14.871   7.725  27.873  0.1326  0.1049  0.2004
11808W        W12672  15.231   8.613  28.147 -0.0139 -0.0765  0.1233
11809W        W12673  17.860  11.060  26.912  0.1205 -0.0808  0.0182
11810W        W12674  19.438   8.441  28.124 -0.1225 -0.0243  0.2103
11811W        W12675  17.500  10.694  29.120 -0.1209 -0.0766 -0.3223
11812W        W12676  17.403  10.093  25.334 -0.0612 -0.2374  0.0488
11813W        W12677  16.039   8.290  28.943  0.0905  0.1803  0.0867
11814W        W12678  19.635   5.237  23.469  0.0018  0.0462  0.4158
11815W        W12679  15.231   7.619  27.500 -0.0955 -0.0377 -0.3225
11816W        W12680  16.237   8.565  28.092  0.0629  0.2783  0.0621
11817W        W12681  16.855  10.157  25.895  0.1793 -0.1204  0.1103
11818W        W12682  18.577   6.680  27.289 -0.3013  0.2293  0.4431
11819W        W12683  15.621  11.674  24.099 -0.1278  0.1943  0.1961
11820W        W12684  18.848   9.419  27.937 -0.4124 -0.0199 -0.0430
11821W        W12685  16.343  10.317  25.820  0.1042  0.1410  0.2514
11822W        W12686  16.474  11.250   1.341 -0.0075 -0.1183  0.1293
11823W        W12687  18.558   9.352  26.610 -0.0286  0.1119 -0.1265
11824W        W12688  15.467   8.683  28.564  0.1765  0.0124  0.2351
11825W        W12689  18.296   8.389   0.760  0.0273 -0.0061  0.0546
11826W        W12690  16.748   8.780   0.834 -0.0429  0.0097  0.0042
11827W        W12691  15.128  10.309  27.298  0.1415 -0.2557  0.0729
11828W        W12692  16.937  11.087   1.350  0.1158  0.1314  0.0782
11829W        W12693  17.468  10.949  25.518  0.0684  0.0858  0.0440
11830W        W12694  15.363  10.410   0.352  0.1024 -0.3977  0.1210
11831W        W12695  18.856   8.326  24.630  0.0928  0.1034 -0.0808
11832W        W12696  17.852   8.743  27.322 -0.0351  0.1211 -0.2418
11833W        W12697  13.237   8.625  27.755 -0.0069 -0.2736 -0.1327
11834W        W12698  18.489   9.346  28.307  0.1002  0.0493 -0.1450
11835W        W12699  17.574   7.272   0.495 -0.0707  0.0409 -0.0547
11836W        W12700  17.538   8.785  27.720 -0.0674  0.0207 -0.2474
11837W        W12701  15.420  10.505  28.745  0.0191  0.1006 -0.0550
11838W        W12702  15.315   4.733  25.519 -0.2504 -0.1206 -0.0454
11839W        W12703  18.760   8.889  26.448  0.2717 -0.0384  0.2569
11840W        W12704  15.260   8.959  25.590  0.1691 -0.1384  0.1208
11841W        W12705  16.843   9.378  25.472  0.0132  0.2104  0.1689
11842W        W12706  15.880  10.606  28.716  0.3625  0.0757  0.0690
11843W        W12707  17.629   9.925   0.128 -0.0286 -0.1363  0.0999
11844W        W12708  17.665   9.655  25.594  0.0076 -0.1900  0.0937
11845W        W12709  16.192  12.593  27.498  0.2543  0.0416 -0.2551
11846W        W12710  15.969  11.581  27.198 -0.1218  0.0880  0.3558
11847W        W12711  11.938   8.886   0.581 -0.0308  0.0389  0.4198
11848W        W12712  16.279   9.681  27.618  0.1589 -0.0292  0.0124
11849W        W12713  16.491   6.120   0.203  0.0139 -0.0847 -0.2546
11850W        W12714  12.958   7.910   0.087  0.1783 -0.1807  0.2397
11851W        W12715  14.786   6.767  27.371 -0.3494  0.0154  0.2107
11852W        W12716  15.786   7.876  27.550  0.0097 -0.0720 -0.1369
11853W        W12717  18.423   8.988  27.403  0.2095  0.2930 -0.2523
11854W        W12718  16.711  11.199  27.801 -0.0310  0.0984  0.1448
11855W        W12719  17.294   8.560  27.372 -0.0063 -0.1613  0.1903
11856W        W12720  16.471   7.018  25.857  0.3506 -0.3536  0.1067
11857W        W12721  14.799   9.016  25.360 -0.0888  0.1216 -0.0211
11858W        W12722  17.095  10.811   3.030 -0.2708 -0.3276  0.3370
11859W        W12723  15.993   9.651   2.086 -0.1843  0.1011 -0.0944
11860W        W12724  18.047   7.947  25.621  0.2104 -0.0341 -0.2236
11861W        W12725  15.960  10.920   1.318 -0.2344 -0.0562  0.2992
11862W        W12726  16.017   5.356   1.253 -0.1788  0.5016 -0.1216
11863W        W12727  15.259   9.845   0.699  0.2073 -0.0430  0.0466
11864W        W12728  14.944   8.817  27.874  0.1663 -0.0176 -0.0858
11865W        W12729  14.559  10.827  27.072  0.1330 -0.1233  0.1711
11866W        W12730  16.327   9.369   0.988 -0.1356 -0.0940 -0.3455
11867W        W12731  16.128  11.521  26.269 -0.2033 -0.0767 -0.0474
11868W        W12732  18.065   8.814   0.186 -0.3385 -0.0189 -0.1331
11869W        W12733  18.835  10.562  27.720 -0.2660 -0.1931  0.3173
11870W        W12734  18.096  10.100  28.906 -0.0682  0.1603  0.0125
11871W        W12735  17.061  10.414   0.087 -0.3468 -0.2285  0.0473
11872W        W12736  16.056   6.912  25.467 -0.0842  0.1481 -0.2382
11873W        W12737  18.146   9.388  24.558 -0.0958 -0.0368  0.1424
11874W        W12738  12.605   8.016   1.668  0.3041 -0.0494 -0.0148
11875W        W12739  12.888  12.004   2.443 -0.1894  0.2815 -0.1615
11876W        W12740  14.163  10.540  26.901 -0.2288  0.3147 -0.0939
11877W        W12741  17.303   9.473   0.254 -0.1604 -0.3551 -0.2379
11878W        W12742  19.684   9.858  26.714 -0.1416  0.1019 -0.0626
11879W        W12743  18.759   9.479  23.981  0.1237 -0.1940 -0.0788
11880W        W12744  16.920   7.285  24.835  0.0783  0.1012 -0.1875
11881W        W12745  12.788   6.157  27.513 -0.1847 -0.0213 -0.0543
11882W        W12746  17.619  10.078  23.996  0.0271 -0.2911  0.1885
11883W        W12747  17.582   7.953  28.051  0.2170  0.1515  0.0433
11884W        W12748  14.437   7.546  26.638 -0.2823  0.0304  0.1743
11885W        W12749  13.005   8.900  24.605 -0.2447 -0.1609  0.0781
11886W        W12750  16.275   6.905  28.024  0.1776 -0.0110  0.1531
11887W        W12751  17.084  10.766  28.807  0.0185  0.2533  0.1662
11888W        W12752  15.911  10.654  25.093  0.0793 -0.0559  0.0567
11889W        W12753  12.945   9.905  26.200  0.2207  0.0950  0.0934
11890W        W12754  14.940   9.261   0.140 -0.0744 -0.0780 -0.2141
11891W        W12755  14.988   7.686   0.439  0.3357  0.1159  0.0280
11892W        W12756  16.873   7.073  27.473 -0.0147  0.0272  0.1959
11893W        W12757  15.352   6.490  25.759  0.1215 -0.1910  0.1742
11894W        W12758  17.499   7.773  27.598 -0.0773  0.0616  0.0321
11895W        W12759  14.786   8.442  27.177  0.1086  0.0001 -0.1412
11896W        W12760  16.612  11.702  26.274 -0.0070 -0.0384  0.2242
11897W        W12761  19.964   6.703  26.795  0.1302 -0.3971 -0.0142
11898W        W12762  14.756   8.261  24.923  0.2690  0.2065 -0.1814
11899W        W12763  18.296   6.400  28.983  0.1510  0.2750  0.3945
11900W        W12764  17.292   8.143  26.097 -0.0113  0.2393 -0.1034
11901W        W12765  14.837   6.019  26.164 -0.1032 -0.3409  0.2108
11902W        W12766  17.379   9.217   1.389  0.1139 -0.0094 -0.2129
11903W        W12767  15.737   7.646  26.275 -0.2572  0.1695 -0.0400
11904W        W12768  14.525   8.783  26.178  0.0284 -0.1821 -0.1832
11905W        W12769  17.174   9.784  26.812  0.1200 -0.2161 -0.2422
11906W        W12770  17.594  11.023  27.669 -0.0869  0.1301  0.4059
11907W        W12771  14.176   6.650  29.109  0.2356  0.1928  0.0971
11908W        W12772  16.229  11.141  27.308  0.2007 -0.1425  0.2677
11909W        W12773  16.157  11.236   1.708  0.1398  0.1410  0.0492
11910W        W12774  16.276   7.594  28.032  0.1316  0.0570  0.0238
11911W        W12775  18.965   8.476  28.212  0.1558  0.1662 -0.1131
11912W        W12776  18.977   7.288  28.718 -0.0596  0.3586 -0.1313
11913W        W12777  17.811  10.836   0.476  0.1272  0.2200 -0.3620
11914W        W12778  16.808  11.723  27.589  0.0158  0.1619  0.0190
11915W        W12779  19.378  11.559  24.214  0.3960  0.1650 -0.1041
11916W        W12780  15.973   9.074   1.336 -0.3084 -0.0231  0.3535
11917W        W12781  17.902   8.317  28.831 -0.1603 -0.0712  0.0474
11918W        W12782  20.427   8.011   0.687 -0.0967  0.4542  0.1230
11919W        W12783  18.329   7.872  28.171 -0.0732  0.1879 -0.0530
11920W        W12784  14.782  13.029   1.323 -0.2564 -0.0734 -0.2357
11921W        W12785  15.946   7.290  25.774  0.1048  0.1267 -0.1954
11922W        W12786  18.848  10.508  26.445 -0.0346 -0.0936 -0.1004
11923W        W12787  14.845   9.530   0.613 -0.2054 -0.1530  0.1227
11924W        W12788  13.871  11.464  27.925 -0.2676 -0.5138  0.1799
11925W        W12789  19.065   8.092  28.922  0.2121  0.2734  0.0672
11926W        W12790  19.209  12.866  27.723 -0.3175 -0.0983  0.1477
11927W        W12791  19.894  10.848  26.939  0.0331  0.0987  0.2613
11928W        W12792  15.105  10.734  28.435 -0.1308  0.1030  0.2272
11929W        W12793  16.879   9.267   1.120 -0.1244  0.1430  0.0354
11930W        W12794  14.763  11.285  26.747 -0.2426  0.0238 -0.0590
11931W        W12795  17.319  11.430  24.176  0.1152  0.0327  0.0222
11932W        W12796  17.150  10.368   1.987  0.0063  0.1909 -0.2471
11933W        W12797  16.420   9.234  29.129  0.2572  0.0648 -0.0354
11934W        W12798  20.931  10.291  28.166 -0.3823  0.0023  0.2473
11935W        W12799  15.101   9.262  28.765 -0.1378 -0.1052 -0.2957
11936W        W12800  16.200   8.483  24.532 -0.0935  0.0592 -0.3524
11937W        W12801  17.846  11.812  28.818 -0.3861 -0.1690 -0.1730
11938W        W12802  16.895   9.447  24.416 -0.1025 -0.2133  0.0696
11939W        W12803  16.996  11.656  28.814 -0.0366  0.2057 -0.1524
11940W        W12804  15.145   6.097   0.627  0.0177  0.1573  0.2504
11941W        W12805  18.137   6.495  27.060 -0.2732  0.0333  0.3949
11942W        W12806  17.538   9.643  27.515 -0.0745  0.0828  0.0850
11943W        W12807  17.820   9.609  22.602 -0.0765 -0.1131  0.3752
11944W        W12808  19.409  12.297  27.985  0.1622 -0.0290 -0.1183
11945W        W12809  15.042  10.312   2.925 -0.1764  0.1023 -0.1913
11946W        W12810  16.954  13.855  23.400  0.1966 -0.1835  0.1837
11947W        W12811  16.442  11.000   0.402  0.1595 -0.1462 -0.0266
11948W        W12812  15.932  11.841  28.921 -0.0698 -0.3131  0.3759
11949W        W12813  16.303  11.663  26.728  0.0502  0.0024 -0.0799
11950W        W12814  18.039  12.122   0.507 -0.0378 -0.1390 -0.0021
11951W        W12815  17.899  10.102   0.607  0.1788  0.1125 -0.1658
11952W        W12816  16.257   5.886  26.456 -0.3875 -0.2879 -0.1063
11953W        W12817  17.833  10.690  28.134 -0.1900  0.0337  0.1135
11954W        W12818  16.083   5.995  24.770  0.0495 -0.1284 -0.1072
11955W        W12819  13.897   8.470  26.605  0.3306 -0.1603  0.1013
11956W        W12820  16.883  10.365  24.077 -0.2433  0.0017 -0.0260
11957W        W12821  18.319   8.288  25.281 -0.1466  0.2281 -0.0279
11958W        W12822  16.837   9.120  28.662  0.1902 -0.0294  0.3177
11959W        W12823  17.583   5.179  28.238 -0.1766 -0.1474 -0.3087
11960W        W12824  16.155   9.073  28.705  0.1564  0.1927 -0.1477
11961W        W12825  17.746   9.759  28.838  0.2839 -0.0922 -0.0719
11962W        W12826  15.017   9.366  27.975  0.1497  0.4301  0.0393
11963W        W12827  16.499  10.401  28.549  0.1424  0.0008  0.0621
11964W        W12828  15.769   7.132  26.264 -0.4544  0.0054 -0.0179
11965W        W12829  17.254  11.898  27.450  0.1179  0.1224 -0.3803
11966W        W12830  14.329  11.632  27.943  0.1427  0.2547 -0.0242
11967W        W12831  17.778   6.098  24.249  0.2022 -0.2908  0.0319
11968W        W12832  17.284   9.331  26.948  0.0349  0.0997  0.3051
11969W        W12833  14.689   8.718   0.433 -0.0490 -0.0821  0.0388
11970W        W12834  17.234   6.739  27.738 -0.0037  0.2606  0.0099
11971W        W12835  14.973   9.644  27.526 -0.2120 -0.2261 -0.1851
11972W        W12836  16.760   9.475  27.086  0.1388 -0.0567  0.0091
11973W        W12837  20.043   8.979  27.780  0.0487 -0.0541 -0.0614
11974W        W12838  16.935  10.255   2.452  0.3581 -0.2301  0.2327
11975W        W12839  18.046   9.413  26.371  0.0216  0.0715  0.0751
11976W        W12840  15.318   9.816  27.252 -0.1248  0.2020  0.2058
11977W        W12841  16.623   9.842   1.765  0.0833  0.0817 -0.0755
11978W        W12842  14.061   9.134  28.140 -0.0011  0.3181 -0.3279
11979W        W12843  16.235   9.286  25.450 -0.0425 -0.0963 -0.0423
11980W        W12844  16.870   8.977  27.213 -0.0346 -0.0526  0.1167
11981W        W12845  15.344  12.674   0.065 -0.1612  0.1687  0.0014
11982W        W12846  17.181  10.126  27.717 -0.3257  0.2602  0.0630
11983W        W12847  19.372   9.091   0.742  0.2138  0.1461 -0.0647
11984W        W12848  17.300   9.184  27.425 -0.2013 -0.0341  0.0819
11985W        W12849  16.684   9.945  28.430  0.0113  0.1907  0.0003
11986W        W12850  18.994   8.159  25.364  0.0646  0.0001 -0.5308
11987W        W12851  17.499  14.616  27.866 -0.1716 -0.1301 -0.0345
11988W        W12852  16.038   8.855  27.778 -0.0607  0.0855  0.0379
11989W        W12853  18.014   8.958  24.612  0.0242  0.3920 -0.3949
11990W        W12854  20.641  11.338   0.533  0.1987 -0.2273  0.1064
11991W        W12855  14.843  10.350  25.813  0.1444  0.2375 -0.4836
11992W        W12856  13.589   7.741  24.810 -0.0971  0.1317 -0.1031
11993W        W12857  17.799   7.783  28.887  0.1459 -0.0756  0.0796
11994W        W12858  16.398   9.795   0.027  0.1288 -0.1656 -0.0509
11995W        W12859  19.841   8.569   0.048  0.0691  0.1884  0.0195
11996W        W12860  19.699   8.026  27.775  0.0116 -0.0068 -0.2903
11997W        W12861  13.041  10.849   0.531 -0.4300  0.1251  0.1485
11998W        W12862  18.097  10.902  28.486  0.0085  0.1594  0.2590
11999W        W12863  17.021   6.275   0.209 -0.2707 -0.1960  0.0060
12000W        W12864  17.658   9.427   1.062  0.1272  0.1670  0.0933
12001W        W12865  19.437   7.572  24.900  0.2811 -0.0542 -0.0266
12002W        W12866  15.987  11.498  25.799 -0.3787  0.0518 -0.1731
12003W        W12867  18.016  11.138  27.993  0.1017  0.1663 -0.0329
12004W        W12868  19.259  11.326  26.308  0.0197  0.2236  0.2849
12005W        W12869  17.020   9.135   0.078  0.0872  0.0794 -0.1313
12006W        W12870  17.938   8.254  27.934 -0.0578 -0.0788 -0.1761
12007W        W12871  11.959   7.914   0.235  0.1571 -0.0493 -0.3385
12008W        W12872  15.518   9.705  26.729 -0.0568  0.1728  0.1291
12009W        W12873  16.047   8.099  27.890 -0.2552  0.4233 -0.0199
12010W        W12874  18.302   7.342  28.110 -0.1409  0.0798  0.1340
12011W        W12875  15.902   9.624  27.062  0.3183 -0.1522 -0.0717
12012W        W12876  15.902  11.101   0.334  0.0299  0.2961  0.0136
12013W        W12877  14.421  11.059   0.364 -0.0839  0.2487 -0.2693
12014W        W12878  17.920  10.051  25.364  0.0881  0.1298  0.1893
12015W        W12879  18.646  10.417  25.016  0.1610 -0.1244 -0.0827
12016W        W12880  17.135   9.473  28.928 -0.2055 -0.2983  0.1308
12017W        W12881  13.888   8.638  27.901 -0.0986  0.0341 -0.0663
12018W        W12882  14.733  11.899   1.761  0.0874  0.1227  0.1919
12019W        W12883  17.707   9.173  26.643 -0.0260  0.3423 -0.0161
12020W        W12884  14.060  10.862   0.723  0.1139 -0.2188  0.0226
12021W        W12885  18.533  10.429   1.101  0.1627  0.0470  0.1968
12022W        W12886  15.420   9.456  27.666  0.0945 -0.0318  0.3619
12023W        W12887  14.781  10.103   0.122 -0.1808  0.3048 -0.0163
12024W        W12888  16.918  10.156  26.405  0.0287  0.3900 -0.0130
12025W        W12889  15.956  10.865  26.394  0.0656 -0.2747 -0.0253
12026W        W12890  16.024   8.327  25.431  0.2259 -0.1156 -0.3829
12027W        W12891  16.432   9.394   0.482  0.0076  0.0960  0.2923
12028W        W12892  16.721   7.460   0.532  0.1744  0.0118 -0.1463
12029W        W12893  18.456   6.973  26.894 -0.0066 -0.1754  0.1085
12030W        W12894  16.823  11.357   0.252 -0.0877  0.2128  0.1430
12031W        W12895  16.045  11.396   0.815  0.0687  0.0441 -0.0991
12032W        W12896  17.738  10.129  27.617 -0.2533 -0.1306 -0.0808
12033W        W12897  16.905  10.854   0.352 -0.0880  0.2792  0.0072
12034W        W12898  18.388  13.193  27.327  0.0674 -0.0585  0.0374
12035W        W12899  18.660  11.996  27.622  0.2674  0.3270 -0.2064
12036W        W12900  19.710   8.575  27.690 -0.0272  0.2982  0.0201
12037W        W12901  18.325  10.752  24.098  0.1244 -0.2112  0.2404
12038W        W12902  14.624  10.340  27.330  0.0577 -0.0927 -0.1727
12039W        W12903  17.222   9.973  29.000  0.0424  0.0228 -0.0785
12040W        W12904  14.681   8.295  25.466 -0.3623 -0.1220 -0.2418
12041W        W12905  13.353  10.770  26.861  0.0454 -0.0066  0.1501
12042W        W12906  15.344   8.349  25.625  0.0552 -0.1682 -0.0236
12043W        W12907  16.991  10.298  28.597 -0.0693 -0.0533 -0.2632
12044W        W12908  14.979   9.237  27.258 -0.0126  0.0960  0.4883
12045W        W12909  14.059   9.232  26.135  0.1651  0.2346  0.2467
12046W        W12910  17.550  10.111  28.058  0.1202  0.2048 -0.1806
12047W        W12911  15.444   9.264  27.110  0.0470  0.0271 -0.0997
12048W        W12912  18.210   8.967  28.531  0.1152  0.1057  0.0778
12049W        W12913  18.143   9.680  24.932  0.0793  0.1249  0.0636
12050W        W12914  17.962  10.593  28.883  0.1306 -0.2676 -0.0562
12051W        W12915  15.739   9.692   0.765  0.2168  0.3007  0.3782
12052W        W12916  18.718   9.859  27.170 -0.2515 -0.0729 -0.1304
12053W        W12917  17.781   6.828  24.117  0.1738  0.2758 -0.1723
12054W        W12918  17.079  11.281   0.843  0.0628 -0.0108  0.0251
12055W        W12919  17.597  10.615  27.207 -0.1468 -0.0667  0.2149
12056W        W12920  14.354   7.753  28.672  0.0561 -0.2269 -0.0366
12057W        W12921  13.867   9.166   0.380  0.2718  0.0503  0.0796
12058W        W12922  17.134  10.101  23.701 -0.1748  0.0669  0.0912
12059W        W12923  17.302   8.091  24.794  0.0321 -0.2844  0.1651
12060W        W12924  16.603   7.963  28.888  0.0842  0.1016 -0.1690
12061W        W12925  19.029   8.320  26.941 -0.0761 -0.5322  0.2845
12062W        W12926  14.336  10.112  28.998  0.2544  0.1447 -0.0552
12063W        W12927  17.032   9.678  27.492 -0.1103 -0.3644 -0.0928
12064W        W12928  15.227  10.502  26.562 -0.2227 -0.0829  0.0139
12065W        W12929  18.988   9.292  26.373 -0.2053 -0.0712 -0.0859
12066W        W12930  18.570   8.100   0.003  0.2487  0.0371 -0.2703
12067W        W12931  16.593   8.925  25.630 -0.1020  0.1283  0.2177
12068W        W12932  14.158   7.694  25.646 -0.0348  0.0568 -0.2007
12069W        W12933  16.951   7.751  24.995  0.0112  0.1020  0.1538
12070W        W12934  16.900  13.094  26.537  0.0404  0.0924 -0.4269
12071W        W12935  17.296   8.856   0.425  0.3257  0.2701  0.2127
12072W        W12936  17.854  10.321  26.177  0.4753  0.3738  0.1213
12073W        W12937  12.237   7.618   0.776 -0.1957  0.0924  0.1423
12074W        W12938  16.317   6.909  27.536 -0.1853 -0.2515 -0.2071
12075W        W12939  17.017   9.002  26.690 -0.1377  0.0943  0.1391
12076W        W12940  16.563  10.481   0.042  0.0177  0.1356 -0.1473
12077W        W12941  13.120   7.396  27.548 -0.1360 -0.1305 -0.0327
12078W        W12942  17.232   8.045  26.695 -0.0056  0.0404  0.2572
12079W        W12943  15.416  11.399  25.885 -0.0374 -0.3444 -0.0145
12080W        W12944  15.967   8.201  27.131 -0.0284 -0.0540 -0.0030
12081W        W12945  17.239   9.499  27.939  0.1105  0.2300  0.1835
12082W        W12946  16.788  10.803  28.305 -0.0035  0.1825  0.1660
12083W        W12947  19.056   8.941  29.094 -0.0809  0.0491  0.0175
12084W        W12948  16.075  10.033  26.134 -0.3406 -0.0502 -0.0251
12085W        W12949  18.620   9.050  28.822 -0.0440 -0.3029  0.1210
12086W        W12950  14.955  11.260  27.269 -0.2275  0.2970  0.0564
12087W        W12951  18.361  10.159  27.632 -0.0549 -0.1005 -0.1294
12088W        W12952  18.084   7.960   1.095 -0.0010 -0.2121  0.2039
12089W        W12953  16.769   8.812  24.787  0.0241 -0.1390  0.4415
12090W        W12954  17.685   8.315  27.012  0.0006 -0.0095  0.0039
12091W        W12955  15.590  10.868  27.654  0.1511 -0.0168  0.1938
12092W        W12956  14.724  12.467  27.785  0.1819 -0.2351 -0.0803
12093W        W12957  16.564   8.845  27.806  0.0358  0.1183  0.0892
12094W        W12958  15.968   9.627  25.837  0.3576 -0.0057 -0.1198
12095W        W12959  19.384  11.026  28.229  0.1079 -0.0283  0.3713
12096W        W12960  16.319   8.750  26.015  0.0354  0.0150 -0.1751
12097W        W12961  16.385   7.966  27.581  0.1063  0.1032 -0.4735
12098W        W12962  15.925  15.492  28.383  0.2680  0.0044 -0.1326
12099W        W12963  14.522  14.916   2.335 -0.0503  0.1033  0.1143
12100W        W12964  19.242  14.118   1.279 -0.3949  0.1049  0.1553
12101W        W12965  19.756  16.946  28.977 -0.2201 -0.0169 -0.0914
12102W        W12966  17.081  13.986  28.562 -0.1283 -0.0136  0.0074
12103W        W12967  15.527  15.647   2.174  0.0991 -0.0140 -0.1053
12104W        W12968  14.949  12.952  29.143 -0.0441  0.1508 -0.2231
12105W        W12969  18.456  12.392   1.635 -0.1565 -0.0717  0.2621
12106W        W12970  15.042  14.825   3.081 -0.2894 -0.0009  0.1337
12107W        W12971  14.944  14.482   4.534 -0.4774  0.0640 -0.1778
12108W        W12972  14.536  11.429   2.723 -0.1050  0.3402 -0.0728
12109W        W12973  17.336  10.820   1.645  0.0159  0.0188  0.2195
12110W        W12974  16.633  13.447   0.542  0.0442  0.0690 -0.2030
12111W        W12975  18.651  10.531   3.858 -0.2188  0.0462 -0.0755
12112W        W12976  14.909   9.666   1.107 -0.4352  0.0986  0.1216
12113W        W12977  14.126  14.955   4.693 -0.2280  0.0706  0.1400
12114W        W12978  16.181  13.615   0.588 -0.1248 -0.0468 -0.1644
12115W        W12979  14.130  12.381   2.188  0.4203  0.0290  0.0298
12116W        W12980  16.363  12.265   4.507  0.2270  0.0992 -0.1298
12117W        W12981  18.793  12.395   2.200  0.0825 -0.4111  0.1642
12118W        W12982  17.373  13.169   0.981 -0.0026  0.0347  0.0176
12119W        W12983  16.921  11.577   2.791 -0.1125  0.2199  0.1914
12120W        W12984  18.226  11.692  27.448  0.1047 -0.0034  0.5341
12121W        W12985  15.886  13.627   1.561 -0.3509 -0.0538 -0.0481
12122W        W12986  16.751  12.174   1.968 -0.3300 -0.0324 -0.0865
12123W        W12987  13.435  14.807   4.043  0.1556 -0.3509 -0.1874
12124W        W12988  18.750  13.720   5.211 -0.1011 -0.1357  0.0891
12125W        W12989  15.052  16.075   0.878  0.0179 -0.0534 -0.0039
12126W        W12990  15.598  13.223   2.029  0.1418  0.0251 -0.2042
12127W        W12991  15.894  12.609  28.531 -0.0232 -0.0826  0.2157
12128W        W12992  15.926  13.230   2.955  0.0104  0.1771  0.0350
12129W        W12993  18.864  14.877   3.680  0.0257 -0.0313  0.0603
12130W        W12994  16.699  12.827   3.326 -0.4369  0.2169  0.0628
12131W        W12995  16.800  11.974   4.398  0.2082 -0.1255 -0.2743
12132W        W12996  14.449  12.018   4.654  0.1770  0.1697  0.2491
12133W        W12997  18.534  14.348   0.680 -0.2283  0.1354  0.0685
12134W        W12998  13.700  10.189   2.729 -0.1778  0.0810 -0.2556
12135W        W12999  14.645  12.983   3.627 -0.0378  0.0295  0.2748
12136W        W13000  19.263  13.371   0.670  0.0767 -0.1610  0.2447
12137W        W13001  16.466  11.533   1.992 -0.3986  0.0540  0.0398
12138W        W13002  16.823   9.798   0.772  0.0401 -0.2299 -0.1089
12139W        W13003  19.922  13.871   2.722  0.2789 -0.3877  0.0531
12140W        W13004  18.089  14.286   3.342 -0.1515  0.0116 -0.3416
12141W        W13005  18.053  16.200  28.733  0.1328 -0.0571  0.1367
12142W        W13006  14.147  14.104   2.134  0.0519  0.0382 -0.1962
12143W        W13007  16.616  14.693   0.132  0.2884  0.3100  0.1884
12144W        W13008  13.873  10.971   4.414 -0.0741  0.2614 -0.0029
12145W        W13009  18.454  13.689   3.359 -0.0384 -0.3826 -0.2675
12146W        W13010  17.352  12.388   4.573 -0.2232  0.1209  0.2299
12147W        W13011  17.386  10.858   0.708 -0.0204  0.1243 -0.0983
12148W        W13012  15.009  13.957   3.381  0.0303 -0.1646  0.2252
12149W        W13013  15.833  11.045   3.083  0.0666  0.3945 -0.1292
12150W        W13014  18.989  14.367   3.645 -0.3480  0.1668  0.0679
12151W        W13015  18.220  11.160   3.102 -0.0420  0.1156 -0.0504
12152W        W13016  16.644  13.085   1.577 -0.0104  0.0992  0.2065
12153W        W13017  15.077  13.784  28.535 -0.1183  0.1622  0.0442
12154W        W13018  14.447  10.574   2.101  0.2053 -0.0015  0.1231
12155W        W13019  14.652  13.177   2.814 -0.0298 -0.0874  0.2449
12156W        W13020  12.247  12.289   0.591  0.0301 -0.0077 -0.0818
12157W        W13021  16.973  12.991   0.715  0.0713  0.0635 -0.1031
12158W        W13022  17.524  13.973  28.800 -0.2682 -0.1927 -0.0428
12159W        W13023  14.902  16.415   2.142  0.2460 -0.2738  0.1063
12160W        W13024  13.527  16.011   2.136 -0.0168 -0.0178 -0.2998
12161W        W13025  14.609  14.095   0.472  0.0231 -0.1696  0.1131
12162W        W13026  13.208  11.539   4.507 -0.0139  0.0937  0.2809
12163W        W13027  17.460  10.243   2.400  0.3391  0.2045  0.1625
12164W        W13028  15.072  12.736  28.189 -0.0896  0.0149  0.1278
12165W        W13029  16.515  12.433   0.710  0.2526  0.0969 -0.0585
12166W        W13030  13.225  12.863   0.135 -0.1329  0.1412 -0.0600
12167W        W13031  15.931  11.679   1.382 -0.1685  0.1185  0.0568
12168W        W13032  19.436  13.686   1.594  0.2001  0.2319  0.2270
12169W        W13033  14.868  12.239  28.313 -0.0923 -0.0561  0.2727
12170W        W13034  17.773  12.445   1.343  0.2552  0.1665  0.0108
12171W        W13035  16.755  10.659   4.660 -0.0191  0.0452  0.0978
12172W        W13036  18.247  15.212  28.834 -0.0475 -0.1144  0.1092
12173W        W13037  18.714  14.051   1.293 -0.2668  0.2023  0.1957
12174W        W13038  12.650  13.095   0.779 -0.3780 -0.3218  0.0638
12175W        W13039  14.642  14.144   2.430  0.1132  0.0036  0.2354
12176W        W13040  18.113  12.358   2.090  0.1367  0.1323  0.0707
12177W        W13041  12.762  14.135   2.693 -0.0719 -0.1390 -0.3089
12178W        W13042  13.988  13.233   1.723 -0.0943 -0.0968 -0.1604
12179W        W13043  13.294  14.245   2.732  0.2117  0.1046  0.1738
12180W        W13044  13.459  10.574   3.651  0.0873 -0.1623 -0.0489
12181W        W13045  14.666  10.635   3.073 -0.1103 -0.2828 -0.0349
12182W        W13046  17.206  11.186   2.549 -0.2179  0.0929 -0.0236
12183W        W13047  18.250  13.962   0.917 -0.1575  0.1961 -0.0210
12184W        W13048  18.265  16.380   1.698  0.0008 -0.1623 -0.1047
12185W        W13049  17.344  12.144   3.222 -0.3921 -0.1479  0.0835
12186W        W13050  18.244  14.406   0.219  0.1425  0.1254 -0.3017
12187W        W13051  18.353  11.822   3.902  0.4098 -0.1509  0.0084
12188W        W13052  14.184  12.817   3.975  0.3689  0.0244 -0.2771
12189W        W13053  17.869  12.728   2.844  0.1089 -0.0872  0.2354
12190W        W13054  15.339  12.777   1.991  0.2259 -0.1614 -0.4135
12191W        W13055  10.862  12.842   1.395  0.1531  0.6170  0.0286
12192W        W13056  14.106  12.540   6.401  0.0756  0.0761 -0.1718
12193W        W13057  17.646  11.832   1.380  0.0715 -0.2240  0.0017
12194W        W13058  18.287  10.440   1.653  0.0687  0.1820  0.1202
12195W        W13059  18.551  15.364   6.234  0.2775 -0.2384 -0.0756
12196W        W13060  15.688  10.747   4.052 -0.1162 -0.0154  0.0458
12197W        W13061  16.585  10.238   2.882  0.0539  0.0813 -0.0148
12198W        W13062  18.882  12.274  27.944 -0.4073 -0.1365 -0.3802
12199W        W13063  13.277  13.406   4.569  0.0883 -0.1949  0.0810
12200W        W13064  15.452  11.920   0.042  0.1964  0.0151 -0.0245
12201W        W13065  17.831  13.542   2.362 -0.0431 -0.1314  0.1201
12202W        W13066  15.095  11.568   1.379 -0.2048 -0.2211  0.0062
12203W        W13067  13.937  11.427   4.367  0.0807  0.0844 -0.0161
12204W        W13068  15.109  13.415   3.617 -0.0635  0.2657 -0.1883
12205W        W13069  18.256  13.476   2.559  0.0016  0.0461  0.0558
12206W        W13070  17.503   9.947   4.255  0.3637  0.1430 -0.0341
12207W        W13071  12.708  14.018   0.648  0.1316  0.1849 -0.3140
12208W        W13072  15.887  13.331   2.487 -0.0790 -0.4108 -0.1332
12209W        W13073  17.545  14.427  29.079  0.3767 -0.1059  0.0686
12210W        W13074  15.860  10.240   4.605  0.2728 -0.0556  0.0897
12211W        W13075  19.313  15.742   5.797 -0.0446 -0.1112  0.2950
12212W        W13076  18.489  12.563   3.627 -0.1811 -0.0208 -0.2037
12213W        W13077  16.928  13.549   0.142  0.2800  0.0224 -0.3951
12214W        W13078  16.239  11.055   2.810 -0.0599  0.0224 -0.1910
12215W        W13079  18.177  15.749   4.257 -0.0463  0.3770  0.4135
12216W        W13080  15.221  10.745   3.147 -0.0840  0.2452 -0.0858
12217W        W13081  18.366  11.690   0.473 -0.1408 -0.0454  0.0424
12218W        W13082  17.366  13.211  27.498 -0.2767 -0.0374 -0.2733
12219W        W13083  17.332  12.397  27.932 -0.3122  0.0500  0.2959
12220W        W13084  13.825  12.094   1.906  0.1899  0.1181 -0.1546
12221W        W13085  16.406  14.275  29.057  0.1509 -0.5455  0.0658
12222W        W13086  16.918  11.778   3.302 -0.2980  0.4744  0.3967
12223W        W13087  16.671  11.071   1.869  0.2671  0.1159 -0.1085
12224W        W13088  14.300   8.046   1.442 -0.1011  0.0740  0.0120
12225W        W13089  18.623  12.636   4.123  0.0647 -0.0188 -0.0181
12226W        W13090  16.454  12.765   1.115  0.0191 -0.2481 -0.1812
12227W        W13091  13.984  12.965   0.063 -0.1568 -0.1034  0.1631
12228W        W13092  20.116  15.878   1.460 -0.2400 -0.2774  0.2547
12229W        W13093  14.338  12.523   3.621  0.1525  0.1891 -0.4065
12230W        W13094  17.079  14.247   4.301  0.2927  0.0852 -0.1021
12231W        W13095  16.602  14.018   0.819  0.1072  0.2757  0.0901
12232W        W13096  19.724  14.847   3.085  0.2568  0.4535 -0.1261
12233W        W13097  13.546  10.684   2.442  0.6551 -0.3187 -0.0154
12234W        W13098  15.072  12.160   3.153  0.2085 -0.0621 -0.0084
12235W        W13099  17.358  15.558   3.493  0.2070 -0.0555  0.0803
12236W        W13100  17.436  14.531   0.877  0.1771  0.3424 -0.1907
12237W        W13101  17.178  10.648   2.588  0.1273  0.0269  0.1503
12238W        W13102  16.912  10.525   6.578  0.1081  0.1242 -0.0813
12239W        W13103  15.206  10.777   4.262 -0.1327  0.1578 -0.1868
12240W        W13104  15.751  13.196   0.582  0.0191 -0.1535 -0.2042
12241W        W13105  14.210  13.659   1.675  0.2795 -0.0640  0.1158
12242W        W13106  15.442  12.039   3.528 -0.0066  0.2930 -0.0974
12243W        W13107  15.882  11.917   2.694 -0.0966 -0.1023  0.0445
12244W        W13108  16.104  10.458   2.816  0.2943 -0.0387 -0.1959
12245W        W13109  16.924  13.528   1.636  0.0152 -0.0650  0.0006
12246W        W13110  16.460  13.886   2.757 -0.1113  0.1860 -0.0315
12247W        W13111  15.580  12.276   1.469  0.0432 -0.1404  0.3367
12248W        W13112  15.683  12.714   1.143 -0.1617 -0.2169  0.1638
12249W        W13113  14.034  13.657   3.852 -0.1763 -0.0309 -0.0888
12250W        W13114  13.386  12.901   2.622 -0.2467  0.0616  0.0679
12251W        W13115  17.178  10.001   0.391  0.3589 -0.2064 -0.1846
12252W        W13116  16.471  12.749   4.191 -0.0325  0.0336 -0.3112
12253W        W13117  16.862  11.861   3.837 -0.0131 -0.0010 -0.0799
12254W        W13118  11.581  14.282   1.834  0.1575  0.0886 -0.0696
12255W        W13119  18.508  14.548  27.913 -0.2802  0.1275  0.1692
12256W        W13120  13.906  12.282   1.391  0.4423 -0.2187  0.2260
12257W        W13121  16.598  13.972   1.761  0.1011  0.2790  0.1050
12258W        W13122  15.999  10.192   3.246  0.0085 -0.1223 -0.3579
12259W        W13123  14.191  15.649   1.285 -0.0733 -0.1967 -0.1609
12260W        W13124  16.429  11.610   2.678 -0.1137  0.0522 -0.0399
12261W        W13125  21.029  13.066   2.310  0.2486  0.0145 -0.1947
12262W        W13126  14.622   9.702   4.736 -0.1261  0.0468  0.0672
12263W        W13127  16.600  12.406   2.400  0.1245 -0.0715 -0.0593
12264W        W13128  15.112  13.011   3.337 -0.2169  0.2798  0.1747
12265W        W13129  15.023  13.220  28.411  0.1078  0.1593 -0.0218
12266W        W13130  18.105  15.025   3.133  0.2184  0.4277  0.0740
12267W        W13131  13.812  12.373   0.847 -0.0115  0.0190 -0.0349
12268W        W13132  16.020  12.820   2.183 -0.0110 -0.2108  0.0234
12269W        W13133  18.674  13.222   1.379 -0.0353  0.0577 -0.2443
12270W        W13134  14.707  14.651   2.700  0.0325  0.0220 -0.0344
12271W        W13135  17.543  14.239   3.199 -0.3525 -0.2050  0.0626
12272W        W13136  15.611   9.822   1.660 -0.2364  0.0570 -0.2762
12273W        W13137  18.294   8.480  28.560 -0.0688  0.2795  0.0167
12274W        W13138  16.186  13.841   1.965 -0.0328  0.0242  0.0209
12275W        W13139  14.259  14.185   2.835 -0.0781 -0.0396  0.0036
12276W        W13140  13.270  12.965   2.124  0.3207 -0.0283  0.0186
12277W        W13141  16.146  12.851   3.454  0.0925 -0.1435  0.0763
12278W        W13142  16.289  12.834  27.959 -0.1889 -0.2668  0.1512
12279W        W13143  18.487  13.089   2.341  0.1450  0.3059 -0.1099
12280W        W13144  16.128  12.482   1.505  0.0376 -0.0831 -0.0617
12281W        W13145  17.759  13.323   1.837  0.0282 -0.1598  0.2919
12282W        W13146  16.419  12.518   3.718 -0.0191 -0.1835  0.2116
12283W        W13147  18.998  13.628   3.187 -0.1978 -0.1835 -0.4222
12284W        W13148  16.434  12.894   2.497 -0.0078 -0.2394 -0.1027
12285W        W13149  14.229  11.032  28.948 -0.0982  0.0648  0.5253
12286W        W13150  16.101  13.350   1.991  0.0642 -0.0423  0.1676
12287W        W13151  12.977  14.413   3.119 -0.0224 -0.0694  0.1401
12288W        W13152  15.525  14.658   0.511  0.0257 -0.0404 -0.1336
12289W        W13153  13.178  12.281  27.952  0.3830 -0.0424  0.0835
12290W        W13154  15.500  14.786   2.261 -0.0785  0.1965 -0.0328
12291W        W13155  17.675  10.034   4.877  0.1039  0.0769  0.2142
12292W        W13156  16.826  12.838   3.833 -0.1033 -0.0392  0.0474
12293W        W13157  15.857   9.099   2.194 -0.0046 -0.0190 -0.0403
12294W        W13158  19.413  11.054   1.005 -0.1902  0.0469  0.0398
12295W        W13159  14.511  12.167   4.097  0.2640  0.0842  0.0323
12296W        W13160  14.812  11.862   2.601  0.2564  0.0654 -0.0482
12297W        W13161  16.899  10.494   3.787  0.1494  0.0109  0.1065
12298W        W13162  14.894   9.191   3.562  0.1899  0.2756 -0.0056
12299W        W13163  17.885  12.761   1.831 -0.1932  0.2063  0.1723
12300W        W13164  15.430  11.785   1.656  0.0418 -0.2351  0.3681
12301W        W13165  16.483  13.381   2.571 -0.1430 -0.0398 -0.1036
12302W        W13166  17.257  12.769   3.584  0.0249  0.2380 -0.0443
12303W        W13167  14.573  13.706   3.632  0.1039 -0.1850  0.0019
12304W        W13168  16.468  13.198   3.576 -0.2876  0.0132  0.3129
12305W        W13169  17.946  10.538   4.290 -0.2631 -0.0451  0.3331
12306W        W13170  17.932  14.495   1.084  0.0610 -0.1948 -0.0512
12307W        W13171  10.882  13.407   0.514 -0.0612  0.2356  0.1552
12308W        W13172  17.780  11.327   4.457 -0.2232 -0.0202  0.3304
12309W        W13173  14.232  11.687   3.700  0.0947  0.1221 -0.3923
12310W        W13174  15.747  13.861   3.638 -0.1528  0.3088 -0.0035
12311W        W13175  19.162  12.469   2.508  0.0086 -0.0371  0.2504
12312W        W13176  20.420  13.051   3.035  0.1591 -0.0416 -0.0314
12313W        W13177  20.194  13.765   0.588 -0.1283 -0.0414 -0.0341
12314W        W13178  14.198  13.100   1.297 -0.0853 -0.3338 -0.2024
12315W        W13179  15.196  12.819   0.978 -0.1905  0.4857 -0.1466
12316W        W13180  18.717  13.376   5.640 -0.1314 -0.0148 -0.0533
12317W        W13181  15.978  13.397   3.441  0.0149  0.0090  0.0087
12318W        W13182  17.099   9.362   5.100 -0.3058 -0.2015  0.3503
12319W        W13183  17.948  15.040   3.590  0.1926 -0.2615  0.2054
12320W        W13184  18.097  15.837   2.986 -0.2823 -0.0260 -0.0192
12321W        W13185  15.665  11.437   2.591  0.2375  0.0104 -0.0286
12322W        W13186  18.576  13.483   0.964 -0.1646 -0.0493 -0.1582
12323W        W13187  16.087  13.495   4.927 -0.1612  0.0014  0.0383
12324W        W13188  15.930  13.303   5.405  0.0451 -0.0573 -0.2722
12325W        W13189  18.562  14.921   4.482 -0.1825 -0.0009  0.2126
12326W        W13190  17.685  12.083   2.344  0.3951  0.0227  0.1923
12327W        W13191  15.562  13.178   1.033  0.1769  0.0437  0.2693
12328W        W13192  14.563  12.781   2.561 -0.1247  0.1242  0.2628
12329W        W13193  16.209   9.604   6.537 -0.2339 -0.0512  0.1213
12330W        W13194  14.354  13.818   0.031  0.3649 -0.1060 -0.0380
12331W        W13195  14.590  12.054   3.637  0.1524  0.1563 -0.2992
12332W        W13196  13.694  12.654   3.561 -0.0883  0.1305  0.2850
12333W        W13197  16.159  15.927   0.594 -0.2911 -0.1086  0.1822
12334W        W13198  16.206  10.639   4.567 -0.1958  0.2933  0.1742
12335W        W13199  16.599  12.329   6.286 -0.1258  0.2168  0.0407
12336W        W13200  15.465  15.297  29.062  0.0957  0.1085  0.1280
12337W        W13201  20.510  14.713   3.842 -0.1286 -0.0093  0.2609
12338W        W13202  16.386  13.448   3.070 -0.0367 -0.2165 -0.2668
12339W        W13203  14.122  14.887   2.885 -0.1132  0.0988 -0.1057
12340W        W13204  16.670  11.235   2.417 -0.0315 -0.0221  0.1746
12341W        W13205  14.151  12.440   2.669 -0.0016 -0.1226  0.0177
12342W        W13206  17.930  13.520   3.598 -0.3667 -0.0782 -0.0275
12343W        W13207  15.682  12.302   0.345  0.1402 -0.1681 -0.0254
12344W        W13208  18.106  12.134   1.026 -0.0260 -0.0351  0.1602
12345W        W13209  18.227  15.808   4.750  0.0034  0.1211 -0.0855
12346W        W13210  19.221  15.596  28.181  0.0112 -0.2139 -0.0439
12347W        W13211  15.550  11.632   4.250  0.2306  0.0596 -0.0599
12348W        W13212  14.522  13.693   2.119  0.0505  0.2724 -0.1337
12349W        W13213  15.436  15.211   0.887  0.3984  0.0765  0.0169
12350W        W13214  19.489  13.831   5.806 -0.1034  0.1048 -0.2539
12351W        W13215  16.252   9.498   5.319 -0.0818 -0.0156  0.4123
12352W        W13216  14.685  13.344   0.830 -0.1006  0.0976 -0.0863
12353W        W13217  18.224  13.666  28.799 -0.2874  0.0639 -0.1715
12354W        W13218  15.111  12.848   3.777 -0.3051  0.1937 -0.1739
12355W        W13219  16.470   8.722   3.053 -0.1459 -0.3303 -0.0304
12356W        W13220  17.292  13.290   1.424 -0.1147  0.0809 -0.0170
12357W        W13221  17.882  11.678   2.613 -0.2210  0.0038  0.0271
12358W        W13222  12.622  12.430   2.828 -0.0169 -0.0915 -0.3983
12359W        W13223  13.759  12.150   2.905  0.0832 -0.1024  0.2071
12360W        W13224  19.213  12.070   3.686 -0.1232  0.1625 -0.0620
12361W        W13225  13.471  13.935   5.277 -0.1197  0.2533  0.2486
12362W        W13226  17.118  11.661   0.491 -0.2673  0.1343  0.0309
12363W        W13227  16.973  15.233   3.958  0.0863  0.2008  0.2973
12364W        W13228  18.917  12.488   0.617  0.0060  0.0136  0.1331
12365W        W13229  18.197  13.517   0.126  0.1947 -0.1003 -0.0328
12366W        W13230  16.068  12.991   3.939  0.0272 -0.0401 -0.1535
12367W        W13231  16.761  12.018   1.438  0.0374 -0.0211  0.2628
12368W        W13232  14.402  15.608   1.773  0.0584 -0.2016  0.4305
12369W        W13233  20.237  13.366   2.618 -0.2885  0.0186  0.3256
12370W        W13234  17.472  12.428   2.634 -0.3482  0.1345  0.1484
12371W        W13235  15.122  11.315   4.160  0.1551  0.0690 -0.0049
12372W        W13236  17.844  13.792   0.459 -0.1067  0.2040  0.2278
12373W        W13237  16.578  12.500   1.557 -0.0406 -0.1695 -0.2028
12374W        W13238  17.123  11.547   4.279  0.0707  0.0920 -0.1694
12375W        W13239  15.160  13.174   1.657 -0.3196 -0.4192  0.0137
12376W        W13240  17.793  13.371  28.205 -0.4294 -0.0621  0.1723
12377W        W13241  14.837  15.117  29.010 -0.1347  0.0768  0.1472
12378W        W13242  14.383  13.846   5.217  0.1178  0.0710 -0.2358
12379W        W13243  14.930  12.349   2.651 -0.0033  0.0174  0.0203
12380W        W13244  14.010  12.169   3.800 -0.0605  0.2069 -0.2988
12381W        W13245  14.198  14.459  29.075 -0.3002 -0.0714  0.0627
12382W        W13246  18.409  13.118   4.220 -0.1736 -0.2162  0.3073
12383W        W13247  16.717  11.126   2.902  0.0644  0.2071  0.2050
12384W        W13248  15.921  12.066   1.817  0.2336 -0.3102  0.1183
12385W        W13249  15.506  15.576   2.750 -0.0002  0.3521 -0.2094
12386W        W13250  16.173  12.932   0.765  0.1456 -0.2030  0.1256
12387W        W13251  17.976  13.810   1.808  0.0179 -0.0237  0.2416
12388W        W13252  15.329  11.942   2.706 -0.2118 -0.1369 -0.2441
12389W        W13253  17.399  11.968  28.784 -0.1735  0.4260  0.3189
12390W        W13254  18.187  11.003   1.376 -0.1648 -0.0663 -0.0674
12391W        W13255  14.561  14.464   0.846 -0.2046  0.1984 -0.0660
12392W        W13256  14.492  15.442   3.828  0.1744  0.0140 -0.1668
12393W        W13257  15.663  12.800   2.546  0.0243 -0.1912  0.1439
12394W        W13258  15.188   9.190   2.448  0.0103 -0.0721 -0.1311
12395W        W13259  17.595  13.484   3.136  0.0333 -0.0321 -0.1074
12396W        W13260  18.456  10.018   1.431 -0.1563 -0.1338 -0.1055
12397W        W13261  13.434  14.024   1.277  0.0936  0.3951  0.3716
12398W        W13262  13.907  13.811   1.235 -0.1516 -0.0034  0.1156
12399W        W13263  16.147  11.733   6.689 -0.0720  0.5659  0.0045
12400W        W13264  16.486  15.760   4.893  0.1077 -0.0186 -0.1726
12401W        W13265  19.364  10.783   0.127  0.1217  0.1866 -0.0745
12402W        W13266  18.859  12.901  25.744  0.1628  0.0339  0.1069
12403W        W13267  18.977  15.076   3.158  0.0735 -0.3206 -0.1849
12404W        W13268  20.409  14.875   1.809  0.2453 -0.1806  0.0683
12405W        W13269  13.738  11.141   1.761  0.0629 -0.2807  0.0411
12406W        W13270  17.211  12.254   2.132 -0.1986  0.1486 -0.3019
12407W        W13271  14.000  13.523   2.109  0.0008 -0.1625  0.3273
12408W        W13272  15.223  13.328   0.732  0.2695 -0.0827  0.0735
12409W        W13273  16.745  12.849   6.071  0.2167 -0.0799 -0.2351
12410W        W13274  13.912  13.577  29.145 -0.3362 -0.3835 -0.3136
12411W        W13275  16.728  17.209   2.772 -0.1605 -0.0818 -0.1625
12412W        W13276  15.733  13.319   4.373  0.0178  0.1958 -0.1073
12413W        W13277  17.704  13.106   3.504 -0.1620  0.1105 -0.0382
12414W        W13278  16.356  13.498   1.611 -0.0635 -0.2210  0.2888
12415W        W13279  20.052  10.705   2.081 -0.1994  0.0509  0.1024
12416W        W13280  16.246  13.133   4.473  0.1521 -0.3380  0.0800
12417W        W13281  12.544  12.746   2.395  0.2755 -0.0308  0.0939
12418W        W13282  15.711  13.789   4.144 -0.0077 -0.2100 -0.1556
12419W        W13283  18.885  14.838  27.500  0.2155 -0.2067  0.0697
12420W        W13284  14.512  13.950   4.666  0.0905  0.0809 -0.0243
12421W        W13285  17.384  13.046   3.954  0.2448 -0.2439  0.1567
12422W        W13286  13.162  13.775   4.281 -0.0771  0.0785 -0.0221
12423W        W13287  16.837  13.947   4.646  0.0413 -0.3435  0.0609
12424W        W13288  14.784  11.103   2.363  0.3104  0.0661  0.2073
12425W        W13289  13.409  13.743   0.045  0.0088  0.1328 -0.1801
12426W        W13290  16.532  14.322   1.429 -0.1852  0.0086 -0.1771
12427W        W13291  12.072  13.492   3.243  0.3995 -0.0834 -0.1442
12428W        W13292  14.926  11.068   2.849  0.2150 -0.3464 -0.1450
12429W        W13293  17.840  10.606   1.495 -0.1471 -0.0536  0.0141
12430W        W13294  19.084  12.395   1.619 -0.1621 -0.3121  0.3050
12431W        W13295  16.952  16.042   5.313 -0.1275 -0.0430 -0.0902
12432W        W13296  15.899  13.045   4.912  0.0016  0.0521  0.0219
12433W        W13297  20.775  15.178   4.124  0.1562  0.1255  0.1379
12434W        W13298  16.140  14.799   2.320  0.2614 -0.0944  0.0002
12435W        W13299  19.073  14.244   4.409  0.2362 -0.1893  0.1101
12436W        W13300  17.884  15.463   1.843  0.1179 -0.1362  0.1336
12437W        W13301  16.529   9.888   2.288  0.3587 -0.0406 -0.1713
12438W        W13302  16.482  13.619  28.083  0.0822  0.0492 -0.0857
12439W        W13303  13.538  11.573   2.607  0.1464  0.2116 -0.1214
12440W        W13304  15.796  12.382   2.242 -0.1010 -0.3619  0.2538
12441W        W13305  16.183  12.977   1.654 -0.0314 -0.0949 -0.0552
12442W        W13306  17.052  14.177  29.101 -0.1396 -0.3365  0.1149
12443W        W13307  12.517  13.688   3.002 -0.0331 -0.0382  0.3217
12444W        W13308  14.451  12.156   1.203 -0.1361  0.0697 -0.0912
12445W        W13309  13.122  11.866   3.462  0.0982 -0.1388 -0.1691
12446W        W13310  13.919  14.582   3.848 -0.0019 -0.0594 -0.1136
12447W        W13311  13.626  11.661   2.005  0.2106 -0.2920 -0.1436
12448W        W13312  18.577  11.801   2.906  0.0049 -0.0119 -0.1422
12449W        W13313  18.559   9.522  28.811  0.2075  0.2395 -0.0192
12450W        W13314  20.356  14.278   2.742 -0.2967  0.2753 -0.0962
12451W        W13315  12.842  14.077   2.157 -0.1027  0.1903  0.1693
12452W        W13316  14.034  16.133   1.251  0.0133  0.4205 -0.1765
12453W        W13317  16.515  11.727  29.121  0.0770 -0.2927 -0.0759
12454W        W13318  14.551  13.319   1.757 -0.1264  0.2939 -0.4284
12455W        W13319  16.961  13.535   2.479  0.1179 -0.0512 -0.1440
12456W        W13320  14.848  13.494   4.482  0.1502 -0.1452 -0.2590
12457W        W13321  16.862  15.529   2.643  0.0655  0.3362 -0.2007
12458W        W13322  14.580  13.368  28.376  0.0676 -0.3278 -0.2094
12459W        W13323  15.327   9.862   6.926 -0.0337 -0.0858  0.1859
12460W        W13324  13.020  12.661   5.677  0.3568  0.1587  0.2751
12461W        W13325  17.300   9.048   0.913  0.0067 -0.2166  0.0749
12462W        W13326  18.553  14.188   3.463  0.1624 -0.3338  0.1892
12463W        W13327  18.409  11.402   3.529  0.0403  0.1361  0.2909
12464W        W13328  16.454  15.391   0.536  0.2894  0.1114  0.1026
12465W        W13329  16.862  13.269   1.165 -0.2035 -0.0122  0.0285
12466W        W13330  14.300  12.331   1.663  0.0370 -0.0147  0.1787
12467W        W13331  16.206  11.860   2.228  0.1629  0.1510  0.2311
12468W        W13332  15.391  14.125   4.322  0.0292 -0.1475  0.3785
12469W        W13333  17.498  10.949   3.297 -0.2958 -0.1830  0.1807
12470W        W13334  16.802  11.783   2.350 -0.0723 -0.1314 -0.3878
12471W        W13335  17.551  10.837   4.349  0.3412 -0.2208 -0.0692
12472W        W13336  17.890  12.686   0.912 -0.1910 -0.3782  0.2890
12473W        W13337  15.498  11.749   3.137 -0.0669 -0.0262  0.0629
12474W        W13338  17.014  12.568   1.839  0.1791 -0.1410  0.1958
12475W        W13339  19.414  14.382   0.521  0.1155  0.0465  0.2199
12476W        W13340  16.939  11.646   5.172 -0.0599 -0.0203 -0.1891
12477W        W13341  12.577  14.201   6.986  0.0701 -0.2356  0.0267
12478W        W13342  15.091   9.962   1.701  0.0212  0.0788  0.0191
12479W        W13343  13.867  14.085   3.545  0.2904  0.1674 -0.1637
12480W        W13344  17.528  14.273   1.426 -0.0205 -0.0730 -0.3317
12481W        W13345  20.749  13.176   1.273 -0.0341  0.3065  0.1048
12482W        W13346  19.141  13.265   2.052  0.1747 -0.2094 -0.0538
12483W        W13347  19.380  13.592   2.420 -0.0771 -0.1727  0.2141
12484W        W13348  19.029  14.627   0.030  0.1239 -0.1738  0.0178
12485W        W13349  15.758  12.642   1.762  0.0046  0.0496 -0.2933
12486W        W13350  13.898  14.267   4.788 -0.1704 -0.0754 -0.0656
12487W        W13351  17.224  12.809   4.760  0.0084  0.5060 -0.2918
12488W        W13352  17.355  12.558   4.087  0.0492  0.2622  0.0842
12489W        W13353  15.058  12.887   0.531 -0.1092  0.0647  0.1500
12490W        W13354  17.932  11.402   1.221  0.2409 -0.0230  0.3655
12491W        W13355  16.394  12.130   2.765 -0.2749 -0.1108 -0.0380
12492W        W13356  18.085  13.459   3.080  0.1642  0.0427 -0.3298
12493W        W13357  15.595  11.877   2.255 -0.2611  0.1805  0.3065
12494W        W13358  14.816  13.816   1.567  0.0867  0.0052  0.3704
12495W        W13359  12.304  14.190   3.127  0.0174 -0.2063  0.3872
12496W        W13360  15.082  13.477   1.300 -0.2576  0.1011 -0.1234
12497W        W13361  14.513  11.408  28.851 -0.0089 -0.2425 -0.2011
12498W        W13362  18.518  13.756   7.656  0.0055 -0.2880 -0.0189
12499W        W13363  16.381  14.194   6.638  0.1243 -0.3296 -0.0184
12500W        W13364  19.500  13.471   6.146  0.3653  0.0110  0.4444
12501W        W13365  18.462  13.218   6.170  0.0102 -0.2177  0.0497
12502W        W13366  15.869  15.337   5.951  0.1764  0.0259 -0.1116
12503W        W13367  15.544  12.909   6.623  0.0209 -0.0160 -0.0152
12504W        W13368  17.145  12.532   3.035 -0.1218  0.1902  0.3467
12505W        W13369  16.194  13.717   4.435  0.2453 -0.0677  0.1266
12506W        W13370  17.355  13.048   5.573 -0.1041  0.1862  0.1778
12507W        W13371  15.383   9.658   9.135  0.0242  0.0926 -0.0088
12508W        W13372  14.128   9.936   4.650  0.0851  0.5802 -0.0935
12509W        W13373  17.566  10.987   8.276 -0.2351  0.1063  0.0394
12510W        W13374  15.314  10.792   5.500 -0.0722  0.1993  0.2080
12511W        W13375  16.643  13.339   5.933  0.2211 -0.0300 -0.0911
12512W        W13376  13.725  10.424   6.534  0.2209  0.3311  0.0997
12513W        W13377  12.533  15.967   4.913 -0.0150 -0.1344  0.3844
12514W        W13378  15.732  14.740   3.127 -0.0745  0.1436  0.0462
12515W        W13379  16.496  14.037   8.798  0.0600  0.1495  0.1086
12516W        W13380  16.483  11.877   7.944  0.1250  0.1654 -0.1317
12517W        W13381  17.059  11.391   7.684 -0.1178 -0.2369  0.2555
12518W        W13382  20.594  12.636   3.325 -0.0150  0.1511 -0.1068
12519W        W13383  17.402  13.381   5.226 -0.0254 -0.0947 -0.0346
12520W        W13384  17.135  13.369   4.737  0.0741  0.2240 -0.0307
12521W        W13385  15.827  14.519   8.365  0.0743 -0.2658  0.1165
12522W        W13386  16.162  14.237   7.097  0.0469 -0.2128 -0.0347
12523W        W13387  19.555  11.808  10.026 -0.2777 -0.3801 -0.0579
12524W        W13388  20.774  13.723   7.740 -0.1749  0.1902 -0.2232
12525W        W13389  15.426  13.548   8.155  0.0086  0.0273 -0.2834
12526W        W13390  17.173  13.275   8.653 -0.0438  0.1538  0.0140
12527W        W13391  15.899  11.800   5.162 -0.2484  0.1857  0.1135
12528W        W13392  16.649  13.050   5.564 -0.1378  0.2615 -0.2011
12529W        W13393  17.704  13.568   6.645  0.2394 -0.0354  0.0786
12530W        W13394  18.707  11.876   8.617 -0.0601 -0.0082  0.2477
12531W        W13395  17.984  10.925   6.004 -0.1420  0.1550  0.0988
12532W        W13396  14.821  12.011   9.317 -0.1061  0.3443 -0.1616
12533W        W13397  21.231  12.290   6.356 -0.2155  0.1443  0.1393
12534W        W13398  15.290  11.177   7.873 -0.2786 -0.0892 -0.2513
12535W        W13399  17.174  14.105  10.656 -0.0798  0.0028 -0.0808
12536W        W13400  19.212  11.196   5.872 -0.1189  0.1682  0.0916
12537W        W13401  17.314  12.751   6.051 -0.1293 -0.0452 -0.1814
12538W        W13402  18.684  12.669   5.189 -0.2656 -0.1140  0.2493
12539W        W13403  19.745  12.084   7.239 -0.2184 -0.0766 -0.1342
12540W        W13404  18.269  13.121   8.808 -0.3014 -0.1667 -0.1412
12541W        W13405  18.757  12.757   1.583 -0.3278  0.0667 -0.3344
12542W        W13406  17.124  14.513   7.737 -0.1999 -0.0728  0.2852
12543W        W13407  16.575  17.396   3.309 -0.1327 -0.1703 -0.1198
12544W        W13408  15.224  12.732   6.254 -0.2040 -0.1449 -0.2664
12545W        W13409  19.909  13.919   6.995  0.1503  0.1968 -0.0140
12546W        W13410  18.192  12.842   5.866 -0.2847  0.1873  0.0245
12547W        W13411  16.156  15.029   4.290  0.1533  0.0876  0.0616
12548W        W13412  16.430  15.523   4.139 -0.0098 -0.0509  0.0538
12549W        W13413  16.459  10.784   4.158 -0.1415  0.0959 -0.1462
12550W        W13414  18.791  13.023   3.668  0.0588  0.1642  0.0486
12551W        W13415  17.005   9.681   4.240 -0.1067 -0.0812 -0.1344
12552W        W13416  17.773  10.655   4.799  0.0895  0.3771 -0.2364
12553W        W13417  17.065  12.283   3.598  0.1393  0.3270 -0.2143
12554W        W13418  14.734  11.243   5.564 -0.3390 -0.0333 -0.0036
12555W        W13419  18.773   9.874   1.812  0.2389  0.0168  0.0546
12556W        W13420  15.169  13.689   5.883 -0.0208  0.1780 -0.0177
12557W        W13421  17.129  13.982   6.020 -0.0961  0.1848  0.1410
12558W        W13422  19.654  13.755   3.821 -0.0942  0.1044  0.1914
12559W        W13423  14.129  14.585   6.957 -0.0876 -0.0435 -0.2959
12560W        W13424  17.931  13.195   4.075  0.1783 -0.2603 -0.4073
12561W        W13425  13.715  13.655   6.490 -0.0081 -0.3005 -0.0689
12562W        W13426  17.051  12.925   6.449  0.3597 -0.1073 -0.1418
12563W        W13427  19.182   9.433   7.479 -0.0508  0.2435  0.1068
12564W        W13428  14.170  11.992   3.301 -0.1896  0.0826  0.4100
12565W        W13429  17.512  13.511   3.855  0.2607 -0.1679  0.0766
12566W        W13430  13.416  15.420   5.737 -0.1329  0.1435 -0.2029
12567W        W13431  15.888  14.441   5.543 -0.2021 -0.1124  0.1995
12568W        W13432  17.566  12.439   8.506  0.2382  0.1922  0.0046
12569W        W13433  17.450   9.449   4.222 -0.0550 -0.2898  0.0621
12570W        W13434  17.156  12.358   5.010 -0.0056  0.0912 -0.0162
12571W        W13435  17.639  11.473   8.476 -0.0026 -0.1385 -0.4084
12572W        W13436  17.620  14.666   4.769 -0.0364  0.1450 -0.0783
12573W        W13437  17.068  15.546   8.788 -0.1160 -0.3821 -0.0144
12574W        W13438  13.364  12.052   5.358 -0.1335 -0.0957 -0.1673
12575W        W13439  17.048  13.374  10.440 -0.0931 -0.0053 -0.0953
12576W        W13440  15.663  10.595   5.014  0.1014 -0.2041 -0.1252
12577W        W13441  16.717  12.054   4.957  0.3217  0.1190 -0.1085
12578W        W13442  14.433  14.953   7.927 -0.0507 -0.1984 -0.0739
12579W        W13443  15.066  10.846   5.965  0.2126 -0.3048  0.1535
12580W        W13444  17.120  12.397   6.356 -0.0872 -0.1278 -0.1458
12581W        W13445  13.724   9.745   5.141 -0.0747 -0.1130  0.3025
12582W        W13446  15.104  10.606   9.645  0.0305  0.2081 -0.0418
12583W        W13447  17.916  11.825   3.488  0.0745 -0.1770 -0.0414
12584W        W13448  19.357  12.436   5.977 -0.1898 -0.2988  0.0188
12585W        W13449  18.525  12.227   8.322  0.1604  0.1285  0.2789
12586W        W13450  18.410  13.827   7.158  0.0255 -0.4016  0.3514
12587W        W13451  17.844  11.306   6.388 -0.0399 -0.0643  0.2961
12588W        W13452  17.241  11.772   5.556 -0.0027  0.0693  0.0752
12589W        W13453  19.696  12.680   7.486  0.0357 -0.2366  0.0741
12590W        W13454  15.865  15.024   5.493 -0.0785 -0.0402 -0.0979
12591W        W13455  15.190  13.930   4.781  0.1642  0.2384  0.0483
12592W        W13456  18.077  10.810   8.027  0.1258 -0.0834 -0.0091
12593W        W13457  17.819  12.147   6.775  0.2720  0.2530  0.2095
12594W        W13458  18.175  11.767   6.727  0.1724 -0.1283 -0.3481
12595W        W13459  13.296  17.326   7.828 -0.3608 -0.1259  0.1958
12596W        W13460  16.043   7.985   3.891  0.1000 -0.1583  0.1338
12597W        W13461  16.090  13.598   8.062 -0.0215 -0.1182  0.2631
12598W        W13462  17.006  14.275   3.120  0.1575  0.1416  0.0076
12599W        W13463  13.918  13.760   5.024  0.1790 -0.0316  0.1675
12600W        W13464  15.728  10.582   3.154  0.0896 -0.0317  0.1908
12601W        W13465  18.148  14.505   5.658 -0.0587 -0.2611  0.0664
12602W        W13466  17.953  13.916   7.615  0.0594  0.3537 -0.0870
12603W        W13467  17.126  10.942   7.469 -0.0107  0.0648  0.1675
12604W        W13468  16.980  15.681   4.952 -0.2115  0.1931 -0.1650
12605W        W13469  19.269  12.591   8.442 -0.2005  0.0594 -0.1284
12606W        W13470  18.385  10.877   6.342 -0.0460 -0.0155 -0.2186
12607W        W13471  18.449  12.684   6.230  0.0641  0.2928  0.1875
12608W        W13472  14.834  13.632   5.001  0.2544 -0.1083  0.0430
12609W        W13473  18.243  17.034  28.343  0.2089  0.0117  0.0401
12610W        W13474  17.476  11.599   5.152 -0.4068 -0.0525 -0.0673
12611W        W13475  19.334  15.426   6.800 -0.1837 -0.1319 -0.1827
12612W        W13476  19.778  13.985   1.371  0.0055  0.0674  0.2350
12613W        W13477  15.835  11.298   5.302 -0.1099 -0.0227  0.1795
12614W        W13478  17.312  12.217   7.826 -0.0662 -0.0036 -0.2835
12615W        W13479  17.948  13.530   7.125  0.0082 -0.1203  0.2301
12616W        W13480  15.924  12.446   7.300 -0.0225  0.1041 -0.3861
12617W        W13481  16.422  13.838   4.876  0.0393  0.0669  0.3221
12618W        W13482  18.796  14.352   4.800 -0.4300  0.1812 -0.3321
12619W        W13483  18.343  13.615   5.463  0.0835 -0.1984  0.0649
12620W        W13484  17.603  13.837   5.189  0.0130 -0.1510  0.1601
12621W        W13485  18.626  12.778   3.204  0.2181  0.1487 -0.0472
12622W        W13486  16.077   9.776   6.023  0.1128  0.0259 -0.0270
12623W        W13487  14.799  15.356   8.051  0.0204 -0.1810  0.1779
12624W        W13488  14.217  11.736   7.983 -0.1977  0.4517 -0.1141
12625W        W13489  15.397  12.578   7.366  0.0307 -0.2173  0.0475
12626W        W13490  20.020  13.165   6.149  0.1551  0.2251  0.0274
12627W        W13491  15.008  11.663   3.396  0.1053  0.1213 -0.0132
12628W        W13492  18.331  13.057   5.440  0.1117  0.0942 -0.1368
12629W        W13493  17.283  11.823   7.488  0.2118 -0.2653 -0.0033
12630W        W13494  17.759  14.206   4.939 -0.3774  0.1097  0.1323
12631W        W13495  17.004  12.941   4.319  0.1625 -0.2697  0.0754
12632W        W13496  17.662  11.751   6.575 -0.0495 -0.4419  0.0827
12633W        W13497  15.703  10.850   8.623  0.5290  0.0696  0.0985
12634W        W13498  20.198  10.376   4.533  0.2472  0.0823 -0.0699
12635W        W13499  14.807  12.944   8.398  0.0456  0.2194  0.1519
12636W        W13500  16.062  12.940   6.658 -0.3551 -0.1007  0.1838
12637W        W13501  14.683  13.319   3.253  0.0394  0.2672 -0.1186
12638W        W13502  17.787  12.402   4.230 -0.1573 -0.1469  0.2069
12639W        W13503  16.516  10.864   3.572  0.1773 -0.0314 -0.1140
12640W        W13504  19.013  13.897   2.215 -0.1457 -0.0797 -0.0375
12641W        W13505  14.785  13.078   5.151  0.0170 -0.0257 -0.1441
12642W        W13506  14.258  13.686   8.861 -0.3119  0.0733  0.0282
12643W        W13507  16.878  12.173   5.421 -0.1258 -0.0440  0.1236
12644W        W13508  17.959  13.141   6.785  0.2234  0.0656  0.0927
12645W        W13509  19.020  13.782   7.370 -0.0842  0.1039  0.0212
12646W        W13510  18.248  13.771   8.081  0.0116  0.0856 -0.1711
12647W        W13511  16.420  10.615   5.076  0.3477 -0.1668  0.2033
12648W        W13512  16.993  11.567   6.278 -0.0765  0.2090  0.0992
12649W        W13513  14.305   9.352   4.779 -0.3711  0.3377  0.0761
12650W        W13514  17.875  14.521   3.800 -0.2555  0.1731 -0.1585
12651W        W13515  13.672  10.528   4.161  0.2091 -0.0223  0.3447
12652W        W13516  16.798  13.574   8.802 -0.3858 -0.2953 -0.4042
12653W        W13517  18.090  12.630   5.224 -0.2541  0.1253 -0.2283
12654W        W13518  15.785  13.547   9.362 -0.1733 -0.3381  0.4953
12655W        W13519  15.296  12.483   5.336 -0.0522  0.1446 -0.0297
12656W        W13520  12.663  11.553   5.822 -0.1521 -0.2154  0.1726
12657W        W13521  15.941  11.546   4.576  0.1474  0.2194 -0.1466
12658W        W13522  15.334  10.484   8.737 -0.0595 -0.2246 -0.2338
12659W        W13523  17.546  13.209   7.823 -0.0472 -0.2499  0.1111
12660W        W13524  16.118  13.653   9.747 -0.2651  0.4144  0.1368
12661W        W13525  16.524  12.583   5.691 -0.1078  0.0528 -0.0553
12662W        W13526  18.340   9.726   7.454 -0.2479  0.0741 -0.0014
12663W        W13527  15.726  12.831   7.065  0.0041  0.0676 -0.0939
12664W        W13528  14.413  11.579   5.414  0.0099  0.4326 -0.0128
12665W        W13529  15.048  15.525   3.735  0.0881 -0.3647 -0.1939
12666W        W13530  15.979  14.821   7.177 -0.1920 -0.3787 -0.0070
12667W        W13531  15.484  12.888   4.577  0.2023  0.1917  0.0102
12668W        W13532  16.848  12.484   4.600  0.0743 -0.1364 -0.0531
12669W        W13533  17.705  14.368   5.439  0.0348  0.1967  0.3052
12670W        W13534  16.172  14.017   5.721  0.0556  0.1128  0.0380
12671W        W13535  18.289  13.919   2.897 -0.0696 -0.4199  0.1848
12672W        W13536  16.482  11.662   4.205  0.1657  0.1420  0.0259
12673W        W13537  20.403  11.244   4.900  0.0094  0.0399  0.0696
12674W        W13538  13.717  14.377   7.915 -0.0806  0.1175  0.1956
12675W        W13539  16.047  12.714   9.664 -0.0350 -0.2818  0.1182
12676W        W13540  13.626  13.803   2.119  0.2830  0.0880 -0.1237
12677W        W13541  17.097   7.844   6.778  0.3256  0.0581  0.1114
12678W        W13542  16.120  13.452   3.985  0.2159 -0.4269 -0.1863
12679W        W13543  19.821  13.789   3.338  0.0598  0.1515 -0.0853
12680W        W13544  17.435  12.716   2.140 -0.1333  0.0372  0.0634
12681W        W13545  16.260  12.292   5.295  0.4158  0.4027 -0.1666
12682W        W13546  16.693  10.384   5.501  0.4828  0.3500 -0.1222
12683W        W13547  17.996  15.882   6.908 -0.0880 -0.0538 -0.2518
12684W        W13548  16.407  10.350   2.407  0.0343  0.0783 -0.0286
12685W        W13549  15.539  12.478   3.920  0.0613  0.2627 -0.0078
12686W        W13550  16.197  13.394   6.598 -0.2682  0.1230  0.1475
12687W        W13551  17.179  13.822   4.950 -0.0550 -0.2318 -0.0804
12688W        W13552  17.865  13.837   1.328 -0.0314 -0.0328 -0.1140
12689W        W13553  15.906  14.209   4.375  0.0804 -0.0785 -0.0155
12690W        W13554  16.812  14.022   8.416  0.0296 -0.1241  0.0081
12691W        W13555  16.783  12.958   6.974  0.1067 -0.1519  0.0093
12692W        W13556  16.714  11.394   8.082 -0.0070  0.4272 -0.1953
12693W        W13557  15.320  11.438   7.380 -0.1988 -0.0070  0.2402
12694W        W13558  18.188  10.364   3.531 -0.0021  0.1515 -0.1501
12695W        W13559  14.696  14.518   7.173 -0.3423  0.0046 -0.1137
12696W        W13560  13.502  12.630   5.591 -0.1101  0.0411  0.0965
12697W        W13561  20.883  11.367   4.251  0.3310 -0.1156 -0.2255
12698W        W13562  13.245   9.510   3.252  0.0481  0.2452  0.1167
12699W        W13563  17.996  12.857   7.631  0.2511 -0.0596 -0.3124
12700W        W13564  19.115  15.708   4.190 -0.0655 -0.0302  0.0274
12701W        W13565  15.254  10.396   7.307 -0.0406 -0.0977 -0.0029
12702W        W13566  16.744  11.676   5.629 -0.1822 -0.0270  0.0439
12703W        W13567  14.786  10.762   6.401  0.1401 -0.0651  0.0347
12704W        W13568  15.542  14.012   8.497  0.1090 -0.1474 -0.1160
12705W        W13569  15.539  13.322   5.813 -0.1133  0.1852  0.3229
12706W        W13570  17.787  15.087   5.034 -0.0834  0.2759 -0.3217
12707W        W13571  17.800  12.196   2.942  0.0344  0.1191  0.1084
12708W        W13572  15.269  13.634   4.325  0.0929 -0.2717  0.1744
12709W        W13573  14.837  12.698   7.386 -0.0670 -0.0232  0.0864
12710W        W13574  16.369  11.586   5.969  0.1457 -0.0836  0.1071
12711W        W13575  16.236   9.907   6.946  0.1605  0.0103  0.3264
12712W        W13576  20.634  10.388   6.259  0.1104  0.1172 -0.1754
12713W        W13577  18.407  14.990   3.911 -0.1623  0.2779 -0.1052
12714W        W13578  16.055  12.460   4.062 -0.0871  0.0165 -0.1832
12715W        W13579  17.648  15.777   4.339  0.1889  0.2277  0.2347
12716W        W13580  17.752  11.963   8.689 -0.2284  0.0105 -0.0721
12717W        W13581  14.746  13.395   8.612 -0.1684  0.2723 -0.0568
12718W        W13582  18.696  10.789   6.751 -0.0704  0.3115 -0.2286
12719W        W13583  15.751  12.819   7.649  0.2330  0.1531 -0.1217
12720W        W13584  16.141  14.068   8.382 -0.1237  0.2012  0.0691
12721W        W13585  18.084  11.696   3.052  0.2347  0.0105  0.0143
12722W        W13586  19.125  12.881   4.343  0.0629 -0.2896  0.0676
12723W        W13587  17.361  13.176   9.141 -0.1468 -0.0365  0.2174
12724W        W13588  16.558  13.320   7.959 -0.0190 -0.0101  0.1423
12725W        W13589  16.333  12.561   7.002  0.0408  0.3302 -0.0071
12726W        W13590  19.786  16.419   2.817  0.1387  0.1516 -0.3401
12727W        W13591  16.234  12.966   8.287 -0.1620 -0.2281 -0.1834
12728W        W13592  16.068  10.373   6.770  0.1026  0.0687  0.4109
12729W        W13593  15.874  13.590   8.514 -0.1955 -0.1832 -0.0073
12730W        W13594  16.256  14.558   4.123  0.1256  0.2153 -0.1604
12731W        W13595  16.343  14.344   5.329  0.0846 -0.1230  0.1106
12732W        W13596  16.389  11.447   9.787 -0.0920  0.1205  0.2858
12733W        W13597  16.760  14.351   4.945  0.0420  0.2002 -0.1103
12734W        W13598  18.077  13.941   4.559 -0.0043  0.1518 -0.0534
12735W        W13599  15.440  11.217   8.902  0.0316  0.1010  0.4798
12736W        W13600  17.682  14.154   5.893  0.1668  0.1250  0.0294
12737W        W13601  18.155  14.994   5.465  0.0483  0.1602 -0.2341
12738W        W13602  19.055  15.864   2.530 -0.3039 -0.3170 -0.1564
12739W        W13603  13.250  14.730   8.447  0.0179  0.1442  0.1584
12740W        W13604  16.240  11.066   8.154  0.0361 -0.1283 -0.0327
12741W        W13605  15.713  12.473   6.306  0.1086 -0.0559 -0.1286
12742W        W13606  18.056  13.455  10.425 -0.0046  0.2336  0.2707
12743W        W13607  17.573  12.595   5.176 -0.0384 -0.1161 -0.0231
12744W        W13608  19.071  12.021   4.385  0.2926  0.0737  0.1144
12745W        W13609  13.239  13.963   6.533 -0.2834 -0.2534 -0.1857
12746W        W13610  19.300  14.702   3.883 -0.1509 -0.0083 -0.2407
12747W        W13611  14.392  12.025   5.143  0.4658  0.1746 -0.1338
12748W        W13612  16.101  14.638   4.589 -0.0988 -0.1843 -0.0416
12749W        W13613  14.971  14.227   5.917  0.0358 -0.3033 -0.0601
12750W        W13614  19.135  13.005   5.361  0.0243 -0.1346  0.0438
12751W        W13615  16.329  12.072   3.943 -0.0242 -0.0170  0.1465
12752W        W13616  12.289  12.326   5.094  0.1818  0.2366  0.3791
12753W        W13617  22.100  16.141   7.721 -0.2481  0.0409  0.2103
12754W        W13618  17.857  12.516   4.767 -0.1139 -0.0676  0.0053
12755W        W13619  15.997  12.422   6.698  0.2831 -0.1562  0.0395
12756W        W13620  19.108  12.479   4.602  0.2110 -0.2508  0.3167
12757W        W13621  16.708  13.796   6.551  0.0412  0.1202  0.0739
12758W        W13622  17.712  12.675   5.717  0.1238  0.0541  0.1739
12759W        W13623  17.946  12.528   9.474 -0.1407  0.1302  0.0576
12760W        W13624  15.434  13.250   7.767  0.2166 -0.0234 -0.1648
12761W        W13625  14.928  10.505   8.234  0.0138 -0.0777 -0.0609
12762W        W13626  13.602  14.212   4.338  0.1143 -0.2280 -0.0126
12763W        W13627  16.562  15.872   8.141  0.2620 -0.0211  0.0686
12764W        W13628  15.779  12.072   6.060 -0.1503 -0.0333  0.0254
12765W        W13629  19.060  12.064   5.916  0.2051 -0.1256 -0.1110
12766W        W13630  16.514  11.179   6.846  0.0474 -0.0442  0.3228
12767W        W13631  16.346  14.476   2.657  0.0628  0.1476 -0.0743
12768W        W13632  15.241  13.393   4.771 -0.2479  0.0909 -0.0347
12769W        W13633  19.112  14.190   8.228  0.1023  0.0842 -0.1443
12770W        W13634  18.248  14.415   4.053  0.0351 -0.1378  0.1628
12771W        W13635  15.232  13.570   8.596  0.3287 -0.1679 -0.2220
12772W        W13636  16.694  12.572   5.080  0.0441 -0.1056  0.1744
12773W        W13637  14.922  13.228  10.081  0.0101 -0.1058  0.0303
12774W        W13638  14.895  10.143   7.040  0.1900 -0.0928  0.1468
12775W        W13639  15.563  11.906   4.631  0.4083  0.0189 -0.0078
12776W        W13640  18.032  11.821   6.232  0.1679  0.2949  0.2218
12777W        W13641  13.763  12.765   4.582 -0.0455 -0.2861 -0.4281
12778W        W13642  17.943  12.751   8.556  0.0528 -0.0233 -0.2569
12779W        W13643  16.731  12.980   4.737  0.0285 -0.1490  0.1978
12780W        W13644  19.608  15.162   4.101  0.0261 -0.1320  0.0011
12781W        W13645  15.094  12.958   5.667  0.0938  0.1106 -0.0228
12782W        W13646  18.376  13.538   4.894 -0.1139  0.2102  0.4729
12783W        W13647  15.907  11.824   8.529  0.0662  0.0868  0.3368
12784W        W13648  14.981  15.271   5.083 -0.0508  0.0820 -0.2161
12785W        W13649  16.993  14.572  10.509  0.1728 -0.1991 -0.1926
12786W        W13650  18.306   9.764   4.090  0.0738  0.2037 -0.0583
12787W        W13651  17.492  12.327   7.286  0.0997 -0.0948  0.1001
12788W        W13652  18.143  12.690   4.440 -0.1447  0.2901 -0.0561
12789W        W13653  16.739  11.272   3.378  0.2084  0.3037  0.2203
12790W        W13654  19.260  12.540   6.492  0.1214 -0.1173  0.2479
12791W        W13655  16.159  12.065   6.339 -0.1243 -0.0266 -0.0459
12792W        W13656  15.132  12.596   4.263  0.1671  0.2629  0.1677
12793W        W13657  18.695  10.698   4.792  0.0774  0.0702  0.1467
12794W        W13658  16.605  12.787   6.556  0.0253 -0.0132  0.1929
12795W        W13659  18.044  15.694   9.669 -0.0267 -0.0399 -0.3029
12796W        W13660  19.590  13.000   9.698  0.2806 -0.2689 -0.0436
12797W        W13661  15.599  16.371   4.156  0.0681 -0.0637 -0.2654
12798W        W13662  14.489  13.216   4.092  0.1369 -0.1472 -0.1459
12799W        W13663  16.964  11.805   7.966  0.1119 -0.0059  0.0639
12800W        W13664  18.060  13.392   8.352  0.0733  0.0387 -0.3185
12801W        W13665  17.478  11.790   6.109 -0.0160 -0.2197 -0.2541
12802W        W13666  18.622  12.739   4.574  0.2901 -0.3686 -0.0557
12803W        W13667  19.157  14.279   8.780 -0.2854  0.0324  0.1604
12804W        W13668  17.274  14.077   9.057  0.3096 -0.1621  0.1113
12805W        W13669  16.128  10.371   5.452  0.0166 -0.0217  0.4271
12806W        W13670  13.504  10.632   4.608  0.1339 -0.2179 -0.1152
12807W        W13671  16.207  12.807   5.342  0.0703 -0.0357 -0.0461
12808W        W13672  15.090  10.828   1.994 -0.1437 -0.0222  0.0021
12809W        W13673  19.092  11.059   6.817 -0.1850  0.0512 -0.1023
12810W        W13674  17.485  13.356   4.338  0.0426  0.5176 -0.1040
12811W        W13675  19.964  12.505   3.584 -0.2486  0.1880 -0.0297
12812W        W13676  15.529  14.187   6.479 -0.0180  0.0155 -0.3167
12813W        W13677  16.591  16.686  10.332 -0.0965 -0.2505 -0.0208
12814W        W13678  13.923  12.033   4.767  0.0093  0.1074 -0.3013
12815W        W13679  18.042  13.445   4.490  0.0438 -0.0160  0.0697
12816W        W13680  18.243  11.902   5.736  0.0841 -0.0970 -0.1014
12817W        W13681  15.976  12.243   4.855  0.1053  0.2120 -0.2435
12818W        W13682  15.710  13.388   6.436  0.2782 -0.3923  0.1161
12819W        W13683  17.438  12.968   3.098 -0.0150 -0.1810  0.0233
12820W        W13684  15.750  15.086   8.632  0.3335 -0.0438 -0.1281
12821W        W13685  16.171  12.607   6.266 -0.2657 -0.2115 -0.0808
12822W        W13686  14.978  14.109   7.350  0.1495 -0.2015 -0.0627
12823W        W13687  15.919  13.881   6.720 -0.0507 -0.1429 -0.1739
12824W        W13688  13.597  12.404   6.168 -0.1440 -0.0832  0.0122
12825W        W13689  14.252  13.332   5.776  0.2692  0.1101  0.3284
12826W        W13690  18.330  12.662   2.517 -0.2777  0.1575  0.1184
12827W        W13691  13.016  13.916   6.941 -0.0120 -0.1774  0.0008
12828W        W13692  15.256  10.841   4.898 -0.1063  0.0450  0.1530
12829W        W13693  19.486  14.403   3.007 -0.2769 -0.0702  0.1900
12830W        W13694  16.095  13.163   7.813 -0.1736 -0.1051  0.0597
12831W        W13695  18.072  14.035  11.060  0.0849 -0.1624 -0.0972
12832W        W13696  19.470  16.110   8.538 -0.1184 -0.3857  0.0575
12833W        W13697  19.758  13.437   7.064 -0.2233 -0.0866  0.0658
12834W        W13698  14.047  15.279   5.327  0.1361  0.2906 -0.0568
12835W        W13699  18.967  11.642   4.664  0.0890  0.2209  0.1520
12836W        W13700  14.548  12.637   5.124 -0.0400 -0.0439 -0.0936
12837W        W13701  17.397  10.313   5.847 -0.2555  0.0271 -0.0249
12838W        W13702  16.275  14.821   5.257  0.0957 -0.0586  0.0449
12839W        W13703  15.282  10.942   6.770  0.4220 -0.1898 -0.0071
12840W        W13704  17.253  11.429   5.859  0.0263 -0.0724  0.3661
12841W        W13705  17.977  14.269   0.621  0.1180 -0.0065  0.0012
12842W        W13706  16.023  13.803   5.286  0.1067  0.2949  0.4699
12843W        W13707  14.058  13.575   9.326 -0.1093  0.1059  0.4379
12844W        W13708  13.036  12.588   2.471 -0.0343 -0.1249 -0.2422
12845W        W13709  15.965  11.582   6.223 -0.0897  0.1272 -0.0634
12846W        W13710  15.105  13.502   3.071 -0.1318 -0.2949 -0.1096
12847W        W13711  13.366  10.709   5.575 -0.2353  0.3598 -0.0609
12848W        W13712  16.653  14.858   4.101  0.0266 -0.0891 -0.3732
12849W        W13713  15.933  12.792   4.499 -0.0066 -0.0933 -0.1066
12850W        W13714  17.245  13.111   6.900 -0.0531 -0.1276 -0.1128
12851W        W13715  17.913  14.283   7.234  0.0042  0.1239 -0.0685
12852W        W13716  16.583  15.338   3.573 -0.0764  0.0001 -0.0906
12853W        W13717  18.296  11.361   5.056  0.1474  0.2329  0.0808
12854W        W13718  13.576  15.880   5.637  0.3628  0.0494  0.1964
12855W        W13719  16.783  12.255   7.818  0.3303  0.2292  0.1861
12856W        W13720  14.495  10.171   6.448 -0.1440  0.1195  0.2174
12857W        W13721  11.264  10.604   6.556  0.0472 -0.1615 -0.1357
12858W        W13722  16.444  11.827   5.279 -0.1137  0.2414  0.0733
12859W        W13723  17.768  15.618   6.098 -0.5329 -0.0367 -0.1301
12860W        W13724  15.428  16.811   7.594 -0.0874  0.1455 -0.0466
12861W        W13725  17.154  11.920   4.808  0.0991  0.3281  0.0596
12862W        W13726  15.708  14.273   5.973 -0.0290 -0.2179 -0.1852
12863W        W13727  18.549  15.985   7.477 -0.0031  0.1084 -0.1834
12864W        W13728  17.505  15.219   4.008  0.0456  0.1043 -0.0244
12865W        W13729  16.852  14.036   6.943 -0.0786 -0.1539 -0.0461
12866W        W13730  17.674  12.057   4.954  0.2411  0.1636  0.1900
12867W        W13731  19.586  10.826   3.857 -0.3535 -0.0843 -0.3489
12868W        W13732  15.162   9.901   3.208  0.0755 -0.0780  0.3987
12869W        W13733  19.358  12.031   4.868  0.2245  0.0882  0.0768
12870W        W13734  16.637  13.481   4.538 -0.0804 -0.0608  0.1445
12871W        W13735  18.879  14.629   7.399 -0.1501 -0.2065  0.0623
12872W        W13736  18.823  13.330   7.527  0.2052 -0.2095 -0.0252
12873W        W13737  17.000  11.120   4.525  0.4298 -0.0375 -0.1143
12874W        W13738  17.159  12.713   7.219  0.0430 -0.2994 -0.0862
12875W        W13739  18.739  13.324   4.581 -0.0536  0.4339 -0.0910
12876W        W13740  16.043  11.702   5.621 -0.0141 -0.1205 -0.1647
12877W        W13741  15.929  12.123   8.124 -0.1676  0.0823  0.3280
12878W        W13742  17.007  13.452   5.572  0.1121 -0.1483 -0.2253
12879W        W13743  16.358  13.098   6.273 -0.0076 -0.3149  0.1463
12880W        W13744  13.954  11.414   7.222 -0.1132  0.0820  0.2677
12881W        W13745  16.199  15.450   4.680 -0.1322  0.0375  0.1541
12882W        W13746  20.959  15.099   6.324 -0.5029 -0.1179  0.0607
12883W        W13747  15.779  14.445   7.478 -0.0451  0.2296  0.0399
12884W        W13748  18.454  12.725   2.004  0.2550 -0.0808  0.0410
12885W        W13749  17.060  13.785   2.054 -0.0294  0.2183  0.0216
12886W        W13750  15.219  14.417   5.045  0.2626 -0.1653 -0.3230
12887W        W13751  16.979  15.032   3.521 -0.0864 -0.0552 -0.2421
12888W        W13752  19.647  13.500  10.591 -0.0833 -0.0696 -0.1332
12889W        W13753  15.759  12.949   6.056  0.2933 -0.2223 -0.1182
12890W        W13754  17.711  13.153   5.873  0.1889  0.1626  0.1698
12891W        W13755  17.138  14.659   3.976  0.0781 -0.0863  0.1076
12892W        W13756  16.216  12.965   5.805 -0.1238  0.0571 -0.2871
12893W        W13757  15.670  12.013   9.015  0.0647 -0.3667 -0.1508
12894W        W13758  17.179  13.710   4.403  0.1175 -0.1923  0.1430
12895W        W13759  18.497  11.000   7.170 -0.0513  0.2746  0.1961
12896W        W13760  14.944  14.470   5.439 -0.1709 -0.0156 -0.0242
12897W        W13761  15.537  11.475   4.894 -0.1312 -0.0691 -0.0290
12898W        W13762  16.117  13.310  12.167  0.0682  0.2785  0.2005
12899W        W13763  13.559  13.022  11.721 -0.3067  0.0231  0.0884
12900W        W13764  17.736  13.734   7.991  0.3394  0.0595 -0.0457
12901W        W13765  16.652  13.302  12.631  0.1577 -0.0611 -0.1220
12902W        W13766  16.193  15.118   8.398  0.0031 -0.2416  0.0933
12903W        W13767  17.876  13.902  12.010 -0.1652 -0.2780 -0.0318
12904W        W13768  14.225  11.525   6.585 -0.1262  0.0590 -0.1571
12905W        W13769  16.280  13.619  10.732 -0.0456  0.1078 -0.3220
12906W        W13770  15.252  13.872  11.055 -0.0829  0.1004  0.0328
12907W        W13771  16.535  11.237  10.830  0.0670 -0.0513  0.1157
12908W        W13772  14.221  11.301  10.183 -0.3236 -0.1359  0.0870
12909W        W13773  18.658  11.123  11.812  0.2026  0.3299  0.1153
12910W        W13774  14.458  12.669  10.531 -0.0563 -0.3596  0.1122
12911W        W13775  17.232  11.100  12.802  0.1325 -0.1217  0.2448
12912W        W13776  16.158   9.824   9.639  0.1264 -0.2557  0.0880
12913W        W13777  13.738  16.160  11.163 -0.0928  0.0558  0.3551
12914W        W13778  17.159  15.304   5.397  0.1462  0.1798  0.2401
12915W        W13779  15.404  15.294   7.088  0.0378 -0.2579 -0.0414
12916W        W13780  15.393  10.135  13.910 -0.0124 -0.0679 -0.1038
12917W        W13781  17.982  12.999   8.080 -0.1523  0.0013 -0.2749
12918W        W13782  18.235  15.269  11.787 -0.2952  0.0121 -0.2152
12919W        W13783  16.671  13.211  11.538  0.0846  0.0723  0.0836
12920W        W13784  18.914  15.311  10.730 -0.1607  0.1471 -0.1850
12921W        W13785  15.530  10.178  10.261 -0.0750 -0.0952  0.1419
12922W        W13786  16.470  13.480   9.153 -0.0932  0.0527  0.0597
12923W        W13787  14.908  14.601   9.000 -0.2330 -0.2121 -0.2139
12924W        W13788  18.224  13.780  10.035 -0.0521  0.5415  0.2022
12925W        W13789  19.923  13.416   9.864  0.1080  0.4911 -0.2359
12926W        W13790  15.848  14.603   9.327 -0.0202 -0.0193  0.2232
12927W        W13791  14.449  12.329  10.184  0.0079  0.1402 -0.0204
12928W        W13792  14.410  14.826  13.231 -0.0927  0.0708 -0.2447
12929W        W13793  16.285  14.043  13.757  0.2509  0.0100 -0.1644
12930W        W13794  16.700  12.279  14.150 -0.2348 -0.3100 -0.0686
12931W        W13795  15.880  12.870  12.164 -0.4859 -0.0075 -0.1565
12932W        W13796  15.037  13.478  11.873 -0.0846  0.0962  0.0886
12933W        W13797  15.103  16.234   9.721 -0.0576 -0.1466  0.3261
12934W        W13798  15.397  12.492   8.940 -0.0242  0.0317 -0.1040
12935W        W13799  15.476  15.408  10.278  0.1581 -0.0719  0.0559
12936W        W13800  16.306  12.264  11.040 -0.2126 -0.0348 -0.0838
12937W        W13801  18.444  12.522  12.496  0.4305  0.0811  0.0555
12938W        W13802  19.551  14.644   8.806  0.2275  0.2568  0.2150
12939W        W13803  16.334  11.646  11.010  0.0639  0.2574 -0.2902
12940W        W13804  14.335  17.091  11.205  0.2119 -0.0455  0.4135
12941W        W13805  17.757  13.300   9.893 -0.2026  0.3696  0.0036
12942W        W13806  14.527  12.850   9.422 -0.0631 -0.0776  0.3405
12943W        W13807  14.951  12.268  10.278  0.2629 -0.3028  0.1779
12944W        W13808  16.989  14.043   7.841  0.0019 -0.3104  0.0929
12945W        W13809  16.661  12.617  12.346  0.0548  0.3827 -0.0556
12946W        W13810  17.983  11.697   8.193  0.2892 -0.0512  0.0695
12947W        W13811  17.239  14.997   7.897  0.1705 -0.0933 -0.0822
12948W        W13812  14.821  12.680  11.183 -0.2602 -0.1779 -0.1417
12949W        W13813  18.391  12.740  10.009  0.2724  0.3640  0.0745
12950W        W13814  16.939  13.619  11.344  0.2346 -0.0702 -0.0365
12951W        W13815  14.683  13.754   7.336  0.0339  0.0897 -0.1032
12952W        W13816  16.462  11.491   9.271  0.0071  0.0106  0.3993
12953W        W13817  14.731  13.346   6.400 -0.0784  0.0142  0.0334
12954W        W13818  13.881  13.430   9.838  0.1482 -0.3296 -0.1260
12955W        W13819  18.807  12.647   8.204 -0.1216  0.4016 -0.1471
12956W        W13820  14.039  13.007   9.658 -0.1237 -0.1713  0.2076
12957W        W13821  15.779  13.184   8.191  0.2930  0.1109  0.1393
12958W        W13822  19.765  11.907   8.554  0.1683 -0.2530 -0.0575
12959W        W13823  16.284  15.851  10.860 -0.2067  0.1545  0.0989
12960W        W13824  18.533  15.635  11.568  0.1483  0.0225 -0.0736
12961W        W13825  17.996  13.866   9.256 -0.2223 -0.1482  0.1975
12962W        W13826  16.320  10.346  10.711  0.1575 -0.1656  0.1662
12963W        W13827  15.274   9.862   9.595  0.2330  0.2708  0.1141
12964W        W13828  13.592  15.984   7.638 -0.0647  0.1636 -0.1185
12965W        W13829  16.741  13.317   6.456  0.1842  0.4941  0.0825
12966W        W13830  15.325  14.220   9.325 -0.1846 -0.1187 -0.0684
12967W        W13831  16.531  17.573   7.846 -0.0298 -0.2043 -0.0036
12968W        W13832  17.408  14.136  11.820 -0.3628  0.0991 -0.0582
12969W        W13833  12.527  12.011  10.465 -0.4040  0.1626  0.2343
12970W        W13834  17.502  14.894   8.455  0.0255  0.0415 -0.2439
12971W        W13835  16.699  13.203  11.020  0.1768 -0.2858 -0.2888
12972W        W13836  15.680  17.171   9.298 -0.1107  0.1665 -0.2292
12973W        W13837  17.850  14.739  12.179  0.1116 -0.2250 -0.2224
12974W        W13838  11.173  15.775   8.997 -0.4799  0.0411 -0.3503
12975W        W13839  15.338  13.529   9.999 -0.1437 -0.0862  0.0578
12976W        W13840  17.870  14.502   8.519 -0.0718  0.1270  0.2661
12977W        W13841  20.623  11.339   8.461  0.3789  0.0809  0.0448
12978W        W13842  15.874  11.720  10.044  0.1367  0.2195  0.0761
12979W        W13843  15.115  10.230  10.585  0.0465  0.1163 -0.0377
12980W        W13844  15.245  11.162   9.361  0.0631  0.5201  0.1562
12981W        W13845  13.576  12.984  10.712  0.1035  0.0976  0.3267
12982W        W13846  16.387   9.126  11.386 -0.0994  0.0537  0.0258
12983W        W13847  15.546  15.380   7.826 -0.1687  0.1029  0.3737
12984W        W13848  16.632  15.718  11.866 -0.3376 -0.1127 -0.0264
12985W        W13849  17.281   9.472  11.389  0.0948 -0.2421  0.0382
12986W        W13850  15.661  14.151  11.257 -0.1051 -0.3213 -0.0392
12987W        W13851  17.835   9.593   8.311 -0.2031  0.3106  0.1773
12988W        W13852  18.154  12.142   7.886 -0.0805 -0.1666  0.1307
12989W        W13853  16.895  13.068  12.260 -0.1306 -0.0438 -0.0819
12990W        W13854  14.646  13.561  10.419 -0.0831  0.2690  0.2217
12991W        W13855  13.827  13.482   8.518 -0.2190  0.2028  0.0796
12992W        W13856  16.448  10.578   9.676 -0.1498 -0.0511 -0.2334
12993W        W13857  18.576  11.445   9.761 -0.2545 -0.0994  0.0636
12994W        W13858  17.209  15.521  11.704 -0.1336  0.1407  0.0041
12995W        W13859  14.729  12.440  13.472  0.0685 -0.0121  0.0354
12996W        W13860  17.074   8.615   7.943  0.0153 -0.1763  0.3981
12997W        W13861  16.486  12.476   8.218  0.2220  0.1224 -0.1850
12998W        W13862  20.172  14.144   4.553  0.0580  0.0475  0.3942
12999W        W13863  15.342  13.790  12.311  0.2736  0.1473  0.0375
13000W        W13864  16.139   9.557   8.031 -0.3463 -0.2229  0.3113
13001W        W13865  16.533  14.323  10.736 -0.0494  0.1825 -0.2563
13002W        W13866  17.175  12.398  12.133 -0.1338  0.1958  0.1704
13003W        W13867  14.257  12.547   9.780  0.0526 -0.2063  0.0506
13004W        W13868  18.806  14.158   7.737  0.1187 -0.0001 -0.0639
13005W        W13869  15.348  11.599   9.761 -0.0184  0.0620  0.0991
13006W        W13870  17.754   9.922   7.980 -0.1359  0.0092  0.2157
13007W        W13871  15.137  13.249  10.553  0.0848 -0.2529  0.2831
13008W        W13872  13.166  13.357  11.566  0.2831  0.0659  0.1107
13009W        W13873  16.490  13.842   7.929  0.1518 -0.0673  0.1587
13010W        W13874  18.366   9.389  13.079 -0.0017  0.1870 -0.1087
13011W        W13875  15.096  15.888   9.318  0.1517  0.1250  0.1138
13012W        W13876  18.986  13.292   8.391  0.0569  0.1426  0.1845
13013W        W13877  19.288  11.110   8.705 -0.0758  0.2002 -0.0016
13014W        W13878  18.216  10.915   9.119  0.2895  0.0120 -0.0244
13015W        W13879  15.766  15.512   8.891  0.2784 -0.2474 -0.0652
13016W        W13880  15.293  12.162  11.686  0.2076 -0.0062 -0.2320
13017W        W13881  17.833  12.616   9.945  0.2429 -0.0119  0.0274
13018W        W13882  18.956  12.659  10.791  0.0601 -0.1053  0.0685
13019W        W13883  18.095  13.386   7.657  0.3229  0.1066 -0.0352
13020W        W13884  19.815  14.408  11.167  0.1147  0.0616  0.0628
13021W        W13885  15.864  14.220   8.778 -0.2198 -0.0195  0.1522
13022W        W13886  18.918  13.732   8.128  0.1444 -0.2958  0.0951
13023W        W13887  18.435  15.460   7.546  0.1166  0.0138 -0.3356
13024W        W13888  16.469  14.503   8.433  0.1775  0.0924 -0.0747
13025W        W13889  17.167  12.938  10.825 -0.1881  0.2447  0.2555
13026W        W13890  18.835  14.132   9.690 -0.1811  0.2169 -0.1864
13027W        W13891  16.363  13.828   6.973  0.0741 -0.0404  0.0186
13028W        W13892  14.732  15.240  11.657 -0.1643 -0.2339  0.0534
13029W        W13893  15.799  13.907  10.033  0.3802 -0.1629  0.3588
13030W        W13894  16.092  13.821  12.048  0.2145 -0.1118  0.0918
13031W        W13895  19.909   9.300   7.944  0.2643  0.0181 -0.2753
13032W        W13896  16.006  11.254  10.800  0.1287  0.2807 -0.1334
13033W        W13897  11.212  13.228  12.742  0.1035  0.3018  0.0727
13034W        W13898  17.602  10.337   8.522 -0.0764 -0.2340  0.1226
13035W        W13899  16.730  11.386  10.379  0.0628  0.1483 -0.0910
13036W        W13900  17.079  14.518   8.251 -0.1194  0.0318 -0.3401
13037W        W13901  14.777  15.761   6.819  0.2292  0.0089 -0.0201
13038W        W13902  17.443   8.232   7.810  0.0856 -0.0855 -0.0184
13039W        W13903  17.147   9.921  11.572 -0.1636 -0.0629  0.1222
13040W        W13904  16.209  13.342   8.760  0.1433 -0.2349 -0.0628
13041W        W13905  16.683  14.379   7.993  0.1650  0.1534 -0.2598
13042W        W13906  16.305  14.383   9.080 -0.1423 -0.1419  0.0643
13043W        W13907  14.214  10.954   8.722 -0.0554 -0.1731  0.2557
13044W        W13908  17.834  10.504   9.043  0.0059  0.2611 -0.1478
13045W        W13909  16.178  14.423   8.005 -0.1549 -0.0257  0.1820
13046W        W13910  18.624  14.003  10.115  0.1065 -0.0465 -0.1739
13047W        W13911  16.806  15.242  10.014 -0.1641  0.3030  0.0016
13048W        W13912  15.869  11.399   9.601 -0.1243 -0.0413  0.0822
13049W        W13913  13.973  12.569   9.322  0.0510 -0.2077  0.3508
13050W        W13914  15.172  13.270   6.747 -0.0304 -0.3079  0.1102
13051W        W13915  17.178  10.794   8.469 -0.2402  0.0711  0.2486
13052W        W13916  17.305  12.658   8.150 -0.0410  0.0694  0.2313
13053W        W13917  15.502  14.526   8.929 -0.0576 -0.1798 -0.1296
13054W        W13918  15.162  11.738   6.457  0.2196  0.0469 -0.0368
13055W        W13919  14.021  12.914   5.647 -0.1629  0.3360  0.0913
13056W        W13920  17.024  13.805   9.749 -0.2227 -0.1468 -0.1862
13057W        W13921  15.149  10.850  13.253  0.1916 -0.1882 -0.3667
13058W        W13922  15.265  12.637  11.420 -0.1066 -0.0376  0.1757
13059W        W13923  14.997  11.946   9.847 -0.1550 -0.4648  0.3438
13060W        W13924  17.877  13.726   9.707  0.0008  0.1670  0.1433
13061W        W13925  18.361  11.657  11.510  0.0216 -0.1692  0.1462
13062W        W13926  15.666  12.319   7.750 -0.2151  0.1467 -0.3456
13063W        W13927  13.551  12.194   8.714 -0.0884  0.1658  0.0244
13064W        W13928  15.894  14.695   9.830  0.0323  0.0586 -0.2228
13065W        W13929  15.756  15.181   9.933 -0.2656  0.0552 -0.2017
13066W        W13930  15.979  14.836   7.700 -0.2579 -0.3016 -0.2299
13067W        W13931  16.032  14.136  10.780  0.1500 -0.1128 -0.0313
13068W        W13932  16.589  14.090   9.853  0.1498 -0.0833 -0.0328
13069W        W13933  17.765  14.019   8.410 -0.1760  0.0479 -0.0623
13070W        W13934  17.623  13.194   7.265 -0.0313  0.3436  0.2080
13071W        W13935  14.331  11.480   9.440  0.0400  0.1081  0.2906
13072W        W13936  16.523  13.012   9.254  0.0346 -0.1548  0.1842
13073W        W13937  17.440  12.650  12.933 -0.1702 -0.2250  0.3134
13074W        W13938  15.800  12.423  11.394 -0.2753 -0.1301  0.0851
13075W        W13939  14.116  12.620   8.841 -0.0824 -0.2128 -0.2674
13076W        W13940  16.677  12.299  10.386 -0.0268 -0.3837  0.0527
13077W        W13941  15.021  12.715   9.899  0.0065 -0.0995  0.0746
13078W        W13942  19.984  14.408   8.171 -0.1037  0.1707  0.0155
13079W        W13943  16.894  13.100   8.981  0.0247 -0.1781 -0.0914
13080W        W13944  14.345  14.015  10.206 -0.0171  0.0873 -0.4336
13081W        W13945  16.573  12.744   9.691 -0.1708  0.0128  0.0968
13082W        W13946  16.884  15.953   8.577  0.2608 -0.1601  0.0121
13083W        W13947  18.194  10.449   6.551  0.2356  0.4813  0.1943
13084W        W13948  13.688  10.928   6.696 -0.5259  0.0453 -0.2869
13085W        W13949  14.965  13.422  12.939 -0.2801 -0.0275  0.3213
13086W        W13950  17.757  14.401   9.372  0.0039  0.0615 -0.3050
13087W        W13951  17.428  12.752  10.201 -0.1014  0.0342 -0.0124
13088W        W13952  13.124  14.785   7.372  0.0142 -0.2839 -0.0169
13089W        W13953  14.269  14.047  11.974 -0.0843 -0.0498 -0.2017
13090W        W13954  18.720   9.465  12.786 -0.0971 -0.0552 -0.2996
13091W        W13955  17.514   9.649  10.954  0.0896  0.0703 -0.0056
13092W        W13956  15.501  12.147   8.536  0.1150 -0.3271 -0.1628
13093W        W13957  14.369  11.926   9.837  0.2966 -0.0973 -0.2168
13094W        W13958  17.119  10.524   9.971  0.3371  0.0401 -0.0537
13095W        W13959  15.270  12.431   9.458 -0.2934  0.2592 -0.2558
13096W        W13960  16.956  10.987  11.008  0.0882  0.1344 -0.0083
13097W        W13961  15.759  13.262   9.879 -0.2057 -0.2390  0.0111
13098W        W13962  17.317  10.406  11.491 -0.1335 -0.0911 -0.1480
13099W        W13963  19.537  12.260   8.185  0.1021 -0.0373  0.3006
13100W        W13964  15.295  10.197   9.173  0.1082  0.0413 -0.4418
13101W        W13965  14.230   9.151   9.471  0.1862 -0.2693  0.1305
13102W        W13966  14.054  12.421   7.434  0.0266 -0.2547  0.1074
13103W        W13967  14.831  16.640  12.400 -0.1149  0.1492 -0.0113
13104W        W13968  16.468  12.929   8.756 -0.3009  0.0680 -0.2245
13105W        W13969  16.825  15.336   7.515 -0.1546  0.1977  0.1304
13106W        W13970  17.703  14.167   9.985  0.4782  0.1706 -0.0692
13107W        W13971  15.574  14.677  11.059 -0.0613 -0.1816  0.1149
13108W        W13972  14.997  11.533  10.214 -0.0472 -0.1633  0.2752
13109W        W13973  15.066  13.091  11.031 -0.0692 -0.0438 -0.1440
13110W        W13974  16.852  10.001  12.498 -0.2530  0.1976  0.0462
13111W        W13975  16.646  12.117  11.428 -0.0881  0.2528  0.0495
13112W        W13976  20.064  11.754   6.891 -0.0027 -0.0587  0.0777
13113W        W13977  18.453  13.833   9.591  0.0798  0.0105 -0.0899
13114W        W13978  18.457  14.595   7.901  0.1442  0.0785  0.0491
13115W        W13979  14.739   9.342  11.846 -0.0024 -0.0315 -0.1708
13116W        W13980  13.994  12.643  10.820  0.2515  0.1306  0.2986
13117W        W13981  18.049   8.644  12.612  0.1728  0.1618  0.0799
13118W        W13982  19.790  12.037  10.384 -0.0664 -0.2445  0.1643
13119W        W13983  16.197  15.252  13.162  0.0627  0.0447  0.2643
13120W        W13984  16.782  11.796   8.502 -0.2688 -0.3320  0.2168
13121W        W13985  15.493  14.046   7.428  0.3362 -0.2451 -0.0074
13122W        W13986  15.864   9.672   8.933  0.0704  0.0550  0.0214
13123W        W13987  16.231  15.879  11.586  0.3077  0.0258 -0.0770
13124W        W13988  16.611   9.947  11.584 -0.2582 -0.2174 -0.4284
13125W        W13989  15.080  16.562   7.324 -0.0059  0.0008  0.2048
13126W        W13990  15.081  14.836   7.207  0.1073 -0.4687 -0.1365
13127W        W13991  14.553  12.856  10.029  0.0606 -0.1138  0.0904
13128W        W13992  14.145  13.674  13.960  0.0802  0.1458 -0.0620
13129W        W13993  17.112  14.445  11.560 -0.1590 -0.1974  0.1078
13130W        W13994  19.543  13.341  10.153  0.2209 -0.1210 -0.0897
13131W        W13995  14.637  11.066  10.082 -0.1163 -0.0410 -0.0417
13132W        W13996  19.369  12.092   7.689  0.0773  0.2709 -0.3418
13133W        W13997  17.809  13.348   9.325 -0.1035 -0.1884  0.0147
13134W        W13998  14.589  11.181  12.085 -0.2324 -0.1109  0.0446
13135W        W13999  17.248  15.873  11.275 -0.2580 -0.0717  0.1114
13136W        W14000  19.666  15.904   8.078  0.0752  0.1631  0.0554
13137W        W14001  18.605  13.052   9.669  0.0916 -0.1172  0.0811
13138W        W14002  15.856  12.110  10.846  0.0211  0.0723 -0.1451
13139W        W14003  16.384  11.396   7.738  0.2072 -0.2674 -0.4717
13140W        W14004  15.103  11.136   9.862 -0.1122 -0.2618  0.2911
13141W        W14005  16.817  14.945   8.243  0.2143  0.2893  0.1204
13142W        W14006  13.970  12.148   9.630 -0.1695 -0.0814 -0.1203
13143W        W14007  17.125  14.229  10.066 -0.2137  0.1028 -0.2503
13144W        W14008  15.831  13.713  10.566 -0.0481 -0.0442  0.1123
13145W        W14009  17.469  13.943   9.529 -0.0529 -0.1255 -0.0451
13146W        W14010  16.817  14.699   9.181 -0.0702 -0.1926  0.1025
13147W        W14011  16.365  15.522   7.192  0.0224 -0.3082  0.0272
13148W        W14012  14.659  16.699  11.129 -0.1231  0.1315  0.2718
13149W        W14013  18.241  14.306  12.068 -0.1172  0.2345 -0.0691
13150W        W14014  15.565  12.016  12.102 -0.0927  0.0533 -0.0472
13151W        W14015  13.234  12.997   7.544 -0.1276  0.0260  0.4027
13152W        W14016  19.039  15.987   7.850  0.1712 -0.1362  0.5485
13153W        W14017  18.237  12.806   9.203  0.1758  0.0268  0.0317
13154W        W14018  15.399  11.596  10.959 -0.0018  0.1149  0.1147
13155W        W14019  19.048  15.017  11.186  0.0227  0.1073 -0.2035
13156W        W14020  16.934  12.822  10.396 -0.3175 -0.1042  0.1258
13157W        W14021  14.128   9.350   8.568 -0.1608 -0.3133  0.2610
13158W        W14022  16.227  13.161  10.907 -0.1146 -0.0192  0.0222
13159W        W14023  17.056  14.865   8.712  0.2475  0.1983 -0.1291
13160W        W14024  16.972  13.603   9.239 -0.1761  0.0475  0.0152
13161W        W14025  16.891  14.307   9.459  0.1368  0.0198 -0.0490
13162W        W14026  15.598  12.881  11.113 -0.0534 -0.2373 -0.2714
13163W        W14027  15.600  15.910   9.132  0.2034  0.0021 -0.4227
13164W        W14028  18.987  14.585   9.615 -0.1041  0.1380  0.0840
13165W        W14029  15.247  12.145  10.682 -0.3626  0.1915  0.0856
13166W        W14030  16.934  11.540  10.927 -0.3780 -0.2409  0.1667
13167W        W14031  16.910  14.385   8.764  0.0353 -0.0562 -0.1646
13168W        W14032  15.909  11.354   8.629  0.0769  0.0416  0.1905
13169W        W14033  18.083  12.619  10.719 -0.0380  0.0102 -0.1261
13170W        W14034  14.446  12.280  11.459 -0.0576  0.0598  0.3763
13171W        W14035  15.594  16.996  11.933  0.2092 -0.2166 -0.1002
13172W        W14036  16.017   9.483  12.283  0.1286  0.1077 -0.1212
13173W        W14037  15.401  11.467  10.470  0.0459  0.0328  0.0740
13174W        W14038  12.642  11.874   8.723 -0.1535  0.0547  0.0241
13175W        W14039  14.985  12.631  10.632  0.0473 -0.3594 -0.2196
13176W        W14040  15.459  14.536  10.575 -0.1096  0.1675  0.1401
13177W        W14041  15.558  10.905   9.688  0.3619  0.1622 -0.2972
13178W        W14042  14.816  11.077   9.127 -0.1473 -0.2385 -0.1222
13179W        W14043  17.755  15.646  10.140  0.2518 -0.2756  0.1478
13180W        W14044  12.723  17.040  12.142  0.0269 -0.1634  0.3309
13181W        W14045  16.734  13.101   9.996 -0.1383  0.1018 -0.1948
13182W        W14046  15.572  10.373   9.798 -0.2331  0.0520  0.2418
13183W        W14047  18.207  14.765   6.953 -0.0881  0.0204 -0.1812
13184W        W14048  16.415  12.631  10.142  0.0992  0.1531  0.0038
13185W        W14049  18.864   9.118   7.700 -0.0434  0.1362  0.0895
13186W        W14050  18.651  13.379   8.040 -0.0393 -0.0204 -0.1355
13187W        W14051  14.852  14.057  10.340 -0.1148  0.1352  0.0113
13188W        W14052  18.290  12.210   6.973  0.0574 -0.2638  0.0173
13189W        W14053  15.565  11.615  12.526 -0.0598 -0.0280  0.0027
13190W        W14054  14.333  13.482   8.305 -0.1843 -0.1771  0.0197
13191W        W14055  15.310  11.904   6.892 -0.0788 -0.1207 -0.0407
13192W        W14056  19.513  11.645   7.533 -0.3579 -0.0944  0.0367
13193W        W14057  16.773  10.965   9.716  0.0581  0.1796 -0.1824
13194W        W14058  19.029  12.856   9.415 -0.1887 -0.0099 -0.1213
13195W        W14059  17.977  12.381  11.646  0.0074 -0.1458 -0.3796
13196W        W14060  16.540  16.175   9.099  0.1081  0.0029 -0.0889
13197W        W14061  14.907  13.731   6.815  0.0358 -0.2790 -0.1415
13198W        W14062  16.513  10.680  11.133  0.1970  0.0254 -0.1138
13199W        W14063  14.543  14.705  12.726  0.2663  0.1745  0.0103
13200W        W14064  18.085  11.194   8.400 -0.3987 -0.0607  0.0103
13201W        W14065  16.392  11.995   8.392 -0.0593 -0.0642  0.1844
13202W        W14066  18.984  14.452  10.739  0.0507 -0.2710  0.1350
13203W        W14067  16.622   9.443   8.087  0.1892 -0.1740  0.3645
13204W        W14068  18.951  12.076   9.157  0.2728  0.0548 -0.2901
13205W        W14069  15.342  12.932  10.145 -0.3061 -0.0287  0.1431
13206W        W14070  14.813  12.417   8.605 -0.3771 -0.1042  0.1966
13207W        W14071  13.755  13.267  10.317 -0.1019  0.0552 -0.2319
13208W        W14072  16.066  12.945  10.376 -0.2918  0.2626 -0.0118
13209W        W14073  17.233   9.524  10.083  0.0166  0.2607 -0.0791
13210W        W14074  15.755  16.201  10.084 -0.2749  0.1559  0.2763
13211W        W14075  14.181  14.363  10.958  0.0353 -0.1475  0.0431
13212W        W14076  17.919  10.713   8.526 -0.0316  0.0689  0.0266
13213W        W14077  16.203   8.395  10.474  0.3624  0.0459 -0.2096
13214W        W14078  18.701  11.339  11.266  0.0302  0.0982 -0.1474
13215W        W14079  17.597  13.193  10.421  0.2537 -0.0980  0.1985
13216W        W14080  13.825  13.816  10.116  0.1619 -0.3486 -0.1499
13217W        W14081  19.723  14.342   7.263 -0.3776 -0.3057  0.0872
13218W        W14082  13.959  12.750  11.352  0.1719 -0.1723 -0.1141
13219W        W14083  15.841  14.405  10.194  0.4627 -0.0336  0.0698
13220W        W14084  17.110  14.765   9.620 -0.1603 -0.0789 -0.2990
13221W        W14085  17.490  14.444  10.301  0.0475 -0.0363  0.1607
13222W        W14086  16.234  14.017  10.325 -0.0915 -0.2126  0.1528
13223W        W14087  15.191  15.314  10.832  0.0718 -0.0304 -0.0398
13224W        W14088  12.000  13.666   8.063  0.4163 -0.0387 -0.0671
13225W        W14089  15.365  12.653   7.961  0.4606  0.1987  0.0226
13226W        W14090  16.964   8.319   9.409  0.2110 -0.0501  0.0198
13227W        W14091  21.415  10.667   8.429  0.0517  0.2995 -0.1585
13228W        W14092  16.653  12.364  11.894  0.0102  0.2242  0.0268
13229W        W14093  16.852  12.638  11.204 -0.1937  0.2784  0.0949
13230W        W14094  17.066  10.586   7.871  0.0156  0.1300 -0.2640
13231W        W14095  16.267  12.972  12.459  0.0328 -0.0509 -0.1234
13232W        W14096  15.859  15.436   6.875  0.1711 -0.2490  0.0420
13233W        W14097  17.568  13.648   7.417  0.2141  0.2958  0.2464
13234W        W14098  17.484  12.401   9.653 -0.1617 -0.3230 -0.1482
13235W        W14099  16.875   9.978   7.053 -0.0593  0.1645  0.3248
13236W        W14100  16.528  15.684   8.903  0.0961 -0.2955  0.0876
13237W        W14101  16.396   8.694  14.102 -0.4957 -0.1068 -0.0649
13238W        W14102  18.087   9.264   8.647 -0.0871  0.2757  0.0487
13239W        W14103  16.128  14.316   9.649  0.1169  0.2531 -0.1483
13240W        W14104  17.494  12.771   7.567  0.2982 -0.4270  0.3650
13241W        W14105  15.507  13.985  12.759  0.2775 -0.3231  0.0494
13242W        W14106  15.226  14.929   7.914 -0.1215  0.0752  0.1946
13243W        W14107  13.616  11.296   7.558  0.0863  0.2942 -0.1486
13244W        W14108  18.369  15.757  10.160 -0.0945  0.0847  0.2527
13245W        W14109  13.150   8.218   7.388 -0.0613  0.2236  0.3547
13246W        W14110  15.469   9.011  11.478 -0.2273 -0.0613 -0.4388
13247W        W14111  17.447   9.501   6.369 -0.2191  0.3692 -0.0062
13248W        W14112  18.176  15.414   8.051 -0.0516  0.0676  0.4361
13249W        W14113  15.678  15.153  10.873  0.2499 -0.1553 -0.2400
13250W        W14114  16.738  13.219   8.433  0.1580 -0.1559 -0.1563
13251W        W14115  16.703  11.915   6.569  0.1504  0.0041  0.1356
13252W        W14116  13.378  14.347  11.544 -0.2527  0.1148 -0.0645
13253W        W14117  17.539  10.649  10.240  0.1705  0.1281 -0.2035
13254W        W14118  15.044  10.702  10.751  0.0844 -0.1728  0.3272
13255W        W14119  16.141  13.541  10.220  0.0029 -0.5337  0.0200
13256W        W14120  15.594  10.774  10.159  0.3135  0.1431  0.1050
13257W        W14121  15.697  14.045  11.767 -0.0289  0.0085 -0.2106
13258W        W14122  16.339  13.954   9.330  0.1556  0.0340  0.2857
13259W        W14123  19.571  12.994   7.881  0.2526  0.0404 -0.0077
13260W        W14124  17.232  15.512   7.770 -0.1776 -0.2632  0.0948
13261W        W14125  16.352  15.474  11.242  0.2059  0.0151  0.2234
13262W        W14126  18.565  14.119   8.155  0.0923 -0.3633  0.1435
13263W        W14127  17.151  14.911  10.170 -0.0593 -0.1101 -0.1661
13264W        W14128  16.267  14.867   9.220 -0.0616  0.1269 -0.0473
13265W        W14129  17.676  11.477   7.462  0.0178 -0.5039 -0.0469
13266W        W14130  16.119  13.785   8.912 -0.1190 -0.0845 -0.0555
13267W        W14131  17.580  13.528   8.437 -0.0819 -0.1866 -0.0866
13268W        W14132  17.033  12.744   7.739 -0.0158  0.1656  0.0022
13269W        W14133  16.373  15.481   9.920  0.0594  0.1187 -0.1059
13270W        W14134  20.326  15.654   8.165  0.1443 -0.1637 -0.3241
13271W        W14135  17.703   8.568  11.670 -0.0016 -0.0564  0.1755
13272W        W14136  14.275  11.970   9.238  0.0972  0.3859 -0.2322
13273W        W14137  19.412  14.677   8.282 -0.2204 -0.2451  0.1366
13274W        W14138  17.274  14.562   9.154 -0.0146 -0.2290  0.0101
13275W        W14139  14.641  10.895  11.507  0.1865 -0.3548  0.1068
13276W        W14140  15.358  14.095  10.181 -0.0769  0.0238 -0.3336
13277W        W14141  13.824  14.386   8.861  0.2674  0.0379  0.0831
13278W        W14142  16.277  14.073  11.191 -0.0365  0.0449 -0.2281
13279W        W14143  18.057  14.645   9.817  0.1080  0.1238  0.2120
13280W        W14144  17.520  13.104  12.653  0.2133 -0.1184 -0.4439
13281W        W14145  16.655  13.598  10.084  0.2594  0.0556  0.3539
13282W        W14146  18.111  14.133   9.693 -0.0395 -0.1172  0.0050
13283W        W14147  15.060  15.703  11.156  0.1665  0.1480 -0.0759
13284W        W14148  15.991  15.762   9.485 -0.2517  0.2177  0.3256
13285W        W14149  17.669  11.250  12.165 -0.5521  0.0961  0.1732
13286W        W14150  16.215  17.235  10.893  0.0308 -0.5085  0.2700
13287W        W14151  14.385  15.925   7.120  0.4074 -0.2166 -0.1465
13288W        W14152  17.519  14.079   7.683  0.0530 -0.1759 -0.0750
13289W        W14153  17.465  14.480   7.310 -0.0069 -0.3075  0.1226
13290W        W14154  14.744  15.108  11.143 -0.0455 -0.1031  0.3163
13291W        W14155  14.112  11.082   9.716  0.0991 -0.1260 -0.1147
13292W        W14156  17.714  12.831   9.108 -0.2540 -0.0808 -0.0740
13293W        W14157  15.301  14.008   7.902 -0.2935 -0.0179  0.1057
13294W        W14158  18.092  13.077   9.644  0.3525 -0.1725 -0.3033
13295W        W14159  16.718  12.525   9.206  0.0534  0.2477  0.0273
13296W        W14160  15.655  12.355  13.584  0.3255 -0.1004 -0.1092
13297W        W14161  14.793  11.230  15.963  0.1017  0.0189 -0.0038
13298W        W14162  16.263  12.331  12.209  0.0865 -0.1165  0.0204
13299W        W14163  19.829  11.123  12.962 -0.4040  0.1263 -0.0220
13300W        W14164  16.345  14.399  12.344 -0.1532 -0.2629  0.1636
13301W        W14165  14.802   9.813  11.796 -0.1933  0.0421 -0.1113
13302W        W14166  13.418  12.160  12.841 -0.2896 -0.0270 -0.1654
13303W        W14167  15.860  12.861  11.545  0.1471 -0.2894 -0.0702
13304W        W14168  17.536  13.364  13.912 -0.1649 -0.4473 -0.0409
13305W        W14169  15.110  11.210  10.832 -0.1531  0.1225 -0.1539
13306W        W14170  16.190  12.680  13.665 -0.1237 -0.1097 -0.1137
13307W        W14171  18.314  12.608  13.253 -0.1361  0.0575  0.0932
13308W        W14172  16.747   9.935   8.518  0.3130  0.0910  0.2541
13309W        W14173  16.667  12.698  14.951  0.0715  0.0705 -0.1292
13310W        W14174  15.390  13.523  12.703 -0.0796 -0.2884  0.1264
13311W        W14175  14.071  14.455  16.553 -0.0892 -0.0001 -0.2624
13312W        W14176  13.232  15.227   8.953  0.1143  0.0753  0.0337
13313W        W14177  16.885  12.877  11.803 -0.0830 -0.1874 -0.1093
13314W        W14178  15.951  14.223  14.670  0.2781 -0.1637  0.1141
13315W        W14179  20.100  12.504  12.705 -0.1813 -0.0088  0.3107
13316W        W14180  17.222  12.691  14.863  0.0087  0.1733 -0.0326
13317W        W14181  17.204  12.233  13.148 -0.1321 -0.2935  0.0969
13318W        W14182  17.070  11.781  15.967 -0.4335  0.2984  0.2255
13319W        W14183  15.673  11.646  14.343  0.0864 -0.1922  0.1768
13320W        W14184  15.489  12.099  14.044  0.1274  0.1048  0.1732
13321W        W14185  15.883  10.882  16.056 -0.1769 -0.0144 -0.1024
13322W        W14186  19.665   9.460  13.122  0.0248 -0.1302  0.0390
13323W        W14187  16.169  15.969  13.861  0.0099 -0.0559 -0.0315
13324W        W14188  16.060  14.225  14.195  0.0908 -0.4306  0.0475
13325W        W14189  15.895  11.830  13.904  0.1382 -0.1351 -0.0460
13326W        W14190  15.019  13.675  13.957 -0.1812 -0.1116 -0.2349
13327W        W14191  15.184  14.633  18.430 -0.0005  0.1746 -0.0203
13328W        W14192  16.585  11.438  16.510  0.3486 -0.2706  0.4531
13329W        W14193  15.902   9.428  15.219 -0.3196  0.1789  0.0108
13330W        W14194  15.408  11.143  14.634 -0.3817 -0.1303 -0.1451
13331W        W14195  18.752  13.150  13.836  0.1326 -0.3378  0.0122
13332W        W14196  15.868   9.148   9.798 -0.0500 -0.0669  0.0395
13333W        W14197  16.192  15.131  13.770  0.0704 -0.0538  0.2404
13334W        W14198  17.580  13.879  12.557 -0.1607 -0.1893  0.0376
13335W        W14199  17.566  12.425  12.486  0.0361  0.1973  0.0079
13336W        W14200  16.817  10.893  13.492 -0.1477  0.0927 -0.2518
13337W        W14201  18.575  10.644  12.848  0.1849 -0.3102  0.0818
13338W        W14202  16.521  17.074  12.480 -0.0747 -0.1005 -0.2858
13339W        W14203  16.616  13.491  12.161 -0.0955  0.2733 -0.1880
13340W        W14204  14.266  13.290  10.124 -0.0097  0.1692 -0.1790
13341W        W14205  14.250  13.199  12.283 -0.0296 -0.1741 -0.1825
13342W        W14206  16.312  11.684  14.629  0.0802 -0.0230 -0.1187
13343W        W14207  20.439  11.237  12.922 -0.0586 -0.1001 -0.0245
13344W        W14208  18.416  12.052  10.855  0.0084  0.0102 -0.1723
13345W        W14209  14.738  13.846  11.252  0.1684 -0.0678 -0.1773
13346W        W14210  16.816  12.339  13.617 -0.6453 -0.0339  0.3565
13347W        W14211  18.812  11.192  12.664  0.0689 -0.2340 -0.1096
13348W        W14212  14.630  12.428  14.571 -0.0094  0.2006  0.0987
13349W        W14213  16.980  13.965  11.812 -0.3458  0.1128 -0.0821
13350W        W14214  17.451  10.870  12.456 -0.1670  0.3298  0.2826
13351W        W14215  14.746  15.416  10.672 -0.0614 -0.3680  0.2956
13352W        W14216  15.833   9.902  13.945 -0.1035  0.0847  0.1625
13353W        W14217  18.652  10.926  12.288  0.0485 -0.0625  0.1922
13354W        W14218  13.866  14.488  11.322  0.0497  0.0247 -0.1925
13355W        W14219  16.148  13.250  14.527  0.0467 -0.0344  0.2629
13356W        W14220  16.242  13.141   9.952 -0.0096 -0.3113  0.0862
13357W        W14221  14.895  13.922  13.511  0.0145 -0.0688 -0.1595
13358W        W14222  15.875  15.508  13.915 -0.0815  0.1872 -0.3927
13359W        W14223  15.296  14.157  15.975 -0.1759 -0.1727 -0.2570
13360W        W14224  18.052   9.093  17.178  0.0125 -0.2579  0.0781
13361W        W14225  16.081  11.307  13.245  0.2241  0.0755  0.0368
13362W        W14226  14.947  13.996  12.115 -0.1323  0.1401 -0.0312
13363W        W14227  16.524  10.300  12.188 -0.0907 -0.0426 -0.3809
13364W        W14228  18.266  13.437  13.170  0.0965  0.0681  0.3682
13365W        W14229  16.360  11.943  14.180 -0.0950 -0.0118  0.2163
13366W        W14230  18.857  10.840  11.353  0.1498  0.2635  0.1699
13367W        W14231  16.785   9.779  11.983 -0.0943 -0.1739  0.0627
13368W        W14232  18.558  12.768  11.473  0.3131 -0.2340 -0.0556
13369W        W14233  15.741   9.614  11.914  0.0431 -0.1488 -0.1831
13370W        W14234  16.666  13.998  12.221  0.0976 -0.0731 -0.0387
13371W        W14235  16.904  11.821  13.919  0.1901 -0.0012  0.2064
13372W        W14236  13.491  13.393  13.049  0.0381  0.1550 -0.1082
13373W        W14237  17.201  13.325  16.090 -0.0506 -0.0141 -0.2385
13374W        W14238  14.626  13.779  11.720  0.1504 -0.0845  0.3252
13375W        W14239  18.234  10.855  11.926  0.0491 -0.3239 -0.0787
13376W        W14240  12.648  14.669  14.840  0.1954  0.0757  0.2970
13377W        W14241  15.829  13.352  14.120 -0.1532 -0.2367 -0.1759
13378W        W14242  15.208  10.284  14.390 -0.0847 -0.2321  0.1060
13379W        W14243  17.410   9.690  13.140  0.0916 -0.1493 -0.2994
13380W        W14244  15.807  11.188  14.051  0.1363  0.1143 -0.0036
13381W        W14245  17.572   9.189  11.160  0.3374  0.1193 -0.1552
13382W        W14246  16.635  14.993  14.642 -0.1142 -0.0160 -0.2814
13383W        W14247  16.977  10.717  13.980 -0.1144  0.1473  0.1296
13384W        W14248  16.901  12.712  13.938 -0.0758 -0.1197  0.0113
13385W        W14249  18.551   9.661  13.785  0.2027 -0.0880  0.1309
13386W        W14250  16.586   9.916  10.461  0.0483 -0.0775 -0.3167
13387W        W14251  17.805  13.270  15.638 -0.0021 -0.0408 -0.1900
13388W        W14252  14.003  16.415   9.838 -0.0810 -0.0483 -0.1223
13389W        W14253  18.093  12.646  11.196 -0.1507  0.1340  0.2803
13390W        W14254  15.377  12.145  15.070 -0.0942 -0.0563  0.0776
13391W        W14255  17.055  13.417  11.924 -0.1482 -0.1941  0.0981
13392W        W14256  17.754  12.351  13.276  0.2035 -0.0033  0.1556
13393W        W14257  15.311  12.757  15.046  0.0356 -0.1086  0.0445
13394W        W14258  15.000  10.241  12.030 -0.0483 -0.1461 -0.1661
13395W        W14259  19.182  13.420  13.751  0.1589 -0.1275  0.0226
13396W        W14260  16.524  14.986  12.589 -0.0228 -0.0211 -0.0276
13397W        W14261  14.200  13.097  12.913  0.0925  0.2191  0.0100
13398W        W14262  16.369   9.401   9.511 -0.2793  0.2555 -0.0517
13399W        W14263  18.924  14.133  13.675  0.0473  0.2456  0.1109
13400W        W14264  19.208  10.111  12.371  0.3066 -0.1036 -0.1383
13401W        W14265  20.510  10.727  12.861  0.1045 -0.1569  0.0667
13402W        W14266  19.689  16.296  15.407 -0.1499  0.2055 -0.0065
13403W        W14267  16.560  14.879  13.458 -0.2492 -0.3939 -0.0698
13404W        W14268  17.789  11.104  11.711 -0.2292  0.1921 -0.1683
13405W        W14269  14.321  14.606  14.732  0.1529  0.2495  0.0323
13406W        W14270  12.873  14.288  14.605  0.0045 -0.1781  0.3622
13407W        W14271  14.185  12.211  13.907 -0.0102  0.0033  0.1183
13408W        W14272  16.708  11.591  11.638  0.1038  0.3061  0.1990
13409W        W14273  17.239  14.210  13.444 -0.0154  0.0617  0.1808
13410W        W14274  15.534  16.325  11.447 -0.1643 -0.0193 -0.1138
13411W        W14275  14.373  12.687  14.023 -0.3863 -0.1094  0.2603
13412W        W14276  17.843  11.898  13.556 -0.0380  0.1185  0.0875
13413W        W14277  14.860  15.553  15.795  0.2736 -0.0013  0.2334
13414W        W14278  17.643   8.972  12.667  0.0350  0.0367 -0.2626
13415W        W14279  15.933  12.033  14.391  0.2856  0.0038 -0.3389
13416W        W14280  18.058  11.591   8.867 -0.0189  0.1912  0.1519
13417W        W14281  18.966  15.733  14.129 -0.1647 -0.1021 -0.2062
13418W        W14282  19.623  15.032  12.291  0.1868  0.1042 -0.1008
13419W        W14283  17.011  12.493  12.688  0.2024  0.1307 -0.0389
13420W        W14284  18.653  12.133  13.939 -0.3250  0.1688  0.3143
13421W        W14285  16.000  10.042  11.543 -0.2140  0.2160 -0.1512
13422W        W14286  13.360   9.575  15.020  0.3257 -0.1409  0.1324
13423W        W14287  19.313  12.048  12.732  0.1070  0.2826  0.1668
13424W        W14288  20.590  12.698  13.037  0.1138 -0.1782 -0.0508
13425W        W14289  14.281  13.532  12.726  0.2092  0.1406 -0.0387
13426W        W14290  17.581  15.362  14.797 -0.0200 -0.1889 -0.4490
13427W        W14291  15.282  12.593  13.394 -0.1136  0.1073  0.3572
13428W        W14292  16.708  16.868  14.452 -0.3289 -0.0495 -0.1254
13429W        W14293  18.652   9.090  11.816  0.2498  0.3039  0.0036
13430W        W14294  16.238  13.209  11.699 -0.1237  0.3902  0.2543
13431W        W14295  15.431   9.151  12.239 -0.2388 -0.0204 -0.0208
13432W        W14296  17.356  10.055   9.734  0.0536  0.0970 -0.4216
13433W        W14297  17.075  11.627  13.112 -0.0357 -0.0139  0.0369
13434W        W14298  15.530  14.921   9.567 -0.0234 -0.1720  0.2166
13435W        W14299  18.073  15.810  11.801 -0.1406 -0.0462 -0.0935
13436W        W14300  16.794  10.676  10.621  0.3216 -0.0470 -0.0742
13437W        W14301  19.107  10.280  12.937 -0.3477  0.3997  0.1232
13438W        W14302  14.736  13.742   9.947 -0.1394  0.1213 -0.2383
13439W        W14303  15.366  14.391  12.268  0.0356 -0.0846  0.3362
13440W        W14304  16.347   9.584  16.072  0.0971  0.3203 -0.0135
13441W        W14305  17.975  11.441  12.816 -0.0329 -0.1329  0.0821
13442W        W14306  15.438  12.426  12.528  0.0307  0.0869 -0.0397
13443W        W14307  16.903  15.474  12.649 -0.0200  0.0094  0.0545
13444W        W14308  15.389  16.423  14.929 -0.2278  0.0438 -0.0516
13445W        W14309  16.555  12.624  15.700 -0.1562  0.1783 -0.1646
13446W        W14310  20.697  14.291  13.835  0.2286 -0.1954 -0.0787
13447W        W14311  13.953  11.245  12.145 -0.0140 -0.2350  0.0230
13448W        W14312  13.462  15.306  13.255 -0.0392 -0.2028  0.0881
13449W        W14313  16.920   8.983  11.641  0.1414  0.3952  0.2225
13450W        W14314  18.272  11.510  13.263  0.0436 -0.2878  0.3398
13451W        W14315  17.365  10.355  12.320  0.0775  0.1269  0.1124
13452W        W14316  14.895  13.550  17.082  0.0178 -0.4339 -0.1703
13453W        W14317  17.896  13.605  11.182  0.2177 -0.1724  0.1453
13454W        W14318  15.475   7.577  14.110  0.0017  0.1086 -0.1022
13455W        W14319  16.116  10.541  12.935 -0.2392 -0.1011 -0.1535
13456W        W14320  17.513  12.716  14.003 -0.2592  0.0760 -0.1024
13457W        W14321  16.646  15.189  15.130 -0.0644 -0.0345 -0.0750
13458W        W14322  17.202  12.329  13.974  0.2347  0.0210 -0.3902
13459W        W14323  18.615  14.736  12.919  0.0294  0.0130 -0.0308
13460W        W14324  15.703  11.386  15.172  0.2473  0.3045  0.5638
13461W        W14325  12.550  12.522  14.474  0.0764 -0.0038  0.0197
13462W        W14326  16.954   9.497  12.338  0.1813  0.0838  0.0005
13463W        W14327  16.399  13.205  13.114 -0.2423  0.0215 -0.1632
13464W        W14328  16.661  15.363  13.701  0.0062  0.0568  0.3365
13465W        W14329  13.484  11.744  15.967  0.1881 -0.0904  0.1541
13466W        W14330  16.079  13.352  12.740 -0.1279 -0.0763 -0.2028
13467W        W14331  17.892  12.760  12.456 -0.2027 -0.0796 -0.5968
13468W        W14332  18.646  13.037  13.273  0.1676  0.2487 -0.1585
13469W        W14333  13.376  13.881  11.736  0.0671 -0.1341  0.1069
13470W        W14334  15.867  13.362  13.232 -0.0526 -0.0501  0.0647
13471W        W14335  16.298  12.091  10.073 -0.0421 -0.0740 -0.2226
13472W        W14336  18.101  14.031  12.493  0.2525 -0.0221  0.2662
13473W        W14337  15.823  15.505  15.019 -0.0949 -0.0560  0.1609
13474W        W14338  13.705  17.773  11.502  0.0285 -0.0849 -0.1110
13475W        W14339  17.595  10.175  13.759  0.1182  0.3046  0.3038
13476W        W14340  15.814  11.711  10.570  0.0790 -0.0372  0.0044
13477W        W14341  18.018  12.944  11.646  0.0405  0.0816  0.0511
13478W        W14342  15.697  14.922  10.336 -0.1619 -0.3134 -0.1394
13479W        W14343  17.461  13.645  12.029  0.0371 -0.1512 -0.1556
13480W        W14344  16.467  13.673  12.994  0.0781 -0.0345  0.0862
13481W        W14345  17.100  13.163  14.217  0.0008  0.0802 -0.1715
13482W        W14346  17.378  11.658  11.698  0.1037  0.1098 -0.1365
13483W        W14347  15.557  11.443  12.055  0.2419  0.2160 -0.0580
13484W        W14348  15.621  14.867  15.449 -0.0554  0.0639  0.1676
13485W        W14349  13.480  12.600  13.671 -0.0868  0.1242 -0.1600
13486W        W14350  14.882  12.931  12.067 -0.2356  0.4163  0.1393
13487W        W14351  14.006  13.879  13.477  0.0339 -0.0141 -0.0888
13488W        W14352  15.781  11.390  13.600 -0.0769 -0.2245  0.1653
13489W        W14353  13.435  10.166  15.632 -0.1559  0.0999  0.3988
13490W        W14354  17.870  11.701  15.746 -0.0098  0.2655  0.2529
13491W        W14355  15.865  10.718  13.362  0.1240  0.0665 -0.3730
13492W        W14356  17.110  12.449  11.593  0.2724  0.0967  0.0497
13493W        W14357  16.358  12.968  15.989 -0.3927 -0.0413 -0.1446
13494W        W14358  15.874  13.738  12.919 -0.2102  0.2613  0.1417
13495W        W14359  17.257  11.275  15.168  0.3339 -0.0610  0.3744
13496W        W14360  15.067  12.457  12.906  0.0259 -0.1663  0.4915
13497W        W14361  16.049  10.607  12.041  0.0859  0.2351  0.1608
13498W        W14362  20.005  12.546  11.372  0.1129  0.3229  0.1386
13499W        W14363  16.026  12.885  12.976  0.3688 -0.0713  0.3387
13500W        W14364  17.207  10.138  15.643  0.1163  0.0723  0.1067
13501W        W14365  15.580  11.173  11.358 -0.3448 -0.0887 -0.0483
13502W        W14366  15.134  13.386  15.578 -0.1639  0.2292  0.1050
13503W        W14367  15.702  13.000  14.874 -0.0390 -0.1558 -0.0527
13504W        W14368  13.512  15.521  12.130  0.2770  0.1135 -0.0525
13505W        W14369  13.520  11.920  10.582 -0.0934  0.1067 -0.1048
13506W        W14370  13.233  14.959  13.966 -0.1221 -0.0870  0.0496
13507W        W14371  16.324  12.430  12.826  0.0096 -0.1425  0.1606
13508W        W14372  16.816  13.066  14.641  0.1439  0.0004 -0.0120
13509W        W14373  16.832  12.017  12.386  0.3070 -0.2932  0.0150
13510W        W14374  20.319  11.553  16.065 -0.3579 -0.2221  0.1637
13511W        W14375  18.612  10.277  13.730 -0.0279  0.1376 -0.1433
13512W        W14376  18.010   9.642  13.948  0.0881  0.1432 -0.3375
13513W        W14377  17.655  15.825  14.453  0.1977 -0.1097  0.0628
13514W        W14378  16.871  11.440  15.550  0.0731 -0.0118 -0.2353
13515W        W14379  16.405  14.090  14.642  0.1071  0.0724  0.0548
13516W        W14380  19.983   8.191  16.137 -0.0102  0.1431 -0.1665
13517W        W14381  16.815  13.759  12.663  0.2675  0.3107  0.1658
13518W        W14382  18.789  13.358  11.151  0.0524 -0.1503 -0.2830
13519W        W14383  15.557   9.902  14.452  0.2555  0.2841  0.1235
13520W        W14384  15.837  14.151  12.369 -0.0402 -0.1779 -0.2687
13521W        W14385  14.478  12.935  14.493  0.2254 -0.0741 -0.2416
13522W        W14386  18.909  12.005  13.079  0.1150 -0.0844 -0.1779
13523W        W14387  18.459  10.478  10.931  0.1550  0.0777  0.1043
13524W        W14388  16.330  14.709  11.758  0.0529  0.0874 -0.1153
13525W        W14389  18.125  12.040  11.220  0.1189 -0.1784  0.0536
13526W        W14390  15.465  11.411  15.690  0.0632 -0.1498 -0.0997
13527W        W14391  15.254  13.226  14.959 -0.0290 -0.1043 -0.0491
13528W        W14392  15.123  12.787  15.849 -0.0982  0.1007  0.0624
13529W        W14393  17.512  13.646  14.344  0.2621 -0.2858 -0.2467
13530W        W14394  15.396  12.004  14.545  0.0899 -0.0851 -0.3586
13531W        W14395  15.505  13.651  11.447 -0.1387 -0.2076 -0.0714
13532W        W14396  17.792  12.247  10.880  0.1177  0.1741  0.0558
13533W        W14397  17.152  12.117  16.430  0.1597 -0.3265 -0.3103
13534W        W14398  18.212  13.150  11.284 -0.0020 -0.0008  0.0002
13535W        W14399  19.312  13.056  10.576 -0.0819 -0.2572  0.1025
13536W        W14400  17.222  13.557  13.506 -0.0466  0.4017  0.0017
13537W        W14401  15.627  12.380  17.270  0.1675 -0.2186 -0.2289
13538W        W14402  17.035  12.208  14.902  0.1047  0.3291 -0.0564
13539W        W14403  16.997  10.699  12.208 -0.2645 -0.1925 -0.1457
13540W        W14404  16.262  13.606  14.035 -0.0981 -0.3398 -0.0080
13541W        W14405  17.749  13.387  13.421 -0.3269 -0.1170  0.0722
13542W        W14406  14.738  11.214  14.254 -0.0480  0.1059 -0.0746
13543W        W14407  15.407  15.221  15.056  0.1426 -0.1662 -0.1129
13544W        W14408  18.427  14.139  13.896  0.1900 -0.1772  0.2922
13545W        W14409  16.781   8.971  11.096  0.0301  0.1206 -0.0838
13546W        W14410  13.697  13.614  14.239  0.0496 -0.1220 -0.0419
13547W        W14411  15.320  14.449  12.917 -0.2088 -0.1542 -0.2371
13548W        W14412  15.911  14.693  13.214  0.3033  0.0851  0.1153
13549W        W14413  17.462  15.409  16.199  0.0889  0.0482 -0.4551
13550W        W14414  15.394  12.337   9.929  0.2570  0.0290  0.1297
13551W        W14415  18.250  11.826  13.833 -0.0889  0.1602  0.1017
13552W        W14416  15.478  11.997   9.562  0.0911 -0.1916  0.0910
13553W        W14417  16.676  13.485  14.361  0.1749  0.1356  0.3244
13554W        W14418  18.284  12.038  12.503 -0.2548  0.0275  0.0552
13555W        W14419  16.045  12.686  10.957  0.0923  0.1059  0.3173
13556W        W14420  15.883  12.583  12.597  0.0919  0.0023  0.2703
13557W        W14421  16.285  10.022  13.812  0.2271 -0.1646  0.0774
13558W        W14422  17.017  15.081  13.424  0.0618 -0.1554 -0.0432
13559W        W14423  17.494   9.881  14.950 -0.0559  0.0318  0.0227
13560W        W14424  14.064  16.420  14.421 -0.1769  0.0698 -0.1326
13561W        W14425  18.573  12.166  13.434 -0.1333  0.3405 -0.0965
13562W        W14426  16.480  11.857  12.081 -0.1721 -0.0267 -0.3205
13563W        W14427  16.792  14.606   9.961  0.2213 -0.1403 -0.0424
13564W        W14428  14.161   9.666  13.900 -0.0421  0.0930  0.0668
13565W        W14429  19.869  11.103  10.647 -0.1087 -0.0427  0.1024
13566W        W14430  12.819  16.353  12.636 -0.0920 -0.1273  0.0125
13567W        W14431  19.654  10.200  15.052 -0.0783 -0.0715  0.2309
13568W        W14432  17.272   8.741   9.984  0.0628 -0.4261 -0.4085
13569W        W14433  14.984  11.246  15.478  0.0451  0.2114 -0.0431
13570W        W14434  17.800  11.885  12.660 -0.3351 -0.1927  0.4417
13571W        W14435  17.426  10.173  17.159  0.0942 -0.0940 -0.1979
13572W        W14436  15.752  10.728  12.523  0.0171 -0.1421  0.4626
13573W        W14437  15.446  12.639  13.993  0.1640 -0.0306  0.0967
13574W        W14438  16.817  12.055  12.868 -0.2909 -0.0445 -0.0710
13575W        W14439  15.443  12.442  16.744 -0.1415  0.1240 -0.3789
13576W        W14440  18.186  13.952  13.000 -0.3090  0.3078  0.1371
13577W        W14441  13.638  13.237  14.637  0.0811  0.0265 -0.0759
13578W        W14442  15.418  11.613  13.891 -0.1205 -0.0074  0.0638
13579W        W14443  13.584  13.897  12.226  0.4956  0.0503 -0.1736
13580W        W14444  18.057   9.888  11.882 -0.2531  0.2435  0.0044
13581W        W14445  18.602  10.365  16.077 -0.1456 -0.0044  0.2019
13582W        W14446  13.756   9.600  14.225 -0.0555  0.1531 -0.3167
13583W        W14447  16.306  12.155  13.694  0.0535  0.0481 -0.0588
13584W        W14448  18.759  10.268  12.517 -0.0448  0.0752 -0.1290
13585W        W14449  19.039  12.822  11.319  0.1811 -0.0770  0.0637
13586W        W14450  15.988  10.762  10.878  0.0692 -0.2109  0.0124
13587W        W14451  16.493   9.423  12.260 -0.2139  0.1333 -0.1544
13588W        W14452  17.818  13.104  14.215 -0.0205  0.0327 -0.3403
13589W        W14453  14.321  14.220  11.381  0.2271 -0.2002  0.1876
13590W        W14454  16.182  11.459  14.193 -0.0382 -0.2741  0.0382
13591W        W14455  16.717  10.068  13.438 -0.1376 -0.4237 -0.5908
13592W        W14456  16.832  11.977  14.519  0.2995 -0.0411 -0.4320
13593W        W14457  18.267  14.974  14.452 -0.2594 -0.0362 -0.2257
13594W        W14458  18.035  11.957  13.069 -0.0055  0.0580  0.0181
13595W        W14459  14.548  13.542  13.659  0.2112 -0.0249  0.0616
13596W        W14460  16.623  14.071  14.169  0.0393 -0.1945 -0.1741
13597W        W14461  13.735  11.655  14.203  0.0426  0.0503  0.0275
13598W        W14462  18.762  11.578  14.098  0.0825  0.3554  0.1787
13599W        W14463  16.299  12.767  11.946 -0.0666 -0.0339  0.2584
13600W        W14464  15.032  15.949  10.721 -0.2980  0.1860  0.2796
13601W        W14465  15.357  14.845  13.381  0.1707  0.1538 -0.2100
13602W        W14466  17.328  14.197  14.888 -0.0029 -0.1675  0.1122
13603W        W14467  15.748   8.054  14.268  0.0961 -0.2410 -0.1119
13604W        W14468  19.083  12.048  11.470  0.0340  0.1900  0.0101
13605W        W14469  13.739  12.267  14.644  0.1184 -0.0227  0.2000
13606W        W14470  15.631  13.308  10.354 -0.1947  0.4254 -0.1539
13607W        W14471  20.395  12.930  11.475 -0.1871  0.1456 -0.0819
13608W        W14472  17.916  11.445  13.728 -0.2274  0.0262  0.2368
13609W        W14473  18.225  13.137  12.647 -0.0177  0.0447  0.1567
13610W        W14474  13.991  15.283  12.410 -0.1266 -0.0420 -0.3683
13611W        W14475  17.480  14.964  13.997  0.0167 -0.0844  0.1388
13612W        W14476  17.848  11.463  11.319  0.2786  0.0984  0.0228
13613W        W14477  18.965  11.668   9.461  0.3122  0.0836  0.2056
13614W        W14478  16.470  14.555  14.344  0.1835 -0.2755 -0.2431
13615W        W14479  16.928  13.922  13.173  0.1319 -0.2001  0.0739
13616W        W14480  16.440  15.509   9.380 -0.0719  0.3444 -0.3271
13617W        W14481  15.100   9.831  14.666  0.1511  0.2144 -0.2351
13618W        W14482  18.618  12.871  12.826 -0.0898  0.0938  0.0990
13619W        W14483  14.703  11.613  12.320  0.3286 -0.0089  0.1388
13620W        W14484  15.450  10.736  11.087 -0.0299 -0.0551 -0.0503
13621W        W14485  16.148  11.921   9.441  0.4054 -0.1420  0.1555
13622W        W14486  17.300  12.817  12.324 -0.1891 -0.3844  0.0778
13623W        W14487  13.944  14.549  13.580  0.2838  0.0049 -0.0533
13624W        W14488  17.014   9.630  14.273 -0.2104 -0.1226  0.0179
13625W        W14489  16.825  10.212  10.819 -0.0921 -0.1631  0.0536
13626W        W14490  17.726  14.681  16.888  0.0822 -0.1160  0.0138
13627W        W14491  18.041  15.972  15.851 -0.1998  0.1383  0.1597
13628W        W14492  17.939  12.056  14.714  0.1248  0.0548  0.2169
13629W        W14493  17.211  13.470  12.905  0.5294  0.0904 -0.1756
13630W        W14494  17.142  15.800  12.135 -0.0867 -0.1469  0.4146
13631W        W14495  16.198  15.119  10.208  0.0600 -0.0220  0.0334
13632W        W14496  17.244  13.531  10.972 -0.0030 -0.0325 -0.1121
13633W        W14497  16.667   6.243  14.104 -0.1298  0.0851 -0.2134
13634W        W14498  12.230  13.191  14.019  0.3388  0.1225  0.1462
13635W        W14499  14.958  10.793  16.847 -0.2332 -0.1076 -0.0159
13636W        W14500  17.941  12.237  12.158  0.2413 -0.2330  0.2002
13637W        W14501  13.805  15.486   7.526 -0.1433  0.0130  0.2604
13638W        W14502  16.311  11.933  12.543  0.2612  0.0174  0.1009
13639W        W14503  16.370  13.073  14.969 -0.1405  0.1581  0.0715
13640W        W14504  15.636  11.125  13.162  0.0423 -0.1567 -0.1743
13641W        W14505  14.797  11.962  11.692  0.0910  0.1309 -0.1414
13642W        W14506  16.974  12.668  13.211 -0.0272 -0.0362  0.1277
13643W        W14507  13.549  13.188  11.254  0.0302 -0.0276  0.2145
13644W        W14508  16.153  13.957  15.055  0.1521 -0.1925 -0.0023
13645W        W14509  16.746  11.827   9.583  0.0494 -0.1461  0.0411
13646W        W14510  16.356  12.851  11.285 -0.0101  0.0269 -0.0807
13647W        W14511  17.635  13.730  14.868  0.1586 -0.1409 -0.0964
13648W        W14512  16.296  14.174  11.764 -0.0017 -0.0609  0.1606
13649W        W14513  15.043   8.507  10.072  0.0956  0.0678  0.0691
13650W        W14514  13.182  15.119  12.080 -0.1613 -0.0595  0.0395
13651W        W14515  18.505   9.357  15.801  0.3576 -0.0734  0.2169
13652W        W14516  13.980  13.109  15.025  0.0038 -0.0078 -0.0258
13653W        W14517  15.490  10.559  12.064 -0.0425  0.1984  0.2210
13654W        W14518  17.455  13.138  14.595  0.0008  0.0352  0.2809
13655W        W14519  14.027  10.245  16.690  0.3626  0.0418  0.2585
13656W        W14520  13.979  11.569  16.579 -0.4943  0.0314 -0.0262
13657W        W14521  17.144  10.859  11.561 -0.4284  0.2708  0.0135
13658W        W14522  16.321  15.588  14.138  0.3855  0.1595 -0.0542
13659W        W14523  17.478  15.357  14.299 -0.0952 -0.2744 -0.2543
13660W        W14524  20.247  13.279  11.836 -0.1960  0.0804 -0.2259
13661W        W14525  17.788  14.321  12.852 -0.0851 -0.1639  0.0468
13662W        W14526  16.329   9.188  10.049  0.2765 -0.1976 -0.1257
13663W        W14527  20.585  10.756  10.209  0.0105 -0.1608 -0.0301
13664W        W14528  14.294  11.661  10.778 -0.2158 -0.4201  0.1689
13665W        W14529  20.259   9.662  11.002  0.0460 -0.0707 -0.1513
13666W        W14530  14.506  13.629  12.190 -0.1615  0.3014 -0.1412
13667W        W14531  15.002  11.714  13.677 -0.5205  0.0525 -0.0275
13668W        W14532  18.365  13.616  11.364 -0.1480  0.0598 -0.2598
13669W        W14533  16.728  10.957  15.673  0.1733 -0.0289  0.0788
13670W        W14534  16.553  14.970  15.600 -0.0954 -0.0090  0.2144
13671W        W14535  17.195  13.519  12.399 -0.2338  0.0167  0.0158
13672W        W14536  17.324  12.008  13.573  0.1242  0.0369 -0.0564
13673W        W14537  15.574  13.407  14.581  0.0673 -0.0544 -0.1893
13674W        W14538  13.885  13.078  16.188 -0.0008 -0.0349 -0.2631
13675W        W14539  16.848  14.019  13.736 -0.0501  0.4625  0.1374
13676W        W14540  15.105  12.315  14.248 -0.0064 -0.0206 -0.1832
13677W        W14541  16.663  11.082  13.919  0.0415 -0.2622 -0.0408
13678W        W14542  18.658  13.520  13.415 -0.0217  0.2050  0.1232
13679W        W14543  16.940  11.533  12.685 -0.0903  0.0935  0.0865
13680W        W14544  18.110  14.939  13.346 -0.3043 -0.2395  0.0108
13681W        W14545  16.847  14.411  12.421 -0.0671 -0.0008  0.2223
13682W        W14546  14.166  12.578  14.858  0.0802  0.0721 -0.1919
13683W        W14547  17.259  11.078  13.351  0.0775  0.0217 -0.2392
13684W        W14548  14.820  14.182  16.319 -0.0225 -0.2436  0.3997
13685W        W14549  13.625  14.812  16.471  0.0307  0.0955 -0.3594
13686W        W14550  18.478  10.633  15.193  0.0768  0.1251 -0.2112
13687W        W14551  14.565  11.532  15.521  0.4309  0.1258 -0.2027
13688W        W14552  14.793  15.148  13.394  0.1689  0.2499  0.2832
13689W        W14553  18.067  11.022  12.439 -0.3590 -0.2904 -0.1022
13690W        W14554  15.541  14.998  11.821 -0.1202  0.0063 -0.1086
13691W        W14555  18.193  14.010  14.362 -0.0020  0.0346 -0.1553
13692W        W14556  14.938  14.544  10.295 -0.0073  0.0169  0.1944
13693W        W14557  15.688  13.540  11.897  0.0133 -0.0079  0.3625
13694W        W14558  12.942  14.329  19.471  0.2063 -0.1286 -0.1089
13695W        W14559  12.498  15.336  20.999 -0.0964  0.1019  0.1079
13696W        W14560  19.344  11.488  15.228  0.0968  0.0396  0.3817
13697W        W14561  17.932  15.350  16.409 -0.2176 -0.1188 -0.3399
13698W        W14562  17.059  14.451  16.314  0.1288  0.0177  0.0460
13699W        W14563  16.402  12.667  17.645  0.0217  0.1517  0.1095
13700W        W14564  13.868  10.400  14.556 -0.0802 -0.2946  0.0329
13701W        W14565  14.762  13.672  16.429 -0.0851  0.2575 -0.1781
13702W        W14566  15.678  14.744  19.916  0.0914  0.0880 -0.1695
13703W        W14567  14.489  12.283  18.688  0.0536 -0.0817  0.2892
13704W        W14568  14.123  11.408  18.545  0.0424  0.1112  0.1313
13705W        W14569  16.580  10.129  16.849  0.1929  0.0495 -0.0567
13706W        W14570  17.186  10.256  13.983 -0.6075  0.0028 -0.1180
13707W        W14571  17.826  14.902  19.202 -0.1680 -0.0767 -0.0615
13708W        W14572  16.178  11.247  16.792  0.0745 -0.1502  0.2762
13709W        W14573  13.305  16.537  19.245 -0.0552 -0.1812  0.0875
13710W        W14574  18.377  10.673  13.897 -0.0999 -0.2704  0.0692
13711W        W14575  13.614  10.676  19.089  0.2342 -0.0168 -0.1302
13712W        W14576  17.733  11.388  14.221 -0.0270  0.0303 -0.0634
13713W        W14577  18.246  11.151  19.000  0.0362  0.0625  0.0847
13714W        W14578  18.411  15.017  17.253  0.1610  0.2676  0.2355
13715W        W14579  14.632  12.883  18.611 -0.0317 -0.0166  0.0103
13716W        W14580  16.770  15.241  16.076  0.1937 -0.0145  0.1951
13717W        W14581  16.027  12.171  14.952 -0.0726  0.0591 -0.3241
13718W        W14582  16.588  10.797  18.390 -0.1262 -0.2491  0.0170
13719W        W14583  19.422  10.452  16.136  0.2980 -0.2817 -0.1411
13720W        W14584  16.990  15.269  19.383 -0.4450 -0.0452  0.1433
13721W        W14585  15.328  10.170  16.366  0.0173  0.2831  0.1117
13722W        W14586  19.540  10.746  17.033  0.2478  0.1564  0.0046
13723W        W14587  14.045  13.494  15.842 -0.3034  0.0433  0.2062
13724W        W14588  16.265  13.619  15.314  0.1416 -0.1958 -0.1957
13725W        W14589  13.676  13.575  19.935 -0.0289 -0.5043 -0.0952
13726W        W14590  17.014  14.088  18.589  0.1768 -0.2653 -0.1426
13727W        W14591  17.942  11.136  18.544  0.1502 -0.1379  0.2342
13728W        W14592  16.213  12.737  19.890  0.3307  0.0053  0.0013
13729W        W14593  15.747  13.322  19.203 -0.0001  0.1754  0.0952
13730W        W14594  12.920  12.806  14.727  0.0116  0.2133 -0.1476
13731W        W14595  15.266  16.177  17.454  0.1089  0.1680  0.4142
13732W        W14596  20.406  14.924  14.502  0.1472 -0.5637 -0.1223
13733W        W14597  20.171   8.952  17.369  0.1396  0.2824  0.1035
13734W        W14598  18.128   9.439  13.499 -0.0479  0.1617  0.3596
13735W        W14599  18.276  15.735  16.309  0.3838  0.0245  0.0423
13736W        W14600  17.056  13.180  18.676 -0.2719 -0.2450  0.0839
13737W        W14601  16.229  15.225  14.799  0.1060  0.1758  0.3733
13738W        W14602  13.454  14.824  13.500  0.0728 -0.0273 -0.3114
13739W        W14603  14.301  14.778  15.756 -0.1458  0.2013  0.1605
13740W        W14604  15.827  10.808  18.828  0.0296  0.0173  0.1559
13741W        W14605  15.499  11.775  18.059 -0.2142 -0.0545  0.0394
13742W        W14606  14.858  13.330  18.370  0.0293 -0.3191 -0.0321
13743W        W14607  16.660  11.934  15.606  0.0440  0.0925 -0.1819
13744W        W14608  16.045  13.273  19.743  0.4193 -0.0710  0.0049
13745W        W14609  18.238   8.931  15.894  0.0583 -0.2363 -0.0700
13746W        W14610  14.135  14.861  20.581 -0.1008 -0.0345  0.3141
13747W        W14611  17.594  10.575  16.177  0.2609  0.0609 -0.2620
13748W        W14612  16.803   9.406  15.815 -0.0784 -0.2103  0.1900
13749W        W14613  16.238  15.898  16.018 -0.0690 -0.0198  0.1523
13750W        W14614  13.202   7.687  18.531  0.0778  0.1843  0.2712
13751W        W14615  17.751  10.759  17.943 -0.1681 -0.0490  0.0563
13752W        W14616  11.552  12.658  16.514  0.1021 -0.0297  0.0321
13753W        W14617  16.773  13.326  15.126 -0.0561 -0.1884  0.0600
13754W        W14618  16.257  11.234  16.011 -0.1571  0.2306 -0.0563
13755W        W14619  14.430  15.060  15.077 -0.0719  0.1102  0.2314
13756W        W14620  12.969  12.842  18.320 -0.2002  0.3801  0.1622
13757W        W14621  18.410  11.157  12.902 -0.5863  0.0497  0.2845
13758W        W14622  16.211  11.825  16.806  0.1246  0.2416  0.0763
13759W        W14623  19.817  10.260  17.078 -0.1138  0.1420 -0.0574
13760W        W14624  17.263  13.584  15.205 -0.1169 -0.1180  0.0213
13761W        W14625  14.646  11.848  17.404 -0.3235  0.1238  0.1440
13762W        W14626  15.478  14.348  14.958  0.1254  0.1238 -0.1596
13763W        W14627  14.283  13.714  17.607 -0.2253 -0.2361  0.0272
13764W        W14628  15.260  14.830  17.363  0.0859 -0.0280 -0.0409
13765W        W14629  17.646  10.884  16.610 -0.0804 -0.0850  0.0110
13766W        W14630  15.647  14.839  17.678  0.1151  0.0259 -0.3003
13767W        W14631  16.674  14.818  17.376  0.0966 -0.1053 -0.0345
13768W        W14632  19.104  16.644  17.171 -0.2587 -0.1988 -0.3134
13769W        W14633  17.430  14.162  18.354  0.0972  0.1129 -0.0939
13770W        W14634  16.676  12.451  16.743  0.2812 -0.3219 -0.2592
13771W        W14635  12.976  14.363  17.199  0.1204  0.0926  0.2382
13772W        W14636  18.643  11.539  15.776 -0.0205 -0.0548 -0.1425
13773W        W14637  14.037  16.571  15.367 -0.0251  0.2281 -0.0468
13774W        W14638  15.584  12.967  17.825  0.2679  0.1873 -0.0578
13775W        W14639  16.470  13.471  16.872 -0.1124 -0.0792  0.0174
13776W        W14640  12.054   7.613  20.339  0.0098  0.0249 -0.1535
13777W        W14641  18.293  10.808  14.777  0.0064 -0.3398  0.0440
13778W        W14642  17.368   9.546  16.387  0.1537 -0.2073  0.2092
13779W        W14643  17.011  10.783  15.267  0.3858 -0.0399  0.0895
13780W        W14644  14.428  14.592  18.529  0.2596  0.0618 -0.1224
13781W        W14645  17.492   9.022  20.903 -0.0320  0.1466  0.0368
13782W        W14646  18.477  13.361  17.686  0.1292 -0.2837  0.1423
13783W        W14647  18.624  10.746  16.590  0.4588  0.0447  0.3381
13784W        W14648  18.343  12.495  16.104 -0.0857  0.0843 -0.0705
13785W        W14649  17.748  13.846  18.116  0.2032  0.3229  0.0218
13786W        W14650  14.567  14.223  12.896  0.1114 -0.1444 -0.0631
13787W        W14651  16.576  12.542  16.245  0.0112 -0.0587  0.1064
13788W        W14652  14.703  12.817  22.344 -0.1371 -0.3845 -0.1293
13789W        W14653  19.581  10.694  15.180  0.0751 -0.1482 -0.3453
13790W        W14654  19.474  10.363  16.733  0.2705  0.1986 -0.0343
13791W        W14655  15.418  15.263  16.287  0.2191  0.0191 -0.0349
13792W        W14656  15.370  13.682  16.217  0.2479 -0.3406 -0.0372
13793W        W14657  17.510  14.514  15.885 -0.3908  0.2557  0.2840
13794W        W14658  17.084  13.544  14.594  0.1807 -0.2777  0.0698
13795W        W14659  15.563  16.583  15.417  0.1501 -0.1161 -0.1563
13796W        W14660  16.907  10.704  16.992  0.3092 -0.2374  0.0942
13797W        W14661  18.684  13.728  15.275 -0.1596 -0.0071  0.4110
13798W        W14662  18.724   8.787  21.060 -0.2462  0.1829  0.2767
13799W        W14663  16.430  11.114  14.571  0.2080  0.1784 -0.0084
13800W        W14664  15.058  12.372  16.338 -0.1597 -0.0833  0.3969
13801W        W14665  17.768  13.566  18.601 -0.1358 -0.1622  0.3958
13802W        W14666  18.434  10.779  17.015  0.3986 -0.0392 -0.1049
13803W        W14667  17.125  12.224  16.988 -0.0301  0.0692 -0.0460
13804W        W14668  13.569  11.625  17.313  0.1478  0.0597 -0.1533
13805W        W14669  15.808  16.749  14.957  0.1001  0.0600 -0.0293
13806W        W14670  15.760  11.235  16.411  0.0114 -0.0319  0.1649
13807W        W14671  16.135  12.256  18.199  0.2668 -0.0041  0.2760
13808W        W14672  18.338  10.509  12.383 -0.1196  0.1772  0.1060
13809W        W14673  15.507  12.952  15.485  0.0593  0.1679 -0.2208
13810W        W14674  18.457   8.670  17.913  0.0214 -0.0033  0.0557
13811W        W14675  16.686  12.824  18.999  0.0584 -0.2752 -0.2790
13812W        W14676  16.864  12.114  19.475  0.0105  0.0741 -0.1154
13813W        W14677  17.485  11.525  16.124  0.1219  0.2576  0.0157
13814W        W14678  17.468  11.213  17.024 -0.2552  0.0719  0.3518
13815W        W14679  17.868  11.882  15.195  0.1024 -0.0445 -0.0130
13816W        W14680  16.890  14.430  14.683 -0.1590  0.0793 -0.0050
13817W        W14681  18.200  10.927  15.630  0.1916 -0.1487  0.0776
13818W        W14682  16.732  10.134  13.966 -0.1515 -0.1541  0.1155
13819W        W14683  16.679  13.060  17.873 -0.1594  0.1766  0.1221
13820W        W14684  16.142  11.625  18.486  0.0540 -0.0489 -0.1482
13821W        W14685  15.210  13.400  19.207 -0.2296  0.0919  0.1049
13822W        W14686  16.266  15.152  17.285 -0.1857  0.2447  0.1057
13823W        W14687  13.884  11.433  17.742 -0.0252 -0.0826 -0.3274
13824W        W14688  14.925  15.094  18.267  0.0773  0.0416  0.0537
13825W        W14689  14.312  14.448  19.880 -0.0951  0.0986  0.1809
13826W        W14690  16.630  12.146  18.994  0.0738  0.0914  0.0593
13827W        W14691  18.051  13.660  15.899 -0.1121 -0.0971 -0.3773
13828W        W14692  17.102  10.063  16.632  0.1038 -0.3251 -0.0030
13829W        W14693  16.878  11.297  16.906 -0.2063 -0.0994 -0.0870
13830W        W14694  18.916  13.453  20.025  0.2933  0.1642  0.1948
13831W        W14695  17.985  16.143  15.087 -0.0626  0.0856 -0.2514
13832W        W14696  17.961  14.441  16.236 -0.2253  0.0977  0.1792
13833W        W14697  13.724  12.623  15.285  0.1666 -0.1630 -0.0199
13834W        W14698  16.834   9.958  19.448 -0.2156  0.1376  0.2834
13835W        W14699  11.522  12.498  15.997 -0.1729 -0.1128 -0.2449
13836W        W14700  17.566  12.231  15.031 -0.2250  0.0304  0.2667
13837W        W14701  16.827  13.309  17.198 -0.0057 -0.2498 -0.0047
13838W        W14702  16.664   9.631  13.795  0.1565  0.2714 -0.1707
13839W        W14703  17.517  10.576  14.848  0.0457  0.2363 -0.2235
13840W        W14704  14.366  15.770  17.013 -0.0507  0.0902 -0.1078
13841W        W14705  14.937  12.820  18.178  0.0422  0.3128  0.1115
13842W        W14706  17.947  14.571  17.875 -0.1475 -0.0574  0.0720
13843W        W14707  17.944  14.893  18.705  0.4163 -0.0873 -0.0178
13844W        W14708  17.788   9.045  15.871  0.1236  0.1808 -0.0630
13845W        W14709  15.194  15.206  15.504  0.1378  0.1037 -0.3481
13846W        W14710  15.089  11.905  16.226  0.1704  0.0414 -0.0276
13847W        W14711  15.203  13.694  17.907 -0.1265  0.1894  0.2209
13848W        W14712  16.652  14.901  20.023 -0.2599 -0.0169 -0.1029
13849W        W14713  15.020  13.255  16.646  0.4014  0.1034 -0.2170
13850W        W14714  16.617  12.851  12.902  0.1523  0.2339 -0.0620
13851W        W14715  16.492   8.765  15.472 -0.2272 -0.4187 -0.0277
13852W        W14716  13.946  13.976  17.270  0.3176 -0.0223 -0.2942
13853W        W14717  18.627   9.107  14.982 -0.4160 -0.1797 -0.2871
13854W        W14718  13.068  14.059  21.312 -0.0836  0.0188  0.0411
13855W        W14719  19.076  13.851  17.476  0.1291 -0.3528  0.0039
13856W        W14720  17.251  12.914  19.351  0.2877 -0.3197 -0.1374
13857W        W14721  15.517  14.054  18.202  0.0994  0.1064 -0.2304
13858W        W14722  15.532  11.176  18.149 -0.0911 -0.2071  0.3430
13859W        W14723  16.347  12.047  15.984  0.0827 -0.1485 -0.3266
13860W        W14724  15.886  13.585  16.199  0.0545  0.1505  0.0506
13861W        W14725  17.097  13.412  19.879 -0.1734 -0.0140 -0.2432
13862W        W14726  15.032  13.340  14.539 -0.0293  0.0141  0.1316
13863W        W14727  17.440  13.037  16.488  0.3558  0.0334 -0.2325
13864W        W14728  17.747  11.940  17.772 -0.2166 -0.0326  0.1913
13865W        W14729  16.890  11.255  16.106 -0.0932  0.1067 -0.0053
13866W        W14730  17.808  13.269  16.192  0.1787  0.1065 -0.0106
13867W        W14731  14.363  13.250  17.274 -0.0666 -0.0139 -0.2466
13868W        W14732  17.463  11.037  16.166 -0.2805 -0.3633 -0.1246
13869W        W14733  15.652  14.423  16.758 -0.0302  0.0519  0.0886
13870W        W14734  14.373  10.902  19.703 -0.0059  0.1571  0.0368
13871W        W14735  14.648  18.100  14.451 -0.3059 -0.2158  0.0191
13872W        W14736  15.506  13.205  15.952  0.1555  0.0189  0.0833
13873W        W14737  14.394  12.507  18.181 -0.0040 -0.1383  0.2961
13874W        W14738  18.195  12.315  13.709  0.2681 -0.0384  0.1768
13875W        W14739  16.072  15.137  14.314 -0.2850 -0.1473 -0.1205
13876W        W14740  14.365  11.779  15.915  0.2588  0.1350  0.0849
13877W        W14741  14.482  12.041  14.955  0.0426 -0.3058  0.1131
13878W        W14742  16.837  13.665  20.275 -0.1203 -0.1540  0.0662
13879W        W14743  16.641   9.644  16.658 -0.0011 -0.2366  0.1417
13880W        W14744  14.828   8.050  15.913  0.2986  0.0379 -0.0270
13881W        W14745  14.803  11.204  17.122 -0.2343  0.0452  0.1542
13882W        W14746  15.167  14.794  17.884 -0.0448 -0.0553  0.0798
13883W        W14747  15.849  13.079  18.294 -0.0760 -0.2384  0.2896
13884W        W14748  11.622  11.662  16.312 -0.1816 -0.1609 -0.1389
13885W        W14749  14.255  10.976  19.215 -0.0488 -0.2120  0.1072
13886W        W14750  15.199  11.391  20.021 -0.0394  0.2682  0.1417
13887W        W14751  16.995  14.422  19.494  0.0751  0.0722  0.0488
13888W        W14752  17.239   8.534  17.157  0.0165  0.0257  0.3483
13889W        W14753  17.240  10.269  15.129  0.0532 -0.2045 -0.2173
13890W        W14754  14.676   9.953  17.784  0.1791  0.0524  0.1243
13891W        W14755  15.464  12.407  19.303  0.0243  0.1436 -0.1169
13892W        W14756  19.072  12.709  15.990 -0.0460 -0.1351 -0.1160
13893W        W14757  15.109  11.332  17.965  0.0112  0.0614 -0.3878
13894W        W14758  18.701  11.627  17.833  0.0887  0.1745 -0.1450
13895W        W14759  17.528  11.796  16.573  0.0412 -0.4114  0.1251
13896W        W14760  16.273  10.456  19.835  0.1256  0.2198  0.1646
13897W        W14761  17.568  10.909  15.291 -0.1552 -0.3723  0.0743
13898W        W14762  13.868  12.810  16.728 -0.0690  0.0783 -0.3173
13899W        W14763  15.711  15.890  19.798  0.2719  0.4555  0.1286
13900W        W14764  17.244  11.211  16.594  0.0537  0.0889  0.4121
13901W        W14765  15.947  14.117  16.100  0.0088 -0.1019  0.0548
13902W        W14766  13.423  11.674  16.842  0.3124  0.1900 -0.0496
13903W        W14767  12.581  13.698  19.630  0.0040  0.0142  0.0181
13904W        W14768  15.545  11.454  17.671 -0.1851 -0.1357  0.2707
13905W        W14769  14.402  15.711  19.545 -0.0869  0.0597  0.0455
13906W        W14770  17.193  10.309  16.158 -0.0661  0.1226 -0.0367
13907W        W14771  18.888  12.811  16.549  0.3150 -0.3154  0.2050
13908W        W14772  18.448  13.805  17.567 -0.1131  0.1412 -0.0642
13909W        W14773  16.897  14.718  15.149 -0.0964 -0.0633  0.0421
13910W        W14774  16.730  14.427  13.318  0.1197 -0.0841 -0.3517
13911W        W14775  17.475  14.125  20.922 -0.1594 -0.1770 -0.0611
13912W        W14776  14.379  15.354  16.685  0.2907  0.1175  0.0251
13913W        W14777  19.580   8.849  19.654 -0.0150  0.0530 -0.1608
13914W        W14778  18.394  13.244  16.775 -0.1752  0.0133 -0.0084
13915W        W14779  14.645  11.532  19.947 -0.0378  0.1771  0.4656
13916W        W14780  18.302  12.082  15.210 -0.1898 -0.2498  0.2435
13917W        W14781  18.027  13.477  14.581 -0.0794  0.2273  0.1611
13918W        W14782  15.963   8.678  17.735  0.2584  0.1565 -0.0488
13919W        W14783  13.058  13.434  17.493  0.0477  0.3069 -0.2225
13920W        W14784  19.648  12.321  17.508  0.3343 -0.3374  0.0124
13921W        W14785  17.716  14.060  14.513 -0.2151  0.1039  0.0575
13922W        W14786  20.402  15.586  13.415  0.1330  0.0923 -0.0033
13923W        W14787  18.088   9.344  15.444 -0.0371 -0.0154 -0.0319
13924W        W14788  14.182  12.607  21.313 -0.0937 -0.0106  0.1818
13925W        W14789  16.314  13.886  15.887 -0.2099 -0.0935 -0.1646
13926W        W14790  17.098  15.182  17.441  0.1536 -0.0859 -0.2503
13927W        W14791  10.462  10.984  17.486 -0.3467  0.0592  0.2733
13928W        W14792  15.048  15.148  14.540  0.3622  0.0365  0.0640
13929W        W14793  19.576  12.034  16.453  0.0663  0.2385 -0.0968
13930W        W14794  18.047  13.074  17.717  0.0086 -0.2880 -0.0219
13931W        W14795  15.271  13.580  18.419  0.4402  0.2821 -0.2691
13932W        W14796  15.273  15.455  18.229 -0.0186 -0.0305  0.0139
13933W        W14797  16.382  14.039  16.853  0.1065 -0.0864  0.1015
13934W        W14798  12.435  14.058  19.353  0.2171  0.0092  0.0055
13935W        W14799  16.677   9.823  18.553  0.0752 -0.1975 -0.0107
13936W        W14800  15.656  12.447  14.797  0.0469  0.0624 -0.0492
13937W        W14801  18.548  10.878  16.027  0.0264 -0.2559  0.0621
13938W        W14802  18.086  15.129  16.924  0.0195  0.1986 -0.1483
13939W        W14803  16.606  12.379  17.297 -0.1335 -0.0927  0.1709
13940W        W14804  12.341  14.070  17.917 -0.2201  0.2312  0.0181
13941W        W14805  19.080  12.275  16.803 -0.1897 -0.2327 -0.0065
13942W        W14806  18.440   8.986  15.441  0.1756 -0.2564  0.0555
13943W        W14807  15.636  13.440  18.014  0.0224 -0.1171  0.2170
13944W        W14808  15.431  16.315  16.868 -0.2936 -0.0206 -0.0524
13945W        W14809  17.951  16.296  19.497  0.0165  0.0207 -0.2815
13946W        W14810  17.084  11.463  17.349 -0.0164 -0.0239  0.2005
13947W        W14811  17.370  12.536  13.561  0.2572 -0.1912  0.0294
13948W        W14812  17.772  12.659  16.269 -0.0027  0.2608  0.1212
13949W        W14813  19.065  11.829  15.895 -0.2175  0.2389 -0.1112
13950W        W14814  18.322   9.647  20.987 -0.2656 -0.1399  0.0026
13951W        W14815  16.936  15.309  15.528 -0.2646  0.3198  0.1710
13952W        W14816  17.995  12.123  18.736  0.2785  0.0031 -0.0309
13953W        W14817  17.917  11.924  16.302  0.3780 -0.1598 -0.1378
13954W        W14818  15.575  12.156  18.879 -0.2803 -0.0985  0.0673
13955W        W14819  14.888  14.277  18.676  0.0403  0.2354 -0.2835
13956W        W14820  14.769  11.052  17.700 -0.0916  0.0666 -0.2726
13957W        W14821  16.959  14.862  16.565 -0.0595 -0.1393  0.1213
13958W        W14822  14.947  14.166  20.016 -0.0130 -0.0412  0.2573
13959W        W14823  15.265  11.557  14.864  0.2335 -0.1437  0.1003
13960W        W14824  16.622  14.918  14.006  0.3803 -0.2554  0.1408
13961W        W14825  18.219  12.955  16.366 -0.3159 -0.2397  0.2317
13962W        W14826  18.797  10.009  17.438 -0.0665  0.1444  0.1431
13963W        W14827  16.505  10.697  15.140  0.0863 -0.2932 -0.0193
13964W        W14828  15.770  11.725  14.829  0.0145  0.1855 -0.0756
13965W        W14829  16.583  12.171  17.741  0.0608 -0.2512 -0.2462
13966W        W14830  14.915  13.887  17.479  0.0873 -0.0294 -0.0397
13967W        W14831  15.778  14.870  19.324  0.1405  0.1489 -0.2003
13968W        W14832  16.194  13.643  18.740 -0.0569  0.0550 -0.2571
13969W        W14833  15.899  12.475  19.595  0.1561 -0.0256 -0.0997
13970W        W14834  17.150  12.713  17.853 -0.0801  0.2923 -0.0406
13971W        W14835  16.635  13.582  16.129  0.2493 -0.2106 -0.4283
13972W        W14836  16.978  12.486  19.228 -0.0316 -0.1457  0.2580
13973W        W14837  15.421   9.161  17.391  0.1902 -0.0114  0.0801
13974W        W14838  16.876   9.133  13.571  0.0447 -0.1320 -0.3501
13975W        W14839  16.706  10.124  15.351 -0.1824 -0.1988  0.2467
13976W        W14840  11.644  16.144  19.318 -0.2560 -0.5567 -0.3442
13977W        W14841  19.169  10.301  13.431 -0.0255 -0.3419  0.0673
13978W        W14842  18.502   9.425  17.483  0.2110 -0.0553  0.0592
13979W        W14843  16.805  15.678  15.177 -0.0167  0.3267 -0.4194
13980W        W14844  13.458  13.334  20.352 -0.1318  0.0677  0.4128
13981W        W14845  20.469   8.135  16.182  0.1175  0.1764  0.1605
13982W        W14846  16.352  15.651  16.745 -0.1351  0.5092  0.0850
13983W        W14847  17.779  11.304  16.473 -0.2026  0.0878 -0.1661
13984W        W14848  16.206   9.863  15.246  0.1088 -0.2125  0.2869
13985W        W14849  18.077  11.376  17.487  0.1607 -0.0570  0.0317
13986W        W14850  16.421  11.610  12.952 -0.3333  0.1199  0.2232
13987W        W14851  16.806  13.829  14.919 -0.0334  0.0621 -0.2357
13988W        W14852  17.151  10.155  19.058 -0.1976 -0.1720  0.0450
13989W        W14853  15.822   9.756  16.516  0.1921 -0.1250  0.3903
13990W        W14854  17.006  11.626  16.449  0.0341 -0.1262  0.0128
13991W        W14855  20.385  11.020  16.996 -0.0610 -0.0333 -0.0932
13992W        W14856  16.346  13.231  16.408 -0.0004  0.2396 -0.1312
13993W        W14857  15.392  11.939  15.826  0.0468 -0.1396  0.1999
13994W        W14858  13.922  12.790  21.696  0.2004 -0.2008 -0.2959
13995W        W14859  15.429  13.078  17.351 -0.0101 -0.1577 -0.1686
13996W        W14860  17.747   9.427  12.097  0.2209  0.1081  0.3063
13997W        W14861  17.184  11.808  17.695  0.0191 -0.0419 -0.2271
13998W        W14862  16.207  15.675  17.527 -0.2140 -0.0994 -0.0127
13999W        W14863  16.187  12.687  18.742 -0.0596 -0.2145  0.1686
14000W        W14864  15.458   8.808  17.772 -0.0344 -0.0706  0.0561
14001W        W14865  18.177   9.915  16.515  0.0905  0.1843 -0.0370
14002W        W14866  16.028  13.329  15.776  0.2538 -0.2039  0.1814
14003W        W14867  17.077  10.500  17.390  0.0118  0.0165 -0.2204
14004W        W14868  15.167  16.374  16.439  0.1910 -0.1760 -0.0834
14005W        W14869  15.487  13.400  18.800 -0.0358 -0.2558 -0.1550
14006W        W14870  17.806  15.219  15.341 -0.1917  0.0050  0.3456
14007W        W14871  15.440  15.916  18.452 -0.0382  0.0636 -0.0404
14008W        W14872  14.689  14.543  17.985 -0.0248  0.1077 -0.0729
14009W        W14873  16.457   8.770  16.851  0.1698 -0.0653  0.0794
14010W        W14874  19.933  10.768  16.295  0.0101  0.2124 -0.2200
14011W        W14875  15.898  15.973  18.651 -0.0914  0.2132  0.3745
14012W        W14876  17.460  12.644  16.835 -0.0357  0.0723 -0.1689
14013W        W14877  14.278  16.116  16.204 -0.1162 -0.4087  0.1302
14014W        W14878  16.885  15.817  14.297  0.0249 -0.2672  0.0496
14015W        W14879  13.013  12.177  18.197 -0.4203  0.1804  0.1178
14016W        W14880  18.264  13.000  18.224  0.2949  0.2559 -0.2313
14017W        W14881  16.152  15.402  16.338  0.0885  0.2352 -0.1651
14018W        W14882  17.269  15.430  17.004  0.0580 -0.0712  0.4215
14019W        W14883  17.849   9.955  17.398  0.0216 -0.1470  0.1273
14020W        W14884  14.235  14.899  16.382  0.2600  0.3749  0.1343
14021W        W14885  16.669  12.002  16.376 -0.0683  0.2600  0.0470
14022W        W14886  16.810  12.351  15.350  0.0708 -0.1963 -0.0339
14023W        W14887  16.233  12.746  16.580  0.3645  0.0910 -0.4165
14024W        W14888  19.503   7.911  15.866 -0.4127 -0.2144  0.0413
14025W        W14889  17.217  14.732  17.226 -0.3256 -0.0961 -0.2090
14026W        W14890  16.699  13.529  17.713 -0.1575 -0.0513  0.0036
14027W        W14891  16.431  16.332  17.445  0.0976  0.0312 -0.0417
14028W        W14892  16.882  12.525  19.730  0.0253 -0.0226 -0.1945
14029W        W14893  16.158  14.491  17.002  0.0155  0.0089 -0.0683
14030W        W14894  19.033  10.716  12.655 -0.1762  0.4889 -0.0944
14031W        W14895  17.180  12.101  15.558  0.0644  0.1537  0.0085
14032W        W14896  16.714  11.214  15.111 -0.0331 -0.2178  0.5058
14033W        W14897  15.368  12.893  14.512 -0.4420  0.1037 -0.0766
14034W        W14898  13.599  12.123  17.290 -0.3830 -0.0732  0.1366
14035W        W14899  17.323   9.036  16.575 -0.0611 -0.4079  0.0400
14036W        W14900  16.791  14.321  16.958 -0.1917 -0.1039 -0.3101
14037W        W14901  14.856  14.664  13.126  0.2815  0.4087  0.2047
14038W        W14902  13.048  11.864  14.736 -0.0164  0.2961 -0.2179
14039W        W14903  14.828  11.563  15.121 -0.1142  0.2218  0.0488
14040W        W14904  17.690  10.502  19.641 -0.0798 -0.0531 -0.0044
14041W        W14905  15.727  11.740  17.259  0.2253 -0.2164  0.0428
14042W        W14906  12.152  11.896  15.591 -0.1549 -0.1101  0.1325
14043W        W14907  16.474  12.507  19.389 -0.2683 -0.0926 -0.0517
14044W        W14908  19.025  11.466  13.087 -0.0191 -0.2589 -0.1490
14045W        W14909  17.549  13.734  15.861  0.1482  0.2203 -0.0436
14046W        W14910  16.002  13.169  17.054  0.0922  0.3685  0.0495
14047W        W14911  17.056  13.811  16.213 -0.1024  0.0024 -0.0719
14048W        W14912  16.333  10.268  17.231 -0.0174  0.2137 -0.0880
14049W        W14913  13.802  14.254  15.281 -0.0960  0.1667  0.1441
14050W        W14914  16.716  13.875  16.518 -0.0296  0.2576  0.1878
14051W        W14915  14.318  12.977  19.567 -0.3902  0.3949 -0.0133
14052W        W14916  18.514  10.443  14.287 -0.0006  0.3435 -0.1566
14053W        W14917  15.784  13.847  13.983  0.1574 -0.0574  0.2515
14054W        W14918  17.600  13.538  19.925  0.1527  0.0138 -0.2193
14055W        W14919  15.975  10.447  17.536  0.2567 -0.3232  0.0230
14056W        W14920  17.076  12.621  16.477 -0.2386  0.0510  0.0547
14057W        W14921  15.064  13.408  17.535 -0.3518 -0.1803 -0.4226
14058W        W14922  14.553  15.195  16.098 -0.0907 -0.1530 -0.1475
14059W        W14923  16.529  12.120  14.950  0.0492 -0.0597  0.2369
14060W        W14924  15.703  14.000  15.271 -0.2367 -0.1536 -0.1078
14061W        W14925  18.691  11.918  15.505 -0.0865  0.2659 -0.1431
14062W        W14926  17.260  12.554  15.342 -0.0662  0.0020 -0.1978
14063W        W14927  14.286  11.578  15.054  0.2696 -0.0690 -0.1438
14064W        W14928  18.946  11.725  18.630 -0.0394  0.0389 -0.1625
14065W        W14929  16.845  11.790  15.179 -0.0224  0.0879  0.0865
14066W        W14930  19.345  12.736  16.800  0.4341 -0.1067  0.1633
14067W        W14931  17.295   9.246  13.237  0.1581  0.0522 -0.0387
14068W        W14932  17.994  10.877  16.146 -0.0888  0.0004 -0.1114
14069W        W14933  16.973  12.795  15.864 -0.1590 -0.1273  0.0825
14070W        W14934  18.311  12.569  17.321 -0.1446  0.0325  0.2005
14071W        W14935  15.764  10.544  18.012  0.1209 -0.1272  0.2307
14072W        W14936  14.822  13.028  17.086 -0.3233  0.3852  0.0958
14073W        W14937  15.972  12.687  18.001  0.0592 -0.0230  0.2640
14074W        W14938  15.486   9.669  15.419 -0.1191  0.0465 -0.4094
14075W        W14939  14.337  11.373  17.464 -0.0137 -0.0571 -0.0140
14076W        W14940  13.989  15.189  18.940  0.0931  0.4179  0.1155
14077W        W14941  16.230  13.701  20.800 -0.0231  0.3894 -0.2591
14078W        W14942  14.120  12.218  19.848  0.0692  0.2864 -0.4133
14079W        W14943  18.116  12.287  14.237  0.0013 -0.0079  0.1621
14080W        W14944  18.289  11.613  14.933  0.1395  0.1191 -0.0229
14081W        W14945  14.516  16.035  16.638 -0.2017  0.0371 -0.0555
14082W        W14946  18.543  14.682  19.740 -0.3723  0.3221  0.0027
14083W        W14947  18.127  12.734  20.869  0.2808 -0.3368 -0.1758
14084W        W14948  19.303  12.978  16.332  0.1125 -0.0788 -0.0861
14085W        W14949  18.427  13.441  16.296  0.1875  0.0195  0.1437
14086W        W14950  16.052  14.130  18.296 -0.2870 -0.2884  0.2378
14087W        W14951  15.628  15.797  16.814  0.1444 -0.5201  0.1701
14088W        W14952  16.511  13.323  18.907 -0.3081  0.0210 -0.3201
14089W        W14953  19.221  12.972  15.556 -0.0152 -0.0680  0.1861
14090W        W14954  15.290  15.403  16.758 -0.2077 -0.1096  0.0843
14091W        W14955  15.846  15.520  15.954  0.0578 -0.1759  0.2211
14092W        W14956  15.582  12.221  16.312  0.0026  0.2923 -0.0725
14093W        W14957  14.875  17.100  19.837 -0.0362  0.2213 -0.2648
14094W        W14958  16.773  11.456  23.359  0.2093 -0.0048  0.2139
14095W        W14959  19.226  12.049  17.718  0.1811  0.3070  0.0575
14096W        W14960  19.567  16.736  22.194  0.4216 -0.0955  0.2887
14097W        W14961  13.730  15.576  19.025 -0.0447  0.1296  0.0135
14098W        W14962  16.659  11.285  18.214 -0.0190  0.4366  0.3025
14099W        W14963  16.422  13.970  20.411  0.1442 -0.1229 -0.1389
14100W        W14964  15.934  12.281  21.228 -0.1080  0.1733  0.1244
14101W        W14965  12.809  14.137  20.878  0.0999  0.0725  0.1579
14102W        W14966  15.352  12.730  24.625 -0.1952 -0.0526 -0.1900
14103W        W14967  16.468   9.876  21.678  0.1920 -0.0953  0.1722
14104W        W14968  16.903  10.214  20.371  0.2058 -0.1986  0.1678
14105W        W14969  14.360  14.153  18.343  0.2261  0.0261 -0.1103
14106W        W14970  15.608  11.972  22.360  0.0075  0.2469 -0.0874
14107W        W14971  17.608  12.281  23.163  0.0821 -0.1911  0.1996
14108W        W14972  14.641  14.745  20.808  0.0375 -0.2959 -0.0127
14109W        W14973  15.821  13.629  18.442  0.0190  0.1835 -0.0414
14110W        W14974  14.641   9.420  19.339  0.0103  0.2213  0.3503
14111W        W14975  15.138   9.766  22.310  0.1746 -0.0054 -0.0443
14112W        W14976  19.326  11.653  21.852  0.1495  0.2225 -0.3029
14113W        W14977  19.069  11.352  23.260  0.2293  0.0314 -0.0848
14114W        W14978  15.889  14.046  21.024 -0.1815  0.0506  0.0285
14115W        W14979  16.066  14.280  21.407  0.1937 -0.0772 -0.1538
14116W        W14980  16.473  14.048  22.304 -0.0939  0.1620 -0.0571
14117W        W14981  10.640  14.237  19.913  0.0482  0.3418  0.1473
14118W        W14982  16.378  11.737  21.034  0.0477 -0.1161  0.1304
14119W        W14983  19.193  13.516  24.286  0.2315  0.0656 -0.0631
14120W        W14984  14.180  14.607  17.859  0.2617  0.0128 -0.0372
14121W        W14985  13.997  14.165  22.261  0.3359 -0.0978  0.1945
14122W        W14986  16.654  13.378  18.246  0.0446 -0.0138 -0.1423
14123W        W14987  14.141  14.606  20.991 -0.1612 -0.2106  0.2544
14124W        W14988  16.301  13.619  20.097 -0.1479  0.0061 -0.1734
14125W        W14989  16.576  12.997  22.809  0.0038 -0.2030  0.0174
14126W        W14990  13.230  15.312  18.193  0.1930  0.0193 -0.1318
14127W        W14991  12.969  13.291  20.511 -0.1104 -0.3346 -0.1017
14128W        W14992  18.952  16.042  22.089 -0.1071  0.1358  0.0714
14129W        W14993  14.655  11.234  18.918  0.0989  0.0766 -0.0499
14130W        W14994  12.683  13.410  19.186 -0.2199 -0.2587  0.1945
14131W        W14995  18.987  12.517  17.998  0.2488  0.1495 -0.0772
14132W        W14996  18.090  12.286  20.672  0.0324 -0.1641  0.0169
14133W        W14997  19.038  13.224  18.644 -0.0608 -0.1578 -0.1362
14134W        W14998  18.575  11.937  22.052 -0.0960 -0.2426  0.1212
14135W        W14999  15.024  15.538  20.266 -0.0920  0.0497  0.3398
14136W        W15000  16.776  14.835  19.454 -0.1694 -0.0171 -0.0110
14137W        W15001  15.439  13.344  20.137  0.1339 -0.3143 -0.0544
14138W        W15002  13.763  14.936  21.889 -0.2277  0.0505  0.1055
14139W        W15003  18.050  11.792  20.389 -0.0339 -0.1114 -0.1430
14140W        W15004  19.943  14.022  22.260  0.2399  0.0405 -0.1232
14141W        W15005  20.622  11.971  20.556  0.2204  0.2388 -0.2138
14142W        W15006  18.631  16.271  18.077  0.2023  0.2156 -0.2489
14143W        W15007  15.238  15.648  23.594  0.3849 -0.1432 -0.2677
14144W        W15008  15.970  11.713  21.313 -0.1621  0.0456  0.1674
14145W        W15009  16.549  14.321  21.467  0.0741  0.2065 -0.1368
14146W        W15010  17.418  13.431  17.945 -0.0737  0.0226  0.0535
14147W        W15011  17.861  13.401  16.821 -0.2368  0.0959  0.2974
14148W        W15012  14.954  12.717  16.759 -0.1248  0.2317 -0.0657
14149W        W15013  12.855  12.774  20.579 -0.1044 -0.1471 -0.1893
14150W        W15014  18.411  12.668  20.008 -0.0619 -0.0989 -0.0130
14151W        W15015  15.632  16.387  19.734  0.2107 -0.2416 -0.1468
14152W        W15016  13.823  16.407  17.376  0.1047  0.0028 -0.2103
14153W        W15017  15.857  14.029  18.742  0.0596 -0.1434 -0.1266
14154W        W15018  13.331  13.970  21.832 -0.5331 -0.0024  0.2927
14155W        W15019  15.723  14.163  22.583 -0.0610  0.0839 -0.1959
14156W        W15020  16.433  12.729  20.672  0.1547 -0.1566  0.0826
14157W        W15021  14.348  11.133  20.181 -0.0681 -0.1430  0.2808
14158W        W15022  20.538  10.124  21.501  0.0642  0.0551 -0.1065
14159W        W15023  17.196  12.258  18.158 -0.0071  0.0855 -0.1980
14160W        W15024  14.181  13.648  22.091 -0.0063 -0.0048  0.1160
14161W        W15025  14.413  12.609  19.858  0.0248 -0.0772 -0.3054
14162W        W15026  13.940  16.900  18.971  0.1276 -0.0677 -0.0470
14163W        W15027  18.346  13.010  21.377 -0.0452 -0.0468  0.1194
14164W        W15028  17.847  10.025  19.809  0.0608  0.3085 -0.1045
14165W        W15029  17.848  13.100  21.824  0.1654  0.3762 -0.2580
14166W        W15030  16.680  13.980  21.809 -0.2560  0.2253  0.0610
14167W        W15031  21.080  14.568  19.164 -0.0503 -0.2137  0.0846
14168W        W15032  15.746  13.973  21.636 -0.2519 -0.0999  0.0210
14169W        W15033  15.294  11.996  17.040  0.2700  0.3063 -0.3081
14170W        W15034  14.854  13.296  21.739  0.0507  0.0202  0.2787
14171W        W15035  19.798  12.625  16.993  0.1966 -0.0991 -0.1473
14172W        W15036  17.443  11.638  18.098  0.0770  0.3136  0.3616
14173W        W15037  14.635  12.515  21.448  0.0134 -0.0146  0.3441
14174W        W15038  12.239  13.607  21.163 -0.0686 -0.1450  0.1833
14175W        W15039  17.878  13.204  20.736 -0.2189 -0.2413 -0.1195
14176W        W15040  16.594  13.527  19.633  0.1833 -0.0339 -0.0466
14177W        W15041  14.918  12.216  21.141 -0.0090  0.1834 -0.4096
14178W        W15042  18.080  12.387  19.230  0.0633 -0.2643  0.0992
14179W        W15043  15.562  13.754  19.217 -0.0313  0.1057 -0.2423
14180W        W15044  18.506  10.620  22.125 -0.0033  0.2427  0.3507
14181W        W15045  20.584  12.985  21.000  0.2467  0.0464  0.2528
14182W        W15046  12.845  14.997  22.319 -0.2228  0.1093 -0.3108
14183W        W15047  18.645  10.769  19.947 -0.4095  0.4850 -0.0288
14184W        W15048  16.917  14.786  23.234  0.1294  0.0240 -0.0662
14185W        W15049  13.526  14.906  19.856 -0.0154 -0.0897 -0.1688
14186W        W15050  15.926  12.911  20.626 -0.2173  0.0797 -0.2457
14187W        W15051  15.893   8.533  20.085  0.2429  0.1506 -0.0918
14188W        W15052  16.099  15.082  18.271 -0.0179 -0.2680 -0.0743
14189W        W15053  18.314  10.606  20.308  0.1876 -0.0777  0.0241
14190W        W15054  15.265  16.090  19.983  0.3763 -0.2044  0.0351
14191W        W15055  13.411  13.419  17.900  0.3649  0.1173  0.2333
14192W        W15056  16.779  10.543  20.723 -0.0184 -0.3836  0.1421
14193W        W15057  16.703  13.932  19.867 -0.0857  0.1663  0.2761
14194W        W15058  13.863  12.896  20.305  0.1211 -0.0041 -0.1376
14195W        W15059  18.000  10.222  16.992  0.0969  0.1002  0.3086
14196W        W15060  17.190  15.982  22.646  0.2468  0.2111  0.2475
14197W        W15061  18.317  10.335  17.344 -0.0171 -0.0166  0.1426
14198W        W15062  17.805  13.392  24.015 -0.0264 -0.0844 -0.0360
14199W        W15063  16.256  12.400  20.321  0.1721 -0.2660 -0.3289
14200W        W15064  16.708  12.597  23.673  0.0417 -0.3771  0.1044
14201W        W15065  15.693  13.255  22.956  0.2821 -0.2679 -0.2500
14202W        W15066  16.065  13.905  23.401 -0.3497  0.1926 -0.1220
14203W        W15067  16.955  13.477  22.488  0.3352  0.1960 -0.0988
14204W        W15068  17.282  15.513  18.949 -0.1457  0.2726  0.0695
14205W        W15069  18.842  10.772  20.418  0.1271 -0.3254  0.1184
14206W        W15070  13.125  15.199  19.844 -0.0591  0.1120 -0.0013
14207W        W15071  17.129  10.833  18.333 -0.0586 -0.1868 -0.1140
14208W        W15072  15.427  13.036  20.538 -0.1294 -0.1061 -0.0830
14209W        W15073  18.704  12.758  21.058  0.0247  0.1543  0.0478
14210W        W15074  16.642  14.630  21.048 -0.0200 -0.0955 -0.3165
14211W        W15075  17.224  13.800  20.589  0.2465 -0.0954  0.0937
14212W        W15076  17.656  13.395  17.509  0.1347 -0.1011 -0.2189
14213W        W15077  18.970  12.669  19.477 -0.2204  0.0167 -0.2283
14214W        W15078  19.156  13.528  19.050  0.3941 -0.3487  0.1174
14215W        W15079  17.869  15.861  20.745  0.1054 -0.1649 -0.1056
14216W        W15080  17.758  13.079  19.338 -0.0329  0.0745 -0.0476
14217W        W15081  16.759  15.552  21.133 -0.1485 -0.0519  0.0416
14218W        W15082  19.400  14.716  21.987 -0.2018  0.1954  0.0964
14219W        W15083  13.643  13.764  22.885  0.2355  0.2777 -0.2133
14220W        W15084  16.233  15.064  21.794 -0.3230  0.3406  0.0647
14221W        W15085  18.315  13.939  21.305 -0.1052 -0.1090  0.1017
14222W        W15086  15.018  13.686  20.105  0.4079 -0.1680  0.2525
14223W        W15087  20.725  15.986  20.755  0.3029 -0.0993 -0.1054
14224W        W15088  16.645   9.954  22.164  0.0060  0.3913 -0.0582
14225W        W15089  16.468  15.974  20.607  0.1406  0.3449 -0.0699
14226W        W15090  19.188  13.123  19.842 -0.1332 -0.1240  0.1085
14227W        W15091  16.345  14.564  21.935  0.1608  0.1864  0.0027
14228W        W15092  13.834  11.943  20.379 -0.0062 -0.1913  0.0585
14229W        W15093  20.068  12.276  21.296 -0.1029  0.4235  0.2640
14230W        W15094  17.149  14.521  20.881 -0.1959  0.1058 -0.3309
14231W        W15095  17.221  14.203  21.852  0.0570  0.0198 -0.2462
14232W        W15096  15.139  16.626  22.074 -0.1364 -0.2076  0.0472
14233W        W15097  13.803  11.692  18.965  0.1259 -0.2860 -0.3078
14234W        W15098  16.743  11.000  20.504 -0.0978 -0.0439  0.1661
14235W        W15099  13.639  14.708  18.765 -0.0380  0.0575 -0.0245
14236W        W15100  19.431  12.695  18.655  0.0805  0.1974 -0.0646
14237W        W15101  15.570  15.815  20.823  0.2176  0.1974  0.0860
14238W        W15102  16.886  11.804  18.180 -0.0445  0.0472 -0.1538
14239W        W15103  18.026  14.447  22.022  0.0552 -0.1340 -0.1110
14240W        W15104  16.008  16.735  21.491  0.0085  0.1787  0.1116
14241W        W15105  15.290  13.649  21.987  0.3715 -0.2557  0.2140
14242W        W15106  15.187  12.198  20.085 -0.0133  0.0932  0.0123
14243W        W15107  12.431  13.347  19.934 -0.1671  0.0902 -0.0696
14244W        W15108  15.865  13.209  21.078  0.2745 -0.0870 -0.1446
14245W        W15109  13.529  12.643  22.982 -0.3080  0.1728  0.0428
14246W        W15110  15.528  14.387  18.629  0.0040  0.3401  0.0008
14247W        W15111  17.682  14.402  18.839  0.1748 -0.1771 -0.0206
14248W        W15112  19.079  13.713  20.892 -0.1291 -0.1410  0.0246
14249W        W15113  16.385  11.021  22.356  0.1709 -0.0382  0.1984
14250W        W15114  13.479  13.723  16.659  0.0663  0.5854  0.0975
14251W        W15115  16.542   8.666  17.715 -0.1581 -0.0797  0.0010
14252W        W15116  16.905  14.088  19.093  0.2432  0.1332 -0.1795
14253W        W15117  16.101   8.727  23.297 -0.2697  0.2703 -0.1411
14254W        W15118  15.429  13.553  21.546 -0.1253 -0.0057 -0.0567
14255W        W15119  16.246  12.784  21.178 -0.0729  0.0026 -0.1775
14256W        W15120  14.068  12.008  21.370  0.1543  0.0766 -0.1446
14257W        W15121  17.038  10.277  22.376 -0.0661 -0.0905 -0.1936
14258W        W15122  16.576   9.202  20.296 -0.0264 -0.2309  0.2740
14259W        W15123  13.409   9.582  17.591 -0.2152 -0.0388 -0.0022
14260W        W15124  17.094  15.915  21.052  0.2557  0.4906 -0.0592
14261W        W15125  17.437  16.184  20.265 -0.2365 -0.1042  0.1573
14262W        W15126  14.640  13.377  19.701 -0.1321 -0.2042 -0.0832
14263W        W15127  18.387  12.469  18.763 -0.1684  0.3254  0.0702
14264W        W15128  18.122  13.525  21.097 -0.1607  0.0879 -0.1009
14265W        W15129  16.595  16.238  21.879 -0.1574  0.1792  0.2110
14266W        W15130  16.100  15.757  20.368 -0.2667  0.2519 -0.0608
14267W        W15131  16.868  12.786  17.348  0.0451 -0.0877 -0.3294
14268W        W15132  18.351  12.276  18.343  0.1116 -0.0592 -0.2098
14269W        W15133  15.953  13.633  21.975 -0.0029  0.1741  0.1095
14270W        W15134  14.129  12.678  18.614  0.0830  0.1015 -0.0492
14271W        W15135  13.877  15.172  20.289  0.3960 -0.0558  0.1726
14272W        W15136  16.047  10.528  18.432  0.3207  0.0045  0.0547
14273W        W15137  13.111  16.032  20.082 -0.0158 -0.1552  0.0052
14274W        W15138  17.266  15.668  19.627  0.0604  0.0021 -0.1639
14275W        W15139  17.152  14.409  17.636  0.1737  0.2439  0.1317
14276W        W15140  11.729  12.514  21.374 -0.1138 -0.0420 -0.0990
14277W        W15141  18.281  12.156  19.709 -0.0237 -0.2075 -0.0743
14278W        W15142  19.902  12.775  22.149 -0.1399  0.0450  0.3121
14279W        W15143  17.661  14.360  19.305  0.0358 -0.1261 -0.0374
14280W        W15144  15.959  11.455  18.053  0.2928  0.0808  0.1826
14281W        W15145  15.812  13.237  22.492  0.0990 -0.0472 -0.0959
14282W        W15146  13.879  11.367  21.487 -0.0563  0.1975 -0.4012
14283W        W15147  13.194  12.928  17.518  0.1681 -0.0335  0.0014
14284W        W15148  15.264  12.533  18.677 -0.1007  0.1640 -0.0813
14285W        W15149  15.703  14.014  22.128 -0.0222 -0.2951 -0.0169
14286W        W15150  17.874  10.646  23.448  0.0161 -0.0144 -0.2007
14287W        W15151  16.128  13.801  19.630 -0.1274 -0.2268 -0.1357
14288W        W15152  12.348  10.557  20.203  0.0956 -0.1567  0.0217
14289W        W15153  18.260   9.923  17.629 -0.2674  0.0131 -0.0697
14290W        W15154  14.893  10.606  23.362 -0.1240  0.2233 -0.1466
14291W        W15155  14.554  11.044  20.724 -0.0101 -0.0321 -0.0118
14292W        W15156  17.064  16.488  22.470  0.2811 -0.0510  0.1184
14293W        W15157  14.051  11.258  21.044  0.1668 -0.2351 -0.1272
14294W        W15158  19.186   9.648  17.659  0.1858 -0.0518  0.0063
14295W        W15159  17.068  12.924  21.744  0.0938 -0.0586  0.1103
14296W        W15160  16.951  14.451  19.972  0.0358  0.0642 -0.1462
14297W        W15161  12.510  10.927  18.618 -0.1164  0.0136  0.1300
14298W        W15162  16.568  13.558  22.190 -0.1883  0.2425 -0.1090
14299W        W15163  16.305  14.862  20.483  0.0927  0.0345  0.2470
14300W        W15164  13.399  15.838  18.135  0.3432 -0.0648  0.3102
14301W        W15165  14.963  10.811  20.719  0.0852 -0.1980  0.0428
14302W        W15166  15.872  12.417  20.744 -0.0043  0.4758 -0.1619
14303W        W15167  18.455  13.153  20.233 -0.2724 -0.0166 -0.2902
14304W        W15168  17.572  12.926  21.009  0.1635 -0.1762  0.1509
14305W        W15169  19.755  12.361  20.035  0.2147 -0.0966  0.0255
14306W        W15170  18.001  13.652  21.660 -0.2895  0.0861 -0.1043
14307W        W15171  19.015  12.452  18.813  0.2480  0.0414 -0.0384
14308W        W15172  15.497  15.408  20.529 -0.1206  0.0676  0.1729
14309W        W15173  16.370  13.942  17.830  0.0918 -0.0121 -0.1260
14310W        W15174  15.642  13.220  23.836 -0.1755 -0.1889 -0.4143
14311W        W15175  15.914  10.571  23.124  0.2433 -0.0509  0.3119
14312W        W15176  17.233  12.274  23.932  0.1960  0.0960  0.0695
14313W        W15177  20.223  13.109  21.775  0.2007  0.1451 -0.1184
14314W        W15178  14.103  14.394  21.567  0.3566  0.0629  0.0624
14315W        W15179  17.167  12.739  20.115 -0.1789 -0.3382  0.2229
14316W        W15180  17.863  14.893  18.222  0.2255  0.2884 -0.1935
14317W        W15181  17.231   9.989  22.974  0.0803 -0.0051 -0.1381
14318W        W15182  17.535  14.444  21.278 -0.1424 -0.0941  0.1093
14319W        W15183  18.460   9.014  20.717  0.0349 -0.1727 -0.2057
14320W        W15184  19.519  14.112  17.493  0.0663 -0.1558  0.1713
14321W        W15185  16.889  16.460  20.947 -0.1025  0.0347 -0.2062
14322W        W15186  17.377  10.504  22.651 -0.1057  0.1129  0.0832
14323W        W15187  18.748   9.855  21.900 -0.3520 -0.0791 -0.2291
14324W        W15188  15.705  14.366  19.164 -0.0906  0.0711 -0.1800
14325W        W15189  17.546  16.506  19.274  0.0743 -0.0518  0.2661
14326W        W15190  13.450  11.127  22.844 -0.5198 -0.2460  0.0272
14327W        W15191  16.179  14.670  20.060 -0.1173  0.1380  0.2078
14328W        W15192  17.075  13.945  22.678 -0.0368 -0.3375  0.1174
14329W        W15193  16.468  11.749  19.957  0.0314 -0.1432 -0.0813
14330W        W15194  18.065  14.370  21.504 -0.0617  0.0955 -0.1578
14331W        W15195  16.413  13.315  21.207  0.1386  0.3648  0.0328
14332W        W15196  13.812  14.072  20.127  0.1086 -0.1679 -0.1554
14333W        W15197  15.524  14.756  24.696 -0.0767  0.1144  0.0010
14334W        W15198  16.428  10.778  20.181  0.3596 -0.3616 -0.1210
14335W        W15199  13.975  13.408  21.595 -0.0585 -0.1979  0.2022
14336W        W15200  17.508  10.249  21.631  0.2254 -0.0594  0.1297
14337W        W15201  16.177  13.197  17.923 -0.0575  0.1026  0.4793
14338W        W15202  16.740  13.588  20.903  0.0078  0.0079 -0.2924
14339W        W15203  14.725  14.685  17.276 -0.1773 -0.0555 -0.1876
14340W        W15204  18.226  13.953  19.577  0.0433  0.1571 -0.0953
14341W        W15205  16.628  10.095  16.085 -0.0918 -0.0882  0.0839
14342W        W15206  17.325  13.809  21.567  0.1490 -0.0293 -0.2090
14343W        W15207  15.203  15.328  21.647  0.1730  0.0782  0.1909
14344W        W15208  16.717  13.086  20.854  0.1926 -0.3715  0.2056
14345W        W15209  15.518  16.310  20.705 -0.1014  0.0672  0.1111
14346W        W15210  12.327  10.064  18.214  0.2519  0.1360 -0.0357
14347W        W15211  19.360  15.332  21.478  0.3827  0.0967 -0.1940
14348W        W15212  18.003  11.810  18.277 -0.1595 -0.0453  0.2358
14349W        W15213  16.165  10.656  22.631 -0.0960 -0.0259  0.1794
14350W        W15214  16.226  14.182  20.022 -0.1736 -0.1407  0.0628
14351W        W15215  18.714  14.196  17.820  0.0348  0.3657 -0.1979
14352W        W15216  16.437  13.504  21.726 -0.0437 -0.2330 -0.2944
14353W        W15217  15.493  14.424  22.219 -0.1575  0.3553  0.0962
14354W        W15218  16.982  13.776  19.447 -0.0233 -0.0409 -0.1016
14355W        W15219  14.903  11.785  20.768  0.0170 -0.1442  0.1078
14356W        W15220  14.398  15.546  19.034 -0.1102  0.1556 -0.0090
14357W        W15221  18.330  14.144  22.342 -0.2559 -0.2136  0.0993
14358W        W15222  12.326  14.216  21.416 -0.1578 -0.1131  0.0332
14359W        W15223  18.394  14.207  19.972 -0.1052 -0.0379  0.0138
14360W        W15224  15.016  12.684  20.945 -0.1714 -0.0345  0.1332
14361W        W15225  18.871  12.773  17.081 -0.2397 -0.0320 -0.0701
14362W        W15226  14.916  13.619  18.835 -0.2090  0.0294 -0.0416
14363W        W15227  18.064  12.843  20.410  0.2100  0.2729  0.2163
14364W        W15228  15.523  11.794  20.096 -0.5315 -0.1342  0.1988
14365W        W15229  18.394  12.330  21.078 -0.0968  0.0414  0.0932
14366W        W15230  17.674  15.210  22.190 -0.0257  0.1545  0.1952
14367W        W15231  14.684  10.981  23.098 -0.2798  0.3538  0.4294
14368W        W15232  13.664   9.232  20.101  0.0740  0.0566  0.2462
14369W        W15233  13.967  13.069  21.221 -0.4604  0.0945  0.1089
14370W        W15234  17.255   9.324  18.809 -0.4601 -0.0726  0.0042
14371W        W15235  15.599  14.979  20.877  0.2048 -0.2449  0.1003
14372W        W15236  17.330  11.207  20.234 -0.0798 -0.5464 -0.2326
14373W        W15237  17.621  14.468  20.412  0.3506 -0.1017  0.0394
14374W        W15238  11.789  14.438  17.475  0.2540 -0.0687  0.2597
14375W        W15239  13.476  14.945  20.591  0.1207 -0.3735 -0.2375
14376W        W15240  18.376   9.847  17.173 -0.1708 -0.1273  0.2057
14377W        W15241  15.174  12.438  22.278 -0.0356 -0.1524  0.4534
14378W        W15242  18.973  14.480  18.662 -0.1859  0.2226  0.2477
14379W        W15243  17.029  12.145  21.791  0.0834  0.0371 -0.0100
14380W        W15244  15.054  10.083  19.947 -0.1205  0.1150 -0.2266
14381W        W15245  15.729  12.916  19.702 -0.1826  0.0006  0.2476
14382W        W15246  15.169  14.782  21.987 -0.1810  0.3977 -0.3121
14383W        W15247  14.859  11.138  20.344 -0.1618  0.0594  0.0788
14384W        W15248  19.687  11.925  22.670 -0.0073 -0.2148  0.0591
14385W        W15249  16.808  12.587  21.029 -0.3089 -0.0790  0.3262
14386W        W15250  16.047  13.194  18.823 -0.2226  0.0183  0.0057
14387W        W15251  15.093  12.753  22.752 -0.4155  0.1536 -0.0844
14388W        W15252  19.605  12.985  19.499  0.1979 -0.1863 -0.2598
14389W        W15253  18.639  13.212  22.792  0.1611  0.2473  0.0441
14390W        W15254  18.263  10.084  20.163 -0.1508  0.0786 -0.2971
14391W        W15255  14.016  15.754  16.530  0.2063  0.1108  0.0531
14392W        W15256  12.694  14.754  17.916 -0.0208  0.0747 -0.1361
14393W        W15257  15.077  12.242  21.697 -0.2483 -0.0340 -0.1002
14394W        W15258  16.586  16.079  21.083  0.1595 -0.1372  0.2483
14395W        W15259  19.780  11.279  21.886  0.1470  0.3971  0.1052
14396W        W15260  16.580  14.082  18.241  0.2465  0.0813  0.2575
14397W        W15261  15.492  13.667  22.459 -0.1195  0.1415 -0.0143
14398W        W15262  17.801  16.107  24.345 -0.0959 -0.0268  0.4427
14399W        W15263  15.971  12.886  17.472  0.0437 -0.1691 -0.0900
14400W        W15264  17.637  11.841  20.772  0.2273  0.0635 -0.1733
14401W        W15265  13.221  13.139  22.037 -0.5527 -0.0741  0.0590
14402W        W15266  15.128  11.377  19.114 -0.1710 -0.0538 -0.1451
14403W        W15267  15.457  12.631  23.821  0.1642 -0.2472 -0.1464
14404W        W15268  16.656  14.480  20.359 -0.3703 -0.1003 -0.1332
14405W        W15269  16.462  13.815  21.254 -0.0298 -0.2709 -0.3752
14406W        W15270  13.506  15.459  20.143 -0.1957 -0.1357 -0.2026
14407W        W15271  14.903  15.991  20.403 -0.3514  0.1006 -0.0561
14408W        W15272  17.536  12.836  21.539  0.0918 -0.0784  0.1896
14409W        W15273  18.594   6.657  20.300  0.2207 -0.0737 -0.3101
14410W        W15274  15.876  16.652  20.990  0.3195  0.0717 -0.0417
14411W        W15275  15.292  12.903  20.051  0.0081  0.0236 -0.1742
14412W        W15276  13.188  12.534  18.694  0.4261  0.3437 -0.2107
14413W        W15277  14.447  12.847  20.296 -0.0858 -0.0535 -0.1504
14414W        W15278  14.885  15.885  19.444 -0.0736 -0.1727  0.0812
14415W        W15279  15.744  14.264  20.075  0.0968 -0.2138 -0.2135
14416W        W15280  15.913  14.535  20.985 -0.1738 -0.3239 -0.0071
14417W        W15281  14.838  12.519  17.798 -0.1113  0.0682 -0.1055
14418W        W15282  14.785  13.068  20.058 -0.0949  0.3230  0.2168
14419W        W15283  14.105  12.857  20.785 -0.3082  0.0276 -0.1753
14420W        W15284  18.034  10.882  19.919  0.0232 -0.0130 -0.1690
14421W        W15285  15.072  14.244  18.050 -0.0430 -0.0731  0.0192
14422W        W15286  14.973  11.806  20.307  0.2641 -0.1341 -0.3556
14423W        W15287  17.472  11.234  19.271  0.2867 -0.0479  0.2315
14424W        W15288  18.093  11.851  21.070 -0.1885 -0.2379  0.1382
14425W        W15289  16.107  13.700  22.454 -0.2338 -0.0195  0.0579
14426W        W15290  19.361  15.452  20.947 -0.0746 -0.3140 -0.0601
14427W        W15291  18.431  12.721  17.809 -0.1010  0.0595  0.1494
14428W        W15292  14.185  13.581  19.696 -0.4018  0.2100  0.1075
14429W        W15293  17.149  14.281  20.402 -0.1142  0.1873  0.0551
14430W        W15294  18.871  12.204  18.415 -0.0310 -0.1361  0.0027
14431W        W15295  17.362  10.030  19.532 -0.2939 -0.2329 -0.0363
14432W        W15296  14.067  14.607  18.883 -0.1776 -0.0121 -0.0519
14433W        W15297  16.580  10.638  17.518 -0.1267 -0.0890 -0.2109
14434W        W15298  16.182   9.319  19.547  0.2605 -0.2441 -0.0707
14435W        W15299  14.273  14.005  19.240  0.2733 -0.1386 -0.1726
14436W        W15300  16.011  13.656  21.403  0.3354 -0.1690  0.3079
14437W        W15301  18.347  15.146  20.926  0.3174 -0.1531 -0.5633
14438W        W15302  13.577  14.385  22.030 -0.2620 -0.1518  0.2529
14439W        W15303  16.522  11.919  22.037 -0.2896 -0.0438 -0.0574
14440W        W15304  18.809  16.034  20.885 -0.2341 -0.4451  0.1060
14441W        W15305  14.313  11.625  21.609 -0.1539 -0.1058 -0.0882
14442W        W15306  17.818  14.401  22.520  0.2942 -0.2136 -0.2711
14443W        W15307  16.327  14.874  16.316  0.0741  0.0233  0.1705
14444W        W15308  18.639  11.804  19.539 -0.1475 -0.1787  0.1485
14445W        W15309  15.779  14.415  21.871 -0.2957 -0.1965 -0.1881
14446W        W15310  14.002  13.389  20.494 -0.1388 -0.1881 -0.0337
14447W        W15311  16.336   9.471  19.983 -0.0162 -0.1435 -0.2156
14448W        W15312  16.341  14.771  22.434  0.0214 -0.2835  0.1049
14449W        W15313  16.100  14.360  22.344  0.0980  0.0413  0.3470
14450W        W15314  15.097  10.794  24.179  0.2478 -0.1612  0.2534
14451W        W15315  16.329  11.094  17.791 -0.0450  0.1595 -0.2561
14452W        W15316  17.230  11.012  17.460  0.3477  0.0852 -0.1909
14453W        W15317  15.480  14.609  21.335 -0.1100 -0.1925 -0.3066
14454W        W15318  16.869  14.516  21.833  0.1859 -0.2230  0.1702
14455W        W15319  16.732  10.304  19.900  0.0470 -0.3627 -0.1319
14456W        W15320  13.545  13.873  22.290 -0.0708 -0.0378  0.1214
14457W        W15321  15.668  16.190  21.191 -0.0610  0.0503  0.3663
14458W        W15322  18.565  11.931  17.430  0.0016 -0.2636  0.0980
14459W        W15323  14.944  13.856  21.610  0.1875  0.0385  0.0932
14460W        W15324  17.619  14.369  17.246 -0.2128 -0.2801 -0.2754
14461W        W15325  17.204  14.019  17.171  0.1994 -0.1218  0.3336
14462W        W15326  14.710  13.261  19.220  0.1772 -0.0454  0.1001
14463W        W15327  18.965  15.155  22.845  0.0113 -0.0496  0.2294
14464W        W15328  14.680  13.760  19.271 -0.3507 -0.1156 -0.4724
14465W        W15329  16.643  15.953  24.294  0.0935  0.1565  0.0232
14466W        W15330  14.547  13.903  19.814  0.2667  0.2514 -0.1198
14467W        W15331  14.372  13.088  21.632  0.0073 -0.2238 -0.0506
14468W        W15332  17.243  13.933  20.063  0.0246 -0.1538  0.0100
14469W        W15333  18.809  16.147  23.078 -0.0241  0.0239 -0.0154
14470W        W15334  18.664  12.073  21.483 -0.4161  0.1951  0.1614
14471W        W15335  13.947  10.730  19.971 -0.1540  0.1072  0.0380
14472W        W15336  15.598  12.760  21.921  0.2254 -0.1760  0.2012
14473W        W15337  12.488  12.801  17.962  0.1276 -0.0037  0.2944
14474W        W15338  17.600  12.928  17.910 -0.0327 -0.4033 -0.2548
14475W        W15339  15.258  15.216  21.190 -0.1345  0.1248 -0.0149
14476W        W15340  15.390  14.025  20.314  0.0739 -0.3497 -0.0123
14477W        W15341  17.896  16.329  20.569  0.2147  0.1434  0.1665
14478W        W15342  16.679  14.541  19.015 -0.0664 -0.1324  0.2868
14479W        W15343  16.310  15.334  21.325 -0.1494  0.0389 -0.1211
14480W        W15344  16.615  16.343  19.719 -0.1700 -0.1041 -0.2344
14481W        W15345  16.653  12.434  21.583  0.0385 -0.3592  0.0099
14482W        W15346  17.156  15.796  21.542  0.0487 -0.0359  0.1155
14483W        W15347  13.694  12.319  21.352 -0.2672 -0.0057 -0.0966
14484W        W15348  13.742  14.479  19.709  0.1753 -0.0439 -0.1005
14485W        W15349  19.290  12.407  19.899 -0.3064  0.0396  0.2290
14486W        W15350  17.363  15.310  20.865 -0.1496  0.1431 -0.0431
14487W        W15351  20.625  12.306  23.214  0.4049  0.0876  0.1921
14488W        W15352  14.937  12.909  21.390 -0.0080 -0.0851  0.0228
14489W        W15353  12.803  15.666  20.840 -0.0833  0.1525  0.0397
14490W        W15354  14.496  13.772  21.148  0.1543 -0.0763  0.0930
14491W        W15355  14.566  12.337  19.484 -0.3350  0.1483  0.4539
14492W        W15356  16.041  14.287  26.857 -0.2557 -0.3409  0.0829
14493W        W15357  17.720  16.790  25.065 -0.0628 -0.3950  0.0035
14494W        W15358  20.037  13.586  22.496  0.1323 -0.1952  0.0895
14495W        W15359  17.241  14.548  22.789 -0.0671 -0.1568  0.0511
14496W        W15360  15.502  15.072  22.253 -0.0654  0.0069 -0.0257
14497W        W15361  16.409  13.064  24.484  0.0256  0.0722  0.0086
14498W        W15362  14.528  11.535  20.468 -0.0820  0.1488  0.0692
14499W        W15363  17.062  12.704  20.629 -0.0643  0.0335 -0.1271
14500W        W15364  16.843  15.517  24.361 -0.0325 -0.2424  0.1920
14501W        W15365  14.139  13.912  22.711  0.1528 -0.0958  0.0096
14502W        W15366  15.911  11.518  24.925  0.0017 -0.1214 -0.0705
14503W        W15367  14.936   9.677  25.048  0.0479 -0.0719 -0.1012
14504W        W15368  19.915  13.043  21.153  0.2622  0.0757 -0.0977
14505W        W15369  18.109  14.932  22.265 -0.1340  0.0378 -0.0617
14506W        W15370  14.680  12.318  25.045  0.1818  0.0802  0.1171
14507W        W15371  13.800  15.224  27.313 -0.2345  0.3205 -0.3411
14508W        W15372  16.150  14.167  24.518 -0.0133  0.1692 -0.1544
14509W        W15373  14.424  12.839  25.062 -0.2501  0.0261 -0.0990
14510W        W15374  15.695  11.369  26.350  0.0102  0.0783 -0.0612
14511W        W15375  17.210  11.362  19.732  0.1110 -0.5740 -0.0030
14512W        W15376  18.059  11.710  25.486 -0.1102  0.0250  0.1982
14513W        W15377  17.179  12.914  23.384  0.3838  0.0021  0.1457
14514W        W15378  17.280  15.019  22.394  0.3645  0.1688 -0.0354
14515W        W15379  16.700  14.052  24.540 -0.2004 -0.4926  0.0990
14516W        W15380  14.232  13.456  25.646 -0.0606  0.2694 -0.0108
14517W        W15381  15.102  12.623  24.158  0.0186  0.1606  0.0922
14518W        W15382  18.333  13.781  26.162  0.1761 -0.1739  0.2024
14519W        W15383  18.294  12.936  22.009  0.1577  0.1033  0.1884
14520W        W15384  16.741  12.170  23.879  0.3327  0.2832 -0.0157
14521W        W15385  18.913  12.558  23.812  0.0803 -0.0234  0.1257
14522W        W15386  16.268  14.960  23.480 -0.0379  0.0735  0.0245
14523W        W15387  15.232  15.428  25.156  0.1811  0.1660  0.1885
14524W        W15388  16.773  13.234  23.776  0.0296  0.1186 -0.4013
14525W        W15389  17.212  12.807  23.901 -0.0947 -0.1982  0.1388
14526W        W15390  13.990  12.415  26.867  0.3572  0.1865  0.1810
14527W        W15391  15.844  13.277  26.876  0.3042  0.4477 -0.1115
14528W        W15392  16.947  11.247  23.837  0.0952  0.1446 -0.0959
14529W        W15393  16.413  14.841  24.770 -0.0625  0.0201 -0.0675
14530W        W15394  19.624  15.196  23.641 -0.3454  0.1437  0.0304
14531W        W15395  17.545   9.261  21.342  0.1322 -0.0636 -0.1543
14532W        W15396  17.795  12.354  21.108 -0.1188 -0.3429  0.3819
14533W        W15397  16.983  14.824  24.008  0.0982  0.2386  0.0641
14534W        W15398  17.619  15.378  23.440 -0.0112 -0.1595  0.0618
14535W        W15399  16.032  13.995  19.196  0.0741  0.0813 -0.0687
14536W        W15400  15.630  16.854  23.635 -0.0487  0.0810  0.0827
14537W        W15401  15.973  16.132  20.711  0.0146  0.3139 -0.0949
14538W        W15402  13.198  11.168  25.456 -0.0154  0.2747 -0.0314
14539W        W15403  18.908  11.216  25.561 -0.0540  0.1866  0.1382
14540W        W15404  16.425  13.398  24.096 -0.2876  0.2819 -0.0072
14541W        W15405  17.803  11.383  22.104  0.0476 -0.1104  0.0376
14542W        W15406  17.990  14.472  23.130 -0.1233 -0.2663 -0.0956
14543W        W15407  15.903  14.979  23.812  0.0198 -0.0296 -0.1817
14544W        W15408  17.455  15.135  24.042 -0.1567 -0.0770 -0.0225
14545W        W15409  17.487  14.670  23.207 -0.1367  0.1886 -0.0491
14546W        W15410  17.164  11.753  20.441  0.0099  0.0325 -0.2199
14547W        W15411  15.164  14.939  22.593 -0.2066 -0.0501  0.0687
14548W        W15412  15.908  12.012  24.292 -0.1348  0.0864  0.1559
14549W        W15413  19.330  11.349  22.320 -0.0291  0.0210  0.0887
14550W        W15414  14.962  13.948  24.689 -0.0378  0.1585 -0.0896
14551W        W15415  16.950  15.826  23.918  0.4092 -0.2994 -0.0945
14552W        W15416  14.629  16.075  21.351 -0.0068  0.2208 -0.0284
14553W        W15417  14.059  14.798  23.491  0.4417  0.2702 -0.1668
14554W        W15418  16.183  13.210  25.884  0.2514  0.2226 -0.1229
14555W        W15419  17.340  12.190  24.444  0.4249  0.1271  0.3521
14556W        W15420  15.261  12.124  24.023  0.1611  0.2345 -0.0322
14557W        W15421  17.177  11.801  23.115 -0.2593  0.0070 -0.0784
14558W        W15422  15.108  16.060  20.838  0.1327 -0.2132 -0.0781
14559W        W15423  15.901  12.350  22.715  0.1488  0.1850  0.1909
14560W        W15424  16.627  14.661  23.637 -0.1003 -0.2426 -0.2844
14561W        W15425  17.212  17.074  22.327  0.0936  0.0707  0.1577
14562W        W15426  16.415  14.562  24.307 -0.0367 -0.1702  0.0088
14563W        W15427  15.755  11.413  20.729  0.0869  0.0372 -0.0100
14564W        W15428  17.590  12.093  23.682 -0.2773 -0.3041  0.0034
14565W        W15429  17.579  11.890  24.179 -0.0078 -0.1697 -0.1979
14566W        W15430  22.599  15.099  25.837  0.1005 -0.2317 -0.1785
14567W        W15431  19.146  15.564  24.344 -0.3186 -0.0526 -0.0517
14568W        W15432  17.702  11.740  23.254  0.3172 -0.0776  0.1528
14569W        W15433  15.044  13.171  24.552  0.0616 -0.1209 -0.0793
14570W        W15434  17.864  13.272  22.811  0.0462 -0.0866 -0.0722
14571W        W15435  16.799  12.769  25.321 -0.1273  0.0660 -0.0662
14572W        W15436  15.728  12.423  24.810  0.2647  0.0782  0.0658
14573W        W15437  15.701  11.061  28.460  0.0690  0.0353  0.0598
14574W        W15438  13.519  10.467  24.528 -0.2670  0.4392 -0.0094
14575W        W15439  15.537  13.255  24.808 -0.1431  0.0487 -0.0018
14576W        W15440  16.113  10.285  21.790 -0.1364  0.3554  0.1543
14577W        W15441  16.682  17.030  22.161 -0.3440  0.3640 -0.0428
14578W        W15442  16.757  14.462  26.026 -0.1587  0.2921 -0.0988
14579W        W15443  17.473  11.600  23.755  0.1637 -0.2209 -0.1807
14580W        W15444  17.821  15.462  25.301 -0.0669  0.0983  0.0616
14581W        W15445  18.992  11.388  24.544  0.0825  0.1747 -0.1352
14582W        W15446  16.721  12.090  22.759  0.1059 -0.0072  0.1700
14583W        W15447  18.085  13.497  22.122 -0.0164  0.0079 -0.0827
14584W        W15448  14.579  14.329  24.611 -0.2066  0.2442  0.2024
14585W        W15449  16.484  10.111  20.807  0.0582 -0.0707 -0.2395
14586W        W15450  15.709  11.163  27.267 -0.1625 -0.0686  0.1424
14587W        W15451  16.799   9.838  19.982 -0.2082 -0.2245 -0.1033
14588W        W15452  18.764  10.236  23.967 -0.3582  0.1053  0.0029
14589W        W15453  15.670  15.961  25.158  0.0555  0.0262  0.1692
14590W        W15454  14.668  11.100  24.156 -0.0674 -0.2863 -0.1152
14591W        W15455  17.521  13.346  25.008 -0.0748 -0.2665 -0.1583
14592W        W15456  19.127  12.635  22.224 -0.0947 -0.1099  0.2178
14593W        W15457  14.230  13.111  23.645 -0.0211  0.0503 -0.0588
14594W        W15458  18.142  12.224  24.124 -0.1155 -0.0123 -0.0756
14595W        W15459  18.047  12.793  24.164 -0.5418  0.0953 -0.1464
14596W        W15460  16.963  13.181  24.331 -0.0651  0.1699  0.1047
14597W        W15461  16.908  11.940  24.659  0.4064  0.0159 -0.6063
14598W        W15462  18.873  14.517  23.506  0.0907 -0.2311 -0.2030
14599W        W15463  17.646  13.450  27.085 -0.0198 -0.0415 -0.3101
14600W        W15464  15.025  12.008  25.200 -0.0162  0.0693 -0.2480
14601W        W15465  12.982  13.787  22.124 -0.0860  0.0039 -0.0269
14602W        W15466  15.825  12.661  25.573  0.1707  0.1027 -0.3208
14603W        W15467  17.473  13.277  23.165  0.1642  0.0631  0.2452
14604W        W15468  19.484  14.305  24.355 -0.1058 -0.3142 -0.2515
14605W        W15469  17.580  12.972  26.930  0.1182  0.2805  0.0641
14606W        W15470  18.176  17.777  19.371  0.1657 -0.0876 -0.1036
14607W        W15471  16.219  14.063  22.761  0.3133 -0.1437  0.0419
14608W        W15472  17.728   8.767  23.100 -0.0223 -0.2634 -0.0697
14609W        W15473  17.228  12.500  23.006  0.2703  0.1716 -0.0775
14610W        W15474  14.736   9.646  25.913 -0.1973  0.0180  0.0602
14611W        W15475  16.494  13.024  21.873 -0.2939 -0.0794  0.0046
14612W        W15476  18.293  11.275  21.660  0.1218 -0.3001  0.1814
14613W        W15477  18.578  15.817  24.229 -0.1395 -0.0344 -0.2130
14614W        W15478  16.797  14.815  22.668 -0.4034  0.2312 -0.0615
14615W        W15479  15.853  13.767  22.944  0.0804 -0.0430  0.0466
14616W        W15480  17.483  12.460  25.296  0.0407 -0.1189 -0.1520
14617W        W15481  16.068  13.538  24.502 -0.3129 -0.2731 -0.1692
14618W        W15482  14.271  11.948  24.568 -0.2897  0.0209  0.0245
14619W        W15483  17.879  12.235  25.082  0.3300  0.1328 -0.0443
14620W        W15484  17.552  16.282  22.892 -0.5131 -0.1974 -0.1609
14621W        W15485  16.719  15.762  22.529 -0.1328  0.1966 -0.4342
14622W        W15486  16.713  15.641  26.797 -0.0977  0.2515 -0.1687
14623W        W15487  15.172  10.906  24.779  0.2406  0.2737 -0.2553
14624W        W15488  17.002  17.164  23.069  0.0766 -0.1464  0.1409
14625W        W15489  19.984  13.826  19.933  0.0855  0.1082  0.1316
14626W        W15490  18.700  13.907  22.959 -0.0491 -0.0543 -0.3614
14627W        W15491  15.514  15.196  24.138 -0.2348  0.0450 -0.0541
14628W        W15492  17.604  12.887  22.939 -0.1055 -0.1477 -0.1701
14629W        W15493  17.265  15.010  23.562  0.1624 -0.0789  0.2036
14630W        W15494  15.053  14.411  22.455 -0.4235  0.3639 -0.2309
14631W        W15495  16.334  13.212  22.437 -0.3087  0.1543 -0.1973
14632W        W15496  15.336  11.551  21.723 -0.2258 -0.0155  0.1246
14633W        W15497  15.697   9.932  24.214 -0.0560  0.1469  0.0711
14634W        W15498  14.707  14.883  23.266 -0.0055 -0.0351 -0.2000
14635W        W15499  16.182  10.691  25.511 -0.0080  0.2923 -0.0222
14636W        W15500  17.768  11.285  23.478  0.1433 -0.1449  0.2788
14637W        W15501  15.585  12.272  25.290 -0.0145 -0.0626 -0.0735
14638W        W15502  17.185  13.836  24.813 -0.0327  0.0598  0.0480
14639W        W15503  15.007  15.939  25.781 -0.3299 -0.0424  0.0920
14640W        W15504  16.514  14.117  23.643  0.0078 -0.1235 -0.1121
14641W        W15505  17.899  12.764  22.512 -0.2410 -0.1091  0.1721
14642W        W15506  16.858  14.594  24.542  0.0134 -0.1559 -0.2093
14643W        W15507  16.307  12.565  23.399 -0.1149 -0.0155 -0.0383
14644W        W15508  16.639  13.116  25.678  0.1836  0.1228  0.2139
14645W        W15509  15.541  10.733  19.352  0.1842 -0.0149  0.1579
14646W        W15510  17.304   9.035  22.787  0.0996  0.2029  0.2269
14647W        W15511  19.856  10.755  23.155  0.4527 -0.0548  0.2704
14648W        W15512  15.056  14.939  25.490 -0.1983  0.3111  0.3537
14649W        W15513  16.725  14.282  25.411  0.0346 -0.0933  0.2614
14650W        W15514  16.565  10.974  20.979  0.0367 -0.0406  0.0064
14651W        W15515  15.001  11.267  24.500  0.2408 -0.0258 -0.0600
14652W        W15516  17.511  14.122  22.883 -0.2972  0.0124  0.0652
14653W        W15517  16.808  14.702  25.080 -0.0027  0.2005 -0.2619
14654W        W15518  16.574  12.977  26.870  0.1764 -0.0883 -0.0207
14655W        W15519  16.501  14.849  26.181  0.1367  0.2902 -0.3489
14656W        W15520  20.133  13.825  23.930  0.1725 -0.0140 -0.0239
14657W        W15521  15.207  13.218  21.008 -0.0146 -0.1200  0.1843
14658W        W15522  14.484  13.597  25.247  0.0238  0.1547  0.3403
14659W        W15523  13.868  14.668  23.044 -0.0785  0.0689 -0.1027
14660W        W15524  15.892  14.831  22.202 -0.2589 -0.2176 -0.1426
14661W        W15525  16.110  12.778  22.560 -0.2045  0.0778 -0.0713
14662W        W15526  14.500  12.704  22.791 -0.2678 -0.2676  0.1033
14663W        W15527  15.394  13.093  21.487  0.1094 -0.0774  0.1383
14664W        W15528  17.179  12.330  26.216 -0.1484  0.0154  0.2678
14665W        W15529  15.294  14.100  21.931  0.0790  0.0309 -0.2787
14666W        W15530  17.299  12.074  22.630  0.1654  0.1426 -0.1015
14667W        W15531  17.211  11.666  21.010 -0.0847  0.3945  0.0332
14668W        W15532  14.870  14.103  24.192 -0.3760 -0.0357  0.1208
14669W        W15533  15.218  14.000  25.423 -0.1486  0.0313 -0.1031
14670W        W15534  15.242  17.013  23.905  0.2906 -0.0530 -0.0642
14671W        W15535  17.334  11.469  27.240  0.0722 -0.0083 -0.2463
14672W        W15536  13.820  14.690  22.376  0.1096  0.0568  0.2536
14673W        W15537  17.910  17.961  22.637 -0.3915  0.1890 -0.1632
14674W        W15538  14.566  13.558  22.963  0.0915  0.1112  0.0770
14675W        W15539  17.399   9.599  24.729  0.1849  0.1536 -0.0357
14676W        W15540  15.829  12.396  23.389 -0.2293  0.2751 -0.1007
14677W        W15541  15.870  15.034  24.954  0.1457  0.4203 -0.1254
14678W        W15542  17.069  10.730  20.229 -0.1858 -0.2657  0.0811
14679W        W15543  14.681  12.329  22.104  0.0563  0.1446 -0.0884
14680W        W15544  17.996  15.130  24.984 -0.1672 -0.0929  0.0660
14681W        W15545  14.978  13.668  25.131  0.1890 -0.2430  0.3017
14682W        W15546  18.357  16.005  21.765 -0.3242 -0.1661  0.0963
14683W        W15547  15.356  12.561  23.234  0.0217 -0.2831  0.3048
14684W        W15548  12.839  14.212  25.793 -0.0576 -0.0302  0.1785
14685W        W15549  15.808  11.046  25.888 -0.0723 -0.1367  0.1604
14686W        W15550  15.943  12.192  25.625  0.4197  0.1469  0.1400
14687W        W15551  16.499  12.744  24.085  0.0106 -0.0221 -0.0957
14688W        W15552  14.155  12.672  23.170 -0.1625 -0.1041 -0.0479
14689W        W15553  14.126  10.708  23.875  0.1751 -0.0637 -0.0221
14690W        W15554  14.349  11.256  23.722  0.0848  0.0755 -0.1074
14691W        W15555  16.839  11.242  22.378 -0.1097  0.1877 -0.3256
14692W        W15556  15.040  11.595  24.936  0.0523  0.3396 -0.4678
14693W        W15557  18.410   9.800  23.698  0.0538  0.2281  0.0629
14694W        W15558  17.989  12.652  21.480  0.0123  0.0247  0.1044
14695W        W15559  13.188  12.881  22.453  0.0220  0.3050 -0.0927
14696W        W15560  14.867  11.503  23.402 -0.3090 -0.0528 -0.0530
14697W        W15561  13.965  12.446  24.202  0.0223 -0.0358  0.1086
14698W        W15562  17.539  12.528  24.836 -0.0105 -0.0432  0.2355
14699W        W15563  18.188  12.868  22.883 -0.0935  0.0843  0.1791
14700W        W15564  17.549  17.081  21.050  0.3207  0.1673  0.0904
14701W        W15565  15.303  14.126  22.852 -0.3705  0.2190  0.4222
14702W        W15566  14.590  14.274  26.027 -0.0881  0.1580  0.1580
14703W        W15567  14.012  13.477  24.005 -0.1078  0.0370 -0.1360
14704W        W15568  15.781  13.444  23.410  0.4402  0.3281 -0.2551
14705W        W15569  17.866  10.475  24.169  0.0424 -0.0134 -0.1065
14706W        W15570  18.590  12.389  24.225 -0.2017 -0.2666  0.3280
14707W        W15571  17.230  16.269  21.771  0.2816  0.3662  0.2302
14708W        W15572  14.049  11.858  22.854 -0.0546  0.0946  0.0737
14709W        W15573  17.424  15.729  20.547  0.1736  0.0984 -0.1423
14710W        W15574  13.353  13.244  23.328  0.0498 -0.0358 -0.0897
14711W        W15575  15.833  14.459  24.264  0.1398  0.0877  0.0713
14712W        W15576  17.029  12.862  27.538 -0.0652  0.0343  0.3898
14713W        W15577  19.358  15.633  23.726 -0.0088  0.2928 -0.2131
14714W        W15578  17.230  18.750  25.784 -0.1217 -0.2900  0.1143
14715W        W15579  18.065  10.231  23.198 -0.0127 -0.0318 -0.0150
14716W        W15580  20.599  13.942  23.159 -0.0048 -0.1562  0.0153
14717W        W15581  16.093  11.809  22.757 -0.0926 -0.2574 -0.0233
14718W        W15582  15.968  14.002  25.635  0.1205  0.1677 -0.3257
14719W        W15583  16.842  12.013  25.911 -0.1515  0.3499  0.0617
14720W        W15584  17.689  16.074  23.787  0.2324  0.3173 -0.2084
14721W        W15585  19.041  15.561  24.895 -0.1234 -0.2708  0.2024
14722W        W15586  15.435  12.007  24.505 -0.0258  0.1501  0.3212
14723W        W15587  13.960  13.790  24.449  0.3371 -0.1902 -0.2228
14724W        W15588  16.255  14.940  20.982  0.2267 -0.2101  0.0130
14725W        W15589  18.327  13.758  25.109  0.2174 -0.2713  0.1803
14726W        W15590  15.169  12.944  23.569 -0.1207  0.0022  0.2001
14727W        W15591  13.857  13.518  22.489 -0.2421 -0.4147 -0.0908
14728W        W15592  18.403  12.547  23.223  0.0075  0.0276  0.1578
14729W        W15593  19.448  10.653  28.619 -0.0024  0.1360  0.1338
14730W        W15594  16.386  13.971  24.129 -0.1081  0.3218 -0.1437
14731W        W15595  20.116  12.688  23.027  0.0365 -0.0284  0.0926
14732W        W15596  18.164  13.847  24.117  0.0989  0.0801  0.0256
14733W        W15597  15.871  12.967  27.645 -0.0142  0.3969  0.0138
14734W        W15598  15.850  12.807  26.385  0.0435 -0.0308 -0.1018
14735W        W15599  16.150  10.629  23.780  0.0222 -0.3462 -0.0204
14736W        W15600  16.736  11.284  25.124 -0.1547 -0.0651 -0.0021
14737W        W15601  15.817  15.328  21.123  0.0864 -0.3780  0.2056
14738W        W15602  20.704  12.443  22.370  0.1451 -0.1767 -0.0867
14739W        W15603  18.994  13.725  27.348 -0.1880 -0.1316  0.1852
14740W        W15604  20.126  16.546  22.450 -0.2324  0.0984 -0.1253
14741W        W15605  17.121   9.739  25.699 -0.1631 -0.2560  0.0823
14742W        W15606  17.542  17.520  22.034  0.0258  0.0939 -0.0651
14743W        W15607  17.558  17.350  22.538 -0.1175 -0.1233  0.3675
14744W        W15608  18.652  16.885  26.581 -0.1564 -0.2225  0.1058
14745W        W15609  18.036  13.293  25.017  0.1527 -0.0601 -0.3291
14746W        W15610  14.903  11.739  21.896  0.0898 -0.1231 -0.2865
14747W        W15611  18.830  16.478  24.757 -0.2055 -0.1084  0.3251
14748W        W15612  18.934  13.118  22.402 -0.4955  0.1567  0.1801
14749W        W15613  16.837   9.496  26.592  0.2201  0.0662 -0.2912
14750W        W15614  14.907  13.872  23.280  0.0414  0.1379  0.2073
14751W        W15615  18.896  10.683  21.659 -0.0016  0.0751  0.2122
14752W        W15616  17.049  11.847  23.609 -0.2234  0.3294 -0.0055
14753W        W15617  17.245  13.114  22.278  0.0136  0.2414  0.2236
14754W        W15618  15.967  15.691  27.965  0.0739  0.1245  0.0455
14755W        W15619  16.610   9.687  25.125  0.1411  0.1950 -0.1564
14756W        W15620  17.227  16.121  23.641 -0.0179  0.0797 -0.0276
14757W        W15621  15.015  14.779   0.631 -0.1000 -0.0839  0.3236
14758W        W15622  15.436  12.227  21.008  0.3387  0.0275  0.1310
14759W        W15623  17.088  15.212  21.288  0.2191 -0.1666  0.0314
14760W        W15624  12.142  10.587  24.399 -0.1896  0.0473 -0.1835
14761W        W15625  18.912  12.424  23.326 -0.0645 -0.2504 -0.1292
14762W        W15626  14.656  15.806  20.839  0.2377  0.0082 -0.1355
14763W        W15627  18.181  15.375  22.575  0.0624 -0.1496 -0.0186
14764W        W15628  16.223  14.248  25.268 -0.0602 -0.2371 -0.1147
14765W        W15629  12.960  13.824  23.516  0.0024 -0.1834 -0.1403
14766W        W15630  17.996  13.161  23.283 -0.1326 -0.1542  0.0650
14767W        W15631  17.014  12.089  25.327  0.0189 -0.2279  0.0941
14768W        W15632  15.234  13.437  27.139 -0.2580 -0.0617  0.3340
14769W        W15633  13.616  12.625  24.514  0.0473  0.3714 -0.1244
14770W        W15634  15.136  15.757  21.908  0.0165  0.0262 -0.0284
14771W        W15635  16.066  13.878  28.271 -0.0929  0.0426  0.1969
14772W        W15636  16.040  13.102  24.107 -0.1635 -0.0470 -0.0353
14773W        W15637  15.329  13.174  22.582  0.0409  0.2666  0.0274
14774W        W15638  16.205  14.030  21.863  0.2655 -0.2002  0.1183
14775W        W15639  14.663  12.586  25.549 -0.0370  0.1394 -0.0267
14776W        W15640  17.091  12.026  21.344 -0.0235 -0.1554  0.2139
14777W        W15641  17.012  14.039  25.898 -0.0434 -0.0331  0.0416
14778W        W15642  19.228  11.832  22.524  0.1448 -0.1126 -0.0826
14779W        W15643  14.944  14.083  27.619 -0.1927  0.2053  0.1366
14780W        W15644  17.352   9.129  21.973 -0.0746 -0.0399 -0.1601
14781W        W15645  19.184  13.889  22.047  0.1730  0.0698 -0.1633
14782W        W15646  16.765  12.610  23.195  0.1410  0.1786 -0.0190
14783W        W15647  18.723  11.132  21.895  0.0791 -0.0355 -0.1758
14784W        W15648  16.198  12.065  26.999 -0.0096  0.1290 -0.1433
14785W        W15649  15.204  13.104  23.106  0.1730 -0.1052  0.1151
14786W        W15650  14.485  12.419  23.489 -0.2281  0.2044 -0.1432
14787W        W15651  15.940  11.470  23.141 -0.1630  0.1012  0.1127
14788W        W15652  13.883   9.258  24.811  0.3203  0.2053 -0.0927
14789W        W15653  19.609  15.270  24.481 -0.2661  0.1929  0.1814
14790W        W15654  19.005  11.467  22.707  0.4130  0.1949 -0.1185
14791W        W15655  17.421  17.031  23.331 -0.1070  0.0985  0.2474
14792W        W15656  15.971  15.878  21.464 -0.0868  0.1036  0.1354
14793W        W15657  13.232   9.608  24.558 -0.0364 -0.0445  0.0344
14794W        W15658  17.092  14.238  23.190 -0.0504 -0.2382 -0.1856
14795W        W15659  15.135  15.959  25.250  0.1925 -0.1872 -0.1330
14796W        W15660  17.516  15.262  19.905 -0.2128  0.0465  0.1240
14797W        W15661  18.728  13.449  26.993 -0.0750  0.2101 -0.0330
14798W        W15662  16.141  11.767  23.902 -0.0025 -0.4510  0.3612
14799W        W15663  17.285  11.347  23.319  0.1087  0.0393  0.0919
14800W        W15664  18.560  12.307  22.792 -0.3515 -0.1517 -0.1470
14801W        W15665  14.801  12.065  24.174 -0.1427  0.0836  0.2034
14802W        W15666  16.573  10.524  22.203  0.0580 -0.2359  0.0102
14803W        W15667  15.761  12.214  23.827 -0.2442 -0.2047  0.1713
14804W        W15668  13.766  11.724  22.390  0.1376 -0.0746 -0.0396
14805W        W15669  17.914  15.007  23.241  0.1797  0.0795  0.1744
14806W        W15670  16.435  10.278  28.032  0.1772  0.4121 -0.3041
14807W        W15671  19.586  11.497  28.068 -0.0433  0.0999  0.2245
14808W        W15672  17.172  11.112  22.807 -0.2345  0.2861  0.2258
14809W        W15673  18.423  11.637  21.328 -0.1547  0.2674 -0.0199
14810W        W15674  14.987  16.150  23.533 -0.1563  0.0019 -0.3152
14811W        W15675  16.496  15.534  24.044  0.0970 -0.0402 -0.0155
14812W        W15676  16.610  16.252  25.708  0.1479  0.0290 -0.1548
14813W        W15677  19.344  16.362  21.857 -0.1886 -0.0997 -0.2275
14814W        W15678  15.051  10.968  26.487  0.0137  0.0904 -0.3411
14815W        W15679  16.886  13.642  24.055  0.0122  0.1432  0.4629
14816W        W15680  16.620  14.360  22.843 -0.0184  0.1021 -0.0060
14817W        W15681  15.323  16.787  26.252 -0.2368  0.1049  0.0306
14818W        W15682  17.685  11.098  22.956 -0.0366 -0.3251  0.0755
14819W        W15683  13.579  12.689  19.011 -0.0624 -0.0027 -0.1613
14820W        W15684  17.475  13.694  22.302  0.1013 -0.0057  0.3488
14821W        W15685  15.995  15.025  22.707  0.2927 -0.2008  0.0359
14822W        W15686  18.203   9.168  29.045  0.0882  0.0930 -0.3222
14823W        W15687  15.010  12.873  24.967  0.0491  0.0512  0.1157
14824W        W15688  17.540  14.684  22.050  0.4128 -0.0170 -0.0184
14825W        W15689  16.453  14.361  24.876 -0.0612  0.2323 -0.3707
14826W        W15690  17.732  12.294  22.505  0.0649  0.0815 -0.0077
14827W        W15691  17.444  13.195  26.531 -0.0607  0.0421  0.0374
14828W        W15692  15.700  14.277  23.208 -0.4982  0.0593  0.0191
14829W        W15693  20.569  16.937  21.060 -0.1534 -0.1914  0.0070
14830W        W15694  16.527  10.047  19.004  0.0843 -0.0242 -0.3546
14831W        W15695  16.122  12.018  26.403 -0.3208  0.0329  0.1203
14832W        W15696  18.142  15.341  21.994 -0.5262  0.3151  0.0626
14833W        W15697  18.624  12.874  24.031 -0.1037  0.1623 -0.1396
14834W        W15698  14.120  12.297  21.804  0.2491 -0.3382 -0.1032
14835W        W15699  12.656  14.993  23.458  0.0081  0.2000  0.1518
14836W        W15700  17.738  12.905  25.110  0.0531 -0.0804  0.1249
14837W        W15701  14.968  14.459  23.837  0.1483  0.1924 -0.3011
14838W        W15702  17.054  16.020  22.158 -0.1267  0.1247 -0.0331
14839W        W15703  14.259   9.713  26.031 -0.1857 -0.0374  0.4467
14840W        W15704  17.597  12.979  24.267  0.2131 -0.4372  0.1488
14841W        W15705  16.126   9.936  24.890  0.0218  0.1763  0.0217
14842W        W15706  17.134  12.305  23.460  0.2116  0.0169  0.0799
14843W        W15707  19.325  10.460  21.357 -0.2250  0.0743 -0.0781
14844W        W15708  14.626  14.602  25.033 -0.4108  0.5068 -0.1426
14845W        W15709  17.550  15.919  21.754  0.0977  0.2022  0.2554
14846W        W15710  15.106  16.304  22.612  0.2240  0.2235 -0.0646
14847W        W15711  17.086   8.715  22.215  0.0868 -0.2641  0.2548
14848W        W15712  15.311  13.761  24.302  0.0639 -0.0576  0.3842
14849W        W15713  18.290  13.304  24.203  0.3240 -0.0028 -0.1562
14850W        W15714  14.423  13.058  26.547  0.1906  0.0513  0.2264
14851W        W15715  13.848  10.997  18.856  0.1198 -0.0251 -0.0948
14852W        W15716  15.985  12.702  23.811  0.0301  0.0348 -0.2065
14853W        W15717  19.354  12.629  23.110 -0.1699 -0.1119 -0.1694
14854W        W15718  15.274  15.090  25.949 -0.2331  0.1107  0.1290
14855W        W15719  16.863  10.989  23.132 -0.0384  0.4407 -0.0690
14856W        W15720  18.405  15.869  23.258 -0.0291 -0.3754  0.1839
14857W        W15721  16.211  13.392  22.921  0.0875 -0.1443 -0.4017
14858W        W15722  17.564  14.131  23.421  0.0092  0.1271  0.3034
14859W        W15723  17.681  17.143  23.870 -0.0159  0.1285 -0.1275
14860W        W15724  16.301  11.054  23.013 -0.2134  0.3589 -0.3862
14861W        W15725  18.429  10.349  21.624  0.2485 -0.0914 -0.0534
14862W        W15726  16.517  11.708  22.520 -0.0350 -0.1898  0.0851
14863W        W15727  18.274  13.742  24.630 -0.0870  0.0442 -0.0092
14864W        W15728  18.332  14.674  22.727  0.2776 -0.0787  0.1359
14865W        W15729  16.839  15.379  25.661  0.0397  0.2224  0.0790
14866W        W15730  17.918  12.513  23.770  0.0356 -0.0442 -0.3704
14867W        W15731  14.004  10.639  27.849 -0.1979 -0.0635 -0.1908
14868W        W15732  15.737  15.435  21.723 -0.0814  0.1969  0.2523
14869W        W15733  17.278  14.235  24.311  0.2160  0.0647 -0.0951
14870W        W15734  17.901  13.364  24.550 -0.1954 -0.1075  0.1742
14871W        W15735  16.680  13.921  27.662 -0.2052 -0.3901 -0.0180
14872W        W15736  15.295  15.549  25.661  0.1114 -0.0313 -0.4079
14873W        W15737  16.607  13.739  22.709  0.3491  0.2094  0.0585
14874W        W15738  14.411  11.797  23.365 -0.0156  0.2956 -0.0118
14875W        W15739  16.783  15.717  25.167 -0.1654 -0.0387  0.0376
14876W        W15740  17.863  16.010  26.215  0.0430 -0.0413 -0.3020
14877W        W15741  18.507  12.050  23.388  0.2168 -0.1680 -0.0526
14878W        W15742  16.370  16.499  20.813 -0.3780  0.0585 -0.1922
14879W        W15743  17.162  12.272  26.729 -0.0734  0.0521 -0.0002
14880W        W15744  15.282  13.491  25.661 -0.1146  0.1624  0.1357
14881W        W15745  19.454  11.191  23.537 -0.1237  0.0038 -0.1707
14882W        W15746  18.506  16.157  25.009 -0.2266 -0.1461  0.1566
14883W        W15747  13.775  11.514  27.048 -0.0126  0.1814  0.1673
14884W        W15748  18.495  14.152  24.306  0.1315 -0.2297  0.2414
14885W        W15749  17.145  16.129  24.237 -0.1663 -0.0006 -0.0985
14886W        W15750  16.108  13.484  26.405 -0.3983 -0.0356  0.3188
14887W        W15751  17.219  10.535  25.751 -0.2572 -0.3491 -0.1354
14888W        W15752  17.124  16.089  23.150 -0.1263 -0.0684 -0.0076
14889W        W15753  16.064  14.645  26.405  0.1989 -0.3464 -0.1265
14890W        W15754  13.484  12.361  22.364  0.0515  0.1226  0.0780
14891W        W15755  15.706  12.345  21.697 -0.3461 -0.1807 -0.1062
14892W        W15756  13.279  15.562  28.659 -0.1723  0.0397 -0.2810
14893W        W15757  17.399  12.943   0.422 -0.1583  0.0826 -0.1403
14894W        W15758  16.866  13.681  27.100 -0.0564 -0.1192 -0.1045
14895W        W15759  18.589  14.614  26.148 -0.1266 -0.0381  0.0838
14896W        W15760  16.816  12.600  25.891  0.4133 -0.2589 -0.0959
14897W        W15761  17.156  11.179  28.561  0.1156  0.1675 -0.1777
14898W        W15762  14.059   9.466  23.192 -0.0939 -0.2296  0.1915
14899W        W15763  16.176  13.765  27.656 -0.3788  0.1648  0.2563
14900W        W15764  17.403  14.858  28.259  0.1924  0.0535  0.2168
14901W        W15765  13.393   9.451  28.160  0.1336 -0.0453 -0.3039
14902W        W15766  15.405  11.386  29.113  0.0985  0.1674 -0.1005
14903W        W15767  18.018  10.818  26.423  0.1662 -0.3608 -0.1678
14904W        W15768  15.454  11.537  24.635 -0.0842  0.0839  0.0308
14905W        W15769  16.421  13.558   0.075 -0.1049 -0.0471 -0.2021
14906W        W15770  13.766  10.241  27.672 -0.1069  0.1061  0.1493
14907W        W15771  14.776  13.616   2.556  0.1668  0.0099  0.0625
14908W        W15772  18.239  13.575  23.026  0.0071  0.3473  0.0209
14909W        W15773  13.915  12.093  27.304 -0.0791 -0.0175  0.1540
14910W        W15774  14.494  12.683   0.024 -0.2306  0.2184  0.0124
14911W        W15775  16.550  11.261  26.888  0.2219 -0.0075  0.4825
14912W        W15776  17.671  13.501   0.032 -0.1324  0.1812 -0.2419
14913W        W15777  14.932  14.580  27.525 -0.3260  0.0169  0.1186
14914W        W15778  16.666  13.705  26.387  0.0763 -0.0213  0.0301
14915W        W15779  13.818  10.855  28.704 -0.0437  0.0491  0.2080
14916W        W15780  14.297  10.822   1.219  0.0952 -0.0979  0.0959
14917W        W15781  15.464  11.909   0.623  0.0806 -0.0569 -0.0645
14918W        W15782  19.939  10.961   0.967  0.1123 -0.0956  0.0828
14919W        W15783  14.492  13.875  27.826  0.2734 -0.2102 -0.1198
14920W        W15784  17.771  13.541   0.951  0.0695 -0.2152 -0.0800
14921W        W15785  15.329  10.023  27.738 -0.1000  0.1902 -0.1639
14922W        W15786  16.828  13.467  27.598 -0.1154 -0.3466 -0.1479
14923W        W15787  17.412  13.893   2.414 -0.1909  0.3810  0.1125
14924W        W15788  14.561  11.618   1.191  0.1064  0.0365  0.2707
14925W        W15789  15.709  12.344  28.983 -0.0114  0.0306  0.1993
14926W        W15790  13.858   9.534   1.388 -0.1486 -0.1051  0.1420
14927W        W15791  14.006  14.732   0.448 -0.3233  0.2766  0.1629
14928W        W15792  15.787  11.874  26.056  0.2480 -0.1023 -0.0183
14929W        W15793  18.118  15.607  27.983 -0.1054  0.0671 -0.0648
14930W        W15794  19.771  14.228  25.587 -0.5028  0.1778 -0.1289
14931W        W15795  19.767  12.211  26.568 -0.0061 -0.1926  0.0229
14932W        W15796  18.176  11.268  24.884 -0.1738 -0.2042 -0.1661
14933W        W15797  18.300  10.779   0.275 -0.0626 -0.2554 -0.1260
14934W        W15798  16.283  15.109  28.477 -0.0030 -0.1414 -0.2253
14935W        W15799  17.958  15.260  26.521 -0.0655  0.0856  0.0285
14936W        W15800  15.541  16.190  26.446 -0.0712 -0.2287 -0.3564
14937W        W15801  18.220  12.659  28.361  0.1820 -0.3549  0.1929
14938W        W15802  14.440  11.372  27.073  0.0245 -0.3324  0.1947
14939W        W15803  19.117  11.305   0.164 -0.0998 -0.8794  0.1202
14940W        W15804  17.867  14.309  26.160  0.2371 -0.0520  0.0446
14941W        W15805  18.523  12.827  22.524  0.1055  0.1383 -0.1424
14942W        W15806  13.529  13.430  26.543 -0.2990 -0.0903 -0.0010
14943W        W15807  15.772  13.988  27.834 -0.1590 -0.1244 -0.1530
14944W        W15808  15.953  14.539   0.777  0.1000  0.1123  0.0998
14945W        W15809  19.084  13.088  23.996 -0.0728  0.0020  0.1990
14946W        W15810  17.453  14.393  27.031 -0.1390 -0.1749 -0.0686
14947W        W15811  15.312  13.578  26.192 -0.0950  0.1520  0.0698
14948W        W15812  15.217   9.083  28.289  0.0792  0.1957 -0.2544
14949W        W15813  17.267  12.949  28.001  0.0507  0.0034  0.1365
14950W        W15814  16.075  14.416  27.648  0.1732  0.5416 -0.2315
14951W        W15815  15.692  15.347  25.344  0.0376 -0.3025  0.0072
14952W        W15816  17.026  15.850  27.563 -0.3988  0.0933 -0.1058
14953W        W15817  12.046  13.456  26.906 -0.1464 -0.0586  0.1561
14954W        W15818  16.036  13.123   1.209 -0.1067 -0.0819 -0.0061
14955W        W15819  17.649  13.661  26.663  0.1311 -0.1738 -0.0529
14956W        W15820  18.658  11.851  28.165 -0.2283 -0.1353  0.1831
14957W        W15821  16.778  12.576  26.503 -0.0397 -0.1038 -0.1411
14958W        W15822  14.907  10.576  24.582  0.0076  0.0967  0.2220
14959W        W15823  13.428  11.916  27.167  0.1590  0.1515 -0.2034
14960W        W15824  13.385  11.809  27.979  0.0750  0.1125 -0.3541
14961W        W15825  17.793  14.780  28.829 -0.2773 -0.0907 -0.0924
14962W        W15826  17.664  13.895  27.920  0.3469 -0.3530 -0.0841
14963W        W15827  17.773  12.289  27.780 -0.0193 -0.1145 -0.0993
14964W        W15828  18.943  15.304  27.893 -0.1018 -0.0400 -0.1916
14965W        W15829  17.917  12.282  28.260 -0.1486 -0.1077  0.2376
14966W        W15830  18.003  13.979  26.545 -0.0581 -0.1651  0.1819
14967W        W15831  18.679  12.180  27.124 -0.0509  0.1478 -0.1632
14968W        W15832  15.110  11.798  28.328  0.0158 -0.0988  0.0737
14969W        W15833  16.486  12.256  26.183 -0.2860  0.1185 -0.2018
14970W        W15834  16.039  13.901  24.923 -0.0507 -0.0050 -0.0703
14971W        W15835  17.361  13.607  25.746 -0.2709 -0.5542  0.0055
14972W        W15836  14.078   9.995   0.814  0.3057 -0.1433  0.4549
14973W        W15837  14.054  11.573   0.102  0.1239  0.1854  0.3489
14974W        W15838  15.283  12.055  27.385  0.0768 -0.1451  0.1212
14975W        W15839  18.754  12.234  29.096  0.0337  0.0810  0.0150
14976W        W15840  13.746  13.373   1.243 -0.1758 -0.0920 -0.0079
14977W        W15841  16.772  12.867  24.759  0.0126  0.3973 -0.0099
14978W        W15842  20.256  15.014  28.354 -0.1052  0.1458 -0.1849
14979W        W15843  15.434   9.875   1.175 -0.1764  0.3003  0.1038
14980W        W15844  17.824  12.862  26.462 -0.1713  0.0322 -0.0719
14981W        W15845  15.627  12.007  28.429 -0.4900  0.2773  0.0832
14982W        W15846  16.952  11.526  25.974 -0.1293  0.0555 -0.0715
14983W        W15847  17.222  12.491   0.066 -0.0892  0.0036  0.2776
14984W        W15848  14.777  13.639  26.976  0.0269 -0.2514 -0.3617
14985W        W15849  16.296  12.760  24.890 -0.0304 -0.0074  0.0457
14986W        W15850  14.864  12.375   1.766  0.1751 -0.0463 -0.1744
14987W        W15851  17.208  13.498  26.183 -0.2081  0.2526 -0.1754
14988W        W15852  18.220  11.469  26.986  0.1633  0.1442 -0.0378
14989W        W15853  18.194  15.610   0.445  0.0440 -0.1682 -0.1461
14990W        W15854  15.888   9.246  26.777  0.1546 -0.2255 -0.1961
14991W        W15855  18.241   9.708  26.837  0.1581  0.1377 -0.0584
14992W        W15856  17.069  14.597  25.651 -0.1066 -0.3839 -0.1060
14993W        W15857  14.227  11.561   0.567 -0.0168  0.0382  0.1027
14994W        W15858  17.099  11.288  24.657 -0.0726  0.1629 -0.1701
14995W        W15859  17.367   9.956  28.554 -0.0093 -0.5400 -0.2189
14996W        W15860  17.621  11.770  26.360 -0.0368 -0.1739 -0.0025
14997W        W15861  16.196  13.203   0.342 -0.0857 -0.1115 -0.3173
14998W        W15862  15.827  14.011  27.321  0.1439  0.1925 -0.1391
14999W        W15863  13.773  11.178  29.087  0.0572  0.1022 -0.1100
15000W        W15864  16.639  11.274  28.517 -0.2694 -0.0782 -0.1287
15001W        W15865  15.196  11.761  27.830  0.2131  0.0819 -0.0900
15002W        W15866  15.440  12.705  28.720  0.1325  0.2796 -0.2579
15003W        W15867  18.463  15.214  26.719  0.4326  0.1530  0.0916
15004W        W15868  16.172  11.013  28.596 -0.0568 -0.0668 -0.0520
15005W        W15869  19.116  16.387  26.800  0.0111 -0.1250  0.1868
15006W        W15870  17.221  14.810  24.872  0.2368 -0.0752 -0.0753
15007W        W15871  17.210  12.913  25.008  0.0666  0.3181  0.0984
15008W        W15872  18.087  11.247   0.291 -0.3239 -0.1697 -0.0275
15009W        W15873  17.519  11.482  28.641 -0.2810 -0.0005 -0.4201
15010W        W15874  16.670  11.932   0.442  0.0708 -0.0463 -0.1869
15011W        W15875  19.293  13.460  26.022  0.0563  0.0542  0.1884
15012W        W15876  17.399  14.750  24.366 -0.1062  0.0112  0.2235
15013W        W15877  15.457  15.037  26.867 -0.0369 -0.1195 -0.2065
15014W        W15878  17.516  12.432  28.835 -0.0272 -0.2248  0.1510
15015W        W15879  17.676  13.913  24.203  0.1859  0.0276 -0.0773
15016W        W15880  17.382  15.592  22.956 -0.0412  0.1537  0.1304
15017W        W15881  19.376  13.041  25.527 -0.2545 -0.0168  0.1454
15018W        W15882  13.018  10.386  25.743 -0.0393 -0.0849 -0.0311
15019W        W15883  18.369   9.824   0.025 -0.0673  0.1702 -0.0783
15020W        W15884  18.209  13.624  26.897 -0.1142 -0.2970 -0.0466
15021W        W15885  15.886  15.470  24.665  0.0704 -0.0341 -0.0101
15022W        W15886  18.416  15.235   0.654  0.0764 -0.0075 -0.1702
15023W        W15887  15.042  10.660  29.086  0.0212 -0.2768 -0.0922
15024W        W15888  16.329  13.055  29.043  0.2226 -0.1564  0.2137
15025W        W15889  17.039  13.852  25.434  0.1208  0.1181  0.1137
15026W        W15890  16.236  11.317  29.080 -0.0950 -0.0845  0.1066
15027W        W15891  11.943  13.646   1.195  0.2749  0.2140 -0.1022
15028W        W15892  15.607  13.691  27.044 -0.1804 -0.1296  0.1059
15029W        W15893  18.754  12.470  27.534  0.1333  0.2395  0.2973
15030W        W15894  15.109  14.384  26.059 -0.0851 -0.1062  0.0795
15031W        W15895  16.366  12.765  26.192  0.1867  0.1576  0.2220
15032W        W15896  18.319  10.150  27.130  0.0214 -0.1036 -0.3036
15033W        W15897  12.498  11.231  25.534 -0.2395  0.1945 -0.1262
15034W        W15898  15.062  14.059  27.115 -0.1206 -0.1257  0.1869
15035W        W15899  18.560  11.375  28.547  0.0467  0.2821  0.0483
15036W        W15900  16.191  14.850  27.528 -0.0554 -0.0159  0.2686
15037W        W15901  14.781  10.360  26.797 -0.2744 -0.0657  0.3998
15038W        W15902  14.165  11.030  26.051 -0.0430  0.0499 -0.1119
15039W        W15903  17.000  17.397  28.132 -0.0270 -0.0737 -0.0225
15040W        W15904  14.909  15.059  27.306  0.0242 -0.2005  0.0867
15041W        W15905  17.550  13.990   0.803 -0.1530  0.0669 -0.0447
15042W        W15906  16.295  14.677  28.005 -0.0337 -0.0344 -0.0564
15043W        W15907  13.027  11.151  26.856 -0.0051 -0.1707  0.1676
15044W        W15908  16.856  16.358  28.185 -0.2246  0.0801  0.1321
15045W        W15909  17.201  10.524  26.261  0.0070  0.3099 -0.2408
15046W        W15910  18.166  12.260  27.486 -0.1410  0.1351 -0.0696
15047W        W15911  19.249  10.226  28.088 -0.1019 -0.0311 -0.0097
15048W        W15912  14.848  12.377   0.833  0.1099 -0.0658 -0.1378
15049W        W15913  15.365  12.316  22.756 -0.3240  0.1026 -0.1365
15050W        W15914  16.360   9.258  27.345 -0.3509  0.0172 -0.0115
15051W        W15915  15.785  10.589   0.497  0.3424 -0.1159 -0.1344
15052W        W15916  17.232   9.576   0.895 -0.0537 -0.0491  0.0260
15053W        W15917  17.283  14.542  28.683  0.0641 -0.0190  0.1954
15054W        W15918  16.391  11.718   1.199 -0.3229  0.1750  0.0799
15055W        W15919  18.808  14.066  27.721  0.3106  0.0597  0.1896
15056W        W15920  18.044  10.322   1.152  0.0347 -0.3987 -0.3347
15057W        W15921  14.871  11.206  29.137  0.0029 -0.1230 -0.0953
15058W        W15922  16.316  11.399  25.443 -0.0795 -0.1283 -0.1008
15059W        W15923  15.280  14.295  27.951 -0.1246  0.2333 -0.2616
15060W        W15924  15.817  13.639   1.064  0.2237  0.0154  0.1425
15061W        W15925  15.441  14.298  27.465  0.0792  0.0861  0.0898
15062W        W15926  15.592  11.593  28.138 -0.1151  0.1494  0.0542
15063W        W15927  15.069  11.586   0.297 -0.3215  0.2880  0.1087
15064W        W15928  18.782  12.932  27.607 -0.3057 -0.0622 -0.1986
15065W        W15929  17.903  13.008  27.315  0.0316 -0.0079  0.3538
15066W        W15930  18.004  10.604  27.544 -0.1399 -0.2150 -0.4468
15067W        W15931  18.868  12.220  24.631 -0.0188  0.3411  0.0801
15068W        W15932  13.794  11.708   1.514  0.1338  0.0919  0.0566
15069W        W15933  14.753  11.505   0.695 -0.1388 -0.0002  0.1600
15070W        W15934  14.775  14.727  25.889  0.0651  0.3163 -0.0125
15071W        W15935  16.395  11.697  28.600  0.1873 -0.3371 -0.1674
15072W        W15936  15.425  15.238  24.677  0.2270  0.0969  0.0724
15073W        W15937  19.467  14.745  24.793 -0.2676 -0.2451 -0.2181
15074W        W15938  17.842  13.950  27.017 -0.1321  0.0276 -0.0638
15075W        W15939  15.264  11.241  27.732  0.0269  0.1035 -0.0548
15076W        W15940  16.375  14.972  24.022  0.0209  0.0045 -0.1307
15077W        W15941  18.142  13.702  27.873  0.3353 -0.0882 -0.2235
15078W        W15942  17.269  10.288  24.415 -0.0811 -0.0464  0.2581
15079W        W15943  14.599  12.642  26.669 -0.0231  0.3695  0.1168
15080W        W15944  17.221  13.764  27.584 -0.0458  0.1647 -0.0715
15081W        W15945  15.426  14.900  27.312 -0.0437  0.2433 -0.1757
15082W        W15946  15.021  12.588  26.853 -0.1773  0.0189  0.5535
15083W        W15947  14.246  12.877  27.069 -0.0314  0.2519 -0.1800
15084W        W15948  17.023  13.912  28.067 -0.1398  0.1036  0.0232
15085W        W15949  17.157  10.118   0.973  0.3342 -0.2921 -0.1195
15086W        W15950  16.527   9.424   1.977 -0.1986 -0.1479 -0.0152
15087W        W15951  14.849  10.323  28.716 -0.0634 -0.1026  0.1080
15088W        W15952  16.674  10.048  27.608 -0.1391  0.0522  0.0800
15089W        W15953  15.788  12.843  29.106  0.2115 -0.1807  0.1649
15090W        W15954  12.201  12.251  27.850  0.2615 -0.0656  0.0379
15091W        W15955  19.641  11.257   0.056  0.0005 -0.0660  0.3613
15092W        W15956  15.489  11.308  26.858 -0.2417  0.0181  0.2578
15093W        W15957  17.429  11.892  26.849  0.3937 -0.1440 -0.3294
15094W        W15958  14.773  13.036  25.789  0.1362 -0.3372 -0.0102
15095W        W15959  14.659  12.867   0.886 -0.0039  0.1100 -0.0233
15096W        W15960  13.323  11.991  29.038 -0.2639  0.1904  0.1301
15097W        W15961  17.144  10.867  24.223 -0.0797 -0.0014  0.1824
15098W        W15962  13.680  13.743   0.465  0.1260 -0.5175  0.0372
15099W        W15963  18.612  12.698  28.010  0.0059  0.0316  0.0954
15100W        W15964  17.838  14.418  26.743  0.2367 -0.0172 -0.3159
15101W        W15965  14.732  13.998  26.437 -0.4717 -0.1045  0.0388
15102W        W15966  15.820  16.005   1.883 -0.1421 -0.3033  0.2634
15103W        W15967  15.819  10.135   2.502  0.1737 -0.0500  0.3302
15104W        W15968  18.194  11.821  28.437 -0.1680 -0.1566 -0.2198
15105W        W15969  16.362  10.792  26.829  0.1774  0.3675  0.1658
15106W        W15970  17.818  13.284   0.524  0.1884 -0.3071  0.0914
15107W        W15971  17.137  13.670  26.685  0.3435  0.3838 -0.1086
15108W        W15972  15.635  13.571  25.279  0.0183  0.1147  0.1719
15109W        W15973  18.730  15.759  25.318 -0.4559 -0.1961 -0.0966
15110W        W15974  16.548  12.880   0.439  0.0145 -0.0839  0.0907
15111W        W15975  17.087  11.895   1.782 -0.0634 -0.0714 -0.0533
15112W        W15976  18.422  11.654  26.307  0.0712 -0.1091 -0.2099
15113W        W15977  17.759  12.801  28.043 -0.0236 -0.3640 -0.3008
15114W        W15978  15.987  12.368  28.031 -0.2475 -0.1537  0.0488
15115W        W15979  16.105  10.074   1.877 -0.0191 -0.1125 -0.2600
15116W        W15980  16.803  14.642  27.101 -0.0584 -0.0841 -0.1244
15117W        W15981  13.987  11.957   0.536  0.1794  0.2773  0.2526
15118W        W15982  16.389  14.190  27.976  0.1522 -0.1509 -0.0239
15119W        W15983  20.042  12.642  29.143  0.2561  0.2680 -0.1099
15120W        W15984  16.390  13.447  26.840  0.0116  0.0185 -0.0805
15121W        W15985  17.030  15.118  25.297  0.0253 -0.0453  0.0103
15122W        W15986  15.136   8.612   2.599  0.2144  0.2569 -0.0234
15123W        W15987  15.721  13.667   2.114 -0.0384  0.2434  0.1098
15124W        W15988  15.719  15.437  26.608  0.0498  0.0562 -0.0820
15125W        W15989  19.142  11.327  27.268 -0.2076 -0.0428 -0.1577
15126W        W15990  13.726  13.250   0.762  0.1351  0.1922  0.1301
15127W        W15991  13.588  14.181  27.725  0.3083  0.2658  0.0628
15128W        W15992  20.721  10.775   1.407  0.1771 -0.1663  0.2365
15129W        W15993  14.778  12.508   1.295  0.0653 -0.0984  0.2356
15130W        W15994  15.964  11.499  28.508 -0.4143  0.0624  0.1878
15131W        W15995  17.299  11.883  25.868  0.1994 -0.0506  0.2426
15132W        W15996  16.025  14.275  26.024  0.0237  0.5018  0.1822
15133W        W15997  12.860  14.528   2.318 -0.1661  0.0060  0.2685
15134W        W15998  17.671   9.725  26.616 -0.3459 -0.2653 -0.0526
15135W        W15999  16.269  12.509  26.629 -0.1115  0.0319  0.2405
15136W        W16000  14.808  11.429  27.959  0.1165  0.3551  0.2027
15137W        W16001  14.395  11.907  27.136 -0.1018  0.2871 -0.0885
15138W        W16002  17.035  10.912  27.527 -0.2059 -0.2536 -0.0807
15139W        W16003  15.336  13.749  28.034 -0.0831 -0.0002  0.0958
15140W        W16004  17.256  18.651  26.782 -0.0771 -0.0413 -0.2745
15141W        W16005  16.899  10.462  27.395  0.0702 -0.0561 -0.0404
15142W        W16006  14.820  13.606  27.505 -0.1531 -0.1757  0.1152
15143W        W16007  17.254  16.134   0.389 -0.1133  0.0371  0.0967
15144W        W16008  16.889  15.358   0.712  0.0514  0.0514  0.2640
15145W        W16009  17.744  13.519  28.689  0.0095  0.0503 -0.1863
15146W        W16010  15.417  11.586  27.311  0.3968 -0.0264  0.1778
15147W        W16011  19.301  13.460  25.201  0.2256  0.1761  0.1121
15148W        W16012  19.385  11.781  26.016  0.1123  0.2319  0.0757
15149W        W16013  16.342  12.256   1.143  0.2025 -0.1323  0.0971
15150W        W16014  15.400  13.808  27.512 -0.1534  0.0722 -0.1424
15151W        W16015  16.986  11.851  24.204  0.1118  0.0815  0.3264
15152W        W16016  14.917  11.879  26.402 -0.1225 -0.2778 -0.1965
15153W        W16017  15.707  13.098   1.544 -0.0812 -0.4091 -0.1720
15154W        W16018  15.467  12.882  26.671 -0.1743 -0.1027  0.1781
15155W        W16019  16.723  10.066  28.941 -0.0474  0.0144 -0.2318
15156W        W16020  16.436  14.307  26.486 -0.3132  0.1278  0.1398
15157W        W16021  14.888  14.284  28.569  0.0185 -0.1637 -0.2333
15158W        W16022  14.921  13.093  26.923  0.3196 -0.0084  0.0362
15159W        W16023  16.475  12.088  27.556  0.0146  0.0548 -0.1475
15160W        W16024  15.812  11.072  28.952  0.1759 -0.0794 -0.1616
15161W        W16025  19.962  10.496  28.626 -0.1199  0.1111  0.0021
15162W        W16026  16.721  13.140  27.976 -0.0303  0.2223 -0.0107
15163W        W16027  16.906  11.856   0.928 -0.3463  0.0109 -0.1688
15164W        W16028  15.946  10.665  27.247 -0.2267 -0.3686  0.0773
15165W        W16029  14.437  11.729  26.660 -0.1652 -0.1202 -0.0236
15166W        W16030  19.564  15.320  27.905 -0.1604  0.5002 -0.0946
15167W        W16031  17.893  11.323  27.339  0.0554  0.2764  0.0033
15168W        W16032  12.818  10.746  28.408 -0.3614 -0.1625  0.1278
15169W        W16033  15.639  10.842  26.815 -0.2555 -0.2629  0.0338
15170W        W16034  17.183  13.453  23.544 -0.3515 -0.3069  0.0904
15171W        W16035  15.453  13.130   0.151 -0.3641 -0.2512 -0.3490
15172W        W16036  15.765  10.154   0.793 -0.0284  0.3594  0.2224
15173W        W16037  16.293  10.436  26.391  0.3595 -0.1497 -0.0995
15174W        W16038  15.499  12.661   0.635 -0.0837 -0.2434 -0.0720
15175W        W16039  12.578  13.397  27.086  0.0380 -0.0634 -0.1357
15176W        W16040  16.061  15.067  25.570  0.0304  0.2565  0.0557
15177W        W16041  17.150  11.740   1.317 -0.2206 -0.1037 -0.0260
15178W        W16042  18.073  14.785  27.728  0.2375  0.5582  0.1272
15179W        W16043  15.578  10.376  27.469 -0.1798  0.0873 -0.0210
15180W        W16044  18.177  12.415  26.114 -0.1591  0.1808 -0.1240
15181W        W16045  15.596  12.892  24.192  0.2520 -0.0157  0.0342
15182W        W16046  16.419  12.034  24.235 -0.0991 -0.0429 -0.1513
15183W        W16047  16.271   9.834  25.507 -0.1275  0.0249 -0.0127
15184W        W16048  14.881  12.552  28.717 -0.2703  0.0798  0.0508
15185W        W16049  14.163  10.388  27.430  0.1315 -0.1236  0.1053
15186W        W16050  14.588  11.145  28.339 -0.2140  0.0466 -0.0455
15187W        W16051  18.819  13.613  25.244  0.2411 -0.3032 -0.0911
15188W        W16052  17.740  11.753  28.286  0.1305  0.1004  0.2641
15189W        W16053  16.923  12.595  28.156 -0.3050  0.1510  0.0501
15190W        W16054  17.954  12.871  24.660 -0.0596 -0.1815 -0.0009
15191W        W16055  15.035  12.656  27.348 -0.0838  0.2766 -0.2336
15192W        W16056  15.485  12.429  28.302 -0.1699  0.3415  0.3733
15193W        W16057  16.292  12.915   3.003  0.1535 -0.3334  0.1949
15194W        W16058  16.764  13.829   1.241  0.1129 -0.1276  0.1049
15195W        W16059  19.244  13.215  27.281 -0.0479  0.2533 -0.2246
15196W        W16060  18.789  13.770  25.911  0.0317 -0.1598 -0.1629
15197W        W16061  16.822  11.975  28.441  0.4385  0.0018 -0.1492
15198W        W16062  16.140  12.196  28.488  0.0531  0.1223 -0.0177
15199W        W16063  14.942  11.480  26.065 -0.1006  0.1501 -0.0474
15200W        W16064  18.071  11.478   1.681 -0.0044  0.0534  0.1419
15201W        W16065  15.889  13.551   0.133  0.0268  0.0639 -0.2392
15202W        W16066  16.284  11.929  25.920  0.0693 -0.1263 -0.0113
15203W        W16067  15.484  15.568  27.067 -0.2065 -0.2643  0.0342
15204W        W16068  15.700  12.013  27.097 -0.2417 -0.1345  0.2273
15205W        W16069  16.077  14.887   2.821  0.2292  0.0995 -0.2731
15206W        W16070  15.384  13.249  28.789 -0.1026  0.0853  0.4020
15207W        W16071  14.852  13.785   0.045 -0.0908 -0.0480 -0.0917
15208W        W16072  17.316   9.434  26.420  0.0479  0.3121  0.1239
15209W        W16073  17.111  12.383  27.520  0.2862 -0.0000 -0.1122
15210W        W16074  15.797  15.242  27.277 -0.2234 -0.3476  0.1423
15211W        W16075  16.031  12.433  26.069 -0.2893  0.1696  0.0238
15212W        W16076  14.490  14.634   0.276 -0.0049  0.0532  0.0701
15213W        W16077  16.247  14.481  23.326  0.3021 -0.1658  0.1090
15214W        W16078  15.277  11.245  28.225  0.0936 -0.1443 -0.0343
15215W        W16079  15.747  15.222  27.793  0.3148  0.1722 -0.2194
15216W        W16080  14.770  13.066  27.370 -0.0338 -0.0131 -0.0661
15217W        W16081  16.238  12.548  28.957  0.0397 -0.2277  0.1795
15218W        W16082  15.761  11.540  27.688 -0.2373 -0.2751 -0.1561
15219W        W16083  14.148  16.534  25.888 -0.0436 -0.0272  0.2988
15220W        W16084  14.794  12.283  22.717 -0.0384 -0.2114 -0.0735
15221W        W16085  15.289  12.142  28.702 -0.2237  0.1967  0.1123
15222W        W16086  16.972  13.037   0.185 -0.1154 -0.0933  0.0270
15223W        W16087  16.532  11.626  24.727 -0.3750  0.4908 -0.2959
15224W        W16088  17.427  11.573   0.922 -0.1571  0.0407  0.0687
15225W        W16089  17.868  14.531  27.303 -0.1440  0.1516 -0.3501
15226W        W16090  17.675  12.137   0.037 -0.2247  0.0573  0.1331
15227W        W16091  17.023  12.390  28.688  0.0030 -0.2420  0.0984
15228W        W16092  15.222  15.306  26.455  0.1321  0.1001 -0.1184
15229W        W16093  16.751  10.639  26.089 -0.0086 -0.3240 -0.0511
15230W        W16094  16.701  11.621  28.070 -0.1188  0.1364 -0.0100
15231W        W16095  16.509  13.971  26.836 -0.1257 -0.3424 -0.0634
15232W        W16096  14.112  15.637  27.567 -0.0027  0.1876  0.1142
15233W        W16097  15.537  11.884   1.180  0.0202  0.3009  0.2770
15234W        W16098  16.702   9.605  28.830  0.0240 -0.0877  0.3072
15235W        W16099  14.163  12.406  25.364 -0.0913  0.0176  0.0532
15236W        W16100  16.855  10.832  26.574  0.0500  0.0943  0.1054
15237W        W16101  14.970  13.350   0.314 -0.0187  0.0868 -0.0075
15238W        W16102  14.414  15.265  27.438 -0.3951  0.0396  0.1485
15239W        W16103  14.056  11.283  28.317  0.1670 -0.0657 -0.1292
15240W        W16104  17.933  13.577  25.389 -0.0771 -0.2195  0.0143
15241W        W16105  15.177  12.888  25.583  0.3620  0.3833  0.0117
15242W        W16106  18.343  11.543  29.040 -0.2779 -0.1169  0.0589
15243W        W16107  15.182  12.298  27.883  0.0309 -0.0895  0.3532
15244W        W16108  16.532  12.556  28.433 -0.1175 -0.6331  0.0598
15245W        W16109  14.800  12.502   0.363  0.1895  0.1590  0.3352
15246W        W16110  15.053  13.893  25.927  0.0674 -0.1487 -0.0388
15247W        W16111  16.052  13.587  23.836  0.2999  0.2503  0.2395
15248W        W16112  12.334  14.312  25.721  0.3968  0.0340  0.0712
15249W        W16113  18.335  11.496  27.964  0.0362  0.0599 -0.1876
15250W        W16114  18.517  11.929   1.384  0.3512  0.0409 -0.0633
15251W        W16115  14.521  12.838  28.358  0.2694  0.0882  0.0226
15252W        W16116  16.416  10.856  25.103 -0.0791  0.2583 -0.2203
15253W        W16117  15.875  13.210  28.735  0.0841 -0.1885  0.0936
15254W        W16118  14.394  10.399  26.390  0.0624 -0.2008  0.2110
15255W        W16119  17.291  13.297  23.993 -0.2237 -0.0095  0.0320
15256W        W16120  14.121  11.988  25.640 -0.0341 -0.4199 -0.0200
15257W        W16121  16.031  11.797  28.039 -0.0371 -0.0358  0.3485
15258W        W16122  17.026  16.451  25.832 -0.2022  0.1766  0.0493
15259W        W16123  15.930  16.483  28.067  0.1107 -0.0875 -0.2374
15260W        W16124  19.162  12.168  27.534  0.2333  0.0765 -0.2240
15261W        W16125  16.511  14.075  26.007  0.2649  0.2364 -0.0043
15262W        W16126  16.032  13.790  26.941  0.0827 -0.0037  0.5140
15263W        W16127  16.670  10.627  25.613 -0.2222  0.0385  0.2377
15264W        W16128  17.612  13.230  26.057 -0.3941 -0.2604  0.0849
15265W        W16129  18.269  14.405  26.955  0.1558  0.3500  0.2442
15266W        W16130  16.008  13.777  28.828 -0.1040 -0.2521  0.0428
15267W        W16131  14.154  12.590   1.141 -0.1277 -0.0038 -0.2745
15268W        W16132  16.822  10.872   0.845  0.0389  0.1051 -0.3167
15269W        W16133  16.162  12.567   0.306 -0.0032 -0.1787  0.2095
15270W        W16134  18.705  11.140  28.062 -0.1380  0.4254 -0.0642
15271W        W16135  15.042  12.071   1.367 -0.0776 -0.1418 -0.1087
15272W        W16136  18.637  11.075  29.006 -0.0669  0.2086 -0.0406
15273W        W16137  18.438  12.675  28.938  0.1458 -0.2795 -0.1622
15274W        W16138  16.681  12.696  28.925  0.0876  0.1277  0.2033
15275W        W16139  18.315  12.556  26.572 -0.0038 -0.1097  0.1101
15276W        W16140  16.131  17.010   1.090 -0.2624  0.0403 -0.0331
15277W        W16141  20.725   9.872  27.228  0.0484 -0.2440  0.1590
15278W        W16142  15.479  16.034  25.728  0.0871 -0.4842 -0.1295
15279W        W16143  14.504  14.148   1.730  0.1703  0.0755 -0.3663
15280W        W16144  14.226  14.326  26.499 -0.0526  0.0286 -0.1523
15281W        W16145  19.622  11.414  27.501 -0.0360  0.1139 -0.2073
15282W        W16146  16.869  14.154   2.679  0.3281  0.1315  0.2150
15283W        W16147  15.794  11.119  27.997 -0.4253  0.0063  0.2796
15284W        W16148  15.971  12.009  27.562 -0.0493 -0.0280 -0.0777
15285W        W16149  16.764  13.770  28.872  0.0056 -0.1382 -0.0641
15286W        W16150  18.019  11.911  27.915  0.0275  0.1420  0.0373
15287W        W16151  16.398  13.431   1.003  0.0443 -0.1755  0.3359
15288W        W16152  17.192  12.966  26.106  0.2216  0.3630  0.0534
15289W        W16153  17.839  12.615   2.388 -0.1895  0.2039  0.0740
15290W        W16154  15.523  17.352  27.071 -0.1795 -0.0183  0.0225
15291W        W16155  14.065  12.690  26.396 -0.0046 -0.2406 -0.3480
15292W        W16156  17.123  18.320   1.985  0.0344  0.1854  0.0346
15293W        W16157  17.729  18.738   3.219  0.0246 -0.1477  0.3292
15294W        W16158  16.897  14.317   1.940 -0.0588 -0.0660  0.1176
15295W        W16159  21.095  15.874   1.192 -0.1046 -0.0810 -0.0923
15296W        W16160  16.349  19.482  29.041 -0.1219 -0.0381  0.1948
15297W        W16161  13.407  17.392  28.157  0.2595  0.0624 -0.0200
15298W        W16162  15.769  14.670   4.169  0.1300 -0.0547  0.0718
15299W        W16163  16.510  17.651   0.494  0.1049  0.0313  0.1877
15300W        W16164  19.010  19.433   5.402 -0.2345 -0.0683  0.4604
15301W        W16165  15.374  15.690   3.219  0.1660 -0.2713  0.0394
15302W        W16166  15.317  14.235   1.460  0.2504 -0.3880  0.1576
15303W        W16167  15.758  14.361   2.454  0.0785 -0.1140 -0.3210
15304W        W16168  18.776  14.325  28.876  0.1465  0.0391  0.0654
15305W        W16169  19.438  15.361   0.286  0.1036 -0.1732  0.0109
15306W        W16170  17.448  14.556   1.817 -0.1277  0.1920  0.0250
15307W        W16171  16.386  14.234   3.137 -0.2892 -0.1052  0.1045
15308W        W16172  13.505  17.059  27.814  0.4743 -0.1198 -0.2718
15309W        W16173  16.344  16.215   2.426 -0.1873 -0.1690  0.1519
15310W        W16174  16.301  18.091   4.056  0.0716  0.0716 -0.1315
15311W        W16175  20.408  13.494   3.412  0.0108 -0.0535 -0.1095
15312W        W16176  18.170  15.652   1.370  0.2523  0.2213 -0.0925
15313W        W16177  15.939  15.975   2.394  0.1414  0.0340 -0.2118
15314W        W16178  18.809  14.615   3.250  0.3123 -0.0151  0.1121
15315W        W16179  14.788  15.623   4.277  0.0912 -0.0745 -0.3104
15316W        W16180  15.207  17.174   4.754 -0.0897  0.1252 -0.4873
15317W        W16181  16.025  15.724   2.843  0.0883 -0.1002  0.2045
15318W        W16182  20.223  17.222   3.461  0.0925  0.2657  0.0989
15319W        W16183  15.872  16.683   0.249  0.2627 -0.1196  0.1660
15320W        W16184  18.120  17.874   2.816  0.1538 -0.0700  0.2783
15321W        W16185  15.353  15.968   2.472 -0.3207  0.1429 -0.3744
15322W        W16186  15.411  15.241   1.879  0.1525  0.1799  0.1013
15323W        W16187  16.796  16.069   2.292 -0.0504  0.3403 -0.0185
15324W        W16188  17.576  15.236   3.207 -0.0360 -0.0080  0.0029
15325W        W16189  17.720  16.139   3.856  0.0184 -0.2868  0.1637
15326W        W16190  14.890  15.182   4.041 -0.1452 -0.0083 -0.0100
15327W        W16191  18.068  16.977   1.550  0.3120  0.1732  0.1982
15328W        W16192  15.181  14.159  28.944 -0.0935  0.2461  0.0704
15329W        W16193  17.849  17.251   2.349  0.0209  0.0854 -0.2442
15330W        W16194  19.375  18.703   0.514 -0.2371 -0.0269  0.1175
15331W        W16195  19.648  16.312   0.593 -0.1594  0.0629 -0.0094
15332W        W16196  17.767  15.932   0.067  0.1384  0.3611  0.0673
15333W        W16197  19.975  15.175   1.934  0.1336 -0.2378 -0.1479
15334W        W16198  17.089  15.764   1.487  0.0778 -0.2022 -0.3612
15335W        W16199  18.851  17.894  29.029 -0.0673  0.1597 -0.2546
15336W        W16200  14.387  20.226  28.799  0.1058 -0.0172  0.2172
15337W        W16201  15.918  19.605   1.760  0.3216  0.0150 -0.0937
15338W        W16202  17.681  13.963   3.749 -0.0659  0.1764 -0.1271
15339W        W16203  18.861  15.547   1.534  0.0629  0.0924  0.1747
15340W        W16204  17.389  14.836   2.249  0.2449 -0.0905  0.0100
15341W        W16205  17.530  14.750   1.319  0.0285 -0.0329  0.0883
15342W        W16206  16.030  17.796   5.011 -0.3528  0.1356 -0.0045
15343W        W16207  16.113  16.492   1.254 -0.0643  0.1016  0.3816
15344W        W16208  17.332  17.285   3.809 -0.0879 -0.1589  0.0199
15345W        W16209  17.986  17.458  28.286  0.0209 -0.0703 -0.0341
15346W        W16210  19.067  14.403   2.383 -0.4099 -0.0239 -0.0168
15347W        W16211  14.681  20.257   1.132 -0.1759 -0.2491  0.4000
15348W        W16212  12.692  15.783   0.814 -0.0385 -0.1561  0.0674
15349W        W16213  19.094  15.470   2.142 -0.1156  0.3254 -0.0927
15350W        W16214  15.440  16.737   2.857 -0.3613 -0.1332 -0.2322
15351W        W16215  16.932  17.052   1.021  0.0247  0.1669 -0.1426
15352W        W16216  17.133  16.885   1.843  0.1880  0.3425 -0.0341
15353W        W16217  12.781  15.430   2.939 -0.0767 -0.2173 -0.0662
15354W        W16218  16.325  17.042   2.987  0.0125  0.0709 -0.2089
15355W        W16219  18.611  15.959   2.795  0.3338 -0.0027  0.2644
15356W        W16220  15.983  15.090   1.949 -0.0408 -0.1471 -0.1938
15357W        W16221  17.083  13.099   1.842 -0.2692  0.1145  0.0425
15358W        W16222  14.813  17.488   1.121 -0.1863  0.1261 -0.1201
15359W        W16223  15.818  14.575   1.360  0.2055  0.1137 -0.0469
15360W        W16224  14.009  16.885   1.991 -0.1574  0.1120 -0.2176
15361W        W16225  16.484  15.572   3.129 -0.0913  0.2360 -0.4063
15362W        W16226  19.127  17.953   2.097 -0.2904  0.0912  0.0520
15363W        W16227  15.528  14.159   1.902  0.0957  0.0974 -0.0372
15364W        W16228  19.040  17.745  28.514  0.0394 -0.0971  0.2215
15365W        W16229  19.529  16.573   3.258 -0.0483  0.1207  0.2823
15366W        W16230  18.450  16.869   0.233  0.0713 -0.0899 -0.0099
15367W        W16231  17.065  16.340   5.699  0.0969 -0.0419 -0.2458
15368W        W16232  13.857  14.143   0.880  0.3827  0.1004 -0.0906
15369W        W16233  16.323  15.441   2.558  0.0414 -0.0492  0.2899
15370W        W16234  17.518  17.930  27.355  0.1459 -0.0308 -0.4526
15371W        W16235  18.098  14.372   1.986  0.1843 -0.0597 -0.1915
15372W        W16236  16.281  14.362   3.645  0.1135 -0.2138 -0.1276
15373W        W16237  17.042  17.304   3.440 -0.0217  0.3222  0.1899
15374W        W16238  15.683  13.003   3.521 -0.0839  0.1233 -0.1226
15375W        W16239  17.272  13.806   3.407 -0.0266 -0.2013 -0.0603
15376W        W16240  15.903  15.475   4.263  0.4745  0.2765  0.0211
15377W        W16241  17.471  16.550   1.873 -0.2884 -0.1403 -0.0896
15378W        W16242  16.371  17.229   4.079  0.0541  0.2543  0.0505
15379W        W16243  18.756  16.309   1.886 -0.2061  0.1020 -0.0026
15380W        W16244  18.570  16.232   4.224 -0.0228 -0.3007  0.0468
15381W        W16245  18.310  14.421   2.476  0.3132  0.0009  0.0055
15382W        W16246  17.623  16.997   1.791  0.0475 -0.0473 -0.0379
15383W        W16247  19.811  14.795   3.516 -0.0240  0.1275  0.2153
15384W        W16248  15.616  17.800   2.088 -0.0690  0.1242  0.0907
15385W        W16249  14.887  12.725   2.943 -0.1925  0.2999 -0.0983
15386W        W16250  17.980  12.745   3.799 -0.2467 -0.3969 -0.1910
15387W        W16251  18.968  15.209   0.806  0.0486 -0.0586 -0.0784
15388W        W16252  18.364  14.969  28.082  0.3108  0.4238 -0.1714
15389W        W16253  13.875  16.358   3.420 -0.0470 -0.1892  0.0160
15390W        W16254  16.208  15.023   1.470 -0.0275  0.2505  0.0878
15391W        W16255  17.807  16.148   2.716 -0.1489  0.1693  0.3031
15392W        W16256  18.555  18.781  27.680  0.0982  0.1209  0.1514
15393W        W16257  16.764  15.792   4.459 -0.2252 -0.1228  0.1589
15394W        W16258  16.149  12.994  27.185  0.4798  0.0595 -0.2532
15395W        W16259  18.225  17.333   1.175  0.2415  0.3232 -0.0669
15396W        W16260  19.001  12.557   3.521 -0.0657 -0.3996 -0.0972
15397W        W16261  16.526  16.055   4.014 -0.2415  0.1215  0.0506
15398W        W16262  19.476  18.706   2.380  0.0390 -0.4101  0.2663
15399W        W16263  16.998  16.160   4.273  0.0392  0.4991 -0.1925
15400W        W16264  18.300  14.526   2.953  0.1702 -0.1013 -0.1267
15401W        W16265  17.141  14.925   2.672 -0.0282 -0.1644 -0.0648
15402W        W16266  16.828  18.570   0.975 -0.2137 -0.1940 -0.3241
15403W        W16267  16.788  16.820   1.489 -0.0072 -0.3293 -0.0291
15404W        W16268  19.152  12.425   4.089 -0.2698 -0.2809 -0.0836
15405W        W16269  19.835  19.124   2.107  0.1369 -0.3085  0.1064
15406W        W16270  17.136  19.227  26.913 -0.0424  0.1798 -0.0108
15407W        W16271  14.975  16.525   1.169  0.0443 -0.0518  0.0691
15408W        W16272  18.181  14.873   6.027  0.1567 -0.1498 -0.0929
15409W        W16273  20.330  16.518   3.064 -0.1229 -0.2683  0.2284
15410W        W16274  18.193  15.887   2.459 -0.2510  0.0881  0.1238
15411W        W16275  15.453  16.233   1.198  0.0156 -0.0399 -0.3306
15412W        W16276  18.647  15.534   2.386 -0.2010  0.2764 -0.2324
15413W        W16277  17.444  19.495   3.606 -0.1034 -0.0405  0.1920
15414W        W16278  18.104  17.196   4.515  0.2242  0.2378  0.1785
15415W        W16279  16.082  17.749   1.754  0.3740 -0.0943 -0.1746
15416W        W16280  15.628  15.795   0.251 -0.0429  0.2904  0.0107
15417W        W16281  15.740  14.884  29.115  0.0121 -0.3981 -0.0060
15418W        W16282  18.998  16.821   2.580  0.0570  0.1723  0.0321
15419W        W16283  19.276  15.977   2.107  0.1502 -0.2070  0.0757
15420W        W16284  19.608  17.984  28.609  0.2357  0.0571  0.0789
15421W        W16285  15.542  17.460  27.544 -0.0758  0.1005  0.1161
15422W        W16286  19.190  16.383   2.842 -0.2715  0.0733 -0.1243
15423W        W16287  17.822  13.190   2.712  0.2508  0.0906  0.1617
15424W        W16288  17.667  16.572   1.349  0.1067 -0.2066  0.1061
15425W        W16289  16.647  13.345   2.023  0.0228 -0.0771 -0.1659
15426W        W16290  19.039  15.481   5.165 -0.2397 -0.0237  0.0564
15427W        W16291  17.734  15.184   2.318 -0.4229  0.1419 -0.1023
15428W        W16292  18.065  17.789   0.980  0.2340 -0.0637  0.1812
15429W        W16293  19.460  17.123   3.218  0.3188  0.1038  0.0713
15430W        W16294  14.828  18.150  28.083  0.1683 -0.5759  0.0904
15431W        W16295  16.701  17.069   1.994 -0.0215  0.0660 -0.1241
15432W        W16296  14.875  14.316   3.022 -0.0037 -0.1958  0.0283
15433W        W16297  19.421  14.559   4.828  0.0907 -0.1488 -0.0445
15434W        W16298  16.888  16.633   0.125  0.1876  0.0028 -0.2189
15435W        W16299  16.782  15.974   1.779  0.2325  0.0598  0.1762
15436W        W16300  17.525  18.568   2.768 -0.3007  0.2598  0.1873
15437W        W16301  15.194  15.295   2.346  0.0220 -0.1010  0.3142
15438W        W16302  16.051  13.221  28.207  0.0698  0.1597  0.1352
15439W        W16303  17.091  18.912   3.819  0.2548  0.1023  0.1165
15440W        W16304  18.154  17.660   2.353  0.0736  0.2725  0.0995
15441W        W16305  14.943  13.440  28.875 -0.0052 -0.2027  0.0346
15442W        W16306  20.448  12.804  27.766 -0.0891 -0.3029  0.1350
15443W        W16307  17.395  13.756   1.253  0.0185 -0.0286 -0.0896
15444W        W16308  16.452  16.224   1.532  0.2086  0.3047  0.1119
15445W        W16309  15.626  16.094  27.956  0.0107  0.0389  0.0449
15446W        W16310  15.610  15.571   5.602 -0.2681  0.3625  0.1960
15447W        W16311  17.430  12.939   2.580  0.0126  0.0068 -0.3494
15448W        W16312  16.200  15.901  28.904 -0.0970  0.1690  0.0747
15449W        W16313  17.186  17.782   2.005  0.0811  0.1801  0.0034
15450W        W16314  17.635  14.998  27.430 -0.1625 -0.1499  0.1562
15451W        W16315  16.093  16.355   4.207 -0.2680  0.2120  0.0077
15452W        W16316  17.817  13.790   2.767 -0.2246  0.0936 -0.1098
15453W        W16317  13.869  16.085   6.680  0.1076  0.1793 -0.0100
15454W        W16318  17.494  16.230   4.315  0.0237  0.1831  0.2773
15455W        W16319  19.704  17.413   2.899 -0.0539 -0.2873 -0.1940
15456W        W16320  15.676  16.095   3.698 -0.1321 -0.1754 -0.0488
15457W        W16321  17.280  17.012   1.388 -0.3023 -0.1989 -0.1089
15458W        W16322  15.905  12.398   0.760  0.0366 -0.1146 -0.0049
15459W        W16323  16.131  19.897   2.117 -0.0268  0.0897  0.0070
15460W        W16324  15.656  16.317   2.708 -0.0794 -0.0885 -0.1291
15461W        W16325  16.671  14.911   1.532 -0.1607 -0.1275  0.4349
15462W        W16326  15.969  14.312   2.903  0.2267  0.2123 -0.0548
15463W        W16327  18.357  16.368   0.189 -0.0731 -0.0211  0.2613
15464W        W16328  15.314  20.577  28.985  0.0526 -0.3593 -0.0787
15465W        W16329  16.191  16.473   1.989 -0.0557  0.1843  0.1378
15466W        W16330  19.710  11.020   2.300 -0.3638 -0.0399  0.0859
15467W        W16331  18.521  14.026  28.549 -0.1758 -0.2565 -0.1200
15468W        W16332  16.408  20.240   4.386  0.0569  0.3123 -0.0563
15469W        W16333  18.409  16.826   2.430  0.1041  0.2476 -0.0727
15470W        W16334  13.453  18.256   1.934  0.1212  0.4630  0.3827
15471W        W16335  18.166  14.184   1.512  0.0361 -0.3434  0.0321
15472W        W16336  15.831  15.190   2.496  0.0887  0.0561 -0.1589
15473W        W16337  19.435  17.456   1.045  0.1217  0.3858  0.1522
15474W        W16338  17.083  15.866   3.008  0.1522 -0.2230 -0.1264
15475W        W16339  14.612  17.711   2.306  0.3503 -0.0352  0.3216
15476W        W16340  16.002  14.523   0.181 -0.1376 -0.1093  0.0676
15477W        W16341  17.352  16.291   2.919  0.1481  0.1209  0.0571
15478W        W16342  16.398  15.464   1.754  0.1838  0.2025 -0.1045
15479W        W16343  13.993  12.958   3.298  0.0315 -0.2050  0.2440
15480W        W16344  17.454  19.824   1.700 -0.3624 -0.0741 -0.0086
15481W        W16345  15.779  16.417   2.191  0.4692 -0.4017 -0.1010
15482W        W16346  15.916  16.495   0.726 -0.1943 -0.2489  0.2320
15483W        W16347  12.279  17.359   3.676 -0.3728 -0.0979 -0.0719
15484W        W16348  13.763  15.851   3.673 -0.1510  0.3231 -0.1638
15485W        W16349  17.586  14.120   1.954 -0.1860  0.0470 -0.0829
15486W        W16350  20.779  13.949   2.740  0.2107  0.1339 -0.0461
15487W        W16351  14.892  11.983   0.406 -0.3475  0.3124 -0.0423
15488W        W16352  19.286  15.312   1.425  0.0486 -0.0151 -0.4325
15489W        W16353  15.147  15.670   0.090  0.2990  0.1440  0.0147
15490W        W16354  14.922  17.489   4.492 -0.0291 -0.1269 -0.1779
15491W        W16355  19.428  16.420   1.905 -0.0129 -0.1860 -0.0976
15492W        W16356  15.000  13.544   1.939  0.1513  0.0571 -0.0349
15493W        W16357  17.053  13.993   0.565 -0.1349 -0.0655 -0.0246
15494W        W16358  17.248  13.549  28.902  0.1176  0.3504 -0.2173
15495W        W16359  15.687  16.754   1.138 -0.1097  0.5797  0.3010
15496W        W16360  16.049  13.830   3.049 -0.0224 -0.1463  0.3422
15497W        W16361  14.096  16.592   1.533  0.0746  0.2563 -0.0245
15498W        W16362  17.153  18.256   2.995 -0.2858  0.0556  0.3133
15499W        W16363  16.581  16.752   2.581  0.1500  0.0203 -0.0873
15500W        W16364  16.077  17.189  28.483 -0.0048 -0.2942 -0.1299
15501W        W16365  15.529  17.541   2.966  0.0263 -0.1303  0.1046
15502W        W16366  17.836  15.164   1.373 -0.0224 -0.0241  0.2991
15503W        W16367  15.546  15.397   4.823  0.0781  0.1698  0.1903
15504W        W16368  14.939  16.660   2.833 -0.0464 -0.1619  0.1891
15505W        W16369  17.906  15.215   0.562  0.0071  0.1093 -0.2166
15506W        W16370  17.774  14.698   3.290 -0.0868  0.2560 -0.3408
15507W        W16371  16.777  15.889  28.713 -0.3905 -0.2784 -0.1735
15508W        W16372  18.516  18.306   3.386  0.2600  0.2329 -0.2280
15509W        W16373  20.682  19.691  28.272  0.3068  0.2790 -0.1381
15510W        W16374  17.437  18.024   4.520  0.2691 -0.0592  0.0046
15511W        W16375  16.557  16.563   3.096  0.2077 -0.0268 -0.0594
15512W        W16376  19.144  13.806   6.370 -0.0421  0.3109 -0.1446
15513W        W16377  18.178  15.406   2.406  0.1691  0.0339  0.0428
15514W        W16378  16.556  16.335   4.414  0.0957  0.0561  0.2422
15515W        W16379  16.213  14.352  28.541 -0.2021  0.0282 -0.1567
15516W        W16380  19.987  19.091  27.816 -0.2081 -0.0574 -0.1046
15517W        W16381  16.097  15.275   3.745  0.0822 -0.0392 -0.2597
15518W        W16382  18.756  17.154   2.083 -0.6818  0.1524 -0.1081
15519W        W16383  19.805  15.559   1.666 -0.0553  0.0451 -0.1093
15520W        W16384  18.096  19.191   0.482  0.0077 -0.0170  0.0627
15521W        W16385  16.385  15.676  28.514  0.1859 -0.1710  0.0430
15522W        W16386  16.910  15.688   3.427  0.2848 -0.1134  0.0225
15523W        W16387  15.005  15.404   6.524  0.1646 -0.0942  0.3001
15524W        W16388  14.914  20.368   0.092  0.2530 -0.1434  0.0135
15525W        W16389  20.173  17.073   0.099 -0.0261 -0.0007 -0.3085
15526W        W16390  17.057  16.568   4.527 -0.1327  0.1829 -0.0838
15527W        W16391  20.288  14.720   2.904  0.2291  0.1748  0.2417
15528W        W16392  21.518  17.875   0.459 -0.1346  0.2023 -0.0966
15529W        W16393  16.752  14.089   3.546 -0.0505  0.3330  0.0766
15530W        W16394  19.079  17.627   2.424  0.0483 -0.0288 -0.0303
15531W        W16395  20.330  16.489   2.187  0.1221 -0.2095 -0.2570
15532W        W16396  16.243  17.912   1.049 -0.1087 -0.0559  0.3415
15533W        W16397  16.394  16.742   3.931 -0.1308  0.0420  0.0667
15534W        W16398  17.378  16.037   3.406 -0.0287  0.1016 -0.1747
15535W        W16399  15.397  13.617   0.164 -0.1609  0.0807  0.3005
15536W        W16400  19.457  15.192   3.431 -0.2567 -0.1838 -0.1528
15537W        W16401  17.370  16.956   3.166 -0.0863  0.0092  0.1369
15538W        W16402  16.750  14.502   0.862 -0.0866  0.0110 -0.1172
15539W        W16403  15.149  15.250   3.355  0.2903 -0.2007 -0.0980
15540W        W16404  18.469  16.998   0.722 -0.0560 -0.1953  0.3623
15541W        W16405  15.502  16.192  28.742 -0.2220  0.1214  0.0645
15542W        W16406  15.880  14.504   1.999  0.0688  0.0268 -0.1866
15543W        W16407  17.983  17.016   3.171 -0.0862 -0.2562  0.1717
15544W        W16408  17.742  17.889   3.354 -0.1626  0.2031  0.0845
15545W        W16409  17.393  15.400   0.998 -0.1761  0.2065  0.3544
15546W        W16410  13.147  17.443   0.109 -0.1752  0.2599  0.3277
15547W        W16411  18.041  18.219  27.823 -0.0243 -0.1931 -0.0487
15548W        W16412  18.863  14.224   0.228  0.0010 -0.1084  0.1085
15549W        W16413  14.942  17.372   2.193 -0.0552  0.1283 -0.3602
15550W        W16414  20.118  16.408   1.350  0.1682  0.1998  0.1160
15551W        W16415  19.603  16.930   1.950 -0.2763  0.2381  0.0830
15552W        W16416  15.857  14.323   3.413 -0.0648 -0.2807 -0.0967
15553W        W16417  14.089  15.152   0.107 -0.4525 -0.2741  0.0072
15554W        W16418  16.765  18.365   5.454  0.0911  0.3289  0.0084
15555W        W16419  20.107  14.428   3.554 -0.2654 -0.4299 -0.0803
15556W        W16420  15.054  17.920   2.260  0.0502 -0.0816  0.2478
15557W        W16421  16.710  18.155   1.801 -0.2700 -0.2084  0.2516
15558W        W16422  14.919  16.566   0.618 -0.1713  0.1362  0.1816
15559W        W16423  18.025  17.325  28.783 -0.2356  0.1473  0.0662
15560W        W16424  17.251  16.113   4.792 -0.0140  0.4284 -0.0718
15561W        W16425  17.119  16.593   1.131 -0.0085 -0.2009  0.0418
15562W        W16426  15.472  16.766  29.070  0.2138  0.1678 -0.0993
15563W        W16427  17.488  15.805   1.841 -0.2511  0.3614 -0.2193
15564W        W16428  18.683  16.018   1.504  0.0348 -0.3854 -0.2604
15565W        W16429  16.273  14.406   6.161 -0.0725  0.0303 -0.1539
15566W        W16430  18.349  16.346   2.183 -0.1756  0.1644  0.0625
15567W        W16431  18.483  15.717   3.399  0.1918 -0.1320 -0.0008
15568W        W16432  15.491  15.038   2.811  0.0357 -0.3309  0.3094
15569W        W16433  16.822  14.602   2.419  0.1092 -0.2477 -0.1021
15570W        W16434  18.603  17.796   2.599  0.0475 -0.0238  0.2866
15571W        W16435  17.497  16.377   2.438  0.2047 -0.1136 -0.0838
15572W        W16436  16.683  18.091  28.922 -0.4877  0.3674 -0.0513
15573W        W16437  17.867  14.018  29.111  0.1222  0.1307 -0.1150
15574W        W16438  15.261  16.932   0.974  0.0714  0.4056 -0.3909
15575W        W16439  15.728  18.693   2.597  0.0067 -0.3202 -0.0002
15576W        W16440  19.250  16.814  28.884 -0.3968 -0.2124  0.3762
15577W        W16441  15.029  18.035   5.902  0.1267 -0.1395  0.4070
15578W        W16442  19.399  15.219  28.937 -0.2640 -0.0049 -0.1517
15579W        W16443  13.275  16.699   2.609  0.2378  0.1618  0.1514
15580W        W16444  19.155  16.215   1.591 -0.1159 -0.2999 -0.0333
15581W        W16445  19.152  18.174   0.127 -0.2195 -0.0585  0.3232
15582W        W16446  18.882  13.704   1.770 -0.0504  0.0038  0.0443
15583W        W16447  19.749  14.188  26.734 -0.0300 -0.1622  0.0074
15584W        W16448  19.924  15.187  29.029  0.2155  0.1265  0.1790
15585W        W16449  15.738  15.776   1.198  0.3382 -0.1923 -0.0364
15586W        W16450  16.477  17.226   0.804 -0.1258 -0.0206  0.2907
15587W        W16451  18.607  15.040   2.451 -0.3499 -0.1825  0.1257
15588W        W16452  19.030  14.190   3.140 -0.1810 -0.0387 -0.5065
15589W        W16453  18.984  15.086   0.324  0.0106  0.0374 -0.0543
15590W        W16454  18.503  14.193   4.437 -0.3385  0.3554  0.1856
15591W        W16455  13.553  18.064  28.797 -0.0150 -0.0001  0.1808
15592W        W16456  15.362  17.478   2.442 -0.0216 -0.0877  0.0544
15593W        W16457  15.004  15.809   2.017 -0.4230 -0.0705 -0.1236
15594W        W16458  17.786  17.674   6.103 -0.2911 -0.3030  0.0602
15595W        W16459  19.495  16.136   4.189 -0.1184  0.1449 -0.1613
15596W        W16460  14.624  18.890   0.265  0.1848 -0.3761 -0.1005
15597W        W16461  18.599  17.538   3.590  0.1109 -0.0560  0.0981
15598W        W16462  17.206  15.591   4.417 -0.2741  0.0775 -0.1940
15599W        W16463  16.955  15.205   2.305 -0.1624  0.2145 -0.1210
15600W        W16464  18.199  14.896   2.098 -0.1225 -0.0838  0.1910
15601W        W16465  14.294  17.051   2.912  0.2256 -0.1521 -0.1120
15602W        W16466  15.746  14.102   1.188  0.1705  0.1296 -0.1655
15603W        W16467  13.408  15.554   2.381  0.1778  0.2895 -0.3114
15604W        W16468  15.677  14.250  26.435  0.1987  0.0462 -0.0624
15605W        W16469  19.379  15.684   3.315 -0.0960  0.1865 -0.4533
15606W        W16470  18.935  18.375   0.687  0.2197 -0.1512  0.3382
15607W        W16471  14.872  19.097   6.578 -0.0837 -0.1565 -0.0600
15608W        W16472  14.319  14.866  28.796  0.0217  0.0162 -0.4076
15609W        W16473  16.979  14.844   0.578  0.0004 -0.0697 -0.2417
15610W        W16474  18.196  17.308   2.719  0.0437  0.0571 -0.0041
15611W        W16475  16.623  15.034   2.593  0.1688  0.3183  0.1526
15612W        W16476  14.675  18.074   1.910 -0.1755 -0.1368  0.1227
15613W        W16477  18.016  17.024  27.922  0.4480  0.0006  0.0205
15614W        W16478  17.649  18.084   2.770  0.1606 -0.1989 -0.2027
15615W        W16479  19.633  16.146  28.517  0.1597 -0.2202  0.0981
15616W        W16480  16.331  15.929   1.968 -0.0947 -0.1168  0.2557
15617W        W16481  17.986  18.502   2.564  0.2373  0.1474  0.3758
15618W        W16482  16.490  15.186   1.009 -0.1360 -0.3079  0.0560
15619W        W16483  15.127  18.392   2.484  0.0359 -0.1769  0.0848
15620W        W16484  15.512  14.680   0.995 -0.0507  0.0796 -0.3185
15621W        W16485  13.630  18.501   2.482 -0.3165  0.2052 -0.1374
15622W        W16486  15.184  14.888   3.771  0.0114  0.3134  0.0018
15623W        W16487  16.948  14.978  26.139 -0.0107  0.2553  0.1631
15624W        W16488  18.045  16.802   1.064 -0.2413  0.2839 -0.3190
15625W        W16489  14.948  17.607   2.676  0.0270 -0.2455 -0.0059
15626W        W16490  19.914  16.012   0.910 -0.2399 -0.0192  0.0127
15627W        W16491  19.098  16.247   3.906  0.0116  0.0723  0.1421
15628W        W16492  15.346  15.548   4.310  0.1438 -0.2541  0.2290
15629W        W16493  19.847  16.770   0.293  0.1577  0.3182  0.2184
15630W        W16494  17.856  16.076   1.600  0.1662 -0.0834 -0.3454
15631W        W16495  17.402  15.352   2.001 -0.1343  0.2171  0.1955
15632W        W16496  14.931  18.518   1.104 -0.1651 -0.0138  0.2393
15633W        W16497  17.665  14.882   5.459 -0.0565 -0.0356 -0.2341
15634W        W16498  16.810  15.175   0.218  0.4561  0.0132  0.4478
15635W        W16499  14.983  17.907  28.544  0.0020 -0.2604  0.0418
15636W        W16500  16.643  15.620   2.215  0.3084 -0.0473  0.2984
15637W        W16501  17.416  19.811   4.385 -0.1461 -0.1180 -0.0361
15638W        W16502  15.325  13.372   2.574  0.1508  0.1145 -0.1559
15639W        W16503  11.456  14.034   2.923 -0.1758  0.0382 -0.0343
15640W        W16504  18.445  18.904   2.645 -0.3657 -0.0105  0.1517
15641W        W16505  14.630  16.829  28.763  0.1415 -0.3081 -0.1440
15642W        W16506  17.680  16.999   2.753 -0.0635  0.0070 -0.1550
15643W        W16507  18.665  12.425   1.163  0.1245 -0.2691  0.1623
15644W        W16508  18.756  13.897   0.821 -0.1319  0.1197  0.0065
15645W        W16509  15.809  17.028   1.530  0.1073 -0.1640 -0.0186
15646W        W16510  15.098  18.328   2.987 -0.1020  0.0809  0.2342
15647W        W16511  17.569  15.159  28.603 -0.1509  0.1661  0.3647
15648W        W16512  13.801  19.675   1.576  0.0771  0.0295 -0.2217
15649W        W16513  17.260  19.567   4.982 -0.2113  0.1866  0.1707
15650W        W16514  17.671  14.845   2.784 -0.0282 -0.0679 -0.1400
15651W        W16515  15.430  13.682   1.604  0.1281 -0.0005 -0.1205
15652W        W16516  16.520  14.957   2.025  0.4285  0.2001  0.2160
15653W        W16517  17.751  17.049   3.646 -0.0581  0.0816  0.2932
15654W        W16518  17.855  17.583   3.737  0.0076 -0.0902  0.1202
15655W        W16519  19.453  14.906   0.557  0.0304  0.3193 -0.0385
15656W        W16520  18.500  17.899   3.094  0.0869  0.1543 -0.1657
15657W        W16521  18.148  16.558   3.412  0.1505 -0.3030  0.1007
15658W        W16522  17.923  19.195   0.934 -0.0928 -0.0459 -0.1596
15659W        W16523  18.454  16.922   2.969  0.1815  0.0182 -0.1158
15660W        W16524  19.511  15.227   2.370  0.0799  0.2779 -0.0295
15661W        W16525  16.972  12.074  29.103 -0.1753 -0.0232  0.4004
15662W        W16526  15.140  16.234   0.326 -0.1295  0.0002 -0.1687
15663W        W16527  18.477  13.985  29.093  0.2038 -0.3889  0.2331
15664W        W16528  19.210  16.087  28.147 -0.1590  0.0736 -0.2223
15665W        W16529  17.957  16.250   1.030 -0.1186 -0.3280 -0.1993
15666W        W16530  17.411  17.305   0.746  0.0037 -0.0677  0.0186
15667W        W16531  16.100  15.548   2.152 -0.0314  0.2032 -0.3968
15668W        W16532  17.258  14.791   3.156 -0.0464 -0.1039 -0.1463
15669W        W16533  15.787  20.614   6.205 -0.1213 -0.1017 -0.1331
15670W        W16534  17.087  15.355   3.089  0.1051 -0.1767 -0.0841
15671W        W16535  18.040  14.044   2.372 -0.1744  0.2132  0.0423
15672W        W16536  17.891  16.610   2.493  0.0587  0.1097  0.0839
15673W        W16537  15.945  18.693   1.547  0.0247  0.1342 -0.1646
15674W        W16538  15.181  13.789   2.326  0.2157 -0.1796 -0.0566
15675W        W16539  16.381  16.432   0.595  0.1071 -0.0389 -0.0739
15676W        W16540  18.415  18.331   2.719 -0.0966  0.2055 -0.1495
15677W        W16541  20.221  16.645   4.025  0.1205 -0.1252 -0.0091
15678W        W16542  18.774  18.563  28.882  0.2145  0.2672 -0.1573
15679W        W16543  19.487  15.829   1.227  0.1384 -0.2601 -0.1841
15680W        W16544  16.135  15.877   1.476 -0.5215  0.2724  0.2973
15681W        W16545  20.626  15.062   1.365 -0.0489 -0.0968 -0.0009
15682W        W16546  20.597  17.499   3.304 -0.2511 -0.1922 -0.0735
15683W        W16547  15.575  18.354   2.901  0.1639  0.0562 -0.0310
15684W        W16548  17.434  16.333   0.846 -0.0346  0.3901  0.0064
15685W        W16549  18.390  15.372   1.870 -0.0722 -0.1186  0.0785
15686W        W16550  14.363  16.710   1.025 -0.1134 -0.0235 -0.0910
15687W        W16551  15.526  15.313   6.469  0.1671  0.0378 -0.3073
15688W        W16552  14.635  16.274   0.262  0.3108 -0.2052  0.0539
15689W        W16553  15.904  17.299   4.367  0.0599 -0.1211 -0.0404
15690W        W16554  16.142  15.608   0.176 -0.1333 -0.1606  0.0106
15691W        W16555  16.273  19.360   1.386 -0.1540 -0.0695 -0.2441
15692W        W16556  13.373  16.770   7.977 -0.0253 -0.2851 -0.0362
15693W        W16557  13.792  17.600   7.971  0.2007  0.0178  0.0487
15694W        W16558  18.190  16.408   3.933  0.0072 -0.1997  0.0684
15695W        W16559  18.119  17.372   5.791 -0.2566 -0.0436 -0.0244
15696W        W16560  14.225  18.046   4.558 -0.2737 -0.1448 -0.3395
15697W        W16561  16.865  17.030   5.349 -0.1183  0.0354 -0.2456
15698W        W16562  17.275  14.312   5.143 -0.1323  0.0667  0.3365
15699W        W16563  18.679  16.235   3.621  0.1477  0.2436  0.3592
15700W        W16564  17.073  19.245   8.224  0.1508  0.0125 -0.2002
15701W        W16565  15.876  15.255   9.342  0.3413 -0.0256  0.0751
15702W        W16566  15.083  15.749   7.685 -0.0179  0.4649 -0.1995
15703W        W16567  17.793  13.018   5.374  0.1221 -0.0944 -0.0226
15704W        W16568  16.186  15.862   6.802 -0.1151 -0.1205 -0.0387
15705W        W16569  19.730  18.068   4.939 -0.2192 -0.2669  0.0646
15706W        W16570  13.857  16.714   6.174 -0.0640  0.3425 -0.0704
15707W        W16571  14.479  17.954   5.012  0.2970 -0.1607  0.0917
15708W        W16572  13.238  16.095   7.185  0.2860  0.1179 -0.0775
15709W        W16573  13.542  13.880   3.841 -0.1416  0.4443  0.1248
15710W        W16574  15.361  16.297   8.259 -0.0187 -0.0954 -0.0155
15711W        W16575  19.544  15.017   5.830  0.2344  0.1289  0.0066
15712W        W16576  17.214  20.077   6.875 -0.3288 -0.2420 -0.0791
15713W        W16577  17.188  17.060   5.718  0.1337  0.0192  0.1041
15714W        W16578  16.105  19.007   6.395 -0.0206 -0.1045  0.1814
15715W        W16579  14.255  16.473   7.383 -0.0859  0.1681 -0.0166
15716W        W16580  16.930  17.379   5.992  0.0875  0.1443  0.2942
15717W        W16581  15.570  11.582   8.160  0.0677  0.0363 -0.1173
15718W        W16582  18.522  14.598  11.557 -0.0353  0.0438 -0.3011
15719W        W16583  19.162  18.695   4.597 -0.2801  0.1527  0.0577
15720W        W16584  19.254  18.295   5.781 -0.1050 -0.1812 -0.1166
15721W        W16585  16.422  14.806   6.404 -0.2429  0.0959  0.1509
15722W        W16586  17.455  14.098   4.609 -0.3044  0.3525  0.0128
15723W        W16587  18.488  17.503   8.353  0.0340  0.0033  0.1783
15724W        W16588  15.027  14.625   6.382 -0.2853 -0.2609  0.0065
15725W        W16589  18.226  18.628   7.199 -0.0831 -0.1003 -0.0424
15726W        W16590  15.746  16.366   8.677 -0.0825 -0.0741  0.1675
15727W        W16591  17.911  15.892   5.696 -0.1051  0.1471  0.3019
15728W        W16592  13.431  16.245   4.843 -0.2591  0.1338  0.3708
15729W        W16593  16.728  16.889   4.305 -0.1461  0.1561  0.1140
15730W        W16594  17.552  17.366   3.358  0.1252  0.0054  0.2683
15731W        W16595  18.047  15.457   5.238 -0.0401 -0.0661 -0.0866
15732W        W16596  17.782  12.636   3.306 -0.1640  0.0001  0.1652
15733W        W16597  17.552  18.128   3.783 -0.2908 -0.0733  0.1666
15734W        W16598  17.298  19.642   5.592  0.0885 -0.5976 -0.0084
15735W        W16599  19.932  16.301   3.347 -0.0127 -0.2728  0.0506
15736W        W16600  16.350  17.308   1.750 -0.0757  0.1029 -0.3828
15737W        W16601  16.826  17.419   5.033 -0.0845  0.0684  0.1494
15738W        W16602  16.798  14.721   5.307 -0.0413 -0.0147 -0.3416
15739W        W16603  17.995  15.024   6.591 -0.0984  0.1631  0.1605
15740W        W16604  18.337  16.569   6.249  0.3768  0.0104 -0.0664
15741W        W16605  18.852  13.778   4.674  0.0335  0.0861 -0.1087
15742W        W16606  18.968  17.733   8.763 -0.0460 -0.0923 -0.1374
15743W        W16607  16.719  15.212   4.559  0.1162  0.1910  0.0213
15744W        W16608  17.166  16.822   3.643 -0.0688 -0.0343 -0.0617
15745W        W16609  18.767  17.682   4.101  0.2195  0.0409  0.2952
15746W        W16610  16.193  13.804   6.284 -0.0420 -0.0914  0.2688
15747W        W16611  16.445  15.261   5.054 -0.1067 -0.0120  0.1646
15748W        W16612  16.831  16.489   6.575  0.0979 -0.1076  0.1070
15749W        W16613  18.325  14.709   3.520 -0.0730 -0.4300 -0.1240
15750W        W16614  15.796  15.720   6.458  0.1970 -0.0396  0.2164
15751W        W16615  16.766  18.464   6.010 -0.1951  0.1369  0.5312
15752W        W16616  19.546  16.862   5.145  0.1098  0.0904 -0.0995
15753W        W16617  14.003  20.817   6.159 -0.1346  0.1880 -0.1084
15754W        W16618  16.240  17.109   8.161  0.0969  0.0523 -0.4076
15755W        W16619  18.300  16.675   5.439  0.0661  0.0164 -0.0669
15756W        W16620  19.076  15.325   5.658 -0.1682 -0.1365  0.4662
15757W        W16621  15.206  13.444   5.382 -0.1909  0.1544 -0.0373
15758W        W16622  13.437  17.644   2.931  0.1309  0.0482 -0.2162
15759W        W16623  15.891  16.807   4.083 -0.1047  0.0328  0.0763
15760W        W16624  15.694  17.981   6.948  0.2088 -0.0630 -0.0506
15761W        W16625  18.192  16.302   5.822 -0.1413 -0.3097 -0.0602
15762W        W16626  18.117  17.319   8.700  0.0790  0.2790  0.1704
15763W        W16627  15.342  14.903   4.925  0.2465  0.1022  0.1680
15764W        W16628  20.042  19.587   4.569 -0.0065 -0.0504 -0.5113
15765W        W16629  17.612  15.475   5.596  0.0761 -0.0465 -0.0547
15766W        W16630  19.500  16.093   4.670 -0.0252 -0.0964  0.1533
15767W        W16631  16.159  12.700   9.132  0.1466 -0.2659  0.0787
15768W        W16632  15.222  18.693   7.614 -0.0903 -0.1035 -0.2146
15769W        W16633  17.505  18.252   7.051  0.1911 -0.2131  0.0855
15770W        W16634  18.229  15.457   5.851  0.0533  0.0019 -0.0241
15771W        W16635  15.916  15.863   5.946 -0.3216 -0.0470  0.1684
15772W        W16636  16.408  14.196   4.482 -0.0650 -0.0754 -0.0564
15773W        W16637  13.994  17.379   6.776  0.3143  0.2541  0.0417
15774W        W16638  15.287  16.761   1.506  0.1105  0.0272 -0.0877
15775W        W16639  17.705  14.650   5.891 -0.0562  0.1586  0.1823
15776W        W16640  17.801  15.413   6.901  0.1284  0.0190 -0.0629
15777W        W16641  17.357  15.448   2.658  0.0773 -0.0787 -0.1165
15778W        W16642  16.994  17.779   8.027 -0.3182 -0.1639 -0.2272
15779W        W16643  15.128  13.633   6.391  0.0323  0.0116  0.0467
15780W        W16644  20.657  17.204   6.398 -0.1458  0.1447 -0.0862
15781W        W16645  19.319  16.883   7.285  0.0763  0.4464 -0.1770
15782W        W16646  16.293  15.515   6.432 -0.3528  0.0205  0.1549
15783W        W16647  19.359  16.730   9.189 -0.0530 -0.1885  0.1098
15784W        W16648  15.473  17.108   3.825  0.2017 -0.1908 -0.1590
15785W        W16649  15.866  14.814   3.633  0.0321  0.0339  0.2036
15786W        W16650  15.932  15.051   6.524 -0.0186  0.0819 -0.1572
15787W        W16651  18.305  16.317   6.685 -0.1574  0.3986  0.2718
15788W        W16652  18.453  15.754   7.078 -0.2051 -0.0437  0.1101
15789W        W16653  15.088  18.688   9.262  0.0596  0.0308 -0.3006
15790W        W16654  17.494  14.851   3.667  0.1609  0.0148  0.1152
15791W        W16655  18.924  15.031   4.172 -0.1481 -0.0156  0.1274
15792W        W16656  18.400  18.975   3.947 -0.0081 -0.0880  0.1960
15793W        W16657  17.587  18.218   6.554 -0.1253  0.1120  0.2896
15794W        W16658  19.121  14.500   5.167  0.2164  0.0021 -0.3168
15795W        W16659  20.066  16.902   6.862 -0.1644 -0.1593 -0.1832
15796W        W16660  17.756  15.371  10.972 -0.0314 -0.1240 -0.3707
15797W        W16661  18.984  15.960   5.337  0.1394  0.2256  0.1018
15798W        W16662  17.744  19.394   4.070 -0.3166 -0.0659  0.0797
15799W        W16663  17.105  16.966   6.490 -0.1225  0.1386  0.0133
15800W        W16664  18.431  17.162   6.924  0.1239 -0.0987  0.0709
15801W        W16665  17.627  14.749   4.198 -0.3618 -0.2457 -0.3053
15802W        W16666  13.746  15.714   6.225 -0.0412 -0.0759  0.1857
15803W        W16667  17.207  17.887   6.482 -0.1726 -0.1355  0.1554
15804W        W16668  18.176  13.396   5.824  0.2567  0.0669 -0.0616
15805W        W16669  16.905  16.866   8.874 -0.0883  0.0493  0.0125
15806W        W16670  20.209  15.563   0.659  0.0087  0.1866 -0.0137
15807W        W16671  16.217  18.162   4.636  0.2589 -0.2954 -0.0918
15808W        W16672  18.757  14.234   7.184 -0.1189  0.0620  0.3730
15809W        W16673  18.835  14.996   5.328 -0.0715 -0.1289  0.0741
15810W        W16674  17.290  15.829   3.981  0.0393  0.0215  0.0293
15811W        W16675  16.671  15.029   3.129  0.0454 -0.1611  0.1345
15812W        W16676  17.728  15.133   4.570 -0.1533 -0.0960 -0.0174
15813W        W16677  18.208  21.296   2.497  0.0736 -0.0097  0.3186
15814W        W16678  17.232  18.078   5.562 -0.1347  0.1726 -0.2937
15815W        W16679  19.394  16.532   2.401 -0.0243  0.1294 -0.2800
15816W        W16680  17.801  15.155   6.105  0.0977  0.0886  0.3321
15817W        W16681  14.629  16.151   5.908  0.0588  0.1224 -0.1083
15818W        W16682  16.360  13.558   5.561 -0.0458  0.0003 -0.2615
15819W        W16683  15.610  17.848   5.277  0.2395  0.0236  0.1001
15820W        W16684  17.812  16.580   2.986  0.0267  0.0419  0.2142
15821W        W16685  18.601  18.185   5.333  0.1210  0.1401  0.3497
15822W        W16686  17.990  18.252   3.122  0.2400 -0.2463  0.1592
15823W        W16687  17.552  14.484   8.094 -0.2306  0.2182 -0.0510
15824W        W16688  19.950  17.404   7.107  0.0322 -0.0879 -0.0149
15825W        W16689  19.678  15.683   4.339  0.0976  0.2276  0.1640
15826W        W16690  18.311  17.831   7.509  0.2574 -0.2357 -0.1709
15827W        W16691  15.159  14.968   6.724 -0.3170  0.2245  0.2572
15828W        W16692  21.351  13.866   1.949  0.0328 -0.3406  0.0512
15829W        W16693  18.095  14.770   4.331 -0.1524 -0.2375 -0.2505
15830W        W16694  15.864  16.332   6.684  0.2999  0.0182 -0.0869
15831W        W16695  17.936  15.397   2.828 -0.2396 -0.1010  0.2017
15832W        W16696  17.501  15.964   6.950 -0.0136 -0.0975 -0.1906
15833W        W16697  16.815  14.672   6.050 -0.1725  0.0193 -0.2598
15834W        W16698  18.307  17.692   5.360  0.0781  0.3985  0.1084
15835W        W16699  17.943  18.224   6.901 -0.0549  0.3423  0.0539
15836W        W16700  15.735  16.236   6.190  0.0358  0.2021 -0.1802
15837W        W16701  18.892  15.554   3.180 -0.2301 -0.1558 -0.2758
15838W        W16702  19.998  14.558   5.111 -0.1624  0.2487 -0.0660
15839W        W16703  18.501  18.841   6.364 -0.3045 -0.3212  0.0952
15840W        W16704  18.073  18.519   9.376 -0.0680 -0.2752  0.1162
15841W        W16705  15.088  14.454   8.020 -0.0638 -0.1876 -0.2180
15842W        W16706  17.883  19.619   6.462  0.3026  0.2487 -0.0024
15843W        W16707  17.914  13.872   3.244  0.0642 -0.3390 -0.1700
15844W        W16708  16.275  18.762   8.938 -0.0273 -0.1535 -0.1352
15845W        W16709  14.567  15.981   2.110 -0.0709 -0.1690  0.0102
15846W        W16710  15.434  17.182   8.784  0.5230  0.2229  0.1681
15847W        W16711  18.713  12.161   5.308  0.1638 -0.0962  0.5440
15848W        W16712  14.779  14.627   7.632  0.0194 -0.1761  0.0309
15849W        W16713  17.282  16.391   3.808 -0.5372  0.0133  0.2069
15850W        W16714  16.280  15.124   6.070  0.1682 -0.1503 -0.2435
15851W        W16715  16.680  16.081   3.176 -0.3082  0.0478 -0.0130
15852W        W16716  18.132  12.659   6.688  0.1028 -0.1402  0.1056
15853W        W16717  14.219  16.807   6.545  0.3758 -0.2536 -0.2011
15854W        W16718  17.899  16.427   7.844 -0.0458  0.1493 -0.2847
15855W        W16719  16.981  16.430   9.169  0.0970  0.0585 -0.0775
15856W        W16720  15.992  13.485   5.970 -0.0338  0.1085  0.2620
15857W        W16721  18.251  12.608   8.029 -0.1637  0.2816  0.0542
15858W        W16722  18.528  16.223   4.698 -0.0241 -0.2660 -0.0900
15859W        W16723  14.240  18.773   3.987  0.1661 -0.0384  0.0544
15860W        W16724  18.230  17.096   8.288 -0.0409  0.1913 -0.0050
15861W        W16725  18.138  17.649   6.846  0.2217  0.2810  0.0903
15862W        W16726  18.406  16.686   4.479  0.0194  0.0152 -0.0676
15863W        W16727  17.346  15.306   4.875  0.0303 -0.1534  0.0511
15864W        W16728  18.706  16.212   6.996 -0.2581 -0.0506  0.0699
15865W        W16729  18.223  15.461   3.788  0.3077 -0.0191 -0.2650
15866W        W16730  17.476  14.078   6.971  0.0199 -0.1258  0.0927
15867W        W16731  19.186  15.101   7.857  0.1047  0.0757 -0.3431
15868W        W16732  14.160  17.169   5.605 -0.1742  0.2093 -0.0654
15869W        W16733  16.537  17.134   6.191 -0.0114 -0.2178 -0.1784
15870W        W16734  15.924  19.623   5.455 -0.0196  0.0838 -0.0660
15871W        W16735  17.360  15.967   5.695  0.1053  0.1960 -0.4261
15872W        W16736  16.468  18.910   7.378  0.0015 -0.2661 -0.1637
15873W        W16737  18.170  16.494   4.955 -0.3054 -0.0485  0.2404
15874W        W16738  16.070  15.780   3.891 -0.0874 -0.2068 -0.2852
15875W        W16739  18.888  15.588   7.412  0.0071 -0.0987  0.1627
15876W        W16740  17.459  14.283   0.413 -0.2637 -0.0922  0.2875
15877W        W16741  17.683  19.810  11.264  0.1177  0.2286 -0.1273
15878W        W16742  17.851  16.143   3.259  0.0655  0.1471 -0.2092
15879W        W16743  15.542  16.869   4.444  0.1816 -0.2801 -0.2029
15880W        W16744  16.826  13.632   7.619  0.0918 -0.1828 -0.0907
15881W        W16745  17.970  16.897   7.065  0.0419  0.1778  0.1162
15882W        W16746  16.410  14.867   3.660  0.1880  0.0636 -0.3199
15883W        W16747  15.897  17.336   5.226 -0.3247  0.1784  0.1797
15884W        W16748  15.611  17.692   9.632  0.1577  0.0835 -0.0146
15885W        W16749  17.687  14.757   6.396 -0.0078 -0.1082  0.0579
15886W        W16750  16.146  14.022   3.968  0.2377 -0.0683 -0.0925
15887W        W16751  17.427  15.777   5.212 -0.0019 -0.1710  0.0371
15888W        W16752  20.112  17.655   3.225 -0.0067 -0.2504  0.2429
15889W        W16753  18.692  14.591   6.851  0.2490 -0.0231  0.3357
15890W        W16754  13.083  16.448   6.698  0.1470  0.1144  0.0935
15891W        W16755  18.862  12.743   7.546  0.0337  0.0053 -0.1404
15892W        W16756  15.380  15.538   6.046  0.0705 -0.1981  0.0566
15893W        W16757  19.438  15.143   8.775 -0.0323  0.0601 -0.1331
15894W        W16758  21.578  15.625   2.943  0.3829 -0.1893  0.3846
15895W        W16759  16.703  13.828   4.164  0.1789  0.1065 -0.2424
15896W        W16760  16.649  13.961   5.339 -0.2572  0.0678  0.0312
15897W        W16761  16.578  13.803   2.301 -0.1880 -0.1930  0.1566
15898W        W16762  16.388  14.556   7.472 -0.1905 -0.2459 -0.0125
15899W        W16763  17.537  16.456   5.787 -0.1683  0.2541  0.0281
15900W        W16764  16.359  15.628   5.908 -0.0944  0.0054  0.0373
15901W        W16765  14.744  15.258   5.970 -0.1714  0.2402 -0.0757
15902W        W16766  15.891  16.783   6.336  0.3180  0.0128 -0.2231
15903W        W16767  12.822  16.075   6.848 -0.2640  0.0553 -0.1615
15904W        W16768  17.775  17.098   8.001 -0.0650 -0.2162  0.1216
15905W        W16769  19.349  13.263   8.750 -0.3654  0.0468 -0.1640
15906W        W16770  19.050  17.279   5.699  0.0985  0.2543 -0.0488
15907W        W16771  18.634  16.703   3.419 -0.0098 -0.0606  0.2644
15908W        W16772  17.553  17.393   6.939 -0.1828  0.3587  0.1457
15909W        W16773  15.175  19.144   5.206  0.2756 -0.0158 -0.0907
15910W        W16774  18.862  16.844   5.478 -0.1934  0.3551  0.0405
15911W        W16775  18.215  17.401   7.303 -0.0372  0.0091 -0.0689
15912W        W16776  19.318  17.430   7.833 -0.0167  0.0546 -0.1745
15913W        W16777  16.539  16.788   4.957 -0.1502 -0.3604  0.2162
15914W        W16778  17.695  18.636   7.933 -0.2389  0.0988 -0.0388
15915W        W16779  17.393  16.297   5.223  0.2411 -0.1986 -0.0045
15916W        W16780  20.088  18.387   2.016  0.3140  0.0524  0.0572
15917W        W16781  15.128  16.009   7.212 -0.3686  0.0335  0.0311
15918W        W16782  16.694  17.702   6.364 -0.1190  0.1924  0.4528
15919W        W16783  19.029  18.498   9.586  0.3413  0.1653  0.2106
15920W        W16784  17.931  15.975   5.155 -0.1244  0.0247  0.1435
15921W        W16785  19.476  14.615   4.320  0.1090 -0.0825 -0.1729
15922W        W16786  17.913  17.296   5.316 -0.1402 -0.1371  0.0039
15923W        W16787  14.780  14.761   5.841 -0.3310 -0.0603  0.0939
15924W        W16788  14.888  16.104   4.409 -0.3135  0.0897  0.0416
15925W        W16789  18.498  15.964   1.064  0.0033  0.3741  0.0826
15926W        W16790  16.502  12.851   2.009  0.1259 -0.1035  0.3042
15927W        W16791  15.342  15.707   6.805  0.2269 -0.1342 -0.0213
15928W        W16792  17.468  19.190   6.379  0.3367  0.2932 -0.1655
15929W        W16793  16.614  16.905   6.721  0.1975  0.1323  0.1896
15930W        W16794  18.486  18.369   6.630  0.1112 -0.2392 -0.0655
15931W        W16795  18.272  17.405   3.978 -0.0116  0.1365 -0.3640
15932W        W16796  18.587  16.179   6.088 -0.2509  0.2395  0.3712
15933W        W16797  14.381  14.698   8.671  0.0384 -0.2219 -0.0865
15934W        W16798  15.406  17.459   7.022  0.0569 -0.1124 -0.2188
15935W        W16799  16.720  11.239   5.924  0.0059  0.2778  0.3367
15936W        W16800  16.271  16.877   4.486 -0.0930  0.0216  0.1608
15937W        W16801  15.049  17.505   3.950 -0.1667 -0.1177  0.4167
15938W        W16802  19.677  18.398   3.892 -0.0798  0.0660  0.3719
15939W        W16803  17.368  14.525   6.709  0.1065  0.0652 -0.1280
15940W        W16804  20.040  15.300   3.588  0.3419 -0.0383 -0.2655
15941W        W16805  12.463  16.127   6.003 -0.1834  0.0446 -0.1081
15942W        W16806  18.003  17.361   6.457 -0.1097  0.1253  0.5703
15943W        W16807  15.856  18.770   5.702 -0.1301  0.1709 -0.1212
15944W        W16808  17.150  19.287  10.349 -0.0262 -0.0302  0.3385
15945W        W16809  20.368  16.793   5.835  0.1091 -0.0297 -0.0948
15946W        W16810  17.352  14.444   2.787 -0.0485  0.0523 -0.3218
15947W        W16811  17.367  19.953   3.479 -0.1021  0.0362 -0.1198
15948W        W16812  19.168  14.840   7.038 -0.0622  0.2118 -0.1403
15949W        W16813  17.574  15.283   7.463 -0.0573  0.0790  0.4240
15950W        W16814  17.241  15.027   4.405  0.1039 -0.0393  0.1049
15951W        W16815  16.227  16.939   5.314 -0.2575 -0.1297  0.0076
15952W        W16816  14.203  15.999   5.619  0.0464  0.0158  0.0652
15953W        W16817  18.819  14.727   6.200  0.0178 -0.0346 -0.1826
15954W        W16818  17.913  18.682   8.348 -0.1167 -0.0158  0.2167
15955W        W16819  15.635  15.865   7.886  0.0177 -0.2958  0.3625
15956W        W16820  17.903  18.207   7.949  0.0707 -0.2357 -0.1235
15957W        W16821  15.016  19.251   7.391 -0.1916 -0.5271 -0.1640
15958W        W16822  17.231  18.520   5.757 -0.1009  0.1414  0.0355
15959W        W16823  16.902  17.674   2.822  0.3136  0.1742  0.0679
15960W        W16824  17.364  15.479   7.072 -0.0380  0.1143  0.0710
15961W        W16825  20.695  13.269   4.047 -0.2253  0.3688 -0.2217
15962W        W16826  16.401  17.499   5.312 -0.0511 -0.1462 -0.0312
15963W        W16827  18.538  18.830   5.868 -0.1170 -0.1278 -0.1650
15964W        W16828  18.130  15.063   7.655  0.4358  0.0810 -0.3455
15965W        W16829  14.298  15.298   6.251 -0.2644 -0.0507 -0.0384
15966W        W16830  15.555  18.278   7.366  0.1093 -0.1389  0.0246
15967W        W16831  16.739  14.325   5.719 -0.2162 -0.2226 -0.1327
15968W        W16832  13.958  15.013   7.738 -0.2578 -0.0015  0.2669
15969W        W16833  17.618  15.750   6.541  0.2609  0.2461 -0.2166
15970W        W16834  14.786  16.293   6.883  0.3265  0.1170 -0.2339
15971W        W16835  15.726  15.887   7.007 -0.2500 -0.0091  0.1300
15972W        W16836  17.100  16.083   6.604  0.0318  0.1556  0.0174
15973W        W16837  17.737  15.641   3.889 -0.1371  0.0579 -0.3209
15974W        W16838  16.919  18.681   7.490 -0.2405  0.0670  0.3399
15975W        W16839  13.648  15.088   9.264  0.0302  0.1228  0.1682
15976W        W16840  19.888  16.216   6.648  0.1288 -0.0133 -0.1606
15977W        W16841  20.082  15.233   7.994 -0.1016 -0.0621  0.0694
15978W        W16842  21.081  17.441   3.505  0.0851 -0.0675 -0.1612
15979W        W16843  14.526  16.761   7.052  0.3976  0.3426 -0.1914
15980W        W16844  20.397  15.222   7.219  0.2803 -0.1465 -0.0139
15981W        W16845  17.585  16.527   3.466  0.0329 -0.0668  0.0592
15982W        W16846  17.302  17.088   5.181  0.2407 -0.1255 -0.1263
15983W        W16847  13.068  13.050   5.306  0.0126 -0.0886 -0.0718
15984W        W16848  18.763  16.509   7.387  0.1950 -0.1504 -0.3251
15985W        W16849  19.460  15.851   5.165  0.1904  0.0555  0.1814
15986W        W16850  15.489  17.130   3.256 -0.0810  0.0711 -0.1175
15987W        W16851  17.696  13.644   5.657 -0.0753  0.0724 -0.0436
15988W        W16852  17.606  14.077   6.425 -0.1497  0.2971  0.1944
15989W        W16853  18.069  19.020   5.025  0.1672  0.1175  0.1196
15990W        W16854  18.092  14.041   5.318  0.1669 -0.1181  0.2595
15991W        W16855  14.913  18.573   6.641  0.0758 -0.1762  0.1029
15992W        W16856  14.994  16.699   6.773  0.3972  0.1964  0.1511
15993W        W16857  14.998  16.416   8.558  0.1362  0.0858  0.2897
15994W        W16858  16.211  16.027   9.864 -0.0788  0.1234 -0.0394
15995W        W16859  17.787  15.618   4.797  0.0896  0.0919  0.0127
15996W        W16860  20.290  15.654   2.702  0.2972 -0.0291  0.2090
15997W        W16861  16.888  16.647   9.862 -0.1997  0.0240  0.2590
15998W        W16862  17.823  17.716   7.680  0.0257 -0.0944 -0.0960
15999W        W16863  17.059  12.579   2.486  0.1407 -0.1354 -0.1014
16000W        W16864  15.080  15.569   5.447  0.1491  0.1856 -0.2087
16001W        W16865  16.985  17.429   6.670  0.0772  0.0721  0.3102
16002W        W16866  17.122  15.529   5.855 -0.3977  0.0785 -0.0910
16003W        W16867  14.528  16.397   8.895 -0.1828 -0.1720  0.1254
16004W        W16868  18.545  13.224   3.306  0.0748  0.1369  0.1554
16005W        W16869  17.405  18.424   8.248  0.2332 -0.0303  0.0272
16006W        W16870  15.939  16.268   5.570 -0.1269 -0.0087 -0.0572
16007W        W16871  17.245  18.217   9.417  0.1529  0.2238  0.2826
16008W        W16872  14.909  16.642   5.863 -0.0041  0.2231  0.0703
16009W        W16873  18.456  15.442   2.960  0.3235  0.1300 -0.0927
16010W        W16874  17.756  17.224   4.098 -0.0492  0.0299  0.0531
16011W        W16875  18.005  13.104   2.210 -0.0560  0.3150  0.1450
16012W        W16876  17.122  18.496   6.477 -0.1200  0.2828 -0.2367
16013W        W16877  17.738  17.535   4.480 -0.0295 -0.3448  0.5493
16014W        W16878  16.197  16.499   8.927 -0.1544 -0.0122 -0.0058
16015W        W16879  17.140  13.955   7.358  0.1083  0.4018  0.0002
16016W        W16880  16.701  17.061   3.675 -0.0247 -0.0070  0.0398
16017W        W16881  15.926  19.109   7.956 -0.0413  0.1205  0.0423
16018W        W16882  17.998  13.796   6.298  0.2469 -0.0773  0.1131
16019W        W16883  17.777  17.829   7.170  0.3688 -0.0233 -0.0424
16020W        W16884  16.396  13.150   5.108 -0.1843  0.0405 -0.1070
16021W        W16885  16.154  16.773   6.778 -0.0493  0.1051 -0.2708
16022W        W16886  18.032  14.373   6.236  0.3248  0.3596  0.0563
16023W        W16887  19.017  13.319   6.098  0.0309  0.1170  0.0989
16024W        W16888  19.184  17.047   9.572  0.1575  0.2096  0.1921
16025W        W16889  17.298  16.146   8.906  0.1633 -0.3218  0.0222
16026W        W16890  18.416  17.438   9.484  0.0145 -0.1811  0.1588
16027W        W16891  15.907  16.096   8.296 -0.2156 -0.1808 -0.0276
16028W        W16892  15.680  17.613   6.560 -0.2497  0.0511  0.1139
16029W        W16893  19.186  16.446   7.090 -0.3554  0.1034 -0.1991
16030W        W16894  17.530  14.949   6.931 -0.0287 -0.3100  0.3947
16031W        W16895  18.112  14.878   2.596 -0.1605 -0.0281 -0.1963
16032W        W16896  17.141  19.796   3.905 -0.1309 -0.0389 -0.1319
16033W        W16897  16.695  15.150   6.565  0.2138  0.1502  0.0534
16034W        W16898  15.717  16.213   7.536 -0.1048 -0.0551  0.0173
16035W        W16899  14.659  16.477   5.452 -0.1337 -0.1280  0.0571
16036W        W16900  17.727  17.198   4.834  0.0429 -0.1656 -0.0188
16037W        W16901  17.183  15.701  10.051  0.0195  0.2538 -0.0005
16038W        W16902  17.050  14.948   6.827 -0.3035 -0.2959 -0.3625
16039W        W16903  15.704  13.762   4.658 -0.1161  0.1437 -0.0344
16040W        W16904  16.814  16.512   4.008 -0.1660  0.0281  0.2828
16041W        W16905  15.977  15.641   3.373  0.0402 -0.0509  0.1715
16042W        W16906  17.311  14.862   5.086  0.1784 -0.1561  0.1147
16043W        W16907  19.143  16.213   5.926  0.0490  0.1090  0.0128
16044W        W16908  15.864  16.730   7.273  0.2524  0.3216 -0.0790
16045W        W16909  16.484  16.665   5.702  0.0968  0.1175  0.0972
16046W        W16910  16.501  20.129   5.726 -0.0181 -0.1861  0.2722
16047W        W16911  16.932  16.069   3.671  0.1712 -0.2003  0.1749
16048W        W16912  16.920  17.728   8.583  0.1830 -0.0204 -0.1400
16049W        W16913  17.092  15.866   8.167 -0.2359 -0.2322 -0.2809
16050W        W16914  16.899  15.134   5.021 -0.1981 -0.0126 -0.0409
16051W        W16915  14.999  15.767   5.900  0.1315 -0.3833  0.0177
16052W        W16916  17.962  17.709   4.898  0.0540 -0.1698 -0.1207
16053W        W16917  17.773  14.145   8.923 -0.0371 -0.1376  0.0286
16054W        W16918  13.705  17.335   5.591 -0.1400  0.3080 -0.2072
16055W        W16919  19.191  13.434   5.566  0.0102 -0.0500  0.0672
16056W        W16920  17.375  17.514   8.681  0.0401 -0.0685 -0.2938
16057W        W16921  17.389  17.379   6.317 -0.1844  0.0432 -0.0655
16058W        W16922  18.270  17.049   3.595  0.0219  0.1507  0.2134
16059W        W16923  18.742  16.603   3.987 -0.0364 -0.0039 -0.1084
16060W        W16924  15.515  14.925   7.479 -0.0220  0.1204 -0.2359
16061W        W16925  21.869  13.589   4.158 -0.0545  0.0880  0.3807
16062W        W16926  19.822  16.437   3.861 -0.0080 -0.1445  0.0819
16063W        W16927  18.023  14.608   5.156 -0.1738  0.0227 -0.1905
16064W        W16928  16.230  14.602   1.687 -0.2087 -0.2053 -0.1547
16065W        W16929  18.670  17.862   6.695 -0.1022 -0.0133  0.2492
16066W        W16930  18.367  16.495   0.771 -0.0013 -0.0618 -0.1936
16067W        W16931  16.412  14.750   5.738  0.2555 -0.0481 -0.3088
16068W        W16932  15.805  15.449   8.286  0.0061 -0.0122  0.0069
16069W        W16933  16.655  17.218   8.623 -0.0137  0.2940 -0.1163
16070W        W16934  16.257  15.130   6.886 -0.0587  0.3481 -0.3399
16071W        W16935  13.808  17.725   4.510 -0.0819 -0.1178  0.0358
16072W        W16936  18.477  13.768   6.180  0.1007 -0.2549  0.0939
16073W        W16937  15.106  16.451   3.936 -0.3310 -0.0403 -0.2375
16074W        W16938  14.709  16.608   4.458 -0.1412  0.0602 -0.0169
16075W        W16939  17.864  16.403   5.399 -0.0750 -0.0220 -0.3355
16076W        W16940  15.085  17.506   5.760  0.1624 -0.2693 -0.3846
16077W        W16941  19.216  16.965   6.654  0.1501  0.2060 -0.0521
16078W        W16942  16.625  18.535   6.452 -0.3251  0.0383  0.0876
16079W        W16943  17.717  17.315   7.449  0.2720  0.4072  0.0547
16080W        W16944  17.342  17.784   3.072 -0.0573  0.1714 -0.0936
16081W        W16945  16.860  16.817   7.592 -0.3692  0.0779 -0.0178
16082W        W16946  17.674  16.430   8.646 -0.0673  0.2612  0.0845
16083W        W16947  16.104  17.248   6.261  0.2479  0.0315 -0.0519
16084W        W16948  19.884  16.740   5.522  0.0710  0.3367  0.1998
16085W        W16949  16.145  17.299   4.812 -0.2808 -0.0215  0.1107
16086W        W16950  16.364  18.180   6.880  0.0995 -0.3192 -0.3736
16087W        W16951  16.866  15.899   7.648 -0.0354  0.1778 -0.0417
16088W        W16952  16.808  19.048   3.263  0.3146  0.0077 -0.0717
16089W        W16953  17.310  14.447   6.175 -0.1389 -0.0747 -0.0751
16090W        W16954  16.439  17.579   5.911  0.2764 -0.3151  0.1435
16091W        W16955  17.349  17.552   4.852  0.2460  0.0984  0.1069
16092W        W16956  14.685  19.485  13.034  0.1422 -0.1889  0.1940
16093W        W16957  15.370  17.482  10.052 -0.1685 -0.0987  0.0471
16094W        W16958  18.257  18.632  12.482 -0.3051 -0.1707 -0.4272
16095W        W16959  19.357  19.333  11.169  0.2464  0.1542 -0.1546
16096W        W16960  18.261  17.334  10.070 -0.0207  0.3045  0.1499
16097W        W16961  17.494  16.851   6.161 -0.1634  0.1343 -0.0975
16098W        W16962  17.198  16.212  10.082  0.2141 -0.0207 -0.0735
16099W        W16963  17.108  16.341   7.717  0.0278  0.1208  0.0342
16100W        W16964  17.716  20.059  10.342  0.2501 -0.0172  0.2779
16101W        W16965  13.934  16.690  11.008  0.0143 -0.2083 -0.0447
16102W        W16966  14.884  12.478   9.094 -0.0089 -0.0583  0.0994
16103W        W16967  17.287  15.199   9.811 -0.4098  0.0316 -0.0903
16104W        W16968  15.011  15.027   8.774 -0.0187 -0.1259  0.2127
16105W        W16969  18.135  14.841  10.809  0.1337  0.0802  0.1478
16106W        W16970  15.456  16.828  12.454  0.1443  0.0370 -0.0002
16107W        W16971  16.032  18.932   9.386 -0.1654  0.1459  0.0974
16108W        W16972  16.367  17.542  12.718 -0.2058  0.3951 -0.0455
16109W        W16973  15.304  15.454   8.744 -0.2797  0.0837 -0.0468
16110W        W16974  16.053  16.370  10.803  0.1892 -0.1162  0.2002
16111W        W16975  16.692  15.066   9.527 -0.2182 -0.2799 -0.0218
16112W        W16976  13.892  17.814  11.058  0.2385 -0.0648  0.1628
16113W        W16977  16.561  13.421   9.634  0.0567  0.0610 -0.0812
16114W        W16978  14.083  17.104  10.752  0.3749 -0.0493 -0.0666
16115W        W16979  14.879  15.499   8.538  0.0682 -0.1404  0.1498
16116W        W16980  15.449  16.064  11.017  0.1249  0.3832 -0.0221
16117W        W16981  16.932  18.490  11.766  0.0597 -0.1282  0.1630
16118W        W16982  17.355  15.648  10.842 -0.1573 -0.0220  0.0819
16119W        W16983  16.178  17.920   9.741 -0.0511 -0.0370 -0.0404
16120W        W16984  18.004  16.454  15.439  0.0103 -0.0249  0.1967
16121W        W16985  16.643  19.007  10.516 -0.3420 -0.1918 -0.1405
16122W        W16986  14.757  18.105   9.974 -0.0522 -0.0831  0.0678
16123W        W16987  16.517  20.540  11.338 -0.0253 -0.1214  0.1492
16124W        W16988  18.782  17.485  11.329  0.0552  0.3520  0.1225
16125W        W16989  17.361  15.026  12.058 -0.1703 -0.0509  0.0983
16126W        W16990  12.199  16.588  11.934  0.0599 -0.1178  0.1434
16127W        W16991  17.661  17.195  10.693  0.3983 -0.2040 -0.0340
16128W        W16992  13.976  15.744   7.959  0.0810  0.3508 -0.1095
16129W        W16993  16.110  19.558  11.024  0.0785 -0.1406  0.0274
16130W        W16994  20.781  16.021  11.056  0.0014  0.3199 -0.1867
16131W        W16995  16.531  14.875   8.797 -0.0630  0.1166  0.0202
16132W        W16996  19.285  15.561   7.807  0.0171  0.0205 -0.3016
16133W        W16997  18.959  15.823  10.935  0.2093 -0.3399  0.2337
16134W        W16998  17.389  19.438  10.789 -0.2248  0.0297  0.0557
16135W        W16999  18.822  15.271   9.397  0.0933  0.0250 -0.2747
16136W        W17000  16.643  19.795  10.877  0.1877  0.0592 -0.0737
16137W        W17001  17.287  18.996   7.399 -0.1489  0.1004 -0.1581
16138W        W17002  14.995  14.284  10.785  0.1691  0.1268  0.0255
16139W        W17003  16.967  14.874  11.769  0.0493  0.3248  0.4526
16140W        W17004  16.761  14.914   7.680 -0.2014  0.0575 -0.2178
16141W        W17005  15.760  14.956   8.121  0.0448 -0.0191  0.0287
16142W        W17006  18.754  17.427  10.790  0.3683  0.0575 -0.3126
16143W        W17007  15.187  15.561  11.628 -0.0644  0.3056 -0.1390
16144W        W17008  16.972  16.769  10.979 -0.2336 -0.0025 -0.1917
16145W        W17009  15.435  16.927   7.122  0.0269  0.1797  0.3427
16146W        W17010  17.273  12.746   8.752 -0.1383 -0.2536  0.1151
16147W        W17011  17.881  18.241  10.446  0.0756  0.1211 -0.0953
16148W        W17012  15.407  17.291   7.863  0.0957  0.0550  0.1496
16149W        W17013  18.508  15.910  11.172  0.0046 -0.0470  0.0925
16150W        W17014  15.273  17.403   8.351 -0.0108  0.1886  0.1154
16151W        W17015  15.923  17.348   8.720  0.2337  0.0930  0.2326
16152W        W17016  18.567  16.897  10.802 -0.1564 -0.0523 -0.0926
16153W        W17017  16.708  17.303  10.962  0.0596  0.0756 -0.2438
16154W        W17018  17.257  17.888  11.648  0.2389 -0.0513  0.0001
16155W        W17019  18.488  14.516   9.601  0.1023  0.0720  0.2175
16156W        W17020  15.180  16.878  10.595  0.0755 -0.0778 -0.0608
16157W        W17021  17.814  14.394  11.804 -0.1752 -0.2958  0.0654
16158W        W17022  17.550  15.419   8.694 -0.3786  0.0404 -0.2818
16159W        W17023  16.971  14.492   7.148  0.0018 -0.2618  0.0509
16160W        W17024  18.457  17.755  11.016 -0.1792 -0.3700  0.2457
16161W        W17025  16.739  17.231   9.212 -0.0599 -0.0842 -0.0141
16162W        W17026  16.612  18.519  11.393  0.0668  0.0582 -0.0769
16163W        W17027  18.199  14.791   8.836 -0.1297 -0.1246  0.1357
16164W        W17028  18.171  18.632  10.315  0.4080 -0.0339 -0.1454
16165W        W17029  18.636  15.678   9.749  0.0874  0.0988 -0.1558
16166W        W17030  18.508  17.503   8.943 -0.4202 -0.0388 -0.1202
16167W        W17031  17.075  14.976  12.566 -0.0263 -0.0394 -0.1086
16168W        W17032  14.834  17.451   9.952 -0.1028  0.0834 -0.0353
16169W        W17033  17.749  18.675  12.372  0.1079 -0.0625  0.1428
16170W        W17034  16.737  15.248   9.091 -0.0219 -0.1716  0.1422
16171W        W17035  16.123  16.066   7.875 -0.0070 -0.1238 -0.0608
16172W        W17036  19.163  16.975  10.527  0.1825 -0.3723  0.1593
16173W        W17037  12.671  18.415  11.831  0.1040 -0.1533  0.1939
16174W        W17038  16.001  17.363  10.459  0.1575  0.1509  0.0026
16175W        W17039  15.142  17.076  11.044  0.0963 -0.3861 -0.1413
16176W        W17040  16.207  15.096  10.963 -0.1420 -0.2703 -0.0249
16177W        W17041  15.105  15.878   6.374 -0.1035  0.0545  0.1338
16178W        W17042  18.210  16.122   9.217  0.0568 -0.2888 -0.2420
16179W        W17043  16.107  14.569  11.049  0.1547 -0.0600  0.0467
16180W        W17044  17.930  16.266  13.034  0.2176  0.1404  0.0412
16181W        W17045  17.719  15.257  11.521 -0.1587  0.1978 -0.0878
16182W        W17046  17.736  15.076  10.062  0.0595 -0.0103  0.0417
16183W        W17047  18.336  16.434  14.776 -0.0364 -0.0868 -0.1637
16184W        W17048  16.694  16.216  10.160 -0.2077  0.0487  0.0997
16185W        W17049  17.751  13.236   8.771 -0.4005 -0.0044  0.2558
16186W        W17050  14.047  14.001  12.870  0.0216 -0.0453  0.0606
16187W        W17051  17.693  15.953  11.056  0.0918 -0.0634 -0.0234
16188W        W17052  17.926  17.714   8.220 -0.1822 -0.0760  0.0686
16189W        W17053  16.104  19.761   9.106 -0.2070  0.2297 -0.1218
16190W        W17054  15.805  12.799   8.735 -0.0461  0.2484  0.0123
16191W        W17055  20.317  16.913  12.394  0.0945 -0.2353 -0.2002
16192W        W17056  18.062  17.718  10.247  0.2373 -0.2467 -0.1339
16193W        W17057  16.314  14.565  10.045 -0.2735  0.2506  0.3818
16194W        W17058  18.394  12.720   7.131 -0.1105 -0.1748  0.1315
16195W        W17059  17.994  20.191  11.244  0.0124  0.3015  0.1065
16196W        W17060  22.103  12.655   9.512 -0.4263 -0.1264 -0.0685
16197W        W17061  17.363  16.589  11.851  0.2968 -0.0915 -0.0309
16198W        W17062  18.833  17.256   8.077  0.0887 -0.0819 -0.0889
16199W        W17063  16.578  16.838  11.324 -0.0750  0.0678  0.0327
16200W        W17064  18.124  15.084  11.269 -0.1497  0.0841 -0.0948
16201W        W17065  18.306  16.478  10.469 -0.0788  0.2430  0.0923
16202W        W17066  16.778  17.530  10.329 -0.0524  0.0405  0.0136
16203W        W17067  15.851  18.544   8.087 -0.2964  0.0587 -0.1487
16204W        W17068  17.403  14.526  10.873 -0.0752  0.1467  0.0214
16205W        W17069  17.397  16.672  12.395 -0.0580 -0.2055 -0.0099
16206W        W17070  20.387  15.811   8.661 -0.3758 -0.1305  0.1160
16207W        W17071  14.561  17.048   9.963 -0.1470  0.1004  0.0539
16208W        W17072  19.540  14.031  11.458 -0.0243  0.1964  0.0500
16209W        W17073  18.343  17.740  11.468  0.0760  0.0515  0.0768
16210W        W17074  15.410  13.820   9.576 -0.0426  0.1097 -0.1429
16211W        W17075  14.169  16.248  10.952  0.2445 -0.0046  0.2690
16212W        W17076  19.615  15.299   8.175 -0.0883 -0.0597  0.3496
16213W        W17077  19.625  20.057  11.385 -0.2181 -0.0389  0.1879
16214W        W17078  16.486  16.805  10.795 -0.2443 -0.1449  0.3993
16215W        W17079  19.501  16.433   8.069  0.3177  0.2251 -0.0098
16216W        W17080  16.450  18.222  11.956 -0.0675  0.2835  0.0928
16217W        W17081  17.631  16.997  11.825  0.3107  0.1541 -0.1052
16218W        W17082  15.010  15.167   9.403 -0.2557  0.0158 -0.0403
16219W        W17083  18.329  16.578  12.772  0.2109  0.0241 -0.1487
16220W        W17084  15.703  19.526   7.989 -0.1335 -0.0323 -0.0098
16221W        W17085  15.270  17.242   9.609  0.1563 -0.0472  0.2408
16222W        W17086  18.303  19.997  10.832 -0.1289  0.2707 -0.1563
16223W        W17087  15.346  16.405  10.492  0.1142 -0.0622 -0.1510
16224W        W17088  16.220  18.173  11.419  0.1303  0.0964  0.0889
16225W        W17089  16.435  15.395  10.600 -0.1956 -0.2489  0.2508
16226W        W17090  16.035  14.756   8.790 -0.3547  0.0290 -0.0469
16227W        W17091  17.737  15.964   8.832 -0.3787 -0.3107  0.1395
16228W        W17092  19.351  15.679  10.695  0.1649 -0.3195 -0.0823
16229W        W17093  17.245  13.986  11.312 -0.0763 -0.0196  0.2191
16230W        W17094  19.664  17.835   7.168 -0.1738  0.1292 -0.1212
16231W        W17095  16.658  14.983   7.205 -0.0764  0.2662  0.0117
16232W        W17096  16.071  15.286   7.866 -0.1390  0.0208 -0.2741
16233W        W17097  16.111  13.143   9.392  0.3029 -0.1747  0.0564
16234W        W17098  17.487  16.153   7.994  0.0004  0.2982  0.0014
16235W        W17099  17.627  14.866   7.709 -0.0497 -0.3023 -0.0143
16236W        W17100  17.280  18.137  12.466 -0.2592  0.0060  0.0165
16237W        W17101  16.279  12.317   7.700 -0.0051 -0.0055  0.1393
16238W        W17102  20.817  15.738   9.519  0.2486  0.2106  0.2886
16239W        W17103  17.110  16.700   8.089  0.2089  0.2034 -0.2664
16240W        W17104  15.776  19.032   9.859  0.2525  0.0233 -0.2302
16241W        W17105  17.521  15.804   8.388  0.0272 -0.0153  0.1539
16242W        W17106  16.959  16.867   9.409 -0.0582 -0.0726  0.5296
16243W        W17107  16.315  13.506   7.475 -0.0618  0.2161  0.1632
16244W        W17108  16.848  16.249  12.011 -0.0507  0.1106 -0.1973
16245W        W17109  15.423  16.874   8.114  0.2557 -0.1597  0.1343
16246W        W17110  14.514  13.310  13.193  0.1470 -0.1487 -0.0874
16247W        W17111  16.702  13.103   7.549 -0.1938  0.2993 -0.0518
16248W        W17112  15.816  17.713  11.366  0.1255  0.0579  0.2253
16249W        W17113  16.433  16.889  11.833  0.0228  0.2564 -0.0799
16250W        W17114  16.379  16.096   8.571  0.0166  0.0379 -0.0812
16251W        W17115  17.213  16.031  11.744  0.1123  0.2041 -0.1998
16252W        W17116  22.264  16.178   8.510 -0.1249 -0.1508 -0.0637
16253W        W17117  18.033  17.148  12.165 -0.0486  0.0188 -0.0992
16254W        W17118  19.059  15.706  11.441 -0.3697  0.1997  0.2381
16255W        W17119  18.630  18.035  14.657 -0.4040 -0.2245  0.0121
16256W        W17120  18.242  14.489  13.154  0.2352 -0.2276 -0.0824
16257W        W17121  16.085  18.606  11.208  0.3192 -0.1709 -0.3193
16258W        W17122  15.013  12.932   8.834 -0.2577 -0.2769  0.0743
16259W        W17123  14.092  17.778  11.939 -0.3409 -0.1351 -0.2700
16260W        W17124  18.734  15.968  13.381  0.3240 -0.1884  0.0605
16261W        W17125  14.902  17.327  10.436  0.0618 -0.1050  0.0942
16262W        W17126  14.876  15.735  13.513 -0.0068  0.1129 -0.3810
16263W        W17127  16.920  15.833   9.136  0.0599 -0.1601  0.0003
16264W        W17128  15.657  20.661  10.107 -0.1822  0.1423  0.1777
16265W        W17129  18.148  17.922   9.274  0.0027  0.1943 -0.0211
16266W        W17130  19.613  12.973   8.418 -0.2263 -0.0119 -0.0824
16267W        W17131  18.342  15.321   8.969  0.0282  0.3670  0.0490
16268W        W17132  16.883  18.952  11.547  0.2464 -0.1640 -0.2714
16269W        W17133  16.538  18.525  10.805  0.1070 -0.2853 -0.2083
16270W        W17134  16.923  16.472   7.175  0.3632 -0.0568  0.1398
16271W        W17135  15.405  14.997   9.021 -0.0315  0.2567 -0.1749
16272W        W17136  19.053  19.840  10.325 -0.1880  0.0426  0.1485
16273W        W17137  19.304  17.838  10.043 -0.0716 -0.0857 -0.0321
16274W        W17138  17.223  17.410  10.572  0.2036 -0.0898  0.0062
16275W        W17139  16.765  15.740   9.765  0.0073 -0.0782  0.4687
16276W        W17140  13.942  14.867   8.582  0.1533 -0.0275 -0.0718
16277W        W17141  16.574  18.084  11.076  0.1795 -0.0782  0.2325
16278W        W17142  18.820  14.849  10.516 -0.1318  0.2443  0.0044
16279W        W17143  13.112  14.812   4.671 -0.2439 -0.0818  0.2497
16280W        W17144  16.560  18.808  11.928 -0.1288 -0.0806  0.0392
16281W        W17145  16.225  15.033   9.670 -0.3089 -0.0270 -0.3432
16282W        W17146  16.079  16.008   8.955 -0.1524  0.0726 -0.2311
16283W        W17147  15.739  16.993   4.892  0.0191  0.1064  0.1771
16284W        W17148  14.836  17.169  11.413  0.0690  0.1261  0.0112
16285W        W17149  15.185  15.160   9.903 -0.1039  0.0942  0.2219
16286W        W17150  16.758  13.876  10.948  0.2383 -0.2555  0.0494
16287W        W17151  17.151  14.004   6.585  0.1576 -0.3311  0.0950
16288W        W17152  16.233  15.643   8.437 -0.1728 -0.1639 -0.1614
16289W        W17153  15.820  14.080   9.283  0.1812  0.0189 -0.1735
16290W        W17154  16.436  15.642   7.668  0.1207 -0.0908 -0.2742
16291W        W17155  18.233  14.121  11.569 -0.6196 -0.1948  0.2883
16292W        W17156  12.640  16.405   8.537  0.3043 -0.0119  0.0970
16293W        W17157  17.595  12.630  11.388  0.1586  0.3155  0.2344
16294W        W17158  17.413  18.458   7.541  0.1508  0.4023 -0.1327
16295W        W17159  16.651  15.339   8.036  0.2723  0.1315 -0.0447
16296W        W17160  15.817  12.175  10.300  0.4477  0.1193 -0.1074
16297W        W17161  14.271  15.846   6.084 -0.1087  0.3831 -0.1301
16298W        W17162  16.878  17.070  11.591  0.2484  0.0875 -0.1101
16299W        W17163  17.577  16.960  12.850 -0.0195 -0.1812  0.0042
16300W        W17164  13.317  19.517   7.135 -0.0427  0.2832  0.1152
16301W        W17165  14.282  17.759   7.115 -0.4250 -0.5289  0.1215
16302W        W17166  16.093  16.783  11.083 -0.2276  0.1901 -0.0781
16303W        W17167  13.186  18.754  11.081  0.0123 -0.0025 -0.0945
16304W        W17168  16.142  16.460  10.246  0.3675  0.0091 -0.0812
16305W        W17169  18.618  15.107  11.528 -0.0350  0.0411 -0.1902
16306W        W17170  17.221  17.464  10.067 -0.3386  0.1532  0.0515
16307W        W17171  21.581  16.107   8.781  0.0624  0.3334  0.3923
16308W        W17172  16.357  15.280  12.255  0.0497  0.0620  0.1858
16309W        W17173  15.777  16.448   7.965 -0.0533 -0.0224 -0.2157
16310W        W17174  15.961  14.512  11.510  0.1018  0.0792 -0.3265
16311W        W17175  14.485  19.102  10.720  0.1275  0.1391 -0.1671
16312W        W17176  19.711  13.466  11.431 -0.0818  0.0723 -0.1935
16313W        W17177  18.040  14.870  11.680 -0.0678  0.0109 -0.2200
16314W        W17178  15.573  20.734   8.990 -0.0867 -0.2767  0.0752
16315W        W17179  15.794  14.015   8.008  0.3265  0.2109 -0.0319
16316W        W17180  16.911  17.046  10.570 -0.0242  0.0456  0.1305
16317W        W17181  15.031  17.844  10.288  0.0231  0.1777 -0.0370
16318W        W17182  17.383  17.161  12.215 -0.1309 -0.0317  0.1345
16319W        W17183  18.567  13.559  10.436  0.2966  0.0102  0.3195
16320W        W17184  17.981  17.467   9.223  0.2553  0.0858  0.0280
16321W        W17185  18.037  16.153  10.221  0.1755  0.1934 -0.0532
16322W        W17186  14.692  14.705  11.570  0.2779  0.1248  0.1505
16323W        W17187  14.770  16.486  10.696 -0.0871 -0.2675  0.2276
16324W        W17188  17.267  16.594   6.839  0.0442  0.1694  0.0732
16325W        W17189  17.697  14.759   8.950  0.2882  0.1631 -0.1306
16326W        W17190  14.554  15.176   9.038 -0.2289  0.1633  0.2239
16327W        W17191  16.402  17.439   9.988  0.4182  0.0007 -0.1999
16328W        W17192  19.317  14.259   9.957 -0.1878  0.3702 -0.0154
16329W        W17193  17.200  13.794   8.634 -0.1874  0.2136  0.5322
16330W        W17194  16.405  17.630  10.644  0.1246 -0.0394 -0.0082
16331W        W17195  16.481  17.144  10.387  0.1825  0.0256 -0.0431
16332W        W17196  13.768  19.906   7.063 -0.1532  0.2065 -0.2079
16333W        W17197  15.261  17.607   9.207  0.1456 -0.3677 -0.1027
16334W        W17198  17.903  14.490   7.657  0.2168 -0.1708  0.0643
16335W        W17199  18.949  15.003   6.614  0.0270  0.2163 -0.0276
16336W        W17200  18.267  13.993   8.542  0.0210 -0.1380 -0.2618
16337W        W17201  16.661  16.756   8.405  0.1798  0.2935 -0.2070
16338W        W17202  19.532  18.947  10.824  0.4457 -0.0011 -0.1184
16339W        W17203  18.819  19.620  11.736 -0.1805 -0.1528  0.2729
16340W        W17204  15.751  17.665   9.188  0.0193  0.2298 -0.1729
16341W        W17205  15.415  15.417   9.271  0.0641  0.3849 -0.1058
16342W        W17206  18.683  16.362   5.160 -0.0609 -0.1380 -0.1446
16343W        W17207  16.793  16.375  14.409  0.2240  0.0205 -0.3315
16344W        W17208  18.790  18.024  12.959  0.2407 -0.2460  0.3218
16345W        W17209  16.162  14.721  10.541  0.2203  0.2943 -0.0761
16346W        W17210  15.512  17.679   8.689 -0.1311  0.0093  0.0319
16347W        W17211  17.042  18.203   9.929  0.2034  0.1469 -0.0455
16348W        W17212  18.430  15.833   8.852  0.4368 -0.0186  0.1030
16349W        W17213  15.095  15.144  11.991 -0.1512  0.0791 -0.0391
16350W        W17214  17.658  18.607  10.783 -0.1125  0.0910 -0.1306
16351W        W17215  19.165  15.265   9.768  0.0024  0.1386  0.1057
16352W        W17216  16.405  14.633   6.847 -0.0137 -0.0658 -0.0453
16353W        W17217  15.906  16.563   9.754  0.1989  0.2292  0.0118
16354W        W17218  18.590  17.001  11.283 -0.1442 -0.0419  0.0549
16355W        W17219  14.068  17.481  12.404  0.2412 -0.0729  0.1440
16356W        W17220  15.234  19.200  10.881  0.2932  0.0146 -0.3243
16357W        W17221  16.807  18.847  11.053  0.2780 -0.2356 -0.2521
16358W        W17222  16.381  17.582   8.335  0.4245  0.1281 -0.0951
16359W        W17223  16.062  16.477  11.510 -0.3388 -0.1460  0.0893
16360W        W17224  15.872  18.157  10.068  0.1434  0.0465  0.0441
16361W        W17225  19.202  15.610   8.353 -0.2489  0.2317 -0.0176
16362W        W17226  17.323  16.901  11.424  0.2957 -0.0300 -0.0649
16363W        W17227  19.579  16.478  12.246 -0.1223  0.0411 -0.0168
16364W        W17228  18.206  15.316   9.983  0.0092  0.3644  0.0081
16365W        W17229  16.029  16.870  10.547 -0.0246 -0.3124 -0.1756
16366W        W17230  17.680  17.271  11.226 -0.1084 -0.2327  0.0608
16367W        W17231  15.826  16.155  11.764  0.1695  0.1784  0.0461
16368W        W17232  14.712  16.119  11.163  0.1336 -0.1499 -0.1152
16369W        W17233  16.431  16.342  11.176 -0.0799  0.1560  0.2509
16370W        W17234  16.645  15.894   6.744 -0.1761  0.2336  0.0359
16371W        W17235  17.820  17.722   8.734 -0.1175 -0.0711 -0.1456
16372W        W17236  14.767  16.098  10.332 -0.3458 -0.0467 -0.0666
16373W        W17237  17.199  14.991   7.323 -0.1725 -0.1336 -0.2230
16374W        W17238  13.696  14.106   9.677  0.0132 -0.0660 -0.0572
16375W        W17239  13.568  17.407   9.810  0.0567  0.2452  0.0021
16376W        W17240  20.470  17.477   7.244  0.0749 -0.0460  0.0052
16377W        W17241  14.989  15.673  10.318  0.1485  0.2925 -0.1590
16378W        W17242  18.972  17.926   9.667 -0.1688 -0.1810 -0.0254
16379W        W17243  14.670  14.477  11.089  0.1126  0.0595  0.0881
16380W        W17244  16.640  14.153   7.489 -0.3155  0.1329 -0.1848
16381W        W17245  17.613  16.628   8.181 -0.0575 -0.1193  0.2854
16382W        W17246  18.342  14.678   7.432  0.2996  0.1160  0.3091
16383W        W17247  19.089  13.090   7.935  0.1492 -0.1816  0.1369
16384W        W17248  15.129  16.471  11.050 -0.2793 -0.1800 -0.0824
16385W        W17249  16.694  17.849   9.907 -0.1719 -0.0411  0.2368
16386W        W17250  19.174  17.110   8.799  0.1755 -0.0926 -0.0626
16387W        W17251  17.096  15.994  10.529 -0.1081 -0.0790  0.0644
16388W        W17252  15.918  15.620  10.078 -0.0639 -0.0174  0.1753
16389W        W17253  17.071  12.211   9.381  0.1968 -0.0228 -0.1452
16390W        W17254  16.801  15.732  10.909  0.0262 -0.1297  0.0403
16391W        W17255  15.024  17.694  11.439 -0.1570 -0.0691  0.0387
16392W        W17256  17.443  15.634   9.125  0.2387  0.2427  0.2060
16393W        W17257  15.119  15.622  12.188  0.4199  0.1531  0.0389
16394W        W17258  12.459  18.923  10.107  0.0004 -0.0539  0.0830
16395W        W17259  18.837  17.721  11.768  0.3132 -0.1301  0.4344
16396W        W17260  18.450  16.655   7.065  0.2752  0.2835 -0.1006
16397W        W17261  17.555  17.749   9.224 -0.0466 -0.1254  0.1036
16398W        W17262  19.019  16.975  11.680 -0.0779 -0.1549 -0.0707
16399W        W17263  17.863  15.208   9.006 -0.4320  0.1126 -0.3939
16400W        W17264  18.747  15.476   7.906  0.1371  0.3281  0.1735
16401W        W17265  15.445  18.288  10.412 -0.2872 -0.0323 -0.1584
16402W        W17266  15.708  13.276   8.869 -0.0215  0.1683  0.2158
16403W        W17267  19.590  16.504  11.275 -0.2110 -0.0861 -0.1910
16404W        W17268  16.416  14.693  13.017 -0.1541  0.0487 -0.2140
16405W        W17269  16.606  16.278  10.682 -0.1286 -0.0888  0.3949
16406W        W17270  15.242  19.737   9.235  0.1561  0.0685 -0.0157
16407W        W17271  16.090  18.543  11.762 -0.0212  0.0293  0.3475
16408W        W17272  15.579  17.186  10.364  0.0616 -0.2442 -0.0932
16409W        W17273  16.089  16.226   9.409  0.3289  0.2813  0.0412
16410W        W17274  18.332  16.475  11.205 -0.1732  0.0640 -0.1534
16411W        W17275  13.403  16.639  11.309  0.2395  0.1106  0.1339
16412W        W17276  14.944  17.419  11.838  0.1532 -0.0183 -0.1705
16413W        W17277  18.189  16.076  10.779  0.1241  0.3900 -0.0425
16414W        W17278  16.006  16.933  11.567 -0.2170  0.0602 -0.1816
16415W        W17279  18.916  17.926  11.291  0.0930 -0.1653  0.2788
16416W        W17280  15.309  18.225   9.458  0.0341  0.0796  0.0392
16417W        W17281  20.251  18.686  12.191 -0.1746  0.3260 -0.1060
16418W        W17282  17.857  14.824   7.315 -0.0127  0.0321  0.0352
16419W        W17283  13.129  19.508   9.585 -0.3222 -0.0391  0.0552
16420W        W17284  14.700  14.958   6.504  0.0586  0.1652 -0.0592
16421W        W17285  13.499  14.012   9.163 -0.0708 -0.1043 -0.1333
16422W        W17286  14.863  16.072  12.763 -0.0016 -0.1800 -0.2124
16423W        W17287  16.199  15.264   8.930 -0.0142 -0.0373 -0.1404
16424W        W17288  20.112  15.483  10.002 -0.0287 -0.0052 -0.1058
16425W        W17289  16.631  19.477  11.272  0.0303  0.3859 -0.2366
16426W        W17290  20.073  14.530  10.613  0.1702  0.1472 -0.0284
16427W        W17291  16.194  18.069  12.590 -0.2892  0.1738 -0.1047
16428W        W17292  14.984  18.306  10.618 -0.0787  0.0862  0.3850
16429W        W17293  17.447  16.701   7.654  0.2288 -0.1947 -0.0961
16430W        W17294  17.057  17.754   9.297  0.0715  0.2795  0.0777
16431W        W17295  19.033  14.593   7.857  0.0856 -0.1906 -0.2385
16432W        W17296  16.296  17.180   7.085 -0.0953 -0.1486 -0.3696
16433W        W17297  15.096  14.221   9.780 -0.2172 -0.0578 -0.0264
16434W        W17298  17.962  13.948   6.830 -0.2760  0.1686  0.1677
16435W        W17299  14.180  16.876  10.249 -0.1711 -0.1345 -0.1019
16436W        W17300  15.738  15.916  10.499  0.2509  0.1017 -0.0392
16437W        W17301  15.108  18.643  12.110  0.2829  0.1892  0.0536
16438W        W17302  17.871  16.556   6.226  0.0376  0.0524 -0.3049
16439W        W17303  14.880  13.372   9.577 -0.2030  0.2184 -0.1159
16440W        W17304  19.166  16.899  12.211 -0.1959 -0.0078  0.1429
16441W        W17305  15.692  12.903   9.231  0.0632  0.0766 -0.0509
16442W        W17306  15.740  17.277  12.391 -0.0300  0.1702 -0.1989
16443W        W17307  17.168  15.335   8.326  0.0389 -0.3323 -0.1924
16444W        W17308  14.437  15.696  10.175 -0.0513  0.0865  0.0157
16445W        W17309  17.395  16.346  12.756  0.0356  0.1660 -0.2323
16446W        W17310  16.924  18.622   9.593 -0.3176 -0.2202  0.1864
16447W        W17311  18.243  14.326   9.163  0.1868  0.2927  0.1466
16448W        W17312  16.683  18.030  10.520 -0.0899  0.0546 -0.2332
16449W        W17313  17.299  15.757  12.808 -0.2372  0.0627 -0.2394
16450W        W17314  15.372  17.370  12.078  0.2183  0.1830 -0.1142
16451W        W17315  15.060  13.802   9.200 -0.1673  0.2770  0.0437
16452W        W17316  16.625  14.942  10.413 -0.1315 -0.1509 -0.1367
16453W        W17317  17.642  14.857  11.089  0.0024 -0.3140 -0.1357
16454W        W17318  15.814  15.600  10.935  0.3099  0.0566  0.0935
16455W        W17319  19.102  13.194   9.782  0.2355  0.0763  0.1424
16456W        W17320  16.042  18.277   8.909 -0.0973 -0.1755 -0.0232
16457W        W17321  18.257  16.647  12.282  0.1241  0.0438 -0.3487
16458W        W17322  18.006  14.800   8.107  0.0714 -0.0141  0.1277
16459W        W17323  16.855  17.616  11.844 -0.0753  0.0214  0.1604
16460W        W17324  16.247  15.915  10.370 -0.2542 -0.0954 -0.0270
16461W        W17325  20.878  16.312   7.834 -0.1849  0.1912  0.1079
16462W        W17326  15.744  18.709   7.599  0.1090 -0.1279  0.2176
16463W        W17327  18.127  14.786   9.335 -0.1327  0.3931  0.2183
16464W        W17328  15.603  16.128   9.598 -0.0453  0.0488 -0.0175
16465W        W17329  18.516  14.218  11.085 -0.1066  0.1766  0.0507
16466W        W17330  16.071  16.893   9.451 -0.1017 -0.0044  0.2174
16467W        W17331  16.496  14.578   9.542  0.1685  0.2840 -0.0770
16468W        W17332  16.016  15.708  12.526 -0.1918 -0.1439  0.1501
16469W        W17333  19.288  20.390  12.177  0.0618  0.0901 -0.0578
16470W        W17334  12.603  16.241  13.147  0.0555  0.1452  0.3609
16471W        W17335  14.777  15.866  11.939  0.1189  0.3346  0.2246
16472W        W17336  16.494  16.363  11.685  0.2745  0.2540 -0.0482
16473W        W17337  14.829  14.744   9.869 -0.3339 -0.2621  0.2788
16474W        W17338  18.026  16.828  10.840  0.1743 -0.2258  0.3374
16475W        W17339  17.326  17.384  11.555 -0.0734  0.3164  0.1705
16476W        W17340  16.918  14.324  11.071 -0.1797  0.1246  0.2483
16477W        W17341  18.301  15.285   9.468 -0.3200  0.4707 -0.1203
16478W        W17342  18.630  16.672  11.692  0.0631  0.2165  0.1384
16479W        W17343  15.803  18.161   9.418  0.1913  0.7112 -0.1620
16480W        W17344  18.024  17.357  11.714  0.2221  0.1060 -0.3204
16481W        W17345  17.855  17.334  12.990  0.1300 -0.1286 -0.0573
16482W        W17346  15.184  18.468  11.635  0.0698  0.2547  0.2408
16483W        W17347  18.147  16.249   8.716  0.0990 -0.0668 -0.0111
16484W        W17348  17.570  17.739  10.453  0.1633 -0.2219 -0.2561
16485W        W17349  14.010  18.292  10.889 -0.0465 -0.0466  0.1174
16486W        W17350  18.785  13.831  10.978 -0.2833  0.0576 -0.0648
16487W        W17351  17.454  18.035   7.968  0.2451 -0.2070 -0.0464
16488W        W17352  18.992  15.516  13.650 -0.1477  0.0759 -0.0201
16489W        W17353  16.133  18.672   9.824 -0.2028 -0.1338 -0.1330
16490W        W17354  14.672  16.607   6.374 -0.2585 -0.0821  0.4198
16491W        W17355  15.926  18.222  14.275  0.1101 -0.1089 -0.3398
16492W        W17356  18.106  21.261  13.262  0.0387 -0.0638 -0.1383
16493W        W17357  18.054  17.365  13.479  0.1126  0.2680 -0.0327
16494W        W17358  17.394  18.437  15.426 -0.1806 -0.0091  0.0116
16495W        W17359  16.926  18.490  12.280  0.0195 -0.1397  0.2531
16496W        W17360  13.707  17.367  11.823  0.2756  0.2606 -0.0094
16497W        W17361  16.361  17.385  14.329  0.1473  0.2295 -0.0813
16498W        W17362  16.542  15.878  13.396 -0.1590  0.1416  0.1353
16499W        W17363  14.799  17.722  13.154 -0.0736  0.0268  0.2327
16500W        W17364  15.427  15.637  14.363 -0.0324 -0.2958  0.3347
16501W        W17365  14.439  12.947  15.146 -0.2137  0.1888 -0.4866
16502W        W17366  16.075  14.689  14.083 -0.0161  0.2533  0.0238
16503W        W17367  18.223  13.723  13.660  0.0689 -0.3406 -0.2354
16504W        W17368  17.722  16.909  16.541 -0.1760 -0.1080 -0.2416
16505W        W17369  13.166  13.887  14.354  0.0039 -0.1773  0.1387
16506W        W17370  17.360  16.237  16.196 -0.0059 -0.2891  0.1871
16507W        W17371  16.202  19.696  11.853 -0.0382  0.0613  0.0434
16508W        W17372  13.180  17.882  14.682  0.3850 -0.0235  0.1147
16509W        W17373  15.636  14.172  13.199  0.0180 -0.1331  0.0359
16510W        W17374  19.320  15.322  12.660  0.1060 -0.1250 -0.0895
16511W        W17375  20.318  17.646  13.044 -0.1663  0.1808  0.1360
16512W        W17376  15.314  19.005  16.028 -0.2295  0.0729 -0.0402
16513W        W17377  14.687  16.199  14.235 -0.0606  0.0333 -0.0664
16514W        W17378  13.971  16.906  14.082  0.1269 -0.1338  0.0969
16515W        W17379  15.458  17.087  14.162  0.0226 -0.1713 -0.1809
16516W        W17380  17.419  15.431  15.721 -0.1570 -0.2192  0.1810
16517W        W17381  20.429  16.797  15.876 -0.0364  0.1658  0.0740
16518W        W17382  17.977  15.421  15.907  0.2154  0.3053 -0.1198
16519W        W17383  20.381  18.011  13.978 -0.1719 -0.0700  0.1077
16520W        W17384  16.658  14.447  15.659  0.1537  0.0565  0.0013
16521W        W17385  13.806  15.830  12.412  0.2745 -0.1072  0.2729
16522W        W17386  18.597  17.831  14.112  0.0020 -0.1573  0.0142
16523W        W17387  14.439  14.307  13.419 -0.2969  0.1611 -0.0910
16524W        W17388  16.386  16.037  14.472 -0.1292 -0.2294  0.1640
16525W        W17389  15.147  15.582  13.949 -0.2266 -0.1274 -0.0683
16526W        W17390  16.969  16.040  12.526  0.0984 -0.1835  0.4095
16527W        W17391  16.701  15.877  12.914 -0.0131 -0.2191 -0.1577
16528W        W17392  17.297  17.628  14.131 -0.0475 -0.1054 -0.0373
16529W        W17393  17.574  19.313  11.457  0.0672 -0.1622 -0.4290
16530W        W17394  17.822  15.325  12.002 -0.1042  0.1205  0.2535
16531W        W17395  18.699  14.524  12.347  0.1687 -0.0014 -0.0501
16532W        W17396  19.304  16.536  14.554  0.0738  0.2581 -0.3555
16533W        W17397  17.801  19.016  11.997  0.1860  0.1037 -0.0946
16534W        W17398  20.418  17.562  13.609 -0.0168  0.0034 -0.1041
16535W        W17399  16.732  17.984  11.595  0.0406  0.3224  0.0466
16536W        W17400  15.662  19.988  11.981  0.1059  0.0905  0.0171
16537W        W17401  15.302  18.475  11.066 -0.0656  0.4333 -0.0231
16538W        W17402  18.763  14.972  14.225 -0.1251 -0.0012  0.0939
16539W        W17403  16.414  14.974  11.355  0.0382  0.2370 -0.1536
16540W        W17404  16.705  15.163  13.051 -0.2267 -0.0366 -0.2559
16541W        W17405  15.761  18.711  10.265  0.1372 -0.0917  0.1581
16542W        W17406  13.302  17.270  11.558 -0.0350  0.2124  0.2190
16543W        W17407  15.844  14.984  11.345  0.3735 -0.1113  0.1213
16544W        W17408  17.349  15.827  14.015 -0.2348 -0.3788  0.0628
16545W        W17409  16.434  16.666  12.789  0.0373  0.1033  0.0645
16546W        W17410  14.347  16.507  14.025  0.0632  0.3827 -0.0995
16547W        W17411  10.725  16.210  14.185  0.0223 -0.0263  0.1422
16548W        W17412  19.931  17.713  13.367 -0.0350  0.1464 -0.2024
16549W        W17413  15.391  18.204  12.178  0.0566  0.0474  0.1652
16550W        W17414  17.116  21.666  11.105  0.0514 -0.0278 -0.2217
16551W        W17415  18.661  16.147  11.675 -0.2993  0.1808 -0.2404
16552W        W17416  16.157  17.846  13.081 -0.0242  0.1190 -0.0656
16553W        W17417  14.768  16.979  13.238 -0.2850  0.0607  0.2062
16554W        W17418  15.312  19.877  11.623 -0.0079 -0.0584  0.1023
16555W        W17419  14.291  15.298  13.266  0.0394 -0.1942 -0.0073
16556W        W17420  18.489  15.755  13.762 -0.0851 -0.0667 -0.1049
16557W        W17421  15.656  17.778  10.419 -0.1453 -0.0897 -0.2295
16558W        W17422  14.180  16.031   8.726  0.0740  0.3133  0.3513
16559W        W17423  13.779  17.024  12.628 -0.3341  0.1508 -0.3025
16560W        W17424  17.248  19.851  12.658 -0.3687  0.1895  0.0533
16561W        W17425  18.942  19.627  13.200 -0.0441 -0.2216 -0.1176
16562W        W17426  18.235  15.986  13.363  0.1474  0.0052  0.4127
16563W        W17427  13.783  15.646  13.993  0.0962 -0.1380  0.0362
16564W        W17428  17.855  14.543  15.396  0.1840 -0.1922 -0.0012
16565W        W17429  18.992  17.061  12.701  0.0521  0.0561  0.0759
16566W        W17430  12.611  17.983  13.690  0.0583  0.3959  0.1152
16567W        W17431  14.550  17.628  11.353  0.0042 -0.1925  0.1268
16568W        W17432  15.059  17.609  13.738 -0.0128  0.0654 -0.1298
16569W        W17433  15.136  15.207  12.542  0.1506  0.2155  0.1499
16570W        W17434  16.443  18.852  12.877  0.2643 -0.0798 -0.2412
16571W        W17435  15.857  17.259  14.454  0.2773 -0.0946  0.0692
16572W        W17436  16.420  15.501  12.804 -0.0593  0.0296 -0.2191
16573W        W17437  14.449  15.661  14.434 -0.2703  0.1864 -0.1066
16574W        W17438  17.921  14.633  14.094 -0.2252 -0.1732  0.0897
16575W        W17439  16.727  14.089  16.047 -0.1088  0.0487  0.1994
16576W        W17440  17.270  15.094  15.253 -0.2464 -0.0857  0.1228
16577W        W17441  16.263  18.472  14.006  0.2647 -0.0408 -0.1289
16578W        W17442  16.833  15.310  11.469 -0.0588  0.0155  0.2503
16579W        W17443  14.457  16.484  14.799  0.1846  0.3411 -0.1995
16580W        W17444  15.134  16.036  15.470 -0.0942  0.0762 -0.2115
16581W        W17445  15.936  15.461  11.538 -0.0035  0.1212 -0.2010
16582W        W17446  18.069  15.499  13.465 -0.0790  0.0213  0.2307
16583W        W17447  18.243  19.758  11.677 -0.0309  0.1330  0.2892
16584W        W17448  13.302  18.007  10.177 -0.0122 -0.0208  0.2019
16585W        W17449  13.664  14.139  14.401 -0.0134 -0.2895  0.2494
16586W        W17450  16.602  14.783  10.892 -0.1303  0.3901  0.1106
16587W        W17451  17.384  15.556  13.428  0.1903 -0.0671 -0.0849
16588W        W17452  18.049  19.080  12.453 -0.0414 -0.0016  0.0643
16589W        W17453  14.416  15.611  11.677 -0.3650 -0.2892  0.2625
16590W        W17454  17.111  16.959  13.095 -0.2919 -0.2461  0.0349
16591W        W17455  21.667  18.624  12.654  0.1629 -0.0152 -0.1102
16592W        W17456  18.324  17.115  13.061  0.1236  0.2874  0.1504
16593W        W17457  14.784  14.287  11.664 -0.2875 -0.0867  0.2376
16594W        W17458  16.890  17.046  13.560  0.1155  0.2470 -0.3798
16595W        W17459  18.409  14.608  14.815  0.0900  0.0379  0.2914
16596W        W17460  15.650  16.083  15.638  0.1820  0.0148  0.2874
16597W        W17461  19.308  15.294  15.394  0.1315  0.1284 -0.1187
16598W        W17462  17.782  15.008  14.455 -0.2684 -0.1570 -0.1007
16599W        W17463  15.906  13.837  13.468  0.1550  0.2780  0.0391
16600W        W17464  15.857  18.459  10.703  0.1879  0.0025 -0.0520
16601W        W17465  13.300  16.939  12.300 -0.1196  0.3243  0.1454
16602W        W17466  20.551  20.596  13.271 -0.0343 -0.0009  0.1932
16603W        W17467  18.278  15.188  12.905  0.1966  0.1629 -0.0079
16604W        W17468  17.936  18.973  13.237  0.2604  0.1667 -0.0334
16605W        W17469  20.295  15.150  13.940 -0.2346  0.1682 -0.0572
16606W        W17470  18.308  16.221  13.770  0.1575  0.0499 -0.2779
16607W        W17471  18.805  13.793  12.936  0.0375  0.1383  0.1391
16608W        W17472  16.636  16.108  13.961  0.0724 -0.2532  0.3582
16609W        W17473  18.966  15.134  16.477 -0.2813  0.2166 -0.1187
16610W        W17474  21.376  18.885  16.107 -0.0397  0.1857 -0.1545
16611W        W17475  16.219  16.725  13.249  0.3937  0.3274 -0.2440
16612W        W17476  19.026  17.086  11.081  0.1319 -0.0448  0.1965
16613W        W17477  20.021  17.924  12.674 -0.1588  0.0107 -0.1219
16614W        W17478  15.687  18.140  12.679  0.0349  0.1909 -0.1918
16615W        W17479  17.387  18.838  11.582 -0.1870  0.2940  0.0336
16616W        W17480  16.475  13.683  11.697 -0.0910 -0.1347  0.0318
16617W        W17481  17.050  14.064  14.389  0.0258  0.0681  0.1811
16618W        W17482  18.108  17.724  14.043  0.1467 -0.1815  0.0192
16619W        W17483  16.978  15.597  13.174 -0.0499 -0.2588 -0.1497
16620W        W17484  16.899  17.279  12.328  0.2861 -0.5340 -0.1969
16621W        W17485  17.210  20.929  15.702  0.2014  0.1531  0.2196
16622W        W17486  18.097  15.737  14.070 -0.0825  0.0164  0.2382
16623W        W17487  18.553  19.808  12.288  0.2161  0.0508  0.1664
16624W        W17488  17.413  14.687  12.691  0.2915 -0.0639 -0.1744
16625W        W17489  17.009  15.341  10.456 -0.3785 -0.2126  0.0987
16626W        W17490  13.458  18.659  14.761  0.0161  0.4128  0.1094
16627W        W17491  14.678  15.549  12.442  0.0617  0.0524 -0.1280
16628W        W17492  18.567  15.466  13.388  0.0777 -0.1197 -0.0394
16629W        W17493  16.305  17.641  11.199  0.2809  0.1810  0.0543
16630W        W17494  14.974  18.787  10.857  0.3357  0.0799 -0.2132
16631W        W17495  16.086  15.616  11.979  0.0801  0.0013 -0.0036
16632W        W17496  13.540  14.261  13.520 -0.1820  0.2717 -0.0245
16633W        W17497  15.321  19.551  10.572 -0.0230  0.0715 -0.2058
16634W        W17498  15.267  15.389  13.043  0.0096  0.0913 -0.1287
16635W        W17499  16.136  15.569  13.511  0.0713  0.0299  0.0675
16636W        W17500  16.068  14.827  12.329 -0.4798 -0.1224 -0.1872
16637W        W17501  20.348  13.769  10.897  0.2010 -0.3432  0.2360
16638W        W17502  17.290  18.096  13.939  0.0902 -0.0489  0.1995
16639W        W17503  19.125  17.953  14.864 -0.0289  0.0353 -0.2561
16640W        W17504  14.759  18.402  13.266  0.0505  0.0519  0.0314
16641W        W17505  19.070  20.498  14.834  0.1444  0.2937  0.0904
16642W        W17506  14.789  18.585  11.253  0.0672 -0.0466  0.0335
16643W        W17507  16.800  16.035  14.869  0.1676 -0.0137 -0.1400
16644W        W17508  10.937  17.206   9.731 -0.0337 -0.0882  0.0730
16645W        W17509  15.248  15.708  12.681 -0.1058  0.0420 -0.0418
16646W        W17510  17.680  12.937  13.625 -0.2080  0.1496  0.1460
16647W        W17511  13.936  12.681  13.793 -0.0055 -0.1570  0.0153
16648W        W17512  18.741  16.239  12.964  0.1768 -0.2255  0.1128
16649W        W17513  15.554  14.855  12.334  0.1974 -0.1498 -0.0860
16650W        W17514  17.475  13.823  13.156  0.0869 -0.1168  0.1836
16651W        W17515  18.659  11.923  11.234 -0.4744  0.4964  0.2587
16652W        W17516  12.794  16.745  15.031 -0.3292  0.1375 -0.0747
16653W        W17517  17.316  17.727  14.590  0.1849  0.0921 -0.2224
16654W        W17518  16.979  15.733  13.686 -0.0045 -0.0349 -0.0758
16655W        W17519  15.240  15.339  13.554  0.1161  0.0754  0.2524
16656W        W17520  15.068  16.077  14.942 -0.0533 -0.0536 -0.0866
16657W        W17521  14.943  13.174  13.931  0.2079  0.1035  0.1064
16658W        W17522  14.614  19.528  10.356  0.1314 -0.0282 -0.0932
16659W        W17523  16.318  16.136  12.655 -0.4052  0.2421  0.1246
16660W        W17524  15.435  17.786  11.838 -0.1434 -0.2974  0.3170
16661W        W17525  15.626  17.201  13.212  0.0565  0.0675 -0.2868
16662W        W17526  18.920  14.969  12.539 -0.3113  0.0224  0.2325
16663W        W17527  16.565  17.833  12.298  0.0885  0.1485 -0.0625
16664W        W17528  19.883  17.362  11.567  0.0700 -0.0593 -0.2195
16665W        W17529  16.333  16.939  14.005 -0.0629 -0.0695  0.2460
16666W        W17530  19.401  15.146  13.493  0.0149  0.2756 -0.1853
16667W        W17531  12.238  18.366  13.186 -0.1577 -0.0771  0.0361
16668W        W17532  13.840  16.236  16.539 -0.1511 -0.3483  0.0236
16669W        W17533  13.956  18.233  12.229  0.1327 -0.0066  0.0602
16670W        W17534  14.564  15.942  15.832  0.0798  0.1569 -0.0052
16671W        W17535  18.038  17.892  13.566  0.1669  0.1431  0.3060
16672W        W17536  18.845  16.347  14.395 -0.2028  0.1351  0.0540
16673W        W17537  21.259  16.072  12.714  0.0496  0.1442 -0.0461
16674W        W17538  16.876  13.292  13.269  0.0455  0.1690  0.2408
16675W        W17539  15.423  16.644   9.683 -0.0253  0.4726  0.0124
16676W        W17540  18.323  15.481  15.322 -0.0556  0.1480  0.1944
16677W        W17541  19.238  14.198  14.418 -0.1284 -0.0465  0.1664
16678W        W17542  14.631  17.000  12.167 -0.0990 -0.1521  0.2500
16679W        W17543  14.848  18.806  12.545 -0.0989  0.2739 -0.1062
16680W        W17544  15.568  19.100   9.408  0.0484  0.1654 -0.2873
16681W        W17545  12.496  16.807  13.059  0.3149 -0.3338 -0.1588
16682W        W17546  13.922  17.002  11.554 -0.0121  0.2478 -0.1633
16683W        W17547  15.859  17.428  11.811 -0.1097 -0.0506  0.0151
16684W        W17548  17.960  11.738  12.192 -0.0581  0.1117  0.1149
16685W        W17549  20.283  15.056  13.428 -0.1031 -0.2019 -0.3305
16686W        W17550  19.241  14.706  12.212 -0.0717  0.3237 -0.1546
16687W        W17551  17.837  14.852  12.917  0.1123 -0.0807 -0.1596
16688W        W17552  13.324  15.889  13.718 -0.0655 -0.0632 -0.1571
16689W        W17553  12.635  16.617  13.510 -0.0468  0.2819 -0.0210
16690W        W17554  19.500  14.830  11.815  0.1137 -0.2591  0.3580
16691W        W17555  13.178  12.970  13.888  0.0305 -0.3700 -0.0321
16692W        W17556  18.035  12.709  13.955 -0.1485  0.4910  0.1631
16693W        W17557  17.713  16.201  11.813  0.0344  0.1304  0.1706
16694W        W17558  13.544  16.288  12.083  0.4035 -0.1724 -0.3417
16695W        W17559  17.813  14.788  14.949 -0.4015  0.0034  0.1466
16696W        W17560  14.120  14.507  11.759  0.3303  0.0412 -0.2904
16697W        W17561  14.130  18.817  11.033  0.1624 -0.0560 -0.2376
16698W        W17562  16.817  17.636  14.459 -0.2081  0.1348 -0.2881
16699W        W17563  16.282  20.798  10.508 -0.2377  0.3431  0.1104
16700W        W17564  13.892  19.450  11.014 -0.0708 -0.0890  0.0930
16701W        W17565  14.925  15.782  14.422 -0.0982 -0.1327  0.1841
16702W        W17566  13.203  17.068  15.782 -0.0681  0.0197  0.2428
16703W        W17567  16.059  15.080  12.747 -0.0679 -0.2719 -0.0789
16704W        W17568  16.210  14.510  13.587 -0.0726  0.0360 -0.0344
16705W        W17569  15.905  17.626  13.449 -0.0586 -0.0288 -0.2637
16706W        W17570  20.332  16.187  10.436  0.0892  0.1863  0.1471
16707W        W17571  17.199  14.519  12.083 -0.0402  0.0879  0.1615
16708W        W17572  20.233  18.462  12.877  0.1569 -0.2739 -0.1066
16709W        W17573  17.212  13.912  16.678 -0.2428  0.1306  0.0962
16710W        W17574  14.837  16.420  15.829  0.0632  0.1444 -0.1142
16711W        W17575  15.984  16.251  15.290  0.1499 -0.3288 -0.1226
16712W        W17576  18.301  14.791  15.310  0.2059 -0.1732  0.1826
16713W        W17577  19.262  19.241  13.239 -0.0376  0.2305 -0.1325
16714W        W17578  15.797  17.371  13.985  0.1115 -0.0429 -0.0764
16715W        W17579  18.874  19.025  11.449  0.0761 -0.2946  0.1600
16716W        W17580  13.739  16.040  12.830  0.0448 -0.1168 -0.2487
16717W        W17581  17.318  19.403  13.682  0.0683 -0.1034  0.2337
16718W        W17582  19.918  14.692  16.958 -0.1510  0.0878 -0.3290
16719W        W17583  18.233  18.667  10.850  0.0598  0.1984  0.2495
16720W        W17584  18.685  14.999  14.693  0.2264  0.2562  0.0217
16721W        W17585  17.965  15.613  14.974  0.1347 -0.1610 -0.0156
16722W        W17586  13.218  17.551  13.303 -0.1784  0.1762  0.0992
16723W        W17587  16.235  16.131  12.113 -0.3765 -0.0068  0.1304
16724W        W17588  17.740  20.359  12.283  0.5099 -0.1419  0.0604
16725W        W17589  15.751  14.266  13.772 -0.0040 -0.1330  0.1710
16726W        W17590  16.011  16.858  12.601 -0.0807  0.0010  0.1992
16727W        W17591  19.772  16.480  14.936  0.0095 -0.2344 -0.4257
16728W        W17592  15.768  15.490  12.937  0.1913  0.0550 -0.0549
16729W        W17593  17.939  16.849  13.253  0.0908 -0.3008 -0.2385
16730W        W17594  17.257  17.727  13.631  0.1463  0.1746  0.0782
16731W        W17595  15.356  18.068  11.381  0.0572 -0.2029  0.0181
16732W        W17596  15.345  21.248  16.320  0.1245  0.0961 -0.2943
16733W        W17597  18.154  15.136  14.948 -0.1208 -0.3649  0.5297
16734W        W17598  15.165  16.118  12.356  0.0201 -0.1501 -0.0699
16735W        W17599  16.165  16.637  16.356  0.0303 -0.0612  0.0203
16736W        W17600  18.388  17.795  13.191  0.0199 -0.0218  0.0987
16737W        W17601  17.656  17.530  13.827 -0.1424  0.3585  0.0013
16738W        W17602  15.551  19.091  13.356  0.1132 -0.1745 -0.0728
16739W        W17603  19.046  18.813  13.219 -0.0009  0.1429  0.0534
16740W        W17604  15.447  16.748  14.588  0.0302  0.0872  0.0174
16741W        W17605  16.935  17.321  14.833 -0.0598  0.1761 -0.1980
16742W        W17606  17.771  18.198  12.611 -0.2088 -0.1287  0.3185
16743W        W17607  17.282  16.677  14.211 -0.1809  0.1633 -0.1225
16744W        W17608  17.517  15.921  15.857  0.2224  0.0381  0.1277
16745W        W17609  14.539  18.472  10.841 -0.1719  0.3535  0.0128
16746W        W17610  15.778  18.100  13.284 -0.1596 -0.0770 -0.0340
16747W        W17611  19.525  15.678  12.409 -0.0562  0.0155  0.0036
16748W        W17612  15.806  10.918  14.883 -0.0554 -0.2112 -0.0327
16749W        W17613  16.959  16.814  12.016 -0.0106  0.1123 -0.0949
16750W        W17614  20.213  13.731  13.387  0.1276 -0.1532 -0.0948
16751W        W17615  14.711  18.339  12.184 -0.2189  0.0001  0.0807
16752W        W17616  20.828  15.698  13.584 -0.0235  0.0872  0.0528
16753W        W17617  16.425  17.990  14.251 -0.0802 -0.0075 -0.1696
16754W        W17618  16.426  16.952  15.896 -0.1117 -0.1291  0.2571
16755W        W17619  17.198  18.011  10.351 -0.2583 -0.0371  0.2238
16756W        W17620  16.638  18.448  14.325 -0.0039 -0.0357 -0.1945
16757W        W17621  16.075  20.173  11.737 -0.2558 -0.2368 -0.0808
16758W        W17622  19.896  16.383  11.703 -0.0835 -0.0027  0.1023
16759W        W17623  15.608  15.979  15.102 -0.0654  0.0672  0.3631
16760W        W17624  17.524  15.316  10.490  0.1519  0.0588 -0.2572
16761W        W17625  17.623  15.072  13.470 -0.0495 -0.1174 -0.1095
16762W        W17626  16.465  16.274  13.110  0.1067 -0.0076  0.1302
16763W        W17627  17.762  14.162  13.358 -0.0693 -0.1365 -0.0792
16764W        W17628  15.608  15.879  13.914 -0.2126 -0.2754 -0.0995
16765W        W17629  19.282  17.098  15.274  0.4528  0.0203 -0.1119
16766W        W17630  16.596  15.748  17.212  0.2328  0.0349 -0.1775
16767W        W17631  13.599  15.505  16.213  0.0153  0.1965  0.1339
16768W        W17632  15.661  18.580  13.352 -0.0223 -0.5646  0.0015
16769W        W17633  15.059  17.811  14.543 -0.2028  0.0539  0.1088
16770W        W17634  17.741  19.424  12.318 -0.0519 -0.1748  0.1054
16771W        W17635  15.226  15.611  14.789 -0.0093  0.0484  0.2397
16772W        W17636  17.221  16.059  13.187 -0.0545 -0.0871 -0.1645
16773W        W17637  15.058  19.780  10.192 -0.1180 -0.1386  0.1378
16774W        W17638  17.607  19.025  13.835 -0.1376  0.2357 -0.0682
16775W        W17639  16.670  17.220  12.984  0.0491  0.1488  0.0555
16776W        W17640  17.967  12.480  15.277  0.1178 -0.0629  0.2510
16777W        W17641  16.384  18.312  13.034  0.1364  0.0874 -0.1919
16778W        W17642  15.065  16.991  16.681  0.0601  0.1483 -0.0626
16779W        W17643  18.076  16.122  11.385 -0.2235 -0.0497 -0.1279
16780W        W17644  16.962  19.096  12.034  0.1040  0.1467 -0.3949
16781W        W17645  19.496  14.543  13.130 -0.0154 -0.1662  0.0801
16782W        W17646  17.220  17.308  12.710 -0.2196 -0.0648  0.0897
16783W        W17647  18.318  15.097  16.173 -0.0059 -0.0493  0.0482
16784W        W17648  15.230  16.406  12.734  0.0284 -0.2258  0.0617
16785W        W17649  15.618  16.609  10.863  0.1146  0.0389  0.1721
16786W        W17650  18.447  14.605  16.125 -0.0628 -0.1060 -0.2949
16787W        W17651  16.621  14.424  13.830 -0.3062 -0.2039  0.0411
16788W        W17652  17.872  15.559  12.477  0.1935 -0.4754  0.1037
16789W        W17653  19.340  15.715  14.565  0.1122  0.3954 -0.1210
16790W        W17654  17.034  18.056  12.063 -0.1815 -0.1534  0.1909
16791W        W17655  14.193  16.626  11.916 -0.1594 -0.0967 -0.2105
16792W        W17656  15.824  14.579  12.719  0.0712 -0.4168  0.0902
16793W        W17657  16.670  15.908  15.676 -0.4678 -0.0596  0.0357
16794W        W17658  20.702  16.641  13.837 -0.2354 -0.1131 -0.3773
16795W        W17659  18.924  17.834  13.414  0.2673  0.2191 -0.2974
16796W        W17660  17.241  17.647  12.284 -0.0509 -0.1803 -0.0657
16797W        W17661  16.204  17.472  16.765  0.1868  0.0599 -0.0207
16798W        W17662  16.800  15.298  14.260 -0.1651  0.1403 -0.1545
16799W        W17663  16.605  12.976  13.570 -0.1581  0.1737 -0.2121
16800W        W17664  14.820  18.019  14.925  0.0865  0.0852  0.2814
16801W        W17665  17.022  14.818  11.235 -0.0936 -0.0859  0.0564
16802W        W17666  18.357  16.508  13.346  0.1013  0.0745  0.3342
16803W        W17667  16.504  14.450  11.331  0.0106 -0.3146  0.1078
16804W        W17668  16.697  17.393  15.833  0.0457  0.2027  0.0528
16805W        W17669  13.985  20.762  12.831  0.0548 -0.1577 -0.0104
16806W        W17670  16.342  16.469  14.273 -0.2104 -0.0209 -0.1759
16807W        W17671  13.054  14.654  12.279  0.1052 -0.1056 -0.3291
16808W        W17672  19.301  14.715  14.079 -0.1469 -0.2297  0.0702
16809W        W17673  17.442  17.850  15.866  0.0846  0.0159 -0.0652
16810W        W17674  19.184  16.837  13.665 -0.3171 -0.0426 -0.2911
16811W        W17675  16.192  19.310  12.826 -0.1733 -0.0298  0.1293
16812W        W17676  17.871  19.787  10.820 -0.0845 -0.0312  0.1946
16813W        W17677  15.488  17.726  15.268  0.1543  0.1177 -0.2295
16814W        W17678  17.304  14.767  14.865  0.0022 -0.1044 -0.0447
16815W        W17679  13.808  16.051  10.683 -0.1383  0.3093 -0.2185
16816W        W17680  12.989  18.539  12.322  0.2404  0.0023 -0.1584
16817W        W17681  16.498  14.290  15.126 -0.1299 -0.0280  0.0422
16818W        W17682  19.452  18.832  12.749 -0.1006  0.0769 -0.2112
16819W        W17683  16.839  15.330  12.178 -0.3807 -0.2986  0.0791
16820W        W17684  14.193  21.057   9.183  0.1704 -0.0239 -0.2203
16821W        W17685  15.138  15.995  15.979  0.1774  0.1264  0.1399
16822W        W17686  17.580  14.025  10.927 -0.1052  0.2151 -0.0277
16823W        W17687  19.779  15.929  19.161 -0.3311  0.0710  0.4316
16824W        W17688  18.100  16.114  12.205 -0.0985 -0.0226  0.0135
16825W        W17689  17.992  17.464  14.871 -0.0384  0.1429 -0.0819
16826W        W17690  15.519  16.247  13.219 -0.1728  0.1107 -0.1967
16827W        W17691  16.021  22.355  12.386  0.1796  0.1551 -0.1114
16828W        W17692  16.485  17.132  14.913 -0.1197 -0.1176  0.1907
16829W        W17693  15.752  16.635  13.396 -0.3938 -0.2887  0.0443
16830W        W17694  18.382  14.806  12.046  0.1295  0.0413 -0.0570
16831W        W17695  15.603  20.331  11.599  0.3879 -0.1851  0.1903
16832W        W17696  16.958  14.702  12.993 -0.1011 -0.1370 -0.4237
16833W        W17697  15.718  15.936  12.227  0.0138 -0.1440 -0.0752
16834W        W17698  17.552  16.529  13.241  0.1443 -0.0011 -0.0307
16835W        W17699  14.978  19.577  11.262 -0.0841 -0.1355  0.0531
16836W        W17700  18.491  18.374  14.312 -0.1812  0.2184 -0.2101
16837W        W17701  13.566  18.024   9.775 -0.0336  0.0442  0.0159
16838W        W17702  12.665  15.291  14.000 -0.2224  0.0781  0.0543
16839W        W17703  16.922  16.352  12.927  0.0851 -0.1749  0.2905
16840W        W17704  16.825  15.254  10.959  0.4891  0.3552  0.1882
16841W        W17705  16.133  15.058  15.881  0.0696  0.0989 -0.1945
16842W        W17706  16.721  14.050  11.446  0.2532  0.2314  0.0887
16843W        W17707  15.364  18.261  13.082  0.2447 -0.1162 -0.2775
16844W        W17708  16.819  18.347  14.817 -0.1053 -0.1438 -0.1321
16845W        W17709  17.592  17.715  13.273 -0.3454 -0.0330  0.0566
16846W        W17710  15.898  15.357  10.495 -0.1209  0.0315 -0.0977
16847W        W17711  16.298  17.472  13.830  0.0748 -0.0894  0.1908
16848W        W17712  15.505  17.006  16.946 -0.1468 -0.1968 -0.0863
16849W        W17713  15.891  14.514  15.084 -0.2290  0.1655 -0.0775
16850W        W17714  16.105  15.842  13.110 -0.0765 -0.1258 -0.2964
16851W        W17715  16.402  17.088  13.518  0.0528  0.0166 -0.1452
16852W        W17716  19.867  15.584  14.300  0.2009  0.1755 -0.2220
16853W        W17717  17.093  17.562  13.179  0.1902 -0.3682 -0.0139
16854W        W17718  17.949  13.497  11.705 -0.0173  0.1878  0.0059
16855W        W17719  15.884  17.639  10.884  0.2281  0.0532 -0.1618
16856W        W17720  18.049  19.086  11.595 -0.3304  0.1913 -0.0510
16857W        W17721  19.105  18.565  14.104  0.0156  0.0788 -0.0886
16858W        W17722  18.655  15.001  13.319  0.1951 -0.0526 -0.0991
16859W        W17723  15.386  16.493  12.133  0.0471  0.0146 -0.1754
16860W        W17724  19.340  12.358  13.144  0.2535 -0.1151 -0.0936
16861W        W17725  17.890  16.482  13.596 -0.1575 -0.1750 -0.4305
16862W        W17726  17.490  14.829  11.618  0.2531 -0.0543  0.1871
16863W        W17727  18.696  14.526  13.460 -0.0468  0.0825  0.2096
16864W        W17728  15.889  16.031  14.276 -0.0231 -0.0274 -0.1609
16865W        W17729  17.695  18.237  13.109  0.1364 -0.0070 -0.0827
16866W        W17730  18.553  15.295  13.832 -0.0675  0.1833 -0.0922
16867W        W17731  14.344  17.588  13.242  0.0027  0.1687 -0.2624
16868W        W17732  19.553  18.968  13.543  0.1023  0.2165  0.0985
16869W        W17733  15.710  15.347  15.464  0.1270 -0.0568 -0.0895
16870W        W17734  15.439  19.571  14.668  0.3056  0.1533 -0.0071
16871W        W17735  16.622  16.572  12.318 -0.1863  0.0866  0.1380
16872W        W17736  18.525  15.880  14.307 -0.0096  0.1162  0.1052
16873W        W17737  15.298  16.304  13.656  0.2067 -0.0948 -0.3786
16874W        W17738  17.447  17.176  16.883  0.1066 -0.1933 -0.0878
16875W        W17739  16.757  15.945  11.432  0.0252  0.1326 -0.2690
16876W        W17740  17.712  12.757  14.923  0.0008  0.3005 -0.0829
16877W        W17741  19.310  17.750  11.949 -0.0403 -0.1905  0.0128
16878W        W17742  17.430  18.542  12.701  0.0650 -0.0861  0.1811
16879W        W17743  16.055  17.082  12.116 -0.4076  0.0481  0.0423
16880W        W17744  19.627  16.163  12.623 -0.1158 -0.2729 -0.3614
16881W        W17745  17.441  19.185  13.267 -0.1309  0.4457  0.0151
16882W        W17746  15.689  15.750  13.426  0.1105  0.3237  0.0415
16883W        W17747  17.361  18.592  13.843  0.0950  0.0307  0.2045
16884W        W17748  17.785  17.812  11.528  0.0579 -0.0269  0.0395
16885W        W17749  16.012  18.664  12.215  0.0007 -0.2396  0.0050
16886W        W17750  15.351  15.520  15.828  0.0443  0.4545 -0.2132
16887W        W17751  17.966  17.821  12.983 -0.1510 -0.2211  0.1522
16888W        W17752  18.235  16.837  13.754 -0.1555  0.1251  0.3756
16889W        W17753  16.732  14.360  11.893  0.1081  0.3732 -0.2285
16890W        W17754  15.456  18.244   7.877  0.0878  0.0798  0.2173
16891W        W17755  15.683  21.332  17.130  0.1708  0.0160  0.1792
16892W        W17756  14.156  15.434  19.911 -0.3194  0.0151  0.1108
16893W        W17757  20.113  19.430  15.288 -0.0872 -0.2241  0.0537
16894W        W17758  17.800  16.881  19.388  0.1782 -0.2993  0.0580
16895W        W17759  19.863  18.376  15.124  0.0498  0.2981 -0.1937
16896W        W17760  14.053  15.100  15.498  0.1565 -0.0915  0.0487
16897W        W17761  14.223  16.786  16.549  0.0608 -0.2602  0.3015
16898W        W17762  16.838  17.857  14.923 -0.3240  0.2817  0.1017
16899W        W17763  16.322  18.123  17.556 -0.0911  0.0171 -0.0265
16900W        W17764  13.737  15.964  16.099 -0.2685  0.1052  0.0631
16901W        W17765  14.265  11.537  19.081  0.2447 -0.1216  0.0544
16902W        W17766  15.048  14.042  13.036 -0.1651  0.2135 -0.0360
16903W        W17767  17.005  15.311  14.750  0.0368 -0.0186  0.1672
16904W        W17768  16.033  15.580  18.925 -0.2213  0.0037  0.1438
16905W        W17769  12.773  17.216  16.492  0.3566  0.3999 -0.1108
16906W        W17770  15.567  19.484  18.524  0.0715 -0.0807 -0.2381
16907W        W17771  16.372  16.410  14.806 -0.0979 -0.0873 -0.1819
16908W        W17772  13.185  15.643  14.125 -0.2757  0.0040  0.0158
16909W        W17773  15.762  16.192  17.328 -0.2098  0.1208  0.2088
16910W        W17774  15.815  16.641  17.021 -0.2661  0.1170  0.2304
16911W        W17775  17.972  17.578  17.529 -0.0437 -0.2258  0.0639
16912W        W17776  16.540  16.908  17.873  0.0413 -0.1048  0.1380
16913W        W17777  18.420  18.413  16.399  0.1963  0.0667 -0.0090
16914W        W17778  15.583  18.568  14.688 -0.1804  0.2407  0.0739
16915W        W17779  12.279  14.702  16.663  0.0921 -0.0719  0.0696
16916W        W17780  16.716  11.943  16.837 -0.0267  0.0072  0.5421
16917W        W17781  20.370  15.069  19.580  0.1790 -0.2982  0.1905
16918W        W17782  15.403  20.287  13.955  0.0514  0.2238 -0.1175
16919W        W17783  14.889  13.856  18.329  0.0289 -0.1143  0.0817
16920W        W17784  17.427  16.799  15.998  0.1346  0.2177 -0.0631
16921W        W17785  16.051  15.080  19.698  0.0881 -0.0761  0.0163
16922W        W17786  16.506  17.124  18.326  0.1353 -0.0618  0.0336
16923W        W17787  17.305  16.635  16.801  0.1689  0.1137 -0.0223
16924W        W17788  16.610  17.486  18.791  0.0424  0.0208  0.1996
16925W        W17789  14.194  16.975  19.658 -0.1588  0.1147  0.0733
16926W        W17790  17.023  17.568  17.794 -0.0055 -0.3905 -0.0502
16927W        W17791  16.384  14.764  15.105  0.2181 -0.1771  0.1232
16928W        W17792  16.751  17.937  17.020  0.2911 -0.2131 -0.1120
16929W        W17793  21.322  18.001  16.811 -0.0410 -0.2348  0.0170
16930W        W17794  16.748  15.281  17.065  0.2611 -0.3333 -0.0087
16931W        W17795  19.372  16.694  16.342  0.2917  0.3849 -0.0821
16932W        W17796  18.627  17.521  16.362 -0.0793  0.4124 -0.0219
16933W        W17797  15.722  19.123  14.325  0.2747  0.0659 -0.0763
16934W        W17798  17.532  17.301  14.744 -0.0979  0.0139  0.0986
16935W        W17799  15.561  18.265  15.244 -0.0075  0.0946  0.2883
16936W        W17800  16.760  20.046  15.772  0.0189  0.0868 -0.0058
16937W        W17801  13.686  13.285  16.567 -0.0961 -0.1945 -0.0728
16938W        W17802  18.387  15.080  18.789  0.0298  0.1099 -0.0325
16939W        W17803  16.027  15.734  15.480  0.2080  0.2681  0.1368
16940W        W17804  17.625  16.878  14.631  0.0522 -0.4151  0.0122
16941W        W17805  19.334  18.393  14.923 -0.0580 -0.0164  0.1388
16942W        W17806  16.131  17.327  15.716 -0.0133 -0.2010  0.0205
16943W        W17807  17.158  19.859  18.136 -0.1348 -0.2339  0.2465
16944W        W17808  16.355  14.086  13.248 -0.2210  0.1285 -0.0922
16945W        W17809  16.779  13.354  15.655 -0.1023 -0.0004 -0.3426
16946W        W17810  14.538  19.756  14.680 -0.0782  0.2794 -0.1079
16947W        W17811  17.007  14.515  14.179 -0.1706  0.0997  0.3330
16948W        W17812  17.716  17.078  15.200  0.1641  0.1587  0.3480
16949W        W17813  14.010  16.467  15.985 -0.0206  0.2918  0.1364
16950W        W17814  14.357  17.228  14.275 -0.0367 -0.2588 -0.4608
16951W        W17815  16.612  15.680  16.309  0.2828 -0.2065 -0.0184
16952W        W17816  14.486  20.036  15.118  0.1934  0.0847 -0.2029
16953W        W17817  15.633  17.641  14.793  0.0275 -0.2394  0.0050
16954W        W17818  12.425  15.467  16.290  0.0606  0.1792 -0.0206
16955W        W17819  14.322  16.216  17.408 -0.0425 -0.1088 -0.1772
16956W        W17820  16.817  13.071  16.231 -0.0273 -0.0254 -0.3363
16957W        W17821  17.815  16.696  14.109  0.1369 -0.3483  0.2087
16958W        W17822  15.986  14.144  17.391  0.0894  0.1240 -0.1076
16959W        W17823  18.388  17.658  15.892 -0.2318 -0.1728  0.2374
16960W        W17824  14.406  18.337  15.618 -0.0695  0.1179  0.3053
16961W        W17825  15.601  16.271  18.903  0.1989  0.0064 -0.0365
16962W        W17826  18.612  15.599  17.051 -0.1698  0.0263 -0.3588
16963W        W17827  17.550  19.546  17.363  0.0217  0.0792  0.1116
16964W        W17828  17.474  14.469  17.998  0.0343 -0.3722  0.1651
16965W        W17829  18.892  19.073  15.816 -0.3454  0.0738  0.1616
16966W        W17830  15.686  16.424  17.742  0.4084  0.0205 -0.0990
16967W        W17831  13.111  17.016  14.749 -0.0284  0.2157 -0.4606
16968W        W17832  11.775  15.640  15.694 -0.0936 -0.0293 -0.0487
16969W        W17833  17.156  17.400  15.988  0.1775 -0.2475 -0.3665
16970W        W17834  16.171  18.703  16.211 -0.0360  0.1310  0.2017
16971W        W17835  13.306  15.376  16.644 -0.1937  0.0950 -0.3248
16972W        W17836  15.438  16.011  17.951 -0.2415  0.3026  0.0925
16973W        W17837  12.504  13.892  15.349  0.0925  0.0415 -0.1528
16974W        W17838  15.458  14.924  16.741  0.1856  0.0338  0.1169
16975W        W17839  16.703  17.292  19.613 -0.0297  0.1932 -0.3715
16976W        W17840  17.543  11.906  13.103  0.0806 -0.0643 -0.1943
16977W        W17841  18.562  19.499  17.000  0.1666  0.2602  0.1151
16978W        W17842  17.941  13.298  20.219 -0.0785  0.1429  0.1434
16979W        W17843  16.112  14.380  17.861 -0.1615  0.0308 -0.2564
16980W        W17844  17.903  13.529  19.461  0.1078  0.3380 -0.4081
16981W        W17845  13.466  15.632  14.531  0.1066  0.1542  0.1974
16982W        W17846  15.979  14.349  19.594  0.4177  0.1703  0.1933
16983W        W17847  14.914  17.109  17.115  0.2761 -0.1031  0.2532
16984W        W17848  17.420  16.237  13.625 -0.0665  0.0363  0.0180
16985W        W17849  13.452  14.309  16.362  0.7299  0.2095  0.0834
16986W        W17850  16.618  15.625  14.654  0.2252 -0.1901 -0.0041
16987W        W17851  18.797  15.438  16.110  0.2010 -0.2114  0.1702
16988W        W17852  16.548  18.489  16.656 -0.1538  0.1520  0.2010
16989W        W17853  16.024  16.847  18.436  0.0859  0.2566 -0.1099
16990W        W17854  19.054  17.312  16.088  0.3135 -0.0035 -0.1316
16991W        W17855  18.551  17.521  13.604 -0.1009  0.1087 -0.1628
16992W        W17856  12.053  16.143  16.967  0.3015 -0.2355  0.2420
16993W        W17857  16.133  14.221  12.845 -0.0708  0.0128  0.2331
16994W        W17858  18.981  17.329  18.766  0.1586 -0.1473 -0.4971
16995W        W17859  17.331  14.554  15.357 -0.1564 -0.1285  0.1218
16996W        W17860  16.120  14.367  20.462  0.0653 -0.1350  0.1552
16997W        W17861  15.515  16.028  14.609 -0.1548  0.2230 -0.1735
16998W        W17862  14.211  15.391  17.675 -0.0104 -0.0047  0.2530
16999W        W17863  16.574  14.349  16.442 -0.0925  0.0986 -0.0979
17000W        W17864  14.106  14.127  17.779 -0.0235  0.1257 -0.1716
17001W        W17865  13.228  16.702  17.959 -0.2912 -0.0671 -0.0595
17002W        W17866  15.351  18.127  17.867  0.1839 -0.1150 -0.0322
17003W        W17867  18.828  15.413  18.853 -0.0335  0.0013  0.3903
17004W        W17868  16.329  19.417  18.081  0.1059 -0.0926 -0.0424
17005W        W17869  21.239  16.299  15.826  0.0173 -0.0735  0.0050
17006W        W17870  16.632  16.538  16.601  0.1995  0.1304 -0.1556
17007W        W17871  18.741  15.784  18.153 -0.1671 -0.0890 -0.1997
17008W        W17872  17.079  16.186  16.686  0.3009 -0.1821 -0.0648
17009W        W17873  17.798  16.433  17.540 -0.1971  0.0269 -0.0539
17010W        W17874  16.366  14.937  17.834  0.3878 -0.1430  0.1899
17011W        W17875  15.141  16.693  17.268 -0.3445  0.1248  0.1121
17012W        W17876  17.512  18.765  16.260  0.2232  0.1596  0.1532
17013W        W17877  16.764  17.012  16.284  0.4199  0.3229  0.1189
17014W        W17878  17.101  16.264  14.023 -0.1714  0.1715 -0.1673
17015W        W17879  16.559  15.816  17.808  0.2495  0.0248  0.2489
17016W        W17880  17.133  14.947  14.420  0.2834 -0.0660 -0.1031
17017W        W17881  15.455  15.756  16.276  0.0257 -0.0471  0.3239
17018W        W17882  17.539  16.702  19.723 -0.0415 -0.1336  0.2010
17019W        W17883  16.814  17.595  18.313 -0.0437  0.3111 -0.0903
17020W        W17884  15.971  19.323  15.541  0.1657  0.2159  0.4019
17021W        W17885  15.829  19.192  18.157  0.1503  0.2788  0.2433
17022W        W17886  16.630  16.296  17.886 -0.0218  0.1325  0.1414
17023W        W17887  13.413  19.315  16.294 -0.0268 -0.0625 -0.3017
17024W        W17888  15.513  13.724  17.471  0.1665 -0.0109  0.3122
17025W        W17889  13.644  15.588  18.501  0.1902 -0.1074  0.1109
17026W        W17890  13.627  17.032  13.688  0.0782  0.0317  0.1227
17027W        W17891  19.430  17.248  16.497  0.1790 -0.2204 -0.3552
17028W        W17892  18.481  16.679  18.351  0.2526  0.0952  0.0078
17029W        W17893  17.333  15.602  15.144 -0.1662 -0.0944 -0.0142
17030W        W17894  15.207  23.139  15.307  0.2981 -0.1562 -0.0790
17031W        W17895  14.419  17.689  15.077 -0.0085  0.2541  0.0183
17032W        W17896  14.729  14.252  19.451  0.0433 -0.1582 -0.2155
17033W        W17897  14.693  15.808  13.972 -0.0132 -0.1220  0.0009
17034W        W17898  14.066  17.108  15.114  0.1583  0.2113 -0.0769
17035W        W17899  15.350  17.212  17.888  0.0290 -0.2616  0.0638
17036W        W17900  16.089  16.078  17.796 -0.1333 -0.0001 -0.0091
17037W        W17901  19.654  15.560  18.773  0.0373  0.1801  0.1341
17038W        W17902  18.134  19.106  14.160  0.1204 -0.3224  0.2292
17039W        W17903  18.198  17.219  15.243  0.0441  0.3263  0.2461
17040W        W17904  14.763  17.290  18.039 -0.0721  0.0882  0.5142
17041W        W17905  18.093  19.543  15.945 -0.0517  0.1295  0.2584
17042W        W17906  15.607  14.509  14.404  0.0497 -0.2833  0.1648
17043W        W17907  15.632  16.918  17.469 -0.1492  0.0161  0.1953
17044W        W17908  15.399  15.190  14.075 -0.1701  0.1250  0.0246
17045W        W17909  18.454  16.721  16.090 -0.1065  0.1856  0.0395
17046W        W17910  17.242  14.464  16.806 -0.2585 -0.1748  0.2507
17047W        W17911  13.992  17.358  15.669 -0.1507 -0.0621 -0.1526
17048W        W17912  17.058  14.647  13.718 -0.0843  0.0440  0.4361
17049W        W17913  14.071  15.995  14.680  0.1006  0.5600 -0.0656
17050W        W17914  15.690  15.714  17.554 -0.2390  0.0241 -0.1278
17051W        W17915  18.721  14.545  17.029  0.1630 -0.2407  0.3571
17052W        W17916  15.968  18.017  19.465  0.2153  0.0640  0.1446
17053W        W17917  17.604  12.297  21.581  0.2552  0.0710  0.0704
17054W        W17918  16.858  16.076  16.208  0.3025  0.1736  0.1969
17055W        W17919  16.781  15.002  18.281  0.0481 -0.0641 -0.0762
17056W        W17920  13.124  14.204  15.972  0.3426  0.1940 -0.1515
17057W        W17921  14.273  13.651  15.051  0.1857 -0.0436 -0.1674
17058W        W17922  13.768  17.885  15.604  0.0563 -0.1882 -0.5084
17059W        W17923  18.254  17.749  15.437  0.1059 -0.0261 -0.2266
17060W        W17924  15.677  15.223  14.629 -0.0953 -0.2022  0.0393
17061W        W17925  17.835  16.065  17.116 -0.1838 -0.0294 -0.1790
17062W        W17926  15.034  16.323  19.622  0.1997 -0.1920 -0.1028
17063W        W17927  17.166  16.231  17.846  0.2251 -0.1092 -0.2315
17064W        W17928  13.973  15.611  15.416  0.0529  0.1343  0.0670
17065W        W17929  16.401  15.892  18.820 -0.0494  0.0497 -0.0411
17066W        W17930  18.748  17.954  16.097  0.0835 -0.0870  0.2716
17067W        W17931  12.165  14.832  19.666 -0.3436 -0.0641  0.3655
17068W        W17932  14.211  16.018  15.207 -0.1595  0.1958  0.1034
17069W        W17933  14.182  18.805  15.663 -0.1713 -0.1540 -0.0201
17070W        W17934  17.452  13.947  17.741 -0.1617 -0.0194  0.4252
17071W        W17935  15.179  18.165  13.512  0.0887  0.2218 -0.0165
17072W        W17936  17.751  17.574  15.358 -0.1241  0.0855  0.2908
17073W        W17937  18.801  17.069  15.225  0.0528  0.0365 -0.2648
17074W        W17938  15.954  15.831  16.397 -0.1828 -0.0665  0.2078
17075W        W17939  18.545  14.041  13.345 -0.2300  0.0317  0.0112
17076W        W17940  16.045  17.091  17.025 -0.2300  0.0066 -0.0461
17077W        W17941  15.286  18.015  15.687  0.0936  0.3622  0.0010
17078W        W17942  14.743  19.855  15.897 -0.4514 -0.1213 -0.3890
17079W        W17943  13.590  18.434  15.211  0.1432 -0.0832  0.0552
17080W        W17944  14.605  17.612  14.587  0.0873  0.1192 -0.1867
17081W        W17945  15.496  17.198  15.162  0.1557  0.2527  0.0992
17082W        W17946  15.929  15.517  17.127 -0.3899 -0.0257 -0.2696
17083W        W17947  13.664  14.994  18.331 -0.3119  0.0187  0.1704
17084W        W17948  13.689  15.280  17.419 -0.0561  0.0432 -0.2459
17085W        W17949  15.378  12.994  18.478  0.0472 -0.1909  0.0786
17086W        W17950  14.888  17.812  16.572  0.0994  0.4175 -0.1523
17087W        W17951  16.928  15.729  18.688  0.3596  0.1290  0.2481
17088W        W17952  14.566  15.342  17.290  0.0622  0.0845  0.1497
17089W        W17953  16.252  13.855  16.425 -0.1026 -0.2185 -0.0026
17090W        W17954  17.562  16.196  16.714 -0.3894 -0.2639 -0.1845
17091W        W17955  13.917  16.459  17.869 -0.1490  0.2132  0.1883
17092W        W17956  14.358  17.020  17.930 -0.0635  0.2402 -0.1490
17093W        W17957  17.885  17.448  18.528 -0.0997  0.0065  0.0682
17094W        W17958  13.188  15.904  16.210  0.1365  0.1255  0.0826
17095W        W17959  14.448  14.956  16.940  0.1770 -0.0231 -0.3141
17096W        W17960  13.998  16.423  14.932 -0.0063 -0.2148 -0.1645
17097W        W17961  14.453  18.478  16.089 -0.5451  0.1003  0.0043
17098W        W17962  16.195  13.279  13.684  0.1295  0.0621  0.1251
17099W        W17963  15.650  17.411  15.592  0.2431 -0.1993 -0.0198
17100W        W17964  15.044  14.953  13.765  0.1085 -0.0704 -0.0274
17101W        W17965  13.230  18.849  16.165 -0.1092  0.0519 -0.0630
17102W        W17966  16.189  15.599  18.444 -0.0124 -0.1203 -0.0154
17103W        W17967  16.910  17.526  19.193 -0.2342  0.0717  0.1833
17104W        W17968  15.576  14.340  17.621  0.5934 -0.3721 -0.2102
17105W        W17969  14.975  16.295  17.945  0.0802 -0.1220 -0.1899
17106W        W17970  19.106  18.088  13.867  0.1192  0.0986 -0.1287
17107W        W17971  15.620  18.064  16.129  0.1544 -0.1714 -0.1131
17108W        W17972  16.448  19.637  13.151  0.0151  0.1630 -0.0131
17109W        W17973  16.343  17.072  18.814  0.1000  0.0728  0.0334
17110W        W17974  16.377  14.629  19.599 -0.2353  0.0804 -0.1615
17111W        W17975  17.598  15.320  18.424  0.2219  0.2578 -0.0037
17112W        W17976  18.344  17.176  17.195 -0.2228 -0.2639  0.1564
17113W        W17977  19.866  18.841  16.740 -0.2177  0.0838 -0.0025
17114W        W17978  16.637  16.159  16.958  0.0375  0.0672 -0.2029
17115W        W17979  19.710  17.048  15.033  0.2310 -0.1126 -0.3475
17116W        W17980  13.588  12.557  17.675  0.0568  0.1345  0.0665
17117W        W17981  17.273  16.632  18.719  0.3967 -0.3463  0.1332
17118W        W17982  17.016  15.317  19.938 -0.3278  0.1831 -0.1363
17119W        W17983  17.128  15.296  13.910 -0.1080  0.0557 -0.0228
17120W        W17984  17.813  17.006  17.407 -0.0570  0.2312  0.1674
17121W        W17985  13.470  14.353  18.287  0.0294 -0.1547 -0.0916
17122W        W17986  15.227  16.449  19.184 -0.0640  0.1908  0.0218
17123W        W17987  14.987  18.274  15.360  0.1771  0.4149  0.1250
17124W        W17988  18.120  20.103  15.934  0.0429 -0.1236 -0.1940
17125W        W17989  15.780  15.379  16.629  0.2353  0.2441 -0.0406
17126W        W17990  15.821  17.397  17.520  0.4683  0.0779 -0.3510
17127W        W17991  17.853  17.339  16.717  0.1459  0.3451  0.0067
17128W        W17992  13.859  13.703  17.847  0.0762 -0.0916 -0.0510
17129W        W17993  16.173  17.670  17.720  0.0585 -0.2177 -0.1393
17130W        W17994  17.567  18.903  18.425  0.1677  0.0535 -0.1419
17131W        W17995  15.466  16.389  14.235 -0.0753  0.0036  0.1728
17132W        W17996  14.921  17.517  20.306  0.0575  0.0530  0.2501
17133W        W17997  12.771  16.358  16.481 -0.0398  0.1350  0.3385
17134W        W17998  16.393  13.168  17.433  0.5515  0.2514 -0.0664
17135W        W17999  18.216  13.627  18.686 -0.0329 -0.0173  0.0156
17136W        W18000  14.781  17.816  15.439  0.0111  0.1007 -0.1165
17137W        W18001  14.840  16.974  15.640 -0.0590  0.2122 -0.0378
17138W        W18002  15.106  19.048  17.917  0.1252 -0.0278 -0.1983
17139W        W18003  14.949  19.739  14.327 -0.0267 -0.1802 -0.0462
17140W        W18004  15.237  14.731  16.391 -0.2302  0.0682 -0.2287
17141W        W18005  12.716  15.175  15.959 -0.2301 -0.1151 -0.3570
17142W        W18006  15.147  17.652  17.956  0.2009 -0.2136 -0.3238
17143W        W18007  17.875  18.640  16.738  0.1008  0.0737 -0.1943
17144W        W18008  16.152  15.597  19.840  0.1840 -0.0071  0.2424
17145W        W18009  15.358  14.675  15.879  0.0658 -0.0966  0.2464
17146W        W18010  16.130  18.165  15.971  0.2855 -0.2369  0.3039
17147W        W18011  20.089  13.610  14.402  0.3262 -0.3236 -0.2521
17148W        W18012  13.443  13.031  19.462  0.0672  0.1038  0.0027
17149W        W18013  17.084  18.018  18.016 -0.3773 -0.1645 -0.1171
17150W        W18014  16.759  16.720  13.927  0.0877 -0.4091  0.0520
17151W        W18015  16.186  16.578  17.944 -0.1433  0.0315 -0.1013
17152W        W18016  14.495  15.706  16.257  0.4367  0.1300 -0.2294
17153W        W18017  16.128  14.694  17.492 -0.1534  0.1661  0.4587
17154W        W18018  13.856  14.491  17.300 -0.2217  0.2631  0.2120
17155W        W18019  16.319  19.971  15.988 -0.4006 -0.2107  0.0239
17156W        W18020  15.197  15.747  17.269  0.2202  0.1888  0.0584
17157W        W18021  14.346  17.725  15.616 -0.2179 -0.2127 -0.3492
17158W        W18022  15.761  15.701  18.088  0.0186 -0.2027  0.3436
17159W        W18023  13.856  15.755  17.413  0.1788  0.0967 -0.2349
17160W        W18024  16.520  16.259  15.264  0.2164 -0.1250 -0.3838
17161W        W18025  16.628  14.423  17.775 -0.0273  0.1605  0.2169
17162W        W18026  14.173  14.992  18.146 -0.0700  0.0138  0.2067
17163W        W18027  14.956  15.173  17.088 -0.0069  0.1483  0.0733
17164W        W18028  15.201  17.491  16.930  0.1684  0.0980  0.1924
17165W        W18029  15.749  17.528  17.023 -0.0617  0.0638 -0.0487
17166W        W18030  15.327  16.553  15.874 -0.2566 -0.0721  0.0423
17167W        W18031  14.050  15.367  17.092  0.0525  0.4435 -0.0863
17168W        W18032  14.159  19.014  18.760  0.1064  0.2169 -0.0021
17169W        W18033  13.649  18.983  11.033  0.1895  0.2238 -0.3184
17170W        W18034  16.160  18.251  20.525 -0.1236  0.1293  0.2589
17171W        W18035  17.430  15.860  18.663 -0.0234  0.2421 -0.1179
17172W        W18036  15.862  13.831  17.064 -0.0365  0.0910 -0.0388
17173W        W18037  18.799  18.311  15.643  0.0189  0.1726 -0.0270
17174W        W18038  13.412  18.564  15.687  0.0273  0.2212  0.0975
17175W        W18039  18.257  16.266  17.609  0.1791 -0.2824 -0.1587
17176W        W18040  17.891  12.587  18.524 -0.0243  0.2216 -0.0141
17177W        W18041  15.947  17.750  14.361 -0.0571 -0.0948 -0.3749
17178W        W18042  15.577  15.765  18.958 -0.0451  0.4758 -0.0730
17179W        W18043  17.046  16.395  15.731 -0.2593  0.0130 -0.0727
17180W        W18044  17.336  16.724  13.659 -0.0355 -0.0525 -0.3164
17181W        W18045  14.054  18.098  15.992 -0.0600 -0.0398  0.1832
17182W        W18046  16.858  17.841  16.083  0.1080 -0.2622 -0.2893
17183W        W18047  19.058  17.595  16.614  0.0270 -0.4148  0.1559
17184W        W18048  12.773  16.064  14.895 -0.3514  0.0536 -0.2949
17185W        W18049  16.465  17.087  15.418 -0.1649  0.1012  0.1154
17186W        W18050  16.519  16.490  18.328  0.0091  0.0142 -0.1149
17187W        W18051  17.553  14.823  17.613  0.1951 -0.0197  0.2646
17188W        W18052  18.062  17.048  14.458  0.0817  0.0334 -0.1501
17189W        W18053  19.502  17.826  16.650 -0.1862 -0.1025  0.0900
17190W        W18054  16.510  18.628  15.530  0.0541 -0.0409  0.0161
17191W        W18055  14.122  18.587  15.186 -0.1124 -0.0117  0.3076
17192W        W18056  15.071  13.634  19.590 -0.1074 -0.2843 -0.1436
17193W        W18057  15.597  17.212  18.298  0.2618  0.2140  0.0403
17194W        W18058  18.608  17.144  18.121 -0.0844 -0.1316 -0.1418
17195W        W18059  14.694  14.545  16.720  0.2284 -0.0937 -0.1212
17196W        W18060  16.564  18.197  15.766  0.0135  0.2034  0.2127
17197W        W18061  16.646  16.808  19.537  0.2659 -0.0486  0.1155
17198W        W18062  15.571  12.530  15.892  0.3922 -0.2121 -0.1821
17199W        W18063  15.862  13.886  17.809 -0.0639  0.2852 -0.1306
17200W        W18064  18.370  18.783  13.320  0.0687 -0.0017 -0.2767
17201W        W18065  18.511  12.941  12.160  0.0054 -0.0253 -0.1878
17202W        W18066  15.561  18.544  16.861 -0.0445 -0.1187 -0.0934
17203W        W18067  12.750  15.170  14.697  0.1569 -0.2396 -0.1585
17204W        W18068  17.248  14.892  19.747 -0.1276 -0.0365  0.0097
17205W        W18069  13.698  16.763  15.664 -0.1994  0.1651 -0.0837
17206W        W18070  14.123  15.519  16.014 -0.0969 -0.1137 -0.0078
17207W        W18071  15.480  13.467  16.976 -0.1495 -0.0877 -0.0146
17208W        W18072  18.652  14.085  17.210  0.3325 -0.1289  0.0658
17209W        W18073  17.335  18.523  18.168 -0.1809 -0.1368 -0.0682
17210W        W18074  12.748  17.096  17.113 -0.1193 -0.0320 -0.1578
17211W        W18075  15.966  14.972  16.870  0.0335 -0.0610  0.0212
17212W        W18076  19.226  18.132  15.907  0.1637  0.0541 -0.2097
17213W        W18077  17.459  17.276  18.789 -0.0184 -0.0195  0.0823
17214W        W18078  13.911  13.581  18.664  0.1389  0.0326 -0.0409
17215W        W18079  13.440  17.258  17.914  0.0061  0.0669  0.0334
17216W        W18080  17.292  16.249  14.506 -0.1154 -0.0338 -0.0517
17217W        W18081  14.513  13.474  16.831  0.0996  0.0508 -0.2180
17218W        W18082  15.028  16.882  12.807 -0.1878  0.0069 -0.0011
17219W        W18083  15.596  13.486  13.633 -0.1038 -0.0005 -0.0291
17220W        W18084  12.592  17.108  15.341  0.1973 -0.1276 -0.2376
17221W        W18085  15.829  13.488  14.951 -0.1024  0.2819  0.1696
17222W        W18086  18.459  15.986  14.989  0.0835 -0.2405  0.2210
17223W        W18087  17.727  18.088  17.431  0.0342 -0.1151 -0.0531
17224W        W18088  16.921  17.004  16.791  0.0168  0.2021  0.1047
17225W        W18089  17.915  15.465  20.193  0.0644  0.0735  0.2163
17226W        W18090  16.520  16.211  19.277  0.1439  0.3251 -0.0555
17227W        W18091  14.771  16.443  17.523 -0.0829 -0.2949  0.0041
17228W        W18092  14.234  18.005  14.720 -0.0711  0.1990  0.0229
17229W        W18093  16.544  17.392  17.879  0.4005 -0.0545 -0.4211
17230W        W18094  17.709  12.591  20.683  0.2514  0.1436 -0.1576
17231W        W18095  16.400  15.984  18.247 -0.0917  0.1786 -0.2747
17232W        W18096  15.709  14.691  17.170 -0.0469 -0.4206  0.0780
17233W        W18097  15.315  17.327  17.393 -0.0433 -0.2168  0.2947
17234W        W18098  15.835  17.815  16.524  0.0695 -0.0442 -0.1021
17235W        W18099  13.177  15.431  15.915  0.0093  0.1176 -0.1913
17236W        W18100  15.371  18.331  17.369 -0.3255 -0.2471 -0.1676
17237W        W18101  13.808  15.240  13.665 -0.2670  0.0076 -0.0676
17238W        W18102  13.130  14.009  18.471  0.4050 -0.1428  0.0273
17239W        W18103  16.374  19.521  15.701  0.0648  0.1212 -0.1100
17240W        W18104  13.878  15.067  16.081 -0.0861 -0.0077  0.1495
17241W        W18105  17.030  16.580  16.197  0.3392  0.0624 -0.0273
17242W        W18106  16.923  16.266  13.531  0.3508 -0.3212  0.0992
17243W        W18107  15.772  16.298  16.057  0.2364  0.0602  0.1452
17244W        W18108  16.635  16.614  15.581 -0.1576  0.1971 -0.1514
17245W        W18109  17.033  18.792  16.533 -0.2031 -0.1354  0.0203
17246W        W18110  13.180  14.771  16.892 -0.0259 -0.3811 -0.0116
17247W        W18111  15.240  18.488  16.093  0.0564 -0.1830 -0.0364
17248W        W18112  16.778  16.221  18.685 -0.0401  0.0217 -0.0841
17249W        W18113  13.727  15.433  17.930  0.2948  0.1918 -0.1005
17250W        W18114  15.672  14.335  15.590 -0.1317  0.2035 -0.1108
17251W        W18115  15.985  17.793  15.262 -0.2448 -0.0629  0.1104
17252W        W18116  16.344  17.624  21.090  0.2111  0.0102 -0.4316
17253W        W18117  14.970  15.891  18.313 -0.0783 -0.1718  0.0012
17254W        W18118  18.251  16.956  15.647  0.0911  0.0332  0.2370
17255W        W18119  17.649  19.244  16.078 -0.0048  0.1710  0.1995
17256W        W18120  17.792  19.952  18.156  0.0056 -0.0399  0.1734
17257W        W18121  15.180  18.620  18.196  0.1342  0.1442 -0.0962
17258W        W18122  16.905  16.552  17.080  0.0249  0.0766 -0.3202
17259W        W18123  15.000  15.548  16.319  0.0682  0.0097  0.0020
17260W        W18124  20.334  13.600  16.514  0.0945  0.2156  0.1156
17261W        W18125  16.264  17.311  16.258 -0.0336 -0.0009  0.1614
17262W        W18126  18.095  17.452  16.301  0.1048  0.0625  0.0928
17263W        W18127  16.741  14.724  16.066 -0.0420  0.0435  0.0689
17264W        W18128  16.960  16.558  19.247 -0.1274 -0.2601 -0.0144
17265W        W18129  15.619  16.718  16.544 -0.2498 -0.0825 -0.2643
17266W        W18130  14.195  14.566  19.401 -0.4333 -0.1064 -0.1771
17267W        W18131  12.584  16.751  16.809  0.1032  0.1797  0.0551
17268W        W18132  14.836  15.228  18.945 -0.3331  0.2136  0.5878
17269W        W18133  13.560  16.063  17.749 -0.0028  0.0141  0.1908
17270W        W18134  15.549  18.574  20.584  0.1361  0.0862 -0.1584
17271W        W18135  16.204  15.200  20.130  0.2074 -0.0860  0.0045
17272W        W18136  14.230  15.612  13.683  0.0239  0.0376 -0.1280
17273W        W18137  16.280  16.505  16.901  0.1742 -0.2518 -0.0587
17274W        W18138  17.070  18.146  15.770 -0.0434  0.0483 -0.2053
17275W        W18139  16.288  17.223  17.445  0.2525  0.1745 -0.1084
17276W        W18140  16.946  16.650  17.690  0.2359 -0.1786 -0.2855
17277W        W18141  17.132  15.847  15.549  0.4046  0.1964 -0.0222
17278W        W18142  13.460  16.360  20.135  0.0606  0.0914  0.0050
17279W        W18143  15.327  19.509  17.996  0.1558 -0.3529  0.1566
17280W        W18144  17.135  18.168  18.487 -0.0244  0.1150 -0.4630
17281W        W18145  16.529  21.906  18.517 -0.2124 -0.0364  0.1077
17282W        W18146  16.235  16.696  15.165  0.0632  0.0519 -0.0251
17283W        W18147  14.738  18.471  13.735  0.1357  0.0234 -0.1055
17284W        W18148  16.771  13.810  17.077  0.0166  0.1020  0.0802
17285W        W18149  16.571  16.817  17.204 -0.1229 -0.1646 -0.1450
17286W        W18150  13.188  17.675  16.661  0.1767 -0.1714  0.1342
17287W        W18151  14.508  14.449  19.002  0.0728 -0.0319 -0.3723
17288W        W18152  15.874  18.502  19.550  0.2364  0.1931 -0.1342
17289W        W18153  13.929  17.050  16.050 -0.3044 -0.4947 -0.1511
17290W        W18154  16.087  16.736  17.451  0.0694 -0.3457  0.0427
17291W        W18155  14.407  17.462  23.388  0.0486  0.1571  0.0591
17292W        W18156  14.553  17.613  18.988 -0.0983  0.0060  0.0811
17293W        W18157  18.742  18.433  19.308  0.2005  0.0439 -0.1809
17294W        W18158  17.509  18.249  19.196  0.1369 -0.2328 -0.0871
17295W        W18159  14.420  16.359  17.927 -0.3509  0.0177 -0.0416
17296W        W18160  18.361  15.530  20.509  0.1996  0.2781 -0.2686
17297W        W18161  15.226  15.010  18.717  0.2578 -0.2655  0.0522
17298W        W18162  14.407  14.957  19.142 -0.0461  0.0336  0.2036
17299W        W18163  14.909  19.540  19.636  0.0376  0.1308 -0.1119
17300W        W18164  14.466  15.928  22.305  0.1791 -0.0380  0.1305
17301W        W18165  14.497  14.207  20.803  0.2767 -0.1051  0.0321
17302W        W18166  19.198  13.251  17.215 -0.0221  0.1903 -0.0624
17303W        W18167  15.999  15.305  20.622 -0.1813  0.0843  0.1173
17304W        W18168  18.867  16.631  22.989  0.2342  0.0139 -0.1153
17305W        W18169  13.420  14.276  20.410 -0.3564 -0.0592  0.1925
17306W        W18170  15.683  18.922  22.791 -0.2281  0.0392 -0.1988
17307W        W18171  16.204  17.529  19.722 -0.3582  0.2649 -0.0556
17308W        W18172  14.104  14.914  21.496  0.2411 -0.0040 -0.1342
17309W        W18173  16.511  14.902  23.054  0.0854  0.4005  0.1809
17310W        W18174  18.256  17.229  19.910 -0.1093  0.3595  0.4112
17311W        W18175  14.982  19.852  21.440  0.5349 -0.2202 -0.0965
17312W        W18176  15.019  15.091  16.012  0.3046 -0.0674 -0.1219
17313W        W18177  18.774  18.509  20.044 -0.0219  0.2450 -0.1320
17314W        W18178  12.834  18.517  20.891  0.0008  0.0943  0.1007
17315W        W18179  12.982  16.199  18.953  0.1745 -0.3089 -0.1709
17316W        W18180  15.252  18.536  19.756  0.1275  0.2251  0.1005
17317W        W18181  19.575  14.715  23.557  0.1196  0.0452 -0.1390
17318W        W18182  14.667  21.687  20.608 -0.0758 -0.0391 -0.0550
17319W        W18183  16.301  15.286  25.082  0.3614  0.1531 -0.2886
17320W        W18184  15.851  17.201  20.123  0.1813 -0.3301  0.0852
17321W        W18185  15.161  15.528  18.708  0.3066  0.1245 -0.3034
17322W        W18186  18.519  17.444  23.059  0.3405  0.3579  0.0721
17323W        W18187  12.895  16.048  22.574  0.0091 -0.1646  0.0865
17324W        W18188  18.391  16.943  22.968  0.0696 -0.1815  0.0331
17325W        W18189  13.115  16.052  20.794  0.2548 -0.1416 -0.4269
17326W        W18190  18.019  19.653  19.434  0.1847 -0.3368 -0.0124
17327W        W18191  14.746  16.416  20.120  0.2009 -0.1445 -0.0793
17328W        W18192  16.005  15.111  18.772 -0.0158 -0.1136 -0.0295
17329W        W18193  16.423  14.856  18.712  0.0672 -0.1312 -0.0141
17330W        W18194  18.784  16.455  21.209 -0.0478  0.1212 -0.0073
17331W        W18195  17.053  15.646  17.511 -0.0875  0.1976 -0.1338
17332W        W18196  17.130  16.900  20.877  0.0830 -0.0686  0.3531
17333W        W18197  16.971  16.270  20.063 -0.1120  0.0239  0.0130
17334W        W18198  17.095  19.029  18.772 -0.0829 -0.2515  0.0644
17335W        W18199  14.990  18.491  17.744  0.1362 -0.0110 -0.1788
17336W        W18200  16.850  18.907  16.987  0.3191  0.1750  0.0251
17337W        W18201  16.280  16.545  20.024 -0.1348 -0.0601 -0.2073
17338W        W18202  17.082  16.192  19.534  0.0900  0.0837  0.0121
17339W        W18203  17.558  17.072  20.496 -0.0910 -0.1369 -0.0971
17340W        W18204  14.900  16.942  17.654 -0.1187 -0.1518  0.3863
17341W        W18205  14.599  13.929  20.325 -0.1584  0.0421  0.5308
17342W        W18206  17.307  15.288  20.379 -0.3231  0.0741  0.3379
17343W        W18207  13.113  15.500  18.727  0.1469  0.0085 -0.1954
17344W        W18208  16.909  15.670  20.571 -0.2100  0.1349  0.0166
17345W        W18209  16.393  14.182  20.894 -0.1644  0.0470  0.0264
17346W        W18210  15.530  19.192  17.682 -0.3112  0.4022  0.2163
17347W        W18211  16.757  14.527  18.537 -0.1149  0.0325  0.1245
17348W        W18212  14.817  14.750  18.818 -0.2303 -0.2604 -0.1415
17349W        W18213  14.361  16.692  19.187 -0.3009  0.0271 -0.1438
17350W        W18214  16.768  18.180  20.400 -0.1957  0.0928  0.2060
17351W        W18215  16.406  17.934  19.118  0.0086  0.2126 -0.4020
17352W        W18216  13.691  16.642  22.361 -0.1015  0.1811  0.1703
17353W        W18217  14.592  18.731  18.993 -0.1299  0.1674 -0.0795
17354W        W18218  15.135  14.605  16.925 -0.0557  0.0805 -0.4028
17355W        W18219  12.657  15.917  20.365 -0.2088 -0.0795 -0.1878
17356W        W18220  16.214  16.052  22.196  0.1955  0.3090 -0.1504
17357W        W18221  13.717  16.626  16.735  0.0562 -0.2619  0.1059
17358W        W18222  11.690  17.206  18.162 -0.0494  0.1062  0.0430
17359W        W18223  13.718  15.452  20.743  0.1795  0.0039 -0.2483
17360W        W18224  13.000  19.861  19.214  0.0502 -0.0046  0.1363
17361W        W18225  18.567  16.741  19.644 -0.0047  0.0863  0.1464
17362W        W18226  15.722  16.045  22.593  0.1534 -0.2233 -0.3060
17363W        W18227  15.104  16.395  18.662 -0.1468 -0.1474  0.2754
17364W        W18228  18.807  15.559  20.842 -0.1264  0.0033 -0.0560
17365W        W18229  17.099  17.921  17.396 -0.0025 -0.2352  0.1631
17366W        W18230  17.138  17.683  21.132 -0.2946 -0.2866  0.0645
17367W        W18231  13.178  15.170  17.429  0.0023 -0.0379  0.1106
17368W        W18232  16.282  15.433  22.968  0.2879 -0.0347 -0.2272
17369W        W18233  17.598  18.226  20.674  0.2839 -0.1239 -0.0977
17370W        W18234  14.287  16.500  20.038 -0.0726  0.0047 -0.2883
17371W        W18235  17.690  17.761  20.735 -0.1645  0.3454 -0.0527
17372W        W18236  11.922  15.439  23.009 -0.0773  0.0917 -0.1089
17373W        W18237  13.651  15.335  19.569 -0.2533 -0.2381  0.1156
17374W        W18238  15.151  18.097  21.041  0.0238 -0.0702 -0.0019
17375W        W18239  19.126  16.370  19.701 -0.0301  0.0330 -0.0269
17376W        W18240  17.252  14.763  19.249 -0.1846 -0.2156  0.1652
17377W        W18241  16.879  18.205  24.023  0.4283 -0.1896  0.0136
17378W        W18242  19.508  15.891  24.125 -0.2848  0.0113 -0.0788
17379W        W18243  16.956  17.630  20.066  0.0539 -0.2190  0.2111
17380W        W18244  14.969  19.210  22.117  0.1236  0.1005  0.1352
17381W        W18245  18.368  14.360  18.610  0.0458 -0.1260  0.0237
17382W        W18246  18.104  15.559  21.085 -0.0100 -0.1593  0.0661
17383W        W18247  15.001  17.415  23.692 -0.0120 -0.2715 -0.1121
17384W        W18248  13.149  14.455  17.726 -0.2770 -0.0583  0.0250
17385W        W18249  16.104  15.776  24.347  0.0796 -0.4595  0.0570
17386W        W18250  18.565  18.859  16.507  0.0140 -0.1351  0.4609
17387W        W18251  20.267  14.020  18.098 -0.0813 -0.4678  0.0575
17388W        W18252  13.725  16.340  23.365 -0.0144  0.1399 -0.3700
17389W        W18253  13.894  13.280  19.480 -0.2137 -0.1348  0.1040
17390W        W18254  17.946  15.819  17.609  0.1369 -0.1932 -0.2060
17391W        W18255  18.060  18.134  17.814  0.1231  0.2262  0.0441
17392W        W18256  13.971  15.635  20.350  0.0362  0.3432  0.4041
17393W        W18257  13.182  15.034  16.346 -0.0081  0.0379 -0.1178
17394W        W18258  16.354  14.634  18.231  0.0662 -0.1324  0.1561
17395W        W18259  17.930  16.222  20.023  0.1232  0.1416  0.1314
17396W        W18260  16.755  18.331  24.480 -0.0513 -0.2026  0.1942
17397W        W18261  15.474  17.211  21.209  0.1550 -0.2062  0.2153
17398W        W18262  15.183  16.037  21.324 -0.2875  0.0338  0.1224
17399W        W18263  15.024  15.053  19.730 -0.2240  0.0122  0.1318
17400W        W18264  13.945  18.260  19.995 -0.0941  0.2756 -0.0323
17401W        W18265  13.009  16.847  20.716  0.1254  0.2908  0.1756
17402W        W18266  15.699  18.271  21.329 -0.1812  0.1100 -0.0821
17403W        W18267  17.848  16.658  21.299  0.0608  0.1134 -0.1054
17404W        W18268  15.768  17.250  20.746 -0.1299  0.0151  0.2058
17405W        W18269  15.406  16.005  19.355 -0.2719 -0.2905  0.0424
17406W        W18270  15.885  16.595  20.493 -0.0497  0.1938 -0.1842
17407W        W18271  19.288  12.240  20.887 -0.0797 -0.0790  0.0253
17408W        W18272  14.205  15.160  21.060 -0.0307  0.0312 -0.1218
17409W        W18273  18.563  14.728  20.784 -0.0858 -0.0730 -0.1813
17410W        W18274  17.566  15.895  19.256  0.1968  0.0367  0.2976
17411W        W18275  16.495  14.209  17.340 -0.0547  0.3181 -0.1541
17412W        W18276  15.259  18.773  19.313 -0.2064 -0.0105  0.0165
17413W        W18277  16.797  17.572  20.591  0.1383  0.1100  0.2038
17414W        W18278  15.678  16.776  18.085  0.2506  0.0125 -0.2101
17415W        W18279  13.368  14.646  19.421  0.1080 -0.1083 -0.0686
17416W        W18280  14.471  15.871  18.135  0.1286 -0.1112  0.3129
17417W        W18281  15.489  16.567  22.764  0.0454  0.3862  0.2323
17418W        W18282  18.371  17.241  19.435 -0.0407  0.0793 -0.0213
17419W        W18283  18.626  19.870  18.758  0.1472  0.0205  0.0909
17420W        W18284  15.013  17.472  18.968 -0.1626  0.3657  0.0770
17421W        W18285  17.725  19.433  21.576  0.0095  0.1798  0.2274
17422W        W18286  16.397  13.339  20.468  0.0470  0.3553  0.1258
17423W        W18287  17.464  20.063  20.474 -0.0621 -0.3745  0.0643
17424W        W18288  18.577  13.446  21.191  0.0258 -0.0496  0.2378
17425W        W18289  18.755  16.945  21.098 -0.0430  0.2362  0.1251
17426W        W18290  14.892  14.918  20.235 -0.1392  0.1628 -0.2665
17427W        W18291  16.183  13.416  19.286 -0.0526  0.2834  0.0606
17428W        W18292  16.753  18.006  21.141  0.1852 -0.1554 -0.5421
17429W        W18293  15.585  16.171  21.658  0.2848 -0.2303  0.3004
17430W        W18294  15.931  16.102  19.251 -0.0679 -0.3770  0.0579
17431W        W18295  15.609  18.129  20.348  0.1257  0.2352 -0.1352
17432W        W18296  15.298  14.608  19.634 -0.0038 -0.0302 -0.1757
17433W        W18297  14.487  17.170  17.362  0.0062  0.3286 -0.1063
17434W        W18298  14.220  15.909  19.989 -0.1194 -0.0736 -0.4201
17435W        W18299  16.272  20.005  20.738 -0.2223 -0.3523 -0.1744
17436W        W18300  15.014  15.798  17.807  0.1885 -0.2284  0.0169
17437W        W18301  18.695  11.496  19.059 -0.2151  0.2247  0.4171
17438W        W18302  16.101  21.059  16.922 -0.2362 -0.0451 -0.3116
17439W        W18303  16.834  18.417  20.871  0.0388 -0.1875  0.1443
17440W        W18304  15.143  13.660  21.182  0.0854  0.3744 -0.0896
17441W        W18305  17.015  18.518  20.107 -0.0810 -0.0330 -0.0539
17442W        W18306  15.200  15.526  19.182 -0.2236 -0.1348  0.1945
17443W        W18307  14.155  20.587  21.771  0.4281 -0.2063  0.0441
17444W        W18308  15.834  16.737  20.018 -0.2040  0.0529 -0.1375
17445W        W18309  15.613  15.243  19.058 -0.3338 -0.1285 -0.1108
17446W        W18310  16.824  12.995  21.336  0.0335 -0.0565  0.2750
17447W        W18311  15.088  16.887  21.627 -0.0332 -0.1644  0.1017
17448W        W18312  13.358  17.322  20.888  0.0663  0.1023  0.0693
17449W        W18313  16.875  16.219  21.426  0.1390 -0.0938 -0.1671
17450W        W18314  15.693  15.475  18.580  0.0797  0.0547  0.0743
17451W        W18315  15.425  14.064  19.623 -0.0518  0.1571 -0.0494
17452W        W18316  17.227  18.044  20.259 -0.2159 -0.0492  0.1513
17453W        W18317  18.377  16.412  20.423 -0.0049  0.2059 -0.2053
17454W        W18318  18.627  18.642  22.009  0.1160  0.0867  0.2038
17455W        W18319  15.906  16.233  20.180  0.0223  0.0338 -0.0430
17456W        W18320  13.694  15.928  19.995  0.0024 -0.0465 -0.0208
17457W        W18321  11.848  15.471  19.905  0.1301 -0.1507 -0.0789
17458W        W18322  15.225  14.993  19.271  0.2334  0.2481 -0.0124
17459W        W18323  16.049  20.809  22.382  0.0033  0.2317 -0.0010
17460W        W18324  16.064  17.333  18.609  0.2239 -0.1076 -0.1637
17461W        W18325  18.386  15.922  20.797  0.1031  0.0553 -0.2052
17462W        W18326  16.592  14.939  21.467 -0.0948 -0.1097 -0.1736
17463W        W18327  15.504  15.201  19.657 -0.0506 -0.1451  0.0895
17464W        W18328  13.842  17.468  19.810 -0.1921 -0.2351 -0.3537
17465W        W18329  15.746  16.826  16.000 -0.1610 -0.2103  0.1414
17466W        W18330  14.000  14.173  18.709 -0.0921 -0.2691 -0.3191
17467W        W18331  17.508  16.483  23.388  0.1645  0.0965 -0.1901
17468W        W18332  15.287  17.245  20.084 -0.1340  0.3639 -0.2676
17469W        W18333  12.814  18.479  18.947  0.0255  0.1148 -0.1552
17470W        W18334  15.689  18.779  21.382 -0.0889 -0.1655  0.2516
17471W        W18335  13.896  15.258  16.597 -0.1231  0.1569  0.1610
17472W        W18336  14.871  21.637  19.607 -0.0903 -0.1690  0.0961
17473W        W18337  15.850  15.577  19.398  0.0329  0.0078  0.3578
17474W        W18338  13.977  18.122  22.136  0.0393 -0.2031  0.1939
17475W        W18339  12.794  14.150  21.830  0.0626 -0.0296  0.1495
17476W        W18340  16.244  17.351  20.668  0.0821  0.0275  0.0918
17477W        W18341  17.266  13.205  21.352 -0.1807  0.1643 -0.1050
17478W        W18342  14.771  17.178  18.539 -0.1386  0.1450  0.0463
17479W        W18343  13.390  19.094  20.084  0.1972  0.0250 -0.0665
17480W        W18344  16.022  18.679  20.346 -0.1029 -0.0645  0.1028
17481W        W18345  16.312  17.917  18.588 -0.0731 -0.0683 -0.1416
17482W        W18346  15.582  17.696  19.342 -0.0375  0.2592  0.0056
17483W        W18347  16.852  17.869  22.753  0.1586  0.3676  0.0887
17484W        W18348  17.280  17.138  21.768 -0.0840 -0.1570 -0.0292
17485W        W18349  15.375  13.542  20.583 -0.2390  0.4307 -0.0041
17486W        W18350  14.799  18.187  21.517  0.0525 -0.0537  0.3282
17487W        W18351  14.410  15.557  21.275  0.0246 -0.1648 -0.0166
17488W        W18352  14.299  16.350  18.762 -0.0231  0.1181  0.1308
17489W        W18353  15.400  16.837  20.896  0.1443  0.2906  0.0804
17490W        W18354  17.256  13.223  20.770  0.0642 -0.0928  0.1252
17491W        W18355  14.276  13.646  18.231  0.2522 -0.1426  0.0303
17492W        W18356  14.928  14.419  20.493  0.3848  0.3122  0.3492
17493W        W18357  16.817  18.643  18.464  0.0555  0.1356 -0.3590
17494W        W18358  14.399  15.064  20.204 -0.2715  0.0260 -0.1194
17495W        W18359  14.842  14.608  19.827  0.0159  0.0787  0.1032
17496W        W18360  13.160  16.756  16.762  0.2445 -0.1134 -0.0182
17497W        W18361  16.074  19.831  21.596  0.0029 -0.0118  0.0444
17498W        W18362  18.206  17.820  18.644  0.0480  0.0781  0.0071
17499W        W18363  15.874  19.846  17.243  0.1540 -0.1544 -0.0238
17500W        W18364  13.852  13.971  18.252 -0.0433 -0.2388  0.0347
17501W        W18365  16.129  16.369  22.577 -0.0643 -0.0848 -0.0795
17502W        W18366  14.923  15.583  21.318 -0.2682 -0.0464 -0.1692
17503W        W18367  13.722  14.405  19.196 -0.0190  0.2266 -0.3067
17504W        W18368  18.691  15.969  20.381  0.0279 -0.1213  0.1969
17505W        W18369  16.142  16.703  22.179 -0.0054  0.0611  0.0747
17506W        W18370  14.996  18.012  17.493 -0.2269 -0.1839 -0.1823
17507W        W18371  15.656  18.157  20.869 -0.1723 -0.0695 -0.1148
17508W        W18372  16.160  20.557  19.420  0.3623  0.0999 -0.1451
17509W        W18373  15.992  18.984  21.732  0.0229  0.2146 -0.2324
17510W        W18374  14.925  17.561  23.209  0.1863 -0.1267 -0.1915
17511W        W18375  21.211  13.525  21.501  0.2323  0.0860 -0.0198
17512W        W18376  18.910  15.480  20.074  0.1072  0.1348  0.1875
17513W        W18377  17.707  16.685  22.347 -0.1259 -0.1515  0.0244
17514W        W18378  13.317  13.099  18.658  0.0755  0.1822  0.1457
17515W        W18379  18.063  17.902  21.516 -0.0527  0.0271 -0.0851
17516W        W18380  16.489  17.181  23.276  0.0472 -0.3710  0.3102
17517W        W18381  14.120  19.328  19.351  0.0206 -0.2717 -0.2558
17518W        W18382  17.463  15.702  22.207  0.0923 -0.0203  0.1764
17519W        W18383  15.262  19.035  21.286  0.2067  0.0570 -0.0469
17520W        W18384  15.803  20.074  17.751 -0.0687  0.2236 -0.2122
17521W        W18385  16.511  16.642  23.698  0.0514 -0.4212  0.0043
17522W        W18386  15.411  15.545  23.124 -0.0538 -0.0973 -0.1497
17523W        W18387  12.335  15.605  19.086 -0.1945  0.0015  0.0627
17524W        W18388  15.033  13.952  22.329 -0.1294  0.0337 -0.0535
17525W        W18389  15.874  15.311  23.286 -0.1751 -0.2669 -0.0491
17526W        W18390  14.774  17.946  20.101  0.0798  0.0676  0.0335
17527W        W18391  19.955  17.315  17.497  0.0680 -0.3121 -0.0804
17528W        W18392  16.338  13.524  23.418  0.2243 -0.0733 -0.0714
17529W        W18393  17.134  18.624  19.310  0.2242  0.1382  0.1932
17530W        W18394  17.400  18.861  19.995 -0.1064  0.0776  0.4309
17531W        W18395  15.180  17.701  19.903  0.2394  0.0361 -0.2331
17532W        W18396  13.808  15.960  20.825 -0.1593  0.1145  0.2618
17533W        W18397  14.487  17.247  21.080  0.0662  0.0292  0.1307
17534W        W18398  15.343  14.104  17.125  0.0725  0.2155  0.3045
17535W        W18399  17.445  14.921  18.750 -0.0606  0.0476  0.2385
17536W        W18400  16.751  17.065  19.115 -0.0389  0.0639 -0.1001
17537W        W18401  18.233  16.715  19.141 -0.0653 -0.2177  0.1405
17538W        W18402  15.001  17.926  23.853 -0.0291  0.1144 -0.3675
17539W        W18403  19.447  17.541  17.081  0.0023 -0.1792 -0.1516
17540W        W18404  14.996  18.543  20.525  0.2685  0.2725 -0.1845
17541W        W18405  14.148  15.820  18.647  0.0905  0.2281  0.1301
17542W        W18406  16.615  20.615  19.750 -0.0503 -0.0252 -0.0524
17543W        W18407  16.625  16.723  21.311 -0.4078  0.2733  0.0036
17544W        W18408  12.418  15.281  22.088  0.1678  0.0261  0.3402
17545W        W18409  14.688  16.487  16.596  0.1056 -0.1053 -0.0044
17546W        W18410  15.361  20.904  19.749  0.1224  0.0051  0.1941
17547W        W18411  18.265  13.634  20.467  0.0080  0.1087  0.0857
17548W        W18412  14.824  14.715  19.315  0.0980 -0.0288  0.1690
17549W        W18413  18.363  18.952  20.919 -0.0650  0.1369 -0.1732
17550W        W18414  17.429  14.216  22.379  0.1263  0.1352  0.0152
17551W        W18415  15.075  15.586  20.742  0.0707  0.2369  0.0134
17552W        W18416  14.952  15.821  22.374 -0.1479  0.1881 -0.2797
17553W        W18417  14.610  16.363  22.632 -0.2249 -0.0678 -0.2204
17554W        W18418  17.104  16.665  21.413  0.1171  0.2499  0.1360
17555W        W18419  16.146  16.621  19.462 -0.1965 -0.1986 -0.3235
17556W        W18420  16.792  20.773  21.920 -0.4096 -0.2147 -0.2436
17557W        W18421  14.097  15.953  17.818 -0.0158  0.1960 -0.0563
17558W        W18422  15.473  17.709  20.976 -0.0708 -0.1368  0.0098
17559W        W18423  15.984  17.073  24.822  0.1527 -0.1081  0.0761
17560W        W18424  16.553  14.256  19.393  0.0475  0.1524 -0.0998
17561W        W18425  15.733  15.429  20.034 -0.0047  0.0053  0.0318
17562W        W18426  15.084  15.299  22.197  0.0637  0.4018 -0.0520
17563W        W18427  14.663  15.397  19.904  0.0317 -0.0510 -0.0510
17564W        W18428  14.483  15.619  20.305  0.2950 -0.0371  0.2442
17565W        W18429  17.180  16.678  20.321 -0.1036 -0.1444  0.1984
17566W        W18430  17.478  16.153  20.806 -0.2741 -0.0441  0.2727
17567W        W18431  16.274  16.901  20.384  0.2118  0.1658 -0.0224
17568W        W18432  14.977  18.159  19.628 -0.2106 -0.0010  0.1421
17569W        W18433  13.265  15.505  19.299 -0.1047  0.0755  0.1122
17570W        W18434  15.372  19.376  19.406  0.2775  0.0102  0.1878
17571W        W18435  16.641  17.775  19.536 -0.0702 -0.0573  0.1023
17572W        W18436  14.952  12.747  20.435  0.1544 -0.2309 -0.1458
17573W        W18437  15.314  17.865  18.422  0.0968 -0.1011 -0.0213
17574W        W18438  13.572  18.880  20.638 -0.1842 -0.0613 -0.2955
17575W        W18439  17.362  17.467  18.197  0.0584  0.3297  0.2129
17576W        W18440  18.474  16.125  22.243 -0.0456 -0.1822  0.1350
17577W        W18441  16.957  14.990  20.860  0.0721  0.0266  0.1072
17578W        W18442  13.272  16.755  21.135  0.2098 -0.0767 -0.3579
17579W        W18443  15.775  14.862  20.421 -0.2151  0.4605 -0.0513
17580W        W18444  17.380  17.575  20.317  0.2822 -0.0760  0.2286
17581W        W18445  14.047  15.618  18.235  0.3054  0.0509 -0.1119
17582W        W18446  14.478  14.590  20.359 -0.1259 -0.3766 -0.1966
17583W        W18447  17.335  19.055  21.304 -0.2233 -0.2283  0.0155
17584W        W18448  13.780  16.837  20.996 -0.0427 -0.2224  0.0371
17585W        W18449  15.190  17.253  22.035  0.0943 -0.2180  0.0771
17586W        W18450  15.714  17.160  22.203 -0.1545 -0.2404  0.0226
17587W        W18451  15.368  13.944  18.729  0.2409  0.0315  0.0752
17588W        W18452  14.699  18.298  22.541  0.2276 -0.0982 -0.1600
17589W        W18453  18.950  17.008  19.893 -0.0367  0.2887 -0.0233
17590W        W18454  10.356  16.872  21.584  0.2684 -0.0918 -0.1016
17591W        W18455  16.662  20.279  21.061  0.1567  0.1896 -0.3667
17592W        W18456  12.992  15.859  21.264 -0.1181 -0.1103  0.2543
17593W        W18457  16.628  19.146  21.208 -0.0579 -0.1692  0.0809
17594W        W18458  14.351  15.116  18.573 -0.1784  0.0025  0.0120
17595W        W18459  16.249  20.048  18.518  0.0192 -0.0805 -0.0628
17596W        W18460  15.948  18.586  20.870 -0.0811  0.0913  0.0973
17597W        W18461  15.452  15.653  22.380 -0.2739  0.0119  0.2053
17598W        W18462  17.298  12.766  18.853 -0.1291  0.0128  0.0430
17599W        W18463  17.934  14.474  20.782  0.0191 -0.1970 -0.0582
17600W        W18464  14.711  19.974  18.609  0.2087  0.1091 -0.0010
17601W        W18465  13.817  14.904  19.287 -0.4345 -0.1233 -0.0741
17602W        W18466  16.155  18.519  21.501  0.1156  0.0247  0.1138
17603W        W18467  15.737  17.714  21.409  0.1007 -0.0575 -0.3903
17604W        W18468  16.532  18.659  20.540 -0.2311  0.0401  0.0845
17605W        W18469  16.222  17.019  19.842  0.1043  0.2231  0.0150
17606W        W18470  14.753  17.741  19.538  0.3603 -0.3006 -0.0861
17607W        W18471  13.900  16.232  20.292 -0.1872  0.0784 -0.2510
17608W        W18472  17.662  11.893  19.070  0.0344  0.0103 -0.1253
17609W        W18473  16.734  17.322  21.016  0.2020  0.3164  0.0357
17610W        W18474  14.686  19.623  20.074 -0.1296 -0.0799  0.5179
17611W        W18475  15.124  20.779  20.627 -0.0112 -0.1299 -0.0894
17612W        W18476  19.179  18.363  17.979 -0.0863  0.5023 -0.0084
17613W        W18477  15.541  18.106  19.832 -0.0834  0.0482  0.2154
17614W        W18478  15.892  16.787  22.686  0.1043  0.0379 -0.0042
17615W        W18479  14.351  17.978  21.653 -0.1299  0.0831  0.0197
17616W        W18480  16.898  18.087  19.827  0.1558  0.0003  0.2416
17617W        W18481  17.078  17.562  21.897  0.0635 -0.1340  0.1556
17618W        W18482  13.155  16.871  16.262  0.1939  0.0149  0.0113
17619W        W18483  15.318  14.562  20.179  0.1412  0.3605  0.0883
17620W        W18484  13.696  17.295  20.440 -0.4380  0.1879 -0.2417
17621W        W18485  18.666  16.225  23.561  0.3602  0.1138  0.1234
17622W        W18486  17.466  13.397  21.887 -0.0365  0.0320  0.1938
17623W        W18487  21.330  15.830  21.503 -0.1267 -0.1568  0.2832
17624W        W18488  16.621  19.422  20.200 -0.1243  0.0140  0.2404
17625W        W18489  18.706  16.290  19.363 -0.2155 -0.1286  0.2571
17626W        W18490  18.212  17.785  20.525  0.1073 -0.0243 -0.0407
17627W        W18491  15.184  17.963  20.555 -0.2919  0.0045 -0.0904
17628W        W18492  17.354  15.725  18.095 -0.1385  0.0588  0.1788
17629W        W18493  15.157  16.437  21.647 -0.3671  0.0416  0.4004
17630W        W18494  17.121  15.468  22.529  0.0504  0.3039  0.0747
17631W        W18495  14.749  16.312  19.015 -0.1892 -0.0966 -0.2074
17632W        W18496  16.703  16.524  20.337 -0.1335 -0.0379  0.2829
17633W        W18497  14.475  14.948  19.680  0.0458  0.1647 -0.0650
17634W        W18498  10.717  14.182  19.321 -0.0194  0.1288 -0.2900
17635W        W18499  14.574  16.313  20.875 -0.1856 -0.0535  0.1781
17636W        W18500  16.055  18.292  19.001  0.2983 -0.1367 -0.1427
17637W        W18501  15.437  18.230  19.345 -0.0989 -0.0180  0.0808
17638W        W18502  14.249  16.675  17.553 -0.0633 -0.3688 -0.2475
17639W        W18503  17.115  19.318  19.986 -0.2912 -0.0517 -0.0082
17640W        W18504  16.275  18.625  19.301  0.0779  0.1555  0.0577
17641W        W18505  15.954  17.705  20.238  0.2266 -0.0680 -0.0510
17642W        W18506  16.709  16.722  18.732 -0.1083 -0.1070 -0.3124
17643W        W18507  15.274  19.233  20.558  0.1464  0.1834 -0.2533
17644W        W18508  14.244  17.700  19.469  0.1347  0.2585 -0.0237
17645W        W18509  12.493  18.706  19.363 -0.1075  0.1683 -0.1096
17646W        W18510  16.831  13.540  21.438  0.0034 -0.2301  0.2157
17647W        W18511  13.310  15.696  19.743 -0.1693  0.1997 -0.0582
17648W        W18512  16.200  15.399  23.631  0.2100 -0.1984 -0.0984
17649W        W18513  13.971  16.818  20.500 -0.1455  0.0376  0.1554
17650W        W18514  12.125  14.651  17.821 -0.2019  0.2155  0.0700
17651W        W18515  15.097  15.981  18.947 -0.0443  0.2011  0.3588
17652W        W18516  18.333  16.641  22.356 -0.3050 -0.4225 -0.3328
17653W        W18517  14.761  19.485  20.539  0.3098  0.4266  0.1492
17654W        W18518  13.547  13.952  18.881 -0.3345  0.2419  0.0694
17655W        W18519  15.235  17.265  20.668 -0.0669 -0.2137  0.2281
17656W        W18520  15.151  16.868  19.480  0.0839 -0.0750 -0.0673
17657W        W18521  16.544  19.846  19.921 -0.1798 -0.0728  0.0965
17658W        W18522  17.384  16.969  18.258  0.0231 -0.1853 -0.2044
17659W        W18523  13.509  15.105  16.998  0.2244 -0.1168 -0.2671
17660W        W18524  17.831  13.995  21.273 -0.0861 -0.0050 -0.0568
17661W        W18525  14.466  13.891  18.768 -0.0178  0.2293 -0.1383
17662W        W18526  18.067  16.770  19.834  0.1188 -0.1782 -0.0462
17663W        W18527  18.043  13.935  20.810  0.1424 -0.0385 -0.1805
17664W        W18528  18.852  18.096  20.952  0.2511 -0.4481 -0.0398
17665W        W18529  14.467  18.941  21.117  0.0250  0.2535  0.3201
17666W        W18530  17.025  13.897  22.179 -0.3023  0.2000 -0.0808
17667W        W18531  18.612  17.665  23.536  0.0017 -0.1959  0.0557
17668W        W18532  15.615  18.089  18.894 -0.0466 -0.1640  0.0351
17669W        W18533  18.000  14.081  20.280 -0.0787  0.1172 -0.0539
17670W        W18534  14.241  15.337  21.702 -0.1690  0.1294  0.1294
17671W        W18535  15.526  15.882  20.336  0.1351  0.3367  0.1528
17672W        W18536  13.869  19.442  18.925 -0.1907 -0.0710 -0.0892
17673W        W18537  14.975  15.421  22.685 -0.0945 -0.0716  0.0591
17674W        W18538  17.566  17.930  21.256 -0.3913 -0.0169  0.0884
17675W        W18539  16.608  18.003  25.866  0.2720 -0.0359  0.2749
17676W        W18540  17.599  18.468  20.199  0.3966 -0.0778 -0.3760
17677W        W18541  15.662  17.681  17.984  0.2108  0.1116 -0.0252
17678W        W18542  13.426  15.743  21.062 -0.1428 -0.0913 -0.1261
17679W        W18543  14.550  18.111  21.046 -0.0311 -0.0171  0.0748
17680W        W18544  15.900  20.819  19.770  0.0052  0.0818 -0.0440
17681W        W18545  15.358  19.061  18.355 -0.0301  0.1855  0.0862
17682W        W18546  16.478  18.552  20.040  0.0951  0.2018  0.1002
17683W        W18547  19.777  15.723  22.473  0.1548  0.1435  0.0540
17684W        W18548  17.302  22.307  20.425 -0.1670 -0.0982 -0.2027
17685W        W18549  15.349  20.977  18.325  0.2006 -0.2808  0.0574
17686W        W18550  17.320  17.398  20.776 -0.1223 -0.0090 -0.2918
17687W        W18551  15.942  17.743  20.744  0.1830  0.2466  0.2926
17688W        W18552  15.534  17.113  19.704 -0.0848  0.3177  0.0522
17689W        W18553  14.520  18.323  17.666 -0.0102  0.3482  0.0161
17690W        W18554  13.338  15.547  17.689 -0.1208 -0.1562 -0.1198
17691W        W18555  13.808  19.539  25.237 -0.1288  0.1038 -0.1657
17692W        W18556  13.802  14.691  24.860 -0.0538 -0.2509  0.0933
17693W        W18557  18.258  17.767  23.843 -0.1496  0.0085 -0.0185
17694W        W18558  19.877  18.551  27.133  0.1252  0.0587 -0.0484
17695W        W18559  13.751  17.609  21.115 -0.1917  0.0001 -0.0065
17696W        W18560  15.079  16.717  23.497 -0.1094  0.0728 -0.1715
17697W        W18561  16.503  18.371  24.953 -0.1665  0.0560  0.3443
17698W        W18562  15.345  16.977  22.489 -0.0035 -0.0383  0.5004
17699W        W18563  19.501  16.108  25.825  0.0699  0.0713  0.1475
17700W        W18564  18.299  16.173  24.570  0.2280 -0.1195 -0.0299
17701W        W18565  15.663  14.589  26.783  0.1860 -0.2515  0.2362
17702W        W18566  18.156  17.486  23.364 -0.3445 -0.2253  0.0765
17703W        W18567  18.824  17.839  23.013 -0.0538 -0.1493  0.2688
17704W        W18568  16.150  15.235  26.282  0.3378 -0.3571  0.6310
17705W        W18569  15.667  13.126  25.749  0.2048  0.0857  0.2902
17706W        W18570  13.668  16.476  29.134 -0.1080  0.1996 -0.1719
17707W        W18571  15.285  19.698  20.676  0.0968 -0.1208  0.1867
17708W        W18572  15.065  16.481  24.650 -0.0094 -0.2061  0.0619
17709W        W18573  15.913  15.919  26.728  0.0063 -0.3894 -0.0369
17710W        W18574  17.382  16.141  24.670  0.1885 -0.1189 -0.2610
17711W        W18575  15.644  14.209  24.661  0.1033  0.0848 -0.0729
17712W        W18576  14.498  16.196  19.576  0.2279  0.3240  0.0429
17713W        W18577  15.837  17.289  23.686 -0.0142 -0.1977 -0.2624
17714W        W18578  14.057  16.349  26.664 -0.0329  0.2323 -0.1736
17715W        W18579  14.609  15.248  23.965  0.1338  0.1157  0.4164
17716W        W18580  15.305  16.748  25.272 -0.2072 -0.3835  0.2335
17717W        W18581  16.884  16.861  27.327  0.1620 -0.0896 -0.0942
17718W        W18582  16.113  16.337  23.098 -0.0481  0.2991 -0.2011
17719W        W18583  16.967  16.410  25.322 -0.3575 -0.5015 -0.1239
17720W        W18584  14.617  15.821  22.803 -0.1388 -0.1343  0.3075
17721W        W18585  15.917  17.779  23.679  0.0796 -0.0473 -0.0593
17722W        W18586  13.767  17.595  26.221 -0.0289  0.1699 -0.1991
17723W        W18587  15.375  18.582  27.848 -0.4653 -0.2125  0.2107
17724W        W18588  15.702  15.672  27.537  0.2041  0.0835  0.2177
17725W        W18589  15.536  14.146  26.946 -0.0495 -0.1873 -0.0419
17726W        W18590  18.004  18.042  27.374 -0.1801  0.0095  0.2578
17727W        W18591  14.767  13.107  22.815 -0.2552 -0.2685  0.1741
17728W        W18592  17.921  18.883  24.570  0.2572 -0.1125 -0.2584
17729W        W18593  17.545  19.879  23.465  0.0085 -0.2099 -0.0002
17730W        W18594  20.289  16.593  26.272 -0.0861 -0.1074 -0.1326
17731W        W18595  20.495  15.687  21.773 -0.0856 -0.1835 -0.0116
17732W        W18596  18.742  17.005  24.755  0.0152  0.0506  0.0921
17733W        W18597  15.175  18.222  24.285  0.1702 -0.1413  0.0903
17734W        W18598  17.189  18.510  22.755  0.2675  0.1460  0.2164
17735W        W18599  17.158  20.582  23.399  0.0634  0.1966 -0.0688
17736W        W18600  16.747  17.642  23.212  0.0373  0.0113  0.0437
17737W        W18601  17.905  15.098  23.776 -0.1653 -0.0957 -0.1386
17738W        W18602  18.634  17.812  24.597 -0.3641 -0.1994 -0.0883
17739W        W18603  15.155  15.117  23.101 -0.2219 -0.0179  0.2583
17740W        W18604  17.991  16.890  23.394  0.1155  0.3713 -0.1522
17741W        W18605  15.257  17.705  24.584 -0.0361  0.3965  0.3547
17742W        W18606  16.570  16.622  24.406 -0.0787 -0.0991 -0.0135
17743W        W18607  15.816  16.708  26.435 -0.0406  0.1862  0.0578
17744W        W18608  18.459  17.711  26.178 -0.3540 -0.0332  0.1555
17745W        W18609  17.167  15.527  26.020 -0.1479  0.0789 -0.0634
17746W        W18610  16.778  18.750  22.874 -0.1422  0.1623 -0.0725
17747W        W18611  12.119  15.191  23.463  0.2326 -0.2879  0.0232
17748W        W18612  17.241  17.787  23.905 -0.0451 -0.2265 -0.0213
17749W        W18613  12.286  17.493  26.235 -0.3610 -0.2465  0.1420
17750W        W18614  15.745  19.377  24.232  0.1218  0.2953 -0.2389
17751W        W18615  17.415  17.895  23.465 -0.1412 -0.1804 -0.2291
17752W        W18616  13.404  18.485  25.183  0.1481  0.1014  0.2678
17753W        W18617  16.837  18.377  26.799 -0.0108  0.0507  0.1442
17754W        W18618  16.067  17.401  25.265  0.0868 -0.1795  0.0475
17755W        W18619  18.432  17.296  24.466 -0.1728  0.0640  0.0271
17756W        W18620  18.246  15.390  23.455 -0.0486 -0.0183 -0.0148
17757W        W18621  14.954  18.951  20.863  0.0341 -0.0135 -0.0362
17758W        W18622  16.272  16.972  20.968 -0.2136  0.3688 -0.1113
17759W        W18623  14.858  17.496  24.832  0.3220  0.0634  0.0282
17760W        W18624  16.709  17.463  23.686 -0.0829  0.0377  0.1073
17761W        W18625  17.953  17.524  24.167 -0.5418 -0.1248  0.1303
17762W        W18626  14.685  17.702  21.413  0.1277  0.0385 -0.0009
17763W        W18627  17.504  17.830  26.113 -0.0721  0.1294  0.1823
17764W        W18628  19.018  16.390  25.860 -0.1865  0.0830 -0.1440
17765W        W18629  16.901  15.177  27.055  0.2092  0.1095  0.0278
17766W        W18630  17.125  18.120  26.413  0.0703  0.1630  0.2000
17767W        W18631  13.065  17.192  20.382  0.0495  0.2764  0.0525
17768W        W18632  13.188  17.622  25.913 -0.0237 -0.4776  0.2054
17769W        W18633  18.057  17.501  22.794  0.1233 -0.0925 -0.0613
17770W        W18634  17.314  16.880  24.113 -0.0173  0.1047 -0.1155
17771W        W18635  16.294  14.752  25.258  0.0172 -0.0615  0.2279
17772W        W18636  16.791  17.370  24.795 -0.1641  0.1098 -0.1645
17773W        W18637  17.510  14.532  23.945  0.1052 -0.5080  0.1576
17774W        W18638  20.471  15.868  26.820  0.2555 -0.0441  0.2274
17775W        W18639  17.666  17.292  26.715  0.1081  0.1573  0.1805
17776W        W18640  15.517  16.682  21.378  0.1160  0.0912  0.0633
17777W        W18641  18.652  18.586  27.243  0.0278 -0.0077 -0.0493
17778W        W18642  16.732  15.372  28.453  0.0307 -0.0756 -0.1119
17779W        W18643  17.805  17.890  28.134  0.1115 -0.0254 -0.2257
17780W        W18644  15.846  17.681  26.263  0.1832  0.0324  0.1436
17781W        W18645  18.256  18.330  22.244  0.4128 -0.4383 -0.3427
17782W        W18646  19.340  14.330  26.415 -0.1430 -0.1107 -0.1494
17783W        W18647  14.372  18.328  25.515  0.2500 -0.0357  0.1418
17784W        W18648  15.962  14.537  24.918  0.0957 -0.0065  0.1507
17785W        W18649  14.121  17.946  25.288 -0.0329  0.0537 -0.0221
17786W        W18650  19.123  16.077  25.009 -0.2653 -0.3911 -0.2010
17787W        W18651  18.946  17.031  20.368  0.0672  0.2256 -0.1004
17788W        W18652  16.301  17.047  25.628 -0.2690 -0.1365 -0.0604
17789W        W18653  12.095  13.279  20.753  0.0372  0.4343 -0.2451
17790W        W18654  18.674  18.175  21.616  0.4035  0.0469 -0.1176
17791W        W18655  20.147  17.671  20.827  0.2859 -0.0152  0.3103
17792W        W18656  13.205  16.871  24.002 -0.3592  0.1348  0.3570
17793W        W18657  17.931  18.933  23.862  0.1529  0.0607  0.1341
17794W        W18658  15.658  20.440  24.977 -0.1087 -0.0320 -0.3673
17795W        W18659  16.964  16.544  23.953 -0.0400  0.2156  0.3544
17796W        W18660  17.695  14.747  26.333 -0.1544  0.3329 -0.0704
17797W        W18661  16.007  18.015  23.206 -0.0116 -0.0391  0.1438
17798W        W18662  17.172  20.576  24.412  0.1167  0.0800 -0.3157
17799W        W18663  17.087  14.439  23.702 -0.0515 -0.1263 -0.0013
17800W        W18664  14.184  15.652  26.407  0.0333  0.0764  0.1082
17801W        W18665  13.863  14.060  26.799 -0.2428  0.0949  0.2309
17802W        W18666  18.240  19.702  26.346  0.0439  0.1111  0.0158
17803W        W18667  16.690  17.310  25.949  0.0134  0.0350 -0.0166
17804W        W18668  14.432  19.333  25.969 -0.0865  0.0500  0.0327
17805W        W18669  16.945  18.019  22.099 -0.1248  0.2503  0.1015
17806W        W18670  16.116  17.164  22.938 -0.2626 -0.2511  0.0775
17807W        W18671  16.414  16.273  27.947 -0.0655  0.1187  0.0481
17808W        W18672  15.037  17.550  25.798 -0.1183  0.0430 -0.1966
17809W        W18673  17.426  16.928  26.385 -0.0983  0.0718  0.1258
17810W        W18674  18.367  14.264  24.981 -0.3128  0.3244 -0.0201
17811W        W18675  17.071  18.385  21.791 -0.1670  0.1969  0.0397
17812W        W18676  16.008  19.418  22.065  0.1018 -0.0708  0.1353
17813W        W18677  16.289  19.583  25.226 -0.0715 -0.0792 -0.0378
17814W        W18678  14.945  15.437  24.553 -0.0774 -0.0645 -0.2734
17815W        W18679  17.777  18.555  22.018  0.0630  0.0879 -0.2226
17816W        W18680  18.006  17.829  25.938  0.0370 -0.2084 -0.0291
17817W        W18681  14.295  14.543  22.043 -0.0306  0.0844  0.0200
17818W        W18682  18.694  18.752  23.486 -0.0884 -0.3974 -0.0618
17819W        W18683  17.179  18.232  21.285  0.2800  0.0312  0.2304
17820W        W18684  15.205  18.715  22.836 -0.0528 -0.1594 -0.1131
17821W        W18685  16.241  19.998  23.401 -0.2450  0.1186  0.1411
17822W        W18686  17.200  16.682  26.740 -0.1093 -0.0991 -0.1545
17823W        W18687  16.995  20.460  25.942  0.0107 -0.0733  0.0522
17824W        W18688  17.769  17.428  26.210 -0.0817 -0.4001  0.0173
17825W        W18689  16.662  20.879  25.875  0.0245  0.1398  0.1121
17826W        W18690  14.366  15.251  23.508  0.0455  0.0361  0.3046
17827W        W18691  16.050  18.484  25.170 -0.1829 -0.1035  0.2493
17828W        W18692  19.469  16.641  25.906  0.0821  0.1611 -0.1261
17829W        W18693  17.330  17.557  22.933  0.0835 -0.3446  0.3708
17830W        W18694  17.490  19.560  22.336  0.1007  0.0704 -0.0144
17831W        W18695  16.013  15.368  24.112 -0.0186 -0.0243  0.0640
17832W        W18696  16.766  16.326  23.446  0.1806  0.0595  0.3457
17833W        W18697  14.393  19.291  22.000 -0.1495 -0.2135  0.0905
17834W        W18698  15.558  14.556  23.577  0.0032  0.0359 -0.0512
17835W        W18699  17.176  18.148  24.871  0.0136  0.1094  0.1064
17836W        W18700  17.133  15.165  24.482  0.0883 -0.1933  0.1878
17837W        W18701  20.238  15.930  24.121  0.2542 -0.0531 -0.0715
17838W        W18702  18.095  17.321  20.725 -0.6178  0.2724  0.0813
17839W        W18703  16.892  18.759  22.432  0.2730 -0.5404  0.3021
17840W        W18704  16.460  15.736  24.777 -0.1281 -0.0172 -0.0092
17841W        W18705  16.732  19.057  24.507 -0.0936  0.1158  0.1959
17842W        W18706  16.098  15.645  22.567 -0.0195 -0.2539  0.0996
17843W        W18707  15.243  17.961  25.495 -0.0691  0.0194 -0.3256
17844W        W18708  16.149  16.249  24.169 -0.5287 -0.0726  0.2458
17845W        W18709  16.704  18.528  25.676 -0.0204  0.1003  0.0546
17846W        W18710  18.291  15.884  22.654 -0.1926  0.3785 -0.2444
17847W        W18711  15.001  17.327  26.550  0.2848 -0.2525  0.1133
17848W        W18712  18.278  15.384  24.075 -0.2011  0.1467 -0.0414
17849W        W18713  13.447  15.900  23.406  0.0853 -0.1228 -0.1236
17850W        W18714  17.932  16.541  22.994  0.1697 -0.2468  0.1928
17851W        W18715  16.680  16.970  24.024  0.0477 -0.2588  0.1692
17852W        W18716  15.561  16.150  23.955  0.0793  0.2397 -0.3896
17853W        W18717  16.133  17.094  27.895  0.0907  0.0769  0.0516
17854W        W18718  15.756  16.891  25.968 -0.0323  0.0260  0.2349
17855W        W18719  17.111  17.124   0.172  0.3408 -0.1115 -0.2934
17856W        W18720  16.033  16.909  23.362 -0.0422  0.0474  0.2115
17857W        W18721  16.070  18.397  22.893 -0.1073 -0.1539  0.1770
17858W        W18722   9.982  19.663  23.948  0.1591 -0.2253 -0.0727
17859W        W18723  13.446  17.968  23.284  0.1535  0.0394  0.0512
17860W        W18724  14.401  19.440  20.879  0.3544  0.0037 -0.1273
17861W        W18725  16.446  17.924  23.840 -0.2644  0.3525 -0.0406
17862W        W18726  19.125  16.181  24.334  0.1817 -0.2118  0.2242
17863W        W18727  13.903  17.738  21.718  0.3965  0.0036  0.0680
17864W        W18728  16.733  18.306  22.467 -0.2168  0.4230  0.3441
17865W        W18729  16.349  12.507  22.891 -0.1466 -0.2529 -0.2026
17866W        W18730  17.969  14.780  21.186 -0.2501  0.1793 -0.0353
17867W        W18731  14.283  16.813  25.521  0.2263  0.3281  0.3738
17868W        W18732  15.792  17.471  22.688 -0.0808 -0.0340 -0.1194
17869W        W18733  17.489  18.398  23.407  0.1947  0.2665 -0.4251
17870W        W18734  15.082  17.190  25.431 -0.3865 -0.1994  0.0313
17871W        W18735  13.444  18.248  19.969  0.1491 -0.1164 -0.0751
17872W        W18736  16.781  18.708  24.158 -0.0946  0.1297 -0.3250
17873W        W18737  17.837  17.074  21.600  0.1758  0.0294  0.1756
17874W        W18738  14.589  17.480  21.947 -0.0864 -0.1466  0.0656
17875W        W18739  17.963  16.287  22.550 -0.1372 -0.1004  0.0747
17876W        W18740  18.686  15.871  25.825 -0.0027 -0.0345  0.1432
17877W        W18741  17.908  18.006  23.547  0.0119 -0.0849  0.1442
17878W        W18742  14.718  18.119  20.598  0.3153 -0.3377  0.1710
17879W        W18743  15.369  17.350  26.145 -0.0380 -0.1616  0.0764
17880W        W18744  16.833  16.133  24.746 -0.0497 -0.0619 -0.0431
17881W        W18745  13.620  16.638  21.467  0.0417  0.0181 -0.1836
17882W        W18746  12.165  18.555  22.450 -0.1432 -0.2289  0.1275
17883W        W18747  15.456  15.279  28.249 -0.1662 -0.0013 -0.2069
17884W        W18748  17.003  15.338  23.897  0.1426 -0.1530  0.3583
17885W        W18749  15.463  13.761  24.748 -0.1232  0.0240 -0.0278
17886W        W18750  18.754  16.989  22.669 -0.1829 -0.2289 -0.1256
17887W        W18751  16.733  15.762  23.154 -0.0405  0.0793 -0.1866
17888W        W18752  15.318  19.721  23.913 -0.3741 -0.0470  0.1205
17889W        W18753  15.754  17.624  24.363  0.0210  0.3430 -0.1283
17890W        W18754  16.770  15.303  22.884  0.0515 -0.0127 -0.1453
17891W        W18755  12.277  14.403  24.688  0.1831 -0.2358  0.0445
17892W        W18756  19.893  14.592  22.049  0.3262 -0.1274 -0.4361
17893W        W18757  16.744  20.099  23.255  0.1166  0.2968 -0.1920
17894W        W18758  12.801  17.770  26.262 -0.1560  0.4621  0.0860
17895W        W18759  16.277  17.593  24.596  0.1468 -0.2568 -0.1684
17896W        W18760  14.658  16.669  23.088 -0.2841 -0.2986 -0.3215
17897W        W18761  14.802  18.190  25.259 -0.0182 -0.1867 -0.0807
17898W        W18762  16.402  17.185  26.524  0.0642 -0.0204  0.0312
17899W        W18763  17.009  19.313  22.280 -0.0018 -0.0405 -0.1642
17900W        W18764  16.214  16.294  21.296  0.0381 -0.0216  0.1000
17901W        W18765  14.733  15.661  24.955  0.2351 -0.4141 -0.1515
17902W        W18766  12.753  18.827  26.948 -0.0783 -0.2835 -0.1721
17903W        W18767  14.364  16.586  24.088 -0.0809 -0.0280 -0.2840
17904W        W18768  17.463  16.383  25.542  0.0926 -0.2731  0.0587
17905W        W18769  19.905  16.693  25.498 -0.1178  0.2363 -0.1697
17906W        W18770  18.866  16.219  21.626 -0.0452  0.0002 -0.0835
17907W        W18771  18.258  14.863  21.811  0.0626  0.2085 -0.1134
17908W        W18772  14.618  18.679  23.285  0.0011 -0.0708 -0.0774
17909W        W18773  17.172  15.603  26.600  0.0176  0.3514  0.1428
17910W        W18774  15.894  19.313  27.705 -0.3316  0.1340  0.0030
17911W        W18775  20.617  17.011  26.366 -0.1141 -0.3526  0.1431
17912W        W18776  16.751  16.537  26.877 -0.0606  0.3209  0.1538
17913W        W18777  15.703  17.745  25.334 -0.0242  0.1926  0.5235
17914W        W18778  17.631  15.190  21.231 -0.0545  0.2353  0.2697
17915W        W18779  17.688  15.708  24.866 -0.1848 -0.0498 -0.3015
17916W        W18780  14.136  16.684  24.612  0.2673  0.0926 -0.0383
17917W        W18781  16.596  19.371  26.223  0.1214  0.0936  0.4002
17918W        W18782  16.446  16.730  21.789  0.1787 -0.0647  0.0363
17919W        W18783  18.032  17.726  19.929  0.1319  0.1448 -0.0727
17920W        W18784  16.684  17.507  24.192  0.1657 -0.1815  0.1813
17921W        W18785  17.413  15.105  26.249  0.3412  0.1112  0.2002
17922W        W18786  12.962  13.265  27.928 -0.3738 -0.2837 -0.1509
17923W        W18787  15.192  18.361  23.760 -0.2667 -0.1047 -0.2008
17924W        W18788  19.211  16.446  23.319 -0.1661 -0.0533 -0.0777
17925W        W18789  13.425  14.735  25.247  0.0479  0.3025  0.0068
17926W        W18790  15.704  18.497  21.788  0.1288 -0.0045 -0.0199
17927W        W18791  17.747  18.373  22.447  0.2381 -0.1081  0.2153
17928W        W18792  13.612  14.875  23.792 -0.0111 -0.2810  0.1244
17929W        W18793  16.310  17.227  23.775  0.4040 -0.2766  0.1893
17930W        W18794  19.407  19.271  27.186 -0.0444  0.0450  0.0049
17931W        W18795  17.576  19.266  24.528  0.0887  0.1543 -0.0780
17932W        W18796  16.040  16.247  26.376 -0.0034  0.0030 -0.1042
17933W        W18797  15.908  15.330  22.194 -0.0510  0.2345 -0.0410
17934W        W18798  17.848  13.827  23.164 -0.2338  0.1959  0.2981
17935W        W18799  17.637  13.586  23.624  0.0053  0.1869  0.2031
17936W        W18800  15.152  17.053  24.904  0.1429  0.0270  0.2120
17937W        W18801  15.629  16.415  25.477  0.0819 -0.0550  0.3384
17938W        W18802  13.412  20.122  24.281 -0.0246 -0.0271  0.1280
17939W        W18803  15.964  17.277  21.237 -0.0031  0.0864  0.0051
17940W        W18804  15.634  14.914  21.752 -0.3261  0.2061  0.0633
17941W        W18805  13.908  18.197  25.747 -0.0609  0.1562  0.1755
17942W        W18806  15.939  15.974  24.761 -0.2707  0.2484  0.2072
17943W        W18807  19.025  18.018  24.853  0.1622  0.0597 -0.0409
17944W        W18808  14.389  17.033  25.988  0.1766 -0.0295  0.0421
17945W        W18809  14.730  14.998  21.308  0.1334  0.2524  0.1054
17946W        W18810  15.852  18.629  25.849  0.0431  0.0599  0.0786
17947W        W18811  16.514  16.681  23.198  0.2895  0.0347 -0.0059
17948W        W18812  14.332  13.006  25.582 -0.3190  0.0856  0.0740
17949W        W18813  16.988  18.464  25.238 -0.0727 -0.1367 -0.2022
17950W        W18814  19.451  20.653  24.261  0.2792  0.4647  0.1237
17951W        W18815  15.392  15.838  24.729 -0.0054 -0.0110  0.0636
17952W        W18816  15.860  15.725  25.685  0.1472 -0.1484 -0.0394
17953W        W18817  17.510  16.632  25.961 -0.1130  0.1463  0.1193
17954W        W18818  16.935  14.201  26.869 -0.0856 -0.1332 -0.0534
17955W        W18819  16.540  19.923  21.816 -0.1891 -0.0911 -0.1143
17956W        W18820  16.865  16.521  28.694 -0.1034 -0.3091 -0.1590
17957W        W18821  13.618  17.990  21.372 -0.0718 -0.0896  0.0106
17958W        W18822  20.046  18.950  22.298 -0.3556 -0.2321  0.0668
17959W        W18823  15.136  16.394  25.624  0.2385  0.1736  0.0954
17960W        W18824  19.861  16.179  23.875 -0.0251 -0.0695  0.1565
17961W        W18825  18.910  18.041  22.187 -0.0573  0.0189 -0.0650
17962W        W18826  16.658  15.639  23.578  0.1933  0.2849 -0.0266
17963W        W18827  16.267  18.257  25.540 -0.0879 -0.0770  0.1614
17964W        W18828  15.681  15.422  22.713  0.0408 -0.0369 -0.1128
17965W        W18829  16.965  18.787  21.420  0.0539 -0.1095 -0.0890
17966W        W18830  18.113  14.206  27.576  0.0040 -0.1213 -0.0415
17967W        W18831  16.320  14.694  27.021 -0.0880  0.2698 -0.0571
17968W        W18832  15.824  17.199  26.387  0.1959 -0.1323  0.0748
17969W        W18833  16.721  16.282  22.833  0.0240  0.1583  0.3031
17970W        W18834  14.913  18.176  25.912 -0.1265  0.1712  0.1401
17971W        W18835  15.685  16.632  24.052  0.2444 -0.1033  0.0118
17972W        W18836  16.697  17.389  22.689  0.2235  0.3875  0.4763
17973W        W18837  14.744  16.959  23.984 -0.0599 -0.3942 -0.0907
17974W        W18838  15.649  18.144  26.459  0.0394 -0.2011 -0.1122
17975W        W18839  18.431  17.927  22.555 -0.0538 -0.0534 -0.0289
17976W        W18840  18.531  16.476  25.839 -0.0314  0.1389 -0.1598
17977W        W18841  15.685  17.292  21.709  0.2166 -0.2555 -0.1029
17978W        W18842  13.864  17.910  24.130  0.1287 -0.0810  0.0314
17979W        W18843  18.460  16.374  22.760  0.2410 -0.0324 -0.0081
17980W        W18844  17.258  17.641  24.873  0.1482  0.3419  0.3071
17981W        W18845  16.198  18.246  22.388  0.1042 -0.1003 -0.2109
17982W        W18846  17.086  14.747  21.426 -0.3869 -0.3119  0.0769
17983W        W18847  19.966  15.736  24.532 -0.1844  0.1179 -0.0433
17984W        W18848  17.244  18.441  22.274 -0.1053 -0.2643 -0.2706
17985W        W18849  13.077  17.586  24.531 -0.1702  0.1873 -0.1190
17986W        W18850  15.534  17.987  23.984 -0.0249 -0.0388 -0.1738
17987W        W18851  17.815  16.614  23.759  0.0406  0.0242 -0.1456
17988W        W18852  15.926  18.028  24.983  0.2061  0.0086  0.0155
17989W        W18853  17.383  15.310  24.961 -0.0279 -0.0475 -0.1582
17990W        W18854  16.154  17.590  24.084 -0.0786  0.0666 -0.0419
17991W        W18855  15.674  19.017  20.373 -0.2186  0.0054  0.1936
17992W        W18856  16.682  14.967  27.530 -0.2930  0.1352 -0.1177
17993W        W18857  15.609  17.158  28.112 -0.2050 -0.0746  0.0306
17994W        W18858  18.943  17.026  23.825 -0.1085 -0.1869 -0.1465
17995W        W18859  17.940  19.480  22.588  0.0492  0.1570  0.2240
17996W        W18860  14.984  19.331  24.140 -0.1390 -0.1509 -0.1539
17997W        W18861  16.735  19.154  24.989  0.1646  0.0106  0.3546
17998W        W18862  16.443  16.113  20.146  0.1022 -0.2112 -0.2675
17999W        W18863  17.863  16.931  26.137  0.4615  0.0173  0.1343
18000W        W18864  11.625  16.501  23.947 -0.1356 -0.3201 -0.2451
18001W        W18865  17.071  16.579  24.477  0.2885 -0.4243  0.1333
18002W        W18866  15.921  16.811  25.312  0.1877  0.3644 -0.1839
18003W        W18867  17.012  16.707  21.945  0.1859 -0.1829 -0.0939
18004W        W18868  17.595  19.196  25.049 -0.0472  0.1054  0.0022
18005W        W18869  13.740  16.888  23.208  0.2873  0.0807 -0.1168
18006W        W18870  14.298  19.461  28.022  0.0503  0.0667  0.3981
18007W        W18871  17.101  15.499  23.375 -0.0221  0.3323  0.0875
18008W        W18872  15.456  17.659  23.569  0.2815 -0.1020  0.0083
18009W        W18873  14.191  17.830  26.974  0.0121  0.1716  0.0269
18010W        W18874  15.166  16.363  26.084  0.1781  0.0713 -0.0202
18011W        W18875  14.999  17.999  26.769  0.1194  0.3239  0.0078
18012W        W18876  19.088  20.474  21.404 -0.0074  0.0118 -0.1228
18013W        W18877  12.970  16.608  24.461 -0.0607 -0.3192 -0.2129
18014W        W18878  14.710  15.709  23.583 -0.2682  0.1039  0.1773
18015W        W18879  18.227  15.068  24.463 -0.0511 -0.2692 -0.0207
18016W        W18880  17.186  15.088  22.897  0.0284  0.0548  0.0597
18017W        W18881  17.722  14.962  20.344 -0.2738 -0.0793  0.0611
18018W        W18882  15.457  18.624  24.473 -0.2965 -0.0811 -0.0718
18019W        W18883  16.906  17.965  21.634  0.1579  0.0608 -0.0549
18020W        W18884  16.554  15.910  21.548 -0.0167  0.1035  0.0522
18021W        W18885  16.513  16.142  23.799  0.1137  0.0556 -0.0017
18022W        W18886  18.995  13.509  21.430  0.1208 -0.0723 -0.2351
18023W        W18887  18.208  18.294  25.119 -0.0651 -0.2218  0.0741
18024W        W18888  13.992  19.152  25.697  0.0055  0.1445  0.3168
18025W        W18889  17.022  19.348  25.904 -0.0237  0.2092 -0.2115
18026W        W18890  15.524  19.111  24.593  0.4654 -0.1300 -0.0754
18027W        W18891  14.638  19.475  24.662  0.1002  0.3002  0.0682
18028W        W18892  19.812  17.670  21.798 -0.1716  0.3263  0.4869
18029W        W18893  17.711  15.710  26.697  0.1432  0.2839 -0.0415
18030W        W18894  17.993  16.292  22.084  0.0858 -0.2535  0.1462
18031W        W18895  14.222  15.349  24.280 -0.0182 -0.0666  0.2905
18032W        W18896  17.066  16.665  23.084 -0.0255  0.2297 -0.0866
18033W        W18897  14.806  16.902  20.932  0.0766  0.2389 -0.0090
18034W        W18898  12.009  15.004  21.474 -0.0274  0.0660 -0.0515
18035W        W18899  16.007  18.035  24.231 -0.1327 -0.2944  0.0940
18036W        W18900  16.584  16.234  26.234  0.0298  0.3283 -0.2719
18037W        W18901  15.423  17.776  22.556 -0.0538 -0.3597 -0.0859
18038W        W18902  16.109  14.573  22.858  0.1716  0.0015 -0.1846
18039W        W18903  16.342  17.849  25.154  0.1979  0.2212  0.0424
18040W        W18904  13.425  16.096  23.855 -0.3876 -0.2722  0.0089
18041W        W18905  17.207  17.371  26.173 -0.2545 -0.2509  0.3026
18042W        W18906  18.206  16.147  23.947 -0.0702 -0.1083 -0.0640
18043W        W18907  16.549  18.268  22.914 -0.0184 -0.2103 -0.1643
18044W        W18908  15.023  20.223  23.935 -0.2902  0.0352  0.3603
18045W        W18909  14.615  15.061  24.594  0.0470 -0.1248  0.1591
18046W        W18910  16.122  18.308  23.697  0.2059  0.1338  0.0692
18047W        W18911  14.252  19.820  23.707 -0.1180 -0.0588  0.0673
18048W        W18912  16.714  16.005  27.155  0.0742  0.2868  0.0182
18049W        W18913  17.454  16.431  24.055  0.1040  0.1580 -0.0094
18050W        W18914  15.485  16.926  20.399 -0.1996  0.0666  0.0365
18051W        W18915  14.879  13.361  22.360  0.2021 -0.2047  0.2121
18052W        W18916  17.772  17.880  24.585 -0.0335 -0.0731  0.1105
18053W        W18917  12.680  16.800  24.075 -0.3055  0.0936 -0.1416
18054W        W18918  15.686  15.501  23.758 -0.1904  0.5150 -0.2153
18055W        W18919  18.316  18.738  24.887  0.0064  0.0723  0.3996
18056W        W18920  16.836  17.695  26.207  0.1801  0.2371  0.1843
18057W        W18921  19.010  20.637  22.011 -0.3075  0.0211 -0.0054
18058W        W18922  15.503  18.264  25.928 -0.1106  0.0563 -0.2543
18059W        W18923  16.606  15.499  22.118 -0.3608 -0.1083  0.1384
18060W        W18924  18.984  14.840  22.249 -0.1865 -0.0627 -0.3776
18061W        W18925  15.547  15.746  24.289 -0.2402  0.3619 -0.1094
18062W        W18926  16.966  19.702  21.974  0.4085  0.1727  0.0942
18063W        W18927  15.229  18.462  21.506 -0.2106 -0.0265  0.1037
18064W        W18928  16.693  15.567  27.348 -0.4636  0.1263 -0.1801
18065W        W18929  18.280  17.619  25.430 -0.2803 -0.0525 -0.0322
18066W        W18930  17.073  15.716  24.734  0.2385 -0.0010 -0.2549
18067W        W18931  14.500  15.794  25.870  0.0194 -0.0772 -0.3023
18068W        W18932  18.995  16.499  23.925 -0.1891 -0.0827 -0.1619
18069W        W18933  17.795  17.087  22.095 -0.0788  0.2758 -0.1376
18070W        W18934  15.525  14.096  25.945  0.1498  0.1322 -0.2283
18071W        W18935  15.294  18.060  24.931  0.2904  0.1731  0.2549
18072W        W18936  13.353  18.946  21.689  0.2500 -0.0117 -0.2594
18073W        W18937  14.323  15.684  23.303 -0.2574  0.0618  0.2213
18074W        W18938  17.845  16.573   0.009  0.2800 -0.0443 -0.0878
18075W        W18939  19.871  17.247  24.157 -0.2360 -0.0898 -0.1146
18076W        W18940  15.643  14.756  27.763  0.1558  0.1628  0.0547
18077W        W18941  13.294  17.720  26.392  0.0391  0.1265  0.4834
18078W        W18942  17.838  17.278  27.206  0.2408  0.0456 -0.1780
18079W        W18943  14.468  18.054  23.902 -0.1991  0.0153 -0.1575
18080W        W18944  15.897  17.024  26.856  0.0289 -0.1836 -0.0592
18081W        W18945  17.434  18.395  25.411  0.1959  0.0447  0.1378
18082W        W18946  16.330  16.257  24.617  0.0973  0.0520  0.0465
18083W        W18947  16.491  18.075  23.376  0.3287  0.2410  0.0329
18084W        W18948  16.346  19.424  23.691 -0.0840  0.0174 -0.0882
18085W        W18949  17.167  18.623  24.488 -0.1328 -0.1253  0.1545
18086W        W18950  17.313  16.879  25.410 -0.0899  0.3009  0.1695
18087W        W18951  15.793  18.985  22.297  0.2267  0.0615 -0.2748
18088W        W18952  15.422  17.243  24.519 -0.1633  0.0932  0.0262
18089W        W18953  16.625  16.766  25.890 -0.0548  0.3066 -0.0851
18090W        W18954  13.417  14.594  22.706  0.4011  0.1491  0.1402
18091W        W18955  15.784  20.380   0.065 -0.1040 -0.1647 -0.5546
18092W        W18956  17.054  13.596   0.904  0.2383 -0.0471 -0.1058
18093W        W18957  15.456  16.992  26.718 -0.1334 -0.0300 -0.0286
18094W        W18958  16.359  18.368  28.039  0.2381  0.0349  0.0327
18095W        W18959  15.239  18.438  25.415  0.2112  0.1892 -0.0714
18096W        W18960  13.828  15.153  25.911  0.3005 -0.0370  0.1284
18097W        W18961  15.026  12.250  29.100 -0.0110  0.0521  0.0435
18098W        W18962  17.859  16.323  27.343  0.0837 -0.0706 -0.1562
18099W        W18963  15.922  17.567  26.823 -0.0731 -0.1620 -0.1214
18100W        W18964  14.858  15.150  28.111 -0.2633 -0.0909 -0.1615
18101W        W18965  15.010  15.394  26.950 -0.0801  0.0148  0.1670
18102W        W18966  17.523  17.435  28.093 -0.0344 -0.3289 -0.0983
18103W        W18967  17.024  17.441  26.653 -0.1545 -0.2069  0.0723
18104W        W18968  17.810  14.344   2.742  0.0493 -0.0243  0.1155
18105W        W18969  12.205  14.268   0.650  0.3110 -0.0343 -0.1048
18106W        W18970  13.662  16.903  27.349 -0.1304  0.0337  0.1212
18107W        W18971  17.598  18.358  29.030 -0.0944 -0.2545 -0.1236
18108W        W18972  16.507  15.906  27.636 -0.2115  0.1660 -0.0760
18109W        W18973  14.810  14.834   1.104 -0.0642 -0.1032  0.1384
18110W        W18974  20.109  16.124  27.040  0.0921  0.2218  0.3549
18111W        W18975  18.340  14.535  28.429  0.1056 -0.1664 -0.2855
18112W        W18976  19.548  15.594  25.966 -0.2235  0.2738 -0.0030
18113W        W18977  17.564  17.553  28.613  0.0044  0.4808 -0.0586
18114W        W18978  14.468  18.312  27.627  0.1611 -0.1272  0.0625
18115W        W18979  14.263  16.379  27.581  0.0174 -0.1812  0.0918
18116W        W18980  15.567  16.314   0.096  0.0597  0.0538 -0.0814
18117W        W18981  18.828  16.042   0.041 -0.2264  0.3292  0.0235
18118W        W18982  14.198  17.619  28.405  0.1094 -0.1074  0.4455
18119W        W18983  17.459  17.718  26.574  0.1700 -0.2292  0.0357
18120W        W18984  15.316  14.591  28.790  0.4966  0.3343 -0.1091
18121W        W18985  17.613  14.146  27.451  0.3185  0.1033 -0.2983
18122W        W18986  17.536  18.012   0.318  0.0070 -0.3187 -0.0395
18123W        W18987  15.816  15.559   1.634  0.0421  0.1040  0.1226
18124W        W18988  16.186  17.551  28.181  0.4280  0.0751  0.2302
18125W        W18989  14.352  12.735  27.519  0.1137  0.0686 -0.2217
18126W        W18990  19.774  18.199  29.019  0.0011  0.0738  0.0087
18127W        W18991  14.785  14.808  28.532 -0.1645  0.3938 -0.0087
18128W        W18992  15.601  18.304  27.378 -0.0818  0.3170 -0.4467
18129W        W18993  18.616  16.052  26.649 -0.2555  0.0508 -0.2392
18130W        W18994  17.232  17.248  27.382 -0.0801 -0.2868 -0.0425
18131W        W18995  18.633  18.147  26.176 -0.1072 -0.1436 -0.3628
18132W        W18996  21.563  17.627   1.925 -0.0922  0.0051 -0.1623
18133W        W18997  15.640  19.710  25.842  0.0643 -0.0706 -0.0030
18134W        W18998  19.153  17.601  28.049 -0.0808  0.0249  0.1398
18135W        W18999  14.860  19.097  26.975  0.1104  0.0427 -0.1428
18136W        W19000  12.659  18.333  26.178 -0.0736  0.1358 -0.2675
18137W        W19001  13.188  16.439   0.168 -0.1933 -0.2080  0.0128
18138W        W19002  18.514  15.367   0.172  0.1468 -0.0567 -0.1467
18139W        W19003  18.252  16.626  26.268 -0.1206  0.1431 -0.0305
18140W        W19004  18.460  17.356  23.967 -0.0284 -0.1308  0.0634
18141W        W19005  18.580  17.387  26.749 -0.0454  0.1375 -0.0170
18142W        W19006  15.179  13.813  26.685  0.0319  0.2157 -0.3060
18143W        W19007  15.322  16.334  28.259  0.2061  0.0019 -0.1008
18144W        W19008  16.019  18.007  28.100  0.0207  0.4333  0.3434
18145W        W19009  16.140  12.984  25.360  0.0400 -0.2420  0.2634
18146W        W19010  15.900  18.238  26.866 -0.2537 -0.2597  0.1016
18147W        W19011  12.601  17.598   1.680 -0.1639 -0.2041 -0.1884
18148W        W19012  14.565  15.278  28.501 -0.2752  0.1235 -0.1734
18149W        W19013  15.003  16.370  27.170 -0.1374 -0.1467  0.2541
18150W        W19014  14.634  17.684  26.678  0.0370  0.1015 -0.0984
18151W        W19015  18.011  18.142   0.128 -0.1236  0.0481 -0.4024
18152W        W19016  16.137  18.418   0.314 -0.3678 -0.1429 -0.0593
18153W        W19017  13.887  17.547   0.762  0.0327 -0.2125 -0.0878
18154W        W19018  17.098  16.372  27.154  0.0912  0.3521  0.1394
18155W        W19019  14.185  16.108  25.617 -0.0099 -0.2231 -0.1411
18156W        W19020  19.114  15.194  23.537 -0.0647  0.0296  0.2274
18157W        W19021  15.462  15.110  23.529  0.0278  0.3610  0.0615
18158W        W19022  13.359  16.816  26.633 -0.1968 -0.1341  0.3428
18159W        W19023  17.005  18.573  26.266 -0.1026  0.1839  0.1344
18160W        W19024  16.391  17.409  27.035 -0.0867 -0.0772  0.1556
18161W        W19025  16.846  18.219  28.376 -0.1475  0.1747 -0.1737
18162W        W19026  16.358  15.235  27.128 -0.1656  0.0235  0.0053
18163W        W19027  17.918  18.181  28.686 -0.4386  0.2984 -0.3008
18164W        W19028  16.493  15.769  25.645 -0.1415  0.1533 -0.0848
18165W        W19029  20.464  16.931  25.850  0.0293  0.1004 -0.2395
18166W        W19030  19.471  17.505  28.411  0.3733 -0.1712  0.0142
18167W        W19031  12.416  15.327  24.228 -0.2445  0.0098  0.0870
18168W        W19032  15.951  17.556  27.754 -0.1709  0.0628  0.0365
18169W        W19033  18.434  16.992  27.039 -0.1338 -0.0234 -0.0259
18170W        W19034  16.334  17.957  27.015 -0.4396  0.3366  0.1619
18171W        W19035  16.604  14.059  28.454  0.2389  0.0321  0.1284
18172W        W19036  13.927  13.148  28.275 -0.1037 -0.0298  0.1942
18173W        W19037  13.962  15.752  25.977 -0.0438  0.0020 -0.2573
18174W        W19038  17.266  15.132  25.729 -0.0769  0.1826  0.1117
18175W        W19039  16.250  14.749  28.880 -0.0875 -0.2735  0.0064
18176W        W19040  16.346  16.659  26.544 -0.2158 -0.2236 -0.0952
18177W        W19041  17.099  15.705   2.131 -0.1061 -0.0145 -0.0824
18178W        W19042  16.315  12.970  28.515  0.1970  0.0578 -0.0319
18179W        W19043  17.528  16.269  28.953  0.2435 -0.1192 -0.1683
18180W        W19044  16.095  13.806   2.460 -0.2220  0.2408 -0.1016
18181W        W19045  16.242  17.685   0.036 -0.2641 -0.2448  0.1029
18182W        W19046  21.057  16.733  28.251  0.3238 -0.1693  0.0483
18183W        W19047  14.128  19.187  24.395 -0.2324 -0.0081  0.0995
18184W        W19048  14.763  15.085  26.305 -0.2191  0.0175  0.0828
18185W        W19049  16.566  16.283  29.077 -0.3912  0.0200 -0.0041
18186W        W19050  18.641  16.811  27.567  0.1329  0.0580 -0.1053
18187W        W19051  20.523  16.074   0.051  0.0039 -0.0965  0.2089
18188W        W19052  16.386  16.852  27.011 -0.2264 -0.1649 -0.0134
18189W        W19053  17.548  16.340  26.953 -0.2285 -0.1427 -0.5241
18190W        W19054  16.700  15.040  28.092  0.3692 -0.0141 -0.2119
18191W        W19055  18.897  20.884  24.395  0.1091  0.4104  0.2012
18192W        W19056  12.970  17.140  26.723 -0.1898  0.2818 -0.0545
18193W        W19057  16.430  15.325  25.844  0.0713  0.2484 -0.3427
18194W        W19058  19.786  17.669  25.355  0.0363 -0.1683  0.0501
18195W        W19059  17.722  16.981  28.486 -0.1473  0.2656  0.0306
18196W        W19060  18.154  13.177  27.863 -0.0669 -0.2407  0.1285
18197W        W19061  18.291  17.973  23.059 -0.0374 -0.0319  0.1855
18198W        W19062  19.866  15.477  27.517  0.0360  0.4207  0.0284
18199W        W19063  15.751  14.304  28.937 -0.3693  0.2417  0.0963
18200W        W19064  18.805  16.407   0.522  0.1882  0.1894  0.0000
18201W        W19065  15.885  18.267   2.365  0.0094  0.0733  0.2286
18202W        W19066  15.122  19.952  26.258 -0.0928  0.2407 -0.0730
18203W        W19067  17.996  14.364  25.654 -0.1073  0.3588  0.1212
18204W        W19068  16.650  15.041  28.863 -0.2286 -0.3115  0.0367
18205W        W19069  17.080  17.463  25.688 -0.3860  0.0116 -0.0005
18206W        W19070  16.793  18.024  27.422 -0.0431 -0.2859  0.2014
18207W        W19071  18.144  16.958  26.609  0.1534  0.0075 -0.0497
18208W        W19072  14.914  15.486  26.077 -0.0615  0.1906 -0.1840
18209W        W19073  17.823  15.830  27.380 -0.1265  0.2743 -0.1246
18210W        W19074  17.677  16.802  26.972  0.2547  0.1105  0.3481
18211W        W19075  15.800  15.794  26.219 -0.3678  0.3127 -0.3577
18212W        W19076  15.768  18.816  27.443  0.1801  0.2048  0.0276
18213W        W19077  17.544  21.888  27.982 -0.1064  0.2325 -0.3021
18214W        W19078  18.445  17.303  27.998 -0.0495  0.0896 -0.0208
18215W        W19079  14.872  16.069  28.471 -0.1205 -0.1906 -0.1025
18216W        W19080  19.401  17.325  28.829 -0.1966 -0.1383  0.0044
18217W        W19081  15.534  14.111   0.188  0.0473 -0.1375  0.1858
18218W        W19082  18.476  17.560  28.552  0.0160  0.1819 -0.1142
18219W        W19083  19.096  18.261  28.795  0.0732 -0.0615 -0.0283
18220W        W19084  15.827  21.726  27.235 -0.0214  0.3739 -0.0138
18221W        W19085  17.000  17.735   0.212 -0.0522  0.1068 -0.1612
18222W        W19086  16.811  14.502  28.836 -0.1144  0.2349 -0.1405
18223W        W19087  15.889  17.839  27.281 -0.0093 -0.1414  0.0112
18224W        W19088  17.414  16.168  27.600  0.1091  0.0447  0.2891
18225W        W19089  18.035  16.701  28.733  0.1065 -0.0016  0.0476
18226W        W19090  16.009  17.543   0.801  0.1842  0.1901 -0.0103
18227W        W19091  18.309  14.309  26.400  0.1681 -0.0423  0.2656
18228W        W19092  19.141  15.450  26.451  0.0569 -0.0184  0.1201
18229W        W19093  14.599  15.666  27.150 -0.1848 -0.0176  0.3697
18230W        W19094  18.268  19.963  28.417  0.0487  0.2144 -0.1229
18231W        W19095  13.705  14.095  27.289  0.2642  0.0467  0.0220
18232W        W19096  17.179  17.692  28.918 -0.4199  0.0974 -0.0537
18233W        W19097  16.189  18.431  27.357  0.1385 -0.1216 -0.0812
18234W        W19098  15.434  17.780  25.974  0.1883 -0.1127 -0.0283
18235W        W19099  13.774  15.604  28.769  0.0348  0.0958  0.0950
18236W        W19100  16.012  15.076  26.800  0.2844 -0.6220 -0.0666
18237W        W19101  14.647  15.133  25.071 -0.1036 -0.0116 -0.3268
18238W        W19102  16.953  17.908  26.832 -0.2694  0.0211 -0.0302
18239W        W19103  15.605  17.290   1.141  0.0402  0.0887 -0.0723
18240W        W19104  17.797  16.560  28.263 -0.1688  0.0968  0.3325
18241W        W19105  19.875  15.997  27.591 -0.1911  0.1538  0.0647
18242W        W19106  13.668  13.121  25.155 -0.2409 -0.0373 -0.0452
18243W        W19107  15.716  16.975  27.592  0.0766  0.0367 -0.0382
18244W        W19108  16.133  13.961  26.389  0.0929  0.1799  0.1945
18245W        W19109  15.028  16.269   1.599 -0.1089 -0.0938  0.0353
18246W        W19110  17.512  15.547  27.681  0.0920  0.0846 -0.0150
18247W        W19111  14.006  18.579  27.796  0.1961  0.2906  0.6642
18248W        W19112  16.249  16.172  27.210 -0.0420  0.1907 -0.2654
18249W        W19113  19.518  14.273  21.953  0.2795 -0.2785  0.1064
18250W        W19114  15.761  16.582  27.309 -0.0902  0.4882  0.3885
18251W        W19115  19.505  15.122  26.610 -0.0087  0.0268 -0.1254
18252W        W19116  15.396  16.471   0.739  0.2328 -0.0551 -0.4168
18253W        W19117  16.004  14.164   1.583 -0.0236 -0.1015 -0.2096
18254W        W19118  18.625  16.317  27.766  0.2320 -0.0456  0.0891
18255W        W19119  18.839  14.933  28.229  0.2689  0.1055  0.0577
18256W        W19120  19.452  16.278  27.706 -0.0602 -0.3045  0.0557
18257W        W19121  14.927  16.491  27.658 -0.2037 -0.0711 -0.0595
18258W        W19122  15.053  17.163  27.431  0.1450 -0.1004 -0.0524
18259W        W19123  15.679  16.061   0.774  0.1902 -0.2388 -0.1451
18260W        W19124  14.803  18.050  24.801  0.1515  0.0257  0.0942
18261W        W19125  17.081  16.481  27.715  0.0370  0.3089 -0.2213
18262W        W19126  18.919  17.201  27.767  0.4269 -0.1001 -0.1200
18263W        W19127  17.054  16.172  29.104  0.2405 -0.1751  0.0937
18264W        W19128  17.989  16.434  25.911  0.0178 -0.1021  0.2311
18265W        W19129  17.793  12.965  28.628  0.0605 -0.2983 -0.1945
18266W        W19130  21.633  17.169  28.752 -0.0041  0.0961 -0.3822
18267W        W19131  14.773  18.659  28.888  0.0260 -0.3364 -0.1558
18268W        W19132  12.571  18.210  25.088 -0.0148 -0.0330 -0.3398
18269W        W19133  12.757  17.658  26.747  0.0148 -0.0270  0.2565
18270W        W19134  16.087  16.227   2.830 -0.0048  0.0432  0.0562
18271W        W19135  17.074  17.003  27.788  0.0097 -0.0123  0.0309
18272W        W19136  16.819  17.449  27.684  0.0433 -0.3138  0.0489
18273W        W19137  16.687  15.321  26.350 -0.0512  0.2649 -0.1097
18274W        W19138  13.884  15.871  26.727  0.1632 -0.2387  0.0137
18275W        W19139  15.440  16.327  26.944  0.0267 -0.0625 -0.0670
18276W        W19140  17.274  15.219   0.438  0.0375  0.1427 -0.0217
18277W        W19141  16.655  16.732  27.862  0.0551 -0.3449 -0.0015
18278W        W19142  18.433  13.270  24.766  0.0740  0.3005  0.2683
18279W        W19143  16.582  16.591   1.090  0.0921 -0.1903  0.0915
18280W        W19144  17.990  17.585   0.094 -0.2015 -0.2850 -0.2627
18281W        W19145  14.690  18.479  26.248  0.0004 -0.4663  0.0061
18282W        W19146  13.560  18.068  27.654 -0.0522 -0.3018  0.0384
18283W        W19147  15.557  14.913  25.626  0.0606  0.0311 -0.2445
18284W        W19148  15.757  15.258  25.893  0.2267 -0.0027 -0.1493
18285W        W19149  18.286  16.415   2.725 -0.1200  0.1341  0.3502
18286W        W19150  16.387  18.027  28.481  0.0824 -0.2755  0.0266
18287W        W19151  17.084  16.533  26.292  0.0753  0.4315  0.1896
18288W        W19152  14.248  13.928  28.274  0.0455  0.2081 -0.0365
18289W        W19153  17.123  17.502   1.157  0.0108  0.0254 -0.0426
18290W        W19154  19.636  15.268  25.582 -0.1640  0.1514 -0.3016
18291W        W19155  17.377  18.171  28.633 -0.2041 -0.0126  0.1588
18292W        W19156  16.227  15.215  27.933  0.0459 -0.0287  0.0442
18293W        W19157  17.009  14.615  28.095 -0.0707 -0.0465  0.0626
18294W        W19158  14.716  14.368  26.911  0.0130 -0.0479 -0.0165
18295W        W19159  17.076  15.378  28.933  0.2697  0.0026  0.1610
18296W        W19160  13.696  15.516  25.659 -0.0910  0.1344 -0.1637
18297W        W19161  16.361  14.382   2.092 -0.0829  0.2185  0.4726
18298W        W19162  15.604  17.631  28.416 -0.2222 -0.0980 -0.1429
18299W        W19163  16.073  19.672  27.448  0.0800  0.1395 -0.1393
18300W        W19164  12.248  17.665  26.706  0.1716  0.1494  0.2992
18301W        W19165  14.671  17.688  28.256 -0.0792 -0.3023 -0.1834
18302W        W19166  15.653  13.695   0.584  0.0368 -0.3730  0.0875
18303W        W19167  14.160  18.157  28.447 -0.0450 -0.2482 -0.2170
18304W        W19168  17.606  15.618  28.223 -0.0037 -0.0375  0.2783
18305W        W19169  21.774  16.704  27.962 -0.1960  0.2839  0.4641
18306W        W19170  20.454  16.452  25.639  0.3104 -0.0666 -0.3456
18307W        W19171  16.152  15.744  25.176 -0.0793 -0.0077  0.1209
18308W        W19172  18.154  22.217  26.375 -0.0879  0.0855  0.1998
18309W        W19173  15.508  15.825  28.417  0.0011  0.0535 -0.1740
18310W        W19174  14.886  19.083  27.480  0.2357 -0.2674  0.1103
18311W        W19175  18.560  14.981   2.957  0.0558 -0.0323 -0.0394
18312W        W19176  19.535  16.540  28.138 -0.0631  0.0914  0.1370
18313W        W19177  18.141  16.196  26.578 -0.1675 -0.0511  0.0097
18314W        W19178  17.386  15.662  23.766 -0.1802 -0.0412 -0.3257
18315W        W19179  16.151  17.803  25.674  0.1778  0.1973  0.1688
18316W        W19180  15.220  12.296   0.475  0.0833 -0.1234 -0.0485
18317W        W19181  15.283  16.832  28.359  0.0266 -0.3246  0.1543
18318W        W19182  19.436  13.957  27.192  0.0916  0.0763  0.1100
18319W        W19183  18.408  19.238  25.483 -0.1667 -0.0841  0.0093
18320W        W19184  20.530  15.366  27.638  0.3603  0.4044 -0.1240
18321W        W19185  15.480  13.785  28.860  0.0076 -0.3661  0.0384
18322W        W19186  16.077  16.412   3.688 -0.2187 -0.2584  0.2047
18323W        W19187  14.791  16.863  25.700  0.0280  0.0567 -0.3384
18324W        W19188  18.374  15.001   1.552  0.0404 -0.0876  0.4265
18325W        W19189  14.443  15.419   0.933  0.1833 -0.2009  0.0638
18326W        W19190  16.485  17.069  25.125 -0.4330 -0.2837 -0.1206
18327W        W19191  19.999  16.915  26.011 -0.0201 -0.5902  0.1076
18328W        W19192  18.102  16.542  26.919 -0.0026 -0.0719  0.1509
18329W        W19193  18.197  17.821  28.875  0.4211 -0.1100 -0.2112
18330W        W19194  16.129  18.720  28.894  0.0798 -0.0445  0.0115
18331W        W19195  16.078  21.690  25.686  0.0647  0.1667 -0.0195
18332W        W19196  14.033  15.264  28.492  0.0009 -0.0673  0.1613
18333W        W19197  16.931  17.972  23.562  0.0262 -0.2588  0.0092
18334W        W19198  16.455  16.618  25.346 -0.0732 -0.2909 -0.0419
18335W        W19199  17.456  14.268  28.247  0.0710 -0.1199 -0.0435
18336W        W19200  14.644  15.685  24.204 -0.2150  0.1504 -0.2529
18337W        W19201  19.104  16.648  25.164 -0.1404  0.0607  0.1106
18338W        W19202  16.094  17.444   1.301  0.0112 -0.2758 -0.0628
18339W        W19203  17.937  18.717  26.673 -0.0871 -0.1599 -0.0929
18340W        W19204  14.321  15.307  26.088  0.2489  0.1045 -0.1231
18341W        W19205  14.904  18.241  27.238  0.2219  0.4138 -0.0783
18342W        W19206  15.143  17.487   0.302 -0.0498  0.0926 -0.1219
18343W        W19207  18.594  18.938  28.693 -0.0118 -0.0113 -0.2154
18344W        W19208  18.625  15.661  26.320 -0.1316 -0.0943  0.1968
18345W        W19209  12.759  16.688  26.494  0.2338  0.3277  0.1872
18346W        W19210  13.273  17.667  28.794 -0.3225 -0.0027 -0.2380
18347W        W19211  16.821  16.773  24.932 -0.0485 -0.2211 -0.0301
18348W        W19212  13.597  15.065   0.272  0.0218 -0.2012  0.1065
18349W        W19213  17.569  17.120  28.947  0.0926 -0.1206  0.0114
18350W        W19214  18.668  16.819  28.132 -0.2182  0.1034 -0.2862
18351W        W19215  15.104  13.821   0.521 -0.3107  0.0876 -0.1380
18352W        W19216  16.665  15.837   0.748  0.0174  0.0580 -0.0385
18353W        W19217  17.530  16.526   0.366 -0.1651  0.1343 -0.0630
18354W        W19218  14.983  16.643  29.120  0.0987  0.0851  0.0983
18355W        W19219  14.950  18.995  28.536 -0.0335 -0.0874  0.1989
18356W        W19220  19.825  19.035   0.495  0.1578  0.0602 -0.5795
18357W        W19221  14.409  18.256  27.084  0.0431 -0.2464 -0.3911
18358W        W19222  18.715  15.724  28.083 -0.4008 -0.2699 -0.2877
18359W        W19223  12.951  13.931  28.938  0.2000  0.1222  0.0834
18360W        W19224  19.701  13.885  25.200  0.0279  0.2456 -0.1225
18361W        W19225  17.701  16.076  28.422  0.0553  0.0300 -0.4611
18362W        W19226  16.693  12.432   0.234  0.1379  0.0809  0.1081
18363W        W19227  19.005  15.377  28.666  0.4104  0.2833 -0.0714
18364W        W19228  15.395  16.774   1.978 -0.0147  0.1721 -0.1653
18365W        W19229  19.031  19.015  28.006  0.0332 -0.2558  0.3097
18366W        W19230  15.213  15.024  27.783 -0.0465 -0.2754  0.2992
18367W        W19231  13.107  14.022   1.690  0.0886 -0.1342  0.1671
18368W        W19232  14.976  16.058  27.967  0.0111 -0.1248  0.0073
18369W        W19233  14.382  13.957  26.785 -0.1034  0.0796  0.0950
18370W        W19234  16.046  16.159   0.171 -0.0009 -0.0568 -0.0228
18371W        W19235  16.039  17.198   0.247  0.2341  0.0521 -0.1547
18372W        W19236  15.314  16.860  25.752 -0.1040  0.2014  0.0264
18373W        W19237  16.358  17.076  27.427  0.1116  0.0388 -0.1588
18374W        W19238  16.727  19.043  27.688 -0.0059 -0.0272 -0.1855
18375W        W19239  17.118  18.388  27.245  0.2805 -0.0103 -0.0230
18376W        W19240  15.738  15.150  28.646  0.2706  0.1489 -0.0815
18377W        W19241  15.929  16.546  24.520  0.1123  0.0947 -0.2046
18378W        W19242  14.087  14.373  28.039 -0.4279  0.2549  0.2380
18379W        W19243  15.155  14.541  27.048  0.3407  0.0060 -0.0698
18380W        W19244  18.323  16.486  28.395  0.0177 -0.1864  0.0751
18381W        W19245  15.635  17.933  27.707 -0.0668  0.0478  0.3256
18382W        W19246  17.559  14.225  24.908 -0.0436 -0.2556 -0.1454
18383W        W19247  17.868  14.704  28.237 -0.0691  0.1329  0.0015
18384W        W19248  15.289  16.773  27.196 -0.1099 -0.1228 -0.1920
18385W        W19249  15.347  17.656  27.983  0.0010  0.0702 -0.0738
18386W        W19250  18.962  17.091  25.232  0.1615  0.1974  0.1809
18387W        W19251  16.699  15.896  28.126 -0.0135  0.0857 -0.0813
18388W        W19252  19.148  15.911  26.645 -0.0249  0.0462 -0.0622
18389W        W19253  17.381  13.905   0.163  0.1692 -0.2341 -0.0672
18390W        W19254  16.376  18.467  26.901  0.2444  0.0254 -0.1924
18391W        W19255  13.306  17.261  24.883 -0.2668 -0.1700  0.0881
18392W        W19256  18.041  14.306  28.053 -0.0122  0.1619 -0.1242
18393W        W19257  18.208  16.909   4.119 -0.3078  0.1502 -0.0395
18394W        W19258  19.369  18.957   0.904  0.3285 -0.0814 -0.0960
18395W        W19259  18.964  19.054  27.451 -0.0625 -0.1452  0.0900
18396W        W19260  16.588  17.319  28.409 -0.2151  0.2025  0.0682
18397W        W19261  18.591  14.798   0.236 -0.0242  0.1207  0.1495
18398W        W19262  16.852  13.560  25.806  0.0029  0.3515  0.0307
18399W        W19263  15.882  14.897  28.195  0.0977 -0.0712  0.1150
18400W        W19264  15.957  14.928   0.486 -0.1733 -0.2028 -0.1235
18401W        W19265  15.648  18.765  25.390 -0.0524 -0.2119 -0.0844
18402W        W19266  15.379  17.391  29.022 -0.1833  0.0183 -0.0659
18403W        W19267  15.085  14.905  24.977  0.1073 -0.1935 -0.0571
18404W        W19268  15.576  14.568  26.061  0.0951 -0.1893  0.1046
18405W        W19269  13.458  21.462  28.868  0.0286 -0.1020  0.0425
18406W        W19270  14.560  19.947   0.709  0.4328 -0.3645  0.1304
18407W        W19271  13.870  13.574  26.907  0.0092 -0.1997 -0.0842
18408W        W19272  14.372  16.098  26.252  0.2244 -0.0246 -0.0779
18409W        W19273  17.537  16.885   2.264  0.2148 -0.1458  0.0663
18410W        W19274  17.302  17.700  27.727 -0.0792 -0.3540  0.0338
18411W        W19275  15.621  20.314  27.035 -0.0573 -0.2887  0.4703
18412W        W19276  19.366  18.749  26.463 -0.3826  0.0018 -0.1797
18413W        W19277  11.842  17.264   0.911 -0.1320  0.1974 -0.0140
18414W        W19278  17.762  16.569  26.436 -0.0087  0.1941  0.1449
18415W        W19279  13.733  17.138  25.263 -0.6116  0.2170 -0.0260
18416W        W19280  16.289  15.698  26.406 -0.0094 -0.1374  0.4429
18417W        W19281  17.665  12.366  26.637  0.2294  0.0581 -0.0794
18418W        W19282  14.014  17.386  28.876 -0.2408 -0.1416 -0.0800
18419W        W19283  16.554  15.905   0.241  0.0812 -0.0474 -0.0762
18420W        W19284  15.024  15.835  27.335 -0.0240 -0.1631 -0.2311
18421W        W19285  17.997  16.736   0.532  0.1364 -0.1117 -0.0373
18422W        W19286  20.231  14.619  25.569 -0.1937 -0.0261 -0.1236
18423W        W19287  18.655  14.659   2.151 -0.1293  0.2061 -0.0791
18424W        W19288  16.343  16.146   0.989  0.2918  0.1717  0.1487
18425W        W19289  19.129  16.892  27.434  0.0061  0.2066  0.1710
18426W        W19290  19.303  16.712   0.277 -0.0019 -0.2010  0.1519
18427W        W19291  16.574  17.192   0.218  0.1593  0.1764 -0.2332
18428W        W19292  17.802  15.998  27.893  0.1063 -0.2699  0.2786
18429W        W19293  16.286  16.676  28.328 -0.0798  0.0134  0.2157
18430W        W19294  16.390  14.232  27.294 -0.0090 -0.5730  0.1945
18431W        W19295  17.332  15.777  29.092  0.1308  0.0185 -0.0655
18432W        W19296  17.324  16.286  28.107  0.1930 -0.0838  0.0487
18433W        W19297  15.091  14.324   0.253 -0.2750 -0.0774  0.1970
18434W        W19298  14.306  21.127  28.669 -0.0984  0.1479 -0.4116
18435W        W19299  15.007  14.266   0.805  0.0639 -0.0439 -0.0694
18436W        W19300  14.658  15.368   0.323  0.0754  0.0857  0.0487
18437W        W19301  16.485  16.115  26.757  0.2307 -0.3165 -0.0558
18438W        W19302  16.561  15.523  29.105 -0.0117 -0.1889 -0.0138
18439W        W19303  16.213  15.546  27.542 -0.3712  0.0362 -0.2353
18440W        W19304  13.665  12.910  27.020 -0.0872  0.1140  0.0502
18441W        W19305  16.779  13.808   3.111  0.1816  0.1194 -0.0951
18442W        W19306  16.193  19.102  25.157 -0.1122 -0.1922  0.2785
18443W        W19307  19.289  16.095  29.029  0.0907  0.1226  0.0819
18444W        W19308  16.718  19.181  25.565 -0.1440  0.0046  0.1401
18445W        W19309  16.669  18.499  27.562 -0.4286 -0.0720 -0.0868
18446W        W19310  14.218  15.842  28.604  0.1920  0.3304  0.0274
18447W        W19311  13.694  19.815  28.324 -0.0752 -0.2477  0.1838
18448W        W19312  17.083  15.008  28.618  0.2079  0.2246  0.2154
18449W        W19313  13.943  13.232  27.271  0.2165  0.0118  0.2165
18450W        W19314  14.868  14.604  28.994  0.1373 -0.0362 -0.0778
18451W        W19315  16.290  16.715  24.852  0.1151  0.0714 -0.1660
18452W        W19316  16.572  14.693  28.426 -0.2458  0.1835 -0.0034
18453W        W19317  16.230  17.617  28.666  0.0104  0.0502  0.3510
18454W        W19318  15.793  13.526  27.931 -0.1092 -0.2969  0.1646
18455W        W19319  16.672  17.546  29.004  0.3097 -0.2797 -0.1492
18456W        W19320  17.851  17.466   1.885 -0.1373  0.1784 -0.1813
18457W        W19321  15.981  17.321  25.875  0.0988 -0.3058 -0.1027
18458W        W19322  17.967  17.880  26.428 -0.3843  0.1529  0.0253
18459W        W19323  17.147  14.747  27.540  0.0328 -0.0159  0.0152
18460W        W19324  20.007  14.326  27.108  0.0631  0.2581  0.4461
18461W        W19325  15.733  15.863  23.468 -0.1051 -0.0537 -0.0214
18462W        W19326  20.418  13.626  27.304 -0.0813  0.4106 -0.3107
18463W        W19327  15.464  16.260  24.447 -0.1921 -0.2738 -0.1509
18464W        W19328  20.419  18.949  29.039  0.0095 -0.1140  0.1134
18465W        W19329  15.766  21.169  27.356 -0.0182 -0.1623 -0.1488
18466W        W19330  14.113  15.725   4.014  0.0986 -0.0592  0.1815
18467W        W19331  17.562  15.663   0.476 -0.0493 -0.1301  0.1258
18468W        W19332  16.406  16.721   0.184  0.4712  0.2287  0.2742
18469W        W19333  15.712  12.414  27.515 -0.0890 -0.0214 -0.0390
18470W        W19334  16.659  16.427  27.456  0.3453  0.3059  0.0374
18471W        W19335  17.619  16.614  27.809 -0.1242 -0.1387 -0.0324
18472W        W19336  13.762  16.366  27.513 -0.2979 -0.0219  0.1270
18473W        W19337  15.695  15.662  28.895  0.0030  0.0563  0.0920
18474W        W19338  21.998  17.545   0.575 -0.0542  0.1507  0.1377
18475W        W19339  17.894  17.763  26.910  0.1004  0.0536  0.2523
18476W        W19340  17.165  15.608  28.503 -0.0928 -0.0782 -0.0524
18477W        W19341  18.518  18.160  27.518  0.1109  0.0892  0.0995
18478W        W19342  16.199  18.234  29.007 -0.1034  0.0524  0.2415
18479W        W19343  12.475  18.107  26.619 -0.2085  0.1951 -0.0252
18480W        W19344  19.072  18.034  27.333  0.3754 -0.0982 -0.0734
18481W        W19345  16.908  15.336   1.261 -0.1229  0.1216  0.2627
18482W        W19346  16.323  19.164  28.685  0.2720  0.2615 -0.1456
18483W        W19347  20.575  18.140  28.688 -0.1507 -0.2105 -0.0323
18484W        W19348  16.578  19.502  28.329 -0.2742  0.0871 -0.0029
18485W        W19349  13.956  16.576  28.475 -0.0946  0.0791  0.1390
18486W        W19350  16.037  16.670   2.565 -0.1181  0.1199 -0.1233
18487W        W19351  14.989  16.105  29.015 -0.2271 -0.1056 -0.2698
18488W        W19352  15.710  17.054   0.660 -0.0902 -0.0864 -0.0611
18489W        W19353  11.471  17.115  26.162 -0.2293 -0.2039 -0.0571
18490W        W19354  16.360  14.532  25.727  0.0873 -0.0918 -0.0566
18491W        W19355  12.559  24.400   3.242  0.1141 -0.0294 -0.1147
18492W        W19356  17.192  20.002   5.271  0.2388 -0.1119 -0.2076
18493W        W19357  18.281  21.458  27.705 -0.3631 -0.0817 -0.1910
18494W        W19358  17.596  20.428   1.845 -0.1431  0.0179 -0.1275
18495W        W19359  16.421  22.783  27.874 -0.0145  0.1628 -0.0056
18496W        W19360  16.264  22.100   0.364 -0.5141 -0.0969  0.1817
18497W        W19361  16.522  19.645   2.738 -0.0580  0.2094  0.1073
18498W        W19362  17.318  20.523  27.988  0.5955  0.2226  0.1751
18499W        W19363  16.042  21.065   0.828 -0.1938 -0.3946  0.0035
18500W        W19364  15.831  18.218   4.184 -0.1811 -0.2871  0.1888
18501W        W19365  18.415  18.567   2.297 -0.1010 -0.1008  0.0883
18502W        W19366  17.066  16.381   1.543  0.0449 -0.3094 -0.0918
18503W        W19367  17.255  15.933   2.502 -0.1712 -0.0094 -0.1380
18504W        W19368  18.127  17.589   3.311  0.0302 -0.2028  0.1246
18505W        W19369  17.924  17.850   4.142 -0.0489 -0.1657  0.2371
18506W        W19370  17.610  18.432   1.773  0.2532 -0.1480  0.0614
18507W        W19371  15.766  18.361   1.837  0.1375  0.0329 -0.0207
18508W        W19372  15.318  19.071   3.267  0.3532  0.1766  0.0561
18509W        W19373  14.686  17.888   3.879 -0.0303  0.1626  0.0615
18510W        W19374  19.591  16.298   1.248  0.1422  0.0174 -0.3764
18511W        W19375  19.523  18.259   1.556  0.0337 -0.0032 -0.1144
18512W        W19376  17.281  21.438   2.258 -0.1680 -0.0123 -0.0486
18513W        W19377  15.757  18.674   0.185  0.0559  0.1728 -0.0537
18514W        W19378  15.958  19.743   1.262  0.0196  0.1915  0.1150
18515W        W19379  15.196  19.384   1.831 -0.1095 -0.3434 -0.1122
18516W        W19380  16.577  20.112   6.211  0.3435 -0.0176  0.2335
18517W        W19381  16.042  21.475   3.047  0.1020 -0.0891 -0.1703
18518W        W19382  12.194  19.398   2.447  0.2642  0.0536  0.1014
18519W        W19383  16.984  20.512   2.869  0.3114  0.0502 -0.2586
18520W        W19384  16.286  18.044   2.619 -0.2517  0.1712 -0.0482
18521W        W19385  13.930  21.079   1.400  0.1207  0.0105 -0.2662
18522W        W19386  17.296  22.646   4.336  0.3914 -0.5171  0.0056
18523W        W19387  16.821  21.304   6.550  0.3414  0.3085  0.1752
18524W        W19388  18.492  19.819   3.725 -0.4268  0.1509  0.0078
18525W        W19389  15.057  20.711   4.243  0.2800  0.1932  0.1910
18526W        W19390  16.904  21.716   3.099 -0.1561 -0.0275  0.1132
18527W        W19391  17.034  14.904   1.876  0.1393  0.0522 -0.2813
18528W        W19392  12.690  21.447   2.082 -0.0804  0.0043  0.2576
18529W        W19393  17.658  23.201   4.460 -0.1957  0.2020  0.0161
18530W        W19394  15.469  19.495   0.506 -0.0049  0.0011  0.0779
18531W        W19395  16.935  19.092   0.759 -0.1227 -0.2208  0.0903
18532W        W19396  20.904  21.078  29.126  0.0387 -0.0505 -0.0414
18533W        W19397  14.709  19.943   3.352 -0.0228  0.1406 -0.0089
18534W        W19398  18.333  21.753   1.773  0.2385 -0.3628  0.2676
18535W        W19399  12.032  23.392   0.415  0.1447  0.1590  0.0822
18536W        W19400  14.754  23.451  28.995 -0.2908  0.0228  0.3011
18537W        W19401  14.337  19.399   4.522  0.2823 -0.0440  0.1991
18538W        W19402  18.749  18.524   1.990  0.2650 -0.0083  0.2349
18539W        W19403  19.337  17.845  28.951  0.3481 -0.0606 -0.0751
18540W        W19404  15.206  20.637   1.334 -0.1541 -0.1807 -0.0326
18541W        W19405  16.965  21.208   3.968 -0.0191  0.4088 -0.2188
18542W        W19406  17.991  19.513   1.943  0.0602  0.2653 -0.1676
18543W        W19407  16.923  21.339   0.496 -0.1383  0.2264 -0.3779
18544W        W19408  17.483  17.518   0.177  0.3461 -0.0583  0.4448
18545W        W19409  16.696  17.677   1.919  0.0065 -0.3277 -0.0692
18546W        W19410  17.273  23.053   0.721 -0.4272  0.3913 -0.5204
18547W        W19411  15.267  18.917   1.094 -0.1442 -0.2424  0.0842
18548W        W19412  19.193  18.367   1.888  0.0029 -0.0086 -0.0805
18549W        W19413  14.168  23.841   1.947 -0.0461 -0.2049 -0.4007
18550W        W19414  13.316  21.643   0.636  0.1346  0.1603  0.0360
18551W        W19415  16.980  18.210   0.497 -0.0426  0.1726  0.0139
18552W        W19416  11.073  22.069   1.670  0.0176 -0.0346 -0.0349
18553W        W19417  15.752  17.778   4.509 -0.2060 -0.2764  0.1947
18554W        W19418  15.023  20.817   2.388  0.0826  0.2078  0.3112
18555W        W19419  18.110  19.945   4.078  0.3560 -0.0903 -0.0920
18556W        W19420  19.302  19.092   0.238  0.1194  0.0853  0.3208
18557W        W19421  18.359  18.485   0.905 -0.1365  0.1335  0.0527
18558W        W19422  14.746  20.725   1.158 -0.3194 -0.1297  0.3468
18559W        W19423  12.949  20.857   2.112  0.0035  0.2971  0.1380
18560W        W19424  17.665  21.565  28.368 -0.0466  0.3118  0.0181
18561W        W19425  16.745  20.799   4.293 -0.2007 -0.2180 -0.2897
18562W        W19426  16.854  20.780  28.034 -0.2077  0.0240 -0.0596
18563W        W19427  17.644  22.028   1.138  0.3045 -0.0132 -0.1100
18564W        W19428  18.225  18.131   1.588  0.0678 -0.1373  0.0368
18565W        W19429  19.013  20.864  28.914 -0.0329  0.2436 -0.3006
18566W        W19430  18.099  20.419   2.732  0.1905  0.1018 -0.0882
18567W        W19431  13.666  19.243  28.752  0.0962 -0.2671  0.0736
18568W        W19432  13.324  20.681   2.393 -0.1173 -0.3593 -0.2732
18569W        W19433  18.506  19.674   0.533 -0.1273 -0.0584 -0.1373
18570W        W19434  16.295  19.678   5.814  0.0854 -0.2133 -0.1591
18571W        W19435  17.105  19.588   3.221  0.0769 -0.2648  0.0625
18572W        W19436  15.559  18.955   0.596  0.1345  0.0215  0.1698
18573W        W19437  16.708  18.732   1.431 -0.0153  0.1259  0.1022
18574W        W19438  18.179  18.008   3.608  0.0284 -0.3550 -0.3380
18575W        W19439  15.332  17.945   2.689 -0.3813  0.0951 -0.0660
18576W        W19440  18.896  20.055   4.497  0.2026  0.1307 -0.0142
18577W        W19441  16.630  18.600   0.501  0.0170  0.0430  0.2305
18578W        W19442  20.671  21.931   2.758  0.1356 -0.1088  0.2739
18579W        W19443  16.497  20.450   2.331  0.2778 -0.4044  0.4893
18580W        W19444  17.203  16.176   1.995 -0.0614 -0.0080  0.0478
18581W        W19445  18.513  20.140   2.802 -0.2121 -0.1346  0.1190
18582W        W19446  13.795  19.839   0.909  0.0521 -0.1588  0.0630
18583W        W19447  17.967  18.248   1.167 -0.0032 -0.0090 -0.2144
18584W        W19448  16.781  17.713   3.699  0.1082 -0.3315  0.2228
18585W        W19449  17.590  18.320   2.260  0.0054  0.0559 -0.2415
18586W        W19450  18.259  20.886  28.903 -0.3413  0.2514  0.1053
18587W        W19451  13.093  22.118   2.864 -0.1059  0.0059 -0.1869
18588W        W19452  14.426  16.473   2.695  0.2964 -0.3333  0.0193
18589W        W19453  18.909  19.689   3.378  0.2165 -0.0804 -0.2122
18590W        W19454  18.849  19.213   1.138 -0.0474 -0.3164  0.0854
18591W        W19455  15.682  19.572   2.202  0.0351 -0.0833  0.2901
18592W        W19456  17.027  20.267   1.833  0.1811  0.0570 -0.0278
18593W        W19457  14.995  21.106   1.127 -0.1522 -0.0175  0.1070
18594W        W19458  18.454  16.412   1.265  0.2580 -0.0856  0.1465
18595W        W19459  16.347  17.532   2.811 -0.0623 -0.0595  0.0531
18596W        W19460  18.174  20.474   1.235 -0.0418  0.3411 -0.1292
18597W        W19461  18.235  18.898   3.472 -0.1572 -0.2759 -0.1309
18598W        W19462  17.053  16.470   3.283  0.1437  0.0767 -0.2939
18599W        W19463  15.899  20.358   4.650 -0.0453  0.1962 -0.1390
18600W        W19464  16.888  20.058   4.301 -0.1573 -0.1022 -0.2478
18601W        W19465  16.943  20.084   0.987 -0.2405  0.2538  0.0023
18602W        W19466  17.666  20.579   4.620  0.0700 -0.1528  0.2050
18603W        W19467  17.005  17.839   1.517  0.0742 -0.1475  0.0692
18604W        W19468  15.344  21.126  29.076  0.0007 -0.2173  0.1177
18605W        W19469  17.339  21.474  29.129 -0.1434 -0.2585 -0.1190
18606W        W19470  17.329  21.091   2.598 -0.0350  0.2000  0.0086
18607W        W19471  12.800  20.743   2.582  0.1750 -0.2538 -0.0882
18608W        W19472  19.198  19.550  28.133 -0.2522 -0.2684  0.0133
18609W        W19473  16.601  20.388  27.854 -0.4026  0.1881  0.1403
18610W        W19474  18.776  18.745   1.047 -0.0096 -0.1148 -0.1418
18611W        W19475  16.244  21.113   2.737  0.0652 -0.1606  0.0146
18612W        W19476  18.019  19.741   0.407 -0.1159  0.1867 -0.0901
18613W        W19477  17.689  19.276  27.787  0.0351 -0.1282  0.4423
18614W        W19478  18.097  19.441  28.339 -0.1994  0.2175  0.3462
18615W        W19479  16.296  18.956   0.136  0.1102 -0.0895 -0.1105
18616W        W19480  15.396  17.263   2.019  0.4364  0.0891  0.0544
18617W        W19481  16.935  20.242   2.389  0.2175  0.0457 -0.0443
18618W        W19482  18.189  20.177   3.191 -0.0887  0.1720  0.3453
18619W        W19483  12.859  22.629   1.285 -0.2069  0.0320  0.0066
18620W        W19484  15.290  20.889   4.702  0.1227 -0.0758  0.0277
18621W        W19485  17.990  16.643   1.968  0.1027 -0.0498 -0.1539
18622W        W19486  16.442  20.830   1.220  0.2879  0.0937 -0.0535
18623W        W19487  16.388  19.259   0.552  0.0447  0.1242  0.0135
18624W        W19488  17.720  20.301   1.399  0.0941  0.1090 -0.0350
18625W        W19489  16.324  20.601   1.814 -0.2805 -0.0119 -0.0860
18626W        W19490  16.944  21.150   2.026  0.0483 -0.2872 -0.0734
18627W        W19491  17.550  18.507   0.347 -0.4228  0.0954 -0.2192
18628W        W19492  15.745  19.952  28.371 -0.1454 -0.0132  0.3440
18629W        W19493  18.152  23.174   0.718 -0.0500 -0.0034 -0.1327
18630W        W19494  15.351  19.902  28.146 -0.0186  0.0081  0.1298
18631W        W19495  16.032  19.723  28.033 -0.1551 -0.0015 -0.0987
18632W        W19496  14.506  21.253   1.219 -0.1636  0.0370 -0.1143
18633W        W19497  17.620  19.004   0.478 -0.0031  0.1256  0.1080
18634W        W19498  15.707  21.960   3.784  0.1669 -0.1172 -0.0049
18635W        W19499  17.723  17.471   2.902  0.2123 -0.2977 -0.2251
18636W        W19500  18.608  19.660  29.119 -0.0961  0.0738 -0.1672
18637W        W19501  15.318  23.992  28.095  0.0485  0.1036  0.1016
18638W        W19502  14.956  22.423   1.069 -0.0080 -0.1218 -0.3283
18639W        W19503  12.744  18.031   0.458  0.0547 -0.0989  0.0060
18640W        W19504  17.950  24.935   1.920  0.4034 -0.1786  0.1100
18641W        W19505  17.752  17.606   0.572 -0.0912 -0.2300 -0.3161
18642W        W19506  14.567  23.103   3.236  0.1803  0.0095  0.3999
18643W        W19507  15.908  19.270   0.404  0.2866 -0.6354 -0.0688
18644W        W19508  16.912  19.390   3.689  0.0332 -0.1681  0.2321
18645W        W19509  17.581  16.888   0.983  0.3290  0.0338  0.0656
18646W        W19510  15.499  22.599   4.931 -0.0587 -0.0684 -0.1289
18647W        W19511  15.938  21.092   2.384 -0.1394  0.1096 -0.0025
18648W        W19512  16.122  21.427   0.417 -0.0286  0.2054  0.1011
18649W        W19513  16.200  18.229   1.542  0.2435  0.2167  0.0512
18650W        W19514  19.413  16.803   4.166 -0.2649  0.0603 -0.2206
18651W        W19515  16.648  20.514   0.852 -0.2302 -0.3085 -0.1113
18652W        W19516  14.490  20.679   4.225  0.3284 -0.1178 -0.0488
18653W        W19517  17.428  21.776   2.846 -0.0080  0.1084  0.3265
18654W        W19518  17.298  17.776   3.562 -0.1311  0.2285  0.2900
18655W        W19519  16.105  18.810   0.635  0.1675  0.0103  0.3497
18656W        W19520  16.685  18.651   1.937  0.0286  0.0879  0.1904
18657W        W19521  13.276  23.385   0.257 -0.0251 -0.2549  0.1000
18658W        W19522  15.546  20.388   2.790  0.2761  0.1570  0.0039
18659W        W19523  18.120  19.084   1.646  0.0698 -0.1577  0.2004
18660W        W19524  18.081  19.691   0.881  0.0983 -0.1926 -0.3665
18661W        W19525  17.088  19.503   1.824  0.0042  0.2464 -0.0983
18662W        W19526  17.542  20.831   3.701  0.1610 -0.1599 -0.0191
18663W        W19527  15.629  21.537   0.264  0.0866  0.0280 -0.1252
18664W        W19528  16.812  19.396   2.331 -0.0889  0.0422  0.2426
18665W        W19529  20.654  17.986   0.422  0.1895  0.2153 -0.2001
18666W        W19530  16.167  21.460   2.131  0.1051 -0.2239 -0.3341
18667W        W19531  15.866  21.127   1.399  0.0956 -0.2985 -0.1572
18668W        W19532  10.075  21.624   0.316  0.2917  0.0568  0.3203
18669W        W19533  14.824  18.799   5.099 -0.1082  0.0765 -0.0479
18670W        W19534  17.400  20.295  28.616  0.3774 -0.2525 -0.1992
18671W        W19535  18.668  22.107   0.332  0.0703 -0.0465  0.2944
18672W        W19536  16.234  20.190  28.251  0.1891 -0.2186  0.0116
18673W        W19537  18.753  18.760   3.017 -0.2631  0.0260  0.2289
18674W        W19538  15.690  18.318   1.304  0.3716 -0.0848 -0.1220
18675W        W19539  17.564  20.538   6.028 -0.2357 -0.1274 -0.0266
18676W        W19540  17.743  19.418   0.203 -0.0550 -0.1954 -0.3261
18677W        W19541  16.883  17.955   3.294  0.3384  0.0206  0.3266
18678W        W19542  14.505  21.322   3.031  0.0753 -0.1165 -0.0050
18679W        W19543  15.801  20.210   4.180 -0.2178  0.1427 -0.0565
18680W        W19544  15.232  22.680   0.664  0.1935 -0.1477  0.0212
18681W        W19545  14.554  22.270  29.094 -0.1743  0.3044 -0.3421
18682W        W19546  18.176  20.823   3.707 -0.0047 -0.1820 -0.3826
18683W        W19547  15.482  19.945   3.704  0.2013 -0.1050  0.0908
18684W        W19548  17.320  17.258   4.371  0.0371 -0.2899 -0.0927
18685W        W19549  16.805  19.284   0.128  0.2596  0.0059 -0.1289
18686W        W19550  19.735  20.772  28.142 -0.0509  0.0865  0.0745
18687W        W19551  16.677  14.333   4.033  0.0375  0.1928 -0.1290
18688W        W19552  17.041  18.106   1.093 -0.1576  0.0514  0.2803
18689W        W19553  19.609  19.568  29.025 -0.1571  0.0479  0.2895
18690W        W19554  17.406  17.347   2.125  0.2756 -0.3277 -0.0819
18691W        W19555  18.505  16.783   1.782 -0.3855  0.0126 -0.2557
18692W        W19556  19.969  20.052  28.726  0.1503  0.2466 -0.0799
18693W        W19557  18.479  18.813   0.029  0.0100 -0.0372  0.0083
18694W        W19558  16.547  21.392   3.024 -0.4111 -0.0028 -0.2255
18695W        W19559  12.694  19.292  27.309 -0.0891  0.0657  0.1436
18696W        W19560  16.979  20.684   1.242 -0.1789 -0.0840 -0.3240
18697W        W19561  17.741  17.948   1.962 -0.3579 -0.2629 -0.2056
18698W        W19562  15.892  19.668   0.751  0.0580  0.1090  0.0932
18699W        W19563  16.526  22.888   0.012  0.1311  0.1944 -0.0277
18700W        W19564  16.196  19.993   3.995  0.1009  0.0646 -0.3373
18701W        W19565  16.031  22.485   1.008 -0.0057  0.2485  0.3311
18702W        W19566  17.728  20.443   4.136  0.1087 -0.0859  0.1839
18703W        W19567  18.340  17.685   4.496  0.0424  0.0435  0.2582
18704W        W19568  17.370  19.412   2.779  0.0281  0.0551  0.2449
18705W        W19569  18.667  19.355  28.088  0.1932  0.0582 -0.1075
18706W        W19570  16.609  20.396   1.451  0.2763  0.2885  0.3465
18707W        W19571  18.531  20.210  27.733  0.0632  0.2709 -0.2317
18708W        W19572  17.905  18.468   3.579  0.2793 -0.0781  0.0301
18709W        W19573  14.024  18.615   4.390  0.0753 -0.2221 -0.1767
18710W        W19574  17.891  20.217   0.256  0.1025  0.0004 -0.4808
18711W        W19575  18.309  19.417   2.470  0.1117  0.0980  0.1845
18712W        W19576  15.003  21.581   1.195 -0.0997  0.1225 -0.3302
18713W        W19577  13.676  19.155   1.546 -0.1272 -0.4728 -0.3387
18714W        W19578  18.645  18.223   1.237  0.0409  0.0154  0.2895
18715W        W19579  16.994  19.113   4.832 -0.3453  0.1793 -0.0098
18716W        W19580  16.939  20.304   5.601  0.1222 -0.1936 -0.1778
18717W        W19581  19.644  20.953   1.487  0.2606  0.1224  0.0399
18718W        W19582  15.592  21.266  28.614  0.0728  0.1209  0.0723
18719W        W19583  16.942  21.826   3.701  0.1287  0.1778 -0.1937
18720W        W19584  15.374  16.684   3.373  0.7503  0.2021 -0.1733
18721W        W19585  16.739  19.683   5.056  0.1997  0.0478  0.1413
18722W        W19586  15.488  20.807   2.614  0.1155 -0.0571 -0.1410
18723W        W19587  18.655  20.076   1.485 -0.1250 -0.0708  0.2504
18724W        W19588  19.069  16.836   3.687 -0.0956 -0.0506  0.0100
18725W        W19589  16.844  19.979   3.019  0.0572  0.2034  0.4354
18726W        W19590  19.565  16.818   2.747  0.1025  0.4425  0.1614
18727W        W19591  16.946  18.890   2.396 -0.0147 -0.0253  0.0471
18728W        W19592  15.062  21.428  28.697 -0.0362 -0.0001 -0.0587
18729W        W19593  15.895  22.230  28.951  0.1088 -0.2646  0.1840
18730W        W19594  17.320  19.070   3.295 -0.2060 -0.0072 -0.0780
18731W        W19595  16.295  18.255   3.496 -0.1456 -0.3838  0.3566
18732W        W19596  17.938  18.992   3.863 -0.1079  0.0992  0.1108
18733W        W19597  16.251  19.447   2.199  0.0677 -0.0223  0.0991
18734W        W19598  18.579  19.569   2.929  0.1708  0.1045  0.1640
18735W        W19599  17.511  19.940   0.419  0.0581  0.2305  0.0054
18736W        W19600  16.945  20.124  28.810  0.1634 -0.0075 -0.2443
18737W        W19601  14.959  19.457   4.366  0.0821  0.2671 -0.1420
18738W        W19602  16.937  22.888  27.364 -0.2364 -0.2284  0.0642
18739W        W19603  17.195  17.888   2.513 -0.1130 -0.2661 -0.0213
18740W        W19604  14.908  22.774   3.149  0.2506  0.1109 -0.2863
18741W        W19605  15.176  21.941   2.949  0.0998  0.2493  0.0053
18742W        W19606  16.474  20.966   3.884 -0.1855 -0.3306  0.0391
18743W        W19607  17.511  18.769   3.682 -0.0196  0.0641  0.0423
18744W        W19608  17.260  20.289   3.899 -0.0032 -0.1773 -0.1082
18745W        W19609  18.305  23.191   1.718 -0.0352 -0.1306  0.0408
18746W        W19610  17.371  20.023  28.220 -0.0330 -0.0395  0.4622
18747W        W19611  15.639  16.976   2.403 -0.0307 -0.3094  0.1284
18748W        W19612  17.296  19.413  29.074  0.2333 -0.3027 -0.0848
18749W        W19613  18.366  20.913  28.278 -0.0993  0.0065 -0.3452
18750W        W19614  15.841  18.460   3.403 -0.1338 -0.0089  0.0674
18751W        W19615  16.259  17.094   2.355  0.1011 -0.0909 -0.0948
18752W        W19616  14.515  20.882   3.385  0.2475 -0.0116 -0.3777
18753W        W19617  15.343  20.396   0.418 -0.0438 -0.1413  0.0923
18754W        W19618  13.594  22.542   1.183  0.0194 -0.2366 -0.0444
18755W        W19619  16.073  19.008   4.574 -0.1274  0.0550  0.1093
18756W        W19620  16.500  20.683   2.733  0.0949  0.0214 -0.0883
18757W        W19621  18.023  22.996   1.254 -0.0923 -0.1418  0.2267
18758W        W19622  17.243  17.325   2.767 -0.1621 -0.2721 -0.2099
18759W        W19623  19.779  18.667   0.185 -0.2310 -0.0610  0.3367
18760W        W19624  16.475  21.396   1.172 -0.1474 -0.2676  0.1679
18761W        W19625  14.726  21.220   0.307 -0.2144 -0.2027 -0.0200
18762W        W19626  17.197  18.890   5.385  0.3488  0.4545 -0.0584
18763W        W19627  15.101  19.447   5.666 -0.0156 -0.0169  0.1987
18764W        W19628  17.294  21.466   3.641  0.0766  0.1065  0.1387
18765W        W19629  19.839  16.846   3.551 -0.0235 -0.2776  0.1007
18766W        W19630  14.137  16.686   3.704 -0.1223  0.1368 -0.1347
18767W        W19631  16.126  19.456  26.526 -0.0303 -0.0964 -0.2753
18768W        W19632  17.269  19.479   1.282 -0.0299  0.1677  0.0713
18769W        W19633  16.688  18.468   3.294 -0.0155  0.2013 -0.0322
18770W        W19634  17.969  18.951   0.083  0.0560  0.4403 -0.0416
18771W        W19635  15.638  17.630   0.251 -0.1355  0.0174 -0.2560
18772W        W19636  12.893  19.261   1.214 -0.1507  0.2439  0.1596
18773W        W19637  14.556  19.549   3.672 -0.1556 -0.1613  0.0317
18774W        W19638  15.415  20.673  28.169  0.0494 -0.1564 -0.0652
18775W        W19639  18.719  19.333   3.795 -0.3062  0.0826  0.4580
18776W        W19640  13.710  22.428   0.376 -0.2262 -0.4137  0.2303
18777W        W19641  16.740  17.722   0.927 -0.1320  0.1123  0.2075
18778W        W19642  17.179  17.775   0.685 -0.4701 -0.2262  0.0141
18779W        W19643  17.697  21.162   2.279 -0.2324  0.3269 -0.1019
18780W        W19644  17.315  19.665  28.611  0.0900  0.0401  0.0090
18781W        W19645  19.870  21.252   0.484 -0.2925 -0.0901  0.1818
18782W        W19646  16.450  18.994   2.317  0.0514  0.0333 -0.1277
18783W        W19647  16.000  19.214   0.921  0.3646  0.0366  0.1457
18784W        W19648  15.322  22.029   1.253 -0.1729  0.3660 -0.0826
18785W        W19649  16.125  20.167   1.572 -0.0511 -0.4156  0.2717
18786W        W19650  19.097  17.930   1.444  0.0094 -0.1696  0.1171
18787W        W19651  18.010  21.704   1.058  0.0096  0.0749 -0.1229
18788W        W19652  18.879  18.205   2.805 -0.3121 -0.4130 -0.0043
18789W        W19653  16.413  22.510   0.615 -0.0175  0.0017 -0.0860
18790W        W19654  15.546  21.648   0.773  0.1167 -0.2199  0.0271
18791W        W19655  16.736  18.018   2.291  0.1364 -0.2438 -0.3035
18792W        W19656  16.160  21.149   5.715  0.3307  0.1322  0.2671
18793W        W19657  19.176  20.896   1.619  0.1944  0.1194 -0.1025
18794W        W19658  15.042  19.564  27.846  0.0012 -0.0505 -0.0316
18795W        W19659  14.624  19.258   4.998  0.1317 -0.1911  0.0365
18796W        W19660  15.546  20.525   5.657 -0.2054 -0.3123  0.0436
18797W        W19661  17.047  17.061   2.343 -0.1251 -0.0336  0.3183
18798W        W19662  16.532  19.084   5.040 -0.2141  0.3546 -0.0976
18799W        W19663  14.168  20.910   2.294  0.2630 -0.0031  0.1183
18800W        W19664  15.382  20.741  27.274  0.0244 -0.3615  0.4716
18801W        W19665  18.145  20.608   5.905  0.0723  0.0172 -0.1212
18802W        W19666  13.817  22.947   0.418  0.2114 -0.1356  0.1586
18803W        W19667  17.082  18.841   2.839 -0.4084 -0.0700  0.0669
18804W        W19668  16.922  20.739   2.399 -0.2703 -0.1168 -0.1512
18805W        W19669  14.389  21.593   5.104  0.0266  0.0696  0.0637
18806W        W19670  16.971  17.353   1.608  0.1928 -0.1154 -0.6568
18807W        W19671  19.059  19.152   3.424  0.3095  0.0336  0.2422
18808W        W19672  15.056  22.509   1.602 -0.0749  0.0951 -0.2648
18809W        W19673  10.763  20.139   2.385 -0.0485 -0.0211  0.0911
18810W        W19674  14.421  19.032   2.603  0.1817  0.0251 -0.0377
18811W        W19675  18.720  17.407   0.920  0.0018  0.0033  0.3157
18812W        W19676  14.221  21.433   3.990 -0.1879 -0.1081 -0.4853
18813W        W19677  15.633  20.804   1.129  0.0657  0.0866  0.1724
18814W        W19678  15.194  22.258   2.069  0.1712 -0.2738 -0.0311
18815W        W19679  14.876  21.607   2.801  0.3396 -0.0369  0.0336
18816W        W19680  19.099  17.018   1.120 -0.1540 -0.0674  0.3014
18817W        W19681  15.112  21.299   0.665 -0.0951 -0.2042 -0.1421
18818W        W19682  17.861  20.250  28.246  0.0550 -0.1031  0.0383
18819W        W19683  16.012  22.755   1.662 -0.0725 -0.0196 -0.2364
18820W        W19684  18.774  19.171   4.295  0.1491  0.1965 -0.0576
18821W        W19685  17.461  22.548  27.596  0.1845 -0.0639  0.0335
18822W        W19686  17.787  19.070   2.889  0.0037 -0.0689  0.0793
18823W        W19687  13.128  21.663   2.543 -0.0627 -0.0190  0.1718
18824W        W19688  18.678  22.994   2.694 -0.0403  0.0117 -0.1989
18825W        W19689  16.359  20.215   3.608 -0.0953 -0.1282 -0.0081
18826W        W19690  13.356  21.126   0.769  0.0433  0.0623 -0.2353
18827W        W19691  20.116  21.291  28.262  0.4937 -0.2849  0.0000
18828W        W19692  16.123  20.597   0.921 -0.1066  0.3747 -0.0766
18829W        W19693  16.912  16.347   2.720  0.2738  0.2591 -0.0627
18830W        W19694  13.198  22.293   1.440 -0.0411  0.3414  0.0153
18831W        W19695  16.135  18.960   2.720  0.1100 -0.0820  0.0768
18832W        W19696  15.807  19.028   2.252 -0.0159  0.1685  0.5102
18833W        W19697  16.308  22.707  28.351  0.1419 -0.0875 -0.2818
18834W        W19698  16.495  18.090   0.261 -0.0190 -0.1241 -0.0085
18835W        W19699  17.144  21.701   4.179  0.0791  0.1831  0.0263
18836W        W19700  15.172  24.475  28.986  0.1527 -0.0726  0.0604
18837W        W19701  15.480  19.722   2.672  0.0721  0.1438 -0.1958
18838W        W19702  19.075  17.530   3.589 -0.0181 -0.0257 -0.2597
18839W        W19703  13.687  20.122  29.142 -0.0869  0.0030 -0.2321
18840W        W19704  16.718  18.213   2.757 -0.2479  0.1203 -0.4247
18841W        W19705  16.759  18.960  28.445  0.0786  0.0947 -0.2162
18842W        W19706  17.862  20.283  28.815  0.0686 -0.1341 -0.2987
18843W        W19707  20.796  19.408   1.558  0.3174  0.1078 -0.2429
18844W        W19708  15.604  22.953   0.245 -0.0504  0.3115  0.2242
18845W        W19709  17.915  17.216   0.800  0.1232 -0.0877  0.2391
18846W        W19710  16.480  18.697   4.702  0.1050 -0.2407  0.1621
18847W        W19711  18.796  21.206   4.473 -0.1622 -0.0041 -0.0996
18848W        W19712  13.299  19.393   3.584  0.0419  0.0300 -0.0518
18849W        W19713  15.582  19.544   0.017  0.2174  0.3667 -0.0012
18850W        W19714  14.035  19.413   0.016 -0.3777  0.1316  0.0705
18851W        W19715  16.873  18.690   5.061  0.0309  0.1126 -0.3057
18852W        W19716  16.708  19.219   4.077  0.0618 -0.1412 -0.0831
18853W        W19717  18.427  18.573   1.604  0.0998 -0.0805  0.1403
18854W        W19718  17.168  18.470   1.512  0.1689 -0.1474  0.1612
18855W        W19719  18.884  23.388   2.370 -0.0895  0.0575  0.1672
18856W        W19720  15.823  19.212   4.029 -0.0808  0.1727 -0.0483
18857W        W19721  15.616  21.121   0.665 -0.0939 -0.1951  0.1778
18858W        W19722  16.470  18.993   0.940  0.1277  0.2588 -0.1760
18859W        W19723  20.066  17.340   0.901 -0.3229  0.2220  0.3954
18860W        W19724  13.004  21.245   1.173 -0.0898 -0.1247 -0.0702
18861W        W19725  16.849  20.927  29.087  0.0325  0.0442 -0.1270
18862W        W19726  14.249  20.189   2.493 -0.2707 -0.3137  0.2172
18863W        W19727  17.194  21.789   0.365  0.1631 -0.0399 -0.4471
18864W        W19728  19.062  19.613   2.909 -0.0254 -0.1912  0.4205
18865W        W19729  16.136  16.086   3.283 -0.0846  0.0445 -0.2154
18866W        W19730  16.682  20.580   3.448 -0.2171  0.1468 -0.1952
18867W        W19731  13.707  22.252   1.597  0.0221  0.0121  0.2608
18868W        W19732  17.626  17.722   2.395  0.2020  0.1868 -0.0657
18869W        W19733  15.074  19.374   1.278  0.0236 -0.3366  0.0630
18870W        W19734  18.407  21.331   0.911  0.0117  0.0243  0.1371
18871W        W19735  14.838  21.992   2.522  0.0271  0.0506 -0.2356
18872W        W19736  16.631  19.686   3.386  0.0246 -0.1891  0.2675
18873W        W19737  17.184  23.524   3.816  0.0156  0.2933  0.2161
18874W        W19738  16.720  22.408   2.265  0.4014  0.0407 -0.3995
18875W        W19739  19.625  17.599   3.921  0.0152 -0.3780 -0.0699
18876W        W19740  15.020  22.451   2.479  0.1726 -0.1583 -0.2715
18877W        W19741  16.754  23.317   2.089  0.2224  0.1486 -0.3453
18878W        W19742  13.398  21.839   1.576 -0.1213 -0.2356  0.0006
18879W        W19743  14.908  20.221   4.158 -0.5597  0.0801 -0.2833
18880W        W19744  15.684  19.110   6.039  0.1458  0.4453  0.0932
18881W        W19745  14.843  19.758   2.054 -0.1828  0.1705  0.3678
18882W        W19746  17.555  19.343   1.897  0.3632  0.0486  0.1620
18883W        W19747  17.135  21.533   1.740  0.1527 -0.2745 -0.2164
18884W        W19748  16.538  20.193   1.900  0.2585 -0.0246 -0.0254
18885W        W19749  15.735  18.848   3.085  0.2785  0.0594 -0.2862
18886W        W19750  16.275  19.833   3.120  0.2631  0.1879  0.0159
18887W        W19751  16.408  20.337   3.117  0.0638  0.1143 -0.1171
18888W        W19752  16.790  21.378   3.500  0.1548  0.0161  0.3143
18889W        W19753  17.435  19.177   2.351  0.0256 -0.0794 -0.1021
18890W        W19754  15.182  25.123   8.261  0.4274 -0.2799 -0.0417
18891W        W19755  12.087  19.677   8.228  0.0885  0.0430  0.1594
18892W        W19756  18.834  17.654   4.649 -0.0348 -0.0360 -0.1213
18893W        W19757  16.257  19.761   7.757  0.0949  0.0460 -0.0822
18894W        W19758  14.582  21.133   4.905 -0.3089  0.0864 -0.0432
18895W        W19759  15.328  18.557   5.000 -0.0284  0.0635  0.2013
18896W        W19760  16.580  19.816   6.990  0.3039  0.0042  0.1075
18897W        W19761  18.646  21.819   4.935  0.1395 -0.2357 -0.0984
18898W        W19762  18.164  22.618   4.757  0.0754 -0.1614 -0.0692
18899W        W19763  14.016  17.114   4.698 -0.0895  0.2108 -0.0105
18900W        W19764  16.408  17.759   7.299 -0.0006  0.0326  0.1619
18901W        W19765  19.904  21.015   5.533 -0.0784 -0.3770 -0.1872
18902W        W19766  15.905  20.807   5.525 -0.0030  0.0695 -0.0032
18903W        W19767  18.831  16.601  10.508  0.0135 -0.1520 -0.3192
18904W        W19768  13.908  19.172   5.503  0.0231 -0.0028 -0.3388
18905W        W19769  12.606  18.834   7.017  0.0922 -0.0412  0.0278
18906W        W19770  13.277  19.650   3.986  0.1913  0.0665  0.1866
18907W        W19771  16.864  19.130   7.156  0.0398  0.0361  0.1454
18908W        W19772  17.571  20.932   7.516  0.1064 -0.0991  0.2232
18909W        W19773  18.639  19.341   5.012 -0.3144 -0.1139  0.2455
18910W        W19774  16.855  19.537   9.286 -0.1753 -0.0308  0.0013
18911W        W19775  19.052  20.661   6.549  0.0613 -0.0396  0.0706
18912W        W19776  16.555  20.832   6.472  0.2015 -0.3444  0.1252
18913W        W19777  13.396  20.357   4.890  0.0007  0.0791  0.3037
18914W        W19778  14.025  17.585   5.835  0.1294  0.1892 -0.0758
18915W        W19779  15.432  17.823   6.147 -0.4035 -0.2788 -0.0722
18916W        W19780  19.456  19.234   5.474 -0.0992  0.4159 -0.2514
18917W        W19781  16.430  22.466   4.904 -0.1879  0.1101  0.2113
18918W        W19782  15.364  18.850   6.509  0.1771 -0.0674  0.0144
18919W        W19783  14.629  21.976   5.780 -0.0690 -0.4526 -0.1160
18920W        W19784  19.141  21.710   4.733 -0.0730 -0.0896 -0.2538
18921W        W19785  16.003  21.342   7.351 -0.0791  0.0053  0.1820
18922W        W19786  16.327  19.958  10.499 -0.1697 -0.1075  0.0085
18923W        W19787  15.328  21.884   7.153 -0.0657  0.5182 -0.1736
18924W        W19788  12.310  17.702   5.222  0.2582  0.0270 -0.1593
18925W        W19789  17.871  19.679   4.494  0.0187  0.2928 -0.3748
18926W        W19790  13.476  18.740   4.891 -0.2002  0.2273  0.1224
18927W        W19791  20.551  20.927   5.723  0.4702 -0.1518  0.0096
18928W        W19792  19.082  23.521   3.308  0.0259 -0.2626  0.2382
18929W        W19793  19.225  17.878   3.958  0.1727 -0.2257  0.1100
18930W        W19794  19.887  19.551   1.402  0.2198 -0.3549 -0.0254
18931W        W19795  17.199  20.396   4.969 -0.0325 -0.0084  0.2126
18932W        W19796  15.676  21.093   6.413 -0.1846 -0.1788  0.1348
18933W        W19797  15.837  20.286   3.685  0.2180 -0.2387 -0.1579
18934W        W19798  13.902  18.765   3.453 -0.1478  0.0677  0.0658
18935W        W19799  14.957  19.437   3.342 -0.0327  0.4330  0.1446
18936W        W19800  17.210  17.812   6.973 -0.2927 -0.2756  0.0274
18937W        W19801  17.967  20.932   1.913  0.1234  0.0203  0.0284
18938W        W19802  15.591  21.229   4.293  0.0605  0.0050 -0.1141
18939W        W19803  16.465  20.997   4.825 -0.0807 -0.0827  0.3631
18940W        W19804  15.157  20.923   5.606 -0.1767 -0.1771  0.1410
18941W        W19805  16.686  18.264   4.974  0.2052 -0.0612  0.0694
18942W        W19806  16.769  20.716   5.088 -0.1122 -0.1911  0.2753
18943W        W19807  18.497  21.814   0.769 -0.1333  0.4527  0.2159
18944W        W19808  19.168  16.442   5.354 -0.3345  0.0555 -0.4225
18945W        W19809  15.026  20.282   6.412 -0.1599  0.1202 -0.2293
18946W        W19810  15.717  16.896   5.429  0.1732 -0.1917  0.0704
18947W        W19811  17.213  20.491   3.352  0.1437  0.0226 -0.3029
18948W        W19812  15.881  18.359   5.475  0.1540  0.1026  0.1938
18949W        W19813  15.460  20.192   6.011 -0.0963  0.1716 -0.1775
18950W        W19814  16.002  20.147   0.680  0.2471  0.0327  0.1137
18951W        W19815  14.196  20.162   4.853 -0.0485 -0.1332 -0.2723
18952W        W19816  13.246  20.316   5.903  0.1062 -0.1268 -0.1074
18953W        W19817  16.699  15.585   5.395 -0.0272  0.0241 -0.1297
18954W        W19818  14.905  20.472   6.881 -0.0070 -0.4326  0.1188
18955W        W19819  18.288  18.358   6.143 -0.0284 -0.0707  0.0304
18956W        W19820  16.291  18.992   4.101 -0.4516  0.0442  0.1944
18957W        W19821  13.901  17.891   4.997  0.1843 -0.2315 -0.0327
18958W        W19822  13.178  23.760   5.083  0.2271  0.0744  0.0027
18959W        W19823  17.481  21.307   4.088  0.3525 -0.1069  0.1451
18960W        W19824  17.772  19.222   5.870  0.3852 -0.1200 -0.0630
18961W        W19825  17.428  19.273   4.594  0.0275  0.2235 -0.0774
18962W        W19826  18.047  21.672   5.641 -0.2573 -0.1292  0.1788
18963W        W19827  18.759  19.959   6.263 -0.0948  0.1052  0.1027
18964W        W19828  18.629  21.561   2.678  0.0621  0.2224  0.1142
18965W        W19829  17.224  19.167   5.851  0.1247 -0.0676 -0.0316
18966W        W19830  12.219  20.749   4.840 -0.1679  0.0027 -0.1048
18967W        W19831  17.938  18.311   7.447 -0.1114 -0.1307 -0.3606
18968W        W19832  14.881  18.885   7.042 -0.0789  0.2567  0.1159
18969W        W19833  17.345  18.188   6.095  0.4095  0.1438 -0.2049
18970W        W19834  14.915  18.935   4.647 -0.2246  0.0274  0.0725
18971W        W19835  17.441  18.608   8.665 -0.0727  0.0197  0.2484
18972W        W19836  15.179  16.767   6.298 -0.0401  0.0402  0.2873
18973W        W19837  17.986  18.767   5.959 -0.5270 -0.0173  0.2715
18974W        W19838  18.118  18.720   7.684  0.0010 -0.0051  0.1640
18975W        W19839  17.465  16.765   4.828 -0.1220 -0.0272  0.1269
18976W        W19840  18.027  20.537   8.354 -0.1972  0.0160  0.5243
18977W        W19841  17.547  19.269   5.353  0.3058  0.2259 -0.0303
18978W        W19842  18.132  20.360   7.441  0.0330 -0.0993 -0.2559
18979W        W19843  16.372  19.289   3.570 -0.1908 -0.1334  0.3615
18980W        W19844  19.463  18.343   4.354  0.2247 -0.1215 -0.0601
18981W        W19845  15.802  18.981   8.917  0.1712  0.1437 -0.3574
18982W        W19846  13.718  19.447   6.886  0.0299 -0.0763  0.1268
18983W        W19847  14.747  18.395   5.481 -0.0143 -0.1311 -0.1336
18984W        W19848  11.901  18.653   7.873 -0.0384 -0.0781  0.1678
18985W        W19849  18.744  18.762   3.520 -0.2623  0.1661  0.2764
18986W        W19850  18.143  19.831  28.925 -0.1545  0.2222 -0.0015
18987W        W19851  17.214  20.948   8.624  0.3755 -0.0452  0.2712
18988W        W19852  15.988  17.719   6.110 -0.1244 -0.0757  0.3272
18989W        W19853  19.131  18.142   5.311  0.1577 -0.0925  0.2027
18990W        W19854  18.611  21.148   6.129 -0.1037 -0.0888  0.3278
18991W        W19855  15.926  19.926   5.048  0.0782 -0.1089 -0.1394
18992W        W19856  16.603  17.756   4.178 -0.1021  0.1456 -0.1951
18993W        W19857  19.528  20.596   4.005  0.1012 -0.2693 -0.0974
18994W        W19858  18.677  19.233   6.081  0.1199 -0.2641 -0.1174
18995W        W19859  18.190  20.968   6.253 -0.1757  0.2987 -0.0238
18996W        W19860  16.985  21.358   6.087  0.0601  0.3320 -0.2925
18997W        W19861  15.746  21.634   8.624 -0.0600  0.0458 -0.0707
18998W        W19862  18.475  18.809   4.731 -0.2758 -0.4562 -0.2323
18999W        W19863  17.944  20.569   7.870  0.0702  0.3012  0.0468
19000W        W19864  15.905  22.360   5.831  0.5196 -0.1347  0.0819
19001W        W19865  16.750  23.041   3.921 -0.1588  0.0411 -0.1082
19002W        W19866  19.365  20.262   5.178 -0.0355 -0.1453 -0.0661
19003W        W19867  16.963  19.878   1.488 -0.2554  0.1086 -0.1213
19004W        W19868  17.907  21.365   3.810  0.0552 -0.3081 -0.2328
19005W        W19869  14.482  19.449   5.476  0.2524 -0.0700 -0.1331
19006W        W19870  17.060  18.056   3.995 -0.2835  0.3278 -0.1232
19007W        W19871  16.401  19.374   7.116 -0.2460  0.1914  0.2025
19008W        W19872  16.890  20.789   5.656 -0.3371  0.0465  0.1064
19009W        W19873  17.036  17.727   4.460 -0.1251 -0.1137  0.1264
19010W        W19874  17.931  18.959   2.407  0.2033 -0.0082  0.0467
19011W        W19875  17.446  18.409   4.197 -0.1867  0.0313  0.1924
19012W        W19876  17.553  18.663   6.150 -0.3189 -0.0442  0.1543
19013W        W19877  16.610  19.119   8.420 -0.0888 -0.1062 -0.0051
19014W        W19878  17.770  20.047   6.184  0.1329 -0.2683 -0.1560
19015W        W19879  17.414  18.317   3.366  0.0581 -0.0820 -0.0076
19016W        W19880  16.374  18.697   5.538 -0.1549  0.0887 -0.1191
19017W        W19881  18.111  20.084   5.136 -0.1014 -0.2154 -0.3127
19018W        W19882  18.917  20.123   7.094 -0.1272 -0.1891  0.0281
19019W        W19883  15.498  20.626   6.638 -0.2886 -0.1772  0.1333
19020W        W19884  17.411  20.101   5.856 -0.0998  0.1594  0.0493
19021W        W19885  17.942  18.065   4.562  0.1774  0.0611 -0.1614
19022W        W19886  16.387  21.574   5.825  0.0874 -0.0007  0.2511
19023W        W19887  17.770  19.407   4.909  0.1515 -0.0798  0.2492
19024W        W19888  18.443  20.595   3.272  0.2329 -0.2172 -0.1819
19025W        W19889  15.664  17.283   6.133  0.0638  0.3004  0.1487
19026W        W19890  19.355  17.733   5.119  0.0263  0.2245  0.0481
19027W        W19891  17.071  18.831   6.142 -0.0172 -0.0807  0.0470
19028W        W19892  17.986  19.144   6.349  0.0961  0.1543 -0.1576
19029W        W19893  16.185  20.504   4.014  0.2157 -0.0933 -0.0969
19030W        W19894  14.835  21.234   6.418 -0.2559 -0.2100 -0.0233
19031W        W19895  19.449  18.778   4.083 -0.0827 -0.1232 -0.0147
19032W        W19896  12.832  19.357   3.744  0.0501  0.0437  0.2817
19033W        W19897  16.443  20.696   5.473 -0.1990  0.1445  0.1111
19034W        W19898  15.561  23.153   9.360  0.3953 -0.2891 -0.0930
19035W        W19899  16.746  17.289   7.423 -0.2554  0.1568  0.0381
19036W        W19900  18.447  21.149   3.022 -0.0479 -0.1146 -0.1378
19037W        W19901  19.529  20.367   6.346  0.0146 -0.1235 -0.0573
19038W        W19902  17.831  21.084   5.863  0.1518 -0.0838  0.3627
19039W        W19903  15.146  23.304   6.833 -0.1043  0.2689 -0.0339
19040W        W19904  17.614  20.693   8.714  0.0463  0.1062 -0.1669
19041W        W19905  13.038  19.492   6.056 -0.1764 -0.3256  0.0275
19042W        W19906  16.531  21.656   6.814  0.2893  0.2591  0.0217
19043W        W19907  14.661  17.178   4.005 -0.0436 -0.0657  0.2711
19044W        W19908  16.987  17.075   7.019 -0.3209  0.0395 -0.0351
19045W        W19909  16.081  16.246   7.138  0.0504  0.1880  0.0827
19046W        W19910  14.631  19.080   7.724 -0.1034 -0.0648 -0.1807
19047W        W19911  15.539  19.708   5.889  0.0641 -0.3661 -0.0989
19048W        W19912  16.392  16.642   6.225  0.0709 -0.0699  0.1465
19049W        W19913  17.542  20.745   5.125  0.1061  0.2147 -0.2390
19050W        W19914  20.279  17.889   4.571  0.0459 -0.4146 -0.0618
19051W        W19915  17.740  20.813   9.204 -0.0123  0.4980 -0.0930
19052W        W19916  17.088  19.638   7.024  0.1498  0.0133  0.1658
19053W        W19917  16.496  18.856   9.410 -0.1784 -0.0938 -0.2033
19054W        W19918  17.157  16.002   9.491  0.2007 -0.0182  0.1982
19055W        W19919  15.474  18.414   5.884  0.0648 -0.3828 -0.1026
19056W        W19920  16.256  16.963   8.808 -0.2537 -0.0892 -0.1380
19057W        W19921  16.090  18.674   3.772 -0.1356 -0.1187 -0.1402
19058W        W19922  15.458  22.058   8.451 -0.4487  0.0621 -0.2015
19059W        W19923  13.585  20.231   5.455 -0.0306 -0.3040 -0.0300
19060W        W19924  17.875  20.243   5.685 -0.0715 -0.1369  0.1719
19061W        W19925  15.988  19.483   6.232 -0.1963  0.1778  0.3087
19062W        W19926  18.537  20.635   6.192 -0.0919  0.1575  0.0539
19063W        W19927  18.334  21.119   4.222 -0.1328  0.2515  0.3867
19064W        W19928  18.913  18.718   6.633 -0.0225  0.1655 -0.4373
19065W        W19929  17.826  20.882   2.647 -0.1599 -0.0906  0.0658
19066W        W19930  15.550  22.144   6.841 -0.2299  0.1753 -0.0308
19067W        W19931  13.911  19.915   5.165 -0.1017  0.0102  0.1292
19068W        W19932  15.477  22.273   5.348 -0.0868 -0.0851 -0.1759
19069W        W19933  15.527  19.159   7.550 -0.1402  0.3152  0.0608
19070W        W19934  12.873  19.499   3.179 -0.1770  0.1264  0.0115
19071W        W19935  17.825  21.268   7.177  0.2418  0.1939 -0.0478
19072W        W19936  16.204  20.454   6.347  0.1669 -0.2166 -0.1445
19073W        W19937  15.845  17.567   2.531  0.0293 -0.1661  0.0768
19074W        W19938  15.681  18.790   5.238  0.1636 -0.1867  0.0904
19075W        W19939  19.016  22.762   5.577  0.0639  0.2390  0.0777
19076W        W19940  19.963  15.462   5.819  0.0746 -0.3612  0.0862
19077W        W19941  16.883  16.945   3.184 -0.0609  0.1110  0.0745
19078W        W19942  13.173  24.328   6.789 -0.2374 -0.3088  0.0460
19079W        W19943  17.373  17.883   7.453  0.5368 -0.0321 -0.0429
19080W        W19944  12.929  20.068   4.820 -0.2546 -0.0939  0.0269
19081W        W19945  11.237  17.097   6.173 -0.1768 -0.1941  0.1101
19082W        W19946  14.948  17.577   6.750 -0.0379  0.1997 -0.5102
19083W        W19947  16.730  18.158   9.333 -0.0645 -0.0218 -0.1400
19084W        W19948  16.996  18.245   8.466  0.1613  0.1049  0.2315
19085W        W19949  16.739  17.777   6.947  0.2256 -0.0769 -0.1411
19086W        W19950  15.639  17.532   5.673 -0.0358  0.1606 -0.0626
19087W        W19951  16.681  19.598   7.449 -0.0486  0.1302  0.1831
19088W        W19952  14.682  17.004   5.539 -0.3263  0.1023 -0.1692
19089W        W19953  18.101  18.451   4.845 -0.0777  0.2742 -0.1441
19090W        W19954  17.231  19.352   4.137  0.3156  0.0029 -0.3262
19091W        W19955  18.399  18.442   8.466  0.0127  0.3631 -0.3207
19092W        W19956  18.493  19.596   5.396 -0.1821  0.3345 -0.1612
19093W        W19957  18.633  19.793   5.832 -0.1148  0.0117 -0.3184
19094W        W19958  19.956  18.120   6.638  0.0212 -0.0676  0.0988
19095W        W19959  14.349  17.591   2.791 -0.2837  0.1374  0.0311
19096W        W19960  16.555  19.804   8.367  0.0453  0.2564  0.0684
19097W        W19961  18.111  18.929   5.483 -0.0974 -0.0368 -0.0818
19098W        W19962  17.131  22.241   2.798 -0.1974  0.0426  0.1103
19099W        W19963  16.312  18.676   6.052  0.1619 -0.1411  0.0504
19100W        W19964  16.182  17.875   9.230 -0.1868 -0.1209 -0.0594
19101W        W19965  14.821  19.999   6.809  0.3234 -0.0574  0.1507
19102W        W19966  17.236  22.450   8.411  0.2514  0.1464  0.1165
19103W        W19967  18.374  15.859   5.441  0.2088  0.1945 -0.0451
19104W        W19968  18.982  21.167   7.134 -0.0768  0.1638 -0.0918
19105W        W19969  18.232  19.375   3.665  0.0276  0.0877 -0.0211
19106W        W19970  16.906  21.826   6.599 -0.0676 -0.4643 -0.1054
19107W        W19971  17.185  21.024   3.456  0.1090 -0.0546 -0.0220
19108W        W19972  17.651  19.745   9.958 -0.1905  0.0738 -0.3026
19109W        W19973  11.393  19.708   6.974 -0.0752 -0.1233  0.5791
19110W        W19974  17.953  16.383   7.037 -0.1403  0.1755  0.0932
19111W        W19975  19.369  17.126   4.734  0.2622 -0.0931 -0.1869
19112W        W19976  16.968  20.727   3.819  0.2226  0.1432 -0.0164
19113W        W19977  16.681  20.342   3.953  0.1466 -0.0031  0.1173
19114W        W19978  18.230  19.369   5.874  0.1954  0.1512  0.1437
19115W        W19979  14.061  18.482   9.050  0.0444  0.2898 -0.1517
19116W        W19980  15.800  22.179   7.299 -0.0430  0.0410  0.0520
19117W        W19981  18.991  18.872   6.160 -0.0650 -0.0973  0.2331
19118W        W19982  15.836  21.538   5.084 -0.1692  0.3612  0.1089
19119W        W19983  17.644  20.836   7.049 -0.1478  0.1292  0.2027
19120W        W19984  15.841  18.912   6.829  0.0523 -0.0054  0.0738
19121W        W19985  18.403  19.581   6.337  0.1133 -0.0468 -0.0365
19122W        W19986  15.375  21.639   4.033  0.2374  0.2341 -0.0765
19123W        W19987  19.008  19.655   2.383  0.0777 -0.2865  0.0609
19124W        W19988  15.761  17.120   6.748  0.0270 -0.1433 -0.1032
19125W        W19989  17.993  22.868   5.343 -0.1118 -0.0335 -0.0857
19126W        W19990  16.764  20.452   4.668 -0.0418  0.0510 -0.0574
19127W        W19991  17.090  15.469   9.433  0.0960  0.1789  0.0284
19128W        W19992  17.626  22.389   8.023 -0.1559  0.0434 -0.0727
19129W        W19993  19.045  21.527   5.283  0.2258  0.0164  0.1647
19130W        W19994  14.408  22.309   6.114 -0.0961  0.1301 -0.1411
19131W        W19995  17.670  20.038   6.673 -0.0568 -0.1034 -0.0703
19132W        W19996  12.863  18.770   2.890 -0.0952 -0.1047 -0.2741
19133W        W19997  17.024  19.317   6.312  0.0825 -0.1116  0.1936
19134W        W19998  19.674  18.607   4.688 -0.0581  0.3384  0.0334
19135W        W19999  15.929  18.292   5.963 -0.4943  0.1183 -0.0613
19136W        W20000  18.242  20.802   4.562  0.0865 -0.0479 -0.0793
19137W        W20001  11.116  23.362   8.458 -0.0523 -0.1751  0.1380
19138W        W20002  18.671  22.531   3.537 -0.0247 -0.1531 -0.3029
19139W        W20003  16.648  19.789   3.922  0.1506  0.0657  0.0770
19140W        W20004  13.455  20.818   6.229  0.3898 -0.2743 -0.2592
19141W        W20005  14.213  24.921   7.221 -0.4742 -0.1443  0.3989
19142W        W20006  17.433  20.052   8.121  0.1860 -0.2455  0.1724
19143W        W20007  20.151  19.819   7.004 -0.2149 -0.3437  0.1760
19144W        W20008  12.625  19.804   3.533 -0.2288 -0.0222  0.3662
19145W        W20009  17.986  20.563   5.025  0.0925  0.2535 -0.1216
19146W        W20010  18.829  19.252   2.637  0.4992  0.0037  0.2223
19147W        W20011  14.106  14.636   8.120  0.0691  0.1706 -0.0660
19148W        W20012  17.738  21.209   3.417  0.1004 -0.3271  0.2757
19149W        W20013  18.351  19.294   4.610  0.1127 -0.4163  0.1653
19150W        W20014  18.302  18.928   6.791  0.0786 -0.1350 -0.1747
19151W        W20015  16.831  18.153   6.672 -0.1330  0.0657  0.0242
19152W        W20016  15.773  19.246   5.003 -0.2834  0.3518 -0.0764
19153W        W20017  16.273  18.539   7.703 -0.1558 -0.0599  0.1949
19154W        W20018  15.937  21.371   6.103  0.1893 -0.1494  0.1109
19155W        W20019  12.925  23.584   7.287 -0.0327  0.3416  0.1144
19156W        W20020  14.523  19.210   4.091 -0.3323 -0.0876  0.0818
19157W        W20021  18.516  22.530   2.515 -0.1804  0.1246  0.1142
19158W        W20022  16.612  20.615   6.046 -0.1954 -0.0490  0.2016
19159W        W20023  19.889  18.507   5.182  0.0028  0.2150 -0.1171
19160W        W20024  14.252  23.347   7.211  0.1056  0.2295  0.3111
19161W        W20025  16.149  20.030   8.266 -0.1309  0.0166 -0.1546
19162W        W20026  16.159  18.858   8.345 -0.2846  0.0639 -0.2959
19163W        W20027  15.277  20.889   7.491  0.0131 -0.1225 -0.1028
19164W        W20028  19.629  22.358   4.518  0.0986  0.0331 -0.1763
19165W        W20029  17.555  18.916   4.990 -0.2342 -0.2809  0.3155
19166W        W20030  15.309  18.167   5.452 -0.1471  0.0190 -0.0040
19167W        W20031  16.178  18.536   5.089 -0.1029 -0.0199 -0.1918
19168W        W20032  19.058  19.593   6.456 -0.0629 -0.2568 -0.0993
19169W        W20033  13.245  21.164   6.582  0.1236  0.0652  0.2289
19170W        W20034  18.388  21.264   5.666 -0.0614  0.0047  0.0881
19171W        W20035  14.690  19.750   4.115  0.0663 -0.0301 -0.1416
19172W        W20036  16.296  19.549   4.868 -0.1173 -0.1115  0.0127
19173W        W20037  15.623  19.997   7.170 -0.3632 -0.0079 -0.2868
19174W        W20038  17.574  20.017   4.773 -0.1570  0.0810  0.0309
19175W        W20039  19.179  17.766   6.975  0.2456 -0.1309  0.2470
19176W        W20040  16.410  20.089   4.849  0.0105  0.0103 -0.0502
19177W        W20041  13.924  18.996   6.011 -0.1352  0.1487 -0.0199
19178W        W20042  18.315  20.905   1.575 -0.0792 -0.0893 -0.2243
19179W        W20043  18.320  22.037   4.479  0.1586  0.0662 -0.2635
19180W        W20044  18.381  18.096   7.081 -0.2122 -0.0358  0.1263
19181W        W20045  18.911  18.636   1.538  0.2069 -0.1589  0.0399
19182W        W20046  15.704  17.170   7.480 -0.2945 -0.1499  0.3796
19183W        W20047  19.017  20.345   6.109  0.0520  0.0008 -0.2258
19184W        W20048  14.788  22.445   5.696  0.1335  0.0624 -0.3996
19185W        W20049  17.687  18.634   4.621  0.1183  0.1655 -0.1435
19186W        W20050  17.687  19.780   5.344  0.1585 -0.2839  0.2238
19187W        W20051  17.196  20.410   7.712 -0.1699  0.3553  0.1026
19188W        W20052  16.721  18.589   6.999  0.1102  0.1504 -0.0658
19189W        W20053  17.270  21.674   4.722 -0.2712 -0.0225 -0.1539
19190W        W20054  15.600  20.064   5.472 -0.2041 -0.0522  0.2348
19191W        W20055  15.916  15.451   5.179 -0.2077 -0.1076  0.1981
19192W        W20056  13.963  22.293   6.283  0.0520  0.1796 -0.1051
19193W        W20057  17.025  18.449   3.686  0.0074  0.0751 -0.2348
19194W        W20058  17.191  21.067   5.365  0.2427  0.0708  0.0483
19195W        W20059  18.835  22.083   4.564 -0.1262  0.1325 -0.0340
19196W        W20060  18.020  18.367   9.894  0.0874 -0.1878 -0.1605
19197W        W20061  17.241  16.800   4.125 -0.1420 -0.0908 -0.0050
19198W        W20062  17.813  19.486   2.564 -0.3334  0.1775 -0.1648
19199W        W20063  17.904  21.654   7.574 -0.1949 -0.5355  0.2333
19200W        W20064  16.915  17.391   4.081  0.3034  0.1024  0.0463
19201W        W20065  14.103  20.765   7.053 -0.0683  0.3396  0.0814
19202W        W20066  18.404  18.028   4.044 -0.0051 -0.1427  0.2265
19203W        W20067  17.448  21.313   5.036 -0.1618  0.0163 -0.0444
19204W        W20068  16.611  19.038   6.241  0.3390  0.1042 -0.2036
19205W        W20069  14.775  24.267   9.244 -0.0967 -0.0173  0.0297
19206W        W20070  17.599  21.052   4.530 -0.2651 -0.2316  0.2007
19207W        W20071  16.270  18.112   6.306 -0.1889  0.0505  0.0809
19208W        W20072  16.561  22.807   8.620  0.0200  0.0609 -0.3364
19209W        W20073  16.681  20.618   7.370  0.1080  0.1579 -0.1492
19210W        W20074  16.606  23.539   7.436 -0.1206  0.0025  0.1383
19211W        W20075  17.294  24.329   1.783 -0.0271 -0.0937  0.0758
19212W        W20076  15.022  21.540   6.975 -0.3191  0.0505  0.3722
19213W        W20077  17.280  22.082   7.107 -0.1212  0.0988  0.1832
19214W        W20078  17.585  22.179   2.552 -0.0217 -0.1010  0.1749
19215W        W20079  18.608  20.919   8.851  0.0911 -0.3974  0.3156
19216W        W20080  18.368  14.559   8.382  0.2159 -0.0669  0.1268
19217W        W20081  11.664  20.025   6.135  0.0262  0.1968  0.2271
19218W        W20082  18.589  20.356   1.020 -0.1581  0.2182 -0.1913
19219W        W20083  13.773  16.846   5.627 -0.0005 -0.4835  0.0815
19220W        W20084  16.117  19.763   7.166  0.0167 -0.1484 -0.0384
19221W        W20085  19.570  19.558   4.923 -0.0357 -0.0740  0.0991
19222W        W20086  18.610  20.018   7.594 -0.0669  0.0818 -0.2875
19223W        W20087  16.391  20.533   8.381 -0.3297 -0.0976 -0.1257
19224W        W20088  17.370  20.540   5.543  0.0081 -0.2805 -0.1018
19225W        W20089  18.205  19.976   6.649 -0.1312 -0.1950 -0.2052
19226W        W20090  16.709  22.302   8.002 -0.0006  0.1016  0.1004
19227W        W20091  18.681  20.349   6.576 -0.0445  0.3052  0.2827
19228W        W20092  18.031  19.387   5.326  0.3121  0.0548  0.0962
19229W        W20093  17.191  18.645   6.999  0.1090 -0.1740  0.0161
19230W        W20094  14.500  20.097   6.386  0.1210 -0.0875  0.3116
19231W        W20095  13.788  21.125   5.894  0.0179 -0.1641 -0.0792
19232W        W20096  16.349  20.197   7.330  0.2502  0.2689  0.1857
19233W        W20097  15.832  19.224   3.514 -0.0190 -0.0038  0.0266
19234W        W20098  16.508  19.765   4.444 -0.1249 -0.0291  0.2814
19235W        W20099  17.016  22.279   7.610  0.0516  0.0531  0.1124
19236W        W20100  15.005  19.952   4.630  0.1594  0.3137 -0.0920
19237W        W20101  12.506  18.733   5.629  0.1273 -0.0914  0.0439
19238W        W20102  16.934  22.416   4.798  0.1635  0.1924  0.1409
19239W        W20103  16.183  16.180   4.826 -0.0822 -0.2269  0.2077
19240W        W20104  18.279  20.474   5.444 -0.0074  0.1579  0.1467
19241W        W20105  18.991  19.704   1.480  0.2674 -0.0957  0.0072
19242W        W20106  16.196  18.565   4.323 -0.2143 -0.2408  0.3877
19243W        W20107  17.046  22.191   4.405 -0.1420 -0.1716  0.2182
19244W        W20108  15.372  21.448   4.814 -0.6014 -0.1651  0.0546
19245W        W20109  16.337  16.274   5.287 -0.0476 -0.2057  0.1013
19246W        W20110  14.593  21.640   6.593 -0.2657 -0.3569 -0.2140
19247W        W20111  15.151  22.681   7.689 -0.2190 -0.4543 -0.2492
19248W        W20112  13.458  19.005   5.616 -0.0157  0.0275 -0.3086
19249W        W20113  17.044  19.240   7.695 -0.0131 -0.0872  0.4393
19250W        W20114  17.601  18.816   5.662 -0.0041  0.0682 -0.2318
19251W        W20115  20.608  20.040   5.488  0.0133  0.0573  0.2697
19252W        W20116  14.776  22.236   7.410  0.0683  0.1890  0.1168
19253W        W20117  17.144  18.010   5.034  0.2651  0.1166 -0.0096
19254W        W20118  15.677  21.649   6.843  0.1402  0.0955 -0.0776
19255W        W20119  15.116  21.446   5.713  0.1307 -0.1671 -0.3419
19256W        W20120  19.405  18.515   5.124 -0.1822 -0.3602 -0.1703
19257W        W20121  18.160  19.802   2.800  0.0036 -0.0144 -0.1945
19258W        W20122  17.103  15.587   6.564 -0.1238  0.0681  0.2620
19259W        W20123  17.918  17.724   1.440  0.0601 -0.1335 -0.0512
19260W        W20124  14.587  19.782   5.959  0.5081  0.2226  0.1422
19261W        W20125  17.780  17.815   5.519 -0.2805 -0.2311 -0.3247
19262W        W20126  16.435  20.344   6.829 -0.6796 -0.1476 -0.0983
19263W        W20127  17.806  18.597   5.243  0.2770  0.0951 -0.3897
19264W        W20128  19.118  22.064   5.343 -0.0494 -0.2774 -0.1603
19265W        W20129  15.039  19.167   9.042  0.3135 -0.1409 -0.3050
19266W        W20130  16.602  18.299   7.385 -0.0998 -0.1712  0.3627
19267W        W20131  18.359  17.359   4.913 -0.0890 -0.4525 -0.1083
19268W        W20132  19.346  20.827   8.218  0.2889 -0.0954 -0.1595
19269W        W20133  16.228  19.936   6.620  0.0989  0.0056 -0.0127
19270W        W20134  19.606  18.198   5.434 -0.1501  0.0269  0.0446
19271W        W20135  15.165  20.232   7.223  0.2277 -0.2181  0.2486
19272W        W20136  14.298  20.772   4.713 -0.1851 -0.1593 -0.1689
19273W        W20137  18.253  19.976   5.582  0.1065  0.2287 -0.2142
19274W        W20138  18.541  22.476   4.430  0.1498  0.2964  0.0158
19275W        W20139  19.188  20.792   5.161  0.0172  0.0957 -0.3634
19276W        W20140  16.371  22.643   3.735  0.0913 -0.0143  0.0140
19277W        W20141  16.050  19.084   7.229  0.2973 -0.0830 -0.1859
19278W        W20142  16.494  22.959   6.138  0.0021  0.0463  0.2051
19279W        W20143  15.960  19.481   9.531  0.1246 -0.0425 -0.0063
19280W        W20144  16.280  19.166   9.779 -0.1527 -0.2722 -0.1738
19281W        W20145  14.122  21.319   2.629 -0.0999  0.0647 -0.1665
19282W        W20146  20.971  20.556   6.622  0.0690 -0.1472 -0.1244
19283W        W20147  18.212  19.634   7.287  0.1295 -0.2131 -0.0629
19284W        W20148  14.229  23.532   6.709  0.1215  0.1595  0.0521
19285W        W20149  17.286  17.020   9.783 -0.0051  0.3057  0.3696
19286W        W20150  16.723  22.028   2.576 -0.2547  0.1709  0.0444
19287W        W20151  15.994  21.294   6.793  0.1867  0.2479 -0.1160
19288W        W20152  15.172  20.871   7.004 -0.1170  0.0348 -0.0885
19289W        W20153  14.896  21.303   2.209  0.0237  0.3021 -0.0501
19290W        W20154  16.141  19.127  10.215  0.2283 -0.2147  0.0569
19291W        W20155  17.192  20.530   7.173  0.0076 -0.1158  0.0391
19292W        W20156  18.660  22.193   5.378  0.2440  0.3714  0.2265
19293W        W20157  17.867  22.228   9.755 -0.0510 -0.1592 -0.1226
19294W        W20158  15.266  23.805   8.427 -0.1150  0.2284 -0.3146
19295W        W20159  15.669  19.251  10.360  0.0389 -0.1406  0.1096
19296W        W20160  16.503  16.703   7.964  0.0952  0.3472  0.1250
19297W        W20161  16.801  19.980   9.514  0.0154  0.0568 -0.2658
19298W        W20162  13.652  20.818  10.463  0.1775 -0.2061  0.0205
19299W        W20163  15.130  19.356  11.726 -0.0975 -0.0385 -0.0709
19300W        W20164  14.166  17.907  10.547  0.2164 -0.2058  0.0262
19301W        W20165  14.894  17.370   8.743  0.1544  0.0087 -0.1868
19302W        W20166  17.805  19.111   6.797 -0.0410 -0.0715  0.1651
19303W        W20167  18.753  20.939  10.851  0.0661  0.1789 -0.1333
19304W        W20168  14.416  19.174  11.928  0.2443 -0.3208 -0.2104
19305W        W20169  15.737  20.416  12.522 -0.3283  0.0935  0.0841
19306W        W20170  16.696  19.354   6.702 -0.0729  0.0622 -0.3652
19307W        W20171  15.309  16.803   9.234  0.0058  0.2264  0.0227
19308W        W20172  14.212  19.609   9.980 -0.2671 -0.0865  0.1049
19309W        W20173  16.591  19.842   8.902 -0.0858  0.5689 -0.3991
19310W        W20174  19.559  21.181   8.827  0.1450 -0.0400 -0.0805
19311W        W20175  18.631  20.120  11.685 -0.0154  0.1757 -0.1040
19312W        W20176  16.365  23.781   7.834 -0.1706 -0.2267  0.1623
19313W        W20177  14.318  22.400   8.448 -0.1355  0.0663 -0.0229
19314W        W20178  17.289  20.013   9.610  0.1552  0.3160  0.0472
19315W        W20179  14.252  19.184  10.246 -0.0107 -0.0139 -0.1762
19316W        W20180  19.334  17.981  10.958  0.1665 -0.1349  0.1321
19317W        W20181  15.221  22.328   6.513  0.4471  0.4688  0.1448
19318W        W20182  17.815  23.441   8.228  0.0705  0.2416 -0.0397
19319W        W20183  14.680  20.652   8.531  0.0165  0.1954 -0.1839
19320W        W20184  14.658  19.792   7.951  0.0513 -0.0129  0.1174
19321W        W20185  17.029  19.714   8.277  0.2859 -0.2069 -0.2414
19322W        W20186  15.102  19.956  12.084 -0.1509  0.2082  0.0904
19323W        W20187  17.141  21.008  11.141  0.1506 -0.1609 -0.1550
19324W        W20188  13.084  18.323  13.639  0.1316 -0.1209  0.0025
19325W        W20189  16.668  20.914  13.934  0.0863  0.0832  0.1514
19326W        W20190  15.316  19.498   8.767  0.1956 -0.1620 -0.0619
19327W        W20191  16.190  20.209   8.787 -0.0696  0.0753 -0.0644
19328W        W20192  18.782  24.644   8.374  0.3028 -0.4593 -0.1745
19329W        W20193  16.785  19.645  10.414 -0.0664 -0.0409 -0.0745
19330W        W20194  20.995  19.050   7.944  0.5208 -0.1459  0.1021
19331W        W20195  18.977  20.376   8.776 -0.0884 -0.2122 -0.1747
19332W        W20196  17.441  23.455  12.713 -0.2091 -0.0571  0.1348
19333W        W20197  17.484  18.964   8.221 -0.1635  0.0078  0.2510
19334W        W20198  15.141  22.794   6.676 -0.1276  0.1034 -0.2446
19335W        W20199  15.157  24.269   8.644  0.0115  0.1396 -0.0958
19336W        W20200  14.289  21.116   9.724  0.1987  0.1343  0.1549
19337W        W20201  17.999  17.737  12.409  0.0294 -0.3764  0.6637
19338W        W20202  16.398  21.169   8.698 -0.4292  0.1797 -0.2814
19339W        W20203  17.803  18.769  11.219  0.0441  0.2961  0.0874
19340W        W20204  14.942  20.789   6.516  0.0242 -0.1847  0.2607
19341W        W20205  14.318  16.677  10.698  0.2959 -0.3631 -0.0164
19342W        W20206  18.237  22.539   8.471  0.1498 -0.0785  0.0607
19343W        W20207  17.969  21.628   8.458  0.0773  0.3163 -0.0112
19344W        W20208  15.694  19.445   9.083  0.0030 -0.0227  0.1460
19345W        W20209  14.279  22.759   8.079 -0.0355 -0.0921 -0.1567
19346W        W20210  16.509  18.338   9.941  0.1067 -0.0221  0.1272
19347W        W20211  16.867  21.242  10.792  0.0367  0.4701 -0.1734
19348W        W20212  17.281  20.464   8.376 -0.1631  0.3486  0.1330
19349W        W20213  18.130  23.573   7.333 -0.2176  0.0665  0.0653
19350W        W20214  15.267  19.201   6.925 -0.0075  0.1898  0.0870
19351W        W20215  13.397  18.518  10.230 -0.1351 -0.0148  0.1709
19352W        W20216  14.887  22.314  11.087 -0.1108 -0.0417  0.0724
19353W        W20217  15.476  17.784   8.047  0.3640  0.1942  0.0659
19354W        W20218  17.380  19.797  11.652  0.0203 -0.1486 -0.1468
19355W        W20219  19.153  16.463   7.687  0.0995 -0.0575  0.1290
19356W        W20220  15.909  19.500   7.523  0.1198  0.1006  0.2086
19357W        W20221  13.274  19.818   5.776  0.2085  0.2300  0.5079
19358W        W20222  14.790  23.029   7.955 -0.1613 -0.0257  0.0854
19359W        W20223  14.285  20.342   5.958  0.2782  0.0672 -0.0145
19360W        W20224  17.043  20.439   9.731  0.0761  0.2396  0.0763
19361W        W20225  18.266  16.400   7.474  0.1610  0.0419  0.0795
19362W        W20226  19.100  21.696   7.707 -0.1662 -0.0040  0.4396
19363W        W20227  17.443  20.362  10.053 -0.0212  0.0108 -0.2234
19364W        W20228  18.721  21.514   6.819 -0.3944 -0.1350  0.2803
19365W        W20229  15.455  19.711   7.516  0.0212 -0.0946 -0.0734
19366W        W20230  15.480  20.974   7.989  0.0285  0.3217  0.0650
19367W        W20231  16.458  20.270   9.198 -0.2122 -0.2747  0.0146
19368W        W20232  17.072  18.997   9.223 -0.3232 -0.2696 -0.1215
19369W        W20233  17.822  21.725   9.587 -0.2070 -0.2725 -0.1473
19370W        W20234  14.302  17.559  10.879  0.0511 -0.3221 -0.0853
19371W        W20235  16.045  21.665  11.164  0.1270 -0.0386  0.0545
19372W        W20236  15.487  18.899   8.229  0.6032 -0.1854  0.1953
19373W        W20237  17.189  17.299  11.069  0.1465 -0.3537 -0.0066
19374W        W20238  17.337  20.415  10.543  0.2978  0.1594 -0.0663
19375W        W20239  15.243  19.299  10.096  0.0483  0.0351  0.1628
19376W        W20240  16.717  23.687  13.153  0.2608 -0.2263  0.2230
19377W        W20241  19.098  16.760   8.072 -0.0767  0.1856  0.0396
19378W        W20242  18.464  23.124  12.663  0.0769 -0.1302  0.1785
19379W        W20243  16.955  21.243  11.536 -0.0246 -0.0043  0.1693
19380W        W20244  17.505  19.291  10.014 -0.0932  0.2670 -0.0807
19381W        W20245  18.730  20.741  11.330 -0.0856 -0.0608 -0.1409
19382W        W20246  13.993  20.075   9.869  0.0037  0.1573  0.0477
19383W        W20247  14.568  17.582   5.989 -0.0728 -0.4902  0.1825
19384W        W20248  12.840  19.043   7.845 -0.3333  0.2354  0.0887
19385W        W20249  18.666  19.976   9.095 -0.1195  0.0380  0.1007
19386W        W20250  17.824  20.558  10.332  0.1200  0.2164  0.0666
19387W        W20251  16.449  19.154  13.323 -0.1384 -0.0611  0.3831
19388W        W20252  16.108  18.593   7.122 -0.0399  0.2027 -0.0611
19389W        W20253  16.931  17.456   9.676  0.2615 -0.1061  0.0199
19390W        W20254  19.386  19.755   8.180 -0.2161 -0.7040 -0.2615
19391W        W20255  17.054  21.757   9.077  0.2498  0.4049 -0.0206
19392W        W20256  16.419  18.937   6.788  0.1872  0.1928 -0.1377
19393W        W20257  15.878  21.166   8.381 -0.0170  0.0658 -0.0751
19394W        W20258  17.434  20.306  11.411  0.1452  0.3508 -0.1600
19395W        W20259  16.910  19.328  10.818  0.1654 -0.0136 -0.0983
19396W        W20260  18.848  20.648   8.090 -0.0790 -0.2337  0.3065
19397W        W20261  17.838  22.825  12.307  0.0975 -0.2229  0.2650
19398W        W20262  15.220  19.990   8.699  0.4679 -0.1785 -0.1574
19399W        W20263  15.917  20.105  10.034 -0.0515  0.1967 -0.4196
19400W        W20264  12.592  20.430   9.375 -0.0457  0.0225  0.2485
19401W        W20265  12.409  22.436   8.160 -0.0982  0.2917  0.1126
19402W        W20266  18.567  18.739   8.884 -0.1162  0.0411 -0.2694
19403W        W20267  18.715  22.007   7.580  0.1400 -0.0051  0.1090
19404W        W20268  15.387  20.267   8.264  0.0223  0.3028  0.0470
19405W        W20269  18.201  21.165   8.536  0.2765 -0.0588 -0.0785
19406W        W20270  18.582  19.004  10.207 -0.2460  0.0079 -0.0974
19407W        W20271  15.997  21.092   9.691 -0.2617  0.0342 -0.2192
19408W        W20272  18.227  18.631  11.399 -0.1672 -0.0383  0.0084
19409W        W20273  16.025  20.762   8.768  0.1293 -0.0412  0.1553
19410W        W20274  17.859  19.251   9.636 -0.0356  0.1190 -0.0221
19411W        W20275  17.378  20.610   6.659  0.2634 -0.1216  0.0297
19412W        W20276  18.152  21.570   7.985 -0.0357 -0.0388  0.1462
19413W        W20277  14.185  20.257   9.345  0.1666 -0.1299 -0.1072
19414W        W20278  17.703  17.496   9.891 -0.2374 -0.1801  0.2409
19415W        W20279  16.567  21.744  10.305 -0.1593 -0.0184  0.0272
19416W        W20280  17.727  18.850  10.094 -0.3058  0.0362 -0.0777
19417W        W20281  17.744  18.735   7.298  0.0069  0.1543  0.0487
19418W        W20282  16.918  23.037   8.197  0.1322 -0.5396  0.2070
19419W        W20283  16.731  21.288  11.953 -0.0678 -0.1206 -0.0610
19420W        W20284  18.665  21.569  11.821 -0.0999  0.1469  0.4656
19421W        W20285  18.625  21.153  12.129  0.4187  0.1834 -0.0947
19422W        W20286  16.632  20.809  11.748 -0.0715  0.0585  0.0638
19423W        W20287  15.733  20.039   7.938  0.1694  0.0951  0.0834
19424W        W20288  17.487  20.992  11.525  0.1865 -0.0915 -0.0655
19425W        W20289  14.969  16.049   8.143 -0.0319  0.0847 -0.2804
19426W        W20290  16.492  20.294  10.898 -0.1456 -0.1616  0.1152
19427W        W20291  16.010  17.696  12.211 -0.0476 -0.0396  0.1236
19428W        W20292  14.090  22.822   8.754  0.1747  0.1698 -0.0580
19429W        W20293  17.624  22.137   6.312 -0.0521 -0.2385  0.0984
19430W        W20294  16.834  18.525  10.350 -0.1975  0.1194 -0.0446
19431W        W20295  18.236  17.716  11.967  0.1192 -0.1240  0.0219
19432W        W20296  13.987  22.902   7.592 -0.2186  0.1279  0.0210
19433W        W20297  17.618  19.678   7.772 -0.1385  0.1412  0.0266
19434W        W20298  15.600  21.743  10.580  0.0677  0.0728 -0.0467
19435W        W20299  17.829  19.180  10.959 -0.1180  0.1226 -0.0435
19436W        W20300  19.354  18.299   9.929  0.0912 -0.0323 -0.1003
19437W        W20301  19.427  19.928   7.094 -0.1170  0.0768  0.0482
19438W        W20302  17.446  22.061  11.066 -0.0095 -0.0333  0.2023
19439W        W20303  18.561  18.557   9.933 -0.0236  0.3208 -0.0401
19440W        W20304  20.507  22.280   7.773  0.1176 -0.1634  0.3342
19441W        W20305  13.090  17.302   7.304 -0.2379  0.3131  0.0016
19442W        W20306  16.142  20.660  10.058  0.1479 -0.1207 -0.0746
19443W        W20307  15.912  18.170   7.724 -0.2614  0.0499 -0.0034
19444W        W20308  14.939  20.929   8.865  0.0769  0.1151  0.0387
19445W        W20309  19.186  15.237  12.165 -0.0561 -0.0893 -0.1767
19446W        W20310  12.647  22.967  12.557  0.2050  0.0656  0.0187
19447W        W20311  18.821  19.738  10.762 -0.0008  0.1136 -0.2075
19448W        W20312  17.957  18.742   8.896 -0.0740 -0.0185 -0.0332
19449W        W20313  16.902  19.456   8.710  0.0006  0.1252  0.0251
19450W        W20314  16.408  19.912  11.440  0.3153  0.1030 -0.0843
19451W        W20315  15.744  18.608   8.595 -0.1295 -0.0162 -0.0806
19452W        W20316  16.902  21.222  12.977  0.2688  0.2347 -0.0896
19453W        W20317  18.299  19.490  10.811  0.0597  0.1645 -0.0331
19454W        W20318  14.634  20.918   9.340 -0.3457  0.0703  0.4447
19455W        W20319  14.472  22.085  11.267 -0.0281 -0.0317 -0.4411
19456W        W20320  16.516  16.314   6.932  0.1825 -0.2370  0.0159
19457W        W20321  13.337  21.730   8.200 -0.0771  0.3000 -0.2179
19458W        W20322  17.137  20.889   7.682  0.1626  0.1427 -0.0920
19459W        W20323  14.336  20.832   6.614 -0.0494 -0.0911 -0.2686
19460W        W20324  14.980  17.851  12.356 -0.3696  0.1378  0.0278
19461W        W20325  16.344  19.286   7.693  0.2259 -0.1330  0.0145
19462W        W20326  16.413  20.771   9.621 -0.0103 -0.1718 -0.0243
19463W        W20327  18.527  20.483   8.511 -0.0009 -0.0672  0.0267
19464W        W20328  14.541  19.188   8.762  0.0382  0.2798 -0.0590
19465W        W20329  18.921  21.779   8.534  0.2872  0.0213  0.0278
19466W        W20330  17.760  20.293   9.058  0.0759 -0.2455 -0.4393
19467W        W20331  16.220  21.242  10.950 -0.0387 -0.4801 -0.1358
19468W        W20332  13.366  19.929   8.274  0.1980 -0.0868 -0.0302
19469W        W20333  17.127  18.810  10.026  0.1802  0.0380  0.1969
19470W        W20334  14.140  19.466   7.238 -0.0728 -0.0734  0.5672
19471W        W20335  18.974  21.788   7.194 -0.0858  0.0932 -0.0791
19472W        W20336  15.810  18.632   6.308  0.0718 -0.0698  0.1484
19473W        W20337  15.128  17.737   9.697 -0.0510  0.0152 -0.1435
19474W        W20338  18.280  17.308  10.997 -0.0125  0.2690  0.1068
19475W        W20339  16.104  22.588   7.743  0.0846  0.1711 -0.2345
19476W        W20340  17.328  16.880   8.549 -0.0980  0.0689  0.1672
19477W        W20341  17.089  17.503   5.440  0.1167 -0.1526 -0.1263
19478W        W20342  16.573  18.489   8.190 -0.0192  0.3143 -0.1134
19479W        W20343  15.619  19.671  10.124 -0.1119  0.0089  0.2151
19480W        W20344  16.296  24.027   9.068  0.0058  0.0124  0.0755
19481W        W20345  15.022  24.156   7.537  0.0118 -0.3780  0.1081
19482W        W20346  15.074  19.911  10.866 -0.1639 -0.1873 -0.3838
19483W        W20347  13.329  19.331   8.274  0.0594  0.1124  0.0089
19484W        W20348  16.561  18.241   8.846 -0.1645  0.1973  0.0819
19485W        W20349  17.341  17.762   9.715  0.0258  0.0264 -0.2174
19486W        W20350  16.274  17.390   9.119 -0.0515 -0.0920  0.2940
19487W        W20351  14.904  20.831  11.076  0.0858 -0.0406  0.2655
19488W        W20352  17.365  20.185  13.051 -0.0609 -0.1796 -0.0282
19489W        W20353  15.811  19.862  11.424 -0.1191  0.2130 -0.3966
19490W        W20354  14.375  17.220   5.074  0.0044  0.0340 -0.1239
19491W        W20355  15.791  16.359  12.416 -0.1852 -0.3727  0.0265
19492W        W20356  17.055  18.187   7.213 -0.2590 -0.3306  0.2500
19493W        W20357  14.504  18.307   9.049  0.3233  0.1158 -0.1987
19494W        W20358  16.616  20.367  10.393 -0.1943 -0.0876 -0.0514
19495W        W20359  14.695  18.441   6.003 -0.0722  0.0358 -0.0427
19496W        W20360  12.476  20.546  11.196  0.0259  0.0469  0.3146
19497W        W20361  17.181  19.028   8.717  0.1499  0.0071 -0.2671
19498W        W20362  15.651  21.676   7.503 -0.0773  0.0143 -0.0889
19499W        W20363  11.945  20.874   7.396 -0.2035  0.0173  0.1044
19500W        W20364  16.107  21.552   9.450  0.0196  0.2845 -0.3773
19501W        W20365  17.415  19.859   8.742 -0.1875  0.0055 -0.0863
19502W        W20366  17.067  18.853  10.626 -0.2973  0.1248 -0.0216
19503W        W20367  16.550  20.357   9.875  0.1178 -0.0522  0.2856
19504W        W20368  17.369  21.006   9.580  0.2558  0.2249  0.2076
19505W        W20369  19.844  17.636   4.645 -0.1403  0.0076 -0.5169
19506W        W20370  13.740  20.639   7.411  0.3401  0.1346 -0.2737
19507W        W20371  19.042  22.381   8.693 -0.0561 -0.2125  0.3568
19508W        W20372  19.847  20.595   9.387 -0.0913 -0.2721 -0.1688
19509W        W20373  15.123  20.734   9.728 -0.1666 -0.3366  0.1501
19510W        W20374  15.727  19.326  10.845  0.0270  0.0079 -0.3376
19511W        W20375  16.211  16.498   8.335 -0.0789 -0.1151 -0.1266
19512W        W20376  19.080  22.376  12.034  0.2339 -0.0511  0.2867
19513W        W20377  16.417  17.298  11.542 -0.2363  0.1246  0.2044
19514W        W20378  20.150  21.546   4.603 -0.0486  0.0946  0.0477
19515W        W20379  16.403  18.983  11.479  0.0471  0.1524 -0.0250
19516W        W20380  16.866  20.481  12.227 -0.3129 -0.1458 -0.2250
19517W        W20381  19.976  20.883  11.006  0.1241  0.0608 -0.0022
19518W        W20382  17.831  20.738   5.506  0.2005 -0.0302 -0.1368
19519W        W20383  18.269  20.530  10.958  0.2594 -0.0621  0.0894
19520W        W20384  16.005  17.797   8.640  0.0308  0.1166  0.2755
19521W        W20385  15.441  21.190   8.779 -0.1604 -0.1034 -0.0786
19522W        W20386  16.752  20.672   7.977  0.1646 -0.0702 -0.3544
19523W        W20387  16.635  18.950   7.850 -0.1999  0.1101 -0.2665
19524W        W20388  17.813  20.180   9.666  0.0973 -0.0654 -0.1391
19525W        W20389  15.896  21.142  10.136  0.1788  0.1859  0.2671
19526W        W20390  19.908  18.932   9.683  0.0648 -0.0821 -0.0078
19527W        W20391  16.298  18.614  10.357  0.1197  0.0225  0.2845
19528W        W20392  16.478  22.092   9.893 -0.1324  0.2433  0.0623
19529W        W20393  16.921  21.854   9.671 -0.0450  0.0524  0.1124
19530W        W20394  17.403  20.488   9.385  0.0597 -0.1702 -0.0610
19531W        W20395  13.877  21.158  12.541  0.0127 -0.3726  0.1593
19532W        W20396  14.702  20.396   9.588  0.1668  0.2889  0.1005
19533W        W20397  18.656  19.477  10.376  0.0671 -0.0236 -0.1418
19534W        W20398  16.208  19.905   9.615  0.3380  0.3661 -0.0067
19535W        W20399  15.279  21.383   7.780 -0.0349  0.0584 -0.4338
19536W        W20400  18.884  22.702   8.281  0.1115  0.2678  0.1169
19537W        W20401  14.909  23.937   8.894  0.0012 -0.0449  0.3914
19538W        W20402  17.446  19.612   6.086 -0.0076 -0.1355  0.0145
19539W        W20403  14.095  17.221   8.082  0.1527 -0.1682  0.0506
19540W        W20404  17.767  21.223   7.891  0.1605  0.3182 -0.0086
19541W        W20405  15.648  22.418   9.942 -0.0346 -0.3301  0.1379
19542W        W20406  16.080  22.987   9.880  0.0650 -0.1610  0.4727
19543W        W20407  17.735  19.456  10.429 -0.0094  0.0470 -0.2239
19544W        W20408  14.862  17.868   5.456 -0.2678  0.1628  0.4361
19545W        W20409  18.070  20.538   6.442  0.0153 -0.2714 -0.1493
19546W        W20410  17.036  20.149  10.204 -0.0547  0.0156  0.0486
19547W        W20411  16.692  19.311  10.099  0.3657 -0.0080 -0.2478
19548W        W20412  16.661  21.949   8.824  0.2638 -0.0185  0.2913
19549W        W20413  17.453  20.061  10.926 -0.3566 -0.0059  0.1038
19550W        W20414  14.431  17.757   6.658  0.0673  0.3289 -0.0657
19551W        W20415  15.663  19.924   8.892 -0.1220 -0.0562  0.5039
19552W        W20416  16.398  21.100   9.988 -0.1491  0.1057 -0.0663
19553W        W20417  17.187  20.505  10.993 -0.2794  0.1982  0.0699
19554W        W20418  15.093  22.729   8.251  0.1209  0.3739 -0.0316
19555W        W20419  14.045  23.647  10.928 -0.1677 -0.0343  0.0020
19556W        W20420  15.169  22.373   7.083 -0.0818  0.0994 -0.0865
19557W        W20421  20.251  21.002  10.141 -0.2782 -0.1874  0.0429
19558W        W20422  13.123  18.977   9.517  0.2158  0.0110 -0.0341
19559W        W20423  19.235  17.450  11.493 -0.2328  0.1771  0.3197
19560W        W20424  16.040  19.387   6.768  0.0754 -0.3661  0.1866
19561W        W20425  17.475  17.767  12.757 -0.2219  0.2568 -0.0115
19562W        W20426  18.101  18.176  11.643 -0.1806  0.1725  0.0670
19563W        W20427  15.644  22.259   8.050  0.4092  0.1403 -0.4208
19564W        W20428  15.546  22.137   8.899 -0.0148 -0.1957 -0.2037
19565W        W20429  14.714  23.160  10.654  0.0024 -0.1729  0.3396
19566W        W20430  15.594  19.437  12.707 -0.0174  0.1038 -0.0487
19567W        W20431  14.469  20.710   8.938  0.4824 -0.0777  0.0851
19568W        W20432  15.595  18.589   9.110  0.0665 -0.2579 -0.1426
19569W        W20433  14.512  22.618  11.798 -0.1422 -0.3255  0.3762
19570W        W20434  15.800  20.885  10.584 -0.0833 -0.1911 -0.0419
19571W        W20435  18.765  17.447   7.617 -0.0032  0.1010  0.1609
19572W        W20436  15.466  21.338   7.182 -0.1468 -0.3729 -0.1168
19573W        W20437  16.068  21.853   9.031  0.2190  0.0834 -0.1263
19574W        W20438  16.050  17.462   9.530 -0.1863  0.0089  0.1127
19575W        W20439  16.881  17.608  11.343 -0.3563 -0.1636  0.1965
19576W        W20440  19.435  22.149  10.325  0.2135  0.0269  0.2653
19577W        W20441  15.839  20.899  12.833 -0.0523 -0.0221 -0.0745
19578W        W20442  17.628  16.157   9.358 -0.2001  0.0870  0.0938
19579W        W20443  17.084  20.450   6.078  0.1070 -0.1588 -0.0838
19580W        W20444  14.888  18.999   9.902 -0.0745 -0.0189 -0.1653
19581W        W20445  19.414  18.818  11.326 -0.0853 -0.1754  0.2670
19582W        W20446  17.536  19.031  10.529 -0.2787 -0.3814  0.3473
19583W        W20447  15.547  15.630   9.746  0.1255  0.0503  0.1344
19584W        W20448  14.065  20.231   7.278  0.0012 -0.1762 -0.1736
19585W        W20449  18.989  19.022   9.826 -0.1145  0.0651 -0.1758
19586W        W20450  14.665  18.178  11.544  0.2011 -0.0715 -0.2169
19587W        W20451  18.661  21.448   7.412 -0.0914 -0.0955  0.2087
19588W        W20452  17.110  18.068  11.198 -0.2459 -0.0719 -0.1376
19589W        W20453  15.456  22.019  11.032  0.1670  0.0392 -0.1382
19590W        W20454  16.979  19.844   6.073  0.3398  0.1328  0.1192
19591W        W20455  17.107  19.665  11.174  0.3004  0.0293 -0.2163
19592W        W20456  13.317  21.012  11.441 -0.0982  0.3804  0.1448
19593W        W20457  18.614  19.018  10.694 -0.0683 -0.2049  0.1631
19594W        W20458  17.688  19.161   8.681 -0.0848 -0.2384  0.1357
19595W        W20459  18.159  23.247   6.002 -0.1504 -0.0667 -0.0925
19596W        W20460  18.133  19.122  10.545  0.1318  0.1265 -0.1825
19597W        W20461  15.215  18.686   5.474 -0.0619  0.1153 -0.1055
19598W        W20462  16.302  17.077   7.648 -0.0538  0.1665 -0.1745
19599W        W20463  14.670  20.278   7.368 -0.0487  0.0042 -0.1165
19600W        W20464  17.387  16.700   8.990 -0.1639  0.1998 -0.0284
19601W        W20465  15.704  23.620   8.496  0.2178 -0.3036 -0.0791
19602W        W20466  15.882  22.320   9.243 -0.0770 -0.1351  0.1316
19603W        W20467  16.453  22.353   8.408 -0.1255 -0.1528 -0.2240
19604W        W20468  15.904  22.379  14.460 -0.0523  0.1209  0.0726
19605W        W20469  16.268  21.783  10.708 -0.1988  0.0498  0.1143
19606W        W20470  14.707  16.175   7.429 -0.0975  0.1610 -0.0145
19607W        W20471  14.224  18.095   9.866  0.1958  0.3000 -0.0045
19608W        W20472  17.281  19.794  10.478  0.0308 -0.0361  0.1923
19609W        W20473  17.468  17.576   8.160 -0.1541  0.0723  0.1971
19610W        W20474  14.625  20.021  10.595 -0.3714 -0.1886 -0.2083
19611W        W20475  18.180  24.258   6.717  0.0544  0.1316  0.1482
19612W        W20476  14.578  22.124   9.265 -0.3327  0.1015  0.1269
19613W        W20477  15.293  18.124   9.960 -0.0801  0.2529  0.0619
19614W        W20478  15.741  21.675  10.077  0.1589  0.0046  0.0299
19615W        W20479  18.471  18.593   8.004  0.1094  0.0396 -0.0999
19616W        W20480  17.313  19.455   9.585  0.1023 -0.3217  0.0250
19617W        W20481  13.941  21.701   6.456 -0.0770  0.1135  0.2163
19618W        W20482  15.728  20.946   7.006 -0.2504  0.0464  0.0858
19619W        W20483  14.591  20.600   6.219 -0.3405  0.1484 -0.0292
19620W        W20484  14.856  21.217   9.757 -0.0232 -0.2007  0.0388
19621W        W20485  19.353  17.206   8.303  0.4220  0.0725 -0.2265
19622W        W20486  18.849  19.969   9.655 -0.0377 -0.3415  0.1916
19623W        W20487  17.224  20.242  13.550 -0.0635  0.1630 -0.2149
19624W        W20488  15.973  21.240   8.921  0.2499  0.2052  0.2881
19625W        W20489  18.950  20.973  11.747 -0.2619 -0.3922 -0.2435
19626W        W20490  13.611  24.053   7.832  0.0164 -0.0813 -0.0078
19627W        W20491  15.648  19.800   8.446  0.0495  0.0267  0.0160
19628W        W20492  16.472  21.340  10.538  0.0964  0.2012  0.1704
19629W        W20493  16.946  17.752  10.867 -0.1944 -0.0981 -0.1828
19630W        W20494  13.303  16.775   5.460 -0.0259  0.0471 -0.1400
19631W        W20495  15.854  19.563  12.247 -0.0149 -0.0703 -0.0324
19632W        W20496  18.397  19.667   9.351  0.2626  0.0181 -0.0406
19633W        W20497  14.860  22.727   7.291  0.0925  0.1168  0.2300
19634W        W20498  18.651  19.505   7.127  0.0657 -0.2189  0.0400
19635W        W20499  16.166  20.760  10.988 -0.1159  0.1126  0.1780
19636W        W20500  14.405  18.862   5.858 -0.3564  0.0691  0.1915
19637W        W20501  13.978  18.361   9.518  0.0358 -0.2615 -0.2086
19638W        W20502  16.087  20.315  11.236  0.0819 -0.1264 -0.0433
19639W        W20503  14.702  17.979   6.295  0.1045 -0.1184 -0.1475
19640W        W20504  18.195  18.839   9.772 -0.1483 -0.0212  0.0236
19641W        W20505  17.250  22.117  10.617  0.2264  0.0587  0.0917
19642W        W20506  15.997  23.963   8.262 -0.2476  0.4148 -0.0516
19643W        W20507  13.945  22.050  10.378 -0.1931 -0.0506 -0.0615
19644W        W20508  16.632  16.351   7.637 -0.3557  0.0136 -0.0382
19645W        W20509  16.900  20.191   7.388  0.1090 -0.0862  0.1914
19646W        W20510  15.692  21.227  10.900  0.4480 -0.1457 -0.0982
19647W        W20511  14.962  20.636  13.116  0.2507 -0.1943 -0.2680
19648W        W20512  14.924  19.636   8.362  0.3388 -0.2929 -0.0864
19649W        W20513  17.293  23.434   9.032 -0.1873 -0.0686 -0.0621
19650W        W20514  18.661  18.314  12.574 -0.0745  0.2206 -0.0675
19651W        W20515  14.581  18.784   6.309  0.1012 -0.3940 -0.4481
19652W        W20516  17.209  16.331   8.379  0.3744 -0.3174  0.1921
19653W        W20517  17.632  21.768   8.922 -0.0297  0.1013  0.1168
19654W        W20518  15.921  23.590   9.004  0.0888  0.1142 -0.0641
19655W        W20519  15.838  23.891   7.202 -0.1413 -0.1399  0.0030
19656W        W20520  16.530  21.546   9.037 -0.0216 -0.1982  0.2177
19657W        W20521  15.865  20.122  10.855 -0.1072 -0.0375  0.2615
19658W        W20522  16.111  17.771   6.781 -0.1334  0.0604 -0.4965
19659W        W20523  17.361  19.208   6.926  0.2712  0.0231  0.0595
19660W        W20524  18.607  18.354   9.274  0.0084 -0.1368 -0.1057
19661W        W20525  15.849  19.731  10.555 -0.1890  0.0630  0.0729
19662W        W20526  18.293  19.957  12.898  0.0708  0.0098  0.1716
19663W        W20527  17.864  19.995   7.144 -0.2354 -0.1537 -0.0205
19664W        W20528  13.667  21.774  12.435  0.3019  0.4300  0.1902
19665W        W20529  15.766  20.901   7.552 -0.2313 -0.0410 -0.0124
19666W        W20530  16.586  21.726   7.769 -0.1507  0.2010  0.0545
19667W        W20531  15.524  20.493  10.665  0.0796 -0.1203 -0.0747
19668W        W20532  12.037  19.502   7.590 -0.1136 -0.0702 -0.0662
19669W        W20533  17.397  21.229  10.307 -0.1190 -0.0114  0.2365
19670W        W20534  12.402  20.047  11.276 -0.0076 -0.3423  0.0666
19671W        W20535  14.370  20.259   6.823  0.4212  0.2464  0.1136
19672W        W20536  18.051  20.851   7.360  0.1294 -0.0945  0.2446
19673W        W20537  16.761  20.751  10.135  0.1160 -0.0833 -0.5132
19674W        W20538  17.790  20.154  11.731  0.0981 -0.1643  0.0445
19675W        W20539  16.976  24.665   8.673 -0.4141 -0.2974 -0.2550
19676W        W20540  19.785  19.671  11.724  0.1852  0.0338  0.1519
19677W        W20541  15.182  24.222  10.885  0.2462 -0.3157  0.0252
19678W        W20542  16.269  21.617   8.592  0.0537 -0.1323 -0.0874
19679W        W20543  14.999  21.144  10.234 -0.3099  0.1002 -0.0422
19680W        W20544  14.508  20.000  10.037 -0.1300  0.1053 -0.0569
19681W        W20545  18.969  21.398  10.183  0.2218  0.2376  0.0102
19682W        W20546  18.230  19.052   9.227  0.0432 -0.1611 -0.0283
19683W        W20547  16.899  20.586   9.309 -0.0343 -0.1394  0.3217
19684W        W20548  14.056  21.597  10.430  0.0642 -0.0693 -0.0183
19685W        W20549  14.419  20.697   5.216  0.0073 -0.1139 -0.3069
19686W        W20550  18.537  20.848   9.359  0.5011  0.3105  0.2349
19687W        W20551  14.869  21.177   7.933  0.0161  0.1532  0.1455
19688W        W20552  17.204  18.709   7.873  0.1698 -0.2677 -0.0940
19689W        W20553  14.058  19.674  15.030 -0.1264  0.0773  0.2277
19690W        W20554  14.998  19.466  13.848  0.1769 -0.0340  0.2989
19691W        W20555  13.726  19.909  11.090  0.1160  0.1670 -0.1411
19692W        W20556  17.143  23.198  12.438  0.0650  0.0002  0.1195
19693W        W20557  17.509  21.212  14.055 -0.0233 -0.4240 -0.0743
19694W        W20558  14.848  21.300  11.289 -0.1745 -0.2941 -0.0116
19695W        W20559  13.691  18.028  10.528  0.2078 -0.0977  0.2482
19696W        W20560  17.042  19.792  13.652 -0.0443  0.0450  0.0738
19697W        W20561  16.496  21.692  14.724  0.3050  0.2235  0.0423
19698W        W20562  12.177  19.921  14.778 -0.0896  0.1792 -0.1862
19699W        W20563  13.681  19.136  13.336  0.0665  0.3148  0.1628
19700W        W20564  16.679  20.488  13.593  0.1230  0.0006  0.0757
19701W        W20565  14.603  19.857  11.063 -0.1141 -0.1282 -0.1835
19702W        W20566  18.994  19.375  13.592 -0.0214 -0.1437 -0.2533
19703W        W20567  12.998  18.549  15.398 -0.1904  0.2878 -0.0777
19704W        W20568  15.659  21.940  14.050  0.0595  0.2458 -0.0275
19705W        W20569  15.162  20.671  11.481 -0.0787 -0.0871 -0.0730
19706W        W20570  14.440  18.576  12.864 -0.1376 -0.1105  0.1086
19707W        W20571  16.795  19.543  12.176  0.0138 -0.0169 -0.1732
19708W        W20572  18.446  24.033  12.214 -0.1414  0.0271  0.0841
19709W        W20573  20.131  22.344  13.293  0.1517 -0.1351  0.0351
19710W        W20574  16.848  19.672  14.108  0.0543  0.1038  0.0391
19711W        W20575  15.876  25.090  12.964  0.0542  0.0393  0.2270
19712W        W20576  15.354  21.306  15.253 -0.0239 -0.0124  0.0807
19713W        W20577  16.351  23.300  13.120 -0.1262  0.0110 -0.1713
19714W        W20578  15.943  21.728  13.612  0.0390  0.0508  0.1334
19715W        W20579  18.689  20.417  13.606 -0.0754  0.0308 -0.1690
19716W        W20580  16.390  23.011  12.010  0.2167 -0.1453 -0.0757
19717W        W20581  16.949  21.936  12.792  0.1017 -0.1407  0.0939
19718W        W20582  15.028  20.917  11.952 -0.2463  0.3006 -0.0204
19719W        W20583  18.161  21.204  12.597  0.0019 -0.0663 -0.0216
19720W        W20584  17.291  21.468  12.829 -0.1671  0.4228 -0.1480
19721W        W20585  15.770  19.969  14.459  0.2274  0.0607 -0.1987
19722W        W20586  19.381  20.738  14.000  0.3040 -0.2919  0.1289
19723W        W20587  15.007  18.409  14.715 -0.0188 -0.0445 -0.0572
19724W        W20588  21.264  21.764  16.043  0.0528 -0.0144  0.2073
19725W        W20589  17.832  19.540  11.795 -0.0665 -0.0935  0.1853
19726W        W20590  16.318  19.546  12.318 -0.2188 -0.2864  0.0398
19727W        W20591  19.517  19.672  13.154  0.3349 -0.2355 -0.1026
19728W        W20592  16.320  18.219  14.695 -0.1248 -0.2231  0.1523
19729W        W20593  19.203  20.026  10.860  0.0500 -0.1980  0.0636
19730W        W20594  20.890  22.967   9.961  0.3939  0.2133  0.0690
19731W        W20595  15.477  19.064  11.995 -0.0889 -0.2416  0.0318
19732W        W20596  18.529  19.703  14.308  0.2297  0.2535  0.1061
19733W        W20597  17.052  19.909   9.076  0.1567 -0.0192 -0.0654
19734W        W20598  15.674  22.602  13.678  0.0258 -0.0739  0.2275
19735W        W20599  16.025  19.421  13.278 -0.1267  0.3058  0.1212
19736W        W20600  20.004  20.467  13.309 -0.1231 -0.2403 -0.0491
19737W        W20601  19.098  20.798  14.474 -0.0271 -0.5645 -0.0521
19738W        W20602  15.503  19.372  11.310  0.0700  0.2081 -0.2613
19739W        W20603  17.153  18.570  14.482 -0.0806  0.1023 -0.0264
19740W        W20604  16.049  18.561  12.723 -0.1593 -0.1459  0.0274
19741W        W20605  19.191  23.131  14.404  0.0819 -0.2321 -0.1331
19742W        W20606  17.849  22.003  12.094 -0.2034  0.0171  0.0296
19743W        W20607  18.358  17.462  12.685 -0.1590  0.2452 -0.2105
19744W        W20608  17.013  23.015  14.032  0.3019 -0.0347 -0.2316
19745W        W20609  13.685  19.852  12.642 -0.0438  0.1055  0.1896
19746W        W20610  19.565  18.245  14.082 -0.3566  0.1001 -0.0065
19747W        W20611  13.309  20.211  12.429 -0.0828 -0.0236 -0.2099
19748W        W20612  15.477  20.038  10.466 -0.0838 -0.1038 -0.1457
19749W        W20613  16.322  19.006  12.389  0.1931 -0.0459  0.3049
19750W        W20614  17.068  21.638  13.444  0.0630  0.4215 -0.1517
19751W        W20615  19.243  20.823  13.533 -0.1830 -0.1679  0.1828
19752W        W20616  17.562  18.815  14.361  0.0422 -0.0803 -0.2890
19753W        W20617  15.349  18.089  14.843 -0.2610  0.0962  0.1519
19754W        W20618  16.743  18.456  13.781  0.3161  0.1073  0.1610
19755W        W20619  14.952  20.220  11.300 -0.2350  0.1566 -0.0294
19756W        W20620  13.889  20.147  11.560  0.1776  0.0047 -0.0815
19757W        W20621  16.094  20.070  12.255  0.5052  0.0511  0.0145
19758W        W20622  16.225  20.763  13.699  0.0005  0.2302 -0.3976
19759W        W20623  17.699  21.625  14.227  0.2048 -0.2812 -0.0447
19760W        W20624  13.213  20.407  14.788 -0.0945  0.0700 -0.1618
19761W        W20625  17.298  20.785  12.372 -0.1015 -0.0032  0.1775
19762W        W20626  16.902  19.020  13.086  0.0922 -0.1122  0.1033
19763W        W20627  19.237  20.956  11.075 -0.1234 -0.2245 -0.0627
19764W        W20628  18.542  22.397  13.399  0.3963 -0.0286 -0.1501
19765W        W20629  14.004  19.105  10.684  0.3143  0.1379  0.1849
19766W        W20630  14.685  20.516  12.705 -0.0157  0.2279  0.0780
19767W        W20631  19.036  16.462  11.403  0.1524 -0.0118 -0.4230
19768W        W20632  18.763  21.286  11.210  0.0659 -0.1158 -0.0506
19769W        W20633  15.158  19.809  12.909  0.1697  0.0623  0.0380
19770W        W20634  14.989  19.754  13.409  0.1229  0.1935 -0.2113
19771W        W20635  14.148  18.952  13.000  0.0549 -0.1069 -0.0260
19772W        W20636  15.770  18.989  11.566  0.4330 -0.2432 -0.0078
19773W        W20637  16.316  17.792  11.770 -0.0291 -0.1091  0.1068
19774W        W20638  20.158  19.350  12.908  0.1377 -0.1742 -0.0539
19775W        W20639  18.366  18.212  15.894  0.1433  0.2286 -0.2550
19776W        W20640  18.060  19.585  14.422 -0.2791 -0.2326 -0.1201
19777W        W20641  18.783  22.074  15.825  0.1558 -0.1145  0.4332
19778W        W20642  18.444  15.411  14.291 -0.2417  0.4904  0.0989
19779W        W20643  16.621  20.030  12.268 -0.2374 -0.0153 -0.1020
19780W        W20644  17.671  19.892  14.557 -0.0625 -0.0589 -0.1371
19781W        W20645  15.317  22.266  13.843 -0.2712  0.3603  0.1808
19782W        W20646  17.194  19.397  12.870  0.0014 -0.1273 -0.1135
19783W        W20647  17.990  20.857  11.652 -0.3535 -0.3527  0.0157
19784W        W20648  18.963  21.457  13.093 -0.4247 -0.4309  0.0137
19785W        W20649  17.191  22.106  13.524 -0.0706  0.1190  0.2374
19786W        W20650  16.676  19.416  12.743 -0.0047 -0.1832  0.2248
19787W        W20651  19.345  19.177  12.422 -0.0392 -0.1017  0.5203
19788W        W20652  18.809  23.086  12.013 -0.2020 -0.1803  0.1594
19789W        W20653  15.737  21.515  12.221 -0.0408 -0.3261  0.0138
19790W        W20654  14.457  17.795  10.191 -0.1717  0.2023 -0.0788
19791W        W20655  20.401  20.010  12.549 -0.2548 -0.0475 -0.0299
19792W        W20656  19.590  18.751  14.021 -0.0893  0.1602 -0.1013
19793W        W20657  19.175  20.383  12.666  0.1414 -0.3750  0.1122
19794W        W20658  15.678  20.536   7.880  0.0417  0.0397 -0.0400
19795W        W20659  18.017  21.331  17.436  0.0111 -0.4170  0.0323
19796W        W20660  18.250  20.958  11.210  0.0211  0.2475 -0.2558
19797W        W20661  16.311  19.396  13.757 -0.0658 -0.0096 -0.0593
19798W        W20662  16.598  18.680  13.288 -0.0394 -0.1493  0.2822
19799W        W20663  15.023  22.238  12.649 -0.0596 -0.1152 -0.0888
19800W        W20664  18.829  17.111  13.927 -0.3466 -0.1945 -0.1543
19801W        W20665  16.885  20.612  14.312  0.0001 -0.0879  0.0241
19802W        W20666  18.610  20.669  10.350 -0.0365  0.0084 -0.3186
19803W        W20667  15.367  18.853  10.532 -0.2100  0.2100  0.1327
19804W        W20668  20.356  19.751  14.259  0.0509  0.1222  0.0192
19805W        W20669  17.339  20.683  12.872 -0.1347  0.0487 -0.2782
19806W        W20670  16.576  18.812  15.037 -0.0722 -0.2373 -0.0088
19807W        W20671  18.244  21.413  10.909  0.2261 -0.1799  0.0052
19808W        W20672  18.333  22.004  12.242 -0.1439  0.1097  0.3574
19809W        W20673  14.143  20.015  12.343 -0.2471  0.3024 -0.2210
19810W        W20674  18.954  19.033  12.768 -0.0699 -0.0199  0.0236
19811W        W20675  17.223  21.481  11.873 -0.1087  0.1397  0.1198
19812W        W20676  16.743  16.700  13.264 -0.3633  0.2413 -0.0626
19813W        W20677  16.204  18.106  10.690 -0.1125  0.3292  0.2819
19814W        W20678  13.874  17.495  13.358 -0.2217 -0.3508 -0.1632
19815W        W20679  16.686  19.273  14.377 -0.1468 -0.2727 -0.1167
19816W        W20680  20.233  22.020  12.869  0.1893 -0.0432 -0.0753
19817W        W20681  14.241  20.557   9.849 -0.0630  0.3528  0.1419
19818W        W20682  20.018  23.053  12.567 -0.1264  0.1417  0.1785
19819W        W20683  16.851  17.396  13.925  0.1670  0.2562 -0.0826
19820W        W20684  18.794  18.901  13.640  0.0001 -0.1704 -0.0713
19821W        W20685  19.471  17.215  11.877  0.1964 -0.0238  0.0187
19822W        W20686  18.348  21.705  12.883 -0.1027 -0.0310 -0.0072
19823W        W20687  11.150  21.695  12.729 -0.1422 -0.0943  0.4897
19824W        W20688  17.350  19.031  12.339  0.0518 -0.0205 -0.3242
19825W        W20689  19.804  21.526  13.586  0.2449 -0.3403  0.0112
19826W        W20690  18.916  21.805  13.556 -0.1350 -0.2651  0.1783
19827W        W20691  16.439  18.840  13.743 -0.1216 -0.4025  0.0470
19828W        W20692  15.554  17.728  12.432  0.0866 -0.0574  0.3870
19829W        W20693  15.448  20.270  11.135  0.0827  0.1373  0.0141
19830W        W20694  15.247  23.346  12.535 -0.0356  0.0380 -0.0342
19831W        W20695  15.707  21.984  11.466 -0.2040  0.3064 -0.1605
19832W        W20696  14.747  19.009  12.999  0.0602 -0.0815 -0.0087
19833W        W20697  14.250  18.434  11.354  0.1326  0.0533 -0.0569
19834W        W20698  17.830  18.721  15.339  0.0088  0.1045 -0.4149
19835W        W20699  19.099  22.378  14.946  0.1405 -0.1067  0.0327
19836W        W20700  17.040  22.275  12.304  0.0234  0.2337 -0.0718
19837W        W20701  18.042  19.515  11.271 -0.0122 -0.1969  0.1367
19838W        W20702  19.409  22.487  13.084  0.1299 -0.0507 -0.0883
19839W        W20703  16.538  15.769  12.417  0.0114  0.0735 -0.1699
19840W        W20704  16.622  24.385  11.483 -0.0036  0.2345  0.0529
19841W        W20705  14.530  20.622  11.841 -0.0208  0.0231  0.2704
19842W        W20706  17.556  16.582  15.020  0.3363 -0.1902 -0.2218
19843W        W20707  13.982  20.895  12.165 -0.1491 -0.2894  0.1840
19844W        W20708  14.039  19.513  12.204  0.1329  0.1488  0.1856
19845W        W20709  17.764  21.801  11.621  0.0738  0.1248 -0.0336
19846W        W20710  16.984  18.533   8.937 -0.3301 -0.3125 -0.3779
19847W        W20711  18.754  19.937  12.780 -0.2281  0.1611 -0.0616
19848W        W20712  17.538  18.247  14.457  0.1505 -0.0307  0.2291
19849W        W20713  14.857  21.491  14.378  0.0471 -0.2565  0.1966
19850W        W20714  16.762  19.617  15.389  0.1095  0.1137  0.2000
19851W        W20715  17.277  17.110  13.945 -0.3079 -0.1620 -0.0264
19852W        W20716  16.893  20.721  16.432  0.0319 -0.1579  0.0780
19853W        W20717  15.302  21.163  12.469  0.1127 -0.3296 -0.1227
19854W        W20718  15.340  17.260  11.540  0.0133  0.0889 -0.3509
19855W        W20719  14.116  22.628  12.718  0.2855 -0.0483 -0.0188
19856W        W20720  16.193  22.820  17.577  0.0387  0.1065  0.0109
19857W        W20721  18.617  19.785  11.255  0.2633 -0.1530  0.0374
19858W        W20722  20.326  22.867  10.199 -0.2281  0.0895 -0.0922
19859W        W20723  18.144  19.532  12.645 -0.0180  0.3278  0.2367
19860W        W20724  17.640  21.643  13.489 -0.2098  0.3203 -0.2369
19861W        W20725  16.944  19.945  13.185  0.4627  0.0890 -0.1896
19862W        W20726  16.132  19.143  11.956  0.1692  0.1767  0.0998
19863W        W20727  19.835  22.190   9.678  0.3432 -0.1673  0.0685
19864W        W20728  14.583  20.760  13.556 -0.0284  0.2991 -0.0993
19865W        W20729  10.816  21.020  12.536  0.1223 -0.0642 -0.1349
19866W        W20730  17.956  17.378  15.779  0.2062 -0.1191 -0.0473
19867W        W20731  15.846  20.511  11.988 -0.0566 -0.1806  0.0303
19868W        W20732  15.032  22.827  10.909 -0.0579 -0.1030  0.2329
19869W        W20733  17.751  21.903  10.094 -0.0339  0.0546  0.0003
19870W        W20734  16.132  18.663  14.484 -0.1943  0.0961  0.0159
19871W        W20735  15.944  16.962  13.736 -0.0037  0.0270  0.3769
19872W        W20736  17.838  23.590  13.945  0.1757 -0.0949  0.2096
19873W        W20737  19.846  19.368  12.482  0.1819 -0.0408  0.1322
19874W        W20738  17.468  16.194  12.261 -0.0796 -0.1926 -0.1107
19875W        W20739  16.095  23.787  13.145  0.0729  0.0721 -0.1680
19876W        W20740  16.051  19.987  13.197  0.2677  0.1562 -0.1978
19877W        W20741  15.550  19.924  12.482  0.0408 -0.0286  0.1728
19878W        W20742  15.643  19.488  11.786  0.1485 -0.0357 -0.1058
19879W        W20743  18.380  22.387  14.228  0.2432 -0.1207 -0.2436
19880W        W20744  13.124  17.462  14.969  0.0573 -0.2058  0.2331
19881W        W20745  19.560  17.909  12.370 -0.2556  0.1433  0.1578
19882W        W20746  17.545  18.990  12.824  0.0189 -0.2548 -0.0515
19883W        W20747  16.725  20.685  10.843 -0.1669 -0.0465 -0.0398
19884W        W20748  17.413  19.694  13.244 -0.0028 -0.0702  0.3331
19885W        W20749  13.729  20.421  11.223 -0.1296  0.0498 -0.1769
19886W        W20750  20.265  21.821  13.401  0.2019 -0.2241  0.0120
19887W        W20751  14.386  21.529  11.209 -0.0306 -0.1420 -0.0455
19888W        W20752  16.330  17.792  16.306  0.0095  0.2524 -0.1437
19889W        W20753  19.323  21.442  15.253 -0.1707 -0.0670  0.1150
19890W        W20754  13.139  18.503  12.806  0.1993 -0.1812 -0.2120
19891W        W20755  16.884  20.252  12.816 -0.0737 -0.1675  0.2466
19892W        W20756  14.848  18.956  13.978  0.0611 -0.2614  0.0245
19893W        W20757  14.023  19.640  13.748  0.0371  0.0672  0.2233
19894W        W20758  16.326  21.149   9.342 -0.0968  0.0889 -0.0043
19895W        W20759  15.005  21.601  10.419  0.1724 -0.0331 -0.3495
19896W        W20760  14.028  21.963  11.438 -0.1336 -0.0257  0.0794
19897W        W20761  15.399  22.208  14.363  0.2667 -0.0297 -0.2692
19898W        W20762  15.164  18.757  12.936 -0.0678 -0.1462  0.0530
19899W        W20763  16.224  20.280  13.618  0.1364  0.3409  0.0281
19900W        W20764  19.629  21.463  14.838 -0.1026  0.1724  0.0070
19901W        W20765  20.360  16.608  11.611 -0.0913 -0.1106 -0.2982
19902W        W20766  16.939  20.151  10.693  0.0185  0.2139 -0.1648
19903W        W20767  15.319  18.718   9.984 -0.0484 -0.1619 -0.2637
19904W        W20768  18.183  20.589   9.988  0.1272  0.1422  0.2061
19905W        W20769  17.435  21.186  18.124 -0.2698  0.0394  0.2986
19906W        W20770  16.494  21.855  12.822 -0.1777  0.3978 -0.1417
19907W        W20771  17.303  20.118  14.389  0.2950  0.0134 -0.1440
19908W        W20772  15.541  22.492  12.581 -0.1978 -0.2674 -0.0265
19909W        W20773  15.978  22.990  14.659 -0.1847 -0.3961  0.1831
19910W        W20774  17.635  20.606  11.848  0.0130  0.3089  0.0184
19911W        W20775  15.766  22.547  11.076 -0.2570  0.2409  0.2806
19912W        W20776  13.268  18.108  15.574  0.2408  0.0457 -0.0063
19913W        W20777  17.168  24.353  14.968  0.1101  0.3240  0.2063
19914W        W20778  18.927  16.931  14.426  0.0897 -0.2398 -0.0146
19915W        W20779  16.339  21.594  12.033 -0.0806  0.2613 -0.1792
19916W        W20780  18.570  20.383  12.792  0.1706 -0.0014  0.1236
19917W        W20781  14.309  18.347  14.032  0.1182  0.0654  0.2085
19918W        W20782  16.020  20.448  12.962  0.2033  0.2226 -0.0529
19919W        W20783  18.062  19.850  12.136  0.1658 -0.1689 -0.1836
19920W        W20784  18.479  21.113  11.619 -0.1374  0.4404  0.2083
19921W        W20785  12.931  16.279  15.320 -0.1709 -0.2667 -0.1791
19922W        W20786  14.874  24.345  14.001  0.1729  0.2442 -0.1096
19923W        W20787  19.528  20.571  13.022 -0.0081  0.1460 -0.1102
19924W        W20788  15.704  18.656  14.104 -0.2108  0.1045  0.2121
19925W        W20789  17.577  23.557  14.424  0.2697 -0.2029 -0.0998
19926W        W20790  20.417  21.357  14.441  0.0067 -0.1144 -0.0007
19927W        W20791  16.625  20.936  12.290  0.2547 -0.2510 -0.0133
19928W        W20792  15.545  23.276  14.387  0.2910 -0.2848  0.0545
19929W        W20793  15.471  19.619  13.287 -0.3408 -0.0040  0.0853
19930W        W20794  18.539  17.212  11.727 -0.0522  0.2716 -0.1351
19931W        W20795  16.558  19.869  13.641  0.0259  0.1276  0.0011
19932W        W20796  14.281  22.326  13.047  0.3674 -0.1355  0.0313
19933W        W20797  19.753  21.082  12.938  0.0821  0.3652 -0.1294
19934W        W20798  15.307  21.511  14.072 -0.1285  0.0593  0.1246
19935W        W20799  18.256  22.383  10.754 -0.1572  0.0706 -0.0524
19936W        W20800  13.580  19.827  10.653  0.0742  0.1129 -0.0650
19937W        W20801  13.472  21.346  12.248 -0.3546 -0.0663  0.3450
19938W        W20802  16.370  23.459  14.581  0.0485 -0.0475  0.0656
19939W        W20803  16.459  20.460  14.141  0.0116  0.1331  0.4626
19940W        W20804  15.237  18.911  11.313 -0.0230  0.0052 -0.2224
19941W        W20805  16.466  17.406  12.030 -0.2041  0.1496 -0.1290
19942W        W20806  18.509  23.987  11.673 -0.3739  0.1137  0.0612
19943W        W20807  18.624  22.166  11.789  0.1806 -0.0731 -0.3250
19944W        W20808  18.664  16.552  13.732 -0.4057  0.0291  0.1253
19945W        W20809  17.156  22.381  12.815 -0.1082 -0.3925  0.2562
19946W        W20810  14.017  19.912  13.231 -0.1505 -0.1476  0.0909
19947W        W20811  17.638  21.767  10.574  0.0220 -0.0437  0.2012
19948W        W20812  17.371  19.422  12.010 -0.0854  0.0955  0.1937
19949W        W20813  16.830  21.044  13.430  0.0184 -0.0326  0.0995
19950W        W20814  14.198  19.715  14.290 -0.0532  0.1963 -0.2373
19951W        W20815  15.200  20.699  12.507 -0.0276 -0.1150 -0.0472
19952W        W20816  15.770  21.222  13.803  0.0912 -0.0684  0.1721
19953W        W20817  14.901  23.254  13.926  0.1017  0.2067  0.1770
19954W        W20818  14.283  19.593  10.714  0.2811 -0.0893  0.0763
19955W        W20819  17.377  19.686  14.130  0.0096 -0.1598  0.1193
19956W        W20820  16.393  21.330  11.541  0.0720  0.1551 -0.0788
19957W        W20821  14.885  21.447   9.079 -0.1447 -0.0757  0.1494
19958W        W20822  19.894  19.357  13.422 -0.0116 -0.0880  0.0822
19959W        W20823  16.466  20.202  14.955 -0.1757 -0.0026 -0.0341
19960W        W20824  17.852  20.756  13.117  0.1504  0.1996  0.0040
19961W        W20825  19.234  21.994  13.167  0.1320  0.3301  0.0174
19962W        W20826  19.426  19.638  14.206 -0.0781 -0.1883  0.0586
19963W        W20827  13.098  16.034  14.572 -0.2060  0.3195 -0.0393
19964W        W20828  14.363  18.831  13.891  0.0868 -0.0344 -0.1856
19965W        W20829  14.658  20.838  10.603  0.2116 -0.2373  0.0600
19966W        W20830  15.761  19.075  12.369 -0.1383  0.3386  0.0842
19967W        W20831  16.759  16.673  15.047 -0.1248 -0.2329 -0.1303
19968W        W20832  17.068  19.422  11.590 -0.0966  0.0660 -0.0259
19969W        W20833  12.683  19.300  11.492  0.4887  0.1931  0.1657
19970W        W20834  15.992  21.363  14.423 -0.0192 -0.4150 -0.2354
19971W        W20835  18.987  18.677  10.169  0.2300 -0.3565 -0.0699
19972W        W20836  19.198  19.476  12.781  0.1354 -0.1917  0.1200
19973W        W20837  17.646  23.783  11.650 -0.0694  0.1972 -0.2069
19974W        W20838  14.149  17.774  14.308 -0.2210 -0.0969 -0.0474
19975W        W20839  17.111  19.610  14.580 -0.0212 -0.0513  0.0753
19976W        W20840  17.148  20.895  11.884  0.0897 -0.0214 -0.2135
19977W        W20841  13.746  19.629  11.577  0.0496 -0.0308  0.0829
19978W        W20842  18.461  17.335  12.231  0.0682  0.0645 -0.1655
19979W        W20843  17.952  18.636  12.880  0.1209 -0.3082  0.1508
19980W        W20844  13.118  21.031  11.973  0.1904  0.0822 -0.3327
19981W        W20845  16.258  21.038  12.010  0.0288  0.1223 -0.3480
19982W        W20846  16.666  21.473  12.508  0.1208  0.0060 -0.0158
19983W        W20847  18.121  20.445  11.938  0.0788 -0.0994  0.1658
19984W        W20848  20.501  21.995  13.792  0.1706 -0.0463  0.0575
19985W        W20849  19.299  17.544  14.526 -0.2646 -0.0029 -0.2412
19986W        W20850  15.328  22.932  13.955 -0.0690  0.2199  0.4080
19987W        W20851  14.082  22.183  13.564  0.0472 -0.5123 -0.1903
19988W        W20852  17.027  19.114  15.385 -0.0329  0.0603  0.1260
19989W        W20853  16.381  22.617  14.599  0.0477  0.3922 -0.0197
19990W        W20854  17.849  22.541  11.154  0.3073 -0.1383 -0.2883
19991W        W20855  19.235  24.207  12.877  0.1664  0.0451 -0.1894
19992W        W20856  18.501  21.524  12.411 -0.0949 -0.1291  0.1500
19993W        W20857  17.927  20.142  14.126  0.1618  0.0183  0.1941
19994W        W20858  19.988  20.612  10.430 -0.0342 -0.1526 -0.1654
19995W        W20859  15.566  18.595  11.940 -0.1823 -0.1994 -0.2643
19996W        W20860  13.619  19.343  14.113  0.2999 -0.0202  0.1380
19997W        W20861  16.401  20.375  12.617 -0.0943 -0.1561  0.1219
19998W        W20862  14.705  24.183  13.280 -0.1612  0.3091 -0.2846
19999W        W20863  14.118  17.472  14.726  0.0739  0.2023  0.2786
20000W        W20864  16.620  22.176  12.495 -0.1386 -0.1481 -0.0068
20001W        W20865  14.814  22.231  13.919  0.1132  0.2158  0.0415
20002W        W20866  16.181  21.868  12.393 -0.0821 -0.2489 -0.1489
20003W        W20867  16.827  19.830  11.712 -0.0667  0.0887 -0.2780
20004W        W20868  16.043  19.415  11.493 -0.2901  0.0094 -0.1193
20005W        W20869  16.091  21.896  14.396 -0.0772 -0.0452  0.2285
20006W        W20870  16.916  22.157  11.754 -0.0369  0.1835  0.0670
20007W        W20871  17.793  19.909  12.578 -0.1163 -0.0014 -0.2678
20008W        W20872  17.407  22.986  12.087 -0.1603  0.0899  0.1080
20009W        W20873  15.396  20.377  12.161 -0.0765  0.0678  0.1248
20010W        W20874  18.566  19.070  12.397  0.0833  0.0311 -0.0835
20011W        W20875  16.996  16.458  11.561 -0.0982 -0.0014 -0.0146
20012W        W20876  16.529  22.264  13.963 -0.4854  0.1133  0.1465
20013W        W20877  18.223  20.313  12.388  0.1997  0.3073 -0.2690
20014W        W20878  14.715  22.729  13.969  0.1912  0.1967  0.2007
20015W        W20879  14.673  19.341  11.583  0.0468 -0.1534  0.0630
20016W        W20880  14.275  20.567   7.640 -0.1078  0.1528  0.1109
20017W        W20881  16.555  18.260  16.243 -0.2497  0.1710  0.4776
20018W        W20882  16.340  19.450  10.553 -0.3012 -0.0765 -0.1638
20019W        W20883  17.026  18.128  13.442 -0.2171  0.0816  0.1586
20020W        W20884  19.595  24.917  11.720 -0.0201 -0.0010  0.1917
20021W        W20885  16.889  18.381  15.334  0.1920  0.3470 -0.0996
20022W        W20886  17.013  23.011  12.968  0.2377  0.0582  0.2359
20023W        W20887  18.939  21.919  14.692 -0.4707 -0.0184  0.0409
20024W        W20888  18.282  25.359  14.851 -0.0776 -0.1473 -0.1085
20025W        W20889  14.247  21.857  10.860  0.0431  0.2959 -0.0438
20026W        W20890  17.564  19.914  13.718 -0.2219  0.2798  0.1233
20027W        W20891  17.319  23.348  11.766  0.1577  0.0004 -0.1055
20028W        W20892  13.299  18.891  10.581 -0.0544 -0.0762  0.0630
20029W        W20893  17.069  21.214  12.345  0.0170 -0.1251  0.1937
20030W        W20894  15.649  21.526   9.597  0.3974  0.0608  0.1672
20031W        W20895  16.884  19.008  12.534  0.0155  0.1425 -0.1139
20032W        W20896  14.759  21.792  12.580 -0.2450 -0.2118  0.0547
20033W        W20897  16.252  21.871  11.579  0.0764 -0.0792 -0.1900
20034W        W20898  15.271  18.993  12.493  0.0652  0.1948  0.1298
20035W        W20899  15.950  21.184  11.379 -0.0304  0.0851  0.2434
20036W        W20900  15.182  19.254  12.989 -0.1061  0.2058  0.0614
20037W        W20901  16.789  17.974  13.883  0.0372 -0.0661  0.0721
20038W        W20902  16.211  19.493   8.152  0.1599  0.1385  0.1983
20039W        W20903  18.313  20.882  13.456 -0.1454  0.0168 -0.2835
20040W        W20904  12.878  21.069  11.081 -0.2032  0.2501 -0.1043
20041W        W20905  16.185  21.612   9.982 -0.0239 -0.0459  0.2557
20042W        W20906  21.061  20.165  10.906 -0.0261  0.0361 -0.0211
20043W        W20907  15.771  22.473  13.105  0.1204  0.0877  0.2617
20044W        W20908  17.168  17.212  14.405 -0.0225 -0.2922  0.0317
20045W        W20909  16.128  18.552  14.995  0.0454  0.0256  0.2401
20046W        W20910  15.836  17.531  12.821  0.1751  0.1040 -0.0024
20047W        W20911  15.588  21.361  13.301  0.0749  0.1835 -0.0260
20048W        W20912  16.288  19.077  14.179  0.2288 -0.2305 -0.1240
20049W        W20913  12.870  17.201  12.988  0.0528  0.3628  0.0507
20050W        W20914  13.564  19.830  12.094  0.0843 -0.3092  0.3316
20051W        W20915  16.384  24.062  14.031 -0.2574  0.4307 -0.3741
20052W        W20916  18.113  23.691  11.440 -0.1711  0.0015 -0.1449
20053W        W20917  16.610  21.032  11.236 -0.2282  0.1858  0.2365
20054W        W20918  16.954  22.758  12.370 -0.1878  0.0978  0.2302
20055W        W20919  14.196  21.564  11.705  0.1966  0.0107  0.0461
20056W        W20920  17.003  18.652  15.776  0.0406 -0.0713 -0.3234
20057W        W20921  16.481  18.565  12.446  0.0921 -0.1794 -0.1568
20058W        W20922  18.445  20.875  15.588 -0.3931 -0.0262  0.5117
20059W        W20923  16.585  18.841  10.002  0.0462  0.1157 -0.2767
20060W        W20924  18.203  21.774  14.982  0.0879 -0.0287  0.1412
20061W        W20925  16.518  22.328  10.827  0.1249  0.0185  0.0369
20062W        W20926  17.284  18.224  14.955  0.1495  0.0000  0.2780
20063W        W20927  14.790  19.906  12.557 -0.0221 -0.1743 -0.0443
20064W        W20928  18.911  21.120  15.440 -0.1279  0.1681  0.0563
20065W        W20929  16.974  17.707  15.556  0.2610 -0.3479  0.0661
20066W        W20930  15.424  18.999  13.913 -0.2718 -0.0436  0.1665
20067W        W20931  18.016  16.989  12.646 -0.0105  0.2119 -0.2411
20068W        W20932  15.113  23.181  11.320  0.0490 -0.1131 -0.0374
20069W        W20933  16.303  22.635  16.713  0.0792 -0.3038  0.1220
20070W        W20934  18.604  20.035  13.321 -0.1714 -0.2281  0.3527
20071W        W20935  18.802  22.994  14.036 -0.2642 -0.0727 -0.0078
20072W        W20936  18.289  19.362  12.086 -0.1774 -0.1086  0.1338
20073W        W20937  17.195  20.360  11.849 -0.2069  0.1106 -0.1962
20074W        W20938  16.363  21.929  13.384  0.1155  0.0430 -0.1433
20075W        W20939  15.754  19.471  15.108 -0.2217 -0.2401  0.2884
20076W        W20940  18.672  25.624  14.148  0.1446 -0.1160  0.0572
20077W        W20941  16.380  19.930  15.413 -0.1893  0.1346  0.2699
20078W        W20942  14.545  21.502  12.943 -0.3597 -0.0359 -0.0945
20079W        W20943  20.610  20.001  13.442  0.2124 -0.0901  0.2354
20080W        W20944  18.724  22.449  13.859  0.0192  0.0949  0.0944
20081W        W20945  19.195  22.086  12.413  0.3329  0.0552  0.0831
20082W        W20946  16.074  21.789  13.073  0.0879  0.0066  0.0914
20083W        W20947  17.249  21.712  12.419  0.0572 -0.3605  0.0553
20084W        W20948  17.330  20.787  14.323 -0.1335 -0.0094  0.2425
20085W        W20949  15.663  21.184  14.915 -0.3048  0.2102  0.3347
20086W        W20950  15.910  18.182  12.205 -0.1670  0.0366 -0.1034
20087W        W20951  13.412  20.678  18.405 -0.0634 -0.0683  0.1535
20088W        W20952  15.069  22.340  18.143 -0.2977  0.0118  0.2178
20089W        W20953  17.932  22.440  17.306 -0.0357 -0.2038 -0.0326
20090W        W20954  15.784  23.070  17.555  0.1822 -0.1358  0.1192
20091W        W20955  15.143  20.247  12.694  0.1195  0.4271  0.0508
20092W        W20956  15.992  20.547  15.640 -0.1194  0.0794  0.1770
20093W        W20957  12.805  17.505  15.552 -0.0166  0.2058  0.0256
20094W        W20958  18.359  20.714  13.932 -0.2305  0.1561 -0.2854
20095W        W20959  16.992  23.513  17.435 -0.0357  0.1587  0.0431
20096W        W20960  14.072  19.209  17.147  0.1717 -0.2392 -0.2744
20097W        W20961  17.004  18.067  14.382  0.0877 -0.1477  0.0600
20098W        W20962  15.585  21.760  16.274 -0.0381  0.1052  0.0495
20099W        W20963  16.967  18.859  13.557 -0.0475  0.1067  0.1022
20100W        W20964  14.732  17.440  15.823  0.1329  0.0514 -0.1655
20101W        W20965  16.516  20.474  15.549  0.0299 -0.3126  0.0402
20102W        W20966  13.331  23.064  17.938 -0.1703 -0.0875 -0.2358
20103W        W20967  15.161  20.518  17.613  0.0881 -0.2593 -0.0671
20104W        W20968  13.683  21.007  16.049  0.0411  0.1486  0.0018
20105W        W20969  13.858  16.994  18.077  0.1873 -0.3678 -0.1784
20106W        W20970  16.954  22.069  16.056 -0.0929 -0.2693 -0.2363
20107W        W20971  17.526  22.765  17.613  0.0970  0.0750 -0.0777
20108W        W20972  13.948  18.243  17.435  0.1644 -0.1755  0.2252
20109W        W20973  18.099  20.129  15.043 -0.0515 -0.1925  0.0045
20110W        W20974  14.257  18.932  16.171  0.0043 -0.0525 -0.1601
20111W        W20975  13.333  18.812  18.263 -0.2590 -0.0634  0.0022
20112W        W20976  17.757  20.830  16.337  0.2725 -0.1155  0.1673
20113W        W20977  18.363  20.261  16.404  0.1124 -0.1439 -0.0972
20114W        W20978  14.800  21.113  13.228 -0.1316  0.1257 -0.0196
20115W        W20979  17.865  23.026  18.542  0.2178 -0.1059 -0.0006
20116W        W20980  15.452  19.677  17.527  0.0517  0.0597 -0.2873
20117W        W20981  16.357  20.511  12.095 -0.0071  0.1569  0.0556
20118W        W20982  14.131  17.921  17.025 -0.1264  0.0658 -0.1683
20119W        W20983  15.482  21.421  18.033  0.0358  0.0009  0.2369
20120W        W20984  20.229  20.586  17.643 -0.0291 -0.2120  0.1547
20121W        W20985  12.657  18.843  18.689  0.2641 -0.2232  0.0999
20122W        W20986  17.422  19.768  17.758  0.3499 -0.3431  0.0215
20123W        W20987  15.294  18.546  15.609  0.1181 -0.1702 -0.1545
20124W        W20988  14.980  18.449  16.834  0.0004  0.3093 -0.0766
20125W        W20989  18.960  20.536  15.613 -0.1605  0.2882  0.1903
20126W        W20990  19.252  20.100  14.462  0.2364  0.2124 -0.0688
20127W        W20991  19.499  21.073  14.463  0.1038  0.2197 -0.0720
20128W        W20992  18.506  21.344  15.693  0.2018 -0.0715  0.0956
20129W        W20993  15.035  22.544  17.696 -0.4089 -0.0495  0.2295
20130W        W20994  15.781  23.791  16.373 -0.1363  0.1592 -0.1339
20131W        W20995  16.075  19.075  15.115  0.0021 -0.1745  0.0511
20132W        W20996  16.489  22.121  15.333  0.4167 -0.0057  0.0269
20133W        W20997  14.321  20.698  16.792  0.4538  0.0810  0.2699
20134W        W20998  16.446  18.076  15.225  0.2223  0.1232  0.3459
20135W        W20999  20.042  21.053  14.539 -0.0986 -0.1326 -0.2136
20136W        W21000  16.266  17.697  14.808 -0.0823  0.0764 -0.1370
20137W        W21001  16.139  22.503  16.055  0.1777 -0.1724  0.2497
20138W        W21002  16.011  20.677  16.627  0.1428 -0.0865  0.0073
20139W        W21003  14.802  21.185  13.877  0.0244 -0.0170  0.0392
20140W        W21004  19.401  20.956  15.426  0.0067 -0.1542  0.0954
20141W        W21005  12.951  17.902  15.238  0.0878 -0.1752 -0.2425
20142W        W21006  16.169  22.683  13.651  0.0538 -0.0542  0.0927
20143W        W21007  13.748  18.556  16.101 -0.0345 -0.1728 -0.3352
20144W        W21008  16.744  19.735  16.190 -0.0473  0.3524 -0.1520
20145W        W21009  16.413  24.292  17.853  0.3463 -0.1732  0.1147
20146W        W21010  16.898  22.200  16.714 -0.0154 -0.1532 -0.2586
20147W        W21011  18.289  18.438  14.771 -0.0555  0.0747 -0.5682
20148W        W21012  15.554  19.458  16.237  0.0900 -0.0007  0.3248
20149W        W21013  16.370  20.997  16.431  0.0172 -0.0021 -0.2297
20150W        W21014  15.739  20.686  13.841  0.1407 -0.1728  0.3693
20151W        W21015  16.043  18.383  18.437 -0.1529  0.1367  0.1514
20152W        W21016  17.797  19.001  17.069  0.0480 -0.0808  0.0045
20153W        W21017  16.143  18.472  13.516  0.1827  0.0284  0.1547
20154W        W21018  13.439  19.529  13.660 -0.4441  0.1025  0.4632
20155W        W21019  16.670  21.183  15.121  0.1089  0.1722 -0.1865
20156W        W21020  14.622  20.647  15.056 -0.0348 -0.0530  0.1248
20157W        W21021  17.724  23.414  19.329  0.2144  0.3598  0.1641
20158W        W21022  16.385  22.329  11.535 -0.1337  0.2042 -0.0357
20159W        W21023  17.284  23.619  15.222  0.2039  0.2332  0.2243
20160W        W21024  14.854  21.834  16.523  0.2136 -0.1077  0.0434
20161W        W21025  18.659  20.598  20.609 -0.2785  0.0560 -0.3317
20162W        W21026  17.486  22.518  18.809 -0.4066  0.2353 -0.0044
20163W        W21027  16.907  20.672  17.174 -0.1738 -0.0303 -0.1286
20164W        W21028  15.662  22.167  14.872 -0.0524 -0.1331  0.0810
20165W        W21029  16.774  18.849  14.612  0.2053 -0.1492  0.1787
20166W        W21030  18.517  21.526  13.377 -0.2914  0.0745 -0.0269
20167W        W21031  14.672  20.619  17.188  0.1769 -0.0913  0.0415
20168W        W21032  15.121  21.104  16.944 -0.1507  0.2547 -0.0740
20169W        W21033  13.434  20.537  15.165 -0.3526 -0.1610  0.1596
20170W        W21034  18.018  19.013  15.798  0.1209  0.1175  0.1154
20171W        W21035  15.043  17.074  15.111  0.0619  0.2691  0.0753
20172W        W21036  16.392  19.809  14.116  0.0311 -0.1783 -0.0836
20173W        W21037  17.122  22.986  13.463  0.1036  0.2726 -0.3224
20174W        W21038  16.536  18.968  19.525  0.0605  0.4103  0.2313
20175W        W21039  18.264  21.212  18.122  0.1824 -0.0294  0.2611
20176W        W21040  16.698  19.608  17.786  0.3556 -0.0997  0.3018
20177W        W21041  17.320  19.492  15.796  0.1083 -0.0034 -0.0798
20178W        W21042  17.070  19.633  17.400  0.1535 -0.0445  0.0070
20179W        W21043  15.352  21.627  16.784 -0.2091 -0.1517 -0.0622
20180W        W21044  14.597  19.433  14.318 -0.0641  0.2212  0.2012
20181W        W21045  18.223  18.721  17.732 -0.0968  0.0156 -0.0589
20182W        W21046  16.385  17.752  15.794 -0.2821 -0.1383  0.3946
20183W        W21047  19.352  19.230  14.942 -0.0180  0.0329  0.1212
20184W        W21048  14.906  21.103  18.609 -0.2802  0.0130  0.0507
20185W        W21049  17.485  17.458  17.367 -0.0804 -0.3848 -0.2259
20186W        W21050  17.789  20.296  16.722  0.1611  0.0424  0.0017
20187W        W21051  18.938  17.732  15.729 -0.2248 -0.2558 -0.0515
20188W        W21052  12.837  19.355  15.839 -0.3071 -0.0403  0.0449
20189W        W21053  16.517  20.196  13.210 -0.0795 -0.0185 -0.2036
20190W        W21054  19.118  21.205  18.243  0.3265 -0.1476 -0.3005
20191W        W21055  17.086  18.510  18.826 -0.3522  0.0095  0.0910
20192W        W21056  15.322  20.172  14.641  0.0501  0.1145 -0.1866
20193W        W21057  16.617  24.354  15.086 -0.0623 -0.2255  0.0581
20194W        W21058  17.188  19.084  14.626 -0.1718 -0.0949  0.0804
20195W        W21059  16.114  21.098  17.485  0.1336 -0.1667 -0.0503
20196W        W21060  14.845  20.281  15.537 -0.0604  0.2005  0.0643
20197W        W21061  13.089  20.290  18.862 -0.2781  0.1550 -0.1063
20198W        W21062  17.694  20.304  13.369 -0.0026 -0.1760  0.0800
20199W        W21063  15.684  20.482  18.478  0.0463  0.2131  0.2313
20200W        W21064  17.399  19.965  16.601  0.2743  0.0279 -0.0183
20201W        W21065  17.958  19.777  16.366  0.2814 -0.1494 -0.1797
20202W        W21066  16.920  20.500  14.871 -0.0390 -0.1642  0.0710
20203W        W21067  19.510  19.141  17.755 -0.3022 -0.0223  0.3554
20204W        W21068  15.305  20.724  13.539 -0.3227  0.1491 -0.3064
20205W        W21069  16.410  18.311  18.024 -0.1131  0.3077  0.0080
20206W        W21070  16.915  20.180  13.994 -0.3229  0.0152 -0.1160
20207W        W21071  17.853  20.845  14.840 -0.1298  0.0269 -0.1013
20208W        W21072  18.251  17.666  14.504 -0.0507 -0.0557 -0.0509
20209W        W21073  18.003  21.744  12.583  0.0161  0.1610  0.2767
20210W        W21074  20.883  18.563  14.063 -0.0717 -0.2690 -0.0175
20211W        W21075  18.496  19.676  16.366 -0.0453  0.1047 -0.0706
20212W        W21076  18.108  18.786  13.780  0.0685  0.0343 -0.0218
20213W        W21077  18.363  19.455  15.135 -0.2909  0.1914 -0.4191
20214W        W21078  15.897  19.594  17.820  0.2346 -0.1294 -0.1553
20215W        W21079  17.585  23.225  17.257 -0.0639  0.0721 -0.2091
20216W        W21080  16.518  19.119  15.402  0.2627 -0.1240  0.0379
20217W        W21081  17.265  20.710  17.959  0.1195  0.1444 -0.1826
20218W        W21082  17.577  19.967  17.033 -0.1709 -0.0042  0.0186
20219W        W21083  16.380  20.743  17.174  0.1049 -0.0950  0.1230
20220W        W21084  17.786  19.314  15.462 -0.3790  0.0103  0.1475
20221W        W21085  16.887  21.701  14.205  0.0107 -0.1763  0.1033
20222W        W21086  13.753  20.381  18.080  0.0123  0.0536 -0.0349
20223W        W21087  15.902  19.623  14.144  0.1523 -0.1363 -0.0247
20224W        W21088  18.393  19.315  18.092 -0.3706  0.0471  0.0903
20225W        W21089  19.340  18.517  13.654  0.2155 -0.1779 -0.1105
20226W        W21090  16.542  22.395  13.511  0.3745  0.0171  0.1528
20227W        W21091  16.610  20.287  17.416 -0.2462 -0.2470  0.1575
20228W        W21092  15.167  21.751  14.742  0.3529  0.0178 -0.1218
20229W        W21093  15.397  23.676  16.080  0.1082  0.1163  0.0098
20230W        W21094  16.219  20.859  14.242  0.0270  0.0540  0.0291
20231W        W21095  16.556  20.390  17.997  0.1764 -0.1277  0.1846
20232W        W21096  16.408  21.462  16.650  0.0374  0.0287  0.1208
20233W        W21097  13.561  21.305  15.659  0.1328 -0.2663 -0.2466
20234W        W21098  15.823  23.545  15.805  0.1092 -0.1561  0.0418
20235W        W21099  14.467  19.322  13.738  0.1063  0.2870  0.2517
20236W        W21100  11.906  19.089  18.074  0.4402  0.0394 -0.0254
20237W        W21101  17.670  21.384  15.554 -0.3349  0.0966  0.0499
20238W        W21102  14.930  22.833  15.767  0.0479  0.0021  0.0812
20239W        W21103  14.515  21.570  18.023  0.0605  0.2262  0.2356
20240W        W21104  14.413  17.973  12.353 -0.2213 -0.0093  0.0914
20241W        W21105  17.822  19.064  16.519  0.0391 -0.0419 -0.0471
20242W        W21106  16.682  20.838  15.921 -0.3734 -0.1435 -0.1215
20243W        W21107  15.502  20.701  15.723 -0.2691  0.1684 -0.0355
20244W        W21108  16.211  22.278  13.087 -0.2829 -0.1090  0.1626
20245W        W21109  14.393  18.105  13.125 -0.1481 -0.0624 -0.0297
20246W        W21110  15.527  20.213  17.158 -0.2723 -0.0754 -0.1690
20247W        W21111  15.015  18.875  16.405 -0.1865 -0.1499  0.1522
20248W        W21112  16.357  21.000  15.456 -0.0457 -0.1664  0.2636
20249W        W21113  14.914  20.974  17.437  0.1274 -0.0020  0.4662
20250W        W21114  15.458  22.962  16.622  0.2688  0.1057  0.2521
20251W        W21115  16.574  19.817  18.989 -0.1143  0.2137 -0.1605
20252W        W21116  14.753  18.903  16.011 -0.5577 -0.2853  0.0736
20253W        W21117  14.890  18.912  14.598 -0.0010  0.1510  0.2662
20254W        W21118  14.104  20.060  14.644  0.0831  0.1700  0.1152
20255W        W21119  17.585  20.336  17.728 -0.0155 -0.0993 -0.0183
20256W        W21120  12.821  21.199  15.563 -0.2397 -0.2387  0.2085
20257W        W21121  17.016  20.492  15.833  0.3494 -0.1530  0.2679
20258W        W21122  19.194  18.176  16.924 -0.0455 -0.0395  0.0780
20259W        W21123  18.221  18.133  17.309  0.1653  0.0137 -0.0873
20260W        W21124  17.620  19.839  15.218  0.0079 -0.1653  0.1916
20261W        W21125  20.025  20.253  14.785  0.4125 -0.0732 -0.0316
20262W        W21126  18.485  18.842  14.395  0.0587 -0.0933  0.0118
20263W        W21127  12.397  19.789  18.324 -0.4260  0.1044 -0.1076
20264W        W21128  14.588  21.106  16.880 -0.0340  0.0542  0.2594
20265W        W21129  15.224  22.122  16.514 -0.0503  0.0268  0.0617
20266W        W21130  17.068  21.305  16.686 -0.3275  0.0817 -0.2512
20267W        W21131  16.809  19.299  13.760  0.0613  0.1491 -0.2271
20268W        W21132  17.636  19.302  14.638  0.3841  0.1063 -0.1894
20269W        W21133  17.554  20.973  15.311  0.3532  0.2449  0.0070
20270W        W21134  15.855  20.487  14.320 -0.0336  0.0794  0.1602
20271W        W21135  17.736  17.695  14.393  0.0087  0.3201  0.0555
20272W        W21136  18.051  20.309  17.688 -0.1410 -0.0023 -0.1663
20273W        W21137  16.947  16.929  15.762  0.3109  0.1445  0.0881
20274W        W21138  16.049  19.846  14.974  0.0479 -0.4478  0.1762
20275W        W21139  16.999  22.657  20.587 -0.1373 -0.0309 -0.1431
20276W        W21140  17.857  19.746  18.637 -0.0179 -0.0053  0.1255
20277W        W21141  17.384  20.641  14.797  0.1996 -0.1540 -0.0074
20278W        W21142  11.557  20.242  15.212 -0.0786 -0.2335  0.2233
20279W        W21143  14.984  18.149  18.235 -0.0818  0.2367 -0.0477
20280W        W21144  15.829  17.161  16.564  0.1152 -0.0281  0.0336
20281W        W21145  17.431  17.095  17.724 -0.0211  0.1239  0.0498
20282W        W21146  16.218  21.276  14.864 -0.0249  0.2563  0.0870
20283W        W21147  20.424  16.796  14.287  0.0633 -0.0476 -0.2730
20284W        W21148  13.646  17.570  13.817 -0.0358 -0.1181  0.1313
20285W        W21149  16.663  19.432  17.104 -0.3600 -0.5432  0.0226
20286W        W21150  18.072  19.575  17.106 -0.0215  0.1312 -0.0376
20287W        W21151  15.755  20.398  14.818  0.2672  0.0049 -0.2886
20288W        W21152  16.968  16.656  18.276  0.1330 -0.3875  0.1101
20289W        W21153  18.036  21.212  14.046  0.1889 -0.1505  0.1313
20290W        W21154  16.354  19.030  16.694 -0.1556 -0.1032  0.1545
20291W        W21155  17.208  19.909  15.617 -0.0821 -0.0446  0.3243
20292W        W21156  13.667  17.930  14.181 -0.2022  0.3489 -0.1049
20293W        W21157  13.508  21.484  16.135  0.1303  0.2431 -0.1369
20294W        W21158  15.771  21.310  16.035  0.0031  0.3528  0.0908
20295W        W21159  17.186  23.508  16.913 -0.1017 -0.2193 -0.2584
20296W        W21160  13.437  21.938  16.962 -0.0091 -0.1385  0.1065
20297W        W21161  15.870  22.567  17.265  0.0154  0.2514  0.0669
20298W        W21162  15.403  22.292  17.395  0.0067  0.2553  0.2672
20299W        W21163  17.643  20.715  15.799 -0.0010  0.1498 -0.1588
20300W        W21164  17.086  20.132  16.164 -0.0738  0.2044  0.1773
20301W        W21165  20.359  18.872  18.291 -0.1388 -0.2470 -0.1471
20302W        W21166  18.947  20.731  17.075  0.0689  0.0763  0.0499
20303W        W21167  17.599  18.106  13.560 -0.0245 -0.1222 -0.0512
20304W        W21168  17.610  22.740  14.901 -0.0842  0.1179 -0.1797
20305W        W21169  16.702  18.812  19.048  0.2527 -0.0022  0.0502
20306W        W21170  15.159  16.871  18.323 -0.0015  0.2408  0.3660
20307W        W21171  16.634  17.689  17.466 -0.1824  0.1561 -0.0798
20308W        W21172  17.979  19.524  17.911 -0.0059 -0.2010 -0.0628
20309W        W21173  16.591  24.446  18.332 -0.0085  0.0280 -0.0973
20310W        W21174  15.923  20.128  14.017 -0.1124  0.3267 -0.1763
20311W        W21175  18.298  20.812  15.031  0.3304  0.1204  0.0039
20312W        W21176  14.658  19.295  17.952 -0.1305  0.0806 -0.0121
20313W        W21177  14.615  22.840  20.295  0.0345  0.2470  0.0161
20314W        W21178  20.866  18.993  17.734  0.1577 -0.2458 -0.0355
20315W        W21179  18.204  23.111  12.196  0.0354  0.2144  0.1906
20316W        W21180  17.531  18.354  15.874 -0.1130  0.0882 -0.1998
20317W        W21181  16.121  17.769  17.204 -0.0368  0.0236 -0.2907
20318W        W21182  15.255  19.534  15.340 -0.1311  0.2854  0.0332
20319W        W21183  13.600  20.527  17.143 -0.1740  0.0016  0.0203
20320W        W21184  17.996  18.511  15.793 -0.2245  0.0594 -0.0048
20321W        W21185  15.573  16.675  18.560  0.0076 -0.5633 -0.0410
20322W        W21186  17.581  23.450  12.207  0.2784  0.3103  0.2845
20323W        W21187  17.228  19.544  15.128 -0.0015 -0.2245  0.0976
20324W        W21188  16.358  21.243  15.913 -0.1025 -0.1682  0.0199
20325W        W21189  15.890  18.377  16.463  0.1185 -0.0392  0.0156
20326W        W21190  17.187  21.782  16.794  0.0211 -0.2319 -0.3048
20327W        W21191  18.070  18.393  13.491 -0.1002  0.1565 -0.3160
20328W        W21192  13.754  19.792  18.457  0.1401  0.1689  0.0696
20329W        W21193  13.582  17.988  17.198  0.2689 -0.0692  0.2369
20330W        W21194  17.263  17.579  15.121 -0.0001  0.2322 -0.2147
20331W        W21195  17.675  20.676  18.732 -0.0587 -0.0922  0.2684
20332W        W21196  17.862  20.346  12.793 -0.2187 -0.0150  0.0184
20333W        W21197  18.732  20.794  15.991  0.3133  0.1238  0.3249
20334W        W21198  14.122  22.106  19.114 -0.1221 -0.0800 -0.1474
20335W        W21199  17.740  20.407  14.541 -0.1918 -0.1314  0.1701
20336W        W21200  16.869  21.372  14.727 -0.3687 -0.2966 -0.0724
20337W        W21201  15.872  21.852  16.693  0.2743 -0.2314  0.0183
20338W        W21202  18.587  23.358  19.327  0.0963 -0.0559 -0.2344
20339W        W21203  17.308  20.111  17.429  0.0075  0.1057  0.0275
20340W        W21204  16.871  20.190  15.286  0.0528  0.1678  0.0437
20341W        W21205  16.229  20.698  17.749 -0.0361 -0.2934 -0.0532
20342W        W21206  16.778  21.583  17.025  0.3377 -0.0890 -0.2658
20343W        W21207  15.459  17.871  13.817  0.0193 -0.2127  0.1115
20344W        W21208  14.613  15.797  17.470  0.0314  0.2563 -0.1665
20345W        W21209  17.349  20.746  13.412  0.4775  0.3381  0.0235
20346W        W21210  16.454  20.713  15.042 -0.1821 -0.2258  0.1709
20347W        W21211  15.314  22.546  16.770  0.0742  0.1582 -0.0061
20348W        W21212  16.846  19.482  18.221 -0.0253 -0.4309 -0.1617
20349W        W21213  17.739  21.106  14.457  0.0014 -0.1338 -0.0008
20350W        W21214  16.119  20.809  16.015  0.0500  0.4256  0.6097
20351W        W21215  17.358  23.882  12.446 -0.1606 -0.0447 -0.0152
20352W        W21216  12.812  22.261  17.591  0.0883 -0.1439  0.1909
20353W        W21217  17.212  23.002  16.822 -0.0022  0.0164 -0.3249
20354W        W21218  19.409  20.542  15.210 -0.1474  0.0868  0.0168
20355W        W21219  14.132  20.318  19.646  0.1036 -0.0486  0.1477
20356W        W21220  20.172  21.434  14.909  0.0116 -0.1724 -0.0520
20357W        W21221  16.831  19.852  14.924  0.0513  0.1086 -0.2953
20358W        W21222  13.916  20.375  17.612  0.0736  0.1934  0.0407
20359W        W21223  16.281  18.852  18.243 -0.1848 -0.1202 -0.1753
20360W        W21224  15.156  21.804  18.196  0.3430  0.0210 -0.0925
20361W        W21225  18.192  19.614  18.985 -0.1581 -0.4817 -0.1014
20362W        W21226  14.225  18.550  17.978  0.1228  0.1014 -0.1650
20363W        W21227  18.499  21.020  19.554  0.1014  0.0833  0.0028
20364W        W21228  15.557  20.385  15.323 -0.1806 -0.4061  0.2017
20365W        W21229  14.080  20.309  14.206  0.1861 -0.1793 -0.0649
20366W        W21230  15.494  19.607  19.877  0.0860  0.2487  0.0189
20367W        W21231  19.304  19.533  15.735  0.0987 -0.2968  0.5081
20368W        W21232  17.409  21.728  15.033 -0.0583  0.0288 -0.0264
20369W        W21233  17.739  20.316  16.150 -0.2561 -0.3462 -0.1543
20370W        W21234  13.554  20.755  20.756 -0.1201 -0.1963  0.1160
20371W        W21235  16.502  17.542  15.229  0.0007  0.1199  0.4580
20372W        W21236  19.082  19.460  20.178 -0.3081  0.1069 -0.1138
20373W        W21237  19.182  19.920  16.514 -0.0637  0.0262 -0.2104
20374W        W21238  14.775  20.056  17.711  0.0760  0.0922  0.2327
20375W        W21239  19.307  18.610  16.613  0.1071 -0.0092  0.0741
20376W        W21240  19.402  20.959  14.921 -0.0300 -0.0768  0.0723
20377W        W21241  17.219  21.178  13.660  0.1056  0.0060  0.0136
20378W        W21242  15.966  19.470  14.645 -0.0393  0.0345 -0.1363
20379W        W21243  17.720  18.659  17.858 -0.1771 -0.0976 -0.3282
20380W        W21244  14.530  19.759  13.931  0.1786 -0.3223  0.0234
20381W        W21245  15.571  20.963  16.766 -0.0155  0.2500  0.1206
20382W        W21246  16.667  17.466  16.481 -0.3445  0.1035 -0.1761
20383W        W21247  13.722  18.875  15.498  0.1772  0.3219  0.1146
20384W        W21248  20.658  20.554  16.093  0.0885 -0.0103 -0.0835
20385W        W21249  16.095  18.291  15.482  0.0155  0.1420  0.0293
20386W        W21250  17.032  23.974  17.122 -0.0827  0.1604  0.2263
20387W        W21251  15.236  19.916  16.021 -0.3681 -0.1914  0.1248
20388W        W21252  10.737  18.515  20.605 -0.2330  0.3098 -0.0975
20389W        W21253  16.798  19.346  15.835  0.0344 -0.2948  0.0439
20390W        W21254  16.517  19.800  16.679  0.0036 -0.1055  0.2632
20391W        W21255  17.705  21.271  16.545 -0.0736 -0.1324  0.2871
20392W        W21256  17.399  20.307  18.996  0.1615  0.1896 -0.1066
20393W        W21257  18.797  20.627  17.798 -0.0044 -0.1283 -0.2884
20394W        W21258  15.037  16.572  15.320 -0.2225 -0.4573  0.2643
20395W        W21259  16.273  19.984  17.803  0.1817 -0.1895 -0.0103
20396W        W21260  14.812  20.989  14.751 -0.2550  0.1312  0.1217
20397W        W21261  12.283  16.988  14.910 -0.1360 -0.0937  0.1126
20398W        W21262  16.373  19.055  15.853 -0.1859 -0.3123  0.1588
20399W        W21263  16.400  22.614  15.140  0.4548 -0.0424 -0.0946
20400W        W21264  19.100  19.554  17.085 -0.0328  0.1919 -0.0440
20401W        W21265  13.610  22.774  19.478 -0.0599  0.0747 -0.1199
20402W        W21266  14.109  20.612  17.221 -0.0713 -0.2325 -0.0785
20403W        W21267  17.198  18.148  12.941  0.1588  0.1559  0.1132
20404W        W21268  15.795  18.499  15.964  0.1609 -0.0720 -0.2296
20405W        W21269  15.508  23.072  15.663 -0.1079 -0.0431 -0.1573
20406W        W21270  16.061  21.316  12.551 -0.0491 -0.1426 -0.2911
20407W        W21271  13.959  22.874  16.761 -0.1837  0.2720 -0.0270
20408W        W21272  19.193  21.669  15.677 -0.0458  0.2169 -0.4022
20409W        W21273  13.036  18.665  16.921  0.0304  0.2375 -0.1605
20410W        W21274  16.158  22.601  14.120  0.0634  0.1235 -0.2728
20411W        W21275  17.224  20.889  16.842  0.0883 -0.0566 -0.1844
20412W        W21276  16.739  20.751  17.694 -0.1889 -0.1753  0.0303
20413W        W21277  15.065  19.827  14.970  0.0784 -0.3490  0.1379
20414W        W21278  15.541  18.567  12.449 -0.0022 -0.2038  0.0946
20415W        W21279  15.032  19.099  15.242  0.1477 -0.1519 -0.1288
20416W        W21280  14.915  21.715  13.315  0.1641 -0.0394  0.1378
20417W        W21281  14.741  16.727  18.091 -0.1001  0.0880  0.0921
20418W        W21282  17.487  19.082  15.046 -0.0958  0.1112  0.0610
20419W        W21283  18.401  20.454  19.556 -0.2740 -0.2324  0.2612
20420W        W21284  17.644  19.172  17.937  0.1227  0.0408  0.1057
20421W        W21285  17.304  20.393  16.986  0.0641  0.2471  0.0149
20422W        W21286  16.302  19.517  17.547 -0.1106  0.0726  0.0850
20423W        W21287  16.153  21.557  17.151 -0.1995  0.2643 -0.2632
20424W        W21288  17.675  22.143  15.091 -0.0841 -0.2231 -0.3074
20425W        W21289  20.549  19.314  15.576  0.1170 -0.2552 -0.2040
20426W        W21290  15.842  16.418  14.571  0.1251  0.3916 -0.3829
20427W        W21291  16.114  22.141  16.399 -0.2711 -0.0016 -0.0219
20428W        W21292  16.930  17.224  15.354 -0.0502  0.1119 -0.1863
20429W        W21293  17.293  18.387  19.758 -0.3262  0.0238  0.2078
20430W        W21294  14.651  23.077  15.321  0.1313  0.0586  0.0114
20431W        W21295  17.875  22.380  12.523 -0.0024 -0.1506 -0.0113
20432W        W21296  13.521  20.583  18.915  0.2065  0.0930  0.0305
20433W        W21297  14.862  19.250  13.448 -0.2033  0.1561 -0.1449
20434W        W21298  15.887  16.951  15.496  0.1452 -0.0739 -0.2627
20435W        W21299  14.390  21.603  16.616  0.0417 -0.1286 -0.2151
20436W        W21300  14.080  16.889  14.577  0.2322 -0.0860 -0.0274
20437W        W21301  18.236  19.910  16.770  0.2505  0.2672  0.2046
20438W        W21302  19.088  19.080  14.011 -0.0165 -0.0553  0.0979
20439W        W21303  16.100  21.617  16.212  0.0614  0.2932  0.2421
20440W        W21304  16.755  21.879  13.691  0.2083 -0.0396 -0.2132
20441W        W21305  17.269  21.481  15.885  0.0068 -0.1292 -0.0057
20442W        W21306  17.622  18.620  13.401 -0.0202 -0.0343  0.0125
20443W        W21307  14.869  21.222  15.216  0.0987  0.0907  0.0038
20444W        W21308  15.965  20.314  16.277  0.3237  0.1764  0.0228
20445W        W21309  14.608  18.129  19.291  0.3195  0.2352 -0.1582
20446W        W21310  15.159  19.320  14.306 -0.2024  0.0113 -0.1611
20447W        W21311  17.303  20.439  15.341 -0.0977 -0.0957  0.0685
20448W        W21312  13.123  19.198  13.901 -0.1205 -0.1553 -0.0480
20449W        W21313  12.919  18.448  18.411 -0.1528  0.1770 -0.2025
20450W        W21314  18.795  18.408  15.064  0.0633 -0.0202  0.0662
20451W        W21315  16.131  20.761  12.460  0.2541  0.0342 -0.1706
20452W        W21316  15.867  23.380  16.705 -0.1184 -0.0841  0.1167
20453W        W21317  17.074  22.983  17.364  0.1317 -0.1883  0.0443
20454W        W21318  16.768  21.394  13.796 -0.3034  0.0836  0.0502
20455W        W21319  15.367  21.219  15.752 -0.0518  0.0475  0.1295
20456W        W21320  19.958  16.692  12.769 -0.1384 -0.3362  0.0843
20457W        W21321  15.999  19.796  13.662 -0.1055 -0.1015  0.2750
20458W        W21322  21.235  21.028  15.635 -0.2984 -0.1127  0.1461
20459W        W21323  16.708  21.339  15.614  0.0249  0.0927  0.1278
20460W        W21324  17.179  19.598  19.178 -0.1167  0.1026 -0.0348
20461W        W21325  17.996  21.689  16.287  0.2106 -0.1507 -0.2095
20462W        W21326  15.200  20.047  16.788  0.0059  0.4132 -0.4159
20463W        W21327  17.630  19.840  15.979 -0.0117  0.2761  0.1173
20464W        W21328  14.595  24.079  18.442 -0.1502  0.2821  0.2604
20465W        W21329  16.899  18.031  16.535  0.0056  0.1292  0.0956
20466W        W21330  11.961  19.265  15.728 -0.1744  0.3849  0.1833
20467W        W21331  16.770  21.202  16.240 -0.1587 -0.1178 -0.2030
20468W        W21332  14.177  20.455  14.996  0.0998 -0.0898  0.2087
20469W        W21333  14.130  21.204  18.030  0.0740  0.2031 -0.0530
20470W        W21334  16.516  21.954  16.806 -0.2019 -0.0924 -0.1460
20471W        W21335  19.126  19.609  18.657  0.1401 -0.0435 -0.0445
20472W        W21336  15.939  18.591  17.944 -0.0411 -0.1335  0.0115
20473W        W21337  17.413  21.220  13.227  0.3869  0.0675  0.0973
20474W        W21338  15.566  22.295  18.250 -0.0475 -0.1117 -0.0061
20475W        W21339  14.369  18.153  16.500  0.2990 -0.1299  0.1452
20476W        W21340  17.150  19.428  16.933  0.0229  0.0260 -0.1891
20477W        W21341  14.697  22.025  17.880  0.3709  0.2510 -0.1643
20478W        W21342  14.972  22.036  19.239  0.1964  0.1180  0.1907
20479W        W21343  17.311  21.133  14.885 -0.1688  0.1265 -0.2773
20480W        W21344  16.929  19.943  17.080 -0.1798  0.1477 -0.1563
20481W        W21345  14.619  22.053  16.964  0.0306 -0.0009  0.1403
20482W        W21346  15.484  18.698  17.819  0.1535 -0.0993  0.0160
20483W        W21347  19.299  22.238  14.506  0.2292 -0.1989  0.1105
20484W        W21348  15.996  19.724  16.490 -0.0596 -0.0544  0.1047
20485W        W21349  17.705  21.514  12.309  0.1006 -0.2315  0.4589
20486W        W21350  14.211  20.116  13.715 -0.0898  0.0669  0.0109
20487W        W21351  14.596  25.326  22.783  0.3893 -0.0459 -0.0484
20488W        W21352  15.809  21.265  18.376  0.0804  0.3138 -0.0094
20489W        W21353  15.987  17.170  19.335 -0.3328  0.0389  0.2497
20490W        W21354  19.820  21.706  23.528  0.1191 -0.0804  0.0955
20491W        W21355  15.642  22.985  17.065 -0.2938 -0.0684 -0.0740
20492W        W21356  17.434  20.290  21.848  0.1723 -0.1843 -0.0306
20493W        W21357  16.658  19.101  18.579 -0.0367 -0.1825  0.2094
20494W        W21358  17.245  18.883  17.751  0.0458 -0.1871  0.2137
20495W        W21359  12.327  20.675  23.526  0.3989  0.0574 -0.1827
20496W        W21360  16.358  21.585  19.718 -0.2447  0.0574 -0.1317
20497W        W21361  18.133  18.390  24.609 -0.0774  0.1840 -0.0414
20498W        W21362  16.269  19.447  21.024 -0.1093  0.0825  0.5239
20499W        W21363  15.549  20.438  16.696  0.0070  0.0865  0.0681
20500W        W21364  17.449  21.204  20.770  0.0233 -0.1834 -0.0433
20501W        W21365  14.020  19.107  20.961 -0.0984  0.0815  0.0704
20502W        W21366  16.259  21.316  21.070 -0.0874  0.0584 -0.1868
20503W        W21367  14.332  21.060  17.378  0.0800  0.2362 -0.0236
20504W        W21368  13.057  16.438  23.981 -0.0370  0.1512  0.1307
20505W        W21369  11.435  19.534  21.644  0.3025 -0.2704 -0.0636
20506W        W21370  15.158  18.821  20.144 -0.1307  0.1618 -0.1749
20507W        W21371  17.881  20.855  23.359 -0.3723  0.1781  0.0559
20508W        W21372  13.471  18.909  19.303 -0.0767 -0.4017 -0.3323
20509W        W21373  17.083  21.241  21.729 -0.0170 -0.0193  0.0124
20510W        W21374  13.063  20.467  17.482  0.1150 -0.1617 -0.0674
20511W        W21375  14.635  19.044  18.584 -0.3266  0.0164 -0.4517
20512W        W21376  17.017  19.044  19.584  0.0937 -0.1119  0.1484
20513W        W21377  19.423  21.442  23.054 -0.1750 -0.1440  0.0842
20514W        W21378  15.002  22.499  19.522  0.2785 -0.0883 -0.2411
20515W        W21379  20.224  22.204  18.426  0.0550 -0.3508 -0.0097
20516W        W21380  16.901  21.076  19.518  0.2525 -0.3536 -0.0902
20517W        W21381  17.045  22.637  18.924  0.0596  0.1253  0.0131
20518W        W21382  15.334  20.586  24.092 -0.1992 -0.3012 -0.0831
20519W        W21383  17.054  22.791  21.193  0.1329 -0.1877  0.0465
20520W        W21384  16.332  21.072  19.561 -0.2039 -0.0127 -0.1732
20521W        W21385  12.465  18.539  23.071 -0.2610  0.3355 -0.0494
20522W        W21386  18.088  21.351  21.376 -0.1941  0.0957  0.3550
20523W        W21387  14.790  16.241  17.030  0.5150 -0.4603 -0.0057
20524W        W21388  17.954  20.366  21.141 -0.5303 -0.1905  0.0488
20525W        W21389  18.494  20.009  20.275  0.3679  0.1039 -0.1117
20526W        W21390  16.931  20.248  19.704 -0.2586 -0.1227  0.0684
20527W        W21391  18.243  19.805  18.365 -0.0733 -0.0739  0.0501
20528W        W21392  18.560  20.698  22.220 -0.0814 -0.4757 -0.0579
20529W        W21393  16.992  18.663  17.385  0.1359 -0.0176  0.0151
20530W        W21394  19.346  21.589  16.915 -0.1085 -0.3447 -0.0749
20531W        W21395  14.151  21.578  18.378  0.0052 -0.1654  0.1081
20532W        W21396  15.816  22.610  16.740 -0.0961 -0.0849 -0.3803
20533W        W21397  16.045  18.713  16.904 -0.0197 -0.2132 -0.3199
20534W        W21398  17.568  17.131  19.952  0.0775  0.0876  0.0188
20535W        W21399  17.202  19.368  17.863 -0.0074  0.2262 -0.2730
20536W        W21400  17.358  20.095  19.455  0.0843 -0.3946 -0.2662
20537W        W21401  18.812  20.610  18.657 -0.0582 -0.5075  0.1543
20538W        W21402  14.078  18.555  16.445  0.1687 -0.0491  0.2693
20539W        W21403  15.964  21.741  21.294 -0.0789  0.1805  0.0751
20540W        W21404  18.932  19.218  18.904 -0.2638  0.1944 -0.2244
20541W        W21405  18.770  19.041  16.984 -0.1436  0.3361 -0.0617
20542W        W21406  16.734  20.822  18.175  0.1968 -0.2153  0.1047
20543W        W21407  11.427  16.190  20.224 -0.0733 -0.2290  0.0691
20544W        W21408  14.093  20.026  22.035  0.1349 -0.0882 -0.3668
20545W        W21409  14.332  21.978  20.910  0.5105 -0.0394 -0.0566
20546W        W21410  14.792  23.348  18.074 -0.0060 -0.0948 -0.2159
20547W        W21411  17.428  18.424  16.602  0.1487 -0.4355 -0.2822
20548W        W21412  16.123  18.879  19.807 -0.0759  0.1742 -0.0861
20549W        W21413  16.479  21.094  20.472  0.2242  0.0475  0.0001
20550W        W21414  15.473  19.578  21.122  0.1024 -0.1975  0.0701
20551W        W21415  14.916  21.617  18.972 -0.1270  0.2573  0.0648
20552W        W21416  19.536  19.474  19.974 -0.0786 -0.2309  0.0154
20553W        W21417  14.677  18.943  17.552 -0.0575  0.0288  0.0844
20554W        W21418  14.609  19.102  20.012  0.2068  0.1068 -0.3606
20555W        W21419  14.519  20.528  19.876  0.3565 -0.0938  0.2174
20556W        W21420  16.371  18.964  17.284 -0.1803 -0.2332  0.0828
20557W        W21421  18.494  23.030  22.916 -0.0386 -0.2305  0.1317
20558W        W21422  15.707  19.127  16.935 -0.1283 -0.1301  0.2625
20559W        W21423  18.570  23.634  17.688  0.1906  0.0685  0.0904
20560W        W21424  16.968  21.783  21.535  0.0699 -0.1774 -0.2525
20561W        W21425  16.082  20.250  17.376  0.1088 -0.2249 -0.0478
20562W        W21426  19.915  19.969  21.619 -0.1291 -0.0503  0.0831
20563W        W21427  14.456  17.114  16.143  0.0347  0.0907  0.1754
20564W        W21428  14.479  21.409  22.921 -0.1711  0.0098 -0.1140
20565W        W21429  13.919  20.237  18.932  0.1400 -0.0456 -0.2242
20566W        W21430  15.967  19.677  18.336 -0.0417 -0.1732  0.0408
20567W        W21431  14.244  19.351  24.997 -0.0011  0.2273 -0.1261
20568W        W21432  14.470  19.006  19.550  0.0670 -0.1697 -0.2868
20569W        W21433  17.507  17.705  17.801  0.1008 -0.3119  0.1784
20570W        W21434  17.166  17.833  19.485  0.0319 -0.3848 -0.4153
20571W        W21435  16.711  19.677  20.847  0.1260 -0.1376 -0.3467
20572W        W21436  13.851  19.120  20.264 -0.1074 -0.0118  0.1143
20573W        W21437  17.050  20.841  19.913 -0.2163 -0.2329  0.1764
20574W        W21438  18.557  19.797  22.524 -0.1822  0.1001 -0.0257
20575W        W21439  16.952  20.176  24.547 -0.0079 -0.1153 -0.0624
20576W        W21440  16.688  19.381  19.729 -0.3602  0.2086 -0.2088
20577W        W21441  17.971  18.684  19.934  0.1985 -0.1811  0.0606
20578W        W21442  17.125  21.587  20.618  0.1795  0.0987 -0.5632
20579W        W21443  16.103  19.908  20.303  0.0932 -0.0548 -0.1773
20580W        W21444  17.144  21.419  19.271 -0.2117  0.1623 -0.0188
20581W        W21445  14.002  20.014  20.399  0.0702  0.1228  0.2671
20582W        W21446  17.331  19.184  16.481  0.1767  0.0935  0.0238
20583W        W21447  15.251  20.678  18.766  0.2827 -0.0508 -0.2071
20584W        W21448  16.383  21.118  22.988  0.1395 -0.3642  0.0241
20585W        W21449  13.857  19.171  18.281 -0.0518  0.0091  0.0621
20586W        W21450  19.447  18.175  19.764  0.0053 -0.0288  0.0087
20587W        W21451  17.354  19.890  18.638  0.1712  0.3878  0.0020
20588W        W21452  15.082  16.526  20.619 -0.3786  0.4512 -0.1521
20589W        W21453  16.525  20.467  18.501  0.4170 -0.0899  0.2895
20590W        W21454  17.891  19.134  19.206 -0.2158 -0.3043  0.2257
20591W        W21455  18.207  22.321  20.973 -0.1196  0.2822 -0.0746
20592W        W21456  15.829  19.182  18.946  0.1720  0.0724  0.1716
20593W        W21457  18.211  21.689  19.668 -0.0591  0.3023  0.2935
20594W        W21458  15.037  22.608  21.255 -0.1376  0.1136 -0.1063
20595W        W21459  15.372  17.549  16.422 -0.0267  0.0559  0.0601
20596W        W21460  16.805  19.361  16.551 -0.0880 -0.2006  0.1226
20597W        W21461  14.071  20.704  22.643 -0.2010 -0.1603 -0.0172
20598W        W21462  16.273  20.862  18.676 -0.1714  0.1742  0.0203
20599W        W21463  17.755  20.497  17.312  0.0653  0.0953 -0.1380
20600W        W21464  15.269  21.469  18.548 -0.0623 -0.2037 -0.0946
20601W        W21465  18.503  19.182  16.077 -0.1080  0.0789 -0.0190
20602W        W21466  16.973  21.322  18.324 -0.3389 -0.1374 -0.3503
20603W        W21467  18.689  19.837  19.605  0.1746  0.0942 -0.2102
20604W        W21468  16.302  22.163  19.393 -0.1345 -0.0738  0.0011
20605W        W21469  16.377  18.280  19.626 -0.3914  0.2594 -0.1406
20606W        W21470  14.300  16.884  15.673 -0.0601  0.0263 -0.2823
20607W        W21471  18.383  17.721  17.750  0.0211 -0.3334 -0.0084
20608W        W21472  17.325  16.427  17.402  0.2414 -0.4087  0.1001
20609W        W21473  17.079  22.714  17.973  0.2071  0.0670  0.2353
20610W        W21474  17.340  21.574  16.349  0.0405  0.2258 -0.1941
20611W        W21475  17.617  20.250  22.292  0.2486  0.0468 -0.0117
20612W        W21476  14.860  20.020  20.843 -0.1454  0.0487 -0.0343
20613W        W21477  16.267  18.816  18.781  0.0059  0.2957 -0.0611
20614W        W21478  16.122  18.913  22.995 -0.3180  0.0981  0.0098
20615W        W21479  14.792  23.715  20.000 -0.1151  0.1774  0.0560
20616W        W21480  15.724  21.036  17.767 -0.2026  0.0392  0.1926
20617W        W21481  18.993  21.057  19.280 -0.0120  0.0818 -0.2533
20618W        W21482  17.862  19.205  19.744 -0.0060  0.0643  0.0023
20619W        W21483  16.675  20.186  22.710  0.1570  0.0165  0.2796
20620W        W21484  20.188  18.654  20.319 -0.0646  0.0833 -0.1755
20621W        W21485  20.020  18.785  19.658 -0.1463 -0.1560 -0.0453
20622W        W21486  17.507  18.627  21.036 -0.0129  0.1004  0.1212
20623W        W21487  18.363  19.105  18.949 -0.1594 -0.0140  0.0176
20624W        W21488  19.292  16.927  18.360 -0.3782  0.0318  0.2059
20625W        W21489  17.220  21.931  19.600  0.1792 -0.1774 -0.0332
20626W        W21490  15.921  22.053  17.539  0.1155 -0.1083 -0.2314
20627W        W21491  13.615  17.353  18.867 -0.1466  0.1514 -0.1370
20628W        W21492  15.853  17.499  23.207 -0.0254  0.0008  0.3408
20629W        W21493  14.918  20.074  16.377 -0.0695  0.1406 -0.0102
20630W        W21494  14.400  20.697  21.309  0.1302 -0.1522  0.0660
20631W        W21495  16.027  20.925  19.167 -0.1188 -0.0737 -0.0775
20632W        W21496  16.487  20.130  19.483 -0.0565 -0.1538  0.0124
20633W        W21497  17.290  19.125  17.323 -0.2752  0.0932 -0.1135
20634W        W21498  19.608  20.433  20.293 -0.3630  0.0640 -0.1958
20635W        W21499  15.984  20.873  21.143 -0.0199  0.0130 -0.0330
20636W        W21500  17.598  20.608  19.309 -0.0631 -0.0048 -0.3158
20637W        W21501  16.746  21.639  22.001  0.0112 -0.0336  0.2846
20638W        W21502  13.100  18.089  17.880 -0.1736 -0.0684 -0.1795
20639W        W21503  16.449  18.714  17.691  0.3262  0.0205  0.0187
20640W        W21504  14.802  18.439  17.284  0.2273 -0.0387  0.1004
20641W        W21505  18.038  19.318  18.457 -0.0099  0.0916  0.0619
20642W        W21506  17.844  18.215  19.791 -0.1496 -0.0448 -0.1456
20643W        W21507  11.975  19.927  22.759  0.3528  0.1781 -0.1837
20644W        W21508  16.348  22.568  18.462  0.0316 -0.0827  0.0988
20645W        W21509  13.496  18.257  17.651  0.0291  0.1035 -0.0466
20646W        W21510  15.457  19.982  18.249  0.1119  0.1662 -0.1260
20647W        W21511  16.479  17.429  20.231 -0.0595  0.0727  0.1548
20648W        W21512  17.887  21.114  20.511  0.1819  0.3054  0.2409
20649W        W21513  16.020  19.499  23.031  0.1313  0.3592  0.1051
20650W        W21514  17.881  21.068  22.301  0.1437 -0.1727  0.2072
20651W        W21515  18.070  16.740  20.799  0.3840  0.0784  0.0621
20652W        W21516  17.365  19.461  18.350 -0.0430 -0.1227  0.1139
20653W        W21517  14.083  20.133  18.275  0.1364 -0.2191  0.0240
20654W        W21518  14.163  22.210  18.585 -0.2185  0.2246  0.1869
20655W        W21519  17.760  22.407  20.779  0.0767 -0.2346  0.0619
20656W        W21520  17.015  20.616  19.414 -0.0380  0.0727  0.2956
20657W        W21521  18.492  18.924  18.478  0.0485 -0.0003 -0.1160
20658W        W21522  16.779  18.575  19.619 -0.0155 -0.1272  0.1194
20659W        W21523  15.096  20.342  18.494  0.4942  0.0236  0.2081
20660W        W21524  16.796  21.729  16.439  0.1022  0.3201 -0.0363
20661W        W21525  16.648  19.930  18.175 -0.1053  0.0053 -0.1017
20662W        W21526  20.078  22.907  16.060 -0.0362 -0.2604  0.1484
20663W        W21527  14.598  21.559  23.895  0.0625  0.2492 -0.0870
20664W        W21528  16.074  19.682  18.853  0.1444 -0.1517 -0.3008
20665W        W21529  13.756  21.210  21.014  0.1448 -0.0843 -0.3372
20666W        W21530  16.970  17.119  18.563 -0.1657 -0.1174 -0.0460
20667W        W21531  18.622  21.019  18.986  0.1068 -0.1227  0.0358
20668W        W21532  16.252  23.949  20.020 -0.1060  0.1041  0.2107
20669W        W21533  17.713  19.461  16.744  0.1466  0.0184 -0.0756
20670W        W21534  16.358  21.575  17.691  0.2038 -0.0768  0.1885
20671W        W21535  14.865  17.993  18.738 -0.1098 -0.0147 -0.0682
20672W        W21536  17.474  20.515  19.796  0.0253  0.2326 -0.2252
20673W        W21537  14.409  18.453  21.447  0.1079  0.1399 -0.2682
20674W        W21538  13.509  15.827  16.558 -0.1301 -0.3601 -0.1955
20675W        W21539  15.800  20.880  21.584  0.0240  0.2522 -0.1330
20676W        W21540  16.449  21.966  21.064  0.0919 -0.0338  0.1744
20677W        W21541  13.335  21.706  18.785 -0.0820 -0.0434  0.0226
20678W        W21542  16.847  19.217  17.491 -0.1631  0.1104 -0.1151
20679W        W21543  15.148  19.666  22.550 -0.1066  0.0628  0.3055
20680W        W21544  15.335  19.245  18.918  0.0401 -0.0077  0.1309
20681W        W21545  14.968  17.256  24.345 -0.2640  0.1428  0.2897
20682W        W21546  14.947  17.377  21.180 -0.2640  0.4410 -0.2447
20683W        W21547  13.996  17.169  17.533 -0.0294 -0.0030  0.1140
20684W        W21548  14.991  19.920  20.304 -0.1598  0.0338  0.2614
20685W        W21549  14.925  19.164  19.259 -0.2109 -0.3221  0.1954
20686W        W21550  18.894  17.307  21.861  0.2017 -0.0930 -0.1715
20687W        W21551  15.306  18.551  21.037 -0.1595  0.0897 -0.0570
20688W        W21552  18.433  17.389  20.356 -0.0600  0.1717  0.0139
20689W        W21553  19.504  19.499  17.371  0.1709  0.0705 -0.0174
20690W        W21554  15.902  19.479  19.416 -0.1280 -0.0872  0.2887
20691W        W21555  17.526  18.768  18.977  0.0841 -0.0662 -0.0937
20692W        W21556  12.914  19.433  16.332 -0.0399 -0.2212  0.0687
20693W        W21557  16.615  20.336  23.683  0.0550  0.0073 -0.1636
20694W        W21558  15.815  19.999  21.120 -0.0891  0.3192  0.0343
20695W        W21559  17.244  21.593  17.970 -0.1415  0.1485 -0.0280
20696W        W21560  16.280  19.495  15.174  0.1113  0.0613  0.2940
20697W        W21561  16.477  19.002  22.195 -0.3407 -0.2061  0.2711
20698W        W21562  18.337  19.072  20.017 -0.0507  0.1131  0.1778
20699W        W21563  16.442  22.974  20.201 -0.2039  0.0195 -0.0516
20700W        W21564  18.558  21.371  20.007 -0.1045  0.0989  0.1154
20701W        W21565  16.661  17.001  20.069  0.0189  0.0433  0.0509
20702W        W21566  16.072  19.079  17.763  0.0413 -0.0210  0.0321
20703W        W21567  15.709  19.995  18.659 -0.1286 -0.3923 -0.0664
20704W        W21568  19.393  22.000  19.201  0.1773  0.0991  0.2562
20705W        W21569  15.400  21.683  21.366 -0.2038  0.2492  0.3207
20706W        W21570  14.966  19.892  25.185 -0.0824  0.0152 -0.1748
20707W        W21571  18.397  21.235  22.155  0.0389 -0.0975  0.0009
20708W        W21572  16.624  20.792  19.123 -0.0181  0.0772  0.1706
20709W        W21573  15.748  20.045  20.649  0.0460 -0.3361  0.2885
20710W        W21574  16.015  18.067  17.985 -0.0329 -0.2961 -0.0922
20711W        W21575  16.831  22.696  18.473 -0.1505  0.1286 -0.1547
20712W        W21576  16.279  19.079  20.272  0.3282 -0.3234 -0.1880
20713W        W21577  13.534  19.792  22.701  0.3281 -0.0629 -0.0608
20714W        W21578  18.845  18.415  23.108 -0.0467 -0.0587  0.0866
20715W        W21579  17.624  23.452  18.215  0.1600  0.1527 -0.0743
20716W        W21580  19.637  21.936  20.535 -0.3276  0.1072 -0.0255
20717W        W21581  14.145  20.971  20.896  0.2789 -0.2076 -0.0943
20718W        W21582  15.568  19.042  19.891 -0.0184 -0.5233 -0.1654
20719W        W21583  13.787  21.289  16.491 -0.4121 -0.2777 -0.1509
20720W        W21584  18.850  17.249  19.486  0.1088  0.0876 -0.1181
20721W        W21585  17.797  19.134  20.236 -0.0873  0.3785 -0.2334
20722W        W21586  18.498  21.818  20.226  0.4815 -0.1391 -0.2776
20723W        W21587  18.361  20.426  16.864 -0.0595 -0.0216 -0.1387
20724W        W21588  16.338  19.642  19.462 -0.0991 -0.2204  0.0377
20725W        W21589  14.601  20.164  21.461 -0.1919 -0.1646  0.3505
20726W        W21590  18.025  18.893  18.163  0.0695 -0.3056  0.0058
20727W        W21591  19.372  20.570  18.590 -0.1226 -0.0520 -0.0467
20728W        W21592  14.476  19.741  21.221  0.1852  0.2371 -0.0055
20729W        W21593  15.090  18.807  18.834 -0.2039  0.0583  0.1466
20730W        W21594  12.891  19.487  20.972  0.3499  0.1494  0.2019
20731W        W21595  20.031  22.552  19.499 -0.0829  0.0221  0.0503
20732W        W21596  16.179  19.472  16.880 -0.0967  0.0794 -0.0098
20733W        W21597  18.066  20.029  22.476 -0.0497  0.3337  0.0454
20734W        W21598  17.586  21.094  21.506  0.0852  0.2766  0.0076
20735W        W21599  17.744  21.534  17.818  0.0380 -0.2493 -0.0294
20736W        W21600  13.381  21.006  22.809 -0.0072 -0.0099  0.0530
20737W        W21601  12.532  19.689  21.752 -0.0044  0.0413 -0.0502
20738W        W21602  15.168  21.345  21.040  0.0355  0.1618  0.2053
20739W        W21603  14.024  21.136  24.030 -0.0407  0.0844  0.1829
20740W        W21604  16.437  17.876  20.044  0.0218 -0.3741 -0.0940
20741W        W21605  14.441  20.345  20.901 -0.0688 -0.1395 -0.2602
20742W        W21606  17.022  21.163  17.755  0.3200  0.1651  0.3454
20743W        W21607  17.558  19.598  19.539 -0.0829 -0.4860 -0.0691
20744W        W21608  15.948  20.792  18.154 -0.1315 -0.5357 -0.0048
20745W        W21609  17.256  22.315  19.869 -0.3319 -0.0758 -0.0677
20746W        W21610  15.696  18.592  20.023 -0.1990 -0.1174 -0.1707
20747W        W21611  16.887  18.943  20.230  0.1786  0.1152  0.1367
20748W        W21612  16.655  20.599  22.918  0.0613 -0.2292 -0.0817
20749W        W21613  15.963  24.102  19.641 -0.0582  0.0490  0.1703
20750W        W21614  18.091  16.956  24.040 -0.0045 -0.2212  0.2817
20751W        W21615  14.591  22.945  21.342 -0.0872 -0.0093 -0.0809
20752W        W21616  15.749  19.750  25.279 -0.1276  0.1022 -0.1232
20753W        W21617  14.520  21.810  19.324 -0.0730  0.4913  0.2418
20754W        W21618  18.696  21.876  19.720  0.1814 -0.2791 -0.0919
20755W        W21619  18.741  17.703  21.365  0.1525  0.1657 -0.0756
20756W        W21620  19.420  19.921  16.016  0.3440  0.1469 -0.0419
20757W        W21621  15.006  20.659  18.085  0.0700  0.0943 -0.0290
20758W        W21622  18.207  20.764  20.884  0.1381 -0.0222  0.1712
20759W        W21623  16.894  20.148  19.199  0.0625 -0.1507 -0.0482
20760W        W21624  16.614  21.178  19.999  0.2679 -0.1232  0.1596
20761W        W21625  18.296  17.478  18.255 -0.3424  0.1424 -0.1798
20762W        W21626  17.910  17.351  20.236  0.0304 -0.0633  0.3481
20763W        W21627  17.017  19.462  20.478  0.2917 -0.0211 -0.0526
20764W        W21628  14.028  21.126  18.526 -0.2546  0.1018  0.1296
20765W        W21629  14.581  19.482  15.132 -0.1583  0.0808 -0.2310
20766W        W21630  13.185  21.160  21.092 -0.2942  0.3506  0.0352
20767W        W21631  15.796  21.969  20.452 -0.2006 -0.0658 -0.0267
20768W        W21632  16.994  19.529  18.730 -0.1843  0.1348 -0.1008
20769W        W21633  18.784  21.914  17.108 -0.1487  0.1134  0.0609
20770W        W21634  12.661  22.043  23.014 -0.1596 -0.2093  0.0062
20771W        W21635  16.678  19.060  17.929 -0.0402  0.0513  0.0111
20772W        W21636  19.769  19.002  20.049  0.2157 -0.0316 -0.1324
20773W        W21637  18.308  18.763  20.434 -0.1200  0.1913 -0.3400
20774W        W21638  14.234  17.602  21.319  0.2656  0.0303 -0.0653
20775W        W21639  19.091  18.732  17.577  0.1604 -0.2319  0.0368
20776W        W21640  18.649  21.323  17.798  0.3381 -0.0300 -0.2644
20777W        W21641  15.296  18.351  18.613 -0.0106  0.1127 -0.0542
20778W        W21642  15.181  17.994  16.964  0.1051  0.2071  0.1720
20779W        W21643  18.608  21.179  21.123  0.1396 -0.0676 -0.1896
20780W        W21644  12.113  19.612  21.455 -0.0303 -0.0709  0.0070
20781W        W21645  13.731  20.951  17.363 -0.0610 -0.0162 -0.1870
20782W        W21646  15.609  20.444  19.666  0.0827 -0.0029  0.1627
20783W        W21647  18.683  17.065  19.070 -0.1897  0.0237 -0.0078
20784W        W21648  17.839  21.542  20.713 -0.0805  0.1425 -0.0504
20785W        W21649  20.191  22.084  19.759 -0.0795  0.3770 -0.0117
20786W        W21650  15.302  20.109  17.788  0.1841 -0.1581 -0.0864
20787W        W21651  16.344  20.691  20.185 -0.0728 -0.2564 -0.1865
20788W        W21652  15.936  18.052  21.712  0.0146  0.0114 -0.2732
20789W        W21653  16.783  22.085  19.830 -0.0960 -0.2763 -0.0523
20790W        W21654  18.848  19.067  19.937  0.1165 -0.4902 -0.0050
20791W        W21655  18.851  18.457  16.641  0.1259 -0.0136 -0.0794
20792W        W21656  15.084  20.420  22.749  0.2353  0.0142  0.1085
20793W        W21657  16.427  21.910  23.494 -0.1360  0.2451 -0.0893
20794W        W21658  15.703  18.860  17.341  0.0781  0.2721  0.0671
20795W        W21659  16.905  15.938  18.229 -0.0332  0.0763  0.2841
20796W        W21660  15.737  18.791  18.568 -0.2274  0.0685  0.2992
20797W        W21661  14.670  18.052  16.959 -0.3836 -0.0782  0.2993
20798W        W21662  16.011  20.449  18.865  0.1591 -0.1566 -0.1241
20799W        W21663  16.088  17.137  17.936 -0.1506 -0.1108 -0.0969
20800W        W21664  17.296  21.333  18.731  0.1058  0.0148  0.0559
20801W        W21665  12.824  19.817  22.382 -0.1683 -0.0766 -0.0823
20802W        W21666  16.248  20.812  24.326 -0.0566  0.1980 -0.0187
20803W        W21667  14.985  19.837  18.195 -0.0215 -0.0464  0.0949
20804W        W21668  15.709  17.584  19.810  0.2754 -0.0541  0.2024
20805W        W21669  17.314  20.362  23.945  0.2317 -0.0612  0.4006
20806W        W21670  13.102  19.769  20.526  0.1187  0.3827 -0.2001
20807W        W21671  13.807  21.238  20.479 -0.2048 -0.1962  0.3341
20808W        W21672  18.203  21.284  16.479  0.0142  0.0041 -0.0132
20809W        W21673  15.612  20.503  21.318 -0.0810 -0.0971 -0.0065
20810W        W21674  17.194  19.583  21.405  0.2402  0.2198  0.2326
20811W        W21675  12.021  16.620  21.449  0.0509 -0.6464  0.2933
20812W        W21676  14.733  20.677  18.484 -0.0946 -0.0852  0.1867
20813W        W21677  12.585  16.540  21.754  0.2472 -0.0318 -0.2734
20814W        W21678  15.983  20.082  16.818 -0.2245  0.0099 -0.1269
20815W        W21679  15.805  19.466  20.805 -0.1255  0.0406  0.0168
20816W        W21680  15.151  20.796  19.315  0.2668 -0.1453 -0.1429
20817W        W21681  16.343  19.925  21.201  0.0976  0.0826  0.2852
20818W        W21682  17.567  18.620  14.825  0.2100 -0.0466 -0.1363
20819W        W21683  16.378  23.300  21.166  0.0508 -0.2086  0.1029
20820W        W21684  14.773  23.908  23.850 -0.1626  0.0682 -0.2289
20821W        W21685  16.346  22.290  20.030 -0.1602  0.0302  0.0633
20822W        W21686  17.845  18.838  21.569  0.0086 -0.0292 -0.0705
20823W        W21687  16.741  21.644  18.003 -0.1796  0.0194  0.0343
20824W        W21688  18.749  20.640  19.264  0.1943  0.0360 -0.0365
20825W        W21689  18.258  19.059  16.954 -0.0981 -0.1119 -0.0204
20826W        W21690  17.501  16.704  21.822 -0.2658  0.1550 -0.3186
20827W        W21691  15.665  22.558  17.779  0.0440  0.1925 -0.5820
20828W        W21692  16.201  17.603  18.206  0.2234 -0.0857 -0.0315
20829W        W21693  16.158  18.115  21.065  0.0508 -0.1609  0.0875
20830W        W21694  16.458  23.267  18.327 -0.1129 -0.1986  0.0591
20831W        W21695  16.836  20.011  18.639 -0.1971  0.1907 -0.0695
20832W        W21696  13.173  18.904  23.554  0.0181  0.1207  0.0353
20833W        W21697  14.062  21.435  19.989 -0.1231  0.0969  0.1848
20834W        W21698  15.030  17.417  22.690 -0.0429  0.0475 -0.0612
20835W        W21699  17.325  21.796  18.914  0.0141  0.2436 -0.1592
20836W        W21700  13.476  16.848  18.840 -0.2711  0.1025  0.0635
20837W        W21701  16.311  17.655  22.996 -0.2941  0.2512 -0.5073
20838W        W21702  16.701  21.029  16.826  0.2853 -0.0590 -0.3226
20839W        W21703  17.631  21.891  19.964  0.2828 -0.2123  0.1980
20840W        W21704  17.461  21.952  20.736  0.0071 -0.0511  0.0270
20841W        W21705  14.385  20.400  18.737  0.1722 -0.0033 -0.0602
20842W        W21706  15.948  17.756  18.977 -0.1419 -0.1087 -0.2130
20843W        W21707  14.757  23.495  22.215  0.1336  0.0634  0.0264
20844W        W21708  18.578  19.516  19.974  0.2039  0.1023 -0.0334
20845W        W21709  15.202  19.433  21.699  0.2427  0.1104 -0.0487
20846W        W21710  14.717  17.887  17.926 -0.0336  0.0429 -0.0794
20847W        W21711  16.773  19.303  19.182 -0.0733  0.0117  0.0635
20848W        W21712  18.141  18.323  20.669 -0.0869 -0.2117  0.2008
20849W        W21713  11.626  19.987  21.631 -0.2246 -0.0880 -0.1052
20850W        W21714  14.808  17.650  20.792  0.0704  0.1957  0.0186
20851W        W21715  16.477  22.051  17.883 -0.1686 -0.3642  0.0802
20852W        W21716  16.939  19.669  23.351 -0.2020 -0.1243  0.0560
20853W        W21717  16.826  21.527  18.826  0.0290  0.0521 -0.0337
20854W        W21718  18.905  21.807  19.267  0.0596  0.0783  0.0160
20855W        W21719  15.386  18.300  16.503 -0.0048  0.1041 -0.1762
20856W        W21720  20.708  20.157  14.323  0.3014  0.0548 -0.0571
20857W        W21721  14.843  22.859  18.163  0.1206  0.0132  0.0549
20858W        W21722  19.118  16.521  18.996 -0.0175  0.2056  0.0390
20859W        W21723  16.946  19.772  19.568  0.0084  0.1036 -0.2268
20860W        W21724  19.602  19.156  23.362 -0.1397 -0.1773 -0.0020
20861W        W21725  19.692  21.824  17.159  0.0699 -0.1476 -0.0539
20862W        W21726  15.749  19.501  20.332  0.5064 -0.1425 -0.0249
20863W        W21727  16.462  20.788  20.946  0.1921  0.2604 -0.3099
20864W        W21728  19.064  21.693  20.070  0.1013 -0.1055 -0.2250
20865W        W21729  18.176  19.319  21.710 -0.0584 -0.0851 -0.0357
20866W        W21730  12.813  20.990  21.857  0.0156  0.0791  0.5114
20867W        W21731  14.577  21.383  19.972  0.1686 -0.0553 -0.1389
20868W        W21732  15.580  19.911  19.430  0.3011 -0.4211 -0.6025
20869W        W21733  13.338  21.117  21.581 -0.0319 -0.1663  0.0921
20870W        W21734  15.364  20.565  20.180 -0.4234 -0.1190  0.2054
20871W        W21735  16.161  21.625  18.114  0.2639  0.0367  0.1733
20872W        W21736  17.342  22.701  22.054  0.0160 -0.1610  0.1639
20873W        W21737  16.730  21.047  18.679  0.0029 -0.0350 -0.4176
20874W        W21738  14.336  21.641  21.740  0.0958  0.3496 -0.2043
20875W        W21739  17.543  21.502  20.314  0.1539  0.5710 -0.0285
20876W        W21740  20.095  20.259  20.460 -0.1044  0.0175  0.0371
20877W        W21741  15.182  20.761  25.221  0.0701  0.2904 -0.1611
20878W        W21742  13.492  20.930  19.304 -0.1400  0.2471  0.1355
20879W        W21743  17.802  21.396  19.828  0.0307  0.0812 -0.2261
20880W        W21744  17.151  19.801  20.046 -0.0784  0.3373 -0.0820
20881W        W21745  18.896  21.812  17.732 -0.0659 -0.0586  0.0057
20882W        W21746  17.760  18.738  20.638 -0.0673 -0.0926 -0.2496
20883W        W21747  15.397  22.301  19.269 -0.0477  0.1165 -0.2373
20884W        W21748  16.587  19.208  20.665  0.0577  0.1503 -0.0583
20885W        W21749  13.699  21.318  19.619  0.3221  0.0443  0.0417
20886W        W21750  13.493  20.206  18.540  0.0038 -0.1013 -0.0710
20887W        W21751  17.855  21.851  26.128 -0.0066  0.1851  0.2807
20888W        W21752  14.460  19.794  25.102 -0.0452 -0.1798 -0.1402
20889W        W21753  17.840  21.074  21.059  0.0209 -0.3441  0.0192
20890W        W21754  17.888  19.906  25.660  0.0280 -0.0717  0.0982
20891W        W21755  15.790  23.561  22.024  0.1035  0.2443 -0.0814
20892W        W21756  17.717  20.198  25.325  0.0018 -0.2237  0.0101
20893W        W21757  14.471  19.220  26.594  0.3263  0.3461  0.0143
20894W        W21758  15.565  21.094  19.283 -0.0784  0.2599  0.3895
20895W        W21759  19.416  22.295  26.548  0.0249  0.2789  0.0851
20896W        W21760  14.118  17.257  21.757 -0.1438 -0.1518  0.1508
20897W        W21761  14.593  16.581  23.647  0.1211 -0.1175 -0.1187
20898W        W21762  15.536  17.426  25.667 -0.2255  0.0507 -0.1387
20899W        W21763  17.487  20.039  21.405  0.1678 -0.0300 -0.0956
20900W        W21764  19.692  17.699  27.763  0.0571 -0.1549  0.5555
20901W        W21765  12.955  18.540  24.991  0.0591 -0.2261 -0.2887
20902W        W21766  14.015  22.528  28.328  0.1388  0.0657 -0.1709
20903W        W21767  17.214  18.839  23.285  0.2744  0.1422  0.3401
20904W        W21768  13.496  19.598  24.404 -0.1720  0.1477  0.0457
20905W        W21769  17.467  21.178  26.134 -0.0257  0.3123  0.1286
20906W        W21770  15.319  19.598  24.467 -0.2200 -0.1299  0.2890
20907W        W21771  18.503  19.689  26.785  0.4703  0.2701 -0.2705
20908W        W21772  16.217  20.594  23.819  0.1945 -0.2493 -0.1279
20909W        W21773  17.837  22.676  24.866  0.3151  0.2428 -0.2460
20910W        W21774  13.131  19.314  23.132 -0.0155 -0.2106 -0.1532
20911W        W21775  14.281  19.231  22.988  0.2988 -0.0447  0.0161
20912W        W21776  16.032  19.158  24.609 -0.4004 -0.0374 -0.0559
20913W        W21777  18.693  22.093  25.960  0.1885 -0.1061  0.1121
20914W        W21778  17.049  22.483  24.496  0.2875 -0.0760  0.2948
20915W        W21779  19.123  19.700  25.085 -0.2655 -0.0436 -0.1000
20916W        W21780  17.252  21.880  23.239  0.2124  0.1814 -0.0753
20917W        W21781  14.227  20.899  25.588  0.0999  0.2061  0.0687
20918W        W21782  14.952  21.631  25.544  0.2795 -0.1541 -0.0400
20919W        W21783  17.384  21.581  24.364  0.0166  0.0885 -0.1669
20920W        W21784  19.347  23.633  23.840  0.2063 -0.2563 -0.0599
20921W        W21785  15.088  20.351  26.932  0.1989  0.0043 -0.1739
20922W        W21786  14.046  20.616  27.603  0.1278  0.4987  0.0194
20923W        W21787  16.205  19.962  22.139  0.1225  0.2146 -0.0063
20924W        W21788  14.881  19.447  26.342  0.2186  0.1110 -0.0384
20925W        W21789  16.407  19.019  24.035  0.0531 -0.0618  0.1688
20926W        W21790  15.971  17.329  27.283  0.0252 -0.1610  0.0321
20927W        W21791  18.396  20.078  19.174 -0.0544  0.0136 -0.2804
20928W        W21792  18.051  20.267  24.584  0.2086  0.0575 -0.0193
20929W        W21793  13.452  21.448  25.686  0.0013  0.2533 -0.3323
20930W        W21794  18.360  22.712  24.466 -0.1732 -0.2286 -0.0268
20931W        W21795  16.460  20.286  21.510 -0.1959  0.1356 -0.0787
20932W        W21796  14.368  23.629  23.848 -0.0325 -0.2637  0.3524
20933W        W21797  14.226  20.447  24.788 -0.2107 -0.6038  0.2479
20934W        W21798  18.179  20.170  25.324 -0.0879  0.0639 -0.4152
20935W        W21799  17.349  19.400  23.363 -0.2513  0.2775  0.0801
20936W        W21800  16.455  20.347  24.415  0.1037 -0.3711  0.3488
20937W        W21801  16.887  21.570  25.084 -0.1736 -0.3193 -0.1639
20938W        W21802  14.373  20.599  24.317  0.1513  0.1719 -0.3193
20939W        W21803  17.303  20.312  25.067 -0.1470 -0.1947 -0.2856
20940W        W21804  16.942  21.871  23.716  0.4773  0.1389 -0.3150
20941W        W21805  17.111  21.090  24.263  0.0061  0.0203 -0.3365
20942W        W21806  14.467  21.079  23.580  0.1751  0.2113  0.2419
20943W        W21807  13.740  20.016  25.424 -0.0493  0.0076 -0.0990
20944W        W21808  17.723  17.576  23.705  0.1787 -0.0390 -0.0102
20945W        W21809  15.477  20.110  26.600  0.0437  0.1408 -0.0618
20946W        W21810  18.266  20.911  22.625  0.0376 -0.1471 -0.1161
20947W        W21811  18.951  20.429  22.990 -0.2012 -0.2467 -0.1310
20948W        W21812  15.423  21.629  25.069  0.3716  0.0377  0.1834
20949W        W21813  13.079  22.970  27.316  0.2602  0.3623  0.3629
20950W        W21814  13.581  19.857  23.749  0.2461  0.2655 -0.1169
20951W        W21815  12.354  20.977  24.562  0.0586 -0.0411 -0.0140
20952W        W21816  16.210  18.924  27.673 -0.0215 -0.2304  0.2337
20953W        W21817  16.527  20.442  20.609  0.0710 -0.0430 -0.0911
20954W        W21818  16.842  20.785  20.352 -0.0800 -0.0026 -0.1258
20955W        W21819  15.150  22.186  22.808  0.1259  0.1886 -0.3528
20956W        W21820  16.950  20.105  21.560 -0.0883  0.0149  0.0902
20957W        W21821  19.259  22.106  25.941  0.1160 -0.0513  0.3099
20958W        W21822  17.522  22.824  20.528 -0.1805  0.0835  0.0198
20959W        W21823  21.486  23.006  21.777  0.1693  0.0764  0.1174
20960W        W21824  16.737  20.232  26.498  0.0524  0.1562 -0.0814
20961W        W21825  16.039  20.724  22.838 -0.1440  0.1447  0.5159
20962W        W21826  15.569  19.575  23.394 -0.0229 -0.1486  0.2114
20963W        W21827  16.312  20.988  27.083 -0.0866 -0.0632  0.2377
20964W        W21828  13.905  20.658  24.227  0.0571 -0.1345 -0.0456
20965W        W21829  15.243  21.560  22.334 -0.1889  0.0230 -0.0979
20966W        W21830  13.767  21.081  25.840 -0.4165 -0.0504 -0.0009
20967W        W21831  15.063  19.579  27.342 -0.1857  0.1060  0.2754
20968W        W21832  16.438  20.037  24.789 -0.4203  0.0227 -0.0499
20969W        W21833  16.267  20.283  22.996 -0.1257 -0.1612  0.2181
20970W        W21834  15.627  20.840  25.534  0.2981 -0.1560 -0.0142
20971W        W21835  17.977  19.828  21.362 -0.4025  0.0752 -0.1095
20972W        W21836  21.070  21.088  23.885  0.0622  0.0512  0.0761
20973W        W21837  18.488  18.850  26.871  0.0706 -0.0156 -0.2175
20974W        W21838  16.439  20.242  25.264 -0.0072 -0.3222 -0.1294
20975W        W21839  15.327  20.311  25.910  0.1217  0.0138 -0.2453
20976W        W21840  15.864  20.463  23.409  0.2705 -0.1711 -0.4090
20977W        W21841  16.285  22.545  24.775 -0.0943  0.1002  0.3075
20978W        W21842  15.081  22.208  24.056  0.0979  0.0349  0.2287
20979W        W21843  17.368  18.825  21.757 -0.0489 -0.3605 -0.1870
20980W        W21844  14.576  17.282  22.938 -0.0669  0.2005 -0.0726
20981W        W21845  15.614  17.109  22.943  0.2111 -0.2187 -0.2591
20982W        W21846  19.925  20.885  25.479  0.0416  0.4266 -0.1042
20983W        W21847  17.334  24.105  25.081  0.0067 -0.1495  0.1530
20984W        W21848  15.727  18.757  24.919 -0.2012  0.1870 -0.0747
20985W        W21849  19.463  19.265  22.336 -0.2485  0.0797 -0.3404
20986W        W21850  16.973  22.908  22.451  0.0374  0.2823 -0.0318
20987W        W21851  15.080  18.518  24.932 -0.3732 -0.0490 -0.0268
20988W        W21852  16.311  18.418  24.212 -0.1253  0.1092  0.1273
20989W        W21853  17.890  24.057  24.994 -0.0169  0.0153 -0.0870
20990W        W21854  17.738  20.690  22.032  0.0001 -0.1575 -0.0875
20991W        W21855  17.746  19.516  26.563 -0.0580 -0.1905  0.0450
20992W        W21856  16.048  19.326  22.586  0.2564  0.4540 -0.0816
20993W        W21857  15.809  20.430  24.152 -0.0025 -0.1732 -0.1349
20994W        W21858  17.975  19.250  20.693  0.0996 -0.1600  0.0002
20995W        W21859  13.480  20.726  26.001 -0.1324 -0.0720 -0.0508
20996W        W21860  14.826  20.840  24.908  0.0422  0.0626  0.1442
20997W        W21861  15.556  21.327  23.928  0.0202 -0.3242 -0.1830
20998W        W21862  17.782  21.100  25.093 -0.0729 -0.0952 -0.3059
20999W        W21863  16.962  21.269  25.910  0.0951  0.1216  0.3191
21000W        W21864  16.516  19.446  21.989  0.3149 -0.2210  0.5268
21001W        W21865  13.816  20.705  23.518  0.0699 -0.1637 -0.0393
21002W        W21866  21.695  20.272  25.907  0.1235 -0.0322 -0.1930
21003W        W21867  14.409  22.374  27.502 -0.2270  0.0978  0.0852
21004W        W21868  14.178  17.505  25.915 -0.0885  0.0542 -0.1476
21005W        W21869  14.861  19.984  22.858  0.0863 -0.2570  0.1806
21006W        W21870  18.307  20.490  27.196 -0.0020  0.0803 -0.0556
21007W        W21871  15.506  21.056  24.861  0.0259 -0.1611  0.1927
21008W        W21872  15.884  20.398  22.109 -0.0839  0.3538 -0.3605
21009W        W21873  15.561  20.044  23.503 -0.1275  0.6677 -0.2485
21010W        W21874  15.457  21.916  23.175 -0.1750  0.1031  0.0535
21011W        W21875  20.377  20.871  23.383  0.4337 -0.0795 -0.2182
21012W        W21876  15.173  18.488  23.267 -0.1972  0.0206 -0.2509
21013W        W21877  11.959  18.274  26.711  0.0082  0.0877  0.1249
21014W        W21878  19.385  20.699  23.384  0.1894 -0.3339 -0.0665
21015W        W21879  13.299  21.454  22.635 -0.2027  0.1739 -0.2553
21016W        W21880  17.448  22.714  25.162  0.0276 -0.0127 -0.0597
21017W        W21881  17.523  21.254  23.970 -0.3762 -0.1023  0.0167
21018W        W21882  15.919  21.269  22.082  0.0978  0.1109 -0.0146
21019W        W21883  18.541  18.233  18.663  0.2187 -0.0423  0.5045
21020W        W21884  17.724  18.876  23.364 -0.1185  0.0551  0.0857
21021W        W21885  14.402  21.348  25.558  0.1510  0.0585  0.0362
21022W        W21886  16.268  18.888  25.628  0.0791 -0.0190  0.1300
21023W        W21887  17.880  19.331  23.494 -0.0332  0.0323  0.0854
21024W        W21888  17.596  19.381  23.957 -0.3949  0.0869 -0.2138
21025W        W21889  15.315  21.489  23.490 -0.0977 -0.1243  0.0199
21026W        W21890  14.928  20.488  20.989 -0.2299  0.1849  0.2249
21027W        W21891  14.470  19.291  24.050  0.1846 -0.0922  0.2235
21028W        W21892  15.554  23.223  23.643 -0.3137 -0.0165 -0.2405
21029W        W21893  16.019  20.669  20.650 -0.1350 -0.0810  0.0146
21030W        W21894  17.813  23.103  25.908 -0.2439  0.3247  0.0319
21031W        W21895  18.052  20.095  24.039  0.2102 -0.4439  0.3826
21032W        W21896  16.577  17.506  25.459 -0.1410 -0.2761  0.0822
21033W        W21897  16.201  22.324  22.194 -0.1440 -0.0534  0.2258
21034W        W21898  17.107  23.070  21.651  0.1926 -0.1233  0.4592
21035W        W21899  15.825  22.192  25.896 -0.0056  0.1712  0.2132
21036W        W21900  17.453  23.243  25.053  0.3567  0.1221 -0.0738
21037W        W21901  14.333  18.277  24.949  0.1484 -0.2435 -0.1937
21038W        W21902  18.586  22.842  23.690  0.2460 -0.1959  0.0925
21039W        W21903  14.122  18.890  22.094  0.0633  0.0636 -0.1674
21040W        W21904  18.342  19.214  23.840  0.3037 -0.0634  0.2411
21041W        W21905  14.297  18.156  26.096  0.0966  0.2759 -0.0373
21042W        W21906  12.996  18.663  26.394 -0.0309  0.0868  0.1699
21043W        W21907  11.838  22.482  23.951  0.1087  0.1879  0.1745
21044W        W21908  15.728  18.091  22.207 -0.1368 -0.0265 -0.2399
21045W        W21909  15.399  22.552  21.592  0.0461 -0.2764  0.1592
21046W        W21910  17.232  19.937  22.537  0.0957 -0.3862  0.3197
21047W        W21911  15.499  20.242  25.412 -0.2908  0.0045 -0.0648
21048W        W21912  17.845  21.812  24.342 -0.2636  0.1296 -0.0670
21049W        W21913  19.376  22.216  27.079 -0.2765 -0.0613  0.1200
21050W        W21914  15.084  17.527  26.990  0.1885  0.0998  0.1375
21051W        W21915  14.807  19.115  23.113  0.0721  0.0888 -0.1763
21052W        W21916  15.485  19.048  21.806 -0.4682 -0.0948 -0.0992
21053W        W21917  14.932  21.370  24.342 -0.1117  0.2569  0.2925
21054W        W21918  14.786  20.356  25.963 -0.1511  0.2326  0.0906
21055W        W21919  16.691  21.444  21.226 -0.1440 -0.1113  0.0258
21056W        W21920  14.741  20.429  24.621  0.1361  0.3281  0.0727
21057W        W21921  17.816  20.602  21.567 -0.1759  0.2192  0.2431
21058W        W21922  14.500  18.928  24.773  0.1041  0.0553  0.0695
21059W        W21923  14.613  21.390  24.790 -0.1320  0.1693  0.0944
21060W        W21924  16.487  18.876  21.610 -0.0806  0.4125 -0.2070
21061W        W21925  14.706  18.459  24.562  0.2093 -0.0582 -0.3013
21062W        W21926  16.577  22.231  23.125 -0.1945  0.0825 -0.0846
21063W        W21927  14.400  19.994  23.049 -0.0196  0.2591 -0.3986
21064W        W21928  15.294  22.366  23.273 -0.3238  0.0472  0.1924
21065W        W21929  15.701  18.524  22.439  0.3083  0.2727 -0.0757
21066W        W21930  18.585  21.332  22.862  0.0834 -0.0110 -0.0612
21067W        W21931  19.293  20.263  21.818  0.0655  0.0644 -0.1646
21068W        W21932  16.949  18.896  21.968 -0.0155 -0.1833 -0.1311
21069W        W21933  16.114  18.618  22.064  0.3250 -0.1871  0.1324
21070W        W21934  16.337  19.258  19.046  0.0602  0.0055  0.3049
21071W        W21935  19.093  22.791  24.346 -0.0886  0.1264  0.3210
21072W        W21936  18.964  21.700  22.943 -0.3854 -0.2327 -0.2903
21073W        W21937  14.520  18.868  21.687 -0.1393 -0.3841  0.2535
21074W        W21938  17.861  18.629  25.005  0.0708  0.5781 -0.0531
21075W        W21939  18.003  20.818  24.609  0.0678 -0.0883 -0.1057
21076W        W21940  16.972  21.938  21.032 -0.2223 -0.0726  0.0579
21077W        W21941  14.034  23.829  21.408 -0.1374 -0.2175  0.2055
21078W        W21942  16.093  20.123  27.245  0.0297  0.1486  0.0162
21079W        W21943  15.569  20.727  26.067 -0.3144  0.0095  0.0977
21080W        W21944  13.864  19.043  26.158 -0.2672 -0.3003 -0.0127
21081W        W21945  14.963  17.921  22.816 -0.0737 -0.1406  0.2938
21082W        W21946  18.895  18.115  22.650 -0.1186  0.1126 -0.1105
21083W        W21947  14.557  19.116  25.583 -0.5385  0.3427  0.2088
21084W        W21948  14.733  19.258  23.664 -0.2746 -0.0706  0.0486
21085W        W21949  16.213  19.558  24.163 -0.0903 -0.3672 -0.0634
21086W        W21950  14.493  21.124  24.114 -0.4032  0.3389  0.0525
21087W        W21951  17.287  19.907  25.442  0.1804 -0.1163  0.1909
21088W        W21952  16.501  20.758  25.295 -0.0945  0.0762  0.1455
21089W        W21953  16.199  20.337  19.867  0.0015  0.3205 -0.1893
21090W        W21954  17.871  20.478  26.242 -0.0948 -0.0729  0.0437
21091W        W21955  15.719  19.902  24.204  0.2957  0.0787  0.2172
21092W        W21956  14.624  21.757  28.028 -0.1524 -0.1565  0.0087
21093W        W21957  15.134  18.786  24.033  0.0626  0.2370 -0.0227
21094W        W21958  16.648  21.635  20.218  0.3496  0.0444 -0.2606
21095W        W21959  14.558  20.148  21.979 -0.2562  0.1298 -0.0070
21096W        W21960  13.771  21.826  25.478 -0.3124  0.2635  0.1557
21097W        W21961  14.745  22.971  23.550 -0.0549  0.0156  0.1850
21098W        W21962  15.692  22.170  23.594 -0.1073 -0.4323 -0.1680
21099W        W21963  16.513  17.960  24.342  0.0523  0.2101 -0.0908
21100W        W21964  20.401  21.195  25.479  0.0401  0.0148 -0.1495
21101W        W21965  18.050  20.398  19.904 -0.1626  0.3568  0.0111
21102W        W21966  16.462  19.498  23.238  0.0911 -0.0896 -0.0752
21103W        W21967  19.677  23.083  22.011 -0.0895  0.1810 -0.2784
21104W        W21968  14.261  22.180  28.012 -0.2108 -0.1274 -0.3877
21105W        W21969  12.660  18.651  27.553  0.1279 -0.0160  0.1700
21106W        W21970  18.852  19.161  24.374 -0.3570 -0.0972 -0.0275
21107W        W21971  18.415  20.992  25.030  0.1531 -0.0950  0.0734
21108W        W21972  18.621  19.427  27.602  0.0524 -0.1596  0.1514
21109W        W21973  17.417  18.910  22.241 -0.0541  0.1372 -0.0528
21110W        W21974  17.625  20.721  22.556  0.2640  0.0308 -0.1076
21111W        W21975  16.587  17.883  27.880 -0.0241  0.0137  0.0149
21112W        W21976  14.678  20.750  25.466  0.2234  0.0180  0.0116
21113W        W21977  17.467  19.628  25.777  0.1240  0.1545 -0.0197
21114W        W21978  20.028  20.114  24.389  0.0877 -0.1182  0.1630
21115W        W21979  17.949  18.486  23.585 -0.0241  0.1591  0.2754
21116W        W21980  14.661  22.381  22.843  0.0268 -0.2224 -0.0985
21117W        W21981  15.629  18.645  26.294  0.1119  0.3510  0.0961
21118W        W21982  15.668  20.872  23.101  0.0485 -0.0560  0.1317
21119W        W21983  15.718  19.267  25.073  0.2462  0.2602 -0.0554
21120W        W21984  12.887  22.396  23.507 -0.2606  0.0061 -0.1011
21121W        W21985  15.444  20.052  22.470 -0.1787  0.2798  0.1131
21122W        W21986  17.112  20.126  23.573  0.3382  0.0298 -0.1414
21123W        W21987  16.202  16.973  26.171 -0.1613  0.0870  0.4179
21124W        W21988  16.990  21.517  24.073 -0.0326  0.2440 -0.1285
21125W        W21989  15.979  20.509  25.495  0.4003 -0.1828 -0.2245
21126W        W21990  13.580  19.953  21.846  0.1237 -0.0764 -0.1981
21127W        W21991  16.884  21.772  26.032  0.0391 -0.2051 -0.0190
21128W        W21992  14.166  18.833  25.202 -0.1495  0.2635  0.1651
21129W        W21993  12.824  17.230  23.786  0.0102  0.3939  0.1519
21130W        W21994  17.804  19.720  23.043  0.2912  0.0590  0.0330
21131W        W21995  15.955  19.909  19.789 -0.1231 -0.0828  0.2057
21132W        W21996  17.015  20.887  26.301 -0.3118 -0.2393 -0.1935
21133W        W21997  15.644  22.470  25.467  0.0464  0.0280 -0.1647
21134W        W21998  20.293  21.745  23.745  0.1486  0.1046 -0.0674
21135W        W21999  14.662  18.667  25.212  0.1957  0.1286 -0.3067
21136W        W22000  15.853  19.707  23.771  0.0978 -0.0162 -0.6664
21137W        W22001  18.233  23.291  26.164 -0.0898 -0.2004 -0.1936
21138W        W22002  14.562  20.311  25.111  0.0338 -0.0839  0.3904
21139W        W22003  17.830  18.988  27.345 -0.0851 -0.0199  0.1330
21140W        W22004  14.886  16.778  22.581 -0.0003  0.0369  0.1124
21141W        W22005  16.912  22.051  25.269 -0.0201 -0.1992  0.2090
21142W        W22006  17.330  19.042  22.807 -0.1307  0.1421  0.3428
21143W        W22007  15.566  18.070  24.478  0.3637 -0.0494  0.0666
21144W        W22008  18.232  19.789  24.481  0.2558  0.0592  0.1806
21145W        W22009  16.445  18.993  23.475  0.1371 -0.0601 -0.2707
21146W        W22010  14.543  19.602  22.795 -0.1572 -0.2596  0.4182
21147W        W22011  13.534  20.403  26.741  0.0363  0.1022  0.1902
21148W        W22012  20.556  19.154  26.993 -0.1308 -0.0530  0.3423
21149W        W22013  17.306  20.892  25.760 -0.0056 -0.0504  0.1279
21150W        W22014  16.836  22.416  20.153 -0.1567  0.0764  0.1526
21151W        W22015  14.311  22.879  27.280 -0.0624  0.0555  0.2119
21152W        W22016  15.643  21.624  25.983 -0.0940  0.0290  0.1393
21153W        W22017  15.633  21.387  19.836 -0.2523  0.1082  0.1788
21154W        W22018  12.958  18.805  25.890 -0.1132 -0.2033  0.1300
21155W        W22019  17.328  20.802  20.472  0.3099 -0.0327 -0.3262
21156W        W22020  14.270  19.566  20.365  0.0469 -0.0536 -0.1594
21157W        W22021  15.185  19.482  24.936  0.0757  0.2798  0.2620
21158W        W22022  18.621  20.130  24.537  0.1017 -0.1423 -0.1152
21159W        W22023  16.213  23.014  26.060 -0.3804  0.1061  0.0395
21160W        W22024  20.461  22.662  24.679 -0.0570 -0.1625 -0.2490
21161W        W22025  15.172  18.632  25.891  0.1281 -0.0803 -0.0112
21162W        W22026  14.193  15.924  24.238 -0.3111  0.2404 -0.3926
21163W        W22027  15.930  20.195  25.911  0.0124 -0.0859  0.0295
21164W        W22028  17.072  16.936  25.948  0.5854  0.0426  0.1991
21165W        W22029  11.502  21.566  28.498  0.1968  0.1712  0.0358
21166W        W22030  14.093  18.516  26.348 -0.0087  0.0733 -0.1298
21167W        W22031  15.948  19.891  22.535  0.2541  0.1001 -0.2163
21168W        W22032  16.292  20.389  22.451  0.1574 -0.1455 -0.4411
21169W        W22033  13.439  20.875  26.595 -0.2335  0.2237 -0.1562
21170W        W22034  17.494  19.877  23.982  0.0760 -0.0884  0.1479
21171W        W22035  15.152  20.271  24.882 -0.2784 -0.0093 -0.0445
21172W        W22036  17.347  21.319  24.840 -0.0791  0.0957 -0.0227
21173W        W22037  14.338  20.890  26.458  0.0677 -0.2118  0.0646
21174W        W22038  18.562  20.516  25.226 -0.1635  0.0945 -0.0960
21175W        W22039  15.532  20.531  18.049  0.2241  0.0208 -0.1161
21176W        W22040  16.921  20.976  21.264  0.0238  0.0006  0.1851
21177W        W22041  16.925  19.906  24.986  0.0306  0.0835 -0.0212
21178W        W22042  17.983  18.412  26.210  0.1519  0.0672  0.0903
21179W        W22043  14.949  19.920  24.399  0.2147  0.1130  0.0298
21180W        W22044  15.878  23.032  23.233  0.0802 -0.1526 -0.3306
21181W        W22045  15.127  15.926  24.062  0.0386  0.0010 -0.0566
21182W        W22046  15.290  19.226  23.692 -0.0435  0.1198 -0.0859
21183W        W22047  19.446  20.104  26.546 -0.2708 -0.0994 -0.3033
21184W        W22048  16.768  19.776  25.519 -0.2319  0.1689 -0.0154
21185W        W22049  13.638  17.298  22.254 -0.2307 -0.1165 -0.0728
21186W        W22050  14.580  21.567  23.397  0.0307  0.0518  0.0168
21187W        W22051  15.840  17.538  28.948  0.1081  0.0062  0.2181
21188W        W22052  14.435  20.862  27.075  0.3019 -0.0166 -0.2174
21189W        W22053  15.365  21.043  24.341  0.2081 -0.0302 -0.0905
21190W        W22054  14.868  22.079  23.244  0.2046  0.0487 -0.1126
21191W        W22055  17.592  21.418  27.100  0.0736  0.1399 -0.0844
21192W        W22056  16.787  21.076  24.949  0.1975  0.1960  0.2244
21193W        W22057  16.687  17.854  24.834 -0.0376 -0.2783 -0.2427
21194W        W22058  14.678  20.057  23.502  0.1927  0.0645 -0.1537
21195W        W22059  14.080  23.530  23.173 -0.1965 -0.0114 -0.1853
21196W        W22060  16.761  17.142  21.681 -0.0919 -0.0460  0.0084
21197W        W22061  17.030  20.105  26.890 -0.0383 -0.0614  0.2031
21198W        W22062  13.065  19.861  21.964 -0.1090  0.0604 -0.1565
21199W        W22063  19.008  21.699  25.014 -0.1579 -0.1384 -0.1773
21200W        W22064  17.516  20.740  25.299  0.2997  0.2004 -0.1098
21201W        W22065  13.886  22.605  27.659 -0.1271 -0.0422  0.1399
21202W        W22066  13.656  20.130  21.180 -0.1046  0.0346  0.2840
21203W        W22067  17.433  20.828  21.089 -0.1945  0.2018  0.2298
21204W        W22068  16.001  24.881  24.087  0.2560 -0.1554 -0.1291
21205W        W22069  15.743  21.565  21.738  0.1085  0.2480  0.0798
21206W        W22070  17.421  22.089  24.341  0.0656  0.0128 -0.3223
21207W        W22071  15.193  21.186  23.144  0.0597 -0.3613  0.2666
21208W        W22072  12.521  19.175  25.503  0.2911  0.0367  0.1576
21209W        W22073  17.623  21.048  24.377  0.1451  0.0252 -0.4123
21210W        W22074  16.811  21.573  23.167  0.1295  0.1913 -0.1413
21211W        W22075  15.839  21.966  22.047 -0.1371  0.3046  0.1144
21212W        W22076  16.386  18.102  21.928  0.0025 -0.0503  0.0447
21213W        W22077  13.376  18.465  24.477 -0.2795  0.2752  0.2613
21214W        W22078  15.133  16.501  21.142  0.0389  0.3971  0.1622
21215W        W22079  12.463  20.265  21.207 -0.0529 -0.0820  0.1979
21216W        W22080  15.883  19.344  25.597  0.0030 -0.0120  0.0825
21217W        W22081  19.322  20.271  19.927 -0.1644 -0.1028  0.1223
21218W        W22082  18.618  19.798  25.547  0.0429 -0.1398  0.0816
21219W        W22083  15.130  21.316  26.566 -0.1018 -0.1514  0.0657
21220W        W22084  18.370  22.341  25.397  0.0297  0.1309 -0.1335
21221W        W22085  18.714  22.967  24.793 -0.1805 -0.0473 -0.0848
21222W        W22086  15.971  21.769  23.550 -0.1943  0.0810  0.3027
21223W        W22087  16.249  21.088  25.549 -0.1503 -0.1816  0.3567
21224W        W22088  16.207  20.049  24.012  0.1941 -0.1591 -0.1317
21225W        W22089  16.890  22.064  22.335 -0.0676 -0.2578  0.2340
21226W        W22090  15.540  23.894  24.305  0.0465 -0.1712  0.0446
21227W        W22091  17.585  19.448  27.186 -0.0020  0.3809  0.1638
21228W        W22092  18.438  20.494  23.183 -0.2987  0.0326  0.1020
21229W        W22093  12.732  22.733  23.831  0.0979 -0.0358 -0.1153
21230W        W22094  16.354  20.694  23.310  0.1230  0.0877  0.1635
21231W        W22095  16.154  23.316  22.321 -0.1064 -0.3875 -0.2827
21232W        W22096  15.942  22.389  26.628  0.0511 -0.2334  0.2282
21233W        W22097  17.891  21.559  23.937 -0.3174 -0.2044  0.1056
21234W        W22098  14.779  19.682  23.941  0.0259 -0.2310  0.0097
21235W        W22099  15.901  20.829  25.115 -0.0754 -0.1571  0.2244
21236W        W22100  18.460  20.355  22.586  0.0569  0.1668 -0.0796
21237W        W22101  19.643  21.822  26.378  0.0904  0.0295  0.2016
21238W        W22102  15.838  21.248  24.417 -0.2166  0.0071  0.2461
21239W        W22103  14.622  22.804  22.552  0.2826 -0.1859  0.0324
21240W        W22104  17.681  20.037  19.854  0.1216  0.0245 -0.0511
21241W        W22105  15.665  23.599  25.755  0.4322  0.0360  0.0395
21242W        W22106  20.153  19.801  26.679  0.1513 -0.1588  0.0551
21243W        W22107  15.244  19.313  26.760  0.0222 -0.2194  0.1536
21244W        W22108  12.605  20.026  23.516  0.1063  0.1949  0.1252
21245W        W22109  17.494  19.499  20.701 -0.0959  0.2354  0.1350
21246W        W22110  16.739  21.184  25.469 -0.1825  0.2842  0.0190
21247W        W22111  17.429  21.626  25.261  0.1546 -0.3291  0.1963
21248W        W22112  15.694  18.473  24.030  0.0253  0.2757 -0.1345
21249W        W22113  16.726  22.209  24.755  0.2449  0.2358  0.0621
21250W        W22114  19.756  23.273  23.874 -0.3631 -0.0654  0.1283
21251W        W22115  16.935  21.936  24.256 -0.0682  0.5576 -0.0056
21252W        W22116  14.238  21.515  24.330 -0.0891  0.3363 -0.1506
21253W        W22117  17.846  20.516  20.654  0.4230 -0.0567 -0.1287
21254W        W22118  18.015  18.073  21.052  0.0354 -0.0518  0.1491
21255W        W22119  16.053  21.650  24.597 -0.0142 -0.1422 -0.0003
21256W        W22120  18.494  20.424  23.717  0.1183  0.1900 -0.2649
21257W        W22121  17.210  20.438  22.764  0.0439  0.3627  0.1376
21258W        W22122  19.836  18.836  28.671  0.2479 -0.2559  0.2307
21259W        W22123  15.300  20.832  21.113 -0.1585 -0.0784  0.4254
21260W        W22124  16.116  20.722  25.943 -0.1877  0.1862  0.0239
21261W        W22125  15.418  19.139  27.217 -0.2422 -0.2466  0.2407
21262W        W22126  18.402  22.297  23.097  0.0432  0.0809  0.1531
21263W        W22127  14.304  21.222  26.008  0.1877 -0.0231  0.1209
21264W        W22128  13.459  19.879  26.062 -0.1109 -0.1226 -0.4262
21265W        W22129  15.911  21.707  24.106 -0.0345 -0.0407  0.0392
21266W        W22130  13.050  21.468  23.097  0.0278  0.1568 -0.3195
21267W        W22131  18.050  19.641  23.929  0.1331  0.3142 -0.0322
21268W        W22132  17.908  20.028  26.584  0.0306  0.0274 -0.0620
21269W        W22133  16.057  22.125  24.864  0.1250  0.1387 -0.0904
21270W        W22134  17.837  22.518  26.566  0.2471  0.0901  0.0803
21271W        W22135  20.903  19.933  23.131 -0.0575 -0.2991  0.0686
21272W        W22136  14.677  23.844  27.291 -0.1431 -0.2972  0.0262
21273W        W22137  13.535  23.474  24.261  0.2206  0.1888 -0.2325
21274W        W22138  17.286  19.602  24.307 -0.0510  0.0239  0.2352
21275W        W22139  18.903  23.586  24.128  0.0882 -0.0478 -0.1187
21276W        W22140  15.180  22.610  24.376 -0.0388  0.4978  0.0094
21277W        W22141  16.909  19.657  26.541  0.1930  0.0889  0.0879
21278W        W22142  18.760  22.535  25.754 -0.3285  0.0698  0.0544
21279W        W22143  15.361  20.218  24.404  0.3042 -0.1561 -0.0212
21280W        W22144  16.378  19.464  24.757 -0.0900  0.1517  0.2165
21281W        W22145  16.426  22.327  22.685 -0.4341  0.2151  0.1501
21282W        W22146  17.353  21.883  26.257 -0.1902  0.1772  0.0322
21283W        W22147  17.114  22.349  24.004 -0.2184 -0.3097 -0.0502
21284W        W22148  17.951  17.537  22.304  0.1880 -0.2711  0.0004
21285W        W22149  14.604  23.764  26.684  0.0941 -0.3067  0.0710
21286W        W22150  13.847  19.082  27.883 -0.1811  0.0001  0.0611
21287W        W22151  18.622  19.505  25.166  0.1745 -0.0136 -0.2662
21288W        W22152  19.125  23.692  27.066  0.0832  0.0895 -0.0640
21289W        W22153  12.654  20.186  27.524 -0.1217  0.3370 -0.0945
21290W        W22154  17.360  19.679  26.778 -0.0629  0.0652 -0.2668
21291W        W22155  18.137  20.906  26.953  0.4408 -0.2232  0.1250
21292W        W22156  16.429  21.734  27.253 -0.0613 -0.1351  0.1131
21293W        W22157  15.681  23.901  27.277  0.2966  0.1342 -0.0879
21294W        W22158  15.720  16.675  28.511 -0.2401  0.0384 -0.0097
21295W        W22159  15.267  20.903  28.585 -0.0842 -0.0554 -0.0603
21296W        W22160  19.545  17.984   1.142 -0.0237  0.3628  0.0940
21297W        W22161  17.840  19.766  28.013  0.2661  0.2562 -0.0961
21298W        W22162  16.594  18.755   2.883  0.0512 -0.1082  0.4725
21299W        W22163  18.670  17.749  28.161 -0.0942 -0.1034 -0.0882
21300W        W22164  13.857  24.945  27.878  0.0103  0.3133  0.2461
21301W        W22165  16.431  22.908  25.094 -0.1736  0.0624  0.0094
21302W        W22166  13.962  18.268  26.805 -0.1724  0.0924  0.1439
21303W        W22167  17.139  18.392   2.488 -0.4121 -0.3292  0.2181
21304W        W22168  18.975  19.884  27.576 -0.3447 -0.1846 -0.0309
21305W        W22169  19.727  17.705   0.711  0.1233 -0.1523 -0.1220
21306W        W22170  14.757  20.101  26.618 -0.1131 -0.2869  0.1086
21307W        W22171  13.497  21.879  27.530 -0.0979 -0.0702  0.0457
21308W        W22172  15.097  22.671  27.909  0.2027 -0.0772  0.0750
21309W        W22173  15.507  20.892  27.735  0.0098  0.1524 -0.0207
21310W        W22174  15.304  21.713  27.976  0.0111  0.1719 -0.0123
21311W        W22175  16.475  16.231  28.532  0.3705 -0.1568  0.0409
21312W        W22176  13.716  20.148  27.471 -0.3669 -0.0960  0.0951
21313W        W22177  15.290  23.110  27.691 -0.2992 -0.1112 -0.1972
21314W        W22178  16.350  19.880  26.542  0.0488 -0.1094 -0.0303
21315W        W22179  18.887  22.303  26.506  0.2376 -0.2308 -0.0308
21316W        W22180  14.692  21.196  26.819 -0.0051  0.2656 -0.2457
21317W        W22181  16.928  21.996   1.801 -0.0993 -0.1700 -0.0316
21318W        W22182  17.396  20.961   0.013 -0.0445  0.0941  0.1245
21319W        W22183  16.157  18.410   2.924 -0.0582 -0.0850 -0.0382
21320W        W22184  20.727  20.981  26.885  0.3431 -0.2169 -0.0963
21321W        W22185  17.165  19.801  27.451 -0.1476  0.1338  0.2186
21322W        W22186  13.330  21.761  28.044  0.0377  0.0405  0.1334
21323W        W22187  15.958  23.394  26.751  0.0650  0.2198  0.0827
21324W        W22188  17.284  17.876  28.247  0.3328  0.0146  0.1500
21325W        W22189  17.702  18.160  25.024 -0.1085  0.2547  0.0488
21326W        W22190  16.979  18.998  28.909  0.2158 -0.1898  0.0121
21327W        W22191  17.739  22.068  26.576  0.1771  0.0792 -0.0753
21328W        W22192  17.990  22.301  27.314 -0.3278 -0.0345  0.0237
21329W        W22193  16.723  21.229  27.257  0.0471  0.0769  0.1097
21330W        W22194  14.548  23.414  28.516 -0.2799  0.3683  0.2161
21331W        W22195  18.571  16.993   1.195  0.3046  0.0817 -0.1626
21332W        W22196  17.160  19.009   1.884  0.0424 -0.0080 -0.1070
21333W        W22197  19.513  20.217  27.381 -0.1034  0.2860  0.0094
21334W        W22198  15.122  22.738  26.215  0.0364  0.2081 -0.1426
21335W        W22199  16.024  21.236  25.987  0.0875  0.0074 -0.0602
21336W        W22200  15.159  20.460  26.357  0.2499  0.1629 -0.1387
21337W        W22201  19.207  20.994  28.416 -0.0945  0.0558  0.0092
21338W        W22202  17.520  20.983  26.756  0.0852 -0.0531  0.0097
21339W        W22203  17.629  18.302  26.588  0.0449 -0.3425 -0.0247
21340W        W22204  15.340  21.760  26.352  0.2765 -0.2625 -0.0903
21341W        W22205  13.687  18.277  28.202  0.2112  0.0487  0.0045
21342W        W22206  19.652  16.910  28.442  0.1188 -0.1574 -0.0668
21343W        W22207  11.443  21.955  25.214 -0.1783 -0.4164  0.3032
21344W        W22208  16.027  23.537  27.285 -0.1578  0.0149 -0.1645
21345W        W22209  14.081  21.917  28.427 -0.1748 -0.0227 -0.1612
21346W        W22210  16.157  21.627   1.646  0.1219 -0.2096 -0.2896
21347W        W22211  15.831  20.094   2.442 -0.2005 -0.2009  0.0817
21348W        W22212  15.406  22.968  28.185  0.1827  0.2136  0.0956
21349W        W22213  16.868  17.698  28.529 -0.1997  0.3185 -0.2987
21350W        W22214  15.868  19.265  27.083 -0.0584  0.0884 -0.0570
21351W        W22215  14.837  23.849  25.578 -0.1570  0.0486  0.1117
21352W        W22216  14.277  21.373  27.687  0.0359 -0.1014 -0.0724
21353W        W22217  13.932  19.783  27.895 -0.1216 -0.0085  0.1044
21354W        W22218  17.621  20.035  26.145 -0.0249 -0.0571 -0.1654
21355W        W22219  15.211  22.198  27.671  0.0578 -0.2482 -0.0089
21356W        W22220  16.607  19.261  27.249  0.1552 -0.3153 -0.1139
21357W        W22221  20.691  21.306  27.304  0.0747 -0.2634  0.0454
21358W        W22222  16.343  17.180  28.950 -0.0760 -0.1892 -0.0063
21359W        W22223  17.134  19.986  25.970 -0.0044 -0.3730  0.1378
21360W        W22224  17.347  19.648  27.918  0.1042 -0.2287  0.2124
21361W        W22225  12.723  18.465  25.598  0.0329  0.1840  0.1173
21362W        W22226  15.823  22.021  28.440 -0.2683 -0.1624 -0.0566
21363W        W22227  15.732  22.507  24.589  0.0723 -0.1348 -0.2185
21364W        W22228  16.571  18.522  28.689 -0.3539  0.2376  0.4317
21365W        W22229  16.031  20.692   1.454  0.1954  0.1404  0.1715
21366W        W22230  14.787  18.985   0.908 -0.2735 -0.2013 -0.4063
21367W        W22231  15.994  16.861  28.938 -0.0788  0.1221 -0.0777
21368W        W22232  18.103  18.558  28.960  0.0193  0.2176 -0.0904
21369W        W22233  18.429  19.292   0.860 -0.3549  0.2556  0.1250
21370W        W22234  17.118  19.481  25.328 -0.2655 -0.0171  0.1917
21371W        W22235  15.691  20.262  27.935 -0.0260 -0.1421 -0.2779
21372W        W22236  16.635  19.224  26.721 -0.2197  0.0529  0.0816
21373W        W22237  15.260  21.239  28.206 -0.0227  0.0799 -0.2523
21374W        W22238  17.522  20.860  28.399 -0.2258  0.0490 -0.1376
21375W        W22239  18.787  20.371  27.182  0.0200  0.2477 -0.1041
21376W        W22240  19.529  20.390  27.870  0.0627  0.2241 -0.0184
21377W        W22241  12.658  22.076   1.339 -0.1704  0.2920 -0.3297
21378W        W22242  17.611  18.451  27.059 -0.3031  0.2322 -0.1259
21379W        W22243  13.908  18.858  28.481 -0.3026 -0.1088 -0.0408
21380W        W22244  18.543  21.937  26.552 -0.0759  0.0285 -0.0893
21381W        W22245  16.039  19.842  29.003 -0.1297 -0.2137 -0.2791
21382W        W22246  12.903  20.054  28.872  0.1729  0.0891  0.1613
21383W        W22247  12.740  20.044  26.748 -0.2422  0.1729  0.1583
21384W        W22248  17.953  18.726  27.798  0.1295  0.0975 -0.0141
21385W        W22249  19.269  20.266  26.988 -0.1018 -0.1136  0.0345
21386W        W22250  12.818  19.362  28.100  0.1571 -0.0967 -0.0531
21387W        W22251  17.317  18.958  28.115  0.1981  0.0735  0.1342
21388W        W22252  17.271  23.000  27.769 -0.4274 -0.1028 -0.1790
21389W        W22253  16.167  20.643   0.414  0.0902 -0.4715  0.0139
21390W        W22254  16.005  16.358  28.844  0.2472  0.1681 -0.0191
21391W        W22255  13.514  21.299  27.573  0.1837 -0.0811  0.0948
21392W        W22256  15.526  20.055   0.812 -0.1385 -0.2142 -0.2333
21393W        W22257  15.820  20.801  27.026 -0.1465 -0.0580  0.0292
21394W        W22258  13.265  18.423  25.707 -0.4214  0.0918  0.0185
21395W        W22259  16.108  19.789  26.100  0.1384 -0.0334  0.2286
21396W        W22260  13.189  22.671  28.787  0.1540  0.1574 -0.0069
21397W        W22261  16.151  20.263  28.741 -0.1825  0.0308  0.2292
21398W        W22262  14.910  20.762  28.183  0.0906  0.1400  0.3091
21399W        W22263  18.952  20.403  24.811  0.2954  0.0148  0.1065
21400W        W22264  16.450  22.321  25.204 -0.1324  0.0236  0.5092
21401W        W22265  19.754  18.577  27.609  0.0799  0.0723  0.2511
21402W        W22266  16.576  21.175  26.297  0.2257  0.4196  0.0665
21403W        W22267  19.958  19.990  27.101 -0.1087 -0.0331  0.0656
21404W        W22268  16.590  18.759  26.509  0.0927 -0.0014 -0.4785
21405W        W22269  16.051  21.127  28.504 -0.0025  0.0595  0.3138
21406W        W22270  14.327  22.735  27.861 -0.3092 -0.1561 -0.2133
21407W        W22271  15.679  22.156  27.470 -0.0318  0.0576 -0.0303
21408W        W22272  19.442  20.533  26.167  0.0439 -0.2063  0.0546
21409W        W22273  17.451  20.134  24.559  0.2751  0.1847 -0.3500
21410W        W22274  19.792  22.092  27.853  0.3229 -0.2012 -0.3797
21411W        W22275  16.579  18.541   0.038 -0.1364 -0.0312  0.0531
21412W        W22276  17.746  23.187  29.071 -0.0289 -0.3110 -0.2159
21413W        W22277  17.913  22.704  27.043 -0.0439 -0.1865  0.2958
21414W        W22278  17.166  21.358  26.869 -0.2509  0.1337 -0.0600
21415W        W22279  16.375  22.000  26.000  0.2353  0.1420 -0.2895
21416W        W22280  18.281  17.521   0.635 -0.2282 -0.0689  0.2562
21417W        W22281  17.566  22.370  27.041 -0.0315  0.0260 -0.1222
21418W        W22282  18.094  18.573   0.433 -0.1803 -0.0171 -0.1027
21419W        W22283  14.436  20.705  28.866  0.0202  0.0189 -0.0572
21420W        W22284  16.985  20.410  28.375 -0.0032 -0.1703  0.1935
21421W        W22285  18.102  19.002  28.660  0.1236  0.5044 -0.1037
21422W        W22286  17.766  19.263  28.881 -0.0861 -0.2616 -0.0298
21423W        W22287  17.202  20.236  26.397  0.1088  0.1189  0.1075
21424W        W22288  14.078  22.008   1.336  0.0426 -0.0714  0.2597
21425W        W22289  14.373  18.462  28.118  0.2313  0.0011  0.0257
21426W        W22290  17.488  18.381  28.182  0.0398 -0.0909 -0.0309
21427W        W22291  14.446  20.409  26.315  0.2288 -0.1923  0.1072
21428W        W22292  16.225  21.372  28.003  0.2374  0.2175 -0.0858
21429W        W22293  14.815  22.209   0.388  0.2121  0.1365  0.0724
21430W        W22294  15.712  18.282  25.496 -0.3090 -0.0278 -0.0389
21431W        W22295  18.322  17.735  27.182 -0.3190 -0.3050 -0.4014
21432W        W22296  19.093  21.932  26.685  0.0545  0.0372  0.0248
21433W        W22297  16.735  22.043  27.519 -0.0886  0.1006 -0.5042
21434W        W22298  15.568  21.637  26.764 -0.0837  0.1583 -0.3499
21435W        W22299  17.136  21.567  27.359 -0.0305  0.0202 -0.2943
21436W        W22300  15.745  19.189   1.447 -0.1002 -0.0608 -0.0997
21437W        W22301  14.736  22.328  27.878 -0.3620  0.2163 -0.0885
21438W        W22302  15.955  20.037  26.750 -0.0021 -0.2132 -0.2829
21439W        W22303  17.383  16.710  27.406  0.1595  0.0283  0.1425
21440W        W22304  18.121  18.630  27.258 -0.0631  0.1373 -0.1661
21441W        W22305  12.552  20.373  25.677 -0.1763 -0.0325 -0.1170
21442W        W22306  14.582  19.976  25.550 -0.1118  0.0694 -0.1917
21443W        W22307  17.166  18.701  27.705  0.1134  0.0190  0.1645
21444W        W22308  17.438  20.684  26.251  0.3049  0.1033 -0.2456
21445W        W22309  17.577  18.144   0.839  0.3042 -0.0796  0.0768
21446W        W22310  15.671  21.205  26.442 -0.0645 -0.1901 -0.0545
21447W        W22311  14.515  19.243   1.260 -0.0501  0.1683 -0.1210
21448W        W22312  18.091  23.898  28.053 -0.2530 -0.1941  0.3972
21449W        W22313  15.490  17.653   0.741 -0.2373 -0.0039  0.0905
21450W        W22314  16.936  21.029  28.431  0.2040  0.0819 -0.0999
21451W        W22315  14.834  20.477  27.354  0.1624 -0.1857  0.2095
21452W        W22316  14.709  23.822  28.192 -0.0598  0.0147  0.0115
21453W        W22317  15.441  22.019   0.273 -0.0738  0.0876  0.1242
21454W        W22318  15.695  20.565   0.666 -0.0842 -0.2356  0.0070
21455W        W22319  19.227  18.763  28.561  0.0681 -0.0283  0.3127
21456W        W22320  17.981  20.692  28.555  0.1090 -0.1712  0.2437
21457W        W22321  17.370  21.272  28.110  0.1213 -0.1247 -0.0231
21458W        W22322  19.509  24.362  26.605  0.0717  0.0791 -0.0804
21459W        W22323  16.152  18.014  27.633  0.0422 -0.2616  0.0998
21460W        W22324  19.252  20.875   1.140  0.1327  0.2073 -0.0694
21461W        W22325  14.979  21.978   0.911 -0.0655 -0.0287 -0.0177
21462W        W22326  14.748  21.117  28.468  0.0601  0.0440 -0.0138
21463W        W22327  16.279  23.882  26.574  0.2719  0.0630  0.1378
21464W        W22328  18.007  17.069   0.058  0.1766 -0.0170 -0.0826
21465W        W22329  16.357  19.418  25.749  0.1521 -0.2324  0.0681
21466W        W22330  19.495  24.238  26.040 -0.0275  0.1105 -0.0154
21467W        W22331  16.802  21.682  26.932 -0.0773 -0.2358 -0.2170
21468W        W22332  14.922  20.034  27.712 -0.2432 -0.1883  0.1600
21469W        W22333  16.840  18.675  24.835 -0.1140 -0.0273 -0.1735
21470W        W22334  14.203  23.135  27.690 -0.0775  0.1451  0.0970
21471W        W22335  16.238  20.486  26.894  0.2456 -0.1030 -0.0942
21472W        W22336  13.458  18.843  25.983 -0.1295  0.2069  0.0634
21473W        W22337  15.850  21.028  28.062  0.3282  0.1159 -0.4922
21474W        W22338  14.840  20.458  28.689 -0.1145 -0.1800 -0.2680
21475W        W22339  15.390  21.239  27.052  0.2478  0.1198 -0.1454
21476W        W22340  14.019  22.075  26.022  0.1929 -0.1815 -0.3026
21477W        W22341  13.472  17.976  25.880 -0.3131 -0.0828 -0.4343
21478W        W22342  16.279  19.580  26.995  0.3363 -0.0492  0.1267
21479W        W22343  14.933  18.098  29.040 -0.2116 -0.1095 -0.0148
21480W        W22344  17.128  18.585  28.631  0.3343  0.2290 -0.0953
21481W        W22345  19.176  20.048  28.109  0.0818  0.1388  0.2258
21482W        W22346  13.772  18.730  26.914 -0.1566  0.0236 -0.2518
21483W        W22347  16.559  21.640  26.360 -0.2682 -0.0149  0.1347
21484W        W22348  18.424  17.008  28.882  0.2640 -0.2681 -0.0847
21485W        W22349  14.887  19.989  28.734 -0.0116  0.1073 -0.0694
21486W        W22350  18.658  19.046   1.673  0.0184 -0.1164 -0.1795
21487W        W22351  15.911  19.335  26.049  0.3086  0.0667 -0.2978
21488W        W22352  15.492  14.088   3.221 -0.0929  0.0242  0.3150
21489W        W22353  15.800  18.897  28.018  0.2116 -0.3811 -0.0782
21490W        W22354  13.681  17.180  28.523  0.0044 -0.0069 -0.0667
21491W        W22355  17.622  21.517  27.660  0.1505  0.1937  0.0984
21492W        W22356  20.018  19.149  28.311 -0.0217  0.1634 -0.0345
21493W        W22357  16.337  23.394  24.573  0.1630  0.1555  0.3169
21494W        W22358  13.925  21.565  25.973 -0.1052 -0.0949  0.0696
21495W        W22359  13.932  22.393   0.878  0.0308  0.1291  0.3270
21496W        W22360  15.105  17.432  28.442 -0.1445  0.1481 -0.1782
21497W        W22361  16.478  22.024  29.087 -0.1223 -0.1295 -0.3783
21498W        W22362  21.137  19.596  27.608 -0.0740 -0.2876  0.0091
21499W        W22363  18.871  19.180  29.061 -0.0181 -0.0417 -0.0065
21500W        W22364  18.176  24.003  27.404 -0.1458  0.0338 -0.2030
21501W        W22365  14.546  22.984  28.859  0.1778 -0.0973  0.0840
21502W        W22366  17.085  22.771  25.881  0.0122  0.1319  0.2732
21503W        W22367  17.559  18.971   1.522 -0.2086  0.0977 -0.2049
21504W        W22368  16.324  20.149   1.047 -0.1173  0.1857  0.1002
21505W        W22369  17.821  17.585  27.649  0.0951 -0.0424  0.1222
21506W        W22370  19.790  19.527   0.345 -0.0932  0.0200 -0.0527
21507W        W22371  15.993  21.815   0.082 -0.0891  0.0797  0.1208
21508W        W22372  14.882  18.514  26.798 -0.0140 -0.2913 -0.0034
21509W        W22373  18.705  22.198  26.921 -0.2575 -0.0160 -0.2779
21510W        W22374  16.113  18.481  28.465  0.1899 -0.2437 -0.1541
21511W        W22375  16.754  19.635   0.526  0.0826  0.1237 -0.0257
21512W        W22376  19.487  19.026  28.232  0.2194 -0.2447 -0.4984
21513W        W22377  16.821  19.675  27.095  0.3701  0.1362  0.2312
21514W        W22378  18.185  19.213  27.811 -0.1283 -0.0336 -0.1029
21515W        W22379  18.882  20.094  26.677  0.0893 -0.0706  0.1160
21516W        W22380  18.307  20.136   0.642 -0.1556 -0.1458 -0.3833
21517W        W22381  13.249  20.145  27.635  0.0762 -0.0987 -0.0554
21518W        W22382  17.597  21.245  25.538  0.1884  0.1499 -0.2007
21519W        W22383  15.076  19.473  28.346  0.2440 -0.2300 -0.0916
21520W        W22384  18.025  20.521  25.598  0.0332 -0.2302 -0.2167
21521W        W22385  18.063  20.278  27.606 -0.2779 -0.1792 -0.1236
21522W        W22386  14.581  19.496  27.186 -0.0552  0.1833 -0.0566
21523W        W22387  16.057  21.584  28.717 -0.0913  0.0101  0.0738
21524W        W22388  18.165  21.613  26.605  0.1907  0.0686 -0.3098
21525W        W22389  13.166  22.134  26.719 -0.1246  0.1412 -0.0458
21526W        W22390  13.175  23.809  28.420 -0.1205  0.2203  0.2508
21527W        W22391  13.710  19.110  27.189 -0.0939  0.1497  0.1657
21528W        W22392  18.069  19.228  26.924  0.2370  0.0851 -0.1941
21529W        W22393  19.061  19.977  26.252  0.1967 -0.2028  0.2313
21530W        W22394  17.273  21.318  23.054 -0.1755 -0.0833  0.0374
21531W        W22395  18.412  19.060  27.295  0.0519 -0.2170  0.1000
21532W        W22396  18.016  19.437  27.375  0.0301  0.3298 -0.0889
21533W        W22397  19.484  22.632  27.605 -0.1200  0.1816  0.0881
21534W        W22398  14.608  18.669  25.720 -0.0805  0.1119  0.3038
21535W        W22399  13.947  22.505  27.160  0.1414 -0.0797 -0.0815
21536W        W22400  13.904  21.599  27.953 -0.2087 -0.2584 -0.1249
21537W        W22401  16.869  21.131   1.051  0.1204 -0.1340  0.0479
21538W        W22402  15.849  22.025   1.113  0.0866  0.0826  0.1493
21539W        W22403  13.983  22.836  28.705 -0.3787 -0.2861 -0.1715
21540W        W22404  18.616  22.349  23.545 -0.0315  0.2154  0.0414
21541W        W22405  19.459  19.290  25.150  0.2776 -0.1872  0.0852
21542W        W22406  15.373  16.225  27.474  0.2727  0.0861  0.0646
21543W        W22407  16.376  21.383  25.132 -0.1265  0.0049  0.1074
21544W        W22408  20.325  20.531  26.261  0.1488  0.0967  0.0861
21545W        W22409  19.397  21.077  26.962  0.0117  0.0799  0.2586
21546W        W22410  16.441  21.390  26.757 -0.1750 -0.1058 -0.1875
21547W        W22411  15.888  23.290   0.518  0.1447  0.3223 -0.2145
21548W        W22412  19.528  18.849  26.988  0.1093 -0.3380  0.1788
21549W        W22413  13.125  23.681  27.679 -0.0099 -0.1071 -0.0047
21550W        W22414  14.225  22.727   0.625 -0.0334  0.0959  0.2012
21551W        W22415  14.992  22.332  24.945  0.2416  0.2744  0.0911
21552W        W22416  13.774  20.348  26.172  0.1785 -0.1393 -0.1325
21553W        W22417  15.783  23.112  27.569 -0.0397  0.1635 -0.0426
21554W        W22418  17.582  18.405  27.600 -0.2009 -0.1674 -0.1213
21555W        W22419  15.478  22.381  26.336 -0.0817  0.1669 -0.4348
21556W        W22420  14.965  20.897  27.049 -0.0457  0.0847 -0.2004
21557W        W22421  16.925  17.353   0.591 -0.1128 -0.0159  0.0351
21558W        W22422  15.447  22.807  28.722  0.3529 -0.1922  0.1168
21559W        W22423  19.898  24.167  27.914 -0.2470  0.1586 -0.1088
21560W        W22424  18.234  16.916  25.808  0.1732 -0.2737  0.2181
21561W        W22425  15.774  16.432   1.658  0.0123 -0.3696 -0.2469
21562W        W22426  17.012  20.477   0.079 -0.0831 -0.0385 -0.2007
21563W        W22427  15.008  18.836  23.568  0.1272  0.0016  0.0956
21564W        W22428  13.685  24.079  26.916  0.2518 -0.2283  0.1340
21565W        W22429  16.877  20.706  27.461  0.1426 -0.1359 -0.2898
21566W        W22430  13.910  18.393  25.278 -0.3541 -0.2568 -0.0715
21567W        W22431  15.309  21.317  27.539 -0.0789 -0.1590 -0.2684
21568W        W22432  10.884  22.338  28.610  0.0823 -0.0044  0.0155
21569W        W22433  18.829  20.664  28.056  0.0580  0.0280 -0.0651
21570W        W22434  18.097  19.099  25.103 -0.0819 -0.1123 -0.4207
21571W        W22435  19.862  20.188  26.186  0.0601 -0.3672  0.3069
21572W        W22436  15.141  20.325   0.926  0.0458 -0.3149  0.1075
21573W        W22437  19.371  21.625  27.120  0.2483  0.0931  0.0348
21574W        W22438  15.251  22.454  25.815 -0.2089  0.0782 -0.0355
21575W        W22439  18.888  18.019  27.863 -0.0146 -0.0756  0.0310
21576W        W22440  18.172  16.464  27.845  0.2675  0.0665  0.1980
21577W        W22441  17.419  18.912   0.033 -0.0500 -0.5296  0.2495
21578W        W22442  15.639  22.140  26.972  0.1610 -0.0235  0.2026
21579W        W22443  13.793  23.854  27.430 -0.4430  0.0808 -0.0580
21580W        W22444  17.635  19.811   1.218 -0.2624  0.0466  0.0025
21581W        W22445  18.751  18.008   1.775  0.1254 -0.1341 -0.3113
21582W        W22446  19.017  18.602  26.814 -0.1801 -0.2035 -0.0403
21583W        W22447  19.059  21.638   0.631  0.2633 -0.0734 -0.2502
21584W        W22448  12.206  21.594  26.441  0.0856 -0.1134 -0.0893
21585W        W22449  14.999  23.365  26.949 -0.2433  0.2525  0.3411
21586W        W22450  16.584  19.674   1.898 -0.0011 -0.2367  0.2157
21587W        W22451  14.476  22.802   1.653  0.1838 -0.2466 -0.1239
21588W        W22452  20.794  18.661  26.915  0.0286 -0.1175 -0.2437
21589W        W22453  20.308  19.572  25.609  0.4510  0.1106  0.0221
21590W        W22454  16.478  22.479  28.779  0.3191 -0.3874 -0.2472
21591W        W22455  17.816  21.082  28.778  0.1906  0.4223  0.2902
21592W        W22456  13.783  19.237  24.856 -0.0766 -0.3279  0.0598
21593W        W22457  14.823  18.888  26.487  0.0652 -0.0797  0.0460
21594W        W22458  13.507  20.656  28.384  0.0855  0.4934  0.2725
21595W        W22459  16.623  19.970  29.132  0.1246 -0.0938 -0.2286
21596W        W22460  16.160  20.703  28.968 -0.0733 -0.2990 -0.1428
21597W        W22461  16.579  17.656  26.608  0.3959  0.0311  0.0952
21598W        W22462  18.064  21.803  28.039  0.2247  0.2008  0.0446
21599W        W22463  13.792  24.398  27.682 -0.4095  0.2676 -0.1902
21600W        W22464  13.782  23.745  28.470 -0.1629  0.0406 -0.2923
21601W        W22465  16.294  18.755  24.732  0.2017 -0.0320 -0.0982
21602W        W22466  18.700  19.198  25.933 -0.0404  0.0124 -0.0578
21603W        W22467  14.961  21.648  27.575  0.0789  0.0932  0.1743
21604W        W22468  16.891  20.176  27.357 -0.0461  0.2910  0.0205
21605W        W22469  15.986  24.096  28.630  0.0675  0.4747  0.1933
21606W        W22470  19.943  23.571  26.611  0.1659 -0.4395 -0.0774
21607W        W22471  15.083  20.836   0.336 -0.1802  0.1590 -0.0267
21608W        W22472  18.654  20.462   0.448 -0.0241  0.0815  0.1043
21609W        W22473  15.116  21.451  26.060  0.2548  0.0709 -0.0736
21610W        W22474  17.771  20.613  27.200  0.0519  0.0532  0.0086
21611W        W22475  15.406  18.992  28.300 -0.0075  0.1691 -0.3096
21612W        W22476  13.537  20.618  27.828  0.4208 -0.0710 -0.2397
21613W        W22477  14.503  19.998  24.657  0.0443  0.0457  0.0382
21614W        W22478  13.160  23.132  28.985  0.0385  0.2065  0.1442
21615W        W22479  15.482  19.548  26.322  0.0199 -0.0717  0.2622
21616W        W22480  20.638  19.673  27.774  0.0897  0.0770 -0.2030
21617W        W22481  17.674  19.867  28.990 -0.3502  0.0774  0.3442
21618W        W22482  17.356  21.796  26.772  0.3888  0.0034  0.0219
21619W        W22483  17.433  20.217  27.162 -0.1297 -0.3253 -0.2368
21620W        W22484  15.414  20.347   2.207  0.1747 -0.1204  0.0593
21621W        W22485  14.640  21.550   0.831  0.2352 -0.0406  0.0250
21622W        W22486  20.937  21.297  26.604  0.3049 -0.0724 -0.0688
21623W        W22487  17.470  22.010  27.504 -0.0844  0.1987  0.1988
21624W        W22488  14.015  18.134  27.510 -0.1357 -0.1669  0.0546
21625W        W22489  13.117  21.942  27.186 -0.1106  0.1432 -0.4293
21626W        W22490  15.614  17.190  28.656  0.0919  0.0375 -0.2071
21627W        W22491  15.556  19.427  28.148  0.2153  0.0182 -0.2521
21628W        W22492  17.472  20.947  27.746  0.2826 -0.2978  0.0326
21629W        W22493  17.556  20.099  27.782  0.2787  0.2079 -0.1274
21630W        W22494  15.742  23.327  28.030 -0.0193  0.3844 -0.1398
21631W        W22495  16.180  18.959  26.688  0.0893  0.1361  0.2618
21632W        W22496  15.779  18.715  26.871 -0.0217  0.1815 -0.0053
21633W        W22497  16.760  22.099  28.548  0.1016 -0.0643 -0.0900
21634W        W22498  17.310  16.699  29.076  0.0573  0.3041  0.4198
21635W        W22499  17.846  18.652   0.795  0.3576  0.0493  0.0761
21636W        W22500  18.378  18.093  25.703 -0.0905  0.5593 -0.0468
21637W        W22501  14.872  19.071  26.033  0.0098 -0.1874  0.0158
21638W        W22502  11.366  24.988  26.805 -0.0936 -0.0637  0.1191
21639W        W22503  17.287  21.079  27.281 -0.0492 -0.4116  0.3253
21640W        W22504  14.698  21.296  26.299 -0.0428  0.1336  0.2634
21641W        W22505  14.957  21.916  28.701  0.1436 -0.0777 -0.0564
21642W        W22506  15.346  19.129  27.727  0.4726 -0.0237 -0.1415
21643W        W22507  18.211  18.719   2.995  0.0406 -0.0244 -0.1595
21644W        W22508  17.058  20.105  27.791  0.0362 -0.1027  0.3801
21645W        W22509  15.707  19.586  26.783  0.1122  0.1775 -0.0169
21646W        W22510  14.823  22.601  28.375 -0.0635 -0.0401 -0.1183
21647W        W22511  14.686  18.877  24.282  0.1300 -0.0204  0.1510
21648W        W22512  14.758  21.297  27.852 -0.0443 -0.2591 -0.0079
21649W        W22513  17.241  23.549  25.356  0.1740 -0.3148  0.3508
21650W        W22514  16.255  22.467   0.069 -0.1281 -0.0341 -0.0454
21651W        W22515  16.705  21.301  28.050 -0.1339  0.0714 -0.3966
21652W        W22516  14.251  21.378  28.202  0.0740  0.0271 -0.0098
21653W        W22517  16.273  18.895  27.168  0.2678  0.1534 -0.1944
21654W        W22518  16.310  20.580  27.413  0.0100 -0.1945 -0.1433
21655W        W22519  17.791  20.012  24.908  0.1119 -0.1314 -0.0439
21656W        W22520  18.685  18.136  27.010 -0.1123 -0.2334  0.0138
21657W        W22521  14.302  21.590  26.392  0.1440 -0.2475  0.4081
21658W        W22522  17.262  20.825  24.859  0.1153  0.2673 -0.1437
21659W        W22523  18.651  22.766  26.622 -0.0569  0.3002  0.1677
21660W        W22524  17.619  15.620   1.391 -0.0848  0.1650  0.2770
21661W        W22525  19.017  22.514  27.332 -0.0457  0.2430  0.0614
21662W        W22526  18.767  20.848  26.112  0.3198 -0.3137  0.0971
21663W        W22527  16.170  16.593  27.584 -0.2644  0.1187 -0.1217
21664W        W22528  17.189  19.295  27.473 -0.0099 -0.0928  0.0213
21665W        W22529  15.272  20.260  28.586 -0.2412 -0.0011 -0.1540
21666W        W22530  15.869  19.683  24.670 -0.1065  0.0757  0.0131
21667W        W22531  14.015  21.140  27.258 -0.2224  0.0272  0.0430
21668W        W22532  15.662  20.092  28.841  0.2749  0.1657 -0.2700
21669W        W22533  16.714  21.827  28.118  0.0510 -0.1959 -0.4014
21670W        W22534  16.771  19.416   1.119  0.0310 -0.2360 -0.1312
21671W        W22535  17.905  23.090  25.203  0.2753 -0.0519 -0.2761
21672W        W22536  15.778  21.533  28.195  0.0126  0.2041  0.0558
21673W        W22537  14.409  22.276   0.929  0.2732 -0.3413  0.3270
21674W        W22538  16.938  22.631  26.958  0.2516  0.2788  0.0101
21675W        W22539  14.320  20.403   0.827  0.1643  0.1597 -0.2832
21676W        W22540  12.335  24.632  27.625 -0.0296 -0.0948 -0.2083
21677W        W22541  17.468  23.321  27.432 -0.3368 -0.1845 -0.2965
21678W        W22542  18.441  21.176  25.957 -0.1169 -0.1401 -0.0058
21679W        W22543  15.923  20.595  28.328  0.1001  0.2070  0.0179
21680W        W22544  20.157  18.116  27.990  0.0510  0.0396  0.2392
21681W        W22545  13.727  22.109  28.000 -0.0199  0.0451 -0.0605
21682W        W22546  14.794  24.599  26.669  0.1061 -0.1457 -0.2872
21683W        W22547  14.482  23.343  28.037 -0.0679 -0.1577  0.0327
21684W        W22548  15.887  18.469  27.790  0.0868  0.1238  0.3607
21685W        W22549  13.276  23.923   4.316 -0.0687 -0.2863  0.3221
21686W        W22550  14.881  26.787   6.076  0.0429  0.1341  0.2114
21687W        W22551  18.367  24.720   0.115 -0.0023 -0.2935 -0.1458
21688W        W22552  18.238  24.155   4.678  0.0386 -0.1020  0.0038
21689W        W22553  16.184  24.562  28.794  0.2354 -0.0562 -0.3614
21690W        W22554  16.360  20.874   3.157  0.1194  0.0189 -0.0573
21691W        W22555  14.575  24.672   0.755  0.1137 -0.1677 -0.2266
21692W        W22556  16.638  24.165   1.212  0.1564 -0.1799  0.0102
21693W        W22557  14.644  23.787   5.226 -0.1485  0.0395 -0.0910
21694W        W22558  14.711  23.245   4.964  0.1204 -0.0816  0.4057
21695W        W22559  14.613  19.723   4.798  0.1084 -0.0164 -0.0329
21696W        W22560  15.470  23.094   1.486 -0.3768  0.2484  0.0302
21697W        W22561  13.209  24.531   2.488  0.0422  0.0398  0.1449
21698W        W22562  16.261  21.894   4.310 -0.3814  0.3582 -0.0737
21699W        W22563  15.990  19.538   2.649  0.3650 -0.1228  0.2643
21700W        W22564  16.225  26.019   3.482 -0.0467 -0.0278 -0.0053
21701W        W22565  18.074  24.542  28.472 -0.2628 -0.2969  0.0121
21702W        W22566  15.658  22.994   2.982  0.3070 -0.0991 -0.3033
21703W        W22567  13.180  25.579   4.569  0.2960  0.2278  0.2214
21704W        W22568  15.589  22.671   2.594  0.1032 -0.2326  0.0422
21705W        W22569  16.747  21.825   5.454  0.1574 -0.0510  0.1036
21706W        W22570  18.923  22.926  28.211  0.1337 -0.0241 -0.2549
21707W        W22571  16.617  24.833   3.104 -0.0549 -0.0131  0.2044
21708W        W22572  15.524  23.494   1.127 -0.0670  0.0976  0.1195
21709W        W22573  12.512  24.267  27.974  0.1262  0.0097 -0.1224
21710W        W22574  16.279  23.688   5.310 -0.0905 -0.2453  0.0797
21711W        W22575  17.968  23.711   2.564  0.2757 -0.2459  0.0397
21712W        W22576  16.304  23.988   1.677  0.0922  0.1380  0.0822
21713W        W22577  16.057  27.349   1.307 -0.2423  0.2452 -0.1064
21714W        W22578  15.123  21.352   3.199  0.0981  0.0007  0.1089
21715W        W22579  19.086  25.216   2.636 -0.1642  0.0617 -0.0474
21716W        W22580  19.644  24.428   2.816  0.0453 -0.0940  0.2247
21717W        W22581  16.531  23.861   3.348  0.1423  0.1029  0.3771
21718W        W22582  12.908  25.076   2.812  0.2544  0.1794  0.1123
21719W        W22583  12.785  21.294   3.447 -0.2327  0.1513 -0.0021
21720W        W22584  17.322  23.987   2.688 -0.0219 -0.0552  0.3595
21721W        W22585  13.744  21.482   0.199 -0.1173 -0.0988  0.3425
21722W        W22586  15.529  24.643   2.342 -0.1024 -0.1844 -0.0885
21723W        W22587  15.364  27.542   2.530  0.1076 -0.2619  0.3150
21724W        W22588  13.801  22.885   0.924 -0.1238 -0.1060 -0.4263
21725W        W22589  15.921  22.765  29.036  0.3258  0.1405  0.1138
21726W        W22590  18.168  24.482   2.009 -0.1193  0.0027 -0.0924
21727W        W22591  16.173  23.917   3.684  0.2145  0.0823 -0.1013
21728W        W22592  18.912  25.162   0.415  0.2487 -0.4851 -0.1274
21729W        W22593  13.617  25.042  29.131 -0.2187 -0.1253 -0.1976
21730W        W22594  13.222  25.776   0.262 -0.0652 -0.0909 -0.1287
21731W        W22595  16.450  19.430   5.369 -0.1101 -0.0837 -0.0940
21732W        W22596  16.814  24.315   3.434 -0.3656 -0.1830 -0.1941
21733W        W22597  15.501  22.731   1.806 -0.0563  0.0530  0.0833
21734W        W22598  15.090  23.042  29.036  0.1043  0.2038  0.0521
21735W        W22599  14.205  24.065   4.021 -0.0093 -0.0235 -0.0621
21736W        W22600  18.161  21.349  28.508 -0.0721  0.1960  0.0340
21737W        W22601  16.745  25.456   3.083 -0.0920 -0.0943  0.1377
21738W        W22602  16.217  23.817   1.196  0.0490 -0.0680  0.2873
21739W        W22603  17.418  21.841  28.782 -0.1067 -0.1771  0.2297
21740W        W22604  16.971  27.638   0.749  0.0460 -0.1133 -0.2689
21741W        W22605  14.249  23.260   1.730 -0.0421 -0.0017 -0.1839
21742W        W22606  18.082  24.504   0.986 -0.3825 -0.2299  0.1349
21743W        W22607  14.024  25.688   2.221  0.2258 -0.0656  0.0908
21744W        W22608  17.264  27.197   0.317 -0.1005 -0.1860 -0.1942
21745W        W22609  17.937  21.145  28.065 -0.0909 -0.0810  0.3977
21746W        W22610  13.805  27.643   2.215  0.2259 -0.1330 -0.0274
21747W        W22611  14.970  26.008   3.270  0.2343  0.0243 -0.0751
21748W        W22612  15.108  23.386   2.469  0.1357  0.2384  0.0787
21749W        W22613  15.818  23.758   2.691 -0.1932  0.4382  0.1230
21750W        W22614  17.505  21.788   1.937  0.2029  0.2680 -0.1059
21751W        W22615  16.089  25.394  27.537 -0.0048  0.2253  0.1288
21752W        W22616  17.767  24.249   0.777  0.0064 -0.0709  0.1092
21753W        W22617  11.952  24.582   0.731 -0.0513  0.0197  0.0886
21754W        W22618  14.923  24.078   0.923 -0.3234  0.2865 -0.0755
21755W        W22619  17.613  24.028   3.588 -0.0481  0.1600 -0.0161
21756W        W22620  13.929  23.322   0.757  0.1203  0.2193 -0.3913
21757W        W22621  16.410  24.772   2.320  0.1446  0.0147  0.2655
21758W        W22622  15.738  21.390   3.781  0.1080  0.3501  0.1106
21759W        W22623  18.287  24.068   3.092  0.1273  0.0622 -0.2293
21760W        W22624  17.843  25.189   2.353 -0.1029 -0.1585 -0.1091
21761W        W22625  15.667  24.484  28.996  0.1355  0.1607 -0.0129
21762W        W22626  16.334  23.880   4.191  0.1802 -0.1315  0.0251
21763W        W22627  20.124  25.395   0.917  0.1193 -0.0990  0.1280
21764W        W22628  15.665  24.899   1.681  0.1539  0.1626  0.2618
21765W        W22629  13.362  22.786   2.135  0.0359 -0.0868  0.0231
21766W        W22630  11.936  24.022   2.138 -0.0276  0.0311  0.0158
21767W        W22631  11.910  25.054   4.832 -0.1634  0.3232 -0.0447
21768W        W22632  19.140  20.379  28.828 -0.0065  0.0339 -0.2828
21769W        W22633  15.472  21.317   1.130 -0.0901 -0.2314 -0.3502
21770W        W22634  16.303  24.406   0.727  0.0904 -0.3082  0.2034
21771W        W22635  18.793  23.877   3.195 -0.1457 -0.1612  0.0531
21772W        W22636  15.059  19.784   1.033  0.1212 -0.1910 -0.0316
21773W        W22637  17.035  24.244   5.776  0.1794 -0.0081 -0.0324
21774W        W22638  17.173  21.920   2.321 -0.0162  0.3957  0.1582
21775W        W22639  13.842  23.000   1.444 -0.4938 -0.2920  0.1962
21776W        W22640  16.360  24.617   3.459  0.0568  0.1237  0.0356
21777W        W22641  15.702  21.803   2.902  0.2436  0.0420  0.0462
21778W        W22642  14.361  24.229  28.293  0.3036  0.2401 -0.2050
21779W        W22643  14.517  21.589   2.338 -0.2052 -0.1332 -0.3349
21780W        W22644  14.851  22.623  27.424  0.0400  0.1449  0.2827
21781W        W22645  16.730  22.211  25.729 -0.0737  0.1894 -0.0245
21782W        W22646  13.821  25.378   1.279  0.1959 -0.0296  0.1191
21783W        W22647  13.156  21.796   2.018 -0.1579 -0.1767 -0.0565
21784W        W22648  17.696  24.967   0.574 -0.0536  0.0749  0.1712
21785W        W22649  19.585  26.246   1.141  0.1264 -0.2012  0.1839
21786W        W22650  12.051  24.169   1.710 -0.0216  0.1653  0.2363
21787W        W22651  15.998  23.539   4.071  0.4066 -0.2685 -0.1603
21788W        W22652  19.599  23.126   0.526  0.2150 -0.3019 -0.0304
21789W        W22653  19.400  20.721   3.253  0.1494 -0.1634 -0.3461
21790W        W22654  17.967  25.099   3.753  0.0040 -0.0139 -0.4029
21791W        W22655  14.536  24.776   0.223 -0.2170 -0.1659  0.0865
21792W        W22656  16.138  21.280   3.481 -0.1175  0.1573  0.2111
21793W        W22657  17.497  25.866   0.099  0.2844  0.0526  0.0234
21794W        W22658  11.675  26.065   0.116  0.3012 -0.3404 -0.1977
21795W        W22659  17.392  25.950   2.175  0.0311 -0.4280 -0.2576
21796W        W22660  15.615  24.419   1.443 -0.0962 -0.0849 -0.0619
21797W        W22661  18.228  22.137   1.442  0.0498  0.1676 -0.1403
21798W        W22662  16.261  23.416   4.452  0.0672  0.4134  0.2615
21799W        W22663  17.346  24.855   1.763  0.0386 -0.1117 -0.1572
21800W        W22664  16.344  25.251   0.990 -0.0085 -0.0458 -0.0249
21801W        W22665  17.131  23.470   2.888  0.1438 -0.1156  0.2311
21802W        W22666  17.761  23.220   1.791  0.0490  0.1475 -0.2012
21803W        W22667  17.190  22.485   0.988 -0.1009  0.3331 -0.0964
21804W        W22668  16.700  22.476   1.083 -0.0422 -0.1218 -0.0384
21805W        W22669  16.836  22.508  28.344 -0.0044 -0.0627  0.2444
21806W        W22670  16.560  23.795   2.077 -0.0071 -0.1443  0.1226
21807W        W22671  18.562  23.845   2.706  0.0500  0.0327 -0.0379
21808W        W22672  16.268  25.710   0.559 -0.0559  0.2278  0.0859
21809W        W22673  14.148  24.604   0.447  0.2565  0.1140 -0.2086
21810W        W22674  13.695  24.698   2.416  0.0754  0.1397  0.2048
21811W        W22675  16.239  22.441   1.957  0.0124 -0.1351  0.0455
21812W        W22676  16.387  24.320   3.841 -0.0325  0.1432 -0.0268
21813W        W22677  15.875  25.634   3.544  0.1268  0.1979 -0.2187
21814W        W22678  16.504  22.680   3.112 -0.1815 -0.2572 -0.0753
21815W        W22679  15.151  23.487   1.598  0.0671 -0.0968  0.0802
21816W        W22680  15.870  20.866   1.874  0.2095  0.2523 -0.0720
21817W        W22681  14.609  24.088   3.159 -0.4304  0.0108  0.3514
21818W        W22682  17.676  23.739   0.392  0.0243  0.0598  0.3093
21819W        W22683  17.313  21.944   1.506 -0.2713  0.0815 -0.0423
21820W        W22684  12.814  22.521   3.369 -0.1048  0.3279 -0.1046
21821W        W22685  18.798  21.727  28.724  0.0333 -0.1559 -0.3183
21822W        W22686  18.697  24.302   2.339 -0.3101  0.0415 -0.2995
21823W        W22687  15.059  24.904   2.323  0.1931 -0.3098  0.0337
21824W        W22688  16.208  26.211   0.651 -0.1354  0.1057 -0.0141
21825W        W22689  16.434  21.533  29.098 -0.1943  0.3609 -0.2163
21826W        W22690  16.937  21.843   5.914  0.2021  0.1492  0.1323
21827W        W22691  16.187  24.299   1.198 -0.2225 -0.0910 -0.1144
21828W        W22692  16.515  23.060   0.474  0.2068  0.3768  0.1950
21829W        W22693  14.924  24.183   4.992  0.0207 -0.1312  0.1461
21830W        W22694  20.091  24.804  28.801  0.2471 -0.1567  0.1480
21831W        W22695  18.220  22.328   3.455  0.2952  0.1425  0.0410
21832W        W22696  16.984  23.892   0.927  0.0696  0.0264 -0.0463
21833W        W22697  17.146  24.346   1.037 -0.1745  0.0478  0.0284
21834W        W22698  14.627  24.997   3.352 -0.0174  0.0166 -0.1464
21835W        W22699  15.529  25.885   4.369  0.1176 -0.3137  0.3566
21836W        W22700  14.489  23.691   0.933  0.0053 -0.2296 -0.2601
21837W        W22701  14.179  24.332   4.496 -0.0163  0.0078 -0.0569
21838W        W22702  14.365  23.489   0.237  0.2300  0.2321 -0.0533
21839W        W22703  13.538  21.402   1.754  0.2058 -0.2608 -0.0771
21840W        W22704  18.420  22.187   2.073  0.0624  0.0479 -0.0803
21841W        W22705  15.023  26.620   1.330 -0.1678 -0.2299  0.0679
21842W        W22706  17.071  23.668  28.935  0.0491  0.1097 -0.0401
21843W        W22707  16.399  22.130   0.915 -0.1953  0.1049 -0.0897
21844W        W22708  18.906  23.484  28.879 -0.1988  0.0121 -0.2011
21845W        W22709  15.642  23.349   3.354  0.2056  0.1827  0.0791
21846W        W22710  15.437  22.080   2.454 -0.0284  0.3043 -0.1504
21847W        W22711  13.386  23.706   7.577 -0.0093 -0.0176 -0.0507
21848W        W22712  17.383  24.347   4.916 -0.0312  0.2760 -0.1998
21849W        W22713  17.737  21.727   2.379 -0.0654  0.1236 -0.2606
21850W        W22714  14.775  23.170   2.162 -0.2653 -0.0126 -0.1886
21851W        W22715  16.319  22.893   0.902 -0.1217 -0.0826  0.2287
21852W        W22716  16.631  26.148   0.963  0.0408 -0.1884 -0.2612
21853W        W22717  15.366  26.196   3.037  0.2126 -0.1567  0.2594
21854W        W22718  17.103  23.036  28.857 -0.0934  0.3038 -0.0259
21855W        W22719  17.226  23.435   0.973 -0.0637  0.1721  0.1427
21856W        W22720  17.501  23.910   2.228 -0.0597  0.0737 -0.0125
21857W        W22721  16.332  24.590   2.773  0.0667 -0.0385  0.3329
21858W        W22722  16.590  25.496   0.233 -0.2504 -0.0530  0.2892
21859W        W22723  16.764  23.043   1.628  0.4199  0.0252 -0.0916
21860W        W22724  17.481  22.474  28.090  0.1263 -0.1470 -0.1861
21861W        W22725  15.735  26.800   4.233 -0.1276  0.0772 -0.1542
21862W        W22726  13.000  26.041   1.255 -0.0085 -0.1971 -0.0725
21863W        W22727  11.301  25.644   2.231 -0.0340 -0.0366  0.1735
21864W        W22728  15.523  22.244   1.697  0.1693  0.0776  0.0596
21865W        W22729  16.522  28.026   0.617  0.2339  0.2175  0.2035
21866W        W22730  17.453  23.400   2.382  0.1990 -0.2023 -0.0451
21867W        W22731  15.716  25.639   0.976 -0.0011  0.3614  0.1852
21868W        W22732  14.097  23.188  29.049  0.0474 -0.1397  0.1521
21869W        W22733  13.865  22.930  28.014  0.1719  0.2220  0.0600
21870W        W22734  16.695  25.742   3.608 -0.0214  0.1437  0.0488
21871W        W22735  18.025  23.662  28.976 -0.0544 -0.2031 -0.1213
21872W        W22736  12.261  23.928  28.735 -0.1195 -0.3165 -0.3662
21873W        W22737  15.194  23.202   4.085 -0.1301  0.5058 -0.1830
21874W        W22738  14.204  23.663   3.159  0.2012  0.0026 -0.0791
21875W        W22739  13.842  26.015  28.856 -0.1075  0.2898 -0.0282
21876W        W22740  16.146  23.949   2.331  0.1475 -0.0887 -0.0180
21877W        W22741  15.467  23.292   1.974 -0.0208  0.1615  0.1704
21878W        W22742  15.708  22.391   2.170  0.2030  0.1296 -0.0052
21879W        W22743  15.093  22.167  29.113  0.2831  0.0150  0.1252
21880W        W22744  14.749  21.839   0.074 -0.0265  0.0307  0.0582
21881W        W22745  15.862  23.725   0.827 -0.0463  0.0159 -0.2094
21882W        W22746  16.185  22.875   2.650 -0.2243 -0.0279 -0.1457
21883W        W22747  17.794  25.669   2.191 -0.0051 -0.2759 -0.0808
21884W        W22748  17.365  20.008   2.954 -0.1274  0.0147 -0.1469
21885W        W22749  12.811  22.142   0.874 -0.1904 -0.0711  0.2309
21886W        W22750  16.970  20.884   0.509  0.2157  0.0986  0.3101
21887W        W22751  18.165  24.782   0.601 -0.0188 -0.0117 -0.0869
21888W        W22752  16.103  21.680   3.771 -0.1930 -0.0465 -0.1487
21889W        W22753  14.761  20.816   2.905  0.0822  0.0246 -0.0561
21890W        W22754  13.433  22.598   0.739 -0.0020  0.1392 -0.0420
21891W        W22755  14.135  26.464   3.273 -0.4288  0.0294  0.0671
21892W        W22756  14.021  23.424   2.598  0.1949  0.0304 -0.1767
21893W        W22757  15.549  26.608   2.875 -0.3834  0.3644 -0.1904
21894W        W22758  15.297  25.087  28.137 -0.1802 -0.1347 -0.2300
21895W        W22759  15.827  23.322   5.473 -0.2714  0.0517  0.1522
21896W        W22760  14.715  24.812   3.816 -0.2961 -0.2020  0.2697
21897W        W22761  14.741  22.659   0.628  0.1845 -0.1439  0.1003
21898W        W22762  17.008  22.929   1.237 -0.0684  0.2708 -0.1489
21899W        W22763  19.986  21.897   5.054 -0.0230  0.0868 -0.2259
21900W        W22764  17.752  24.676  28.850  0.2306  0.2764  0.0550
21901W        W22765  16.074  24.580   0.216 -0.2986  0.2084  0.1949
21902W        W22766  19.549  27.242   1.604  0.1817 -0.0215 -0.0305
21903W        W22767  15.619  22.605   6.421  0.0282  0.2762  0.3651
21904W        W22768  14.631  23.549   1.865 -0.2496  0.0619 -0.0447
21905W        W22769  18.093  21.575   5.124 -0.1171  0.2981 -0.3617
21906W        W22770  18.150  20.892   1.049  0.0790 -0.2860 -0.1730
21907W        W22771  15.447  24.490   1.886 -0.2682 -0.1594 -0.0258
21908W        W22772  12.233  21.769  28.643 -0.0082 -0.1245 -0.0381
21909W        W22773  16.988  23.340  28.486 -0.0188  0.1144  0.1286
21910W        W22774  15.791  20.891   4.736  0.1966  0.2063 -0.2136
21911W        W22775  17.428  23.530   5.354  0.3046  0.0022 -0.2310
21912W        W22776  16.689  21.164   2.592 -0.0549  0.2509 -0.0887
21913W        W22777  16.920  25.347   1.153 -0.2530 -0.1649  0.0036
21914W        W22778  15.304  24.206   2.534 -0.0589  0.0952  0.1752
21915W        W22779  15.381  23.287  28.524 -0.1898  0.0543 -0.0133
21916W        W22780  16.598  23.415   3.099  0.0638  0.3118 -0.4196
21917W        W22781  13.910  23.984  27.948 -0.1629 -0.0593  0.1261
21918W        W22782  18.563  25.577   0.553 -0.2959 -0.1106  0.1873
21919W        W22783  13.825  20.053   2.898 -0.1463  0.0336 -0.0873
21920W        W22784  15.967  24.387   2.451  0.0169 -0.1768 -0.1371
21921W        W22785  18.812  23.731  28.460 -0.0787 -0.0399 -0.0117
21922W        W22786  15.837  20.309   1.146 -0.0502 -0.1169 -0.1880
21923W        W22787  16.335  23.687   2.736  0.2243  0.0107  0.0633
21924W        W22788  15.308  25.901   2.161  0.0094  0.0014 -0.3268
21925W        W22789  15.867  25.870   0.269 -0.0478  0.2227  0.1759
21926W        W22790  16.830  22.276   6.275  0.0770  0.1359 -0.1198
21927W        W22791  14.196  23.460   4.117 -0.0553 -0.0508 -0.0411
21928W        W22792  15.647  20.035   1.907 -0.1016  0.3006  0.0142
21929W        W22793  16.603  21.918   1.437 -0.2754  0.0590 -0.0193
21930W        W22794  16.022  25.160   1.482 -0.0078 -0.2914  0.0265
21931W        W22795  18.560  24.753   2.628 -0.1380 -0.2574 -0.3730
21932W        W22796  13.252  26.613   4.532  0.5072 -0.1355  0.0411
21933W        W22797  18.379  24.112   0.868 -0.1197  0.2043 -0.2014
21934W        W22798  14.612  24.641   2.536 -0.0151  0.0886 -0.0496
21935W        W22799  14.887  24.192   4.402  0.0763 -0.0964 -0.2477
21936W        W22800  11.744  24.046  28.515  0.1212 -0.1120  0.1047
21937W        W22801  18.236  23.756   5.012  0.0292 -0.0940 -0.0730
21938W        W22802  15.990  23.321   4.980 -0.2217 -0.2788  0.1514
21939W        W22803  14.985  22.654   0.221 -0.0072 -0.0786  0.0807
21940W        W22804  17.447  22.698   0.015 -0.0069 -0.1459 -0.1950
21941W        W22805  19.323  23.605   2.439  0.0851  0.0118  0.1926
21942W        W22806  15.293  22.459   2.931 -0.0066  0.1577 -0.1358
21943W        W22807  16.471  23.939   0.809 -0.0513  0.0947  0.0256
21944W        W22808  17.534  22.737   1.260 -0.2744 -0.1473 -0.1571
21945W        W22809  16.726  22.255   3.055 -0.0606 -0.0997 -0.0808
21946W        W22810  15.549  21.906   5.835  0.2704  0.0339  0.4072
21947W        W22811  15.994  24.648   3.112  0.0857  0.3853  0.2556
21948W        W22812  13.530  23.160  28.564  0.2154 -0.2142  0.0349
21949W        W22813  16.043  25.602  27.990 -0.2089  0.0652 -0.2164
21950W        W22814  12.285  23.808   4.256  0.0096 -0.3017  0.3411
21951W        W22815  13.311  24.182   0.502  0.0674 -0.1979 -0.1909
21952W        W22816  17.442  24.777  27.642  0.1340  0.3392  0.0789
21953W        W22817  13.999  25.117   2.228 -0.1646  0.1527 -0.3236
21954W        W22818  18.006  21.538   0.566 -0.0889 -0.3290  0.1004
21955W        W22819  15.240  26.386   0.681  0.1525  0.2887 -0.2445
21956W        W22820  15.905  23.031   1.185  0.2684  0.0447 -0.1545
21957W        W22821  14.985  23.818   2.251 -0.0753  0.0374 -0.1474
21958W        W22822  15.573  24.011   3.066  0.4080 -0.0501  0.3292
21959W        W22823  18.536  25.565   2.138  0.2696  0.1983 -0.0682
21960W        W22824  18.076  22.941   2.184  0.0674 -0.1869 -0.1855
21961W        W22825  16.283  21.114   1.766  0.0178  0.2910 -0.4621
21962W        W22826  16.681  22.432   1.736  0.1455 -0.2662 -0.0922
21963W        W22827  15.799  24.513  28.423 -0.3593 -0.1717 -0.2874
21964W        W22828  15.707  26.194   2.150  0.0563  0.0442  0.3168
21965W        W22829  13.678  24.056  28.878  0.0273 -0.2096 -0.2184
21966W        W22830  13.975  22.125  27.463 -0.2301 -0.0032 -0.1190
21967W        W22831  12.747  24.550  28.893 -0.2758  0.1215 -0.0766
21968W        W22832  15.245  25.846   2.656  0.0604 -0.0134 -0.0902
21969W        W22833  18.575  24.255   0.030  0.1674 -0.1235 -0.1503
21970W        W22834  14.721  22.261   1.948 -0.1890  0.2201  0.1366
21971W        W22835  14.789  27.236   2.981  0.2419 -0.0606  0.3594
21972W        W22836  16.968  23.295   3.403 -0.0486 -0.0316 -0.3362
21973W        W22837  17.224  21.471   0.849  0.0440 -0.0523 -0.3440
21974W        W22838  16.627  24.202   2.491 -0.0823 -0.3265  0.0223
21975W        W22839  15.479  23.731  28.866 -0.0876  0.1952  0.1400
21976W        W22840  15.426  22.212  28.672  0.0133 -0.0436  0.1267
21977W        W22841  17.721  24.601   1.609  0.1953 -0.0796 -0.1387
21978W        W22842  12.356  24.712   1.231 -0.1220  0.1348  0.1189
21979W        W22843  13.546  23.704   0.635  0.1848  0.0353  0.0566
21980W        W22844  17.654  23.487   2.898  0.2248 -0.3188  0.0428
21981W        W22845  15.462  22.532  29.142  0.0808 -0.2043 -0.0561
21982W        W22846  16.943  22.821   2.065  0.1881  0.0165 -0.1187
21983W        W22847  17.038  21.527   2.697 -0.1259  0.1889  0.2019
21984W        W22848  16.755  24.738   3.720  0.1598  0.2161 -0.0023
21985W        W22849  12.660  23.034  28.873  0.1176 -0.0015 -0.0584
21986W        W22850  14.621  22.725   2.248  0.2131  0.1141  0.0264
21987W        W22851  13.960  25.571   3.266  0.3861  0.1085 -0.1912
21988W        W22852  16.342  25.815   2.184  0.0150  0.0440 -0.1089
21989W        W22853  20.978  24.245  29.121  0.1220 -0.1232  0.1243
21990W        W22854  18.157  27.059   2.054 -0.2960  0.2612 -0.0395
21991W        W22855  13.713  23.847   2.842  0.1416 -0.1229  0.1778
21992W        W22856  14.850  22.913   1.038  0.2925  0.2472 -0.0988
21993W        W22857  15.378  23.614   3.811  0.1080  0.0452  0.0550
21994W        W22858  13.346  24.852   1.611 -0.0215  0.0028 -0.2432
21995W        W22859  11.476  23.436   0.007 -0.3018  0.0064 -0.0222
21996W        W22860  16.436  21.792   3.370 -0.0987 -0.0166  0.0884
21997W        W22861  16.952  24.423   0.216 -0.0131  0.0332  0.0929
21998W        W22862  15.354  26.379   1.764 -0.0236 -0.0107 -0.0585
21999W        W22863  17.163  23.146   4.200  0.1067 -0.0532  0.0362
22000W        W22864  15.621  27.710   4.743  0.4492 -0.1801  0.0221
22001W        W22865  12.629  23.177  26.050 -0.0342  0.1164 -0.1766
22002W        W22866  16.112  22.839   0.409 -0.0341  0.0742  0.0237
22003W        W22867  16.976  23.666   2.417  0.0907  0.1482  0.0484
22004W        W22868  15.415  22.226   0.764 -0.2324 -0.2456  0.0769
22005W        W22869  15.031  25.425   2.422  0.1149  0.0742  0.3110
22006W        W22870  16.594  24.345  28.951 -0.3057 -0.1295 -0.0294
22007W        W22871  13.846  27.194   2.564  0.3056 -0.0266  0.1501
22008W        W22872  17.082  23.098   2.499 -0.0198  0.2517  0.1929
22009W        W22873  15.425  23.612   0.591  0.2609  0.2604 -0.2336
22010W        W22874  14.470  24.169   2.294  0.0710 -0.0503 -0.0162
22011W        W22875  15.698  20.761  28.761  0.1770  0.0182  0.2476
22012W        W22876  15.442  24.194  28.616  0.2559  0.0450 -0.1040
22013W        W22877  16.957  24.316  28.247 -0.0365 -0.1120 -0.0038
22014W        W22878  14.269  26.482   0.479  0.2341 -0.1030 -0.3640
22015W        W22879  13.931  24.018   2.389  0.2084 -0.3011 -0.0587
22016W        W22880  17.791  22.383   0.275  0.1455  0.1546 -0.3257
22017W        W22881  19.268  23.217   2.975  0.0204  0.1288  0.2344
22018W        W22882  17.696  25.317   2.808  0.0346  0.0607  0.1908
22019W        W22883  17.832  22.009   3.047  0.1312  0.3262 -0.0635
22020W        W22884  18.064  24.853   4.276  0.1068 -0.1564 -0.0199
22021W        W22885  16.098  25.643   1.312 -0.0363  0.0057  0.2179
22022W        W22886  21.361  22.051   0.486  0.0553  0.2578  0.0934
22023W        W22887  15.792  22.417   0.293 -0.0207 -0.3255 -0.0168
22024W        W22888  15.613  24.539   2.818  0.0204  0.1372  0.0034
22025W        W22889  15.638  26.210   2.662  0.0174  0.4072  0.0783
22026W        W22890  15.922  22.051   1.905 -0.2693 -0.4222  0.2554
22027W        W22891  16.611  20.532  28.734 -0.1768  0.1181 -0.0074
22028W        W22892  15.621  24.576   0.921 -0.2525  0.3114  0.0104
22029W        W22893  15.892  22.838   2.193  0.0472 -0.1293  0.0777
22030W        W22894  14.932  24.474   3.514 -0.1709  0.0742  0.2180
22031W        W22895  17.935  24.972   0.103 -0.0933 -0.2589  0.0955
22032W        W22896  16.446  22.748   1.384  0.2014  0.0242 -0.2023
22033W        W22897  13.879  23.377   2.137 -0.1453  0.3722 -0.1398
22034W        W22898  12.230  24.229   0.950 -0.3422 -0.1403 -0.0278
22035W        W22899  17.738  21.789   0.221 -0.2295 -0.2825 -0.0087
22036W        W22900  16.523  22.733  26.679 -0.1652  0.1416 -0.0737
22037W        W22901  16.875  22.690   0.629 -0.0657 -0.1257 -0.2528
22038W        W22902  14.539  24.670   1.892  0.1190 -0.5200  0.0227
22039W        W22903  17.264  23.975   4.045 -0.0566  0.1231  0.1039
22040W        W22904  17.045  23.473   1.447 -0.2928 -0.3442 -0.1034
22041W        W22905  16.456  22.882   2.184 -0.0580  0.2041  0.1499
22042W        W22906  16.746  24.306   1.670  0.0601 -0.0346 -0.3002
22043W        W22907  16.276  22.503   5.417  0.0421  0.0482  0.1799
22044W        W22908  14.351  23.745  27.744  0.1699  0.0407 -0.0780
22045W        W22909  14.989  21.999   1.618  0.2981  0.1541  0.3021
22046W        W22910  17.452  23.415   4.861  0.0804  0.1688  0.0151
22047W        W22911  13.453  26.326   3.153  0.0842  0.4088 -0.2787
22048W        W22912  14.189  24.257  28.771  0.3825  0.1224  0.0270
22049W        W22913  14.989  25.363   3.399 -0.2329 -0.0081 -0.3176
22050W        W22914  16.046  26.092   1.741  0.1178 -0.0931 -0.1481
22051W        W22915  14.742  24.589   3.049  0.0133  0.0911 -0.3028
22052W        W22916  18.795  22.943   1.544  0.1239  0.2604  0.0405
22053W        W22917  17.087  22.179  27.857 -0.0882  0.0937  0.0123
22054W        W22918  16.572  17.199   1.290 -0.1042 -0.0504 -0.0017
22055W        W22919  15.887  22.826  27.992  0.2013 -0.2043  0.3655
22056W        W22920  18.953  23.378   0.517 -0.1728  0.2753 -0.0575
22057W        W22921  15.688  23.730  28.352 -0.0737  0.1219  0.3066
22058W        W22922  17.202  26.577   4.305 -0.0852 -0.0176  0.1460
22059W        W22923  17.010  24.153   2.229 -0.0153 -0.2868  0.1695
22060W        W22924  14.583  22.336   2.930  0.0006  0.1512  0.1687
22061W        W22925  17.525  23.765   1.165 -0.1196 -0.3333 -0.0701
22062W        W22926  16.288  24.913   5.512 -0.1853  0.1267  0.1797
22063W        W22927  14.440  22.192   2.378 -0.2284 -0.3546 -0.0288
22064W        W22928  14.554  23.167   0.696 -0.0094  0.3458  0.0668
22065W        W22929  15.796  24.036   4.163  0.2036 -0.0497 -0.1866
22066W        W22930  15.305  25.748  27.335  0.2729 -0.1303 -0.1442
22067W        W22931  13.260  25.162   1.238  0.0534 -0.2855 -0.1131
22068W        W22932  16.009  20.436   2.116  0.3117 -0.0432  0.0071
22069W        W22933  16.465  28.303   3.765 -0.0356  0.3791  0.1834
22070W        W22934  15.252  21.637   2.461  0.0427 -0.1254 -0.1539
22071W        W22935  14.479  25.620   1.909  0.0407 -0.0458  0.4581
22072W        W22936  19.102  25.910   4.055 -0.0363  0.0681 -0.1163
22073W        W22937  16.097  23.333   2.407  0.0695 -0.0426  0.2300
22074W        W22938  16.500  23.077   3.506 -0.1833 -0.2672  0.0173
22075W        W22939  15.574  26.707   2.306  0.2254  0.4472  0.1762
22076W        W22940  12.959  25.015   5.639 -0.2629 -0.0195  0.0971
22077W        W22941  17.700  24.246   1.258 -0.1474 -0.1262  0.1105
22078W        W22942  16.734  23.155   0.904  0.1822 -0.2238 -0.0772
22079W        W22943  15.148  24.599   4.779 -0.0822 -0.2038  0.0092
22080W        W22944  17.885  21.996   4.726  0.1000  0.2821  0.0303
22081W        W22945  17.223  25.392  26.892  0.3863 -0.2166 -0.2780
22082W        W22946  16.109  23.402   3.520 -0.2856  0.0113  0.1857
22083W        W22947  16.859  24.696   2.624 -0.0749 -0.1789 -0.3543
22084W        W22948  16.022  25.359   0.064  0.1107  0.1207 -0.2033
22085W        W22949  13.010  26.704   6.906 -0.1386 -0.3028  0.1738
22086W        W22950  14.552  25.179   7.614  0.0804 -0.0491 -0.0708
22087W        W22951  19.462  24.700   1.804 -0.0653 -0.2031  0.1411
22088W        W22952  17.783  25.101   5.272  0.2350 -0.0476 -0.0546
22089W        W22953  16.994  26.707   3.729 -0.0741  0.0567 -0.0214
22090W        W22954  15.571  21.184   5.474  0.1726 -0.2047  0.3052
22091W        W22955  15.959  22.926   6.707 -0.2148 -0.0407 -0.1040
22092W        W22956  16.580  22.040   4.677 -0.0683  0.0970 -0.2840
22093W        W22957  17.318  24.043   6.466 -0.2690 -0.1978 -0.1495
22094W        W22958  13.545  22.135   8.087 -0.1628  0.2750  0.0645
22095W        W22959  15.196  21.780   8.750 -0.0744  0.1145  0.1118
22096W        W22960  18.590  22.512   5.828  0.0917  0.0953  0.3059
22097W        W22961  17.268  24.057   5.300  0.2241 -0.2836 -0.0019
22098W        W22962  14.870  24.347   6.953 -0.0613  0.4243 -0.2621
22099W        W22963  14.874  23.786   7.226  0.3625 -0.0221  0.1189
22100W        W22964  16.062  26.981   9.106  0.1222  0.3251 -0.2356
22101W        W22965  14.991  23.781   2.788  0.3435 -0.0664 -0.0830
22102W        W22966  14.655  26.043   6.589 -0.1592  0.6068 -0.1256
22103W        W22967  14.244  21.203   7.238  0.0708 -0.2267  0.3973
22104W        W22968  18.262  21.462   6.077 -0.3403  0.0695  0.2727
22105W        W22969  20.843  24.396   6.065 -0.0931 -0.0047 -0.1347
22106W        W22970  19.235  23.967   4.021 -0.4246 -0.1776  0.1243
22107W        W22971  15.792  21.668   2.444  0.3417  0.0554 -0.1935
22108W        W22972  16.856  23.891   6.130  0.2465  0.0532  0.1241
22109W        W22973  17.678  21.539   4.600 -0.0462  0.3371  0.0357
22110W        W22974  13.603  21.585   5.551 -0.0139  0.0093  0.1751
22111W        W22975  17.659  24.460   9.152 -0.0074 -0.0284  0.1859
22112W        W22976  16.547  25.697   4.234 -0.0374 -0.1518 -0.0299
22113W        W22977  17.312  23.848   4.782  0.1100 -0.3306 -0.4983
22114W        W22978  13.614  24.242   6.956 -0.0275 -0.1205  0.2705
22115W        W22979  16.542  25.270   6.026 -0.4149  0.3117 -0.3260
22116W        W22980  15.617  27.861   6.862 -0.0127 -0.1159  0.0916
22117W        W22981  14.338  25.571   9.146 -0.1716  0.1204  0.3589
22118W        W22982  16.895  22.723   6.032 -0.2276 -0.3195  0.2561
22119W        W22983  16.422  23.941   7.109  0.2060  0.1485 -0.1064
22120W        W22984  17.778  25.053   6.576 -0.0988  0.1772  0.2005
22121W        W22985  17.033  23.749   5.654 -0.2173  0.0242  0.0151
22122W        W22986  16.261  25.039   7.407  0.1539  0.0124 -0.1600
22123W        W22987  14.332  23.844   7.177 -0.2002  0.0660  0.2416
22124W        W22988  18.464  23.368   6.959 -0.0996  0.1071  0.1635
22125W        W22989  18.082  22.281   2.545 -0.3790  0.4194  0.2786
22126W        W22990  17.101  24.782   5.863  0.1097  0.1069  0.1851
22127W        W22991  16.486  24.433   5.026  0.0907  0.6162 -0.1784
22128W        W22992  18.229  23.449   5.471 -0.0100 -0.4247  0.2015
22129W        W22993  14.265  25.787   5.026 -0.0492 -0.0498  0.3670
22130W        W22994  13.279  26.259   7.941 -0.0126  0.0668 -0.1372
22131W        W22995  13.038  23.024   7.073 -0.2178 -0.0096 -0.4109
22132W        W22996  16.637  25.456   7.358 -0.0703 -0.0735  0.0594
22133W        W22997  15.195  23.654   3.304  0.0769 -0.1523 -0.1075
22134W        W22998  14.621  20.771   2.025  0.1560  0.0440 -0.1767
22135W        W22999  19.460  22.087   5.694  0.1105  0.1850  0.1071
22136W        W23000  16.410  23.126   6.668  0.0873  0.0778  0.3390
22137W        W23001  16.621  21.136   5.266  0.0058 -0.2453 -0.0307
22138W        W23002  15.806  19.395   4.536  0.0379  0.0666  0.1480
22139W        W23003  13.721  20.078   3.415 -0.0814  0.0230  0.2384
22140W        W23004  12.399  24.362   8.156  0.1747 -0.0696  0.1879
22141W        W23005  15.762  22.711   5.371 -0.0015  0.0808 -0.0935
22142W        W23006  16.389  22.170   7.451 -0.0174 -0.1300 -0.0574
22143W        W23007  14.568  25.272   7.080  0.0995  0.2741  0.0808
22144W        W23008  14.251  25.697   3.829 -0.2286 -0.1518 -0.0066
22145W        W23009  17.319  24.439   2.456 -0.0214 -0.0358  0.2116
22146W        W23010  14.183  25.160   6.227 -0.1923 -0.0054 -0.0186
22147W        W23011  13.985  24.610   6.789 -0.0172  0.1084  0.0817
22148W        W23012  17.586  23.081   5.291  0.1332  0.2423 -0.1157
22149W        W23013  17.090  20.910   6.340 -0.0055  0.1464  0.0545
22150W        W23014  20.036  19.656   3.899 -0.1984 -0.0094 -0.1360
22151W        W23015  14.128  24.378   3.275  0.2430 -0.1630  0.3045
22152W        W23016  16.230  22.180   3.868 -0.1954 -0.0620 -0.0594
22153W        W23017  15.675  26.249   6.419 -0.0487 -0.3158  0.0921
22154W        W23018  15.040  24.996   5.145  0.0607 -0.0043  0.0275
22155W        W23019  16.213  25.770   5.113  0.3078 -0.1454  0.1627
22156W        W23020  16.408  21.575   4.833  0.0545  0.3081 -0.1980
22157W        W23021  17.823  24.100   4.883  0.0238  0.1685 -0.0668
22158W        W23022  17.566  22.676   5.602 -0.1853 -0.1149 -0.2532
22159W        W23023  20.218  25.837   5.442  0.0189 -0.1738 -0.1108
22160W        W23024  19.370  22.944   5.292  0.0085 -0.2910 -0.0273
22161W        W23025  16.285  24.808   4.791 -0.0392 -0.0954 -0.1721
22162W        W23026  13.962  23.643   8.002  0.7390 -0.1274 -0.0517
22163W        W23027  15.962  22.526   2.908  0.2160  0.2311 -0.0746
22164W        W23028  15.595  24.720   5.321 -0.1095 -0.0100 -0.0599
22165W        W23029  16.680  19.524   7.953 -0.1213  0.2191  0.1701
22166W        W23030  16.220  23.591   8.578  0.1077  0.0713 -0.0429
22167W        W23031  17.116  21.973   1.028  0.0281 -0.3950 -0.0127
22168W        W23032  16.859  23.994   7.547  0.1544 -0.3253  0.1512
22169W        W23033  14.926  23.912   6.065  0.1231 -0.3062 -0.0064
22170W        W23034  15.176  21.417   1.747  0.0228  0.1501 -0.4834
22171W        W23035  17.108  26.914   6.051 -0.2162  0.1128  0.1453
22172W        W23036  16.254  24.550   6.270 -0.3593 -0.1443 -0.2157
22173W        W23037  17.101  23.413   7.290 -0.0461 -0.0203 -0.0339
22174W        W23038  14.982  20.973   3.460 -0.0528  0.0847  0.1615
22175W        W23039  15.005  22.310   3.291 -0.2353 -0.0414 -0.1861
22176W        W23040  17.747  23.945   7.338 -0.1869 -0.1098  0.1336
22177W        W23041  15.153  24.484   5.367 -0.0174  0.2505 -0.1512
22178W        W23042  14.700  23.552   3.283 -0.0158  0.1126 -0.1489
22179W        W23043  12.862  22.182   7.221 -0.2185 -0.3120 -0.1029
22180W        W23044  15.850  23.073   4.370  0.1572  0.1588  0.3583
22181W        W23045  17.783  23.342   5.643 -0.4063  0.0652 -0.0559
22182W        W23046  14.803  27.238   6.407  0.0024 -0.0092 -0.0473
22183W        W23047  14.551  21.127   5.415  0.5690  0.0769  0.0936
22184W        W23048  18.760  22.499   4.014 -0.1960 -0.3341 -0.0731
22185W        W23049  18.144  23.190   3.633 -0.1939 -0.2907  0.0766
22186W        W23050  14.729  23.312   4.174 -0.0549  0.4113  0.0364
22187W        W23051  13.638  21.837   2.104 -0.0115 -0.0866  0.2609
22188W        W23052  18.463  26.171   8.378 -0.3086 -0.0894  0.0684
22189W        W23053  17.964  21.120   4.849  0.0901 -0.1922  0.2710
22190W        W23054  16.378  21.320   6.390  0.2395  0.3268  0.2495
22191W        W23055  17.201  23.942   3.305 -0.0183 -0.2424 -0.0326
22192W        W23056  19.063  25.640   8.694 -0.0607  0.0821  0.2272
22193W        W23057  17.383  22.557   6.998  0.0486  0.0180  0.1260
22194W        W23058  16.013  22.658   4.131 -0.2789 -0.0258 -0.2406
22195W        W23059  14.337  24.930   6.630  0.3144  0.2502 -0.1740
22196W        W23060  18.214  23.727   6.312  0.1201 -0.1969  0.2038
22197W        W23061  21.464  21.944   6.500  0.0559  0.3365  0.0007
22198W        W23062  15.036  26.844   8.079 -0.0099  0.0613 -0.0368
22199W        W23063  17.400  21.104   1.243  0.2570  0.1340 -0.0954
22200W        W23064  16.100  22.116   2.413 -0.1690  0.0724  0.1713
22201W        W23065  20.949  21.030   3.538  0.1257  0.2296  0.0592
22202W        W23066  18.300  21.402   6.612 -0.1433 -0.0885  0.0959
22203W        W23067  17.031  21.531   6.973 -0.4037 -0.1123 -0.1417
22204W        W23068  15.916  21.570   5.607  0.0207 -0.1408 -0.1976
22205W        W23069  14.399  23.347   4.601  0.1802 -0.2303 -0.0421
22206W        W23070  16.230  25.401   5.607 -0.0716  0.0090 -0.0312
22207W        W23071  16.495  21.524   4.008  0.4006  0.2228  0.0648
22208W        W23072  19.259  23.052   3.526 -0.0858  0.1912  0.3516
22209W        W23073  17.825  24.149   6.382  0.2235 -0.2548 -0.0487
22210W        W23074  17.450  23.636   5.837 -0.0969  0.0706 -0.0602
22211W        W23075  14.771  22.167   4.130  0.0109  0.1031  0.2772
22212W        W23076  17.494  21.683   7.284 -0.0545  0.0533 -0.0272
22213W        W23077  15.959  24.584   5.687 -0.0391  0.0903 -0.1242
22214W        W23078  16.702  26.457   4.106  0.1366  0.2359 -0.2058
22215W        W23079  18.455  23.868   7.089 -0.2982  0.0718  0.1639
22216W        W23080  16.808  21.195   7.850 -0.0461 -0.0053  0.0183
22217W        W23081  16.863  23.872   3.721  0.1187 -0.1195  0.0038
22218W        W23082  17.094  23.800   1.904 -0.0754 -0.0693 -0.0194
22219W        W23083  16.887  23.961   6.811  0.1149 -0.0216 -0.0108
22220W        W23084  13.646  21.081   7.122 -0.0721 -0.2459  0.0328
22221W        W23085  16.306  21.591   5.334 -0.0386 -0.0762 -0.0299
22222W        W23086  17.619  21.652   8.057 -0.2219  0.4138  0.0911
22223W        W23087  13.871  23.089   5.088 -0.1321 -0.0906 -0.2871
22224W        W23088  18.843  23.435   4.236  0.0186 -0.3414 -0.2638
22225W        W23089  14.656  22.061   5.268  0.0993 -0.1990 -0.0431
22226W        W23090  20.095  22.118   4.387  0.1339 -0.4403 -0.1483
22227W        W23091  15.495  25.273   5.216  0.0267 -0.0771  0.1477
22228W        W23092  13.260  24.109   1.717  0.1810  0.0493  0.0018
22229W        W23093  18.211  21.993   7.633 -0.0969 -0.1792 -0.2871
22230W        W23094  16.090  21.271   4.128 -0.1525  0.2243 -0.0678
22231W        W23095  19.683  23.223   4.694 -0.0700  0.0090 -0.0847
22232W        W23096  17.060  26.750   4.767 -0.2077 -0.1469 -0.0281
22233W        W23097  17.277  24.987   4.320 -0.1706 -0.1485 -0.1203
22234W        W23098  17.878  20.011   1.850 -0.1152 -0.1967 -0.0662
22235W        W23099  18.723  26.154   6.636 -0.1340  0.2685 -0.1145
22236W        W23100  12.327  19.538   5.383  0.0988  0.0726 -0.0692
22237W        W23101  17.548  24.096   5.738 -0.0715  0.1253 -0.0150
22238W        W23102  12.943  20.334   3.549  0.0907  0.2941 -0.0088
22239W        W23103  14.332  23.043   6.823  0.1377 -0.2869 -0.1081
22240W        W23104  15.143  23.209   3.528  0.0670  0.1222  0.0735
22241W        W23105  14.060  24.613   6.139  0.1676  0.1378  0.2363
22242W        W23106  17.429  22.915   3.305  0.0054 -0.0342  0.1447
22243W        W23107  14.331  22.941   4.250  0.1158  0.1358  0.2289
22244W        W23108  15.604  21.368   3.264  0.4718 -0.0422  0.0714
22245W        W23109  21.071  23.615   4.786  0.3394 -0.1010  0.0979
22246W        W23110  15.989  24.158   6.017 -0.2372  0.0932 -0.2138
22247W        W23111  16.018  24.590   7.468 -0.0228 -0.0818  0.3122
22248W        W23112  15.903  26.012   6.040 -0.2194  0.2174  0.2679
22249W        W23113  16.997  21.679   7.471  0.2704 -0.2547 -0.0186
22250W        W23114  15.109  23.144   5.445  0.4073  0.0065 -0.0069
22251W        W23115  15.108  20.406   5.390 -0.1340 -0.0540 -0.1238
22252W        W23116  16.098  23.820   6.719  0.0969  0.2027  0.1393
22253W        W23117  15.746  25.715   6.441  0.0260  0.0283 -0.0735
22254W        W23118  14.610  24.386   6.134 -0.0687  0.0897 -0.1641
22255W        W23119  18.693  23.509   6.536  0.1865  0.0590 -0.2506
22256W        W23120  17.906  20.403   6.898  0.0705  0.0188  0.0004
22257W        W23121  16.744  22.372   5.261  0.0207 -0.0093 -0.1225
22258W        W23122  15.435  23.991   1.753  0.0289  0.0329  0.0863
22259W        W23123  16.298  21.613   2.622  0.0664  0.1321  0.0300
22260W        W23124  19.025  20.354   4.866 -0.0112 -0.2114 -0.0824
22261W        W23125  14.018  27.930   9.348 -0.1091 -0.3604  0.2407
22262W        W23126  12.090  22.636   5.186 -0.2371 -0.3643  0.1734
22263W        W23127  16.544  26.482   6.491 -0.0595  0.0419  0.0546
22264W        W23128  14.386  21.268   6.291  0.1424 -0.0491  0.0019
22265W        W23129  13.467  25.741   3.266  0.4208  0.0946 -0.1501
22266W        W23130  19.061  21.772   3.481  0.2982  0.0351 -0.3009
22267W        W23131  16.268  23.289   5.758 -0.1334 -0.2345  0.2425
22268W        W23132  17.312  20.956   5.895  0.1609  0.2780  0.0204
22269W        W23133  16.408  23.247   1.290 -0.2571  0.0941  0.0530
22270W        W23134  18.524  23.054   5.747 -0.0919 -0.2509  0.2008
22271W        W23135  15.344  21.771   3.448 -0.0386  0.3257  0.1758
22272W        W23136  13.433  22.384   3.248  0.1667  0.1735  0.0355
22273W        W23137  16.711  25.685   5.663 -0.0552 -0.3218  0.3674
22274W        W23138  15.050  23.409   4.550 -0.0111  0.1419 -0.0678
22275W        W23139  17.169  24.285   4.432 -0.1147 -0.2441  0.4121
22276W        W23140  15.655  26.845   3.610 -0.3694  0.1742  0.3071
22277W        W23141  16.949  23.214   6.504  0.1897  0.0648 -0.3063
22278W        W23142  12.778  23.829   8.148  0.0208 -0.1544 -0.0474
22279W        W23143  16.410  23.263   7.908 -0.0765 -0.0115 -0.0378
22280W        W23144  17.165  22.986   6.852 -0.0874 -0.1346 -0.0116
22281W        W23145  15.845  20.820   3.878 -0.1293  0.2648 -0.0773
22282W        W23146  14.800  21.059   5.938  0.5025 -0.0097 -0.1576
22283W        W23147  15.835  21.681   4.264 -0.1329 -0.0865 -0.1602
22284W        W23148  17.653  23.099   6.698  0.2826  0.1631 -0.0972
22285W        W23149  15.915  22.318   5.086  0.2700  0.2256 -0.2316
22286W        W23150  19.361  23.266   6.457  0.0062  0.2346  0.2343
22287W        W23151  15.665  23.250   3.850 -0.1079  0.2874  0.2730
22288W        W23152  16.173  20.598   5.838  0.2876  0.0168 -0.1193
22289W        W23153  15.171  22.245   8.060 -0.2147 -0.1939  0.0696
22290W        W23154  14.449  21.236   2.029 -0.0802 -0.0153  0.0812
22291W        W23155  15.330  26.928   5.800 -0.0648  0.1769 -0.0288
22292W        W23156  14.737  25.243   6.576 -0.1261  0.5058 -0.2914
22293W        W23157  18.040  25.823   3.429 -0.2987 -0.1161  0.2924
22294W        W23158  15.115  22.856   2.175  0.2104  0.0384  0.3061
22295W        W23159  14.260  27.737   6.093  0.0380 -0.0137  0.1052
22296W        W23160  16.612  25.942   7.450 -0.2997  0.0192 -0.0613
22297W        W23161  16.959  21.221   4.948 -0.0447  0.1655  0.3026
22298W        W23162  17.496  20.767   7.973  0.0303  0.0004  0.0854
22299W        W23163  19.622  24.188   7.699 -0.1666 -0.1199  0.0313
22300W        W23164  17.361  23.610   4.360 -0.1739 -0.0801  0.1961
22301W        W23165  16.462  26.054   3.892  0.0212 -0.0600 -0.1794
22302W        W23166  17.789  23.954   3.056  0.0727  0.0920 -0.1265
22303W        W23167  17.686  23.546   7.067 -0.0706 -0.2665  0.1487
22304W        W23168  16.945  27.641   5.539 -0.1562 -0.2407  0.0268
22305W        W23169  16.425  21.077   6.876 -0.1011  0.3010 -0.2303
22306W        W23170  16.728  24.063   5.367 -0.0537  0.1434 -0.1413
22307W        W23171  14.393  24.706   7.662  0.1270  0.1067 -0.3502
22308W        W23172  15.677  21.009   5.920 -0.0786 -0.0205  0.3411
22309W        W23173  17.068  22.786   5.586  0.0950  0.3294 -0.2548
22310W        W23174  16.100  20.755   6.714 -0.0513  0.1334 -0.0842
22311W        W23175  18.178  25.215   7.777 -0.0858  0.1371 -0.1307
22312W        W23176  20.519  21.934   4.746 -0.0567  0.0246 -0.2473
22313W        W23177  20.170  26.396   6.987  0.0409 -0.0694 -0.0322
22314W        W23178  16.203  24.187   5.491 -0.2428  0.2266  0.1439
22315W        W23179  12.987  22.121   6.451  0.0529 -0.2191 -0.1859
22316W        W23180  18.707  21.631   6.271  0.0836 -0.3195 -0.2224
22317W        W23181  14.756  24.201   5.592 -0.2112 -0.0111  0.1943
22318W        W23182  20.342  21.759   5.584  0.2211  0.0161 -0.1430
22319W        W23183  14.932  24.223   6.459  0.1094  0.1172  0.0260
22320W        W23184  17.162  25.778   3.789  0.1161 -0.2306  0.2724
22321W        W23185  16.998  24.690   4.723  0.0364 -0.0356 -0.5443
22322W        W23186  15.625  22.103   6.317 -0.1034 -0.0945 -0.2952
22323W        W23187  15.241  24.293   5.843  0.1358  0.0081  0.3691
22324W        W23188  17.524  24.547   4.165 -0.1256  0.1715  0.1077
22325W        W23189  17.197  25.593   2.879  0.1564  0.0552 -0.0086
22326W        W23190  16.613  26.651   4.599 -0.0328 -0.1548 -0.2174
22327W        W23191  16.127  23.478   7.536  0.1348  0.1918  0.0428
22328W        W23192  16.835  22.718   3.507 -0.2164  0.2652 -0.0304
22329W        W23193  17.242  22.119   5.362  0.2104 -0.1684 -0.3428
22330W        W23194  15.908  23.724   4.559  0.1801  0.3624 -0.0811
22331W        W23195  16.275  22.884   4.537  0.0266  0.1121  0.1513
22332W        W23196  14.766  25.663   6.847  0.1404  0.0702  0.0733
22333W        W23197  18.733  26.467   6.241 -0.1598 -0.1457  0.0862
22334W        W23198  16.811  22.719   6.585  0.1647  0.1315 -0.0589
22335W        W23199  13.779  24.201   3.765  0.0690 -0.2311  0.4259
22336W        W23200  13.687  26.114   7.025  0.0105  0.0134 -0.3856
22337W        W23201  17.283  22.170   8.938 -0.4081 -0.1273 -0.1293
22338W        W23202  17.354  23.130   5.747  0.0893  0.1655 -0.4009
22339W        W23203  15.103  25.311   4.175  0.1665 -0.1512  0.0324
22340W        W23204  19.010  22.975   4.126  0.4153 -0.0154 -0.0536
22341W        W23205  16.518  21.213   4.422 -0.1824 -0.1703 -0.1397
22342W        W23206  15.426  21.400   8.301  0.0422 -0.1281 -0.0197
22343W        W23207  15.391  24.146   6.275 -0.1721 -0.1662 -0.4102
22344W        W23208  18.253  24.682   3.716 -0.1171 -0.2005 -0.1927
22345W        W23209  15.133  24.756   2.796 -0.0175 -0.1843 -0.1304
22346W        W23210  16.693  23.522   6.918 -0.0878 -0.1385 -0.0521
22347W        W23211  16.020  24.562   5.195 -0.3823 -0.0350  0.1735
22348W        W23212  18.660  19.187   9.022  0.1818  0.2180  0.0523
22349W        W23213  14.675  22.413   4.626 -0.0580  0.1132 -0.0230
22350W        W23214  15.577  23.392   7.573 -0.1230 -0.0088  0.1533
22351W        W23215  14.967  22.909   5.915 -0.0940 -0.0523 -0.0309
22352W        W23216  16.822  24.784   6.639  0.2363  0.0985  0.0181
22353W        W23217  17.358  21.124   6.731 -0.2337 -0.1912  0.1726
22354W        W23218  17.893  22.725   3.518  0.3015  0.0846 -0.2852
22355W        W23219  15.968  24.523   4.126 -0.1768 -0.0952  0.1525
22356W        W23220  19.303  23.870   6.425 -0.3668 -0.0565 -0.0661
22357W        W23221  17.656  21.827   5.270  0.2044  0.1270  0.1086
22358W        W23222  17.410  19.993   7.391  0.2491 -0.0889  0.0487
22359W        W23223  16.571  25.350   5.266  0.0543  0.1115 -0.2637
22360W        W23224  14.961  21.363   8.565 -0.0310 -0.1515  0.3676
22361W        W23225  16.366  22.993   7.462  0.1836  0.2134  0.0882
22362W        W23226  16.187  23.467   7.052 -0.1757 -0.0605  0.2013
22363W        W23227  15.132  21.197   2.643  0.1533  0.1699 -0.2830
22364W        W23228  12.960  26.516   6.281  0.1641  0.1244 -0.2125
22365W        W23229  19.519  22.670   4.868  0.1730  0.2397 -0.0469
22366W        W23230  17.328  21.840   3.319  0.0104 -0.0692 -0.1218
22367W        W23231  13.680  24.952   8.367  0.1146 -0.2008  0.3525
22368W        W23232  16.036  26.216   5.223  0.0568  0.3203  0.3549
22369W        W23233  17.737  22.644   2.545 -0.0935 -0.4373  0.1544
22370W        W23234  18.207  22.348   6.278  0.0306  0.1553 -0.2764
22371W        W23235  19.153  22.854   2.647  0.2035 -0.3117 -0.1121
22372W        W23236  15.134  24.576   7.292  0.0379 -0.0172 -0.1595
22373W        W23237  18.326  21.564   3.938 -0.0077  0.1882  0.0481
22374W        W23238  18.310  23.227   4.976 -0.2088  0.1894  0.1904
22375W        W23239  18.815  23.089   5.131 -0.1317  0.1218  0.0591
22376W        W23240  15.396  20.967   3.856 -0.0553  0.1245  0.1052
22377W        W23241  17.641  25.799   4.141  0.0596  0.0909  0.0267
22378W        W23242  17.150  21.635   5.300  0.0676 -0.2529  0.0245
22379W        W23243  16.211  22.958   5.336  0.2084  0.0668  0.1324
22380W        W23244  17.357  20.741   2.223 -0.0284  0.1397 -0.1171
22381W        W23245  14.314  23.267   6.190 -0.2104 -0.3268  0.2592
22382W        W23246  19.790  24.601   7.035 -0.0607  0.1359 -0.0055
22383W        W23247  19.165  23.517   8.558  0.2040 -0.1023 -0.1004
22384W        W23248  14.716  24.793   7.101 -0.0102 -0.0127 -0.2886
22385W        W23249  14.359  23.913   6.312 -0.0306 -0.0456 -0.1153
22386W        W23250  14.073  21.315   6.728  0.2434  0.1420  0.3040
22387W        W23251  15.600  23.962   6.750  0.0316  0.2167 -0.4958
22388W        W23252  18.448  22.031   5.934  0.2399  0.0780  0.1859
22389W        W23253  16.678  22.065   4.067 -0.1771  0.1243  0.1398
22390W        W23254  16.668  24.716   6.105  0.1615 -0.0148  0.1019
22391W        W23255  17.716  23.346   7.577  0.0329 -0.0406  0.2291
22392W        W23256  15.079  19.862   6.091 -0.0800 -0.1471 -0.1281
22393W        W23257  15.060  21.384   3.747  0.0889 -0.1430  0.0985
22394W        W23258  13.839  23.113   4.104  0.1293 -0.1712 -0.2382
22395W        W23259  14.459  22.918   5.824  0.1104 -0.2211  0.0044
22396W        W23260  15.980  26.538   4.788 -0.2184  0.0695 -0.0306
22397W        W23261  17.580  25.289   4.020  0.0020 -0.1699  0.1812
22398W        W23262  14.526  25.361   5.982 -0.0746 -0.1104 -0.0104
22399W        W23263  16.494  26.193   6.087  0.3719 -0.0928 -0.5076
22400W        W23264  16.491  27.679   4.450  0.1367 -0.0876 -0.1772
22401W        W23265  14.176  19.696   4.115  0.1381  0.0120  0.1803
22402W        W23266  15.062  18.816   6.069 -0.1087  0.1636  0.3780
22403W        W23267  15.887  24.509   8.006  0.3257  0.0819 -0.0726
22404W        W23268  17.693  22.626   6.283 -0.0587 -0.0354 -0.1783
22405W        W23269  14.591  23.923   6.777 -0.0519  0.1962 -0.1937
22406W        W23270  18.806  26.451   7.553  0.0434 -0.1669 -0.1145
22407W        W23271  12.971  22.597   6.841 -0.0324 -0.0917 -0.0824
22408W        W23272  17.209  23.560   6.780  0.2345 -0.4242  0.0355
22409W        W23273  17.743  22.425   5.102  0.2864 -0.1333 -0.1631
22410W        W23274  15.467  24.189   5.082  0.0581 -0.0362 -0.0818
22411W        W23275  17.215  22.567   5.167 -0.0848  0.2392 -0.0262
22412W        W23276  13.157  23.465   6.768  0.1125 -0.5748  0.2281
22413W        W23277  15.950  22.920   3.443 -0.0121 -0.2293 -0.1826
22414W        W23278  17.130  20.833   4.661  0.2224 -0.2389  0.2594
22415W        W23279  17.291  22.960   6.289  0.1523  0.2339 -0.2945
22416W        W23280  16.609  22.565   7.579  0.0485 -0.0089  0.1754
22417W        W23281  17.196  24.394   8.231  0.0836 -0.0112 -0.0123
22418W        W23282  14.635  25.121   8.974  0.0765  0.0942 -0.0472
22419W        W23283  19.306  24.009   5.854 -0.4769 -0.0742 -0.4548
22420W        W23284  16.678  25.277   6.860 -0.0989  0.2287  0.0347
22421W        W23285  14.886  26.191   6.087  0.2009 -0.1541 -0.2240
22422W        W23286  18.136  24.633   6.403  0.0789  0.0147 -0.0041
22423W        W23287  16.183  21.947   2.958  0.1010  0.1299  0.1653
22424W        W23288  15.333  22.192   4.165  0.3991  0.3189 -0.0669
22425W        W23289  15.469  25.294   6.132 -0.0538 -0.0303 -0.3606
22426W        W23290  16.833  20.674   8.680  0.0337  0.0788  0.0187
22427W        W23291  15.388  22.695   4.022  0.1498  0.5136  0.0694
22428W        W23292  14.546  25.534   4.225 -0.4257  0.1695  0.0070
22429W        W23293  16.788  21.599   4.570 -0.0881 -0.3437 -0.0623
22430W        W23294  13.333  24.668   9.053 -0.1071  0.0258 -0.1586
22431W        W23295  15.390  24.382   4.309 -0.0567  0.3515 -0.0939
22432W        W23296  15.482  23.184   5.084  0.1964 -0.2692  0.0074
22433W        W23297  18.063  27.322   5.788 -0.0425  0.2377  0.2061
22434W        W23298  12.017  21.908   1.478 -0.1527  0.0075 -0.1817
22435W        W23299  17.088  25.771   7.397  0.1027  0.1511 -0.0693
22436W        W23300  10.254  22.457   3.145  0.0598 -0.0050  0.0728
22437W        W23301  18.074  22.679   5.890  0.0559 -0.2482 -0.0144
22438W        W23302  16.486  23.537   6.253 -0.1686 -0.1661 -0.0214
22439W        W23303  15.064  26.859   2.271 -0.1643 -0.0366  0.2951
22440W        W23304  18.359  23.353   2.654  0.1889 -0.1684  0.0700
22441W        W23305  12.539  26.955   5.023  0.1929 -0.1045  0.1195
22442W        W23306  18.857  23.596   7.206  0.1058  0.1158 -0.0705
22443W        W23307  16.353  24.131   8.596 -0.0902  0.0007  0.0419
22444W        W23308  13.733  20.542   3.076  0.1939  0.1137  0.2732
22445W        W23309  17.264  22.772   3.767  0.0986  0.2703  0.1892
22446W        W23310  15.646  24.643   6.365 -0.2870 -0.1326 -0.4545
22447W        W23311  15.924  22.596   8.237  0.1099  0.0403 -0.4640
22448W        W23312  16.139  20.933   6.169 -0.2026 -0.1732  0.2644
22449W        W23313  15.540  24.718   5.876 -0.0702  0.0585 -0.1088
22450W        W23314  18.455  22.830   6.183  0.0606  0.0966 -0.1662
22451W        W23315  16.268  22.286   3.324  0.3134 -0.0570 -0.0905
22452W        W23316  18.187  22.696   3.887 -0.2200  0.0038  0.0758
22453W        W23317  12.425  21.840   1.743  0.0386  0.0826 -0.1685
22454W        W23318  18.476  22.771   1.900 -0.2462 -0.1256  0.1982
22455W        W23319  15.639  22.588   4.446  0.1536  0.1796  0.0270
22456W        W23320  15.465  23.627   5.477  0.1954  0.2330 -0.0372
22457W        W23321  14.868  19.623   5.201 -0.0749 -0.3488 -0.1738
22458W        W23322  17.982  24.367   7.161  0.0194 -0.0454 -0.1395
22459W        W23323  16.901  23.805   4.426  0.1182 -0.0907  0.3485
22460W        W23324  14.803  24.725   6.597 -0.1657  0.0963 -0.3167
22461W        W23325  17.273  20.855   4.155 -0.1484  0.2120  0.2647
22462W        W23326  16.462  23.329   4.943 -0.2011  0.2869 -0.1984
22463W        W23327  17.488  21.957   5.813 -0.3263 -0.0147 -0.1149
22464W        W23328  14.262  26.146   7.152  0.3440 -0.0558  0.1814
22465W        W23329  16.584  24.360   9.972  0.0994 -0.3140  0.0617
22466W        W23330  13.506  23.365   6.399 -0.2103 -0.2584  0.1285
22467W        W23331  13.423  24.316   6.316  0.0353  0.0828 -0.0114
22468W        W23332  16.598  22.901   5.631  0.2675 -0.0262 -0.0185
22469W        W23333  14.330  25.768   6.335  0.0417  0.0751  0.2085
22470W        W23334  17.061  22.717   7.335  0.0146  0.2864  0.1768
22471W        W23335  14.846  21.788   3.287 -0.0235 -0.0949  0.2220
22472W        W23336  17.230  22.423   6.503 -0.0378 -0.0863 -0.1702
22473W        W23337  16.477  22.429   4.299  0.1148  0.1596 -0.2194
22474W        W23338  20.082  25.549   6.422 -0.0045 -0.3170 -0.4533
22475W        W23339  17.528  23.114   7.192  0.1798 -0.2435 -0.2436
22476W        W23340  14.768  22.984   4.542  0.0055  0.2729 -0.0814
22477W        W23341  21.304  23.748   4.297  0.1987 -0.3526 -0.1494
22478W        W23342  16.325  25.713   6.061 -0.0773 -0.2339  0.1535
22479W        W23343  13.790  26.329   7.526 -0.0020 -0.1858  0.2409
22480W        W23344  16.582  21.107   5.933 -0.0421  0.1110  0.1460
22481W        W23345  17.313  22.258   3.847  0.1146  0.1825  0.1341
22482W        W23346  16.736  25.753   8.814  0.0367 -0.1834 -0.1253
22483W        W23347  14.854  25.038   4.660  0.0535  0.2727  0.1529
22484W        W23348  15.223  22.660   5.473  0.2627 -0.3507  0.2081
22485W        W23349  12.706  24.253  11.083 -0.0629  0.1058  0.1258
22486W        W23350  13.858  25.137  11.460 -0.1350 -0.1933 -0.0204
22487W        W23351  17.387  25.268  10.669 -0.0362  0.0805  0.1049
22488W        W23352  18.754  22.806  11.523  0.0556  0.0957 -0.2371
22489W        W23353  14.314  27.034   8.709 -0.1147 -0.0866 -0.0196
22490W        W23354  16.492  25.278   9.918 -0.0703 -0.0445  0.1271
22491W        W23355  17.047  24.939   7.098 -0.0027 -0.1480  0.1940
22492W        W23356  17.578  23.160   8.635 -0.2665 -0.2381 -0.0922
22493W        W23357  12.217  26.087  10.795  0.2017 -0.1265  0.2167
22494W        W23358  14.701  23.150  11.621  0.0157 -0.0459 -0.0113
22495W        W23359  17.682  19.842   9.330 -0.1253 -0.0756 -0.1878
22496W        W23360  16.848  21.138   9.143 -0.0265  0.1996 -0.0377
22497W        W23361  18.532  23.754  11.188 -0.0634  0.0537  0.2214
22498W        W23362  13.366  24.232   9.961  0.1684 -0.0517  0.3475
22499W        W23363  14.700  20.887  11.474  0.2341 -0.2959  0.1264
22500W        W23364  12.967  24.476  10.637 -0.2555 -0.3657 -0.2903
22501W        W23365  16.881  24.315   7.153 -0.2363  0.3056 -0.1419
22502W        W23366  12.271  23.289  10.129  0.0817 -0.0708  0.0277
22503W        W23367  14.255  22.432  10.887 -0.1434 -0.0641 -0.3458
22504W        W23368  19.363  26.926   6.148  0.0257  0.3290 -0.2213
22505W        W23369  18.041  23.656   7.810 -0.4575  0.1662  0.1132
22506W        W23370  15.962  21.426  10.503 -0.2642 -0.0475  0.1625
22507W        W23371  19.239  25.799   7.791 -0.0366  0.0745  0.0075
22508W        W23372  13.444  24.253  12.104 -0.0401 -0.0918 -0.0278
22509W        W23373  11.745  23.367  10.016 -0.1544  0.0607  0.3316
22510W        W23374  12.867  23.056  11.243 -0.3202  0.1163  0.1887
22511W        W23375  18.729  24.346  12.590  0.1125 -0.1339 -0.1399
22512W        W23376  17.695  25.465   5.899  0.1383  0.5056 -0.0156
22513W        W23377  18.638  24.794   6.633 -0.3713  0.1069  0.0181
22514W        W23378  16.819  24.784   7.506 -0.1689 -0.0554 -0.1453
22515W        W23379  15.866  26.568   7.671  0.2259 -0.0722 -0.1042
22516W        W23380  15.888  26.868  13.420  0.4123 -0.2557 -0.2934
22517W        W23381  17.893  23.342  11.759  0.1382  0.0605  0.0309
22518W        W23382  13.883  22.556  10.521 -0.0858  0.1912 -0.0896
22519W        W23383  14.743  22.411  10.636 -0.1111  0.0066 -0.2788
22520W        W23384  16.235  25.376  11.702 -0.3546  0.2265 -0.1042
22521W        W23385  16.635  21.461   9.728  0.2100 -0.0800  0.0679
22522W        W23386  16.492  24.463  11.010  0.2691 -0.1828  0.2020
22523W        W23387  16.035  22.682   8.789 -0.1888  0.5479  0.0144
22524W        W23388  18.780  21.481  10.752 -0.3424 -0.0063 -0.0249
22525W        W23389  20.020  21.970   6.534  0.0566 -0.1563  0.2870
22526W        W23390  19.510  23.020   9.748  0.0387  0.0300 -0.1753
22527W        W23391  16.143  22.486  10.053 -0.3287  0.2189  0.1781
22528W        W23392  17.829  26.305   7.727 -0.1170  0.1049  0.0088
22529W        W23393  12.288  23.970   8.477  0.4105 -0.2084  0.0519
22530W        W23394  15.519  27.471   8.569  0.0996 -0.2191 -0.0151
22531W        W23395  14.949  22.440   9.164 -0.1686 -0.0178 -0.1576
22532W        W23396  17.346  24.197  10.814  0.0666  0.1413  0.2407
22533W        W23397  18.055  23.700   6.809 -0.1146  0.2701  0.0106
22534W        W23398  19.156  25.094   6.607 -0.2287 -0.3434 -0.0155
22535W        W23399  17.291  21.485   9.474 -0.2103  0.1574 -0.0850
22536W        W23400  16.461  20.762   9.091  0.1658  0.0706 -0.0167
22537W        W23401  18.147  22.731   9.454 -0.0490 -0.1404 -0.1362
22538W        W23402  18.388  22.723   7.112  0.0268  0.0639  0.1215
22539W        W23403  16.792  21.182   7.329 -0.1602 -0.2976  0.2923
22540W        W23404  16.357  24.277   8.041  0.0858  0.0451 -0.1470
22541W        W23405  14.659  24.025   7.846 -0.0111 -0.0198 -0.0384
22542W        W23406  18.864  22.880   8.770  0.0878 -0.0940  0.1106
22543W        W23407  13.578  22.877   8.759  0.1760 -0.2441  0.2160
22544W        W23408  15.797  26.010   9.215 -0.2498  0.0261  0.0711
22545W        W23409  16.496  21.815   6.252 -0.1248 -0.2222  0.0587
22546W        W23410  12.470  24.534  12.233  0.2206 -0.2868 -0.0214
22547W        W23411  14.271  26.515   8.953 -0.0158  0.3369 -0.1329
22548W        W23412  15.850  23.730   6.297  0.2352 -0.1622  0.0674
22549W        W23413  14.440  22.763  10.497 -0.0011 -0.0858  0.1071
22550W        W23414  16.829  19.930   6.627  0.1273 -0.2902 -0.2060
22551W        W23415  16.021  27.465   5.550  0.1576  0.3823  0.5996
22552W        W23416  16.017  24.096   7.597  0.0947 -0.2313  0.0972
22553W        W23417  15.023  24.754   8.896  0.2307  0.0615 -0.0539
22554W        W23418  15.451  21.611   6.269  0.2387 -0.1066 -0.0720
22555W        W23419  17.612  26.702   8.523  0.0568  0.0206  0.1723
22556W        W23420  16.165  20.669   7.285 -0.2359  0.2475 -0.2107
22557W        W23421  19.360  24.235  10.915 -0.1420 -0.1375 -0.1565
22558W        W23422  18.574  23.039  10.763 -0.3935 -0.1444  0.0609
22559W        W23423  16.478  23.414  10.119  0.0324 -0.0208  0.1109
22560W        W23424  15.234  23.149  10.443  0.2375  0.2078  0.0595
22561W        W23425  14.576  24.432   9.938  0.1449  0.0432 -0.3029
22562W        W23426  16.854  21.484   8.637  0.0438  0.0181 -0.1938
22563W        W23427  15.544  20.544   7.238 -0.2018  0.1947 -0.2131
22564W        W23428  16.124  21.793   7.668 -0.0336  0.3899  0.0664
22565W        W23429  17.058  24.396  10.470 -0.0235 -0.1276 -0.3681
22566W        W23430  13.590  25.988  10.219  0.3500  0.1903  0.0504
22567W        W23431  13.704  22.523   7.846  0.0016  0.3823  0.0353
22568W        W23432  15.693  23.075   8.396  0.0344  0.0809 -0.2336
22569W        W23433  18.184  21.864  13.316 -0.0220  0.3425  0.3282
22570W        W23434  17.278  25.025   5.462  0.1042 -0.1625 -0.2198
22571W        W23435  19.504  23.691   9.058 -0.1617  0.3933  0.0597
22572W        W23436  16.925  20.592  13.193 -0.1895 -0.2567  0.1569
22573W        W23437  17.038  26.237  13.314 -0.3398  0.1599 -0.0037
22574W        W23438  16.462  22.726   8.094 -0.0287 -0.5370  0.2404
22575W        W23439  17.828  21.276   8.800  0.0267 -0.3026  0.0082
22576W        W23440  17.881  22.808   9.856 -0.0229 -0.2929  0.0060
22577W        W23441  14.926  27.651   8.636  0.1740 -0.0410  0.0012
22578W        W23442  15.827  23.106   7.229  0.0107  0.5419  0.2723
22579W        W23443  16.504  22.469   9.525 -0.3747  0.1021 -0.0786
22580W        W23444  17.008  21.602   8.193  0.0600  0.1818 -0.2060
22581W        W23445  19.051  24.036   8.262 -0.0700  0.2172 -0.1332
22582W        W23446  15.606  26.309  11.467 -0.0621 -0.1526  0.1930
22583W        W23447  15.361  20.158   6.735  0.1213 -0.1308 -0.2781
22584W        W23448  17.886  22.103   9.287  0.1624 -0.2349  0.2583
22585W        W23449  20.951  26.882   6.582 -0.0162  0.0259  0.2307
22586W        W23450  15.431  22.062  10.251  0.1307  0.0870  0.4928
22587W        W23451  18.474  22.737   5.234  0.0739 -0.0559  0.0937
22588W        W23452  18.997  24.890   9.225  0.0932 -0.0103  0.0364
22589W        W23453  19.057  24.953  11.675  0.2856 -0.1054  0.1324
22590W        W23454  15.078  22.843   8.761  0.0801 -0.0013  0.4367
22591W        W23455  14.887  25.525   7.400 -0.1201 -0.2301  0.0612
22592W        W23456  16.668  25.182  10.461 -0.0057  0.0760 -0.0674
22593W        W23457  16.402  19.329   9.249  0.0314  0.1068  0.0021
22594W        W23458  15.350  24.992  10.152 -0.0417  0.3153  0.0076
22595W        W23459  17.022  24.194   9.773  0.0715  0.1151 -0.0800
22596W        W23460  19.270  25.632   9.641 -0.0947  0.0992 -0.1502
22597W        W23461  17.721  24.328   8.266 -0.1169  0.0181 -0.2025
22598W        W23462  17.608  23.694   8.641  0.1291 -0.0584  0.0964
22599W        W23463  20.656  22.782   7.882  0.1170 -0.2198 -0.3273
22600W        W23464  18.481  22.983   8.443  0.1984 -0.1216 -0.0016
22601W        W23465  17.207  25.519  11.113 -0.1354  0.1860  0.1283
22602W        W23466  17.184  22.416   9.531  0.0229 -0.2134 -0.0760
22603W        W23467  15.519  24.338   8.244  0.1941  0.2023  0.1782
22604W        W23468  18.286  22.487   9.839  0.0503 -0.1988  0.0844
22605W        W23469  18.043  20.918   6.785 -0.2744  0.4218 -0.2826
22606W        W23470  16.800  27.257   5.899 -0.3031  0.3543  0.0002
22607W        W23471  15.152  24.088   7.975 -0.4372  0.0127  0.0498
22608W        W23472  15.330  24.397   6.734  0.4058  0.0957  0.2324
22609W        W23473  15.688  22.738   7.524  0.2079  0.0855 -0.0228
22610W        W23474  17.392  22.883   8.234 -0.3577 -0.2315 -0.0979
22611W        W23475  15.990  22.980  10.914  0.0476 -0.1704  0.2296
22612W        W23476  18.136  23.640   9.584  0.2655  0.1311 -0.0059
22613W        W23477  17.081  25.180   8.603  0.0124  0.0495  0.0534
22614W        W23478  15.280  25.775   7.640  0.1418 -0.0697  0.1646
22615W        W23479  18.034  23.340   9.957  0.0613  0.0520  0.4076
22616W        W23480  18.009  22.787  10.750  0.0438  0.2184 -0.3309
22617W        W23481  14.365  27.683  10.216  0.1445  0.3290  0.1299
22618W        W23482  18.491  22.744   7.985 -0.2564  0.0031  0.0696
22619W        W23483  17.935  25.634  12.611 -0.2026  0.3113  0.1071
22620W        W23484  13.741  23.791  11.811  0.1537  0.2324  0.4303
22621W        W23485  15.988  23.362   9.478 -0.1610  0.0694 -0.0918
22622W        W23486  17.775  23.553  10.343  0.3733  0.2793  0.1554
22623W        W23487  18.500  25.085   7.386  0.0879  0.2243 -0.1187
22624W        W23488  11.381  26.278   8.744  0.2864 -0.2274 -0.3981
22625W        W23489  15.457  21.801   7.984 -0.3399 -0.0181  0.1811
22626W        W23490  17.349  21.548   8.554  0.1111 -0.0867  0.1855
22627W        W23491  16.166  26.533  10.002  0.1730  0.2648  0.1454
22628W        W23492  15.495  22.802   8.015 -0.2266 -0.1362 -0.0255
22629W        W23493  18.388  23.895  10.382 -0.0624 -0.1661  0.0869
22630W        W23494  15.178  20.620   7.967  0.1934  0.4941 -0.3016
22631W        W23495  16.444  23.331   8.882  0.0661  0.2666 -0.1256
22632W        W23496  18.802  23.065   9.208  0.0346  0.0926  0.0324
22633W        W23497  15.650  24.983   8.301  0.0675 -0.3382 -0.0036
22634W        W23498  13.525  24.694   9.573 -0.1567  0.0944  0.0298
22635W        W23499  16.079  26.428   9.116  0.1433 -0.1511 -0.0104
22636W        W23500  15.695  24.073  10.145  0.5323  0.2973 -0.2218
22637W        W23501  17.651  24.877   7.028 -0.2152  0.0371 -0.1486
22638W        W23502  14.009  22.733   9.665 -0.1780  0.1682 -0.0577
22639W        W23503  14.944  19.881   9.605  0.1197 -0.3064  0.2079
22640W        W23504  17.956  22.111   8.705 -0.0353 -0.1862  0.1701
22641W        W23505  15.400  26.404   8.369 -0.3614 -0.0568 -0.0933
22642W        W23506  16.090  21.788   7.023 -0.0552 -0.0116  0.0103
22643W        W23507  17.346  22.662   8.852 -0.0449  0.1931  0.0589
22644W        W23508  16.392  24.907   9.194  0.0223 -0.0409  0.1155
22645W        W23509  18.711  22.359  12.369 -0.2517  0.0661  0.0579
22646W        W23510  15.599  23.390   9.782  0.2458 -0.1320  0.1170
22647W        W23511  15.626  27.280  13.196 -0.0945 -0.1070  0.0112
22648W        W23512  18.146  22.156  10.248 -0.1372  0.1441 -0.0321
22649W        W23513  15.545  20.764   8.441  0.0534 -0.0450  0.1932
22650W        W23514  13.577  22.526   6.933  0.1832 -0.0735  0.1108
22651W        W23515  16.726  20.142   8.047 -0.1725  0.0853 -0.1512
22652W        W23516  15.634  24.491   7.140  0.2008  0.0424 -0.0665
22653W        W23517  15.408  24.726   7.959 -0.2519  0.0716 -0.0495
22654W        W23518  15.347  24.968   9.204  0.1611 -0.0164 -0.2305
22655W        W23519  16.507  21.599   7.304 -0.2627  0.1382  0.1424
22656W        W23520  18.200  21.107   9.108 -0.2121 -0.2722  0.2531
22657W        W23521  15.165  24.476  10.465  0.2505  0.1475 -0.0374
22658W        W23522  17.235  24.686   7.788  0.1379  0.0236 -0.1142
22659W        W23523  17.382  21.327   9.005  0.0219  0.1076  0.0259
22660W        W23524  18.978  20.485   7.650  0.1352 -0.0014 -0.1614
22661W        W23525  13.460  25.639  12.288  0.3296 -0.0272  0.4888
22662W        W23526  15.855  25.141  11.519  0.1383 -0.2198  0.2304
22663W        W23527  12.708  25.305   9.460 -0.2190 -0.2797 -0.0527
22664W        W23528  18.443  21.937  10.773  0.1468 -0.0282  0.2343
22665W        W23529  16.100  25.435   9.060 -0.0867  0.0159 -0.1554
22666W        W23530  17.421  26.051   7.680 -0.0210  0.1641  0.3130
22667W        W23531  16.740  22.827   9.134 -0.0723  0.0638  0.0429
22668W        W23532  17.757  20.979   8.314  0.0682  0.1338  0.0577
22669W        W23533  16.028  21.780   6.463 -0.0576  0.0589 -0.0160
22670W        W23534  18.001  24.892  11.893 -0.1250 -0.3262 -0.2677
22671W        W23535  16.203  23.016   8.384  0.0216  0.3646  0.1862
22672W        W23536  16.934  20.847   6.869  0.0404  0.0779 -0.0782
22673W        W23537  15.759  25.780   9.638 -0.4472 -0.5538 -0.0198
22674W        W23538  14.410  24.632  10.510 -0.0531  0.1239  0.1986
22675W        W23539  15.711  25.020   6.985  0.1259  0.2543 -0.1063
22676W        W23540  15.334  24.087   7.181  0.1182  0.0795  0.0470
22677W        W23541  16.032  27.142  12.904 -0.2143  0.0199 -0.0555
22678W        W23542  15.506  21.942   9.346 -0.1246  0.0958 -0.1007
22679W        W23543  15.980  22.074   8.588 -0.0146  0.0381  0.0771
22680W        W23544  17.272  19.618   6.562  0.1230  0.0883  0.0115
22681W        W23545  17.944  18.334   4.062  0.0048  0.1219 -0.2007
22682W        W23546  12.572  25.569  10.081 -0.0769 -0.1139 -0.2198
22683W        W23547  14.462  23.915  10.168  0.1318 -0.1985  0.0732
22684W        W23548  16.497  24.384   7.495 -0.2935  0.0788 -0.4769
22685W        W23549  14.541  23.216   8.340  0.0191  0.0030  0.0394
22686W        W23550  19.031  21.851  10.008 -0.3708  0.3987 -0.2352
22687W        W23551  16.594  25.410   8.258 -0.3574 -0.0836  0.1170
22688W        W23552  13.121  23.423   9.480  0.0934 -0.0014  0.0410
22689W        W23553  17.706  22.423  10.209  0.1214 -0.1109  0.0231
22690W        W23554  13.815  21.883   8.449 -0.1505  0.0446  0.0754
22691W        W23555  16.987  25.727  12.447  0.0953  0.2177  0.1679
22692W        W23556  20.164  21.378  10.987  0.0963 -0.0396 -0.0716
22693W        W23557  18.040  25.278   7.292 -0.3106 -0.0173  0.0719
22694W        W23558  14.891  24.685   5.754 -0.4143  0.0270 -0.1305
22695W        W23559  16.111  24.646  11.234 -0.2422  0.0470 -0.3000
22696W        W23560  14.923  25.530   7.998  0.0520  0.0071  0.2950
22697W        W23561  18.353  23.409   9.129  0.0038 -0.2302 -0.0293
22698W        W23562  19.639  22.311  12.320  0.2441  0.0952  0.3047
22699W        W23563  16.835  25.782  10.772 -0.0828 -0.3076 -0.5219
22700W        W23564  18.545  23.323   7.472 -0.0730  0.2435 -0.3095
22701W        W23565  19.037  23.407   7.598 -0.1469 -0.2013 -0.2040
22702W        W23566  14.526  26.988   6.784 -0.4353 -0.0510  0.0091
22703W        W23567  15.235  23.598  12.118 -0.1689 -0.0365 -0.0760
22704W        W23568  17.194  26.972  11.796  0.1444  0.1573 -0.0033
22705W        W23569  18.718  20.257  10.663  0.1064 -0.1619  0.1024
22706W        W23570  17.813  22.651   7.206 -0.2570 -0.0009 -0.1206
22707W        W23571  17.773  22.971   7.880 -0.0166  0.0091 -0.2461
22708W        W23572  16.575  19.571   9.685  0.0714  0.0212 -0.0402
22709W        W23573  20.440  26.891   6.885  0.2379 -0.0676  0.3436
22710W        W23574  15.087  23.505  10.791  0.0689 -0.1450  0.0569
22711W        W23575  13.903  24.608  10.637 -0.0625  0.3170  0.1640
22712W        W23576  18.602  22.758  10.383 -0.0013 -0.0003 -0.1788
22713W        W23577  16.554  23.714   5.746  0.1595  0.0442  0.2063
22714W        W23578  17.892  22.943   8.992  0.2653 -0.1016 -0.2340
22715W        W23579  17.588  22.474   9.205  0.0335 -0.3696 -0.0122
22716W        W23580  14.870  25.037  11.194 -0.0796  0.2136 -0.2975
22717W        W23581  14.903  24.594   7.773  0.0780 -0.1261  0.0156
22718W        W23582  19.044  21.869   6.511  0.3876  0.0113 -0.1669
22719W        W23583  13.785  22.793  12.254  0.2977  0.1503 -0.2335
22720W        W23584  17.156  25.446   5.812  0.1941  0.1377 -0.0967
22721W        W23585  18.358  23.203   9.574  0.1820 -0.0192  0.2976
22722W        W23586  16.297  23.979  10.123  0.2245  0.0059 -0.1260
22723W        W23587  16.999  23.941   8.063 -0.0542 -0.2200 -0.0583
22724W        W23588  18.356  25.406   9.471 -0.1926  0.0507  0.1111
22725W        W23589  16.653  23.347   8.417  0.0381  0.3421 -0.0883
22726W        W23590  11.593  22.275   9.865  0.1352 -0.1609  0.1076
22727W        W23591  14.856  22.682  11.444  0.2083 -0.0581  0.4021
22728W        W23592  13.958  23.164   8.441 -0.1901  0.0270  0.2011
22729W        W23593  19.077  21.457  12.076 -0.0573  0.3394 -0.0076
22730W        W23594  17.997  23.109   7.051  0.1788  0.2721  0.0355
22731W        W23595  18.717  22.135   6.908  0.0925  0.0357 -0.0977
22732W        W23596  15.131  24.991  10.584 -0.3616  0.0013 -0.0276
22733W        W23597  17.417  25.319   9.378  0.0950  0.0066 -0.1715
22734W        W23598  15.165  21.564   9.495 -0.2221  0.0798 -0.4518
22735W        W23599  13.020  24.091  10.330 -0.4301 -0.0380  0.0013
22736W        W23600  18.577  24.711   8.926  0.5329 -0.2302 -0.5928
22737W        W23601  17.903  25.754   7.879  0.1919 -0.3617  0.1589
22738W        W23602  16.649  24.537   9.023 -0.1046  0.0308  0.2402
22739W        W23603  15.594  22.667   7.051 -0.0800  0.0834  0.1198
22740W        W23604  17.306  26.280   7.231 -0.0014 -0.0190 -0.4041
22741W        W23605  16.481  22.099   6.673  0.1304 -0.1553 -0.0247
22742W        W23606  16.344  22.313   8.927  0.2541 -0.0288 -0.1153
22743W        W23607  16.094  25.281   9.604  0.0660 -0.1739  0.0368
22744W        W23608  18.406  22.854   8.966 -0.1635  0.3091  0.0050
22745W        W23609  16.557  21.849   8.294 -0.1281  0.1814 -0.1653
22746W        W23610  16.411  22.673  11.177  0.3615  0.0333  0.3673
22747W        W23611  16.167  22.574  11.947  0.2535  0.0631 -0.2264
22748W        W23612  15.451  23.561  10.214  0.0245 -0.3192 -0.3092
22749W        W23613  17.033  27.642   9.751 -0.2298 -0.3722  0.0440
22750W        W23614  15.163  25.648  10.142 -0.1423 -0.3523 -0.2722
22751W        W23615  16.062  25.853   8.152  0.1175 -0.0922 -0.1054
22752W        W23616  17.307  22.937   9.272 -0.1180 -0.0818 -0.2549
22753W        W23617  16.870  24.797  11.479 -0.0966  0.0232 -0.3509
22754W        W23618  17.338  23.667   7.657 -0.3616 -0.1777 -0.2019
22755W        W23619  18.659  21.722   7.984  0.0812  0.1758  0.1487
22756W        W23620  16.838  24.121  10.938 -0.3124 -0.1659  0.0147
22757W        W23621  15.327  22.885   9.782  0.3319 -0.0499  0.2021
22758W        W23622  16.473  22.775  10.655 -0.0206 -0.1045  0.2622
22759W        W23623  20.535  25.728  11.048  0.0572 -0.2230  0.0379
22760W        W23624  17.401  21.362  10.789 -0.0328 -0.1264  0.0297
22761W        W23625  19.167  24.464   9.523  0.0448  0.2329 -0.0581
22762W        W23626  14.879  23.517  10.326 -0.2487 -0.1216  0.2121
22763W        W23627  15.937  24.958   8.800 -0.1755 -0.0520  0.0285
22764W        W23628  14.575  24.966   9.826  0.0457 -0.1884  0.2560
22765W        W23629  14.328  24.706  11.935 -0.1215  0.0348  0.6528
22766W        W23630  17.317  21.208   7.197 -0.0852  0.2290  0.3061
22767W        W23631  13.496  24.498   8.159  0.2676 -0.0494 -0.4478
22768W        W23632  17.750  25.761  10.870  0.0243 -0.4369 -0.0294
22769W        W23633  22.784  22.457   7.966 -0.2834 -0.0687  0.0371
22770W        W23634  19.338  21.911   9.541  0.0429 -0.3731  0.0571
22771W        W23635  18.626  23.371   8.699 -0.1473 -0.1132 -0.0264
22772W        W23636  17.090  20.849  10.511 -0.1535 -0.0381 -0.1154
22773W        W23637  18.533  21.675   5.377 -0.2199  0.2804  0.1666
22774W        W23638  16.693  22.541   7.069  0.1161 -0.0335 -0.1013
22775W        W23639  17.400  22.724   9.882  0.1343  0.0663  0.3369
22776W        W23640  18.847  21.777   9.529 -0.2176 -0.3090 -0.0093
22777W        W23641  19.378  22.548   8.122  0.0407  0.2771 -0.3971
22778W        W23642  16.606  23.827   8.288 -0.2436 -0.0658  0.1184
22779W        W23643  12.750  23.381   9.975  0.1235  0.2834 -0.0731
22780W        W23644  17.795  22.151   7.363 -0.2199  0.0822  0.1969
22781W        W23645  15.962  24.413   9.805  0.3220  0.3836  0.2740
22782W        W23646  18.733  26.057   8.942  0.2115  0.0629  0.1162
22783W        W23647  16.393  22.018   9.426  0.3237  0.0320 -0.1826
22784W        W23648  16.078  24.408  10.289 -0.0690  0.0238  0.0355
22785W        W23649  16.794  24.656   9.502  0.0887 -0.0458  0.0129
22786W        W23650  16.737  21.686  11.660  0.0744 -0.3609 -0.2326
22787W        W23651  17.787  24.394  10.924 -0.0899  0.2671 -0.0500
22788W        W23652  18.435  23.038   9.989 -0.3420  0.4914  0.0476
22789W        W23653  18.632  21.477   9.847 -0.0896 -0.1504 -0.0523
22790W        W23654  18.786  22.487   9.080 -0.2054  0.0141 -0.1818
22791W        W23655  16.793  23.265  10.512 -0.0095 -0.1388  0.0252
22792W        W23656  15.537  24.216   9.648 -0.0213  0.1002 -0.1675
22793W        W23657  16.819  24.377   7.861 -0.2023  0.0832  0.0468
22794W        W23658  12.738  25.172  12.876  0.0961  0.1248 -0.1499
22795W        W23659  17.312  21.393   7.704 -0.0216 -0.0364 -0.1692
22796W        W23660  15.905  24.928   9.929  0.2285  0.0931  0.0078
22797W        W23661  17.321  23.039   7.689 -0.0585 -0.0245 -0.0547
22798W        W23662  17.456  24.188   9.523  0.0974  0.0634 -0.1121
22799W        W23663  16.035  23.868   9.690  0.1988  0.0156  0.3956
22800W        W23664  14.012  25.937  11.908  0.2249 -0.2506 -0.2628
22801W        W23665  15.249  23.330   5.940 -0.3284 -0.1907  0.2798
22802W        W23666  17.279  20.820   9.085  0.0314  0.2296 -0.1926
22803W        W23667  16.919  22.025  10.155 -0.2317 -0.0026 -0.1519
22804W        W23668  18.229  25.083   9.043 -0.0129 -0.0773  0.0010
22805W        W23669  15.997  20.340  10.443  0.0085 -0.1304  0.0078
22806W        W23670  18.267  24.057   7.516  0.0743 -0.2393 -0.0007
22807W        W23671  15.952  26.679  11.474 -0.0538 -0.0763  0.1745
22808W        W23672  17.912  26.180   8.248 -0.0262 -0.0422  0.1603
22809W        W23673  14.761  21.999   6.938 -0.0388  0.2830 -0.0746
22810W        W23674  14.313  24.668   8.980  0.0752 -0.1568 -0.3030
22811W        W23675  12.671  20.943   9.556  0.2513 -0.0744 -0.2034
22812W        W23676  13.357  22.142   8.539 -0.1092 -0.1628  0.0717
22813W        W23677  15.503  22.582   8.566 -0.2161  0.3315  0.0630
22814W        W23678  16.942  26.086   8.165  0.0531 -0.4344  0.0203
22815W        W23679  15.580  21.584   9.065 -0.2832 -0.2631 -0.2038
22816W        W23680  15.788  19.280   8.482  0.2258 -0.0070 -0.1990
22817W        W23681  17.722  22.523   8.591 -0.4121 -0.1520  0.1831
22818W        W23682  16.949  23.436   9.918 -0.0436 -0.2087 -0.3295
22819W        W23683  18.927  23.975  10.871 -0.1693 -0.0656  0.0802
22820W        W23684  16.956  24.702  11.004 -0.0972 -0.2328 -0.1768
22821W        W23685  14.226  22.431   7.691  0.1052 -0.1311 -0.1712
22822W        W23686  18.327  24.918   8.240 -0.1552 -0.0423 -0.2542
22823W        W23687  16.874  20.974   9.643 -0.1823 -0.0474 -0.1292
22824W        W23688  14.753  20.632   5.678  0.1367 -0.1314 -0.1124
22825W        W23689  16.487  25.918   8.427 -0.0983  0.3309 -0.2233
22826W        W23690  14.259  25.360  11.212 -0.1002 -0.0669  0.1589
22827W        W23691  15.983  20.731   9.320 -0.4185 -0.1290 -0.2113
22828W        W23692  13.026  25.394   6.930  0.0562  0.1295 -0.0194
22829W        W23693  19.719  22.660   9.480 -0.3113  0.0307  0.0589
22830W        W23694  17.456  25.134   9.971 -0.3019  0.0373  0.1004
22831W        W23695  15.140  25.082   9.661 -0.1191 -0.2758 -0.1379
22832W        W23696  13.338  24.233   9.404 -0.1915 -0.1646  0.0108
22833W        W23697  14.355  24.839  11.432  0.1956 -0.0279  0.0113
22834W        W23698  14.237  20.571   8.329 -0.1791 -0.3295  0.4063
22835W        W23699  17.057  22.495  10.430  0.0104  0.1520  0.0416
22836W        W23700  17.714  20.900   6.342  0.0003 -0.0690 -0.0707
22837W        W23701  20.181  21.724   8.633  0.3496 -0.2807 -0.0911
22838W        W23702  19.479  27.012   6.630  0.1735 -0.1005  0.0047
22839W        W23703  13.471  23.014   6.745 -0.1398 -0.1337 -0.0069
22840W        W23704  18.227  21.263   7.622 -0.0235  0.0218 -0.2096
22841W        W23705  15.608  25.958  10.081 -0.0070 -0.0079  0.2346
22842W        W23706  17.013  26.196   8.971  0.3026  0.2133 -0.0657
22843W        W23707  13.412  24.574  11.627 -0.1513 -0.4300 -0.2419
22844W        W23708  15.409  23.567   6.391 -0.0526 -0.2865 -0.1841
22845W        W23709  14.612  22.363   8.828 -0.0232  0.2716 -0.0915
22846W        W23710  13.866  24.852  12.727  0.0768 -0.1638 -0.0897
22847W        W23711  16.715  23.886  11.362 -0.0703 -0.1272  0.0161
22848W        W23712  17.984  21.807   6.940  0.2623 -0.1389  0.1481
22849W        W23713  16.897  26.384   6.832 -0.1557 -0.0836 -0.0728
22850W        W23714  17.360  24.862   8.908 -0.0942 -0.1984  0.0525
22851W        W23715  17.371  23.633  10.068  0.0428  0.0690 -0.2831
22852W        W23716  21.144  25.814   9.288 -0.0349  0.2599 -0.0578
22853W        W23717  14.371  22.661   7.159  0.1974  0.0957 -0.0196
22854W        W23718  19.186  20.826   8.672  0.1379  0.0309  0.2759
22855W        W23719  15.529  24.310   7.686 -0.1493  0.1441 -0.2685
22856W        W23720  15.816  21.355   7.824  0.1513 -0.1986  0.0097
22857W        W23721  16.695  26.961   5.013 -0.2181 -0.0401  0.2906
22858W        W23722  17.454  24.107  10.216 -0.4153  0.2097 -0.0450
22859W        W23723  17.002  25.541   5.276 -0.1202  0.5217 -0.0335
22860W        W23724  16.930  21.265  10.070  0.1291 -0.2932  0.1264
22861W        W23725  15.731  24.145   8.776 -0.0358 -0.0468  0.1306
22862W        W23726  16.346  24.734   7.858  0.1180 -0.2755 -0.0655
22863W        W23727  17.642  23.739   9.615 -0.0543  0.2213  0.0534
22864W        W23728  13.433  21.825   8.896  0.0797 -0.1600 -0.1617
22865W        W23729  17.012  23.018   8.733 -0.1215 -0.2005 -0.0440
22866W        W23730  14.560  24.289   7.349 -0.1169 -0.4067  0.0497
22867W        W23731  16.793  23.741   8.914  0.2933 -0.1698  0.1020
22868W        W23732  16.843  23.055   7.661  0.0975  0.0500  0.1365
22869W        W23733  17.436  26.404   9.534  0.0968 -0.2500  0.0506
22870W        W23734  16.358  24.465   9.422 -0.0391  0.1617 -0.3112
22871W        W23735  17.220  26.855   8.213 -0.2594 -0.2368 -0.4658
22872W        W23736  16.856  23.905  10.112 -0.1685  0.0302 -0.0924
22873W        W23737  14.091  23.635   9.882 -0.0401  0.1059 -0.1301
22874W        W23738  16.218  25.075   8.189  0.0966 -0.1087  0.2837
22875W        W23739  16.585  26.843  11.039  0.0108 -0.1411  0.1513
22876W        W23740  14.694  25.481   9.933  0.2802 -0.1312 -0.0364
22877W        W23741  17.594  25.099   7.902 -0.2291  0.1595 -0.0843
22878W        W23742  17.717  27.883   8.547 -0.2928  0.0470  0.1086
22879W        W23743  13.735  24.077   8.372  0.2450 -0.0505 -0.0004
22880W        W23744  17.927  24.016   9.263 -0.1251 -0.0138 -0.0804
22881W        W23745  15.530  24.583   8.695  0.0890  0.2452  0.2587
22882W        W23746  14.736  25.510  11.272 -0.2603  0.2138 -0.2785
22883W        W23747  17.413  25.542   7.823  0.0368 -0.1547  0.2998
22884W        W23748  19.436  21.265   5.281 -0.4134  0.0036 -0.1848
22885W        W23749  14.394  23.480  15.526  0.3756  0.2267 -0.1278
22886W        W23750  13.616  22.605  12.759 -0.3466  0.2097 -0.3253
22887W        W23751  17.784  25.302  11.103 -0.1906 -0.1557  0.1793
22888W        W23752  15.285  26.708  15.512 -0.1214  0.1264 -0.3360
22889W        W23753  15.820  26.421  10.305 -0.1397  0.0814 -0.3495
22890W        W23754  17.794  24.908  10.250  0.0637 -0.5236 -0.2608
22891W        W23755  13.216  24.817  13.950  0.2806  0.0643  0.1880
22892W        W23756  18.398  23.933  12.720  0.0628 -0.0667 -0.0199
22893W        W23757  17.391  24.360  15.742 -0.0150 -0.0041 -0.1558
22894W        W23758  15.047  22.131  13.429  0.0910  0.2442  0.1250
22895W        W23759  12.944  22.537  12.674  0.1003 -0.0057 -0.0786
22896W        W23760  15.957  21.577  11.768  0.4223  0.0704  0.0440
22897W        W23761  16.269  22.927   9.335  0.1005  0.1575 -0.2102
22898W        W23762  16.050  23.907  15.279 -0.2184 -0.0278 -0.2704
22899W        W23763  16.818  27.985  13.987  0.1071  0.2828  0.3645
22900W        W23764  17.424  25.766  11.836  0.1476  0.2440 -0.0381
22901W        W23765  14.820  24.361  14.834  0.0409  0.1671  0.0700
22902W        W23766  18.103  22.861  15.010 -0.1750  0.0148  0.1433
22903W        W23767  20.846  23.099  11.666 -0.1036 -0.2012 -0.0667
22904W        W23768  18.384  23.333  13.943 -0.1803  0.4402 -0.2723
22905W        W23769  17.463  22.575  10.708 -0.0906 -0.0688  0.3202
22906W        W23770  17.462  25.780  14.724 -0.0920  0.0430 -0.1494
22907W        W23771  13.964  24.256  13.767 -0.2410  0.0042  0.1341
22908W        W23772  14.111  23.429  11.841  0.2106 -0.1178  0.0971
22909W        W23773  15.041  23.383  14.878 -0.0541  0.1506 -0.2135
22910W        W23774  19.454  23.776  15.599 -0.0251  0.1013 -0.1202
22911W        W23775  14.129  23.258  11.354  0.0382 -0.0253  0.0320
22912W        W23776  14.338  26.667  15.786 -0.1707 -0.0741  0.0356
22913W        W23777  16.862  25.097  14.185 -0.1796  0.1233 -0.0734
22914W        W23778  15.415  25.390  14.328  0.0369 -0.0767 -0.1677
22915W        W23779  17.171  24.527  12.786 -0.3058 -0.0334 -0.1209
22916W        W23780  16.767  23.280  13.503  0.2909 -0.0187 -0.1713
22917W        W23781  12.868  23.829  12.539  0.0229 -0.0073 -0.0628
22918W        W23782  15.455  24.634  17.616  0.0351  0.0384 -0.0614
22919W        W23783  18.232  23.303  14.788 -0.0570  0.4242 -0.1801
22920W        W23784  15.708  23.396  12.199  0.1698 -0.1549  0.1199
22921W        W23785  17.995  25.857  13.466  0.0268 -0.0631  0.0723
22922W        W23786  18.294  23.843  13.762  0.0995 -0.0812  0.1492
22923W        W23787  16.135  23.155  13.583 -0.4142 -0.1117 -0.1107
22924W        W23788  20.149  25.798  11.672 -0.1155  0.1663 -0.1418
22925W        W23789  18.547  21.177  10.438  0.1373 -0.1171  0.1020
22926W        W23790  17.587  26.236  14.168  0.2024 -0.1850 -0.2693
22927W        W23791  17.690  26.612  11.759 -0.2337 -0.3030 -0.0230
22928W        W23792  14.286  26.232  11.505 -0.3725 -0.2121  0.2412
22929W        W23793  17.306  25.051  11.285  0.1691  0.1330 -0.1606
22930W        W23794  14.246  24.547  10.960  0.0309  0.0453  0.1472
22931W        W23795  16.916  20.812  15.277  0.0437  0.2068  0.0224
22932W        W23796  16.417  24.975  10.905 -0.0765  0.1419  0.1203
22933W        W23797  17.344  22.479  11.317 -0.1357 -0.0846 -0.0252
22934W        W23798  13.663  25.218  12.920  0.2207 -0.1423 -0.3443
22935W        W23799  15.552  23.379  13.492  0.1664  0.0742  0.3599
22936W        W23800  17.222  25.284  13.311 -0.1741  0.1840  0.1133
22937W        W23801  19.914  22.815  10.438  0.3299  0.0638 -0.2235
22938W        W23802  18.093  22.715  10.249  0.0053  0.1765  0.1690
22939W        W23803  14.940  26.073  14.086 -0.2767  0.0331 -0.0222
22940W        W23804  15.665  23.822  11.637 -0.1729  0.2762  0.1542
22941W        W23805  16.701  24.687  12.723  0.1322 -0.2822 -0.1829
22942W        W23806  17.526  26.188  10.668  0.2982  0.1831  0.5231
22943W        W23807  16.178  24.521  12.650  0.2062 -0.4281  0.0925
22944W        W23808  19.636  21.355  12.061  0.4722 -0.0532 -0.1502
22945W        W23809  15.897  24.238  14.111  0.0693 -0.3564 -0.0479
22946W        W23810  18.127  26.426  15.115 -0.1570 -0.1820  0.0626
22947W        W23811  17.724  22.301  11.573 -0.0499 -0.1260 -0.3214
22948W        W23812  14.808  24.250  16.043  0.2779 -0.3459 -0.1003
22949W        W23813  21.063  23.588  13.885 -0.2710  0.1057 -0.2188
22950W        W23814  13.741  27.588  10.776 -0.1433  0.3771 -0.0155
22951W        W23815  14.780  24.549  11.708 -0.2864  0.1036  0.0308
22952W        W23816  13.793  26.670  10.714  0.0501  0.0771  0.0328
22953W        W23817  15.647  24.228  11.317  0.2673 -0.3527  0.1825
22954W        W23818  15.245  23.832  12.721 -0.2120  0.1238 -0.1960
22955W        W23819  15.603  22.524  12.063  0.0071  0.0683  0.1302
22956W        W23820  17.339  26.630  10.416 -0.0797 -0.2530 -0.0403
22957W        W23821  18.235  23.827  13.221  0.1556 -0.0187 -0.0768
22958W        W23822  19.230  23.567  14.637  0.0807 -0.1612 -0.2175
22959W        W23823  18.538  25.340  12.802 -0.1865  0.1709 -0.2354
22960W        W23824  15.414  22.712  10.300 -0.2060 -0.0696 -0.2302
22961W        W23825  15.493  25.028  12.105 -0.1670 -0.1372  0.0534
22962W        W23826  15.124  23.380   9.386 -0.1131  0.0453 -0.0850
22963W        W23827  16.096  25.551  11.195  0.2653 -0.0337  0.1056
22964W        W23828  16.264  26.527  14.349 -0.1610  0.0430 -0.0764
22965W        W23829  16.891  22.342  15.546 -0.2200  0.0166  0.1452
22966W        W23830  16.646  23.355  12.285 -0.1284  0.1535 -0.0025
22967W        W23831  17.701  21.106  12.810 -0.1950 -0.1992  0.0975
22968W        W23832  18.656  21.089  14.848  0.0426  0.2018 -0.1991
22969W        W23833  18.328  23.215  11.525 -0.1379 -0.0963  0.1204
22970W        W23834  17.406  24.300  17.146 -0.3131 -0.1251  0.0827
22971W        W23835  18.226  25.395  13.681  0.2173 -0.5812 -0.0908
22972W        W23836  17.377  21.471  14.548 -0.2160  0.1904  0.3095
22973W        W23837  17.521  23.237  14.037 -0.2107 -0.3213  0.2297
22974W        W23838  17.240  23.435  13.159  0.3380  0.1783  0.0683
22975W        W23839  16.773  22.813  14.774 -0.0871 -0.0394  0.1421
22976W        W23840  15.236  26.232  11.846  0.0432  0.2435  0.1416
22977W        W23841  15.047  23.549  11.624 -0.2220  0.0940  0.0246
22978W        W23842  15.682  21.676  15.636 -0.1679 -0.0357 -0.0942
22979W        W23843  17.215  23.816  11.161 -0.0731  0.1628  0.0705
22980W        W23844  15.283  23.006   7.304 -0.0708  0.0724  0.1434
22981W        W23845  14.272  27.357  16.279 -0.1545  0.0239  0.0977
22982W        W23846  14.519  20.413  11.002  0.1692 -0.1611  0.0192
22983W        W23847  17.580  23.708  13.440  0.0184 -0.0677 -0.0420
22984W        W23848  19.868  21.776  11.923  0.0314  0.1289  0.3144
22985W        W23849  14.883  25.697  12.750  0.1980 -0.1935  0.0556
22986W        W23850  18.282  23.811   8.838 -0.1798 -0.1977 -0.0768
22987W        W23851  17.348  25.450  12.848 -0.3519 -0.0059  0.2194
22988W        W23852  19.279  19.390  11.677  0.0789 -0.2865  0.1919
22989W        W23853  14.383  22.994  13.036 -0.0409 -0.1056  0.0013
22990W        W23854  16.659  25.130  11.860 -0.1610 -0.0080  0.0525
22991W        W23855  15.624  22.771  16.140  0.0988 -0.0859  0.2721
22992W        W23856  19.697  24.727  13.524  0.0582 -0.0288 -0.1768
22993W        W23857  17.569  22.651  13.497  0.1397  0.1875 -0.2714
22994W        W23858  15.839  26.896  10.183 -0.1209 -0.1312  0.1836
22995W        W23859  15.504  22.947  10.786  0.1345 -0.1812 -0.1908
22996W        W23860  19.635  23.217  15.486 -0.2225  0.0326  0.4493
22997W        W23861  18.522  24.734  14.220  0.0384 -0.0404 -0.1462
22998W        W23862  17.242  21.910  11.493  0.1495 -0.3257  0.1315
22999W        W23863  15.779  24.100  12.848 -0.3670 -0.1676  0.1273
23000W        W23864  21.831  21.657  11.938  0.0929 -0.1820  0.0616
23001W        W23865  14.731  23.665  11.999  0.0071 -0.0128 -0.0006
23002W        W23866  15.924  23.516  11.216 -0.1181  0.1286  0.1503
23003W        W23867  17.147  22.591  11.793  0.1121  0.0989 -0.0645
23004W        W23868  18.484  24.256  10.698  0.1867 -0.2040 -0.2242
23005W        W23869  16.020  25.537   7.327 -0.2322 -0.1660 -0.2377
23006W        W23870  19.446  24.641  12.986  0.0995 -0.0332  0.0144
23007W        W23871  16.637  25.464  12.900  0.2171  0.1300  0.3186
23008W        W23872  16.785  24.777  14.881 -0.0171  0.0191 -0.2565
23009W        W23873  15.693  23.098  10.205 -0.0242 -0.1047  0.1097
23010W        W23874  16.063  22.213  13.771 -0.1069  0.0184 -0.2605
23011W        W23875  16.771  24.201  13.647 -0.1486  0.3875 -0.0917
23012W        W23876  18.964  27.564  10.818  0.3135  0.2623  0.1781
23013W        W23877  17.804  25.277  12.247  0.0640  0.0122 -0.3671
23014W        W23878  17.923  23.582  15.184 -0.2127  0.0406  0.2165
23015W        W23879  19.551  21.577  10.445 -0.0276  0.5781 -0.1500
23016W        W23880  15.147  25.132  15.945 -0.0215  0.0269 -0.4066
23017W        W23881  18.045  22.070  11.193  0.0722  0.0996  0.2715
23018W        W23882  20.022  23.175  13.378 -0.0989 -0.0246  0.2477
23019W        W23883  12.832  24.639  17.117  0.1483 -0.0565  0.0540
23020W        W23884  16.732  24.969  13.188 -0.0425 -0.3926  0.3683
23021W        W23885  18.178  23.802  14.633 -0.0986 -0.0492  0.2000
23022W        W23886  17.865  23.225   9.507 -0.0423 -0.0505 -0.2262
23023W        W23887  17.393  28.084  13.940  0.0277 -0.0145  0.0528
23024W        W23888  15.864  24.206   9.285  0.0570  0.1159  0.1684
23025W        W23889  14.864  24.030  12.405  0.3554  0.1682 -0.2840
23026W        W23890  16.363  23.635  12.765 -0.0190 -0.0847 -0.0356
23027W        W23891  13.755  23.350   9.483  0.1386 -0.0428 -0.0504
23028W        W23892  17.636  24.585  15.207 -0.1965  0.1100 -0.1387
23029W        W23893  18.437  22.323  12.797 -0.1141 -0.0862  0.1791
23030W        W23894  19.262  21.669  12.743  0.1848 -0.1981  0.1447
23031W        W23895  15.627  24.853  15.655 -0.0475 -0.1680 -0.2525
23032W        W23896  16.303  25.702  15.764 -0.1874  0.0451  0.2823
23033W        W23897  16.028  25.074  15.867  0.0802 -0.0053  0.3074
23034W        W23898  16.286  25.174  16.310 -0.1019 -0.0468 -0.0100
23035W        W23899  14.484  23.617  11.519 -0.0397  0.1759  0.1640
23036W        W23900  13.422  23.908  12.706 -0.0122  0.1427 -0.3123
23037W        W23901  15.071  22.658  13.594 -0.1155 -0.1159  0.2335
23038W        W23902  17.571  24.517  10.469  0.0811 -0.1344 -0.3007
23039W        W23903  18.711  23.627  12.240 -0.1677  0.0371  0.1320
23040W        W23904  13.188  22.347  11.873 -0.2897 -0.2403 -0.3849
23041W        W23905  17.774  24.366  11.452 -0.0745  0.3531  0.2073
23042W        W23906  14.560  22.485  13.483  0.1867 -0.1448 -0.3126
23043W        W23907  17.931  22.809  12.883  0.2303  0.1934  0.0926
23044W        W23908  17.507  22.995  13.044  0.1166  0.0849  0.1086
23045W        W23909  16.612  23.374  14.009 -0.3935  0.0515 -0.1309
23046W        W23910  18.076  23.367  13.560  0.1226 -0.2014  0.2689
23047W        W23911  18.918  20.468  13.167 -0.0589  0.3594  0.0648
23048W        W23912  16.755  22.322  15.015  0.1549  0.0250  0.1189
23049W        W23913  15.141  24.295  13.067  0.3166 -0.1377 -0.4116
23050W        W23914  15.541  24.249  11.889 -0.1786  0.2923  0.3196
23051W        W23915  16.283  24.852  10.241  0.2019 -0.0193 -0.0956
23052W        W23916  16.572  26.283  13.673 -0.2274 -0.0096  0.0638
23053W        W23917  16.606  24.329  12.373 -0.0665 -0.3160  0.0189
23054W        W23918  18.488  27.566  13.332 -0.0971 -0.1908  0.2505
23055W        W23919  16.219  25.592  14.104  0.3287 -0.0647 -0.1886
23056W        W23920  14.555  24.814  15.669  0.0278 -0.3281  0.1371
23057W        W23921  14.109  26.446  11.034 -0.2202  0.0108  0.3843
23058W        W23922  13.855  22.191  12.687 -0.1211 -0.0068 -0.2679
23059W        W23923  17.886  24.956  10.810  0.1620 -0.2470 -0.0924
23060W        W23924  14.556  25.025  13.460  0.0738 -0.0908  0.1464
23061W        W23925  15.392  25.000  12.576  0.1371 -0.2212  0.0816
23062W        W23926  13.453  26.356  10.513 -0.0940 -0.0897  0.0231
23063W        W23927  14.965  22.672  15.287  0.1166  0.1849  0.4229
23064W        W23928  14.660  24.400  11.190 -0.2214 -0.0497  0.1803
23065W        W23929  15.945  23.490  10.142 -0.4446  0.3075 -0.1867
23066W        W23930  17.904  22.929   8.343 -0.1047 -0.0368 -0.0564
23067W        W23931  15.829  22.978  11.883  0.0379  0.0785 -0.0360
23068W        W23932  16.366  23.302  10.778  0.1229 -0.1013 -0.2629
23069W        W23933  17.539  24.146  17.767  0.1313  0.0272  0.0175
23070W        W23934  18.283  23.344  13.041 -0.1113 -0.0137 -0.1673
23071W        W23935  14.828  19.497  10.799 -0.0219 -0.2857  0.0575
23072W        W23936  17.930  23.042  13.891  0.1896  0.1025 -0.1089
23073W        W23937  14.628  23.373  11.105  0.1800  0.2397  0.2051
23074W        W23938  14.790  26.379  11.620 -0.2801  0.1129 -0.2152
23075W        W23939  16.311  26.249  13.244  0.0786  0.2018  0.0535
23076W        W23940  17.084  23.562  12.169 -0.0556 -0.2087  0.0781
23077W        W23941  17.511  22.214  13.918  0.0457  0.3745  0.2937
23078W        W23942  15.644  22.013  12.292  0.1792  0.1463 -0.0658
23079W        W23943  14.922  21.369  11.772 -0.0113  0.4315 -0.3499
23080W        W23944  18.329  22.686  12.457  0.0308  0.2176  0.0168
23081W        W23945  12.739  22.262  11.700  0.0118  0.0174 -0.0059
23082W        W23946  17.100  22.214  14.173  0.0062  0.1365  0.2055
23083W        W23947  18.047  24.278  15.635  0.1552  0.0237 -0.2032
23084W        W23948  16.559  23.711  10.488  0.0773  0.1549 -0.0810
23085W        W23949  17.005  21.935  14.708 -0.0870 -0.1487 -0.1678
23086W        W23950  18.577  24.013   9.754 -0.0526 -0.0607  0.0636
23087W        W23951  16.649  22.533  12.829  0.0646 -0.0117 -0.1315
23088W        W23952  14.876  23.339  15.723 -0.2273  0.3990  0.2684
23089W        W23953  15.419  22.986  12.229  0.0631 -0.1452 -0.0209
23090W        W23954  19.302  23.694  13.841  0.1346  0.2211  0.0461
23091W        W23955  18.524  24.214  13.522  0.1809 -0.1799  0.0758
23092W        W23956  15.024  26.415  11.149 -0.1498 -0.3014 -0.2792
23093W        W23957  13.155  24.762  12.605 -0.1557 -0.4005  0.0080
23094W        W23958  14.642  23.801  14.245 -0.0090 -0.2046 -0.3279
23095W        W23959  15.250  24.151  15.892 -0.0796 -0.1752  0.3975
23096W        W23960  17.685  24.584  13.460  0.2958 -0.1661  0.0578
23097W        W23961  18.769  21.884  12.669  0.2662 -0.1231 -0.0670
23098W        W23962  20.382  24.204  13.734  0.3022 -0.1253  0.0898
23099W        W23963  17.507  25.736  12.398  0.0503 -0.1408  0.0547
23100W        W23964  18.649  24.836  12.653  0.0520 -0.1652  0.0103
23101W        W23965  17.940  25.341   8.215  0.2840  0.0396  0.2470
23102W        W23966  17.734  25.101  13.500 -0.0416 -0.4358 -0.1752
23103W        W23967  17.415  24.308  13.175  0.1750  0.2012  0.1007
23104W        W23968  18.921  22.690  13.313 -0.0696 -0.0018  0.0399
23105W        W23969  16.022  25.782  12.110 -0.1618 -0.2656 -0.1855
23106W        W23970  14.295  23.334  16.939 -0.1630  0.0669  0.0528
23107W        W23971  18.094  21.411  11.424  0.0148 -0.2927  0.0140
23108W        W23972  20.793  25.208   8.794  0.3363  0.0317  0.0871
23109W        W23973  15.127  24.213  13.576  0.1079 -0.1300  0.1403
23110W        W23974  16.629  24.531  14.273  0.0060 -0.2270 -0.0266
23111W        W23975  18.764  23.824  14.665 -0.2692  0.1200 -0.0348
23112W        W23976  18.467   0.152  12.081  0.1688 -0.0850 -0.0102
23113W        W23977  16.991  25.107  12.782 -0.0879 -0.0056  0.1139
23114W        W23978  15.100  24.592  11.314  0.1707  0.0488 -0.3567
23115W        W23979  18.430  23.092  18.437 -0.3282 -0.1062  0.0965
23116W        W23980  14.316  25.358  10.275  0.2839  0.0508  0.0207
23117W        W23981  13.501  23.623  10.448  0.0967  0.1496  0.1597
23118W        W23982  16.417  23.690  13.538  0.1382  0.0717 -0.1157
23119W        W23983  15.720  25.863  11.030  0.0667 -0.2343 -0.1131
23120W        W23984  15.883  23.661  12.721 -0.1811 -0.0540  0.1775
23121W        W23985  15.856  23.029  13.959  0.0995 -0.2102 -0.0263
23122W        W23986  15.133  23.293   9.960 -0.1160  0.0041 -0.3258
23123W        W23987  16.184  23.600  12.275 -0.0538  0.2481 -0.1222
23124W        W23988  14.909  22.781  10.285 -0.4754  0.0033  0.2457
23125W        W23989  12.607  27.571  11.960 -0.1134  0.2615 -0.2986
23126W        W23990  17.110  23.488  14.219  0.2848 -0.3584 -0.0872
23127W        W23991  15.460  23.279  11.751  0.1017 -0.0406 -0.0429
23128W        W23992  16.679  23.792  14.320 -0.1698  0.2437 -0.1619
23129W        W23993  13.066  23.245  12.399  0.0899 -0.2493 -0.0794
23130W        W23994  17.749  23.380  13.093  0.0192 -0.1753 -0.1929
23131W        W23995  15.958  25.035  14.684 -0.0632  0.3076 -0.2616
23132W        W23996  18.186  24.158  14.232 -0.0672  0.0632 -0.1386
23133W        W23997  18.185  21.560  11.934  0.2916 -0.1646 -0.2774
23134W        W23998  14.269  24.319  13.020  0.0347 -0.2108 -0.0671
23135W        W23999  15.468  24.398  15.574 -0.1633  0.4079 -0.1093
23136W        W24000  18.120  27.988  12.479  0.1637 -0.1092  0.1214
23137W        W24001  16.828  25.784  13.420  0.0705  0.0589  0.0362
23138W        W24002  15.874  22.678  10.492 -0.1760  0.1717 -0.1003
23139W        W24003  17.410  24.746  10.907 -0.2427 -0.1872  0.0514
23140W        W24004  19.159  24.181  10.483 -0.0956 -0.0078 -0.2160
23141W        W24005  14.589  20.027  12.985  0.2340 -0.0276 -0.0527
23142W        W24006  17.230  26.036  11.087 -0.2829  0.0695  0.3614
23143W        W24007  15.345  25.673  12.029 -0.3387 -0.0706  0.0123
23144W        W24008  16.581  22.970  11.573 -0.1108 -0.0637  0.1547
23145W        W24009  16.385  23.936  14.898 -0.1081  0.0212  0.1251
23146W        W24010  15.118  26.217  15.483 -0.0441  0.0148  0.1620
23147W        W24011  15.604  22.121  13.394 -0.2530 -0.4025  0.2317
23148W        W24012  18.079  27.465  12.465  0.1127 -0.0425  0.0041
23149W        W24013  14.620  25.031  14.430  0.0736  0.0187 -0.1258
23150W        W24014  17.800  24.787  11.261 -0.0865 -0.0592 -0.1298
23151W        W24015  16.121  23.108  10.411  0.1116  0.1546  0.0224
23152W        W24016  16.351  24.113  17.050 -0.2859 -0.0318 -0.0898
23153W        W24017  19.305  21.801  11.822  0.0932 -0.0215 -0.3657
23154W        W24018  14.993  25.292  12.495  0.1288 -0.0091  0.1724
23155W        W24019  18.516  21.107  14.281  0.2517  0.1529  0.0995
23156W        W24020  16.527  24.133  12.842 -0.0703 -0.3890 -0.0072
23157W        W24021  17.209  22.556  15.127  0.2108 -0.2379 -0.0213
23158W        W24022  16.328  28.705  13.153  0.4603 -0.1409 -0.0774
23159W        W24023  18.639  19.268  14.129  0.3680 -0.0553  0.0062
23160W        W24024  14.076  20.206  10.878  0.0444  0.0042  0.3823
23161W        W24025  17.740  20.718  14.054  0.2262  0.1090 -0.0381
23162W        W24026  15.834  20.288   9.206  0.0483  0.2963  0.2496
23163W        W24027  15.384  25.921  14.337 -0.0636  0.0634 -0.2475
23164W        W24028  15.582  24.391  13.477 -0.0239 -0.1525  0.1396
23165W        W24029  16.083  22.759  12.843 -0.4039  0.0098  0.2747
23166W        W24030  18.252  22.460  11.521 -0.1266 -0.5343  0.1386
23167W        W24031  14.833  24.320  15.577 -0.1748 -0.0149  0.1405
23168W        W24032  16.503  22.250  10.348  0.1753 -0.0962 -0.0144
23169W        W24033  19.231  24.537  14.317  0.1729 -0.0944 -0.2503
23170W        W24034  15.630  23.981  10.885 -0.0168 -0.0082 -0.0879
23171W        W24035  17.470  22.750  12.606 -0.0603 -0.0272 -0.4590
23172W        W24036  17.118  23.749  10.521  0.2793  0.0002 -0.4181
23173W        W24037  16.006  24.898  13.470  0.0021  0.0647  0.0059
23174W        W24038  18.404  22.821  13.096  0.1774  0.0228 -0.3505
23175W        W24039  17.587  23.141  13.524 -0.1364 -0.2053 -0.0883
23176W        W24040  12.927  23.619  11.404 -0.0614  0.0567 -0.0859
23177W        W24041  13.978  24.949  13.623 -0.1384  0.0005  0.3430
23178W        W24042  14.943  23.284  12.971 -0.0940  0.1045 -0.1914
23179W        W24043  17.010  22.440  10.925  0.4108 -0.2857  0.2648
23180W        W24044  19.521  24.152  14.759 -0.3712  0.0747 -0.0287
23181W        W24045  20.115  21.417  13.118  0.0632 -0.0021 -0.0918
23182W        W24046  15.645  28.797  12.566  0.1432  0.1107 -0.0982
23183W        W24047  15.088  26.662  12.585 -0.2006 -0.3855  0.0709
23184W        W24048  15.488  23.006  14.802  0.1962  0.0132 -0.0187
23185W        W24049  14.634  27.396  12.512 -0.0266  0.1214  0.0058
23186W        W24050  18.215  26.036  12.656  0.0032 -0.0625 -0.1964
23187W        W24051  16.581  21.551  11.149  0.0084  0.2084  0.1173
23188W        W24052  18.745  26.032  13.373 -0.3462  0.2153 -0.2468
23189W        W24053  18.009  24.192  13.455 -0.0537 -0.0585  0.0592
23190W        W24054  16.881  23.128  11.955  0.0170  0.0970  0.0435
23191W        W24055  15.964  23.973  12.009 -0.2174 -0.0017  0.2548
23192W        W24056  15.844  26.132  13.018 -0.2774  0.3407 -0.0325
23193W        W24057  18.060  24.099  11.761  0.2801  0.0567 -0.0553
23194W        W24058  14.845  21.250  12.312  0.0445 -0.0811  0.2451
23195W        W24059  14.635  23.149  10.107 -0.0080 -0.1436  0.2292
23196W        W24060  15.017  25.997  12.288 -0.1006  0.2330 -0.1595
23197W        W24061  19.228  25.188  16.373  0.1445 -0.3163  0.4688
23198W        W24062  15.369  23.499  13.060  0.2606  0.0859 -0.0794
23199W        W24063  15.271  21.536   9.981 -0.3005 -0.2458 -0.1851
23200W        W24064  17.734  23.999  14.373  0.0269 -0.2060 -0.4716
23201W        W24065  16.856  22.517  11.373 -0.0970 -0.0271  0.1826
23202W        W24066  14.531  25.953  17.325 -0.1733  0.0434  0.0163
23203W        W24067  16.940  26.515   9.513  0.0996  0.1106  0.0984
23204W        W24068  13.669  22.955  14.068  0.0164 -0.1737  0.1236
23205W        W24069  15.650  25.452  12.413 -0.2390  0.0268  0.0545
23206W        W24070  17.110  25.491  14.391  0.0514  0.1306  0.1076
23207W        W24071  14.697  21.872  14.880  0.0018 -0.0344  0.1247
23208W        W24072  18.783  22.750  12.742  0.0110  0.1511 -0.0709
23209W        W24073  16.830  23.305   9.309  0.1385  0.2852  0.0241
23210W        W24074  18.447  24.529  13.079  0.1123 -0.1283 -0.0814
23211W        W24075  16.010  24.075  13.558 -0.1768 -0.1099  0.1114
23212W        W24076  14.680  21.690  15.316 -0.1568 -0.0402  0.0592
23213W        W24077  20.298  24.556  12.529  0.0684  0.1247 -0.0213
23214W        W24078  16.918  23.913  15.044 -0.2290 -0.1836  0.1762
23215W        W24079  17.002  22.502  16.301  0.2323 -0.4927  0.0219
23216W        W24080  17.762  24.129  13.895 -0.0557  0.0925 -0.1128
23217W        W24081  17.616  25.717  15.368  0.1764 -0.2028 -0.0372
23218W        W24082  16.341  26.347  12.718 -0.0071 -0.2501  0.1457
23219W        W24083  16.077  25.927  13.678  0.3528  0.2173  0.0470
23220W        W24084  17.934  25.687  12.069 -0.0435 -0.0073 -0.0441
23221W        W24085  16.440  21.761  14.069  0.0493  0.0235 -0.2838
23222W        W24086  16.562  25.681  12.035  0.1307 -0.1487 -0.1095
23223W        W24087  15.313  22.415  13.062  0.0438 -0.0621 -0.3076
23224W        W24088  16.131  24.858  15.251  0.0358 -0.4166 -0.3063
23225W        W24089  16.460  25.573  13.660 -0.1067 -0.0415  0.1609
23226W        W24090  15.557  22.962  12.760 -0.2543 -0.0158 -0.0486
23227W        W24091  14.593  24.490  16.467 -0.2217  0.2686  0.0992
23228W        W24092  12.894  21.234  12.853  0.1641  0.2595  0.1099
23229W        W24093  17.465  21.477  11.370 -0.0978  0.0388 -0.2029
23230W        W24094  16.884  24.465  13.184  0.2624  0.2362  0.3206
23231W        W24095  15.173  20.664  10.221 -0.1709 -0.0763  0.0169
23232W        W24096  17.810  21.763  14.682  0.0357 -0.0564  0.0773
23233W        W24097  16.608  25.126   8.767 -0.1358  0.2924  0.0116
23234W        W24098  16.768  23.396  15.537  0.0475 -0.1591  0.1354
23235W        W24099  17.860  26.056  11.655 -0.0539  0.0409 -0.1404
23236W        W24100  17.038  26.517  12.025  0.0617 -0.0238  0.0819
23237W        W24101  20.083  22.627  14.221 -0.0612  0.1202 -0.0428
23238W        W24102  15.736  27.288  15.432 -0.2332  0.3125 -0.0057
23239W        W24103  15.102  23.162  13.466 -0.0299  0.2687 -0.0120
23240W        W24104  13.260  23.430  12.972  0.0290 -0.1351  0.0571
23241W        W24105  14.396  22.151  11.788  0.0416  0.1245  0.1883
23242W        W24106  17.754  23.224  10.764  0.3048 -0.2472 -0.0452
23243W        W24107  18.237  24.932  12.857  0.1947 -0.0700 -0.0003
23244W        W24108  14.239  22.523  11.394 -0.0220  0.3589  0.0281
23245W        W24109  18.975  22.803  11.116 -0.1420 -0.0475  0.0230
23246W        W24110  17.138  25.649  13.867  0.3504 -0.0653  0.0356
23247W        W24111  16.090  24.333  11.625 -0.0336 -0.1425  0.2267
23248W        W24112  17.148  23.939  13.347  0.0979  0.1476  0.0447
23249W        W24113  16.870  22.844   9.613  0.1887 -0.1565  0.3629
23250W        W24114  17.847  19.845  13.143  0.4591 -0.1436  0.1511
23251W        W24115  19.199  22.368  10.993  0.1659 -0.0348  0.1341
23252W        W24116  15.409  25.850  10.654 -0.0980  0.0103  0.0469
23253W        W24117  18.191  24.397  12.622  0.2078 -0.4547  0.0229
23254W        W24118  17.324  26.253  11.655 -0.3270  0.2435  0.1677
23255W        W24119  19.959  25.612  16.348  0.1072  0.0228 -0.0773
23256W        W24120  18.760  24.056  13.087 -0.1347  0.0582  0.1757
23257W        W24121  16.277  21.343  13.819 -0.1551  0.1326  0.2103
23258W        W24122  17.597  24.348  12.636  0.2241 -0.0200 -0.0912
23259W        W24123  15.621  26.283  15.204  0.1005  0.1965 -0.0823
23260W        W24124  20.860  22.739  16.305 -0.0830 -0.0786 -0.2158
23261W        W24125  16.971  22.547  13.768  0.2808  0.0751 -0.0373
23262W        W24126  16.303  24.651  13.121 -0.1581 -0.3511  0.0075
23263W        W24127  14.729  24.516  12.246 -0.1216 -0.2340 -0.1953
23264W        W24128  14.801  26.747  11.959  0.0923  0.4053 -0.1410
23265W        W24129  16.890  25.208  15.253 -0.0128  0.1757 -0.3496
23266W        W24130  18.167  28.616  14.794 -0.1643  0.1770  0.4562
23267W        W24131  16.436  19.887  12.677 -0.0986 -0.1262 -0.4115
23268W        W24132  18.110  25.356  13.192  0.1373  0.1658  0.1706
23269W        W24133  17.920  24.079  15.162 -0.1504  0.1541 -0.2044
23270W        W24134  14.486  26.011  12.050 -0.0234 -0.1703 -0.2361
23271W        W24135  18.991  23.905  12.582  0.0055  0.0692 -0.0701
23272W        W24136  17.268  22.947  14.487  0.1004  0.1004 -0.2630
23273W        W24137  18.144  24.469  13.829  0.1184  0.1755 -0.1112
23274W        W24138  14.270  25.282  11.779  0.2278 -0.2680  0.0197
23275W        W24139  16.465  27.112  14.209 -0.0708  0.1155 -0.2099
23276W        W24140  13.967  25.953  15.287  0.3194 -0.2746  0.0162
23277W        W24141  17.180  23.808  15.684 -0.3116  0.1681  0.1124
23278W        W24142  17.054  22.977  10.139 -0.4362 -0.1411  0.0810
23279W        W24143  15.956  25.971  14.404  0.2407 -0.0960  0.0647
23280W        W24144  16.903  27.025  14.374 -0.1118 -0.0917  0.5166
23281W        W24145  16.999  25.139   9.199  0.1303 -0.0517 -0.4487
23282W        W24146  15.517  28.638  18.724 -0.0370  0.0313  0.0450
23283W        W24147  15.493  26.179  18.717  0.1481 -0.0074  0.1474
23284W        W24148  20.683  23.730  18.396  0.0062 -0.3356 -0.2267
23285W        W24149  19.392  23.639  17.031 -0.1538 -0.1608 -0.1276
23286W        W24150  15.701  23.478  14.827 -0.1620  0.0474 -0.3363
23287W        W24151  17.283  23.404  16.446  0.1420  0.0185  0.3041
23288W        W24152  14.097  24.149  17.614 -0.0362  0.3142  0.0235
23289W        W24153  19.023  23.843  15.136 -0.0310  0.2294  0.0146
23290W        W24154  15.833  28.196  18.608 -0.0663 -0.1045  0.0012
23291W        W24155  14.851  23.402  16.724  0.1340 -0.1364  0.2744
23292W        W24156  15.633  21.407  18.867 -0.0264  0.0203 -0.2977
23293W        W24157  18.750  18.875  15.347  0.0854  0.0358 -0.1375
23294W        W24158  19.885  20.744  15.477 -0.0856 -0.0139  0.0289
23295W        W24159  18.171  24.070  19.350  0.0585 -0.1325 -0.2167
23296W        W24160  14.166  22.946  17.219  0.0474  0.4189  0.1551
23297W        W24161  14.393  22.441  20.020  0.1018  0.5284  0.0755
23298W        W24162  19.055  23.701  15.947 -0.0815 -0.2097  0.0947
23299W        W24163  15.865  21.501  17.627 -0.0851 -0.1223  0.1841
23300W        W24164  14.895  21.616  16.988 -0.2775  0.0695 -0.3509
23301W        W24165  18.047  22.858  17.643 -0.1568 -0.1255 -0.0233
23302W        W24166  15.384  26.912  17.928  0.2584  0.1604 -0.0685
23303W        W24167  18.786  22.800  17.006 -0.3537 -0.1558  0.0408
23304W        W24168  14.915  25.584  17.272  0.0004 -0.1756  0.1870
23305W        W24169  14.900  26.463  16.486 -0.0491  0.0173  0.0954
23306W        W24170  14.104  26.792  18.075  0.1687  0.0313  0.0586
23307W        W24171  20.518  21.892  18.750  0.0077  0.0464  0.0389
23308W        W24172  17.847  22.007  17.619 -0.2315 -0.2337 -0.0766
23309W        W24173  16.499  24.756  16.504  0.0035  0.1325 -0.0934
23310W        W24174  20.667  23.183  19.340  0.0290 -0.0406  0.3152
23311W        W24175  16.149  23.466  16.277 -0.2470 -0.0997 -0.3896
23312W        W24176  16.307  23.060  14.207  0.0309 -0.0677  0.0494
23313W        W24177  16.841  25.826  18.016  0.1998  0.1529 -0.2181
23314W        W24178  17.202  23.281  19.748 -0.2834 -0.1344  0.1342
23315W        W24179  16.810  23.172  17.030  0.0333 -0.2828 -0.2034
23316W        W24180  14.491  25.156  19.809  0.0099  0.3606  0.0922
23317W        W24181  17.068  24.532  18.725  0.3269  0.3096 -0.1573
23318W        W24182  14.256  19.226  14.732 -0.1804 -0.2420 -0.1957
23319W        W24183  16.138  24.140  18.210  0.0575 -0.0574  0.0704
23320W        W24184  17.632  22.910  15.901 -0.2689  0.0015 -0.0616
23321W        W24185  16.416  22.108  15.814  0.0838 -0.1018 -0.0566
23322W        W24186  15.316  26.476  13.475  0.2776  0.1905 -0.0265
23323W        W24187  19.049  23.174  16.829  0.1504 -0.0694  0.2880
23324W        W24188  15.466  23.970  17.187  0.0477 -0.2407 -0.0733
23325W        W24189  16.166  22.964  17.063 -0.0263  0.2121 -0.2400
23326W        W24190  16.518  25.384  18.419  0.0005  0.3123 -0.1912
23327W        W24191  15.030  25.568  16.159  0.1243  0.0546  0.0164
23328W        W24192  14.848  20.393  16.782 -0.2779  0.4521 -0.1154
23329W        W24193  18.507  21.129  18.534 -0.1438 -0.0145  0.0984
23330W        W24194  19.614  21.453  17.471 -0.0920 -0.0963  0.0420
23331W        W24195  18.678  24.022  15.534 -0.0087 -0.3157  0.2668
23332W        W24196  18.057  23.504  18.550 -0.1001  0.3573 -0.2308
23333W        W24197  17.088  21.853  18.380  0.1442  0.3464 -0.1013
23334W        W24198  18.991  22.388  17.294 -0.1281 -0.2753 -0.2653
23335W        W24199  18.506  22.452  17.291  0.1162 -0.3182 -0.0902
23336W        W24200  16.409  19.910  17.136 -0.0773  0.0621 -0.0659
23337W        W24201  16.288  24.229  14.511  0.0073 -0.0151  0.1480
23338W        W24202  16.734  23.895  15.924 -0.1483 -0.0633 -0.0627
23339W        W24203  20.701  22.173  14.642 -0.1498 -0.1033 -0.2258
23340W        W24204  13.455  24.792  15.884  0.2980  0.1543  0.0471
23341W        W24205  19.162  25.529  15.023  0.3401  0.3507 -0.0320
23342W        W24206  21.824  24.394  17.086  0.0230  0.0194 -0.1266
23343W        W24207  16.645  23.916  18.112 -0.0458 -0.2525 -0.0115
23344W        W24208  17.607  24.929  20.447 -0.2130 -0.0449  0.2738
23345W        W24209  16.334  23.511  15.692 -0.0783  0.0263 -0.1238
23346W        W24210  14.639  22.137  18.902  0.0120 -0.1342 -0.2107
23347W        W24211  17.096  22.501  17.105 -0.2463  0.1239  0.2024
23348W        W24212  15.666  24.651  15.161  0.3150  0.0220 -0.0776
23349W        W24213  15.025  25.296  14.626 -0.2871 -0.0617  0.0797
23350W        W24214  14.624  25.248  17.569  0.0722  0.4583  0.3298
23351W        W24215  18.149  25.324  17.845 -0.3933  0.1432 -0.2207
23352W        W24216  16.915  26.807  20.117  0.0264  0.1805  0.0441
23353W        W24217  17.647  21.094  19.053 -0.1339  0.1149 -0.0174
23354W        W24218  17.472  29.131  13.718  0.0530 -0.2866  0.0034
23355W        W24219  16.787  22.209  18.269 -0.2809 -0.0965  0.3018
23356W        W24220  18.750  26.572  14.596  0.0422 -0.4141  0.2666
23357W        W24221  17.157  24.930  17.641  0.1103 -0.1663 -0.2653
23358W        W24222  14.110  24.707  16.460 -0.4395  0.0703  0.0838
23359W        W24223  15.469  24.914  19.755 -0.1659  0.4271  0.1595
23360W        W24224  18.594  22.346  14.708  0.1433  0.3890  0.0357
23361W        W24225  16.903  24.531  15.888 -0.0843  0.0987  0.2016
23362W        W24226  14.686  25.736  18.814  0.1829  0.0657  0.5248
23363W        W24227  18.005  25.429  19.806 -0.1479 -0.0878 -0.0926
23364W        W24228  16.008  23.064  15.844 -0.1918  0.0452 -0.1021
23365W        W24229  15.922  22.566  14.944 -0.2709  0.0719 -0.0872
23366W        W24230  17.869  20.898  17.664 -0.0150 -0.0252 -0.0480
23367W        W24231  18.599  23.541  13.405 -0.1223 -0.0870  0.1665
23368W        W24232  19.664  22.995  19.303 -0.3067 -0.3358  0.0265
23369W        W24233  13.879  22.282  15.655  0.1521  0.0542  0.1347
23370W        W24234  16.645  23.699  19.021  0.0540 -0.0191 -0.1172
23371W        W24235  17.894  20.232  19.389  0.0886 -0.2051  0.1550
23372W        W24236  18.525  20.320  14.924 -0.3472 -0.3882  0.0809
23373W        W24237  19.141  23.123  19.727  0.2404 -0.1990 -0.0847
23374W        W24238  16.674  24.331  17.408 -0.2592  0.0416  0.2255
23375W        W24239  18.103  22.811  18.148  0.2061  0.0181  0.2394
23376W        W24240  15.634  19.676  19.014  0.1444 -0.2681  0.4511
23377W        W24241  16.592  23.228  15.986  0.0755  0.1758  0.1126
23378W        W24242  17.916  21.891  15.430  0.1184  0.1168  0.1059
23379W        W24243  16.081  27.350  20.499 -0.2300  0.2811 -0.1130
23380W        W24244  16.783  22.107  13.204  0.2852  0.0639  0.3903
23381W        W24245  14.984  22.916  16.714 -0.0915 -0.1988  0.0182
23382W        W24246  16.436  23.114  14.888  0.3247  0.1097  0.0334
23383W        W24247  15.286  23.416  17.014 -0.2591 -0.2628  0.1125
23384W        W24248  17.341  22.881  16.295 -0.1229 -0.0278  0.0221
23385W        W24249  20.098  24.384  15.907 -0.1130 -0.0584 -0.0549
23386W        W24250  18.232  22.889  15.540  0.0417  0.1882 -0.5235
23387W        W24251  18.238  23.725  15.532  0.0376  0.3079 -0.2185
23388W        W24252  17.358  26.220  15.560 -0.0081 -0.0898 -0.0677
23389W        W24253  17.002  22.050  17.810  0.0666 -0.2294 -0.0450
23390W        W24254  18.384  21.527  18.788 -0.0834 -0.1425 -0.0967
23391W        W24255  15.676  23.511  15.329 -0.2629  0.0118  0.1186
23392W        W24256  15.387  23.746  19.514 -0.1676 -0.0876  0.4247
23393W        W24257  17.859  22.187  16.304  0.0564 -0.3135 -0.0682
23394W        W24258  17.547  24.138  18.778  0.1051  0.2230 -0.2554
23395W        W24259  18.744  24.052  19.935 -0.0782 -0.1513 -0.0554
23396W        W24260  16.702  23.719  16.855 -0.3351  0.1924  0.0926
23397W        W24261  16.749  24.198  14.631  0.1130 -0.4407 -0.2430
23398W        W24262  17.227  23.314  19.207 -0.0709  0.0386 -0.1070
23399W        W24263  17.388  23.867  14.033  0.1766 -0.0391 -0.1729
23400W        W24264  16.565  22.285  16.323 -0.1150 -0.2835  0.2809
23401W        W24265  18.738  24.156  17.178  0.2904  0.1934 -0.2986
23402W        W24266  19.876  22.778  13.753 -0.0637 -0.1011 -0.0449
23403W        W24267  15.685  24.743  18.027  0.2258 -0.0415 -0.2837
23404W        W24268  18.406  25.828  16.559  0.0610  0.0231 -0.0001
23405W        W24269  14.367  22.950  17.939  0.0477  0.0731 -0.2332
23406W        W24270  14.337  21.140  19.653 -0.2247 -0.0218  0.0679
23407W        W24271  17.875  24.467  17.895 -0.1745  0.0800  0.0341
23408W        W24272  14.033  22.455  18.148  0.1155  0.1674 -0.0957
23409W        W24273  17.211  23.716  20.083 -0.0869 -0.0888 -0.1983
23410W        W24274  17.328  24.937  14.313  0.1256  0.0308  0.1149
23411W        W24275  16.631  27.088  15.076  0.0736 -0.3174  0.0784
23412W        W24276  20.834  22.114  19.167  0.0946 -0.0955 -0.1607
23413W        W24277  16.880  26.521  17.032 -0.1362 -0.1862  0.2087
23414W        W24278  17.323  23.834  18.085  0.2022 -0.0156  0.2191
23415W        W24279  19.083  22.041  15.337  0.3549 -0.0480 -0.1134
23416W        W24280  18.435  22.661  19.338 -0.0637 -0.0456 -0.1616
23417W        W24281  14.487  23.920  17.416 -0.0424 -0.1334 -0.3137
23418W        W24282  18.191  20.811  17.232 -0.1716  0.0106 -0.0540
23419W        W24283  16.850  23.246  18.898 -0.1981  0.0417 -0.2011
23420W        W24284  18.315  22.981  17.211  0.2247  0.0895 -0.0121
23421W        W24285  18.359  24.796  14.872  0.0610  0.1367  0.3573
23422W        W24286  17.238  24.040  14.569  0.0183  0.0706 -0.0110
23423W        W24287  18.261  22.035  15.964 -0.0240  0.0837  0.1344
23424W        W24288  14.015  22.751  15.929 -0.0214 -0.0228  0.1194
23425W        W24289  14.727  23.115  16.221 -0.2632  0.0115 -0.1231
23426W        W24290  16.810  24.924  18.396  0.0161 -0.3869 -0.0811
23427W        W24291  14.728  22.065  13.032 -0.3690 -0.0691  0.3219
23428W        W24292  16.926  21.645  15.107  0.1916  0.1960  0.2949
23429W        W24293  17.497  23.383  15.717  0.1897  0.1065 -0.1007
23430W        W24294  14.323  24.627  17.465  0.1740  0.3940  0.2377
23431W        W24295  16.107  22.237  17.000 -0.1339  0.0532  0.1772
23432W        W24296  18.301  25.078  16.679 -0.0191 -0.2490 -0.2595
23433W        W24297  17.511  26.660  15.901 -0.0650 -0.1444 -0.1613
23434W        W24298  17.506  24.703  18.784 -0.2595 -0.1737  0.0439
23435W        W24299  16.688  22.973  17.712 -0.0303  0.1683 -0.1617
23436W        W24300  17.333  22.980  18.765 -0.1813  0.1892  0.2917
23437W        W24301  18.750  23.240  17.249  0.1258  0.0366  0.0788
23438W        W24302  15.360  26.028  16.631 -0.1920  0.2255 -0.3236
23439W        W24303  19.830  24.841  15.978 -0.3064 -0.0345  0.2308
23440W        W24304  19.437  21.721  14.447  0.2022 -0.0142 -0.1168
23441W        W24305  15.897  21.316  16.553 -0.0893  0.1098  0.2426
23442W        W24306  17.751  20.735  18.104  0.1059  0.1402 -0.2633
23443W        W24307  16.598  25.827  18.792 -0.0719 -0.0168  0.0894
23444W        W24308  17.264  26.154  17.853 -0.1639  0.0847  0.1727
23445W        W24309  16.251  23.800  17.799 -0.4098 -0.1243  0.0855
23446W        W24310  16.437  23.236  16.662 -0.0195 -0.1018  0.0380
23447W        W24311  16.779  23.454  14.970  0.2351  0.0379  0.3530
23448W        W24312  15.271  23.773  20.336 -0.2116  0.2914  0.1906
23449W        W24313  13.564  25.819  17.097  0.0623  0.0644  0.0149
23450W        W24314  17.371  23.708  19.561 -0.1978  0.0890 -0.0625
23451W        W24315  16.431  22.826  13.253 -0.1001 -0.1541 -0.1085
23452W        W24316  17.221  23.512  18.601 -0.0846  0.2702  0.3142
23453W        W24317  15.857  23.701  19.157 -0.0136  0.1060 -0.1977
23454W        W24318  17.412  22.259  17.471 -0.0218 -0.0045 -0.0488
23455W        W24319  17.139  22.475  14.590 -0.0843 -0.0739  0.0522
23456W        W24320  18.308  23.375  16.105  0.0820 -0.0358  0.0940
23457W        W24321  18.187  23.978  16.091 -0.0857 -0.0884 -0.4548
23458W        W24322  14.405  27.345  17.220  0.3389  0.0166  0.2326
23459W        W24323  16.194  25.148  19.226  0.1480  0.0814 -0.1135
23460W        W24324  15.391  24.304  14.719 -0.1026  0.0345  0.2815
23461W        W24325  16.854  23.201  16.412 -0.1270  0.0763  0.1091
23462W        W24326  16.218  23.488  15.173  0.0454  0.3397 -0.1119
23463W        W24327  17.614  24.622  16.164  0.3051  0.1480  0.1770
23464W        W24328  18.094  20.306  18.390 -0.0466  0.0590  0.1081
23465W        W24329  16.383  24.838  12.322  0.3001 -0.0530 -0.0986
23466W        W24330  15.180  22.619  16.247 -0.1527 -0.1436 -0.0666
23467W        W24331  16.582  24.710  18.800 -0.3500 -0.0376 -0.1756
23468W        W24332  19.146  23.240  15.653  0.0547  0.0867  0.3352
23469W        W24333  14.113  24.722  17.033  0.0293  0.1478  0.2296
23470W        W24334  13.775  24.221  19.317 -0.0303  0.1967  0.0179
23471W        W24335  16.983  24.246  18.114 -0.1264 -0.2308 -0.2246
23472W        W24336  15.803  26.706  14.356  0.1388 -0.2927 -0.2818
23473W        W24337  15.710  25.135  15.164 -0.0335  0.0674  0.0078
23474W        W24338  15.912  24.352  17.782 -0.1571 -0.1916  0.1814
23475W        W24339  13.360  21.939  20.065  0.1483  0.1524 -0.1023
23476W        W24340  17.352  21.992  13.066  0.3750 -0.0098 -0.1617
23477W        W24341  15.229  20.899  14.106 -0.0752 -0.0821  0.0439
23478W        W24342  17.249  23.456  13.658  0.0283  0.2605 -0.2330
23479W        W24343  16.524  22.144  14.432 -0.1303 -0.2978  0.1347
23480W        W24344  15.193  24.459  15.183 -0.0652  0.0914  0.2460
23481W        W24345  17.774  22.114  13.463  0.0235  0.1498  0.3349
23482W        W24346  15.467  23.029  18.588 -0.1002  0.2213  0.0661
23483W        W24347  17.184  20.890  18.446 -0.1161  0.3462 -0.3165
23484W        W24348  18.728  19.950  16.726 -0.0011  0.0139  0.0835
23485W        W24349  15.597  20.947  11.734  0.0441 -0.0982  0.2253
23486W        W24350  17.075  24.001  18.526 -0.0499  0.3242 -0.1587
23487W        W24351  14.596  22.216  15.223 -0.1250  0.0566 -0.0936
23488W        W24352  14.220  26.466  17.197  0.1822  0.0021  0.0039
23489W        W24353  16.740  23.620  18.512 -0.0078  0.3065  0.2696
23490W        W24354  17.010  23.913  17.736 -0.0382  0.1313 -0.0958
23491W        W24355  17.404  24.343  16.612  0.0102 -0.2761  0.0278
23492W        W24356  15.039  26.000  17.447 -0.0054  0.0864  0.0718
23493W        W24357  16.268  25.687  17.227 -0.1112 -0.1302 -0.0156
23494W        W24358  14.087  23.924  18.968  0.1074 -0.1583  0.0340
23495W        W24359  17.482  22.017  17.982  0.0380 -0.1984  0.1511
23496W        W24360  18.237  24.969  16.122  0.0622 -0.0468  0.3187
23497W        W24361  18.233  24.460  16.050 -0.2978 -0.0950  0.0959
23498W        W24362  18.790  23.370  14.894  0.3527  0.0502  0.0134
23499W        W24363  19.491  27.821  14.443  0.0692  0.1866 -0.0862
23500W        W24364  16.067  19.982  19.223 -0.1161 -0.0907 -0.3547
23501W        W24365  15.965  25.551  17.638  0.2570 -0.1094 -0.0272
23502W        W24366  19.364  22.478  18.166  0.0767 -0.3279  0.1844
23503W        W24367  17.321  21.895  15.498 -0.1616  0.3174 -0.2959
23504W        W24368  16.587  22.344  18.878 -0.1613 -0.0585  0.1549
23505W        W24369  15.430  21.775  11.903  0.0631 -0.0741  0.0271
23506W        W24370  16.161  23.499  17.064  0.0928 -0.0851  0.4001
23507W        W24371  12.925  20.893  14.144 -0.2275 -0.1086 -0.1893
23508W        W24372  16.794  23.758  20.404 -0.0177 -0.0156 -0.0386
23509W        W24373  16.946  20.284  16.642 -0.0542 -0.1631 -0.1803
23510W        W24374  16.310  26.128  14.076  0.3338  0.1251 -0.1371
23511W        W24375  18.044  22.532  18.878 -0.0915  0.2184 -0.0098
23512W        W24376  15.212  21.355  17.369  0.3114 -0.0140  0.0616
23513W        W24377  19.727  21.132  18.988 -0.0717  0.3033  0.0849
23514W        W24378  14.667  24.338  17.077  0.2467  0.2103  0.1525
23515W        W24379  18.000  22.915  13.400  0.0324 -0.2075 -0.4182
23516W        W24380  15.576  22.163  15.513  0.1754 -0.0126 -0.1198
23517W        W24381  17.351  22.571  16.673 -0.5111  0.1215 -0.1134
23518W        W24382  19.542  26.731  15.758  0.1223  0.0136 -0.1548
23519W        W24383  16.432  20.426  16.671  0.0172  0.0716 -0.1982
23520W        W24384  14.911  25.345  17.978 -0.1687  0.0274 -0.0425
23521W        W24385  16.041  25.464  14.992 -0.1673 -0.2575  0.0069
23522W        W24386  17.792  28.493  13.946  0.1681  0.0137  0.2469
23523W        W24387  14.667  25.742  17.722 -0.0383  0.0021  0.1050
23524W        W24388  16.829  22.863  15.249  0.0753  0.1197 -0.0694
23525W        W24389  13.686  19.028  15.006 -0.0341 -0.1091 -0.1003
23526W        W24390  14.031  23.084  15.502 -0.2685  0.0424 -0.1578
23527W        W24391  16.441  24.315  15.561 -0.1963 -0.2282 -0.1508
23528W        W24392  21.452  22.660  16.361  0.1695 -0.0173  0.2717
23529W        W24393  15.190  26.537  18.540  0.2197  0.1906 -0.3463
23530W        W24394  19.724  24.958  15.089  0.0120 -0.1893  0.1096
23531W        W24395  14.970  18.113  14.012 -0.2712  0.0677 -0.1173
23532W        W24396  16.157  24.426  18.708  0.3967  0.0821  0.0858
23533W        W24397  15.579  25.113  16.252 -0.1519  0.3439  0.1337
23534W        W24398  17.337  25.212  18.052 -0.1311  0.1886 -0.1158
23535W        W24399  20.142  25.571  20.646 -0.3084 -0.3597  0.4070
23536W        W24400  13.820  25.487  13.408  0.1205  0.2786 -0.2569
23537W        W24401  19.220  25.071  15.868 -0.1992 -0.2078 -0.0399
23538W        W24402  17.974  22.059  14.019 -0.0373 -0.0551 -0.1956
23539W        W24403  14.276  21.842  17.618 -0.0176 -0.0499 -0.2921
23540W        W24404  17.029  23.474  16.021  0.0365  0.2469 -0.0863
23541W        W24405  18.783  23.157  16.358 -0.0683 -0.1868  0.1331
23542W        W24406  13.863  24.202  16.175 -0.1659  0.2688  0.1286
23543W        W24407  15.246  21.023  17.800  0.0016  0.0108  0.3002
23544W        W24408  15.745  26.867  19.147  0.1475 -0.2236 -0.0752
23545W        W24409  15.042  23.105  17.715  0.0341 -0.2541 -0.0079
23546W        W24410  14.933  25.715  16.690  0.0026  0.0770 -0.0124
23547W        W24411  16.187  26.326  18.060  0.1027  0.1319 -0.0130
23548W        W24412  15.513  22.737  15.275  0.0498  0.0695 -0.1106
23549W        W24413  19.043  25.503  16.047  0.1886  0.0931  0.0334
23550W        W24414  13.614  22.927  20.076  0.2730  0.1222 -0.2548
23551W        W24415  18.878  20.742  13.958 -0.0422 -0.3138  0.1636
23552W        W24416  20.106  24.616  14.247  0.3412 -0.1138 -0.1907
23553W        W24417  17.527  22.879  18.144  0.1214 -0.0537  0.0365
23554W        W24418  15.962  23.946  18.699  0.2731  0.2912 -0.1417
23555W        W24419  14.612  23.051  19.042  0.0118  0.1045 -0.2082
23556W        W24420  16.361  25.873  18.333 -0.0613  0.0595 -0.1150
23557W        W24421  18.519  22.773  20.209  0.1790  0.0850 -0.2640
23558W        W24422  14.715  22.041  18.408  0.2268  0.1748 -0.1361
23559W        W24423  13.679  24.340  17.296 -0.0453 -0.2694  0.1994
23560W        W24424  15.988  22.524  15.475 -0.2076  0.0039 -0.2815
23561W        W24425  12.401  22.622  18.913  0.0162 -0.2331  0.1338
23562W        W24426  16.226  22.160  14.906 -0.2805  0.0616 -0.2164
23563W        W24427  15.867  23.093  15.171  0.1974  0.2342 -0.2975
23564W        W24428  15.674  23.953  15.650 -0.1594 -0.0296 -0.3150
23565W        W24429  12.799  26.480  19.448  0.0300 -0.3730 -0.2858
23566W        W24430  18.142  21.578  13.742 -0.2239 -0.0075 -0.0729
23567W        W24431  20.453  20.758  19.301  0.1777  0.2829 -0.0642
23568W        W24432  13.905  24.297  18.092  0.2869  0.0527  0.1190
23569W        W24433  17.563  26.100  17.413 -0.1585 -0.1679 -0.0078
23570W        W24434  19.263  21.055  12.971 -0.1141 -0.2880 -0.2765
23571W        W24435  18.553  25.477  18.121 -0.3561 -0.1941  0.1561
23572W        W24436  16.603  23.819  17.363  0.0087  0.0419  0.3092
23573W        W24437  17.951  22.533  15.866  0.1274  0.1952  0.0625
23574W        W24438  17.738  21.251  15.989  0.0925 -0.4497 -0.3460
23575W        W24439  14.929  22.358  15.661 -0.0989 -0.0054 -0.0435
23576W        W24440  15.539  25.194  13.775  0.3938  0.1265 -0.0587
23577W        W24441  15.320  23.740  16.624  0.0318 -0.0908 -0.1612
23578W        W24442  14.303  22.376  15.980  0.1812 -0.0357 -0.1876
23579W        W24443  18.374  25.868  13.802  0.0306 -0.1477  0.0614
23580W        W24444  17.323  20.708  17.466 -0.0478 -0.1521 -0.1877
23581W        W24445  14.872  24.761  17.493  0.0069  0.1259  0.0330
23582W        W24446  17.019  24.723  17.216 -0.1837  0.2390  0.0538
23583W        W24447  14.913  22.994  19.399 -0.0600 -0.3058  0.0228
23584W        W24448  17.228  24.817  16.742 -0.1974  0.1538  0.1954
23585W        W24449  20.968  24.477  14.669  0.0682 -0.1769  0.0149
23586W        W24450  18.602  25.210  14.448 -0.0516  0.1768 -0.0511
23587W        W24451  16.440  25.087  21.295  0.2827  0.0708  0.1511
23588W        W24452  19.216  24.247  17.887  0.0781  0.2572  0.1813
23589W        W24453  18.544  24.385  14.550 -0.0248  0.0300  0.0031
23590W        W24454  15.968  21.679  14.833  0.2559 -0.2888  0.0132
23591W        W24455  16.737  24.667  17.872 -0.1096 -0.1153 -0.0772
23592W        W24456  17.754  21.575  12.941  0.1526 -0.1501  0.2137
23593W        W24457  19.303  24.337  18.445 -0.1244 -0.0671  0.1520
23594W        W24458  15.322  24.581  18.383  0.2563 -0.0610  0.0582
23595W        W24459  17.819  22.659  16.388  0.0915 -0.2460 -0.2532
23596W        W24460  13.394  25.582  17.890 -0.0398 -0.0811 -0.1713
23597W        W24461  15.913  24.607  19.522 -0.0922 -0.1930 -0.1219
23598W        W24462  16.250  23.814  16.637  0.2737 -0.0066  0.0811
23599W        W24463  15.681  23.302  16.198  0.2454  0.0370 -0.0136
23600W        W24464  17.786  23.895  18.388  0.1798 -0.3776 -0.0670
23601W        W24465  15.951  25.195  18.053 -0.2353  0.1168 -0.0942
23602W        W24466  14.148  25.833  17.959  0.1060 -0.2273  0.1501
23603W        W24467  15.400  24.384  14.173  0.1879 -0.2161  0.0052
23604W        W24468  14.154  23.344  19.213 -0.1311  0.3006 -0.0717
23605W        W24469  14.391  24.446  15.970  0.1076 -0.0433 -0.1799
23606W        W24470  13.220  23.641  16.057 -0.0162 -0.0131  0.0124
23607W        W24471  15.621  28.470  15.883 -0.1389  0.1971 -0.1475
23608W        W24472  18.372  20.529  18.058 -0.2017 -0.2487 -0.0943
23609W        W24473  14.965  24.645  13.411 -0.0530  0.2483 -0.0213
23610W        W24474  17.204  21.321  15.358  0.2040 -0.1017  0.0061
23611W        W24475  16.971  24.187  14.187  0.0732  0.1644  0.0591
23612W        W24476  16.606  22.393  17.076  0.0512 -0.1196 -0.1157
23613W        W24477  19.515  19.142  14.453  0.0221  0.2096  0.2464
23614W        W24478  18.865  23.460  18.280  0.1772 -0.0459 -0.0152
23615W        W24479  17.308  24.887  14.867  0.2323  0.1958 -0.2879
23616W        W24480  19.254  24.847  18.341 -0.1749  0.3216  0.3808
23617W        W24481  17.089  25.013  18.833  0.0094  0.3491  0.2562
23618W        W24482  16.777  27.598  15.125  0.0224  0.1572 -0.3127
23619W        W24483  17.518  25.705  14.217 -0.0247 -0.0717  0.1267
23620W        W24484  17.656  24.645  16.922  0.2019 -0.2476  0.0170
23621W        W24485  16.937  20.051  17.765 -0.0793  0.2294 -0.1253
23622W        W24486  16.416  23.239  17.403 -0.1135 -0.2866  0.0457
23623W        W24487  15.379  23.490  13.983 -0.1744 -0.0206 -0.2810
23624W        W24488  14.783  22.434  16.614 -0.0640 -0.2844  0.1234
23625W        W24489  17.110  24.392  17.660  0.0773  0.1382  0.1927
23626W        W24490  15.202  24.093  18.457  0.3448  0.2546  0.0082
23627W        W24491  17.035  26.515  18.363 -0.0617  0.2571  0.4341
23628W        W24492  18.690  26.395  15.098 -0.1053 -0.1469  0.0220
23629W        W24493  12.577  19.828  17.750  0.3929 -0.0229 -0.0820
23630W        W24494  16.842  25.033  16.298 -0.2312  0.0234 -0.0899
23631W        W24495  16.102  23.214  12.630 -0.0409  0.1738 -0.2655
23632W        W24496  16.090  23.631  18.247 -0.0596 -0.0146  0.0767
23633W        W24497  16.633  21.674  15.978 -0.1320 -0.0417 -0.0745
23634W        W24498  17.659  25.245  17.654 -0.1010  0.0552 -0.0679
23635W        W24499  17.938  22.948  20.025  0.3244 -0.0099 -0.0245
23636W        W24500  16.416  24.392  16.059 -0.2445 -0.2592  0.0499
23637W        W24501  19.644  22.891  15.892 -0.1892  0.3567  0.2826
23638W        W24502  14.811  26.249  17.837  0.0922 -0.0125  0.1669
23639W        W24503  18.527  23.083  19.737 -0.2069  0.0834 -0.0748
23640W        W24504  15.060  23.555  18.631 -0.0870  0.1236 -0.0403
23641W        W24505  15.736  22.029  12.813  0.1547 -0.0866  0.0931
23642W        W24506  17.072  23.892  16.555 -0.2654  0.1771  0.1700
23643W        W24507  15.748  22.639  18.513  0.0941  0.0054 -0.1632
23644W        W24508  16.549  22.863  16.317  0.1357  0.2255  0.0797
23645W        W24509  16.596  22.646  15.876 -0.1272  0.1732 -0.2492
23646W        W24510  16.786  24.316  16.869  0.1785  0.0542  0.0303
23647W        W24511  18.119  23.370  17.542  0.0640 -0.1449  0.3910
23648W        W24512  15.413  25.645  17.503  0.1591 -0.2106 -0.2822
23649W        W24513  18.881  24.794  19.219 -0.0313 -0.0375  0.1998
23650W        W24514  16.829  21.819  15.547  0.0740 -0.0412 -0.0551
23651W        W24515  20.192  23.093  19.178 -0.0263 -0.0366 -0.0432
23652W        W24516  14.345  23.468  16.457  0.0346  0.0340  0.0642
23653W        W24517  20.987  22.768  17.304 -0.0684  0.1631 -0.1085
23654W        W24518  17.208  24.147  16.143  0.2071 -0.0568  0.3555
23655W        W24519  15.535  24.539  20.601  0.0766 -0.1174 -0.0028
23656W        W24520  17.723  23.750  17.278 -0.0408  0.2488 -0.1279
23657W        W24521  14.559  20.526  17.737  0.0138  0.0016 -0.2715
23658W        W24522  15.983  21.945  15.295  0.0496  0.3988  0.0421
23659W        W24523  19.914  23.384  17.313  0.0738  0.0811 -0.1156
23660W        W24524  14.988  22.499  18.988 -0.0892  0.2622  0.3674
23661W        W24525  14.090  24.799  18.817  0.0446  0.1718 -0.0767
23662W        W24526  16.743  24.215  19.084 -0.0432  0.0389  0.0943
23663W        W24527  15.784  24.212  16.079  0.2455 -0.0022 -0.0590
23664W        W24528  15.738  23.554  17.249  0.1697 -0.0188  0.0702
23665W        W24529  19.050  23.696  16.526  0.0090 -0.0116  0.0244
23666W        W24530  17.610  25.572  17.180  0.3280  0.2611 -0.2016
23667W        W24531  13.751  23.232  19.508 -0.3060 -0.0374 -0.0334
23668W        W24532  17.828  25.738  17.629  0.4393  0.0931 -0.0312
23669W        W24533  15.625  27.463  17.810  0.0824 -0.0045  0.2335
23670W        W24534  16.881  25.817  16.588  0.0089 -0.1988 -0.0570
23671W        W24535  16.602  24.117  16.424 -0.1419  0.1274 -0.0031
23672W        W24536  16.624  26.779  19.437 -0.2842  0.2495  0.0835
23673W        W24537  14.995  24.708  16.744  0.1962  0.0581 -0.0658
23674W        W24538  17.241  23.153  14.951 -0.0244  0.1807  0.0737
23675W        W24539  18.814  23.126  18.914  0.0364  0.0493 -0.0038
23676W        W24540  16.249  26.633  19.148 -0.1180 -0.1031 -0.0771
23677W        W24541  16.551  22.571  17.995 -0.0364  0.3056  0.0343
23678W        W24542  16.908  23.741  13.813  0.2530  0.3463 -0.1036
23679W        W24543  17.544  24.722  17.391  0.3431  0.1820  0.2379
23680W        W24544  18.129  23.354  18.067 -0.3739  0.0798  0.0130
23681W        W24545  13.874  23.109  17.687  0.0876 -0.4516  0.2211
23682W        W24546  15.860  22.780  19.421 -0.1015  0.1647  0.0770
23683W        W24547  16.898  24.565  21.750  0.1187  0.2456  0.2402
23684W        W24548  19.175  21.789  18.619 -0.1333  0.0514 -0.0392
23685W        W24549  20.057  25.882  20.201  0.1611 -0.0364  0.0686
23686W        W24550  15.449  23.810  18.834  0.0845 -0.1166 -0.0928
23687W        W24551  14.754  22.554  18.573  0.1821 -0.1106  0.0972
23688W        W24552  16.826  24.106  21.490  0.0121 -0.1485 -0.1348
23689W        W24553  15.689  20.845  22.057 -0.0821 -0.3760  0.0621
23690W        W24554  19.917  24.530  20.854 -0.0331 -0.3880  0.0818
23691W        W24555  14.408  21.389  18.849 -0.3480  0.2795 -0.0677
23692W        W24556  16.484  20.934  22.508 -0.1087  0.0868  0.0057
23693W        W24557  16.086  22.681  19.876  0.1552 -0.1541  0.2419
23694W        W24558  18.857  21.421  18.802  0.0600 -0.0306 -0.0176
23695W        W24559  20.942  23.987  20.208 -0.0954 -0.1170  0.0334
23696W        W24560  16.652  24.510  21.307 -0.0765  0.0552  0.0674
23697W        W24561  14.359  22.329  21.784 -0.2096 -0.0988  0.3000
23698W        W24562  16.730  25.901  20.276  0.0566 -0.2059  0.1209
23699W        W24563  15.382  22.812  18.128  0.2548  0.1382 -0.0053
23700W        W24564  13.782  23.946  23.060 -0.1660  0.1088  0.1179
23701W        W24565  17.544  21.608  18.398 -0.0924 -0.1638 -0.1655
23702W        W24566  19.369  23.319  20.172  0.1938  0.1833 -0.1806
23703W        W24567  15.026  20.577  21.472  0.0696 -0.1308  0.1747
23704W        W24568  17.425  27.067  20.438  0.1330  0.0250  0.0274
23705W        W24569  17.953  25.155  21.518 -0.2640  0.1504  0.1059
23706W        W24570  14.278  25.641  18.500  0.2809 -0.0473  0.1868
23707W        W24571  13.810  21.917  23.593 -0.3933  0.0467  0.0567
23708W        W24572  21.264  22.841  22.217  0.1806  0.0539 -0.0461
23709W        W24573  15.620  25.410  20.785  0.2536  0.2190 -0.4653
23710W        W24574  15.458  23.037  19.613 -0.1105  0.0237 -0.0155
23711W        W24575  14.788  23.256  20.903  0.2174 -0.2512  0.2244
23712W        W24576  15.803  24.504  21.010  0.0787  0.0199  0.2167
23713W        W24577  15.391  23.598  21.645 -0.1230  0.1097 -0.1205
23714W        W24578  17.461  23.060  24.077 -0.1341 -0.1210 -0.0655
23715W        W24579  16.571  21.414  19.305  0.2195 -0.0422  0.2076
23716W        W24580  14.995  24.208  21.656 -0.1555  0.1501 -0.2835
23717W        W24581  15.975  23.780  22.490  0.1010  0.0647 -0.2857
23718W        W24582  15.700  19.916  22.004  0.2287  0.3333  0.0460
23719W        W24583  14.635  24.227  19.819 -0.1928 -0.1430  0.0578
23720W        W24584  15.908  23.438  21.550  0.0005  0.1494  0.0130
23721W        W24585  14.267  20.614  18.199  0.0814 -0.3984  0.0242
23722W        W24586  18.400  21.906  20.705  0.1014  0.3929  0.0056
23723W        W24587  16.702  22.392  20.947 -0.1019  0.2069  0.0448
23724W        W24588  15.477  24.293  19.691 -0.0412  0.2625 -0.2671
23725W        W24589  17.976  23.808  17.753 -0.0257 -0.2397 -0.1819
23726W        W24590  15.442  25.554  19.238 -0.0791  0.2785  0.1170
23727W        W24591  15.983  27.423  21.823  0.1126  0.1111 -0.2133
23728W        W24592  14.081  22.974  21.035 -0.1106  0.1557  0.1447
23729W        W24593  19.277  21.526  20.598  0.1207  0.1921  0.0585
23730W        W24594  16.263  23.635  19.653  0.4537  0.1252 -0.1504
23731W        W24595  16.291  24.459  19.950 -0.1799  0.2971  0.0949
23732W        W24596  15.455  25.278  23.335 -0.0006  0.0739 -0.2013
23733W        W24597  16.091  22.094  21.673  0.2090  0.1104 -0.0178
23734W        W24598  15.159  23.374  23.440  0.0894  0.2207  0.1465
23735W        W24599  18.803  21.572  18.219  0.4184 -0.3944 -0.2750
23736W        W24600  17.720  22.069  19.014 -0.1396  0.2213 -0.0470
23737W        W24601  16.865  27.201  18.687  0.2137 -0.1276  0.1931
23738W        W24602  14.412  21.577  17.153  0.1110 -0.0280 -0.3426
23739W        W24603  19.019  23.524  19.555  0.2147  0.2524  0.0880
23740W        W24604  13.283  25.877  21.124  0.5123 -0.0492 -0.0491
23741W        W24605  14.208  25.506  19.870  0.0247 -0.3748  0.1392
23742W        W24606  20.507  19.484  18.840  0.0053 -0.1804  0.1231
23743W        W24607  15.347  22.793  22.026 -0.1012  0.1184 -0.1405
23744W        W24608  15.962  24.145  22.107  0.0896 -0.0024 -0.2709
23745W        W24609  12.863  24.594  20.259 -0.1027  0.2552 -0.1819
23746W        W24610  17.257  22.392  18.335  0.1398 -0.0775  0.3183
23747W        W24611  15.371  21.803  19.056 -0.0806  0.1113 -0.1889
23748W        W24612  14.626  24.582  15.247  0.3010 -0.0590 -0.1681
23749W        W24613  16.304  24.011  19.127 -0.5005 -0.1672  0.0660
23750W        W24614  13.250  24.527  20.712 -0.1431  0.2094  0.1367
23751W        W24615  13.678  25.995  19.139  0.0943  0.2619 -0.1442
23752W        W24616  15.511  25.010  21.623 -0.3640 -0.0182  0.0241
23753W        W24617  16.321  22.319  17.498  0.2942 -0.0558 -0.0472
23754W        W24618  18.351  25.561  20.565  0.1109 -0.2657  0.0199
23755W        W24619  20.187  26.528  21.151  0.4889  0.1462  0.0540
23756W        W24620  18.358  25.044  20.224 -0.0859  0.0600  0.0722
23757W        W24621  15.476  22.842  20.742  0.0529  0.0375  0.1198
23758W        W24622  14.460  26.425  16.289  0.1450  0.1313  0.0741
23759W        W24623  13.411  21.626  20.798  0.1351 -0.1615 -0.1428
23760W        W24624  15.533  24.186  20.242  0.1829  0.3895  0.2621
23761W        W24625  14.070  25.409  20.883  0.0027  0.1794 -0.0410
23762W        W24626  14.922  21.798  20.109 -0.1097  0.0445 -0.2134
23763W        W24627  12.970  23.517  23.391 -0.2045 -0.2322 -0.0531
23764W        W24628  14.589  22.398  21.298 -0.0250  0.1229 -0.1131
23765W        W24629  15.407  22.267  20.429  0.1291  0.0164 -0.0015
23766W        W24630  16.214  20.866  21.960 -0.0845  0.0520  0.1573
23767W        W24631  13.470  19.434  20.440  0.1095  0.1871 -0.0473
23768W        W24632  19.340  25.885  23.242  0.1080 -0.1930  0.1591
23769W        W24633  15.302  23.401  18.167  0.0348 -0.0077  0.2507
23770W        W24634  19.712  24.765  23.238 -0.0554 -0.0339 -0.1251
23771W        W24635  13.816  20.753  19.701  0.2669 -0.0539  0.2700
23772W        W24636  17.901  20.235  18.903 -0.0465 -0.0577  0.0705
23773W        W24637  15.769  27.578  20.090  0.2136  0.0105  0.3215
23774W        W24638  14.924  21.508  21.488 -0.1385 -0.1440 -0.1644
23775W        W24639  14.190  22.331  19.559  0.0145 -0.2844 -0.0158
23776W        W24640  16.297  19.388  21.526 -0.0069  0.1169 -0.0216
23777W        W24641  18.575  19.417  18.579 -0.1611 -0.1276 -0.0557
23778W        W24642  19.062  22.601  20.284  0.0432  0.0219 -0.1765
23779W        W24643  15.874  25.624  20.435 -0.0993  0.0460 -0.0892
23780W        W24644  16.830  22.988  19.302  0.1370 -0.1126 -0.0781
23781W        W24645  18.565  22.110  18.072 -0.3367 -0.1102  0.1600
23782W        W24646  19.486  23.565  19.777 -0.1122  0.0422  0.0126
23783W        W24647  12.590  26.359  20.528  0.3570  0.1756 -0.0405
23784W        W24648  15.927  20.186  18.185  0.1804 -0.1983 -0.1862
23785W        W24649  18.772  25.695  20.220  0.1107 -0.1453  0.2083
23786W        W24650  17.956  20.043  20.338  0.0212  0.1839 -0.0835
23787W        W24651  17.151  21.830  20.135 -0.2629 -0.0980  0.0534
23788W        W24652  16.088  25.201  20.348  0.3230 -0.1724 -0.1227
23789W        W24653  17.735  24.687  24.403  0.0271  0.0904  0.3028
23790W        W24654  19.472  21.186  20.951  0.0304 -0.1202 -0.1740
23791W        W24655  15.338  24.148  19.202 -0.4068 -0.0789  0.0821
23792W        W24656  12.041  24.077  21.028 -0.3046 -0.4044 -0.0773
23793W        W24657  16.049  23.040  18.530 -0.0333 -0.5456  0.0764
23794W        W24658  16.883  21.919  19.231  0.2289  0.0096  0.2276
23795W        W24659  14.676  21.153  21.748  0.0833 -0.0960  0.0214
23796W        W24660  16.531  24.060  18.643  0.2296 -0.2500 -0.1130
23797W        W24661  14.327  21.868  19.808  0.0707 -0.0739 -0.0449
23798W        W24662  18.156  22.825  21.026  0.1884  0.2337 -0.1455
23799W        W24663  18.649  22.557  21.186  0.0317 -0.0207  0.2133
23800W        W24664  16.350  21.868  18.986  0.3270  0.0445 -0.0759
23801W        W24665  18.912  21.384  16.996 -0.2112  0.0879  0.0458
23802W        W24666  18.532  22.176  19.038 -0.2030  0.1069  0.1695
23803W        W24667  16.337  25.773  21.184  0.1338  0.0048 -0.2173
23804W        W24668  16.988  25.468  19.672 -0.4395 -0.0789  0.2078
23805W        W24669  17.168  25.140  20.965 -0.1278  0.1745  0.0013
23806W        W24670  17.344  26.558  19.146  0.1696 -0.3307 -0.0900
23807W        W24671  15.631  22.241  22.886 -0.1218  0.0591  0.1728
23808W        W24672  16.226  24.261  21.261  0.0940  0.0848  0.0730
23809W        W24673  18.488  21.776  23.106  0.1653  0.1124 -0.2101
23810W        W24674  16.870  23.623  22.052 -0.4172 -0.2694  0.0747
23811W        W24675  16.041  25.063  19.775  0.2002  0.1571  0.5352
23812W        W24676  16.355  23.844  21.586 -0.0937 -0.3278 -0.2125
23813W        W24677  15.088  22.954  19.901 -0.1069 -0.1344 -0.3524
23814W        W24678  16.884  25.402  21.465 -0.1827  0.0309  0.2180
23815W        W24679  20.881  19.314  20.672 -0.3431 -0.2265 -0.1786
23816W        W24680  15.871  22.376  20.731 -0.0187 -0.3151  0.0445
23817W        W24681  13.619  21.445  18.356 -0.4560  0.1288  0.2058
23818W        W24682  19.199  21.909  17.335 -0.2699 -0.0549 -0.2696
23819W        W24683  21.225  23.959  23.013 -0.0604  0.0601  0.0005
23820W        W24684  15.028  24.452  20.793  0.1415 -0.2148  0.0442
23821W        W24685  19.445  26.268  18.600 -0.1693  0.3045  0.2098
23822W        W24686  16.011  21.661  18.673 -0.1434  0.0088  0.0043
23823W        W24687  14.861  22.648  21.735 -0.2490  0.1252 -0.0420
23824W        W24688  14.577  26.878  17.300  0.0764  0.0706 -0.2878
23825W        W24689  17.083  26.249  17.396  0.1753 -0.0312 -0.4268
23826W        W24690  15.926  24.298  20.539  0.0282 -0.1720 -0.2030
23827W        W24691  15.736  20.939  20.277 -0.1404  0.4332  0.1772
23828W        W24692  16.621  22.805  17.237 -0.0289 -0.2755 -0.0493
23829W        W24693  14.569  22.692  20.861  0.2054 -0.2157  0.0169
23830W        W24694  16.955  25.198  19.288  0.0217 -0.3589 -0.2470
23831W        W24695  16.402  23.411  21.837  0.0187  0.0155  0.0149
23832W        W24696  18.874  23.368  21.508  0.0879 -0.0275 -0.3403
23833W        W24697  12.795  21.455  20.860 -0.0906  0.0826  0.1088
23834W        W24698  14.376  20.277  19.231  0.1084 -0.3149  0.2829
23835W        W24699  15.737  21.888  17.911 -0.2092  0.0825 -0.0275
23836W        W24700  15.684  21.475  20.363 -0.2367  0.1479 -0.0477
23837W        W24701  18.640  21.926  18.551 -0.2932  0.1544 -0.1118
23838W        W24702  12.505  23.720  21.810  0.0088  0.0549 -0.0569
23839W        W24703  14.765  25.200  19.354 -0.3405  0.2464 -0.1167
23840W        W24704  15.824  24.720  20.104 -0.2342  0.2134 -0.1239
23841W        W24705  16.457  20.312  18.980 -0.1052  0.0993 -0.0788
23842W        W24706  16.432  22.526  20.517 -0.0207 -0.1260  0.1172
23843W        W24707  16.957  23.884  20.886 -0.1162 -0.0510 -0.4583
23844W        W24708  15.968  22.021  22.523  0.0723  0.1411  0.0866
23845W        W24709  15.310  23.954  21.319 -0.1593 -0.1113  0.1585
23846W        W24710  17.145  22.256  21.923 -0.1300  0.0809  0.0006
23847W        W24711  14.605  20.820  20.747 -0.1777  0.0845  0.1140
23848W        W24712  17.316  23.213  20.242  0.5160  0.0872 -0.0862
23849W        W24713  14.057  24.942  19.916  0.1367 -0.0872  0.0802
23850W        W24714  16.270  24.582  20.904  0.1063 -0.0135  0.0201
23851W        W24715  15.646  25.099  17.635  0.0635 -0.1937  0.4851
23852W        W24716  15.051  21.838  20.938 -0.2560 -0.0192 -0.1493
23853W        W24717  15.444  21.412  22.802  0.0081 -0.1125  0.0742
23854W        W24718  15.626  21.754  19.498 -0.1560 -0.1457 -0.0227
23855W        W24719  18.229  24.466  19.030 -0.0210  0.1956 -0.0252
23856W        W24720  17.338  22.292  19.205  0.3123 -0.0758 -0.0678
23857W        W24721  18.458  23.959  20.921  0.2561 -0.1419 -0.4030
23858W        W24722  14.146  24.921  20.762 -0.0479  0.0127 -0.0329
23859W        W24723  15.261  26.580  19.053  0.0196 -0.1421  0.1924
23860W        W24724  11.898  21.646  23.901  0.1432  0.1791 -0.1498
23861W        W24725  16.636  21.448  23.687 -0.0226 -0.0412 -0.0383
23862W        W24726  16.147  25.009  17.574 -0.0331  0.2176  0.1234
23863W        W24727  20.314  24.346  18.440  0.1244  0.2482 -0.0222
23864W        W24728  16.555  22.642  19.686  0.2357  0.1566  0.1796
23865W        W24729  18.279  22.678  21.489  0.1878  0.0443 -0.2295
23866W        W24730  17.281  19.859  20.899 -0.1854  0.3295  0.2081
23867W        W24731  19.254  23.367  22.263 -0.3486  0.0383 -0.0914
23868W        W24732  17.814  21.980  19.539 -0.0681  0.0489  0.1502
23869W        W24733  12.620  22.149  18.608  0.1684 -0.0200  0.1033
23870W        W24734  17.153  23.618  23.315  0.1921 -0.0723  0.2678
23871W        W24735  15.480  23.338  19.239 -0.0929 -0.1649  0.0535
23872W        W24736  16.473  24.646  16.994 -0.0263  0.1859 -0.4246
23873W        W24737  14.119  23.964  18.454  0.0662  0.2247  0.0666
23874W        W24738  12.501  23.992  21.253  0.0241 -0.1818  0.0657
23875W        W24739  16.806  20.579  22.422  0.0442 -0.1980 -0.2152
23876W        W24740  15.988  21.426  19.337 -0.0774 -0.0541  0.0306
23877W        W24741  13.533  20.825  21.977  0.0490 -0.0225 -0.1514
23878W        W24742  15.047  19.779  19.229  0.1294  0.0013  0.0327
23879W        W24743  14.457  19.739  19.538 -0.0045 -0.4312  0.0184
23880W        W24744  17.030  23.149  18.335 -0.0460 -0.2339 -0.2275
23881W        W24745  16.183  21.527  20.370  0.2656 -0.3596  0.0754
23882W        W24746  14.609  23.539  18.910  0.1189 -0.3339 -0.2349
23883W        W24747  17.722  22.479  19.777 -0.0571 -0.1562  0.1820
23884W        W24748  19.159  22.954  18.021 -0.3203 -0.0500  0.0552
23885W        W24749  19.120  22.267  21.949 -0.1089  0.2358  0.0536
23886W        W24750  16.372  23.343  19.185 -0.0462  0.0355  0.0510
23887W        W24751  15.053  24.236  17.427  0.0446  0.2639  0.2841
23888W        W24752  15.489  25.920  23.467 -0.0595  0.0421  0.0822
23889W        W24753  15.398  24.100  20.819 -0.0256 -0.0158  0.0161
23890W        W24754  17.248  25.647  21.168  0.1597  0.2773 -0.2330
23891W        W24755  15.409  24.968  14.789  0.0708  0.0751  0.1379
23892W        W24756  16.096  22.762  22.316  0.0108  0.2566  0.1825
23893W        W24757  14.528  21.785  22.597 -0.0720 -0.0263 -0.1097
23894W        W24758  14.946  24.141  20.382 -0.1121  0.1022 -0.0116
23895W        W24759  15.407  22.221  21.059  0.2070  0.0190 -0.0277
23896W        W24760  19.576  20.920  23.013 -0.1402  0.1600  0.0923
23897W        W24761  18.884  22.428  17.777 -0.1405 -0.0362  0.0606
23898W        W24762  18.476  24.021  18.969  0.1580 -0.3027  0.2071
23899W        W24763  17.346  24.861  19.225 -0.2332  0.1257  0.1087
23900W        W24764  16.791  23.896  19.900  0.2078 -0.0150  0.1502
23901W        W24765  12.801  21.251  24.293  0.0213 -0.2055 -0.0487
23902W        W24766  18.136  21.516  25.196  0.1657  0.1233  0.0350
23903W        W24767  19.320  21.528  17.911  0.1721 -0.0782  0.0173
23904W        W24768  16.445  24.289  24.792  0.3271  0.1521  0.1727
23905W        W24769  14.872  23.647  16.214 -0.0778  0.4138  0.2654
23906W        W24770  15.967  23.270  19.434  0.0632 -0.1877 -0.0104
23907W        W24771  13.937  22.146  20.026 -0.5054 -0.0380 -0.2767
23908W        W24772  14.509  23.234  21.778  0.1104  0.2853 -0.2110
23909W        W24773  19.699  21.605  21.804  0.0214  0.0907 -0.2208
23910W        W24774  17.356  26.639  20.054  0.4102 -0.2168 -0.1492
23911W        W24775  17.402  22.823  19.962  0.1581  0.2436  0.2353
23912W        W24776  15.729  22.786  23.659  0.1480  0.3654 -0.1829
23913W        W24777  13.954  24.895  23.043 -0.0138 -0.3087 -0.0887
23914W        W24778  14.603  22.812  19.762 -0.1794  0.2276  0.0580
23915W        W24779  19.222  23.325  18.761  0.1693  0.1806 -0.1117
23916W        W24780  13.650  22.434  20.256  0.3262  0.1632 -0.0385
23917W        W24781  17.581  24.689  20.945 -0.0265  0.0005  0.0276
23918W        W24782  17.053  21.258  20.270  0.3043  0.0507  0.0437
23919W        W24783  15.480  20.391  23.113  0.0634 -0.1012  0.0887
23920W        W24784  16.083  24.373  22.756 -0.0513  0.3775 -0.1276
23921W        W24785  18.485  26.556  19.043  0.3101 -0.0942  0.2663
23922W        W24786  15.419  22.258  21.964 -0.0645  0.2053  0.0862
23923W        W24787  14.635  24.346  22.999  0.0867 -0.0795  0.0867
23924W        W24788  16.115  21.204  20.056 -0.1306 -0.3472 -0.2874
23925W        W24789  17.462  20.349  20.905  0.0283 -0.0836 -0.1223
23926W        W24790  16.955  23.367  21.068  0.0599 -0.0710  0.1318
23927W        W24791  14.258  26.308  18.183  0.0430  0.2142  0.1180
23928W        W24792  18.771  23.669  16.938  0.0266 -0.3229 -0.0103
23929W        W24793  15.961  23.147  19.938 -0.2062  0.1320  0.0679
23930W        W24794  18.490  27.709  19.750  0.2713 -0.1615  0.1213
23931W        W24795  14.145  19.913  20.862  0.0955  0.1815  0.0927
23932W        W24796  16.481  24.170  19.575 -0.0546 -0.2373 -0.0653
23933W        W24797  16.131  25.988  23.227 -0.0003 -0.1042 -0.1479
23934W        W24798  18.202  26.022  22.277 -0.0888  0.0030 -0.0995
23935W        W24799  17.067  24.402  21.036  0.3875  0.1178 -0.0419
23936W        W24800  16.190  23.334  17.830  0.2609 -0.0323 -0.0997
23937W        W24801  18.884  24.032  18.209  0.2227 -0.2808 -0.1025
23938W        W24802  17.925  24.383  18.449  0.2700  0.1675 -0.1602
23939W        W24803  13.806  21.152  22.517  0.0384  0.3437  0.2716
23940W        W24804  19.024  24.200  20.348 -0.0743 -0.2673  0.2416
23941W        W24805  17.987  22.034  18.168  0.1059  0.0808 -0.0437
23942W        W24806  14.955  21.226  18.126 -0.0939  0.0585 -0.2635
23943W        W24807  17.658  25.766  20.828  0.0412  0.0114  0.0365
23944W        W24808  18.979  23.873  20.713 -0.2590 -0.1448  0.2257
23945W        W24809  14.734  21.271  19.262 -0.2904 -0.1605  0.0834
23946W        W24810  20.321  21.624  21.046  0.2027 -0.1318  0.1503
23947W        W24811  16.323  23.302  23.102 -0.0322  0.1238  0.2782
23948W        W24812  18.539  25.409  19.841  0.0275  0.2104 -0.1531
23949W        W24813  19.488  23.374  18.193  0.0173 -0.2329  0.1136
23950W        W24814  15.010  23.118  21.609  0.2246  0.3131 -0.1886
23951W        W24815  18.337  24.473  17.009  0.0932  0.0116 -0.0495
23952W        W24816  18.636  23.839  19.472 -0.1700  0.1561 -0.0131
23953W        W24817  16.808  22.072  20.575 -0.1013  0.0900  0.0808
23954W        W24818  18.004  22.416  22.831 -0.0149 -0.1497 -0.1741
23955W        W24819  16.518  25.123  20.597  0.1531  0.4316 -0.0192
23956W        W24820  19.192  22.465  21.420  0.0458 -0.1274 -0.1694
23957W        W24821  18.548  21.653  22.446 -0.2119 -0.1176  0.0796
23958W        W24822  14.819  22.153  21.848  0.2676 -0.2681 -0.0890
23959W        W24823  13.175  21.141  22.250 -0.0252 -0.1153 -0.0624
23960W        W24824  16.995  26.145  18.880 -0.1287  0.0566 -0.1258
23961W        W24825  16.494  25.552  22.300  0.1537 -0.1875 -0.0402
23962W        W24826  12.791  21.699  19.408  0.1140  0.0333 -0.0220
23963W        W24827  17.158  23.220  17.830  0.2050  0.0967  0.4381
23964W        W24828  16.434  21.902  17.301 -0.0566 -0.0780 -0.1601
23965W        W24829  16.301  26.242  18.909 -0.1346 -0.1049  0.0427
23966W        W24830  15.747  25.357  18.887 -0.0446  0.0327  0.1760
23967W        W24831  17.400  23.582  22.284  0.0424 -0.1503  0.1810
23968W        W24832  19.109  24.692  20.213 -0.3852  0.0082 -0.0432
23969W        W24833  15.907  23.489  22.899 -0.1932  0.2442 -0.1179
23970W        W24834  18.166  21.996  18.718 -0.1403 -0.1415 -0.2552
23971W        W24835  17.689  21.121  18.531  0.2537 -0.0657 -0.2011
23972W        W24836  15.864  23.936  21.587  0.1107 -0.1096  0.3666
23973W        W24837  18.349  22.148  19.478  0.0273 -0.1536  0.3152
23974W        W24838  17.286  21.648  22.014 -0.0223 -0.3216 -0.3309
23975W        W24839  15.029  22.601  20.510  0.0359 -0.0628 -0.6049
23976W        W24840  16.241  24.997  18.403 -0.2904 -0.0777  0.0286
23977W        W24841  20.596  24.487  19.500  0.1040  0.0271 -0.2384
23978W        W24842  15.861  22.516  21.887  0.2280 -0.0350  0.0337
23979W        W24843  21.473  26.298  21.997 -0.1576  0.0902 -0.1206
23980W        W24844  19.674  22.173  19.610  0.1276  0.0318 -0.0813
23981W        W24845  16.567  27.577  18.535  0.0519  0.5632  0.0012
23982W        W24846  13.723  25.147  18.689 -0.2290  0.0952  0.1275
23983W        W24847  12.758  22.230  20.994 -0.0039 -0.0704 -0.2096
23984W        W24848  15.445  27.283  21.794  0.3020  0.1783  0.0519
23985W        W24849  14.299  24.063  21.070  0.0019  0.0288  0.0543
23986W        W24850  16.905  22.907  19.966  0.1355 -0.3251 -0.0356
23987W        W24851  18.770  26.523  20.582  0.0566  0.0430 -0.1957
23988W        W24852  18.446  24.464  20.781  0.0198 -0.0539  0.1332
23989W        W24853  18.719  23.519  21.019  0.2623  0.0820  0.1713
23990W        W24854  16.432  22.926  18.817  0.3185  0.1589  0.1385
23991W        W24855  13.427  23.033  20.911  0.2507 -0.1521 -0.1092
23992W        W24856  14.878  20.963  19.752 -0.2513  0.1168  0.0242
23993W        W24857  14.176  23.926  19.883  0.1691  0.2946 -0.0715
23994W        W24858  16.811  23.472  19.498  0.0119 -0.0748  0.1340
23995W        W24859  16.830  24.448  19.767 -0.2767 -0.1722 -0.0493
23996W        W24860  14.935  26.229  21.796  0.1166 -0.0530 -0.2424
23997W        W24861  16.659  24.263  20.778  0.1829 -0.1543 -0.0564
23998W        W24862  17.895  21.984  20.942 -0.5372  0.0762  0.0470
23999W        W24863  18.529  21.562  17.350 -0.0026  0.0711 -0.0692
24000W        W24864  17.267  23.547  21.734  0.0855 -0.1880 -0.1539
24001W        W24865  14.877  19.449  18.857 -0.1879  0.0828 -0.1086
24002W        W24866  15.876  22.756  20.426 -0.0750 -0.0945  0.0781
24003W        W24867  20.159  23.597  19.138  0.0587  0.0327 -0.0792
24004W        W24868  13.490  23.904  21.302  0.2917 -0.2621  0.1809
24005W        W24869  18.262  23.183  18.920  0.0494  0.3480  0.0159
24006W        W24870  17.757  22.543  19.266  0.0383 -0.1583 -0.0368
24007W        W24871  14.385  25.142  21.197  0.1160 -0.3656  0.2407
24008W        W24872  15.183  21.194  18.982  0.0498 -0.0724 -0.1070
24009W        W24873  14.590  22.448  19.345  0.2164 -0.0790 -0.1112
24010W        W24874  16.485  19.609  18.551 -0.1000  0.1801 -0.1138
24011W        W24875  17.989  23.705  16.531 -0.1732  0.1686  0.1280
24012W        W24876  15.347  22.891  23.332  0.1536  0.0922 -0.1306
24013W        W24877  19.508  22.330  17.345 -0.2552  0.1164 -0.0127
24014W        W24878  19.082  23.066  21.095 -0.0238  0.2441 -0.0890
24015W        W24879  16.103  25.728  21.930 -0.0486 -0.0078 -0.4411
24016W        W24880  20.920  21.291  22.314 -0.0800 -0.0923 -0.0533
24017W        W24881  18.339  24.328  21.867  0.0894 -0.1092  0.4658
24018W        W24882  16.103  25.210  21.757  0.0697 -0.1649  0.1990
24019W        W24883  18.528  22.652  18.781 -0.0623 -0.2768  0.3232
24020W        W24884  17.654  23.468  19.957  0.1074 -0.0459 -0.0943
24021W        W24885  13.475  21.083  18.758  0.1872  0.4466 -0.2433
24022W        W24886  16.110  22.864  18.055  0.3451  0.1012 -0.1063
24023W        W24887  13.971  23.036  23.184  0.3075 -0.0394  0.0344
24024W        W24888  15.417  20.981  22.555 -0.2032 -0.1444 -0.1529
24025W        W24889  16.663  25.183  18.875 -0.3905  0.0533  0.0231
24026W        W24890  13.409  24.581  18.105 -0.1543 -0.0405  0.1770
24027W        W24891  16.325  26.162  20.702  0.1444 -0.3698 -0.1140
24028W        W24892  16.706  23.472  17.886 -0.1768 -0.0034 -0.0403
24029W        W24893  14.791  23.605  20.476  0.1470 -0.1411 -0.0726
24030W        W24894  17.356  23.303  21.296  0.1144  0.1278 -0.3096
24031W        W24895  14.712  21.427  17.513 -0.2030  0.1680  0.3350
24032W        W24896  17.816  23.353  20.407  0.2506  0.1241 -0.1451
24033W        W24897  16.163  23.034  20.718 -0.3729 -0.0137  0.0730
24034W        W24898  18.553  23.111  21.260  0.0394  0.2100 -0.0267
24035W        W24899  17.728  24.397  19.262 -0.0455  0.4019  0.0024
24036W        W24900  13.506  26.295  16.920  0.2448 -0.1050  0.2444
24037W        W24901  16.346  23.914  20.610 -0.3310  0.2070  0.3357
24038W        W24902  14.420  24.962  20.264  0.0261 -0.0486 -0.0697
24039W        W24903  17.483  20.319  18.339 -0.3101 -0.0690 -0.0117
24040W        W24904  14.313  24.582  22.039 -0.0703 -0.0679  0.1240
24041W        W24905  16.024  22.441  18.898 -0.1095  0.0459  0.0320
24042W        W24906  15.113  24.084  19.917  0.0043 -0.0773  0.1524
24043W        W24907  20.918  24.433  19.958 -0.3194  0.0470 -0.1325
24044W        W24908  16.062  22.857  21.415  0.3441 -0.1060 -0.0831
24045W        W24909  15.973  21.911  19.927 -0.0312 -0.2336 -0.0391
24046W        W24910  14.395  23.983  24.266  0.2666  0.1284 -0.2443
24047W        W24911  18.318  23.793  22.609  0.1941 -0.0807 -0.0988
24048W        W24912  18.680  26.741  21.688 -0.1073 -0.0758  0.1268
24049W        W24913  16.651  22.959  20.974 -0.1679  0.0838 -0.1068
24050W        W24914  15.215  23.142  16.094  0.1521 -0.0722 -0.2121
24051W        W24915  17.941  18.151  18.974  0.2103  0.0344 -0.0142
24052W        W24916  16.430  26.366  19.704  0.1280 -0.0893  0.1518
24053W        W24917  20.007  20.542  21.158 -0.4814 -0.0632 -0.0190
24054W        W24918  19.154  24.378  17.382 -0.0580 -0.0940  0.0981
24055W        W24919  16.824  23.187  20.442  0.1218 -0.1579  0.0727
24056W        W24920  20.428  22.767  20.551 -0.0987 -0.1819  0.0367
24057W        W24921  14.472  20.736  19.383 -0.0599 -0.1834 -0.1875
24058W        W24922  15.908  24.900  20.686 -0.0827  0.1833  0.0094
24059W        W24923  17.837  24.300  21.875 -0.1795  0.0979  0.0761
24060W        W24924  18.225  23.544  21.216  0.0796  0.1589 -0.1089
24061W        W24925  17.543  25.460  20.007 -0.0386  0.1290 -0.1758
24062W        W24926  16.298  21.479  23.283  0.0904  0.0499 -0.2657
24063W        W24927  13.647  23.688  19.879  0.1627 -0.0394  0.0330
24064W        W24928  14.370  23.599  20.223  0.0420  0.2240  0.1047
24065W        W24929  18.552  24.048  20.440 -0.0575 -0.1614  0.2169
24066W        W24930  16.168  23.456  23.537 -0.0786 -0.0958  0.1056
24067W        W24931  16.025  19.358  19.873 -0.2461  0.0926  0.0122
24068W        W24932  17.681  25.916  20.231  0.0782  0.0697  0.0831
24069W        W24933  17.615  23.225  22.685 -0.2811 -0.1631 -0.0985
24070W        W24934  14.941  25.804  19.273 -0.1346 -0.2327  0.1504
24071W        W24935  17.234  22.901  22.970 -0.2576  0.2079 -0.1007
24072W        W24936  18.143  25.197  27.181  0.1445  0.0954 -0.0984
24073W        W24937  18.377  22.171  21.380  0.0927  0.3819  0.0532
24074W        W24938  16.033  22.220  21.179 -0.1190  0.0323  0.0667
24075W        W24939  19.429  24.081  20.135  0.3428  0.0197  0.2394
24076W        W24940  15.463  22.021  22.414  0.0832  0.1502  0.2501
24077W        W24941  16.797  23.105  22.991  0.3354 -0.0112  0.1832
24078W        W24942  17.687  23.868  19.180 -0.0225  0.3488  0.1261
24079W        W24943  15.596  24.433  22.865  0.3256 -0.1499 -0.0528
24080W        W24944  16.824  26.391  20.382  0.2147  0.2142  0.0804
24081W        W24945  15.498  24.598  19.287  0.0543 -0.1500  0.0015
24082W        W24946  14.188  23.251  23.562  0.0981 -0.4003  0.0326
24083W        W24947  17.404  23.587  25.966 -0.4048 -0.0913  0.0734
24084W        W24948  20.524  23.958  21.940  0.2071 -0.0049  0.0323
24085W        W24949  15.687  28.264  25.638  0.0651  0.1255 -0.0501
24086W        W24950  14.962  21.139  23.851  0.2709 -0.0244 -0.0862
24087W        W24951  19.058  22.895  22.123  0.0215  0.1710  0.1739
24088W        W24952  15.957  23.144  23.952  0.2186  0.0059 -0.2648
24089W        W24953  15.920  24.330  24.978 -0.0583  0.1238  0.0904
24090W        W24954  17.840  26.274  25.520  0.0715 -0.2519  0.0409
24091W        W24955  14.935  22.901  25.694  0.4907  0.2096 -0.0869
24092W        W24956  15.084  25.412  25.689 -0.0936  0.1735 -0.1693
24093W        W24957  14.186  20.267  23.452 -0.1816 -0.0501 -0.0720
24094W        W24958  16.247  21.458  22.546 -0.0548  0.1312  0.0652
24095W        W24959  17.228  22.356  23.111 -0.0129 -0.2295  0.0010
24096W        W24960  15.204  22.949  23.910  0.0988 -0.1121 -0.1496
24097W        W24961  13.857  26.970  25.576  0.0209  0.0700  0.2195
24098W        W24962  16.130  25.119  22.312 -0.2423 -0.2201 -0.1766
24099W        W24963  13.067  24.011  26.242  0.2107 -0.0896 -0.0725
24100W        W24964  15.834  23.144  25.736 -0.0684 -0.0077 -0.2023
24101W        W24965  17.168  21.417  23.597  0.2068 -0.2314  0.0092
24102W        W24966  20.725  24.087  24.303  0.2475 -0.1281  0.0523
24103W        W24967  15.326  23.811  22.901 -0.0236 -0.0168 -0.1745
24104W        W24968  16.026  27.483  23.416 -0.1575  0.0857  0.0089
24105W        W24969  17.688  25.122  25.326 -0.2644 -0.4044 -0.1384
24106W        W24970  12.677  22.524  22.893  0.0213 -0.0680 -0.2526
24107W        W24971  17.844  23.117  26.759 -0.3572 -0.1850  0.0760
24108W        W24972  21.348  24.093  25.310 -0.1450 -0.3194 -0.0930
24109W        W24973  13.744  22.381  25.339 -0.3568  0.0244 -0.1680
24110W        W24974  17.748  23.081  24.617 -0.1813  0.0073 -0.0277
24111W        W24975  15.593  22.308  24.151  0.1336 -0.0612  0.2194
24112W        W24976  15.974  25.310  23.730  0.0762  0.2493 -0.3378
24113W        W24977  18.684  26.020  25.437  0.0348  0.2818  0.1356
24114W        W24978  16.877  26.455  24.271 -0.1200 -0.0400  0.1873
24115W        W24979  17.141  22.835  23.785 -0.0557  0.2036  0.3624
24116W        W24980  15.237  24.837  22.064  0.1694  0.0695  0.0412
24117W        W24981  18.354  23.362  25.669 -0.0500  0.3134  0.2039
24118W        W24982  14.882  21.784  24.824  0.2132 -0.0224 -0.2942
24119W        W24983  16.494  24.555  22.862 -0.0103 -0.3265  0.4104
24120W        W24984  17.372  24.967  24.802  0.0076  0.1627 -0.1007
24121W        W24985  17.854  22.303  24.420 -0.1350 -0.0883  0.1270
24122W        W24986  14.069  23.094  21.522 -0.0456  0.1704  0.0564
24123W        W24987  17.821  21.130  22.907 -0.0680  0.0743 -0.0885
24124W        W24988  16.785  26.761  25.301  0.1096  0.0055 -0.2427
24125W        W24989  18.757  22.857  21.687  0.0931 -0.0075  0.2998
24126W        W24990  15.490  25.252  25.456  0.1167  0.1922  0.1490
24127W        W24991  16.175  25.389  22.750  0.0137  0.1273  0.1363
24128W        W24992  15.246  22.016  23.631  0.1032 -0.0674 -0.0497
24129W        W24993  16.323  23.416  25.041 -0.1727  0.2663 -0.2790
24130W        W24994  17.662  23.227  23.185 -0.1814 -0.1514 -0.3064
24131W        W24995  17.651  22.590  23.241  0.1110  0.1162 -0.1345
24132W        W24996  16.598  24.680  23.581  0.1166 -0.2134 -0.0497
24133W        W24997  14.085  24.464  25.562 -0.1453  0.0324 -0.0250
24134W        W24998  17.006  25.215  25.071  0.0425 -0.3090  0.1117
24135W        W24999  16.056  22.140  23.196  0.1550 -0.1943  0.0403
24136W        W25000  17.478  21.963  22.358  0.3044 -0.0680  0.1603
24137W        W25001  15.430  22.960  25.512  0.1360 -0.0948  0.1290
24138W        W25002  13.423  21.191  23.325  0.3787  0.0913 -0.1717
24139W        W25003  19.995  22.667  24.164 -0.0723  0.3982  0.2556
24140W        W25004  15.091  25.969  24.036 -0.2938  0.0146  0.1698
24141W        W25005  15.240  24.970  23.634 -0.0363  0.0873  0.2851
24142W        W25006  17.565  23.036  21.707 -0.3352 -0.0318 -0.0886
24143W        W25007  15.578  26.426  24.923  0.2586  0.1458  0.2507
24144W        W25008  17.074  26.235  24.692  0.3150  0.1426  0.0880
24145W        W25009  16.554  24.992  23.171  0.1741  0.1846 -0.3599
24146W        W25010  16.008  23.156  25.287  0.0595 -0.2048 -0.1448
24147W        W25011  16.632  21.131  24.105  0.0358 -0.0526 -0.2357
24148W        W25012  14.748  24.913  21.970 -0.1592 -0.3075  0.0666
24149W        W25013  14.117  24.338  20.706 -0.2101 -0.1809  0.1060
24150W        W25014  14.564  25.714  23.899  0.1146 -0.1830 -0.2640
24151W        W25015  16.420  21.895  22.400  0.0947 -0.0361  0.4206
24152W        W25016  20.365  23.747  23.023  0.2273 -0.2659 -0.1078
24153W        W25017  17.763  23.190  20.931 -0.3596 -0.3447 -0.2306
24154W        W25018  19.283  26.123  22.244 -0.4047  0.2187 -0.0477
24155W        W25019  19.125  22.958  25.879 -0.0737 -0.2237  0.1818
24156W        W25020  20.723  22.033  23.897  0.0082  0.0907 -0.1376
24157W        W25021  14.243  22.422  25.702 -0.1149  0.1012 -0.2180
24158W        W25022  14.428  26.576  23.991 -0.0608  0.1373 -0.2514
24159W        W25023  14.562  23.006  26.179 -0.1597  0.0455  0.2271
24160W        W25024  16.175  21.334  23.833  0.0265 -0.1629 -0.0024
24161W        W25025  18.067  22.355  23.457 -0.2311 -0.3997  0.1911
24162W        W25026  15.887  22.989  24.738 -0.1827 -0.0559  0.2828
24163W        W25027  12.578  23.706  28.422  0.0557 -0.0888 -0.0411
24164W        W25028  18.995  22.547  22.809  0.0787  0.1340  0.1129
24165W        W25029  17.130  22.996  24.738 -0.1615  0.0676 -0.2236
24166W        W25030  13.323  22.618  26.621  0.0127  0.1579  0.0423
24167W        W25031  17.985  22.911  22.835  0.1274 -0.1480 -0.0106
24168W        W25032  18.661  25.859  26.132 -0.0996 -0.3044  0.1382
24169W        W25033  17.460  20.340  25.722  0.0435  0.1714 -0.2323
24170W        W25034  16.668  24.655  24.413 -0.2033  0.0877 -0.1742
24171W        W25035  17.637  24.411  25.475 -0.1507  0.0415  0.3253
24172W        W25036  13.947  22.044  21.772 -0.1234  0.0027  0.2102
24173W        W25037  17.312  25.864  24.985 -0.2508  0.3552 -0.0724
24174W        W25038  17.016  25.111  22.923 -0.0338 -0.1052  0.2596
24175W        W25039  15.238  21.792  21.880 -0.3800  0.3300  0.1807
24176W        W25040  15.379  22.925  27.220  0.1940  0.0417 -0.1911
24177W        W25041  18.166  21.118  25.527 -0.1032 -0.0520 -0.0578
24178W        W25042  20.322  20.894  22.870  0.1678  0.1836 -0.1287
24179W        W25043  16.257  28.318  26.606 -0.0796  0.0495 -0.2564
24180W        W25044  17.452  21.130  22.014  0.0794  0.2182  0.2832
24181W        W25045  16.662  22.540  22.243  0.2052  0.2289  0.0222
24182W        W25046  18.100  24.335  24.651  0.0174  0.1472  0.1717
24183W        W25047  15.316  23.385  24.118  0.1205 -0.0676 -0.2035
24184W        W25048  17.552  22.194  22.764 -0.3688  0.0132  0.0293
24185W        W25049  16.582  25.468  27.621 -0.3166 -0.1058 -0.0197
24186W        W25050  19.019  20.452  25.947 -0.2825 -0.0306 -0.0559
24187W        W25051  19.160  24.037  26.699 -0.0352 -0.1590 -0.2455
24188W        W25052  18.745  23.550  22.603 -0.0464 -0.1763 -0.3428
24189W        W25053  17.771  24.239  27.138 -0.1408  0.0981  0.0317
24190W        W25054  16.006  21.732  25.186  0.1613  0.1897 -0.0916
24191W        W25055  15.798  24.002  22.972  0.1146 -0.1544 -0.0635
24192W        W25056  15.681  22.809  24.137  0.0598 -0.0105 -0.2139
24193W        W25057  19.168  25.811  25.301  0.0462 -0.0916  0.1912
24194W        W25058  16.938  22.274  23.522 -0.2672 -0.1135 -0.1523
24195W        W25059  17.355  26.193  24.249 -0.2279 -0.1217 -0.0160
24196W        W25060  18.520  25.214  21.228  0.0854  0.0717 -0.2403
24197W        W25061  15.958  22.625  25.067 -0.0589  0.2006 -0.1979
24198W        W25062  19.296  21.901  24.574 -0.3053 -0.0041  0.1778
24199W        W25063  16.213  24.367  26.205 -0.1453  0.3356 -0.0877
24200W        W25064  15.175  24.177  24.124 -0.0918  0.0529  0.0208
24201W        W25065  16.876  24.217  24.148 -0.0507  0.1564  0.5633
24202W        W25066  16.879  22.620  21.769 -0.0713 -0.0718  0.1804
24203W        W25067  18.150  23.692  20.142 -0.1975 -0.0201 -0.1039
24204W        W25068  19.477  25.209  23.127 -0.4124  0.1767 -0.1675
24205W        W25069  16.504  23.128  19.685  0.0937 -0.0795  0.2214
24206W        W25070  17.447  22.687  24.408 -0.2029 -0.0375  0.3575
24207W        W25071  18.632  22.520  24.077  0.1190 -0.2164 -0.1486
24208W        W25072  15.418  21.555  24.530 -0.2838 -0.2283  0.1029
24209W        W25073  17.227  25.758  26.508  0.1643 -0.2538 -0.3176
24210W        W25074  18.892  25.031  24.872  0.0897 -0.0327 -0.0990
24211W        W25075  15.704  24.947  24.635  0.0335  0.0403 -0.0760
24212W        W25076  17.268  24.589  25.135  0.0512 -0.2769  0.0272
24213W        W25077  17.132  24.177  23.223 -0.0241 -0.1843  0.0635
24214W        W25078  16.174  26.055  25.666  0.1607 -0.3004 -0.1184
24215W        W25079  17.813  22.317  22.256 -0.0613  0.1343  0.0650
24216W        W25080  17.907  24.779  23.931 -0.1323 -0.0306 -0.3431
24217W        W25081  15.530  22.795  22.846 -0.1592  0.0372 -0.0811
24218W        W25082  16.001  20.955  23.473  0.1166 -0.1907 -0.3580
24219W        W25083  16.755  23.879  25.025  0.0526 -0.2141 -0.1054
24220W        W25084  16.110  26.623  24.800 -0.1818  0.0523 -0.1018
24221W        W25085  14.247  25.519  24.757 -0.1106  0.4192 -0.1047
24222W        W25086  14.124  21.627  23.822  0.0822  0.2736  0.1605
24223W        W25087  18.689  23.043  22.396 -0.0936  0.0712  0.0503
24224W        W25088  17.785  24.425  19.974 -0.1926 -0.0221  0.0574
24225W        W25089  16.692  24.153  22.025 -0.0695 -0.2240 -0.4524
24226W        W25090  16.827  25.792  24.998 -0.0629  0.0188  0.0977
24227W        W25091  16.363  20.813  21.499 -0.4238 -0.1409 -0.1249
24228W        W25092  19.847  22.651  25.687 -0.3204  0.3985  0.2465
24229W        W25093  18.103  25.541  23.891  0.0606 -0.0724  0.1070
24230W        W25094  16.016  25.693  24.766 -0.0576  0.0257 -0.0305
24231W        W25095  17.373  24.905  26.101  0.0424 -0.2850 -0.0812
24232W        W25096  17.658  25.815  26.275 -0.1663  0.0175  0.1246
24233W        W25097  14.497  22.964  23.052  0.3238 -0.0721  0.0006
24234W        W25098  15.859  26.284  23.686 -0.0453  0.1597  0.1016
24235W        W25099  15.848  24.785  21.878 -0.1575  0.1827 -0.1353
24236W        W25100  16.911  24.210  25.360  0.3654 -0.2954  0.0013
24237W        W25101  17.616  22.329  26.175 -0.1845  0.1407  0.1080
24238W        W25102  14.974  23.900  23.323 -0.0197 -0.0611 -0.2432
24239W        W25103  17.898  25.140  20.767  0.0289  0.2452 -0.0818
24240W        W25104  14.544  20.190  23.969  0.0296 -0.0944 -0.3074
24241W        W25105  16.972  22.040  22.843 -0.2171  0.1798  0.1473
24242W        W25106  18.750  23.655  23.537  0.1054  0.4775  0.0362
24243W        W25107  15.892  25.702  25.218 -0.1610 -0.2262 -0.1418
24244W        W25108  17.858  20.896  25.952 -0.1984 -0.0611  0.0994
24245W        W25109  19.581  22.786  23.918  0.0628 -0.0037  0.1364
24246W        W25110  17.085  22.350  27.379  0.3130  0.3837 -0.1236
24247W        W25111  18.521  21.312  23.365 -0.0217  0.0787  0.2079
24248W        W25112  14.742  22.339  24.425 -0.0128 -0.1619 -0.0731
24249W        W25113  13.631  26.581  25.404  0.4468  0.3263 -0.2954
24250W        W25114  16.287  23.806  23.026 -0.1511 -0.2430 -0.1299
24251W        W25115  15.951  24.498  23.216 -0.1031 -0.1662 -0.0613
24252W        W25116  16.031  24.032  24.605 -0.0636  0.2320  0.3075
24253W        W25117  18.111  21.460  20.258  0.2035  0.0513 -0.1239
24254W        W25118  17.628  24.238  24.547  0.1440  0.0679  0.1645
24255W        W25119  15.970  26.886  24.066 -0.1482 -0.1472 -0.0748
24256W        W25120  19.275  21.585  23.774  0.2602 -0.4417 -0.4310
24257W        W25121  18.940  23.162  23.830  0.4319 -0.0721  0.1509
24258W        W25122  14.684  25.237  25.314 -0.0639  0.3010  0.0179
24259W        W25123  14.891  23.328  25.912  0.0051  0.0725  0.0416
24260W        W25124  14.437  25.055  24.818 -0.0266 -0.1211 -0.0734
24261W        W25125  17.136  23.116  23.402 -0.0398  0.1018 -0.0569
24262W        W25126  17.675  23.692  25.239  0.1113  0.2217 -0.1496
24263W        W25127  20.018  25.574  22.117  0.2107  0.0296  0.1044
24264W        W25128  17.238  23.219  26.326  0.0547  0.4254 -0.2114
24265W        W25129  13.791  22.604  21.742 -0.0759  0.0931  0.2938
24266W        W25130  17.690  22.959  19.596 -0.1865  0.0390 -0.0800
24267W        W25131  17.405  24.994  24.241  0.1652  0.0321 -0.1049
24268W        W25132  17.421  21.208  22.577  0.0138  0.1526  0.1921
24269W        W25133  13.481  21.508  21.329 -0.0931  0.3693  0.3957
24270W        W25134  16.118  23.571  25.603 -0.0588 -0.3997 -0.1798
24271W        W25135  14.679  22.510  25.944 -0.0336 -0.3853  0.2019
24272W        W25136  14.047  22.814  24.167 -0.1103  0.5434  0.0959
24273W        W25137  14.864  23.012  22.128  0.2077 -0.1815  0.1963
24274W        W25138  16.585  24.998  24.829 -0.3134  0.0963  0.0474
24275W        W25139  13.642  20.866  27.426  0.0459 -0.0614  0.1440
24276W        W25140  17.859  23.533  25.764 -0.1268 -0.0207  0.3601
24277W        W25141  15.539  22.192  24.992 -0.2543 -0.0453 -0.0544
24278W        W25142  18.338  23.259  20.788  0.3404  0.1817 -0.0221
24279W        W25143  12.416  21.920  24.043 -0.0626 -0.4061 -0.2474
24280W        W25144  13.043  24.137  23.948  0.1866  0.3637 -0.0271
24281W        W25145  18.188  23.714  23.399 -0.0368  0.3043  0.1707
24282W        W25146  16.730  23.884  23.454  0.1290  0.1911  0.3955
24283W        W25147  18.818  22.078  22.675  0.1545 -0.1741  0.0529
24284W        W25148  16.138  21.271  21.620 -0.0969 -0.1380 -0.1411
24285W        W25149  16.573  24.167  26.818  0.0595 -0.2870  0.0324
24286W        W25150  18.375  24.198  25.462  0.0055  0.0901 -0.0364
24287W        W25151  14.110  22.171  21.327 -0.3511  0.0107  0.4059
24288W        W25152  14.681  23.421  25.417 -0.0425 -0.1216 -0.3718
24289W        W25153  16.034  22.214  23.951 -0.2788 -0.0512 -0.1869
24290W        W25154  16.987  23.902  22.420 -0.2146 -0.0907 -0.1013
24291W        W25155  13.610  25.121  21.682  0.2534 -0.1229  0.1846
24292W        W25156  16.375  24.328  25.310 -0.0613 -0.0649  0.4426
24293W        W25157  15.460  24.135  27.653  0.3132  0.0247 -0.0130
24294W        W25158  16.416  25.503  25.016  0.4833 -0.0173  0.0586
24295W        W25159  17.851  22.046  23.738 -0.3205 -0.0785  0.0954
24296W        W25160  17.783  23.488  21.418 -0.0937 -0.0420  0.0296
24297W        W25161  17.702  22.072  23.239 -0.1303 -0.0271  0.1270
24298W        W25162  16.278  23.813  22.072  0.0931  0.0863 -0.1166
24299W        W25163  14.989  25.699  23.595 -0.1645  0.0384 -0.0350
24300W        W25164  17.065  25.356  25.936 -0.0480  0.2036 -0.0956
24301W        W25165  15.432  23.011  24.536 -0.1136 -0.1879 -0.2956
24302W        W25166  21.071  23.051  26.600 -0.0677 -0.0494  0.1701
24303W        W25167  20.644  23.644  24.058  0.0933 -0.2477  0.2603
24304W        W25168  15.671  28.179  28.379  0.0109  0.0929 -0.2700
24305W        W25169  15.588  21.749  20.896  0.1238  0.2269  0.2245
24306W        W25170  17.705  23.966  22.698  0.0166 -0.4872  0.1733
24307W        W25171  16.680  22.654  25.495  0.0779 -0.2109 -0.0846
24308W        W25172  18.185  21.982  26.940  0.1987 -0.0127 -0.1252
24309W        W25173  19.642  22.688  23.345 -0.2125 -0.0431 -0.1168
24310W        W25174  15.782  25.808  22.795  0.1167  0.3624 -0.1367
24311W        W25175  18.865  21.569  24.087  0.1524  0.0065  0.1877
24312W        W25176  16.290  22.409  23.544 -0.2722 -0.0694  0.1092
24313W        W25177  17.787  23.681  26.735  0.0682  0.1784 -0.1502
24314W        W25178  14.240  22.223  23.467  0.0164  0.0532 -0.2236
24315W        W25179  19.211  23.137  21.738  0.0307  0.3237 -0.2021
24316W        W25180  16.959  21.694  25.561 -0.1374  0.0177  0.2071
24317W        W25181  17.589  25.647  23.641 -0.0024 -0.0640 -0.0383
24318W        W25182  16.605  24.247  20.266  0.0483 -0.3137  0.1510
24319W        W25183  18.263  25.879  26.401  0.0395 -0.0453  0.0059
24320W        W25184  16.577  25.780  23.860  0.3725 -0.1520  0.2082
24321W        W25185  16.532  22.502  24.344  0.5564 -0.1960 -0.2410
24322W        W25186  16.331  22.743  21.858 -0.0465 -0.0091 -0.2845
24323W        W25187  16.256  22.924  24.322 -0.1958 -0.1099 -0.2623
24324W        W25188  13.254  20.823  24.982 -0.0615 -0.1811 -0.1159
24325W        W25189  15.755  21.447  23.316  0.3482 -0.0799  0.1116
24326W        W25190  15.768  22.574  23.226 -0.1064 -0.4643 -0.1318
24327W        W25191  18.090  24.630  22.194 -0.0290  0.1369  0.2488
24328W        W25192  20.040  22.444  22.964  0.0233  0.1191  0.2742
24329W        W25193  15.177  22.001  26.809  0.1751 -0.1260 -0.0616
24330W        W25194  18.854  23.393  24.656 -0.1714 -0.2172 -0.2148
24331W        W25195  15.038  20.201  21.806  0.0371 -0.0412  0.0946
24332W        W25196  14.283  21.868  25.609  0.1081 -0.4011 -0.3345
24333W        W25197  14.770  25.262  23.405  0.0232 -0.0703  0.1188
24334W        W25198  20.229  24.224  23.272  0.0968  0.0627 -0.1363
24335W        W25199  19.560  22.507  22.867 -0.0014  0.0533 -0.1514
24336W        W25200  15.433  24.390  22.115 -0.1902  0.1363  0.0746
24337W        W25201  18.011  24.723  20.545  0.2999  0.0594  0.0189
24338W        W25202  15.916  21.195  22.781  0.2443 -0.1045  0.2300
24339W        W25203  15.403  22.684  24.922 -0.2351  0.2561  0.0302
24340W        W25204  17.378  23.966  25.601 -0.2219  0.2740 -0.3307
24341W        W25205  19.222  22.079  20.826 -0.2801 -0.1041  0.1763
24342W        W25206  15.879  21.734  22.881 -0.1029  0.0177 -0.1316
24343W        W25207  17.833  22.523  25.363  0.1773 -0.1518  0.2754
24344W        W25208  19.064  24.482  24.914 -0.0413 -0.1094  0.1424
24345W        W25209  18.411  23.630  24.226  0.2062  0.0370  0.2224
24346W        W25210  14.792  23.008  27.159  0.0968 -0.1310 -0.0587
24347W        W25211  16.513  25.324  25.934 -0.0930 -0.0950  0.0903
24348W        W25212  16.948  24.601  22.958  0.1932 -0.2990  0.1880
24349W        W25213  15.957  26.579  22.285 -0.1623  0.1091 -0.0451
24350W        W25214  14.838  23.416  24.765 -0.3029  0.1186  0.0558
24351W        W25215  20.449  23.095  20.996 -0.0178 -0.1850  0.1113
24352W        W25216  15.826  23.157  21.073  0.2173  0.0823 -0.2027
24353W        W25217  15.018  24.172  25.930  0.0816  0.1290 -0.3908
24354W        W25218  16.899  22.918  24.227  0.0023 -0.2027 -0.0378
24355W        W25219  14.049  23.150  25.943  0.1311  0.0999  0.0344
24356W        W25220  17.744  23.962  26.160  0.0831  0.2174  0.0802
24357W        W25221  20.094  22.076  26.077  0.0310  0.1684  0.1054
24358W        W25222  13.869  21.029  28.407  0.0930 -0.1007 -0.0868
24359W        W25223  13.514  22.800  22.183  0.0553  0.0776 -0.1164
24360W        W25224  18.419  22.510  22.068 -0.1949 -0.1697 -0.1917
24361W        W25225  16.685  26.526  26.045  0.0900  0.3497 -0.1358
24362W        W25226  16.133  25.907  24.313 -0.1201  0.0457 -0.1196
24363W        W25227  16.994  24.263  24.800  0.2864 -0.2784  0.1426
24364W        W25228  16.194  23.615  24.126 -0.3870  0.1163  0.1480
24365W        W25229  16.682  27.026  23.146  0.1983 -0.0941  0.3507
24366W        W25230  18.045  24.056  23.048 -0.1092  0.1035 -0.0684
24367W        W25231  16.672  22.984  28.594  0.0168  0.0844 -0.0432
24368W        W25232  18.752  24.445  24.211  0.2568  0.0167  0.2123
24369W        W25233  15.595  25.600  26.121  0.2059  0.1686 -0.1613
24370W        W25234  17.398  22.560  21.584  0.0579  0.1491 -0.1544
24371W        W25235  18.440  23.398  21.677  0.0520  0.0679 -0.2082
24372W        W25236  16.351  24.729  25.637  0.0197  0.0183 -0.2264
24373W        W25237  16.570  23.506  20.762 -0.0258  0.2900 -0.1714
24374W        W25238  18.004  24.299  25.870 -0.0853  0.2174  0.1260
24375W        W25239  13.316  22.688  25.963  0.1310  0.1175  0.0043
24376W        W25240  15.179  24.474  23.697  0.0927  0.1580  0.2195
24377W        W25241  16.236  23.925  25.063  0.1648  0.1816  0.0268
24378W        W25242  15.829  20.912  23.985  0.1144  0.2575  0.0287
24379W        W25243  20.048  22.621  23.641 -0.0179 -0.1232  0.0552
24380W        W25244  18.544  21.523  24.906 -0.2151  0.0152  0.1211
24381W        W25245  14.610  27.493  26.084  0.1228  0.3136 -0.0329
24382W        W25246  14.862  26.015  23.092 -0.1776 -0.0529  0.0213
24383W        W25247  14.602  22.627  26.467 -0.0788  0.0012 -0.0680
24384W        W25248  19.422  26.147  25.615 -0.0766 -0.3207 -0.1804
24385W        W25249  17.195  22.419  22.475 -0.1136  0.1820 -0.1303
24386W        W25250  17.599  23.729  20.895 -0.0463  0.3039  0.0634
24387W        W25251  17.494  26.390  25.130  0.0264 -0.2276  0.3103
24388W        W25252  17.770  23.384  26.312 -0.0539  0.2631 -0.2292
24389W        W25253  18.235  23.845  25.955 -0.2686  0.2197  0.2756
24390W        W25254  19.253  23.901  25.751  0.0040 -0.0113 -0.1636
24391W        W25255  14.849  26.178  23.615 -0.1138 -0.1378  0.1653
24392W        W25256  17.024  24.877  21.421  0.2580  0.0019 -0.0183
24393W        W25257  15.172  23.620  25.107  0.2366 -0.0722  0.1568
24394W        W25258  16.680  23.353  23.458  0.0693 -0.1156 -0.3055
24395W        W25259  15.647  26.780  23.485 -0.2020 -0.2280 -0.2146
24396W        W25260  15.290  26.389  25.451 -0.2056 -0.5850 -0.0436
24397W        W25261  18.119  25.745  28.598  0.1277  0.1409  0.1873
24398W        W25262  15.593  22.097  21.523  0.1300 -0.0098  0.0079
24399W        W25263  19.230  25.099  22.629  0.0863 -0.0721  0.0308
24400W        W25264  15.762  23.379  24.366 -0.2346  0.0432  0.1783
24401W        W25265  13.738  25.250  24.916  0.3890  0.2353 -0.1674
24402W        W25266  14.698  23.773  26.084 -0.2077 -0.0451  0.0449
24403W        W25267  18.970  24.841  20.704 -0.1521  0.0767 -0.1177
24404W        W25268  17.548  24.434  26.051  0.0263 -0.1734 -0.1513
24405W        W25269  18.086  24.481  25.194 -0.0315 -0.0121 -0.1857
24406W        W25270  14.959  24.783  24.045  0.1489  0.4090 -0.0005
24407W        W25271  15.349  23.550  24.625 -0.1636 -0.2852  0.2070
24408W        W25272  15.890  20.183  24.578  0.0832 -0.2268 -0.1371
24409W        W25273  15.021  23.460  21.236 -0.0095  0.1894 -0.3853
24410W        W25274  17.624  22.829  21.229  0.1415  0.0429 -0.0986
24411W        W25275  13.751  22.220  24.186 -0.0545 -0.2682 -0.1133
24412W        W25276  17.406  22.113  25.772 -0.1186  0.5242 -0.1149
24413W        W25277  20.158  21.287  24.214  0.2839 -0.0228 -0.2475
24414W        W25278  19.720  23.698  26.003  0.0960 -0.0141  0.0869
24415W        W25279  17.468  26.657  25.639  0.0352 -0.2979 -0.0807
24416W        W25280  17.597  26.924  24.697  0.0556 -0.0304 -0.1554
24417W        W25281  21.229  24.261  23.455 -0.0689 -0.0925 -0.2328
24418W        W25282  16.178  24.352  26.699  0.3737 -0.0633 -0.2491
24419W        W25283  18.785  24.344  21.579  0.1881 -0.2355 -0.2465
24420W        W25284  18.394  23.552  22.144  0.0049 -0.1257 -0.2940
24421W        W25285  17.152  22.435  25.478 -0.2555 -0.1205 -0.0423
24422W        W25286  14.658  23.907  24.775 -0.1738 -0.1850 -0.2122
24423W        W25287  16.549  22.108  23.913  0.2257 -0.0339  0.0638
24424W        W25288  18.510  22.507  26.222  0.1148 -0.1953 -0.1179
24425W        W25289  16.795  24.927  22.174 -0.2420 -0.2135 -0.2516
24426W        W25290  16.020  23.026  22.726 -0.0018 -0.1403 -0.2247
24427W        W25291  13.265  24.372  26.567  0.1509  0.0556 -0.1868
24428W        W25292  15.089  24.057  24.600  0.1153  0.0282  0.0068
24429W        W25293  13.808  22.502  23.795  0.0765 -0.0426 -0.1657
24430W        W25294  16.806  24.129  22.837  0.1396 -0.0687  0.1112
24431W        W25295  12.544  20.726  22.316 -0.0316 -0.0160 -0.0667
24432W        W25296  17.998  23.825  24.494  0.3491 -0.1151 -0.1436
24433W        W25297  14.892  21.069  22.760  0.1187 -0.1788  0.1822
24434W        W25298  18.033  26.516  25.089 -0.0800 -0.2153 -0.3823
24435W        W25299  19.548  24.284  23.282 -0.0041 -0.2192  0.0068
24436W        W25300  18.259  27.736  22.944 -0.0098 -0.1662 -0.1535
24437W        W25301  17.425  22.177  23.624  0.2330 -0.0307  0.0604
24438W        W25302  16.354  22.961  23.546 -0.1853 -0.1835 -0.0637
24439W        W25303  18.461  21.988  27.406 -0.1837 -0.3665 -0.0100
24440W        W25304  15.410  23.683  26.927 -0.0264 -0.0561 -0.1197
24441W        W25305  14.685  22.419  22.262 -0.0045 -0.1374 -0.1367
24442W        W25306  15.718  24.136  23.889 -0.1988 -0.2493 -0.1276
24443W        W25307  18.669  23.850  26.732 -0.1544  0.1000  0.1458
24444W        W25308  17.548  23.779  24.757  0.0851  0.1520  0.4882
24445W        W25309  20.026  22.920  27.411  0.0184 -0.2161 -0.0575
24446W        W25310  18.492  24.402  23.767 -0.1934 -0.0782  0.1254
24447W        W25311  18.084  26.093  24.520 -0.0566  0.2052  0.0670
24448W        W25312  19.064  26.671  22.092 -0.0701 -0.1858  0.0425
24449W        W25313  16.841  22.607  22.821 -0.1287  0.4052  0.0740
24450W        W25314  19.462  18.668  22.975 -0.0911  0.0226  0.0640
24451W        W25315  20.316  22.397  22.550 -0.0479  0.2581  0.2091
24452W        W25316  12.817  22.159  22.533  0.0889  0.0822  0.0665
24453W        W25317  20.637  22.594  26.061 -0.2533 -0.0896 -0.0888
24454W        W25318  17.434  25.784  22.573  0.0270 -0.0073  0.0828
24455W        W25319  17.793  25.201  23.685 -0.1489 -0.0133  0.2898
24456W        W25320  16.406  24.074  22.467 -0.0451  0.0153  0.0621
24457W        W25321  14.075  22.603  26.610  0.0876 -0.1912  0.4501
24458W        W25322  13.928  21.342  25.388  0.1683  0.1262 -0.1747
24459W        W25323  18.510  25.424  26.349  0.0066 -0.0803  0.0625
24460W        W25324  19.151  23.820  22.968  0.1517 -0.3058 -0.1523
24461W        W25325  15.380  23.188  26.002  0.2929  0.1124  0.1107
24462W        W25326  18.866  27.996  25.574  0.1169  0.2812 -0.2985
24463W        W25327  12.243  24.005  25.696 -0.0037  0.1675 -0.0559
24464W        W25328  14.764  22.068  25.722  0.1150 -0.0191  0.1190
24465W        W25329  16.965  24.277  23.669  0.2471 -0.0787  0.0683
24466W        W25330  18.729  23.059  25.423 -0.1384  0.0888  0.3410
24467W        W25331  18.787  24.486  27.280  0.1649 -0.2284  0.2505
24468W        W25332  17.591  23.770  24.222  0.1057  0.0875  0.0059
24469W        W25333  16.277  25.490  24.125  0.2155 -0.2847  0.1887
24470W        W25334  15.831  24.503  24.363 -0.0658 -0.0163 -0.0797
24471W        W25335  17.876  24.214  24.097 -0.2171 -0.3458 -0.1912
24472W        W25336  17.391  26.057  25.443 -0.3315 -0.1277  0.0400
24473W        W25337  15.595  25.917  24.331  0.1308 -0.0641  0.4511
24474W        W25338  19.215  24.178  21.690  0.0677 -0.2463 -0.0101
24475W        W25339  16.780  23.588  22.984 -0.0151  0.2377  0.1057
24476W        W25340  15.127  25.001  26.707  0.1177  0.1445 -0.1104
24477W        W25341  17.459  23.449  23.688  0.1773 -0.0440  0.2953
24478W        W25342  19.120  24.666  24.446 -0.0842 -0.2740  0.3216
24479W        W25343  15.495  21.011  23.546 -0.2306 -0.0847 -0.1988
24480W        W25344  16.893  25.969  25.446  0.1280  0.2990  0.0627
24481W        W25345  15.988  23.587  20.917  0.2529  0.0551  0.2441
24482W        W25346  13.745  27.248  27.252  0.3713  0.2879 -0.0938
24483W        W25347  17.743  25.963  28.801  0.2111  0.1218 -0.0528
24484W        W25348  18.215  26.597  27.741  0.1707  0.2477 -0.1449
24485W        W25349  19.090  24.279   0.963 -0.2095 -0.0809 -0.0395
24486W        W25350  15.071  25.021  26.201 -0.0175  0.2452 -0.2160
24487W        W25351  16.810  23.674  26.293  0.2914  0.1982 -0.1652
24488W        W25352  14.987  22.212  26.283 -0.0006  0.0557 -0.2310
24489W        W25353  19.190  25.688  26.912 -0.1567 -0.0171 -0.2057
24490W        W25354  18.027  25.362  27.881  0.1367 -0.1308  0.0092
24491W        W25355  14.604  22.575  26.941  0.3226 -0.0435  0.0763
24492W        W25356  11.561  23.814  27.100 -0.0609 -0.2340 -0.0389
24493W        W25357  17.100  21.436  26.392  0.1309 -0.0098 -0.0639
24494W        W25358  18.193  22.774  25.611 -0.1151 -0.0473  0.4997
24495W        W25359  16.524  19.907  27.459 -0.0472  0.0398 -0.0077
24496W        W25360  16.730  20.522  27.021  0.0976 -0.0289  0.2059
24497W        W25361  15.817  25.348   0.530 -0.2298  0.2114 -0.1714
24498W        W25362  16.144  24.200  25.763 -0.1965  0.0161 -0.3668
24499W        W25363  13.075  25.355  27.634  0.0374  0.1351 -0.0169
24500W        W25364  13.939  24.635  29.063  0.0115  0.1421  0.2286
24501W        W25365  18.164  22.883  26.450 -0.3041 -0.2308 -0.2153
24502W        W25366  16.484  24.088  27.999  0.0959  0.2149  0.1948
24503W        W25367  17.276  23.877  28.035 -0.0931  0.0890  0.2426
24504W        W25368  21.056  24.437  26.539 -0.0618  0.1949  0.2068
24505W        W25369  15.268  24.905  27.624  0.1878  0.1812 -0.0273
24506W        W25370  12.445  25.558  26.198  0.0439  0.0537 -0.1917
24507W        W25371  15.807  24.101  28.078 -0.0798  0.1807 -0.1061
24508W        W25372  15.840  23.040  28.445  0.2223 -0.1165 -0.1249
24509W        W25373  16.058  24.192  27.650  0.0418  0.0189  0.0948
24510W        W25374  18.702  25.607  28.165 -0.1077 -0.3202  0.0182
24511W        W25375  17.193  24.401  27.813  0.3075 -0.1294  0.0361
24512W        W25376  18.766  25.910  26.708  0.2952  0.0007  0.0819
24513W        W25377  17.743  27.248   0.362  0.1057 -0.1312 -0.0616
24514W        W25378  16.937  24.529  27.302  0.4672 -0.1224 -0.3605
24515W        W25379  18.286  24.468  27.197 -0.1837  0.1051  0.0016
24516W        W25380  13.115  24.142  28.943 -0.0549  0.0435  0.0741
24517W        W25381  17.974  23.883   1.117  0.0606 -0.2263  0.4855
24518W        W25382  15.090  24.744  27.145 -0.2107 -0.0167 -0.0368
24519W        W25383  18.800  26.293  26.352  0.3184  0.0052 -0.2835
24520W        W25384  17.457  27.353  25.066 -0.0023 -0.1478 -0.3052
24521W        W25385  17.350  23.872  27.056 -0.0018 -0.0622  0.0712
24522W        W25386  17.445  23.132  25.573  0.1350  0.1354  0.3840
24523W        W25387  15.085  21.763   0.473 -0.0941 -0.2007  0.1254
24524W        W25388  15.621  26.659  27.091 -0.2715  0.1114  0.0237
24525W        W25389  16.218  23.307  27.806 -0.1115 -0.0989 -0.0875
24526W        W25390  14.774  26.244  27.264  0.1850  0.1579 -0.1260
24527W        W25391  13.492  26.051  26.498 -0.1771 -0.2058  0.0239
24528W        W25392  13.927  23.307  27.318 -0.0008  0.1706  0.0878
24529W        W25393  18.288  22.434  26.770 -0.3963  0.0925 -0.0787
24530W        W25394  17.999  25.536   0.009  0.0672 -0.1944  0.2320
24531W        W25395  18.879  24.385  26.403  0.0935 -0.0875  0.0433
24532W        W25396  15.950  23.717  27.734 -0.3595  0.0251 -0.1087
24533W        W25397  15.203  23.829  27.335 -0.3916  0.1915 -0.1057
24534W        W25398  16.906  24.009  27.231  0.2097 -0.0301  0.0648
24535W        W25399  19.716  24.489  27.103  0.0727  0.0546 -0.0789
24536W        W25400  17.584  22.822  26.323  0.2734 -0.3253 -0.1715
24537W        W25401  16.712  25.594  26.777  0.3206 -0.1176  0.2464
24538W        W25402  13.530  22.735  27.030  0.0521  0.0005 -0.0030
24539W        W25403  17.411  25.553  28.766  0.2381 -0.1728  0.1028
24540W        W25404  16.062  27.023  26.704  0.3034  0.0730 -0.0763
24541W        W25405  17.347  23.421   0.178  0.1614 -0.0137  0.0446
24542W        W25406  19.403  22.926  27.110 -0.0864  0.0837 -0.0236
24543W        W25407  11.135  24.111  27.204 -0.5039  0.0389 -0.0948
24544W        W25408  14.168  25.266  29.089  0.0639 -0.1519  0.0648
24545W        W25409  16.041  26.571  28.187 -0.0331  0.1381 -0.2144
24546W        W25410  15.191  23.166   0.428 -0.1461  0.1453  0.0749
24547W        W25411  18.938  24.874  27.997  0.0631  0.0694 -0.1083
24548W        W25412  15.714  22.696  25.953  0.1167 -0.0813  0.1976
24549W        W25413  16.936  22.599  25.026 -0.1274  0.3590 -0.0122
24550W        W25414  15.276  24.571  26.070 -0.0770 -0.0364  0.2688
24551W        W25415  17.874  24.914  26.375  0.2579  0.0329  0.1567
24552W        W25416  15.924  24.703   2.071  0.0011  0.2116  0.2743
24553W        W25417  16.280  21.877  26.740 -0.1768  0.0281  0.0906
24554W        W25418  17.814  25.590  27.044 -0.0160 -0.0467  0.0220
24555W        W25419  18.852  24.661   0.155 -0.0769 -0.2147 -0.3293
24556W        W25420  16.732  23.199  27.657 -0.0338 -0.1192 -0.1610
24557W        W25421  16.373  26.692  26.489  0.1287 -0.0640  0.0450
24558W        W25422  14.046  26.658  26.341  0.1372 -0.1390  0.0512
24559W        W25423  16.509  23.824  29.027  0.0673  0.2749  0.2451
24560W        W25424  18.122  24.103  26.839 -0.0289 -0.0997 -0.1437
24561W        W25425  16.898  23.089  26.913 -0.2295 -0.0103  0.0816
24562W        W25426  12.650  23.753  28.934 -0.1246 -0.1882 -0.1675
24563W        W25427  11.845  26.044  28.393  0.1581  0.0860  0.1835
24564W        W25428  14.398  20.924  28.099 -0.2881 -0.2386  0.0144
24565W        W25429  15.808  25.687  28.827 -0.3091  0.1606 -0.0661
24566W        W25430  14.934  24.379   2.228 -0.2171  0.1901  0.0742
24567W        W25431  16.495  21.750  25.411  0.1532  0.0949 -0.0321
24568W        W25432  17.813  22.525   2.075  0.0914 -0.0834  0.0585
24569W        W25433  14.444  22.905   0.189 -0.1558 -0.1162  0.1986
24570W        W25434  17.693  24.184  28.181 -0.0939  0.0302  0.2111
24571W        W25435  16.643  23.566  28.099  0.0361 -0.0297  0.0255
24572W        W25436  16.010  22.186  25.388 -0.0364 -0.1446 -0.1002
24573W        W25437  17.922  22.453   1.244 -0.1109  0.0667 -0.0874
24574W        W25438  14.792  25.683  27.254  0.0958 -0.1084 -0.0152
24575W        W25439  16.023  22.581  27.591 -0.1496  0.1827  0.2866
24576W        W25440  14.190  24.530  27.947 -0.0875  0.2667 -0.0762
24577W        W25441  20.269  21.816  27.130  0.2119  0.0896 -0.1405
24578W        W25442  18.838  26.407   0.515  0.0260  0.0718 -0.0182
24579W        W25443  15.126  25.304  29.117 -0.1640 -0.0285 -0.1405
24580W        W25444  15.023  21.587  27.086 -0.3698 -0.4072 -0.1929
24581W        W25445  20.149  20.353  26.745 -0.0887 -0.2571  0.4501
24582W        W25446  16.897  23.371  24.901 -0.1489  0.0029  0.0403
24583W        W25447  13.017  25.367  26.041 -0.1929  0.3375  0.3356
24584W        W25448  18.126  22.838  23.730  0.1802  0.2012 -0.1729
24585W        W25449  23.380  24.391  26.525 -0.2031 -0.3949 -0.0650
24586W        W25450  17.925  22.755  27.558 -0.2449  0.1113  0.1231
24587W        W25451  15.934  23.448   1.412  0.1314 -0.1932  0.1417
24588W        W25452  16.496  25.937  27.076  0.1580  0.0906  0.2719
24589W        W25453  20.029  26.918   0.496 -0.2209 -0.5620  0.0405
24590W        W25454  15.490  22.487  28.198  0.3345  0.1197 -0.0604
24591W        W25455  12.865  24.048  27.426 -0.0236  0.1071  0.1941
24592W        W25456  15.005  23.695  28.629  0.2704  0.2057 -0.1513
24593W        W25457  16.004  26.795  27.592 -0.2105  0.1378 -0.1203
24594W        W25458  21.507  21.535  26.804  0.2232  0.0389  0.1779
24595W        W25459  17.211  26.651   0.394  0.4120  0.0670 -0.2207
24596W        W25460  16.535  23.634  27.019 -0.0179 -0.0853 -0.0949
24597W        W25461  16.168  21.821  28.146 -0.0044 -0.1898 -0.3542
24598W        W25462  18.961  21.025  26.604  0.1306  0.3871 -0.0930
24599W        W25463  17.196  25.007   0.458  0.0769  0.1491  0.1434
24600W        W25464  16.288  22.933  27.398  0.1769 -0.0857 -0.3691
24601W        W25465  18.325  22.803  25.114 -0.0071 -0.2427  0.0033
24602W        W25466  20.935  23.092  27.844  0.1990 -0.1176  0.1421
24603W        W25467  20.190  25.114  28.278  0.0299 -0.3663 -0.1122
24604W        W25468  17.625  26.735  26.484 -0.1201  0.1066 -0.0933
24605W        W25469  14.265  24.938  27.260  0.3039 -0.0155  0.0504
24606W        W25470  12.450  26.161  28.089  0.0022 -0.1383  0.1371
24607W        W25471  16.512  22.273  28.045 -0.1957  0.0164  0.1187
24608W        W25472  13.001  24.404  27.798 -0.3206 -0.1437  0.0822
24609W        W25473  16.892  22.636  27.787 -0.0810  0.2000 -0.0072
24610W        W25474  20.706  26.499   1.615  0.2166  0.0113 -0.0401
24611W        W25475  15.715  25.816  27.653  0.0634  0.3404  0.0241
24612W        W25476  15.869  26.642  28.740 -0.1387  0.3946  0.2284
24613W        W25477  16.159  23.729  28.176  0.1361  0.1219 -0.0752
24614W        W25478  15.554  26.348   0.329  0.0689  0.1329 -0.0330
24615W        W25479  18.020  22.203  25.785  0.4377  0.2447  0.3665
24616W        W25480  18.354  23.864   0.192  0.2528  0.2076  0.0272
24617W        W25481  14.621  25.411  29.024 -0.0194 -0.1789  0.1378
24618W        W25482  18.595  23.692  28.052  0.1077  0.0615 -0.0936
24619W        W25483  18.526  24.194  28.473 -0.0346 -0.1147  0.0143
24620W        W25484  17.743  26.018  28.264 -0.4665  0.0678 -0.2091
24621W        W25485  17.163  24.902  25.563  0.0353 -0.0480  0.0262
24622W        W25486  14.063  23.827  26.025  0.0853 -0.0822 -0.0966
24623W        W25487  13.963  25.028   0.455  0.0826 -0.1831  0.0458
24624W        W25488  15.307  25.932  26.404 -0.3656  0.1111 -0.0676
24625W        W25489  16.996  23.579  26.760  0.0392 -0.0395 -0.3229
24626W        W25490  18.564  25.322  27.375 -0.2451 -0.2542  0.0469
24627W        W25491  15.579  21.837  25.508 -0.0494 -0.1392  0.0231
24628W        W25492  15.438  23.371  27.305 -0.2290  0.0241  0.0484
24629W        W25493  18.843  24.940  27.023 -0.1349  0.0709  0.4111
24630W        W25494  18.069  25.328   0.598  0.1163  0.0943  0.0064
24631W        W25495  17.128  24.878  28.205 -0.0412 -0.2968  0.0515
24632W        W25496  18.814  26.164   2.352 -0.5987 -0.1421  0.0315
24633W        W25497  11.193  24.718   0.420  0.0152 -0.1423  0.0840
24634W        W25498  16.302  25.720  29.005  0.0988 -0.0362  0.0978
24635W        W25499  13.667  22.330  26.293 -0.0965  0.1170 -0.0218
24636W        W25500  14.847  23.352  26.427 -0.2293  0.3944 -0.1817
24637W        W25501  17.391  21.599  25.876 -0.0171  0.1423 -0.1125
24638W        W25502  15.412  24.945   0.653 -0.1650 -0.0285  0.0387
24639W        W25503  17.145  24.421  25.759  0.0844  0.2121 -0.1677
24640W        W25504  12.925  26.723  24.624  0.2659  0.0310  0.1966
24641W        W25505  17.396  23.311  26.940  0.3994 -0.2242  0.0139
24642W        W25506  15.492  22.681  26.739  0.0766  0.0054 -0.0650
24643W        W25507  14.599  24.512  27.114  0.2155 -0.1194  0.1789
24644W        W25508  18.146  24.800   1.496 -0.2416 -0.1981  0.0807
24645W        W25509  15.223  25.342   0.962  0.3558 -0.0550 -0.0093
24646W        W25510  16.970  22.036  29.086  0.0599 -0.1475  0.2569
24647W        W25511  16.101  26.030  28.457  0.0340  0.0454 -0.1594
24648W        W25512  14.290  19.549  25.554 -0.3845  0.0716 -0.0385
24649W        W25513  14.944  25.534  26.160  0.1279  0.0315 -0.3602
24650W        W25514  17.958  27.030   0.723 -0.1853  0.0037 -0.0229
24651W        W25515  19.287  21.438  26.565 -0.0088 -0.0626  0.1331
24652W        W25516  19.490  23.057  29.118 -0.0177  0.1894 -0.1572
24653W        W25517  16.647  26.088  28.820  0.0913 -0.1275  0.2108
24654W        W25518  16.945  23.927  27.702 -0.2956  0.4666  0.1252
24655W        W25519  17.395  24.510  28.535  0.1698  0.0610 -0.0700
24656W        W25520  14.238  20.160  27.905 -0.0881 -0.1045  0.2048
24657W        W25521  20.212  24.664  27.054  0.0432  0.1897  0.0474
24658W        W25522  16.687  25.318  28.358 -0.1561 -0.1934  0.2303
24659W        W25523  14.842  26.076  26.188 -0.2052 -0.2506 -0.3230
24660W        W25524  14.242  27.082  26.097 -0.2764 -0.1105 -0.2116
24661W        W25525  18.874  20.899  24.937 -0.0758  0.3851 -0.2633
24662W        W25526  14.932  24.954  25.644  0.2625  0.1678 -0.2284
24663W        W25527  18.571  24.699  25.106 -0.0467 -0.1484  0.5026
24664W        W25528  16.766  24.658  25.282  0.0403  0.3678 -0.1668
24665W        W25529  18.647  23.587  26.131  0.2331  0.0640  0.0539
24666W        W25530  16.972  23.282  25.824 -0.0938 -0.0370  0.0071
24667W        W25531  15.882  24.135   1.917  0.1677  0.1088 -0.1370
24668W        W25532  18.732  23.825  25.648  0.1719  0.2145  0.0943
24669W        W25533  11.686  19.654  24.178  0.0355 -0.1484 -0.1630
24670W        W25534  17.836  26.052  27.214  0.5697  0.1048 -0.0931
24671W        W25535  18.320  24.910  28.742 -0.1865 -0.2564  0.2899
24672W        W25536  14.147  23.083  26.421 -0.1182 -0.1576 -0.0928
24673W        W25537  12.562  23.528  25.684 -0.0962 -0.1870  0.0818
24674W        W25538  13.526  25.251  27.679 -0.1327  0.0609  0.0111
24675W        W25539  14.849  21.765  26.474 -0.3772 -0.2698  0.0465
24676W        W25540  17.913  21.411  25.928 -0.1577  0.2241 -0.2248
24677W        W25541  14.572  21.612  28.479  0.0914  0.2700  0.0702
24678W        W25542  18.574  21.687  26.976  0.4376 -0.1558  0.0067
24679W        W25543  14.315  22.331   0.399  0.0263 -0.1392  0.0310
24680W        W25544  15.012  23.421  28.169 -0.0886  0.2156  0.1880
24681W        W25545  19.819  21.766  27.366  0.3373 -0.0448 -0.0321
24682W        W25546  14.202  22.194  25.185 -0.1739 -0.1210  0.0559
24683W        W25547  17.097  22.298  26.106  0.0277  0.1762 -0.0581
24684W        W25548  20.526  24.091  25.811 -0.0510  0.3254  0.3214
24685W        W25549  13.934  23.055  26.853 -0.1952  0.0938 -0.2172
24686W        W25550  16.623  26.912  26.871  0.0569 -0.0817  0.0828
24687W        W25551  15.668  24.228  25.829  0.0722 -0.1335 -0.0849
24688W        W25552  15.541  24.917  26.964 -0.1387 -0.0856 -0.1136
24689W        W25553  15.485  23.194  26.741  0.2525  0.0413 -0.0418
24690W        W25554  18.456  24.704  27.659  0.1143  0.0494  0.1908
24691W        W25555  15.028  23.159  25.202 -0.2386  0.1106  0.1761
24692W        W25556  15.447  24.049   0.125 -0.0909 -0.2613  0.0982
24693W        W25557  15.270  24.715  28.467 -0.0626  0.0594  0.1810
24694W        W25558  16.204  24.720  24.591  0.2236  0.2054 -0.2404
24695W        W25559  17.816  20.634  27.893  0.2705 -0.0224 -0.2077
24696W        W25560  18.511  25.201  27.925  0.0087 -0.1589 -0.0319
24697W        W25561  18.755  23.598  25.200 -0.1779 -0.1054  0.0899
24698W        W25562  16.904  25.680  28.603 -0.4400 -0.0672 -0.1912
24699W        W25563  16.521  26.413  25.018 -0.0621 -0.0949 -0.1327
24700W        W25564  17.475  21.560   1.314 -0.0447 -0.0037  0.1587
24701W        W25565  16.748  23.543   0.604  0.1089 -0.4140 -0.1980
24702W        W25566  16.212  22.611  27.048  0.0935 -0.1188 -0.0603
24703W        W25567  16.460  23.420  26.553 -0.0651 -0.0486 -0.2209
24704W        W25568  16.938  26.596   1.998 -0.0055  0.1446  0.2949
24705W        W25569  13.768  23.594  26.896 -0.2245  0.0810 -0.0544
24706W        W25570  17.717  24.654  24.900  0.1442 -0.0077 -0.0266
24707W        W25571  13.926  25.490  28.752  0.3078 -0.4129 -0.1573
24708W        W25572  15.197  27.904  27.465 -0.1442  0.0437  0.2457
24709W        W25573  17.142  24.025  26.129  0.1530 -0.0459 -0.2580
24710W        W25574  16.152  24.006  27.116  0.0415 -0.0816  0.1868
24711W        W25575  16.981  22.688  26.374  0.0661 -0.1225 -0.0059
24712W        W25576  13.159  25.017  27.225 -0.0059 -0.0108  0.4029
24713W        W25577  17.976  24.899  27.731 -0.1203 -0.1276 -0.0758
24714W        W25578  14.536  27.036  26.547 -0.1031 -0.0775 -0.0526
24715W        W25579  19.990  21.381  25.184 -0.0238 -0.0302  0.2564
24716W        W25580  12.881  23.491  26.542  0.2101  0.0896  0.1682
24717W        W25581  16.029  25.689  27.014  0.0192 -0.1158 -0.1441
24718W        W25582  19.016  23.158   0.084  0.2283  0.1755  0.4748
24719W        W25583  16.675  23.351  29.046  0.1321 -0.1287 -0.2574
24720W        W25584  20.129  27.337  26.924  0.0800  0.1169 -0.0642
24721W        W25585  19.295  25.876  27.544  0.3622 -0.0125  0.0925
24722W        W25586  16.499  25.994  24.670  0.1547 -0.2611 -0.2669
24723W        W25587  14.193  25.271  26.650 -0.3391 -0.3383 -0.3361
24724W        W25588  15.797  24.989  28.162  0.0705 -0.2043  0.3668
24725W        W25589  16.302  24.957   0.001  0.2648  0.1445 -0.1419
24726W        W25590  20.146  23.326   0.384 -0.0360 -0.3025 -0.2738
24727W        W25591  16.201  23.297   0.088  0.0770  0.0049 -0.1436
24728W        W25592  18.497  21.867  25.437 -0.0905 -0.1440 -0.1136
24729W        W25593  17.575  25.353   0.271 -0.1064  0.1106 -0.2818
24730W        W25594  16.892  25.635  27.997 -0.3014  0.1317 -0.0159
24731W        W25595  15.739  22.561  27.199 -0.0849 -0.2447 -0.4223
24732W        W25596  14.395  23.485  25.837 -0.0551 -0.6456 -0.1542
24733W        W25597  15.985  28.541  26.998 -0.1304 -0.0188 -0.0248
24734W        W25598  17.406  26.278  26.512 -0.0385  0.1218 -0.1608
24735W        W25599  17.114  21.606  27.852  0.2726 -0.1387 -0.0713
24736W        W25600  15.638  23.540  25.295  0.0282  0.1204  0.1630
24737W        W25601  18.616  20.320  25.708  0.1148  0.1410 -0.1524
24738W        W25602  19.035  19.581  25.858  0.0530 -0.0911 -0.2029
24739W        W25603  15.967  21.930  26.355 -0.1619  0.1369  0.2262
24740W        W25604  18.066  25.639  27.482 -0.1494  0.1344 -0.2230
24741W        W25605  19.235  26.184  28.363 -0.1158 -0.1503  0.0566
24742W        W25606  14.901  24.662  25.107 -0.1992  0.2057  0.1449
24743W        W25607  18.714  26.359  27.137 -0.1855 -0.1505 -0.3277
24744W        W25608  18.604  25.102   0.770 -0.2246 -0.0295 -0.0593
24745W        W25609  17.424  22.200   0.008 -0.1216 -0.0011  0.2141
24746W        W25610  16.621  25.539  24.558 -0.0289  0.2881 -0.0091
24747W        W25611  15.062  24.504  27.961 -0.1301 -0.0824 -0.0163
24748W        W25612  14.109  25.011  25.142  0.3559  0.3964 -0.0159
24749W        W25613  19.530  22.780  26.438 -0.2341 -0.1384  0.1918
24750W        W25614  13.454  25.327   0.405 -0.1604 -0.1711 -0.0530
24751W        W25615  18.421  22.845  28.452 -0.2721  0.2130 -0.0720
24752W        W25616  13.247  22.810  25.460  0.2206 -0.1787  0.2429
24753W        W25617  15.380  24.940  28.903  0.1021  0.1076 -0.2635
24754W        W25618  16.504  24.186   0.242 -0.0525 -0.0138 -0.1297
24755W        W25619  17.159  25.367  27.674  0.1585 -0.4362 -0.2824
24756W        W25620  20.683  24.493  27.808 -0.1076 -0.0159 -0.0960
24757W        W25621  17.810  21.109  27.419 -0.1719  0.0097 -0.3142
24758W        W25622  11.774  24.569   1.213 -0.1820 -0.2418 -0.2005
24759W        W25623  17.583  24.137  26.629 -0.0063 -0.3295 -0.0505
24760W        W25624  14.773  23.031  27.794 -0.0033 -0.0860  0.0352
24761W        W25625  14.801  24.911  28.926  0.1793 -0.1803  0.1228
24762W        W25626  16.560  24.492  27.748  0.0516 -0.0173  0.2131
24763W        W25627  16.347  24.265  24.269  0.0676  0.3372  0.2050
24764W        W25628  13.637  24.133  26.320 -0.0775 -0.0693  0.3802
24765W        W25629  13.415  25.739  26.125 -0.1413  0.1422  0.1144
24766W        W25630  18.746  24.286  25.855 -0.1300  0.0489 -0.0151
24767W        W25631  16.985  22.953   0.185  0.1097  0.1352 -0.1357
24768W        W25632  17.401  24.845  26.590 -0.1562 -0.1145 -0.1475
24769W        W25633  16.584  24.765   0.822 -0.4390  0.2392 -0.0226
24770W        W25634  16.882  22.001  26.477 -0.0575  0.0417  0.2052
24771W        W25635  16.404  24.287  23.325 -0.2241  0.0775 -0.1255
24772W        W25636  14.372  25.449  27.186  0.1783  0.0890  0.0417
24773W        W25637  18.367  25.038  25.993 -0.2070  0.0749 -0.0823
24774W        W25638  17.839  22.281  27.783  0.1705 -0.2611  0.2437
24775W        W25639  13.473  25.609  29.007  0.0278  0.1501  0.0232
24776W        W25640  13.141  22.845  27.778  0.2836 -0.1088 -0.0375
24777W        W25641  18.309  20.671  25.997  0.0578  0.2397 -0.0448
24778W        W25642  17.195  20.620  26.700 -0.2777  0.0251  0.4156
24779W        W25643  18.955  27.489  28.773  0.0875  0.2543  0.1940
24780W        W25644  17.637  24.210  28.907 -0.3030  0.4105  0.1879
24781W        W25645  14.575  28.932  26.326 -0.2055 -0.1131 -0.0533
24782W        W25646  16.174  25.660  26.071 -0.0048  0.0655  0.1689
24783W        W25647  14.912  24.149  26.854  0.1020 -0.3419 -0.1411
24784W        W25648  17.595  26.517   1.221  0.0153  0.1373 -0.2361
24785W        W25649  18.542  24.162  27.701  0.0100  0.1714  0.0277
24786W        W25650  16.067  25.125  25.631  0.1432 -0.1763  0.2352
24787W        W25651  15.722  26.154  28.054  0.1335 -0.0360 -0.0193
24788W        W25652  14.994  23.995  29.048 -0.1746 -0.0954  0.2262
24789W        W25653  18.143  20.174  26.008 -0.1296 -0.0338  0.4258
24790W        W25654  16.502  23.448  25.942  0.0891 -0.0652  0.0947
24791W        W25655  12.585  25.123  26.424  0.0223  0.3299  0.1038
24792W        W25656  14.966  22.867  24.771  0.0003 -0.1569 -0.1072
24793W        W25657  17.794  24.530   0.328  0.1206  0.0158  0.1907
24794W        W25658  15.548  23.629  26.450 -0.0523  0.1312 -0.0298
24795W        W25659  17.313  22.982  28.301  0.1140  0.0534 -0.2361
24796W        W25660  14.055  25.316  27.657  0.0087 -0.0233 -0.2261
24797W        W25661  15.316  25.812  28.166  0.2766 -0.0900  0.2212
24798W        W25662  18.204  23.543  26.962 -0.0082  0.2248 -0.0463
24799W        W25663  18.001  24.314  26.377  0.2089  0.0530 -0.2943
24800W        W25664  20.306  25.008   1.098  0.0650  0.3485 -0.0112
24801W        W25665  16.248  24.974  28.484 -0.3406  0.3065  0.2569
24802W        W25666  15.907  23.660   1.958  0.1768 -0.0378  0.0921
24803W        W25667  18.785  23.973  24.523 -0.0646  0.2156 -0.0520
24804W        W25668  14.620  24.402  29.045 -0.2842 -0.0293  0.0059
24805W        W25669  19.334  24.788  27.295 -0.1208  0.1214  0.0611
24806W        W25670  17.039  24.120  26.636  0.3534 -0.2167 -0.3428
24807W        W25671  16.336  25.158   0.499 -0.0681  0.0749 -0.0205
24808W        W25672  17.818  26.439  28.880 -0.1848 -0.1933  0.1553
24809W        W25673  13.400  27.468  24.960 -0.5120 -0.2233 -0.0264
24810W        W25674  18.403  24.526  26.133  0.3024  0.2368  0.0826
24811W        W25675   9.920  25.810  27.332 -0.1218 -0.0578  0.0955
24812W        W25676  16.058  23.651  28.834  0.0584 -0.1222  0.2715
24813W        W25677  17.347  23.418  24.469 -0.1095  0.0030 -0.0012
24814W        W25678  19.481  23.924   0.973  0.0365 -0.0508  0.0270
24815W        W25679  18.707  24.256   1.342  0.0980 -0.3687  0.1296
24816W        W25680  19.284  24.899   0.281 -0.2659  0.1519 -0.0783
24817W        W25681  18.668  25.975   1.935 -0.1476  0.1906  0.1147
24818W        W25682  19.643  26.063  27.971 -0.1640 -0.0498  0.2538
24819W        W25683  19.083  24.697   0.687  0.1981  0.0220 -0.1169
24820W        W25684  17.579  22.913  28.696 -0.1390  0.0211 -0.0864
24821W        W25685  19.501  21.844  25.063 -0.3362  0.0863  0.3095
24822W        W25686  14.204  26.608  25.788 -0.1019  0.1761 -0.0996
24823W        W25687  16.160  22.716  25.669  0.1707 -0.1353  0.1079
24824W        W25688  14.458  22.879  25.618  0.2081  0.3028  0.0313
24825W        W25689  16.303  24.905  26.103 -0.0390  0.1900 -0.0251
24826W        W25690  15.848  25.030  28.803  0.1122 -0.3560 -0.0612
24827W        W25691  15.869  22.508  28.570  0.3340  0.1041  0.0440
24828W        W25692  14.270  24.790  25.932 -0.0441  0.1422 -0.2795
24829W        W25693  14.075  24.458  27.163 -0.1500 -0.0563  0.0088
24830W        W25694  18.080  25.538  26.015 -0.0990 -0.3073 -0.0578
24831W        W25695  16.371  19.408  27.803 -0.3527 -0.0661  0.2054
24832W        W25696  17.598  25.149  27.964 -0.2185 -0.0547  0.0200
24833W        W25697  18.966  24.031  23.872  0.1249 -0.0769 -0.0081
24834W        W25698  18.154  25.810  28.078  0.1479 -0.0101 -0.1972
24835W        W25699  17.057  26.416  25.678  0.0364 -0.0520  0.0821
24836W        W25700  13.893  25.341  27.141  0.0084  0.3302 -0.2162
24837W        W25701  15.718  23.042  26.305 -0.0995  0.1037 -0.2244
24838W        W25702  14.600  25.960  26.777 -0.1657  0.0359 -0.0289
24839W        W25703  18.288  21.390  29.001  0.0529  0.0905  0.1361
24840W        W25704  15.524  24.042   1.098 -0.0816  0.0717 -0.0165
24841W        W25705  17.558  23.730  29.039 -0.0786 -0.1596  0.2024
24842W        W25706  14.190  22.647  26.114 -0.2089 -0.1104 -0.2616
24843W        W25707  15.500  24.527  27.408  0.1019 -0.1864  0.0424
24844W        W25708  16.299  23.428   0.857 -0.0656  0.4246 -0.0826
24845W        W25709  15.991  23.469  26.201 -0.0082 -0.0102  0.6445
24846W        W25710  19.561  25.472  25.483 -0.2747  0.0280  0.0437
24847W        W25711  17.508  23.415  28.682  0.0746  0.1950 -0.0498
24848W        W25712  17.415  26.322  27.407  0.1454 -0.1948 -0.2500
24849W        W25713  19.029  25.330  27.758  0.0713 -0.3823 -0.1909
24850W        W25714  16.125  22.178  27.210 -0.1674 -0.1142 -0.1261
24851W        W25715  19.699  22.383  26.105 -0.0135  0.1120  0.0423
24852W        W25716  16.391  23.895  26.059 -0.2462 -0.3824  0.1049
24853W        W25717  19.781  23.978  27.459 -0.3018 -0.2823  0.3022
24854W        W25718  17.079  24.541  26.396 -0.1898  0.0486  0.0215
24855W        W25719  16.773  24.661  28.605 -0.1986 -0.0676  0.0634
24856W        W25720  17.778  24.592  26.799 -0.1483  0.1577  0.0288
24857W        W25721  11.692  26.945   0.111 -0.0010 -0.0912 -0.2246
24858W        W25722  16.991  21.152  27.661  0.0438  0.3272 -0.2499
24859W        W25723  16.915  24.851  27.667 -0.1289  0.1642  0.0404
24860W        W25724  16.810  23.022  28.111  0.0500 -0.0234 -0.0701
24861W        W25725  12.750  25.960  28.451 -0.4619  0.2085 -0.0341
24862W        W25726  14.376  25.657  25.259 -0.1484  0.0923 -0.1423
24863W        W25727  14.574  24.249  25.317 -0.0556 -0.0379 -0.1280
24864W        W25728  14.975  23.937  27.749  0.0379 -0.1117  0.0652
24865W        W25729  17.539  25.041  28.469  0.7088 -0.0770  0.1096
24866W        W25730  17.061  24.418   2.969  0.1600  0.4922 -0.1136
24867W        W25731  17.041  22.533  28.887 -0.0611  0.0958  0.0285
24868W        W25732  16.862  27.082  27.799 -0.0445 -0.0831 -0.0015
24869W        W25733  16.158  25.904  27.428 -0.3460  0.0374 -0.0598
24870W        W25734  14.405  24.968  27.729 -0.1162 -0.2534 -0.0709
24871W        W25735  17.051  25.648   2.342 -0.0449  0.1830  0.0885
24872W        W25736  17.415  26.491   2.105  0.1145 -0.1136 -0.1021
24873W        W25737  13.148  24.373  28.416  0.2176 -0.1525 -0.3312
24874W        W25738  17.931  25.261  28.726  0.0872  0.4373 -0.1151
24875W        W25739  17.863  26.181  27.738 -0.1537 -0.3253  0.0510
24876W        W25740  14.359  26.041  27.522 -0.1213 -0.1259 -0.0665
24877W        W25741  14.565  24.142   0.620 -0.2571 -0.0697  0.1709
24878W        W25742  15.229  27.401  27.513 -0.0333  0.2256  0.1306
24879W        W25743  15.799  23.997  26.726 -0.2071  0.1173 -0.1186
24880W        W25744  17.119  24.168  28.912  0.0924 -0.1663 -0.3002
24881W        W25745  15.839  23.037  27.074  0.0576  0.2109  0.0291
24882W        W25746  14.216  27.203   1.567 -0.0116  0.0577 -0.0014
24883W        W25747  15.185  26.722   0.306  0.1145 -0.1546  0.2000
24884W        W25748  17.885  27.270   2.567  0.0297 -0.1073  0.1052
24885W        W25749  16.742  27.974   6.139  0.1529 -0.1429  0.1403
24886W        W25750  12.737   0.156   2.276  0.1304 -0.0939  0.1181
24887W        W25751  17.329  24.684   0.047  0.0195 -0.2435  0.0028
24888W        W25752  18.864  25.219   2.163 -0.0603 -0.0741  0.2173
24889W        W25753  16.013  28.051   2.344  0.2929  0.4460 -0.0289
24890W        W25754  14.717   2.375   1.992  0.1440 -0.0507 -0.0711
24891W        W25755  17.128  28.816   1.877 -0.0311 -0.3272  0.0863
24892W        W25756  15.672  23.936   3.572 -0.0649 -0.1176  0.0868
24893W        W25757  17.901  28.326   1.666 -0.1466  0.2604 -0.1983
24894W        W25758  16.351  27.312  27.021 -0.2516 -0.3010 -0.2386
24895W        W25759  16.261  25.258   4.315 -0.3101 -0.0802  0.0167
24896W        W25760  14.108  26.403  29.066  0.4259  0.0694  0.0239
24897W        W25761  16.035  27.468   4.778 -0.1642 -0.0808 -0.2502
24898W        W25762  15.281  27.665   0.450  0.1983  0.3860 -0.0698
24899W        W25763  13.471  28.395   3.361 -0.1482  0.0050 -0.1931
24900W        W25764  15.389  27.219   3.420  0.0609  0.0875 -0.1518
24901W        W25765  19.075  27.035   2.555  0.0185 -0.3493 -0.1189
24902W        W25766  17.008   1.410   2.617 -0.0136 -0.0902  0.0304
24903W        W25767  16.614  26.318   2.582  0.4016  0.0433  0.1949
24904W        W25768  16.803   0.852   2.081 -0.0909  0.2460 -0.2319
24905W        W25769  14.026  29.135   4.524  0.1104  0.0390  0.0052
24906W        W25770  12.018   0.122   3.325 -0.1904  0.2868  0.0674
24907W        W25771  15.642  24.959   3.055  0.1035 -0.2847 -0.0558
24908W        W25772  18.572  26.099   1.395  0.0601 -0.1018 -0.1243
24909W        W25773  16.084   0.008   1.134  0.0715  0.1170  0.2012
24910W        W25774  17.807  28.160   3.308  0.1207  0.1929 -0.0128
24911W        W25775  12.892  27.164   2.447 -0.2201  0.0651 -0.2709
24912W        W25776  17.335   0.605   4.430  0.0975  0.1572  0.2071
24913W        W25777  18.219  28.476   4.716 -0.0386  0.1047 -0.0093
24914W        W25778  16.212   0.502   4.093 -0.0574  0.1408  0.2318
24915W        W25779  17.770  27.890   3.704  0.1309  0.2094 -0.1489
24916W        W25780  13.869  26.371   1.503  0.0727 -0.0109 -0.1791
24917W        W25781  16.677   1.912   3.412 -0.2214 -0.0164 -0.1460
24918W        W25782  12.928  27.653  29.078  0.2701  0.1517 -0.3467
24919W        W25783  15.696  26.987   3.135  0.1367  0.1130  0.1543
24920W        W25784  18.387   0.393  28.957 -0.0957  0.1554 -0.3285
24921W        W25785  16.605  26.486   3.433  0.0441  0.0758 -0.0866
24922W        W25786  17.997  27.875   0.469  0.3733 -0.3241  0.2196
24923W        W25787  20.862  24.768  27.360  0.3366 -0.0738 -0.3585
24924W        W25788  18.328  28.322   3.321 -0.0010 -0.1923 -0.0055
24925W        W25789  17.835   0.522   1.543  0.3058 -0.5028  0.0114
24926W        W25790  17.422   1.327  29.092 -0.2506 -0.0215  0.2203
24927W        W25791  14.445   0.420   2.049 -0.0393  0.0033 -0.1664
24928W        W25792  15.729  24.932   0.222  0.2951  0.2878  0.1673
24929W        W25793  17.638  27.642   3.028  0.2310 -0.0808  0.0917
24930W        W25794  17.628  27.054   1.931  0.0380  0.3589 -0.0325
24931W        W25795  18.535   0.534   0.338 -0.0259  0.0207 -0.0878
24932W        W25796  16.952  27.809   3.951 -0.3469  0.2288  0.1720
24933W        W25797  15.606  27.425   1.228 -0.0116  0.3158  0.0212
24934W        W25798  15.037  28.994   2.544  0.0973  0.0607  0.1565
24935W        W25799  16.811   0.313   1.963  0.0388 -0.2468  0.0710
24936W        W25800  17.268  25.642   1.369 -0.2323  0.1282  0.2993
24937W        W25801  13.166  28.687   1.290 -0.1605 -0.2793  0.1876
24938W        W25802  14.066  26.461   2.331 -0.1473 -0.0011 -0.1950
24939W        W25803  16.081  28.351  28.620  0.2722  0.1191 -0.3403
24940W        W25804  14.583  27.646   2.191  0.1989 -0.0851 -0.2784
24941W        W25805  17.153  27.350   3.245 -0.1455 -0.2561  0.0237
24942W        W25806  17.327   0.867   0.744  0.0994 -0.4251 -0.0098
24943W        W25807  13.958   0.982   3.150 -0.0858  0.3315 -0.0940
24944W        W25808  17.427  28.923   3.113 -0.1874 -0.2469 -0.2898
24945W        W25809  14.351  26.950   3.129  0.0379 -0.2270 -0.2206
24946W        W25810  14.734  25.873   2.311 -0.3308 -0.2611  0.2224
24947W        W25811  17.175  23.298   1.903  0.0182  0.0494  0.0981
24948W        W25812  13.613  28.345   1.908  0.4419 -0.2093 -0.1174
24949W        W25813  14.250  24.567   1.429  0.0795  0.2767  0.3948
24950W        W25814  15.581  28.232   2.337  0.4139  0.2880 -0.0400
24951W        W25815  16.534  27.835   1.957 -0.0306  0.0348  0.1588
24952W        W25816  18.227  28.506   2.636 -0.0865 -0.1223 -0.1196
24953W        W25817  17.033  24.707   1.430  0.2193  0.0082  0.1459
24954W        W25818  17.285   0.194   1.818 -0.1888  0.1497  0.2304
24955W        W25819  16.548  27.550   4.945  0.3917 -0.1395 -0.0287
24956W        W25820  16.373  27.480   2.241  0.0979 -0.0416  0.1851
24957W        W25821  17.106  26.768   1.140  0.0355 -0.0026  0.2509
24958W        W25822  14.344  25.559   0.344  0.1116  0.0077  0.0708
24959W        W25823  15.785  29.053   2.441  0.1714 -0.1061  0.1206
24960W        W25824  17.178  27.762   0.066  0.2931 -0.0122 -0.1662
24961W        W25825  16.451  26.358   1.873  0.0268  0.1819 -0.0209
24962W        W25826  15.401   0.305   1.720  0.3693  0.0162  0.1602
24963W        W25827  13.196  25.916   4.950  0.0349 -0.0086 -0.0133
24964W        W25828  13.113  25.256   4.099  0.1088  0.3904 -0.0705
24965W        W25829  14.743  24.218   2.695 -0.1410  0.0665 -0.0874
24966W        W25830  17.632  23.639   3.968 -0.0568 -0.1032 -0.0829
24967W        W25831  17.794  27.724   0.987  0.0340 -0.0057 -0.1898
24968W        W25832  19.862  28.534   1.513  0.0033  0.0493 -0.0473
24969W        W25833  16.818  28.276   4.175  0.0645 -0.0711 -0.1292
24970W        W25834  17.990  25.709   6.997 -0.2524  0.0330 -0.1309
24971W        W25835  18.304  24.278   2.610 -0.3033 -0.0407 -0.1050
24972W        W25836  18.667  28.732   1.730  0.1478  0.0787  0.0846
24973W        W25837  18.005  27.989   4.196  0.4574 -0.0623  0.1373
24974W        W25838  13.472  28.580   3.974  0.1688  0.2007 -0.1999
24975W        W25839  16.389  24.374   2.002  0.3297  0.0903 -0.0526
24976W        W25840  12.482  23.357   5.866  0.1447  0.4881 -0.0006
24977W        W25841  18.526  27.437   1.773  0.3105  0.3181 -0.2163
24978W        W25842  19.091  26.013   0.842 -0.0711  0.1836  0.2414
24979W        W25843  15.423  28.673   3.662 -0.3068  0.0581  0.4030
24980W        W25844  15.026  26.178   0.270 -0.3109 -0.1496 -0.2250
24981W        W25845  17.657  27.638   2.030  0.0776  0.2738 -0.1208
24982W        W25846  16.296   2.882  28.536 -0.0961 -0.0040  0.2234
24983W        W25847  15.036  26.128   1.464 -0.1107 -0.4125 -0.1128
24984W        W25848  19.059  25.229   1.020 -0.2592 -0.1991  0.0717
24985W        W25849  19.546   0.778   6.633 -0.0192 -0.0681 -0.1655
24986W        W25850  17.711  26.723   4.123  0.3229  0.2101  0.1035
24987W        W25851  16.469  27.384   3.550  0.1274 -0.3012 -0.0628
24988W        W25852  19.145  28.197   3.809  0.2632  0.2339  0.0589
24989W        W25853  17.704  28.290   5.673 -0.3118  0.0374 -0.2936
24990W        W25854  17.018  24.556   5.206  0.0373 -0.0906  0.3529
24991W        W25855  14.668  25.482   1.476  0.0491 -0.1498 -0.0913
24992W        W25856  15.934  27.423   3.469 -0.2035  0.0245  0.1451
24993W        W25857  15.945  29.134   2.902 -0.0084  0.0565  0.0024
24994W        W25858  18.335  25.546   0.976 -0.2956  0.3496 -0.2188
24995W        W25859  16.957  28.436   3.677  0.0818 -0.0042  0.0420
24996W        W25860  18.861   0.729   0.036 -0.3056  0.1483 -0.0861
24997W        W25861  14.286  25.484   2.876  0.3622  0.0870  0.1423
24998W        W25862  17.088  25.297   3.438 -0.0267 -0.2145 -0.2214
24999W        W25863  17.421  26.931   3.368 -0.1120  0.0071 -0.1600
25000W        W25864  17.104  25.904   3.252  0.1485  0.1070 -0.1028
25001W        W25865  16.224  28.235   2.812  0.2142 -0.0231 -0.1241
25002W        W25866  19.170  28.402  28.747 -0.0873 -0.2204  0.0703
25003W        W25867  16.349   0.254   1.902  0.0656  0.0447  0.2294
25004W        W25868  16.439   0.930   0.657 -0.1203 -0.2248 -0.2659
25005W        W25869  18.216   0.790   0.624  0.1270 -0.2081 -0.2173
25006W        W25870  15.986  26.101   1.093  0.0432  0.0071  0.2973
25007W        W25871  18.005  27.288   1.207 -0.2772 -0.1883 -0.1090
25008W        W25872  14.745  25.544   0.787  0.1658  0.0034 -0.2176
25009W        W25873  18.307  27.613   2.726  0.0997 -0.3283  0.0027
25010W        W25874  16.613   0.650   1.061 -0.3206  0.0125 -0.0372
25011W        W25875  14.309  28.380   2.629 -0.0520  0.1047  0.0731
25012W        W25876  18.713   0.248   4.228 -0.0565 -0.0669  0.2681
25013W        W25877  16.531  27.220   2.674  0.0994  0.0603 -0.5031
25014W        W25878  17.781   0.681   3.593 -0.4098  0.0952 -0.3010
25015W        W25879  17.978  25.748   1.260  0.1832  0.0582 -0.2462
25016W        W25880  18.484  29.055   2.545  0.0430 -0.1730 -0.1164
25017W        W25881  14.579  24.508   4.182  0.2609  0.0085 -0.0718
25018W        W25882  18.287  28.120   0.769 -0.3156 -0.0728 -0.1689
25019W        W25883  17.137  23.163   5.167  0.0272  0.2087  0.2709
25020W        W25884  14.154  28.771   5.638  0.0791  0.0789  0.1605
25021W        W25885  15.093   0.197   2.871  0.1616 -0.1865 -0.0334
25022W        W25886  14.806  25.177   1.822  0.3032  0.2511  0.0955
25023W        W25887  14.269  24.926   2.702  0.0489  0.3108  0.1526
25024W        W25888  16.306  28.910   1.605  0.0291 -0.1001  0.0479
25025W        W25889  13.971   1.001   0.936 -0.2219 -0.1637 -0.0386
25026W        W25890  17.231  28.173   4.828 -0.0648  0.0988  0.1232
25027W        W25891  16.381  27.723   0.257 -0.0545  0.1192  0.0115
25028W        W25892  17.527  25.081  28.953  0.0581  0.2697 -0.0243
25029W        W25893  12.208  26.817   2.069  0.1408 -0.0599 -0.0829
25030W        W25894  16.558   2.675   0.715  0.4041 -0.1248 -0.0704
25031W        W25895  18.325  28.388   4.186  0.0420 -0.0329  0.2141
25032W        W25896  16.939  26.012   2.729 -0.2140  0.2073  0.1346
25033W        W25897  14.544  26.686   0.111 -0.2724  0.0630  0.0011
25034W        W25898  14.769  27.864   3.265  0.0393 -0.2270 -0.1082
25035W        W25899  15.739  26.956   1.184  0.1861 -0.2455 -0.2278
25036W        W25900  16.904  28.801   0.787 -0.1997 -0.0607 -0.2034
25037W        W25901  16.015  26.520   2.690  0.0404  0.1587  0.2638
25038W        W25902  15.244  27.462   3.040 -0.1174 -0.0948  0.1007
25039W        W25903  17.160  25.918  27.709  0.3928  0.0433  0.0986
25040W        W25904  17.106  25.624   1.893  0.0145 -0.1297  0.2367
25041W        W25905  14.581  26.287  28.793 -0.0955 -0.0798 -0.0650
25042W        W25906  17.416  27.122   3.944 -0.0156  0.0585 -0.0182
25043W        W25907  15.188  28.203   3.602 -0.4287 -0.0814 -0.0023
25044W        W25908  19.536  22.800   4.295 -0.0636  0.1004  0.1630
25045W        W25909  18.192  26.475   3.512  0.0744  0.2388 -0.2784
25046W        W25910  14.425  24.263   5.195 -0.1982 -0.0014  0.0985
25047W        W25911  15.424   0.005   0.616  0.0861  0.1257  0.0598
25048W        W25912  14.403  25.104   0.689  0.2331 -0.0904 -0.0730
25049W        W25913  16.920   1.497   0.090  0.0429  0.0500 -0.0407
25050W        W25914  17.902  27.116   4.721  0.2961 -0.1511  0.1884
25051W        W25915  15.218  27.589   1.471  0.4401  0.2882  0.2552
25052W        W25916  17.253   0.729   1.734 -0.0498 -0.2997 -0.0707
25053W        W25917  18.747  26.733   1.414  0.0247  0.1327  0.1573
25054W        W25918  18.735  28.885   3.524  0.2437 -0.2226 -0.0388
25055W        W25919  17.817  26.678   0.345  0.2630 -0.1210 -0.1897
25056W        W25920  20.001  25.694   0.545  0.2354 -0.2348  0.3082
25057W        W25921  15.680  27.850   1.535  0.0863 -0.0647  0.3186
25058W        W25922  14.259  28.726   2.985 -0.0559  0.1810 -0.2242
25059W        W25923  12.600  25.745   0.248 -0.0102  0.2174 -0.1422
25060W        W25924  13.648   2.000   2.436  0.2798  0.2543 -0.1556
25061W        W25925  16.496  24.264   3.073 -0.2547 -0.2469  0.1913
25062W        W25926  14.094  28.537  28.428 -0.1898  0.1078 -0.1804
25063W        W25927  16.380   0.783   0.122 -0.1277  0.3394  0.1533
25064W        W25928  17.105  27.229  28.993  0.2234 -0.0459 -0.1436
25065W        W25929  15.663  27.940   2.701  0.0082  0.0248  0.0871
25066W        W25930  18.385  25.197   0.182  0.0913 -0.0434 -0.2861
25067W        W25931  18.335  28.303   6.892  0.2053  0.0415 -0.1639
25068W        W25932  18.614  24.654   1.595 -0.5277  0.2253 -0.2113
25069W        W25933  14.946  25.203  28.577 -0.0910 -0.1404 -0.0785
25070W        W25934  14.735  25.560   4.787 -0.0880 -0.0916 -0.1062
25071W        W25935  15.815  28.517   4.455  0.0033  0.0681 -0.0279
25072W        W25936  13.345  27.153   2.745  0.1088  0.1776 -0.0488
25073W        W25937  13.102   0.400   1.967 -0.1212 -0.0490 -0.0040
25074W        W25938  13.999  29.147   2.998 -0.0925  0.2206  0.2633
25075W        W25939  16.257  25.557   3.190  0.2692 -0.0014  0.0333
25076W        W25940  16.081  27.936   3.557 -0.2078 -0.1517  0.0724
25077W        W25941  15.816  25.430   4.731  0.1874  0.0705 -0.1816
25078W        W25942  18.659  24.520  28.786  0.2058  0.2941  0.0772
25079W        W25943  12.485  27.004   1.056  0.2133  0.0879  0.0436
25080W        W25944  15.090  27.563   2.085  0.0129 -0.1564 -0.1054
25081W        W25945  18.028  24.695   2.433 -0.4040  0.0587  0.2648
25082W        W25946  15.008  24.268   0.313 -0.1384  0.0886  0.2692
25083W        W25947  17.083  24.966   2.204 -0.1674 -0.0347 -0.0490
25084W        W25948  18.503  28.471  28.782 -0.0318 -0.0696  0.1237
25085W        W25949  13.889  27.964   2.716 -0.0661  0.0074 -0.1091
25086W        W25950  16.091  25.673   4.426  0.3309 -0.2369 -0.0583
25087W        W25951  15.830  27.582   0.332 -0.0874 -0.0294  0.1512
25088W        W25952  15.314  26.481   3.445 -0.1098  0.0046  0.0266
25089W        W25953  17.352  28.266   0.015  0.1810  0.2804  0.3053
25090W        W25954  18.242   1.341   0.483  0.1810  0.2990 -0.0122
25091W        W25955  14.808  25.852  28.966 -0.0222  0.0786  0.1693
25092W        W25956  15.342  26.526   3.946 -0.1757  0.2703 -0.3998
25093W        W25957  14.137  28.470   1.752 -0.1446 -0.0550  0.0603
25094W        W25958  19.231  24.391   4.305  0.2936  0.2168  0.1017
25095W        W25959  16.869  22.679   2.665 -0.0161  0.0051 -0.1230
25096W        W25960  19.403  25.761   2.794  0.0724  0.3662 -0.1133
25097W        W25961  16.317  28.256   1.990  0.1294  0.0839  0.1103
25098W        W25962  14.950  28.968   0.439  0.0812 -0.2440 -0.0216
25099W        W25963  17.141   2.652   3.248 -0.2219 -0.3062 -0.3007
25100W        W25964  16.270  26.740   4.223  0.3067 -0.0135 -0.0289
25101W        W25965  17.040  27.242   2.652  0.1112 -0.0513 -0.1310
25102W        W25966  17.974  27.147   4.251 -0.1748  0.0869  0.0744
25103W        W25967  18.464  26.384   2.125  0.0838  0.1872  0.1275
25104W        W25968  15.229  28.503   3.176  0.1234 -0.3811  0.1167
25105W        W25969  17.261  27.740   1.115 -0.0030  0.0279 -0.0867
25106W        W25970  17.435  27.401   1.626 -0.1188  0.1765 -0.0721
25107W        W25971  12.269  24.288   5.525  0.3153 -0.4106 -0.2390
25108W        W25972  15.342  27.026   2.653 -0.2955 -0.1612 -0.1303
25109W        W25973  18.171  26.327   2.544 -0.0235  0.0114  0.0688
25110W        W25974  17.023   0.006   0.070 -0.2822  0.0189  0.0451
25111W        W25975  16.191  26.879   1.342  0.2905  0.2674 -0.0990
25112W        W25976  15.702  27.699   3.844 -0.0308 -0.1444  0.0611
25113W        W25977  14.360  27.501   3.137  0.0601  0.1284  0.2344
25114W        W25978  17.182   0.013   2.751 -0.1102  0.1157 -0.3002
25115W        W25979  17.255  28.895  28.792  0.2221 -0.1088  0.0811
25116W        W25980  15.274  25.672   3.124 -0.1542  0.0148 -0.0791
25117W        W25981  16.352  26.587   0.925  0.0372  0.2263  0.1131
25118W        W25982  17.008  26.878   3.024  0.2978  0.2008  0.1025
25119W        W25983  14.784  23.789   4.711  0.3481 -0.0957 -0.0036
25120W        W25984  17.227   1.898   3.600 -0.0393  0.0236  0.2361
25121W        W25985  14.721   2.573   1.091 -0.1090  0.1704  0.3397
25122W        W25986  15.339  28.637   0.699  0.0227  0.0519 -0.0760
25123W        W25987  16.398  28.430   6.874 -0.1389 -0.2582  0.0372
25124W        W25988  16.174  26.250   2.331 -0.2640 -0.2465 -0.0203
25125W        W25989  15.172  25.212   2.996 -0.0205  0.1726  0.0612
25126W        W25990  15.801  26.420   1.412 -0.0365  0.2777 -0.2350
25127W        W25991  16.686  28.501   0.332  0.2856  0.1172  0.1813
25128W        W25992  16.863  28.578   2.255 -0.2350  0.1045  0.3150
25129W        W25993  14.711   0.647   1.579 -0.2912  0.3751 -0.4281
25130W        W25994  15.182  27.127   1.829 -0.1831 -0.0025 -0.0708
25131W        W25995  16.619  26.995   3.291 -0.1429 -0.1278  0.0061
25132W        W25996  15.642   0.773   2.349 -0.0869  0.2392 -0.0020
25133W        W25997  14.621  26.813   0.996 -0.1669 -0.0263  0.1128
25134W        W25998  18.237  28.056   3.753  0.2022  0.3287 -0.0401
25135W        W25999  17.612  28.887   2.059  0.2508  0.1123  0.1983
25136W        W26000  14.235  26.192   1.875  0.2882  0.4062 -0.0353
25137W        W26001  16.986   2.351   2.283 -0.0034 -0.0863 -0.0449
25138W        W26002  16.317  24.964   3.839  0.0822  0.2142 -0.1099
25139W        W26003  15.856  26.552   0.913 -0.1738  0.2696  0.1167
25140W        W26004  18.552  28.700   0.607 -0.0740  0.0522 -0.0732
25141W        W26005  16.311  27.706   2.709  0.1097  0.1432  0.3379
25142W        W26006  17.210  26.115   1.756 -0.2493  0.1627 -0.1174
25143W        W26007  14.607  25.918   1.248 -0.1790 -0.1440  0.2264
25144W        W26008  16.873  27.735   3.437 -0.2001 -0.0403  0.0124
25145W        W26009  17.742  26.259   4.326 -0.1833  0.1803 -0.1030
25146W        W26010  15.209  26.085   3.981 -0.0761  0.2073  0.0617
25147W        W26011  14.652  27.452   4.902  0.0108  0.2269 -0.0261
25148W        W26012  15.424  26.070   1.143  0.2605  0.0585  0.1110
25149W        W26013  18.781  25.679   1.140 -0.0613  0.1150 -0.0846
25150W        W26014  16.554  25.640   2.617 -0.0710 -0.0442  0.0047
25151W        W26015  17.627  29.128   1.165 -0.1325 -0.1073  0.2785
25152W        W26016  16.514  28.059   3.299  0.4221 -0.3024  0.1104
25153W        W26017  18.106  25.593   3.845 -0.1077  0.0208 -0.1228
25154W        W26018  16.771  25.177   2.598 -0.0621  0.1151 -0.1034
25155W        W26019  15.725  25.207   2.061  0.0537  0.2912  0.0694
25156W        W26020  19.278   2.082   0.879  0.0417  0.1057  0.0878
25157W        W26021  17.627  24.859   2.700  0.1606 -0.1139 -0.0480
25158W        W26022  15.002  24.783   4.239 -0.1083 -0.0084 -0.1474
25159W        W26023  15.724  27.360   1.687  0.2486  0.0082 -0.1518
25160W        W26024  16.101  27.079   0.239 -0.2689  0.0290 -0.0472
25161W        W26025  15.018  28.312   5.084  0.2446  0.1546  0.3032
25162W        W26026  15.930  27.353   4.278  0.0397  0.3319 -0.0347
25163W        W26027  17.681  26.828   2.376  0.2113 -0.0829 -0.0537
25164W        W26028  14.173  25.254   5.562 -0.3370 -0.1212  0.4666
25165W        W26029  12.832   2.359   2.263 -0.1978  0.0545 -0.1703
25166W        W26030  16.143  28.655   1.075  0.0013 -0.1050 -0.1948
25167W        W26031  17.651  23.156   3.714  0.2917 -0.1679 -0.0375
25168W        W26032  17.830   0.588   1.051 -0.1397 -0.1816  0.1252
25169W        W26033  17.422  27.666   5.279 -0.2378  0.0435  0.2522
25170W        W26034  18.114  23.586   3.086  0.1044 -0.0986  0.0903
25171W        W26035  16.940   2.939   2.164 -0.3013  0.1164 -0.1308
25172W        W26036  17.742   0.667   0.382  0.1214 -0.0303  0.0254
25173W        W26037  17.176  27.430   4.232 -0.1417  0.3144 -0.0360
25174W        W26038  16.699  26.049   1.571  0.5355  0.0293  0.2127
25175W        W26039  14.825  28.990  29.134  0.2505  0.0956 -0.2380
25176W        W26040  16.015  28.068   0.537  0.0771 -0.3522 -0.0102
25177W        W26041  17.287  26.240  28.017  0.1572 -0.0243 -0.0373
25178W        W26042  13.450  27.976   2.467  0.2349 -0.1630  0.0111
25179W        W26043  14.867  28.305   4.593 -0.0189  0.0462 -0.0874
25180W        W26044  16.884  26.979   4.129  0.1825 -0.0664 -0.0652
25181W        W26045  15.504   1.420   1.791  0.0487 -0.1506  0.0223
25182W        W26046  15.259   0.234   2.220  0.0576  0.4556  0.1841
25183W        W26047  16.340  22.068   5.165 -0.0551  0.2889  0.3898
25184W        W26048  16.045  28.431   5.063 -0.0335 -0.2030  0.0023
25185W        W26049  18.366  27.676   1.174  0.1977  0.0235 -0.2773
25186W        W26050  16.719  28.952   2.649  0.0020  0.1128 -0.0601
25187W        W26051  15.939  27.875   4.267  0.2711 -0.1890  0.0324
25188W        W26052  15.478  27.686   5.753 -0.0674  0.3085 -0.0921
25189W        W26053  16.433  26.847   1.828  0.0250 -0.0177  0.0060
25190W        W26054  17.641  28.333   2.494  0.2584  0.0797  0.1219
25191W        W26055  13.070   1.009   2.522  0.1120 -0.2390 -0.0040
25192W        W26056  15.435  26.560   1.118 -0.3490 -0.0677 -0.1506
25193W        W26057  15.934  26.956   6.097 -0.2783  0.0876 -0.0396
25194W        W26058  16.121  27.522  29.059  0.3200  0.3506  0.1853
25195W        W26059  14.086  29.026   1.136 -0.1457  0.0263 -0.2214
25196W        W26060  14.779   0.641   2.915  0.4447 -0.0693 -0.0721
25197W        W26061  16.542  28.115   2.411  0.1325 -0.0493 -0.1445
25198W        W26062  17.042  26.325   1.302 -0.0123  0.2469 -0.0125
25199W        W26063  15.837  23.614   0.167 -0.0776  0.1087  0.1121
25200W        W26064  16.934  28.169   2.030 -0.1179 -0.1906 -0.2522
25201W        W26065  15.860  27.774  28.671  0.3391  0.2218  0.0359
25202W        W26066  14.825  28.131  28.413 -0.3589  0.1004  0.0992
25203W        W26067  16.387  28.008  28.843 -0.1023  0.0507  0.2537
25204W        W26068  14.282  28.917   3.470 -0.1596  0.2284  0.0126
25205W        W26069  14.969  27.985   4.240 -0.2072  0.1570 -0.0274
25206W        W26070  17.033   0.046  28.467  0.2460 -0.0217  0.3446
25207W        W26071  15.621  27.751   2.114  0.2702 -0.1359  0.2238
25208W        W26072  15.564  25.408   1.411  0.1084  0.1605 -0.1270
25209W        W26073  15.911  27.579   2.475 -0.1321  0.0571 -0.0103
25210W        W26074  18.104  27.088  28.949  0.0800  0.1217 -0.0846
25211W        W26075  15.236  28.023   1.813 -0.0043 -0.2731  0.3123
25212W        W26076  15.271  22.321   3.672 -0.1984  0.0151 -0.1708
25213W        W26077  17.343  25.309   0.859 -0.0859  0.0643  0.0581
25214W        W26078  20.548  26.537   3.346  0.0033 -0.2774  0.0222
25215W        W26079  15.135   0.862   1.390  0.1032 -0.1832 -0.0053
25216W        W26080  17.409  25.993   4.580  0.0187  0.2006 -0.0561
25217W        W26081  17.695  27.345   3.422 -0.0493 -0.1096  0.0431
25218W        W26082  14.274   2.013   0.897  0.1654 -0.3197 -0.0426
25219W        W26083  18.841  27.419   2.741  0.1667  0.1251  0.1528
25220W        W26084  14.879  27.996   1.380 -0.0947  0.0179 -0.1259
25221W        W26085  16.335  26.335   1.362  0.0558  0.1853  0.2587
25222W        W26086  15.006  27.156   0.476  0.2070  0.0954  0.0163
25223W        W26087  17.907  28.023   2.062  0.0335  0.2189  0.0582
25224W        W26088  15.815  26.460   3.271 -0.2315  0.0617  0.1187
25225W        W26089  16.405   0.338   0.363  0.0231  0.0801  0.0010
25226W        W26090  16.310  25.003   1.881 -0.1074  0.0674 -0.2416
25227W        W26091  15.410  28.711   2.313  0.1992  0.1887 -0.2093
25228W        W26092  14.748  27.978   1.878  0.2136  0.3039  0.1941
25229W        W26093  14.752   0.936   0.963  0.1934 -0.1583 -0.2014
25230W        W26094  18.374  25.147   4.626 -0.0125 -0.0171 -0.2896
25231W        W26095  16.887  26.740   2.505 -0.0788  0.2032  0.3772
25232W        W26096  18.699  27.803   3.590  0.0995 -0.0712  0.0135
25233W        W26097  16.836  27.620   1.479  0.0514 -0.0566  0.0315
25234W        W26098  17.916  29.130   5.853  0.1728  0.1265  0.0593
25235W        W26099  17.772  28.897   0.501  0.0695  0.2267 -0.0290
25236W        W26100  15.161   2.534   0.816 -0.1053  0.1557 -0.1560
25237W        W26101  18.364  27.042   1.539  0.0459 -0.2474  0.2617
25238W        W26102  12.055   2.445   3.089  0.2072  0.1851  0.0599
25239W        W26103  16.544  24.339   4.511  0.0552  0.0028  0.2119
25240W        W26104  15.236  24.740   1.168  0.0531  0.0739  0.1037
25241W        W26105  15.707  26.758   0.069  0.1861 -0.1906 -0.0703
25242W        W26106  16.083  27.628   0.831  0.0201  0.0261 -0.2090
25243W        W26107  18.463  24.313   6.245 -0.0283  0.2485 -0.1209
25244W        W26108  17.307  28.753   2.444 -0.1083 -0.1153 -0.1854
25245W        W26109  17.202  26.997   2.226 -0.1414  0.1020 -0.0796
25246W        W26110  17.060  28.651   2.886 -0.1876  0.4106  0.0472
25247W        W26111  16.389   0.197   2.888 -0.0632  0.0219  0.1043
25248W        W26112  15.684   0.872   2.865 -0.0189  0.2027 -0.2449
25249W        W26113  14.991  28.429   1.659  0.0446 -0.3488 -0.0087
25250W        W26114  17.532  26.926   0.008 -0.0838 -0.0043 -0.1962
25251W        W26115  18.009  21.835  27.538  0.2377  0.2020 -0.1883
25252W        W26116  15.691   1.253   0.754 -0.1405  0.1140 -0.2641
25253W        W26117  17.721  25.723   1.680 -0.0875  0.0757 -0.1685
25254W        W26118  18.290   0.224  27.835  0.2363  0.0238  0.0735
25255W        W26119  17.290   0.542   3.836  0.0798  0.1176 -0.0333
25256W        W26120  18.083  28.585  29.060  0.0753  0.2703  0.0338
25257W        W26121  12.580  26.133   6.233 -0.0896  0.5582 -0.0766
25258W        W26122  15.302  25.402   0.440 -0.1075  0.1117  0.1958
25259W        W26123  19.031  27.669   3.111 -0.4289  0.3401 -0.0534
25260W        W26124  15.472  25.064   2.590 -0.1996  0.4242  0.0859
25261W        W26125  15.499  25.252   3.466 -0.3641 -0.2185  0.2625
25262W        W26126  17.813  28.499   2.956 -0.0685 -0.0926 -0.1633
25263W        W26127  17.034  27.536   1.991  0.0854  0.0044  0.2807
25264W        W26128  13.949  28.672   2.148  0.1593 -0.0413  0.2634
25265W        W26129  19.426   0.306   1.324 -0.0976 -0.0591 -0.1462
25266W        W26130  15.280   0.385   5.133  0.2539  0.0593 -0.1069
25267W        W26131  19.054  28.204   2.966  0.2436 -0.0322 -0.0567
25268W        W26132  16.159   0.976   2.366 -0.2958  0.1528  0.0115
25269W        W26133  15.172  29.136   1.078  0.0959 -0.2496  0.2424
25270W        W26134  17.580   1.782   3.941  0.1701 -0.0377  0.1758
25271W        W26135  16.651  28.426   2.818  0.2820  0.2332  0.1084
25272W        W26136  16.277  28.747   2.994  0.0804 -0.2537  0.0157
25273W        W26137  14.721  28.620   2.518 -0.0816  0.0221 -0.1383
25274W        W26138  17.957  26.462   2.143  0.0151 -0.0156  0.0672
25275W        W26139  14.503  28.526   2.097  0.0525  0.0456 -0.1174
25276W        W26140  15.813   2.983  28.737 -0.0205 -0.0470  0.1948
25277W        W26141  17.429  26.410   5.047  0.1274  0.2261 -0.0167
25278W        W26142  16.553   0.711   1.580 -0.1258 -0.2334 -0.0757
25279W        W26143  14.337  27.329   4.522  0.0261 -0.0811  0.1309
25280W        W26144  13.674  28.552   1.444  0.1110 -0.1040 -0.1674
25281W        W26145  15.842  28.921   0.764  0.3013 -0.1456  0.2293
25282W        W26146  14.130   0.312   5.645 -0.0350  0.0234  0.1599
25283W        W26147  15.095  28.338   5.640 -0.1204  0.0035  0.2844
25284W        W26148  18.350  28.139   2.308 -0.1174 -0.3971 -0.1299
25285W        W26149  18.437  26.633   6.616 -0.2020 -0.1262  0.1133
25286W        W26150  13.100  28.801   4.248  0.0262 -0.2299 -0.1410
25287W        W26151  16.901  27.186   7.309  0.0636 -0.2771 -0.0128
25288W        W26152  17.777  26.614   7.272 -0.0339 -0.1190  0.0023
25289W        W26153  16.042  28.725   3.677  0.1838 -0.1166  0.1155
25290W        W26154  16.309  27.412   7.829 -0.0372 -0.3263 -0.0167
25291W        W26155  14.918  28.902   7.075  0.2121 -0.2349 -0.0101
25292W        W26156  16.355  26.757   8.322  0.1632  0.1447  0.2803
25293W        W26157  16.864  23.318   5.894 -0.2012 -0.1578 -0.3315
25294W        W26158  15.668  27.735   5.224 -0.6675 -0.0153 -0.0932
25295W        W26159  17.363  24.555   6.333 -0.1299  0.3353 -0.0909
25296W        W26160  15.212  26.158   6.459 -0.1255  0.3390 -0.1399
25297W        W26161  13.940   2.259   7.944 -0.1912  0.2131  0.0742
25298W        W26162  16.078   1.898   5.840  0.0236 -0.0139  0.1667
25299W        W26163  16.339  27.289   5.962 -0.1103 -0.0686 -0.0516
25300W        W26164  16.363  24.826   9.719 -0.1043  0.2070  0.1595
25301W        W26165  21.535  25.597   7.007  0.0066  0.1721 -0.0901
25302W        W26166  18.442  27.992   4.466  0.0542  0.0447  0.0331
25303W        W26167  16.417  26.277   4.929 -0.0624 -0.4443  0.1103
25304W        W26168  18.924  25.974   5.279 -0.0685 -0.4175  0.2498
25305W        W26169  17.095  28.711   4.870 -0.5248 -0.2435 -0.0678
25306W        W26170  13.392  27.383   4.239 -0.0337 -0.2347  0.1101
25307W        W26171  15.215  27.295   4.920  0.3351 -0.0923  0.4532
25308W        W26172  21.415  27.603   8.751  0.1983  0.1806  0.1201
25309W        W26173  15.518  28.401   5.996  0.1897  0.0844  0.1388
25310W        W26174  16.166  26.597   7.118  0.0524 -0.0419  0.4893
25311W        W26175  14.486  26.016   3.411 -0.1319 -0.1133  0.0692
25312W        W26176  15.390  25.028   4.524 -0.0041  0.1724  0.1052
25313W        W26177  15.963   1.645   8.361  0.2966  0.2101 -0.1001
25314W        W26178  17.713   0.301   8.008  0.1774 -0.0559 -0.0093
25315W        W26179  15.699   0.851   9.568 -0.2175 -0.0043 -0.1202
25316W        W26180  17.626  25.506   7.306 -0.1607  0.2177  0.0125
25317W        W26181  15.848  28.608   8.101  0.1297 -0.1208  0.0812
25318W        W26182  14.645  27.541   4.089  0.0666 -0.1946  0.3623
25319W        W26183  13.484   2.648   7.426 -0.1855  0.0439  0.0933
25320W        W26184  18.712  28.448   4.414 -0.1912  0.2530 -0.1561
25321W        W26185  17.114  27.211   5.244 -0.1671 -0.0266 -0.6241
25322W        W26186  16.280  26.347   3.074  0.0275  0.2706 -0.0058
25323W        W26187  18.274  24.881   6.972 -0.3138  0.1027 -0.3244
25324W        W26188  16.297  27.995   5.423  0.0448 -0.2318  0.0258
25325W        W26189  18.964   0.854   2.832 -0.2120 -0.1183  0.1737
25326W        W26190  16.126   1.011   5.185  0.0729  0.0909  0.2286
25327W        W26191  14.814   0.023   5.130  0.5761  0.1567  0.0793
25328W        W26192  15.805  25.931   3.080  0.3114 -0.2008 -0.0745
25329W        W26193  18.185  27.367   6.894  0.1877 -0.1214 -0.2600
25330W        W26194  16.410  25.486   4.755  0.0318 -0.0410  0.0821
25331W        W26195  18.355  27.351   4.626 -0.2258 -0.0357  0.1020
25332W        W26196  17.401  28.672   6.965  0.1428  0.0793 -0.1055
25333W        W26197  15.470  26.910   8.419  0.0260  0.0493  0.3831
25334W        W26198  16.893  26.422   5.148 -0.1047  0.0204 -0.2701
25335W        W26199  16.980  28.180   3.188  0.0120 -0.0017 -0.0250
25336W        W26200  13.897  22.500   3.439 -0.1926  0.1243 -0.2289
25337W        W26201  16.691  28.699   4.595 -0.0306 -0.1696  0.0759
25338W        W26202  14.016  25.812   4.252  0.1900 -0.2320 -0.1885
25339W        W26203  18.670  28.097   3.982  0.1041 -0.0449 -0.1887
25340W        W26204  14.677   0.799   6.358 -0.0629  0.1313 -0.1175
25341W        W26205  14.622  29.048   5.639 -0.0696 -0.1402  0.0756
25342W        W26206  17.150  25.510   4.192  0.1463  0.0275 -0.1274
25343W        W26207  14.837   0.496   6.890  0.3380 -0.1584 -0.0943
25344W        W26208  13.364  27.113   4.779 -0.4566  0.4084  0.4017
25345W        W26209  18.433  26.109   3.225 -0.2801  0.0326 -0.1609
25346W        W26210  15.413  28.233   7.172 -0.1988 -0.1683 -0.0194
25347W        W26211  16.819  25.105   5.607  0.1296 -0.2086 -0.3168
25348W        W26212  14.613  28.621   5.383 -0.1643  0.0072  0.0654
25349W        W26213  14.318  26.644   7.354  0.0177 -0.1063  0.1003
25350W        W26214  12.689  28.559   4.080 -0.0346 -0.0986 -0.0145
25351W        W26215  14.429  27.860   5.027  0.2752 -0.2108  0.3783
25352W        W26216  18.260  26.844   6.158  0.1744  0.0171  0.1042
25353W        W26217  16.728  25.299   2.117  0.1203  0.0261  0.1587
25354W        W26218  17.371  25.846   5.077  0.1156 -0.1517 -0.1734
25355W        W26219  16.486  26.226   7.053  0.0107 -0.1116 -0.0004
25356W        W26220  17.018  27.615   4.942 -0.2622 -0.1178 -0.1270
25357W        W26221  18.641  27.413   6.180  0.1377 -0.2419  0.2025
25358W        W26222  13.432  26.063   3.753 -0.2003 -0.1553 -0.1133
25359W        W26223  14.680  26.099   7.848 -0.0115 -0.1933 -0.2602
25360W        W26224  16.900  26.204   4.640 -0.0985 -0.1003 -0.0066
25361W        W26225  20.363  26.569   5.339  0.1627 -0.4692 -0.0362
25362W        W26226  12.995  26.416   7.366 -0.2050  0.1473  0.1817
25363W        W26227  12.923  27.934   5.363 -0.1432 -0.2268  0.1074
25364W        W26228  14.589  25.179   5.032 -0.0075  0.1380 -0.1174
25365W        W26229  17.366  25.293   5.036  0.1340  0.2233 -0.3000
25366W        W26230  15.746  28.603   2.725  0.2899  0.0291  0.1598
25367W        W26231  16.951  23.661   5.057  0.2520 -0.0183 -0.2315
25368W        W26232  19.930   0.011   7.956  0.4694  0.1505 -0.2003
25369W        W26233  17.680  25.003   5.726 -0.1588  0.2191 -0.0235
25370W        W26234  19.087  28.272   5.938 -0.1299  0.1169 -0.5024
25371W        W26235  20.065  26.916   7.254  0.2300 -0.3746 -0.2380
25372W        W26236  16.637  25.201   3.511 -0.4223  0.0028  0.0782
25373W        W26237  15.834  25.218   3.856 -0.0309 -0.0663 -0.0551
25374W        W26238  13.701  28.720   5.908 -0.1766  0.0160  0.1355
25375W        W26239  17.176  27.531   6.024 -0.1812  0.1405  0.1231
25376W        W26240  13.876  24.911   7.818  0.1671 -0.1103 -0.1784
25377W        W26241  17.348  26.305   3.942 -0.1949 -0.0580 -0.4287
25378W        W26242  15.428  27.190   6.218 -0.4347 -0.1504  0.1337
25379W        W26243  19.313   1.171   7.518  0.1297 -0.0635  0.0920
25380W        W26244  12.626  25.123   5.241 -0.0518  0.0069  0.3007
25381W        W26245  18.582  27.114   6.652 -0.1895  0.2599 -0.3072
25382W        W26246  18.263  27.451   3.649  0.2777 -0.1947  0.1360
25383W        W26247  12.778  25.661   2.938  0.0954 -0.2198  0.1459
25384W        W26248  17.911  25.903   4.649 -0.1515  0.0010 -0.0286
25385W        W26249  18.272   0.690   6.679 -0.0548 -0.0280 -0.2129
25386W        W26250  17.908  26.056   6.658 -0.1024  0.1677 -0.2311
25387W        W26251  16.208  27.102   5.181  0.1503 -0.0344  0.3522
25388W        W26252  16.075  28.310   4.044  0.0575 -0.2316 -0.1937
25389W        W26253  20.004  27.414   5.535 -0.1064  0.0476  0.1640
25390W        W26254  14.557  26.555   6.905  0.1922 -0.1519 -0.1001
25391W        W26255  15.508  26.759   4.853  0.1302  0.0926 -0.0253
25392W        W26256  15.382  26.665   6.251 -0.2468 -0.0866 -0.2174
25393W        W26257  17.951  28.841   4.038 -0.2138  0.0404  0.2649
25394W        W26258  19.202  26.080   4.550 -0.3759 -0.0897  0.2750
25395W        W26259  15.062   1.066   6.591  0.2882 -0.1266  0.1238
25396W        W26260  17.409  27.030   4.405  0.1700  0.1037  0.0757
25397W        W26261  17.935  28.735   3.462 -0.0345  0.0820  0.1284
25398W        W26262  18.395  25.693   6.524 -0.1413 -0.0948  0.2183
25399W        W26263  15.773  27.858   8.432 -0.3067  0.0543  0.2520
25400W        W26264  14.596  26.629   7.965 -0.2323 -0.4084  0.0932
25401W        W26265  19.168  26.971   5.390  0.0205 -0.1381 -0.0072
25402W        W26266  17.659  26.250   2.531 -0.2650 -0.1183  0.0200
25403W        W26267  15.238  27.556   6.600  0.0006 -0.0243 -0.0644
25404W        W26268  19.243  25.734   5.530  0.0655 -0.0501 -0.0102
25405W        W26269  16.315  28.214   4.459  0.0202  0.2143  0.1182
25406W        W26270  13.773  26.725   5.627  0.1156  0.3831  0.1490
25407W        W26271  17.293  26.410   3.383 -0.0583  0.2064 -0.2142
25408W        W26272  15.603  28.959   7.634  0.1277 -0.2829 -0.0683
25409W        W26273  17.830  25.945   6.156  0.4031 -0.0890 -0.1452
25410W        W26274  17.437  24.823   5.035 -0.0747  0.3222 -0.1761
25411W        W26275  16.682  28.209   4.789 -0.2716  0.1960 -0.0385
25412W        W26276  15.826  26.692   5.277  0.0056 -0.0644 -0.3890
25413W        W26277  18.115  27.411   6.420 -0.0321 -0.0924  0.1146
25414W        W26278  15.768   1.046   6.003  0.1011 -0.0172 -0.1510
25415W        W26279  19.067  25.250   5.689 -0.3196  0.2389  0.1185
25416W        W26280  18.222  26.613   8.060  0.0515 -0.2059 -0.3846
25417W        W26281  13.716  27.578   7.977 -0.0963  0.2236 -0.0011
25418W        W26282  16.941  26.074   5.923  0.2241 -0.0292  0.0351
25419W        W26283  16.385  28.193   5.881 -0.1792  0.0048  0.3777
25420W        W26284  17.177  26.465   5.758 -0.0479  0.1654 -0.0925
25421W        W26285  15.605  29.032   4.528  0.0178 -0.3289 -0.0631
25422W        W26286  14.735  26.283   5.645 -0.1800  0.2558 -0.2222
25423W        W26287  16.667  26.435   5.704  0.3995  0.1972 -0.0938
25424W        W26288  15.338   0.635   4.210 -0.0036  0.2557  0.1529
25425W        W26289  14.467  28.357   3.384  0.0062 -0.1154  0.0223
25426W        W26290  13.891  28.870   6.691 -0.0104 -0.0402  0.1319
25427W        W26291  17.347  27.561   3.718 -0.4572 -0.0460 -0.1801
25428W        W26292  18.928  24.290   3.534 -0.0026 -0.0029  0.0513
25429W        W26293  15.910  28.021   5.869 -0.1222  0.1208  0.0546
25430W        W26294  19.736   2.188   4.041 -0.2671  0.1255  0.0666
25431W        W26295  16.108  28.788   7.498  0.0736  0.0117 -0.2236
25432W        W26296  18.447   0.203   6.696  0.0646 -0.0144  0.2937
25433W        W26297  14.985  27.113   3.857  0.4016 -0.1550  0.1779
25434W        W26298  13.473   0.389   7.260 -0.2216  0.1033 -0.2037
25435W        W26299  13.371  26.803   1.928 -0.0594  0.2301 -0.1089
25436W        W26300  15.078  25.518   5.789  0.1392  0.1533 -0.0497
25437W        W26301  17.847  26.072   7.301 -0.2517  0.0632 -0.2607
25438W        W26302  14.279  28.187   6.926 -0.1353  0.4691  0.2746
25439W        W26303  14.797  28.297   2.883 -0.0338 -0.0659 -0.2517
25440W        W26304  14.534  25.544   5.419 -0.2221  0.0344 -0.5783
25441W        W26305  16.784  22.878   4.586 -0.2522 -0.0501  0.3925
25442W        W26306  18.431  25.949   6.973  0.0317 -0.3436  0.3431
25443W        W26307  13.961  27.684   9.816 -0.2268 -0.1426  0.1763
25444W        W26308  18.960  27.729   8.108 -0.2938 -0.3725  0.1133
25445W        W26309  16.732  27.320   6.851  0.2447 -0.1199 -0.0688
25446W        W26310  17.828  27.099   7.227  0.1008 -0.1143 -0.1184
25447W        W26311  17.739  26.470   3.693 -0.0845 -0.4280  0.0571
25448W        W26312  13.042  24.155   4.799  0.2437  0.1041 -0.1679
25449W        W26313  13.624  26.347   4.140  0.6371 -0.2672 -0.3001
25450W        W26314  16.504   0.002   8.780  0.0847 -0.2820 -0.2013
25451W        W26315  15.980  25.911   4.014 -0.0982 -0.1119 -0.2852
25452W        W26316  16.056  27.015   3.877 -0.0863 -0.0030  0.0399
25453W        W26317  17.458  25.104   6.166  0.0267 -0.5176  0.2375
25454W        W26318  17.580  26.644   4.650  0.0655  0.2137 -0.1168
25455W        W26319  19.807  28.547   3.758 -0.1252 -0.3021 -0.2173
25456W        W26320  15.737  27.050   5.627 -0.0563 -0.1826 -0.2733
25457W        W26321  16.422  26.609   5.292  0.0441  0.1859  0.1642
25458W        W26322  12.989   0.256   7.908  0.2142  0.2459 -0.1598
25459W        W26323  16.190  25.565   6.499  0.0853  0.3844  0.0787
25460W        W26324  14.276  29.119   6.027 -0.1140  0.2021 -0.2920
25461W        W26325  15.681  25.460   8.235 -0.0730 -0.2583  0.0084
25462W        W26326  17.220  27.964   6.296 -0.0824  0.3810 -0.1436
25463W        W26327  16.937   1.003   5.797 -0.2462  0.0707  0.0403
25464W        W26328  16.153  28.387   3.298  0.1306  0.1082  0.0379
25465W        W26329  12.940  26.213   4.636 -0.2644  0.1632 -0.0927
25466W        W26330  15.506  24.835   4.069  0.2229  0.0980  0.1791
25467W        W26331  17.942  27.441   7.717 -0.0407  0.0695 -0.1774
25468W        W26332  17.422  28.417   2.044  0.0571 -0.4685 -0.0137
25469W        W26333  13.813  26.402   6.653  0.1929  0.5846  0.1749
25470W        W26334  13.888  27.304   4.392 -0.1883 -0.0427 -0.1712
25471W        W26335  14.588   1.819   4.409 -0.1548 -0.3906  0.1948
25472W        W26336  15.417  28.141   4.507 -0.4315  0.0493 -0.1408
25473W        W26337  15.171  27.818   5.228 -0.3497 -0.3310  0.2159
25474W        W26338  14.248  27.151   7.174  0.2934  0.1787  0.0941
25475W        W26339  16.633  25.155   7.822 -0.0322  0.0065  0.1867
25476W        W26340  18.258  24.297   5.215 -0.3930 -0.0428  0.5281
25477W        W26341  18.117  25.033   2.811 -0.1888 -0.0393 -0.4813
25478W        W26342  16.849  23.516   7.854 -0.1102  0.1007  0.1050
25479W        W26343  15.716  27.214   5.057 -0.2474 -0.0237 -0.0231
25480W        W26344  14.198  26.062   7.628  0.2605  0.1185  0.2343
25481W        W26345  16.645  25.914   6.523 -0.1023  0.0300 -0.0448
25482W        W26346  16.663  22.206   3.572 -0.0489 -0.0980 -0.1481
25483W        W26347  18.383  27.033   8.312  0.0126 -0.0163  0.1448
25484W        W26348  18.998  25.026   5.288  0.0280 -0.1146 -0.0842
25485W        W26349  14.318  26.147   5.960  0.1040 -0.1179  0.1338
25486W        W26350  14.929  26.398   4.287  0.1709  0.1078  0.3896
25487W        W26351  14.853  26.280   3.661  0.1834  0.0867  0.1545
25488W        W26352  14.371  26.889   5.385 -0.1566 -0.0836  0.0210
25489W        W26353  17.339  28.955   4.507  0.0630  0.0968 -0.0651
25490W        W26354  16.843   0.553   3.588 -0.1541  0.0612 -0.2181
25491W        W26355  14.717  28.050   3.736  0.2479  0.1552 -0.0486
25492W        W26356  14.003   0.643   7.993  0.0063 -0.0667  0.2609
25493W        W26357  13.386  26.707   5.976  0.4163  0.1041  0.0365
25494W        W26358  14.258  25.410   4.598  0.0228  0.1589  0.1225
25495W        W26359  16.062  23.745   3.151 -0.0646  0.2973  0.1798
25496W        W26360  19.925  28.516   6.868  0.0706  0.0538 -0.0639
25497W        W26361  17.794  26.241   3.234 -0.1495  0.0556 -0.1252
25498W        W26362  17.504  27.911   4.183  0.1127 -0.1340 -0.0454
25499W        W26363  19.630  27.924   1.432  0.2238  0.2090  0.0260
25500W        W26364  14.342   0.444   7.636 -0.0770 -0.0539 -0.0168
25501W        W26365  15.319  26.813   7.134  0.1888 -0.0423 -0.0268
25502W        W26366  18.913  26.900   8.225  0.1133 -0.1614  0.1066
25503W        W26367  16.705   1.217   2.959 -0.1132 -0.1061  0.0136
25504W        W26368  15.754   0.966   8.344 -0.0262  0.0171  0.0061
25505W        W26369  15.989  26.619   2.015 -0.2145  0.2471  0.1320
25506W        W26370  17.720  28.095   6.206  0.1652 -0.0799  0.0533
25507W        W26371  13.739  24.135   4.359  0.3638  0.0008 -0.1081
25508W        W26372  15.981  28.969   6.681  0.1960 -0.0384  0.6398
25509W        W26373  17.514  26.387   6.105  0.2385 -0.0853  0.0101
25510W        W26374  18.339  28.507   5.211  0.0434  0.1593  0.0316
25511W        W26375  18.117  26.393   6.927 -0.1929 -0.0400 -0.0060
25512W        W26376  15.631  26.142   5.595 -0.3449  0.0127  0.1201
25513W        W26377  16.120  27.580   7.025 -0.0495 -0.2206 -0.0394
25514W        W26378  16.393  26.143   4.468  0.1093 -0.0835 -0.4431
25515W        W26379  18.146  26.632   3.972  0.1145 -0.0980 -0.1188
25516W        W26380  16.208  27.894   8.098  0.1152  0.1356 -0.1619
25517W        W26381  14.478  28.288   6.427  0.1392 -0.5105 -0.0559
25518W        W26382  17.815  24.543   5.142 -0.1096 -0.0028  0.0882
25519W        W26383  17.037  25.598   4.677  0.0702 -0.0254 -0.3129
25520W        W26384  18.161  25.621   5.962 -0.2481 -0.0996 -0.2780
25521W        W26385  17.899  26.516   6.452  0.1989  0.0744  0.1959
25522W        W26386  16.583   2.066   4.950 -0.1668  0.0162 -0.3274
25523W        W26387  14.689  27.913   7.225 -0.1923  0.0631 -0.2557
25524W        W26388  16.500  27.497   7.364  0.2036 -0.0612  0.0657
25525W        W26389  14.989  25.005   7.508 -0.1405  0.0555 -0.4398
25526W        W26390  16.565  26.896   6.891 -0.0029  0.0828 -0.1014
25527W        W26391  14.464  28.231   4.245  0.0209  0.1119  0.0460
25528W        W26392  19.377  25.372   7.013 -0.3320  0.0596 -0.1488
25529W        W26393  14.021  26.383   9.371  0.2929  0.2280 -0.1889
25530W        W26394  17.999   1.327   3.186  0.0178  0.1495  0.2327
25531W        W26395  15.632  24.221   5.537 -0.1561  0.0966  0.1422
25532W        W26396  13.509  26.005   4.572  0.1268  0.1298 -0.1390
25533W        W26397  14.381   1.184   9.447  0.0908  0.1107 -0.0138
25534W        W26398  19.801  28.382   5.564 -0.1953 -0.2303 -0.0773
25535W        W26399  16.885  25.901   6.975 -0.0035  0.1489  0.3402
25536W        W26400  17.721  28.065   5.221 -0.1963  0.0528  0.0709
25537W        W26401  17.706  28.978   6.722 -0.0146 -0.0470 -0.0078
25538W        W26402  17.164  24.701   3.366 -0.0457 -0.1527 -0.0118
25539W        W26403  16.746  25.904   5.024  0.0501 -0.3469 -0.1436
25540W        W26404  17.585  26.278   5.527  0.0128  0.1682  0.1023
25541W        W26405  19.680  25.529   3.619  0.0963  0.2630  0.0800
25542W        W26406  17.271  27.153   6.489 -0.3365 -0.3118  0.1872
25543W        W26407  13.380  26.405   5.072 -0.1197 -0.2066  0.1163
25544W        W26408  15.728  26.914   6.762 -0.0079  0.2659  0.1714
25545W        W26409  15.342  26.698   5.343 -0.2971  0.0823 -0.0641
25546W        W26410  14.460   0.330   5.298  0.1633 -0.0035  0.0170
25547W        W26411  17.009   1.280   6.728  0.0705 -0.3311  0.1535
25548W        W26412  14.129  28.064   3.826 -0.3911 -0.0899  0.0180
25549W        W26413  15.440  26.414   4.519  0.0364  0.1270  0.1043
25550W        W26414  13.097  23.962  10.779 -0.1246  0.0346 -0.3530
25551W        W26415  20.310  24.270   2.977  0.1689  0.2391 -0.0676
25552W        W26416  16.925  26.868   5.586 -0.1172  0.0293  0.0605
25553W        W26417  16.317  28.935   8.280 -0.0352  0.1121  0.0062
25554W        W26418  17.619  24.940   3.208 -0.0078  0.1603  0.0439
25555W        W26419  15.921   0.510   8.041 -0.0311  0.0725  0.1635
25556W        W26420  17.314  26.652   6.496  0.3311  0.0417  0.1592
25557W        W26421  17.600  26.385   6.822 -0.1482 -0.0653  0.2787
25558W        W26422  13.184  26.553   8.411 -0.2700 -0.0871  0.1046
25559W        W26423  15.522  26.070   6.864 -0.0211  0.0122  0.0763
25560W        W26424  17.299  28.381   4.277  0.1101 -0.1435  0.3778
25561W        W26425  13.873  26.453   6.111  0.0106  0.0711  0.0669
25562W        W26426  14.790  26.968   5.026 -0.0261 -0.0372  0.2016
25563W        W26427  15.939  24.260   6.555  0.2506 -0.0421  0.3161
25564W        W26428  15.187  26.374   7.874  0.1936  0.1043 -0.2256
25565W        W26429  15.777   1.779   7.310  0.1440  0.2708 -0.0130
25566W        W26430  18.417  25.445   3.473  0.1146  0.0488 -0.1395
25567W        W26431  19.413  24.675   9.065  0.2726  0.2803 -0.0372
25568W        W26432  14.785  28.378   7.083 -0.2140 -0.1814  0.0090
25569W        W26433  13.828  27.592   6.316 -0.1917 -0.1328  0.1287
25570W        W26434  17.360  22.421   5.987 -0.0920 -0.0504 -0.6221
25571W        W26435  18.279   0.303   2.885 -0.0590  0.0477 -0.1171
25572W        W26436  15.669  26.812   1.690 -0.1643 -0.0206  0.1642
25573W        W26437  15.928  26.057   4.752  0.0896 -0.0202  0.3212
25574W        W26438  17.899  23.675   4.646 -0.2759  0.0223  0.1856
25575W        W26439  14.626   0.230   6.336  0.0689 -0.0720 -0.1613
25576W        W26440  17.489  28.503   3.469 -0.2705  0.1059  0.3838
25577W        W26441  14.705  26.452   3.178 -0.0660  0.3719 -0.2105
25578W        W26442  15.688  24.491   4.728 -0.1101 -0.0760  0.0067
25579W        W26443  19.273  28.650   3.658 -0.1526  0.1833 -0.0015
25580W        W26444  18.843  25.048   6.989  0.0123  0.0346  0.2448
25581W        W26445  16.864  28.662   7.152 -0.0418 -0.0284 -0.0769
25582W        W26446  14.602   1.419   1.590 -0.1510  0.1236  0.0240
25583W        W26447  14.303  26.926   4.907 -0.2149 -0.1705  0.2993
25584W        W26448  15.892  29.104   8.008 -0.1026  0.0716  0.1374
25585W        W26449  20.191  26.900   3.210  0.0571 -0.3077 -0.1272
25586W        W26450  18.376  25.906   5.363 -0.1152  0.2205  0.0161
25587W        W26451  15.822  28.879   6.224  0.1015 -0.1106 -0.2643
25588W        W26452  16.092  27.079   7.056  0.0756 -0.0897  0.0465
25589W        W26453  16.941  25.193   1.615 -0.0730 -0.1620  0.1522
25590W        W26454  15.739  25.623   7.766  0.1347 -0.0089 -0.1753
25591W        W26455  13.062   1.120   3.445  0.1337  0.0302 -0.0593
25592W        W26456  14.676  25.795   5.874  0.1589 -0.0041 -0.1150
25593W        W26457  16.331   0.016   7.766 -0.1889 -0.2402 -0.1469
25594W        W26458  15.026  25.764   4.426  0.0532  0.0061 -0.0036
25595W        W26459  15.161  26.885   4.350 -0.1362  0.2280  0.1789
25596W        W26460  15.173  29.115   7.987 -0.0027  0.0255  0.1553
25597W        W26461  17.284  29.095   7.270  0.0175 -0.2445 -0.0761
25598W        W26462  15.705  25.713   5.194 -0.0227 -0.0944 -0.1094
25599W        W26463  18.628  23.025   3.686 -0.1071 -0.0186 -0.2109
25600W        W26464  18.675  27.339   5.020  0.0883  0.2793  0.0990
25601W        W26465  14.710  24.644   5.210  0.0386 -0.0038 -0.1156
25602W        W26466  14.267   1.684   8.000  0.1716 -0.0709  0.1229
25603W        W26467  20.132   0.371   3.398 -0.0643 -0.1716  0.1516
25604W        W26468  14.926  28.211   8.039 -0.1301  0.0110  0.0903
25605W        W26469  16.730  27.464   6.323  0.0344  0.2016  0.1748
25606W        W26470  16.471  27.193   4.382 -0.1441 -0.1540 -0.0372
25607W        W26471  16.525  28.695   7.895 -0.6009  0.1045 -0.1963
25608W        W26472  15.806  25.099   5.568 -0.0687 -0.0217  0.1875
25609W        W26473  14.672  28.070   5.425 -0.0414 -0.1016 -0.4406
25610W        W26474  15.450  25.606   3.936 -0.0213  0.0095 -0.0570
25611W        W26475  15.412  28.066   7.676 -0.1237 -0.1883  0.1273
25612W        W26476  16.968  26.251   7.647  0.0615  0.2789  0.1173
25613W        W26477  19.431  26.533   5.231 -0.0684  0.1324  0.0139
25614W        W26478  16.579  27.270   5.400  0.2538  0.4684 -0.0560
25615W        W26479  17.347  28.553   7.430 -0.1798  0.1238  0.2052
25616W        W26480  19.773  26.521   5.995 -0.1712  0.2580  0.4522
25617W        W26481  15.284  28.661   7.405  0.1241 -0.1153  0.1696
25618W        W26482  17.410  28.670   6.482 -0.3273 -0.1570  0.0937
25619W        W26483  18.736  25.728   5.780 -0.1986  0.2070  0.0321
25620W        W26484  16.970  24.650   4.172 -0.3514 -0.3549  0.1797
25621W        W26485  16.471  23.444   3.832 -0.0873 -0.1577 -0.0094
25622W        W26486  17.338  27.986   7.476 -0.0179 -0.0556 -0.4505
25623W        W26487  16.512  27.762   5.806 -0.2341 -0.2507 -0.1425
25624W        W26488  15.959  25.382   6.056  0.1913  0.1250 -0.0189
25625W        W26489  16.956  27.220   4.642 -0.2864  0.2096 -0.0615
25626W        W26490  18.005  27.764   5.481 -0.0871  0.1084 -0.0046
25627W        W26491  15.547   0.322   7.652 -0.0355  0.2864 -0.2294
25628W        W26492  16.954  27.225   3.674  0.2896  0.3187  0.0486
25629W        W26493  13.776  26.928   6.107  0.2244 -0.2067 -0.0715
25630W        W26494  16.390  28.934   6.980 -0.1552  0.1932  0.3131
25631W        W26495  14.104  26.829   4.422  0.1061 -0.3133 -0.0187
25632W        W26496  18.094  26.950   6.628  0.0150 -0.2587  0.0459
25633W        W26497  16.698  24.589   5.601  0.2703  0.1699  0.0163
25634W        W26498  17.486  28.975   5.054  0.2374 -0.0510 -0.0918
25635W        W26499  15.145  27.828   7.070 -0.0553 -0.2497  0.0671
25636W        W26500  16.273   0.317   8.313 -0.3717  0.1779 -0.2382
25637W        W26501  17.951  27.038   3.740  0.2718  0.0518  0.3775
25638W        W26502  14.583   0.004   9.073 -0.0389  0.1192  0.0105
25639W        W26503  16.083  25.879   5.612 -0.1395  0.0038  0.1694
25640W        W26504  13.378  27.021   9.153  0.0211 -0.0271 -0.2162
25641W        W26505  14.639  24.511   4.703  0.1115  0.2442  0.3221
25642W        W26506  18.579  27.987   6.114 -0.0766  0.3610  0.4796
25643W        W26507  17.428  25.877   6.992  0.1053  0.1972 -0.0565
25644W        W26508  16.594   0.199   6.610 -0.1025  0.0372  0.0322
25645W        W26509  16.427  23.818   4.757  0.1028  0.1179 -0.0043
25646W        W26510  15.976  28.233   7.128 -0.0687 -0.1043  0.2497
25647W        W26511  16.828  26.602   8.095 -0.3374  0.0427  0.1768
25648W        W26512  19.831  28.724   4.292  0.2055 -0.2835 -0.0979
25649W        W26513  19.309  27.421   5.611  0.0445 -0.0960  0.2048
25650W        W26514  16.188  26.491   3.773 -0.1314  0.0331  0.0272
25651W        W26515  19.122  26.918   3.553 -0.2991 -0.1126  0.3897
25652W        W26516  12.832  24.830   3.253  0.0896  0.0007  0.0962
25653W        W26517  16.749  25.215   4.043 -0.1683 -0.2438  0.2559
25654W        W26518  15.873  25.387   2.744  0.0587 -0.0100  0.0843
25655W        W26519  18.210  28.925   4.899  0.0389 -0.1116 -0.0579
25656W        W26520  17.179   2.048   5.514  0.1156 -0.0621 -0.0466
25657W        W26521  17.221  26.103   6.465  0.1517 -0.0031  0.0974
25658W        W26522  14.804  26.500   7.451 -0.4095  0.1572 -0.1887
25659W        W26523  19.506  29.081   7.722  0.1007 -0.1197 -0.0336
25660W        W26524  16.346  25.497   3.794 -0.1199 -0.1312 -0.1077
25661W        W26525  16.187  25.204   6.904 -0.1772 -0.2983 -0.1018
25662W        W26526  17.372  27.510   7.414 -0.0685 -0.1057  0.3405
25663W        W26527  15.737  28.783   4.946  0.0041  0.1255  0.2606
25664W        W26528  15.385  26.544   6.744 -0.0200  0.2265 -0.3365
25665W        W26529  16.412  26.546   7.641 -0.0246  0.0746 -0.2356
25666W        W26530  16.323  27.898   3.956  0.1167 -0.1778 -0.4227
25667W        W26531  16.880  26.032   4.122 -0.4724  0.1360  0.2563
25668W        W26532  17.296  28.075   5.547 -0.0581 -0.0552 -0.1755
25669W        W26533  16.303   0.341   5.962 -0.0376  0.1125  0.0064
25670W        W26534  18.728  28.383   2.594  0.1770  0.1787  0.0160
25671W        W26535  18.332  28.703   7.186 -0.2851  0.1418  0.0182
25672W        W26536  16.867  26.527   6.165 -0.4096 -0.1653 -0.0370
25673W        W26537  19.046  27.839   4.818  0.0791 -0.1071  0.1369
25674W        W26538  18.760   0.363   2.664  0.1450  0.2662  0.1158
25675W        W26539  18.199  28.187   5.790 -0.0651 -0.0546 -0.1510
25676W        W26540  15.933  27.539   6.063  0.1072 -0.0037 -0.0050
25677W        W26541  17.457  24.349   7.245  0.1098  0.1096  0.1877
25678W        W26542  15.043  28.869   5.490  0.0039  0.2872 -0.2823
25679W        W26543  16.950  28.215   6.951 -0.0584  0.2135 -0.0026
25680W        W26544  17.373  26.766   5.407  0.0965  0.2308  0.1103
25681W        W26545  14.736  27.716   2.745 -0.2286  0.0664  0.1763
25682W        W26546  15.108   2.552   9.062  0.1747  0.1859  0.3068
25683W        W26547  16.730  27.732  10.956 -0.0939  0.1247 -0.0617
25684W        W26548  17.325   1.175  11.213  0.3172 -0.2428  0.0032
25685W        W26549  19.138  26.452  12.113 -0.2271 -0.1045  0.1455
25686W        W26550  14.845  27.473   5.396  0.0185  0.0273  0.0960
25687W        W26551  16.641  28.048   9.731 -0.0749  0.0416 -0.2157
25688W        W26552  15.514  24.501   9.216 -0.1410 -0.2940 -0.2143
25689W        W26553  15.608  27.624   7.867 -0.1727 -0.0374  0.0256
25690W        W26554  16.913  27.224   9.045  0.2096  0.0278  0.0824
25691W        W26555  18.635  25.537   7.720  0.3933  0.1416  0.0775
25692W        W26556  15.394  27.486  10.827 -0.1246 -0.0720  0.1399
25693W        W26557  16.607  28.270   8.033  0.2335  0.0182 -0.0977
25694W        W26558  14.695  24.901   8.512  0.3084 -0.0271  0.3013
25695W        W26559  17.492  27.057  10.725 -0.0473  0.4339  0.0652
25696W        W26560  16.394  26.509  11.379  0.0268 -0.2301  0.2442
25697W        W26561  14.789  28.307  10.871 -0.2255  0.2165  0.1664
25698W        W26562  16.185  24.912   6.015 -0.0602 -0.0545 -0.2138
25699W        W26563  16.777  24.181   9.349  0.2413 -0.2113  0.2542
25700W        W26564  18.148  26.495   9.999 -0.0582 -0.3795 -0.0036
25701W        W26565  18.654  25.649  10.244  0.1011  0.0239  0.1476
25702W        W26566  18.590  25.835  11.041  0.0545 -0.0520 -0.2106
25703W        W26567  16.444  27.214   8.856 -0.0230  0.1642  0.2034
25704W        W26568  16.675  28.602   8.379  0.3605 -0.2238 -0.1269
25705W        W26569  15.925  27.658   9.852  0.1346 -0.0366 -0.3064
25706W        W26570  15.600  26.503   9.242  0.0119  0.0044  0.0921
25707W        W26571  17.445  26.814  11.399 -0.1870 -0.1484 -0.0576
25708W        W26572  17.382  25.511   8.878 -0.1207  0.1333  0.0271
25709W        W26573  16.345  27.627  10.612 -0.3591 -0.0463  0.1218
25710W        W26574  15.359   1.562   8.785  0.2326  0.1446 -0.1299
25711W        W26575  12.696  27.411  11.081  0.0558 -0.1173  0.0432
25712W        W26576  13.199  24.254   7.760 -0.0344 -0.0013  0.0608
25713W        W26577  15.994  29.123   8.624 -0.1990 -0.0916 -0.1834
25714W        W26578  15.833  28.341  11.234 -0.2556 -0.0964 -0.2446
25715W        W26579  17.929  26.011   9.129 -0.1337 -0.0208 -0.1073
25716W        W26580   8.764  24.226  10.201  0.1201  0.1202 -0.0986
25717W        W26581  18.639   0.509  10.474  0.1883 -0.1106  0.0052
25718W        W26582  16.424  25.008  11.382 -0.0579  0.0252 -0.1201
25719W        W26583  19.633  26.537  10.235  0.0818 -0.0725 -0.3119
25720W        W26584  18.538  23.732   7.783  0.1352 -0.0141 -0.1248
25721W        W26585  19.467  24.916   6.317 -0.1017 -0.0327 -0.0343
25722W        W26586  17.668  26.699   8.054 -0.1606 -0.2868  0.1199
25723W        W26587  19.343  28.141  10.896 -0.1739  0.3003 -0.2413
25724W        W26588  17.635  28.404   8.379 -0.1441 -0.4065  0.2366
25725W        W26589  19.024  29.054   7.670  0.1588  0.0156  0.1577
25726W        W26590  10.878   0.046   8.750  0.2662 -0.0994  0.0002
25727W        W26591  15.006   2.532   9.576  0.0413  0.4021  0.4075
25728W        W26592  16.085  25.518  10.062  0.4329  0.0771 -0.0884
25729W        W26593  20.470  24.755   8.606  0.0474 -0.2640 -0.2054
25730W        W26594  17.459  28.225   6.673  0.1047 -0.0539  0.1403
25731W        W26595  17.919  27.089   8.604 -0.0073 -0.0866  0.0175
25732W        W26596  17.842  26.345   8.793  0.0723  0.1846 -0.2426
25733W        W26597  17.808  24.070   7.829  0.4664 -0.0332 -0.1728
25734W        W26598  17.951  28.059   8.024  0.1230 -0.1284  0.2046
25735W        W26599  18.856  27.386   9.132  0.0790 -0.1033  0.1568
25736W        W26600  15.781  27.418   6.608 -0.3721  0.0982  0.1175
25737W        W26601  14.723  26.826   8.452  0.0833 -0.1599  0.3451
25738W        W26602  12.618  27.188  10.433 -0.1587 -0.1829 -0.1887
25739W        W26603  18.115  27.635   8.409  0.1587 -0.2874 -0.1818
25740W        W26604  15.435  28.737  10.009 -0.1582 -0.0961  0.1900
25741W        W26605  17.855   0.966   9.175 -0.3080  0.1220 -0.0514
25742W        W26606  16.971  27.361   8.501  0.2987 -0.0766  0.1609
25743W        W26607  14.430   1.135  10.026 -0.0301 -0.0635 -0.0351
25744W        W26608  11.684   0.201   9.256 -0.0669 -0.2898 -0.0373
25745W        W26609  15.164   0.794   9.203  0.2301  0.4002 -0.0994
25746W        W26610  17.477  23.932   9.067  0.0188 -0.3364 -0.1927
25747W        W26611  20.350  24.324   6.212  0.1821  0.0600  0.2878
25748W        W26612  14.358   0.940   8.484 -0.0439 -0.0931 -0.0932
25749W        W26613  14.176  25.301   9.759  0.1894  0.0618  0.1698
25750W        W26614  16.390   0.395  11.167  0.0509 -0.0566  0.0681
25751W        W26615  16.404   0.174  10.138 -0.2902  0.3957  0.1188
25752W        W26616  17.673  27.615   8.115  0.2013 -0.2449 -0.3407
25753W        W26617  13.930  26.668   5.158 -0.0345 -0.2351  0.0406
25754W        W26618  18.605  27.895   8.521  0.1652 -0.0379  0.2760
25755W        W26619  17.292  26.344  12.446 -0.0508  0.0239  0.2238
25756W        W26620  21.157  28.622   7.051 -0.0104 -0.1053 -0.2222
25757W        W26621  17.487  28.702   9.442  0.4541  0.1041 -0.1328
25758W        W26622  15.252   1.065   9.646  0.0776 -0.0913  0.0452
25759W        W26623  14.826   2.601  10.595 -0.4367  0.3121 -0.1025
25760W        W26624  14.917  26.576   6.531 -0.0418 -0.0699  0.1545
25761W        W26625  16.712  27.568   9.365 -0.0120 -0.1842  0.1569
25762W        W26626  14.841  24.650  10.832 -0.1727  0.1645  0.0857
25763W        W26627  14.522  26.269   9.814  0.1608  0.0725  0.0118
25764W        W26628  12.870  24.908   9.144  0.0352 -0.0917  0.0102
25765W        W26629  14.923  26.554  10.609 -0.0053 -0.0378 -0.0543
25766W        W26630  18.355  25.637   9.014 -0.1028  0.0398 -0.3515
25767W        W26631  14.155  26.093   6.660 -0.2138 -0.3603 -0.1454
25768W        W26632  17.167  28.641   9.861 -0.0233 -0.1121 -0.0940
25769W        W26633  15.903  27.464  11.984  0.0484 -0.2401  0.0501
25770W        W26634  18.710  27.471  11.227 -0.0208  0.2004 -0.3653
25771W        W26635  17.326  25.746  10.574  0.1503 -0.4981 -0.0283
25772W        W26636  16.410  27.023   7.458  0.0049 -0.1353  0.0097
25773W        W26637  17.782  26.570  12.291 -0.3179 -0.2510  0.0417
25774W        W26638  14.122   0.235   6.523 -0.0011  0.3453 -0.0728
25775W        W26639  14.370  27.693   9.545 -0.0198 -0.2388 -0.1858
25776W        W26640  17.122  22.928  10.667  0.0718 -0.1431 -0.1866
25777W        W26641  19.545  23.352   8.251  0.2304 -0.0457 -0.0985
25778W        W26642  17.630  26.921   6.798 -0.1242 -0.0005  0.2795
25779W        W26643  16.111  28.012  10.891  0.3525  0.1036 -0.2592
25780W        W26644  13.890  26.156   8.911 -0.0698 -0.3401 -0.0207
25781W        W26645  16.400  25.713   6.975  0.1661 -0.0047  0.2110
25782W        W26646  14.577  28.539   9.723 -0.0634  0.0544  0.0321
25783W        W26647  16.848  28.507  10.213  0.1231 -0.2049 -0.1295
25784W        W26648  16.891  28.983   8.111  0.0327  0.3015  0.1946
25785W        W26649  19.519  26.350   8.332  0.1707  0.0986 -0.1095
25786W        W26650  18.477  24.425   7.057 -0.2568  0.0372  0.1365
25787W        W26651  15.895  28.201   8.835 -0.0380  0.2142  0.1758
25788W        W26652  16.253  25.451   7.790 -0.1868 -0.6875  0.0601
25789W        W26653  15.953  26.273  12.389  0.2228 -0.1588 -0.2071
25790W        W26654  17.288  24.652   9.987  0.2058 -0.1192 -0.0439
25791W        W26655  16.855  26.651   9.001 -0.1193  0.1797  0.1771
25792W        W26656  14.285   0.084  11.012 -0.2429 -0.1721  0.0370
25793W        W26657  18.063   0.866   7.555 -0.1614 -0.2863  0.1231
25794W        W26658  17.197  25.585   9.803  0.2199  0.0219  0.1937
25795W        W26659  16.778  27.624  12.367  0.2263  0.1654  0.2088
25796W        W26660  16.688  27.111   7.986 -0.1238 -0.0333 -0.4697
25797W        W26661  16.376  26.716   8.802 -0.0939  0.1230  0.0481
25798W        W26662  16.730  24.305   8.353 -0.1841 -0.0761  0.1943
25799W        W26663  16.597  25.432   9.475 -0.3532  0.2571 -0.2369
25800W        W26664  15.059  25.513   8.614 -0.2270 -0.0953  0.2668
25801W        W26665  16.275  27.706   8.536 -0.2690 -0.4383  0.2542
25802W        W26666  19.366  27.541   9.093  0.1188 -0.2843  0.4493
25803W        W26667  19.629   2.613   8.198 -0.0969 -0.2447  0.0655
25804W        W26668  17.107  27.664   6.638 -0.2254  0.2715 -0.0367
25805W        W26669  16.926  27.459   7.669 -0.1875 -0.2495  0.0861
25806W        W26670  16.138  25.433  10.604  0.1275  0.5194 -0.0323
25807W        W26671  18.170  28.164   8.439 -0.3246  0.0778 -0.1203
25808W        W26672  14.867  24.053  10.446 -0.0943  0.1290  0.0836
25809W        W26673  16.695   0.275   9.183  0.0344 -0.2299 -0.3921
25810W        W26674  16.695  27.383   9.991 -0.3070  0.2420  0.0525
25811W        W26675  17.138  28.272   8.310 -0.1232  0.0016 -0.2175
25812W        W26676  18.153   0.160   9.866 -0.1615  0.1000  0.1744
25813W        W26677  17.373  24.233   7.746 -0.0451  0.0620  0.0470
25814W        W26678  17.508   0.241  12.015  0.0357 -0.0313 -0.0296
25815W        W26679  19.165  23.952   7.783  0.1438 -0.1607 -0.1959
25816W        W26680  18.524  28.371   8.734  0.0238  0.1250  0.6017
25817W        W26681  16.691  28.047   8.447 -0.1830  0.1300 -0.0218
25818W        W26682  18.434  25.466   7.002  0.0805 -0.0359  0.2236
25819W        W26683  16.125  26.168   7.413  0.0320 -0.3498 -0.0938
25820W        W26684  14.792  27.727   8.152  0.1106 -0.3613  0.1181
25821W        W26685  18.962  28.836   9.077 -0.1895 -0.0391  0.0012
25822W        W26686  14.780  27.370  10.056 -0.3465  0.2366  0.1754
25823W        W26687  18.324  23.564  11.937 -0.0634 -0.1102  0.0587
25824W        W26688  13.237   1.077   4.505  0.0944 -0.1842 -0.2032
25825W        W26689  15.376  27.296   7.491 -0.6159  0.0403  0.0447
25826W        W26690  18.979  25.081   8.472  0.0188  0.0378 -0.1276
25827W        W26691  15.017   1.489   7.398  0.1428 -0.0285 -0.3082
25828W        W26692  17.088  25.562   6.615 -0.3003  0.3846 -0.2403
25829W        W26693  13.426  28.814   9.528  0.2037  0.0081  0.1873
25830W        W26694  16.772  27.705   8.862 -0.4436  0.3440  0.1162
25831W        W26695  15.542  25.630   8.688 -0.0676  0.0972  0.3284
25832W        W26696  16.350  27.248   9.523 -0.2655  0.1366  0.0816
25833W        W26697  15.357  27.931   8.713  0.1998  0.3527  0.0720
25834W        W26698  19.335   0.614   7.392 -0.0410 -0.2709 -0.2199
25835W        W26699  15.944  27.343   7.457  0.4040  0.1800 -0.1058
25836W        W26700  16.978  26.589  11.276  0.2285  0.1538 -0.1180
25837W        W26701  17.274  24.723   9.385  0.0679 -0.3021  0.2020
25838W        W26702  16.836  28.311  11.150 -0.3992 -0.5240 -0.0313
25839W        W26703  15.979  29.106   9.144 -0.0700 -0.1896 -0.1221
25840W        W26704  17.174  24.326   9.072  0.1009 -0.0537 -0.3625
25841W        W26705  15.787  25.571   6.910  0.0373 -0.0613  0.2304
25842W        W26706  18.797  24.213  10.153  0.0196  0.0311  0.1052
25843W        W26707  16.943   0.205   8.600  0.1445  0.1690  0.1998
25844W        W26708  17.053  27.050  10.193 -0.2211  0.0507 -0.1038
25845W        W26709  17.841  26.474   9.307 -0.0541  0.0818  0.2702
25846W        W26710  16.619  24.601  11.959 -0.1971  0.5928 -0.2050
25847W        W26711  15.553  24.845  11.241  0.1054  0.1745 -0.1215
25848W        W26712  17.848  23.563   9.065  0.0982 -0.0939 -0.6900
25849W        W26713  16.935   0.656   9.366 -0.2226 -0.0040  0.2749
25850W        W26714  19.218  27.065  10.930  0.0742 -0.1877  0.0054
25851W        W26715  18.401   1.011   9.010  0.3974 -0.0883 -0.0834
25852W        W26716  15.867  26.585   8.224  0.2928 -0.1434 -0.1044
25853W        W26717  17.862  24.812   8.236  0.1427 -0.0000  0.3012
25854W        W26718  14.885  27.703   9.399  0.0516  0.1112  0.2055
25855W        W26719  16.296  27.449   6.587  0.1954 -0.1484 -0.3163
25856W        W26720  16.848  22.438   8.761 -0.0375  0.0815  0.2290
25857W        W26721  17.412  26.566   7.697 -0.0785 -0.4209  0.1035
25858W        W26722  14.812   0.063  11.127  0.4211 -0.3647  0.0633
25859W        W26723  14.154  28.460   9.310 -0.1483  0.0297  0.0752
25860W        W26724  14.561  29.034   8.582 -0.1407  0.3725 -0.0596
25861W        W26725  16.218  26.910   5.670  0.0981 -0.3630 -0.1081
25862W        W26726  16.085   0.289   6.421  0.3562  0.1337  0.0685
25863W        W26727  15.493  28.119   9.187  0.0106 -0.2002  0.2556
25864W        W26728  15.252  26.240   7.383 -0.1713  0.0830 -0.0020
25865W        W26729  16.554  26.823   6.016 -0.0866 -0.1341  0.0808
25866W        W26730  13.277  25.876   5.633  0.2535  0.0022  0.1768
25867W        W26731  17.040  27.180   9.585  0.2641  0.1327 -0.0953
25868W        W26732  19.386  25.149   9.415  0.0389 -0.2352 -0.1195
25869W        W26733  13.558  26.323   8.613  0.0399  0.1138 -0.3027
25870W        W26734  16.441  28.742  10.063  0.1299 -0.2690 -0.0003
25871W        W26735  13.626  27.603   9.135 -0.0624  0.2674  0.1178
25872W        W26736  16.302  28.673   8.800 -0.1726  0.3325  0.0414
25873W        W26737  13.559  26.745   8.137 -0.1983 -0.0724  0.1284
25874W        W26738  16.151  28.468  10.507  0.0323 -0.3376 -0.2590
25875W        W26739  17.892  24.102   8.663 -0.1193 -0.3461 -0.2849
25876W        W26740  18.723  25.204   8.954  0.0540 -0.0633 -0.0263
25877W        W26741  11.954  25.291   8.098 -0.1233 -0.1781  0.0690
25878W        W26742  17.495  23.822   8.162  0.0750  0.0759 -0.1654
25879W        W26743  12.931  28.343  10.065 -0.0751  0.2347 -0.2431
25880W        W26744  18.005  24.658   8.724 -0.2108 -0.0206  0.0461
25881W        W26745  17.600  27.731   9.658  0.0821 -0.0376 -0.1775
25882W        W26746  15.377  28.435   8.842  0.1139  0.0445  0.2778
25883W        W26747  17.860  24.447  10.048  0.0266  0.1560 -0.1360
25884W        W26748  15.623  25.176   9.614 -0.0853 -0.0540 -0.3660
25885W        W26749  15.797  26.286   9.670 -0.2802 -0.3006  0.1249
25886W        W26750  16.077  26.715  10.996  0.2857 -0.3350  0.0271
25887W        W26751  13.842  23.405   7.563  0.0663  0.2520 -0.0211
25888W        W26752  17.763  25.643   8.573  0.0933  0.1874 -0.1418
25889W        W26753  15.957  27.039   8.558  0.2719 -0.2634 -0.1370
25890W        W26754  17.236   1.558   8.121 -0.2800 -0.0494  0.1123
25891W        W26755  14.842   1.277   9.732 -0.0512  0.0209 -0.0336
25892W        W26756  16.432  26.270  10.400 -0.2101 -0.2231 -0.1344
25893W        W26757  16.202  28.936  10.440 -0.2040 -0.2834 -0.0292
25894W        W26758  15.465  25.425   7.323  0.4428  0.2038 -0.1070
25895W        W26759  17.179  23.305  10.979 -0.1968 -0.2198 -0.2170
25896W        W26760  19.320  28.130   7.915  0.3015 -0.3038 -0.0652
25897W        W26761  17.884  27.648   7.186 -0.5129 -0.1143 -0.1345
25898W        W26762  14.044  27.321   9.495 -0.5120 -0.0754  0.0883
25899W        W26763  18.128   0.571   9.001  0.0404  0.0276  0.0716
25900W        W26764  17.583  27.278  11.169  0.2759 -0.2400  0.4143
25901W        W26765  13.893   2.339  10.170 -0.2016  0.1635  0.1009
25902W        W26766  19.287  28.267   9.796  0.3639  0.0456 -0.0529
25903W        W26767  19.228  24.888   7.925 -0.1559 -0.1751  0.1816
25904W        W26768  14.559  27.263   9.487  0.0770 -0.1462 -0.2028
25905W        W26769  16.031  26.032   6.937 -0.0458  0.1805  0.0440
25906W        W26770  15.414  28.858   8.386  0.0867  0.0193  0.1456
25907W        W26771  15.978  28.014   9.308  0.1000  0.3956 -0.0908
25908W        W26772  14.750  25.118  10.290 -0.0724  0.1002  0.0083
25909W        W26773  18.794  25.883   8.018 -0.0384 -0.0303  0.2072
25910W        W26774  17.715   0.906   6.718 -0.1228  0.0012  0.1989
25911W        W26775  15.601  26.199   8.833 -0.0075 -0.0435  0.0072
25912W        W26776  16.024  23.859  10.493  0.2163  0.2036 -0.0056
25913W        W26777  18.207  26.611  10.901  0.0817  0.1403  0.1104
25914W        W26778  17.264   0.074   8.292 -0.1134  0.3771  0.1337
25915W        W26779  17.722  27.377   6.727  0.0008 -0.0879  0.0120
25916W        W26780  16.858  26.792  10.637  0.1827  0.1859 -0.1013
25917W        W26781  18.205  28.815   7.641  0.0662  0.0159 -0.0527
25918W        W26782  19.880  28.340   8.384  0.2356 -0.1161  0.0380
25919W        W26783  16.938  26.271  10.681 -0.0469 -0.2889 -0.0642
25920W        W26784  19.920  28.752   7.634  0.2762  0.1266 -0.2220
25921W        W26785  17.329   0.697  10.342  0.2471 -0.1229  0.0967
25922W        W26786  16.995  28.358   6.435  0.3539 -0.1044  0.0733
25923W        W26787  14.926  26.553  10.106  0.1605 -0.2728  0.0247
25924W        W26788  15.048  22.835  12.600 -0.0016  0.1244  0.0462
25925W        W26789  15.138  26.065   8.649  0.0812  0.1412  0.0835
25926W        W26790  14.746  26.152  10.295 -0.1008 -0.2004 -0.0239
25927W        W26791  13.099  28.916   7.982  0.0597  0.0780 -0.1916
25928W        W26792  17.492  27.804   6.935 -0.2040  0.0193 -0.0228
25929W        W26793  14.164  27.589  12.979 -0.3553  0.0945 -0.3543
25930W        W26794  18.858  28.230   7.781 -0.1706  0.2167 -0.2166
25931W        W26795  14.262  24.053   9.190  0.0196 -0.0362 -0.1860
25932W        W26796  15.651  28.911   9.579  0.1431 -0.2207 -0.4233
25933W        W26797  14.636   1.643  10.120  0.0913 -0.2155  0.1777
25934W        W26798  18.159  28.913  10.151  0.1762  0.1181 -0.3282
25935W        W26799  16.336   0.512   7.813  0.0700  0.2880  0.1863
25936W        W26800  16.524  26.795   9.338  0.0530 -0.0456  0.0489
25937W        W26801  18.334  26.132   7.862 -0.1721  0.3945  0.0983
25938W        W26802  17.485  27.098   7.723  0.0151 -0.1554 -0.1309
25939W        W26803  14.327  26.053   9.168  0.3000 -0.0132  0.3670
25940W        W26804  19.929  26.769   6.776 -0.2642 -0.1877  0.2365
25941W        W26805  19.041  24.443   7.829  0.0588  0.1219  0.0793
25942W        W26806  17.453  25.599   6.309 -0.0824 -0.0976  0.3377
25943W        W26807  16.123  27.007  11.827  0.1085 -0.0484  0.3970
25944W        W26808  15.080   1.528   9.217  0.1012 -0.0807 -0.1198
25945W        W26809  14.333  25.870  10.180  0.1484 -0.0063 -0.0473
25946W        W26810  12.558  28.794   9.272  0.0778  0.1090 -0.0607
25947W        W26811  17.270   0.120   7.764 -0.0174  0.0438 -0.0376
25948W        W26812  14.511  28.293  10.183  0.1982  0.2826  0.1134
25949W        W26813  19.216  27.188   7.407 -0.0377  0.0825  0.2490
25950W        W26814  13.310  28.228   9.062 -0.0160  0.0883  0.0017
25951W        W26815  17.233  23.898   7.223 -0.1918  0.1694 -0.3780
25952W        W26816  18.443  28.892   9.649  0.3830 -0.1766  0.0966
25953W        W26817  17.049  28.695  11.499 -0.1566  0.0189  0.2728
25954W        W26818  17.926  27.946   6.714 -0.1025  0.1367  0.1736
25955W        W26819  16.240  26.684  12.291 -0.2242  0.0096  0.4782
25956W        W26820  18.359   1.770   9.543 -0.0325  0.2365  0.1941
25957W        W26821  17.580  25.602  10.146 -0.1657 -0.1615 -0.0084
25958W        W26822  15.751  27.185  11.068 -0.2702 -0.3628 -0.0271
25959W        W26823  14.175  28.842   8.939 -0.0652  0.2293 -0.0511
25960W        W26824  15.793  27.734   8.952  0.0878 -0.3306  0.2010
25961W        W26825  14.106  28.747   8.039 -0.0529  0.0797  0.0187
25962W        W26826  15.426   1.686  11.164 -0.2087 -0.0107  0.2083
25963W        W26827  16.057  26.964   7.875 -0.3616 -0.1182 -0.1508
25964W        W26828  16.760  27.268  10.751  0.2866  0.0819 -0.2039
25965W        W26829  16.197   2.871   9.643 -0.1303 -0.0494  0.0078
25966W        W26830  17.987   1.689   5.166 -0.1258 -0.1487  0.2350
25967W        W26831  13.898  27.899  10.314  0.0508  0.0273 -0.2568
25968W        W26832  18.516  27.749   4.874  0.0590  0.1374 -0.2732
25969W        W26833  15.983  27.381  10.295  0.3268 -0.1794  0.2037
25970W        W26834  17.080  26.063   5.445  0.1288 -0.2677 -0.0052
25971W        W26835  17.023   0.771   6.685  0.0023  0.3971  0.3009
25972W        W26836  17.069  26.799   6.908 -0.0059 -0.1696 -0.0400
25973W        W26837  19.944  25.112   8.252  0.2200 -0.1930  0.1645
25974W        W26838  18.607  26.243   9.824 -0.1437 -0.0978  0.4460
25975W        W26839  16.726  27.633   8.118  0.3552 -0.0348  0.1020
25976W        W26840  16.557   0.552   8.725 -0.1014 -0.0521 -0.3005
25977W        W26841  16.964  25.660   7.880  0.2096  0.0816 -0.1445
25978W        W26842  16.592  26.261   9.951  0.0215  0.1754  0.0169
25979W        W26843  19.338  26.412   9.419  0.0462 -0.0462 -0.4415
25980W        W26844  19.090  28.578   8.117  0.0009  0.0228  0.0068
25981W        W26845  11.892   1.592   8.425 -0.0211 -0.2322  0.2244
25982W        W26846  14.867  28.836   7.686 -0.0343 -0.1565  0.0146
25983W        W26847  14.748  25.340   9.448  0.1296  0.2641  0.1918
25984W        W26848  17.745  26.093  12.579 -0.1617 -0.1184  0.0298
25985W        W26849  17.863  28.511   6.698 -0.1183  0.1046 -0.2940
25986W        W26850  20.737  27.247   6.359  0.3112  0.1129 -0.1447
25987W        W26851  17.281  27.546   8.819 -0.2315 -0.1485 -0.0337
25988W        W26852  20.922  26.547   9.820  0.0640  0.0836  0.0140
25989W        W26853  15.484  27.741  10.426 -0.2171 -0.1397  0.1412
25990W        W26854  17.470  25.853   8.203 -0.0033  0.1025  0.1966
25991W        W26855  12.839  28.836  10.773  0.1137 -0.0216 -0.0680
25992W        W26856  13.861  27.980   8.178  0.1080 -0.0069  0.2472
25993W        W26857  14.585  27.372  10.588 -0.4348 -0.1616  0.0030
25994W        W26858  14.919  27.172   7.667 -0.1291 -0.3131  0.0323
25995W        W26859  16.277  29.127   9.647  0.1371  0.0780  0.3767
25996W        W26860  15.337   0.577   9.644  0.2373  0.0503 -0.0552
25997W        W26861  17.280  26.735   9.818 -0.0646 -0.0986 -0.3240
25998W        W26862  14.887   0.399   9.210 -0.3760  0.1723 -0.0276
25999W        W26863  18.003  27.021   7.954  0.0293 -0.0662 -0.0398
26000W        W26864  19.605  25.550   9.035  0.1803  0.0018  0.2834
26001W        W26865  14.457  28.415   8.825  0.0304 -0.3813  0.0097
26002W        W26866  15.772   0.292  10.144 -0.0845  0.3168 -0.1508
26003W        W26867  17.772   0.554   5.146 -0.5199 -0.0862 -0.2522
26004W        W26868  13.866   2.336   7.333  0.0304 -0.2569  0.0049
26005W        W26869  15.039  26.490   9.615  0.1115 -0.0729  0.0533
26006W        W26870  14.363  27.812   6.546 -0.2124  0.1368  0.3194
26007W        W26871  15.248  27.372   9.558 -0.1417  0.0174 -0.2704
26008W        W26872  17.559  25.432   6.785  0.1094  0.0520 -0.2182
26009W        W26873  14.029   0.100   7.891 -0.0498 -0.0083 -0.0763
26010W        W26874  14.823  29.104  10.113  0.2812  0.1259 -0.1783
26011W        W26875  15.049  27.267   7.061  0.1842  0.0421 -0.2511
26012W        W26876  16.459  27.400  11.740  0.3455  0.1554  0.3623
26013W        W26877  15.311  25.308   7.784  0.0949  0.2835 -0.0620
26014W        W26878  19.974  26.641   8.099  0.0973  0.3225 -0.0956
26015W        W26879  18.468  27.834  10.702  0.0077 -0.0122 -0.0594
26016W        W26880  20.277  28.300   8.832  0.1145 -0.1836 -0.0428
26017W        W26881  17.595  27.167   8.271 -0.1876  0.1326  0.1605
26018W        W26882  16.173   2.596   8.169 -0.0272  0.1306  0.1220
26019W        W26883  17.468  27.058   4.937 -0.2203 -0.1166 -0.2745
26020W        W26884  16.731  26.469  12.985  0.1102 -0.0503 -0.1404
26021W        W26885  16.251  25.805   9.605  0.1701  0.0420 -0.0999
26022W        W26886  12.243  28.196   8.111 -0.1505  0.0901 -0.4556
26023W        W26887  12.591  24.821   8.418  0.0115  0.1365  0.0853
26024W        W26888  17.305  25.002   6.644 -0.1867  0.0805 -0.0587
26025W        W26889  16.431  27.966   7.169 -0.2127  0.1017 -0.1800
26026W        W26890  14.292  27.459   8.005 -0.3625  0.1648  0.0345
26027W        W26891  14.999  26.062   9.887  0.2979 -0.0499  0.0622
26028W        W26892  15.946  28.995   9.971 -0.3001  0.1147  0.0838
26029W        W26893  12.751  22.242  10.471 -0.2077  0.2468  0.3025
26030W        W26894  18.632  28.350   8.243  0.2842 -0.0989  0.3348
26031W        W26895  12.369  26.212  11.750 -0.0928 -0.0206 -0.2839
26032W        W26896  17.002  25.138   9.759 -0.1647 -0.1624  0.1029
26033W        W26897  18.787  28.995   5.636 -0.3358  0.1088 -0.1103
26034W        W26898  17.368  26.954   9.310  0.1639  0.1342 -0.3077
26035W        W26899  17.789  26.845   9.026  0.1759 -0.1473  0.0889
26036W        W26900  17.852  28.445   7.695  0.2374  0.1344  0.2085
26037W        W26901  16.978  27.881   4.430 -0.3421  0.0380 -0.1171
26038W        W26902  15.191  28.554  11.628 -0.2965  0.0603  0.1495
26039W        W26903  15.717  23.384  10.650 -0.2364  0.2348 -0.0919
26040W        W26904  14.715  25.655  10.408 -0.0256 -0.1579  0.3112
26041W        W26905  14.698  26.941   7.232 -0.1760  0.0178  0.0767
26042W        W26906  16.843  26.665   7.367  0.4350 -0.1169 -0.0404
26043W        W26907  17.173  27.367   8.050 -0.0398 -0.0101  0.1758
26044W        W26908  16.654  23.807   9.676  0.0001 -0.0544 -0.1735
26045W        W26909  20.154  24.220   7.651  0.2363  0.1188  0.0237
26046W        W26910  18.861  28.728   8.545 -0.3086  0.1855 -0.0136
26047W        W26911  18.010  27.938   9.356 -0.0385  0.2320  0.1192
26048W        W26912  15.023   1.364   7.990 -0.2220 -0.3084 -0.1113
26049W        W26913  17.837  28.723   7.269 -0.3372 -0.1052 -0.2005
26050W        W26914  15.356  24.937   6.638  0.1431 -0.1872 -0.1614
26051W        W26915  18.797  25.962   7.455 -0.1444  0.2865  0.1230
26052W        W26916  14.904  28.625   8.708  0.3209 -0.1035 -0.1291
26053W        W26917  15.600  23.725   9.402  0.2529  0.0684  0.3665
26054W        W26918  15.550  27.047   7.931  0.2094 -0.0530 -0.2077
26055W        W26919  15.261   1.100   8.677  0.1212 -0.1275  0.1524
26056W        W26920  18.710  28.472   5.646  0.1462  0.1107 -0.3517
26057W        W26921  15.385  26.849  12.108 -0.0818 -0.2792  0.0130
26058W        W26922  14.761  23.728   9.278  0.3068  0.2518  0.1565
26059W        W26923  17.003  25.532  11.968 -0.0834 -0.0028  0.1457
26060W        W26924  17.022  28.006  10.123 -0.0067  0.0613  0.0778
26061W        W26925  14.922  26.924  11.356 -0.0594 -0.1180 -0.2876
26062W        W26926  15.281  27.364  10.056 -0.1235  0.1382  0.0221
26063W        W26927  13.264  27.423  12.494 -0.3169  0.1054 -0.3163
26064W        W26928  14.612  27.501  11.538 -0.0877  0.0631  0.0774
26065W        W26929  15.616  28.003  10.057 -0.2410 -0.3429  0.1030
26066W        W26930  20.367  28.410  12.777  0.0465 -0.1157  0.1942
26067W        W26931  18.281  25.762   8.186  0.0624  0.0536  0.1015
26068W        W26932  15.603   0.581   6.030 -0.3141  0.1230  0.0321
26069W        W26933  17.213  27.887   9.351 -0.2255  0.1657  0.0136
26070W        W26934  12.342   0.330  11.692 -0.2557  0.2220  0.4152
26071W        W26935  18.475  28.069   9.221 -0.4144  0.3703 -0.1102
26072W        W26936  17.918  27.126  11.482  0.2210 -0.2024 -0.2303
26073W        W26937  13.302  25.422   8.533 -0.0064  0.1003  0.1479
26074W        W26938  20.987  27.531   8.311  0.0264  0.0828 -0.0084
26075W        W26939  18.151  27.460  10.432 -0.3172 -0.1031 -0.1871
26076W        W26940  17.383  28.340  10.264  0.2318 -0.1080 -0.0478
26077W        W26941  16.787  24.764   8.130 -0.2369 -0.0670 -0.1099
26078W        W26942  17.382  26.297   8.089 -0.0895 -0.0555  0.0892
26079W        W26943  16.165  26.746  10.532  0.0751  0.0092  0.1286
26080W        W26944  12.438   0.787   9.533 -0.0999 -0.0444 -0.2840
26081W        W26945  17.903  26.555  10.521  0.0218 -0.0229 -0.0034
26082W        W26946  15.476   2.848  14.576 -0.0577  0.2763 -0.1876
26083W        W26947  15.323  27.524  14.488  0.0923 -0.1058 -0.1160
26084W        W26948  15.913  28.840  12.104  0.0366  0.0432 -0.0195
26085W        W26949  18.030   0.849  15.749  0.2450  0.1199 -0.3020
26086W        W26950  15.215   0.932  12.660 -0.0465  0.2380 -0.2749
26087W        W26951  16.670   0.196  14.146  0.0524  0.5169  0.2854
26088W        W26952  13.931  24.631  13.205  0.2620 -0.2635  0.2320
26089W        W26953  15.920  27.909  11.671 -0.0751 -0.0501 -0.2118
26090W        W26954  15.909   0.368  13.831 -0.0547 -0.2251  0.3365
26091W        W26955  14.398  29.108  13.267 -0.1083 -0.0561  0.0227
26092W        W26956  16.566  25.556  16.174  0.0631  0.0743  0.0882
26093W        W26957  15.216  26.496  15.018  0.1250 -0.0489 -0.3186
26094W        W26958  16.349  25.008  12.790  0.0550 -0.1726 -0.1172
26095W        W26959  14.916   0.057  12.801 -0.0354 -0.0330 -0.0525
26096W        W26960  15.304  24.769  13.890  0.4058 -0.1139  0.2728
26097W        W26961  15.396  26.820  13.104  0.0375 -0.3395  0.0862
26098W        W26962  18.657  26.714   9.978  0.1003  0.0226 -0.0284
26099W        W26963  14.735  25.935  15.681 -0.0999 -0.1955  0.0049
26100W        W26964  15.309  27.743  18.252 -0.0315  0.2563  0.0859
26101W        W26965  17.101  28.334  10.707 -0.0099  0.1589  0.1718
26102W        W26966  19.725  28.274  13.542  0.1717 -0.2832 -0.3092
26103W        W26967  16.708  28.051  12.667  0.1926  0.1794  0.4181
26104W        W26968  14.234   0.638  12.738 -0.4457  0.0012  0.1136
26105W        W26969  16.412  27.843  14.339  0.0043  0.1687  0.0282
26106W        W26970  15.070  27.657  12.027  0.1989  0.3675  0.1770
26107W        W26971  15.956  27.679  16.375  0.0039  0.1827 -0.3169
26108W        W26972  18.598  27.792  14.729  0.4199  0.0249  0.2420
26109W        W26973  14.470  26.507  13.333 -0.0620  0.0294  0.1509
26110W        W26974  19.718  28.680  16.746 -0.3178  0.2232 -0.1364
26111W        W26975  13.890  28.851  13.225 -0.2198  0.3505 -0.2005
26112W        W26976  14.960  27.407  13.468 -0.2893  0.0084  0.2249
26113W        W26977  16.027   0.303  17.058 -0.0506 -0.1701  0.2085
26114W        W26978  17.583  28.971  16.474  0.1923  0.1402  0.2038
26115W        W26979  15.870   0.544  15.801  0.0291 -0.1307 -0.2162
26116W        W26980  16.783  25.961  16.072  0.1271 -0.0256  0.0494
26117W        W26981  19.251  28.086  13.626 -0.1945 -0.1692  0.1012
26118W        W26982  15.173  27.995  13.713 -0.0385 -0.1921  0.0406
26119W        W26983  15.466  27.209  16.314  0.2902 -0.1733  0.1349
26120W        W26984  18.866  27.278  12.446  0.1635  0.0350  0.0071
26121W        W26985  17.133  26.464  16.282  0.0542 -0.3748  0.0059
26122W        W26986  18.809  26.412   9.256 -0.0814 -0.0691 -0.1664
26123W        W26987  19.252  27.523  11.238  0.1848  0.0811  0.1290
26124W        W26988  14.774   0.347  13.150  0.2024  0.2686 -0.1908
26125W        W26989  20.048  26.277  10.246  0.3338 -0.4580  0.0376
26126W        W26990  15.980  27.973  10.350  0.0490  0.0072 -0.1499
26127W        W26991  13.848  28.466  12.820 -0.3534  0.1283  0.0274
26128W        W26992  14.808  26.704  14.786 -0.0345  0.3624 -0.1546
26129W        W26993  16.107  26.614  13.848 -0.0093  0.3580  0.1787
26130W        W26994  16.475  29.002  10.971 -0.2254 -0.0678 -0.0857
26131W        W26995  16.646  26.179  11.730  0.2883  0.1255  0.3175
26132W        W26996  15.371  27.653  13.384 -0.1984  0.0198  0.0347
26133W        W26997  17.855  28.453  13.409 -0.1454 -0.2806 -0.0877
26134W        W26998  18.123  27.039  10.682 -0.1065 -0.0659  0.1153
26135W        W26999  18.633  25.719   9.778  0.0284 -0.0261 -0.1134
26136W        W27000  17.530  27.227  13.267 -0.3012  0.0004 -0.4021
26137W        W27001  17.660  28.760  12.194  0.3170 -0.1162 -0.1110
26138W        W27002  15.294  26.746  14.578 -0.0495 -0.0265  0.2558
26139W        W27003  18.059  27.030  12.687  0.0231  0.0816 -0.0604
26140W        W27004  15.691  26.094  11.947 -0.0758 -0.3257  0.0665
26141W        W27005  17.839  29.090  11.634  0.0283 -0.1587  0.1457
26142W        W27006  16.508  26.277   8.991 -0.4621  0.1564 -0.0362
26143W        W27007  14.998  27.154  12.296  0.1163 -0.0251 -0.1012
26144W        W27008  16.879   1.186  12.984  0.3342  0.1891  0.0044
26145W        W27009  16.428  25.574  14.621 -0.0622  0.0007  0.2218
26146W        W27010  15.671  27.189  14.538  0.0021 -0.0114  0.0060
26147W        W27011  17.782  25.304  14.014  0.0851  0.3132 -0.2229
26148W        W27012  17.477  26.110   8.623 -0.2176  0.1175  0.3673
26149W        W27013  11.798  25.808  11.529 -0.0756 -0.0881  0.1199
26150W        W27014  16.342  27.576  12.785  0.0381 -0.4024 -0.2387
26151W        W27015  12.627  28.488  12.806 -0.0844 -0.2946  0.1785
26152W        W27016  15.227   1.538  11.677  0.2024  0.2467 -0.1054
26153W        W27017  16.728  26.119  11.181  0.0701  0.2138  0.2638
26154W        W27018  17.632  27.241  12.268 -0.2083  0.0235 -0.2504
26155W        W27019  19.068  27.968  14.971  0.0393 -0.0216 -0.0381
26156W        W27020  15.870  27.775  13.133 -0.2643  0.1161  0.2649
26157W        W27021  17.011  28.967  13.881  0.2913  0.0240 -0.0262
26158W        W27022  13.863  27.860  11.623  0.2199 -0.1954 -0.2246
26159W        W27023  14.842  26.606  13.701 -0.0160  0.1657 -0.0751
26160W        W27024  16.676  26.980  11.579  0.4307 -0.0193  0.2063
26161W        W27025  17.931  28.336  12.924 -0.2175 -0.0325 -0.0645
26162W        W27026  17.417  28.764  14.156 -0.0836  0.5622  0.1668
26163W        W27027  14.875  24.757  16.101  0.0891  0.1043 -0.0844
26164W        W27028  14.129  27.406  11.642  0.0522  0.1280 -0.2424
26165W        W27029  16.845  26.897  13.296 -0.0650  0.2606 -0.0616
26166W        W27030  16.046  26.356  15.403 -0.4233 -0.0725 -0.0942
26167W        W27031  15.093  26.966   9.855  0.0758  0.0694 -0.2316
26168W        W27032  16.485   1.290  12.602 -0.1830 -0.0454  0.2261
26169W        W27033  16.307  27.753  14.887  0.0800  0.2814 -0.1433
26170W        W27034  20.799   0.342  17.342  0.2465 -0.3108 -0.2803
26171W        W27035  17.001  26.192  13.937 -0.1544 -0.1619 -0.1374
26172W        W27036  15.179  25.480  11.629 -0.1066 -0.0772  0.2477
26173W        W27037  18.008  26.997  15.723  0.2853 -0.0833  0.1913
26174W        W27038  15.906  28.667  13.504 -0.2882  0.2087  0.1387
26175W        W27039  15.466  25.448  11.201 -0.0653 -0.1236 -0.2007
26176W        W27040  16.137  26.926  17.295 -0.0979 -0.2942 -0.1011
26177W        W27041  19.877  28.293  13.040 -0.1373 -0.3357 -0.1077
26178W        W27042  16.778  27.116  12.087  0.2306 -0.3412 -0.0247
26179W        W27043  15.804   2.986  15.546  0.0555 -0.3910  0.0044
26180W        W27044  14.301  26.727  10.688 -0.0008 -0.4529  0.1466
26181W        W27045  20.165  27.959  16.132  0.0796  0.2104  0.1836
26182W        W27046  17.044  29.107   9.420 -0.2833 -0.2542  0.1990
26183W        W27047  15.298  26.422  14.019  0.3878  0.0326 -0.2814
26184W        W27048  18.470  25.143  10.485  0.0453 -0.0065 -0.0638
26185W        W27049  18.782   0.678  12.905 -0.2047  0.0998  0.0043
26186W        W27050  16.813  25.130  13.663  0.1197  0.0061 -0.2137
26187W        W27051  17.995  27.597  13.474 -0.1381  0.1055 -0.0555
26188W        W27052  15.540  24.579  10.772 -0.0692 -0.2532 -0.0139
26189W        W27053  15.384   0.042  13.129  0.0678 -0.0458  0.1320
26190W        W27054  17.386  28.651  13.630 -0.1296  0.0894 -0.0970
26191W        W27055  16.054  27.396  13.436  0.0187 -0.0447  0.1040
26192W        W27056  14.514  26.959  13.845 -0.0600  0.0551  0.5090
26193W        W27057  18.562   1.004  13.613  0.0455 -0.0786 -0.0165
26194W        W27058  17.281  28.490  15.105 -0.0683  0.2236  0.2679
26195W        W27059  19.185   0.351  16.048  0.0959  0.1199 -0.1144
26196W        W27060  18.892  27.553   9.596 -0.1413 -0.1097  0.0861
26197W        W27061  18.692  28.800  10.061 -0.0570  0.0464  0.0472
26198W        W27062  20.390  26.337  13.576 -0.0123 -0.0218 -0.0838
26199W        W27063  18.153  28.003  15.479 -0.3061  0.1001  0.1022
26200W        W27064  16.082  28.745  15.855 -0.2061 -0.0627  0.0588
26201W        W27065  18.628  24.958   7.883  0.0361 -0.2386  0.2169
26202W        W27066  15.795  26.608  12.011 -0.0738  0.3749  0.0078
26203W        W27067  18.471   0.347  12.590  0.3608  0.1384 -0.1820
26204W        W27068  14.615  27.913  13.831 -0.3184  0.2722  0.1097
26205W        W27069  19.486  27.686  10.825  0.4993  0.0584 -0.1679
26206W        W27070  18.619  28.702  12.080 -0.2204  0.1275  0.2588
26207W        W27071  18.094  25.899  14.944  0.0723  0.1129  0.2824
26208W        W27072  14.140  24.428  14.907  0.0320  0.0447 -0.0869
26209W        W27073  18.788  28.301  11.403  0.0944 -0.0765  0.0241
26210W        W27074  19.360  26.629  10.735  0.0580 -0.1230  0.0748
26211W        W27075  17.320  27.548  10.187  0.3051 -0.1378  0.0479
26212W        W27076  16.076  27.514  14.411 -0.0261  0.0266  0.0755
26213W        W27077  17.573  23.412  11.300  0.3256  0.0098 -0.1950
26214W        W27078  17.203  27.504  10.856 -0.0313  0.0432 -0.1255
26215W        W27079  16.889  27.875  13.430 -0.1066  0.1552  0.0412
26216W        W27080  18.201   0.725  15.218  0.0520 -0.0845  0.0177
26217W        W27081  14.564  26.362  14.073 -0.1572  0.0480  0.2007
26218W        W27082  17.641  26.537  13.578  0.0933 -0.0643 -0.0122
26219W        W27083  18.861  28.477  13.613 -0.2735 -0.1761 -0.1890
26220W        W27084  19.991  28.139  11.082 -0.1397 -0.2230 -0.0406
26221W        W27085  16.447  27.775  12.018 -0.1928  0.0823  0.0357
26222W        W27086  17.207  26.859  12.300 -0.0261 -0.0523  0.0060
26223W        W27087  16.843  26.617  15.232  0.1568 -0.2203  0.1646
26224W        W27088  15.650   0.283   6.695 -0.0238  0.1223 -0.3326
26225W        W27089  17.840  26.801   9.721 -0.2195  0.1172 -0.3191
26226W        W27090  18.829  28.631  16.400 -0.1600  0.1371  0.1817
26227W        W27091  18.491  28.875  13.888 -0.0042  0.0535  0.0517
26228W        W27092  16.728  24.830  10.054 -0.0097 -0.0766 -0.3663
26229W        W27093  16.985   0.458  13.860 -0.3997 -0.1802  0.0254
26230W        W27094  15.357   1.397  13.077  0.0156 -0.0030  0.0969
26231W        W27095  15.249   0.769  14.234  0.1262  0.1505 -0.0842
26232W        W27096  15.415  27.669  15.459 -0.2827 -0.1754 -0.0344
26233W        W27097  14.831  28.255  14.118  0.2499  0.1935 -0.3130
26234W        W27098  14.828  27.921  13.390  0.0478  0.0375  0.1187
26235W        W27099  15.409  26.376  12.871  0.0701 -0.3964 -0.0985
26236W        W27100  18.829   0.530  13.643 -0.1922  0.0645  0.0437
26237W        W27101  13.560  22.930   9.579  0.2123 -0.1238  0.0579
26238W        W27102  16.112  24.381  15.062  0.2662  0.3494  0.3796
26239W        W27103  17.446  26.028  13.699  0.2705  0.2086  0.1086
26240W        W27104  13.511  27.243  10.580 -0.1829  0.2500  0.2318
26241W        W27105  14.579  24.729  13.112  0.0551 -0.1163  0.1091
26242W        W27106  16.861  25.320  11.466 -0.0700  0.2145  0.1679
26243W        W27107  15.251  27.941  15.046  0.0776 -0.2452  0.1668
26244W        W27108  14.103  25.973  17.138  0.1752 -0.2217  0.2557
26245W        W27109  16.618  28.272  16.549 -0.0950  0.3071 -0.3647
26246W        W27110  17.613  24.349  14.722 -0.0457 -0.0902 -0.0823
26247W        W27111  15.547  25.452  15.903 -0.1680 -0.1228  0.2089
26248W        W27112  15.311  27.166  11.268  0.4598 -0.3119  0.0657
26249W        W27113  15.127  28.974  12.427  0.0253 -0.2663  0.0757
26250W        W27114  18.084   0.166  14.455 -0.1682  0.1197  0.2530
26251W        W27115  17.277  27.805  12.164  0.3902 -0.0513  0.2779
26252W        W27116  17.793  26.838  11.080  0.1030 -0.0957 -0.1131
26253W        W27117  17.925  28.885  13.724 -0.6601 -0.1090 -0.1729
26254W        W27118  15.240  26.005  15.039  0.0918 -0.1422  0.3501
26255W        W27119  18.707  26.328  10.826  0.2798 -0.1922  0.0815
26256W        W27120  14.386  26.752  14.324 -0.0629  0.2207  0.0028
26257W        W27121  16.328  25.889  10.861  0.0002  0.0334  0.3236
26258W        W27122  12.075  27.278  14.283 -0.0551  0.1379 -0.1867
26259W        W27123  15.022  27.154  14.596  0.0839 -0.1327  0.1021
26260W        W27124  14.076   1.518  12.541  0.3519 -0.1199 -0.1260
26261W        W27125  16.508  26.643  14.862 -0.3043  0.2007  0.0185
26262W        W27126  16.390  26.306   8.145  0.2568 -0.4022 -0.2162
26263W        W27127  17.649   1.732   7.930 -0.1825 -0.2693 -0.0513
26264W        W27128  18.291  26.310   7.401  0.0746  0.2123  0.1327
26265W        W27129  16.149  25.451  12.647  0.0815 -0.2803  0.2161
26266W        W27130  16.843  25.987  10.290 -0.2868 -0.2098 -0.1596
26267W        W27131  19.289   0.129  13.676 -0.0654 -0.1967  0.3266
26268W        W27132  18.069  26.376  13.028 -0.1820  0.1204  0.0280
26269W        W27133  14.540  26.619  11.212  0.2057 -0.1669  0.2371
26270W        W27134  17.507  28.064  16.149 -0.0540 -0.0633  0.0313
26271W        W27135  15.883  27.023  12.254  0.0765  0.2117 -0.1484
26272W        W27136  14.874  29.127  10.653 -0.3086 -0.0096 -0.0322
26273W        W27137  15.226  26.673  11.658  0.2440  0.2858 -0.0150
26274W        W27138  11.657  27.379  14.032 -0.0231  0.0569 -0.0991
26275W        W27139  13.704  25.156  14.965 -0.0826 -0.1398 -0.1370
26276W        W27140  15.961  25.391  13.612 -0.0661 -0.1607 -0.2118
26277W        W27141  15.569  23.988  13.778 -0.2217  0.0861 -0.1889
26278W        W27142  15.359  26.103   9.565  0.1100  0.1486  0.0517
26279W        W27143  15.088  25.580  13.372 -0.0972  0.1961 -0.1567
26280W        W27144  13.500  27.573  10.141 -0.0498 -0.1103  0.1591
26281W        W27145  18.632  24.919  10.889 -0.1913 -0.3149 -0.1234
26282W        W27146  13.436  24.631  13.053 -0.1691 -0.0525 -0.0161
26283W        W27147  16.837  28.473  13.793  0.3120  0.0614  0.0312
26284W        W27148  18.384  26.078  10.302  0.0253  0.1390  0.0943
26285W        W27149  15.770  25.914  14.892  0.1119  0.1568  0.0633
26286W        W27150  14.800  25.481  11.996 -0.1498  0.0617  0.1638
26287W        W27151  15.406  26.723  10.284  0.0045 -0.2254 -0.0054
26288W        W27152  14.916  25.696  15.195 -0.3000  0.0855 -0.0654
26289W        W27153  16.564  28.272  13.349 -0.0318  0.0794 -0.1083
26290W        W27154  16.946  28.865   9.001 -0.1717 -0.0899 -0.3235
26291W        W27155  16.824   1.064  13.890 -0.0370 -0.0298  0.0921
26292W        W27156  17.231   0.901  14.133  0.2761 -0.1470  0.2390
26293W        W27157  13.802  27.200  12.994  0.1349  0.0887  0.3493
26294W        W27158  16.446  28.304  14.228  0.0741  0.4029 -0.1200
26295W        W27159  16.295  25.263  13.241 -0.0086  0.3789 -0.0006
26296W        W27160  17.437  24.908  13.066 -0.0355 -0.2351  0.1148
26297W        W27161  19.227  26.206  10.906 -0.1019 -0.0712  0.2629
26298W        W27162  17.459  28.958  11.332  0.3403  0.1921 -0.2814
26299W        W27163  19.651  25.061   9.830 -0.2727  0.1276 -0.1752
26300W        W27164  16.801  27.699  16.778  0.0835 -0.1291  0.1503
26301W        W27165  15.436  28.619  13.354  0.1597  0.2513  0.0033
26302W        W27166  18.865  25.355  17.082  0.1879 -0.2851  0.4437
26303W        W27167  18.954  28.202  11.926 -0.0228  0.1468 -0.1809
26304W        W27168  16.835  27.909  14.704 -0.1395 -0.2188 -0.2598
26305W        W27169  13.998  24.524  12.278 -0.0289 -0.0825 -0.3893
26306W        W27170  16.481  25.907   7.903 -0.3176 -0.1041 -0.2357
26307W        W27171  15.101  24.825  15.541 -0.0254  0.1491  0.2348
26308W        W27172  14.381   0.236  17.225  0.2956 -0.1176  0.0563
26309W        W27173  16.472  27.235  13.161 -0.1891 -0.1561 -0.2592
26310W        W27174  18.682  26.928   9.354  0.0402  0.0685 -0.1108
26311W        W27175  17.390  28.304  11.987  0.1875 -0.2357 -0.1418
26312W        W27176  17.648  25.592  13.566  0.3717 -0.1236 -0.1007
26313W        W27177  15.911  25.530  14.529  0.1043  0.1246 -0.0921
26314W        W27178  16.790  27.614  12.977  0.0613 -0.0470  0.1011
26315W        W27179  18.163  24.802  13.320 -0.2990 -0.0846 -0.1013
26316W        W27180  16.703  25.759  14.072 -0.1375  0.0189  0.1181
26317W        W27181  18.136   0.416  11.319  0.3362  0.3624  0.0911
26318W        W27182  20.374  25.666  13.415  0.0233  0.2447 -0.0002
26319W        W27183  16.893  25.750  14.826  0.0472 -0.1274  0.0604
26320W        W27184  18.364  26.469  11.766 -0.0296  0.0472 -0.0799
26321W        W27185  18.129  27.927   9.832 -0.2973 -0.1378  0.1142
26322W        W27186  16.139   1.389  12.945 -0.3480  0.0607 -0.1584
26323W        W27187  16.672   0.962  15.351  0.0684 -0.0696 -0.0069
26324W        W27188  16.005  27.095  14.128 -0.1516  0.0702  0.2756
26325W        W27189  15.005  25.785  14.687 -0.2590  0.0074  0.2594
26326W        W27190  15.655  29.074  13.560  0.1459  0.0939  0.1569
26327W        W27191  18.373  27.767  12.000 -0.2243 -0.2557 -0.0798
26328W        W27192  18.623  25.028  13.212  0.2213  0.1199 -0.1489
26329W        W27193  14.429  26.964  14.768 -0.1293  0.0359 -0.1689
26330W        W27194  20.293  28.136  11.437 -0.3457 -0.0924  0.2419
26331W        W27195  17.101  27.364  14.646 -0.0655  0.0737  0.0501
26332W        W27196  15.467   1.010  13.417  0.3233 -0.3070 -0.0466
26333W        W27197  16.820  28.432  14.822 -0.2705  0.0264  0.0047
26334W        W27198  16.945   1.355  13.437 -0.2151 -0.0363 -0.1824
26335W        W27199  17.026  27.376  13.410 -0.3741  0.0211  0.2826
26336W        W27200  17.027  28.817  11.002 -0.2361 -0.1232 -0.0651
26337W        W27201  19.274   0.618  11.018 -0.1150 -0.0284 -0.0263
26338W        W27202  17.586  28.040  11.652  0.0123  0.2083  0.1385
26339W        W27203  15.286  27.446  19.661 -0.2329  0.1261 -0.3194
26340W        W27204  17.731   0.050  14.140  0.0662 -0.0930  0.0822
26341W        W27205  17.141  26.490   8.518  0.0412 -0.1758 -0.2592
26342W        W27206  15.237  26.997  13.535  0.3074 -0.0852 -0.1191
26343W        W27207  17.033  26.887  14.856  0.1394  0.0937  0.0776
26344W        W27208  14.836  28.902  13.443 -0.1319  0.1008 -0.1163
26345W        W27209  15.243  25.600  13.849 -0.1618 -0.2965 -0.2957
26346W        W27210  15.283  27.092  14.115  0.1754  0.1829  0.1535
26347W        W27211  13.956   0.081  15.182 -0.2776 -0.1670  0.3906
26348W        W27212  16.670  28.580  10.667  0.1619  0.2310  0.0723
26349W        W27213  18.347  26.451   9.467 -0.2442 -0.1433  0.1088
26350W        W27214  15.609  24.215  16.624  0.1067 -0.1482 -0.1186
26351W        W27215  19.591  24.941  11.242  0.2011  0.1462 -0.0845
26352W        W27216  16.702  28.083  10.561 -0.0123  0.0972  0.2376
26353W        W27217  18.694  27.855  14.186 -0.1382  0.1032 -0.3073
26354W        W27218  17.134   0.837  15.162 -0.1893 -0.0307  0.0136
26355W        W27219  19.392  27.855  12.121 -0.4544  0.0631 -0.2833
26356W        W27220  18.095  28.981  12.014 -0.0264  0.1048 -0.1254
26357W        W27221  15.639  25.685  15.286  0.0329 -0.0656 -0.2658
26358W        W27222  15.422  24.864  13.380  0.0596 -0.1498 -0.0398
26359W        W27223  17.852  27.947  13.217  0.1527  0.0068  0.0267
26360W        W27224  17.140  24.901  10.386 -0.1350  0.0222  0.0289
26361W        W27225  13.744  26.307  12.021 -0.1790 -0.1010 -0.0959
26362W        W27226  15.778   1.310  13.901  0.4261 -0.1834 -0.0931
26363W        W27227  16.841  25.223  14.668 -0.0558  0.1772 -0.2313
26364W        W27228  15.738  27.866  13.675 -0.3425 -0.0820  0.1676
26365W        W27229  13.349  27.693  13.450  0.0508  0.4131  0.0484
26366W        W27230  19.904  25.898  11.252  0.1234 -0.0514  0.0438
26367W        W27231  16.172  26.262  11.808 -0.0566  0.2726 -0.1458
26368W        W27232  18.793   0.504  12.211 -0.0991 -0.0706 -0.3387
26369W        W27233  17.160  25.783  17.036  0.0810  0.1619 -0.0401
26370W        W27234  17.126  27.047  11.066  0.0999  0.2265 -0.1255
26371W        W27235  19.184  26.342   9.912 -0.0898 -0.0891  0.2053
26372W        W27236  16.395  28.918  12.033 -0.2080  0.0008  0.0393
26373W        W27237  17.846  25.450   9.151  0.0071 -0.1559 -0.1097
26374W        W27238  16.113  28.152  14.628  0.0456  0.0266  0.0341
26375W        W27239  13.330  24.232  13.366 -0.0102 -0.1420 -0.0867
26376W        W27240  15.604  28.405   9.649  0.0684 -0.1777  0.1873
26377W        W27241  18.575  25.186   9.983  0.1096 -0.0031  0.1059
26378W        W27242  16.674  28.520  12.846 -0.0862 -0.1597  0.0302
26379W        W27243  17.926  24.159  12.957 -0.0505  0.1570 -0.0176
26380W        W27244  18.102  25.653  11.393 -0.2075  0.1268 -0.0181
26381W        W27245  16.371  26.704  13.429  0.0646 -0.1719 -0.1781
26382W        W27246  16.121   1.231   9.737 -0.0877  0.1603 -0.3197
26383W        W27247  15.393  27.052  16.824 -0.1441  0.0599  0.2552
26384W        W27248  13.350  27.166  15.474 -0.1674  0.2336  0.1374
26385W        W27249  20.048  26.059  10.750 -0.2927  0.0119  0.2913
26386W        W27250  18.916  27.287  11.663  0.1723 -0.0857 -0.0586
26387W        W27251  16.823   3.034  14.482 -0.3273 -0.0142  0.2226
26388W        W27252  18.915  28.766  14.133 -0.0595  0.2385  0.2878
26389W        W27253  14.890  25.873  11.627  0.0879 -0.2478  0.0702
26390W        W27254  17.150  27.852  12.648  0.1317 -0.1529  0.1568
26391W        W27255  16.094   1.125  11.728  0.1030  0.1979  0.2067
26392W        W27256  16.966  22.584  13.251 -0.3723 -0.1191  0.1532
26393W        W27257  15.574   1.060  16.517  0.0116 -0.1097  0.2828
26394W        W27258  16.981  26.503  10.158  0.0536  0.2026  0.0750
26395W        W27259  15.425  28.030  14.144 -0.0388 -0.0909  0.0961
26396W        W27260  14.393  27.268  11.145 -0.2482  0.3503  0.1334
26397W        W27261  15.587   2.035  13.773  0.2321  0.0642  0.2096
26398W        W27262  16.636  24.648  13.572  0.1536 -0.0445 -0.4602
26399W        W27263  16.785  25.252  12.346  0.2408 -0.1483 -0.0315
26400W        W27264  16.051  28.203  13.363  0.0967 -0.0607  0.1986
26401W        W27265  18.678  25.674  15.157 -0.1541  0.0333 -0.1576
26402W        W27266  16.064   0.068  12.355 -0.1728 -0.2269  0.2942
26403W        W27267  18.722  27.631  10.333  0.1214 -0.1326 -0.1544
26404W        W27268  17.303  27.229  14.178  0.3683  0.2487 -0.1114
26405W        W27269  18.870   0.775  15.406  0.1713 -0.0361  0.3302
26406W        W27270  15.334  25.761  12.562  0.0739  0.1930  0.1047
26407W        W27271  19.067   0.306  10.629 -0.0484  0.0906 -0.2003
26408W        W27272  17.168  24.758  13.491  0.3698  0.1688  0.0912
26409W        W27273  14.421  25.724  11.613 -0.1825 -0.0483  0.0759
26410W        W27274  16.952  27.547  11.860 -0.0398 -0.0034 -0.0400
26411W        W27275  17.051  26.013  12.011  0.3276 -0.1988 -0.3233
26412W        W27276  17.662  23.327  16.768  0.2436  0.1227  0.2720
26413W        W27277  13.082  25.749   9.021 -0.1426 -0.4960 -0.2210
26414W        W27278  16.688  27.922  16.202 -0.1522  0.4004 -0.3894
26415W        W27279  17.317   0.298  15.534 -0.0919 -0.1902 -0.0222
26416W        W27280  18.725   0.202  13.143  0.0765 -0.0200 -0.0540
26417W        W27281  17.579   0.485  10.689  0.0875  0.1644  0.1185
26418W        W27282  15.680   3.184  11.985  0.3236  0.2033 -0.1127
26419W        W27283  15.393  27.986  12.364  0.3655  0.0264 -0.1475
26420W        W27284  15.221  26.957  10.841 -0.0061  0.0444  0.5404
26421W        W27285  16.371  27.078  13.755  0.0565 -0.0304  0.0622
26422W        W27286  19.293   0.004  11.823  0.2331 -0.0637 -0.0680
26423W        W27287  17.321  28.223  13.429 -0.3710 -0.1981  0.3564
26424W        W27288  16.596  26.194  12.214 -0.0452 -0.0750  0.1817
26425W        W27289  15.843   1.769  10.554  0.0095 -0.0528 -0.0987
26426W        W27290  15.967  25.814  11.631  0.1217 -0.2103 -0.0278
26427W        W27291  15.621  26.939  15.906  0.0238  0.3087 -0.2278
26428W        W27292  14.603  28.778  10.931  0.1258  0.2117 -0.3182
26429W        W27293  13.615  27.922  12.067  0.5249  0.0401 -0.3081
26430W        W27294  17.504  29.124  12.861  0.0486 -0.0257 -0.2885
26431W        W27295  14.801  27.036  12.807 -0.0737 -0.0832 -0.2258
26432W        W27296  17.722  28.385  14.818 -0.1202  0.1336  0.1510
26433W        W27297  18.963  25.094  10.546  0.0342 -0.4043 -0.1688
26434W        W27298  19.922  29.038  14.034  0.0900 -0.0417  0.1247
26435W        W27299  17.834   0.845  10.580 -0.0166 -0.1059 -0.1215
26436W        W27300  16.902   2.075  10.287  0.0915  0.1261 -0.1890
26437W        W27301  16.542  28.254   8.874  0.0611 -0.0145  0.0542
26438W        W27302  15.102  28.524  13.756 -0.0424 -0.3545 -0.2324
26439W        W27303  18.510  28.948  12.989 -0.1239  0.0914  0.5477
26440W        W27304  16.016  24.679  16.240 -0.1277 -0.4172 -0.0472
26441W        W27305  16.797  29.021  11.768 -0.1934 -0.0100  0.1039
26442W        W27306  15.252  25.601   9.673 -0.2084  0.0205  0.0968
26443W        W27307  18.165  28.100  16.575  0.2379 -0.0144  0.0953
26444W        W27308  16.375  27.982  13.730  0.0047  0.1944 -0.1129
26445W        W27309  18.155  26.919  12.169  0.0821  0.1148  0.1612
26446W        W27310  16.523  28.440  12.339 -0.0202  0.2694 -0.2776
26447W        W27311  16.240  27.984  12.399  0.0723  0.2960  0.1631
26448W        W27312  17.495  28.684  13.158  0.0306  0.2010 -0.0102
26449W        W27313  18.672  26.782  12.549 -0.1556  0.2688 -0.0847
26450W        W27314  17.119  28.141  11.583  0.2526 -0.2689  0.0872
26451W        W27315  19.009  23.634   9.848 -0.0886  0.0906 -0.0982
26452W        W27316  17.207  27.580  11.427  0.0424  0.1436 -0.4558
26453W        W27317  17.574  25.753  11.350  0.4372 -0.0077  0.0629
26454W        W27318  15.712   0.259   9.655  0.1095  0.0349  0.2650
26455W        W27319  19.237  28.771  15.653  0.4373 -0.0021  0.0827
26456W        W27320  18.130  28.835  10.670 -0.0435 -0.3214 -0.0852
26457W        W27321  13.952  26.699  14.769  0.0644  0.1725  0.3670
26458W        W27322  14.522  26.885  12.419  0.0686 -0.0632  0.0084
26459W        W27323  16.495  28.799  15.573  0.0760  0.0237  0.5744
26460W        W27324  15.516  23.898  13.271 -0.2685  0.0581  0.0386
26461W        W27325  15.050  29.043  14.803  0.3282 -0.2655 -0.0781
26462W        W27326  18.509  27.281  12.812 -0.0934 -0.0959 -0.3584
26463W        W27327  17.668  26.295  11.215  0.3338  0.0505  0.1057
26464W        W27328  14.263  28.821  13.684  0.0979 -0.0231 -0.1470
26465W        W27329  14.625  28.773  14.966 -0.1649 -0.2466 -0.0748
26466W        W27330  17.285   1.003  14.634 -0.1385 -0.0072  0.0283
26467W        W27331  18.469  25.827  11.661  0.0244  0.1177  0.0869
26468W        W27332  18.562  28.669  12.619 -0.1189 -0.1144  0.1897
26469W        W27333  14.033  27.109  14.408  0.1970  0.1584 -0.0680
26470W        W27334  15.547   1.132  11.786  0.1762 -0.1299 -0.1307
26471W        W27335  16.278  29.147  12.829 -0.1184  0.0855  0.0882
26472W        W27336  16.874   0.716  12.279  0.2061 -0.0562 -0.0332
26473W        W27337  14.876   1.667  11.148 -0.0786 -0.1819 -0.1382
26474W        W27338  19.773  27.365  14.682  0.0609  0.0912 -0.0692
26475W        W27339  17.677   1.330  16.513  0.0024 -0.2297  0.0226
26476W        W27340  13.038  27.017  11.249 -0.3682 -0.1042  0.1787
26477W        W27341  16.678   0.260  14.693  0.2507  0.1833 -0.2300
26478W        W27342  15.123  27.629  12.514 -0.0664  0.0379 -0.1515
26479W        W27343  15.771  26.828  15.402  0.0552  0.1274 -0.1139
26480W        W27344  13.463  29.139  13.330 -0.2734 -0.0235 -0.0214
26481W        W27345  16.416  28.224  10.134 -0.1935 -0.0414  0.1996
26482W        W27346  16.291  28.882  19.137  0.1155  0.1500 -0.1900
26483W        W27347  16.234  29.023  16.834 -0.0815  0.0370 -0.0871
26484W        W27348  19.438   0.850  13.816  0.1391 -0.0713 -0.1104
26485W        W27349  17.637  28.041  16.604 -0.0386  0.1908 -0.1846
26486W        W27350  15.005  26.995  15.176  0.0327 -0.1246  0.1585
26487W        W27351  14.451  26.610  16.794 -0.2929  0.1708 -0.1024
26488W        W27352  13.365  27.030  20.939  0.1736 -0.1484 -0.2075
26489W        W27353  15.707  27.864  14.472 -0.1898  0.0165  0.1584
26490W        W27354  13.859   1.219  18.410  0.1695 -0.0402 -0.0914
26491W        W27355  14.824  26.828  19.221 -0.2262 -0.0583 -0.3413
26492W        W27356  15.286  26.335  18.109  0.2481 -0.2892 -0.2356
26493W        W27357  18.977  26.062  15.840 -0.0149  0.4260  0.0888
26494W        W27358  19.401  27.420  13.716  0.2378  0.1932  0.0786
26495W        W27359  16.516  27.074  17.809  0.1073 -0.0831 -0.0058
26496W        W27360  16.325  27.509  18.942 -0.2629  0.0859  0.0559
26497W        W27361  12.544   1.050  18.947  0.1978  0.1658 -0.2693
26498W        W27362  16.280  28.628  16.460  0.2345 -0.0062 -0.2158
26499W        W27363  12.662  27.205  18.433 -0.0415 -0.3356 -0.0669
26500W        W27364  18.851  26.685  17.942 -0.1828 -0.4333 -0.1466
26501W        W27365  17.954  28.349  16.239  0.1520  0.1642  0.1033
26502W        W27366  18.634  26.336  16.094  0.0883  0.1627  0.2010
26503W        W27367  17.115   0.181  17.793  0.0772 -0.1020 -0.0120
26504W        W27368  18.437  28.142  12.842 -0.1729  0.0985  0.0291
26505W        W27369  16.002  28.934  17.227 -0.2241 -0.3041  0.1349
26506W        W27370  17.315  28.177  17.887 -0.1609 -0.2618 -0.1720
26507W        W27371  18.156  26.277  18.644 -0.1080 -0.0749 -0.0684
26508W        W27372  18.605  28.535  19.076  0.0320  0.0717 -0.1209
26509W        W27373  15.176  28.996  13.814 -0.2977  0.1376  0.1360
26510W        W27374  18.389  28.986  18.461 -0.0676 -0.2247 -0.3059
26511W        W27375  16.729  26.337  14.358 -0.0119 -0.1846 -0.0363
26512W        W27376  14.286  28.810  15.413  0.0038  0.0686 -0.1544
26513W        W27377  14.669  28.278  16.403  0.2786  0.0131 -0.0070
26514W        W27378  19.671  27.986  18.109  0.2089 -0.0211 -0.0543
26515W        W27379  13.392   1.855  18.596 -0.2286 -0.3877  0.0776
26516W        W27380  16.472  28.028  15.258  0.0414  0.0459  0.3277
26517W        W27381  19.306  26.708  17.709 -0.3029  0.1519 -0.0570
26518W        W27382  13.809  24.911  15.430  0.2106 -0.1311  0.0571
26519W        W27383  17.509  27.036  17.815  0.3980 -0.0119  0.0818
26520W        W27384  17.024  28.871  15.963  0.0840  0.0578 -0.1413
26521W        W27385  17.764  26.178  15.881 -0.1089 -0.0944 -0.3115
26522W        W27386  20.768  27.281  15.786 -0.0207  0.0385  0.0895
26523W        W27387  18.670  27.002  18.507  0.0756  0.1528 -0.0466
26524W        W27388  16.714  28.735  16.824 -0.1690  0.0315  0.0520
26525W        W27389  14.428  28.350  15.422 -0.1780 -0.1457 -0.2613
26526W        W27390  16.582  26.116  15.102  0.3361 -0.0474 -0.1325
26527W        W27391  15.270  29.000  16.690  0.2298  0.0409 -0.0027
26528W        W27392  14.772  23.210  17.166  0.1268  0.4585  0.0736
26529W        W27393  16.834  28.015  18.162 -0.0705 -0.0580 -0.1410
26530W        W27394  17.854  26.993  16.328  0.1959  0.0443  0.0080
26531W        W27395  18.853  27.422  15.049 -0.0238 -0.0587 -0.2444
26532W        W27396  17.359  25.007  16.284 -0.0470  0.2530  0.1310
26533W        W27397  17.304  26.342  14.676 -0.1324 -0.1296  0.1473
26534W        W27398  15.769   1.364  16.116  0.1785  0.1000  0.0912
26535W        W27399  15.409  28.712  15.110 -0.0417 -0.2585  0.0016
26536W        W27400  18.491  23.116  17.766  0.1056 -0.3536  0.0307
26537W        W27401  10.168  28.503  15.713 -0.0070 -0.1270 -0.2197
26538W        W27402  13.836  27.386  13.487  0.1614 -0.1067  0.1821
26539W        W27403  18.936  27.484  13.538 -0.0156 -0.1966  0.3920
26540W        W27404  13.717  25.950  18.616  0.0516 -0.0455  0.0704
26541W        W27405  14.150  28.073  14.061 -0.1394 -0.0487 -0.1209
26542W        W27406  15.350  25.198  16.712  0.1490 -0.4888  0.2791
26543W        W27407  15.873  29.118  21.462 -0.0749 -0.1555  0.0289
26544W        W27408  15.313  27.920  21.101  0.1099 -0.2709  0.0702
26545W        W27409  15.167  25.296  15.368  0.0715  0.1896 -0.3020
26546W        W27410  15.556  26.460  15.841 -0.1459 -0.1350  0.0890
26547W        W27411  18.021  28.155  14.352  0.1378 -0.0407 -0.0518
26548W        W27412  14.175  27.585  14.216 -0.0270  0.0856 -0.2521
26549W        W27413  15.055  24.359  18.010 -0.0645 -0.1782  0.0935
26550W        W27414  16.968  27.305  16.493 -0.2635 -0.2612  0.2335
26551W        W27415  14.586   1.232  14.783  0.0653  0.3669 -0.0044
26552W        W27416  16.602  26.584  16.181  0.5263 -0.3928  0.0443
26553W        W27417  17.776  25.437  14.960  0.1253 -0.1963 -0.1244
26554W        W27418  15.012  28.326  17.530  0.1423 -0.0168  0.0800
26555W        W27419  19.382  25.862  16.077  0.0379 -0.3127 -0.3771
26556W        W27420  19.252  28.455  16.524  0.1463  0.1351  0.0060
26557W        W27421  17.868  26.881  16.888  0.1533 -0.2116  0.0451
26558W        W27422  17.161  25.487  16.181 -0.2153 -0.2994 -0.2176
26559W        W27423  14.414   0.288  18.716  0.2192 -0.2572  0.0275
26560W        W27424  18.385  26.725  15.371 -0.1918  0.1985 -0.0162
26561W        W27425  16.839  27.795  15.706 -0.0658 -0.1826  0.0230
26562W        W27426  17.137  25.968  19.687  0.3559 -0.1512  0.0490
26563W        W27427  16.320   0.554  18.379 -0.0654  0.2520  0.2377
26564W        W27428  14.591  25.855  18.194  0.0577  0.0022  0.2514
26565W        W27429  16.424  27.583  15.836  0.2334 -0.0501  0.0665
26566W        W27430  18.338  25.524  19.043  0.1368 -0.2790 -0.3935
26567W        W27431  16.652  27.565  13.741 -0.0795 -0.3766  0.0765
26568W        W27432  20.462  25.021  17.810 -0.0324 -0.1898  0.1687
26569W        W27433  16.311  25.205  16.979 -0.0611 -0.0551  0.6034
26570W        W27434  19.282  25.869  18.395  0.1037  0.2198  0.4990
26571W        W27435  15.812  25.914  17.224  0.1201 -0.1329 -0.1219
26572W        W27436  16.080  24.245  16.513 -0.0604  0.1223  0.0699
26573W        W27437  17.773  25.479  18.298 -0.3004  0.2367 -0.0608
26574W        W27438  14.352   0.726  14.524  0.0950 -0.0297 -0.1416
26575W        W27439  19.143  26.187  13.069 -0.2309  0.1889 -0.0891
26576W        W27440  14.808  26.777  18.669  0.0205  0.0588 -0.1136
26577W        W27441  19.289  26.231  13.551  0.2098 -0.0024 -0.0031
26578W        W27442  17.284  28.109  15.641 -0.0989 -0.0033 -0.1294
26579W        W27443  14.706   2.703  16.959  0.0453 -0.0910 -0.3433
26580W        W27444  16.218  26.838  15.206 -0.0113 -0.1063 -0.0642
26581W        W27445  15.283   0.761  17.823  0.0655  0.1513  0.0133
26582W        W27446  17.464  28.240  17.014  0.1477 -0.2956  0.0761
26583W        W27447  12.819  27.283  19.282  0.0222 -0.1930  0.0104
26584W        W27448  16.579  23.867  15.425 -0.0537 -0.0265  0.1375
26585W        W27449  17.946   3.141  19.592 -0.4158 -0.2172 -0.0118
26586W        W27450  18.014  24.320  20.886  0.2646 -0.1997 -0.0411
26587W        W27451  15.943  27.961  17.070 -0.2165 -0.0390 -0.0295
26588W        W27452  16.899  27.133  13.836 -0.1326 -0.3738  0.3188
26589W        W27453  17.390  28.820  18.449 -0.1771 -0.2360 -0.2023
26590W        W27454  17.513  26.444  17.075  0.2647  0.2462  0.1485
26591W        W27455  15.182  25.902  17.901  0.0696 -0.1436 -0.0602
26592W        W27456  15.923  26.782  16.856 -0.0882 -0.1066  0.3384
26593W        W27457  17.894  28.832  15.144  0.0233 -0.0556  0.1499
26594W        W27458  16.474   0.249  15.244 -0.0540  0.1285 -0.0866
26595W        W27459  15.484   0.311  15.507  0.0702 -0.0395 -0.2148
26596W        W27460  20.832   1.954  17.960 -0.2105  0.3701 -0.0804
26597W        W27461  16.181  26.951  14.613  0.2804 -0.0864  0.0235
26598W        W27462  18.598  25.384  16.268  0.0226  0.1730  0.2217
26599W        W27463  17.122   0.602  16.865  0.1308 -0.0433 -0.1767
26600W        W27464  18.309  26.878  16.586 -0.1527  0.2688 -0.0169
26601W        W27465  17.736  26.512  15.425  0.0476  0.5168 -0.0434
26602W        W27466  19.817  28.701  14.903 -0.3473 -0.1721  0.0326
26603W        W27467  18.980   1.016  12.601  0.1238 -0.2133  0.1884
26604W        W27468  17.969  28.567  15.784 -0.1302  0.1028  0.1292
26605W        W27469  17.158  27.654  13.828 -0.1060  0.0975  0.1138
26606W        W27470  16.741  26.002  15.533 -0.1040 -0.2629 -0.1521
26607W        W27471  17.913  27.084  18.163 -0.1277  0.1806  0.0505
26608W        W27472  14.424  23.814  19.474  0.1336 -0.1908  0.0576
26609W        W27473  17.149  26.047  18.403  0.1626  0.1017  0.3614
26610W        W27474  17.600   0.443  14.484 -0.1927 -0.2751  0.2383
26611W        W27475  17.048  28.270  16.127  0.1159  0.0705 -0.1296
26612W        W27476  17.044   1.306  15.516 -0.2700 -0.0588 -0.1221
26613W        W27477  14.784  28.745  17.993  0.0798  0.1007 -0.1274
26614W        W27478  17.722   2.368  17.029 -0.0205  0.1366  0.1270
26615W        W27479  17.256  25.392  14.939 -0.0043 -0.1884 -0.1090
26616W        W27480  17.310   0.889  17.185 -0.1357 -0.3745  0.0139
26617W        W27481  12.155  28.272  18.075  0.0547  0.0129 -0.1378
26618W        W27482  18.578  28.287  14.679  0.0213 -0.1222 -0.2135
26619W        W27483  18.457  25.128  17.261  0.2240  0.0675 -0.1606
26620W        W27484  17.199  26.802  15.489 -0.0934 -0.0200 -0.2851
26621W        W27485  17.203  27.258  15.147  0.0330 -0.1683 -0.2628
26622W        W27486  13.338  25.487  15.233 -0.0284  0.0935 -0.3991
26623W        W27487  16.140  27.388  17.059 -0.1355 -0.4385 -0.1696
26624W        W27488  15.247  26.538  17.650 -0.0384  0.1499  0.1528
26625W        W27489  17.213  27.766  14.311 -0.1703 -0.1844  0.0418
26626W        W27490  18.313   0.712  18.411  0.0733  0.1781 -0.0414
26627W        W27491  16.502  28.014  17.250  0.0268 -0.2450  0.0557
26628W        W27492  15.562  25.692  18.468  0.0862  0.0330  0.1406
26629W        W27493  17.988   3.932  14.511 -0.0525  0.1214 -0.0760
26630W        W27494  17.544  29.148  18.064  0.2052 -0.1480 -0.3118
26631W        W27495  16.184  28.284  15.756  0.2477  0.1933 -0.0723
26632W        W27496  16.620  28.769  14.144  0.2966  0.1392 -0.0955
26633W        W27497  15.163  25.170  17.485 -0.1807  0.1249 -0.4350
26634W        W27498  15.703   0.800  18.265 -0.0260 -0.1886  0.0403
26635W        W27499  13.752  26.257  14.896 -0.1446 -0.1570 -0.0740
26636W        W27500  16.561   1.205  16.273  0.1007  0.0816 -0.0400
26637W        W27501  17.038  27.254  16.986  0.1458  0.0295 -0.2214
26638W        W27502  13.944  26.837  18.901  0.0316  0.0464 -0.1300
26639W        W27503  15.440  25.671  16.964 -0.1570  0.0426 -0.1673
26640W        W27504  14.954  25.170  16.421  0.0321  0.2595 -0.0037
26641W        W27505  17.009  28.788  17.237  0.1974  0.0237 -0.0108
26642W        W27506  17.000  25.580  18.918  0.1188  0.3166  0.2323
26643W        W27507  15.486  28.867  17.295 -0.0034 -0.0219 -0.1374
26644W        W27508  18.043  27.273  20.513  0.1492  0.0640  0.4010
26645W        W27509  17.317  27.575  19.779  0.1121 -0.1060 -0.0427
26646W        W27510  17.220  25.701  17.579  0.4289  0.2816  0.0980
26647W        W27511  17.295  25.239  13.824 -0.2855  0.0038 -0.2124
26648W        W27512  16.094  27.507  18.492 -0.1534 -0.1877  0.0899
26649W        W27513  13.865  28.325  15.073 -0.2798 -0.3589 -0.3033
26650W        W27514  16.875   3.510  17.131  0.2910  0.3979 -0.0903
26651W        W27515  15.670  27.478  15.872  0.3773  0.1163 -0.3198
26652W        W27516  20.292   0.263  15.293 -0.1157  0.0174 -0.3039
26653W        W27517  14.793  26.942  15.678  0.1660 -0.0165  0.0019
26654W        W27518  16.927   0.067  16.957  0.1425 -0.0114  0.0919
26655W        W27519  18.953  27.447  13.010  0.1151 -0.0713 -0.1129
26656W        W27520  16.969  24.214  15.490 -0.0291 -0.1284  0.2779
26657W        W27521  18.980  28.269  14.049 -0.1857  0.1539 -0.0821
26658W        W27522  15.955   2.281  17.753  0.2571  0.0227 -0.2052
26659W        W27523  14.526  27.071  16.642  0.2777  0.3413 -0.1395
26660W        W27524  13.643   0.055  16.382  0.2259 -0.1352 -0.2254
26661W        W27525  17.095  25.670  15.304  0.0153  0.3968 -0.3605
26662W        W27526  14.755  28.883  15.554 -0.1365  0.1549 -0.0197
26663W        W27527  19.281   1.978  15.983 -0.2289 -0.2325  0.1146
26664W        W27528  15.107  24.394  16.410  0.3132  0.0281  0.2628
26665W        W27529  16.922  25.048  15.740 -0.3648  0.1124 -0.0520
26666W        W27530  16.032  26.328  14.812 -0.0739  0.1052 -0.1502
26667W        W27531  18.980  26.262  18.234  0.2198  0.1484 -0.0408
26668W        W27532  18.199  25.435  14.249  0.4997  0.0415  0.0430
26669W        W27533  16.004  26.389  17.300 -0.2079 -0.0549 -0.0671
26670W        W27534  14.886   0.480  17.963  0.2230  0.1229 -0.0085
26671W        W27535  15.827  27.013  17.725 -0.1349 -0.0657  0.0296
26672W        W27536  18.492  28.320  15.699 -0.3562  0.2175 -0.2142
26673W        W27537  15.194  27.706  16.154 -0.4525 -0.0859  0.1726
26674W        W27538  17.565  27.520  17.936 -0.2369 -0.1915 -0.0900
26675W        W27539  15.399  25.393  17.988  0.2120  0.0838 -0.1749
26676W        W27540  18.127  24.920  19.816  0.1570  0.1018 -0.0124
26677W        W27541  15.518  24.687  16.648  0.1520  0.0885 -0.1777
26678W        W27542  18.445  28.499  14.201 -0.1670  0.1867  0.1176
26679W        W27543  15.391   0.056  17.729  0.3406 -0.0988 -0.0170
26680W        W27544  15.053  27.515  14.987 -0.2235  0.1576 -0.0687
26681W        W27545  16.389  25.592  17.914  0.1792  0.0351 -0.0886
26682W        W27546  14.746  26.042  16.291  0.2658 -0.0673  0.1061
26683W        W27547  17.860  25.100  16.454  0.0558  0.0961 -0.0280
26684W        W27548  16.421   0.115  11.555  0.0657  0.1712  0.0987
26685W        W27549  15.211  27.461  17.193  0.0019  0.0729 -0.0519
26686W        W27550  16.732  25.772  17.533  0.2663 -0.0129 -0.4906
26687W        W27551  14.220  27.886  16.373 -0.0381  0.0843  0.1769
26688W        W27552  15.057  28.499  18.938 -0.1566  0.3030  0.1104
26689W        W27553  17.647   0.154  16.814 -0.1815 -0.1050 -0.0229
26690W        W27554  16.842   2.520  16.243  0.0738 -0.0185 -0.2632
26691W        W27555  14.904  28.427  12.695 -0.2103  0.0450  0.3351
26692W        W27556  13.439   0.846  17.122  0.0178 -0.1442  0.0190
26693W        W27557  15.145  26.712  16.069  0.1581 -0.0661  0.2279
26694W        W27558  13.754  27.682  16.848  0.4827 -0.1076  0.3489
26695W        W27559  17.911  24.913  18.901 -0.1004 -0.1103  0.0056
26696W        W27560  21.605  23.762  20.223  0.0501 -0.0112 -0.0255
26697W        W27561  18.793  27.242  16.065  0.0147  0.0408 -0.0038
26698W        W27562  19.171  26.425  15.516  0.0608 -0.1167 -0.0592
26699W        W27563  17.343  27.688  15.387 -0.0684  0.0427  0.1500
26700W        W27564  18.781  28.151  19.853 -0.1712  0.1382 -0.1283
26701W        W27565  18.225   1.217  18.276 -0.2036 -0.1653  0.2557
26702W        W27566  17.590  25.952  16.871  0.2304  0.3821  0.1863
26703W        W27567  17.915  26.890  15.027 -0.1124  0.0828 -0.1347
26704W        W27568  15.444  28.861  16.186  0.2491 -0.2420  0.2250
26705W        W27569  16.561  28.473  16.064  0.1589  0.1553  0.2630
26706W        W27570  19.694   0.654  16.649 -0.0410 -0.3566 -0.0427
26707W        W27571  15.891  25.815  16.649  0.2633  0.2494  0.1687
26708W        W27572  16.506  28.497  15.176  0.3960  0.2128 -0.0650
26709W        W27573  17.748  28.303  17.407 -0.3676 -0.1143 -0.1226
26710W        W27574  16.845   0.495  15.559 -0.3349 -0.0494  0.1237
26711W        W27575  18.371  29.141  11.629 -0.3335 -0.3658  0.0701
26712W        W27576  14.467  25.423  17.048  0.2242 -0.1456  0.2196
26713W        W27577  19.031  27.011  18.988 -0.1361 -0.1274  0.0903
26714W        W27578  18.932  28.726  16.866 -0.0307  0.1075  0.0703
26715W        W27579  15.577  28.326  17.381  0.1570 -0.1855  0.0823
26716W        W27580  15.505  28.052  17.890  0.1328 -0.0221  0.0021
26717W        W27581  17.088   1.260  16.095  0.0461  0.1486  0.0182
26718W        W27582  16.345  27.537  15.337 -0.1347  0.2925  0.2373
26719W        W27583  17.418  24.559  19.614 -0.2141  0.1368 -0.1741
26720W        W27584  20.595   1.695  14.229 -0.4189  0.0630  0.0317
26721W        W27585  19.101   1.000  14.373  0.1446  0.2160  0.1748
26722W        W27586  17.463   1.578  16.997 -0.0691 -0.1911  0.2174
26723W        W27587  17.372  25.977  16.343  0.1725 -0.1484  0.0759
26724W        W27588  15.979  24.440  15.614  0.0268 -0.0570  0.1030
26725W        W27589  14.898  25.104  17.028 -0.0013  0.0066 -0.1692
26726W        W27590  18.087  25.415  17.325 -0.3794 -0.0958 -0.0087
26727W        W27591  14.414  27.007  15.333  0.0980 -0.0170  0.1835
26728W        W27592  14.745  28.010  12.439 -0.3669 -0.0684  0.1998
26729W        W27593  17.386   0.910  18.350 -0.1260  0.0524  0.0224
26730W        W27594  19.800   0.115  16.703  0.1762  0.4605 -0.0156
26731W        W27595  16.083  27.349  18.026 -0.0470  0.1447 -0.1138
26732W        W27596  16.656  25.192  17.395 -0.1088 -0.0245 -0.0307
26733W        W27597  16.424  27.020  18.918  0.1352 -0.2800  0.1198
26734W        W27598  19.039  25.356  17.549  0.3271  0.3866 -0.1730
26735W        W27599  19.584  27.227  15.682 -0.0042  0.1988 -0.0126
26736W        W27600  14.899  28.349  15.058  0.1067 -0.0978  0.0392
26737W        W27601  15.473   1.552  15.715 -0.1170  0.0680 -0.0484
26738W        W27602  18.356  26.287  14.726 -0.0429 -0.4154 -0.0354
26739W        W27603  17.280  26.863  18.707 -0.0262 -0.1135 -0.0564
26740W        W27604  18.426   2.565  17.001  0.1222  0.1227 -0.0143
26741W        W27605  16.140  26.038  17.675  0.0620  0.0418  0.0187
26742W        W27606  17.457  26.699  18.170 -0.0269  0.1136 -0.1428
26743W        W27607  13.474   0.864  18.595  0.0060 -0.1137  0.2758
26744W        W27608  15.780  25.935  15.699 -0.0205 -0.0303  0.0099
26745W        W27609  16.308  28.359  19.919  0.1046  0.0071 -0.2325
26746W        W27610  16.193  28.153  16.279 -0.0498 -0.1576  0.2761
26747W        W27611  16.524   2.288  17.333 -0.0060 -0.1323  0.0855
26748W        W27612  13.176  27.064  14.630 -0.0603 -0.2492 -0.0248
26749W        W27613  18.159  27.227  13.162  0.1290  0.2887  0.3339
26750W        W27614  16.784  22.779  16.735 -0.0798 -0.1538 -0.0322
26751W        W27615  18.753  28.984  13.469 -0.4256  0.0256 -0.4163
26752W        W27616  16.046  27.904  17.584  0.0633  0.1882  0.0208
26753W        W27617  20.698  24.432  20.455  0.1168  0.0893  0.0103
26754W        W27618  16.778   0.650  17.575  0.2749  0.1663 -0.2679
26755W        W27619  16.921  27.645  17.278  0.1563  0.0941 -0.4098
26756W        W27620  17.735  27.567  15.599 -0.0750  0.4118  0.2715
26757W        W27621  16.883  25.358  17.890  0.1056 -0.1375 -0.2982
26758W        W27622  14.632  24.677  19.672  0.0584  0.2527  0.2851
26759W        W27623  16.612  26.767  17.382 -0.2067 -0.1948  0.0947
26760W        W27624  16.580  27.263  17.333  0.1736  0.1376  0.2680
26761W        W27625  12.412   1.163  17.313  0.0133  0.0877  0.0932
26762W        W27626  14.129  26.964  16.983 -0.1295 -0.1136  0.2320
26763W        W27627  18.434  24.589  15.573  0.3134  0.1358 -0.0134
26764W        W27628  15.699  28.393  14.348  0.3424 -0.4544  0.3213
26765W        W27629  13.824  27.567  16.311 -0.5209 -0.2539 -0.1489
26766W        W27630  19.718  27.281  15.183 -0.4646 -0.1438  0.2298
26767W        W27631  15.987  25.494  16.176  0.0331  0.1935  0.5392
26768W        W27632  19.051  28.494  14.797  0.0999 -0.2398  0.0344
26769W        W27633  15.144  27.746  17.599 -0.0813  0.1528  0.2154
26770W        W27634  19.066  26.931  15.668  0.1475  0.1753 -0.2344
26771W        W27635  16.196  27.134  15.598 -0.3647 -0.2114 -0.3076
26772W        W27636  15.574  24.114  15.136 -0.0377 -0.2949  0.1301
26773W        W27637  18.482  25.717  14.621  0.2236  0.2698 -0.1431
26774W        W27638  17.805  27.318  14.329 -0.0796  0.1559 -0.4483
26775W        W27639  14.769   0.113  13.846  0.1595  0.0882 -0.0667
26776W        W27640  15.230  27.221  15.555 -0.0940 -0.0295 -0.0861
26777W        W27641  20.179   0.213  16.238 -0.0458 -0.1397 -0.0155
26778W        W27642  13.851  27.232  17.307  0.1533 -0.1568 -0.0293
26779W        W27643  15.695  27.202  17.203 -0.0589  0.2205 -0.1624
26780W        W27644  16.955  27.031  18.189  0.1371 -0.3038  0.3058
26781W        W27645  16.340  27.865  16.751 -0.1141 -0.0076 -0.2758
26782W        W27646  17.921   0.573  14.830  0.3843 -0.0026  0.4042
26783W        W27647  14.809  26.335  19.934  0.1373  0.1179 -0.1934
26784W        W27648  16.382   2.746  17.248  0.3436 -0.1255  0.2368
26785W        W27649  19.631   0.596  16.090 -0.0078  0.3359 -0.3114
26786W        W27650  18.825  27.081  14.548 -0.2106  0.1952 -0.0574
26787W        W27651  16.282   0.086  15.680 -0.0213  0.2120 -0.0945
26788W        W27652  18.935  27.504  19.930  0.0459  0.0515 -0.1180
26789W        W27653  16.377  25.583  16.669 -0.1015 -0.1767 -0.0445
26790W        W27654  19.004  28.417  15.300 -0.1414 -0.0508  0.1709
26791W        W27655  11.992  27.949  18.398 -0.2431 -0.1697 -0.0762
26792W        W27656  14.861  26.165  16.985  0.0739 -0.2203 -0.0051
26793W        W27657  16.873  26.795  16.560 -0.1366 -0.3344  0.1198
26794W        W27658  17.196  25.844  15.840  0.0628  0.0090 -0.0572
26795W        W27659  15.600  26.649  18.334 -0.0334  0.0566  0.2699
26796W        W27660  17.507   2.366  17.977 -0.0597 -0.0525 -0.0106
26797W        W27661  15.558  28.015  16.481 -0.0657 -0.1698 -0.1865
26798W        W27662  15.231  26.138  15.980  0.1291 -0.2325 -0.2977
26799W        W27663  14.550  25.587  16.032  0.0995 -0.1775  0.2422
26800W        W27664  17.584   2.057  18.800  0.2130  0.1119  0.0808
26801W        W27665  16.572  26.656  18.140 -0.0740  0.2367 -0.2030
26802W        W27666  15.064  27.954  16.649 -0.3000 -0.2376  0.1850
26803W        W27667  15.785  26.791  16.379  0.2056 -0.1498 -0.0657
26804W        W27668  13.898  27.728  18.150  0.0107 -0.0769 -0.2546
26805W        W27669  18.266  28.772  13.447  0.0279  0.3180  0.2329
26806W        W27670  15.901  25.247  16.621  0.0225 -0.1234  0.0383
26807W        W27671  14.863  27.875  18.538 -0.2378 -0.0417 -0.0167
26808W        W27672  16.209  24.495  17.412  0.2965 -0.2621 -0.1401
26809W        W27673  15.768  26.292  16.825 -0.1041  0.0452  0.1010
26810W        W27674  17.069  26.192  15.096 -0.2166  0.0854 -0.0332
26811W        W27675  12.751  26.702  17.384  0.2309 -0.1379  0.2182
26812W        W27676  16.123  28.369  17.361  0.1584 -0.1896 -0.0553
26813W        W27677  17.593  27.256  14.788  0.2246 -0.0639  0.1240
26814W        W27678  19.882  24.012  20.709 -0.0464 -0.0752 -0.0128
26815W        W27679  15.267   0.633  16.482 -0.0216 -0.1924 -0.2762
26816W        W27680  18.347  26.788  18.170 -0.1095  0.1117  0.4237
26817W        W27681  17.563  28.356  14.347 -0.0021 -0.0231  0.1094
26818W        W27682  15.665  28.859  15.571 -0.1270  0.1598 -0.1709
26819W        W27683  20.979  27.701  15.969 -0.3092  0.0890  0.1392
26820W        W27684  17.279  26.918  16.284 -0.2356 -0.0273 -0.0238
26821W        W27685  14.678  24.791  13.942  0.0307  0.0939 -0.0236
26822W        W27686  16.098  25.927  15.288 -0.1642 -0.2794 -0.0693
26823W        W27687  19.236  25.864  14.230 -0.1490 -0.2583 -0.3528
26824W        W27688  16.332  25.973  16.333 -0.2850 -0.2658 -0.2129
26825W        W27689  13.913  26.707  12.888 -0.2227 -0.0754 -0.0915
26826W        W27690  18.368   0.180  14.019  0.1407 -0.1450  0.0772
26827W        W27691  15.450  28.870  14.568  0.0350 -0.0582 -0.1366
26828W        W27692  15.822   1.065  14.935  0.1218  0.1180 -0.0484
26829W        W27693  12.755  26.019  18.576 -0.1347 -0.4276 -0.1436
26830W        W27694  15.041  26.656  17.101 -0.3895  0.1568 -0.1880
26831W        W27695  13.292  27.733  18.038 -0.2349 -0.2722  0.1974
26832W        W27696  17.826   0.342  15.723  0.4005 -0.0232 -0.0073
26833W        W27697  19.061  29.023  16.067 -0.0747  0.0968  0.0971
26834W        W27698  19.760   0.477  17.162 -0.2552  0.1569 -0.0502
26835W        W27699  15.550   1.701  18.319 -0.2176  0.0520  0.0957
26836W        W27700  16.556   0.975  17.284  0.6156 -0.1090 -0.2435
26837W        W27701  17.308  24.289  13.726  0.1988 -0.0618  0.0082
26838W        W27702  15.718  26.045  16.204  0.4762  0.0282  0.2008
26839W        W27703  15.074  28.308  18.145  0.3119  0.5711  0.1092
26840W        W27704  14.675  25.317  18.443  0.0767  0.0586  0.4661
26841W        W27705  14.810  27.366  17.508 -0.2384  0.2015 -0.1081
26842W        W27706  16.403  25.188  15.521 -0.0195 -0.0258 -0.3013
26843W        W27707  20.693  24.824  22.195  0.2877 -0.0876 -0.1686
26844W        W27708  15.225  28.532  17.086 -0.0989 -0.3262 -0.1677
26845W        W27709  17.816  27.248  13.773 -0.0077 -0.0354  0.0746
26846W        W27710  14.347  28.792  17.663  0.1957 -0.1498  0.1020
26847W        W27711  18.316  28.464  17.559 -0.0029  0.2040  0.3779
26848W        W27712  16.778   0.820  15.947  0.2369  0.0531  0.0377
26849W        W27713  17.277  27.761  16.955 -0.0272  0.1392  0.0223
26850W        W27714  15.586  25.496  13.303  0.1843 -0.1213 -0.0980
26851W        W27715  19.819  24.251  16.366  0.1267  0.2516  0.3540
26852W        W27716  14.575  24.937  16.739  0.1163  0.2352 -0.0010
26853W        W27717  18.283  25.977  16.096  0.0330 -0.0299 -0.1842
26854W        W27718  16.286  26.855  16.453  0.0666 -0.1614 -0.0413
26855W        W27719  15.799  25.375  17.172  0.0336  0.2771  0.0917
26856W        W27720  15.974   0.315  16.594  0.1485 -0.1252  0.0899
26857W        W27721  17.069  26.994  19.136 -0.1658 -0.1532  0.1289
26858W        W27722  16.030  26.844  18.179  0.1567 -0.1904  0.1669
26859W        W27723  19.310  27.125  16.098  0.1750  0.0332  0.2480
26860W        W27724  17.402  24.838  15.749 -0.2582 -0.3404  0.3110
26861W        W27725  14.817  28.205  17.000 -0.2505 -0.2785 -0.2033
26862W        W27726  17.827  25.955  18.780  0.3898 -0.0521  0.3325
26863W        W27727  13.608  26.074  16.077 -0.0266  0.1529 -0.0367
26864W        W27728  11.050  25.898  18.282 -0.4153  0.0854  0.0629
26865W        W27729  16.661  28.515  17.455  0.1024  0.0487 -0.1532
26866W        W27730  17.441   1.306  17.937 -0.3110  0.1759  0.0671
26867W        W27731  14.485  26.592  17.861  0.0579 -0.0251  0.0713
26868W        W27732  16.577   1.439  17.519  0.2622 -0.3223 -0.1747
26869W        W27733  16.513  28.953  17.254  0.0507 -0.0877 -0.0456
26870W        W27734  16.405  26.610  16.978  0.1065 -0.0972 -0.0305
26871W        W27735  18.091  27.880  16.096 -0.3393  0.1860 -0.1680
26872W        W27736  17.592  27.132  15.923 -0.0663 -0.0389 -0.1550
26873W        W27737  14.615   1.286  17.520 -0.1639  0.2734  0.0723
26874W        W27738  16.297  28.661  17.791 -0.1856  0.1684  0.5681
26875W        W27739  16.242   2.209  16.884 -0.1475 -0.1627 -0.1810
26876W        W27740  16.175   0.354  14.314 -0.0620  0.1800  0.2762
26877W        W27741  18.332  26.459  20.832  0.1845 -0.1464 -0.0171
26878W        W27742  17.889   1.555  16.033 -0.0631  0.1331 -0.3472
26879W        W27743  16.115  28.992  15.138 -0.0669  0.1398  0.0392
26880W        W27744  17.454  28.476  16.440  0.1667 -0.1117 -0.2761
26881W        W27745  12.885  26.537  16.848 -0.2391 -0.0767  0.1180
26882W        W27746  11.695  26.095  21.260 -0.0806 -0.2569  0.1381
26883W        W27747  15.206  27.706  22.532  0.0944  0.0359 -0.0248
26884W        W27748  17.475  27.210  18.334  0.2733  0.0745 -0.0535
26885W        W27749  19.490   0.206  23.384 -0.1157  0.1579  0.0026
26886W        W27750  15.996   1.478  18.379 -0.2240  0.1469 -0.3298
26887W        W27751  15.141  27.100  20.544 -0.2095  0.1340  0.1175
26888W        W27752  14.728  27.247  20.331  0.1721 -0.2037  0.3957
26889W        W27753  14.355  27.196  18.787 -0.0777  0.2108 -0.0078
26890W        W27754  13.310  26.575  18.484 -0.1323  0.1476  0.0932
26891W        W27755  14.026  26.806  23.805  0.0328  0.0228  0.2436
26892W        W27756  17.026  22.961  25.345 -0.1850 -0.3136 -0.0628
26893W        W27757  16.742  25.912  20.854 -0.0377  0.1271  0.0781
26894W        W27758  17.458  26.343  19.670 -0.2376  0.0428  0.1465
26895W        W27759  18.567   1.059  21.361 -0.0412  0.2655  0.0547
26896W        W27760  14.858  26.915  23.011  0.0752 -0.0202  0.0897
26897W        W27761  12.963  28.520  21.348  0.0003  0.2043 -0.0762
26898W        W27762  16.102  27.340  17.536 -0.0635 -0.0001  0.1568
26899W        W27763  15.250  25.571  20.180  0.1961 -0.1721 -0.0974
26900W        W27764  14.139  24.867  24.080 -0.1729 -0.0006  0.2116
26901W        W27765  18.070   0.073  19.997 -0.0831  0.0710 -0.1954
26902W        W27766  17.619  26.242  20.616 -0.1913 -0.2420  0.0484
26903W        W27767  16.425  27.755  19.534 -0.3026 -0.0835  0.0914
26904W        W27768  15.697  25.973  20.114  0.1413 -0.3110  0.2284
26905W        W27769  15.243  26.762  20.912  0.0939  0.0071  0.0306
26906W        W27770  14.675  25.759  20.631  0.1030  0.3427 -0.0056
26907W        W27771  17.264  24.290  22.658 -0.0969  0.0522 -0.1963
26908W        W27772  18.829  27.959  21.832  0.1567  0.0936 -0.0135
26909W        W27773  15.906   0.955  19.742 -0.2185 -0.0150  0.0697
26910W        W27774  19.126  28.939  21.031 -0.0175 -0.1393 -0.2685
26911W        W27775  16.511  28.506  20.937  0.3940 -0.1106  0.2496
26912W        W27776  15.062  27.972  19.010 -0.3488  0.2572 -0.0223
26913W        W27777  16.765  27.045  22.057 -0.2089 -0.1709  0.0165
26914W        W27778  15.472  26.267  20.963  0.0377 -0.1525  0.3366
26915W        W27779  15.223  27.557  20.767  0.0323 -0.1806 -0.2466
26916W        W27780  14.340  26.288  21.084  0.1354 -0.1692 -0.0816
26917W        W27781  17.637  26.665  23.327  0.2233 -0.2457 -0.1166
26918W        W27782  16.461  25.493  20.100 -0.3237  0.2797  0.0919
26919W        W27783  16.299  28.412  16.901 -0.1386  0.3153  0.1948
26920W        W27784  18.491  27.169  19.482  0.0750  0.0681  0.1585
26921W        W27785  18.680  27.216  16.554 -0.1010 -0.1601  0.2566
26922W        W27786  18.544  26.230  19.454 -0.0831  0.2034  0.2009
26923W        W27787  20.549  25.368  18.649 -0.0366  0.2535 -0.0043
26924W        W27788  18.715  28.429  20.408 -0.2491  0.0087 -0.0602
26925W        W27789  19.110  27.257  18.227  0.3354 -0.2077 -0.0664
26926W        W27790  15.867   1.572  20.858  0.3593 -0.1474 -0.0449
26927W        W27791  13.833  29.106  17.435  0.0044 -0.4534 -0.3359
26928W        W27792  15.485  25.892  20.657 -0.1448  0.0080 -0.1039
26929W        W27793  21.765  23.464  19.822 -0.1351 -0.1053 -0.1087
26930W        W27794  15.306  27.500  18.945  0.1151 -0.0017  0.0632
26931W        W27795  18.266  24.095  19.851  0.0665  0.2928 -0.0574
26932W        W27796  16.839  25.972  21.358 -0.1493 -0.1832  0.0387
26933W        W27797  15.664  26.898  20.544  0.2821 -0.1651 -0.0672
26934W        W27798  17.534  27.243  21.738 -0.1963  0.0345 -0.1051
26935W        W27799  18.481  26.265  21.897 -0.0200  0.0311  0.4597
26936W        W27800  16.213  26.027  19.350 -0.1159 -0.2375  0.0023
26937W        W27801  16.550   0.985  18.346  0.1005  0.1657 -0.1732
26938W        W27802  13.567  25.096  18.140 -0.1908 -0.1661 -0.1177
26939W        W27803  17.769  27.843  19.924  0.1282 -0.2792  0.0685
26940W        W27804  16.219  27.834  23.087 -0.0841  0.0971  0.0046
26941W        W27805  17.817  28.786  19.604 -0.0362  0.4276 -0.1153
26942W        W27806  18.591  26.095  18.885 -0.0436  0.1721 -0.0483
26943W        W27807  14.720   0.186  19.519 -0.1431 -0.3508 -0.2106
26944W        W27808  16.062  27.845  20.400  0.1017  0.0438  0.2042
26945W        W27809  17.323  27.555  22.605  0.3852 -0.1098  0.3721
26946W        W27810  14.518  25.862  22.109  0.0475  0.1271  0.4239
26947W        W27811  19.669  22.043  21.015 -0.0223  0.0372 -0.1396
26948W        W27812  15.199   0.750  18.322  0.1789 -0.2646 -0.0349
26949W        W27813  14.518  26.170  19.169 -0.0832 -0.1892 -0.0160
26950W        W27814  13.675  27.178  22.000  0.1392  0.1253  0.1168
26951W        W27815  15.914  27.835  22.690 -0.3210  0.2850 -0.1143
26952W        W27816  15.522   0.537  22.715 -0.0292 -0.2300 -0.0212
26953W        W27817  15.834  24.744  18.492  0.0881 -0.0700  0.1741
26954W        W27818  16.358  28.329  20.400 -0.0402  0.1768  0.1910
26955W        W27819  16.616  26.690  20.737 -0.0290 -0.1105  0.1430
26956W        W27820  15.884   0.029  17.647 -0.0297  0.1117  0.2127
26957W        W27821  18.347  28.572  20.704 -0.0292 -0.0322 -0.0843
26958W        W27822  15.274  27.966  17.135 -0.1264 -0.0413 -0.1803
26959W        W27823  14.632  26.809  20.542  0.1216  0.3556 -0.2010
26960W        W27824  15.793  25.949  21.579  0.3822  0.2298 -0.2236
26961W        W27825  16.464  25.580  21.649  0.0390 -0.1172 -0.0561
26962W        W27826  16.192  27.090  22.186 -0.0913  0.0002 -0.0108
26963W        W27827  15.706  26.322  21.976 -0.3850 -0.0351 -0.0346
26964W        W27828  14.631  23.724  21.283  0.0057  0.1946 -0.1289
26965W        W27829  16.027  25.025  23.369  0.2354 -0.1872  0.1509
26966W        W27830  16.699  23.702  24.000  0.0275  0.0338 -0.0991
26967W        W27831  17.192  23.770  19.033 -0.3857  0.0009  0.1875
26968W        W27832  20.150  28.997  23.136 -0.0944  0.2211  0.1888
26969W        W27833  17.724  23.091  22.227  0.0842 -0.1284  0.1372
26970W        W27834  18.661  26.298  22.970 -0.1680 -0.1334  0.1094
26971W        W27835  17.675  23.811  21.941 -0.1854  0.2241  0.0498
26972W        W27836  20.041  24.651  19.834 -0.0122  0.0517  0.0163
26973W        W27837  17.027  27.894  20.518 -0.1776  0.3716 -0.1251
26974W        W27838  15.515  28.487  18.227 -0.0690  0.0665 -0.1049
26975W        W27839  17.971  23.945  21.243 -0.0768  0.0523 -0.3165
26976W        W27840  17.715  24.653  23.426 -0.2086  0.0323  0.3624
26977W        W27841  18.964  25.933  19.731  0.2742 -0.0981  0.2843
26978W        W27842  20.797  27.216  19.598 -0.0040  0.0573  0.0469
26979W        W27843  17.456  28.608  21.525 -0.1890 -0.2745 -0.1972
26980W        W27844  18.571  25.523  17.497  0.0999 -0.0334 -0.1263
26981W        W27845  18.870  23.640  19.036  0.2385 -0.0557  0.1222
26982W        W27846  20.237   1.641  20.808 -0.1330  0.1967 -0.0459
26983W        W27847  14.339  27.424  21.406 -0.1020  0.2659 -0.0309
26984W        W27848  15.685  24.245  18.279 -0.0833  0.0398 -0.2282
26985W        W27849  17.478  28.921  17.585  0.1466 -0.1328  0.3116
26986W        W27850  19.349  23.526  21.431 -0.4114  0.0492 -0.1014
26987W        W27851  17.372  24.478  21.485 -0.0184 -0.1188  0.0366
26988W        W27852  18.691  28.156  18.380  0.0369  0.1050 -0.2467
26989W        W27853  19.947  27.758  22.621  0.0641 -0.0615 -0.0745
26990W        W27854  19.263  25.859  21.491 -0.1401  0.1118  0.0695
26991W        W27855  14.031  22.565  22.312 -0.2295 -0.0168  0.0245
26992W        W27856  16.200  27.552  21.422  0.1459 -0.1361  0.1060
26993W        W27857  16.273  27.943  18.630  0.2407 -0.1637  0.0017
26994W        W27858  19.608  26.170  20.093 -0.2062  0.4251 -0.2377
26995W        W27859  17.212  28.023  18.642  0.0194  0.2133 -0.1316
26996W        W27860  17.087  28.185  16.663 -0.1163 -0.1507 -0.1704
26997W        W27861  15.215  28.954  18.121  0.1718 -0.0634 -0.1302
26998W        W27862  19.364  27.343  20.733  0.0742 -0.2864  0.1542
26999W        W27863  15.635  25.382  19.901 -0.3756 -0.0536  0.0478
27000W        W27864  18.271  26.647  19.724 -0.0066  0.1655  0.2021
27001W        W27865  17.524  26.875  21.422 -0.1662 -0.0432  0.1669
27002W        W27866  18.122  26.029  20.739  0.2576 -0.0924 -0.2342
27003W        W27867  19.560  26.057  19.120 -0.0827 -0.1022 -0.0436
27004W        W27868  18.885   0.637  18.908  0.2097 -0.2905  0.2814
27005W        W27869  19.525  26.105  21.835  0.1858 -0.1983 -0.1930
27006W        W27870  16.916  27.752  19.443 -0.0492  0.0859  0.4222
27007W        W27871  18.511  28.235  21.500  0.0695 -0.0233  0.0875
27008W        W27872  15.091  24.785  21.581 -0.1982  0.0058  0.2601
27009W        W27873  18.469  28.773  19.926 -0.2994 -0.1384  0.1454
27010W        W27874  21.255  25.474  22.694 -0.0646  0.3590  0.1144
27011W        W27875  18.988  26.310  21.709  0.0925  0.0530  0.2175
27012W        W27876  17.882  25.061  23.150  0.1684  0.1711  0.1086
27013W        W27877  19.090  25.638  21.100 -0.2951 -0.1615  0.1187
27014W        W27878  16.071  26.245  22.819 -0.2949  0.0568  0.3274
27015W        W27879  18.654  26.511  18.587  0.3576  0.2607  0.1247
27016W        W27880  21.085  29.085  20.903 -0.0066 -0.0860 -0.0392
27017W        W27881  15.318  24.446  21.265 -0.0705 -0.1657  0.4180
27018W        W27882  17.846  26.481  18.909 -0.0446  0.1083 -0.3310
27019W        W27883  17.684  27.442  20.213 -0.0295 -0.0725 -0.0822
27020W        W27884  17.968  28.329  19.792  0.0561 -0.2835 -0.0558
27021W        W27885  16.063   1.751  17.567 -0.2526  0.2462 -0.0639
27022W        W27886  13.786  25.076  19.183  0.1647  0.0625  0.1895
27023W        W27887  15.069  22.384  20.057  0.2848  0.2095 -0.0717
27024W        W27888  13.127  28.215  17.850  0.0423 -0.2388 -0.1265
27025W        W27889  16.655  25.724  19.282  0.0847  0.2532  0.0230
27026W        W27890  16.754  28.438  17.933 -0.0605 -0.0262 -0.1445
27027W        W27891  17.512  26.374  18.593 -0.1705 -0.0187  0.3034
27028W        W27892  15.997  26.681  19.624  0.0478 -0.1757 -0.2060
27029W        W27893  17.117  28.382  18.339  0.3026 -0.2506 -0.2677
27030W        W27894  15.778  27.777  18.187 -0.0823  0.1387  0.0040
27031W        W27895  17.205  28.709  16.814 -0.1644 -0.2814  0.0770
27032W        W27896  17.459  28.044  20.929 -0.2675  0.0405  0.0195
27033W        W27897  18.532   1.071  17.005  0.3271 -0.0640 -0.1607
27034W        W27898  16.673  27.456  18.058  0.0299 -0.1514 -0.2064
27035W        W27899  15.924  24.754  19.025  0.0925 -0.1188  0.2146
27036W        W27900  17.638  24.745  21.820 -0.1235  0.3061 -0.1527
27037W        W27901  17.466  24.804  22.919 -0.0910  0.0487 -0.0941
27038W        W27902  16.270   0.806  21.322 -0.0225 -0.2019  0.0989
27039W        W27903  17.403  25.648  18.635 -0.0358  0.0164 -0.0350
27040W        W27904  15.751  23.384  18.792  0.0574  0.2796 -0.0672
27041W        W27905  17.148  27.478  20.250 -0.1640 -0.1345 -0.2073
27042W        W27906  16.187  26.565  20.089  0.0344 -0.1965  0.0471
27043W        W27907  15.068   0.368  20.849  0.1107  0.0034  0.0479
27044W        W27908  17.302  28.089  19.695  0.3687 -0.0408 -0.0488
27045W        W27909  19.011  26.220  20.166 -0.1750 -0.1262  0.2933
27046W        W27910  16.419  26.965  24.944  0.0652 -0.3264  0.2613
27047W        W27911  16.684  27.324  19.245 -0.3682 -0.1982 -0.1346
27048W        W27912  13.807  26.315  20.931 -0.0042 -0.1778 -0.3420
27049W        W27913  16.959  27.826  19.973 -0.1144  0.0528  0.0707
27050W        W27914  15.985  27.934  19.063  0.0657  0.1741  0.1809
27051W        W27915  14.832  26.482  20.958 -0.0319 -0.0241 -0.1930
27052W        W27916  19.327  25.092  19.947 -0.0844  0.1258  0.1034
27053W        W27917  19.555  25.617  21.946  0.0015  0.5809 -0.3419
27054W        W27918  17.045  23.433  22.569  0.1480 -0.0314 -0.0189
27055W        W27919  16.028  27.317  14.907 -0.2938 -0.1136  0.1040
27056W        W27920  15.002  23.160  20.387  0.0673 -0.0807 -0.4804
27057W        W27921  19.841  25.860  18.001 -0.0463  0.0915 -0.0069
27058W        W27922  12.661   0.079  21.531 -0.0880  0.1825  0.2667
27059W        W27923  14.990  28.442  19.917  0.1184  0.1791  0.2093
27060W        W27924  17.262   0.499  18.691  0.0074  0.1693  0.0172
27061W        W27925  18.369  24.714  22.620 -0.1846 -0.2191  0.0258
27062W        W27926  16.995  27.181  17.625  0.0072  0.0456  0.1467
27063W        W27927  17.909  27.434  17.532 -0.0485 -0.1204  0.0200
27064W        W27928  15.673  27.245  18.308  0.1950  0.0534  0.0557
27065W        W27929  13.692  28.717  19.418  0.3647  0.0806 -0.0321
27066W        W27930  16.502  25.075  17.962  0.1900 -0.0398  0.0697
27067W        W27931  16.925  25.398  21.977  0.0704  0.0483 -0.0923
27068W        W27932  18.747  25.765  19.262  0.3737 -0.0128 -0.2184
27069W        W27933  12.978  22.376  18.904  0.0762  0.0924  0.0729
27070W        W27934  15.074  28.918  19.834 -0.0260 -0.1419 -0.1791
27071W        W27935  17.280  27.397  19.345  0.0889  0.0454 -0.0971
27072W        W27936  17.850   0.083  17.348 -0.2502  0.1016  0.0871
27073W        W27937  14.213  26.695  18.524  0.2479 -0.2756  0.0461
27074W        W27938  17.228  26.245  21.939  0.0005 -0.0553 -0.0150
27075W        W27939  16.773  25.877  22.669 -0.1881  0.1188  0.0319
27076W        W27940  16.523  23.847  21.133  0.1379 -0.0685 -0.1309
27077W        W27941  17.597  24.380  20.524 -0.0112  0.0375 -0.2564
27078W        W27942  19.062  25.937  18.836  0.0546 -0.0421  0.2054
27079W        W27943  16.887  24.679  19.215 -0.0686  0.1526 -0.0747
27080W        W27944  15.225   0.430  17.467  0.1114  0.3382  0.1460
27081W        W27945  19.096  25.111  21.172  0.3363  0.3427 -0.3834
27082W        W27946  15.728  28.359  19.500 -0.0934  0.0646  0.1976
27083W        W27947  18.111  23.722  20.615  0.3044  0.0295  0.2162
27084W        W27948  19.812  26.415  18.884  0.0381 -0.2660  0.1071
27085W        W27949  14.177  27.002  21.132 -0.2489  0.0008 -0.0126
27086W        W27950  16.753  24.910  20.942 -0.3204 -0.2595 -0.2362
27087W        W27951  18.012  25.943  17.239  0.2653  0.0579  0.2134
27088W        W27952  12.789  28.841  20.548 -0.2224  0.1119 -0.2547
27089W        W27953  16.210   1.863  18.672 -0.0185  0.2778  0.0613
27090W        W27954  14.581  27.853  17.394  0.0968  0.0406  0.0519
27091W        W27955  16.112   1.239  17.485 -0.1136  0.0506 -0.0017
27092W        W27956  16.787  26.554  22.677 -0.2645  0.1172 -0.1218
27093W        W27957  11.003  27.003  20.183  0.3103  0.0967  0.0885
27094W        W27958  15.144  25.511  19.654 -0.0100 -0.0184 -0.1023
27095W        W27959  19.720  24.285  22.367  0.2473  0.0548  0.0107
27096W        W27960  19.079  26.828  20.900 -0.0089 -0.2069  0.0940
27097W        W27961  19.152  27.092  16.573  0.1861 -0.0354 -0.0750
27098W        W27962  17.219  26.406  21.467  0.1706  0.2113 -0.1713
27099W        W27963  16.411  28.184  17.721  0.0916  0.0603  0.3946
27100W        W27964  15.658  26.325  23.212  0.2019 -0.2941 -0.0607
27101W        W27965  18.226  27.548  18.846 -0.0712  0.3781  0.2457
27102W        W27966  17.120  25.623  22.919 -0.0616  0.0533 -0.0702
27103W        W27967  18.096  25.539  21.874  0.0885 -0.2298 -0.1064
27104W        W27968  16.359  26.656  21.697  0.1066  0.1576  0.1669
27105W        W27969  13.764  26.412  17.393 -0.2000 -0.1243  0.1505
27106W        W27970  17.880  25.587  19.357 -0.2372  0.0742 -0.1309
27107W        W27971  18.442  25.524  22.359 -0.2028  0.0643 -0.3585
27108W        W27972  17.081  29.046  22.920 -0.0502  0.0047  0.2176
27109W        W27973  17.026  24.699  20.598  0.1743 -0.3554  0.0670
27110W        W27974  19.888  26.053  17.127  0.0067  0.3244 -0.1225
27111W        W27975  19.482  27.747  20.031 -0.0262  0.1039  0.1515
27112W        W27976  15.292  24.792  22.589 -0.1729 -0.2174  0.0932
27113W        W27977  14.165  26.420  20.557 -0.0498  0.1809 -0.1840
27114W        W27978  15.607  26.592  20.050  0.1651  0.0210 -0.1836
27115W        W27979  21.017  28.783  18.885  0.2772  0.1477 -0.1971
27116W        W27980  14.068  27.048  21.611  0.2800  0.0839 -0.5792
27117W        W27981  17.344   0.170  17.290 -0.0685  0.0814 -0.1424
27118W        W27982  17.874  28.208  20.289  0.1556 -0.0930  0.1120
27119W        W27983  14.787  25.767  22.595  0.0233 -0.2646 -0.1779
27120W        W27984  16.879  26.758  21.566  0.2775 -0.1412  0.1452
27121W        W27985  16.947  27.045  20.526  0.6252  0.1265 -0.2443
27122W        W27986  15.928  27.496  19.548 -0.0886  0.0148 -0.1334
27123W        W27987  16.709  27.727  21.579 -0.5081  0.3331  0.0977
27124W        W27988  14.935  25.919  20.225 -0.0533  0.1690 -0.3636
27125W        W27989  15.639  23.721  19.918 -0.2461  0.1183  0.0909
27126W        W27990  16.139   0.397  18.817 -0.0315  0.0504 -0.0308
27127W        W27991  18.375  25.734  21.473 -0.0354  0.3009  0.1870
27128W        W27992  18.092  26.960  19.231 -0.0436  0.1232 -0.2313
27129W        W27993  16.282  24.692  20.364 -0.1561 -0.0117  0.1894
27130W        W27994  18.597  27.769  18.670 -0.3152  0.0233  0.1693
27131W        W27995  16.201  25.986  20.195 -0.2543 -0.3244  0.0788
27132W        W27996  17.194  28.747  17.935 -0.0040  0.0564  0.4105
27133W        W27997  17.333   0.368  22.996  0.1024  0.3205 -0.0143
27134W        W27998  14.885   1.225  21.765 -0.0925  0.0325  0.3578
27135W        W27999  15.021  22.746  22.976  0.0332 -0.1202  0.1329
27136W        W28000  13.032  29.115  17.934 -0.0752 -0.3913  0.0350
27137W        W28001  17.475   1.291  17.474  0.3027 -0.1117 -0.0067
27138W        W28002  16.879  26.324  19.883  0.0810 -0.1157 -0.0908
27139W        W28003  13.283  23.109  19.197  0.1342 -0.1032 -0.0512
27140W        W28004  17.811  26.989  20.152  0.0852  0.1764 -0.2199
27141W        W28005  18.610  28.059  20.955  0.2991  0.1145  0.1952
27142W        W28006  19.675  25.563  20.956 -0.3343  0.1650 -0.4067
27143W        W28007  12.392  25.802  20.535  0.1822 -0.0777  0.2458
27144W        W28008  17.882   0.887  19.685 -0.3085 -0.2965 -0.0126
27145W        W28009  15.701  27.270  23.058  0.0762 -0.1262 -0.0424
27146W        W28010  16.013   0.947  18.587  0.0495  0.1316  0.1323
27147W        W28011  17.227  26.269  22.477 -0.0014 -0.2100  0.1525
27148W        W28012  17.003   1.252  18.272 -0.0141 -0.2075 -0.1164
27149W        W28013  20.661  27.206  18.728  0.1824  0.0162  0.0139
27150W        W28014  15.871  26.941  21.783  0.3941  0.0124  0.0006
27151W        W28015  17.540  27.898  18.261 -0.1450  0.1063 -0.0425
27152W        W28016  16.180  25.539  18.953 -0.1143 -0.2838  0.0864
27153W        W28017  17.910  26.495  19.374 -0.1500  0.2459 -0.2427
27154W        W28018  16.955  27.194  19.622 -0.2804  0.0913 -0.0237
27155W        W28019  15.178  25.734  18.847  0.3748 -0.1059  0.1060
27156W        W28020  16.993  26.629  17.753  0.5685 -0.0367 -0.2471
27157W        W28021  17.406  25.162  23.264 -0.0548  0.2188  0.2872
27158W        W28022  16.410  25.458  19.598 -0.3911  0.0670  0.0076
27159W        W28023  16.618  25.012  19.994 -0.0845 -0.0851 -0.0866
27160W        W28024  16.897  28.696  16.388  0.1928 -0.1137 -0.1553
27161W        W28025  16.413  27.389  22.949  0.1111 -0.1629  0.2876
27162W        W28026  15.076  29.082  21.742  0.0744  0.1712  0.0189
27163W        W28027  15.072  23.410  19.675  0.4149  0.0179 -0.2447
27164W        W28028  14.366  26.498  20.102  0.2142  0.0329  0.0258
27165W        W28029  18.886  27.832  21.328 -0.1075  0.0912 -0.1582
27166W        W28030  18.643  27.577  19.215  0.3485  0.0481 -0.3601
27167W        W28031  15.598  24.100  22.480  0.1771 -0.3471  0.4139
27168W        W28032  17.513  28.655  15.952 -0.1655  0.3230 -0.1438
27169W        W28033  16.971  27.892  22.368  0.1376  0.4281  0.1217
27170W        W28034  16.411  27.154  18.437 -0.1636 -0.2220 -0.1361
27171W        W28035  17.606  26.962  19.253  0.0123 -0.1786  0.4303
27172W        W28036  15.530  28.562  19.906 -0.0735  0.2529  0.1206
27173W        W28037  19.269  23.785  18.407  0.3437  0.2590  0.0282
27174W        W28038  17.007  25.491  18.366  0.0459 -0.2861  0.1242
27175W        W28039  16.037  28.599  21.239  0.0597  0.0388 -0.0294
27176W        W28040  17.843  27.715  20.595  0.5795  0.0656 -0.0839
27177W        W28041  15.950  28.253  18.000 -0.2563 -0.0103 -0.0477
27178W        W28042  16.965  23.974  19.424  0.3664 -0.3538  0.1046
27179W        W28043  19.859  26.309  19.462 -0.2603 -0.2352 -0.1102
27180W        W28044  15.935  26.012  18.575  0.0748 -0.2713  0.1125
27181W        W28045  14.658  28.975  20.112 -0.0546 -0.0338 -0.0670
27182W        W28046  16.842   0.768  19.087 -0.0817 -0.1050  0.1827
27183W        W28047  15.062  25.812  22.143 -0.1199  0.0680 -0.0999
27184W        W28048  15.510  28.532  22.536  0.1609 -0.0039 -0.3604
27185W        W28049  19.073  26.513  18.913 -0.1292  0.1455  0.2403
27186W        W28050  18.633  25.106  17.755  0.0904 -0.3244  0.1151
27187W        W28051  13.385  28.746  17.758  0.0303  0.2400  0.0468
27188W        W28052  17.667  26.399  22.713 -0.0348  0.0312 -0.0073
27189W        W28053  14.232  27.764  19.203 -0.1833  0.2192  0.1739
27190W        W28054  18.007  26.031  21.838  0.1005 -0.1514 -0.1778
27191W        W28055  15.240  27.673  21.526  0.0750 -0.0962  0.1882
27192W        W28056  15.340  25.421  21.412  0.3963  0.0213  0.3984
27193W        W28057  16.929  26.529  22.190 -0.2542 -0.0060 -0.1204
27194W        W28058  17.129  25.655  20.123  0.1125 -0.1464  0.0960
27195W        W28059  17.987  26.698  17.823  0.1573  0.4123  0.0595
27196W        W28060  15.102   0.593  22.438 -0.2253  0.1229  0.0203
27197W        W28061  17.768  28.382  22.578  0.1330  0.1488 -0.0740
27198W        W28062  16.596  25.935  22.033  0.1350  0.0522 -0.0313
27199W        W28063  17.931  28.326  22.113  0.1149  0.0569  0.1836
27200W        W28064  17.722   2.436  22.451  0.0144 -0.1701  0.2430
27201W        W28065  15.189  26.318  22.257 -0.2612 -0.2130  0.3119
27202W        W28066  15.256  28.166  18.595  0.1886  0.2815 -0.1633
27203W        W28067  17.641  28.584  17.959 -0.0320 -0.0859 -0.1479
27204W        W28068  14.110   2.195  23.146 -0.2050  0.2031 -0.0076
27205W        W28069  18.523  27.896  17.319 -0.1202 -0.0136 -0.1971
27206W        W28070  18.854  25.341  22.025  0.0967 -0.0306 -0.0707
27207W        W28071  15.739  28.853  19.162 -0.2220  0.0785  0.4390
27208W        W28072  16.210  23.489  20.304 -0.0635 -0.3521 -0.1489
27209W        W28073  15.748  28.953  18.151  0.1229  0.0244 -0.1561
27210W        W28074  16.750  25.513  17.029  0.2345  0.0337  0.3871
27211W        W28075  14.981  26.327  19.397 -0.0021  0.0031 -0.3728
27212W        W28076  18.174  24.841  21.066 -0.3321  0.1356  0.0802
27213W        W28077  18.395  24.173  18.490  0.3430  0.0068  0.2136
27214W        W28078  19.427  26.504  21.081 -0.0640  0.1325  0.0551
27215W        W28079  20.160  28.668  21.589  0.0873  0.3710  0.2483
27216W        W28080  17.882  25.665  21.476 -0.2790 -0.0526 -0.2171
27217W        W28081  17.386  27.121  19.912 -0.2268  0.0386  0.1429
27218W        W28082  15.012  27.843  19.792 -0.1395 -0.1029 -0.2993
27219W        W28083  20.056  26.404  20.087  0.0471  0.0390 -0.1369
27220W        W28084  15.484  26.924  21.421 -0.2925 -0.0184 -0.3042
27221W        W28085  17.281  28.483  17.526  0.1200 -0.1123  0.0925
27222W        W28086  16.350   0.055  19.986  0.0032 -0.1934  0.0324
27223W        W28087  16.192  27.017  23.271 -0.1533 -0.1396  0.0485
27224W        W28088  17.655  25.359  21.117  0.1615  0.0775 -0.0776
27225W        W28089  17.485   0.564  20.318  0.2992 -0.0672 -0.1638
27226W        W28090  16.350   0.226  17.722 -0.1938 -0.0591 -0.4204
27227W        W28091  17.157  28.911  23.760  0.0349 -0.0761  0.1679
27228W        W28092  15.976  26.988  18.658  0.0070  0.1946 -0.2199
27229W        W28093  14.140  28.395  16.340  0.1445  0.0057 -0.1178
27230W        W28094  16.432  26.931  20.329 -0.1501  0.0200  0.0234
27231W        W28095  14.557  26.702  19.601  0.0802 -0.1715 -0.2012
27232W        W28096  19.470  25.398  21.346  0.1094  0.1471  0.1508
27233W        W28097  17.424  25.390  20.513 -0.3417 -0.1908 -0.0706
27234W        W28098  18.273  28.674  19.474 -0.1580  0.4156  0.1131
27235W        W28099  17.086   0.222  19.243 -0.1922 -0.1257 -0.1101
27236W        W28100  19.624   0.164  17.922 -0.1183 -0.3010 -0.1953
27237W        W28101  16.330  26.190  21.480 -0.0756 -0.2616  0.1574
27238W        W28102  15.378   0.055  19.416  0.0769 -0.1599  0.0891
27239W        W28103  17.496  24.149  22.236  0.2050  0.0013  0.0788
27240W        W28104  16.985  28.182  21.768 -0.1033 -0.2436  0.2858
27241W        W28105  15.627  25.185  18.428  0.1458 -0.1227 -0.1339
27242W        W28106  14.817  27.292  19.160  0.0131  0.2083 -0.0274
27243W        W28107  18.228  25.111  22.129  0.0232 -0.1775  0.0158
27244W        W28108  16.160  26.354  16.535  0.0484 -0.0282 -0.3160
27245W        W28109  15.952  27.974  19.836 -0.3376 -0.4111  0.2147
27246W        W28110  17.043  28.252  19.122 -0.4487  0.2778 -0.1091
27247W        W28111  19.003  27.780  19.535  0.0187 -0.0182  0.0483
27248W        W28112  16.325   1.322  20.064 -0.0698  0.2503 -0.5101
27249W        W28113  16.009  28.493  18.959  0.3449  0.1585  0.2951
27250W        W28114  20.099  22.292  21.159  0.1759 -0.1040  0.0701
27251W        W28115  18.521  27.126  19.968  0.0008 -0.0370  0.0647
27252W        W28116  15.341  28.624  17.795  0.0714  0.0518  0.1231
27253W        W28117  19.539  25.861  20.536 -0.2525 -0.1659  0.0692
27254W        W28118  17.716  27.365  19.610  0.0788 -0.4089  0.0723
27255W        W28119  15.639  27.772  18.654 -0.1772  0.1619  0.2158
27256W        W28120  18.182   0.660  17.925  0.3854 -0.0463  0.2404
27257W        W28121  16.022  26.042  22.339  0.2700  0.4227 -0.1104
27258W        W28122  16.874   0.083  20.417 -0.0502  0.5014 -0.1781
27259W        W28123  17.228  26.801  21.894  0.0844  0.1660  0.4206
27260W        W28124  19.148  26.205  19.351  0.3532 -0.2042 -0.0503
27261W        W28125  17.046  27.648  18.375  0.1869  0.0622 -0.0807
27262W        W28126  16.678  25.418  21.011  0.2287 -0.1866 -0.1427
27263W        W28127  13.592  25.205  22.188 -0.0780 -0.1281  0.4114
27264W        W28128  15.001  27.230  21.662  0.0715  0.1555  0.0067
27265W        W28129  17.148  27.014  23.436  0.2544 -0.0226 -0.0370
27266W        W28130  17.820  26.870  21.913  0.1415 -0.2029 -0.3248
27267W        W28131  16.662  26.930  21.170 -0.3907  0.0659 -0.1916
27268W        W28132  16.497  27.936  19.096 -0.0375  0.0321 -0.0250
27269W        W28133  17.517  28.527  19.951  0.1210  0.2090  0.3771
27270W        W28134  15.757  28.252  20.269  0.0961 -0.3375 -0.1573
27271W        W28135  16.656   0.472  20.103 -0.2195 -0.2201  0.0072
27272W        W28136  16.673  28.801  20.085 -0.1431 -0.1320 -0.0933
27273W        W28137  17.823   1.428  21.847  0.2162  0.1692  0.0937
27274W        W28138  16.998  29.075  19.642  0.3905 -0.2733 -0.2814
27275W        W28139  16.294  25.836  22.728  0.2212 -0.3584 -0.0925
27276W        W28140  14.416  28.554  20.882  0.1295 -0.2438  0.2878
27277W        W28141  18.867  27.190  23.933 -0.3691  0.2360 -0.0226
27278W        W28142  15.342  28.677  19.434  0.1357  0.4687  0.2083
27279W        W28143  20.087  27.478  23.025 -0.2406 -0.1278 -0.0930
27280W        W28144  16.720  26.461  21.239 -0.2383 -0.3762  0.1680
27281W        W28145  14.110  27.465  20.083  0.0552  0.0909 -0.2334
27282W        W28146  14.465   1.265  24.791 -0.0205 -0.1063 -0.0147
27283W        W28147  14.842  28.338  26.145  0.1878 -0.1033 -0.0658
27284W        W28148  17.866  23.582  22.352  0.0531  0.4952  0.0904
27285W        W28149  17.695   2.450  21.872 -0.1896  0.0460 -0.0694
27286W        W28150  17.508  28.102  21.930  0.0081 -0.1351  0.0775
27287W        W28151  18.775  24.841  23.489 -0.2395  0.2214  0.2783
27288W        W28152  15.855  28.583  23.355 -0.1816 -0.1920  0.0873
27289W        W28153  15.748  26.693  21.002  0.0952 -0.0169  0.3112
27290W        W28154  16.282  27.012  25.492 -0.0095  0.1458 -0.3823
27291W        W28155  15.816  25.906  26.434  0.0643  0.1292  0.1855
27292W        W28156  15.719  24.742  23.602 -0.3009 -0.0029  0.1024
27293W        W28157  15.571  25.919  22.210 -0.0889  0.1728 -0.2786
27294W        W28158  17.505  24.902  21.356  0.1487 -0.2109 -0.0661
27295W        W28159  19.917  25.869  25.622  0.2908 -0.1190  0.0364
27296W        W28160  14.510  24.792  25.427  0.1882  0.4131 -0.0193
27297W        W28161  14.850   1.463  26.637  0.0081  0.0970 -0.1079
27298W        W28162  17.142  27.992  23.409  0.2478  0.1367 -0.2193
27299W        W28163  15.419  26.300  23.851  0.2607  0.0630  0.0751
27300W        W28164  13.866  26.528  22.806 -0.1300  0.0187 -0.1639
27301W        W28165  16.441  24.041  23.813  0.1375 -0.2104 -0.0502
27302W        W28166  17.094  28.376  23.729  0.0310  0.2072  0.2363
27303W        W28167  16.023  27.412  25.840  0.0451  0.2409  0.2504
27304W        W28168  17.275  29.079  21.716 -0.0091  0.1706  0.0949
27305W        W28169  14.923  27.170  25.289  0.1245  0.0243 -0.0576
27306W        W28170  14.836  26.514  25.153 -0.0233 -0.0129  0.0196
27307W        W28171  17.826  26.474  24.100  0.2313 -0.2050 -0.1376
27308W        W28172  18.286  27.253  26.606  0.1183  0.3880 -0.4126
27309W        W28173  17.485  26.790  23.876  0.1680 -0.1812  0.1854
27310W        W28174  15.465  28.560  26.209  0.0444  0.1483  0.0561
27311W        W28175  17.559  26.312  23.676 -0.1802  0.1568  0.0477
27312W        W28176  16.490  27.662  23.484 -0.0717  0.1310 -0.2611
27313W        W28177  16.434  27.708  24.407  0.2796  0.2087  0.3034
27314W        W28178  15.821  27.527  24.506 -0.0232 -0.3685  0.2232
27315W        W28179  14.232  25.402  24.148 -0.4504  0.1591  0.1208
27316W        W28180  15.586  24.847  25.120  0.0507 -0.0748 -0.4577
27317W        W28181  14.821  27.570  24.725  0.1050 -0.0722 -0.4781
27318W        W28182  17.242  23.842  22.873 -0.2143  0.0026  0.1288
27319W        W28183  13.797   0.831  26.591 -0.1079 -0.2015 -0.0260
27320W        W28184  19.968  28.033  24.014  0.2337  0.0783  0.3147
27321W        W28185  17.663  25.430  24.099  0.0413  0.1633 -0.2972
27322W        W28186  19.010  24.381  22.136  0.0421  0.0935 -0.1079
27323W        W28187  16.505  23.203  24.004 -0.0242 -0.1122  0.2815
27324W        W28188  17.392   2.819  24.256 -0.0139  0.0583  0.0288
27325W        W28189  16.833  25.390  24.062 -0.4019  0.0378 -0.0736
27326W        W28190  15.913   1.942  21.183  0.0238  0.0863 -0.0899
27327W        W28191  15.552   0.253  23.592 -0.0932  0.1889  0.2496
27328W        W28192  13.775  25.195  24.291  0.1733  0.0857 -0.0181
27329W        W28193  15.911  26.596  26.533  0.2054  0.0600  0.0158
27330W        W28194  17.594  25.614  23.148 -0.1330  0.0402 -0.1675
27331W        W28195  18.878  25.452  21.531 -0.0670  0.0431 -0.0754
27332W        W28196  16.692  28.098  25.918  0.0802 -0.3066 -0.1094
27333W        W28197  14.114  26.507  25.279 -0.2599  0.3769 -0.1622
27334W        W28198  20.072  27.542  24.311  0.1682 -0.0388  0.2555
27335W        W28199  18.372  28.279  24.449  0.1466 -0.2290 -0.2116
27336W        W28200  15.900  25.530  23.201 -0.1695  0.0359 -0.0287
27337W        W28201  16.238  27.578  19.986 -0.1441  0.1906 -0.5203
27338W        W28202  15.887  23.588  24.831 -0.0756 -0.1877  0.0362
27339W        W28203  15.851  26.324  24.230  0.1722 -0.1682  0.0295
27340W        W28204  14.930  28.135  23.554  0.0472 -0.0889 -0.0892
27341W        W28205  14.681   0.123  25.489  0.1773 -0.0646 -0.1350
27342W        W28206  19.090  23.696  21.869  0.2183 -0.0347 -0.0554
27343W        W28207  15.505  27.341  23.519  0.0301  0.0810 -0.1884
27344W        W28208  14.587   0.211  23.159 -0.0065  0.1608 -0.3191
27345W        W28209  15.111  25.904  24.540  0.3674  0.0355  0.0236
27346W        W28210  14.100  23.896  26.569 -0.2258  0.0904 -0.1755
27347W        W28211  16.875  24.812  23.982 -0.1325  0.3107  0.0172
27348W        W28212  17.213  26.618  20.558 -0.3341  0.1343  0.4229
27349W        W28213  15.274  25.957  22.668 -0.3742 -0.0332 -0.2833
27350W        W28214  15.297  28.886  24.978 -0.0116  0.0381 -0.0316
27351W        W28215  15.376  26.806  21.871 -0.0135 -0.2908  0.0954
27352W        W28216  16.955   0.300  25.888  0.0092  0.0950 -0.0213
27353W        W28217  15.798  27.854  25.367 -0.2345 -0.2310 -0.0323
27354W        W28218  18.478  27.291  23.133 -0.1748 -0.3220  0.4031
27355W        W28219  18.534  26.694  28.270  0.0987 -0.0518 -0.4349
27356W        W28220  18.039  26.832  21.054  0.0572 -0.0685 -0.0289
27357W        W28221  17.189  27.802  24.773 -0.2412  0.1189  0.3819
27358W        W28222  15.343   0.990  22.820 -0.2360  0.1607 -0.0133
27359W        W28223  17.989  27.019  26.217  0.2476  0.0254  0.0196
27360W        W28224  16.151  27.783  23.944 -0.1855 -0.2125 -0.0978
27361W        W28225  15.684  28.880  21.036 -0.1131 -0.1051  0.0624
27362W        W28226  15.818  25.562  25.676 -0.1141  0.3882 -0.1062
27363W        W28227  16.192  25.180  24.625 -0.1551 -0.0056 -0.1968
27364W        W28228  14.866  24.512  24.550  0.1701  0.0861 -0.1611
27365W        W28229  15.763  24.737  22.495 -0.0464  0.0643 -0.0247
27366W        W28230  18.052  24.629  22.985  0.2921  0.0904  0.2946
27367W        W28231  16.172  27.635  20.883  0.3516  0.0218  0.4776
27368W        W28232  19.486   0.255  23.864  0.0810  0.3386 -0.4172
27369W        W28233  15.819  29.037  24.115  0.4328  0.1416  0.5340
27370W        W28234  16.016  28.278  25.242 -0.0376  0.1318 -0.0257
27371W        W28235  18.117  27.065  23.434 -0.1213 -0.1651  0.2371
27372W        W28236  19.255  24.886  23.443  0.0565 -0.2357  0.0197
27373W        W28237  18.077  25.181  24.201 -0.1280  0.1479  0.1446
27374W        W28238  15.615  27.589  24.978  0.5023 -0.0329  0.0551
27375W        W28239  16.244  28.285  19.440  0.1764  0.0244  0.3089
27376W        W28240  16.967  25.066  24.467  0.0698  0.1454 -0.2328
27377W        W28241  19.377  23.381  19.257 -0.1524  0.0808 -0.1800
27378W        W28242  18.002  26.953  22.444 -0.1349  0.1066 -0.0256
27379W        W28243  16.946  28.668  24.223 -0.0583  0.0687  0.1419
27380W        W28244  14.969  24.323  27.427 -0.0269 -0.0739 -0.0573
27381W        W28245  19.429  25.664  25.947  0.0233 -0.1776  0.0578
27382W        W28246  17.891  25.542  22.343  0.0657  0.2501 -0.0803
27383W        W28247  15.329  28.254  25.241  0.1789  0.1820  0.1618
27384W        W28248  17.746  26.395  20.126  0.0791  0.2175  0.1196
27385W        W28249  20.884  27.433  24.585  0.1156 -0.0251 -0.1913
27386W        W28250  18.769  26.311  25.848 -0.2029 -0.0639 -0.1943
27387W        W28251  18.869  24.927  27.525  0.3152 -0.2380  0.1054
27388W        W28252  17.673  28.091  23.481  0.0740 -0.0020 -0.0618
27389W        W28253  17.239  24.945  27.187  0.2179 -0.0972  0.0820
27390W        W28254  17.468  22.308  24.738  0.1201 -0.1436 -0.2201
27391W        W28255  16.403  25.496  23.350  0.1001 -0.0155 -0.2921
27392W        W28256  16.966   0.689  25.522 -0.1994  0.0254  0.2531
27393W        W28257  18.074   0.124  22.215  0.0617  0.0886 -0.1935
27394W        W28258  19.725  25.056  22.700 -0.0039  0.2104  0.0460
27395W        W28259  15.247   0.141  24.525  0.4699  0.2076  0.1908
27396W        W28260  18.414  26.914  22.754  0.2013  0.0560  0.1214
27397W        W28261  17.247  25.731  24.058  0.0705  0.0896  0.1643
27398W        W28262  21.988  24.709  26.200 -0.1127  0.0854 -0.3565
27399W        W28263  15.744  26.742  25.262  0.2354 -0.3080 -0.0046
27400W        W28264  16.124  26.196  26.160 -0.3963 -0.1496  0.0042
27401W        W28265  16.420  27.359  26.538  0.1151  0.1243 -0.0645
27402W        W28266  17.738  25.155  22.029  0.2397 -0.3145 -0.0635
27403W        W28267  18.484   0.629  22.743 -0.1354 -0.4533  0.1362
27404W        W28268  18.470   0.439  24.114 -0.4110 -0.2092  0.2691
27405W        W28269  19.678  27.995  23.586 -0.0427 -0.2561 -0.1820
27406W        W28270  18.558  27.333  26.180  0.1671  0.1239  0.0434
27407W        W28271  16.328   0.636  23.943  0.0116  0.0652 -0.3472
27408W        W28272  16.164  24.761  25.154  0.1905 -0.2805 -0.0875
27409W        W28273  16.735  28.004  23.883 -0.0683  0.3641  0.0629
27410W        W28274  19.471  28.784  24.044 -0.0333 -0.1679 -0.1360
27411W        W28275  16.433  27.846  22.607 -0.4150 -0.2511  0.0430
27412W        W28276  16.218   0.771  25.210  0.2092  0.0572 -0.1954
27413W        W28277  15.780  26.747  22.921  0.0913  0.1055  0.1232
27414W        W28278  16.177   0.441  24.843  0.2062 -0.4201 -0.2635
27415W        W28279  17.870  22.575  21.871  0.1114  0.1222  0.3659
27416W        W28280  17.254  24.561  24.555  0.1698  0.2210  0.0703
27417W        W28281  16.491  28.547  25.653  0.0994 -0.1240  0.2480
27418W        W28282  17.841  24.803  25.833  0.2160 -0.0578 -0.0399
27419W        W28283  19.963  26.572  26.334 -0.0327 -0.1464 -0.0136
27420W        W28284  17.456  26.217  26.031 -0.1177  0.0429  0.0547
27421W        W28285  16.497  28.377  22.424  0.1374  0.3230  0.0408
27422W        W28286  15.921  26.528  21.492 -0.3745  0.0211  0.2407
27423W        W28287  17.987  25.425  26.492  0.4838 -0.0328 -0.1080
27424W        W28288  16.761  26.327  21.760  0.2336 -0.1294 -0.2432
27425W        W28289  16.226  26.287  21.955 -0.0279  0.3990  0.1575
27426W        W28290  16.984  26.167  26.211 -0.2005 -0.1104  0.1025
27427W        W28291  17.524  27.118  22.246  0.4472  0.2057  0.0027
27428W        W28292  19.156  26.925  24.368 -0.1592  0.1684 -0.1774
27429W        W28293  18.986  28.563  23.911  0.3229 -0.0328 -0.1798
27430W        W28294  17.272  26.520  26.953  0.2504 -0.3432 -0.1285
27431W        W28295  14.665  28.179  21.706 -0.0272 -0.1734  0.0707
27432W        W28296  19.453  27.609  25.045  0.0931  0.0047  0.0018
27433W        W28297  12.803  28.134  22.479 -0.0407  0.1493 -0.0001
27434W        W28298  17.141  28.012  25.641  0.0318  0.2347 -0.0007
27435W        W28299  17.461  25.349  21.624 -0.2461 -0.1670  0.0989
27436W        W28300  15.214  26.299  25.935 -0.2986 -0.1077  0.1503
27437W        W28301  17.184  23.810  23.842  0.2200  0.1316  0.2251
27438W        W28302  14.618  27.484  25.575  0.0761  0.0301 -0.1511
27439W        W28303  15.239  26.662  20.395 -0.0472  0.1470 -0.1097
27440W        W28304  17.169  24.043  21.869 -0.1426  0.0445  0.1546
27441W        W28305  14.207  25.960  24.473 -0.0155 -0.0709 -0.0371
27442W        W28306  18.749  25.748  27.149 -0.3297  0.1793 -0.0027
27443W        W28307  16.859  29.147  27.056 -0.3345 -0.1231 -0.1575
27444W        W28308  18.462  26.270  23.471  0.0209  0.1063  0.3997
27445W        W28309  19.071  26.564  26.899  0.0237  0.0987  0.1648
27446W        W28310  16.454  28.742  27.248 -0.5612 -0.0019 -0.0860
27447W        W28311  16.060  24.917  22.883 -0.1049  0.2892 -0.4665
27448W        W28312  15.472  25.558  23.832 -0.1052  0.0307 -0.0787
27449W        W28313  15.682  27.846  21.727 -0.1778  0.0734  0.2176
27450W        W28314  17.229  26.949  26.682 -0.1328  0.3628  0.3062
27451W        W28315  15.438  27.237  22.656 -0.2043  0.0215  0.1744
27452W        W28316  14.166  27.653  20.941 -0.1480 -0.1962  0.0323
27453W        W28317  19.055  25.371  25.613 -0.0545 -0.1364 -0.0816
27454W        W28318  16.320  27.499  25.447  0.1312  0.0871  0.1135
27455W        W28319  17.147  27.273  21.160  0.2005  0.1991 -0.3082
27456W        W28320  18.480  25.225  21.739  0.2256 -0.0480 -0.3123
27457W        W28321  18.602  24.742  22.113  0.0652  0.0248 -0.1162
27458W        W28322  15.906  27.329  25.246  0.0386  0.0398  0.0737
27459W        W28323  15.097  27.276  23.269  0.1116 -0.2006 -0.1572
27460W        W28324  17.081  25.886  22.209  0.0453  0.1054  0.0339
27461W        W28325  17.739  26.949  25.318 -0.0854  0.0932  0.2987
27462W        W28326  18.833  28.691  21.403  0.4799  0.1086 -0.0938
27463W        W28327  18.784  28.220  24.748 -0.2087  0.3513  0.4026
27464W        W28328  18.795  25.956  21.405  0.3992  0.4389  0.2962
27465W        W28329  16.287  24.656  22.389  0.1586  0.1004  0.6164
27466W        W28330  15.133  25.314  21.867 -0.0184 -0.2600 -0.4922
27467W        W28331  16.062  27.060  24.549 -0.1137 -0.1658  0.0418
27468W        W28332  17.580  24.043  21.508  0.2179  0.3363 -0.1685
27469W        W28333  13.774  27.856  20.999 -0.1851 -0.1914  0.2548
27470W        W28334  16.532  23.842  24.519 -0.3238  0.0314 -0.1049
27471W        W28335  15.340   0.001  24.011 -0.0456 -0.0113 -0.0524
27472W        W28336  14.795  27.003  24.819 -0.0955  0.1113 -0.1624
27473W        W28337  14.234  26.472  24.447 -0.1151  0.0492 -0.0422
27474W        W28338  14.937  26.449  24.629  0.0158 -0.0201 -0.1924
27475W        W28339  13.255  27.786  25.450  0.1672 -0.0965 -0.0441
27476W        W28340  18.999  25.548  23.262  0.1823 -0.0161 -0.2214
27477W        W28341  17.229  24.654  23.372 -0.0866 -0.1789 -0.0932
27478W        W28342  15.410  25.813  21.189 -0.1686 -0.2203  0.1299
27479W        W28343  14.688  24.267  22.503  0.2368  0.0099  0.0350
27480W        W28344  14.230  28.194  22.897  0.1957  0.0691 -0.0998
27481W        W28345  17.925  23.392  24.242 -0.2180  0.0659  0.1739
27482W        W28346  17.035  27.751  21.014  0.1508 -0.1591  0.2129
27483W        W28347  16.691  22.634  23.862  0.1557 -0.1429 -0.2490
27484W        W28348  18.559  24.594  23.112  0.3757 -0.0083  0.0454
27485W        W28349  13.460  26.126  24.138 -0.1994  0.1628 -0.0349
27486W        W28350  15.703  27.827  23.846 -0.1094  0.0093  0.0062
27487W        W28351  15.654  25.122  22.133 -0.2291 -0.1063  0.2700
27488W        W28352  15.167  27.582  25.302  0.1130 -0.1651  0.0770
27489W        W28353  17.798  27.808  23.875  0.0798  0.0320 -0.1309
27490W        W28354  18.940  27.268  21.332  0.3400 -0.0563  0.1415
27491W        W28355  14.058   1.911  22.705 -0.0390 -0.0266  0.2590
27492W        W28356  14.805  28.558  26.684 -0.0072 -0.0638 -0.0620
27493W        W28357  13.561   0.330  21.972  0.1162  0.1658 -0.0030
27494W        W28358  18.347  26.530  24.084 -0.3028  0.0301 -0.0862
27495W        W28359  17.612  25.301  25.833  0.2952 -0.0844 -0.0820
27496W        W28360  19.166  27.949  22.796  0.1751 -0.0957 -0.0181
27497W        W28361  18.919  24.863  21.622 -0.1453  0.1742  0.0829
27498W        W28362  18.211  25.732  20.147  0.2754 -0.1650  0.1558
27499W        W28363  20.244  28.190  21.744  0.0000  0.0976 -0.1636
27500W        W28364  15.543  25.097  24.066 -0.0250 -0.1800 -0.2521
27501W        W28365  16.062   0.359  25.727 -0.2667 -0.0805 -0.1739
27502W        W28366  21.446  24.338  28.091 -0.2617  0.2827  0.1132
27503W        W28367  18.128  26.264  23.106 -0.3231 -0.1604 -0.1243
27504W        W28368  15.873  29.025  27.138 -0.0747  0.3469  0.0197
27505W        W28369  19.983  28.022  22.177 -0.0552 -0.0559 -0.0652
27506W        W28370  19.162  28.584  20.512  0.0906  0.1712  0.0152
27507W        W28371  13.254  25.116  24.184 -0.2382 -0.3104 -0.3900
27508W        W28372  16.706  29.000  25.972  0.1312  0.1879 -0.0125
27509W        W28373  17.698  27.156  25.826 -0.0124 -0.2596 -0.0227
27510W        W28374  17.861  28.819  23.299  0.0389 -0.0803  0.0429
27511W        W28375  17.804  27.383  24.672 -0.0308 -0.1551  0.2194
27512W        W28376  20.754  25.243  26.149 -0.0700  0.1220  0.1183
27513W        W28377  15.062  26.328  26.522  0.0059  0.1113 -0.0011
27514W        W28378  16.265  28.723  22.926 -0.1081 -0.1272  0.1451
27515W        W28379  17.526  27.438  24.249 -0.1334 -0.1499  0.0611
27516W        W28380  15.951  25.219  25.104  0.1682 -0.2550 -0.1309
27517W        W28381  17.786  26.997  24.211  0.0626  0.0670 -0.1790
27518W        W28382  18.250  27.114  24.449 -0.0818 -0.0484  0.2958
27519W        W28383  18.603  25.143  25.456 -0.2307  0.0386 -0.0132
27520W        W28384  18.780   0.334  24.948 -0.0159  0.1558  0.1926
27521W        W28385  18.748  26.759  24.150  0.2335  0.0039  0.1333
27522W        W28386  16.812  27.682  23.128  0.2693 -0.0559  0.1223
27523W        W28387  13.374  27.691  26.326  0.1298  0.1312  0.0436
27524W        W28388  15.989  26.141  24.961  0.2414  0.0677 -0.1097
27525W        W28389  14.526  25.685  23.323 -0.0140 -0.1478 -0.0593
27526W        W28390  16.183  22.725  23.924 -0.0320 -0.2713 -0.1419
27527W        W28391  17.489  26.052  21.485  0.0144 -0.0608  0.1997
27528W        W28392  18.286  27.450  23.737 -0.0454  0.3791 -0.0334
27529W        W28393  12.913  28.259  25.259  0.1491  0.0885 -0.0149
27530W        W28394  17.181  27.791  23.881  0.1702 -0.3075  0.0957
27531W        W28395  15.382  27.662  22.976 -0.0745  0.1630 -0.4123
27532W        W28396  15.960  28.526  24.648  0.2336 -0.2037  0.4182
27533W        W28397  17.716  28.944  24.061  0.5628  0.1513  0.2931
27534W        W28398  17.895   0.196  24.990 -0.0353  0.0747  0.0218
27535W        W28399  18.038  28.426  23.616 -0.1754  0.1208 -0.3032
27536W        W28400  16.136  26.515  23.355  0.0926 -0.1166  0.0571
27537W        W28401  17.272  26.692  22.850 -0.1212 -0.1774 -0.2162
27538W        W28402  18.318  24.383  21.264 -0.3669 -0.1989  0.0874
27539W        W28403  14.361  28.356  26.870  0.2864  0.2669  0.0200
27540W        W28404  17.771  27.749  25.005 -0.0247 -0.0655 -0.1576
27541W        W28405  17.926  28.009  26.093  0.1065  0.0136 -0.0332
27542W        W28406  16.973  26.653  23.836  0.2787  0.0774  0.1104
27543W        W28407  15.925  29.077  26.031 -0.1976 -0.1716  0.0387
27544W        W28408  18.306  27.202  27.148 -0.0865 -0.2218 -0.0989
27545W        W28409  15.214  26.794  25.110  0.3349 -0.2346 -0.1569
27546W        W28410  17.166   1.785  22.722  0.0676  0.0284 -0.0970
27547W        W28411  15.178  27.891  24.901 -0.2057 -0.1494  0.0410
27548W        W28412  15.163  26.892  23.578  0.1609 -0.3505 -0.2872
27549W        W28413  18.822  27.580  20.841  0.1443 -0.1272 -0.0209
27550W        W28414  13.939  28.002  25.649 -0.2655  0.2702 -0.3231
27551W        W28415  17.358  24.267  24.129 -0.3781 -0.1478 -0.1306
27552W        W28416  15.868  28.841  22.328  0.0122 -0.1311  0.0489
27553W        W28417  18.236  28.002  24.071 -0.1262  0.1511  0.0114
27554W        W28418  16.490  23.887  25.532 -0.1580  0.1767  0.1734
27555W        W28419  14.618  28.523  23.557 -0.0945 -0.0549  0.0552
27556W        W28420  18.088  29.126  25.457  0.1900  0.0210 -0.0995
27557W        W28421  20.461  25.572  26.384 -0.1943 -0.0499 -0.4452
27558W        W28422  15.399  24.624  24.137 -0.0779 -0.2843  0.1981
27559W        W28423  15.612  28.020  24.382 -0.0446  0.2931  0.1696
27560W        W28424  16.046  28.754  20.207 -0.0419 -0.0778  0.1730
27561W        W28425  16.993  27.490  23.552 -0.0531  0.3506 -0.1076
27562W        W28426  15.709  28.607  25.025 -0.1659  0.3218 -0.1615
27563W        W28427  16.908  28.115  22.800  0.0155  0.0374  0.0937
27564W        W28428  16.739  27.464  22.454 -0.1763  0.2369 -0.2754
27565W        W28429  14.359  27.288  24.500  0.3611  0.2090 -0.0575
27566W        W28430  16.485  26.648  22.214  0.3672 -0.0822  0.0646
27567W        W28431  18.036  27.639  25.676 -0.0107 -0.1565  0.3389
27568W        W28432  16.201  27.360  24.170  0.3431  0.1132  0.2208
27569W        W28433  13.910  27.207  25.139  0.1633  0.0265  0.2817
27570W        W28434  18.202  24.745  23.492  0.2263 -0.1847 -0.1490
27571W        W28435  18.965   0.443  21.927  0.1061 -0.2365 -0.1799
27572W        W28436  19.830  25.537  22.681 -0.1935 -0.3701  0.0986
27573W        W28437  18.570  24.089  25.008 -0.1042  0.0006  0.0970
27574W        W28438  19.469  27.155  25.753  0.2232 -0.1158  0.1531
27575W        W28439  15.447  24.377  25.216  0.2572 -0.2285  0.0009
27576W        W28440  16.063  27.060  22.685  0.0154 -0.0357  0.3792
27577W        W28441  17.734  25.947  24.053  0.0636 -0.3417  0.2882
27578W        W28442  15.510  25.879  24.828 -0.1220 -0.0273  0.0284
27579W        W28443  18.829   3.570  23.900  0.0843  0.1113 -0.1269
27580W        W28444  17.110  25.781  21.736 -0.2606  0.0383 -0.1517
27581W        W28445  12.817   2.531  23.363  0.0244  0.0588  0.3426
27582W        W28446  15.962  27.997  22.142 -0.3587 -0.1502  0.2445
27583W        W28447  16.276  25.727  26.579  0.3835 -0.0319  0.2008
27584W        W28448  12.629  28.345  26.021 -0.0985 -0.3781  0.2446
27585W        W28449  19.941  28.984  24.228  0.5175 -0.1694 -0.1327
27586W        W28450  18.317  25.767  19.554 -0.1355  0.0206  0.2608
27587W        W28451  17.631   0.463  22.633  0.0131 -0.1868  0.1478
27588W        W28452  18.425  26.375  24.751  0.2366 -0.2583  0.2069
27589W        W28453  17.838  24.497  21.348 -0.2287  0.1096 -0.1260
27590W        W28454  15.958  25.808  23.840  0.0679  0.1379  0.0681
27591W        W28455  17.498  25.294  22.712  0.1267  0.0841  0.1801
27592W        W28456  17.283  26.812  25.146 -0.1074 -0.3440 -0.3416
27593W        W28457  16.579  27.519  25.941 -0.0801  0.3006 -0.0942
27594W        W28458  18.662  23.943  21.929 -0.2561 -0.1099 -0.2712
27595W        W28459  18.384  27.806  25.991 -0.1612 -0.2846 -0.1650
27596W        W28460  16.742  29.129  24.347 -0.1153  0.2151  0.2521
27597W        W28461  15.205   1.212  26.426 -0.0045 -0.0055  0.2076
27598W        W28462  15.153  25.622  23.100 -0.0935  0.0678 -0.0111
27599W        W28463  17.592  25.696  21.937 -0.3189  0.2762  0.1719
27600W        W28464  17.388  28.084  25.231 -0.0790 -0.0300 -0.0514
27601W        W28465  16.676  28.141  23.406 -0.0900 -0.0935  0.2987
27602W        W28466  17.433   0.039  24.916 -0.0797 -0.1504  0.1991
27603W        W28467  17.625   0.249  21.511  0.0295 -0.0999 -0.0707
27604W        W28468  15.447  27.009  26.140 -0.1976 -0.2457  0.0879
27605W        W28469  13.578  26.154  25.142 -0.2949  0.0154  0.0482
27606W        W28470  14.282  27.824  21.859 -0.0953 -0.0936 -0.0958
27607W        W28471  18.509   1.532  23.252 -0.0479 -0.1954 -0.0560
27608W        W28472  16.633  22.988  24.637 -0.3450 -0.3698 -0.1539
27609W        W28473  14.599   0.672  21.150 -0.3151  0.0346  0.1704
27610W        W28474  16.423  26.129  23.556 -0.3336 -0.3957 -0.0571
27611W        W28475  15.768  28.849  22.874  0.0626  0.1744 -0.1397
27612W        W28476  15.001  26.007  25.490 -0.0898  0.2210 -0.1406
27613W        W28477  17.894  24.969  22.630  0.1316  0.0823  0.2945
27614W        W28478  17.756  25.686  25.349 -0.3433 -0.0297 -0.5257
27615W        W28479  17.260  27.514  27.437  0.0455  0.0383  0.0367
27616W        W28480  20.186  28.161  25.602 -0.3175 -0.1675 -0.2225
27617W        W28481  17.797   0.209  23.117  0.2120  0.2213  0.0351
27618W        W28482  16.054   1.155  23.524  0.0879 -0.1576 -0.1655
27619W        W28483  19.069  27.144  22.825  0.3075  0.3600  0.1829
27620W        W28484  18.616  26.975  24.851  0.1493  0.1939  0.0884
27621W        W28485  15.785  21.573  22.426 -0.1333 -0.2728  0.2226
27622W        W28486  18.532  25.842  20.989  0.4232  0.1230  0.3011
27623W        W28487  17.687  26.434  24.664  0.0616  0.0085  0.1405
27624W        W28488  15.340  23.938  25.549 -0.3347  0.0324 -0.3218
27625W        W28489  15.815  27.177  20.880 -0.1082  0.0195 -0.4467
27626W        W28490  17.265  25.267  23.844 -0.3429 -0.1427  0.2126
27627W        W28491  13.193   2.365  22.432  0.0416  0.1277 -0.1923
27628W        W28492  15.915   0.161  22.670  0.0591 -0.1018 -0.0202
27629W        W28493  18.577  24.494  24.652  0.0262 -0.0578  0.0303
27630W        W28494  18.492  28.229  25.152 -0.0165  0.0673 -0.2335
27631W        W28495  14.522  28.237  24.905  0.1457 -0.2624 -0.1875
27632W        W28496  19.897  26.368  25.635  0.3019 -0.0504  0.2719
27633W        W28497  16.784  24.454  22.462 -0.0107 -0.1229  0.1050
27634W        W28498  18.230  27.961  23.418 -0.5024 -0.2821 -0.0791
27635W        W28499  17.673   0.235  24.243 -0.1546  0.2376 -0.1717
27636W        W28500  14.824   0.218  21.312  0.1034 -0.1099 -0.1317
27637W        W28501  18.581  24.270  22.358 -0.0455  0.2082 -0.0169
27638W        W28502  15.605  27.633  22.178  0.3653  0.0908 -0.0867
27639W        W28503  14.631  27.033  25.825 -0.2131  0.3522  0.2708
27640W        W28504  16.937  26.909  25.785 -0.2641  0.3612 -0.2713
27641W        W28505  14.237  26.807  22.863 -0.0529 -0.0428  0.0096
27642W        W28506  13.841  27.672  22.124 -0.0787  0.1272 -0.0596
27643W        W28507  17.743  25.187  24.549 -0.2864  0.2954  0.0668
27644W        W28508  13.959  27.765  22.646 -0.0122 -0.1391  0.1479
27645W        W28509  15.354  25.452  22.378  0.0805  0.1123 -0.0543
27646W        W28510  18.604  26.660  20.191 -0.1626  0.0304  0.2532
27647W        W28511  17.974   1.189  24.604  0.1287 -0.1219  0.2793
27648W        W28512  17.596  29.109  22.721 -0.1540  0.2641 -0.5099
27649W        W28513  16.811  28.637  22.714 -0.2090 -0.0848  0.0310
27650W        W28514  17.951  27.541  23.380 -0.2018  0.2510 -0.2397
27651W        W28515  20.048  25.294  23.550  0.0887  0.0910  0.0266
27652W        W28516  16.669  25.453  22.909  0.2101  0.2675  0.0034
27653W        W28517  17.589  26.159  23.213 -0.1901  0.0704 -0.0440
27654W        W28518  16.580  26.994  22.528  0.4107  0.0607  0.2227
27655W        W28519  18.739  28.427  22.793  0.2946 -0.1073  0.2742
27656W        W28520  17.616  26.090  22.252 -0.4350  0.0994 -0.0120
27657W        W28521  13.943  25.698  26.427  0.2116 -0.0843  0.3987
27658W        W28522  12.890  25.863  26.990 -0.0077  0.2816 -0.0512
27659W        W28523  18.430  28.851  22.740 -0.2845 -0.0539  0.0685
27660W        W28524  19.017  26.947  27.737  0.0082 -0.2006  0.2227
27661W        W28525  15.385  24.691  25.586  0.2105 -0.1991 -0.0636
27662W        W28526  16.227  27.996  25.691 -0.0531 -0.1277  0.2602
27663W        W28527  18.308  28.041  21.862  0.0559  0.0905 -0.0879
27664W        W28528  11.856  27.314  24.011 -0.0742  0.2048  0.0643
27665W        W28529  18.505  27.619  26.985  0.1035  0.0450 -0.0162
27666W        W28530  18.142  29.031  21.347 -0.2616 -0.0453  0.0442
27667W        W28531  16.590  28.490  23.904  0.1335  0.1006  0.1060
27668W        W28532  17.507  27.619  22.122 -0.1858  0.0932 -0.2979
27669W        W28533  15.748  28.132  24.888 -0.2975  0.2647 -0.3523
27670W        W28534  15.687  28.498  22.055  0.0410  0.2479  0.1612
27671W        W28535  20.726  29.012  22.631  0.1533  0.2302 -0.0583
27672W        W28536  16.985  28.337  25.120 -0.0220 -0.0135 -0.1089
27673W        W28537  15.742   0.121  23.123 -0.0214 -0.1376 -0.2660
27674W        W28538  18.631  28.041  23.112 -0.1040 -0.3537  0.1547
27675W        W28539  17.439  28.650  24.909 -0.0115  0.1478  0.0621
27676W        W28540  14.735  27.696  21.709 -0.3192  0.1532 -0.0766
27677W        W28541  17.103  27.452  26.518  0.3002 -0.0181  0.1876
27678W        W28542  18.067  25.488  23.297  0.0164  0.0809  0.2371
27679W        W28543  14.603  26.759  24.462  0.1260 -0.0248  0.1860
27680W        W28544  17.843  28.374  21.137  0.0365  0.1858  0.0310
27681W        W28545  15.754  28.334  22.973  0.0359 -0.1387  0.1853
27682W        W28546  14.889   0.233   1.880 -0.3080 -0.2899  0.1173
27683W        W28547  16.069   1.208  27.952 -0.2968  0.3602 -0.1036
27684W        W28548  20.131  27.513  27.755 -0.2343 -0.1574 -0.0481
27685W        W28549  19.007   2.502  28.493  0.0009 -0.0807 -0.0881
27686W        W28550  15.427   2.062  25.616  0.0092  0.4486  0.1600
27687W        W28551  15.545  25.670  26.903  0.1746 -0.1061 -0.1678
27688W        W28552  16.124   0.696  27.165 -0.1422  0.1381 -0.0588
27689W        W28553  15.892  29.137  28.263  0.2026  0.0692  0.3562
27690W        W28554  17.229   1.854   0.270  0.3314  0.1081 -0.1566
27691W        W28555  16.063  27.736   1.854  0.3892  0.2787 -0.0424
27692W        W28556  15.220  23.703  26.060 -0.1717 -0.2327 -0.0565
27693W        W28557  16.501  27.832  27.221 -0.5206  0.2262 -0.2286
27694W        W28558  17.026  26.205  22.996 -0.1266 -0.0533  0.1421
27695W        W28559  20.014  27.641   1.221 -0.1360  0.1016 -0.2631
27696W        W28560  13.253  24.815  26.781  0.1833  0.2605 -0.0891
27697W        W28561  15.129  29.039   1.590  0.2801  0.0939  0.0777
27698W        W28562  17.028  28.054  27.089  0.1650  0.1814 -0.3332
27699W        W28563  16.083  28.864  27.630  0.5394  0.1342 -0.0861
27700W        W28564  16.094   0.630   0.588 -0.2036  0.0325  0.1070
27701W        W28565  20.073  28.049  26.414 -0.1573  0.0741  0.0454
27702W        W28566  16.465   2.458   0.211  0.2647  0.0561  0.1262
27703W        W28567  17.412   0.380   0.793 -0.1073  0.0355  0.1733
27704W        W28568  16.914   0.478  27.477 -0.0848 -0.2690 -0.0891
27705W        W28569  15.939   0.152   0.471  0.0927  0.1789 -0.0263
27706W        W28570  15.562  27.465  25.654  0.0824 -0.2915  0.2084
27707W        W28571  16.236  28.774  25.161  0.3272  0.0213  0.1199
27708W        W28572  19.185  27.900  28.945  0.0155  0.0384  0.1092
27709W        W28573  18.419  28.425  28.254  0.3244  0.1292 -0.0467
27710W        W28574  18.954  27.861   0.256 -0.3935  0.0394 -0.0142
27711W        W28575  15.715  25.313  27.271  0.1903 -0.1462 -0.0351
27712W        W28576  15.490   0.055  26.270  0.1262 -0.1060 -0.0177
27713W        W28577  15.980   1.001  28.880  0.2035  0.0055 -0.1526
27714W        W28578  16.992  27.456  28.565 -0.1580  0.1792  0.0843
27715W        W28579  18.019  28.070  27.961 -0.2707 -0.0869  0.1004
27716W        W28580  12.192  28.746   0.354  0.1930 -0.2722  0.2440
27717W        W28581  18.036   2.990   1.898 -0.0670 -0.1613 -0.1974
27718W        W28582  13.801  24.382  24.679 -0.1866 -0.0158 -0.0020
27719W        W28583  14.605  28.602  28.320  0.0360 -0.1646 -0.1172
27720W        W28584  21.323  28.808  27.312 -0.3269  0.1702  0.1052
27721W        W28585  19.150  26.091   2.019 -0.0349 -0.2638  0.3940
27722W        W28586  19.295  26.171  26.097  0.2738 -0.2581  0.0540
27723W        W28587  15.479  27.365  28.590  0.2290  0.2254  0.1378
27724W        W28588  16.007   3.389  27.079 -0.0728  0.2298  0.0434
27725W        W28589  18.782   1.033  27.155 -0.0729  0.0237  0.4150
27726W        W28590  16.491  28.314  25.172  0.0270  0.0101  0.1797
27727W        W28591  13.805   2.105  26.588 -0.0250  0.1205 -0.0459
27728W        W28592  17.656  27.265  26.524  0.0936 -0.2445  0.1402
27729W        W28593  16.832  27.498   0.250 -0.1649  0.0999 -0.1819
27730W        W28594  17.296  26.713  24.383  0.0634  0.1743  0.0799
27731W        W28595  19.087  28.680  24.764  0.0201 -0.0748 -0.0713
27732W        W28596  19.808   0.461  28.095  0.3544  0.2338 -0.0046
27733W        W28597  17.242  26.658   1.633  0.0693  0.2424 -0.1269
27734W        W28598  16.217  27.011  27.972 -0.1071 -0.0494 -0.3248
27735W        W28599  17.516  27.639  26.195  0.2366 -0.3731 -0.0215
27736W        W28600  16.963  26.082  26.769  0.2322  0.2430 -0.0211
27737W        W28601  15.009  24.362  25.512 -0.1417 -0.1778  0.0760
27738W        W28602  14.869  25.945  27.685 -0.2460  0.1255 -0.0108
27739W        W28603  15.518  27.112  24.377 -0.1381 -0.4993  0.0768
27740W        W28604  14.520  29.121  27.550  0.1575 -0.0951  0.0178
27741W        W28605  16.206  27.698  26.239  0.2596 -0.2652 -0.0859
27742W        W28606  18.320  26.353  26.730 -0.2294  0.2467 -0.0394
27743W        W28607  16.618  26.658  28.029 -0.3705  0.2070 -0.0004
27744W        W28608  17.471  28.881  28.178 -0.3837  0.0280  0.0330
27745W        W28609  15.659   0.701  25.864 -0.1429  0.2896  0.3939
27746W        W28610  16.028  26.392  27.028 -0.1022  0.4038 -0.0952
27747W        W28611  19.665  24.602  28.577 -0.1603  0.2281  0.1635
27748W        W28612  15.722  28.168  26.798  0.0127 -0.2881 -0.1288
27749W        W28613  17.386  25.979  27.009  0.0837 -0.0217 -0.3214
27750W        W28614  15.300   1.413  24.498 -0.4713  0.0903  0.0092
27751W        W28615  18.409  28.088  26.909 -0.1223  0.1531  0.0597
27752W        W28616  17.384   1.001  28.625  0.1161  0.0497 -0.0215
27753W        W28617  16.767  28.328  26.535 -0.2284  0.1655 -0.2869
27754W        W28618  21.236  29.105  25.370  0.1864  0.0811 -0.0417
27755W        W28619  18.751   1.107  28.037 -0.0856 -0.1143 -0.1166
27756W        W28620  18.279  27.925  28.382 -0.4128 -0.0013  0.2509
27757W        W28621  17.390   0.642  27.672  0.0618  0.0376 -0.1889
27758W        W28622  15.022  27.729  26.285  0.1180  0.2624  0.0516
27759W        W28623  18.804  28.406  27.879  0.2136  0.0081  0.4086
27760W        W28624  16.972  27.011   0.687 -0.1857 -0.1128  0.1244
27761W        W28625  17.271  25.524  24.511 -0.1861 -0.2445 -0.1535
27762W        W28626  15.602   1.213  25.772  0.1996  0.3170 -0.2236
27763W        W28627  14.203  27.648   2.479 -0.1278  0.0599  0.1359
27764W        W28628  13.563  25.615  26.745 -0.1711  0.1278  0.2812
27765W        W28629  18.793  27.308  26.666  0.1736  0.1195  0.1619
27766W        W28630  16.530  27.222  29.040  0.1237  0.1755 -0.0173
27767W        W28631  19.385  28.978  25.498 -0.3674 -0.0516 -0.1099
27768W        W28632  18.039   1.592  28.600 -0.0625 -0.1390  0.1112
27769W        W28633  15.394  28.049  26.292 -0.2374 -0.1381  0.0704
27770W        W28634  19.262   1.502   0.342  0.0982  0.0112 -0.0207
27771W        W28635  19.025  24.850  28.484  0.2167  0.2198 -0.1369
27772W        W28636  18.141  28.295  25.700 -0.0729  0.0462  0.1026
27773W        W28637  19.150   0.432  28.907  0.3970 -0.0400  0.1359
27774W        W28638  16.982  28.594  29.050 -0.0676 -0.0647  0.0330
27775W        W28639  16.785  25.475  25.521 -0.0870  0.0944  0.1590
27776W        W28640  14.210  24.928   3.679 -0.0241 -0.3048  0.0088
27777W        W28641  19.064  27.212  26.023 -0.0875  0.2421 -0.0536
27778W        W28642  15.853  27.280  26.317 -0.0108 -0.2047 -0.1685
27779W        W28643  17.730   1.691   0.089 -0.1005  0.1762 -0.0905
27780W        W28644  16.537  26.155  26.477  0.1299 -0.3337  0.2352
27781W        W28645  17.469  27.067  27.770  0.0519  0.2976  0.0456
27782W        W28646  18.285  28.403  27.715  0.1548  0.1241 -0.0725
27783W        W28647  14.572  27.793  27.004  0.2128 -0.0343 -0.1011
27784W        W28648  15.988  28.712  26.461  0.0432  0.1178  0.2496
27785W        W28649  19.466   0.353  26.877 -0.1102  0.0198 -0.0148
27786W        W28650  20.181  26.019  26.905 -0.2141 -0.0000  0.1940
27787W        W28651  15.888  27.442  26.910  0.2316  0.0665  0.1185
27788W        W28652  19.756  28.736  22.753 -0.3347  0.2406  0.2050
27789W        W28653  16.456  26.737   2.862  0.4402 -0.0224 -0.2523
27790W        W28654  17.520  25.343  26.348 -0.0106 -0.0778  0.3630
27791W        W28655  17.016  25.038  28.736  0.2662  0.0593 -0.1252
27792W        W28656  14.194  27.334   0.504  0.1073  0.2235 -0.2263
27793W        W28657  17.229   1.919  26.364 -0.4151 -0.2481 -0.3765
27794W        W28658  16.270  28.242  27.991 -0.1134 -0.5248  0.0719
27795W        W28659  16.241  28.409   1.537 -0.1958  0.3151  0.1539
27796W        W28660  17.774  27.229  23.797  0.0269 -0.2071  0.0306
27797W        W28661  15.956  27.927  27.190  0.0742 -0.1607 -0.0106
27798W        W28662  15.860  26.301  27.509 -0.0122 -0.1301 -0.1360
27799W        W28663  19.525  28.373   1.215  0.0450 -0.1887  0.1344
27800W        W28664  16.838  28.129   0.052 -0.1835  0.1347 -0.1745
27801W        W28665  16.444  28.591  26.145 -0.2089 -0.0570 -0.0543
27802W        W28666  16.566  24.680  26.464 -0.0552  0.2689  0.0183
27803W        W28667  17.011  26.146  23.884 -0.2500 -0.0759 -0.2725
27804W        W28668  16.090  27.080   0.864 -0.1748 -0.0900  0.0230
27805W        W28669  14.381  28.465  26.334 -0.0130 -0.0678  0.0302
27806W        W28670  17.422  28.822   0.099 -0.0191 -0.2730  0.2639
27807W        W28671  17.903  26.801  28.419 -0.0815  0.0831 -0.0195
27808W        W28672  15.476  26.846  27.657  0.0652 -0.0668 -0.2077
27809W        W28673  17.449  27.300   0.834  0.1211 -0.1672 -0.0787
27810W        W28674  16.750  28.362  28.190 -0.1216 -0.1360 -0.1021
27811W        W28675  16.446   0.568  27.764 -0.0883  0.3209 -0.0608
27812W        W28676  16.311  28.628  29.096 -0.0210  0.0242  0.0593
27813W        W28677  16.206  26.146  27.891  0.1172  0.0784  0.0355
27814W        W28678  16.791   0.518   0.127 -0.1998  0.1637  0.1433
27815W        W28679  18.542  24.042  26.311 -0.1405 -0.2442  0.0421
27816W        W28680  19.221  26.978  27.269  0.1244 -0.1107  0.0969
27817W        W28681  16.970  25.769  29.135  0.2750 -0.0189  0.3861
27818W        W28682  15.907   0.019  26.610 -0.3831 -0.1216 -0.0719
27819W        W28683  17.137  26.076   0.346  0.1124  0.0687  0.0722
27820W        W28684  18.247  27.919  26.467  0.0629  0.4943 -0.0852
27821W        W28685  14.868   1.582  27.415 -0.0476  0.0048 -0.1597
27822W        W28686  16.637  24.348  25.784 -0.0625  0.0664 -0.0310
27823W        W28687  16.130  27.376  27.536  0.0959 -0.1298 -0.1433
27824W        W28688  14.802   0.645  25.484 -0.0688  0.0313 -0.0482
27825W        W28689  16.307  27.844   1.381  0.2385 -0.1196 -0.2332
27826W        W28690  16.711  27.138   2.161  0.3393  0.0677  0.1239
27827W        W28691  19.033  26.528  27.478  0.1645  0.1832 -0.1162
27828W        W28692  19.256  28.135  25.827  0.1864  0.1145 -0.2665
27829W        W28693  16.906   0.727  28.000 -0.0024 -0.0195  0.2999
27830W        W28694  16.845   1.794  26.753 -0.0018  0.0100 -0.0240
27831W        W28695  15.678  27.052  24.901 -0.0542  0.3731 -0.1808
27832W        W28696  16.096   0.296  27.451 -0.0531 -0.0259  0.0747
27833W        W28697  16.881  26.602  26.525  0.2265  0.2203  0.3455
27834W        W28698  15.036   0.254  27.138 -0.0522 -0.1304  0.1074
27835W        W28699  12.048  27.415  25.367  0.0161 -0.2983 -0.2399
27836W        W28700  16.050  25.559   1.831 -0.1646 -0.0849 -0.1615
27837W        W28701  16.740  25.660   0.694  0.1538 -0.0273  0.2251
27838W        W28702  14.631   0.321  26.386  0.0090 -0.1677 -0.0624
27839W        W28703  14.581  25.659  25.686 -0.2666  0.1727 -0.1357
27840W        W28704  15.453  25.146  25.936  0.1590  0.2820  0.0785
27841W        W28705  15.345  26.283  27.311 -0.5833 -0.1915  0.2999
27842W        W28706  18.697  25.241  28.537  0.0937 -0.0023  0.1135
27843W        W28707  16.219  28.131   1.014  0.2074  0.5384  0.0160
27844W        W28708  19.380   0.410  27.614  0.0305 -0.2575  0.1343
27845W        W28709  17.878  27.125  28.055  0.0552  0.3088 -0.0508
27846W        W28710  17.125  25.250   0.041  0.0478 -0.1333  0.2311
27847W        W28711  14.606  28.229  27.344  0.1876 -0.0029 -0.0967
27848W        W28712  16.299  25.624  25.538  0.2686  0.0963 -0.1591
27849W        W28713  15.055  26.701  28.084  0.0027 -0.0215  0.2738
27850W        W28714  17.268   1.383   0.473  0.0170  0.1717  0.1990
27851W        W28715  16.107  24.489  23.732 -0.0489  0.1603  0.5068
27852W        W28716  17.523   0.916  26.723 -0.1014 -0.3468 -0.1018
27853W        W28717  17.816  29.030  29.042  0.1720  0.0166 -0.1345
27854W        W28718  16.735   1.696  28.439 -0.1545  0.0937 -0.1962
27855W        W28719  18.393  26.663  26.255  0.1052 -0.0014 -0.0193
27856W        W28720  17.790  26.536  26.946  0.0245  0.0493  0.1078
27857W        W28721  17.950  27.545  26.943  0.0650 -0.2489 -0.0963
27858W        W28722  16.355   1.946   1.436  0.2671 -0.2639  0.0114
27859W        W28723  15.776  28.518  29.103  0.1499 -0.3900 -0.1421
27860W        W28724  14.694  27.707  27.478 -0.3392 -0.4741  0.0885
27861W        W28725  17.227   0.478  28.451  0.2515 -0.2872  0.1140
27862W        W28726  15.692  26.519  25.806 -0.2969  0.0434  0.0922
27863W        W28727  18.109  28.140  24.899 -0.2112  0.1113 -0.0252
27864W        W28728  15.223  26.851  24.648  0.2022 -0.1487 -0.1129
27865W        W28729  17.022  28.137   0.536  0.4474 -0.1119 -0.7429
27866W        W28730  16.500  24.276  27.316  0.0604  0.1037 -0.1862
27867W        W28731  17.900  28.238  28.434  0.1037 -0.0391  0.1163
27868W        W28732  14.870  27.427  26.698 -0.5097 -0.2857  0.3786
27869W        W28733  15.431  26.721  26.542 -0.1732  0.1626  0.0358
27870W        W28734  16.883   0.944  29.007  0.0498  0.2006 -0.4036
27871W        W28735  14.826  28.111  27.891  0.3233 -0.0406 -0.1467
27872W        W28736  15.819  25.317  26.770  0.0471  0.1025 -0.0507
27873W        W28737  15.481  25.417  24.926  0.0802  0.1561 -0.1528
27874W        W28738  13.886  23.398   0.257  0.3387  0.0291  0.2954
27875W        W28739  15.582  26.019  28.543  0.2184  0.3549 -0.0785
27876W        W28740  17.337  27.861  28.703 -0.0809 -0.3401  0.0287
27877W        W28741  16.747  27.771  26.318  0.1703 -0.4344  0.1285
27878W        W28742  14.520  25.624  26.377  0.3148  0.0176  0.1617
27879W        W28743  13.538   0.485  27.374  0.2426  0.1673  0.1177
27880W        W28744  14.124  26.592  27.447 -0.0378  0.2424 -0.1848
27881W        W28745  16.227  26.835  27.122 -0.4573  0.2872 -0.2024
27882W        W28746  16.594  25.946  25.901 -0.0444 -0.1535 -0.1443
27883W        W28747  13.247  25.245  26.499  0.3555  0.0283 -0.0641
27884W        W28748  16.767  27.311  25.458 -0.0965  0.1869  0.0765
27885W        W28749  15.192  26.250  27.892 -0.1402 -0.2886  0.0111
27886W        W28750  14.255  27.728   1.815 -0.3378 -0.0998 -0.0858
27887W        W28751  16.323  29.060  25.685  0.0737 -0.1347  0.0621
27888W        W28752  14.962  27.090  29.123 -0.0345  0.1181  0.1720
27889W        W28753  18.243   1.053  28.020 -0.1118 -0.3306  0.1138
27890W        W28754  16.457   1.016  25.944 -0.1306  0.1205  0.0444
27891W        W28755  16.187  27.491  24.823 -0.1366 -0.2219 -0.1605
27892W        W28756  15.643  27.853   0.994  0.2813 -0.1146  0.0807
27893W        W28757  15.569  24.996  26.367  0.1541 -0.1849  0.1585
27894W        W28758  15.480   0.170  27.371  0.1534  0.2227 -0.0128
27895W        W28759  18.705  28.055  28.802  0.0213 -0.1249  0.1872
27896W        W28760  17.018  27.553  27.944  0.1910 -0.3137 -0.0717
27897W        W28761  17.829  26.046  25.019  0.2071 -0.2235 -0.0054
27898W        W28762  16.061   0.462  28.105 -0.2167  0.2412  0.0734
27899W        W28763  20.434  27.719  24.547  0.2547 -0.3138 -0.0248
27900W        W28764  15.467  27.147   3.995  0.2490 -0.0516 -0.0803
27901W        W28765  13.562   1.517   1.002  0.5552  0.0422 -0.0557
27902W        W28766  17.169  26.186  28.861  0.1454 -0.1315  0.0118
27903W        W28767  19.215  27.509  26.491 -0.1623 -0.1336 -0.1821
27904W        W28768  16.738  29.068   1.591 -0.2261  0.2129  0.3905
27905W        W28769  17.897  23.977  25.550 -0.1582 -0.1892 -0.3850
27906W        W28770  18.453  27.568  25.370 -0.0402  0.0373  0.0676
27907W        W28771  15.868  28.171  26.308  0.0872  0.2364 -0.1204
27908W        W28772  13.819  28.297  28.878  0.3590  0.0308 -0.0570
27909W        W28773  17.124   1.113  27.705  0.1375 -0.1024  0.0013
27910W        W28774  17.887   0.936  25.399 -0.2477  0.1380  0.0398
27911W        W28775  16.753  24.998  27.204  0.2749  0.1564  0.0031
27912W        W28776  17.593  25.696   0.642  0.3473  0.1986  0.0522
27913W        W28777  16.356  26.491  28.532 -0.0637 -0.2692 -0.0404
27914W        W28778  16.705  28.377  27.486  0.2144  0.0443  0.0805
27915W        W28779  17.275  27.189  25.507 -0.1724  0.1724 -0.0519
27916W        W28780  16.817  25.099  26.362  0.0446 -0.2512 -0.0944
27917W        W28781  15.549  28.745  23.766 -0.2128  0.1150 -0.3432
27918W        W28782  16.958  27.901  27.582  0.1736 -0.1057 -0.0846
27919W        W28783  16.649  26.549   0.520 -0.0484 -0.0323  0.0587
27920W        W28784  14.944   0.665  28.614  0.1327 -0.0457 -0.1472
27921W        W28785  17.679  27.759  26.636  0.0097  0.0218 -0.1352
27922W        W28786  15.714  27.947  23.329 -0.0468 -0.2415 -0.1284
27923W        W28787  15.111  27.835  29.115 -0.1384 -0.3833 -0.3547
27924W        W28788  15.283  27.202  27.981  0.1704  0.1839 -0.0256
27925W        W28789  14.460  23.020  26.746  0.2445 -0.3136  0.5034
27926W        W28790  14.180  26.793  26.943  0.0322 -0.0761 -0.1428
27927W        W28791  15.485  27.590  27.148 -0.0715 -0.2238 -0.1512
27928W        W28792  18.426  28.873  27.982  0.1767  0.0502  0.0412
27929W        W28793  17.235   0.135  27.609  0.3263 -0.0213  0.2737
27930W        W28794  13.408  26.493  26.939  0.1002  0.3504 -0.0541
27931W        W28795  16.471  25.112  25.312 -0.1528 -0.1763 -0.2350
27932W        W28796  16.043   0.819  27.626  0.0586 -0.0569 -0.1658
27933W        W28797  15.972   2.262   0.262  0.3112  0.2602  0.1088
27934W        W28798  17.373   0.456   1.289 -0.0247 -0.2184  0.0008
27935W        W28799  15.378  27.259  26.577 -0.0693  0.2548  0.3254
27936W        W28800  14.999  25.555  25.124  0.0469  0.0613 -0.1809
27937W        W28801  20.784  28.944  25.148 -0.1140  0.1081 -0.2372
27938W        W28802  20.989  26.560  25.666  0.1355 -0.3136 -0.2843
27939W        W28803  19.152  24.463  28.949  0.3436 -0.0266 -0.1647
27940W        W28804  17.483  26.501  28.496  0.0292 -0.0813 -0.1781
27941W        W28805  15.146  26.142  25.013 -0.0655 -0.2651  0.0681
27942W        W28806  16.562  26.430  26.908 -0.1027  0.1838 -0.1517
27943W        W28807  17.141  27.545  25.796 -0.2677 -0.3552 -0.2791
27944W        W28808  17.274   0.970   0.227  0.1001  0.1737 -0.2041
27945W        W28809  18.315  28.296   0.313  0.1176 -0.2437 -0.3102
27946W        W28810  19.984  26.698  27.700  0.1971  0.2416  0.1238
27947W        W28811  16.823  27.084  26.342  0.0613  0.3233  0.1636
27948W        W28812  14.189  26.911  24.824  0.1029 -0.0148 -0.5102
27949W        W28813  19.253  26.172  26.664 -0.1667 -0.1388  0.0608
27950W        W28814  15.536  28.827   0.290  0.3882  0.0640  0.1446
27951W        W28815  19.529  27.970  25.420 -0.2617  0.3721 -0.1838
27952W        W28816  16.852  26.714  24.718  0.1294  0.0453 -0.0450
27953W        W28817  16.109  27.090   2.109  0.1872 -0.0692  0.3706
27954W        W28818  16.915  26.201  27.262  0.1083 -0.2815  0.0735
27955W        W28819  15.673   0.512  26.436  0.0376 -0.0023  0.1872
27956W        W28820  17.329   0.670  28.990 -0.0123  0.0782  0.0584
27957W        W28821  19.585  25.838  26.381  0.2041 -0.1425 -0.2906
27958W        W28822  14.530  26.586  28.303  0.1125  0.2043 -0.0382
27959W        W28823  14.457  27.367  27.868 -0.2100  0.1339 -0.0433
27960W        W28824  18.353  26.026  24.086 -0.2335  0.0296  0.1806
27961W        W28825  13.716   1.210   1.388 -0.0209  0.1698  0.0897
27962W        W28826  15.685  27.715  26.516 -0.1990  0.0083 -0.3211
27963W        W28827  19.662  25.784  23.679 -0.0447 -0.2810 -0.1981
27964W        W28828  17.795  26.009  26.703  0.1785 -0.2626 -0.3403
27965W        W28829  14.994   1.968   1.087  0.2202  0.0480  0.1078
27966W        W28830  16.200  27.155  23.725 -0.0875  0.1787 -0.0922
27967W        W28831  15.455  27.516  26.138  0.1867  0.0765  0.0386
27968W        W28832  18.821  28.201  26.077  0.0871 -0.0903 -0.1593
27969W        W28833  15.566  25.882   1.683  0.1839  0.2430  0.1512
27970W        W28834  20.109  26.698  27.034  0.0013  0.2559 -0.1121
27971W        W28835  17.774  29.081  25.900  0.0536 -0.0324 -0.1596
27972W        W28836  15.439  28.141  28.897  0.4027 -0.1800  0.0329
27973W        W28837  19.088  23.843  24.916  0.0732  0.0881  0.2732
27974W        W28838  14.736  25.663  28.459  0.0217  0.2282  0.3861
27975W        W28839  13.682  26.952  26.820  0.0448  0.0940 -0.0630
27976W        W28840  17.461   0.993  25.662  0.0315  0.2062  0.3099
27977W        W28841  16.742  27.651  26.827 -0.2115  0.4206  0.0580
27978W        W28842  15.552  26.217  26.852  0.0438  0.1995  0.0836
27979W        W28843  18.382  28.037  27.397  0.1641 -0.2037  0.1010
27980W        W28844  16.640  26.085  27.651  0.0039  0.0315 -0.1406
27981W        W28845  13.566  27.966   0.040  0.0626  0.0619  0.3454
27982W        W28846  14.335  26.280  27.061  0.2133  0.0056 -0.0163
27983W        W28847  14.790  24.746  27.558  0.1672 -0.1365 -0.2466
27984W        W28848  16.916   0.370   1.499 -0.2204  0.0152 -0.0849
27985W        W28849  20.605  27.379  27.075  0.0338  0.0190 -0.2045
27986W        W28850  16.454  26.990  25.982 -0.2626  0.0888  0.0908
27987W        W28851  18.232  27.552  27.991  0.1610 -0.2237  0.1276
27988W        W28852  17.363   0.809  28.135  0.4310 -0.0692  0.0182
27989W        W28853  15.480  24.068  26.269  0.1488 -0.4040  0.0349
27990W        W28854  15.711  27.351   0.734 -0.1978 -0.0151 -0.1448
27991W        W28855  16.589   1.866  27.396 -0.1413  0.0110  0.1419
27992W        W28856  18.500  27.810  24.502 -0.3105  0.4357 -0.2203
27993W        W28857  15.134   1.850  28.567 -0.1991  0.1180 -0.1974
27994W        W28858  16.360  26.383  27.414  0.3187 -0.0398  0.1410
27995W        W28859  17.948  27.853  27.537 -0.0962 -0.1351  0.0368
27996W        W28860  15.138   2.660  29.028  0.1799  0.3040 -0.1741
27997W        W28861  18.085  29.002   0.939  0.0243 -0.0673  0.1791
27998W        W28862  17.794  23.674  27.237  0.2767  0.3778 -0.0816
27999W        W28863  17.574  25.659  27.912 -0.0046 -0.2671 -0.2377
28000W        W28864  18.963   0.503  27.817 -0.0192 -0.0849 -0.0944
28001W        W28865  15.593  28.696  27.460  0.0939  0.3237  0.1139
28002W        W28866  16.917   1.050  26.433 -0.0895 -0.2575 -0.0117
28003W        W28867  19.556   0.251  25.301  0.0928 -0.1731  0.1456
28004W        W28868  13.401  28.601   2.260 -0.1162 -0.2787 -0.0027
28005W        W28869  15.593  26.311  26.284 -0.0492  0.0584 -0.1017
28006W        W28870  16.427  25.387  27.130 -0.2677 -0.1228  0.1547
28007W        W28871  14.972  27.426  28.338 -0.2413  0.2022 -0.1983
28008W        W28872  16.929  25.572  27.235 -0.1305  0.1385  0.0766
28009W        W28873  15.344  26.890  23.071  0.2159  0.1506  0.1322
28010W        W28874  16.454  24.674  26.993 -0.0051  0.0336 -0.1358
28011W        W28875  17.770  26.668  27.417  0.0032 -0.0841  0.1406
28012W        W28876  16.307  26.982  28.506 -0.0648 -0.1048  0.1599
28013W        W28877  17.427  27.462  26.960  0.2478  0.0086  0.0022
28014W        W28878  18.826  27.290  27.345  0.0803  0.1850 -0.1636
28015W        W28879  14.902   0.733  26.769  0.1450 -0.0032 -0.1263
28016W        W28880  19.557   0.566  25.909  0.1266 -0.1674 -0.1988
28017W        W28881  18.155  24.420  28.986 -0.1082 -0.1034 -0.1445
28018W        W28882  15.804  29.106  25.339 -0.0266 -0.2609 -0.0693
28019W        W28883  17.912   0.206  26.379 -0.0405 -0.2379 -0.0173
28020W        W28884  17.073  28.407  27.805  0.0012  0.1609 -0.1663
28021W        W28885  17.235  28.066  26.147  0.2465 -0.1309  0.1478
28022W        W28886  16.702   1.293  26.888  0.0616 -0.2425  0.0765
28023W        W28887  17.063  26.366   0.806 -0.3816  0.4142  0.1949
28024W        W28888  18.257  23.607  28.403  0.3065  0.0380 -0.0062
28025W        W28889  13.019  28.350  27.142  0.0983 -0.1708  0.0544
28026W        W28890  16.985  28.480  23.232  0.4135  0.1636  0.2047
28027W        W28891  16.561   0.025  27.465  0.1363  0.2767  0.1434
28028W        W28892  15.016  26.701  26.175  0.0504 -0.2440 -0.1014
28029W        W28893  16.866  26.414   0.079  0.0862 -0.1363 -0.0815
28030W        W28894  16.538  28.534  28.651  0.3693  0.1201  0.0068
28031W        W28895  16.798  24.854  25.941 -0.2396 -0.1092  0.2015
28032W        W28896  16.920  28.596  27.069 -0.2060 -0.2014 -0.0194
28033W        W28897  15.209  28.360  25.801  0.0003  0.0567 -0.0890
28034W        W28898  16.803   1.241  28.147 -0.1512  0.0601 -0.0836
28035W        W28899  15.538   2.067  26.248 -0.0969  0.1851 -0.1249
28036W        W28900  14.829  29.072  26.766 -0.1829 -0.2587 -0.2643
28037W        W28901  20.453  27.825  26.756  0.0068  0.1333 -0.2024
28038W        W28902  16.365   1.690  26.948  0.1275 -0.1170 -0.1606
28039W        W28903  16.040   0.958   0.944 -0.3614  0.1594  0.0029
28040W        W28904  13.765  26.055  28.312 -0.1184  0.1310  0.3833
28041W        W28905  16.231  26.526  25.851 -0.0351  0.0607  0.1917
28042W        W28906  14.156  27.509  25.794 -0.5851  0.2005 -0.0466
28043W        W28907  17.529  27.015   1.338 -0.0389 -0.0023 -0.2398
28044W        W28908  14.246   0.656   1.156  0.0023 -0.0139 -0.1380
28045W        W28909  16.484  28.666  27.869  0.2116 -0.2284 -0.2322
28046W        W28910  17.909  28.183  27.050 -0.1309  0.1419  0.3263
28047W        W28911  20.218   0.382  26.602 -0.0557 -0.2293 -0.1621
28048W        W28912  19.960   0.845  25.862  0.2016 -0.1173  0.1213
28049W        W28913  17.432   0.270  28.011 -0.2281  0.2741  0.1238
28050W        W28914  17.950  26.340  26.369 -0.0953 -0.0949  0.1416
28051W        W28915  18.693  28.502  25.657 -0.0861  0.1445  0.2892
28052W        W28916  15.789  24.912  27.561  0.0311  0.0845 -0.1741
28053W        W28917  17.413  27.999  27.712 -0.0239  0.0698 -0.1523
28054W        W28918  13.542  28.584  24.611 -0.1110  0.1318  0.1323
28055W        W28919  17.563   0.100  28.484  0.1154 -0.1783 -0.3459
28056W        W28920  18.893  26.571  24.695 -0.0172  0.0934  0.3000
28057W        W28921  16.832   0.107   0.552 -0.0916 -0.2514 -0.0109
28058W        W28922  15.797  27.266  27.856 -0.1540  0.0427  0.0713
28059W        W28923  17.898  28.481   1.165 -0.2206  0.3107 -0.1394
28060W        W28924  17.222  26.695  26.184 -0.1392  0.0745  0.3289
28061W        W28925  16.082  24.612   1.597 -0.0843 -0.2334  0.1409
28062W        W28926  18.268   0.366  27.302 -0.0754  0.0131 -0.0519
28063W        W28927  15.770  26.999  25.691 -0.0416 -0.0065  0.0968
28064W        W28928  15.193  27.786  26.734  0.1048 -0.2460 -0.0458
28065W        W28929  16.680  28.627   1.349 -0.1891 -0.2929  0.1918
28066W        W28930  16.412   1.142  26.453  0.2488  0.0381  0.1709
28067W        W28931  18.274  28.155   1.304 -0.0605  0.1347 -0.1302
28068W        W28932  16.681  27.515  23.969 -0.0669  0.3882  0.2217
28069W        W28933  14.564   0.355  29.120 -0.0264  0.1484  0.2690
28070W        W28934  17.371   0.798  25.227  0.0496 -0.2212  0.0064
28071W        W28935  18.112  29.059  27.529 -0.0460  0.1582  0.0695
28072W        W28936  15.853  28.220   1.835 -0.0411 -0.1144 -0.0842
28073W        W28937  16.511  28.267  27.029 -0.1942  0.0017 -0.3664
28074W        W28938  16.874   0.202  27.903 -0.1270 -0.2392 -0.0279
28075W        W28939  17.650   2.342  28.405  0.2147  0.0708  0.1880
28076W        W28940  15.340   0.771  27.133 -0.2997  0.2129 -0.2492
28077W        W28941  16.939  27.135   1.623  0.0719  0.2120  0.0334
28078W        W28942  15.765  27.313  23.933  0.2421  0.2415 -0.1264
28079W        W28943  16.734  27.835  28.427 -0.0013  0.2425  0.1434
28080W        W28944  17.299  27.218  26.140  0.2236  0.3305 -0.0899
28081W        W28945  16.417  23.803  27.618 -0.0442 -0.3075  0.3881
28082W        W28946  18.887   5.709   2.301 -0.1481  0.0645  0.0803
28083W        W28947  21.278   1.418   2.334 -0.0364  0.2259  0.0322
28084W        W28948  22.631   0.039   2.077  0.1068 -0.1841 -0.0511
28085W        W28949  20.445   4.063   2.871 -0.1031 -0.0002  0.0422
28086W        W28950  16.886   2.674  27.470  0.3146 -0.0073  0.1135
28087W        W28951  18.652   0.697   1.903  0.0827  0.0077 -0.1673
28088W        W28952  19.102   2.237   2.722 -0.3847 -0.0494 -0.0314
28089W        W28953  22.994  29.114  29.025 -0.1912  0.0585 -0.1542
28090W        W28954  20.878   4.748   1.102  0.1913  0.0693 -0.3407
28091W        W28955  20.319   2.189   3.017  0.1707 -0.0499 -0.1407
28092W        W28956  19.481  28.844   0.772  0.2111  0.0044 -0.1875
28093W        W28957  19.903   1.205  28.724 -0.1357 -0.0178  0.0122
28094W        W28958  23.012   2.146  28.519 -0.0261 -0.0436 -0.1242
28095W        W28959  18.633   0.606   3.131  0.0754 -0.1527 -0.2074
28096W        W28960  17.302   0.643   3.320  0.0628 -0.1087  0.2097
28097W        W28961  21.851   2.284   0.092 -0.0429 -0.1500  0.3234
28098W        W28962  20.107   2.571  26.869  0.0692  0.1130 -0.1012
28099W        W28963  18.849  28.963   2.164  0.2751  0.0144 -0.2843
28100W        W28964  19.524  28.120   2.754 -0.1273 -0.0813  0.1249
28101W        W28965  23.568  27.198  28.344 -0.0927  0.0210 -0.0801
28102W        W28966  21.402   2.586   1.571  0.3077  0.1531 -0.1211
28103W        W28967  21.941   1.944   2.169  0.3468 -0.0694 -0.3767
28104W        W28968  20.400   5.624   2.084  0.0217 -0.0431  0.1058
28105W        W28969  18.293   2.019   4.510  0.0436 -0.1297  0.0567
28106W        W28970  16.858   2.482   1.485 -0.1219 -0.4148  0.0202
28107W        W28971  20.044   4.343   1.578 -0.1512  0.1865  0.4797
28108W        W28972  22.273   2.347   1.019  0.1188  0.1325 -0.1398
28109W        W28973  19.067   1.312   3.514  0.0180  0.0427 -0.2750
28110W        W28974  20.775   5.060   1.502 -0.0368 -0.2363 -0.1819
28111W        W28975  18.059   3.174   2.847  0.1630  0.0105  0.0576
28112W        W28976  20.824   3.846   0.570 -0.1865  0.0138  0.1720
28113W        W28977  18.688   4.975   1.743 -0.0214  0.0333  0.2245
28114W        W28978  17.375   2.110   4.501 -0.0454 -0.1952  0.0740
28115W        W28979  20.580   4.293   2.393  0.0801  0.0552 -0.0395
28116W        W28980  19.437  28.698   6.098 -0.5044  0.1283 -0.0498
28117W        W28981  19.560   1.707   4.079 -0.0651 -0.4811  0.0435
28118W        W28982  17.533   3.386   0.861  0.0004  0.1627  0.2410
28119W        W28983  19.329   1.099   2.442  0.1030  0.0443 -0.2181
28120W        W28984  23.606   0.794   4.934  0.2540 -0.0235  0.2559
28121W        W28985  22.834   1.655  27.404 -0.5064 -0.0050 -0.0613
28122W        W28986  20.760   1.423  27.609 -0.0936  0.2005  0.1727
28123W        W28987  20.279   0.796   2.268 -0.1269  0.2544 -0.4737
28124W        W28988  18.764   4.565   1.425 -0.1817  0.0597  0.2823
28125W        W28989  23.191   2.769  27.895 -0.0102 -0.0028 -0.2201
28126W        W28990  17.640   5.234  28.853  0.0666  0.0861 -0.0589
28127W        W28991  19.357   4.955   2.194 -0.1227  0.1258 -0.0408
28128W        W28992  16.671  27.017   1.178 -0.0633  0.0668  0.0991
28129W        W28993  21.798   2.847   1.876 -0.0856  0.1054  0.1394
28130W        W28994  20.516   0.044  28.411 -0.1076 -0.0997 -0.2597
28131W        W28995  22.661   0.646  27.098  0.3043  0.0762  0.1584
28132W        W28996  21.537   1.748   1.843 -0.2024  0.4947  0.2259
28133W        W28997  17.862   3.689  28.710 -0.2127  0.0521  0.0515
28134W        W28998  21.796   5.351   2.258  0.2565 -0.0173  0.1967
28135W        W28999  22.446   3.248  27.826  0.1637 -0.1187 -0.1640
28136W        W29000  17.913   0.262   0.670  0.0492 -0.0646 -0.0983
28137W        W29001  18.121   4.002   0.428 -0.0480  0.0853 -0.4109
28138W        W29002  18.910  28.352   1.970  0.0381 -0.1017 -0.3271
28139W        W29003  22.127   1.971  28.319  0.2814 -0.2335 -0.0732
28140W        W29004  18.792   3.533   1.381 -0.1349 -0.1802 -0.1545
28141W        W29005  19.937   4.386   0.163  0.1049 -0.0921  0.1060
28142W        W29006  20.295   2.884   0.381 -0.0269 -0.1482 -0.0373
28143W        W29007  17.449   2.785   3.626  0.2322 -0.2379  0.3602
28144W        W29008  20.031   2.604   1.859  0.2514  0.0468 -0.0172
28145W        W29009  17.990   3.523   1.869 -0.0117 -0.0220 -0.1506
28146W        W29010  19.330   0.701   2.068  0.1625 -0.1587 -0.2389
28147W        W29011  21.752  29.040   3.714 -0.1834 -0.0935  0.1149
28148W        W29012  18.234   2.214   1.128  0.0246 -0.0100 -0.3398
28149W        W29013  17.022   1.974  27.454  0.1286 -0.1516 -0.1236
28150W        W29014  19.786   2.937   0.388 -0.1705 -0.0689  0.0499
28151W        W29015  19.355   2.063  27.236 -0.0504  0.0260 -0.1576
28152W        W29016  21.026   2.283   1.312  0.0815 -0.0376 -0.2398
28153W        W29017  20.254   0.535   1.179 -0.1288 -0.2085  0.1980
28154W        W29018  25.157   1.416   0.161  0.0370 -0.1004 -0.1294
28155W        W29019  20.193   3.083   0.878  0.1840  0.3464  0.0490
28156W        W29020  19.980   5.269  28.218 -0.0533  0.0172 -0.0311
28157W        W29021  23.769   2.285   1.657  0.0720  0.2276  0.0344
28158W        W29022  19.835   0.718   0.517 -0.4333  0.2136  0.1955
28159W        W29023  21.184   1.042   0.441 -0.0594  0.0113  0.0474
28160W        W29024  20.387   2.076   0.311  0.0958  0.1200  0.0155
28161W        W29025  18.324   0.713  25.629 -0.3123 -0.0839 -0.4439
28162W        W29026  20.298   3.494   3.556 -0.0720 -0.0031  0.1848
28163W        W29027  15.880   1.250   4.403 -0.2603  0.0636 -0.1573
28164W        W29028  18.459   1.245   1.457 -0.0795  0.0723  0.3717
28165W        W29029  23.494   1.680   3.268 -0.0403 -0.0648  0.0851
28166W        W29030  19.461   1.924   2.787 -0.3701  0.1319  0.1516
28167W        W29031  21.070  28.272   0.218  0.2271 -0.1818 -0.0610
28168W        W29032  21.775   3.258   3.446 -0.2429 -0.0373  0.1362
28169W        W29033  21.048   1.684   3.142  0.5118 -0.2127  0.0300
28170W        W29034  21.163   2.839   2.725 -0.1906 -0.4490  0.1783
28171W        W29035  19.429   4.445   2.308  0.1080  0.1722  0.2531
28172W        W29036  20.255  29.025   1.156  0.0744  0.1977 -0.0149
28173W        W29037  20.879   2.201   6.921  0.1133 -0.2861 -0.0568
28174W        W29038  19.635   4.062   1.457 -0.0428  0.1912  0.1506
28175W        W29039  18.097   2.310   2.417  0.1264  0.0199  0.1974
28176W        W29040  19.398  28.853   2.155  0.0415  0.0094 -0.0177
28177W        W29041  21.118  29.030  27.725  0.1226  0.0269  0.0992
28178W        W29042  21.696  28.968  28.895 -0.2265  0.0595  0.1536
28179W        W29043  19.865   3.107   2.794  0.0205  0.3470 -0.0218
28180W        W29044  19.742  26.914   1.877  0.2173  0.3186  0.1794
28181W        W29045  21.053  27.840   1.517  0.2577  0.2305  0.0359
28182W        W29046  22.110   1.363   0.706 -0.0979 -0.0806 -0.0087
28183W        W29047  14.353   5.134  28.458 -0.4006 -0.1396  0.1441
28184W        W29048  19.516   1.649  25.602  0.2275  0.0425  0.0952
28185W        W29049  25.820   2.990  28.767  0.0752  0.1836  0.0539
28186W        W29050  21.992   0.882   2.356  0.1009 -0.0319 -0.0839
28187W        W29051  20.712   1.750   0.593  0.2256 -0.0645  0.1934
28188W        W29052  19.644   2.966   1.067  0.1217 -0.0029  0.3352
28189W        W29053  21.408   2.062   2.256 -0.0401  0.0539  0.0364
28190W        W29054  19.771   0.048   1.032 -0.0184  0.0303 -0.2283
28191W        W29055  18.581   2.120   1.510 -0.1022  0.1627  0.0536
28192W        W29056  20.668   4.003  28.577 -0.2496 -0.1399 -0.0152
28193W        W29057  18.480   2.997   1.651  0.0559 -0.0428  0.0497
28194W        W29058  22.908  28.127  28.650 -0.0044  0.1160 -0.0721
28195W        W29059  20.254   7.510   2.081 -0.0158 -0.1478 -0.1262
28196W        W29060  21.815   2.505  27.479  0.0268 -0.3418 -0.0548
28197W        W29061  18.838   0.295   1.223 -0.0020  0.0414  0.2525
28198W        W29062  20.662   0.256   0.933 -0.1978  0.0691  0.0483
28199W        W29063  18.534   1.739   1.238 -0.0008 -0.0629  0.0289
28200W        W29064  22.037   1.243  27.632 -0.2494 -0.0556 -0.5431
28201W        W29065  22.710   1.755   0.282  0.1027  0.1126  0.3834
28202W        W29066  23.551   2.614  28.219  0.3707 -0.0427  0.0491
28203W        W29067  22.403  28.429   1.405 -0.1581  0.0536 -0.0001
28204W        W29068  19.867   1.283   1.431 -0.0185  0.2427  0.0787
28205W        W29069  19.055   1.855   1.245 -0.0029 -0.2476 -0.0226
28206W        W29070  20.901   2.203   0.812 -0.2561 -0.1370  0.0359
28207W        W29071  22.180  28.789   1.598  0.1923 -0.1871  0.1261
28208W        W29072  17.108   1.011   3.023  0.1341 -0.0758  0.0386
28209W        W29073  20.500   1.679   3.002  0.1503  0.0506  0.1906
28210W        W29074  22.822   2.221   1.090  0.0627  0.0323  0.2305
28211W        W29075  22.106   3.318   1.774  0.1779 -0.0302 -0.0437
28212W        W29076  20.953   3.474   0.157  0.0013  0.1931 -0.1886
28213W        W29077  20.425  28.783   0.670  0.0706 -0.4433  0.2266
28214W        W29078  19.942   2.445   0.429  0.0788 -0.2572 -0.0964
28215W        W29079  20.768   0.576   1.263  0.1177  0.2761 -0.1670
28216W        W29080  21.205   0.124   2.670  0.1428 -0.1661  0.1078
28217W        W29081  18.603   1.779   3.678  0.0329  0.0062  0.3612
28218W        W29082  19.746   2.544  29.106  0.2465  0.0260 -0.1108
28219W        W29083  22.103   1.941   3.420 -0.0255  0.0294  0.0730
28220W        W29084  18.843   3.819  28.491 -0.1112 -0.2078 -0.0530
28221W        W29085  21.124   5.229  28.839  0.2877  0.1162  0.0527
28222W        W29086  17.908   3.567   0.133  0.0537 -0.2562  0.0186
28223W        W29087  20.586   2.803   0.848  0.0753  0.0474  0.0752
28224W        W29088  19.073   3.193  27.769  0.0471 -0.0030  0.1540
28225W        W29089  18.543   1.075  28.935 -0.2002  0.0405 -0.1336
28226W        W29090  20.846   2.979   3.079  0.0954  0.0929 -0.3254
28227W        W29091  18.357  29.016  28.933 -0.0086  0.0501 -0.1269
28228W        W29092  20.803  28.901   1.032  0.1300  0.2571 -0.0030
28229W        W29093  21.659   3.326   2.226  0.2625 -0.3154  0.0033
28230W        W29094  18.816   2.793   0.317 -0.0367  0.1169  0.1914
28231W        W29095  19.487   3.225   1.569 -0.1689  0.0674 -0.1107
28232W        W29096  22.079   0.965   3.353  0.1177  0.2228 -0.0607
28233W        W29097  18.777   1.655   0.783 -0.0008  0.3904  0.2757
28234W        W29098  20.136   1.743   0.658 -0.1510  0.0208 -0.2166
28235W        W29099  19.070   1.605  28.710 -0.1896  0.0577 -0.0065
28236W        W29100  20.720   1.121   3.123 -0.1269 -0.1632  0.1450
28237W        W29101  21.389  28.798   2.672 -0.0987  0.1144 -0.2526
28238W        W29102  18.043   1.160   3.693  0.2163  0.3738  0.1238
28239W        W29103  21.191   1.516   0.607  0.2753 -0.1150 -0.0592
28240W        W29104  22.148  28.587   0.985  0.0030  0.1750  0.4535
28241W        W29105  19.967   0.923   0.978  0.1365 -0.2524  0.2312
28242W        W29106  19.724   0.348   2.948  0.1769  0.0826 -0.0511
28243W        W29107  21.768   2.461   3.894 -0.0709 -0.3065  0.0389
28244W        W29108  20.731   4.803   1.904 -0.3086 -0.0366 -0.2596
28245W        W29109  19.575   1.806   0.580  0.2363  0.0863 -0.0801
28246W        W29110  19.946   2.018   2.678 -0.0846  0.4035 -0.0637
28247W        W29111  19.110   2.065   2.268 -0.2107 -0.0615  0.2567
28248W        W29112  16.440   0.548   2.260  0.2880  0.1770 -0.0731
28249W        W29113  18.903   4.590   1.986 -0.1826 -0.0671  0.0937
28250W        W29114  21.595   3.626   2.717 -0.0666 -0.0197 -0.4130
28251W        W29115  17.829   1.982   0.966 -0.0320 -0.1482 -0.4279
28252W        W29116  19.539   2.446   0.668 -0.0781 -0.0852  0.1278
28253W        W29117  21.837   1.692   0.002 -0.0168 -0.0840  0.0788
28254W        W29118  23.075   0.437   0.712  0.0764  0.0946  0.0016
28255W        W29119  21.264   2.401  28.119  0.1317  0.0190  0.1561
28256W        W29120  19.190   0.019   2.548  0.0781  0.1934 -0.1938
28257W        W29121  23.082  28.629   1.404  0.2025  0.1565 -0.1678
28258W        W29122  18.783   4.477   3.482 -0.2360 -0.0111 -0.2097
28259W        W29123  20.010   1.782   1.343 -0.3098 -0.2525  0.0871
28260W        W29124  17.738   2.754   1.523 -0.0530 -0.1155 -0.0014
28261W        W29125  20.009   0.760   1.548 -0.0643  0.0097 -0.0526
28262W        W29126  19.138   3.203   0.192  0.0763 -0.1375 -0.1128
28263W        W29127  21.140   0.055   0.731 -0.2396  0.1944 -0.0774
28264W        W29128  20.904   3.179   1.074  0.0164 -0.0375 -0.1844
28265W        W29129  21.550   0.691   0.678  0.0222  0.0591  0.0631
28266W        W29130  19.032   0.733  28.309  0.0167  0.0165 -0.0037
28267W        W29131  21.119   2.223   1.795 -0.0535  0.1552 -0.0598
28268W        W29132  20.959   0.593   0.264  0.1364  0.1247  0.1492
28269W        W29133  16.248   3.129  28.005  0.1147 -0.1557  0.0937
28270W        W29134  19.359   2.425   1.899  0.0962  0.1996 -0.0434
28271W        W29135  18.057   2.309  28.792  0.0940  0.0175  0.2387
28272W        W29136  19.027   0.462  27.145 -0.0375  0.2571  0.2963
28273W        W29137  18.461   2.893   2.504 -0.1318  0.1678  0.3041
28274W        W29138  18.350   3.850   2.095 -0.1180 -0.0531 -0.1361
28275W        W29139  19.565   0.161   0.486  0.3994  0.1166 -0.1669
28276W        W29140  20.507   1.251   2.328  0.3057 -0.4953 -0.0558
28277W        W29141  19.785  27.428   0.491  0.1090 -0.1990 -0.2004
28278W        W29142  19.290  28.018  27.374  0.1178 -0.3335  0.0220
28279W        W29143  17.606   1.030   3.293 -0.1373 -0.0665 -0.2405
28280W        W29144  18.094   1.805   0.397 -0.0597  0.1780 -0.0496
28281W        W29145  24.566   0.071   3.920 -0.0160  0.1892  0.0758
28282W        W29146  20.991   3.011   0.603  0.1648 -0.3453  0.1050
28283W        W29147  20.974   0.122   1.352 -0.0495 -0.0043  0.3688
28284W        W29148  21.894   0.518   0.372  0.1114 -0.1294 -0.2377
28285W        W29149  18.155   0.445   1.860  0.2558 -0.1911 -0.3683
28286W        W29150  19.767   2.164   1.684 -0.0651 -0.1428  0.1473
28287W        W29151  19.179   2.642   1.072 -0.2513  0.2800 -0.0659
28288W        W29152  19.407   2.790   4.763 -0.2357  0.1760  0.1843
28289W        W29153  20.078   0.089  28.681 -0.3588 -0.0477  0.4188
28290W        W29154  20.433   2.337   0.727 -0.0690 -0.1050 -0.0796
28291W        W29155  17.138   3.013  27.974 -0.2815 -0.1051  0.5115
28292W        W29156  19.696   1.451  27.966 -0.0900  0.1535 -0.0048
28293W        W29157  18.952   3.775   5.454 -0.1189 -0.0171 -0.0690
28294W        W29158  18.921   2.351   6.462  0.1064  0.0215  0.2715
28295W        W29159  20.974  28.064   1.089 -0.0230  0.0858 -0.1431
28296W        W29160  22.673   2.153   2.340  0.3460  0.0618  0.2694
28297W        W29161  21.950   3.024  28.594 -0.0678  0.2154 -0.4939
28298W        W29162  20.203   3.308  28.109 -0.1559  0.3492 -0.0485
28299W        W29163  22.316   2.477   0.486  0.0568 -0.3084 -0.3076
28300W        W29164  20.355   1.764   3.493  0.0714  0.1063 -0.0991
28301W        W29165  18.246   3.307   2.277 -0.0725  0.0337  0.0685
28302W        W29166  19.051   1.043   3.934 -0.0207  0.3280 -0.0684
28303W        W29167  21.410   0.149  28.156 -0.1381  0.0660  0.2780
28304W        W29168  20.987   3.677   4.115  0.2809 -0.0361 -0.2602
28305W        W29169  20.147   0.364   0.741 -0.1713  0.1168 -0.0489
28306W        W29170  20.049   2.610   0.921  0.1427  0.1766  0.2426
28307W        W29171  17.134  28.427   1.587  0.3088  0.2340  0.0779
28308W        W29172  19.503   3.317  29.001 -0.0618  0.3222 -0.0223
28309W        W29173  21.381   2.404   2.679 -0.0878 -0.3745 -0.0178
28310W        W29174  19.970   1.657  28.928  0.0859  0.1377  0.1278
28311W        W29175  21.785   2.064   2.651  0.0409 -0.1350  0.3073
28312W        W29176  21.049   1.881  28.795  0.2296  0.1320 -0.0776
28313W        W29177  20.726   1.247   0.633 -0.2606  0.0197  0.2813
28314W        W29178  18.561   0.051   0.451  0.0110 -0.1953  0.3724
28315W        W29179  24.264   3.694   1.655 -0.1118 -0.1819  0.2293
28316W        W29180  18.781   2.542   4.244 -0.0124  0.0953 -0.1472
28317W        W29181  21.390   1.321   0.095 -0.0587  0.1169 -0.3251
28318W        W29182  23.061   0.616  28.698  0.0165  0.0337 -0.0228
28319W        W29183  19.477   1.121   1.095  0.3383  0.0459 -0.0924
28320W        W29184  21.812   2.179   0.744  0.0070 -0.1072  0.0449
28321W        W29185  21.187   3.513   0.797 -0.2681 -0.0603  0.0113
28322W        W29186  19.255   3.327   0.769  0.2423 -0.1959  0.1288
28323W        W29187  19.383   3.347   2.758 -0.0289 -0.0594  0.3183
28324W        W29188  16.492   0.092   4.153  0.0227  0.0886  0.0529
28325W        W29189  17.786   1.091   0.838  0.0181 -0.0827  0.0562
28326W        W29190  24.218  29.124  29.025 -0.1186  0.1886 -0.2335
28327W        W29191  19.755   3.158  28.470 -0.1522  0.1207  0.3075
28328W        W29192  20.594   3.747   4.493 -0.3853  0.2109  0.0753
28329W        W29193  15.850   1.468   0.267 -0.1193 -0.2085 -0.1155
28330W        W29194  21.146  29.118   0.076  0.1035 -0.0401  0.0061
28331W        W29195  19.926   1.888   0.221  0.0996 -0.1158 -0.2490
28332W        W29196  20.685   3.452   3.215  0.1191  0.2518 -0.2475
28333W        W29197  21.493   4.408   1.664  0.1451 -0.2607 -0.0972
28334W        W29198  19.651   5.075   3.337 -0.3100 -0.1019 -0.0058
28335W        W29199  19.491   3.404   4.736  0.0544 -0.1475 -0.0474
28336W        W29200  19.066   3.223   2.387 -0.0329  0.2659  0.1091
28337W        W29201  21.710   1.616   2.471  0.2202 -0.4361  0.2127
28338W        W29202  22.376   0.879  28.204  0.0379 -0.2922  0.1049
28339W        W29203  16.188  25.951   2.790 -0.0465  0.4018 -0.1048
28340W        W29204  24.132   2.956   2.347 -0.0176  0.0487  0.2022
28341W        W29205  23.187   1.312  27.728  0.0516  0.0567 -0.3281
28342W        W29206  19.341  29.080  27.398  0.1092 -0.0287 -0.1864
28343W        W29207  19.119  28.505   0.441 -0.4506 -0.4133  0.1205
28344W        W29208  23.711   2.774   2.532  0.3356  0.0006  0.1532
28345W        W29209  18.174  28.065   5.006 -0.1671 -0.2503  0.1274
28346W        W29210  19.968   2.601  28.577 -0.0943 -0.2301 -0.0381
28347W        W29211  18.468   3.440   0.914 -0.1309 -0.1415  0.1058
28348W        W29212  17.261   4.660  28.870  0.2312 -0.4734 -0.2428
28349W        W29213  22.637   0.795   2.425 -0.0615  0.0143 -0.0359
28350W        W29214  17.678   1.978   4.860 -0.0790 -0.1440 -0.0645
28351W        W29215  20.300   1.385   0.957 -0.2721 -0.2003 -0.3435
28352W        W29216  17.756   2.034   2.783  0.2772 -0.0224 -0.0929
28353W        W29217  19.727   5.547   3.484 -0.1265 -0.2155 -0.0260
28354W        W29218  22.125   2.071   1.515  0.3092 -0.1230 -0.2117
28355W        W29219  18.097   2.226   3.130 -0.2461  0.0155  0.0401
28356W        W29220  18.504   5.984   1.723 -0.1621  0.0038  0.0545
28357W        W29221  18.514   0.112   1.765 -0.0305 -0.2463 -0.0806
28358W        W29222  16.904   0.101   4.455  0.1338  0.1160 -0.0875
28359W        W29223  19.043   1.942   0.462  0.1985 -0.2893 -0.3490
28360W        W29224  20.427   0.083  29.108  0.0948  0.2423  0.0784
28361W        W29225  18.340   4.343   1.331 -0.2208 -0.0017  0.0237
28362W        W29226  20.684   2.629   0.237 -0.1350 -0.0613 -0.1117
28363W        W29227  22.653  26.945  28.693  0.1581 -0.2464  0.1073
28364W        W29228  15.406   2.426   0.313  0.0798 -0.2404  0.1781
28365W        W29229  18.114   2.664   2.817  0.0754 -0.3776  0.0199
28366W        W29230  21.802  28.408  28.951 -0.0541  0.1012  0.1278
28367W        W29231  19.948   2.662   3.207  0.0045  0.0716 -0.1533
28368W        W29232  22.693   4.570   4.684  0.2654  0.0001  0.0441
28369W        W29233  16.347   0.767   3.690 -0.3071 -0.0285  0.0536
28370W        W29234  22.680   0.325   1.550  0.0731 -0.1192  0.1330
28371W        W29235  21.106   1.804  27.437  0.1868 -0.0357  0.2649
28372W        W29236  15.585   1.073  28.053  0.1814  0.1372  0.0502
28373W        W29237  21.077   0.950   1.563  0.2525 -0.0665  0.2248
28374W        W29238  22.538   1.096   0.377  0.4101 -0.1877 -0.0549
28375W        W29239  17.979   0.189   3.772  0.1768  0.0766  0.0367
28376W        W29240  20.226   3.622   0.722  0.0225  0.0914  0.0628
28377W        W29241  20.973   1.035  28.435  0.1078  0.2394  0.2347
28378W        W29242  19.642   1.006   1.859 -0.0663  0.1103  0.0785
28379W        W29243  22.165  28.217   0.056 -0.1140  0.0136  0.0151
28380W        W29244  20.554   0.245   2.117  0.3277  0.0325 -0.0109
28381W        W29245  16.216   1.785   0.208 -0.2233 -0.2037 -0.3285
28382W        W29246  15.962   2.884   2.277 -0.0571 -0.1712 -0.1553
28383W        W29247  20.766   1.576   4.707 -0.0543 -0.2353  0.1354
28384W        W29248  22.382   3.647   2.700 -0.3941  0.3083 -0.0028
28385W        W29249  20.969   2.808   1.518 -0.0896  0.0354 -0.0112
28386W        W29250  22.948   1.068  28.708  0.0170 -0.1955  0.1553
28387W        W29251  17.405   1.338   1.002  0.1083  0.0557  0.1081
28388W        W29252  20.855   2.003   2.815 -0.1389  0.0756  0.2433
28389W        W29253  18.776   0.782   2.388  0.1691 -0.2339 -0.0468
28390W        W29254  19.990  27.727  28.660 -0.0724 -0.5449 -0.0418
28391W        W29255  19.362   3.671   2.390  0.0246  0.0497 -0.0797
28392W        W29256  22.379   2.115   0.059 -0.1886  0.0353 -0.1157
28393W        W29257  20.039   3.132   3.325  0.1119 -0.0711  0.0012
28394W        W29258  19.525   1.918  27.937  0.1316 -0.1511 -0.1173
28395W        W29259  21.376   0.599   2.526 -0.0554 -0.2229 -0.2413
28396W        W29260  19.089   4.060   2.180 -0.1733  0.0422  0.2310
28397W        W29261  21.281   4.365   3.820 -0.1482  0.1024  0.1212
28398W        W29262  18.459   1.185  27.634  0.0517 -0.0362  0.0780
28399W        W29263  18.977   3.168   2.931 -0.0662  0.0957  0.0040
28400W        W29264  22.376   0.266   3.777  0.0716  0.0677  0.1401
28401W        W29265  18.957   2.448   0.630 -0.0433  0.1010 -0.0064
28402W        W29266  19.505   4.005   3.488  0.0995 -0.2007 -0.5040
28403W        W29267  20.838   2.104  28.372  0.2362 -0.0055 -0.1604
28404W        W29268  22.823   2.348   2.762  0.0197 -0.1839 -0.0670
28405W        W29269  20.435   2.609   3.292 -0.2275 -0.0744 -0.1227
28406W        W29270  18.936   1.284  29.109 -0.0960 -0.2793  0.1377
28407W        W29271  18.264   3.454   3.214 -0.2679 -0.1479 -0.2103
28408W        W29272  19.830  28.477  28.896  0.0361 -0.0048  0.0875
28409W        W29273  17.688   1.043  27.807 -0.0896 -0.1444  0.0204
28410W        W29274  22.479   1.237  28.539  0.5149 -0.0393 -0.1554
28411W        W29275  20.014   3.884   4.175 -0.1158  0.3703 -0.0820
28412W        W29276  21.166  28.477   1.328  0.0579 -0.1778 -0.1248
28413W        W29277  24.354   0.075  28.567  0.4401 -0.0305  0.0130
28414W        W29278  20.605   1.553   1.929 -0.1211 -0.0440  0.1508
28415W        W29279  19.833   2.176   3.129  0.0640  0.2202  0.0805
28416W        W29280  23.477   1.765   3.801  0.0903  0.1388  0.0397
28417W        W29281  21.737   3.039   4.952 -0.0016 -0.0503 -0.2736
28418W        W29282  19.358   5.524   1.655  0.5340 -0.0336  0.0883
28419W        W29283  21.886   0.627   1.585 -0.2086 -0.2619 -0.0362
28420W        W29284  22.386   0.730   1.282  0.3870  0.1418 -0.1148
28421W        W29285  18.855   1.556   1.598  0.3387  0.4282  0.1603
28422W        W29286  18.510   2.967   2.962  0.3121 -0.0110  0.2980
28423W        W29287  21.338   1.043   0.935 -0.1536  0.2286  0.4502
28424W        W29288  19.592   1.168   0.566  0.2225  0.0442  0.2199
28425W        W29289  18.167   3.015   0.641 -0.1917 -0.0093 -0.0067
28426W        W29290  19.681   3.268   2.350  0.2443  0.0455  0.1374
28427W        W29291  18.708   4.193   0.962  0.0448 -0.0134 -0.0028
28428W        W29292  20.351   2.977   1.913 -0.2281  0.1752 -0.0306
28429W        W29293  17.858   0.084   5.353  0.0200  0.0317  0.1676
28430W        W29294  20.403   4.354   0.332 -0.2730  0.0210 -0.1382
28431W        W29295  16.070   0.417  28.609  0.1360 -0.2981  0.0001
28432W        W29296  21.276   0.693   3.727 -0.0014  0.1953 -0.1616
28433W        W29297  22.174   2.314  27.936 -0.0280  0.1350  0.3612
28434W        W29298  22.185   4.731   2.890 -0.4964 -0.0217  0.2567
28435W        W29299  21.048   2.676   1.002  0.2360 -0.0874  0.0615
28436W        W29300  18.922   3.717   0.965 -0.0401  0.2913  0.1495
28437W        W29301  20.566  28.296   0.225  0.1295 -0.1110 -0.0141
28438W        W29302  19.756   1.394   0.190 -0.1838 -0.1548  0.2015
28439W        W29303  18.554   1.152   0.889 -0.2053  0.1596 -0.0335
28440W        W29304  19.113   2.323   1.472  0.2125 -0.0764 -0.5246
28441W        W29305  18.810   2.084  28.800 -0.0610  0.2380  0.1716
28442W        W29306  15.872   0.958   0.289 -0.0519  0.3613  0.2261
28443W        W29307  19.914  29.092   3.561 -0.0711 -0.3750 -0.0836
28444W        W29308  18.722   3.984   1.562  0.2203  0.0148  0.1195
28445W        W29309  22.514   0.757  28.743  0.0938 -0.3433  0.0335
28446W        W29310  21.952   0.670  28.950 -0.1000  0.0460 -0.4993
28447W        W29311  21.739   0.609   3.447  0.2098  0.3551  0.1234
28448W        W29312  19.159   1.950   1.781  0.0151 -0.0684  0.1621
28449W        W29313  21.087   0.479   1.791 -0.0892  0.0835 -0.1078
28450W        W29314  19.191  27.102   2.084  0.1381  0.4154  0.3535
28451W        W29315  20.782   0.224   4.584  0.2232  0.1559  0.0152
28452W        W29316  21.189   3.890  29.144  0.0559  0.2215 -0.1213
28453W        W29317  21.053  27.474  28.851 -0.0029  0.0130  0.4180
28454W        W29318  22.776   1.332  29.118 -0.0253  0.2405  0.0874
28455W        W29319  20.962   3.853   3.010 -0.1619  0.1992  0.1705
28456W        W29320  19.486   2.830  28.707  0.0490 -0.1607 -0.2779
28457W        W29321  17.068  28.881   3.517 -0.0081  0.0774  0.1131
28458W        W29322  21.963   2.554   1.492  0.1292 -0.0373  0.0689
28459W        W29323  22.804   2.855   2.914 -0.2455 -0.0399 -0.1819
28460W        W29324  18.754   0.481   4.805 -0.0325  0.0478 -0.1107
28461W        W29325  20.047   3.185   3.817  0.1408 -0.2093 -0.0094
28462W        W29326  21.084   3.335   2.866  0.2208 -0.0591  0.1006
28463W        W29327  19.076   3.353   1.888 -0.0511 -0.0379 -0.0163
28464W        W29328  19.541   1.310   3.778 -0.0466 -0.6003  0.0350
28465W        W29329  21.316   2.604   2.056 -0.0177  0.0027  0.0996
28466W        W29330  20.581   3.073   3.520  0.0450  0.0628 -0.0230
28467W        W29331  18.845   2.057  28.312 -0.2058  0.0165  0.4010
28468W        W29332  22.889   0.322   0.239  0.0905  0.0260 -0.0178
28469W        W29333  21.017   2.992   2.292 -0.0924  0.1595 -0.1646
28470W        W29334  21.243   3.417  28.935  0.0382  0.2360  0.1803
28471W        W29335  23.548   2.420   5.770 -0.1792 -0.2556 -0.0533
28472W        W29336  17.594   1.479   2.435  0.1160  0.0428 -0.0288
28473W        W29337  16.447   4.864   2.256 -0.0867 -0.1155  0.3597
28474W        W29338  21.840   1.093   1.004  0.0396 -0.1000  0.0518
28475W        W29339  20.445   4.665   1.468 -0.0157  0.1498 -0.0768
28476W        W29340  18.204   0.933   1.724 -0.1342  0.1174  0.2419
28477W        W29341  19.987   1.714   3.090  0.0820 -0.1789 -0.2665
28478W        W29342  21.972   2.798   0.138  0.2910  0.1030  0.4168
28479W        W29343  20.415   5.526   4.131 -0.3367 -0.1055  0.3349
28480W        W29344  19.846   1.124  27.066 -0.0527 -0.0203  0.0151
28481W        W29345  19.300  28.817  28.296  0.1953 -0.0451  0.0649
28482W        W29346  17.396   5.524   8.996  0.2602  0.1473  0.0408
28483W        W29347  19.232   1.635   7.242 -0.2595  0.1779  0.0836
28484W        W29348  20.043   4.800   5.247  0.0724  0.1207  0.1035
28485W        W29349  21.158   3.051   4.993  0.2397 -0.2254 -0.3315
28486W        W29350  18.594   3.488   1.863 -0.2264 -0.2761  0.2857
28487W        W29351  21.372   1.322   1.762  0.1109 -0.0199 -0.1117
28488W        W29352  20.195  28.469   4.110 -0.0375 -0.1321  0.0942
28489W        W29353  18.773   3.685   2.286  0.3021 -0.1888  0.1040
28490W        W29354  21.721   3.225   7.100  0.1225  0.1917  0.1297
28491W        W29355  17.810   0.639   4.593 -0.1320 -0.0065 -0.1968
28492W        W29356  19.487   0.783   3.676  0.1434  0.1992 -0.0143
28493W        W29357  20.172   0.467   2.793  0.1519  0.0288 -0.1021
28494W        W29358  19.117   1.372   2.952  0.1216  0.0647  0.0560
28495W        W29359  20.676   0.487   6.809  0.2097 -0.1372 -0.0520
28496W        W29360  16.447   0.976   5.901  0.1025  0.2322  0.1777
28497W        W29361  19.509   3.308   3.720  0.0356 -0.3080  0.1254
28498W        W29362  20.564   4.786   3.402  0.2015 -0.0582 -0.0543
28499W        W29363  20.846   2.194   4.735  0.3647 -0.0256  0.2649
28500W        W29364  20.092   2.198   5.301 -0.3451 -0.2240  0.2223
28501W        W29365  21.462   0.203   3.511  0.0751  0.0632  0.1836
28502W        W29366  20.291  28.777   5.088  0.2005 -0.0619 -0.0457
28503W        W29367  18.710  27.846   1.495 -0.0590 -0.2191 -0.1344
28504W        W29368  18.570   2.520   5.258  0.1249 -0.1396  0.3211
28505W        W29369  21.266   3.784   7.150  0.0008 -0.0669  0.2158
28506W        W29370  17.988   0.251   7.552 -0.0581  0.0988 -0.0818
28507W        W29371  22.174   1.415   7.882 -0.2835  0.0246 -0.0393
28508W        W29372  20.133   0.534   4.296 -0.1632 -0.0588  0.0944
28509W        W29373  19.619   5.904   6.216  0.0041 -0.0070 -0.1260
28510W        W29374  20.366   2.719   5.704 -0.0947  0.0031  0.1185
28511W        W29375  20.697   1.105   4.925  0.1573 -0.0053 -0.0943
28512W        W29376  22.143   0.503   5.701 -0.1486 -0.1090 -0.1289
28513W        W29377  21.536   4.209   7.090 -0.0896  0.3678  0.0387
28514W        W29378  20.806   2.546   5.837  0.2030  0.1146  0.1562
28515W        W29379  20.559   2.052   8.351 -0.1125  0.0680  0.0665
28516W        W29380  20.624   1.031   7.148 -0.1567  0.1087 -0.4553
28517W        W29381  19.330   2.499   6.838 -0.3310  0.0987  0.1364
28518W        W29382  18.553  27.508   3.178 -0.0855 -0.0171  0.1557
28519W        W29383  20.853   4.778   2.995 -0.2756 -0.1397 -0.1416
28520W        W29384  20.922   2.654   3.422 -0.2470 -0.2237 -0.1055
28521W        W29385  18.671   1.066   6.712 -0.0843 -0.1324  0.1272
28522W        W29386  20.557   0.603   1.745  0.4835  0.1875 -0.0918
28523W        W29387  22.759   4.719   5.186  0.0549 -0.0703  0.5106
28524W        W29388  20.660   5.366   2.629  0.0099 -0.2046 -0.0532
28525W        W29389  21.226   1.989   5.174 -0.2132  0.1944  0.1483
28526W        W29390  19.515   2.522   2.934 -0.1736  0.1141 -0.2456
28527W        W29391  20.036   6.502   2.392 -0.2712 -0.2641 -0.3702
28528W        W29392  19.326   1.530   5.520  0.2596 -0.1788  0.0891
28529W        W29393  20.703   2.756   8.381  0.2245  0.1415  0.2694
28530W        W29394  23.824   1.021   6.267 -0.1223 -0.0047  0.1359
28531W        W29395  21.631   1.673   5.365 -0.0738 -0.3302 -0.1334
28532W        W29396  19.037   3.699   6.284  0.0671 -0.1448  0.0755
28533W        W29397  19.588   0.382   3.423 -0.1481 -0.0739  0.2491
28534W        W29398  18.230   2.028   6.636  0.1925 -0.0885  0.1691
28535W        W29399  20.458   0.713   3.166  0.3069  0.2829 -0.1494
28536W        W29400  20.144  28.645   3.346  0.0574  0.2562  0.2770
28537W        W29401  18.800   1.390   5.311  0.0904  0.3953 -0.4533
28538W        W29402  18.103  26.310   5.424 -0.1486  0.0719  0.0290
28539W        W29403  19.651   0.962   7.110 -0.1236 -0.0369  0.0769
28540W        W29404  19.809   2.512   4.595 -0.3406  0.1634  0.1136
28541W        W29405  19.738   3.500   3.251  0.0781  0.0927  0.0180
28542W        W29406  19.968  28.620   2.878  0.4490 -0.1170  0.2016
28543W        W29407  19.178   3.408   3.324 -0.4140  0.0627 -0.0702
28544W        W29408  17.308   0.247   5.343  0.1321  0.0531 -0.0517
28545W        W29409  18.420   0.810   5.791  0.2279  0.1217  0.0174
28546W        W29410  20.404  27.252   4.128 -0.0928 -0.0331 -0.0063
28547W        W29411  22.004   2.817   2.719  0.0421  0.1263  0.1693
28548W        W29412  18.453   2.347   3.764 -0.2114  0.0119 -0.1739
28549W        W29413  19.725  28.428   2.400 -0.2317 -0.2838 -0.0128
28550W        W29414  18.389   1.261   5.048  0.1705 -0.0146 -0.4808
28551W        W29415  20.431  28.835   3.747  0.0078 -0.0307 -0.3378
28552W        W29416  20.007   3.365   5.006 -0.1497  0.1541 -0.0931
28553W        W29417  19.018  29.097   1.604  0.0296  0.2657 -0.0310
28554W        W29418  21.873   1.619   2.911  0.5420  0.1252 -0.2488
28555W        W29419  23.483   1.306   5.944  0.2289  0.0898  0.2899
28556W        W29420  21.924   3.525   4.737 -0.1301  0.0265 -0.1194
28557W        W29421  19.189   4.132   8.301  0.1213 -0.0926 -0.0195
28558W        W29422  18.104   0.125   4.263 -0.1478 -0.1273  0.1098
28559W        W29423  18.710   1.839   6.611 -0.0671  0.3330  0.0253
28560W        W29424  19.609   0.100   5.020 -0.1006  0.0386  0.3004
28561W        W29425  20.902   0.505   2.940  0.0032  0.1342  0.2329
28562W        W29426  19.082   3.010   5.984  0.3485 -0.0265  0.1615
28563W        W29427  19.849   1.770   7.868  0.1000  0.0878 -0.0558
28564W        W29428  17.537   0.100   4.175  0.2007  0.1897 -0.0087
28565W        W29429  20.954  28.798   6.187  0.0338 -0.0417  0.0234
28566W        W29430  22.651   1.517   7.936  0.0202 -0.0538 -0.2855
28567W        W29431  19.893  26.048   4.287 -0.1140 -0.3495 -0.0973
28568W        W29432  20.484   3.908   3.990  0.0362  0.1432  0.1560
28569W        W29433  20.709  26.657   5.770 -0.0193  0.0312 -0.3163
28570W        W29434  20.219   3.900   5.276 -0.0851  0.0260  0.0556
28571W        W29435  18.786   1.303   7.223 -0.2284 -0.1562 -0.4667
28572W        W29436  15.879  28.576   2.199 -0.1801  0.0824  0.2893
28573W        W29437  20.498   3.073   8.032 -0.1726  0.3124  0.0117
28574W        W29438  20.027   4.357   2.851  0.0302 -0.2029  0.1377
28575W        W29439  18.613   3.351   4.225  0.0204  0.1255  0.0509
28576W        W29440  19.372  28.360   6.908  0.2113 -0.4580 -0.2145
28577W        W29441  19.271   2.235   4.923  0.0073  0.2698  0.1022
28578W        W29442  19.643   1.227   3.288 -0.1751 -0.2979 -0.0107
28579W        W29443  19.835   3.664   3.762  0.1774  0.1797 -0.2238
28580W        W29444  19.389   0.800   6.110  0.2920 -0.0034  0.0699
28581W        W29445  27.628   2.290   4.276 -0.0417  0.3202 -0.2261
28582W        W29446  22.099   2.233   5.069 -0.0938 -0.0966  0.1772
28583W        W29447  18.873   1.420   6.347  0.1550  0.3433  0.2372
28584W        W29448  20.020   1.417   3.648  0.0714 -0.1515  0.0284
28585W        W29449  20.763   1.864   5.158  0.0467  0.2382  0.1460
28586W        W29450  20.122   1.205   7.242 -0.1247  0.0017  0.1533
28587W        W29451  21.755   0.667   7.423 -0.1767  0.3878 -0.1627
28588W        W29452  21.276   4.338   4.712 -0.1874 -0.0081 -0.3191
28589W        W29453  21.461   4.232   6.061  0.2547 -0.0180 -0.2316
28590W        W29454  19.019  28.694   5.268 -0.2799  0.2911 -0.2221
28591W        W29455  19.070   2.247   5.397  0.0594  0.0952 -0.0326
28592W        W29456  17.868  28.719   6.268 -0.0074 -0.0930 -0.2276
28593W        W29457  20.164   3.318   2.407 -0.1255  0.3121 -0.3501
28594W        W29458  20.709   3.212   4.465 -0.2099  0.0382  0.0114
28595W        W29459  19.649   5.114   4.766 -0.0120  0.2047  0.0152
28596W        W29460  22.823   2.773   5.750 -0.1624 -0.1429  0.2192
28597W        W29461  21.766   1.451   4.015  0.3865 -0.1144  0.3451
28598W        W29462  21.855   1.282   5.087  0.0130 -0.2069 -0.0756
28599W        W29463  20.299   0.534   3.814 -0.1783  0.2599  0.2663
28600W        W29464  18.802   4.513   4.852 -0.2703  0.1430  0.1156
28601W        W29465  20.156   0.056   2.485 -0.0487  0.0072 -0.0420
28602W        W29466  20.442   1.862   1.174  0.1080 -0.0056 -0.2791
28603W        W29467  23.113   4.087   4.456  0.1027  0.4197  0.2085
28604W        W29468  22.007   4.045   2.840  0.1055  0.0259 -0.2290
28605W        W29469  19.893   3.008   4.526 -0.1560 -0.3538  0.1557
28606W        W29470  21.146   1.704   4.360 -0.2174  0.0928 -0.1074
28607W        W29471  20.281   1.806   6.110 -0.0605 -0.2316 -0.0815
28608W        W29472  16.673   0.572   7.008  0.1134  0.2383 -0.3256
28609W        W29473  20.711   3.172   5.689  0.0153  0.1077  0.1142
28610W        W29474  21.227   2.364   5.546 -0.0060  0.0190 -0.0355
28611W        W29475  18.575   6.880   2.645  0.2996  0.1142  0.2119
28612W        W29476  18.769   0.017   5.146  0.2505  0.1164  0.1876
28613W        W29477  21.125   0.122   6.269  0.4381  0.0668  0.0764
28614W        W29478  21.340   2.775   4.109  0.3313 -0.0668  0.0203
28615W        W29479  19.305  27.605   4.505 -0.1528 -0.2590  0.3081
28616W        W29480  22.225   4.057   5.544 -0.3209 -0.2323  0.0779
28617W        W29481  19.011   1.435   6.821 -0.2350 -0.1403 -0.0848
28618W        W29482  20.341  26.982   5.542  0.4197  0.0750  0.2019
28619W        W29483  23.093   0.835   7.036  0.0299 -0.1555  0.1241
28620W        W29484  22.091   2.458   3.470  0.0623 -0.0172 -0.0559
28621W        W29485  16.381   2.606   5.257  0.2601 -0.2349  0.1821
28622W        W29486  16.098  29.148   3.900  0.3112 -0.2578  0.0303
28623W        W29487  18.929   0.428   7.912 -0.2975  0.2373 -0.2559
28624W        W29488  20.345   4.355   5.143 -0.1663  0.1006  0.0394
28625W        W29489  19.676   1.546   4.553 -0.1247 -0.1090  0.0600
28626W        W29490  18.261   3.172   3.659  0.0817  0.3221  0.2582
28627W        W29491  19.613   0.179   2.304 -0.0278  0.4906 -0.1253
28628W        W29492  19.771   1.856   3.529 -0.3264  0.0473 -0.2184
28629W        W29493  19.903   4.756   5.946  0.2390  0.1233 -0.0709
28630W        W29494  20.569   3.953   3.420  0.0518 -0.0717 -0.1127
28631W        W29495  18.550   1.718   5.904  0.0955 -0.1277  0.2533
28632W        W29496  23.059   2.881   7.242 -0.1133 -0.1381 -0.3061
28633W        W29497  19.004   1.793   5.103 -0.3819 -0.0859 -0.3817
28634W        W29498  19.988   2.981   5.450  0.1932 -0.4545  0.1986
28635W        W29499  21.685   1.521   0.931  0.0275  0.0132 -0.3350
28636W        W29500  20.621   3.338   3.943 -0.2790 -0.0160  0.3399
28637W        W29501  20.121   0.169   5.909 -0.1460  0.0200 -0.1316
28638W        W29502  21.438   3.569   3.170  0.1045  0.1776 -0.0920
28639W        W29503  16.735   1.323   4.855 -0.1912 -0.3906  0.3499
28640W        W29504  18.101   1.007   4.193 -0.0779  0.2560 -0.2445
28641W        W29505  19.848  28.864   5.327 -0.0246  0.2109 -0.2686
28642W        W29506  21.813  28.394   8.874  0.0521  0.0773  0.1322
28643W        W29507  20.972   0.716   5.838  0.1361 -0.1415  0.0619
28644W        W29508  20.762   0.160   7.609  0.1198 -0.0748  0.2087
28645W        W29509  18.886   3.317   7.083 -0.2981 -0.1157 -0.2693
28646W        W29510  20.192  28.460   7.305  0.0795  0.2020 -0.2086
28647W        W29511  19.194   0.400   3.824  0.0328 -0.3189  0.1760
28648W        W29512  19.819   1.075   5.077 -0.2087  0.0510  0.0610
28649W        W29513  17.405   3.598   5.858  0.3014 -0.2197 -0.1807
28650W        W29514  19.907   1.716   6.546  0.5241  0.2789 -0.1259
28651W        W29515  19.214   3.794   1.705  0.0858  0.0697 -0.2446
28652W        W29516  17.317   3.174   6.126  0.0959 -0.1419 -0.1490
28653W        W29517  24.032   1.933   4.671  0.0893 -0.0338  0.2653
28654W        W29518  19.277   0.428   6.414  0.0322 -0.0666  0.2431
28655W        W29519  21.798   2.423   2.290  0.0389 -0.1856  0.2927
28656W        W29520  20.277   1.442   4.561  0.1126  0.1506  0.1000
28657W        W29521  20.681   2.508   4.376  0.1812 -0.1552 -0.2592
28658W        W29522  18.705   2.716   6.112 -0.1427  0.2417  0.3219
28659W        W29523  19.351   2.511   4.386 -0.3086  0.3084 -0.1792
28660W        W29524  20.233   5.600   3.672  0.3246 -0.0464 -0.1162
28661W        W29525  21.870   0.710   6.426 -0.0483 -0.1356  0.1195
28662W        W29526  18.222   2.484   4.164  0.1711  0.0603  0.0469
28663W        W29527  19.934   5.857   4.765 -0.2111 -0.1692 -0.2522
28664W        W29528  20.502   2.351   2.567  0.0263  0.1608  0.1480
28665W        W29529  20.057   2.263   6.606  0.0430 -0.2380 -0.2718
28666W        W29530  18.457   1.361   3.963 -0.0020 -0.0876  0.0498
28667W        W29531  20.822   1.153   6.091 -0.1635  0.2133  0.0179
28668W        W29532  23.103  27.626   3.717 -0.0431 -0.1566 -0.1078
28669W        W29533  16.800   1.775   6.651  0.1615  0.1712  0.0444
28670W        W29534  19.354   2.192   6.476  0.1093  0.0460  0.2819
28671W        W29535  18.881   1.280   4.359 -0.2028  0.0568 -0.1813
28672W        W29536  18.327   0.460   1.345  0.1610  0.0357  0.1467
28673W        W29537  17.688   3.493   3.275  0.3222  0.1023  0.1131
28674W        W29538  21.737   2.495   5.799  0.3026 -0.0555  0.0107
28675W        W29539  20.503  26.940   9.826 -0.0672  0.3494 -0.2419
28676W        W29540  20.715  27.472   3.651  0.3355 -0.0446 -0.1253
28677W        W29541  18.449   0.359   2.243  0.2367 -0.0693  0.1113
28678W        W29542  20.547  28.865   2.027  0.1350 -0.1584  0.1109
28679W        W29543  17.886  27.588   4.453  0.1918 -0.3049 -0.0873
28680W        W29544  18.392   0.094   5.843  0.1907 -0.0254 -0.1621
28681W        W29545  20.184  27.116   4.562  0.1312 -0.2584  0.3725
28682W        W29546  16.493  28.333   6.380  0.0506  0.0770 -0.1437
28683W        W29547  20.701   1.726   7.230  0.0179 -0.0041 -0.3214
28684W        W29548  22.279   2.370   2.496 -0.1530 -0.3812 -0.5002
28685W        W29549  19.180   2.891   3.497  0.1994  0.0930  0.0897
28686W        W29550  20.551   0.059   5.018 -0.2658 -0.0907 -0.0028
28687W        W29551  19.465  29.017   3.963  0.1902  0.0147  0.2839
28688W        W29552  21.078   0.912   6.979 -0.0711 -0.0259  0.1166
28689W        W29553  19.922   2.490   5.670  0.0633  0.0446  0.0228
28690W        W29554  20.040   4.129   3.648 -0.1661  0.1868 -0.0331
28691W        W29555  15.292   0.959   6.178  0.1781  0.2909  0.1115
28692W        W29556  19.493   1.940   5.323 -0.3321 -0.3489 -0.0085
28693W        W29557  18.954   3.978   7.813 -0.0450  0.1372 -0.0744
28694W        W29558  22.139   0.043   4.989  0.2481 -0.1515 -0.2278
28695W        W29559  23.244   1.103   4.771 -0.0646  0.0895  0.1207
28696W        W29560  22.177   2.764   5.898 -0.0832 -0.0304 -0.1423
28697W        W29561  20.389   4.908   5.921  0.1616 -0.0217  0.1769
28698W        W29562  18.616   3.455   5.367  0.2390 -0.0259 -0.1537
28699W        W29563  20.659   2.865   2.643  0.0898  0.1443  0.1580
28700W        W29564  17.962   2.948   8.283  0.0764  0.0144 -0.1523
28701W        W29565  19.343   3.388   8.494 -0.0393  0.1507 -0.1998
28702W        W29566  23.883  27.891   4.238 -0.1836  0.0747  0.1927
28703W        W29567  23.255   2.671   4.141 -0.0193 -0.0159  0.0643
28704W        W29568  20.255   3.691   5.935  0.2419  0.2068  0.1305
28705W        W29569  19.484  28.291   3.235  0.0375 -0.1418  0.1232
28706W        W29570  19.589   2.508   5.262  0.1053  0.2819  0.0481
28707W        W29571  22.022  28.360   4.353 -0.2611 -0.0266  0.1694
28708W        W29572  20.510   4.460   6.090 -0.0858  0.5206  0.0647
28709W        W29573  21.541  28.225   6.738 -0.2947 -0.1408 -0.1017
28710W        W29574  23.116   4.496   3.308 -0.0444  0.2015 -0.0155
28711W        W29575  20.989  28.770   5.712 -0.0228 -0.1298  0.1144
28712W        W29576  18.739   2.030   4.045 -0.2723  0.0829  0.2172
28713W        W29577  18.675   2.203   5.823  0.0947  0.1029  0.2308
28714W        W29578  18.621   2.468   2.747  0.3636  0.2631  0.1424
28715W        W29579  19.254   2.137   3.189 -0.0761  0.1303  0.0401
28716W        W29580  18.161   0.864   4.851  0.0373 -0.2013 -0.0789
28717W        W29581  20.183   2.404   4.195  0.0456 -0.1963  0.0048
28718W        W29582  21.571   1.260   8.131 -0.1152  0.1919  0.2476
28719W        W29583  21.212  27.970   8.178 -0.1635  0.0945  0.0099
28720W        W29584  20.501   2.176   5.681 -0.1612 -0.1998 -0.0264
28721W        W29585  20.380   2.841   4.659 -0.0485  0.1448 -0.0847
28722W        W29586  20.345   3.809   2.500  0.1530  0.1245 -0.1154
28723W        W29587  18.854   0.745   6.068  0.1646 -0.2763 -0.0731
28724W        W29588  20.514  28.414   4.814 -0.1324 -0.0135 -0.2282
28725W        W29589  17.950   0.285   2.456 -0.0246 -0.1916  0.2282
28726W        W29590  19.269   0.214   4.337  0.0282  0.1222 -0.1667
28727W        W29591  22.415   2.892   1.616  0.1092 -0.2923 -0.3382
28728W        W29592  20.533   1.639   3.983  0.1832 -0.1382 -0.1265
28729W        W29593  18.174   2.762   5.115 -0.0064 -0.0428  0.0062
28730W        W29594  19.926   6.583   4.741 -0.1937  0.2982 -0.0415
28731W        W29595  19.913  27.879   5.384 -0.2340 -0.3814  0.2642
28732W        W29596  20.782   4.379   3.311 -0.0818  0.0252  0.0480
28733W        W29597  17.849   5.563   5.355 -0.1424  0.1731  0.0484
28734W        W29598  23.516   5.158   5.167  0.1549  0.1895 -0.1379
28735W        W29599  20.263   3.412   5.466 -0.0170 -0.1927  0.3716
28736W        W29600  16.066   2.579   0.678  0.2501 -0.1208  0.3905
28737W        W29601  18.213   3.472   5.796 -0.1285  0.2834 -0.1712
28738W        W29602  22.395   0.513   4.210 -0.1974 -0.0440 -0.1919
28739W        W29603  18.066   0.029   6.295 -0.1285  0.1568  0.1037
28740W        W29604  21.335   3.709   4.555 -0.0741 -0.0094  0.0225
28741W        W29605  22.192   1.760   2.594 -0.2712 -0.0640 -0.0316
28742W        W29606  18.868   1.613   2.092 -0.4487 -0.1267 -0.0831
28743W        W29607  17.383   0.716   5.569 -0.0315  0.1250 -0.0445
28744W        W29608  22.839   2.894   9.015  0.0051  0.1953 -0.0234
28745W        W29609  19.159   2.797   3.961 -0.0307  0.2152  0.2751
28746W        W29610  21.171   2.183   3.138  0.0765  0.1018  0.1817
28747W        W29611  17.866   4.436   6.999  0.1199  0.0724 -0.0781
28748W        W29612  20.088   2.592   1.387 -0.3901 -0.1010 -0.0079
28749W        W29613  21.328   2.279   6.079  0.0322 -0.0666 -0.1323
28750W        W29614  20.421   1.433   6.862  0.0051 -0.0758  0.0813
28751W        W29615  21.019   1.732   1.897  0.1591  0.1519  0.0265
28752W        W29616  20.691   3.375   2.218 -0.2223  0.0431  0.0471
28753W        W29617  20.076   0.594   7.245  0.1980  0.1008 -0.1408
28754W        W29618  21.290  29.099   5.367 -0.1702  0.1109  0.1528
28755W        W29619  19.778  29.139   6.231 -0.2731 -0.0787  0.0095
28756W        W29620  19.456   2.223   5.742 -0.0968  0.6005 -0.1111
28757W        W29621  22.983   0.323   8.380 -0.3073 -0.0165 -0.0354
28758W        W29622  18.589  29.125   6.245  0.0209 -0.1667 -0.2694
28759W        W29623  19.822   1.547   5.420 -0.1312 -0.0555 -0.1575
28760W        W29624  17.362   2.350   3.919 -0.2814 -0.1711 -0.1399
28761W        W29625  18.386   1.071   6.227 -0.2358  0.1176  0.1515
28762W        W29626  18.413  27.662   4.082 -0.3133 -0.1705  0.1756
28763W        W29627  19.612   0.573   0.952 -0.3531  0.0609  0.1549
28764W        W29628  19.411   1.006   4.758 -0.2480 -0.2146 -0.0458
28765W        W29629  17.240   3.822   7.180 -0.1368  0.0848  0.0749
28766W        W29630  22.912   2.712   3.705 -0.2400 -0.0300 -0.0537
28767W        W29631  20.555   0.144   4.135 -0.0365  0.3177  0.1257
28768W        W29632  21.303   4.045   3.380 -0.2144 -0.1799 -0.0265
28769W        W29633  18.465   3.094   6.871 -0.1267 -0.0131 -0.3884
28770W        W29634  21.039  28.091   6.200  0.1319  0.3464  0.0169
28771W        W29635  21.395   5.490   4.411  0.1302 -0.0647 -0.0404
28772W        W29636  19.889   1.979   5.735 -0.3132  0.1558  0.2274
28773W        W29637  19.507   0.280   1.819  0.4988  0.5242  0.2310
28774W        W29638  20.286  27.636   4.525  0.0720 -0.2030 -0.1302
28775W        W29639  19.761   0.128   4.497 -0.1858 -0.1062 -0.0953
28776W        W29640  18.361   2.515   4.748  0.0551  0.1543  0.1609
28777W        W29641  20.782   1.166   4.409 -0.1563 -0.1193 -0.1831
28778W        W29642  19.516   3.381   7.036 -0.2214 -0.1113 -0.2779
28779W        W29643  22.248   0.644   7.645  0.0204  0.0156  0.1210
28780W        W29644  21.065   2.183   4.156 -0.0679 -0.1464 -0.2121
28781W        W29645  19.836   3.480   5.987 -0.2170  0.0381 -0.0258
28782W        W29646  19.144   2.031   6.900 -0.0483 -0.3325 -0.1065
28783W        W29647  18.708  28.344   6.462 -0.2911  0.0478  0.0795
28784W        W29648  21.180   4.116   5.629 -0.2705 -0.2223 -0.2108
28785W        W29649  21.705   1.210   4.540 -0.0396  0.0296 -0.1808
28786W        W29650  19.441   3.054   4.248 -0.0140  0.1950  0.1095
28787W        W29651  20.171   5.055   4.770 -0.2405 -0.1997  0.2835
28788W        W29652  18.985   4.324   5.412 -0.3599 -0.1951 -0.2987
28789W        W29653  17.803   0.081   2.868  0.2256 -0.3890 -0.0191
28790W        W29654  20.232   3.522   2.960 -0.0925 -0.0159  0.1328
28791W        W29655  19.462   1.729   5.998  0.2294  0.0392 -0.2699
28792W        W29656  19.945  28.321   5.076 -0.0952  0.2850  0.0473
28793W        W29657  18.866   3.704   8.527 -0.0665 -0.2950 -0.2970
28794W        W29658  21.474   1.131   7.292 -0.0998  0.0377  0.0392
28795W        W29659  19.590   0.589   5.163  0.2098  0.1452  0.1252
28796W        W29660  17.517   1.959   6.336 -0.2825 -0.1343 -0.1886
28797W        W29661  19.079   0.623   5.157  0.0190  0.0083 -0.1546
28798W        W29662  17.662   2.984   6.420 -0.3752 -0.0939  0.2602
28799W        W29663  19.240   0.910   3.240 -0.0684 -0.2012 -0.0179
28800W        W29664  21.627   3.751   8.340 -0.0393 -0.2259  0.0084
28801W        W29665  19.016  27.111   6.874 -0.1456 -0.1036 -0.1711
28802W        W29666  22.194   3.842   4.294 -0.0490  0.1954  0.0349
28803W        W29667  23.593   2.862   3.100 -0.2387 -0.0607  0.1256
28804W        W29668  20.022   3.168   7.934 -0.0154  0.1251  0.0327
28805W        W29669  19.259   2.649   7.571 -0.1937 -0.2319  0.0899
28806W        W29670  18.945   2.691   3.083 -0.1412  0.4626  0.3222
28807W        W29671  18.628   0.881   5.135 -0.1584 -0.0206 -0.0952
28808W        W29672  20.015  29.101   4.061 -0.3382 -0.0146 -0.2670
28809W        W29673  18.547   0.986   4.581  0.1168  0.3497  0.2319
28810W        W29674  21.576   2.248   4.342  0.0810  0.4023  0.2063
28811W        W29675  18.532   3.043   4.802  0.3265 -0.0335 -0.1048
28812W        W29676  20.764  28.420   5.901  0.2270  0.0815  0.0930
28813W        W29677  19.934   0.931   3.964 -0.2119 -0.0786  0.0010
28814W        W29678  22.568   3.591   7.326 -0.1571 -0.0520 -0.1114
28815W        W29679  19.155   2.726   5.179 -0.0606  0.0700 -0.2794
28816W        W29680  21.891   4.415   5.258 -0.0307  0.1200 -0.0854
28817W        W29681  19.024   3.189   5.440 -0.0481  0.2737 -0.3408
28818W        W29682  18.067   5.098   3.337 -0.2348  0.1841  0.0844
28819W        W29683  21.177   0.235   5.755  0.0124 -0.1381 -0.0811
28820W        W29684  19.652   4.329   3.906 -0.0466  0.1035  0.0796
28821W        W29685  19.038  26.520   3.919 -0.0241  0.4949  0.0478
28822W        W29686  16.440   0.627   5.567 -0.1106  0.1549 -0.0266
28823W        W29687  22.019  28.911   7.702  0.0081 -0.0947  0.0167
28824W        W29688  20.788  27.940   5.123  0.1454 -0.1587  0.1688
28825W        W29689  16.867   1.754   5.258  0.1438 -0.1985  0.0452
28826W        W29690  19.895  27.557   3.925  0.1296 -0.0816 -0.1748
28827W        W29691  21.256   1.325   7.728 -0.0243  0.1204 -0.1768
28828W        W29692  18.287   1.780   3.168  0.0552  0.0139  0.1965
28829W        W29693  18.784  28.606   3.963  0.0642 -0.2076 -0.0637
28830W        W29694  20.628   3.387   2.696  0.1024 -0.0898  0.0374
28831W        W29695  18.001   2.010   6.164 -0.1859 -0.2314  0.1768
28832W        W29696  21.985  29.137   5.724  0.1027 -0.0506 -0.0412
28833W        W29697  21.267  27.200   2.822  0.2415 -0.0886  0.3771
28834W        W29698  20.463   2.513   6.598 -0.1283  0.2416  0.3598
28835W        W29699  19.825   6.093   3.575 -0.1595 -0.1439  0.0267
28836W        W29700  19.265   7.092   4.231  0.1333  0.0297  0.0786
28837W        W29701  19.912   0.275   1.481 -0.0593  0.0730  0.1776
28838W        W29702  20.070   3.760   4.696  0.2945 -0.3365 -0.0529
28839W        W29703  18.142  28.242   6.370 -0.0877  0.0035  0.0453
28840W        W29704  18.336   1.491   7.874  0.1629 -0.0412 -0.1564
28841W        W29705  18.457   2.710   3.372 -0.0186  0.0643 -0.2035
28842W        W29706  17.827   1.895   4.380  0.2171  0.2847  0.4005
28843W        W29707  20.549   1.987   4.390  0.0040  0.2652 -0.1659
28844W        W29708  18.984   2.373   3.556  0.2801  0.1905 -0.0327
28845W        W29709  18.631   0.841   4.103  0.1635 -0.4769  0.0078
28846W        W29710  20.477   5.447   5.293 -0.0547  0.1701  0.1076
28847W        W29711  20.617   3.443   6.157 -0.3540  0.0136  0.0689
28848W        W29712  20.933   4.039   3.713  0.0043  0.1697  0.1157
28849W        W29713  19.396   1.708   6.579 -0.1323  0.2211  0.2074
28850W        W29714  20.343  28.941   4.479  0.1761 -0.0813  0.0876
28851W        W29715  21.436   2.127   4.772  0.0003 -0.2406  0.0161
28852W        W29716  19.433   1.206   4.279  0.3352 -0.0028  0.0241
28853W        W29717  21.785   1.698   4.438 -0.2414 -0.3048  0.0008
28854W        W29718  18.507   0.899   3.578 -0.0195  0.1025 -0.0819
28855W        W29719  21.445   4.491   6.683  0.0800  0.0885 -0.0484
28856W        W29720  21.169   4.172   2.311  0.0980 -0.3946  0.0465
28857W        W29721  20.319   0.903   5.328 -0.1573  0.0841 -0.1369
28858W        W29722  17.423   0.466   6.630 -0.3145 -0.0884  0.0865
28859W        W29723  20.755   3.636   6.903 -0.2057 -0.2953 -0.0754
28860W        W29724  21.631  28.784   5.653  0.0719 -0.0302  0.2463
28861W        W29725  19.700   4.623   8.232  0.3433  0.0356  0.1822
28862W        W29726  20.160   2.937   7.519 -0.1151  0.1172 -0.5104
28863W        W29727  20.342   1.775   5.462 -0.0570 -0.1926 -0.0221
28864W        W29728  16.931   0.594   5.350  0.0095  0.0046 -0.1870
28865W        W29729  19.974   0.666   5.589 -0.2346  0.0567 -0.1049
28866W        W29730  19.700   3.540   4.306  0.2621  0.1716 -0.0519
28867W        W29731  22.222   0.484   5.142 -0.1835 -0.0746  0.0112
28868W        W29732  20.603   3.182   5.211 -0.0763 -0.0710 -0.0545
28869W        W29733  21.307   2.757   5.917 -0.2142 -0.2730  0.0974
28870W        W29734  19.747   4.399   3.288  0.0070 -0.0125 -0.1819
28871W        W29735  20.993   1.809   5.714 -0.0620 -0.0720  0.1539
28872W        W29736  21.059   4.603   5.866  0.0346  0.0309  0.2780
28873W        W29737  20.643   5.064   5.562  0.0600  0.1013  0.1130
28874W        W29738  20.316   4.155   4.479  0.1263  0.3190  0.0024
28875W        W29739  18.377  28.830   4.352  0.0879 -0.1368  0.2173
28876W        W29740  19.554   4.847   6.355  0.0060  0.0522 -0.1617
28877W        W29741  20.401  28.857   6.079  0.0177 -0.2076 -0.2312
28878W        W29742  20.256   2.923   4.181 -0.1175 -0.1685 -0.0091
28879W        W29743  16.195   4.073   8.166  0.1220 -0.1904 -0.0729
28880W        W29744  21.762   4.099   4.452 -0.1096 -0.2346 -0.3710
28881W        W29745  17.405   1.574   2.903 -0.0416 -0.0601  0.0577
28882W        W29746  20.176   4.001  12.353  0.0450  0.1305  0.2072
28883W        W29747  17.593   5.159  10.150  0.0393  0.1390 -0.1389
28884W        W29748  21.769   0.918   8.573  0.3358  0.1242 -0.0083
28885W        W29749  22.408   4.207   8.254  0.0553 -0.0609 -0.0622
28886W        W29750  19.027   2.358   7.246  0.0646  0.0010  0.0835
28887W        W29751  20.186  27.400   8.545  0.0313  0.0433 -0.2361
28888W        W29752  18.750   1.797   7.149  0.1791  0.0840 -0.2732
28889W        W29753  22.754   2.074   8.190 -0.1208 -0.0048  0.1360
28890W        W29754  18.715   3.834   9.520 -0.0260  0.0517  0.0275
28891W        W29755  20.050  28.687  10.198 -0.2361 -0.0237 -0.1995
28892W        W29756  19.677  28.359  10.125  0.0439  0.2169 -0.2168
28893W        W29757  19.929  27.395   9.009  0.0657  0.0878 -0.2742
28894W        W29758  18.853   1.003   8.550 -0.2237 -0.2796  0.1672
28895W        W29759  21.070   2.023   8.819 -0.0342  0.0369 -0.2038
28896W        W29760  17.756   1.951  10.297  0.0252  0.0682  0.2812
28897W        W29761  19.178   4.023  12.532  0.0961 -0.0697  0.1687
28898W        W29762  19.449   0.784   8.348  0.1290 -0.0950 -0.2503
28899W        W29763  20.149   1.753   8.565  0.1026  0.0088 -0.2705
28900W        W29764  19.708   1.423  10.987  0.1747  0.0003  0.0674
28901W        W29765  23.046   1.567  10.080 -0.1158 -0.2841 -0.0991
28902W        W29766  21.098  27.832  11.665  0.2481 -0.0753  0.3821
28903W        W29767  18.204  28.342  10.796 -0.1252 -0.2580  0.1292
28904W        W29768  19.238   2.845   9.194  0.0937  0.0724 -0.1230
28905W        W29769  19.481   1.510  11.529  0.5041 -0.2058 -0.0417
28906W        W29770  17.153   1.650   9.044  0.2136 -0.2249 -0.2704
28907W        W29771  19.587   1.262   7.950  0.1362 -0.0004 -0.1029
28908W        W29772  22.138   2.031   6.505 -0.1596  0.0889  0.2163
28909W        W29773  18.659   6.192   9.195  0.3609  0.1811 -0.0349
28910W        W29774  20.555   0.297   8.583 -0.1290  0.1624  0.1184
28911W        W29775  19.583  28.670   8.084 -0.4091 -0.1882 -0.1035
28912W        W29776  18.876   0.869   7.422 -0.0596  0.0427 -0.1808
28913W        W29777  17.860   2.924   9.790 -0.1895 -0.0785  0.1070
28914W        W29778  18.445   2.288   6.285  0.1550 -0.0664 -0.2788
28915W        W29779  17.655   1.694  11.923 -0.2621  0.3997 -0.2032
28916W        W29780  15.996   2.353   9.711 -0.0149 -0.2201 -0.1636
28917W        W29781  20.068   0.950   9.010 -0.5512 -0.1340  0.3711
28918W        W29782  18.256   0.574   3.934  0.1568 -0.1091  0.0384
28919W        W29783  19.538   4.389  10.067  0.2066  0.0067 -0.0469
28920W        W29784  22.798   2.027   8.697  0.0376  0.0159 -0.2475
28921W        W29785  19.539  28.698   9.011  0.0340 -0.0352  0.3174
28922W        W29786  21.432   0.531   6.169 -0.1476  0.0323 -0.0255
28923W        W29787  24.448   1.934   9.745 -0.0476 -0.2627  0.0796
28924W        W29788  18.536   2.991   7.648 -0.0988  0.1026 -0.2425
28925W        W29789  21.759   3.033   6.137 -0.1273 -0.0715 -0.3003
28926W        W29790  18.400   3.092   9.083  0.1549  0.0421 -0.0234
28927W        W29791  22.520   3.351   8.956 -0.2142  0.0388  0.3066
28928W        W29792  18.984   0.895  10.398  0.1906  0.0135 -0.2794
28929W        W29793  19.932   0.754   8.007  0.0746  0.2376  0.0399
28930W        W29794  22.403   1.143   8.352 -0.0558 -0.3703  0.2056
28931W        W29795  23.777   1.175   7.582 -0.2025  0.0216  0.2961
28932W        W29796  20.289   0.746   8.594 -0.1212  0.1036 -0.0837
28933W        W29797  19.782   1.442   8.804  0.1623 -0.0478  0.0892
28934W        W29798  20.545   2.633   7.680  0.1730  0.3667 -0.1267
28935W        W29799  20.229  29.114   6.446 -0.0148  0.2556 -0.1573
28936W        W29800  19.913  28.685   8.694 -0.0493 -0.3220  0.1585
28937W        W29801  17.446   3.926   7.664 -0.0471 -0.5126  0.3788
28938W        W29802  19.721  28.178   6.513  0.1108 -0.1844 -0.0365
28939W        W29803  24.551   1.048   9.303  0.2657 -0.3843  0.3456
28940W        W29804  19.665   2.648   8.898 -0.0336 -0.0303 -0.1604
28941W        W29805  18.586   1.913   5.436  0.2895  0.3076  0.0643
28942W        W29806  22.730   2.393   9.575  0.1003  0.1189 -0.0045
28943W        W29807  17.548   4.479   8.246  0.4121 -0.1254  0.1793
28944W        W29808  20.286   0.420   8.148  0.2690 -0.2672  0.0781
28945W        W29809  18.967   0.245   6.001  0.2489 -0.0297  0.0163
28946W        W29810  20.290  27.041   8.083  0.0459  0.0012 -0.1591
28947W        W29811  23.059  28.939  10.367 -0.0462 -0.1344  0.2070
28948W        W29812  18.419   2.337   7.953  0.1670  0.2227  0.1130
28949W        W29813  19.963   1.138   6.702  0.1301  0.0239 -0.1690
28950W        W29814  18.337   3.920   8.444 -0.1681  0.2975  0.1156
28951W        W29815  19.091   1.943   8.326  0.0375  0.0772  0.1787
28952W        W29816  20.002   2.889   8.425 -0.1884 -0.4735  0.0242
28953W        W29817  21.153   2.071   7.403  0.1465  0.0788 -0.0077
28954W        W29818  21.216   3.019   9.104  0.2077  0.2242 -0.3774
28955W        W29819  22.320   0.984   9.324  0.4418  0.0473  0.1699
28956W        W29820  21.367   0.732   8.364 -0.0201  0.0436 -0.0048
28957W        W29821  22.556   1.751   9.846  0.0464  0.1589  0.0386
28958W        W29822  17.458   2.863   4.578 -0.0771 -0.0536  0.0055
28959W        W29823  14.422   2.852  10.649  0.0003  0.3055  0.2498
28960W        W29824  20.819   0.712   8.413  0.0879  0.1836 -0.0951
28961W        W29825  20.743   2.112   6.164 -0.1515 -0.3625  0.0436
28962W        W29826  18.951  28.150   9.346 -0.0174 -0.0382 -0.3174
28963W        W29827  19.182   1.087   9.884  0.0529 -0.3471 -0.2751
28964W        W29828  16.095   2.571   8.698  0.3756 -0.0111  0.0007
28965W        W29829  21.041   0.125  10.182 -0.0117 -0.1720 -0.1605
28966W        W29830  19.299  28.250  11.498 -0.0749 -0.3011 -0.0183
28967W        W29831  19.171   0.758   8.809 -0.0687 -0.0202  0.0875
28968W        W29832  21.443   0.873  10.435 -0.0318 -0.1029  0.0224
28969W        W29833  19.649  28.246   9.467  0.1375 -0.2103 -0.3967
28970W        W29834  19.991  28.662   9.266  0.0703  0.0728 -0.0113
28971W        W29835  22.153   0.176   8.779 -0.1907  0.1488 -0.0105
28972W        W29836  21.432  28.546  10.283 -0.0675 -0.1393  0.0251
28973W        W29837  19.405   1.224   8.507 -0.2993  0.2706  0.0329
28974W        W29838  18.944   3.141   8.358  0.2484  0.0434  0.0840
28975W        W29839  16.854  28.174   7.474  0.0482 -0.3802  0.3691
28976W        W29840  18.737   0.786   9.342 -0.2084  0.2312 -0.2110
28977W        W29841  23.073  28.797   6.231 -0.0588 -0.3280  0.1396
28978W        W29842  19.973   0.463   8.858 -0.1330 -0.3645  0.0526
28979W        W29843  18.801   3.448   7.705  0.1259  0.1508 -0.2620
28980W        W29844  19.645   1.135   9.718 -0.2880 -0.0132  0.0274
28981W        W29845  22.047   0.143  10.576 -0.1677  0.0241 -0.1403
28982W        W29846  22.403   5.000   4.705  0.1761 -0.3556 -0.0751
28983W        W29847  18.449   3.523   8.731  0.2512  0.0145  0.0398
28984W        W29848  21.681  28.970   7.115  0.0461 -0.0619  0.4319
28985W        W29849  22.686   4.565   7.859 -0.0333 -0.0628  0.0157
28986W        W29850  23.517   0.221   8.324 -0.1673 -0.0041  0.2480
28987W        W29851  19.868   0.425   8.379  0.0253  0.1698  0.0501
28988W        W29852  19.671   2.594   6.379 -0.3954  0.0477 -0.3141
28989W        W29853  20.104   2.418  12.497  0.0315 -0.2659 -0.1601
28990W        W29854  20.460   3.185   8.545  0.0199  0.2358 -0.1223
28991W        W29855  20.175   4.332   6.428 -0.7135  0.2127 -0.1877
28992W        W29856  17.830   1.003   6.223  0.0924 -0.2618  0.0768
28993W        W29857  21.103   3.902   7.647  0.0115  0.0910 -0.1184
28994W        W29858  22.167  28.527  10.560  0.2526 -0.2037 -0.2663
28995W        W29859  21.252   0.415   7.599  0.3889 -0.1754  0.0447
28996W        W29860  22.154   0.200   7.894 -0.1904 -0.0283  0.2824
28997W        W29861  20.421   1.957   6.867  0.2167 -0.1488  0.0208
28998W        W29862  23.610  26.576   8.627  0.1636  0.0377  0.1763
28999W        W29863  19.161   2.619   8.198  0.0269 -0.1672 -0.0359
29000W        W29864  20.128   2.401   7.545  0.0904  0.0679  0.1539
29001W        W29865  21.997   0.985   7.999  0.3094 -0.3573 -0.1503
29002W        W29866  22.499  28.604   7.077  0.0123  0.0719 -0.2661
29003W        W29867  21.748   1.270   7.674  0.0540 -0.1486  0.3355
29004W        W29868  22.171   3.697   8.999 -0.1703  0.1422  0.0172
29005W        W29869  21.463  28.190   8.549 -0.1290  0.0497 -0.0510
29006W        W29870  19.705   2.909   6.016 -0.1014  0.0144  0.2527
29007W        W29871  21.469   0.295   8.204 -0.0298 -0.1264 -0.2748
29008W        W29872  17.962   0.617  12.577  0.0438 -0.1427 -0.3711
29009W        W29873  22.235   2.898   6.885 -0.0484  0.0969  0.4453
29010W        W29874  23.674   4.414   7.881 -0.0581 -0.1516  0.2322
29011W        W29875  19.665   4.918   9.792  0.0760  0.0954 -0.0228
29012W        W29876  20.787   2.950   9.397 -0.1581 -0.0548  0.0049
29013W        W29877  21.954  28.841   8.612  0.0053  0.1365  0.0722
29014W        W29878  18.385   3.003   8.587  0.0750  0.0811  0.0182
29015W        W29879  21.225   3.468   6.633  0.2957  0.2760  0.1763
29016W        W29880  22.840   0.157   9.366  0.0675 -0.1873 -0.1049
29017W        W29881  17.545   2.153   7.611 -0.0826  0.1450 -0.0899
29018W        W29882  21.550   1.353   8.858  0.1481 -0.0201 -0.1148
29019W        W29883  18.005   2.187   9.330 -0.0930 -0.0063  0.0704
29020W        W29884  22.102   2.308   6.049  0.0241  0.3413  0.0956
29021W        W29885  18.263   2.828   7.259  0.1205 -0.0204 -0.2853
29022W        W29886  20.066   1.275   7.836 -0.3219  0.2154 -0.1028
29023W        W29887  18.603   1.309   9.390  0.2086 -0.0170 -0.1409
29024W        W29888  20.874   4.235   8.044  0.2139 -0.0368 -0.4479
29025W        W29889  20.308   0.898   7.592 -0.3232  0.0402  0.1812
29026W        W29890  20.454   1.424  12.417 -0.1616  0.0373  0.2627
29027W        W29891  18.744   1.920   8.703 -0.2195 -0.3283  0.0083
29028W        W29892  24.772  29.024   9.213  0.3496 -0.1106  0.0750
29029W        W29893  21.818   2.709   7.851 -0.2094 -0.0303 -0.0890
29030W        W29894  20.887   0.252   8.103  0.0152 -0.2236 -0.1958
29031W        W29895  17.789   2.116   6.873 -0.2152 -0.0205 -0.2229
29032W        W29896  20.996   0.651   9.213 -0.0344 -0.0633  0.0548
29033W        W29897  18.096  27.753   6.005  0.0336  0.0569 -0.0499
29034W        W29898  19.333   4.680   9.336  0.1353 -0.1053 -0.0257
29035W        W29899  19.382   0.101   7.176  0.1300  0.1453  0.1775
29036W        W29900  21.195  29.103   7.352 -0.1621  0.1057 -0.0929
29037W        W29901  21.218  27.171   8.577  0.0558  0.1721 -0.3304
29038W        W29902  17.931   2.852   8.796 -0.0562 -0.2920 -0.1713
29039W        W29903  19.815  28.287   7.901 -0.2081  0.0809 -0.0403
29040W        W29904  19.185   0.525   6.916 -0.3192  0.0193 -0.0871
29041W        W29905  20.416  28.683   8.461  0.0306  0.2634 -0.0500
29042W        W29906  16.601  28.924  12.481 -0.0920  0.0260  0.2577
29043W        W29907  18.494   2.589  10.061 -0.0541  0.1395  0.1619
29044W        W29908  17.628   3.453  11.889  0.1872 -0.1519 -0.2069
29045W        W29909  18.749   2.388   8.355 -0.2622 -0.1133 -0.3411
29046W        W29910  19.742   1.157  10.585  0.0781  0.2600  0.0650
29047W        W29911  19.058   1.087   8.040 -0.2134  0.0194 -0.2340
29048W        W29912  17.870   2.412   8.072 -0.0458  0.0108  0.0952
29049W        W29913  17.333   5.417   7.903  0.0783 -0.0580  0.1853
29050W        W29914  18.925   2.402  10.272 -0.0710  0.0703  0.1419
29051W        W29915  20.747  28.820   8.018 -0.0992 -0.0291  0.0952
29052W        W29916  21.171   3.934   8.359 -0.0592  0.1682  0.1167
29053W        W29917  23.039  29.045   8.821  0.2436  0.0072 -0.0513
29054W        W29918  19.981   3.395   8.435 -0.2426  0.1545  0.0793
29055W        W29919  19.844   0.417   6.427 -0.0832  0.3125  0.1612
29056W        W29920  21.020   0.499   7.182 -0.3313  0.0998  0.1486
29057W        W29921  19.359   0.775   7.833 -0.3731  0.1678  0.0711
29058W        W29922  17.873   3.137  10.494 -0.3325  0.1587  0.0463
29059W        W29923  17.278   1.137   7.098  0.1118 -0.2122 -0.0261
29060W        W29924  18.268   4.034   6.807 -0.0979 -0.0371 -0.1551
29061W        W29925  21.094  28.884   8.885  0.2109  0.0564  0.1554
29062W        W29926  19.667   5.249   8.809 -0.0649 -0.1248 -0.0730
29063W        W29927  19.497  28.558   5.099  0.0789 -0.1289  0.0818
29064W        W29928  18.077   0.450   5.733  0.0528  0.3382  0.3379
29065W        W29929  19.783   0.966   7.627  0.1388  0.0527  0.3178
29066W        W29930  21.410   3.164   9.825  0.0593 -0.1416  0.0173
29067W        W29931  16.900   0.963  10.421 -0.1771 -0.0078  0.0546
29068W        W29932  23.984   3.237   9.726  0.0804  0.0667  0.0465
29069W        W29933  19.670  28.225   7.355 -0.0455  0.0603  0.0456
29070W        W29934  21.534   3.619   7.843  0.1386  0.1587  0.1513
29071W        W29935  20.450   1.571   8.012 -0.1465  0.0267  0.1674
29072W        W29936  16.804   4.216   9.326 -0.0210  0.4308  0.2470
29073W        W29937  18.430   4.680   7.989  0.0138 -0.1616 -0.1360
29074W        W29938  18.862   4.220   8.630 -0.1382  0.0433  0.0278
29075W        W29939  20.439  28.842   8.991  0.1368 -0.0792  0.1379
29076W        W29940  21.712  29.028  11.387  0.1202 -0.3225  0.0889
29077W        W29941  18.640   3.742   7.220  0.2070 -0.3313 -0.0494
29078W        W29942  20.629   1.770   8.807 -0.1432 -0.0573 -0.0777
29079W        W29943  16.965   1.516   8.579 -0.0518 -0.0695  0.0233
29080W        W29944  18.807  28.498   9.703 -0.1372 -0.0118  0.0595
29081W        W29945  22.070  27.956  11.362 -0.1868  0.1977  0.3214
29082W        W29946  20.052  27.871   7.317  0.3805 -0.0034  0.2675
29083W        W29947  20.916  28.219   9.566 -0.0719 -0.2996  0.0034
29084W        W29948  23.460   0.365   7.768 -0.0458  0.0414 -0.3525
29085W        W29949  18.924   1.227   8.946 -0.0830  0.1284  0.0994
29086W        W29950  21.062   1.488   8.916  0.3084 -0.0764  0.2737
29087W        W29951  18.277   1.625   6.337  0.0286 -0.2400  0.1846
29088W        W29952  19.118   1.321   9.428 -0.0198  0.2542 -0.1182
29089W        W29953  18.639   0.112   9.236  0.1614  0.0901  0.1355
29090W        W29954  20.143   2.231   3.533 -0.0700  0.1192 -0.0007
29091W        W29955  18.525   4.198   7.710  0.0807 -0.0569  0.1890
29092W        W29956  19.314  27.441   9.933  0.5311 -0.3245  0.2972
29093W        W29957  17.668   2.806  10.205  0.1425  0.1101  0.1894
29094W        W29958  21.910   0.082   8.322  0.2980  0.0339  0.3719
29095W        W29959  22.426   0.098  11.759  0.3685  0.0124 -0.1384
29096W        W29960  20.744   1.615  10.248 -0.0358 -0.0342 -0.0536
29097W        W29961  23.417  28.449   8.846  0.0507  0.0232  0.0398
29098W        W29962  21.163   1.577   7.265 -0.1011  0.0779 -0.4139
29099W        W29963  22.262   4.891   6.314  0.0535  0.0373 -0.0110
29100W        W29964  18.975   2.381  10.895 -0.1154  0.0841  0.0540
29101W        W29965  17.997   1.172  11.068 -0.0482 -0.1188 -0.0253
29102W        W29966  19.665  26.960   9.462  0.1848  0.0372  0.1087
29103W        W29967  21.361   1.131   6.005 -0.0064  0.1506  0.1223
29104W        W29968  16.196   2.496  13.190 -0.1661 -0.0750 -0.0205
29105W        W29969  17.417   1.489   7.514  0.0209  0.2148  0.0773
29106W        W29970  21.930   4.892   7.636 -0.3905  0.1348  0.0344
29107W        W29971  17.720   1.365  11.519  0.0814 -0.1132 -0.0835
29108W        W29972  20.237   0.922  11.298 -0.0658 -0.2671 -0.1906
29109W        W29973  21.044   0.887  10.738 -0.0678  0.1495 -0.0624
29110W        W29974  19.567   3.533  10.795  0.1265  0.2661 -0.3425
29111W        W29975  21.714   1.616   7.156 -0.0239 -0.2026 -0.0605
29112W        W29976  21.636  27.955   9.031 -0.2651 -0.0760 -0.4154
29113W        W29977  18.893  28.269  10.171 -0.1635  0.0686 -0.4011
29114W        W29978  17.028   5.715   9.591 -0.0185  0.0155 -0.1138
29115W        W29979  20.604   5.361   7.626  0.1051  0.2490  0.0613
29116W        W29980  19.522   0.146  10.505  0.0343  0.0369 -0.3456
29117W        W29981  21.945   1.344   8.431 -0.1793  0.1621  0.0467
29118W        W29982  19.908   2.709   6.890 -0.1105 -0.1595  0.1133
29119W        W29983  18.126   0.182   9.326 -0.1624  0.0180 -0.1653
29120W        W29984  18.418   1.946   9.069  0.1085 -0.2078  0.3189
29121W        W29985  19.734   2.620   7.707  0.0392  0.2625 -0.0898
29122W        W29986  17.837   2.554   6.550 -0.1473 -0.0301 -0.2277
29123W        W29987  18.589   3.927  11.095 -0.2891  0.0369 -0.3477
29124W        W29988  21.169  28.690   8.412 -0.0644  0.1406 -0.1268
29125W        W29989  19.479   3.306   5.703 -0.1455  0.1803 -0.2288
29126W        W29990  23.942   3.419   8.804  0.0499 -0.2555  0.0772
29127W        W29991  21.432   1.717   8.451 -0.0726  0.0504  0.0021
29128W        W29992  19.096   4.527  10.447  0.1122  0.5541  0.0827
29129W        W29993  19.833   4.724  11.247  0.1181 -0.0365 -0.1555
29130W        W29994  19.002   2.584   9.694  0.0697  0.0719  0.0634
29131W        W29995  17.917   1.337   7.692  0.0907  0.1698  0.1803
29132W        W29996  17.603   1.094   3.819 -0.0322  0.1100  0.0363
29133W        W29997  18.420   5.530   8.150  0.0105  0.0910  0.0297
29134W        W29998  19.648   2.380   7.234  0.1180 -0.0075  0.1267
29135W        W29999  18.448   1.524   6.927  0.3611  0.1935  0.2696
29136W        W30000  17.971   3.138   7.494 -0.0032  0.0870 -0.0962
29137W        W30001  20.289   2.346   6.095  0.3203  0.1962  0.1499
29138W        W30002  24.350   0.555   7.953  0.0944  0.1327 -0.1944
29139W        W30003  19.528  27.019   9.967  0.1072  0.1550 -0.1331
29140W        W30004  21.460   2.749   8.285  0.2956 -0.1067 -0.0806
29141W        W30005  22.617   1.806   6.629  0.3817 -0.0907 -0.0075
29142W        W30006  17.610   1.317  10.817  0.0610 -0.0892  0.2800
29143W        W30007  16.803   1.266   9.755  0.3192 -0.0338 -0.0190
29144W        W30008  18.333  28.870   8.989 -0.0919 -0.0389  0.0955
29145W        W30009  18.402  28.960   8.458  0.2320  0.0239 -0.3035
29146W        W30010  19.384   3.243   9.465 -0.1530 -0.2483  0.0972
29147W        W30011  20.187   4.414   8.504  0.0386  0.0351 -0.3979
29148W        W30012  19.709   0.890   8.740 -0.0365  0.0817 -0.0505
29149W        W30013  21.024   1.676   8.081  0.4025 -0.2290  0.0002
29150W        W30014  19.331   2.874  11.081  0.3763  0.0675 -0.0620
29151W        W30015  19.971  28.909   4.755  0.0781  0.3175 -0.0798
29152W        W30016  17.823   1.160   7.119  0.0567  0.1355  0.0157
29153W        W30017  20.467   3.387  10.296 -0.0373  0.1542 -0.3175
29154W        W30018  21.901   1.822   7.977 -0.3431 -0.1705  0.3998
29155W        W30019  18.606   1.306   8.245 -0.0369  0.0793 -0.1703
29156W        W30020  20.839   4.665   4.741 -0.1700 -0.0889  0.0958
29157W        W30021  21.497  28.251   9.417  0.2206  0.0420 -0.3001
29158W        W30022  19.011  29.148   8.224 -0.0865  0.0909 -0.3724
29159W        W30023  16.800   1.776   9.881 -0.0925  0.2994  0.2311
29160W        W30024  23.463   0.976   7.916  0.0931  0.0603  0.2496
29161W        W30025  17.551   2.012   9.024  0.0169  0.0878  0.3361
29162W        W30026  19.280   2.082   9.864 -0.1191  0.0302 -0.2543
29163W        W30027  20.738   0.045   7.025 -0.0513 -0.0631  0.0953
29164W        W30028  19.933   1.130   8.371 -0.0578 -0.0581  0.0328
29165W        W30029  18.423   3.749   7.902 -0.0484 -0.1266  0.1095
29166W        W30030  20.327   1.285   8.693 -0.1684 -0.0647  0.1915
29167W        W30031  22.540   0.393  10.602  0.1422 -0.1322 -0.0626
29168W        W30032  18.329   1.496   7.386 -0.1162 -0.1742 -0.1937
29169W        W30033  17.291   4.753  10.190  0.3223  0.1043 -0.0557
29170W        W30034  22.411   1.696   8.338  0.1504  0.0146  0.1102
29171W        W30035  20.164   2.322   7.068 -0.0780  0.0191 -0.0976
29172W        W30036  21.194   0.378   6.713 -0.0483  0.1865 -0.0049
29173W        W30037  21.528  28.228   6.180 -0.0514  0.1179  0.0536
29174W        W30038  18.571   0.750   8.088  0.1402 -0.0755  0.1479
29175W        W30039  18.165   1.574   8.356 -0.2182 -0.0020 -0.1927
29176W        W30040  18.856   3.244   9.391  0.3066  0.2941  0.1283
29177W        W30041  19.657   0.012   8.867  0.1516 -0.0636 -0.1711
29178W        W30042  22.224  28.550   9.920  0.0212  0.1066  0.1463
29179W        W30043  22.245   1.968  12.586  0.1152 -0.0452  0.0500
29180W        W30044  20.339  28.462   7.858 -0.1337  0.0914  0.0852
29181W        W30045  17.264   3.972   9.163 -0.2929 -0.1969 -0.0635
29182W        W30046  18.211   3.289   6.483 -0.0640  0.2934 -0.0475
29183W        W30047  19.770  28.492  11.463  0.2741 -0.2277 -0.0290
29184W        W30048  18.891   1.436  10.609 -0.1881 -0.0071 -0.0320
29185W        W30049  24.046   2.453   8.969 -0.0322  0.1917  0.1288
29186W        W30050  19.957   3.210   6.975 -0.1023 -0.0959 -0.0026
29187W        W30051  20.383   6.660   7.746 -0.2532  0.1788 -0.0142
29188W        W30052  21.699   2.807  12.401 -0.0418  0.2146  0.0229
29189W        W30053  19.603  28.705   6.566 -0.0295  0.3590 -0.1579
29190W        W30054  19.486   1.074  11.793 -0.0703  0.1420 -0.0517
29191W        W30055  20.338   0.333   7.672 -0.1481  0.1815  0.1193
29192W        W30056  18.924  28.034   6.895 -0.1850 -0.1611  0.3014
29193W        W30057  17.282   2.791   9.706 -0.0011  0.4439 -0.0721
29194W        W30058  20.149   0.317   9.715 -0.0220 -0.0435  0.1204
29195W        W30059  20.381   2.723   5.218  0.2177  0.0945  0.0447
29196W        W30060  16.945   3.563   9.365 -0.2728  0.5610  0.0902
29197W        W30061  19.693   2.719  10.541 -0.0180  0.3904  0.1337
29198W        W30062  18.744  29.022   7.188 -0.1512  0.2335 -0.2642
29199W        W30063  19.697   0.450   6.985  0.2731 -0.2163 -0.1709
29200W        W30064  19.922   2.383   9.314  0.2826  0.0083  0.2643
29201W        W30065  19.036  27.362   7.824  0.0070  0.2327 -0.1534
29202W        W30066  20.549  28.467   9.829 -0.1098  0.2259 -0.0200
29203W        W30067  21.541   3.278   3.887  0.2985 -0.2334  0.1486
29204W        W30068  19.863   1.962   7.437  0.0711  0.0769  0.1047
29205W        W30069  21.000   3.034   8.084 -0.0365 -0.1228  0.1823
29206W        W30070  21.175   4.437   8.868 -0.3083 -0.0223 -0.3073
29207W        W30071  19.725   0.711  11.178 -0.1671 -0.0381 -0.0349
29208W        W30072  17.743   3.731   9.363  0.3257 -0.0132  0.3297
29209W        W30073  23.865   0.010   9.086 -0.1111  0.2474 -0.2166
29210W        W30074  18.664   4.168  10.589  0.1429 -0.4140 -0.0004
29211W        W30075  20.275   0.097   9.226  0.1395 -0.2773 -0.1971
29212W        W30076  23.605  28.581   8.402  0.0871  0.0157 -0.0261
29213W        W30077  23.046   2.108  10.000 -0.6260  0.2307  0.0895
29214W        W30078  19.003  28.384   8.852 -0.2161 -0.2755 -0.1361
29215W        W30079  22.251   0.980  10.214 -0.2275  0.3278  0.0756
29216W        W30080  21.223   0.293  12.316 -0.0566 -0.0632  0.3199
29217W        W30081  16.641   1.127   8.667  0.0351  0.2322  0.2480
29218W        W30082  21.675   4.186   7.547 -0.0649 -0.0293  0.2908
29219W        W30083  17.566   2.583   9.300  0.0686  0.1077  0.1265
29220W        W30084  20.579  28.158   7.514 -0.0512 -0.2994 -0.1795
29221W        W30085  20.456   3.599   8.174 -0.0628  0.0417 -0.1426
29222W        W30086  20.115  29.148   8.696  0.2406  0.1287 -0.2465
29223W        W30087  20.279   1.655   7.537 -0.0941  0.1847  0.1330
29224W        W30088  16.729   2.855   9.795  0.2474  0.1358  0.1304
29225W        W30089  18.537   2.846   8.115  0.0954 -0.0370 -0.2181
29226W        W30090  19.440   1.821   8.806  0.0327 -0.1127  0.1757
29227W        W30091  17.092   2.460  10.652  0.0140  0.0020 -0.3040
29228W        W30092  18.048   1.227   8.727  0.0184  0.2138  0.2179
29229W        W30093  19.517   0.453   9.114  0.2934  0.1382 -0.1379
29230W        W30094  20.661   1.207   7.686 -0.4013  0.0036  0.0432
29231W        W30095  22.356   0.487   9.304 -0.0292  0.2057  0.0356
29232W        W30096  21.731   1.991   6.191  0.0129 -0.0788  0.1765
29233W        W30097  22.220   5.292   8.834  0.0682  0.1816  0.2287
29234W        W30098  20.962   5.116   9.564  0.2804 -0.0316 -0.2015
29235W        W30099  20.085   3.471   9.936 -0.1018  0.0174  0.3298
29236W        W30100  23.296   0.754   8.365 -0.1458 -0.0848 -0.1975
29237W        W30101  17.003   4.022   9.737 -0.0777 -0.1162  0.0444
29238W        W30102  21.505   2.216   8.526  0.0242  0.1376  0.2430
29239W        W30103  17.280   3.823  12.817  0.1297  0.0854  0.0169
29240W        W30104  19.172  28.843   6.927  0.3017 -0.1878  0.0391
29241W        W30105  20.669  27.161   8.539  0.0559  0.1045 -0.0341
29242W        W30106  22.421   0.817   9.769  0.0139  0.1850 -0.1381
29243W        W30107  18.672   5.201   9.811  0.0761 -0.2608  0.0908
29244W        W30108  20.755  28.815   7.384 -0.2239  0.1076  0.2673
29245W        W30109  22.051   0.590   8.272 -0.0671  0.1680  0.1340
29246W        W30110  21.102   1.363   9.779 -0.2365 -0.1116  0.2493
29247W        W30111  16.332   1.478  11.469 -0.0489 -0.1383  0.0152
29248W        W30112  19.022   0.355   9.562  0.3312  0.1563  0.4549
29249W        W30113  22.605  29.099   8.994  0.0987  0.2348  0.4353
29250W        W30114  18.706   3.217   6.224  0.3282  0.0389 -0.0512
29251W        W30115  19.665  29.112   8.425 -0.1618  0.0057  0.1719
29252W        W30116  21.762   3.988   6.404  0.2416 -0.0212 -0.1059
29253W        W30117  18.884   1.741   9.187 -0.0429 -0.1898  0.2098
29254W        W30118  21.487   2.438   7.184  0.1426  0.0000  0.0679
29255W        W30119  21.022   1.852   9.777 -0.0528 -0.0723  0.3564
29256W        W30120  16.872   1.992   9.402 -0.2075 -0.0847 -0.2923
29257W        W30121  20.180   3.261  10.694 -0.0100 -0.1214 -0.5049
29258W        W30122  20.724  26.640  11.285 -0.2656  0.0114  0.0884
29259W        W30123  19.455   0.566   9.661 -0.0164  0.0165  0.2030
29260W        W30124  21.052  27.818   9.820  0.0418  0.0728 -0.0340
29261W        W30125  14.152   3.532   9.743 -0.4266  0.0498  0.1745
29262W        W30126  16.542   0.125   5.609  0.1075 -0.2246  0.2025
29263W        W30127  18.068   2.973   5.958 -0.2159 -0.1626 -0.2655
29264W        W30128  20.528   2.488   9.320  0.0715 -0.1059 -0.1407
29265W        W30129  18.980  27.849   9.973 -0.0518 -0.1113  0.2667
29266W        W30130  21.442   4.499   5.546  0.2739 -0.0147 -0.0084
29267W        W30131  19.507   2.222   9.104  0.2783 -0.1368  0.0036
29268W        W30132  18.828   3.458  11.141 -0.0271  0.2629 -0.1114
29269W        W30133  23.279   1.033   7.477  0.0417  0.1265  0.1894
29270W        W30134  15.350   3.005   8.564 -0.1152  0.3034 -0.0520
29271W        W30135  19.603   1.690   8.316  0.2174 -0.0833  0.1777
29272W        W30136  18.770   2.763   6.726  0.0467 -0.0765  0.0209
29273W        W30137  17.753   1.938   8.444 -0.0927 -0.2515 -0.2598
29274W        W30138  19.589   1.950  11.170 -0.1182 -0.0572  0.1141
29275W        W30139  18.805   1.715   9.761 -0.3762 -0.1646 -0.0887
29276W        W30140  20.121   5.105   7.713 -0.3293  0.0454 -0.2763
29277W        W30141  21.307   2.775  12.136  0.2019  0.0023  0.0383
29278W        W30142  17.434   2.727   6.820 -0.2719 -0.0270 -0.1698
29279W        W30143  19.293   2.917   7.077  0.0253  0.1252  0.0211
29280W        W30144  17.470   2.953  11.833  0.0852  0.1976 -0.2735
29281W        W30145  20.919   3.439  12.759  0.0989 -0.0768 -0.0985
29282W        W30146  23.954   1.693   8.972  0.0062  0.1629 -0.3799
29283W        W30147  20.412   1.123  13.345 -0.2028  0.0021  0.1437
29284W        W30148  18.491   2.517  10.873  0.1725  0.0498  0.0442
29285W        W30149  19.998   0.751  10.453 -0.1688  0.1580 -0.1819
29286W        W30150  16.403   2.233  10.017 -0.4154  0.0298  0.1125
29287W        W30151  19.310   0.882  12.927  0.0462 -0.0312 -0.0124
29288W        W30152  18.479   3.230  14.423 -0.4096 -0.3361 -0.2346
29289W        W30153  19.628   1.551  15.965  0.1247 -0.1898  0.2692
29290W        W30154  18.772  27.347  14.167 -0.4944 -0.0113  0.0286
29291W        W30155  20.163   0.129  11.806  0.3170  0.0861 -0.2062
29292W        W30156  18.835  29.130  10.911  0.0988 -0.0132 -0.0791
29293W        W30157  20.805   0.533  13.919  0.0291 -0.1462 -0.0152
29294W        W30158  16.932  28.959  14.457  0.1782  0.0641 -0.0243
29295W        W30159  19.042   0.578  14.070  0.1136  0.0700  0.1540
29296W        W30160  17.829   3.909  10.063  0.0788  0.2059 -0.0002
29297W        W30161  18.764  28.837  11.335 -0.0101 -0.2338 -0.1427
29298W        W30162  20.444   2.583  12.846 -0.1228 -0.0861 -0.0250
29299W        W30163  22.901  27.990  13.591  0.1245  0.0256  0.1136
29300W        W30164  20.303   0.648  13.613  0.1324 -0.2036 -0.1590
29301W        W30165  19.228   2.068  10.612 -0.2566 -0.0878  0.2034
29302W        W30166  19.439   4.052  10.471 -0.1039 -0.4174  0.0808
29303W        W30167  17.851   2.145  11.867 -0.2787 -0.1514  0.0595
29304W        W30168  17.890   0.962  12.936 -0.0350  0.3107 -0.0239
29305W        W30169  19.429   2.435  16.743  0.2245  0.1576  0.2032
29306W        W30170  21.492   0.690  10.894 -0.2453 -0.0070 -0.3062
29307W        W30171  20.852   2.449  11.490  0.0167 -0.0420  0.0816
29308W        W30172  20.365   3.361  11.119 -0.0155 -0.0878 -0.0705
29309W        W30173  19.420   2.661  13.634  0.1123  0.0162  0.0898
29310W        W30174  20.887   1.821  12.317 -0.0619  0.0388  0.0133
29311W        W30175  18.339   4.350  15.664  0.1727 -0.0435  0.3695
29312W        W30176  19.167   3.983  13.025  0.1460  0.2432  0.2277
29313W        W30177  20.202   1.966  13.440  0.1181  0.4122  0.2922
29314W        W30178  17.864  28.525  16.750  0.0049 -0.1557 -0.0040
29315W        W30179  19.877   0.858  15.676  0.1555 -0.0856 -0.2724
29316W        W30180  17.681   1.565   9.973  0.0738  0.0550  0.0371
29317W        W30181  21.633   2.843  13.073  0.4179  0.1048  0.1583
29318W        W30182  19.752   3.054  10.923 -0.1437 -0.0893 -0.3308
29319W        W30183  21.467   0.192  11.797 -0.3572 -0.0419 -0.2769
29320W        W30184  19.294   2.328  12.592  0.0356 -0.0301 -0.0701
29321W        W30185  22.725   1.254  12.248 -0.3196 -0.1093  0.0308
29322W        W30186  20.887   3.420  11.150 -0.2911 -0.0312 -0.0717
29323W        W30187  21.813   0.701  10.101 -0.2175 -0.1897 -0.0579
29324W        W30188  20.781   6.984  13.358 -0.3384  0.2895 -0.1643
29325W        W30189  18.065   3.614  13.695 -0.1403 -0.2075 -0.2061
29326W        W30190  20.236   0.789  18.067  0.0718  0.3358 -0.3690
29327W        W30191  21.495   1.309  12.075  0.1613  0.1639 -0.2267
29328W        W30192  20.897   1.897  10.654  0.0642  0.1350 -0.2602
29329W        W30193  20.402   2.524  10.177 -0.2371 -0.2553 -0.4453
29330W        W30194  22.061   2.485  12.761  0.0706  0.0887 -0.1132
29331W        W30195  19.892   2.883  12.216  0.0470 -0.0247  0.0932
29332W        W30196  18.252   2.524   8.393 -0.1276  0.3817 -0.1090
29333W        W30197  21.499   2.443   8.979 -0.0226 -0.2019  0.1828
29334W        W30198  22.830   2.018  12.481  0.1905 -0.1342  0.2465
29335W        W30199  15.452   2.469  11.334 -0.0689 -0.2669 -0.1833
29336W        W30200  19.115   1.146  13.303 -0.0384 -0.1639  0.1745
29337W        W30201  17.853   1.211  11.956  0.0046  0.0664 -0.1400
29338W        W30202  18.773   1.841  14.900  0.0157 -0.3104  0.0492
29339W        W30203  19.096   3.306  10.679 -0.2562 -0.0256  0.0114
29340W        W30204  19.272   1.103  10.770 -0.0663  0.0238 -0.0459
29341W        W30205  20.592   0.162   9.917  0.1543  0.2617  0.0383
29342W        W30206  19.137   1.404  16.069  0.6757  0.3784 -0.0401
29343W        W30207  17.536   2.972  11.339  0.1651  0.0483 -0.0599
29344W        W30208  18.860   0.077  14.027 -0.0807  0.1296 -0.0739
29345W        W30209  20.382   0.547  10.101  0.2070 -0.0167  0.2441
29346W        W30210  17.311   1.068   7.944  0.2747 -0.1971 -0.0980
29347W        W30211  18.706   1.599  12.067  0.0701  0.3759  0.0118
29348W        W30212  18.530   5.490  12.232  0.0021 -0.1015  0.0598
29349W        W30213  18.869   3.275  14.125  0.0670 -0.3276 -0.1847
29350W        W30214  19.550   0.713  14.311 -0.1000  0.0133  0.0708
29351W        W30215  18.658   2.663  12.203 -0.0231 -0.1022  0.1436
29352W        W30216  22.308   3.849  14.507  0.1001 -0.1422 -0.1043
29353W        W30217  21.660  28.329  13.674  0.1892 -0.0237  0.0365
29354W        W30218  22.535   3.927  13.504  0.1466 -0.2805  0.1068
29355W        W30219  17.640   0.977  13.846 -0.0373  0.0546  0.1413
29356W        W30220  17.571   2.519  11.059  0.0187  0.1264  0.2156
29357W        W30221  17.743   3.694  12.333  0.1529 -0.1462  0.2066
29358W        W30222  19.349   2.496  11.396  0.1421  0.0383 -0.1793
29359W        W30223  19.605   1.197   9.209  0.0791  0.3819 -0.1038
29360W        W30224  18.454   2.331  11.803 -0.1025  0.0307 -0.2692
29361W        W30225  21.637   1.649  17.071 -0.2105  0.0229 -0.1136
29362W        W30226  18.393   1.590  13.560  0.5157  0.1603 -0.1574
29363W        W30227  19.029   0.875  11.924 -0.1611  0.2729  0.0252
29364W        W30228  19.613   0.528  13.063 -0.1434 -0.1253 -0.0602
29365W        W30229  19.758  28.966  11.200  0.3149 -0.3925  0.0666
29366W        W30230  21.011   1.769  13.970  0.0841  0.1374  0.1905
29367W        W30231  18.544   1.928  13.920  0.0205  0.3099  0.2220
29368W        W30232  19.088   2.000  12.961  0.0201  0.0188 -0.2485
29369W        W30233  22.058  28.866  14.484 -0.1798 -0.2057 -0.3285
29370W        W30234  21.809  27.499  12.169  0.0305 -0.1145  0.1219
29371W        W30235  22.947   3.007  13.068 -0.2417 -0.0371 -0.0993
29372W        W30236  17.822   4.390  10.788 -0.2426  0.0546 -0.0284
29373W        W30237  17.892   1.976  12.389  0.4054 -0.1056 -0.2160
29374W        W30238  20.085  27.625  11.395  0.0464 -0.2200  0.3090
29375W        W30239  19.818   0.749   9.408 -0.2410  0.1275 -0.1292
29376W        W30240  23.582   0.911  11.991  0.1442  0.0808 -0.0526
29377W        W30241  22.447   2.907  14.274  0.1973  0.0863  0.1621
29378W        W30242  17.882  28.162  11.204  0.0638  0.2307  0.3196
29379W        W30243  21.584  29.138  12.277 -0.1331  0.0726  0.4107
29380W        W30244  20.776   1.710  11.147  0.0681  0.2605 -0.1392
29381W        W30245  16.453   1.548  13.821 -0.0872 -0.2797  0.1273
29382W        W30246  20.776   0.211   9.036 -0.0338 -0.3467  0.1015
29383W        W30247  23.450   3.378  13.602 -0.0093 -0.0753 -0.0735
29384W        W30248  18.199   2.354  12.243 -0.1769 -0.0429  0.1023
29385W        W30249  20.370   4.238  16.233  0.1743  0.1292 -0.0736
29386W        W30250  20.362   2.543  12.072  0.3024  0.2209  0.1244
29387W        W30251  20.735   4.902  14.474  0.0770 -0.1537  0.2840
29388W        W30252  19.480   2.175  11.720 -0.1539  0.0913 -0.0028
29389W        W30253  15.419   3.609  12.105  0.0882  0.0165 -0.0153
29390W        W30254  17.903   4.853  10.992 -0.0343 -0.0434 -0.0402
29391W        W30255  21.356   1.345  14.002  0.0631 -0.0609 -0.2762
29392W        W30256  21.101   4.016  13.822  0.0847  0.0892  0.0883
29393W        W30257  19.615   2.908  16.827 -0.1875 -0.1643 -0.3156
29394W        W30258  19.779   2.162   9.735 -0.0192 -0.2536 -0.0344
29395W        W30259  19.631   3.818  11.526  0.2130 -0.0043 -0.0518
29396W        W30260  21.390   0.336  12.877 -0.1375  0.1175  0.1773
29397W        W30261  22.448   1.667  12.249  0.0995  0.0832  0.0281
29398W        W30262  20.213   2.476   9.747 -0.0745  0.0508 -0.0414
29399W        W30263  20.633   2.324  12.492 -0.1172  0.4477 -0.0460
29400W        W30264  22.979   0.476  11.131  0.1905 -0.1013  0.0664
29401W        W30265  21.120   2.570   8.633 -0.2258 -0.1855 -0.0717
29402W        W30266  20.126   1.906  10.118  0.1148  0.0929 -0.0272
29403W        W30267  20.171   0.415  11.404 -0.2090  0.0830  0.1853
29404W        W30268  18.531   4.097  12.359 -0.1887 -0.0700 -0.1825
29405W        W30269  20.576   2.142  11.112 -0.0268  0.0655  0.2532
29406W        W30270  18.686   2.504  14.097  0.1984  0.1610  0.3113
29407W        W30271  20.758  29.009  14.663  0.0379  0.0482 -0.3034
29408W        W30272  22.468   2.526  13.065  0.2087 -0.0410 -0.0957
29409W        W30273  17.442   2.933   8.839 -0.2193  0.0009  0.2015
29410W        W30274  20.787   2.257  11.998  0.3843  0.2009 -0.0016
29411W        W30275  19.762  27.684  13.033  0.2691  0.1125  0.1945
29412W        W30276  18.803   2.562  15.402 -0.2023 -0.2268 -0.3425
29413W        W30277  19.955   2.325  10.353  0.0330  0.0667  0.1869
29414W        W30278  20.410   1.626  13.175  0.4082  0.0613  0.1228
29415W        W30279  17.900   1.377  10.422  0.0509 -0.1293 -0.0140
29416W        W30280  20.642  28.436  12.329  0.2553  0.2801 -0.2803
29417W        W30281  21.250   1.060  11.687 -0.0130  0.2610 -0.4784
29418W        W30282  18.585   2.238   9.435  0.0412 -0.1910 -0.2761
29419W        W30283  17.201   4.401  12.248  0.0496  0.1124 -0.0535
29420W        W30284  17.989   0.874  11.589 -0.0792  0.3850  0.0475
29421W        W30285  18.606  29.128  15.244 -0.5019  0.2703  0.2202
29422W        W30286  20.652   3.643  10.730 -0.1123 -0.1126  0.1321
29423W        W30287  19.805   0.284  10.984  0.0837  0.2477 -0.0275
29424W        W30288  19.692   2.709  13.207  0.0780  0.1900 -0.1962
29425W        W30289  19.316  27.821   9.542 -0.2285  0.1983  0.1692
29426W        W30290  21.783  26.942  16.246  0.1181 -0.1181  0.3634
29427W        W30291  20.372   1.186  10.245  0.1081  0.0117  0.0063
29428W        W30292  21.634   0.901  12.997  0.3522  0.0216  0.1909
29429W        W30293  18.237   4.111  11.508 -0.0184  0.1233  0.0151
29430W        W30294  20.931   1.360  10.612  0.0163 -0.1680  0.0417
29431W        W30295  20.239   1.103  11.779 -0.2032 -0.0100 -0.1084
29432W        W30296  18.676   2.246  13.090 -0.1188  0.1212  0.2368
29433W        W30297  18.171  28.661  11.640  0.3230 -0.0492  0.0128
29434W        W30298  23.129   1.106  13.253 -0.1844  0.4069 -0.1123
29435W        W30299  22.333  27.981  15.272 -0.0871 -0.1992 -0.2563
29436W        W30300  15.969   3.086  12.467  0.1334  0.0779 -0.0602
29437W        W30301  19.611   1.841  10.216  0.0658 -0.4202 -0.1461
29438W        W30302  19.406   3.399  11.236 -0.0536 -0.0375 -0.0695
29439W        W30303  20.434   3.567  15.531  0.3286  0.0712  0.0208
29440W        W30304  20.525   1.151  14.450 -0.5659  0.1967 -0.1063
29441W        W30305  22.121   2.053  13.132 -0.2613 -0.1571  0.2379
29442W        W30306  18.192   3.489  11.872  0.0388 -0.0009  0.1432
29443W        W30307  21.582   0.683  11.858  0.1506  0.1264 -0.0827
29444W        W30308  22.456  29.122  14.213  0.2930 -0.1663 -0.0858
29445W        W30309  19.234   0.242  13.081 -0.0380 -0.0472 -0.0711
29446W        W30310  19.021   1.755  12.428  0.2409  0.1431 -0.1827
29447W        W30311  19.313   5.561  13.408  0.0721  0.1962 -0.3235
29448W        W30312  20.829   0.844  15.484 -0.2162 -0.2613  0.0755
29449W        W30313  19.987   1.573  10.585 -0.3834  0.1852  0.2224
29450W        W30314  21.803   0.191  10.180 -0.0485 -0.0214 -0.3465
29451W        W30315  22.102   5.080  13.129  0.1390  0.2231  0.0719
29452W        W30316  21.706   4.272  11.306  0.1164 -0.0937  0.0499
29453W        W30317  18.603   1.326  11.095 -0.3270 -0.1929 -0.1202
29454W        W30318  20.931  27.590  12.327 -0.1681 -0.1419  0.0236
29455W        W30319  20.917  27.272   9.884 -0.0322  0.3060  0.0152
29456W        W30320  20.520   3.932  16.605 -0.2597  0.0049 -0.0625
29457W        W30321  18.188   5.163  13.650  0.0530  0.1646  0.3412
29458W        W30322  17.601   5.061  12.366 -0.0038 -0.3251  0.0868
29459W        W30323  19.471   0.933  12.274 -0.0765  0.1452 -0.0308
29460W        W30324  17.407   0.929  11.627 -0.0111  0.1058 -0.0412
29461W        W30325  20.911   3.163   9.984 -0.0418 -0.0372  0.0491
29462W        W30326  16.143   2.123  10.806 -0.3308 -0.1772  0.0554
29463W        W30327  17.358   1.670  11.212 -0.1307  0.4555  0.1506
29464W        W30328  16.497   0.976  12.103 -0.1164 -0.3046  0.2189
29465W        W30329  21.711   2.325  12.993  0.0559  0.0847 -0.1318
29466W        W30330  19.556   0.916  10.150 -0.1922 -0.0476 -0.0235
29467W        W30331  17.432  29.031   9.824  0.0055  0.0798 -0.0628
29468W        W30332  20.258   3.502  12.215 -0.0478  0.1941 -0.0340
29469W        W30333  21.177   2.609  13.949 -0.0110 -0.1693 -0.2071
29470W        W30334  18.585   2.252  11.323  0.0082 -0.0245 -0.0787
29471W        W30335  17.012   5.162  12.604 -0.0821 -0.0464  0.2258
29472W        W30336  19.685   0.102  16.189  0.0984 -0.1759 -0.0452
29473W        W30337  20.650  28.892  11.769  0.1626  0.0180  0.1407
29474W        W30338  22.988   0.645  13.126 -0.1272  0.0280 -0.0042
29475W        W30339  17.785   0.077  12.402 -0.1555  0.0287 -0.1469
29476W        W30340  19.868  26.335   9.719 -0.1146  0.0425  0.2111
29477W        W30341  19.459  26.751  13.120  0.1148 -0.0003 -0.1233
29478W        W30342  18.030  26.140  10.829 -0.2346 -0.1039 -0.0547
29479W        W30343  21.105   0.817  11.261  0.0251 -0.0750  0.0509
29480W        W30344  19.982   1.745  11.546 -0.2284  0.1256  0.4134
29481W        W30345  19.203   1.543  14.333  0.0783 -0.0891 -0.2359
29482W        W30346  23.571   2.914  10.344 -0.0681 -0.2514 -0.0397
29483W        W30347  19.125   1.819  11.839  0.1334  0.0501  0.3457
29484W        W30348  21.841   0.104  13.571 -0.1586 -0.3355  0.1294
29485W        W30349  18.285   3.492  12.966 -0.0618 -0.0765  0.0287
29486W        W30350  19.626   2.637  14.187  0.3173  0.0081  0.0603
29487W        W30351  22.898   4.550  13.406  0.1202  0.0753 -0.1653
29488W        W30352  20.057   2.198  11.340 -0.0899 -0.1547 -0.1811
29489W        W30353  15.473   3.161  12.465 -0.0419 -0.0230 -0.0460
29490W        W30354  20.736   1.811  13.576 -0.0177 -0.0386 -0.3199
29491W        W30355  18.166   0.748  12.119 -0.0818  0.0407 -0.2367
29492W        W30356  20.334   0.808  15.531 -0.1246  0.3968 -0.2321
29493W        W30357  21.525  28.354  16.493  0.1758 -0.3698 -0.1403
29494W        W30358  20.811   1.884  12.863  0.1749  0.0208 -0.2679
29495W        W30359  22.342   2.114   7.914  0.2305  0.0357  0.1771
29496W        W30360  20.672   2.303   8.830 -0.1484 -0.2376 -0.0408
29497W        W30361  19.926   2.225   8.818  0.2480  0.0183  0.2440
29498W        W30362  20.585   1.545  17.287 -0.1664 -0.1594  0.1985
29499W        W30363  18.122   1.338  14.484 -0.0702  0.2040  0.1788
29500W        W30364  20.330   0.862  12.508 -0.1090  0.1358  0.0868
29501W        W30365  19.222  27.193  14.228  0.0940  0.2807 -0.0897
29502W        W30366  19.057   4.631  15.784 -0.3518 -0.1018 -0.1270
29503W        W30367  22.730  28.182  10.861 -0.0848  0.1331  0.1429
29504W        W30368  22.491   2.370   8.961  0.0568 -0.2242  0.2062
29505W        W30369  18.841   0.384  16.637 -0.2266 -0.1045 -0.3637
29506W        W30370  19.834   3.541  13.963  0.0763  0.2267  0.1957
29507W        W30371  18.304   0.603  13.106  0.0820 -0.0180  0.0785
29508W        W30372  22.012   2.457  11.187 -0.1167  0.0645  0.0053
29509W        W30373  22.665   1.225  13.090  0.1696 -0.1502 -0.0751
29510W        W30374  19.644   0.305  14.001  0.2203  0.2523  0.0592
29511W        W30375  20.383   2.980  11.949 -0.1768  0.0963  0.0505
29512W        W30376  16.920   1.947  10.809 -0.3930 -0.0338  0.2451
29513W        W30377  20.354   1.965  10.585 -0.1457  0.3304 -0.0307
29514W        W30378  20.024   0.904  16.900  0.2305  0.0671 -0.0805
29515W        W30379  20.349   3.878  10.423 -0.2441  0.3391  0.4391
29516W        W30380  21.360   0.718   8.863  0.0853 -0.1863  0.0581
29517W        W30381  20.768   0.798  13.481  0.1926 -0.0417  0.1778
29518W        W30382  23.477   3.045  12.167  0.1136 -0.0473 -0.0809
29519W        W30383  19.724   5.070   9.294 -0.1693  0.1428 -0.3348
29520W        W30384  18.442   2.807  11.791  0.0269 -0.0245 -0.0386
29521W        W30385  17.840   3.745  12.906  0.0412  0.2689  0.0787
29522W        W30386  18.851   0.384  15.096 -0.0220 -0.0131  0.1073
29523W        W30387  20.331   0.615  11.967  0.0400 -0.1256 -0.3068
29524W        W30388  20.624  28.632  11.351  0.1513 -0.3626 -0.3077
29525W        W30389  16.482   2.820  12.663  0.0369 -0.0138 -0.1662
29526W        W30390  21.412   0.323  10.463 -0.0497  0.2633 -0.1367
29527W        W30391  19.172   2.275  13.937 -0.1691 -0.2753  0.1427
29528W        W30392  20.033   0.839  13.137 -0.0268 -0.2341  0.0079
29529W        W30393  19.559   1.390  12.474 -0.2163  0.0122 -0.2833
29530W        W30394  16.593   0.992  11.364 -0.0169  0.1658 -0.2245
29531W        W30395  19.445   3.101  12.227 -0.0468 -0.2696 -0.0619
29532W        W30396  22.294   0.634  14.502 -0.3170 -0.3114 -0.1264
29533W        W30397  22.468   3.165  14.800 -0.1086 -0.1230  0.1176
29534W        W30398  16.741  29.059  13.139  0.1862  0.1138  0.3565
29535W        W30399  19.826   3.284  12.468  0.6000  0.3430  0.1782
29536W        W30400  19.095  29.100  10.235  0.1251 -0.0043  0.0465
29537W        W30401  19.002   1.366  11.654  0.4511 -0.0644  0.2102
29538W        W30402  22.385   3.921  11.774  0.3189 -0.0636  0.2012
29539W        W30403  21.571   1.013  11.304  0.1733  0.0065  0.0130
29540W        W30404  18.305  27.504  11.532 -0.0955 -0.0850 -0.0076
29541W        W30405  20.351   1.813  12.707  0.0532 -0.0043 -0.3835
29542W        W30406  23.463   2.465  12.059 -0.1748 -0.0317 -0.1152
29543W        W30407  20.588  27.831  15.021  0.2636 -0.3664 -0.1535
29544W        W30408  19.149   1.567  11.104 -0.3402  0.0278 -0.0153
29545W        W30409  19.414   5.007  15.716  0.0831 -0.0145 -0.2098
29546W        W30410  18.769   5.267  10.823  0.3803 -0.0046  0.0122
29547W        W30411  21.733   3.794   9.222 -0.0943  0.1401 -0.0081
29548W        W30412  19.614   0.989  13.383 -0.2686  0.0813  0.1813
29549W        W30413  22.963   1.284   9.651 -0.2003 -0.0342 -0.1225
29550W        W30414  17.486   4.248  12.714  0.1137  0.0276 -0.1096
29551W        W30415  19.021   2.823  14.001 -0.2574  0.0881 -0.1411
29552W        W30416  21.422   1.448  12.956 -0.2478  0.0983  0.0498
29553W        W30417  19.025   3.808  13.535  0.1431  0.0696  0.0234
29554W        W30418  21.316   2.470  13.222 -0.0294 -0.1142 -0.0912
29555W        W30419  20.155  28.836  13.077 -0.0773 -0.1316  0.0245
29556W        W30420  17.487  27.464  11.830 -0.1770 -0.0641 -0.0895
29557W        W30421  17.712   1.507  12.373 -0.0417  0.0403  0.1476
29558W        W30422  17.013   0.060  12.766  0.1680  0.1084 -0.3160
29559W        W30423  19.902   6.317  13.491 -0.0007 -0.4682  0.4168
29560W        W30424  21.103   2.009  13.218  0.3673  0.1555  0.1296
29561W        W30425  19.729  28.785   9.755  0.1837 -0.2359  0.0755
29562W        W30426  18.438   0.571  11.716  0.3695 -0.0672 -0.1374
29563W        W30427  18.744   4.073  13.248 -0.1040 -0.0419  0.0199
29564W        W30428  21.127   2.950  11.218  0.0575 -0.1486  0.1079
29565W        W30429  21.545  28.266  12.155  0.1746 -0.0859  0.1886
29566W        W30430  18.734   1.936  10.609  0.1878 -0.0028  0.2218
29567W        W30431  17.310   0.408  12.461  0.1631 -0.0682 -0.0660
29568W        W30432  21.456  27.194  10.892 -0.5428 -0.0802  0.0446
29569W        W30433  18.458   1.017  10.386  0.1578 -0.2508  0.1413
29570W        W30434  21.599   1.336   9.571 -0.2344  0.0985 -0.2352
29571W        W30435  20.273  28.915   9.802 -0.0014  0.2091 -0.4598
29572W        W30436  18.450   3.628  12.295 -0.0720  0.0301  0.0442
29573W        W30437  18.244   0.983  14.837  0.0372 -0.0331 -0.0302
29574W        W30438  21.004   1.321  12.101  0.0712 -0.3750  0.0179
29575W        W30439  21.115   0.032   9.548 -0.1053  0.1909 -0.0169
29576W        W30440  21.503   0.688  12.540 -0.1052 -0.0783 -0.0160
29577W        W30441  20.339  28.697  14.030  0.0325 -0.3745  0.1125
29578W        W30442  21.622   0.457  13.315 -0.3688  0.0422 -0.2765
29579W        W30443  17.675   1.941  13.135  0.0221  0.0425 -0.0524
29580W        W30444  17.415   2.497  14.019 -0.1556 -0.3048  0.0740
29581W        W30445  18.652  28.237  12.378 -0.0201 -0.0703 -0.2127
29582W        W30446  20.287   4.706  16.973  0.1147  0.2419 -0.1587
29583W        W30447  21.203   1.531  11.646  0.0202 -0.3252  0.0443
29584W        W30448  20.670   0.290  10.530  0.0593 -0.0835 -0.0728
29585W        W30449  21.722   4.631  12.923 -0.0931 -0.2566 -0.1371
29586W        W30450  21.838   3.786  16.232 -0.0505  0.2150  0.0779
29587W        W30451  21.022   2.538   9.166 -0.1381 -0.1779  0.0365
29588W        W30452  20.641   0.571  11.077 -0.1003 -0.0039  0.0669
29589W        W30453  20.193   1.914  13.994 -0.0363 -0.1874  0.1326
29590W        W30454  16.984  28.610  13.319 -0.2301  0.0620 -0.1601
29591W        W30455  17.348   0.290  11.122  0.1113 -0.3653 -0.0076
29592W        W30456  22.014   1.917  11.916 -0.2434 -0.0080 -0.2037
29593W        W30457  18.180   2.886  12.253  0.1912 -0.0486 -0.0855
29594W        W30458  20.467   0.171  12.222  0.0083  0.0332 -0.2960
29595W        W30459  21.170   3.259  14.953  0.3835 -0.4608  0.2381
29596W        W30460  19.069   1.990  11.306 -0.2717 -0.2537 -0.0099
29597W        W30461  20.564   1.102  12.887  0.0727 -0.2537 -0.0984
29598W        W30462  20.629   0.761  11.626 -0.0435 -0.3526  0.2412
29599W        W30463  20.764   1.571   9.362  0.1866  0.0268  0.0119
29600W        W30464  18.623   4.551  14.619 -0.0580 -0.1727  0.3521
29601W        W30465  20.502   4.228   8.898  0.0061 -0.1589 -0.3568
29602W        W30466  18.625   2.872  13.733  0.3810  0.2998 -0.0886
29603W        W30467  20.700   1.257  11.643 -0.2150 -0.0314  0.2353
29604W        W30468  16.450   1.921  10.432 -0.0405 -0.3208  0.0048
29605W        W30469  19.356   5.040  13.180  0.1533  0.4687 -0.0424
29606W        W30470  20.011  28.449  11.894  0.1216 -0.2202 -0.0857
29607W        W30471  17.103   1.408  10.805 -0.1642 -0.1170  0.2150
29608W        W30472  19.228  28.717   9.934 -0.1450  0.1227  0.0524
29609W        W30473  18.976   2.929  11.935 -0.0058  0.2251  0.1090
29610W        W30474  20.038   0.470  12.752  0.0153 -0.1238 -0.3103
29611W        W30475  21.427  27.786  14.390  0.3836 -0.0558  0.3447
29612W        W30476  23.918   1.345  13.826  0.0072  0.2101 -0.4196
29613W        W30477  20.180   2.215  14.857 -0.1940 -0.1279 -0.0639
29614W        W30478  23.281  27.346  13.056  0.0343  0.1234 -0.0980
29615W        W30479  22.657   3.009  11.823 -0.1375  0.1011 -0.1123
29616W        W30480  17.228   1.589  13.121 -0.0162  0.3240  0.1029
29617W        W30481  21.388   0.966   9.870 -0.0056  0.0290 -0.0544
29618W        W30482  20.555   2.196  13.224  0.1224  0.2076 -0.0380
29619W        W30483  18.767  26.924  12.059  0.3531  0.2825 -0.0009
29620W        W30484  19.698   5.624  10.291 -0.1705 -0.2100  0.1548
29621W        W30485  21.531  28.703  17.480  0.0925 -0.0620  0.2188
29622W        W30486  19.926   3.479  13.464 -0.2387 -0.3214 -0.0271
29623W        W30487  17.669   2.387  10.581  0.0558 -0.0344 -0.0189
29624W        W30488  19.739   3.043  13.624 -0.4803 -0.4014  0.1775
29625W        W30489  18.231   2.632  11.336  0.0589  0.1287  0.2037
29626W        W30490  17.942  28.898   9.676  0.2183 -0.0764 -0.0201
29627W        W30491  15.959  28.759  14.747  0.0768  0.0516  0.2339
29628W        W30492  18.779   2.765   9.127  0.2526 -0.3244  0.1599
29629W        W30493  16.043   0.995  10.324 -0.0398 -0.1086 -0.2255
29630W        W30494  21.292   1.920  10.299  0.2349 -0.2113  0.1941
29631W        W30495  19.501  28.309  11.934 -0.4665 -0.1398  0.1219
29632W        W30496  20.666   3.921  11.146  0.2690 -0.1046 -0.2696
29633W        W30497  20.324   3.578   9.480  0.1965 -0.0475 -0.0871
29634W        W30498  19.636   5.081  11.593  0.0019 -0.2443 -0.2043
29635W        W30499  22.129  26.483   9.951 -0.1773  0.0728 -0.0526
29636W        W30500  16.542   2.345  12.813 -0.2764 -0.0289 -0.2215
29637W        W30501  23.463   1.076  14.444 -0.0767  0.0600  0.0310
29638W        W30502  20.725   4.135  15.318 -0.1297  0.0886  0.1995
29639W        W30503  18.971   3.843  10.314  0.1568  0.0520  0.3116
29640W        W30504  19.776   3.127   9.772  0.0644 -0.1949  0.1321
29641W        W30505  19.656  29.091  15.275  0.1450 -0.0610  0.0670
29642W        W30506  19.863   3.068  15.045  0.0002  0.1917  0.2234
29643W        W30507  22.266   1.507  11.690 -0.0502  0.2142 -0.1443
29644W        W30508  21.358   1.991  12.809  0.0955  0.1734 -0.1102
29645W        W30509  20.488   2.841  11.112 -0.1327  0.2901 -0.0124
29646W        W30510  22.911   2.074  13.441 -0.0057 -0.1523 -0.2746
29647W        W30511  22.101   3.560  13.476 -0.2462 -0.0877  0.2385
29648W        W30512  18.459  28.257  11.891  0.0098 -0.4122 -0.1737
29649W        W30513  22.886  28.713  10.791  0.1362  0.0442  0.0460
29650W        W30514  18.697   2.813  10.494  0.2451  0.0860 -0.1173
29651W        W30515  20.855   2.775  12.620 -0.1078  0.1259  0.4235
29652W        W30516  16.324   2.376  11.299 -0.3004 -0.0357 -0.1265
29653W        W30517  22.946   2.420  12.806  0.1002  0.2771 -0.1854
29654W        W30518  17.286   4.360  11.565 -0.1871  0.1925  0.1162
29655W        W30519  18.978   1.120  13.905  0.3206 -0.2100 -0.1248
29656W        W30520  18.824   2.216  12.610  0.1615 -0.2270 -0.2227
29657W        W30521  21.543  29.021  10.540 -0.0607  0.0294 -0.4004
29658W        W30522  20.374   2.601  11.579 -0.2211 -0.2315 -0.0247
29659W        W30523  17.801  28.644  11.040 -0.0564 -0.1506  0.1312
29660W        W30524  18.874   1.489  13.501  0.0975 -0.3680 -0.2297
29661W        W30525  19.411   3.448  11.711  0.1661  0.1505  0.3094
29662W        W30526  17.702   1.003  14.899 -0.1665  0.0549  0.0371
29663W        W30527  21.048   1.610  14.909 -0.0321 -0.0647  0.1707
29664W        W30528  21.667   2.092  11.505 -0.3257  0.0213 -0.1511
29665W        W30529  20.398   1.995  12.197  0.0316  0.0702  0.1913
29666W        W30530  18.986   2.322  11.679  0.1639  0.2210  0.0713
29667W        W30531  19.869   1.764  13.080 -0.0100 -0.1189  0.0932
29668W        W30532  20.342   1.088  13.934 -0.1341 -0.0351 -0.1178
29669W        W30533  23.518   4.055  13.349  0.0374 -0.2144  0.1214
29670W        W30534  20.632   1.926  14.812 -0.1894  0.3187 -0.4009
29671W        W30535  20.215   3.083  13.273 -0.2357 -0.2477  0.0285
29672W        W30536  19.818   1.365  10.183  0.2664  0.3079  0.0490
29673W        W30537  20.131  27.005  13.023  0.0062  0.2005  0.0745
29674W        W30538  22.603   1.906  11.697  0.0707 -0.0776  0.2793
29675W        W30539  21.502   2.406  15.202  0.2712  0.1019 -0.0711
29676W        W30540  17.552   1.559   8.702 -0.0397 -0.0995 -0.0645
29677W        W30541  20.714   1.500  15.220  0.2596  0.3536  0.1368
29678W        W30542  18.134   2.085  11.455  0.1394 -0.1731  0.1053
29679W        W30543  17.308   4.128  10.206  0.0922 -0.1020  0.0052
29680W        W30544  19.277   2.620  15.212  0.2386  0.0497 -0.0928
29681W        W30545  19.047   2.372  18.520  0.1840 -0.2319 -0.0576
29682W        W30546  21.936   1.535  15.251 -0.4817 -0.0682  0.0661
29683W        W30547  21.862   1.780  19.960 -0.2057 -0.2414  0.1343
29684W        W30548  20.019   2.840  12.871  0.2047 -0.1675  0.0970
29685W        W30549  17.716   0.744  15.360 -0.2555  0.6005  0.2256
29686W        W30550  20.975   1.517  13.209  0.1879 -0.0942  0.0280
29687W        W30551  18.477   1.885  17.443 -0.1112  0.3435  0.1858
29688W        W30552  21.895   4.535  18.495  0.2423 -0.2090 -0.2194
29689W        W30553  17.127   3.063  19.113  0.1092  0.2042 -0.0656
29690W        W30554  20.573  27.009  17.978 -0.2415 -0.0001  0.0026
29691W        W30555  21.270   0.684  16.469 -0.2332  0.0138  0.1459
29692W        W30556  19.626   3.703  12.980 -0.2016  0.2249 -0.0009
29693W        W30557  19.822   0.471  18.247 -0.3004  0.0428 -0.1990
29694W        W30558  20.418   1.708  17.726  0.0878  0.0633  0.0407
29695W        W30559  16.588   2.843  18.143  0.2019  0.0629  0.1444
29696W        W30560  18.987   3.463  12.084 -0.2347 -0.1356 -0.3239
29697W        W30561  19.233   1.687  15.562 -0.0567  0.4157  0.2087
29698W        W30562  18.238   2.041  16.978 -0.0862 -0.1104 -0.0122
29699W        W30563  21.107   1.652  17.030  0.1045 -0.3196 -0.0036
29700W        W30564  23.188   2.743  15.604 -0.1778  0.3119  0.2687
29701W        W30565  22.383   0.050  17.937 -0.0600 -0.0770  0.0186
29702W        W30566  19.405   2.514  16.169  0.2060  0.2147  0.4591
29703W        W30567  20.170   0.683  16.128 -0.1326  0.1564 -0.3147
29704W        W30568  18.031   2.436  15.923 -0.3347 -0.0562 -0.1104
29705W        W30569  18.785  28.287  17.198  0.1907 -0.1838  0.0687
29706W        W30570  22.734   1.789  15.666 -0.0436  0.2362 -0.0348
29707W        W30571  16.798   5.102  15.377  0.0192  0.2405 -0.1795
29708W        W30572  22.210   2.705  13.830 -0.0444 -0.2262 -0.1281
29709W        W30573  18.070   2.455  16.675 -0.1547 -0.1071  0.2959
29710W        W30574  21.643   1.861  13.258  0.0111  0.1185  0.1327
29711W        W30575  19.515   2.645  17.227 -0.0454  0.1023 -0.0156
29712W        W30576  20.412   2.387  17.923  0.1607  0.2251  0.1627
29713W        W30577  22.277   1.933  17.839  0.1698 -0.2383 -0.1368
29714W        W30578  18.719   1.051  19.658 -0.2691 -0.2271  0.1743
29715W        W30579  18.834   0.011  18.874 -0.2231  0.2269 -0.1201
29716W        W30580  17.688  28.472  15.365  0.0019  0.0395 -0.0496
29717W        W30581  19.144   4.247  16.143 -0.4311  0.1032 -0.0439
29718W        W30582  22.578   2.200  14.928  0.2029 -0.0183 -0.2066
29719W        W30583  22.385   1.548  13.919  0.0511  0.2730 -0.1246
29720W        W30584  20.287   1.425  11.288 -0.2137  0.1782  0.3637
29721W        W30585  21.714   1.040  15.234  0.0058 -0.1102 -0.0314
29722W        W30586  18.965   2.309  16.440 -0.1000  0.1246  0.2820
29723W        W30587  22.491   2.458  12.523  0.3339 -0.1374  0.0941
29724W        W30588  17.765   5.273  15.813 -0.0532  0.0942 -0.1982
29725W        W30589  19.356   3.680  14.641 -0.2297 -0.0619  0.1872
29726W        W30590  19.102  26.310  17.160  0.0471 -0.0458 -0.0425
29727W        W30591  21.066   2.123  20.246 -0.1023  0.1569 -0.3000
29728W        W30592  20.300   1.536  13.745 -0.0936 -0.2553  0.0455
29729W        W30593  18.635   1.644  14.434 -0.1053  0.2307 -0.2015
29730W        W30594  19.047   0.839  16.932 -0.0939  0.0656  0.0118
29731W        W30595  23.938   0.905  13.474 -0.0806 -0.1017  0.2095
29732W        W30596  17.377   5.829  17.168 -0.0560  0.0737  0.2716
29733W        W30597  22.458   0.523  13.988 -0.1139 -0.3837  0.2168
29734W        W30598  19.611  27.708  15.454  0.4256 -0.0850  0.0449
29735W        W30599  18.466   2.618  14.790 -0.3835  0.0195  0.0217
29736W        W30600  20.143   1.810  17.163 -0.1181 -0.2577 -0.1861
29737W        W30601  20.890   2.292  15.680 -0.1140  0.0259  0.1492
29738W        W30602  19.429   2.881  14.632  0.1566 -0.1356  0.2488
29739W        W30603  18.980   3.268  15.269  0.1130  0.1302 -0.3493
29740W        W30604  19.954   2.024  11.959  0.0226  0.1451  0.0435
29741W        W30605  18.116   4.026  18.226 -0.1379  0.2244  0.0321
29742W        W30606  18.803   1.166  20.488 -0.0078 -0.1248  0.0545
29743W        W30607  19.007   2.098  15.301  0.1462  0.1530 -0.2400
29744W        W30608  19.741   1.458  16.479 -0.0470  0.1601  0.0768
29745W        W30609  21.898   0.216  18.096 -0.1603 -0.0353 -0.0922
29746W        W30610  17.490   1.444  14.339  0.0631  0.0374  0.0908
29747W        W30611  18.588   3.300  17.493 -0.1339 -0.0597  0.2021
29748W        W30612  16.264   3.870  14.584 -0.1370  0.2544  0.0357
29749W        W30613  18.500  28.721  16.077  0.0309  0.0251  0.1905
29750W        W30614  20.534   3.399  17.534  0.0515  0.0147  0.2067
29751W        W30615  20.999   0.612  15.947  0.1139  0.0310  0.0694
29752W        W30616  22.221   1.051  15.189  0.1406 -0.0973  0.1442
29753W        W30617  23.215   1.785  20.204  0.4634 -0.0957  0.2106
29754W        W30618  19.981   1.175  12.289  0.4069  0.0661 -0.0235
29755W        W30619  20.068   2.507  17.625  0.2604 -0.1052 -0.0355
29756W        W30620  15.196   2.204  12.583  0.0176  0.1251 -0.0401
29757W        W30621  20.293   1.353  16.910  0.0410 -0.0845 -0.0869
29758W        W30622  21.123   1.242  15.313  0.1153  0.0406  0.4135
29759W        W30623  18.966   2.314  14.805  0.2635 -0.0888  0.1170
29760W        W30624  17.741   1.085  19.286 -0.0848 -0.1179  0.3502
29761W        W30625  19.353  27.332  19.767 -0.0883 -0.0320  0.0039
29762W        W30626  17.124   1.701  15.244 -0.1132  0.1543  0.2108
29763W        W30627  18.564  29.115  16.820 -0.0208 -0.3119  0.0431
29764W        W30628  21.310   0.350  16.921  0.0234 -0.1229  0.1414
29765W        W30629  21.344   2.156  15.606 -0.1725  0.0494  0.1222
29766W        W30630  19.907   4.268  21.106 -0.0398  0.0877 -0.2466
29767W        W30631  21.220   2.241  16.598 -0.1571 -0.0372 -0.2818
29768W        W30632  22.494   3.258  23.485  0.3717 -0.1533 -0.3408
29769W        W30633  19.686   2.821  17.722  0.2357 -0.0500  0.0502
29770W        W30634  20.468  28.059  15.512  0.1482  0.2746 -0.2131
29771W        W30635  21.237   1.681  18.099  0.2688 -0.0291  0.0211
29772W        W30636  16.647   2.076  15.069  0.2221 -0.2355 -0.0527
29773W        W30637  20.008   1.291  19.736 -0.0410  0.0325 -0.0314
29774W        W30638  20.373   3.345  19.243  0.0834 -0.3280 -0.1428
29775W        W30639  19.171   1.753  13.834 -0.2558 -0.1773  0.0657
29776W        W30640  20.446   0.278  14.729  0.0912 -0.1110  0.3240
29777W        W30641  18.868   4.284  13.791 -0.2077 -0.2941  0.2275
29778W        W30642  18.000  28.897  12.995  0.1715  0.1318  0.0063
29779W        W30643  21.792  27.899  16.309 -0.2094  0.1016 -0.2996
29780W        W30644  24.411   2.361  14.468 -0.3771 -0.0622  0.1342
29781W        W30645  18.884   3.320  13.534 -0.0192 -0.1001 -0.1393
29782W        W30646  22.399  28.123  17.985  0.0056 -0.2657 -0.2763
29783W        W30647  22.730   0.501  17.954  0.0201  0.2356  0.4066
29784W        W30648  20.589   0.940  15.926  0.1460 -0.3138  0.3023
29785W        W30649  20.801   2.835  20.644  0.1400  0.0074 -0.1486
29786W        W30650  19.836   3.720  14.902  0.0247  0.3669  0.0159
29787W        W30651  17.947   2.942  18.285  0.2197 -0.2068  0.0945
29788W        W30652  18.151   0.490  17.431 -0.4109 -0.2349  0.1965
29789W        W30653  17.241   5.226  15.605 -0.1275  0.0148  0.1248
29790W        W30654  17.325   4.227  17.918  0.1875 -0.2253 -0.0484
29791W        W30655  20.400   3.127  17.081 -0.4175  0.2848  0.0016
29792W        W30656  19.785   2.718  18.661 -0.1266 -0.1650 -0.3913
29793W        W30657  20.793   1.953  16.900 -0.2122  0.0464  0.2628
29794W        W30658  23.754  28.147  12.997  0.1634  0.0751  0.0907
29795W        W30659  19.779   2.645  16.467  0.1886  0.2765 -0.0121
29796W        W30660  22.247  28.402  19.378  0.0961 -0.0591 -0.3129
29797W        W30661  18.866   2.999  17.267 -0.1396 -0.1624 -0.0689
29798W        W30662  19.629   3.076  15.965  0.1227  0.0474 -0.1438
29799W        W30663  19.996   1.120  14.877  0.0792  0.0396 -0.3110
29800W        W30664  21.176   1.156  16.737  0.0520 -0.1458 -0.0359
29801W        W30665  21.112   2.970  12.985  0.2462  0.0578  0.1384
29802W        W30666  22.107  28.773  18.649  0.0388 -0.0376 -0.0813
29803W        W30667  19.503   0.022  15.712  0.1677 -0.2756  0.4333
29804W        W30668  20.864   3.917  15.754  0.3032  0.1379 -0.0985
29805W        W30669  22.437   0.917  17.074  0.2138 -0.4011 -0.0038
29806W        W30670  20.958   2.223  18.817 -0.2799  0.3291 -0.0758
29807W        W30671  20.903   2.416  17.059  0.0427  0.4066  0.1018
29808W        W30672  22.628   2.762  15.639  0.0814  0.0705 -0.3106
29809W        W30673  22.043   0.825  14.114  0.1580 -0.0450  0.1359
29810W        W30674  21.917   2.263  15.427 -0.0692 -0.2745  0.1067
29811W        W30675  22.983  28.594  18.642  0.2097  0.0208 -0.1631
29812W        W30676  19.410   4.016  18.363  0.0066  0.0397  0.3499
29813W        W30677  21.647   0.089  15.309  0.5155  0.2307  0.0286
29814W        W30678  21.730   1.795  18.904 -0.0484  0.1484  0.0117
29815W        W30679  17.990   2.082  16.293  0.1911 -0.0435  0.1370
29816W        W30680  20.320   0.976  19.910 -0.0597 -0.2336 -0.0877
29817W        W30681  19.882   0.229  20.768 -0.2591 -0.2557 -0.3813
29818W        W30682  22.671   2.798  17.525 -0.1685 -0.2829  0.2584
29819W        W30683  19.578   3.097  15.455  0.0068  0.2446  0.0018
29820W        W30684  20.007   1.775  16.209 -0.3946 -0.0271 -0.0894
29821W        W30685  17.963  28.507  19.092 -0.0703 -0.0435 -0.1453
29822W        W30686  20.055   1.481  14.212 -0.0822 -0.2068 -0.0582
29823W        W30687  18.536   2.059  16.606  0.2125  0.2555 -0.0417
29824W        W30688  22.292   2.334  15.831  0.0305 -0.0258 -0.0239
29825W        W30689  21.201   0.196  15.106  0.1999 -0.3390 -0.3895
29826W        W30690  22.150   0.458  16.890  0.3293 -0.0127  0.2167
29827W        W30691  19.967   3.859  15.683  0.0610  0.1401  0.2538
29828W        W30692  20.057   3.161  18.806  0.3687 -0.0429  0.4302
29829W        W30693  19.965   1.150  17.840 -0.2102  0.2472 -0.2582
29830W        W30694  21.766   4.108  18.734 -0.1587 -0.0069 -0.3841
29831W        W30695  20.969   0.892  14.242  0.2037  0.4039 -0.1200
29832W        W30696  19.866   3.477  17.455  0.2406  0.0740  0.2168
29833W        W30697  19.674   0.285  11.581 -0.2727  0.1190  0.1451
29834W        W30698  19.870   1.602  17.539 -0.3386  0.2519  0.0546
29835W        W30699  21.532   1.426  15.670  0.4770  0.0567 -0.2279
29836W        W30700  18.822   3.027  17.827  0.1751  0.4318  0.0004
29837W        W30701  20.325   0.778  14.721 -0.0711 -0.2003  0.1709
29838W        W30702  18.192  28.415  15.267 -0.1795  0.0241 -0.1268
29839W        W30703  21.881   0.706  17.268  0.1334  0.0517 -0.1146
29840W        W30704  23.485   1.510  17.919 -0.0507 -0.1028  0.1698
29841W        W30705  17.970   3.108  16.046  0.0426  0.2494  0.1211
29842W        W30706  20.858   1.751  21.099  0.2045  0.1399 -0.1826
29843W        W30707  20.610   2.970  18.951 -0.4216  0.1095  0.2718
29844W        W30708  18.491   0.237  19.154  0.0737  0.0296 -0.0342
29845W        W30709  21.094   4.757  16.332 -0.0989 -0.0436 -0.0790
29846W        W30710  19.643  27.346  16.957 -0.1756 -0.1816  0.2233
29847W        W30711  18.861   1.826  16.193  0.2258 -0.1846 -0.2252
29848W        W30712  18.742   3.442  18.078  0.1374  0.0767  0.2634
29849W        W30713  19.609   1.795  14.142  0.0157  0.2488  0.2165
29850W        W30714  21.600   3.023  21.182  0.3136  0.1934 -0.0094
29851W        W30715  20.762   1.408  16.740  0.0079 -0.0369 -0.0143
29852W        W30716  19.777   4.203  16.060 -0.1254 -0.0595  0.2028
29853W        W30717  19.751   0.949  12.709 -0.0733  0.0109 -0.2150
29854W        W30718  17.452  27.311  16.551 -0.1569 -0.2422  0.0828
29855W        W30719  21.647  28.861  15.885 -0.0527 -0.1444  0.1577
29856W        W30720  16.496   3.675  16.245  0.1668 -0.0649 -0.2655
29857W        W30721  21.070  28.335  17.659  0.0167 -0.0197 -0.2157
29858W        W30722  21.376   0.473  19.237  0.0998 -0.3024  0.2729
29859W        W30723  18.239   1.638  15.304 -0.2100 -0.0775 -0.0188
29860W        W30724  21.465   1.758  14.392  0.1851 -0.1757 -0.0654
29861W        W30725  19.579  28.911  13.224 -0.3219  0.0084 -0.0701
29862W        W30726  19.493   1.523  15.066  0.1695 -0.2463 -0.0582
29863W        W30727  20.648  28.558  15.543 -0.2543 -0.4035  0.0255
29864W        W30728  20.386   1.003  18.462  0.0302  0.1376  0.2092
29865W        W30729  22.689   2.730  14.896  0.0804 -0.0681 -0.0674
29866W        W30730  19.416  28.668  15.168  0.0911 -0.0231 -0.2279
29867W        W30731  17.719   3.157  16.535 -0.1298  0.2030  0.0149
29868W        W30732  17.876   2.415  18.970  0.2557 -0.2604 -0.1965
29869W        W30733  18.410   2.872  15.293  0.2234 -0.2130 -0.1056
29870W        W30734  17.375   2.837  17.142 -0.2069 -0.0510 -0.1799
29871W        W30735  17.915   1.561  18.049 -0.0039  0.1295 -0.1232
29872W        W30736  17.566   0.327  19.084  0.1182  0.0458 -0.4244
29873W        W30737  20.150  28.771  18.047  0.0972 -0.0054 -0.2417
29874W        W30738  20.989  28.868  13.500  0.0857  0.0169 -0.0557
29875W        W30739  19.796  28.845  14.451  0.0138 -0.0120  0.0421
29876W        W30740  17.089  27.611  17.854 -0.0723  0.0753  0.1581
29877W        W30741  19.992  28.398  18.665  0.0388 -0.0777 -0.1299
29878W        W30742  22.749   0.364  14.441  0.1115  0.1194  0.0514
29879W        W30743  17.316  27.702  14.891 -0.3015 -0.0663 -0.0927
29880W        W30744  21.327   2.512  17.419  0.1119  0.0336  0.0748
29881W        W30745  23.453   1.390  11.968 -0.0103  0.1547  0.1538
29882W        W30746  20.055   1.642  18.776 -0.0654  0.3156 -0.1326
29883W        W30747  18.372   3.209  15.697  0.0684 -0.3385 -0.1378
29884W        W30748  17.502   1.786  16.304 -0.1552  0.0352  0.3337
29885W        W30749  20.475   3.260  15.166 -0.1680  0.0698 -0.0913
29886W        W30750  20.501   2.272  14.476  0.1011  0.4119 -0.0875
29887W        W30751  17.679   4.265  12.209  0.0463 -0.0600  0.2274
29888W        W30752  17.646   6.213  17.349  0.2331  0.1277 -0.2484
29889W        W30753  19.120   0.755  19.352 -0.0813 -0.2417 -0.0019
29890W        W30754  18.990   2.406  15.822 -0.0728 -0.0678  0.1859
29891W        W30755  21.233   0.199  16.457  0.0026 -0.0221 -0.1991
29892W        W30756  24.229   1.067  18.610 -0.0760  0.0029 -0.0394
29893W        W30757  21.305   2.088  17.145  0.0846 -0.1114  0.0608
29894W        W30758  17.915   2.803  12.753  0.2284  0.0664 -0.0713
29895W        W30759  19.361   2.623  11.904  0.1401  0.1321 -0.2783
29896W        W30760  19.777   3.368  17.953  0.1418 -0.3106  0.3512
29897W        W30761  15.190   3.412  18.060 -0.1525  0.1719 -0.1705
29898W        W30762  20.284   0.231  18.809  0.3355  0.2444 -0.0665
29899W        W30763  22.087   2.290  14.739 -0.3287  0.0985  0.0458
29900W        W30764  17.775   3.189  17.855 -0.0453 -0.0178  0.2963
29901W        W30765  18.239   1.229  16.625 -0.0165 -0.1620 -0.1828
29902W        W30766  20.510   2.734  14.099 -0.1035  0.0113 -0.0283
29903W        W30767  17.446   1.836  18.022 -0.1800 -0.0062 -0.2589
29904W        W30768  18.487   3.786  17.297 -0.0977 -0.2606  0.1996
29905W        W30769  21.711   1.991  17.953 -0.0044  0.0739 -0.3662
29906W        W30770  18.481   1.398  14.922 -0.1223 -0.1331 -0.0982
29907W        W30771  21.545   0.986  17.609 -0.0202 -0.1710  0.1032
29908W        W30772  18.270   1.359  15.775  0.0966  0.1573  0.4023
29909W        W30773  21.924   1.028  19.394  0.3256  0.1000  0.0979
29910W        W30774  19.025   4.029  14.308 -0.3061  0.0482  0.3002
29911W        W30775  19.387   1.348  13.682  0.0662  0.1061 -0.2467
29912W        W30776  20.097  27.394  16.722 -0.1914 -0.3998 -0.1885
29913W        W30777  21.018   3.217  18.215 -0.5003  0.3675  0.4830
29914W        W30778  22.407   2.725  18.967 -0.2740  0.0472 -0.2821
29915W        W30779  22.052   2.313  18.154  0.0060 -0.2861 -0.1421
29916W        W30780  20.551   3.780  19.525  0.1749 -0.0250  0.0156
29917W        W30781  21.536   2.553  16.931  0.0119 -0.0186 -0.0022
29918W        W30782  19.151   5.393  18.568  0.0079 -0.0740 -0.3798
29919W        W30783  16.899   2.808  17.636 -0.1893  0.0980  0.0641
29920W        W30784  21.307   1.094  18.285 -0.2411 -0.1977 -0.0666
29921W        W30785  19.379   0.737  15.588  0.2597 -0.0252 -0.1472
29922W        W30786  20.902   0.909  19.109  0.1575  0.2726  0.1411
29923W        W30787  19.926   3.397  15.763  0.1273  0.2009 -0.4017
29924W        W30788  21.060   2.637  18.531  0.1517 -0.3532 -0.1502
29925W        W30789  18.694   3.373  17.032  0.2587 -0.1027  0.3955
29926W        W30790  19.864   3.807  18.231 -0.1452 -0.0148  0.3186
29927W        W30791  19.474   3.143  17.270  0.0600 -0.0898  0.4111
29928W        W30792  20.649   2.461  14.907  0.1970  0.1602  0.2303
29929W        W30793  19.282   5.425  14.455 -0.1298 -0.0629  0.2877
29930W        W30794  19.762   2.456  20.679 -0.2992  0.1899  0.0416
29931W        W30795  17.901   2.847  16.904  0.0800 -0.1355 -0.1727
29932W        W30796  18.502   1.140  15.395  0.1320  0.2689 -0.0466
29933W        W30797  23.909   1.662  15.454 -0.1510 -0.1700 -0.1329
29934W        W30798  23.131  28.910  11.199  0.1076  0.2765 -0.2576
29935W        W30799  20.196  28.521  15.807 -0.0419 -0.3076  0.0185
29936W        W30800  18.744   1.399  16.456  0.0107 -0.0330 -0.0895
29937W        W30801  19.912   2.023  18.404 -0.1483 -0.0308 -0.2483
29938W        W30802  20.173   1.256  17.415 -0.2464  0.0692 -0.1066
29939W        W30803  21.379   3.111  17.462  0.1409  0.1062 -0.0690
29940W        W30804  19.338   3.976  15.086  0.0841 -0.0048 -0.1452
29941W        W30805  19.889   1.049  18.332 -0.2081 -0.1452  0.0229
29942W        W30806  20.292   1.395  18.141 -0.1641 -0.0501 -0.0398
29943W        W30807  17.077   2.572  15.743 -0.2151  0.0282 -0.0725
29944W        W30808  18.730   1.630  15.354 -0.2201  0.2593 -0.2136
29945W        W30809  21.555   0.550  16.018 -0.2813 -0.2512 -0.3177
29946W        W30810  20.724   0.575  18.684  0.0611  0.0347  0.3585
29947W        W30811  21.803   1.376  13.256  0.2206 -0.0328  0.1964
29948W        W30812  20.086   0.255  13.204 -0.1290 -0.0719 -0.0074
29949W        W30813  19.383   1.265  17.864 -0.3849  0.0036 -0.3201
29950W        W30814  19.783   3.792  20.525  0.1270 -0.2189  0.0896
29951W        W30815  19.820   1.567  18.086  0.0735  0.0473  0.0111
29952W        W30816  21.934   4.274  19.996  0.2300  0.0252 -0.1014
29953W        W30817  21.079  28.709  17.280  0.2172  0.1472  0.2671
29954W        W30818  17.737  27.842  14.649  0.0516 -0.1358  0.0162
29955W        W30819  19.455  27.833  17.049  0.1285  0.1539 -0.1316
29956W        W30820  20.319   1.797  15.187 -0.1407 -0.0648  0.0556
29957W        W30821  16.809   4.044  14.543 -0.3119  0.1337  0.0627
29958W        W30822  20.499   2.048  19.224  0.0330 -0.2760 -0.1019
29959W        W30823  18.028   3.220  15.168  0.2111  0.6308 -0.1784
29960W        W30824  20.097   2.880  16.059  0.1450  0.1494 -0.1837
29961W        W30825  18.593   5.300  18.361  0.4363 -0.1057  0.0146
29962W        W30826  19.973   0.946  14.435  0.1401  0.0758  0.0533
29963W        W30827  20.566   0.962  16.843  0.2226  0.1385 -0.1263
29964W        W30828  18.937   1.988  14.242 -0.1930 -0.0133 -0.1566
29965W        W30829  18.068   3.764  16.458  0.0539 -0.0623 -0.2860
29966W        W30830  22.897   0.774  17.387  0.1520  0.1072  0.2233
29967W        W30831  20.014   2.681  13.795  0.2607 -0.2511  0.0017
29968W        W30832  19.004   3.232  14.694  0.2720 -0.1109  0.0973
29969W        W30833  18.813  27.284  17.357  0.0797  0.2217 -0.0985
29970W        W30834  21.282   1.858  18.913  0.0523  0.1388  0.2615
29971W        W30835  22.390   0.099  13.660  0.0875 -0.0434  0.2757
29972W        W30836  19.815   2.225  15.918 -0.1904 -0.1230  0.2752
29973W        W30837  21.596   0.820  16.869  0.3182 -0.1354  0.2083
29974W        W30838  21.792   1.448  19.547  0.0687 -0.1107 -0.2645
29975W        W30839  22.686   2.092  19.776  0.2326  0.0507  0.2597
29976W        W30840  19.309   0.776  17.356  0.2610  0.0698 -0.0960
29977W        W30841  18.999   2.578  17.018 -0.1581 -0.3441  0.0036
29978W        W30842  17.205   0.849  15.635  0.1644 -0.1174  0.1610
29979W        W30843  17.486   1.369  20.753  0.2219  0.1225  0.0414
29980W        W30844  20.207   2.963  19.666 -0.1653 -0.1290  0.0908
29981W        W30845  20.514   2.524  18.789 -0.5023 -0.2503 -0.0696
29982W        W30846  20.649  29.035  15.677  0.0704 -0.0497  0.2878
29983W        W30847  21.268   5.049  17.758  0.1363  0.2096 -0.0198
29984W        W30848  20.993   3.512  19.537 -0.1484 -0.1533  0.1881
29985W        W30849  21.296  26.780  15.258 -0.0616 -0.3917 -0.1071
29986W        W30850  22.545  28.937  18.845  0.1098  0.0329  0.0708
29987W        W30851  16.488   1.270  15.690  0.1323  0.0998  0.3141
29988W        W30852  19.773  28.053  17.351 -0.1859 -0.0809 -0.0049
29989W        W30853  20.893   3.223  20.114 -0.0497  0.0167  0.2833
29990W        W30854  21.432  28.818  11.836  0.1362 -0.0612 -0.0988
29991W        W30855  20.277   2.753  15.076  0.4727  0.0379 -0.0927
29992W        W30856  18.946   1.866  16.750 -0.2102  0.4614  0.1262
29993W        W30857  16.498   3.232  16.912 -0.0383 -0.1468  0.3089
29994W        W30858  19.773   2.128  17.354  0.0319  0.1456 -0.0130
29995W        W30859  22.144   2.180  16.510 -0.1464  0.1412  0.0471
29996W        W30860  22.244   3.304  16.816 -0.2877  0.3290  0.1357
29997W        W30861  16.836   1.800  13.630 -0.2371  0.1373  0.2347
29998W        W30862  19.266   2.797  15.722 -0.1012  0.3254 -0.0423
29999W        W30863  23.194   2.313  13.879  0.0671 -0.1864  0.0623
30000W        W30864  17.434   1.485  18.473  0.2603  0.1557  0.1862
30001W        W30865  19.540   1.202  14.184 -0.0660 -0.0662  0.2022
30002W        W30866  22.093   1.490  18.750  0.1287  0.1351  0.1836
30003W        W30867  20.361   4.392  20.287  0.2972 -0.0734 -0.1060
30004W        W30868  21.724   0.161  16.716  0.0241  0.0581  0.0402
30005W        W30869  18.533  29.029  14.405 -0.0303 -0.1432  0.1220
30006W        W30870  19.414   1.910  16.997  0.0500  0.0583  0.6422
30007W        W30871  22.191   0.747  19.689 -0.1560 -0.0736  0.2813
30008W        W30872  18.448  28.660  17.059  0.0237  0.0824 -0.0005
30009W        W30873  23.496   0.201  12.610 -0.1282 -0.1956 -0.0259
30010W        W30874  22.614   2.313  19.246 -0.0536 -0.0091  0.0716
30011W        W30875  20.771   3.949  17.292  0.2096 -0.1105 -0.1354
30012W        W30876  21.781   3.138  17.715  0.1764  0.0438 -0.0737
30013W        W30877  18.705   2.919  16.724 -0.1154  0.0922 -0.0117
30014W        W30878  18.037   3.020  14.720 -0.0052  0.2320  0.1605
30015W        W30879  21.765   0.462  14.482  0.0808  0.0599 -0.0049
30016W        W30880  22.595   4.255  13.123  0.0622  0.1459 -0.1073
30017W        W30881  20.988   1.614  17.621 -0.1794  0.2058 -0.0240
30018W        W30882  14.727   5.709  14.931 -0.0782  0.0355 -0.0258
30019W        W30883  18.471   2.345  18.409  0.2432 -0.2215 -0.0652
30020W        W30884  19.115   1.359  16.865  0.2323 -0.1517 -0.1192
30021W        W30885  18.626   4.677  14.067 -0.0341  0.2082 -0.1185
30022W        W30886  18.069   0.752  16.771  0.1012  0.3063  0.0157
30023W        W30887  20.440   4.407  17.521 -0.0762  0.1740  0.2146
30024W        W30888  20.956   1.116  17.271  0.2985 -0.2241 -0.0115
30025W        W30889  16.469   2.681  16.714  0.1186  0.1668  0.1754
30026W        W30890  20.418   4.216  15.759  0.1646 -0.2091 -0.3232
30027W        W30891  20.670  28.462  13.735 -0.0192  0.1045  0.1922
30028W        W30892  20.198   1.815  15.721  0.1000  0.3237 -0.0495
30029W        W30893  21.598   0.462  13.908  0.2893  0.0953 -0.2091
30030W        W30894  17.919   0.125  19.562 -0.0142 -0.3098  0.1867
30031W        W30895  19.618   4.958  17.248  0.2072 -0.0239 -0.2780
30032W        W30896  17.274   4.302  14.685  0.0179  0.0478 -0.1768
30033W        W30897  20.219  29.097  14.416 -0.4367 -0.0318  0.0015
30034W        W30898  20.986   3.775  16.719 -0.2904  0.1074 -0.0252
30035W        W30899  18.858   1.099  19.103  0.1303  0.1112  0.1279
30036W        W30900  20.457   0.542  19.586 -0.0580 -0.0144  0.4674
30037W        W30901  15.953   2.858  13.420  0.0007 -0.1447 -0.1237
30038W        W30902  17.933   0.227  13.715 -0.0150  0.1833  0.2325
30039W        W30903  21.028   2.722  19.052  0.1829  0.1739 -0.0604
30040W        W30904  18.476   3.716  16.192 -0.0796 -0.0611  0.0774
30041W        W30905  18.968  29.147  17.213  0.0289 -0.0496  0.1576
30042W        W30906  20.891   3.391  15.839  0.1382 -0.1909  0.0801
30043W        W30907  24.620   2.840  15.695 -0.0009 -0.1061 -0.1014
30044W        W30908  21.270   2.713  14.806  0.1511  0.3560 -0.3902
30045W        W30909  22.153   1.410  14.816 -0.2184 -0.1447 -0.0258
30046W        W30910  21.925   1.539  12.245  0.1425 -0.0782 -0.3225
30047W        W30911  22.749  27.490  13.481  0.0046 -0.1922  0.0681
30048W        W30912  20.142   2.224  12.951  0.0284 -0.2475  0.1698
30049W        W30913  23.578  28.548  11.184  0.0640 -0.2117 -0.3683
30050W        W30914  18.812   1.930  15.726  0.1822 -0.2132  0.2684
30051W        W30915  21.100   3.886  17.630  0.0723 -0.1535 -0.0320
30052W        W30916  20.888   4.990  13.074 -0.1261  0.0549 -0.4435
30053W        W30917  21.255   1.323  19.002  0.0532 -0.1683 -0.2328
30054W        W30918  20.345   0.279  18.301 -0.0030 -0.0733  0.0254
30055W        W30919  20.664   3.798  17.779 -0.0894  0.0848 -0.2089
30056W        W30920  19.318   1.645  18.237 -0.0459  0.0792  0.0949
30057W        W30921  15.333   2.814  15.580  0.0448 -0.1158  0.2340
30058W        W30922  21.336  28.994  16.837  0.1097  0.0064 -0.2892
30059W        W30923  19.711   1.813  15.537  0.0611 -0.2187  0.0162
30060W        W30924  16.954  28.864  15.166  0.0403 -0.0672 -0.0796
30061W        W30925  19.634   1.982  18.889 -0.2812  0.0814  0.0881
30062W        W30926  20.398   5.245  17.656  0.1295  0.3782  0.3597
30063W        W30927  16.386   1.459  18.045  0.0482  0.4513  0.1471
30064W        W30928  20.585   3.058  16.366 -0.0669  0.1902  0.0150
30065W        W30929  22.314   2.766  18.433  0.0755 -0.4258 -0.2636
30066W        W30930  18.571   2.208  14.506  0.1054 -0.2022  0.0024
30067W        W30931  20.622   3.129  17.925 -0.0031  0.3050 -0.0730
30068W        W30932  19.701   3.138  19.759  0.0311 -0.2394  0.2029
30069W        W30933  16.501   2.978  14.073  0.0373 -0.0110  0.0800
30070W        W30934  18.435   1.592  17.911 -0.1119  0.1346  0.1134
30071W        W30935  19.410   1.834  17.743  0.0257 -0.0462  0.1040
30072W        W30936  17.010   4.725  17.802  0.1470 -0.0655 -0.2121
30073W        W30937  20.100   3.758  19.163 -0.0311 -0.0357  0.1163
30074W        W30938  17.468   3.676  15.691 -0.1297  0.0401 -0.1267
30075W        W30939  20.174   2.809  18.093 -0.0849  0.3355  0.2934
30076W        W30940  22.476   2.118  15.419  0.0369 -0.3115 -0.0807
30077W        W30941  17.232   0.820  13.620 -0.2048 -0.0292 -0.0860
30078W        W30942  19.212   2.712  21.475  0.2342 -0.0861 -0.2295
30079W        W30943  15.805   1.249  20.103 -0.0035 -0.0436  0.2231
30080W        W30944  22.333   3.273  17.741  0.0422  0.1906  0.1843
30081W        W30945  22.352   3.922  22.351  0.1427  0.2439 -0.1301
30082W        W30946  16.759   4.536  18.720 -0.2049 -0.1420 -0.2429
30083W        W30947  20.507   1.515  18.542 -0.0589 -0.2412 -0.0248
30084W        W30948  19.617   3.021  18.277  0.0039  0.1225 -0.2342
30085W        W30949  17.890   1.106  20.687 -0.3155  0.2638  0.1682
30086W        W30950  21.594   0.242  22.552 -0.3600  0.0816 -0.1080
30087W        W30951  16.417   3.993  21.581  0.0068  0.0196 -0.2909
30088W        W30952  19.236   2.009  24.283 -0.1104 -0.0051  0.0681
30089W        W30953  22.382   0.147  21.304  0.2284  0.0603  0.1591
30090W        W30954  18.034   2.949  20.168 -0.0918 -0.1459  0.2520
30091W        W30955  21.895   0.159  19.888  0.2416 -0.1091  0.2897
30092W        W30956  15.290  29.123  20.903  0.1252 -0.0106 -0.2128
30093W        W30957  17.636   0.638  21.116 -0.2480 -0.3074 -0.1879
30094W        W30958  20.920   1.168  19.910  0.0988  0.0801  0.0873
30095W        W30959  19.719  29.079  19.476 -0.1002  0.0624  0.0412
30096W        W30960  18.249  28.021  18.987 -0.1066 -0.5511 -0.0852
30097W        W30961  21.440   1.533  22.495  0.0956 -0.0478  0.0423
30098W        W30962  19.454   4.079  20.328  0.2598  0.3158  0.2463
30099W        W30963  20.566   2.477  21.783 -0.2541  0.2202 -0.2447
30100W        W30964  19.853   3.295  19.244  0.1671 -0.1987 -0.1585
30101W        W30965  17.242  28.694  20.993 -0.0261 -0.1687 -0.0951
30102W        W30966  19.854   0.048  17.453 -0.2711  0.1447  0.0672
30103W        W30967  21.399   3.020  20.719  0.0651 -0.1087  0.1361
30104W        W30968  22.539   1.724  22.317  0.0142  0.2324 -0.2852
30105W        W30969  19.991   4.338  17.605 -0.0011 -0.1242  0.3333
30106W        W30970  18.985   4.867  20.342  0.0491  0.0597  0.1482
30107W        W30971  18.843   2.733  18.947 -0.1646  0.3008 -0.1519
30108W        W30972  20.131   2.463  20.323 -0.1991 -0.3062 -0.2008
30109W        W30973  23.161   4.882  22.605  0.3789 -0.0771  0.1696
30110W        W30974  21.057   0.903  24.001  0.3858 -0.1373  0.3424
30111W        W30975  18.649   3.911  21.119  0.1317  0.0758  0.0067
30112W        W30976  19.508   2.851  20.997 -0.0873 -0.2259  0.5241
30113W        W30977  24.879   1.829  22.421 -0.0460 -0.1402  0.0189
30114W        W30978  17.808  28.533  20.703 -0.2999 -0.3334 -0.1034
30115W        W30979  20.497   2.655  19.379 -0.0358 -0.0921 -0.1526
30116W        W30980  18.835   2.236  20.660 -0.0473  0.0993 -0.1352
30117W        W30981  22.973   0.750  21.489  0.0603 -0.0028 -0.1923
30118W        W30982  23.215   2.357  20.047  0.0472 -0.1579 -0.0213
30119W        W30983  23.763   0.909  22.574 -0.1861 -0.3688  0.2651
30120W        W30984  19.255   3.279  21.684  0.2867  0.1843  0.1806
30121W        W30985  18.523   2.258  15.128  0.2085 -0.3341  0.0555
30122W        W30986  18.255   5.403  20.805  0.2579  0.0231 -0.0603
30123W        W30987  20.049   2.492  21.774  0.1017  0.0060  0.0742
30124W        W30988  16.852  28.531  21.372  0.1698  0.0199  0.3821
30125W        W30989  23.333   1.383  19.887  0.1797  0.1833  0.1123
30126W        W30990  19.571   4.858  19.534  0.2362 -0.0553  0.1368
30127W        W30991  19.340   2.500  18.982  0.1488 -0.0012 -0.0554
30128W        W30992  20.477   1.505  21.391  0.3012 -0.2985  0.0539
30129W        W30993  20.184   1.889  23.083 -0.0862 -0.1226 -0.0421
30130W        W30994  19.391   4.907  21.365  0.1634 -0.0112  0.3787
30131W        W30995  20.570   3.343  19.785  0.1768  0.0078 -0.2222
30132W        W30996  20.333   0.598  21.101  0.0835 -0.4909 -0.1266
30133W        W30997  17.462   3.758  20.485 -0.0032 -0.0934 -0.1496
30134W        W30998  21.058   0.287  17.797 -0.1104  0.4306  0.2513
30135W        W30999  21.490   1.895  20.224  0.0410 -0.1227 -0.0936
30136W        W31000  21.211   4.899  21.075  0.1833 -0.0264 -0.0324
30137W        W31001  16.021   6.027  18.033 -0.3005 -0.1866 -0.0126
30138W        W31002  20.729   4.614  21.015 -0.1493  0.2535 -0.0063
30139W        W31003  19.602   1.371  22.513  0.1874  0.2186 -0.3231
30140W        W31004  17.856   2.315  21.360 -0.0997  0.2687 -0.4347
30141W        W31005  21.646   2.830  19.973 -0.3322  0.1120 -0.2661
30142W        W31006  16.219   1.075  21.687  0.5515  0.1896 -0.1454
30143W        W31007  22.798   0.037  19.355  0.1481 -0.1166 -0.2646
30144W        W31008  18.968   3.733  18.461 -0.1016 -0.1805  0.2888
30145W        W31009  18.658   0.583  17.997  0.2777 -0.2804 -0.3031
30146W        W31010  16.389   3.265  21.860 -0.1228  0.3198 -0.3500
30147W        W31011  17.798   4.961  16.665 -0.1011 -0.0489  0.3023
30148W        W31012  22.115   2.838  24.223 -0.2961  0.1791  0.0437
30149W        W31013  20.048   3.833  21.484 -0.0915 -0.0128 -0.1131
30150W        W31014  20.767   2.416  20.964  0.1893  0.1523 -0.3301
30151W        W31015  20.034   1.675  21.268 -0.1405 -0.1344  0.1237
30152W        W31016  22.303   2.676  22.813 -0.0568  0.3317 -0.0941
30153W        W31017  18.603   1.380  20.084  0.0270 -0.0577 -0.0739
30154W        W31018  20.292   4.293  20.796  0.0473 -0.0482  0.0284
30155W        W31019  19.690   2.276  20.198  0.1658  0.1425 -0.0199
30156W        W31020  21.779   3.223  20.375 -0.0268 -0.1595  0.2273
30157W        W31021  19.225   1.828  19.669  0.1450 -0.1115  0.2271
30158W        W31022  16.768  28.972  19.117  0.0937  0.0751 -0.0402
30159W        W31023  18.244   0.524  19.704 -0.1407  0.2171 -0.1825
30160W        W31024  20.562  26.042  20.070  0.1623 -0.3154 -0.0942
30161W        W31025  18.383   3.140  18.386 -0.2714  0.1886  0.2077
30162W        W31026  19.432   0.441  21.591 -0.0833  0.0068 -0.1529
30163W        W31027  18.111  28.049  14.914 -0.2803 -0.1841  0.1168
30164W        W31028  20.865   6.036  21.788  0.0297  0.3817  0.1125
30165W        W31029  22.499   1.291  22.010 -0.2679 -0.3504 -0.0933
30166W        W31030  19.906   1.842  25.285  0.2013  0.1062 -0.1739
30167W        W31031  20.677  28.962  20.527 -0.0111 -0.1053 -0.0527
30168W        W31032  21.210   0.723  20.591 -0.2590 -0.2426  0.1615
30169W        W31033  20.383   1.974  20.273  0.2034  0.1993 -0.1036
30170W        W31034  20.739   1.694  22.901  0.0483 -0.1210 -0.2007
30171W        W31035  18.719   0.692  20.103 -0.1086  0.1385 -0.0584
30172W        W31036  17.789   0.954  20.222  0.2590  0.0724  0.1376
30173W        W31037  23.717   0.294  19.566  0.1734  0.1240  0.0667
30174W        W31038  19.361   0.432  19.012 -0.1123  0.1723  0.1346
30175W        W31039  19.190   3.131  22.627 -0.0973 -0.1561 -0.0526
30176W        W31040  20.884   1.165  18.618 -0.1754 -0.0818 -0.2507
30177W        W31041  22.172  28.272  20.499  0.1333  0.1333  0.2780
30178W        W31042  21.541   4.242  22.036 -0.0189 -0.1656 -0.2218
30179W        W31043  19.118   2.599  19.415 -0.1344 -0.3979  0.1988
30180W        W31044  18.815  29.088  11.767  0.1290 -0.0370  0.0453
30181W        W31045  21.193   0.443  20.994  0.0696 -0.1724 -0.1087
30182W        W31046  19.989   1.874  19.245 -0.1365 -0.1379  0.1388
30183W        W31047  20.675   2.405  20.428  0.0549 -0.1143  0.1765
30184W        W31048  16.531   4.883  18.004 -0.2152  0.2688 -0.2646
30185W        W31049  23.022   3.413  21.933  0.1378 -0.2882 -0.0339
30186W        W31050  21.433   1.112  21.550  0.0082 -0.2456  0.1311
30187W        W31051  17.944   0.576  20.652 -0.0465 -0.2341 -0.2313
30188W        W31052  16.930   1.985  21.274 -0.1142 -0.1167 -0.0400
30189W        W31053  17.087   3.909  19.608  0.0426 -0.1479 -0.1692
30190W        W31054  19.267   1.058  20.294 -0.1775 -0.1085  0.2244
30191W        W31055  22.537   4.249  21.597 -0.2194  0.1200  0.1088
30192W        W31056  19.468   2.974  19.057 -0.1397 -0.4401  0.3723
30193W        W31057  19.055   3.768  16.202 -0.4053  0.0254 -0.0093
30194W        W31058  22.596  28.626  21.234 -0.1350 -0.1332  0.1127
30195W        W31059  21.937   4.125  20.468 -0.1594 -0.3265 -0.1532
30196W        W31060  20.397   1.089  21.794  0.5017 -0.0870  0.1703
30197W        W31061  20.417   1.187  18.912 -0.0018 -0.3750  0.1025
30198W        W31062  20.587   0.311  20.173  0.1552 -0.2186  0.0947
30199W        W31063  20.988   4.638  18.030 -0.1125  0.0308  0.1425
30200W        W31064  20.242   5.485  18.102 -0.0191 -0.1881  0.2447
30201W        W31065  21.342   3.263  19.304  0.1519 -0.0257 -0.0538
30202W        W31066  21.941   1.969  19.311  0.0948 -0.3391  0.0117
30203W        W31067  20.151   2.335  19.369 -0.2065 -0.0504 -0.2356
30204W        W31068  19.052  27.879  22.271 -0.0105 -0.0239  0.0296
30205W        W31069  18.881   5.202  21.202 -0.0815  0.3238 -0.1017
30206W        W31070  22.966   3.874  22.980  0.2063 -0.1381 -0.1045
30207W        W31071  19.188   1.886  18.680  0.3521 -0.1739 -0.0793
30208W        W31072  18.611   5.031  20.743  0.0710  0.1594 -0.0453
30209W        W31073  19.629   1.342  20.025  0.2014 -0.2259 -0.0114
30210W        W31074  19.973   6.150  20.430 -0.1929  0.0308 -0.0616
30211W        W31075  22.162  27.105  18.594 -0.2941 -0.1544 -0.0390
30212W        W31076  20.546  29.059  21.777 -0.1612  0.1043 -0.0578
30213W        W31077  17.702   2.745  21.073 -0.2095 -0.0006  0.1521
30214W        W31078  18.547  27.661  22.185 -0.2932 -0.0844 -0.2090
30215W        W31079  19.269   1.315  22.089  0.0978 -0.2646  0.1774
30216W        W31080  19.035   4.835  17.444 -0.2610  0.1471 -0.3189
30217W        W31081  21.584   4.491  19.563 -0.3179 -0.1261  0.1711
30218W        W31082  20.677  28.659  16.763 -0.1489  0.1778  0.2033
30219W        W31083  20.450  28.216  22.978 -0.2239 -0.0212  0.3504
30220W        W31084  18.309   3.181  17.867 -0.0206 -0.0098 -0.0983
30221W        W31085  19.546   1.829  20.050 -0.1444  0.3649 -0.2616
30222W        W31086  16.853   1.159  21.544 -0.0794 -0.0671  0.2322
30223W        W31087  17.934   2.628  17.880  0.2441 -0.1565  0.1713
30224W        W31088  20.707   2.291  18.352  0.4561  0.0055  0.1031
30225W        W31089  21.292   2.097  21.086  0.1075  0.0684  0.0859
30226W        W31090  24.390   2.240  21.555  0.0028  0.0991 -0.1245
30227W        W31091  22.031   2.243  23.027 -0.1594  0.3245  0.2491
30228W        W31092  21.655   4.141  22.614 -0.1955  0.0097  0.4018
30229W        W31093  19.718   0.207  18.756  0.0151 -0.1909  0.1218
30230W        W31094  19.816   4.293  20.625 -0.0805 -0.1280 -0.0590
30231W        W31095  19.683  28.522  18.301 -0.1820 -0.2091 -0.0729
30232W        W31096  20.306   4.316  22.100 -0.0641 -0.2172 -0.1659
30233W        W31097  19.523  28.612  19.321  0.2393 -0.1046 -0.2520
30234W        W31098  19.129   0.206  19.410 -0.1512 -0.1614 -0.0389
30235W        W31099  20.475   2.967  21.136 -0.1129  0.0331  0.0611
30236W        W31100  20.568   1.059  19.492  0.0850  0.1973  0.0828
30237W        W31101  20.510   0.792  22.593  0.0493  0.3243 -0.0805
30238W        W31102  20.811   0.892  18.141 -0.2775  0.0422 -0.3639
30239W        W31103  18.418   2.826  20.832  0.0126  0.0597 -0.1850
30240W        W31104  21.478   2.889  22.412 -0.2583  0.0147 -0.1151
30241W        W31105  21.966   3.480  23.133  0.1046 -0.3507 -0.1466
30242W        W31106  21.995   0.279  24.355 -0.0919  0.0194  0.1140
30243W        W31107  20.678   2.608  23.672  0.1369 -0.1916  0.0857
30244W        W31108  20.425   0.168  19.257 -0.2497 -0.0734  0.0018
30245W        W31109  16.775   3.181  20.883 -0.0532  0.1873  0.2069
30246W        W31110  20.072   1.371  22.228 -0.3066  0.0148  0.1484
30247W        W31111  18.763   1.347  15.764  0.2531  0.1892 -0.1307
30248W        W31112  20.486   1.446  19.869 -0.1994  0.0210 -0.2031
30249W        W31113  21.961   1.194  17.250  0.0251  0.2579  0.2531
30250W        W31114  19.418   5.425  20.985 -0.0066  0.1142  0.2998
30251W        W31115  18.807   2.994  15.703 -0.1503 -0.2567  0.0811
30252W        W31116  20.709  28.714  18.440  0.2225 -0.0026 -0.0094
30253W        W31117  23.511   0.643  20.760  0.1373 -0.1348 -0.1798
30254W        W31118  18.756   0.199  22.849  0.0363  0.1073  0.3207
30255W        W31119  19.110   1.807  20.822  0.1713  0.0485 -0.0046
30256W        W31120  17.008   5.419  19.030  0.0826  0.4886  0.2058
30257W        W31121  20.064  25.755  19.725 -0.1398  0.0447 -0.1553
30258W        W31122  17.900   4.000  19.211 -0.0871 -0.1247  0.1208
30259W        W31123  21.443   3.765  19.673  0.2135 -0.3113 -0.0460
30260W        W31124  19.862   3.944  17.275  0.2006  0.2665 -0.1053
30261W        W31125  20.734  28.940  19.270  0.2222  0.0464  0.1357
30262W        W31126  19.690   1.603  19.567 -0.1506 -0.2835  0.3227
30263W        W31127  19.030   1.138  21.085  0.1456 -0.2969  0.2006
30264W        W31128  22.747   0.805  18.309  0.3138  0.2759  0.3065
30265W        W31129  19.573   0.758  17.901 -0.0859 -0.0791 -0.1462
30266W        W31130  17.135   4.736  23.095  0.1029  0.0363  0.2014
30267W        W31131  17.181   0.359  20.717 -0.1023  0.0660 -0.0788
30268W        W31132  17.934   3.089  18.962 -0.1298 -0.1139  0.1068
30269W        W31133  16.579   3.930  14.962 -0.1843  0.2276 -0.3806
30270W        W31134  16.364  28.435  21.598 -0.0115 -0.1525  0.2025
30271W        W31135  18.851  29.022  20.565  0.3334 -0.3778 -0.1556
30272W        W31136  18.633  27.948  20.449 -0.1548 -0.1682  0.1502
30273W        W31137  20.280   2.369  19.885  0.0795  0.1347 -0.1582
30274W        W31138  20.439   2.501  21.331  0.0212 -0.0655 -0.0012
30275W        W31139  17.681   0.389  22.023  0.1213 -0.1970  0.4609
30276W        W31140  18.025   1.304  19.912 -0.1170 -0.0122 -0.2238
30277W        W31141  23.053   0.782  19.884 -0.2442 -0.3011  0.4697
30278W        W31142  18.221  27.130  17.788  0.0669 -0.2932 -0.2194
30279W        W31143  18.278   0.399  20.307  0.5767 -0.0939 -0.0418
30280W        W31144  24.083   2.417  20.443  0.0494  0.0285  0.0303
30281W        W31145  18.828   0.045  19.929 -0.2074 -0.0011  0.0859
30282W        W31146  20.285   2.960  21.678  0.0519  0.1022 -0.1963
30283W        W31147  18.540   0.859  17.527  0.1163  0.2020 -0.0068
30284W        W31148  18.050   1.536  20.937 -0.4220  0.0247 -0.1209
30285W        W31149  21.376   0.794  19.858  0.1191  0.1599 -0.4183
30286W        W31150  18.778   5.194  17.914  0.1644 -0.1478  0.0471
30287W        W31151  16.357   3.285  17.952  0.0664 -0.1538 -0.1644
30288W        W31152  18.213   1.175  22.470 -0.1455 -0.0303  0.0091
30289W        W31153  19.345   2.308  19.762  0.0471 -0.5207  0.1212
30290W        W31154  19.541   2.462  21.810  0.2997  0.0441 -0.0681
30291W        W31155  22.433  28.575  19.910 -0.0928 -0.1292 -0.0345
30292W        W31156  24.803   2.955  23.285  0.0642  0.0238 -0.0483
30293W        W31157  23.606   1.723  19.467  0.3048  0.1093  0.2089
30294W        W31158  21.960   2.833  19.589 -0.0968 -0.0790 -0.0587
30295W        W31159  19.714   5.099  18.194 -0.0251 -0.0066  0.0977
30296W        W31160  20.569   1.603  23.845  0.0114 -0.1240  0.1981
30297W        W31161  15.806  27.906  21.265 -0.1036 -0.2107  0.0638
30298W        W31162  24.045  28.590  20.192 -0.0440  0.2021 -0.0766
30299W        W31163  22.061   1.917  20.559 -0.2267 -0.2946 -0.0392
30300W        W31164  20.976   3.805  21.673  0.0769  0.0271 -0.0204
30301W        W31165  20.503   0.428  17.774 -0.1170 -0.0393 -0.0983
30302W        W31166  19.218   2.856  18.623 -0.0313  0.0743 -0.0824
30303W        W31167  19.632  28.176  22.731 -0.0537 -0.0976  0.1668
30304W        W31168  17.484   1.604  22.348  0.3507  0.0996 -0.1815
30305W        W31169  21.751   0.593  19.646 -0.0875  0.0687  0.1676
30306W        W31170  18.458   4.522  20.947  0.2515 -0.1274 -0.0944
30307W        W31171  21.922   1.653  21.390 -0.2226 -0.1729 -0.2712
30308W        W31172  18.499  29.031  21.711 -0.1280  0.2432  0.0116
30309W        W31173  20.086   3.327  20.657 -0.3411  0.2587 -0.1446
30310W        W31174  19.090   2.265  21.168 -0.0685 -0.1829  0.0256
30311W        W31175  21.137   4.202  19.747  0.2513  0.2239 -0.3156
30312W        W31176  18.504  29.031  20.965  0.0223 -0.2110 -0.1245
30313W        W31177  20.866   3.820  20.469 -0.0044  0.4797 -0.0889
30314W        W31178  21.848   2.041  21.689 -0.0187  0.1570  0.1282
30315W        W31179  19.987  28.506  23.146  0.1003 -0.3950 -0.0606
30316W        W31180  21.253   2.166  21.790  0.0766  0.0609 -0.0911
30317W        W31181  22.692   4.717  19.962  0.3189  0.1097 -0.1438
30318W        W31182  19.146   4.454  21.534  0.0443 -0.1585 -0.0643
30319W        W31183  16.639   3.563  22.447 -0.0322  0.2666  0.0423
30320W        W31184  19.580   1.968  20.996  0.2175  0.1433  0.1664
30321W        W31185  18.352  28.124  19.525 -0.1344  0.0992  0.2516
30322W        W31186  20.447   0.326  22.307 -0.1984  0.0319  0.0170
30323W        W31187  20.919   1.788  18.541  0.0170  0.1710 -0.0301
30324W        W31188  20.926   3.006  23.738  0.3239 -0.0970  0.3275
30325W        W31189  17.033   3.593  21.095 -0.2078  0.3036 -0.0604
30326W        W31190  22.728   3.383  18.745  0.1517  0.1084  0.0061
30327W        W31191  19.242   0.953  18.882  0.0977 -0.0491 -0.1877
30328W        W31192  19.018   3.860  19.537 -0.1711  0.0627  0.4198
30329W        W31193  18.383   4.129  19.198 -0.1195  0.1006 -0.1971
30330W        W31194  21.290   3.055  22.029  0.2178  0.0806 -0.0759
30331W        W31195  20.154   1.725  23.650 -0.0053  0.1740  0.2178
30332W        W31196  16.849  28.013  17.662 -0.1755  0.1978 -0.1462
30333W        W31197  21.731   1.000  22.603 -0.0329  0.2420  0.0368
30334W        W31198  19.663   0.187  20.260  0.1201 -0.1378 -0.0125
30335W        W31199  18.525   0.644  21.661 -0.1549  0.0251 -0.1607
30336W        W31200  19.371   2.756  19.904 -0.0888  0.3442 -0.0910
30337W        W31201  18.528   2.523  19.986  0.1603 -0.1000  0.3271
30338W        W31202  19.227   0.210  18.592 -0.0234 -0.1617  0.2160
30339W        W31203  19.295   0.633  21.073  0.1502  0.0886  0.5093
30340W        W31204  20.083   1.130  22.693  0.1492  0.1948 -0.2565
30341W        W31205  18.809  28.439  21.856  0.0147  0.0451 -0.1365
30342W        W31206  18.930   3.806  20.051  0.1416 -0.1121  0.0461
30343W        W31207  19.075   0.722  20.658  0.3668 -0.0150 -0.0665
30344W        W31208  20.252   4.214  18.820 -0.0060 -0.0336  0.2898
30345W        W31209  23.784   1.969  20.423  0.1370  0.1880  0.0200
30346W        W31210  16.894   2.370  21.585 -0.1706  0.0874  0.2027
30347W        W31211  24.277   1.941  21.170 -0.0602 -0.0622  0.0729
30348W        W31212  20.257  28.864  18.601  0.2006  0.1014  0.0388
30349W        W31213  19.349   2.041  20.454  0.0968 -0.3549  0.1491
30350W        W31214  21.429   3.267  19.875  0.0282 -0.0729  0.4898
30351W        W31215  17.278   2.360  21.043 -0.2400  0.2055 -0.2396
30352W        W31216  23.438   3.378  23.000 -0.2262 -0.0509 -0.1080
30353W        W31217  20.671  28.163  22.020  0.0229  0.1722  0.2972
30354W        W31218  19.240  25.392  20.647 -0.0346  0.0316  0.2162
30355W        W31219  16.749  28.911  20.981  0.1205 -0.0868 -0.0523
30356W        W31220  18.178   2.956  16.502 -0.2339  0.1650  0.0422
30357W        W31221  17.410   2.479  20.169 -0.3517  0.2082 -0.1315
30358W        W31222  21.479   2.754  19.347  0.1752 -0.0584 -0.2697
30359W        W31223  18.190   2.689  18.665 -0.2606  0.1119  0.1943
30360W        W31224  19.068   1.393  19.986  0.2675 -0.2168  0.3308
30361W        W31225  18.374   0.830  20.548  0.0694  0.0811 -0.3645
30362W        W31226  21.034   3.116  18.734 -0.2385  0.1288  0.0109
30363W        W31227  23.351   2.858  22.759  0.0407  0.0407  0.1784
30364W        W31228  19.270   3.326  18.790 -0.0298 -0.1243 -0.2712
30365W        W31229  18.027   0.370  21.207 -0.0731 -0.0404  0.1007
30366W        W31230  21.858   1.088  19.914 -0.1571 -0.1173  0.1996
30367W        W31231  18.796   4.434  18.643  0.3807 -0.0354 -0.0846
30368W        W31232  17.470   2.756  18.953  0.2388  0.1671 -0.2014
30369W        W31233  19.557   1.059  19.566  0.1238  0.1033 -0.1218
30370W        W31234  22.037   2.864  21.007 -0.0939  0.0571 -0.0501
30371W        W31235  19.243   2.423  20.742  0.1226  0.0475 -0.0640
30372W        W31236  19.506   0.151  21.139  0.3807  0.3260  0.1444
30373W        W31237  23.558  28.410  20.417 -0.2494  0.1005  0.1988
30374W        W31238  19.685   0.794  20.026  0.1180 -0.4606 -0.1021
30375W        W31239  20.843   1.602  22.364  0.2681  0.0972  0.3346
30376W        W31240  22.665   1.224  22.464  0.0288  0.1143  0.0973
30377W        W31241  15.597   3.240  20.713  0.3391  0.0722  0.0216
30378W        W31242  19.742   4.182  18.649  0.0105 -0.3416  0.2172
30379W        W31243  19.665   0.560  24.864 -0.1010 -0.1352  0.1346
30380W        W31244  21.688   1.748  20.938 -0.0426 -0.0029 -0.1027
30381W        W31245  18.843   3.111  19.290 -0.1567 -0.2359  0.1707
30382W        W31246  19.049   3.047  20.213  0.1509 -0.2402 -0.0115
30383W        W31247  18.865   4.286  20.178  0.1513 -0.1801  0.0681
30384W        W31248  19.576   2.396  21.213 -0.2459 -0.0118  0.1525
30385W        W31249  18.390   2.078  20.808 -0.3489  0.2233 -0.0515
30386W        W31250  20.904  28.415  19.198  0.2143 -0.0238  0.1289
30387W        W31251  17.130   3.737  22.365 -0.1520  0.0622 -0.1653
30388W        W31252  20.012   3.291  20.121 -0.0058 -0.0294  0.0131
30389W        W31253  20.842   4.703  20.010  0.0304 -0.2488 -0.2310
30390W        W31254  20.955   1.000  21.788  0.1251 -0.1878 -0.0690
30391W        W31255  19.840   1.065  20.423  0.0362 -0.0998  0.0012
30392W        W31256  18.273   3.585  21.099 -0.0087  0.4996 -0.1468
30393W        W31257  19.500   2.466  23.380 -0.0177  0.0122 -0.0553
30394W        W31258  18.921  27.747  17.644 -0.4042 -0.4251  0.1386
30395W        W31259  20.460   1.984  18.709  0.0264  0.3876 -0.2628
30396W        W31260  18.810   5.304  20.216  0.1080 -0.0587 -0.0490
30397W        W31261  17.926   3.378  18.532 -0.0272  0.1295 -0.2006
30398W        W31262  15.151   2.544  20.568 -0.2017 -0.1891  0.3408
30399W        W31263  20.760   4.505  15.023  0.2157  0.1599  0.1084
30400W        W31264  18.085   4.725  21.974  0.1454  0.0549 -0.4723
30401W        W31265  15.575   3.286  21.632 -0.0556  0.1512 -0.1042
30402W        W31266  18.761   0.353  20.482  0.1562 -0.1875  0.1272
30403W        W31267  16.640   2.383  20.748  0.2826  0.0619  0.1166
30404W        W31268  20.141   0.127  20.294  0.0313 -0.0171 -0.1168
30405W        W31269  18.632   2.645  19.417 -0.1983  0.0635  0.0802
30406W        W31270  20.467   1.539  19.362  0.0357 -0.2005  0.0316
30407W        W31271  17.846   1.130  18.613  0.1326 -0.1664 -0.0670
30408W        W31272  19.886   3.312  21.858 -0.0473 -0.2114 -0.1389
30409W        W31273  22.273   1.261  19.703 -0.2634 -0.0672  0.0371
30410W        W31274  19.209   0.429  20.242 -0.3141  0.1504  0.0059
30411W        W31275  20.163   2.589  23.583 -0.0028 -0.1360  0.0480
30412W        W31276  22.307   1.915  23.731  0.2788  0.2437  0.1765
30413W        W31277  20.329   3.771  22.445  0.3192 -0.3632 -0.0948
30414W        W31278  16.909   5.257  23.631  0.0298 -0.2404  0.2239
30415W        W31279  19.850   2.161  19.731  0.1863 -0.3107 -0.0079
30416W        W31280  18.788   3.435  20.455 -0.0598 -0.0883 -0.0491
30417W        W31281  17.588  27.821  17.463  0.3232  0.2627 -0.0411
30418W        W31282  17.404   6.003  20.768 -0.0131  0.1609 -0.0017
30419W        W31283  17.543   2.978  22.033 -0.1567 -0.2900  0.2163
30420W        W31284  19.148  28.853  19.585 -0.2168 -0.3058  0.2260
30421W        W31285  18.046   2.664  19.336 -0.0434  0.0923 -0.0507
30422W        W31286  22.236   2.264  22.228  0.3221 -0.2719  0.1745
30423W        W31287  19.990   0.189  23.545  0.0755 -0.1127  0.2305
30424W        W31288  20.338   2.916  20.368  0.0618  0.1326  0.1731
30425W        W31289  22.124  27.795  20.314  0.1020 -0.0347  0.1101
30426W        W31290  19.651  28.937  20.691 -0.1388 -0.1895 -0.0994
30427W        W31291  18.559   1.084  16.137  0.0403  0.1649 -0.1732
30428W        W31292  20.785   3.427  23.452  0.3916  0.0972  0.0163
30429W        W31293  19.307   2.118  18.141 -0.2061  0.1159  0.1875
30430W        W31294  18.503   0.234  21.328 -0.2668 -0.0942 -0.1302
30431W        W31295  17.437   2.895  18.150  0.2346  0.2036  0.4623
30432W        W31296  19.260   3.705  17.966  0.1561  0.0752  0.1877
30433W        W31297  16.454  28.939  16.104 -0.2383  0.1240 -0.2488
30434W        W31298  15.670  29.021  19.931  0.0417 -0.1693  0.1316
30435W        W31299  19.903   1.114  23.646  0.1042  0.0992  0.3722
30436W        W31300  19.944  29.032  22.333 -0.0993 -0.0649 -0.0662
30437W        W31301  17.854   0.466  19.958  0.0722 -0.1148  0.0888
30438W        W31302  19.329   3.485  16.475  0.1558  0.0055 -0.1051
30439W        W31303  22.343   3.007  22.471 -0.0356 -0.0476  0.1582
30440W        W31304  18.519   1.311  20.915  0.2156  0.0108 -0.0205
30441W        W31305  21.542  28.925  18.051 -0.1770 -0.0900  0.0525
30442W        W31306  19.345   4.542  17.004 -0.1256 -0.1953 -0.0864
30443W        W31307  18.507   5.106  21.890  0.0428 -0.2134  0.1211
30444W        W31308  20.603   2.809  19.940 -0.0239 -0.1887 -0.0688
30445W        W31309  22.109   3.435  21.975  0.2639  0.0857 -0.0064
30446W        W31310  21.690   0.099  19.358 -0.1557 -0.2419 -0.0916
30447W        W31311  21.161   0.949  21.037  0.1637  0.0463 -0.2803
30448W        W31312  18.714  28.969  19.327 -0.2806 -0.3267 -0.1973
30449W        W31313  21.354   2.780  21.548 -0.0884  0.1797 -0.0819
30450W        W31314  18.672   1.472  18.412 -0.1182 -0.3322 -0.0166
30451W        W31315  20.717   2.977  22.107  0.1041  0.2193  0.1207
30452W        W31316  19.038   5.641  19.011 -0.1348  0.0147  0.0649
30453W        W31317  19.339   2.943  23.451 -0.2358  0.1453 -0.0837
30454W        W31318  19.107   0.759  22.275 -0.1176  0.0682 -0.1111
30455W        W31319  22.212   3.264  23.962 -0.0590 -0.0598 -0.1882
30456W        W31320  17.949  28.447  24.121  0.2792 -0.1954  0.0068
30457W        W31321  18.321   4.141  21.963  0.1923 -0.3223 -0.0757
30458W        W31322  19.500  28.631  21.470 -0.0715  0.0481 -0.2679
30459W        W31323  19.274   3.501  19.259  0.0601 -0.4191  0.2178
30460W        W31324  19.390   1.555  20.449 -0.1161 -0.3466 -0.2836
30461W        W31325  16.221   2.473  20.417 -0.1470  0.1665  0.1480
30462W        W31326  23.074   3.681  20.575  0.0918  0.1841 -0.1806
30463W        W31327  21.307   2.001  22.385 -0.0837 -0.1199 -0.0860
30464W        W31328  21.168   2.851  19.790  0.0197 -0.0623  0.1910
30465W        W31329  18.108   5.087  22.702  0.2470  0.1097 -0.1288
30466W        W31330  17.680   3.834  18.022 -0.1235 -0.1252  0.0979
30467W        W31331  20.896   3.829  22.520 -0.1310  0.2159  0.0169
30468W        W31332  19.404   4.237  23.406  0.0857  0.3281 -0.1886
30469W        W31333  18.383   3.642  18.442  0.0047 -0.1075  0.0224
30470W        W31334  18.980   4.707  19.029 -0.2099 -0.3476 -0.1742
30471W        W31335  23.447   3.659  20.251 -0.0335 -0.1983  0.1546
30472W        W31336  20.880   3.326  21.262 -0.0362  0.3691  0.0751
30473W        W31337  16.646   0.216  20.893 -0.0862 -0.1144  0.1465
30474W        W31338  19.142   4.068  16.616 -0.2250  0.3538  0.1394
30475W        W31339  19.338   2.669  22.333  0.1479  0.0638 -0.1347
30476W        W31340  17.315   1.809  19.200  0.2574 -0.3804 -0.2670
30477W        W31341  18.722  28.781  17.512 -0.0667  0.0063  0.2866
30478W        W31342  19.631   3.103  22.438  0.0025  0.2157 -0.2521
30479W        W31343  19.388   0.871  24.118 -0.1556 -0.1043 -0.1153
30480W        W31344  21.251   3.353  23.755  0.0441 -0.1908 -0.0707
30481W        W31345  22.684   3.158  25.263 -0.0572 -0.0370 -0.2097
30482W        W31346  19.039   2.420  23.450  0.1142  0.2843  0.1356
30483W        W31347  20.364   2.270  25.025  0.0162 -0.1621  0.2816
30484W        W31348  22.002   3.079  23.465 -0.1566 -0.1964 -0.0698
30485W        W31349  20.621   1.980  20.683  0.0929  0.2393 -0.6806
30486W        W31350  22.404   3.628  25.511  0.1346  0.1238 -0.0957
30487W        W31351  18.374   1.085  25.246 -0.0078  0.0603 -0.2927
30488W        W31352  17.684   2.884  25.148 -0.2077  0.0965 -0.4243
30489W        W31353  21.989  28.730  25.485 -0.0006 -0.0761  0.0903
30490W        W31354  21.117  28.780  23.422 -0.0855  0.3180  0.1370
30491W        W31355  21.148   1.314  26.651 -0.0529 -0.2747  0.3223
30492W        W31356  18.268  28.810  24.445 -0.0241 -0.0627 -0.1603
30493W        W31357  17.802   2.734  23.974  0.2318 -0.0287  0.1574
30494W        W31358  20.159   2.165  20.767 -0.0703  0.1030  0.1466
30495W        W31359  17.313   2.135  22.466  0.0624 -0.2817 -0.0202
30496W        W31360  18.673   2.519  25.493 -0.0179 -0.1748 -0.1500
30497W        W31361  21.619   1.805  23.180 -0.0138  0.2554  0.0510
30498W        W31362  20.262   1.915  24.091 -0.1783  0.0482 -0.1938
30499W        W31363  21.670  28.713  23.067  0.0668 -0.0284 -0.2462
30500W        W31364  20.154   3.620  25.528  0.0143  0.1655  0.0173
30501W        W31365  20.201   1.338  23.997  0.0378  0.1544  0.3143
30502W        W31366  18.650   2.955  22.611  0.0508  0.1378 -0.0635
30503W        W31367  19.233   0.599  25.078  0.0724 -0.0286  0.0260
30504W        W31368  22.933   1.806  25.023  0.0349 -0.0691 -0.0483
30505W        W31369  19.137   2.066  22.961 -0.1163 -0.1423  0.0179
30506W        W31370  20.542   2.642  25.338  0.2591 -0.1475  0.1359
30507W        W31371  19.746   3.974  24.461  0.1305 -0.1160 -0.1145
30508W        W31372  21.650   1.129  25.064 -0.0882  0.1991 -0.0670
30509W        W31373  21.908   3.554  25.954 -0.1673  0.2523  0.1143
30510W        W31374  20.269  29.093  25.899 -0.2144 -0.0213 -0.2163
30511W        W31375  19.103   3.037  22.107  0.0429  0.1146  0.0148
30512W        W31376  18.450   2.772  26.574  0.1069  0.0896  0.1855
30513W        W31377  18.158   0.071  24.170 -0.0333  0.0396  0.1337
30514W        W31378  18.778   0.631  23.539  0.0884 -0.2467 -0.0780
30515W        W31379  20.977   4.074  23.727 -0.1433  0.1114  0.0945
30516W        W31380  22.228   2.967  21.858 -0.2921 -0.4011  0.0070
30517W        W31381  22.675  28.666  24.861  0.0704  0.3438 -0.0788
30518W        W31382  24.803   1.241  22.013 -0.0886  0.2018  0.1798
30519W        W31383  23.272   1.363  23.938 -0.1678 -0.0287  0.0237
30520W        W31384  19.956   5.052  22.398 -0.0035 -0.0670 -0.1168
30521W        W31385  22.947   2.597  21.213  0.1169 -0.0257  0.1241
30522W        W31386  20.349   4.757  23.046 -0.2199 -0.3255 -0.1016
30523W        W31387  21.342   3.526  23.284  0.1024  0.3391  0.2690
30524W        W31388  19.532  27.231  24.287  0.1347 -0.0335 -0.0624
30525W        W31389  20.767  28.181  23.409  0.0361 -0.0280  0.0134
30526W        W31390  21.956   4.456  23.035  0.0985  0.2534 -0.4593
30527W        W31391  21.273   3.406  25.272  0.1612  0.4944  0.1750
30528W        W31392  21.901   5.163  21.956  0.0735 -0.5482  0.0811
30529W        W31393  21.647  28.575  23.558 -0.2249  0.2239  0.2363
30530W        W31394  22.415   0.378  24.688  0.2557 -0.1627 -0.1481
30531W        W31395  22.675   3.497  23.890 -0.0051 -0.1666  0.1214
30532W        W31396  21.403  27.895  21.471  0.2290 -0.0783  0.0545
30533W        W31397  19.968   3.066  24.719  0.0688  0.0983 -0.2703
30534W        W31398  19.264   0.165  24.836 -0.0191 -0.0329 -0.2040
30535W        W31399  21.687   1.629  23.691 -0.0395  0.2754  0.2899
30536W        W31400  18.590   1.639  23.763 -0.0582  0.0199  0.0996
30537W        W31401  20.444   1.321  23.033  0.1448 -0.1544  0.3627
30538W        W31402  21.275   1.115  22.914 -0.0709  0.0698  0.0415
30539W        W31403  16.348   2.174  23.843  0.0413 -0.0619 -0.0410
30540W        W31404  20.323   4.197  22.903  0.1812  0.0151 -0.2665
30541W        W31405  18.931   0.977  23.227  0.3130 -0.0106  0.1120
30542W        W31406  20.737   0.015  25.663 -0.0779 -0.1564  0.2712
30543W        W31407  23.040   0.382  22.888  0.0628 -0.0487  0.0485
30544W        W31408  17.326   3.460  21.874 -0.1388  0.2260 -0.1947
30545W        W31409  19.945   2.152  23.512  0.2865  0.1841  0.1719
30546W        W31410  19.271   3.248  24.023  0.0205 -0.1172 -0.1542
30547W        W31411  19.662   2.006  23.095  0.2375 -0.2696  0.1671
30548W        W31412  23.268   4.089  23.613 -0.2066 -0.2645 -0.1783
30549W        W31413  22.215  28.711  23.047 -0.3324  0.1367  0.0779
30550W        W31414  19.347   1.937  23.535 -0.2531  0.1164 -0.0526
30551W        W31415  21.716   2.062  25.031 -0.1068 -0.1213  0.0489
30552W        W31416  22.398   3.152  22.989 -0.0087 -0.0334 -0.0581
30553W        W31417  17.549   1.437  24.426  0.0298 -0.1080 -0.3735
30554W        W31418  16.940   0.178  24.814 -0.1041 -0.2335 -0.4496
30555W        W31419  20.090   1.024  23.181 -0.1314  0.0120 -0.1709
30556W        W31420  21.251   1.615  22.932 -0.0357 -0.0422  0.3202
30557W        W31421  17.920  28.806  22.810 -0.0432  0.0948 -0.1837
30558W        W31422  17.312   2.906  23.749  0.1326 -0.3387  0.4663
30559W        W31423  19.181   1.227  26.456 -0.0376  0.2501  0.0745
30560W        W31424  19.586   1.042  21.399 -0.0115  0.2432  0.1699
30561W        W31425  21.446   1.429  26.260 -0.0384 -0.0161  0.2026
30562W        W31426  20.606   1.053  25.294 -0.1909 -0.3328  0.2906
30563W        W31427  24.813   0.178  22.974 -0.1340 -0.1594  0.1997
30564W        W31428  22.221   2.256  24.337  0.1068  0.1365  0.0162
30565W        W31429  18.461   0.663  24.780 -0.0151  0.0466  0.2374
30566W        W31430  21.611   1.148  25.864  0.0666  0.3855 -0.1951
30567W        W31431  21.854  28.304  23.944 -0.2634 -0.0082  0.2115
30568W        W31432  22.009   0.529  21.413 -0.2288  0.2595 -0.0875
30569W        W31433  26.315   1.732  24.426 -0.2974  0.0016  0.0443
30570W        W31434  17.451   5.948  24.644 -0.2199  0.1266  0.1080
30571W        W31435  21.648  28.667  24.284  0.0412 -0.0526  0.0045
30572W        W31436  19.919  28.039  25.084 -0.1357  0.2708 -0.0194
30573W        W31437  23.104  28.587  22.446  0.3012  0.0436 -0.2054
30574W        W31438  23.376   1.726  23.518  0.0330  0.2452 -0.0464
30575W        W31439  17.609   4.189  23.588  0.2980  0.1065 -0.2238
30576W        W31440  20.823  28.597  23.720  0.0186  0.2462 -0.0582
30577W        W31441  23.169   0.075  23.293 -0.0831 -0.0748 -0.1781
30578W        W31442  22.776   3.024  21.291 -0.0471  0.0337  0.0368
30579W        W31443  16.668   2.546  22.044 -0.4645 -0.0176  0.2467
30580W        W31444  23.383   1.496  22.976 -0.0384  0.3775  0.1036
30581W        W31445  19.990   5.804  21.978  0.3968 -0.2617 -0.0543
30582W        W31446  22.745   2.097  22.530  0.2039 -0.0119 -0.0966
30583W        W31447  20.388  27.216  25.893  0.0725 -0.2819  0.1149
30584W        W31448  20.628   4.210  22.446  0.1909  0.0855 -0.1390
30585W        W31449  24.320   3.169  23.093  0.2997 -0.0550 -0.0267
30586W        W31450  23.027   1.161  22.824 -0.3316  0.0015 -0.2850
30587W        W31451  22.002   1.403  25.819  0.0647 -0.3299 -0.2538
30588W        W31452  20.662   2.522  22.298 -0.0952 -0.2257  0.2089
30589W        W31453  22.245   2.050  22.664 -0.0184 -0.1966  0.0407
30590W        W31454  22.002   0.198  24.884  0.1396  0.1474 -0.0612
30591W        W31455  20.938   3.014  24.686  0.5389  0.1533 -0.2260
30592W        W31456  22.971   1.897  20.645  0.1261  0.0968 -0.1191
30593W        W31457  19.456   0.247  22.028  0.0484  0.0180 -0.3202
30594W        W31458  23.517   2.492  24.731 -0.2637 -0.0400  0.0712
30595W        W31459  22.500   1.559  23.356 -0.0985 -0.0952  0.0223
30596W        W31460  20.352   2.052  22.227 -0.2891 -0.0726 -0.0436
30597W        W31461  22.220   2.616  23.397  0.0017  0.1523 -0.0484
30598W        W31462  22.760   2.472  22.847  0.0474 -0.0640  0.2661
30599W        W31463  23.062   5.173  22.020  0.3165  0.3790  0.0853
30600W        W31464  20.994   2.223  23.318  0.0471 -0.1406  0.0760
30601W        W31465  22.487   5.565  22.916  0.0412 -0.1833  0.6730
30602W        W31466  19.398   0.883  21.837 -0.0821 -0.0297 -0.0833
30603W        W31467  19.793   1.540  24.258 -0.1627  0.1097  0.1092
30604W        W31468  19.130   2.284  25.519  0.4386 -0.1092 -0.0436
30605W        W31469  23.680   0.295  23.453 -0.1604 -0.2128  0.1702
30606W        W31470  20.406   3.016  23.521  0.1500  0.0573 -0.4195
30607W        W31471  18.290   1.025  21.809  0.1726 -0.0613 -0.1652
30608W        W31472  21.200   0.450  24.139  0.1911  0.0401 -0.0858
30609W        W31473  23.542   2.272  23.461 -0.0824 -0.1582 -0.1298
30610W        W31474  19.785   4.362  23.970  0.1998 -0.2266 -0.0264
30611W        W31475  24.779  27.767  20.939 -0.0761  0.1298 -0.1741
30612W        W31476  20.982   0.291  21.792 -0.0394 -0.2534 -0.0066
30613W        W31477  17.965  28.712  26.146  0.1604  0.2694  0.2526
30614W        W31478  23.462   1.269  22.594  0.3208 -0.2407 -0.1517
30615W        W31479  22.500   0.267  24.204  0.1767  0.3054  0.2077
30616W        W31480  21.037   4.215  21.990  0.1806  0.1003 -0.3074
30617W        W31481  23.317   3.725  23.301 -0.0555  0.2554  0.1118
30618W        W31482  17.995  26.767  23.000 -0.1237 -0.1574  0.1814
30619W        W31483  20.090   0.856  25.126  0.0871  0.0748 -0.3053
30620W        W31484  18.432   3.602  22.627  0.0671 -0.3032 -0.1683
30621W        W31485  20.799   2.868  21.555 -0.0934  0.0787 -0.0348
30622W        W31486  23.160   0.623  23.348  0.2709  0.0166 -0.0088
30623W        W31487  21.235   2.118  24.851 -0.1543 -0.1788  0.1124
30624W        W31488  17.214   0.252  20.031  0.1877 -0.1979  0.2223
30625W        W31489  18.778   2.552  21.685 -0.1969 -0.1610  0.1753
30626W        W31490  21.255   3.359  24.741 -0.2624  0.1132 -0.0496
30627W        W31491  21.587   1.214  24.569 -0.3722 -0.0659  0.0941
30628W        W31492  23.529   6.488  24.191 -0.0893  0.1326 -0.0482
30629W        W31493  19.398   2.131  24.725 -0.2055 -0.1338  0.4114
30630W        W31494  20.937  28.633  25.674  0.1429  0.2521  0.0207
30631W        W31495  18.822   1.962  23.324  0.0742 -0.4105 -0.0876
30632W        W31496  20.390   1.522  24.512  0.0092  0.0298 -0.0286
30633W        W31497  22.976   1.645  22.499  0.0575  0.1345  0.0888
30634W        W31498  20.006   3.230  25.839  0.2192 -0.0781  0.2180
30635W        W31499  22.446   2.532  20.429 -0.0791  0.0552 -0.1839
30636W        W31500  19.806  27.518  21.123 -0.1668 -0.1068 -0.0334
30637W        W31501  22.179   1.787  23.076 -0.1620  0.1380  0.3284
30638W        W31502  23.021  28.876  24.141 -0.0218 -0.2207 -0.1481
30639W        W31503  20.347   0.854  24.047 -0.2086 -0.1097  0.1302
30640W        W31504  20.591   3.342  25.632 -0.1605  0.0446 -0.0349
30641W        W31505  22.009   3.255  24.559  0.2174  0.1500 -0.0808
30642W        W31506  21.464   1.326  23.345  0.0210 -0.0791 -0.0489
30643W        W31507  21.233  28.348  23.206 -0.4159  0.0451 -0.0065
30644W        W31508  18.034   0.595  22.899  0.1161  0.3492  0.0069
30645W        W31509  16.258   3.770  22.042  0.0355 -0.0281  0.0241
30646W        W31510  19.365   1.507  22.924 -0.0237  0.0154  0.1328
30647W        W31511  17.771   1.924  22.714  0.0686  0.1105 -0.1125
30648W        W31512  18.986   1.976  22.422 -0.0043 -0.1033 -0.2020
30649W        W31513  21.196   1.351  24.301  0.2145 -0.2337  0.1283
30650W        W31514  21.857   0.466  23.426 -0.1670  0.0356  0.1195
30651W        W31515  21.272   0.635  22.026 -0.0688 -0.0483 -0.0466
30652W        W31516  22.318  29.066  22.431 -0.1487 -0.0435 -0.0449
30653W        W31517  24.380   1.925  22.401 -0.1835  0.0278  0.0690
30654W        W31518  18.949   5.238  22.360 -0.0084 -0.1712 -0.2618
30655W        W31519  17.710   7.865  21.986 -0.2220 -0.0197  0.0482
30656W        W31520  14.844   2.484  23.122 -0.1193 -0.0698  0.0847
30657W        W31521  21.881  27.201  20.950  0.1531 -0.3934  0.0555
30658W        W31522  20.884   1.983  23.907 -0.1010 -0.1497  0.0919
30659W        W31523  24.069   4.229  23.483  0.3332 -0.2987 -0.1991
30660W        W31524  21.483   1.035  20.278  0.1083  0.2143  0.1081
30661W        W31525  20.966   0.456  23.608  0.0011  0.2782  0.1198
30662W        W31526  19.135  28.111  20.204  0.1720  0.0037 -0.0395
30663W        W31527  19.526   4.101  22.788 -0.0139  0.0079  0.1254
30664W        W31528  19.661   1.754  24.793  0.0589 -0.2458  0.3279
30665W        W31529  19.087   1.758  21.329 -0.0841 -0.3082 -0.3017
30666W        W31530  22.033   2.007  25.767 -0.2790 -0.5524  0.0696
30667W        W31531  19.611   4.987  23.026 -0.0053 -0.3162 -0.0818
30668W        W31532  20.292   1.452  25.164 -0.3100 -0.0744 -0.1456
30669W        W31533  18.378   5.843  23.364 -0.4764 -0.1635 -0.0619
30670W        W31534  20.085  28.491  26.576 -0.0210  0.1751  0.1647
30671W        W31535  19.102  28.531  26.320  0.2261  0.2326 -0.0949
30672W        W31536  21.226  28.662  24.526 -0.1099 -0.0188 -0.1916
30673W        W31537  20.478   1.825  26.006 -0.3353  0.0817  0.0568
30674W        W31538  20.382  27.259  22.114 -0.1351  0.0732  0.2243
30675W        W31539  20.777  27.775  25.646  0.0160  0.0533  0.0432
30676W        W31540  19.453   0.547  22.611  0.0112  0.0614 -0.0723
30677W        W31541  21.362   0.730  22.507  0.1009  0.0173 -0.2839
30678W        W31542  16.236   2.311  22.236  0.0382 -0.3430  0.0076
30679W        W31543  20.128  28.960  26.410 -0.1194  0.2043 -0.1464
30680W        W31544  20.850   1.213  22.717 -0.1729  0.2806  0.1087
30681W        W31545  17.382   2.108  22.990 -0.0840 -0.0734 -0.1246
30682W        W31546  21.302   2.478  27.641 -0.0412 -0.0874 -0.1578
30683W        W31547  17.080  27.238  22.945 -0.2110 -0.2105  0.3183
30684W        W31548  21.459  28.734  25.629  0.0260  0.2517 -0.1552
30685W        W31549  22.829   4.637  24.296 -0.2089  0.2625  0.2983
30686W        W31550  21.199   3.380  22.440 -0.2494 -0.1907  0.0445
30687W        W31551  21.721   2.068  22.188 -0.0315  0.1879  0.0472
30688W        W31552  18.896   1.999  26.336 -0.2277 -0.1215  0.1851
30689W        W31553  16.891   1.353  22.633 -0.1176  0.1325 -0.0721
30690W        W31554  18.842   2.063  24.029 -0.1858  0.0086 -0.0196
30691W        W31555  20.803   1.240  24.643 -0.3894  0.1357 -0.3608
30692W        W31556  22.142   0.383  22.434  0.0132  0.2738 -0.1405
30693W        W31557  21.747  28.282  21.889 -0.2383  0.0188 -0.0047
30694W        W31558  22.932   2.409  20.769 -0.1381  0.0491  0.0319
30695W        W31559  21.442   2.218  23.679  0.1553 -0.1275 -0.1526
30696W        W31560  20.465   2.932  26.606 -0.0445  0.0179 -0.0239
30697W        W31561  22.942   3.570  24.391  0.3207  0.1482  0.0920
30698W        W31562  23.046   2.090  23.319 -0.1227  0.0543  0.3150
30699W        W31563  21.549   0.031  23.005  0.2500  0.0603 -0.1841
30700W        W31564  20.164   4.657  24.865  0.0483  0.0529  0.2566
30701W        W31565  20.948  29.133  23.728  0.0177  0.2639 -0.1516
30702W        W31566  23.708   1.740  21.560  0.1044 -0.0550 -0.0528
30703W        W31567  18.481   1.688  25.355 -0.2049 -0.2797 -0.2713
30704W        W31568  21.919   0.959  23.666  0.4633  0.3214 -0.2738
30705W        W31569  19.606   2.130  25.703 -0.0685  0.0938 -0.0331
30706W        W31570  22.250   5.234  24.330  0.0002 -0.0807  0.1069
30707W        W31571  21.720   1.401  22.907  0.2742  0.0503 -0.0641
30708W        W31572  18.633   2.715  24.637  0.2368  0.0214  0.1553
30709W        W31573  20.938   2.726  25.631  0.2921  0.2085 -0.0164
30710W        W31574  20.685   4.474  25.773  0.2018 -0.0387  0.1781
30711W        W31575  22.919   2.316  24.364  0.2014 -0.2298 -0.1313
30712W        W31576  18.227  28.483  26.675 -0.1159  0.2102 -0.1103
30713W        W31577  23.330   4.291  23.103 -0.1803 -0.1342 -0.3256
30714W        W31578  25.336   1.638  22.153 -0.5034 -0.1009 -0.0692
30715W        W31579  20.516   1.766  27.382  0.1510  0.0715 -0.1020
30716W        W31580  20.523   4.058  21.635  0.2472 -0.0668 -0.0919
30717W        W31581  21.734   2.670  23.657 -0.2333 -0.3633 -0.0663
30718W        W31582  21.177   5.813  23.479 -0.0927 -0.1324  0.1966
30719W        W31583  18.063   3.870  23.518  0.0623  0.1681  0.1259
30720W        W31584  18.340   1.988  23.220 -0.0584 -0.2048 -0.1795
30721W        W31585  19.534   4.283  21.820  0.1794  0.0461 -0.1215
30722W        W31586  22.045   3.738  24.610  0.0391  0.3229 -0.0546
30723W        W31587  19.140   3.892  21.993 -0.1037  0.3033  0.1510
30724W        W31588  22.014   5.873  23.108  0.3146 -0.0893  0.2027
30725W        W31589  19.283   3.574  25.090 -0.0660 -0.1616 -0.1389
30726W        W31590  20.274   5.179  22.756  0.3591  0.3267  0.0078
30727W        W31591  21.415   1.761  24.532  0.0483  0.1400 -0.1754
30728W        W31592  18.196   2.213  22.771  0.1657  0.3505 -0.1616
30729W        W31593  20.657   1.787  23.399  0.2264 -0.0716 -0.1239
30730W        W31594  22.517   6.606  22.040  0.2454  0.1001  0.1001
30731W        W31595  22.116   1.276  24.654  0.4804  0.0454 -0.3070
30732W        W31596  18.011   0.665  22.346 -0.2352  0.0361 -0.1620
30733W        W31597  19.938   5.630  20.709 -0.0229  0.3539 -0.0943
30734W        W31598  24.161   0.923  22.995  0.1165  0.1648 -0.1646
30735W        W31599  22.716   0.379  23.309  0.2130 -0.1042  0.1747
30736W        W31600  21.817   1.617  24.211 -0.1570  0.0032 -0.2524
30737W        W31601  22.948   1.620  23.170 -0.1028  0.5331  0.0865
30738W        W31602  20.285   0.170  23.935 -0.3319 -0.0843  0.1519
30739W        W31603  21.774   1.568  24.919 -0.1754  0.2274 -0.0399
30740W        W31604  21.074   5.185  23.295  0.0287 -0.2397  0.1543
30741W        W31605  21.817   1.670  25.409 -0.1973 -0.0872 -0.1111
30742W        W31606  18.688   1.943  22.823  0.0736 -0.1183 -0.0729
30743W        W31607  18.874   7.257  25.956 -0.0241  0.1267  0.0096
30744W        W31608  19.476   3.565  22.632  0.1655  0.1779 -0.1246
30745W        W31609  23.284   0.030  24.569 -0.0447 -0.0071 -0.0410
30746W        W31610  18.773   1.272  25.523  0.0034  0.0356 -0.0677
30747W        W31611  26.030   0.033  20.691  0.2322 -0.0308  0.1761
30748W        W31612  19.526   3.714  23.234 -0.2754 -0.5567 -0.0821
30749W        W31613  25.149   1.254  23.312  0.3885 -0.1015 -0.1202
30750W        W31614  20.446   2.167  23.635 -0.0015  0.1562 -0.2050
30751W        W31615  21.649   0.748  24.203  0.1302  0.1130  0.1342
30752W        W31616  20.873   2.545  24.908 -0.0549 -0.0719 -0.0233
30753W        W31617  23.752  29.031  23.726 -0.0947 -0.1497  0.2751
30754W        W31618  18.561  28.788  27.460  0.2319 -0.0825  0.1066
30755W        W31619  19.345  28.534  23.530  0.0007 -0.1519 -0.0710
30756W        W31620  17.844  27.729  21.667 -0.1247 -0.0917 -0.0495
30757W        W31621  18.055   3.725  22.306 -0.1367 -0.0565  0.0319
30758W        W31622  19.086   2.731  24.494  0.1038 -0.2660  0.1506
30759W        W31623  18.950   0.193  23.371  0.0098 -0.1806 -0.0078
30760W        W31624  20.095   0.378  25.101  0.1787 -0.0365  0.0810
30761W        W31625  17.990   4.588  27.508 -0.0569  0.2060 -0.0652
30762W        W31626  23.020   2.960  21.695 -0.1866  0.0490  0.2537
30763W        W31627  21.678  27.410  24.986 -0.4153  0.0166  0.2885
30764W        W31628  21.368   2.818  24.078  0.0120  0.1187 -0.2448
30765W        W31629  17.786   0.299  27.635  0.2489  0.3582  0.0337
30766W        W31630  24.074   0.211  22.671 -0.2888 -0.2790 -0.1616
30767W        W31631  24.686   2.321  22.395  0.0293 -0.1777  0.0868
30768W        W31632  23.591   2.468  22.165 -0.1211 -0.1978  0.0133
30769W        W31633  23.589   0.057  22.890 -0.0907 -0.0785  0.2182
30770W        W31634  19.753   0.225  22.901  0.1526  0.1669 -0.3048
30771W        W31635  18.921   0.241  20.970  0.0808 -0.0948  0.0835
30772W        W31636  19.981  27.633  23.598 -0.3446 -0.1011  0.1537
30773W        W31637  21.492   1.194  23.848  0.2067 -0.0379  0.1768
30774W        W31638  17.553  27.610  25.498 -0.2106  0.0730  0.1292
30775W        W31639  23.406   4.412  23.972  0.1284  0.1753 -0.1499
30776W        W31640  22.323   0.771  25.476  0.0304  0.1909  0.0459
30777W        W31641  19.112   3.414  23.413  0.4537 -0.2655  0.1682
30778W        W31642  17.783   3.909  24.802  0.2662  0.2260  0.0353
30779W        W31643  19.963  28.750  26.991 -0.3499 -0.2412  0.1944
30780W        W31644  19.239   1.671  26.420  0.2239 -0.2896 -0.2189
30781W        W31645  22.860   0.918  21.948 -0.1440 -0.0427  0.1463
30782W        W31646  23.270   4.824  21.696 -0.1826 -0.2441  0.0082
30783W        W31647  20.452   3.226  24.477 -0.0547 -0.0996 -0.0885
30784W        W31648  23.243   2.477  23.068 -0.0238 -0.0919  0.2575
30785W        W31649  17.056   0.658  23.579 -0.0733  0.1804 -0.1284
30786W        W31650  19.846   0.474  21.283  0.2001 -0.0622 -0.1170
30787W        W31651  15.906   3.341  21.973  0.1467 -0.0278 -0.2722
30788W        W31652  19.181  29.011  23.640  0.1264  0.4189 -0.0970
30789W        W31653  18.779   1.784  27.167 -0.1318  0.0295 -0.0089
30790W        W31654  20.689   1.558  21.839 -0.2325  0.1252 -0.1157
30791W        W31655  18.287  28.813  25.813  0.0934 -0.0555 -0.2164
30792W        W31656  18.607   1.774  24.398  0.0792 -0.1022  0.2270
30793W        W31657  21.401   2.153  26.163 -0.2948 -0.0799 -0.0308
30794W        W31658  20.155   1.834  24.882 -0.2480  0.1473  0.0931
30795W        W31659  22.404   1.905  21.821  0.2422 -0.0773  0.0286
30796W        W31660  22.932   1.111  24.228  0.3218  0.4129 -0.1411
30797W        W31661  21.123   2.429  23.991 -0.0821  0.1024 -0.2958
30798W        W31662  17.293   5.082  25.573 -0.2233  0.2619 -0.4112
30799W        W31663  20.358   4.407  21.302 -0.2479  0.2742 -0.1965
30800W        W31664  19.664   3.708  25.588 -0.0606 -0.2210 -0.1933
30801W        W31665  21.774   3.070  23.972  0.2201 -0.1530  0.2025
30802W        W31666  20.809   2.849  24.163  0.0077 -0.1337  0.1346
30803W        W31667  21.166   2.620  24.486  0.0255  0.3069  0.0858
30804W        W31668  20.151   0.533  24.497  0.2112  0.0060  0.0847
30805W        W31669  18.959   0.237  21.474  0.0422 -0.4608  0.1688
30806W        W31670  21.452   0.030  24.317 -0.2451  0.0339  0.0560
30807W        W31671  19.923   2.413  23.032  0.0017  0.0609  0.0070
30808W        W31672  21.631   0.342  26.535  0.0397  0.0203 -0.0225
30809W        W31673  19.772   0.623  23.410 -0.1238 -0.0847 -0.0188
30810W        W31674  21.275   2.475  25.259  0.0488 -0.0462 -0.1481
30811W        W31675  19.670   5.338  26.380 -0.1373  0.2043 -0.0038
30812W        W31676  23.148   4.698  24.943 -0.0950 -0.2259  0.0669
30813W        W31677  22.893   1.858  23.749 -0.0335 -0.0889  0.0048
30814W        W31678  19.458   2.805  23.894  0.2962  0.0970 -0.5938
30815W        W31679  21.944   6.907  21.230  0.0426 -0.3044  0.0312
30816W        W31680  22.222   2.362  21.725  0.2585  0.1916  0.0769
30817W        W31681  22.709   1.437  26.378  0.1887 -0.0236  0.0307
30818W        W31682  18.649   2.028  21.691  0.0131 -0.3632  0.0520
30819W        W31683  19.152   0.028  24.262  0.1028  0.0918  0.0735
30820W        W31684  20.878  25.836  24.507 -0.0298  0.0190 -0.0833
30821W        W31685  19.448   3.915  20.855 -0.0847  0.1369  0.0126
30822W        W31686  21.732   1.866  22.684 -0.0420 -0.1357 -0.0824
30823W        W31687  21.865   2.864  25.695 -0.1565 -0.0991 -0.0217
30824W        W31688  18.066   1.805  22.318  0.1405 -0.0191 -0.0632
30825W        W31689  19.873  28.468  24.166  0.2051  0.0416  0.1378
30826W        W31690  18.047   0.548  26.805 -0.0009  0.1034 -0.0742
30827W        W31691  19.120   1.316  21.572 -0.1833  0.0445 -0.0074
30828W        W31692  20.720   0.705  24.396  0.0649  0.1893  0.0308
30829W        W31693  20.766   2.091  22.577 -0.0208  0.0649 -0.1264
30830W        W31694  25.426   8.253  21.600 -0.0853  0.1660  0.1438
30831W        W31695  20.829   2.215  24.512 -0.2909  0.0664 -0.2210
30832W        W31696  22.478   4.585  23.212  0.2502  0.1078 -0.2284
30833W        W31697  20.264   0.619  23.605 -0.0587 -0.0808 -0.1427
30834W        W31698  19.321   5.931  22.833 -0.0577 -0.3765  0.0526
30835W        W31699  22.991  28.498  25.212 -0.0425  0.1590  0.0631
30836W        W31700  18.306   1.005  26.734  0.1123  0.1537  0.0702
30837W        W31701  18.077   2.395  20.900  0.1983 -0.1777 -0.1500
30838W        W31702  20.827   2.197  25.295  0.3105 -0.2277 -0.1964
30839W        W31703  20.942   1.110  28.941 -0.0488  0.0172  0.0078
30840W        W31704  21.784  28.801  25.972 -0.0877  0.0396  0.0988
30841W        W31705  19.840   0.171  25.998 -0.1470  0.2021 -0.0843
30842W        W31706  20.504   2.599  24.486  0.0908  0.0955  0.1052
30843W        W31707  22.532   2.703  24.580 -0.2030 -0.0042  0.0927
30844W        W31708  21.344   2.189  24.335 -0.4430  0.0821 -0.1504
30845W        W31709  20.222   2.834  23.142 -0.4216  0.3127 -0.2985
30846W        W31710  21.721  28.603  22.324  0.1052 -0.0433 -0.0824
30847W        W31711  25.137  27.663  22.779 -0.1656 -0.1396 -0.3731
30848W        W31712  18.827   3.014  21.681  0.1840  0.1689  0.1152
30849W        W31713  24.581   0.961  22.590  0.2225 -0.0151 -0.3534
30850W        W31714  22.738   1.701  21.500 -0.2488 -0.1204  0.0145
30851W        W31715  20.727   1.267  24.192 -0.2549 -0.1466  0.4333
30852W        W31716  20.618   2.334  24.081  0.2364 -0.1866 -0.1236
30853W        W31717  20.137   1.188  25.559  0.2065  0.2950 -0.1256
30854W        W31718  20.510   2.524  26.194 -0.3209  0.1792 -0.0510
30855W        W31719  22.145   3.905  22.832 -0.1200  0.2911  0.1784
30856W        W31720  21.003   2.820  26.850 -0.0143  0.0589 -0.3655
30857W        W31721  17.887   2.073  23.170  0.0156  0.0104 -0.1369
30858W        W31722  21.023  28.560  26.253 -0.1187  0.0328 -0.2205
30859W        W31723  18.989   1.546  24.135  0.0132 -0.0420  0.0475
30860W        W31724  18.434   2.243  24.383 -0.1540  0.0244  0.0337
30861W        W31725  22.119   4.025  25.042 -0.0091 -0.1528  0.4181
30862W        W31726  23.468   3.240  23.525 -0.0915 -0.1018 -0.0563
30863W        W31727  22.131   1.509  22.591  0.1118 -0.2730  0.1868
30864W        W31728  20.738   2.820  23.199  0.2048  0.0182 -0.1772
30865W        W31729  20.904   4.132  24.237  0.1878 -0.2630  0.0917
30866W        W31730  18.364   3.628  21.887 -0.0015  0.0634 -0.1734
30867W        W31731  22.592   2.546  24.124  0.0147 -0.2089  0.0637
30868W        W31732  19.906   1.299  24.775 -0.0650  0.2224 -0.1984
30869W        W31733  18.854   2.213  24.649 -0.1597  0.0105 -0.0833
30870W        W31734  23.820   1.444  23.297  0.3083  0.0700 -0.0602
30871W        W31735  21.260   4.425  21.031  0.2427 -0.0848  0.0671
30872W        W31736  17.451   2.075  21.503  0.3138 -0.2371  0.1292
30873W        W31737  21.206   0.305  25.765 -0.0014  0.0426  0.2319
30874W        W31738  20.961   2.969  22.623 -0.2026 -0.3276 -0.0622
30875W        W31739  19.385   3.287  25.502  0.1336 -0.0128 -0.4797
30876W        W31740  18.351   2.894  21.717  0.0994 -0.2265  0.1536
30877W        W31741  20.327   2.647  20.798  0.2261 -0.0184  0.0850
30878W        W31742  20.370   5.725   0.973  0.1340  0.1869 -0.2335
30879W        W31743  17.968   2.006  25.891  0.3086  0.0015  0.1134
30880W        W31744  22.140  28.363  25.237  0.0539 -0.0220 -0.2182
30881W        W31745  23.592   1.306  26.527 -0.1247  0.0488 -0.0666
30882W        W31746  18.056   3.568  24.421  0.1740 -0.2416 -0.1941
30883W        W31747  20.623   2.114  28.805  0.0891 -0.4615  0.3992
30884W        W31748  19.013   0.222  26.734 -0.0283  0.2010  0.0431
30885W        W31749  18.504   4.031  25.220  0.1381 -0.1014  0.0146
30886W        W31750  20.333   3.709  24.580 -0.1674 -0.0928  0.2010
30887W        W31751  19.596   1.426  26.727 -0.1957 -0.0230  0.1566
30888W        W31752  20.399   1.003   1.278 -0.2101  0.2427  0.1021
30889W        W31753  19.522  26.334  27.489  0.0168  0.1695  0.2522
30890W        W31754  21.388   2.979  25.527 -0.3947 -0.1861  0.1517
30891W        W31755  21.624  29.114  27.685  0.1281  0.0843 -0.1930
30892W        W31756  19.004  28.993  28.721  0.0548 -0.1294 -0.2274
30893W        W31757  20.305   4.603  28.961 -0.2102  0.0909  0.4056
30894W        W31758  22.242   2.255  24.860 -0.2252 -0.1002  0.1483
30895W        W31759  19.728   1.319  25.261 -0.0996 -0.0819 -0.1229
30896W        W31760  15.709   0.065  27.757  0.1293  0.1355 -0.0280
30897W        W31761  24.001   1.647  27.833 -0.2068  0.2841 -0.0118
30898W        W31762  23.079   5.596  24.457  0.2348  0.0006 -0.1406
30899W        W31763  20.230   2.081  27.753  0.2153  0.2678  0.0872
30900W        W31764  20.655   1.391  26.209 -0.0124  0.2036 -0.1319
30901W        W31765  18.934   1.392  27.470  0.1833 -0.0685 -0.1230
30902W        W31766  17.497   4.035  26.487  0.1017  0.0825  0.0778
30903W        W31767  19.362   1.988  28.460  0.4023  0.3033 -0.0744
30904W        W31768  21.996   0.397  27.594 -0.2731  0.0390 -0.0466
30905W        W31769  16.760   3.752  26.817 -0.0392  0.1152  0.1494
30906W        W31770  21.719   4.688  26.157  0.1794  0.0745  0.1330
30907W        W31771  22.598   2.769  28.439  0.0510  0.2246 -0.1095
30908W        W31772  20.370   2.114  26.472  0.1620 -0.1139  0.3458
30909W        W31773  21.353   3.058   1.903  0.1646  0.0512  0.4565
30910W        W31774  21.364   0.322   0.362  0.2901 -0.0099  0.1133
30911W        W31775  20.667   3.563  28.392  0.1564 -0.0009  0.1207
30912W        W31776  17.634   2.592  28.918  0.4064  0.1470 -0.0103
30913W        W31777  21.880   3.047  28.068  0.0430 -0.1617  0.1831
30914W        W31778  20.003   1.854  28.199  0.2778 -0.0986 -0.0762
30915W        W31779  17.930   1.685  25.495 -0.1270  0.1066 -0.0522
30916W        W31780  21.077   3.338  27.644 -0.1526  0.0311  0.3432
30917W        W31781  22.320   0.796  27.552  0.1253  0.0047  0.0502
30918W        W31782  21.251   1.432  24.889  0.2770  0.1346  0.2675
30919W        W31783  22.945   2.431  25.538  0.0488  0.0371 -0.2147
30920W        W31784  19.898   5.698  28.067 -0.2620 -0.2397 -0.3170
30921W        W31785  24.005   2.460  26.210 -0.2046  0.1270 -0.0195
30922W        W31786  18.005   4.113  26.448 -0.2501 -0.0347  0.0148
30923W        W31787  18.843   5.559  27.133 -0.1712  0.0656 -0.0585
30924W        W31788  22.600  29.025   0.240 -0.0807  0.1977  0.0838
30925W        W31789  22.199   3.581  28.724  0.0053 -0.0155 -0.0296
30926W        W31790  18.878   2.070  25.163 -0.0839 -0.1663 -0.0484
30927W        W31791  22.536   1.993  25.898 -0.0132 -0.0624 -0.1183
30928W        W31792  19.834   4.102  26.377 -0.0810  0.3902 -0.2571
30929W        W31793  21.696   0.239  27.151  0.0801 -0.1257 -0.3640
30930W        W31794  22.788   2.614  27.078  0.1425  0.0106 -0.0308
30931W        W31795  19.787   0.071  26.612  0.1534 -0.4648 -0.2950
30932W        W31796  20.824   1.862  25.684 -0.0159 -0.1263  0.1795
30933W        W31797  17.247   3.714  25.699 -0.0547  0.0691  0.0856
30934W        W31798  20.210   0.842  27.345  0.1283 -0.1681  0.1107
30935W        W31799  19.682   2.815  25.605  0.1895  0.0267  0.1294
30936W        W31800  15.387   1.589  28.200 -0.0030  0.0079 -0.0048
30937W        W31801  19.981   2.380  25.448 -0.1621  0.3876 -0.0975
30938W        W31802  23.904   1.899  24.543  0.0998 -0.1541 -0.0510
30939W        W31803  18.407   1.971  26.230 -0.2455 -0.1758 -0.0728
30940W        W31804  18.722   0.690  28.734  0.0424  0.2290  0.0190
30941W        W31805  20.854   3.461  24.977  0.0273 -0.2447  0.2661
30942W        W31806  20.423   1.001  28.510  0.1190  0.1009 -0.2762
30943W        W31807  21.592  28.644  26.868 -0.2712  0.2048  0.0099
30944W        W31808  16.998   3.862  24.402  0.2436 -0.1224 -0.0380
30945W        W31809  18.446   3.008  25.119 -0.0560 -0.1108  0.1790
30946W        W31810  19.886   3.558  24.615 -0.0436  0.1439 -0.1558
30947W        W31811  19.164   2.593  27.322  0.1831  0.2005  0.0366
30948W        W31812  19.898   2.298  28.035  0.0655  0.0385 -0.1805
30949W        W31813  19.649  28.426  22.295 -0.0784 -0.2785 -0.1219
30950W        W31814  19.328   4.167  24.192 -0.1958  0.2868 -0.0581
30951W        W31815  22.647   0.435  28.334  0.0289  0.1030 -0.3111
30952W        W31816  23.943   3.438  25.489  0.0826  0.2820 -0.0726
30953W        W31817  18.263   2.624   0.342  0.0756  0.2116 -0.0513
30954W        W31818  17.764   0.150  27.158  0.2247 -0.0428  0.1357
30955W        W31819  18.068   2.650  28.336  0.2058  0.0950  0.0677
30956W        W31820  19.815   0.147  24.577  0.0969 -0.0775  0.0819
30957W        W31821  22.360   4.425  24.599  0.1561 -0.1346 -0.1723
30958W        W31822  17.603   3.455  27.181 -0.1118  0.2046 -0.1907
30959W        W31823  16.974   1.315  28.702 -0.2086  0.3990  0.1531
30960W        W31824  16.946  28.186  28.683 -0.0502  0.0680 -0.1481
30961W        W31825  22.890  28.160  27.631 -0.0385 -0.0747 -0.2308
30962W        W31826  20.380   1.662  27.947  0.2201  0.4963  0.1476
30963W        W31827  21.441   1.806  25.764  0.1588  0.1598  0.0347
30964W        W31828  21.521   2.774  28.343  0.2261 -0.1741 -0.0895
30965W        W31829  19.468   0.588  28.447  0.2375 -0.1398 -0.3298
30966W        W31830  23.334   1.044  29.061  0.2647 -0.0297  0.1190
30967W        W31831  20.021  28.422  28.043 -0.1185  0.0613 -0.0772
30968W        W31832  21.054   1.724  26.127  0.1606 -0.1063 -0.2225
30969W        W31833  22.682   2.316  26.250 -0.0282 -0.0381 -0.1319
30970W        W31834  17.116   3.631  26.231 -0.3125 -0.0987 -0.0579
30971W        W31835  18.685   3.128  26.290 -0.0684 -0.0332  0.4036
30972W        W31836  21.980   1.001   0.277  0.2578 -0.2586  0.0999
30973W        W31837  21.370  25.246  26.919  0.1690  0.1937 -0.0712
30974W        W31838  19.913   2.300  26.408 -0.2348 -0.0433  0.0022
30975W        W31839  20.983   5.217  27.336  0.0999 -0.3212 -0.0559
30976W        W31840  19.650  26.835  24.561  0.0305 -0.1662  0.0098
30977W        W31841  18.886   0.095  26.176 -0.0590  0.0630 -0.2098
30978W        W31842  25.114   1.577  26.453 -0.1077 -0.0638 -0.0689
30979W        W31843  20.052   2.072  26.870 -0.0544 -0.1289 -0.2901
30980W        W31844  22.639  29.050  23.031 -0.1074  0.0789  0.3629
30981W        W31845  21.005   2.828  27.475  0.1489  0.0723 -0.2331
30982W        W31846  23.338   0.432  29.097 -0.0939 -0.0612 -0.1297
30983W        W31847  20.604   1.457  28.751 -0.0192 -0.0703  0.0244
30984W        W31848  22.427   2.343  26.731  0.0067  0.1576  0.2453
30985W        W31849  21.235   0.699  28.115 -0.0995 -0.2423 -0.0413
30986W        W31850  19.330   1.159  27.123 -0.0616 -0.3163 -0.2919
30987W        W31851  17.408   1.090  27.314  0.1886 -0.0837 -0.1604
30988W        W31852  19.237   1.286  27.899  0.0640  0.0549  0.0943
30989W        W31853  18.052   4.336  24.682 -0.2434 -0.0814  0.1018
30990W        W31854  22.619   1.431  26.954 -0.0856  0.1619 -0.0756
30991W        W31855  20.625   3.052  27.729 -0.0260  0.1232  0.0667
30992W        W31856  21.831   4.039  24.203  0.0844  0.0916 -0.0880
30993W        W31857  19.090   3.683   0.390 -0.3632 -0.1051  0.1347
30994W        W31858  24.355   0.609  27.974 -0.2810 -0.1548 -0.0037
30995W        W31859  23.524   2.671  26.213  0.0284  0.2842  0.1549
30996W        W31860  19.842   0.603  27.623  0.0493  0.2303 -0.0722
30997W        W31861  21.013   0.333  27.853  0.2658 -0.0168 -0.3040
30998W        W31862  20.852   1.502  25.290  0.1899  0.1515  0.0092
30999W        W31863  21.496   3.544  27.309  0.2930  0.2488 -0.0840
31000W        W31864  22.425   3.104  24.816  0.1054  0.0550 -0.0810
31001W        W31865  19.424   1.283  24.476  0.0467 -0.1799 -0.1964
31002W        W31866  19.834   2.989  26.747 -0.0017  0.1879  0.1593
31003W        W31867  23.674   1.365  27.546 -0.1174 -0.0124 -0.1596
31004W        W31868  18.520  27.934  27.887  0.0343 -0.1952  0.3555
31005W        W31869  19.710   3.864  24.997  0.0929  0.1691 -0.1603
31006W        W31870  19.400   4.469  27.524 -0.0181 -0.1785  0.2259
31007W        W31871  20.911   5.013  26.201  0.1505 -0.2306 -0.2294
31008W        W31872  21.922   4.351  25.439  0.0139  0.0692 -0.1956
31009W        W31873  23.032   0.472  28.048  0.1818  0.2351  0.3283
31010W        W31874  21.047   3.300  25.788  0.0051 -0.0444 -0.1632
31011W        W31875  21.237   0.426  26.850  0.2138  0.3628 -0.1587
31012W        W31876  19.818   0.936  29.146  0.3127 -0.1323  0.1987
31013W        W31877  18.141   1.882  29.028  0.0307 -0.0143 -0.0549
31014W        W31878  19.545   2.008  26.794  0.2414  0.3176  0.2441
31015W        W31879  21.280   1.461  28.672 -0.6316 -0.1319 -0.0719
31016W        W31880  22.816   4.203  23.350 -0.0436 -0.2170  0.1754
31017W        W31881  20.276   3.797  26.473 -0.2651  0.1255  0.1561
31018W        W31882  19.517  28.860  23.246 -0.1170  0.0687  0.2096
31019W        W31883  18.168   0.063  26.864  0.1759  0.1793 -0.0703
31020W        W31884  18.851   4.111  23.945  0.1939  0.0852  0.1188
31021W        W31885  21.147   2.079  26.664  0.1325 -0.2971  0.1672
31022W        W31886  20.379   2.606  27.681  0.1110 -0.0780 -0.2567
31023W        W31887  21.752   2.680  25.225 -0.0524 -0.0724 -0.0532
31024W        W31888  20.143  28.447  27.456  0.3284 -0.2226 -0.2412
31025W        W31889  23.567   1.761  26.247  0.1168 -0.2139 -0.2386
31026W        W31890  20.467   2.721  28.604 -0.0495  0.2192 -0.1160
31027W        W31891  18.152   2.614  25.386 -0.0693 -0.2616  0.0698
31028W        W31892  20.855   1.847  27.907  0.0685  0.1422  0.0616
31029W        W31893  18.573   1.819  26.645 -0.1752 -0.3828  0.1279
31030W        W31894  16.383   2.030  26.063  0.2529  0.1468  0.0105
31031W        W31895  19.187   2.460  25.934 -0.0526  0.0519  0.1602
31032W        W31896  18.512   2.118  27.771  0.1243 -0.1777 -0.3472
31033W        W31897  20.323  28.819  28.734 -0.2997  0.1366 -0.0419
31034W        W31898  18.979   2.194  27.595 -0.0129  0.1010 -0.0892
31035W        W31899  20.765   1.747  24.306  0.2048 -0.0211 -0.0420
31036W        W31900  21.237   1.331  27.410 -0.0791  0.1356  0.1623
31037W        W31901  19.898   2.680  27.721 -0.0676  0.1588  0.1694
31038W        W31902  21.269   0.814  27.444 -0.1335  0.1614  0.2473
31039W        W31903  19.099   2.712  27.823  0.0912  0.0490 -0.1301
31040W        W31904  20.317   2.254  28.397  0.3002  0.0851  0.0066
31041W        W31905  19.182   2.300  28.019  0.0590  0.0054  0.0666
31042W        W31906  22.969   1.659  28.744  0.1395  0.0203  0.2550
31043W        W31907  19.582  28.426  27.101  0.3587  0.2694 -0.1693
31044W        W31908  18.047  27.537   0.037  0.4220 -0.0917  0.0539
31045W        W31909  18.375   0.866  23.332  0.1892  0.3479  0.2371
31046W        W31910  21.370   2.881  28.841  0.0825 -0.1699  0.0072
31047W        W31911  19.993   1.646  25.861 -0.1477  0.0210  0.0523
31048W        W31912  22.598   2.759  27.907  0.3327 -0.1329  0.0475
31049W        W31913  23.562  28.678  27.552  0.1043  0.0074  0.2299
31050W        W31914  20.181   3.272  27.074  0.0323 -0.3767  0.1883
31051W        W31915  21.746   3.200  24.992  0.2431  0.3656 -0.0388
31052W        W31916  20.799  26.900  27.134  0.2279  0.1862 -0.0621
31053W        W31917  21.879   1.212  26.279 -0.2486  0.0532 -0.0130
31054W        W31918  17.679   2.485  27.713 -0.1307 -0.2039  0.0501
31055W        W31919  17.324   4.070  24.820 -0.4564 -0.0949  0.2009
31056W        W31920  20.035   3.370  23.211 -0.1178  0.3222 -0.0639
31057W        W31921  21.764  28.093  26.894 -0.0820 -0.0521 -0.0174
31058W        W31922  20.004   2.535  24.584 -0.0318 -0.0380 -0.3190
31059W        W31923  22.837   3.693  23.457  0.1803  0.0287 -0.0518
31060W        W31924  20.694   1.757  26.573 -0.2287 -0.1892  0.2205
31061W        W31925  18.162   2.393  26.387 -0.1482 -0.0976 -0.0305
31062W        W31926  19.388   2.214  26.373  0.3170  0.0745 -0.1963
31063W        W31927  22.229   3.803  26.957 -0.2206  0.3984  0.1188
31064W        W31928  22.036   1.713  27.820  0.0936 -0.0015 -0.0825
31065W        W31929  18.158   1.689  24.609  0.0210  0.2044  0.0600
31066W        W31930  17.699   2.265  25.526 -0.0226  0.0667 -0.0863
31067W        W31931  19.373   5.054  25.047 -0.2593 -0.0461 -0.0140
31068W        W31932  19.944   4.096  25.811  0.1127  0.2179 -0.3081
31069W        W31933  19.412   4.207  26.749 -0.0238  0.1399  0.2041
31070W        W31934  16.260   3.142   1.539 -0.0268 -0.0537  0.0185
31071W        W31935  23.845   0.308  27.464 -0.0421  0.0551  0.0200
31072W        W31936  22.318  28.192   0.513 -0.4746 -0.1447  0.0624
31073W        W31937  19.791  28.461  25.655  0.1531  0.4189  0.4963
31074W        W31938  20.878  29.084  26.990 -0.0340 -0.1936  0.0595
31075W        W31939  18.458   0.146  25.931 -0.1741 -0.1104 -0.1745
31076W        W31940  21.328   1.322  25.405 -0.1330 -0.3532 -0.0710
31077W        W31941  20.888   1.539   0.159  0.3502  0.1123 -0.1475
31078W        W31942  18.282   0.453  25.229 -0.0639 -0.0125  0.2109
31079W        W31943  23.945  28.990  25.811  0.0898 -0.1378 -0.0908
31080W        W31944  22.644   2.286  23.602 -0.0858 -0.2492 -0.0872
31081W        W31945  17.711  27.367  27.339  0.0385  0.0870 -0.0279
31082W        W31946  20.685   0.680  28.993 -0.0016  0.2691  0.1430
31083W        W31947  19.036   3.740  25.595 -0.4470  0.1442  0.3658
31084W        W31948  20.085   2.876  27.339  0.1726  0.0019  0.0438
31085W        W31949  20.737   4.936   0.038  0.0807 -0.0852 -0.3218
31086W        W31950  19.882   4.556  24.449 -0.1988  0.0942 -0.0931
31087W        W31951  19.442   2.460  25.184  0.1238  0.1007  0.0038
31088W        W31952  18.262   3.761   1.544 -0.2065 -0.0220 -0.2749
31089W        W31953  18.226   1.460  26.586  0.2186  0.0936 -0.1696
31090W        W31954  20.176   1.230   0.470  0.0040 -0.0370 -0.0010
31091W        W31955  20.892   1.573  28.404  0.2353  0.4740 -0.1342
31092W        W31956  22.810   2.315  24.861 -0.0716  0.0155 -0.0861
31093W        W31957  23.120   2.729  25.170  0.0072  0.1545 -0.3485
31094W        W31958  22.243   2.655  26.002 -0.0868 -0.2675  0.0410
31095W        W31959  23.164   3.644  23.800  0.2943  0.1615 -0.3495
31096W        W31960  24.711   1.363  28.856  0.0501  0.0944  0.1026
31097W        W31961  18.956   2.100  26.821  0.3413 -0.1305  0.1029
31098W        W31962  21.510   0.779   1.319  0.1697  0.1412  0.0093
31099W        W31963  21.569   0.297  24.688 -0.0440  0.2117 -0.1696
31100W        W31964  17.776   5.739  28.840  0.0540 -0.0509  0.2262
31101W        W31965  18.487   2.302  26.736 -0.2219  0.1629 -0.1356
31102W        W31966  22.782   4.154  24.885  0.1863 -0.1889  0.1562
31103W        W31967  21.232  28.908   1.588  0.0492 -0.0873 -0.1017
31104W        W31968  20.654   4.043  28.013 -0.0049 -0.3554 -0.4589
31105W        W31969  22.757   0.628  25.684  0.0190  0.0028 -0.0455
31106W        W31970  22.752   3.889  25.906 -0.2140 -0.1385  0.1004
31107W        W31971  22.911   3.763  26.381  0.0906 -0.3485 -0.2129
31108W        W31972  20.019   2.789  26.303  0.2759 -0.0115 -0.1847
31109W        W31973  19.477   2.390  27.641  0.1928 -0.1479  0.0091
31110W        W31974  17.897   4.230  25.566  0.2344 -0.3052 -0.2535
31111W        W31975  22.368   1.099  26.236  0.1182  0.0233  0.0026
31112W        W31976  19.802   1.483   0.943  0.0971  0.0382  0.1722
31113W        W31977  21.981   4.252  26.809  0.5688 -0.1308 -0.0841
31114W        W31978  21.792  28.649  27.579 -0.0221 -0.3615  0.0802
31115W        W31979  20.364  28.736  28.207 -0.0113  0.1426 -0.2563
31116W        W31980  23.064   2.100  25.932  0.4050  0.1954  0.3987
31117W        W31981  21.632   3.966  26.024 -0.0716  0.4425  0.1226
31118W        W31982  19.948   3.084  23.773  0.2635  0.3235  0.0287
31119W        W31983  18.709   2.722   1.277  0.1039  0.0564 -0.1099
31120W        W31984  20.164   1.393  28.294 -0.1476 -0.0213  0.1282
31121W        W31985  21.831   2.725  26.852  0.0227  0.0291  0.0951
31122W        W31986  23.822   0.749  28.959  0.0791 -0.0580 -0.0342
31123W        W31987  20.220   1.184  26.119  0.3619 -0.1373 -0.2128
31124W        W31988  22.711   3.644  26.868 -0.1650 -0.0391 -0.1746
31125W        W31989  16.918   3.158  27.495  0.0239  0.1771  0.0521
31126W        W31990  21.143   3.649  28.073 -0.1068 -0.3386  0.1572
31127W        W31991  20.876   2.794  26.357  0.2559 -0.2537 -0.1938
31128W        W31992  17.559   3.502  26.445  0.0722  0.0204 -0.4374
31129W        W31993  19.368   4.626  28.139 -0.3100  0.1965  0.0816
31130W        W31994  23.828   2.318  28.938 -0.2882  0.2393 -0.0727
31131W        W31995  21.700   1.260  27.236 -0.3416 -0.0252 -0.1900
31132W        W31996  18.218   2.691  22.654 -0.1548 -0.0246 -0.0951
31133W        W31997  23.071   3.708  24.901 -0.1586 -0.0256  0.2542
31134W        W31998  22.940   0.339  24.827  0.0963  0.0203 -0.3139
31135W        W31999  20.455   1.263  27.223 -0.1427  0.0999 -0.0547
31136W        W32000  22.532   4.206  27.783 -0.3741  0.0804  0.0046
31137W        W32001  23.336   0.864  27.800  0.0485  0.0801 -0.1374
31138W        W32002  21.103   1.119  27.886 -0.1010  0.3435 -0.0941
31139W        W32003  18.702   1.084  26.451  0.3026 -0.0699 -0.0618
31140W        W32004  20.237   2.339  27.310  0.2095 -0.0484 -0.1462
31141W        W32005  21.741   3.366  26.420 -0.2465 -0.0319  0.1108
31142W        W32006  18.169   3.034  27.956 -0.0745 -0.1655 -0.1624
31143W        W32007  18.156   3.351  28.889  0.0582 -0.1619 -0.0851
31144W        W32008  20.195   2.689  25.742  0.0621 -0.1577 -0.0440
31145W        W32009  21.311   3.535  26.751  0.1703 -0.1730  0.2372
31146W        W32010  19.055   1.555  28.222  0.1470  0.0205 -0.1609
31147W        W32011  23.565   2.170  24.306  0.0326 -0.1407 -0.2304
31148W        W32012  18.755   2.722  26.050 -0.2416 -0.0860 -0.0943
31149W        W32013  20.871   1.107   1.117  0.0631  0.1087  0.2011
31150W        W32014  21.160   3.783  28.591 -0.1121  0.1603 -0.2856
31151W        W32015  17.868   4.437  26.960 -0.3523 -0.1299  0.0042
31152W        W32016  18.656   3.878  25.872  0.2253 -0.0685 -0.2730
31153W        W32017  23.402   0.403  27.381  0.1570  0.0315  0.0857
31154W        W32018  19.019   0.424   0.455 -0.1352  0.0863 -0.4287
31155W        W32019  20.076   1.660  26.400  0.1073 -0.0049  0.1156
31156W        W32020  21.130   0.494  24.913 -0.1960  0.1676  0.0973
31157W        W32021  14.550   1.532  28.947  0.1214  0.1716 -0.3089
31158W        W32022  19.013   3.060  26.715 -0.1153 -0.0033 -0.0867
31159W        W32023  18.304   0.121  24.713  0.0444  0.0969 -0.2828
31160W        W32024  19.673  28.688  26.494  0.0647  0.0494 -0.0062
31161W        W32025  17.270   4.501  26.305  0.0888 -0.1436 -0.0000
31162W        W32026  24.453   0.722  24.316 -0.0998 -0.3214  0.2142
31163W        W32027  21.692  26.820  28.910  0.0695  0.2070  0.0300
31164W        W32028  23.120   4.251  25.329 -0.1627 -0.1164 -0.0476
31165W        W32029  16.743   1.561   0.584 -0.0061  0.0776  0.0412
31166W        W32030  21.862   0.503  25.609 -0.0022 -0.2268 -0.1717
31167W        W32031  23.101   0.832  27.332  0.1202  0.2374  0.3511
31168W        W32032  21.188   2.293  25.727 -0.1189 -0.0449  0.2233
31169W        W32033  20.915  28.428  27.347 -0.2072  0.0073  0.1117
31170W        W32034  20.618   2.115  26.967 -0.0294  0.0446 -0.0880
31171W        W32035  19.757   3.303  27.324 -0.1841  0.0139  0.2768
31172W        W32036  18.520   2.950  25.673  0.1136  0.0816 -0.2385
31173W        W32037  21.677   1.419  26.731 -0.3317  0.0864  0.1480
31174W        W32038  20.563   0.497  27.764 -0.2611  0.0319 -0.0774
31175W        W32039  22.513   3.717  24.905 -0.0830  0.2304  0.1999
31176W        W32040  21.304  27.023  28.668  0.1508  0.0083  0.0037
31177W        W32041  16.510   1.922  25.534  0.0695 -0.1554 -0.0256
31178W        W32042  19.691   2.516  26.003 -0.1490 -0.0753  0.1170
31179W        W32043  18.180  28.706   1.566 -0.0364 -0.0551 -0.1552
31180W        W32044  20.711   0.696  28.166  0.0244 -0.0102 -0.1877
31181W        W32045  21.832   1.796  26.109 -0.0783  0.1045 -0.0645
31182W        W32046  24.089   2.182  23.132 -0.2715  0.1558 -0.2801
31183W        W32047  21.266   4.003  27.253  0.1287  0.0339 -0.0291
31184W        W32048  23.678   1.602   0.141 -0.2663  0.0900 -0.0311
31185W        W32049  20.737   0.339  26.627 -0.0205 -0.1152  0.0512
31186W        W32050  21.927  27.676  28.493 -0.2203 -0.0466 -0.2728
31187W        W32051  16.316   2.864  29.108 -0.0736  0.3731 -0.1130
31188W        W32052  17.781   2.433  26.047 -0.0750 -0.1147 -0.1214
31189W        W32053  18.004  27.109  27.605 -0.3509  0.2269  0.2577
31190W        W32054  23.783   1.486  25.422 -0.1944  0.1838 -0.0273
31191W        W32055  21.638   2.062  27.834  0.2695  0.3425 -0.0676
31192W        W32056  18.633   0.724  27.546 -0.3328 -0.1597 -0.0226
31193W        W32057  18.157   2.570  27.036 -0.0137 -0.1980  0.1043
31194W        W32058  20.979   0.859  26.658  0.3013  0.1309  0.2072
31195W        W32059  20.517  28.263  26.415  0.0419 -0.1721 -0.3477
31196W        W32060  20.940   1.098  27.093  0.2699 -0.2709 -0.0163
31197W        W32061  20.277   1.122  29.123 -0.1287 -0.0476 -0.3084
31198W        W32062  19.942   3.041  28.892 -0.0923 -0.1799 -0.0247
31199W        W32063  23.409   3.012  24.792  0.0214  0.3590  0.0747
31200W        W32064  19.616   2.332   1.198 -0.0144  0.1731 -0.0462
31201W        W32065  23.042   1.327  24.960 -0.1017  0.1305  0.2946
31202W        W32066  19.410   4.645  24.223 -0.0513  0.2330 -0.0184
31203W        W32067  19.138   3.546  28.140  0.0813  0.0606  0.1761
31204W        W32068  20.868   0.587  27.164  0.0288 -0.1227 -0.0032
31205W        W32069  18.254   2.519  25.885 -0.0343 -0.2170  0.0718
31206W        W32070  20.477  28.676  27.075  0.1479 -0.2367  0.1720
31207W        W32071  16.965   1.625  23.655 -0.1677 -0.0426  0.1176
31208W        W32072  19.064  28.722  27.105 -0.0815  0.0552  0.1010
31209W        W32073  23.295  28.158  25.345 -0.0408  0.1297 -0.0053
31210W        W32074  22.664   0.622   0.530  0.0728 -0.0862  0.1245
31211W        W32075  22.216   0.198   0.140  0.2994 -0.2089  0.0426
31212W        W32076  22.214   2.832   1.061  0.0605 -0.0827 -0.3247
31213W        W32077  20.981   4.302   0.695 -0.4576  0.0903  0.2398
31214W        W32078  18.637   3.516  27.998 -0.2795 -0.0087  0.0683
31215W        W32079  21.155   3.870  24.988  0.0198 -0.2560 -0.0567
31216W        W32080  19.390   2.946  27.040 -0.0185  0.1669 -0.0618
31217W        W32081  18.791   0.105  29.105  0.1017 -0.3037 -0.1777
31218W        W32082  16.483   0.827  26.797  0.0080  0.1641  0.0427
31219W        W32083  19.870   0.693  26.334  0.1899 -0.0933 -0.0654
31220W        W32084  19.886  25.529  27.083  0.1395 -0.0322 -0.1977
31221W        W32085  19.275   3.813  23.840 -0.1062 -0.4223  0.1179
31222W        W32086  21.544   2.501  24.780  0.1166 -0.0413  0.2239
31223W        W32087  19.998   3.725  27.331 -0.0157 -0.2282  0.3874
31224W        W32088  22.515   1.465  24.793  0.0417 -0.1072 -0.0796
31225W        W32089  17.468   2.039  25.913 -0.3166  0.4157 -0.0965
31226W        W32090  22.576   2.155  25.266 -0.1797  0.0131  0.0418
31227W        W32091  20.554  28.696  26.050  0.0696  0.1675  0.0382
31228W        W32092  20.561   2.926  25.912 -0.0620  0.0716 -0.0540
31229W        W32093  22.283   1.590  26.273  0.0848 -0.0652  0.2558
31230W        W32094  19.638   5.261  25.802 -0.0277  0.2424 -0.1613
31231W        W32095  18.925   3.596  27.551  0.0692 -0.2437 -0.0094
31232W        W32096  20.762   5.647  26.542 -0.1531  0.3703  0.1450
31233W        W32097  22.703  25.210  28.309  0.0818 -0.1739 -0.1512
31234W        W32098  18.669   3.478  27.152 -0.0866 -0.1980 -0.0303
31235W        W32099  20.855   0.671   3.429  0.3711 -0.0897 -0.0603
31236W        W32100  20.232   0.774  28.079 -0.2195 -0.0398  0.3514
31237W        W32101  18.251   1.893  26.991 -0.3918  0.3036  0.4440
31238W        W32102  17.845   2.432  24.361  0.1742  0.1081  0.2322
31239W        W32103  20.595   2.367   1.195 -0.1259 -0.1577  0.1814
31240W        W32104  20.605   1.141  27.991 -0.2520 -0.2239  0.0755
31241W        W32105  22.293   0.090  28.358 -0.0076  0.0603  0.2765
31242W        W32106  19.384   3.572  24.587  0.0441  0.0402 -0.0105
31243W        W32107  20.746   4.610  26.327 -0.0893  0.2129  0.0538
31244W        W32108  18.076   2.246  24.737  0.1195 -0.0079 -0.1829
31245W        W32109  20.686   2.459  26.686  0.2237 -0.3652  0.3549
31246W        W32110  23.247   2.090  24.689  0.0418 -0.0465  0.0965
31247W        W32111  21.633  26.639  25.492  0.0754  0.0171 -0.0703
31248W        W32112  19.059   3.872  27.134 -0.0099 -0.0701  0.1920
31249W        W32113  23.505  29.006  27.178  0.2391  0.1463  0.1206
31250W        W32114  21.828   2.041  24.502  0.1134 -0.2498 -0.2232
31251W        W32115  22.915   2.251  26.674 -0.1030  0.0383 -0.0304
31252W        W32116  21.813   2.402  26.005  0.0349 -0.3137  0.2292
31253W        W32117  19.626   3.238  28.010  0.0753  0.0515 -0.1679
31254W        W32118  22.161  28.761  28.572 -0.1588 -0.0034 -0.0893
31255W        W32119  22.502   4.787  28.161  0.0762 -0.1729  0.2969
31256W        W32120  20.105   1.091  26.666 -0.1200 -0.0685  0.0427
31257W        W32121  17.852   2.049  25.124  0.3286  0.1594 -0.0634
31258W        W32122  23.779   1.243  28.966 -0.0927 -0.3501  0.0087
31259W        W32123  18.550   3.620  26.293 -0.0527  0.1182 -0.1711
31260W        W32124  19.585   3.409  23.597  0.3542 -0.2116 -0.0039
31261W        W32125  21.279   2.538  26.522 -0.1761 -0.1621  0.1079
31262W        W32126  21.396   4.338   0.161 -0.0188 -0.1397 -0.1085
31263W        W32127  23.262   1.558  25.721 -0.1727 -0.2777  0.1372
31264W        W32128  22.557   0.614  26.167 -0.2100  0.1157  0.2493
31265W        W32129  18.707   1.523  26.282 -0.2587 -0.1068 -0.2394
31266W        W32130  18.652   4.661  26.983 -0.0661 -0.0005 -0.0087
31267W        W32131  22.294   3.250  27.321 -0.1573  0.1685 -0.0018
31268W        W32132  22.621   3.330  26.464 -0.0559  0.1202 -0.0701
31269W        W32133  15.155   4.674  24.560 -0.1329  0.2116  0.1720
31270W        W32134  20.732   2.485  28.070  0.0533  0.2913  0.0406
31271W        W32135  21.785   2.286  26.478 -0.1077  0.0816  0.1630
31272W        W32136  18.099   4.132  27.278 -0.1160  0.1624  0.1483
31273W        W32137  19.335   1.007   0.179 -0.0126 -0.1560  0.0508
31274W        W32138  19.761   4.347  24.929  0.4127  0.0917 -0.1804
31275W        W32139  21.270  26.727   0.683 -0.0914 -0.1391  0.0556
31276W        W32140  22.229   2.135  26.275  0.2823 -0.1312 -0.1940
31277W        W32141  20.879   3.783  25.898 -0.0220  0.3492 -0.0704
31278W        W32142  17.097   9.837   6.154  0.1027  0.1258  0.2419
31279W        W32143  19.138   7.969   2.775 -0.2175  0.0313 -0.0210
31280W        W32144  20.355   5.130   1.960  0.0703  0.1790 -0.0202
31281W        W32145  20.104   8.956   0.011  0.1091 -0.0243 -0.2359
31282W        W32146  20.920   7.928   0.566  0.2161 -0.2031 -0.1479
31283W        W32147  20.988   6.434  28.533  0.0282  0.1824 -0.2215
31284W        W32148  16.054   5.426   1.761 -0.4855 -0.0252 -0.1733
31285W        W32149  20.431   1.781  29.063  0.1039 -0.1571  0.3345
31286W        W32150  18.659   8.741   1.495  0.0546 -0.0977  0.1638
31287W        W32151  18.427   2.335  29.075 -0.1912 -0.1598  0.2403
31288W        W32152  20.065   3.334   0.344 -0.0313 -0.0626 -0.1051
31289W        W32153  20.490   4.057  29.077 -0.1157  0.2177 -0.1662
31290W        W32154  20.093   4.402   1.098 -0.1494 -0.0484  0.1356
31291W        W32155  19.483   4.783   3.895  0.1542 -0.0325 -0.1322
31292W        W32156  20.741   5.415   0.056 -0.1312  0.2299  0.1240
31293W        W32157  17.072   8.519   5.220 -0.0420  0.1095  0.0774
31294W        W32158  21.269   6.214  28.160  0.1858  0.1422 -0.0000
31295W        W32159  21.552   5.302  28.301 -0.3154  0.0411 -0.1965
31296W        W32160  20.935   5.178   0.821 -0.0212 -0.1088 -0.1580
31297W        W32161  20.870   8.207   2.229  0.1359 -0.1971 -0.1984
31298W        W32162  19.392   6.086   1.518 -0.1241  0.0164 -0.1366
31299W        W32163  18.520   5.978   2.700 -0.0308  0.1108  0.2789
31300W        W32164  19.086   5.213   1.389  0.5335 -0.1536  0.0884
31301W        W32165  20.410   8.552  29.049 -0.2801  0.0836 -0.2895
31302W        W32166  18.595   3.838   0.560 -0.0469 -0.3813  0.2145
31303W        W32167  23.419   4.094   2.095 -0.1238 -0.0708 -0.0415
31304W        W32168  23.575   5.984   3.110  0.0250  0.1936 -0.0405
31305W        W32169  18.837  10.083   0.911 -0.0855  0.0424  0.3814
31306W        W32170  19.575   4.030   2.007 -0.0649  0.1033  0.0343
31307W        W32171  19.470   2.724   1.496  0.2291  0.1324 -0.0184
31308W        W32172  17.336   4.978   2.524 -0.3160  0.1044 -0.1087
31309W        W32173  21.741   6.644   4.824  0.2674 -0.0759  0.3090
31310W        W32174  16.569   5.150   3.982 -0.3746 -0.2927  0.0353
31311W        W32175  19.829   6.192   2.716 -0.0520  0.2929 -0.5647
31312W        W32176  18.387   4.796   3.055 -0.2102 -0.5602  0.2104
31313W        W32177  23.312   5.448   3.427  0.0110 -0.1667  0.1286
31314W        W32178  19.855   4.011   0.894 -0.0623  0.0499 -0.2368
31315W        W32179  20.258   3.431   1.835  0.0298 -0.1505  0.2389
31316W        W32180  23.406   6.015   2.028 -0.1005  0.1667 -0.0489
31317W        W32181  22.092   3.898   1.918  0.0017 -0.2440 -0.1312
31318W        W32182  21.634   1.731   0.466  0.1589 -0.2114  0.3518
31319W        W32183  21.036   5.693   0.442  0.0583  0.1142 -0.0758
31320W        W32184  21.680   5.379   1.609  0.0484 -0.0632 -0.2312
31321W        W32185  20.697   5.928   0.122 -0.0120  0.1881 -0.1611
31322W        W32186  18.700   7.702  28.956  0.3207 -0.0284 -0.3152
31323W        W32187  18.593   5.101   1.236  0.2476 -0.2229  0.1398
31324W        W32188  18.098   5.722   1.825 -0.3565 -0.0795  0.2390
31325W        W32189  20.164   6.983   2.826 -0.1998 -0.1934  0.0456
31326W        W32190  21.557   4.984  29.128 -0.0652 -0.0800  0.0236
31327W        W32191  20.902   4.366   0.106  0.2514 -0.0189  0.3510
31328W        W32192  20.318   8.393   1.530 -0.0311  0.0727  0.0939
31329W        W32193  21.461   2.862   0.226 -0.1204 -0.0726  0.1512
31330W        W32194  22.382   7.378   2.037  0.0584  0.3070 -0.4836
31331W        W32195  22.117   4.433  28.015 -0.3028 -0.2544  0.4116
31332W        W32196  20.695   3.083  28.261  0.0789  0.0631  0.1403
31333W        W32197  23.278   6.628  28.365 -0.0832 -0.4122  0.1337
31334W        W32198  18.015   2.344   0.687 -0.1694 -0.1856  0.1654
31335W        W32199  21.499   4.898  26.945  0.0443 -0.0102  0.0921
31336W        W32200  17.504   5.559   1.096  0.0360 -0.1501  0.3045
31337W        W32201  17.514   4.431   0.978  0.0143 -0.2524 -0.0395
31338W        W32202  25.395   1.812   0.774 -0.0326  0.1126 -0.0501
31339W        W32203  15.436   7.482   0.446  0.1706  0.1699 -0.1152
31340W        W32204  19.729   4.523   1.902 -0.1259 -0.0234 -0.2577
31341W        W32205  16.114   5.440   0.387  0.2727 -0.1697 -0.4398
31342W        W32206  19.794   5.274   1.309  0.2691 -0.3360  0.0906
31343W        W32207  22.075   1.890   0.450 -0.1785  0.1196 -0.1451
31344W        W32208  19.065   4.179   0.484 -0.2023  0.1512  0.2087
31345W        W32209  19.689   1.868  26.149 -0.0490 -0.3661  0.0991
31346W        W32210  20.254   6.651   1.373 -0.3336 -0.0834  0.2924
31347W        W32211  15.207   6.636   0.430 -0.0419 -0.0160  0.2005
31348W        W32212  21.400   9.084   5.827 -0.1873  0.2443  0.1045
31349W        W32213  20.815   1.576  27.012  0.1481 -0.1231  0.3130
31350W        W32214  20.851   5.783   2.254  0.2234 -0.2750  0.2241
31351W        W32215  21.007   5.329   3.953 -0.1748  0.0648 -0.0053
31352W        W32216  20.801   5.301   3.126 -0.0005 -0.3452 -0.4022
31353W        W32217  21.016   7.945   3.081  0.3588  0.0094  0.2286
31354W        W32218  18.277   4.531   0.059 -0.0828  0.2944 -0.3476
31355W        W32219  20.142   6.642   1.943  0.2268 -0.1330  0.0119
31356W        W32220  23.261   4.337   0.950 -0.1031  0.0927 -0.1644
31357W        W32221  21.651   5.410   2.700 -0.0271  0.0314 -0.2663
31358W        W32222  18.862   6.754   3.035  0.0234  0.0161 -0.1691
31359W        W32223  20.874   5.559   1.718  0.0309 -0.1738 -0.0439
31360W        W32224  21.093   6.330   2.192 -0.1239 -0.0787 -0.4181
31361W        W32225  21.949   5.542   0.671  0.0162  0.0959  0.0231
31362W        W32226  20.291   6.210   1.854 -0.2109 -0.2860  0.0826
31363W        W32227  20.245   0.408  26.058 -0.2348 -0.1339 -0.2893
31364W        W32228  23.127   8.529   2.903 -0.0770 -0.0603  0.1429
31365W        W32229  23.134   0.913   0.469 -0.3527 -0.0277 -0.3189
31366W        W32230  21.615   6.232   1.828  0.0925 -0.0209 -0.2389
31367W        W32231  23.331   7.038   2.251  0.0858 -0.0678  0.1569
31368W        W32232  21.695   3.230  29.086 -0.0899 -0.2850  0.0955
31369W        W32233  22.193   6.150   4.387  0.1558 -0.0573  0.1208
31370W        W32234  16.078   8.472   0.596  0.0278 -0.0547 -0.1954
31371W        W32235  17.865   3.002   1.061 -0.0280  0.2485 -0.1860
31372W        W32236  19.052   4.222   2.673  0.2653 -0.0226  0.0324
31373W        W32237  21.124   4.057  26.753 -0.1728  0.2315  0.1436
31374W        W32238  22.538   4.625  28.979 -0.0471 -0.0822 -0.1464
31375W        W32239  19.373   7.776   2.327 -0.3354  0.0468 -0.0927
31376W        W32240  19.793   3.349  25.208 -0.3122  0.1944 -0.1164
31377W        W32241  22.369   3.838   3.197  0.1339  0.0236  0.1139
31378W        W32242  19.959   6.312   0.191  0.1659  0.2348 -0.1448
31379W        W32243  15.942   5.316   2.664  0.2338  0.0105 -0.1860
31380W        W32244  22.055   5.684  28.102  0.0564 -0.1266 -0.1128
31381W        W32245  20.829   5.945  28.262  0.0195  0.2835  0.3728
31382W        W32246  22.934   1.319   3.921 -0.3571  0.3326  0.0225
31383W        W32247  22.318   4.871   2.340  0.1562  0.3028 -0.1273
31384W        W32248  19.027   5.976  27.573 -0.0122  0.0947  0.1085
31385W        W32249  19.714   7.726   4.493  0.2124 -0.0643 -0.0417
31386W        W32250  19.033   1.799  29.132  0.3093 -0.2170 -0.1790
31387W        W32251  19.235   5.192   0.402  0.2584 -0.2571  0.1010
31388W        W32252  17.771   6.141   3.871  0.2020  0.0284 -0.0633
31389W        W32253  21.228   8.906   3.280  0.0450 -0.3605  0.0048
31390W        W32254  21.110   5.557   2.618 -0.2671  0.2253 -0.0023
31391W        W32255  19.479   7.607   2.774  0.0499  0.0626 -0.2132
31392W        W32256  24.479   7.476   0.092  0.0458 -0.1106  0.1084
31393W        W32257  17.841   8.580   0.545 -0.2633 -0.0294  0.2506
31394W        W32258  21.283   1.427   1.255  0.0941  0.0154 -0.0793
31395W        W32259  19.657   8.836   3.255 -0.1130  0.1258 -0.1203
31396W        W32260  21.099   3.508   1.870  0.3397 -0.0673  0.0583
31397W        W32261  22.183   5.105  26.546  0.0908 -0.0791 -0.2648
31398W        W32262  21.223   7.340  26.366  0.1882  0.2676  0.1251
31399W        W32263  20.169   7.134   0.715 -0.1958  0.1020  0.0345
31400W        W32264  21.595   6.144   1.110  0.3203 -0.1367  0.0690
31401W        W32265  22.236   7.569  27.254 -0.0470  0.2490  0.0908
31402W        W32266  22.369   5.334   0.896  0.1282 -0.2297 -0.3098
31403W        W32267  21.764   5.123   3.134  0.2305 -0.1492 -0.3022
31404W        W32268  18.865   5.277   0.008  0.3741  0.2619 -0.0619
31405W        W32269  22.449   4.331   4.201  0.1586 -0.1378  0.1837
31406W        W32270  21.515   6.652   2.084 -0.1364  0.0523 -0.2255
31407W        W32271  20.155   6.214  28.812 -0.0255 -0.0328 -0.0139
31408W        W32272  22.825   9.332   3.549  0.2532 -0.0150 -0.0629
31409W        W32273  20.487   3.680   0.275 -0.2147  0.4141 -0.1126
31410W        W32274  22.467   9.644   3.443 -0.0469  0.0830  0.2955
31411W        W32275  20.892   2.144   0.092  0.1136 -0.0754  0.0522
31412W        W32276  21.765   6.714   0.086 -0.0085 -0.3504  0.1133
31413W        W32277  18.362   6.057   1.171  0.1261  0.1676  0.1780
31414W        W32278  22.203   3.334  29.123  0.1788 -0.0688 -0.1129
31415W        W32279  21.399   5.066   1.872  0.5643  0.2925 -0.1797
31416W        W32280  21.815   4.034   1.028  0.0459 -0.3781 -0.0286
31417W        W32281  18.550   9.768   0.566  0.3317  0.0267  0.0634
31418W        W32282  16.955   5.341   1.799 -0.0556  0.1825 -0.0545
31419W        W32283  22.103   5.196   1.323 -0.1098 -0.0299 -0.1991
31420W        W32284  18.936   9.455  26.956 -0.0811  0.2005 -0.2088
31421W        W32285  18.511   5.544   0.850  0.0491 -0.3130  0.3229
31422W        W32286  21.687   6.506   3.585 -0.0246 -0.3486  0.1576
31423W        W32287  19.932   2.128   0.826  0.2004  0.2051 -0.0274
31424W        W32288  22.257   4.408   0.238  0.2964 -0.1232  0.2177
31425W        W32289  21.816   9.650   0.383 -0.2604 -0.0976  0.1526
31426W        W32290  20.456   5.082   0.744  0.2206  0.3498 -0.0293
31427W        W32291  20.438   6.361   0.031  0.2825 -0.2506  0.2695
31428W        W32292  19.522   7.274   2.370 -0.0464  0.1153 -0.0148
31429W        W32293  21.735   4.740  28.231 -0.2248 -0.4924 -0.0471
31430W        W32294  21.334   8.138   0.863  0.1881 -0.2333 -0.2474
31431W        W32295  15.601   5.290   1.939 -0.0965 -0.0821 -0.1040
31432W        W32296  20.468   0.967   2.717 -0.0797  0.1618 -0.1512
31433W        W32297  21.836   3.047   1.420  0.0415  0.1653  0.1663
31434W        W32298  21.270   8.434   0.472  0.1149 -0.0659  0.1336
31435W        W32299  18.781   3.286  28.449  0.2101 -0.2401 -0.3881
31436W        W32300  17.690   4.615  27.898  0.0136 -0.1509  0.0591
31437W        W32301  19.860   5.786   0.609  0.1236  0.3542 -0.2495
31438W        W32302  19.674   2.828   3.632 -0.1200  0.0320 -0.0936
31439W        W32303  20.712   6.028   1.857 -0.0267 -0.1060  0.1345
31440W        W32304  18.826   5.490   6.505  0.1687 -0.1454  0.0608
31441W        W32305  22.063   7.060   7.426 -0.1880 -0.0353  0.0966
31442W        W32306  23.582   2.487   2.112  0.2751 -0.2196  0.0482
31443W        W32307  18.753   5.068   2.738  0.1809  0.0680 -0.2911
31444W        W32308  21.253   6.262   1.467 -0.1352 -0.1063  0.2378
31445W        W32309  20.195   4.831  27.523 -0.0176 -0.2078 -0.0359
31446W        W32310  18.454   8.678   2.060  0.0973 -0.0783  0.2284
31447W        W32311  19.830   5.804  29.066  0.0230 -0.0856 -0.0899
31448W        W32312  20.693   6.064  28.721 -0.0187  0.0523 -0.1069
31449W        W32313  22.402   5.989   1.521 -0.2195  0.1252 -0.3329
31450W        W32314  17.790   6.592   2.124  0.0450  0.1499 -0.0840
31451W        W32315  20.994   7.455  28.299 -0.1821  0.1250 -0.1616
31452W        W32316  20.744   4.680   0.453 -0.0775 -0.0244 -0.0283
31453W        W32317  20.430   6.266  28.381  0.1794  0.2619 -0.2415
31454W        W32318  20.820   8.317   2.759 -0.0863  0.2098  0.0041
31455W        W32319  17.555   9.300  28.711  0.0022 -0.1117 -0.0609
31456W        W32320  18.113   6.838  28.950 -0.0786  0.4226 -0.0959
31457W        W32321  22.955   2.196   3.633 -0.1246 -0.2189 -0.0351
31458W        W32322  20.659   7.450  27.882  0.0231  0.2248 -0.1639
31459W        W32323  21.893   6.360  28.796  0.0404 -0.0590 -0.1480
31460W        W32324  22.254   5.408  29.009 -0.0760  0.1771  0.2855
31461W        W32325  18.786   4.034   0.064 -0.3366 -0.1113 -0.0870
31462W        W32326  20.882   5.201   2.146  0.0272 -0.1101 -0.0714
31463W        W32327  21.543   7.100   1.642 -0.3472 -0.2754 -0.1563
31464W        W32328  20.205   3.258  26.303  0.0733 -0.1043 -0.0577
31465W        W32329  16.154   4.926   1.845 -0.4116  0.0646  0.3293
31466W        W32330  18.644   8.655   0.996 -0.1145 -0.0111  0.1826
31467W        W32331  17.564   6.197   0.314 -0.6237  0.1809 -0.3693
31468W        W32332  19.640   6.778  27.170 -0.1992 -0.2471  0.0627
31469W        W32333  18.496   7.247  28.971 -0.0246  0.1811  0.1103
31470W        W32334  20.446   5.701   1.557 -0.1176  0.0288  0.1411
31471W        W32335  20.770   2.473   3.004  0.0766  0.1986  0.1060
31472W        W32336  20.705   3.375   0.629 -0.3783 -0.2693 -0.1691
31473W        W32337  19.239   4.622   1.161  0.1884 -0.3583  0.5365
31474W        W32338  20.269   5.424   0.222 -0.1297 -0.0525 -0.1407
31475W        W32339  17.056   4.956   3.687  0.0583 -0.3221 -0.1247
31476W        W32340  17.439   4.680   2.866 -0.1583 -0.2118  0.1185
31477W        W32341  23.571   2.882   0.154 -0.2527  0.0089  0.0109
31478W        W32342  18.526   7.167   1.462  0.0956 -0.2634  0.2790
31479W        W32343  20.189   2.806   2.369  0.2424  0.1905  0.1630
31480W        W32344  21.799   5.922  27.671 -0.0896  0.0080 -0.1874
31481W        W32345  19.970   5.388   1.806 -0.0412  0.0360  0.0504
31482W        W32346  21.493   4.960   0.898  0.3402  0.1013  0.0298
31483W        W32347  19.977   6.237   0.883 -0.0257  0.3389  0.3864
31484W        W32348  19.910   4.948   2.113  0.0210 -0.0304 -0.2982
31485W        W32349  22.264   4.225   1.122 -0.1188  0.0343  0.0320
31486W        W32350  19.251   6.544   1.359  0.0480 -0.4109  0.0180
31487W        W32351  19.609   6.744  26.388 -0.0217 -0.3429  0.0776
31488W        W32352  17.105   5.822   2.691  0.0336  0.3460  0.0008
31489W        W32353  19.589   4.835   0.375  0.2992 -0.1068 -0.0748
31490W        W32354  19.197   4.318   3.709 -0.1600 -0.2972 -0.2331
31491W        W32355  24.169   1.827   2.458  0.4386 -0.4218 -0.0480
31492W        W32356  22.612   5.596   1.238 -0.3349  0.1669  0.1455
31493W        W32357  22.212   3.557   0.490  0.1988 -0.0041  0.0438
31494W        W32358  21.132   6.752   4.184  0.0749 -0.1149 -0.0183
31495W        W32359  20.911   6.327  29.084 -0.0911 -0.0014  0.0386
31496W        W32360  18.985   4.702   2.445  0.3062 -0.0521 -0.2625
31497W        W32361  19.895   5.447   4.409 -0.0241 -0.0412 -0.0537
31498W        W32362  22.813   4.100   3.197  0.1891 -0.4234 -0.2663
31499W        W32363  21.519   4.525   1.166 -0.0604 -0.0087 -0.4190
31500W        W32364  21.967   5.805   3.838 -0.2296 -0.3033  0.0202
31501W        W32365  19.160   2.786  25.558  0.2044  0.0656 -0.0779
31502W        W32366  19.732   6.875   0.158  0.0123  0.2274  0.3368
31503W        W32367  20.735   3.728   1.095 -0.0589  0.1997  0.1338
31504W        W32368  17.938   5.939   0.100  0.2199 -0.2389  0.0030
31505W        W32369  22.349   3.419   3.438  0.1296  0.2416  0.0097
31506W        W32370  20.558   7.059   2.125  0.0150  0.4490  0.0482
31507W        W32371  22.082   4.693   1.157  0.0400  0.0889 -0.0325
31508W        W32372  20.190   2.654  29.114 -0.1438  0.0838  0.1412
31509W        W32373  19.800   2.752   4.097  0.0699  0.3806 -0.0498
31510W        W32374  21.949   6.370  27.275 -0.0258  0.0727 -0.2240
31511W        W32375  22.052   5.905  28.627  0.1784  0.3493 -0.3246
31512W        W32376  19.802   6.880   1.636 -0.0486  0.1731  0.3100
31513W        W32377  20.153   8.878   3.206 -0.0163  0.0241 -0.2074
31514W        W32378  22.820   7.940   1.107  0.1140  0.0502 -0.1422
31515W        W32379  20.853   3.787   2.535  0.0832  0.1015  0.2091
31516W        W32380  20.535   8.006   1.847  0.0093 -0.0842 -0.1095
31517W        W32381  18.739   8.312   1.761 -0.0297  0.2087 -0.2884
31518W        W32382  21.233   5.650   1.377  0.2751 -0.2342 -0.1272
31519W        W32383  19.655   5.640   2.606 -0.0178 -0.1102  0.0486
31520W        W32384  20.668   2.585   2.131 -0.4616 -0.0587 -0.1231
31521W        W32385  20.336   3.624  25.976  0.2397 -0.1145  0.2904
31522W        W32386  21.339   3.154   1.425 -0.0294 -0.0073  0.0917
31523W        W32387  18.392   5.084   0.053  0.2515 -0.2973 -0.2484
31524W        W32388  22.148   3.724   0.928 -0.2219  0.3708  0.2092
31525W        W32389  17.686   6.767  28.693 -0.0872  0.0833 -0.1728
31526W        W32390  19.166   8.821   1.581 -0.0118  0.1118  0.0936
31527W        W32391  20.600   5.534   0.580 -0.0062  0.0723 -0.3311
31528W        W32392  16.704   5.802   1.692  0.0114  0.1287 -0.0703
31529W        W32393  19.038   6.232  29.073 -0.0384  0.2187  0.0938
31530W        W32394  20.352   7.676   3.622 -0.1120  0.0938 -0.0087
31531W        W32395  21.455   5.782   2.929 -0.1491 -0.1362 -0.2871
31532W        W32396  17.858   7.133   2.528 -0.0464 -0.3679 -0.0270
31533W        W32397  20.271   6.148   1.308 -0.0050 -0.0185  0.0453
31534W        W32398  21.613   3.566   1.757 -0.0797 -0.2082 -0.0020
31535W        W32399  21.557   2.865   2.415 -0.1359  0.3480 -0.2570
31536W        W32400  21.536   6.354  27.744  0.3362  0.0412 -0.1053
31537W        W32401  22.350   5.486   1.658 -0.3606 -0.0847  0.0281
31538W        W32402  19.294   7.168   1.950  0.0391  0.0324 -0.2508
31539W        W32403  21.730   5.857   4.386  0.2625 -0.2617  0.0256
31540W        W32404  21.422   6.828   1.020  0.2181  0.3608  0.1793
31541W        W32405  21.372   5.105   2.343  0.0086 -0.0020  0.1809
31542W        W32406  23.595   6.030   1.445  0.0063 -0.0640  0.1354
31543W        W32407  17.408   7.984   0.973 -0.0593  0.0882 -0.0757
31544W        W32408  19.155   7.768  28.513 -0.1661 -0.0895  0.0340
31545W        W32409  22.284   6.125  27.830  0.2171  0.0827 -0.1141
31546W        W32410  20.479   7.732   4.590 -0.2606 -0.1009 -0.2177
31547W        W32411  22.376   6.410   0.911 -0.0342 -0.1078 -0.3330
31548W        W32412  18.309   6.245  28.143  0.1690 -0.0183 -0.1055
31549W        W32413  24.120   7.571   4.136  0.2623  0.1750  0.0370
31550W        W32414  20.532   2.487   1.695 -0.2208  0.0700  0.2013
31551W        W32415  21.636   5.422   1.099 -0.0922  0.1522 -0.3258
31552W        W32416  22.706   7.001   0.049 -0.1614  0.0531 -0.0994
31553W        W32417  23.564   5.336   0.191 -0.0354  0.3444  0.0283
31554W        W32418  20.989   2.294   2.384 -0.1491  0.0846  0.1008
31555W        W32419  19.137   5.816   4.032 -0.0645 -0.0459 -0.1287
31556W        W32420  18.064   3.552  26.303 -0.1500 -0.0899  0.0024
31557W        W32421  17.816   8.006   2.271  0.3274  0.2213  0.0618
31558W        W32422  19.592   4.688   2.844 -0.0869  0.0173 -0.0796
31559W        W32423  19.787   6.681   1.117 -0.1075 -0.1143 -0.1294
31560W        W32424  22.722   4.960   1.956  0.1496 -0.0799 -0.3429
31561W        W32425  17.322   7.586  28.888 -0.2748 -0.3074  0.3310
31562W        W32426  21.805   5.538  27.216  0.1529  0.0392  0.1012
31563W        W32427  23.564   3.596   1.983 -0.2244 -0.1017  0.1643
31564W        W32428  21.567   5.881   2.300 -0.0247 -0.0858 -0.2574
31565W        W32429  19.207   5.125   2.953 -0.0838  0.2498  0.2134
31566W        W32430  22.498   2.025   0.717 -0.0032 -0.0461 -0.0076
31567W        W32431  21.447   6.441  27.200  0.0765  0.0201  0.2251
31568W        W32432  19.425   5.562   1.099  0.4458 -0.3001  0.0848
31569W        W32433  19.001   5.261   0.822 -0.1325  0.1546 -0.1910
31570W        W32434  23.325   4.555   1.948 -0.3100 -0.0233  0.1731
31571W        W32435  17.491   6.431   1.105  0.0746 -0.1831 -0.0468
31572W        W32436  17.960   5.738   0.918 -0.2875  0.2696  0.4166
31573W        W32437  19.434   2.223   0.250 -0.2028  0.0598  0.0774
31574W        W32438  20.718   5.972   0.741  0.0528 -0.0610  0.3014
31575W        W32439  22.453   9.262   2.065 -0.1794  0.1168 -0.0384
31576W        W32440  20.460   4.836   2.340 -0.0933 -0.1373  0.0099
31577W        W32441  16.222   7.142  28.509  0.2757  0.0399  0.0735
31578W        W32442  16.714   7.334  28.245 -0.0143 -0.2022 -0.2321
31579W        W32443  16.512   3.960   4.564 -0.1209  0.3499  0.0336
31580W        W32444  17.147   6.715   3.802 -0.0851  0.2092  0.2506
31581W        W32445  20.448   6.941  29.043  0.0855  0.1250  0.1949
31582W        W32446  22.916   7.504   1.375 -0.0123  0.2875  0.2325
31583W        W32447  20.216   6.243   3.264 -0.0444  0.1626 -0.0610
31584W        W32448  23.613   6.396   6.527  0.2264  0.2907  0.3248
31585W        W32449  20.163   3.306  27.641 -0.0814 -0.0041 -0.3458
31586W        W32450  20.647   4.233   1.131 -0.1685 -0.0813 -0.0060
31587W        W32451  16.404   6.245   1.626 -0.1276 -0.1741 -0.1841
31588W        W32452  21.749  29.007  28.377  0.2795 -0.0851 -0.2952
31589W        W32453  18.588   5.462   1.869 -0.0403 -0.0120  0.0179
31590W        W32454  21.138   3.245  28.348  0.2856  0.3713  0.1221
31591W        W32455  21.613   6.923  28.739  0.2138 -0.2494 -0.0578
31592W        W32456  18.036   7.637   2.069  0.3090  0.3317 -0.0486
31593W        W32457  20.258   6.364   4.323 -0.3227 -0.0532  0.1746
31594W        W32458  19.337   4.446   0.165  0.1652  0.0152 -0.1042
31595W        W32459  21.971   3.296   2.618  0.0239  0.0705 -0.1836
31596W        W32460  24.991   6.034   4.246 -0.0897 -0.2671  0.1206
31597W        W32461  21.985   7.169   1.218 -0.2619  0.0800 -0.1889
31598W        W32462  19.743   7.789  28.811 -0.0004 -0.1063  0.0273
31599W        W32463  22.738   6.467  28.314 -0.1069 -0.1606 -0.1000
31600W        W32464  17.617   7.039   1.529 -0.1514  0.1283 -0.1758
31601W        W32465  22.518   6.997  28.396 -0.0031 -0.0594 -0.4211
31602W        W32466  15.581   4.489  28.597 -0.2103  0.2360  0.2032
31603W        W32467  20.156   7.260   0.220 -0.0826 -0.2280 -0.2431
31604W        W32468  21.813   6.248   0.233  0.1817  0.1259 -0.1315
31605W        W32469  17.859   7.605  28.294 -0.5477 -0.1505  0.1146
31606W        W32470  19.872   4.479  27.631  0.1584 -0.0902 -0.2470
31607W        W32471  18.679   5.488   0.393 -0.4805 -0.1016  0.0917
31608W        W32472  19.910   2.837   4.988  0.0699  0.2731  0.1031
31609W        W32473  21.564   2.899  27.718 -0.0159 -0.0817 -0.1008
31610W        W32474  23.233   6.037   4.269  0.3216 -0.1833  0.1883
31611W        W32475  20.685   5.911   2.744 -0.2162  0.3474  0.0614
31612W        W32476  20.409   5.055   2.906 -0.0241 -0.0599  0.1024
31613W        W32477  23.538   6.975   5.118  0.0600  0.0502 -0.3242
31614W        W32478  16.640   6.162   0.790  0.1028 -0.1714 -0.2001
31615W        W32479  22.927   5.345   0.306  0.2936 -0.0560  0.0772
31616W        W32480  19.053   5.742   0.166  0.1765 -0.0390  0.1720
31617W        W32481  19.659   3.249  26.320 -0.2332  0.3441 -0.2159
31618W        W32482  19.929   5.239   0.733 -0.1133 -0.1290 -0.3120
31619W        W32483  22.302   4.891   0.461  0.0073 -0.0797  0.1371
31620W        W32484  19.698   4.644   1.346  0.0514  0.3709  0.0921
31621W        W32485  19.668   7.080   0.709  0.1208  0.1417 -0.0518
31622W        W32486  22.024   5.094   1.890  0.1557 -0.2527  0.2416
31623W        W32487  19.501   7.428   3.309 -0.0129 -0.1703 -0.1031
31624W        W32488  20.769   6.005   1.328 -0.0602  0.1678  0.2788
31625W        W32489  19.046   5.229   1.944 -0.1883  0.3163  0.3142
31626W        W32490  19.744   7.041   3.147  0.0982  0.0730 -0.1516
31627W        W32491  18.276   3.893   1.026 -0.2790  0.1997 -0.1991
31628W        W32492  21.826   4.887   2.558 -0.0787  0.1498 -0.3743
31629W        W32493  22.848   4.068  27.403 -0.2054 -0.2175  0.0425
31630W        W32494  19.906   5.792   2.104  0.2713 -0.2177  0.0993
31631W        W32495  17.684   7.273  28.719  0.2890  0.1085  0.2789
31632W        W32496  20.848   5.655  27.514  0.0492 -0.2834  0.1351
31633W        W32497  19.637   1.985  28.931 -0.2926  0.0348 -0.0767
31634W        W32498  19.095   9.866   3.105  0.0458 -0.3716  0.2439
31635W        W32499  23.936   2.533   3.597  0.0822  0.1426 -0.0565
31636W        W32500  20.160   5.752   2.702  0.0711  0.0521  0.3065
31637W        W32501  17.677   6.033   1.900  0.0825  0.3672  0.0661
31638W        W32502  16.853   4.507  29.078 -0.2665 -0.1575  0.0166
31639W        W32503  20.283   4.343   3.260  0.0093  0.1202  0.1689
31640W        W32504  19.837   3.562   1.228  0.3513 -0.1368  0.4075
31641W        W32505  20.108   2.166  28.891 -0.1955 -0.1934  0.2966
31642W        W32506  19.233   7.267   0.868  0.1201 -0.0364  0.1272
31643W        W32507  21.955   6.932  28.052  0.0872  0.0397 -0.0075
31644W        W32508  22.550   6.990   3.199 -0.2754  0.1932  0.1182
31645W        W32509  21.989   6.367   1.358 -0.0978 -0.2038 -0.1199
31646W        W32510  17.893   4.392  28.868  0.0556 -0.2790 -0.2749
31647W        W32511  21.720   2.211  28.393 -0.0622 -0.1898  0.2695
31648W        W32512  19.366   6.524   0.223  0.1215  0.1338  0.0334
31649W        W32513  22.445   3.020  28.837  0.3472  0.1111 -0.4190
31650W        W32514  19.679   9.003  26.892  0.3351  0.1590 -0.3953
31651W        W32515  20.588   7.552   0.346 -0.4831 -0.2055  0.0126
31652W        W32516  20.354   5.779  28.923 -0.1939 -0.0493  0.1298
31653W        W32517  19.609   6.505   3.568  0.1705 -0.0438 -0.0358
31654W        W32518  17.558   5.053   3.840 -0.2952  0.1530  0.2476
31655W        W32519  22.202   6.441   3.622  0.1237  0.1298 -0.1424
31656W        W32520  22.629   6.490   2.912 -0.1448  0.0788 -0.0215
31657W        W32521  15.725   5.649   2.290  0.1070  0.0773 -0.0750
31658W        W32522  19.516   5.022   0.856  0.1406  0.3263 -0.1160
31659W        W32523  15.589   8.457   1.302 -0.2429 -0.4282  0.2015
31660W        W32524  21.152   4.204   1.333  0.1439 -0.0948  0.0899
31661W        W32525  21.694   7.770   0.919 -0.1806 -0.0825  0.2734
31662W        W32526  19.400   5.872   2.137  0.1503 -0.3382 -0.3381
31663W        W32527  19.534   5.403   2.136  0.0330  0.1178 -0.0649
31664W        W32528  20.011   8.536   2.107 -0.0465 -0.0002  0.1549
31665W        W32529  22.021   5.645   2.998 -0.3068 -0.0592  0.1728
31666W        W32530  17.150   7.478   0.212  0.1572 -0.4838  0.0139
31667W        W32531  22.134   6.606   3.091  0.0584  0.1071  0.1319
31668W        W32532  19.923   3.776   2.251  0.2117 -0.0658 -0.2922
31669W        W32533  17.916   7.559   2.795  0.3044 -0.1668  0.2284
31670W        W32534  22.048   4.873  29.108 -0.0913 -0.1210  0.1267
31671W        W32535  20.244   6.639   0.797 -0.0199  0.1734  0.3754
31672W        W32536  17.955   9.807   2.604 -0.0815  0.0042 -0.2208
31673W        W32537  20.567   5.856   3.402 -0.0072 -0.0145 -0.1923
31674W        W32538  20.574   6.890   1.105  0.1194 -0.1475 -0.0275
31675W        W32539  20.088   6.989   2.251  0.1978 -0.1351 -0.4482
31676W        W32540  20.040   7.690   0.571 -0.2820  0.0139  0.0203
31677W        W32541  16.515   5.422  28.253  0.1697 -0.0207  0.3452
31678W        W32542  16.731   7.457   7.551  0.1286 -0.1434 -0.0054
31679W        W32543  19.567   7.082   5.699 -0.2668  0.0353  0.4221
31680W        W32544  21.277   4.776   6.322  0.2256  0.2392 -0.1442
31681W        W32545  20.420   4.557   7.005  0.0202  0.0412  0.0867
31682W        W32546  18.147   9.830   3.603  0.2879  0.3052  0.0196
31683W        W32547  18.435   6.017   5.222 -0.0596  0.0720 -0.1085
31684W        W32548  18.671   4.247   2.276 -0.3897  0.1877 -0.1726
31685W        W32549  18.768   6.530   6.160 -0.0750 -0.1206 -0.2385
31686W        W32550  18.572   6.672   5.640 -0.2545 -0.0115 -0.0794
31687W        W32551  18.976   3.481   5.859 -0.0815  0.1760 -0.1595
31688W        W32552  15.764   2.017   6.276  0.2809 -0.0278 -0.2542
31689W        W32553  23.051   4.724   2.327 -0.0353  0.0242 -0.3690
31690W        W32554  23.019   6.759   1.983  0.1912  0.0218 -0.1184
31691W        W32555  21.289   4.066   4.191  0.0038 -0.2107  0.0688
31692W        W32556  16.625   3.266   9.551 -0.0577  0.1051 -0.0742
31693W        W32557  19.064   8.477   7.244  0.0901 -0.0871 -0.1311
31694W        W32558  19.620   5.670   3.986 -0.1549 -0.0121  0.3580
31695W        W32559  16.740   4.191   5.673 -0.0165  0.2176  0.1499
31696W        W32560  18.651   4.109   5.128 -0.0783  0.1675 -0.1989
31697W        W32561  22.097   3.222   5.798 -0.1536  0.2395 -0.0669
31698W        W32562  22.315   7.362   7.119 -0.0637 -0.0272  0.2493
31699W        W32563  18.689   4.248   8.165  0.2009  0.0835 -0.0537
31700W        W32564  18.528   6.190   6.884 -0.1997 -0.0451 -0.0467
31701W        W32565  17.503   7.424   4.289 -0.0789 -0.2117  0.1519
31702W        W32566  19.525   5.122   4.245  0.0011 -0.2503  0.1632
31703W        W32567  18.725   7.168   4.520  0.1773 -0.2081  0.2415
31704W        W32568  19.999   4.076   7.590 -0.1456 -0.3357 -0.0477
31705W        W32569  20.438   7.145   3.599  0.1430  0.2708 -0.0502
31706W        W32570  20.137   6.243   5.908 -0.3320 -0.2594  0.3153
31707W        W32571  19.214   4.405   7.791  0.0824 -0.0301 -0.3884
31708W        W32572  20.317   5.496   3.069  0.3419  0.0676 -0.1052
31709W        W32573  20.068   7.865   6.644  0.0608 -0.1433  0.1856
31710W        W32574  16.373   7.846   6.876 -0.3460  0.3440 -0.0930
31711W        W32575  20.407   5.561   4.643 -0.1503 -0.1446  0.1070
31712W        W32576  19.132   6.716   5.684  0.2128  0.0114 -0.0595
31713W        W32577  22.638   5.303   4.379  0.1540 -0.0695 -0.1342
31714W        W32578  19.222   4.199   4.951 -0.1732  0.0943 -0.1651
31715W        W32579  18.461   8.849   4.999  0.2094 -0.2937 -0.1885
31716W        W32580  23.819   5.798   6.445 -0.0527  0.0465 -0.0146
31717W        W32581  21.295   3.149   3.356 -0.1410 -0.0337  0.1834
31718W        W32582  21.355   2.662   3.206 -0.1921  0.1519 -0.0521
31719W        W32583  23.592   2.678   8.891  0.0530  0.0515  0.1442
31720W        W32584  17.801   8.513   3.745 -0.0700 -0.1323 -0.2100
31721W        W32585  21.438   7.162   4.114 -0.2005 -0.1109  0.1710
31722W        W32586  19.358   9.336   3.183  0.1412 -0.2142 -0.0214
31723W        W32587  17.783   7.132   2.038 -0.1418  0.0242  0.0263
31724W        W32588  17.842   4.423   4.082 -0.1457  0.2403 -0.0269
31725W        W32589  19.544   3.693   6.533 -0.0169 -0.0464  0.0076
31726W        W32590  20.837   4.200   4.432  0.2278 -0.0509 -0.1336
31727W        W32591  20.485   3.803   1.584 -0.2834 -0.1856  0.1353
31728W        W32592  19.601   7.841   6.322  0.3108  0.1791 -0.1588
31729W        W32593  20.738   4.272   1.864  0.1374  0.0778  0.0655
31730W        W32594  16.863   7.837   4.500 -0.0601  0.2222  0.2002
31731W        W32595  23.204   7.061   6.141 -0.0580  0.0079 -0.1080
31732W        W32596  20.775   2.761   4.925 -0.0635 -0.2080 -0.0404
31733W        W32597  16.248   6.633   4.334 -0.3058  0.0904  0.0535
31734W        W32598  18.149   3.229   5.010  0.0363  0.0906 -0.0729
31735W        W32599  20.649   5.316   7.062 -0.0326 -0.0480  0.2643
31736W        W32600  15.625   7.653   6.274 -0.0080 -0.0940  0.0128
31737W        W32601  19.445   6.593   4.811  0.1699 -0.3290  0.5689
31738W        W32602  21.909   4.972   4.963  0.0006  0.0285 -0.1022
31739W        W32603  18.356   7.970   3.017  0.1059  0.1329 -0.0208
31740W        W32604  17.047   6.828   4.672 -0.1390  0.1316  0.0114
31741W        W32605  19.649   5.085   2.555 -0.0674 -0.0702 -0.0211
31742W        W32606  18.208   4.211   5.372 -0.2293 -0.0133  0.1208
31743W        W32607  22.173   2.540   6.496 -0.3135  0.0602  0.2050
31744W        W32608  17.272   8.204   2.112 -0.0870  0.2348  0.1336
31745W        W32609  18.963   3.282   3.843 -0.3928 -0.0797 -0.2843
31746W        W32610  16.877   7.079   7.144 -0.0012  0.1392 -0.0280
31747W        W32611  20.302   6.350   2.795  0.1014  0.0676 -0.1347
31748W        W32612  21.104   6.382   5.516 -0.2251 -0.0899  0.1342
31749W        W32613  20.198   3.419   4.369 -0.0310 -0.1724  0.0287
31750W        W32614  22.229   9.347   5.632 -0.1575  0.2051  0.0344
31751W        W32615  20.415   9.360   5.368  0.2197 -0.3484  0.2378
31752W        W32616  23.027   5.667   6.824  0.0837  0.0654  0.0639
31753W        W32617  19.916   6.671   5.718  0.0994 -0.1786  0.2958
31754W        W32618  13.638   5.590   2.998 -0.2373  0.0775  0.2514
31755W        W32619  19.087   4.759   5.721  0.0183 -0.1329  0.0103
31756W        W32620  19.846   5.817   5.347 -0.3001  0.2439  0.0675
31757W        W32621  20.055   4.777   3.146 -0.1321 -0.1989 -0.4621
31758W        W32622  16.437   3.204   5.602 -0.0035  0.0958 -0.3554
31759W        W32623  18.852   5.854   7.430 -0.1931 -0.0895  0.1774
31760W        W32624  19.065   3.792   3.650 -0.1376  0.3184  0.0776
31761W        W32625  19.868   6.971   6.141 -0.3342  0.1400  0.1694
31762W        W32626  19.909   4.187   6.023 -0.3493  0.2043  0.1470
31763W        W32627  19.145   4.272   3.206  0.0452  0.1763  0.1469
31764W        W32628  20.383   5.266   8.156  0.2689  0.2563 -0.1362
31765W        W32629  17.448   5.353   5.044 -0.3043 -0.0149 -0.0335
31766W        W32630  18.745   5.798   8.581  0.1166  0.0390  0.0425
31767W        W32631  18.204   6.914   3.689 -0.1045 -0.0311 -0.0518
31768W        W32632  19.937   4.372   2.343  0.1493  0.1921 -0.2466
31769W        W32633  23.686   5.277   8.334  0.0551 -0.1781  0.0977
31770W        W32634  18.258   7.938   5.324  0.0854  0.1379 -0.2732
31771W        W32635  18.128   6.796   1.795  0.3876 -0.1675  0.2557
31772W        W32636  19.387   4.006   5.590  0.0542 -0.0079  0.0658
31773W        W32637  21.200   5.399   7.741  0.0029 -0.1381  0.2468
31774W        W32638  22.680   4.796   7.145 -0.3862 -0.7701  0.1464
31775W        W32639  18.284   5.945   8.476 -0.1549  0.1453  0.0638
31776W        W32640  17.782   4.581   2.417 -0.1312  0.1147 -0.1982
31777W        W32641  22.772   3.267   3.709  0.2947 -0.1561  0.1959
31778W        W32642  23.897   7.425   1.833 -0.1194 -0.0154 -0.0839
31779W        W32643  17.536   6.541   4.515 -0.1571  0.1554 -0.0542
31780W        W32644  22.266   5.158   3.211  0.2788 -0.1710 -0.1667
31781W        W32645  22.024   8.286   4.700  0.0234  0.1886  0.1356
31782W        W32646  17.303   3.414   7.567  0.2592  0.1356 -0.0129
31783W        W32647  20.522   3.954   7.748  0.1323 -0.1980  0.1086
31784W        W32648  19.465   8.476   2.988  0.0207 -0.1053  0.1443
31785W        W32649  18.921   4.113   5.982 -0.3046 -0.2473 -0.2541
31786W        W32650  21.559   3.136   2.903 -0.0974  0.1143 -0.3067
31787W        W32651  17.672   6.496   2.640  0.1146 -0.0583 -0.0175
31788W        W32652  18.260   4.407   4.348 -0.1140  0.2222 -0.0911
31789W        W32653  21.281   5.548   2.070 -0.3175  0.0727 -0.0420
31790W        W32654  22.784   6.773   5.904 -0.3533  0.0471  0.1770
31791W        W32655  21.228   6.603   7.447  0.0349 -0.1490 -0.1903
31792W        W32656  21.438   7.586   1.876  0.0014  0.1834 -0.3788
31793W        W32657  19.134   5.238   4.755 -0.1946  0.3622 -0.0011
31794W        W32658  22.531   4.903   4.144 -0.2089 -0.0433 -0.2496
31795W        W32659  20.277   7.347   3.119 -0.4165 -0.0248  0.1327
31796W        W32660  19.526   4.981   5.687  0.0580  0.2579 -0.1056
31797W        W32661  23.601   5.536   6.015 -0.0106  0.1891 -0.0259
31798W        W32662  21.693   5.611   3.412 -0.1921  0.1029 -0.0793
31799W        W32663  21.608   7.499   3.738 -0.0763  0.0902 -0.0972
31800W        W32664  22.874   7.551   4.469  0.1338 -0.3160 -0.0747
31801W        W32665  20.127   7.107   4.941  0.0248  0.1818  0.1912
31802W        W32666  21.910   6.038   3.316  0.1101 -0.0463  0.2885
31803W        W32667  20.945   7.825   4.386  0.0011 -0.0908 -0.2779
31804W        W32668  17.975   6.266   7.031  0.3230  0.1040  0.0816
31805W        W32669  21.774   7.252   2.627  0.0173  0.1427 -0.1285
31806W        W32670  21.515   5.458   5.401  0.1629  0.2705 -0.3816
31807W        W32671  21.380   6.203   7.178 -0.1184 -0.1151  0.2322
31808W        W32672  20.515   8.382   4.673  0.1894  0.3269 -0.0141
31809W        W32673  19.706   3.997   5.006 -0.3271  0.2047 -0.3854
31810W        W32674  17.511   9.397   5.523  0.0631  0.1100  0.1013
31811W        W32675  19.717   6.130   4.383  0.0934  0.3856  0.2197
31812W        W32676  21.697   4.816   8.398  0.0478 -0.0542  0.0660
31813W        W32677  17.673   5.058   9.190 -0.1020 -0.0207 -0.2583
31814W        W32678  19.127   4.531   6.199 -0.1568 -0.1622  0.0014
31815W        W32679  21.842   3.429   5.406  0.5106 -0.0649 -0.1512
31816W        W32680  20.189   9.579   2.875 -0.1617  0.1666 -0.1360
31817W        W32681  19.060   7.445   2.529  0.1582  0.1133 -0.2359
31818W        W32682  19.938   0.885   6.292  0.2037  0.3705  0.2490
31819W        W32683  20.571   5.755   6.273 -0.1307 -0.1115 -0.3164
31820W        W32684  17.828   7.634   4.615 -0.0228 -0.2964  0.1150
31821W        W32685  16.895   5.431   1.172  0.1328  0.3742  0.1267
31822W        W32686  20.510   7.618   6.761  0.1071 -0.1908  0.0986
31823W        W32687  23.221   2.805   2.221  0.0238  0.0644  0.0516
31824W        W32688  21.477   4.441   2.595  0.0406  0.0451  0.0907
31825W        W32689  19.462   6.730   6.060 -0.0384 -0.3608  0.1515
31826W        W32690  21.780   6.734   8.933  0.1438 -0.0625  0.1341
31827W        W32691  21.576   7.947   5.608  0.1404 -0.0949 -0.0690
31828W        W32692  23.147   8.303   6.353 -0.0846 -0.1263  0.3411
31829W        W32693  20.718   3.255   1.629  0.2981  0.0796 -0.1795
31830W        W32694  21.528   7.956   3.888  0.2054  0.0768  0.0787
31831W        W32695  21.213   4.025   1.813 -0.0205  0.2244 -0.0544
31832W        W32696  19.860   5.487   6.506 -0.1517  0.0173 -0.1800
31833W        W32697  19.254   5.988   2.620 -0.0348 -0.0794 -0.1258
31834W        W32698  20.525   6.810   5.676  0.1529  0.1983 -0.2739
31835W        W32699  19.206   5.453   5.269 -0.0889 -0.2615 -0.1624
31836W        W32700  19.596   3.555   1.909 -0.3181 -0.3472 -0.0661
31837W        W32701  20.512   4.447   3.759  0.2203 -0.3656 -0.1246
31838W        W32702  20.724   2.344   5.254  0.1396  0.1663 -0.1568
31839W        W32703  18.790   7.768   5.215 -0.0789 -0.1269  0.0988
31840W        W32704  17.712   4.907   5.963  0.2092  0.0842  0.1322
31841W        W32705  19.508   3.641   7.724  0.2215 -0.0644 -0.1790
31842W        W32706  21.311   4.019   6.683  0.0062  0.0252  0.0570
31843W        W32707  20.952   6.144   3.543  0.2292 -0.0724  0.2780
31844W        W32708  18.220   5.427   5.005 -0.0705 -0.0696 -0.0251
31845W        W32709  19.735   7.479   7.344 -0.0128 -0.1899  0.0728
31846W        W32710  21.744   5.299   5.816 -0.0164 -0.2353  0.0166
31847W        W32711  18.001   7.842   1.576  0.0042 -0.0126 -0.0134
31848W        W32712  19.329   7.512   4.728 -0.0780 -0.2718 -0.2372
31849W        W32713  19.930   4.340   5.454 -0.2187  0.1223 -0.0649
31850W        W32714  22.519   7.253   4.652  0.4851 -0.1149  0.3986
31851W        W32715  24.062   5.316   2.446 -0.0276  0.4927  0.0947
31852W        W32716  21.694   2.160   1.273 -0.0747  0.1369 -0.0071
31853W        W32717  23.082   6.255   3.255  0.0993  0.0115 -0.1508
31854W        W32718  16.502   6.722   6.360 -0.0119 -0.0225  0.0465
31855W        W32719  19.702   5.462   7.680  0.0726  0.3119  0.0798
31856W        W32720  19.675   7.113   4.653 -0.0894 -0.1083  0.0585
31857W        W32721  21.451   6.797   5.579 -0.0858  0.0245  0.0769
31858W        W32722  18.426   4.822   3.522 -0.0393  0.2546 -0.2643
31859W        W32723  20.889   6.898   4.840 -0.1537 -0.2250  0.0591
31860W        W32724  21.961   3.545   3.087 -0.0920  0.2184 -0.0943
31861W        W32725  20.675   3.818   2.056  0.0263 -0.1477 -0.1439
31862W        W32726  21.454   3.811   2.241  0.1437 -0.1056 -0.1785
31863W        W32727  20.722   5.270   4.862  0.0817 -0.3248 -0.4264
31864W        W32728  22.464   2.887   3.476 -0.0941 -0.1665  0.2417
31865W        W32729  17.250   3.887   2.597 -0.2067  0.0587  0.0770
31866W        W32730  17.111   7.238   5.692 -0.0568  0.1496  0.0610
31867W        W32731  17.436   8.922   5.130  0.4310  0.1365 -0.0766
31868W        W32732  19.209   6.195   4.548  0.2162  0.2725 -0.1217
31869W        W32733  17.725   6.520   0.674 -0.1474 -0.1106  0.0367
31870W        W32734  18.784   5.665   6.047  0.1588  0.0533 -0.3695
31871W        W32735  20.375   1.567   9.894  0.0319  0.1973  0.0746
31872W        W32736  17.934   3.015   6.865  0.1404 -0.0807 -0.1781
31873W        W32737  17.967   5.789   4.197  0.2658  0.0724 -0.1078
31874W        W32738  19.392   5.621   3.031  0.0064  0.1785  0.0909
31875W        W32739  18.054   3.932   5.794  0.2613 -0.0686 -0.1148
31876W        W32740  19.043   3.463   4.456 -0.1413 -0.3301 -0.0213
31877W        W32741  20.840   6.771   5.309 -0.0909  0.0534  0.2178
31878W        W32742  19.263   4.334   4.272 -0.1064 -0.2541  0.0721
31879W        W32743  21.854   6.483   4.373  0.0562 -0.0032 -0.1903
31880W        W32744  22.080   7.209   5.328  0.1541 -0.1248  0.1872
31881W        W32745  18.590   4.421   5.758 -0.1303  0.1651 -0.0723
31882W        W32746  20.121   2.779   6.308 -0.0403  0.0521 -0.2870
31883W        W32747  18.165   7.432   3.689  0.2713 -0.2261 -0.1839
31884W        W32748  18.774   6.292   5.408  0.0240  0.1746  0.0473
31885W        W32749  19.454   6.137   3.119  0.1022  0.2075 -0.0966
31886W        W32750  19.840   8.694   3.692  0.0141 -0.0537 -0.0467
31887W        W32751  19.156   7.123   6.055 -0.1371  0.0310 -0.0572
31888W        W32752  18.971   7.173   6.509  0.1601  0.1424  0.1374
31889W        W32753  19.099   2.428   6.026 -0.0597  0.3741  0.1877
31890W        W32754  20.014   5.431   5.025  0.0591 -0.0194 -0.0756
31891W        W32755  20.274  29.124   5.473 -0.0408 -0.0919  0.2356
31892W        W32756  19.564   3.022   7.901 -0.1689 -0.0386 -0.0593
31893W        W32757  22.644   6.379   4.396  0.0598 -0.0343  0.0265
31894W        W32758  19.341   6.689   3.170  0.2183 -0.0882 -0.1059
31895W        W32759  20.983   8.304   4.494 -0.0762  0.0938  0.1407
31896W        W32760  19.906   4.625   6.738 -0.0002 -0.0908 -0.0593
31897W        W32761  18.090   7.195   6.062 -0.1439 -0.2640  0.1121
31898W        W32762  23.233   2.642   7.643  0.3131  0.0499  0.0815
31899W        W32763  19.337   3.880   4.537 -0.1380 -0.1160 -0.3018
31900W        W32764  18.894   5.784   5.511  0.0037 -0.0504  0.2125
31901W        W32765  19.945   5.887   1.568  0.1059 -0.0773 -0.0222
31902W        W32766  18.690   7.220   3.791  0.0098  0.0347 -0.0637
31903W        W32767  20.772   5.907   5.293  0.1348 -0.0582  0.3530
31904W        W32768  21.291   6.475   4.603 -0.3257 -0.4185 -0.0643
31905W        W32769  22.183   4.181   4.731 -0.1883 -0.3331  0.0332
31906W        W32770  23.295   7.919   5.472  0.1256  0.0600 -0.2106
31907W        W32771  20.896   4.488   5.184 -0.1592  0.0982  0.1473
31908W        W32772  18.084   5.288   3.809  0.2260 -0.2684 -0.2527
31909W        W32773  19.771   7.152   8.026  0.2278  0.1074 -0.0814
31910W        W32774  20.367   6.166   3.773  0.0143 -0.0443  0.1298
31911W        W32775  20.997   5.839   3.071  0.1450  0.0594 -0.0873
31912W        W32776  19.409   2.738   5.683  0.0842  0.0008 -0.1959
31913W        W32777  18.019   7.775   3.290  0.0406 -0.1856  0.3359
31914W        W32778  24.009   6.058   3.764 -0.1507  0.2141 -0.0646
31915W        W32779  17.727   3.049   5.161 -0.4123  0.2354  0.0747
31916W        W32780  19.032   6.227   5.842 -0.0777  0.0738 -0.0478
31917W        W32781  20.974   6.317   4.961  0.1706 -0.0900 -0.0130
31918W        W32782  21.166   7.336   3.654 -0.1776 -0.1332 -0.0283
31919W        W32783  17.582   7.104   4.633  0.2746  0.1547 -0.2021
31920W        W32784  16.976   4.142   4.531  0.0257 -0.1410 -0.0051
31921W        W32785  16.294   4.518   3.524 -0.2457  0.3882 -0.3630
31922W        W32786  22.323   6.654   4.624 -0.1915 -0.0649  0.2627
31923W        W32787  21.229   6.408   3.864 -0.0630  0.1255  0.1381
31924W        W32788  21.844   5.584   6.808  0.2202 -0.1389  0.1783
31925W        W32789  20.344   5.022   6.836  0.1172  0.2423  0.2468
31926W        W32790  20.469   5.271   6.243  0.0718  0.2469  0.0902
31927W        W32791  19.130   6.815   2.343 -0.2696 -0.1313  0.1074
31928W        W32792  18.308   7.089   4.186 -0.0275  0.1733  0.0119
31929W        W32793  19.708   8.186   6.754 -0.1589  0.1945  0.0509
31930W        W32794  19.950   5.252   6.027  0.0498 -0.0472 -0.1091
31931W        W32795  19.743   8.206   5.338  0.0723  0.1349 -0.0730
31932W        W32796  18.751   3.634   3.172 -0.2083  0.0279 -0.1011
31933W        W32797  21.996  10.816   1.710 -0.0219 -0.1064  0.0259
31934W        W32798  21.711   6.217   3.961  0.0084 -0.2670  0.1642
31935W        W32799  18.134   3.730   5.311  0.1962  0.1273  0.0274
31936W        W32800  22.726   5.499   3.546 -0.1073 -0.0769 -0.0223
31937W        W32801  24.142   5.003   5.188 -0.2164  0.3719  0.2409
31938W        W32802  18.566   3.987   2.680  0.0859  0.0749 -0.0842
31939W        W32803  19.308   5.173   7.129  0.1181 -0.0875  0.0508
31940W        W32804  20.705   6.008   8.582 -0.1435 -0.2995  0.1344
31941W        W32805  21.412   4.960   7.520 -0.0577  0.1340 -0.1326
31942W        W32806  20.897   9.163   5.602 -0.1189 -0.0433 -0.0596
31943W        W32807  20.528   9.823   3.155  0.0653 -0.3658  0.0258
31944W        W32808  18.805   7.532   5.681  0.2492  0.1288  0.1942
31945W        W32809  20.618   6.327   5.723 -0.1386  0.0772 -0.0676
31946W        W32810  17.775   5.130   2.427  0.1631  0.0042 -0.0154
31947W        W32811  20.238   4.577   1.975  0.1486 -0.0560  0.0293
31948W        W32812  20.653   6.547   3.550 -0.2696 -0.3987 -0.2868
31949W        W32813  20.324   5.919   5.536 -0.0231  0.0846  0.1607
31950W        W32814  18.399   2.649   5.728  0.1380  0.2008  0.0533
31951W        W32815  18.888   5.145   7.496 -0.0883  0.0218 -0.0750
31952W        W32816  21.095   7.811   5.498  0.3752 -0.2229  0.0397
31953W        W32817  21.472   3.579   5.019  0.2062  0.1743  0.0953
31954W        W32818  19.549   3.042   6.678  0.0362  0.0496  0.1230
31955W        W32819  19.315   8.484   4.089 -0.2695  0.0739 -0.1412
31956W        W32820  20.252   4.102   1.996  0.4474  0.0864  0.0737
31957W        W32821  16.509   7.223   6.221 -0.0199  0.0765  0.0186
31958W        W32822  18.384   3.913   4.217 -0.0664 -0.4865 -0.0229
31959W        W32823  19.717   2.686   2.246  0.0504  0.3029  0.0228
31960W        W32824  22.935   4.570   2.820  0.0291  0.1336  0.3051
31961W        W32825  18.271   9.343   6.598  0.0045  0.0150 -0.0528
31962W        W32826  23.072   3.101   3.247  0.2438  0.0584 -0.0758
31963W        W32827  21.436   5.310   6.624 -0.1187  0.2679 -0.0426
31964W        W32828  21.420   5.294   3.671 -0.2151  0.1674 -0.1497
31965W        W32829  17.885   6.243   4.411  0.2098  0.0164 -0.1617
31966W        W32830  21.929   1.954   3.925 -0.2343 -0.1340 -0.2060
31967W        W32831  19.972   7.396   2.748  0.2771  0.1719  0.0189
31968W        W32832  23.039   7.505   5.400  0.0428 -0.0376 -0.2194
31969W        W32833  23.086   6.554   4.307 -0.3032  0.2873  0.0080
31970W        W32834  21.729   4.383   3.547 -0.0010 -0.3158  0.2516
31971W        W32835  20.675   7.427   1.803  0.0253  0.3372 -0.1460
31972W        W32836  20.503   8.873   4.852 -0.1363  0.0279 -0.1103
31973W        W32837  20.013   4.917   1.622 -0.0956  0.1726  0.2424
31974W        W32838  19.931   4.766   3.655  0.0104  0.3899 -0.2769
31975W        W32839  21.884   4.484   6.250  0.0074 -0.1441  0.0246
31976W        W32840  24.468   5.598   5.766  0.0804  0.3513 -0.1871
31977W        W32841  19.727   8.830   5.537  0.0009 -0.3980 -0.2570
31978W        W32842  17.791   3.936   4.107  0.1860  0.1669 -0.2386
31979W        W32843  20.920   4.274   9.272  0.3647  0.0080 -0.1428
31980W        W32844  20.742   7.723   5.832 -0.1202  0.0912 -0.1062
31981W        W32845  22.907   5.393   5.773  0.0086 -0.1870 -0.1405
31982W        W32846  21.237   4.516   3.136 -0.2073 -0.1089 -0.1851
31983W        W32847  19.192   6.757   6.456  0.2014  0.0614 -0.0901
31984W        W32848  21.617   4.806   5.942 -0.2452  0.1560  0.0242
31985W        W32849  22.524   3.590   1.721 -0.1520  0.1025 -0.0725
31986W        W32850  20.043   5.902   4.077  0.2386  0.0057 -0.0591
31987W        W32851  20.510   7.152   5.269  0.1020 -0.0402 -0.1316
31988W        W32852  16.990   6.125   3.078 -0.1427  0.0666 -0.0403
31989W        W32853  19.728   5.067   6.878  0.0443 -0.0795 -0.0701
31990W        W32854  21.020   6.785   2.328 -0.1949 -0.2291  0.0249
31991W        W32855  18.439   5.018   6.551 -0.0498 -0.0693  0.0236
31992W        W32856  19.860   6.417   6.261  0.1121 -0.0417 -0.2245
31993W        W32857  17.814   8.464   6.464 -0.2194 -0.1125 -0.1918
31994W        W32858  19.966   6.407   3.899 -0.0435 -0.0858  0.1241
31995W        W32859  22.037   4.387   2.453  0.1683 -0.0866 -0.1009
31996W        W32860  18.705   7.021   6.001  0.1272 -0.1480  0.1760
31997W        W32861  20.044   6.843   3.452 -0.0828  0.3819 -0.0053
31998W        W32862  19.557   8.828   4.421 -0.0491  0.0890 -0.1360
31999W        W32863  21.761   4.782   0.386  0.0992 -0.1058 -0.2183
32000W        W32864  14.017   8.116   7.755  0.0570 -0.1289 -0.1892
32001W        W32865  20.060   6.284   5.417 -0.1798 -0.0995  0.1360
32002W        W32866  20.042   7.082   5.537 -0.3164  0.2136 -0.0572
32003W        W32867  21.733   9.362   6.682 -0.0430  0.2922  0.3295
32004W        W32868  22.667   3.931   4.258 -0.1116  0.0949  0.0708
32005W        W32869  19.930   5.847   3.127  0.4093 -0.0338  0.0047
32006W        W32870  22.094   4.769   3.475  0.1772 -0.3201 -0.0817
32007W        W32871  17.911   6.700   4.810 -0.0442 -0.1060 -0.0440
32008W        W32872  21.635   2.598   4.679 -0.0376 -0.0973 -0.2119
32009W        W32873  22.823   3.513   3.203 -0.1208 -0.3700 -0.1469
32010W        W32874  22.726   7.706   7.580 -0.0755 -0.3242  0.1243
32011W        W32875  19.242   5.795   5.888  0.3553 -0.0090 -0.1626
32012W        W32876  22.216   5.365   7.714  0.2529  0.0590 -0.0857
32013W        W32877  23.276   3.904   5.059  0.2857  0.0097 -0.0007
32014W        W32878  19.414   5.684   4.449  0.0706 -0.1310 -0.1082
32015W        W32879  20.758   5.768   3.837 -0.1296  0.0834 -0.0939
32016W        W32880  20.389   6.750   4.719 -0.3348  0.6104  0.0661
32017W        W32881  21.786   3.963   3.314  0.2107  0.1878 -0.3183
32018W        W32882  20.968   7.278   4.381  0.0562  0.0930 -0.2968
32019W        W32883  18.809   5.398   7.037  0.0027  0.0899  0.0461
32020W        W32884  20.860   5.388   5.979  0.0485  0.1904  0.6139
32021W        W32885  18.601   8.118   2.217 -0.3441  0.0328 -0.5045
32022W        W32886  22.445   6.066   3.975 -0.1084  0.1955  0.2220
32023W        W32887  21.567   8.527   3.796  0.1100  0.1265  0.0124
32024W        W32888  19.227   6.833   5.191  0.0294  0.2133  0.2899
32025W        W32889  16.581   6.072   4.982  0.3429 -0.2674  0.1423
32026W        W32890  18.671   8.599   3.293 -0.2922 -0.1940  0.0572
32027W        W32891  18.575   5.348   3.617 -0.0786 -0.0054  0.1174
32028W        W32892  20.120   7.656   5.466  0.1863 -0.0725 -0.2218
32029W        W32893  20.201   8.972   5.680  0.3429 -0.0499  0.2215
32030W        W32894  21.181   3.557   5.497 -0.1856  0.0754 -0.0343
32031W        W32895  18.628   5.022   4.066 -0.3785  0.4029  0.0291
32032W        W32896  19.395   7.995   3.227  0.0289  0.4653  0.0079
32033W        W32897  22.778   4.292   3.737 -0.1105 -0.2530 -0.0826
32034W        W32898  17.764   5.667   3.677  0.0353  0.0519  0.0053
32035W        W32899  23.584   5.719   6.883 -0.3322 -0.4343  0.2740
32036W        W32900  19.775   4.459   5.012  0.1199 -0.1872  0.0810
32037W        W32901  19.587   7.717   1.845  0.0872 -0.0906 -0.0344
32038W        W32902  19.353   5.899   3.584 -0.0482  0.1533 -0.2905
32039W        W32903  22.431   6.743   6.631  0.0204 -0.1043  0.1468
32040W        W32904  20.824   4.873   7.047  0.0515 -0.1939  0.2805
32041W        W32905  20.586   4.584   4.259  0.1317 -0.0234  0.3302
32042W        W32906  17.824   6.663   7.980 -0.0303 -0.0300 -0.0618
32043W        W32907  21.612   6.279   5.508  0.1275 -0.0438  0.0928
32044W        W32908  18.127   7.356   1.644  0.5274  0.0377  0.1216
32045W        W32909  20.712   6.431   4.054  0.0854  0.1842 -0.0044
32046W        W32910  18.883   1.774   2.638  0.0453  0.1510 -0.1256
32047W        W32911  20.317   4.149   5.730 -0.1004  0.2364  0.0279
32048W        W32912  21.284   4.635   2.082  0.0745 -0.2743 -0.0581
32049W        W32913  19.851   3.870   5.656  0.0270  0.0422  0.0076
32050W        W32914  21.069   4.981   3.379 -0.0190  0.1516  0.0498
32051W        W32915  20.868   5.220   8.148 -0.0174  0.1929 -0.0611
32052W        W32916  21.127   5.058   4.489 -0.2959  0.2657  0.1436
32053W        W32917  19.246   4.706   4.694  0.0124  0.1053  0.2047
32054W        W32918  17.423   1.523   4.473 -0.0122  0.0655 -0.0190
32055W        W32919  22.421   5.085   8.028 -0.0609 -0.1554 -0.2408
32056W        W32920  20.185   1.337   5.643  0.0935 -0.3740 -0.1197
32057W        W32921  18.166   5.364   4.457 -0.0700  0.2311 -0.1101
32058W        W32922  21.341   5.231   6.114  0.4379 -0.2334 -0.0080
32059W        W32923  17.231   4.000   5.019  0.2647 -0.0903 -0.2783
32060W        W32924  18.352   7.502   4.470 -0.0357 -0.4909 -0.2604
32061W        W32925  19.417   3.338   6.198  0.0874 -0.1059 -0.2278
32062W        W32926  21.069   7.064   7.138 -0.2400 -0.0385  0.0991
32063W        W32927  19.943   7.440   5.940 -0.0531  0.1302  0.4265
32064W        W32928  22.553   7.793   7.106  0.1826 -0.2120 -0.1058
32065W        W32929  18.936   5.688   7.899  0.2507 -0.1111 -0.1690
32066W        W32930  21.809   8.657   5.183  0.2744 -0.0114 -0.1997
32067W        W32931  21.188   5.264   7.108 -0.0456  0.0007 -0.0484
32068W        W32932  22.594   6.078   4.871 -0.0088 -0.1012 -0.0678
32069W        W32933  17.869   4.651   4.653 -0.2136 -0.1136 -0.2568
32070W        W32934  20.541   5.782   7.195 -0.2139  0.0221 -0.0142
32071W        W32935  19.631   7.617   5.512  0.1085 -0.2480  0.1158
32072W        W32936  18.727   8.216   4.849 -0.2025 -0.0347 -0.0715
32073W        W32937  20.761   5.908   4.737 -0.0390  0.1470  0.1106
32074W        W32938  20.381   4.985   3.883 -0.0351  0.0769 -0.0985
32075W        W32939  17.826   7.614   5.948 -0.0582 -0.3043  0.3626
32076W        W32940  17.829   7.828   5.126  0.0737 -0.1739  0.2619
32077W        W32941  17.330   6.371   4.098 -0.2112  0.1425 -0.0281
32078W        W32942  18.520   8.712   7.822  0.0172 -0.2352  0.0740
32079W        W32943  17.266   6.158   9.768 -0.1599  0.1773  0.4165
32080W        W32944  19.527   5.506   5.684  0.0759 -0.0221 -0.1453
32081W        W32945  19.894   6.008  11.147  0.1167  0.0474  0.0140
32082W        W32946  19.954   5.633   8.050  0.2998 -0.1966 -0.1271
32083W        W32947  17.107   5.559   7.115  0.1155  0.1253  0.0641
32084W        W32948  19.779   5.907   6.731 -0.1333 -0.0075 -0.1460
32085W        W32949  18.976   4.298   7.365 -0.3108  0.0240 -0.1327
32086W        W32950  19.083   3.109  11.462  0.0823 -0.0273 -0.1552
32087W        W32951  19.329   1.585   9.844 -0.1192  0.0990  0.0397
32088W        W32952  19.105   4.568  11.943  0.3997 -0.0384  0.1752
32089W        W32953  20.451   3.208   7.184 -0.3185  0.1381  0.1155
32090W        W32954  20.124   5.188   3.403  0.0695  0.1012  0.2473
32091W        W32955  20.599   5.518   9.525  0.1683 -0.1286 -0.3026
32092W        W32956  18.887   6.772  10.112 -0.0501  0.0008 -0.1782
32093W        W32957  20.621   7.093  11.599 -0.0256  0.0440 -0.3045
32094W        W32958  20.305   7.987   5.804  0.0814  0.1306 -0.0107
32095W        W32959  18.138   3.804   7.461 -0.1894  0.0320 -0.1195
32096W        W32960  19.934   3.871   9.589 -0.1747 -0.0137  0.0661
32097W        W32961  21.473   3.565  10.240 -0.0669  0.3375 -0.0039
32098W        W32962  22.758   7.206  11.420  0.0161 -0.0366  0.3104
32099W        W32963  21.814   5.900   5.304 -0.0207 -0.2590  0.1421
32100W        W32964  20.510   3.958  11.940 -0.3463 -0.2596  0.1022
32101W        W32965  18.333   5.702  10.420  0.4457  0.3776  0.0102
32102W        W32966  18.192   7.063  10.283 -0.1007 -0.1335 -0.2935
32103W        W32967  22.804   5.666   8.581  0.1346 -0.0666  0.1701
32104W        W32968  22.831   4.853  11.527 -0.0803 -0.1915 -0.1188
32105W        W32969  15.969   5.218   9.311  0.0801 -0.1086  0.5477
32106W        W32970  19.070   2.386   8.930 -0.1314 -0.2406 -0.0344
32107W        W32971  15.997   6.089   8.818 -0.1767  0.1487  0.1118
32108W        W32972  19.375   3.881   8.699 -0.1806 -0.0376 -0.1631
32109W        W32973  22.446   2.599  12.037  0.0499  0.1100 -0.1998
32110W        W32974  20.615   4.854   7.859  0.0017  0.0755  0.0145
32111W        W32975  21.594   7.083   9.313 -0.4498 -0.0337 -0.2818
32112W        W32976  20.470   4.042  13.333 -0.1685 -0.0635  0.0554
32113W        W32977  22.209   5.437   8.305 -0.0940  0.0995 -0.0161
32114W        W32978  18.562   3.409   8.255 -0.0307 -0.0462 -0.0613
32115W        W32979  19.252   5.563   7.429 -0.1726 -0.1143 -0.1001
32116W        W32980  20.675   4.840  11.547  0.2389 -0.1406 -0.3412
32117W        W32981  20.811   3.595   7.423  0.0038 -0.0584  0.1245
32118W        W32982  22.785   5.492   8.017 -0.1068 -0.1138 -0.1900
32119W        W32983  23.343   5.946   7.814 -0.0413 -0.1052  0.0973
32120W        W32984  21.619   4.663  10.972 -0.0272  0.3100 -0.0085
32121W        W32985  17.615   4.313   3.182  0.0961 -0.1219  0.0828
32122W        W32986  17.512   9.014   8.892 -0.1534 -0.1438 -0.0843
32123W        W32987  17.205   7.409   7.995  0.1462  0.4829  0.1927
32124W        W32988  16.971   3.719   6.565  0.0285  0.2454  0.3363
32125W        W32989  20.006   3.701   7.954 -0.1514  0.0949  0.1559
32126W        W32990  20.292   6.484   7.193  0.0766  0.0861 -0.0025
32127W        W32991  22.008   5.130   6.733 -0.0088 -0.1283 -0.1925
32128W        W32992  18.870   6.306   7.659 -0.0772  0.2133  0.2459
32129W        W32993  17.449   6.016  10.230  0.0998 -0.0200 -0.1253
32130W        W32994  19.308   4.246   9.034 -0.0552 -0.1006  0.1535
32131W        W32995  20.856   8.016   9.979 -0.5097 -0.0757  0.0169
32132W        W32996  20.234   4.848   9.783 -0.3390 -0.0231 -0.1247
32133W        W32997  16.774   6.552   8.010 -0.1551  0.0349  0.0697
32134W        W32998  17.490   4.035   8.160 -0.2522  0.2863  0.2164
32135W        W32999  22.729   6.001  10.527 -0.0530 -0.0808  0.2424
32136W        W33000  16.884   6.115   7.769 -0.3400 -0.1251  0.4913
32137W        W33001  19.330   6.338   8.473  0.0713 -0.3327 -0.3359
32138W        W33002  19.985   4.939   8.560  0.1580  0.4508  0.5123
32139W        W33003  20.028   5.611  10.902  0.3443 -0.2138 -0.1313
32140W        W33004  20.908   7.156   8.789  0.0749 -0.2138  0.2644
32141W        W33005  17.901   4.204   8.560 -0.2017 -0.2838 -0.0929
32142W        W33006  18.230   3.264   7.900  0.1060  0.0223 -0.1019
32143W        W33007  22.911   3.921   7.313  0.2917 -0.0976  0.2529
32144W        W33008  18.644   8.020   5.710 -0.0829 -0.3940 -0.0015
32145W        W33009  21.697   4.954   6.404 -0.0738  0.1872 -0.2511
32146W        W33010  19.685   6.721   6.611  0.5074 -0.0056  0.2753
32147W        W33011  20.075   6.882   6.842  0.0143  0.0687  0.0888
32148W        W33012  20.486   8.668  10.722 -0.0973  0.3121 -0.0377
32149W        W33013  19.312   6.054   7.600  0.2187  0.0342 -0.0440
32150W        W33014  20.935   9.755  10.102 -0.2188  0.3886  0.0546
32151W        W33015  20.889   5.839  11.440 -0.1370  0.1413  0.1198
32152W        W33016  22.613   5.436   7.305  0.0421  0.1607 -0.0140
32153W        W33017  20.150   3.852   9.102 -0.0716 -0.1024  0.1004
32154W        W33018  18.367   5.571   5.492  0.1256 -0.0112  0.0193
32155W        W33019  19.638   3.808   7.205 -0.0534  0.0777  0.1610
32156W        W33020  19.299   7.259   8.690 -0.0792 -0.0652 -0.2611
32157W        W33021  20.126   4.154   7.026 -0.0274  0.2254 -0.0139
32158W        W33022  18.492   2.408   7.370 -0.0054 -0.0910 -0.1895
32159W        W33023  17.078   2.728  11.124  0.0808 -0.2883  0.1310
32160W        W33024  19.532   2.133   8.040 -0.4564  0.2117  0.2379
32161W        W33025  20.208   4.798   8.126 -0.2687 -0.0201 -0.0272
32162W        W33026  19.236   5.452  10.197 -0.3659 -0.0134 -0.0807
32163W        W33027  18.936   5.365   8.343  0.0981  0.0097  0.0667
32164W        W33028  23.436   5.677  12.016  0.2730  0.0464 -0.1860
32165W        W33029  19.067   2.226   9.410 -0.1426  0.1681 -0.0959
32166W        W33030  23.340   5.930  12.525 -0.1371  0.1067 -0.1963
32167W        W33031  23.287   4.960   8.613 -0.3274  0.2316 -0.0500
32168W        W33032  22.229   3.278   8.534  0.1751  0.1366 -0.0728
32169W        W33033  19.820   6.642  11.196  0.1320  0.0490 -0.0800
32170W        W33034  17.788   6.853  10.281 -0.0427 -0.0260 -0.0349
32171W        W33035  20.744   4.519   7.346 -0.0251 -0.0242  0.0206
32172W        W33036  21.696   2.671   9.916 -0.2583  0.0086 -0.0676
32173W        W33037  21.252   3.781   6.030  0.1770  0.1610 -0.0579
32174W        W33038  23.012   5.904   8.220  0.0271  0.1252 -0.1542
32175W        W33039  21.077   4.705  10.762  0.1931  0.0632 -0.4022
32176W        W33040  20.256   4.300   7.987 -0.1953  0.0849 -0.1636
32177W        W33041  18.603   4.485  10.254  0.0159  0.0963 -0.1211
32178W        W33042  22.836   5.976   7.743  0.0145 -0.1574 -0.0481
32179W        W33043  18.874   7.443   8.365 -0.1841  0.0738  0.0798
32180W        W33044  21.029   4.281   6.316  0.0618  0.0712  0.1014
32181W        W33045  20.793   8.204   9.102 -0.0845 -0.1359 -0.2232
32182W        W33046  22.085   4.479   9.152  0.0523  0.1326  0.1758
32183W        W33047  19.823   3.436   9.273  0.1374  0.0594 -0.5254
32184W        W33048  20.313   5.878   5.068 -0.2416 -0.1169  0.0754
32185W        W33049  22.920   8.417  14.201  0.1390  0.1350 -0.0352
32186W        W33050  20.817   3.133   7.634  0.0624 -0.2217 -0.0609
32187W        W33051  20.431   7.336   5.732  0.0363  0.0250 -0.1393
32188W        W33052  19.620   5.487  11.880  0.2335 -0.0645 -0.4489
32189W        W33053  21.063   5.574   9.387  0.0901  0.1982 -0.0575
32190W        W33054  22.413   4.509  10.768  0.0514  0.4930 -0.1105
32191W        W33055  17.400  10.909   8.881 -0.4295 -0.0061 -0.0727
32192W        W33056  20.537   5.751   8.167  0.0758 -0.0993 -0.0717
32193W        W33057  17.957   6.462   7.481 -0.1072 -0.0353 -0.1787
32194W        W33058  22.599   4.066   6.991 -0.1827  0.0883  0.0082
32195W        W33059  19.090   6.006   8.967  0.0758  0.1165  0.0569
32196W        W33060  19.234   5.505   8.838  0.1395 -0.1151 -0.2392
32197W        W33061  20.629   4.681   6.552  0.1969 -0.0214  0.0643
32198W        W33062  22.375   5.817   7.703 -0.3680  0.1052 -0.0800
32199W        W33063  23.141   5.376   8.355 -0.0816 -0.3512  0.0640
32200W        W33064  21.714   5.135  11.315  0.1760  0.0706 -0.0170
32201W        W33065  20.868   5.737   6.714  0.1546  0.2394 -0.2713
32202W        W33066  20.279   6.676   6.120 -0.1026 -0.0246  0.1626
32203W        W33067  21.880   2.346   8.173  0.0786  0.0321  0.4451
32204W        W33068  19.358   3.448   8.974  0.2402  0.0741 -0.0470
32205W        W33069  20.369   6.164   7.552 -0.1339 -0.0208 -0.1878
32206W        W33070  21.343   7.968  10.256 -0.1071  0.1216 -0.0079
32207W        W33071  19.549   4.165   9.592 -0.2836 -0.0257  0.1429
32208W        W33072  19.986   6.304  11.638 -0.1401 -0.0825  0.0556
32209W        W33073  22.000   4.371  11.831 -0.2348 -0.2618  0.2202
32210W        W33074  18.463   2.938   9.614 -0.1121 -0.2020 -0.0430
32211W        W33075  20.920   3.896   9.680 -0.0972  0.4420  0.1194
32212W        W33076  22.294   3.146   7.329  0.2269  0.0143  0.1903
32213W        W33077  18.813   3.323  12.601  0.0002 -0.1060 -0.0741
32214W        W33078  20.612   4.065   8.422 -0.0143 -0.1124 -0.1259
32215W        W33079  21.868   5.152   9.569  0.0333 -0.0733  0.3789
32216W        W33080  21.493   4.262   9.237 -0.0740 -0.0926  0.1348
32217W        W33081  21.925   6.489  11.756  0.0131 -0.1596 -0.1515
32218W        W33082  19.546   4.466   5.769  0.1245 -0.2166 -0.1138
32219W        W33083  19.739   3.162   8.843  0.0140  0.1759 -0.2155
32220W        W33084  20.470   6.057   6.736 -0.0297 -0.2955 -0.0250
32221W        W33085  19.068   4.932   8.926 -0.0234 -0.1243  0.0219
32222W        W33086  21.882   6.519  11.112  0.1640 -0.1422 -0.0370
32223W        W33087  19.548   5.659  10.748 -0.1053  0.2423  0.1818
32224W        W33088  21.562   4.707  11.519 -0.2827  0.1269  0.1944
32225W        W33089  19.860   6.490   8.558 -0.0184  0.2219  0.1722
32226W        W33090  18.041   4.533   9.515 -0.2152 -0.2674  0.0913
32227W        W33091  19.574   4.541  10.542  0.1885 -0.3315 -0.0487
32228W        W33092  22.422   5.886   9.976  0.0744  0.3326  0.0681
32229W        W33093  18.545   1.908   7.597 -0.0051 -0.2684  0.0067
32230W        W33094  19.467   4.117   7.503  0.0194 -0.0912  0.2124
32231W        W33095  19.367   4.585   6.754 -0.0063 -0.0165 -0.0044
32232W        W33096  20.985   4.865   8.532  0.1777 -0.1595  0.0736
32233W        W33097  20.296   2.082   7.864  0.2211  0.1181  0.0474
32234W        W33098  19.263   5.336   7.977  0.2547 -0.0861  0.1265
32235W        W33099  18.930   6.625   8.662  0.0638  0.1645 -0.0106
32236W        W33100  17.770   3.932   6.953  0.2043  0.1904 -0.2351
32237W        W33101  19.806   5.793   8.840  0.0383  0.0037  0.2119
32238W        W33102  22.990   3.883  10.471 -0.2117 -0.1000  0.1455
32239W        W33103  19.618   7.123   9.144 -0.1128  0.1388 -0.0187
32240W        W33104  21.117   6.076  10.602 -0.3152 -0.2901 -0.2088
32241W        W33105  18.108   7.005  11.167 -0.0839 -0.1924  0.1270
32242W        W33106  19.772   2.608  10.034  0.2394 -0.1301  0.1348
32243W        W33107  17.489   4.223   9.643  0.0322  0.1687 -0.2197
32244W        W33108  20.252   4.498   7.505 -0.0702  0.2389 -0.0270
32245W        W33109  17.162   7.085   6.222 -0.2694 -0.0122  0.1536
32246W        W33110  20.450   6.548  11.453 -0.3444 -0.1105  0.2440
32247W        W33111  16.125   7.512   6.421 -0.1594 -0.0764  0.0384
32248W        W33112  18.773   6.732   6.911  0.1049  0.2575  0.2028
32249W        W33113  21.394   3.323   8.228 -0.0016  0.2760  0.3513
32250W        W33114  19.570   6.212   9.092  0.0837 -0.1135 -0.0251
32251W        W33115  17.436   8.176   6.643  0.3067 -0.2876 -0.2871
32252W        W33116  20.098   5.208   5.566 -0.1852  0.0360  0.4326
32253W        W33117  21.317   5.962   7.691  0.1215 -0.0281  0.0682
32254W        W33118  15.911   7.317  10.654  0.1038  0.1611 -0.2665
32255W        W33119  19.884   3.557  10.443 -0.1266 -0.3753  0.0987
32256W        W33120  16.840   7.756   9.396  0.1075 -0.2675  0.2377
32257W        W33121  19.588   3.624   9.806 -0.3331  0.1032 -0.0179
32258W        W33122  20.228   5.679   7.621 -0.0640  0.3025  0.2553
32259W        W33123  21.730   8.961   8.738  0.0799  0.2022 -0.1905
32260W        W33124  22.387   5.832   6.040 -0.0871  0.2665  0.1330
32261W        W33125  19.709   4.109   6.719 -0.0760  0.3041  0.2758
32262W        W33126  20.797   4.050   5.924 -0.1862  0.0285  0.3536
32263W        W33127  21.308   3.986   9.989 -0.0482  0.0072 -0.1688
32264W        W33128  19.662   4.220   8.508  0.0691  0.2879  0.1959
32265W        W33129  19.294   4.150   7.011 -0.0033  0.0551 -0.0471
32266W        W33130  19.398   5.898   9.946 -0.1403 -0.1532  0.1171
32267W        W33131  21.190   5.923   8.662 -0.2530 -0.2416 -0.0281
32268W        W33132  21.652   6.852   7.719 -0.1786  0.1300  0.0952
32269W        W33133  17.204   6.716   5.956  0.0304  0.3078 -0.1951
32270W        W33134  17.108   3.386   7.098 -0.1311  0.2883 -0.0063
32271W        W33135  19.345   1.806   9.366  0.2130  0.2776  0.1385
32272W        W33136  20.162   3.928   8.384  0.0273 -0.0077 -0.1118
32273W        W33137  20.162   2.743   8.994 -0.1645  0.0198 -0.1466
32274W        W33138  19.602   5.536   8.384  0.0595  0.0130 -0.1365
32275W        W33139  17.468   3.555   8.113  0.0547 -0.1395  0.0341
32276W        W33140  19.052   3.496   9.847 -0.1511 -0.1561 -0.1904
32277W        W33141  20.432   3.071   9.881 -0.3273  0.2543 -0.6335
32278W        W33142  19.333   5.054   8.488 -0.1069  0.1447  0.0742
32279W        W33143  17.306   2.421  10.191 -0.2428  0.1453 -0.1896
32280W        W33144  21.255   6.796   8.915  0.1294  0.2111 -0.1543
32281W        W33145  21.308   2.469   6.718  0.2925 -0.0765 -0.2910
32282W        W33146  19.397   5.785   9.403  0.0019 -0.1708 -0.1279
32283W        W33147  17.121   2.401   7.661 -0.2585  0.1169  0.0334
32284W        W33148  20.889   5.881  12.548  0.3241 -0.0373 -0.0738
32285W        W33149  18.281   4.509  10.613 -0.0556 -0.1313  0.1746
32286W        W33150  19.008   7.615   6.285 -0.3563  0.0826  0.3395
32287W        W33151  17.814   6.874   5.246  0.0368  0.0897  0.1036
32288W        W33152  16.669   6.739  10.537  0.4534 -0.0157 -0.1759
32289W        W33153  19.095   3.574   8.105 -0.1231  0.0231  0.2055
32290W        W33154  20.548   6.141   9.074 -0.1783 -0.1330  0.1371
32291W        W33155  18.272   5.252  10.782 -0.0214  0.2316  0.1664
32292W        W33156  22.354   4.143   9.883  0.4604 -0.0130 -0.2692
32293W        W33157  21.296   7.489   6.458 -0.2398 -0.0064  0.0520
32294W        W33158  19.445   6.752   8.819  0.0538 -0.0429 -0.2532
32295W        W33159  20.092   5.433   8.565 -0.2390 -0.0236  0.2411
32296W        W33160  20.834   5.306  11.561 -0.3079 -0.0952 -0.0410
32297W        W33161  19.264   5.233  10.717 -0.2533 -0.0891 -0.1157
32298W        W33162  21.891   3.193   7.660  0.2126  0.4513  0.0936
32299W        W33163  20.868   8.077   7.872  0.3522 -0.0204  0.0460
32300W        W33164  18.902   5.358  13.654 -0.3193 -0.1852  0.1667
32301W        W33165  22.298   4.591   5.912  0.1260  0.3104  0.1539
32302W        W33166  21.092   6.313   9.065 -0.5146  0.1589 -0.1755
32303W        W33167  21.188   4.370   9.681 -0.1994  0.2671 -0.0284
32304W        W33168  20.247   5.080  10.387  0.2579 -0.1063 -0.2638
32305W        W33169  21.087   4.753   8.043  0.0901 -0.0652 -0.0102
32306W        W33170  19.441   6.561   7.430  0.0670  0.0539 -0.1412
32307W        W33171  19.903   5.775   9.332  0.0300  0.2042  0.0302
32308W        W33172  19.790   2.859   9.358 -0.0430 -0.0837 -0.2431
32309W        W33173  20.164   5.645  12.735  0.3151 -0.1054  0.2841
32310W        W33174  22.504   6.311   5.887  0.3092 -0.0800 -0.2923
32311W        W33175  20.383   3.642   8.690  0.2514 -0.2035 -0.2443
32312W        W33176  20.198   5.623  10.413 -0.5133 -0.1065  0.2142
32313W        W33177  17.383   6.589   9.552  0.0644  0.1277 -0.3171
32314W        W33178  22.597   3.773   8.615  0.0245  0.0864 -0.0170
32315W        W33179  18.099   1.877  10.677 -0.0148  0.1969  0.1022
32316W        W33180  20.737   7.159   9.644 -0.3105  0.3204 -0.2695
32317W        W33181  22.413   9.623   9.360 -0.1766 -0.0777  0.1029
32318W        W33182  20.673  10.004   7.133 -0.1461  0.2969 -0.2608
32319W        W33183  18.451   4.278   9.572 -0.1979  0.1224 -0.0171
32320W        W33184  19.025   1.471   8.539  0.1528 -0.2513  0.0396
32321W        W33185  20.480   4.916   7.384  0.0681 -0.3152  0.0846
32322W        W33186  19.866   3.987  10.172  0.0662  0.2666 -0.1277
32323W        W33187  17.050   7.958   5.594  0.1131  0.2671 -0.2419
32324W        W33188  18.709   5.967  11.927  0.4692  0.1693  0.1853
32325W        W33189  19.601   8.072   8.187  0.0734 -0.1401 -0.1811
32326W        W33190  19.427   7.100   7.588  0.1279  0.2389  0.1035
32327W        W33191  18.813   4.565   6.616 -0.3672 -0.1188 -0.1490
32328W        W33192  17.764   5.551   4.665 -0.0554 -0.0698  0.3027
32329W        W33193  19.304   4.707  11.455  0.0343  0.1072  0.1871
32330W        W33194  21.627   3.810  13.613 -0.1491 -0.0701  0.2004
32331W        W33195  20.683   4.136  10.647 -0.1565 -0.0930 -0.2666
32332W        W33196  19.166   6.320   9.978  0.1236  0.0354 -0.1272
32333W        W33197  19.761   8.837   9.893 -0.2033 -0.2513 -0.1616
32334W        W33198  20.616   3.606   9.909 -0.0478  0.1599 -0.3885
32335W        W33199  18.457   1.831  11.071 -0.0279 -0.1483  0.1487
32336W        W33200  18.793   5.123   9.287  0.1365  0.4101 -0.1444
32337W        W33201  22.643   5.896   9.512 -0.2363 -0.1114  0.0118
32338W        W33202  16.496   5.046  10.274 -0.1362  0.1676 -0.2077
32339W        W33203  18.359   6.162   5.726 -0.0238  0.0849 -0.0471
32340W        W33204  20.848   5.262   9.049 -0.0001 -0.2585 -0.2260
32341W        W33205  20.554   4.569  10.072  0.0771  0.1789  0.0338
32342W        W33206  20.711   9.125  10.191 -0.1455 -0.0451 -0.0405
32343W        W33207  21.193   6.458   9.785  0.1552 -0.3832 -0.1064
32344W        W33208  15.636   8.138   9.380 -0.0710  0.2716 -0.0506
32345W        W33209  19.494   7.059  10.159  0.2565 -0.0919  0.0269
32346W        W33210  20.246   3.827  11.381  0.3622  0.0040 -0.0272
32347W        W33211  21.493   4.149   7.989  0.1101  0.2200  0.0817
32348W        W33212  20.954   4.960   7.537 -0.2356  0.1197  0.1460
32349W        W33213  20.173   5.178   9.010 -0.2780  0.1697 -0.0097
32350W        W33214  21.151   7.530   8.564  0.1919 -0.0096 -0.4828
32351W        W33215  19.684   4.550   7.739  0.1163 -0.0155 -0.0027
32352W        W33216  18.861   7.522  10.821  0.0212  0.2455 -0.1452
32353W        W33217  20.645   2.392  10.694  0.4156 -0.1688  0.0252
32354W        W33218  20.991   4.452  10.342  0.2450 -0.1728  0.0301
32355W        W33219  18.732   5.442  10.317  0.0358  0.4675  0.5009
32356W        W33220  18.512   5.109   5.793  0.0915 -0.0368  0.0554
32357W        W33221  16.918   5.451   9.119 -0.0465 -0.1802 -0.0090
32358W        W33222  18.230   6.966   7.605  0.1773 -0.0821 -0.1016
32359W        W33223  19.610   6.252   5.832  0.1965 -0.3197  0.0656
32360W        W33224  18.424   4.981   7.584  0.1844  0.0587 -0.1464
32361W        W33225  18.103   8.264   9.649  0.0741 -0.4443 -0.1446
32362W        W33226  19.301   6.282   6.233 -0.3577  0.3762  0.3282
32363W        W33227  21.054   4.283   7.025 -0.4310 -0.0122 -0.0300
32364W        W33228  18.661   8.177   8.810  0.3375 -0.0165  0.2353
32365W        W33229  20.369   4.268   9.455  0.0716 -0.3379 -0.0689
32366W        W33230  20.768   1.428   8.441  0.0933 -0.0605 -0.1090
32367W        W33231  20.099   6.393   6.703  0.0513  0.1756  0.0718
32368W        W33232  18.538   3.870   5.721  0.0769  0.1803  0.1203
32369W        W33233  20.540   4.574   5.571  0.0757  0.1068  0.0119
32370W        W33234  20.367   3.006   6.690  0.0067 -0.1755  0.5304
32371W        W33235  18.989   7.616   6.792 -0.0642 -0.0921  0.1364
32372W        W33236  16.374   6.226   8.146 -0.0771  0.1657  0.1538
32373W        W33237  19.166   3.659   6.846 -0.0157  0.1741 -0.0623
32374W        W33238  19.563   6.299   7.934  0.1982  0.2529 -0.1566
32375W        W33239  22.780   8.097  10.161 -0.0334  0.2166  0.1370
32376W        W33240  20.646   4.141   6.760 -0.0488 -0.1451 -0.4660
32377W        W33241  18.338   6.803   8.088  0.0828  0.2284  0.3526
32378W        W33242  18.956   7.589   7.594  0.0400 -0.1066 -0.0918
32379W        W33243  20.791   6.709   9.966  0.2367  0.1551 -0.3801
32380W        W33244  21.156   3.696  10.838  0.3004 -0.0914  0.2205
32381W        W33245  19.762   5.141   8.094  0.1519 -0.2578  0.1471
32382W        W33246  22.118   4.562   3.910 -0.0472 -0.1805 -0.1081
32383W        W33247  20.941   6.067  10.098 -0.0965  0.2330  0.4520
32384W        W33248  21.566   6.035   9.284  0.2245 -0.0477  0.1668
32385W        W33249  18.790   4.708   8.344  0.0589  0.3508  0.2083
32386W        W33250  18.109   3.478   6.965 -0.0314 -0.2264 -0.0977
32387W        W33251  16.081   8.897   8.794 -0.2280 -0.0542  0.1777
32388W        W33252  19.066   3.236   6.606  0.1625 -0.0194  0.2228
32389W        W33253  20.106   2.269  10.848 -0.0074  0.0357 -0.2881
32390W        W33254  20.378   7.149   9.986  0.1914 -0.1109  0.0074
32391W        W33255  22.543   7.664   9.542  0.1799  0.2900  0.1285
32392W        W33256  18.277   5.341  10.012 -0.0216  0.1756  0.1349
32393W        W33257  19.535   5.840  13.830 -0.2352  0.1874 -0.0840
32394W        W33258  18.908   4.893   6.958  0.0044  0.3567  0.1802
32395W        W33259  18.215   5.813   6.052 -0.0798 -0.3392 -0.0574
32396W        W33260  18.003   6.536  11.089 -0.1616  0.2355 -0.2141
32397W        W33261  20.053   5.719   9.869  0.3953 -0.1877  0.0811
32398W        W33262  16.979   4.849   6.952  0.1582  0.0533  0.0216
32399W        W33263  21.992   6.604   6.524 -0.0509  0.0423 -0.0395
32400W        W33264  19.489   5.138  13.653  0.2724  0.2533  0.1203
32401W        W33265  20.202   6.017   8.523 -0.1850  0.2030 -0.0564
32402W        W33266  19.648   5.267   5.299 -0.1360 -0.1360  0.3828
32403W        W33267  18.830   6.962   8.288 -0.1637  0.1675 -0.0567
32404W        W33268  21.938   3.603  10.501 -0.1033  0.0242 -0.2238
32405W        W33269  20.232   7.883   8.100  0.1595  0.0955  0.3788
32406W        W33270  19.978   3.730   6.872  0.0929 -0.2277  0.0321
32407W        W33271  17.515   6.009   6.993 -0.1726 -0.0951  0.1817
32408W        W33272  21.359   5.112  11.695  0.1589 -0.3867 -0.2806
32409W        W33273  20.430   5.512   5.803  0.2681  0.0817  0.1081
32410W        W33274  20.314   2.889  12.454  0.0023  0.2828  0.1032
32411W        W33275  21.395   5.219   9.312 -0.0684  0.1593 -0.0141
32412W        W33276  21.270   5.889   9.712  0.3580  0.0725 -0.0253
32413W        W33277  18.654   5.416  11.760  0.3412 -0.1643 -0.0881
32414W        W33278  19.724   6.023   8.328 -0.0673  0.3206 -0.0193
32415W        W33279  21.040   5.709   7.349 -0.1284  0.0746  0.2047
32416W        W33280  20.095   6.191   8.012  0.1944  0.1139 -0.1287
32417W        W33281  18.928   4.969  10.308 -0.1434  0.0540  0.3117
32418W        W33282  20.533   5.774   9.939 -0.0459  0.0608  0.0239
32419W        W33283  22.097   4.080   6.875  0.0896  0.3329  0.0025
32420W        W33284  17.607   5.124   8.202  0.3516 -0.1108 -0.1339
32421W        W33285  20.154   5.970   6.373 -0.2405  0.2045  0.2127
32422W        W33286  18.309   6.670  11.513 -0.1331 -0.2173 -0.1307
32423W        W33287  21.292   5.401  10.326  0.1226 -0.0696 -0.0762
32424W        W33288  17.566   5.283   5.721  0.0591 -0.3367  0.1811
32425W        W33289  18.290   2.029   8.500 -0.0914 -0.0148 -0.1620
32426W        W33290  21.299   7.050   9.773 -0.2461  0.1617  0.3806
32427W        W33291  18.347   5.100   5.327  0.0201 -0.0794  0.4541
32428W        W33292  19.480   4.257  12.142 -0.0346  0.0644  0.0234
32429W        W33293  20.244   3.171   5.922  0.1907 -0.0794  0.1830
32430W        W33294  21.491   3.629   9.710 -0.4340  0.3043  0.1389
32431W        W33295  18.891   5.568  11.252 -0.2082  0.1068  0.0183
32432W        W33296  20.383   8.016   8.627 -0.2289 -0.0558  0.2196
32433W        W33297  20.915   1.684   6.771 -0.0740  0.0249 -0.2323
32434W        W33298  16.685   7.241   9.369  0.1619  0.1899  0.1811
32435W        W33299  20.828   3.631  12.153 -0.0984  0.1097  0.0870
32436W        W33300  18.766   2.949  10.972  0.2494  0.0187 -0.0391
32437W        W33301  19.728   7.574   9.384 -0.0454 -0.1530 -0.0156
32438W        W33302  19.970   5.717   5.870 -0.2433  0.0403  0.1760
32439W        W33303  21.927   3.477   8.069  0.0021 -0.0065 -0.0643
32440W        W33304  18.985   6.282   6.614 -0.0736  0.0746 -0.1276
32441W        W33305  19.574   1.400   6.926 -0.0245  0.0067 -0.0618
32442W        W33306  18.570   8.054   9.610  0.2463  0.0316 -0.0196
32443W        W33307  19.031   5.749  10.778  0.6358  0.3413 -0.0082
32444W        W33308  18.421   8.040   6.878 -0.0314  0.0493  0.1800
32445W        W33309  20.304   5.936   9.499  0.2547  0.0242  0.0526
32446W        W33310  20.293   5.547   6.718 -0.2252 -0.0109 -0.1052
32447W        W33311  21.205   2.553   4.968 -0.1952 -0.2107 -0.0627
32448W        W33312  16.540   8.229   5.471  0.1756 -0.2019 -0.0721
32449W        W33313  22.712   3.785  10.010  0.1093 -0.0666  0.1904
32450W        W33314  20.895   5.189   6.647  0.1341 -0.1281  0.2738
32451W        W33315  19.969   5.266  10.013  0.1245  0.2062 -0.1094
32452W        W33316  20.287   7.693  10.668  0.2084 -0.1746  0.2061
32453W        W33317  21.370   1.648  10.805 -0.1148  0.1807  0.1202
32454W        W33318  18.798   8.311   8.054 -0.3026  0.1035  0.0057
32455W        W33319  22.410   7.194  10.003 -0.2269 -0.1900  0.0351
32456W        W33320  18.653   2.066  12.143 -0.2403 -0.2263  0.3077
32457W        W33321  20.306   6.002  11.386  0.2301  0.0014 -0.1367
32458W        W33322  21.085   5.648   8.177 -0.0583 -0.0302  0.0178
32459W        W33323  18.300   6.426   8.407 -0.1509 -0.0441  0.2714
32460W        W33324  17.350   3.523   9.027  0.0800  0.1575  0.2283
32461W        W33325  21.905   4.058   8.842 -0.0182  0.1447  0.1347
32462W        W33326  22.197   7.534  10.726 -0.2057  0.0123 -0.0988
32463W        W33327  20.720   5.451   8.559 -0.1266  0.1719  0.0492
32464W        W33328  21.360   7.301   8.952  0.0188 -0.2164 -0.3478
32465W        W33329  17.517   6.432  11.031  0.1103 -0.1329  0.3657
32466W        W33330  18.557   3.832  11.834 -0.2783 -0.0519  0.0536
32467W        W33331  20.038   6.185   9.085  0.0200 -0.1430 -0.1089
32468W        W33332  20.290   7.685  11.843 -0.0329 -0.1266  0.0415
32469W        W33333  18.180   6.023   8.973  0.1128 -0.0188  0.1248
32470W        W33334  19.402   7.172   6.868 -0.0757  0.0087 -0.0795
32471W        W33335  20.030   6.139  12.291  0.1869  0.0235 -0.6202
32472W        W33336  16.666   6.208  10.196 -0.1843  0.1335 -0.1233
32473W        W33337  18.561   7.641   9.106  0.2685 -0.1906 -0.3116
32474W        W33338  21.992   6.247   8.748 -0.0583 -0.0172  0.2418
32475W        W33339  21.560   6.729  10.027 -0.2033 -0.3138  0.2483
32476W        W33340  18.323   7.110   7.137 -0.3332 -0.0334 -0.0417
32477W        W33341  19.310   4.881   7.804 -0.0555 -0.2797 -0.0730
32478W        W33342  17.270   6.527  12.184 -0.1344  0.0777  0.1159
32479W        W33343  20.122   7.161  13.521 -0.0252 -0.0073 -0.3214
32480W        W33344  24.253   6.880  10.871 -0.3283  0.4263  0.2828
32481W        W33345  21.491   5.797  14.975  0.1424 -0.2584 -0.0542
32482W        W33346  19.092  10.792   9.163 -0.0335 -0.2338 -0.2559
32483W        W33347  20.843   3.678  13.518 -0.1145  0.1067  0.1967
32484W        W33348  19.368   4.306  14.017  0.3035  0.0487  0.3437
32485W        W33349  21.682   5.621   9.555  0.2919  0.0580  0.0435
32486W        W33350  21.989   6.603  13.716 -0.2377  0.3575  0.2427
32487W        W33351  19.304   7.793  12.423 -0.2700  0.0100 -0.0908
32488W        W33352  19.736   4.106  15.293 -0.1945 -0.1120 -0.1267
32489W        W33353  20.909   3.954  12.596  0.1871 -0.0707  0.3309
32490W        W33354  21.672   4.880  13.481  0.0340  0.1059  0.0773
32491W        W33355  20.602   4.032  13.847  0.1073  0.2034  0.3565
32492W        W33356  16.889   3.864  13.921 -0.1048 -0.1566 -0.3254
32493W        W33357  17.359   5.056  14.580  0.2832 -0.1334 -0.0352
32494W        W33358  20.734   6.235  11.013 -0.0553 -0.1744  0.1581
32495W        W33359  16.401   4.822  14.930  0.1061 -0.0544 -0.1899
32496W        W33360  19.710   2.202  13.856  0.0576 -0.1640  0.1247
32497W        W33361  21.676   5.536  11.601  0.1022  0.1963  0.0303
32498W        W33362  23.195   5.233  13.717  0.0890 -0.0527 -0.1162
32499W        W33363  21.786   8.337  13.450 -0.0145  0.0870  0.1760
32500W        W33364  19.785   5.896  12.672  0.1330  0.1815  0.2696
32501W        W33365  22.456   2.715  11.492  0.2157  0.1272  0.0789
32502W        W33366  20.425   8.239  13.551  0.1094  0.1169 -0.0359
32503W        W33367  21.884   4.186  12.708  0.2984  0.1418  0.2409
32504W        W33368  22.144   5.622  12.901 -0.0850 -0.4229 -0.3494
32505W        W33369  20.026   8.369  10.700  0.2369 -0.0016 -0.1013
32506W        W33370  20.480   7.880  14.505  0.0177  0.0210  0.2700
32507W        W33371  19.258   3.590  14.148  0.0887  0.2184  0.1562
32508W        W33372  19.845   7.544  13.367  0.1924 -0.1625  0.0281
32509W        W33373  22.835   5.597  13.548 -0.2373  0.0070 -0.3284
32510W        W33374  20.232   4.102  15.107 -0.1726  0.0431 -0.2964
32511W        W33375  20.467   6.511  15.449 -0.0235 -0.2861 -0.3043
32512W        W33376  18.064   4.854  15.564  0.0144 -0.0693  0.0815
32513W        W33377  25.330   6.141  14.975 -0.2804 -0.4828 -0.0467
32514W        W33378  17.136   3.230  11.027 -0.1453  0.1778 -0.0874
32515W        W33379  19.568   5.501  14.882 -0.1380  0.0964  0.2816
32516W        W33380  19.588   6.741  12.757 -0.2148 -0.0499  0.0575
32517W        W33381  20.132   4.377  11.994  0.2296  0.0961  0.3343
32518W        W33382  18.381   3.107  11.183  0.1824 -0.0819  0.0732
32519W        W33383  23.951   3.883  11.015  0.2063  0.1926 -0.1090
32520W        W33384  20.308   8.527  11.219 -0.1529  0.0098  0.0123
32521W        W33385  24.883   6.988  13.325 -0.0017  0.1044 -0.1153
32522W        W33386  16.698   8.593  11.891  0.3025 -0.1409  0.0130
32523W        W33387  18.012   8.482  13.271  0.1175 -0.3227  0.0106
32524W        W33388  21.893   3.000  14.182  0.0203  0.0717 -0.1101
32525W        W33389  23.261   4.496  10.814  0.0252  0.0126 -0.1406
32526W        W33390  20.867   3.892  13.055  0.1015 -0.0256  0.0314
32527W        W33391  22.208   4.732  12.702  0.1331  0.3839  0.3358
32528W        W33392  19.578   6.346  16.781 -0.1443  0.1481  0.2947
32529W        W33393  22.356   1.110  12.556 -0.0528 -0.0216 -0.1881
32530W        W33394  20.302   8.157  10.037  0.0872  0.0411 -0.1335
32531W        W33395  23.292   3.970  12.315  0.1340 -0.1627  0.0836
32532W        W33396  18.545   2.351   8.798 -0.2087  0.1159  0.2781
32533W        W33397  18.427   7.868  10.063 -0.4042  0.3323  0.0234
32534W        W33398  19.447   3.771  12.064 -0.0156  0.0966  0.4420
32535W        W33399  20.980   2.331  12.888 -0.2695  0.1329  0.0078
32536W        W33400  19.887   7.430  10.450 -0.1061  0.1970  0.1347
32537W        W33401  20.881   4.148  11.588  0.0296 -0.0950 -0.1092
32538W        W33402  21.168   4.735   9.307 -0.0608  0.4567  0.1988
32539W        W33403  20.758   8.467  11.511  0.0130  0.2580 -0.2507
32540W        W33404  20.619   6.312  17.824  0.1143 -0.1825  0.1360
32541W        W33405  21.864   6.049  12.867 -0.2310  0.0634  0.2361
32542W        W33406  18.910   4.204  11.444 -0.1019 -0.4462 -0.4423
32543W        W33407  25.371   2.121  12.787  0.3082 -0.2284  0.0279
32544W        W33408  18.837   4.707   7.728 -0.1618  0.0112  0.0241
32545W        W33409  19.408   4.952  10.333 -0.0264 -0.0001 -0.1633
32546W        W33410  17.737   7.275  12.297 -0.0296 -0.0632 -0.4739
32547W        W33411  20.718   5.615  10.528  0.1643 -0.4204 -0.0673
32548W        W33412  21.373   7.926  14.685 -0.3361 -0.2283 -0.1831
32549W        W33413  21.535   1.839   8.957 -0.0296  0.2177  0.0047
32550W        W33414  22.055   9.848  12.392 -0.0967  0.1749  0.1391
32551W        W33415  21.950   4.299  14.516  0.1151 -0.0642 -0.0697
32552W        W33416  24.773   6.958  12.121 -0.1826  0.0209  0.0093
32553W        W33417  21.312   6.951  15.807  0.2116  0.2104  0.0493
32554W        W33418  18.762   4.688  11.323  0.2065  0.4632  0.2770
32555W        W33419  19.535   5.817  14.313 -0.4547  0.2420 -0.0367
32556W        W33420  18.038   2.277  10.967 -0.1753  0.2064  0.1864
32557W        W33421  20.557   5.006  13.985 -0.3625  0.1259 -0.0962
32558W        W33422  18.693   5.629  14.855  0.1830  0.0599  0.0970
32559W        W33423  17.260   0.402  13.352  0.2203  0.2013 -0.1505
32560W        W33424  19.309   3.578  12.591 -0.2971 -0.0041  0.1585
32561W        W33425  19.803   5.299  13.094  0.3931 -0.2177 -0.2555
32562W        W33426  20.196   1.816  14.519 -0.2910 -0.2011  0.0319
32563W        W33427  20.753   2.811  10.292 -0.0976  0.0213  0.0991
32564W        W33428  22.598   5.661  13.035 -0.0891  0.0501  0.2896
32565W        W33429  20.906   4.388  13.487 -0.3482  0.0213 -0.0984
32566W        W33430  24.643   6.091  14.153 -0.2733  0.1676 -0.0713
32567W        W33431  21.638   3.043  13.768  0.3673 -0.3121  0.0309
32568W        W33432  22.247   4.591   9.611 -0.0647 -0.0375  0.0360
32569W        W33433  20.511   3.558  13.202 -0.0907  0.0132  0.0808
32570W        W33434  21.053   6.402  11.691  0.0470  0.1318 -0.0785
32571W        W33435  20.117   4.495  12.475 -0.2098 -0.0189  0.1973
32572W        W33436  15.887   3.485  14.740 -0.3066 -0.2333 -0.0330
32573W        W33437  19.423   2.903   8.540 -0.3483  0.3622  0.2236
32574W        W33438  20.201   3.249   9.026  0.1432 -0.2807  0.0951
32575W        W33439  20.012   7.435  16.695 -0.5112  0.1402 -0.1850
32576W        W33440  20.765   3.097  10.806 -0.1779 -0.2087 -0.1134
32577W        W33441  24.261   3.514  11.076 -0.0482  0.0526 -0.0942
32578W        W33442  20.465   4.578  12.834  0.3459  0.4008 -0.1454
32579W        W33443  21.314   5.777  14.140 -0.2991  0.2435  0.4148
32580W        W33444  21.202   3.855   9.257 -0.0119  0.1099 -0.0517
32581W        W33445  21.550   3.319  12.116 -0.0227 -0.1254  0.0223
32582W        W33446  21.526   4.106  12.251 -0.1704  0.3814  0.0037
32583W        W33447  19.558   4.105  13.323  0.0654  0.1343 -0.1554
32584W        W33448  21.607   5.952  10.585  0.0289 -0.0713  0.0374
32585W        W33449  22.056   4.168  16.660 -0.1237  0.0826 -0.0012
32586W        W33450  18.970   3.598  11.579  0.0643  0.2402 -0.0739
32587W        W33451  20.892   2.365  13.552 -0.2393 -0.1015  0.2582
32588W        W33452  17.511   6.911  14.738  0.1062  0.0447 -0.0196
32589W        W33453  20.691   7.736  12.226 -0.0915  0.1120  0.1633
32590W        W33454  17.081   3.039  11.539 -0.0735  0.0523 -0.4296
32591W        W33455  19.392   4.958  14.591 -0.2972  0.1731  0.0666
32592W        W33456  21.655   4.046  10.395 -0.4520 -0.0113 -0.1487
32593W        W33457  19.385   2.899   9.947  0.1662 -0.2284 -0.1244
32594W        W33458  22.441   1.060  13.824 -0.1908 -0.1811  0.0565
32595W        W33459  18.558   6.898  13.992  0.1012 -0.0399  0.3306
32596W        W33460  17.283   4.323  16.926 -0.3911  0.1346  0.2958
32597W        W33461  19.805   2.548  11.660  0.0096  0.0921  0.1097
32598W        W33462  19.487   4.282  11.115 -0.0156  0.1096  0.0574
32599W        W33463  21.438   6.447  12.855  0.1679 -0.0018 -0.1897
32600W        W33464  19.770   7.529  11.779 -0.1484  0.2177 -0.0889
32601W        W33465  19.293   8.458  12.282  0.0635 -0.5060 -0.1720
32602W        W33466  20.123   5.861  13.200  0.1754  0.2689 -0.3018
32603W        W33467  21.297   4.846  12.699  0.1228  0.1344  0.0588
32604W        W33468  21.381   2.596  12.720 -0.1453  0.0154  0.1232
32605W        W33469  19.876   5.343  14.478  0.0208 -0.0883  0.1881
32606W        W33470  21.639   5.757  12.104  0.1312  0.0705 -0.1116
32607W        W33471  21.509   8.861  11.020  0.1434 -0.1720 -0.0745
32608W        W33472  21.807   3.761  11.561  0.0534  0.1013 -0.1886
32609W        W33473  20.019   2.966  11.509  0.1262  0.1185  0.0168
32610W        W33474  23.389   4.382  12.598 -0.1378  0.0013 -0.4156
32611W        W33475  22.437   6.759  11.047  0.0801 -0.2196  0.0939
32612W        W33476  21.389   2.883  15.288 -0.0471 -0.0537 -0.0138
32613W        W33477  18.311   5.281  15.110 -0.2374 -0.2608 -0.1836
32614W        W33478  20.946   1.056  10.234 -0.3093 -0.3447 -0.5377
32615W        W33479  19.926   5.624  12.242 -0.0407  0.1437 -0.1118
32616W        W33480  19.108   6.065  11.173  0.1158 -0.2209 -0.3863
32617W        W33481  20.599   7.252  13.751 -0.1294 -0.1851  0.0404
32618W        W33482  19.474   5.866  12.110 -0.1313 -0.0164 -0.1703
32619W        W33483  21.697   3.163  11.607 -0.4340  0.2007 -0.0780
32620W        W33484  18.240   8.677  11.699 -0.2592 -0.1133  0.1449
32621W        W33485  21.516   3.339   9.299  0.0604 -0.0677  0.0396
32622W        W33486  19.168   4.339  13.401 -0.0780  0.1014 -0.1156
32623W        W33487  19.786   3.853  11.091  0.1423  0.1254 -0.0234
32624W        W33488  22.168   3.169  10.488  0.3354 -0.0757  0.3780
32625W        W33489  21.716   5.274  12.097  0.0330  0.0171 -0.0122
32626W        W33490  20.454   6.815  16.074  0.0594 -0.1498  0.2286
32627W        W33491  20.397   6.778  13.591  0.1365  0.3281  0.1068
32628W        W33492  20.660   5.969  12.970  0.1155  0.0661 -0.1495
32629W        W33493  18.062   4.037  10.516 -0.1862  0.1044  0.0983
32630W        W33494  20.806   7.926  13.497  0.1165 -0.0206 -0.0514
32631W        W33495  20.405   5.376  13.681  0.1718  0.1678 -0.1177
32632W        W33496  17.157   3.824  15.375  0.2858  0.7321  0.2218
32633W        W33497  20.976   4.904  13.664  0.0157 -0.1496 -0.0679
32634W        W33498  20.125   7.551  11.383 -0.0665  0.3282 -0.2940
32635W        W33499  21.505   3.241  12.798 -0.2160 -0.1933 -0.0005
32636W        W33500  20.443   6.154  11.871 -0.1539 -0.1781 -0.2394
32637W        W33501  21.422   6.382  11.387  0.3404  0.1533 -0.2947
32638W        W33502  19.331   4.956  12.533  0.0902 -0.0478 -0.2184
32639W        W33503  20.805   2.951  14.889  0.1096 -0.0536 -0.2186
32640W        W33504  19.338   4.275  14.626 -0.0526  0.0679 -0.1669
32641W        W33505  21.504   6.716  11.706 -0.1111  0.0256 -0.0361
32642W        W33506  22.297   1.571  13.036 -0.2259 -0.0225 -0.0800
32643W        W33507  16.937   3.523  11.586 -0.0038  0.3513  0.1085
32644W        W33508  19.832   5.061  12.535  0.0103  0.1387 -0.1005
32645W        W33509  16.824   9.040  12.138 -0.1290  0.0913 -0.0331
32646W        W33510  20.032   3.528  15.289 -0.0550  0.0580 -0.0825
32647W        W33511  19.486   8.016   9.441 -0.1934 -0.2305 -0.1454
32648W        W33512  20.975   2.919  14.389  0.1727  0.4742  0.0476
32649W        W33513  21.188   3.196  11.868  0.0644  0.0883 -0.2262
32650W        W33514  20.539   7.098  12.888 -0.1605  0.0230  0.0314
32651W        W33515  20.937   5.023  11.944  0.2571 -0.0395  0.0347
32652W        W33516  19.926   3.453  11.315 -0.1968 -0.2444  0.1587
32653W        W33517  22.060   5.799  12.412 -0.1697  0.0085 -0.2699
32654W        W33518  15.359   6.780  13.635  0.3276  0.0461 -0.1338
32655W        W33519  19.846   8.020  13.685  0.0744 -0.1023  0.0103
32656W        W33520  17.837  10.237  10.312 -0.1563 -0.3211  0.0158
32657W        W33521  18.021   4.151  12.506 -0.0724 -0.0668 -0.2192
32658W        W33522  22.881   4.362  12.730  0.1322 -0.1990  0.3598
32659W        W33523  21.563   9.209   9.937 -0.2968  0.3532 -0.1824
32660W        W33524  19.986   6.011  10.591  0.0549  0.0629  0.3687
32661W        W33525  20.787   2.085   9.295 -0.4246  0.2159  0.0446
32662W        W33526  19.022   3.783  10.790 -0.3709  0.1086  0.0828
32663W        W33527  20.965   4.032  14.397  0.2720 -0.3007  0.1523
32664W        W33528  20.553   2.102   9.745  0.2387  0.1967  0.0860
32665W        W33529  18.054   3.997  11.041  0.3744 -0.0089 -0.0514
32666W        W33530  20.315   5.045  15.676  0.0080 -0.0345  0.0494
32667W        W33531  22.285   5.254  14.229  0.1652  0.3138  0.2312
32668W        W33532  18.866   6.266  10.781 -0.0714  0.1046  0.0684
32669W        W33533  19.783   6.152  10.144 -0.3404  0.0465  0.2113
32670W        W33534  18.314   5.455  16.180  0.2208 -0.0259  0.0055
32671W        W33535  19.438   3.122  14.009  0.1856  0.0460 -0.0145
32672W        W33536  18.850   0.916  11.478 -0.1028  0.0383 -0.0223
32673W        W33537  20.599   7.735  11.473  0.3376 -0.0305  0.0272
32674W        W33538  20.527   5.081   9.359  0.1899 -0.1479 -0.1437
32675W        W33539  20.110   4.031  14.594  0.1377 -0.0358  0.1733
32676W        W33540  19.896   4.203  11.453 -0.0840 -0.2067  0.0508
32677W        W33541  22.438   2.306  13.538 -0.1741  0.0147 -0.0045
32678W        W33542  19.860   3.274  11.895  0.3553  0.0454  0.2135
32679W        W33543  20.763   2.682  13.177  0.2969 -0.1592 -0.2310
32680W        W33544  25.211   4.088  12.437  0.2751 -0.0277  0.0708
32681W        W33545  18.172   3.950  13.244 -0.0878  0.2073  0.1127
32682W        W33546  18.642   3.221  11.593  0.0836  0.1459  0.0032
32683W        W33547  18.420   5.480   9.143  0.4152 -0.1102 -0.1323
32684W        W33548  20.047   3.871  13.135  0.0048  0.2552  0.2459
32685W        W33549  19.536   8.128  14.190  0.0846  0.1079  0.3055
32686W        W33550  21.299   5.941  11.134 -0.0575 -0.1627  0.2777
32687W        W33551  18.528   5.196  11.298 -0.1987 -0.1291 -0.1490
32688W        W33552  16.480   3.456  14.369  0.0847 -0.2771 -0.2296
32689W        W33553  20.024   5.010  13.492 -0.1033  0.1358  0.3142
32690W        W33554  22.687   3.527  15.448  0.3331 -0.2966  0.1934
32691W        W33555  21.152   3.565  14.508  0.0536  0.4281 -0.2915
32692W        W33556  22.594   6.733  11.546 -0.1771  0.0888 -0.0961
32693W        W33557  21.920   8.597  10.986  0.2384 -0.1534  0.0872
32694W        W33558  22.483   4.450  12.156 -0.1313  0.0321 -0.1337
32695W        W33559  19.823   2.663  15.662 -0.2867 -0.0993 -0.2049
32696W        W33560  20.067   6.628  15.890  0.0154 -0.0497  0.0587
32697W        W33561  22.759   3.614  14.515 -0.0782 -0.1527  0.1982
32698W        W33562  17.932   4.345  13.008  0.0957 -0.3070 -0.0391
32699W        W33563  21.944   6.614  18.555 -0.1320  0.1711 -0.1664
32700W        W33564  21.511   4.434  10.127 -0.1128  0.1181 -0.3187
32701W        W33565  21.490   3.326  10.906  0.0311 -0.1603 -0.0422
32702W        W33566  20.910   3.159  15.400  0.0100  0.2695  0.1012
32703W        W33567  18.983   5.221  15.769  0.1155 -0.0977  0.3067
32704W        W33568  20.633   4.336  12.405  0.0439 -0.2270  0.0002
32705W        W33569  20.188   6.368  10.880 -0.0411 -0.2534  0.1520
32706W        W33570  20.626   3.076  11.481 -0.0430 -0.0522 -0.1110
32707W        W33571  20.461   3.234  14.270 -0.2929 -0.1532 -0.1018
32708W        W33572  20.194   5.649  14.159  0.1190  0.0198  0.2320
32709W        W33573  21.500   4.640  12.038  0.0483  0.1024  0.1353
32710W        W33574  21.401   5.619   8.953 -0.1978  0.1741  0.1854
32711W        W33575  19.079   5.266  14.944 -0.1082  0.0732  0.1807
32712W        W33576  20.371   6.254  13.341 -0.0365  0.3434 -0.0267
32713W        W33577  23.869   4.845  12.072  0.0023 -0.1419  0.1879
32714W        W33578  21.829   1.766  12.808  0.0273 -0.4253 -0.1258
32715W        W33579  22.795   6.142  12.670 -0.2348  0.1730  0.0143
32716W        W33580  20.574   8.031  13.940 -0.1734  0.0254  0.0770
32717W        W33581  21.391   7.799   9.234  0.1150  0.2498 -0.0488
32718W        W33582  17.969   6.260  16.309  0.4141  0.1687 -0.0836
32719W        W33583  20.261   6.113  12.749  0.3932 -0.3671 -0.0326
32720W        W33584  21.142   4.862  11.336  0.2801  0.0477  0.0565
32721W        W33585  22.371   5.264  14.906 -0.3474 -0.2173 -0.0497
32722W        W33586  19.089   2.773  12.440  0.0366  0.1128 -0.1038
32723W        W33587  21.355   4.446  13.720  0.1456  0.1672 -0.1169
32724W        W33588  17.185   5.989  15.993  0.0700 -0.0324 -0.1569
32725W        W33589  21.116   4.581  12.372 -0.0782  0.0325  0.1713
32726W        W33590  20.335   8.613  11.764  0.1964 -0.0298 -0.1135
32727W        W33591  18.846   4.668   9.627  0.0882 -0.2573  0.0038
32728W        W33592  23.963  10.194  14.335  0.0041 -0.2916 -0.0536
32729W        W33593  21.115   6.940  11.842  0.1952  0.1122  0.0023
32730W        W33594  20.443   6.556  12.971  0.3261 -0.1345  0.1738
32731W        W33595  18.578   4.580   7.255  0.2115  0.4267  0.0769
32732W        W33596  22.825   6.341  14.262  0.1653  0.1807 -0.3709
32733W        W33597  22.365   3.281  10.965 -0.1255 -0.1201  0.1143
32734W        W33598  19.674   3.273  14.527  0.0578 -0.0493 -0.0711
32735W        W33599  21.532   6.857  11.180 -0.0258 -0.0702 -0.0902
32736W        W33600  20.056   6.626   9.895 -0.1566  0.0457 -0.3124
32737W        W33601  19.665   3.956  14.347 -0.0116 -0.3190 -0.1333
32738W        W33602  21.964   3.036  16.451  0.0105  0.0346 -0.3196
32739W        W33603  21.182   5.444  14.527  0.2558  0.0151  0.0292
32740W        W33604  22.217   2.039  14.002 -0.0617 -0.1333  0.0427
32741W        W33605  20.306   7.070  14.478  0.0650 -0.1391  0.1949
32742W        W33606  15.603   5.384  11.912 -0.0546 -0.0507 -0.0880
32743W        W33607  22.427   6.783   9.729 -0.1823  0.1843  0.0668
32744W        W33608  19.649   3.208  13.106 -0.1248 -0.3996 -0.0536
32745W        W33609  21.098   4.572  11.720 -0.2509 -0.0985 -0.1783
32746W        W33610  21.157   4.015  10.449 -0.2585  0.1348 -0.2986
32747W        W33611  20.175   7.214  11.853  0.0211 -0.2087  0.2742
32748W        W33612  20.757   3.143  13.357  0.0804  0.0061 -0.4044
32749W        W33613  20.751   3.672  15.126 -0.3104  0.1591 -0.1574
32750W        W33614  19.225   5.824  15.065  0.1761  0.1047  0.2355
32751W        W33615  20.687   7.422  14.676 -0.0170  0.1093  0.0929
32752W        W33616  22.076   5.725  14.151  0.0664 -0.0317  0.1371
32753W        W33617  18.173   2.481   9.693 -0.0025 -0.0826  0.0345
32754W        W33618  20.671   5.472  12.756 -0.0876 -0.0664  0.2852
32755W        W33619  22.721   3.299   9.756 -0.1543 -0.0833 -0.1795
32756W        W33620  20.579   6.320  12.383 -0.0038  0.1794  0.0895
32757W        W33621  20.466   4.056  12.832 -0.0181  0.1439 -0.0411
32758W        W33622  19.875   4.173  10.649  0.0145  0.0245  0.1935
32759W        W33623  21.147   5.357  12.807 -0.1999  0.0091 -0.0493
32760W        W33624  19.282   6.730  14.285  0.0554 -0.3428  0.2373
32761W        W33625  24.566   6.044  13.552 -0.0675  0.0896 -0.0853
32762W        W33626  22.474   4.327  14.650 -0.2601  0.0499  0.0900
32763W        W33627  22.758   5.406  11.373 -0.2695 -0.2701 -0.3904
32764W        W33628  18.543   3.165  12.072  0.0572  0.3239 -0.0380
32765W        W33629  22.008   5.061  10.900  0.1236  0.0206 -0.0010
32766W        W33630  23.398   5.877  13.466  0.0000 -0.1362  0.1302
32767W        W33631  20.447   5.765  12.313  0.1929 -0.0749 -0.0005
32768W        W33632  20.190   2.751  10.625 -0.0678  0.1153  0.2080
32769W        W33633  18.924   2.540  13.374  0.0255 -0.0353 -0.1556
32770W        W33634  20.400   4.833  12.202 -0.0830  0.2883 -0.1151
32771W        W33635  20.294   7.539  12.376 -0.0183 -0.3173  0.2021
32772W        W33636  21.172   2.195  12.437  0.2381 -0.0765 -0.1229
32773W        W33637  19.912   4.261  12.918 -0.0898 -0.1895  0.0505
32774W        W33638  22.160   5.557  11.992 -0.0163 -0.1783 -0.0014
32775W        W33639  19.679   2.335  12.884  0.0557  0.0903 -0.0916
32776W        W33640  18.867   8.039  12.300 -0.1295 -0.1553  0.1377
32777W        W33641  18.208   5.629  11.278  0.1880  0.0668  0.2923
32778W        W33642  16.825   3.925  13.063 -0.0542  0.0934 -0.1323
32779W        W33643  20.426   9.043  14.702 -0.0906  0.1282 -0.2016
32780W        W33644  25.450   4.512  12.459  0.2471  0.1255 -0.2242
32781W        W33645  19.366   7.133   9.577 -0.2033  0.2132 -0.0897
32782W        W33646  20.392   7.933  15.526 -0.1097  0.1892 -0.3922
32783W        W33647  23.291   4.938  13.339  0.1893  0.0778  0.3031
32784W        W33648  17.686   2.581  12.093 -0.2160  0.1506 -0.0995
32785W        W33649  21.331   4.322  14.253  0.1591  0.0336 -0.0796
32786W        W33650  19.221   8.807  10.863  0.3487 -0.1753 -0.0735
32787W        W33651  19.248   4.695  10.847  0.1039  0.0300 -0.0208
32788W        W33652  20.663   4.085  14.802 -0.0936  0.0656  0.2566
32789W        W33653  18.548   4.860  13.079  0.0786 -0.0329 -0.0258
32790W        W33654  20.117   4.535  13.295  0.0979 -0.0540 -0.1362
32791W        W33655  18.302   6.155  11.195 -0.4006  0.1637  0.1352
32792W        W33656  18.716   6.558  15.582 -0.2287  0.3598 -0.0666
32793W        W33657  21.935   3.847  14.178 -0.2120  0.1553 -0.0254
32794W        W33658  19.835   0.004  10.096 -0.2374  0.3070  0.1860
32795W        W33659  20.281   2.325  15.786 -0.1951 -0.1611 -0.0000
32796W        W33660  20.757   7.802  10.944  0.0497 -0.1322  0.0903
32797W        W33661  21.298   5.732  13.500 -0.0155  0.1619 -0.0129
32798W        W33662  21.482   4.930  10.318 -0.2984 -0.0503 -0.2105
32799W        W33663  19.207   2.989  13.315  0.1576 -0.0658  0.1214
32800W        W33664  22.001   7.002  10.893  0.0031  0.3145 -0.1062
32801W        W33665  18.149   3.485  10.297  0.0366  0.2780  0.0000
32802W        W33666  20.480   5.336  15.270 -0.1414  0.2488 -0.3553
32803W        W33667  19.895   2.670  14.632 -0.2255  0.1867 -0.0737
32804W        W33668  22.988   5.407  11.833  0.0049  0.0150  0.1345
32805W        W33669  24.549   5.650  10.391  0.0778 -0.0403  0.2350
32806W        W33670  18.499   3.863  10.234  0.1195 -0.1450 -0.0674
32807W        W33671  19.108   4.510  12.438 -0.1926 -0.0473  0.1345
32808W        W33672  22.054   1.728   9.914 -0.2388  0.0389 -0.0755
32809W        W33673  21.731   4.957  15.190  0.1487 -0.1305  0.2612
32810W        W33674  21.848   5.540  17.760  0.0094 -0.0403  0.2327
32811W        W33675  20.595   3.705  14.318  0.0281 -0.0907  0.1509
32812W        W33676  23.651   4.898  15.897 -0.2263 -0.1410  0.0170
32813W        W33677  19.408   8.633  13.340  0.2094  0.1366 -0.0176
32814W        W33678  21.238   3.737  11.842 -0.0441  0.1162 -0.3282
32815W        W33679  21.410   5.115  16.127  0.0269 -0.1708  0.0811
32816W        W33680  18.140   1.386   9.243 -0.1504  0.0769  0.1988
32817W        W33681  19.701   7.116  11.282  0.2232  0.0562  0.0093
32818W        W33682  18.982   4.016  12.073 -0.2148  0.1310  0.4115
32819W        W33683  20.989   4.131  12.122  0.3380  0.0541  0.0593
32820W        W33684  18.017   6.410   9.594 -0.0068  0.1349 -0.2373
32821W        W33685  19.757   7.909   9.976 -0.3814  0.1052  0.0645
32822W        W33686  16.818   7.664  14.517  0.2730  0.0415 -0.1630
32823W        W33687  20.346   5.415  13.207  0.0266 -0.0754 -0.2057
32824W        W33688  17.122   6.955  13.773  0.1391  0.5819  0.2540
32825W        W33689  21.521   3.652  14.915  0.1536 -0.1575 -0.5888
32826W        W33690  19.340   6.303  12.898  0.2361 -0.1186  0.0617
32827W        W33691  19.857   6.344  13.018 -0.3418  0.0630 -0.3258
32828W        W33692  18.092   4.343   9.980  0.1896 -0.0265 -0.2834
32829W        W33693  21.004   5.431  13.814  0.2292  0.2784 -0.0175
32830W        W33694  22.013   5.111  11.737  0.1624  0.2370 -0.1495
32831W        W33695  20.213   7.475   9.556  0.1400 -0.0393 -0.0829
32832W        W33696  18.688   0.198  11.299  0.0297 -0.4265  0.0362
32833W        W33697  19.132   6.996   9.151 -0.1936  0.2993  0.0830
32834W        W33698  19.078   3.863  15.519 -0.0586  0.1416  0.0912
32835W        W33699  19.840   4.415  14.387  0.1629  0.3028 -0.1894
32836W        W33700  19.959   4.818  10.784  0.1361  0.2054 -0.1334
32837W        W33701  20.231   3.765  10.865 -0.1036  0.1602  0.5113
32838W        W33702  20.147   4.633  15.850 -0.0170  0.1552 -0.0753
32839W        W33703  19.952   6.665  15.340  0.1279  0.0915  0.0225
32840W        W33704  20.237   2.466   8.577  0.0841  0.1242 -0.2376
32841W        W33705  21.027   6.581  13.669 -0.3212  0.2118  0.4333
32842W        W33706  20.097   6.887  13.113 -0.0723  0.2004  0.3098
32843W        W33707  22.481   8.774  12.584 -0.3651  0.1762 -0.3055
32844W        W33708  19.205   6.166  14.180 -0.2760 -0.1464 -0.2531
32845W        W33709  20.465   1.943  11.609  0.0611 -0.0154  0.0063
32846W        W33710  22.237   2.280   9.350  0.3584 -0.2175  0.0761
32847W        W33711  21.911   4.594  10.519  0.1007 -0.0496 -0.1412
32848W        W33712  20.329   4.008   9.871  0.0084  0.1225  0.0496
32849W        W33713  20.672   7.260  12.059  0.2501 -0.2245 -0.2211
32850W        W33714  21.947   4.429  17.291 -0.0093 -0.4721 -0.1074
32851W        W33715  22.334   7.084  10.546  0.3023  0.4487  0.0566
32852W        W33716  17.199   4.792  15.241 -0.0654 -0.2974 -0.0675
32853W        W33717  18.179   6.841  15.190  0.1132  0.1254  0.0231
32854W        W33718  22.424   8.373  13.325  0.0807 -0.0789  0.0906
32855W        W33719  21.215   2.172  11.689  0.0456  0.2652 -0.2720
32856W        W33720  16.793   3.040  12.319 -0.3810 -0.0119  0.0118
32857W        W33721  22.986   5.641  12.679 -0.1739 -0.3154 -0.0036
32858W        W33722  19.660   5.937  11.680 -0.0153  0.0928  0.0647
32859W        W33723  19.546   6.330  15.147 -0.0785 -0.1437 -0.0583
32860W        W33724  20.772   4.962  12.501  0.1207  0.3649  0.0221
32861W        W33725  19.842   6.584  14.850 -0.0872 -0.2085  0.0384
32862W        W33726  18.180   3.599  14.204  0.1026 -0.0579  0.1050
32863W        W33727  21.714   6.964  13.445 -0.3593 -0.2100 -0.0875
32864W        W33728  18.394   6.389  12.038 -0.1175 -0.0810 -0.2719
32865W        W33729  19.051   5.952  14.587 -0.3649  0.0143  0.0924
32866W        W33730  20.935   5.603  13.188  0.0530  0.3369 -0.1830
32867W        W33731  21.038   5.326  15.352  0.1681  0.3350 -0.1467
32868W        W33732  17.527   8.062  11.499  0.3058  0.2237  0.0690
32869W        W33733  22.815   6.317  12.169  0.2491  0.1919  0.5456
32870W        W33734  20.748   5.400  14.300 -0.0557  0.0788 -0.0049
32871W        W33735  18.360   5.802  14.516 -0.1949  0.0283 -0.1724
32872W        W33736  21.637   3.368  13.382 -0.0380 -0.0028  0.1689
32873W        W33737  20.188   7.531   8.680 -0.2553  0.0120  0.0560
32874W        W33738  20.947   3.541  14.023  0.1280 -0.1443  0.1024
32875W        W33739  20.145   4.776  11.654 -0.0332 -0.0163 -0.1521
32876W        W33740  20.748   4.053  10.168 -0.0937  0.3906 -0.0220
32877W        W33741  19.886   8.121  18.810 -0.2186 -0.1907 -0.1588
32878W        W33742  18.146   7.708  18.957  0.2137 -0.0616  0.0160
32879W        W33743  22.081   2.749  15.568 -0.1075 -0.2273  0.0261
32880W        W33744  21.377   4.547  15.952 -0.0425 -0.1080  0.3031
32881W        W33745  17.140   6.889  16.353  0.3419 -0.0961  0.0480
32882W        W33746  16.636   4.800  15.959  0.1421  0.1345  0.1229
32883W        W33747  18.108   3.943  15.132  0.2588  0.1256  0.0661
32884W        W33748  20.957   5.024  15.771 -0.2240 -0.0021 -0.1880
32885W        W33749  19.633   7.123  16.468  0.5259 -0.1740 -0.0605
32886W        W33750  17.060   2.573  18.080 -0.1873  0.2737  0.0671
32887W        W33751  17.058   1.668  20.468  0.1288 -0.2186 -0.2915
32888W        W33752  22.172   4.344  15.157 -0.1532  0.2012 -0.0762
32889W        W33753  20.973   4.434  12.910  0.0991 -0.0983 -0.3908
32890W        W33754  19.145   4.471  18.250 -0.1927 -0.3089 -0.0312
32891W        W33755  18.401   3.934  16.786  0.0858 -0.1800 -0.1357
32892W        W33756  18.816   7.694  19.184 -0.1392  0.0467 -0.1796
32893W        W33757  18.837   5.665  18.134 -0.0954 -0.0546 -0.4076
32894W        W33758  16.970   5.713  15.602  0.3011  0.0361  0.2877
32895W        W33759  21.225   4.084  17.094 -0.0029 -0.3020  0.2488
32896W        W33760  21.534   4.052  19.219  0.1946  0.2978  0.0172
32897W        W33761  24.775   6.164  16.019  0.0954 -0.1651 -0.1754
32898W        W33762  20.333   2.269  16.920 -0.4082 -0.0615 -0.0090
32899W        W33763  20.843   5.253  16.721  0.1163 -0.0784 -0.0646
32900W        W33764  16.573   6.440  13.631 -0.0079 -0.0483 -0.0096
32901W        W33765  15.853   3.025  14.885  0.0291  0.3587  0.0179
32902W        W33766  21.619   5.962  16.532 -0.1394 -0.0151 -0.1706
32903W        W33767  20.496   6.927  18.697  0.0530  0.0741  0.2318
32904W        W33768  19.170   6.004  18.657  0.1245  0.1832  0.0303
32905W        W33769  19.793   5.187  19.191 -0.0271 -0.0880  0.3786
32906W        W33770  21.580   2.638  15.677  0.2854  0.1443  0.1889
32907W        W33771  18.533   5.240  17.120 -0.2007 -0.4174  0.0736
32908W        W33772  17.521   8.018  19.333  0.0065  0.2922  0.0387
32909W        W33773  21.454   5.943  17.918  0.2294  0.0214 -0.0471
32910W        W33774  21.411   4.469  20.166 -0.1628 -0.2616  0.1716
32911W        W33775  17.414   4.875  16.983 -0.0057 -0.1425  0.1029
32912W        W33776  21.087   6.341  18.661  0.1990  0.0383 -0.1644
32913W        W33777  20.417   3.218  15.865  0.0164 -0.4735  0.0672
32914W        W33778  16.921   6.465  16.351  0.1069  0.0046 -0.2758
32915W        W33779  23.593   5.811  16.634 -0.2617 -0.3548 -0.1311
32916W        W33780  18.775   3.806  12.696  0.0012  0.1902  0.0887
32917W        W33781  21.562   3.976  14.519 -0.1296  0.0596 -0.1066
32918W        W33782  22.374   4.677  17.482  0.1704 -0.0819  0.3315
32919W        W33783  18.117   4.521  17.530 -0.1537  0.0262  0.1891
32920W        W33784  19.582   8.051  14.988  0.2725  0.0388 -0.0319
32921W        W33785  21.205   5.795  15.390  0.0480 -0.0528 -0.0314
32922W        W33786  20.056   5.176  13.960 -0.2416  0.1104  0.0475
32923W        W33787  18.325   4.306  17.159 -0.0570  0.3086  0.0392
32924W        W33788  22.336   6.761  15.118  0.3008  0.1467 -0.0177
32925W        W33789  18.786   5.055  16.618 -0.1447 -0.0493 -0.0073
32926W        W33790  21.207   3.829  16.255 -0.2671 -0.1273 -0.2620
32927W        W33791  22.535   5.127  17.399 -0.1413  0.2842  0.0541
32928W        W33792  18.764   3.533  15.797  0.0546 -0.2639 -0.1190
32929W        W33793  18.610   7.662  18.160  0.0178 -0.3366  0.0503
32930W        W33794  20.860   6.208  15.329 -0.1418 -0.0749 -0.0159
32931W        W33795  20.379   3.601  13.736 -0.2130  0.2011  0.1904
32932W        W33796  18.635   5.653  15.790  0.0669 -0.0565  0.0415
32933W        W33797  17.150   3.314  15.561 -0.0049 -0.1112  0.1548
32934W        W33798  20.903   2.222  14.085  0.1885 -0.0486 -0.0105
32935W        W33799  18.604   6.618  18.050  0.2003  0.1981  0.1126
32936W        W33800  21.944   6.151  13.944  0.0045 -0.2059  0.0848
32937W        W33801  22.768   5.083  13.379  0.0045 -0.0734  0.2915
32938W        W33802  12.472   7.133  17.535 -0.0876 -0.3800  0.0583
32939W        W33803  18.574   6.534  15.098 -0.2474  0.2220 -0.1660
32940W        W33804  21.673   4.344  16.374 -0.0767 -0.4183  0.2278
32941W        W33805  16.241   2.794  15.680  0.1092  0.1060 -0.1399
32942W        W33806  18.145   1.748  14.174  0.1663  0.1781 -0.0877
32943W        W33807  18.300   7.590  14.648 -0.2865  0.0410 -0.1605
32944W        W33808  19.576   2.757  12.617  0.0933  0.0252 -0.0156
32945W        W33809  16.879   6.355  15.132 -0.0566 -0.1559 -0.1595
32946W        W33810  19.013   8.429  13.705  0.1665 -0.1763  0.0263
32947W        W33811  21.255   6.295  17.084 -0.2513 -0.1338 -0.1164
32948W        W33812  20.884   4.291  16.147  0.2664  0.0028 -0.0146
32949W        W33813  21.021   6.259  17.520  0.0852 -0.0313  0.2480
32950W        W33814  20.788   2.684  18.122  0.0631  0.1142  0.2400
32951W        W33815  22.349   3.893  17.981  0.2324 -0.1439 -0.0721
32952W        W33816  19.916   3.256  16.959 -0.4022 -0.0310 -0.3061
32953W        W33817  17.610   4.482  16.537 -0.0473  0.1051 -0.1102
32954W        W33818  18.030   3.949  17.529 -0.1970  0.0360 -0.0975
32955W        W33819  21.622   5.180  12.941  0.1667  0.1517  0.0770
32956W        W33820  20.035   5.276  14.926 -0.1142 -0.0225 -0.1794
32957W        W33821  17.816   1.809  18.451  0.1367 -0.0799 -0.2183
32958W        W33822  21.727   6.598  19.833 -0.2005  0.1443 -0.1203
32959W        W33823  18.375   0.376  14.829  0.1783 -0.0819 -0.2112
32960W        W33824  18.496   4.499  15.149  0.2067  0.0446  0.1334
32961W        W33825  21.026   4.358  17.521  0.0325 -0.1849  0.0120
32962W        W33826  22.035   3.604  15.317 -0.0281  0.2165  0.0121
32963W        W33827  24.927   6.541  15.720  0.1621 -0.0325 -0.1249
32964W        W33828  20.148   3.157  17.729 -0.0894  0.2028  0.1463
32965W        W33829  21.693   6.504  19.326 -0.0213  0.2777 -0.2447
32966W        W33830  21.069   5.072  18.248 -0.0439 -0.0549  0.0593
32967W        W33831  20.151   4.025  14.096 -0.0894 -0.3363  0.0244
32968W        W33832  21.734   3.090  21.770  0.0302  0.0056 -0.0167
32969W        W33833  19.760   9.105  17.603  0.0023 -0.0634  0.0401
32970W        W33834  19.527   3.645  16.001  0.3482 -0.1359  0.4351
32971W        W33835  18.512   5.155  19.224  0.0982  0.0463 -0.0764
32972W        W33836  21.551   6.569  12.247  0.1168 -0.1440 -0.0238
32973W        W33837  18.989   4.540  16.551 -0.1753  0.4779 -0.0721
32974W        W33838  17.296   5.460  17.638 -0.2777  0.1509  0.2520
32975W        W33839  16.983   4.302  15.051  0.0006  0.3699 -0.4112
32976W        W33840  20.019   2.748  19.115 -0.2988  0.0736 -0.0302
32977W        W33841  22.316   5.823  16.061  0.0941  0.1341 -0.3208
32978W        W33842  14.815   3.711  14.654  0.2556 -0.3995  0.1347
32979W        W33843  22.035   2.429  12.176 -0.0758  0.1930  0.0678
32980W        W33844  19.490   8.943  15.994  0.0651  0.3398  0.0831
32981W        W33845  22.451   4.228  19.992 -0.0958 -0.0091  0.0668
32982W        W33846  19.787   5.651  18.411 -0.0348  0.1786  0.0070
32983W        W33847  19.232   6.753  14.778 -0.1498 -0.2890  0.1599
32984W        W33848  18.918   6.158  18.056 -0.1062  0.2703 -0.0350
32985W        W33849  20.904   3.188  16.715 -0.1223 -0.0345 -0.0248
32986W        W33850  17.244   6.843  17.504 -0.1467  0.2087  0.1293
32987W        W33851  18.638   7.086  15.474 -0.1850  0.1373  0.0746
32988W        W33852  20.929   6.249  14.098  0.0018  0.0636  0.0881
32989W        W33853  22.114   4.917  18.269  0.2554  0.4007  0.0789
32990W        W33854  21.974   6.874  16.667 -0.0944 -0.2065 -0.0920
32991W        W33855  22.627   7.818  14.162 -0.2177  0.0207  0.0741
32992W        W33856  19.699   7.007  17.346 -0.0779  0.0269  0.1035
32993W        W33857  22.989   2.372  17.897  0.0098  0.1758 -0.0050
32994W        W33858  20.320   7.326  17.623 -0.3008 -0.1799  0.2491
32995W        W33859  20.058   6.489  16.408 -0.2030  0.3311 -0.1207
32996W        W33860  17.929   4.023  17.008  0.1258  0.1753  0.2729
32997W        W33861  23.629   2.946  15.504  0.3020 -0.1900  0.1017
32998W        W33862  18.259   5.781  15.353 -0.0512 -0.0071 -0.0617
32999W        W33863  21.937   7.030  15.402 -0.1430  0.2097  0.1875
33000W        W33864  22.276   5.035  15.872  0.1706 -0.0231 -0.1521
33001W        W33865  21.192   4.282  16.520  0.2186 -0.0974 -0.3130
33002W        W33866  20.700   4.415  16.623  0.1382 -0.1028 -0.0969
33003W        W33867  18.548   5.790  17.195  0.2032 -0.1916  0.1121
33004W        W33868  20.977   4.581  14.061 -0.0184  0.0918  0.0978
33005W        W33869  18.719   7.792  17.609  0.0370  0.0246  0.6159
33006W        W33870  18.319   6.099  16.857 -0.0268 -0.0323 -0.0994
33007W        W33871  19.587   6.474  15.631 -0.0267 -0.1799 -0.0831
33008W        W33872  20.621   4.706  16.001  0.0729  0.1703  0.2656
33009W        W33873  19.088   4.132  17.907  0.3299 -0.0485 -0.0094
33010W        W33874  18.950   1.794  17.297  0.3411  0.1030 -0.1817
33011W        W33875  20.781   4.554  17.159 -0.0581 -0.1873  0.1322
33012W        W33876  17.005   3.101  16.629  0.0354 -0.0163 -0.2599
33013W        W33877  19.304   1.894  14.632  0.1962 -0.0589 -0.0344
33014W        W33878  20.636   4.272  19.116 -0.1201  0.0056 -0.0203
33015W        W33879  20.477   5.422  14.776 -0.2676 -0.0977  0.3772
33016W        W33880  18.831   7.173  16.841  0.3859  0.0500 -0.0208
33017W        W33881  18.731   3.683  14.419  0.1850 -0.0511 -0.1562
33018W        W33882  17.856   4.779  17.902 -0.1002  0.0135 -0.2121
33019W        W33883  19.979   7.043  17.777 -0.1820 -0.0860  0.2877
33020W        W33884  20.248   4.168  17.026  0.3479 -0.1115  0.0538
33021W        W33885  20.082   5.728  17.465 -0.2250  0.4446 -0.0141
33022W        W33886  18.610   4.037  15.282 -0.0305  0.0370 -0.1625
33023W        W33887  22.973   2.438  15.288  0.2484 -0.2669  0.0583
33024W        W33888  21.165   6.726  17.405  0.2126  0.0631 -0.2137
33025W        W33889  19.529   4.930  15.059 -0.1430  0.1210  0.2615
33026W        W33890  20.718   5.469  15.749  0.3338  0.0372  0.1640
33027W        W33891  21.207   3.671  15.466 -0.1491  0.1141  0.1140
33028W        W33892  16.626   4.577  15.368 -0.0921  0.2919 -0.2712
33029W        W33893  22.314   7.071  19.356  0.0155  0.3491 -0.3052
33030W        W33894  17.656   4.621  15.644  0.3466  0.0095 -0.6257
33031W        W33895  19.851   4.476  17.149 -0.0253 -0.0749  0.2932
33032W        W33896  22.151   1.434  18.242  0.0949 -0.0085  0.0598
33033W        W33897  18.412   4.017  14.726 -0.2628 -0.1825 -0.1702
33034W        W33898  18.519   5.048  16.017  0.0414 -0.0202 -0.1167
33035W        W33899  17.079   4.237  14.159 -0.3698 -0.1619 -0.1486
33036W        W33900  20.726   5.898  17.299 -0.0288  0.3772  0.0741
33037W        W33901  20.334   3.882  18.438  0.2122 -0.0507 -0.0086
33038W        W33902  19.392   4.866  16.589 -0.0688  0.3497  0.0640
33039W        W33903  19.213   6.622  20.158 -0.0313  0.0818  0.0235
33040W        W33904  22.311   4.126  17.492 -0.3739  0.1836 -0.0408
33041W        W33905  17.404   5.921  17.784  0.1155  0.0901  0.0300
33042W        W33906  20.362   4.897  15.007  0.1494  0.4997 -0.0061
33043W        W33907  16.260   1.570  16.130  0.0994 -0.3901  0.2044
33044W        W33908  20.895   7.027  20.399  0.1458 -0.1545  0.0798
33045W        W33909  18.764   3.749  17.702  0.0541 -0.0794  0.0535
33046W        W33910  19.453   5.424  17.109 -0.3060 -0.2155  0.1140
33047W        W33911  21.744   5.300  19.095  0.1288  0.1424  0.1384
33048W        W33912  19.722   3.899  17.747  0.0381  0.0621  0.1902
33049W        W33913  20.338   5.999  17.015  0.0087  0.0496 -0.2752
33050W        W33914  19.499   7.591  14.212  0.5196  0.0374  0.0630
33051W        W33915  18.210   3.540  14.778 -0.0062  0.0405  0.0448
33052W        W33916  23.468   3.152  17.191 -0.1858 -0.1803  0.1121
33053W        W33917  19.878   8.443  17.913 -0.2934 -0.2563  0.0226
33054W        W33918  17.087   3.775  18.227 -0.0654  0.3242  0.0363
33055W        W33919  18.772   5.435  15.348 -0.1419 -0.3016  0.1191
33056W        W33920  20.110   3.047  15.497 -0.3533 -0.1307 -0.1711
33057W        W33921  19.800   4.263  14.868 -0.1965  0.0255 -0.3055
33058W        W33922  21.280   6.736  13.237  0.0594 -0.1610  0.0541
33059W        W33923  18.696   4.060  15.880 -0.5028 -0.0691 -0.0608
33060W        W33924  21.931   6.052  17.777 -0.1972 -0.0693  0.0158
33061W        W33925  22.099   6.870  11.422 -0.1334 -0.0745  0.0150
33062W        W33926  22.295   4.593  19.140  0.1336  0.0438  0.0756
33063W        W33927  21.023   2.149  16.106  0.0471  0.1023  0.0174
33064W        W33928  19.369   4.443  17.514 -0.3631 -0.1428  0.0475
33065W        W33929  17.707   6.050  14.821 -0.5490 -0.1243  0.3160
33066W        W33930  19.303   2.684  18.181  0.0478  0.1326 -0.1311
33067W        W33931  18.907   3.687  15.020  0.1430  0.4923 -0.1670
33068W        W33932  19.270   9.117  16.381 -0.3274  0.1152  0.1915
33069W        W33933  20.611   4.952  18.068 -0.1229  0.0134 -0.0996
33070W        W33934  20.408   2.715  14.557 -0.0760  0.2631  0.2907
33071W        W33935  16.266   7.686  16.999  0.1575 -0.0628  0.1512
33072W        W33936  18.837   5.476  16.218  0.2078  0.0031 -0.0206
33073W        W33937  20.063   3.408  12.935 -0.0351 -0.0164 -0.5070
33074W        W33938  19.004   2.660  17.591  0.0811 -0.2423 -0.0558
33075W        W33939  18.150   4.413  14.724  0.2522  0.0315 -0.2639
33076W        W33940  20.076   0.700  15.165 -0.0144  0.0710  0.2451
33077W        W33941  18.774   4.577  17.807  0.0486  0.1687 -0.0654
33078W        W33942  19.571   2.068  16.364  0.2099 -0.1531 -0.2482
33079W        W33943  21.558   4.154  17.468  0.0367  0.0401 -0.2204
33080W        W33944  18.946   3.845  17.019 -0.0106 -0.3867  0.4512
33081W        W33945  19.386   3.302  14.976 -0.0187 -0.2267 -0.1594
33082W        W33946  18.144   4.467  12.140  0.0610 -0.0588 -0.2248
33083W        W33947  18.573   6.382  17.166 -0.0171  0.3811  0.1809
33084W        W33948  20.965   3.536  17.176  0.2718 -0.0850 -0.2921
33085W        W33949  19.707   4.583  15.642  0.2737 -0.3480 -0.1242
33086W        W33950  18.391   6.356  15.936  0.3629  0.1770  0.3151
33087W        W33951  20.629   7.676  17.813  0.0422 -0.2224  0.0920
33088W        W33952  17.672   5.342  16.342 -0.2648 -0.1437  0.1983
33089W        W33953  22.517   2.873  16.990 -0.0189  0.1165 -0.2138
33090W        W33954  23.048   3.867  15.408  0.3989 -0.2215  0.3480
33091W        W33955  23.671   5.548  13.806  0.0358  0.2570 -0.0762
33092W        W33956  24.347   4.149  18.208 -0.0330  0.0627  0.0923
33093W        W33957  22.511   4.670  15.561  0.4811 -0.1206  0.1421
33094W        W33958  18.763   4.340  12.839 -0.1867  0.2506 -0.2379
33095W        W33959  20.337   3.877  17.456  0.3354 -0.2844 -0.0683
33096W        W33960  17.983   6.529  16.829 -0.0403  0.0052  0.1385
33097W        W33961  21.843   4.933  16.163  0.2360  0.0449 -0.3446
33098W        W33962  22.328   4.483  16.998 -0.1847 -0.2687 -0.0074
33099W        W33963  18.592   8.138  18.909 -0.1150 -0.0863 -0.2867
33100W        W33964  19.486   1.049  14.699 -0.1132  0.1066  0.1500
33101W        W33965  21.563   7.352  11.928  0.1591  0.0225  0.2367
33102W        W33966  17.750   2.698  16.298 -0.1985 -0.1290  0.1236
33103W        W33967  18.468   7.109  18.130 -0.3175 -0.1519 -0.0913
33104W        W33968  19.893   1.967  16.802  0.2271 -0.0827  0.1103
33105W        W33969  20.525   2.782  13.592  0.3889  0.2529  0.0319
33106W        W33970  21.075   4.490  19.141 -0.2021  0.3803 -0.0002
33107W        W33971  18.368   5.418  18.862 -0.0402 -0.1748 -0.1292
33108W        W33972  18.915   6.422  18.510  0.1538  0.2335 -0.0611
33109W        W33973  16.897   5.490  16.715  0.0991  0.0829  0.0232
33110W        W33974  17.507   8.256  16.392 -0.1471 -0.1603 -0.1991
33111W        W33975  16.123   3.766  17.899  0.0526 -0.0150 -0.0635
33112W        W33976  19.580   6.732  17.774 -0.0263  0.0035 -0.0410
33113W        W33977  21.856   3.233  15.698 -0.1025 -0.2860  0.2203
33114W        W33978  21.462   3.820  18.413 -0.4570  0.0557 -0.2210
33115W        W33979  20.351   2.649  17.238  0.1254 -0.2484  0.0161
33116W        W33980  18.028   5.743  16.527  0.0966 -0.1787  0.0090
33117W        W33981  20.604   6.721  16.636 -0.0470  0.2336  0.0660
33118W        W33982  19.562   4.634  19.016 -0.4926 -0.1213 -0.1883
33119W        W33983  20.802   8.454  19.776 -0.0443 -0.0582 -0.1265
33120W        W33984  16.616   4.461  16.435 -0.0446  0.1538  0.1670
33121W        W33985  21.706   1.908  15.713  0.0976  0.1448 -0.1478
33122W        W33986  16.974   5.989  17.517 -0.1422  0.3041 -0.2365
33123W        W33987  23.119   4.705  16.129  0.0085  0.1606 -0.0305
33124W        W33988  19.156   5.742  17.744  0.0113  0.2874  0.0070
33125W        W33989  22.825   4.399  15.237 -0.2261 -0.1637  0.0096
33126W        W33990  22.175   1.926  15.075  0.0145  0.0149 -0.2581
33127W        W33991  16.731   5.522  17.510  0.0603 -0.0659 -0.0502
33128W        W33992  17.025   5.682  18.031 -0.2089  0.0341 -0.0359
33129W        W33993  20.041   9.480  19.055 -0.1458  0.0470 -0.3045
33130W        W33994  20.310   5.105  14.470 -0.0664  0.2664  0.0517
33131W        W33995  17.870   5.671  13.052 -0.2836 -0.1601  0.0394
33132W        W33996  18.564   6.156  13.693 -0.1122 -0.0680 -0.2643
33133W        W33997  22.596   4.737  13.033  0.3617 -0.1405  0.0221
33134W        W33998  19.191   4.904  17.931  0.0327  0.2037 -0.0159
33135W        W33999  16.825   5.077  16.359 -0.2091 -0.0103  0.3342
33136W        W34000  21.813   2.804  15.072 -0.2357  0.1327  0.2419
33137W        W34001  17.818   3.512  16.954  0.1693 -0.1132  0.3723
33138W        W34002  20.320   3.697  14.810  0.0495 -0.1413  0.2307
33139W        W34003  19.547   8.315  17.108  0.0330 -0.2906  0.0636
33140W        W34004  18.018   2.891  15.595 -0.1845  0.0087 -0.2141
33141W        W34005  18.785   6.415  16.225 -0.0441  0.2083  0.1482
33142W        W34006  14.911   5.373  20.326  0.2043 -0.2424  0.0594
33143W        W34007  19.433   6.065  15.893  0.2882  0.2399  0.2465
33144W        W34008  20.079   6.548  13.882  0.1539  0.0782 -0.1644
33145W        W34009  20.168   5.528  15.676 -0.0799  0.2063 -0.3428
33146W        W34010  22.156   5.603  14.642  0.0280 -0.1029 -0.2340
33147W        W34011  17.197   4.954  16.018 -0.2367 -0.1278  0.1620
33148W        W34012  19.667   6.243  18.120  0.0587 -0.2139 -0.3399
33149W        W34013  22.176   0.433  18.746 -0.0894  0.1697 -0.0037
33150W        W34014  15.293   6.098  16.471 -0.1409  0.0160  0.0489
33151W        W34015  22.053   5.359  16.184  0.3072 -0.2380 -0.2902
33152W        W34016  18.854   2.457  18.039  0.0214  0.1159  0.2121
33153W        W34017  16.661   2.929  15.989  0.1831  0.0471  0.0327
33154W        W34018  16.874   4.698  13.953 -0.1108  0.3317  0.1196
33155W        W34019  20.853   6.399  13.205 -0.0794  0.1424  0.0391
33156W        W34020  19.070   5.917  19.482 -0.3297  0.2891  0.1278
33157W        W34021  16.108   5.783  17.230  0.0986  0.0043 -0.1367
33158W        W34022  19.707   5.610  15.804  0.0825 -0.3288 -0.2568
33159W        W34023  21.049   4.626  18.570  0.1045 -0.0988 -0.1301
33160W        W34024  17.948   8.618  17.990  0.0029  0.3438 -0.0293
33161W        W34025  21.411   6.287  13.383  0.1925 -0.1425 -0.1913
33162W        W34026  21.061   2.755  16.547  0.2524 -0.1006 -0.0398
33163W        W34027  17.660   3.635  15.232 -0.2843 -0.1393 -0.1521
33164W        W34028  18.545   3.966  18.759 -0.0617 -0.2117 -0.0245
33165W        W34029  21.677   1.875  13.878 -0.3796 -0.1254 -0.2066
33166W        W34030  20.395   5.673  16.609 -0.1127 -0.1368 -0.0719
33167W        W34031  21.967   3.781  17.611 -0.0382 -0.0157 -0.3232
33168W        W34032  20.603   1.043  12.087  0.0117  0.0228 -0.0322
33169W        W34033  20.842   5.213  16.217 -0.0411  0.1998 -0.1084
33170W        W34034  18.199   4.559  13.778  0.0583  0.2029 -0.2253
33171W        W34035  21.991   4.601  13.735  0.1842 -0.1889 -0.1511
33172W        W34036  20.412   4.581  15.392 -0.1542  0.0801 -0.0238
33173W        W34037  22.314   1.465  16.060  0.2961  0.4003  0.0543
33174W        W34038  21.557   3.900  16.622  0.1579 -0.0107  0.1186
33175W        W34039  21.397   3.328  17.025 -0.2891  0.3320 -0.0763
33176W        W34040  19.551   6.511  17.255 -0.2082 -0.1007 -0.1655
33177W        W34041  19.401   3.456  13.498  0.0638  0.0617 -0.1092
33178W        W34042  17.715   6.048  16.833 -0.3195 -0.3292 -0.0915
33179W        W34043  20.026   7.136  18.472  0.2215  0.3300 -0.4580
33180W        W34044  23.893   5.450  15.193 -0.0676  0.0087  0.0542
33181W        W34045  22.178   4.451  16.242 -0.1494  0.3028 -0.1033
33182W        W34046  19.318   7.703  20.555 -0.1182  0.3378 -0.3138
33183W        W34047  20.463   5.522  17.079  0.1423  0.0155  0.4294
33184W        W34048  16.621   4.276  14.031  0.2380 -0.0618  0.1395
33185W        W34049  21.810   5.196  15.783  0.2648 -0.0711  0.3828
33186W        W34050  20.815   4.873  17.600  0.2084  0.1932 -0.1769
33187W        W34051  18.394   2.392  15.598 -0.0385  0.1881  0.1546
33188W        W34052  19.496   4.626  16.095 -0.1571 -0.1258 -0.0079
33189W        W34053  18.679   4.136  16.386 -0.1541 -0.3106 -0.0283
33190W        W34054  21.417   5.307  14.924  0.4853 -0.3017 -0.0848
33191W        W34055  18.087   5.845  18.661  0.0125 -0.0762  0.0748
33192W        W34056  20.123   7.998  17.940 -0.0145 -0.0216  0.3265
33193W        W34057  20.451   2.312  13.753 -0.0494  0.0558  0.0999
33194W        W34058  21.887   1.226  13.822 -0.3732  0.1383 -0.0482
33195W        W34059  20.736   6.919  14.844 -0.0972 -0.0316 -0.0315
33196W        W34060  19.827   5.015  16.785  0.0567 -0.4546  0.1811
33197W        W34061  19.114   7.614  17.832 -0.0790 -0.0024  0.2237
33198W        W34062  21.691   5.679  14.572  0.1123 -0.0672  0.2669
33199W        W34063  16.892   5.664  15.045  0.3545  0.1857  0.1336
33200W        W34064  22.934   6.641  15.104 -0.1663  0.0485 -0.2736
33201W        W34065  18.371   6.828  15.774 -0.2254 -0.1611 -0.3067
33202W        W34066  18.605   4.758  17.230  0.0131  0.2931  0.1161
33203W        W34067  18.767   4.851  18.335 -0.4458  0.3166 -0.1747
33204W        W34068  19.057   4.572  14.353 -0.0380  0.0468  0.3408
33205W        W34069  21.377   2.198  14.202  0.3189 -0.0957 -0.0434
33206W        W34070  19.985   2.999  14.185  0.4758  0.0091  0.0972
33207W        W34071  20.082   2.297  18.845  0.1517  0.4194  0.0547
33208W        W34072  21.711   5.731  13.823 -0.0103 -0.2024 -0.1640
33209W        W34073  21.330   7.316  15.472 -0.0749 -0.0864 -0.0966
33210W        W34074  18.150   5.437  19.454  0.0353  0.3494 -0.0768
33211W        W34075  23.179   7.658  16.311 -0.0144  0.1713  0.1733
33212W        W34076  20.338   7.507  18.644 -0.0129 -0.3529 -0.1743
33213W        W34077  18.355   6.955  16.832  0.0854 -0.1720  0.2651
33214W        W34078  21.358   5.922  11.625 -0.1718  0.1473  0.0022
33215W        W34079  20.560   4.608  18.803 -0.0551 -0.1398 -0.1191
33216W        W34080  19.402   4.222  15.714  0.1773  0.2823  0.2011
33217W        W34081  22.066   5.796  16.556 -0.0981  0.0839  0.2898
33218W        W34082  19.246   5.569  15.985 -0.2611  0.0099 -0.4150
33219W        W34083  19.556   3.906  16.399 -0.0730 -0.3794  0.0776
33220W        W34084  20.254   5.801  16.157  0.0193  0.3375 -0.1013
33221W        W34085  20.979   8.569  16.900 -0.0303 -0.0431  0.0248
33222W        W34086  20.344   6.608  19.851 -0.0166  0.0271  0.1159
33223W        W34087  19.085   4.896  15.346  0.2477  0.0216 -0.3973
33224W        W34088  17.177   4.534  17.367  0.0441 -0.3332  0.3677
33225W        W34089  16.874   5.238  17.927 -0.3281  0.0998 -0.1462
33226W        W34090  17.683   1.901  14.055  0.1635  0.1676  0.1745
33227W        W34091  21.541   6.261  18.863 -0.0347 -0.0827  0.1353
33228W        W34092  21.952   3.384  14.857 -0.1814  0.0485  0.0358
33229W        W34093  23.271   5.741  16.214 -0.1465  0.2487  0.1602
33230W        W34094  20.475   6.799  17.585 -0.0927  0.3213 -0.3120
33231W        W34095  19.202   6.520  15.945 -0.2347 -0.2587  0.1248
33232W        W34096  19.808   2.242  13.343 -0.2441  0.0087 -0.0234
33233W        W34097  18.963   8.629  17.768 -0.3249 -0.0599  0.2019
33234W        W34098  20.425   4.875  16.438  0.2633 -0.3482  0.0960
33235W        W34099  15.383   3.673  16.028 -0.0208  0.1187 -0.0745
33236W        W34100  17.020   4.505  15.660  0.0314  0.0362  0.0491
33237W        W34101  19.922   5.575  16.877 -0.2079 -0.1216  0.0912
33238W        W34102  20.890   6.725  18.912  0.1051 -0.2718 -0.1776
33239W        W34103  21.114   3.101  16.158 -0.1665 -0.0414 -0.1811
33240W        W34104  22.111   3.069  13.402 -0.1191 -0.2330 -0.0239
33241W        W34105  17.220   7.865  18.268 -0.0675  0.0598  0.1182
33242W        W34106  20.604   5.809  15.412  0.3532  0.0481 -0.0540
33243W        W34107  18.249   8.681  17.294 -0.1179  0.0840  0.0855
33244W        W34108  21.216   4.755  15.091  0.0764  0.1249 -0.1303
33245W        W34109  17.965   3.155  14.202  0.0775 -0.0232 -0.0039
33246W        W34110  21.536   4.858  16.543  0.1198  0.2764  0.1189
33247W        W34111  22.283   4.234  15.717  0.0205  0.0074 -0.1391
33248W        W34112  20.611   2.763  16.829  0.0530  0.0427  0.0378
33249W        W34113  20.755   4.933  15.317 -0.0384 -0.2208 -0.3399
33250W        W34114  22.426   5.971  14.477 -0.0280  0.2579  0.1779
33251W        W34115  21.609   3.370  15.306 -0.1937  0.1792  0.1815
33252W        W34116  19.723   4.767  17.761  0.1473 -0.0101  0.0744
33253W        W34117  19.088   3.503  17.430  0.1386  0.0829  0.0306
33254W        W34118  22.614   7.068  16.263 -0.1969  0.2817 -0.0655
33255W        W34119  19.317   3.181  17.764  0.1170 -0.2891 -0.1290
33256W        W34120  19.224   6.556  18.133 -0.2455 -0.0414  0.1733
33257W        W34121  21.733   6.153  17.006 -0.1070 -0.2701  0.0148
33258W        W34122  16.747   4.156  12.230  0.1048 -0.1337  0.0471
33259W        W34123  16.414   3.772  13.356  0.0558  0.1215  0.1877
33260W        W34124  17.353   5.660  15.275  0.2848 -0.2459  0.0379
33261W        W34125  21.508   7.908  16.263 -0.1108  0.3083  0.1021
33262W        W34126  21.936   3.401  17.284  0.0520  0.0372  0.2182
33263W        W34127  22.925   4.967  14.329  0.0287  0.0229  0.2577
33264W        W34128  20.712   7.370  18.373  0.1872 -0.3794  0.1480
33265W        W34129  21.168   6.271  16.583 -0.1025  0.1573 -0.3511
33266W        W34130  23.213   8.101  16.499  0.0534 -0.1336  0.1377
33267W        W34131  20.118   7.281  19.469 -0.1389 -0.3234 -0.0317
33268W        W34132  16.109   6.010  15.798 -0.1473 -0.3835 -0.0603
33269W        W34133  20.363   5.313  16.118 -0.0796  0.0274  0.1455
33270W        W34134  20.832   7.217  17.798  0.0723  0.0912 -0.0188
33271W        W34135  16.435   5.163  13.956  0.1798  0.0397  0.1276
33272W        W34136  19.713   5.075  18.685 -0.0130 -0.1575 -0.0933
33273W        W34137  20.409   8.721  13.442 -0.0547  0.0334 -0.1125
33274W        W34138  18.931   6.263  18.986 -0.1505 -0.0260 -0.0345
33275W        W34139  20.100   5.919  13.738 -0.1976 -0.3232  0.0360
33276W        W34140  18.378   4.087  12.858  0.2248 -0.1941 -0.0361
33277W        W34141  20.898   9.306  22.110 -0.0473 -0.0491 -0.0805
33278W        W34142  17.410   6.886  21.171 -0.1174  0.3827  0.0810
33279W        W34143  22.679   6.148  22.214  0.2027 -0.1932  0.0451
33280W        W34144  23.084   8.745  20.405  0.0832 -0.2799  0.0817
33281W        W34145  20.181   6.120  17.748 -0.4822 -0.0311  0.3018
33282W        W34146  19.079   4.494  19.607 -0.1468 -0.3071 -0.0280
33283W        W34147  18.567   4.190  20.606  0.1463  0.1622 -0.0017
33284W        W34148  20.137   5.277  18.868  0.0999  0.0964  0.4414
33285W        W34149  20.180   6.392  21.317 -0.0112  0.0028  0.0171
33286W        W34150  16.651   5.938  21.065 -0.2460 -0.0303  0.0857
33287W        W34151  19.136   3.702  21.432 -0.0823  0.1669 -0.0471
33288W        W34152  20.645   5.056  21.807  0.2738 -0.0049 -0.2486
33289W        W34153  17.443   5.148  17.968 -0.1208  0.0645 -0.1038
33290W        W34154  21.657   5.024  19.870 -0.0655 -0.2523 -0.0899
33291W        W34155  18.234   1.994  21.285  0.2338 -0.0131  0.2914
33292W        W34156  20.442   7.050  20.773  0.2673  0.0313  0.2061
33293W        W34157  21.342   8.129  18.928  0.2206 -0.1739 -0.0633
33294W        W34158  17.143   6.483  21.325  0.1197  0.2014  0.0754
33295W        W34159  20.383   1.570  22.582  0.0626 -0.1464  0.1298
33296W        W34160  22.070   4.424  21.422  0.0725 -0.0193 -0.4433
33297W        W34161  22.157   3.157  20.044  0.2731  0.3608  0.1562
33298W        W34162  19.220   4.963  20.768 -0.0223  0.2563  0.1802
33299W        W34163  20.789   5.711  20.939  0.1297 -0.0704 -0.1631
33300W        W34164  20.250   5.425  19.333 -0.2934  0.0281 -0.0821
33301W        W34165  17.974   4.738  24.062  0.0349  0.0329  0.1843
33302W        W34166  22.935   4.322  21.213 -0.1605 -0.2103 -0.0071
33303W        W34167  21.862   4.105  21.035  0.3611  0.0117 -0.1220
33304W        W34168  17.321   6.618  20.036 -0.0658 -0.0913  0.3439
33305W        W34169  19.769   7.225  22.299 -0.0613  0.0478 -0.1636
33306W        W34170  19.283   5.377  18.072 -0.0673 -0.0598  0.0698
33307W        W34171  18.342   6.785  20.812  0.2002 -0.2030  0.1682
33308W        W34172  21.365   9.508  22.393  0.4261  0.1906  0.0898
33309W        W34173  17.632   5.333  22.884  0.0388  0.1600  0.1056
33310W        W34174  19.471   5.757  21.738 -0.0844 -0.0177 -0.1833
33311W        W34175  17.789   3.340  20.285 -0.1763 -0.1108 -0.1103
33312W        W34176  21.186   4.763  21.975  0.2257 -0.0712  0.1426
33313W        W34177  18.193   7.339  20.768 -0.0863  0.1511  0.1240
33314W        W34178  16.923   5.801  20.590  0.0027 -0.1621  0.2412
33315W        W34179  21.659   4.543  20.723  0.1679  0.1098 -0.1878
33316W        W34180  19.880   2.748  20.064  0.0988 -0.0296 -0.0829
33317W        W34181  21.747   4.805  20.335  0.1744  0.2110  0.1482
33318W        W34182  20.963   3.779  20.954 -0.3094 -0.1415  0.1564
33319W        W34183  17.373   6.525  20.838  0.1269  0.3017 -0.2508
33320W        W34184  19.686   6.315  21.164  0.3821  0.0692 -0.1368
33321W        W34185  15.784   4.695  19.198  0.0435 -0.0195  0.1708
33322W        W34186  18.106   6.317  18.309 -0.2750 -0.1371 -0.2213
33323W        W34187  17.592   4.665  21.391  0.0910  0.3893  0.1105
33324W        W34188  21.085   7.759  18.160 -0.0276 -0.0625  0.0755
33325W        W34189  19.729   4.780  20.002  0.0624 -0.0235  0.2694
33326W        W34190  19.547   4.789  20.467 -0.2332  0.3116 -0.1944
33327W        W34191  20.440   3.973  21.122 -0.0299 -0.0236  0.0676
33328W        W34192  19.588   2.949  21.901 -0.1373 -0.1072 -0.1660
33329W        W34193  21.207   5.835  19.716 -0.1184 -0.1345 -0.2632
33330W        W34194  22.681   3.550  16.297  0.0072 -0.0010 -0.2580
33331W        W34195  20.213   6.633  19.017 -0.2846  0.1346  0.3451
33332W        W34196  20.402   6.346  17.346  0.1204  0.1331  0.1563
33333W        W34197  16.742   4.352  19.786 -0.0133 -0.1307 -0.0457
33334W        W34198  19.801   3.760  19.976  0.2015 -0.4896 -0.0639
33335W        W34199  15.863  11.288  22.151 -0.0559 -0.0588 -0.0238
33336W        W34200  19.187   6.846  17.382 -0.1555 -0.0935  0.3665
33337W        W34201  19.275   5.053  19.961  0.1904 -0.2898 -0.0784
33338W        W34202  17.377   6.034  21.651 -0.2848  0.1328  0.0166
33339W        W34203  20.441   9.067  21.862  0.1054 -0.1465 -0.0686
33340W        W34204  19.987   6.771  19.484 -0.1053 -0.0368 -0.2313
33341W        W34205  16.840   3.491  22.041  0.0798  0.1084  0.2858
33342W        W34206  21.886   3.085  22.728  0.0051  0.1592 -0.1110
33343W        W34207  16.579   4.948  16.728 -0.1028  0.1084 -0.3278
33344W        W34208  18.049   5.667  14.876  0.3396  0.0090 -0.1379
33345W        W34209  19.519   5.943  19.149  0.1408  0.2528 -0.0789
33346W        W34210  18.440   6.189  20.677  0.3134 -0.3195 -0.1732
33347W        W34211  20.184   7.168  21.190  0.1765  0.2111 -0.0994
33348W        W34212  20.192   4.586  19.809 -0.0060  0.0006  0.2870
33349W        W34213  22.638   6.421  20.482 -0.0308  0.0569 -0.0793
33350W        W34214  21.498   5.067  20.697 -0.1215  0.1684 -0.1903
33351W        W34215  21.388   5.809  20.241  0.1393  0.0836 -0.2301
33352W        W34216  20.271   7.318  22.529  0.3561 -0.1311  0.0652
33353W        W34217  17.144   4.450  21.957 -0.2079  0.1784  0.1908
33354W        W34218  19.301   3.574  20.413 -0.1508  0.0313  0.1095
33355W        W34219  17.456   8.003  18.722 -0.1662  0.0175  0.0346
33356W        W34220  22.103   5.835  19.599  0.4050 -0.0937  0.2360
33357W        W34221  18.185   7.293  19.802 -0.1916 -0.2547 -0.2906
33358W        W34222  18.523   8.366  20.858 -0.1247  0.0145  0.0138
33359W        W34223  16.902   2.441  20.210  0.1042 -0.0523  0.0166
33360W        W34224  19.349   0.121  19.846 -0.0992 -0.1132 -0.0304
33361W        W34225  19.641   3.117  21.379 -0.1693  0.3008  0.4725
33362W        W34226  16.531   4.621  19.405  0.0169 -0.0153  0.1073
33363W        W34227  23.450   6.995  20.341 -0.3223 -0.0052 -0.1278
33364W        W34228  20.607   3.284  23.996 -0.1776  0.2822 -0.1217
33365W        W34229  21.843   6.859  22.597 -0.0904 -0.0122  0.1004
33366W        W34230  19.753   5.111  20.777  0.0007  0.0108 -0.0564
33367W        W34231  18.230   4.413  18.676 -0.2775  0.1461 -0.0490
33368W        W34232  22.435   3.826  21.876 -0.0940  0.0040 -0.0450
33369W        W34233  19.512   9.685  19.916 -0.0167 -0.2215 -0.2256
33370W        W34234  19.475   4.391  16.500 -0.1751  0.1720 -0.1699
33371W        W34235  19.583   1.991  21.591  0.0838 -0.2665 -0.1992
33372W        W34236  21.509   5.353  17.460 -0.4027  0.1336 -0.0628
33373W        W34237  21.283   6.145  20.758  0.1446 -0.2450 -0.0743
33374W        W34238  19.559   8.922  24.502  0.0704 -0.2317 -0.3787
33375W        W34239  19.424   2.715  20.398 -0.0015  0.0885  0.3146
33376W        W34240  20.522   3.453  21.596 -0.0251  0.2854 -0.2242
33377W        W34241  22.130   6.228  18.259 -0.0378  0.3103 -0.2195
33378W        W34242  19.681   2.733  19.505  0.1117  0.3735 -0.0591
33379W        W34243  21.206   7.311  16.771 -0.0875 -0.0465 -0.0650
33380W        W34244  20.545   7.541  19.397  0.1782 -0.3251  0.2310
33381W        W34245  22.099   3.942  21.563  0.0305  0.1540  0.2588
33382W        W34246  19.356   5.917  21.230 -0.1106  0.0130 -0.4272
33383W        W34247  17.018   4.943  18.292  0.0486 -0.2540 -0.2168
33384W        W34248  19.729   5.441  22.132 -0.1963 -0.1358  0.1882
33385W        W34249  18.127   5.275  22.214 -0.2893 -0.1315 -0.0718
33386W        W34250  19.948   2.708  21.221 -0.2058  0.1833  0.1920
33387W        W34251  19.519   8.136  20.230  0.0363  0.2620 -0.2756
33388W        W34252  18.664   3.231  20.867 -0.0802  0.3312 -0.0667
33389W        W34253  19.597   7.262  19.147 -0.1974 -0.2366 -0.2101
33390W        W34254  22.162   4.576  20.331 -0.1030  0.1145  0.2733
33391W        W34255  19.989   5.829  18.914 -0.0603 -0.1848  0.0399
33392W        W34256  17.637   6.641  19.079 -0.1811  0.3118 -0.0259
33393W        W34257  24.125   4.331  21.615  0.1928  0.0116  0.0860
33394W        W34258  19.973   4.247  20.058 -0.3175 -0.0074  0.1081
33395W        W34259  19.195   5.637  19.930  0.0696 -0.1272 -0.0650
33396W        W34260  23.196   5.899  14.890  0.0687  0.1866  0.0534
33397W        W34261  19.572   4.044  16.906  0.1279 -0.0171 -0.0830
33398W        W34262  20.150   4.832  17.999  0.2274  0.0643 -0.2643
33399W        W34263  20.995   7.010  20.937 -0.0147  0.3799  0.0939
33400W        W34264  20.765   6.207  19.796 -0.1915  0.1019 -0.0484
33401W        W34265  18.865   6.176  20.348 -0.2192 -0.0817 -0.1548
33402W        W34266  23.194   5.619  19.146 -0.1753 -0.1624  0.0894
33403W        W34267  19.092   3.171  21.236 -0.0486  0.0741 -0.2178
33404W        W34268  24.043   6.509  21.179 -0.2314 -0.0728 -0.0385
33405W        W34269  21.119   9.279  19.855  0.3380  0.2209  0.3058
33406W        W34270  18.269   6.751  18.495 -0.2872 -0.3446 -0.0221
33407W        W34271  20.481   8.721  17.877 -0.1969  0.3559 -0.0465
33408W        W34272  17.983   3.248  22.442  0.0673  0.4426 -0.2563
33409W        W34273  21.769   6.355  20.834  0.0085  0.1605  0.0380
33410W        W34274  21.346   3.636  18.955  0.1649 -0.0417  0.2245
33411W        W34275  22.962   6.579  21.142 -0.0989 -0.1774 -0.0475
33412W        W34276  18.348   3.357  19.382  0.2664 -0.4188 -0.0395
33413W        W34277  21.131   4.707  20.625 -0.0559 -0.0149 -0.0590
33414W        W34278  17.867   6.511  20.861  0.0827  0.1471 -0.0770
33415W        W34279  19.820   5.729  21.214  0.3207 -0.0050 -0.1270
33416W        W34280  20.753   5.431  18.049 -0.1274  0.2230 -0.2652
33417W        W34281  18.366   6.524  16.520 -0.0720  0.2598  0.0283
33418W        W34282  20.436   2.953  22.662  0.0941 -0.1163  0.2292
33419W        W34283  18.692   7.719  18.708 -0.0019  0.0308  0.0909
33420W        W34284  19.123   6.994  19.770  0.2425 -0.0483  0.2488
33421W        W34285  18.438   5.852  20.997  0.1190 -0.1428  0.0862
33422W        W34286  19.661   5.404  19.809 -0.1067 -0.0897  0.3639
33423W        W34287  20.190   5.754  20.120 -0.3137 -0.2807  0.1329
33424W        W34288  21.441   8.531  20.096 -0.3086 -0.1296 -0.0282
33425W        W34289  16.971   6.887  20.169  0.3016 -0.1215  0.0178
33426W        W34290  18.948   5.077  19.420 -0.1172 -0.1991  0.0872
33427W        W34291  22.674   6.520  19.999 -0.0779  0.0856 -0.0728
33428W        W34292  18.601   5.878  19.153 -0.0534 -0.3864 -0.1708
33429W        W34293  20.803  10.060  19.355  0.2763 -0.0341  0.1405
33430W        W34294  18.787   4.216  17.419  0.0697 -0.2561  0.0440
33431W        W34295  22.115   3.300  21.466  0.0298 -0.1129 -0.1612
33432W        W34296  21.369   3.930  20.147  0.2077 -0.2869  0.0278
33433W        W34297  20.089   6.258  22.482 -0.0401  0.0058 -0.3418
33434W        W34298  17.472   3.457  19.924  0.1740  0.0567  0.1872
33435W        W34299  19.376   4.234  19.235 -0.1905 -0.4090 -0.1755
33436W        W34300  19.531   4.632  20.944  0.1512  0.0472  0.0784
33437W        W34301  19.167   6.443  22.922 -0.3039 -0.1327 -0.1343
33438W        W34302  21.061   5.931  18.967 -0.1497 -0.1098 -0.0761
33439W        W34303  22.330   6.154  20.108  0.1478  0.1806 -0.0748
33440W        W34304  20.685   5.414  19.007  0.1607 -0.0071  0.0910
33441W        W34305  20.600   3.723  22.002  0.0500 -0.1167 -0.0670
33442W        W34306  21.330   3.811  22.305  0.1288 -0.4186 -0.1220
33443W        W34307  18.508   1.945  20.073  0.2546  0.0508 -0.3737
33444W        W34308  18.313   5.679  18.128  0.0615 -0.0999  0.1203
33445W        W34309  22.439   5.167  21.435 -0.0788 -0.0826  0.2129
33446W        W34310  19.375   5.204  17.585  0.0097 -0.1462  0.0642
33447W        W34311  22.136   6.678  20.746 -0.1186  0.0101 -0.1301
33448W        W34312  20.473   4.522  18.331  0.0718  0.1004 -0.3774
33449W        W34313  17.520   7.319  22.016 -0.0228  0.0776  0.0347
33450W        W34314  20.568   6.171  21.123 -0.4288  0.0304  0.0095
33451W        W34315  21.960   2.638  22.361 -0.3136 -0.0042 -0.0363
33452W        W34316  20.672   6.363  18.290  0.0109 -0.0019  0.0248
33453W        W34317  19.066   8.222  21.162  0.1813  0.0723  0.0342
33454W        W34318  19.800   8.569  22.010 -0.1840 -0.1410  0.1816
33455W        W34319  15.950   7.130  19.555 -0.1917  0.3405  0.3427
33456W        W34320  21.473   4.936  21.569 -0.0851 -0.2134 -0.2127
33457W        W34321  19.431   6.554  20.773  0.2392 -0.1466  0.4557
33458W        W34322  21.764   8.190  19.533  0.0328  0.1469  0.2226
33459W        W34323  19.878   5.276  17.746 -0.2454 -0.0688 -0.1838
33460W        W34324  20.768   4.174  18.616 -0.0368 -0.0983 -0.1643
33461W        W34325  17.569   3.649  17.582 -0.1531 -0.2514 -0.3601
33462W        W34326  20.137   7.532  19.996 -0.4016 -0.1844  0.0356
33463W        W34327  20.654   3.384  22.551  0.3321 -0.2017 -0.0845
33464W        W34328  17.614   2.543  18.504  0.0428  0.1118 -0.3798
33465W        W34329  17.234   7.652  21.717  0.1114 -0.1198 -0.0898
33466W        W34330  19.274   6.316  17.684 -0.2185 -0.0333 -0.1671
33467W        W34331  16.736   3.920  19.262 -0.1208 -0.0698 -0.0673
33468W        W34332  17.313   5.206  16.649 -0.0522  0.3627  0.2035
33469W        W34333  20.330   3.288  22.126  0.0256 -0.1056  0.2021
33470W        W34334  19.652   1.691  22.155 -0.3684  0.0516 -0.0355
33471W        W34335  19.312   5.496  19.475 -0.2757  0.3266 -0.0723
33472W        W34336  17.520   5.271  22.352  0.0931  0.2009 -0.0311
33473W        W34337  21.357   3.894  21.309 -0.0156 -0.0201  0.0248
33474W        W34338  18.510   3.044  20.240  0.5966 -0.1820 -0.0402
33475W        W34339  19.424   5.853  16.775 -0.0833 -0.1151 -0.0577
33476W        W34340  20.833   1.946  21.559 -0.2017 -0.0235  0.0004
33477W        W34341  17.837   4.295  17.907  0.1969  0.1214  0.0474
33478W        W34342  24.405   3.058  19.888 -0.0578 -0.0197 -0.0419
33479W        W34343  20.879   6.637  20.119 -0.0084  0.1235  0.1440
33480W        W34344  18.781   3.271  18.751 -0.2796  0.1474 -0.0317
33481W        W34345  18.650   1.758  21.069 -0.0285 -0.0985  0.3389
33482W        W34346  17.590   3.975  16.623  0.1439  0.0219 -0.0099
33483W        W34347  19.114   6.921  21.592 -0.3017  0.0827 -0.0836
33484W        W34348  18.412   3.698  19.697 -0.0422  0.1223  0.2583
33485W        W34349  17.051   7.820  19.255  0.2618  0.0356  0.2019
33486W        W34350  20.019   4.310  16.621  0.1058 -0.1032 -0.0027
33487W        W34351  17.989   5.607  21.483 -0.1242  0.0301  0.3032
33488W        W34352  18.481   6.926  19.635  0.1450 -0.1381  0.2579
33489W        W34353  19.576   3.740  21.710 -0.1385 -0.1290 -0.1937
33490W        W34354  22.710   2.252  21.539 -0.1565  0.1296  0.0401
33491W        W34355  20.078   5.044  19.650 -0.1443 -0.0102 -0.0362
33492W        W34356  20.838   6.678  19.609 -0.0271 -0.0275  0.1644
33493W        W34357  18.130   6.850  17.257  0.0014  0.3147  0.1628
33494W        W34358  19.275   7.846  19.560 -0.3746 -0.0360  0.2406
33495W        W34359  22.728   4.521  20.772  0.2304  0.0685 -0.3036
33496W        W34360  21.303   5.557  20.705  0.1737  0.1267  0.0984
33497W        W34361  23.327   7.374  22.901  0.0633 -0.0016  0.3421
33498W        W34362  20.871   1.340  23.303  0.2626  0.0022 -0.0195
33499W        W34363  20.042   5.428  24.342  0.1947  0.1633  0.1252
33500W        W34364  19.233   6.399  19.590  0.6447  0.0085 -0.2505
33501W        W34365  21.194   7.594  19.035 -0.1254  0.1417 -0.1150
33502W        W34366  18.817   5.479  21.625 -0.0927  0.0646  0.0932
33503W        W34367  20.563   9.257  23.947  0.3162  0.2180 -0.0239
33504W        W34368  21.726   4.893  22.812  0.0217  0.0815  0.0501
33505W        W34369  22.383   6.842  18.887  0.1684 -0.0506  0.2514
33506W        W34370  19.693   4.556  21.407  0.0144 -0.1339  0.0126
33507W        W34371  19.623   6.239  22.054 -0.0046  0.3000  0.0003
33508W        W34372  20.885   5.740  20.462 -0.1551  0.2374 -0.0734
33509W        W34373  19.151   7.423  17.159 -0.0827  0.1125  0.0849
33510W        W34374  20.114   4.852  17.424  0.0787  0.1484 -0.1851
33511W        W34375  19.522   3.193  20.218 -0.0720 -0.0398  0.1940
33512W        W34376  19.140   6.392  21.163 -0.2857  0.0350  0.1292
33513W        W34377  22.472   2.718  20.870  0.2254 -0.0583 -0.1518
33514W        W34378  20.618   0.323  22.868 -0.0584 -0.0696 -0.3905
33515W        W34379  20.224   6.281  21.804  0.0864 -0.3071  0.0688
33516W        W34380  20.209   7.897  19.548  0.3056 -0.0856 -0.1515
33517W        W34381  16.980   9.969  20.796 -0.2772  0.1811  0.0402
33518W        W34382  23.337   6.039  21.157 -0.0148  0.1651 -0.2790
33519W        W34383  16.290   4.421  18.015  0.0508 -0.1679 -0.1661
33520W        W34384  17.582   3.704  19.463  0.3378 -0.1614 -0.1836
33521W        W34385  15.424   3.725  21.188 -0.2356 -0.1685 -0.0091
33522W        W34386  20.305   6.180  18.663 -0.1116  0.1791 -0.1334
33523W        W34387  21.659   6.428  16.577  0.0689 -0.1390 -0.0953
33524W        W34388  19.578   6.720  22.366  0.0443 -0.0420 -0.3291
33525W        W34389  21.985   6.725  22.092 -0.0542  0.2162  0.2088
33526W        W34390  19.603   3.826  19.456  0.1131 -0.2656 -0.2647
33527W        W34391  18.356   5.005  17.701  0.1063  0.2745  0.0931
33528W        W34392  20.021   6.661  17.514 -0.2408 -0.0151  0.1891
33529W        W34393  23.936   7.010  20.491  0.0211 -0.0085  0.3352
33530W        W34394  21.675   5.218  21.141 -0.0921 -0.2512 -0.2431
33531W        W34395  18.936   1.730  19.177 -0.0842  0.0343 -0.2425
33532W        W34396  19.793   6.614  20.338 -0.1101  0.1178 -0.0220
33533W        W34397  21.649   2.456  18.366  0.0457  0.1800 -0.1351
33534W        W34398  17.668   1.192  21.183  0.0631  0.0539 -0.3216
33535W        W34399  22.147   6.428  19.008 -0.0038  0.1810 -0.2270
33536W        W34400  22.723   7.799  17.392  0.2257 -0.0529 -0.1636
33537W        W34401  18.557   3.187  16.196 -0.3777  0.0398 -0.2617
33538W        W34402  20.029   4.320  21.689  0.2693  0.1662  0.1064
33539W        W34403  20.687   7.340  18.959 -0.0718 -0.3158  0.1710
33540W        W34404  19.841   5.022  21.737  0.1178  0.1799 -0.3862
33541W        W34405  18.657   7.123  20.048  0.3758 -0.1004 -0.0678
33542W        W34406  18.836   9.668  21.246  0.2317 -0.3359 -0.0491
33543W        W34407  19.272   5.166  19.015  0.2573  0.2098 -0.0775
33544W        W34408  18.732   6.709  18.859  0.0213 -0.0992 -0.1334
33545W        W34409  19.422   4.778  21.864 -0.1272  0.2121 -0.1135
33546W        W34410  19.288   4.915  18.459  0.1526 -0.2498 -0.2449
33547W        W34411  19.576   5.565  18.865  0.0681  0.2285  0.2402
33548W        W34412  17.819   3.560  19.028 -0.3126  0.3087 -0.0279
33549W        W34413  20.318   5.613  21.122  0.1367  0.1628  0.2650
33550W        W34414  15.786   2.005  19.384  0.0130  0.1739  0.0348
33551W        W34415  22.898   8.510  20.889  0.2893  0.1227  0.3832
33552W        W34416  22.878   4.042  24.056 -0.1758 -0.1572 -0.0332
33553W        W34417  19.306   4.971  23.876  0.1463  0.1425  0.2241
33554W        W34418  16.355   5.900  20.201  0.0828  0.0754  0.1953
33555W        W34419  19.563   5.795  16.257 -0.2227 -0.0447 -0.0322
33556W        W34420  20.501   8.682  19.472  0.1773  0.0253 -0.1365
33557W        W34421  24.008   2.784  20.821 -0.3005  0.1440 -0.2062
33558W        W34422  20.117   4.247  18.070  0.0287 -0.2510  0.1224
33559W        W34423  19.443   3.579  16.981 -0.0018 -0.0699 -0.2058
33560W        W34424  20.574   7.952  20.193 -0.2308  0.1037  0.0169
33561W        W34425  22.352   6.223  16.452  0.0469  0.3332 -0.3095
33562W        W34426  24.175   5.471  22.806  0.0333 -0.0612  0.0791
33563W        W34427  19.618   6.940  21.868  0.2049  0.0963 -0.0665
33564W        W34428  20.139  10.405  21.500 -0.1602  0.1440 -0.1025
33565W        W34429  22.134   3.688  21.029 -0.1185 -0.1369  0.2186
33566W        W34430  21.942   6.470  20.266  0.0456 -0.3757 -0.2848
33567W        W34431  17.116   4.938  18.854  0.3263  0.0723 -0.0658
33568W        W34432  22.021   5.223  17.356  0.0385  0.0888  0.2526
33569W        W34433  21.588   3.455  22.098 -0.3584 -0.2268  0.1987
33570W        W34434  18.275   6.497  19.877  0.1586 -0.1099  0.0270
33571W        W34435  16.089   5.052  19.260 -0.1800  0.0905  0.4658
33572W        W34436  19.707   7.451  18.233  0.2855  0.0550 -0.0533
33573W        W34437  18.385   2.462  20.490  0.0781 -0.1219 -0.0363
33574W        W34438  20.238   8.309  18.276  0.2092 -0.2136  0.1640
33575W        W34439  22.602   4.278  22.116  0.1221 -0.2363 -0.0458
33576W        W34440  18.355   6.341  18.908 -0.1066  0.0148  0.1249
33577W        W34441  17.004   6.614  18.368 -0.3106 -0.0897  0.2445
33578W        W34442  21.305   4.233  23.336 -0.1626 -0.0659  0.1722
33579W        W34443  21.589   7.754  19.730  0.1427  0.1690 -0.1479
33580W        W34444  21.824   7.393  18.843  0.2370  0.0244  0.0127
33581W        W34445  20.552   5.752  17.731  0.0069 -0.0072  0.1634
33582W        W34446  21.333   9.210  20.583 -0.0399  0.1059 -0.0585
33583W        W34447  20.143   6.637  18.552 -0.3247  0.1370  0.3934
33584W        W34448  17.941   3.830  20.283 -0.0161 -0.2355  0.0963
33585W        W34449  17.627   4.718  20.480 -0.0344  0.0463 -0.1495
33586W        W34450  19.403   5.863  18.242  0.0029 -0.0252  0.0977
33587W        W34451  17.972   2.780  20.620  0.3035  0.0060  0.0336
33588W        W34452  20.122   8.270  24.183 -0.1587 -0.1404 -0.0346
33589W        W34453  20.145   3.644  17.880  0.0596 -0.0060  0.1200
33590W        W34454  22.316   2.290  21.206  0.0648  0.2707  0.1800
33591W        W34455  18.690   6.278  21.071  0.1676 -0.2544 -0.1414
33592W        W34456  17.145   5.366  20.285 -0.1098  0.0786  0.1418
33593W        W34457  17.849   4.614  18.356 -0.0675  0.1031 -0.0528
33594W        W34458  20.972   3.337  20.686  0.0535  0.0622  0.1853
33595W        W34459  17.154   8.145  19.626 -0.0122  0.2638 -0.0775
33596W        W34460  21.327   4.123  20.610  0.0700  0.0297  0.0769
33597W        W34461  19.827   5.664  19.447 -0.0048  0.0489 -0.1317
33598W        W34462  20.660   6.339  19.046  0.1262 -0.0787  0.1383
33599W        W34463  15.766   6.552  21.374  0.0236 -0.1752 -0.1242
33600W        W34464  19.684   4.382  19.682 -0.1581  0.0770  0.2188
33601W        W34465  15.506   4.084  18.658 -0.0150  0.1034  0.3061
33602W        W34466  19.493   7.418  21.404  0.1858  0.2016  0.1406
33603W        W34467  19.110   1.528  22.471  0.1104  0.2976 -0.1969
33604W        W34468  16.853   6.036  16.557 -0.0131 -0.1844  0.3136
33605W        W34469  18.777   5.128  18.780  0.0673 -0.1496 -0.1625
33606W        W34470  17.617   6.154  21.174  0.0086 -0.0410 -0.1789
33607W        W34471  18.444   5.351  19.911 -0.0129  0.5544  0.3546
33608W        W34472  21.378   4.929  19.189 -0.0205 -0.0103 -0.0510
33609W        W34473  23.248   7.094  18.360  0.1614 -0.0660 -0.0151
33610W        W34474  20.539   9.627  21.797  0.1763 -0.1887  0.0540
33611W        W34475  25.112   7.223  21.328 -0.0032 -0.3155  0.2650
33612W        W34476  22.111   5.175  20.277  0.0340  0.1698  0.0695
33613W        W34477  16.894   7.360  19.417  0.0101  0.1427  0.1125
33614W        W34478  22.081   5.328  19.695 -0.1039 -0.0023  0.1845
33615W        W34479  20.056   4.739  20.546 -0.0024 -0.3225 -0.1314
33616W        W34480  20.070   3.472  19.649 -0.1484 -0.5574  0.1492
33617W        W34481  16.361   9.371  18.665  0.0226  0.0724  0.0569
33618W        W34482  20.102   4.086  19.586  0.2151 -0.0128  0.1610
33619W        W34483  18.729   3.576  19.152 -0.1018 -0.2463  0.0728
33620W        W34484  17.737   4.708  19.685 -0.0175 -0.0284  0.1770
33621W        W34485  19.346   4.098  19.852 -0.0645 -0.0583  0.0513
33622W        W34486  20.286   9.003  19.057 -0.0208 -0.2476 -0.2098
33623W        W34487  16.513   3.235  17.448  0.0943 -0.1254  0.0236
33624W        W34488  17.465   5.599  19.956 -0.4126  0.0849 -0.0051
33625W        W34489  19.423   7.429  23.110  0.3079  0.1817  0.2608
33626W        W34490  17.641   5.607  18.032  0.2017 -0.2575 -0.2153
33627W        W34491  17.307   1.835  20.893 -0.1037 -0.1719  0.1989
33628W        W34492  21.148   5.052  17.266  0.0009  0.1114 -0.1450
33629W        W34493  20.660   4.660  19.515  0.1391  0.5082  0.1100
33630W        W34494  18.525   5.658  16.668  0.2276  0.0764 -0.1000
33631W        W34495  17.965   6.861  18.056  0.3567  0.3908 -0.0105
33632W        W34496  20.148   2.864  16.725  0.5186 -0.0653  0.0427
33633W        W34497  16.449   7.366  20.314 -0.1281  0.0785  0.1719
33634W        W34498  21.509   5.457  23.571 -0.3165 -0.0976  0.0686
33635W        W34499  19.481   1.887  22.605  0.1423 -0.2958 -0.1902
33636W        W34500  18.093   5.098  21.655  0.0823  0.1825 -0.2968
33637W        W34501  16.563   6.246  17.769 -0.0877 -0.0646 -0.0340
33638W        W34502  20.841   6.246  22.949  0.1482 -0.2470 -0.0649
33639W        W34503  17.711   5.557  16.839  0.2093 -0.0629 -0.0503
33640W        W34504  21.531   3.617  17.455 -0.0881  0.3277 -0.1222
33641W        W34505  18.815   6.494  17.597 -0.4234 -0.0104 -0.2377
33642W        W34506  21.630   5.329  20.314 -0.0349 -0.0425  0.0438
33643W        W34507  20.786   6.183  20.687 -0.2189 -0.0524 -0.0444
33644W        W34508  21.746   7.364  17.382  0.1826 -0.1775 -0.2458
33645W        W34509  19.480   3.487  18.405  0.0120 -0.2189 -0.0465
33646W        W34510  18.632   7.388  19.604 -0.0213  0.0660 -0.0272
33647W        W34511  18.730   5.539  19.513  0.1209 -0.0084 -0.2154
33648W        W34512  22.674   5.359  20.352  0.1325  0.1576  0.0603
33649W        W34513  17.759   6.079  19.005  0.0187  0.3010 -0.0255
33650W        W34514  22.509   6.375  21.462 -0.1657 -0.0665 -0.0015
33651W        W34515  18.990   7.269  21.306 -0.1652 -0.0730  0.0182
33652W        W34516  21.094   4.503  22.418 -0.3642 -0.1894  0.2951
33653W        W34517  18.656   3.862  22.212 -0.0374 -0.0502  0.0950
33654W        W34518  23.867   8.785  22.703  0.2506 -0.0251 -0.1718
33655W        W34519  18.581   4.605  21.812  0.1177 -0.2996  0.0555
33656W        W34520  18.982   6.142  21.990  0.0929 -0.1196  0.1856
33657W        W34521  17.567   7.351  21.468 -0.0156  0.2474 -0.2668
33658W        W34522  20.553   4.233  19.783  0.2088  0.3509  0.2538
33659W        W34523  18.538   6.021  19.626 -0.1342  0.1483 -0.2975
33660W        W34524  21.250   5.277  18.830 -0.1642  0.0935  0.2284
33661W        W34525  21.903   8.044  22.384 -0.0405 -0.0405 -0.0602
33662W        W34526  18.895   6.807  21.149  0.1062  0.1873 -0.0672
33663W        W34527  21.165   9.166  19.158 -0.1470 -0.0249 -0.2388
33664W        W34528  18.330   7.159  22.000 -0.1157 -0.0669  0.2291
33665W        W34529  18.669   5.641  20.635  0.0496 -0.2718 -0.1503
33666W        W34530  21.181   9.850  19.878  0.5401  0.1685 -0.0896
33667W        W34531  19.335   5.428  21.434  0.0691 -0.2310 -0.1802
33668W        W34532  18.926   6.967  18.357 -0.0534 -0.0861  0.6023
33669W        W34533  22.473   7.682  19.996  0.2221 -0.0126  0.1625
33670W        W34534  20.107   9.451  18.176  0.3620 -0.0693 -0.4028
33671W        W34535  19.862   6.724  21.451  0.2722  0.2701  0.1118
33672W        W34536  19.990   3.783  20.984 -0.1708 -0.3079  0.0021
33673W        W34537  19.300   6.838  16.898  0.3650 -0.3200  0.0456
33674W        W34538  19.243   6.285  22.375  0.0954  0.1777  0.1127
33675W        W34539  18.282   6.550  17.607 -0.1554 -0.2135  0.0492
33676W        W34540  22.113   5.887  17.336 -0.1424 -0.1428  0.1662
33677W        W34541  17.608   6.943  26.527 -0.0096 -0.0034 -0.1075
33678W        W34542  17.349   6.406  25.631  0.1694  0.0671  0.2751
33679W        W34543  19.799   5.493  22.885 -0.1477  0.2037  0.2174
33680W        W34544  23.700   9.752  26.243  0.2065 -0.0380  0.5545
33681W        W34545  19.836   7.764  23.070 -0.2178 -0.1353 -0.1415
33682W        W34546  21.347   5.908  21.794  0.0477 -0.0981 -0.0929
33683W        W34547  20.966   0.231  24.557 -0.1083 -0.0258 -0.1237
33684W        W34548  20.409   3.934  20.482  0.0490  0.0255  0.0872
33685W        W34549  18.348   8.109  24.828  0.0448 -0.0281 -0.1561
33686W        W34550  21.210   4.111  25.803  0.0067  0.1200  0.0551
33687W        W34551  23.036   2.757  24.591 -0.0894  0.3641  0.3113
33688W        W34552  21.660   3.525  24.156 -0.0282 -0.3170  0.3661
33689W        W34553  20.798   5.271  20.080  0.0148 -0.0558 -0.1137
33690W        W34554  21.173   3.742  24.097  0.1603 -0.1256  0.1737
33691W        W34555  19.388   2.974  25.065 -0.4040 -0.1591  0.0828
33692W        W34556  16.659   4.651  25.212 -0.0189  0.1745 -0.1206
33693W        W34557  20.740   5.727  19.917 -0.0244  0.1959  0.1692
33694W        W34558  17.881   6.242  24.694 -0.1353 -0.1617  0.1296
33695W        W34559  19.410   2.823  22.939 -0.2362 -0.1961 -0.1474
33696W        W34560  21.823   3.897  22.198 -0.1117  0.0431 -0.3848
33697W        W34561  20.252   4.655  22.508  0.0041  0.0250 -0.0638
33698W        W34562  20.144   3.338  22.713 -0.1779  0.2390  0.2091
33699W        W34563  21.112   6.771  23.160  0.0018 -0.0236 -0.0878
33700W        W34564  17.625   5.757  22.427  0.1850  0.1147 -0.0749
33701W        W34565  19.041   2.532  22.723 -0.2653 -0.0064 -0.1877
33702W        W34566  19.813   3.994  23.651  0.0257  0.2486 -0.0438
33703W        W34567  22.316   4.753  24.250  0.0221 -0.0878 -0.1200
33704W        W34568  16.813   4.466  24.729  0.0290  0.1421 -0.1126
33705W        W34569  21.452   7.129  24.997  0.2089 -0.0763  0.2709
33706W        W34570  18.485   2.639  22.127 -0.1122 -0.3618  0.1176
33707W        W34571  15.132   2.864  21.598 -0.3498  0.0906  0.0662
33708W        W34572  18.054   4.731  25.670 -0.0080  0.3009 -0.0513
33709W        W34573  18.408   4.215  27.724 -0.3128  0.0203  0.2184
33710W        W34574  18.646   7.859  26.793  0.3009 -0.0708 -0.1171
33711W        W34575  19.100   7.205  27.690  0.1073  0.0207  0.3262
33712W        W34576  20.956   5.579  26.080 -0.0707  0.0010 -0.1821
33713W        W34577  19.880   4.572  22.103  0.0258 -0.0021  0.0667
33714W        W34578  19.732   4.662  22.657 -0.2258 -0.0600 -0.0609
33715W        W34579  22.351   8.091  22.098  0.1898 -0.0222 -0.4064
33716W        W34580  22.862   5.964  23.137 -0.2078 -0.2163 -0.1268
33717W        W34581  24.633   4.184  21.983 -0.2625 -0.0397 -0.3099
33718W        W34582  21.409   6.060  24.322 -0.0957  0.0526  0.0751
33719W        W34583  19.930   4.694  23.166 -0.1365 -0.2474 -0.3502
33720W        W34584  20.472   6.890  19.344 -0.2021 -0.1647  0.0920
33721W        W34585  18.622   8.010  22.345  0.0870 -0.1468 -0.1222
33722W        W34586  17.587   6.712  22.743  0.0797  0.0336 -0.2003
33723W        W34587  18.593   5.077  22.775 -0.3083 -0.0035  0.3007
33724W        W34588  23.281   1.211  23.384  0.1357  0.0189  0.1456
33725W        W34589  21.100   5.410  21.131 -0.3401  0.0758  0.0159
33726W        W34590  22.515   3.732  21.357  0.4003 -0.0295  0.0478
33727W        W34591  19.022   6.907  27.275 -0.0848  0.0038 -0.0173
33728W        W34592  19.378   4.569  22.993  0.0162  0.0298 -0.3156
33729W        W34593  23.752   7.779  23.635 -0.1541  0.1838 -0.0979
33730W        W34594  21.033   2.631  21.969  0.3475 -0.2567  0.0767
33731W        W34595  23.408   3.918  22.773 -0.0421  0.0615 -0.1175
33732W        W34596  21.020   6.540  22.112  0.1976  0.0353 -0.1491
33733W        W34597  16.426   4.196  22.392  0.0697  0.2900  0.1795
33734W        W34598  19.574   6.560  23.489 -0.0493 -0.1512 -0.1894
33735W        W34599  18.163   5.422  24.175  0.0110 -0.1982 -0.0093
33736W        W34600  19.503   5.437  24.219  0.0030 -0.3146 -0.0592
33737W        W34601  21.409   5.252  22.004 -0.1436  0.0903 -0.0196
33738W        W34602  17.486   5.660  21.365  0.2627 -0.1081 -0.3199
33739W        W34603  18.322   5.365  26.294 -0.0891 -0.0853 -0.1745
33740W        W34604  18.497   4.280  22.494  0.2945 -0.1742 -0.1435
33741W        W34605  18.966   4.066  22.593  0.0312  0.1416  0.5585
33742W        W34606  22.139   4.258  21.947 -0.0700 -0.1277  0.1771
33743W        W34607  19.457   6.236  20.336  0.0662 -0.1839  0.4315
33744W        W34608  17.037   6.734  22.057  0.0765  0.0105 -0.3296
33745W        W34609  20.340   5.586  23.018 -0.2862 -0.0344  0.1292
33746W        W34610  18.564   5.485  25.123  0.0053  0.1006 -0.2467
33747W        W34611  18.753   6.777  25.600  0.1572  0.0678 -0.0935
33748W        W34612  18.329   5.414  24.689 -0.1882 -0.1231  0.1909
33749W        W34613  21.117   5.603  22.179  0.0114 -0.2001 -0.0066
33750W        W34614  19.831   6.073  21.523 -0.0621 -0.1421 -0.3280
33751W        W34615  23.209   9.192  21.560  0.4034  0.1367 -0.1493
33752W        W34616  21.771   2.063  23.970  0.0724  0.2436  0.0547
33753W        W34617  17.253   5.340  24.486 -0.1650 -0.0429 -0.2950
33754W        W34618  17.912   6.171  21.644 -0.0529 -0.2650  0.1591
33755W        W34619  19.865   5.205  21.246  0.2563 -0.0098 -0.0518
33756W        W34620  20.376   5.102  21.363 -0.1124  0.1517 -0.2958
33757W        W34621  17.378   4.488  22.641 -0.0071  0.0313  0.1929
33758W        W34622  18.305   6.973  25.418  0.0317 -0.0785  0.0064
33759W        W34623  16.328   3.767  23.272 -0.0536 -0.4546 -0.2822
33760W        W34624  18.416   6.336  23.468 -0.1553 -0.1098 -0.0628
33761W        W34625  20.322   4.272  24.430 -0.0200  0.0350  0.1828
33762W        W34626  21.492   3.797  21.765 -0.3114  0.0327 -0.0285
33763W        W34627  22.217   5.980  26.595 -0.0299 -0.0036 -0.3332
33764W        W34628  20.509   3.885  25.189 -0.2420  0.3104 -0.1276
33765W        W34629  21.144   4.380  24.851 -0.0789  0.2547 -0.2913
33766W        W34630  21.966   2.759  24.804 -0.5278  0.0224  0.1810
33767W        W34631  19.134   5.653  24.423 -0.0396  0.0519  0.2870
33768W        W34632  21.123   6.688  25.026  0.0092  0.0127  0.2416
33769W        W34633  17.529   6.419  23.328 -0.0809 -0.2730  0.1805
33770W        W34634  21.176   2.708  22.979 -0.2597 -0.0764  0.2300
33771W        W34635  17.350   3.272  26.024  0.3133 -0.0545 -0.3385
33772W        W34636  19.628   4.677  23.542 -0.0930 -0.1401 -0.2018
33773W        W34637  24.869   8.090  24.412 -0.1782 -0.1029  0.2594
33774W        W34638  16.178   4.482  24.367 -0.0068  0.2720  0.4351
33775W        W34639  18.385   2.941  19.063  0.1244 -0.2743 -0.0858
33776W        W34640  19.572   6.182  23.209  0.1186 -0.0265 -0.1963
33777W        W34641  22.347   9.945  22.253 -0.0339  0.3626 -0.2106
33778W        W34642  17.181   6.634  24.178  0.2007 -0.0333  0.3521
33779W        W34643  21.630   5.441  21.598 -0.0423  0.2394  0.1321
33780W        W34644  22.563   7.198  22.896  0.1085  0.3298 -0.2051
33781W        W34645  21.364   4.807  24.278  0.4856 -0.1607 -0.0130
33782W        W34646  21.050   4.891  23.723 -0.0689  0.0441 -0.0906
33783W        W34647  20.941   3.878  23.269 -0.0871  0.1048 -0.0071
33784W        W34648  20.515   5.215  27.089  0.1453  0.2229  0.2383
33785W        W34649  20.150   2.389  24.131 -0.0115 -0.2099  0.1505
33786W        W34650  17.337   1.779  24.084  0.1020  0.1597 -0.0898
33787W        W34651  20.122   7.655  23.455  0.3071 -0.0003 -0.0238
33788W        W34652  18.215   8.532  22.919 -0.0285 -0.2201  0.0894
33789W        W34653  20.510   5.855  25.494  0.1522 -0.4439  0.0658
33790W        W34654  18.029   5.470  25.073  0.1752  0.4817 -0.1434
33791W        W34655  22.165   6.330  21.788 -0.0926  0.0302 -0.0091
33792W        W34656  18.875   6.430  21.564  0.0812 -0.0908 -0.2650
33793W        W34657  21.728   4.004  23.129  0.2509  0.1898 -0.1540
33794W        W34658  18.746   4.657  26.455  0.0088  0.0015  0.3027
33795W        W34659  21.411   3.148  22.898 -0.0326  0.1358 -0.4147
33796W        W34660  21.126   5.336  22.677 -0.2388 -0.0635 -0.1801
33797W        W34661  21.898   8.081  23.979 -0.3413  0.1999 -0.2019
33798W        W34662  20.463   6.568  22.807  0.1345 -0.3014 -0.1958
33799W        W34663  20.791   6.169  23.525  0.1726 -0.4262  0.0526
33800W        W34664  21.767   5.714  22.037  0.2407 -0.0547  0.0095
33801W        W34665  19.209   4.919  23.308  0.1079  0.0129  0.2511
33802W        W34666  22.155   7.900  25.084  0.1460  0.0960  0.0597
33803W        W34667  19.993   4.160  22.514  0.0640  0.1121  0.1046
33804W        W34668  20.734   5.323  25.224 -0.3607 -0.1145  0.2213
33805W        W34669  24.387   8.156  24.656 -0.0102  0.1466  0.1025
33806W        W34670  20.138   9.084  22.800  0.3258 -0.2701  0.0966
33807W        W34671  20.086   5.246  23.227  0.1564 -0.0317 -0.0742
33808W        W34672  18.711   5.659  26.002  0.0248  0.0681  0.1443
33809W        W34673  19.479   7.435  25.376  0.4722 -0.0933 -0.2929
33810W        W34674  21.966   6.206  22.250  0.0234  0.2104 -0.3527
33811W        W34675  19.314   5.786  25.640  0.2444 -0.0999 -0.0245
33812W        W34676  18.205   3.929  25.948  0.1869  0.1209 -0.0085
33813W        W34677  21.335   6.270  22.702 -0.0644  0.2124  0.2039
33814W        W34678  20.180   4.460  26.246  0.1666  0.0484  0.0239
33815W        W34679  18.593   3.378  23.027  0.1339  0.1856 -0.1058
33816W        W34680  21.220   6.416  21.638 -0.0758 -0.0812 -0.1575
33817W        W34681  19.875   3.584  22.346  0.0961 -0.0119 -0.1563
33818W        W34682  20.388   2.063  24.517 -0.0427 -0.0084  0.0017
33819W        W34683  19.845   7.269  23.289  0.1173  0.0978  0.2247
33820W        W34684  17.732   5.206  20.863 -0.0176  0.0181  0.0643
33821W        W34685  20.062   5.014  27.023 -0.0550  0.2793 -0.1155
33822W        W34686  20.477   5.132  22.308  0.1716 -0.2576 -0.4696
33823W        W34687  21.467   3.946  23.745 -0.1032 -0.0113 -0.1063
33824W        W34688  17.767   6.941  21.771 -0.0122 -0.1466  0.1764
33825W        W34689  20.164   4.334  23.505  0.1602 -0.0520  0.1711
33826W        W34690  17.009   4.980  24.949  0.0433  0.2081 -0.0140
33827W        W34691  22.980   9.006  22.829  0.1183 -0.3915  0.0249
33828W        W34692  16.714   7.245  24.342 -0.0840 -0.1557  0.1428
33829W        W34693  17.342   6.415  22.376  0.0295  0.1054 -0.0805
33830W        W34694  20.540   3.462  20.350 -0.0627 -0.2937  0.2636
33831W        W34695  20.194   4.158  24.880 -0.0366  0.2362  0.1641
33832W        W34696  19.970   5.960  22.935 -0.2844 -0.1763 -0.0289
33833W        W34697  18.756   5.009  23.784  0.1740  0.1332  0.2100
33834W        W34698  21.828   4.643  21.885 -0.2028  0.0850  0.0951
33835W        W34699  16.857   4.595  20.896 -0.1402 -0.1195 -0.0102
33836W        W34700  20.536   5.166  23.355  0.0214  0.2125 -0.0722
33837W        W34701  22.500   4.006  23.748 -0.2891  0.4450 -0.1100
33838W        W34702  17.727   5.225  24.324 -0.0367 -0.0898  0.0597
33839W        W34703  19.782   9.029  27.398 -0.1220  0.0516 -0.2099
33840W        W34704  18.325   5.141  25.415  0.2174 -0.0375 -0.0648
33841W        W34705  22.622   4.631  25.183 -0.0579  0.1688  0.1673
33842W        W34706  18.398   4.190  24.221 -0.2233  0.1019  0.5159
33843W        W34707  16.359   5.202  22.829 -0.1880 -0.0320  0.0440
33844W        W34708  21.118   6.569  20.558 -0.2619 -0.1616  0.0677
33845W        W34709  20.452   5.466  26.217 -0.1672  0.1694 -0.0768
33846W        W34710  21.352   6.847  21.907  0.1226 -0.2951 -0.1546
33847W        W34711  20.095   3.870  24.115  0.0778  0.0132 -0.4184
33848W        W34712  19.912   2.009  24.460  0.1858 -0.1484 -0.0369
33849W        W34713  20.503   6.784  21.194 -0.1644  0.2413 -0.0407
33850W        W34714  21.958   4.099  23.698  0.2521 -0.3390 -0.2307
33851W        W34715  20.132   3.392  24.141 -0.2139 -0.2139 -0.0952
33852W        W34716  22.973   4.190  22.514  0.0579 -0.3147 -0.1475
33853W        W34717  18.157   8.424  25.731 -0.1686 -0.2259 -0.1723
33854W        W34718  17.045   3.346  23.741  0.1192 -0.0136 -0.0077
33855W        W34719  20.549   7.960  22.019 -0.1063 -0.0437  0.1764
33856W        W34720  20.676   4.105  24.779  0.3010 -0.2665  0.1362
33857W        W34721  22.963   6.121  19.301  0.0473  0.0655  0.0641
33858W        W34722  20.296   5.839  19.587  0.0059  0.2195  0.0878
33859W        W34723  20.946   3.327  21.823  0.4331  0.0920 -0.0819
33860W        W34724  18.524   5.964  22.196  0.2637  0.2010  0.0184
33861W        W34725  18.962   2.331  22.098 -0.0247 -0.2969  0.1858
33862W        W34726  18.804   4.401  25.004 -0.0106 -0.0384  0.3744
33863W        W34727  22.678   3.707  22.625 -0.1077 -0.0068 -0.0855
33864W        W34728  18.469   4.628  23.023  0.3000 -0.1943 -0.2390
33865W        W34729  18.504   3.739  24.351  0.0318 -0.5573 -0.0486
33866W        W34730  19.866   2.241  24.974  0.1555 -0.2620  0.0548
33867W        W34731  17.705   6.757  24.691  0.1696  0.1731  0.2162
33868W        W34732  20.590   7.516  23.773  0.2759  0.3674 -0.0429
33869W        W34733  19.150   5.860  26.531  0.2576 -0.1229  0.1987
33870W        W34734  20.736   4.576  24.584  0.0327  0.1351  0.2676
33871W        W34735  18.626   5.611  24.323  0.2032  0.0026  0.4187
33872W        W34736  19.434   2.148  22.189  0.0216  0.1725  0.1201
33873W        W34737  25.573   3.159  22.462 -0.0274  0.0637 -0.3605
33874W        W34738  18.144   3.501  23.161  0.0180  0.0179 -0.3770
33875W        W34739  18.848   6.696  23.348 -0.2888 -0.0082 -0.1722
33876W        W34740  21.165   2.487  22.433  0.2161  0.0249  0.2340
33877W        W34741  18.589   7.482  21.589  0.1000 -0.0272 -0.1409
33878W        W34742  21.560   2.945  24.525  0.1175  0.0086 -0.0281
33879W        W34743  22.173   8.619  23.071 -0.1618  0.1953 -0.1765
33880W        W34744  17.251   3.503  23.172 -0.2489  0.0566 -0.3611
33881W        W34745  20.369   2.973  24.953 -0.2603  0.1308 -0.1224
33882W        W34746  19.576   7.564  21.889  0.1848 -0.0096  0.2856
33883W        W34747  16.715   7.205  26.611 -0.1868 -0.1228 -0.1696
33884W        W34748  20.959   4.266  22.861 -0.1335 -0.0678  0.2584
33885W        W34749  19.757   9.678  18.570  0.3427  0.0197 -0.1517
33886W        W34750  18.207   6.124  20.219  0.1108 -0.1652  0.0862
33887W        W34751  17.397   7.370  25.958 -0.0229  0.1168  0.0987
33888W        W34752  17.587   6.468  27.432  0.3517 -0.0566 -0.0824
33889W        W34753  18.877   5.559  25.533 -0.0126 -0.0476 -0.2488
33890W        W34754  21.467   4.502  22.918  0.4419  0.0673 -0.1573
33891W        W34755  20.291   4.637  24.041 -0.1448 -0.0712 -0.1509
33892W        W34756  21.211   6.109  22.216  0.1682  0.0374  0.0037
33893W        W34757  22.967   4.572  22.936 -0.3333 -0.1316  0.0733
33894W        W34758  23.816   5.924  19.830 -0.1323 -0.2338 -0.1613
33895W        W34759  19.776   5.031  24.129 -0.1335  0.0492  0.0516
33896W        W34760  17.609   6.014  25.493  0.4886  0.0923 -0.1055
33897W        W34761  23.038   2.725  24.070  0.0911  0.0629  0.1281
33898W        W34762  19.231   5.295  21.941 -0.1987 -0.1886  0.0662
33899W        W34763  20.085   5.761  26.381 -0.1965  0.1601 -0.3012
33900W        W34764  20.242   4.798  21.836 -0.0796 -0.2368 -0.1744
33901W        W34765  20.397   8.615  24.455  0.2293  0.3017 -0.2110
33902W        W34766  19.568   3.985  22.268  0.0839  0.0666  0.1296
33903W        W34767  20.425   5.049  24.368  0.2004 -0.2564  0.1328
33904W        W34768  18.007   4.853  24.597  0.2668  0.1997 -0.0415
33905W        W34769  21.264   7.610  24.728  0.2917 -0.0828 -0.1679
33906W        W34770  19.898   6.147  23.566  0.2457  0.1128 -0.1315
33907W        W34771  18.005   4.582  22.824  0.0740 -0.3167 -0.1555
33908W        W34772  17.778   4.938  26.870  0.0375  0.1328 -0.0028
33909W        W34773  19.184   5.435  26.028 -0.0895  0.1280  0.2782
33910W        W34774  21.472   6.624  22.346  0.2320  0.1430  0.0570
33911W        W34775  19.925   2.846  22.737 -0.2986 -0.1248  0.2147
33912W        W34776  21.680   3.615  22.641 -0.4300 -0.1228  0.4828
33913W        W34777  19.530   3.239  23.091 -0.0098 -0.2435  0.2244
33914W        W34778  18.662   2.713  23.449  0.0432  0.0949 -0.1203
33915W        W34779  19.780   5.831  22.462  0.3921 -0.2393 -0.2737
33916W        W34780  19.108   4.881  27.207  0.0478  0.1147 -0.0438
33917W        W34781  18.506   5.065  24.337  0.2634 -0.1688 -0.1620
33918W        W34782  18.464   6.480  25.203  0.0011  0.1800  0.2030
33919W        W34783  17.951   5.746  21.991 -0.0175 -0.1003 -0.3832
33920W        W34784  15.932   4.918  24.018 -0.1665 -0.0941 -0.1051
33921W        W34785  18.166   2.505  23.212 -0.1377 -0.0572  0.3333
33922W        W34786  21.381   7.260  20.512  0.2445  0.2607  0.2208
33923W        W34787  22.681   7.569  20.802 -0.2638 -0.1010  0.0537
33924W        W34788  18.491   4.591  24.582 -0.0009 -0.0754 -0.2997
33925W        W34789  20.627   8.252  22.614  0.1340 -0.0738  0.4038
33926W        W34790  20.533   3.256  23.073 -0.0473  0.0538 -0.0556
33927W        W34791  17.424   5.588  25.815 -0.2685  0.3972  0.0998
33928W        W34792  18.601   6.554  24.237 -0.1161  0.1576 -0.3737
33929W        W34793  20.003   6.754  24.914  0.2791 -0.0705 -0.1001
33930W        W34794  19.415   4.463  22.304  0.3908  0.4942  0.3428
33931W        W34795  15.961   4.707  21.743 -0.0385 -0.2195  0.1771
33932W        W34796  21.837   5.955  20.481 -0.3717  0.1247 -0.1250
33933W        W34797  19.547   2.403  22.696  0.4510  0.0114  0.0896
33934W        W34798  21.292   2.743  26.052  0.0124  0.2309  0.1537
33935W        W34799  21.346   6.248  23.731  0.0197 -0.1368 -0.0191
33936W        W34800  20.126   6.075  20.918  0.4012  0.0016  0.1860
33937W        W34801  18.369   4.734  23.668 -0.1672 -0.0863 -0.1074
33938W        W34802  16.544   1.617  22.885  0.1302 -0.2425 -0.1853
33939W        W34803  16.795   3.819  23.964 -0.1728 -0.6304 -0.0618
33940W        W34804  18.877   4.827  24.776 -0.3425 -0.1951 -0.1852
33941W        W34805  19.181   8.100  23.617  0.2086 -0.0876  0.0899
33942W        W34806  17.428   6.400  24.542  0.0619  0.3010  0.3618
33943W        W34807  19.774   8.069  21.080  0.3287 -0.0349 -0.0844
33944W        W34808  20.644   5.458  22.626  0.0958  0.0089  0.0156
33945W        W34809  17.899   5.394  26.636 -0.0254 -0.2196 -0.0747
33946W        W34810  23.854   5.275  22.172  0.3468  0.1595 -0.2267
33947W        W34811  20.076   7.705  21.405 -0.3380 -0.2284 -0.1564
33948W        W34812  19.567   5.488  25.322 -0.0911 -0.0836 -0.0763
33949W        W34813  21.321   6.971  25.463  0.3385 -0.0453  0.1000
33950W        W34814  17.768   3.951  26.936 -0.0775  0.0324 -0.1014
33951W        W34815  21.040   5.879  22.620 -0.2621 -0.1497  0.0555
33952W        W34816  23.028   5.816  22.647 -0.1205 -0.0761 -0.4263
33953W        W34817  19.083   1.736  24.699  0.1372  0.1468 -0.2188
33954W        W34818  19.278   4.478  23.805 -0.0454 -0.0893  0.3037
33955W        W34819  24.326   5.346  22.351  0.1440  0.0977 -0.0604
33956W        W34820  17.440   8.210  24.300  0.3699  0.0989 -0.0253
33957W        W34821  18.625   4.547  23.997 -0.4614  0.0627  0.0945
33958W        W34822  20.555   3.751  22.895 -0.1899  0.2897  0.0724
33959W        W34823  18.488   7.146  21.185 -0.0293  0.0761  0.0869
33960W        W34824  18.867   6.317  24.923 -0.1389  0.1521 -0.2742
33961W        W34825  21.675   6.637  21.569  0.0907 -0.0994 -0.1936
33962W        W34826  22.677   4.866  24.763  0.0553  0.0468  0.2386
33963W        W34827  18.735   3.955  21.699  0.1834  0.1531  0.2390
33964W        W34828  18.086   5.880  25.297  0.0006  0.0812 -0.2361
33965W        W34829  23.674   4.110  24.546 -0.1503  0.1095  0.1035
33966W        W34830  22.958   4.096  20.753  0.0588 -0.0956 -0.1397
33967W        W34831  17.509   6.845  20.483 -0.1904 -0.1868 -0.0678
33968W        W34832  21.733   2.748  20.443  0.2327  0.1845  0.2248
33969W        W34833  19.663   5.762  23.899 -0.1048 -0.3091  0.0222
33970W        W34834  18.765   6.945  22.179  0.0728 -0.2839  0.2701
33971W        W34835  22.503   7.553  23.324  0.0341  0.1346 -0.0688
33972W        W34836  21.773   4.572  22.360  0.2443 -0.0253  0.1584
33973W        W34837  18.659   2.603  24.081 -0.1228  0.0167 -0.1366
33974W        W34838  21.631   5.371  22.512  0.2365 -0.1585 -0.0072
33975W        W34839  21.663   5.938  23.435  0.2713  0.0318 -0.0240
33976W        W34840  18.593   5.951  25.278 -0.2381  0.1012  0.0550
33977W        W34841  18.934   4.687  21.090  0.0074  0.0387 -0.3410
33978W        W34842  17.015   1.642  25.084 -0.0686 -0.2170  0.1738
33979W        W34843  19.873   4.913  26.103 -0.0497 -0.2109  0.0747
33980W        W34844  23.834   5.243  23.121 -0.0094  0.0093 -0.1928
33981W        W34845  19.831   6.327  19.326 -0.1215 -0.1666  0.0013
33982W        W34846  20.198   5.347  21.841  0.0569  0.0508 -0.0703
33983W        W34847  21.560   4.898  23.736  0.0320  0.0248 -0.5766
33984W        W34848  19.935   3.788  22.858  0.0726  0.2548  0.1546
33985W        W34849  18.044   4.942  21.144 -0.1066  0.0384  0.0901
33986W        W34850  16.745   9.084  24.054  0.2381  0.2975  0.0754
33987W        W34851  21.895   3.074  22.234  0.1651 -0.2212  0.1519
33988W        W34852  20.873   4.745  25.243 -0.2363 -0.1650 -0.2120
33989W        W34853  19.686   3.576  24.036 -0.0202  0.0575 -0.0800
33990W        W34854  20.049   4.738  21.070  0.0045  0.0628  0.2082
33991W        W34855  18.942   2.944  23.788  0.3886 -0.0488 -0.2798
33992W        W34856  17.686   6.363  26.403  0.1228  0.3091 -0.0347
33993W        W34857  21.278   7.359  21.912  0.1954  0.1690  0.1913
33994W        W34858  23.594   5.189  22.648 -0.1027 -0.0142 -0.1718
33995W        W34859  19.953   4.575  25.353  0.1436 -0.1346  0.0291
33996W        W34860  18.949   6.226  23.445  0.0417  0.2638  0.1495
33997W        W34861  19.017   7.381  22.852 -0.0477 -0.1335  0.0887
33998W        W34862  23.795   6.991  21.913  0.0451  0.1113 -0.4935
33999W        W34863  18.688   7.948  26.301  0.0800 -0.2451 -0.0364
34000W        W34864  19.227   7.170  22.217  0.0107 -0.0158  0.0832
34001W        W34865  18.551   6.477  22.865  0.0486  0.1229 -0.0931
34002W        W34866  19.334   5.464  22.584  0.0748  0.0027 -0.4711
34003W        W34867  19.711   1.921  23.924  0.2517  0.1850 -0.2935
34004W        W34868  16.509   6.347  24.884 -0.0345 -0.1060 -0.0323
34005W        W34869  19.408   6.499  18.603  0.1425 -0.0796 -0.1805
34006W        W34870  16.425   4.984  23.862  0.0336  0.2215  0.0894
34007W        W34871  18.710   5.599  26.511  0.1279 -0.0394 -0.1690
34008W        W34872  20.199   7.112  22.087  0.0807 -0.2232  0.0254
34009W        W34873  20.697   8.327  25.046  0.1499 -0.0813  0.3937
34010W        W34874  21.051   6.320  26.042  0.0907 -0.0316  0.0534
34011W        W34875  21.320   8.117  24.692 -0.5392 -0.0910  0.4420
34012W        W34876  22.002   7.392  25.865  0.0009 -0.0639  0.0535
34013W        W34877  18.147   8.060  23.481 -0.1916  0.1267 -0.2430
34014W        W34878  22.820   3.030  22.650 -0.2567  0.0255 -0.2956
34015W        W34879  20.196   5.585  22.393 -0.1043  0.0810 -0.1457
34016W        W34880  21.846   5.111  23.416  0.1478  0.0697  0.2212
34017W        W34881  18.146   7.686  22.248  0.0820  0.0532 -0.1140
34018W        W34882  18.146   4.426  26.089 -0.0879  0.2306  0.1435
34019W        W34883  18.898   3.549  22.531 -0.0787  0.2402 -0.1928
34020W        W34884  16.622   6.078  22.307 -0.3203 -0.3523  0.2128
34021W        W34885  19.371   3.556  19.880  0.1219 -0.1673  0.0705
34022W        W34886  18.352   5.590  25.596 -0.2038  0.2087  0.0446
34023W        W34887  21.523   8.215  20.541  0.0250 -0.0642  0.0536
34024W        W34888  18.150   5.049  23.245  0.1163  0.1703  0.1752
34025W        W34889  21.755   8.952  20.408  0.2018 -0.0591  0.1705
34026W        W34890  20.076   5.442  23.774  0.2753  0.0054 -0.3905
34027W        W34891  19.886   7.305  25.707  0.3513  0.1027  0.3522
34028W        W34892  24.011   2.974  22.138 -0.0381 -0.0160 -0.0268
34029W        W34893  20.660   4.285  23.330  0.2669  0.0695 -0.1903
34030W        W34894  17.144   6.425  23.706  0.0127 -0.1344 -0.0785
34031W        W34895  19.413   7.579  22.510 -0.0994 -0.0841  0.3709
34032W        W34896  19.006   3.987  20.580  0.0878 -0.0420 -0.0736
34033W        W34897  18.567   3.671  23.394 -0.2703 -0.0738  0.0580
34034W        W34898  19.566   4.242  25.402 -0.0209  0.0938  0.1290
34035W        W34899  15.392   4.720  23.922  0.1787  0.1141  0.2419
34036W        W34900  17.712   4.317  25.067 -0.1284 -0.0554 -0.3588
34037W        W34901  19.480   4.975  22.326 -0.1688 -0.0807 -0.4078
34038W        W34902  20.825   3.030  25.285 -0.0565 -0.2963 -0.1639
34039W        W34903  18.582   6.499  26.751  0.1188 -0.1204 -0.0240
34040W        W34904  22.114   5.877  22.619 -0.0932 -0.0980  0.1731
34041W        W34905  20.855   6.344  24.652 -0.1064  0.0104  0.2536
34042W        W34906  21.618   7.615  23.699 -0.0434  0.5226  0.0877
34043W        W34907  21.595   6.335  21.979 -0.0262  0.2261  0.1801
34044W        W34908  21.626   7.706  23.204  0.1115  0.0460  0.0809
34045W        W34909  20.437   2.368  23.140 -0.0864 -0.1905 -0.0844
34046W        W34910  23.201   6.120  21.996  0.1660  0.2490 -0.1516
34047W        W34911  19.018   3.733  22.998  0.0013 -0.1638  0.2125
34048W        W34912  21.266   8.544  23.513  0.1034  0.0550 -0.1808
34049W        W34913  18.694   4.353  21.368  0.2454 -0.0220 -0.0517
34050W        W34914  21.096   8.365  24.141 -0.1769 -0.2211  0.3035
34051W        W34915  21.036   7.615  21.022  0.0443  0.0088  0.1148
34052W        W34916  19.695   2.584  27.228  0.1734  0.1716  0.2706
34053W        W34917  18.407   5.697  21.780 -0.0596  0.0940  0.0973
34054W        W34918  20.848   6.681  23.736  0.1581  0.0541 -0.2226
34055W        W34919  21.613   6.693  23.028 -0.2041  0.0282 -0.0906
34056W        W34920  18.846   4.560  23.550  0.1086 -0.3755 -0.1333
34057W        W34921  19.682   6.767  23.007  0.0102 -0.0200 -0.0001
34058W        W34922  17.726   8.220  23.825 -0.0384 -0.0454 -0.0389
34059W        W34923  16.892   6.057  22.743 -0.0346 -0.0402  0.0199
34060W        W34924  20.304   2.836  24.032  0.0239 -0.1304 -0.4346
34061W        W34925  21.645   5.917  22.457  0.2938  0.1837 -0.1956
34062W        W34926  22.060   4.993  23.856  0.0179  0.2868  0.1172
34063W        W34927  22.114   7.464  23.695 -0.1819  0.1082 -0.1540
34064W        W34928  20.579   6.122  24.144 -0.5139 -0.2816  0.5071
34065W        W34929  17.481   5.783  23.231  0.3195 -0.2333  0.3951
34066W        W34930  22.757   8.069  25.984 -0.1499  0.1997  0.1003
34067W        W34931  17.959   5.693  23.865  0.2425  0.1092 -0.0761
34068W        W34932  17.077   8.916  25.741  0.0504 -0.1332  0.0223
34069W        W34933  20.835   5.741  23.063 -0.0426 -0.0004  0.4246
34070W        W34934  20.345   4.911  25.292 -0.3538 -0.0657  0.0112
34071W        W34935  17.539   5.645  25.130 -0.1622  0.0255 -0.0946
34072W        W34936  20.166   6.299  26.587 -0.4912  0.3047 -0.1033
34073W        W34937  19.896   5.651  23.319  0.0035  0.1436  0.0403
34074W        W34938  18.108   6.632  23.806  0.0082  0.0881  0.0030
34075W        W34939  21.184   7.927  21.765 -0.2179 -0.0868 -0.1891
34076W        W34940  16.839   5.101  23.177 -0.2145 -0.1899 -0.0651
34077W        W34941  19.538   6.056   0.318 -0.2048  0.1315  0.0927
34078W        W34942  17.734   4.771  28.583 -0.0243  0.4572  0.4184
34079W        W34943  20.964   7.138  23.525 -0.1693  0.3992 -0.2224
34080W        W34944  24.108   7.279  28.868  0.0306 -0.0401 -0.0278
34081W        W34945  22.467   7.148  24.918  0.3638  0.1076 -0.5792
34082W        W34946  18.784   5.613  27.888 -0.2103 -0.1815 -0.2819
34083W        W34947  18.663   7.042  27.666 -0.1969 -0.0644  0.0678
34084W        W34948  22.042   8.061  25.955 -0.1091 -0.4264  0.0828
34085W        W34949  18.319   7.022   0.265  0.0080  0.4035  0.1962
34086W        W34950  19.286   1.528   0.886 -0.2736 -0.0142  0.1651
34087W        W34951  16.852   2.687  26.081 -0.0198  0.1014  0.1313
34088W        W34952  19.407   2.759  26.496 -0.0013  0.5104 -0.0587
34089W        W34953  20.840   4.919  22.707 -0.0595  0.0629 -0.0756
34090W        W34954  21.138   5.054  28.325 -0.1898  0.1738 -0.1638
34091W        W34955  17.228   4.004  27.265  0.1190  0.0720  0.2590
34092W        W34956  17.740   6.188  26.948 -0.2453 -0.2658  0.1757
34093W        W34957  20.028   4.681  26.674 -0.1875  0.0761 -0.2438
34094W        W34958  17.507   3.690  25.271 -0.0553 -0.2140  0.0552
34095W        W34959  18.252   4.079  29.085 -0.1474  0.1605 -0.4419
34096W        W34960  19.963   5.816  25.484 -0.1721 -0.0864  0.1109
34097W        W34961  24.350   3.918  28.935  0.2086 -0.0831  0.1318
34098W        W34962  20.725   6.515  28.039 -0.3316 -0.1331 -0.0845
34099W        W34963  20.071   7.057  28.158  0.1717 -0.1969 -0.1767
34100W        W34964  20.686   3.507  27.859  0.0517  0.0007  0.2757
34101W        W34965  16.624   2.821  27.108 -0.2789 -0.0052  0.2575
34102W        W34966  20.179   4.796   0.378  0.2018  0.1681  0.0568
34103W        W34967  22.463   4.287  28.342 -0.3874  0.1429 -0.1383
34104W        W34968  18.645   6.490   0.157 -0.2286 -0.1193 -0.1746
34105W        W34969  20.907   7.015  27.890 -0.1018 -0.0089 -0.0973
34106W        W34970  18.551   4.383  28.260 -0.0579 -0.1398  0.2292
34107W        W34971  20.871   4.202  25.323 -0.0012  0.3753 -0.0032
34108W        W34972  20.073   4.880   1.016 -0.0161  0.1162  0.0131
34109W        W34973  17.184   7.256   2.266 -0.1244 -0.3634 -0.0645
34110W        W34974  20.904   6.705   0.731 -0.2282 -0.1368  0.1175
34111W        W34975  19.312   4.619  28.667  0.0832  0.1549 -0.0170
34112W        W34976  21.724   5.938  29.026  0.1890 -0.1253  0.2553
34113W        W34977  18.443   3.325  26.673 -0.2918  0.1179 -0.1007
34114W        W34978  19.996   6.328  27.296 -0.2756  0.1108 -0.2062
34115W        W34979  22.529   6.237  25.814  0.0523 -0.0249  0.0679
34116W        W34980  21.501   3.380  27.972  0.0296 -0.2105 -0.1146
34117W        W34981  22.101   4.498  25.927  0.1377 -0.0709 -0.1554
34118W        W34982  22.777   3.481  28.351 -0.0448  0.1956 -0.1625
34119W        W34983  19.318   5.787  27.017 -0.0937  0.1624 -0.0687
34120W        W34984  18.698   7.786  27.306  0.2797 -0.1691 -0.0890
34121W        W34985  18.022   8.558  23.480  0.0618  0.1304 -0.2413
34122W        W34986  19.102   4.357  27.118 -0.2988  0.0330  0.1757
34123W        W34987  19.789   3.670  28.229 -0.3810  0.0779  0.2182
34124W        W34988  22.901   3.411  27.471  0.2294 -0.2687 -0.1973
34125W        W34989  19.464   6.905  27.697 -0.0341  0.0338  0.1895
34126W        W34990  20.500   4.224  23.916  0.0264  0.0345 -0.0618
34127W        W34991  21.225   4.585  28.484 -0.1041 -0.2280  0.1286
34128W        W34992  20.445   1.780  28.462  0.2689  0.0801  0.1094
34129W        W34993  19.632   7.387   1.134  0.2560 -0.0025  0.0398
34130W        W34994  16.933   5.881  28.074 -0.0287  0.1685  0.0022
34131W        W34995  19.868   5.126  25.112  0.1945  0.0832  0.0614
34132W        W34996  19.604   5.896  26.644 -0.0012  0.1308 -0.1121
34133W        W34997  20.572   2.849  27.164  0.0572  0.4248 -0.2534
34134W        W34998  22.180   3.142  26.762  0.0021 -0.1319  0.2347
34135W        W34999  19.425   7.368  28.484  0.1603  0.0364  0.4987
34136W        W35000  19.758   7.243  26.301  0.1716  0.0395 -0.2048
34137W        W35001  22.154   6.498  25.487  0.0540 -0.0044 -0.1907
34138W        W35002  20.901   8.771  25.273  0.0696  0.1012 -0.1960
34139W        W35003  20.167   7.068  28.650 -0.0570  0.1713 -0.4515
34140W        W35004  20.366   5.779  28.353 -0.0372 -0.0236  0.0555
34141W        W35005  18.373   3.637   0.192  0.1284 -0.3533 -0.2293
34142W        W35006  18.830   5.044  25.239  0.0729 -0.1160 -0.0284
34143W        W35007  18.213   6.588  25.743 -0.2041  0.0115 -0.1994
34144W        W35008  16.815   8.113  26.423 -0.0568  0.1049 -0.0937
34145W        W35009  19.271   6.550  25.565 -0.4202  0.5341 -0.1016
34146W        W35010  20.758   5.595  28.688 -0.0401  0.0353  0.0553
34147W        W35011  23.379   8.233   0.028  0.2448  0.0064  0.2596
34148W        W35012  19.435   1.978  25.250 -0.0934 -0.1703  0.1112
34149W        W35013  22.563   6.797  25.598 -0.5417 -0.0510  0.1058
34150W        W35014  21.395   2.776  27.187  0.0088  0.2896  0.0820
34151W        W35015  22.018   8.499  27.551  0.2828 -0.3487  0.0357
34152W        W35016  21.835   5.403  28.722  0.0240 -0.0670  0.3707
34153W        W35017  17.495   5.981  26.047 -0.0787 -0.0833 -0.0811
34154W        W35018  18.362   5.603  29.120 -0.3616 -0.2113 -0.0148
34155W        W35019  19.222   4.907  27.767  0.0252 -0.0735  0.0173
34156W        W35020  21.612   5.642  26.705 -0.1263  0.1243  0.0723
34157W        W35021  17.925   3.489  26.775  0.0002  0.0284  0.1612
34158W        W35022  19.961   4.137  28.193 -0.0508  0.2419  0.4042
34159W        W35023  17.697   1.546  23.620  0.3581 -0.0505 -0.1034
34160W        W35024  22.150   2.670  26.508 -0.1040  0.0197 -0.1328
34161W        W35025  21.324   3.992   0.956  0.1235  0.0792 -0.2581
34162W        W35026  20.484   4.913  26.704 -0.2443  0.2546  0.0972
34163W        W35027  24.240   6.965   0.263  0.1087  0.2880  0.0333
34164W        W35028  20.333   3.224  28.635 -0.1767  0.2230  0.0250
34165W        W35029  21.513   4.382   0.676 -0.1753 -0.4017  0.6001
34166W        W35030  23.315   3.741  27.568 -0.1970  0.3357 -0.0341
34167W        W35031  19.881   2.724  25.082  0.2058  0.0586 -0.0895
34168W        W35032  20.069   5.337   2.396 -0.3071 -0.2350 -0.2342
34169W        W35033  19.077   8.060  25.910  0.0435 -0.0591  0.2075
34170W        W35034  19.687   4.566  27.068 -0.3347 -0.1638 -0.0144
34171W        W35035  19.290   2.328  28.856 -0.1791 -0.0897 -0.2170
34172W        W35036  21.412  29.070  26.914 -0.0460 -0.0562  0.2655
34173W        W35037  20.044   4.050  25.334 -0.2282  0.1437 -0.1062
34174W        W35038  20.456   5.970  27.331  0.1521  0.1280 -0.0057
34175W        W35039  18.837   3.113  24.281  0.0482 -0.0141 -0.0541
34176W        W35040  20.169   3.046  25.387  0.1326 -0.1764 -0.1482
34177W        W35041  20.308   7.338  26.022 -0.0571  0.0003 -0.0490
34178W        W35042  19.598   6.800   2.091 -0.0090  0.1515  0.2598
34179W        W35043  23.229   6.280  23.409  0.1069  0.0605  0.0757
34180W        W35044  22.241   5.947  26.046 -0.2359  0.1511 -0.2985
34181W        W35045  23.021   2.632  26.053  0.0904  0.2845  0.0230
34182W        W35046  22.060   4.015  28.435  0.2398 -0.1172  0.1004
34183W        W35047  18.168   7.196  26.392 -0.1812 -0.2189 -0.0279
34184W        W35048  22.541   5.013   1.189  0.0116 -0.2955  0.1845
34185W        W35049  18.773   3.654  24.843 -0.3233 -0.1715 -0.1111
34186W        W35050  18.384   4.287  25.638 -0.0355 -0.0542 -0.0909
34187W        W35051  18.659   4.825  28.846  0.1902  0.1886 -0.2567
34188W        W35052  21.988   4.612  27.140 -0.0192  0.5887  0.1353
34189W        W35053  21.567   4.284  28.063 -0.0795 -0.1788 -0.2988
34190W        W35054  20.207   6.958  26.361  0.2501  0.3923 -0.2847
34191W        W35055  23.161   4.738  23.720 -0.2741  0.2390  0.0501
34192W        W35056  19.459   3.332  26.746  0.2086  0.0028  0.0367
34193W        W35057  22.779   4.867  28.610 -0.1924 -0.1991  0.0546
34194W        W35058  20.480   8.086  25.553 -0.2593  0.0977 -0.1537
34195W        W35059  20.606   4.289  26.672  0.2391  0.2491  0.6464
34196W        W35060  21.736   7.430  24.640 -0.0257  0.1437 -0.1705
34197W        W35061  19.214   4.592  25.236 -0.1959 -0.1232 -0.1705
34198W        W35062  20.211   8.155  26.036  0.1541  0.0718 -0.0067
34199W        W35063  23.234   5.217  27.734  0.0310 -0.1555  0.0866
34200W        W35064  19.906   4.499   0.650  0.0634 -0.0616  0.0335
34201W        W35065  19.671   3.966  27.820 -0.1124  0.2868 -0.1672
34202W        W35066  19.575   5.019  26.735  0.1325 -0.1749 -0.2942
34203W        W35067  17.453   3.865  27.947  0.3314 -0.0698 -0.1460
34204W        W35068  21.318   3.886   0.442  0.0307 -0.3077  0.1511
34205W        W35069  20.906   8.191  26.454  0.0019  0.0259  0.0065
34206W        W35070  18.751   5.840  28.809 -0.1887  0.0367  0.1771
34207W        W35071  21.485   3.852  27.700 -0.2053  0.0331 -0.0637
34208W        W35072  20.551   4.119  26.100  0.1810 -0.0953 -0.0889
34209W        W35073  19.800   8.151  27.266  0.1172  0.0585 -0.0614
34210W        W35074  23.809   3.447  26.481 -0.1666 -0.0381  0.0850
34211W        W35075  21.097   3.249  27.125  0.0251  0.3376  0.0181
34212W        W35076  18.235   4.611  28.586 -0.1739 -0.1742  0.0062
34213W        W35077  19.727   1.683  27.150  0.0415  0.1121  0.2567
34214W        W35078  23.228   2.190  28.120 -0.0824 -0.1118  0.0025
34215W        W35079  21.756   6.062  26.291  0.1595  0.1626  0.1448
34216W        W35080  19.765   6.655  25.913  0.1876  0.1789  0.0602
34217W        W35081  16.010   4.820  24.767  0.1652  0.4336 -0.4464
34218W        W35082  20.918   3.674  24.516 -0.0079 -0.0975  0.1162
34219W        W35083  19.055   8.306  26.381 -0.2527  0.0052  0.2058
34220W        W35084  18.456   5.761  28.316  0.0278  0.0259 -0.1243
34221W        W35085  21.248   6.988   0.585 -0.4533 -0.1720  0.3100
34222W        W35086  19.160   4.384  26.236 -0.0373 -0.0773  0.1426
34223W        W35087  20.577   3.743  24.144 -0.3084 -0.1063 -0.3290
34224W        W35088  20.050   5.059  25.629  0.0092 -0.0839  0.1898
34225W        W35089  19.360   6.332  27.955 -0.1008  0.2244  0.0518
34226W        W35090  18.926   7.084  28.143 -0.3271  0.0597 -0.2497
34227W        W35091  24.383   8.673  28.392 -0.2474  0.0981 -0.3150
34228W        W35092  17.827   3.779  22.710 -0.4703 -0.1067  0.0965
34229W        W35093  19.753   6.694  28.044 -0.2149  0.2517  0.1571
34230W        W35094  18.193   2.934  26.156 -0.1314 -0.0532 -0.2558
34231W        W35095  21.308   4.810  26.441  0.1181 -0.0614  0.2140
34232W        W35096  20.609   2.336  25.755  0.2142 -0.0281 -0.3547
34233W        W35097  19.238   4.039  27.608 -0.0303  0.0677  0.2096
34234W        W35098  16.145   6.432  26.367 -0.0736  0.0747 -0.2856
34235W        W35099  19.736   2.428  23.852 -0.2711 -0.1715  0.0660
34236W        W35100  20.439   6.503  27.550 -0.0284  0.1205  0.0656
34237W        W35101  20.766   4.964  28.640  0.3133 -0.1063 -0.0952
34238W        W35102  20.773   3.796  26.491  0.1008 -0.1472  0.1717
34239W        W35103  21.527   5.770  28.061 -0.2321  0.0853  0.2799
34240W        W35104  22.480   4.293  27.143  0.2066  0.0626 -0.1332
34241W        W35105  19.047   5.211  28.142 -0.0575 -0.0312  0.2514
34242W        W35106  18.665   2.687  27.580  0.1063  0.3333  0.0214
34243W        W35107  19.424   2.987  25.950 -0.0577  0.0912 -0.4553
34244W        W35108  19.415   9.429  28.773 -0.0761  0.2250  0.0577
34245W        W35109  19.811   6.395   1.518  0.1974  0.3017 -0.1831
34246W        W35110  19.271   8.382  27.596 -0.0765  0.0636  0.2002
34247W        W35111  18.685   3.339  29.020  0.1416 -0.1659 -0.0117
34248W        W35112  22.781   2.500  28.934 -0.1229 -0.2402  0.1008
34249W        W35113  20.388   4.084   0.718  0.1865  0.3617 -0.2530
34250W        W35114  19.221   4.982  26.324  0.2721  0.0962 -0.1531
34251W        W35115  19.393   3.520  25.941 -0.3785  0.1609 -0.0097
34252W        W35116  22.615   2.854  26.618 -0.4135 -0.1089 -0.4828
34253W        W35117  19.554   6.480  28.441  0.3352 -0.0489  0.1547
34254W        W35118  20.350   3.571  28.974  0.0968  0.2327 -0.1249
34255W        W35119  17.590   7.594  24.941  0.0534 -0.4114 -0.2317
34256W        W35120  19.478   6.328  27.004 -0.1885  0.1253 -0.0692
34257W        W35121  19.315   7.726  23.939  0.1686 -0.0090 -0.1237
34258W        W35122  23.540   8.224  25.307 -0.1066  0.1946  0.1909
34259W        W35123  19.208   5.136  25.522 -0.1155 -0.0292  0.1126
34260W        W35124  21.770   2.564  28.753  0.0894  0.2675  0.2112
34261W        W35125  18.037   3.010  26.650  0.1927  0.2353 -0.1155
34262W        W35126  20.428   3.958  27.432  0.0652 -0.3202  0.1986
34263W        W35127  23.112   3.000  27.116  0.1363 -0.0528 -0.1385
34264W        W35128  19.864   2.875  24.229  0.0749  0.0587  0.1582
34265W        W35129  19.606   4.576  26.469  0.1417  0.2472 -0.4704
34266W        W35130  18.566   5.992  27.379 -0.2985 -0.0321 -0.1593
34267W        W35131  21.038   6.576  26.877 -0.0353  0.1981 -0.4258
34268W        W35132  16.469   6.167  24.439  0.0165  0.0999 -0.2619
34269W        W35133  17.981   6.465   0.204 -0.1344 -0.2027  0.1278
34270W        W35134  20.050   4.019  28.902  0.1213  0.0556  0.0291
34271W        W35135  21.537   1.840  26.505  0.0106 -0.0223 -0.0595
34272W        W35136  22.074   6.459  24.174  0.1990  0.1267  0.2098
34273W        W35137  24.024   3.982  26.631  0.3844  0.0763  0.0101
34274W        W35138  18.160   5.031  28.775 -0.0425 -0.1543 -0.5090
34275W        W35139  18.986   4.436  27.920  0.0181 -0.3101  0.3883
34276W        W35140  21.112   4.226  28.157  0.0483 -0.3210 -0.3172
34277W        W35141  19.517   5.244  27.900 -0.1839 -0.2158 -0.3671
34278W        W35142  22.497   1.980  27.134  0.0550 -0.0574 -0.1583
34279W        W35143  20.640   5.243  25.756 -0.0882  0.0024  0.1319
34280W        W35144  17.404   7.117  27.365 -0.1132 -0.2530 -0.0535
34281W        W35145  21.220   6.944  27.100  0.1180  0.0799 -0.0697
34282W        W35146  21.754   3.330  25.487  0.1187  0.0369  0.3327
34283W        W35147  18.078   4.385  28.153  0.1106 -0.1679 -0.2943
34284W        W35148  18.087   2.170  28.247  0.0855  0.1450 -0.0754
34285W        W35149  19.073   5.961  25.246 -0.0756 -0.2385  0.0769
34286W        W35150  17.872   4.125  27.840 -0.1463  0.0268  0.0028
34287W        W35151  20.587   3.387  27.362  0.0251  0.1616 -0.1351
34288W        W35152  18.415   3.031  27.048 -0.1545 -0.1607  0.0556
34289W        W35153  20.582   6.561  28.753  0.2888 -0.0153 -0.2313
34290W        W35154  20.523   3.998  25.661  0.0588 -0.1009  0.0350
34291W        W35155  23.294   4.202  28.265 -0.4141 -0.0161 -0.0576
34292W        W35156  18.004   3.779  25.515 -0.4440  0.0450 -0.0181
34293W        W35157  20.631   6.487  25.678  0.0420 -0.2951  0.1547
34294W        W35158  20.649   9.024  26.617 -0.0954  0.1163  0.1064
34295W        W35159  20.737   4.485  28.803 -0.1079 -0.1394 -0.0251
34296W        W35160  19.973   6.170  28.274  0.1780 -0.1688  0.2490
34297W        W35161  24.468   2.217   0.447  0.0401 -0.1664  0.0243
34298W        W35162  20.414   3.728  27.005  0.1944  0.2513  0.0638
34299W        W35163  22.158   7.087  27.547 -0.1760  0.0448 -0.0321
34300W        W35164  18.077   2.237  22.147  0.1786  0.1195 -0.0372
34301W        W35165  22.567   8.835  22.620 -0.2368  0.0481  0.1647
34302W        W35166  19.777   4.526  28.442  0.0235 -0.1711  0.1873
34303W        W35167  20.618   6.983  28.451  0.1754 -0.0430  0.0160
34304W        W35168  22.385   4.721  27.691 -0.1800 -0.0024  0.0174
34305W        W35169  20.677   6.126  26.736 -0.0525  0.1653 -0.0624
34306W        W35170  22.701   4.602   0.328 -0.3263 -0.2280  0.2761
34307W        W35171  17.705   5.068  27.632 -0.3036  0.1325  0.0117
34308W        W35172  20.830   4.255  27.141 -0.2245  0.0381 -0.1390
34309W        W35173  20.083   6.768  23.466 -0.1114 -0.2138  0.1224
34310W        W35174  23.805   6.992  29.038 -0.0852  0.1410 -0.1205
34311W        W35175  19.387   5.709  27.927 -0.2726 -0.3673  0.0527
34312W        W35176  18.005   5.464  28.408  0.0119 -0.0688 -0.0695
34313W        W35177  20.715   6.030  26.230  0.3157 -0.1141 -0.0983
34314W        W35178  21.028   3.001   0.040  0.0720  0.2271 -0.0471
34315W        W35179  21.277   6.610   0.249 -0.0238 -0.2735 -0.1163
34316W        W35180  21.130   5.539  28.383  0.0437  0.0678  0.1392
34317W        W35181  21.833   6.337  23.218 -0.0529 -0.1295 -0.1256
34318W        W35182  19.765   6.590   0.588  0.0233  0.0274  0.2688
34319W        W35183  19.108   3.659  29.016 -0.0430  0.2766  0.1778
34320W        W35184  16.474   3.003  24.485 -0.0078 -0.0106 -0.4654
34321W        W35185  21.745   2.506  27.983 -0.2727 -0.3562  0.2799
34322W        W35186  21.246  29.030  24.813 -0.0186  0.1549 -0.1077
34323W        W35187  18.934   6.074  25.714  0.1224 -0.0161 -0.1266
34324W        W35188  17.285   7.328  28.443  0.1835 -0.0755 -0.0365
34325W        W35189  22.868   9.014  26.255  0.1883  0.1849 -0.0978
34326W        W35190  18.101   5.214   0.622  0.4638 -0.2032  0.1003
34327W        W35191  17.434   6.657  26.049 -0.2808  0.2709  0.2493
34328W        W35192  20.296   6.116  27.885 -0.0749  0.0920  0.1004
34329W        W35193  21.530   8.556  28.661  0.1995 -0.1152  0.2880
34330W        W35194  21.334   4.830  27.454  0.1278  0.4026 -0.4016
34331W        W35195  18.127   4.295  23.817  0.2809  0.1403 -0.1050
34332W        W35196  24.335   5.864  25.509 -0.3150 -0.1109  0.2700
34333W        W35197  22.988   5.225  27.286 -0.0193  0.0631  0.1555
34334W        W35198  20.699   4.624  28.201 -0.0384 -0.2618 -0.1472
34335W        W35199  20.628   9.170  25.476  0.2516 -0.0053  0.0101
34336W        W35200  20.862   4.832  27.707 -0.1347  0.2012  0.0885
34337W        W35201  19.593   6.223  29.001 -0.2172 -0.0803 -0.3658
34338W        W35202  20.798   3.671  28.903 -0.1778 -0.1229 -0.1561
34339W        W35203  19.992   6.658  28.946 -0.1739 -0.1116 -0.0914
34340W        W35204  21.548   5.078  24.722  0.0424  0.0384  0.4091
34341W        W35205  19.015   3.793  26.166  0.0261  0.0878 -0.3906
34342W        W35206  19.495   4.998  28.411 -0.1995  0.1090 -0.0273
34343W        W35207  18.698   4.701  25.525  0.2964 -0.1241 -0.0888
34344W        W35208  21.757   3.707   0.147  0.0912  0.1269  0.1324
34345W        W35209  18.728   2.193  25.852 -0.1565  0.0092 -0.0407
34346W        W35210  22.424   6.104  27.200  0.0924 -0.0367 -0.2254
34347W        W35211  19.485   7.065  25.094  0.1430 -0.0530  0.0124
34348W        W35212  21.099   5.888  28.950 -0.0183 -0.0155 -0.0594
34349W        W35213  19.152   3.285  26.296 -0.1273  0.1573  0.1931
34350W        W35214  18.937   6.335  27.144  0.1041  0.1587  0.0192
34351W        W35215  20.748   6.733   0.286 -0.1577 -0.1707 -0.0211
34352W        W35216  23.663   4.291  26.552 -0.1478  0.0278 -0.1116
34353W        W35217  19.081   4.300  28.409 -0.1874  0.1269  0.1935
34354W        W35218  18.509   3.758  28.823 -0.2538 -0.1072 -0.0804
34355W        W35219  19.019   6.487  23.916 -0.2961 -0.0550 -0.0217
34356W        W35220  18.990   8.687  25.837 -0.1145 -0.0161  0.0448
34357W        W35221  20.518   7.278  27.384  0.0178 -0.1580 -0.2652
34358W        W35222  21.453   4.920  22.407 -0.0884  0.1381 -0.1225
34359W        W35223  17.047   6.252  25.998 -0.0410  0.2800 -0.1925
34360W        W35224  18.437   5.548  27.473 -0.0658 -0.0055  0.1381
34361W        W35225  21.004   4.135  26.231 -0.3406 -0.0618 -0.3131
34362W        W35226  23.313   3.591  26.166 -0.0973 -0.0457 -0.0528
34363W        W35227  21.840   7.941  24.685 -0.0201  0.0372 -0.0486
34364W        W35228  20.405   7.441  28.352 -0.1219  0.1650  0.0055
34365W        W35229  24.040   3.216  23.517  0.0070  0.2492 -0.0698
34366W        W35230  22.166   4.544  25.041  0.0710  0.0444 -0.2302
34367W        W35231  18.817   3.988  27.957 -0.1440  0.0924  0.3114
34368W        W35232  23.899   3.676  24.715  0.1070  0.0868 -0.1698
34369W        W35233  21.460   6.875  27.925  0.1932  0.1645 -0.2812
34370W        W35234  19.602   3.994  28.594  0.2536  0.1833  0.0435
34371W        W35235  16.736   5.206  27.807  0.0342  0.1679  0.1303
34372W        W35236  20.256   3.765  27.866 -0.0400 -0.1319  0.0443
34373W        W35237  21.247   3.690  26.216  0.1204 -0.0306 -0.0178
34374W        W35238  20.739   4.818  27.200  0.0961 -0.1335  0.0017
34375W        W35239  21.940   5.440  24.740  0.3079 -0.0555 -0.0439
34376W        W35240  19.452   8.102   0.057 -0.1153 -0.0487 -0.0950
34377W        W35241  18.247   4.504  25.112  0.0569 -0.0542 -0.1762
34378W        W35242  18.517   2.288  27.283  0.0559  0.1383  0.0294
34379W        W35243  18.498   5.998   0.219  0.2495  0.0787  0.0478
34380W        W35244  23.057   6.162  25.661 -0.0492  0.2446  0.1536
34381W        W35245  18.351   2.985  23.103 -0.2132  0.0371  0.0314
34382W        W35246  22.456   6.049  28.406  0.1582  0.1025  0.2777
34383W        W35247  23.513   5.338  26.591  0.1376  0.4486 -0.1965
34384W        W35248  18.438   4.956  24.928  0.2932 -0.0130  0.1530
34385W        W35249  21.397   3.333   0.381 -0.1119  0.1712 -0.1676
34386W        W35250  19.036   6.700  27.846 -0.3475  0.2203 -0.0546
34387W        W35251  20.003   5.845  27.605  0.3133  0.0744  0.0940
34388W        W35252  19.631   5.498  27.493 -0.1027 -0.2097  0.2550
34389W        W35253  20.579   4.390  27.627  0.2716 -0.3382 -0.0360
34390W        W35254  21.148   4.572  26.035 -0.0734 -0.1012 -0.4236
34391W        W35255  20.369   5.652  27.876 -0.1434 -0.1651 -0.1489
34392W        W35256  17.019   7.097   0.615 -0.0147  0.0662 -0.0818
34393W        W35257  20.453   4.387  25.341  0.2608 -0.4745 -0.0119
34394W        W35258  19.432   3.551  27.658  0.3030 -0.2367  0.0811
34395W        W35259  22.832   5.498  27.642  0.1398  0.1418  0.0331
34396W        W35260  20.373   4.933  26.173  0.0240  0.0149 -0.2136
34397W        W35261  19.353   4.008  28.153 -0.0188 -0.0939  0.0504
34398W        W35262  20.173   5.877  23.993 -0.1741  0.0449  0.2513
34399W        W35263  19.865   5.771   1.104  0.1784  0.0589 -0.0138
34400W        W35264  23.637   5.096  28.039 -0.0881 -0.0937  0.3036
34401W        W35265  19.775   4.855  29.014 -0.0247 -0.1267 -0.0828
34402W        W35266  21.744   4.566  27.674 -0.2791  0.1416  0.1039
34403W        W35267  18.497   3.462  25.363  0.1056 -0.1491 -0.0014
34404W        W35268  17.153   6.573  27.206 -0.1227 -0.0465  0.0659
34405W        W35269  19.075   5.363  27.580 -0.0549  0.1414  0.0482
34406W        W35270  18.479   9.452  27.144 -0.0693  0.2875  0.0373
34407W        W35271  18.492   4.096  24.719 -0.1404  0.2654 -0.1797
34408W        W35272  23.809   3.223  24.500  0.0889  0.0661 -0.1751
34409W        W35273  21.260   4.773   0.470 -0.2901  0.2389 -0.0280
34410W        W35274  20.393   6.921  27.836 -0.1166 -0.2725 -0.1377
34411W        W35275  23.207   4.679  28.758 -0.0755 -0.2217  0.1745
34412W        W35276  23.190   7.710  28.982  0.0189 -0.0613  0.0405
34413W        W35277  17.851   5.625  27.642 -0.0417 -0.2270 -0.1289
34414W        W35278  22.701   5.015  26.399  0.1979 -0.1899  0.2716
34415W        W35279  22.106   3.505  25.076 -0.3034 -0.0899 -0.0359
34416W        W35280  22.252   3.177  25.695 -0.1555 -0.3990 -0.1699
34417W        W35281  17.972   7.177  26.882  0.3614  0.1313  0.1914
34418W        W35282  19.534   5.499  28.350  0.0542  0.0489  0.0811
34419W        W35283  17.058   3.452   0.361 -0.0407 -0.1336  0.2922
34420W        W35284  18.955   7.167  26.850 -0.0593  0.1959  0.2007
34421W        W35285  21.238   5.928  27.652 -0.1375 -0.1197  0.1619
34422W        W35286  21.370   6.405  28.858 -0.0430  0.2256 -0.0289
34423W        W35287  19.127   4.772  25.877  0.0414  0.1741 -0.0978
34424W        W35288  18.474   3.301  24.621  0.0242  0.0583 -0.0221
34425W        W35289  17.333   6.426  28.487 -0.2439 -0.0957  0.3007
34426W        W35290  16.975   5.343  26.502 -0.0527  0.0901 -0.2193
34427W        W35291  19.887   5.755  28.594  0.1510  0.2329 -0.0261
34428W        W35292  22.316   3.722  27.563  0.1214  0.4005 -0.1178
34429W        W35293  23.244   7.146  28.497 -0.0919 -0.1797  0.2079
34430W        W35294  20.688   9.097  26.123  0.1387 -0.2953  0.0375
34431W        W35295  20.706   8.993  28.932  0.1373 -0.1065 -0.0307
34432W        W35296  20.118   2.200  25.899  0.1683 -0.1945  0.0636
34433W        W35297  15.639   5.311  27.121  0.0984  0.0672 -0.1402
34434W        W35298  20.208   5.911   0.240  0.1382 -0.2675 -0.2876
34435W        W35299  18.754   2.166   1.020 -0.0217  0.2458 -0.2309
34436W        W35300  18.345   5.018  26.660 -0.0786 -0.2832  0.1686
34437W        W35301  16.676   5.270  24.566 -0.0345 -0.2963  0.2994
34438W        W35302  22.634   4.959   2.784 -0.2943 -0.0211 -0.0274
34439W        W35303  19.222   6.734  26.879 -0.0743  0.1515 -0.0628
34440W        W35304  20.752   3.372  26.171  0.2256  0.2220  0.0327
34441W        W35305  19.322   6.096  26.081  0.3163 -0.0836 -0.0646
34442W        W35306  21.501   6.496   0.684 -0.0700  0.3869 -0.1559
34443W        W35307  19.446   7.641  27.645 -0.3165 -0.1826 -0.0769
34444W        W35308  21.118   5.232  27.868 -0.1159 -0.0745 -0.2149
34445W        W35309  19.487   3.098  24.470  0.0100 -0.2016 -0.1335
34446W        W35310  19.503   3.756  26.459 -0.0925  0.0783  0.0868
34447W        W35311  18.688   5.135  25.803  0.0497  0.0341  0.0565
34448W        W35312  21.068   2.234  27.156 -0.0563 -0.0762 -0.0670
34449W        W35313  19.619   4.527  25.945 -0.1541 -0.0327 -0.1361
34450W        W35314  19.777   7.727   0.206  0.1802 -0.1777 -0.0061
34451W        W35315  21.693   4.329  28.529 -0.0037 -0.0857  0.1358
34452W        W35316  18.923   6.590  28.348  0.2542  0.2166 -0.1724
34453W        W35317  18.444   3.741  27.493  0.0281 -0.0460  0.2093
34454W        W35318  22.408   6.619  27.475  0.2187 -0.0018  0.0785
34455W        W35319  20.015   5.319  27.712 -0.0927  0.2875  0.0068
34456W        W35320  19.639   4.967  27.404  0.1671  0.2014  0.1087
34457W        W35321  20.337   5.345  28.584 -0.0559  0.1150 -0.2457
34458W        W35322  18.493   5.025  28.318 -0.2375  0.3104 -0.2461
34459W        W35323  17.162   4.651  28.207 -0.4641 -0.1501  0.0499
34460W        W35324  20.270   4.855  28.446  0.0502 -0.1699  0.2215
34461W        W35325  20.501   8.495  26.727  0.0326  0.0390  0.1303
34462W        W35326  22.336   3.262  28.341 -0.3384 -0.0334 -0.0453
34463W        W35327  21.534   7.317  27.363 -0.1041  0.0491  0.4518
34464W        W35328  21.712   6.830  27.450  0.0975  0.0105 -0.5205
34465W        W35329  19.829   7.177  27.396  0.0743 -0.0795  0.3010
34466W        W35330  21.278   6.057   0.209 -0.2232  0.0156 -0.0795
34467W        W35331  19.231   4.885  29.120 -0.0242  0.0572 -0.0526
34468W        W35332  18.720   5.007  27.809  0.1186 -0.1156 -0.1945
34469W        W35333  22.722   5.864   0.264 -0.0879 -0.0419  0.1862
34470W        W35334  20.265   4.501  27.118 -0.2374  0.0410 -0.1851
34471W        W35335  19.590   4.852  25.485 -0.1861  0.3137 -0.2146
34472W        W35336  21.703   3.550   1.206  0.0434 -0.0196 -0.0804
34473W        W35337  21.127   7.491  25.301 -0.2701  0.1203 -0.1267
34474W        W35338  18.504   7.769   1.689  0.0463 -0.2359 -0.3253
34475W        W35339  20.079   4.057  26.836  0.0694 -0.2293  0.1494
34476W        W35340  20.546   5.272  27.600  0.3891  0.0723  0.1775
34477W        W35341  19.610  11.049   4.310 -0.1257 -0.2386 -0.4118
34478W        W35342  21.369   9.417   4.160  0.0045  0.4317  0.1300
34479W        W35343  21.875   8.188  28.580  0.0053 -0.0565  0.1168
34480W        W35344  21.778  11.283   4.767 -0.1766  0.1017 -0.0852
34481W        W35345  21.644  11.110   0.589 -0.0097  0.0309  0.0554
34482W        W35346  20.408   8.346  28.380  0.0210 -0.0199  0.1506
34483W        W35347  19.847   7.713   2.396 -0.0141 -0.0234 -0.0020
34484W        W35348  20.776   8.687   2.416  0.0562 -0.3406  0.2278
34485W        W35349  20.273  10.733   3.039 -0.3486  0.2345  0.1350
34486W        W35350  17.968   8.617   4.298  0.2662  0.0888 -0.2695
34487W        W35351  19.825   5.267  28.731  0.0912  0.2626 -0.1937
34488W        W35352  22.094   6.656   0.506 -0.4052 -0.1458 -0.0195
34489W        W35353  22.566   7.240   0.590 -0.0843  0.1544 -0.3228
34490W        W35354  20.809  10.104   2.809 -0.2002  0.1345 -0.0042
34491W        W35355  15.644   7.497   3.082  0.3986  0.3382 -0.0571
34492W        W35356  16.165  10.794   6.980  0.0132 -0.1370  0.1623
34493W        W35357  22.765   6.877  27.642  0.0401  0.0341  0.3183
34494W        W35358  20.868   7.246   2.451  0.1457  0.1311 -0.1647
34495W        W35359  18.671   7.490   3.411 -0.1413 -0.5080 -0.2450
34496W        W35360  20.851   7.195   0.040 -0.1097 -0.2802  0.0447
34497W        W35361  22.636   8.438   2.262  0.0705  0.1300 -0.3416
34498W        W35362  18.938   7.514   1.784 -0.0111  0.1632  0.1496
34499W        W35363  21.647   9.033   3.575 -0.0387  0.1868  0.0346
34500W        W35364  17.059  10.889   3.571  0.0318  0.0976 -0.2202
34501W        W35365  18.691   8.938   3.698 -0.0328 -0.1056 -0.0685
34502W        W35366  21.240  10.138  29.073 -0.0225  0.2547  0.1544
34503W        W35367  21.642   8.105   3.126  0.0707  0.2411 -0.3283
34504W        W35368  19.566  10.698   1.315  0.0334  0.1284 -0.1638
34505W        W35369  19.233  10.323   1.077 -0.4070  0.0174  0.1381
34506W        W35370  22.370   9.594   0.281  0.1430  0.1226 -0.1856
34507W        W35371  20.472   8.061   3.144 -0.1298 -0.1127 -0.1858
34508W        W35372  19.270  11.549   3.579 -0.2096  0.0616 -0.2828
34509W        W35373  23.009   8.260   3.543 -0.3138 -0.0732  0.3895
34510W        W35374  19.082   9.887   1.330 -0.0873 -0.0173 -0.1887
34511W        W35375  19.921   9.175   3.602 -0.0532  0.1157  0.1173
34512W        W35376  21.561  11.150   2.580  0.0795 -0.2704 -0.1015
34513W        W35377  19.486   7.338   0.297  0.3724 -0.0636  0.0674
34514W        W35378  20.322  10.576   0.261 -0.0661  0.1186 -0.0267
34515W        W35379  21.984  12.604  26.910  0.0384  0.1583 -0.2933
34516W        W35380  19.235   7.048   2.803  0.1103 -0.1114 -0.1312
34517W        W35381  21.193   7.992   1.598  0.3145  0.0426  0.0074
34518W        W35382  21.332   7.040   2.754  0.2108  0.1733  0.1749
34519W        W35383  21.049   9.967   2.322 -0.0278  0.1106 -0.0838
34520W        W35384  20.070  10.221  29.011 -0.1705  0.2251  0.0473
34521W        W35385  21.225   9.910   0.468 -0.1214 -0.0575  0.0365
34522W        W35386  19.828  10.021   0.698  0.0195 -0.2808 -0.0095
34523W        W35387  15.896   8.296   4.387  0.1143  0.3235 -0.1124
34524W        W35388  21.298   8.604   2.409 -0.1295  0.0287 -0.0343
34525W        W35389  19.732   9.968  27.214  0.0006 -0.3959  0.2279
34526W        W35390  19.230   6.935   0.469 -0.0700 -0.1259 -0.2897
34527W        W35391  21.289  10.725   2.553 -0.1406 -0.0105 -0.1196
34528W        W35392  19.664   9.564   2.092 -0.0902  0.1049 -0.2355
34529W        W35393  21.432   8.943   2.794  0.1988 -0.0113  0.1807
34530W        W35394  18.977   9.017   1.117 -0.1737  0.2502  0.1544
34531W        W35395  18.785   6.392   1.430  0.0215 -0.0156 -0.0681
34532W        W35396  18.298   7.981  28.745  0.3333  0.1142  0.1963
34533W        W35397  19.392  11.198   1.897  0.0469 -0.3502  0.1527
34534W        W35398  24.381   9.420   1.308  0.2416  0.2060 -0.0860
34535W        W35399  16.688  10.101   0.383 -0.0168  0.2717 -0.3273
34536W        W35400  19.943   9.475   0.001  0.3106  0.0094 -0.0129
34537W        W35401  17.409   8.562  28.681 -0.0619  0.4155 -0.0231
34538W        W35402  18.551   8.537   0.399 -0.0773 -0.1455 -0.2917
34539W        W35403  18.837  11.132   1.796 -0.0775 -0.4167 -0.1296
34540W        W35404  21.207   9.110  25.503  0.1656 -0.0583 -0.3457
34541W        W35405  21.104   7.445   1.530  0.0096  0.1483 -0.0256
34542W        W35406  21.293   8.448   1.255  0.3322 -0.0005 -0.0147
34543W        W35407  20.226   9.985   1.311 -0.3344 -0.1247 -0.2188
34544W        W35408  18.843  11.631   0.608 -0.2573  0.2896  0.1253
34545W        W35409  18.409   9.372   2.859  0.3849 -0.4542  0.0528
34546W        W35410  19.667  11.416  27.022  0.0793 -0.3238 -0.1211
34547W        W35411  20.821  10.962   4.869 -0.1336  0.0683  0.1510
34548W        W35412  19.651   9.794   1.121 -0.1123 -0.1535 -0.1165
34549W        W35413  21.228   9.789   2.804 -0.2056 -0.0126  0.1815
34550W        W35414  19.067   8.944   4.124 -0.2749 -0.2084  0.1846
34551W        W35415  24.842  11.321  28.391  0.2422 -0.0657  0.1915
34552W        W35416  20.321  10.164   2.747 -0.1217 -0.2535  0.1606
34553W        W35417  19.883   9.904   0.218  0.0033  0.1123  0.3643
34554W        W35418  17.468  10.255   1.465 -0.0428  0.1953  0.1797
34555W        W35419  18.393   9.125   1.806 -0.2875  0.1654 -0.0359
34556W        W35420  21.153   9.314   2.644 -0.0480 -0.5447 -0.2815
34557W        W35421  18.426   9.129   2.295 -0.0597 -0.0785 -0.3183
34558W        W35422  17.821   5.884   1.419  0.0394  0.0792  0.1668
34559W        W35423  18.994   7.920   0.242  0.2704 -0.0984  0.0116
34560W        W35424  20.606   8.029  28.862 -0.2071  0.0229 -0.1554
34561W        W35425  24.550   7.151   3.945  0.1058 -0.1819 -0.1880
34562W        W35426  21.235   9.319  28.302 -0.2022  0.2965 -0.3415
34563W        W35427  22.530  10.138   3.608 -0.0043 -0.1066 -0.0408
34564W        W35428  21.634   8.203   2.624  0.1249  0.1354  0.0275
34565W        W35429  21.239  11.573   2.916 -0.1899  0.0083  0.0692
34566W        W35430  20.086   8.946   0.859  0.1385  0.0431  0.1045
34567W        W35431  20.171   7.972   2.787  0.3032 -0.2419  0.1572
34568W        W35432  21.414  11.331   4.197  0.0266 -0.2648 -0.0620
34569W        W35433  20.600  10.566   2.059  0.2718 -0.1514 -0.2089
34570W        W35434  17.736   6.725  27.873 -0.0129  0.0545 -0.0002
34571W        W35435  20.411   7.382   2.522  0.0955  0.0295 -0.1054
34572W        W35436  22.191   6.817  27.051 -0.0071 -0.0215 -0.0853
34573W        W35437  22.932   7.875  28.489  0.2428  0.2447 -0.2442
34574W        W35438  17.918  10.447   2.677 -0.0677  0.0542 -0.1028
34575W        W35439  19.815   9.105   0.451 -0.0053  0.2568 -0.1995
34576W        W35440  22.831   7.290  28.688 -0.0892 -0.2277  0.1839
34577W        W35441  21.688   8.651   1.121  0.0253 -0.2498 -0.0882
34578W        W35442  18.400  13.303   0.519 -0.3157 -0.0312 -0.0891
34579W        W35443  22.952   6.906  28.105  0.2175  0.3245 -0.0002
34580W        W35444  24.466   9.676   2.295  0.1196  0.0107 -0.1229
34581W        W35445  24.250   9.206   2.297 -0.0125  0.1436 -0.2033
34582W        W35446  19.005  10.677   4.217 -0.2178  0.0207 -0.1617
34583W        W35447  19.160  12.565   1.113 -0.1219 -0.2328  0.2662
34584W        W35448  25.866   9.303   5.163  0.0458  0.2491 -0.0384
34585W        W35449  18.668   9.637   1.145  0.2066 -0.0325  0.0387
34586W        W35450  18.781  10.247   2.858  0.0513  0.0886 -0.1867
34587W        W35451  19.232   8.529   1.984 -0.0623  0.1461  0.1551
34588W        W35452  21.835  10.271   1.580 -0.3542 -0.1132  0.0006
34589W        W35453  22.154  10.543   1.330  0.0465  0.1928  0.0262
34590W        W35454  21.242  12.210   4.357 -0.2062  0.0010  0.2065
34591W        W35455  20.193   9.724   0.944 -0.1105  0.0093  0.1759
34592W        W35456  19.588  10.711   1.823  0.0579 -0.0690  0.1878
34593W        W35457  22.109   8.192   2.398  0.0382  0.1087  0.0710
34594W        W35458  21.348   9.979   1.049 -0.1683 -0.1364 -0.3084
34595W        W35459  20.507   9.104   2.875 -0.0701 -0.0420  0.1524
34596W        W35460  20.945   7.066   3.304  0.0269  0.1949  0.0623
34597W        W35461  22.915  10.571   1.630 -0.0124  0.0251  0.1111
34598W        W35462  22.544   8.544  28.601  0.0459 -0.1314  0.0812
34599W        W35463  23.289   8.981  28.606 -0.0821 -0.1023  0.2222
34600W        W35464  19.615  10.566   0.831 -0.2502 -0.2895 -0.1824
34601W        W35465  20.375   8.440   0.991 -0.0357  0.0465  0.0004
34602W        W35466  21.248  10.913   0.276  0.1170 -0.3241 -0.2770
34603W        W35467  20.089   7.141   1.278  0.1284 -0.1387  0.0035
34604W        W35468  21.917   8.059   3.544  0.1526 -0.2312  0.1499
34605W        W35469  24.257  10.418   5.860  0.1098  0.0305  0.0700
34606W        W35470  20.240   9.305   2.440  0.0827  0.2013 -0.0464
34607W        W35471  20.303  11.690   3.439  0.0887 -0.2785  0.1717
34608W        W35472  20.850   6.983   3.831 -0.0234  0.0503  0.1022
34609W        W35473  20.907  10.458   2.424 -0.1215  0.0974 -0.0840
34610W        W35474  21.698   7.670  28.694  0.2753 -0.0639  0.1852
34611W        W35475  21.469   9.260   1.822 -0.1667  0.1384  0.0932
34612W        W35476  16.766   8.994   3.363 -0.3009 -0.1618 -0.0256
34613W        W35477  19.793   6.250   1.997  0.0494  0.1161 -0.3077
34614W        W35478  22.859   8.206  28.889 -0.0997  0.0754  0.1264
34615W        W35479  22.814   7.492   0.205 -0.2030  0.0158 -0.2271
34616W        W35480  23.333  10.796   1.637  0.0751  0.0249 -0.0630
34617W        W35481  21.035   7.799   2.020 -0.0563 -0.1224 -0.1757
34618W        W35482  21.455   5.965  28.620 -0.0843  0.2746  0.0545
34619W        W35483  17.573  11.971   0.508  0.1575 -0.1038 -0.0179
34620W        W35484  21.936  12.091  28.660 -0.0966  0.0880 -0.1083
34621W        W35485  19.618  10.519   3.227 -0.1602 -0.1430 -0.0865
34622W        W35486  20.193   7.872  28.534 -0.1246 -0.0274 -0.0748
34623W        W35487  21.991   5.027   0.764  0.2015  0.0900 -0.1436
34624W        W35488  19.947  11.191   1.883 -0.0645 -0.2642  0.0268
34625W        W35489  22.485   9.305   3.026  0.1073 -0.1361 -0.0418
34626W        W35490  18.769  10.029   2.340  0.1670  0.1939  0.0441
34627W        W35491  22.533  10.269   0.343 -0.0988  0.2692  0.2843
34628W        W35492  20.727   8.222  27.624  0.1158 -0.0346  0.1618
34629W        W35493  23.037  10.242  28.679 -0.3415 -0.3344  0.1899
34630W        W35494  18.983   7.734   0.692  0.0646 -0.0503 -0.0804
34631W        W35495  21.802   9.471   2.206 -0.0818  0.1298  0.3249
34632W        W35496  17.238   4.934   0.962 -0.2421  0.1754  0.3466
34633W        W35497  18.396   8.217   1.384  0.0535  0.0965 -0.2236
34634W        W35498  16.417   7.436   2.566 -0.0785 -0.1628 -0.1393
34635W        W35499  19.462   6.116   0.830  0.1920 -0.0172  0.0511
34636W        W35500  20.156  12.082  27.632  0.1834  0.1071  0.0255
34637W        W35501  19.591   8.283   3.618  0.2071 -0.1879 -0.1390
34638W        W35502  22.501   8.226   2.679  0.3205 -0.1871 -0.2565
34639W        W35503  21.635   7.168   2.147 -0.1050 -0.0516 -0.2514
34640W        W35504  21.642  10.657   3.523  0.0325  0.2898  0.0004
34641W        W35505  19.604   6.841   2.596 -0.0354 -0.4073 -0.0543
34642W        W35506  18.050   8.003   0.590 -0.2397 -0.0635 -0.1015
34643W        W35507  18.809   7.160   0.562  0.1825  0.2930 -0.1263
34644W        W35508  18.896  10.324   1.532 -0.1507  0.0472  0.0704
34645W        W35509  21.876   8.503   4.222 -0.1322  0.0477 -0.0636
34646W        W35510  18.249  10.395  28.535  0.1795 -0.2818  0.0392
34647W        W35511  21.891   7.840   0.067 -0.1517 -0.1885 -0.0096
34648W        W35512  22.518   8.290   1.587  0.1196 -0.1636 -0.0099
34649W        W35513  19.565   9.797   2.959 -0.2142  0.0449 -0.3099
34650W        W35514  21.419   7.687  29.145 -0.1341  0.1996 -0.4964
34651W        W35515  19.890   8.260   3.172  0.0629  0.0358  0.4230
34652W        W35516  21.567   7.535   1.367  0.3735  0.2693 -0.0406
34653W        W35517  17.963  10.218   2.252 -0.2393 -0.1508  0.1831
34654W        W35518  17.307   9.657   4.699 -0.2869 -0.1232  0.0160
34655W        W35519  15.579  10.035   2.083  0.0469 -0.1798  0.0813
34656W        W35520  20.737   7.758   1.419  0.1080 -0.1140 -0.2161
34657W        W35521  20.962   9.303   0.067  0.2741  0.0217 -0.2741
34658W        W35522  23.510   9.733  27.973  0.1521  0.0586  0.0640
34659W        W35523  19.845   9.096   2.152  0.1673 -0.0267  0.0415
34660W        W35524  20.301   9.213  27.447 -0.1204  0.1303  0.1937
34661W        W35525  18.915   5.814   0.721 -0.1134  0.2213  0.3222
34662W        W35526  21.175  11.131   3.770  0.0526 -0.4130 -0.2167
34663W        W35527  20.573   8.527   1.990  0.3789  0.2864  0.2421
34664W        W35528  18.311   6.602  28.503 -0.0438  0.0026 -0.0012
34665W        W35529  20.972  10.468   1.777 -0.0556  0.2795  0.0337
34666W        W35530  17.571  10.015   2.822  0.0856  0.2762  0.0779
34667W        W35531  19.928   8.175   0.996 -0.1224 -0.0115  0.2604
34668W        W35532  19.056   9.350   0.422  0.0022 -0.2190 -0.0629
34669W        W35533  22.160   9.330   2.602  0.1641  0.0137  0.2125
34670W        W35534  20.467   4.589   2.816 -0.1349 -0.2841  0.3035
34671W        W35535  20.379   6.113   2.319  0.1711 -0.1333  0.0455
34672W        W35536  20.041   6.294  25.112 -0.0674  0.2571 -0.1041
34673W        W35537  19.722   9.400   2.651 -0.0830  0.1870 -0.0564
34674W        W35538  20.132   9.261   1.422 -0.0033 -0.1980  0.1438
34675W        W35539  19.886   8.950   2.722 -0.4427 -0.0756 -0.2253
34676W        W35540  24.901   8.891   1.812 -0.2319  0.0340  0.0024
34677W        W35541  22.265   6.128  29.138  0.0381  0.1264  0.2813
34678W        W35542  20.157   8.430   4.061  0.0034 -0.0477  0.4419
34679W        W35543  20.910   7.757  29.141 -0.1355  0.2441  0.2008
34680W        W35544  19.017   9.362   3.658  0.0581 -0.1325 -0.2064
34681W        W35545  20.379   8.921   4.346 -0.0474  0.0817  0.0474
34682W        W35546  20.598   8.759  27.632  0.2636  0.0095 -0.4245
34683W        W35547  19.410  10.061   0.379  0.1512 -0.2601  0.3281
34684W        W35548  20.095   7.609   1.019 -0.0281 -0.0515 -0.1347
34685W        W35549  20.256   9.717  28.833  0.0649 -0.0480 -0.2106
34686W        W35550  16.961   7.881   0.046 -0.1867  0.4561  0.0522
34687W        W35551  18.722  10.443   1.968  0.1249  0.1042 -0.3628
34688W        W35552  18.951   8.254   0.700  0.1493 -0.3177 -0.1820
34689W        W35553  19.254  10.315   2.847 -0.1465 -0.0134 -0.2358
34690W        W35554  22.762   7.300   3.834 -0.1531  0.0390  0.1389
34691W        W35555  22.937   9.665   2.933  0.3832  0.0227  0.0128
34692W        W35556  21.283   8.954   0.344 -0.1264 -0.1946 -0.1014
34693W        W35557  23.043   8.723  29.034 -0.0533  0.0740  0.1650
34694W        W35558  20.392  10.283  27.029 -0.0395 -0.0075  0.1402
34695W        W35559  18.080   8.421   2.435 -0.1243 -0.0946 -0.1040
34696W        W35560  19.602  10.532   4.247  0.1494  0.0834 -0.0386
34697W        W35561  23.238   7.950   2.193  0.0168 -0.2576  0.0620
34698W        W35562  22.061   8.936   1.849 -0.4471 -0.0626 -0.1752
34699W        W35563  21.189   8.242   5.875  0.3403  0.3568 -0.0727
34700W        W35564  19.117   5.240  28.622  0.0455 -0.2580 -0.2156
34701W        W35565  21.712  10.210   0.196  0.0993  0.1551  0.1459
34702W        W35566  17.400   9.348   2.042 -0.2834  0.0706  0.0189
34703W        W35567  18.540  11.548   1.918 -0.1147  0.5756  0.0411
34704W        W35568  22.486   7.529   3.013 -0.0831  0.0780  0.0327
34705W        W35569  21.989   8.326   1.440 -0.0974  0.0402 -0.0470
34706W        W35570  18.996   8.386   1.342 -0.0554 -0.1153  0.0478
34707W        W35571  18.329   8.362   4.552  0.0999 -0.4580  0.2058
34708W        W35572  19.534   9.657   4.591 -0.0037  0.1499 -0.0963
34709W        W35573  19.728  12.065   0.913  0.0701 -0.0222  0.1069
34710W        W35574  24.774  10.611   0.755 -0.3280  0.5229  0.0318
34711W        W35575  18.537   7.574   2.165 -0.2071  0.0236 -0.0529
34712W        W35576  21.854   9.077   1.377  0.0335 -0.3018 -0.0563
34713W        W35577  22.892   8.192   1.922 -0.0257  0.3801  0.0455
34714W        W35578  19.583   9.260   1.583 -0.0228  0.1853  0.0556
34715W        W35579  21.884   9.204   0.815  0.0716  0.1778 -0.0306
34716W        W35580  26.078  10.285  28.483 -0.1289  0.2842 -0.2026
34717W        W35581  21.129   6.877  28.409 -0.0428  0.0847 -0.1975
34718W        W35582  17.678  12.307   1.809 -0.2059  0.1584  0.0604
34719W        W35583  16.253   6.465   0.578 -0.0063  0.2638  0.3096
34720W        W35584  20.166   8.867   1.739  0.3877 -0.1394 -0.4116
34721W        W35585  23.018   8.277   1.387  0.4777 -0.0215 -0.0343
34722W        W35586  21.110   9.828  28.328  0.2011 -0.1829 -0.0150
34723W        W35587  20.290   8.491   3.408  0.3223  0.0695 -0.1621
34724W        W35588  17.945  11.645   4.801  0.2590  0.4782  0.1492
34725W        W35589  22.569  10.802   1.116 -0.0446  0.4017 -0.0115
34726W        W35590  20.212   7.671   1.644 -0.1635  0.0967 -0.0111
34727W        W35591  19.056   9.809   4.500 -0.1175 -0.0655 -0.0933
34728W        W35592  19.800  10.964   3.094  0.1607 -0.2349  0.2274
34729W        W35593  22.969  11.026   1.918 -0.1683  0.0315 -0.1474
34730W        W35594  22.932   9.234   1.279  0.0249 -0.1311  0.0141
34731W        W35595  17.837   8.981   0.920 -0.0028 -0.1985 -0.1155
34732W        W35596  22.572   9.373  28.320 -0.0023 -0.0962  0.0929
34733W        W35597  22.441   7.290   1.463 -0.1227 -0.0587 -0.4380
34734W        W35598  20.717   6.990   1.640  0.1678  0.2276 -0.2777
34735W        W35599  21.627   6.579  28.313  0.1360  0.3557 -0.2295
34736W        W35600  22.073   7.655   1.302  0.2889 -0.2187 -0.3737
34737W        W35601  18.967   7.359   0.075  0.2339 -0.2784 -0.1706
34738W        W35602  17.612   7.544   2.357  0.2184  0.0848  0.4354
34739W        W35603  23.861  10.061   0.881  0.1364 -0.0796  0.1451
34740W        W35604  21.502   7.233   3.217 -0.0798  0.2501  0.3094
34741W        W35605  20.105  11.315   0.594  0.0551 -0.0030  0.2933
34742W        W35606  18.412  10.248   4.197 -0.0001 -0.2978  0.0098
34743W        W35607  19.385   8.555  28.959 -0.1221  0.2014  0.0092
34744W        W35608  22.315   7.582   0.199  0.1080  0.1907 -0.0244
34745W        W35609  19.026  10.384   0.210 -0.1282  0.2851  0.1607
34746W        W35610  22.338   7.274  28.014 -0.3605 -0.0902 -0.0843
34747W        W35611  19.493  11.332  28.726 -0.1877 -0.2098  0.0066
34748W        W35612  22.415   7.519   4.214  0.1949 -0.1133  0.1464
34749W        W35613  18.880   9.386   3.045 -0.0721  0.0788 -0.0778
34750W        W35614  18.207  13.026   4.982 -0.2115 -0.1126 -0.1992
34751W        W35615  24.302  11.235   2.519 -0.2944 -0.0291  0.2374
34752W        W35616  22.372   4.879   1.643  0.0501  0.0942  0.0375
34753W        W35617  16.941   9.162   2.168 -0.1404  0.0872 -0.1414
34754W        W35618  19.389  10.747   2.670  0.0630  0.2501 -0.1823
34755W        W35619  20.198  13.024  28.854  0.2674 -0.1056  0.1569
34756W        W35620  18.768  11.157   2.976  0.1913  0.2699 -0.1068
34757W        W35621  21.171   7.933   2.609 -0.1551 -0.1601  0.2569
34758W        W35622  19.208   5.389  26.623 -0.5147 -0.0260  0.4410
34759W        W35623  22.814   8.776   1.363  0.1219  0.3311  0.1051
34760W        W35624  17.694   9.598   3.378  0.0108  0.1634  0.4734
34761W        W35625  20.488   9.609   1.491  0.1059 -0.2263 -0.0384
34762W        W35626  18.247   8.933   4.556  0.0056 -0.1495 -0.2928
34763W        W35627  21.658  10.700  26.770  0.3425 -0.1770  0.0215
34764W        W35628  18.271  10.826   3.728  0.1475  0.0932 -0.0180
34765W        W35629  19.959   7.334   3.601 -0.1458 -0.0172 -0.3814
34766W        W35630  23.151   8.751   1.048 -0.1787 -0.3292  0.1389
34767W        W35631  19.625   9.604   0.570  0.2670  0.2201  0.0323
34768W        W35632  19.639   8.063   2.700 -0.1836  0.0179 -0.3760
34769W        W35633  23.035   9.217   1.768  0.0582  0.2399  0.0188
34770W        W35634  19.508   8.668   2.385 -0.2647  0.0978  0.0871
34771W        W35635  21.935  10.052   1.000  0.1311  0.0306 -0.0259
34772W        W35636  20.411   8.340   2.440  0.3630 -0.1871 -0.0277
34773W        W35637  19.328   7.454   1.496  0.1884  0.3001  0.0865
34774W        W35638  23.593   8.761   2.149  0.0629 -0.1750  0.1584
34775W        W35639  20.500   9.038   0.322 -0.1015  0.0240  0.1556
34776W        W35640  18.680   7.674   2.759  0.1477  0.0033  0.2367
34777W        W35641  16.564  11.349   0.900  0.0310 -0.3449  0.0536
34778W        W35642  17.735   7.684   0.809  0.1401 -0.0086 -0.2520
34779W        W35643  20.514  10.330   3.188  0.0703 -0.0840 -0.2650
34780W        W35644  20.863   8.602   1.127  0.1369  0.1453  0.0405
34781W        W35645  19.212   9.450   1.165  0.0809  0.0122 -0.2399
34782W        W35646  20.607  11.084   2.929  0.0777  0.0061  0.0142
34783W        W35647  21.090   9.635   3.288  0.0725 -0.0722 -0.1373
34784W        W35648  19.053   8.942   3.222 -0.0098 -0.0822  0.1511
34785W        W35649  19.352   6.735   0.900 -0.2630 -0.1075 -0.0850
34786W        W35650  18.989   9.532  29.025 -0.1080 -0.0272 -0.0075
34787W        W35651  18.898   8.439   4.320  0.0143  0.0909 -0.0444
34788W        W35652  20.713   9.212   4.060  0.2140 -0.0230  0.0791
34789W        W35653  18.894   8.499   3.838  0.0520  0.1797  0.2506
34790W        W35654  21.868   9.140   3.120  0.3536 -0.0773 -0.2582
34791W        W35655  17.362   9.514   3.757  0.0636 -0.1028 -0.2328
34792W        W35656  19.586  10.430   2.353  0.2375  0.1886 -0.0214
34793W        W35657  19.690   8.700   1.731 -0.0224  0.1551  0.0456
34794W        W35658  20.634   8.865   0.799 -0.1481 -0.2178 -0.1049
34795W        W35659  21.122   9.514   5.296  0.1380  0.1990 -0.0815
34796W        W35660  20.713  11.704  27.774 -0.1824 -0.0962 -0.1151
34797W        W35661  19.457  10.174   1.496 -0.2152  0.1390  0.1976
34798W        W35662  20.841  12.789   0.252  0.0038  0.1190 -0.3288
34799W        W35663  20.726   9.591   5.027  0.3253  0.1289 -0.1860
34800W        W35664  21.362  10.209   1.935  0.2171 -0.0047 -0.0709
34801W        W35665  18.031  11.391  28.584  0.0652  0.0692 -0.3017
34802W        W35666  20.139   9.412   1.922 -0.1300  0.0794  0.0525
34803W        W35667  19.914   7.443  28.497  0.2387  0.2622  0.1063
34804W        W35668  14.973  10.126   1.233 -0.2155 -0.1543  0.0289
34805W        W35669  17.566   8.710   1.272  0.1368  0.0515  0.1378
34806W        W35670  18.814  11.972   1.929  0.1926  0.2817 -0.0701
34807W        W35671  19.909   8.423   2.594 -0.3964  0.0323  0.1207
34808W        W35672  20.162   7.397  27.703 -0.0188  0.2820 -0.2252
34809W        W35673  19.873   9.262   3.133 -0.1587 -0.2428 -0.0532
34810W        W35674  21.537  12.027   6.832 -0.0473  0.2584 -0.1172
34811W        W35675  21.806   7.960   1.721  0.1559 -0.0333 -0.0882
34812W        W35676  20.896   9.135   1.204 -0.1806  0.0671 -0.0624
34813W        W35677  20.344  11.234   3.391 -0.0776  0.0891  0.3151
34814W        W35678  22.104   9.545   1.244 -0.0603  0.2829  0.1164
34815W        W35679  20.358  11.053   0.135  0.2712  0.1172  0.1332
34816W        W35680  19.389   7.007   1.370 -0.2251  0.2490 -0.0722
34817W        W35681  21.170   8.499   1.910  0.2629  0.1052  0.0406
34818W        W35682  19.187   8.520   3.400 -0.2736  0.2402 -0.2266
34819W        W35683  17.511   5.628   2.912  0.1506 -0.1692 -0.0162
34820W        W35684  20.146  12.595  28.648  0.2742  0.2721 -0.1069
34821W        W35685  19.103  12.050   0.779 -0.1456  0.1402 -0.0367
34822W        W35686  17.932  10.374   0.200  0.1101  0.2042  0.1542
34823W        W35687  18.990   9.839   0.304  0.0392  0.0738  0.0161
34824W        W35688  19.581   7.601   0.667  0.0590 -0.1864  0.2042
34825W        W35689  18.419   8.602  29.023 -0.0464 -0.0898  0.0942
34826W        W35690  17.442   8.051  29.094 -0.1735 -0.1614 -0.0610
34827W        W35691  22.010   9.502   1.775 -0.1698  0.0714 -0.0506
34828W        W35692  21.876   8.277   0.830 -0.0592  0.1216 -0.2486
34829W        W35693  22.996  10.169   2.801  0.0719 -0.1438  0.2671
34830W        W35694  21.988  10.975   3.398  0.2779  0.1453  0.0871
34831W        W35695  21.279  10.231   1.481 -0.2197 -0.2289  0.0534
34832W        W35696  21.080   7.201   2.008 -0.1073 -0.0911  0.1790
34833W        W35697  16.541   9.169   2.916 -0.2084 -0.0362  0.1260
34834W        W35698  18.862   8.908   1.941  0.1688 -0.0484  0.0253
34835W        W35699  18.071  10.094   4.527  0.1061  0.1435  0.0332
34836W        W35700  19.543  12.444  28.476 -0.2316  0.0668 -0.0757
34837W        W35701  19.686   8.612   0.754 -0.0098  0.1031 -0.0751
34838W        W35702  19.519   9.572   3.667 -0.0307 -0.3224 -0.1543
34839W        W35703  19.995   9.631   3.494 -0.0645  0.0283  0.3270
34840W        W35704  19.781   7.337   1.639  0.0231  0.0808 -0.0535
34841W        W35705  22.301  10.348   0.881  0.1358  0.0332  0.2100
34842W        W35706  22.641  10.660   2.050  0.1538 -0.1835 -0.2062
34843W        W35707  21.737  12.190  29.085 -0.0284 -0.3030  0.2453
34844W        W35708  20.122  10.339  28.078  0.0791  0.1006 -0.0517
34845W        W35709  20.084   7.847  27.591 -0.1173  0.3784 -0.3588
34846W        W35710  22.060   5.794   0.262  0.5631  0.1497  0.2572
34847W        W35711  19.403   8.137   0.585 -0.3183 -0.0400 -0.0850
34848W        W35712  18.462   7.584   0.788 -0.1270  0.1055 -0.0051
34849W        W35713  19.301   9.428   2.429  0.0205 -0.0275  0.2427
34850W        W35714  22.146  11.832   0.157  0.1600  0.1510  0.1285
34851W        W35715  21.985   7.739  28.320  0.1908 -0.0436  0.2502
34852W        W35716  20.127   7.681   4.116  0.0588 -0.0427  0.1415
34853W        W35717  20.569   9.435   0.901  0.1512  0.2565  0.1420
34854W        W35718  22.601  10.453   2.654 -0.2142  0.1006 -0.2307
34855W        W35719  22.183   5.254   2.662 -0.1971  0.1139  0.0830
34856W        W35720  18.137  11.046  28.920 -0.1260 -0.0289  0.2742
34857W        W35721  19.538   8.914   1.180 -0.0222 -0.0267  0.3081
34858W        W35722  18.481  11.374   1.432 -0.0032 -0.0079  0.2601
34859W        W35723  17.898   8.894   2.330 -0.2024 -0.5403  0.2900
34860W        W35724  19.233  11.142   2.476  0.4264 -0.2602 -0.0197
34861W        W35725  22.701   8.457   3.133 -0.2615  0.0279  0.4447
34862W        W35726  22.821  10.304   0.865  0.2611 -0.1194 -0.0219
34863W        W35727  20.733   9.178   2.463 -0.1654 -0.2782  0.2149
34864W        W35728  17.536   9.708   2.393 -0.1307 -0.1358  0.2159
34865W        W35729  22.510  10.705   4.946 -0.5094  0.1427 -0.0337
34866W        W35730  21.035   9.996   5.240 -0.1712  0.1859  0.2656
34867W        W35731  23.813   8.549   4.107  0.2027 -0.1934 -0.0170
34868W        W35732  18.111   9.300   5.102 -0.1108  0.2721  0.3018
34869W        W35733  21.351   8.934   1.380 -0.0712 -0.0620  0.1632
34870W        W35734  20.282  11.139   2.221 -0.2644 -0.3589  0.1552
34871W        W35735  20.608   9.605   2.189 -0.2207  0.1772  0.0511
34872W        W35736  22.076   7.836   0.540  0.1415  0.1334  0.2584
34873W        W35737  19.507   9.892   2.466 -0.0060  0.2986  0.1572
34874W        W35738  20.306   8.826   2.337 -0.2596  0.0184 -0.0163
34875W        W35739  19.485   8.439   1.180  0.0038  0.3588 -0.0531
34876W        W35740  15.524  12.510   5.795 -0.0740 -0.3176 -0.0638
34877W        W35741  20.840  11.311   7.932 -0.0317 -0.0816 -0.0334
34878W        W35742  21.847   7.026   3.556 -0.1690 -0.1342  0.0319
34879W        W35743  23.027  12.138   5.426 -0.0818 -0.1462  0.0576
34880W        W35744  22.030  11.915   5.248  0.0045 -0.1228 -0.1366
34881W        W35745  19.163   9.608   5.026 -0.1847 -0.2564  0.1951
34882W        W35746  19.317   9.095   2.041  0.2436 -0.1298 -0.1423
34883W        W35747  21.901  10.299   3.781  0.0875 -0.2312  0.0253
34884W        W35748  18.967  11.175   4.383  0.1106 -0.1203  0.1970
34885W        W35749  15.930   7.994   7.200 -0.0786 -0.2366 -0.0397
34886W        W35750  18.796   8.477   5.822  0.0538  0.1246 -0.1022
34887W        W35751  21.956   7.022   6.919  0.1271 -0.2905  0.2367
34888W        W35752  18.538   8.618   2.516  0.1748  0.1787 -0.0759
34889W        W35753  19.862   6.171   9.633 -0.1586  0.0286  0.5061
34890W        W35754  19.358   7.727   5.884  0.1043 -0.0326 -0.0044
34891W        W35755  16.396   9.214   7.724 -0.0876  0.0637 -0.0781
34892W        W35756  20.443  10.482   3.955 -0.1445  0.2665 -0.2279
34893W        W35757  19.927   9.356   7.002 -0.0267 -0.0868 -0.0226
34894W        W35758  19.505   7.666   6.825 -0.2759  0.0407 -0.2812
34895W        W35759  22.816   8.022   5.303  0.3075 -0.0913  0.0473
34896W        W35760  19.944  10.308   7.105 -0.1251  0.1899  0.1203
34897W        W35761  20.351   7.167   6.219 -0.1095  0.0791  0.2436
34898W        W35762  21.687   7.831   4.762 -0.1429 -0.2205 -0.3046
34899W        W35763  19.575  10.452   6.250  0.3212 -0.2965 -0.2239
34900W        W35764  17.668   9.618   7.150  0.4769  0.0627 -0.0402
34901W        W35765  17.495   9.473   8.019  0.1883  0.0119  0.1092
34902W        W35766  20.984   6.217   6.582  0.0883 -0.2391 -0.3674
34903W        W35767  18.140   8.853   5.399 -0.0493 -0.1841 -0.0165
34904W        W35768  20.145  10.679   6.335 -0.0586  0.0240 -0.0643
34905W        W35769  20.606   8.198   3.646 -0.0494 -0.3650 -0.0436
34906W        W35770  16.121  10.416   4.078  0.0615  0.1486 -0.2410
34907W        W35771  21.441   9.774   6.549  0.2472  0.0582  0.1035
34908W        W35772  18.541  13.509   8.527 -0.0099  0.0112  0.3777
34909W        W35773  21.436   8.579   7.814 -0.2066  0.2141  0.0583
34910W        W35774  14.468   8.557   5.938 -0.3868 -0.0207 -0.4580
34911W        W35775  19.986  10.967   5.480 -0.0825  0.2251  0.0306
34912W        W35776  18.041  11.055   5.503 -0.2539 -0.0513 -0.3626
34913W        W35777  19.142   9.979   5.790  0.1679 -0.1230  0.0697
34914W        W35778  24.122   9.014   4.253  0.1655  0.1520 -0.3599
34915W        W35779  23.350   8.037   6.017  0.0059  0.2406 -0.1275
34916W        W35780  20.629   7.864   2.674 -0.0980 -0.0518  0.0689
34917W        W35781  23.552   9.095   5.054 -0.1033 -0.1781  0.2715
34918W        W35782  18.276  10.306   6.053 -0.0802  0.0468 -0.0516
34919W        W35783  23.769   8.539   7.636  0.0411 -0.1249 -0.0661
34920W        W35784  19.506  12.710   5.519  0.0350 -0.0208 -0.4022
34921W        W35785  20.619   9.467   6.399 -0.1667 -0.0742 -0.1351
34922W        W35786  19.092   8.072   5.582  0.0830 -0.2730  0.3225
34923W        W35787  20.720   8.209   5.520  0.0185 -0.0170  0.2722
34924W        W35788  22.839  10.681   4.171  0.1147 -0.0065 -0.3501
34925W        W35789  19.924   9.056   4.063 -0.2088  0.1670  0.0584
34926W        W35790  22.246   8.094   8.317 -0.0173  0.1824 -0.2810
34927W        W35791  18.498   7.578   6.740 -0.1484 -0.0932  0.0242
34928W        W35792  19.745   9.264   6.495  0.0365 -0.0993 -0.3013
34929W        W35793  21.955  10.636   4.334 -0.1763 -0.1469  0.0603
34930W        W35794  21.757   8.548   2.201 -0.0058  0.2309 -0.3196
34931W        W35795  18.533  11.067   5.406  0.1811  0.2734  0.2728
34932W        W35796  18.665  10.516   5.339  0.0941 -0.0832  0.1561
34933W        W35797  21.755   5.435   4.079  0.0508 -0.3524 -0.0100
34934W        W35798  18.623   9.628   6.796  0.1271  0.0011  0.4011
34935W        W35799  18.574   9.541   3.545 -0.0855 -0.1877 -0.1671
34936W        W35800  23.997   8.378   1.761 -0.0302 -0.1321  0.1212
34937W        W35801  20.902  12.041   8.661 -0.2526 -0.0082  0.0412
34938W        W35802  17.301   9.899   3.327  0.2088 -0.0190  0.0674
34939W        W35803  20.953   8.844   2.879 -0.2768 -0.0138 -0.1425
34940W        W35804  20.542   5.984   4.270 -0.2662  0.0303  0.1118
34941W        W35805  21.352   7.149   6.094  0.3839  0.1980 -0.0052
34942W        W35806  19.038   9.905   3.625 -0.1547 -0.1605 -0.0457
34943W        W35807  18.745   8.926   4.558  0.0223  0.1213 -0.2104
34944W        W35808  18.160   8.854   6.329 -0.4340  0.0773 -0.2508
34945W        W35809  21.580   9.932   5.058  0.1331  0.0857  0.4825
34946W        W35810  20.011   9.135   5.186  0.0407 -0.1409 -0.0348
34947W        W35811  17.701   8.982   5.621 -0.0106  0.3460 -0.1197
34948W        W35812  23.286   9.104   5.614 -0.2912  0.0235 -0.2510
34949W        W35813  22.336   7.493   9.125  0.0673  0.0449 -0.2618
34950W        W35814  20.976   6.640   2.909  0.0810 -0.1493  0.0761
34951W        W35815  18.822   9.765   4.016  0.0889 -0.1029 -0.0230
34952W        W35816  17.551  10.582   3.008  0.0934  0.1337 -0.0526
34953W        W35817  21.347   9.853   8.251 -0.0057 -0.1084  0.1194
34954W        W35818  22.421   9.193   1.590 -0.3305 -0.0057  0.2671
34955W        W35819  22.937   8.298   4.096 -0.1459  0.3317 -0.1849
34956W        W35820  20.370   8.649   6.633 -0.1133  0.0875  0.1021
34957W        W35821  18.876   7.206   7.006  0.1235 -0.2471  0.2565
34958W        W35822  20.476   8.754   7.704 -0.0102 -0.0349 -0.2638
34959W        W35823  19.786   6.387   7.078  0.1418  0.3380 -0.5652
34960W        W35824  21.307   6.949   6.594  0.0843  0.1895 -0.0143
34961W        W35825  17.660   7.538   3.720 -0.0489  0.1631  0.1907
34962W        W35826  24.288  12.568   4.426 -0.1232 -0.0668 -0.0485
34963W        W35827  19.749   6.751   5.226 -0.1379  0.1365 -0.2634
34964W        W35828  18.532  10.200   4.988 -0.0755  0.1031  0.4214
34965W        W35829  19.903   6.662   8.084  0.0214 -0.2180  0.3503
34966W        W35830  20.112   7.587   4.966 -0.1254 -0.0830 -0.0655
34967W        W35831  21.768   9.794   8.458  0.1968  0.0865 -0.0469
34968W        W35832  16.285  12.417   3.219  0.2366  0.0575  0.0237
34969W        W35833  18.332   8.539   3.673 -0.0702  0.2264 -0.1246
34970W        W35834  18.769  10.398   8.902 -0.2641  0.1711 -0.0696
34971W        W35835  20.505   8.842   6.143 -0.1278  0.0327  0.1113
34972W        W35836  22.426   6.843   7.158 -0.2309  0.0684 -0.3214
34973W        W35837  16.863  11.452   8.945 -0.0985 -0.1011  0.3913
34974W        W35838  19.397   7.832   1.058 -0.1435 -0.0507  0.0167
34975W        W35839  22.081   8.995   4.354  0.3947 -0.4547 -0.2866
34976W        W35840  22.470  10.216   2.233  0.3182  0.3026 -0.1959
34977W        W35841  22.673   7.110   6.871  0.1962  0.0049 -0.2286
34978W        W35842  20.590   7.747   5.355 -0.0946 -0.1606 -0.2799
34979W        W35843  21.240  10.494   4.599 -0.0820  0.1537 -0.1202
34980W        W35844  21.788   4.213   8.380 -0.2637  0.0108 -0.0678
34981W        W35845  18.778   9.946   6.149  0.1123 -0.1135 -0.1860
34982W        W35846  20.729  11.467   3.769 -0.2035  0.0236  0.2913
34983W        W35847  19.336   9.956   7.658  0.2149 -0.3029  0.1996
34984W        W35848  18.422   6.722   4.562 -0.0155 -0.0290  0.1080
34985W        W35849  21.417   9.355   3.082  0.0401 -0.0064  0.0384
34986W        W35850  19.959   8.873   6.885  0.0386  0.0051  0.4824
34987W        W35851  22.464   9.434   3.866  0.1532 -0.1894 -0.2341
34988W        W35852  19.377   5.272   3.761  0.0814 -0.2759 -0.0507
34989W        W35853  21.295  10.383   5.073  0.0898 -0.2419  0.0548
34990W        W35854  21.917   8.849   2.638 -0.1570 -0.4437  0.1275
34991W        W35855  19.589   8.217   4.717  0.1889 -0.0447  0.0664
34992W        W35856  23.393   6.663   7.004 -0.1034 -0.1160  0.0422
34993W        W35857  20.653   6.917   4.278 -0.1069  0.0923  0.0356
34994W        W35858  20.888   8.804   4.606 -0.1073 -0.0262  0.1673
34995W        W35859  19.621   7.741   3.646  0.0638 -0.0803 -0.2340
34996W        W35860  20.275   8.872   3.745  0.3947 -0.2560 -0.5112
34997W        W35861  20.910   9.116   5.097  0.6040 -0.0517  0.0194
34998W        W35862  20.719   9.648   2.656 -0.3185 -0.3045 -0.3721
34999W        W35863  19.905   9.439   5.563 -0.2016 -0.1383  0.1428
35000W        W35864  21.017   9.103   7.078 -0.2330  0.0744  0.1123
35001W        W35865  21.471  10.143   5.533 -0.1376 -0.1672 -0.1562
35002W        W35866  17.749   9.072   7.192 -0.0635 -0.2159  0.1516
35003W        W35867  21.737   7.697   7.754 -0.0225  0.0129  0.0858
35004W        W35868  22.021   9.684   4.779  0.2157  0.0846  0.0691
35005W        W35869  20.284   9.822   5.239 -0.1540 -0.0620 -0.2460
35006W        W35870  22.666   8.535   3.735  0.0374  0.0518 -0.3506
35007W        W35871  19.938   7.321   6.617  0.1222 -0.0271  0.1756
35008W        W35872  19.633  10.482   8.834  0.1437 -0.1605 -0.0714
35009W        W35873  21.742   6.776   3.974  0.3345 -0.0868 -0.4855
35010W        W35874  22.498   5.337   6.841  0.0636 -0.2940  0.3731
35011W        W35875  18.326   9.181   7.536 -0.1286 -0.1793 -0.1495
35012W        W35876  23.088   7.756   4.020  0.2729 -0.0693  0.2090
35013W        W35877  24.764   7.275   6.995  0.0538  0.1731  0.0205
35014W        W35878  21.104   8.693   3.702  0.0345 -0.1008  0.1923
35015W        W35879  20.109  10.292   5.093  0.0566 -0.3276 -0.0334
35016W        W35880  17.898  10.053   5.813  0.1216 -0.1835 -0.2002
35017W        W35881  19.051   5.817   4.824 -0.2693 -0.0668 -0.0383
35018W        W35882  19.542  13.245   5.205  0.0126 -0.3716  0.3924
35019W        W35883  19.929  10.395   1.647  0.0356  0.0527  0.0103
35020W        W35884  21.629  10.664   5.416  0.0246 -0.0493 -0.2497
35021W        W35885  20.671   7.584   4.008 -0.0192  0.1879  0.0774
35022W        W35886  20.503   9.331   5.853 -0.0945  0.2627 -0.1987
35023W        W35887  21.504  10.865   4.981  0.3540 -0.0193  0.4034
35024W        W35888  21.561  10.890   4.461  0.2842  0.3296  0.0920
35025W        W35889  21.878   6.673   5.346 -0.0589 -0.2816 -0.1663
35026W        W35890  23.885  10.132   5.037  0.2916 -0.1385 -0.1853
35027W        W35891  16.707   7.499   1.499  0.2358  0.1399  0.0815
35028W        W35892  19.567   9.693   5.810 -0.0362 -0.0564 -0.1337
35029W        W35893  20.808   6.450   4.540  0.0046 -0.1292 -0.2226
35030W        W35894  21.105   8.292   6.653 -0.2176  0.0598  0.0329
35031W        W35895  20.881   8.703   6.437 -0.1162 -0.2094  0.2598
35032W        W35896  17.603  10.776   5.762  0.2026  0.1528 -0.1324
35033W        W35897  20.202   9.909   1.930  0.0553  0.2702 -0.2420
35034W        W35898  20.077   8.062   4.469 -0.0160 -0.1344  0.0491
35035W        W35899  19.735   8.803   6.036 -0.2614 -0.1184 -0.3949
35036W        W35900  20.043   5.020   6.416 -0.0112  0.0097  0.1732
35037W        W35901  18.308  10.473   7.048  0.1356  0.0795  0.0100
35038W        W35902  18.993   6.311   7.199  0.1824 -0.1415 -0.2135
35039W        W35903  22.415   7.612   8.444 -0.2160 -0.0868 -0.0859
35040W        W35904  22.224   6.858   5.658  0.0803 -0.3811 -0.1329
35041W        W35905  20.866   8.626   5.109 -0.1296  0.1174  0.0644
35042W        W35906  18.217   9.238   5.676 -0.0382  0.0761 -0.2725
35043W        W35907  18.725  11.823   5.679 -0.0258  0.1833 -0.0892
35044W        W35908  21.761  12.193   8.874 -0.1827 -0.1041 -0.1133
35045W        W35909  19.005  10.182   4.093  0.0626 -0.3772 -0.0206
35046W        W35910  24.114  10.732   4.378  0.2072 -0.0455 -0.1135
35047W        W35911  20.292   8.744   5.270 -0.0402 -0.1722  0.1226
35048W        W35912  21.348   8.617   4.940 -0.1491 -0.1935  0.2846
35049W        W35913  22.059  12.443   5.300 -0.0135 -0.1953 -0.1170
35050W        W35914  22.835   8.663   5.049  0.1951 -0.4154 -0.2511
35051W        W35915  21.135   7.442   2.869  0.1005 -0.3380 -0.3983
35052W        W35916  17.226  12.297  10.132 -0.0328  0.1359  0.0205
35053W        W35917  17.356   9.185   4.679  0.3095  0.0753  0.0606
35054W        W35918  19.785  13.088   2.321  0.0867  0.2136 -0.0670
35055W        W35919  20.276  10.549   5.456 -0.2251 -0.2156  0.1133
35056W        W35920  17.380  10.397   6.389 -0.4251  0.0201  0.2025
35057W        W35921  20.087   7.430   7.784 -0.0002  0.3989 -0.1002
35058W        W35922  17.785   9.633   4.537 -0.2195 -0.1008 -0.3073
35059W        W35923  21.383   8.552   4.371  0.0760  0.2235 -0.0479
35060W        W35924  22.898   8.431   4.549  0.0447  0.0833  0.1752
35061W        W35925  21.374   9.492   6.978 -0.1854  0.2373  0.1461
35062W        W35926  22.313   7.915   5.205 -0.2152 -0.0337  0.1577
35063W        W35927  18.707   8.139   2.680  0.1087 -0.2280 -0.1453
35064W        W35928  19.118   9.884   8.102 -0.0838  0.0310 -0.1508
35065W        W35929  19.841   9.604   4.099  0.1999  0.0429 -0.2572
35066W        W35930  19.633   9.095   4.837  0.1346  0.0516 -0.0997
35067W        W35931  19.724  10.069   4.299 -0.2303 -0.0487 -0.0855
35068W        W35932  18.034  10.042   8.403  0.0834  0.3031 -0.3270
35069W        W35933  18.703   6.754   9.235 -0.0929 -0.2826  0.0154
35070W        W35934  18.766   7.092   5.469 -0.1871 -0.0438  0.0855
35071W        W35935  17.819   6.090   5.403 -0.0078 -0.2097 -0.0953
35072W        W35936  21.700   9.829   1.430 -0.3907  0.0261  0.1336
35073W        W35937  19.193   8.636   4.806  0.2989 -0.0939 -0.1984
35074W        W35938  21.722   9.368   4.534  0.1667  0.1184  0.1829
35075W        W35939  20.609   8.679   5.661  0.2354  0.1083  0.0648
35076W        W35940  20.207   9.374   4.817 -0.3143 -0.1893 -0.1961
35077W        W35941  21.529   6.839   7.113 -0.0539 -0.2580  0.1512
35078W        W35942  22.682   9.598   4.375 -0.0504 -0.0298 -0.3160
35079W        W35943  17.586   7.289   6.286 -0.0939  0.0008  0.3422
35080W        W35944  21.032   6.827   5.851  0.1408 -0.1449  0.1664
35081W        W35945  18.087   8.954   2.810 -0.0231  0.0526 -0.1956
35082W        W35946  16.290  10.870   8.587 -0.4422 -0.3171 -0.0086
35083W        W35947  23.061   9.154   5.201  0.1007  0.4290 -0.0121
35084W        W35948  18.991  11.521   2.182  0.0241  0.1487 -0.1924
35085W        W35949  19.414  10.322   3.782 -0.2270  0.1581 -0.0461
35086W        W35950  20.078  10.237   6.451 -0.1554 -0.1390 -0.2028
35087W        W35951  17.888   9.741   5.401 -0.0838  0.3385 -0.4779
35088W        W35952  20.360   9.106   7.141 -0.0078  0.1141 -0.0984
35089W        W35953  20.955   6.720   6.291 -0.1398 -0.2154 -0.3586
35090W        W35954  22.365   8.257   6.653 -0.2213  0.1391  0.2864
35091W        W35955  20.758   7.518   3.350 -0.0243  0.1208  0.1260
35092W        W35956  20.645  10.698   5.812  0.0961  0.3206  0.1255
35093W        W35957  20.351  10.027   3.597  0.2317  0.1800  0.2601
35094W        W35958  22.816   6.147   6.703  0.1036  0.0255  0.2172
35095W        W35959  20.571  10.918   8.046 -0.2985 -0.1887 -0.0903
35096W        W35960  21.666   6.208   8.078 -0.3235  0.0483 -0.0633
35097W        W35961  23.534   8.530   5.761  0.2576 -0.0047  0.2521
35098W        W35962  19.987   9.872   6.822 -0.0724  0.2380  0.0134
35099W        W35963  20.338   7.231   4.082 -0.0324 -0.1360 -0.3537
35100W        W35964  22.229   9.607   0.759  0.0649  0.0616 -0.2598
35101W        W35965  17.881  10.023   8.921  0.1907 -0.0758  0.1133
35102W        W35966  16.623  12.606   7.405  0.0314  0.2248  0.1007
35103W        W35967  21.495   6.437   6.735 -0.0380 -0.1988 -0.0737
35104W        W35968  18.553   7.717   7.272 -0.1385  0.0014  0.2375
35105W        W35969  18.816   9.354   4.265  0.2378  0.1814 -0.0391
35106W        W35970  21.501   7.312   8.012  0.1546 -0.4328  0.0324
35107W        W35971  20.681   7.360   7.377 -0.3320  0.0996  0.0920
35108W        W35972  19.547  11.313   5.496  0.0519  0.1226 -0.0126
35109W        W35973  22.055  10.104   4.331  0.0733 -0.2068  0.0423
35110W        W35974  17.409  12.265   5.879  0.2133 -0.1695 -0.0894
35111W        W35975  20.208   9.740   5.795  0.1205  0.3958 -0.2489
35112W        W35976  21.170   7.155   5.249 -0.1102 -0.4724 -0.3217
35113W        W35977  17.841   6.803   7.033  0.1510 -0.2055  0.0112
35114W        W35978  21.726   9.503   5.702 -0.2002  0.1111  0.0126
35115W        W35979  23.437  10.537   3.769  0.1721  0.0788  0.1949
35116W        W35980  20.323   9.523   4.283  0.0151 -0.0058 -0.4449
35117W        W35981  17.061  12.295   8.791 -0.0240 -0.0074  0.0389
35118W        W35982  21.129   8.705   5.630  0.2467 -0.1914  0.2120
35119W        W35983  19.732   8.124   4.099  0.0787  0.0938 -0.1231
35120W        W35984  22.419   8.549   4.336  0.1214 -0.2127  0.0793
35121W        W35985  20.901   9.952   1.748 -0.2070  0.1917  0.0525
35122W        W35986  23.402   9.521   3.892 -0.1213 -0.0292 -0.4719
35123W        W35987  21.171  13.523   8.140 -0.1623 -0.3967  0.0516
35124W        W35988  20.076   8.486   5.717 -0.2869  0.0239  0.2348
35125W        W35989  21.031   6.650   7.998  0.1946  0.0048 -0.2691
35126W        W35990  19.369   9.845   4.060  0.1291 -0.0548  0.1645
35127W        W35991  22.435  10.924   6.387 -0.2434  0.0718  0.1705
35128W        W35992  21.189  13.200   7.003 -0.1719 -0.2766 -0.2276
35129W        W35993  21.147   9.577   4.771  0.0243  0.0871 -0.1083
35130W        W35994  19.030  10.050   4.984  0.1762  0.4707  0.0524
35131W        W35995  22.900  10.527   3.570  0.0291 -0.2057 -0.1100
35132W        W35996  22.191   9.893   3.843  0.0030 -0.0057 -0.3300
35133W        W35997  19.151   6.268   5.043  0.2132 -0.0413  0.2240
35134W        W35998  23.115   9.796   4.214  0.0992 -0.1230  0.3478
35135W        W35999  22.837   7.991   6.721 -0.0090  0.1814  0.4933
35136W        W36000  21.060   8.841   4.177  0.0310 -0.0251 -0.1384
35137W        W36001  22.010   9.706   5.338  0.2253  0.1170  0.0834
35138W        W36002  20.343  11.067   5.880  0.0742  0.2580  0.0239
35139W        W36003  21.347   6.588   5.158 -0.0610 -0.0106 -0.0750
35140W        W36004  19.253  10.940   5.238  0.0464 -0.1690  0.3811
35141W        W36005  17.868   8.060   6.242 -0.0210  0.2642  0.0608
35142W        W36006  20.784   8.856   1.628 -0.1931  0.1950 -0.0272
35143W        W36007  21.320   7.522   4.624  0.2775  0.1765  0.0162
35144W        W36008  21.722   7.589   6.151  0.0849 -0.2813  0.0981
35145W        W36009  22.310   7.825   3.356  0.0073 -0.2356 -0.0153
35146W        W36010  20.628   8.582   3.993  0.0783  0.2296 -0.0981
35147W        W36011  18.920   7.945   4.004 -0.0296  0.1206  0.0704
35148W        W36012  20.750   9.495   3.671  0.2571 -0.0576  0.0560
35149W        W36013  19.510   9.620   6.849  0.0674  0.1412 -0.1773
35150W        W36014  22.745   8.877   4.459  0.0797  0.1607 -0.3061
35151W        W36015  21.837   7.085   5.981  0.3121  0.3886  0.1131
35152W        W36016  20.151   8.187   6.208  0.0073  0.1733 -0.1414
35153W        W36017  21.579   7.391   5.526  0.0076  0.0596 -0.1034
35154W        W36018  16.739   7.405   4.052  0.3528  0.3251  0.1095
35155W        W36019  16.216   7.549   7.377 -0.1902  0.3403  0.3695
35156W        W36020  19.154   8.953   7.317 -0.0039  0.2982 -0.1333
35157W        W36021  20.433   8.585   2.872 -0.2105  0.5100  0.1198
35158W        W36022  19.071  10.461   5.962 -0.1949  0.0136  0.0177
35159W        W36023  17.182  11.933   6.582  0.1985 -0.4207 -0.1599
35160W        W36024  20.700   8.033   4.975 -0.1446  0.0735 -0.1539
35161W        W36025  22.151   8.871   8.298 -0.0863 -0.0021 -0.0671
35162W        W36026  20.235   8.158   5.353  0.0564 -0.0610  0.0348
35163W        W36027  17.361   9.822   5.159  0.0301 -0.1016  0.0744
35164W        W36028  22.413   5.536   4.849 -0.0399 -0.1147 -0.0830
35165W        W36029  24.466   9.089   6.946 -0.1302 -0.0887 -0.0835
35166W        W36030  20.723   9.256   4.600  0.4811  0.2679 -0.3026
35167W        W36031  20.836   5.864   5.828 -0.4254  0.1208 -0.1545
35168W        W36032  22.163   7.767   3.847  0.0778  0.1657 -0.0944
35169W        W36033  19.072   8.920   5.647  0.0631 -0.1284  0.3441
35170W        W36034  19.216  10.930   4.710 -0.0408  0.3643  0.1115
35171W        W36035  20.588   6.307   6.263  0.0212  0.3273  0.2038
35172W        W36036  17.998   8.446   6.973 -0.0704 -0.0904 -0.0921
35173W        W36037  21.965   8.489   8.665  0.0342  0.1260 -0.2138
35174W        W36038  22.375   6.728   6.162  0.0657 -0.1675 -0.0312
35175W        W36039  19.945  11.454   4.324  0.1442  0.1864 -0.0799
35176W        W36040  19.125  13.446   5.028  0.2738 -0.0945 -0.1010
35177W        W36041  18.324   7.705   5.872  0.0611  0.0693  0.0180
35178W        W36042  19.869   9.988   5.468  0.0874  0.1998 -0.0650
35179W        W36043  22.726   8.993   5.592 -0.1868  0.1312 -0.1865
35180W        W36044  21.158  10.185   3.229 -0.1044 -0.2308  0.2459
35181W        W36045  22.602   8.957   6.885  0.2113  0.0332 -0.1790
35182W        W36046  19.450  10.776   5.758  0.0867  0.1962  0.2589
35183W        W36047  21.856   4.698   2.091  0.1829  0.0018  0.1813
35184W        W36048  21.613   9.036   2.276 -0.0572  0.2651  0.2156
35185W        W36049  15.771  11.808   7.746 -0.0005 -0.0085  0.0599
35186W        W36050  20.103   6.877   4.375  0.1413 -0.3532  0.0308
35187W        W36051  19.079   9.340   6.977  0.4516  0.0858  0.0307
35188W        W36052  23.648   7.150   4.626  0.0840 -0.0698  0.0266
35189W        W36053  20.344   9.562   6.786 -0.5590 -0.1048  0.0729
35190W        W36054  17.704  10.513   8.033  0.0764 -0.1325 -0.0447
35191W        W36055  19.020   8.107   7.595  0.0955 -0.0074 -0.1320
35192W        W36056  16.519   8.826   4.476  0.1331 -0.2951  0.0216
35193W        W36057  24.045   8.418   3.377  0.2340 -0.1394 -0.3630
35194W        W36058  19.867   9.595   7.589  0.0169 -0.0142 -0.1212
35195W        W36059  19.030   8.587   2.740  0.1439  0.0358 -0.0596
35196W        W36060  21.519   9.898   9.470 -0.0161 -0.1797 -0.0249
35197W        W36061  21.401   7.725   3.374 -0.2041 -0.1902 -0.2077
35198W        W36062  20.076  10.899   4.075  0.0135 -0.0302 -0.2802
35199W        W36063  19.551   9.959   3.413  0.1468  0.0300 -0.3003
35200W        W36064  17.924   7.945   6.719 -0.2162  0.1497 -0.0155
35201W        W36065  18.893  10.871   5.649 -0.1248  0.2327  0.2912
35202W        W36066  17.656   6.700   3.816  0.3969  0.2286  0.4417
35203W        W36067  19.273  11.370   4.956  0.0673 -0.1673  0.2763
35204W        W36068  18.298   7.443   3.069  0.0240 -0.0764 -0.0050
35205W        W36069  21.410  12.036   3.596  0.1898  0.2208 -0.5159
35206W        W36070  19.733   9.612   5.109  0.2489  0.0078  0.2277
35207W        W36071  22.020  12.156   3.048  0.2253  0.0377 -0.0358
35208W        W36072  20.965   8.644   8.858 -0.1109 -0.0985  0.0878
35209W        W36073  19.837  11.469   9.271 -0.0016  0.2145 -0.0813
35210W        W36074  21.860  11.809   7.337  0.0965 -0.1803 -0.1829
35211W        W36075  21.785  12.636   9.098 -0.0756 -0.1120  0.1315
35212W        W36076  18.518  11.369   4.590 -0.3214 -0.0993  0.1060
35213W        W36077  23.724  11.356   2.764  0.0396  0.0687 -0.0107
35214W        W36078  20.295   9.396   3.833  0.1821 -0.0546 -0.0285
35215W        W36079  23.446   9.028   4.057 -0.2517 -0.1843  0.2693
35216W        W36080  21.276  11.237   4.668 -0.3363 -0.5016  0.1422
35217W        W36081  21.378   9.004   5.286  0.2044 -0.2635 -0.0951
35218W        W36082  21.210   8.107   4.896  0.2438  0.2557  0.0748
35219W        W36083  19.103  10.667   3.705 -0.0494 -0.1438  0.5374
35220W        W36084  19.355   8.531   5.377 -0.0177  0.2615  0.1388
35221W        W36085  21.417  10.307   6.550 -0.3704  0.1688  0.0495
35222W        W36086  18.591   9.796   4.568 -0.0296  0.0242  0.1246
35223W        W36087  19.169   7.404   5.372  0.0880 -0.1396 -0.1727
35224W        W36088  20.991  10.611   4.007  0.1033 -0.0518  0.2081
35225W        W36089  17.354   3.553   4.165 -0.0159  0.0747  0.3193
35226W        W36090  20.013   8.591   4.537 -0.0230  0.0090  0.1779
35227W        W36091  22.245   7.356   3.475  0.0117 -0.0263 -0.1175
35228W        W36092  21.530   9.422   6.164 -0.2131 -0.1178 -0.1117
35229W        W36093  19.161  10.340   5.411  0.0177 -0.0360 -0.3271
35230W        W36094  17.455  10.685   5.277  0.0251 -0.1882  0.1226
35231W        W36095  19.433   9.056   3.642 -0.1182 -0.0361  0.0321
35232W        W36096  18.695  10.450   6.318  0.1232 -0.3106 -0.0012
35233W        W36097  22.417   6.239   6.410 -0.0278  0.0639 -0.0289
35234W        W36098  17.693   6.882   7.550 -0.0674 -0.1338  0.1272
35235W        W36099  19.149   7.967   4.511 -0.1832  0.0528  0.0012
35236W        W36100  18.605   7.942   4.415  0.0611  0.2178  0.3613
35237W        W36101  20.577   7.237   4.672 -0.0573  0.2789  0.0486
35238W        W36102  20.714   9.691   5.524 -0.0071 -0.0136  0.1254
35239W        W36103  22.303   6.112   3.047  0.3256 -0.0494 -0.0409
35240W        W36104  20.640  10.590   7.252 -0.0286 -0.2945  0.0416
35241W        W36105  19.378   9.140   5.959  0.0532 -0.2870  0.1964
35242W        W36106  19.985  10.903   3.541  0.1324 -0.2329  0.0939
35243W        W36107  20.231  11.479   6.175 -0.0621  0.0424 -0.0594
35244W        W36108  18.410  10.344   2.476 -0.4183 -0.0478 -0.4105
35245W        W36109  23.000   7.257   4.877 -0.2371  0.1191 -0.1349
35246W        W36110  18.655   9.125   5.425  0.1483  0.0621 -0.1184
35247W        W36111  22.035   7.270   3.954  0.3210 -0.0395 -0.0744
35248W        W36112  19.079   7.981   1.973 -0.1898  0.0484  0.1831
35249W        W36113  20.475  11.528   5.690 -0.0755 -0.1564 -0.1684
35250W        W36114  19.353   9.344   4.239 -0.1778 -0.2412  0.1277
35251W        W36115  21.209   7.483   7.277  0.0675 -0.1613 -0.1299
35252W        W36116  19.476   7.559   7.811 -0.2354 -0.1000 -0.0269
35253W        W36117  23.398  10.350   5.833 -0.1304  0.1051  0.0942
35254W        W36118  21.470   6.106   6.344 -0.1461 -0.1462 -0.1902
35255W        W36119  18.078   8.913   3.909 -0.1922 -0.0206 -0.1023
35256W        W36120  21.456   8.662   6.049 -0.1380  0.3092  0.0767
35257W        W36121  19.137  12.532   3.058 -0.1187  0.1204 -0.1115
35258W        W36122  19.735   5.497   7.122 -0.0247 -0.1722 -0.0791
35259W        W36123  21.063   6.104   4.247  0.2159 -0.0223 -0.0863
35260W        W36124  20.493   9.903   4.531 -0.3271 -0.2437  0.1388
35261W        W36125  22.024   8.171   5.541  0.2132  0.0677 -0.3531
35262W        W36126  23.889  10.652   3.505  0.1520  0.2213 -0.0157
35263W        W36127  20.985  10.067   5.818  0.0897  0.1034  0.0342
35264W        W36128  18.806  11.157   4.965 -0.0149  0.1911 -0.1890
35265W        W36129  21.982  10.241   5.379  0.0600  0.0344  0.1924
35266W        W36130  22.173  11.805   9.011 -0.2005 -0.1759 -0.2827
35267W        W36131  19.758   8.646   5.060  0.1943  0.1415 -0.2051
35268W        W36132  18.611   8.538   6.944  0.2090  0.5215 -0.0965
35269W        W36133  20.876  11.409   7.187  0.0022 -0.0054 -0.1125
35270W        W36134  20.182  10.578   7.704  0.0078 -0.3115  0.1836
35271W        W36135  17.495  11.420   9.603 -0.1893  0.0403 -0.0823
35272W        W36136  23.385  10.339   2.565  0.3984 -0.0895  0.0180
35273W        W36137  21.592   6.705   6.270 -0.1627 -0.0405  0.0019
35274W        W36138  21.490   9.789   4.487  0.0485 -0.0987 -0.0504
35275W        W36139  18.348   8.509   2.954  0.1084 -0.0749  0.2810
35276W        W36140  18.778   9.908   9.029  0.1959 -0.1842 -0.0942
35277W        W36141  20.210   7.146   8.255  0.2146 -0.0185 -0.0757
35278W        W36142  19.768   7.565   8.296 -0.1982 -0.0666 -0.3024
35279W        W36143  20.588  10.299   8.883 -0.1483  0.0684 -0.0068
35280W        W36144  18.353   9.773   5.884 -0.1837 -0.1224  0.0232
35281W        W36145  19.517   6.798   8.329  0.2245 -0.1491  0.0428
35282W        W36146  18.580   6.020   8.040 -0.1476 -0.0209  0.3011
35283W        W36147  20.777   7.714   8.817  0.1213  0.0028 -0.3621
35284W        W36148  19.165   6.500   9.116 -0.0442  0.1392  0.3346
35285W        W36149  17.646  10.592  10.717  0.2729 -0.0765 -0.1069
35286W        W36150  16.648   8.315  12.638 -0.1392  0.2644 -0.1086
35287W        W36151  18.989   7.689   8.823 -0.3666  0.1838  0.0770
35288W        W36152  18.244   7.167   8.922 -0.0015  0.1414 -0.1096
35289W        W36153  22.237   7.382  13.141 -0.1065 -0.0376 -0.1365
35290W        W36154  17.119   6.607  10.023  0.0843 -0.0916  0.0192
35291W        W36155  19.107  10.180  10.708  0.1464 -0.1354  0.1597
35292W        W36156  20.267   9.713   7.888  0.1139  0.1992  0.1804
35293W        W36157  18.624   7.146  10.496 -0.2422 -0.0808 -0.1456
35294W        W36158  19.236   7.466   7.236 -0.4519 -0.0237  0.0066
35295W        W36159  22.427   7.102   8.838 -0.1572 -0.1223  0.2868
35296W        W36160  25.036  10.828   9.749 -0.0985 -0.0111  0.2040
35297W        W36161  18.825   7.609   9.757 -0.0801 -0.3007  0.3155
35298W        W36162  18.645   8.997  10.137 -0.0082  0.1747  0.2023
35299W        W36163  19.527   8.203   7.733  0.1034 -0.0460  0.0844
35300W        W36164  20.293   4.457  10.526  0.1383 -0.0345 -0.1240
35301W        W36165  20.182   8.517   9.636  0.0837 -0.2691  0.0095
35302W        W36166  22.375   8.758  11.419  0.3507 -0.3095  0.0972
35303W        W36167  19.548   8.619   7.035  0.3388  0.2546  0.0055
35304W        W36168  18.232   9.836   7.960 -0.2517 -0.1516 -0.0400
35305W        W36169  19.518   8.650   7.541 -0.1808  0.1904  0.3857
35306W        W36170  18.862   9.819   7.692  0.3939  0.0891 -0.2113
35307W        W36171  20.458  11.867  12.081 -0.1914 -0.0690  0.0098
35308W        W36172  19.773   8.558  12.958  0.0538 -0.2954  0.1287
35309W        W36173  19.552   9.118  11.553  0.2915 -0.2224  0.3056
35310W        W36174  18.223   9.181  10.479 -0.1243 -0.1309 -0.2795
35311W        W36175  19.434   8.139  10.252  0.2640 -0.0037 -0.1013
35312W        W36176  19.916   5.492  11.455  0.0301 -0.0309  0.0942
35313W        W36177  18.549  10.963   8.355  0.2253 -0.1525 -0.3487
35314W        W36178  18.669   7.203   7.493  0.1838 -0.0928  0.2233
35315W        W36179  21.700  10.365   9.306  0.0603  0.1629  0.0567
35316W        W36180  23.241   7.317   8.165 -0.2248  0.0623 -0.0483
35317W        W36181  23.092  10.289   6.280 -0.3428  0.2984  0.2472
35318W        W36182  18.811  10.340  11.307 -0.1486  0.2617  0.0677
35319W        W36183  21.653   3.121   4.469 -0.0919  0.1135  0.0191
35320W        W36184  16.516  10.130   7.344  0.2267 -0.0260  0.2087
35321W        W36185  19.877  12.345   9.100  0.1042  0.1755 -0.0853
35322W        W36186  19.847   9.246  10.179 -0.0982 -0.1195 -0.2352
35323W        W36187  19.355   7.919   8.978 -0.0494 -0.1378  0.1761
35324W        W36188  21.347   8.359   8.311  0.0892  0.0440 -0.1130
35325W        W36189  21.892  10.603   6.613 -0.2360 -0.0680 -0.1143
35326W        W36190  21.530  12.202   9.304  0.0610  0.0618  0.0180
35327W        W36191  21.174   7.097   7.662  0.0779 -0.0063 -0.0763
35328W        W36192  20.437  10.519  10.616  0.0736 -0.3167 -0.0408
35329W        W36193  20.164   6.934   7.396  0.0637  0.1620 -0.0489
35330W        W36194  22.228   7.760   7.447  0.2261  0.1010  0.0710
35331W        W36195  19.770   9.321   8.701  0.1788 -0.0910  0.1971
35332W        W36196  18.598   6.078   6.325  0.1000 -0.0069  0.2233
35333W        W36197  18.987   8.809  12.185 -0.0893  0.0757 -0.0729
35334W        W36198  19.298  12.436   7.343  0.1529  0.2413 -0.0512
35335W        W36199  18.832   9.925  10.230 -0.0658  0.0640  0.0694
35336W        W36200  22.410   9.573   7.265 -0.1888  0.0936  0.0399
35337W        W36201  15.724   9.533  10.398  0.2219 -0.1652  0.1967
35338W        W36202  21.235  10.503   9.444  0.0668 -0.0902  0.1394
35339W        W36203  16.923   9.152   7.315 -0.0786  0.2380 -0.0350
35340W        W36204  18.938   9.564   8.730  0.0521 -0.1718 -0.1154
35341W        W36205  21.922   5.918  10.010  0.3915 -0.2964 -0.1744
35342W        W36206  21.288   8.262   3.459 -0.0950  0.1343  0.0994
35343W        W36207  18.377   4.469   8.503 -0.1846  0.0538  0.1905
35344W        W36208  19.790  11.434   6.598 -0.1114 -0.2523  0.2691
35345W        W36209  19.486   9.079   6.904 -0.2096  0.0197 -0.0767
35346W        W36210  20.080  10.652  12.181  0.1765  0.0188  0.1574
35347W        W36211  22.956   7.072   8.944  0.2876 -0.1193 -0.1846
35348W        W36212  21.870  13.459  11.558  0.3175 -0.1621  0.0114
35349W        W36213  20.872  10.007   8.549  0.0969  0.2513  0.3982
35350W        W36214  19.985   9.360   9.636  0.0424 -0.0833 -0.1260
35351W        W36215  17.473  10.192  13.198 -0.1187  0.1050 -0.2595
35352W        W36216  17.624   7.490   6.771  0.3156 -0.1206  0.1128
35353W        W36217  18.062   7.940   7.262  0.2033  0.1777 -0.2006
35354W        W36218  20.244   8.201   6.940  0.1105  0.1781  0.3677
35355W        W36219  22.284   8.378   9.025 -0.1872 -0.1187 -0.0744
35356W        W36220  18.534   8.130  10.470  0.2909  0.0594  0.0206
35357W        W36221  17.070   9.805  10.570  0.0508 -0.0220 -0.1446
35358W        W36222  19.955   7.947  10.412  0.1590  0.1118 -0.1381
35359W        W36223  20.099   7.855   9.020 -0.1541  0.0769 -0.0041
35360W        W36224  20.520   6.593  10.396 -0.1564  0.0868 -0.2142
35361W        W36225  20.557   8.074   6.526 -0.0215 -0.0212 -0.1026
35362W        W36226  21.986  10.749   8.159 -0.0282  0.1175  0.0733
35363W        W36227  20.895   6.832  11.336  0.4329  0.3017 -0.0144
35364W        W36228  24.985   6.671  11.804  0.0722 -0.0345 -0.1152
35365W        W36229  22.664   8.611  10.216  0.0129 -0.1909 -0.1768
35366W        W36230  20.590   9.188   8.039  0.2833 -0.1488 -0.2659
35367W        W36231  22.511   8.327  10.562 -0.1599  0.0146 -0.1641
35368W        W36232  16.982   9.579   6.711 -0.0243  0.1411 -0.1681
35369W        W36233  20.468   5.214   9.999  0.1104 -0.1844 -0.1325
35370W        W36234  18.146   8.689  10.410  0.0209 -0.0823 -0.1422
35371W        W36235  18.976   7.996   9.319  0.3406  0.0345 -0.0109
35372W        W36236  21.433  10.620   6.909  0.3386 -0.0556  0.0728
35373W        W36237  20.967  11.630  11.060 -0.0557 -0.0629  0.1914
35374W        W36238  20.301   8.576   8.672  0.0054 -0.0007  0.2295
35375W        W36239  20.258   9.623   7.256  0.1575  0.0690 -0.0450
35376W        W36240  19.380  10.417   7.949  0.3125  0.2734 -0.2263
35377W        W36241  17.878   9.771  10.592  0.2013  0.0271  0.1434
35378W        W36242  20.713   6.634   8.936 -0.1461  0.1719 -0.1887
35379W        W36243  23.699  11.462   9.941  0.0063  0.3092  0.2938
35380W        W36244  23.025   8.055  10.978 -0.2002 -0.0573 -0.0074
35381W        W36245  19.223   7.065  12.461 -0.0903  0.0034 -0.2492
35382W        W36246  22.027   8.451   8.064  0.0202 -0.1723 -0.1711
35383W        W36247  21.443   9.368  11.370  0.1013  0.1091 -0.0021
35384W        W36248  20.797   7.841   8.335 -0.1115  0.0944  0.1188
35385W        W36249  19.210   6.644   7.975  0.1665 -0.0502 -0.1670
35386W        W36250  19.584   8.303   8.728 -0.1226 -0.0984  0.0225
35387W        W36251  20.252   9.817   8.813  0.0113  0.2294  0.1282
35388W        W36252  20.984   8.326  10.452 -0.0685 -0.0793 -0.1582
35389W        W36253  20.351  10.615   9.272  0.1037 -0.1830 -0.0538
35390W        W36254  23.218   9.693   7.183 -0.1006  0.0087  0.1371
35391W        W36255  17.217   8.370   7.237  0.0681  0.3099  0.2726
35392W        W36256  22.491   8.173   9.723 -0.2525 -0.1611  0.1436
35393W        W36257  19.079  10.368   6.633  0.0382 -0.3414 -0.1376
35394W        W36258  20.842   7.859   7.413  0.1985 -0.0331 -0.2364
35395W        W36259  21.223   8.781   7.397  0.4270  0.3196 -0.1170
35396W        W36260  24.143   7.926   7.767  0.0866 -0.0175 -0.1106
35397W        W36261  22.289  10.259  10.046 -0.0961  0.0231  0.2168
35398W        W36262  21.723  10.234   8.230 -0.1584  0.2861  0.0209
35399W        W36263  19.461   7.335   6.424 -0.0772 -0.0456  0.1563
35400W        W36264  19.049   9.599   9.852 -0.2842 -0.0493  0.2231
35401W        W36265  21.202   8.258   7.575  0.2616  0.1338  0.1376
35402W        W36266  16.032   7.777  10.220  0.0826 -0.0866  0.0766
35403W        W36267  18.360   7.753  11.522  0.0699 -0.1878  0.2546
35404W        W36268  20.369   9.381   9.158 -0.2416 -0.1384  0.0436
35405W        W36269  19.766  10.312   7.591 -0.0765  0.2762  0.1863
35406W        W36270  21.167  11.117   7.551  0.0226  0.0264 -0.0556
35407W        W36271  18.191   8.889   9.893 -0.1876  0.1751  0.0757
35408W        W36272  20.253  12.052   7.251 -0.0763 -0.1813 -0.1951
35409W        W36273  22.468   6.898   7.920  0.1096 -0.0822 -0.1836
35410W        W36274  21.057   9.563   7.826 -0.0190 -0.1157 -0.1841
35411W        W36275  18.242   8.724   8.331 -0.0525 -0.1920  0.2460
35412W        W36276  18.550  10.097   6.691 -0.3693 -0.1629  0.1162
35413W        W36277  22.185   7.919   9.269  0.2471  0.0451  0.0877
35414W        W36278  20.145  10.243   8.513  0.2158  0.3099 -0.0244
35415W        W36279  17.090  11.865  11.313 -0.0251  0.2084 -0.1097
35416W        W36280  17.010   6.701   6.507 -0.3175 -0.0241 -0.1405
35417W        W36281  18.782   7.220   9.416 -0.0835 -0.0103 -0.0187
35418W        W36282  20.871  11.462   9.298 -0.0634  0.1482 -0.2977
35419W        W36283  18.362   7.339   8.466 -0.0192 -0.1892 -0.1678
35420W        W36284  22.321   7.707  12.535 -0.2868 -0.2548 -0.1686
35421W        W36285  22.390   7.218   5.969  0.0930 -0.0931  0.0607
35422W        W36286  21.091   9.733   7.283 -0.2798 -0.1314  0.1215
35423W        W36287  16.826   9.804  11.115  0.1704 -0.0650 -0.2120
35424W        W36288  21.660  11.297   6.136  0.3300  0.2106 -0.2314
35425W        W36289  19.088  11.186   9.703  0.3570  0.0975 -0.2001
35426W        W36290  22.244  11.844   8.503 -0.0384 -0.0084 -0.3653
35427W        W36291  19.363   5.572   6.749 -0.0124  0.0401  0.1532
35428W        W36292  20.573  11.290   8.940 -0.3192  0.2299  0.0503
35429W        W36293  17.035   9.138   7.896 -0.1236  0.1015  0.0554
35430W        W36294  18.566   9.058   8.452  0.0197  0.0788 -0.1990
35431W        W36295  21.049   7.355   9.304 -0.1754 -0.1313 -0.1021
35432W        W36296  18.651  11.767   8.047  0.4565 -0.0759 -0.2740
35433W        W36297  17.437   6.915   6.621 -0.0890  0.1151 -0.1184
35434W        W36298  17.140   7.339   6.643  0.0503 -0.1339 -0.0175
35435W        W36299  19.117   9.839   7.201  0.0806  0.2097  0.1680
35436W        W36300  20.637   7.387   8.418 -0.2517 -0.1814  0.1829
35437W        W36301  18.796   6.399  11.337  0.1160 -0.1785 -0.1523
35438W        W36302  19.747   8.844  11.982 -0.0340  0.1680  0.0952
35439W        W36303  18.069   7.447  11.938  0.2444 -0.4514  0.0160
35440W        W36304  20.490   7.345  10.991  0.0633  0.1245  0.1691
35441W        W36305  20.080   7.268   9.143 -0.1647 -0.2757  0.1738
35442W        W36306  18.721   8.605   9.727  0.1296  0.0358  0.1448
35443W        W36307  20.310   7.770   7.307  0.0428  0.2312  0.1638
35444W        W36308  19.134  10.097   9.786  0.4584  0.1511 -0.1048
35445W        W36309  20.803  11.896   7.129  0.0108 -0.0695 -0.3641
35446W        W36310  19.038  10.660   9.710 -0.0201 -0.2949 -0.0585
35447W        W36311  20.871   5.833   7.778  0.4462  0.0157  0.0452
35448W        W36312  19.726   6.907   7.162 -0.2489 -0.0702 -0.0595
35449W        W36313  19.704   7.542   8.903 -0.3566 -0.1362 -0.0704
35450W        W36314  20.177   7.407   7.028 -0.0451 -0.0559 -0.0563
35451W        W36315  21.128   7.605   9.959 -0.1657 -0.4480  0.0886
35452W        W36316  17.841  11.614   9.955 -0.1330  0.0261  0.0422
35453W        W36317  18.317   7.588   9.598  0.0897 -0.0108  0.0291
35454W        W36318  15.482  15.657   7.438  0.3872 -0.1220  0.1374
35455W        W36319  21.791  10.485   8.669  0.2631  0.1362  0.2395
35456W        W36320  21.722  10.411   5.835  0.4372  0.1009  0.2317
35457W        W36321  21.476  10.886   7.295 -0.1038  0.0105 -0.1465
35458W        W36322  18.479   7.088   6.600  0.1608  0.2279 -0.0621
35459W        W36323  20.480   8.430   8.174 -0.3681 -0.1903  0.0019
35460W        W36324  21.403   5.128   8.138  0.0101  0.1742  0.1555
35461W        W36325  20.257   8.993  11.122 -0.0507 -0.0707  0.3632
35462W        W36326  22.354   9.970   6.190  0.2391  0.1081  0.1389
35463W        W36327  17.839   6.721   9.239  0.1583  0.2005 -0.0161
35464W        W36328  18.064   8.120  10.313 -0.0030 -0.1069 -0.1138
35465W        W36329  18.950   9.079   9.753  0.2954 -0.1321  0.0978
35466W        W36330  17.470  11.382   9.065  0.1082  0.3915  0.2716
35467W        W36331  17.417   9.213   7.515 -0.0995 -0.1598  0.1516
35468W        W36332  19.203  10.603  12.146  0.0408 -0.1764 -0.0303
35469W        W36333  21.224  10.225  12.135 -0.0031 -0.3787 -0.4067
35470W        W36334  20.547   8.928   9.004 -0.0848  0.0919 -0.1982
35471W        W36335  18.051   7.533   6.961 -0.0121  0.4750  0.0909
35472W        W36336  20.646   8.367   9.683 -0.0745  0.2068 -0.0265
35473W        W36337  20.307   5.658   9.059 -0.0314  0.0923 -0.4689
35474W        W36338  19.088   7.892   8.033  0.2313 -0.4139 -0.0820
35475W        W36339  21.121   9.260   8.815 -0.2619  0.0467 -0.2282
35476W        W36340  18.837   9.769  10.697 -0.0598  0.1854  0.0470
35477W        W36341  20.719   9.046   8.539 -0.0643  0.0810  0.3576
35478W        W36342  20.985   9.077   6.095  0.0141 -0.2333  0.2866
35479W        W36343  17.404   6.364   7.388 -0.2211  0.0514  0.1541
35480W        W36344  19.151   8.227   8.497 -0.1143  0.1167 -0.0475
35481W        W36345  18.194   5.619   7.210  0.0452 -0.0223 -0.0675
35482W        W36346  19.411   7.622  10.269 -0.1349  0.0053 -0.2432
35483W        W36347  20.545   7.182   7.838 -0.0264 -0.0525 -0.1795
35484W        W36348  20.891  10.350   6.809 -0.0999 -0.2093 -0.0378
35485W        W36349  18.236   8.682   7.436 -0.1320 -0.1934  0.2089
35486W        W36350  19.134  10.423  10.199  0.2446 -0.2693 -0.1437
35487W        W36351  17.460   5.607   9.908 -0.1565  0.2737  0.1979
35488W        W36352  19.909   8.366   9.104  0.3817 -0.2482 -0.0699
35489W        W36353  22.836   3.924  12.022 -0.0123  0.0804 -0.1036
35490W        W36354  22.619  10.071  11.275  0.1402 -0.0388  0.0179
35491W        W36355  21.686   8.718   8.279  0.0249 -0.2000  0.0868
35492W        W36356  22.065   8.581   7.548 -0.0726  0.1581  0.1468
35493W        W36357  20.000  12.286   6.718  0.0070 -0.0903 -0.2227
35494W        W36358  21.543   9.563  13.187 -0.1477  0.2271 -0.3398
35495W        W36359  18.398   8.868  12.212  0.1583  0.2061 -0.2542
35496W        W36360  20.814   8.492   7.413 -0.0364  0.1574  0.0025
35497W        W36361  22.106  10.100  10.475  0.2537  0.2627  0.0084
35498W        W36362  18.788  10.605  11.845 -0.0150  0.1161  0.0936
35499W        W36363  19.454   6.431   5.405 -0.0196  0.1858 -0.1275
35500W        W36364  21.208   8.194   7.102  0.4334  0.0857 -0.1374
35501W        W36365  18.451   8.414  10.048 -0.0327 -0.4643  0.1809
35502W        W36366  19.195   7.839  10.652  0.1387  0.0025 -0.0644
35503W        W36367  22.476   6.582   8.947  0.4519 -0.1290 -0.0985
35504W        W36368  19.437   9.519   7.895  0.0797  0.1047 -0.2047
35505W        W36369  18.674   8.421   9.261  0.0197 -0.0584  0.0070
35506W        W36370  19.361   8.515   8.091 -0.0553 -0.0833  0.3905
35507W        W36371  18.255   7.501  11.113 -0.1331 -0.1301  0.1841
35508W        W36372  20.690  10.486   4.516  0.0263 -0.2810  0.0423
35509W        W36373  21.976   8.079   6.968  0.1444  0.0496  0.2716
35510W        W36374  19.781   8.784   7.932 -0.3743  0.1174 -0.1628
35511W        W36375  18.827  11.353  10.320 -0.0996 -0.0368 -0.1337
35512W        W36376  23.521   7.425  11.524 -0.1632 -0.1822 -0.2476
35513W        W36377  18.464   6.636  10.997  0.1630 -0.1509  0.1511
35514W        W36378  19.676   9.752   9.579  0.1221 -0.0811  0.0450
35515W        W36379  19.656   8.395   9.725  0.0997 -0.2469 -0.1650
35516W        W36380  19.276  10.764   7.166  0.3222 -0.2639 -0.0915
35517W        W36381  16.693  11.781  10.061 -0.0512 -0.2266 -0.2767
35518W        W36382  19.537   6.237  10.831 -0.0857 -0.3903 -0.0420
35519W        W36383  20.000   6.919   9.516  0.0399 -0.3946 -0.3279
35520W        W36384  19.530   8.010  12.032 -0.4538  0.2265  0.0019
35521W        W36385  18.407  10.266   7.600  0.1845  0.1968  0.0731
35522W        W36386  21.638   8.607   9.650  0.2292  0.3312 -0.1859
35523W        W36387  19.752  11.557  10.517  0.1046  0.0302 -0.0882
35524W        W36388  22.447  11.431   8.775  0.4191 -0.0001 -0.0937
35525W        W36389  18.510   6.624   7.284 -0.0975 -0.1923  0.0126
35526W        W36390  21.476   7.359   6.872  0.1125 -0.1022 -0.0520
35527W        W36391  16.755  12.138  10.919 -0.0843  0.1360  0.2195
35528W        W36392  21.503  11.819   8.663 -0.1110 -0.0154 -0.1966
35529W        W36393  18.984   8.644  10.210  0.1686  0.1711 -0.0177
35530W        W36394  20.919   7.315   5.652  0.0578 -0.0822 -0.1666
35531W        W36395  23.240   8.258   6.826  0.2270 -0.2853  0.1487
35532W        W36396  22.541   7.612   5.536 -0.2071  0.1561 -0.0331
35533W        W36397  20.873   4.412  11.100  0.0807 -0.1717  0.1006
35534W        W36398  22.838  11.137   7.647 -0.2412  0.3322 -0.1724
35535W        W36399  19.588   8.313   6.271  0.0750 -0.2413  0.0088
35536W        W36400  20.366   8.601   7.213 -0.1273  0.0940  0.3692
35537W        W36401  18.613   6.639  10.516  0.3546 -0.2517  0.0704
35538W        W36402  20.140  11.068   9.312  0.1199  0.4675  0.0825
35539W        W36403  18.915   8.090  10.000 -0.2208  0.0921  0.2869
35540W        W36404  18.122  10.660  10.580 -0.2122  0.0500 -0.0183
35541W        W36405  17.578  10.212  11.887 -0.0317 -0.0101 -0.2061
35542W        W36406  17.785  10.174   6.639  0.0903  0.1073 -0.2546
35543W        W36407  24.103   9.551   6.696  0.0656 -0.2591  0.1447
35544W        W36408  18.153   9.364   7.116 -0.1528  0.2722  0.3311
35545W        W36409  20.981   9.729   6.740 -0.2402 -0.2046 -0.0543
35546W        W36410  17.314  14.029   8.208  0.1912  0.1214  0.0990
35547W        W36411  21.778   7.023  12.381  0.0180  0.2570  0.0720
35548W        W36412  18.424   8.372  10.862  0.2981  0.0032  0.1178
35549W        W36413  19.962   9.657   8.345  0.0862 -0.0271 -0.2288
35550W        W36414  20.811   9.946   7.994  0.1055 -0.1143 -0.3595
35551W        W36415  19.984   8.037   9.503 -0.1789  0.0698  0.0170
35552W        W36416  17.993  10.872   7.102  0.0316  0.0889  0.1908
35553W        W36417  20.580   7.003   6.994  0.1795  0.0985  0.1986
35554W        W36418  19.049   9.406   8.281  0.0289  0.0420  0.1462
35555W        W36419  17.482  11.881   7.003  0.1188 -0.0360 -0.1016
35556W        W36420  18.510   7.450   6.240 -0.3492  0.2314 -0.0754
35557W        W36421  17.100   5.818   8.106  0.0546 -0.1120  0.0097
35558W        W36422  18.956   8.939   8.871  0.2069  0.3058 -0.1721
35559W        W36423  17.250  13.164   9.970 -0.1589  0.0898  0.0634
35560W        W36424  21.653   8.956   6.413 -0.1595  0.2645 -0.0388
35561W        W36425  22.044   5.966   9.513  0.1504  0.1717 -0.0604
35562W        W36426  20.036   8.372   7.814 -0.0542 -0.0755  0.2292
35563W        W36427  19.273   8.711   8.542  0.2453 -0.0354  0.1669
35564W        W36428  20.906   7.268   6.691  0.2560  0.2177 -0.2436
35565W        W36429  20.919   7.937   6.292 -0.0805  0.3905 -0.0458
35566W        W36430  18.413  10.444   8.459 -0.0707 -0.0366  0.0771
35567W        W36431  20.845   7.361   6.174  0.1098 -0.3300  0.0730
35568W        W36432  21.628   9.854   7.355  0.1538 -0.1704  0.2725
35569W        W36433  18.119  10.314   8.004  0.0203 -0.1947 -0.1049
35570W        W36434  18.301   9.306   6.122 -0.2545 -0.0992  0.2043
35571W        W36435  21.066   7.021   8.327 -0.0279 -0.1438 -0.1058
35572W        W36436  19.369   8.109   7.191  0.0999 -0.1671 -0.1567
35573W        W36437  20.075  11.831   8.990 -0.1526 -0.1199  0.0107
35574W        W36438  21.551   7.068   8.532  0.2761 -0.1300  0.0595
35575W        W36439  18.261   9.739   8.820 -0.1211 -0.0619 -0.1383
35576W        W36440  17.770   8.430   7.494 -0.2104  0.1662 -0.0110
35577W        W36441  21.746   4.926  12.456 -0.3349 -0.1257  0.0624
35578W        W36442  19.217   8.959   9.276 -0.0494 -0.0328 -0.0545
35579W        W36443  21.305  11.378   5.389  0.0725  0.0530  0.2532
35580W        W36444  20.720   8.138   7.062 -0.1648 -0.0960 -0.0563
35581W        W36445  21.794  10.963   8.742  0.1181  0.2285 -0.2454
35582W        W36446  21.254   9.094   7.920  0.2688 -0.2647  0.1588
35583W        W36447  25.020   7.263   9.908  0.1910 -0.2009  0.0368
35584W        W36448  19.788   9.990   8.665  0.0513 -0.1543 -0.2270
35585W        W36449  17.100   9.711   8.865 -0.2664  0.0244 -0.1230
35586W        W36450  16.817   5.356   8.091 -0.0521 -0.2819 -0.1011
35587W        W36451  19.849  10.620   9.256 -0.0969 -0.3561 -0.1727
35588W        W36452  19.794   5.957   7.561  0.1315 -0.0638 -0.1752
35589W        W36453  20.457   9.912   9.828 -0.0046 -0.0436 -0.0503
35590W        W36454  18.611  11.962   9.545 -0.0268  0.0411  0.0561
35591W        W36455  19.344   9.587  11.308 -0.2334  0.2649 -0.1827
35592W        W36456  17.394   5.662   6.606 -0.0816  0.1820 -0.0795
35593W        W36457  19.374   6.581  10.411 -0.0968 -0.0924 -0.1478
35594W        W36458  20.098   8.953  12.883 -0.0058 -0.1649  0.5073
35595W        W36459  19.061   6.123   8.068  0.3191  0.0276  0.0336
35596W        W36460  20.069  11.318  12.573  0.0277  0.0314 -0.0413
35597W        W36461  22.269  10.667   8.582  0.3092 -0.2095  0.0387
35598W        W36462  17.324   8.075  13.927 -0.2839 -0.0413 -0.2641
35599W        W36463  17.168   9.092  10.301  0.3223  0.0730  0.3155
35600W        W36464  18.937  10.449   8.179 -0.0608 -0.3614 -0.2290
35601W        W36465  18.629  10.328  10.423 -0.0036 -0.2533 -0.0537
35602W        W36466  20.949   5.535   9.954 -0.1659  0.1305  0.3134
35603W        W36467  20.621   9.897   6.086  0.3406  0.0658  0.2520
35604W        W36468  21.233   4.433   7.604 -0.2251  0.4078 -0.0671
35605W        W36469  19.807   7.120   8.596  0.1338  0.0422  0.0728
35606W        W36470  21.743   8.075   8.415 -0.1601 -0.1164  0.0505
35607W        W36471  21.606   8.498   5.591  0.2530  0.1626  0.0575
35608W        W36472  19.003   8.328  10.573 -0.0189  0.1767 -0.0677
35609W        W36473  19.631  10.003  11.275 -0.1083 -0.3235  0.1535
35610W        W36474  19.781   9.698  10.436  0.0854 -0.0069  0.0293
35611W        W36475  21.241   8.889   9.656 -0.0044  0.3143 -0.0230
35612W        W36476  19.464  12.008  10.740 -0.1197  0.2050 -0.3292
35613W        W36477  20.823  12.464   7.792 -0.1187 -0.1029  0.0426
35614W        W36478  20.173  10.678   8.262  0.1604  0.1079  0.0553
35615W        W36479  18.910   6.072   9.605  0.0603  0.1822 -0.0497
35616W        W36480  19.317  12.600   7.785  0.0560  0.2125 -0.1795
35617W        W36481  19.308   6.693   6.993  0.0700 -0.2997  0.0476
35618W        W36482  20.999   7.850   9.477  0.2092  0.1545  0.1362
35619W        W36483  20.983   7.760   6.749 -0.2321  0.0362 -0.3811
35620W        W36484  19.777  10.962   8.465  0.0959  0.1958 -0.3674
35621W        W36485  19.987   9.876   9.973 -0.1815 -0.1276 -0.0669
35622W        W36486  19.899   7.899   7.734  0.1695  0.0894 -0.0979
35623W        W36487  18.533   9.318   8.911  0.0704  0.1898  0.1264
35624W        W36488  20.396  11.566   7.264  0.1118  0.0556  0.1756
35625W        W36489  17.109   7.087   8.819 -0.2389 -0.2953  0.2021
35626W        W36490  21.397   4.210  10.859 -0.0006 -0.1534 -0.0974
35627W        W36491  22.883  10.301   4.968  0.5156 -0.1444  0.2845
35628W        W36492  20.668  10.998   9.413  0.2602 -0.4288 -0.1757
35629W        W36493  16.742   9.448  11.484 -0.3757  0.1119 -0.0851
35630W        W36494  20.858  11.968   9.413  0.0583 -0.1578  0.3578
35631W        W36495  18.580   8.232   7.436  0.1137 -0.2172  0.3107
35632W        W36496  17.569  12.047  11.309 -0.0429 -0.2914  0.2014
35633W        W36497  19.587   8.766   8.956 -0.1036 -0.1298  0.1083
35634W        W36498  20.830   8.371   8.494 -0.1819 -0.2863 -0.1690
35635W        W36499  18.708   9.463   7.339  0.2811 -0.1902  0.3069
35636W        W36500  17.884   8.881   7.686  0.1790  0.0651  0.3065
35637W        W36501  21.169   8.869  11.480 -0.0051 -0.1215  0.0184
35638W        W36502  18.722   7.450  11.362 -0.0345 -0.1549  0.0254
35639W        W36503  21.509  10.042   7.805 -0.1385 -0.1580  0.1216
35640W        W36504  18.403   8.254  11.404 -0.2504  0.0458  0.1783
35641W        W36505  20.696  10.520   7.778  0.0778  0.3226  0.2144
35642W        W36506  21.377   8.954   9.104  0.2184  0.3135 -0.4612
35643W        W36507  20.662   6.281   8.087  0.1765  0.0417  0.1929
35644W        W36508  20.285   8.944   9.458 -0.0819  0.0502 -0.1688
35645W        W36509  23.858   9.739  10.758  0.3348 -0.2439  0.1479
35646W        W36510  21.566   9.421   5.000  0.0473  0.2188 -0.1116
35647W        W36511  21.602   8.424   6.528 -0.2809 -0.1840 -0.0005
35648W        W36512  20.285   7.656   6.221 -0.1731  0.2337  0.2199
35649W        W36513  20.041   9.469  12.255  0.1914 -0.4077  0.2617
35650W        W36514  20.228   9.149   6.443 -0.1981  0.0539  0.0202
35651W        W36515  18.166   5.920   9.439  0.3860 -0.0958  0.0169
35652W        W36516  21.347   8.137  10.765  0.2104 -0.0897  0.2157
35653W        W36517  20.159  10.099  10.521  0.2026 -0.1613 -0.2753
35654W        W36518  19.579   6.616   9.918 -0.2158  0.0583 -0.1734
35655W        W36519  18.700   8.567   8.469 -0.0022  0.0457 -0.3079
35656W        W36520  19.095   9.524  10.346 -0.1077  0.1167 -0.0912
35657W        W36521  16.963  10.051   7.619  0.1267 -0.1157 -0.0324
35658W        W36522  17.476   9.945  10.215 -0.0510  0.1194  0.0665
35659W        W36523  20.772   9.202   7.575  0.1600  0.2344  0.1112
35660W        W36524  22.335  12.329   9.749 -0.5232  0.0059  0.0342
35661W        W36525  20.000   6.938  10.289 -0.0320 -0.0391 -0.3865
35662W        W36526  19.312   9.170   8.783 -0.4028 -0.0383 -0.0524
35663W        W36527  19.434   8.458   9.279  0.2358  0.1124  0.0292
35664W        W36528  17.442  11.142  10.101  0.0581  0.2431  0.1761
35665W        W36529  20.158  11.439  10.931 -0.2084  0.0066 -0.1477
35666W        W36530  20.119   8.004  11.045  0.1616 -0.0015 -0.3960
35667W        W36531  18.763  10.897   8.852 -0.0529 -0.0244  0.2223
35668W        W36532  21.229   7.727   7.712 -0.0885 -0.1536 -0.0436
35669W        W36533  21.026  11.980   8.004  0.1553 -0.3964  0.2036
35670W        W36534  17.318  10.939   9.630 -0.0769 -0.1657 -0.2299
35671W        W36535  21.556   7.516   9.619 -0.2364 -0.4138 -0.0315
35672W        W36536  21.732  10.057   8.879  0.3484 -0.0987 -0.0702
35673W        W36537  20.025  10.997  11.119  0.0658  0.4097 -0.0345
35674W        W36538  19.657  10.601   5.264  0.0723  0.2387  0.1861
35675W        W36539  18.006   7.538   6.410  0.0786 -0.1581  0.1744
35676W        W36540  19.012  12.005  11.967 -0.4770  0.2855  0.1074
35677W        W36541  17.975   9.809  13.151  0.0299  0.2895 -0.0644
35678W        W36542  19.669  10.399  12.141 -0.0231  0.1369  0.0586
35679W        W36543  21.670  10.715  13.988 -0.2078  0.0098 -0.0729
35680W        W36544  18.834   9.223  10.998  0.0085 -0.1590  0.0239
35681W        W36545  19.936   8.803  11.481 -0.3534  0.2779  0.0698
35682W        W36546  19.283   8.532  11.272  0.1146 -0.1430 -0.2436
35683W        W36547  17.005  10.408  12.655  0.2204 -0.2728 -0.1203
35684W        W36548  18.899   8.753  15.321  0.0246 -0.0119  0.1007
35685W        W36549  17.568   8.556  14.980  0.0437 -0.0120 -0.1286
35686W        W36550  21.165   8.508  11.074 -0.0840 -0.1823 -0.0706
35687W        W36551  19.163   9.587  12.328 -0.1451  0.2482 -0.0284
35688W        W36552  19.749   6.767  12.242 -0.1489  0.2699  0.0254
35689W        W36553  22.900   6.145  13.745  0.1795 -0.0043  0.2801
35690W        W36554  19.673   7.058  14.046  0.0863 -0.0616  0.2822
35691W        W36555  19.986  11.966  15.956 -0.0764 -0.4152 -0.3069
35692W        W36556  22.642  12.060   8.740  0.2756  0.0049  0.0090
35693W        W36557  17.839  10.019  14.550 -0.2261  0.1735 -0.2117
35694W        W36558  18.277   8.121  17.116  0.0597 -0.3667 -0.1747
35695W        W36559  22.053  11.251  12.391  0.2843  0.1505  0.0353
35696W        W36560  22.233   8.468  11.878  0.0758  0.1907 -0.2892
35697W        W36561  16.229  10.316  14.230  0.1178 -0.1676 -0.0155
35698W        W36562  21.131  12.630  11.250 -0.2804 -0.3064  0.0178
35699W        W36563  20.063   9.003  12.341 -0.0138 -0.1158 -0.2354
35700W        W36564  17.806   8.465  10.018 -0.2301 -0.2488 -0.1343
35701W        W36565  20.347   8.997  16.059  0.4005  0.2152  0.0488
35702W        W36566  21.330   8.139  14.204  0.1866 -0.1691 -0.1426
35703W        W36567  17.735   8.053  14.182 -0.3271 -0.2575  0.2000
35704W        W36568  21.568  10.188  14.011 -0.1074 -0.2796 -0.1916
35705W        W36569  18.046   7.227  13.278 -0.2308  0.2707 -0.0778
35706W        W36570  18.223   7.590  14.097  0.0487 -0.1243 -0.1282
35707W        W36571  19.534   7.021  11.836 -0.1480  0.1906 -0.2022
35708W        W36572  19.691   8.473  14.641 -0.0996  0.1509 -0.2925
35709W        W36573  21.206   7.432  14.576 -0.2029 -0.0815  0.1012
35710W        W36574  17.121   6.328  11.775 -0.0413 -0.2402  0.3133
35711W        W36575  23.541   9.382  13.610 -0.3402 -0.2752  0.3027
35712W        W36576  18.874   7.629  10.315  0.3064  0.1978 -0.0720
35713W        W36577  19.867   9.004  13.326 -0.0256 -0.0184 -0.1677
35714W        W36578  23.230   8.566  12.995 -0.4515 -0.2281 -0.0395
35715W        W36579  21.463   7.818  12.786 -0.3581  0.1007  0.1288
35716W        W36580  22.456   9.393  10.657  0.1130  0.1081  0.1950
35717W        W36581  21.558   7.427  13.725  0.0916  0.1075 -0.0248
35718W        W36582  21.001  11.207  14.339 -0.0301 -0.0168  0.1360
35719W        W36583  20.812  11.321   9.840  0.1601 -0.0379 -0.2005
35720W        W36584  17.506  13.005  11.697 -0.2844  0.3193 -0.4281
35721W        W36585  17.726  11.012  12.897 -0.0504  0.1094  0.0895
35722W        W36586  22.576  10.526  12.358 -0.1137  0.2436  0.0668
35723W        W36587  20.475  10.273  13.270 -0.1328 -0.2918  0.0885
35724W        W36588  19.395   9.748  10.791 -0.2317 -0.1106  0.2697
35725W        W36589  24.165   7.143  10.420 -0.1602 -0.1785 -0.0091
35726W        W36590  20.851  10.569  12.482 -0.0801  0.1302  0.1657
35727W        W36591  19.995   9.513  13.629 -0.0363 -0.2050  0.1799
35728W        W36592  18.608  11.395  14.540 -0.1338  0.1539  0.0986
35729W        W36593  19.894  12.568  13.780  0.1741  0.1319 -0.1115
35730W        W36594  20.969   9.219  12.282  0.0759  0.2630  0.2159
35731W        W36595  20.055  10.769  12.666  0.0089 -0.2018 -0.0271
35732W        W36596  17.778   5.419  11.037 -0.1578 -0.1355  0.1152
35733W        W36597  23.389  10.486  13.332  0.0438  0.0969 -0.2054
35734W        W36598  18.916   8.622  14.649  0.0167 -0.2677  0.1263
35735W        W36599  21.468  11.622  10.964  0.0316 -0.0193  0.3438
35736W        W36600  23.553  10.644  12.451 -0.0262  0.3112  0.2513
35737W        W36601  17.133   8.688  10.820  0.0960  0.4310  0.2643
35738W        W36602  18.053   9.140  12.446 -0.0098  0.0068  0.1524
35739W        W36603  19.476   9.291  10.553  0.0001  0.1135 -0.0736
35740W        W36604  20.579   6.827  12.343 -0.0775 -0.0776 -0.1422
35741W        W36605  23.509   7.280  12.614 -0.2014 -0.2621  0.0170
35742W        W36606  15.674   9.372  12.701  0.1426 -0.0131 -0.0859
35743W        W36607  17.521   8.167  12.054  0.0306  0.3309 -0.0521
35744W        W36608  18.302  11.093  13.640 -0.0909  0.0009  0.2238
35745W        W36609  20.137   8.491  12.602  0.0064  0.1335 -0.0105
35746W        W36610  22.157  10.676  13.617  0.2028  0.0926  0.1681
35747W        W36611  19.528   8.318  10.695 -0.2576 -0.0336 -0.1441
35748W        W36612  21.536   9.143  10.542  0.4133  0.0227 -0.0120
35749W        W36613  21.958   9.792  14.188  0.2318  0.0010 -0.1265
35750W        W36614  22.106  11.625  13.404  0.0939  0.3318 -0.1182
35751W        W36615  20.023  12.507  15.106  0.1496  0.0548 -0.0187
35752W        W36616  18.180  10.355  14.782  0.3970  0.3188  0.0346
35753W        W36617  19.509   9.608  13.869 -0.0689 -0.2823  0.0676
35754W        W36618  20.008   8.422  12.121 -0.1774 -0.0382  0.0185
35755W        W36619  22.714   7.356  10.398 -0.2391 -0.0826  0.4896
35756W        W36620  18.913   5.061  14.496  0.0383  0.1152  0.1507
35757W        W36621  19.274   8.663  12.797 -0.1092 -0.2250 -0.2057
35758W        W36622  16.807   9.204   9.524  0.0917 -0.0918  0.1568
35759W        W36623  21.360   8.394  13.591 -0.1260  0.0966 -0.2516
35760W        W36624  22.667   7.070  12.894  0.0797  0.1945 -0.2933
35761W        W36625  20.772   8.790  13.826 -0.0196 -0.2431  0.2506
35762W        W36626  19.250  11.985  14.002 -0.3027  0.0651 -0.1167
35763W        W36627  19.558   8.896  13.762  0.0515  0.2242  0.2515
35764W        W36628  23.990  11.536  14.673  0.3851 -0.1178  0.2022
35765W        W36629  20.592   9.278  14.227 -0.0237  0.5299  0.1415
35766W        W36630  19.595   7.469  14.793 -0.1114 -0.1762 -0.1053
35767W        W36631  21.521   8.633  16.201  0.0437  0.0981 -0.0356
35768W        W36632  18.132   9.223  11.853  0.1925  0.3310  0.0514
35769W        W36633  20.732   8.285  10.913  0.1520 -0.1883  0.1306
35770W        W36634  20.617   6.446  14.944 -0.0456 -0.2049 -0.4733
35771W        W36635  21.711   6.969  12.921 -0.0052  0.1234 -0.2441
35772W        W36636  20.951   9.290  11.616  0.1093  0.2835 -0.3447
35773W        W36637  19.290  10.989  15.516 -0.0144  0.0368 -0.1111
35774W        W36638  22.599   8.852  12.090 -0.0526  0.0109 -0.2852
35775W        W36639  19.851   6.501  10.501 -0.3248  0.4276 -0.2209
35776W        W36640  22.389  10.422  10.956 -0.0295  0.1046  0.1718
35777W        W36641  17.937   9.052  11.431  0.0609  0.0855 -0.3068
35778W        W36642  23.201   5.050   9.332 -0.2652  0.3053 -0.2370
35779W        W36643  21.505  11.497  13.207 -0.1972  0.0372 -0.1719
35780W        W36644  24.388   8.455  11.561  0.1029  0.1686  0.2292
35781W        W36645  21.507  10.847  15.009 -0.0075 -0.1698 -0.0097
35782W        W36646  20.514   9.183  12.591 -0.0886  0.1554 -0.4190
35783W        W36647  22.180   6.658  14.245 -0.2907  0.0061  0.1026
35784W        W36648  20.548   5.822  13.442  0.1485 -0.1730 -0.0269
35785W        W36649  18.766   9.620  11.973 -0.0694 -0.0209 -0.0052
35786W        W36650  19.275  10.057  16.387 -0.2161 -0.0174  0.1170
35787W        W36651  19.311   9.970  10.254  0.0138  0.0496  0.3209
35788W        W36652  23.443   7.558  14.220 -0.2077 -0.0634 -0.0913
35789W        W36653  22.145  10.335  12.720  0.0432 -0.1204  0.2459
35790W        W36654  21.771   8.655  10.167  0.1243 -0.0473 -0.0164
35791W        W36655  21.918   7.702  11.848  0.0281  0.0011  0.1386
35792W        W36656  23.438   5.056  12.028  0.1321 -0.0461  0.2243
35793W        W36657  23.165   9.391  11.880  0.0738  0.0900  0.1981
35794W        W36658  16.979   7.548  13.109  0.1883 -0.0577 -0.0112
35795W        W36659  22.426   9.474  12.522  0.1785  0.1938 -0.2145
35796W        W36660  21.149   7.440  12.151  0.1067  0.0774 -0.0595
35797W        W36661  20.575  11.155  13.499 -0.1808 -0.4806 -0.1858
35798W        W36662  21.237   7.731  11.029  0.0022  0.1542 -0.0021
35799W        W36663  21.027  10.463  11.717  0.0794  0.2590  0.2352
35800W        W36664  20.747   9.035  13.223 -0.1699 -0.2809  0.0966
35801W        W36665  22.050   7.401  12.226  0.1559 -0.4826  0.0375
35802W        W36666  17.354   7.097   9.848  0.0512 -0.0448 -0.0592
35803W        W36667  23.399   8.392  13.713 -0.2273 -0.1388 -0.1371
35804W        W36668  22.209  11.545   9.690 -0.1742 -0.1963  0.2943
35805W        W36669  21.040   7.611  12.980  0.0531 -0.0720  0.1145
35806W        W36670  17.541   8.605  14.139 -0.1078 -0.3435 -0.0411
35807W        W36671  21.304   7.918  13.335 -0.0081  0.0440 -0.2004
35808W        W36672  19.718   8.220  12.461  0.0428  0.0393 -0.1048
35809W        W36673  23.568   3.349  11.742 -0.1924 -0.2654  0.1830
35810W        W36674  21.335   6.183  14.438  0.1235  0.0876 -0.1236
35811W        W36675  23.831   5.964  14.032 -0.1841 -0.2677 -0.2385
35812W        W36676  23.086   8.027  13.741 -0.0229  0.2446 -0.0191
35813W        W36677  21.485   6.020  12.533 -0.2418  0.2290  0.2346
35814W        W36678  22.757   8.497  11.598 -0.0425  0.2600 -0.1642
35815W        W36679  22.019  11.238   8.288  0.2917 -0.0753  0.1362
35816W        W36680  17.706   7.146   9.384 -0.0529 -0.0575 -0.0770
35817W        W36681  20.203   7.015  14.002 -0.0578  0.1827 -0.0373
35818W        W36682  17.181   8.660  11.933  0.1309 -0.4987 -0.2087
35819W        W36683  18.695   8.722  11.095  0.3028  0.0796 -0.2882
35820W        W36684  21.164   9.414  15.252 -0.0456  0.5000  0.0439
35821W        W36685  19.039   7.745  11.955 -0.1447 -0.1869  0.2526
35822W        W36686  20.635   6.730  14.111  0.0252 -0.2229 -0.0311
35823W        W36687  21.955   9.559  11.209 -0.0026  0.2488  0.1809
35824W        W36688  20.366  10.682  13.632  0.0785  0.0761 -0.0923
35825W        W36689  16.928   7.438  13.696 -0.0028 -0.0175 -0.3423
35826W        W36690  21.498  12.073  12.634  0.0292  0.2819 -0.0988
35827W        W36691  21.943   8.307  10.482 -0.1279 -0.0762  0.0261
35828W        W36692  18.491   9.305   9.659  0.2186  0.0672 -0.3579
35829W        W36693  19.476   5.731  11.275  0.3162  0.1442  0.0355
35830W        W36694  22.158   8.772  13.463 -0.0854  0.2533  0.2762
35831W        W36695  21.791   4.328  14.055  0.4086  0.3970 -0.1318
35832W        W36696  15.943   7.964  11.993 -0.2285  0.3011 -0.5470
35833W        W36697  21.071   8.092  11.323  0.0100 -0.0485  0.1343
35834W        W36698  19.196   6.072  11.713  0.4300  0.0312 -0.0987
35835W        W36699  20.202   7.883  13.183  0.0812 -0.0968 -0.4531
35836W        W36700  23.241   6.991  15.150  0.0511 -0.0270  0.0547
35837W        W36701  19.165   7.684  14.630 -0.2818  0.2566 -0.1122
35838W        W36702  23.108   9.231  13.773 -0.0445  0.1132  0.0966
35839W        W36703  21.548  10.337  11.534 -0.3147  0.3475 -0.2745
35840W        W36704  18.879   8.951  15.792 -0.0935 -0.1832  0.1248
35841W        W36705  17.988   8.828  14.351 -0.1437  0.1616  0.0522
35842W        W36706  20.575   7.644   9.854  0.1957 -0.3649 -0.0580
35843W        W36707  19.477  10.831  10.040 -0.3431  0.0833 -0.1972
35844W        W36708  20.825  11.598  11.663  0.1435  0.0993 -0.1243
35845W        W36709  18.249   8.109   9.152 -0.0432  0.4105 -0.2601
35846W        W36710  20.469   9.113  11.594  0.0465 -0.1539 -0.1870
35847W        W36711  19.672   9.469  12.553  0.0119 -0.1443  0.0589
35848W        W36712  19.994   6.895  10.799 -0.0633 -0.3286 -0.1844
35849W        W36713  21.849   7.277  11.498 -0.2415 -0.0772 -0.0462
35850W        W36714  21.696   5.574  11.091 -0.2190 -0.2537 -0.0080
35851W        W36715  23.973   9.381  12.744  0.1960 -0.0228 -0.1820
35852W        W36716  16.830  10.500  14.845 -0.0800  0.0462 -0.1814
35853W        W36717  20.257  10.034  14.952 -0.0589  0.0400 -0.1849
35854W        W36718  16.274   9.914  12.020  0.3574 -0.3070 -0.0897
35855W        W36719  20.928   7.318  11.174  0.1283  0.1504 -0.2468
35856W        W36720  19.968   9.904  12.690  0.2386  0.1496  0.3004
35857W        W36721  21.168  10.797  12.852 -0.0843  0.2768 -0.1882
35858W        W36722  19.073   9.804  13.675 -0.6077 -0.1031 -0.0339
35859W        W36723  16.889   7.043  13.066 -0.2645  0.1561 -0.1318
35860W        W36724  19.043   7.020  11.950 -0.1099 -0.0998  0.1477
35861W        W36725  19.626   8.904  15.015 -0.3490 -0.1157  0.1219
35862W        W36726  23.343   6.673   9.601 -0.2475 -0.1211  0.0203
35863W        W36727  18.137   3.951  12.055  0.0437 -0.1110 -0.0145
35864W        W36728  16.949  10.013  13.016  0.0099  0.0574  0.2696
35865W        W36729  17.222   9.714  15.333  0.1134  0.0371 -0.0279
35866W        W36730  20.585   7.439  13.260 -0.2541  0.2248 -0.0263
35867W        W36731  19.544  10.212  13.141 -0.0526  0.1400 -0.2154
35868W        W36732  19.312   9.073  14.139  0.0468  0.0270 -0.0256
35869W        W36733  20.574   5.944  14.936  0.1869  0.0734 -0.0396
35870W        W36734  21.262   8.692  13.982 -0.0050  0.1343  0.1351
35871W        W36735  21.382   7.601  10.552  0.0474 -0.1725  0.3677
35872W        W36736  21.336   9.790  12.277  0.1322 -0.0320 -0.1644
35873W        W36737  20.647   9.762  13.899 -0.1003 -0.0468  0.0192
35874W        W36738  18.435   7.624  10.579  0.0670  0.1263  0.1703
35875W        W36739  21.882   6.203  12.127  0.0118  0.3021  0.3078
35876W        W36740  18.587   7.129  11.015 -0.2144 -0.0331 -0.2306
35877W        W36741  20.932   6.519  14.528 -0.0813  0.0104 -0.1969
35878W        W36742  20.936  10.137   7.543  0.0452  0.3459  0.0094
35879W        W36743  17.474   9.130  14.157  0.2051  0.0345 -0.0607
35880W        W36744  21.113   9.698  11.185  0.0058  0.1831  0.1470
35881W        W36745  16.600   6.707  11.059  0.4167 -0.0698  0.1838
35882W        W36746  19.733   8.523  15.730  0.1167  0.3858  0.1714
35883W        W36747  21.976   7.614  14.115 -0.0603  0.0554 -0.1208
35884W        W36748  22.062  10.030  11.076  0.1295 -0.1438  0.1302
35885W        W36749  17.497   9.287  10.623  0.1375  0.0025  0.1383
35886W        W36750  18.783   9.975  14.115 -0.1417  0.0386 -0.5969
35887W        W36751  19.034   7.307  15.038  0.2341  0.4025  0.1193
35888W        W36752  21.849   6.515  13.205  0.0611 -0.1605  0.0430
35889W        W36753  18.723   7.852  14.279  0.0160  0.0862  0.3039
35890W        W36754  23.208   9.589  10.155 -0.2771 -0.1632 -0.1811
35891W        W36755  21.726   8.601  11.450 -0.1311 -0.1305  0.0770
35892W        W36756  17.638   9.453  12.626 -0.2576  0.1645  0.1951
35893W        W36757  23.008  11.209   8.768 -0.0331 -0.0171 -0.0399
35894W        W36758  21.578   7.326  15.065  0.1396  0.0001  0.1676
35895W        W36759  18.138   7.628  15.265  0.3452 -0.0681 -0.1510
35896W        W36760  23.887   6.945  13.477  0.0393 -0.1422  0.2529
35897W        W36761  20.106   8.037  14.119 -0.0156 -0.0922  0.2638
35898W        W36762  21.799   9.211  15.177 -0.0177  0.2513 -0.2110
35899W        W36763  21.821   7.805  10.492 -0.0605  0.1340  0.1548
35900W        W36764  20.576   6.835  10.843 -0.1041 -0.3267 -0.0741
35901W        W36765  18.789   7.366  14.556  0.1123 -0.0106 -0.0833
35902W        W36766  19.607   9.862  12.150  0.0318  0.1452  0.0666
35903W        W36767  21.046   8.392  12.149  0.0134 -0.0537  0.2402
35904W        W36768  22.835   9.659  13.737  0.1246  0.1289 -0.1749
35905W        W36769  17.170   9.427  14.941 -0.0084  0.0998  0.1130
35906W        W36770  19.141   5.594  14.035 -0.2202 -0.2430 -0.2926
35907W        W36771  18.477   9.888  13.268  0.1190  0.1896 -0.0652
35908W        W36772  17.703  10.109  11.286  0.0576 -0.1410  0.1018
35909W        W36773  21.866   9.075  11.352  0.2903 -0.1963 -0.2439
35910W        W36774  18.466   6.492  12.936  0.2847  0.3585  0.1647
35911W        W36775  17.948   8.384  12.168 -0.3257  0.3025  0.0924
35912W        W36776  20.250   8.178  14.993 -0.1456  0.0495 -0.1141
35913W        W36777  20.141   5.749  14.620  0.1225  0.1285 -0.0846
35914W        W36778  21.401  10.643  12.330  0.1027 -0.0529  0.1347
35915W        W36779  24.117  12.378  10.834  0.2167  0.4317 -0.1133
35916W        W36780  21.899   8.020  12.645 -0.1894 -0.2871  0.1718
35917W        W36781  18.696   8.992  17.496  0.2388  0.2077  0.0079
35918W        W36782  18.022   8.064  13.488  0.0448  0.0643  0.0719
35919W        W36783  21.235   5.621  12.371  0.1076 -0.3309  0.0727
35920W        W36784  20.134   7.511  14.736 -0.2494  0.0084 -0.1412
35921W        W36785  19.623   8.087  13.234  0.1310 -0.0158  0.0831
35922W        W36786  20.175  11.121  11.596  0.0512 -0.2486  0.2279
35923W        W36787  19.139   9.544  16.714  0.0849  0.1511  0.2958
35924W        W36788  21.107  11.586   8.337 -0.0918 -0.1592 -0.2323
35925W        W36789  21.554   6.727  10.555 -0.0997  0.0242  0.0207
35926W        W36790  18.089   7.228   9.856 -0.0027  0.1605  0.0111
35927W        W36791  17.268  11.891  12.677 -0.3096 -0.0156  0.1356
35928W        W36792  20.572  10.911  14.980 -0.0990 -0.1169  0.1738
35929W        W36793  20.605   9.586  11.415 -0.0380  0.2185 -0.4325
35930W        W36794  18.083  10.125  10.858 -0.2806  0.1618  0.1686
35931W        W36795  21.710   8.537  11.985  0.0046 -0.1634  0.3161
35932W        W36796  17.661   8.137  12.557 -0.2725  0.1132  0.0924
35933W        W36797  19.422   7.764  13.678  0.1125 -0.4130 -0.1604
35934W        W36798  21.868  12.408  11.830  0.3154 -0.1420  0.1433
35935W        W36799  22.035  10.962  12.799  0.2495 -0.3321  0.1081
35936W        W36800  18.314   9.540  12.202 -0.0782 -0.1571  0.0756
35937W        W36801  17.985  10.521  13.619 -0.2227 -0.0876  0.2559
35938W        W36802  21.078   9.958  13.926 -0.2479  0.0269  0.1656
35939W        W36803  20.206  10.131  14.404  0.1264 -0.3159  0.0202
35940W        W36804  18.648   8.677  10.563  0.0673 -0.0970 -0.1636
35941W        W36805  22.173  12.000  13.786  0.3248 -0.0928  0.2844
35942W        W36806  17.858  11.153   8.844  0.1168  0.1454 -0.3850
35943W        W36807  18.071   9.727  11.141 -0.0098  0.0220 -0.1015
35944W        W36808  19.378   9.863  14.659  0.0549  0.3011 -0.0868
35945W        W36809  22.559   8.100  13.751 -0.0234 -0.1692 -0.2937
35946W        W36810  21.317   8.796  12.168  0.1607 -0.3312 -0.0327
35947W        W36811  19.267   6.663  11.594 -0.1134  0.3420 -0.0706
35948W        W36812  22.332   6.234  13.469  0.0656  0.0925 -0.1012
35949W        W36813  19.194  10.128  15.256  0.0965 -0.2564 -0.0989
35950W        W36814  20.928  11.097  12.501  0.3733 -0.2814 -0.1044
35951W        W36815  20.298   8.037  12.265  0.2761 -0.0880  0.0102
35952W        W36816  18.427   6.618  14.445  0.0327  0.3067  0.0459
35953W        W36817  19.213   9.031  13.131  0.2106 -0.1433 -0.0343
35954W        W36818  20.809   7.298  10.182  0.1014  0.1039  0.1463
35955W        W36819  20.113  10.714  15.318 -0.1743  0.0449 -0.0902
35956W        W36820  19.597   6.307  16.313  0.1470 -0.2444  0.4955
35957W        W36821  19.343   9.737  15.488  0.1455 -0.1620  0.0440
35958W        W36822  19.393   7.601   9.762 -0.1307  0.0903  0.0546
35959W        W36823  18.258  10.015  12.289 -0.0138  0.3046 -0.0735
35960W        W36824  20.111   7.453  12.840  0.0562  0.0001 -0.2377
35961W        W36825  21.415   6.192  13.897 -0.2532  0.0361 -0.3481
35962W        W36826  20.936  12.508  11.734 -0.1332  0.1591  0.1976
35963W        W36827  20.753   9.758  14.859  0.1489  0.0380 -0.0179
35964W        W36828  19.913   7.519  13.861 -0.1597  0.0717  0.1429
35965W        W36829  20.929  10.375  10.792  0.4101  0.2424  0.1364
35966W        W36830  17.964  10.208  12.705 -0.0316 -0.1239  0.1054
35967W        W36831  21.203   8.946  10.181  0.0331 -0.0304 -0.4923
35968W        W36832  21.661   6.650  14.279  0.0029  0.0589  0.0480
35969W        W36833  17.797  11.750  10.884  0.0756 -0.0440 -0.0452
35970W        W36834  20.302   8.534  13.962  0.1645  0.0265 -0.5861
35971W        W36835  21.190   9.914  11.604 -0.3578  0.5176  0.0116
35972W        W36836  18.606   9.134  13.647 -0.2085 -0.1386  0.1813
35973W        W36837  20.964   9.085  12.763 -0.1858 -0.0333 -0.0726
35974W        W36838  24.580   5.413  13.549  0.1790  0.3195 -0.0682
35975W        W36839  20.212  10.841  13.187 -0.0731 -0.2150 -0.1419
35976W        W36840  15.846  12.616  10.130 -0.2145  0.1336  0.1890
35977W        W36841  17.661   6.205  14.036 -0.4152  0.0855 -0.0476
35978W        W36842  17.435  11.321  14.665 -0.0418  0.1421  0.2180
35979W        W36843  21.495   9.971  13.467 -0.0956  0.0812 -0.2030
35980W        W36844  19.705   9.202   9.229  0.1525  0.2204 -0.2769
35981W        W36845  19.664  11.099  11.478 -0.3421  0.2669  0.1077
35982W        W36846  20.080  10.334  12.970  0.0037 -0.0663 -0.0828
35983W        W36847  19.276   8.742  11.748  0.3135  0.3729 -0.0575
35984W        W36848  20.506   8.659  12.266  0.0274 -0.3253 -0.2906
35985W        W36849  17.506   8.569  12.310  0.0463  0.0337 -0.1896
35986W        W36850  22.146   7.994  13.554  0.2604 -0.2104 -0.0759
35987W        W36851  19.829   9.335  14.935  0.0128  0.2973 -0.0652
35988W        W36852  17.947  11.002  14.000  0.1375  0.2068  0.3143
35989W        W36853  19.794  10.220  11.679  0.0282 -0.0994 -0.2331
35990W        W36854  19.303  11.114  12.854  0.0729  0.0834  0.0347
35991W        W36855  18.343  11.648  17.099 -0.2946  0.1491 -0.0274
35992W        W36856  19.617   9.355  12.060  0.2769  0.1238 -0.0600
35993W        W36857  21.094   8.270  12.792 -0.2053  0.0111  0.0346
35994W        W36858  19.881  10.370  14.034  0.0773 -0.0927 -0.1656
35995W        W36859  20.187   8.509  14.575 -0.0271 -0.1090 -0.0712
35996W        W36860  19.514  11.807  12.310 -0.2185  0.1057 -0.0343
35997W        W36861  20.938  12.045  11.358 -0.1046  0.0190  0.1114
35998W        W36862  18.307   9.101  14.020 -0.1089  0.0508 -0.1138
35999W        W36863  18.072   9.948  15.660 -0.0144  0.2110 -0.1185
36000W        W36864  19.052   5.626  12.055 -0.0511  0.1172 -0.0966
36001W        W36865  22.703  10.165  13.682  0.0315 -0.2983  0.2742
36002W        W36866  21.418   7.305  12.653  0.1055  0.2802  0.0858
36003W        W36867  19.605  10.238   9.813  0.1880  0.0761 -0.1886
36004W        W36868  20.730   8.814  11.130 -0.0583  0.1185  0.1144
36005W        W36869  20.296   9.221  13.270  0.3343 -0.2334 -0.0322
36006W        W36870  19.874   8.114  15.579 -0.1696 -0.0502  0.0045
36007W        W36871  23.482   8.657  10.373 -0.0587  0.1333 -0.1450
36008W        W36872  21.900   7.497  12.784  0.2416  0.0707  0.2441
36009W        W36873  21.473  11.783  18.351 -0.3106 -0.0174  0.0195
36010W        W36874  21.146   7.891  16.685  0.3344 -0.3101 -0.0188
36011W        W36875  21.315   9.481  11.900 -0.1949  0.5104 -0.1655
36012W        W36876  17.804   9.929  12.345 -0.0759 -0.2307 -0.0709
36013W        W36877  22.023   8.495  12.434 -0.0268 -0.1280 -0.2597
36014W        W36878  19.458   9.882  12.718  0.2067  0.1501  0.1497
36015W        W36879  20.664   5.661  11.841 -0.2003 -0.2328  0.1532
36016W        W36880  21.946   9.769  13.311 -0.1617  0.2717  0.0646
36017W        W36881  20.766   5.792  16.225 -0.2595  0.3366  0.0832
36018W        W36882  17.988   6.378  12.286 -0.1937 -0.1758 -0.1652
36019W        W36883  17.842  11.402  10.454 -0.0938 -0.0578  0.2219
36020W        W36884  21.285   9.525  13.668 -0.0004 -0.3345 -0.2838
36021W        W36885  17.699  12.170  15.588  0.1803 -0.0300  0.1433
36022W        W36886  16.983   8.286  12.185  0.1255  0.0905  0.2468
36023W        W36887  16.710   6.536  12.243 -0.1249 -0.1021 -0.0679
36024W        W36888  21.536   8.292  12.350 -0.3966 -0.1871 -0.1291
36025W        W36889  20.084   6.575  12.570  0.1691 -0.0581 -0.1383
36026W        W36890  22.282   6.227  15.234 -0.5115 -0.0317 -0.0430
36027W        W36891  21.324   5.092  12.269  0.2990  0.1088 -0.0181
36028W        W36892  23.971  11.450  11.016  0.0428  0.1578 -0.2390
36029W        W36893  19.585  11.688  13.644 -0.2615 -0.3705 -0.0653
36030W        W36894  19.134  12.021  10.284  0.0304 -0.1779 -0.3891
36031W        W36895  21.439   5.852  10.140 -0.3480 -0.3886  0.0602
36032W        W36896  18.493  10.979  11.016 -0.2127 -0.2596 -0.0160
36033W        W36897  19.849   7.949  14.600  0.2022  0.0610 -0.0689
36034W        W36898  18.225   8.022  14.456  0.0035  0.1036  0.0701
36035W        W36899  19.192   9.698  14.228 -0.1339 -0.1220  0.1870
36036W        W36900  16.258   7.906  13.438 -0.2429 -0.0030 -0.0862
36037W        W36901  22.758   8.944  15.652  0.1249 -0.0467 -0.3732
36038W        W36902  21.670   7.912  13.716 -0.2085  0.1442  0.1775
36039W        W36903  18.116   6.822  12.397 -0.0382 -0.3924  0.0797
36040W        W36904  19.855  10.849  13.960  0.2342 -0.1393  0.1941
36041W        W36905  19.384  11.205  13.412 -0.2029  0.0811 -0.1277
36042W        W36906  22.507   9.521  11.191  0.0165 -0.2533  0.0927
36043W        W36907  18.461   9.066  12.732 -0.0415  0.1130 -0.4059
36044W        W36908  19.871   7.787  12.310  0.2071  0.0127  0.0353
36045W        W36909  20.985   8.891  10.689  0.6209  0.0298 -0.0170
36046W        W36910  20.469   9.269  12.087 -0.0168  0.0311 -0.1172
36047W        W36911  20.687   5.843  13.937 -0.1646 -0.1317 -0.1035
36048W        W36912  16.981   8.628  10.357  0.1865 -0.0539  0.0620
36049W        W36913  22.627   5.692  14.127 -0.4554 -0.2064 -0.0527
36050W        W36914  23.275   9.244   9.680 -0.0558 -0.2337  0.1247
36051W        W36915  19.689   8.298  11.187  0.0428  0.1395  0.0908
36052W        W36916  19.353   9.321  14.986  0.0419 -0.0266  0.1787
36053W        W36917  20.431  10.572  14.647  0.2208 -0.0002  0.0435
36054W        W36918  20.747   8.177  15.762 -0.0919  0.1459 -0.0486
36055W        W36919  17.877   8.478  15.736  0.2593 -0.2261 -0.0939
36056W        W36920  21.130   9.823  13.030 -0.1551 -0.0871  0.0060
36057W        W36921  19.969   7.415  14.312  0.5087  0.0975 -0.2082
36058W        W36922  20.874   7.134  14.356  0.1779 -0.0734 -0.5377
36059W        W36923  20.070   8.893  13.747 -0.1187  0.1851  0.0114
36060W        W36924  22.304   9.609  12.037  0.0863  0.0348  0.1135
36061W        W36925  21.185   8.757  13.071  0.4305 -0.2546  0.0752
36062W        W36926  20.133  11.136  12.108  0.4149 -0.1132  0.0258
36063W        W36927  20.290   9.862  15.649 -0.1802 -0.4237  0.0696
36064W        W36928  19.758  12.046  14.005 -0.3414 -0.1461  0.3164
36065W        W36929  23.005  10.391  12.106 -0.0750 -0.0685 -0.1153
36066W        W36930  18.915   9.610  15.148 -0.2133 -0.1953 -0.1682
36067W        W36931  20.202   7.083  12.434 -0.1566 -0.3027 -0.0014
36068W        W36932  21.499  11.061  12.539 -0.0931  0.2736  0.0933
36069W        W36933  22.179   8.782  10.572  0.0740  0.1858 -0.1595
36070W        W36934  18.804   9.766  14.657 -0.3781 -0.0138 -0.0075
36071W        W36935  21.781   7.869  13.203 -0.0410  0.0922 -0.1590
36072W        W36936  21.097  10.160   9.036  0.2682  0.1052  0.1668
36073W        W36937  20.712  10.290  13.739 -0.1343 -0.0119  0.2264
36074W        W36938  19.102   9.163  15.371  0.1014  0.2726  0.1391
36075W        W36939  18.965   9.079  10.513 -0.0061  0.0191 -0.2135
36076W        W36940  20.984   9.540  17.147  0.3068 -0.1077 -0.0246
36077W        W36941  18.264   8.317  17.656 -0.0880  0.1031  0.0869
36078W        W36942  22.152   8.030  14.075  0.0891 -0.2628  0.1513
36079W        W36943  24.054  10.358  18.688 -0.2777  0.4750  0.0333
36080W        W36944  19.008   7.479  13.572 -0.1047  0.3606  0.0506
36081W        W36945  21.881   6.473  15.223 -0.2964  0.0730  0.4488
36082W        W36946  18.501   5.932  16.227 -0.0955 -0.0508 -0.1698
36083W        W36947  21.980  10.437  16.521  0.0800  0.0902 -0.0851
36084W        W36948  19.896  10.608  19.842  0.0583 -0.1196 -0.1234
36085W        W36949  18.636   9.397  19.754  0.1647  0.3322 -0.5706
36086W        W36950  17.637   7.735  17.979 -0.1454  0.1910  0.0237
36087W        W36951  19.142   8.017  18.212  0.2231 -0.0709  0.2253
36088W        W36952  21.705   8.392  14.061 -0.2064  0.1441 -0.2042
36089W        W36953  20.650   8.077  16.956 -0.2219 -0.0264  0.1173
36090W        W36954  20.359   8.878  15.518 -0.1530 -0.0774 -0.0287
36091W        W36955  21.036   6.162  20.248  0.0576 -0.0512 -0.2170
36092W        W36956  21.543   8.376  14.596 -0.1054  0.3897 -0.0183
36093W        W36957  20.950   6.987  16.331 -0.1864  0.2075 -0.0121
36094W        W36958  17.693   8.698  19.472 -0.2350  0.0883  0.1303
36095W        W36959  23.552   7.009  14.746  0.2155 -0.0538  0.2529
36096W        W36960  20.378   7.180  20.293  0.0142  0.1730  0.4396
36097W        W36961  19.945   6.007  16.624 -0.1938  0.3319 -0.3019
36098W        W36962  21.264   7.698  15.770 -0.2383 -0.0190 -0.1271
36099W        W36963  19.422   9.872  16.955  0.3090 -0.0495  0.4405
36100W        W36964  18.903   6.028  15.972 -0.0108  0.2966 -0.1190
36101W        W36965  20.332   9.441  18.652  0.0444  0.1815 -0.2552
36102W        W36966  21.047   6.129  14.846 -0.2914  0.0584 -0.2447
36103W        W36967  21.016   7.737  15.045  0.0372  0.2687  0.0337
36104W        W36968  21.521   9.313  19.494 -0.0540 -0.1386 -0.0986
36105W        W36969  18.768   7.314  17.558  0.1439  0.0856 -0.0172
36106W        W36970  18.607   7.678  17.113 -0.1189 -0.3444 -0.0021
36107W        W36971  23.154   9.323  21.053 -0.2702 -0.1614  0.0533
36108W        W36972  20.363   8.371  19.851 -0.1210  0.1085  0.0078
36109W        W36973  20.712  12.490  20.446 -0.4339 -0.1826  0.1147
36110W        W36974  16.877  10.389  18.034  0.0318  0.0969 -0.1601
36111W        W36975  21.098  10.087  17.839  0.1428 -0.0443  0.0307
36112W        W36976  17.921   8.871  15.428  0.2171  0.2835  0.2323
36113W        W36977  19.998   7.808  15.138  0.1154  0.1520 -0.1010
36114W        W36978  21.816   8.791  14.787  0.1777  0.1459  0.0284
36115W        W36979  19.840   5.193  15.410 -0.2126 -0.0387 -0.0256
36116W        W36980  22.467   4.761  15.039 -0.0553  0.0965 -0.2314
36117W        W36981  20.864   9.045  16.156  0.1122 -0.1633 -0.3338
36118W        W36982  20.866  10.107  16.364 -0.3065 -0.1060  0.0983
36119W        W36983  22.310  10.405  16.105  0.0503 -0.2741  0.0704
36120W        W36984  18.358  11.404  18.176 -0.0279  0.0382  0.0108
36121W        W36985  20.574  11.402  15.651 -0.1504 -0.1820 -0.1190
36122W        W36986  17.864   7.991  15.616 -0.0209 -0.2191 -0.0556
36123W        W36987  18.939   8.172  19.276  0.0917 -0.2307 -0.0141
36124W        W36988  17.714   8.378  18.388  0.0450  0.1830 -0.1929
36125W        W36989  20.270   6.526  14.580  0.1637 -0.0386 -0.2335
36126W        W36990  21.691  10.383  14.436 -0.0701  0.3161  0.2114
36127W        W36991  20.125   5.740  15.140 -0.0427 -0.0760 -0.0233
36128W        W36992  20.747   9.974  15.852  0.4211 -0.0140 -0.0286
36129W        W36993  22.863   8.651  17.745  0.1115  0.4041 -0.0495
36130W        W36994  20.594   7.190  16.821  0.0416 -0.3411 -0.1696
36131W        W36995  18.329   9.139  14.544 -0.2499  0.0261  0.1011
36132W        W36996  17.043   8.386  16.692  0.1171  0.0938 -0.0418
36133W        W36997  22.747   7.982  16.297 -0.3434  0.3914  0.0817
36134W        W36998  19.029  10.142  15.931 -0.1873  0.0043 -0.5366
36135W        W36999  16.901   9.704  16.261  0.1234 -0.1699 -0.0271
36136W        W37000  19.297   9.811  13.196 -0.0183  0.1161  0.0915
36137W        W37001  19.021  12.006  17.265 -0.0108  0.2698 -0.1719
36138W        W37002  19.947  11.478  17.944 -0.1699 -0.2031 -0.1146
36139W        W37003  19.600   8.942  17.091 -0.0088 -0.3414 -0.2403
36140W        W37004  16.439   6.829  18.320 -0.4172  0.1958 -0.1328
36141W        W37005  22.094   6.938  17.191  0.0020 -0.1471 -0.2709
36142W        W37006  20.720   8.152  14.829  0.0283  0.0957 -0.1323
36143W        W37007  18.129   9.608  12.666 -0.0631  0.1019  0.2076
36144W        W37008  19.745   7.828  16.979 -0.1589  0.0554 -0.4980
36145W        W37009  21.523   5.671  13.036 -0.0017 -0.2571 -0.2679
36146W        W37010  20.500  11.990  17.310 -0.1297 -0.0160  0.3349
36147W        W37011  21.267   6.949  14.645 -0.0092 -0.0955 -0.1684
36148W        W37012  21.900   9.709  14.719  0.2745 -0.0050 -0.2271
36149W        W37013  20.360   8.526  18.697  0.0659 -0.3672  0.0284
36150W        W37014  22.337  11.272  13.102 -0.2888  0.1471 -0.1327
36151W        W37015  20.768  11.582  17.174  0.0209 -0.1382  0.2698
36152W        W37016  17.507   7.164  16.742 -0.2276  0.2946 -0.2477
36153W        W37017  19.060   8.479  18.290  0.0516  0.3032  0.0061
36154W        W37018  22.783   7.526  12.790  0.3247 -0.2384  0.3242
36155W        W37019  20.361   7.414  15.735 -0.0479 -0.1191  0.3230
36156W        W37020  17.777  11.062  14.861  0.0129  0.1696 -0.0745
36157W        W37021  20.230   8.393  17.435  0.2963  0.1212  0.0207
36158W        W37022  16.598   8.200  18.131  0.1092 -0.2351  0.1152
36159W        W37023  22.126   8.683  18.916  0.2410  0.2537  0.1513
36160W        W37024  17.913   6.072  17.885  0.2199  0.1354  0.0477
36161W        W37025  21.151   9.313  13.144  0.0409 -0.1214  0.0945
36162W        W37026  24.924  10.232  11.425 -0.1501 -0.1997  0.2735
36163W        W37027  21.632   5.872  17.409  0.2431  0.2740  0.0126
36164W        W37028  23.602  11.930  19.354  0.1721  0.0592  0.1516
36165W        W37029  22.181   6.501  17.728  0.1692 -0.3859 -0.1119
36166W        W37030  22.729   8.485  12.977  0.0945 -0.0795  0.1557
36167W        W37031  20.669  10.277  18.552  0.3598 -0.0874  0.0725
36168W        W37032  19.550  11.418  14.737  0.0048  0.1856 -0.1118
36169W        W37033  21.129   6.337  18.103  0.1357 -0.1717 -0.1560
36170W        W37034  20.664   8.321  14.316 -0.2019 -0.4502  0.0489
36171W        W37035  21.491   9.794  12.706 -0.0034  0.2147 -0.1408
36172W        W37036  17.807   6.025  15.337 -0.1789 -0.0943  0.0035
36173W        W37037  20.685   8.806  16.560  0.0675  0.1902 -0.1715
36174W        W37038  19.201   7.960  16.800  0.0466 -0.2368  0.2395
36175W        W37039  20.244   7.776  19.030  0.0642  0.0618  0.0621
36176W        W37040  22.118  12.154  13.288  0.0480  0.1110  0.0065
36177W        W37041  20.806   9.064  15.634 -0.1340  0.1454 -0.0754
36178W        W37042  22.619   6.223  11.720 -0.0064  0.2721 -0.1333
36179W        W37043  20.531   7.788  18.272  0.1711  0.0514 -0.1022
36180W        W37044  22.399   5.792  15.103  0.0275 -0.0717 -0.1348
36181W        W37045  21.996   6.391  17.313  0.0768 -0.1766  0.0654
36182W        W37046  19.475   9.578  16.166 -0.0825  0.0343 -0.2120
36183W        W37047  19.090   7.381  18.824 -0.1300 -0.2036 -0.0550
36184W        W37048  21.687   3.983  15.347  0.2625  0.1232 -0.1675
36185W        W37049  18.630   6.905  16.282  0.1116  0.0533  0.0809
36186W        W37050  18.076  10.430  19.345 -0.2413 -0.0493  0.1390
36187W        W37051  21.649  13.099  15.519  0.0220  0.3134  0.2183
36188W        W37052  21.752   6.805  17.573 -0.0748 -0.3307 -0.0269
36189W        W37053  21.723   8.962  18.550 -0.4304 -0.0666 -0.0696
36190W        W37054  23.130  12.535  17.206  0.4390  0.1777  0.0088
36191W        W37055  20.657   7.568  14.088 -0.2973  0.3270 -0.1586
36192W        W37056  20.862   5.123  14.873  0.0124 -0.0382  0.1699
36193W        W37057  22.865   9.608  18.919  0.0993 -0.1101 -0.0226
36194W        W37058  17.203   7.674  16.923  0.0146 -0.5564  0.1154
36195W        W37059  21.102   7.365  13.979  0.0544  0.0823 -0.3140
36196W        W37060  22.322   6.818  13.376 -0.0196 -0.0586 -0.0967
36197W        W37061  20.447   8.568  16.967  0.1847  0.1157  0.1505
36198W        W37062  20.437   8.422  15.373 -0.3596  0.0547 -0.2076
36199W        W37063  21.497   6.537  14.739 -0.0773 -0.0609 -0.1754
36200W        W37064  22.370   9.102  15.146  0.1058 -0.3933 -0.1472
36201W        W37065  18.133   7.431  17.957 -0.1451 -0.1627  0.1304
36202W        W37066  17.567   7.952  17.413 -0.3186 -0.0827  0.1578
36203W        W37067  21.340   7.747  20.663 -0.0910  0.3790  0.0080
36204W        W37068  23.247   9.649  14.036  0.2036 -0.0785 -0.2586
36205W        W37069  17.826  11.582  14.829  0.0618 -0.2402 -0.3956
36206W        W37070  21.528  10.347  18.542  0.0937 -0.2514  0.0143
36207W        W37071  20.565   7.254  15.187 -0.1455 -0.3215  0.1477
36208W        W37072  19.247  10.485  14.893 -0.2189 -0.1195  0.2106
36209W        W37073  22.109   6.487  14.737 -0.0518  0.0527  0.0255
36210W        W37074  24.379  10.435  17.155 -0.1989  0.0693 -0.0964
36211W        W37075  18.216   7.779  17.569 -0.3377 -0.0168  0.1846
36212W        W37076  19.943   4.668  15.165  0.0817  0.1146 -0.3003
36213W        W37077  20.805   9.869  16.780 -0.3972  0.1459  0.1972
36214W        W37078  18.943   8.253  15.219  0.1498  0.1911  0.0289
36215W        W37079  20.389  10.393  15.624  0.3836  0.0898  0.0747
36216W        W37080  18.724   7.888  13.739  0.0140 -0.2477  0.1560
36217W        W37081  16.884   6.974  16.855 -0.3574 -0.1604  0.2393
36218W        W37082  19.894  10.242  15.459 -0.2383 -0.1468 -0.0649
36219W        W37083  16.550   8.586  16.182  0.0975  0.1864  0.1459
36220W        W37084  21.535   6.530  16.131  0.3067  0.0453 -0.1115
36221W        W37085  20.760   6.280  16.939 -0.4062  0.1183  0.1865
36222W        W37086  21.815   7.024  15.990  0.2005 -0.0268  0.3150
36223W        W37087  21.798  11.025  17.220  0.2255  0.1301 -0.0981
36224W        W37088  22.929   7.261  16.598 -0.0439 -0.0206  0.0151
36225W        W37089  21.717   7.031  18.436  0.1024  0.0691  0.0370
36226W        W37090  22.734  10.905  16.954 -0.1768  0.2471 -0.0793
36227W        W37091  19.834   8.620  14.169 -0.1859 -0.2782  0.0328
36228W        W37092  20.776   7.139  15.844  0.1556  0.0479  0.0216
36229W        W37093  22.434   5.380  16.491 -0.2454  0.1808 -0.0898
36230W        W37094  20.572   9.479  15.906  0.2817 -0.3037 -0.4366
36231W        W37095  19.593   7.573  20.139 -0.0808 -0.0483 -0.0039
36232W        W37096  20.694   8.754  18.992 -0.0365 -0.1276 -0.0873
36233W        W37097  22.099   9.978  16.596 -0.0932  0.0971  0.3024
36234W        W37098  19.449   8.298  13.717 -0.1311 -0.1816  0.1700
36235W        W37099  18.919   6.938  15.874 -0.3311 -0.0411 -0.3495
36236W        W37100  20.757   8.308  17.356 -0.1590 -0.2556 -0.1924
36237W        W37101  20.615   9.050  16.949  0.1381 -0.0061 -0.0891
36238W        W37102  22.070   8.465  18.404  0.0620 -0.0534  0.0663
36239W        W37103  17.386  10.848  19.844  0.1747  0.2360  0.1047
36240W        W37104  19.472   7.882  18.561 -0.0321  0.1936 -0.1095
36241W        W37105  21.317   9.597  17.726 -0.0103  0.0436  0.3231
36242W        W37106  19.941   8.691  18.459 -0.1131 -0.3944  0.0284
36243W        W37107  21.843  11.556  16.673 -0.2954 -0.0162 -0.0935
36244W        W37108  17.003  10.309  18.520  0.0554 -0.0401 -0.2659
36245W        W37109  21.759   9.597  13.723  0.2167  0.0070 -0.1299
36246W        W37110  19.461  10.103  18.839 -0.1091 -0.1146  0.2056
36247W        W37111  21.783   9.283  17.802  0.3813 -0.0557 -0.0147
36248W        W37112  19.611  10.021  15.879  0.1324  0.2538  0.2668
36249W        W37113  21.857   7.568  16.065  0.1269 -0.0350 -0.2841
36250W        W37114  21.450   7.638  17.079 -0.0450 -0.0899 -0.1274
36251W        W37115  20.955   6.685  12.720 -0.0313 -0.1435  0.0927
36252W        W37116  20.163  12.563  19.232  0.0269  0.2311 -0.1056
36253W        W37117  17.915   9.349  14.926  0.1376 -0.0410  0.1555
36254W        W37118  19.417   8.808  15.430  0.0428  0.0061 -0.1401
36255W        W37119  22.334   8.603  17.904  0.2587  0.0523 -0.1345
36256W        W37120  19.918  11.058  13.486  0.0703  0.0596  0.0454
36257W        W37121  22.231  11.752  14.262 -0.0136  0.1844 -0.0668
36258W        W37122  22.189  10.968  14.037  0.0622 -0.0212  0.0191
36259W        W37123  19.961   7.220  15.143  0.1709 -0.0618  0.1090
36260W        W37124  21.954   7.137  14.426 -0.1556  0.0715  0.0913
36261W        W37125  17.624  11.635  18.569 -0.1121 -0.2951  0.1842
36262W        W37126  23.086   7.520  13.849 -0.2513 -0.0544  0.0240
36263W        W37127  15.793   7.058  14.361  0.0899 -0.2486  0.0993
36264W        W37128  21.493   8.741  16.917  0.2846 -0.2166  0.1083
36265W        W37129  18.175  11.034  16.567 -0.0329  0.2324  0.0321
36266W        W37130  20.380   9.760  13.350 -0.1144  0.0011  0.3419
36267W        W37131  21.135   9.764  15.646  0.0550  0.0701  0.1964
36268W        W37132  20.044   7.873  18.403 -0.3450 -0.1234 -0.0798
36269W        W37133  16.404   7.090  18.847 -0.0972  0.0459  0.3125
36270W        W37134  19.771   8.611  17.440  0.2412  0.2503  0.0889
36271W        W37135  20.467   6.258  15.958  0.0710  0.0300 -0.0184
36272W        W37136  19.119   5.898  16.397  0.0932  0.3024 -0.1393
36273W        W37137  16.534   7.832  20.694  0.1097  0.1960  0.1275
36274W        W37138  17.376   7.042  18.610  0.0108  0.2136  0.0454
36275W        W37139  19.615   5.939  15.397 -0.1502  0.3075  0.2350
36276W        W37140  16.721   9.503  14.753  0.0608  0.0279 -0.1489
36277W        W37141  21.107   6.479  19.273 -0.0726 -0.3272 -0.1558
36278W        W37142  22.398   9.935  15.784  0.2706  0.0668 -0.1910
36279W        W37143  17.646   8.736  17.611 -0.0040  0.2827 -0.0161
36280W        W37144  20.172   6.998  16.629 -0.3531 -0.0844  0.0729
36281W        W37145  21.880   5.206  14.781 -0.2849  0.0457  0.1567
36282W        W37146  19.901   7.633  17.764 -0.2579  0.0190  0.1701
36283W        W37147  19.157   9.355  15.797 -0.1210  0.0170  0.0395
36284W        W37148  22.538  10.477  14.092  0.2619  0.1614  0.3383
36285W        W37149  18.773   9.209  16.551 -0.0901  0.0852  0.1575
36286W        W37150  19.698  10.157  18.383 -0.2387 -0.1474 -0.2988
36287W        W37151  19.070  10.682  19.036 -0.2367 -0.2320 -0.1015
36288W        W37152  20.685   9.420  19.057  0.0165 -0.3027 -0.1302
36289W        W37153  19.577   5.645  17.509  0.2996  0.2175  0.0863
36290W        W37154  22.939  11.681  20.835 -0.0926  0.0119 -0.0610
36291W        W37155  19.575   8.354  18.347 -0.2565  0.2352 -0.2457
36292W        W37156  22.187   5.082  15.321 -0.0484 -0.3017 -0.2452
36293W        W37157  21.844  11.229  14.989  0.1004 -0.0152  0.3053
36294W        W37158  23.107   9.944  19.274  0.1182  0.2703 -0.0100
36295W        W37159  20.114  10.164  17.563 -0.3547  0.1479 -0.3413
36296W        W37160  20.917   8.336  18.733  0.2678  0.0155  0.0949
36297W        W37161  21.469   8.720  15.173 -0.0258 -0.1152 -0.0679
36298W        W37162  21.403   8.546  17.399 -0.1977  0.2289  0.1853
36299W        W37163  20.731   6.790  17.111 -0.3986  0.0855 -0.0128
36300W        W37164  22.938   8.889  14.341 -0.1566 -0.0180  0.0297
36301W        W37165  19.157   9.266  19.930 -0.4772 -0.0995 -0.0606
36302W        W37166  20.294   8.476  16.483  0.3987  0.0054  0.1229
36303W        W37167  21.748   8.365  17.123  0.2738  0.3249  0.0819
36304W        W37168  19.999   9.663  16.113  0.0662 -0.0395  0.1323
36305W        W37169  21.036   8.088  17.710 -0.0754  0.4346 -0.2721
36306W        W37170  17.624   7.130  19.715 -0.2542  0.3214  0.0946
36307W        W37171  18.273   9.420  17.918  0.1092  0.0298  0.1834
36308W        W37172  17.522  12.406  17.805  0.2670 -0.1220 -0.0828
36309W        W37173  18.070   8.381  14.130 -0.0285  0.0681 -0.1579
36310W        W37174  15.919   7.366  17.946 -0.1038 -0.0607  0.0255
36311W        W37175  23.521  10.495  13.822 -0.0199 -0.1108 -0.1268
36312W        W37176  21.907   6.888  14.890 -0.1768 -0.1033  0.1894
36313W        W37177  21.557   6.315  17.559  0.2760  0.0293  0.3896
36314W        W37178  22.297   7.698  15.678 -0.2726 -0.0298 -0.0834
36315W        W37179  22.739  10.388  14.527  0.1310  0.1044  0.2681
36316W        W37180  21.812   9.327  14.297  0.0727 -0.1280  0.3488
36317W        W37181  20.036   9.345  17.095 -0.0488 -0.1291 -0.0585
36318W        W37182  18.361   7.134  14.448 -0.1979 -0.0118  0.1207
36319W        W37183  18.721   7.778  14.944 -0.0903  0.1415  0.0208
36320W        W37184  20.133   7.140  19.000 -0.0315 -0.1616  0.0479
36321W        W37185  22.955   8.356  13.421 -0.0179 -0.0100 -0.3010
36322W        W37186  20.454   6.997  18.121 -0.0557  0.1080 -0.1020
36323W        W37187  18.609   9.650  16.714  0.0426  0.0344 -0.0013
36324W        W37188  21.639   9.712  15.184  0.2000  0.0901 -0.2373
36325W        W37189  21.071   8.469  14.562 -0.1725 -0.0460 -0.1052
36326W        W37190  19.091   8.668  16.321  0.2707  0.1177 -0.0021
36327W        W37191  21.754  11.807  14.010 -0.0755  0.1511 -0.2559
36328W        W37192  21.570   9.418  15.600 -0.0794 -0.0303  0.1112
36329W        W37193  22.041  10.349  19.868  0.0111 -0.0828  0.0540
36330W        W37194  21.235   9.217  14.382 -0.4198  0.1201 -0.0487
36331W        W37195  19.523  12.282  15.112 -0.0811 -0.0271  0.0645
36332W        W37196  24.196   5.280  16.095 -0.0589  0.2776  0.1185
36333W        W37197  19.165   7.564  18.388  0.0653 -0.2809 -0.1947
36334W        W37198  18.598   7.918  16.095 -0.0008  0.3270 -0.2700
36335W        W37199  21.520   5.380  15.405  0.2294 -0.1152 -0.0502
36336W        W37200  21.435   7.287  16.132  0.2259 -0.3126  0.4606
36337W        W37201  21.249   8.138  18.425 -0.1337 -0.1479  0.0364
36338W        W37202  21.602   9.863  18.074  0.2908  0.0956  0.2426
36339W        W37203  18.835   9.005  18.905 -0.1578  0.0401  0.0183
36340W        W37204  18.925  10.028  16.846 -0.1429 -0.0040 -0.1434
36341W        W37205  17.544  10.277  18.684 -0.0105  0.1798 -0.0266
36342W        W37206  19.039  12.284  14.726  0.3987 -0.0666 -0.1958
36343W        W37207  19.168   8.548  15.784  0.0793 -0.0347  0.0916
36344W        W37208  19.663   6.790  18.279  0.0462  0.0459  0.0311
36345W        W37209  23.237   7.421  14.689  0.0864 -0.1876 -0.2089
36346W        W37210  20.827   8.835  14.343  0.0367  0.0497 -0.3253
36347W        W37211  22.061   9.648  18.135  0.0658 -0.0315  0.0424
36348W        W37212  20.185   7.701  16.134  0.0623  0.1739 -0.2027
36349W        W37213  18.474   7.216  18.655 -0.1087  0.1293  0.1497
36350W        W37214  22.300   9.582  14.443 -0.0423 -0.1623 -0.4870
36351W        W37215  22.921   7.421  17.119 -0.0108 -0.0219 -0.1711
36352W        W37216  18.982   9.212  19.443  0.1990 -0.0892 -0.1358
36353W        W37217  16.214   8.675  17.300  0.0772 -0.2272 -0.0996
36354W        W37218  19.118   8.016  14.010 -0.2767 -0.1830 -0.1395
36355W        W37219  21.084   9.026  17.125  0.0705 -0.0840  0.2798
36356W        W37220  18.552   8.279  16.492 -0.0097  0.2076  0.1545
36357W        W37221  16.270   9.967  16.406 -0.0876  0.0095 -0.0524
36358W        W37222  15.851   8.191  18.278  0.1900  0.3166  0.0605
36359W        W37223  17.160  11.889  18.560 -0.0663  0.0859  0.0737
36360W        W37224  20.529   7.748  15.052  0.1851  0.1813 -0.5252
36361W        W37225  21.469   6.796  15.300  0.0810 -0.0195 -0.1041
36362W        W37226  21.938   9.357  17.323 -0.0120  0.1135  0.4583
36363W        W37227  19.789   6.792  16.825 -0.1071  0.2393 -0.2008
36364W        W37228  20.150   6.206  15.007 -0.0592  0.0803 -0.0208
36365W        W37229  20.864  11.533  14.732  0.1713  0.0883 -0.1401
36366W        W37230  22.748   7.671  14.692 -0.1396  0.3897  0.2525
36367W        W37231  19.602   6.805  16.059  0.0683  0.0966 -0.0176
36368W        W37232  18.992   9.848  18.701 -0.0548  0.3063 -0.3236
36369W        W37233  16.888  10.570  19.030  0.0511  0.1354 -0.1590
36370W        W37234  22.443   6.135  13.970  0.2021  0.1200  0.1797
36371W        W37235  19.902   9.028  15.691  0.0830  0.0147  0.0966
36372W        W37236  17.290   7.611  17.666  0.2542 -0.0006 -0.0935
36373W        W37237  22.078   9.547  15.444 -0.1022 -0.0152 -0.0653
36374W        W37238  23.144   8.074  15.978  0.0815 -0.1911 -0.0166
36375W        W37239  19.854  10.252  16.395 -0.3546 -0.2396 -0.1360
36376W        W37240  20.347   6.951  15.538 -0.1420  0.1108 -0.0946
36377W        W37241  18.083   6.574  20.429  0.0269 -0.0563 -0.1449
36378W        W37242  18.231  10.419  19.829  0.0431 -0.1105  0.3103
36379W        W37243  21.724   8.055  15.588 -0.2819  0.1497  0.1152
36380W        W37244  23.579   9.992  13.227  0.0164 -0.0199 -0.2985
36381W        W37245  22.024   7.837  16.668 -0.0020 -0.0979 -0.0934
36382W        W37246  20.788  11.241  17.810 -0.1718  0.0668  0.2231
36383W        W37247  19.551   6.331  14.549  0.1651 -0.0937  0.2717
36384W        W37248  22.471   7.133  14.649 -0.2323  0.0117  0.1617
36385W        W37249  17.065   7.776  16.040  0.2621  0.0249  0.2235
36386W        W37250  21.237   5.538  15.863  0.2119  0.1584 -0.2189
36387W        W37251  20.082   9.806  17.210  0.0758  0.1182  0.0887
36388W        W37252  21.566   9.132  16.016 -0.0993 -0.0307 -0.2379
36389W        W37253  20.619   9.436  18.169  0.2031  0.2652 -0.0985
36390W        W37254  19.416  10.477  15.576 -0.2839  0.0996  0.1573
36391W        W37255  21.262  10.862  18.912  0.3773 -0.0900 -0.1664
36392W        W37256  19.908   8.026  11.594  0.0048  0.0517  0.0040
36393W        W37257  19.683   7.773  12.849 -0.1061 -0.0747  0.1037
36394W        W37258  20.331   9.818  17.937  0.0461  0.2795  0.0520
36395W        W37259  18.186  10.693  18.693 -0.1322  0.0592 -0.0453
36396W        W37260  19.355   8.280  17.727  0.1503  0.2386 -0.0867
36397W        W37261  23.969   9.898  12.144  0.2160  0.4591 -0.1092
36398W        W37262  19.108  10.830  19.670 -0.0463  0.0347  0.0069
36399W        W37263  22.457   7.668  15.156  0.1029 -0.3210 -0.3375
36400W        W37264  18.693   6.867  17.315 -0.1437 -0.0026 -0.0711
36401W        W37265  22.256  10.343  16.939 -0.0226 -0.0976  0.1222
36402W        W37266  18.661   6.900  14.803  0.1350 -0.1541  0.2479
36403W        W37267  18.524  11.898  16.208 -0.0781 -0.1085 -0.1710
36404W        W37268  21.530   8.279  13.028  0.1653  0.2569 -0.1635
36405W        W37269  16.588   6.629  18.823 -0.0486  0.1297  0.0426
36406W        W37270  17.385   8.831  18.963  0.0216 -0.0743 -0.0326
36407W        W37271  24.871   9.209  12.278 -0.1670 -0.1261 -0.1294
36408W        W37272  22.428  11.917  19.521 -0.0722  0.2393 -0.3313
36409W        W37273  21.130   9.578  18.265  0.1078 -0.2090 -0.1861
36410W        W37274  21.106  10.583  18.331  0.1620  0.1633  0.4098
36411W        W37275  23.518  10.785  19.372 -0.1788 -0.0905  0.2072
36412W        W37276  18.692  10.985  19.194 -0.1082  0.1972  0.0580
36413W        W37277  23.426  10.337  12.852 -0.2983  0.1532  0.0359
36414W        W37278  19.933   5.391  16.427  0.2171  0.2168 -0.0798
36415W        W37279  22.167   6.662  16.246  0.4490  0.0055  0.0083
36416W        W37280  21.521   7.157  14.166 -0.0146  0.1001 -0.2603
36417W        W37281  21.183   7.149  18.771 -0.0605 -0.1460 -0.0911
36418W        W37282  21.622   6.654  17.027 -0.1204 -0.0177  0.2417
36419W        W37283  18.371  12.422  15.532 -0.0580 -0.0451 -0.0344
36420W        W37284  19.934   8.674  16.127 -0.1711  0.0120  0.1020
36421W        W37285  17.190   9.854  18.656 -0.2566 -0.2574 -0.2257
36422W        W37286  19.645   9.324  16.742 -0.0344  0.1574  0.3238
36423W        W37287  17.689  10.106  16.329 -0.0045  0.3653 -0.2749
36424W        W37288  20.170   8.094  17.065 -0.5255  0.3075  0.1591
36425W        W37289  18.899   6.494  13.908  0.1613 -0.0169  0.1972
36426W        W37290  22.165   8.145  15.394  0.0953 -0.1111 -0.2122
36427W        W37291  24.263   9.121  14.883  0.1602 -0.1884 -0.1451
36428W        W37292  21.387   8.246  15.948  0.0442  0.0406 -0.1676
36429W        W37293  20.259   8.417  15.813 -0.0495  0.1058  0.0193
36430W        W37294  21.236   8.269  15.018 -0.3122  0.1917  0.1135
36431W        W37295  19.122   6.280  15.514  0.1330  0.0070 -0.0170
36432W        W37296  23.011  12.186  16.065 -0.2067  0.1656  0.1151
36433W        W37297  19.288  10.321  17.204  0.1577 -0.0670 -0.0394
36434W        W37298  19.775  10.813  18.582  0.2143  0.0462 -0.2016
36435W        W37299  19.031   8.167  16.334 -0.0952 -0.1832  0.0196
36436W        W37300  21.069   6.589  15.035  0.1295  0.1105 -0.1192
36437W        W37301  21.620   8.743  19.610 -0.0183 -0.0871 -0.2600
36438W        W37302  19.903   8.938  14.586  0.0058 -0.0221 -0.2524
36439W        W37303  18.418   4.744  16.756  0.0211 -0.1445  0.0419
36440W        W37304  19.566   8.780  16.485 -0.0580  0.0634  0.2043
36441W        W37305  19.070   9.675  19.704 -0.0942 -0.3092 -0.0918
36442W        W37306  21.667  11.670  15.732 -0.2423  0.0062  0.3167
36443W        W37307  21.491   9.675  17.257 -0.1833  0.1260  0.0211
36444W        W37308  19.609   7.261  16.903 -0.1047 -0.2258 -0.3441
36445W        W37309  20.268   6.828  14.982  0.2748 -0.0253 -0.0601
36446W        W37310  21.194   7.012  13.652  0.2247 -0.2405 -0.0356
36447W        W37311  22.775   9.683  12.871 -0.2747 -0.0120  0.1916
36448W        W37312  19.576  10.555  13.677 -0.0919 -0.0960 -0.2605
36449W        W37313  20.281   9.828  19.690  0.1492  0.0187 -0.3567
36450W        W37314  22.645   8.644  13.701 -0.1645 -0.1196  0.1232
36451W        W37315  17.457   5.300  18.921 -0.1495 -0.0882  0.3671
36452W        W37316  19.733   8.255  16.532  0.1867  0.0200 -0.3095
36453W        W37317  22.086   8.577  19.422 -0.2122  0.0502  0.0179
36454W        W37318  20.478   6.121  14.360  0.0213 -0.1654 -0.2801
36455W        W37319  18.734  10.189  15.526  0.0041  0.3006  0.2290
36456W        W37320  21.276   9.251  18.722 -0.1913  0.1140 -0.3313
36457W        W37321  19.845   9.890  17.947  0.0254  0.0359 -0.1526
36458W        W37322  17.570   8.889  17.128  0.1011  0.3957  0.2244
36459W        W37323  19.826   7.103  15.664  0.0349  0.1408  0.1782
36460W        W37324  21.846   8.854  15.748  0.0650 -0.0994 -0.2358
36461W        W37325  20.529   8.178  17.821  0.1782 -0.1091  0.2841
36462W        W37326  18.090  10.273  16.118 -0.1684  0.3844  0.0201
36463W        W37327  20.350  10.347  19.749  0.1272 -0.2771  0.0129
36464W        W37328  20.622   8.568  16.125  0.0012  0.1786 -0.0496
36465W        W37329  22.485   9.214  18.890 -0.0055 -0.2859 -0.3132
36466W        W37330  18.478   9.163  19.285 -0.1704 -0.0413 -0.1892
36467W        W37331  17.886   9.538  16.437 -0.1574 -0.2517 -0.1141
36468W        W37332  21.728  13.053  16.156 -0.0929 -0.0997 -0.1242
36469W        W37333  22.438  10.414  15.253 -0.4648  0.0388  0.0443
36470W        W37334  18.261  11.596  16.573  0.0375  0.1435 -0.3271
36471W        W37335  20.842   8.095  15.318 -0.2240  0.1491 -0.2317
36472W        W37336  20.356  13.395  14.770  0.0546 -0.1317  0.2803
36473W        W37337  19.571   9.610  19.038 -0.0396 -0.0424 -0.3765
36474W        W37338  23.770  10.359  15.371 -0.1262  0.2247  0.0543
36475W        W37339  18.160   8.711  16.392 -0.0728  0.2104 -0.3056
36476W        W37340  20.132   9.933  20.631  0.0747 -0.0546  0.2722
36477W        W37341  17.776   9.286  23.016  0.0794 -0.1290  0.4666
36478W        W37342  21.664   8.863  19.084 -0.0274 -0.0886 -0.1815
36479W        W37343  20.028  10.058  20.104 -0.0117  0.5703  0.0935
36480W        W37344  20.449  13.800  17.016 -0.2282  0.0510 -0.1486
36481W        W37345  19.402   8.152  20.725 -0.0171  0.3097 -0.0381
36482W        W37346  19.889   7.855  20.594 -0.0510 -0.0302  0.3973
36483W        W37347  18.056   8.605  20.930 -0.1850 -0.0109  0.0283
36484W        W37348  18.670  10.248  22.467 -0.0427  0.1600 -0.0870
36485W        W37349  15.434   8.015  23.014  0.1019  0.0994  0.2451
36486W        W37350  17.770   7.131  18.924 -0.1736 -0.1693 -0.0960
36487W        W37351  20.903   7.805  18.636 -0.2246  0.1806  0.1978
36488W        W37352  17.160   7.017  19.728  0.0985 -0.0898  0.0386
36489W        W37353  24.582   8.569  24.410 -0.0256  0.1271 -0.0375
36490W        W37354  17.676   7.727  23.033  0.1010  0.0010  0.1088
36491W        W37355  18.496  11.923  20.640  0.0474  0.2720  0.1241
36492W        W37356  19.738  10.497  19.020  0.3433  0.0513 -0.3499
36493W        W37357  20.492   7.144  19.796  0.1455  0.2476 -0.0618
36494W        W37358  21.090   8.123  20.360  0.2227 -0.2088  0.1716
36495W        W37359  21.624   9.430  18.233 -0.2909  0.1391 -0.0945
36496W        W37360  22.667  11.354  22.307 -0.0069  0.0887  0.2519
36497W        W37361  18.024  10.301  18.908 -0.0964  0.2591  0.1170
36498W        W37362  19.499  10.533  18.125 -0.3479  0.3089  0.0643
36499W        W37363  17.011  12.348  18.659 -0.1386  0.2621  0.3120
36500W        W37364  15.042   8.567  19.062 -0.0231 -0.1462 -0.0720
36501W        W37365  20.076   9.391  21.602 -0.0494  0.1404 -0.6295
36502W        W37366  23.139   6.307  20.397  0.1804 -0.2661  0.2969
36503W        W37367  19.951   8.930  20.794 -0.4330 -0.1604  0.0449
36504W        W37368  20.423   9.791  20.233 -0.1561  0.4436  0.0263
36505W        W37369  20.422   9.879  18.956  0.2287 -0.1072 -0.0149
36506W        W37370  18.639   9.905  20.633  0.0459 -0.1236 -0.2303
36507W        W37371  19.517   7.054  20.073 -0.0986  0.2075 -0.1499
36508W        W37372  19.860   9.579  20.316 -0.0902 -0.0040  0.1866
36509W        W37373  20.771   7.944  19.622  0.1456  0.0776 -0.0877
36510W        W37374  19.890   8.756  23.601  0.2544 -0.2009  0.0164
36511W        W37375  21.967  11.246  19.766 -0.1379  0.2426  0.0176
36512W        W37376  17.151   7.116  21.721 -0.1012  0.3634  0.2175
36513W        W37377  17.942  10.580  21.478  0.0195 -0.0638 -0.2013
36514W        W37378  19.550  13.271  18.915  0.0012  0.2035 -0.1868
36515W        W37379  21.026   8.906  21.744 -0.2421 -0.0941  0.1637
36516W        W37380  20.725  10.041  15.264  0.0224 -0.1835  0.3001
36517W        W37381  24.448  10.009  18.663  0.1145 -0.2002  0.1351
36518W        W37382  21.492  11.343  20.749 -0.0237 -0.1032  0.0048
36519W        W37383  21.820   9.551  20.453  0.0387 -0.1647 -0.0525
36520W        W37384  15.894  11.066  19.568 -0.2277  0.0528  0.0019
36521W        W37385  20.983   8.579  17.912  0.0119 -0.2699  0.1120
36522W        W37386  19.150   7.296  20.793 -0.0610  0.2054  0.2747
36523W        W37387  21.841   8.142  20.080  0.0979 -0.1021  0.0717
36524W        W37388  20.269   9.909  18.480  0.1175  0.0813  0.0417
36525W        W37389  20.957   7.678  17.080 -0.1907 -0.1185 -0.0626
36526W        W37390  18.238  13.085  19.245  0.0075 -0.0855 -0.0342
36527W        W37391  19.477   7.960  21.543  0.0247  0.0534  0.5278
36528W        W37392  19.008  10.304  19.766 -0.1457  0.1111 -0.1836
36529W        W37393  23.247  10.447  19.118  0.1880  0.4531 -0.1240
36530W        W37394  17.306  10.335  19.965  0.1612 -0.1699  0.2549
36531W        W37395  17.952  11.060  19.385  0.0387 -0.3498  0.2199
36532W        W37396  17.683   8.055  20.940  0.1016  0.0997 -0.1023
36533W        W37397  19.542   9.077  20.163 -0.0283  0.1611 -0.0742
36534W        W37398  15.931   9.259  21.107  0.2201  0.1332  0.2682
36535W        W37399  18.503  11.166  18.554  0.2058  0.0953 -0.1315
36536W        W37400  23.734  10.414  18.303  0.4628  0.1784  0.0018
36537W        W37401  17.449   9.516  22.278 -0.1912  0.0928 -0.0410
36538W        W37402  17.191  10.843  20.749 -0.1122  0.1916  0.1046
36539W        W37403  19.218   8.726  20.012  0.1041  0.2517 -0.0386
36540W        W37404  16.774   7.974  18.756  0.1729  0.2485 -0.0154
36541W        W37405  23.380   8.365  20.950  0.1721  0.0507 -0.0292
36542W        W37406  22.403   9.167  17.233 -0.0064  0.1023  0.1667
36543W        W37407  22.455   8.167  17.616 -0.2958 -0.3349  0.1515
36544W        W37408  19.355  12.124  18.627 -0.1619  0.1719  0.0929
36545W        W37409  21.864  10.355  21.752 -0.1329  0.1859  0.1402
36546W        W37410  19.489  10.420  20.752 -0.2168  0.1354 -0.1548
36547W        W37411  21.200   8.148  19.854  0.0058 -0.2275  0.0959
36548W        W37412  21.183  12.008  19.035  0.2320  0.0750  0.0319
36549W        W37413  24.401   8.019  22.501 -0.1664 -0.0755 -0.0086
36550W        W37414  21.696  10.807  19.940  0.2365 -0.1675  0.0458
36551W        W37415  22.308   9.140  21.196  0.2587  0.3328  0.1231
36552W        W37416  19.332  10.600  18.644  0.2216  0.0717  0.0598
36553W        W37417  19.350  10.462  19.405 -0.3124 -0.1804 -0.0273
36554W        W37418  20.043  10.637  17.774  0.2124 -0.1491  0.1495
36555W        W37419  19.117   7.291  19.361 -0.1156 -0.0976 -0.3348
36556W        W37420  19.119   9.278  21.448 -0.2884  0.2714 -0.0652
36557W        W37421  19.225   8.991  20.846  0.0398  0.0687  0.1260
36558W        W37422  21.525   7.387  20.961  0.0946 -0.3079  0.1376
36559W        W37423  22.515   8.251  21.067  0.3323  0.2341  0.0892
36560W        W37424  21.551   7.225  19.271 -0.1018 -0.0960 -0.1263
36561W        W37425  18.529   9.237  21.196 -0.6492 -0.0386 -0.0475
36562W        W37426  21.436  11.848  20.543 -0.1880  0.0635 -0.3539
36563W        W37427  19.600   5.962  19.797 -0.3075  0.1634 -0.1537
36564W        W37428  22.385  10.042  20.686 -0.0142  0.0412  0.2132
36565W        W37429  23.415   8.836  22.431 -0.2365  0.2250 -0.5295
36566W        W37430  19.373   6.436  19.105  0.1397  0.0414  0.0845
36567W        W37431  23.330  10.339  21.165  0.0117 -0.0047 -0.0605
36568W        W37432  15.964  11.016  20.431  0.2414  0.2409 -0.1233
36569W        W37433  19.463   6.829  19.458 -0.0786  0.0040 -0.1830
36570W        W37434  21.634   7.863  21.172  0.3886  0.1995  0.1114
36571W        W37435  23.645   6.122  17.137 -0.3697 -0.1612 -0.2087
36572W        W37436  22.803  10.295  18.242 -0.1249 -0.3765 -0.0528
36573W        W37437  17.744  10.785  18.935 -0.0467  0.0249  0.3187
36574W        W37438  18.915   6.773  19.385  0.1631 -0.1275  0.0028
36575W        W37439  21.948   8.607  20.011 -0.0077  0.3991  0.2304
36576W        W37440  23.617   9.159  21.170  0.0697 -0.0833  0.0486
36577W        W37441  18.328   8.638  19.478 -0.0834 -0.1186 -0.0482
36578W        W37442  22.493   7.605  19.420 -0.1536  0.0248 -0.2561
36579W        W37443  21.655   9.956  21.571 -0.1639 -0.1334 -0.1751
36580W        W37444  19.491   9.976  19.366  0.3056 -0.0078  0.1014
36581W        W37445  19.917   8.436  20.470  0.0750 -0.1121 -0.1349
36582W        W37446  19.771  12.823  18.338 -0.1218 -0.0901  0.2414
36583W        W37447  20.068  10.915  22.473  0.2436  0.0407 -0.0168
36584W        W37448  19.492   6.997  20.569  0.1203 -0.0225  0.3873
36585W        W37449  17.442  10.444  20.582  0.0392 -0.3162 -0.0929
36586W        W37450  18.153   8.014  21.685 -0.3275 -0.0180 -0.0068
36587W        W37451  20.604  10.814  19.897  0.1125  0.1704 -0.1342
36588W        W37452  20.056   8.083  20.139 -0.0735 -0.2970  0.0509
36589W        W37453  17.392  12.565  19.676 -0.0303  0.2216  0.3988
36590W        W37454  21.347  11.180  19.936  0.1317  0.2046 -0.0969
36591W        W37455  18.364  10.825  19.534 -0.0010  0.4170  0.2148
36592W        W37456  20.805   6.977  21.797  0.1868  0.2264  0.1802
36593W        W37457  19.592  10.073  20.352  0.0085 -0.1231 -0.0983
36594W        W37458  17.950   7.644  23.752  0.0266 -0.2792  0.1367
36595W        W37459  19.840   9.067  18.767  0.3545 -0.1255  0.2571
36596W        W37460  21.625   9.407  19.007  0.3310  0.2912 -0.0086
36597W        W37461  20.232   9.363  19.986 -0.0440  0.0877  0.2123
36598W        W37462  23.589   9.607  19.506  0.0804 -0.1022  0.1231
36599W        W37463  18.723  10.705  18.651 -0.2052 -0.0652  0.1057
36600W        W37464  17.934   8.750  18.642  0.0061 -0.0109 -0.2141
36601W        W37465  22.474   9.976  17.969 -0.1376 -0.1603 -0.3771
36602W        W37466  20.822   8.291  21.755  0.0344  0.0291  0.1587
36603W        W37467  21.227  10.495  19.256  0.0524 -0.0679 -0.0479
36604W        W37468  24.647   9.023  19.293 -0.0055  0.0612  0.1750
36605W        W37469  21.603   9.503  20.000 -0.0010 -0.1575 -0.0895
36606W        W37470  23.996  12.469  20.525 -0.0170  0.3677  0.2272
36607W        W37471  21.140   7.838  22.783 -0.2049  0.1108  0.0165
36608W        W37472  17.985   8.996  22.667 -0.0887  0.0569 -0.0998
36609W        W37473  18.535   6.114  18.422 -0.1058 -0.0175 -0.0568
36610W        W37474  21.872   9.420  22.530  0.2423 -0.2871 -0.0427
36611W        W37475  21.238   8.529  21.964  0.2243  0.1292  0.0435
36612W        W37476  21.092  10.012  17.300  0.0118 -0.2487  0.1837
36613W        W37477  22.331   8.720  20.263  0.1106  0.0885  0.1520
36614W        W37478  18.915  11.983  19.055 -0.2550  0.0477 -0.1528
36615W        W37479  21.829  10.414  22.845  0.2206  0.0019 -0.0746
36616W        W37480  17.245   7.202  19.061  0.0674 -0.0800 -0.2110
36617W        W37481  19.789   5.756  17.910 -0.1443  0.1525 -0.0108
36618W        W37482  18.939  13.010  21.396  0.2820  0.0043  0.3231
36619W        W37483  19.386   9.107  19.000  0.3331  0.1387  0.2611
36620W        W37484  19.073   8.550  20.728  0.1485 -0.1692 -0.0316
36621W        W37485  18.399   8.503  19.969  0.0327  0.1792  0.1207
36622W        W37486  20.825   9.095  20.615  0.0519 -0.2472 -0.1944
36623W        W37487  22.856  10.299  19.521 -0.0011 -0.2068 -0.0647
36624W        W37488  22.296  11.895  20.315 -0.1902 -0.0704 -0.0917
36625W        W37489  20.891   7.522  20.479  0.0524 -0.0854 -0.0219
36626W        W37490  22.736   9.435  21.323  0.0966  0.1210  0.1726
36627W        W37491  17.708   5.533  18.526  0.3766  0.0013  0.0069
36628W        W37492  17.767  11.906  22.829 -0.1552  0.0787 -0.0243
36629W        W37493  17.850   7.254  20.359  0.2133  0.0403 -0.1607
36630W        W37494  19.756  10.529  20.286  0.2043 -0.2256 -0.2591
36631W        W37495  17.392  10.760  19.357 -0.0665  0.0335  0.0955
36632W        W37496  18.903   8.377  22.728 -0.3238  0.1578 -0.1792
36633W        W37497  18.006   8.083  19.234 -0.0712 -0.1918 -0.1081
36634W        W37498  15.275   5.606  18.620  0.1598  0.0363  0.0165
36635W        W37499  20.274   7.980  20.934 -0.0428 -0.1708  0.1580
36636W        W37500  22.301   7.453  20.510 -0.0745 -0.2820 -0.1323
36637W        W37501  18.128   9.470  21.609 -0.3171  0.2511 -0.1332
36638W        W37502  19.571   9.299  21.956 -0.1147  0.2198 -0.0592
36639W        W37503  21.761   8.323  20.958  0.1846  0.0431  0.0794
36640W        W37504  20.385   5.401  19.814  0.2050 -0.1551  0.1961
36641W        W37505  21.488   9.031  19.991  0.3624  0.2450 -0.0549
36642W        W37506  16.785  11.403  20.165 -0.0827  0.0545 -0.1002
36643W        W37507  18.288  13.592  19.218  0.0815  0.0062  0.0783
36644W        W37508  17.533   8.873  22.376 -0.0925  0.2064 -0.3011
36645W        W37509  17.227   8.822  18.497  0.1582 -0.0832 -0.1200
36646W        W37510  17.444   9.429  18.300 -0.0009 -0.0173  0.0527
36647W        W37511  21.910   5.488  20.755 -0.0776 -0.0412  0.0659
36648W        W37512  21.563  11.509  19.539 -0.0720  0.1325 -0.1415
36649W        W37513  21.693  11.776  20.076 -0.0927 -0.1430  0.0626
36650W        W37514  21.181   8.762  18.875 -0.0237 -0.3052 -0.0666
36651W        W37515  22.571  10.773  18.409 -0.1644 -0.1640 -0.1450
36652W        W37516  20.656   9.811  21.038 -0.1713 -0.1469 -0.0452
36653W        W37517  19.831   9.124  19.314 -0.0013 -0.0241 -0.0283
36654W        W37518  18.091   8.115  20.183 -0.2320  0.1090  0.0433
36655W        W37519  20.492   8.068  18.696 -0.0975 -0.0397 -0.2458
36656W        W37520  22.828  12.471  21.457 -0.0523  0.0293 -0.1131
36657W        W37521  20.601  11.638  16.464  0.1581 -0.0170  0.1390
36658W        W37522  19.281   4.556  20.112 -0.0281 -0.0381  0.0879
36659W        W37523  18.010  10.729  21.005 -0.4324 -0.3034  0.1111
36660W        W37524  20.032  11.591  19.521  0.2806  0.1099 -0.0449
36661W        W37525  18.017  11.662  19.859 -0.0361 -0.0720  0.1296
36662W        W37526  19.894   9.672  19.462  0.1626  0.2703  0.2217
36663W        W37527  16.102   7.780  15.742  0.0202  0.0373  0.2054
36664W        W37528  19.382   8.097  23.042 -0.1063  0.1375 -0.3839
36665W        W37529  19.603  10.943  19.458 -0.1395  0.2721 -0.2202
36666W        W37530  21.955   8.860  18.042  0.1041  0.2299  0.0640
36667W        W37531  15.271  11.461  20.586 -0.0782  0.1274  0.0187
36668W        W37532  17.923   9.055  20.093  0.2178  0.0249 -0.0734
36669W        W37533  19.106   6.768  22.537 -0.3070  0.2268 -0.1349
36670W        W37534  21.031   8.904  21.001 -0.0643 -0.2159  0.0561
36671W        W37535  19.364   7.128  18.097  0.3142  0.0137 -0.1927
36672W        W37536  20.773   8.716  18.443  0.0342  0.1180 -0.2687
36673W        W37537  19.050   7.754  21.563  0.0582 -0.1242 -0.2351
36674W        W37538  18.081   8.156  20.661  0.1732 -0.2171  0.1159
36675W        W37539  21.593   6.791  20.581 -0.0660  0.0385  0.1137
36676W        W37540  16.382   8.792  21.938 -0.1305  0.1269 -0.1789
36677W        W37541  21.339   7.002  22.654  0.1106  0.0242  0.0141
36678W        W37542  20.535   9.306  17.346 -0.1096  0.1910  0.0546
36679W        W37543  17.642  10.318  21.055 -0.1399  0.1769  0.3197
36680W        W37544  20.041  10.894  21.778  0.0042 -0.2455 -0.0218
36681W        W37545  16.387   8.308  19.529 -0.1793 -0.0998  0.2183
36682W        W37546  19.111   9.951  20.137  0.2737  0.3134 -0.3407
36683W        W37547  21.103   8.811  19.645  0.2509  0.0096 -0.0604
36684W        W37548  17.538  11.645  19.942 -0.0235  0.0550  0.2362
36685W        W37549  18.209   7.986  18.111  0.1750 -0.1576 -0.0575
36686W        W37550  18.652  11.854  22.523 -0.0365 -0.1162 -0.2738
36687W        W37551  19.891   7.698  22.547 -0.0661  0.1240 -0.0798
36688W        W37552  19.609   8.568  20.933 -0.1600 -0.3826 -0.1715
36689W        W37553  20.692   5.539  21.417 -0.0284  0.3328  0.1977
36690W        W37554  21.340   6.854  20.165  0.0104 -0.2597  0.1667
36691W        W37555  22.717   8.016  19.654 -0.1084  0.0208 -0.0026
36692W        W37556  19.149  12.717  20.679  0.1021 -0.2585  0.1273
36693W        W37557  20.563   9.906  17.329 -0.1074  0.0115  0.3012
36694W        W37558  19.011   9.152  20.398 -0.3765 -0.0174  0.0180
36695W        W37559  16.894  11.437  20.681 -0.1327 -0.2970  0.0812
36696W        W37560  21.067  10.266  23.934  0.1208 -0.0296  0.2331
36697W        W37561  21.865   8.237  19.008  0.1634  0.0594 -0.1198
36698W        W37562  17.623  11.772  22.347 -0.2297 -0.0863  0.0695
36699W        W37563  21.440   9.183  17.430 -0.2293 -0.0739  0.0545
36700W        W37564  20.041   9.504  17.664 -0.0244  0.0078  0.0295
36701W        W37565  18.570  10.601  21.247 -0.4766 -0.3698  0.1616
36702W        W37566  19.590  10.867  21.074 -0.1994  0.0742  0.1700
36703W        W37567  20.753   6.297  22.501 -0.2769 -0.1172  0.3398
36704W        W37568  20.702   8.490  20.265 -0.3976 -0.0116  0.0113
36705W        W37569  18.913  11.453  21.287  0.0621  0.0795  0.3894
36706W        W37570  19.766   7.772  19.303 -0.0664  0.0717  0.2132
36707W        W37571  20.243   9.320  20.529 -0.0406  0.0382  0.0672
36708W        W37572  19.758  11.861  18.767  0.1898  0.1803 -0.0748
36709W        W37573  16.079  10.739  21.991 -0.0827  0.0447  0.3093
36710W        W37574  20.472   8.874  20.013  0.0116 -0.2464 -0.1747
36711W        W37575  19.640   9.605  21.527 -0.2274  0.0988  0.1615
36712W        W37576  23.459  10.795  18.605 -0.0730  0.1055 -0.1271
36713W        W37577  21.677   4.691  21.197 -0.0483 -0.1573 -0.0493
36714W        W37578  22.826   9.861  22.450 -0.1316 -0.0309  0.2107
36715W        W37579  18.649  10.684  18.152  0.3051  0.0698  0.1977
36716W        W37580  19.457  11.228  18.505 -0.2897  0.4798 -0.2641
36717W        W37581  19.310  12.778  21.131  0.0599  0.1272 -0.0594
36718W        W37582  22.133   6.664  22.955 -0.1719  0.1720 -0.0305
36719W        W37583  20.745   7.871  19.114  0.2101 -0.1988 -0.0551
36720W        W37584  19.808   8.959  21.704 -0.3166  0.0255  0.2029
36721W        W37585  18.739   8.905  19.882  0.0475  0.0229  0.0704
36722W        W37586  21.782   9.957  19.621 -0.2115 -0.0607  0.1759
36723W        W37587  21.515  12.847  22.227 -0.0258 -0.1741  0.0996
36724W        W37588  24.659  12.504  19.654  0.1567  0.2212  0.0806
36725W        W37589  18.989  11.714  19.889 -0.1213 -0.0421  0.1961
36726W        W37590  17.562  10.997  21.079  0.3031  0.0906 -0.0077
36727W        W37591  17.329  12.120  19.926 -0.2247  0.1149  0.0221
36728W        W37592  20.327  12.101  20.932  0.0382 -0.0211 -0.1104
36729W        W37593  19.937  10.505  22.051 -0.4493  0.1790  0.0651
36730W        W37594  17.668   8.096  19.844  0.2731 -0.0574 -0.2180
36731W        W37595  23.834   7.612  20.187  0.2443  0.1829 -0.0566
36732W        W37596  22.333   8.209  19.987 -0.0837 -0.1611  0.1375
36733W        W37597  17.918   7.495  19.390  0.0082 -0.2749 -0.1119
36734W        W37598  20.673  12.077  19.014 -0.3338  0.1035  0.2124
36735W        W37599  23.051   8.633  18.373 -0.0722 -0.0316  0.1653
36736W        W37600  18.799   9.568  20.197 -0.0283 -0.0660  0.0143
36737W        W37601  20.991   6.511  21.118  0.0279  0.2045 -0.2732
36738W        W37602  21.035   7.527  19.556  0.2519  0.0465  0.1202
36739W        W37603  21.153   6.863  21.426  0.1245  0.0296 -0.0505
36740W        W37604  19.187  10.875  18.186  0.0533  0.0905  0.0614
36741W        W37605  17.377  10.756  21.507  0.0487 -0.0470  0.0996
36742W        W37606  18.778  12.397  17.461  0.1810 -0.4134  0.3416
36743W        W37607  18.730   8.720  20.366 -0.0946  0.2587 -0.1376
36744W        W37608  18.588   9.895  19.877 -0.0743  0.2316 -0.0555
36745W        W37609  23.132  10.321  20.216 -0.1682  0.1993 -0.0247
36746W        W37610  21.210  11.750  17.332 -0.1476  0.1617  0.3131
36747W        W37611  21.133   9.673  18.910  0.0893  0.2710  0.0735
36748W        W37612  20.578   7.794  21.338 -0.0634 -0.1594  0.3165
36749W        W37613  16.379  10.273  20.334  0.1901 -0.0306 -0.0419
36750W        W37614  21.276  10.082  22.419  0.1107  0.3556 -0.3154
36751W        W37615  21.541   8.173  21.551  0.2762 -0.1400 -0.1938
36752W        W37616  18.533   6.497  19.335  0.2165 -0.2251  0.1058
36753W        W37617  17.803   9.418  20.883  0.2111  0.0981 -0.1590
36754W        W37618  20.771   9.203  19.497 -0.0637 -0.0225 -0.1735
36755W        W37619  15.418  10.543  20.835  0.2643  0.1349 -0.1681
36756W        W37620  20.074   8.855  19.653 -0.2233 -0.1835  0.0550
36757W        W37621  18.872   7.566  20.418  0.0372 -0.1863 -0.2024
36758W        W37622  18.813  10.908  20.888 -0.2283 -0.1127  0.1359
36759W        W37623  16.916  12.064  22.271  0.2285 -0.2446  0.1992
36760W        W37624  18.991  10.426  20.965 -0.0886  0.0568  0.2391
36761W        W37625  19.336   8.760  21.780 -0.0422 -0.1575  0.0395
36762W        W37626  20.832  10.238  14.815  0.1112  0.3460  0.0678
36763W        W37627  16.462  12.247  21.147 -0.0006 -0.0500 -0.2192
36764W        W37628  21.252   8.635  18.375  0.2091  0.0440 -0.0521
36765W        W37629  22.370  11.263  18.974  0.0210 -0.3345  0.1039
36766W        W37630  18.756   9.411  20.747  0.3016 -0.3431 -0.2396
36767W        W37631  20.029   5.289  17.224  0.1040  0.0675 -0.6709
36768W        W37632  20.299   9.364  19.447 -0.0735  0.4471  0.1079
36769W        W37633  17.594  10.359  19.145 -0.2044  0.3222  0.1501
36770W        W37634  17.669  10.049  20.257 -0.0373 -0.1762  0.1795
36771W        W37635  22.271   9.971  19.651  0.0212 -0.2673 -0.0282
36772W        W37636  19.802   7.444  20.960 -0.2034 -0.1855 -0.0178
36773W        W37637  20.894  11.538  19.961  0.0032  0.0243 -0.0929
36774W        W37638  22.757   7.292  20.196 -0.2323 -0.1042  0.2052
36775W        W37639  18.781  12.296  19.813  0.1081 -0.2200 -0.3228
36776W        W37640  18.444  11.418  20.379  0.3061 -0.1098 -0.0231
36777W        W37641  17.797   7.026  25.783  0.2469  0.2221 -0.2232
36778W        W37642  19.241  11.078  21.845  0.0214 -0.0509  0.2462
36779W        W37643  21.655  10.478  19.528 -0.1750  0.0297 -0.0443
36780W        W37644  20.941  12.126  19.481  0.1135 -0.1612 -0.3333
36781W        W37645  19.499  10.244  19.819  0.3030  0.0430  0.0708
36782W        W37646  23.545   8.567  24.067  0.0261  0.0868 -0.0589
36783W        W37647  20.431   7.288  21.640 -0.4661 -0.1526  0.0985
36784W        W37648  20.674   7.556  19.962  0.1755  0.1548  0.0473
36785W        W37649  18.560  12.015  18.722 -0.0509 -0.1551  0.4303
36786W        W37650  20.193   8.210  21.426 -0.3156 -0.1132 -0.1137
36787W        W37651  19.982   9.200  22.296 -0.0101  0.2739 -0.1039
36788W        W37652  16.768  10.236  21.274  0.1978  0.1137 -0.1181
36789W        W37653  16.737   9.014  18.789 -0.2667  0.3899 -0.2790
36790W        W37654  17.558  11.697  21.843  0.0050  0.0201 -0.1417
36791W        W37655  18.601  11.081  21.316  0.2119 -0.0860  0.0007
36792W        W37656  16.132   9.637  19.025 -0.2604 -0.0401  0.2191
36793W        W37657  19.378   9.383  18.519 -0.1838  0.1625 -0.1645
36794W        W37658  22.180   7.891  20.365 -0.0556 -0.0143 -0.0827
36795W        W37659  16.226   8.834  21.095  0.0035  0.2026 -0.0435
36796W        W37660  18.315  11.453  19.378 -0.3701  0.0275  0.4675
36797W        W37661  22.903  12.398  19.682 -0.0502 -0.2650  0.0793
36798W        W37662  19.271  11.331  20.833 -0.0753  0.1284 -0.2849
36799W        W37663  22.710   7.891  20.398  0.0024 -0.0744  0.3899
36800W        W37664  20.425   9.040  18.311 -0.0838  0.2233 -0.0874
36801W        W37665  21.989   9.881  20.070 -0.2395 -0.1702  0.1170
36802W        W37666  16.759   7.737  22.359  0.1867 -0.0824 -0.1533
36803W        W37667  19.390  10.827  16.583 -0.0334 -0.1372 -0.0690
36804W        W37668  18.560   8.156  20.407 -0.2161 -0.0096  0.0151
36805W        W37669  17.051  10.449  19.520  0.2036 -0.2242 -0.0785
36806W        W37670  17.104   8.487  24.023  0.2560 -0.1484 -0.2851
36807W        W37671  19.822   7.588  18.796 -0.1856  0.1490  0.2507
36808W        W37672  23.329   9.488  19.973  0.1487 -0.0143 -0.0883
36809W        W37673  18.360  10.691  22.993 -0.1950 -0.1201  0.1226
36810W        W37674  22.415   8.996  22.112 -0.0569 -0.0859 -0.2910
36811W        W37675  19.756  11.508  20.769 -0.0255  0.3162  0.0299
36812W        W37676  19.324   9.857  18.293  0.0770  0.0733  0.0699
36813W        W37677  21.711   9.415  21.721 -0.1205 -0.1181  0.2185
36814W        W37678  19.548  12.296  20.469 -0.2134 -0.1638 -0.1976
36815W        W37679  17.879   5.561  19.085  0.3158 -0.0005  0.0115
36816W        W37680  18.886  12.724  20.113  0.0416 -0.0023 -0.1195
36817W        W37681  16.791  11.512  21.181 -0.1630 -0.1138 -0.0731
36818W        W37682  18.401   7.816  19.525  0.1227  0.1158  0.0001
36819W        W37683  17.093   9.206  20.480  0.1142  0.2261  0.1138
36820W        W37684  20.802   8.228  18.216  0.0530 -0.2517 -0.1182
36821W        W37685  15.839   7.924  24.143 -0.0518  0.0569 -0.1733
36822W        W37686  16.399   8.739  20.115  0.0033 -0.0663  0.0958
36823W        W37687  16.263   8.806  19.631  0.1485 -0.1502 -0.1812
36824W        W37688  20.175   8.492  20.995  0.0580 -0.2151  0.0224
36825W        W37689  17.075   6.590  18.883 -0.0760  0.0150 -0.1362
36826W        W37690  19.326   9.482  21.057 -0.1765 -0.0255  0.0714
36827W        W37691  22.593   8.970  18.075 -0.3735  0.3991  0.1389
36828W        W37692  20.206   7.423  18.099 -0.2458 -0.0657 -0.0496
36829W        W37693  20.685  10.970  19.239  0.2144  0.3009  0.1331
36830W        W37694  16.652  13.764  18.623  0.0549  0.1429 -0.0585
36831W        W37695  22.156   7.761  18.885 -0.1899  0.0466  0.1283
36832W        W37696  18.218   7.555  21.234 -0.0807 -0.1474  0.0362
36833W        W37697  21.206   7.712  23.409  0.2320  0.2647 -0.0376
36834W        W37698  16.950   8.677  22.729 -0.0136  0.0464 -0.0186
36835W        W37699  19.262   9.094  17.615 -0.0287 -0.0514  0.2325
36836W        W37700  19.628   9.204  20.620  0.0162 -0.1105 -0.0482
36837W        W37701  21.339   7.475  22.480  0.0810  0.0318 -0.1783
36838W        W37702  19.077   7.885  20.099 -0.3269 -0.1032  0.1820
36839W        W37703  15.951   8.112  19.145 -0.0657 -0.2416 -0.3197
36840W        W37704  18.722  13.870  19.318 -0.1258  0.2709 -0.2708
36841W        W37705  21.491  10.357  20.067  0.0619  0.0735  0.3299
36842W        W37706  22.712  12.239  19.214  0.1526 -0.0651 -0.2876
36843W        W37707  21.737   8.527  21.977  0.2139  0.0105 -0.1373
36844W        W37708  21.028   8.855  20.199  0.0295  0.2347  0.1410
36845W        W37709  21.735   8.958  16.521  0.1852 -0.0292 -0.1121
36846W        W37710  18.128   6.268  14.968  0.1457 -0.0512  0.2423
36847W        W37711  22.774   7.162  19.235  0.0698 -0.1418 -0.2120
36848W        W37712  18.709  11.043  15.577  0.3211  0.2438  0.0500
36849W        W37713  20.710   9.852  23.173  0.0914  0.0578  0.3456
36850W        W37714  22.114  11.676  18.950  0.1349  0.0408 -0.2403
36851W        W37715  19.634   5.976  20.805 -0.0339  0.0179  0.2983
36852W        W37716  18.057   9.160  21.249  0.1868 -0.0682  0.1605
36853W        W37717  20.954  10.639  23.436 -0.2186 -0.1649 -0.0581
36854W        W37718  20.736   7.277  21.261  0.0285  0.0972 -0.0333
36855W        W37719  15.931   7.870  21.936 -0.1060 -0.2147 -0.2506
36856W        W37720  19.914   6.970  20.859 -0.0814  0.0051  0.2377
36857W        W37721  17.831   8.573  19.943 -0.0992 -0.1925 -0.0796
36858W        W37722  18.922   6.580  20.665  0.2359  0.2069 -0.1274
36859W        W37723  19.971  11.138  19.785 -0.1152  0.0048 -0.1308
36860W        W37724  22.641   9.066  20.396 -0.2178 -0.3259  0.0461
36861W        W37725  23.403   9.113  19.610 -0.2962  0.0495 -0.0494
36862W        W37726  21.662  10.034  20.986 -0.2136  0.0989  0.1486
36863W        W37727  20.102  11.172  18.492  0.1047  0.3054 -0.1315
36864W        W37728  23.272   8.732  19.860  0.2709  0.0980  0.0798
36865W        W37729  22.405  10.967  22.594  0.1282  0.3503 -0.0590
36866W        W37730  22.278   9.573  20.927  0.2616 -0.1648  0.1846
36867W        W37731  18.556  11.101  17.847  0.1139  0.5307  0.0213
36868W        W37732  20.721  10.004  19.897  0.0112  0.1584 -0.1719
36869W        W37733  18.801   8.852  21.600  0.3276  0.2456  0.0087
36870W        W37734  21.468   8.779  21.096 -0.1234 -0.0350  0.0424
36871W        W37735  16.943   8.067  20.899 -0.0311 -0.0897  0.0268
36872W        W37736  20.222  10.253  18.061  0.2288 -0.1236  0.2157
36873W        W37737  21.011   8.209  22.246  0.2148 -0.2634 -0.0417
36874W        W37738  21.481  10.384  17.981  0.1995  0.0586 -0.2684
36875W        W37739  17.480   6.408  18.118  0.3844 -0.0574 -0.1448
36876W        W37740  16.611  13.305  26.155 -0.0208  0.2198 -0.2436
36877W        W37741  18.105   9.932  24.094 -0.1889  0.0476 -0.3043
36878W        W37742  22.891   9.332  22.435  0.2067  0.1377  0.0631
36879W        W37743  20.099   8.117  25.251 -0.0362 -0.2335 -0.1355
36880W        W37744  18.237  11.915  22.976  0.0536  0.0761 -0.2353
36881W        W37745  20.083   6.802  22.535  0.1245 -0.0065  0.0971
36882W        W37746  20.490   7.966  23.454  0.3636  0.1249 -0.1694
36883W        W37747  21.456   9.345  22.903 -0.2514 -0.0757 -0.2297
36884W        W37748  17.704  12.202  25.657 -0.0819  0.2473  0.1408
36885W        W37749  19.369   6.103  24.729 -0.4994  0.0497 -0.0408
36886W        W37750  17.754   5.656  27.013  0.0232  0.4841 -0.0773
36887W        W37751  22.254   6.631  23.443 -0.0532 -0.2086  0.1434
36888W        W37752  21.234   6.322  19.776  0.2050 -0.1338 -0.0764
36889W        W37753  19.871  10.856  24.610 -0.1979 -0.1697 -0.2639
36890W        W37754  20.864   7.260  24.181  0.4231  0.1164  0.1172
36891W        W37755  16.528  12.242  25.539 -0.1032 -0.1262 -0.3013
36892W        W37756  20.456   6.904  23.855 -0.3483  0.2891 -0.1726
36893W        W37757  17.479   9.308  25.924 -0.0413 -0.2798  0.2188
36894W        W37758  19.648   8.342  25.081  0.0903 -0.0456 -0.1824
36895W        W37759  20.214   9.211  23.602  0.0622 -0.0309  0.2119
36896W        W37760  20.651  10.300  23.611  0.1272  0.1175  0.2125
36897W        W37761  18.175   8.047  22.619  0.1242 -0.3129  0.1594
36898W        W37762  19.166  11.022  22.690 -0.2452 -0.1416 -0.1050
36899W        W37763  17.054   8.455  23.547 -0.2811  0.2844 -0.0628
36900W        W37764  16.286  11.471  23.488  0.2440 -0.1475 -0.0290
36901W        W37765  20.764   7.687  25.593 -0.0894  0.1901  0.2039
36902W        W37766  18.370   8.286  23.905  0.0872 -0.1108  0.2204
36903W        W37767  19.439  11.487  22.923 -0.0994  0.0873 -0.1679
36904W        W37768  22.005  10.352  26.648  0.1436  0.1360  0.2667
36905W        W37769  21.384   6.706  23.556  0.1996  0.2616  0.3270
36906W        W37770  20.990   8.046  21.298  0.1129 -0.0169  0.0652
36907W        W37771  19.939  10.296  26.823 -0.0796 -0.1062 -0.0276
36908W        W37772  20.470   7.647  25.217  0.3511 -0.0162 -0.2975
36909W        W37773  20.745   9.498  27.515  0.1304 -0.0213  0.1488
36910W        W37774  19.257   8.114  24.864 -0.1474  0.1513 -0.0766
36911W        W37775  20.617   9.499  26.459  0.0143  0.3957  0.2754
36912W        W37776  19.648   7.024  23.635  0.1041  0.0979  0.0327
36913W        W37777  18.477  10.977  25.644 -0.2043 -0.4956 -0.5197
36914W        W37778  22.955   9.877  24.290 -0.1279  0.0882 -0.2047
36915W        W37779  20.629   7.905  26.020 -0.0144 -0.2356 -0.0509
36916W        W37780  19.311   5.798  22.216 -0.0199 -0.0751 -0.0976
36917W        W37781  20.767   7.924  23.878  0.0721  0.0162  0.1993
36918W        W37782  18.991   9.140  23.672  0.1072 -0.1014 -0.1327
36919W        W37783  21.279  11.711  23.548  0.2685  0.0801  0.0324
36920W        W37784  21.298  10.199  21.338 -0.2391  0.1825  0.0687
36921W        W37785  18.715  11.105  23.504 -0.1930 -0.1988 -0.0624
36922W        W37786  18.749   9.486  22.307  0.0509  0.1274  0.4786
36923W        W37787  19.946   7.646  25.328  0.0484  0.0440  0.5012
36924W        W37788  22.621   8.031  23.657 -0.1315 -0.1492  0.1610
36925W        W37789  23.049   8.359  23.096  0.0734  0.1244  0.0551
36926W        W37790  20.621   8.423  24.067  0.0394  0.0611  0.2074
36927W        W37791  19.090   5.365  23.630 -0.2364  0.2645 -0.1574
36928W        W37792  21.901  11.601  24.797  0.1710 -0.1737 -0.0406
36929W        W37793  20.319  10.220  21.042 -0.1803 -0.4115  0.1967
36930W        W37794  20.995   9.189  22.619  0.0980 -0.2197  0.3903
36931W        W37795  18.813   6.909  22.906  0.1834  0.0053 -0.2204
36932W        W37796  17.926   7.314  23.217  0.1198 -0.0337  0.3879
36933W        W37797  21.240   9.804  23.054  0.0251  0.0497 -0.0386
36934W        W37798  18.645  14.072  25.324  0.0015  0.0174 -0.2499
36935W        W37799  20.587  10.388  23.120  0.1727  0.0907 -0.0291
36936W        W37800  22.122  10.183  23.237  0.0167 -0.1382 -0.3077
36937W        W37801  19.169   9.888  22.407  0.0100 -0.0064 -0.2666
36938W        W37802  16.763  11.400  24.283  0.0059  0.2258  0.0764
36939W        W37803  19.104  10.342  20.473 -0.0435  0.1874  0.4420
36940W        W37804  19.586  10.123  22.200  0.1458 -0.1465  0.1567
36941W        W37805  23.466   7.256  21.723 -0.1317 -0.1385  0.1209
36942W        W37806  18.158  10.242  21.154  0.1889  0.2414 -0.3319
36943W        W37807  18.874   6.708  24.667 -0.2570 -0.1314 -0.0236
36944W        W37808  18.732  13.497  23.284  0.1136  0.1364  0.2300
36945W        W37809  19.825   7.302  22.806 -0.2525  0.2019 -0.0823
36946W        W37810  23.037   7.832  24.704 -0.1050 -0.0312  0.0397
36947W        W37811  20.251   6.525  24.308  0.0149 -0.2015 -0.1969
36948W        W37812  19.859  10.069  23.774  0.0681  0.0439 -0.1193
36949W        W37813  20.887   9.658  25.311  0.2120  0.0272  0.0674
36950W        W37814  21.934   9.246  23.546  0.0905 -0.1783  0.3030
36951W        W37815  22.070   9.869  21.867 -0.0729  0.3578 -0.1095
36952W        W37816  19.203   9.228  23.115 -0.1229  0.3774  0.1932
36953W        W37817  19.929  10.191  22.968  0.0734 -0.1687  0.1680
36954W        W37818  18.396   9.573  21.997 -0.2004 -0.1121  0.2105
36955W        W37819  20.653   9.712  24.202 -0.0841  0.0688  0.0492
36956W        W37820  19.732   7.969  24.736 -0.1228  0.3211  0.1236
36957W        W37821  19.011   8.858  24.444  0.0333 -0.0779 -0.1203
36958W        W37822  19.579   9.853  25.993  0.0785 -0.0256  0.1111
36959W        W37823  18.747   5.159  23.311 -0.0623 -0.0541  0.0708
36960W        W37824  19.750  10.087  21.634  0.2601  0.0266 -0.2108
36961W        W37825  19.923   7.296  21.617  0.1489  0.3852  0.1066
36962W        W37826  21.558   7.666  25.105 -0.1125 -0.0966  0.0425
36963W        W37827  19.962   7.155  25.149  0.0910 -0.1822 -0.0583
36964W        W37828  19.785   8.646  23.014 -0.1997  0.1816  0.1253
36965W        W37829  18.413   7.656  23.988  0.0664 -0.1502  0.0949
36966W        W37830  22.624   6.154  22.740 -0.0053  0.3763 -0.0136
36967W        W37831  22.608   7.573  26.960 -0.4192  0.0714 -0.0643
36968W        W37832  17.392   8.658  21.773 -0.0412  0.1896 -0.1547
36969W        W37833  21.327  11.120  23.785 -0.2655  0.2611  0.2211
36970W        W37834  18.645   7.232  23.753 -0.0163  0.1420  0.2022
36971W        W37835  23.450   9.645  23.151  0.1030  0.2306 -0.0129
36972W        W37836  23.119  10.454  21.972  0.0208 -0.2708 -0.0683
36973W        W37837  18.802  11.725  24.219 -0.0643  0.0155  0.0565
36974W        W37838  20.232  10.017  21.860 -0.0457 -0.0255 -0.2200
36975W        W37839  19.911   8.486  24.627  0.1423 -0.0765 -0.2078
36976W        W37840  23.989  13.057  21.953 -0.1752 -0.0246 -0.0783
36977W        W37841  19.033   7.931  22.628  0.1019 -0.0763 -0.4223
36978W        W37842  20.436   9.730  22.332 -0.1470 -0.0441 -0.1378
36979W        W37843  19.783  12.662  23.435 -0.2648 -0.2011 -0.1784
36980W        W37844  22.384   8.332  22.639  0.2511 -0.4668  0.0584
36981W        W37845  19.383   9.658  28.179  0.0741 -0.1735  0.1781
36982W        W37846  21.157   8.821  22.336  0.1058 -0.0984 -0.0446
36983W        W37847  21.581  10.275  27.046 -0.1856  0.5010  0.1410
36984W        W37848  19.496   7.784  23.465  0.1210 -0.1330  0.0714
36985W        W37849  19.505  11.343  25.810 -0.3013 -0.1098  0.2813
36986W        W37850  15.822  11.734  26.707 -0.2374  0.0653  0.3042
36987W        W37851  21.594  10.754  21.454 -0.0071  0.0049 -0.1581
36988W        W37852  20.347   6.005  23.245  0.2357 -0.1701  0.1312
36989W        W37853  19.150   9.822  20.751  0.0528 -0.1168 -0.4746
36990W        W37854  22.436   9.483  22.559  0.1174 -0.1917 -0.0685
36991W        W37855  19.062   7.082  20.307 -0.0976 -0.0284  0.0865
36992W        W37856  22.369   8.882  23.454  0.1017 -0.1307 -0.0268
36993W        W37857  20.463  10.584  21.799  0.4116 -0.1667 -0.0667
36994W        W37858  20.564   9.451  22.805  0.0014 -0.0785 -0.0488
36995W        W37859  21.508  10.297  20.580 -0.2880  0.0947 -0.0357
36996W        W37860  22.001   8.800  25.178 -0.1725  0.1194 -0.1684
36997W        W37861  20.644  10.730  20.886  0.0032  0.1644 -0.0106
36998W        W37862  19.342   9.633  23.444  0.1918  0.1155 -0.3129
36999W        W37863  21.170   9.697  21.975 -0.1834  0.4037  0.0722
37000W        W37864  19.267   9.474  24.173 -0.0167  0.1755 -0.2201
37001W        W37865  19.317   9.955  21.236  0.1699 -0.0703 -0.0075
37002W        W37866  19.855   8.706  22.520 -0.0021  0.2352 -0.4076
37003W        W37867  22.450   9.267  26.090 -0.1073 -0.3675  0.0628
37004W        W37868  20.458   9.855  23.728  0.1322  0.1817 -0.1208
37005W        W37869  16.500   9.405  23.115  0.0021  0.1994  0.0516
37006W        W37870  23.301  11.626  22.905  0.2127 -0.1738 -0.0252
37007W        W37871  19.400   8.472  24.546  0.1075  0.0116 -0.0957
37008W        W37872  19.120  12.560  21.682 -0.0370 -0.2516 -0.1483
37009W        W37873  24.013   7.642  24.095  0.0946 -0.0521 -0.1404
37010W        W37874  18.871  10.600  23.221  0.1151  0.0618 -0.1897
37011W        W37875  17.430   9.688  23.477 -0.1008  0.1266 -0.0946
37012W        W37876  20.280   7.450  22.997  0.0321  0.0971 -0.2395
37013W        W37877  20.540   7.757  22.451  0.0212 -0.2364 -0.0973
37014W        W37878  23.716  10.309  24.364  0.1351  0.1478  0.0415
37015W        W37879  19.540  10.114  22.679 -0.0956 -0.0115 -0.0185
37016W        W37880  21.047   7.078  22.276  0.1476  0.1857 -0.1525
37017W        W37881  22.126   8.359  23.553  0.1085  0.3873  0.0294
37018W        W37882  19.004  10.978  16.799 -0.0005 -0.0157 -0.1685
37019W        W37883  18.282  10.994  20.648 -0.0553 -0.1646  0.1584
37020W        W37884  22.543   9.905  21.641  0.2316 -0.0005 -0.2061
37021W        W37885  20.017   6.384  23.175  0.0524  0.0479 -0.1515
37022W        W37886  20.281   5.800  21.597  0.0929 -0.0531  0.3255
37023W        W37887  23.653  10.513  22.741  0.0640 -0.0196 -0.0982
37024W        W37888  21.864  10.316  23.664  0.2351  0.0137 -0.1875
37025W        W37889  19.701  11.375  24.587 -0.2185  0.0579  0.2223
37026W        W37890  21.500   6.824  26.606 -0.1329 -0.1371  0.1205
37027W        W37891  21.033   5.984  21.272  0.1992 -0.0629 -0.0968
37028W        W37892  18.585  10.184  23.461  0.2973 -0.0250  0.0315
37029W        W37893  19.016   6.703  25.160 -0.0090  0.0111 -0.0791
37030W        W37894  24.490   9.771  21.350  0.2775  0.1617 -0.1746
37031W        W37895  19.016   7.261  24.960  0.0018  0.1067  0.0214
37032W        W37896  18.286   9.393  22.883 -0.4241 -0.0234  0.0909
37033W        W37897  18.531   8.562  21.983 -0.3014 -0.0515 -0.2492
37034W        W37898  19.819   8.152  23.782  0.4799  0.0763  0.0315
37035W        W37899  20.126   7.630  22.063  0.2412 -0.0994  0.3000
37036W        W37900  20.698   6.213  25.230  0.1349  0.0985 -0.2392
37037W        W37901  19.099  10.494  23.673 -0.3083 -0.2994 -0.0923
37038W        W37902  22.116   9.754  23.606  0.1293 -0.0364 -0.1323
37039W        W37903  21.460  10.217  28.614 -0.1372 -0.0621 -0.1929
37040W        W37904  21.359   7.358  26.866  0.1458  0.1183  0.0907
37041W        W37905  18.997   8.444  22.218 -0.1075  0.0322  0.1232
37042W        W37906  19.789   9.274  19.810 -0.1665 -0.2855 -0.1287
37043W        W37907  17.868  10.615  22.939  0.3639 -0.5012  0.0278
37044W        W37908  20.944   9.758  23.609 -0.4214  0.0186  0.0121
37045W        W37909  19.779   8.497  19.997  0.0078  0.0911 -0.4247
37046W        W37910  19.069  10.966  21.285 -0.0023 -0.0343  0.3074
37047W        W37911  19.297  10.899  23.195  0.4476 -0.2377 -0.1452
37048W        W37912  20.604   9.030  23.079  0.0318  0.0204 -0.3216
37049W        W37913  20.003  11.177  19.247 -0.3022 -0.2069 -0.0652
37050W        W37914  20.566   5.951  22.216 -0.1085 -0.0436 -0.0766
37051W        W37915  21.144  11.341  21.193  0.0458 -0.1788  0.2092
37052W        W37916  16.652  12.514  27.182  0.3644 -0.2466  0.2482
37053W        W37917  18.719  11.061  23.001 -0.0130  0.0295 -0.1518
37054W        W37918  17.389  13.480  22.752  0.1802  0.3407  0.1392
37055W        W37919  20.759   8.320  24.551 -0.3323  0.2597  0.1558
37056W        W37920  17.372   9.130  23.262 -0.3096  0.1623 -0.2740
37057W        W37921  20.757   8.541  20.778 -0.1986  0.0774  0.0692
37058W        W37922  20.617  12.566  24.330  0.1611 -0.0203  0.1967
37059W        W37923  20.254   7.955  22.823  0.4329  0.0930  0.1429
37060W        W37924  20.537   6.604  23.303 -0.0913 -0.0027 -0.0168
37061W        W37925  21.250   7.440  25.889 -0.0855  0.0266  0.0769
37062W        W37926  20.175   9.536  23.959 -0.0203  0.2461  0.4148
37063W        W37927  18.976   7.324  21.820  0.0681 -0.1591  0.3106
37064W        W37928  19.641   9.626  22.378 -0.0476 -0.1290 -0.2973
37065W        W37929  18.881  10.235  21.474  0.2198 -0.1743 -0.1915
37066W        W37930  18.317  10.053  22.116 -0.3226 -0.2145  0.0403
37067W        W37931  18.307   6.692  22.486 -0.1385 -0.0581  0.1482
37068W        W37932  21.343  10.070  27.927 -0.1977 -0.4845 -0.1911
37069W        W37933  18.197   7.284  25.013 -0.0605 -0.2356  0.0933
37070W        W37934  19.439   5.751  23.447 -0.0264  0.0361  0.0235
37071W        W37935  19.009   7.606  24.598 -0.0437 -0.2152  0.0344
37072W        W37936  23.219   8.435  22.195  0.1777  0.0588  0.1058
37073W        W37937  19.134   8.018  24.357  0.0631  0.2513  0.2748
37074W        W37938  16.774   9.092  21.968 -0.0963  0.0946  0.2047
37075W        W37939  21.710   7.229  22.964 -0.1503  0.0476  0.1273
37076W        W37940  19.196   9.757  22.956 -0.2362 -0.0267  0.3152
37077W        W37941  20.702   7.860  22.969  0.1937 -0.0661 -0.1054
37078W        W37942  24.683   6.851  23.144 -0.3218  0.0927 -0.2582
37079W        W37943  18.916   7.680  23.631 -0.0273 -0.0879  0.0606
37080W        W37944  22.170   9.607  25.291 -0.1436 -0.1456  0.0392
37081W        W37945  18.528   8.143  22.994  0.1541 -0.0179  0.2502
37082W        W37946  20.108   9.845  21.324  0.0263  0.0258 -0.2023
37083W        W37947  20.598   6.765  24.825 -0.0346  0.0434 -0.0439
37084W        W37948  18.694  11.073  22.382  0.0140 -0.0569  0.0209
37085W        W37949  17.026   9.735  22.493 -0.2819 -0.3503 -0.1442
37086W        W37950  17.878   9.905  23.556  0.3646 -0.1851 -0.0124
37087W        W37951  17.563  11.298   0.360  0.0847  0.1146 -0.0285
37088W        W37952  19.157   9.340  22.545 -0.4273  0.0687  0.1279
37089W        W37953  20.966   9.701  22.589  0.0199  0.0759 -0.1503
37090W        W37954  23.686   7.402  24.812 -0.0541 -0.2111 -0.3137
37091W        W37955  20.799  12.284  20.975  0.3976  0.2093  0.1584
37092W        W37956  21.429  10.682  23.533 -0.0584 -0.3339 -0.1126
37093W        W37957  22.238  11.148  23.124 -0.1883 -0.2093  0.2049
37094W        W37958  18.706   9.795  22.748  0.1859 -0.0622 -0.0966
37095W        W37959  19.342   9.541  25.648 -0.1421  0.0520  0.1298
37096W        W37960  21.388   7.352  24.332 -0.0113 -0.1495  0.0702
37097W        W37961  21.066   9.201  24.098 -0.3128 -0.0241 -0.2676
37098W        W37962  19.919  11.606  23.703 -0.0604  0.1553  0.1005
37099W        W37963  21.168   8.243  20.866  0.0938 -0.2055 -0.0605
37100W        W37964  23.251   8.893  20.899 -0.0714  0.1668  0.3412
37101W        W37965  19.738   6.769  24.466 -0.2123  0.1010 -0.3281
37102W        W37966  20.548   9.226  24.447  0.0458 -0.1587 -0.2434
37103W        W37967  19.937   7.706  26.117 -0.0450  0.0230 -0.1477
37104W        W37968  24.375   9.080  21.710  0.1009 -0.1207 -0.1922
37105W        W37969  22.163  10.648  25.535  0.0428 -0.0963 -0.0187
37106W        W37970  17.998   8.481  24.221  0.0190  0.0267  0.1099
37107W        W37971  20.770   7.879  24.742 -0.0859  0.0650  0.0588
37108W        W37972  18.472  10.688  23.541 -0.1274 -0.0894 -0.1157
37109W        W37973  20.619   8.813  23.545  0.2202 -0.0070 -0.1826
37110W        W37974  19.673   9.692  22.939 -0.0756  0.0153 -0.0173
37111W        W37975  19.926   8.347  19.561  0.0934  0.1213  0.3043
37112W        W37976  25.732   8.848  22.695 -0.1410  0.2790 -0.1661
37113W        W37977  20.430   9.669  25.065  0.1152  0.1953 -0.0110
37114W        W37978  23.254  10.581  23.082  0.0135 -0.0156 -0.3326
37115W        W37979  21.758  11.280  20.195  0.0572 -0.1766 -0.2541
37116W        W37980  21.086   8.431  22.792  0.2872 -0.0206  0.1335
37117W        W37981  19.543  11.955  23.998  0.0973  0.0397  0.1595
37118W        W37982  19.619   7.657  27.182  0.0467  0.4937  0.0542
37119W        W37983  19.973   6.820  23.969 -0.3700  0.1774  0.1338
37120W        W37984  20.419   7.214  24.920 -0.0240 -0.1345  0.0473
37121W        W37985  18.766  10.664  22.707  0.1163 -0.1589  0.0729
37122W        W37986  22.974   8.141  21.861  0.1634 -0.1843  0.0699
37123W        W37987  18.096  10.732  24.545  0.0295  0.0986 -0.2087
37124W        W37988  22.502  12.746  25.054  0.2052  0.1134  0.0336
37125W        W37989  18.734   9.365  21.706 -0.2364  0.1823 -0.0679
37126W        W37990  20.751  10.859  20.376  0.0302 -0.1352 -0.3492
37127W        W37991  18.188  12.163  21.517  0.0025  0.0302  0.1126
37128W        W37992  20.062  15.378  22.690 -0.2927  0.2699  0.0543
37129W        W37993  19.870   7.232  24.180 -0.0529  0.1741 -0.3845
37130W        W37994  17.339   7.883  20.632 -0.1679  0.0796  0.0155
37131W        W37995  20.284  12.233  22.749  0.1825  0.2219  0.1801
37132W        W37996  21.531   8.739  21.620  0.0351 -0.4050  0.3110
37133W        W37997  20.594   6.646  26.615 -0.3931  0.0652  0.0663
37134W        W37998  22.322   6.894  20.306 -0.0286  0.0614 -0.0342
37135W        W37999  21.199  11.467  20.337 -0.1960 -0.1676 -0.3204
37136W        W38000  21.366  10.242  21.917 -0.2312 -0.1054  0.0474
37137W        W38001  20.490   9.443  26.986 -0.1124 -0.1174  0.1146
37138W        W38002  20.097  10.723  24.159 -0.2256  0.0343 -0.4491
37139W        W38003  20.167   9.507  24.434  0.2594  0.2363  0.0017
37140W        W38004  17.620  10.981  24.324 -0.2422  0.1541  0.2016
37141W        W38005  19.026  13.443  26.562 -0.1411  0.1873 -0.3683
37142W        W38006  17.899   9.856  21.293 -0.0785  0.1248  0.0122
37143W        W38007  22.442   8.668  21.371 -0.2536 -0.1900  0.0759
37144W        W38008  18.119  10.993  22.132 -0.2638 -0.1043  0.0261
37145W        W38009  20.734   8.048  20.769  0.0821  0.0341 -0.0040
37146W        W38010  16.329   9.366  21.938  0.0925  0.1152  0.0655
37147W        W38011  17.638  10.796  21.951  0.1641  0.1701  0.0644
37148W        W38012  19.665   9.208  22.678 -0.4433 -0.1491  0.3950
37149W        W38013  16.718  11.159  25.605 -0.4718 -0.0595 -0.0864
37150W        W38014  23.759   8.579  23.204 -0.1594 -0.1734  0.4410
37151W        W38015  17.818   9.737  24.518  0.0834  0.2258  0.0253
37152W        W38016  19.428  10.118  24.285  0.2346 -0.2750 -0.0169
37153W        W38017  18.552   7.834  25.334 -0.0971  0.1686  0.0168
37154W        W38018  22.424   8.748  20.830 -0.2437  0.0711  0.0398
37155W        W38019  19.120  12.094  22.067  0.3363  0.2272  0.0781
37156W        W38020  20.194   9.479  23.150  0.3522  0.4260 -0.3428
37157W        W38021  19.810   8.534  21.416 -0.1500  0.3022 -0.1053
37158W        W38022  16.643   7.060  21.992  0.2061  0.2312  0.0337
37159W        W38023  21.785   8.226  26.960  0.1808 -0.0560 -0.2295
37160W        W38024  23.934  10.443  23.246 -0.0793 -0.1335  0.0529
37161W        W38025  19.120   6.757  26.103  0.1279  0.1423 -0.0678
37162W        W38026  20.662   9.599  20.598  0.0450 -0.0202 -0.1509
37163W        W38027  19.324  11.681  24.824  0.5847  0.1152  0.1019
37164W        W38028  23.275   7.035  21.159  0.2138  0.1075  0.0826
37165W        W38029  23.362   9.656  23.771 -0.1569  0.2142 -0.2412
37166W        W38030  23.046   8.672  21.743 -0.1964  0.0468  0.2074
37167W        W38031  23.019   7.276  21.557  0.0593 -0.0817 -0.2219
37168W        W38032  20.347   9.876  22.857  0.2222  0.0585 -0.2271
37169W        W38033  18.700   7.208  24.558 -0.1807  0.0834  0.2685
37170W        W38034  19.973   9.651  22.038 -0.1048  0.0079  0.1044
37171W        W38035  21.041   6.386  24.158 -0.2767 -0.0125 -0.0677
37172W        W38036  18.868   5.750  23.401 -0.1273  0.1739  0.0316
37173W        W38037  21.982   8.750  24.658 -0.1408 -0.0161 -0.0091
37174W        W38038  21.131   7.553  23.907 -0.2822 -0.1367  0.0697
37175W        W38039  16.933   8.118  24.301 -0.1627  0.0438  0.2458
37176W        W38040  19.276   8.689  22.923 -0.0548 -0.0503 -0.0109
37177W        W38041  18.554   7.824  24.489  0.0354  0.0673 -0.0101
37178W        W38042  19.262  10.013  23.801  0.3905  0.2872 -0.0020
37179W        W38043  21.877   8.052  26.466  0.1067 -0.1715 -0.0100
37180W        W38044  21.842  10.744  22.088 -0.0164 -0.2577  0.1049
37181W        W38045  20.109  10.748  21.119  0.1700 -0.0016 -0.1857
37182W        W38046  19.295   8.925  24.000  0.5329  0.0960 -0.2831
37183W        W38047  20.687   7.088  23.026 -0.0903  0.0317 -0.2644
37184W        W38048  21.368   9.160  22.017 -0.1956 -0.1502 -0.2059
37185W        W38049  18.027   9.906  20.665  0.1603 -0.0812 -0.5277
37186W        W38050  19.827   7.609  23.879 -0.2295 -0.1197 -0.0339
37187W        W38051  19.920   6.280  24.614  0.0920 -0.0015  0.0312
37188W        W38052  22.134   9.430  22.090  0.1578  0.3261  0.1816
37189W        W38053  21.224  11.687  24.053  0.2192  0.0506  0.3754
37190W        W38054  19.593   9.190  23.669 -0.0291  0.4209  0.3362
37191W        W38055  20.327   9.960  24.641 -0.2032 -0.2053  0.3183
37192W        W38056  22.171   9.102  20.619 -0.1619 -0.4573  0.0690
37193W        W38057  20.050  10.100  22.462  0.1240 -0.0936  0.0358
37194W        W38058  22.381   9.816  24.453 -0.2813 -0.1777 -0.1484
37195W        W38059  23.043   7.966  22.799  0.1470 -0.3395  0.1758
37196W        W38060  17.153  10.444  24.976 -0.1258 -0.3541 -0.3209
37197W        W38061  22.508  11.899  21.645  0.0702 -0.0037 -0.0962
37198W        W38062  19.771   8.832  24.972 -0.4470  0.0143 -0.1506
37199W        W38063  16.689   9.737  22.845  0.1392 -0.0622 -0.2137
37200W        W38064  18.090   8.000  24.166  0.0086 -0.0684 -0.0314
37201W        W38065  19.048   9.439  25.193  0.2316  0.2063  0.0553
37202W        W38066  23.998   9.194  23.594  0.2188  0.1240  0.0072
37203W        W38067  15.576   8.284  21.354  0.0489  0.0299  0.3369
37204W        W38068  21.340   9.232  21.191 -0.1279 -0.1162 -0.0494
37205W        W38069  19.431   8.860  22.297  0.4231 -0.1593 -0.0565
37206W        W38070  19.255   6.525  24.418  0.2219  0.0854  0.2399
37207W        W38071  20.967   7.704  22.224 -0.0966 -0.1071  0.2454
37208W        W38072  22.842   8.996  25.552  0.0102  0.2424 -0.1059
37209W        W38073  18.123  11.042  23.246 -0.3034 -0.1515  0.1434
37210W        W38074  21.037   7.757  24.312 -0.2654  0.0289 -0.0613
37211W        W38075  22.440  10.119  26.898  0.0837 -0.1904 -0.1937
37212W        W38076  20.748  10.058  22.033 -0.1390  0.3364 -0.0515
37213W        W38077  20.984   9.362  21.600  0.1200  0.1318  0.3142
37214W        W38078  21.705   7.667  22.676  0.2410  0.2116  0.0561
37215W        W38079  20.108   7.235  23.719  0.0947 -0.0020 -0.0011
37216W        W38080  19.658   9.842  20.848  0.3226 -0.0372 -0.2293
37217W        W38081  19.784  11.392  22.424 -0.1325  0.0588  0.1367
37218W        W38082  20.484   7.125  23.448  0.2693 -0.2015 -0.1491
37219W        W38083  18.473  11.522  23.235  0.4433 -0.1804 -0.1679
37220W        W38084  18.019  11.459  23.039  0.1522  0.0941 -0.0105
37221W        W38085  20.401  10.356  22.250 -0.1499 -0.1759 -0.2172
37222W        W38086  19.373   7.217  24.037  0.0911  0.0573  0.2032
37223W        W38087  20.524   8.393  23.163  0.0761  0.0576 -0.0425
37224W        W38088  20.534   9.429  21.364  0.1487 -0.1607  0.1393
37225W        W38089  19.384   6.348  21.656  0.0416 -0.0219 -0.0310
37226W        W38090  21.103   9.719  26.450 -0.1505 -0.0212 -0.3458
37227W        W38091  23.847   4.217  22.516 -0.1230 -0.2399 -0.0043
37228W        W38092  20.210  10.787  20.240 -0.0440 -0.1059  0.0015
37229W        W38093  18.142  11.716  23.611  0.3864 -0.0523 -0.0605
37230W        W38094  17.036  10.143  21.701 -0.3461 -0.0768 -0.0948
37231W        W38095  20.085   8.551  19.147 -0.3166  0.1224 -0.0375
37232W        W38096  18.169  10.295  23.728  0.0212  0.0855  0.3437
37233W        W38097  19.344   6.095  24.219  0.2143 -0.0480  0.1079
37234W        W38098  17.869   7.910  24.692 -0.3877  0.0461  0.0174
37235W        W38099  17.044   7.510  23.713  0.1487  0.0680 -0.0293
37236W        W38100  20.340   8.239  20.538 -0.2832 -0.2681  0.1363
37237W        W38101  20.221   7.883  23.884  0.3368  0.2346 -0.1410
37238W        W38102  19.215   8.718  21.263 -0.0274 -0.3563  0.1860
37239W        W38103  20.791   7.526  23.288  0.0182  0.1172  0.1209
37240W        W38104  19.587  10.910  22.207 -0.0336 -0.5348  0.1758
37241W        W38105  22.702  11.022  25.695  0.0173  0.3581 -0.3942
37242W        W38106  22.143  13.179  22.800  0.1192 -0.2215 -0.2825
37243W        W38107  21.869   9.039  23.028 -0.4187  0.0561  0.1565
37244W        W38108  19.588   8.389  23.440  0.0585 -0.4155  0.3033
37245W        W38109  22.237   6.200  20.592 -0.0860 -0.1860  0.1076
37246W        W38110  20.646  10.171  20.686 -0.2663 -0.1241  0.1530
37247W        W38111  21.377  10.036  23.686  0.0426 -0.0301  0.1054
37248W        W38112  21.490   9.914  20.264  0.0715  0.0479 -0.0425
37249W        W38113  21.154  10.433  25.259 -0.0139  0.3020  0.1023
37250W        W38114  23.159  10.833  21.642 -0.0555  0.1808  0.0097
37251W        W38115  19.500   6.667  24.037 -0.0146  0.0954  0.0256
37252W        W38116  20.269   8.647  22.299  0.2114  0.0600  0.0740
37253W        W38117  18.295   9.234  25.001 -0.1104  0.0912  0.2565
37254W        W38118  20.366   6.754  25.304 -0.0151 -0.2934 -0.1757
37255W        W38119  16.448   8.600  25.194  0.0259 -0.2223 -0.0043
37256W        W38120  20.780   8.667  22.118 -0.1480 -0.1975  0.1498
37257W        W38121  18.321   8.935  23.700  0.2519 -0.0174  0.3606
37258W        W38122  20.485   9.120  22.391 -0.2562  0.2664  0.1542
37259W        W38123  19.290  10.542  22.550 -0.2195  0.2369  0.2419
37260W        W38124  24.094  10.288  23.992 -0.0458  0.0540  0.1105
37261W        W38125  20.119   8.749  26.491 -0.1448  0.1078  0.2402
37262W        W38126  22.962   9.673  23.456 -0.0893  0.1460 -0.2743
37263W        W38127  20.441  10.935  23.359  0.0961 -0.1048  0.0455
37264W        W38128  19.349  11.166  25.379  0.0819  0.2172 -0.2302
37265W        W38129  23.106   9.231  23.827 -0.1109  0.1198  0.0050
37266W        W38130  20.784  10.296  29.058  0.0680 -0.3054 -0.0396
37267W        W38131  18.697  10.553  25.950 -0.1767  0.1570  0.1814
37268W        W38132  21.619   8.143  25.224 -0.0349 -0.1211  0.3310
37269W        W38133  21.245  10.289  22.857 -0.0199 -0.0206  0.2808
37270W        W38134  19.826  11.748  23.126  0.0929  0.1430  0.1951
37271W        W38135  19.842   8.558  25.517 -0.0175  0.0213 -0.4514
37272W        W38136  21.822   8.992  21.987  0.2313 -0.1320 -0.1742
37273W        W38137  20.814  10.132  24.420 -0.1991 -0.1296 -0.1543
37274W        W38138  18.018  12.182  23.422 -0.2148  0.1739 -0.1809
37275W        W38139  20.169   8.442  22.772 -0.0471  0.0407 -0.0789
37276W        W38140  20.295   9.726  27.814 -0.5461  0.2865  0.1300
37277W        W38141  16.233   6.724   1.637  0.1421 -0.0154  0.3329
37278W        W38142  19.806   7.229  24.687 -0.1987  0.0766  0.0618
37279W        W38143  20.683  12.202  26.750  0.0501  0.0946 -0.0934
37280W        W38144  18.202  10.956  22.602  0.0980 -0.0840 -0.0224
37281W        W38145  20.252   6.540  20.782  0.1290 -0.2352  0.3912
37282W        W38146  17.694   7.803  25.985 -0.0642 -0.0746  0.0841
37283W        W38147  19.763  11.515  26.185 -0.0031  0.1119 -0.1849
37284W        W38148  18.327  12.725  27.082 -0.5705  0.2865  0.3090
37285W        W38149  18.684   8.114  28.469  0.2540  0.0733 -0.0279
37286W        W38150  19.443   4.071  25.950  0.3182  0.0098  0.0408
37287W        W38151  20.551   7.357   1.331 -0.0018 -0.2627  0.1020
37288W        W38152  19.655   7.639  26.657 -0.2661 -0.0340 -0.0694
37289W        W38153  20.170   6.764   0.327  0.1182  0.1418 -0.1233
37290W        W38154  20.711   7.759  27.395  0.0129  0.0503  0.0716
37291W        W38155  19.134   9.780   2.169 -0.1165 -0.2720  0.1318
37292W        W38156  21.984   8.319  25.504  0.0279 -0.0251 -0.0668
37293W        W38157  19.368  10.765  27.814  0.2216  0.1418 -0.1929
37294W        W38158  18.822   7.157   2.161 -0.1895 -0.3279 -0.4331
37295W        W38159  21.283   7.333  27.869 -0.0013  0.2102  0.0364
37296W        W38160  23.929   7.843  28.054  0.0840 -0.1601 -0.4665
37297W        W38161  19.629  10.140  28.390  0.1228 -0.2157 -0.0600
37298W        W38162  19.424  11.709   0.007  0.1090  0.2222 -0.2877
37299W        W38163  18.807  12.984  27.115  0.4052  0.1770 -0.0394
37300W        W38164  18.211   8.898  25.758 -0.2285  0.2932  0.0395
37301W        W38165  18.636  11.060   1.067  0.0235  0.0153 -0.1211
37302W        W38166  21.076   8.968   2.088 -0.0340 -0.0042 -0.1251
37303W        W38167  19.459  10.410  26.925 -0.1786 -0.0866 -0.1675
37304W        W38168  20.226   9.507   0.458  0.0780  0.3098  0.0895
37305W        W38169  20.827  10.767  29.119  0.2677 -0.2749 -0.2504
37306W        W38170  19.193   9.892  26.843 -0.2669  0.2468 -0.0031
37307W        W38171  17.781  11.364  29.019 -0.0805  0.1655 -0.2967
37308W        W38172  20.496  12.350   0.229 -0.3872 -0.0554  0.0024
37309W        W38173  18.624   8.499  25.611  0.0570 -0.1748 -0.0708
37310W        W38174  19.048   7.915   1.421  0.2207  0.0612  0.1926
37311W        W38175  21.645   8.866  26.292 -0.2152  0.1869 -0.1552
37312W        W38176  19.152   6.118  28.608  0.2191  0.1889  0.1940
37313W        W38177  20.253  10.254  27.584 -0.0719  0.5655  0.3463
37314W        W38178  20.715   7.936  28.410 -0.1547  0.1145 -0.0073
37315W        W38179  20.744  10.483  26.754 -0.1021  0.1977  0.2384
37316W        W38180  20.369   7.230  25.477  0.0665 -0.0219 -0.0544
37317W        W38181  20.265   8.941  27.001  0.1811  0.0058  0.4201
37318W        W38182  19.737  12.190  27.344 -0.0386 -0.1436  0.1087
37319W        W38183  20.393  10.981  24.638  0.0144  0.0842  0.2827
37320W        W38184  15.475  10.844  26.276 -0.1453 -0.0907 -0.2883
37321W        W38185  18.425  10.329  26.255 -0.1611  0.2455  0.0093
37322W        W38186  19.491   6.034  28.287  0.1180  0.0652 -0.2123
37323W        W38187  20.846   9.568  25.970  0.0214 -0.1272 -0.0015
37324W        W38188  21.544  10.412  26.132  0.1432  0.0789 -0.2030
37325W        W38189  23.840   9.332  27.206  0.0565 -0.0605  0.0248
37326W        W38190  18.983   8.348  23.229 -0.4300  0.2875 -0.0241
37327W        W38191  17.442   5.457  27.411 -0.3474 -0.1972 -0.0315
37328W        W38192  21.996   9.983  27.975 -0.1126 -0.1462  0.2464
37329W        W38193  21.200   9.566  28.760  0.5571  0.0766  0.5404
37330W        W38194  19.458   6.596  24.916 -0.2472  0.2991 -0.0535
37331W        W38195  16.617  13.182  25.117 -0.2286 -0.0875  0.2751
37332W        W38196  17.341   6.460  26.775 -0.0450 -0.0309 -0.0354
37333W        W38197  20.998   9.473  26.867 -0.1784 -0.1018  0.2316
37334W        W38198  19.218  11.301  27.817  0.3782  0.1006 -0.1144
37335W        W38199  20.635  11.259  26.159  0.0968  0.1544  0.2679
37336W        W38200  23.983   8.268  23.780 -0.1280  0.3094 -0.1201
37337W        W38201  18.507  10.269   0.297 -0.1188 -0.1478 -0.2830
37338W        W38202  19.035   8.927  25.358  0.0230  0.0378 -0.0082
37339W        W38203  19.225  12.109  28.971  0.0417  0.0778  0.0762
37340W        W38204  21.077  10.287  27.028 -0.1072 -0.0104  0.1194
37341W        W38205  20.220   6.867  27.189 -0.0583 -0.1705 -0.2596
37342W        W38206  18.752   8.508  24.191 -0.0323 -0.1344 -0.0800
37343W        W38207  18.618  10.134  21.102 -0.2356  0.1358 -0.1616
37344W        W38208  19.478   7.615  24.407 -0.2367 -0.1940 -0.0935
37345W        W38209  20.182   8.940  25.752 -0.3669  0.2600  0.2599
37346W        W38210  19.668  10.952  22.698  0.1535 -0.0262  0.0795
37347W        W38211  19.167   7.140  26.391 -0.0607  0.1697 -0.1332
37348W        W38212  19.833  14.593  25.230 -0.0066 -0.2254 -0.1866
37349W        W38213  21.176   8.991  28.742 -0.0775  0.3623 -0.0032
37350W        W38214  19.903   9.607  26.291  0.0213 -0.3917 -0.1798
37351W        W38215  19.492   9.368  26.643 -0.1749 -0.0008  0.2712
37352W        W38216  19.312   6.489  27.473  0.1035 -0.0442  0.0443
37353W        W38217  20.940   6.121  27.202  0.0963  0.2798 -0.0761
37354W        W38218  19.371   7.066  29.034 -0.0943  0.0651 -0.1674
37355W        W38219  19.970   8.112   1.768  0.0058  0.0631  0.0928
37356W        W38220  18.709   8.509  25.060  0.0463 -0.2460 -0.0883
37357W        W38221  18.912   6.858   0.047 -0.1794  0.0285 -0.1139
37358W        W38222  20.032   5.399  26.039 -0.2504  0.1611  0.1350
37359W        W38223  20.131   9.254  28.777 -0.0046 -0.1098  0.0275
37360W        W38224  20.823   8.425   0.654 -0.0334 -0.2178  0.1506
37361W        W38225  21.073   4.945  25.634  0.0150 -0.0283 -0.0679
37362W        W38226  23.591  12.065   0.037 -0.4046 -0.3920  0.0401
37363W        W38227  21.480   7.701  28.160  0.0368  0.1803  0.0074
37364W        W38228  20.709  11.363  28.916 -0.3363 -0.0067 -0.0947
37365W        W38229  19.988   7.302  26.816 -0.1391 -0.5567 -0.2011
37366W        W38230  19.281   5.325  27.117  0.1170 -0.1067  0.1372
37367W        W38231  20.433   8.846   1.264 -0.1795  0.0117 -0.0206
37368W        W38232  15.987  10.429   1.570 -0.3042  0.2547  0.1940
37369W        W38233  17.507   8.713  24.202 -0.2721  0.0763  0.0308
37370W        W38234  20.489   7.683  26.899 -0.1598  0.2177  0.0401
37371W        W38235  21.197   5.371  26.451 -0.2133 -0.0927  0.1356
37372W        W38236  21.549   8.710  27.572  0.1948  0.1845 -0.0529
37373W        W38237  19.194  10.610   0.607  0.2453 -0.2244 -0.0118
37374W        W38238  19.459   7.901  25.283 -0.1318  0.1223 -0.0103
37375W        W38239  21.437   7.286  28.369  0.2861 -0.0935  0.0956
37376W        W38240  23.236   9.582  24.763  0.1100 -0.1101  0.2480
37377W        W38241  17.017   8.431  27.012 -0.1618  0.0038  0.3080
37378W        W38242  20.186   6.873  25.781 -0.4359  0.1109 -0.1347
37379W        W38243  21.085  11.301  26.390  0.1308 -0.1133 -0.0669
37380W        W38244  21.781   7.211  26.422 -0.0519 -0.0703  0.0791
37381W        W38245  19.380   8.544  25.516  0.2031 -0.0104 -0.0906
37382W        W38246  19.264  10.444  25.172 -0.2895 -0.2159 -0.2879
37383W        W38247  19.899   8.643  28.316 -0.0287  0.0676  0.0026
37384W        W38248  22.092   5.101  28.282  0.0559 -0.0718 -0.2203
37385W        W38249  20.142   5.254  26.595 -0.3615  0.4403 -0.0100
37386W        W38250  20.579  10.470  27.924  0.2653 -0.0394  0.4012
37387W        W38251  19.934   9.386  24.951  0.0614  0.3999  0.1141
37388W        W38252  21.273   5.391  26.995  0.0774  0.0193  0.0204
37389W        W38253  19.138   9.678  24.770 -0.5508 -0.1527  0.0545
37390W        W38254  21.900  11.120  24.645 -0.3064  0.1138  0.1649
37391W        W38255  19.737   9.160  23.191 -0.1495 -0.0898  0.2932
37392W        W38256  21.587   5.065  27.844 -0.0361  0.0249 -0.0152
37393W        W38257  17.608  10.935  25.972 -0.3629 -0.0700  0.2171
37394W        W38258  20.992   8.683  26.289 -0.0910  0.2121  0.0349
37395W        W38259  18.516   9.019  24.513 -0.3571 -0.1786 -0.2304
37396W        W38260  19.756   9.017  26.226  0.0995 -0.5102 -0.2608
37397W        W38261  20.696   9.931  26.745 -0.1636 -0.0202 -0.0438
37398W        W38262  20.991   7.847  27.994  0.0851  0.0269 -0.3830
37399W        W38263  18.302   9.363  23.974  0.1078 -0.2538  0.2828
37400W        W38264  22.525  10.439  27.261  0.1513  0.1970 -0.1826
37401W        W38265  20.150   7.554  27.186  0.0699  0.1649  0.0725
37402W        W38266  20.312   9.430  25.962  0.0393  0.1265 -0.1909
37403W        W38267  20.391  10.632  28.880  0.1353  0.1814  0.1034
37404W        W38268  22.388   8.882  28.977 -0.0257 -0.1050  0.0444
37405W        W38269  18.320  10.465  25.416 -0.0274 -0.1683 -0.2120
37406W        W38270  18.619   9.600  24.953 -0.2150 -0.0786 -0.2093
37407W        W38271  19.340   9.147  24.854  0.2947  0.3367 -0.1309
37408W        W38272  21.814  11.459   2.301  0.0644 -0.0427 -0.4084
37409W        W38273  20.147   4.603  25.770  0.1734 -0.0516  0.1105
37410W        W38274  20.310   8.413  27.829  0.1835 -0.1637 -0.1091
37411W        W38275  18.642   5.122  27.318 -0.0692  0.0309  0.0774
37412W        W38276  22.516   7.979  28.114 -0.4395  0.3338 -0.0929
37413W        W38277  21.804   7.411  27.877  0.0889 -0.0719  0.0392
37414W        W38278  17.077  11.831  26.386 -0.0971 -0.3407 -0.0759
37415W        W38279  17.594  10.530  25.157 -0.1134 -0.2018  0.0517
37416W        W38280  18.781   5.169  26.297 -0.1281  0.2889  0.1321
37417W        W38281  22.125   4.570  28.631 -0.2155  0.1881 -0.0392
37418W        W38282  17.207  11.406  25.581  0.4632 -0.0540 -0.0453
37419W        W38283  18.013   7.163  27.757 -0.0282 -0.1319 -0.0780
37420W        W38284  17.668   9.712  25.113  0.2299  0.3130  0.3837
37421W        W38285  18.695   7.398  26.515 -0.1120  0.1542  0.0786
37422W        W38286  21.951   7.607  24.143  0.1250  0.0813 -0.0902
37423W        W38287  22.339  10.857  25.954  0.1673  0.0311  0.1679
37424W        W38288  19.480  12.961   0.426  0.4899  0.0807  0.0539
37425W        W38289  19.199  11.612  28.356 -0.0852  0.1705  0.1852
37426W        W38290  21.348  10.243  26.572 -0.0427 -0.2173 -0.0938
37427W        W38291  19.629   9.395  24.485  0.0677  0.0230  0.3048
37428W        W38292  19.848  11.584   0.930  0.0734  0.0330  0.0533
37429W        W38293  16.412   8.515  22.749  0.2457 -0.0891 -0.1657
37430W        W38294  18.760   7.581  27.819  0.1232 -0.1529 -0.2815
37431W        W38295  22.586   5.264  26.801 -0.1567  0.0974 -0.2181
37432W        W38296  20.661  13.115  29.025  0.1962  0.2101  0.0202
37433W        W38297  22.017  10.723  27.133 -0.0040  0.0102 -0.0654
37434W        W38298  18.395   4.853  26.098  0.0021  0.1435  0.1191
37435W        W38299  19.484   7.245  26.870 -0.0835 -0.0582 -0.4242
37436W        W38300  19.333   9.325  27.839  0.1204 -0.0537 -0.1001
37437W        W38301  19.755   8.603  24.116  0.3509 -0.1920  0.0099
37438W        W38302  19.401  10.234  26.476 -0.3544  0.2690 -0.0244
37439W        W38303  21.256   9.213  26.100  0.1929 -0.3200 -0.2023
37440W        W38304  20.229   7.980   2.205 -0.1229 -0.2390  0.1160
37441W        W38305  18.852   9.170  27.427  0.1320 -0.0374 -0.1674
37442W        W38306  19.646   5.491  24.724 -0.1496 -0.2017  0.4367
37443W        W38307  17.643  10.591  26.634  0.0818  0.0614  0.1701
37444W        W38308  20.281   9.061  25.060 -0.0202  0.0863 -0.0298
37445W        W38309  16.794  11.661  25.532  0.1064  0.0708 -0.2754
37446W        W38310  20.082   8.581  27.387 -0.0999  0.0754  0.3169
37447W        W38311  18.844   9.072  24.901 -0.0524 -0.2049  0.1229
37448W        W38312  17.532  10.109  24.848 -0.1984 -0.1199  0.1532
37449W        W38313  20.977   8.624  26.836 -0.2583 -0.1958  0.0960
37450W        W38314  19.658   9.209  25.346  0.2511  0.3239 -0.1361
37451W        W38315  22.080   6.804  28.784 -0.0044  0.0766  0.0422
37452W        W38316  17.833  11.254   0.767  0.1707  0.0622 -0.1338
37453W        W38317  19.578   8.914  28.060 -0.2943 -0.0179 -0.0844
37454W        W38318  18.786  12.561  26.873 -0.0103 -0.1305 -0.1684
37455W        W38319  19.373   6.932  28.256  0.1580  0.0467  0.2071
37456W        W38320  20.198   9.392  25.433  0.1081 -0.0063  0.3427
37457W        W38321  21.298   9.436  25.069  0.2327 -0.0993  0.2721
37458W        W38322  22.506   8.386  27.264  0.0171  0.0400 -0.0281
37459W        W38323  18.418   7.065  25.997  0.2209  0.1952  0.0536
37460W        W38324  18.584   6.983  25.001 -0.0917  0.1387 -0.0028
37461W        W38325  21.434   9.368   0.536 -0.1281 -0.0199 -0.3178
37462W        W38326  21.127   6.637  26.394  0.2998 -0.0273  0.0268
37463W        W38327  18.773   9.394  22.976  0.2928 -0.1298  0.0601
37464W        W38328  18.387  10.767  28.089 -0.0975  0.0709  0.0114
37465W        W38329  18.827   9.424  24.450 -0.2841  0.0086 -0.3833
37466W        W38330  20.200   8.790  23.222  0.1450 -0.1171  0.2302
37467W        W38331  17.121   9.798  26.207  0.0388 -0.1135  0.4476
37468W        W38332  19.109  10.148  27.376  0.1585 -0.0392  0.0365
37469W        W38333  18.565   6.427  27.754  0.1874 -0.1292 -0.2555
37470W        W38334  19.531   3.793  26.955  0.0867  0.1199  0.4990
37471W        W38335  17.649   4.303  23.025  0.2985  0.0236  0.1066
37472W        W38336  21.703  10.481  27.575 -0.2145 -0.0071 -0.2420
37473W        W38337  20.302   8.154  24.685 -0.1863 -0.1806  0.3596
37474W        W38338  18.393   8.440  28.086 -0.1338  0.1218 -0.0872
37475W        W38339  21.342   8.002  26.636  0.1886 -0.2269 -0.1837
37476W        W38340  18.657   7.300  25.389  0.0500  0.1011  0.3721
37477W        W38341  20.245   4.534  27.977  0.1515  0.2395  0.0258
37478W        W38342  21.385   8.327  26.240  0.1286 -0.0104  0.0584
37479W        W38343  18.409   6.866  28.102 -0.2674  0.1626  0.0190
37480W        W38344  21.240   8.276  27.769 -0.2376  0.0457  0.0109
37481W        W38345  20.253   7.672  25.714  0.0352  0.0245 -0.0843
37482W        W38346  19.494   7.643  25.871  0.0933 -0.0183  0.4146
37483W        W38347  20.467  10.435  28.401  0.0351 -0.0427 -0.0031
37484W        W38348  19.597  10.038  23.301 -0.2798 -0.1778 -0.2009
37485W        W38349  18.895  10.882  23.888  0.0428 -0.1075  0.1249
37486W        W38350  21.789   7.116  26.982  0.0680 -0.0183  0.1735
37487W        W38351  17.413   8.490  28.149  0.3268  0.0318 -0.0260
37488W        W38352  18.319   9.765  28.103  0.0416 -0.3481  0.1347
37489W        W38353  20.901   5.139  26.791  0.2187  0.1530 -0.0567
37490W        W38354  22.208   8.435  28.120 -0.1123  0.1054  0.0884
37491W        W38355  20.611   7.473  24.537 -0.0562 -0.0953  0.1856
37492W        W38356  21.179   8.720  28.271  0.0104 -0.0271  0.2481
37493W        W38357  21.295  12.481  23.604 -0.1496 -0.2271  0.0695
37494W        W38358  21.885  10.862  25.848 -0.1758 -0.0982 -0.2195
37495W        W38359  18.017   9.588   1.344  0.1088 -0.1075 -0.2392
37496W        W38360  20.824   8.057   1.043 -0.1141 -0.1253  0.0362
37497W        W38361  21.884   7.292  29.066  0.2257  0.2001 -0.0978
37498W        W38362  18.874  11.002  27.510  0.0206  0.1363 -0.1142
37499W        W38363  22.557   7.394  22.251  0.0269 -0.0937 -0.0618
37500W        W38364  20.745  10.221  24.890  0.0153 -0.0408  0.2020
37501W        W38365  20.218   7.631  29.019  0.0223  0.0630  0.2837
37502W        W38366  19.203   9.805   0.792  0.0667  0.1404  0.3113
37503W        W38367  20.727   5.381  28.148  0.0185 -0.3227  0.0189
37504W        W38368  21.587   9.568  26.164  0.1024 -0.0564  0.2857
37505W        W38369  22.453   6.742  27.948  0.0519  0.0936 -0.1362
37506W        W38370  19.497   8.179  28.562 -0.2143 -0.4857  0.1718
37507W        W38371  21.359   7.782  27.653  0.1278  0.1532 -0.2238
37508W        W38372  19.447  10.573  24.596 -0.0728 -0.2048 -0.2002
37509W        W38373  22.457   8.882  28.198 -0.0097  0.1277  0.0074
37510W        W38374  18.955   6.197   0.408 -0.0705  0.2541  0.1011
37511W        W38375  19.551  10.907  26.089  0.1089 -0.0226  0.2581
37512W        W38376  19.264   8.842  26.282 -0.2350 -0.1783 -0.0121
37513W        W38377  20.748   7.468  28.748 -0.1095  0.0075 -0.2389
37514W        W38378  19.461  12.278  25.770  0.1183 -0.1388  0.4664
37515W        W38379  20.279  12.480  26.232 -0.1145  0.0666 -0.2306
37516W        W38380  20.601  10.931  25.754 -0.3156  0.1961 -0.0896
37517W        W38381  18.008   9.430  28.409  0.1714  0.0288  0.1546
37518W        W38382  20.160   8.113   0.035  0.0327  0.0839 -0.0478
37519W        W38383  19.401   5.724  28.771  0.0236 -0.0163 -0.1366
37520W        W38384  20.937   7.099  26.718  0.1724  0.0839 -0.0771
37521W        W38385  17.390  10.932  26.473 -0.0791  0.0841 -0.0202
37522W        W38386  19.859   6.213  26.177 -0.2359 -0.0653 -0.1026
37523W        W38387  19.460   9.594   0.118  0.4150  0.0065 -0.1247
37524W        W38388  22.426  10.275  26.423 -0.0590  0.2338 -0.3031
37525W        W38389  18.896   7.009  24.114 -0.2599 -0.1393 -0.0747
37526W        W38390  22.126   9.601  27.426 -0.1506  0.2262  0.1393
37527W        W38391  21.885   8.924  28.948  0.2422  0.0854 -0.1863
37528W        W38392  19.893  10.387  24.743  0.3247  0.0485 -0.0269
37529W        W38393  18.182   7.768   0.066  0.3327  0.1812 -0.1015
37530W        W38394  17.842  11.450  24.047  0.3765 -0.1834  0.0296
37531W        W38395  22.191   7.871  26.878  0.1544  0.1724 -0.0381
37532W        W38396  19.985   8.448  26.896  0.0526  0.0996 -0.1466
37533W        W38397  19.477   8.044  26.808 -0.2255  0.1397 -0.0368
37534W        W38398  19.048   9.627  27.529 -0.1821  0.0489  0.2208
37535W        W38399  21.808   8.658  27.154  0.8644 -0.1322  0.1409
37536W        W38400  19.303   9.945  25.345 -0.0697 -0.2103  0.3265
37537W        W38401  18.329   7.487  27.576 -0.1281  0.2594 -0.0095
37538W        W38402  23.007  10.531  27.517  0.3414  0.2958  0.0217
37539W        W38403  20.206   9.816  26.606 -0.0104 -0.1297 -0.0261
37540W        W38404  17.962  10.189  26.677 -0.1161  0.0274  0.3560
37541W        W38405  22.683  10.663  27.984  0.0875  0.2743 -0.2509
37542W        W38406  17.438  11.819  25.407 -0.3516 -0.0746  0.0197
37543W        W38407  20.005  12.129  24.225 -0.0382 -0.2435  0.0470
37544W        W38408  19.175   8.634   0.859  0.0909 -0.2039  0.3701
37545W        W38409  23.845   8.571  25.644  0.1001  0.1424  0.1298
37546W        W38410  20.814   8.697  25.791 -0.2717  0.1020  0.2309
37547W        W38411  21.191   9.858  27.382  0.0334 -0.0211  0.1510
37548W        W38412  19.130  10.658  27.230  0.0392 -0.0220  0.2328
37549W        W38413  19.736   9.336   1.020 -0.0193  0.1303 -0.1538
37550W        W38414  20.219   9.805  27.262 -0.6740  0.0149  0.1134
37551W        W38415  19.676   6.965  28.653  0.3616  0.0667  0.2736
37552W        W38416  18.195   9.329  27.841  0.3282 -0.1324  0.0951
37553W        W38417  18.658   8.813  28.367 -0.1772 -0.3502 -0.0258
37554W        W38418  21.716   9.907  26.656  0.0559 -0.2509  0.1028
37555W        W38419  20.368  11.382  28.319  0.0663 -0.0553 -0.1911
37556W        W38420  17.619   8.202  25.651  0.2257 -0.2575  0.0286
37557W        W38421  20.135   6.331  25.604 -0.1184  0.0344  0.2867
37558W        W38422  17.790   7.834  26.871  0.1069  0.0403  0.1156
37559W        W38423  18.640  10.787  28.530  0.0966  0.1619  0.0004
37560W        W38424  20.863  10.316  26.303  0.0647  0.0431 -0.1761
37561W        W38425  20.472   8.798  28.131 -0.1316 -0.4579  0.2524
37562W        W38426  19.166  10.449  26.082  0.2079  0.0760  0.2488
37563W        W38427  20.841  10.029  25.664 -0.2417  0.3236 -0.0175
37564W        W38428  19.566   6.026  25.187 -0.0145 -0.1021 -0.0577
37565W        W38429  20.217   8.768  23.951  0.1729 -0.1637  0.2716
37566W        W38430  18.382  10.337  24.427 -0.2583  0.2335 -0.2227
37567W        W38431  20.965   8.774  23.856  0.1225  0.0264 -0.0391
37568W        W38432  23.459   5.278  27.113  0.0008 -0.2035 -0.1667
37569W        W38433  19.299   8.784  28.484 -0.2406  0.0209 -0.1660
37570W        W38434  18.974   9.867  24.267  0.1307  0.3084  0.1944
37571W        W38435  22.177   7.635  28.813 -0.0558  0.3987 -0.0189
37572W        W38436  20.715   6.873  27.154  0.2796 -0.3505 -0.0563
37573W        W38437  21.237   7.934  25.574  0.0157  0.2642 -0.1174
37574W        W38438  23.421   6.894  27.267 -0.0243  0.0145  0.0650
37575W        W38439  15.587  11.302   1.123 -0.1138  0.0390  0.1125
37576W        W38440  18.815  13.146  24.465  0.0073 -0.2522 -0.1564
37577W        W38441  19.490   8.518  26.669 -0.0953  0.0504  0.0246
37578W        W38442  19.791   8.946  28.772  0.0477 -0.2119 -0.0738
37579W        W38443  22.107   8.704   0.377 -0.1595  0.2614  0.0484
37580W        W38444  18.044   7.943  27.305 -0.0584  0.0245  0.1889
37581W        W38445  16.806  11.337  27.286 -0.0842  0.0522  0.2743
37582W        W38446  19.861   9.474  28.036 -0.0903 -0.0648  0.0928
37583W        W38447  20.223   7.017  24.484  0.3872 -0.2366  0.0930
37584W        W38448  21.720   7.740  27.147 -0.0249  0.0318 -0.0190
37585W        W38449  19.387   9.938  27.716  0.0048  0.0006  0.0119
37586W        W38450  17.174   5.343  27.945  0.1290  0.1957 -0.2527
37587W        W38451  18.286   9.605   1.780 -0.2508 -0.4469 -0.0696
37588W        W38452  19.663  10.725  25.665  0.1756 -0.0872  0.0737
37589W        W38453  20.524   8.531  26.194 -0.1820 -0.3224 -0.1418
37590W        W38454  19.226   9.877  28.663 -0.1113  0.1837 -0.0726
37591W        W38455  18.471  14.535   1.156  0.0281  0.0805  0.1955
37592W        W38456  18.591   7.549  24.891  0.2014  0.0471 -0.1720
37593W        W38457  20.907   7.282  24.912 -0.2568 -0.1825  0.0442
37594W        W38458  20.392   9.233  27.953  0.1324 -0.1261 -0.1350
37595W        W38459  16.566  12.979  27.491  0.0178 -0.0082  0.3326
37596W        W38460  18.796   9.809  28.291 -0.0145 -0.1602  0.0564
37597W        W38461  20.117  12.466  25.653 -0.1231  0.3203 -0.3185
37598W        W38462  18.057   9.651  27.420 -0.0955 -0.3304  0.1735
37599W        W38463  21.142  11.117  28.650 -0.1389 -0.2251 -0.1746
37600W        W38464  19.144   8.863  26.787 -0.3461 -0.4925 -0.1652
37601W        W38465  18.666  12.179  26.404 -0.0887  0.0536 -0.1640
37602W        W38466  18.185   8.088  26.117 -0.0196  0.2492 -0.0359
37603W        W38467  19.900  10.632  26.454 -0.0968 -0.0479  0.1726
37604W        W38468  19.131  12.110  28.394  0.1462 -0.0392 -0.0204
37605W        W38469  19.307   9.094  27.294  0.1401  0.0455  0.2495
37606W        W38470  17.585   5.648  28.085  0.0631 -0.1225 -0.0623
37607W        W38471  21.482   7.149  23.392 -0.3202 -0.0722  0.0632
37608W        W38472  23.195   8.478  28.096 -0.1123  0.2162  0.3490
37609W        W38473  17.051  12.648  27.025  0.0201 -0.0617  0.0994
37610W        W38474  24.920   9.823  27.663 -0.0963  0.0057 -0.0081
37611W        W38475  20.532  11.015  28.612  0.2785 -0.3718  0.1333
37612W        W38476  18.197  12.164  25.473 -0.0706  0.0793 -0.0243
37613W        W38477  17.969   8.984  24.129 -0.3444  0.1861 -0.2273
37614W        W38478  19.624   8.088  24.261 -0.1001  0.0876  0.0551
37615W        W38479  19.739   6.667  25.356  0.1508  0.0380 -0.0945
37616W        W38480  19.026   8.676  27.292 -0.1355  0.1680  0.1110
37617W        W38481  19.872   8.246  26.475 -0.1408  0.1374  0.1811
37618W        W38482  19.120   7.121  25.535 -0.0206 -0.3390 -0.0100
37619W        W38483  18.080  11.190  24.354 -0.0939 -0.1474 -0.2132
37620W        W38484  18.024   6.986  28.366  0.1076  0.1733 -0.2593
37621W        W38485  20.301  13.502   0.132  0.4714 -0.1452  0.0887
37622W        W38486  20.612  10.788  26.378  0.3064  0.2004  0.0478
37623W        W38487  19.172   7.408  27.216  0.2759  0.0401  0.0299
37624W        W38488  20.072  11.129  27.553  0.0710  0.1086 -0.1003
37625W        W38489  18.859   4.586  27.499 -0.0653  0.2320 -0.1437
37626W        W38490  23.149   6.257  28.662 -0.2912 -0.0838  0.2209
37627W        W38491  20.352   6.528  26.147 -0.0464 -0.0896  0.1088
37628W        W38492  22.181  11.574  27.810 -0.1491  0.1216 -0.2560
37629W        W38493  20.523  12.230  28.682  0.1647  0.0438 -0.0720
37630W        W38494  19.534   9.598  25.057  0.3438  0.2655  0.2172
37631W        W38495  19.811   9.766  25.501 -0.1025  0.1179  0.3298
37632W        W38496  18.457  10.557  29.009 -0.0435 -0.0660 -0.2689
37633W        W38497  21.399  10.670  28.957  0.2783  0.0203 -0.2386
37634W        W38498  17.952   7.653  27.788  0.1902  0.0234  0.1235
37635W        W38499  17.873   9.712  27.904 -0.1656 -0.1583 -0.2929
37636W        W38500  19.530   8.616  27.182  0.0305  0.0849 -0.2091
37637W        W38501  21.822  10.014  26.175 -0.0058  0.0618  0.1346
37638W        W38502  16.863   9.975  27.147  0.0951 -0.1126 -0.0218
37639W        W38503  19.684   7.317  27.922 -0.0505  0.3089  0.1258
37640W        W38504  20.554  12.167  25.373  0.0438  0.2849  0.1653
37641W        W38505  19.906   9.475  27.009  0.1601  0.2861  0.1144
37642W        W38506  18.451  11.415  25.350  0.2835  0.1534 -0.0991
37643W        W38507  20.633   8.506  27.207 -0.2202 -0.1172 -0.1694
37644W        W38508  20.680   8.867  24.801  0.0863  0.2629 -0.0781
37645W        W38509  21.024   7.456  27.238 -0.1088  0.1729  0.2526
37646W        W38510  18.384   8.568  24.617 -0.1580  0.2329  0.0344
37647W        W38511  22.369   9.209  26.639 -0.4272 -0.3584  0.0933
37648W        W38512  19.293  10.047  21.778 -0.0220  0.0424 -0.1714
37649W        W38513  22.379  11.092  28.495  0.2906 -0.0715 -0.0021
37650W        W38514  19.580  13.365  24.772 -0.0760 -0.0257  0.1817
37651W        W38515  20.307   7.515  26.482 -0.1711 -0.0775  0.2367
37652W        W38516  20.185   9.284  26.598 -0.0435 -0.2551  0.3819
37653W        W38517  20.706  12.060  24.250 -0.0916  0.1684  0.1827
37654W        W38518  20.500   8.008  27.973  0.1978  0.4964 -0.0821
37655W        W38519  19.890  10.107  26.280  0.0057 -0.0162 -0.1166
37656W        W38520  20.459   8.046  26.531  0.0765 -0.3945  0.2439
37657W        W38521  17.589  11.193  28.255  0.3138  0.1293 -0.4232
37658W        W38522  19.297  10.797  26.489 -0.0948  0.0239 -0.0067
37659W        W38523  24.312   8.199  28.091  0.1249  0.2115  0.2360
37660W        W38524  21.086  11.584  25.057 -0.0503 -0.1193 -0.0422
37661W        W38525  21.164  10.416   0.314  0.0592  0.1970 -0.2222
37662W        W38526  20.796  11.397  28.164  0.0151  0.1156  0.0337
37663W        W38527  16.967  12.372   1.004  0.0683 -0.0099 -0.0349
37664W        W38528  16.899  11.711  26.836 -0.0231  0.1978  0.1512
37665W        W38529  21.654   9.354  28.693  0.1272 -0.1620  0.3892
37666W        W38530  20.356  10.917   0.712 -0.2313 -0.4132 -0.0330
37667W        W38531  19.859   9.510  27.472 -0.0968  0.0164  0.1062
37668W        W38532  21.418   9.638   0.059  0.0190  0.0361 -0.0754
37669W        W38533  19.924  10.300  25.810 -0.1978 -0.0517  0.0721
37670W        W38534  18.832  10.360  26.907  0.0710  0.0947  0.0764
37671W        W38535  20.216   8.760  28.659  0.0207 -0.0069 -0.2651
37672W        W38536  22.048   8.460  29.033  0.2385  0.1021  0.2311
37673W        W38537  17.336  11.445  26.747  0.0751 -0.2559 -0.1157
37674W        W38538  19.913  11.611  25.712  0.0693  0.0855  0.2553
37675W        W38539  18.004  10.141  24.655  0.0124 -0.0486 -0.2636
37676W        W38540  19.251  13.924   4.947 -0.0089  0.1657  0.1365
37677W        W38541  18.067  11.799   2.189  0.3229 -0.0645  0.0098
37678W        W38542  22.942  11.015   1.362 -0.1455 -0.1962  0.1812
37679W        W38543  21.394  13.283   1.053  0.1631  0.2789  0.0609
37680W        W38544  17.185  12.878  28.857 -0.2632  0.0845 -0.1511
37681W        W38545  18.972  11.631   1.626 -0.0670 -0.0626  0.0231
37682W        W38546  18.381  11.993   3.330 -0.1581 -0.1268  0.2452
37683W        W38547  21.435  12.597  27.517  0.0450  0.1632  0.0276
37684W        W38548  20.328  14.420   1.724  0.0844 -0.0589 -0.0662
37685W        W38549  15.922   7.634   4.975  0.1446 -0.0896 -0.0317
37686W        W38550  17.893   9.755   2.096 -0.1483 -0.2238  0.2161
37687W        W38551  18.942  11.589   3.136  0.0520  0.0754 -0.0803
37688W        W38552  20.092  10.034  28.508 -0.0930  0.0141  0.0045
37689W        W38553  21.098  10.895   6.072 -0.3636 -0.0743 -0.2623
37690W        W38554  16.771  12.353   4.053  0.4275 -0.1853  0.1004
37691W        W38555  19.468  15.182   1.870 -0.0353  0.0000  0.0955
37692W        W38556  18.837  13.588   0.429 -0.1658  0.0163  0.1324
37693W        W38557  19.633   8.147   2.122 -0.3137 -0.1746 -0.4894
37694W        W38558  19.342  11.326   3.069 -0.3343 -0.0748 -0.2259
37695W        W38559  22.530   8.965   4.036 -0.0192 -0.0731  0.0600
37696W        W38560  19.920  10.709   2.704  0.2507 -0.1480  0.2550
37697W        W38561  18.671  13.213   1.929 -0.1974 -0.3403 -0.0521
37698W        W38562  23.410  12.243   3.350 -0.1155  0.2636 -0.1412
37699W        W38563  17.383  11.938   2.723  0.2370  0.3198  0.2436
37700W        W38564  18.417  10.778   4.265  0.1066 -0.2203 -0.0319
37701W        W38565  19.024  11.485  28.866 -0.0515 -0.3144  0.0119
37702W        W38566  18.335  13.253   3.730  0.0860  0.0403 -0.0690
37703W        W38567  20.131  12.246   0.562  0.0642  0.0106 -0.2323
37704W        W38568  21.392  14.178  28.307 -0.2517  0.0224 -0.1756
37705W        W38569  21.825  13.719   0.898 -0.1843 -0.1592 -0.0357
37706W        W38570  20.505  13.470   0.870 -0.0325  0.0804  0.0257
37707W        W38571  17.713  10.639   3.670  0.0157 -0.0475  0.1481
37708W        W38572  19.475  14.106   2.553  0.1554 -0.1275 -0.1604
37709W        W38573  21.613  12.481   3.700 -0.2375 -0.0992 -0.3041
37710W        W38574  15.381  12.287   1.926  0.1190 -0.0839  0.0589
37711W        W38575  19.834  11.528   3.183 -0.2048  0.0104 -0.0836
37712W        W38576  19.216  11.992   2.284  0.1075 -0.1404  0.2836
37713W        W38577  18.363  13.644   2.062 -0.3045  0.1358 -0.1869
37714W        W38578  20.928  13.610  29.110  0.3830 -0.0253 -0.3427
37715W        W38579  23.584   9.958   0.425 -0.1161 -0.0849  0.1119
37716W        W38580  20.757  12.060  29.051 -0.1431  0.0772 -0.0488
37717W        W38581  24.748  11.881   2.101  0.0239 -0.1901 -0.0751
37718W        W38582  19.500  14.442   1.002 -0.0439 -0.3355 -0.0076
37719W        W38583  24.028  12.075  27.702 -0.0109 -0.0580  0.0280
37720W        W38584  17.342  16.586  28.507  0.0261 -0.0972  0.2976
37721W        W38585  21.535  15.559   0.459 -0.0672  0.2762  0.0487
37722W        W38586  19.087  10.741   1.673 -0.0679 -0.0694 -0.2827
37723W        W38587  21.116  11.355   2.478 -0.1498  0.0548  0.2885
37724W        W38588  20.334  11.780   0.539 -0.1517 -0.0580 -0.0116
37725W        W38589  20.028  12.099  28.567 -0.2972  0.0999  0.1554
37726W        W38590  19.493  13.278   3.159 -0.0387  0.0055 -0.1527
37727W        W38591  21.041   8.316  28.715 -0.0076 -0.0747  0.1706
37728W        W38592  19.582  16.314   5.111 -0.2993  0.3530 -0.0573
37729W        W38593  21.669  10.936   1.333 -0.0548 -0.0061  0.1544
37730W        W38594  21.872  11.615   1.866 -0.2398 -0.0864  0.1352
37731W        W38595  17.354  13.458   0.473  0.0436  0.2549  0.0123
37732W        W38596  15.382  13.030   2.886  0.1226 -0.2438 -0.0471
37733W        W38597  20.010   9.821   2.444 -0.3728 -0.0942 -0.1973
37734W        W38598  18.125  13.033  29.067  0.2690 -0.1121 -0.0609
37735W        W38599  20.797  12.607  28.073  0.1527  0.1509 -0.2409
37736W        W38600  19.295  12.699  25.981  0.3086 -0.1184 -0.0036
37737W        W38601  18.587  10.855   3.326 -0.2041 -0.0383 -0.2133
37738W        W38602  20.851  13.955   3.303 -0.1643  0.0127 -0.0699
37739W        W38603  17.410  11.923  27.884  0.1402 -0.0766 -0.2456
37740W        W38604  20.001  13.567   0.991 -0.2216  0.2772 -0.3799
37741W        W38605  23.152  10.764   2.330  0.2638  0.0414 -0.0236
37742W        W38606  17.290  11.392   1.613  0.1727 -0.1720  0.0871
37743W        W38607  17.441  13.700  28.338 -0.2249  0.1040  0.0130
37744W        W38608  18.345  11.456   0.937 -0.0236 -0.1218  0.2707
37745W        W38609  19.983  12.760   0.544 -0.2103 -0.2385  0.0733
37746W        W38610  20.904  13.105   4.988 -0.4073 -0.0864  0.1401
37747W        W38611  18.379  10.808  25.004 -0.0836  0.1758 -0.0771
37748W        W38612  21.177  14.039   1.555 -0.0420 -0.3593  0.2518
37749W        W38613  20.763  13.516   3.042 -0.2448 -0.1950  0.0193
37750W        W38614  22.624  12.870   1.595  0.0886 -0.2478 -0.0502
37751W        W38615  19.242  13.335   4.534  0.0747 -0.1128  0.0342
37752W        W38616  17.912   9.303   2.492 -0.0606 -0.5345  0.0299
37753W        W38617  20.801  10.969   2.512  0.1910  0.2194 -0.0704
37754W        W38618  21.976   9.456  29.045  0.0842 -0.5621 -0.1306
37755W        W38619  20.031  13.431  28.128 -0.1142  0.1518  0.0779
37756W        W38620  18.372  10.676   2.869 -0.2410  0.0162  0.1540
37757W        W38621  19.745  13.396   2.699  0.0986 -0.1923 -0.0669
37758W        W38622  16.889  10.738   2.207  0.1487 -0.1046  0.3068
37759W        W38623  20.027   9.997   3.150 -0.1007 -0.4474 -0.1714
37760W        W38624  22.275  11.673   2.289 -0.1537 -0.0837  0.2438
37761W        W38625  21.062  12.243   0.230  0.1438 -0.4122  0.0458
37762W        W38626  19.514  12.764   4.789 -0.1650 -0.1029  0.1073
37763W        W38627  21.084   9.581   6.306 -0.3001  0.0694 -0.0988
37764W        W38628  21.657  12.289   2.528  0.2545 -0.3312 -0.0009
37765W        W38629  17.969  10.059   4.043  0.1151  0.0108 -0.1855
37766W        W38630  19.835  14.052   0.396  0.0880  0.2040 -0.0559
37767W        W38631  20.394  13.514   6.346 -0.0473  0.3889 -0.1637
37768W        W38632  17.415  11.018   3.855  0.1340 -0.1048 -0.0687
37769W        W38633  18.679  11.255  27.101  0.4693  0.2507 -0.0232
37770W        W38634  19.738  13.208   4.525 -0.0215  0.2676 -0.2380
37771W        W38635  22.553  12.113   2.254 -0.0476 -0.2322 -0.0589
37772W        W38636  18.996  13.964  28.614 -0.2206  0.1082  0.2009
37773W        W38637  20.874  12.820   3.645  0.2118 -0.0278 -0.0311
37774W        W38638  20.576  10.504   0.916 -0.2054  0.2676 -0.2966
37775W        W38639  23.184  12.266  28.862 -0.3036  0.0187  0.3519
37776W        W38640  22.945  15.132   0.071  0.0951 -0.0764  0.1061
37777W        W38641  17.549  11.527   4.019 -0.3820 -0.1991  0.1079
37778W        W38642  19.553  12.511   0.282 -0.0943  0.1936  0.2866
37779W        W38643  20.796  15.731   3.459  0.1196 -0.0243  0.1324
37780W        W38644  24.781   7.461   2.759 -0.2331  0.0056 -0.2392
37781W        W38645  19.646  13.969   0.873 -0.0203  0.0849 -0.0286
37782W        W38646  17.692  12.486   0.448  0.2426  0.2449 -0.1296
37783W        W38647  20.846  12.130   2.183  0.1671  0.0651  0.2069
37784W        W38648  19.922  12.045   3.200 -0.3017  0.1342 -0.0959
37785W        W38649  17.298   9.706   1.416 -0.2144  0.1143  0.3913
37786W        W38650  17.452  13.696   1.742 -0.1625  0.0279 -0.2753
37787W        W38651  19.919  14.106   2.203 -0.1112  0.0986  0.1400
37788W        W38652  20.552  10.135   2.302 -0.2995  0.0585 -0.0353
37789W        W38653  20.984  12.587   1.901 -0.0200 -0.0345  0.1031
37790W        W38654  19.036  13.344  27.701 -0.2463  0.0503 -0.0763
37791W        W38655  19.492  14.363   1.648 -0.0251  0.3389  0.1060
37792W        W38656  21.739  11.616   4.381 -0.0008  0.2265  0.0251
37793W        W38657  18.649  11.630   5.236  0.0990  0.2102 -0.2362
37794W        W38658  20.599  13.027   2.576 -0.0537 -0.1687  0.0386
37795W        W38659  21.014  12.584  28.964 -0.0564 -0.0297  0.0662
37796W        W38660  18.060  13.655  27.397  0.2264  0.0379 -0.0294
37797W        W38661  19.648  12.893   0.956 -0.2247 -0.2246 -0.0832
37798W        W38662  19.115  12.668  28.260 -0.1997  0.0700  0.0755
37799W        W38663  20.126  11.238  28.826  0.2980  0.0761 -0.0497
37800W        W38664  20.350  12.829  28.240  0.0444  0.1505 -0.3265
37801W        W38665  23.503  11.933   5.671  0.0377  0.2833  0.0927
37802W        W38666  16.432   7.762   5.386  0.1324 -0.2222  0.1661
37803W        W38667  18.122  12.467   0.160  0.3685  0.4357  0.0812
37804W        W38668  20.827  13.710   1.244 -0.1271  0.1821 -0.0960
37805W        W38669  19.135  13.274   1.543  0.2196  0.2902  0.3132
37806W        W38670  19.569  14.747  28.692  0.1174  0.2800  0.3068
37807W        W38671  20.737  12.611   1.049 -0.1742 -0.0971  0.1603
37808W        W38672  20.856  15.260   3.269  0.2194 -0.2045  0.0428
37809W        W38673  21.859  10.364  28.873  0.0182  0.1167 -0.1007
37810W        W38674  19.817  13.560   0.030  0.0381  0.1870 -0.2772
37811W        W38675  18.433  14.975   5.030  0.1698  0.1440  0.0581
37812W        W38676  24.744   9.375   3.265 -0.0544 -0.1801  0.1146
37813W        W38677  24.694  10.650   2.072  0.1169 -0.1891 -0.0222
37814W        W38678  22.098  14.167  29.025 -0.2101  0.1114  0.1758
37815W        W38679  20.173  14.135  28.575 -0.1498  0.2274  0.3015
37816W        W38680  16.335  10.746   1.703 -0.1590 -0.2735  0.0509
37817W        W38681  17.621  12.401   3.695  0.0385 -0.0827  0.0361
37818W        W38682  18.723  11.890  28.704  0.0592  0.0851 -0.0977
37819W        W38683  19.451  12.999  28.574 -0.0956  0.0337  0.0465
37820W        W38684  20.548  10.736   3.427 -0.3981  0.2887 -0.0271
37821W        W38685  20.364  10.305  26.456  0.0352  0.0021  0.0398
37822W        W38686  22.778   9.272   0.672 -0.1528  0.2505  0.1481
37823W        W38687  20.963  16.159  28.353 -0.2864 -0.2174  0.2254
37824W        W38688  19.145  13.320   2.726 -0.2509 -0.0512 -0.1962
37825W        W38689  18.570  12.339  28.522 -0.0625  0.1977 -0.0753
37826W        W38690  22.265  13.158   0.330 -0.1524 -0.3403 -0.2181
37827W        W38691  19.608  12.598  28.948  0.0903 -0.0391 -0.3647
37828W        W38692  18.663  12.366   2.805 -0.1707 -0.2512 -0.1226
37829W        W38693  19.572  11.767   2.696 -0.1927 -0.2037  0.0679
37830W        W38694  18.761  12.204   3.879  0.0181 -0.0210  0.0688
37831W        W38695  21.357   7.479   2.347 -0.4218 -0.3416  0.0343
37832W        W38696  21.037  14.249  28.630  0.0022  0.0086 -0.1760
37833W        W38697  21.155  12.934  27.307  0.3426 -0.1610  0.0930
37834W        W38698  22.663  11.463  27.347 -0.1204 -0.2041 -0.1099
37835W        W38699  20.379  10.895   1.741 -0.2314 -0.1555 -0.1900
37836W        W38700  21.518  10.653   1.745 -0.2856 -0.1462 -0.4790
37837W        W38701  19.121  12.152   0.311 -0.2973 -0.0984 -0.2165
37838W        W38702  21.922  12.909   5.356 -0.0381  0.4053 -0.1452
37839W        W38703  19.541  12.323   3.361  0.1368 -0.2472 -0.0895
37840W        W38704  20.800  10.207   3.613  0.0623 -0.1657 -0.1373
37841W        W38705  16.965   8.780   1.294  0.1895 -0.0532 -0.1246
37842W        W38706  18.298  12.808   1.384 -0.0309  0.0707  0.1395
37843W        W38707  17.300  14.380   3.602  0.1863  0.0186  0.1273
37844W        W38708  19.668  12.557   2.435  0.1426  0.3303  0.1119
37845W        W38709  19.736  14.652  26.488 -0.0149 -0.1093  0.0971
37846W        W38710  19.879  11.914  28.180 -0.2546 -0.3614  0.0078
37847W        W38711  22.257  12.254  29.119 -0.2054  0.3012  0.2472
37848W        W38712  18.966  13.660   1.296 -0.0851  0.0046  0.1059
37849W        W38713  21.353  14.002  27.835  0.2263 -0.0421 -0.1262
37850W        W38714  22.321   9.775   2.022  0.0395  0.1191  0.1553
37851W        W38715  20.348  11.738  28.682  0.1608 -0.0757  0.2587
37852W        W38716  18.398  12.499   0.742  0.1760  0.1876 -0.1461
37853W        W38717  19.594  13.321   1.904 -0.2689 -0.0380 -0.3693
37854W        W38718  19.864  11.885  26.939 -0.0305 -0.1901 -0.3920
37855W        W38719  19.682  10.049   1.983 -0.0464  0.1667  0.2250
37856W        W38720  16.629  14.027   0.228 -0.1018  0.2371  0.2177
37857W        W38721  22.100  12.323   0.425 -0.0186 -0.2626  0.0440
37858W        W38722  19.095  11.780  27.900 -0.0820  0.0537  0.0439
37859W        W38723  18.012  11.955   1.691  0.0931 -0.2145  0.1212
37860W        W38724  17.911  11.723   0.809 -0.0663 -0.1053 -0.2012
37861W        W38725  19.604  14.788   5.231  0.2967  0.2800 -0.1978
37862W        W38726  19.462  12.419   0.724 -0.3565  0.2200  0.1019
37863W        W38727  18.993  10.714   1.154  0.2464  0.0943  0.1992
37864W        W38728  21.166  10.872   2.082  0.0012  0.1266  0.2497
37865W        W38729  17.383  13.202  28.493 -0.0183 -0.2458  0.0013
37866W        W38730  19.445  10.337  29.063 -0.0639  0.1798  0.1367
37867W        W38731  17.121  14.802  29.136  0.1053  0.3286  0.0565
37868W        W38732  19.504  12.730   3.970 -0.0392 -0.2849 -0.1306
37869W        W38733  18.066   9.791   3.115  0.0411 -0.1489 -0.0286
37870W        W38734  19.271  10.228   4.496  0.1912 -0.1609 -0.0945
37871W        W38735  19.866  10.256   1.123  0.3254  0.0552  0.1889
37872W        W38736  23.718   9.819   1.725 -0.0681  0.1371 -0.1961
37873W        W38737  16.367  11.540   0.431  0.2308 -0.1269  0.0727
37874W        W38738  15.759  10.919   0.837 -0.1387 -0.0259 -0.0316
37875W        W38739  22.727  12.382   1.295 -0.0804  0.1856  0.0688
37876W        W38740  18.253  13.186   1.749  0.0071  0.0152  0.0454
37877W        W38741  22.679  10.921  29.103 -0.0556  0.3709 -0.0430
37878W        W38742  22.580  12.448   0.314  0.0813 -0.1003  0.3068
37879W        W38743  16.246  10.918   0.912 -0.1432  0.0186 -0.1133
37880W        W38744  21.598  11.163   1.778  0.3157 -0.1644  0.1874
37881W        W38745  16.706  10.310   1.072  0.2072 -0.1222  0.0448
37882W        W38746  16.953  12.148   2.711  0.2686  0.3023  0.1012
37883W        W38747  20.745  11.109   0.971  0.0979 -0.2053  0.0260
37884W        W38748  19.919  13.000  28.378  0.1660 -0.3035  0.1480
37885W        W38749  14.660  12.065  28.782 -0.2366  0.3963 -0.0682
37886W        W38750  16.764  10.523   3.284  0.0876  0.0371  0.0577
37887W        W38751  18.349  13.059   2.840  0.2504  0.1239 -0.2454
37888W        W38752  19.613  12.762  28.094  0.1596  0.0515 -0.0006
37889W        W38753  24.184  10.431   2.125  0.1424  0.2859  0.3827
37890W        W38754  22.244  12.219   1.437 -0.1220 -0.1944  0.1273
37891W        W38755  19.990  12.455   0.953 -0.0152 -0.3264 -0.0768
37892W        W38756  20.521  12.561  27.315  0.2954  0.1264 -0.2302
37893W        W38757  21.068  14.414  28.088 -0.2512  0.0522  0.0290
37894W        W38758  19.950  14.611   0.291  0.0726  0.1378 -0.3939
37895W        W38759  22.412  13.056   2.564 -0.0900  0.2202 -0.1333
37896W        W38760  22.922  10.307   2.334 -0.0116 -0.0224  0.0690
37897W        W38761  21.371  13.770   1.064 -0.2239  0.1471 -0.0714
37898W        W38762  17.766  16.235   4.781 -0.1498  0.2166  0.0326
37899W        W38763  19.543  11.566   2.191  0.1458  0.4175  0.0232
37900W        W38764  18.350  12.291  27.954 -0.2221 -0.0906  0.0672
37901W        W38765  21.261  14.775   2.892  0.0637  0.0052 -0.0236
37902W        W38766  19.681  13.218   1.369 -0.0116  0.0442  0.1004
37903W        W38767  23.812  13.098   3.882 -0.1422 -0.0141 -0.2432
37904W        W38768  19.869  12.392  27.981 -0.1587  0.1468  0.3454
37905W        W38769  21.981  13.974   1.310  0.0548 -0.2105 -0.0850
37906W        W38770  19.267  13.869   3.536  0.2663 -0.0590  0.3186
37907W        W38771  19.116  12.086   2.783  0.3591  0.2063 -0.2239
37908W        W38772  18.260  12.059  29.033 -0.2131 -0.0453  0.1170
37909W        W38773  21.933  13.533  28.954 -0.0798 -0.2044 -0.0521
37910W        W38774  19.432  11.689   4.043 -0.0465 -0.0207  0.1524
37911W        W38775  19.151  15.598  29.079  0.2564 -0.0801 -0.0308
37912W        W38776  20.350  11.477   1.858  0.0132 -0.1629  0.0985
37913W        W38777  21.657  10.400   1.149 -0.0941  0.3428 -0.0980
37914W        W38778  20.751  14.475  27.620 -0.1578 -0.0426  0.0472
37915W        W38779  20.670  13.950  28.785 -0.1389 -0.2717 -0.3673
37916W        W38780  19.420  13.554   1.074  0.0813  0.1430  0.2621
37917W        W38781  17.309  12.276   1.412  0.2073 -0.3329 -0.0636
37918W        W38782  17.955  10.717   3.216  0.0758 -0.1070  0.0235
37919W        W38783  17.940  10.049   1.617  0.0644 -0.0682 -0.2607
37920W        W38784  20.641   7.576   0.898  0.0027  0.0910  0.1139
37921W        W38785  17.500  11.109   1.245 -0.0638 -0.0100  0.0419
37922W        W38786  20.798  12.598   2.889  0.1681  0.3037 -0.1795
37923W        W38787  17.512  14.264   4.076  0.2292 -0.1907  0.0421
37924W        W38788  20.909  13.030   0.722  0.3020  0.1874 -0.3401
37925W        W38789  20.007   8.319  28.730 -0.1306  0.0371 -0.0072
37926W        W38790  19.048  11.214   0.736 -0.2497 -0.0295  0.2951
37927W        W38791  20.173  14.065   1.043 -0.0672  0.2986 -0.1575
37928W        W38792  21.510  16.647   1.909 -0.0389  0.1437  0.2902
37929W        W38793  22.107  10.003   0.428 -0.0531  0.5131  0.1236
37930W        W38794  17.591  11.740   1.873 -0.3933  0.1152 -0.2417
37931W        W38795  22.928  13.107   1.953 -0.0759 -0.0836  0.2217
37932W        W38796  19.798   9.554  28.513  0.0385 -0.1915  0.0011
37933W        W38797  18.191  12.192   2.622  0.0518 -0.4130  0.3361
37934W        W38798  23.273  12.146   0.601 -0.2007 -0.1861  0.1562
37935W        W38799  21.723  12.942   1.964 -0.2144 -0.0361 -0.0061
37936W        W38800  21.130  11.160   0.660  0.1320  0.0970 -0.0506
37937W        W38801  22.697  12.054  28.983  0.1085 -0.0364 -0.0776
37938W        W38802  19.799  13.287   3.566 -0.0599  0.1651  0.0784
37939W        W38803  17.867  10.980   4.007  0.0027 -0.1915  0.0395
37940W        W38804  19.229  16.117   0.831 -0.1740 -0.3106 -0.0098
37941W        W38805  19.154  12.365   5.130  0.1388  0.0729 -0.3435
37942W        W38806  19.077  13.940  26.786  0.1540  0.0781  0.1227
37943W        W38807  21.547  11.842   1.046 -0.0852  0.1064 -0.1092
37944W        W38808  20.995  11.526   1.730  0.1208 -0.1905 -0.2796
37945W        W38809  21.404  12.701   1.085  0.2054 -0.0906  0.1264
37946W        W38810  18.735  13.495  28.668  0.2487 -0.1606 -0.0344
37947W        W38811  21.715  14.166   1.652  0.1291 -0.0375  0.1033
37948W        W38812  20.664  11.348   1.425 -0.1550  0.0081 -0.0156
37949W        W38813  16.114  12.528   2.610 -0.0827  0.0295 -0.4611
37950W        W38814  21.260  12.507  27.961 -0.1867  0.0307  0.0939
37951W        W38815  21.851  12.605   1.561 -0.0674  0.1808  0.2755
37952W        W38816  18.127  11.052   4.548 -0.0458  0.1115  0.1072
37953W        W38817  19.904  12.386   1.937 -0.1222 -0.0432 -0.3123
37954W        W38818  21.273  14.956  28.254  0.0261  0.2491  0.3694
37955W        W38819  18.299  14.700  28.925 -0.4429  0.1997 -0.2774
37956W        W38820  20.695  13.410  28.628  0.1343 -0.2114  0.0520
37957W        W38821  20.982   9.102  27.735  0.0480  0.0413 -0.1373
37958W        W38822  20.520  12.634  28.934  0.1464 -0.0648 -0.1533
37959W        W38823  18.480  16.033   0.518  0.3281  0.0089 -0.2875
37960W        W38824  21.133  11.158  27.247  0.0795  0.0627  0.0412
37961W        W38825  18.310  14.287   6.999 -0.2051 -0.4916 -0.1249
37962W        W38826  20.403  12.640   1.494  0.2137  0.1373  0.2945
37963W        W38827  19.925  12.030   4.900 -0.0478 -0.1368 -0.0035
37964W        W38828  21.614  11.228  27.218 -0.1308  0.0560  0.0053
37965W        W38829  21.051  14.612  29.023  0.2169 -0.2480  0.0044
37966W        W38830  20.927  11.823   1.316  0.2692  0.0202 -0.3937
37967W        W38831  22.014  11.584   0.888 -0.0953 -0.0331  0.0765
37968W        W38832  18.769  11.794   3.573  0.2049  0.3277  0.2164
37969W        W38833  20.251  12.072  29.068 -0.2708  0.0402 -0.1690
37970W        W38834  18.644  13.549   2.836 -0.1052  0.0745  0.1085
37971W        W38835  17.977  14.644   1.552 -0.4161  0.3943  0.1534
37972W        W38836  21.704   9.849   1.926 -0.2255  0.1018 -0.2847
37973W        W38837  18.938  11.185   3.446  0.2151 -0.1289  0.0317
37974W        W38838  21.843  10.722   2.621  0.1982  0.0462 -0.2940
37975W        W38839  17.724  14.953   1.866  0.2818  0.1140 -0.1493
37976W        W38840  19.327  11.577   1.058 -0.1161  0.1102 -0.2828
37977W        W38841  19.204  10.731   2.130 -0.1667 -0.0771 -0.0338
37978W        W38842  18.231  15.120   1.064 -0.0435  0.6157 -0.0921
37979W        W38843  21.930  15.712   0.208 -0.0334  0.3298 -0.2319
37980W        W38844  20.421  14.295   2.232  0.0937 -0.0988 -0.0211
37981W        W38845  18.514  15.382   4.244 -0.0187  0.0025 -0.3979
37982W        W38846  20.620  10.146   4.955  0.3827  0.0494  0.0077
37983W        W38847  21.325  11.866   0.149  0.0215 -0.4763 -0.0361
37984W        W38848  19.810   9.970   3.817  0.2198 -0.4510  0.0364
37985W        W38849  19.197  13.069   1.104  0.1026  0.1082 -0.1628
37986W        W38850  19.231  10.250   1.961  0.1186 -0.2172  0.0433
37987W        W38851  18.963  14.599   1.391  0.3572  0.3646  0.3119
37988W        W38852  21.070  12.788   1.431 -0.0600  0.0838 -0.0727
37989W        W38853  20.777  16.182   2.832  0.1451  0.1348 -0.0155
37990W        W38854  14.839  11.710  27.005 -0.0596 -0.0107  0.1241
37991W        W38855  21.655  11.155   3.816  0.0622 -0.1181  0.0317
37992W        W38856  18.215  10.480   0.682  0.0036  0.1184 -0.0482
37993W        W38857  21.057  11.379   0.215  0.0189 -0.1772 -0.3512
37994W        W38858  18.624  15.057   5.835 -0.0193 -0.0067  0.1866
37995W        W38859  18.311  13.144  28.614 -0.0625  0.1289 -0.0509
37996W        W38860  19.737  16.053   1.765  0.2379 -0.0518 -0.1094
37997W        W38861  23.978  11.984   1.159 -0.1913  0.0702 -0.0129
37998W        W38862  17.429  11.883   3.683 -0.0756  0.3091  0.1343
37999W        W38863  19.360  11.966   1.805  0.3664  0.2640  0.2158
38000W        W38864  19.693  10.586  28.195  0.1384  0.1239  0.1256
38001W        W38865  20.548  14.173   1.343 -0.0190  0.4923  0.1682
38002W        W38866  20.420  10.276   1.647 -0.2871  0.0105 -0.2208
38003W        W38867  18.415  13.628   1.579  0.0578 -0.0314  0.0235
38004W        W38868  19.787  12.156  29.016 -0.1951 -0.0817  0.4582
38005W        W38869  20.706  12.183   0.737 -0.0911 -0.2921  0.3072
38006W        W38870  20.787  11.184   2.030  0.0635 -0.1333 -0.1919
38007W        W38871  20.455  11.640   1.021  0.0304 -0.1974  0.1071
38008W        W38872  21.803  11.959   2.219  0.1396  0.0220 -0.1620
38009W        W38873  17.459  15.220   6.522  0.0579  0.0901 -0.1070
38010W        W38874  19.139   9.243   4.643 -0.0457 -0.1630 -0.1483
38011W        W38875  22.846  11.719   2.185  0.2145 -0.0113  0.0216
38012W        W38876  21.168  15.576   0.161 -0.0148 -0.0809  0.2591
38013W        W38877  20.304  16.928  28.737 -0.6665  0.1401  0.3855
38014W        W38878  20.071  10.451   3.407  0.0413  0.2211  0.1697
38015W        W38879  20.898  10.525  28.636  0.2469 -0.0265  0.3029
38016W        W38880  21.899  12.976   1.153 -0.3879 -0.0388 -0.0615
38017W        W38881  18.702  10.666   0.688  0.3924 -0.2762 -0.2918
38018W        W38882  19.177  10.304   3.355  0.1170  0.1849 -0.0739
38019W        W38883  18.648  13.220  27.983 -0.0027 -0.3352  0.2354
38020W        W38884  18.993  13.049  28.866  0.1135  0.3100  0.3534
38021W        W38885  19.930  14.400   0.767  0.3098 -0.3175 -0.1680
38022W        W38886  15.990  11.918   0.879 -0.2603 -0.2227 -0.1936
38023W        W38887  17.681  11.324   2.199 -0.0929 -0.2194 -0.1596
38024W        W38888  19.734  13.434   0.555 -0.0837  0.0391  0.0251
38025W        W38889  19.797  10.759  29.015 -0.3858  0.0679 -0.2483
38026W        W38890  21.562  10.187   0.673 -0.3173 -0.3316 -0.0363
38027W        W38891  20.733  13.078   1.874 -0.2073  0.0149  0.2852
38028W        W38892  20.148  13.537   3.867  0.0947  0.0187 -0.0828
38029W        W38893  19.804  14.821   2.263  0.3859  0.1067  0.0743
38030W        W38894  20.209  10.818  28.279 -0.0600 -0.3789 -0.1817
38031W        W38895  23.194   8.481   2.317 -0.2349  0.0332 -0.0999
38032W        W38896  19.002  16.948   0.569  0.0623  0.1197 -0.0456
38033W        W38897  21.615  13.331   2.983 -0.2637 -0.2357  0.0213
38034W        W38898  18.411  14.046   4.965  0.1855 -0.0262  0.1496
38035W        W38899  18.741  12.859   0.971  0.1172 -0.0289 -0.3786
38036W        W38900  19.765  11.205   1.412  0.0369  0.2186  0.3782
38037W        W38901  18.921  13.279   4.112 -0.0879  0.4788 -0.2416
38038W        W38902  18.729  14.366   2.768  0.1738 -0.1969  0.0811
38039W        W38903  18.792  13.456   2.346  0.3715  0.0604 -0.0492
38040W        W38904  22.157  14.654  29.139 -0.0103 -0.3321 -0.0136
38041W        W38905  21.292  14.407   0.229  0.0814  0.0321 -0.1181
38042W        W38906  21.709  12.263   1.223 -0.0590 -0.1763 -0.1225
38043W        W38907  19.656  12.224   2.856 -0.2809 -0.0701 -0.0499
38044W        W38908  20.399  13.784  28.310  0.0776  0.3752  0.0805
38045W        W38909  21.712   8.747   0.599  0.1211  0.1062  0.4213
38046W        W38910  16.056  14.008   0.263  0.2776 -0.0610 -0.1303
38047W        W38911  22.831  10.120   1.862 -0.0558 -0.1109 -0.0129
38048W        W38912  21.134  13.228   0.235  0.3207  0.1608 -0.0735
38049W        W38913  20.155  13.206   0.582 -0.1110 -0.0056 -0.0292
38050W        W38914  20.675  14.476   0.962 -0.3002  0.2672  0.4078
38051W        W38915  20.552  12.157   2.729 -0.1811 -0.0342 -0.4369
38052W        W38916  20.918  10.603   2.961  0.1368  0.3784 -0.0343
38053W        W38917  19.824  11.669   1.836 -0.0137  0.2144 -0.1345
38054W        W38918  21.739  10.722   0.186 -0.0888 -0.0533  0.1040
38055W        W38919  16.816  13.607   3.611 -0.1131 -0.0521  0.2656
38056W        W38920  19.629  11.793   1.423 -0.0697 -0.0058  0.1325
38057W        W38921  18.073  12.848   0.470 -0.2156  0.0630  0.1792
38058W        W38922  18.525  13.903   2.457 -0.1447 -0.1232 -0.2177
38059W        W38923  22.398  12.282  28.614  0.2553 -0.1935  0.0048
38060W        W38924  19.712  11.844   3.616 -0.2381  0.1644 -0.1749
38061W        W38925  18.925  13.753   5.862  0.2240 -0.0147 -0.1979
38062W        W38926  19.488  13.892   2.029  0.1605 -0.1226  0.1392
38063W        W38927  20.331  13.848   3.050  0.1820  0.1037 -0.1489
38064W        W38928  20.625  13.596   2.055  0.1742  0.0755  0.0882
38065W        W38929  22.585  12.581   2.387 -0.3970  0.0159  0.0349
38066W        W38930  20.492  10.910   4.393  0.1350  0.1420 -0.1392
38067W        W38931  19.278  15.738   1.683  0.1819 -0.1829 -0.3582
38068W        W38932  19.077  13.078   3.162 -0.1648  0.2826 -0.1178
38069W        W38933  21.743  15.583   3.417  0.1358  0.0578 -0.3192
38070W        W38934  21.485  13.004   0.613 -0.1955 -0.3067  0.0456
38071W        W38935  17.950  10.853   2.138 -0.0533  0.1874  0.1755
38072W        W38936  18.286  12.748  27.595  0.2359  0.0176  0.2268
38073W        W38937  20.266  13.910   5.159  0.2665 -0.3726  0.0235
38074W        W38938  19.017  12.038  26.716  0.0188  0.0392 -0.1562
38075W        W38939  20.066   9.118  28.286 -0.3184  0.1254 -0.3068
38076W        W38940  19.070  16.056   7.350 -0.0326  0.0529  0.1841
38077W        W38941  19.865  12.961   6.963  0.0151 -0.0406  0.2045
38078W        W38942  21.558  14.269   2.985 -0.0776  0.2067  0.0227
38079W        W38943  25.647  14.942   6.212 -0.0989 -0.0576  0.1289
38080W        W38944  20.566  13.823   4.715 -0.1964 -0.0507  0.2691
38081W        W38945  16.431  11.625   3.701 -0.0998  0.1549 -0.0972
38082W        W38946  16.728  13.471   7.035 -0.0097 -0.0000 -0.2380
38083W        W38947  20.471  11.778   4.062 -0.2266 -0.5131 -0.0944
38084W        W38948  19.316  16.587   8.552  0.2115 -0.4530 -0.2753
38085W        W38949  15.138  12.094   8.946  0.1839 -0.0969 -0.0104
38086W        W38950  21.547  12.056   8.245  0.0943 -0.0565 -0.0357
38087W        W38951  20.004  11.437   5.751  0.1886 -0.1309  0.0213
38088W        W38952  18.488  15.197   3.392 -0.2537 -0.1022  0.2050
38089W        W38953  20.516  12.148   6.826  0.0573 -0.4426 -0.2269
38090W        W38954  20.499  11.857   9.748  0.4559 -0.0120  0.0037
38091W        W38955  19.065  12.114   9.683 -0.2115  0.2388 -0.1226
38092W        W38956  20.992  15.453   0.679 -0.2018  0.2159  0.1024
38093W        W38957  17.631  12.767   6.677  0.0954 -0.4436  0.0322
38094W        W38958  20.957  10.527   8.629  0.2196 -0.0592 -0.3531
38095W        W38959  22.928   9.327   4.073 -0.0504  0.0375 -0.0782
38096W        W38960  19.810  12.813   5.892 -0.1516  0.2149 -0.2818
38097W        W38961  18.595  12.222   4.435  0.3373  0.4159  0.1145
38098W        W38962  20.280  16.470   6.599 -0.0327 -0.1094 -0.0648
38099W        W38963  18.707  12.914   5.793 -0.1527 -0.1466 -0.1186
38100W        W38964  17.695  13.062   4.866 -0.2158 -0.0906  0.0440
38101W        W38965  17.990  13.458   5.163 -0.0812  0.0099  0.1519
38102W        W38966  22.343  12.968   6.109 -0.0703 -0.1780 -0.1555
38103W        W38967  20.747  15.112   8.203 -0.0452 -0.2224  0.1002
38104W        W38968  21.783  14.739   9.296 -0.0595  0.0728 -0.0164
38105W        W38969  18.463  12.547   8.778  0.0575  0.0326  0.1255
38106W        W38970  20.209  14.566   4.214  0.0829  0.3040 -0.0431
38107W        W38971  20.008  14.218   9.149 -0.0238  0.0454 -0.0500
38108W        W38972  22.191  12.520   7.376  0.1961  0.0539  0.0194
38109W        W38973  18.025  12.358   7.422 -0.0755  0.1305  0.2731
38110W        W38974  18.920  12.053  10.821  0.2031  0.1196  0.3419
38111W        W38975  21.691  13.581   8.187  0.1246 -0.0357 -0.1428
38112W        W38976  18.437   9.565   5.351 -0.0468  0.0786 -0.3476
38113W        W38977  17.618  12.893   4.392 -0.3313  0.3242 -0.0264
38114W        W38978  21.529  12.611   4.759 -0.1355 -0.1897 -0.0408
38115W        W38979  20.382  11.786   4.939  0.1595 -0.2788  0.0446
38116W        W38980  21.132  12.558   3.311 -0.0979  0.0667  0.0879
38117W        W38981  24.152  13.209   6.523  0.1772 -0.1002 -0.0976
38118W        W38982  19.400  12.983   6.827  0.0380  0.1267  0.0785
38119W        W38983  19.724  12.830   1.879  0.0892  0.2227  0.2918
38120W        W38984  18.516  13.643   4.276 -0.4954 -0.0867 -0.0381
38121W        W38985  19.798  14.081   4.884  0.0676  0.0941 -0.0245
38122W        W38986  19.527  10.107   6.838 -0.0168 -0.0193  0.0447
38123W        W38987  17.524  13.024   8.350 -0.2890 -0.2993  0.2625
38124W        W38988  21.263  13.416   3.307 -0.2500  0.2254  0.0435
38125W        W38989  18.631  11.742   4.283  0.1054 -0.0477 -0.0829
38126W        W38990  20.005  14.503   7.686 -0.1836 -0.1035 -0.0250
38127W        W38991  18.228  11.414   5.723 -0.2037  0.0198  0.2116
38128W        W38992  21.278  14.938   7.526 -0.0352 -0.2276 -0.3010
38129W        W38993  18.808  11.442   3.925 -0.0671 -0.2988  0.1499
38130W        W38994  18.009  11.200   2.592  0.1606  0.5717  0.1086
38131W        W38995  22.144  14.615   2.373 -0.1370  0.1925 -0.0583
38132W        W38996  21.833  13.082   6.190  0.2528  0.0735 -0.1790
38133W        W38997  18.900  12.165   7.577  0.0863 -0.1888 -0.1664
38134W        W38998  19.811  10.573   6.747 -0.1768 -0.0670 -0.2759
38135W        W38999  19.934  14.578   5.615 -0.2901 -0.0447  0.2796
38136W        W39000  21.542   9.969   3.498 -0.4537 -0.0485  0.1019
38137W        W39001  18.218  13.943   5.809  0.1912  0.2229  0.2027
38138W        W39002  18.538   9.975   7.128 -0.0429  0.2018 -0.0758
38139W        W39003  19.206  13.302   3.608  0.5581 -0.1066 -0.0977
38140W        W39004  19.997  14.194   6.055  0.1828 -0.0679  0.0061
38141W        W39005  22.388  10.680   6.888 -0.2018  0.0033 -0.2338
38142W        W39006  18.072  12.277   3.590  0.2582  0.2054 -0.1684
38143W        W39007  15.488  10.484   2.726 -0.0934  0.1412  0.1539
38144W        W39008  20.327  13.817   7.993 -0.0218  0.1508 -0.2391
38145W        W39009  19.670  12.418   4.472  0.1097  0.2160 -0.3928
38146W        W39010  23.319  14.961   4.929 -0.0981  0.1959 -0.0349
38147W        W39011  18.510  12.233   6.030 -0.4259  0.0920  0.0513
38148W        W39012  19.554  13.734   5.320  0.0155 -0.0837  0.0434
38149W        W39013  21.875  10.897   7.031  0.2055 -0.0622  0.0003
38150W        W39014  21.719  13.692   3.262  0.0074 -0.1110 -0.0058
38151W        W39015  20.529  14.590   7.459  0.2413 -0.0055  0.1322
38152W        W39016  18.929  12.120   6.400  0.2076  0.2009 -0.0631
38153W        W39017  18.696  12.549   6.690  0.0109 -0.0565  0.1569
38154W        W39018  19.715  11.327   3.836 -0.1394  0.0260 -0.2605
38155W        W39019  21.190  11.718   4.507 -0.0624  0.1204  0.0765
38156W        W39020  15.399  11.944   7.452  0.0080  0.0195 -0.0132
38157W        W39021  17.022  11.863  10.427 -0.1200 -0.0145 -0.2827
38158W        W39022  17.765  11.224   5.035  0.0484  0.1115 -0.0006
38159W        W39023  21.524   7.929   6.812 -0.0331  0.0555  0.1246
38160W        W39024  20.119  12.524   7.189  0.4380 -0.0026  0.2495
38161W        W39025  22.504  13.259   4.076  0.0455  0.1455  0.1427
38162W        W39026  20.699  13.402   7.313 -0.0145 -0.0073  0.2904
38163W        W39027  21.113  10.708   3.443  0.1451 -0.3468  0.0962
38164W        W39028  22.193  12.828   8.875 -0.1803  0.1587 -0.2343
38165W        W39029  19.617   9.823   6.406 -0.1142  0.0776  0.3576
38166W        W39030  20.174  13.247   5.692  0.5043 -0.1593  0.1330
38167W        W39031  20.353  13.590   8.469  0.1541 -0.1278  0.0073
38168W        W39032  17.201  13.439   6.540 -0.0812 -0.2479 -0.0999
38169W        W39033  21.073  10.912   4.337  0.1914 -0.1754 -0.1688
38170W        W39034  17.457  11.610   7.943 -0.1507  0.0049 -0.3505
38171W        W39035  17.624  11.861   4.435 -0.0603 -0.1173 -0.0513
38172W        W39036  23.377  10.121   3.507 -0.3200 -0.0535  0.2531
38173W        W39037  17.004  16.021   7.097 -0.2732  0.2900 -0.0978
38174W        W39038  19.256  10.115   6.294 -0.3121  0.5492  0.0074
38175W        W39039  22.378  10.400   4.006  0.1486  0.1561  0.1861
38176W        W39040  21.646  12.190   5.170 -0.1526 -0.2483 -0.0181
38177W        W39041  15.918  11.907   3.478 -0.0906  0.2830 -0.1544
38178W        W39042  18.248  10.246   3.022  0.5449  0.1341 -0.0333
38179W        W39043  21.693  13.385   7.362 -0.3260 -0.1794  0.3417
38180W        W39044  18.848  10.856   7.527 -0.2416 -0.2394 -0.0550
38181W        W39045  19.559  14.364   7.855  0.2149  0.2512  0.0403
38182W        W39046  18.945  13.903   2.725 -0.1044 -0.0318  0.2124
38183W        W39047  22.097  13.979   7.151 -0.1769  0.2088 -0.2890
38184W        W39048  20.247  12.284   5.172  0.1202  0.1064 -0.1828
38185W        W39049  21.677  13.459   5.871 -0.2119  0.3116  0.1986
38186W        W39050  18.464  12.881  10.984  0.0989  0.1526  0.0945
38187W        W39051  20.655  13.911   5.511  0.1727  0.4992  0.0770
38188W        W39052  22.923  11.134   3.366 -0.1912 -0.2531  0.1556
38189W        W39053  20.654  16.233   9.364  0.2409  0.1993 -0.0518
38190W        W39054  21.605  11.871   2.728  0.1713  0.0618 -0.2125
38191W        W39055  18.983  11.713   7.681 -0.1175  0.1325  0.0759
38192W        W39056  21.007  11.825   5.111 -0.0218  0.0644 -0.1738
38193W        W39057  19.481  13.489   9.652  0.1500 -0.2939 -0.1610
38194W        W39058  18.797   7.985   6.560  0.0200  0.1021  0.0307
38195W        W39059  17.923  11.609   5.372  0.1605  0.1132  0.2876
38196W        W39060  22.736  12.719   2.877  0.0991 -0.2101  0.2273
38197W        W39061  23.239  13.357   3.121 -0.2466  0.0263  0.0357
38198W        W39062  20.600  11.927   5.367 -0.0712 -0.2960  0.3923
38199W        W39063  19.995  11.480   4.790  0.1531 -0.0646  0.0983
38200W        W39064  21.855  10.389   3.096  0.0284  0.2017 -0.3405
38201W        W39065  20.124  11.875   4.486 -0.0142  0.0381  0.0668
38202W        W39066  21.403  11.122   6.543  0.6301  0.1099  0.0462
38203W        W39067  21.376  14.131   6.027  0.1138 -0.0471 -0.0590
38204W        W39068  23.240  12.982   6.758 -0.5077 -0.1355  0.0257
38205W        W39069  19.432  13.448   7.713 -0.3058 -0.5341  0.3832
38206W        W39070  21.048  15.482   6.017  0.3126  0.0164  0.1526
38207W        W39071  18.707  11.933   6.797  0.1000  0.2617 -0.1283
38208W        W39072  19.719  13.896   9.887 -0.2363  0.1372 -0.2229
38209W        W39073  19.392  10.983   3.430 -0.1888  0.3808  0.0682
38210W        W39074  20.254  12.099   3.695 -0.2994 -0.0369 -0.1884
38211W        W39075  17.369  11.389   4.681  0.1485  0.1614  0.0633
38212W        W39076  24.741  10.664   6.002  0.1661  0.1659 -0.0354
38213W        W39077  19.878  10.611   5.884 -0.1356  0.0813  0.0840
38214W        W39078  21.524  13.053   5.022 -0.0593  0.1691 -0.2795
38215W        W39079  19.517  14.099   6.190  0.2909  0.1459  0.3391
38216W        W39080  17.967  13.305   6.341  0.0539  0.0392  0.1292
38217W        W39081  21.508  12.693   6.207  0.0174 -0.1728 -0.1382
38218W        W39082  18.374  11.263   4.104 -0.0350  0.0522  0.2934
38219W        W39083  19.073   9.753   6.628  0.1204 -0.0394 -0.1094
38220W        W39084  18.759  14.030   8.607 -0.0111  0.0610  0.2152
38221W        W39085  20.242  11.569   2.957  0.2792  0.1596  0.0059
38222W        W39086  23.768  10.383   4.488 -0.1904  0.0792  0.2574
38223W        W39087  21.526  13.940   6.550  0.1100 -0.2056  0.1664
38224W        W39088  20.696  15.557   6.402  0.0744  0.3741 -0.1902
38225W        W39089  17.218  14.537   5.661 -0.0145  0.2120  0.0042
38226W        W39090  20.625  13.813   8.797  0.0742  0.1308  0.3232
38227W        W39091  18.892  12.175   3.247  0.0332  0.1925  0.0321
38228W        W39092  21.753  14.895   7.524  0.2372  0.0991 -0.2828
38229W        W39093  16.356  13.834   3.540 -0.0641  0.1370 -0.3407
38230W        W39094  19.987  11.694   7.516 -0.1792  0.2426 -0.0349
38231W        W39095  22.072  11.909   6.658  0.2438 -0.1043 -0.0075
38232W        W39096  19.571  11.545   7.043 -0.0546 -0.3314  0.1389
38233W        W39097  19.662  12.239   3.957  0.0327  0.0423  0.3214
38234W        W39098  21.065  10.076   4.689 -0.0594  0.3434  0.2357
38235W        W39099  21.163  11.570   3.465  0.2403  0.0806 -0.0365
38236W        W39100  21.128   8.254   4.027  0.0419 -0.0204  0.0295
38237W        W39101  19.267  13.391   7.140  0.3661 -0.1634 -0.0319
38238W        W39102  18.697  15.059   7.640  0.0750  0.1503 -0.0859
38239W        W39103  18.710  11.610   7.150  0.1518 -0.0582  0.2303
38240W        W39104  19.354  10.820   7.649 -0.0254 -0.2917 -0.1787
38241W        W39105  19.160  12.217   6.866  0.0584 -0.2418  0.2547
38242W        W39106  22.670  10.013   4.097  0.2411  0.2922 -0.2179
38243W        W39107  15.575  13.582   5.101  0.0902 -0.0596  0.2058
38244W        W39108  23.154  17.186   9.283  0.2903  0.0580 -0.0838
38245W        W39109  21.250  14.424   3.445 -0.1598  0.1635  0.2142
38246W        W39110  19.878  13.686   4.324  0.0110 -0.0040  0.0987
38247W        W39111  21.941  10.950   5.718 -0.0965 -0.0198 -0.1041
38248W        W39112  20.652  12.322   7.324 -0.1762 -0.0407 -0.0094
38249W        W39113  20.554  10.979   3.889 -0.1616 -0.2490  0.0017
38250W        W39114  19.691  11.150   6.068  0.0223  0.1834 -0.0990
38251W        W39115  22.461  11.816   3.104  0.5144  0.1717 -0.1182
38252W        W39116  19.865  15.287   6.714 -0.0844 -0.2197  0.0468
38253W        W39117  18.155  16.036   6.310  0.0511 -0.2296  0.0909
38254W        W39118  19.326  12.954   2.411  0.0629 -0.0827  0.1388
38255W        W39119  18.748  11.358   6.587  0.2490  0.2164 -0.1297
38256W        W39120  17.174  13.931   3.885 -0.1798  0.1312 -0.0867
38257W        W39121  18.408  12.456   5.564  0.3859 -0.3243 -0.3967
38258W        W39122  18.702  13.637   3.789 -0.0525 -0.0249  0.1512
38259W        W39123  18.982  10.997   6.293 -0.0613 -0.1033  0.0301
38260W        W39124  20.743  12.218   4.136 -0.1112  0.1530 -0.1463
38261W        W39125  21.255  15.840   7.171 -0.0218  0.0583 -0.5165
38262W        W39126  20.275  12.417   6.227 -0.0827  0.0568  0.4451
38263W        W39127  17.846  11.937   3.960 -0.2707 -0.3610  0.1095
38264W        W39128  18.890  12.533   6.114 -0.3875 -0.1193  0.1449
38265W        W39129  20.288  12.390   7.815  0.0086  0.0593  0.0289
38266W        W39130  19.386  12.447   2.024  0.1166  0.0895 -0.0614
38267W        W39131  18.385  14.687   6.426 -0.0319  0.2067  0.1924
38268W        W39132  17.907  14.406  10.745 -0.3175  0.0597  0.1370
38269W        W39133  16.916   7.940   4.988 -0.0282 -0.1424 -0.0601
38270W        W39134  17.240   9.304   5.950 -0.2566  0.0507 -0.2605
38271W        W39135  20.528  10.780   6.672  0.1181 -0.1662  0.1815
38272W        W39136  21.749  13.732   2.661 -0.1675 -0.4155  0.0086
38273W        W39137  19.185   9.612   6.113 -0.0112 -0.1235  0.1419
38274W        W39138  20.205  11.967   6.415 -0.1373  0.2019 -0.1242
38275W        W39139  20.049  11.036   4.600  0.2839  0.2183 -0.1585
38276W        W39140  19.035  10.702   3.112  0.2031  0.0937  0.1520
38277W        W39141  20.950   9.707   4.366 -0.0426  0.0887 -0.0477
38278W        W39142  21.706  12.198   4.580 -0.1952  0.1724 -0.1616
38279W        W39143  18.135  11.675   4.311 -0.1149  0.3772  0.1299
38280W        W39144  19.644  11.206   7.364  0.2005 -0.3254  0.2915
38281W        W39145  17.640  11.265   2.906 -0.2605 -0.1338  0.0947
38282W        W39146  17.177  13.904   5.529  0.1665  0.1065  0.0155
38283W        W39147  18.824   9.960   5.436  0.3338 -0.0865  0.3254
38284W        W39148  19.519  16.100   2.578 -0.3186 -0.0328  0.2446
38285W        W39149  17.756  13.812   4.189 -0.1321  0.0769 -0.2075
38286W        W39150  19.730  12.728   9.339  0.0704  0.0994 -0.2622
38287W        W39151  19.619  14.231   8.424 -0.1964  0.2141  0.1284
38288W        W39152  16.879  14.501   6.673  0.1047 -0.0043 -0.0107
38289W        W39153  19.311  10.835   8.239  0.2451 -0.1766 -0.2168
38290W        W39154  20.765  11.997   3.633 -0.1837  0.0078 -0.0854
38291W        W39155  19.125  11.651   6.742 -0.0502 -0.0881 -0.1607
38292W        W39156  23.055  12.457   2.607  0.4214  0.0006  0.0205
38293W        W39157  17.823  12.729   6.232  0.1931 -0.3622  0.1701
38294W        W39158  20.933  14.237   7.536  0.2918 -0.0858  0.3286
38295W        W39159  19.284  13.843   8.506  0.2942  0.1029 -0.3095
38296W        W39160  21.754  11.750   9.283 -0.2587  0.0807 -0.0756
38297W        W39161  19.637  11.897   4.475 -0.3530 -0.1630 -0.0648
38298W        W39162  18.729  16.110   9.613 -0.0284  0.2483 -0.0309
38299W        W39163  21.494  10.730   4.012 -0.3083  0.2027  0.0434
38300W        W39164  20.253  12.580   2.959 -0.0912 -0.0246  0.2268
38301W        W39165  17.450   9.796   5.729  0.0409  0.3113  0.1951
38302W        W39166  21.423  15.781   8.128  0.0049  0.1265 -0.1281
38303W        W39167  22.315  11.190   4.758  0.0213 -0.2848  0.0526
38304W        W39168  22.207  15.435   4.160 -0.1285  0.2006 -0.1323
38305W        W39169  21.488  12.437   8.565  0.0377 -0.4193  0.1413
38306W        W39170  18.044  10.604   7.540  0.0128  0.0993 -0.1713
38307W        W39171  21.913  14.500  10.025  0.0246 -0.0553 -0.1374
38308W        W39172  19.618  14.710   6.850 -0.2774  0.4956  0.1503
38309W        W39173  20.386  14.010   3.555  0.1214  0.1166  0.1480
38310W        W39174  20.590  14.602   8.392  0.1193 -0.2171  0.2603
38311W        W39175  19.307  12.962   7.447  0.0502  0.2322 -0.0354
38312W        W39176  23.322   8.702   5.267  0.1612 -0.2973 -0.2963
38313W        W39177  21.666  11.319   7.473 -0.2664  0.2302 -0.2713
38314W        W39178  21.613  14.686   4.294 -0.1343  0.3589 -0.0124
38315W        W39179  18.442  13.024   8.374  0.0625 -0.1558  0.3398
38316W        W39180  20.033  11.988   2.680 -0.1739  0.1024 -0.1698
38317W        W39181  21.343  13.441   9.209 -0.1624 -0.1994 -0.0341
38318W        W39182  19.860  12.150   7.721  0.0911  0.1107  0.0149
38319W        W39183  18.439  11.823   4.819 -0.4229  0.0562 -0.1150
38320W        W39184  22.628  11.849   4.052  0.0425  0.0776 -0.0397
38321W        W39185  19.493  13.258   4.029  0.0818 -0.3892  0.0837
38322W        W39186  21.537  13.960   5.056 -0.0939 -0.0902 -0.1591
38323W        W39187  19.737  14.838   7.964 -0.2135 -0.0984 -0.0882
38324W        W39188  20.612  14.714   6.376  0.3465 -0.0203 -0.0272
38325W        W39189  19.359  13.840   4.460  0.2213  0.0031  0.0305
38326W        W39190  18.429  13.019   7.814  0.1608  0.1817  0.2894
38327W        W39191  20.184  12.274   4.166  0.0677  0.2460 -0.0579
38328W        W39192  20.875  13.286   5.509 -0.2403 -0.0447  0.2817
38329W        W39193  19.630  11.910   6.711  0.1913 -0.0722  0.2610
38330W        W39194  18.723  15.378   3.784  0.1689  0.1000  0.3109
38331W        W39195  21.270  13.692   5.653 -0.1212 -0.1221 -0.0908
38332W        W39196  18.346  10.892   1.911  0.2074 -0.2185  0.0716
38333W        W39197  16.750  11.793   7.523 -0.2789 -0.0458  0.3277
38334W        W39198  21.283  13.561   2.348 -0.0642  0.1670 -0.0452
38335W        W39199  21.353  13.341   4.308 -0.1327  0.1306 -0.0792
38336W        W39200  18.263  12.297   4.037 -0.0534  0.0315 -0.0091
38337W        W39201  16.438  13.713   8.420  0.2424 -0.0545  0.1282
38338W        W39202  18.934  12.871   6.991 -0.1260 -0.0351 -0.0470
38339W        W39203  22.374  14.368   7.350 -0.2138 -0.0354 -0.0898
38340W        W39204  18.617  15.472   8.540 -0.0937  0.1440  0.3606
38341W        W39205  20.556  14.278   7.952  0.3006  0.0244  0.2240
38342W        W39206  18.120  15.563   6.480  0.0721 -0.2114 -0.2073
38343W        W39207  21.491  14.090   0.735  0.2543  0.1855 -0.2951
38344W        W39208  19.111  11.852   5.294  0.0158 -0.2121 -0.0755
38345W        W39209  21.695  12.045   1.661 -0.0041 -0.3443  0.2877
38346W        W39210  18.272  12.401   3.103 -0.2495 -0.0994  0.1070
38347W        W39211  18.354  11.608   8.439 -0.0456 -0.2864  0.1553
38348W        W39212  21.579  12.841   7.687  0.0687 -0.1244 -0.1748
38349W        W39213  18.735  11.287   5.865  0.1567  0.1784  0.1484
38350W        W39214  20.378  14.124   8.466 -0.0858 -0.1539  0.0982
38351W        W39215  19.817  12.253   6.177  0.2443  0.0848  0.0874
38352W        W39216  17.832   8.881  12.095 -0.0520 -0.0123  0.2238
38353W        W39217  21.826  10.009   6.802  0.1166  0.0318 -0.2445
38354W        W39218  18.162  11.294   2.133  0.0370 -0.0150 -0.2511
38355W        W39219  17.328  12.388   6.797 -0.0010  0.0304 -0.1903
38356W        W39220  20.672  12.960   4.600 -0.0217  0.1566  0.1700
38357W        W39221  20.744  12.705   4.159  0.0577  0.1920 -0.1007
38358W        W39222  19.225  13.013   5.821  0.0304  0.1927  0.1329
38359W        W39223  19.041  12.972   4.859 -0.2458  0.0122 -0.1139
38360W        W39224  21.108  12.433   3.804 -0.2884  0.1828 -0.1468
38361W        W39225  21.171  12.319   8.973 -0.0172 -0.1335 -0.2081
38362W        W39226  22.054  12.393   3.836 -0.0959  0.2684 -0.0689
38363W        W39227  21.119  13.956   7.927  0.0551 -0.2939  0.1797
38364W        W39228  21.529  13.966   4.188 -0.0866 -0.0851 -0.1346
38365W        W39229  21.829  13.899   6.054  0.2760  0.1317 -0.4096
38366W        W39230  20.073  12.113   1.595  0.0776 -0.2044 -0.0215
38367W        W39231  21.602   8.919   4.133 -0.0443 -0.2517 -0.1924
38368W        W39232  20.489  14.764   7.033 -0.1608  0.1123  0.0008
38369W        W39233  18.417  10.693   5.821 -0.0000  0.3722  0.3766
38370W        W39234  19.562  12.490   6.903 -0.1820  0.1973 -0.0437
38371W        W39235  20.739  12.191   4.985  0.1374  0.0428  0.1339
38372W        W39236  19.256  11.381   8.256 -0.3182  0.0238  0.0370
38373W        W39237  20.461  13.716   4.224 -0.1996  0.3624 -0.1635
38374W        W39238  20.521  11.591   6.730  0.0877 -0.2529 -0.1708
38375W        W39239  19.034  15.244   6.207 -0.3976  0.2636 -0.1166
38376W        W39240  17.958  11.833   7.188  0.0806 -0.1658  0.1369
38377W        W39241  17.973  10.588   5.444 -0.0685  0.0904 -0.1793
38378W        W39242  19.422  12.977   6.309 -0.0434 -0.0091  0.1178
38379W        W39243  22.516  11.392   1.229  0.1335  0.0831 -0.0875
38380W        W39244  19.948  11.813   4.015 -0.2363 -0.1576 -0.2861
38381W        W39245  21.284  15.169   8.803 -0.0338 -0.2904 -0.1790
38382W        W39246  22.726  11.928   7.250 -0.1051  0.3216  0.2807
38383W        W39247  24.155   8.659   3.773 -0.2244  0.0960 -0.0201
38384W        W39248  18.283  10.068   5.434 -0.1198 -0.0735 -0.0559
38385W        W39249  15.961  11.606   9.091  0.0218  0.1336 -0.1583
38386W        W39250  20.235  11.379   3.910  0.0145 -0.2534  0.0497
38387W        W39251  17.036  13.149   7.998 -0.0592  0.0583  0.0766
38388W        W39252  18.698  13.186   5.156  0.1151 -0.0172 -0.1258
38389W        W39253  22.282  16.445   8.074 -0.0963 -0.0104  0.1147
38390W        W39254  19.651  11.630   6.126 -0.1973 -0.1218 -0.1834
38391W        W39255  17.297  13.621   7.839  0.2283 -0.0381  0.0097
38392W        W39256  17.122   9.834   2.696 -0.2855  0.1518  0.0256
38393W        W39257  21.445  10.983   5.735 -0.3067  0.1298 -0.0210
38394W        W39258  21.474  11.908   6.133 -0.3837 -0.1692 -0.3315
38395W        W39259  19.329  11.361   6.418  0.1000  0.0112  0.2760
38396W        W39260  18.064  13.612   8.826 -0.1617 -0.0436 -0.0612
38397W        W39261  18.497  14.488   5.220  0.1013 -0.1179 -0.0657
38398W        W39262  18.024  12.299   8.367  0.1027  0.0140 -0.1614
38399W        W39263  21.475  12.700   5.372  0.2604  0.0541 -0.1023
38400W        W39264  20.948  13.813   4.232  0.0663 -0.0018 -0.0444
38401W        W39265  18.114  15.115   8.478 -0.0163 -0.0918  0.2190
38402W        W39266  20.747  11.504   6.138 -0.0390 -0.1648  0.5588
38403W        W39267  19.439  11.848   3.170  0.4170 -0.4640  0.1894
38404W        W39268  19.512  10.122   4.870 -0.2117 -0.1986 -0.0606
38405W        W39269  20.204  12.258   8.760  0.1728 -0.0354  0.2016
38406W        W39270  20.060  11.029   6.662  0.3768 -0.0854 -0.2791
38407W        W39271  18.764  11.105   2.279 -0.0968 -0.0847 -0.0844
38408W        W39272  21.098   9.567   5.812 -0.0527  0.1987  0.1966
38409W        W39273  17.855  16.597   9.091 -0.2452  0.0494  0.0321
38410W        W39274  21.622  13.338   3.644  0.4188 -0.0824  0.0610
38411W        W39275  21.399  14.670   8.896 -0.3855 -0.0720  0.0230
38412W        W39276  19.951  12.397   5.627  0.1179 -0.1439 -0.2369
38413W        W39277  21.944  12.544   3.301 -0.1685 -0.2727  0.0456
38414W        W39278  19.230  11.167   3.931 -0.2137 -0.2164  0.0426
38415W        W39279  19.999  11.936   5.362  0.2424  0.1480 -0.2748
38416W        W39280  19.690  12.432   5.181 -0.1583 -0.0476 -0.0767
38417W        W39281  21.145  12.831   7.928  0.0366  0.2389 -0.0994
38418W        W39282  17.811  12.745   7.159 -0.1075 -0.2614 -0.2906
38419W        W39283  18.977  11.642   6.172 -0.2788 -0.3357 -0.0321
38420W        W39284  18.249  12.062   8.795  0.2205  0.1152  0.2369
38421W        W39285  18.625  17.569   7.122  0.0976  0.0501  0.0505
38422W        W39286  18.552  11.848   6.336  0.0888  0.2993  0.0305
38423W        W39287  19.856  12.707   6.388  0.0799 -0.2208 -0.1353
38424W        W39288  19.541  13.869   7.380  0.0265 -0.2418  0.2982
38425W        W39289  19.419  14.741   2.601  0.0394  0.1842 -0.2491
38426W        W39290  20.073  11.483   5.259 -0.0910 -0.1635  0.0357
38427W        W39291  20.843  11.167   5.684  0.0156 -0.1882  0.1690
38428W        W39292  22.950  14.871   5.665  0.2085 -0.1582  0.0430
38429W        W39293  20.495  14.379   5.086 -0.3770 -0.5278 -0.1734
38430W        W39294  22.088  13.103   4.272  0.1194  0.1989  0.0476
38431W        W39295  21.488  11.178   3.355 -0.0227  0.2976 -0.0676
38432W        W39296  23.586  16.690   8.077 -0.2118 -0.0610 -0.3943
38433W        W39297  20.083  13.253   6.647  0.0330 -0.1562 -0.0765
38434W        W39298  20.788  12.313   9.961  0.0173  0.0137  0.0526
38435W        W39299  17.820  11.279   7.976  0.4736 -0.1193  0.0975
38436W        W39300  17.216  11.395   3.164 -0.3364 -0.1001  0.0624
38437W        W39301  20.547  12.491   5.521 -0.1095 -0.1432 -0.1558
38438W        W39302  19.329  11.699   5.747 -0.1105 -0.1249  0.0012
38439W        W39303  21.839  10.140   6.307  0.2055 -0.0992 -0.0641
38440W        W39304  19.721  15.746   6.651  0.2841 -0.0400 -0.0856
38441W        W39305  20.804  15.102   7.488  0.1053 -0.0228  0.0916
38442W        W39306  20.791  13.806   8.298  0.0728  0.2739  0.0190
38443W        W39307  20.726  12.596   2.351  0.3531  0.2075  0.0079
38444W        W39308  24.295  10.747   2.633  0.0512  0.1170 -0.1758
38445W        W39309  25.052   9.954   4.064  0.0716  0.0917 -0.0363
38446W        W39310  18.798  13.392   7.008 -0.0651  0.2006  0.0209
38447W        W39311  22.947  11.217   2.545 -0.1519  0.1442 -0.0054
38448W        W39312  19.506  12.854   2.889 -0.0917 -0.3322 -0.2704
38449W        W39313  20.322  15.353   9.547  0.0638  0.0652 -0.0412
38450W        W39314  20.336  14.077   7.452 -0.0261  0.1497  0.1687
38451W        W39315  19.527  10.292   5.759  0.0424  0.0834  0.1587
38452W        W39316  20.120  11.034   7.514 -0.0838 -0.0402  0.0084
38453W        W39317  18.750  12.350   7.177 -0.0528 -0.2813  0.6320
38454W        W39318  22.087  13.197   5.749  0.1218  0.1310 -0.0037
38455W        W39319  19.276  12.799   8.924  0.0286  0.0739  0.0386
38456W        W39320  17.958  16.038   8.345 -0.1514 -0.1606 -0.4009
38457W        W39321  17.500  13.625   6.105  0.1192 -0.0695 -0.2424
38458W        W39322  17.345  10.851   6.670  0.0516  0.2608 -0.0293
38459W        W39323  21.910   9.782  10.110  0.2222 -0.1209  0.0182
38460W        W39324  23.431  16.210   7.103 -0.0832  0.1069 -0.0845
38461W        W39325  21.583  13.040   8.163 -0.0199  0.2574 -0.1231
38462W        W39326  17.873  14.358   4.432 -0.8210 -0.0788 -0.2170
38463W        W39327  20.306  17.300   8.231  0.0841 -0.0146 -0.1322
38464W        W39328  19.306  13.383   6.593  0.0155  0.1584 -0.3295
38465W        W39329  22.194  10.187   4.950 -0.3374 -0.3921 -0.4242
38466W        W39330  21.287  15.380   6.887  0.1232 -0.0750 -0.1495
38467W        W39331  19.433  12.783   3.400  0.1339 -0.1489 -0.0482
38468W        W39332  21.921  12.569   4.307 -0.1391 -0.1187 -0.0331
38469W        W39333  21.543  13.015   1.478 -0.0528 -0.1928  0.1947
38470W        W39334  20.841  11.133   3.361 -0.4864 -0.2185 -0.2112
38471W        W39335  22.080  12.531  10.531  0.1008 -0.0161 -0.2165
38472W        W39336  23.526  12.080   2.879  0.0169 -0.2223 -0.1413
38473W        W39337  19.783  17.641  11.977 -0.0840  0.0024 -0.0138
38474W        W39338  16.975  12.267   8.251  0.2828 -0.2585 -0.1122
38475W        W39339  18.711  11.948   2.392 -0.1343  0.2173  0.0997
38476W        W39340  15.194  14.803  11.445  0.0395 -0.3885  0.2409
38477W        W39341  17.269  12.353  11.106 -0.0145 -0.0800  0.0873
38478W        W39342  20.722  13.891   7.122  0.0408 -0.0395 -0.1841
38479W        W39343  25.199  15.036   9.565  0.0844  0.0675 -0.1962
38480W        W39344  22.073  17.095   7.820  0.0696  0.1806 -0.2342
38481W        W39345  19.721  12.466   8.640  0.0598  0.3877 -0.1412
38482W        W39346  19.417  11.176  10.640  0.0736 -0.0912  0.0753
38483W        W39347  19.497  11.504   9.650 -0.1367  0.1204 -0.1416
38484W        W39348  20.370  15.517  12.560 -0.1869  0.0528 -0.2859
38485W        W39349  16.464   8.716  10.186  0.3275 -0.1924  0.2416
38486W        W39350  18.919   8.259  11.080 -0.0315  0.0538 -0.0653
38487W        W39351  21.429  11.245   8.644 -0.0070 -0.0120 -0.0017
38488W        W39352  20.718  12.938   7.697  0.1149 -0.0712  0.1055
38489W        W39353  20.347  11.396   7.858  0.2955 -0.0487  0.0239
38490W        W39354  16.590  12.737  10.769  0.4572 -0.0686  0.2007
38491W        W39355  18.788  13.199  10.689  0.4423 -0.0230 -0.1856
38492W        W39356  20.859  14.722   7.879 -0.2712 -0.0830  0.0975
38493W        W39357  17.784  12.478   7.930  0.0475  0.1465  0.2570
38494W        W39358  17.089   8.167  13.133  0.2619  0.1693  0.0002
38495W        W39359  23.049  13.969   7.637  0.1077  0.1389  0.0714
38496W        W39360  18.630  15.229  12.223  0.0907 -0.2057 -0.0974
38497W        W39361  19.207  11.181  11.160 -0.1983  0.1417 -0.0643
38498W        W39362  21.242  13.404  10.617 -0.0093 -0.1242 -0.0656
38499W        W39363  17.675  12.383  10.426  0.0390 -0.0823 -0.2989
38500W        W39364  17.322  10.955  10.604  0.2230 -0.0468  0.2600
38501W        W39365  18.406  11.250   8.787  0.0713  0.1701  0.1470
38502W        W39366  20.768  12.822  13.547  0.0386 -0.0068  0.1445
38503W        W39367  19.552  11.763   8.069  0.1576 -0.1037  0.1731
38504W        W39368  20.261  13.432   9.404 -0.6046  0.3027 -0.0576
38505W        W39369  19.989  15.825  12.406 -0.0498  0.0951  0.1651
38506W        W39370  20.110  12.237   9.968 -0.5112 -0.0971 -0.0877
38507W        W39371  20.616  12.521  11.310 -0.0482 -0.0113 -0.1286
38508W        W39372  19.899  12.672  10.058 -0.0035  0.2107 -0.2023
38509W        W39373  20.722  10.223  10.170  0.0218 -0.1649  0.2285
38510W        W39374  19.230  12.567   9.784  0.1959  0.0039 -0.0427
38511W        W39375  21.643  15.533  10.090  0.0330  0.2369  0.2826
38512W        W39376  20.106  10.222   9.054 -0.1240 -0.0507 -0.0639
38513W        W39377  20.659  12.869  11.960  0.0583  0.2638 -0.0642
38514W        W39378  20.961  14.436  11.093 -0.1454  0.0715 -0.0595
38515W        W39379  20.224  11.711   8.509 -0.0161 -0.1705 -0.2521
38516W        W39380  20.033   9.294   6.018 -0.0633 -0.4451 -0.0891
38517W        W39381  21.559  13.152  10.214  0.0831 -0.1632 -0.1524
38518W        W39382  17.612  11.894  10.422 -0.1523  0.3745  0.0662
38519W        W39383  22.123  13.824   8.363  0.5311 -0.0734  0.0028
38520W        W39384  16.710  15.722  10.284  0.2772  0.0414  0.0415
38521W        W39385  17.807  15.278   9.603 -0.3659  0.1191  0.0574
38522W        W39386  18.834  10.259   9.408 -0.0488 -0.1892  0.2076
38523W        W39387  20.378  12.110   9.343  0.4015  0.1579  0.0302
38524W        W39388  21.034  11.032   8.422 -0.1852 -0.2242  0.0989
38525W        W39389  20.838  12.452   4.584 -0.0275  0.0513 -0.2200
38526W        W39390  21.404  13.639  10.118 -0.3368  0.1920  0.0649
38527W        W39391  20.607  11.758   8.123  0.0393  0.3306  0.1338
38528W        W39392  18.487  15.773   9.330 -0.1422  0.1810 -0.1010
38529W        W39393  22.602  14.912   8.544 -0.0604  0.2071  0.0490
38530W        W39394  19.437  10.856   6.481 -0.1202 -0.3494 -0.4726
38531W        W39395  19.737  13.512   8.907  0.1473 -0.1397 -0.0650
38532W        W39396  20.117   9.695   6.342 -0.5260 -0.0177 -0.0195
38533W        W39397  20.075  11.806   7.999 -0.1600 -0.4551 -0.1593
38534W        W39398  20.789  14.511  10.652  0.2681  0.0165 -0.0065
38535W        W39399  19.468  17.532   8.720  0.3482  0.0325 -0.2069
38536W        W39400  21.673  11.589   8.181 -0.0642  0.0673  0.1451
38537W        W39401  19.378  13.690  11.767  0.1976 -0.0400  0.0699
38538W        W39402  19.851  12.647  12.213 -0.1540  0.1494  0.0037
38539W        W39403  19.311  13.191  11.596 -0.3869  0.1358  0.1671
38540W        W39404  17.621  12.780  10.824  0.1418 -0.2694  0.1060
38541W        W39405  21.363  11.369   6.986  0.0702 -0.4660  0.1840
38542W        W39406  19.841  13.209   7.546  0.0155  0.0558  0.2443
38543W        W39407  17.218  11.829   9.812  0.3548  0.0287  0.0410
38544W        W39408  20.392  12.678  10.044  0.1835  0.1615 -0.0954
38545W        W39409  18.854  12.917   8.678  0.3045 -0.0888  0.0221
38546W        W39410  21.282  15.919  10.307 -0.2490 -0.1516 -0.1144
38547W        W39411  21.115  12.573   5.001  0.2566 -0.0886 -0.1830
38548W        W39412  25.554  14.526   9.810  0.1831 -0.2156  0.1073
38549W        W39413  20.498  11.030  10.743  0.0286  0.0466  0.0417
38550W        W39414  21.042  12.920   6.335 -0.1850  0.0513 -0.0119
38551W        W39415  21.739  12.390   9.707  0.0366  0.0862  0.2098
38552W        W39416  20.702  12.527  10.711 -0.0035  0.4642  0.0192
38553W        W39417  19.869  13.022  10.693  0.1388 -0.0116  0.1165
38554W        W39418  20.137  12.712   8.474  0.1305  0.1921 -0.1148
38555W        W39419  21.751  12.889   8.620  0.2447  0.1439 -0.1324
38556W        W39420  18.142  12.280  10.233  0.1359 -0.0776  0.4346
38557W        W39421  19.461  14.047  10.905  0.2958 -0.3717  0.0715
38558W        W39422  18.916   9.454   9.333  0.2136  0.0129 -0.1228
38559W        W39423  22.013  13.023  10.397  0.0540 -0.4132 -0.0218
38560W        W39424  18.377   9.824  10.606  0.1555 -0.1804  0.0791
38561W        W39425  21.681  10.743   9.675  0.2211  0.0110 -0.0725
38562W        W39426  21.140  15.099  12.004  0.0062 -0.0676  0.0786
38563W        W39427  20.637   9.313  10.989 -0.1296  0.0486 -0.1588
38564W        W39428  20.018  13.655  10.309 -0.0081 -0.0273  0.0844
38565W        W39429  21.597  12.493  10.594  0.0220  0.1468 -0.0841
38566W        W39430  22.240  10.222   8.144  0.0383  0.1667 -0.2487
38567W        W39431  19.273  14.047  12.744 -0.0685 -0.2152 -0.0741
38568W        W39432  17.386  16.306  10.824 -0.0245  0.1607 -0.2450
38569W        W39433  21.958  14.238   9.625  0.0397 -0.2920  0.0315
38570W        W39434  19.494  10.597  10.543  0.2973  0.0829  0.1521
38571W        W39435  21.557  10.641   7.891  0.0010  0.0350 -0.1428
38572W        W39436  22.735  12.910  10.008 -0.1979  0.2907 -0.3512
38573W        W39437  16.768  16.387   8.714 -0.2548 -0.2714 -0.2942
38574W        W39438  19.347   9.709   8.920  0.0094 -0.0715  0.0249
38575W        W39439  21.205  13.779   9.622 -0.0872  0.0271 -0.0849
38576W        W39440  22.432  13.097   7.903 -0.0266 -0.1480  0.0731
38577W        W39441  19.773  11.339   7.878  0.0062  0.1291 -0.5459
38578W        W39442  20.567  13.232   8.188  0.2054 -0.0664  0.1779
38579W        W39443  21.512  15.058  12.305 -0.0231  0.1037  0.1914
38580W        W39444  21.972   9.141  10.824  0.3178  0.2140  0.0993
38581W        W39445  20.049  11.663  12.256 -0.0683  0.2194 -0.1165
38582W        W39446  18.852  14.426  10.176 -0.0926  0.2002 -0.1206
38583W        W39447  22.835  11.352  12.276 -0.4781  0.0707  0.0749
38584W        W39448  20.551  11.793   8.865  0.1911 -0.2318 -0.1951
38585W        W39449  18.921  10.949   7.994 -0.0505  0.1485 -0.1495
38586W        W39450  18.881  13.424   8.850 -0.1396  0.1949  0.0774
38587W        W39451  18.587  15.923   8.206 -0.1280  0.2209 -0.1139
38588W        W39452  23.101  12.668   9.650  0.0193 -0.4167 -0.3206
38589W        W39453  21.595  12.653  11.052 -0.1205 -0.0882  0.0530
38590W        W39454  21.011  14.317   8.719  0.2102  0.1049  0.0046
38591W        W39455  21.877  15.211   9.358 -0.0031  0.2245 -0.0358
38592W        W39456  22.425  11.939  10.037 -0.1184 -0.1060 -0.0268
38593W        W39457  20.727  13.669  10.425  0.1187  0.0744  0.1367
38594W        W39458  19.558   9.576  10.012 -0.0442 -0.3153 -0.1019
38595W        W39459  21.309  11.858   7.256 -0.1359 -0.2917  0.1584
38596W        W39460  24.138  13.350   8.265 -0.0307  0.0428  0.2571
38597W        W39461  21.788  14.629   7.982  0.1481  0.3011  0.1834
38598W        W39462  20.342  12.815   5.868  0.1438 -0.5803 -0.3651
38599W        W39463  21.526  13.498   4.817  0.2183  0.2320 -0.0060
38600W        W39464  17.373  13.476   9.573  0.0605  0.0565 -0.0580
38601W        W39465  23.264  13.362   8.530  0.3456 -0.0251 -0.3097
38602W        W39466  18.709  12.521   9.566 -0.2173 -0.0715  0.1749
38603W        W39467  21.382  13.877  10.527  0.2728 -0.0937 -0.0941
38604W        W39468  23.906  14.439   8.742 -0.1069  0.0690 -0.2560
38605W        W39469  19.100  16.459  11.941 -0.0538 -0.1314  0.0344
38606W        W39470  22.180  14.825   9.664 -0.1692  0.0027 -0.1318
38607W        W39471  16.326  10.860  10.567 -0.1172 -0.2911  0.2804
38608W        W39472  18.988  16.817  10.084 -0.1941 -0.1665 -0.1319
38609W        W39473  19.259  11.341   9.222  0.1898 -0.1308  0.0369
38610W        W39474  21.381  11.102   9.932 -0.0996 -0.2703 -0.2129
38611W        W39475  19.213  11.623  10.590 -0.0317  0.0203  0.0266
38612W        W39476  20.743  10.431  11.313 -0.2783  0.3073  0.0469
38613W        W39477  21.304  11.851   9.117 -0.1447 -0.3322  0.0984
38614W        W39478  23.104  13.087  10.332 -0.0995 -0.0346 -0.0205
38615W        W39479  20.819  13.117  10.574  0.0143 -0.1344  0.0043
38616W        W39480  17.003  11.049   9.193 -0.0660 -0.0630  0.1825
38617W        W39481  18.619  10.075   8.095  0.0258  0.2000  0.1553
38618W        W39482  19.264  14.026   9.474  0.1517 -0.1609 -0.0997
38619W        W39483  19.567  10.988   9.549 -0.1330 -0.2676 -0.0255
38620W        W39484  19.095  13.440  10.259 -0.1089 -0.0146 -0.0215
38621W        W39485  19.983   9.259  10.776 -0.3722  0.1335  0.2365
38622W        W39486  19.699   9.969   8.048  0.1713 -0.1228 -0.0134
38623W        W39487  21.556  14.122   9.398  0.2102 -0.0630  0.0309
38624W        W39488  21.172  14.543   9.315 -0.1264  0.0013 -0.2243
38625W        W39489  18.204  10.210  11.422  0.2305  0.0313  0.3145
38626W        W39490  21.614  15.637  11.080 -0.1177 -0.0404 -0.0599
38627W        W39491  19.525   9.153   8.302  0.1520  0.2910  0.0750
38628W        W39492  20.473  13.794  11.895  0.1348 -0.1821 -0.0576
38629W        W39493  19.226   9.847   9.360  0.0117 -0.2636  0.0304
38630W        W39494  17.209  10.566  10.955 -0.0561 -0.3632  0.0302
38631W        W39495  21.531  10.091  10.871 -0.0837  0.0204  0.2682
38632W        W39496  17.485  12.341   9.081  0.3504 -0.1370  0.1326
38633W        W39497  18.340  12.258   9.241  0.3546 -0.1347  0.2830
38634W        W39498  18.337  13.475   9.220  0.1205 -0.0267  0.4107
38635W        W39499  19.986  13.701   6.088  0.0280 -0.1518 -0.0701
38636W        W39500  22.309  10.774  10.033  0.0215  0.0451  0.0903
38637W        W39501  19.549  13.424   8.349  0.0838 -0.6063 -0.0397
38638W        W39502  20.864  13.487  10.948  0.0623 -0.3725  0.2757
38639W        W39503  22.950  14.372   8.597 -0.0836  0.2197  0.0146
38640W        W39504  20.474  10.934  12.388 -0.3161  0.0631 -0.0565
38641W        W39505  19.135  10.652   8.685 -0.3623  0.1234  0.0263
38642W        W39506  17.936  12.257   5.498 -0.2700 -0.1089 -0.0623
38643W        W39507  17.517  15.701   9.619  0.1322 -0.1585 -0.0301
38644W        W39508  18.666  12.272  11.616 -0.1212 -0.1730 -0.1068
38645W        W39509  20.181  13.956   9.669  0.0646  0.2724 -0.0295
38646W        W39510  21.714  11.563   9.999  0.0644  0.1362 -0.1302
38647W        W39511  21.828  11.982  10.645 -0.0153  0.1459 -0.0296
38648W        W39512  22.275  13.985   9.917 -0.3100 -0.2448  0.0538
38649W        W39513  19.440  12.808  10.172 -0.2060 -0.0482  0.2875
38650W        W39514  19.839   7.945   7.151 -0.1382  0.1426 -0.1348
38651W        W39515  20.945  13.837  10.010  0.1362  0.0249  0.2496
38652W        W39516  20.324  11.549  11.722 -0.2122 -0.0216  0.3101
38653W        W39517  19.205  12.793  13.600 -0.1148 -0.0082 -0.0500
38654W        W39518  19.397  14.713   7.503  0.0235  0.0133  0.1325
38655W        W39519  19.493  11.580   8.849 -0.0508 -0.3281  0.0464
38656W        W39520  19.878  15.456   8.611  0.0039  0.1634  0.0265
38657W        W39521  23.365  13.518   7.596 -0.1147 -0.0336 -0.2438
38658W        W39522  22.196  14.169   7.930  0.0705 -0.1492 -0.2256
38659W        W39523  20.510  12.948   6.324 -0.2140 -0.0583 -0.2378
38660W        W39524  21.127  12.208   7.549  0.0303 -0.1822 -0.1497
38661W        W39525  19.150  14.279  11.207  0.1408  0.1909 -0.4145
38662W        W39526  19.614  11.053   6.919  0.1729  0.1589  0.0218
38663W        W39527  19.930  14.981   8.441 -0.1920  0.2631  0.2331
38664W        W39528  18.502  13.871   9.026 -0.1325 -0.1881  0.0649
38665W        W39529  18.590  12.395  10.509  0.2739  0.2375 -0.1621
38666W        W39530  21.328  14.404   7.814 -0.0293  0.1529 -0.3051
38667W        W39531  19.903  13.531   7.916  0.1071  0.3410 -0.0180
38668W        W39532  17.771   8.822  10.829  0.0248  0.2381 -0.4909
38669W        W39533  16.714  11.316   7.363 -0.0373  0.1388 -0.1806
38670W        W39534  19.874   9.431  11.231 -0.0217  0.2516  0.0780
38671W        W39535  18.249  11.105   9.580  0.2669  0.0367  0.2042
38672W        W39536  22.373  12.102   7.573  0.6262 -0.0827  0.0902
38673W        W39537  16.536   8.704   9.550  0.1569  0.1429 -0.2407
38674W        W39538  16.887  12.721   8.436 -0.1439 -0.3062 -0.0657
38675W        W39539  20.961   8.597   7.968 -0.1075  0.0410  0.0450
38676W        W39540  18.016  12.940  10.291 -0.0804 -0.2922  0.2510
38677W        W39541  20.987  11.626   7.588 -0.2758  0.1774  0.0593
38678W        W39542  22.457  11.864   9.467 -0.2199 -0.1975  0.0879
38679W        W39543  17.512  11.896   9.432 -0.2207  0.1186 -0.3335
38680W        W39544  16.959  10.918   6.985 -0.0450 -0.0095  0.3002
38681W        W39545  21.079  13.041   9.335 -0.0488  0.0801 -0.1066
38682W        W39546  17.204  10.068  11.099  0.3086 -0.0313 -0.2211
38683W        W39547  19.021  14.252   5.886  0.2164 -0.2256 -0.3378
38684W        W39548  20.769  15.588   6.940 -0.2053  0.1405 -0.2086
38685W        W39549  18.878  12.314   8.683 -0.2077 -0.0889 -0.0476
38686W        W39550  18.338  13.960  10.592 -0.1150 -0.1246 -0.0367
38687W        W39551  18.396  12.046  11.981 -0.5933 -0.1347 -0.0353
38688W        W39552  20.023  12.249   8.264 -0.2033  0.0252  0.0923
38689W        W39553  20.853  10.612   9.158  0.2831  0.3080 -0.2200
38690W        W39554  19.939  14.032  10.700 -0.0907 -0.0977 -0.2812
38691W        W39555  21.161  13.622   6.765 -0.2591  0.1079 -0.0606
38692W        W39556  20.391  14.998   9.986 -0.2876 -0.0777  0.0277
38693W        W39557  22.851  16.045   8.396 -0.2264  0.4053 -0.0390
38694W        W39558  19.516  11.925  11.791 -0.0874 -0.1541  0.0976
38695W        W39559  20.244  14.182  11.418 -0.2046 -0.0323  0.1698
38696W        W39560  22.020  12.508  13.597 -0.1306  0.1318  0.2655
38697W        W39561  20.828  12.669   9.119  0.0098 -0.1871 -0.2019
38698W        W39562  17.659  14.840  10.567  0.2695 -0.2485  0.0584
38699W        W39563  19.862   9.672   9.078  0.0107  0.0860  0.1225
38700W        W39564  21.737  13.809   8.683 -0.0099 -0.0471  0.0693
38701W        W39565  16.237  11.796  11.491 -0.1202  0.0615 -0.2164
38702W        W39566  19.874  13.091  12.442  0.0078  0.1726 -0.0250
38703W        W39567  20.167   9.774   9.498  0.2644  0.1995  0.2578
38704W        W39568  22.413  14.456   8.713 -0.1708  0.1249 -0.1144
38705W        W39569  21.502  12.498   8.036 -0.1384 -0.1259 -0.2290
38706W        W39570  19.404   9.368   9.585 -0.2358  0.1051 -0.2324
38707W        W39571  17.453  10.747  11.940  0.1587 -0.0143  0.0437
38708W        W39572  20.897  10.261  12.989  0.2321  0.0946  0.0365
38709W        W39573  19.265  13.697   9.018 -0.1552  0.1637 -0.1105
38710W        W39574  16.786  11.860  13.438  0.0331  0.0512  0.0779
38711W        W39575  20.596  12.708   8.152  0.1600 -0.1134  0.1726
38712W        W39576  21.231  13.810  10.965  0.1859  0.0153  0.0603
38713W        W39577  20.385  10.866   9.758 -0.0336 -0.1141  0.2437
38714W        W39578  21.468  11.925  10.279  0.0965  0.1828 -0.0984
38715W        W39579  22.713  13.501  10.597 -0.2724  0.0514  0.0213
38716W        W39580  20.825  15.323   9.811  0.1150 -0.2586  0.0675
38717W        W39581  18.286  15.214  10.470 -0.0889  0.0902 -0.1118
38718W        W39582  19.853  14.384  11.799 -0.1377  0.0473  0.0321
38719W        W39583  17.167  13.057  11.334  0.0072  0.4325  0.3453
38720W        W39584  20.292  10.389  10.024  0.2937  0.2615  0.0229
38721W        W39585  20.015  13.226   8.579 -0.0248  0.1670 -0.0277
38722W        W39586  25.034  13.464   9.255 -0.1064  0.0841  0.0519
38723W        W39587  17.993  12.373  12.805 -0.2446 -0.1166  0.0820
38724W        W39588  22.468  16.801   7.516 -0.0915  0.0911 -0.2164
38725W        W39589  18.475  12.456   7.634  0.1463 -0.3950  0.0364
38726W        W39590  20.243  12.721   8.973  0.0404 -0.1624  0.1358
38727W        W39591  18.189  14.312  10.168  0.0940 -0.2818 -0.0382
38728W        W39592  19.062  15.934  11.940 -0.1440  0.1622 -0.0202
38729W        W39593  20.387  11.577   9.358  0.3143 -0.0781  0.0768
38730W        W39594  19.323  12.353   9.317  0.0559  0.0715  0.0004
38731W        W39595  21.029  14.332   9.796 -0.4019 -0.0354  0.0729
38732W        W39596  21.962  11.442  10.878  0.1341 -0.1021 -0.1766
38733W        W39597  20.139   8.036  12.712  0.0070 -0.2406 -0.0943
38734W        W39598  21.688  13.640   9.665 -0.1247 -0.0572 -0.2972
38735W        W39599  20.473  11.043   5.398  0.2116  0.2422 -0.0423
38736W        W39600  19.813  11.294  10.014  0.0459  0.3476 -0.0578
38737W        W39601  19.889  12.525  10.490  0.1206 -0.0139 -0.2087
38738W        W39602  18.679  11.896  10.395  0.0019  0.2064  0.0805
38739W        W39603  17.918  11.954   9.205  0.3107  0.2100 -0.2756
38740W        W39604  22.210  12.827  10.962 -0.0022  0.4742  0.4372
38741W        W39605  17.560  14.432  11.341 -0.1322 -0.1000 -0.0161
38742W        W39606  19.086  14.631  11.610  0.0045  0.1680  0.0317
38743W        W39607  18.861  12.996  10.165  0.2413 -0.0232 -0.0074
38744W        W39608  19.387  12.189   8.855 -0.1869 -0.1358 -0.0950
38745W        W39609  19.827  10.061   6.009 -0.2447  0.1592 -0.1555
38746W        W39610  18.333  14.192   7.569  0.3387  0.1083  0.0295
38747W        W39611  20.625   9.950   9.271 -0.0700 -0.0809 -0.0023
38748W        W39612  21.361  10.404   9.940  0.0986 -0.1466  0.1471
38749W        W39613  19.379  10.305   7.266 -0.0818 -0.2140 -0.3978
38750W        W39614  23.886  14.843  10.387 -0.1727 -0.0919  0.0685
38751W        W39615  20.607   8.661  12.915 -0.1643 -0.0544 -0.1811
38752W        W39616  16.327   9.445  11.779 -0.0063  0.0063 -0.1307
38753W        W39617  18.504  11.648   9.123 -0.1367 -0.0571 -0.0138
38754W        W39618  18.978  13.793  12.017  0.3096 -0.0791 -0.0959
38755W        W39619  18.169  11.720   9.542 -0.1143 -0.2307 -0.0834
38756W        W39620  21.041  11.869   9.887  0.3088  0.1317  0.0175
38757W        W39621  21.544  12.348   7.243 -0.2769  0.1018  0.2277
38758W        W39622  18.965  11.564   8.883 -0.0785  0.0076 -0.0203
38759W        W39623  21.390  15.024   9.292 -0.1118 -0.2473  0.0923
38760W        W39624  20.300  13.432   8.912 -0.0565 -0.0472 -0.3068
38761W        W39625  21.862  10.573  10.087 -0.2349  0.0672 -0.2349
38762W        W39626  22.948  14.734   9.975  0.3267 -0.0655  0.0778
38763W        W39627  17.791  11.048  10.834 -0.0309  0.1137  0.0296
38764W        W39628  21.110  12.384   9.504  0.1120 -0.0641  0.0869
38765W        W39629  21.688  13.957   5.566 -0.2559  0.2255 -0.1527
38766W        W39630  20.390  13.291   7.662  0.4911  0.2294  0.0123
38767W        W39631  21.026  12.440   8.259 -0.2027 -0.1123  0.4196
38768W        W39632  22.468   9.887  10.795  0.0266  0.1818 -0.0447
38769W        W39633  17.670  15.090  12.489  0.0117 -0.2455 -0.1602
38770W        W39634  19.836  10.330  10.262 -0.1152  0.0808  0.0237
38771W        W39635  19.237  11.280   7.773  0.0959 -0.4017  0.0648
38772W        W39636  19.589  13.972  10.332 -0.5173 -0.1239 -0.0306
38773W        W39637  22.345  11.240  10.070  0.1571 -0.1345 -0.0399
38774W        W39638  23.149  11.632   7.544 -0.1740  0.2092  0.0976
38775W        W39639  20.398  13.269  12.350  0.1440  0.3913 -0.0655
38776W        W39640  21.353  13.189   6.560  0.1344 -0.0852 -0.1010
38777W        W39641  18.938  13.301  12.846  0.1406  0.2954  0.1381
38778W        W39642  19.409  12.842  11.981 -0.1502 -0.0802  0.2024
38779W        W39643  20.476  14.275   8.911  0.3146  0.1187 -0.1018
38780W        W39644  21.098  14.132   6.419  0.1879 -0.3029 -0.0821
38781W        W39645  20.025  13.110  10.204 -0.1685  0.2466  0.0599
38782W        W39646  18.814  13.476  11.642 -0.1142 -0.0377 -0.1246
38783W        W39647  21.415  11.335   9.118  0.1235  0.1750  0.0730
38784W        W39648  15.780  12.400   9.286  0.1154 -0.3369 -0.1587
38785W        W39649  17.509  14.588   9.818 -0.0493 -0.0797 -0.0404
38786W        W39650  17.790  12.091   9.899 -0.0891  0.2022 -0.0860
38787W        W39651  19.852  13.211   9.298 -0.3386 -0.0602 -0.2240
38788W        W39652  19.230  11.853   8.511 -0.1727  0.2816  0.0319
38789W        W39653  18.944  13.610   9.412  0.0049  0.1111 -0.0340
38790W        W39654  17.958  11.890  11.714 -0.0027 -0.0089 -0.3615
38791W        W39655  18.718  13.071   9.151  0.1928 -0.0908  0.0599
38792W        W39656  21.870  11.509   8.716  0.0454  0.3165  0.2093
38793W        W39657  20.367  12.829  10.522 -0.0887  0.1939 -0.1884
38794W        W39658  22.004  15.317   9.825 -0.0058  0.1000  0.0495
38795W        W39659  22.354  11.099   7.803  0.1926 -0.1180 -0.0112
38796W        W39660  20.512  12.237   8.324 -0.0431 -0.0241  0.0495
38797W        W39661  20.681  13.868   6.592  0.1633 -0.1327 -0.1779
38798W        W39662  19.378  12.491  10.609  0.4629  0.1246  0.1231
38799W        W39663  21.465  10.810  10.281 -0.1689 -0.0433  0.0176
38800W        W39664  16.675  15.366   8.552 -0.0900  0.1595  0.6006
38801W        W39665  19.942  15.962  10.738 -0.2118 -0.0090 -0.1562
38802W        W39666  20.629  10.435   8.238  0.2581 -0.1760  0.0469
38803W        W39667  21.517  14.490   7.270 -0.1979 -0.3058 -0.2345
38804W        W39668  21.312  12.788   8.977 -0.1719 -0.0730 -0.3686
38805W        W39669  19.801  11.460   8.375  0.2678 -0.4064  0.1177
38806W        W39670  17.459  13.740  10.053 -0.1668  0.1103 -0.0402
38807W        W39671  20.327  10.657  11.067 -0.2980  0.2337 -0.1651
38808W        W39672  20.076  11.588  13.005 -0.0071  0.1134  0.2240
38809W        W39673  19.623  16.196   9.880 -0.0028  0.0174 -0.0742
38810W        W39674  23.525  12.233  12.252  0.1534 -0.0749  0.0483
38811W        W39675  19.266  14.244  11.823  0.1089  0.0018 -0.0238
38812W        W39676  20.078  15.023  10.449  0.0015  0.0651 -0.1022
38813W        W39677  23.488  15.552  10.954 -0.1913 -0.0140  0.0768
38814W        W39678  20.242  12.756   6.727  0.0483 -0.2064 -0.0604
38815W        W39679  20.488   9.780   8.345  0.1084 -0.0945  0.0996
38816W        W39680  20.478  11.853  11.239 -0.1762  0.0107 -0.2223
38817W        W39681  20.045  11.333   8.783 -0.0343 -0.2333 -0.0451
38818W        W39682  18.252  12.229   9.736  0.0763 -0.1914  0.0745
38819W        W39683  19.891  14.041   7.690 -0.0767  0.1546 -0.0258
38820W        W39684  21.520  11.923   9.748  0.2285 -0.0896  0.0263
38821W        W39685  19.591  14.123   8.992  0.1484  0.2467  0.1152
38822W        W39686  18.615  14.489   8.819 -0.0499  0.3530 -0.1231
38823W        W39687  16.418  12.288   9.550  0.0234  0.1229 -0.1956
38824W        W39688  19.535  13.325  11.021  0.0352 -0.0352  0.0893
38825W        W39689  19.154  11.871   7.210 -0.0416  0.1663 -0.0216
38826W        W39690  21.653  10.915   9.225 -0.1584 -0.2976 -0.2440
38827W        W39691  20.362  13.861   9.209 -0.1178  0.2122  0.2149
38828W        W39692  21.914  12.420   8.250  0.0883 -0.1812  0.2316
38829W        W39693  20.074  11.746  10.135 -0.0447 -0.1441 -0.0125
38830W        W39694  19.004  12.522  10.247  0.1560 -0.0064  0.0376
38831W        W39695  18.433  12.018   7.416 -0.0749 -0.0376  0.1553
38832W        W39696  20.609  11.757  10.242 -0.2740  0.1421  0.3001
38833W        W39697  20.223  14.648  13.818 -0.1678 -0.2414 -0.0647
38834W        W39698  16.399   8.773  13.344  0.0226  0.0110 -0.4321
38835W        W39699  20.102  13.076   8.080 -0.1415 -0.0982  0.1514
38836W        W39700  20.718  12.911   6.987  0.2630 -0.0776  0.2352
38837W        W39701  20.053  10.259   9.588  0.0028 -0.0265  0.4587
38838W        W39702  18.161  10.557  10.033  0.0241  0.0915  0.1579
38839W        W39703  21.336   8.442   9.259  0.1187  0.1117  0.1379
38840W        W39704  20.234  13.003   9.742  0.1958 -0.1849 -0.0459
38841W        W39705  20.825  13.549  11.483  0.2894 -0.1560 -0.0500
38842W        W39706  21.036  12.153  10.462 -0.3816 -0.1037  0.2444
38843W        W39707  22.171  13.174   9.318  0.1150  0.0306 -0.2450
38844W        W39708  21.927   9.930   5.834  0.3072  0.0283 -0.1485
38845W        W39709  18.953   8.880   8.168 -0.1165  0.1458 -0.1765
38846W        W39710  19.538  15.755   8.846  0.0304  0.1740  0.3227
38847W        W39711  22.076  11.560  10.320  0.0650 -0.3226  0.1844
38848W        W39712  20.137  12.537   9.513  0.5182  0.0355  0.1663
38849W        W39713  24.294   9.771  10.410  0.0083 -0.2907 -0.1719
38850W        W39714  20.707  16.358   9.847 -0.0647 -0.0008  0.2656
38851W        W39715  19.340   7.770   8.465  0.1371  0.0423 -0.0852
38852W        W39716  17.637  10.452   9.798  0.0910 -0.1064 -0.2072
38853W        W39717  22.235  13.707  10.367  0.0651  0.1541  0.0120
38854W        W39718  22.049   8.899   9.848  0.2087 -0.0865  0.1385
38855W        W39719  16.508  13.201  10.436  0.0069  0.0471 -0.1250
38856W        W39720  21.107  16.416   8.827  0.0048 -0.0181 -0.2738
38857W        W39721  17.176  14.975  10.755  0.0583  0.0990 -0.1987
38858W        W39722  16.585  12.402   8.746 -0.0336  0.4419 -0.2366
38859W        W39723  22.477  12.921  11.798  0.3655 -0.0927 -0.0279
38860W        W39724  21.277  14.772  10.748  0.1227  0.0678 -0.1440
38861W        W39725  22.809  14.001   9.868 -0.1490 -0.0366  0.0939
38862W        W39726  21.464  14.237   8.429  0.0856 -0.0356  0.0126
38863W        W39727  18.067  14.584  11.223  0.1120 -0.0120 -0.1426
38864W        W39728  18.729  11.192   9.298  0.2888  0.0029 -0.1121
38865W        W39729  19.692  12.255   9.576 -0.2405 -0.4855  0.0487
38866W        W39730  22.463  15.799  10.737 -0.0490  0.0223 -0.2242
38867W        W39731  20.292  12.217  10.893  0.1008  0.0486  0.0203
38868W        W39732  21.729  13.121   9.125  0.0766 -0.2328 -0.2184
38869W        W39733  21.020  14.021   9.174 -0.1131 -0.2278 -0.3447
38870W        W39734  18.882  12.552   9.115 -0.1149  0.0798 -0.0634
38871W        W39735  18.959   9.316  14.462  0.1259  0.0944  0.3994
38872W        W39736  20.743  14.310   6.807  0.2103 -0.3750  0.1165
38873W        W39737  19.269  12.374  11.109  0.1796 -0.0784  0.1503
38874W        W39738  21.199  12.766  10.691 -0.2887 -0.0895  0.2370
38875W        W39739  18.488  14.494  10.568 -0.1331  0.1489 -0.2256
38876W        W39740  19.238  15.166  15.975  0.2994  0.1539  0.1699
38877W        W39741  19.022  14.500  12.747 -0.0774 -0.1815 -0.3644
38878W        W39742  19.738  13.357  11.952 -0.2663  0.0294  0.2426
38879W        W39743  21.115  15.306  15.234 -0.1252 -0.0791 -0.1314
38880W        W39744  18.879  15.446  11.812 -0.0649  0.1935  0.1975
38881W        W39745  20.027  13.407  10.994  0.1644 -0.0274  0.0609
38882W        W39746  20.513  13.282  13.618 -0.0329  0.1090  0.2697
38883W        W39747  20.614  14.268  14.804  0.2179  0.2472  0.2988
38884W        W39748  18.765  16.010  15.891 -0.3525 -0.0615 -0.0683
38885W        W39749  19.034   9.950  11.190 -0.0459 -0.0529  0.0855
38886W        W39750  19.304  11.870  14.858 -0.0312  0.0319 -0.3612
38887W        W39751  20.102  10.666   8.815  0.1788  0.0281  0.0638
38888W        W39752  19.334   7.986  11.571  0.1762 -0.4100  0.0209
38889W        W39753  19.593  11.376  15.669  0.0195 -0.1299 -0.0516
38890W        W39754  17.477  11.435  12.583  0.3802 -0.2837  0.0207
38891W        W39755  19.201  14.724  16.305 -0.0728 -0.1277 -0.1911
38892W        W39756  19.400  11.853   9.280  0.1025  0.1181 -0.1357
38893W        W39757  17.748  13.930  11.496  0.1032  0.0438  0.3004
38894W        W39758  17.505  10.876  14.298 -0.0075 -0.0275 -0.0125
38895W        W39759  19.213  10.983  15.046 -0.0728  0.1974  0.1828
38896W        W39760  23.598  12.833  13.591  0.0204 -0.0147 -0.0036
38897W        W39761  17.655  13.094  11.212  0.1812  0.1128 -0.2565
38898W        W39762  22.001  17.223  15.038 -0.1788 -0.0106  0.2821
38899W        W39763  17.484  12.108  16.083  0.2764 -0.0407  0.0671
38900W        W39764  18.718  11.541  12.081 -0.1309  0.1127 -0.5399
38901W        W39765  16.834  11.168  13.059  0.1860  0.0784  0.1570
38902W        W39766  22.087   9.989  13.749 -0.1374  0.1363  0.1462
38903W        W39767  20.173  12.647  14.213 -0.1865 -0.0839 -0.1918
38904W        W39768  22.066  11.750  12.531 -0.1171  0.2667 -0.0094
38905W        W39769  20.942  12.357  13.008  0.0510 -0.1149  0.1447
38906W        W39770  19.964  10.428  13.442  0.0051  0.2018 -0.0351
38907W        W39771  17.883  12.864  16.694 -0.0427  0.0883  0.1599
38908W        W39772  21.301  10.757  15.971  0.0025 -0.0276  0.3135
38909W        W39773  20.264  12.576  11.830  0.0822  0.0563 -0.0182
38910W        W39774  17.842   9.191  13.830  0.0446  0.1523 -0.0605
38911W        W39775  21.733  10.615  17.641  0.0461  0.1420  0.1513
38912W        W39776  17.408  11.411  11.019  0.0192 -0.0003  0.3133
38913W        W39777  19.652  13.507  14.174 -0.0085 -0.0359 -0.1976
38914W        W39778  21.773  13.854  15.917 -0.1588  0.3007  0.0600
38915W        W39779  22.601  14.962  14.950 -0.2587 -0.1718  0.3030
38916W        W39780  20.019   8.954   8.842 -0.2125 -0.2666 -0.0793
38917W        W39781  22.234  12.259  15.155  0.1588  0.1436 -0.4284
38918W        W39782  19.731  14.704  16.458  0.0481 -0.1207 -0.0718
38919W        W39783  21.566  13.446  12.774 -0.2926 -0.1341  0.0976
38920W        W39784  19.865  14.868  12.911  0.0845 -0.0145 -0.1648
38921W        W39785  20.400  16.142  11.461 -0.2057  0.1063  0.1600
38922W        W39786  20.124  12.085  13.098  0.1189  0.1044  0.1153
38923W        W39787  21.708  12.228  15.986 -0.1014  0.0003  0.1976
38924W        W39788  20.264  12.995  12.759 -0.0672  0.0628 -0.1691
38925W        W39789  20.895   8.459  13.343 -0.0047 -0.1152 -0.1134
38926W        W39790  17.223  13.122  15.078  0.1566 -0.0940 -0.1605
38927W        W39791  18.539  11.637  12.855  0.0379 -0.0440 -0.5354
38928W        W39792  20.182  14.132  14.539 -0.0633  0.0628  0.0500
38929W        W39793  20.744  11.868  12.883 -0.3008  0.1847 -0.0352
38930W        W39794  19.271   9.357  13.505  0.0787 -0.2700  0.2564
38931W        W39795  19.214  16.145  12.380  0.2298 -0.0667 -0.1117
38932W        W39796  18.304   8.913  10.893  0.1665  0.0145  0.1231
38933W        W39797  20.643  12.519   9.531  0.2616  0.0384  0.0258
38934W        W39798  17.752  13.749  15.346  0.2292 -0.1245 -0.0840
38935W        W39799  23.117  13.188  10.827  0.2063  0.2248  0.0298
38936W        W39800  22.436  11.384  12.665 -0.1250 -0.0043 -0.1409
38937W        W39801  19.854  11.638  15.093  0.0676 -0.0798 -0.2326
38938W        W39802  18.222  13.494  15.312 -0.1742  0.1287  0.0320
38939W        W39803  18.404  13.616  12.658 -0.2366 -0.0295 -0.0748
38940W        W39804  21.252  10.098  14.452  0.2520  0.0512  0.2219
38941W        W39805  22.089  12.277  12.770  0.2046  0.1552 -0.1209
38942W        W39806  22.052  15.699  14.617 -0.0678  0.6252 -0.1080
38943W        W39807  19.483  10.988  11.931  0.0386  0.2284 -0.0347
38944W        W39808  20.412  15.092  11.218 -0.2290 -0.0870 -0.0514
38945W        W39809  19.755  14.872  13.485  0.1379  0.0630  0.1357
38946W        W39810  18.464  13.607  14.347  0.4272  0.0143  0.0494
38947W        W39811  17.994   7.584   9.181  0.0634  0.1229 -0.4188
38948W        W39812  22.082  14.843  14.982 -0.4134 -0.0936 -0.0946
38949W        W39813  20.831  10.513  15.853 -0.1237  0.0640  0.2312
38950W        W39814  20.656  13.763  12.391 -0.2601 -0.1195 -0.1023
38951W        W39815  19.775  12.000  12.683  0.2864  0.2291  0.1328
38952W        W39816  17.602  13.818  13.697  0.0312  0.2703  0.1072
38953W        W39817  18.337  13.212  14.081 -0.3230  0.0001 -0.1295
38954W        W39818  19.823  13.309  12.917  0.2369  0.1094  0.1125
38955W        W39819  18.860  12.458  12.145 -0.0278 -0.2158 -0.5520
38956W        W39820  17.492  11.444  13.042  0.3638  0.2036  0.0610
38957W        W39821  19.621  10.677  13.017  0.1821  0.0615  0.2717
38958W        W39822  19.095  11.683  11.115  0.0172  0.4658 -0.4968
38959W        W39823  19.696   9.908  14.238  0.1139 -0.1212  0.3410
38960W        W39824  20.572  12.341  12.715  0.2730 -0.2491 -0.1258
38961W        W39825  21.981  11.275   9.116  0.2023 -0.1122  0.3996
38962W        W39826  20.557  13.428  14.298 -0.1492  0.2741  0.0941
38963W        W39827  20.441   9.692  14.519 -0.3001 -0.1038 -0.1692
38964W        W39828  18.278  12.523  14.870 -0.1216  0.0971 -0.4407
38965W        W39829  22.639  12.064  14.974  0.1033  0.3479  0.1864
38966W        W39830  19.080  10.232  14.460 -0.2111  0.3062  0.1350
38967W        W39831  20.069  13.706  15.948 -0.0993 -0.1866 -0.1674
38968W        W39832  19.052  11.437  14.838 -0.0221 -0.0426 -0.0588
38969W        W39833  21.594  13.789  11.946  0.1804 -0.0025 -0.0043
38970W        W39834  18.032   9.540  14.459  0.1936  0.1005  0.1722
38971W        W39835  22.449  10.504  10.453  0.3519  0.1641  0.2661
38972W        W39836  21.196  10.390  10.408  0.3299  0.2182 -0.0464
38973W        W39837  18.475  15.276  16.617 -0.1122 -0.0226  0.1313
38974W        W39838  18.713  11.495  15.245  0.1533  0.1308 -0.0734
38975W        W39839  21.884  11.043  11.989  0.1694  0.0886  0.1550
38976W        W39840  22.259  14.752  10.403 -0.0859 -0.0310  0.0204
38977W        W39841  19.431  12.189  14.399 -0.2522  0.2305  0.0955
38978W        W39842  21.159  11.255  10.828 -0.1147  0.1380  0.0194
38979W        W39843  22.254  11.255  11.241 -0.0203  0.0324  0.0534
38980W        W39844  20.995  11.583  13.367  0.1309  0.0014  0.0483
38981W        W39845  20.577  11.894  14.551 -0.0322  0.0475  0.0859
38982W        W39846  21.301  15.169  12.836 -0.0391  0.1529  0.0578
38983W        W39847  21.301  12.439  15.581 -0.0921 -0.0021  0.1193
38984W        W39848  18.039  10.984  11.275 -0.4892  0.0220 -0.0014
38985W        W39849  18.437  13.808  11.918 -0.0964  0.1754  0.0683
38986W        W39850  18.725  10.715  13.571 -0.1550 -0.0958 -0.0870
38987W        W39851  20.047  12.844  14.767 -0.0831 -0.2794 -0.2638
38988W        W39852  21.089   7.856  13.916  0.2803 -0.3651  0.3144
38989W        W39853  22.254  14.655  14.140  0.1846 -0.2411  0.4181
38990W        W39854  20.726  12.363  12.193 -0.0793  0.0850 -0.1387
38991W        W39855  17.196  11.409  14.197  0.0293  0.0850  0.3009
38992W        W39856  17.806  13.586  12.913  0.1249 -0.1189  0.1325
38993W        W39857  21.223  10.015  15.138  0.1854 -0.2820 -0.0586
38994W        W39858  17.922  14.133  13.996 -0.2302 -0.0277 -0.3461
38995W        W39859  22.162  12.671  12.127 -0.4057 -0.2804 -0.2465
38996W        W39860  20.420   9.945  12.859 -0.0694 -0.2372 -0.2155
38997W        W39861  22.038  13.180  13.546  0.0184 -0.0049  0.2611
38998W        W39862  21.080  12.847  12.929  0.1654  0.5214 -0.2694
38999W        W39863  21.474  13.278  11.820 -0.1505 -0.1055 -0.1982
39000W        W39864  19.544  12.362  10.092  0.2506 -0.0131  0.1130
39001W        W39865  20.867   9.922  13.425  0.0904  0.2120 -0.3294
39002W        W39866  17.069   8.493  13.994 -0.2218  0.1773 -0.0401
39003W        W39867  20.880  11.951  14.111  0.0702  0.4310  0.3069
39004W        W39868  19.143  15.253  14.092  0.0814  0.1206 -0.0217
39005W        W39869  19.896  11.158  14.380  0.1320 -0.0763 -0.2064
39006W        W39870  18.970  13.853  16.120  0.0878  0.3671 -0.1481
39007W        W39871  20.785  10.069  12.555 -0.2351 -0.1457  0.3072
39008W        W39872  19.134  14.869  14.510 -0.0831  0.2015  0.0695
39009W        W39873  22.772  11.558   9.695  0.1200 -0.0301  0.1583
39010W        W39874  20.411  12.477  13.747  0.0310 -0.2462  0.0652
39011W        W39875  19.586  11.317  12.338  0.1976  0.1187 -0.1076
39012W        W39876  22.775  12.072  10.393  0.1204  0.1413 -0.0557
39013W        W39877  22.386  11.818  15.363 -0.1483  0.1556 -0.0546
39014W        W39878  19.862  12.995  11.172  0.0571 -0.1415 -0.0678
39015W        W39879  19.866  13.829  11.148 -0.2879  0.0573 -0.2531
39016W        W39880  18.436  13.192  11.729  0.0492 -0.1486  0.1252
39017W        W39881  20.566  11.134  16.197  0.1737 -0.2016  0.1620
39018W        W39882  19.161  13.548  10.761 -0.0647  0.2207 -0.4118
39019W        W39883  19.100  14.860  15.607  0.1291 -0.1046 -0.3729
39020W        W39884  20.253  15.605  16.225 -0.0218  0.0895  0.1476
39021W        W39885  19.543  10.831  11.009  0.1227  0.3067 -0.1587
39022W        W39886  23.373  11.037  12.668 -0.1112  0.0514 -0.0360
39023W        W39887  19.885  18.587  11.073 -0.0736  0.0274  0.0785
39024W        W39888  19.659  11.554  14.146  0.0044  0.0848 -0.3732
39025W        W39889  18.992  13.421  15.730  0.0719 -0.1244 -0.1554
39026W        W39890  21.474  14.494  13.237  0.2231  0.1475  0.1412
39027W        W39891  19.108  11.116  12.326 -0.1088 -0.1418 -0.3406
39028W        W39892  22.726  13.017  15.132 -0.0978 -0.1730 -0.2654
39029W        W39893  18.528  10.710   9.447 -0.1046  0.1046 -0.1398
39030W        W39894  21.631  14.555  14.148 -0.0642 -0.0987  0.2117
39031W        W39895  18.756  11.154  13.348 -0.1551  0.2976 -0.1382
39032W        W39896  16.688  10.161  14.500 -0.2194 -0.1967 -0.5024
39033W        W39897  20.019  14.846  11.958 -0.1538 -0.0253  0.1307
39034W        W39898  20.279   9.690  11.809  0.2905 -0.3176 -0.0861
39035W        W39899  20.341  10.386  12.542  0.1672  0.1649  0.0766
39036W        W39900  20.778  10.779  13.247  0.0625 -0.0082  0.1588
39037W        W39901  20.034  12.975  16.082 -0.3185  0.2738 -0.3182
39038W        W39902  19.436  13.397  16.136 -0.2542  0.1324  0.0132
39039W        W39903  23.367  12.765  14.741 -0.1650  0.1746  0.1862
39040W        W39904  19.460  12.546  13.907 -0.0525  0.0708 -0.3809
39041W        W39905  18.896  12.015  12.455  0.0610 -0.5797  0.0088
39042W        W39906  19.686  10.204  10.782 -0.1341 -0.0474  0.1186
39043W        W39907  17.888  11.851  14.215  0.0647  0.2285  0.1761
39044W        W39908  22.518  13.252  13.229  0.1899  0.0618 -0.0262
39045W        W39909  19.867  12.933  11.720 -0.0663  0.2769 -0.0552
39046W        W39910  19.890   9.880  13.284 -0.3975 -0.1412 -0.0617
39047W        W39911  19.134  11.583  12.607 -0.0951 -0.1390  0.0761
39048W        W39912  18.569  13.444  12.252 -0.2487 -0.0166  0.0936
39049W        W39913  21.349  12.221  11.713 -0.0579  0.0328 -0.1353
39050W        W39914  19.198   9.716  11.794 -0.0436 -0.5385  0.3828
39051W        W39915  21.259  11.824  12.976  0.1360 -0.3356 -0.0144
39052W        W39916  17.012  14.214  15.258 -0.2273 -0.3068  0.0740
39053W        W39917  19.185  11.551  12.078 -0.2516 -0.0247  0.1790
39054W        W39918  17.179  14.292  12.926  0.0995 -0.1663  0.0934
39055W        W39919  18.907  11.617  11.620 -0.1977  0.2474 -0.2386
39056W        W39920  19.456  12.809  10.963  0.0382  0.1689  0.0833
39057W        W39921  21.432  12.612  12.654 -0.3249 -0.1088  0.0972
39058W        W39922  18.622   9.992  11.589 -0.3209  0.1807  0.1127
39059W        W39923  20.082  10.821  10.259  0.1862 -0.2442  0.0170
39060W        W39924  19.448  14.673  11.240 -0.2037  0.1305  0.0913
39061W        W39925  22.110  10.994  16.724  0.0521 -0.2244  0.1041
39062W        W39926  20.541  11.453  12.493 -0.0683 -0.2130  0.0650
39063W        W39927  16.337  11.946  10.587  0.1895 -0.1091  0.0550
39064W        W39928  16.389  12.814  17.119 -0.0094  0.0914  0.2779
39065W        W39929  19.240  10.911  13.766  0.1607 -0.0451  0.1125
39066W        W39930  19.634  11.444  10.995 -0.1825 -0.2553 -0.2232
39067W        W39931  20.824  15.139  11.579 -0.0700  0.2690  0.3241
39068W        W39932  20.306   9.560  10.134  0.0004 -0.2108 -0.1105
39069W        W39933  22.089  10.376  15.601  0.4166 -0.0659  0.1887
39070W        W39934  18.708  11.042  14.988  0.4239  0.0618 -0.1763
39071W        W39935  21.737  10.127  12.999  0.0842 -0.0467 -0.1189
39072W        W39936  24.306  11.111  12.584 -0.0866 -0.1525  0.0320
39073W        W39937  17.916  10.565  11.641  0.1497 -0.0512  0.1171
39074W        W39938  17.107  12.366  10.608  0.0002  0.0042  0.0170
39075W        W39939  21.323  11.458   9.572  0.1955 -0.1301 -0.0771
39076W        W39940  15.204  14.959  10.432 -0.2948  0.0827  0.0680
39077W        W39941  20.140   9.332  14.451 -0.2259 -0.0071  0.0647
39078W        W39942  20.634  14.414  13.021 -0.1937 -0.2957  0.3714
39079W        W39943  21.517   9.145  13.926 -0.0177  0.2133  0.2963
39080W        W39944  21.496   9.725  16.038 -0.2557 -0.3745 -0.0393
39081W        W39945  17.237  11.829   8.999 -0.0427 -0.0765 -0.0413
39082W        W39946  18.154  10.813  13.191 -0.2094  0.0473 -0.0485
39083W        W39947  19.287   8.572  14.126 -0.3200  0.0209 -0.0457
39084W        W39948  19.849  15.267  12.647 -0.0997 -0.1769  0.1019
39085W        W39949  15.756  12.828  13.386 -0.2556 -0.2112  0.0194
39086W        W39950  19.951  10.624  10.701 -0.0604  0.0780 -0.1703
39087W        W39951  17.108  10.600  14.443  0.0422  0.2990 -0.0844
39088W        W39952  17.929  13.647  14.085  0.1144 -0.2931 -0.0582
39089W        W39953  20.598  11.458  14.207  0.4050  0.2295  0.0254
39090W        W39954  23.013  10.557  13.870  0.1851 -0.1337  0.0382
39091W        W39955  21.643  12.787  12.136 -0.2730  0.1610  0.1100
39092W        W39956  21.190  13.110  11.088  0.1353 -0.0067  0.0468
39093W        W39957  21.024  13.892  13.663  0.0998  0.0698 -0.0649
39094W        W39958  23.005  13.462  13.815 -0.3081  0.0160  0.1586
39095W        W39959  17.365  12.505  15.826  0.2528  0.0274  0.0819
39096W        W39960  21.452  13.173  14.281  0.0802  0.3822  0.1735
39097W        W39961  21.995  12.809  15.268  0.0376  0.0621  0.5139
39098W        W39962  19.492  15.257  14.463 -0.0922 -0.1062  0.0326
39099W        W39963  18.167  11.843  10.521 -0.2099 -0.3160  0.0824
39100W        W39964  22.968  15.661  10.785 -0.1453 -0.0479 -0.0282
39101W        W39965  19.592  11.549  12.815 -0.2357  0.2097  0.1480
39102W        W39966  21.543  14.743  11.828 -0.4748 -0.1821  0.0128
39103W        W39967  21.387   9.707  14.691 -0.3135  0.1883 -0.0757
39104W        W39968  20.194  16.360  14.035  0.2343  0.2348 -0.0742
39105W        W39969  20.781  15.162  14.796  0.1660 -0.1680  0.2458
39106W        W39970  19.762  10.767  15.767 -0.1179  0.0742  0.1741
39107W        W39971  21.905  10.840  16.252 -0.0924  0.1891  0.2242
39108W        W39972  19.057  14.264  13.166 -0.2396 -0.1948 -0.0973
39109W        W39973  19.518  12.695  11.424 -0.0124  0.0591  0.1524
39110W        W39974  19.622  10.332  12.649  0.2657  0.1716  0.2489
39111W        W39975  21.686  13.447  13.247  0.0856 -0.1091  0.1063
39112W        W39976  22.190  10.218  13.260 -0.0688 -0.0948 -0.1512
39113W        W39977  19.411  11.127  14.224  0.1229 -0.1050 -0.1718
39114W        W39978  19.457  15.677  14.031 -0.2166 -0.0468  0.0696
39115W        W39979  23.198  13.974  11.196 -0.1466 -0.2656 -0.0455
39116W        W39980  21.455  12.776   9.417  0.0254 -0.1092  0.1844
39117W        W39981  17.943  12.852  13.042 -0.1354  0.3212 -0.1175
39118W        W39982  21.404  10.741  10.801  0.0783  0.2256  0.1175
39119W        W39983  17.539  13.207  12.134 -0.0726  0.4170  0.0444
39120W        W39984  21.153  10.202  11.192  0.0039  0.1894 -0.2015
39121W        W39985  20.060  14.174  10.139  0.2738 -0.1821  0.0099
39122W        W39986  23.881  14.287  11.724  0.3316 -0.0205 -0.0174
39123W        W39987  20.209  14.242  15.121  0.3116 -0.1116  0.2584
39124W        W39988  23.477  18.173  11.814  0.0676 -0.1257  0.1386
39125W        W39989  19.914  11.599  11.454  0.2032  0.1927 -0.0068
39126W        W39990  19.503  12.652  12.537 -0.0346 -0.0651 -0.1855
39127W        W39991  17.118  16.672  14.697  0.1878  0.0810  0.0741
39128W        W39992  20.604  15.735  12.963  0.0834 -0.1211  0.1185
39129W        W39993  22.593  12.098  11.397  0.2541  0.2620  0.1093
39130W        W39994  20.380  14.059  10.480 -0.1013 -0.0753  0.0037
39131W        W39995  20.563  14.628  15.424  0.1656 -0.0212 -0.0561
39132W        W39996  24.284  12.405  10.074  0.3280 -0.0531 -0.1197
39133W        W39997  19.311   8.487  15.019  0.0401 -0.1619 -0.0309
39134W        W39998  19.565  11.925  13.189  0.0960  0.2341  0.0867
39135W        W39999  20.673  10.000  11.627 -0.0492 -0.0192 -0.1247
39136W        W40000  18.858  12.553  13.172 -0.0048 -0.0539 -0.0093
39137W        W40001  20.952  10.717  16.296  0.2440 -0.2499  0.1079
39138W        W40002  20.908  13.011  11.542 -0.2529 -0.0909 -0.0736
39139W        W40003  22.364  11.187  11.777 -0.0408 -0.2150  0.2663
39140W        W40004  20.197  14.554  12.644  0.1272 -0.2872 -0.2159
39141W        W40005  18.188  13.187  15.924  0.1723  0.2435  0.1056
39142W        W40006  19.182  12.498  11.704 -0.0683 -0.1722  0.1080
39143W        W40007  19.640  15.112  11.304 -0.1454  0.0707 -0.2476
39144W        W40008  19.001  11.012  14.530  0.1191  0.1307  0.2207
39145W        W40009  21.561  11.074   8.190  0.2010 -0.1091  0.1514
39146W        W40010  19.530  15.967  11.078  0.2140 -0.0554  0.1593
39147W        W40011  20.119  13.579  13.891 -0.4147  0.0149 -0.4565
39148W        W40012  21.445  12.727  11.641  0.2258 -0.0146  0.3536
39149W        W40013  17.731  12.250  13.913  0.1701  0.0175 -0.1709
39150W        W40014  20.564  13.762  13.874  0.1462  0.2878 -0.1658
39151W        W40015  20.215   8.369  13.110 -0.2030  0.0895  0.2927
39152W        W40016  19.440  11.552  11.432 -0.2208  0.0532 -0.0899
39153W        W40017  18.599  14.008  12.345  0.0240 -0.3099  0.2342
39154W        W40018  21.074  10.852  12.010 -0.2123  0.0548 -0.0063
39155W        W40019  17.538  12.957  15.953  0.2335 -0.1785  0.0776
39156W        W40020  18.859  12.035  14.359  0.0614  0.0297 -0.1709
39157W        W40021  21.310  10.797  11.291 -0.1161 -0.1461  0.3555
39158W        W40022  16.096  12.703  14.764  0.0946  0.2889  0.1226
39159W        W40023  19.158  13.893  15.589 -0.0936  0.0550 -0.1119
39160W        W40024  23.510  14.403  14.107 -0.0196  0.4071 -0.0449
39161W        W40025  22.327  10.692  11.879  0.0367  0.0879  0.2075
39162W        W40026  21.129  12.992  12.000  0.2277 -0.0774  0.1979
39163W        W40027  19.035  12.298  13.649  0.2377  0.0842 -0.1133
39164W        W40028  20.987  13.405  13.499 -0.2341  0.2479  0.1250
39165W        W40029  20.410  14.248  13.433 -0.0888 -0.0118  0.0038
39166W        W40030  19.070  13.660  12.528 -0.0769  0.2771  0.2529
39167W        W40031  19.115  11.166  11.635 -0.0244 -0.0204  0.1500
39168W        W40032  19.930  13.836  14.864 -0.1571  0.2825  0.1186
39169W        W40033  19.542  13.548  12.368  0.0477  0.1663  0.0477
39170W        W40034  17.028  14.823  15.601 -0.1984 -0.1268  0.0971
39171W        W40035  19.900  13.872  11.823 -0.2003 -0.0666  0.0702
39172W        W40036  20.605  11.528  10.719  0.1021  0.2262  0.3673
39173W        W40037  19.573  10.817  14.675 -0.2489 -0.1717 -0.0276
39174W        W40038  21.682  12.875  13.754 -0.0020 -0.0660  0.0234
39175W        W40039  18.170  14.505  12.514 -0.0641  0.0520 -0.2358
39176W        W40040  21.683  13.979  13.593 -0.1028 -0.1743 -0.0510
39177W        W40041  21.166   8.899  14.781 -0.2006 -0.0023 -0.0407
39178W        W40042  17.460  11.558  13.497  0.0913  0.3038  0.0667
39179W        W40043  24.044  14.500  13.678 -0.2480 -0.1598  0.0726
39180W        W40044  20.172  11.197   8.306  0.1603  0.0256  0.0182
39181W        W40045  20.660  13.969  11.287  0.0611  0.2705  0.0333
39182W        W40046  21.552  11.424  13.674 -0.1286 -0.0880 -0.1225
39183W        W40047  19.224   7.786  11.124 -0.2112  0.1012 -0.1765
39184W        W40048  21.789  10.473  11.165 -0.3528 -0.2471 -0.2031
39185W        W40049  16.936  11.540  14.759 -0.3053  0.0954  0.0641
39186W        W40050  18.981  10.665  10.850  0.0910  0.1742  0.1735
39187W        W40051  21.523  12.475  14.718  0.1424 -0.0216 -0.1168
39188W        W40052  20.614   9.853  10.520  0.2812 -0.1812  0.1177
39189W        W40053  18.661  12.681  13.654  0.0022 -0.4096 -0.2882
39190W        W40054  20.178  12.773  13.370 -0.1976 -0.0720 -0.2361
39191W        W40055  17.288  13.308  15.607  0.0428  0.3121  0.2153
39192W        W40056  23.350  13.510  11.296  0.2395  0.1925 -0.0852
39193W        W40057  19.996  11.914  11.099  0.2224  0.2749 -0.1687
39194W        W40058  17.946  14.193  15.772  0.2149  0.0768  0.2616
39195W        W40059  15.793  11.922  11.702  0.1504  0.0828  0.2257
39196W        W40060  19.560  10.790  12.489  0.0937 -0.0231  0.0714
39197W        W40061  22.426  16.343  10.853 -0.2907  0.0536 -0.2459
39198W        W40062  21.246  12.491  13.783  0.0410  0.2256 -0.0798
39199W        W40063  18.779  14.232  11.849 -0.2237 -0.1654  0.0155
39200W        W40064  20.509   9.718  12.288  0.0962 -0.3523 -0.1042
39201W        W40065  18.191  13.040  14.945 -0.1301  0.0843  0.0398
39202W        W40066  19.381  10.402  11.165  0.1173  0.1014  0.0338
39203W        W40067  18.645  11.594  13.564 -0.0284 -0.1572  0.0308
39204W        W40068  18.185  13.129  13.563 -0.1931  0.1082  0.0160
39205W        W40069  17.433  13.487  11.497 -0.1576  0.0546 -0.1363
39206W        W40070  21.262  11.664  14.300  0.0093  0.2316  0.0114
39207W        W40071  21.797  10.186   9.814  0.1586  0.0747  0.3073
39208W        W40072  21.798  12.786  14.249  0.1356  0.1547  0.2679
39209W        W40073  18.985  12.462  14.106  0.2097 -0.1256 -0.0997
39210W        W40074  21.400  14.548  14.621  0.0525  0.2136  0.3553
39211W        W40075  20.902  13.345  18.266  0.4394  0.0415 -0.0537
39212W        W40076  19.934  14.444  14.285  0.1267 -0.1039 -0.1349
39213W        W40077  22.101  13.764  12.689  0.2556 -0.2043  0.1829
39214W        W40078  18.673  13.698  13.857 -0.0825  0.1950 -0.2526
39215W        W40079  19.841  10.736  11.701 -0.0287  0.0020 -0.1160
39216W        W40080  20.991  13.454  13.991  0.0632  0.1946  0.0332
39217W        W40081  20.165  12.202  12.220  0.0251  0.3116 -0.1923
39218W        W40082  20.273  10.454  11.581  0.0605  0.0203  0.1114
39219W        W40083  20.228  15.003  12.436 -0.0779 -0.2814  0.1008
39220W        W40084  19.448  15.064  10.728 -0.0499 -0.1492 -0.0513
39221W        W40085  17.573  13.060  17.146 -0.0853  0.1562 -0.2545
39222W        W40086  21.282  13.564  14.570  0.1049 -0.2257 -0.0903
39223W        W40087  19.757  11.876  14.602  0.5507 -0.2776  0.2382
39224W        W40088  17.460  14.506  14.468 -0.1055 -0.0849 -0.2478
39225W        W40089  18.783  14.485  14.019  0.2183 -0.1517  0.2647
39226W        W40090  22.110  10.838  15.239  0.2646 -0.0017  0.1220
39227W        W40091  18.610  12.256  10.032  0.0026 -0.0307  0.0844
39228W        W40092  20.696  16.256  14.150 -0.2022  0.2347  0.3032
39229W        W40093  17.071  13.727  15.739  0.1381  0.3097  0.0988
39230W        W40094  18.474  14.825  13.786 -0.1380 -0.0518 -0.2831
39231W        W40095  18.330  13.267  10.068  0.0383  0.1389 -0.2831
39232W        W40096  20.548  13.743  16.053 -0.0545  0.0154  0.2729
39233W        W40097  19.331   8.928  14.629  0.1380 -0.0565  0.0241
39234W        W40098  19.209  12.821  12.968 -0.1572 -0.0648 -0.0025
39235W        W40099  18.515  15.826  12.036  0.0823  0.2253  0.1210
39236W        W40100  17.883  13.538  12.382 -0.0509 -0.1105 -0.1788
39237W        W40101  19.915  13.559  15.273  0.3343 -0.0495 -0.1504
39238W        W40102  20.276  13.562  11.449  0.0975  0.2843 -0.0057
39239W        W40103  23.266  11.525   9.500  0.0114  0.0639  0.2350
39240W        W40104  17.392  13.050  13.213  0.5487  0.3542  0.3018
39241W        W40105  20.597  13.969  14.323  0.0318  0.1090  0.1014
39242W        W40106  19.351  13.174  12.562 -0.0029 -0.3566  0.0029
39243W        W40107  20.273  11.904  12.628 -0.2390  0.0720 -0.2630
39244W        W40108  18.391  11.418  12.416 -0.2245  0.0177 -0.1630
39245W        W40109  18.699  10.320  13.227 -0.0342  0.0064  0.2219
39246W        W40110  19.553  14.002  12.153  0.2048 -0.2312  0.1637
39247W        W40111  21.846  12.383  12.363  0.0485 -0.0578 -0.2942
39248W        W40112  20.692  11.251  12.053  0.0207  0.3095 -0.0900
39249W        W40113  23.200  14.327  13.693  0.1081 -0.0462  0.1944
39250W        W40114  22.086  15.429  10.839 -0.0142 -0.2060 -0.2000
39251W        W40115  19.203  11.667  14.408  0.2936 -0.0876  0.2944
39252W        W40116  21.246  13.528  12.256  0.0481  0.0195  0.0131
39253W        W40117  20.624  12.929  14.010  0.0895 -0.2170  0.1545
39254W        W40118  21.217  10.949  13.873 -0.1043  0.0406 -0.3565
39255W        W40119  18.799  10.169  12.044 -0.2863  0.0539  0.1164
39256W        W40120  19.547  12.726  14.859 -0.2287  0.1589 -0.2364
39257W        W40121  18.092  15.162  13.926  0.1447  0.1959 -0.0227
39258W        W40122  18.764  14.031  14.266  0.0458 -0.2057  0.3812
39259W        W40123  21.137  13.745  12.739 -0.1132 -0.2223  0.0357
39260W        W40124  19.098  11.836  13.494  0.1274 -0.0113 -0.0504
39261W        W40125  21.728  13.291  12.276  0.1095 -0.1372 -0.1242
39262W        W40126  22.584  12.003  13.430 -0.0457  0.4723 -0.0558
39263W        W40127  20.637  13.903  13.084 -0.0785 -0.1828 -0.2989
39264W        W40128  19.097  12.984  14.095  0.0990  0.1110 -0.2583
39265W        W40129  21.251  15.179  15.712 -0.1150  0.0132 -0.1907
39266W        W40130  16.125  12.405  14.101 -0.0354  0.0372 -0.1011
39267W        W40131  17.836  12.706  17.481 -0.1542 -0.0517 -0.0111
39268W        W40132  20.899  16.450  15.013  0.4993  0.1906 -0.2383
39269W        W40133  21.542  15.584  15.453 -0.1699  0.0683 -0.0204
39270W        W40134  17.151  13.600  17.470 -0.0556 -0.0995 -0.3278
39271W        W40135  22.379  13.722  14.136 -0.0509 -0.1188 -0.0336
39272W        W40136  20.487  11.678  13.260 -0.0905 -0.2318 -0.1885
39273W        W40137  20.404  13.753  15.118 -0.1494 -0.0297 -0.0210
39274W        W40138  19.727  13.961  14.313 -0.0745  0.1973 -0.4277
39275W        W40139  20.780  13.376  11.956 -0.3029 -0.0310  0.0453
39276W        W40140  16.895  13.295  19.205 -0.1569  0.0512  0.4197
39277W        W40141  19.087  12.325  20.337  0.1198 -0.1173  0.1974
39278W        W40142  21.343  12.874  15.867  0.0075 -0.0477  0.0851
39279W        W40143  20.632  17.747  20.407  0.0478  0.0591 -0.0554
39280W        W40144  19.214  13.984  19.352  0.0349 -0.0063 -0.1086
39281W        W40145  17.116  12.987  16.936  0.0867  0.0110 -0.1240
39282W        W40146  19.070  14.328  17.453 -0.0968 -0.0924 -0.1130
39283W        W40147  19.606  11.879  17.375  0.0159  0.0767 -0.0336
39284W        W40148  17.478  15.063  16.713 -0.0935  0.1432  0.0772
39285W        W40149  16.978  14.866  17.830  0.0550  0.3667  0.0104
39286W        W40150  19.465   8.283  19.247 -0.1408  0.1610  0.1334
39287W        W40151  21.963   8.032  14.554  0.0593 -0.1904  0.2238
39288W        W40152  21.706   8.757  13.704  0.0626 -0.0191 -0.0465
39289W        W40153  24.641  11.376  15.937  0.0171 -0.1315 -0.0389
39290W        W40154  18.677   8.587  19.158  0.2941 -0.1192  0.4501
39291W        W40155  17.961  13.053  19.780  0.0884 -0.0324 -0.4472
39292W        W40156  19.521  12.739  14.345 -0.0580  0.0416  0.1493
39293W        W40157  20.899  10.643  15.176  0.0330 -0.0418 -0.0655
39294W        W40158  19.102  11.307  15.946 -0.1826 -0.0020  0.2644
39295W        W40159  21.095  13.172  15.468  0.2790  0.1519  0.0108
39296W        W40160  20.991  11.648  18.190  0.1459 -0.3498 -0.1761
39297W        W40161  18.125  12.258  17.759  0.0080  0.3119 -0.1311
39298W        W40162  19.212  16.031  15.400  0.1453 -0.1034  0.0675
39299W        W40163  20.950  11.976  16.363  0.2357 -0.1066  0.2568
39300W        W40164  20.241  11.641  18.568 -0.1317 -0.0050 -0.2291
39301W        W40165  19.185  11.553  16.441  0.2172 -0.2849  0.1675
39302W        W40166  25.550  12.199  17.830 -0.2122 -0.0909 -0.0151
39303W        W40167  19.347  12.473  16.362 -0.2261  0.1514 -0.0636
39304W        W40168  21.255  13.786  16.594  0.0384 -0.1859 -0.0154
39305W        W40169  19.483  13.189  15.149 -0.0462  0.1500  0.0082
39306W        W40170  21.257  10.503  17.283 -0.0207  0.1994  0.0068
39307W        W40171  21.366  10.840  16.932  0.0614 -0.2075  0.2080
39308W        W40172  20.171  10.013  16.708  0.1061 -0.1339 -0.2215
39309W        W40173  20.305  12.490  18.332  0.1741  0.0520 -0.0474
39310W        W40174  18.685  12.365  16.452 -0.1269  0.0516 -0.0492
39311W        W40175  18.433  13.961  16.125  0.1440  0.3210  0.0721
39312W        W40176  20.719  12.342  16.068 -0.1918  0.0919 -0.3405
39313W        W40177  20.613  13.141  17.849  0.1167 -0.1697  0.0913
39314W        W40178  21.588  12.958  14.680  0.0286 -0.1888  0.0391
39315W        W40179  22.703  10.952  17.885  0.1500  0.0261  0.1021
39316W        W40180  21.293  12.950  13.453  0.0526  0.1858  0.2343
39317W        W40181  21.906  15.128  19.015  0.2104  0.3678  0.2045
39318W        W40182  20.509  12.529  15.388  0.4198 -0.0924  0.1201
39319W        W40183  22.390  10.980  16.265 -0.2928 -0.0191 -0.0549
39320W        W40184  18.171  13.879  16.889  0.2553  0.1992  0.0618
39321W        W40185  17.486  15.956  17.589 -0.2385  0.1537 -0.2564
39322W        W40186  17.233  11.456  18.897  0.0839  0.0350 -0.1739
39323W        W40187  24.275  10.801  17.574  0.1456 -0.1133  0.4414
39324W        W40188  19.878  13.266  15.664 -0.1038  0.0107 -0.3862
39325W        W40189  21.794  12.300  13.971  0.2321 -0.0297  0.4384
39326W        W40190  21.328  14.868  17.210  0.3069  0.1065 -0.1572
39327W        W40191  20.968   9.331  13.945 -0.0959  0.1108 -0.0082
39328W        W40192  19.018  15.591  16.717 -0.0372  0.0142  0.1378
39329W        W40193  19.535  13.058  13.889 -0.1199  0.1229 -0.1778
39330W        W40194  18.235  12.873  15.412  0.1070  0.0912 -0.0399
39331W        W40195  17.412  14.745  13.161 -0.0082  0.3253  0.1767
39332W        W40196  18.749   9.979  16.390  0.1269  0.0306  0.0410
39333W        W40197  20.289  11.775  19.041  0.1499  0.2151 -0.1536
39334W        W40198  16.513  14.739  16.783 -0.1185  0.1316  0.0937
39335W        W40199  18.666  12.820  14.865 -0.2205 -0.0455  0.1101
39336W        W40200  23.627  11.791  14.998  0.5362  0.0252  0.1064
39337W        W40201  16.662  13.925  15.453 -0.1096  0.0345 -0.0680
39338W        W40202  18.122  13.012  17.162  0.2045 -0.2387  0.2532
39339W        W40203  22.748  13.975  14.956 -0.2056 -0.3022  0.1145
39340W        W40204  19.930   7.649  15.653  0.1561 -0.3772  0.0844
39341W        W40205  22.537   8.825  16.098 -0.3817  0.3032  0.0196
39342W        W40206  17.635  12.422  14.444 -0.0430  0.1174 -0.0978
39343W        W40207  19.015  10.920  16.264 -0.0598 -0.2581 -0.0899
39344W        W40208  14.550  13.990  13.961 -0.3940 -0.0178 -0.0215
39345W        W40209  19.177  13.713  16.631 -0.3393  0.2147 -0.1625
39346W        W40210  21.662  13.521  16.303 -0.0271  0.3055  0.0825
39347W        W40211  19.144  11.441  13.761  0.2754 -0.0941 -0.0762
39348W        W40212  20.121  14.553  18.169 -0.1468  0.0774 -0.0249
39349W        W40213  19.323  13.221  14.458 -0.1667  0.0380 -0.1547
39350W        W40214  24.795  11.860  16.421  0.0036  0.0155  0.1378
39351W        W40215  21.783  11.184  17.706  0.1337  0.2498 -0.0459
39352W        W40216  17.303  11.155  15.705  0.1761  0.4248  0.0084
39353W        W40217  17.576  12.135  17.289  0.0967 -0.4248 -0.2261
39354W        W40218  18.424  14.516  17.538 -0.0729 -0.1472 -0.1996
39355W        W40219  21.324  13.834  17.107 -0.1185 -0.1059 -0.0914
39356W        W40220  21.355  10.925  14.490 -0.0030 -0.2751  0.0177
39357W        W40221  20.947  11.110  19.660  0.0298 -0.1429 -0.2585
39358W        W40222  20.196   9.376  15.418 -0.1940 -0.0842 -0.1801
39359W        W40223  20.518   9.294  16.416 -0.0622  0.1499 -0.4108
39360W        W40224  19.897   8.604  16.916  0.2986 -0.0260 -0.1942
39361W        W40225  22.668   8.686  15.211  0.2124 -0.1387  0.1255
39362W        W40226  23.486  10.495  17.805  0.2153 -0.1134  0.4468
39363W        W40227  23.309  11.642  18.229  0.2004  0.1409  0.0873
39364W        W40228  21.293  13.453  20.985 -0.0133 -0.0987 -0.0589
39365W        W40229  21.290  11.494  17.755 -0.0314  0.0022  0.1001
39366W        W40230  20.860   6.464  16.273  0.0978  0.1545  0.2053
39367W        W40231  23.596  12.078  18.778 -0.0660  0.0516  0.0630
39368W        W40232  20.162  11.678  17.528 -0.2141 -0.3984  0.2406
39369W        W40233  21.554  11.996  12.125  0.2195  0.0352  0.1014
39370W        W40234  17.985  12.564  19.683 -0.1234  0.2086 -0.3386
39371W        W40235  21.700  10.140  14.888  0.0655  0.3130  0.0698
39372W        W40236  20.652  12.198  15.010 -0.2681 -0.3443 -0.3747
39373W        W40237  21.573  14.040  19.220 -0.0327  0.0130  0.4871
39374W        W40238  18.739  10.633  14.739  0.0814 -0.1574 -0.1369
39375W        W40239  21.413  13.426  15.823 -0.0504  0.2961  0.0197
39376W        W40240  22.093  14.834  15.913  0.2710 -0.0448  0.1517
39377W        W40241  16.911  16.173  17.405 -0.2037 -0.0880  0.3477
39378W        W40242  20.092  11.124  15.645  0.2599  0.1140 -0.0392
39379W        W40243  22.982  13.723  15.645 -0.1038 -0.1251 -0.1124
39380W        W40244  20.612  10.602  18.066 -0.3106  0.2374 -0.2931
39381W        W40245  18.622  12.159  17.954 -0.3383  0.0520 -0.1115
39382W        W40246  19.257  11.782  16.876 -0.2023 -0.3837 -0.2578
39383W        W40247  20.580  13.272  18.720 -0.1352  0.0814 -0.0954
39384W        W40248  20.634   9.078  15.133  0.3472 -0.2504 -0.2652
39385W        W40249  20.881   6.883  15.378 -0.0319 -0.1772 -0.1527
39386W        W40250  16.945  12.291  15.951  0.1051 -0.0740 -0.4356
39387W        W40251  20.367  15.563  17.829  0.1671  0.1184 -0.1280
39388W        W40252  21.765  13.978  16.452  0.1343  0.1489  0.4932
39389W        W40253  18.708  13.152  14.455 -0.1089  0.2635  0.4183
39390W        W40254  20.483  12.952  14.981  0.2596  0.0188 -0.2311
39391W        W40255  19.296  12.496  15.558  0.0921 -0.0711 -0.0412
39392W        W40256  22.733   8.126  15.240  0.1125  0.0126  0.1344
39393W        W40257  17.753  15.018  16.101  0.0159  0.0477 -0.1196
39394W        W40258  20.296  10.784  15.943  0.1535 -0.0658  0.1979
39395W        W40259  20.771  10.761  14.006  0.1147 -0.1150  0.0125
39396W        W40260  19.929  12.379  14.571  0.4907 -0.1660  0.0648
39397W        W40261  20.400  14.703  17.103 -0.0890 -0.2719 -0.1877
39398W        W40262  19.916  13.144  17.073 -0.0382 -0.2637  0.3005
39399W        W40263  20.458  11.893  15.742 -0.0934 -0.2514  0.2206
39400W        W40264  22.631  13.014  16.724  0.3864 -0.0529 -0.2068
39401W        W40265  21.179  12.354  15.068  0.1476  0.1597 -0.0822
39402W        W40266  19.087   8.995  16.910  0.4724  0.1694 -0.2821
39403W        W40267  18.189  11.791  17.778 -0.1486  0.2074 -0.1148
39404W        W40268  22.696  11.255  18.318 -0.1474  0.1296 -0.2839
39405W        W40269  18.273  11.421  14.108 -0.1088 -0.1266 -0.1978
39406W        W40270  18.054  16.088  16.635  0.1513  0.3374 -0.0895
39407W        W40271  20.967   9.299  16.690  0.1002  0.0984  0.0233
39408W        W40272  22.162  13.882  18.945 -0.3331 -0.3034  0.2412
39409W        W40273  21.024  11.582  15.575 -0.2953  0.2091 -0.0829
39410W        W40274  24.900  14.271  16.638  0.1901 -0.0993 -0.0344
39411W        W40275  18.465  10.516  19.054  0.0031  0.3039 -0.0410
39412W        W40276  21.689  10.741  15.654 -0.1691  0.1234  0.1101
39413W        W40277  23.614  13.421  17.483  0.0025 -0.1236  0.2897
39414W        W40278  20.809  17.978  14.540  0.3413 -0.0642  0.2079
39415W        W40279  18.561  11.273  16.817  0.1841 -0.0567 -0.5765
39416W        W40280  20.023  13.106  15.233  0.0077  0.2993  0.1915
39417W        W40281  18.746   8.538  18.672  0.1429  0.1593 -0.0420
39418W        W40282  16.558  15.229  16.582  0.1744 -0.0128  0.1352
39419W        W40283  18.814  12.687  15.420  0.0166 -0.0293  0.2634
39420W        W40284  20.046  14.242  17.231  0.0749  0.0313  0.0913
39421W        W40285  23.116  14.101  14.614 -0.1256 -0.2213 -0.2141
39422W        W40286  20.533  10.830  17.629 -0.1523  0.0400 -0.4676
39423W        W40287  19.183  14.075  17.026  0.1822  0.0965  0.0872
39424W        W40288  19.765  12.818  16.472  0.0283  0.2149  0.2477
39425W        W40289  21.886  14.368  16.027 -0.0098  0.0484  0.0745
39426W        W40290  22.610  15.609  17.714  0.0679 -0.0524  0.0310
39427W        W40291  21.770  12.379  15.373  0.1840  0.0625 -0.0333
39428W        W40292  21.004  13.235  15.941  0.2434  0.1961  0.3236
39429W        W40293  18.230  12.079  15.841  0.0899 -0.1647  0.1921
39430W        W40294  23.199  11.703  19.186 -0.2140  0.0509  0.0458
39431W        W40295  21.448  10.857  17.971 -0.0548  0.0299 -0.2022
39432W        W40296  20.231  12.181  18.745 -0.1641  0.0582  0.0360
39433W        W40297  19.537  14.287  15.652  0.0586  0.1341  0.3232
39434W        W40298  19.838   9.258  14.072  0.2336  0.3142  0.0672
39435W        W40299  22.345  11.607  16.674  0.1188  0.2095 -0.0806
39436W        W40300  22.465  11.431  16.079 -0.2319 -0.0712 -0.1976
39437W        W40301  18.569  13.842  20.862 -0.1275 -0.0963  0.1873
39438W        W40302  21.286  11.438  18.625 -0.0698  0.0366 -0.0750
39439W        W40303  21.733  12.607  17.581 -0.1904 -0.0434 -0.0037
39440W        W40304  20.716   9.981  18.157  0.1456 -0.2269  0.1020
39441W        W40305  19.876   9.775  14.661 -0.2112 -0.2217  0.1368
39442W        W40306  21.895  13.414  18.774  0.0090  0.3516 -0.1047
39443W        W40307  18.515  12.766  14.144 -0.0165 -0.1308 -0.1439
39444W        W40308  21.615  12.829  19.509  0.0429  0.1915  0.2694
39445W        W40309  21.607  13.267  15.059  0.1746  0.2011 -0.2432
39446W        W40310  21.067  13.717  16.047  0.0407 -0.0349  0.3988
39447W        W40311  18.771  12.303  15.831  0.2663 -0.1105 -0.0382
39448W        W40312  19.047  10.483  16.548 -0.0456  0.0701  0.2562
39449W        W40313  20.339  12.768  16.961  0.0863 -0.0014 -0.1661
39450W        W40314  19.501  11.020  16.095  0.1313 -0.1523  0.0517
39451W        W40315  23.125  10.957  17.622  0.1016 -0.0375 -0.1448
39452W        W40316  17.096  14.259  15.739  0.0719 -0.1328 -0.1504
39453W        W40317  17.610  12.279  16.610 -0.0941  0.0930 -0.1112
39454W        W40318  17.450  14.119  16.246  0.2667  0.3175  0.0545
39455W        W40319  19.194   8.613  17.298  0.0978  0.0949  0.2280
39456W        W40320  18.624  12.894  16.034  0.0784  0.0707  0.0918
39457W        W40321  19.732  13.882  13.818 -0.1964 -0.1164  0.0774
39458W        W40322  20.952   9.664  16.245  0.1512 -0.0585 -0.0329
39459W        W40323  19.759  11.168  15.192 -0.0100 -0.1023 -0.0999
39460W        W40324  19.850  12.440  13.320 -0.0344 -0.2248 -0.1847
39461W        W40325  21.365  12.050  17.653 -0.3216 -0.1315 -0.3602
39462W        W40326  21.403   8.870  17.864 -0.2593  0.0352 -0.0414
39463W        W40327  17.361  11.631  15.588 -0.2197  0.1855  0.2834
39464W        W40328  17.979  13.805  16.394 -0.0084  0.3235  0.1471
39465W        W40329  18.099  13.512  17.275  0.1159  0.2047 -0.1834
39466W        W40330  15.932  13.085  16.204  0.0542 -0.3496 -0.0761
39467W        W40331  17.953  12.687  15.793 -0.1712  0.0464  0.0068
39468W        W40332  18.306  15.691  18.720  0.1322  0.2405 -0.0001
39469W        W40333  19.095   8.503  16.794  0.1621 -0.1419  0.0195
39470W        W40334  21.496  10.076  17.553 -0.2075  0.0939  0.1531
39471W        W40335  18.376   9.542  14.826  0.1147 -0.1254  0.1965
39472W        W40336  21.772  10.563  16.955  0.2654 -0.0952  0.0802
39473W        W40337  18.222   9.116  16.662  0.0840 -0.3846  0.0846
39474W        W40338  22.125   9.235  14.738  0.0286  0.1190 -0.1826
39475W        W40339  20.067   9.501  16.589 -0.2338 -0.0072  0.2210
39476W        W40340  18.696  10.199  14.975 -0.2639  0.1917  0.4422
39477W        W40341  20.930  12.201  17.377  0.3386 -0.0315  0.0503
39478W        W40342  21.294  16.156  14.993  0.1402 -0.0498 -0.3052
39479W        W40343  18.488  15.630  15.788  0.0881  0.0965  0.1637
39480W        W40344  21.116  11.112  18.254 -0.3975  0.0697  0.4908
39481W        W40345  20.454  10.446  15.149  0.0118  0.0265 -0.1565
39482W        W40346  17.131  15.278  18.447 -0.1142 -0.1275 -0.0580
39483W        W40347  21.260  12.855  16.978  0.2237 -0.0517 -0.0478
39484W        W40348  19.088  14.388  15.466  0.1270 -0.1903 -0.1481
39485W        W40349  18.730  13.706  17.980  0.0564 -0.2223  0.2315
39486W        W40350  19.673  11.445  17.517 -0.1196 -0.0622 -0.0426
39487W        W40351  16.563  10.584  19.386  0.3752 -0.0145 -0.3162
39488W        W40352  21.113  13.397  18.711  0.1011 -0.0547 -0.3746
39489W        W40353  20.271  10.248  17.115 -0.1623  0.0614  0.2551
39490W        W40354  22.651  14.039  16.606  0.1895  0.0573 -0.2243
39491W        W40355  22.679   9.984  15.359  0.2283 -0.1963 -0.2144
39492W        W40356  20.371  12.534  16.402  0.0969 -0.0158 -0.0370
39493W        W40357  18.504  12.206  12.932  0.1555 -0.1798 -0.0447
39494W        W40358  18.637  10.233  17.838  0.2094 -0.0947 -0.0886
39495W        W40359  17.409  13.905  19.238 -0.1086  0.1520 -0.1992
39496W        W40360  21.056   7.225  15.023  0.1493 -0.0881 -0.6262
39497W        W40361  20.291  11.067  14.026 -0.2410  0.0851  0.1585
39498W        W40362  19.128  13.470  18.227  0.1466  0.2202  0.1293
39499W        W40363  21.714  10.416  15.307 -0.0805  0.1568 -0.1361
39500W        W40364  19.158  13.591  15.137  0.1472 -0.1204  0.0654
39501W        W40365  19.570  10.956  17.602 -0.1071  0.1941  0.1528
39502W        W40366  17.347  12.658  17.374  0.0463  0.4048 -0.0467
39503W        W40367  22.171  13.454  17.301  0.0317  0.0356  0.0876
39504W        W40368  21.675  16.301  13.525  0.1288  0.2405  0.0011
39505W        W40369  20.097  12.038  18.266 -0.3165 -0.1174  0.3086
39506W        W40370  17.659  10.190  15.869 -0.2706 -0.0144  0.1355
39507W        W40371  18.714  13.290  19.207  0.0133  0.0196  0.0244
39508W        W40372  17.540  14.143  15.528  0.3779  0.0473  0.1104
39509W        W40373  22.131  12.626  16.815 -0.1733 -0.2631 -0.0368
39510W        W40374  20.720  12.303  17.902 -0.1031 -0.0628 -0.2083
39511W        W40375  18.636  13.191  15.265 -0.1316  0.0366  0.0355
39512W        W40376  20.876  12.851  16.256 -0.0661  0.0289 -0.1802
39513W        W40377  18.028  10.529  16.565 -0.0533 -0.0497 -0.0153
39514W        W40378  21.270  11.349  17.060 -0.2273 -0.2527 -0.1169
39515W        W40379  22.284  12.304  17.201 -0.0313 -0.2475  0.2092
39516W        W40380  21.448  11.232  15.890 -0.1563 -0.1694 -0.1073
39517W        W40381  17.366  13.490  17.035  0.0427 -0.1372 -0.0188
39518W        W40382  20.712   8.619  14.971 -0.2198  0.2490 -0.1990
39519W        W40383  19.120  11.592  17.571 -0.0880 -0.1406  0.0371
39520W        W40384  22.530  11.702  18.049  0.1346  0.0456  0.3864
39521W        W40385  20.283   8.891  14.239  0.0814  0.2776 -0.1833
39522W        W40386  21.684  13.726  14.998  0.0482 -0.0682  0.1117
39523W        W40387  18.022  13.607  17.785  0.3209 -0.0682 -0.1804
39524W        W40388  23.471  16.072  14.579  0.0033 -0.0055  0.2358
39525W        W40389  19.918  10.982  16.782  0.3074  0.0543 -0.1138
39526W        W40390  19.995  14.796  17.427  0.0267 -0.0679 -0.0065
39527W        W40391  17.045  15.347  16.492  0.0528 -0.0395  0.1566
39528W        W40392  23.170  12.133  20.705  0.1086  0.0447  0.0664
39529W        W40393  20.461  12.478  17.412  0.0781  0.1073  0.3344
39530W        W40394  17.622  12.843  15.426 -0.0872  0.0972  0.2182
39531W        W40395  18.925  14.387  16.021  0.0426  0.1460 -0.1130
39532W        W40396  21.270  10.904  15.448 -0.1430 -0.0153 -0.0713
39533W        W40397  22.184  12.111  18.007 -0.3141 -0.1011  0.0189
39534W        W40398  23.118  11.932  17.922  0.0388  0.0120  0.1802
39535W        W40399  25.167  11.318  15.943  0.3955  0.0145 -0.1186
39536W        W40400  18.141  12.363  16.551  0.3021 -0.0615 -0.1525
39537W        W40401  19.991  10.740  17.225 -0.1694  0.3711 -0.0641
39538W        W40402  20.545  14.251  16.267  0.2114  0.1610 -0.4323
39539W        W40403  21.181  12.032  15.878  0.0877  0.1445  0.2672
39540W        W40404  18.896  13.729  14.628  0.4300  0.5223  0.0677
39541W        W40405  16.566  12.536  18.104  0.2408  0.0349 -0.0758
39542W        W40406  19.450  10.602  14.194 -0.2189 -0.1071 -0.1145
39543W        W40407  20.927  12.794  15.168  0.1778 -0.1870 -0.0899
39544W        W40408  15.911  16.301  16.629  0.0729  0.2516 -0.2559
39545W        W40409  19.764  15.708  16.145 -0.0819  0.0905  0.2576
39546W        W40410  19.895  13.331  16.369 -0.0589  0.1105 -0.1372
39547W        W40411  22.542  11.953  17.514 -0.2455 -0.0129  0.0078
39548W        W40412  23.147  13.616  14.511 -0.0228 -0.3212  0.3188
39549W        W40413  20.455  13.238  15.934 -0.1452 -0.3479  0.0065
39550W        W40414  20.184  15.190  17.116 -0.2653  0.1695 -0.2733
39551W        W40415  21.496   9.790  18.595  0.1431  0.0966 -0.2593
39552W        W40416  19.062   8.734  19.472  0.0968 -0.1556 -0.1531
39553W        W40417  20.581  12.530  18.829 -0.0211  0.2102 -0.0744
39554W        W40418  19.623  10.044  13.681 -0.0120 -0.1935  0.0051
39555W        W40419  17.219  14.923  16.089  0.4208  0.1048 -0.3115
39556W        W40420  19.075  12.034  16.362 -0.1060 -0.1360 -0.1290
39557W        W40421  21.219  13.239  16.445 -0.1842  0.0681  0.2166
39558W        W40422  19.163  12.883  18.300 -0.2767 -0.3296 -0.1748
39559W        W40423  17.957  15.143  17.683  0.0365 -0.0016  0.4472
39560W        W40424  20.871  12.124  15.519 -0.0910 -0.2494  0.0377
39561W        W40425  23.533  11.811  17.597 -0.4224 -0.0294  0.1052
39562W        W40426  21.855  12.188  16.713  0.0442  0.2330  0.3277
39563W        W40427  19.170  10.166  17.760 -0.2795 -0.2984 -0.1463
39564W        W40428  23.594  11.345  13.198 -0.0409 -0.2622  0.1916
39565W        W40429  19.505  13.872  15.942 -0.1809  0.1771 -0.2454
39566W        W40430  20.775  11.208  16.670  0.1241  0.1906 -0.1786
39567W        W40431  21.190  11.098  13.336  0.2910 -0.1244  0.0122
39568W        W40432  21.952  10.195  17.816  0.0471  0.0049 -0.1928
39569W        W40433  18.368  11.237  19.842 -0.0325  0.0838 -0.0403
39570W        W40434  21.772  13.603  16.816 -0.2611  0.0614 -0.0117
39571W        W40435  21.172  10.378  15.493  0.2397  0.5518  0.1825
39572W        W40436  20.857  12.790  18.095  0.1354  0.0613  0.0022
39573W        W40437  21.837  13.780  17.880  0.0130 -0.4080  0.3366
39574W        W40438  21.315   8.292  15.500  0.1136 -0.0731  0.2409
39575W        W40439  17.709  15.611  17.214  0.1558 -0.0404  0.3495
39576W        W40440  18.942  13.354  16.235  0.1390 -0.0174  0.1863
39577W        W40441  18.894   9.470  16.176  0.0826  0.0628  0.2645
39578W        W40442  17.933  13.265  18.941 -0.0863 -0.0930  0.2042
39579W        W40443  23.542  13.643  16.251  0.1844  0.1800 -0.3207
39580W        W40444  19.664  15.232  17.123 -0.0178  0.0409 -0.0366
39581W        W40445  20.033  12.713  17.437 -0.4526 -0.1351  0.2730
39582W        W40446  22.711  13.825  18.992 -0.2579  0.4477 -0.0974
39583W        W40447  20.221  11.306  16.541  0.0439 -0.1166  0.2991
39584W        W40448  20.467  10.778  16.523 -0.1536  0.2622  0.0162
39585W        W40449  17.662  13.032  18.612 -0.4628 -0.2976 -0.1683
39586W        W40450  19.834  12.445  16.166 -0.1935  0.0454 -0.1149
39587W        W40451  18.118  12.098  17.291 -0.3158 -0.3548 -0.0592
39588W        W40452  21.711  10.421  16.041 -0.2622  0.3555 -0.1334
39589W        W40453  21.049   9.059  18.210 -0.1960 -0.0464  0.1092
39590W        W40454  20.077  12.683  18.741  0.3537 -0.2396 -0.2678
39591W        W40455  16.394  14.179  18.780 -0.1079  0.1396 -0.2019
39592W        W40456  18.034   9.839  14.988 -0.1262  0.3605 -0.2035
39593W        W40457  21.698  11.235  14.136  0.1882  0.1151  0.1471
39594W        W40458  21.579  14.889  16.183 -0.0510 -0.1487  0.2180
39595W        W40459  19.219  12.442  17.221  0.0535  0.0017  0.0462
39596W        W40460  16.602  11.613  15.977  0.3718  0.1420  0.0784
39597W        W40461  22.076  16.425  13.717 -0.0190  0.0935  0.1521
39598W        W40462  18.675  13.929  18.483 -0.1344 -0.0414 -0.1119
39599W        W40463  21.760  13.718  21.742 -0.0760 -0.0539 -0.0330
39600W        W40464  17.770  11.368  15.358  0.2197 -0.1019 -0.0347
39601W        W40465  23.121  14.736  16.236  0.1376 -0.1739  0.1058
39602W        W40466  20.119   8.957  16.654 -0.1053 -0.0254  0.4539
39603W        W40467  18.855   9.882  12.931 -0.0455  0.0881 -0.1058
39604W        W40468  20.506  11.741  15.123  0.1965 -0.2808  0.0340
39605W        W40469  16.871  12.884  15.403 -0.0280  0.2249 -0.1323
39606W        W40470  17.664   9.825  18.911 -0.0231 -0.1502  0.1185
39607W        W40471  21.394   9.651  14.195  0.0898 -0.2225  0.1989
39608W        W40472  22.665  12.634  17.479 -0.2370 -0.0842  0.1292
39609W        W40473  20.647  14.733  18.271 -0.0685 -0.2599  0.2554
39610W        W40474  20.507  15.078  16.259  0.0098 -0.1262 -0.0271
39611W        W40475  19.864  12.456  17.959 -0.0830  0.1637  0.3069
39612W        W40476  18.186  11.924  19.163  0.1272  0.2488  0.3470
39613W        W40477  21.369  13.364  16.943 -0.1986  0.4034  0.1047
39614W        W40478  21.846   9.742  16.918 -0.1856  0.1319  0.0877
39615W        W40479  20.794   9.671  17.778  0.2558 -0.3669  0.5121
39616W        W40480  17.707  14.162  16.697 -0.1020  0.3689 -0.4549
39617W        W40481  21.248   8.171  17.118  0.1767 -0.0779  0.0763
39618W        W40482  19.025  10.611  15.848 -0.1213  0.1355  0.1961
39619W        W40483  18.335  12.530  11.955  0.4399  0.2958  0.0685
39620W        W40484  20.350  14.639  16.539  0.2937  0.0954 -0.3119
39621W        W40485  17.444  15.077  18.074 -0.0815 -0.1732  0.0310
39622W        W40486  20.213  14.380  17.703 -0.2735 -0.0495 -0.1218
39623W        W40487  19.942  11.231  16.113 -0.1830 -0.2334 -0.2386
39624W        W40488  18.681  11.774  16.727 -0.1298  0.1360  0.2024
39625W        W40489  19.984  10.656  14.415  0.2999 -0.3103  0.1719
39626W        W40490  19.819  12.379  15.605  0.0092 -0.0024  0.2605
39627W        W40491  20.205  12.043  14.821 -0.1780  0.0088  0.0906
39628W        W40492  21.400  15.274  19.846 -0.2556 -0.0436  0.1881
39629W        W40493  17.739  13.308  15.113  0.1554  0.0970 -0.3039
39630W        W40494  20.754  13.331  16.341 -0.1911 -0.0126  0.1313
39631W        W40495  20.022  10.344  15.928 -0.0961 -0.0395 -0.3267
39632W        W40496  16.549  15.293  19.734 -0.0607  0.1563  0.1753
39633W        W40497  20.022  12.164  17.180 -0.0858  0.1805  0.2732
39634W        W40498  16.687  11.826  20.436 -0.0655 -0.0617  0.1052
39635W        W40499  17.755  11.692  17.140  0.1269 -0.1365 -0.1066
39636W        W40500  18.742  11.831  14.791 -0.1288  0.1294 -0.1023
39637W        W40501  20.391  11.665  17.992  0.2739  0.2021 -0.1114
39638W        W40502  18.647  13.759  16.704  0.2186  0.0268  0.2242
39639W        W40503  22.221  11.662  17.654 -0.0866 -0.1985  0.0578
39640W        W40504  19.180  15.326  17.348  0.1702 -0.1229  0.0095
39641W        W40505  23.415  16.165  16.083 -0.1467 -0.2420 -0.1586
39642W        W40506  19.978  15.238  17.612 -0.1626 -0.0005  0.3494
39643W        W40507  19.155  12.611  15.096  0.0473  0.3334 -0.1035
39644W        W40508  23.510  12.138  15.950  0.2379  0.2630  0.0222
39645W        W40509  21.102  11.563  16.634 -0.0059  0.2223 -0.1671
39646W        W40510  19.057  10.777  13.191 -0.1336  0.1270 -0.3255
39647W        W40511  24.263  12.851  13.996  0.0530  0.1674 -0.0513
39648W        W40512  20.872  13.020  16.741  0.1451 -0.1031 -0.1534
39649W        W40513  23.914  13.229  18.011 -0.4233 -0.0820 -0.0080
39650W        W40514  19.794  15.494  14.878 -0.0090 -0.2454 -0.1466
39651W        W40515  16.406  10.757  18.876 -0.2904 -0.0983  0.1017
39652W        W40516  19.492  12.150  15.947  0.0405 -0.2862  0.0147
39653W        W40517  20.715  13.688  17.942 -0.0940  0.2281 -0.1751
39654W        W40518  18.913  10.295  18.765  0.0607  0.2835  0.0468
39655W        W40519  18.552  12.212  16.958 -0.0067 -0.0245 -0.1658
39656W        W40520  20.665   9.517  15.356 -0.3473 -0.1147 -0.5163
39657W        W40521  18.744  11.098  13.930 -0.2188  0.1490  0.0613
39658W        W40522  16.328  13.626  17.332  0.0350  0.1614 -0.1168
39659W        W40523  20.242  12.345  15.876 -0.1377  0.3382  0.1927
39660W        W40524  19.931  11.369  17.083 -0.2124  0.3555  0.0298
39661W        W40525  20.168  12.050  15.386 -0.0450 -0.1782 -0.0348
39662W        W40526  19.506  15.667  16.788  0.1181  0.1402 -0.2728
39663W        W40527  18.938  13.279  16.765  0.0534 -0.2393 -0.2438
39664W        W40528  20.639  13.302  19.640  0.1354  0.2706  0.1316
39665W        W40529  21.383  11.296  19.124 -0.2315 -0.0990 -0.1427
39666W        W40530  19.532  14.732  16.009 -0.2148  0.1654 -0.3763
39667W        W40531  17.988  14.727  17.316  0.2096 -0.1419 -0.0245
39668W        W40532  21.008  10.714  17.792  0.2745  0.0433  0.3490
39669W        W40533  18.469  14.964  17.800  0.0303  0.1382 -0.1103
39670W        W40534  17.925  12.596  18.061  0.2006  0.2269  0.1000
39671W        W40535  22.178  11.130  18.487  0.1006  0.0674 -0.1957
39672W        W40536  19.948  11.750  16.398  0.0499 -0.1011  0.3595
39673W        W40537  19.111  15.747  20.531 -0.1564 -0.1880 -0.0119
39674W        W40538  19.592  11.873  15.527  0.1490 -0.2348  0.0962
39675W        W40539  21.829  12.657  15.795 -0.2448 -0.1220 -0.2384
39676W        W40540  17.153  17.288  19.725  0.3204  0.0335 -0.5324
39677W        W40541  18.559  12.246  20.236 -0.0962  0.1981 -0.3016
39678W        W40542  20.821  12.645  17.052  0.5296 -0.2928 -0.0828
39679W        W40543  21.377  14.601  23.932 -0.0421 -0.5683  0.1250
39680W        W40544  14.665  15.450  18.424  0.2151  0.0249 -0.0533
39681W        W40545  16.788  12.992  22.305 -0.1737  0.3559 -0.0411
39682W        W40546  18.048  12.193  20.117 -0.2046  0.1742  0.1312
39683W        W40547  19.428  13.479  19.513  0.1202 -0.2538  0.1804
39684W        W40548  21.714  14.500  20.181 -0.1876  0.0928 -0.0712
39685W        W40549  19.369  11.699  21.159 -0.2153 -0.1390 -0.1785
39686W        W40550  21.807  10.689  20.391 -0.1761 -0.1351  0.0686
39687W        W40551  19.362   9.530  20.378 -0.2300 -0.2742  0.1499
39688W        W40552  19.860  11.399  18.835 -0.1072 -0.0031  0.1275
39689W        W40553  21.280   9.720  21.237  0.0790 -0.3453  0.0250
39690W        W40554  18.992  11.238  20.013 -0.1170 -0.0663  0.0589
39691W        W40555  19.280  16.003  20.932  0.1725 -0.1578  0.1556
39692W        W40556  19.649  11.729  18.302 -0.0790 -0.5037 -0.1162
39693W        W40557  18.942  12.375  21.232  0.2087 -0.3628 -0.1250
39694W        W40558  20.113  12.038  19.830  0.1745  0.1254 -0.1800
39695W        W40559  22.368  11.423  19.500  0.0279  0.2194 -0.3435
39696W        W40560  21.706  11.847  24.266  0.1200  0.0571  0.0444
39697W        W40561  23.486  12.586  20.540  0.1182 -0.1502 -0.1820
39698W        W40562  21.813  13.910  20.991 -0.3072  0.1932  0.2162
39699W        W40563  22.139  10.877  21.054  0.0565  0.0348  0.1115
39700W        W40564  18.269  14.046  21.835  0.2393 -0.0307  0.0963
39701W        W40565  19.772  12.818  19.089  0.0235 -0.0280 -0.1966
39702W        W40566  22.563  12.394  21.865  0.1454  0.2021 -0.1160
39703W        W40567  18.071  13.668  19.973 -0.0952 -0.0924 -0.0275
39704W        W40568  20.526  12.952  20.469  0.1864  0.0071  0.1839
39705W        W40569  20.923  12.850  20.173 -0.2224  0.0391  0.4211
39706W        W40570  17.670  16.185  17.988 -0.0916  0.3036 -0.2756
39707W        W40571  20.421  14.625  22.442  0.1588 -0.1118 -0.2472
39708W        W40572  18.982  13.431  21.951 -0.1582 -0.2673 -0.3650
39709W        W40573  16.431  11.394  20.533  0.3159  0.0074 -0.0504
39710W        W40574  19.909  12.067  23.571  0.1270 -0.1921 -0.2705
39711W        W40575  21.025  13.558  22.538  0.1639  0.0389  0.0141
39712W        W40576  18.605  11.782  18.282  0.0318  0.0937  0.0962
39713W        W40577  19.623  14.402  22.489  0.2425  0.0244  0.0621
39714W        W40578  22.370  13.484  18.571  0.4114 -0.1574  0.1764
39715W        W40579  23.530  12.066  18.120 -0.0361 -0.1701  0.1354
39716W        W40580  22.244  11.224  18.006 -0.0523 -0.0612 -0.1371
39717W        W40581  22.061  16.993  22.052 -0.0069  0.0340  0.0378
39718W        W40582  21.431  14.101  22.765  0.2445 -0.0200  0.0951
39719W        W40583  24.128  12.577  17.432 -0.1236  0.0461  0.0378
39720W        W40584  17.029  16.169  20.538  0.0506 -0.0404 -0.1035
39721W        W40585  19.538  13.009  20.765 -0.2897 -0.0089 -0.3128
39722W        W40586  20.312  11.071  20.694  0.0199 -0.2211  0.2551
39723W        W40587  21.913  14.258  23.713  0.3067 -0.0326  0.0371
39724W        W40588  21.942  12.437  19.510  0.0815 -0.0203  0.1846
39725W        W40589  22.082  11.603  18.254  0.1381  0.1074 -0.1045
39726W        W40590  22.934  12.961  23.429  0.1772  0.3057 -0.1220
39727W        W40591  23.776  10.482  20.856  0.1294 -0.0387 -0.0815
39728W        W40592  19.739  12.530  20.867  0.2711  0.0675  0.1604
39729W        W40593  22.219  10.692  19.001  0.4132 -0.0623  0.0648
39730W        W40594  21.163  12.232  20.625  0.1580  0.1007 -0.0540
39731W        W40595  18.145  14.879  20.573 -0.2717  0.0232 -0.2375
39732W        W40596  16.878  12.770  18.420  0.2615  0.1259  0.2398
39733W        W40597  23.057  11.574  18.667  0.1125  0.0482 -0.1065
39734W        W40598  16.703  16.987  20.652 -0.0664 -0.1233 -0.2052
39735W        W40599  21.474  12.770  15.186 -0.3783 -0.4385  0.0875
39736W        W40600  22.270  13.939  17.155  0.3257  0.2405 -0.1220
39737W        W40601  21.000  15.673  21.872 -0.3125 -0.1539  0.0840
39738W        W40602  24.058  12.274  21.293 -0.1902 -0.1443 -0.2417
39739W        W40603  21.444  13.468  19.052 -0.2254  0.0671  0.1174
39740W        W40604  17.513   8.521  20.780 -0.0233 -0.1383  0.0634
39741W        W40605  21.128  10.096  18.350  0.1356  0.2716  0.0378
39742W        W40606  17.491  12.399  19.202  0.1922 -0.1188 -0.2705
39743W        W40607  17.815  10.166  17.880 -0.1040  0.5269 -0.0933
39744W        W40608  18.755  12.834  18.962 -0.2414  0.0425 -0.0855
39745W        W40609  20.179  10.810  18.935  0.0214  0.1176 -0.0427
39746W        W40610  22.040  14.659  22.777  0.0812 -0.0908  0.0063
39747W        W40611  21.051  11.992  18.556  0.1799  0.1050 -0.0685
39748W        W40612  22.089  12.232  19.065 -0.0647 -0.1060  0.1093
39749W        W40613  20.347  11.886  23.825 -0.0338 -0.0001 -0.0511
39750W        W40614  23.759  14.324  19.157 -0.1984 -0.1241 -0.1665
39751W        W40615  20.265  12.521  20.063  0.2543  0.1605  0.0109
39752W        W40616  15.973  14.553  18.551 -0.3117  0.0854  0.0780
39753W        W40617  20.449  13.568  18.369  0.1522 -0.4225 -0.2619
39754W        W40618  23.334  14.388  19.480  0.1024 -0.2007  0.1397
39755W        W40619  23.055  12.823  19.261  0.3280  0.3394 -0.0309
39756W        W40620  20.074  11.763  22.346  0.0389  0.1174 -0.0327
39757W        W40621  16.487  13.142  19.973 -0.0032 -0.2347 -0.0791
39758W        W40622  17.401  10.322  18.187  0.3082 -0.2430 -0.0663
39759W        W40623  19.348  11.548  18.885 -0.1704 -0.0869  0.2396
39760W        W40624  20.098  13.170  20.700 -0.0038  0.1362 -0.1309
39761W        W40625  21.680  11.583  17.370 -0.1140  0.1507 -0.1699
39762W        W40626  20.163  15.143  20.497  0.0838 -0.2122  0.1898
39763W        W40627  20.624  13.978  21.138  0.1305  0.3190 -0.1122
39764W        W40628  19.696  17.321  22.310  0.1005 -0.0803  0.0707
39765W        W40629  20.224  12.461  23.477 -0.3378  0.0628  0.2277
39766W        W40630  22.454  10.579  19.670  0.0790 -0.0466 -0.2757
39767W        W40631  23.475  11.782  20.703 -0.2862 -0.1241  0.2060
39768W        W40632  19.857  13.731  18.618  0.2126  0.1852  0.1520
39769W        W40633  19.380  11.449  18.031 -0.2025 -0.1040 -0.1502
39770W        W40634  18.228  12.218  22.411 -0.0507  0.2372 -0.1088
39771W        W40635  21.063  11.058  20.725  0.2407 -0.2829  0.0565
39772W        W40636  22.575  12.416  18.380 -0.2604  0.1351 -0.0100
39773W        W40637  19.616  14.532  21.509  0.4449 -0.0540 -0.0656
39774W        W40638  18.810  11.314  19.579  0.4134  0.0364 -0.1570
39775W        W40639  23.250  12.396  21.169  0.0535  0.2868  0.1432
39776W        W40640  20.989  13.838  20.238 -0.0694  0.0762  0.0302
39777W        W40641  18.269  14.261  18.094 -0.0607  0.0061  0.0534
39778W        W40642  19.766  10.978  18.151  0.1554  0.1913  0.1077
39779W        W40643  20.587  13.763  19.310  0.2750  0.0260  0.0511
39780W        W40644  18.508  11.738  20.004 -0.0975  0.2043  0.0035
39781W        W40645  19.521  12.383  21.380 -0.0208  0.1683 -0.3282
39782W        W40646  20.305  15.893  18.240 -0.0011 -0.2225  0.3554
39783W        W40647  20.612  12.069  19.990  0.0964 -0.3204  0.0756
39784W        W40648  21.091   9.628  20.373 -0.2051  0.1133 -0.2079
39785W        W40649  19.347  14.968  19.261 -0.0169 -0.0147  0.2538
39786W        W40650  18.697  12.830  20.569  0.2050  0.3824 -0.0125
39787W        W40651  21.560  14.372  19.670 -0.1801  0.0731 -0.1628
39788W        W40652  22.204  13.904  23.445  0.0202 -0.3734  0.1804
39789W        W40653  19.795  14.794  22.978  0.0809 -0.2384 -0.2586
39790W        W40654  24.468   8.892  18.820  0.3167  0.0415  0.2862
39791W        W40655  19.045  11.147  17.787  0.0609  0.0496 -0.3357
39792W        W40656  22.337  11.667  22.045 -0.1048  0.2389 -0.0384
39793W        W40657  19.394  13.390  21.094 -0.0494  0.2925  0.0055
39794W        W40658  21.010  12.710  20.807 -0.2469  0.0749 -0.0973
39795W        W40659  20.473  14.851  17.586 -0.0716  0.1306  0.0031
39796W        W40660  18.603  11.134  17.340 -0.3385  0.0493 -0.1430
39797W        W40661  19.772  12.365  18.927 -0.3032  0.3665  0.2091
39798W        W40662  20.527  13.702  20.042  0.1337  0.1272  0.4235
39799W        W40663  21.700  10.562  19.037  0.1059  0.1145  0.2026
39800W        W40664  19.600  11.945  19.646  0.1320  0.2643  0.1019
39801W        W40665  23.094  12.900  22.596  0.2567  0.0803  0.1779
39802W        W40666  17.628  11.998  20.317  0.0404  0.1678  0.0221
39803W        W40667  23.280  11.355  20.551  0.4003  0.0191  0.0050
39804W        W40668  20.894  13.711  20.731  0.3649 -0.1138  0.2649
39805W        W40669  17.707  11.220  19.789 -0.1461 -0.0244  0.0440
39806W        W40670  17.949  13.930  19.117  0.2930  0.1498  0.1210
39807W        W40671  22.850  13.041  20.570 -0.4185  0.1220  0.0078
39808W        W40672  18.654  15.186  19.733 -0.2559  0.2630 -0.1828
39809W        W40673  23.468   9.557  20.805 -0.0451  0.1812 -0.2611
39810W        W40674  22.064  13.068  22.287  0.3205  0.0288  0.0435
39811W        W40675  17.460  12.188  22.050  0.4419 -0.1058  0.0126
39812W        W40676  23.021  12.757  21.866 -0.0612  0.0978 -0.0789
39813W        W40677  22.737  13.823  21.063 -0.0469  0.0229 -0.0148
39814W        W40678  19.437  12.678  17.919 -0.1313  0.2714  0.2445
39815W        W40679  22.929  13.998  20.068  0.1130  0.0963  0.1797
39816W        W40680  16.377   7.849  17.483 -0.3883  0.0503 -0.1180
39817W        W40681  18.881  11.787  20.363 -0.5420  0.3438  0.0878
39818W        W40682  16.730  15.847  19.724 -0.1954 -0.3853 -0.0069
39819W        W40683  22.036  11.651  21.163  0.1455 -0.1432  0.1690
39820W        W40684  22.496  12.401  20.968  0.1027  0.0404  0.0945
39821W        W40685  19.414  13.459  20.047  0.0001 -0.2816  0.0940
39822W        W40686  24.851  11.966  19.459 -0.2523  0.0820 -0.0542
39823W        W40687  19.230  15.152  21.946 -0.0661 -0.2046 -0.0383
39824W        W40688  21.427  13.649  19.700  0.0056  0.0250  0.2099
39825W        W40689  17.776  13.229  21.355  0.3534  0.1215 -0.0305
39826W        W40690  22.226  13.823  21.802  0.2346 -0.2010  0.0374
39827W        W40691  18.681  10.666  17.514 -0.0545 -0.0393 -0.0965
39828W        W40692  19.336  12.824  22.636 -0.1777 -0.2411  0.0252
39829W        W40693  21.498  12.229  19.683 -0.0617 -0.1661  0.2102
39830W        W40694  18.766  12.300  20.722  0.0126 -0.2144  0.3766
39831W        W40695  24.994  14.006  19.509  0.2037 -0.0627  0.1673
39832W        W40696  17.464  15.414  21.693  0.1221  0.2273  0.0074
39833W        W40697  18.159  11.614  18.737 -0.1021  0.1597  0.0822
39834W        W40698  20.767  11.985  21.880 -0.2464  0.0589  0.0056
39835W        W40699  21.065  10.148  20.278 -0.0506  0.1111 -0.2973
39836W        W40700  21.981  12.116  20.830 -0.1141 -0.4355  0.0198
39837W        W40701  19.474  12.232  18.107  0.0122 -0.0198  0.1700
39838W        W40702  17.371  17.416  24.407  0.0390  0.1128 -0.2693
39839W        W40703  21.381  13.472  23.416 -0.0985 -0.1807 -0.1165
39840W        W40704  20.286  11.284  22.986 -0.2159 -0.0132 -0.1597
39841W        W40705  19.359  12.510  19.140 -0.0047  0.0013  0.0881
39842W        W40706  18.451  13.439  19.701  0.0429  0.1276 -0.0012
39843W        W40707  20.337  12.685  17.851  0.0140 -0.0697 -0.1852
39844W        W40708  19.784  14.349  20.918  0.1797  0.2614 -0.1939
39845W        W40709  19.021  11.096  18.707 -0.1728 -0.1877  0.0830
39846W        W40710  20.957  13.134  20.637  0.0647 -0.0231 -0.0916
39847W        W40711  18.240   9.088  19.702 -0.0820 -0.2218  0.0795
39848W        W40712  21.604  14.404  20.660  0.1283 -0.0850 -0.2197
39849W        W40713  20.745  14.275  18.366 -0.0658  0.0937 -0.2131
39850W        W40714  20.545  12.828  19.815  0.0534 -0.2610  0.2520
39851W        W40715  20.630  11.351  18.374  0.0236 -0.1437 -0.1591
39852W        W40716  20.804  13.416  21.193  0.0197  0.3382  0.0072
39853W        W40717  17.446  14.373  19.835  0.1308 -0.0648 -0.1145
39854W        W40718  17.959  11.689  21.540 -0.0515 -0.1399 -0.2608
39855W        W40719  20.944  10.449  21.662 -0.1723 -0.2326  0.0397
39856W        W40720  17.852  13.325  18.172 -0.2029  0.0381 -0.0523
39857W        W40721  22.491  15.059  21.441 -0.1974  0.4236  0.2437
39858W        W40722  20.337  13.896  17.526 -0.1470  0.1616  0.0697
39859W        W40723  20.394  11.281  18.948  0.0926 -0.1134  0.2436
39860W        W40724  23.699   9.969  17.913 -0.0451  0.0775 -0.1490
39861W        W40725  17.567  16.587  24.516 -0.0683  0.0029 -0.1341
39862W        W40726  16.973   9.107  19.250  0.2468  0.0918  0.2300
39863W        W40727  17.037  10.788  16.083  0.2088  0.1114  0.0473
39864W        W40728  17.966  12.445  22.008  0.1238 -0.2277  0.1045
39865W        W40729  19.184  11.669  19.413  0.0484 -0.1109  0.2889
39866W        W40730  21.468  11.538  16.275  0.3093  0.2194 -0.3895
39867W        W40731  17.078  15.476  21.979 -0.0166 -0.0897  0.0109
39868W        W40732  20.335  13.292  21.275 -0.2014 -0.0135 -0.0993
39869W        W40733  17.786  11.355  18.952 -0.1503  0.0122  0.1839
39870W        W40734  16.328  10.561  21.169  0.0111  0.0973 -0.2419
39871W        W40735  20.901  12.861  18.641  0.1871 -0.0039 -0.2456
39872W        W40736  22.133   9.998  21.262 -0.6209  0.3361  0.4096
39873W        W40737  20.503  11.255  20.120  0.0936 -0.1400  0.1800
39874W        W40738  19.433  13.876  21.556 -0.0692  0.0291 -0.1171
39875W        W40739  19.447  12.748  20.303  0.0666  0.0434 -0.3032
39876W        W40740  18.214  11.410  16.014  0.0275  0.0150  0.3268
39877W        W40741  21.416   9.968  19.187 -0.5148 -0.0897  0.0613
39878W        W40742  23.478  14.050  18.361  0.1459  0.1811  0.0647
39879W        W40743  21.287  12.562  18.415 -0.0494 -0.0217  0.0015
39880W        W40744  19.188  13.089  19.198  0.2718 -0.2355  0.0608
39881W        W40745  20.183  13.026  19.521 -0.2191  0.1173 -0.0382
39882W        W40746  20.187  14.247  20.052  0.2916 -0.1502  0.1445
39883W        W40747  20.671  12.637  19.318 -0.0988 -0.1294 -0.2044
39884W        W40748  18.930  14.273  19.600  0.1328  0.3169 -0.0673
39885W        W40749  17.239  13.123  17.523  0.1577 -0.0116  0.2025
39886W        W40750  21.316  12.018  22.806  0.0554  0.5508  0.1840
39887W        W40751  16.677  14.950  22.092  0.1100 -0.0285 -0.0050
39888W        W40752  21.681  12.007  21.486 -0.3023 -0.0041 -0.2500
39889W        W40753  19.147  13.170  20.360  0.2697  0.2668 -0.0162
39890W        W40754  23.438  15.188  21.224  0.2856 -0.0569  0.1191
39891W        W40755  23.497  14.955  18.441 -0.2512  0.1295  0.0767
39892W        W40756  19.262  13.875  17.939 -0.2720  0.2779  0.0642
39893W        W40757  21.122  13.168  17.817 -0.1151  0.5188 -0.0813
39894W        W40758  19.802  13.218  22.004 -0.1400  0.3676  0.0008
39895W        W40759  16.509  13.947  23.165 -0.0607  0.0947  0.0870
39896W        W40760  23.449   9.775  22.300  0.1406  0.1917 -0.2489
39897W        W40761  22.918  12.561  20.632  0.1986  0.2991  0.0048
39898W        W40762  24.769  14.246  23.728 -0.1427 -0.0189 -0.1783
39899W        W40763  19.140  10.669  17.699  0.0406 -0.1412 -0.3123
39900W        W40764  20.200  12.099  17.713  0.1836 -0.0844  0.0816
39901W        W40765  19.807  11.835  20.366  0.1933  0.0562  0.0973
39902W        W40766  19.623  14.245  20.076  0.1088  0.3728  0.1290
39903W        W40767  21.664  12.656  19.933 -0.0749 -0.0523 -0.0844
39904W        W40768  21.974  11.843  19.479  0.2597  0.2438  0.0808
39905W        W40769  20.401  12.289  21.978 -0.0583  0.0086 -0.0829
39906W        W40770  16.989  11.795  19.906  0.2358 -0.0899 -0.0038
39907W        W40771  17.827  12.054  24.612  0.3877  0.2782  0.0219
39908W        W40772  17.524  11.416  17.604  0.0580  0.0122 -0.0906
39909W        W40773  21.294  14.951  18.811  0.2974  0.0631 -0.1145
39910W        W40774  16.928  13.128  20.332  0.0854 -0.0141 -0.0667
39911W        W40775  19.434  11.340  17.026  0.0713 -0.1537 -0.2027
39912W        W40776  20.219  12.570  20.845  0.1405  0.2284  0.0665
39913W        W40777  18.930   9.482  18.362 -0.0170 -0.1235  0.1378
39914W        W40778  22.433  15.470  24.195  0.2313  0.1381 -0.4183
39915W        W40779  22.847  12.059  22.230  0.1494  0.0591  0.0478
39916W        W40780  19.561  13.260  18.434  0.2621  0.0980  0.2929
39917W        W40781  20.321  14.906  22.886  0.3717 -0.0311 -0.0350
39918W        W40782  20.357  11.251  21.572  0.0855  0.3890  0.0645
39919W        W40783  20.828  10.318  21.107 -0.0889  0.0260  0.0206
39920W        W40784  19.957  12.758  20.375 -0.0554 -0.1709  0.0819
39921W        W40785  16.413  11.098  19.249 -0.2277  0.2490 -0.0770
39922W        W40786  21.988  12.566  22.172 -0.4816 -0.1869 -0.0499
39923W        W40787  18.552  15.572  21.791  0.2767  0.2093 -0.1104
39924W        W40788  23.404  14.292  19.934  0.1125  0.0780  0.0464
39925W        W40789  20.027  13.157  18.678  0.1331 -0.0331  0.0466
39926W        W40790  18.412  10.120  19.425 -0.2318 -0.0771 -0.0544
39927W        W40791  19.340  14.174  21.157 -0.3404  0.1071  0.1411
39928W        W40792  20.546  13.553  22.759  0.2204 -0.1325 -0.1063
39929W        W40793  20.377  14.686  20.405 -0.1566 -0.2402  0.2715
39930W        W40794  22.144  14.336  16.775 -0.2501 -0.3321 -0.1672
39931W        W40795  23.555  15.283  19.374 -0.0826  0.5667  0.0213
39932W        W40796  23.738  10.696  16.776 -0.1705 -0.1911  0.0021
39933W        W40797  16.064  12.984  22.097 -0.0313 -0.1510  0.1007
39934W        W40798  18.885  11.521  17.114  0.0389  0.0002 -0.2017
39935W        W40799  23.933  13.391  21.544 -0.0724  0.0016 -0.0525
39936W        W40800  21.472  12.375  22.058  0.2658 -0.3119  0.0311
39937W        W40801  18.769  11.621  21.765  0.0936 -0.0060 -0.0428
39938W        W40802  20.661  14.553  20.845  0.3221  0.4361  0.1362
39939W        W40803  18.000  11.912  22.034  0.0640  0.0293 -0.1353
39940W        W40804  18.791  12.925  21.945 -0.0951  0.1017  0.2755
39941W        W40805  21.161  12.276  21.614  0.1467 -0.1196 -0.1281
39942W        W40806  18.409  14.785  18.338  0.2312 -0.0430  0.0515
39943W        W40807  21.271  12.994  19.025  0.3165 -0.0494  0.3266
39944W        W40808  18.872  14.220  20.737  0.0713  0.4444 -0.1160
39945W        W40809  20.553  11.801  19.495  0.2201  0.0815  0.1217
39946W        W40810  17.338  13.589  18.407 -0.1065  0.0261  0.0155
39947W        W40811  17.834  11.320  20.321 -0.1782 -0.1196  0.1635
39948W        W40812  22.325  11.358  21.467 -0.3005  0.0977 -0.1678
39949W        W40813  19.609  11.460  19.300 -0.0678 -0.0294 -0.0814
39950W        W40814  20.811  14.874  22.196 -0.0840  0.2062 -0.2196
39951W        W40815  20.488  11.296  19.545 -0.2372  0.0168  0.1846
39952W        W40816  17.721   9.809  23.054 -0.2442  0.2846 -0.2495
39953W        W40817  16.023  11.967  19.852 -0.0256  0.1193  0.1896
39954W        W40818  21.682  12.789  18.080 -0.2903 -0.0721 -0.2820
39955W        W40819  18.553  14.614  22.229  0.0470  0.0909  0.1619
39956W        W40820  18.370  13.026  18.718  0.0680 -0.1537 -0.0518
39957W        W40821  20.893  11.135  18.786 -0.3062 -0.0354 -0.2118
39958W        W40822  20.251  13.617  18.942 -0.2895 -0.0667 -0.0887
39959W        W40823  18.629  14.656  18.969  0.2461  0.1665 -0.0104
39960W        W40824  20.334  11.469  14.746  0.1912 -0.1308 -0.3353
39961W        W40825  21.568  10.878  18.484 -0.1367 -0.0163 -0.0324
39962W        W40826  19.179  11.028  17.289 -0.2885 -0.2522  0.3100
39963W        W40827  20.692  12.702  22.852  0.0589 -0.1692  0.3109
39964W        W40828  21.753  11.695  17.887  0.1888  0.0083  0.3235
39965W        W40829  22.086  12.584  18.235  0.1252  0.0943  0.0642
39966W        W40830  23.494  10.235  18.714  0.0724 -0.1572 -0.0012
39967W        W40831  21.026  11.529  19.403  0.2424 -0.0557 -0.1981
39968W        W40832  20.384  13.567  20.864  0.1411 -0.0001 -0.0116
39969W        W40833  20.099  12.225  20.442 -0.1940 -0.2795 -0.0105
39970W        W40834  18.971  13.145  20.871 -0.2004  0.2602 -0.0971
39971W        W40835  22.224  10.858  20.093  0.1811 -0.3037  0.0388
39972W        W40836  20.119  13.612  21.924 -0.0768  0.0677  0.1386
39973W        W40837  21.850  16.506  20.891 -0.3399  0.4347 -0.1324
39974W        W40838  22.871  11.625  21.968 -0.0622  0.0340 -0.0520
39975W        W40839  17.930  15.663  21.579  0.0355  0.1980  0.0336
39976W        W40840  17.835  12.716  19.008  0.0516 -0.5349  0.0905
39977W        W40841  16.846  14.072  20.728 -0.0108  0.2157  0.1034
39978W        W40842  19.152  13.761  20.379  0.3015 -0.0882  0.0090
39979W        W40843  22.052  14.752  17.724  0.2856  0.0782  0.2447
39980W        W40844  18.901  11.299  18.243  0.0306  0.1473 -0.0592
39981W        W40845  21.007  15.590  16.492 -0.3194 -0.1720  0.3779
39982W        W40846  17.183  13.726  21.083  0.2760  0.0110  0.1518
39983W        W40847  21.073  10.547  20.642  0.3257 -0.2407  0.1447
39984W        W40848  20.240  10.365  19.036 -0.0748  0.0709 -0.0517
39985W        W40849  17.460  12.687  18.325 -0.0232  0.1012  0.2403
39986W        W40850  19.822  11.614  19.954 -0.0176 -0.1361  0.4595
39987W        W40851  19.862  13.432  21.491  0.0760  0.1852 -0.0064
39988W        W40852  22.170  12.068  18.501  0.2337  0.0832 -0.1216
39989W        W40853  21.683  13.876  18.757 -0.1835  0.0561  0.1297
39990W        W40854  19.295  14.587  17.848  0.2232 -0.1853 -0.3056
39991W        W40855  18.993  15.083  21.105 -0.1374  0.2888 -0.0847
39992W        W40856  20.359  12.989  18.318 -0.2523  0.0527  0.1826
39993W        W40857  22.937  10.525  17.836  0.1015 -0.0285 -0.2437
39994W        W40858  19.120  14.132  22.836  0.2047 -0.0142 -0.1535
39995W        W40859  19.459  12.345  22.405 -0.0554 -0.0523  0.1036
39996W        W40860  17.722  13.708  20.442 -0.0475 -0.1108 -0.3293
39997W        W40861  22.755  14.245  17.572  0.2479 -0.2169  0.2381
39998W        W40862  20.139  11.802  21.306 -0.1428 -0.0767 -0.3001
39999W        W40863  20.571  11.939  18.366  0.0918 -0.1173 -0.0831
40000W        W40864  19.308  15.256  18.867  0.1713  0.2602 -0.1944
40001W        W40865  22.743  13.159  22.966 -0.1521 -0.1610 -0.0971
40002W        W40866  17.682  10.903  20.504  0.3864  0.1569 -0.0122
40003W        W40867  18.741  13.445  20.520  0.1665 -0.0014 -0.1345
40004W        W40868  21.717  12.856  18.593 -0.0689 -0.2960  0.0599
40005W        W40869  20.065  11.293  21.135  0.1307 -0.1066  0.0586
40006W        W40870  23.163   8.261  20.486 -0.0407 -0.0297  0.4356
40007W        W40871  24.871  12.051  21.151  0.1306 -0.1691  0.0627
40008W        W40872  21.269  14.770  21.619  0.4282  0.1594 -0.1497
40009W        W40873  20.819  14.068  21.666 -0.1206  0.1651 -0.1375
40010W        W40874  23.171  14.925  24.387  0.1948 -0.1070 -0.1995
40011W        W40875  19.005  14.015  18.878 -0.2842  0.0724 -0.1411
40012W        W40876  25.977  14.220  17.820 -0.0380 -0.1543 -0.1438
40013W        W40877  22.567  12.091  18.764 -0.0029 -0.1865  0.0549
40014W        W40878  18.544  12.302  19.214 -0.0471 -0.3629  0.1077
40015W        W40879  21.784  14.125  22.025  0.2065  0.2772 -0.0347
40016W        W40880  19.027  13.563  22.593 -0.0930 -0.0966  0.0818
40017W        W40881  19.664  13.971  19.609  0.0326  0.0246  0.1065
40018W        W40882  17.477  13.984  18.771  0.1170 -0.3356 -0.1936
40019W        W40883  22.909  15.200  19.087 -0.0104 -0.0581 -0.2217
40020W        W40884  17.155  15.003  21.866  0.1398 -0.1043  0.0252
40021W        W40885  19.396  13.109  21.530  0.5125  0.6248  0.0954
40022W        W40886  17.088  13.648  18.856  0.0187  0.0739 -0.2138
40023W        W40887  16.555  15.582  20.159 -0.0412 -0.0187  0.4132
40024W        W40888  17.556  12.985  20.370  0.0700 -0.4050  0.2654
40025W        W40889  20.829  13.205  19.168  0.2077  0.0313 -0.0045
40026W        W40890  22.712  11.719  19.127 -0.2288 -0.3477  0.3722
40027W        W40891  22.253  11.373  20.346  0.2522 -0.2047  0.2976
40028W        W40892  20.025  13.950  20.755  0.1329 -0.1755 -0.0867
40029W        W40893  20.428  15.549  19.770 -0.6907  0.2657 -0.0991
40030W        W40894  24.440  11.663  21.944 -0.2973  0.0524  0.0294
40031W        W40895  16.495  15.428  20.759  0.0734  0.0956  0.1825
40032W        W40896  19.982  10.921  23.704  0.0501 -0.0302 -0.1198
40033W        W40897  19.515   9.433  17.356 -0.0413  0.3755  0.2045
40034W        W40898  16.691  12.993  16.727 -0.0456  0.2577 -0.4052
40035W        W40899  20.294  12.755  22.508  0.2518 -0.3971 -0.0609
40036W        W40900  17.464  11.331  20.688 -0.0760 -0.1695  0.1878
40037W        W40901  18.407  14.347  20.557  0.1824 -0.0681  0.0308
40038W        W40902  19.478  11.999  19.181  0.2169 -0.1258  0.0166
40039W        W40903  20.255  12.756  21.342  0.2144  0.0617  0.1383
40040W        W40904  22.407  13.762  19.362  0.1587 -0.0701 -0.3446
40041W        W40905  20.921  11.088  17.276 -0.0196  0.0131  0.0379
40042W        W40906  19.814  13.371  19.775 -0.0787  0.0001  0.0371
40043W        W40907  19.174  11.149  19.249  0.0786 -0.1243 -0.3556
40044W        W40908  23.571  10.901  18.062  0.1344  0.3269  0.2199
40045W        W40909  17.218  16.206  18.981 -0.2554 -0.0931  0.1624
40046W        W40910  23.553  12.518  16.956  0.0744  0.2331  0.2067
40047W        W40911  16.964  13.456  16.598  0.0581 -0.2135  0.0928
40048W        W40912  21.633  13.321  23.955 -0.2438  0.0880  0.1058
40049W        W40913  22.462  12.730  19.211  0.0394 -0.3205  0.1283
40050W        W40914  18.100  11.116  21.230  0.0078 -0.3721 -0.1820
40051W        W40915  18.722  13.045  19.753  0.3276  0.5354 -0.0060
40052W        W40916  19.860  12.814  21.646  0.2030 -0.2418 -0.0062
40053W        W40917  20.294  11.749  20.184 -0.1073  0.1320  0.0714
40054W        W40918  17.675  11.210  21.620 -0.0665 -0.0077  0.0554
40055W        W40919  19.393  12.314  23.551  0.0153  0.2248 -0.1103
40056W        W40920  17.743  14.828  19.753 -0.2431  0.2623  0.0933
40057W        W40921  17.040  10.781  22.353  0.3120 -0.2353  0.0573
40058W        W40922  21.399  14.108  21.701 -0.0551  0.0472 -0.1027
40059W        W40923  20.230  16.005  23.590 -0.0574 -0.4092 -0.2192
40060W        W40924  19.893   9.974  19.002 -0.2521  0.3991  0.1707
40061W        W40925  20.334  11.780  16.870 -0.0333  0.0901  0.1018
40062W        W40926  16.615  17.636  22.086 -0.1589 -0.0133 -0.0480
40063W        W40927  20.874  13.051  21.755 -0.1517  0.3583  0.0190
40064W        W40928  20.693  11.770  22.980 -0.2234  0.0534 -0.0272
40065W        W40929  21.250  13.558  22.967  0.3208 -0.1247  0.0031
40066W        W40930  20.250  13.554  19.596  0.2115 -0.1980 -0.2250
40067W        W40931  23.354  13.089  18.979  0.2694  0.0447  0.1024
40068W        W40932  20.536  14.906  21.127  0.2961  0.1739 -0.0608
40069W        W40933  18.348  14.361  21.053  0.0256  0.3131  0.0822
40070W        W40934  20.636  13.119  22.589 -0.1077  0.3116  0.0470
40071W        W40935  19.502  13.241  16.713  0.0917 -0.0327 -0.0513
40072W        W40936  19.265  16.223  22.832  0.1928  0.4268  0.0775
40073W        W40937  15.894  15.295  17.729  0.1698 -0.0807 -0.1510
40074W        W40938  19.555  11.653  16.082  0.0464 -0.1601  0.1578
40075W        W40939  17.048  14.243  27.329 -0.0082 -0.1510 -0.0966
40076W        W40940  20.581  12.333  25.859 -0.1256  0.3956  0.1600
40077W        W40941  19.882  12.243  23.068  0.1283 -0.1290  0.1196
40078W        W40942  20.192  16.409  24.233 -0.0259  0.2178 -0.2537
40079W        W40943  18.089  16.513  25.234 -0.1560 -0.3010 -0.1531
40080W        W40944  19.776  12.008  20.912 -0.1132 -0.0402  0.0992
40081W        W40945  20.821  11.197  23.718 -0.5204  0.0215 -0.1199
40082W        W40946  18.869  12.696  22.852 -0.0578  0.0680 -0.1197
40083W        W40947  22.338  16.239  23.708 -0.3721 -0.0102  0.0069
40084W        W40948  17.089  13.386  25.346  0.1678  0.4140 -0.1288
40085W        W40949  18.117  11.424  20.730  0.3633 -0.2205  0.0611
40086W        W40950  20.241  12.269  24.636 -0.0726  0.2257  0.2119
40087W        W40951  16.892  11.298  26.469  0.2455  0.2796 -0.2195
40088W        W40952  18.526  12.006  23.894 -0.2183  0.0434 -0.1529
40089W        W40953  18.398  14.343  23.639 -0.1002  0.2372  0.0621
40090W        W40954  19.133  14.762  23.875 -0.4923  0.1315 -0.0671
40091W        W40955  17.753  13.199  22.309  0.0951  0.2079 -0.2122
40092W        W40956  19.122  10.131  23.307  0.2700 -0.0364 -0.0638
40093W        W40957  19.951  11.076  25.453  0.2035 -0.0429 -0.0142
40094W        W40958  20.657  12.436  24.995  0.2642 -0.0623 -0.0339
40095W        W40959  20.310  11.325  23.904 -0.0685  0.1928  0.1519
40096W        W40960  18.941  14.048  23.355 -0.4115  0.0252  0.1226
40097W        W40961  18.295  14.830  23.928 -0.0683 -0.1289 -0.1137
40098W        W40962  18.696  15.373  23.268  0.1055 -0.2418  0.0433
40099W        W40963  17.542  13.879  26.131 -0.2053  0.1676 -0.3256
40100W        W40964  18.415  14.566  25.453 -0.1678  0.0906 -0.1615
40101W        W40965  20.395  12.330  23.983  0.1620 -0.3948 -0.0107
40102W        W40966  18.931  15.950  23.920  0.2935  0.1149 -0.0193
40103W        W40967  18.094  14.763  26.005  0.0734  0.1286  0.0603
40104W        W40968  20.165  10.495  20.630  0.0466  0.0914  0.0222
40105W        W40969  18.513  11.492  24.634 -0.0898  0.1856 -0.2624
40106W        W40970  18.825  15.424  25.752  0.2621  0.1731 -0.1627
40107W        W40971  20.541  14.005  25.482 -0.1887  0.1686  0.3138
40108W        W40972  19.834  12.861  24.850  0.1861  0.1400 -0.1235
40109W        W40973  16.419  13.458  27.305 -0.4514  0.1621 -0.1620
40110W        W40974  21.822  13.407  25.330  0.2237  0.3212 -0.0535
40111W        W40975  18.585  12.591  21.525  0.0077  0.0398  0.1188
40112W        W40976  19.887  14.785  22.472 -0.1197 -0.0959  0.0953
40113W        W40977  21.845  15.380  23.955  0.1830 -0.0249  0.0898
40114W        W40978  21.375  13.205  24.364 -0.2222 -0.1947  0.2807
40115W        W40979  21.550  12.520  23.019  0.1178 -0.2555  0.3067
40116W        W40980  19.805  16.102  24.867  0.0028  0.0471 -0.2421
40117W        W40981  21.781  15.037  24.495  0.2240  0.0574 -0.1861
40118W        W40982  20.353  13.035  24.323  0.2323 -0.1809 -0.3905
40119W        W40983  19.197  13.919  19.875  0.1689  0.2253  0.0654
40120W        W40984  21.217  14.536  23.393  0.1731  0.0347  0.2817
40121W        W40985  18.741  13.910  24.808  0.0765 -0.1885 -0.0003
40122W        W40986  20.531   9.920  26.184  0.1798  0.2340 -0.0194
40123W        W40987  21.836  13.829  24.953 -0.1276  0.0277  0.0351
40124W        W40988  18.060  12.372  22.916  0.1624 -0.2838 -0.0153
40125W        W40989  19.591  15.639  26.574 -0.2348  0.0790 -0.1803
40126W        W40990  20.649  11.736  21.166 -0.3421 -0.0244 -0.3720
40127W        W40991  22.419  15.141  23.699 -0.1682 -0.4804 -0.0287
40128W        W40992  24.982  12.714  21.753 -0.1693 -0.2025 -0.1258
40129W        W40993  21.175  10.756  21.106  0.3045 -0.4004 -0.1136
40130W        W40994  19.984  12.253  22.261  0.0685  0.1690 -0.3541
40131W        W40995  18.772  10.765  25.293  0.1687  0.0907  0.1756
40132W        W40996  21.903  13.382  20.902 -0.0243  0.2025 -0.1990
40133W        W40997  20.628  11.406  24.454 -0.0423  0.1326  0.1337
40134W        W40998  19.375  14.831  22.674  0.0119  0.1576 -0.0092
40135W        W40999  21.959  11.611  21.696 -0.1004 -0.1122 -0.0499
40136W        W41000  18.860  18.289  25.700 -0.5132  0.3214  0.0832
40137W        W41001  19.149  14.185  23.887 -0.0451  0.0910 -0.2312
40138W        W41002  17.491  12.700  22.022  0.2270 -0.1627 -0.0061
40139W        W41003  17.680  11.354  25.389  0.2791  0.0198 -0.0178
40140W        W41004  21.910  12.106  25.300 -0.0526 -0.0172 -0.2424
40141W        W41005  20.463  11.551  23.413 -0.1730 -0.3264  0.1189
40142W        W41006  17.739  15.853  22.629 -0.0453 -0.0329  0.0486
40143W        W41007  18.939  11.805  26.245 -0.1100 -0.0380  0.0984
40144W        W41008  18.497  17.103  23.512 -0.1424  0.2009 -0.0517
40145W        W41009  22.545  16.701  25.920  0.3790 -0.2796  0.0486
40146W        W41010  21.829  12.009  21.999 -0.0653 -0.1478 -0.1050
40147W        W41011  21.560  17.465  24.443 -0.1838  0.1082  0.0189
40148W        W41012  19.040  13.497  24.755  0.0030  0.2280 -0.5233
40149W        W41013  22.857  13.556  23.281 -0.2869 -0.2006 -0.1729
40150W        W41014  18.816  15.961  24.684  0.0685 -0.3988 -0.0298
40151W        W41015  17.586  13.036  23.666 -0.1178 -0.1136  0.0107
40152W        W41016  19.745  12.884  23.998 -0.0360 -0.1432  0.0185
40153W        W41017  21.663  10.766  20.826  0.1187 -0.0581 -0.1476
40154W        W41018  20.971  13.981  22.785  0.0944  0.0178 -0.2409
40155W        W41019  18.317  14.773  23.396  0.2162  0.2611 -0.0489
40156W        W41020  17.499  13.814  25.250  0.3880 -0.0233 -0.0298
40157W        W41021  18.666  13.890  23.849 -0.2878 -0.1661  0.3298
40158W        W41022  18.456  11.621  25.793 -0.0551 -0.0101  0.2858
40159W        W41023  21.006  11.157  24.233  0.0607 -0.0061  0.0306
40160W        W41024  21.518  10.532  22.497 -0.2263 -0.2497  0.2318
40161W        W41025  22.989  14.576  23.538  0.0630  0.1595  0.1212
40162W        W41026  18.161  10.694  25.972 -0.2234 -0.0568  0.0673
40163W        W41027  20.935  12.333  24.630 -0.1453 -0.0255  0.1601
40164W        W41028  23.970  11.627  26.511  0.4250  0.4321  0.0923
40165W        W41029  22.136  12.298  23.223  0.0689 -0.1668  0.1575
40166W        W41030  20.250  13.397  24.696 -0.1833  0.0022  0.3018
40167W        W41031  19.130  14.560  23.088  0.1484  0.1928 -0.1853
40168W        W41032  19.430  11.327  19.766  0.1150 -0.0598  0.1732
40169W        W41033  21.348  12.891  23.957 -0.3381  0.3821  0.1714
40170W        W41034  22.043  12.933  23.756  0.1080 -0.1091  0.3028
40171W        W41035  20.657  13.810  23.684  0.1718 -0.2957  0.0770
40172W        W41036  18.950  17.118  23.116  0.1463 -0.0762  0.0658
40173W        W41037  18.624  11.226  24.156 -0.2115 -0.1974 -0.0214
40174W        W41038  22.360  10.864  23.519  0.1141 -0.1012  0.1213
40175W        W41039  22.679  14.608  21.707  0.1732 -0.1214 -0.2075
40176W        W41040  17.557  11.910  21.290 -0.1866 -0.5257  0.2318
40177W        W41041  19.819  12.614  22.617  0.4914  0.1364  0.1000
40178W        W41042  21.741  13.634  22.846 -0.1617 -0.2811  0.2053
40179W        W41043  22.195  10.934  24.253  0.1076 -0.0101  0.2719
40180W        W41044  21.467  11.887  25.756  0.1898 -0.1804  0.1541
40181W        W41045  21.117  12.985  21.204  0.1014  0.0463 -0.2886
40182W        W41046  20.063  13.812  24.873  0.0706 -0.1448 -0.0262
40183W        W41047  22.287  10.328  24.463 -0.0502 -0.1419 -0.0953
40184W        W41048  20.276  13.613  25.296 -0.1457 -0.4005  0.0999
40185W        W41049  19.644  14.341  23.001  0.2496 -0.0167  0.2814
40186W        W41050  18.566  15.075  22.499  0.1031  0.0457 -0.0468
40187W        W41051  19.832  13.642  24.326  0.0293 -0.1589  0.0633
40188W        W41052  23.465  15.406  24.559  0.0078 -0.1428  0.1150
40189W        W41053  21.312  11.840  21.890 -0.2457 -0.0441  0.1984
40190W        W41054  18.335  11.439  22.182 -0.0490 -0.0930 -0.2850
40191W        W41055  22.408  10.343  24.948 -0.2300  0.1735  0.0145
40192W        W41056  21.347  16.492  25.290  0.0628 -0.0892  0.0437
40193W        W41057  19.111  10.556  24.202 -0.2857 -0.1154  0.1668
40194W        W41058  20.867  12.217  22.797  0.1218  0.1197 -0.1417
40195W        W41059  21.174  11.614  23.054  0.0583 -0.1639  0.0197
40196W        W41060  20.877  15.493  24.390  0.3932 -0.0888  0.0048
40197W        W41061  20.856  14.372  22.440 -0.1317 -0.0440  0.0703
40198W        W41062  20.259  13.136  22.954 -0.0484  0.0456  0.1841
40199W        W41063  19.465  11.740  23.491 -0.2236  0.2139  0.0937
40200W        W41064  22.800  11.933  24.834 -0.0141  0.0649  0.2666
40201W        W41065  18.480  13.053  23.370  0.1690  0.2717  0.0290
40202W        W41066  22.000  13.467  25.818 -0.2138 -0.1510 -0.0336
40203W        W41067  21.098  12.590  23.164 -0.2434 -0.1559 -0.1354
40204W        W41068  19.839  15.050  24.864 -0.0740  0.1061  0.2184
40205W        W41069  21.142  15.060  23.046  0.3764 -0.0142  0.2551
40206W        W41070  20.374  13.509  23.375 -0.2319  0.2174 -0.2202
40207W        W41071  19.081  15.746  22.917 -0.0474  0.2438  0.1637
40208W        W41072  20.763  14.791  22.722 -0.1846 -0.1315  0.0470
40209W        W41073  21.108  12.160  25.075  0.1846  0.0962 -0.1916
40210W        W41074  15.758  13.605  25.866 -0.0763  0.0214  0.1370
40211W        W41075  22.309  13.936  24.896  0.1521  0.0237 -0.1303
40212W        W41076  21.725  11.180  23.538 -0.2702  0.0373  0.0825
40213W        W41077  20.580  15.040  24.430 -0.2357 -0.3284 -0.2002
40214W        W41078  20.285  15.370  24.832  0.0955 -0.3426 -0.1272
40215W        W41079  20.172  13.956  23.461 -0.2768  0.0632 -0.0040
40216W        W41080  20.390   8.638  25.332  0.1653 -0.1052  0.0242
40217W        W41081  19.358  15.758  19.755  0.2758 -0.0847  0.0638
40218W        W41082  19.653  13.900  23.303 -0.1906  0.0338 -0.1922
40219W        W41083  21.301  15.990  25.824 -0.1010  0.0421 -0.0936
40220W        W41084  17.718  12.752  25.803  0.0580 -0.3133  0.0148
40221W        W41085  19.595  10.938  20.072 -0.3192  0.2423  0.2330
40222W        W41086  23.121  14.446  24.557 -0.0804  0.0580  0.0629
40223W        W41087  21.520  13.726  22.266 -0.1293 -0.1362  0.2571
40224W        W41088  18.609  14.373  23.094  0.1046 -0.0752  0.0053
40225W        W41089  19.509  13.891  24.619 -0.1450  0.2100  0.2071
40226W        W41090  18.809  10.296  25.502  0.1708 -0.1013  0.1526
40227W        W41091  19.335  14.815  25.394 -0.4806  0.0527  0.0991
40228W        W41092  20.367   9.106  21.026  0.0249  0.0027  0.3269
40229W        W41093  19.567  12.454  21.901  0.1323 -0.0125 -0.3733
40230W        W41094  19.419  11.422  20.324  0.0295 -0.0096 -0.0054
40231W        W41095  18.790  12.734  24.772 -0.0413 -0.0200  0.0069
40232W        W41096  20.270  11.173  22.115 -0.2646 -0.1513  0.3613
40233W        W41097  18.082  10.490  21.978 -0.0218 -0.0253 -0.2501
40234W        W41098  18.583  13.733  22.118  0.0321  0.1769 -0.0005
40235W        W41099  19.413  10.481  22.996  0.3413  0.0924 -0.1995
40236W        W41100  20.979  11.185  24.755  0.1865  0.3175  0.1966
40237W        W41101  19.635  12.531  25.185 -0.3355  0.0402 -0.0369
40238W        W41102  21.820  13.429  27.227  0.0826  0.0249 -0.1221
40239W        W41103  18.624   6.559  26.049  0.0099  0.1131  0.2428
40240W        W41104  19.035  11.954  23.504 -0.3859 -0.3454 -0.1958
40241W        W41105  20.516  10.333  25.888 -0.2051  0.2915  0.2607
40242W        W41106  16.888  17.546  27.177  0.1623  0.0652 -0.2340
40243W        W41107  16.689  15.025  24.355 -0.2718 -0.0549 -0.0037
40244W        W41108  18.460  11.418  22.757  0.2936 -0.3509  0.1594
40245W        W41109  20.907  13.473  24.418  0.0849 -0.2162 -0.1307
40246W        W41110  21.803  11.129  25.422  0.3426 -0.2650  0.1509
40247W        W41111  20.861  12.542  21.888 -0.0288  0.2346  0.2407
40248W        W41112  22.295  13.917  20.775 -0.0590  0.1905  0.0132
40249W        W41113  20.742  11.446  20.579 -0.1871  0.0321  0.1663
40250W        W41114  22.237  14.645  21.356  0.1667  0.1735 -0.2120
40251W        W41115  16.610  13.510  24.508  0.0029 -0.1261  0.0548
40252W        W41116  18.030  14.256  24.627  0.2976  0.2263 -0.1263
40253W        W41117  17.862  15.646  24.126 -0.2443  0.0925 -0.1262
40254W        W41118  18.717  11.168  25.013 -0.0596  0.1953  0.1712
40255W        W41119  18.667  14.950  24.623 -0.0308 -0.1306 -0.1289
40256W        W41120  19.690  19.125  19.391  0.0832  0.0820 -0.1055
40257W        W41121  20.764  11.273  23.112 -0.2719  0.0616  0.2031
40258W        W41122  19.811  10.921  20.588 -0.0514  0.0050  0.0499
40259W        W41123  21.658  11.555  22.152  0.0373 -0.0066  0.0752
40260W        W41124  20.380  12.756  24.737  0.0198 -0.0042  0.3386
40261W        W41125  19.835  12.457  23.886 -0.2523 -0.0502  0.1577
40262W        W41126  17.688  10.869  22.490  0.1082  0.0609  0.0698
40263W        W41127  17.841  14.517  23.632 -0.1202  0.0089  0.1100
40264W        W41128  21.218  14.253  24.296 -0.1632 -0.1291  0.0523
40265W        W41129  18.812  11.915  21.060  0.0815 -0.2473 -0.1306
40266W        W41130  17.358  12.602  22.521 -0.1146  0.1108 -0.0529
40267W        W41131  16.732  15.172  23.504 -0.0635 -0.0636 -0.0961
40268W        W41132  21.010  13.032  25.608 -0.1585  0.1284  0.0967
40269W        W41133  17.062  11.621  22.576  0.0349  0.4315 -0.0557
40270W        W41134  20.587  12.868  23.313 -0.1513  0.1738 -0.4812
40271W        W41135  20.013   8.914  20.269 -0.0776  0.1635  0.1159
40272W        W41136  16.499  11.897  25.134  0.0126 -0.0189 -0.1575
40273W        W41137  18.060  10.404  25.033 -0.0920  0.0418  0.0886
40274W        W41138  21.691  11.528  23.220 -0.1958 -0.3580 -0.0267
40275W        W41139  17.199  12.503  21.407  0.1053  0.2363  0.0456
40276W        W41140  20.429  13.796  24.480 -0.3126  0.1029 -0.1115
40277W        W41141  24.450  14.481  25.379  0.0473  0.1587 -0.0493
40278W        W41142  16.282  12.348  23.849 -0.0932 -0.2038 -0.1500
40279W        W41143  17.486  12.568  23.573 -0.1203 -0.0516  0.1109
40280W        W41144  19.601  11.902  22.186  0.0588  0.1266 -0.1884
40281W        W41145  18.052  13.329  25.799  0.2096 -0.1581  0.1678
40282W        W41146  19.973  17.294  24.670  0.1144  0.1022 -0.2638
40283W        W41147  19.961  12.125  21.751 -0.1392  0.1831  0.1023
40284W        W41148  18.926  11.301  20.505  0.3069 -0.1100 -0.0558
40285W        W41149  20.050  15.176  25.832  0.0529 -0.3018  0.0455
40286W        W41150  17.723  15.161  25.873 -0.2158 -0.0721 -0.2597
40287W        W41151  18.548  15.325  24.957 -0.0570  0.1096  0.0989
40288W        W41152  20.923   9.800  21.516  0.0994  0.0220  0.0076
40289W        W41153  23.164  10.296  24.174 -0.1181 -0.0469 -0.4722
40290W        W41154  21.682  13.332  21.381  0.0387 -0.3508 -0.3403
40291W        W41155  16.972  14.158  21.271 -0.3312  0.0909  0.0972
40292W        W41156  19.288  15.886  22.437  0.1445  0.0353 -0.0660
40293W        W41157  19.356  12.035  24.481 -0.1864  0.0734  0.1435
40294W        W41158  16.791  15.280  24.852  0.2631 -0.1210 -0.0485
40295W        W41159  19.964   8.241  23.191 -0.1004 -0.1473 -0.0486
40296W        W41160  22.045  12.506  24.917 -0.2192 -0.1581  0.0161
40297W        W41161  17.501  17.130  25.789 -0.0068 -0.0066 -0.4088
40298W        W41162  21.054   9.923  20.809 -0.2219  0.0884 -0.0201
40299W        W41163  21.387  13.363  20.467  0.1093 -0.1717  0.0935
40300W        W41164  19.054  11.069  28.591 -0.0820 -0.1188  0.1048
40301W        W41165  18.467  15.107  25.877  0.0826 -0.2701 -0.0104
40302W        W41166  22.926   9.394  24.387  0.0521 -0.1337 -0.1599
40303W        W41167  20.721  14.855  23.208 -0.3688  0.0427  0.2093
40304W        W41168  20.235  11.765  22.814  0.1650  0.0787  0.0485
40305W        W41169  21.151   9.757  24.129  0.0592  0.0242  0.1115
40306W        W41170  17.761  13.991  21.920  0.0054  0.1060  0.0986
40307W        W41171  18.647  15.022  23.652 -0.0517 -0.1351  0.1822
40308W        W41172  21.610  14.394  23.085  0.0379  0.1871  0.5753
40309W        W41173  18.943  14.316  26.042  0.1658  0.4086  0.0557
40310W        W41174  19.099  13.147  22.972  0.0755  0.1193  0.2803
40311W        W41175  19.498  14.828  24.272  0.3513  0.2791  0.2949
40312W        W41176  22.275  10.672  22.974 -0.2449 -0.0303 -0.2251
40313W        W41177  19.722  14.437  26.043  0.1673 -0.2377  0.2103
40314W        W41178  23.713  14.958  23.782  0.2505 -0.0890 -0.0057
40315W        W41179  21.068  14.038  23.289  0.0471  0.0181 -0.2321
40316W        W41180  18.792  14.349  26.599 -0.0312 -0.0657  0.0603
40317W        W41181  18.683  14.497  23.983 -0.3707  0.0905 -0.2666
40318W        W41182  20.172  10.631  25.585  0.3224 -0.4199  0.1937
40319W        W41183  20.611  13.188  23.720 -0.0836  0.0166  0.2203
40320W        W41184  19.160  12.288  22.771 -0.1675 -0.1769 -0.0281
40321W        W41185  20.701  12.539  23.693 -0.1423 -0.0264  0.1030
40322W        W41186  20.789  18.014  26.263  0.1262  0.1535 -0.0641
40323W        W41187  21.139  16.527  24.220 -0.1065  0.0409  0.2510
40324W        W41188  20.576  10.372  20.214  0.1480 -0.0439 -0.0931
40325W        W41189  19.597  10.779  21.604  0.1614  0.1466 -0.1050
40326W        W41190  16.138  16.177  25.429 -0.1662 -0.0847  0.0319
40327W        W41191  22.702  14.770  26.892 -0.0302 -0.1070 -0.0122
40328W        W41192  19.994  11.124  25.938 -0.1961  0.1500 -0.0820
40329W        W41193  16.459  11.705  23.083  0.1042 -0.2381 -0.1209
40330W        W41194  22.042  14.961  23.244  0.3143 -0.0872 -0.2413
40331W        W41195  20.921  10.754  22.904  0.0338 -0.1856 -0.0954
40332W        W41196  19.858   9.601  23.565 -0.2756  0.1809 -0.1255
40333W        W41197  20.948  10.720  23.923  0.0317 -0.2389  0.0529
40334W        W41198  19.114  15.113  24.542 -0.2107  0.1743 -0.3563
40335W        W41199  17.229  12.376  25.737  0.3234  0.0717 -0.2045
40336W        W41200  18.932  11.790  25.662 -0.0505 -0.1918  0.0699
40337W        W41201  22.370  13.961  26.518 -0.0403 -0.2417  0.0706
40338W        W41202  18.373  13.779  25.634 -0.0161 -0.0831  0.0312
40339W        W41203  19.624  16.506  22.947  0.0025  0.2793 -0.2730
40340W        W41204  18.780  15.067  26.293  0.0367 -0.0804  0.0353
40341W        W41205  19.438  13.336  22.282 -0.1507 -0.0977  0.0205
40342W        W41206  20.606  13.432  20.432  0.1136  0.2170  0.2862
40343W        W41207  20.919  14.924  25.570 -0.0072  0.0593 -0.2385
40344W        W41208  21.231  14.742  22.461 -0.3826  0.0846  0.0215
40345W        W41209  19.977  14.373  23.997  0.0714  0.1211  0.0841
40346W        W41210  19.912  13.567  22.981  0.1955 -0.4241 -0.2086
40347W        W41211  19.483  13.458  22.738 -0.0786 -0.0523 -0.1928
40348W        W41212  17.567  14.694  25.773  0.1208 -0.3017  0.0603
40349W        W41213  20.388  14.540  23.720 -0.0752  0.2390  0.3515
40350W        W41214  21.205  10.411  24.663 -0.4265  0.1921 -0.2220
40351W        W41215  21.861  10.335  24.229 -0.1611 -0.2691  0.0357
40352W        W41216  20.433  15.473  24.167  0.2003  0.2141  0.2848
40353W        W41217  19.115  12.174  19.474 -0.1063  0.1027 -0.2060
40354W        W41218  16.545  12.138  28.829  0.0198  0.2886 -0.2607
40355W        W41219  21.849  11.891  22.926 -0.0721 -0.0540 -0.3870
40356W        W41220  18.458  10.219  22.958  0.1828 -0.2488  0.0178
40357W        W41221  19.023  12.119  24.003 -0.1294 -0.2123  0.3268
40358W        W41222  17.848  14.736  24.682  0.0826 -0.2773  0.0107
40359W        W41223  20.289  14.908  22.025 -0.1552 -0.0763 -0.0344
40360W        W41224  19.999  11.357  20.307  0.1197  0.0890 -0.1834
40361W        W41225  22.444  14.327  23.625 -0.2551 -0.0800 -0.1193
40362W        W41226  19.629  12.919  26.976 -0.0646  0.0660  0.0733
40363W        W41227  23.522  12.085  21.516 -0.2836  0.0305 -0.1647
40364W        W41228  21.797  11.658  23.782 -0.2668  0.1482  0.1435
40365W        W41229  23.415  12.961  23.147 -0.1009  0.0087 -0.0455
40366W        W41230  21.721  11.195  21.229  0.1191 -0.0425 -0.1546
40367W        W41231  19.894   9.166  24.110 -0.1406 -0.0279 -0.0130
40368W        W41232  18.633  15.540  22.806 -0.1641 -0.0027 -0.2059
40369W        W41233  20.912  13.893  24.665  0.2733 -0.0681  0.2835
40370W        W41234  19.903  13.556  21.012 -0.1581  0.0992 -0.0187
40371W        W41235  19.242  13.620  23.114  0.0885  0.1423 -0.2131
40372W        W41236  22.222  14.861  21.837 -0.0725  0.1229 -0.1881
40373W        W41237  20.093   9.013  24.544  0.2788  0.0559  0.1984
40374W        W41238  17.531  16.617  20.708  0.0681 -0.4117  0.0352
40375W        W41239  21.027  13.852  22.120 -0.0240  0.0049  0.2432
40376W        W41240  20.835  10.743  27.137 -0.1003 -0.0952 -0.1976
40377W        W41241  20.439  14.422  26.799 -0.2939 -0.1486 -0.3404
40378W        W41242  19.872  13.130  22.547 -0.1866  0.1361 -0.0045
40379W        W41243  20.624  11.442  22.605 -0.2434 -0.2017  0.0102
40380W        W41244  15.550  13.718  23.855 -0.1582 -0.0550  0.0998
40381W        W41245  18.342  12.819  25.078  0.1078 -0.3535  0.0394
40382W        W41246  19.404  11.915  20.138 -0.0807 -0.1030  0.0829
40383W        W41247  21.935  11.066  20.631  0.1439 -0.3034  0.0624
40384W        W41248  19.418  12.908  21.947 -0.2485 -0.2153 -0.3234
40385W        W41249  21.017  12.074  23.273  0.1077  0.2042  0.1552
40386W        W41250  19.608  14.930  25.928  0.0495  0.1771  0.0258
40387W        W41251  20.126  13.282  23.976  0.0253  0.1975  0.1555
40388W        W41252  20.713  14.370  23.367 -0.0166 -0.2048  0.1599
40389W        W41253  18.298  17.191  21.975 -0.1440  0.2025 -0.0081
40390W        W41254  17.135  15.257  27.505 -0.0877  0.0536  0.1322
40391W        W41255  20.253  10.567  22.759  0.0394 -0.0390 -0.0770
40392W        W41256  21.325  10.809  21.951 -0.0877  0.2540  0.2369
40393W        W41257  21.156  13.278  24.843 -0.3532  0.0417  0.1181
40394W        W41258  19.706  12.351  24.659  0.0266  0.1488 -0.2841
40395W        W41259  18.246  14.785  26.564 -0.3584  0.0044  0.2253
40396W        W41260  18.811  14.755  21.730 -0.1864 -0.4584 -0.1629
40397W        W41261  18.690  14.836  23.146  0.0820  0.0642 -0.2435
40398W        W41262  19.707  14.336  24.843 -0.2472  0.3241 -0.2839
40399W        W41263  18.520  13.334  21.728 -0.0451  0.0140  0.0642
40400W        W41264  17.358  17.914  25.307  0.0952  0.1855 -0.0655
40401W        W41265  20.142  10.000  23.362 -0.1235  0.1326  0.0829
40402W        W41266  16.863  12.371  24.329  0.1739 -0.0291 -0.4240
40403W        W41267  18.152  13.543  23.687  0.1051  0.1666  0.1485
40404W        W41268  19.401  14.998  23.162  0.0018 -0.0011 -0.0887
40405W        W41269  19.376  12.812  23.695  0.0018  0.0234 -0.0450
40406W        W41270  22.667  10.171  22.765 -0.0214 -0.2659  0.2431
40407W        W41271  21.539  12.441  24.973 -0.1693  0.0617 -0.0335
40408W        W41272  21.418  15.062  26.381  0.0862 -0.1199  0.1006
40409W        W41273  20.078  18.218  24.443  0.0186  0.1277  0.0197
40410W        W41274  19.896  13.837  27.113 -0.1916  0.1352 -0.1926
40411W        W41275  18.056  16.510  24.247  0.1413 -0.0320 -0.1302
40412W        W41276  23.849  15.131  23.307  0.1221  0.1758 -0.0440
40413W        W41277  19.415  10.845  23.887 -0.2489 -0.1524 -0.0787
40414W        W41278  21.467   9.470  23.838 -0.2333  0.3316  0.0270
40415W        W41279  20.486  15.826  24.512  0.0366  0.2186 -0.1275
40416W        W41280  17.647  12.233  26.161 -0.1907 -0.0013  0.0428
40417W        W41281  18.999  11.529  25.210 -0.0656  0.2288 -0.1758
40418W        W41282  17.944  15.527  22.982 -0.1128 -0.0142 -0.2786
40419W        W41283  19.009  14.048  24.385 -0.0736  0.0021 -0.2112
40420W        W41284  17.462  14.186  25.695  0.0582 -0.0665 -0.2242
40421W        W41285  21.124  14.502  22.903 -0.1215  0.0927  0.5375
40422W        W41286  16.710  10.931  21.969  0.2775  0.1727 -0.1305
40423W        W41287  18.823  13.990  22.430  0.0456 -0.1809 -0.1607
40424W        W41288  19.241  10.606  20.112  0.0821 -0.1234  0.0734
40425W        W41289  20.772  10.748  24.962 -0.1454  0.0119 -0.0213
40426W        W41290  21.040  13.097  23.084 -0.1043  0.2611 -0.0627
40427W        W41291  23.569  13.098  22.649  0.0316  0.1355  0.0556
40428W        W41292  20.210  14.440  23.213  0.1496  0.0943  0.1082
40429W        W41293  19.328  15.944  23.330 -0.1142 -0.3252  0.2770
40430W        W41294  20.725   8.936  21.356  0.3802 -0.0150 -0.0774
40431W        W41295  20.285  14.864  24.815  0.0792 -0.1090  0.0850
40432W        W41296  18.216  12.385  24.671 -0.0493  0.0260  0.4045
40433W        W41297  18.989  14.825  24.987  0.0663  0.2028  0.1875
40434W        W41298  20.306  11.735  21.886  0.1658  0.1437  0.2953
40435W        W41299  17.304  10.874  24.749  0.1007  0.3502  0.0464
40436W        W41300  21.662  12.467  24.454 -0.3400  0.0186  0.3650
40437W        W41301  18.271  13.259  22.466 -0.1235 -0.1587 -0.1963
40438W        W41302  21.279  11.193  23.322  0.0461  0.0332 -0.0997
40439W        W41303  20.962  16.075  22.776 -0.2352 -0.1300  0.0887
40440W        W41304  22.813  13.345  25.266  0.3932 -0.0730 -0.1615
40441W        W41305  21.276  13.017  22.641 -0.0539  0.0561 -0.1448
40442W        W41306  18.698  14.459  24.658  0.0666  0.0830 -0.2977
40443W        W41307  16.829  12.544  22.587 -0.0691  0.2371 -0.1001
40444W        W41308  21.105  11.890  21.301  0.1268 -0.1915  0.0223
40445W        W41309  18.879  11.493  22.213  0.0866 -0.0577 -0.0511
40446W        W41310  24.223  11.153  22.884  0.0225 -0.1301  0.0916
40447W        W41311  20.584  13.540  24.067 -0.0558  0.0745 -0.4111
40448W        W41312  22.452  14.304  26.089 -0.0587  0.0898 -0.0901
40449W        W41313  20.887  13.560  23.324 -0.2576  0.1528  0.2961
40450W        W41314  19.004  12.678  24.302  0.0060  0.1434  0.2351
40451W        W41315  18.468  14.235  25.772  0.0263 -0.3709 -0.3458
40452W        W41316  20.506  14.765  26.439 -0.0277  0.4295  0.6474
40453W        W41317  21.359  13.743  24.920 -0.1031  0.0804  0.2740
40454W        W41318  17.802  15.329  24.488 -0.1898  0.3717  0.0161
40455W        W41319  19.399  12.019  23.094 -0.0576 -0.1336 -0.0049
40456W        W41320  20.912  14.379  23.818  0.0313 -0.0827  0.2466
40457W        W41321  17.326  12.279  20.907 -0.1300 -0.0689 -0.1665
40458W        W41322  22.273  11.957  25.022  0.1394 -0.0734  0.1513
40459W        W41323  21.063  13.706  26.108 -0.1689 -0.0667 -0.2297
40460W        W41324  21.415  10.901  26.328 -0.0862  0.3403  0.1450
40461W        W41325  20.677  13.487  21.684  0.0669 -0.0849  0.0396
40462W        W41326  18.176  15.675  24.566 -0.1520 -0.1282 -0.1323
40463W        W41327  18.818  15.962  22.589 -0.0828  0.1033  0.3645
40464W        W41328  20.504  15.335  25.622 -0.1769  0.2496  0.2065
40465W        W41329  21.228  12.756  24.488 -0.1668  0.0436 -0.0162
40466W        W41330  20.071  15.639  26.012  0.3192 -0.2039  0.0055
40467W        W41331  19.027  12.981  23.414  0.0045  0.1606  0.1002
40468W        W41332  20.680  11.908  24.932  0.1133  0.0001 -0.1445
40469W        W41333  18.179  15.808  25.150 -0.4137 -0.4341  0.1216
40470W        W41334  18.040  11.808  26.031 -0.0436  0.1176  0.0010
40471W        W41335  21.079  14.317  24.837 -0.0874 -0.1085 -0.1151
40472W        W41336  17.487  15.226  26.754  0.0164 -0.0141 -0.1782
40473W        W41337  20.946  11.511  21.624  0.1605  0.2114  0.3409
40474W        W41338  18.766  14.221  22.004 -0.1645  0.2282 -0.1017
40475W        W41339  18.729  13.940  26.364 -0.0370 -0.0495 -0.1732
40476W        W41340  16.940  14.252  24.948  0.2461  0.3042  0.1349
40477W        W41341  20.916  13.588  25.589  0.1464 -0.1173  0.3228
40478W        W41342  20.049  14.149  28.037 -0.1868  0.4406  0.2760
40479W        W41343  16.331  17.535  26.180  0.2694 -0.0210 -0.1353
40480W        W41344  20.163  11.305  24.371  0.1160  0.0105 -0.3782
40481W        W41345  19.590   8.931  25.779 -0.1536  0.0491 -0.0257
40482W        W41346  22.445  14.169  25.634 -0.0913  0.0464  0.4025
40483W        W41347  18.891  13.088   0.508  0.1965  0.1311  0.4013
40484W        W41348  19.538  11.884  28.620  0.3676  0.0288 -0.0824
40485W        W41349  17.948  11.312  26.289 -0.2044 -0.2642  0.0198
40486W        W41350  20.810  12.663  26.933 -0.2862  0.1800  0.1593
40487W        W41351  21.114  13.359  23.951 -0.0832  0.4342  0.3142
40488W        W41352  22.128   9.626  25.982 -0.0109  0.3189 -0.1438
40489W        W41353  16.941  12.063  27.911  0.1053 -0.1385 -0.0798
40490W        W41354  17.483  12.305  27.133 -0.0242 -0.1032  0.0081
40491W        W41355  17.983  17.244  25.318  0.2217  0.2592 -0.0787
40492W        W41356  17.114  12.189   0.520 -0.0216  0.1080  0.1624
40493W        W41357  17.516  12.250   0.945 -0.1667 -0.3008 -0.1343
40494W        W41358  19.869  12.879  25.456 -0.1266 -0.2484  0.1230
40495W        W41359  20.293  13.795  26.286 -0.0724 -0.0358 -0.4754
40496W        W41360  18.607  11.912  25.289  0.0890 -0.0259 -0.1950
40497W        W41361  19.459  13.251  27.981  0.2028 -0.0387  0.0164
40498W        W41362  17.495  14.115  26.571  0.0006 -0.3502  0.1577
40499W        W41363  17.200  13.444  27.961  0.0657  0.0153  0.1875
40500W        W41364  19.197  12.073   1.258 -0.0188  0.0892 -0.2515
40501W        W41365  20.894  10.826  28.158  0.3182 -0.0929 -0.1291
40502W        W41366  19.781  15.971  26.235 -0.2138 -0.1305  0.2047
40503W        W41367  22.163  13.013  27.598 -0.0402  0.0999  0.1257
40504W        W41368  18.707  13.640  24.330 -0.0599 -0.2049  0.0185
40505W        W41369  19.035  14.258  27.330 -0.1447  0.1423 -0.1842
40506W        W41370  20.751  12.920  28.547 -0.1821 -0.3159 -0.2519
40507W        W41371  20.904  14.565  27.160 -0.1883  0.0545  0.3566
40508W        W41372  21.485  16.337  28.396 -0.0938  0.0100 -0.1252
40509W        W41373  19.407  11.834  27.156  0.1552 -0.4172 -0.0433
40510W        W41374  19.414  13.986   0.122 -0.0236  0.0249 -0.1140
40511W        W41375  19.873  10.862   0.425 -0.4674  0.4162 -0.0133
40512W        W41376  19.354  14.990  27.138 -0.0475 -0.5172 -0.2871
40513W        W41377  20.789  10.821   0.537  0.0372 -0.1993 -0.0404
40514W        W41378  20.861  10.867  27.632 -0.2408 -0.2178  0.0067
40515W        W41379  21.317  10.815  24.994 -0.0881  0.0603  0.0610
40516W        W41380  21.613  13.856  28.758  0.0824  0.0758 -0.1641
40517W        W41381  19.109  12.731   0.215  0.0982 -0.0689 -0.3211
40518W        W41382  22.786  12.801  25.447  0.1817  0.0241 -0.0844
40519W        W41383  17.649  15.927  25.384 -0.1504  0.3827 -0.0616
40520W        W41384  16.844  16.866  28.300  0.1527  0.1845  0.1312
40521W        W41385  18.859  10.055  27.777 -0.1934 -0.2259 -0.3262
40522W        W41386  19.889  11.475  28.474 -0.0056 -0.0529 -0.3478
40523W        W41387  21.893  14.417  24.934  0.0175  0.0513  0.2434
40524W        W41388  18.869  13.105  25.118  0.2288 -0.0669 -0.0257
40525W        W41389  20.254  14.248  25.865 -0.0611 -0.0931  0.0588
40526W        W41390  17.965  14.316  28.697  0.0027 -0.0790 -0.2090
40527W        W41391  22.396  13.763  29.101 -0.0528  0.0243  0.3499
40528W        W41392  23.739  10.968  27.127 -0.2962 -0.2271 -0.0226
40529W        W41393  20.764  13.156  27.059 -0.1404  0.0056  0.1886
40530W        W41394  21.320  15.173  24.772 -0.0918 -0.0181  0.6242
40531W        W41395  19.009  12.798   1.981 -0.1115  0.3071 -0.0768
40532W        W41396  23.851  12.618  26.810  0.2562  0.0865  0.1012
40533W        W41397  19.725  14.362  28.367  0.2191  0.0739 -0.2488
40534W        W41398  19.096  13.610  23.752  0.1270 -0.0429 -0.2467
40535W        W41399  20.598  10.927  22.399  0.0425  0.2781 -0.3575
40536W        W41400  19.188  13.312   0.183 -0.0864 -0.0074 -0.4149
40537W        W41401  19.269  14.139  28.174 -0.1197 -0.3484 -0.2526
40538W        W41402  17.929  15.441   0.030 -0.2867  0.3270  0.2637
40539W        W41403  19.869  11.593   0.271  0.0462 -0.3354  0.0011
40540W        W41404  21.690  11.230  24.096  0.2180 -0.1126 -0.3252
40541W        W41405  16.817  14.616  26.563  0.1116 -0.1437  0.4127
40542W        W41406  21.021  12.460  25.484  0.1248  0.1287 -0.0895
40543W        W41407  17.507  12.724  27.503 -0.1299  0.0530  0.1705
40544W        W41408  20.105  15.295  27.974  0.1255  0.0277  0.0675
40545W        W41409  20.283  13.630  28.789 -0.1529  0.0402 -0.1032
40546W        W41410  19.565  13.388  23.918  0.1289 -0.1173 -0.0076
40547W        W41411  22.428  13.709  25.753 -0.1479 -0.0383 -0.1097
40548W        W41412  21.201  14.021  29.014 -0.1635  0.1398 -0.0096
40549W        W41413  22.305  11.384  29.010 -0.1476  0.2724 -0.1038
40550W        W41414  22.369  15.512  28.078  0.0724 -0.3684 -0.1915
40551W        W41415  17.445  11.716   0.118  0.1427  0.0876  0.3003
40552W        W41416  18.500  14.482   1.657 -0.0263  0.0120  0.0357
40553W        W41417  18.988  10.237  24.643  0.0862 -0.5255  0.1259
40554W        W41418  21.359  13.315  25.882  0.0237 -0.2113 -0.4068
40555W        W41419  20.357  10.737  26.839  0.3266 -0.4831 -0.1217
40556W        W41420  20.670   9.679   0.471 -0.1074  0.1729 -0.0652
40557W        W41421  18.475  11.108  26.134  0.1153 -0.3325  0.2509
40558W        W41422  18.004  12.609  25.449 -0.0011 -0.0530  0.1717
40559W        W41423  21.107   7.959  25.091 -0.3423  0.0700 -0.0540
40560W        W41424  18.615  11.796  26.803 -0.1414 -0.0926  0.1104
40561W        W41425  21.438  13.617  27.511  0.1201 -0.2484 -0.0123
40562W        W41426  21.697  11.655  26.930  0.2079 -0.0900  0.2402
40563W        W41427  22.344  12.799  29.113  0.4803 -0.0108 -0.2097
40564W        W41428  21.490  12.317  26.086 -0.2867 -0.0606 -0.1615
40565W        W41429  21.259  11.148  22.838 -0.0404  0.0693  0.1480
40566W        W41430  20.337  12.960   0.223 -0.3400 -0.0181  0.0333
40567W        W41431  15.237  12.375  24.928 -0.2393  0.2040  0.0381
40568W        W41432  18.242  11.803  24.937  0.0411  0.0023 -0.3339
40569W        W41433  18.545  11.987   0.837  0.0290  0.3267  0.2618
40570W        W41434  18.306  12.994  26.314  0.2222  0.1551  0.2425
40571W        W41435  20.855  11.386  25.469 -0.1301 -0.2424 -0.0102
40572W        W41436  19.178  14.768  26.204 -0.0859 -0.2154 -0.1243
40573W        W41437  17.281  12.719  26.528 -0.0869  0.2316  0.0244
40574W        W41438  19.161  10.796  25.738 -0.1334 -0.2251 -0.1593
40575W        W41439  21.713  10.282  25.674 -0.2419  0.0438  0.3750
40576W        W41440  18.591  13.332  26.033 -0.1352  0.0087  0.0452
40577W        W41441  19.846  11.897  24.669 -0.1593 -0.4902 -0.1785
40578W        W41442  23.182  12.903  28.359 -0.1407  0.1974 -0.1310
40579W        W41443  20.312   9.567  28.320 -0.0984 -0.0176 -0.0984
40580W        W41444  21.261  11.566  28.233  0.2228  0.0521  0.1812
40581W        W41445  20.342  16.138  26.027  0.0893 -0.0546 -0.2865
40582W        W41446  21.651  14.341  28.900  0.2133  0.3323  0.2405
40583W        W41447  21.007  11.847  26.506 -0.1449  0.3029 -0.0970
40584W        W41448  18.694   9.897  26.646  0.2162 -0.0553  0.1839
40585W        W41449  17.382  12.722  28.406  0.0420  0.1482  0.2422
40586W        W41450  21.485  11.308  29.136 -0.1353 -0.2434 -0.3098
40587W        W41451  22.856  12.050   0.879  0.2436 -0.1027 -0.1903
40588W        W41452  19.042  13.076  26.266  0.1817  0.4706  0.2012
40589W        W41453  19.802  14.123  27.529 -0.1232  0.0887  0.2048
40590W        W41454  20.376  11.748  26.935 -0.4744  0.0533 -0.1024
40591W        W41455  21.560  11.287  25.878 -0.1445  0.0744 -0.0370
40592W        W41456  21.373  13.302  27.052  0.2857 -0.2823  0.1848
40593W        W41457  21.912  10.769  26.378 -0.1581  0.1096  0.1962
40594W        W41458  20.262  11.949  25.755 -0.1424 -0.1229 -0.0580
40595W        W41459  22.156  17.033  28.889 -0.0032  0.3649 -0.1716
40596W        W41460  21.648  14.550  24.443 -0.2807  0.1205 -0.2378
40597W        W41461  22.090  14.194  27.752 -0.1251  0.1624  0.4758
40598W        W41462  19.410  14.311  25.265 -0.0426 -0.0028  0.0553
40599W        W41463  21.713  13.485  26.745 -0.2070  0.1664  0.4026
40600W        W41464  19.836  13.408  28.635  0.0015  0.0384  0.1852
40601W        W41465  16.687  12.551  27.728  0.1325  0.0367  0.0598
40602W        W41466  23.579  10.786   1.199 -0.0174 -0.1868 -0.0086
40603W        W41467  22.875  14.566   0.736 -0.1869 -0.0732 -0.3741
40604W        W41468  20.218  14.338  26.341  0.3527 -0.0768 -0.1649
40605W        W41469  20.218  12.812   2.110 -0.2886  0.1391 -0.0143
40606W        W41470  17.677  11.487  25.876  0.0976  0.2383  0.0021
40607W        W41471  19.755  13.131  27.387  0.2024 -0.1816 -0.1244
40608W        W41472  21.314  11.160  26.820 -0.0933  0.1026 -0.2550
40609W        W41473  20.783  14.958  28.562 -0.2897 -0.0240  0.1697
40610W        W41474  20.124  11.658   1.376 -0.2760 -0.1127 -0.2555
40611W        W41475  20.620  14.114  24.984  0.2491  0.2196 -0.1877
40612W        W41476  21.450  11.864  28.538  0.2259  0.3086 -0.0770
40613W        W41477  22.521  16.130  28.827  0.0620  0.2012  0.2708
40614W        W41478  19.290  14.375  28.857 -0.3181  0.1748  0.1107
40615W        W41479  18.093  10.661  27.060  0.0753 -0.0108  0.2285
40616W        W41480  20.507  10.259  24.054  0.2439  0.1934 -0.1813
40617W        W41481  18.457  14.016  26.780 -0.1089 -0.0714  0.1354
40618W        W41482  17.042  15.100  26.590 -0.0171 -0.4911  0.1755
40619W        W41483  20.047  12.693  27.420  0.1185  0.0657  0.3694
40620W        W41484  20.649  11.156  26.807  0.2750 -0.2637  0.1055
40621W        W41485  19.974  10.688  27.795 -0.1320 -0.1466 -0.1165
40622W        W41486  23.522  12.247  27.187 -0.0182 -0.2245 -0.1600
40623W        W41487  20.247  15.121  27.234 -0.1718 -0.0939 -0.1630
40624W        W41488  22.949  12.579  27.423  0.2201 -0.2766 -0.1943
40625W        W41489  23.807  15.983  27.173  0.1152 -0.1074 -0.0648
40626W        W41490  18.935  11.769  27.256 -0.4662  0.0374  0.2704
40627W        W41491  18.283  12.926  25.797 -0.0373 -0.1455  0.2143
40628W        W41492  18.777   9.692  25.506 -0.0143 -0.0739  0.1753
40629W        W41493  19.663   9.915  28.892 -0.3878  0.0253  0.4722
40630W        W41494  21.044  12.741  24.987  0.1114 -0.1542 -0.2203
40631W        W41495  17.764  11.956  27.412  0.2140 -0.1146  0.3984
40632W        W41496  18.547  12.570  25.534  0.0881  0.2049  0.0648
40633W        W41497  20.776  13.020  24.565 -0.3924  0.1956 -0.0945
40634W        W41498  19.313  11.011  26.939  0.3501 -0.2165 -0.2836
40635W        W41499  20.610  12.979  25.948 -0.1978 -0.0431 -0.2043
40636W        W41500  17.289  12.148  28.324 -0.2052  0.2982 -0.1264
40637W        W41501  22.250  15.110   0.196 -0.4315  0.0998  0.0908
40638W        W41502  19.819  14.325  29.005 -0.0693  0.4073 -0.1361
40639W        W41503  19.732  10.408   0.303  0.0642 -0.0484  0.1388
40640W        W41504  20.007  12.964  27.846  0.2938  0.1014  0.0556
40641W        W41505  18.912  11.364  26.005 -0.4181  0.3339  0.2414
40642W        W41506  18.867  17.300  26.228  0.0764 -0.0696 -0.1531
40643W        W41507  19.943  12.744   1.407  0.0629  0.0385 -0.1012
40644W        W41508  16.243  13.070  26.573 -0.0946 -0.0419 -0.0684
40645W        W41509  18.947  12.368  25.705 -0.0484 -0.0248 -0.2165
40646W        W41510  20.236  13.043  25.148  0.2415  0.0582 -0.2742
40647W        W41511  21.831  10.776  28.097 -0.0182  0.2858 -0.1778
40648W        W41512  20.174  14.171  25.233  0.1155 -0.0375  0.6480
40649W        W41513  19.540  12.053  25.003  0.0356  0.1885  0.0116
40650W        W41514  20.995  11.540  26.910  0.1314 -0.1647  0.2235
40651W        W41515  16.807  17.054  26.887  0.1765  0.1232  0.4267
40652W        W41516  18.598  16.493  26.889 -0.0761  0.0529  0.1582
40653W        W41517  19.148  14.292  24.798 -0.0723  0.2508  0.4448
40654W        W41518  20.322  11.166   1.140 -0.1502  0.0347  0.1311
40655W        W41519  19.604  14.429  27.895 -0.1663 -0.0375 -0.0699
40656W        W41520  21.933  16.815  26.985 -0.2231  0.0373 -0.1672
40657W        W41521  19.800  13.356  25.239  0.0724 -0.0419  0.0795
40658W        W41522  19.944  14.931  23.936  0.0700  0.3604 -0.1090
40659W        W41523  19.128  11.472  26.810  0.0165  0.0151 -0.2829
40660W        W41524  23.073  12.015  26.602 -0.0796  0.1174 -0.1728
40661W        W41525  19.747  11.118  24.131  0.0190 -0.0976  0.0182
40662W        W41526  18.654  13.312  23.780  0.1661  0.2300 -0.0944
40663W        W41527  20.320  13.437  26.720 -0.2821 -0.1343  0.1003
40664W        W41528  19.003  13.165  28.328 -0.0466 -0.1947 -0.1686
40665W        W41529  17.726  16.229  24.937 -0.0352  0.0370  0.0334
40666W        W41530  18.394  15.570  27.255  0.0086 -0.1523 -0.1675
40667W        W41531  19.144  12.912  26.790 -0.0936  0.3198  0.0303
40668W        W41532  19.901  11.709  28.930  0.0689  0.1905  0.0453
40669W        W41533  22.106  10.041   3.352  0.0567  0.0260 -0.1201
40670W        W41534  19.761   8.120  22.715  0.0956  0.0044  0.1374
40671W        W41535  22.381  11.310  24.750  0.0287  0.0264 -0.0642
40672W        W41536  19.664  11.152  26.537  0.0337 -0.0063  0.2684
40673W        W41537  17.754  13.788  24.822 -0.0914  0.1144 -0.3364
40674W        W41538  19.405  11.821  25.442  0.1835 -0.0680 -0.3195
40675W        W41539  20.280  11.789  24.507 -0.0847  0.2180 -0.0444
40676W        W41540  18.062  11.240  25.761  0.1872  0.1554  0.0965
40677W        W41541  22.002  13.006  26.523 -0.2392 -0.1463 -0.0884
40678W        W41542  17.340  11.356  26.224  0.0445 -0.0305 -0.1113
40679W        W41543  19.862   9.964  27.888  0.5742  0.1541  0.0580
40680W        W41544  20.169  11.589  27.854 -0.0727 -0.0038 -0.1172
40681W        W41545  17.675  12.776   0.027 -0.0715  0.0188 -0.1308
40682W        W41546  20.072  13.822  25.657 -0.1782 -0.0513  0.0239
40683W        W41547  18.622  15.972  27.150  0.1529  0.0004 -0.0893
40684W        W41548  17.274  14.441  25.258 -0.0178  0.1338  0.2043
40685W        W41549  18.316  15.854  29.082  0.2520  0.2421  0.0666
40686W        W41550  17.735  11.052   1.729 -0.3265 -0.1794 -0.0066
40687W        W41551  18.071  13.113  26.832  0.1120 -0.1188  0.3099
40688W        W41552  23.048  10.086   0.422  0.3469  0.0401  0.2781
40689W        W41553  20.745  13.851  26.502 -0.1354 -0.1201 -0.0261
40690W        W41554  22.423  12.651  25.890  0.1379 -0.1363 -0.1558
40691W        W41555  23.103  13.210  26.645  0.2268  0.3203  0.0891
40692W        W41556  22.694  15.359  25.409 -0.2702 -0.3060 -0.2826
40693W        W41557  21.331  12.673   2.359  0.0096  0.0864 -0.0636
40694W        W41558  17.311  11.672   2.270 -0.0943  0.0692 -0.0895
40695W        W41559  22.248   9.686  28.632  0.0604  0.1028  0.1414
40696W        W41560  21.348  11.080  28.073  0.1102  0.0455  0.2905
40697W        W41561  20.220  15.601   0.077 -0.0800 -0.0952 -0.0331
40698W        W41562  19.321  12.217  26.311 -0.1081  0.1145 -0.2575
40699W        W41563  17.988  13.455  26.339 -0.1432  0.0740 -0.0287
40700W        W41564  18.705  11.472  27.596 -0.0982 -0.2848 -0.2347
40701W        W41565  20.021  11.548  26.596  0.0047 -0.0026  0.0373
40702W        W41566  20.290  12.956  27.019 -0.0998 -0.0291 -0.2722
40703W        W41567  22.301  13.541  25.284 -0.1650  0.0640  0.0380
40704W        W41568  21.754  12.829  28.413  0.0387 -0.0442  0.0060
40705W        W41569  18.342  10.988  26.729  0.1677  0.1501  0.0814
40706W        W41570  16.918  12.121  27.127 -0.2972 -0.0760 -0.0838
40707W        W41571  17.876  14.836  24.164 -0.0148  0.0438  0.0969
40708W        W41572  20.078  12.845  25.982  0.0804 -0.2908  0.1737
40709W        W41573  20.875  11.784  27.314 -0.1246 -0.1064 -0.1620
40710W        W41574  18.712  12.812  28.551  0.1110  0.0862  0.2336
40711W        W41575  23.272  12.540  25.210  0.3712 -0.0849  0.2122
40712W        W41576  20.416   9.797  25.611 -0.2364  0.2587 -0.1374
40713W        W41577  22.337  14.983  28.130 -0.0605 -0.0268 -0.0396
40714W        W41578  22.170  12.975  28.140 -0.2183 -0.1095 -0.2021
40715W        W41579  17.994  14.289  24.111 -0.1852  0.0197  0.3320
40716W        W41580  15.648  13.601  28.441 -0.1451 -0.2105  0.2015
40717W        W41581  19.316  11.109  24.881  0.1209 -0.3081 -0.0699
40718W        W41582  18.055  10.253  28.009  0.2650  0.2557  0.2766
40719W        W41583  21.489  13.859  27.000 -0.1070  0.1948  0.0825
40720W        W41584  17.931  13.849  25.850 -0.3229  0.1293  0.0115
40721W        W41585  20.938  13.606  27.373  0.0511  0.0550 -0.1397
40722W        W41586  19.327  14.425  25.721 -0.1137 -0.0932 -0.3681
40723W        W41587  20.249  15.830  24.974 -0.0642  0.0232  0.0205
40724W        W41588  17.770  10.466  25.636 -0.2359  0.2064  0.0412
40725W        W41589  18.576  13.566  27.613  0.0122 -0.1552  0.1176
40726W        W41590  19.641  13.044  26.009  0.1976 -0.0203 -0.1414
40727W        W41591  21.154  14.192  27.328  0.1653 -0.1488  0.0099
40728W        W41592  19.412  16.911  25.481 -0.1625 -0.3364 -0.1565
40729W        W41593  19.231  15.243  26.004 -0.2184  0.3200 -0.1487
40730W        W41594  22.911  14.397  25.971 -0.1256 -0.2213 -0.1359
40731W        W41595  21.724  10.641  25.280 -0.0468 -0.2212  0.2098
40732W        W41596  19.448   9.500  27.116 -0.0735 -0.0703 -0.1442
40733W        W41597  20.430  14.201  24.027 -0.0203 -0.0446  0.4547
40734W        W41598  21.297  12.695  25.841 -0.3013  0.1697 -0.1284
40735W        W41599  20.229  11.982  26.524  0.0590 -0.0120 -0.0061
40736W        W41600  20.480  11.854  28.189  0.0745  0.1409 -0.0076
40737W        W41601  21.123  13.638  28.672 -0.2919 -0.0830  0.0013
40738W        W41602  20.668  10.057  28.666 -0.1943  0.0912 -0.2490
40739W        W41603  19.395  13.760  26.459  0.0146  0.2330 -0.0767
40740W        W41604  18.280  14.897  27.252 -0.1358 -0.3158  0.1617
40741W        W41605  18.355  14.768  24.970 -0.0371  0.0486  0.0162
40742W        W41606  23.335  12.983  27.371  0.0310  0.1617 -0.1327
40743W        W41607  19.919  10.459  27.260  0.1193  0.1719 -0.1187
40744W        W41608  20.446  11.661  25.319  0.1868 -0.1270  0.3099
40745W        W41609  19.439  13.530  26.927 -0.4243 -0.2558 -0.1515
40746W        W41610  20.660  12.158  27.735  0.0093  0.0628  0.0036
40747W        W41611  20.920  12.432  28.491 -0.0618 -0.3210  0.1686
40748W        W41612  20.581  13.298  28.121 -0.0699  0.0818 -0.5385
40749W        W41613  21.786  13.912  25.659 -0.1076  0.1711  0.2040
40750W        W41614  21.366  10.909  27.624  0.0027 -0.0886 -0.1727
40751W        W41615  19.655  10.390  27.676 -0.2958 -0.0035  0.1088
40752W        W41616  17.187  14.238  27.788  0.1167  0.3406  0.0052
40753W        W41617  19.148  15.281  25.403  0.0212  0.3986  0.1509
40754W        W41618  18.501  13.530  26.523  0.0423  0.3040 -0.0221
40755W        W41619  22.108  13.992  26.072  0.1334  0.0073  0.6114
40756W        W41620  21.270  11.679  26.133 -0.0398  0.0889  0.0154
40757W        W41621  17.963  10.819  25.393  0.0731 -0.0846 -0.1657
40758W        W41622  18.997  13.786  29.081  0.1389  0.2359  0.1581
40759W        W41623  21.737  12.154  27.106  0.0900  0.0133 -0.3873
40760W        W41624  22.290   9.154   0.506 -0.0778 -0.0533  0.0958
40761W        W41625  20.255  11.636  26.149  0.5087 -0.1205 -0.0806
40762W        W41626  18.304  15.952  27.642 -0.1018  0.0146 -0.0722
40763W        W41627  21.614   9.342  26.737  0.2201 -0.3576 -0.1974
40764W        W41628  23.366  14.617  25.531  0.0802 -0.2053 -0.0101
40765W        W41629  19.508  11.732  26.549  0.0511  0.3035  0.0896
40766W        W41630  19.276  11.033  24.382 -0.3442 -0.0507  0.1966
40767W        W41631  20.434  11.042  27.903  0.1321  0.0253 -0.2745
40768W        W41632  18.415  14.044  28.021 -0.1263 -0.0967  0.1480
40769W        W41633  18.371  10.992  27.598  0.3362 -0.3284 -0.0186
40770W        W41634  22.291  11.786  23.943  0.1643 -0.0683  0.1660
40771W        W41635  20.152  11.971  25.028  0.1879  0.2455 -0.1884
40772W        W41636  22.789  13.402   0.144  0.0065  0.0632 -0.1603
40773W        W41637  21.770   9.654  25.626  0.0626 -0.3628 -0.0065
40774W        W41638  19.560  13.597  25.609 -0.1066  0.0109  0.0795
40775W        W41639  17.423  16.131  25.957 -0.2001  0.1976 -0.3012
40776W        W41640  17.918   9.933  28.371  0.0676 -0.0223  0.0324
40777W        W41641  21.790  14.903  28.142 -0.6415  0.3804 -0.0723
40778W        W41642  23.201   9.600   0.613 -0.2280  0.0361 -0.2500
40779W        W41643  21.305  13.461  26.412 -0.1811 -0.1099 -0.0186
40780W        W41644  21.741  14.434  28.054 -0.1020 -0.0357  0.0648
40781W        W41645  20.238  12.900   1.027 -0.1041  0.1613 -0.3542
40782W        W41646  21.007   9.161  23.589  0.1580 -0.0610 -0.0970
40783W        W41647  22.043  15.038  25.635 -0.1707  0.2699 -0.0582
40784W        W41648  19.603  10.866  27.374  0.1065 -0.1485 -0.3122
40785W        W41649  17.228  14.426  26.142  0.0230  0.2069  0.0889
40786W        W41650  19.924  11.137  28.052 -0.0526  0.3370 -0.2526
40787W        W41651  19.685  10.471  24.022  0.1733 -0.3701  0.1117
40788W        W41652  18.919  10.934  26.185  0.1256 -0.0481 -0.0449
40789W        W41653  17.867  14.903  26.926  0.1528 -0.0743  0.0792
40790W        W41654  19.544  13.599  27.488  0.0710 -0.0381 -0.0359
40791W        W41655  18.437   9.952  28.600  0.1794 -0.0165 -0.1154
40792W        W41656  22.032  12.980  23.248  0.0999  0.1272 -0.2755
40793W        W41657  19.085  12.564  28.773 -0.0763  0.0128 -0.1398
40794W        W41658  22.568  13.148  26.640 -0.1017  0.2825  0.0992
40795W        W41659  19.209  13.911  25.073 -0.1594  0.3609  0.1375
40796W        W41660  25.073  13.552  26.097 -0.0901  0.1195  0.1524
40797W        W41661  17.676  15.103  27.931  0.0693 -0.0504  0.1154
40798W        W41662  20.977  14.731  26.255  0.1742  0.2539  0.0382
40799W        W41663  18.780  11.339  26.460 -0.1036 -0.3180  0.2190
40800W        W41664  19.443  15.807  27.522  0.3045  0.0672  0.3646
40801W        W41665  19.774  10.255  25.293 -0.0251  0.1273  0.2017
40802W        W41666  18.780  15.058  24.141  0.1681  0.1846  0.2113
40803W        W41667  19.590  12.663  26.499  0.1909 -0.1341 -0.1365
40804W        W41668  17.670  11.454  27.859  0.1935  0.0527  0.1202
40805W        W41669  18.951   9.030   2.430  0.1819 -0.1105 -0.3114
40806W        W41670  21.750  13.042  25.649  0.0955 -0.1911 -0.0953
40807W        W41671  22.213  10.133  27.457  0.1567 -0.4307  0.0226
40808W        W41672  20.726  14.953  27.475  0.4413  0.4866  0.0057
40809W        W41673  19.690  13.073  29.142 -0.1581  0.0809 -0.0178
40810W        W41674  21.492  14.815   0.041 -0.2333  0.4138 -0.0783
40811W        W41675  20.120  14.674  28.778  0.2020 -0.2572 -0.1160
40812W        W41676  21.580  15.025  26.945  0.2878 -0.0303 -0.1397
40813W        W41677  20.427  10.459  24.501  0.2162  0.2788  0.0857
40814W        W41678  19.698  11.474  25.217 -0.1810 -0.0304 -0.1359
40815W        W41679  18.025  17.346  25.788  0.1949 -0.2579  0.0027
40816W        W41680  21.196  12.298  26.605  0.2643  0.0905 -0.1771
40817W        W41681  18.823  11.782  24.833 -0.1225  0.0160  0.1653
40818W        W41682  16.674  14.921  25.543  0.0846 -0.0321  0.3782
40819W        W41683  21.058  14.744  26.757  0.0377  0.1434  0.1644
40820W        W41684  18.020  12.425  28.776  0.2767  0.2217  0.0980
40821W        W41685  13.147  12.641  27.100 -0.0344  0.0594  0.1989
40822W        W41686  17.926  12.520  27.028  0.0479  0.2748  0.1314
40823W        W41687  18.345  15.434  25.527  0.1024 -0.1183 -0.1094
40824W        W41688  16.537  11.743  27.169  0.1165  0.0415  0.0474
40825W        W41689  24.140  12.663  27.783 -0.1384 -0.2264 -0.1731
40826W        W41690  21.390  13.653  25.411 -0.0385  0.1823 -0.2203
40827W        W41691  21.317  14.787  25.881  0.3191  0.1327  0.1929
40828W        W41692  20.257  13.210  26.265  0.1393 -0.0751 -0.0078
40829W        W41693  18.829  14.403  28.391  0.4662 -0.1666  0.1645
40830W        W41694  19.725  10.812  25.088 -0.2594 -0.2385  0.2400
40831W        W41695  18.625  14.754  26.886  0.1181 -0.1999 -0.3955
40832W        W41696  19.114   9.970  25.857 -0.0335  0.2226  0.0793
40833W        W41697  18.248  13.031   0.912 -0.1431  0.1116 -0.0705
40834W        W41698  19.843  13.818  28.331  0.0598  0.1068  0.3768
40835W        W41699  19.052  12.696  25.301  0.2313 -0.3039 -0.0089
40836W        W41700  20.944  11.583   0.845 -0.0607  0.1482  0.1015
40837W        W41701  18.645  12.632  26.109  0.0782  0.0414 -0.3638
40838W        W41702  19.932  13.326  26.961 -0.0950 -0.2926 -0.1215
40839W        W41703  19.305  14.619  28.261 -0.6271  0.3824  0.0989
40840W        W41704  19.797  15.263  27.058  0.1119  0.2432  0.0113
40841W        W41705  21.161  12.949  27.855 -0.0060  0.1747  0.0717
40842W        W41706  22.252  11.919  28.313 -0.2923  0.0662 -0.0517
40843W        W41707  20.290  11.976  23.315 -0.4075 -0.1070  0.1030
40844W        W41708  19.066  12.126  25.142  0.4968 -0.2963  0.0475
40845W        W41709  18.881  13.771  28.153 -0.0983 -0.2159 -0.1814
40846W        W41710  18.037  12.070  26.531 -0.0462  0.0213  0.0271
40847W        W41711  22.478  12.627  27.226 -0.2279 -0.0855  0.1676
40848W        W41712  20.320  14.062  27.530 -0.2786 -0.0250 -0.0266
40849W        W41713  21.431  14.356  26.980  0.0369  0.0194 -0.0597
40850W        W41714  18.986  10.656  28.928 -0.1998 -0.2540  0.1322
40851W        W41715  18.602  10.757   1.502 -0.1395  0.1168  0.0234
40852W        W41716  22.993  12.108   0.194  0.3398  0.1392 -0.2361
40853W        W41717  21.548   7.862  24.250  0.0532  0.0640 -0.2408
40854W        W41718  19.378  14.262  23.443 -0.2092 -0.3187  0.0233
40855W        W41719  21.097  13.087  26.710 -0.2677 -0.0754 -0.0708
40856W        W41720  18.542  12.141  25.911 -0.2579 -0.3570 -0.0010
40857W        W41721  20.045  12.946  26.613  0.5691  0.0178  0.3239
40858W        W41722  19.840  15.762   0.366 -0.1961 -0.2762 -0.3318
40859W        W41723  18.079  13.405   1.298  0.1459  0.1570 -0.0735
40860W        W41724  19.519  11.592   0.570 -0.1806  0.0487  0.0653
40861W        W41725  21.001  14.204  26.798 -0.0408 -0.1461  0.1262
40862W        W41726  21.057  13.275  28.277  0.1267  0.0459  0.1037
40863W        W41727  20.966  14.973  27.876 -0.0389 -0.0140  0.3001
40864W        W41728  19.509  13.250  26.499 -0.3254 -0.0057 -0.0806
40865W        W41729  21.536  13.240  28.071  0.0090 -0.1509 -0.2117
40866W        W41730  17.179  11.013  27.970 -0.0246  0.2965 -0.0037
40867W        W41731  21.766  14.825  26.038 -0.1537 -0.0308  0.1906
40868W        W41732  18.925  14.445  25.396  0.3222  0.5230 -0.3586
40869W        W41733  17.163  12.946  25.617 -0.0967  0.1268 -0.0467
40870W        W41734  18.850  11.760   0.103 -0.3436 -0.1051  0.2178
40871W        W41735  21.413  12.810  25.332  0.1777  0.0300  0.0475
40872W        W41736  16.863  12.976  28.462  0.0634  0.3373  0.1233
40873W        W41737  20.933  15.655  25.860 -0.1203  0.1310 -0.0422
40874W        W41738  22.604  11.437  25.433 -0.0255  0.1275 -0.1519
40875W        W41739  21.879  15.757   6.069  0.1810 -0.0026 -0.0643
40876W        W41740  17.233  16.807   0.670  0.0335  0.0497  0.1678
40877W        W41741  21.743  17.178  27.786  0.0722 -0.1499 -0.0756
40878W        W41742  19.898  16.519   1.810 -0.0606 -0.0154  0.1988
40879W        W41743  20.724  15.817  27.565 -0.3259 -0.0722  0.0110
40880W        W41744  20.023  16.326   4.496 -0.3263 -0.1638  0.2106
40881W        W41745  19.554  14.406   2.179  0.1364  0.0248  0.3183
40882W        W41746  21.738  15.417   2.130 -0.1579 -0.1816  0.0483
40883W        W41747  21.362  16.124   2.765 -0.3288 -0.3100 -0.2100
40884W        W41748  15.412  15.633  27.920 -0.3950  0.4478 -0.2711
40885W        W41749  20.485  12.386   1.934  0.0666 -0.2030  0.0264
40886W        W41750  20.655  13.976   0.866  0.5136 -0.2882 -0.0921
40887W        W41751  19.291  15.917   0.377  0.1787  0.0424  0.3033
40888W        W41752  21.159  13.311   2.774  0.0677  0.2131 -0.1188
40889W        W41753  20.618  14.267   4.120 -0.0766 -0.2155  0.0209
40890W        W41754  18.196  16.827   6.620  0.0452  0.1301  0.1389
40891W        W41755  18.318  18.136   2.104  0.1871 -0.0622 -0.0583
40892W        W41756  18.088  12.106   4.524 -0.2602  0.1437 -0.0060
40893W        W41757  20.804  14.425   2.534  0.0243  0.3009  0.4940
40894W        W41758  22.050  15.730   0.976  0.0246  0.1722  0.1335
40895W        W41759  21.455  13.581   1.511 -0.0665 -0.1554 -0.0081
40896W        W41760  20.008  14.202   3.105 -0.0650  0.1166 -0.4138
40897W        W41761  22.198  20.212   1.732 -0.1173 -0.2046  0.1874
40898W        W41762  20.826  18.657  28.607 -0.1009 -0.3651 -0.0930
40899W        W41763  16.212  17.683   4.480 -0.2600 -0.0620  0.0616
40900W        W41764  18.544  16.837   4.989  0.2811 -0.1392  0.3668
40901W        W41765  21.328  16.681   2.623  0.0269  0.3876 -0.0847
40902W        W41766  21.364  17.137   1.432 -0.1476 -0.1656 -0.1060
40903W        W41767  21.177  16.293  28.775 -0.0175 -0.1576  0.3615
40904W        W41768  21.351  14.686  28.632 -0.1103 -0.1054  0.1666
40905W        W41769  21.961  17.248   2.107  0.0737 -0.1957 -0.0421
40906W        W41770  21.479  19.172   6.385  0.1001  0.1842 -0.0766
40907W        W41771  18.558  17.255   4.369 -0.0656 -0.0272  0.3517
40908W        W41772  20.473  17.955   2.813  0.0945  0.0549  0.1559
40909W        W41773  18.595  15.482   1.060  0.0737  0.2063 -0.0305
40910W        W41774  21.794  15.567   4.933  0.0789 -0.1266  0.0764
40911W        W41775  19.730  14.869  28.208 -0.0562  0.0705  0.1165
40912W        W41776  19.083  17.049   1.720 -0.4820 -0.0523 -0.0249
40913W        W41777  23.239  18.014   1.370 -0.3027 -0.0205  0.0760
40914W        W41778  21.867  13.422   1.322  0.1000 -0.2329 -0.0684
40915W        W41779  23.269  13.401   0.912  0.0526  0.1274 -0.2482
40916W        W41780  21.258  16.569   3.096  0.0774  0.1473  0.1594
40917W        W41781  19.352  19.295   1.325  0.0937 -0.2547  0.0111
40918W        W41782  21.969  15.331  28.368  0.0495  0.1579  0.1504
40919W        W41783  20.446  20.591  28.639 -0.1576  0.2848 -0.0453
40920W        W41784  19.626  18.455   3.351  0.1447  0.1975  0.5028
40921W        W41785  19.464  15.212   0.935 -0.1659 -0.2961  0.1525
40922W        W41786  22.644  15.332   1.649 -0.0549 -0.1411 -0.0853
40923W        W41787  21.313  17.053   0.902  0.0173 -0.0215 -0.1213
40924W        W41788  18.409  18.503  28.533 -0.0624  0.1624 -0.0064
40925W        W41789  21.741  15.009   0.434  0.0068 -0.0585 -0.0208
40926W        W41790  20.217  13.329   2.113 -0.2363 -0.0953  0.0237
40927W        W41791  20.501  17.658   2.415 -0.0260  0.1710  0.1018
40928W        W41792  23.079  15.368   1.828  0.1058  0.2589 -0.2684
40929W        W41793  18.796  15.038   1.825 -0.4991 -0.0300 -0.4466
40930W        W41794  19.870  18.875   0.993 -0.1375 -0.0323 -0.2751
40931W        W41795  17.989  13.899  28.388 -0.2075 -0.2226  0.1165
40932W        W41796  20.739  17.116  28.479  0.2296  0.0108  0.2250
40933W        W41797  19.515  17.713   2.509 -0.0482 -0.2140  0.1241
40934W        W41798  19.392  16.684   1.477  0.2409 -0.0880 -0.0365
40935W        W41799  22.921  13.887   0.067 -0.1169  0.0492 -0.0504
40936W        W41800  20.824  14.988   0.860 -0.1307 -0.1044 -0.3127
40937W        W41801  18.856  16.573   1.455  0.0959  0.1168 -0.2328
40938W        W41802  20.636  16.884   0.160 -0.0529  0.2913  0.0759
40939W        W41803  19.857  15.165   0.488 -0.3611 -0.1436 -0.3101
40940W        W41804  21.580  14.705   3.242 -0.0785 -0.2525 -0.1106
40941W        W41805  20.548  14.212  28.020  0.0176 -0.0808 -0.3310
40942W        W41806  20.829  14.231   0.087 -0.2500  0.0596  0.2042
40943W        W41807  20.284  18.322   2.496 -0.1470 -0.0934 -0.1609
40944W        W41808  21.292  16.216   1.609  0.2113 -0.3568 -0.0639
40945W        W41809  22.947  13.483  28.854  0.4115  0.1265 -0.2708
40946W        W41810  16.597  15.740   1.302  0.0465 -0.0119  0.0827
40947W        W41811  21.808  18.056   2.202 -0.0190  0.2720 -0.1774
40948W        W41812  18.723  16.451   2.984  0.1149  0.0697 -0.2833
40949W        W41813  23.280  18.144  28.124  0.0823  0.1476  0.0993
40950W        W41814  22.488  16.882   3.210 -0.1765 -0.0302  0.0906
40951W        W41815  19.192  16.394  28.587  0.1674  0.1025  0.0249
40952W        W41816  17.559  15.723   3.036  0.2534 -0.0305 -0.0452
40953W        W41817  18.641  13.204   0.068 -0.0408  0.2921  0.2791
40954W        W41818  19.567  17.050   0.629  0.0510  0.0702 -0.1670
40955W        W41819  20.326  16.727   3.521  0.0289  0.0589  0.2041
40956W        W41820  16.924  14.413   0.363  0.0089 -0.4354 -0.2584
40957W        W41821  17.760  12.973   1.320  0.2718 -0.1865  0.1263
40958W        W41822  17.957  15.270  28.336 -0.1295  0.0155  0.0055
40959W        W41823  21.284  16.444   4.588  0.3362 -0.0690  0.0429
40960W        W41824  20.027  16.513  28.542  0.1991  0.1960  0.0055
40961W        W41825  20.100  16.996   2.901  0.0674 -0.1470  0.0074
40962W        W41826  21.169  12.906   4.537 -0.4922  0.0203 -0.1266
40963W        W41827  23.345  16.971   3.784  0.2078 -0.2566 -0.0712
40964W        W41828  23.074  15.470   3.440 -0.1873 -0.3395  0.1012
40965W        W41829  22.244  13.420   0.810  0.3250 -0.2209 -0.1702
40966W        W41830  23.401  11.218   1.251 -0.0108 -0.0554  0.0973
40967W        W41831  20.483  18.907   1.379  0.0378 -0.1017  0.0465
40968W        W41832  20.267  15.835  27.850  0.0021 -0.3843 -0.0488
40969W        W41833  20.513  15.259   3.703  0.1405  0.2710  0.4571
40970W        W41834  19.669  15.658   2.114 -0.0748 -0.2498  0.3771
40971W        W41835  22.987  13.173   1.323  0.1674 -0.0628 -0.0077
40972W        W41836  21.164  16.082   3.228 -0.0922  0.0800 -0.1064
40973W        W41837  18.108  14.963   0.204  0.1339  0.2493  0.0935
40974W        W41838  22.989  14.669   3.523  0.2381 -0.1119  0.0032
40975W        W41839  20.463  18.078   1.418 -0.1672  0.0473  0.2887
40976W        W41840  19.904  14.931   0.944 -0.2705 -0.2411  0.0624
40977W        W41841  23.319  13.928  28.836 -0.3407 -0.0424  0.0469
40978W        W41842  23.169  16.769   0.463 -0.1461 -0.0567  0.3926
40979W        W41843  22.064  13.322   2.084  0.0592  0.0316 -0.1889
40980W        W41844  22.578  14.269  29.128  0.0843  0.2286  0.1037
40981W        W41845  20.337  15.456   1.584  0.0439  0.0155  0.0044
40982W        W41846  19.014  15.304   2.604  0.1283 -0.1641 -0.2345
40983W        W41847  21.156  12.216   1.098 -0.1186  0.0910  0.1266
40984W        W41848  18.182  14.750   0.712  0.0928  0.1856 -0.1220
40985W        W41849  18.266  17.667   1.777  0.2503 -0.1224  0.3328
40986W        W41850  20.726  18.144   2.261 -0.0872  0.1558  0.1738
40987W        W41851  21.977  14.744   1.917  0.0890  0.0315 -0.1379
40988W        W41852  19.925  15.076   2.691 -0.0796 -0.4745 -0.0204
40989W        W41853  23.265  18.967   0.027  0.0286 -0.0861 -0.3329
40990W        W41854  22.437  13.771   3.398  0.2010 -0.0968 -0.1667
40991W        W41855  20.858  13.425   4.590  0.0700 -0.0063 -0.1853
40992W        W41856  21.196  15.355   2.153  0.3596 -0.0414  0.2536
40993W        W41857  21.592  13.418   1.959 -0.0341 -0.0562  0.1861
40994W        W41858  21.490  18.959   1.195  0.2162  0.4122  0.1641
40995W        W41859  20.485  13.705  27.822  0.0108  0.1608 -0.1937
40996W        W41860  22.926  17.794   1.036  0.1191 -0.3336  0.2225
40997W        W41861  20.701  17.050   3.526 -0.2174  0.0585  0.2092
40998W        W41862  21.659  18.099   1.685 -0.2321 -0.1102  0.0180
40999W        W41863  19.495  16.107   3.130 -0.0707  0.0736  0.1502
41000W        W41864  20.351  15.854   1.041  0.2584  0.2215 -0.2950
41001W        W41865  19.881  15.477   1.178  0.0568  0.2498  0.0105
41002W        W41866  22.088  17.417   3.329  0.0308 -0.1793 -0.0994
41003W        W41867  19.912  15.977   3.972  0.2893 -0.3701  0.0498
41004W        W41868  21.307  17.260   0.418 -0.0862 -0.2173  0.0799
41005W        W41869  20.721  15.887   0.661 -0.1554  0.2457 -0.0650
41006W        W41870  20.859  12.236   1.541  0.2631  0.2621 -0.3546
41007W        W41871  21.284  16.252   2.255  0.1375  0.2787  0.2964
41008W        W41872  20.892  17.313  29.083  0.0062  0.1652 -0.1226
41009W        W41873  19.311  14.217   3.982  0.1687  0.3162 -0.1470
41010W        W41874  20.419  15.521   3.241  0.0708 -0.0853  0.2841
41011W        W41875  24.007  11.844   0.180  0.2767  0.1259 -0.1261
41012W        W41876  22.643  16.474   2.044 -0.0853 -0.1087  0.1823
41013W        W41877  20.626  15.896   1.501 -0.2323 -0.1201 -0.0636
41014W        W41878  19.317  16.593   0.833  0.3626 -0.0116 -0.0452
41015W        W41879  20.873  14.823   2.010 -0.1492  0.0117  0.0518
41016W        W41880  19.874  14.481   1.313 -0.0624  0.0380  0.0215
41017W        W41881  20.775  18.940   0.373  0.0801 -0.0415  0.2374
41018W        W41882  20.847  16.926   1.546  0.2383 -0.0561 -0.0077
41019W        W41883  18.197  17.131   2.019 -0.0930 -0.0219  0.2971
41020W        W41884  19.051  14.474  27.839  0.0186 -0.3385  0.0132
41021W        W41885  21.523  15.646   0.961  0.0027  0.0782 -0.0436
41022W        W41886  20.905  17.218   0.650  0.2372 -0.2209  0.2122
41023W        W41887  19.305  17.200   2.589 -0.0816 -0.1561  0.2799
41024W        W41888  20.557  17.724   4.194 -0.0878  0.1415  0.0655
41025W        W41889  19.378  16.818   5.629 -0.3075  0.0305 -0.1896
41026W        W41890  19.470  14.809   1.388  0.2211  0.0437 -0.0602
41027W        W41891  19.110  15.617   1.022  0.1024  0.1168 -0.1908
41028W        W41892  19.200  13.949   0.609  0.3020  0.1114  0.0551
41029W        W41893  17.759  14.546   2.255  0.1407  0.0384  0.0084
41030W        W41894  22.945  14.209   2.256 -0.1175 -0.4106  0.0234
41031W        W41895  19.139  17.165   5.228  0.2552 -0.1458 -0.0406
41032W        W41896  21.447  16.473   0.602 -0.0637 -0.0935  0.0879
41033W        W41897  19.007  12.616  26.451  0.0997 -0.0525 -0.0404
41034W        W41898  19.155  14.635   1.896 -0.0478  0.1578  0.1678
41035W        W41899  21.811  11.247   2.988  0.1965 -0.0987 -0.0031
41036W        W41900  21.109  15.267   2.778 -0.2561 -0.0011 -0.0101
41037W        W41901  22.923  16.968   3.990  0.3085  0.0111  0.0713
41038W        W41902  21.804  16.126   2.222  0.0827 -0.1999  0.3572
41039W        W41903  20.799  15.098   5.327  0.0476  0.0441 -0.0911
41040W        W41904  18.215  15.882   1.936  0.4319  0.1228  0.1708
41041W        W41905  20.285  14.725   1.205 -0.2464 -0.0452  0.0608
41042W        W41906  18.890  17.285  28.728  0.2683  0.1203  0.0177
41043W        W41907  17.630  15.869   0.938  0.0231  0.1324  0.0586
41044W        W41908  20.281  17.142   2.431  0.0534  0.3635  0.0797
41045W        W41909  20.416  16.255   1.762 -0.0687 -0.0027  0.1721
41046W        W41910  20.374  15.199   2.839 -0.1750 -0.1027 -0.1551
41047W        W41911  19.988  15.694  28.277  0.4337 -0.1573  0.0711
41048W        W41912  21.761  19.639  28.042 -0.0009 -0.2405  0.0508
41049W        W41913  19.002  14.755   2.789  0.2219 -0.2101  0.0592
41050W        W41914  22.719  15.731   1.946  0.1974 -0.1197  0.0677
41051W        W41915  16.729  20.264   5.176  0.2470 -0.1125 -0.1236
41052W        W41916  17.577  15.659   2.294 -0.3190  0.2766  0.1586
41053W        W41917  22.788  17.401   1.343  0.0038  0.0488 -0.1262
41054W        W41918  21.084  14.052   3.847  0.1367  0.0720 -0.0797
41055W        W41919  21.021  15.787   2.468  0.2799 -0.1020 -0.1003
41056W        W41920  21.505  17.012  26.788  0.1184  0.1155  0.1401
41057W        W41921  20.692  17.683   0.808  0.0646 -0.3960  0.1167
41058W        W41922  20.280  14.989   0.202 -0.1228 -0.1030 -0.0897
41059W        W41923  20.767  16.904  27.924 -0.2616 -0.2665  0.0441
41060W        W41924  21.944  14.739   2.809  0.1607 -0.1606 -0.0639
41061W        W41925  19.303  15.105  28.321 -0.2757 -0.1704  0.0620
41062W        W41926  17.651  10.852   2.552  0.1561 -0.2318 -0.1506
41063W        W41927  20.840  18.160   1.718 -0.3423 -0.0394  0.0440
41064W        W41928  21.971  18.468   1.880  0.1181 -0.3621  0.1026
41065W        W41929  21.435  16.214   1.098 -0.2097 -0.1561 -0.0050
41066W        W41930  19.727  16.372  28.917  0.1526  0.3516 -0.1250
41067W        W41931  18.612  17.604   2.137 -0.4274  0.0720  0.3594
41068W        W41932  20.408  14.718   5.841  0.1642  0.3439 -0.1066
41069W        W41933  19.533  15.395   5.404 -0.4335 -0.0305 -0.1063
41070W        W41934  18.369  13.832   0.465 -0.0796 -0.3316 -0.0302
41071W        W41935  21.081  16.758   0.454  0.2884 -0.1211 -0.0067
41072W        W41936  21.153  15.696   3.860 -0.0453  0.0211  0.1684
41073W        W41937  20.390  14.874  27.863  0.4355 -0.0564 -0.1573
41074W        W41938  23.109  14.571   1.912  0.1870 -0.0373 -0.0302
41075W        W41939  19.032  14.793  28.644 -0.1086  0.1136 -0.0252
41076W        W41940  20.865  16.821   0.968  0.0850 -0.1082 -0.4675
41077W        W41941  22.549  17.075  28.303 -0.1616 -0.1803 -0.0426
41078W        W41942  19.143  14.774   0.995 -0.0880  0.0124 -0.0963
41079W        W41943  21.621  12.439   2.021 -0.4335 -0.0233  0.0144
41080W        W41944  16.494  14.839   0.584 -0.0929 -0.0988 -0.3830
41081W        W41945  20.250  14.899   3.384 -0.0408 -0.1533 -0.0740
41082W        W41946  21.255  14.518   1.670 -0.0457 -0.0489  0.1893
41083W        W41947  20.749  18.405   0.072 -0.1595 -0.0388  0.2675
41084W        W41948  18.769  16.215  28.332  0.1479 -0.1783 -0.2165
41085W        W41949  20.613  15.576   4.562  0.1597  0.0857 -0.0720
41086W        W41950  18.783  16.367   2.432 -0.0345  0.0562  0.0927
41087W        W41951  19.784  15.850   5.544  0.1188  0.2429 -0.3026
41088W        W41952  20.453  16.727   2.628  0.0403  0.4146  0.0705
41089W        W41953  21.565  17.158   3.033  0.0604  0.1520  0.0864
41090W        W41954  20.417  17.423  28.822  0.1018 -0.0813 -0.0605
41091W        W41955  21.009  17.643   0.373  0.2676  0.1623 -0.0649
41092W        W41956  21.945  20.279   0.825  0.1468  0.1320 -0.0846
41093W        W41957  20.903  16.574   6.022  0.1302 -0.0120  0.0521
41094W        W41958  19.167  15.724   4.718 -0.3856 -0.0180 -0.0746
41095W        W41959  24.045  15.310   4.669 -0.0626  0.2649 -0.1966
41096W        W41960  22.827  16.500   3.249  0.1661 -0.2945 -0.2801
41097W        W41961  20.427  19.766   4.267  0.0169 -0.2606  0.0376
41098W        W41962  21.928  13.415  28.350 -0.0307  0.2769  0.4687
41099W        W41963  21.911  18.011  27.892 -0.0998 -0.0234 -0.2848
41100W        W41964  23.448  13.408   3.785 -0.1394 -0.0875 -0.2248
41101W        W41965  19.879  15.806   3.407  0.0301 -0.1360 -0.2666
41102W        W41966  20.536  11.865   1.624  0.0801 -0.1295 -0.0753
41103W        W41967  24.125  18.270   2.414 -0.0669  0.0519  0.2336
41104W        W41968  21.807  17.312   1.037  0.0283 -0.0030 -0.1006
41105W        W41969  17.998  15.523   3.366  0.4220  0.1296 -0.1754
41106W        W41970  21.304  14.039   2.546 -0.1846  0.2537  0.1586
41107W        W41971  22.594  14.211   0.517 -0.0758 -0.1329  0.0944
41108W        W41972  18.694  20.478  29.062  0.0302  0.0858  0.2679
41109W        W41973  19.118  14.003   5.472 -0.1318 -0.0138  0.1628
41110W        W41974  21.883  18.658   3.139  0.1102  0.2334 -0.1949
41111W        W41975  22.183  17.049  27.988 -0.2915 -0.1794  0.1501
41112W        W41976  19.593  14.250   3.559 -0.0284 -0.1028  0.0189
41113W        W41977  22.016  16.660   2.057  0.0791  0.1330 -0.1299
41114W        W41978  19.979  16.083   2.320  0.0156 -0.2516 -0.0388
41115W        W41979  21.335  17.872  28.541  0.1178  0.0362 -0.1896
41116W        W41980  19.369  17.391   2.026  0.0088 -0.4325  0.0510
41117W        W41981  19.897  12.901   3.181 -0.0820 -0.2242  0.1792
41118W        W41982  20.015  13.374   3.100 -0.0243 -0.0928 -0.0048
41119W        W41983  20.216  13.225  27.450  0.1744 -0.2511  0.1396
41120W        W41984  19.770  17.281   2.351 -0.1068 -0.2616  0.1025
41121W        W41985  21.860  12.845   2.381  0.0946  0.1805 -0.0139
41122W        W41986  20.688  20.728   2.022  0.0035  0.0295  0.0121
41123W        W41987  21.396  18.043   1.109 -0.3224  0.0249 -0.0055
41124W        W41988  17.985  15.410  27.000  0.2205 -0.1223  0.1045
41125W        W41989  19.821  17.615   1.270  0.3190  0.0659  0.0780
41126W        W41990  16.587  21.468   1.845 -0.2165  0.3727 -0.0702
41127W        W41991  19.662  18.951   2.788  0.0943  0.0189  0.1406
41128W        W41992  19.890  17.362  28.634 -0.1460  0.1184 -0.1637
41129W        W41993  21.776  15.541  28.811  0.3494  0.0241  0.0364
41130W        W41994  19.420  19.811   0.314  0.1216  0.1613  0.0290
41131W        W41995  23.586  12.977   0.349 -0.2084  0.1198 -0.0811
41132W        W41996  18.699  15.824   4.466 -0.1256 -0.3320 -0.1350
41133W        W41997  19.992  16.720   2.464  0.0549  0.4364  0.0100
41134W        W41998  21.493  15.385   1.723  0.2408  0.0203  0.1657
41135W        W41999  21.735  16.099  28.713 -0.1725 -0.1151 -0.0331
41136W        W42000  19.458  13.740   2.981 -0.3385 -0.0251  0.1101
41137W        W42001  21.070  17.196   3.046  0.1258  0.1605  0.0627
41138W        W42002  20.426  12.535   3.794 -0.0656 -0.4550 -0.2122
41139W        W42003  20.016  18.836   3.267 -0.4406 -0.0457 -0.1319
41140W        W42004  18.965  20.320   2.857 -0.0840 -0.4651  0.3232
41141W        W42005  18.261  18.916   1.228 -0.0622  0.0457  0.0069
41142W        W42006  21.670  15.062  28.709 -0.1155 -0.2392 -0.1850
41143W        W42007  20.156  14.062   4.055 -0.1189 -0.1871 -0.1076
41144W        W42008  21.903  13.892  26.528 -0.0753 -0.2747  0.1009
41145W        W42009  21.245  15.921   0.593 -0.0810  0.1920 -0.0388
41146W        W42010  20.401  13.823   2.473 -0.2724  0.0356 -0.0300
41147W        W42011  18.729  14.586   4.121  0.3063 -0.1029 -0.1531
41148W        W42012  20.782  15.745  28.037  0.0791 -0.0722 -0.0058
41149W        W42013  20.405  17.189   1.545  0.2192  0.0561  0.3806
41150W        W42014  19.867  15.921   2.901  0.0817 -0.1122 -0.0670
41151W        W42015  20.786  14.338   3.611 -0.1954  0.0033 -0.1718
41152W        W42016  18.902  15.701   0.526 -0.0924 -0.0234 -0.1020
41153W        W42017  18.636  14.845   0.815 -0.1232 -0.4235  0.0144
41154W        W42018  21.642  17.655   1.348  0.1583  0.0589  0.0009
41155W        W42019  17.658  14.999   0.909  0.3277  0.1065 -0.3387
41156W        W42020  21.215  17.447  28.730 -0.0716  0.0567 -0.1499
41157W        W42021  16.901  15.369   1.718 -0.2264  0.0263  0.0023
41158W        W42022  22.005  18.349   1.023  0.0177  0.2868 -0.1640
41159W        W42023  22.592  16.770  28.833  0.1468  0.1102 -0.1328
41160W        W42024  22.656  14.919   1.204  0.0441 -0.0219  0.0077
41161W        W42025  21.893  15.824   1.839 -0.0844 -0.0987  0.0324
41162W        W42026  19.023  15.816   3.661  0.0984  0.1676 -0.2846
41163W        W42027  21.343  15.805  27.808  0.3588 -0.1353  0.3462
41164W        W42028  22.200  15.943  26.994 -0.0420 -0.3088 -0.0715
41165W        W42029  20.282  16.239   2.652  0.1716 -0.2673  0.2109
41166W        W42030  18.866  15.538  27.421 -0.3426 -0.2380 -0.1489
41167W        W42031  20.476  16.221   4.180  0.0235 -0.1337 -0.0960
41168W        W42032  19.689  11.293   2.722 -0.2732  0.2435  0.2495
41169W        W42033  19.800  17.287  28.066  0.0861  0.3632 -0.0334
41170W        W42034  21.499  17.133   2.063  0.0767 -0.1949  0.0222
41171W        W42035  21.673  13.015   4.524  0.0248 -0.0246  0.0281
41172W        W42036  23.774  16.624   4.279  0.1180  0.0353  0.0182
41173W        W42037  21.077  15.087   1.679  0.0102 -0.0311  0.1438
41174W        W42038  17.642  17.026   0.320 -0.1772 -0.0080 -0.1122
41175W        W42039  19.891  17.721  28.272 -0.0280 -0.3503 -0.3111
41176W        W42040  19.353  12.800   1.541  0.1280  0.1005  0.1450
41177W        W42041  21.097  17.569   6.455  0.2882  0.3710  0.1514
41178W        W42042  21.686  16.194  27.938 -0.1020  0.0455 -0.0627
41179W        W42043  21.808  16.900  26.459  0.3364  0.1444 -0.0718
41180W        W42044  18.560  18.337   0.377  0.0516 -0.0727  0.1129
41181W        W42045  20.700  15.244   2.410  0.0111  0.0526 -0.1167
41182W        W42046  21.199  13.770   0.343 -0.0615  0.0487  0.1150
41183W        W42047  21.079  14.319   2.979 -0.0545  0.3737  0.0875
41184W        W42048  20.771  14.225   1.861 -0.1905 -0.4238  0.2108
41185W        W42049  18.760  15.049   1.268 -0.1194 -0.2124 -0.4025
41186W        W42050  16.866  16.325   0.662 -0.0858  0.1312  0.1135
41187W        W42051  20.115  14.582  28.232 -0.0863 -0.2410 -0.2207
41188W        W42052  20.887  15.560   5.057  0.1229  0.2000  0.1361
41189W        W42053  19.976  15.034   1.466  0.0450  0.0445 -0.0639
41190W        W42054  19.866  13.628   2.252  0.2902 -0.0423 -0.1571
41191W        W42055  16.351  14.392   0.475 -0.1350  0.3813 -0.0070
41192W        W42056  19.913  17.405   0.319  0.2832  0.0932  0.0509
41193W        W42057  20.837  15.976   1.999  0.0549 -0.0149  0.0828
41194W        W42058  19.571  15.656   0.778 -0.0504 -0.0335 -0.1013
41195W        W42059  20.008  17.475   1.745  0.2930  0.0381 -0.0062
41196W        W42060  23.925  16.381   0.788 -0.0672  0.2042 -0.1553
41197W        W42061  20.480  16.301   0.936  0.3015  0.0385  0.2752
41198W        W42062  22.794  16.127   2.871 -0.2541 -0.2794 -0.0420
41199W        W42063  22.049  17.946   1.370  0.1503 -0.0456  0.0633
41200W        W42064  21.371  15.854   1.969 -0.0363 -0.0020 -0.1460
41201W        W42065  20.687  14.938  29.075 -0.2453  0.2170 -0.0896
41202W        W42066  20.062  17.763  27.291 -0.2067  0.3198  0.0198
41203W        W42067  18.048  15.618   0.901  0.2045  0.0191  0.0273
41204W        W42068  20.290  17.613   1.332 -0.0043  0.0142  0.0526
41205W        W42069  20.456  14.776   2.442  0.1766  0.1943  0.0557
41206W        W42070  20.875  13.983  27.694 -0.0075  0.0472 -0.2732
41207W        W42071  23.483  18.301   4.598 -0.1590 -0.3442 -0.5352
41208W        W42072  21.340  16.612   6.583  0.0386  0.1588  0.0364
41209W        W42073  22.859  18.479   3.123 -0.2853 -0.0565  0.0614
41210W        W42074  20.455  17.405   1.991  0.1654 -0.2087  0.1066
41211W        W42075  18.165  20.274   3.704 -0.4505  0.0166  0.3574
41212W        W42076  22.283  16.450   1.439  0.1132 -0.0972 -0.1566
41213W        W42077  21.272  17.298   2.590 -0.1241  0.1113 -0.1864
41214W        W42078  20.074  11.613   2.341  0.0127 -0.0302 -0.0340
41215W        W42079  18.985  21.172   0.734  0.1659  0.1253  0.1873
41216W        W42080  20.481  14.326   3.231 -0.0850 -0.1628  0.4015
41217W        W42081  18.404  13.531  28.275  0.1221  0.3948 -0.0246
41218W        W42082  21.395  16.414   0.070  0.1603 -0.0422  0.2026
41219W        W42083  19.756  15.608  29.104  0.3239 -0.2880  0.4078
41220W        W42084  20.839  16.519   1.866  0.5733 -0.0844  0.0076
41221W        W42085  19.125  16.788  26.296  0.1325  0.4156  0.1001
41222W        W42086  19.764  14.734  26.964  0.2406  0.0510 -0.0630
41223W        W42087  21.182  14.860   2.383 -0.2318  0.0289 -0.0209
41224W        W42088  20.097  15.531  28.717  0.0263  0.2426  0.3291
41225W        W42089  21.389  15.134   0.836  0.1154  0.2808  0.0656
41226W        W42090  23.601  11.173  28.778  0.0195 -0.0372  0.2973
41227W        W42091  22.748  19.046   1.755 -0.0980  0.1561 -0.0375
41228W        W42092  20.336  19.196   0.713  0.0468  0.1503  0.0371
41229W        W42093  22.546  15.689  28.498  0.2103 -0.0108  0.0977
41230W        W42094  19.309  15.478  26.959 -0.3031 -0.1178 -0.1249
41231W        W42095  18.244  17.739  27.841  0.1846 -0.2659 -0.0676
41232W        W42096  16.222  14.698   3.241 -0.1457  0.2531  0.2631
41233W        W42097  18.459  13.023   6.715  0.1978 -0.0658 -0.0916
41234W        W42098  16.290  15.118   0.161 -0.0005  0.0292 -0.0162
41235W        W42099  20.769  18.823  28.077 -0.2786  0.0710 -0.0131
41236W        W42100  18.820  15.264   4.763 -0.3955  0.2665 -0.0558
41237W        W42101  20.209  16.089  28.779  0.2064 -0.0850 -0.2393
41238W        W42102  21.845  16.231   1.542 -0.1406 -0.2985  0.3163
41239W        W42103  18.912  17.854   0.431  0.0809  0.0028  0.0234
41240W        W42104  20.560  17.018   3.029 -0.2462  0.1000 -0.1276
41241W        W42105  21.414  18.425   3.366  0.2115  0.2141 -0.1930
41242W        W42106  22.167  16.789   1.101  0.2546  0.0605 -0.0987
41243W        W42107  20.259  15.204   1.024 -0.1233 -0.0147  0.0384
41244W        W42108  20.774  14.635   0.383  0.1834 -0.0158  0.0242
41245W        W42109  21.007  16.132  26.702 -0.1209 -0.1696 -0.3475
41246W        W42110  23.107  16.597   0.926  0.3328 -0.1215 -0.0620
41247W        W42111  21.262  19.650  26.504  0.0028  0.0973  0.1069
41248W        W42112  23.552  18.213   1.870 -0.2536 -0.1593  0.1998
41249W        W42113  21.475  18.614   2.224 -0.1994  0.0176  0.0734
41250W        W42114  20.269  13.201   7.149  0.2104  0.1682 -0.0616
41251W        W42115  20.100  17.047   1.998  0.2185 -0.1183 -0.0589
41252W        W42116  20.172  15.733   1.944  0.3356 -0.1658 -0.1850
41253W        W42117  21.378  13.945   3.445  0.1041 -0.0912  0.0275
41254W        W42118  21.466  14.395   3.883  0.0393 -0.2451 -0.0166
41255W        W42119  18.861  17.165   4.793  0.1961  0.1372  0.2671
41256W        W42120  20.336  16.758   1.123 -0.6068 -0.2919 -0.0430
41257W        W42121  19.049  16.336   4.402 -0.4108 -0.0061  0.0896
41258W        W42122  20.723  15.469   1.144  0.1786  0.0910  0.0876
41259W        W42123  20.360  17.141   4.017 -0.0061 -0.0335 -0.3123
41260W        W42124  21.038  14.174   0.584 -0.0497  0.0134 -0.3441
41261W        W42125  22.904  17.337   2.966  0.2458  0.0433  0.3736
41262W        W42126  19.618  13.605   4.797 -0.0819  0.0556 -0.5513
41263W        W42127  19.178  19.063   2.927  0.1432  0.2182  0.0062
41264W        W42128  20.524  17.212   1.035  0.1666 -0.1789 -0.2717
41265W        W42129  21.818  15.115   4.108 -0.1899  0.2750 -0.3552
41266W        W42130  20.335  17.631   3.711  0.4428 -0.0053  0.1258
41267W        W42131  22.960  17.290   2.245  0.2031  0.1293  0.1793
41268W        W42132  22.066  20.343   2.714 -0.2062  0.0073 -0.1817
41269W        W42133  16.801  17.024  28.912  0.1788  0.1555  0.0107
41270W        W42134  19.519  14.242   5.247 -0.0164  0.0744 -0.2433
41271W        W42135  21.839  20.808  27.938  0.1195 -0.2474  0.1289
41272W        W42136  19.620  17.304   4.342  0.0311  0.0070  0.0447
41273W        W42137  22.298  18.040  28.357  0.0676 -0.0810  0.0923
41274W        W42138  22.257  15.449  25.123  0.2849  0.4385  0.2503
41275W        W42139  18.841  15.749   5.942  0.2102  0.2188  0.2952
41276W        W42140  17.824  18.239   6.077  0.1754 -0.1731 -0.1612
41277W        W42141  22.339  17.576   2.920 -0.4861  0.0481  0.0065
41278W        W42142  24.303  19.904   6.742 -0.0229  0.3588  0.1421
41279W        W42143  18.568  19.194   3.289  0.1002 -0.4010 -0.0892
41280W        W42144  18.930  15.723   6.969  0.1834  0.5637 -0.0778
41281W        W42145  19.585  16.520   7.442  0.1962 -0.0063  0.1223
41282W        W42146  18.801  14.063   4.022  0.1892 -0.2415  0.0121
41283W        W42147  16.903  18.257   7.823  0.2525 -0.2561  0.1937
41284W        W42148  18.637  17.023   5.869  0.2592  0.4010  0.1888
41285W        W42149  20.391  10.325   6.858 -0.1097 -0.0990 -0.0153
41286W        W42150  24.082  14.399   6.335 -0.1259 -0.2108 -0.0988
41287W        W42151  19.700  14.140   4.262  0.1243  0.3618 -0.1207
41288W        W42152  21.773  15.237   8.370 -0.1331 -0.2076 -0.1864
41289W        W42153  17.866  14.410   6.707 -0.0111 -0.1058  0.1143
41290W        W42154  19.730  19.174  11.485  0.0601  0.0178 -0.0831
41291W        W42155  21.656  18.869   2.687  0.0790  0.0482 -0.0634
41292W        W42156  18.571  15.778   6.516 -0.0924 -0.2057 -0.0718
41293W        W42157  17.672  16.116   6.088  0.0721  0.2378 -0.0230
41294W        W42158  20.829  14.946   5.814  0.1218 -0.0667  0.1402
41295W        W42159  22.837  13.485   4.564  0.0898  0.2877  0.0287
41296W        W42160  18.967  16.624   6.107 -0.0862  0.2212 -0.1362
41297W        W42161  19.510  19.156   4.593 -0.0302 -0.1729  0.1092
41298W        W42162  18.662  15.002   7.146  0.0572 -0.0789  0.0606
41299W        W42163  18.965  17.358   6.210  0.0556  0.3133  0.2804
41300W        W42164  21.810  16.600   8.134  0.1729 -0.1862  0.2029
41301W        W42165  21.243  15.770   8.571  0.0080  0.1472 -0.2109
41302W        W42166  20.028  18.152   7.508 -0.2706  0.1481 -0.2259
41303W        W42167  19.857  17.314   8.521 -0.0951 -0.2994  0.1584
41304W        W42168  20.846  15.617   7.425  0.0877  0.2406  0.1859
41305W        W42169  20.846  13.997   5.077 -0.2855 -0.2102 -0.0363
41306W        W42170  21.000  17.633  10.722 -0.0647  0.1311  0.2872
41307W        W42171  19.433  14.429   5.709  0.0116  0.1457 -0.1067
41308W        W42172  19.917  16.631   7.792  0.0688  0.1057  0.1536
41309W        W42173  19.107  14.784   8.864 -0.2316  0.2004 -0.1044
41310W        W42174  21.328  17.004   7.372 -0.0891  0.0435 -0.1169
41311W        W42175  17.654  13.611   4.771 -0.0002  0.1817  0.0405
41312W        W42176  19.068  15.695   6.500  0.3871  0.0856 -0.1040
41313W        W42177  22.242  16.232   4.510 -0.1884  0.2490 -0.1638
41314W        W42178  20.336  14.805   9.277  0.2626  0.1995  0.0847
41315W        W42179  22.826  14.296   5.741  0.1966  0.0737 -0.0069
41316W        W42180  19.919  15.069   5.500 -0.2978 -0.2223 -0.2811
41317W        W42181  22.930  18.953   5.865  0.2690  0.2017  0.1104
41318W        W42182  21.179  17.015   4.588  0.3509 -0.1888  0.4167
41319W        W42183  18.631  20.553   3.762  0.1509  0.0636  0.0094
41320W        W42184  21.151  17.557   4.417 -0.2205  0.1323 -0.2070
41321W        W42185  19.773  15.316   7.631 -0.2670 -0.1194  0.0699
41322W        W42186  21.822  15.356   5.830  0.3929  0.3756  0.2331
41323W        W42187  20.088  15.413   4.105  0.0457 -0.1725 -0.2147
41324W        W42188  20.393  14.814   5.293 -0.2244 -0.3082 -0.2266
41325W        W42189  19.170  14.256   6.945 -0.1705 -0.1600 -0.0783
41326W        W42190  23.574  16.281   6.147 -0.1585 -0.0516  0.4158
41327W        W42191  21.281  17.759   6.902  0.1161 -0.1086 -0.3356
41328W        W42192  20.949  14.791   3.423  0.0185  0.0781  0.2947
41329W        W42193  21.822  12.902   2.913  0.1952 -0.0083 -0.0400
41330W        W42194  19.825  15.545   2.574  0.2546 -0.1555 -0.0032
41331W        W42195  18.608  15.388   5.411  0.3525  0.0813 -0.2191
41332W        W42196  23.531  16.284   4.587 -0.2807  0.2069  0.0213
41333W        W42197  18.865  17.620   5.247 -0.0133  0.1642 -0.1289
41334W        W42198  21.491  17.205   5.353 -0.4322  0.1770  0.1761
41335W        W42199  21.548  14.964   2.099 -0.1364  0.0147  0.2254
41336W        W42200  20.423  18.116   6.027 -0.1788  0.1118  0.0571
41337W        W42201  17.883  16.738   4.586  0.1038  0.3092  0.0307
41338W        W42202  20.639  15.991   6.694 -0.1378  0.1380  0.3099
41339W        W42203  20.304  14.759   8.002  0.0278 -0.2091 -0.2635
41340W        W42204  24.354  14.277   3.933  0.0772  0.0643 -0.1766
41341W        W42205  18.828  17.238   3.938 -0.2160  0.0694  0.3445
41342W        W42206  20.517  15.413   7.749  0.1686 -0.0455 -0.4075
41343W        W42207  19.091  14.940   2.259 -0.0359  0.2550  0.0970
41344W        W42208  17.638  16.299   6.609 -0.0365 -0.1443  0.0357
41345W        W42209  19.421  17.529   9.594  0.3022 -0.1037 -0.1520
41346W        W42210  22.556  12.444   3.772 -0.2812 -0.1512  0.0133
41347W        W42211  21.435  19.389   5.267 -0.0290  0.1492 -0.1303
41348W        W42212  20.805  15.529   8.489  0.0151  0.0734  0.1323
41349W        W42213  19.834  17.907   2.857  0.0800  0.1853 -0.0870
41350W        W42214  21.856  18.066   5.610  0.1937 -0.0944 -0.2891
41351W        W42215  20.822  17.835   3.670 -0.2182 -0.1917  0.1292
41352W        W42216  17.809  16.833   5.171 -0.3852  0.2720  0.0926
41353W        W42217  20.762  16.766   4.830  0.2203 -0.0642 -0.1602
41354W        W42218  21.417  16.674   6.083 -0.0386 -0.0656  0.0808
41355W        W42219  18.367  18.011   7.957  0.0489 -0.1439  0.1152
41356W        W42220  18.056  14.261   8.056 -0.3094  0.0014 -0.0259
41357W        W42221  20.176  16.583   7.282  0.0514  0.0158  0.2044
41358W        W42222  21.155  13.898   4.648  0.4421  0.0461  0.2569
41359W        W42223  18.889  16.935   7.074  0.1270 -0.4066 -0.0150
41360W        W42224  22.825  16.160   3.918  0.1884 -0.3212 -0.0512
41361W        W42225  20.539  16.823   9.018 -0.0121 -0.0453  0.2281
41362W        W42226  22.367  15.546   7.744  0.1448 -0.0984  0.0191
41363W        W42227  25.412  16.401   9.161 -0.1206 -0.1446 -0.0501
41364W        W42228  22.817  14.675   6.597  0.0481 -0.1129 -0.1935
41365W        W42229  21.326  15.205   5.560  0.0366 -0.0702  0.0177
41366W        W42230  19.837  18.344   9.675  0.0906 -0.3484 -0.1668
41367W        W42231  19.814  21.196   6.708  0.2594  0.0235  0.1381
41368W        W42232  20.157  13.590   4.730  0.1140  0.1371  0.0521
41369W        W42233  21.022  14.596   7.232 -0.0921 -0.2339 -0.1287
41370W        W42234  22.149  14.643   5.472  0.2031  0.0839  0.2421
41371W        W42235  21.684  16.049   3.173  0.2661 -0.1583  0.2683
41372W        W42236  18.038  18.605   6.560  0.0857  0.1105 -0.2222
41373W        W42237  21.330  11.933   2.331 -0.1019  0.0296  0.0023
41374W        W42238  22.291  15.649   5.771 -0.0340  0.1400  0.0796
41375W        W42239  24.601  18.789   1.525 -0.0428 -0.2887 -0.0208
41376W        W42240  20.338  15.281   8.483 -0.1513  0.1291  0.0317
41377W        W42241  23.214  13.926   3.907 -0.0331  0.0157 -0.0486
41378W        W42242  19.859  20.027   4.333  0.0902  0.0926  0.0225
41379W        W42243  22.301  14.067   4.430  0.0824  0.3432 -0.2989
41380W        W42244  20.463  19.006   7.422 -0.0497  0.1970  0.1065
41381W        W42245  18.643  15.719   4.947  0.3486  0.0434 -0.0060
41382W        W42246  19.860  17.283   7.963 -0.0566 -0.0400 -0.0260
41383W        W42247  18.981  15.139   8.376  0.0574  0.0942 -0.1355
41384W        W42248  18.317  13.503   6.718  0.0950 -0.1686 -0.0710
41385W        W42249  20.270  16.407   9.104  0.0464 -0.0093  0.0256
41386W        W42250  22.796  16.648   6.074  0.0599 -0.0965 -0.3056
41387W        W42251  20.782  15.093   8.704  0.0054  0.1637 -0.0386
41388W        W42252  21.971  18.134   8.092  0.0288 -0.0507 -0.1331
41389W        W42253  19.836  15.359   3.116 -0.2221 -0.0818 -0.1110
41390W        W42254  23.202  15.046   3.806 -0.2063 -0.0232  0.0094
41391W        W42255  22.016  17.603   7.385 -0.1257 -0.1186 -0.2577
41392W        W42256  18.726  18.515   7.068  0.2238 -0.0116  0.2514
41393W        W42257  20.705  16.086   7.359  0.1156  0.0979 -0.2090
41394W        W42258  20.493  12.129   3.250  0.1632  0.0696 -0.0585
41395W        W42259  22.496  14.771   3.618  0.1582 -0.4479 -0.1712
41396W        W42260  21.446  15.733   5.780 -0.0641  0.2904 -0.2067
41397W        W42261  22.077  16.044   5.554 -0.1932 -0.1670  0.2629
41398W        W42262  20.294  13.958   1.909 -0.1269  0.0871 -0.0456
41399W        W42263  22.650  16.299   5.800 -0.1921  0.0692 -0.1763
41400W        W42264  20.391  15.232   5.670  0.1198  0.3114  0.0697
41401W        W42265  19.417  13.817   6.826 -0.0800 -0.1557 -0.7684
41402W        W42266  18.592  16.377   7.868  0.0466 -0.3089 -0.1709
41403W        W42267  20.161  15.007   7.583 -0.2644 -0.0182 -0.3940
41404W        W42268  21.263  18.717   3.795  0.2650 -0.2598 -0.0268
41405W        W42269  21.732  18.848   7.206 -0.3942 -0.0411 -0.0800
41406W        W42270  23.138  14.317   6.144 -0.3850  0.0967 -0.0991
41407W        W42271  19.912  15.947   6.060  0.1327 -0.2097  0.1249
41408W        W42272  23.826  14.731   3.219  0.2890  0.1049 -0.0237
41409W        W42273  22.233  17.105   6.548  0.4733  0.0421 -0.1283
41410W        W42274  18.943  17.369   6.751 -0.1769 -0.0674  0.1732
41411W        W42275  21.521  15.360   3.842  0.0404 -0.1015  0.2229
41412W        W42276  21.549  15.380   7.877 -0.0851 -0.1586 -0.4474
41413W        W42277  18.634  17.609   5.804  0.2473 -0.0536 -0.0559
41414W        W42278  20.046  16.226   5.196  0.5408 -0.0948  0.1832
41415W        W42279  19.118  14.832   5.786  0.0132 -0.0797 -0.3971
41416W        W42280  21.148  15.860   6.634 -0.2140  0.0054  0.2084
41417W        W42281  19.544  17.367   5.530 -0.0297  0.1480 -0.3557
41418W        W42282  21.256  17.138   6.318 -0.0705 -0.0804  0.1435
41419W        W42283  19.881  19.193   5.781  0.3969  0.0490  0.2369
41420W        W42284  19.537  13.821   8.004  0.0542  0.2105 -0.0782
41421W        W42285  20.080  13.619   7.434  0.2652  0.0155 -0.0014
41422W        W42286  21.534  18.339   7.505  0.1452  0.1646 -0.1183
41423W        W42287  19.484  18.556   8.517  0.2058 -0.2996 -0.0278
41424W        W42288  21.664  15.553   4.425 -0.0640  0.0259 -0.2585
41425W        W42289  20.561  19.505   5.601 -0.2520  0.3904 -0.0050
41426W        W42290  20.002  12.839   5.357  0.1003 -0.0919 -0.0496
41427W        W42291  21.052  18.058   8.233  0.0939  0.1910 -0.2338
41428W        W42292  22.126  16.537   5.439  0.1349 -0.0067 -0.0678
41429W        W42293  20.359  15.764   7.350 -0.1231 -0.2435  0.1708
41430W        W42294  21.891  16.321   6.357 -0.1773 -0.0919 -0.0605
41431W        W42295  19.544  17.674   3.267  0.3721 -0.2103 -0.1131
41432W        W42296  21.284  13.592   3.833 -0.1074 -0.1779  0.1258
41433W        W42297  18.374  14.190   6.492  0.1064 -0.1734 -0.0248
41434W        W42298  20.982  15.483  10.252  0.4907  0.3284  0.1578
41435W        W42299  20.361  14.861   8.793 -0.2152 -0.0024 -0.0771
41436W        W42300  20.323  17.267   9.796 -0.0853  0.2736 -0.0081
41437W        W42301  22.835  11.970   7.779 -0.2197 -0.2439  0.0781
41438W        W42302  19.475  16.917   7.751 -0.2174  0.4447 -0.1932
41439W        W42303  19.209  16.305   8.986 -0.0471 -0.0392  0.1237
41440W        W42304  22.608  14.383   5.262 -0.1098  0.0821  0.1990
41441W        W42305  19.867  14.503   4.643  0.0340 -0.0803 -0.1144
41442W        W42306  17.535  18.948   4.213 -0.1389  0.1363  0.0197
41443W        W42307  20.584  17.114   6.868  0.1072  0.0566  0.4033
41444W        W42308  19.884  17.047   4.025 -0.1561  0.0680  0.0007
41445W        W42309  20.660  15.669   4.058  0.1977 -0.0310  0.0344
41446W        W42310  21.431  16.071   3.635  0.3453 -0.2039  0.1477
41447W        W42311  22.305  14.962   4.017  0.3370  0.1376 -0.0527
41448W        W42312  22.121  12.544   2.087 -0.1555  0.1287  0.1099
41449W        W42313  21.432  15.920   4.193  0.4985 -0.1258  0.2521
41450W        W42314  22.985  12.312   3.093 -0.1843 -0.0817  0.1566
41451W        W42315  19.634  15.422   4.897 -0.0085  0.3170 -0.1451
41452W        W42316  17.630  17.377   5.724 -0.3620 -0.2971 -0.0690
41453W        W42317  19.592  18.012   3.633  0.0003 -0.2004 -0.0991
41454W        W42318  18.879  16.165   6.445  0.0916 -0.1169 -0.0317
41455W        W42319  18.242  15.305   4.758  0.0563 -0.1892 -0.0969
41456W        W42320  20.576  15.706   2.271  0.0150 -0.2195 -0.0024
41457W        W42321  20.679  14.311   4.627  0.0222  0.3138 -0.0969
41458W        W42322  19.807  14.572   3.963 -0.1552  0.2224  0.0706
41459W        W42323  19.549  15.478   6.226 -0.1357  0.1301 -0.2887
41460W        W42324  18.730  18.028   8.313 -0.1302 -0.3929 -0.0229
41461W        W42325  21.331  14.655   5.541 -0.2040 -0.0618 -0.2908
41462W        W42326  17.981  15.211   4.143 -0.3424 -0.2240 -0.1461
41463W        W42327  16.723  16.221   4.875  0.1931  0.0645 -0.2052
41464W        W42328  19.222  14.243   7.481  0.3320 -0.0786  0.3491
41465W        W42329  20.702  15.334   1.946  0.1553  0.2538  0.0938
41466W        W42330  18.757  17.381   3.140 -0.1140 -0.0498  0.2236
41467W        W42331  19.726  16.849   6.486  0.2516  0.0664 -0.2316
41468W        W42332  20.637  16.755  10.549  0.2525  0.2174  0.2100
41469W        W42333  22.187  17.236   9.338 -0.2010 -0.0379  0.0949
41470W        W42334  18.685  14.602   5.641  0.2311  0.1327 -0.0380
41471W        W42335  21.243  13.025   3.846  0.4583  0.0476  0.2165
41472W        W42336  16.899  13.610   8.186 -0.2046 -0.0679  0.0612
41473W        W42337  18.371  15.239   6.805 -0.0110 -0.1810  0.0840
41474W        W42338  21.832  13.846   4.608 -0.0482 -0.2360  0.4334
41475W        W42339  21.274  15.759   4.705 -0.0597  0.2227 -0.1374
41476W        W42340  22.481  13.931   7.500 -0.0914  0.1338 -0.1148
41477W        W42341  20.817  17.389   3.940  0.2231  0.1187 -0.3884
41478W        W42342  21.360  16.266   7.948 -0.0747 -0.0208  0.0172
41479W        W42343  21.649  16.732   5.567 -0.1712  0.0646  0.0234
41480W        W42344  19.393  15.699   2.842  0.1815  0.1897 -0.0700
41481W        W42345  19.520  16.031   7.622  0.0645  0.1738 -0.2057
41482W        W42346  19.840  14.483   2.643  0.1426 -0.0019 -0.0859
41483W        W42347  20.708  18.201   4.914 -0.2055 -0.0031 -0.1968
41484W        W42348  15.233  16.296   6.155 -0.0350 -0.0365  0.0926
41485W        W42349  19.790  18.884   7.163 -0.0463  0.0047  0.0815
41486W        W42350  19.923  13.883   8.279  0.0127  0.0899  0.3257
41487W        W42351  21.034  16.685   8.186  0.2965 -0.3154  0.2546
41488W        W42352  21.566  14.237   4.634 -0.2375 -0.2136  0.2990
41489W        W42353  22.937  18.204   6.550 -0.1836 -0.0979 -0.0358
41490W        W42354  21.995  13.158   3.337  0.4776  0.1676  0.0062
41491W        W42355  19.963  15.473   7.179  0.0653  0.1524 -0.0433
41492W        W42356  21.792  17.819   3.285  0.1069 -0.4652 -0.0708
41493W        W42357  19.986  16.001   8.999  0.1686 -0.1172 -0.2648
41494W        W42358  19.108  18.522   9.057  0.0133  0.1290  0.0306
41495W        W42359  21.421  14.951   6.522  0.0970 -0.3569  0.2294
41496W        W42360  20.560  17.891   7.492 -0.1454  0.1742  0.0345
41497W        W42361  19.216  18.890   8.340 -0.2926  0.1980 -0.0324
41498W        W42362  18.989  14.817   4.653 -0.0956  0.0980 -0.0520
41499W        W42363  24.044  18.997   5.533  0.1321 -0.1707 -0.1838
41500W        W42364  20.179  13.972   6.503 -0.2087 -0.1598  0.3004
41501W        W42365  18.815  17.986   7.310  0.0012 -0.2326  0.3057
41502W        W42366  20.444  15.300   5.035 -0.1631 -0.0487  0.3031
41503W        W42367  21.192  19.444   4.685 -0.2965 -0.1609 -0.0771
41504W        W42368  21.672  16.997   8.668  0.0789 -0.0754  0.0802
41505W        W42369  18.145  15.214   7.205 -0.2406 -0.0897  0.0124
41506W        W42370  19.471  14.735   9.629  0.1751 -0.1211 -0.0847
41507W        W42371  19.867  15.850   4.891 -0.2462  0.1383  0.0797
41508W        W42372  20.020  18.092   3.386  0.1167 -0.2240  0.2670
41509W        W42373  18.754  16.234   9.153  0.0604  0.0922  0.1683
41510W        W42374  21.484  15.491   6.279 -0.0673 -0.0432 -0.1009
41511W        W42375  23.282  17.152   2.632  0.3790 -0.2148 -0.2155
41512W        W42376  18.839  13.835   6.853 -0.1119  0.1034 -0.1502
41513W        W42377  21.394  19.126   6.914 -0.1338 -0.0344 -0.2521
41514W        W42378  21.773  18.485   5.238 -0.2350 -0.4437 -0.0132
41515W        W42379  21.383  17.350   4.039 -0.2667  0.0692 -0.2448
41516W        W42380  20.077  15.508   6.310 -0.0745 -0.0690  0.0050
41517W        W42381  20.326  13.643   6.898 -0.0468  0.1230 -0.0213
41518W        W42382  21.371  15.152   3.227 -0.0909 -0.4693  0.1559
41519W        W42383  19.394  15.637   7.284 -0.1716  0.2482  0.1313
41520W        W42384  21.229  16.855   5.098  0.4022  0.0981 -0.2688
41521W        W42385  23.038  16.176   7.450 -0.1819  0.2391  0.1675
41522W        W42386  14.920  15.295   7.034 -0.3555  0.0582  0.2051
41523W        W42387  22.919  16.912   5.683  0.1377  0.4122 -0.0546
41524W        W42388  21.121  14.328   4.299 -0.0251 -0.0105 -0.1407
41525W        W42389  20.062  15.433   4.634 -0.1452  0.0361 -0.0929
41526W        W42390  20.452  18.278   8.305 -0.1424 -0.1594 -0.1343
41527W        W42391  21.555  17.395   7.138 -0.0199 -0.1020  0.1140
41528W        W42392  22.808  15.066   3.239  0.0436  0.1944  0.0334
41529W        W42393  20.371  16.721   4.498  0.0507  0.3880  0.1500
41530W        W42394  20.711  18.681   5.689 -0.0921  0.3875 -0.2991
41531W        W42395  22.116  13.485   2.965 -0.0432 -0.3191 -0.1621
41532W        W42396  23.393  13.131   4.330  0.1636 -0.1115  0.1090
41533W        W42397  20.313  15.785   3.667 -0.2279 -0.3182  0.1139
41534W        W42398  19.328  15.328   4.496  0.0170 -0.1238  0.1396
41535W        W42399  19.625  14.948   6.450 -0.0560  0.1560 -0.2663
41536W        W42400  19.088  19.036   8.797 -0.1880 -0.2448  0.0598
41537W        W42401  20.949  15.994   4.346 -0.2025  0.1966 -0.1077
41538W        W42402  22.534  15.248   6.687  0.0915  0.2170 -0.0617
41539W        W42403  19.516  19.002   3.320 -0.2787  0.2032  0.2577
41540W        W42404  18.107  15.605   8.548 -0.1285  0.0564 -0.1021
41541W        W42405  16.473  15.858   3.578  0.0367  0.0076 -0.0636
41542W        W42406  19.103  16.378   3.424 -0.3082 -0.0702  0.0286
41543W        W42407  20.287  16.191   7.006 -0.4199  0.0296  0.2415
41544W        W42408  19.326  14.685   3.430  0.0760  0.0905  0.2941
41545W        W42409  20.189  15.827   4.378  0.1597 -0.0593 -0.0110
41546W        W42410  23.313  18.418   6.879  0.0546 -0.1958  0.2046
41547W        W42411  20.440  15.173   6.164 -0.1937 -0.1982  0.0413
41548W        W42412  20.328  15.076   4.396 -0.1299  0.0312  0.0918
41549W        W42413  21.119  17.671   7.904  0.1602  0.2580 -0.1483
41550W        W42414  20.011  15.009   4.993  0.1927  0.2348  0.1533
41551W        W42415  19.660  15.045   7.211  0.0782  0.1114  0.3138
41552W        W42416  20.671  14.745   4.344  0.1241 -0.0175 -0.0911
41553W        W42417  22.312  15.085   0.818 -0.1397 -0.3820 -0.3024
41554W        W42418  20.026  15.502   5.235  0.2227 -0.4355  0.0279
41555W        W42419  19.774  14.610   6.107 -0.0245 -0.2492  0.1564
41556W        W42420  20.697  13.732   3.779 -0.0179 -0.1186 -0.1831
41557W        W42421  23.022  15.289   6.581  0.2927  0.0686 -0.3136
41558W        W42422  17.335  18.422   5.178  0.2727 -0.3335 -0.2121
41559W        W42423  21.127  16.536   3.564  0.0333 -0.1760 -0.1477
41560W        W42424  22.788  13.572   8.794 -0.0954 -0.0973 -0.1708
41561W        W42425  21.300  15.063   4.202 -0.2111  0.2206 -0.1791
41562W        W42426  19.790  14.994   4.574  0.2809 -0.0190 -0.0985
41563W        W42427  22.298  13.546   4.494  0.1673  0.2082 -0.2432
41564W        W42428  22.113  17.111   2.935 -0.0599 -0.1894 -0.0329
41565W        W42429  21.023  16.892   4.000  0.0055  0.0656  0.1053
41566W        W42430  20.715  13.845   0.378  0.1482  0.1923  0.1385
41567W        W42431  18.571  14.060   5.505 -0.5000  0.0522  0.1701
41568W        W42432  18.763  13.446   6.487 -0.0111  0.0185 -0.1543
41569W        W42433  19.125  18.419   3.775 -0.1433  0.1842 -0.0610
41570W        W42434  16.758  14.572   3.499  0.1692  0.0821 -0.1687
41571W        W42435  21.036  16.804   6.962  0.0845 -0.4911 -0.1703
41572W        W42436  20.029  16.465   6.135 -0.0863 -0.1225 -0.1378
41573W        W42437  21.861  15.623   5.426  0.1850 -0.0749  0.1389
41574W        W42438  19.039  16.211   4.887 -0.1492 -0.4461 -0.3253
41575W        W42439  18.547  15.805   3.942 -0.2027 -0.2312 -0.1890
41576W        W42440  17.417  14.391   8.680 -0.1640  0.0465  0.3917
41577W        W42441  17.961  17.102   9.629 -0.0244 -0.2471  0.4599
41578W        W42442  20.686  17.775   5.237  0.3911 -0.0851 -0.2062
41579W        W42443  22.839  15.686   3.873  0.0626 -0.0878  0.0964
41580W        W42444  21.751  17.006   6.380  0.0144 -0.1188  0.0889
41581W        W42445  22.401  16.928   5.794  0.0889  0.0698 -0.0732
41582W        W42446  18.886  14.289   6.332 -0.0507 -0.0262 -0.1776
41583W        W42447  22.798  15.310   6.110  0.0190  0.2025 -0.1142
41584W        W42448  20.779  17.809   5.745 -0.0716  0.1517 -0.0714
41585W        W42449  21.490  12.904   3.385 -0.1607 -0.0013 -0.1395
41586W        W42450  18.959  16.270   8.284  0.0350  0.0668  0.1892
41587W        W42451  21.442  13.170   5.532  0.1819  0.1727  0.1237
41588W        W42452  22.122  17.237   8.772 -0.0779 -0.1047 -0.2637
41589W        W42453  19.901  16.634   4.898  0.1363  0.0137 -0.1323
41590W        W42454  19.554  18.367   7.659 -0.1875  0.3267 -0.3636
41591W        W42455  18.097  16.268   4.441 -0.2822  0.4256  0.1644
41592W        W42456  23.028  15.062   2.781  0.1154  0.1592 -0.3693
41593W        W42457  17.275  17.197   7.805  0.0907  0.0421 -0.2889
41594W        W42458  19.726  19.343   6.308 -0.4047 -0.1051  0.2137
41595W        W42459  21.945  17.293   6.909  0.1906  0.0847 -0.2138
41596W        W42460  25.478  16.701   6.715  0.0171  0.1539 -0.0365
41597W        W42461  19.792  16.480   8.455 -0.1009 -0.0625 -0.0322
41598W        W42462  18.262  16.799   7.910 -0.2325  0.2429 -0.0182
41599W        W42463  20.307  14.249   5.610 -0.3006  0.1084  0.0876
41600W        W42464  20.252  16.894   6.367 -0.1237 -0.0891  0.2939
41601W        W42465  19.232  16.063   6.845  0.1495 -0.0665 -0.1709
41602W        W42466  19.973  16.962   1.437  0.4311  0.3173  0.1068
41603W        W42467  19.658  15.576   3.797  0.2935 -0.2048  0.1097
41604W        W42468  19.189  15.192   7.403  0.1852 -0.1567  0.0182
41605W        W42469  18.626  11.362   7.613  0.0884 -0.0181  0.0537
41606W        W42470  22.116  15.752   4.548  0.0098 -0.1224  0.1457
41607W        W42471  22.891  17.582   6.263  0.1663 -0.0550 -0.1269
41608W        W42472  20.348  20.588   7.853  0.2084 -0.0015 -0.1242
41609W        W42473  22.672  15.828   6.089  0.2725 -0.0380 -0.1441
41610W        W42474  18.565  19.496   7.595  0.1147 -0.1049  0.1615
41611W        W42475  20.437  16.515   5.373 -0.1691 -0.3951  0.1016
41612W        W42476  19.616  16.058   7.122  0.0504  0.0098  0.0419
41613W        W42477  21.217  16.528   5.460 -0.1196  0.1487  0.0475
41614W        W42478  20.713  12.503   6.027  0.2087  0.1070 -0.1487
41615W        W42479  20.103  18.190   5.629 -0.2186 -0.1422  0.0790
41616W        W42480  19.042  17.554   9.242 -0.0560 -0.0670  0.3680
41617W        W42481  21.359  14.899   8.000  0.0770  0.0182  0.0902
41618W        W42482  20.594  17.648   6.186 -0.1624  0.4059  0.2532
41619W        W42483  21.244  17.015   5.790  0.0289  0.0192 -0.0963
41620W        W42484  19.539  16.274   5.672 -0.0382 -0.1190  0.4793
41621W        W42485  18.160  15.985   3.631  0.0394  0.0173 -0.0272
41622W        W42486  18.309  14.526   4.763  0.2172  0.2094  0.0800
41623W        W42487  18.489  14.273   6.016 -0.1104  0.1032  0.1520
41624W        W42488  19.383  12.012   6.275  0.2397 -0.0888  0.1177
41625W        W42489  20.973  15.157   4.755  0.1564  0.1654  0.0952
41626W        W42490  22.103  13.780   5.035 -0.1071 -0.0984 -0.1415
41627W        W42491  21.484  17.777   7.453 -0.1891 -0.1844 -0.0325
41628W        W42492  20.584  16.628   6.973  0.0088  0.1871 -0.2275
41629W        W42493  22.053  17.516   6.397  0.0360 -0.0809 -0.0722
41630W        W42494  20.999  13.551   0.762  0.0365  0.2092  0.2334
41631W        W42495  18.305  17.848   8.656 -0.1978  0.1972 -0.0608
41632W        W42496  22.274  16.061   6.437  0.0371 -0.1253 -0.3125
41633W        W42497  16.742  15.922   5.767  0.1079  0.0570  0.0344
41634W        W42498  19.166  17.752   5.600 -0.2055  0.0249  0.0589
41635W        W42499  21.868  15.770   3.991 -0.0102 -0.1309  0.0048
41636W        W42500  19.916  17.291   8.985 -0.1042  0.1074 -0.0633
41637W        W42501  20.812  17.109   5.949 -0.2095 -0.1397 -0.0103
41638W        W42502  19.397  11.469   4.497 -0.1504  0.2970 -0.0376
41639W        W42503  20.738  17.079   4.422 -0.1934 -0.0858  0.2143
41640W        W42504  20.159  17.872   7.029 -0.0865 -0.3826 -0.1290
41641W        W42505  19.045  16.750   5.011 -0.4572  0.1105 -0.0928
41642W        W42506  21.984  14.169   2.594 -0.5140  0.0298 -0.0175
41643W        W42507  20.463  13.973   6.062 -0.2877  0.1384  0.1030
41644W        W42508  23.888  14.460   1.560 -0.0241  0.0290  0.0324
41645W        W42509  20.096  14.967   3.936 -0.0519  0.2284  0.3353
41646W        W42510  21.997  14.261   4.910  0.0066  0.1444  0.2135
41647W        W42511  21.246  15.601   3.305 -0.2359 -0.1394 -0.1174
41648W        W42512  20.620  16.258   5.727  0.1243 -0.0457  0.0541
41649W        W42513  23.014  15.982   3.383  0.0573  0.1103 -0.0074
41650W        W42514  19.786  17.330   6.298  0.4518  0.0938 -0.0159
41651W        W42515  18.268  19.101   7.304 -0.0456 -0.1038 -0.0006
41652W        W42516  16.603  18.017   8.238 -0.1093  0.1610 -0.2387
41653W        W42517  20.030  14.970   9.667 -0.1111 -0.0228  0.1512
41654W        W42518  17.820  19.323   7.292 -0.0440 -0.2505 -0.1332
41655W        W42519  20.285  17.298   6.034  0.0254 -0.0294 -0.1443
41656W        W42520  20.762  15.750   5.625  0.2331 -0.1899 -0.1289
41657W        W42521  18.713  16.402   5.646 -0.0470 -0.1112  0.2075
41658W        W42522  19.148  17.378   7.323  0.0170  0.1905  0.1550
41659W        W42523  21.920  18.726   6.255 -0.0944 -0.1201  0.1429
41660W        W42524  19.929  15.139   8.993  0.0315 -0.3814 -0.1651
41661W        W42525  23.433  14.960   5.433 -0.2196 -0.1106 -0.1517
41662W        W42526  18.459  16.995   7.442 -0.4925  0.0905 -0.0535
41663W        W42527  19.820  18.066   4.438 -0.0488 -0.0542  0.1072
41664W        W42528  23.966  15.966   5.869 -0.0224 -0.1663  0.0245
41665W        W42529  20.845  16.593   7.424  0.1518 -0.0339  0.4411
41666W        W42530  17.144  14.857   6.350  0.3085 -0.0710  0.2322
41667W        W42531  21.180  17.835   5.444  0.0454 -0.2140  0.0331
41668W        W42532  22.481  17.892   7.387  0.2268  0.0824 -0.0937
41669W        W42533  20.690  18.242   7.842 -0.0134 -0.0167 -0.1677
41670W        W42534  18.879  14.650   8.356 -0.0480 -0.2421  0.1340
41671W        W42535  20.623  18.286   3.895  0.1562  0.1886  0.0589
41672W        W42536  20.107  17.785   6.192  0.2039 -0.0233 -0.0010
41673W        W42537  21.724  16.053   4.619  0.4027  0.3957  0.0686
41674W        W42538  21.203  14.753   4.593  0.1489  0.3715  0.3674
41675W        W42539  20.168  22.433   9.381  0.2595 -0.1619 -0.2682
41676W        W42540  20.280  15.827  11.055  0.3367 -0.2216 -0.1769
41677W        W42541  22.587  17.837   8.234 -0.2366  0.0944 -0.0706
41678W        W42542  22.257  19.905   7.526 -0.1553 -0.2544  0.1862
41679W        W42543  17.830  20.662  11.171  0.1880 -0.1569 -0.1006
41680W        W42544  16.713  15.796   6.270 -0.1153  0.0797 -0.0365
41681W        W42545  21.163  14.922   9.739 -0.1168  0.1675 -0.1532
41682W        W42546  20.823  15.743   8.005  0.0621 -0.1262  0.0133
41683W        W42547  19.466  18.445  10.892  0.1505  0.1200 -0.2853
41684W        W42548  20.528  17.404  12.162 -0.0592 -0.2048 -0.3824
41685W        W42549  18.748  13.936  11.464  0.0281 -0.1165  0.0444
41686W        W42550  20.078  14.827   6.490 -0.1055  0.0096 -0.0723
41687W        W42551  20.415  15.780   9.229  0.2894  0.0565  0.0189
41688W        W42552  23.504  13.427  10.277  0.0137  0.0855  0.0799
41689W        W42553  19.337  14.467   9.260 -0.1072  0.2581 -0.0725
41690W        W42554  17.594  20.887  10.757 -0.0942 -0.0969  0.0660
41691W        W42555  19.194  15.731   9.672  0.1218 -0.1496 -0.0421
41692W        W42556  18.573  14.822  11.100  0.2641 -0.1099 -0.4935
41693W        W42557  19.124  13.967  10.467  0.2396 -0.1886 -0.4213
41694W        W42558  22.238  17.201  11.151  0.0982 -0.0169 -0.2170
41695W        W42559  22.154  15.906  12.267 -0.0188 -0.0113 -0.2338
41696W        W42560  17.935  15.625   7.449  0.2855  0.1007  0.1239
41697W        W42561  23.532  16.169   7.642  0.0648 -0.1219 -0.3560
41698W        W42562  19.534  21.264  12.527  0.1132 -0.0033  0.2077
41699W        W42563  20.783  16.940  11.509  0.1485  0.0250 -0.0738
41700W        W42564  22.160  18.785   9.962 -0.0607 -0.1712 -0.1303
41701W        W42565  19.672  14.439  15.178 -0.2535 -0.0980 -0.3066
41702W        W42566  18.811  18.129  10.750  0.1207 -0.2564  0.0115
41703W        W42567  21.092  16.579  10.804  0.0007 -0.0285  0.1129
41704W        W42568  21.400  16.874  10.571 -0.1642  0.2441 -0.0320
41705W        W42569  20.284  17.132  10.764 -0.0056  0.0694  0.3120
41706W        W42570  20.394  19.127  10.387 -0.1511  0.1033 -0.1145
41707W        W42571  22.961  19.172   7.806 -0.0411  0.0037  0.0908
41708W        W42572  21.100  15.548  11.244  0.2617 -0.0151 -0.2438
41709W        W42573  19.203  13.626  11.311  0.1126 -0.0303  0.1840
41710W        W42574  21.338  18.673  10.662 -0.0278  0.3774  0.1485
41711W        W42575  19.421  15.580  11.895  0.0539  0.4328  0.1844
41712W        W42576  19.623  20.119   7.915  0.0593  0.1789 -0.1589
41713W        W42577  22.136  17.654   7.868  0.4196 -0.1884  0.2197
41714W        W42578  22.481  13.714   6.972  0.2292  0.1186  0.4142
41715W        W42579  20.806  17.072   7.348  0.1493  0.1384 -0.1861
41716W        W42580  24.631  17.366  11.191  0.3426  0.2925  0.2279
41717W        W42581  19.771  19.883   7.413  0.2888 -0.3106 -0.0148
41718W        W42582  25.287  15.934   7.323  0.1753  0.0675  0.0612
41719W        W42583  18.986  18.271   6.726 -0.6317  0.0502 -0.0927
41720W        W42584  18.828  18.121  10.144  0.0758 -0.1589 -0.1127
41721W        W42585  20.459  14.860  10.710  0.1693 -0.3813 -0.0015
41722W        W42586  23.598  16.075  11.807 -0.0139 -0.1651 -0.1173
41723W        W42587  22.782  16.574   7.132 -0.3523 -0.2463 -0.1361
41724W        W42588  22.818  15.303   9.649  0.1546 -0.1150 -0.0296
41725W        W42589  20.216  16.344   9.717 -0.1513 -0.2149  0.1535
41726W        W42590  20.490  12.996   9.348  0.1107  0.0707  0.0509
41727W        W42591  22.466  18.589   9.593 -0.1986 -0.1757 -0.0221
41728W        W42592  21.698  17.893   9.517  0.1652  0.0123 -0.1310
41729W        W42593  24.423  13.820   8.314 -0.2685 -0.0397  0.1219
41730W        W42594  19.431  15.636  10.115 -0.0485  0.1187  0.0674
41731W        W42595  18.978  15.263   8.885  0.2711 -0.1194  0.2018
41732W        W42596  18.768  15.443  10.139 -0.1743 -0.2101  0.0750
41733W        W42597  20.848  16.475  11.261  0.0344 -0.0905 -0.2713
41734W        W42598  19.741  17.693   6.718  0.0392 -0.2108 -0.1313
41735W        W42599  22.713  18.364   8.222 -0.2734 -0.1376 -0.0369
41736W        W42600  19.476  16.746  11.792 -0.1623 -0.1299  0.1420
41737W        W42601  19.075  18.414  11.229  0.0785 -0.1380  0.1066
41738W        W42602  18.958  16.980   7.615  0.0315  0.3618 -0.1747
41739W        W42603  20.409  14.545  10.273 -0.1174  0.1625 -0.0832
41740W        W42604  22.217  14.406   9.216  0.1927  0.0960  0.0876
41741W        W42605  18.969  18.423   7.500 -0.0089 -0.2840 -0.1857
41742W        W42606  21.020  16.188   8.306 -0.0062 -0.0844 -0.2105
41743W        W42607  18.724  16.037  12.499  0.1033  0.0995  0.2452
41744W        W42608  17.600  16.085  10.435 -0.0922  0.2977  0.3710
41745W        W42609  22.656  18.802  10.026 -0.4176 -0.2005  0.1279
41746W        W42610  22.581  17.582   8.670 -0.0437 -0.1014 -0.2030
41747W        W42611  21.105  17.795  11.743  0.1144  0.3256  0.0558
41748W        W42612  20.951  19.220  11.249 -0.1215  0.1024 -0.0645
41749W        W42613  23.343  16.746   8.544  0.1369  0.2119 -0.1493
41750W        W42614  22.145  16.750   9.248 -0.2066  0.1149 -0.2144
41751W        W42615  17.691  15.681   7.856  0.1257 -0.3009 -0.0230
41752W        W42616  20.939  18.486  10.428 -0.4021 -0.1202 -0.0157
41753W        W42617  22.540  15.945   6.932  0.1700 -0.1448  0.2486
41754W        W42618  21.320  17.461   9.459 -0.0912  0.0488  0.2829
41755W        W42619  19.655  16.063  12.029  0.0137 -0.0075  0.2673
41756W        W42620  19.992  15.349  12.203  0.0802  0.0299  0.2133
41757W        W42621  18.859  14.934   9.982  0.1778 -0.0763  0.1451
41758W        W42622  19.181  14.980   9.305  0.0758  0.3404 -0.1171
41759W        W42623  21.672  15.911   9.751 -0.1895 -0.2848 -0.1369
41760W        W42624  20.461  13.703  10.032 -0.1795  0.0141 -0.2620
41761W        W42625  21.955  19.815  11.137  0.2688 -0.2676  0.0623
41762W        W42626  21.453  15.311   9.677 -0.4457 -0.2623 -0.3050
41763W        W42627  20.406  18.087  13.426  0.0865 -0.0871 -0.0775
41764W        W42628  21.792  15.030   8.875  0.2124  0.1164  0.2241
41765W        W42629  21.978  14.273   8.388  0.0321 -0.0743 -0.2852
41766W        W42630  22.506  15.250   8.142 -0.0892 -0.0241 -0.1199
41767W        W42631  17.105  16.560  10.514  0.0185 -0.0178 -0.0636
41768W        W42632  18.475  18.313   7.544  0.1143 -0.1072 -0.0407
41769W        W42633  18.080  14.788  10.321 -0.1170  0.3282  0.0529
41770W        W42634  21.895  14.365   7.568  0.0010 -0.0700 -0.1500
41771W        W42635  22.300  14.777   7.781  0.1028  0.1417  0.0616
41772W        W42636  20.631  18.090  10.601 -0.1541  0.1307  0.3059
41773W        W42637  20.239  16.358   8.571  0.0882  0.1257  0.0601
41774W        W42638  20.849  15.813  10.601 -0.1905 -0.0365  0.2090
41775W        W42639  19.255  17.885   7.599 -0.1806 -0.1384  0.3222
41776W        W42640  19.967  19.079  11.053 -0.1318  0.1806  0.5109
41777W        W42641  20.686  14.728   9.647  0.2146 -0.0845 -0.2327
41778W        W42642  21.123  17.606  11.289  0.2381 -0.1714  0.1867
41779W        W42643  23.884  17.560   9.818  0.0875 -0.0119 -0.2643
41780W        W42644  20.060  15.939   9.522 -0.0171  0.2215 -0.0052
41781W        W42645  20.242  18.970   8.632  0.2376  0.0593 -0.0851
41782W        W42646  19.683  15.159  10.008 -0.1149  0.0616  0.2649
41783W        W42647  19.160  13.798   9.913  0.0542  0.2026 -0.0865
41784W        W42648  20.368  15.822   5.002 -0.0635 -0.1279  0.1076
41785W        W42649  19.595  16.036  10.378 -0.0492 -0.0465  0.0208
41786W        W42650  21.475  18.353   9.409  0.0375 -0.0892  0.1692
41787W        W42651  21.994  14.550  10.813  0.0472  0.0969 -0.3376
41788W        W42652  24.585  18.318   9.806  0.0287 -0.1268 -0.1041
41789W        W42653  23.838  17.333   8.522 -0.2538  0.0683 -0.1191
41790W        W42654  20.093  17.103  10.191 -0.2050 -0.3136 -0.0509
41791W        W42655  22.629  15.939  10.224 -0.2001 -0.1650  0.2788
41792W        W42656  19.447  18.703  10.361 -0.1743  0.0084  0.1035
41793W        W42657  21.590  15.527   8.956  0.1812 -0.1564  0.1230
41794W        W42658  22.299  18.632   8.584  0.2506 -0.0261 -0.0825
41795W        W42659  22.313  16.669   6.352  0.1141  0.2375  0.3287
41796W        W42660  22.610  15.229   7.404 -0.5538  0.2106 -0.0705
41797W        W42661  21.119  17.211   7.798 -0.1741  0.0406 -0.2301
41798W        W42662  21.796  17.903  10.008 -0.0749 -0.2060  0.5839
41799W        W42663  21.357  17.345   8.912  0.2152 -0.1500  0.0385
41800W        W42664  22.244  15.268   8.598 -0.1353 -0.1824 -0.0668
41801W        W42665  20.814  17.443   9.648  0.0864 -0.0579  0.0805
41802W        W42666  21.252  16.952   9.329 -0.1527  0.0542  0.2122
41803W        W42667  22.279  17.804   9.466  0.1424  0.0246  0.0329
41804W        W42668  19.698  19.946  10.808 -0.2321 -0.0639 -0.1147
41805W        W42669  21.942  19.221  10.245 -0.1421  0.0898 -0.3725
41806W        W42670  19.796  13.624   6.556 -0.3309  0.2769  0.0237
41807W        W42671  19.743  17.782   7.818 -0.0347 -0.0488 -0.2242
41808W        W42672  22.224  15.828   7.282 -0.2341 -0.1109 -0.0833
41809W        W42673  22.572  17.075   9.007  0.0164  0.2637  0.1262
41810W        W42674  18.388  15.614  12.457 -0.0408  0.0389  0.0148
41811W        W42675  20.145  17.544   7.604 -0.1232  0.1269  0.1856
41812W        W42676  19.899  17.572  10.161  0.2056 -0.2576 -0.1363
41813W        W42677  21.824  19.802   8.903  0.0320 -0.0738  0.1932
41814W        W42678  20.469  17.521   8.935 -0.2516 -0.1777 -0.0051
41815W        W42679  17.838  16.103   7.457  0.2187  0.1183  0.0527
41816W        W42680  19.715  15.657   9.732 -0.2296 -0.2640  0.1008
41817W        W42681  16.156  16.967   9.999 -0.2557 -0.1285 -0.0094
41818W        W42682  18.465  17.695  10.510 -0.0458  0.0931  0.0288
41819W        W42683  19.801  15.522  10.422 -0.1037  0.0899 -0.0292
41820W        W42684  17.752  16.625  10.002  0.1811 -0.1761  0.1979
41821W        W42685  21.195  11.500  10.113 -0.2226 -0.0557 -0.0420
41822W        W42686  23.314  21.125   7.869  0.0193  0.0176  0.3381
41823W        W42687  19.857  19.102  10.157  0.0543  0.1167  0.4598
41824W        W42688  20.012  14.403   8.691  0.3639  0.3363 -0.0846
41825W        W42689  21.617  16.674  11.988  0.0898  0.1893 -0.0903
41826W        W42690  21.709  14.950   9.926 -0.1152  0.1305 -0.2035
41827W        W42691  19.816  18.128   8.684  0.0960  0.1008 -0.0216
41828W        W42692  20.655  16.606   8.487  0.1605 -0.1862  0.1771
41829W        W42693  19.779  12.919   8.862 -0.3388  0.1124  0.1987
41830W        W42694  22.637  15.212   8.926  0.1571 -0.1387 -0.1725
41831W        W42695  15.935  16.042  11.221 -0.0264  0.0384  0.0158
41832W        W42696  18.519  17.532   6.341 -0.2484  0.1273  0.0212
41833W        W42697  18.652  17.122   8.663  0.0509  0.1584  0.1304
41834W        W42698  22.121  16.539   7.271  0.0254  0.1040 -0.0612
41835W        W42699  22.090  13.914  11.685 -0.0273  0.3796  0.0968
41836W        W42700  18.002  20.551  13.665  0.0415  0.1726  0.1907
41837W        W42701  18.629  16.291   8.666 -0.0187 -0.1171 -0.0892
41838W        W42702  19.953  16.886   9.684  0.0465  0.3835  0.1073
41839W        W42703  17.686  14.278  12.246 -0.1745 -0.0818  0.2431
41840W        W42704  20.698  17.902  12.004  0.2467 -0.1459 -0.0906
41841W        W42705  19.650  16.871   8.813  0.1687  0.0295  0.3253
41842W        W42706  19.588  17.205   9.904  0.1572 -0.0085  0.2344
41843W        W42707  20.314  18.833   9.967  0.0176  0.1274 -0.0128
41844W        W42708  17.419  16.352  11.363  0.0422 -0.0903 -0.1926
41845W        W42709  22.137  17.713   8.458 -0.2211 -0.2252 -0.1693
41846W        W42710  23.177  16.576  10.751  0.2862  0.3611  0.1221
41847W        W42711  18.794  18.394   6.211 -0.1353 -0.3021 -0.4653
41848W        W42712  22.307  17.635   6.984  0.1787  0.2569  0.0638
41849W        W42713  19.192  15.197  10.309 -0.2445 -0.2094 -0.1541
41850W        W42714  20.815  14.009  10.767 -0.0406  0.2578  0.0673
41851W        W42715  18.680  16.892  12.121 -0.0354  0.0066  0.0395
41852W        W42716  19.686  15.726  12.893  0.0789 -0.1518 -0.0270
41853W        W42717  16.902  19.158   9.690 -0.2663 -0.0557  0.0466
41854W        W42718  17.697  16.115   9.853 -0.0671 -0.0120 -0.1127
41855W        W42719  19.462  18.114   9.481 -0.1070 -0.0936 -0.0664
41856W        W42720  21.780  16.164   7.313  0.0479  0.1454 -0.0168
41857W        W42721  18.810  17.885   7.783 -0.0965  0.0322  0.3677
41858W        W42722  23.085  16.535  10.247  0.2615 -0.1095  0.0460
41859W        W42723  21.158  13.722   7.344 -0.0237  0.2719 -0.0083
41860W        W42724  19.059  17.755  10.506  0.2774 -0.0186 -0.1668
41861W        W42725  23.164  15.806   9.348  0.0945  0.4483 -0.0349
41862W        W42726  19.761  14.248   6.602  0.0236  0.0448  0.0506
41863W        W42727  19.701  16.386  10.716 -0.0783  0.1014  0.0750
41864W        W42728  20.669  17.445   7.787  0.0626 -0.0129  0.0708
41865W        W42729  18.638  20.191  10.125 -0.1009  0.0261 -0.0115
41866W        W42730  19.402  16.075  11.589  0.1486  0.2449  0.0641
41867W        W42731  18.888  14.897  11.930 -0.2691 -0.0974  0.0338
41868W        W42732  18.153  15.088  12.320  0.1539 -0.0817 -0.0593
41869W        W42733  23.329  15.295   8.677 -0.0797 -0.1309 -0.0645
41870W        W42734  18.766  14.247   9.222 -0.3548  0.1375  0.0319
41871W        W42735  21.766  13.095   9.638 -0.0895  0.0325  0.3051
41872W        W42736  20.572  14.305   9.410  0.2722  0.0910  0.1130
41873W        W42737  16.514  16.781   9.243  0.0807 -0.1523 -0.0284
41874W        W42738  22.527  15.707   8.732 -0.0295 -0.0639 -0.1011
41875W        W42739  18.608  17.875   9.318  0.0159  0.2122 -0.0025
41876W        W42740  21.818  14.306   6.830 -0.1269  0.0411 -0.2586
41877W        W42741  20.824  15.132   9.244  0.2923 -0.3191  0.0157
41878W        W42742  19.141  14.221  12.309  0.1234 -0.2343  0.0920
41879W        W42743  20.551  15.640  11.456 -0.0585 -0.2164 -0.0917
41880W        W42744  18.561  15.029   8.142  0.0976 -0.2094 -0.0147
41881W        W42745  21.800  18.773  10.359  0.0125  0.1164 -0.2782
41882W        W42746  23.104  14.905   8.502 -0.1259 -0.3560  0.0422
41883W        W42747  19.641  16.665   6.958  0.0258  0.2338  0.2502
41884W        W42748  17.020  20.639  11.459  0.0734 -0.3610  0.3885
41885W        W42749  21.338  15.999  10.805 -0.1332  0.0571  0.2428
41886W        W42750  19.395  16.101  14.901 -0.1125  0.1664  0.2929
41887W        W42751  21.434  16.502   8.424 -0.0999 -0.0226  0.0621
41888W        W42752  21.385  15.176  10.415  0.3315 -0.0127 -0.3185
41889W        W42753  20.841  18.609  10.953 -0.0009 -0.1832 -0.0088
41890W        W42754  24.066  18.505   9.654 -0.0511 -0.1634  0.3288
41891W        W42755  22.708  14.375   7.753  0.0934 -0.1668 -0.0101
41892W        W42756  20.808  16.984   9.754 -0.1194  0.3296  0.1281
41893W        W42757  19.049  16.385  13.365 -0.2833 -0.1152 -0.1357
41894W        W42758  16.940  19.470  13.262  0.1227 -0.1852  0.0342
41895W        W42759  23.163  14.929   9.495  0.0845  0.0290 -0.0380
41896W        W42760  17.333  15.920   7.471 -0.2407  0.0582 -0.1331
41897W        W42761  21.310  19.343  13.066  0.1881 -0.2578 -0.1335
41898W        W42762  19.290  15.453   9.189 -0.0359 -0.3842 -0.3141
41899W        W42763  19.768  16.436   8.908 -0.2390  0.1457 -0.2059
41900W        W42764  19.630  15.223   9.493  0.0300 -0.3601 -0.1361
41901W        W42765  20.935  18.069  13.264 -0.0428  0.0563  0.2189
41902W        W42766  23.460  16.165  10.521  0.2540  0.2092 -0.2265
41903W        W42767  22.438  19.795  10.709  0.2556  0.3349 -0.2897
41904W        W42768  20.859  17.720   9.182  0.0741 -0.0497 -0.2330
41905W        W42769  19.902  16.864  11.550  0.3871 -0.3810 -0.1455
41906W        W42770  21.506  16.484  12.486  0.0488  0.1609  0.1619
41907W        W42771  17.633  14.865   9.456  0.0485 -0.0054 -0.1976
41908W        W42772  19.038  18.052   9.127 -0.2803 -0.0587 -0.0077
41909W        W42773  20.882  17.004  13.106 -0.0628 -0.1837  0.1286
41910W        W42774  18.681  18.150   8.812  0.1922 -0.1224 -0.1900
41911W        W42775  20.960  14.308   8.227 -0.1199  0.1886  0.3279
41912W        W42776  22.096  16.583  10.106 -0.3398 -0.1589  0.1712
41913W        W42777  21.698  17.668  12.922  0.3947  0.2297 -0.1137
41914W        W42778  22.000  17.516   9.743  0.3592  0.0827 -0.2082
41915W        W42779  18.643  17.023   9.737  0.3596  0.1636  0.0066
41916W        W42780  19.290  14.717  10.333  0.2222  0.0666 -0.0679
41917W        W42781  20.435  15.959   7.798 -0.1937  0.1534  0.0752
41918W        W42782  18.690  16.229  10.166 -0.0436  0.0953  0.0412
41919W        W42783  23.864  15.370   8.672 -0.0374  0.0381  0.2761
41920W        W42784  18.428  17.163   5.391 -0.0089  0.2473  0.3086
41921W        W42785  21.749  18.292  10.604 -0.0504  0.3968 -0.0353
41922W        W42786  19.295  20.332  13.530 -0.2820 -0.3194 -0.2460
41923W        W42787  22.192  16.997   9.854  0.0460  0.0528  0.1750
41924W        W42788  19.920  15.565   9.250  0.1515 -0.2151 -0.3626
41925W        W42789  19.685  15.452  10.968 -0.0058  0.1153 -0.1073
41926W        W42790  20.796  17.371  11.762 -0.1708  0.0546 -0.2508
41927W        W42791  20.698  18.682   9.469  0.3389 -0.0551  0.1512
41928W        W42792  22.176  17.875  10.598  0.0170 -0.1035 -0.1410
41929W        W42793  17.990  16.827   8.616  0.0382 -0.2935  0.2847
41930W        W42794  20.694  16.168   8.814 -0.1041  0.1253  0.1556
41931W        W42795  22.709  18.855   8.357  0.0360  0.0362 -0.0766
41932W        W42796  15.652  13.043  12.608  0.4022  0.2821  0.0602
41933W        W42797  22.632  16.610   9.280  0.2110  0.1794 -0.0704
41934W        W42798  24.271  16.681   9.843  0.1213 -0.1592 -0.1454
41935W        W42799  18.878  16.613   6.737 -0.1729 -0.2451 -0.2638
41936W        W42800  19.878  16.456  10.201 -0.1902  0.1277 -0.1721
41937W        W42801  20.681  21.636   9.044  0.1454 -0.2237  0.1753
41938W        W42802  17.818  16.596  11.560  0.2276 -0.0806  0.1889
41939W        W42803  19.893  20.336  10.983 -0.1936 -0.1034 -0.2820
41940W        W42804  20.901  16.651   9.312 -0.1425  0.0072 -0.0948
41941W        W42805  17.712  16.924   6.592 -0.1784  0.0917  0.3568
41942W        W42806  22.982  17.886  10.675 -0.2948 -0.1362  0.2506
41943W        W42807  19.689  14.252   9.558  0.0631  0.0745  0.0710
41944W        W42808  23.062  16.843   8.122  0.0614 -0.3989 -0.1415
41945W        W42809  17.490  16.841  10.967 -0.1322  0.1495 -0.1967
41946W        W42810  24.551  17.708   9.968 -0.3605 -0.0498  0.2705
41947W        W42811  22.503  16.266   7.457 -0.1235 -0.2312 -0.2452
41948W        W42812  18.521  15.694  10.697  0.4274  0.3789 -0.0361
41949W        W42813  21.117  18.316   9.823 -0.3121 -0.1948 -0.0408
41950W        W42814  22.034  16.026  10.819 -0.1224  0.2164  0.0720
41951W        W42815  18.440  12.901  10.500 -0.3234 -0.1783 -0.1191
41952W        W42816  21.684  17.175   9.619 -0.3677  0.1965 -0.1368
41953W        W42817  18.200  15.994   7.857 -0.2626  0.1805 -0.1600
41954W        W42818  18.042  16.980  11.334  0.2657 -0.3344 -0.0048
41955W        W42819  21.695  17.786  11.986  0.0395  0.1327  0.0459
41956W        W42820  20.051  15.686   7.702 -0.1518 -0.0131  0.2130
41957W        W42821  17.715  17.229   8.463 -0.2809 -0.0697 -0.0474
41958W        W42822  17.040  18.342  10.809 -0.0066  0.2987  0.0305
41959W        W42823  21.520  16.810   3.883  0.1712  0.0948 -0.0503
41960W        W42824  21.953  16.525  10.629  0.1176  0.3237 -0.1948
41961W        W42825  20.948  14.849   6.776  0.2114  0.1535 -0.0376
41962W        W42826  18.592  17.842  12.243  0.0980 -0.1725 -0.7886
41963W        W42827  22.753  14.482   9.059 -0.0783 -0.2672  0.2158
41964W        W42828  19.629  17.697   8.276  0.0904  0.0419  0.1082
41965W        W42829  18.902  15.849   8.676 -0.1981  0.0222  0.0095
41966W        W42830  22.810  15.476   7.028  0.1037 -0.0392 -0.1213
41967W        W42831  22.621  18.486   5.693  0.2133  0.0673 -0.3830
41968W        W42832  19.300  16.674  10.929 -0.1037  0.1275 -0.0473
41969W        W42833  20.556  16.127   8.237  0.1090  0.2236  0.0765
41970W        W42834  21.215  15.754   9.865  0.0831 -0.1149 -0.2768
41971W        W42835  20.482  13.228  10.148  0.1023 -0.0423 -0.1138
41972W        W42836  20.808  16.507  11.753 -0.0771 -0.4183 -0.2013
41973W        W42837  23.520  15.620   9.080 -0.0002 -0.0902  0.0039
41974W        W42838  16.587  17.073   9.652 -0.0831 -0.1492 -0.0794
41975W        W42839  18.231  17.209  10.525  0.0652 -0.1417 -0.0325
41976W        W42840  17.697  13.513  10.749 -0.2772 -0.0096 -0.1529
41977W        W42841  18.110  20.085  10.027 -0.1362 -0.2670 -0.3163
41978W        W42842  23.464  17.138   8.824 -0.0765  0.1826  0.0527
41979W        W42843  21.239  16.659   9.716 -0.1000  0.0171 -0.1214
41980W        W42844  22.141  19.439  10.687  0.0229 -0.1484  0.2485
41981W        W42845  21.968  15.241  10.439 -0.2129 -0.0576 -0.0467
41982W        W42846  21.351  12.875   9.894  0.0948  0.2178 -0.2333
41983W        W42847  21.159  16.319  10.050  0.0532 -0.2234 -0.1803
41984W        W42848  18.940  15.846  10.434  0.0163 -0.1575  0.1233
41985W        W42849  18.668  18.685  11.134 -0.0720  0.1013  0.0422
41986W        W42850  21.204  18.040  12.201  0.0198  0.2888 -0.1269
41987W        W42851  20.438  15.863   9.807  0.4405 -0.2044  0.1421
41988W        W42852  20.544  17.540  10.628  0.0594 -0.3074 -0.1808
41989W        W42853  19.718  18.078  10.109  0.3124 -0.2223  0.0436
41990W        W42854  19.348  20.514  11.251 -0.1691  0.0930  0.1221
41991W        W42855  19.060  17.603   8.312 -0.0575  0.2858  0.0660
41992W        W42856  25.044  13.936   8.078  0.1962 -0.3803 -0.1537
41993W        W42857  23.779  18.838   7.853  0.0790  0.0954 -0.2231
41994W        W42858  21.467  17.750  10.931  0.0151 -0.0161 -0.0356
41995W        W42859  19.610  17.809  10.540 -0.1872  0.1568 -0.1203
41996W        W42860  19.041  19.753   7.378  0.0957 -0.1258 -0.1883
41997W        W42861  20.488  16.015  12.453  0.1678 -0.0930  0.1956
41998W        W42862  23.532  16.767  10.340  0.1928 -0.3853  0.2184
41999W        W42863  17.605  16.836   9.400  0.1981 -0.4686  0.2711
42000W        W42864  18.994  20.955  10.408 -0.0646 -0.2480 -0.0540
42001W        W42865  22.079  15.766   9.456 -0.2217  0.1199 -0.2659
42002W        W42866  17.606  16.593  10.470  0.1514 -0.2106 -0.1066
42003W        W42867  17.804  16.452  11.068 -0.2990 -0.1423 -0.0842
42004W        W42868  19.723  16.895  10.397 -0.2102 -0.0432 -0.0153
42005W        W42869  20.717  12.973  11.032 -0.0391  0.1226  0.0758
42006W        W42870  20.835  15.908  10.108 -0.0966  0.0190  0.1101
42007W        W42871  21.275  15.595   9.353 -0.1493 -0.0097  0.0199
42008W        W42872  20.832  17.008  12.342  0.0051  0.2249  0.1900
42009W        W42873  20.890  19.934  11.982  0.1388  0.1370  0.3663
42010W        W42874  21.664  20.183  10.177  0.5201  0.1983 -0.3429
42011W        W42875  20.230  18.566   9.469 -0.0670  0.0145 -0.1842
42012W        W42876  21.955  16.680   6.780 -0.3951 -0.0210  0.1879
42013W        W42877  20.833  14.711  10.121  0.2368 -0.0290 -0.0637
42014W        W42878  20.078  13.887   8.794  0.0380 -0.1747 -0.1910
42015W        W42879  20.235  18.370  10.840 -0.2309  0.0476 -0.1876
42016W        W42880  19.258  13.253   9.276  0.0146 -0.3295 -0.0732
42017W        W42881  22.427  17.835  11.393 -0.0489 -0.0064 -0.0827
42018W        W42882  15.841  18.065  11.710  0.0032  0.2381 -0.0862
42019W        W42883  19.979  16.829   9.172 -0.1433  0.0707 -0.1483
42020W        W42884  18.344  17.970  12.648  0.0190  0.0223 -0.2132
42021W        W42885  18.378  16.698   8.885  0.1006 -0.1177  0.0108
42022W        W42886  18.044  15.633   9.162 -0.0250 -0.2256  0.1086
42023W        W42887  18.938  16.623   9.576  0.0000  0.0169  0.0267
42024W        W42888  19.054  15.892   9.218  0.0534 -0.0328  0.0678
42025W        W42889  21.663  15.935   9.252 -0.0943  0.1691  0.0428
42026W        W42890  24.594  13.576  10.937 -0.1761  0.1748 -0.0127
42027W        W42891  24.174  19.185   7.303  0.1325  0.3213 -0.1610
42028W        W42892  23.069  17.026  10.349 -0.1538 -0.0535  0.1045
42029W        W42893  20.305  17.916   7.938  0.1885  0.0837  0.0337
42030W        W42894  22.461  15.730   8.234  0.1102  0.2309  0.0047
42031W        W42895  15.833  18.143  11.082  0.4306  0.1856 -0.1969
42032W        W42896  20.806  16.316  10.409 -0.0290 -0.1653 -0.1542
42033W        W42897  17.831  16.544  12.599 -0.2435 -0.0898 -0.0214
42034W        W42898  17.744  15.185   8.108 -0.1274 -0.0900  0.0008
42035W        W42899  18.263  17.091   9.122  0.0408 -0.0525  0.0628
42036W        W42900  18.736  13.551   9.906  0.0346 -0.2482 -0.0783
42037W        W42901  18.722  20.347  12.172 -0.0514 -0.0387  0.4180
42038W        W42902  22.126  15.520   9.041  0.0659 -0.0537 -0.1229
42039W        W42903  21.223  18.077  11.379 -0.1582 -0.0917 -0.1463
42040W        W42904  19.830  17.370  10.603 -0.0901 -0.1409 -0.1296
42041W        W42905  22.315  19.765  11.743 -0.0079 -0.2736  0.2090
42042W        W42906  17.452  17.730  11.068 -0.1471  0.0388 -0.1625
42043W        W42907  19.983  14.907  10.969  0.4017  0.0765 -0.1608
42044W        W42908  22.193  13.629  11.243 -0.1588  0.2640  0.1257
42045W        W42909  20.693  17.574   6.741 -0.1431  0.2103 -0.0467
42046W        W42910  23.155  16.948   7.228 -0.2721 -0.0928  0.0931
42047W        W42911  18.430  16.614   9.419 -0.2921 -0.1350 -0.5765
42048W        W42912  20.321  17.101  11.496  0.4574 -0.0028  0.0530
42049W        W42913  22.156  18.114   7.054 -0.0853  0.3356 -0.0742
42050W        W42914  19.837  14.713   9.279 -0.1129  0.2866 -0.1073
42051W        W42915  17.664  15.769  11.560  0.3177  0.0486 -0.0488
42052W        W42916  21.575  17.694  11.518  0.0122 -0.0755  0.1900
42053W        W42917  21.427  13.353   8.629  0.1283  0.1727 -0.1502
42054W        W42918  19.191  16.153  10.058 -0.0447 -0.0282 -0.0645
42055W        W42919  21.263  16.704   7.748 -0.0233 -0.0436  0.0470
42056W        W42920  18.882  16.701   8.815 -0.0530  0.1988 -0.1097
42057W        W42921  16.946  16.182  11.026 -0.0005 -0.0103 -0.1750
42058W        W42922  21.206  16.007   9.083 -0.1954  0.0505  0.1607
42059W        W42923  21.859  19.228  11.081  0.1552 -0.1818  0.0835
42060W        W42924  21.552  16.539  10.912 -0.0033 -0.1012 -0.0103
42061W        W42925  20.747  17.669   8.254 -0.1141  0.2655  0.0871
42062W        W42926  18.992  20.685   9.157 -0.3267  0.0478  0.0734
42063W        W42927  17.638  17.514  11.923  0.0143  0.0233 -0.4610
42064W        W42928  18.348  18.119  10.182  0.0086  0.0132  0.1326
42065W        W42929  23.479  19.627   9.000 -0.0423  0.1943 -0.0136
42066W        W42930  18.571  15.364  11.114 -0.3127  0.2731  0.4061
42067W        W42931  22.130  16.020   8.964 -0.0753 -0.0450  0.1341
42068W        W42932  23.256  16.374   8.227  0.1364 -0.5006 -0.1788
42069W        W42933  17.831  17.122  10.226  0.0148  0.1007 -0.1383
42070W        W42934  18.403  15.537  14.761 -0.0063 -0.2195  0.2251
42071W        W42935  20.010  16.134   7.413 -0.3054  0.3200  0.0625
42072W        W42936  22.553  17.533   9.710  0.0001  0.2293 -0.0649
42073W        W42937  23.109  20.177   6.965  0.2273 -0.0284  0.0915
42074W        W42938  21.076  16.967   8.629  0.1156 -0.0300  0.0040
42075W        W42939  16.690  18.151  12.616  0.1950 -0.0146 -0.4809
42076W        W42940  18.530  16.982  12.595 -0.0203 -0.1453 -0.0040
42077W        W42941  22.139  18.277  10.213  0.2253  0.2536  0.0439
42078W        W42942  18.470  16.638  15.194  0.1231 -0.0810  0.0010
42079W        W42943  22.880  16.917  10.948  0.6795 -0.0686  0.1007
42080W        W42944  21.304  15.582  12.491  0.0269 -0.0727  0.1617
42081W        W42945  20.782  14.750  11.980 -0.0595  0.1616 -0.0575
42082W        W42946  19.634  17.723  12.924 -0.1046 -0.3883  0.2199
42083W        W42947  18.252  16.391  16.991 -0.5195  0.3705 -0.3840
42084W        W42948  16.176  16.000  17.083 -0.0877  0.0325 -0.0704
42085W        W42949  20.588  16.128  13.332 -0.0972 -0.1212  0.1056
42086W        W42950  21.824  11.731  11.240 -0.0045  0.1872 -0.1580
42087W        W42951  22.060  12.666  13.108 -0.0232 -0.0789  0.2055
42088W        W42952  21.096  16.590  14.207 -0.1399 -0.0542  0.0217
42089W        W42953  21.308  12.673  14.308 -0.0872 -0.3796  0.0745
42090W        W42954  19.329  16.437  15.748 -0.1874 -0.0332  0.1281
42091W        W42955  20.334  16.764  11.156  0.2856  0.1875  0.1112
42092W        W42956  19.091  15.768  12.742  0.1021  0.2116  0.1839
42093W        W42957  16.161  17.186  13.055  0.0012  0.0528  0.2165
42094W        W42958  20.528  15.117  15.249 -0.2031  0.0526 -0.0663
42095W        W42959  24.462  19.473  12.926 -0.0231 -0.0752 -0.0089
42096W        W42960  20.726  14.862  14.068 -0.2001 -0.3506  0.0645
42097W        W42961  20.155  18.246  11.455  0.1959 -0.0842 -0.0075
42098W        W42962  19.606  15.213  13.058  0.1240  0.1379 -0.4524
42099W        W42963  18.928  15.626  12.273  0.1616  0.2448  0.1897
42100W        W42964  19.698  16.315  16.247  0.1463  0.1284  0.0888
42101W        W42965  20.472  19.780  16.231 -0.2293 -0.1799  0.0884
42102W        W42966  16.114  17.940  13.825 -0.0040  0.0740  0.1936
42103W        W42967  20.718  19.174  12.386 -0.0977  0.0605  0.0182
42104W        W42968  20.856  14.924  11.015  0.2752  0.0400  0.4657
42105W        W42969  20.263  16.916  13.844 -0.1992 -0.1216 -0.1631
42106W        W42970  21.248  16.721  13.762 -0.2603  0.1920 -0.1415
42107W        W42971  19.454  18.055  14.540 -0.0499  0.0401  0.2026
42108W        W42972  19.513  12.204  13.576 -0.0861 -0.0649 -0.0173
42109W        W42973  17.346  17.238  13.433  0.1187 -0.0344 -0.0074
42110W        W42974  18.490  17.046  14.803  0.1624  0.3746 -0.0072
42111W        W42975  20.804  15.624  12.393  0.2648 -0.0056 -0.1016
42112W        W42976  20.442  19.290  11.291  0.1818 -0.1218  0.2381
42113W        W42977  20.027  16.856  13.258  0.3508 -0.0708  0.2306
42114W        W42978  16.652  14.775  12.116  0.1181 -0.3189  0.0161
42115W        W42979  21.471  16.451   9.247  0.1713 -0.1610  0.0618
42116W        W42980  20.669  16.949  14.822  0.2483  0.2100  0.0327
42117W        W42981  19.801  19.877  14.518 -0.0757 -0.0111  0.0039
42118W        W42982  18.144  16.883  11.792 -0.2035 -0.2024  0.1294
42119W        W42983  19.008  19.114  10.449  0.0675 -0.0418  0.0847
42120W        W42984  18.727  17.387  13.130  0.0098 -0.1084 -0.0269
42121W        W42985  19.197  13.862  14.018 -0.0262 -0.2488 -0.1315
42122W        W42986  19.043  13.115  14.930  0.0208  0.0899 -0.2599
42123W        W42987  20.321  17.151   9.291 -0.1424  0.1796  0.5998
42124W        W42988  20.460  15.943  13.772  0.2809  0.4223  0.2677
42125W        W42989  19.103  17.886  12.559 -0.0829 -0.1313  0.0059
42126W        W42990  18.389  15.129  15.677  0.0993  0.1535 -0.0590
42127W        W42991  21.619  15.258  17.058  0.0083  0.2400 -0.0730
42128W        W42992  22.553  15.329  10.601 -0.1860  0.2352  0.1099
42129W        W42993  18.946  14.943  13.731  0.0165 -0.0547  0.0237
42130W        W42994  17.845  16.368  14.652 -0.1999  0.2430 -0.1826
42131W        W42995  18.520  13.413  14.850  0.2670  0.3394  0.0218
42132W        W42996  20.362  13.467  15.514  0.3332  0.0818 -0.1857
42133W        W42997  22.829  18.936  13.724  0.0277 -0.2854  0.2449
42134W        W42998  18.232  16.432  11.786 -0.0689  0.1323 -0.0319
42135W        W42999  21.845  16.682   9.657  0.0741  0.0322 -0.2563
42136W        W43000  17.650  17.838  14.916 -0.0464 -0.0409 -0.0576
42137W        W43001  18.541  15.754  17.656  0.1343 -0.0282 -0.1176
42138W        W43002  19.967  17.587  14.941  0.0503 -0.1568 -0.3082
42139W        W43003  20.191  16.802  14.814 -0.1845 -0.0082  0.0707
42140W        W43004  19.883  14.341  13.518  0.2468 -0.1651  0.1637
42141W        W43005  17.276  15.406  12.367 -0.0310 -0.0527 -0.2496
42142W        W43006  17.500  13.641   9.025 -0.0778 -0.2382  0.0162
42143W        W43007  18.702  16.756  13.007  0.0698 -0.1118 -0.2046
42144W        W43008  22.195  18.830  11.194  0.0068  0.0934 -0.0728
42145W        W43009  20.756  17.321  14.507 -0.0900 -0.3353 -0.1870
42146W        W43010  22.084  15.599  14.106  0.0711  0.1381  0.1492
42147W        W43011  20.380  17.713  14.464 -0.0630  0.1339 -0.2278
42148W        W43012  19.692  14.962  14.949 -0.3404  0.0191  0.0424
42149W        W43013  22.771  19.647  14.427  0.0004  0.2862  0.1260
42150W        W43014  22.148  18.877  15.499 -0.2042  0.0468  0.1626
42151W        W43015  16.586  17.586  13.447 -0.0732 -0.3170  0.0214
42152W        W43016  17.643  17.190  14.204  0.0532  0.0999 -0.3154
42153W        W43017  23.285  17.313  11.354 -0.1484 -0.1672 -0.0179
42154W        W43018  24.047  16.998  11.593  0.4108  0.3832  0.0214
42155W        W43019  19.598  14.736  14.488  0.0136  0.1359  0.0210
42156W        W43020  19.811  16.074  13.968 -0.0371  0.1528  0.0164
42157W        W43021  19.016  12.502  12.687 -0.4213  0.1065 -0.3446
42158W        W43022  20.902  13.317  12.553 -0.3096 -0.1350 -0.1617
42159W        W43023  19.422  17.500  15.013  0.2913 -0.0011  0.1397
42160W        W43024  17.278  15.284  11.214  0.0131 -0.3437  0.2523
42161W        W43025  20.467  21.109  14.859 -0.0646  0.2118 -0.0918
42162W        W43026  19.631  12.788  15.362 -0.0973  0.0947  0.0932
42163W        W43027  21.628  14.235  15.561  0.1390 -0.1413 -0.4903
42164W        W43028  20.220  16.526  16.252 -0.0022  0.0164 -0.3538
42165W        W43029  20.384  17.211  13.263  0.2022  0.1455 -0.4170
42166W        W43030  20.746  13.360  15.143  0.0955  0.2725  0.0265
42167W        W43031  19.212  20.077  13.075  0.2041 -0.1879  0.0404
42168W        W43032  20.196  14.185  12.224  0.1929  0.0516  0.0574
42169W        W43033  18.855  15.878  14.665  0.2622  0.1103  0.0749
42170W        W43034  19.115  15.647  15.773  0.0933  0.1464  0.3736
42171W        W43035  22.136  14.166  11.181  0.0143 -0.0596  0.3168
42172W        W43036  20.503  21.840  16.640 -0.3256  0.3897 -0.0606
42173W        W43037  20.724  15.835  14.626 -0.0403  0.0481 -0.2649
42174W        W43038  20.724  14.155  15.314 -0.3961  0.1152  0.1832
42175W        W43039  25.273  16.745  11.899 -0.0343  0.4040  0.1958
42176W        W43040  17.996  15.428  14.492 -0.0632 -0.2205 -0.0117
42177W        W43041  20.381  15.725  10.523  0.3047  0.1891  0.0484
42178W        W43042  19.628  18.139  11.834 -0.1102 -0.4320 -0.0067
42179W        W43043  21.771  14.895  14.608  0.2748 -0.0681  0.2734
42180W        W43044  18.727  12.253  15.104  0.0083  0.1880 -0.2473
42181W        W43045  20.454  17.756  12.472 -0.0765  0.2034 -0.1729
42182W        W43046  22.621  14.242  17.087 -0.0315 -0.0910 -0.2060
42183W        W43047  21.359  10.403  13.195 -0.0896  0.2703 -0.0856
42184W        W43048  18.998  13.468  14.221  0.0430  0.0229  0.0259
42185W        W43049  18.578  15.771  12.910  0.2380 -0.0328 -0.0755
42186W        W43050  21.103  16.982  11.941  0.1039  0.3126 -0.5552
42187W        W43051  19.998  14.531  15.538 -0.0311 -0.3631 -0.1550
42188W        W43052  21.878  18.642  14.637  0.0126  0.0106  0.1663
42189W        W43053  21.949  15.109  12.729 -0.1295 -0.2310 -0.2512
42190W        W43054  21.318  16.341  11.769  0.1915  0.0010  0.0554
42191W        W43055  22.828  14.370  14.223  0.1049  0.0952 -0.0975
42192W        W43056  21.601  15.966  12.353  0.1496  0.1787 -0.2566
42193W        W43057  20.458  17.711  14.978 -0.2012 -0.0001  0.1293
42194W        W43058  21.483  14.088  14.323 -0.0603  0.1522  0.0530
42195W        W43059  20.526  16.376  10.849  0.0943 -0.0402 -0.1083
42196W        W43060  21.048  20.227   9.696 -0.1800  0.1977 -0.1600
42197W        W43061  20.473  16.718  13.390  0.0414  0.0081  0.1850
42198W        W43062  19.896  14.261  13.043  0.1257  0.2409 -0.1446
42199W        W43063  21.142  16.765  12.749  0.4216  0.0670  0.0108
42200W        W43064  21.174  17.592  14.450  0.1562  0.2478 -0.2365
42201W        W43065  18.642  12.440  14.456 -0.1274  0.2656 -0.0279
42202W        W43066  20.113  17.409  11.122 -0.2680 -0.0484  0.0655
42203W        W43067  20.717  17.123  13.705  0.0034  0.3311  0.0893
42204W        W43068  19.338  17.413  12.407  0.1573  0.1233 -0.3218
42205W        W43069  19.844  18.414  14.524 -0.0153  0.0805  0.0304
42206W        W43070  19.967  15.053  14.276 -0.0466 -0.0295 -0.1246
42207W        W43071  18.100  17.226  14.006 -0.0087 -0.1465 -0.0325
42208W        W43072  21.698  13.491  11.023 -0.2842  0.1673 -0.1394
42209W        W43073  19.095  13.739  13.365  0.0773 -0.0677 -0.0059
42210W        W43074  18.781  14.947  15.976  0.0584 -0.0638  0.0559
42211W        W43075  20.132  16.674  10.608  0.0660  0.0037 -0.1021
42212W        W43076  19.189  15.643  15.082 -0.2799  0.0532  0.0152
42213W        W43077  21.248  18.177  10.759 -0.1141  0.1306  0.1611
42214W        W43078  21.746  17.371  13.394  0.0111 -0.1914  0.0931
42215W        W43079  17.794  14.220  14.996  0.0132  0.2223  0.1609
42216W        W43080  19.274  16.196  17.289  0.0836 -0.0807  0.3377
42217W        W43081  18.976  18.743  12.138  0.0441  0.4283  0.2303
42218W        W43082  17.789  15.995  12.655  0.3791 -0.3383 -0.1836
42219W        W43083  20.130  14.763  16.119  0.3468  0.0239  0.3666
42220W        W43084  21.731  16.560  15.722 -0.0345 -0.1834  0.1293
42221W        W43085  20.035  13.038  13.813 -0.0268 -0.3248 -0.1363
42222W        W43086  21.295  18.132  14.424 -0.1473 -0.1781 -0.3659
42223W        W43087  20.546  18.218  12.357 -0.4462  0.1038  0.0094
42224W        W43088  21.058  20.634  14.155  0.0716 -0.0139  0.1749
42225W        W43089  22.375  19.095  16.019  0.1310 -0.0136  0.0285
42226W        W43090  18.332  13.475  10.872 -0.1549  0.4345  0.2180
42227W        W43091  19.551  18.404  15.624  0.0420 -0.1039  0.3420
42228W        W43092  21.642  13.064  11.326  0.0237  0.2665 -0.0853
42229W        W43093  19.387  17.030  14.664 -0.2042 -0.0202  0.0048
42230W        W43094  20.677  13.255  13.114  0.0918 -0.1393 -0.1535
42231W        W43095  19.680  16.112  14.445  0.3673 -0.0954  0.2669
42232W        W43096  21.010  16.745  10.219 -0.2959  0.0686 -0.0589
42233W        W43097  21.777  17.002  10.883 -0.3015  0.2943  0.1625
42234W        W43098  19.523  14.545  10.746  0.0250 -0.2016 -0.2033
42235W        W43099  20.087  14.557  14.786  0.0952 -0.1590 -0.2263
42236W        W43100  18.517  18.075  13.606 -0.3955  0.1767  0.1919
42237W        W43101  21.278  17.339  12.971 -0.1770  0.1624  0.0175
42238W        W43102  17.973  14.524  14.569 -0.1018  0.0775 -0.0501
42239W        W43103  21.822  11.641  14.690  0.1555 -0.0591 -0.1093
42240W        W43104  20.142  17.912  12.176 -0.1323  0.3529 -0.2423
42241W        W43105  21.112  13.155  14.895  0.1828  0.0173  0.1461
42242W        W43106  17.769  19.409  12.946 -0.0255 -0.0694  0.2318
42243W        W43107  22.412  18.928  13.358  0.1155 -0.1375  0.1555
42244W        W43108  20.249  18.107  10.080 -0.1640  0.1455 -0.0875
42245W        W43109  21.585  15.939  13.140  0.0758  0.0406 -0.0333
42246W        W43110  20.740  18.677  12.062  0.2548  0.2825 -0.0346
42247W        W43111  19.475  19.584  13.664  0.1597  0.0889 -0.0693
42248W        W43112  21.921  16.257  12.631  0.1809  0.0484  0.0276
42249W        W43113  22.009  14.508  13.122 -0.1453  0.0861 -0.1395
42250W        W43114  21.416  17.356  10.691  0.1218 -0.1872 -0.1559
42251W        W43115  18.047  16.832  14.904 -0.0404  0.1752  0.0453
42252W        W43116  20.026  18.438  14.054  0.2190  0.1373 -0.2773
42253W        W43117  17.804  15.858  13.663 -0.2378  0.0174 -0.0282
42254W        W43118  19.905  15.403  13.454  0.1081 -0.0839 -0.1667
42255W        W43119  16.880  18.578  12.771 -0.3601 -0.3236 -0.0697
42256W        W43120  22.173  18.058  12.007  0.1677  0.1187 -0.0047
42257W        W43121  22.616  16.696  10.581  0.0291  0.0001 -0.2383
42258W        W43122  20.807  15.156  13.616  0.2178 -0.1564 -0.1845
42259W        W43123  21.555  16.859  10.073 -0.1019 -0.1085 -0.3937
42260W        W43124  20.609  16.813  16.406  0.2599  0.3251  0.3657
42261W        W43125  20.856  14.678  14.557  0.2109 -0.0182  0.0317
42262W        W43126  19.239  15.206  11.604  0.0165  0.1196 -0.3199
42263W        W43127  21.142  16.142  13.244 -0.2637  0.2054  0.0649
42264W        W43128  15.293  16.831  13.247 -0.2333  0.0261  0.0712
42265W        W43129  20.222  20.676  13.728  0.1269 -0.4204  0.0325
42266W        W43130  20.054  21.988  12.359 -0.0103  0.0108 -0.2924
42267W        W43131  16.087  14.768  15.484 -0.0156  0.0408  0.0618
42268W        W43132  18.121  16.834  16.879  0.0966  0.2488 -0.0601
42269W        W43133  18.087  13.148  12.137  0.1305  0.0078  0.1513
42270W        W43134  19.589  15.974   9.308 -0.0081  0.2885  0.1943
42271W        W43135  18.627  16.364  12.099 -0.1156  0.0321  0.1389
42272W        W43136  18.796  15.759  15.343  0.2465 -0.0262  0.0719
42273W        W43137  20.975  13.163  14.428 -0.0494  0.0549 -0.0376
42274W        W43138  19.144  13.227  13.284 -0.0334 -0.1272  0.3258
42275W        W43139  17.972  15.602  10.580  0.1163  0.0599  0.1049
42276W        W43140  20.866  15.041  10.482 -0.0819  0.1239  0.0479
42277W        W43141  19.049  16.569  14.071 -0.2356 -0.2013  0.1095
42278W        W43142  20.079  14.771  11.462  0.1287 -0.4840  0.0110
42279W        W43143  18.160  16.244  14.226 -0.2763  0.0389  0.0502
42280W        W43144  21.330  14.095  15.123 -0.2380 -0.0691 -0.0929
42281W        W43145  19.831  16.765  16.029 -0.0991  0.1438 -0.2700
42282W        W43146  20.178  15.574  15.223 -0.2774 -0.1597 -0.3766
42283W        W43147  19.638  17.567  11.129  0.1566 -0.1074  0.3411
42284W        W43148  19.250  14.622  14.991 -0.1122  0.1416  0.1015
42285W        W43149  20.396  16.290  17.274  0.2730  0.0541 -0.0633
42286W        W43150  20.370  15.621  11.941  0.4608 -0.1405 -0.1398
42287W        W43151  21.244  17.520  16.010  0.0943 -0.0076  0.0676
42288W        W43152  20.462  13.006  14.479 -0.1599 -0.4318  0.0389
42289W        W43153  20.925  17.618  13.522  0.2574 -0.1405  0.1109
42290W        W43154  23.034  16.813   8.993 -0.0203  0.0491 -0.1437
42291W        W43155  21.796  18.924  11.646 -0.2776 -0.2691 -0.2974
42292W        W43156  19.860  17.805   9.658 -0.1165  0.2452 -0.0594
42293W        W43157  21.556  16.944  14.373 -0.0931  0.1418 -0.3680
42294W        W43158  19.160  18.626  15.532 -0.1608 -0.2764 -0.0225
42295W        W43159  21.566  15.133  15.201 -0.0087  0.0541 -0.1108
42296W        W43160  22.125  15.901  17.414  0.0984  0.1285 -0.1919
42297W        W43161  20.480  18.073  16.750 -0.2954  0.1051 -0.0374
42298W        W43162  19.739  14.583  10.014  0.1009 -0.2572  0.1332
42299W        W43163  20.967  17.410  12.590  0.1006 -0.1503  0.1450
42300W        W43164  19.074  14.121  14.932  0.1703  0.3248  0.1022
42301W        W43165  19.029  19.452  14.506  0.1390  0.1100 -0.3293
42302W        W43166  19.101  13.295  12.096 -0.1461  0.2236 -0.3148
42303W        W43167  21.446  21.520  10.694  0.0298 -0.0418 -0.0154
42304W        W43168  21.126  20.408  14.588  0.0952 -0.0198  0.0934
42305W        W43169  20.128  14.812  15.185  0.1502 -0.0310  0.3475
42306W        W43170  19.880  19.287  14.879  0.1532 -0.0703 -0.1383
42307W        W43171  17.815  16.562  12.092  0.0226  0.0498 -0.1746
42308W        W43172  19.922  18.530  10.135 -0.1603 -0.2018 -0.0937
42309W        W43173  19.452  14.266  13.914  0.0817  0.0946 -0.0572
42310W        W43174  23.336  18.804  13.930  0.0828 -0.2913  0.0355
42311W        W43175  21.315  18.062  10.264 -0.0926 -0.1082  0.1746
42312W        W43176  20.445  16.192  14.852  0.2686  0.0983 -0.0820
42313W        W43177  20.026  17.208  12.906 -0.2725 -0.5064 -0.0841
42314W        W43178  20.733  17.347  11.169  0.1025  0.2994 -0.0583
42315W        W43179  20.068  16.688  12.063  0.0815 -0.1180 -0.1356
42316W        W43180  17.239  15.802  16.417 -0.0730  0.1615  0.1662
42317W        W43181  18.086  16.570  16.422  0.1349 -0.0492  0.2589
42318W        W43182  21.194  15.348  13.828  0.0425  0.1112 -0.0518
42319W        W43183  21.697  16.985  13.751 -0.0188  0.2464  0.0531
42320W        W43184  20.048  15.429  11.348  0.0505 -0.0063 -0.1864
42321W        W43185  21.763  16.376  14.900 -0.0490  0.3503 -0.1514
42322W        W43186  19.992  15.783  15.674  0.1747 -0.0250  0.4341
42323W        W43187  20.132  19.930   9.759 -0.0737  0.0087  0.1711
42324W        W43188  17.509  14.942  15.650 -0.0484  0.0094  0.0698
42325W        W43189  20.115  16.158  15.267  0.0399  0.0195 -0.1565
42326W        W43190  19.762  16.733  14.506  0.0677 -0.0719 -0.0421
42327W        W43191  19.198  18.066  15.398  0.1013 -0.0443 -0.0255
42328W        W43192  20.737  16.502  14.562  0.0530  0.0836  0.0351
42329W        W43193  17.746  15.326  13.076 -0.1427 -0.0895  0.0069
42330W        W43194  22.874  17.445  13.561 -0.1252  0.0743 -0.2128
42331W        W43195  20.876  12.693  10.259  0.0307 -0.0356 -0.1617
42332W        W43196  17.636  14.531  13.628  0.0389  0.1027 -0.1039
42333W        W43197  21.366  15.282  13.344 -0.1079  0.2716  0.0424
42334W        W43198  19.574  15.606  11.449  0.1013 -0.2959  0.0317
42335W        W43199  21.792  14.951  13.242  0.0362 -0.0106 -0.1411
42336W        W43200  21.850  15.812  13.580  0.0229 -0.3335  0.1299
42337W        W43201  21.071  17.705  15.262 -0.0680 -0.0685  0.0198
42338W        W43202  19.661  15.198  13.940  0.2836  0.3788 -0.0239
42339W        W43203  21.655  15.505  12.829  0.1646 -0.0101 -0.2143
42340W        W43204  18.283  17.583  16.741  0.1412  0.0578  0.2003
42341W        W43205  19.933  15.720  11.815  0.1549  0.0150  0.2695
42342W        W43206  19.217  19.503  10.674  0.0160  0.2179  0.2508
42343W        W43207  19.432  16.409  13.637  0.0391 -0.2031  0.0222
42344W        W43208  22.750  14.296  11.203  0.0387 -0.1706 -0.1312
42345W        W43209  17.982  16.521   9.530 -0.0338 -0.0862 -0.0331
42346W        W43210  20.243  17.150  15.226 -0.3605 -0.0708 -0.1678
42347W        W43211  18.569  16.509  16.589  0.2085  0.3627 -0.0919
42348W        W43212  19.848  15.263  15.378 -0.2569 -0.1412  0.5257
42349W        W43213  18.650  17.023  13.515  0.0138 -0.1437 -0.0041
42350W        W43214  22.901  12.110  17.042 -0.1116 -0.1885  0.1141
42351W        W43215  19.515  16.142  16.698  0.0574  0.3757 -0.1936
42352W        W43216  19.166  15.520  13.207  0.0421  0.1861  0.3272
42353W        W43217  20.647  14.636  12.482 -0.0579 -0.0735  0.1106
42354W        W43218  19.011  17.583  15.246  0.1302  0.1650 -0.0442
42355W        W43219  19.112  17.543  13.955 -0.0324  0.2293  0.0923
42356W        W43220  21.083  12.697   7.320 -0.0381  0.2597  0.0106
42357W        W43221  17.536  16.068  14.963 -0.0496 -0.3078 -0.0729
42358W        W43222  18.366  19.181  13.678 -0.2119  0.2282 -0.1717
42359W        W43223  21.906  16.476   8.664 -0.0051 -0.3289 -0.3682
42360W        W43224  22.820  15.125  16.782 -0.0878  0.2297 -0.2950
42361W        W43225  21.210  18.895  12.872  0.1573  0.1187 -0.0988
42362W        W43226  18.944  17.276  14.794  0.4871 -0.3089 -0.0121
42363W        W43227  19.409  14.809  12.693  0.1881  0.1797 -0.1318
42364W        W43228  17.555  18.112  12.014  0.2618  0.1166 -0.0588
42365W        W43229  16.729  17.944  13.101 -0.2686  0.1347 -0.0650
42366W        W43230  18.649  16.265  10.883 -0.2250 -0.0842  0.0149
42367W        W43231  18.773  16.348  15.520  0.0907  0.0734  0.1467
42368W        W43232  19.340  16.011  13.093  0.2329 -0.0230  0.0413
42369W        W43233  17.702  15.791  13.161  0.3366  0.0664  0.0250
42370W        W43234  20.544  16.484  12.242  0.0173 -0.1433  0.0768
42371W        W43235  19.902  15.964  11.345 -0.0688 -0.2620 -0.2803
42372W        W43236  22.891  18.614  15.224  0.0360 -0.0096 -0.0137
42373W        W43237  19.653  17.906  15.622  0.0587  0.0692 -0.0772
42374W        W43238  19.227  15.960  13.672  0.2356  0.0152  0.1707
42375W        W43239  20.543  16.928  11.940 -0.1936  0.0929  0.0975
42376W        W43240  17.849  15.719  15.470 -0.0142 -0.3004 -0.0101
42377W        W43241  19.598  17.969  15.124 -0.0510 -0.3770  0.3630
42378W        W43242  23.983  17.884  11.132  0.0947  0.1537  0.0806
42379W        W43243  22.540  18.627  11.464  0.1497 -0.1767 -0.0267
42380W        W43244  19.674  16.991  12.287 -0.1166 -0.0118 -0.0829
42381W        W43245  20.638  16.388  16.732  0.0735  0.4010 -0.2117
42382W        W43246  19.631  13.526  13.472 -0.2004  0.3980 -0.1750
42383W        W43247  22.290  15.214  11.281 -0.0476  0.1279  0.1423
42384W        W43248  18.113  15.658  12.889  0.0466  0.1461 -0.0773
42385W        W43249  18.811  14.428  14.600 -0.0729 -0.0069  0.0383
42386W        W43250  17.426  17.250  15.571 -0.2349  0.1344  0.0437
42387W        W43251  20.069  15.592  13.850 -0.0383  0.1881 -0.0463
42388W        W43252  19.941  16.341  15.838 -0.1381 -0.0494 -0.1567
42389W        W43253  20.799  19.733  12.577  0.3389  0.1734  0.1436
42390W        W43254  17.838  18.071  15.575  0.2353 -0.0341 -0.1222
42391W        W43255  21.004  14.946  12.451 -0.0597  0.0152  0.1493
42392W        W43256  19.937  14.051  15.518 -0.2688  0.1969  0.1888
42393W        W43257  19.414  18.552  16.097  0.1950 -0.2801 -0.0523
42394W        W43258  22.258  13.705  15.085 -0.1885  0.2810  0.1480
42395W        W43259  15.636  19.413  13.757  0.1202  0.1722  0.1689
42396W        W43260  21.489  20.325  10.642 -0.1041  0.0073  0.0439
42397W        W43261  18.362  18.416  15.327 -0.0232  0.1193  0.1842
42398W        W43262  22.529  16.075   9.502 -0.4025  0.2401 -0.0409
42399W        W43263  21.625  17.353  14.642 -0.3767  0.2243 -0.3630
42400W        W43264  17.169  18.608  13.202 -0.2110 -0.0790 -0.1168
42401W        W43265  19.472  13.504  15.542  0.2750  0.1157 -0.2348
42402W        W43266  19.220  16.197  10.687  0.0842  0.1056 -0.1436
42403W        W43267  22.838  15.472   8.410  0.1756 -0.3729  0.1368
42404W        W43268  19.165  14.954  13.067  0.5018 -0.1467  0.1046
42405W        W43269  16.370  13.584  14.832  0.0744 -0.0157 -0.2442
42406W        W43270  20.294  12.697  10.978  0.0922 -0.1269 -0.2068
42407W        W43271  23.385  16.632  13.222 -0.1610 -0.0528 -0.0907
42408W        W43272  19.052  17.369  13.489 -0.3089 -0.0621 -0.2056
42409W        W43273  21.729  17.420  15.700  0.0463 -0.1687 -0.3194
42410W        W43274  18.562  18.892  14.873 -0.0160 -0.0871 -0.1052
42411W        W43275  19.575  15.724  13.441  0.3761  0.0957 -0.2484
42412W        W43276  22.533  15.887  12.686  0.2465 -0.1878 -0.2819
42413W        W43277  18.806  15.318  12.917 -0.1346  0.1892  0.0584
42414W        W43278  21.634  16.346   9.944  0.0746 -0.1718  0.3605
42415W        W43279  19.744  16.251  13.199  0.2080  0.0108  0.2089
42416W        W43280  18.827  16.866  15.693  0.0523  0.2003  0.1486
42417W        W43281  19.590  14.866  15.510 -0.0605  0.1571  0.2432
42418W        W43282  20.948  18.281  11.746  0.1914  0.1077 -0.2310
42419W        W43283  18.281  19.103  12.894 -0.0432  0.1022  0.0818
42420W        W43284  17.809  18.184  14.047  0.1478 -0.0162 -0.0621
42421W        W43285  18.950  12.940  12.461  0.0831 -0.1762 -0.1706
42422W        W43286  20.379  15.380  14.402  0.2050 -0.0391  0.2416
42423W        W43287  20.551  18.331  15.011 -0.1784  0.0379 -0.4821
42424W        W43288  20.272  15.904  14.289 -0.0845 -0.1705  0.0859
42425W        W43289  21.796  16.870  12.378  0.1374 -0.0634  0.0683
42426W        W43290  20.816  13.611  14.701  0.3818  0.1465  0.1363
42427W        W43291  17.716  17.363  12.539 -0.1967  0.0304 -0.2937
42428W        W43292  20.435  18.574  10.379 -0.1791 -0.0865 -0.1788
42429W        W43293  18.871  16.488  16.040  0.2434  0.3030  0.0958
42430W        W43294  20.330  14.487  11.833 -0.1411 -0.0918 -0.0104
42431W        W43295  20.230  21.232  13.592  0.0709  0.0284 -0.0998
42432W        W43296  20.689  19.664  14.598 -0.3618  0.2801  0.1333
42433W        W43297  16.337  11.715  15.144 -0.2689 -0.6008  0.2577
42434W        W43298  20.126  15.983  12.911  0.1522 -0.0032 -0.0574
42435W        W43299  16.885  17.688  12.636  0.0542 -0.1886 -0.1128
42436W        W43300  20.324  14.150  15.796  0.1351  0.1377 -0.2956
42437W        W43301  18.259  16.080  12.695  0.1001 -0.2229 -0.0546
42438W        W43302  19.874  13.324  14.790  0.2854 -0.2172 -0.2272
42439W        W43303  21.504  18.220  11.744  0.4150  0.2785  0.1408
42440W        W43304  21.282  18.571  11.165 -0.0448 -0.1307 -0.1844
42441W        W43305  20.796  17.490  13.072  0.1788 -0.1163  0.1318
42442W        W43306  24.617  18.639  11.825 -0.0910 -0.0486 -0.1127
42443W        W43307  20.834  15.271  13.003 -0.2170 -0.0807 -0.2079
42444W        W43308  21.119  17.014  11.143 -0.4994  0.3652  0.0375
42445W        W43309  21.822  16.071  11.330  0.0796  0.1868  0.0106
42446W        W43310  20.647  16.067  11.983 -0.0449  0.1673  0.0136
42447W        W43311  18.700  14.775   9.236  0.2984  0.1521  0.0970
42448W        W43312  23.132  18.345  16.040  0.0733  0.2504 -0.4167
42449W        W43313  22.204  17.589  12.674 -0.0407 -0.1706  0.1842
42450W        W43314  21.066  19.060  15.748  0.1892  0.0071  0.0107
42451W        W43315  17.769  15.849  16.265 -0.0245  0.0202  0.3114
42452W        W43316  21.957  18.546  13.133 -0.0029  0.0380  0.0746
42453W        W43317  19.256  16.557  15.277 -0.0488 -0.4618 -0.0020
42454W        W43318  17.618  15.110  17.234  0.0009 -0.1142  0.2760
42455W        W43319  18.903  15.393  14.539  0.0406  0.0094 -0.0413
42456W        W43320  22.179  18.399  10.794 -0.2449  0.0585 -0.1928
42457W        W43321  20.175  16.091  12.012 -0.0913  0.0159 -0.0562
42458W        W43322  21.522  16.873  18.340  0.2221  0.1445  0.0668
42459W        W43323  19.063  16.486  16.636  0.1116 -0.2611  0.0611
42460W        W43324  19.277  14.600  13.558  0.1812 -0.0748 -0.1794
42461W        W43325  20.181  17.898  10.658 -0.0150  0.2173 -0.1673
42462W        W43326  19.620  19.238  12.002 -0.1159  0.0747 -0.0107
42463W        W43327  20.062  16.374  11.030  0.0265  0.1559  0.1383
42464W        W43328  19.984  17.250  13.627  0.1979 -0.0872 -0.1502
42465W        W43329  19.566  15.796  18.257  0.1437 -0.1027 -0.3349
42466W        W43330  19.063  18.824  14.994 -0.0158 -0.0292 -0.0340
42467W        W43331  19.523  17.166  12.811  0.0566 -0.0451 -0.1343
42468W        W43332  21.973  16.979  11.541 -0.0535 -0.3548 -0.2605
42469W        W43333  20.713  20.947  14.459 -0.0149  0.0575 -0.0522
42470W        W43334  21.204  17.515  16.796 -0.0008 -0.0098  0.1910
42471W        W43335  21.313  21.341  11.993  0.0494 -0.0123  0.0503
42472W        W43336  19.828  17.387  15.456  0.0364  0.3857  0.1352
42473W        W43337  19.629  16.584  14.072 -0.1594 -0.0599  0.0100
42474W        W43338  20.872  15.570  11.891 -0.1691 -0.1115 -0.2746
42475W        W43339  17.236  17.047  15.040 -0.2540  0.1700 -0.2674
42476W        W43340  16.940  17.130  18.027  0.0173 -0.0717 -0.0528
42477W        W43341  22.321  17.485  15.810 -0.0437  0.3825  0.0621
42478W        W43342  21.873  16.704  16.171 -0.1403  0.0760  0.2880
42479W        W43343  17.405  17.944  15.375  0.0930  0.2823  0.0899
42480W        W43344  18.697  16.391  17.255  0.0563  0.2278  0.3559
42481W        W43345  18.780  15.963  16.398 -0.1957  0.1748 -0.1638
42482W        W43346  21.999  17.694  16.170  0.3278  0.1405  0.1438
42483W        W43347  20.270  15.887  18.990  0.1465  0.0545  0.1079
42484W        W43348  18.797  14.991  19.275  0.2421  0.1217 -0.0709
42485W        W43349  20.304  16.918  16.807  0.2584 -0.0955  0.2454
42486W        W43350  18.442  14.024  18.963  0.0794  0.1513 -0.2422
42487W        W43351  18.592  14.291  15.181 -0.3193  0.4364 -0.3325
42488W        W43352  20.947  15.866  18.298 -0.2755 -0.0485 -0.2041
42489W        W43353  16.357  16.166  16.420  0.0343  0.3054 -0.2859
42490W        W43354  18.184  15.980  20.304  0.3037  0.0235  0.1257
42491W        W43355  20.129  16.364  14.493 -0.0514  0.0313 -0.2042
42492W        W43356  17.467  18.559  17.308  0.0410  0.0217 -0.0274
42493W        W43357  18.236  15.956  18.071 -0.2313 -0.1262 -0.0648
42494W        W43358  19.673  14.256  14.709  0.2075  0.0307 -0.0337
42495W        W43359  20.849  13.624  15.543 -0.0626  0.3183 -0.2658
42496W        W43360  18.499  16.647  17.791 -0.1773  0.0971  0.1510
42497W        W43361  16.032  16.021  14.800  0.0523 -0.0530  0.0315
42498W        W43362  20.198  18.110  17.923  0.1973  0.1263 -0.1699
42499W        W43363  18.494  17.197  15.991  0.3258 -0.1878  0.2048
42500W        W43364  20.276  15.246  21.682  0.0781  0.0744 -0.0065
42501W        W43365  17.743  15.340  18.944  0.1905  0.1683  0.1109
42502W        W43366  18.720  13.042  18.018  0.0668 -0.0389  0.2693
42503W        W43367  18.411  18.088  19.083  0.1601 -0.0345  0.1010
42504W        W43368  20.145  14.109  16.505  0.3228  0.0025 -0.1028
42505W        W43369  18.227  18.071  16.834  0.0852  0.0360  0.4359
42506W        W43370  22.326  16.413  18.564 -0.0371  0.1178 -0.0611
42507W        W43371  16.685  18.122  18.377  0.2409 -0.0135  0.3539
42508W        W43372  21.976  13.380  15.845  0.1823 -0.0904  0.2455
42509W        W43373  17.857  16.028  18.407  0.1367  0.0276 -0.4880
42510W        W43374  20.080  17.613  19.414 -0.0839  0.0861 -0.1289
42511W        W43375  19.698  13.835  16.390 -0.1011 -0.3071  0.1603
42512W        W43376  18.687  17.985  16.629 -0.1378 -0.1787  0.1163
42513W        W43377  22.508  16.957  16.052 -0.0816 -0.2055 -0.1479
42514W        W43378  22.098  14.935  17.241 -0.0837  0.1848  0.2359
42515W        W43379  24.762  15.470  13.376  0.0280 -0.2377  0.0189
42516W        W43380  22.576  13.235  17.214 -0.2208  0.0539 -0.1238
42517W        W43381  20.901  16.225  18.617  0.0495  0.2665 -0.1573
42518W        W43382  22.398  20.571  14.291  0.1740 -0.1206 -0.0630
42519W        W43383  20.224  19.938  16.720  0.2002  0.1218  0.4283
42520W        W43384  20.578  15.384  18.264 -0.1001  0.3462 -0.1115
42521W        W43385  16.947  15.464  17.990 -0.0443  0.0516  0.0856
42522W        W43386  21.134  14.135  17.928 -0.1858 -0.0957 -0.1096
42523W        W43387  20.314  17.166  18.314  0.1261 -0.0727  0.0400
42524W        W43388  20.457  17.822  15.880 -0.1149  0.3755 -0.1573
42525W        W43389  20.550  19.080  17.324  0.0311  0.1158  0.1149
42526W        W43390  18.520  16.782  14.198  0.0076  0.0459 -0.1049
42527W        W43391  19.353  17.447  15.661  0.1566  0.2175  0.0522
42528W        W43392  20.706  17.331  15.174 -0.1451 -0.0300 -0.1672
42529W        W43393  20.073  13.719  12.323  0.0121 -0.0968  0.0036
42530W        W43394  17.285  17.553  16.600 -0.3680 -0.1518  0.1937
42531W        W43395  17.518  15.285  19.354 -0.0246 -0.0271 -0.1149
42532W        W43396  19.781  12.377  18.428  0.1411  0.1514  0.0705
42533W        W43397  18.961  19.979  15.756 -0.2337 -0.1856  0.3121
42534W        W43398  18.261  17.920  16.342 -0.1617 -0.3316 -0.2635
42535W        W43399  21.846  14.349  14.571 -0.2776 -0.1922  0.2039
42536W        W43400  19.893  19.835  18.312  0.1084 -0.0903 -0.4181
42537W        W43401  20.104  15.965  19.594  0.1139  0.0127 -0.0430
42538W        W43402  21.261  17.108  16.525  0.0536  0.1113  0.2772
42539W        W43403  19.575  12.165  16.948 -0.1661 -0.0198  0.0068
42540W        W43404  21.526  17.690  16.394  0.1579  0.0377  0.0617
42541W        W43405  19.416  17.056  14.156 -0.5201  0.1271  0.2289
42542W        W43406  17.270  16.012  17.098  0.0540 -0.0895  0.4152
42543W        W43407  15.845  17.838  15.740  0.2195  0.0688  0.0765
42544W        W43408  18.867  15.271  17.957 -0.1235  0.3206 -0.0353
42545W        W43409  21.323  13.495  17.523  0.3374  0.0629 -0.1390
42546W        W43410  19.769  15.099  18.997  0.2079  0.0650  0.3794
42547W        W43411  20.336  19.007  16.861  0.0059 -0.1590 -0.2019
42548W        W43412  20.652  14.250  20.228 -0.0454  0.0037 -0.1345
42549W        W43413  22.293  18.004  17.612  0.2207  0.2315  0.1398
42550W        W43414  17.912  16.782  17.874  0.0908 -0.0146  0.0341
42551W        W43415  19.273  16.930  15.890 -0.0306 -0.1082  0.1637
42552W        W43416  20.322  16.486  17.788  0.1673 -0.0613 -0.0873
42553W        W43417  21.795  15.274  18.016  0.1329  0.1298  0.1310
42554W        W43418  19.166  14.859  17.160  0.1536  0.0716  0.2240
42555W        W43419  17.780  17.839  16.598  0.2682  0.0359 -0.3723
42556W        W43420  16.198  16.458  18.832 -0.0603  0.0353  0.1938
42557W        W43421  18.498  13.494  15.733  0.0868  0.0467 -0.2487
42558W        W43422  15.686  14.526  18.134 -0.1320 -0.1789  0.3145
42559W        W43423  19.059  12.854  17.574  0.3671  0.3944  0.0147
42560W        W43424  22.286  14.157  16.287  0.1380 -0.0266  0.1602
42561W        W43425  20.328  16.906  19.737 -0.0107 -0.1140 -0.2757
42562W        W43426  19.778  14.471  17.717 -0.1865 -0.0061 -0.0696
42563W        W43427  22.353  19.126  16.546  0.1416  0.1053 -0.0007
42564W        W43428  19.854  13.624  16.808  0.0050 -0.2480 -0.1156
42565W        W43429  20.464  12.748  15.972 -0.0872 -0.1088  0.2311
42566W        W43430  22.821  19.901  18.021  0.2972  0.2901  0.1459
42567W        W43431  19.549  19.920  18.625  0.1019  0.0803  0.0426
42568W        W43432  19.444  17.069  17.488  0.1127  0.2076 -0.0753
42569W        W43433  15.336  15.073  20.168 -0.0658 -0.3938 -0.1745
42570W        W43434  20.365  18.284  14.435  0.0226  0.1944 -0.0746
42571W        W43435  20.860  14.602  16.883  0.0900  0.0127  0.2500
42572W        W43436  21.073  18.139  17.354  0.1618 -0.1021 -0.3468
42573W        W43437  19.762  12.379  11.807  0.1112 -0.1702  0.0201
42574W        W43438  20.421  13.299  17.009  0.3246 -0.1245  0.0247
42575W        W43439  20.830  18.180  13.734 -0.1845  0.0974 -0.1749
42576W        W43440  17.302  16.951  19.160  0.0211  0.2554  0.2018
42577W        W43441  21.448  17.889  15.582  0.0150 -0.0357 -0.1304
42578W        W43442  21.220  15.380  17.339  0.4279  0.3101  0.3089
42579W        W43443  22.512  14.185  19.752 -0.1367  0.0290 -0.1406
42580W        W43444  18.028  14.734  15.811 -0.1045 -0.2051 -0.3127
42581W        W43445  21.084  16.788  17.320  0.0005  0.0236  0.0671
42582W        W43446  19.436  14.975  17.554  0.0020 -0.3703 -0.0771
42583W        W43447  18.028  11.954  16.799  0.0051  0.0533  0.3784
42584W        W43448  18.311  15.396  17.966 -0.2439  0.2768  0.0780
42585W        W43449  18.430  16.138  18.532  0.1159 -0.0038 -0.1317
42586W        W43450  19.669  19.235  13.956  0.0345 -0.0382  0.1263
42587W        W43451  20.094  16.597  18.298  0.3159 -0.3377 -0.3764
42588W        W43452  18.329  15.962  17.237  0.1259  0.1916  0.4783
42589W        W43453  21.981  15.616  16.659  0.1988  0.2085  0.1423
42590W        W43454  20.583  14.304  17.343  0.2032  0.1316 -0.0535
42591W        W43455  23.981  16.379  20.134  0.0027 -0.1039  0.3979
42592W        W43456  17.692  16.264  18.858 -0.3383 -0.3713 -0.2005
42593W        W43457  19.566  15.301  16.441  0.0032  0.3622  0.1542
42594W        W43458  21.167  15.096  16.717  0.1942 -0.1176 -0.0679
42595W        W43459  20.800  15.523  15.535  0.0444 -0.2684 -0.1566
42596W        W43460  22.617  15.823  17.208  0.0491  0.1301 -0.2076
42597W        W43461  18.889  14.813  17.599 -0.2293  0.1223 -0.2381
42598W        W43462  18.097  13.803  14.928 -0.2582  0.0210  0.0144
42599W        W43463  18.986  14.178  18.221  0.0552 -0.0234  0.2072
42600W        W43464  20.924  15.950  16.856 -0.0684  0.1864 -0.0508
42601W        W43465  18.804  14.382  16.526  0.3583  0.3138  0.1362
42602W        W43466  19.036  17.219  17.243 -0.2714  0.2443  0.0743
42603W        W43467  20.624  15.058  16.781  0.0336  0.0651  0.0758
42604W        W43468  18.445  19.288  14.608 -0.2505 -0.1667 -0.3981
42605W        W43469  19.098  18.951  16.290 -0.0844  0.0145 -0.0397
42606W        W43470  18.238  14.643  16.920 -0.1886  0.1410  0.1237
42607W        W43471  18.677  17.684  18.482  0.1581  0.1636  0.2547
42608W        W43472  20.676  15.655  15.068  0.0961 -0.3864 -0.2083
42609W        W43473  22.098  16.349  18.135  0.0321 -0.0654  0.2931
42610W        W43474  18.837  14.004  21.212 -0.0280 -0.0790  0.0705
42611W        W43475  23.155  18.753  15.722 -0.2225 -0.0455 -0.0941
42612W        W43476  20.728  13.755  18.827 -0.2426  0.0872  0.1460
42613W        W43477  20.555  16.053  17.792  0.0493  0.0717  0.0385
42614W        W43478  20.105  18.072  14.815  0.2952  0.1301 -0.0951
42615W        W43479  20.136  14.992  15.649  0.0070 -0.1422 -0.0909
42616W        W43480  19.622  15.746  15.302  0.0950  0.0519  0.1148
42617W        W43481  19.727  18.067  16.135  0.2188 -0.2861  0.0403
42618W        W43482  20.507  17.289  15.956  0.0400  0.0691  0.1530
42619W        W43483  18.922  17.989  17.513 -0.2370 -0.0730 -0.0213
42620W        W43484  18.407  14.503  14.308  0.0191 -0.1208  0.0718
42621W        W43485  18.686  14.054  15.695 -0.1112 -0.1673 -0.0374
42622W        W43486  21.259  18.109  16.277 -0.0929 -0.0594 -0.0137
42623W        W43487  20.076  18.658  15.769 -0.1995  0.2655 -0.0314
42624W        W43488  19.983  17.660  15.886 -0.0419  0.3221  0.1307
42625W        W43489  22.127  17.357  18.805  0.0179  0.2378 -0.3828
42626W        W43490  19.753  19.744  15.634  0.3603 -0.0334  0.1789
42627W        W43491  17.812  17.329  18.024 -0.5140 -0.4507  0.1339
42628W        W43492  19.538  13.986  15.171  0.1635  0.1052 -0.0039
42629W        W43493  19.777  15.102  19.527 -0.2319  0.0709  0.0430
42630W        W43494  19.539  15.396  17.845  0.2619 -0.0754  0.0483
42631W        W43495  16.382  16.977  16.625 -0.1193  0.0091  0.0362
42632W        W43496  20.084  15.912  14.744  0.1153 -0.1600 -0.3450
42633W        W43497  18.528  14.023  14.747  0.1524 -0.3283 -0.2894
42634W        W43498  19.305  15.719  16.246  0.0580 -0.2075  0.3799
42635W        W43499  20.585  14.747  14.922  0.0411  0.0196 -0.0283
42636W        W43500  18.850  18.544  16.133 -0.2052  0.0790  0.2321
42637W        W43501  18.507  19.929  17.317 -0.1220  0.3899  0.0652
42638W        W43502  21.212  18.563  16.547 -0.2311 -0.1977  0.1658
42639W        W43503  19.028  13.432  17.721 -0.2092  0.3077  0.1182
42640W        W43504  20.840  18.571  17.479 -0.2260  0.1326 -0.0925
42641W        W43505  17.636  15.658  16.677  0.1249  0.0142  0.0909
42642W        W43506  20.401  19.173  17.876 -0.0576  0.1985  0.0213
42643W        W43507  20.952  18.303  15.326  0.1271  0.1864 -0.2065
42644W        W43508  17.229  15.757  14.669 -0.0402 -0.1317  0.0762
42645W        W43509  21.224  16.689  16.237  0.1148 -0.0969 -0.0599
42646W        W43510  18.572  14.791  16.556  0.0059 -0.1221 -0.2672
42647W        W43511  21.408  17.944  17.711 -0.0809 -0.1436  0.2913
42648W        W43512  21.420  16.515  15.301 -0.1278 -0.0308  0.1427
42649W        W43513  19.550  14.556  17.238 -0.1225  0.0633  0.3324
42650W        W43514  19.612  15.415  15.776  0.0359 -0.0793  0.1961
42651W        W43515  18.875  17.847  17.991 -0.1682  0.1600 -0.3312
42652W        W43516  17.209  16.684  15.374 -0.3425  0.0227  0.1434
42653W        W43517  18.086  20.717  14.362 -0.1220  0.1549  0.1282
42654W        W43518  22.464  13.661  19.854 -0.2869 -0.1839 -0.1371
42655W        W43519  17.047  15.622  16.000  0.0105  0.0616  0.3358
42656W        W43520  23.500  16.949  14.892  0.1376 -0.3441 -0.0882
42657W        W43521  20.929  11.524  16.085  0.1812  0.2182 -0.1663
42658W        W43522  19.700  18.304  16.673  0.1045 -0.1081 -0.1250
42659W        W43523  19.556  16.008  15.834  0.1146  0.1146 -0.4525
42660W        W43524  18.108  16.511  18.694 -0.4155 -0.0733 -0.1720
42661W        W43525  20.849  14.101  15.842 -0.0948 -0.1083 -0.0348
42662W        W43526  18.629  14.624  15.671 -0.0959 -0.0183  0.3323
42663W        W43527  19.259  20.577  17.999  0.4776 -0.3372  0.2122
42664W        W43528  19.986  18.917  14.308  0.1589  0.0484 -0.0305
42665W        W43529  20.088  18.169  15.771 -0.1976  0.2946  0.1664
42666W        W43530  16.302  15.650  15.006  0.1246 -0.1527  0.1539
42667W        W43531  18.351  15.936  19.525 -0.3185 -0.3964  0.0717
42668W        W43532  18.508  14.320  19.364  0.0519  0.1900 -0.0837
42669W        W43533  21.698  18.710  17.285  0.1811  0.1168  0.1292
42670W        W43534  18.875  16.656  14.865 -0.3138 -0.2497  0.0733
42671W        W43535  20.669  14.209  17.820 -0.2456 -0.3995 -0.2208
42672W        W43536  17.362  18.275  17.732  0.1817  0.1267  0.2315
42673W        W43537  19.480  14.947  16.798  0.1960  0.1271 -0.1429
42674W        W43538  20.143  13.285  13.234 -0.0032  0.0213 -0.1814
42675W        W43539  18.061  12.800  14.530  0.2512 -0.1158  0.2082
42676W        W43540  21.258  15.918  17.283  0.2912  0.1187 -0.1145
42677W        W43541  21.880  17.968  15.256  0.0643  0.0249 -0.1550
42678W        W43542  18.384  17.657  17.241  0.3018 -0.0829 -0.1870
42679W        W43543  19.212  16.534  17.687  0.0294 -0.0338  0.0411
42680W        W43544  17.918  18.366  16.318  0.0882  0.1229 -0.2041
42681W        W43545  19.619  16.602  18.117 -0.1665  0.0376 -0.0627
42682W        W43546  18.687  15.322  17.512  0.3003  0.1704 -0.1892
42683W        W43547  22.015  18.716  15.995 -0.0674  0.2826  0.0101
42684W        W43548  18.345  16.358  15.786  0.1414  0.0114 -0.0618
42685W        W43549  17.283  19.636  16.250 -0.1743 -0.0668 -0.0576
42686W        W43550  19.068  19.818  17.523 -0.0235  0.0305 -0.1344
42687W        W43551  16.352  15.081  19.224 -0.0712  0.1323  0.0734
42688W        W43552  19.943  16.058  17.009 -0.2900  0.3893  0.0484
42689W        W43553  20.922  15.655  17.883 -0.0491 -0.0501  0.3004
42690W        W43554  22.018  19.482  16.761 -0.1960  0.1516 -0.1021
42691W        W43555  20.816  17.264  16.442 -0.2961 -0.0396 -0.3192
42692W        W43556  19.608  19.010  16.327  0.0050  0.1949 -0.2880
42693W        W43557  19.292  15.068  18.046  0.0300 -0.0736  0.0736
42694W        W43558  17.695  16.821  18.805 -0.2547 -0.4261 -0.0655
42695W        W43559  21.089  13.727  19.304 -0.0058  0.2098  0.1107
42696W        W43560  21.077  14.344  17.369  0.2448  0.2134 -0.0182
42697W        W43561  20.126  16.365  19.069  0.2404  0.0583  0.3239
42698W        W43562  20.972  13.130  17.240  0.0962  0.1204  0.1144
42699W        W43563  23.601  19.260  14.427 -0.1699 -0.3193 -0.0250
42700W        W43564  17.907  17.887  16.028  0.0981 -0.0077  0.3794
42701W        W43565  19.253  14.498  16.759 -0.0546 -0.1309  0.1071
42702W        W43566  18.627  16.051  16.860 -0.0093  0.1787  0.1245
42703W        W43567  20.308  17.538  11.724  0.0497 -0.2861  0.1117
42704W        W43568  18.229  16.751  17.436 -0.0115 -0.0330 -0.0542
42705W        W43569  19.562  13.605  17.593  0.2454  0.2618 -0.0668
42706W        W43570  19.692  17.803  18.186 -0.0193 -0.2026 -0.0438
42707W        W43571  18.338  18.276  13.036 -0.1319 -0.1279 -0.0142
42708W        W43572  19.622  13.722  19.146 -0.0191 -0.1064  0.2748
42709W        W43573  19.993  15.232  16.077  0.1520  0.0387  0.1195
42710W        W43574  22.530  19.434  18.169  0.0033  0.3335  0.0712
42711W        W43575  19.861  14.208  16.074 -0.1005  0.1266  0.1159
42712W        W43576  21.100  14.138  18.899  0.0944 -0.2707  0.0696
42713W        W43577  21.476  16.400  17.118 -0.1215  0.2701 -0.3249
42714W        W43578  20.015  19.869  16.164  0.1756 -0.1631 -0.0756
42715W        W43579  20.520  17.637  19.082 -0.1193  0.0249 -0.0558
42716W        W43580  18.785  17.483  17.585  0.2454  0.0477  0.0637
42717W        W43581  17.555  14.639  16.381 -0.0507  0.3382 -0.0681
42718W        W43582  17.209  14.702  18.347  0.1193  0.3685 -0.3369
42719W        W43583  21.026  14.649  17.971 -0.1240 -0.4142  0.0489
42720W        W43584  20.062  15.957  13.403 -0.0945  0.1534 -0.2955
42721W        W43585  23.586  13.691  17.949  0.1046  0.2895 -0.1540
42722W        W43586  16.885  17.128  17.535 -0.1917  0.1975 -0.0001
42723W        W43587  23.988  20.713  16.789  0.2452  0.0615 -0.0189
42724W        W43588  20.749  16.480  17.615 -0.0678 -0.0069 -0.4257
42725W        W43589  13.899  18.398  15.601 -0.0444  0.0359  0.1329
42726W        W43590  19.680  17.991  17.164 -0.1641 -0.0930 -0.0902
42727W        W43591  23.617  18.474  17.879 -0.1707  0.0540  0.2533
42728W        W43592  20.339  17.610  16.357 -0.1964 -0.1057  0.1091
42729W        W43593  18.139  14.501  13.639  0.1352  0.0323  0.1482
42730W        W43594  22.523  17.646  16.576 -0.0515  0.0789 -0.0238
42731W        W43595  20.256  16.053  16.057  0.1038  0.1273 -0.2150
42732W        W43596  17.733  13.871  17.151  0.0425  0.0858 -0.0606
42733W        W43597  18.155  19.589  13.924  0.0175 -0.0508  0.0246
42734W        W43598  23.620  15.166  16.148 -0.0592 -0.0012  0.0401
42735W        W43599  18.642  16.841  16.932  0.1032 -0.1490  0.1093
42736W        W43600  21.546  15.825  16.447 -0.2773 -0.1988 -0.0631
42737W        W43601  18.009  14.852  16.524  0.2671  0.4182 -0.1016
42738W        W43602  17.986  14.070  17.679  0.0187 -0.5468  0.0429
42739W        W43603  21.170  16.262  18.104 -0.3114 -0.0074  0.2886
42740W        W43604  19.874  18.558  16.242  0.1009  0.3003  0.1017
42741W        W43605  19.027  20.247  13.967 -0.0918 -0.2198  0.2612
42742W        W43606  25.844  19.856  12.182  0.1242 -0.1530 -0.2199
42743W        W43607  21.166  15.880  19.649 -0.2152 -0.1021  0.2776
42744W        W43608  22.593  14.565  16.346 -0.1914  0.3316  0.2313
42745W        W43609  18.528  19.329  15.553 -0.0282 -0.0651  0.0017
42746W        W43610  19.313  16.995  18.967 -0.1491  0.2538 -0.3022
42747W        W43611  21.751  13.169  17.157 -0.0212 -0.0642  0.1428
42748W        W43612  18.073  14.256  17.178  0.1466 -0.1665 -0.1491
42749W        W43613  19.329  18.226  17.473 -0.0491  0.0603 -0.0596
42750W        W43614  19.673  12.455  19.526 -0.1597 -0.2769  0.1567
42751W        W43615  19.956  13.322  18.158 -0.1707  0.0735 -0.0923
42752W        W43616  18.272  16.020  15.455  0.1298 -0.1503  0.0816
42753W        W43617  17.972  16.972  16.031 -0.1290 -0.3044  0.2481
42754W        W43618  16.871  18.184  19.354  0.3870  0.0393 -0.1924
42755W        W43619  18.735  16.929  17.455  0.2131  0.1732 -0.0745
42756W        W43620  21.717  19.696  15.425 -0.1149  0.0376 -0.0602
42757W        W43621  20.351  15.212  11.680 -0.1151  0.0719  0.0762
42758W        W43622  18.573  17.343  15.564 -0.3178 -0.2900 -0.0305
42759W        W43623  22.460  16.056  16.356 -0.1448 -0.4671  0.1892
42760W        W43624  18.910  16.117  17.657  0.0081 -0.1538 -0.1714
42761W        W43625  20.875  17.668  17.657 -0.2391 -0.0434  0.0154
42762W        W43626  15.245  16.689  17.819 -0.0919  0.1525 -0.0158
42763W        W43627  20.820  14.934  17.228 -0.1302 -0.0600 -0.0712
42764W        W43628  21.589  14.425  16.464  0.0934  0.3020  0.0592
42765W        W43629  21.084  15.772  14.126  0.4205  0.0547  0.1949
42766W        W43630  22.063  13.035  14.837 -0.0061  0.1654  0.0812
42767W        W43631  23.363  15.695  19.715  0.1775  0.3673 -0.2508
42768W        W43632  18.378  18.597  16.872 -0.0004  0.1017 -0.3911
42769W        W43633  18.157  18.810  16.210 -0.1356  0.1265 -0.0746
42770W        W43634  21.071  14.668  15.987  0.2923 -0.1821 -0.3901
42771W        W43635  19.689  17.246  15.985 -0.0690 -0.0961  0.0870
42772W        W43636  19.570  16.503  17.002 -0.2333 -0.1802 -0.1146
42773W        W43637  22.367  14.830  18.670  0.0239 -0.0906  0.0311
42774W        W43638  19.471  16.055  17.784 -0.2728 -0.0325 -0.2904
42775W        W43639  19.910  21.046  15.098  0.2615  0.0173  0.1141
42776W        W43640  16.537  13.791  19.086  0.1153  0.0319 -0.2937
42777W        W43641  16.116  18.519  17.421  0.0196  0.2090 -0.1689
42778W        W43642  21.785  16.249  17.489 -0.0638  0.0016 -0.0226
42779W        W43643  20.100  15.077  16.572  0.2264 -0.1417  0.1356
42780W        W43644  20.837  15.474  16.054 -0.0672 -0.2244 -0.1886
42781W        W43645  22.565  18.246  18.811  0.4168 -0.1019  0.0074
42782W        W43646  20.302  13.049  16.489 -0.1618 -0.0587  0.1769
42783W        W43647  19.213  16.166  16.196 -0.2276  0.2782 -0.0957
42784W        W43648  17.710  16.599  17.043 -0.0177  0.0270 -0.2142
42785W        W43649  21.718  13.629  15.510 -0.3733  0.1824  0.1337
42786W        W43650  19.292  15.141  20.521  0.0447 -0.2215  0.3936
42787W        W43651  20.390  15.954  16.919 -0.0706  0.3638  0.2561
42788W        W43652  19.509  17.276  17.999  0.2107  0.2442  0.0330
42789W        W43653  17.136  17.224  21.341 -0.1960  0.0930 -0.2261
42790W        W43654  17.067  16.760  19.808 -0.0141  0.1048 -0.3764
42791W        W43655  18.125  15.623  16.852 -0.0529 -0.0436  0.0622
42792W        W43656  20.574  15.962  16.435  0.0164 -0.0920  0.2025
42793W        W43657  20.863  19.571  16.960  0.1578  0.0611  0.3299
42794W        W43658  20.068  16.433  16.781 -0.0704 -0.2305  0.1636
42795W        W43659  18.914  14.943  18.587 -0.2564 -0.0506  0.1280
42796W        W43660  20.282  17.280  14.698 -0.4282  0.0791 -0.1179
42797W        W43661  18.679  15.818  19.134 -0.0480 -0.0692  0.0834
42798W        W43662  18.987  15.499  19.519 -0.2900 -0.3605 -0.5019
42799W        W43663  18.937  18.462  14.575  0.0435  0.3081 -0.2419
42800W        W43664  17.199  17.631  18.607 -0.0246 -0.0185 -0.1241
42801W        W43665  17.493  13.620  16.397 -0.0684 -0.0110 -0.2174
42802W        W43666  16.174  16.827  14.578 -0.3722  0.2761  0.0246
42803W        W43667  20.252  14.062  12.685  0.3292  0.0286 -0.2342
42804W        W43668  14.596  15.950  14.787  0.1264 -0.2675 -0.1009
42805W        W43669  18.677  12.778  18.457  0.0979 -0.1153 -0.3877
42806W        W43670  24.190  14.312  12.976 -0.0206  0.2269  0.0009
42807W        W43671  21.693  20.245  17.082 -0.0842  0.2124  0.0520
42808W        W43672  21.171  14.562  20.425  0.0931  0.0658 -0.1011
42809W        W43673  20.734  15.945  15.882  0.2416 -0.3457 -0.2648
42810W        W43674  21.179  18.782  19.008  0.0574  0.0486  0.0292
42811W        W43675  18.641  20.249  18.334 -0.0296  0.2267 -0.0147
42812W        W43676  21.303  15.042  14.771 -0.0194 -0.2368  0.3630
42813W        W43677  21.001  14.115  16.940 -0.1753  0.1417  0.2232
42814W        W43678  16.846  15.725  16.769  0.3598  0.0396  0.5047
42815W        W43679  19.678  18.799  14.823  0.0660 -0.1800  0.3208
42816W        W43680  18.358  12.727  16.869 -0.2069 -0.0774  0.2106
42817W        W43681  19.008  15.775  17.301  0.0811 -0.0671 -0.0773
42818W        W43682  19.778  17.794  17.615 -0.0112  0.0253 -0.0950
42819W        W43683  20.590  14.250  19.088 -0.2726 -0.3574  0.3339
42820W        W43684  22.204  15.207  17.689 -0.3263  0.1428 -0.1189
42821W        W43685  17.707  18.220  16.955 -0.0697  0.0563 -0.0997
42822W        W43686  19.935  16.187  17.576 -0.3031  0.1786 -0.0031
42823W        W43687  18.925  16.185  15.020 -0.0083 -0.0171 -0.0636
42824W        W43688  19.567  12.814  15.886  0.1258  0.3151 -0.2955
42825W        W43689  19.694  14.261  16.741 -0.0166  0.2003  0.0012
42826W        W43690  21.500  14.719  15.696 -0.0788  0.1168 -0.0215
42827W        W43691  22.679  14.558  17.986 -0.0048 -0.3257  0.0707
42828W        W43692  18.798  15.925  19.762 -0.1527 -0.0667  0.0101
42829W        W43693  19.578  19.610  16.880  0.2705  0.1943 -0.1735
42830W        W43694  19.493  14.046  13.334 -0.1993  0.1328 -0.0257
42831W        W43695  12.986  16.164  17.170 -0.0645 -0.1414 -0.1814
42832W        W43696  19.514  15.363  22.754 -0.4457 -0.2188  0.2997
42833W        W43697  18.872  16.383  18.511 -0.1034 -0.2756 -0.0689
42834W        W43698  17.786  16.434  15.963 -0.2480 -0.1773  0.0461
42835W        W43699  17.250  17.059  16.409  0.1427 -0.0898  0.0284
42836W        W43700  19.359  16.233  18.496  0.1974 -0.1499  0.1681
42837W        W43701  19.933  17.952  14.355  0.1834  0.1039 -0.2136
42838W        W43702  24.223  12.999  15.588  0.1585  0.1252 -0.2782
42839W        W43703  19.181  18.169  16.406 -0.1129  0.2199  0.5184
42840W        W43704  19.685  18.214  17.886 -0.0106  0.0695  0.0758
42841W        W43705  21.514  17.092  16.001 -0.0192  0.1086 -0.1326
42842W        W43706  15.847  16.232  18.244  0.1787 -0.2784  0.3721
42843W        W43707  18.142  14.489  19.020 -0.1799  0.1201  0.0004
42844W        W43708  22.626  13.233  17.760 -0.0462 -0.2305 -0.1469
42845W        W43709  17.652  20.170  15.593 -0.0280 -0.2083 -0.0401
42846W        W43710  18.198  14.024  15.364  0.0807 -0.0618 -0.0010
42847W        W43711  19.405  13.679  14.700  0.1684  0.0170 -0.0677
42848W        W43712  17.866  15.591  18.069  0.0298  0.1818  0.0893
42849W        W43713  20.904  16.476  15.486  0.0557  0.0459 -0.0610
42850W        W43714  17.674  13.952  19.694 -0.0275 -0.4301 -0.1231
42851W        W43715  21.057  15.063  18.327  0.0320  0.1106 -0.2288
42852W        W43716  22.586  14.877  20.414 -0.2083 -0.5515 -0.0062
42853W        W43717  21.688  14.722  19.259  0.2027  0.0891 -0.0557
42854W        W43718  17.920  14.454  18.370 -0.0493 -0.2835  0.0434
42855W        W43719  18.811  15.274  15.548 -0.3586 -0.1307 -0.0007
42856W        W43720  17.029  17.455  17.140 -0.1934  0.3005 -0.2506
42857W        W43721  15.808  18.116  17.530  0.0633  0.2965  0.0624
42858W        W43722  18.885  16.897  16.387 -0.1594 -0.2317 -0.1654
42859W        W43723  20.278  19.382  16.028  0.0387 -0.4196 -0.0926
42860W        W43724  20.921  13.868  17.483  0.0413  0.0708 -0.2618
42861W        W43725  20.421  18.551  13.804 -0.2905 -0.3503 -0.0100
42862W        W43726  20.832  19.003  18.252  0.0901 -0.1602 -0.1892
42863W        W43727  19.219  15.393  18.390 -0.0659 -0.0883  0.0005
42864W        W43728  19.767  14.954  18.005 -0.0266  0.1294 -0.1184
42865W        W43729  20.296  19.409  18.415  0.0012 -0.3492  0.0247
42866W        W43730  17.991  18.560  14.335 -0.0055 -0.0119  0.1988
42867W        W43731  20.683  18.784  15.512 -0.2052 -0.0622 -0.3135
42868W        W43732  20.723  15.858  17.332  0.0572 -0.2069 -0.0404
42869W        W43733  18.504  17.306  14.326 -0.2477 -0.0494 -0.0164
42870W        W43734  19.760  16.960  19.901  0.1519 -0.1223  0.2696
42871W        W43735  18.898  19.575  16.084  0.1946 -0.0204  0.3771
42872W        W43736  19.778  15.872  20.736  0.3345 -0.0477 -0.0953
42873W        W43737  19.806  14.658  19.270  0.0206  0.2081  0.2516
42874W        W43738  18.278  14.215  16.545 -0.0223  0.1909 -0.1347
42875W        W43739  18.792  20.136  20.788  0.0209 -0.1778 -0.2059
42876W        W43740  18.092  16.939  18.352  0.1499  0.0735  0.2987
42877W        W43741  18.586  15.354  18.409  0.2574  0.0235 -0.1637
42878W        W43742  21.890  18.571  20.588 -0.4638 -0.1435  0.0711
42879W        W43743  18.004  15.668  19.180  0.0434 -0.2568 -0.0889
42880W        W43744  22.107  15.259  20.616  0.3387 -0.3148 -0.4238
42881W        W43745  20.624  14.104  19.718 -0.0146  0.0823 -0.5444
42882W        W43746  18.985  13.540  19.522  0.5400 -0.1504  0.1577
42883W        W43747  18.781  19.708  20.483  0.1725 -0.0042  0.0897
42884W        W43748  19.007  14.713  20.662 -0.1639  0.1087 -0.0131
42885W        W43749  18.834  15.244  21.537  0.1127 -0.2622 -0.0177
42886W        W43750  21.202  14.036  21.259  0.0833 -0.1843 -0.2926
42887W        W43751  20.173  16.550  21.134  0.2387  0.0279  0.1613
42888W        W43752  21.342  14.202  22.255  0.5007 -0.1071  0.3335
42889W        W43753  17.883  17.720  17.055 -0.1058 -0.0778 -0.0489
42890W        W43754  17.766  17.115  24.435 -0.3365  0.5391  0.0850
42891W        W43755  19.332  17.865  17.895 -0.1945  0.0877  0.0213
42892W        W43756  18.984  15.026  20.104  0.1338 -0.2834 -0.0115
42893W        W43757  20.525  17.269  20.185 -0.1351 -0.0390 -0.1632
42894W        W43758  22.147  14.524  20.514 -0.1666  0.0903 -0.2070
42895W        W43759  20.859  14.520  21.340 -0.0213  0.1421 -0.0519
42896W        W43760  20.789  15.027  19.233 -0.0224  0.0562 -0.1307
42897W        W43761  18.816  18.869  20.404  0.2418 -0.2513  0.2314
42898W        W43762  17.055  17.200  20.268 -0.1571  0.1453 -0.3414
42899W        W43763  18.216  18.312  20.178 -0.0966  0.0089 -0.1446
42900W        W43764  16.597  15.305  18.666  0.2384 -0.0570  0.0024
42901W        W43765  22.534  15.975  20.838  0.0286  0.0852 -0.1515
42902W        W43766  19.186  20.668  20.313 -0.1517 -0.2051 -0.1330
42903W        W43767  19.702  18.584  24.375  0.1706 -0.1552 -0.0152
42904W        W43768  22.226  12.683  20.099  0.0129  0.2488 -0.2285
42905W        W43769  18.324  14.879  19.313 -0.0589 -0.0803 -0.2602
42906W        W43770  19.752  16.360  20.906  0.1886 -0.0819  0.1473
42907W        W43771  21.612  16.103  21.155  0.1827 -0.1654 -0.3974
42908W        W43772  18.591  15.622  22.278  0.2397 -0.0247  0.0028
42909W        W43773  19.059  15.421  22.401  0.1504 -0.0269  0.2708
42910W        W43774  20.640  18.911  21.536  0.1406 -0.0033  0.2084
42911W        W43775  18.114  16.404  18.159 -0.1526 -0.0030 -0.1861
42912W        W43776  21.766  17.382  21.820  0.4708  0.2692 -0.1178
42913W        W43777  20.385  16.080  21.260 -0.4311 -0.0835  0.1375
42914W        W43778  21.723  14.093  16.927 -0.0237 -0.3581  0.0131
42915W        W43779  21.497  13.636  18.414  0.2649 -0.0174  0.1577
42916W        W43780  24.844  16.772  21.498  0.1865 -0.1080 -0.3169
42917W        W43781  20.495  19.908  19.971 -0.1362  0.3171 -0.0130
42918W        W43782  19.900  14.640  18.626 -0.2240  0.3743 -0.2958
42919W        W43783  19.814  17.765  20.467 -0.0686  0.2777 -0.0629
42920W        W43784  21.229  20.213  20.410  0.2980 -0.0361  0.1066
42921W        W43785  20.069  18.149  20.337 -0.5324 -0.1295 -0.2292
42922W        W43786  22.095  13.616  20.249 -0.0452 -0.1074 -0.0053
42923W        W43787  19.763  15.017  21.811  0.1810 -0.1464  0.1703
42924W        W43788  19.557  12.849  17.421  0.3408  0.1830 -0.1991
42925W        W43789  20.430  15.606  22.302  0.0555  0.1867 -0.1397
42926W        W43790  20.565  12.180  21.439 -0.1259 -0.0571 -0.2578
42927W        W43791  20.536  16.355  19.536  0.0983  0.1397 -0.0580
42928W        W43792  19.405  17.749  20.141 -0.3038  0.1822  0.0033
42929W        W43793  19.678  13.724  18.175 -0.0936 -0.4075  0.0018
42930W        W43794  20.074  15.087  19.951  0.1656  0.2172  0.0854
42931W        W43795  18.806  14.665  18.087  0.1195 -0.0280  0.0587
42932W        W43796  21.398  17.417  20.945 -0.3245  0.2306 -0.1509
42933W        W43797  17.381  19.138  19.280  0.2017 -0.0012 -0.0362
42934W        W43798  17.944  17.635  18.997 -0.2766  0.1480 -0.0154
42935W        W43799  22.491  14.780  17.496 -0.0964 -0.0078  0.1092
42936W        W43800  16.637  17.577  21.446  0.2474  0.3641 -0.0499
42937W        W43801  17.853  19.748  20.853 -0.2075  0.3460 -0.0907
42938W        W43802  21.131  12.690  19.518 -0.1567 -0.2271 -0.2923
42939W        W43803  18.500  17.917  20.182  0.2348  0.2132  0.3903
42940W        W43804  19.355  15.194  19.805  0.0388 -0.0510 -0.1791
42941W        W43805  17.684  16.571  18.331  0.0970  0.0099 -0.2736
42942W        W43806  18.931  17.820  18.852 -0.2072 -0.1247 -0.2256
42943W        W43807  21.022  15.944  20.356 -0.2361 -0.0269  0.3246
42944W        W43808  18.962  19.428  19.658 -0.0671  0.0846  0.1154
42945W        W43809  18.406  16.575  23.776  0.3198  0.1751  0.1573
42946W        W43810  21.409  13.881  20.702  0.1867  0.3822  0.1141
42947W        W43811  20.369  19.305  20.706  0.0657  0.0256  0.2129
42948W        W43812  20.586  15.354  22.903  0.1688 -0.0577  0.1205
42949W        W43813  21.881  14.794  20.854 -0.1041  0.0305  0.0499
42950W        W43814  17.998  18.807  18.686  0.2524  0.0636  0.3267
42951W        W43815  16.860  16.901  22.658 -0.1601 -0.1209  0.1405
42952W        W43816  19.083  17.663  21.010  0.2976  0.1655  0.0900
42953W        W43817  20.001  14.313  19.588  0.0024 -0.2603  0.1401
42954W        W43818  21.557  14.831  22.875  0.0360  0.0392 -0.0099
42955W        W43819  18.793  17.770  20.583  0.0774  0.1217  0.0747
42956W        W43820  16.717  14.465  22.287  0.1249 -0.2563 -0.0459
42957W        W43821  21.535  14.044  20.040  0.2459  0.0530 -0.1291
42958W        W43822  21.642  15.687  19.682  0.1183 -0.3336  0.0070
42959W        W43823  20.879  14.771  24.165  0.0370 -0.0445 -0.1940
42960W        W43824  16.936  14.937  18.839  0.2581 -0.0296 -0.1543
42961W        W43825  18.372  17.755  21.041 -0.1753  0.0565 -0.1311
42962W        W43826  19.901  14.519  20.468  0.3557  0.1688  0.0389
42963W        W43827  21.457  18.685  20.911  0.0117 -0.0539 -0.2355
42964W        W43828  18.962  17.441  22.744 -0.0291  0.2077 -0.0245
42965W        W43829  22.727  13.024  21.488  0.0799 -0.1573 -0.0744
42966W        W43830  23.096  15.770  23.387  0.2396 -0.3261  0.1441
42967W        W43831  16.611  17.887  17.932 -0.2456 -0.1063  0.1859
42968W        W43832  21.335  12.515  17.347  0.1109 -0.0097 -0.0021
42969W        W43833  15.800  18.981  19.449 -0.1382 -0.1950  0.2051
42970W        W43834  20.514  14.054  20.675  0.0202 -0.1274  0.0145
42971W        W43835  23.108  14.308  20.819 -0.1936  0.0409 -0.1419
42972W        W43836  19.870  18.286  22.269 -0.1186  0.1207  0.0509
42973W        W43837  19.922  13.309  19.229 -0.0464 -0.1868 -0.1013
42974W        W43838  19.375  14.351  20.626 -0.0844  0.2064 -0.0829
42975W        W43839  19.339  18.790  18.126  0.0587 -0.0383  0.0743
42976W        W43840  19.925  22.270  22.111  0.1208 -0.2109 -0.0587
42977W        W43841  21.462  16.026  19.172 -0.3344 -0.1293  0.0087
42978W        W43842  20.658  16.338  19.021 -0.1200 -0.0940 -0.0402
42979W        W43843  21.086  16.293  19.961  0.1108  0.1597 -0.0864
42980W        W43844  19.837  16.328  23.399 -0.2208 -0.3460 -0.1187
42981W        W43845  17.870  17.362  19.529 -0.2560  0.2763  0.0666
42982W        W43846  20.673  17.143  21.632 -0.0382  0.2198  0.0811
42983W        W43847  21.265  12.643  20.407  0.0135  0.0122  0.1482
42984W        W43848  19.854  16.402  21.949 -0.1028  0.1059  0.1103
42985W        W43849  19.515  20.262  21.202  0.3486  0.0726 -0.0502
42986W        W43850  23.490  18.166  21.501  0.2312 -0.0661  0.0933
42987W        W43851  21.622  12.516  21.449  0.3452  0.0379  0.1674
42988W        W43852  19.355  17.755  22.713  0.0267 -0.0366 -0.0514
42989W        W43853  19.892  16.149  18.178  0.1134 -0.1315 -0.1857
42990W        W43854  22.213  13.087  21.226 -0.3971 -0.1193 -0.0090
42991W        W43855  22.279  16.693  21.634  0.0806 -0.1580 -0.3473
42992W        W43856  17.781  19.041  21.140  0.0219  0.1325 -0.1746
42993W        W43857  20.210  15.713  23.165  0.0645  0.0421 -0.1983
42994W        W43858  18.673  13.915  20.307 -0.1626 -0.0870 -0.2727
42995W        W43859  19.540  16.330  19.017 -0.2829  0.1560  0.1177
42996W        W43860  21.387  19.246  20.743  0.0695 -0.2731 -0.3798
42997W        W43861  21.462  17.894  20.853  0.1111 -0.0410  0.0010
42998W        W43862  19.720  14.959  20.288 -0.0458  0.1946 -0.1406
42999W        W43863  20.681  15.020  20.688  0.0649 -0.3155  0.0255
43000W        W43864  19.225  14.844  21.504 -0.1129 -0.1861 -0.2990
43001W        W43865  17.541  15.732  20.022 -0.4367 -0.0268 -0.1134
43002W        W43866  17.424  17.395  19.321  0.0738  0.2211 -0.1391
43003W        W43867  23.063  18.338  21.619 -0.0887 -0.0462  0.1154
43004W        W43868  19.787  18.314  21.386 -0.0835  0.1838 -0.3543
43005W        W43869  21.073  19.046  20.243 -0.0136  0.0579 -0.0549
43006W        W43870  20.018  17.547  23.796  0.2888 -0.0874  0.3194
43007W        W43871  19.521  17.636  24.039 -0.1030  0.1793  0.2680
43008W        W43872  19.823  14.962  21.308 -0.0901 -0.0427  0.3447
43009W        W43873  21.697  15.253  20.825  0.2408 -0.2670  0.0673
43010W        W43874  18.227  13.764  18.210  0.0575 -0.0271  0.1768
43011W        W43875  19.295  15.858  18.815 -0.0478  0.0598  0.1819
43012W        W43876  23.654  15.500  21.608  0.0065  0.1233  0.4450
43013W        W43877  21.129  16.018  21.000  0.1942  0.0752  0.2360
43014W        W43878  20.588  16.754  17.177  0.1365 -0.3038 -0.1583
43015W        W43879  19.939  15.424  18.147 -0.1834  0.3771  0.0543
43016W        W43880  20.113  13.536  20.371 -0.0966  0.2255  0.0760
43017W        W43881  21.756  14.858  19.795  0.2416  0.0575  0.3012
43018W        W43882  19.313  14.669  20.229  0.0588 -0.1654 -0.0395
43019W        W43883  16.282  15.855  23.423 -0.0905  0.0438 -0.0992
43020W        W43884  20.115  13.913  19.316  0.5722  0.1064 -0.0699
43021W        W43885  22.697  11.566  20.437  0.0413  0.2527  0.3003
43022W        W43886  21.922  16.458  20.353  0.3486  0.2795  0.1283
43023W        W43887  20.691  17.912  20.881  0.0949  0.0981  0.0288
43024W        W43888  16.868  18.583  17.940 -0.0079  0.0098  0.1215
43025W        W43889  19.252  17.949  20.636 -0.1133 -0.3476  0.0217
43026W        W43890  18.069  14.568  20.167 -0.0568  0.1665  0.2605
43027W        W43891  22.319  19.389  20.982 -0.4450 -0.2072 -0.1412
43028W        W43892  16.611  15.352  17.558 -0.3506 -0.2047  0.0495
43029W        W43893  21.083  17.726  21.178 -0.1332 -0.1905  0.0153
43030W        W43894  20.455  13.994  22.559 -0.1132 -0.1200  0.1252
43031W        W43895  18.385  17.402  21.523  0.5065 -0.3360 -0.0701
43032W        W43896  20.631  15.709  18.663  0.0836 -0.2220  0.2001
43033W        W43897  16.384  17.442  19.228  0.1130  0.1579  0.0668
43034W        W43898  19.195  16.528  20.876  0.0491 -0.1532 -0.1185
43035W        W43899  20.829  15.334  21.532  0.0436  0.1895  0.0660
43036W        W43900  18.485  16.796  20.138  0.1156 -0.2981 -0.1992
43037W        W43901  20.333  16.404  21.794 -0.0976 -0.3535  0.0256
43038W        W43902  19.892  15.521  21.469  0.0404  0.0728  0.0675
43039W        W43903  19.852  13.938  21.264  0.0640 -0.1007 -0.0959
43040W        W43904  16.778  15.140  20.435  0.0542  0.2400 -0.0947
43041W        W43905  17.610  14.851  21.582 -0.1482  0.0577  0.2115
43042W        W43906  19.632  18.608  17.594 -0.0573  0.0007  0.1845
43043W        W43907  20.480  17.278  22.059 -0.1671 -0.1905  0.0311
43044W        W43908  16.558  17.301  17.057  0.0810  0.2463  0.0845
43045W        W43909  19.528  19.367  18.372  0.0389  0.1595  0.0837
43046W        W43910  21.886  16.467  21.419 -0.3417 -0.3216 -0.0978
43047W        W43911  18.534  17.595  19.797  0.2727 -0.2515  0.1104
43048W        W43912  21.254  17.250  17.241  0.0621 -0.0090  0.0463
43049W        W43913  22.636  15.034  21.954  0.0167 -0.1287 -0.1738
43050W        W43914  20.531  15.405  19.085 -0.1613 -0.0891 -0.0533
43051W        W43915  18.229  18.896  22.001  0.0874  0.0656 -0.0683
43052W        W43916  20.129  15.470  18.667  0.2071 -0.3823 -0.0993
43053W        W43917  17.069  19.020  18.230  0.2347  0.2065 -0.2368
43054W        W43918  20.097  14.341  19.071 -0.0685 -0.3178 -0.1110
43055W        W43919  17.534  16.123  19.733 -0.1004  0.1506  0.3106
43056W        W43920  21.314  14.759  19.932 -0.1045  0.0856 -0.2500
43057W        W43921  18.599  16.475  18.943  0.0595 -0.0949  0.2636
43058W        W43922  20.134  15.503  19.307 -0.2185  0.1708 -0.0387
43059W        W43923  19.467  14.418  19.537  0.4372 -0.0152 -0.2711
43060W        W43924  18.382  18.152  19.724 -0.1267  0.0021  0.0688
43061W        W43925  21.411  13.003  17.435  0.0784  0.0311 -0.1034
43062W        W43926  19.325  13.697  18.630  0.1504  0.1209  0.0076
43063W        W43927  18.318  15.516  19.901  0.2170  0.2154  0.0412
43064W        W43928  17.285  16.203  18.361  0.3884 -0.0728  0.0136
43065W        W43929  17.434  16.595  17.910 -0.0895 -0.3934 -0.1279
43066W        W43930  18.615  18.310  17.754  0.1178 -0.2978 -0.2496
43067W        W43931  20.930  17.583  25.009  0.0843 -0.1001  0.0379
43068W        W43932  20.066  15.971  21.670  0.3054  0.0157  0.2758
43069W        W43933  18.964  19.846  21.718  0.0355  0.0129  0.1782
43070W        W43934  18.016  15.206  19.539  0.0459 -0.1146  0.0703
43071W        W43935  19.906  13.952  17.754  0.1400 -0.0215  0.1239
43072W        W43936  17.566  15.890  23.312  0.0154  0.0559  0.4723
43073W        W43937  22.841  15.954  20.325 -0.0674 -0.1389 -0.1419
43074W        W43938  25.163  14.848  20.530  0.1141 -0.0079  0.0293
43075W        W43939  18.746  15.120  20.518  0.3750  0.1515  0.1088
43076W        W43940  21.904  16.089  20.681 -0.0449 -0.0670 -0.0553
43077W        W43941  21.220  17.333  17.863 -0.0428  0.1526  0.3514
43078W        W43942  17.608  14.909  20.831 -0.0282  0.4035  0.0097
43079W        W43943  18.658  13.543  17.190  0.0939 -0.2716  0.1528
43080W        W43944  16.392  15.401  18.049 -0.0557  0.0921 -0.0035
43081W        W43945  19.109  18.109  21.375  0.1528  0.0496  0.2974
43082W        W43946  19.209  16.748  21.332 -0.2567 -0.1993  0.0705
43083W        W43947  18.509  15.381  19.313  0.1710 -0.0332  0.2102
43084W        W43948  17.165  14.832  20.238  0.1466 -0.2566 -0.0026
43085W        W43949  20.689  14.632  24.842  0.0006  0.0536  0.1786
43086W        W43950  18.577  14.643  20.222  0.0608  0.0904 -0.1841
43087W        W43951  20.614  15.282  22.017 -0.0588  0.0568 -0.0640
43088W        W43952  22.550  14.573  22.214 -0.2754  0.3197  0.0069
43089W        W43953  21.007  18.777  20.753 -0.0093  0.0376  0.1134
43090W        W43954  20.422  17.243  19.375 -0.0790  0.0746 -0.0360
43091W        W43955  19.612  17.819  19.454  0.0416 -0.0448 -0.1427
43092W        W43956  22.177  20.193  18.831  0.2780 -0.3326 -0.0955
43093W        W43957  20.100  17.355  21.575 -0.0277 -0.0533 -0.1432
43094W        W43958  17.659  18.324  21.592  0.1272  0.3266 -0.0219
43095W        W43959  23.598  14.594  24.195  0.4130  0.4786  0.2421
43096W        W43960  22.437  16.491  19.337  0.0017 -0.0432  0.2985
43097W        W43961  18.353  19.606  22.978  0.0426 -0.0570  0.1416
43098W        W43962  18.192  14.999  19.976  0.2242 -0.4561 -0.3061
43099W        W43963  20.382  17.275  17.198 -0.3593  0.4835 -0.1568
43100W        W43964  20.104  17.643  22.316  0.0256  0.0338 -0.2147
43101W        W43965  20.499  17.446  21.267  0.3059 -0.3203 -0.0453
43102W        W43966  23.364  18.368  22.471 -0.0890 -0.1529 -0.1586
43103W        W43967  20.929  17.501  20.720 -0.1316  0.0253 -0.2978
43104W        W43968  18.892  14.500  21.166  0.2867  0.1206  0.0335
43105W        W43969  17.596  15.720  21.169 -0.2139 -0.0031 -0.1070
43106W        W43970  18.821  15.866  18.650 -0.2401 -0.2268 -0.1917
43107W        W43971  19.082  15.689  17.785  0.0541 -0.0334 -0.1239
43108W        W43972  18.355  16.385  20.978  0.0017  0.0247 -0.2140
43109W        W43973  19.838  14.678  19.868  0.1734 -0.4312 -0.1121
43110W        W43974  19.617  16.521  19.989  0.2277 -0.1889  0.2236
43111W        W43975  19.588  15.970  22.042 -0.6345  0.0346 -0.0452
43112W        W43976  20.760  14.836  21.673 -0.0992 -0.1303 -0.3537
43113W        W43977  22.224  17.311  20.998 -0.3412  0.0584  0.0151
43114W        W43978  18.679  19.542  19.179 -0.0814 -0.1102 -0.0721
43115W        W43979  15.992  18.800  24.296  0.0005  0.2208 -0.0203
43116W        W43980  20.997  13.351  20.073 -0.3142  0.1594  0.2422
43117W        W43981  18.558  14.331  21.531 -0.1893 -0.2487 -0.1116
43118W        W43982  19.639  13.780  20.333 -0.0542 -0.1759 -0.1018
43119W        W43983  19.455  15.545  19.296 -0.4586 -0.1491 -0.1025
43120W        W43984  20.950  13.707  19.745 -0.0428  0.0093  0.2729
43121W        W43985  20.883  16.449  20.949 -0.1604  0.2215 -0.0289
43122W        W43986  19.782  15.583  19.728 -0.4210 -0.2175 -0.2801
43123W        W43987  20.701  14.996  18.696  0.0378  0.0148 -0.1173
43124W        W43988  19.367  14.223  18.576 -0.3826 -0.1084  0.2616
43125W        W43989  21.919  20.214  21.073  0.1598 -0.1936  0.3629
43126W        W43990  21.053  17.880  23.566 -0.1992  0.0175 -0.3149
43127W        W43991  18.954  14.262  20.155 -0.1633 -0.2248 -0.2520
43128W        W43992  15.526  17.589  20.385  0.0996  0.2802 -0.2457
43129W        W43993  18.101  16.906  20.370  0.1695  0.0008  0.0181
43130W        W43994  18.189  15.458  17.319 -0.0828  0.1686  0.0609
43131W        W43995  15.573  16.113  23.059  0.0666  0.0427  0.0195
43132W        W43996  21.012  15.503  20.576 -0.1757 -0.0610  0.0388
43133W        W43997  21.871  15.588  22.470 -0.3313  0.1536 -0.1597
43134W        W43998  19.930  13.744  17.271 -0.1942 -0.1336  0.0841
43135W        W43999  17.250  16.884  17.239 -0.1090  0.1440  0.0561
43136W        W44000  19.310  19.073  19.804 -0.0034 -0.0062 -0.2877
43137W        W44001  18.903  18.057  19.794 -0.0034  0.1853  0.0718
43138W        W44002  18.663  22.094  22.129 -0.1239  0.3387  0.2040
43139W        W44003  19.482  19.059  21.867  0.1430  0.5488 -0.1490
43140W        W44004  17.244  18.517  20.525  0.2710  0.0056  0.0529
43141W        W44005  23.007  15.146  21.028 -0.2924 -0.0930  0.1029
43142W        W44006  15.881  17.940  22.689 -0.1783 -0.1977 -0.0179
43143W        W44007  21.765  13.139  16.661  0.1572 -0.1044 -0.0958
43144W        W44008  20.408  14.558  18.676  0.2609 -0.0596  0.1080
43145W        W44009  19.564  15.834  22.915 -0.0724 -0.1644  0.2838
43146W        W44010  21.462  17.128  21.506  0.2234  0.0171  0.2538
43147W        W44011  16.892  17.933  18.902  0.0937  0.0371  0.0528
43148W        W44012  18.523  19.530  21.422  0.0239  0.2129  0.1047
43149W        W44013  17.708  17.840  19.404  0.0618 -0.3198 -0.1597
43150W        W44014  18.056  18.321  18.395 -0.1925 -0.0200  0.2384
43151W        W44015  19.709  16.892  21.571  0.1500  0.0558  0.2196
43152W        W44016  20.368  13.801  21.492 -0.2449  0.0763  0.2582
43153W        W44017  17.497  17.910  22.378 -0.1117  0.2064  0.1636
43154W        W44018  19.756  17.463  19.820 -0.4211 -0.1779  0.1417
43155W        W44019  12.441  16.591  18.879  0.3108  0.2146 -0.1624
43156W        W44020  18.006  17.157  19.018 -0.5155 -0.0918 -0.1105
43157W        W44021  17.660  20.461  20.216  0.0460  0.2299  0.0005
43158W        W44022  20.983  14.453  21.976  0.0747  0.0116  0.1009
43159W        W44023  20.620  15.555  23.685 -0.0466  0.3741  0.3820
43160W        W44024  19.919  15.963  21.168 -0.0141  0.0303 -0.0665
43161W        W44025  18.381  16.491  21.504 -0.1705  0.0486 -0.2430
43162W        W44026  18.703  13.791  21.651 -0.1293  0.2243  0.0671
43163W        W44027  20.008  18.792  17.845 -0.2102 -0.1444  0.0917
43164W        W44028  21.851  12.716  19.100 -0.1397  0.2356 -0.1165
43165W        W44029  20.129  13.286  17.557 -0.1459 -0.3694 -0.3286
43166W        W44030  22.188  15.060  19.720  0.0875 -0.1238 -0.3416
43167W        W44031  20.186  16.276  19.965  0.0198 -0.0832  0.0164
43168W        W44032  18.631  16.724  20.706  0.3688 -0.2893  0.1223
43169W        W44033  17.853  15.315  20.686 -0.1042 -0.3632  0.1297
43170W        W44034  19.732  13.192  20.343  0.1567 -0.3020 -0.2198
43171W        W44035  20.614  18.809  22.441 -0.5072 -0.0952  0.2734
43172W        W44036  20.861  18.064  24.925 -0.0022 -0.0509 -0.0800
43173W        W44037  18.416  18.696  19.661 -0.1615 -0.0741 -0.0852
43174W        W44038  18.233  17.021  21.173  0.0669 -0.1391 -0.0462
43175W        W44039  19.194  17.140  20.914  0.0291 -0.2126  0.0904
43176W        W44040  17.966  20.225  21.942  0.2354 -0.0895 -0.0948
43177W        W44041  23.015  16.425  20.276  0.0230 -0.0727 -0.0522
43178W        W44042  19.624  17.034  16.993 -0.0194  0.2454 -0.0530
43179W        W44043  20.110  16.853  20.730  0.1729 -0.1093 -0.0834
43180W        W44044  19.034  17.786  21.752  0.0622 -0.0656  0.0309
43181W        W44045  17.628  13.550  20.957  0.2628 -0.1338 -0.0551
43182W        W44046  20.675  16.524  21.422 -0.1331 -0.1159  0.3952
43183W        W44047  15.612  16.698  23.177 -0.0774 -0.0094 -0.2681
43184W        W44048  19.190  16.029  20.101 -0.0096  0.1217 -0.0502
43185W        W44049  18.002  18.405  24.156  0.0440 -0.0495 -0.1537
43186W        W44050  21.396  14.703  18.402 -0.3769  0.0580 -0.0599
43187W        W44051  19.958  16.593  19.577  0.0040  0.1342 -0.2066
43188W        W44052  17.715  17.931  18.600 -0.0503  0.2841 -0.0395
43189W        W44053  22.693  18.282  24.916  0.0519  0.2038  0.3287
43190W        W44054  15.604  15.001  18.388 -0.0649 -0.1268 -0.1378
43191W        W44055  20.572  13.495  17.441  0.2966  0.2268  0.0612
43192W        W44056  20.211  18.287  21.748  0.2912 -0.2192 -0.0674
43193W        W44057  19.737  15.966  20.128 -0.1859 -0.3819  0.0462
43194W        W44058  20.956  17.285  21.174  0.0559 -0.0347 -0.1189
43195W        W44059  19.959  17.289  20.321 -0.3003  0.3753 -0.2539
43196W        W44060  17.794  17.956  20.281  0.0942  0.0979  0.0835
43197W        W44061  21.856  16.453  21.949  0.3811  0.1156  0.0900
43198W        W44062  19.001  16.753  19.402 -0.1420  0.2185 -0.3560
43199W        W44063  19.421  17.714  21.477 -0.1101 -0.0731  0.3392
43200W        W44064  22.798  14.703  21.198 -0.4183 -0.0895  0.0794
43201W        W44065  19.579  16.175  19.560  0.0790 -0.2491  0.2120
43202W        W44066  19.151  16.293  18.073 -0.0866  0.0942 -0.0773
43203W        W44067  19.541  13.854  20.853 -0.1382 -0.1578 -0.1013
43204W        W44068  18.487  17.546  18.980 -0.1293  0.0047 -0.0318
43205W        W44069  19.951  17.507  18.521 -0.1596  0.1004  0.0797
43206W        W44070  20.333  14.685  19.869  0.2960 -0.1352 -0.0244
43207W        W44071  19.175  18.568  22.047 -0.1597  0.2745  0.2148
43208W        W44072  22.118  16.952  20.565  0.0211  0.1994 -0.0122
43209W        W44073  20.337  17.739  21.880  0.0032  0.1317 -0.0565
43210W        W44074  19.195  18.415  18.905 -0.0373  0.3190  0.0035
43211W        W44075  21.108  15.109  20.309  0.1077 -0.0061 -0.2340
43212W        W44076  18.955  17.523  20.192  0.4191 -0.0192 -0.0878
43213W        W44077  17.973  14.029  18.629 -0.1146 -0.0328  0.1261
43214W        W44078  19.086  18.590  19.657 -0.0919  0.0330  0.1849
43215W        W44079  18.573  13.447  18.346 -0.2333 -0.1240  0.0764
43216W        W44080  19.480  13.209  17.892  0.1562  0.0067  0.2658
43217W        W44081  17.883  15.718  19.702  0.4196 -0.3542 -0.0957
43218W        W44082  19.486  15.512  20.178  0.0439  0.0565 -0.1657
43219W        W44083  19.812  16.404  21.460  0.1851  0.0067  0.0613
43220W        W44084  14.486  14.415  21.260  0.0461 -0.0401 -0.3352
43221W        W44085  19.230  17.617  17.489  0.3160  0.1722 -0.2724
43222W        W44086  22.014  13.650  21.334  0.2387 -0.0730 -0.1140
43223W        W44087  15.246  14.492  19.000 -0.1064  0.2596 -0.2017
43224W        W44088  21.389  17.196  20.033 -0.1307 -0.0610  0.1027
43225W        W44089  22.662  14.731  19.048 -0.0267  0.2544 -0.3374
43226W        W44090  21.433  13.965  17.570 -0.0159 -0.0449  0.0339
43227W        W44091  19.665  18.719  20.459 -0.0690  0.0146 -0.0194
43228W        W44092  19.980  19.331  19.717  0.1642  0.0324 -0.0105
43229W        W44093  19.941  17.146  19.476 -0.2741  0.0560  0.0778
43230W        W44094  19.910  17.712  18.993  0.1414 -0.0397 -0.3890
43231W        W44095  20.712  15.345  21.076 -0.2584 -0.2625  0.1063
43232W        W44096  20.704  16.335  20.366 -0.0448 -0.0842  0.1141
43233W        W44097  17.054  15.798  20.099  0.2905 -0.0020 -0.1184
43234W        W44098  21.549  12.353  19.169  0.0662  0.0249  0.0997
43235W        W44099  22.091  17.812  21.495  0.1887  0.2392 -0.0380
43236W        W44100  17.973  16.137  21.142 -0.0455  0.1658 -0.0640
43237W        W44101  19.631  14.276  18.176  0.1365  0.3275  0.1284
43238W        W44102  19.709  19.529  21.772 -0.0294 -0.0167  0.2066
43239W        W44103  20.942  17.543  22.352 -0.2113 -0.1703 -0.0541
43240W        W44104  20.469  18.937  19.000  0.0429 -0.0602  0.4672
43241W        W44105  20.040  17.241  18.958 -0.4880  0.1039 -0.4796
43242W        W44106  21.831  14.134  21.466 -0.0838  0.1029  0.2100
43243W        W44107  20.354  16.223  18.588 -0.1167  0.1931 -0.0484
43244W        W44108  18.105  14.458  19.565  0.1227  0.0321 -0.1436
43245W        W44109  21.859  14.059  20.471 -0.0012 -0.3849 -0.0711
43246W        W44110  19.889  15.982  18.676 -0.2263  0.0302 -0.2489
43247W        W44111  20.653  17.888  21.387 -0.3434 -0.0066 -0.2128
43248W        W44112  22.986  20.169  17.621  0.1600 -0.1071  0.2036
43249W        W44113  20.285  15.967  20.410  0.0744  0.1193  0.2158
43250W        W44114  19.077  15.621  21.921  0.0918 -0.2449 -0.2097
43251W        W44115  23.192  16.042  20.784 -0.3627  0.0307  0.2036
43252W        W44116  21.405  14.228  23.679 -0.0588  0.0068  0.3525
43253W        W44117  18.476  14.792  21.329 -0.0632  0.1277  0.0264
43254W        W44118  18.787  16.372  20.056 -0.1968  0.0525 -0.0680
43255W        W44119  21.332  15.292  19.139  0.0708 -0.0602  0.1886
43256W        W44120  17.105  17.593  22.427  0.2500  0.0826  0.3112
43257W        W44121  20.730  16.930  20.556 -0.1427 -0.1784 -0.0547
43258W        W44122  21.518  18.963  21.664 -0.3964 -0.0978 -0.0909
43259W        W44123  20.770  16.618  23.554 -0.1195  0.1898 -0.3369
43260W        W44124  23.688  16.819  21.510  0.0561 -0.1665  0.2627
43261W        W44125  19.372  18.443  21.550  0.0912 -0.0214  0.1204
43262W        W44126  18.475  18.398  21.224  0.1409 -0.1664 -0.1082
43263W        W44127  21.527  18.879  20.429  0.0316 -0.2580  0.3610
43264W        W44128  20.177  17.096  22.429 -0.0001 -0.1023 -0.0875
43265W        W44129  18.186  16.154  19.107  0.1180  0.1652 -0.0518
43266W        W44130  20.329  16.770  18.745  0.2331 -0.1686  0.1592
43267W        W44131  18.686  18.325  20.539  0.0320 -0.2548  0.1428
43268W        W44132  19.310  19.106  20.398 -0.0771  0.1775  0.2016
43269W        W44133  18.247  18.388  22.728 -0.0696 -0.0101 -0.1102
43270W        W44134  19.521  15.770  17.340 -0.1256  0.1993 -0.1967
43271W        W44135  19.378  17.240  20.099  0.3793  0.0633 -0.0710
43272W        W44136  19.740  18.629  18.658  0.4304 -0.1204  0.2684
43273W        W44137  17.489  15.387  17.710 -0.1251 -0.3617 -0.0826
43274W        W44138  17.917  19.050  26.256 -0.0039 -0.1735  0.1499
43275W        W44139  16.840  16.995  26.374  0.1488 -0.0913 -0.1066
43276W        W44140  19.396  16.932  23.211 -0.1100  0.1576  0.0241
43277W        W44141  23.226  17.317  24.727  0.2160 -0.2179 -0.1155
43278W        W44142  17.057  19.346  21.003 -0.1720 -0.2373 -0.1465
43279W        W44143  20.268  16.847  21.530 -0.0027  0.0452  0.0587
43280W        W44144  19.706  17.812  23.119 -0.1393 -0.3706  0.0807
43281W        W44145  18.777  17.501  22.287  0.4098  0.1931  0.4017
43282W        W44146  19.476  17.278  22.737 -0.0056 -0.0572  0.0945
43283W        W44147  18.187  17.095  24.856  0.0547  0.1015  0.2964
43284W        W44148  17.941  14.068  25.235 -0.1040 -0.3367 -0.0079
43285W        W44149  21.094  17.147  21.912  0.1399  0.1683  0.1440
43286W        W44150  21.395  16.228  21.872  0.0931  0.1047 -0.0431
43287W        W44151  17.691  14.951  22.765  0.1303  0.3071 -0.2579
43288W        W44152  17.023  15.959  26.217 -0.1659 -0.2925  0.1351
43289W        W44153  18.223  16.027  28.273 -0.0321 -0.0345  0.1259
43290W        W44154  19.599  19.499  20.444  0.0512 -0.2092  0.2012
43291W        W44155  19.030  18.036  23.441 -0.3045  0.0967 -0.2114
43292W        W44156  21.490  15.543  25.520  0.2033 -0.0652  0.1680
43293W        W44157  22.532  14.752  23.382 -0.0054  0.0342 -0.2328
43294W        W44158  22.117  14.466  23.267  0.1297  0.4100 -0.1641
43295W        W44159  19.332  16.286  21.375  0.0545 -0.0418 -0.0516
43296W        W44160  16.859  19.639  22.800 -0.1596  0.1586  0.1991
43297W        W44161  17.971  15.777  23.521 -0.0191 -0.2821 -0.0851
43298W        W44162  17.659  20.094  22.794 -0.0855 -0.0741  0.2301
43299W        W44163  18.331  16.677  24.676  0.1084  0.1251  0.0355
43300W        W44164  19.107  14.832  26.711  0.1546  0.0780  0.0055
43301W        W44165  19.082  17.489  23.697 -0.1851 -0.1291  0.1238
43302W        W44166  20.912  16.663  23.082  0.0953 -0.1691  0.0431
43303W        W44167  19.628  16.298  22.495 -0.1744  0.1493 -0.3748
43304W        W44168  21.057  18.055  22.493  0.1706 -0.1835  0.1874
43305W        W44169  18.224  17.945  28.351 -0.2028 -0.1776 -0.2025
43306W        W44170  18.583  16.661  25.166 -0.4889 -0.1178 -0.0403
43307W        W44171  19.885  16.882  23.414 -0.3254  0.1666 -0.2093
43308W        W44172  17.734  17.986  24.079 -0.2474 -0.4167  0.2298
43309W        W44173  22.652  17.451  23.993 -0.0392 -0.0289  0.1980
43310W        W44174  18.472  17.830  21.930  0.3749 -0.0316 -0.2217
43311W        W44175  18.951  19.773  24.251  0.1851  0.0453 -0.1016
43312W        W44176  21.244  16.919  22.727 -0.0154 -0.0074  0.0725
43313W        W44177  21.132  16.655  20.338  0.3443  0.0989  0.0564
43314W        W44178  23.645  17.377  23.240 -0.2888  0.0534 -0.1860
43315W        W44179  22.888  13.926  25.809 -0.1122 -0.0469 -0.0729
43316W        W44180  20.957  17.465  23.844 -0.0769  0.3861  0.1356
43317W        W44181  22.881  19.758  22.529 -0.0118 -0.0865  0.0557
43318W        W44182  19.904  16.415  20.429  0.2575 -0.0665  0.0527
43319W        W44183  16.480  18.698  21.028  0.0274  0.0050 -0.0278
43320W        W44184  17.382  15.684  24.351 -0.2511  0.2633  0.0301
43321W        W44185  21.960  16.860  24.366 -0.1068 -0.0256  0.0180
43322W        W44186  19.262  15.214  24.012 -0.0880  0.0563 -0.2637
43323W        W44187  18.509  16.027  21.340  0.1142 -0.4503  0.3691
43324W        W44188  18.403  18.524  23.801  0.2202 -0.0255 -0.0574
43325W        W44189  18.873  16.706  23.487  0.0749  0.0639  0.0742
43326W        W44190  19.011  17.443  24.811  0.1805 -0.1920 -0.0758
43327W        W44191  22.212  15.236  24.660  0.0501 -0.4088  0.2908
43328W        W44192  20.678  14.358  24.463  0.2219  0.2169 -0.1018
43329W        W44193  17.876  17.432  21.286 -0.1149 -0.2083  0.0256
43330W        W44194  17.489  17.846  19.862 -0.5141 -0.1604 -0.0149
43331W        W44195  21.883  18.110  22.521  0.2530 -0.1345  0.0725
43332W        W44196  18.289  20.189  21.532  0.0970  0.0683  0.0263
43333W        W44197  16.966  20.169  20.661  0.1121 -0.0277 -0.0459
43334W        W44198  22.549  15.754  23.225  0.0365 -0.1708 -0.0371
43335W        W44199  18.566  18.328  24.787  0.0009  0.0468 -0.0969
43336W        W44200  19.452  18.328  25.761  0.1573  0.3632  0.1130
43337W        W44201  18.403  19.245  24.726  0.0278  0.1338  0.0883
43338W        W44202  17.894  16.238  21.597  0.2139 -0.1292  0.0839
43339W        W44203  21.241  14.030  25.704  0.1720 -0.2161  0.0402
43340W        W44204  19.073  14.806  19.660 -0.0513 -0.2486 -0.1016
43341W        W44205  17.772  17.694  23.164  0.1302 -0.2922  0.1736
43342W        W44206  18.923  19.172  20.861  0.0817  0.0527 -0.1101
43343W        W44207  21.058  19.198  21.458 -0.0394 -0.3858 -0.2281
43344W        W44208  22.468  19.689  24.624  0.0942  0.1779 -0.0129
43345W        W44209  20.387  15.211  23.296  0.2485  0.2347 -0.0602
43346W        W44210  22.977  18.917  23.642  0.2814 -0.2142 -0.0941
43347W        W44211  20.087  15.075  24.391 -0.0985  0.3271  0.1768
43348W        W44212  22.235  17.768  22.596 -0.1430  0.1030  0.2291
43349W        W44213  17.689  15.647  25.782 -0.1578  0.0007 -0.1291
43350W        W44214  17.453  17.539  21.547  0.2601 -0.0542 -0.1635
43351W        W44215  19.286  17.826  25.446  0.0155  0.0482  0.1889
43352W        W44216  18.705  15.406  24.507  0.0221  0.3145  0.0457
43353W        W44217  20.272  16.880  24.428 -0.1325 -0.1999 -0.2020
43354W        W44218  18.896  15.498  23.860 -0.2136  0.1130 -0.3375
43355W        W44219  19.147  15.745  25.610 -0.2683  0.3653 -0.1632
43356W        W44220  20.440  15.077  23.741 -0.0048  0.1158  0.3041
43357W        W44221  20.703  13.616  25.027  0.2695  0.1666  0.0192
43358W        W44222  21.544  14.147  24.678  0.2551 -0.0839  0.1111
43359W        W44223  19.546  15.112  22.292  0.1085  0.2220 -0.3097
43360W        W44224  20.226  17.798  25.489 -0.2869 -0.4806 -0.1514
43361W        W44225  18.692  15.035  25.358  0.0488 -0.1699 -0.2074
43362W        W44226  21.364  16.486  25.799 -0.0256  0.2145  0.0624
43363W        W44227  21.197  16.716  24.826  0.1018  0.0049  0.2625
43364W        W44228  19.352  15.464  23.239  0.2226  0.1343 -0.0275
43365W        W44229  21.597  16.287  23.331 -0.2833  0.5093  0.1093
43366W        W44230  19.244  16.742  22.648  0.1992 -0.0767 -0.1905
43367W        W44231  19.695  18.792  21.387  0.1731  0.0353  0.1419
43368W        W44232  18.168  15.908  27.029  0.0407 -0.0826  0.1511
43369W        W44233  19.330  18.185  22.458  0.0954 -0.1691 -0.0482
43370W        W44234  24.213  14.903  23.575 -0.3163  0.1794 -0.0282
43371W        W44235  20.151  18.553  28.913 -0.1233 -0.0565  0.1803
43372W        W44236  19.466  16.536  24.169 -0.0758  0.2042  0.0019
43373W        W44237  20.591  16.228  23.852 -0.4287  0.0635  0.3303
43374W        W44238  20.478  18.516  25.623 -0.2251 -0.2097  0.3671
43375W        W44239  18.577  17.282  25.777  0.2126  0.0674  0.1071
43376W        W44240  19.588  15.480  21.934  0.2346  0.1985  0.0259
43377W        W44241  22.730  17.125  22.824 -0.2332  0.0844  0.0754
43378W        W44242  20.477  15.822  25.653  0.0156  0.0425  0.0856
43379W        W44243  19.445  16.403  25.392 -0.1757  0.1621  0.1182
43380W        W44244  17.407  18.000  21.874  0.0971  0.1097  0.1497
43381W        W44245  18.639  16.320  24.248 -0.0390 -0.0997  0.1692
43382W        W44246  19.058  14.604  24.373 -0.0795  0.1676 -0.1620
43383W        W44247  19.475  15.732  24.689 -0.0963  0.1857 -0.1053
43384W        W44248  18.240  21.825  24.702 -0.0818 -0.1098  0.1149
43385W        W44249  20.545  16.861  22.777 -0.0979  0.2516 -0.1106
43386W        W44250  22.681  15.882  22.681  0.3466  0.0284  0.0941
43387W        W44251  20.988  18.750  23.426  0.1744  0.1828  0.2044
43388W        W44252  21.079  16.614  21.969 -0.2031  0.2781 -0.2648
43389W        W44253  20.546  16.321  23.222  0.1070 -0.3137 -0.0368
43390W        W44254  22.678  16.137  24.713  0.1741  0.0330 -0.0090
43391W        W44255  18.669  17.865  24.040  0.2005  0.3420 -0.1429
43392W        W44256  18.126  14.996  25.411  0.0935  0.1194 -0.0014
43393W        W44257  22.898  15.180  23.563  0.1876 -0.0663  0.0808
43394W        W44258  20.306  19.060  22.833 -0.3018  0.0141 -0.1097
43395W        W44259  18.892  15.753  23.434 -0.0158 -0.3061  0.1598
43396W        W44260  19.479  17.825  23.555  0.0270 -0.0073 -0.1228
43397W        W44261  19.241  17.645  22.201 -0.1860 -0.1336  0.0307
43398W        W44262  19.288  15.269  27.525  0.0962 -0.1046  0.0181
43399W        W44263  17.364  19.575  24.847 -0.1522  0.0144  0.1851
43400W        W44264  19.315  14.897  27.833 -0.0788  0.1200  0.2266
43401W        W44265  20.069  15.021  25.329  0.0268 -0.0174  0.0361
43402W        W44266  21.366  17.645  21.684  0.3890  0.3981  0.0224
43403W        W44267  19.536  18.046  24.336 -0.2269  0.0932  0.0887
43404W        W44268  19.393  18.710  24.043  0.4727 -0.2660  0.1882
43405W        W44269  21.264  16.126  27.407  0.2290 -0.0044  0.0836
43406W        W44270  23.153  19.975  25.738 -0.0062 -0.1508 -0.0808
43407W        W44271  22.001  14.068  22.992  0.1978  0.3639 -0.1571
43408W        W44272  17.868  14.592  25.207 -0.3889 -0.2046 -0.0154
43409W        W44273  17.948  16.035  23.033 -0.1793  0.1542 -0.0466
43410W        W44274  20.184  17.290  23.309  0.0962  0.3636  0.1133
43411W        W44275  20.824  15.270  23.963  0.0860  0.0052 -0.2889
43412W        W44276  21.180  18.792  26.505 -0.0941 -0.0492 -0.2746
43413W        W44277  20.881  16.973  24.474  0.0842  0.1219  0.1038
43414W        W44278  20.951  15.337  23.409 -0.0236 -0.1657 -0.0126
43415W        W44279  20.831  13.950  24.159 -0.2676 -0.0955 -0.2095
43416W        W44280  18.210  18.488  21.655 -0.0307  0.6311 -0.1455
43417W        W44281  21.687  15.709  23.595  0.1178 -0.0416  0.0903
43418W        W44282  20.590  19.009  24.180 -0.1732  0.0147 -0.0219
43419W        W44283  20.039  17.092  21.134  0.1495  0.1009  0.3161
43420W        W44284  20.255  16.504  23.644 -0.0359  0.0010  0.1849
43421W        W44285  20.340  19.658  23.499  0.0294 -0.1244  0.0392
43422W        W44286  19.149  19.007  23.196  0.0441  0.0294 -0.0347
43423W        W44287  21.234  15.107  24.287 -0.0451  0.0410 -0.0492
43424W        W44288  23.249  14.901  23.813 -0.1090 -0.5496 -0.0425
43425W        W44289  19.886  14.330  23.512  0.1653  0.0472 -0.3470
43426W        W44290  19.647  17.878  25.874 -0.1383 -0.1995  0.1347
43427W        W44291  20.446  14.312  21.520  0.4388  0.0228 -0.0061
43428W        W44292  20.025  16.037  22.844  0.0865 -0.2034  0.0141
43429W        W44293  20.136  14.004  22.954  0.0391 -0.0113  0.0861
43430W        W44294  16.691  18.911  26.021  0.1166  0.1478  0.1551
43431W        W44295  19.524  18.652  22.448  0.1610  0.0257  0.0926
43432W        W44296  17.710  16.648  20.200 -0.1285  0.2836 -0.1951
43433W        W44297  18.146  15.868  25.740 -0.0325  0.1871 -0.0203
43434W        W44298  20.506  18.568  24.928  0.4757 -0.0330  0.2515
43435W        W44299  20.643  17.100  24.934  0.0888  0.0397 -0.3153
43436W        W44300  20.961  16.358  25.070 -0.0536  0.2117  0.0014
43437W        W44301  18.872  17.317  24.255 -0.0203 -0.1664 -0.1400
43438W        W44302  20.653  15.599  25.138  0.2472  0.2016  0.2051
43439W        W44303  17.533  18.292  24.484 -0.0145 -0.4288  0.1200
43440W        W44304  16.720  15.381  21.633 -0.1564  0.2777 -0.0436
43441W        W44305  16.844  19.210  23.240  0.0133 -0.1423 -0.3781
43442W        W44306  21.219  20.114  22.746  0.0125 -0.0450 -0.0315
43443W        W44307  16.477  15.247  22.503  0.0252 -0.3300 -0.1352
43444W        W44308  22.064  14.510  22.193  0.0117 -0.0577 -0.4627
43445W        W44309  21.088  18.823  25.100 -0.1195 -0.0983  0.1113
43446W        W44310  19.580  18.789  24.993  0.2156 -0.0883 -0.2021
43447W        W44311  22.843  19.364  21.756  0.1087 -0.0554 -0.3338
43448W        W44312  20.015  15.376  22.131 -0.1823 -0.0261 -0.1552
43449W        W44313  23.459  14.818  23.321 -0.0197 -0.3827 -0.0282
43450W        W44314  19.818  18.532  26.613 -0.1327  0.0138  0.0627
43451W        W44315  17.708  17.395  24.796  0.2279 -0.0689 -0.2254
43452W        W44316  16.815  18.028  25.353 -0.0699  0.1268 -0.0981
43453W        W44317  19.469  13.287  23.444  0.0206  0.1605  0.0712
43454W        W44318  20.020  17.957  23.465 -0.0938 -0.0223 -0.2206
43455W        W44319  21.523  17.358  25.304  0.0069 -0.4988  0.0998
43456W        W44320  20.013  14.847  23.410 -0.3880  0.0721  0.0332
43457W        W44321  21.306  16.356  26.282 -0.2138  0.3813  0.0496
43458W        W44322  21.618  16.044  22.621  0.3518 -0.2024 -0.0549
43459W        W44323  21.068  18.586  22.612 -0.3120  0.2404 -0.2906
43460W        W44324  19.966  16.964  21.981 -0.1539 -0.1802 -0.1663
43461W        W44325  21.055  12.865  22.209 -0.0051  0.1097 -0.0408
43462W        W44326  21.316  19.098  24.776 -0.0369  0.0693  0.0319
43463W        W44327  17.026  19.010  26.469  0.1291  0.0725  0.0368
43464W        W44328  17.422  18.857  23.780 -0.2581 -0.2076  0.1142
43465W        W44329  18.800  18.652  21.525 -0.1100 -0.1523  0.1757
43466W        W44330  17.334  13.765  23.184 -0.0955  0.0200 -0.0561
43467W        W44331  19.839  15.514  25.044  0.2997 -0.2112 -0.1746
43468W        W44332  18.902  16.269  25.422  0.4625 -0.0462  0.1898
43469W        W44333  23.429  15.373  24.070  0.2271 -0.1597  0.2875
43470W        W44334  21.062  15.264  22.471 -0.1059 -0.0200 -0.1306
43471W        W44335  19.050  15.731  21.270  0.3380  0.1260  0.0633
43472W        W44336  17.209  16.025  25.114  0.2462 -0.0102 -0.0216
43473W        W44337  18.006  16.296  23.450  0.1464  0.0751 -0.0433
43474W        W44338  16.396  18.586  23.273 -0.3031 -0.2680 -0.2432
43475W        W44339  20.008  13.278  25.724  0.0676  0.2948 -0.2481
43476W        W44340  21.184  17.176  20.467  0.3965 -0.0222  0.1418
43477W        W44341  20.050  15.587  25.525  0.4131  0.1076 -0.1072
43478W        W44342  21.287  13.763  24.389 -0.2787  0.0038  0.2128
43479W        W44343  18.050  16.704  21.858 -0.1642 -0.1490 -0.2188
43480W        W44344  18.364  16.355  27.354  0.1365 -0.1612  0.1695
43481W        W44345  22.596  13.075  26.143  0.0019  0.0333  0.3121
43482W        W44346  17.479  18.087  23.007  0.0238 -0.2572  0.1178
43483W        W44347  18.411  17.271  22.484  0.2068 -0.1749 -0.1690
43484W        W44348  20.563  14.924  25.908  0.0161 -0.2345  0.0439
43485W        W44349  19.426  16.801  23.717  0.1522 -0.1144 -0.0709
43486W        W44350  21.470  14.557  26.446  0.0015 -0.0439 -0.1318
43487W        W44351  20.729  14.490  25.346  0.1747 -0.0295  0.1527
43488W        W44352  23.518  16.816  22.178 -0.1005 -0.1805 -0.1105
43489W        W44353  20.721  15.836  23.214  0.3447  0.0666 -0.0810
43490W        W44354  17.352  19.555  22.867  0.1730  0.2297 -0.0888
43491W        W44355  20.930  17.014  22.346  0.0731 -0.3569 -0.1404
43492W        W44356  20.364  16.840  23.270  0.2018  0.1286 -0.1877
43493W        W44357  15.250  18.679  27.325 -0.2096  0.3225 -0.0069
43494W        W44358  20.376  16.155  27.472  0.0917  0.1175 -0.0015
43495W        W44359  22.014  14.167  24.529 -0.0153 -0.0896  0.0517
43496W        W44360  20.769  17.952  25.434 -0.1279 -0.1776  0.0801
43497W        W44361  18.108  15.167  21.435 -0.1613 -0.1179  0.1028
43498W        W44362  20.300  20.478  21.605 -0.2042 -0.1220  0.0341
43499W        W44363  18.052  15.804  22.147 -0.3030 -0.0038 -0.0231
43500W        W44364  20.191  18.265  23.050 -0.2036 -0.1364 -0.2738
43501W        W44365  20.581  16.110  25.221  0.2511  0.1210  0.0226
43502W        W44366  24.005  17.762  23.300  0.0781  0.0247  0.2166
43503W        W44367  19.587  13.972  23.833  0.3213  0.2866  0.0449
43504W        W44368  17.910  18.110  25.523  0.2810  0.0993  0.2300
43505W        W44369  20.951  17.164  25.843  0.3623  0.0256  0.0019
43506W        W44370  18.612  16.851  24.200 -0.0159  0.2844 -0.0515
43507W        W44371  20.848  18.997  24.642 -0.1624  0.3538 -0.1018
43508W        W44372  17.272  16.576  24.937 -0.1305  0.0321  0.4065
43509W        W44373  21.727  17.474  23.824  0.0253  0.0190 -0.0003
43510W        W44374  22.177  15.769  23.959 -0.3553 -0.0669  0.1240
43511W        W44375  19.779  15.835  23.473  0.1598 -0.3221  0.0650
43512W        W44376  20.527  17.371  24.535 -0.0242  0.0667 -0.2019
43513W        W44377  23.224  15.832  22.074  0.0723  0.0405  0.0034
43514W        W44378  20.460  17.820  24.762  0.0075 -0.0649  0.2567
43515W        W44379  16.987  16.141  26.676 -0.0573  0.1017  0.1921
43516W        W44380  21.702  14.966  21.403  0.0007 -0.0851  0.0347
43517W        W44381  17.501  16.325  21.310  0.4276  0.4128  0.0848
43518W        W44382  20.639  17.260  25.481 -0.1148  0.1087  0.1447
43519W        W44383  16.615  18.554  22.013 -0.1827  0.2493  0.1174
43520W        W44384  21.912  17.004  21.526  0.0960 -0.1359 -0.3633
43521W        W44385  19.926  20.512  24.712 -0.1712  0.3080 -0.1534
43522W        W44386  22.742  19.896  23.497 -0.0649 -0.3051 -0.1623
43523W        W44387  19.833  15.545  24.098  0.1267 -0.0441  0.2071
43524W        W44388  21.363  16.836  23.293  0.0421 -0.1586 -0.0293
43525W        W44389  21.261  19.953  25.092 -0.0229  0.3596 -0.4033
43526W        W44390  22.579  17.070  25.122 -0.0217  0.0436  0.0972
43527W        W44391  20.476  17.657  24.097 -0.2269  0.0589 -0.0669
43528W        W44392  18.376  18.432  23.254  0.1602 -0.0339  0.2801
43529W        W44393  19.609  17.279  23.662 -0.0501 -0.4095  0.2288
43530W        W44394  20.292  15.733  20.936  0.1181 -0.2549  0.1778
43531W        W44395  20.276  16.499  25.132 -0.0819  0.0172  0.4830
43532W        W44396  20.150  19.462  24.202  0.0219  0.0910 -0.1088
43533W        W44397  21.125  16.179  22.258  0.1047  0.3205  0.2196
43534W        W44398  19.235  17.077  22.277  0.1733 -0.0663 -0.2115
43535W        W44399  20.380  16.887  25.376 -0.0472 -0.0188  0.1203
43536W        W44400  24.700  16.510  23.998 -0.1464  0.0824  0.0941
43537W        W44401  19.656  17.353  21.330 -0.1574  0.1112 -0.5667
43538W        W44402  17.925  18.968  22.503  0.2172 -0.1548 -0.2522
43539W        W44403  18.790  18.580  25.184  0.2103 -0.2545  0.0455
43540W        W44404  18.263  19.394  22.192 -0.0187  0.0288  0.0093
43541W        W44405  20.047  18.576  24.022  0.1572  0.2155 -0.0707
43542W        W44406  19.987  16.107  25.392  0.1597  0.0546 -0.1222
43543W        W44407  22.300  17.346  21.680 -0.0010 -0.0006  0.4573
43544W        W44408  21.443  18.106  22.837 -0.1043 -0.2683  0.0907
43545W        W44409  22.226  17.122  23.738  0.2109  0.3036  0.1445
43546W        W44410  22.239  14.837  26.076 -0.2253  0.0775  0.2268
43547W        W44411  20.864  16.745  25.407 -0.0512  0.2965  0.0581
43548W        W44412  21.308  16.401  22.884  0.0510  0.0009  0.0765
43549W        W44413  20.533  13.467  22.236 -0.1494  0.3126  0.1703
43550W        W44414  17.580  18.686  24.236  0.1481  0.0646 -0.0339
43551W        W44415  21.147  14.228  26.151  0.0813 -0.0157  0.0480
43552W        W44416  18.727  18.911  23.000 -0.2524 -0.1291  0.1013
43553W        W44417  19.787  16.895  22.719  0.3211 -0.0697  0.0282
43554W        W44418  19.795  15.341  20.764 -0.4660  0.2069  0.0673
43555W        W44419  17.797  16.845  25.566  0.0872  0.3213  0.2184
43556W        W44420  17.863  19.315  25.548 -0.0544  0.1298  0.1268
43557W        W44421  21.441  14.663  24.951  0.2582  0.0333  0.0069
43558W        W44422  23.098  14.098  27.852 -0.0431 -0.3261 -0.2304
43559W        W44423  20.548  15.011  25.223  0.3925  0.1279  0.1484
43560W        W44424  18.948  18.995  22.212  0.1112 -0.0005  0.1414
43561W        W44425  24.351  15.460  21.466  0.1528  0.0418  0.1030
43562W        W44426  20.227  18.043  22.574 -0.0992 -0.3080  0.1338
43563W        W44427  18.575  16.930  21.577  0.1356 -0.2575  0.1100
43564W        W44428  20.313  14.288  21.053 -0.0134 -0.1134 -0.1084
43565W        W44429  21.041  15.577  22.895  0.1757 -0.0681 -0.2638
43566W        W44430  16.968  15.955  25.592  0.2045  0.2272  0.1524
43567W        W44431  17.188  17.471  23.496 -0.1347  0.0124  0.2753
43568W        W44432  21.691  13.793  23.769 -0.1988  0.0301  0.3487
43569W        W44433  21.643  14.823  23.503  0.1335  0.2259 -0.3079
43570W        W44434  23.627  16.104  22.715  0.0370 -0.2522 -0.2225
43571W        W44435  23.293  14.342  23.235 -0.3382  0.1141  0.1649
43572W        W44436  20.205  16.918  24.929 -0.2458 -0.0104 -0.0429
43573W        W44437  17.381  17.342  25.302 -0.1288 -0.2591 -0.1884
43574W        W44438  17.519  16.788  22.823 -0.3563  0.0290 -0.0300
43575W        W44439  22.079  18.646  26.253 -0.0779  0.0143 -0.0871
43576W        W44440  22.235  18.626  23.784 -0.0725 -0.4141  0.0173
43577W        W44441  21.440  18.632  24.397  0.2993 -0.0238 -0.0333
43578W        W44442  21.894  18.817  21.095  0.0086 -0.1011 -0.0660
43579W        W44443  19.774  18.267  22.753 -0.3522 -0.2553  0.0804
43580W        W44444  19.412  15.247  24.981 -0.2240 -0.0698 -0.1147
43581W        W44445  20.867  17.613  21.854  0.0791 -0.1345  0.0674
43582W        W44446  19.728  18.836  23.734 -0.3560  0.0629  0.2886
43583W        W44447  20.913  15.502  20.044 -0.0600  0.1226  0.1132
43584W        W44448  18.949  14.803  25.793  0.0751  0.2893  0.1036
43585W        W44449  22.632  15.506  22.236 -0.3690  0.0282 -0.2214
43586W        W44450  20.598  18.318  22.737  0.1239  0.2645 -0.0513
43587W        W44451  17.653  18.662  22.918  0.0389 -0.2575 -0.0774
43588W        W44452  20.204  18.868  24.566 -0.1249 -0.1066 -0.0220
43589W        W44453  18.448  15.765  23.755  0.1198  0.2051 -0.0648
43590W        W44454  23.053  12.340  25.664 -0.0839  0.2308  0.0339
43591W        W44455  20.836  18.335  23.666  0.0195 -0.1425  0.2648
43592W        W44456  23.099  15.608  25.025  0.3248  0.1001  0.0699
43593W        W44457  17.201  20.019  23.052  0.0898 -0.1066 -0.0144
43594W        W44458  21.749  18.052  20.532  0.0184  0.0219  0.0200
43595W        W44459  19.467  19.192  26.613 -0.0954  0.1011 -0.1509
43596W        W44460  21.569  15.582  21.898  0.0212 -0.2776 -0.0530
43597W        W44461  22.156  17.685  20.493 -0.0408 -0.0698 -0.3698
43598W        W44462  20.402  20.307  23.966  0.2286  0.3218 -0.0469
43599W        W44463  17.275  15.548  25.413  0.3254 -0.1026  0.1402
43600W        W44464  15.447  19.886  24.921  0.0442 -0.0763  0.1469
43601W        W44465  18.178  18.882  23.437 -0.0840  0.3616  0.1150
43602W        W44466  18.589  16.547  21.922  0.0975  0.0906 -0.0602
43603W        W44467  21.126  14.743  24.567 -0.1074 -0.0369  0.0910
43604W        W44468  24.840  15.983  22.217 -0.2244  0.1986 -0.1392
43605W        W44469  21.888  17.717  24.948  0.1991  0.1997  0.1070
43606W        W44470  19.043  16.827  21.821 -0.0615 -0.1842  0.2202
43607W        W44471  21.766  18.080  25.324 -0.0980  0.1023  0.0278
43608W        W44472  22.015  17.335  24.206 -0.1952  0.1182  0.1835
43609W        W44473  18.303  18.848  24.204  0.0102  0.0485  0.1016
43610W        W44474  19.895  18.009  23.990  0.1429  0.0958  0.0537
43611W        W44475  21.638  15.891  24.092 -0.0289 -0.1528  0.2117
43612W        W44476  19.615  13.677  21.978  0.2060 -0.1438  0.0878
43613W        W44477  18.849  17.553  25.333  0.0759  0.3993 -0.0556
43614W        W44478  18.554  15.540  21.264  0.1245 -0.0802 -0.0357
43615W        W44479  19.400  16.459  24.687  0.0286 -0.2062  0.2375
43616W        W44480  19.601  19.700  22.523 -0.1231 -0.2611 -0.1874
43617W        W44481  21.557  19.356  23.690  0.2540  0.3118 -0.3025
43618W        W44482  19.638  16.925  24.471  0.0583 -0.0118 -0.1977
43619W        W44483  19.312  18.180  23.017  0.0088 -0.1592  0.1160
43620W        W44484  17.919  18.273  23.045  0.1293 -0.1274 -0.0453
43621W        W44485  20.621  18.779  23.716  0.1185 -0.1640 -0.2599
43622W        W44486  19.635  13.914  22.802  0.0759 -0.0243 -0.3184
43623W        W44487  21.057  16.243  23.263  0.3335  0.0224  0.3023
43624W        W44488  20.514  12.895  22.098 -0.2000  0.1058  0.1772
43625W        W44489  19.596  16.858  21.051 -0.2536 -0.2105 -0.1891
43626W        W44490  18.787  19.518  22.116 -0.0951 -0.0993 -0.2940
43627W        W44491  15.793  19.124  23.256 -0.0140 -0.0613  0.0195
43628W        W44492  22.142  15.989  22.773 -0.0980 -0.2215  0.0183
43629W        W44493  15.092  19.023  25.560 -0.0893 -0.0312  0.0113
43630W        W44494  18.373  16.177  25.477 -0.0463  0.0098  0.1437
43631W        W44495  17.472  16.121  26.463  0.0688 -0.1974  0.0966
43632W        W44496  21.020  14.837  25.111  0.0323 -0.2403  0.0650
43633W        W44497  20.971  14.853  23.665  0.2301 -0.0427 -0.2743
43634W        W44498  18.620  12.371  25.060 -0.1468 -0.1138  0.1285
43635W        W44499  18.732  18.869  23.987 -0.3234  0.0451 -0.2099
43636W        W44500  23.896  13.794  19.825 -0.3910  0.1141  0.0206
43637W        W44501  21.000  20.076  24.613  0.2187  0.2313 -0.4654
43638W        W44502  21.755  20.609  24.383 -0.1531  0.0307  0.1554
43639W        W44503  21.185  17.703  22.951 -0.2677  0.0742  0.0615
43640W        W44504  19.397  17.274  21.833  0.0942  0.2084  0.1275
43641W        W44505  20.581  14.359  22.880 -0.2781  0.1529  0.1018
43642W        W44506  21.489  15.459  24.476 -0.1691 -0.0233  0.1934
43643W        W44507  18.387  16.564  23.242  0.2211 -0.0320 -0.0570
43644W        W44508  24.047  16.948  21.900  0.1814 -0.2905 -0.0358
43645W        W44509  21.567  15.186  22.329 -0.1077 -0.0012  0.1667
43646W        W44510  22.103  15.496  23.555 -0.2352 -0.0219 -0.0710
43647W        W44511  20.498  15.853  22.774 -0.0381  0.0732  0.3086
43648W        W44512  16.698  14.490  27.699 -0.0227  0.0077 -0.0074
43649W        W44513  20.363  16.255  24.694 -0.2785  0.0702 -0.0775
43650W        W44514  18.725  16.996  22.187 -0.1274  0.5490 -0.2475
43651W        W44515  20.353  14.642  27.238  0.2839  0.3266  0.0609
43652W        W44516  20.332  18.675  26.756 -0.1989  0.3901  0.1584
43653W        W44517  20.332  14.681  24.173 -0.1309 -0.0323 -0.1596
43654W        W44518  16.644  18.364  21.516 -0.1543 -0.0531 -0.3354
43655W        W44519  17.677  19.633  25.207 -0.0753 -0.2584 -0.1600
43656W        W44520  18.834  16.808  25.596 -0.3354  0.0433 -0.1323
43657W        W44521  21.365  19.494  24.203 -0.2124 -0.0076 -0.1749
43658W        W44522  19.596  17.393  26.728  0.0891 -0.0653 -0.0170
43659W        W44523  21.643  18.797  22.724 -0.0163  0.1171  0.0554
43660W        W44524  20.374  18.204  25.224  0.0858  0.1848 -0.0096
43661W        W44525  20.473  19.177  22.096  0.0880  0.0393  0.1431
43662W        W44526  19.932  14.642  24.505 -0.2047  0.2669  0.4562
43663W        W44527  21.851  19.298  24.936 -0.0046 -0.0353 -0.1225
43664W        W44528  21.193  20.408  23.927  0.0255  0.0964 -0.0897
43665W        W44529  20.097  16.554  22.990 -0.0760  0.3614  0.0847
43666W        W44530  17.576  17.617  25.677  0.2315 -0.3027  0.0021
43667W        W44531  18.596  19.515  20.920  0.4675 -0.0563 -0.0165
43668W        W44532  21.384  15.174  23.788 -0.2123  0.0858 -0.0897
43669W        W44533  19.678  17.882  22.391  0.2109  0.0191  0.0395
43670W        W44534  20.637  18.401  26.518 -0.0438  0.0748 -0.1330
43671W        W44535  16.312  17.607  23.464 -0.1247  0.0847 -0.0565
43672W        W44536  20.758  19.366  19.258  0.1165 -0.1364  0.0597
43673W        W44537  19.171  18.147  28.296  0.3536 -0.0059  0.1603
43674W        W44538  21.415  16.902   0.088  0.3939  0.2120 -0.1670
43675W        W44539  24.004  18.646  25.132 -0.4773 -0.1422 -0.2733
43676W        W44540  22.208  16.415  27.140  0.0276  0.2613  0.2120
43677W        W44541  18.137  18.858  22.909 -0.2484  0.0954 -0.0142
43678W        W44542  17.459  15.461  27.185 -0.0050 -0.1572 -0.0494
43679W        W44543  18.943  16.350  27.352 -0.0588  0.0947  0.3670
43680W        W44544  16.238  16.028  25.962 -0.0262  0.3165 -0.0255
43681W        W44545  19.061  16.527  27.805  0.1208  0.0103  0.2356
43682W        W44546  17.375  12.693   1.011  0.0069 -0.3912  0.1177
43683W        W44547  20.376  14.462   0.068 -0.2567  0.3814  0.0357
43684W        W44548  21.198  16.974  27.378  0.1538 -0.2251 -0.1071
43685W        W44549  19.781  14.960  27.458  0.1227 -0.0401 -0.0204
43686W        W44550  21.309  17.490  26.943  0.2475  0.0139 -0.0164
43687W        W44551  19.714  15.251  28.512  0.0214  0.2006  0.0485
43688W        W44552  20.736  16.590  28.691 -0.0925  0.0449 -0.0012
43689W        W44553  20.005  18.284  25.775  0.0231 -0.0220 -0.1820
43690W        W44554  17.004  14.499   1.488  0.2822 -0.0394  0.1378
43691W        W44555  21.384  17.570   0.837 -0.2201 -0.1764 -0.0791
43692W        W44556  21.989  17.355  26.947 -0.2085  0.5048  0.1139
43693W        W44557  19.329  17.826  26.758 -0.0599 -0.0342 -0.2425
43694W        W44558  20.069  14.503  27.653  0.0448 -0.0457  0.1066
43695W        W44559  16.770  18.636  28.051 -0.0520  0.1757  0.0580
43696W        W44560  17.224  16.071  28.568 -0.1398  0.1655 -0.3101
43697W        W44561  20.058  16.222   0.306  0.0779 -0.2607 -0.0730
43698W        W44562  22.270  12.676   1.231 -0.0091 -0.1051  0.2201
43699W        W44563  22.047  15.862  27.871 -0.0584 -0.0159  0.1277
43700W        W44564  19.587  16.874  27.748 -0.0399 -0.0294  0.0711
43701W        W44565  23.211  19.624  27.510  0.0674  0.0003 -0.0777
43702W        W44566  19.968  17.158  25.333  0.1000  0.0663  0.0673
43703W        W44567  20.436  17.397  27.128 -0.0053  0.1129 -0.1754
43704W        W44568  22.295  17.743   0.931  0.0026  0.5133  0.3132
43705W        W44569  18.832  16.569  29.139 -0.3124  0.0618 -0.2493
43706W        W44570  21.759  17.110   2.522  0.0891  0.0625 -0.0773
43707W        W44571  16.978  15.699   0.324  0.0295  0.1553 -0.1413
43708W        W44572  21.494  18.128  27.604  0.0492 -0.3927 -0.0698
43709W        W44573  19.185  12.682  27.265  0.0085  0.0674  0.2433
43710W        W44574  17.715  18.693  28.610 -0.0224 -0.2332 -0.0854
43711W        W44575  24.021  18.129  25.232 -0.2846 -0.1221 -0.3098
43712W        W44576  19.657  17.314  25.736 -0.0443  0.3561  0.0510
43713W        W44577  22.873  14.885  25.386 -0.0303  0.0852 -0.0737
43714W        W44578  23.596  17.691   0.251  0.0117  0.0149  0.0075
43715W        W44579  21.325  19.006  27.772 -0.3132 -0.0911  0.2991
43716W        W44580  22.336  19.823  27.227 -0.2364 -0.2168  0.0543
43717W        W44581  18.528  18.807   0.559  0.2878  0.2451 -0.0373
43718W        W44582  20.600  19.924  25.837  0.2178  0.0935 -0.0602
43719W        W44583  17.985  15.289  27.594 -0.2176 -0.2779  0.0396
43720W        W44584  21.810  14.465   0.266 -0.2855  0.3507  0.1265
43721W        W44585  21.102  17.533  25.512  0.2228  0.1312  0.2338
43722W        W44586  19.865  16.530  27.480  0.0893 -0.0498  0.2271
43723W        W44587  20.777  18.554  26.022  0.2720  0.1780  0.0729
43724W        W44588  18.355  16.100  26.121 -0.2972 -0.0674 -0.1692
43725W        W44589  19.331  17.314  27.122  0.0396  0.2323  0.1980
43726W        W44590  22.519  15.992  24.260 -0.0277 -0.1139  0.1390
43727W        W44591  19.421  12.981  25.051  0.2672  0.0070  0.1965
43728W        W44592  15.983  18.152  25.942  0.1211 -0.0521  0.1726
43729W        W44593  19.369  16.281  26.268 -0.1507  0.0124  0.0169
43730W        W44594  23.325  15.782  27.954 -0.1853  0.2636 -0.1400
43731W        W44595  21.587  18.671  24.905 -0.0184 -0.1547 -0.0287
43732W        W44596  21.551  19.973  26.783  0.0186  0.1320 -0.0912
43733W        W44597  22.095  15.929  25.351 -0.0796  0.0650  0.4015
43734W        W44598  20.835  17.614  28.475 -0.2082 -0.0722 -0.0559
43735W        W44599  18.746  15.060  28.962 -0.0623  0.0192  0.1531
43736W        W44600  20.178  17.513  27.813 -0.1045 -0.4429  0.3001
43737W        W44601  18.468  13.942  27.304 -0.0014  0.3214  0.2890
43738W        W44602  20.301  17.937  26.526 -0.3290  0.0724  0.0798
43739W        W44603  19.951  15.256  26.320  0.0821 -0.1763  0.2147
43740W        W44604  20.292  17.457  25.124 -0.0875  0.0483  0.1435
43741W        W44605  17.119  18.181  27.759  0.1481 -0.2669  0.0586
43742W        W44606  18.949  18.480  27.676  0.2657  0.1671  0.3553
43743W        W44607  21.307  18.845  27.002 -0.0507 -0.1639 -0.1940
43744W        W44608  21.126  19.035  24.203 -0.0956 -0.2501 -0.1804
43745W        W44609  22.244  14.379  28.176 -0.1055  0.0004  0.1295
43746W        W44610  21.659  16.171  27.074 -0.0435 -0.0100  0.2503
43747W        W44611  22.298  18.163  26.322  0.2804  0.0817  0.1884
43748W        W44612  19.802  17.656  29.052  0.1080  0.1654  0.0605
43749W        W44613  18.503  17.489  29.045  0.0359  0.0321 -0.0549
43750W        W44614  17.705  15.679  28.727  0.3394 -0.0187  0.1624
43751W        W44615  18.727  16.417  26.311 -0.0690  0.0327 -0.1158
43752W        W44616  22.518  18.372  25.892 -0.0787 -0.0018  0.0373
43753W        W44617  19.615  16.153  26.747  0.0347 -0.2018 -0.0334
43754W        W44618  20.806  15.484  28.951  0.0447 -0.0900  0.0706
43755W        W44619  20.839  14.487  25.797 -0.0109  0.0036  0.0016
43756W        W44620  21.912  14.219  28.473  0.1831 -0.3293 -0.0656
43757W        W44621  21.503  15.146  27.809  0.0878 -0.0912 -0.0246
43758W        W44622  20.677  15.008  26.957 -0.1342 -0.0993  0.1508
43759W        W44623  22.860  17.911  27.340 -0.0311 -0.1705  0.1204
43760W        W44624  20.204  13.948  26.720 -0.0018 -0.1868  0.0097
43761W        W44625  22.762  15.294   0.878  0.1491 -0.0267  0.1877
43762W        W44626  23.360  14.871   0.077  0.3897 -0.1558  0.3996
43763W        W44627  21.987  17.591  25.956 -0.1700 -0.0613  0.0483
43764W        W44628  19.906  12.491  26.951 -0.0286 -0.2519 -0.2157
43765W        W44629  18.470  18.281  28.029  0.2860 -0.0504 -0.0538
43766W        W44630  17.103  18.007  25.821  0.0258 -0.0555 -0.0262
43767W        W44631  19.285  12.407  26.866  0.3648  0.3137  0.0353
43768W        W44632  23.673  15.124  26.631 -0.2618 -0.0785  0.0801
43769W        W44633  19.043  19.144  26.337  0.0291 -0.1883 -0.0517
43770W        W44634  20.211  19.717   1.020 -0.0264  0.1621 -0.3427
43771W        W44635  17.278  14.637  26.618  0.2579 -0.1350 -0.1526
43772W        W44636  20.679  16.348  26.358  0.1599  0.0213  0.1375
43773W        W44637  25.963  18.284  25.784  0.3166 -0.1123  0.0533
43774W        W44638  19.389  17.394  25.208 -0.0772 -0.0465  0.2041
43775W        W44639  21.210  15.826  27.053  0.1751 -0.1351  0.1401
43776W        W44640  23.914  18.421  26.119  0.0315  0.3011 -0.0521
43777W        W44641  21.813  13.928  28.040  0.1715  0.1943 -0.1043
43778W        W44642  21.677  14.211  27.417 -0.3552 -0.1012  0.0063
43779W        W44643  20.160  17.822  26.055  0.0792  0.0464  0.4105
43780W        W44644  19.456  20.033  28.964  0.1706 -0.1314 -0.0950
43781W        W44645  20.352  12.535  26.719  0.3094 -0.1246 -0.0146
43782W        W44646  17.129  15.829   0.854  0.0158  0.0117  0.0974
43783W        W44647  21.029  20.042  26.835 -0.1023 -0.0649 -0.0229
43784W        W44648  20.560  18.049  23.362  0.0304  0.2659 -0.0209
43785W        W44649  22.529  17.614  27.151  0.3289  0.3532 -0.0263
43786W        W44650  20.666  19.654  26.657  0.1252  0.1333  0.4584
43787W        W44651  22.130  17.732  24.496  0.0512 -0.1024 -0.5109
43788W        W44652  19.432  14.526  27.398 -0.0558  0.2073 -0.1279
43789W        W44653  23.331  13.585  26.370  0.3194  0.1002 -0.0665
43790W        W44654  20.405  17.330   0.510  0.0435 -0.1708 -0.0096
43791W        W44655  22.773  16.585  26.351  0.4729 -0.2099 -0.2007
43792W        W44656  20.917  18.397  25.369 -0.0323 -0.2154  0.0136
43793W        W44657  21.027  15.345  25.372  0.2044 -0.2026 -0.0072
43794W        W44658  20.825  15.884  24.059  0.0899 -0.0482 -0.1697
43795W        W44659  20.086  18.864  26.347 -0.0010  0.1071  0.2760
43796W        W44660  20.983  15.958  26.262 -0.3429 -0.1313  0.1993
43797W        W44661  21.636  18.987  25.263  0.3952  0.1544  0.1128
43798W        W44662  21.533  18.627  27.402  0.1151 -0.0616  0.0759
43799W        W44663  19.082  15.857  26.093  0.0832 -0.2017  0.0049
43800W        W44664  20.149  17.011  27.587 -0.0112 -0.2542  0.0960
43801W        W44665  20.225  18.253  26.976 -0.0752  0.0482 -0.2038
43802W        W44666  20.429  17.793  28.298 -0.0991  0.0008 -0.1901
43803W        W44667  22.489  17.743   1.592 -0.2763 -0.2220  0.1359
43804W        W44668  22.086  15.584  27.313 -0.1748  0.0605 -0.1017
43805W        W44669  20.383  19.101  25.580 -0.2174 -0.1371  0.2296
43806W        W44670  20.526  15.782  26.349  0.1874  0.1217  0.1347
43807W        W44671  20.600  18.337  27.893  0.2222  0.0816 -0.0783
43808W        W44672  19.644  13.928  28.743 -0.0704  0.0010 -0.2066
43809W        W44673  19.808  17.601  26.315  0.0915  0.0744  0.2383
43810W        W44674  21.279  16.688   1.276  0.3201 -0.2287  0.0617
43811W        W44675  20.820  19.739  25.445 -0.3370 -0.0247  0.2551
43812W        W44676  21.927  17.230  25.663 -0.0901  0.0835 -0.1796
43813W        W44677  19.377  18.093  27.739 -0.1634 -0.1787  0.2093
43814W        W44678  22.005  15.183  27.815  0.2558  0.1726  0.2702
43815W        W44679  19.497  21.416  26.108  0.0725  0.2957 -0.2334
43816W        W44680  19.198  17.533  27.561 -0.0919 -0.1176  0.3574
43817W        W44681  21.708  14.703  27.308  0.0653  0.1093 -0.1185
43818W        W44682  19.509  16.840  26.739 -0.0402  0.3009  0.4004
43819W        W44683  22.706  16.177  27.082 -0.2004 -0.1655 -0.1190
43820W        W44684  23.718  17.460  28.581 -0.4848 -0.0572 -0.1445
43821W        W44685  21.416  18.397  28.561 -0.0531  0.0746  0.0006
43822W        W44686  20.013  16.801  28.073  0.3726 -0.1254  0.1030
43823W        W44687  23.291  18.189  27.535 -0.0395 -0.1374  0.1159
43824W        W44688  16.041  15.646  27.082 -0.5109 -0.0426 -0.0116
43825W        W44689  20.436  16.662  28.279 -0.1160 -0.0714  0.2358
43826W        W44690  20.889  15.934  24.827  0.0189 -0.2106  0.0295
43827W        W44691  22.139  14.070   0.330  0.0271 -0.0670  0.2931
43828W        W44692  22.397  12.778  28.591 -0.0196  0.2093  0.0778
43829W        W44693  19.939  18.137   0.356  0.0548 -0.1552 -0.0607
43830W        W44694  20.185  19.009  23.794  0.0358 -0.0831 -0.0647
43831W        W44695  19.126  13.984  25.552 -0.0482  0.2312 -0.1822
43832W        W44696  20.768  15.484  27.106  0.0071  0.1213 -0.0784
43833W        W44697  22.749  12.536  28.998  0.1667 -0.2543  0.3080
43834W        W44698  18.412  17.914  26.669  0.1580  0.0008  0.0191
43835W        W44699  20.245  18.810   0.294  0.3980 -0.1457 -0.0229
43836W        W44700  19.953  16.542  24.715  0.1268 -0.1193  0.4483
43837W        W44701  19.578  12.626  27.554 -0.1127  0.0066 -0.0386
43838W        W44702  20.057  15.688  26.643 -0.2010 -0.1786 -0.4215
43839W        W44703  18.240  18.741  25.448  0.0070  0.1721 -0.0428
43840W        W44704  20.104  19.344  26.006  0.0232  0.1202  0.1065
43841W        W44705  21.397  18.173  28.105  0.1381 -0.3643 -0.0189
43842W        W44706  19.331  17.157  28.044 -0.2481 -0.2971  0.2974
43843W        W44707  20.793  16.134  27.111 -0.0174 -0.1841 -0.1386
43844W        W44708  19.055  17.797   0.932 -0.3707 -0.0655  0.0127
43845W        W44709  20.088  14.953  26.659  0.1040 -0.0462  0.0714
43846W        W44710  22.638  19.531  25.407 -0.1411  0.0617  0.0018
43847W        W44711  19.550  17.843  27.270 -0.0559 -0.1449  0.3419
43848W        W44712  22.458  16.245  26.661  0.0327  0.1588 -0.1922
43849W        W44713  20.004  18.149   0.865 -0.0624 -0.1897 -0.0238
43850W        W44714  19.657  18.139  28.143  0.1367  0.0711  0.1092
43851W        W44715  16.403  17.612  27.474  0.0991  0.3436 -0.3201
43852W        W44716  23.025  13.389  27.144 -0.2127 -0.3116 -0.0912
43853W        W44717  20.157  17.470  26.711  0.1205 -0.4933  0.2991
43854W        W44718  23.858  20.709  27.966  0.3557 -0.3462 -0.3212
43855W        W44719  21.086  17.263  26.442 -0.0912 -0.0955 -0.3611
43856W        W44720  18.825  15.180  27.077 -0.0177  0.0157 -0.1747
43857W        W44721  19.771  16.179  24.382  0.0823 -0.0848  0.0427
43858W        W44722  22.098  17.702   1.858  0.1156 -0.2432 -0.0985
43859W        W44723  19.610  15.864  27.974  0.0070 -0.0478  0.0080
43860W        W44724  19.263  14.421  26.927 -0.0828 -0.1613 -0.0358
43861W        W44725  21.203  14.869  27.449 -0.0034  0.2188  0.0743
43862W        W44726  20.389  20.160  25.432 -0.1060 -0.1003 -0.0643
43863W        W44727  20.545  16.691  24.052 -0.2609  0.2257 -0.1764
43864W        W44728  17.401  17.546  27.052  0.0669 -0.0081 -0.0552
43865W        W44729  19.609  11.895  27.723  0.0692  0.1035 -0.2182
43866W        W44730  20.088  14.794  26.128 -0.0906 -0.0125  0.0883
43867W        W44731  18.195  15.693  28.644 -0.1217  0.0645 -0.0817
43868W        W44732  19.544  14.723   0.090  0.1799 -0.0889  0.2112
43869W        W44733  20.855  15.152  26.491  0.0261  0.4575 -0.1884
43870W        W44734  16.930  13.183  27.135 -0.1904  0.1376  0.2625
43871W        W44735  21.497  16.887  28.331 -0.1088 -0.1435 -0.1493
43872W        W44736  22.888  14.809  28.854  0.0374  0.2873  0.2031
43873W        W44737  18.451  17.132  25.308  0.2040 -0.1899  0.1122
43874W        W44738  21.060  16.872   2.138 -0.2742 -0.0316 -0.0557
43875W        W44739  22.981  16.230  25.740 -0.4105  0.0877 -0.2188
43876W        W44740  18.494  15.270  27.671 -0.1469  0.3281 -0.1639
43877W        W44741  22.551  16.083   0.248  0.4258  0.0957  0.1176
43878W        W44742  18.793  17.723  25.802  0.1592  0.1037  0.1230
43879W        W44743  20.376  14.772   0.671 -0.4163 -0.1832 -0.0627
43880W        W44744  21.462  13.666  28.301  0.0257 -0.0154  0.0128
43881W        W44745  23.663  21.876  25.653 -0.0718 -0.4373 -0.0195
43882W        W44746  19.104  20.360  24.365 -0.2536  0.0531  0.1136
43883W        W44747  19.081  17.522   0.093  0.2118  0.0096 -0.3522
43884W        W44748  20.167  17.521   2.732 -0.4012  0.1009  0.1527
43885W        W44749  19.681  17.304  27.463 -0.0584  0.3372 -0.1066
43886W        W44750  23.064  13.420  28.377 -0.0966  0.1928  0.0582
43887W        W44751  21.681  14.395   2.097 -0.1556  0.0052 -0.0827
43888W        W44752  21.291  15.689  24.950 -0.0028  0.0246 -0.2350
43889W        W44753  19.226  17.578  23.197 -0.2939  0.1948 -0.0795
43890W        W44754  19.079  17.203  25.757 -0.0780  0.0419  0.1729
43891W        W44755  20.602  14.492  28.779  0.0581  0.2206  0.2373
43892W        W44756  18.794  18.611  28.191  0.0679 -0.2111 -0.0928
43893W        W44757  23.864  13.168  27.310  0.3053 -0.1660 -0.1157
43894W        W44758  22.724  13.587  27.542 -0.0446  0.1394 -0.0098
43895W        W44759  21.744  20.410  28.140 -0.2306 -0.1857 -0.2827
43896W        W44760  18.663  13.006  26.655 -0.3576  0.2635  0.0011
43897W        W44761  20.494  16.246  22.245 -0.0381  0.0915 -0.0820
43898W        W44762  20.270  16.601  27.207  0.3394  0.3785  0.1834
43899W        W44763  20.097  19.644  28.401 -0.0042  0.0125  0.0265
43900W        W44764  22.679  17.101  27.708 -0.2103  0.1383 -0.0774
43901W        W44765  23.729  21.144  28.859 -0.0857 -0.1255 -0.0858
43902W        W44766  22.545  15.421  29.099 -0.0191  0.2006  0.0671
43903W        W44767  20.987  16.311   0.848  0.1507  0.0814  0.3109
43904W        W44768  18.429  18.225  29.002 -0.0012 -0.0245  0.1324
43905W        W44769  18.425  18.438  26.582  0.3047  0.0530  0.1710
43906W        W44770  20.148  18.686  25.338 -0.3052  0.0040 -0.0943
43907W        W44771  17.728  14.711   0.409 -0.2098 -0.1904 -0.1777
43908W        W44772  18.374  18.534  25.928  0.1078  0.0712  0.2940
43909W        W44773  21.078  18.037  25.816  0.0482  0.0254  0.0238
43910W        W44774  18.530  14.420  27.426  0.0958 -0.2346 -0.3577
43911W        W44775  20.267  18.722  27.818  0.0680 -0.1591 -0.2534
43912W        W44776  23.251  17.836  26.045  0.1489 -0.1368 -0.0681
43913W        W44777  18.315  18.941  28.222  0.0539 -0.1447 -0.0079
43914W        W44778  20.773  16.217  27.895 -0.1577  0.4884 -0.0845
43915W        W44779  18.724  15.591  26.778  0.3022  0.2116  0.1504
43916W        W44780  20.692  14.334  26.326 -0.0150  0.0810  0.1263
43917W        W44781  20.015  13.709  27.701  0.1779  0.1123 -0.3805
43918W        W44782  17.414  18.250  23.865 -0.1785  0.0155  0.0429
43919W        W44783  19.035  16.850  26.949  0.0559  0.0864  0.1194
43920W        W44784  21.110  18.565  27.745  0.1363  0.0352  0.0628
43921W        W44785  21.035  19.255  26.816 -0.0110  0.0118 -0.0150
43922W        W44786  18.089  15.489  26.034 -0.1866 -0.1572  0.0133
43923W        W44787  18.917  17.637  27.007 -0.1797 -0.2469  0.1716
43924W        W44788  18.551  19.250   0.294  0.0771  0.1732  0.0945
43925W        W44789  23.688  17.816  28.150  0.1376  0.2795 -0.1578
43926W        W44790  22.878  16.636  25.408 -0.0110 -0.0532  0.0504
43927W        W44791  17.590  15.555  26.285  0.1527 -0.2903  0.1638
43928W        W44792  22.046  18.064  25.887  0.0998  0.0185  0.0196
43929W        W44793  21.608  16.935  24.986  0.1582  0.2003 -0.2779
43930W        W44794  19.325  13.970  27.694 -0.4519  0.1197 -0.2132
43931W        W44795  21.746  16.954  23.925 -0.0337  0.2284  0.2256
43932W        W44796  20.257  17.285  26.207  0.0669  0.1957  0.0998
43933W        W44797  21.591  15.343  27.365  0.0342 -0.0771  0.2675
43934W        W44798  22.622  14.060  27.630 -0.1512  0.1232 -0.1209
43935W        W44799  20.416  18.547  28.257  0.2909 -0.1442  0.1466
43936W        W44800  18.957  14.612   0.528 -0.3458 -0.0309  0.0440
43937W        W44801  19.427  16.396  27.163  0.0502 -0.0317 -0.2132
43938W        W44802  20.446  16.621  27.712  0.0171 -0.0798 -0.2067
43939W        W44803  20.432  19.542  25.110 -0.0478 -0.1639  0.0935
43940W        W44804  23.942  16.455  22.074  0.0450  0.2649 -0.2111
43941W        W44805  18.961  15.887  28.658 -0.0901 -0.2282 -0.0551
43942W        W44806  22.104  15.340  26.778  0.2164 -0.1203 -0.0076
43943W        W44807  20.935  17.174  26.926 -0.1136  0.3063 -0.2622
43944W        W44808  20.772  16.386   2.400  0.0307  0.2667 -0.0305
43945W        W44809  21.675  17.123  27.318 -0.2121 -0.0930  0.1298
43946W        W44810  20.297  16.547  29.077  0.1507  0.3864 -0.2562
43947W        W44811  23.092  18.261  28.614  0.2176 -0.0326  0.1785
43948W        W44812  21.906  12.619   0.116  0.2486  0.1645 -0.2015
43949W        W44813  15.997  14.843  25.978  0.1847  0.2845  0.0024
43950W        W44814  21.721  15.541  27.978 -0.1375 -0.0158 -0.0626
43951W        W44815  19.946  16.354  25.870  0.0166 -0.2897 -0.2250
43952W        W44816  18.530  17.988   0.824  0.0432 -0.1294 -0.1876
43953W        W44817  18.552  15.276  28.440 -0.0700 -0.0555  0.0235
43954W        W44818  20.280  15.714  27.284  0.0582  0.1248  0.2447
43955W        W44819  18.988  15.986  27.704 -0.0337 -0.1320 -0.0237
43956W        W44820  14.940  17.561  28.999  0.2811  0.0939 -0.1717
43957W        W44821  23.598  15.678  26.216 -0.2136 -0.1491 -0.0585
43958W        W44822  22.987  12.551  27.918  0.0009 -0.4172 -0.1799
43959W        W44823  15.160  16.475  24.003  0.1758 -0.0392  0.2107
43960W        W44824  16.821  16.142   1.163 -0.1314  0.0553 -0.0313
43961W        W44825  21.737  13.379  26.192  0.1186  0.0207 -0.3780
43962W        W44826  20.667  16.602  24.709 -0.3598 -0.3364  0.1566
43963W        W44827  19.272  17.047  24.858 -0.1314  0.1462 -0.0758
43964W        W44828  20.687  17.999  27.177 -0.3025 -0.1228  0.3174
43965W        W44829  20.647  14.059  27.161 -0.1194  0.0450  0.2319
43966W        W44830  19.597  15.698  28.587  0.1850 -0.1740  0.3963
43967W        W44831  19.270  18.334  25.240  0.1215 -0.0303  0.0417
43968W        W44832  22.885  17.509  25.909  0.0428 -0.0254 -0.3808
43969W        W44833  19.744  15.776  27.061  0.3231 -0.0552 -0.0387
43970W        W44834  22.759  14.210  26.835 -0.0252 -0.2065 -0.0238
43971W        W44835  23.844  13.636  27.036 -0.0655 -0.1014 -0.1884
43972W        W44836  18.669  17.386   0.387  0.1296  0.0420  0.1212
43973W        W44837  17.902  18.641  25.790  0.3651  0.2099  0.3229
43974W        W44838  17.737  13.424  27.698 -0.1161  0.1055 -0.2544
43975W        W44839  20.509  18.122   0.935 -0.0962 -0.2167 -0.0784
43976W        W44840  19.969  16.228  28.071 -0.4553 -0.0601  0.2589
43977W        W44841  18.243  17.282  27.525 -0.1645  0.0859  0.0515
43978W        W44842  20.140  17.790  28.723 -0.5024  0.4090  0.1322
43979W        W44843  20.467  16.085  28.253  0.2302 -0.0319 -0.0846
43980W        W44844  17.545  14.968  25.309  0.0418  0.5091  0.0036
43981W        W44845  19.772  16.594  26.302 -0.0690 -0.0271 -0.3772
43982W        W44846  18.923  19.093  26.896  0.1938 -0.3679 -0.1543
43983W        W44847  19.154  15.931  27.153 -0.0854  0.1023 -0.1310
43984W        W44848  22.149  18.604   2.639  0.3095 -0.0072 -0.2202
43985W        W44849  19.947  17.009  26.500  0.0476 -0.1286  0.1498
43986W        W44850  20.130  18.296  27.504  0.2681 -0.1218 -0.0864
43987W        W44851  21.119  17.290  28.216 -0.0538  0.1201 -0.0825
43988W        W44852  19.958  19.092  29.108 -0.3870 -0.0557  0.0451
43989W        W44853  19.920  16.585  26.810 -0.1558  0.0451  0.5131
43990W        W44854  20.225  18.422  26.183  0.0701  0.0750  0.0406
43991W        W44855  21.263  17.923  27.175 -0.0555  0.0980 -0.1128
43992W        W44856  20.428  16.440  26.765 -0.0099 -0.1750 -0.1352
43993W        W44857  17.595  17.100  27.644  0.0578  0.1758 -0.0198
43994W        W44858  20.922  17.251  22.773 -0.1499 -0.1381  0.0668
43995W        W44859  19.645  18.101   2.073 -0.0617  0.1188 -0.1963
43996W        W44860  21.769  19.211  25.803 -0.4690  0.0702 -0.0376
43997W        W44861  21.902  14.422  26.834 -0.0120  0.2066 -0.2555
43998W        W44862  19.111  18.488  24.749  0.0889  0.3337  0.1591
43999W        W44863  18.297  17.231  26.166  0.0828 -0.1259 -0.2433
44000W        W44864  18.062  16.776  27.487 -0.3260 -0.0964 -0.0883
44001W        W44865  18.202  15.679  26.536 -0.0838 -0.2710 -0.2835
44002W        W44866  16.065  18.535  26.455 -0.1684 -0.1443  0.2024
44003W        W44867  17.272  15.910  26.980  0.0119  0.1252 -0.0062
44004W        W44868  22.441  17.791  25.788  0.0259 -0.0644  0.0713
44005W        W44869  22.432  14.318  28.642 -0.0832  0.0252 -0.0005
44006W        W44870  21.293  16.940  27.869 -0.4943  0.4104 -0.3127
44007W        W44871  23.157  17.155  27.936 -0.1832  0.0114 -0.2084
44008W        W44872  19.551  19.061  27.627 -0.1663  0.0811 -0.0868
44009W        W44873  20.034  18.259  28.558 -0.1182 -0.1734 -0.2935
44010W        W44874  21.354  16.218  24.845  0.1189 -0.1184  0.0964
44011W        W44875  21.743  16.447  26.155 -0.3655  0.1353 -0.1905
44012W        W44876  21.321  15.416  26.705 -0.2322 -0.0805 -0.0468
44013W        W44877  22.307  18.770  28.047  0.0117 -0.0380 -0.1099
44014W        W44878  20.831  19.028  27.593 -0.1919  0.0373 -0.0107
44015W        W44879  20.462  15.306  26.165  0.3633  0.0399  0.0307
44016W        W44880  15.294  19.042  26.274 -0.1616 -0.0084  0.0477
44017W        W44881  20.530  18.119  25.885 -0.0825  0.1843  0.0829
44018W        W44882  20.763  17.426  27.878  0.2266  0.0615  0.1628
44019W        W44883  18.144  19.651  25.322  0.0044 -0.2890 -0.1317
44020W        W44884  16.740  15.479  27.822  0.2134  0.3422  0.0085
44021W        W44885  20.105  16.160  26.538  0.1226 -0.2866  0.2015
44022W        W44886  17.216  17.207  28.630  0.4228  0.0867 -0.2849
44023W        W44887  21.624  17.610  27.395  0.2059 -0.0499 -0.3929
44024W        W44888  22.207  13.778  28.615 -0.0557  0.0294 -0.1083
44025W        W44889  22.478  17.615  26.253  0.1305 -0.0005 -0.0525
44026W        W44890  20.896  16.527  27.485  0.0858 -0.0789 -0.2013
44027W        W44891  21.714  20.013  25.471 -0.0639  0.0950 -0.0378
44028W        W44892  19.889  12.065  25.430  0.1753 -0.2385  0.2270
44029W        W44893  18.646  15.538  28.905 -0.0963  0.2541 -0.0159
44030W        W44894  18.885  17.054  29.140 -0.3034 -0.0024  0.2215
44031W        W44895  19.823  14.007  26.295  0.0613  0.2452  0.4179
44032W        W44896  19.326  18.564  28.032 -0.4195 -0.0293 -0.0047
44033W        W44897  19.264  17.585  26.059  0.0537 -0.0449 -0.0981
44034W        W44898  21.674  16.618  28.769 -0.0575 -0.2170  0.1017
44035W        W44899  19.505  18.277  23.811 -0.2344  0.0284 -0.2357
44036W        W44900  22.192  17.061   0.256 -0.1380  0.2365 -0.0925
44037W        W44901  21.643  18.656  27.938  0.0010  0.0511 -0.1339
44038W        W44902  22.965  16.222   0.647  0.2249  0.2600  0.1652
44039W        W44903  21.061  18.161  28.844  0.0076 -0.1816  0.0218
44040W        W44904  19.963  17.922  24.886 -0.1823 -0.1600  0.2122
44041W        W44905  20.410  15.349  26.711 -0.1110  0.1417  0.0298
44042W        W44906  21.562  16.513  27.545  0.4914 -0.2315  0.0093
44043W        W44907  19.169  18.243  26.548  0.1491  0.1104  0.1709
44044W        W44908  22.700  16.710  26.852 -0.0762 -0.0030  0.0584
44045W        W44909  19.520  15.881  25.252 -0.1478  0.2503 -0.1046
44046W        W44910  21.653  19.357  27.606  0.2670  0.1221 -0.4006
44047W        W44911  23.079  17.035  28.892  0.1712 -0.0154  0.1723
44048W        W44912  21.484  15.982  26.592  0.1211  0.2551 -0.1103
44049W        W44913  21.233  16.372  27.907 -0.0310 -0.0036 -0.0288
44050W        W44914  20.892  16.647  25.894  0.0543  0.4878  0.1047
44051W        W44915  18.944  14.295   0.949 -0.1626 -0.1749  0.2939
44052W        W44916  18.579  16.226  28.810 -0.1482 -0.3772 -0.2035
44053W        W44917  22.165  14.384  27.261  0.0468 -0.0805  0.1844
44054W        W44918  20.051  19.598  24.717 -0.1886 -0.1778  0.2242
44055W        W44919  20.209  17.791   0.573  0.0968 -0.1827 -0.0329
44056W        W44920  19.412  13.569  28.323 -0.2415  0.2241 -0.0858
44057W        W44921  22.587  18.452   0.390 -0.2667  0.0289  0.0330
44058W        W44922  22.207  15.768  28.896 -0.1476 -0.1620 -0.3436
44059W        W44923  20.211  17.365  25.713 -0.0461 -0.4475  0.3328
44060W        W44924  21.004  16.078   0.056  0.0327  0.2115 -0.0267
44061W        W44925  17.032  18.798   0.281  0.0044  0.0886 -0.1581
44062W        W44926  20.367  20.172  29.030  0.1665  0.3235 -0.1057
44063W        W44927  21.143  16.842  28.807  0.4932  0.3041 -0.2033
44064W        W44928  21.044  13.442  27.810 -0.1125  0.1533  0.1621
44065W        W44929  18.868  18.405  23.886 -0.1264  0.3576 -0.3419
44066W        W44930  21.923  20.850  25.213  0.1968  0.0045  0.4229
44067W        W44931  20.883  16.514   0.027 -0.0328 -0.0497 -0.1154
44068W        W44932  19.354  13.443  28.847 -0.0983 -0.0702 -0.0611
44069W        W44933  22.759  19.179  25.834  0.0010  0.2135  0.0112
44070W        W44934  20.718  16.018  28.764  0.2198 -0.0011  0.0140
44071W        W44935  20.391  19.278  27.502  0.0668  0.0182 -0.2622
44072W        W44936  19.403  16.200  23.754  0.0242  0.0628 -0.0157
44073W        W44937  18.110  20.436   1.729  0.0298  0.0120  0.3411
44074W        W44938  18.109  23.826   0.620  0.1211  0.3163  0.1618
44075W        W44939  22.230  21.082  28.908 -0.0830 -0.0632 -0.0632
44076W        W44940  22.279  19.589   4.169 -0.0665  0.1114  0.0414
44077W        W44941  19.033  21.808   1.461 -0.1330 -0.3384 -0.1705
44078W        W44942  21.211  15.758  28.775 -0.1355  0.1630  0.0590
44079W        W44943  19.587  20.329  28.573 -0.1528 -0.2789 -0.5165
44080W        W44944  20.723  20.175   1.024 -0.0503  0.2247  0.2416
44081W        W44945  19.164  24.366   2.500 -0.4827  0.1044 -0.2669
44082W        W44946  19.538  17.739   1.730 -0.0425  0.0907 -0.2295
44083W        W44947  20.022  18.591   1.442  0.0301  0.1551  0.1977
44084W        W44948  21.547  17.412   3.505 -0.1095 -0.3245  0.0650
44085W        W44949  24.803  20.762  29.000  0.0679  0.3560  0.0544
44086W        W44950  18.422  18.660   5.207 -0.0647  0.2845 -0.0671
44087W        W44951  20.599  19.906   0.355 -0.0251 -0.0476 -0.0775
44088W        W44952  16.841  19.589  28.876  0.0809  0.0106  0.0360
44089W        W44953  20.590  24.956  29.007 -0.1917  0.0125  0.0718
44090W        W44954  20.958  18.030  27.615  0.0517 -0.3047 -0.0883
44091W        W44955  19.161  20.137   1.618  0.0404 -0.2065  0.1485
44092W        W44956  19.842  19.903   2.478 -0.2155 -0.1158 -0.0041
44093W        W44957  19.307  21.395   3.766  0.1771 -0.0520  0.2002
44094W        W44958  18.230  21.355   1.377  0.0836  0.0899  0.0611
44095W        W44959  22.427  19.884   2.820  0.0145  0.1212 -0.0483
44096W        W44960  17.357  21.302  28.670  0.2631 -0.1249  0.1705
44097W        W44961  18.739  20.922   1.107  0.1944  0.1738  0.0159
44098W        W44962  19.909  20.500   1.485 -0.0479  0.1740  0.1222
44099W        W44963  19.351  18.090   2.955  0.0446  0.2221 -0.0756
44100W        W44964  18.881  21.680   2.007 -0.2682  0.1538  0.0655
44101W        W44965  17.883  23.092   3.083  0.4549 -0.0802 -0.2065
44102W        W44966  21.904  19.297   0.414  0.0058 -0.3570  0.1013
44103W        W44967  20.264  20.191   0.672 -0.3214 -0.2459  0.1475
44104W        W44968  19.786  23.432   2.166  0.1923  0.3209 -0.0819
44105W        W44969  18.157  21.486   4.501  0.0878  0.0556  0.2547
44106W        W44970  21.978  17.626   2.422  0.1288  0.3701  0.1151
44107W        W44971  17.735  20.071   2.672  0.2705 -0.3796  0.4789
44108W        W44972  20.745  18.934   0.951 -0.0028 -0.2298 -0.2077
44109W        W44973  18.028  20.586   0.681 -0.1821 -0.0820 -0.0651
44110W        W44974  18.375  20.169   0.141 -0.0820 -0.1969 -0.0288
44111W        W44975  23.312  19.759   2.760  0.0464  0.0354 -0.0819
44112W        W44976  21.568  19.822   1.651 -0.0328  0.5067  0.2918
44113W        W44977  22.754  18.968  27.855  0.1912  0.2237  0.0591
44114W        W44978  20.746  20.308   1.506 -0.2454 -0.0677  0.0561
44115W        W44979  19.841  25.165   3.894 -0.1241  0.0113  0.2046
44116W        W44980  20.100  22.456   0.049  0.2438 -0.0755 -0.2073
44117W        W44981  14.321  21.673   0.275  0.0007  0.1671  0.0987
44118W        W44982  17.651  22.464   0.805  0.0121 -0.1555 -0.0184
44119W        W44983  19.502  16.560   6.093  0.0749 -0.0846  0.0095
44120W        W44984  22.537  18.399  28.582 -0.1699 -0.0726  0.0665
44121W        W44985  21.259  19.354   1.500  0.0051  0.0433 -0.0534
44122W        W44986  19.484  19.662   1.023  0.0417 -0.0497 -0.2296
44123W        W44987  18.123  21.550   3.180  0.1858  0.1063  0.2332
44124W        W44988  17.944  16.078   0.528  0.0670  0.0162  0.1288
44125W        W44989  21.201  20.867   2.266 -0.1601 -0.1357 -0.0942
44126W        W44990  22.878  19.611   1.791 -0.0495  0.1064  0.0966
44127W        W44991  18.483  17.735   1.330  0.2601 -0.0996  0.1381
44128W        W44992  16.529  19.978  28.563  0.0012 -0.1677  0.0201
44129W        W44993  18.771  18.129   2.284 -0.1633 -0.0258 -0.2743
44130W        W44994  20.098  20.324   2.744  0.0917 -0.4120 -0.0178
44131W        W44995  18.544  21.785   1.281 -0.0247  0.0500 -0.1246
44132W        W44996  19.230  21.182   0.244  0.3388 -0.0980 -0.1459
44133W        W44997  23.362  21.200   1.749  0.0219 -0.3820  0.0208
44134W        W44998  17.115  22.422   1.522 -0.1801 -0.4898  0.0672
44135W        W44999  18.118  19.986   1.375  0.1593  0.1230  0.0364
44136W        W45000  19.134  20.588   0.352 -0.1778 -0.0352 -0.0604
44137W        W45001  18.983  17.894   3.242  0.0015 -0.0550 -0.1743
44138W        W45002  22.546  18.072   1.171  0.1293 -0.0459  0.0690
44139W        W45003  17.733  17.226   1.306 -0.0773 -0.1435 -0.0496
44140W        W45004  18.978  20.079   0.065  0.0451 -0.0107  0.0198
44141W        W45005  17.904  21.434   1.975 -0.0384 -0.1962 -0.0544
44142W        W45006  19.685  20.408   0.419  0.0565  0.1598 -0.0119
44143W        W45007  19.780  22.002   1.652 -0.0990  0.0145 -0.1259
44144W        W45008  22.873  18.399   1.312  0.1001  0.0494 -0.1271
44145W        W45009  23.274  19.566  29.027  0.1405 -0.0929  0.0195
44146W        W45010  20.926  17.889   2.607 -0.0053 -0.3106 -0.3709
44147W        W45011  23.506  21.511   3.015 -0.2094 -0.0229 -0.0556
44148W        W45012  19.110  22.319   2.663 -0.2264  0.1008 -0.0198
44149W        W45013  18.210  20.615   0.212 -0.1173  0.2996 -0.0947
44150W        W45014  18.898  19.582   0.814 -0.1582  0.0241  0.2150
44151W        W45015  23.765  17.082   0.124 -0.0374  0.0607  0.1010
44152W        W45016  23.011  18.317   0.857  0.1262 -0.1960  0.1324
44153W        W45017  20.114  19.777   2.867 -0.2100 -0.0855 -0.0403
44154W        W45018  17.587  19.771   2.220 -0.1066  0.0875 -0.2530
44155W        W45019  20.410  16.720   1.606  0.0547  0.1727  0.1092
44156W        W45020  19.590  18.470  28.537  0.2970 -0.1169 -0.0359
44157W        W45021  19.051  20.574   2.025  0.1178 -0.3039  0.1328
44158W        W45022  19.297  18.169   2.481 -0.1147 -0.0602  0.0765
44159W        W45023  21.404  19.552   4.041 -0.1469  0.0950 -0.0140
44160W        W45024  20.887  18.555   4.174 -0.1003  0.0843 -0.0188
44161W        W45025  18.286  20.921   5.198  0.4954  0.0488 -0.3354
44162W        W45026  21.256  18.162   1.995  0.1332 -0.0854 -0.0721
44163W        W45027  19.148  18.429   1.146 -0.0262  0.1945 -0.0629
44164W        W45028  22.006  17.969   0.160 -0.3702  0.1290 -0.3655
44165W        W45029  20.347  24.024   2.203 -0.1519 -0.1120 -0.2435
44166W        W45030  19.813  19.969   0.662 -0.1023 -0.2067 -0.0533
44167W        W45031  19.387  16.009   6.356 -0.2700 -0.0529  0.0058
44168W        W45032  23.171  19.246   0.990  0.1439 -0.2740  0.0189
44169W        W45033  22.096  19.385   1.001 -0.0435  0.1085  0.1165
44170W        W45034  19.200  23.390   5.090  0.2869  0.1163  0.2083
44171W        W45035  18.727  16.637  28.608 -0.0703  0.0390 -0.0200
44172W        W45036  24.954  20.227  29.118 -0.0418 -0.0855 -0.2009
44173W        W45037  22.223  21.919  28.508  0.0219 -0.0263  0.1244
44174W        W45038  17.993  24.533   2.937 -0.0575 -0.0367  0.1701
44175W        W45039  20.238  17.849   1.877 -0.1215  0.3667  0.1732
44176W        W45040  23.536  18.936   1.725 -0.3521 -0.0909 -0.1296
44177W        W45041  22.494  16.141   3.433 -0.0487  0.1231  0.3236
44178W        W45042  20.722  17.665   1.602 -0.1254 -0.0220 -0.2305
44179W        W45043  22.530  20.029  28.565  0.0403  0.4216  0.2550
44180W        W45044  20.618  21.414   2.746 -0.1900  0.1827 -0.1935
44181W        W45045  20.164  20.775   0.605 -0.1431 -0.2068 -0.2215
44182W        W45046  18.642  17.605  27.566 -0.1387  0.0415 -0.3889
44183W        W45047  16.350  19.914   5.286  0.2330 -0.1676  0.0733
44184W        W45048  19.729  20.412  29.088 -0.0180 -0.3155  0.0663
44185W        W45049  24.471  19.048   1.127  0.1157 -0.0917  0.0344
44186W        W45050  18.882  22.847   2.241  0.0105 -0.0628  0.0884
44187W        W45051  23.033  20.163   2.169 -0.1017  0.0551  0.0232
44188W        W45052  21.431  19.445   0.477  0.2631 -0.3005  0.1629
44189W        W45053  21.296  17.621   2.975  0.3430  0.0608  0.1577
44190W        W45054  20.117  24.383   1.935  0.1868  0.0852 -0.0967
44191W        W45055  18.984  19.563   0.315  0.2520 -0.0460  0.1121
44192W        W45056  21.208  19.799   0.812 -0.1065  0.0394 -0.1915
44193W        W45057  22.436  16.028  28.062  0.0416  0.1918 -0.0809
44194W        W45058  21.399  20.900   1.330 -0.0864 -0.0731 -0.2266
44195W        W45059  20.256  21.334   0.825  0.0077 -0.0616  0.0260
44196W        W45060  20.499  19.354   1.132 -0.3601  0.2947  0.0232
44197W        W45061  18.749  20.929   1.908  0.0981 -0.0105  0.2211
44198W        W45062  21.055  18.160   0.673  0.0444  0.0798  0.0281
44199W        W45063  18.526  19.822   2.377  0.0677 -0.3018 -0.1880
44200W        W45064  18.854  20.028   0.546 -0.0058 -0.1665 -0.0844
44201W        W45065  20.256  20.592   2.315 -0.0266 -0.0278  0.3800
44202W        W45066  19.053  21.785   2.508 -0.3475 -0.1023 -0.2714
44203W        W45067  22.852  21.150   1.311 -0.1549 -0.1216 -0.0624
44204W        W45068  21.264  17.807   3.871 -0.2155 -0.1959 -0.0576
44205W        W45069  17.931  24.388   3.407  0.0135 -0.0781  0.1912
44206W        W45070  23.776  17.954   1.414 -0.0737  0.0488 -0.0750
44207W        W45071  20.641  19.701   3.273 -0.0318 -0.0830  0.2406
44208W        W45072  17.826  20.937   1.450 -0.4487  0.1018 -0.2240
44209W        W45073  21.956  18.297   3.440 -0.0196 -0.2157  0.1234
44210W        W45074  22.767  17.769   3.861  0.3364  0.2798 -0.2180
44211W        W45075  22.066  19.696  28.845 -0.5825 -0.2661  0.1104
44212W        W45076  21.109  20.483   1.158  0.2451  0.3737 -0.3415
44213W        W45077  18.521  20.360  26.322  0.2203  0.1323  0.3296
44214W        W45078  21.229  18.358   1.518 -0.0282  0.1029 -0.1097
44215W        W45079  18.676  22.470  28.140 -0.0963 -0.2698 -0.0525
44216W        W45080  18.835  16.589   0.985 -0.0250 -0.2779 -0.0038
44217W        W45081  20.071  21.044   3.657 -0.1155 -0.0339 -0.0088
44218W        W45082  19.345  18.825   1.447  0.0430  0.3270  0.1667
44219W        W45083  21.927  18.859   2.260 -0.3219 -0.1239  0.1852
44220W        W45084  19.713  21.330  29.118 -0.3191  0.2012 -0.1040
44221W        W45085  18.358  22.956   3.222  0.1407 -0.1202 -0.2844
44222W        W45086  19.588  19.408   1.779 -0.3016  0.0535  0.1891
44223W        W45087  20.693  19.747  29.053 -0.1425 -0.3925 -0.1558
44224W        W45088  17.881  16.167   2.139 -0.1092 -0.2629  0.1356
44225W        W45089  20.965  22.357   2.454  0.1298 -0.2125 -0.2081
44226W        W45090  19.488  19.414   2.771  0.2853  0.2044  0.1987
44227W        W45091  21.209  17.809   1.605  0.1341  0.1772 -0.0777
44228W        W45092  19.802  22.050   0.207 -0.4361  0.2292  0.5536
44229W        W45093  19.169  19.539   3.757  0.0418 -0.1180 -0.0606
44230W        W45094  21.899  18.469  28.825 -0.1259 -0.0742  0.0190
44231W        W45095  21.559  20.523   0.002  0.1598  0.1992 -0.0358
44232W        W45096  19.879  19.391   0.880  0.2258  0.0752 -0.0340
44233W        W45097  18.910  22.528   1.199  0.0365 -0.1843  0.1273
44234W        W45098  20.651  21.399   4.620 -0.0508 -0.1103 -0.4692
44235W        W45099  19.966  18.740   2.422 -0.2783 -0.1698  0.2777
44236W        W45100  20.666  16.578   3.817 -0.4980 -0.1311  0.0928
44237W        W45101  19.359  20.049   2.056  0.1242 -0.1467  0.4172
44238W        W45102  18.461  17.860   0.212 -0.0850 -0.0357  0.3291
44239W        W45103  16.517  24.000  28.551 -0.1756 -0.1058  0.1363
44240W        W45104  18.874  18.628   2.493  0.0180 -0.0161  0.0723
44241W        W45105  19.335  19.806  27.192  0.0551  0.1974  0.1655
44242W        W45106  20.605  20.464   2.940 -0.1227  0.0828  0.1556
44243W        W45107  17.927  21.012   0.482 -0.0863 -0.0536 -0.1207
44244W        W45108  18.754  20.762  28.524  0.1898  0.1450 -0.1037
44245W        W45109  20.107  19.666  29.070  0.2019 -0.0243 -0.0842
44246W        W45110  18.956  17.428   1.395  0.0734 -0.0880 -0.1865
44247W        W45111  23.326  21.151   1.226  0.1518 -0.0132 -0.2474
44248W        W45112  17.928  21.778   4.176  0.1816 -0.0489  0.2472
44249W        W45113  16.514  20.984   0.686 -0.1271 -0.2056  0.0287
44250W        W45114  16.647  20.579   0.365  0.2089 -0.1042 -0.2231
44251W        W45115  19.908  16.900   4.491 -0.1629  0.4113  0.0861
44252W        W45116  20.087  22.928   0.037 -0.1730 -0.1568 -0.2176
44253W        W45117  23.411  23.927   0.262  0.1055  0.4103 -0.0179
44254W        W45118  21.304  19.209  28.817 -0.3979 -0.1917 -0.0664
44255W        W45119  19.727  16.788   1.044 -0.1465  0.0467  0.1895
44256W        W45120  21.013  18.835   2.382 -0.1750  0.1324  0.1783
44257W        W45121  22.102  20.442   2.187  0.4899  0.1016  0.1045
44258W        W45122  23.465  18.383   0.632  0.1818  0.0510 -0.0286
44259W        W45123  18.949  19.125   0.612  0.0994 -0.1380  0.0404
44260W        W45124  20.012  19.735   2.024 -0.4860  0.0053 -0.0108
44261W        W45125  19.390  19.409   0.627  0.0868 -0.0908  0.0438
44262W        W45126  18.392  23.558  27.618  0.1693  0.2364 -0.2723
44263W        W45127  17.574  22.015   0.618  0.0528  0.0842 -0.2685
44264W        W45128  20.236  18.932   2.801  0.1182  0.1083 -0.4632
44265W        W45129  19.072  19.561   5.930  0.3917  0.2656  0.1418
44266W        W45130  19.314  20.151   0.714  0.0104  0.0522  0.1142
44267W        W45131  19.028  18.396   3.241  0.1332 -0.2501  0.1090
44268W        W45132  22.380  18.134   1.902 -0.2988 -0.1222 -0.0172
44269W        W45133  17.269  18.683   0.741 -0.2433 -0.0506 -0.1186
44270W        W45134  19.994  20.017   0.208  0.2129 -0.2793 -0.2042
44271W        W45135  22.699  18.531   1.740 -0.1428 -0.1090  0.1892
44272W        W45136  18.380  16.163   3.208 -0.0554 -0.0051 -0.2202
44273W        W45137  22.046  18.522   0.344  0.3295  0.0795 -0.1728
44274W        W45138  22.006  20.472   0.315  0.0293  0.0986  0.0275
44275W        W45139  18.532  19.445   1.993  0.0175  0.1579 -0.1450
44276W        W45140  20.678  18.960   3.010 -0.2908  0.2586 -0.0261
44277W        W45141  18.940  18.729   0.197  0.1435 -0.2062 -0.0083
44278W        W45142  17.654  19.545   0.702  0.1324 -0.3348  0.0791
44279W        W45143  19.836  19.068   4.205  0.3817 -0.0248 -0.1074
44280W        W45144  22.183  20.700   1.726 -0.1925 -0.0322 -0.0096
44281W        W45145  18.777  21.320   0.003 -0.1372 -0.1388 -0.1968
44282W        W45146  17.385  23.899   0.707 -0.3696  0.3399 -0.1679
44283W        W45147  17.014  22.851   3.072  0.0677 -0.1274  0.1410
44284W        W45148  19.626  19.908   1.681 -0.2737 -0.4612 -0.0207
44285W        W45149  20.027  17.875   2.371 -0.1641 -0.2602  0.1947
44286W        W45150  22.836  19.465   1.309  0.2528  0.2023  0.0937
44287W        W45151  23.891  18.985  28.463  0.2194 -0.1031 -0.0374
44288W        W45152  23.127  20.565  27.312 -0.2145  0.1266 -0.2295
44289W        W45153  20.323  22.147   2.172  0.3639  0.2669  0.2423
44290W        W45154  21.828  16.546   3.041 -0.1807 -0.2085 -0.0907
44291W        W45155  20.102  19.989   1.562 -0.0360 -0.1114  0.0921
44292W        W45156  22.305  17.904   3.358  0.0206  0.2012 -0.0205
44293W        W45157  19.369  19.945   2.567  0.4907 -0.0603  0.0293
44294W        W45158  20.080  21.664   3.279 -0.2123 -0.2701  0.0909
44295W        W45159  21.630  18.523   1.290  0.2970 -0.0199 -0.2704
44296W        W45160  24.036  19.557   0.217 -0.0515  0.0662  0.0990
44297W        W45161  18.701  21.369   1.599 -0.0198 -0.0205 -0.1006
44298W        W45162  17.718  22.245   6.818 -0.0646  0.1209  0.1883
44299W        W45163  20.394  19.345   5.123  0.3625  0.2050 -0.0502
44300W        W45164  23.398  20.773   0.216  0.2783 -0.0198 -0.0454
44301W        W45165  20.362  20.373   1.809  0.0902 -0.2839 -0.0236
44302W        W45166  18.764  15.770   1.962  0.0883 -0.2648 -0.1150
44303W        W45167  21.119  19.780   1.298  0.0161  0.4225  0.0314
44304W        W45168  17.056  20.154   0.481 -0.1484 -0.1077 -0.2497
44305W        W45169  21.556  22.403   0.191 -0.0223  0.4110  0.0499
44306W        W45170  19.062  19.386   1.862 -0.5847  0.1507  0.0171
44307W        W45171  19.528  20.435   1.795 -0.1987 -0.3613 -0.0033
44308W        W45172  21.414  19.466   3.360 -0.0777  0.1514  0.0556
44309W        W45173  19.650  19.373   3.735 -0.2137 -0.1855 -0.1176
44310W        W45174  20.883  21.044   3.017  0.1026 -0.0218  0.0990
44311W        W45175  20.489  20.016   3.662 -0.0266 -0.1887 -0.0361
44312W        W45176  20.077  21.638   0.216 -0.1843 -0.0954  0.0616
44313W        W45177  18.674  20.015  28.814  0.4160 -0.0385  0.1012
44314W        W45178  17.847  18.969  28.220 -0.0530 -0.0704 -0.0573
44315W        W45179  19.221  15.353   3.846  0.1274 -0.0625 -0.0563
44316W        W45180  22.237  19.497   3.082  0.2884 -0.1610 -0.0791
44317W        W45181  17.564  20.551   0.440 -0.1224 -0.1950  0.0540
44318W        W45182  21.632  22.706   1.765 -0.1667 -0.0731  0.0049
44319W        W45183  19.106  21.290   2.670 -0.1136 -0.2808  0.0222
44320W        W45184  21.564  21.443   0.451  0.1065 -0.1810 -0.0401
44321W        W45185  21.230  19.092   1.917 -0.3203  0.2415 -0.1596
44322W        W45186  17.787  21.287   0.908  0.0578 -0.1422  0.1495
44323W        W45187  17.997  22.699   1.643 -0.0533 -0.1291 -0.1040
44324W        W45188  21.177  22.009   3.632 -0.0180 -0.0705  0.0884
44325W        W45189  19.137  21.253   1.948  0.0094 -0.2102  0.0847
44326W        W45190  18.961  21.402  28.295 -0.1617  0.4865  0.0255
44327W        W45191  22.423  22.883  28.923  0.0684  0.1250  0.0998
44328W        W45192  22.876  18.711  28.687 -0.0261  0.0685 -0.0087
44329W        W45193  18.616  20.467   1.804  0.1233 -0.2087  0.0681
44330W        W45194  22.535  21.845   0.103  0.1916  0.5080 -0.3846
44331W        W45195  22.935  20.881   1.755  0.1814  0.0966 -0.1767
44332W        W45196  18.769  17.980   3.714  0.1849 -0.3603 -0.2638
44333W        W45197  16.415  20.959   2.265 -0.0777  0.0389 -0.2842
44334W        W45198  20.428  21.819   0.881  0.1038 -0.0054  0.1361
44335W        W45199  19.850  17.243   5.034  0.0412 -0.1166  0.0715
44336W        W45200  22.696  20.590   2.110  0.1530 -0.0056 -0.0486
44337W        W45201  17.045  19.997   4.790  0.3073 -0.2002  0.1959
44338W        W45202  20.075  21.996   1.172 -0.1222  0.1876 -0.0284
44339W        W45203  19.834  20.565   0.916 -0.0383  0.2143  0.0172
44340W        W45204  19.068  16.691   2.087  0.2065 -0.0042  0.3937
44341W        W45205  23.583  19.821   0.208  0.1905  0.1503 -0.2695
44342W        W45206  16.774  20.646   1.923 -0.1671  0.1262  0.2367
44343W        W45207  20.651  19.694   0.840  0.1574  0.2369  0.0218
44344W        W45208  19.028  20.458   3.988 -0.0725  0.1024  0.3181
44345W        W45209  20.553  20.956   3.826  0.0451 -0.0979 -0.3289
44346W        W45210  22.029  19.297   4.476  0.2662  0.2006 -0.3189
44347W        W45211  19.803  20.050   1.199 -0.1458 -0.0386  0.2868
44348W        W45212  22.596  18.255   3.554  0.1014  0.0652 -0.0504
44349W        W45213  18.681  21.579   3.152 -0.3168 -0.0027 -0.0795
44350W        W45214  23.022  20.152   2.809 -0.2146  0.2678  0.2495
44351W        W45215  18.928  21.494   1.101 -0.2779  0.1573  0.1013
44352W        W45216  19.466  18.740   5.725 -0.2433  0.0731  0.1122
44353W        W45217  22.288  18.431   1.446 -0.1982  0.2587 -0.1942
44354W        W45218  18.530  19.472  28.675  0.1519  0.0187 -0.1642
44355W        W45219  17.973  22.022   2.054  0.2268 -0.5298  0.2689
44356W        W45220  24.413  19.744   0.453 -0.0221  0.1742 -0.3117
44357W        W45221  21.938  15.977   2.744 -0.2904  0.1398  0.1377
44358W        W45222  20.227  21.915   1.649 -0.0591  0.1843  0.0066
44359W        W45223  17.804  19.820  28.503  0.0091  0.2176 -0.2799
44360W        W45224  21.662  19.393  29.108  0.0913  0.0134 -0.0955
44361W        W45225  21.544  20.658  28.512 -0.2529  0.0440  0.0906
44362W        W45226  20.994  20.105   0.271  0.0290  0.1357  0.3309
44363W        W45227  21.182  18.570   0.982 -0.1156  0.1115  0.3019
44364W        W45228  18.707  17.312   2.593  0.1390  0.0695  0.0886
44365W        W45229  19.930  18.657  28.200 -0.0823  0.1927  0.2886
44366W        W45230  19.200  17.413   0.604 -0.0785  0.2579 -0.1296
44367W        W45231  22.025  19.868   0.295 -0.1458  0.1681 -0.0083
44368W        W45232  18.722  23.433   1.358  0.2593  0.3454 -0.2404
44369W        W45233  19.783  22.372   1.990 -0.0343  0.0302 -0.3110
44370W        W45234  22.421  17.083   3.658  0.3744  0.0968 -0.1496
44371W        W45235  16.450  21.097  28.801 -0.0090 -0.2308  0.1720
44372W        W45236  18.382  22.615  27.242  0.0127  0.0046 -0.0675
44373W        W45237  20.248  17.516   5.066 -0.0387 -0.0956  0.1222
44374W        W45238  17.158  19.841   0.131 -0.2277  0.0171  0.0546
44375W        W45239  21.823  19.461   1.390  0.0855 -0.0186  0.0246
44376W        W45240  21.881  20.986   1.188 -0.1142  0.1753 -0.3126
44377W        W45241  18.759  21.439   3.723 -0.1386  0.0291 -0.0640
44378W        W45242  20.395  20.344   4.085  0.2974  0.1527  0.0551
44379W        W45243  21.816  17.938  28.403 -0.1176  0.0631 -0.0930
44380W        W45244  20.624  15.194  28.140  0.1136 -0.2398 -0.0235
44381W        W45245  17.289  22.309   1.989 -0.3020  0.0501 -0.0693
44382W        W45246  20.346  18.376   0.431  0.0824  0.2173  0.0435
44383W        W45247  17.261  20.285   1.291 -0.0534  0.0549 -0.2515
44384W        W45248  20.854  16.357   1.357 -0.0125 -0.1790 -0.1612
44385W        W45249  19.465  20.897   0.665  0.3348 -0.1441  0.1653
44386W        W45250  21.218  20.369   2.258  0.0524  0.2558  0.0013
44387W        W45251  17.952  22.156   5.873 -0.1672 -0.1706 -0.2079
44388W        W45252  22.977  19.201  28.829  0.0989 -0.0444 -0.1560
44389W        W45253  18.623  23.654   1.913 -0.0394 -0.0045  0.1428
44390W        W45254  19.805  21.064   1.010 -0.1412 -0.0090  0.2709
44391W        W45255  17.277  20.739   1.653 -0.2303 -0.1224 -0.3320
44392W        W45256  22.213  23.331  28.466 -0.0270 -0.1522 -0.3423
44393W        W45257  15.759  22.829   0.729  0.1336 -0.1711  0.0989
44394W        W45258  21.524  20.596   0.892 -0.0292 -0.2219  0.2849
44395W        W45259  19.408  23.715   2.980 -0.4860  0.0953  0.1752
44396W        W45260  20.166  22.008   2.707  0.1544  0.3146  0.2150
44397W        W45261  23.908  19.161   1.973  0.0512  0.3665  0.0402
44398W        W45262  20.633  21.310  27.886  0.0693  0.4306 -0.0012
44399W        W45263  17.215  19.293   0.398 -0.1210 -0.0021 -0.0569
44400W        W45264  18.085  23.428   0.298 -0.3465  0.1951 -0.6342
44401W        W45265  19.212  17.621   2.867 -0.0635 -0.0703 -0.0253
44402W        W45266  19.841  19.081   1.453  0.0139  0.2359  0.2863
44403W        W45267  22.333  21.002   4.054  0.2293  0.3154 -0.0677
44404W        W45268  18.503  23.482   3.866 -0.1330  0.1930  0.4560
44405W        W45269  20.921  21.537   3.565  0.5350 -0.1049 -0.3615
44406W        W45270  19.659  19.818   3.006  0.3429  0.0747  0.0084
44407W        W45271  18.917  22.089   0.755 -0.1212  0.2034 -0.0968
44408W        W45272  22.267  20.932   0.240 -0.0554  0.0119  0.0564
44409W        W45273  19.362  18.625  29.026  0.0105  0.1361 -0.0540
44410W        W45274  21.743  17.347   0.118 -0.1963 -0.0829  0.0110
44411W        W45275  20.574  20.064  28.580 -0.0965 -0.3801 -0.1747
44412W        W45276  20.509  18.688   2.274  0.2109  0.2354  0.0544
44413W        W45277  18.198  19.239   2.955 -0.0683  0.0776 -0.0670
44414W        W45278  16.712  21.685   0.833 -0.0108 -0.3003 -0.1220
44415W        W45279  21.045  22.278   1.100  0.2654 -0.0108  0.0261
44416W        W45280  17.407  20.988   0.755  0.0168 -0.1022  0.1210
44417W        W45281  19.133  16.866  28.386 -0.0876  0.1639 -0.2438
44418W        W45282  19.415  19.125  28.881  0.0444 -0.0137  0.0545
44419W        W45283  19.566  19.424  28.487 -0.0906 -0.0079 -0.1169
44420W        W45284  16.534  17.772   1.429 -0.2029  0.3505  0.0085
44421W        W45285  21.837  17.575   2.861  0.2772  0.1165 -0.0152
44422W        W45286  22.968  18.441  29.072  0.1710  0.2310 -0.1134
44423W        W45287  17.921  19.508   1.458  0.4530  0.0639  0.1455
44424W        W45288  19.915  20.286   2.127  0.2426  0.0936 -0.0367
44425W        W45289  20.519  19.707   1.965 -0.3369  0.0403 -0.0343
44426W        W45290  21.813  17.637  28.813 -0.1778  0.0952 -0.2470
44427W        W45291  17.880  23.611   3.559 -0.0477  0.0128  0.3035
44428W        W45292  21.709  16.543   4.389  0.0213 -0.2242 -0.3562
44429W        W45293  18.276  19.023   2.100 -0.1226 -0.2507  0.1355
44430W        W45294  17.427  16.131   1.315  0.1127 -0.3413 -0.1464
44431W        W45295  17.364  19.037  28.612  0.3374  0.0595 -0.0335
44432W        W45296  21.749  20.195   1.949  0.0158  0.1910  0.0339
44433W        W45297  19.433  20.431   1.323  0.1016  0.0272 -0.1161
44434W        W45298  21.572  18.784   1.706  0.2596  0.0070  0.0854
44435W        W45299  19.353  22.725   1.289  0.1939 -0.0957  0.0066
44436W        W45300  20.536  18.544   1.746 -0.0284  0.1057 -0.4423
44437W        W45301  22.657  21.945  28.149  0.0393 -0.0789 -0.3920
44438W        W45302  22.725  20.435   1.548 -0.0084  0.2592 -0.1764
44439W        W45303  22.046  16.314  28.259 -0.1410 -0.0636  0.1952
44440W        W45304  22.095  16.840  28.432 -0.0698  0.2554  0.2051
44441W        W45305  20.781  18.487   1.217 -0.2054 -0.1251  0.2778
44442W        W45306  22.835  19.544   0.103  0.1477 -0.0064 -0.2730
44443W        W45307  20.477  21.471   1.254  0.0466 -0.1517  0.2697
44444W        W45308  18.481  19.509   1.439 -0.0924  0.0529 -0.2758
44445W        W45309  19.439  21.832  29.040  0.3550 -0.1849 -0.2512
44446W        W45310  20.056  17.578   4.158 -0.0599  0.0569 -0.0944
44447W        W45311  16.906  17.529   2.360 -0.0030  0.0571 -0.2512
44448W        W45312  20.584  19.828   1.384 -0.0179  0.2088  0.0838
44449W        W45313  20.270  16.796   0.595 -0.1861  0.1690 -0.0393
44450W        W45314  18.600  22.116  28.940 -0.3010 -0.0892 -0.2928
44451W        W45315  21.797  19.489   2.331 -0.3174  0.2469  0.0867
44452W        W45316  17.797  20.694  29.113  0.0725  0.1701 -0.0358
44453W        W45317  17.707  20.310   3.574 -0.1879  0.3270 -0.3414
44454W        W45318  19.479  22.121   0.617 -0.2038  0.0268 -0.2040
44455W        W45319  19.805  21.180   2.487 -0.0429  0.2194  0.1169
44456W        W45320  19.654  19.550   4.262 -0.3113  0.2202  0.1109
44457W        W45321  19.941  21.799   0.733 -0.0601  0.0584  0.3077
44458W        W45322  20.207  20.570   0.159 -0.0215  0.0131  0.0310
44459W        W45323  18.252  22.099   5.031  0.0419 -0.2314 -0.0870
44460W        W45324  20.171  20.626   3.111 -0.0159 -0.1994  0.0741
44461W        W45325  21.283  22.471   2.057  0.2656  0.3116 -0.3501
44462W        W45326  18.333  19.918   1.828  0.1410  0.0138 -0.1567
44463W        W45327  20.328  19.349   1.711 -0.0427  0.0802  0.3725
44464W        W45328  18.727  22.114   1.654  0.1447 -0.1546 -0.0119
44465W        W45329  18.468  21.221  26.846 -0.0423  0.3024 -0.0092
44466W        W45330  19.379  17.520   5.980 -0.3277  0.0347  0.0326
44467W        W45331  23.501  20.207   2.947 -0.1238  0.1750  0.0183
44468W        W45332  19.284  22.006   4.317 -0.0229  0.0649 -0.0003
44469W        W45333  19.845  21.611  27.919  0.2257  0.1234  0.0276
44470W        W45334  19.434  17.222   0.157  0.3045 -0.1056 -0.0367
44471W        W45335  18.634  19.811   6.742  0.2949  0.1915  0.0804
44472W        W45336  19.790  21.261   7.208 -0.0240 -0.1837 -0.2777
44473W        W45337  23.670  18.732   5.038 -0.1249 -0.1211 -0.1466
44474W        W45338  23.513  22.931   5.334 -0.0753  0.2506  0.0519
44475W        W45339  19.313  18.582   2.821 -0.0943 -0.1609  0.2335
44476W        W45340  20.994  20.807   3.997 -0.0429 -0.0746 -0.2226
44477W        W45341  18.897  18.554   5.554 -0.1845  0.3102  0.0135
44478W        W45342  19.849  20.693   2.540 -0.1750 -0.0537  0.1555
44479W        W45343  20.345  22.348   6.674  0.3307 -0.0217  0.0058
44480W        W45344  20.859  19.143   6.976 -0.2116  0.0233 -0.2342
44481W        W45345  17.491  16.913   7.179  0.2122 -0.1978 -0.1056
44482W        W45346  20.898  18.605   7.496 -0.2141  0.1398  0.1403
44483W        W45347  21.292  20.444   3.631  0.0188 -0.0430 -0.0398
44484W        W45348  23.486  19.280   7.972  0.0128  0.2705 -0.1856
44485W        W45349  18.638  18.868   7.524  0.0540 -0.2503  0.0070
44486W        W45350  18.446  18.124   9.692 -0.0487 -0.1152 -0.1503
44487W        W45351  20.322  21.123   2.228  0.1182  0.1202  0.0474
44488W        W45352  19.826  20.008   4.814 -0.1978  0.3862  0.3338
44489W        W45353  20.782  17.953   9.672 -0.1398 -0.2340  0.0042
44490W        W45354  21.685  17.170   5.914  0.2764  0.0383 -0.0256
44491W        W45355  22.217  18.369   6.045 -0.2543  0.3816  0.0383
44492W        W45356  20.107  19.743   3.345 -0.2150 -0.0172 -0.0349
44493W        W45357  17.900  19.136   4.503  0.1201  0.3471  0.0419
44494W        W45358  20.784  18.775   5.184 -0.0233  0.2010  0.0845
44495W        W45359  17.691  20.373   3.093 -0.0278  0.0964  0.1175
44496W        W45360  19.464  17.908  11.419  0.1506  0.1262 -0.1614
44497W        W45361  22.704  19.210   9.632  0.0361 -0.1789  0.1901
44498W        W45362  17.880  23.897   5.401  0.2058 -0.0940 -0.2029
44499W        W45363  19.931  20.193   5.758  0.2032 -0.1760  0.0247
44500W        W45364  20.302  16.897   5.152  0.2132 -0.1874  0.2063
44501W        W45365  19.377  20.853   2.744 -0.1270 -0.3328  0.0998
44502W        W45366  19.687  20.126   9.579  0.1868  0.2214 -0.0081
44503W        W45367  18.917  18.514   8.535  0.0700  0.0205  0.1793
44504W        W45368  21.011  21.616   7.500  0.1613 -0.1698 -0.0823
44505W        W45369  19.472  19.248   9.650  0.1728 -0.1255 -0.1107
44506W        W45370  20.139  23.303   3.808 -0.2275 -0.0909  0.0325
44507W        W45371  21.118  18.904   4.764  0.0254  0.0787  0.0144
44508W        W45372  22.394  18.894   6.410 -0.0162  0.1328  0.0573
44509W        W45373  19.450  20.988   5.750 -0.0283 -0.1042 -0.0244
44510W        W45374  19.056  17.368   9.986  0.0562  0.0706 -0.0882
44511W        W45375  21.345  18.835   5.757 -0.1675  0.0444  0.0077
44512W        W45376  23.438  19.849   6.129 -0.1532  0.3432 -0.1306
44513W        W45377  19.785  21.687   6.916  0.0587  0.0449  0.0896
44514W        W45378  20.091  19.724   5.151  0.2974  0.0814 -0.1242
44515W        W45379  18.531  22.238   1.026  0.1717 -0.0843  0.0383
44516W        W45380  19.043  20.063   1.113  0.0271  0.0554  0.1268
44517W        W45381  19.503  17.223   6.957  0.2176  0.0275  0.3745
44518W        W45382  23.758  18.403   6.005  0.0424  0.2787  0.0793
44519W        W45383  20.824  18.242   5.385  0.0139 -0.1163 -0.0733
44520W        W45384  21.958  18.053   2.868 -0.0234 -0.1318  0.1950
44521W        W45385  20.286  19.627   7.614  0.3843 -0.2125  0.0864
44522W        W45386  21.858  18.133   4.290  0.2571 -0.1740  0.1374
44523W        W45387  20.675  19.216   3.468  0.2991 -0.1819  0.0909
44524W        W45388  20.908  19.404   2.162 -0.1097  0.1826  0.1657
44525W        W45389  20.098  18.459   6.242  0.3330 -0.0162  0.0357
44526W        W45390  18.060  22.518   7.754 -0.1129  0.1086 -0.0019
44527W        W45391  17.308  20.336   4.375 -0.2008 -0.2769  0.2604
44528W        W45392  21.713  19.663   5.906  0.0123  0.2453  0.0918
44529W        W45393  18.712  21.005   3.955  0.1135  0.1381 -0.2671
44530W        W45394  20.897  19.527   4.276  0.0143  0.0206  0.0092
44531W        W45395  20.553  19.513   3.850  0.1840 -0.1148  0.1065
44532W        W45396  20.087  19.719   5.711 -0.1192 -0.3044  0.0237
44533W        W45397  20.339  18.372   6.879  0.3432 -0.0491  0.5016
44534W        W45398  18.785  21.253   2.280 -0.2242 -0.1743 -0.1111
44535W        W45399  18.675  17.030   6.465  0.0345  0.1505 -0.2774
44536W        W45400  22.288  14.259   3.600 -0.1851  0.1954 -0.2723
44537W        W45401  17.102  18.422  29.138  0.0939  0.1693 -0.1654
44538W        W45402  19.701  18.710   1.814 -0.3758  0.0102 -0.0617
44539W        W45403  17.408  20.228   2.229  0.0966 -0.3209 -0.4876
44540W        W45404  19.574  21.387   4.418  0.2464  0.2724  0.1027
44541W        W45405  20.124  21.089   6.348 -0.1731  0.0149  0.0925
44542W        W45406  20.165  21.903   3.862  0.1552 -0.2965  0.2380
44543W        W45407  21.404  23.918   3.740  0.0120 -0.0982  0.1334
44544W        W45408  19.312  18.254   7.204  0.2292  0.0338 -0.0732
44545W        W45409  21.246  21.185   5.344  0.1791  0.0964  0.0848
44546W        W45410  21.085  18.281   3.755  0.0334 -0.0068 -0.0477
44547W        W45411  16.483  19.213   4.507  0.3347 -0.1369 -0.1080
44548W        W45412  19.278  19.263   4.142  0.0827 -0.2462 -0.2357
44549W        W45413  21.091  17.315   6.902 -0.1540 -0.1979 -0.2640
44550W        W45414  18.961  19.568   4.580  0.0142  0.2902 -0.1053
44551W        W45415  18.678  18.643  11.724 -0.1439 -0.1411  0.3097
44552W        W45416  19.884  18.599   6.669 -0.1859  0.4261 -0.0254
44553W        W45417  19.346  17.041   6.203 -0.0718 -0.0236 -0.1747
44554W        W45418  18.974  16.805   4.487 -0.0648  0.0058  0.0343
44555W        W45419  21.950  17.541   4.318 -0.1325  0.0185  0.2212
44556W        W45420  19.749  21.218   1.936  0.2097 -0.1226  0.0307
44557W        W45421  20.266  21.517   6.670  0.0422 -0.1539  0.0914
44558W        W45422  21.072  15.326   7.815 -0.3167 -0.1873  0.1392
44559W        W45423  22.474  22.966   7.095 -0.0360 -0.3909 -0.1898
44560W        W45424  22.699  18.058   6.109  0.2782  0.1790 -0.2264
44561W        W45425  22.017  18.046   6.534  0.3105 -0.2963  0.1119
44562W        W45426  21.727  17.633   8.718 -0.0353 -0.5685  0.2140
44563W        W45427  17.863  20.940   4.117  0.2635  0.2708  0.0613
44564W        W45428  17.187  20.528   0.781 -0.2618 -0.0484 -0.0302
44565W        W45429  19.793  17.759   5.789 -0.0886 -0.0584 -0.0513
44566W        W45430  20.417  16.291   4.793  0.2647  0.0549  0.2391
44567W        W45431  23.749  18.642   4.390  0.1976  0.0174 -0.0958
44568W        W45432  21.274  18.905   5.263  0.2536 -0.0516  0.0717
44569W        W45433  20.770  18.085   4.399  0.0178 -0.0664 -0.2256
44570W        W45434  22.318  16.688   8.814  0.0102 -0.1117  0.1266
44571W        W45435  21.373  21.265   3.650  0.2217 -0.1082  0.2332
44572W        W45436  17.652  19.602   6.931  0.1780  0.0872 -0.6782
44573W        W45437  21.836  19.249   1.865 -0.4059 -0.2668  0.1337
44574W        W45438  20.847  20.833   6.208  0.2124 -0.4606  0.1955
44575W        W45439  21.038  17.981   8.766 -0.0926  0.2615  0.0774
44576W        W45440  18.120  18.747   4.327  0.1876 -0.0133 -0.0802
44577W        W45441  17.319  21.470   5.721 -0.0844 -0.2893 -0.1718
44578W        W45442  21.136  21.460   8.865  0.0416  0.0811  0.2918
44579W        W45443  22.724  15.790   7.422  0.1560  0.0027  0.0647
44580W        W45444  18.029  20.174   4.565  0.0450 -0.1293  0.3416
44581W        W45445  17.555  18.710   6.644  0.0405  0.0253  0.2040
44582W        W45446  19.946  22.402   3.022 -0.2103 -0.0706 -0.4328
44583W        W45447  20.048  20.603   4.562  0.1768 -0.0934  0.0951
44584W        W45448  19.941  20.671   6.770  0.1106  0.0906 -0.2415
44585W        W45449  20.392  18.795   4.227 -0.4124  0.1836 -0.1393
44586W        W45450  19.561  20.338   2.895 -0.0020 -0.1520 -0.2085
44587W        W45451  23.202  19.275   7.110  0.1726 -0.0737 -0.1111
44588W        W45452  21.133  18.357   4.652  0.0345  0.2807  0.2899
44589W        W45453  19.717  18.324   5.955 -0.1649 -0.1992  0.1027
44590W        W45454  22.119  17.296   5.962  0.1210 -0.1171  0.0335
44591W        W45455  22.251  18.019   3.929  0.0894  0.0103  0.0553
44592W        W45456  22.229  20.509   4.462 -0.2929  0.2878  0.1946
44593W        W45457  24.194  18.471   3.519 -0.0093 -0.1706 -0.0875
44594W        W45458  21.676  20.754   2.953 -0.1958  0.2814  0.3889
44595W        W45459  17.465  20.507   2.672 -0.2409  0.3317 -0.3521
44596W        W45460  22.983  17.979   4.334  0.2335 -0.2069  0.4651
44597W        W45461  20.081  19.342   7.248  0.0680  0.1705  0.1523
44598W        W45462  22.581  19.568   6.576 -0.0126 -0.2231  0.2108
44599W        W45463  21.791  21.632   6.073 -0.0264  0.2771 -0.2124
44600W        W45464  19.394  22.437   6.045  0.0503 -0.1541  0.2257
44601W        W45465  18.345  18.377   4.431 -0.1427  0.0122 -0.1347
44602W        W45466  21.163  18.174   7.184  0.0237  0.2798  0.0856
44603W        W45467  19.984  20.404   7.591 -0.3265 -0.1192 -0.2069
44604W        W45468  20.808  16.644   3.189 -0.0578 -0.0278 -0.2324
44605W        W45469  22.567  19.653   7.836  0.0971  0.2128  0.1706
44606W        W45470  17.635  18.046   5.010  0.1233  0.5379 -0.1269
44607W        W45471  20.260  18.801   5.012  0.0767  0.1137 -0.1566
44608W        W45472  22.733  17.308   7.237  0.2205 -0.0878  0.0366
44609W        W45473  18.757  20.652   4.410 -0.0414  0.2861 -0.1639
44610W        W45474  20.401  21.989   3.173 -0.0698  0.0254  0.1649
44611W        W45475  21.840  17.747   3.797 -0.1020  0.0379  0.2868
44612W        W45476  19.397  16.613   4.623  0.0699  0.1010 -0.1299
44613W        W45477  18.842  23.742   0.155 -0.2148 -0.2194 -0.1199
44614W        W45478  17.283  21.339   3.131 -0.0614  0.0661 -0.0925
44615W        W45479  17.989  21.834   3.599 -0.2030 -0.1044 -0.4039
44616W        W45480  18.829  20.225   2.393 -0.2872 -0.1620 -0.0486
44617W        W45481  20.269  15.976   6.379 -0.0183 -0.0854  0.1604
44618W        W45482  20.829  21.360   4.039  0.0138 -0.0125  0.1447
44619W        W45483  18.937  20.537   3.384  0.0067  0.0182  0.0988
44620W        W45484  20.176  18.396   4.734 -0.0066  0.2846  0.1030
44621W        W45485  23.425  21.649   5.889  0.0514 -0.0268 -0.0384
44622W        W45486  20.570  19.839   5.034 -0.1075  0.1253  0.1510
44623W        W45487  19.555  18.962   5.035  0.0571  0.0249 -0.2118
44624W        W45488  20.573  18.989   4.727  0.1026 -0.0215  0.2089
44625W        W45489  18.285  17.328   7.830 -0.1608 -0.0574  0.3698
44626W        W45490  19.986  18.708   5.680  0.0278 -0.2835 -0.0506
44627W        W45491  18.776  18.104   4.435 -0.1776  0.0416  0.0980
44628W        W45492  18.390  18.502   3.864 -0.1327 -0.1242 -0.0831
44629W        W45493  18.792  18.558   4.165 -0.3089  0.0960 -0.0800
44630W        W45494  16.728  21.023   1.559 -0.1052  0.1221 -0.2052
44631W        W45495  21.910  16.906   5.065 -0.3131 -0.2857 -0.1064
44632W        W45496  21.157  20.403   6.174  0.2992 -0.0377  0.0732
44633W        W45497  19.863  19.927   6.160  0.1499  0.1915  0.1786
44634W        W45498  21.836  21.077   4.946  0.4673 -0.1280  0.1088
44635W        W45499  20.563  18.726   7.860 -0.2717 -0.3261  0.0304
44636W        W45500  20.895  15.621   8.956 -0.3910 -0.0149 -0.3241
44637W        W45501  20.242  19.318   4.212 -0.1129  0.2124 -0.2867
44638W        W45502  18.531  22.042   8.912 -0.0544  0.0378  0.1541
44639W        W45503  20.245  19.931   6.493 -0.0716  0.0340 -0.0811
44640W        W45504  19.057  24.876   4.053  0.0472  0.0010  0.0426
44641W        W45505  19.269  20.356   4.445 -0.0898  0.0440  0.0242
44642W        W45506  19.863  20.677   5.931  0.1147  0.1517  0.0184
44643W        W45507  17.782  21.355   2.842 -0.2511 -0.0445  0.0888
44644W        W45508  19.218  18.885   1.975 -0.3706  0.2198  0.0748
44645W        W45509  20.290  17.295   4.479  0.0201 -0.3298  0.0725
44646W        W45510  24.259  18.364   4.055  0.2332 -0.0769  0.1843
44647W        W45511  18.262  19.053   8.664  0.1431  0.2124 -0.0082
44648W        W45512  19.501  21.011   6.306 -0.1741  0.0386  0.1881
44649W        W45513  19.553  23.013   6.829 -0.1575 -0.2678 -0.0327
44650W        W45514  20.618  18.535   6.473 -0.1279 -0.0795  0.4079
44651W        W45515  19.072  20.914   6.075  0.2049 -0.1964  0.3531
44652W        W45516  20.993  19.590   3.622  0.3661 -0.0172  0.4673
44653W        W45517  21.245  18.131   4.224  0.2376  0.1090 -0.2704
44654W        W45518  19.354  17.747   4.525  0.4243  0.1880 -0.1370
44655W        W45519  22.294  18.040   2.434  0.1451 -0.1378  0.0314
44656W        W45520  20.125  19.399   6.628  0.0701  0.0189 -0.0643
44657W        W45521  20.681  20.309   6.342  0.2939 -0.1093 -0.1607
44658W        W45522  17.953  18.632   1.460 -0.1110 -0.1713  0.1117
44659W        W45523  19.806  19.067   6.734 -0.4836 -0.1251 -0.1759
44660W        W45524  19.182  18.173   4.735 -0.0836 -0.0985  0.1127
44661W        W45525  18.375  19.791  27.888 -0.0433  0.3461 -0.5791
44662W        W45526  18.613  22.075   2.621  0.2144  0.3261  0.0598
44663W        W45527  20.519  21.280   8.782  0.3467 -0.2354  0.1530
44664W        W45528  20.553  19.122   6.531  0.0949 -0.2220  0.1309
44665W        W45529  19.929  17.749   5.330  0.1145  0.2659  0.0018
44666W        W45530  22.331  18.893   4.289  0.2179 -0.0174  0.0434
44667W        W45531  20.498  17.981   6.561  0.2047 -0.3957 -0.2990
44668W        W45532  18.202  16.476   8.304  0.2687 -0.0355  0.1215
44669W        W45533  19.094  16.819   3.156  0.0475 -0.0978 -0.0628
44670W        W45534  22.867  19.067   6.385 -0.1471  0.2381 -0.1796
44671W        W45535  18.571  20.151   4.093  0.1880  0.1166  0.2127
44672W        W45536  23.184  20.078   7.596 -0.1310 -0.0336  0.0698
44673W        W45537  21.499  17.979   6.445  0.0004 -0.0031  0.0917
44674W        W45538  17.856  16.853   5.739 -0.0615  0.1712  0.1986
44675W        W45539  18.899  20.560   1.397  0.0547 -0.0663 -0.1717
44676W        W45540  17.582  17.703   1.025  0.1737  0.2521 -0.1969
44677W        W45541  20.045  18.568   8.944  0.1723 -0.0552 -0.0029
44678W        W45542  21.487  19.157   3.736  0.0013 -0.0337 -0.0978
44679W        W45543  20.892  21.874   4.038 -0.4260  0.2574  0.1583
44680W        W45544  20.073  18.357   2.953  0.0689 -0.0293 -0.0487
44681W        W45545  18.532  20.249   8.106 -0.2226 -0.1308  0.1145
44682W        W45546  19.503  19.108   7.594 -0.0933  0.0719 -0.1533
44683W        W45547  21.493  17.017   6.869 -0.0301  0.0536  0.1215
44684W        W45548  19.639  18.731   7.983 -0.1769 -0.1830  0.1591
44685W        W45549  22.014  20.288   6.789 -0.0641 -0.0292  0.2720
44686W        W45550  22.293  17.617   5.074  0.3057 -0.0066  0.0935
44687W        W45551  19.976  20.688   5.088  0.1054 -0.2506 -0.1165
44688W        W45552  19.228  20.858   3.705 -0.0846  0.4233  0.1293
44689W        W45553  19.454  17.250   9.176 -0.0489  0.1012 -0.0362
44690W        W45554  21.247  20.099   4.573 -0.1433 -0.4245  0.1440
44691W        W45555  21.595  19.877   7.964 -0.0437 -0.1170 -0.4183
44692W        W45556  20.497  19.501   4.661 -0.0509  0.1763 -0.0248
44693W        W45557  19.214  22.459   3.974 -0.0504  0.0898  0.0020
44694W        W45558  18.066  19.872   2.293  0.4451 -0.1807 -0.3334
44695W        W45559  18.951  20.863   2.997 -0.3750 -0.1035 -0.3972
44696W        W45560  18.806  18.054   5.840 -0.1252 -0.0325 -0.0744
44697W        W45561  19.223  21.294   8.004  0.1628  0.0474 -0.1718
44698W        W45562  24.296  18.495   7.882 -0.0171 -0.1945  0.1245
44699W        W45563  19.557  22.483   3.443 -0.3501 -0.2330  0.0385
44700W        W45564  20.055  20.851   4.162  0.4458 -0.2246  0.2750
44701W        W45565  21.489  16.981   8.071 -0.0776 -0.1800  0.1718
44702W        W45566  20.053  21.043   8.177  0.0223 -0.0461  0.1592
44703W        W45567  17.837  21.233   5.384 -0.1188 -0.0226  0.0363
44704W        W45568  17.648  19.904   3.964 -0.0604 -0.3674  0.1470
44705W        W45569  19.624  18.811   6.243  0.1766 -0.4067  0.1097
44706W        W45570  18.788  19.709   4.124 -0.0259 -0.0221  0.1937
44707W        W45571  20.436  19.109   5.934  0.1303  0.1659 -0.2387
44708W        W45572  20.296  17.050   7.708 -0.1069 -0.1460 -0.1662
44709W        W45573  18.408  20.627   7.806 -0.0518  0.0553  0.3018
44710W        W45574  19.365  19.990   4.097 -0.2699  0.0497  0.1780
44711W        W45575  18.626  20.061   5.275 -0.2563 -0.1004  0.3010
44712W        W45576  18.810  19.357  11.029 -0.3591 -0.0063 -0.0894
44713W        W45577  18.787  20.570   5.244  0.3102  0.0137  0.2455
44714W        W45578  19.232  18.009   8.085 -0.0127 -0.1444 -0.0180
44715W        W45579  21.233  18.423   6.199 -0.0413  0.2099 -0.0266
44716W        W45580  17.556  21.806   3.846 -0.2048 -0.0321 -0.4016
44717W        W45581  22.970  19.843   6.222 -0.3141 -0.2287 -0.0384
44718W        W45582  19.935  19.136   5.278 -0.0029 -0.1018  0.0710
44719W        W45583  21.271  17.885   3.404  0.2901  0.0081 -0.0626
44720W        W45584  21.044  18.504   8.039 -0.0404 -0.2928  0.0020
44721W        W45585  18.764  19.013   2.190 -0.2281 -0.0867  0.0231
44722W        W45586  18.744  20.875   4.864  0.0146 -0.0378 -0.3032
44723W        W45587  21.842  18.656   7.752 -0.0533  0.3340 -0.1539
44724W        W45588  19.815  18.362   7.134  0.3819  0.0393  0.0571
44725W        W45589  18.035  18.587   2.009 -0.0967  0.1329 -0.2194
44726W        W45590  21.806  21.491   4.681  0.0703  0.0131 -0.1998
44727W        W45591  19.998  18.010   3.948  0.1752 -0.0516 -0.2409
44728W        W45592  18.683  19.298   6.633  0.0440 -0.2990 -0.2627
44729W        W45593  17.940  19.822   3.495 -0.2715 -0.0294 -0.0963
44730W        W45594  21.598  17.782   7.973 -0.2414 -0.1162  0.4896
44731W        W45595  16.844  16.771   5.975 -0.1187  0.4253  0.1461
44732W        W45596  18.009  19.649   8.166 -0.0342 -0.0222 -0.2684
44733W        W45597  20.254  20.550   5.599 -0.1250 -0.0282  0.1265
44734W        W45598  19.963  19.794   8.026  0.2219  0.2009 -0.0456
44735W        W45599  18.626  21.624   4.363  0.0236  0.1190  0.0944
44736W        W45600  19.292  19.144   6.779 -0.0959  0.0376 -0.1920
44737W        W45601  15.890  21.956   0.598 -0.0211 -0.0732 -0.0153
44738W        W45602  20.291  18.270   4.257 -0.2825  0.0360  0.2122
44739W        W45603  18.999  19.018   5.692  0.2629 -0.1204  0.3922
44740W        W45604  20.768  16.807   5.521  0.0879 -0.0556  0.4833
44741W        W45605  19.641  21.866   4.704  0.0953 -0.2058  0.0063
44742W        W45606  19.602  20.303   8.446 -0.3263  0.2614 -0.0619
44743W        W45607  22.145  18.563   6.825  0.0635  0.1453  0.0839
44744W        W45608  20.860  21.165  12.281  0.0576 -0.0868 -0.0067
44745W        W45609  19.527  19.590   2.220  0.3292 -0.1266 -0.0766
44746W        W45610  20.122  17.755   8.392 -0.1049 -0.1841  0.0262
44747W        W45611  19.135  17.356   4.314  0.0579 -0.0081 -0.0613
44748W        W45612  21.835  17.359   8.263 -0.2366 -0.3334  0.2502
44749W        W45613  19.026  18.836   5.194  0.1563 -0.1516 -0.0888
44750W        W45614  19.286  18.840   7.206  0.0946 -0.2137 -0.2288
44751W        W45615  18.596  20.625   2.805  0.2503  0.0449  0.0902
44752W        W45616  19.964  19.338   2.653 -0.0759  0.0075 -0.0175
44753W        W45617  18.967  20.823   2.477  0.1410 -0.0754  0.4564
44754W        W45618  18.930  22.651   6.203 -0.0029 -0.1641  0.0643
44755W        W45619  22.175  19.721   1.684 -0.0600 -0.1070  0.1042
44756W        W45620  21.609  17.597   6.141  0.4295  0.0635 -0.0256
44757W        W45621  22.366  23.368   2.674 -0.0389 -0.5754  0.0968
44758W        W45622  20.310  19.528   6.199 -0.4224 -0.4617  0.0292
44759W        W45623  21.650  16.265   5.787  0.0016  0.0564  0.1174
44760W        W45624  19.404  20.415   2.396  0.4120 -0.1409 -0.1066
44761W        W45625  20.332  17.722   5.690 -0.2180 -0.0764 -0.2192
44762W        W45626  22.447  17.746   4.315  0.2067 -0.0990 -0.1281
44763W        W45627  19.328  19.941   6.144 -0.2027 -0.1140  0.1720
44764W        W45628  16.554  19.892   2.334 -0.0853 -0.1827 -0.1795
44765W        W45629  17.870  21.810   1.550  0.2092 -0.1187  0.1804
44766W        W45630  20.679  18.532   4.583 -0.2636 -0.1542 -0.1323
44767W        W45631  19.783  17.329   3.515  0.3121 -0.1485 -0.0728
44768W        W45632  20.037  18.512   8.428 -0.0503 -0.0462  0.0094
44769W        W45633  20.193  17.383   6.681  0.1237  0.2261 -0.0963
44770W        W45634  16.213  19.223   8.779  0.4462 -0.0082 -0.2006
44771W        W45635  18.545  19.876   1.032  0.1548 -0.2311  0.0478
44772W        W45636  17.025  18.729   8.329  0.0790 -0.0910 -0.1628
44773W        W45637  19.142  22.221   7.328 -0.2130  0.1403  0.0486
44774W        W45638  22.000  22.702   6.350 -0.1628 -0.1572  0.0814
44775W        W45639  18.471  20.462   4.878 -0.0969  0.0388 -0.1077
44776W        W45640  22.207  22.059   6.942 -0.0015  0.0940 -0.0113
44777W        W45641  20.531  20.816   4.359  0.0326  0.2539 -0.1874
44778W        W45642  21.694  18.301   6.131  0.0366  0.0261  0.0148
44779W        W45643  20.277  19.125   2.258  0.0328  0.1939 -0.2484
44780W        W45644  18.600  20.804   5.710  0.2183  0.1368 -0.2815
44781W        W45645  17.437  17.694   4.080  0.0945 -0.2029 -0.4241
44782W        W45646  20.537  19.530   7.206 -0.0846 -0.0994 -0.0403
44783W        W45647  19.745  18.289   2.569  0.0381  0.0132 -0.1799
44784W        W45648  19.606  19.880   3.655  0.1848 -0.1319 -0.2020
44785W        W45649  20.207  22.094   6.011  0.2869 -0.1381  0.3819
44786W        W45650  18.030  22.758   6.700  0.2190  0.2955  0.2043
44787W        W45651  17.721  16.651   3.988 -0.0532 -0.1292  0.0818
44788W        W45652  22.337  19.488   0.045  0.2102 -0.0846  0.1017
44789W        W45653  21.325  19.797   6.325  0.1446 -0.2526 -0.0613
44790W        W45654  20.454  18.585   3.297  0.1066 -0.0535  0.3550
44791W        W45655  19.423  19.654   7.668 -0.2333  0.2304 -0.0846
44792W        W45656  20.553  21.471   3.218  0.1096 -0.2230  0.1404
44793W        W45657  18.244  19.453   6.838  0.3036  0.0740 -0.1125
44794W        W45658  19.802  20.865   2.977  0.1956  0.0244 -0.1486
44795W        W45659  18.487  21.846   3.497  0.2870 -0.0600 -0.0970
44796W        W45660  19.268  21.489   6.879 -0.1201 -0.0728 -0.0623
44797W        W45661  19.535  17.204   1.533  0.1432 -0.2276  0.0915
44798W        W45662  19.167  19.272   4.941 -0.1294 -0.2018 -0.1270
44799W        W45663  21.026  20.978   4.512 -0.0262  0.0111 -0.2451
44800W        W45664  18.294  18.435   5.634  0.2138 -0.0781  0.2258
44801W        W45665  19.856  17.002   5.965 -0.3514  0.1956 -0.0170
44802W        W45666  22.330  17.125   4.143 -0.0020 -0.1255  0.2434
44803W        W45667  20.180  21.014   7.508  0.2611  0.0810  0.0146
44804W        W45668  19.944  23.036   5.646 -0.0748  0.0680  0.0185
44805W        W45669  25.122  17.285   6.111 -0.2440  0.4376  0.0407
44806W        W45670  19.608  21.042   4.921 -0.0403  0.1221  0.3210
44807W        W45671  17.258  21.796   6.258  0.2701 -0.1593 -0.0915
44808W        W45672  22.259  21.449   6.286 -0.2090  0.3606  0.1802
44809W        W45673  20.795  19.462   6.055 -0.2496 -0.4397  0.3710
44810W        W45674  20.906  20.441   4.424  0.1482 -0.0765 -0.1062
44811W        W45675  17.867  20.535   2.243  0.1907  0.3084  0.2463
44812W        W45676  20.014  17.320   5.596  0.4592  0.0735  0.4354
44813W        W45677  20.763  16.737   6.458 -0.0343 -0.1756 -0.0239
44814W        W45678  18.461  23.917   5.480 -0.1542  0.4824 -0.0507
44815W        W45679  18.391  20.775   2.185 -0.3171  0.0092 -0.2696
44816W        W45680  20.354  18.971   5.455 -0.0752 -0.0560  0.2246
44817W        W45681  17.120  21.282   4.452 -0.0146  0.0433  0.0427
44818W        W45682  21.930  19.005   6.706 -0.2108  0.1802 -0.3548
44819W        W45683  19.277  19.176   2.405 -0.2645  0.3125  0.2561
44820W        W45684  19.511  21.445   0.828  0.0059 -0.0213  0.0441
44821W        W45685  24.129  16.878   7.037  0.1213  0.0681 -0.3069
44822W        W45686  21.120  18.737   2.843  0.0918 -0.0543 -0.2140
44823W        W45687  22.437  22.244   4.905 -0.0031  0.0404  0.2681
44824W        W45688  19.016  20.042   3.722 -0.1809  0.2158 -0.1333
44825W        W45689  21.360  22.281   3.218  0.0022  0.1479 -0.0016
44826W        W45690  22.301  18.362   3.077 -0.1833  0.1337 -0.1181
44827W        W45691  18.341  21.262   3.491  0.3197 -0.1544 -0.1849
44828W        W45692  21.698  15.731   7.096 -0.2798  0.0013  0.0637
44829W        W45693  18.601  18.503  10.477 -0.2211 -0.0697  0.1546
44830W        W45694  20.462  19.998   5.973  0.2151 -0.1506 -0.1976
44831W        W45695  18.231  19.442   4.146 -0.0077 -0.2789 -0.2886
44832W        W45696  22.895  18.599   6.204 -0.3403 -0.0989  0.5945
44833W        W45697  20.249  18.612   3.755 -0.1099 -0.0240 -0.2496
44834W        W45698  18.415  18.057   4.847 -0.0357  0.1600 -0.3188
44835W        W45699  18.289  21.025   8.056 -0.0385  0.2556 -0.2305
44836W        W45700  20.087  21.644   6.218  0.0383 -0.2274  0.3092
44837W        W45701  18.606  19.114   5.475 -0.0721 -0.0593 -0.0376
44838W        W45702  19.413  20.339   3.619 -0.0866 -0.1403 -0.0903
44839W        W45703  20.504  17.298   5.551 -0.3367 -0.1181  0.1312
44840W        W45704  21.627  18.318   3.871 -0.0604 -0.1613  0.1024
44841W        W45705  18.784  20.943   0.309 -0.2574 -0.0368  0.3160
44842W        W45706  20.487  18.076   3.364  0.3095  0.1110 -0.0436
44843W        W45707  22.224  19.012   2.893  0.0840 -0.0921  0.0960
44844W        W45708  19.606  19.596   5.800 -0.0773 -0.0333 -0.2049
44845W        W45709  19.681  21.132   3.988 -0.3629  0.1881 -0.0286
44846W        W45710  19.398  16.538  10.313  0.0949 -0.0230 -0.1054
44847W        W45711  21.319  16.315   7.453  0.1477 -0.0697 -0.0052
44848W        W45712  20.325  20.313   6.827  0.1266  0.0346  0.1517
44849W        W45713  19.665  17.397   7.494  0.1619 -0.1370 -0.1066
44850W        W45714  19.613  17.902   6.228 -0.0981  0.0737 -0.2259
44851W        W45715  20.264  18.895   6.895 -0.0730  0.1314  0.1959
44852W        W45716  16.864  20.132   3.515 -0.1482  0.1095 -0.0470
44853W        W45717  18.815  19.860   1.932  0.1301  0.1833 -0.1065
44854W        W45718  18.677  18.941   8.402  0.1039 -0.3532 -0.0619
44855W        W45719  22.144  22.503   5.836 -0.0444 -0.2782  0.1133
44856W        W45720  19.464  18.128   6.736 -0.1123  0.1650 -0.2379
44857W        W45721  21.025  21.555   2.963  0.2032  0.0609  0.1424
44858W        W45722  18.231  20.511   4.167 -0.0477  0.1492  0.2568
44859W        W45723  20.123  22.821   2.793 -0.2355 -0.0375  0.2109
44860W        W45724  21.614  20.787   5.225  0.1453  0.0392 -0.0919
44861W        W45725  19.083  20.638   7.157  0.3650 -0.5006 -0.2799
44862W        W45726  18.121  17.728   9.755  0.2150 -0.1767  0.0657
44863W        W45727  21.278  21.607   3.996  0.0090 -0.0311 -0.0507
44864W        W45728  19.239  21.928   6.080  0.0652 -0.0197  0.0256
44865W        W45729  16.364  22.600   6.612 -0.0058 -0.3592  0.1710
44866W        W45730  20.876  19.142   5.514  0.2066  0.2937  0.0783
44867W        W45731  19.798  20.643   3.589 -0.1020 -0.1107  0.1854
44868W        W45732  20.328  20.261   5.130 -0.0165 -0.1507  0.0522
44869W        W45733  19.015  24.707   6.275  0.1219  0.1105  0.3059
44870W        W45734  18.858  18.501   4.897 -0.0169 -0.2170 -0.0060
44871W        W45735  18.916  21.974  10.977  0.3191 -0.2826 -0.0965
44872W        W45736  20.473  18.886  13.024 -0.0525  0.1139  0.2433
44873W        W45737  17.242  17.226   9.060 -0.3910 -0.1310 -0.0476
44874W        W45738  22.943  23.046  12.021  0.0815  0.3233 -0.0518
44875W        W45739  21.189  21.563   5.656  0.0689  0.1694  0.1873
44876W        W45740  17.422  18.482  10.353 -0.2783 -0.1687 -0.0493
44877W        W45741  19.577  18.340   9.002  0.1753  0.1612 -0.4074
44878W        W45742  20.767  18.667   7.012  0.2712 -0.0596  0.0413
44879W        W45743  20.591  21.953  10.310 -0.0955 -0.2237 -0.0361
44880W        W45744  19.062  19.392   7.972 -0.0049 -0.2280  0.0630
44881W        W45745  19.684  19.217  12.964 -0.0537 -0.1265 -0.0256
44882W        W45746  19.803  18.270  10.535  0.1960  0.0508 -0.1045
44883W        W45747  22.389  17.341   8.228  0.2102 -0.3895 -0.1232
44884W        W45748  21.379  19.757  11.914  0.2349 -0.1782  0.0553
44885W        W45749  18.531  18.215  11.182  0.1810 -0.3499  0.0816
44886W        W45750  19.050  25.112  12.880  0.1515 -0.3347  0.0987
44887W        W45751  20.714  24.476   6.574 -0.1549  0.3414 -0.1832
44888W        W45752  21.437  19.497   8.801 -0.0103 -0.1160 -0.1716
44889W        W45753  20.911  19.676  11.037 -0.2218  0.1517 -0.2459
44890W        W45754  18.885  19.970   8.393 -0.0198  0.0094 -0.2586
44891W        W45755  23.272  19.868  10.593  0.0666  0.0217 -0.0086
44892W        W45756  18.229  20.285  10.471 -0.1927 -0.1904  0.0723
44893W        W45757  18.746  20.918   9.977 -0.1140 -0.0445  0.1742
44894W        W45758  20.837  21.605   9.821 -0.1390  0.1130 -0.3104
44895W        W45759  19.346  21.014  12.120  0.1967 -0.1525  0.0103
44896W        W45760  20.016  17.718   8.882  0.5102 -0.3075  0.1472
44897W        W45761  21.318  21.110  11.009 -0.2128 -0.1200 -0.0821
44898W        W45762  19.216  20.325   8.170 -0.3440 -0.0727 -0.1086
44899W        W45763  23.354  19.001   8.470 -0.0448 -0.0473  0.4321
44900W        W45764  19.421  21.633   8.761 -0.1529  0.5169  0.0990
44901W        W45765  19.691  21.396   9.438 -0.0606  0.3360 -0.1053
44902W        W45766  20.753  21.189  10.222 -0.2157  0.1132 -0.2748
44903W        W45767  20.509  18.750   9.006 -0.1133  0.1523  0.1721
44904W        W45768  20.959  21.103  11.329  0.0983 -0.2833 -0.3306
44905W        W45769  16.925  20.163  11.376 -0.0421 -0.1944  0.1692
44906W        W45770  21.371  23.855  10.695 -0.0948  0.1784 -0.2223
44907W        W45771  17.317  16.483   9.625  0.0899  0.2413  0.3469
44908W        W45772  18.430  19.542   8.725 -0.1224 -0.2322 -0.0292
44909W        W45773  22.973  18.742   9.674  0.3582 -0.2063 -0.0866
44910W        W45774  20.987  18.988  10.489 -0.1641  0.1622  0.4216
44911W        W45775  23.105  18.442   5.754  0.3777 -0.1195  0.3435
44912W        W45776  21.952  17.945  12.447 -0.0939  0.3328 -0.3142
44913W        W45777  19.520  19.341   9.136 -0.1556 -0.1234  0.2614
44914W        W45778  21.155  21.832   6.127  0.3281 -0.1388 -0.0415
44915W        W45779  19.087  21.211   4.882  0.2267  0.0807 -0.0568
44916W        W45780  18.112  20.619   8.893 -0.0721 -0.1622 -0.4667
44917W        W45781  17.963  17.818  10.804 -0.1652 -0.0301  0.0081
44918W        W45782  21.601  20.286   9.693  0.0408  0.0115  0.1623
44919W        W45783  19.565  18.669   9.353  0.0505 -0.0296 -0.2265
44920W        W45784  21.121  20.477   8.722 -0.1031 -0.1179  0.2039
44921W        W45785  20.139  18.419   7.948  0.0315 -0.0219  0.0197
44922W        W45786  16.220  18.394   9.418 -0.2599 -0.1735 -0.4669
44923W        W45787  21.338  19.037  11.498 -0.4397  0.0007 -0.0072
44924W        W45788  19.524  19.421   7.196 -0.1141  0.1365 -0.0866
44925W        W45789  17.109  19.779   7.758 -0.0459 -0.0381  0.2631
44926W        W45790  19.529  19.232   8.084 -0.0331  0.1148  0.2947
44927W        W45791  18.641  18.837   9.483  0.1606 -0.4273 -0.1022
44928W        W45792  17.791  21.661  11.050 -0.0898 -0.0961 -0.3381
44929W        W45793  19.610  21.689   6.323  0.1851 -0.1829 -0.1149
44930W        W45794  19.917  18.548   4.255 -0.0475 -0.2222 -0.0207
44931W        W45795  19.108  20.930   7.634  0.1318  0.4332  0.0873
44932W        W45796  19.330  19.994   9.904 -0.2248  0.0073 -0.3142
44933W        W45797  21.249  20.494  10.251  0.2408 -0.2547  0.0770
44934W        W45798  19.032  20.460  10.109  0.2194 -0.1822  0.0008
44935W        W45799  19.173  18.959   9.316 -0.1325 -0.1180 -0.1128
44936W        W45800  23.772  19.870   9.335  0.0995  0.1781 -0.0098
44937W        W45801  19.468  17.181  10.875 -0.1821 -0.1547  0.0478
44938W        W45802  17.909  16.838   7.528 -0.0137  0.0261 -0.0185
44939W        W45803  19.325  20.161   7.500 -0.4844  0.2148 -0.1416
44940W        W45804  18.765  19.018   7.043  0.0011  0.0139 -0.0292
44941W        W45805  20.672  20.124  10.606 -0.0690  0.1010 -0.0069
44942W        W45806  18.797  17.083   9.263 -0.0316 -0.0216 -0.0357
44943W        W45807  20.774  19.940   8.541 -0.0397  0.2141 -0.2834
44944W        W45808  21.647  19.425   9.817 -0.3605  0.1261 -0.0687
44945W        W45809  21.859  21.051   6.224 -0.1363 -0.0203  0.1671
44946W        W45810  20.273  18.799  11.322  0.0228 -0.0654  0.0845
44947W        W45811  17.929  18.204   8.449  0.2286 -0.1696 -0.2487
44948W        W45812  19.753  25.504  11.863 -0.2837  0.1442  0.0697
44949W        W45813  16.728  19.020   8.889 -0.1780  0.2560 -0.0947
44950W        W45814  19.785  19.787   8.478  0.0512 -0.2751  0.3291
44951W        W45815  17.246  20.817  10.050  0.0487 -0.0012  0.1910
44952W        W45816  20.270  20.177  13.034  0.0317  0.0501 -0.1621
44953W        W45817  20.015  15.987  10.090 -0.0922  0.1261  0.0081
44954W        W45818  19.080  18.912   7.806 -0.0539  0.0475 -0.2465
44955W        W45819  19.486  23.384  13.319  0.1979 -0.0216 -0.0494
44956W        W45820  19.255  18.167   8.699  0.0061  0.0453 -0.2851
44957W        W45821  20.402  23.938  10.955  0.1611 -0.1158  0.0255
44958W        W45822  19.522  17.208  13.311  0.0805 -0.0313  0.0722
44959W        W45823  21.708  21.035  11.931 -0.4081 -0.0303 -0.0153
44960W        W45824  21.684  19.105   9.440 -0.1793 -0.0273  0.0974
44961W        W45825  20.346  21.577  10.038  0.2127 -0.0425  0.2359
44962W        W45826  21.401  20.597  13.227 -0.2132 -0.0214  0.2571
44963W        W45827  18.110  21.019  10.204 -0.0787 -0.1402 -0.0757
44964W        W45828  20.615  18.788   8.375  0.1672  0.0373 -0.1661
44965W        W45829  20.239  19.988  10.782  0.0884 -0.0135 -0.0981
44966W        W45830  19.499  20.454   9.045 -0.0409 -0.2060 -0.2769
44967W        W45831  19.073  22.154   8.203 -0.1955  0.0501  0.0986
44968W        W45832  19.638  23.239   9.307  0.3071  0.1987  0.3480
44969W        W45833  18.623  17.671   9.924 -0.2949  0.1195 -0.2695
44970W        W45834  19.546  19.728  10.331  0.2798 -0.2816  0.0951
44971W        W45835  23.244  21.246   7.331 -0.0394 -0.2662  0.0186
44972W        W45836  19.167  20.052   9.138  0.0958  0.0837  0.2829
44973W        W45837  19.490  16.696   9.859 -0.1535 -0.1265 -0.5488
44974W        W45838  21.649  20.959   7.192  0.1326  0.2057 -0.1178
44975W        W45839  22.075  18.731   9.045 -0.3550 -0.1741  0.0889
44976W        W45840  20.141  20.178   8.355  0.1255 -0.4910 -0.2573
44977W        W45841  19.481  20.369   5.833 -0.0641  0.2505  0.0716
44978W        W45842  21.283  22.263  11.823  0.1173  0.0499 -0.0281
44979W        W45843  22.554  18.989   8.962 -0.1366  0.0949  0.0941
44980W        W45844  17.075  17.249   8.379  0.2518  0.2557 -0.0649
44981W        W45845  19.414  20.799  12.582  0.2410 -0.0482  0.0618
44982W        W45846  19.293  20.401   9.531 -0.1985 -0.0135  0.0785
44983W        W45847  21.318  18.665  10.118 -0.3217  0.2946 -0.2628
44984W        W45848  21.168  20.647  10.870  0.2360  0.0837  0.3278
44985W        W45849  25.590  20.232   9.159  0.4064  0.0700  0.0769
44986W        W45850  20.551  18.423   9.850  0.0237 -0.0520  0.0519
44987W        W45851  21.514  16.457  12.959  0.1461  0.2940 -0.2520
44988W        W45852  19.901  19.401   9.491  0.1435  0.0444  0.1131
44989W        W45853  21.871  18.285   9.135  0.2879 -0.0176  0.2351
44990W        W45854  20.109  16.877   8.673 -0.2811 -0.0384  0.4589
44991W        W45855  23.013  19.808   8.945 -0.2640 -0.2197 -0.1477
44992W        W45856  20.930  22.111   7.524  0.2244 -0.0978 -0.0620
44993W        W45857  20.702  21.134   9.733  0.2097 -0.2997  0.1972
44994W        W45858  19.589  21.615   7.808 -0.2356  0.0254  0.0061
44995W        W45859  19.518  22.144   6.471 -0.1620 -0.0909 -0.1293
44996W        W45860  20.881  17.219   9.146 -0.1493  0.2795 -0.1689
44997W        W45861  15.688  18.866  11.028  0.0843 -0.0031  0.1138
44998W        W45862  21.130  19.880  10.481 -0.2739  0.1380 -0.2513
44999W        W45863  21.393  25.476   8.749 -0.0843 -0.1651  0.0209
45000W        W45864  22.849  20.891   4.798  0.1203  0.1498  0.1167
45001W        W45865  20.661  23.262   8.403  0.1595 -0.3092 -0.2377
45002W        W45866  20.374  20.989  10.639  0.3712  0.1803 -0.0244
45003W        W45867  21.243  21.258   9.692  0.1619 -0.2536  0.1031
45004W        W45868  20.008  18.140   9.262  0.2190 -0.0671 -0.2499
45005W        W45869  18.060  19.750   9.709 -0.0641 -0.1770  0.0158
45006W        W45870  14.899  17.392   7.997  0.0387  0.1681 -0.3461
45007W        W45871  21.029  18.229   9.336  0.0231  0.2147  0.0269
45008W        W45872  21.144  19.430  10.703 -0.1351  0.0187  0.3277
45009W        W45873  23.927  19.833   8.799 -0.2286 -0.0296  0.0413
45010W        W45874  18.591  20.857   6.706 -0.1032 -0.1612  0.3317
45011W        W45875  18.273  16.776  10.055  0.1202 -0.0838  0.0387
45012W        W45876  20.623  15.204  12.168 -0.2262 -0.0895 -0.3459
45013W        W45877  18.658  20.959   7.451  0.0508  0.2958 -0.1636
45014W        W45878  18.762  21.078   5.325 -0.1299  0.3910 -0.1337
45015W        W45879  19.418  21.929  10.761 -0.2019  0.0540 -0.0161
45016W        W45880  19.778  16.461   9.423 -0.2439  0.1125 -0.1796
45017W        W45881  22.808  17.018   9.593 -0.1993  0.4013  0.0235
45018W        W45882  22.392  23.055  10.333 -0.1142 -0.0484 -0.1727
45019W        W45883  18.841  21.272   8.353 -0.0767 -0.0530  0.1097
45020W        W45884  19.443  22.132   8.699 -0.4456  0.0520 -0.1433
45021W        W45885  20.818  20.684  10.489  0.0356  0.2048  0.2002
45022W        W45886  20.876  18.823  10.063  0.1299  0.3305 -0.4877
45023W        W45887  21.347  22.170   8.156  0.0845  0.0876 -0.0615
45024W        W45888  21.039  18.680   9.007 -0.0404  0.2740 -0.3393
45025W        W45889  19.903  17.370   9.480  0.0081 -0.0131  0.0851
45026W        W45890  22.170  19.324  12.598 -0.3343  0.2050 -0.1293
45027W        W45891  18.969  21.033   9.510 -0.1543 -0.0200  0.2072
45028W        W45892  18.172  20.972  10.700 -0.0489 -0.3497  0.3203
45029W        W45893  17.250  17.404   7.352  0.0668 -0.0861 -0.3874
45030W        W45894  18.380  20.183   9.635 -0.0338 -0.0803 -0.0431
45031W        W45895  23.353  19.763   7.136  0.0156  0.0487 -0.1272
45032W        W45896  20.208  22.269  11.079 -0.0056 -0.3331 -0.3038
45033W        W45897  20.496  20.322   8.741  0.1696  0.1109  0.1579
45034W        W45898  24.066  20.867   9.000  0.0037  0.3184  0.1150
45035W        W45899  18.848  22.678  14.416  0.1372  0.0841 -0.2071
45036W        W45900  17.372  18.967   9.639 -0.2407  0.1133  0.0597
45037W        W45901  18.810  19.173  11.946  0.1907  0.0026  0.1695
45038W        W45902  15.894  20.325   6.981  0.0733  0.0110  0.0704
45039W        W45903  21.569  20.626   7.721 -0.1279 -0.1120 -0.0113
45040W        W45904  20.577  17.135  10.286  0.2534 -0.0489 -0.0491
45041W        W45905  16.955  18.945   6.695 -0.1253  0.0527 -0.0034
45042W        W45906  22.085  21.564  11.512 -0.1830 -0.3281  0.0909
45043W        W45907  18.535  19.619   8.053  0.0610  0.0353 -0.2354
45044W        W45908  19.858  20.202   5.279 -0.3280 -0.2487 -0.0918
45045W        W45909  18.071  15.621  11.280 -0.4099 -0.2348  0.0974
45046W        W45910  24.737  19.427   8.669 -0.0319  0.0283 -0.2108
45047W        W45911  19.532  20.834  10.577 -0.1327  0.1364  0.5462
45048W        W45912  19.652  19.955   9.094 -0.0272  0.0896 -0.5033
45049W        W45913  15.944  21.972   9.694 -0.0502 -0.2863  0.1981
45050W        W45914  19.048  18.959  11.004  0.0312 -0.1246 -0.0199
45051W        W45915  19.893  21.403   5.040  0.0376 -0.3265  0.0609
45052W        W45916  19.128  23.425   9.389  0.0713 -0.1239 -0.1486
45053W        W45917  21.255  17.149   9.853 -0.2646 -0.3620 -0.0172
45054W        W45918  20.787  20.362   7.713  0.3474 -0.0112  0.2857
45055W        W45919  18.187  18.294   8.942  0.2310  0.3458 -0.0577
45056W        W45920  21.748  20.920  12.708 -0.4859 -0.0290 -0.0206
45057W        W45921  20.762  18.363   8.720 -0.0263  0.0024 -0.1217
45058W        W45922  17.708  20.676   9.814 -0.4625  0.1223  0.2333
45059W        W45923  18.131  21.654   8.943  0.2997  0.1274 -0.0530
45060W        W45924  19.911  20.300   8.842 -0.3207 -0.0944 -0.0688
45061W        W45925  21.040  18.344   6.725 -0.2686  0.2542 -0.3914
45062W        W45926  20.675  19.986   6.883 -0.0491 -0.0817 -0.0482
45063W        W45927  20.017  20.342   9.932 -0.2011 -0.2583 -0.1175
45064W        W45928  20.084  19.832  13.300 -0.0973  0.1977 -0.1215
45065W        W45929  19.044  19.595   9.896 -0.0926  0.0548  0.0405
45066W        W45930  22.743  17.495   9.183 -0.2840  0.0992 -0.0842
45067W        W45931  19.428  17.413  10.355  0.1090  0.2916  0.1804
45068W        W45932  19.367  19.717   9.465 -0.2838 -0.1141 -0.0468
45069W        W45933  18.718  17.154  10.366 -0.2761 -0.0107 -0.0724
45070W        W45934  21.413  20.060   9.269  0.1849  0.0964 -0.3929
45071W        W45935  18.182  20.059   9.153  0.1705 -0.3644 -0.0730
45072W        W45936  20.602  19.779   9.910 -0.2927  0.1783  0.0278
45073W        W45937  21.534  18.776   9.090  0.0739  0.0537  0.0067
45074W        W45938  18.943  19.398   9.425  0.0617  0.0643 -0.0426
45075W        W45939  22.154  19.814  12.601  0.2705  0.2315 -0.0874
45076W        W45940  17.694  17.104   8.946 -0.2712 -0.1526 -0.0231
45077W        W45941  17.694  20.223   8.506 -0.0540 -0.2041  0.1644
45078W        W45942  23.822  18.979   9.462  0.2610  0.1325  0.0523
45079W        W45943  19.599  22.086   8.202 -0.2550 -0.1806  0.1167
45080W        W45944  17.784  21.152  11.133  0.0522 -0.3864  0.3815
45081W        W45945  20.265  20.992  11.419 -0.1293  0.0194  0.1615
45082W        W45946  20.594  22.032   8.693 -0.2675 -0.1200  0.1255
45083W        W45947  20.104  21.191   9.629 -0.2638 -0.0516 -0.0095
45084W        W45948  22.591  20.476   8.692  0.0394 -0.3598  0.0971
45085W        W45949  22.690  19.948  10.258  0.2055  0.0122  0.1348
45086W        W45950  26.244  18.079   7.290 -0.2165  0.1748  0.2840
45087W        W45951  16.317  20.502   7.699 -0.1164 -0.0111 -0.1197
45088W        W45952  22.651  19.423   6.075  0.1242 -0.1753  0.0017
45089W        W45953  23.173  20.990  11.028  0.0154 -0.0976  0.2907
45090W        W45954  20.047  18.970   9.170 -0.1488  0.0530  0.1259
45091W        W45955  23.441  18.593  11.003  0.0002  0.1495  0.1682
45092W        W45956  21.348  19.568  11.207  0.0493  0.1762 -0.3203
45093W        W45957  21.723  20.748  10.120 -0.1466  0.3513 -0.0005
45094W        W45958  19.391  16.437   6.593  0.0286  0.0761 -0.3465
45095W        W45959  20.874  19.374   5.030  0.2782  0.0226 -0.1779
45096W        W45960  19.477  22.773  12.157 -0.0587  0.0029  0.3157
45097W        W45961  19.239  21.282  10.668  0.1825  0.3587  0.5032
45098W        W45962  23.749  18.035   9.590  0.3425 -0.1645 -0.3542
45099W        W45963  20.484  19.262   7.971  0.0879 -0.0102  0.0118
45100W        W45964  21.782  17.506   9.235 -0.0434  0.1668  0.2534
45101W        W45965  17.487  17.329   9.478 -0.1069 -0.1587 -0.1801
45102W        W45966  19.079  19.987  12.373 -0.0987  0.0419  0.1661
45103W        W45967  17.493  21.948   7.682  0.1632  0.0823 -0.0578
45104W        W45968  20.954  20.022   7.346 -0.3701 -0.2104  0.1696
45105W        W45969  18.337  19.051  11.101  0.0286  0.1756  0.3098
45106W        W45970  19.012  19.272   7.456 -0.1977 -0.2255  0.2325
45107W        W45971  20.786  19.212   9.328  0.0459  0.2419 -0.2137
45108W        W45972  18.554  19.734   9.982  0.1872 -0.0803  0.0305
45109W        W45973  20.845  20.739   9.454  0.4037  0.1159 -0.2947
45110W        W45974  21.174  23.272   9.155  0.2424  0.1747 -0.1452
45111W        W45975  20.778  21.219   6.973 -0.0269 -0.0751  0.1508
45112W        W45976  17.705  21.223   9.897 -0.4202 -0.0816 -0.2181
45113W        W45977  19.359  20.235  10.390  0.0403  0.1043  0.2180
45114W        W45978  19.289  16.270   9.491  0.1774 -0.0184 -0.0634
45115W        W45979  19.434  20.938   9.271  0.0971  0.0017  0.1743
45116W        W45980  20.059  20.136  11.721 -0.3345 -0.1824 -0.0785
45117W        W45981  22.476  22.645   9.048 -0.0030  0.0431 -0.4741
45118W        W45982  20.554  24.582  10.100  0.0332 -0.0588  0.0238
45119W        W45983  18.098  19.901   7.701 -0.2569 -0.1925 -0.0828
45120W        W45984  20.148  20.031  11.249  0.0033 -0.1730  0.1282
45121W        W45985  16.914  17.723   7.535  0.0045  0.1732 -0.0086
45122W        W45986  20.210  21.994   9.137 -0.2503  0.0874  0.0494
45123W        W45987  20.236  22.301  10.459  0.0975 -0.0365  0.2287
45124W        W45988  21.248  19.822   9.928  0.3166 -0.1513  0.2375
45125W        W45989  19.401  20.953   6.897  0.0179  0.0163 -0.1006
45126W        W45990  19.677  22.573   8.561 -0.3710 -0.2109 -0.0930
45127W        W45991  21.939  17.393  10.653  0.0854  0.0531  0.1776
45128W        W45992  23.538  18.627   9.696 -0.5467  0.2936 -0.1575
45129W        W45993  19.878  20.126  10.411 -0.2503 -0.0309 -0.2503
45130W        W45994  19.534  17.819   9.130 -0.0284  0.0508  0.1470
45131W        W45995  20.627  21.751   6.972  0.4955  0.0212 -0.0464
45132W        W45996  19.115  19.910  11.343  0.1370  0.0973 -0.0203
45133W        W45997  22.690  20.882  10.746 -0.0934 -0.4224 -0.3101
45134W        W45998  20.406  17.634  10.144 -0.3237  0.2931  0.3019
45135W        W45999  20.466  20.070   7.327  0.2690  0.3139  0.1306
45136W        W46000  20.970  19.465  10.178  0.1862 -0.1566  0.0147
45137W        W46001  17.488  18.451   9.811  0.1525 -0.2909  0.3801
45138W        W46002  20.097  18.964   6.259  0.1885 -0.2621  0.0101
45139W        W46003  19.997  21.032  11.888 -0.1869  0.1518 -0.0052
45140W        W46004  22.007  19.469   8.018 -0.1219  0.2260 -0.0220
45141W        W46005  20.423  20.544  10.206 -0.1413  0.1379  0.1273
45142W        W46006  20.691  21.103  13.305  0.1654  0.0222 -0.0664
45143W        W46007  20.712  19.273   9.859 -0.0248  0.0271  0.0515
45144W        W46008  20.616  18.408  11.300 -0.1640 -0.2026 -0.1790
45145W        W46009  21.076  22.607   9.084 -0.1141  0.3459 -0.0258
45146W        W46010  22.084  17.494  12.105 -0.1359 -0.1268 -0.0807
45147W        W46011  17.870  22.066  12.940 -0.2669  0.1605  0.0584
45148W        W46012  19.704  18.222   8.151 -0.1410  0.0811 -0.3407
45149W        W46013  19.003  17.915   6.307 -0.2456  0.1214  0.0682
45150W        W46014  18.387  19.995   8.550  0.1470  0.2680  0.0455
45151W        W46015  19.974  18.798  10.554 -0.0331 -0.3503  0.2143
45152W        W46016  18.169  21.202   9.620  0.0257  0.0833  0.2689
45153W        W46017  22.017  20.371  11.049 -0.1529  0.2950  0.1485
45154W        W46018  17.019  21.955   8.543 -0.1340 -0.0240  0.0463
45155W        W46019  20.403  19.290   8.991 -0.0860  0.1701  0.2568
45156W        W46020  22.560  19.978   8.784 -0.1807 -0.1237  0.1604
45157W        W46021  20.061  20.117   9.274 -0.1143 -0.1795  0.3910
45158W        W46022  19.810  20.696  11.441  0.1358 -0.2357 -0.0090
45159W        W46023  23.253  18.803   7.972  0.0558 -0.1810  0.0126
45160W        W46024  21.193  20.866   7.016 -0.2332  0.3637  0.0076
45161W        W46025  22.385  21.158   7.286  0.0339  0.0988 -0.2806
45162W        W46026  20.024  16.243   8.087 -0.0298 -0.0823  0.3225
45163W        W46027  21.684  20.738   8.563  0.1408 -0.0832 -0.2336
45164W        W46028  19.335  17.492   6.519 -0.0725 -0.0891 -0.2979
45165W        W46029  19.411  23.959  11.398 -0.2824 -0.3585 -0.1849
45166W        W46030  18.074  19.342  10.061  0.0930 -0.1981  0.1041
45167W        W46031  17.340  17.013  10.305  0.0455  0.0433 -0.0827
45168W        W46032  22.130  18.194   9.670 -0.2385  0.4613  0.1992
45169W        W46033  22.426  19.238  10.315 -0.3370 -0.0311  0.0661
45170W        W46034  19.067  22.944   6.720  0.2354  0.2225  0.0385
45171W        W46035  20.460  20.700   6.579 -0.0323  0.0007  0.0794
45172W        W46036  20.261  20.564  11.828 -0.3341 -0.0257 -0.1888
45173W        W46037  22.033  22.136  10.897  0.0914  0.2554  0.1233
45174W        W46038  22.107  19.993   5.754  0.0041 -0.0223 -0.1927
45175W        W46039  23.125  19.457   6.491  0.1235  0.0194  0.0490
45176W        W46040  20.294  22.436   8.878  0.1407  0.0945  0.0404
45177W        W46041  20.531  23.629   6.878 -0.0524 -0.1543 -0.0361
45178W        W46042  20.306  20.044  10.220 -0.0169 -0.0360 -0.1612
45179W        W46043  20.976  19.502   8.895  0.0189 -0.1116  0.0723
45180W        W46044  17.968  19.783   8.775  0.2025 -0.0623 -0.0326
45181W        W46045  18.521  19.099   7.897 -0.0663 -0.0477 -0.2469
45182W        W46046  20.018  18.892  13.234  0.1173 -0.1221  0.0459
45183W        W46047  19.275  18.398   6.262  0.1398 -0.1745  0.0380
45184W        W46048  21.120  23.535  10.336  0.2436 -0.5067 -0.3292
45185W        W46049  20.429  21.039   9.299 -0.0424 -0.4241  0.0743
45186W        W46050  19.920  22.838   9.913  0.0167  0.2861  0.1805
45187W        W46051  20.985  19.102  11.928  0.2918  0.1798  0.1475
45188W        W46052  21.542  20.284  11.201 -0.0526 -0.0374  0.0973
45189W        W46053  21.933  20.117   9.406 -0.3274  0.0805 -0.1243
45190W        W46054  17.631  19.043   9.203 -0.1946  0.0772 -0.1580
45191W        W46055  15.919  21.714   8.171  0.0648  0.1151 -0.0265
45192W        W46056  19.865  20.274   7.146 -0.2008  0.3482 -0.3770
45193W        W46057  20.117  19.679   9.095 -0.3040 -0.0080  0.2501
45194W        W46058  18.606  22.286   8.513  0.1119  0.0415  0.0001
45195W        W46059  20.422  20.510  10.761  0.0828 -0.1497 -0.0083
45196W        W46060  20.119  21.830  11.256 -0.1005 -0.3524 -0.1510
45197W        W46061  21.135  16.178   9.592  0.1269 -0.1933  0.2035
45198W        W46062  17.330  19.483   7.385 -0.0259 -0.0524  0.0550
45199W        W46063  21.016  19.753   9.413 -0.0985 -0.1098 -0.0743
45200W        W46064  19.321  22.626   7.539 -0.0097 -0.2324 -0.0617
45201W        W46065  19.441  19.891  12.690  0.2214 -0.1234 -0.0676
45202W        W46066  19.469  18.780   9.815  0.3076 -0.2755  0.2518
45203W        W46067  21.252  20.710   9.211 -0.2000  0.1807 -0.0226
45204W        W46068  19.797  22.439  10.150  0.3465  0.0742  0.0610
45205W        W46069  21.602  21.233   8.689 -0.3408 -0.2097  0.0159
45206W        W46070  20.437  20.505   9.229  0.3657  0.1097 -0.3072
45207W        W46071  19.512  22.783   8.995 -0.2613  0.1491  0.2029
45208W        W46072  21.441  20.462   6.629 -0.2680  0.1672  0.1648
45209W        W46073  20.899  19.502   8.068 -0.5410  0.1174  0.0781
45210W        W46074  17.744  18.095   9.524  0.0709 -0.1876  0.0496
45211W        W46075  19.044  21.298   8.827  0.2804  0.0611  0.1948
45212W        W46076  15.971  19.778  12.698  0.0640  0.0232  0.1687
45213W        W46077  20.390  16.711   9.501  0.0339  0.1602 -0.2285
45214W        W46078  17.012  19.630   9.933  0.0559 -0.0656  0.0950
45215W        W46079  20.591  24.578   7.582 -0.1079 -0.1141 -0.2585
45216W        W46080  18.379  21.220   7.068  0.0988  0.2282  0.0945
45217W        W46081  15.905  20.451   8.292  0.1821 -0.2795 -0.0955
45218W        W46082  18.468  19.289   9.688 -0.0794  0.0561 -0.0343
45219W        W46083  17.682  17.992  10.040 -0.0332  0.3978  0.2291
45220W        W46084  17.144  18.549  11.268  0.2195  0.1795 -0.0944
45221W        W46085  22.073  20.459  11.943  0.4862  0.1095  0.0283
45222W        W46086  18.041  19.096   8.139  0.3359 -0.1466 -0.1788
45223W        W46087  21.854  19.208   8.957  0.0980 -0.2467 -0.0576
45224W        W46088  19.721  21.065   7.753  0.0460  0.0585 -0.0287
45225W        W46089  20.144  22.586   8.294  0.5563  0.0059 -0.1130
45226W        W46090  17.475  18.580   9.237  0.1691  0.0742  0.1190
45227W        W46091  19.272  20.839   9.829 -0.2129 -0.0356 -0.1938
45228W        W46092  21.442  18.537  13.104 -0.2129 -0.0729  0.0933
45229W        W46093  19.423  18.772  11.855 -0.4512  0.0823 -0.4045
45230W        W46094  17.271  16.431   6.253 -0.1455  0.3794 -0.0028
45231W        W46095  18.552  21.447   8.757  0.1095 -0.0474 -0.1953
45232W        W46096  22.666  19.540   9.217 -0.0659  0.0934 -0.0413
45233W        W46097  20.104  19.383   8.340  0.0647  0.3039  0.1087
45234W        W46098  23.298  20.319   9.025  0.1060 -0.3525 -0.0898
45235W        W46099  20.432  20.907   8.486  0.1419 -0.0327 -0.2212
45236W        W46100  20.826  21.910   9.458 -0.0177 -0.0261 -0.0936
45237W        W46101  19.635  21.272   8.311  0.1378  0.1251 -0.0131
45238W        W46102  20.871  19.311   7.506  0.1221 -0.1498 -0.0599
45239W        W46103  18.677  16.756   8.313 -0.0536 -0.0667 -0.3181
45240W        W46104  19.702  16.894   8.231 -0.0219 -0.4237 -0.1340
45241W        W46105  17.653  19.124   7.740 -0.2674  0.2372  0.0676
45242W        W46106  20.901  17.491   8.698  0.4306 -0.1200 -0.1144
45243W        W46107  19.902  21.434  10.043  0.1488  0.1584  0.1244
45244W        W46108  19.960  21.975  10.151  0.0637  0.4513  0.0021
45245W        W46109  20.732  20.448   7.074  0.1229 -0.0256  0.2573
45246W        W46110  20.997  20.740   7.859  0.0569 -0.3930 -0.1980
45247W        W46111  23.104  16.377   8.741 -0.1892 -0.1639  0.0926
45248W        W46112  23.178  21.730  12.673  0.1213 -0.1972  0.0763
45249W        W46113  20.684  19.264  10.797  0.0433 -0.3140  0.0989
45250W        W46114  19.051  21.953   9.025 -0.0509  0.0567 -0.2443
45251W        W46115  20.368  19.074   9.570 -0.0321 -0.2465 -0.0948
45252W        W46116  18.792  20.456   9.576 -0.3789 -0.0692 -0.4468
45253W        W46117  17.370  21.974  11.978 -0.2303 -0.3505  0.1948
45254W        W46118  22.279  20.572  11.459 -0.1640  0.3675  0.1790
45255W        W46119  21.802  23.191   8.934  0.0518  0.1962 -0.1566
45256W        W46120  20.985  20.627  12.952 -0.1896  0.3427  0.1735
45257W        W46121  20.867  20.713   8.397 -0.0721 -0.0652  0.1747
45258W        W46122  19.879  20.531   8.106 -0.0567  0.1542  0.0391
45259W        W46123  17.577  22.023   8.446  0.0981 -0.1782 -0.2038
45260W        W46124  20.939  20.511  11.339  0.2899  0.1076  0.0459
45261W        W46125  19.142  20.583  10.720  0.4222  0.3151 -0.0266
45262W        W46126  19.498  20.642   7.760 -0.2831 -0.3271  0.0498
45263W        W46127  20.051  20.381   6.319  0.3598 -0.0952  0.0997
45264W        W46128  22.434  21.394   8.873 -0.2132  0.0419 -0.1189
45265W        W46129  20.980  22.997   7.413 -0.1390  0.1229 -0.2253
45266W        W46130  21.528  20.932  10.547 -0.2567  0.1728  0.0509
45267W        W46131  18.452  20.079   7.124  0.0162 -0.0098 -0.0690
45268W        W46132  16.870  21.741  12.119  0.2499  0.0972  0.3105
45269W        W46133  19.419  19.367   8.556  0.0658 -0.2549  0.0421
45270W        W46134  18.192  17.888   6.426  0.0460  0.4696 -0.1613
45271W        W46135  19.542  21.918  15.434  0.0439 -0.2140  0.1351
45272W        W46136  18.209  20.168  14.524  0.2194  0.1040  0.0877
45273W        W46137  20.791  20.732  11.883  0.1145  0.0756  0.1441
45274W        W46138  22.671  20.387  17.955 -0.1274  0.0195  0.1597
45275W        W46139  16.740  23.067  10.986  0.0483 -0.0177 -0.0478
45276W        W46140  19.397  18.413  12.241 -0.3540  0.4287  0.1432
45277W        W46141  18.816  20.823  12.811  0.3593 -0.2253  0.2574
45278W        W46142  22.103  21.634  11.007  0.2643 -0.3260 -0.1047
45279W        W46143  19.920  22.664  11.930 -0.1798  0.0183 -0.3937
45280W        W46144  18.929  19.703  14.065  0.1242 -0.2061 -0.0912
45281W        W46145  20.482  19.705  12.984 -0.0539  0.1747 -0.0877
45282W        W46146  21.919  18.793  14.180 -0.1992  0.2179  0.2303
45283W        W46147  20.383  19.545  12.326  0.1324 -0.0602  0.0108
45284W        W46148  21.862  21.452  14.891  0.1079  0.0926 -0.0166
45285W        W46149  17.822  18.573  11.727 -0.2312 -0.1863  0.1991
45286W        W46150  20.877  21.435  14.263  0.1427 -0.1089  0.1441
45287W        W46151  18.575  21.738  10.236  0.1928  0.3936 -0.2670
45288W        W46152  20.062  19.002  13.737  0.2751 -0.0461  0.4339
45289W        W46153  21.012  20.166  12.416 -0.2013 -0.1967 -0.1167
45290W        W46154  22.824  19.326  13.366 -0.1633  0.1118 -0.1932
45291W        W46155  21.126  23.250  12.037 -0.0372 -0.1157  0.1214
45292W        W46156  21.733  21.346  13.649  0.1551 -0.2548 -0.1248
45293W        W46157  21.509  22.681  13.062 -0.0159  0.0618 -0.0667
45294W        W46158  19.671  22.190  11.125 -0.0098 -0.0354 -0.0265
45295W        W46159  18.368  19.550  13.229  0.0786  0.1825  0.0693
45296W        W46160  18.685  19.149  13.217 -0.2130  0.1924  0.2548
45297W        W46161  22.782  19.785  11.987 -0.2972  0.0363 -0.0930
45298W        W46162  20.340  21.874  10.811 -0.1074 -0.0282 -0.3029
45299W        W46163  20.612  21.515  12.979  0.1287 -0.1846 -0.0404
45300W        W46164  20.218  19.507  10.886  0.0376 -0.0443  0.2413
45301W        W46165  22.376  19.527  12.177  0.1964 -0.0270 -0.0882
45302W        W46166  20.754  24.318  11.796  0.1569 -0.1098 -0.1504
45303W        W46167  18.111  20.445  15.544 -0.0922 -0.1241 -0.1641
45304W        W46168  21.298  20.214  12.872 -0.0138  0.2515  0.2915
45305W        W46169  19.551  18.559  13.155 -0.2340 -0.0641  0.4046
45306W        W46170  21.433  19.383  15.174 -0.0104 -0.3330  0.0295
45307W        W46171  18.242  16.157   9.778  0.3023  0.1658  0.0098
45308W        W46172  20.900  23.951  12.150  0.0511 -0.1442  0.3547
45309W        W46173  22.495  22.421  13.083 -0.2626  0.1826 -0.3943
45310W        W46174  21.010  21.502  12.673 -0.2031  0.3545 -0.0892
45311W        W46175  22.306  19.008   9.384  0.1239  0.2782  0.0451
45312W        W46176  22.880  21.158  14.614  0.2175  0.1739 -0.1494
45313W        W46177  20.516  21.232  11.924 -0.1260 -0.0993  0.0054
45314W        W46178  21.679  18.915   9.875 -0.3279  0.0052  0.0060
45315W        W46179  17.074  19.961  12.148 -0.1152 -0.1561  0.0621
45316W        W46180  19.242  22.925  12.864  0.1398  0.1583  0.1122
45317W        W46181  17.096  18.731  15.047 -0.1980  0.0152  0.1108
45318W        W46182  21.201  20.992  10.161 -0.0854  0.1627  0.1771
45319W        W46183  20.665  21.445  13.813  0.3711  0.1668 -0.0387
45320W        W46184  21.508  19.338   8.016  0.0835 -0.0842  0.1207
45321W        W46185  21.555  22.236   9.878 -0.0320  0.3234 -0.2432
45322W        W46186  21.759  21.279  10.206  0.0071  0.1053  0.2501
45323W        W46187  20.691  22.326  12.343  0.0946  0.2295  0.0266
45324W        W46188  22.307  22.850  11.518  0.0424  0.0615 -0.1827
45325W        W46189  23.400  17.659   8.494 -0.1359  0.0713 -0.1473
45326W        W46190  15.855  23.888  16.919  0.1192  0.1691  0.1161
45327W        W46191  16.230  20.072  14.515 -0.2211  0.1070 -0.0150
45328W        W46192  20.386  22.796  13.424 -0.1240 -0.2513  0.2573
45329W        W46193  18.933  22.310  12.878 -0.0119  0.0176 -0.1552
45330W        W46194  18.084  20.586   9.459  0.2807  0.0717 -0.0103
45331W        W46195  23.126  19.346   8.748 -0.0982  0.0067 -0.0694
45332W        W46196  20.926  21.265  14.906 -0.2802  0.3617  0.2233
45333W        W46197  19.482  22.901  13.370  0.1749 -0.3260  0.0684
45334W        W46198  19.136  18.338  11.757  0.1902 -0.2180 -0.0816
45335W        W46199  19.530  16.729  13.160  0.0547  0.0232  0.1001
45336W        W46200  22.640  17.493  12.515  0.1763  0.0940 -0.0572
45337W        W46201  18.508  23.570   9.969  0.1835 -0.2296  0.1992
45338W        W46202  18.835  20.289  11.188 -0.1201  0.0584 -0.0896
45339W        W46203  19.617  22.670  12.685 -0.1345 -0.0348 -0.2129
45340W        W46204  20.173  23.378  11.735 -0.2282 -0.1918  0.1671
45341W        W46205  19.880  20.886  14.098 -0.2558  0.0759  0.2060
45342W        W46206  19.921  17.827  11.524 -0.3835  0.1812 -0.1456
45343W        W46207  22.232  22.603  10.544 -0.0019  0.0007  0.0839
45344W        W46208  21.585  20.445  11.680  0.1378  0.0206  0.0587
45345W        W46209  23.247  20.578   7.863 -0.1066 -0.1691  0.1188
45346W        W46210  22.931  21.181  13.422  0.0826 -0.0741 -0.1638
45347W        W46211  17.309  19.026  11.094  0.1562 -0.3362  0.1299
45348W        W46212  22.621  18.648  12.550  0.1519 -0.0456 -0.1968
45349W        W46213  17.581  18.290  11.361  0.0732  0.1977 -0.4562
45350W        W46214  21.137  20.375  11.833  0.3518 -0.2656  0.1726
45351W        W46215  20.495  18.248   9.218 -0.1845 -0.2066  0.1238
45352W        W46216  19.905  18.343  12.256  0.1869  0.1399  0.3900
45353W        W46217  16.685  20.293  11.809  0.0479 -0.0209 -0.0359
45354W        W46218  21.637  19.307  10.640  0.1940  0.0865  0.0183
45355W        W46219  19.473  17.724  13.532  0.1435  0.0301 -0.1704
45356W        W46220  20.784  19.315  12.847  0.0060  0.0482 -0.2654
45357W        W46221  23.407  21.530  14.180 -0.2441  0.0093 -0.3539
45358W        W46222  21.212  19.644  14.060  0.0890 -0.0966 -0.2349
45359W        W46223  22.872  23.737  15.042 -0.2692  0.3596  0.3241
45360W        W46224  23.065  18.439  13.693  0.1390  0.2163  0.0389
45361W        W46225  23.308  18.648  13.221 -0.2634  0.2583  0.1032
45362W        W46226  21.988  21.126  14.463 -0.1143 -0.0019 -0.1291
45363W        W46227  18.449  22.014  13.751 -0.1839  0.2816  0.2974
45364W        W46228  17.720  16.188  14.067  0.1086  0.2041  0.0691
45365W        W46229  18.857  16.565  12.531 -0.4726  0.0222 -0.2407
45366W        W46230  22.245  18.674  13.845  0.0361  0.0405  0.2516
45367W        W46231  21.029  20.004  11.401 -0.0718 -0.2532 -0.2808
45368W        W46232  21.015  22.761  15.861  0.2438  0.1161  0.0626
45369W        W46233  16.407  15.310  11.714 -0.0674  0.1390  0.3052
45370W        W46234  20.171  20.928  13.194  0.0559 -0.0361 -0.0511
45371W        W46235  23.182  20.273  14.153  0.2885 -0.0754  0.1286
45372W        W46236  18.284  20.774  12.866  0.1767 -0.1814 -0.1226
45373W        W46237  19.114  19.571   8.910 -0.1425 -0.1686 -0.4633
45374W        W46238  22.707  22.907  12.491 -0.1088  0.3340  0.1883
45375W        W46239  20.688  20.350  15.383 -0.1549 -0.0742  0.2128
45376W        W46240  22.508  17.229  15.245  0.0680 -0.1488 -0.0766
45377W        W46241  20.802  20.603   9.922  0.5145  0.0008  0.0680
45378W        W46242  21.858  21.247  11.150  0.1904  0.1012  0.2191
45379W        W46243  20.874  19.068  13.260  0.1848  0.2371  0.3115
45380W        W46244  20.186  21.487  11.622 -0.3399  0.1363  0.1459
45381W        W46245  19.982  20.944  12.403 -0.0245 -0.1879  0.0104
45382W        W46246  18.940  20.493  11.701  0.2292 -0.1560  0.0051
45383W        W46247  20.383  19.583  13.727  0.1987  0.0650 -0.0738
45384W        W46248  21.866  21.821  13.794 -0.1883  0.1479  0.1978
45385W        W46249  21.667  19.876  14.018  0.1885 -0.2046 -0.0794
45386W        W46250  18.277  21.742  14.276  0.0740  0.0108 -0.2454
45387W        W46251  19.537  17.735  14.100 -0.1215 -0.0628 -0.1722
45388W        W46252  19.770  22.244  16.963 -0.0090 -0.2485  0.1599
45389W        W46253  21.066  19.135  13.887  0.0019 -0.0124 -0.0681
45390W        W46254  17.354  18.585  12.005 -0.1163  0.1660 -0.1978
45391W        W46255  20.322  17.951  11.120  0.0080  0.1223  0.1285
45392W        W46256  21.676  20.744  10.986  0.0350  0.0139  0.0457
45393W        W46257  21.841  19.718  13.489 -0.1194  0.2330 -0.0317
45394W        W46258  20.916  22.065   9.978 -0.1267 -0.0503  0.1113
45395W        W46259  19.491  19.644  12.210  0.1446  0.0197 -0.1454
45396W        W46260  24.419  19.768  13.382  0.3242 -0.1166 -0.0713
45397W        W46261  19.546  17.318  13.803 -0.2131 -0.0307 -0.0131
45398W        W46262  24.351  20.132  13.039 -0.0721 -0.1309  0.2315
45399W        W46263  22.348  21.827  11.912 -0.0149  0.0209 -0.2669
45400W        W46264  19.949  21.170  10.511  0.0016 -0.1803 -0.3340
45401W        W46265  19.689  22.302  14.102 -0.1206  0.1215  0.3608
45402W        W46266  23.616  19.101  13.171 -0.2483 -0.1328  0.1849
45403W        W46267  22.269  19.323  13.671  0.0727 -0.0424 -0.1347
45404W        W46268  19.577  21.766  12.326 -0.1007  0.0897  0.0673
45405W        W46269  22.150  18.866  12.665 -0.0107 -0.0615 -0.0207
45406W        W46270  18.463  20.793  12.401  0.0232 -0.1978 -0.0445
45407W        W46271  21.940  17.709  14.755  0.1042 -0.1928  0.0135
45408W        W46272  22.694  18.866  17.317  0.3896 -0.2047  0.2182
45409W        W46273  22.701  21.864  10.974  0.1977 -0.2243  0.0239
45410W        W46274  19.805  21.238  11.455 -0.0018 -0.0627 -0.1515
45411W        W46275  19.912  17.060  14.102 -0.2630 -0.1089  0.2169
45412W        W46276  19.493  17.021  11.343  0.1165  0.0931  0.2843
45413W        W46277  18.229  21.950  11.648  0.0421 -0.3058 -0.0076
45414W        W46278  19.666  20.125  12.105  0.0318  0.0028  0.2086
45415W        W46279  18.612  18.681  12.923  0.0374  0.1458 -0.1725
45416W        W46280  20.053  16.434  13.568  0.0427 -0.0735  0.1833
45417W        W46281  21.769  18.720  10.948  0.0046  0.2382 -0.0286
45418W        W46282  23.094  21.607  11.479  0.0795 -0.0430 -0.1111
45419W        W46283  20.515  20.511  12.715 -0.0689 -0.0256 -0.1718
45420W        W46284  20.584  19.099  13.721 -0.1989 -0.0198 -0.0290
45421W        W46285  22.197  22.044  11.344  0.2468  0.0854  0.6963
45422W        W46286  20.778  20.173  12.897 -0.3686  0.0161  0.0195
45423W        W46287  21.743  19.498  12.842  0.1303 -0.2840 -0.1195
45424W        W46288  20.074  21.641  10.483 -0.0298 -0.1961 -0.1077
45425W        W46289  18.897  22.972  15.295  0.2353  0.0050  0.3371
45426W        W46290  23.007  21.081  11.529 -0.1119 -0.1361 -0.1879
45427W        W46291  20.645  19.434  11.914  0.1617  0.1346  0.3413
45428W        W46292  20.349  20.553  11.271  0.1293 -0.1497  0.2147
45429W        W46293  19.388  19.285  10.185 -0.0733 -0.0779  0.0332
45430W        W46294  21.794  21.331  12.307 -0.0066  0.2274 -0.0395
45431W        W46295  19.946  18.023  13.765  0.1748  0.1309 -0.1370
45432W        W46296  17.926  19.683  14.907  0.2059 -0.0480 -0.0497
45433W        W46297  22.339  19.810  13.337 -0.0416 -0.1146 -0.0710
45434W        W46298  22.207  20.848  13.173 -0.2273  0.0911  0.0409
45435W        W46299  21.259  16.784  15.690  0.1673 -0.1916 -0.1319
45436W        W46300  18.778  16.126  13.925  0.1474  0.3115 -0.1154
45437W        W46301  19.480  16.710  12.639  0.1171  0.3259  0.2164
45438W        W46302  17.490  22.080  14.550 -0.1346  0.1603 -0.1941
45439W        W46303  21.065  20.280  13.292  0.1453 -0.0667 -0.1149
45440W        W46304  18.988  21.252  12.545 -0.1550 -0.0720 -0.0639
45441W        W46305  20.413  19.918  11.980 -0.0049 -0.2003  0.0330
45442W        W46306  21.341  19.464  13.556 -0.1000  0.0254  0.0084
45443W        W46307  22.824  19.373  16.511  0.1646  0.1462 -0.0410
45444W        W46308  21.187  19.291   9.706 -0.1332  0.2313  0.2222
45445W        W46309  20.024  20.394  14.209  0.0220  0.0948  0.4016
45446W        W46310  20.514  20.145  14.822 -0.1551  0.2067 -0.1739
45447W        W46311  16.697  22.544  12.054 -0.2614  0.2583  0.4798
45448W        W46312  22.175  21.421  14.044 -0.0803  0.0328 -0.1730
45449W        W46313  17.564  22.886  10.349  0.0547  0.0976 -0.0859
45450W        W46314  21.374  18.704  13.889 -0.1578 -0.0597 -0.1028
45451W        W46315  18.363  20.459  11.429 -0.0481  0.2670  0.0077
45452W        W46316  21.159  22.497  10.036  0.0854 -0.4643 -0.1064
45453W        W46317  20.944  21.701  12.101  0.1023 -0.0450 -0.0753
45454W        W46318  18.474  19.310  11.504  0.2765  0.1229  0.2164
45455W        W46319  21.353  20.402  13.712 -0.1816 -0.4946  0.1739
45456W        W46320  17.450  23.903  12.943 -0.1483  0.1281  0.1588
45457W        W46321  19.344  18.062  13.166 -0.2554  0.2466 -0.2641
45458W        W46322  17.997  18.267  12.088 -0.0694  0.2930 -0.1110
45459W        W46323  20.913  21.015  13.900  0.2129 -0.1352  0.1202
45460W        W46324  22.801  19.416  13.841 -0.1311 -0.1574 -0.0706
45461W        W46325  16.600  22.850  13.810  0.2154 -0.0700  0.0084
45462W        W46326  19.177  21.450   9.710  0.0081 -0.0181 -0.1810
45463W        W46327  18.623  21.222  13.767 -0.1992  0.0460  0.0413
45464W        W46328  20.462  19.336  13.304 -0.0053  0.1034 -0.3266
45465W        W46329  20.297  20.587  14.580 -0.3155 -0.0619  0.0075
45466W        W46330  21.606  18.152  12.828  0.0419 -0.0260 -0.2632
45467W        W46331  20.291  16.424  13.071  0.2656  0.0304 -0.0775
45468W        W46332  21.294  16.203  13.976  0.1106  0.2636 -0.1166
45469W        W46333  19.083  19.906  13.624  0.2101 -0.1170 -0.1847
45470W        W46334  22.451  18.519  12.991  0.1779  0.1668 -0.3060
45471W        W46335  18.982  18.067  12.125 -0.3550 -0.0706 -0.2472
45472W        W46336  20.366  17.503  15.535 -0.1210  0.1278  0.0279
45473W        W46337  21.269  20.819  12.083  0.3329 -0.0234  0.1802
45474W        W46338  19.874  19.577  11.233  0.0102  0.0257 -0.2401
45475W        W46339  18.904  18.373  13.423  0.1224  0.1014  0.1132
45476W        W46340  19.297  18.221  10.436 -0.1663 -0.2651 -0.0169
45477W        W46341  18.291  21.264  15.205 -0.0475  0.0014  0.0021
45478W        W46342  20.781  17.656  14.073  0.0858  0.1527  0.3534
45479W        W46343  20.208  23.357  10.376 -0.2043 -0.1484 -0.1862
45480W        W46344  18.163  21.715  10.462  0.0436  0.2642  0.0328
45481W        W46345  19.781  20.266  15.286 -0.1038 -0.0493 -0.0351
45482W        W46346  19.459  20.927  11.668 -0.2407  0.1307 -0.1258
45483W        W46347  21.244  21.443  13.878  0.2380 -0.4027  0.0511
45484W        W46348  20.566  17.904  15.379  0.3391 -0.1919 -0.1303
45485W        W46349  20.234  20.176  13.785  0.0454 -0.2389  0.3184
45486W        W46350  21.509  17.730  13.724 -0.1965  0.2040  0.2097
45487W        W46351  17.528  22.491  12.123  0.2801 -0.1622 -0.1475
45488W        W46352  19.479  21.149  10.191 -0.2380  0.0299  0.2586
45489W        W46353  17.856  19.377  13.566 -0.3594 -0.1156  0.0646
45490W        W46354  19.743  21.053  13.525 -0.1004  0.3539  0.3426
45491W        W46355  20.760  17.007  15.542  0.1104 -0.2336 -0.1444
45492W        W46356  20.768  19.409  14.118  0.0070 -0.0079 -0.0428
45493W        W46357  17.558  22.842  11.606  0.3725  0.2187 -0.0129
45494W        W46358  17.998  18.268  11.115  0.1491 -0.0438 -0.2280
45495W        W46359  19.936  19.354   8.780  0.2593  0.0158 -0.2488
45496W        W46360  19.018  17.993  14.344 -0.2297 -0.2410  0.0594
45497W        W46361  18.037  22.147  14.537 -0.0272  0.1450 -0.1921
45498W        W46362  19.647  19.335  15.340  0.1716 -0.0652  0.0426
45499W        W46363  18.836  23.144  13.143 -0.0619  0.0398 -0.2240
45500W        W46364  19.655  22.531  14.729 -0.0325  0.2680 -0.1011
45501W        W46365  21.605  21.342  15.688 -0.0411  0.1817 -0.2308
45502W        W46366  21.254  21.210  16.629  0.2352 -0.0764  0.1174
45503W        W46367  19.101  20.005  11.879 -0.0997 -0.0815  0.0027
45504W        W46368  21.158  21.536  11.166 -0.1493  0.1416 -0.1004
45505W        W46369  20.576  16.747  12.792  0.1601  0.1368  0.4913
45506W        W46370  19.316  22.362   9.327  0.2944 -0.2033  0.0059
45507W        W46371  23.350  22.135  13.019 -0.2873  0.1577  0.0228
45508W        W46372  18.110  15.948  14.653  0.1056 -0.0664  0.4343
45509W        W46373  21.932  20.612  14.563 -0.0814  0.2459 -0.1518
45510W        W46374  24.058  20.876  13.669  0.0762 -0.1287  0.0747
45511W        W46375  22.431  21.755  12.966  0.1497  0.1458 -0.0507
45512W        W46376  19.946  18.715  11.754  0.0812 -0.0854 -0.0756
45513W        W46377  19.952  18.510  13.549  0.0330 -0.0348 -0.2786
45514W        W46378  20.012  16.359  12.450  0.3448  0.0012 -0.3550
45515W        W46379  22.861  22.930  14.291 -0.3459 -0.0346 -0.2275
45516W        W46380  19.580  18.397  11.437 -0.1806  0.1291  0.0818
45517W        W46381  22.711  22.416  12.214 -0.0889  0.0280 -0.1484
45518W        W46382  19.805  22.352  15.655  0.2142 -0.1774  0.1214
45519W        W46383  21.133  22.101  12.373 -0.3623 -0.2725  0.2414
45520W        W46384  21.312  17.768  13.266  0.3830 -0.1819  0.0378
45521W        W46385  18.697  21.946  13.149  0.0785  0.3082  0.0516
45522W        W46386  21.357  23.126  11.524 -0.2456  0.2982  0.1110
45523W        W46387  19.162  22.736  13.816 -0.0673  0.1177  0.2663
45524W        W46388  22.213  20.076  13.729 -0.0502 -0.0181 -0.2467
45525W        W46389  19.681  20.344  12.567 -0.1407  0.2785 -0.0734
45526W        W46390  22.992  20.520  10.925  0.2449 -0.0690  0.0544
45527W        W46391  18.948  20.790  12.274  0.1934 -0.2512  0.3362
45528W        W46392  21.593  20.994  14.711  0.2317  0.0341  0.2461
45529W        W46393  23.562  22.103  10.398  0.0882  0.0514  0.1011
45530W        W46394  22.942  18.538  11.796  0.3689 -0.2378  0.2748
45531W        W46395  20.075  18.930  12.673 -0.0339  0.1313  0.0850
45532W        W46396  21.457  17.741  12.518  0.0967 -0.1095 -0.0371
45533W        W46397  18.146  22.324  15.021  0.0761  0.0622 -0.0270
45534W        W46398  18.988  17.335  12.084 -0.0909  0.3825 -0.3524
45535W        W46399  24.121  21.251  11.469  0.1436  0.1965 -0.1223
45536W        W46400  18.064  21.609  15.790 -0.1825  0.2053  0.0621
45537W        W46401  18.461  21.765  11.233 -0.0607  0.4195 -0.0583
45538W        W46402  21.339  19.932  13.569  0.2629  0.1107 -0.1609
45539W        W46403  20.930  19.731  13.176  0.1632 -0.1569 -0.3380
45540W        W46404  20.882  18.004  11.039  0.0855 -0.0507  0.1509
45541W        W46405  21.496  22.063   9.346  0.1030  0.2166 -0.0983
45542W        W46406  19.248  16.144  14.164 -0.1016  0.0005 -0.1285
45543W        W46407  22.966  21.546  13.106 -0.0350 -0.2937 -0.2301
45544W        W46408  18.075  21.028  12.117 -0.2727 -0.0910 -0.1294
45545W        W46409  21.161  21.623  15.584  0.0290  0.1915  0.1404
45546W        W46410  19.106  21.188  14.149  0.2356  0.0606 -0.0360
45547W        W46411  21.066  16.901  15.155  0.1812  0.1394 -0.0656
45548W        W46412  19.938  19.423  14.369 -0.1186  0.0773  0.1281
45549W        W46413  19.729  20.135  13.100 -0.0554 -0.3314  0.1903
45550W        W46414  22.541  19.787  14.793  0.0626  0.1323 -0.3052
45551W        W46415  18.555  18.363  12.125 -0.1340  0.2939 -0.0813
45552W        W46416  20.166  19.181  12.028 -0.3402 -0.0148 -0.2774
45553W        W46417  17.923  20.730  12.489  0.1667 -0.0557  0.0957
45554W        W46418  18.498  22.684  11.956 -0.1093  0.0036  0.2038
45555W        W46419  22.781  19.044  11.386 -0.0926  0.2043 -0.1291
45556W        W46420  18.575  21.251  12.884  0.1501 -0.1231 -0.0743
45557W        W46421  23.947  22.756  11.768  0.1263 -0.0024  0.0637
45558W        W46422  19.567  20.511  14.436  0.0931  0.1380  0.0948
45559W        W46423  21.875  19.872   9.860  0.0561 -0.0833  0.1837
45560W        W46424  22.548  22.349  10.856  0.2168 -0.0840 -0.1184
45561W        W46425  22.510  21.100  12.381  0.2981 -0.1235 -0.1421
45562W        W46426  22.553  20.205  11.756  0.1536 -0.3060  0.1063
45563W        W46427  21.955  20.898  14.047  0.0564 -0.1281  0.0121
45564W        W46428  19.856  18.067  11.014  0.1073 -0.3667  0.2497
45565W        W46429  20.111  21.509   9.157  0.1236  0.0143  0.1399
45566W        W46430  20.848  18.991  14.519  0.1867 -0.2313  0.1681
45567W        W46431  17.748  16.826  15.597  0.2053 -0.0342  0.0932
45568W        W46432  22.468  20.431  15.517 -0.1685 -0.0636 -0.1162
45569W        W46433  22.137  19.648  14.467  0.0669 -0.0510  0.0647
45570W        W46434  17.098  22.942  11.394 -0.0324 -0.0897  0.0904
45571W        W46435  19.572  18.875   8.920 -0.0443 -0.3196  0.1995
45572W        W46436  18.376  17.003  16.498 -0.2844 -0.1494  0.0842
45573W        W46437  20.633  22.186  13.241  0.1911 -0.0189 -0.2186
45574W        W46438  23.903  17.901  11.903 -0.2561  0.1970  0.1838
45575W        W46439  20.405  18.880  10.836 -0.0470 -0.1179 -0.2703
45576W        W46440  21.442  23.476  12.504 -0.1243  0.1113 -0.0691
45577W        W46441  23.841  19.682  14.075 -0.2007 -0.1746  0.1709
45578W        W46442  22.149  17.019  12.027  0.1461 -0.1170  0.0739
45579W        W46443  21.574  19.197  13.959  0.3030  0.0019  0.1701
45580W        W46444  18.799  21.875  12.174  0.3960 -0.0425 -0.2578
45581W        W46445  19.663  18.840  12.298 -0.1582 -0.0740  0.0091
45582W        W46446  19.618  21.321  14.027  0.1377 -0.1623 -0.0814
45583W        W46447  19.148  18.406  12.721  0.0147  0.1175 -0.2327
45584W        W46448  21.992  21.561  13.097 -0.0524 -0.0711  0.1945
45585W        W46449  22.607  22.162  14.646 -0.0616  0.1214 -0.2752
45586W        W46450  19.081  21.857  16.137  0.0903  0.1056  0.1904
45587W        W46451  18.287  18.790  11.984  0.1862  0.0097 -0.1598
45588W        W46452  22.417  19.755  14.074 -0.2136  0.4258  0.1483
45589W        W46453  20.498  22.521  12.904 -0.0578  0.1449  0.0097
45590W        W46454  20.906  18.731  11.477  0.1633  0.2044  0.1037
45591W        W46455  19.901  22.731  13.122 -0.0947 -0.0036 -0.1229
45592W        W46456  21.208  22.659  11.546 -0.0427  0.3714  0.0648
45593W        W46457  21.856  20.700  13.548  0.0934  0.1738 -0.4895
45594W        W46458  21.999  21.528   8.665  0.2135  0.0486  0.1142
45595W        W46459  17.780  21.298  11.828  0.1307 -0.0093 -0.0522
45596W        W46460  19.950  21.566  14.388 -0.3193  0.0346  0.1975
45597W        W46461  19.684  18.336  12.702  0.0501 -0.0164  0.1669
45598W        W46462  17.083  21.639  10.440  0.1554 -0.1064 -0.1727
45599W        W46463  20.486  21.545   9.493  0.3354 -0.0675 -0.0999
45600W        W46464  17.301  20.319  12.511  0.1144 -0.1137 -0.1487
45601W        W46465  21.501  18.318  15.302 -0.0126  0.1479 -0.0457
45602W        W46466  23.261  19.052  13.521 -0.0412 -0.0562  0.2882
45603W        W46467  20.975  21.923  13.988  0.1768  0.1628 -0.1369
45604W        W46468  18.414  22.897  14.272  0.1698 -0.2067 -0.1124
45605W        W46469  22.677  22.321  15.156 -0.0257  0.0982 -0.0789
45606W        W46470  22.946  19.914  15.132 -0.2589 -0.1536  0.2498
45607W        W46471  21.029  21.862  13.019  0.1607  0.0215  0.0227
45608W        W46472  20.116  20.309  12.228 -0.2218 -0.2786  0.0841
45609W        W46473  22.279  20.564  13.782  0.4744  0.0915  0.2450
45610W        W46474  19.467  20.421  11.725 -0.3723  0.1942  0.2616
45611W        W46475  19.556  20.463  10.017 -0.2052 -0.0385 -0.4001
45612W        W46476  20.720  18.858  14.976 -0.0879  0.0450 -0.0824
45613W        W46477  18.132  19.754  10.366 -0.2155  0.3142  0.0737
45614W        W46478  20.669  20.297  11.668 -0.2795 -0.0716  0.0082
45615W        W46479  23.884  21.532  11.197 -0.0947  0.1075 -0.0257
45616W        W46480  20.572  22.689  14.635  0.1532 -0.0980  0.0452
45617W        W46481  17.348  21.609   9.958 -0.0057  0.1805 -0.1199
45618W        W46482  19.509  20.204  14.854  0.0288 -0.1404 -0.2650
45619W        W46483  22.096  23.215  11.950  0.0232 -0.0665  0.1318
45620W        W46484  18.827  17.507  12.601  0.0370  0.1179 -0.1283
45621W        W46485  20.476  16.695  15.206  0.2192 -0.1380 -0.2123
45622W        W46486  19.722  19.658   9.849 -0.1717 -0.0972 -0.4035
45623W        W46487  21.401  18.672  14.478  0.1368  0.1383  0.1617
45624W        W46488  20.367  21.066  14.047 -0.1876 -0.1713  0.1179
45625W        W46489  20.027  20.625  12.826  0.1206  0.0021 -0.1708
45626W        W46490  21.825  18.826  12.157 -0.1164 -0.0576 -0.1581
45627W        W46491  19.951  21.630  12.717  0.0493 -0.0686  0.0438
45628W        W46492  21.105  22.386  18.093  0.3211 -0.2017  0.1444
45629W        W46493  19.895  19.692  13.899 -0.0559 -0.2887  0.2273
45630W        W46494  19.179  16.437  12.920  0.0440  0.1304 -0.4105
45631W        W46495  18.890  21.963  10.467  0.0370  0.1602  0.1388
45632W        W46496  20.032  17.993  16.598 -0.2933 -0.0163 -0.3156
45633W        W46497  19.145  21.393  14.707  0.0532  0.1380  0.0475
45634W        W46498  21.723  18.406   9.912  0.4000  0.1551  0.0297
45635W        W46499  18.215  23.342  11.033  0.2626 -0.1056  0.6212
45636W        W46500  22.429  21.877  13.843 -0.0482 -0.4644  0.0135
45637W        W46501  21.706  21.867   8.281 -0.3655  0.0620 -0.0148
45638W        W46502  20.986  24.610  11.302  0.0179 -0.3007 -0.0110
45639W        W46503  19.881  16.842  11.038  0.2465  0.2848  0.0756
45640W        W46504  23.101  18.694  10.191 -0.3077  0.3348 -0.1549
45641W        W46505  19.031  18.582  10.689 -0.0073 -0.1927  0.1622
45642W        W46506  20.934  22.271  13.646  0.3825  0.3855  0.0876
45643W        W46507  21.136  23.208  10.964  0.0513 -0.5272 -0.0420
45644W        W46508  21.961  19.915  13.052 -0.1244 -0.0920 -0.0874
45645W        W46509  23.564  20.255  12.566  0.0672 -0.0766  0.0171
45646W        W46510  18.705  19.454  12.841  0.0259 -0.1197 -0.2799
45647W        W46511  21.371  18.677  11.860 -0.3211  0.1403  0.2532
45648W        W46512  23.496  22.467  11.573  0.1076  0.5254  0.0244
45649W        W46513  23.151  19.417  14.712 -0.0087  0.2165  0.0556
45650W        W46514  21.468  19.822  13.113 -0.1621  0.0207 -0.0865
45651W        W46515  19.958  22.082  13.704  0.0750  0.0014  0.0726
45652W        W46516  19.193  24.777  13.569 -0.0009 -0.1865  0.2151
45653W        W46517  19.574  22.450  13.622 -0.2304 -0.2016 -0.1252
45654W        W46518  23.894  18.324  13.318  0.1080 -0.0286 -0.2696
45655W        W46519  20.666  23.478  12.040  0.1248 -0.3093 -0.0264
45656W        W46520  20.332  22.145  15.060  0.2250  0.2681  0.0046
45657W        W46521  20.938  21.914  10.958  0.3358  0.0594  0.0162
45658W        W46522  19.634  22.082  12.733  0.2006  0.1879 -0.0194
45659W        W46523  21.064  21.882  14.442  0.0575 -0.1985  0.1515
45660W        W46524  23.286  21.270  12.513 -0.0098 -0.1461  0.0358
45661W        W46525  19.188  24.038  14.286 -0.0775  0.0145  0.1770
45662W        W46526  18.050  22.415  12.005 -0.0221 -0.1112  0.0776
45663W        W46527  20.580  18.068  12.871  0.3778 -0.0502 -0.3145
45664W        W46528  22.771  20.139  14.389  0.2112 -0.1476 -0.1252
45665W        W46529  19.054  22.771  12.379 -0.1444  0.2722  0.4763
45666W        W46530  20.126  19.028  16.357  0.2629  0.0384 -0.0262
45667W        W46531  21.323  21.779  11.841 -0.0428  0.1953  0.0648
45668W        W46532  20.968  18.517  13.094  0.1596  0.0845  0.1067
45669W        W46533  17.596  22.483  13.040  0.1089  0.0012  0.0251
45670W        W46534  17.906  19.453   9.126 -0.2102 -0.1231 -0.0147
45671W        W46535  18.359  24.680  18.507  0.2313 -0.1800 -0.1158
45672W        W46536  19.103  20.370  16.073  0.0793  0.0480  0.2284
45673W        W46537  22.961  18.326  13.087 -0.0905 -0.0411  0.0314
45674W        W46538  20.782  22.338  15.923  0.1527  0.1646 -0.1131
45675W        W46539  19.791  23.216  12.090  0.3844  0.0751  0.1012
45676W        W46540  21.872  20.968  16.287  0.1580 -0.0318 -0.2349
45677W        W46541  19.382  19.020  15.796  0.1244  0.1493 -0.0520
45678W        W46542  20.811  20.860  15.273  0.0793  0.2732  0.3736
45679W        W46543  20.554  22.668  16.942  0.1138  0.0475  0.1615
45680W        W46544  14.689  16.177  15.334  0.1358 -0.1107 -0.0765
45681W        W46545  18.930  16.777  18.127  0.1245  0.0449 -0.0134
45682W        W46546  20.661  20.557  17.971  0.0724  0.0301  0.0228
45683W        W46547  21.847  19.426  14.870 -0.1034 -0.1881 -0.2401
45684W        W46548  21.640  21.930  14.810  0.1538  0.0331 -0.0020
45685W        W46549  19.177  18.820  19.155  0.2710  0.2751  0.0818
45686W        W46550  18.388  20.787  16.388  0.1245 -0.1202 -0.3422
45687W        W46551  21.381  22.078  13.742 -0.0630  0.1010  0.0505
45688W        W46552  19.648  20.009  16.576 -0.0751  0.1637 -0.4160
45689W        W46553  20.984  19.873  17.311 -0.3560 -0.0414 -0.0648
45690W        W46554  21.712  18.962  15.020  0.0605 -0.1049 -0.2235
45691W        W46555  23.661  21.388  19.195 -0.1527  0.1752  0.3642
45692W        W46556  19.823  16.860  16.552 -0.1008 -0.0693  0.2338
45693W        W46557  20.746  20.566  14.807 -0.1050  0.1346 -0.2427
45694W        W46558  20.884  20.771  19.551  0.1173  0.1861 -0.2094
45695W        W46559  20.322  19.698  17.992  0.1411  0.1377  0.0221
45696W        W46560  19.874  20.737  18.538  0.0754 -0.1180 -0.2428
45697W        W46561  20.743  19.155  16.123  0.3911  0.1185 -0.0630
45698W        W46562  19.443  23.376  16.626  0.2836  0.2770  0.0600
45699W        W46563  22.385  23.418  18.294  0.1209  0.0618  0.2207
45700W        W46564  20.078  17.926  15.375 -0.1442 -0.0375 -0.1423
45701W        W46565  20.148  22.391  14.670  0.1715  0.1993 -0.0351
45702W        W46566  23.638  20.559  17.155  0.0315  0.0413  0.0335
45703W        W46567  21.927  18.847  17.743 -0.1154 -0.1124 -0.0282
45704W        W46568  21.193  21.200  20.810 -0.1775 -0.2355  0.2114
45705W        W46569  17.392  18.855  16.883 -0.0490  0.0823  0.4850
45706W        W46570  20.255  22.449  17.926 -0.0243 -0.1268  0.3129
45707W        W46571  18.183  17.929  14.991 -0.0040 -0.1564 -0.2820
45708W        W46572  20.949  20.562  16.493  0.0610  0.2649  0.0612
45709W        W46573  21.801  18.960  16.402 -0.0136  0.2726 -0.1495
45710W        W46574  20.245  14.996  19.110  0.0698  0.0576  0.3280
45711W        W46575  21.571  18.285  14.031 -0.0726  0.0887  0.1712
45712W        W46576  21.788  19.382  18.574 -0.5204 -0.0090  0.3232
45713W        W46577  20.824  21.903  16.146 -0.0931  0.1442 -0.0554
45714W        W46578  22.086  22.648  14.373  0.0666 -0.0486 -0.0800
45715W        W46579  19.596  22.839  15.102 -0.1924 -0.0940  0.0106
45716W        W46580  19.854  19.804  15.094 -0.0555 -0.0725 -0.0928
45717W        W46581  20.928  17.032  16.018 -0.1641  0.0510 -0.2649
45718W        W46582  23.378  17.589  17.156 -0.0037  0.2581  0.1971
45719W        W46583  20.274  20.517  15.117 -0.1111  0.2179 -0.2334
45720W        W46584  20.867  20.355  13.773  0.0021 -0.1732 -0.1002
45721W        W46585  22.021  22.384  16.392 -0.1000 -0.1170 -0.0916
45722W        W46586  20.747  18.756  16.469  0.3447  0.0353  0.0113
45723W        W46587  19.709  20.927  16.282 -0.0671  0.1389 -0.2529
45724W        W46588  22.006  20.042  14.827  0.2145  0.0038 -0.1754
45725W        W46589  19.405  17.715  16.130 -0.2464  0.1724 -0.1548
45726W        W46590  18.043  20.818  16.769  0.0480  0.0173 -0.1233
45727W        W46591  20.731  21.719  18.336  0.3261 -0.0317  0.0703
45728W        W46592  20.099  21.077  16.573 -0.0291 -0.0104 -0.0117
45729W        W46593  17.441  21.436  17.024 -0.3722  0.0297  0.1417
45730W        W46594  20.361  23.481  15.233  0.0018 -0.2992  0.0369
45731W        W46595  23.065  20.204  16.202  0.2325 -0.0750 -0.0665
45732W        W46596  18.667  21.509  14.569  0.0614 -0.3107  0.1905
45733W        W46597  21.150  22.314  15.088 -0.2716 -0.1808  0.0342
45734W        W46598  21.408  20.451  16.719 -0.1270 -0.2280 -0.0605
45735W        W46599  21.639  20.153  18.223 -0.3796  0.2992 -0.0381
45736W        W46600  22.184  18.673  16.489  0.1634  0.1170  0.0584
45737W        W46601  18.018  18.089  14.549 -0.2530 -0.1846  0.2542
45738W        W46602  18.446  20.212  14.058  0.2203 -0.1401 -0.1200
45739W        W46603  20.615  20.072  15.828 -0.2145  0.2705  0.1364
45740W        W46604  20.380  23.057  14.334 -0.1632  0.3087 -0.0728
45741W        W46605  21.964  22.850  18.904  0.0462  0.0840 -0.0865
45742W        W46606  22.348  21.338  14.817  0.3330 -0.2072  0.2275
45743W        W46607  19.256  22.139  14.031  0.0942  0.1230  0.1787
45744W        W46608  22.913  19.178  15.974 -0.0064  0.0200  0.1963
45745W        W46609  21.742  20.238  15.907 -0.0880 -0.0801  0.1033
45746W        W46610  22.128  17.641  18.060  0.0111 -0.1724  0.1291
45747W        W46611  17.750  19.391  14.127 -0.0095 -0.1829  0.2640
45748W        W46612  19.426  23.126  13.964  0.0426  0.2699 -0.4874
45749W        W46613  22.555  18.557  18.411 -0.0996 -0.0934 -0.1283
45750W        W46614  19.097  20.101  16.959  0.0721  0.3090  0.1287
45751W        W46615  20.228  21.894  15.986 -0.0001  0.2073 -0.2955
45752W        W46616  18.920  17.726  17.082 -0.2001  0.0705 -0.3000
45753W        W46617  18.561  20.615  14.418 -0.0875  0.3583  0.0575
45754W        W46618  18.272  18.559  18.985  0.0435 -0.1693 -0.0238
45755W        W46619  22.642  18.187  21.285  0.0496  0.1584  0.0173
45756W        W46620  18.630  18.139  11.667  0.1314  0.0165  0.1351
45757W        W46621  22.931  21.111  20.838 -0.3199 -0.0107 -0.1796
45758W        W46622  21.355  18.923  16.858  0.2427  0.1705  0.0401
45759W        W46623  22.660  22.847  15.527  0.2466  0.1704 -0.0784
45760W        W46624  19.967  20.214  18.698 -0.1454  0.0304 -0.0753
45761W        W46625  20.095  18.280  16.991  0.1221 -0.3882 -0.1883
45762W        W46626  19.912  19.440  16.498 -0.2148 -0.0395 -0.1602
45763W        W46627  21.009  22.520  16.731 -0.0783  0.0370  0.1474
45764W        W46628  20.505  18.575  17.019  0.1877 -0.2414  0.0178
45765W        W46629  19.346  19.811  19.634 -0.0079  0.1303 -0.0132
45766W        W46630  21.538  20.191  15.435 -0.0787 -0.1071 -0.0599
45767W        W46631  22.085  22.598  17.447  0.3141  0.2893 -0.1972
45768W        W46632  21.384  19.691  17.506  0.0191 -0.0950 -0.3521
45769W        W46633  20.205  19.708  14.766 -0.1435 -0.3254  0.3551
45770W        W46634  24.332  20.061  14.856 -0.1136 -0.0082 -0.0755
45771W        W46635  20.545  21.302  16.711  0.2015  0.0340 -0.0585
45772W        W46636  18.684  22.298  16.796 -0.0747  0.2012 -0.2204
45773W        W46637  21.511  20.628  14.321 -0.2716 -0.1347 -0.0581
45774W        W46638  21.784  23.268  15.995  0.4189  0.0479  0.1786
45775W        W46639  22.370  16.084  17.825 -0.0787 -0.1976 -0.1395
45776W        W46640  21.829  20.778  20.176  0.0842 -0.0581  0.2362
45777W        W46641  21.151  22.481  14.586 -0.0275 -0.2101 -0.0075
45778W        W46642  20.628  21.306  18.633 -0.1860  0.0345 -0.0045
45779W        W46643  21.436  19.422  15.695 -0.2350  0.0592 -0.1303
45780W        W46644  18.030  18.598  17.279  0.0526 -0.0116 -0.1844
45781W        W46645  18.051  21.567  18.420  0.2173 -0.2068 -0.4291
45782W        W46646  21.625  20.144  14.460  0.0140  0.1419 -0.1207
45783W        W46647  21.749  18.118  16.521 -0.1589  0.1223 -0.1745
45784W        W46648  21.197  21.784  15.002 -0.3125  0.0849 -0.0666
45785W        W46649  21.910  20.533  15.527 -0.0534  0.0290  0.3112
45786W        W46650  20.641  21.837  17.154 -0.0018 -0.1920 -0.1425
45787W        W46651  21.296  17.853  18.646  0.0148 -0.2482  0.1059
45788W        W46652  21.363  19.450  18.849  0.0635  0.0438  0.0913
45789W        W46653  19.231  18.933  21.489  0.4223 -0.1508  0.1315
45790W        W46654  23.136  18.247  16.997  0.2113 -0.1311 -0.2212
45791W        W46655  21.586  19.148  17.586  0.0485 -0.4469 -0.1976
45792W        W46656  21.612  22.231  14.418 -0.0997  0.2076 -0.1342
45793W        W46657  19.338  21.491  16.325 -0.0135  0.2134 -0.0505
45794W        W46658  23.174  21.963  13.433 -0.3896  0.4762  0.0024
45795W        W46659  23.127  19.078  15.379  0.2244 -0.1281  0.1051
45796W        W46660  20.784  19.813  15.331  0.0981 -0.0277 -0.0760
45797W        W46661  17.997  21.049  15.550 -0.0912 -0.1666 -0.1260
45798W        W46662  21.591  22.502  14.829 -0.1583  0.1530  0.1470
45799W        W46663  20.234  22.079  17.448  0.0427 -0.0013 -0.0988
45800W        W46664  20.105  24.674  17.896  0.0571 -0.2501  0.1300
45801W        W46665  19.180  21.603  13.963 -0.1829 -0.1009 -0.0587
45802W        W46666  20.453  18.643  17.782  0.0134  0.0527 -0.3039
45803W        W46667  21.718  23.148  16.993 -0.0511  0.1969 -0.1504
45804W        W46668  20.797  17.710  17.182  0.0259 -0.1220  0.1237
45805W        W46669  19.507  19.999  17.287 -0.0076 -0.1892  0.0235
45806W        W46670  18.503  17.501  15.008  0.0439  0.0955  0.0718
45807W        W46671  22.252  18.354  17.968 -0.1429  0.2935  0.1411
45808W        W46672  23.366  18.631  19.042 -0.0593 -0.0489 -0.1421
45809W        W46673  20.281  21.097  15.358 -0.0987  0.2551 -0.0676
45810W        W46674  19.808  23.517  12.614  0.0773  0.0811 -0.0517
45811W        W46675  19.015  19.910  14.882  0.1035 -0.0571 -0.2055
45812W        W46676  18.540  18.684  17.357 -0.2013 -0.0778 -0.0590
45813W        W46677  19.566  20.109  14.066  0.1131 -0.2542 -0.1634
45814W        W46678  19.409  19.505  16.317 -0.1642  0.0145  0.0084
45815W        W46679  18.546  20.297  15.867 -0.0285 -0.1586 -0.1778
45816W        W46680  19.420  20.740  15.868  0.2153 -0.0387  0.0390
45817W        W46681  20.804  17.742  16.280  0.2091 -0.0620 -0.1297
45818W        W46682  24.823  22.388  14.876  0.2730  0.2949 -0.3235
45819W        W46683  17.432  18.952  15.634 -0.0418 -0.0962  0.3042
45820W        W46684  18.260  21.931  17.080 -0.1163 -0.1134  0.1504
45821W        W46685  17.171  23.098  15.488  0.1979 -0.1867 -0.0800
45822W        W46686  20.736  22.587  17.800 -0.0094 -0.3111 -0.0290
45823W        W46687  19.234  22.391  16.433  0.1842 -0.3111 -0.0982
45824W        W46688  18.850  20.767  16.589 -0.2800 -0.1944 -0.1787
45825W        W46689  20.253  18.493  18.712  0.2569 -0.0864 -0.1486
45826W        W46690  21.740  19.124  14.497  0.1049  0.2294  0.3626
45827W        W46691  17.263  21.021  16.309 -0.1913 -0.0067  0.0694
45828W        W46692  19.706  22.650  16.629  0.3439  0.2000 -0.1965
45829W        W46693  18.768  20.154  14.465 -0.2121 -0.0399 -0.0271
45830W        W46694  22.436  20.071  16.029 -0.3402  0.2077  0.0453
45831W        W46695  20.467  18.723  16.099  0.0281  0.0645  0.0364
45832W        W46696  19.321  21.018  17.649  0.2335 -0.1740  0.1215
45833W        W46697  20.756  21.068  20.073 -0.3246 -0.1001 -0.1094
45834W        W46698  21.560  20.415  21.446 -0.1528  0.3545  0.0464
45835W        W46699  20.823  19.473  18.246  0.2160  0.1380  0.2526
45836W        W46700  19.457  20.213  15.663 -0.4362  0.2506 -0.2112
45837W        W46701  20.916  19.592  15.836 -0.1767  0.0275 -0.1513
45838W        W46702  18.680  21.644  14.000 -0.1015  0.1476  0.0719
45839W        W46703  20.688  22.256  18.250  0.0766  0.2137  0.1286
45840W        W46704  21.560  19.675  14.567  0.0789 -0.0714 -0.0651
45841W        W46705  20.111  19.012  18.695 -0.0820  0.3369  0.2998
45842W        W46706  20.705  20.041  16.700  0.1286 -0.1876 -0.0167
45843W        W46707  20.052  22.210  16.436 -0.0882 -0.0596  0.1329
45844W        W46708  20.261  22.411  16.058  0.0714 -0.0237 -0.1412
45845W        W46709  21.250  19.741  15.417  0.3493 -0.0628  0.0860
45846W        W46710  25.097  18.579  15.750  0.4039 -0.1209 -0.0443
45847W        W46711  19.822  20.223  16.964 -0.0222  0.1230  0.0496
45848W        W46712  18.818  19.288  14.956  0.2714 -0.2596 -0.0053
45849W        W46713  21.121  20.233  15.140  0.0921 -0.0470 -0.2991
45850W        W46714  18.788  18.680  18.851 -0.0018  0.1827 -0.1429
45851W        W46715  18.716  21.627  15.107 -0.0470 -0.1077 -0.1585
45852W        W46716  19.892  23.833  14.537 -0.2804  0.1824 -0.4252
45853W        W46717  20.312  18.541  16.553  0.1063  0.0603  0.0326
45854W        W46718  18.468  18.767  15.763 -0.0831 -0.1587  0.0983
45855W        W46719  18.065  18.920  14.841  0.0965 -0.1727  0.0010
45856W        W46720  21.267  19.976  17.939  0.0254  0.1657  0.0546
45857W        W46721  21.136  16.798  17.852 -0.5388  0.1108 -0.1745
45858W        W46722  19.717  19.457  10.777 -0.0540 -0.0595  0.0783
45859W        W46723  20.699  18.694  18.622 -0.1680  0.3333  0.3689
45860W        W46724  22.448  22.723  18.991  0.0176 -0.0777 -0.0210
45861W        W46725  21.376  21.081  13.446  0.0267 -0.1705  0.0065
45862W        W46726  15.888  20.765  15.170 -0.0310 -0.1406 -0.1203
45863W        W46727  20.000  18.739  19.135 -0.1650  0.3240 -0.0704
45864W        W46728  21.600  16.485  17.893 -0.0109 -0.3061 -0.0469
45865W        W46729  20.856  18.888  16.917  0.0162 -0.0486  0.0497
45866W        W46730  20.446  16.355  15.677 -0.1375  0.0506  0.0904
45867W        W46731  20.051  16.023  16.501 -0.1384  0.0719  0.0860
45868W        W46732  16.520  20.390  16.133 -0.0000  0.3692 -0.1242
45869W        W46733  19.208  21.096  16.581 -0.2588 -0.2805  0.1342
45870W        W46734  20.561  18.080  17.392  0.2429 -0.1023 -0.0875
45871W        W46735  17.664  21.812  16.657  0.0061 -0.2234  0.0053
45872W        W46736  22.831  18.075  17.829  0.1482 -0.0313 -0.3598
45873W        W46737  22.318  23.138  14.446 -0.2496  0.4694 -0.0736
45874W        W46738  22.003  21.959  16.679  0.0371  0.0017 -0.3093
45875W        W46739  21.934  18.957  16.850 -0.0842 -0.1198  0.2195
45876W        W46740  18.251  18.996  15.328  0.2225 -0.1760  0.2254
45877W        W46741  19.619  18.483  17.120  0.0307 -0.0807  0.1900
45878W        W46742  21.844  20.422  16.403 -0.1136 -0.1775 -0.0754
45879W        W46743  23.708  22.352  16.502  0.1293  0.0507  0.3133
45880W        W46744  19.742  20.505  13.725  0.0237  0.0325 -0.0282
45881W        W46745  21.353  20.325  16.229  0.1018  0.1596 -0.2097
45882W        W46746  17.928  19.116  17.526  0.0764  0.1090 -0.0885
45883W        W46747  21.745  20.880  16.749  0.0477 -0.1321  0.1894
45884W        W46748  18.394  19.425  17.505 -0.0927 -0.2763 -0.1221
45885W        W46749  22.532  20.936  19.709  0.0123  0.2066  0.2973
45886W        W46750  21.663  20.833  15.867  0.0590 -0.0453  0.1072
45887W        W46751  20.391  22.202  15.584 -0.1039  0.2972  0.1934
45888W        W46752  21.400  22.466  15.888  0.0353 -0.0648  0.1499
45889W        W46753  21.837  18.059  18.037 -0.1932  0.3403 -0.0363
45890W        W46754  20.418  20.446  16.897  0.0361 -0.0356  0.0552
45891W        W46755  19.098  19.497  21.187  0.0863  0.0927 -0.1318
45892W        W46756  18.706  18.985  17.866  0.0778 -0.1752 -0.0598
45893W        W46757  22.111  21.470  15.278  0.1006  0.3046 -0.1342
45894W        W46758  20.954  21.391  16.989 -0.2665 -0.1216 -0.2291
45895W        W46759  23.615  19.578  14.790  0.2380 -0.3483  0.0046
45896W        W46760  19.008  18.615  17.090 -0.1376 -0.1428 -0.1326
45897W        W46761  20.994  21.689  19.374  0.0953  0.3567 -0.1894
45898W        W46762  17.609  18.385  18.633 -0.4192  0.1984 -0.1087
45899W        W46763  20.059  20.663  16.043  0.0458  0.2062 -0.1492
45900W        W46764  18.218  21.327  14.690 -0.0869 -0.2098 -0.0252
45901W        W46765  19.303  19.151  16.770 -0.2538  0.0865 -0.2928
45902W        W46766  20.318  20.233  19.480 -0.0762 -0.1778 -0.0868
45903W        W46767  21.022  20.785  17.750 -0.1570 -0.2912 -0.1986
45904W        W46768  19.477  22.744  14.321  0.0112 -0.2171 -0.1428
45905W        W46769  20.295  17.804  20.081  0.0972 -0.1894  0.3151
45906W        W46770  20.193  18.703  14.771  0.3223  0.0812 -0.2508
45907W        W46771  22.366  19.543  16.292 -0.1969 -0.3748  0.1354
45908W        W46772  21.686  19.141  18.122  0.2323 -0.1763  0.0353
45909W        W46773  21.043  23.169  13.463 -0.0701  0.1931  0.1707
45910W        W46774  24.988  21.547  18.397  0.1918 -0.2597  0.3969
45911W        W46775  20.661  21.663  14.822 -0.1706 -0.2307 -0.0631
45912W        W46776  18.108  20.803  18.485 -0.0647  0.0870 -0.1734
45913W        W46777  17.578  17.474  16.243  0.0203  0.1156  0.1351
45914W        W46778  20.313  18.190  16.201 -0.0856 -0.0905  0.0452
45915W        W46779  20.302  21.954  18.007  0.2195  0.2259 -0.2605
45916W        W46780  18.954  19.529  12.247 -0.0128  0.3248  0.0203
45917W        W46781  22.357  21.174  17.246 -0.0170  0.0398 -0.2288
45918W        W46782  16.965  20.332  18.274  0.2321 -0.0026  0.1274
45919W        W46783  22.160  21.396  16.409  0.2679 -0.0946  0.1140
45920W        W46784  19.889  19.297  16.991 -0.2878 -0.3284 -0.1509
45921W        W46785  22.041  19.987  16.299 -0.3310 -0.1259 -0.0538
45922W        W46786  19.999  21.903  15.554 -0.1044  0.0068  0.0559
45923W        W46787  22.724  21.722  15.861  0.1221 -0.0542 -0.1495
45924W        W46788  20.322  20.257  16.324  0.0629  0.5356 -0.0064
45925W        W46789  19.640  20.378  16.146  0.1717 -0.2503 -0.3023
45926W        W46790  20.164  21.673  13.926 -0.0135  0.0229 -0.0638
45927W        W46791  21.979  19.707  15.858  0.1127 -0.0039  0.3002
45928W        W46792  19.673  16.630  18.634  0.0622  0.0110  0.2199
45929W        W46793  22.234  22.571  13.655 -0.1192  0.4344 -0.0371
45930W        W46794  21.261  19.994  16.936  0.1517  0.1361  0.1329
45931W        W46795  21.844  19.510  16.260  0.1568  0.0882 -0.3226
45932W        W46796  17.900  17.826  18.146 -0.0407 -0.0411 -0.0070
45933W        W46797  19.980  19.788  17.282  0.0700  0.3393  0.0267
45934W        W46798  19.081  19.186  17.449  0.2294  0.1157 -0.0041
45935W        W46799  18.306  21.697  17.948 -0.2242 -0.3607 -0.0120
45936W        W46800  16.076  22.336  18.008  0.1922 -0.1086 -0.2252
45937W        W46801  22.577  20.880  15.234  0.0133  0.2558 -0.0808
45938W        W46802  21.704  19.139  12.480 -0.1459 -0.0126 -0.2566
45939W        W46803  19.798  18.956  18.320  0.1143 -0.0670 -0.0125
45940W        W46804  22.056  22.204  14.068  0.2672 -0.1826  0.0951
45941W        W46805  18.814  19.699  15.316  0.1007  0.0369  0.0590
45942W        W46806  23.564  19.224  18.599 -0.0444  0.0312  0.1012
45943W        W46807  20.844  19.889  18.954 -0.1356 -0.0737 -0.1880
45944W        W46808  20.366  20.346  18.955  0.0019  0.2898  0.0410
45945W        W46809  21.659  22.828  17.405 -0.1891 -0.0808 -0.1345
45946W        W46810  20.314  17.709  17.536  0.4231  0.1336 -0.1919
45947W        W46811  15.992  17.259  15.095 -0.2401 -0.2857  0.0246
45948W        W46812  20.258  23.373  16.264  0.3979  0.0436  0.1209
45949W        W46813  17.511  20.323  13.931  0.2329  0.1207 -0.0993
45950W        W46814  15.709  20.064  15.854 -0.3523  0.0753  0.1988
45951W        W46815  18.082  15.304  18.467  0.1741  0.0396 -0.0135
45952W        W46816  20.245  19.737  15.736 -0.0676  0.0415 -0.0479
45953W        W46817  21.519  19.355  16.654 -0.0217  0.2967 -0.2441
45954W        W46818  15.342  23.536  17.559 -0.1042  0.1882 -0.1700
45955W        W46819  23.868  19.154  16.110  0.1388  0.0026  0.0193
45956W        W46820  22.691  16.562  16.550  0.2471  0.1759 -0.0388
45957W        W46821  22.938  18.953  16.892 -0.0657 -0.1440  0.1124
45958W        W46822  19.009  19.264  18.310 -0.0859  0.0944 -0.3628
45959W        W46823  20.996  17.947  15.868 -0.1774  0.0495  0.4223
45960W        W46824  23.484  19.223  17.120  0.0384 -0.1497  0.1657
45961W        W46825  20.636  18.311  15.736  0.1232 -0.2111 -0.0399
45962W        W46826  20.801  15.157  17.870 -0.3683 -0.1705  0.2123
45963W        W46827  20.964  18.562  16.029  0.0644 -0.2695  0.3061
45964W        W46828  18.423  19.823  14.831  0.1575 -0.1511 -0.0101
45965W        W46829  17.191  19.191  14.111 -0.1171  0.1180  0.0296
45966W        W46830  21.183  20.089  15.759 -0.0057 -0.0786 -0.0341
45967W        W46831  19.104  19.256  15.381  0.0978 -0.0608 -0.0390
45968W        W46832  22.667  20.315  18.897 -0.2501 -0.2847  0.2421
45969W        W46833  23.923  17.372  18.449 -0.0385 -0.0107  0.0562
45970W        W46834  17.433  21.211  17.470 -0.3731 -0.0681  0.3074
45971W        W46835  21.476  21.513  14.538 -0.1040  0.0141  0.1981
45972W        W46836  18.537  20.731  19.989  0.1786 -0.0011  0.0677
45973W        W46837  21.528  20.537  17.876 -0.1813  0.0622  0.0080
45974W        W46838  22.272  19.675  17.275  0.2166  0.0351 -0.0937
45975W        W46839  19.761  22.482  16.142  0.0268  0.0273  0.1933
45976W        W46840  22.840  20.743  19.033  0.0478  0.1484  0.3253
45977W        W46841  21.902  20.600  19.251 -0.0208  0.0720  0.0633
45978W        W46842  21.206  20.151  14.141 -0.1912 -0.0651 -0.1149
45979W        W46843  21.341  20.205  17.426 -0.3386  0.1604  0.0859
45980W        W46844  14.266  22.773  18.432 -0.1937  0.0218  0.2592
45981W        W46845  19.846  17.619  16.375  0.0350  0.1862 -0.0060
45982W        W46846  19.965  18.423  18.254  0.2207 -0.2298 -0.2483
45983W        W46847  18.841  20.989  13.313  0.3471 -0.2592  0.0189
45984W        W46848  21.104  19.466  14.832 -0.2056 -0.2288 -0.0043
45985W        W46849  18.517  19.795  15.806 -0.0293 -0.0303 -0.0345
45986W        W46850  17.707  22.802  16.938  0.0268  0.0163 -0.4385
45987W        W46851  18.534  18.563  13.823  0.1512 -0.1320 -0.1236
45988W        W46852  21.636  18.474  16.211 -0.1648  0.1577  0.1071
45989W        W46853  21.905  22.308  15.934  0.0857 -0.1915  0.1750
45990W        W46854  22.085  22.537  15.484 -0.3247  0.1963 -0.3748
45991W        W46855  17.304  22.135  16.429 -0.1527 -0.1808  0.1305
45992W        W46856  21.451  23.202  13.735  0.0845 -0.0904 -0.0098
45993W        W46857  20.292  19.766  19.160  0.0966  0.0419  0.0989
45994W        W46858  24.303  19.835  15.786 -0.1393 -0.1024  0.0916
45995W        W46859  20.105  20.231  18.053  0.0419 -0.1872  0.1351
45996W        W46860  20.533  23.271  18.222 -0.1382  0.0909 -0.1227
45997W        W46861  19.980  17.390  16.812  0.0025 -0.0073  0.0004
45998W        W46862  19.392  18.607  14.506  0.1226 -0.3286  0.0001
45999W        W46863  19.793  22.047  14.552 -0.1108  0.0905 -0.1088
46000W        W46864  18.196  19.390  16.618  0.0910 -0.2539  0.0076
46001W        W46865  19.765  19.390  15.962 -0.0751 -0.1212 -0.0366
46002W        W46866  18.853  20.134  17.891 -0.0100  0.0278 -0.1512
46003W        W46867  22.140  20.195  17.354 -0.0157  0.1890  0.2403
46004W        W46868  19.732  21.965  15.999  0.2331 -0.2717 -0.2619
46005W        W46869  22.901  19.725  17.410 -0.2372  0.2278 -0.1325
46006W        W46870  21.803  20.628  17.415 -0.0214 -0.0920 -0.0295
46007W        W46871  17.799  21.801  17.191 -0.1688  0.0333  0.1775
46008W        W46872  23.308  22.037  14.309  0.0757 -0.2131  0.1845
46009W        W46873  20.085  19.115  15.653  0.2547 -0.1598 -0.1515
46010W        W46874  19.661  18.832  15.359  0.0536  0.0003 -0.0068
46011W        W46875  18.497  21.125  16.826  0.1325  0.1966  0.2579
46012W        W46876  16.802  18.239  17.622 -0.0039  0.0641 -0.1340
46013W        W46877  19.171  17.551  19.265  0.0135  0.1937  0.0400
46014W        W46878  19.776  20.659  14.872  0.1585 -0.0633 -0.4096
46015W        W46879  17.898  23.056  14.375  0.0220 -0.0872 -0.2461
46016W        W46880  19.946  22.791  17.504 -0.1434  0.1979  0.1566
46017W        W46881  20.450  21.381  17.194  0.2029  0.0731  0.2028
46018W        W46882  16.727  20.143  14.507 -0.2064  0.1837  0.1902
46019W        W46883  19.858  20.206  17.577  0.1517 -0.0319  0.0724
46020W        W46884  20.548  20.582  14.090 -0.2970 -0.1606 -0.2367
46021W        W46885  24.001  19.738  16.145 -0.0982 -0.0567  0.0140
46022W        W46886  19.758  20.065  13.604 -0.1135 -0.0627  0.3541
46023W        W46887  22.282  18.121  14.999 -0.1628 -0.0495 -0.0950
46024W        W46888  20.902  20.400  16.983  0.1767 -0.2630  0.1833
46025W        W46889  19.528  21.208  15.809  0.0601 -0.2134 -0.0485
46026W        W46890  20.369  19.221  14.629  0.1029  0.1626 -0.3116
46027W        W46891  17.818  21.062  13.616  0.3283 -0.3266  0.0580
46028W        W46892  21.243  20.717  17.209 -0.2198  0.0610 -0.0771
46029W        W46893  19.444  16.325  20.440  0.1202  0.0488 -0.3857
46030W        W46894  18.101  20.103  17.185  0.2144  0.2209  0.0392
46031W        W46895  19.711  21.807  14.029 -0.2578 -0.0051  0.1535
46032W        W46896  21.547  18.274  18.604 -0.2028  0.1449  0.0988
46033W        W46897  16.978  22.926  15.918 -0.4286  0.1937 -0.1922
46034W        W46898  20.005  16.717  15.351  0.1088  0.1875 -0.1579
46035W        W46899  20.353  20.603  15.622 -0.2565  0.1769 -0.3129
46036W        W46900  22.171  21.505  16.906  0.2495  0.2926 -0.0826
46037W        W46901  20.048  23.639  16.885 -0.0931 -0.3501  0.0906
46038W        W46902  20.032  20.196  15.749 -0.1879  0.2415  0.0594
46039W        W46903  19.447  19.687  14.769 -0.2128 -0.1288  0.0127
46040W        W46904  23.163  19.804  16.489  0.2391  0.1468  0.3287
46041W        W46905  20.546  19.433  15.041 -0.2348 -0.0795  0.0874
46042W        W46906  20.834  17.157  16.941 -0.0549  0.2751  0.0183
46043W        W46907  21.380  21.336  15.064 -0.0001  0.2170 -0.0028
46044W        W46908  24.766  18.793  19.177  0.0304  0.0805  0.0369
46045W        W46909  22.199  22.032  13.330  0.1053  0.0246  0.2530
46046W        W46910  20.912  19.199  18.775  0.0426 -0.1544  0.0690
46047W        W46911  20.593  21.662  17.735 -0.2175 -0.1574  0.1443
46048W        W46912  22.128  20.004  16.791  0.0379 -0.1636 -0.0532
46049W        W46913  19.536  18.586  19.455 -0.0655  0.2483  0.1873
46050W        W46914  17.871  19.876  17.524 -0.1028  0.3521  0.3770
46051W        W46915  17.492  22.119  16.984 -0.3624  0.1045 -0.0378
46052W        W46916  19.391  19.836  15.287 -0.0576 -0.1971 -0.2381
46053W        W46917  16.329  19.090  14.668 -0.0034 -0.2178 -0.2118
46054W        W46918  18.276  22.416  16.274  0.0008  0.0167  0.2742
46055W        W46919  21.995  20.463  15.041 -0.0754  0.1151 -0.2152
46056W        W46920  18.749  22.218  16.312 -0.0287  0.0749 -0.2504
46057W        W46921  22.722  20.348  13.907  0.1593  0.1781  0.2081
46058W        W46922  21.701  19.635  18.088  0.0480 -0.1603  0.0634
46059W        W46923  18.936  20.165  15.306  0.2335 -0.2003  0.1322
46060W        W46924  22.032  16.947  17.161 -0.2690 -0.1464  0.1119
46061W        W46925  20.105  21.661  17.001 -0.0748  0.2454  0.2444
46062W        W46926  17.305  20.164  14.875  0.0837 -0.0401  0.0315
46063W        W46927  23.290  18.908  16.203 -0.2793  0.0350 -0.0854
46064W        W46928  18.673  22.099  15.112 -0.0233 -0.2137 -0.0442
46065W        W46929  18.456  21.842  15.485  0.0834  0.0588  0.0338
46066W        W46930  21.315  18.885  17.919 -0.0591  0.1346 -0.2645
46067W        W46931  18.791  22.082  14.252  0.1527 -0.1806 -0.1787
46068W        W46932  18.410  20.380  18.771 -0.0821 -0.1557 -0.0066
46069W        W46933  15.617  22.959  11.321  0.0181  0.0604  0.0381
46070W        W46934  20.287  19.242  14.086  0.0238 -0.0877  0.1629
46071W        W46935  15.646  21.289  21.258  0.0657 -0.0956 -0.0725
46072W        W46936  17.641  21.511  21.255 -0.1032 -0.0033  0.1185
46073W        W46937  20.792  20.404  19.243 -0.1543  0.0233  0.0547
46074W        W46938  24.401  21.175  20.701  0.3463 -0.1222  0.1890
46075W        W46939  19.445  20.534  17.223 -0.2130  0.2819  0.1391
46076W        W46940  17.290  20.778  21.744 -0.1158 -0.1571  0.1689
46077W        W46941  19.463  20.437  19.476 -0.0522 -0.2649  0.0441
46078W        W46942  20.913  18.581  18.004 -0.0775  0.0592 -0.1805
46079W        W46943  19.321  22.730  22.505  0.4119  0.0414 -0.0913
46080W        W46944  19.679  20.478  20.794 -0.3042  0.0418 -0.1599
46081W        W46945  20.522  16.803  21.988  0.2245  0.1874 -0.1652
46082W        W46946  20.281  19.763  21.906  0.0022 -0.6024 -0.1789
46083W        W46947  22.677  17.590  19.630 -0.2161 -0.0239  0.0479
46084W        W46948  23.393  18.665  21.245  0.2498  0.3661  0.0071
46085W        W46949  18.271  20.285  20.679 -0.4025  0.0231  0.0885
46086W        W46950  17.233  23.806  21.272  0.1176  0.0683 -0.2419
46087W        W46951  19.624  20.251  18.200  0.0786  0.1352  0.0635
46088W        W46952  19.707  21.352  16.593 -0.0495  0.1677  0.1412
46089W        W46953  20.534  20.952  22.396 -0.1981  0.4266  0.0094
46090W        W46954  18.750  18.977  19.368 -0.0855  0.2121 -0.0562
46091W        W46955  20.375  20.735  20.739 -0.0563 -0.0384  0.0052
46092W        W46956  18.949  20.293  19.069  0.0287 -0.0005 -0.2176
46093W        W46957  20.726  20.848  18.885  0.0813  0.0673  0.2831
46094W        W46958  18.229  22.335  20.461  0.4221 -0.2960 -0.2650
46095W        W46959  17.540  19.312  18.825 -0.2806 -0.1522  0.2173
46096W        W46960  18.084  22.698  22.348  0.1441 -0.1776 -0.3083
46097W        W46961  22.223  17.720  23.931 -0.0413  0.0166  0.3752
46098W        W46962  20.041  21.237  18.449  0.0094  0.2194  0.2178
46099W        W46963  20.926  21.364  21.822  0.0682  0.2291  0.2729
46100W        W46964  19.832  22.929  22.914  0.2437  0.2568  0.1795
46101W        W46965  19.808  21.585  20.838 -0.1156  0.2220  0.0587
46102W        W46966  18.851  22.073  24.164 -0.1499  0.0007  0.1325
46103W        W46967  20.673  18.122  21.797  0.1416  0.5707 -0.2417
46104W        W46968  18.886  22.185  23.164 -0.1962 -0.2720 -0.0206
46105W        W46969  18.514  20.468  21.173 -0.5778 -0.0719 -0.2317
46106W        W46970  22.138  21.472  22.361 -0.1239 -0.0052 -0.2834
46107W        W46971  18.859  20.324  19.645 -0.0551  0.1334  0.1244
46108W        W46972  19.697  20.031  20.638 -0.3101  0.2544 -0.2352
46109W        W46973  20.826  19.751  17.797  0.1021 -0.1711  0.0651
46110W        W46974  20.672  19.501  20.211  0.0130  0.1308  0.0933
46111W        W46975  20.375  19.095  19.964  0.4225  0.2902  0.1145
46112W        W46976  22.783  19.744  21.027  0.0363  0.4145 -0.0220
46113W        W46977  20.834  20.898  21.077 -0.0055 -0.0174 -0.0189
46114W        W46978  22.829  17.243  18.079 -0.0033 -0.1469 -0.2764
46115W        W46979  19.970  23.871  17.459  0.0616  0.0972  0.3267
46116W        W46980  20.296  20.874  17.106 -0.0492  0.0439 -0.0450
46117W        W46981  18.004  18.426  19.385 -0.1838 -0.0460  0.2172
46118W        W46982  19.930  19.519  18.755  0.1151 -0.2617  0.0618
46119W        W46983  20.348  20.471  18.442 -0.0654 -0.1969 -0.0092
46120W        W46984  21.743  19.869  18.768  0.0456 -0.0453 -0.1610
46121W        W46985  19.950  20.966  20.793  0.2296 -0.0341 -0.0660
46122W        W46986  16.960  18.892  20.729  0.1416  0.0728 -0.4963
46123W        W46987  19.796  19.757  17.817  0.0290 -0.2073 -0.2886
46124W        W46988  20.116  21.577  17.579 -0.0001 -0.0053  0.2908
46125W        W46989  20.265  18.072  19.178 -0.2243  0.1489  0.4301
46126W        W46990  18.410  17.187  18.653  0.0735 -0.0690 -0.1347
46127W        W46991  17.651  18.760  19.551 -0.1685 -0.2852 -0.1500
46128W        W46992  21.180  21.914  22.783 -0.0405  0.2536  0.1458
46129W        W46993  17.571  22.011  21.791  0.0384 -0.0194  0.1263
46130W        W46994  19.137  21.401  17.467  0.3146 -0.0991 -0.2388
46131W        W46995  21.854  19.067  18.990  0.0496 -0.2505 -0.3871
46132W        W46996  18.220  20.607  20.319  0.1217  0.1028  0.3045
46133W        W46997  17.994  20.802  19.564  0.0311 -0.2197  0.0656
46134W        W46998  20.605  21.611  20.103 -0.0861 -0.1145  0.1804
46135W        W46999  18.660  21.392  20.583 -0.0107 -0.0323  0.2238
46136W        W47000  21.846  15.619  20.421  0.0886 -0.0746 -0.1185
46137W        W47001  21.511  20.656  18.463 -0.0035  0.0364  0.3021
46138W        W47002  21.669  17.553  19.359  0.1399 -0.1058  0.0494
46139W        W47003  19.599  21.067  18.117  0.1037  0.2689  0.3887
46140W        W47004  19.925  20.632  17.297  0.0512  0.0450  0.1126
46141W        W47005  22.998  22.725  21.767 -0.1480  0.1634 -0.1837
46142W        W47006  20.417  19.056  19.499 -0.1803 -0.2312  0.1763
46143W        W47007  20.031  20.900  21.559  0.0210  0.0427 -0.1219
46144W        W47008  21.428  19.518  21.509  0.0919 -0.1423 -0.1458
46145W        W47009  22.167  20.200  19.463 -0.1531 -0.2008 -0.0523
46146W        W47010  22.363  20.584  20.268 -0.2040  0.2018  0.0014
46147W        W47011  18.730  22.099  20.963  0.2331 -0.2572  0.3096
46148W        W47012  21.144  20.426  21.841 -0.3168 -0.0670 -0.0926
46149W        W47013  21.935  19.838  19.804 -0.0751  0.0972 -0.0386
46150W        W47014  22.183  18.787  18.745  0.0853 -0.0453 -0.0479
46151W        W47015  16.325  22.044  20.463 -0.1488 -0.1252 -0.1848
46152W        W47016  19.883  20.212  22.598 -0.1522  0.2180  0.2131
46153W        W47017  20.018  20.759  20.356 -0.1230  0.0129 -0.2100
46154W        W47018  19.981  19.750  20.181 -0.5459 -0.0198 -0.3416
46155W        W47019  19.423  20.734  22.232  0.1383 -0.2569 -0.3037
46156W        W47020  18.113  22.154  21.867  0.1579  0.0666 -0.2622
46157W        W47021  19.756  20.421  21.586 -0.0165  0.2580 -0.0910
46158W        W47022  20.356  16.405  20.723 -0.5995  0.2791  0.3196
46159W        W47023  21.871  19.243  21.955  0.1000  0.0144 -0.1777
46160W        W47024  19.857  19.672  23.373  0.0686  0.0433 -0.0278
46161W        W47025  21.485  17.854  19.929 -0.0526  0.0643  0.0137
46162W        W47026  21.375  17.340  22.518  0.0923 -0.0668 -0.4833
46163W        W47027  19.741  22.499  17.812 -0.1342 -0.0510 -0.1200
46164W        W47028  18.335  16.332  19.835 -0.2206  0.1212  0.3014
46165W        W47029  19.810  20.283  19.782  0.2641 -0.3706 -0.0784
46166W        W47030  20.185  15.019  18.557 -0.0739 -0.2407  0.1530
46167W        W47031  22.557  19.806  18.528  0.1189 -0.1292  0.0527
46168W        W47032  16.434  21.807  22.875  0.0780 -0.2208  0.1935
46169W        W47033  20.355  18.451  19.904 -0.1194 -0.0955  0.1350
46170W        W47034  20.681  18.052  20.060  0.0453  0.0389 -0.2014
46171W        W47035  26.228  20.140  19.441  0.3611  0.3142  0.2185
46172W        W47036  20.004  18.745  17.252  0.0891 -0.3310  0.1823
46173W        W47037  25.237  18.743  19.263 -0.0331  0.0851  0.0634
46174W        W47038  19.577  20.789  19.957 -0.1435 -0.2466  0.0781
46175W        W47039  22.681  19.075  19.676  0.0994  0.2081  0.2152
46176W        W47040  20.184  19.132  21.164  0.1186  0.0882  0.2120
46177W        W47041  19.246  20.683  19.080  0.0915 -0.1396  0.1723
46178W        W47042  21.040  20.420  21.330 -0.0705  0.0123 -0.1231
46179W        W47043  18.804  19.105  21.312 -0.0410  0.0099 -0.0720
46180W        W47044  15.237  15.633  19.710  0.0522 -0.2644  0.0340
46181W        W47045  15.260  21.090  21.530 -0.2095  0.3226  0.1885
46182W        W47046  19.478  21.239  21.494 -0.1964  0.1177  0.3422
46183W        W47047  20.398  20.176  20.842 -0.0398  0.1240  0.1106
46184W        W47048  21.331  23.617  24.976  0.1015 -0.1721  0.0489
46185W        W47049  22.357  17.216  18.251  0.2179 -0.3176 -0.0326
46186W        W47050  19.284  18.680  20.140  0.0078  0.1292 -0.0363
46187W        W47051  19.523  16.869  20.530  0.0656 -0.0245  0.2862
46188W        W47052  20.240  18.765  21.875  0.2050 -0.0879 -0.1117
46189W        W47053  19.175  20.127  20.441 -0.0578  0.3652 -0.1400
46190W        W47054  21.455  19.834  19.711  0.1167 -0.1022  0.1598
46191W        W47055  21.168  19.681  20.506 -0.5304 -0.2594 -0.0000
46192W        W47056  21.442  21.053  17.537  0.2414  0.2081 -0.0862
46193W        W47057  20.147  23.023  19.712 -0.0606 -0.2420 -0.1452
46194W        W47058  21.234  21.412  17.755 -0.2056  0.0557 -0.0802
46195W        W47059  18.965  19.920  20.018 -0.1428  0.4891  0.2240
46196W        W47060  22.075  20.575  19.796 -0.1183  0.2657  0.4011
46197W        W47061  18.134  21.002  19.970  0.0291 -0.1126 -0.0400
46198W        W47062  20.410  19.682  21.042  0.0463 -0.0717  0.2414
46199W        W47063  20.594  20.488  21.155  0.1201  0.2631  0.0254
46200W        W47064  20.084  21.782  20.140 -0.4124  0.2184  0.0237
46201W        W47065  18.689  22.832  20.719  0.1350 -0.1105 -0.0007
46202W        W47066  16.973  22.263  21.430  0.0522 -0.1189 -0.1160
46203W        W47067  18.728  21.852  21.698  0.0578 -0.1248 -0.2897
46204W        W47068  19.807  19.180  20.751 -0.2801  0.1023 -0.4101
46205W        W47069  20.815  19.734  22.631  0.1648  0.0960 -0.2093
46206W        W47070  17.135  17.897  20.718  0.4315  0.1755  0.1658
46207W        W47071  19.569  17.803  20.991 -0.2619  0.2087  0.4500
46208W        W47072  21.266  18.291  24.010  0.2033 -0.2858  0.0197
46209W        W47073  18.490  21.662  21.236 -0.1088  0.0524 -0.1838
46210W        W47074  20.281  21.229  19.233 -0.3532  0.0776  0.3477
46211W        W47075  18.681  17.328  16.843 -0.1030  0.1347  0.1092
46212W        W47076  18.734  20.768  21.630 -0.0218  0.0334 -0.2859
46213W        W47077  19.850  20.119  19.260 -0.2003  0.2757  0.1340
46214W        W47078  18.023  18.605  21.076  0.0851  0.0605 -0.1615
46215W        W47079  19.170  21.718  21.802  0.0023 -0.1007  0.1341
46216W        W47080  15.853  16.910  18.918 -0.0922  0.0209 -0.2480
46217W        W47081  19.359  17.085  19.580  0.1537  0.1464  0.0214
46218W        W47082  21.522  20.381  20.027 -0.1020 -0.2980 -0.1745
46219W        W47083  19.827  20.696  22.542  0.3343 -0.0931  0.2957
46220W        W47084  16.592  23.055  21.540  0.0276 -0.1277  0.0335
46221W        W47085  21.672  19.472  19.244 -0.2562 -0.0073  0.1350
46222W        W47086  18.307  17.202  17.711 -0.0579  0.0014  0.0346
46223W        W47087  18.964  21.800  16.600  0.1064  0.0592 -0.2009
46224W        W47088  20.895  15.083  19.736  0.0061 -0.0265  0.1297
46225W        W47089  19.860  19.927  22.107 -0.2360  0.4565  0.1986
46226W        W47090  20.603  21.242  20.700 -0.1999  0.1172  0.0668
46227W        W47091  20.215  21.295  20.015  0.1696  0.1601 -0.0429
46228W        W47092  24.062  21.596  19.346 -0.1495  0.0046  0.2642
46229W        W47093  19.488  17.368  18.648  0.0821  0.0158  0.1408
46230W        W47094  20.812  19.947  21.138 -0.1324 -0.0652 -0.2342
46231W        W47095  20.221  18.431  23.571  0.3002 -0.3188 -0.1259
46232W        W47096  16.882  21.116  20.755  0.0362  0.2801 -0.0084
46233W        W47097  19.336  19.733  22.056 -0.1486  0.0221 -0.0966
46234W        W47098  23.638  18.013  21.025 -0.1503 -0.0767 -0.2691
46235W        W47099  20.485  19.496  23.069 -0.0643 -0.0429 -0.0885
46236W        W47100  20.424  19.363  21.621 -0.0823  0.0235  0.0672
46237W        W47101  21.261  20.701  19.238 -0.2638  0.1170 -0.1860
46238W        W47102  20.259  23.014  17.911  0.0510  0.1081  0.2139
46239W        W47103  17.793  24.050  19.671  0.2750 -0.1371 -0.0638
46240W        W47104  22.937  18.958  17.815 -0.2000  0.0907 -0.1478
46241W        W47105  20.083  22.656  18.334 -0.1105 -0.1592 -0.0999
46242W        W47106  20.807  22.661  22.153  0.1344 -0.0447  0.1091
46243W        W47107  19.937  20.944  19.519  0.0867  0.3093  0.0862
46244W        W47108  21.971  22.342  16.985  0.2302 -0.1793  0.1617
46245W        W47109  18.774  17.808  19.374 -0.1303 -0.2102  0.2936
46246W        W47110  19.602  20.787  21.234  0.0298 -0.1202 -0.3126
46247W        W47111  16.211  21.688  21.964 -0.2468 -0.2035 -0.0305
46248W        W47112  16.016  21.150  20.650  0.0282 -0.3433 -0.1143
46249W        W47113  18.219  21.126  16.020 -0.0570  0.3774 -0.0394
46250W        W47114  17.923  21.905  21.417  0.0465 -0.2174  0.1659
46251W        W47115  18.854  23.120  20.095  0.2321 -0.0722 -0.2341
46252W        W47116  22.880  22.454  19.058  0.2321  0.1210 -0.2383
46253W        W47117  19.653  18.263  19.071 -0.0195 -0.0164  0.0053
46254W        W47118  20.382  18.540  19.395 -0.4229  0.0506  0.2489
46255W        W47119  19.694  21.475  19.875  0.1878 -0.2056 -0.4882
46256W        W47120  18.022  23.075  21.501  0.0165  0.2141  0.1136
46257W        W47121  22.822  18.029  18.399 -0.1192 -0.3787  0.3310
46258W        W47122  17.405  17.984  16.321  0.0633 -0.1124  0.1651
46259W        W47123  17.837  22.390  21.345  0.0079 -0.0134 -0.0816
46260W        W47124  21.444  21.868  19.393  0.4441 -0.0276 -0.1498
46261W        W47125  19.827  22.737  18.846 -0.3204  0.0979 -0.1491
46262W        W47126  18.793  19.788  18.269 -0.2659 -0.3045 -0.0879
46263W        W47127  17.565  19.565  20.151  0.4027  0.2034  0.0028
46264W        W47128  20.868  18.930  22.971 -0.0122 -0.1574  0.0421
46265W        W47129  22.525  18.063  21.840  0.0095  0.2712  0.0376
46266W        W47130  19.478  18.330  18.347  0.1669 -0.1167  0.0612
46267W        W47131  22.293  18.040  18.421  0.0872 -0.0802  0.0293
46268W        W47132  21.546  20.922  21.150  0.2682 -0.0910 -0.0532
46269W        W47133  19.255  19.653  18.084 -0.0214 -0.0596  0.1322
46270W        W47134  19.389  20.734  21.715  0.1311  0.0310 -0.5290
46271W        W47135  16.501  18.366  17.128 -0.1124 -0.0650  0.1987
46272W        W47136  22.339  18.954  20.790  0.1855  0.1326 -0.1171
46273W        W47137  21.668  19.306  20.299 -0.1715  0.2730 -0.2012
46274W        W47138  20.104  21.227  22.179 -0.0816  0.0364  0.0205
46275W        W47139  17.633  18.874  25.422 -0.0297 -0.1011  0.0762
46276W        W47140  19.109  20.166  18.535 -0.2141 -0.0082 -0.0451
46277W        W47141  17.261  22.391  20.962 -0.0746  0.1692 -0.2181
46278W        W47142  22.019  19.706  20.333  0.0638 -0.2236 -0.1467
46279W        W47143  21.155  23.216  18.991 -0.0124 -0.2353  0.1027
46280W        W47144  15.558  19.991  20.154 -0.0853  0.0123 -0.2188
46281W        W47145  19.578  19.743  21.040  0.0580  0.1027 -0.0740
46282W        W47146  21.516  20.791  23.885 -0.1508 -0.2987  0.3293
46283W        W47147  19.249  20.921  22.650  0.0016  0.1425 -0.3605
46284W        W47148  19.993  19.179  21.629 -0.0283  0.0364 -0.2534
46285W        W47149  20.652  20.234  20.311 -0.0671  0.2087 -0.1581
46286W        W47150  23.539  17.720  18.604 -0.0135  0.0543  0.3240
46287W        W47151  22.596  17.684  18.149 -0.1123 -0.3132  0.0464
46288W        W47152  21.307  22.720  15.462 -0.0725  0.3090  0.2393
46289W        W47153  19.823  21.220  22.633  0.1276 -0.1882  0.0600
46290W        W47154  15.779  21.319  25.500  0.1357  0.1504 -0.1777
46291W        W47155  19.924  18.217  19.489  0.2502  0.2786 -0.1746
46292W        W47156  19.414  19.859  21.551  0.1802  0.2053  0.0251
46293W        W47157  18.295  20.964  23.124  0.0973 -0.1536  0.0138
46294W        W47158  19.434  14.776  21.051 -0.2752 -0.0649  0.1579
46295W        W47159  22.605  19.941  16.478  0.0017 -0.1122 -0.1391
46296W        W47160  19.510  21.016  20.491  0.0756 -0.1098 -0.0441
46297W        W47161  20.364  20.014  21.398  0.2718 -0.0366  0.0858
46298W        W47162  20.880  19.687  21.563  0.2126  0.2436 -0.1706
46299W        W47163  22.273  21.607  17.437  0.0361  0.1048 -0.2132
46300W        W47164  19.756  21.423  20.349 -0.1482  0.2893  0.1129
46301W        W47165  19.321  18.862  18.604 -0.0992  0.2981  0.1259
46302W        W47166  18.788  21.747  23.527  0.0058 -0.0621  0.0274
46303W        W47167  17.169  21.631  22.525 -0.1845 -0.1804 -0.1272
46304W        W47168  18.144  19.403  21.133  0.0251  0.2454 -0.2043
46305W        W47169  18.850  21.042  20.236 -0.1575 -0.0957  0.0453
46306W        W47170  17.631  21.551  19.340 -0.0975 -0.0537  0.1329
46307W        W47171  23.476  19.225  20.081 -0.2781  0.0811  0.1045
46308W        W47172  17.985  17.485  21.788 -0.0263 -0.1504 -0.1548
46309W        W47173  19.916  24.233  20.053 -0.2284 -0.2124 -0.1978
46310W        W47174  20.001  19.578  21.356  0.0760 -0.0839 -0.0069
46311W        W47175  18.898  19.448  17.819 -0.0546 -0.1602 -0.0168
46312W        W47176  16.605  22.154  21.911 -0.0197 -0.1304  0.0501
46313W        W47177  18.747  22.403  21.638  0.1356 -0.0857  0.0865
46314W        W47178  18.798  20.029  16.247  0.2467  0.0814 -0.1252
46315W        W47179  19.178  19.814  19.129  0.0539  0.2219 -0.1777
46316W        W47180  18.712  20.930  18.127  0.2813 -0.0027  0.2136
46317W        W47181  22.408  19.440  20.486  0.1104  0.1390 -0.1417
46318W        W47182  17.636  21.649  22.848  0.1630  0.0583  0.0492
46319W        W47183  21.184  22.728  20.418  0.1044  0.0680 -0.0935
46320W        W47184  21.518  19.139  21.200 -0.0777 -0.2188 -0.1169
46321W        W47185  18.078  21.274  19.317  0.1083  0.2066  0.4447
46322W        W47186  17.242  24.139  19.847  0.2396  0.0208 -0.1407
46323W        W47187  19.006  21.601  20.958 -0.0848  0.0556  0.3337
46324W        W47188  21.126  21.594  19.946  0.1642  0.1397 -0.1113
46325W        W47189  19.082  22.242  19.837  0.0225 -0.0398  0.1550
46326W        W47190  22.199  21.813  19.620 -0.0322 -0.0468  0.3741
46327W        W47191  22.674  16.216  18.232  0.2943  0.0992 -0.0903
46328W        W47192  20.299  20.485  22.539  0.1095  0.0945  0.0472
46329W        W47193  19.212  21.095  18.782 -0.1811 -0.2107 -0.2096
46330W        W47194  19.545  18.207  20.282  0.1714  0.1846 -0.0817
46331W        W47195  20.359  19.933  18.642  0.1519  0.0526  0.0725
46332W        W47196  19.751  18.640  21.958  0.0234  0.1626  0.0478
46333W        W47197  21.734  21.194  19.953  0.0964  0.0236 -0.3544
46334W        W47198  19.439  20.034  24.148  0.2343 -0.1908  0.0763
46335W        W47199  15.851  22.261  19.564 -0.1214  0.1129 -0.0587
46336W        W47200  20.545  22.328  21.444  0.1068 -0.1487 -0.0913
46337W        W47201  18.064  21.397  16.921  0.0570  0.0335 -0.0574
46338W        W47202  22.808  20.275  20.282  0.1469 -0.0240 -0.1405
46339W        W47203  20.631  19.281  21.130  0.2707 -0.1461 -0.1848
46340W        W47204  19.658  19.061  18.885  0.2866  0.3939 -0.2779
46341W        W47205  16.981  18.398  16.936 -0.0637  0.0399  0.0583
46342W        W47206  18.269  21.676  21.786  0.1561 -0.1715  0.0615
46343W        W47207  18.512  19.260  20.456  0.1339 -0.2048 -0.1858
46344W        W47208  19.430  22.421  18.687  0.0451  0.1903 -0.0621
46345W        W47209  19.593  21.389  18.528 -0.1811 -0.2292  0.4174
46346W        W47210  20.751  18.466  20.291  0.0101 -0.2320 -0.3593
46347W        W47211  16.092  19.058  20.731  0.1058  0.0562 -0.0528
46348W        W47212  17.366  21.010  19.472  0.1276  0.1016 -0.1917
46349W        W47213  20.695  16.627  19.958  0.1676 -0.0683 -0.0365
46350W        W47214  16.753  21.424  22.637  0.1308  0.3595 -0.1236
46351W        W47215  17.469  21.064  23.475  0.1734 -0.0804 -0.0870
46352W        W47216  18.466  18.556  18.139  0.4159 -0.1307  0.0346
46353W        W47217  17.648  19.853  19.092  0.0858  0.2139  0.1499
46354W        W47218  20.374  23.502  19.600  0.1066  0.2304  0.1283
46355W        W47219  20.430  20.948  18.354 -0.0897 -0.0594 -0.0238
46356W        W47220  21.378  14.864  20.757  0.1490  0.1723  0.2669
46357W        W47221  20.718  22.138  17.647 -0.0843  0.0699  0.0199
46358W        W47222  16.624  21.246  21.674  0.2916 -0.1277 -0.1992
46359W        W47223  20.612  16.002  19.877  0.2958 -0.1233 -0.2228
46360W        W47224  24.667  19.209  19.524 -0.1537  0.1803 -0.0670
46361W        W47225  20.277  20.227  22.085 -0.0758  0.1028  0.3413
46362W        W47226  22.532  15.515  16.804 -0.0506 -0.1049  0.1562
46363W        W47227  18.934  16.371  20.524  0.0770 -0.2112  0.1957
46364W        W47228  19.723  21.095  21.928  0.1567  0.0313  0.0002
46365W        W47229  19.566  19.315  21.363  0.0399  0.0494  0.1952
46366W        W47230  20.764  21.928  15.231 -0.0983 -0.1046  0.0686
46367W        W47231  20.984  20.561  20.114 -0.3752  0.1034 -0.1002
46368W        W47232  21.364  21.736  21.194 -0.3970 -0.2025  0.0417
46369W        W47233  21.965  20.479  18.456 -0.1226  0.0974  0.1025
46370W        W47234  18.385  21.047  20.401 -0.0983 -0.2643 -0.2206
46371W        W47235  17.726  21.520  21.751  0.2623 -0.0445 -0.1274
46372W        W47236  19.476  19.486  22.963 -0.1086 -0.4456 -0.0978
46373W        W47237  18.729  20.019  21.317  0.2263 -0.2128 -0.0227
46374W        W47238  20.861  18.815  19.361  0.1771 -0.1450  0.2236
46375W        W47239  21.110  20.294  19.658  0.0196 -0.0683  0.1097
46376W        W47240  19.989  20.025  21.074 -0.0984 -0.0748 -0.1713
46377W        W47241  21.909  17.239  24.733  0.4749  0.0418  0.0624
46378W        W47242  17.408  17.776  19.005 -0.0468 -0.0779  0.3387
46379W        W47243  21.475  15.800  20.722 -0.1919 -0.1188 -0.3366
46380W        W47244  18.248  21.313  20.836 -0.2381 -0.0983  0.1825
46381W        W47245  19.156  18.106  19.293  0.1369  0.1060 -0.2402
46382W        W47246  18.077  20.544  22.317  0.0178  0.0533  0.0095
46383W        W47247  22.739  20.273  20.888  0.0813 -0.5523 -0.0015
46384W        W47248  19.479  21.798  18.247  0.0371 -0.1300 -0.0215
46385W        W47249  17.037  20.926  23.801  0.2464  0.2347  0.3098
46386W        W47250  18.996  20.749  23.914 -0.0140 -0.0376 -0.0920
46387W        W47251  19.268  19.320  19.232  0.2257 -0.2228 -0.0483
46388W        W47252  22.130  19.194  17.279  0.1212 -0.0173  0.0630
46389W        W47253  21.336  22.220  20.630 -0.1446  0.3678 -0.0804
46390W        W47254  19.061  21.855  22.307  0.2112 -0.1465 -0.0461
46391W        W47255  19.227  21.758  19.606 -0.2107  0.0707  0.0992
46392W        W47256  24.703  19.743  14.580 -0.0150 -0.2169 -0.1923
46393W        W47257  18.237  22.224  22.419 -0.1714  0.0933  0.1713
46394W        W47258  21.311  18.228  18.127 -0.1528  0.2649  0.2532
46395W        W47259  21.183  21.134  18.706  0.0618  0.1421  0.0757
46396W        W47260  19.860  21.949  17.828 -0.1310 -0.2091 -0.4469
46397W        W47261  20.512  18.776  20.891 -0.1595 -0.3114 -0.1125
46398W        W47262  18.056  19.770  15.460  0.0483 -0.1325 -0.1783
46399W        W47263  19.298  22.191  17.776 -0.0842  0.0276  0.1066
46400W        W47264  18.111  22.036  19.978 -0.0458  0.0604 -0.0155
46401W        W47265  16.933  21.011  23.290  0.1367  0.0604  0.0664
46402W        W47266  22.733  19.522  18.921  0.2447  0.0874  0.4748
46403W        W47267  19.829  18.188  25.334  0.0934  0.3104 -0.0054
46404W        W47268  20.141  24.589  21.317 -0.0706 -0.0656  0.0702
46405W        W47269  22.794  19.472  20.047  0.1891 -0.3394  0.0526
46406W        W47270  19.081  23.156  22.706 -0.0770 -0.0715  0.0063
46407W        W47271  21.528  21.967  20.244  0.1076 -0.1605 -0.1338
46408W        W47272  20.044  19.722  20.661 -0.1272 -0.1755  0.0249
46409W        W47273  19.128  19.389  21.682 -0.0691  0.0584 -0.0227
46410W        W47274  18.822  16.861  18.633 -0.1272  0.1902  0.1787
46411W        W47275  18.221  20.851  21.384  0.2128 -0.0519 -0.0245
46412W        W47276  17.642  21.498  22.284  0.2232  0.0210 -0.1011
46413W        W47277  19.469  15.840  21.585  0.4876 -0.0966 -0.2612
46414W        W47278  18.384  19.303  19.515  0.0867 -0.2470  0.2254
46415W        W47279  20.240  17.385  19.816  0.3612  0.1760  0.1606
46416W        W47280  17.775  21.575  18.870 -0.0778  0.3383 -0.1697
46417W        W47281  18.897  19.365  16.558  0.1256  0.0575 -0.0047
46418W        W47282  19.845  18.491  20.009 -0.0339 -0.0241 -0.2902
46419W        W47283  21.046  19.925  20.013 -0.0078  0.2645 -0.0042
46420W        W47284  18.651  17.939  15.145  0.0370 -0.0827  0.0714
46421W        W47285  20.924  18.915  22.065 -0.0415 -0.0911  0.2251
46422W        W47286  21.171  18.651  18.394 -0.1965 -0.0738  0.0934
46423W        W47287  23.344  20.144  20.275  0.3787  0.0915 -0.1975
46424W        W47288  19.347  20.207  22.375 -0.2026  0.0846 -0.1742
46425W        W47289  21.067  24.609  19.442  0.1868 -0.0570  0.1115
46426W        W47290  21.602  17.342  17.560 -0.0557  0.2320  0.0591
46427W        W47291  16.875  21.604  17.520 -0.3204 -0.2898  0.1462
46428W        W47292  19.128  19.959  21.081 -0.2210  0.0594 -0.5320
46429W        W47293  18.252  19.925  19.772  0.0223 -0.2338 -0.0928
46430W        W47294  15.536  18.797  16.429 -0.1283 -0.1042 -0.0297
46431W        W47295  18.990  18.194  18.448 -0.2055 -0.4394  0.0257
46432W        W47296  21.024  19.395  23.001  0.2713  0.0997  0.0040
46433W        W47297  19.776  20.427  22.127 -0.0887  0.0768  0.1976
46434W        W47298  19.875  18.149  20.788 -0.2595  0.2052 -0.3151
46435W        W47299  19.829  21.469  18.017 -0.2406  0.6342  0.0398
46436W        W47300  19.619  22.617  21.035  0.1035 -0.1739  0.2484
46437W        W47301  21.161  21.288  21.377 -0.1744  0.1283 -0.1039
46438W        W47302  22.082  20.622  21.940  0.0269 -0.2611 -0.0134
46439W        W47303  20.818  19.879  19.494  0.1058 -0.0454  0.1200
46440W        W47304  21.988  17.797  19.868 -0.0450  0.0479  0.0845
46441W        W47305  18.338  19.964  17.811  0.2490  0.2038 -0.2240
46442W        W47306  22.276  20.397  20.733  0.3338 -0.2551 -0.3540
46443W        W47307  22.891  18.958  18.309  0.1300  0.0392 -0.3152
46444W        W47308  21.457  22.020  22.101 -0.0103 -0.0589 -0.1338
46445W        W47309  20.476  21.553  16.217 -0.3019 -0.0590 -0.0990
46446W        W47310  18.554  17.479  24.967 -0.0302 -0.0918 -0.2347
46447W        W47311  18.178  21.798  23.494 -0.0696 -0.0153 -0.0403
46448W        W47312  20.428  24.399  18.974  0.1743 -0.0005  0.1546
46449W        W47313  23.065  17.798  21.610  0.0011  0.1324 -0.2809
46450W        W47314  19.375  18.303  20.989 -0.2173  0.1318 -0.0202
46451W        W47315  21.803  19.715  21.755 -0.0240  0.0221 -0.0821
46452W        W47316  18.710  17.360  20.802 -0.1313 -0.1723  0.2154
46453W        W47317  15.627  22.499  22.343  0.0560  0.0491  0.0036
46454W        W47318  21.144  22.770  19.871  0.1566 -0.3889 -0.0658
46455W        W47319  20.354  22.538  18.952 -0.3282  0.3867  0.1734
46456W        W47320  20.076  19.241  23.253  0.1018 -0.0773 -0.1048
46457W        W47321  22.009  22.761  21.130 -0.1305 -0.1057  0.0888
46458W        W47322  20.203  20.949  18.843  0.0647 -0.2686  0.0422
46459W        W47323  19.199  18.518  20.595 -0.2360 -0.0056 -0.0182
46460W        W47324  21.514  21.396  20.338  0.1640 -0.0922  0.0920
46461W        W47325  19.459  21.618  22.575 -0.0787  0.0077  0.0719
46462W        W47326  19.029  20.781  19.806  0.2343  0.1040  0.1525
46463W        W47327  23.202  18.053  20.443  0.5825  0.1320 -0.0044
46464W        W47328  20.375  21.446  18.108 -0.0898 -0.0360 -0.0160
46465W        W47329  20.430  24.389  20.933  0.0819  0.3752 -0.1643
46466W        W47330  18.084  19.571  20.152  0.3311 -0.3525  0.1949
46467W        W47331  20.914  20.935  18.291  0.1588  0.1896 -0.0901
46468W        W47332  19.792  21.770  23.029  0.1187 -0.3098  0.0813
46469W        W47333  15.569  23.549  21.147 -0.2341 -0.0674 -0.0985
46470W        W47334  17.837  22.421  17.863 -0.1197  0.2871 -0.4169
46471W        W47335  18.886  23.307  23.170 -0.1064 -0.0610  0.0536
46472W        W47336  21.292  21.031  26.073 -0.0669  0.1472 -0.0501
46473W        W47337  22.279  20.180  23.676 -0.0796  0.1332  0.2297
46474W        W47338  23.435  21.237  24.608 -0.1039 -0.2322  0.2103
46475W        W47339  18.028  21.099  21.798 -0.0032  0.1432 -0.3105
46476W        W47340  19.296  19.859  23.212 -0.1483  0.0420 -0.0763
46477W        W47341  16.933  18.944  23.726  0.0085  0.1043 -0.1924
46478W        W47342  18.390  20.139  22.127 -0.0091  0.1812 -0.0964
46479W        W47343  19.890  20.649  26.420  0.2401 -0.1202  0.0491
46480W        W47344  19.732  19.739  24.348  0.0998  0.0936 -0.2446
46481W        W47345  19.681  17.340  23.192 -0.0375 -0.4461 -0.0352
46482W        W47346  22.400  20.257  23.189 -0.0087  0.0606 -0.1004
46483W        W47347  17.603  20.342  23.275  0.2460  0.0113 -0.1169
46484W        W47348  20.560  16.342  22.739  0.0056  0.3542 -0.1596
46485W        W47349  18.532  18.297  24.279 -0.1404  0.1362  0.0091
46486W        W47350  17.983  23.336  23.594 -0.1242 -0.2372 -0.5469
46487W        W47351  16.711  20.644  24.081 -0.0558  0.4356  0.0130
46488W        W47352  19.261  19.142  25.908 -0.0391  0.0100  0.0491
46489W        W47353  20.221  22.043  27.589 -0.0733 -0.1083  0.0823
46490W        W47354  19.690  16.780  25.060  0.1874  0.0101 -0.0911
46491W        W47355  18.916  19.476  22.975 -0.0524 -0.3535 -0.0393
46492W        W47356  18.745  18.856  25.593  0.0681  0.0147 -0.2471
46493W        W47357  21.458  20.449  25.364 -0.0407  0.0060  0.0363
46494W        W47358  20.845  19.534  23.432 -0.2659  0.0131 -0.3586
46495W        W47359  17.960  22.853  24.186  0.0608  0.1437  0.2861
46496W        W47360  18.780  20.064  25.150  0.1657 -0.2161  0.2369
46497W        W47361  21.347  17.742  23.950  0.1255  0.1157  0.0446
46498W        W47362  16.406  21.271  22.141  0.0237  0.2591 -0.3830
46499W        W47363  19.904  19.559  25.243  0.3209  0.0447 -0.0418
46500W        W47364  22.319  19.906  24.078  0.3568  0.1406  0.0356
46501W        W47365  20.676  20.532  22.049  0.0576  0.3922  0.2429
46502W        W47366  20.752  20.097  25.128 -0.1282 -0.2581  0.3682
46503W        W47367  20.275  22.240  28.105  0.0484  0.1132  0.4679
46504W        W47368  18.531  19.928  23.898 -0.1967 -0.3461  0.2042
46505W        W47369  19.752  19.616  27.395 -0.1371  0.0310  0.2950
46506W        W47370  22.255  21.391  25.818  0.0367 -0.2536 -0.1460
46507W        W47371  18.857  19.844  23.438 -0.0665 -0.1913  0.1441
46508W        W47372  20.752  20.677  24.097 -0.0697 -0.1423 -0.1203
46509W        W47373  22.164  20.672  26.066 -0.0862 -0.0912  0.1738
46510W        W47374  22.251  18.183  24.082  0.2192 -0.2566 -0.0796
46511W        W47375  22.289  19.992  22.613  0.4231 -0.1128  0.2145
46512W        W47376  23.452  20.352  25.639  0.1974 -0.0004 -0.0765
46513W        W47377  19.284  21.782  25.482  0.2521 -0.1861  0.0272
46514W        W47378  23.054  24.551  23.395  0.2445  0.1640 -0.0324
46515W        W47379  19.046  23.928  22.309  0.1284 -0.1816 -0.0919
46516W        W47380  20.633  22.030  25.958 -0.1209  0.0821 -0.0972
46517W        W47381  18.255  17.846  24.941  0.2572  0.0965 -0.3190
46518W        W47382  22.024  19.107  23.864 -0.2540  0.1318 -0.1934
46519W        W47383  21.533  19.941  23.062  0.1219  0.1811 -0.0520
46520W        W47384  20.003  19.471  22.209  0.3247 -0.1248  0.1000
46521W        W47385  21.429  19.663  24.685  0.1456 -0.0448 -0.2375
46522W        W47386  18.696  18.715  24.521  0.0158 -0.0870 -0.0783
46523W        W47387  22.020  21.823  25.656 -0.0212 -0.0925 -0.2482
46524W        W47388  22.649  20.935  24.687  0.0059 -0.0168  0.1448
46525W        W47389  20.105  21.251  23.609 -0.2640  0.1082 -0.2335
46526W        W47390  19.122  22.701  23.713 -0.0565  0.1823 -0.0159
46527W        W47391  17.808  19.160  22.061 -0.1405  0.0243 -0.1310
46528W        W47392  19.807  19.939  22.961 -0.1471 -0.0443 -0.0794
46529W        W47393  18.574  21.352  25.369  0.1986 -0.1279  0.1437
46530W        W47394  21.647  19.260  22.401 -0.0093 -0.0266  0.5824
46531W        W47395  21.129  18.210  21.004 -0.1717  0.2293 -0.0787
46532W        W47396  21.124  22.537  24.333 -0.2481  0.4258  0.0953
46533W        W47397  19.879  19.127  25.460  0.0283 -0.4904 -0.4740
46534W        W47398  18.042  21.526  23.097  0.4170 -0.3467 -0.2560
46535W        W47399  20.843  18.881  25.542 -0.1931 -0.2271  0.0723
46536W        W47400  24.258  17.154  25.326  0.1409 -0.1375  0.2941
46537W        W47401  16.614  21.565  20.688  0.0343 -0.0311 -0.2401
46538W        W47402  18.032  21.846  22.280  0.0143 -0.0903 -0.2212
46539W        W47403  19.359  22.040  22.875 -0.0529  0.0793  0.1287
46540W        W47404  19.495  20.294  24.618  0.0104 -0.1526 -0.0099
46541W        W47405  22.502  19.950  29.050 -0.1116 -0.0924 -0.0858
46542W        W47406  19.948  17.518  22.780 -0.0098 -0.1489  0.2524
46543W        W47407  22.755  22.196  22.593  0.0999  0.1709  0.0937
46544W        W47408  22.524  21.679  23.726 -0.1454 -0.0096  0.1804
46545W        W47409  22.820  20.391  23.609  0.1564  0.1135 -0.1719
46546W        W47410  21.258  21.566  25.017 -0.0824 -0.1337 -0.2032
46547W        W47411  18.897  21.200  23.659  0.0256 -0.2270  0.1718
46548W        W47412  19.844  19.523  26.353  0.2364 -0.0837 -0.1743
46549W        W47413  18.982  20.559  22.495 -0.0813  0.1753  0.1094
46550W        W47414  20.009  19.918  23.889  0.1440 -0.1127 -0.1407
46551W        W47415  17.195  17.877  24.383  0.1232 -0.1006  0.1378
46552W        W47416  19.061  21.180  27.492  0.0268  0.1495 -0.2275
46553W        W47417  16.735  19.431  24.141  0.0878 -0.0319  0.0423
46554W        W47418  20.356  20.857  23.917  0.1834 -0.0980  0.2299
46555W        W47419  21.283  19.201  25.627  0.1825 -0.0026 -0.1326
46556W        W47420  20.251  17.764  23.091 -0.2651  0.0160  0.0894
46557W        W47421  23.573  19.323  26.264  0.1326 -0.1133 -0.2852
46558W        W47422  23.233  18.427  24.710 -0.0689  0.1469  0.0163
46559W        W47423  23.482  22.472  26.018  0.0550 -0.0831  0.3359
46560W        W47424  19.345  17.152  24.093  0.1004 -0.1622  0.1719
46561W        W47425  18.521  21.220  21.656 -0.0165  0.0904 -0.1289
46562W        W47426  22.136  18.393  26.716  0.1529  0.1348 -0.0668
46563W        W47427  16.444  21.770  24.799  0.0844  0.3290 -0.0186
46564W        W47428  17.580  20.773  23.878 -0.1455  0.0423  0.0749
46565W        W47429  16.160  19.918  25.540  0.1116  0.3453 -0.0768
46566W        W47430  22.837  18.620  21.053 -0.1146  0.0236  0.0394
46567W        W47431  22.091  19.886  23.063 -0.1012  0.1332  0.0034
46568W        W47432  22.676  23.506  25.255 -0.4496 -0.2048 -0.3393
46569W        W47433  16.988  18.482  23.597 -0.0703  0.2158  0.2444
46570W        W47434  20.615  17.970  22.270 -0.1993  0.1802 -0.2984
46571W        W47435  23.967  20.349  18.641  0.1468  0.0548  0.0576
46572W        W47436  20.075  19.079  25.010  0.1420 -0.0038 -0.0754
46573W        W47437  20.590  19.105  23.343  0.3185 -0.6160 -0.2513
46574W        W47438  21.256  20.588  24.483  0.2834 -0.0393  0.0964
46575W        W47439  22.101  17.734  25.449 -0.0823  0.1069 -0.1881
46576W        W47440  22.410  22.629  25.124  0.0551 -0.1543  0.5503
46577W        W47441  18.730  19.627  24.664  0.1282  0.1799  0.2764
46578W        W47442  23.040  22.149  25.978  0.1040 -0.0915 -0.0194
46579W        W47443  22.464  18.604  20.461  0.1368  0.1738 -0.2051
46580W        W47444  19.900  22.071  23.947  0.0945  0.3312  0.1763
46581W        W47445  17.092  19.637  23.854 -0.4496 -0.1244  0.2431
46582W        W47446  21.177  23.061  24.175  0.0705 -0.0198  0.1762
46583W        W47447  21.494  19.427  22.845 -0.2097  0.1048  0.1406
46584W        W47448  22.687  23.188  25.712 -0.0473 -0.1670 -0.1580
46585W        W47449  23.242  19.478  20.907  0.2028  0.3938  0.0918
46586W        W47450  20.503  21.436  22.137 -0.2209 -0.1658  0.2192
46587W        W47451  24.843  17.520  24.846  0.0950 -0.0472 -0.2546
46588W        W47452  20.200  20.968  27.771  0.0017 -0.2515 -0.0570
46589W        W47453  21.215  18.573  25.819  0.0531  0.2551 -0.0863
46590W        W47454  18.527  19.530  24.178  0.1191  0.3397  0.1825
46591W        W47455  18.509  18.109  23.624  0.2972 -0.0491  0.0215
46592W        W47456  21.529  21.558  22.305  0.1536 -0.2223  0.1477
46593W        W47457  23.212  21.679  24.842 -0.0186 -0.1815  0.1711
46594W        W47458  20.360  18.404  22.235 -0.0186  0.0985  0.1489
46595W        W47459  18.350  19.635  23.532  0.0178 -0.0108 -0.2961
46596W        W47460  23.267  20.131  23.458 -0.0243 -0.3367  0.1984
46597W        W47461  18.524  18.763  22.473 -0.3218  0.0722  0.0031
46598W        W47462  22.053  21.423  25.323 -0.1280 -0.0304 -0.2042
46599W        W47463  22.728  23.016  25.059  0.2928 -0.0061 -0.0084
46600W        W47464  19.308  20.170  25.109  0.2003  0.0394  0.0437
46601W        W47465  20.061  22.346  25.220  0.0358 -0.0074  0.0143
46602W        W47466  21.892  18.571  25.780 -0.2543 -0.0674 -0.3775
46603W        W47467  21.097  21.823  26.092  0.2341 -0.0115 -0.4582
46604W        W47468  19.953  17.783  21.335 -0.0961 -0.2405  0.1746
46605W        W47469  24.864  19.330  26.119  0.0570  0.0266 -0.2564
46606W        W47470  13.456  19.092  25.197  0.2783  0.0043  0.0559
46607W        W47471  22.593  18.082  22.828 -0.0334 -0.0429  0.1368
46608W        W47472  24.171  20.419  27.701 -0.0546 -0.0831  0.0169
46609W        W47473  18.722  20.264  21.764  0.1684  0.2799  0.0019
46610W        W47474  18.401  21.430  23.862 -0.2077  0.1233  0.1269
46611W        W47475  17.320  19.297  21.874 -0.1319 -0.2428  0.0435
46612W        W47476  21.602  17.810  26.220  0.0991 -0.1420 -0.0089
46613W        W47477  18.908  22.461  22.351  0.3416 -0.0333 -0.0178
46614W        W47478  19.197  19.593  20.693 -0.1007 -0.0539 -0.2244
46615W        W47479  16.661  19.808  26.077  0.0296  0.1336 -0.0470
46616W        W47480  21.815  18.508  23.998  0.1346  0.2007 -0.2604
46617W        W47481  21.106  19.199  22.550  0.0629  0.1245 -0.2217
46618W        W47482  20.685  23.417  21.653 -0.0038 -0.1623 -0.1232
46619W        W47483  20.525  22.273  24.972  0.0003  0.1157 -0.0645
46620W        W47484  21.546  19.634  25.767 -0.2521 -0.3554 -0.2728
46621W        W47485  20.285  19.715  26.213  0.3941 -0.3710  0.0884
46622W        W47486  17.858  19.556  26.067 -0.0162 -0.0910 -0.0139
46623W        W47487  19.057  20.019  25.582 -0.1394  0.0258  0.1149
46624W        W47488  18.777  20.384  20.191  0.1248  0.0577 -0.1901
46625W        W47489  19.063  17.751  24.373  0.1266  0.1711 -0.1939
46626W        W47490  21.327  18.223  24.939 -0.1818  0.0357  0.0055
46627W        W47491  19.470  20.461  22.804  0.1267  0.0110 -0.0699
46628W        W47492  14.403  19.748  24.262 -0.2742  0.0104 -0.1744
46629W        W47493  19.434  18.093  21.872  0.1434 -0.1127 -0.1237
46630W        W47494  22.413  20.644  23.744 -0.2025 -0.0104 -0.1089
46631W        W47495  21.160  18.069  21.975 -0.1054  0.1720 -0.4909
46632W        W47496  18.858  21.470  22.081 -0.0884 -0.0774  0.0432
46633W        W47497  20.847  19.223  28.479  0.1719 -0.0729  0.0934
46634W        W47498  22.134  21.984  23.373 -0.0431 -0.0017  0.0291
46635W        W47499  20.577  19.032  25.048  0.2609 -0.0834  0.2856
46636W        W47500  20.167  20.752  22.116 -0.1137 -0.1663  0.1077
46637W        W47501  18.652  19.153  21.838 -0.0081  0.1616  0.0017
46638W        W47502  15.158  19.772  22.064 -0.0361  0.1430  0.0862
46639W        W47503  20.645  20.734  25.262  0.0891 -0.0166 -0.1800
46640W        W47504  19.082  18.232  24.286 -0.0795  0.0565  0.2537
46641W        W47505  21.349  17.207  23.663 -0.5481  0.3073 -0.4475
46642W        W47506  17.728  19.213  23.016  0.3647  0.1941 -0.2187
46643W        W47507  21.642  20.208  24.643  0.0906  0.0523 -0.1747
46644W        W47508  17.972  20.589  22.936  0.1515  0.1918 -0.1116
46645W        W47509  19.979  19.497  22.832  0.2404 -0.2282 -0.0602
46646W        W47510  22.385  18.406  23.150  0.1418 -0.4119  0.1415
46647W        W47511  19.646  22.187  25.589  0.0419  0.0574 -0.0022
46648W        W47512  14.983  20.316  25.482 -0.1515 -0.2509  0.1583
46649W        W47513  18.670  20.843  22.818  0.0066  0.1817 -0.0425
46650W        W47514  21.092  19.817  23.863 -0.2139  0.0596 -0.0288
46651W        W47515  20.952  23.640  24.561 -0.1055 -0.3245  0.0964
46652W        W47516  22.637  22.428  23.079 -0.2441 -0.0674  0.1711
46653W        W47517  18.943  20.068  22.237  0.1035 -0.1475  0.4261
46654W        W47518  17.101  20.342  20.205  0.0931  0.0224 -0.2952
46655W        W47519  19.721  19.045  22.778  0.0308  0.0785 -0.0246
46656W        W47520  23.296  21.228  26.684  0.0029  0.2784 -0.1577
46657W        W47521  21.586  18.221  25.807 -0.0318 -0.4602  0.0264
46658W        W47522  18.972  18.597  21.037 -0.1489  0.0860  0.1161
46659W        W47523  16.927  19.516  24.604 -0.0923  0.0987  0.0614
46660W        W47524  18.074  19.297  24.310  0.1145  0.1331 -0.0107
46661W        W47525  19.336  21.096  23.971  0.1321 -0.0001 -0.0102
46662W        W47526  20.478  21.012  21.839  0.0762  0.1933  0.0184
46663W        W47527  20.398  21.571  25.841 -0.1470 -0.0785  0.1867
46664W        W47528  18.671  18.791  26.309  0.1430 -0.1340 -0.1999
46665W        W47529  20.797  20.130  24.183  0.2335 -0.2092 -0.1675
46666W        W47530  16.434  21.251  24.598  0.3098  0.0763 -0.2481
46667W        W47531  19.139  17.954  23.897 -0.0262  0.0803 -0.0186
46668W        W47532  19.208  18.054  26.110 -0.1347  0.0465  0.2144
46669W        W47533  17.497  20.791  23.011 -0.1887 -0.3109 -0.2666
46670W        W47534  18.912  16.526  22.333  0.1030 -0.1380  0.2449
46671W        W47535  18.351  18.911  21.442 -0.0862  0.1472  0.1863
46672W        W47536  24.552  20.799  27.506 -0.0734 -0.1547  0.0438
46673W        W47537  21.888  18.496  23.206  0.0356  0.0729  0.0481
46674W        W47538  17.801  17.685  25.198 -0.0636 -0.1585 -0.0641
46675W        W47539  23.607  21.065  25.184  0.0571  0.0831 -0.3166
46676W        W47540  17.895  17.987  22.070  0.0879  0.0528 -0.2264
46677W        W47541  19.479  17.789  24.895  0.2697  0.1332 -0.0828
46678W        W47542  22.026  21.072  24.652 -0.3265 -0.0718  0.2210
46679W        W47543  19.811  22.206  23.351 -0.2186  0.0803  0.1336
46680W        W47544  16.804  20.500  24.942  0.3481 -0.3280  0.0909
46681W        W47545  20.322  22.288  24.025  0.0922 -0.2362 -0.0725
46682W        W47546  19.264  19.518  24.551 -0.1736 -0.3007  0.1320
46683W        W47547  18.893  17.778  26.405  0.2767 -0.0077 -0.3315
46684W        W47548  21.865  16.210  23.746  0.1495  0.1747 -0.2235
46685W        W47549  22.615  20.043  26.839  0.0388 -0.1014 -0.2465
46686W        W47550  23.580  18.563  21.850 -0.1811 -0.1232  0.1821
46687W        W47551  18.413  19.779  21.812  0.2831  0.0971 -0.1579
46688W        W47552  20.493  22.743  21.743 -0.1297 -0.1126 -0.4165
46689W        W47553  18.048  20.624  25.085 -0.0509  0.1455  0.1542
46690W        W47554  18.755  21.508  26.461  0.1665  0.1336  0.0880
46691W        W47555  22.324  16.782  26.541 -0.0815  0.2444  0.1049
46692W        W47556  22.470  17.577  23.511  0.2854 -0.1756 -0.2159
46693W        W47557  20.510  24.430  28.894  0.3761 -0.3175  0.2662
46694W        W47558  20.640  19.275  22.588  0.0876  0.3595  0.3660
46695W        W47559  21.571  18.796  26.109  0.2811  0.2778  0.0256
46696W        W47560  19.606  21.474  24.779 -0.1245  0.1716 -0.1959
46697W        W47561  19.427  21.955  24.073 -0.0391 -0.1124  0.2765
46698W        W47562  21.581  16.026  25.258  0.2635  0.3205 -0.1464
46699W        W47563  20.752  21.716  23.474  0.2294 -0.0809  0.0877
46700W        W47564  20.999  18.525  24.730  0.3437  0.1352 -0.1437
46701W        W47565  17.456  19.171  26.035  0.0306  0.5734  0.1023
46702W        W47566  21.425  22.039  26.953  0.0928 -0.0429 -0.1070
46703W        W47567  20.831  18.440  22.171 -0.1545  0.1216  0.1257
46704W        W47568  21.283  20.677  23.476 -0.4787 -0.3887 -0.0379
46705W        W47569  19.986  21.848  25.473  0.1591  0.0897 -0.2432
46706W        W47570  19.348  21.342  22.218 -0.1268  0.0109 -0.0063
46707W        W47571  20.665  21.358  23.787  0.1717  0.1594 -0.0359
46708W        W47572  19.527  17.117  26.133 -0.0950  0.0183  0.1431
46709W        W47573  23.040  22.197  24.323  0.0275 -0.0727 -0.1476
46710W        W47574  23.377  19.854  24.685 -0.0939  0.0350 -0.2882
46711W        W47575  20.553  23.138  22.196 -0.0505 -0.0754 -0.0193
46712W        W47576  16.080  21.454  26.420  0.2828  0.1818 -0.1709
46713W        W47577  19.101  19.614  22.499 -0.1376  0.0345  0.1237
46714W        W47578  19.149  19.403  23.487 -0.3737 -0.0094 -0.1259
46715W        W47579  23.547  22.434  23.923 -0.0801  0.0386  0.0272
46716W        W47580  18.754  20.790  23.383 -0.0405 -0.1482 -0.1879
46717W        W47581  24.172  20.993  25.780  0.0937  0.0539  0.2485
46718W        W47582  19.523  19.864  25.448  0.0836  0.1455 -0.0509
46719W        W47583  23.656  21.133  22.686  0.0932 -0.0450  0.0083
46720W        W47584  16.511  18.592  23.770 -0.0743 -0.1258 -0.0809
46721W        W47585  17.337  19.051  20.475 -0.1480  0.0147  0.1786
46722W        W47586  18.437  22.130  24.398 -0.1039  0.1064 -0.0923
46723W        W47587  22.918  21.512  25.990 -0.2199  0.1499  0.0987
46724W        W47588  19.583  20.558  25.154  0.1093 -0.0884  0.0918
46725W        W47589  16.696  19.842  20.414 -0.0893  0.1470 -0.0261
46726W        W47590  21.380  19.113  23.297 -0.1658  0.0588  0.1575
46727W        W47591  20.272  18.162  21.190 -0.1209 -0.0451  0.1776
46728W        W47592  19.017  20.531  26.437 -0.1959 -0.0363  0.0032
46729W        W47593  20.578  19.322  23.786 -0.0073 -0.3355  0.2455
46730W        W47594  22.262  20.271  24.467  0.1989 -0.1354 -0.1425
46731W        W47595  19.399  19.765  23.740 -0.1794  0.2307  0.1092
46732W        W47596  19.048  17.232  26.651 -0.0010 -0.2508 -0.2855
46733W        W47597  20.893  18.583  24.163 -0.2060  0.1114  0.1328
46734W        W47598  19.106  19.964  24.679  0.0668 -0.1553 -0.0498
46735W        W47599  20.617  21.774  26.426  0.1055  0.0515  0.2398
46736W        W47600  18.058  22.015  25.144 -0.2046  0.0117  0.2280
46737W        W47601  19.114  22.758  25.408 -0.0978  0.1545 -0.5505
46738W        W47602  24.267  22.357  26.369  0.2744 -0.0537  0.2346
46739W        W47603  19.381  19.514  26.212 -0.1299 -0.4566 -0.1750
46740W        W47604  20.231  18.620  21.391  0.1251 -0.3496  0.1900
46741W        W47605  18.303  22.991  21.941  0.1608 -0.0376 -0.1150
46742W        W47606  22.632  21.821  25.779 -0.1470  0.2494 -0.3688
46743W        W47607  21.966  18.798  21.582 -0.2145 -0.2600 -0.0169
46744W        W47608  17.758  19.724  24.404 -0.1765 -0.0047 -0.1749
46745W        W47609  20.004  24.319  24.699  0.1144 -0.0098 -0.1217
46746W        W47610  22.341  20.938  27.875  0.0283  0.5159 -0.0582
46747W        W47611  19.223  18.524  23.411 -0.0218 -0.0825  0.1267
46748W        W47612  20.272  20.899  26.687 -0.0776  0.0797 -0.0978
46749W        W47613  16.905  19.256  21.639  0.1835  0.0817 -0.1770
46750W        W47614  19.622  20.144  23.446  0.0641  0.0889  0.1654
46751W        W47615  18.973  20.106  23.876  0.2149 -0.0050 -0.0210
46752W        W47616  24.074  21.245  25.159  0.0592 -0.0414 -0.4462
46753W        W47617  17.186  21.477  21.143 -0.0301  0.0035 -0.0136
46754W        W47618  19.669  21.907  26.851  0.0477  0.0041 -0.1016
46755W        W47619  18.325  20.886  23.599 -0.1542 -0.0767  0.0826
46756W        W47620  21.481  19.549  25.249 -0.1805 -0.0069 -0.1204
46757W        W47621  22.008  20.625  21.388 -0.0036 -0.1051 -0.0153
46758W        W47622  19.872  18.551   0.666  0.1791  0.0958  0.1468
46759W        W47623  23.428  18.399  25.723  0.2397 -0.2829 -0.1191
46760W        W47624  20.449  21.299  23.215  0.1050  0.2522 -0.1465
46761W        W47625  20.130  18.616  22.651  0.0138  0.0808  0.0718
46762W        W47626  21.641  18.809  22.145  0.2408 -0.2350 -0.2328
46763W        W47627  20.230  20.018  24.893 -0.1363  0.0320  0.0582
46764W        W47628  19.214  19.058  22.707  0.1451 -0.1041  0.1881
46765W        W47629  18.203  17.924  24.377  0.1679  0.1259 -0.0169
46766W        W47630  19.031  20.339  23.453 -0.2102  0.0938 -0.1561
46767W        W47631  20.887  21.332  25.422 -0.0069 -0.0399  0.1018
46768W        W47632  22.377  19.452  26.658 -0.1278  0.0968 -0.0307
46769W        W47633  22.115  18.833  25.234  0.0367  0.0179  0.2802
46770W        W47634  19.085  24.307  23.087  0.2774 -0.1869 -0.0305
46771W        W47635  18.733  19.255  22.596  0.2446 -0.1421 -0.1940
46772W        W47636  15.663  19.805  27.221  0.0077 -0.2365  0.0401
46773W        W47637  21.913  20.657  27.182  0.1419  0.0109 -0.0514
46774W        W47638  24.333  19.266  19.914  0.2109 -0.1926  0.0106
46775W        W47639  23.153  20.328  24.878 -0.2347  0.0589 -0.3582
46776W        W47640  20.704  20.787  24.629 -0.1571 -0.3864  0.1565
46777W        W47641  24.408  23.123  26.601  0.2061 -0.2182 -0.0399
46778W        W47642  19.251  20.813  25.696  0.0936 -0.0662 -0.0177
46779W        W47643  25.155  22.080  25.169  0.1134  0.1336  0.2167
46780W        W47644  18.290  19.531  25.851  0.0958 -0.1113  0.2569
46781W        W47645  17.657  21.618  23.471  0.0925  0.1856 -0.2664
46782W        W47646  17.773  21.694  24.871  0.0373  0.2671  0.1983
46783W        W47647  17.356  18.685  24.965 -0.1410  0.3197 -0.1658
46784W        W47648  23.651  19.797  26.020  0.0864  0.0592 -0.0952
46785W        W47649  20.634  21.618  24.295 -0.0744 -0.2807 -0.2106
46786W        W47650  19.088  23.250  25.061 -0.4693  0.0949 -0.1040
46787W        W47651  17.488  19.795  21.856  0.0058  0.0253 -0.1978
46788W        W47652  21.256  21.385  22.705  0.0102 -0.1690  0.0383
46789W        W47653  20.884  19.622  24.800  0.3816  0.4416 -0.3393
46790W        W47654  22.153  19.480  22.317 -0.2487  0.1738  0.2283
46791W        W47655  19.601  19.813  24.851  0.1214 -0.1050  0.0153
46792W        W47656  21.281  21.721  20.697  0.0161 -0.0483  0.1803
46793W        W47657  19.758  20.419  26.999  0.0166  0.2688  0.1861
46794W        W47658  18.402  23.028  26.990  0.4656 -0.0670  0.0392
46795W        W47659  18.695  19.270  23.391  0.3426  0.2254 -0.3137
46796W        W47660  18.756  21.819  24.571 -0.0350  0.2160 -0.1734
46797W        W47661  19.669  18.664  25.491 -0.0596  0.1011  0.2684
46798W        W47662  17.638  20.543  24.792 -0.2594  0.2086  0.1175
46799W        W47663  20.986  20.577  23.085  0.1713 -0.2247 -0.0655
46800W        W47664  16.895  20.101  24.037 -0.1202 -0.2371  0.0606
46801W        W47665  19.868  19.029  24.159 -0.1297  0.1005 -0.2100
46802W        W47666  19.959  18.773  23.167 -0.1364  0.2185 -0.2506
46803W        W47667  22.168  20.113  25.964  0.2010 -0.0938 -0.0588
46804W        W47668  21.706  20.824  25.721 -0.1014 -0.0217  0.0149
46805W        W47669  24.942  20.929  24.946 -0.0347  0.1195  0.1346
46806W        W47670  20.776  20.436  27.178 -0.1297  0.1715  0.2602
46807W        W47671  19.446  22.600  22.034 -0.2206 -0.1589 -0.1513
46808W        W47672  24.621  20.160  22.177 -0.0790  0.1641  0.1077
46809W        W47673  21.940  20.572  23.384  0.1386 -0.0561  0.0107
46810W        W47674  18.980  18.602  22.686  0.2474  0.0171  0.3085
46811W        W47675  17.685  20.451  24.276  0.1819 -0.0615 -0.1090
46812W        W47676  20.286  18.088   0.006  0.5089 -0.4962 -0.2014
46813W        W47677  17.996  16.975  22.601  0.1441  0.4678 -0.1177
46814W        W47678  16.097  21.709  20.793 -0.2843  0.0047 -0.2333
46815W        W47679  19.829  20.115  25.149  0.0108  0.0929  0.1278
46816W        W47680  20.948  19.979  27.337 -0.3105 -0.2707 -0.0230
46817W        W47681  18.532  20.981  24.071  0.0877 -0.0991 -0.0606
46818W        W47682  19.955  20.568  23.045  0.2760  0.0777  0.1390
46819W        W47683  20.727  21.668  22.631  0.3217 -0.0361 -0.1280
46820W        W47684  18.290  19.928  21.035  0.2115 -0.1147 -0.0327
46821W        W47685  22.260  20.749  24.206 -0.3185 -0.1981 -0.2915
46822W        W47686  17.784  17.190  23.040 -0.0151  0.4059  0.0191
46823W        W47687  22.444  21.785  25.292 -0.0654 -0.1773  0.0528
46824W        W47688  20.412  21.845  24.709  0.0419 -0.0050  0.0569
46825W        W47689  20.020  18.475  24.903 -0.3175 -0.1736 -0.0614
46826W        W47690  21.917  19.217  20.773  0.0305 -0.1692 -0.0552
46827W        W47691  18.206  20.075  23.521  0.2868 -0.0042 -0.1159
46828W        W47692  20.297  19.368  26.504  0.1024  0.1614  0.3330
46829W        W47693  17.671  20.455  26.742  0.1204 -0.1222  0.2307
46830W        W47694  16.542  19.136  22.763 -0.0690  0.1114  0.0223
46831W        W47695  16.541  20.955  23.661 -0.2496  0.0103 -0.2492
46832W        W47696  18.411  21.972  23.919  0.0090 -0.0742 -0.2093
46833W        W47697  18.582  20.018  23.030 -0.2749 -0.0478 -0.0449
46834W        W47698  21.591  18.963  24.021  0.0984  0.2047 -0.1515
46835W        W47699  22.806  21.464  24.071  0.3815  0.0916  0.0240
46836W        W47700  21.525  22.339  24.553 -0.0288  0.0228  0.2683
46837W        W47701  22.019  22.019  24.578  0.0781  0.0174  0.1933
46838W        W47702  19.438  19.286  24.050  0.1424 -0.0566 -0.0435
46839W        W47703  22.093  18.479  22.110  0.1063 -0.1308  0.0598
46840W        W47704  25.954  19.859  21.872 -0.0441 -0.2025  0.3577
46841W        W47705  18.012  21.282  23.559 -0.0052  0.0015  0.3546
46842W        W47706  22.959  18.496  23.359 -0.1803 -0.1136  0.2618
46843W        W47707  19.045  21.104  21.784 -0.1304 -0.0706  0.2048
46844W        W47708  22.238  22.635  24.567 -0.0438 -0.2386 -0.4844
46845W        W47709  20.839  20.108  22.264  0.1786  0.3701 -0.1163
46846W        W47710  17.342  19.636  26.258  0.3845 -0.0677  0.2949
46847W        W47711  19.726  18.398  23.350 -0.1745  0.1056  0.2279
46848W        W47712  21.579  21.372  23.960 -0.0991 -0.0427  0.2810
46849W        W47713  22.648  18.498  24.464  0.1840  0.1930  0.1998
46850W        W47714  16.436  23.116  25.562  0.1235 -0.0976 -0.3459
46851W        W47715  19.905  23.591  27.092  0.0672  0.0717  0.0890
46852W        W47716  20.475  19.345  24.632  0.0601 -0.0415  0.1750
46853W        W47717  15.161  21.731  24.078 -0.1552  0.0302  0.0143
46854W        W47718  23.224  19.561  24.273 -0.1401  0.1152  0.3191
46855W        W47719  21.893  21.855  25.115  0.0354  0.2675 -0.4089
46856W        W47720  24.587  19.427  25.329  0.0412  0.1062  0.2793
46857W        W47721  21.518  24.450  20.821  0.2466 -0.2793  0.1124
46858W        W47722  19.746  21.459  26.859  0.0186  0.4234  0.2114
46859W        W47723  20.485  20.358  24.517  0.1945 -0.2376  0.1745
46860W        W47724  20.836  20.795  25.870 -0.1919  0.0277 -0.1525
46861W        W47725  20.526  20.005  26.998  0.1256 -0.2095  0.0550
46862W        W47726  17.972  21.327  24.677  0.0396  0.0404  0.0707
46863W        W47727  21.566  21.141  24.476 -0.1584 -0.0231 -0.0597
46864W        W47728  20.245  19.997  23.147  0.1741 -0.1304  0.0589
46865W        W47729  19.044  21.421  24.563 -0.0022 -0.1079 -0.1111
46866W        W47730  19.713  19.204  24.638  0.3262  0.3736  0.0588
46867W        W47731  19.531  21.270  23.499 -0.0478 -0.0104  0.1179
46868W        W47732  17.860  23.375  27.739  0.0601  0.1409 -0.1341
46869W        W47733  18.497  20.597  24.716  0.0244  0.6856 -0.1685
46870W        W47734  18.292  19.666  20.589  0.1956  0.2125  0.0103
46871W        W47735  16.590  24.834  28.140 -0.2127  0.0539  0.2335
46872W        W47736  18.330  20.377  28.715 -0.1492  0.2771  0.1387
46873W        W47737  24.126  18.938  25.651  0.0131 -0.0210  0.1098
46874W        W47738  23.549  20.628   0.969 -0.2865  0.3262  0.0940
46875W        W47739  19.716  22.598  26.839 -0.2232 -0.0266  0.2102
46876W        W47740  19.847  21.184  26.442 -0.4618  0.0848 -0.0426
46877W        W47741  17.180  21.130  25.239 -0.0136 -0.0281 -0.0185
46878W        W47742  21.250  20.052  25.623 -0.2810  0.2515 -0.3444
46879W        W47743  18.964  21.300  27.022 -0.0254 -0.0664  0.2509
46880W        W47744  17.828  19.854  27.476  0.0547  0.0315 -0.1189
46881W        W47745  20.600  18.487  27.430  0.2951 -0.2688  0.0103
46882W        W47746  22.328  19.345  27.245  0.1437  0.1156  0.2561
46883W        W47747  21.958  20.754  26.570  0.1048  0.2006  0.2445
46884W        W47748  21.043  17.794  28.074  0.1351  0.1451  0.0675
46885W        W47749  18.391  19.941  27.215 -0.2287  0.3347 -0.1632
46886W        W47750  15.281  19.293  28.843 -0.1804 -0.2818 -0.0885
46887W        W47751  21.308  22.530  26.748 -0.1578 -0.2667  0.0332
46888W        W47752  16.922  20.271  25.501 -0.1855  0.0717 -0.0759
46889W        W47753  18.528  22.969   1.027  0.3622 -0.1856 -0.0046
46890W        W47754  24.216  19.568  26.938 -0.0046 -0.0239  0.2959
46891W        W47755  22.675  19.533  27.585 -0.2337  0.2852  0.1123
46892W        W47756  19.126  18.603  25.997  0.1891  0.0128  0.0440
46893W        W47757  20.546  24.208  28.212  0.2048 -0.0236 -0.2824
46894W        W47758  20.099  21.869  28.389 -0.0546 -0.1722  0.3069
46895W        W47759  17.038  22.178  26.938 -0.0898  0.0872 -0.0978
46896W        W47760  21.429  18.348  26.902 -0.1520 -0.5035  0.0389
46897W        W47761  21.760  17.058   0.563 -0.0846  0.1174  0.3104
46898W        W47762  18.971  23.782  27.557 -0.0586 -0.0075 -0.0516
46899W        W47763  18.971  20.589   0.855 -0.1892  0.1996  0.1172
46900W        W47764  20.795  17.842  29.090  0.0704  0.1340 -0.3911
46901W        W47765  21.579  19.642  28.609 -0.0041 -0.0288 -0.2521
46902W        W47766  19.221  22.289   0.252 -0.1605 -0.1195 -0.0759
46903W        W47767  21.107  20.629   0.288  0.1940  0.1379  0.0508
46904W        W47768  19.432  20.652  26.688  0.1098  0.2532  0.0569
46905W        W47769  18.320  20.288   2.202  0.0875 -0.0474  0.0875
46906W        W47770  22.031  20.660  29.025 -0.0583  0.2831  0.0888
46907W        W47771  17.455  18.314  26.027  0.2057  0.0949  0.0835
46908W        W47772  18.664  21.191  27.825 -0.0669  0.1904  0.0357
46909W        W47773  26.414  21.675  27.486 -0.1567  0.3495 -0.1122
46910W        W47774  22.292  19.245  26.069  0.0191  0.1457 -0.4384
46911W        W47775  21.477  16.880  24.480 -0.0155  0.0153 -0.5636
46912W        W47776  22.593  21.463  28.885 -0.0703 -0.2473 -0.1051
46913W        W47777  21.262  21.384  25.787 -0.1323  0.1205 -0.0067
46914W        W47778  22.790  20.864   0.352  0.0888 -0.0689 -0.1895
46915W        W47779  15.841  21.265  29.062  0.2072  0.0346  0.1321
46916W        W47780  18.205  22.317  28.146  0.1662  0.1758  0.1117
46917W        W47781  16.044  17.907   0.438 -0.2447  0.2941 -0.1249
46918W        W47782  20.463  17.897  27.619 -0.3464 -0.0712 -0.1209
46919W        W47783  19.050  21.728   0.127 -0.1998 -0.0579 -0.2040
46920W        W47784  22.011  18.435  27.638 -0.1435 -0.1633 -0.0011
46921W        W47785  21.492  19.252  26.726 -0.0599  0.1134 -0.0931
46922W        W47786  17.528  18.743  26.329 -0.0047 -0.0387 -0.2328
46923W        W47787  19.116  23.289  27.372 -0.1788 -0.1554 -0.0984
46924W        W47788  21.793  19.550  27.030  0.2862  0.0200  0.0064
46925W        W47789  21.065  18.363  27.255  0.0810 -0.2450 -0.0067
46926W        W47790  19.239  24.786  26.472  0.0757 -0.0391 -0.0043
46927W        W47791  18.607  19.903  26.026  0.3324  0.0227  0.0168
46928W        W47792  21.297  19.630  27.035  0.0399  0.0501  0.2497
46929W        W47793  20.712  20.888  26.347 -0.0027 -0.0480  0.1316
46930W        W47794  22.066  20.436  25.566 -0.2040 -0.1201  0.1082
46931W        W47795  20.491  17.512  22.573 -0.0752  0.3495  0.3320
46932W        W47796  21.006  20.416  27.597 -0.0219  0.2439  0.0414
46933W        W47797  18.272  22.772  27.948 -0.3952 -0.1785  0.0479
46934W        W47798  19.320  18.661  27.360  0.0921 -0.0631 -0.1527
46935W        W47799  20.595  20.430  28.174  0.2143 -0.1640 -0.0652
46936W        W47800  22.549  19.658  28.100  0.3541 -0.0606  0.2038
46937W        W47801  15.803  19.230  23.710  0.0517 -0.1285  0.4194
46938W        W47802  18.682  18.052  25.233 -0.1957 -0.0879 -0.0947
46939W        W47803  18.731  22.691  27.698  0.1049 -0.0302  0.0843
46940W        W47804  20.398  20.835  27.258  0.1373  0.2139  0.1210
46941W        W47805  22.617  18.864   1.320 -0.2573 -0.1614 -0.6555
46942W        W47806  19.574  18.287  24.758 -0.3720 -0.0071  0.2876
46943W        W47807  20.339  23.023  28.652  0.0299 -0.1332  0.3190
46944W        W47808  22.159  19.481  28.345  0.0418  0.2186  0.0864
46945W        W47809  24.490  22.950  28.121 -0.0208 -0.2914 -0.0459
46946W        W47810  22.432  18.577   0.971  0.1995 -0.0236  0.2080
46947W        W47811  18.824  19.503  27.167  0.0423 -0.2319  0.0890
46948W        W47812  17.976  20.206  27.056  0.1413 -0.0063  0.1513
46949W        W47813  19.153  22.224  25.037  0.0242  0.0850 -0.4612
46950W        W47814  19.475  17.383  24.515 -0.0820  0.2813  0.2032
46951W        W47815  22.771  19.488   2.823 -0.3726  0.0247 -0.1545
46952W        W47816  17.876  20.145   0.890 -0.0258  0.0711  0.0814
46953W        W47817  17.496  15.167  29.095 -0.0064 -0.2305  0.0255
46954W        W47818  24.028  19.390  25.978 -0.0392  0.0155  0.1963
46955W        W47819  20.214  20.369  27.297  0.0660  0.3650 -0.3967
46956W        W47820  21.403  20.129  27.807 -0.1144  0.3010  0.0797
46957W        W47821  25.033  22.832  28.018 -0.0515 -0.0708  0.0994
46958W        W47822  21.158  18.076   0.184 -0.0590 -0.1503  0.0062
46959W        W47823  23.443  23.092  28.293 -0.1183 -0.0091  0.1066
46960W        W47824  23.041  17.451  27.466 -0.0878  0.4010  0.3182
46961W        W47825  20.837  19.412  26.220  0.0470  0.1441 -0.2768
46962W        W47826  21.105  19.562  29.133  0.0887  0.4253 -0.1864
46963W        W47827  23.709  18.435  27.850 -0.1031  0.0820  0.0179
46964W        W47828  20.775  16.691  27.053  0.0095  0.1710 -0.2434
46965W        W47829  22.050  21.284  28.055 -0.0771 -0.0374  0.1793
46966W        W47830  21.068  19.307  25.149 -0.3461  0.0682  0.0719
46967W        W47831  18.744  23.205  27.800 -0.0921  0.3302  0.0943
46968W        W47832  20.380  19.987  28.067  0.3361  0.0222  0.0928
46969W        W47833  22.790  18.009  28.191  0.0170  0.4055  0.0128
46970W        W47834  24.966  18.391  26.507  0.1820 -0.1662 -0.0833
46971W        W47835  20.841  20.760  28.358 -0.3369 -0.0546  0.0028
46972W        W47836  21.752  19.069  27.190  0.0935  0.0370 -0.1885
46973W        W47837  22.910  20.540  26.342  0.0165 -0.0671  0.1195
46974W        W47838  21.148  19.762  26.016  0.1430  0.1868  0.2635
46975W        W47839  21.958  19.975   1.272 -0.1223 -0.0178 -0.0152
46976W        W47840  16.599  22.607  26.048 -0.0432  0.4125 -0.2079
46977W        W47841  23.423  17.913   0.865  0.2208  0.1396  0.0872
46978W        W47842  22.207  20.521  27.565  0.0971 -0.1095 -0.0164
46979W        W47843  20.457  19.225  28.087 -0.4059  0.3541 -0.1556
46980W        W47844  16.203  19.782   0.359  0.3915  0.2100  0.4601
46981W        W47845  19.513  21.642   0.381 -0.0615 -0.3645 -0.1714
46982W        W47846  22.376  18.549  29.085 -0.1750  0.0652 -0.0997
46983W        W47847  20.522  21.646  28.784 -0.0929  0.1235  0.0146
46984W        W47848  22.046  20.182  29.040  0.2858  0.1502 -0.1002
46985W        W47849  20.176  18.862   1.846  0.1937 -0.1518 -0.0560
46986W        W47850  19.677  19.459  27.984 -0.1382  0.1453 -0.1086
46987W        W47851  21.029  21.700  27.114  0.3645 -0.2720 -0.0483
46988W        W47852  17.989  19.471  24.802  0.1695  0.0215  0.0482
46989W        W47853  18.927  21.746  27.838 -0.2033 -0.0489  0.1581
46990W        W47854  19.299  22.161  27.744 -0.0251  0.1249 -0.2378
46991W        W47855  20.540  19.811  24.493  0.0376  0.1532 -0.0284
46992W        W47856  19.213  18.815  25.380 -0.0156 -0.2072 -0.0236
46993W        W47857  19.697  21.137  27.771 -0.1460 -0.0044  0.1808
46994W        W47858  22.495  19.513  28.754  0.3444  0.1461  0.0473
46995W        W47859  21.829  17.285  28.258 -0.0904 -0.1005  0.0808
46996W        W47860  14.447  21.867  27.544 -0.1505 -0.2118 -0.1010
46997W        W47861  21.578  17.337  26.051 -0.2076  0.0988 -0.2108
46998W        W47862  20.890  22.041  28.889 -0.0004 -0.0146 -0.0334
46999W        W47863  19.921  22.906  28.329 -0.1818 -0.1766 -0.1081
47000W        W47864  21.167  21.209   0.335  0.3527  0.0655  0.1154
47001W        W47865  24.965  20.775  27.864 -0.0439 -0.1357  0.3348
47002W        W47866  17.655  21.448  26.538 -0.0027 -0.0181  0.2590
47003W        W47867  23.892  17.914  26.940 -0.2612  0.1630 -0.0180
47004W        W47868  23.391  20.723  28.793 -0.2715  0.1456 -0.4553
47005W        W47869  17.602  19.429  28.319  0.4667  0.1885 -0.4829
47006W        W47870  21.912  20.080  27.755 -0.1569  0.3556 -0.0312
47007W        W47871  21.733  19.808   0.696  0.1815 -0.1657 -0.2172
47008W        W47872  20.808  22.074  27.924 -0.1780 -0.3206  0.0909
47009W        W47873  20.903  20.889  27.425  0.0542  0.1160  0.0500
47010W        W47874  19.673  19.081  26.152 -0.0642  0.1408 -0.0996
47011W        W47875  21.217  19.204  27.324  0.1500  0.0448 -0.1014
47012W        W47876  18.523  23.341  26.591 -0.0607 -0.0757 -0.1977
47013W        W47877  19.684  19.502  25.794 -0.1100  0.0955  0.3529
47014W        W47878  23.161  20.747  26.763  0.1240 -0.0102 -0.0881
47015W        W47879  20.149  19.587  27.807  0.0260 -0.0736 -0.1686
47016W        W47880  22.459  17.090  27.060  0.3045 -0.0166 -0.1243
47017W        W47881  23.001  22.081   0.163 -0.0891  0.2644 -0.0597
47018W        W47882  22.852  21.403  28.438  0.0094 -0.0643  0.1889
47019W        W47883  16.633  21.781   0.371 -0.3937 -0.0414  0.2183
47020W        W47884  23.359  18.798   0.909 -0.1907 -0.2971  0.0095
47021W        W47885  17.690  17.881  28.982  0.0962 -0.1092  0.0437
47022W        W47886  17.849  21.617  28.873  0.0468  0.0818 -0.0485
47023W        W47887  18.999  19.308  25.435 -0.1125  0.0094  0.0997
47024W        W47888  19.705  21.144  28.481  0.0995 -0.1317  0.3596
47025W        W47889  22.365  19.436   0.539  0.0871  0.0859  0.2790
47026W        W47890  18.344  20.436  28.104 -0.0314  0.0457 -0.1311
47027W        W47891  21.883  20.084  27.164 -0.1036 -0.3265 -0.2315
47028W        W47892  20.155  20.423  27.858 -0.2346  0.0745  0.2274
47029W        W47893  20.711  18.899  26.500 -0.1716  0.2594 -0.0001
47030W        W47894  21.661  21.116  27.174  0.4223  0.2082 -0.0864
47031W        W47895  19.648  20.874   0.202  0.0610 -0.0284 -0.0351
47032W        W47896  21.531  20.053  28.355  0.0082  0.1423 -0.1050
47033W        W47897  21.794  21.258  28.718 -0.2781  0.0784  0.1138
47034W        W47898  22.606  19.133  28.378  0.4438  0.1582  0.0854
47035W        W47899  21.748  21.792  28.716 -0.2596  0.2453 -0.0432
47036W        W47900  17.450  20.299  29.111  0.0792  0.0029  0.1073
47037W        W47901  19.911  20.449  25.697 -0.0916 -0.0303 -0.0046
47038W        W47902  20.166  22.793   0.539 -0.2525 -0.3760  0.2973
47039W        W47903  19.079  23.585  26.443 -0.1420 -0.2536  0.1287
47040W        W47904  22.126  20.007  28.182  0.1934  0.0461  0.2687
47041W        W47905  22.874  21.213  26.380 -0.1256 -0.2384  0.0863
47042W        W47906  20.008  21.571  26.139 -0.2404 -0.0479  0.2060
47043W        W47907  21.190  19.024   0.697 -0.1089 -0.0107 -0.0739
47044W        W47908  19.275  18.917  24.428  0.3760  0.1045 -0.3499
47045W        W47909  21.761  21.418  25.818 -0.1320 -0.1747  0.2024
47046W        W47910  19.286  20.815  27.853 -0.5791  0.2709 -0.1696
47047W        W47911  20.426  21.714  27.967 -0.1390  0.0875  0.0693
47048W        W47912  16.442  20.243  25.847 -0.2265 -0.1412  0.1397
47049W        W47913  19.508  18.265  26.907  0.0960 -0.0295  0.0234
47050W        W47914  21.169  22.015  27.542 -0.0502 -0.0888  0.2814
47051W        W47915  24.069  22.828  26.425  0.0131  0.2692 -0.0394
47052W        W47916  23.923  21.793  26.323 -0.2209 -0.2819 -0.0284
47053W        W47917  17.592  19.035  26.827  0.2509  0.2282  0.1407
47054W        W47918  22.704  19.178  24.365 -0.2251 -0.1812  0.0319
47055W        W47919  19.483  22.144  28.491 -0.1207 -0.0636 -0.5207
47056W        W47920  24.042  18.009  27.825  0.0693  0.1410 -0.0058
47057W        W47921  19.911  19.158  27.351 -0.0858  0.2285 -0.1300
47058W        W47922  20.458  22.285  26.562 -0.0384  0.2519 -0.0469
47059W        W47923  20.367  21.313  26.397  0.0480 -0.1012 -0.2401
47060W        W47924  19.855  21.310  25.721  0.0608 -0.1896  0.0934
47061W        W47925  19.417  24.002  27.790  0.3612  0.0588  0.3489
47062W        W47926  20.710  18.510   0.708  0.0070  0.2230  0.0491
47063W        W47927  23.273  18.009  28.978 -0.0144  0.3447  0.0000
47064W        W47928  18.766  19.553  26.364  0.0445 -0.3489 -0.1908
47065W        W47929  18.083  18.230  26.871  0.2302 -0.1575  0.1716
47066W        W47930  21.024  18.272  23.092 -0.3139 -0.0701  0.0556
47067W        W47931  19.236  19.413  27.661 -0.1085  0.1776  0.1140
47068W        W47932  19.430  20.798  27.362 -0.2525 -0.1329  0.2360
47069W        W47933  21.749  18.232  26.479 -0.1212 -0.0260 -0.2323
47070W        W47934  18.397  20.143  26.755  0.0097 -0.1614 -0.0282
47071W        W47935  20.403  18.970  28.526  0.1176 -0.3390  0.1497
47072W        W47936  21.050  19.004  26.039 -0.2822 -0.0369  0.0161
47073W        W47937  21.043  19.653  28.679 -0.1417 -0.0807  0.0681
47074W        W47938  19.689  20.916  26.002  0.1023 -0.0021 -0.3775
47075W        W47939  19.831  20.879  26.949  0.0332  0.1708  0.0361
47076W        W47940  17.433  19.111   0.938  0.5019  0.2527 -0.1609
47077W        W47941  17.815  22.131  28.385  0.2447  0.0838 -0.0377
47078W        W47942  18.670  23.397  27.203 -0.0805 -0.0276  0.1287
47079W        W47943  18.976  18.989  24.859 -0.1700  0.1150 -0.0009
47080W        W47944  20.951  19.288  27.948  0.1694  0.0071 -0.2287
47081W        W47945  15.702  19.476  28.651 -0.2111 -0.0806  0.1974
47082W        W47946  20.909  20.037  27.945 -0.0618  0.1281 -0.1396
47083W        W47947  20.075  18.820  25.842 -0.0745 -0.0588  0.0062
47084W        W47948  23.558  20.959   0.658  0.3712  0.2244  0.0975
47085W        W47949  21.483  21.454  26.254  0.4212 -0.1594 -0.1912
47086W        W47950  19.472  23.120  25.477  0.0328  0.0100 -0.1685
47087W        W47951  18.171  20.609  24.180  0.0168  0.2293  0.2494
47088W        W47952  20.979  20.143  28.908 -0.1369  0.0535 -0.0463
47089W        W47953  17.458  17.626   1.609  0.1123 -0.0621  0.0533
47090W        W47954  24.050  18.072   1.064 -0.0023  0.0044  0.0066
47091W        W47955  21.515  21.116  28.241  0.1416 -0.1961  0.0677
47092W        W47956  21.883  23.073   0.104  0.0168 -0.1644 -0.2748
47093W        W47957  18.235  19.035  25.892  0.1468  0.2252  0.0478
47094W        W47958  19.903  22.291  27.274  0.0201  0.0947 -0.0094
47095W        W47959  20.352  17.604   0.092  0.3622  0.1423 -0.1012
47096W        W47960  16.085  21.552   0.888  0.0415 -0.0340 -0.3825
47097W        W47961  23.061  14.013   0.558  0.2295 -0.2375 -0.3376
47098W        W47962  21.772  24.531  25.560 -0.2209  0.2969  0.1226
47099W        W47963  19.946  20.691  28.688  0.0360 -0.0043  0.0211
47100W        W47964  20.337  17.291  28.231  0.0574 -0.0399  0.1846
47101W        W47965  21.082  19.788   1.822 -0.1225  0.0705  0.2819
47102W        W47966  21.329  22.556  25.141 -0.1932 -0.1730  0.0827
47103W        W47967  21.413  21.067  26.599  0.0135 -0.5867  0.1826
47104W        W47968  16.521  19.880  28.015 -0.4072  0.1356 -0.1895
47105W        W47969  23.194  21.038  27.160 -0.2309 -0.2197  0.1589
47106W        W47970  23.751  21.302  27.911 -0.0193  0.1432  0.2084
47107W        W47971  18.760  19.782  28.311 -0.0122 -0.2603 -0.0815
47108W        W47972  20.562  20.093  26.505  0.0847 -0.3693 -0.2003
47109W        W47973  22.397  21.082  25.087  0.4537  0.0976  0.0430
47110W        W47974  19.437  20.360  25.618  0.0669  0.0187 -0.2367
47111W        W47975  18.454  21.120  27.394 -0.0153  0.0218  0.1497
47112W        W47976  19.093  19.260  28.530 -0.2199 -0.0320 -0.1610
47113W        W47977  22.975  19.924  28.183 -0.0720 -0.0605 -0.1082
47114W        W47978  22.729  23.011  27.639 -0.1118  0.2623 -0.1456
47115W        W47979  21.444  19.327  26.155 -0.2132 -0.3588  0.0549
47116W        W47980  21.199  18.678  28.921 -0.0568 -0.0021 -0.1599
47117W        W47981  19.929  21.740   2.098 -0.0232  0.0561 -0.3910
47118W        W47982  22.086  23.472  28.036  0.0324  0.0050  0.3414
47119W        W47983  17.098  18.992  25.321  0.3582 -0.3332 -0.3475
47120W        W47984  20.152  21.751  26.627  0.1421  0.1742 -0.1640
47121W        W47985  21.053  20.191  28.385  0.2175 -0.2408 -0.2986
47122W        W47986  20.378  22.724  28.243  0.1528  0.0505  0.2857
47123W        W47987  20.215  19.686   0.527  0.0068 -0.1541 -0.1407
47124W        W47988  19.665  18.088  26.358 -0.0160  0.0517  0.0280
47125W        W47989  23.062  20.168  26.757 -0.0971 -0.0019 -0.4049
47126W        W47990  22.034  16.841  25.961 -0.0372  0.3708  0.1166
47127W        W47991  19.104  20.385  27.620  0.3806 -0.1827  0.0265
47128W        W47992  23.308  21.530  27.997 -0.0319  0.1586 -0.0255
47129W        W47993  22.236  20.470  28.062  0.1279  0.2763  0.2058
47130W        W47994  18.663  20.436  24.171 -0.1277  0.0899 -0.0569
47131W        W47995  19.278  21.294   1.364  0.1161 -0.0467 -0.0456
47132W        W47996  24.137  21.107  28.215  0.0831  0.1570  0.2028
47133W        W47997  19.706  18.606  26.076  0.1192  0.1418  0.2798
47134W        W47998  21.939  21.509  27.160  0.1525 -0.6401 -0.1211
47135W        W47999  18.470  21.527  28.217 -0.2608 -0.1982 -0.2253
47136W        W48000  19.343  20.976  26.315  0.0521  0.2898  0.1589
47137W        W48001  20.439  19.310   0.200  0.1865 -0.1950  0.1908
47138W        W48002  20.301  18.623   0.975 -0.2214  0.0110 -0.0222
47139W        W48003  21.711  19.230  24.424  0.0892 -0.1600  0.0799
47140W        W48004  18.378  19.972  24.923  0.0981  0.0192  0.2700
47141W        W48005  19.584  16.848  27.276  0.2604  0.0471  0.1610
47142W        W48006  23.644  19.338  27.669  0.1568  0.0686 -0.1046
47143W        W48007  21.488  20.090   1.158  0.3457  0.2378  0.1202
47144W        W48008  22.560  21.688   0.592 -0.2522 -0.1190  0.1846
47145W        W48009  22.128  18.812  28.497  0.0602 -0.3578 -0.3713
47146W        W48010  19.895  20.658  27.434 -0.1236 -0.3131 -0.0118
47147W        W48011  19.401  21.356  28.091  0.0097  0.2692  0.0891
47148W        W48012  22.932  19.946  27.242 -0.1344 -0.0128 -0.3078
47149W        W48013  18.331  22.362  27.679 -0.1799  0.0613 -0.1080
47150W        W48014  20.200  23.420  27.511 -0.2011  0.2345  0.2106
47151W        W48015  19.937  19.933  25.702  0.0792  0.2419 -0.0783
47152W        W48016  18.447  24.547  26.744  0.0549  0.3114 -0.1819
47153W        W48017  18.278  20.794  27.704 -0.0091 -0.1271 -0.3351
47154W        W48018  21.178  19.689  28.175  0.1401  0.0706  0.1039
47155W        W48019  21.210  18.721  28.251  0.0764 -0.1488 -0.0504
47156W        W48020  23.134  21.154   0.037  0.2039  0.0023  0.0199
47157W        W48021  18.526  17.234   1.590  0.1714 -0.0386  0.0961
47158W        W48022  24.161  18.766  24.664  0.1044  0.1128 -0.2026
47159W        W48023  22.646  20.464  24.671  0.0896  0.1618  0.0653
47160W        W48024  20.717  20.512  26.706 -0.0163 -0.4259 -0.4086
47161W        W48025  22.535  19.098  23.858  0.1063 -0.2490  0.1195
47162W        W48026  24.039  16.292  27.559  0.0538 -0.2180  0.1840
47163W        W48027  18.993  22.060  28.355  0.3531 -0.0817  0.2414
47164W        W48028  18.325  21.665  26.038 -0.1651  0.1214 -0.0060
47165W        W48029  22.802  19.459  27.038  0.3191  0.0919 -0.5325
47166W        W48030  22.009  18.662  27.195 -0.1417  0.2240  0.3994
47167W        W48031  23.828  22.966  28.688  0.2475  0.0500  0.0078
47168W        W48032  21.615  18.512   0.066 -0.2616 -0.0455  0.0034
47169W        W48033  21.154  20.653  28.847  0.0201  0.2014 -0.1986
47170W        W48034  21.207  21.320  27.509 -0.0703 -0.0409 -0.1265
47171W        W48035  19.438  19.867  27.745  0.1642 -0.0233  0.3955
47172W        W48036  21.908  21.209   0.767 -0.0272  0.1449  0.1733
47173W        W48037  23.236  17.735  28.429  0.1490  0.4045  0.1245
47174W        W48038  23.284  21.728  27.164  0.0130 -0.0082 -0.1219
47175W        W48039  20.166  21.021  29.042  0.0051  0.2685 -0.0116
47176W        W48040  24.120  19.248   0.563 -0.0380 -0.0210  0.0828
47177W        W48041  21.262  20.540  25.892  0.1727 -0.2875  0.0726
47178W        W48042  21.937  19.232  28.711 -0.3181  0.1598 -0.2780
47179W        W48043  15.634  23.237  29.034 -0.1911  0.3229 -0.0672
47180W        W48044  20.830  20.308  26.128 -0.1328  0.3269 -0.1474
47181W        W48045  19.588  22.350  28.991 -0.0657 -0.0912  0.0093
47182W        W48046  21.398  20.220  27.216 -0.3261 -0.2414  0.1435
47183W        W48047  21.360  21.571  28.445  0.0099 -0.0601  0.6260
47184W        W48048  18.240  19.317  29.051 -0.2292 -0.0386 -0.2860
47185W        W48049  19.252  19.806  28.569 -0.0875 -0.1340 -0.0267
47186W        W48050  22.170  19.119  24.634  0.1639 -0.1964  0.0088
47187W        W48051  21.278  18.380  26.301  0.0750  0.4326 -0.1875
47188W        W48052  18.591  21.408   0.438  0.2882  0.1329 -0.0221
47189W        W48053  21.422  22.943  27.850  0.0471  0.1926  0.1348
47190W        W48054  18.050  22.161   0.752  0.0816 -0.1467  0.0669
47191W        W48055  23.221  23.081  26.530  0.0386  0.2031 -0.4821
47192W        W48056  19.097  19.570  28.992 -0.0898 -0.3790  0.0411
47193W        W48057  20.718  21.303  24.715  0.2605 -0.0212  0.1512
47194W        W48058  22.608  20.801  27.290 -0.3152 -0.0670 -0.0527
47195W        W48059  21.479  22.686  28.305  0.0549  0.1833 -0.1680
47196W        W48060  19.982  17.186  27.097 -0.3689  0.0731  0.0393
47197W        W48061  19.157  21.312  25.565 -0.1596  0.1654  0.1379
47198W        W48062  23.140  17.820  24.630  0.3854 -0.3533 -0.1452
47199W        W48063  22.128  18.888  26.759 -0.2676  0.0840  0.0487
47200W        W48064  20.671  20.654  29.055  0.0845 -0.0424 -0.0996
47201W        W48065  22.115  19.749  25.580  0.1120 -0.4609 -0.0602
47202W        W48066  21.578  15.920   0.041  0.0579 -0.2222  0.0616
47203W        W48067  18.835  23.008  28.807  0.0343 -0.0060  0.0288
47204W        W48068  23.255  18.628  27.840  0.2933  0.2319  0.2195
47205W        W48069  23.521  20.155   0.664  0.0164 -0.1075  0.0188
47206W        W48070  15.366  21.819  27.362  0.2823 -0.1523  0.2076
47207W        W48071  23.728  21.356  26.538  0.1087 -0.3359  0.0345
47208W        W48072  20.367  16.966  26.910 -0.1755  0.1227  0.2571
47209W        W48073  21.483  21.182  25.290 -0.0142  0.1270  0.1027
47210W        W48074  19.597  24.013  26.994  0.0277  0.0117 -0.0192
47211W        W48075  22.250  21.145  26.265 -0.0859 -0.0057 -0.1950
47212W        W48076  20.832  19.514  24.268 -0.0661  0.3681  0.0473
47213W        W48077  17.345  22.373  26.570 -0.2668  0.0638 -0.1759
47214W        W48078  21.902  19.826  24.425  0.2824  0.0271  0.0977
47215W        W48079  17.973  19.701  26.946  0.3043 -0.0211  0.0798
47216W        W48080  18.771  21.536  27.400 -0.1232 -0.1233 -0.2968
47217W        W48081  18.668  18.056  28.560  0.2604  0.3102 -0.0453
47218W        W48082  22.066  19.616  27.620  0.2128  0.0932  0.0662
47219W        W48083  16.837  19.597  27.749  0.0129 -0.1041 -0.2522
47220W        W48084  22.734  19.693  25.937  0.0792  0.0676  0.0700
47221W        W48085  22.404  20.067  27.801 -0.1168 -0.0010  0.1345
47222W        W48086  21.156  23.573  28.062 -0.3111 -0.1509 -0.0434
47223W        W48087  20.797  23.537  26.878 -0.1714 -0.0785 -0.1066
47224W        W48088  18.232  22.355  24.800  0.2549 -0.2277  0.4895
47225W        W48089  21.376  18.385  22.312 -0.2859 -0.3209 -0.0060
47226W        W48090  19.447  19.998  25.964 -0.0332 -0.1237  0.0007
47227W        W48091  22.762  21.041  26.861 -0.1020  0.1193 -0.0530
47228W        W48092  19.480  17.780   0.296  0.0854  0.0235  0.1517
47229W        W48093  18.110  21.120  26.384 -0.0004 -0.2745 -0.2646
47230W        W48094  19.975  19.108  26.864 -0.1002 -0.0229 -0.2141
47231W        W48095  21.782  21.067  26.219 -0.1179 -0.3076 -0.0991
47232W        W48096  16.250  22.051  28.630  0.0493 -0.0563  0.0047
47233W        W48097  21.823  18.156  27.206 -0.3546 -0.0056 -0.0559
47234W        W48098  23.239  22.924  25.910  0.0352 -0.3479 -0.0856
47235W        W48099  24.151  22.683  27.733  0.2770 -0.0101  0.2655
47236W        W48100  19.033  23.468  28.115 -0.1077  0.0056  0.0165
47237W        W48101  22.751  18.879   0.126  0.3861  0.2837 -0.1624
47238W        W48102  21.205  20.658  27.047  0.1462  0.1678  0.0478
47239W        W48103  24.993  19.771  26.362  0.1914  0.4142  0.2236
47240W        W48104  22.686  20.608  27.758  0.1843 -0.3512 -0.0699
47241W        W48105  22.678  17.958  25.394 -0.1746  0.0900  0.3621
47242W        W48106  21.873  21.468   2.295  0.0834  0.1143  0.1074
47243W        W48107  20.984  22.546  27.106  0.2328  0.5188  0.0611
47244W        W48108  20.929  23.395  25.136 -0.1996 -0.0116 -0.2356
47245W        W48109  21.488  19.384   0.976  0.2450 -0.0995 -0.3323
47246W        W48110  19.390  18.163   0.648 -0.0231  0.2239  0.2848
47247W        W48111  19.029  21.938  27.306 -0.0412  0.2651 -0.0691
47248W        W48112  20.982  19.359   1.068  0.3015 -0.1828  0.1060
47249W        W48113  21.555  20.273   0.473 -0.0628 -0.1596  0.0416
47250W        W48114  22.469  20.074  25.460 -0.0115 -0.0156 -0.2845
47251W        W48115  17.314  18.864  27.266 -0.2076  0.1437 -0.0331
47252W        W48116  16.473  20.990  27.716 -0.1983 -0.0188  0.0136
47253W        W48117  20.354  19.613   2.435 -0.0062  0.0328 -0.0961
47254W        W48118  19.698  20.020  28.230  0.2724 -0.0094  0.3847
47255W        W48119  22.245  17.493  28.491  0.1233  0.2869 -0.1979
47256W        W48120  22.461  19.027  28.886  0.2708  0.0791 -0.0008
47257W        W48121  21.518  21.508  29.083 -0.0516  0.0192 -0.0095
47258W        W48122  18.577  20.702  26.689 -0.0921 -0.0779 -0.1371
47259W        W48123  21.896  19.086  27.996  0.1324 -0.0971  0.1794
47260W        W48124  21.163  22.927  27.411 -0.1266  0.3269 -0.4376
47261W        W48125  18.939  20.777  27.055  0.1449 -0.0391  0.1468
47262W        W48126  22.375  19.269  27.828  0.2601 -0.0065  0.1397
47263W        W48127  21.106  20.850  25.494  0.0789  0.1319  0.0606
47264W        W48128  20.274  18.817  27.315 -0.1669  0.1047 -0.1216
47265W        W48129  19.635  18.484   1.120  0.1530  0.1957 -0.0487
47266W        W48130  21.017  23.531  26.435 -0.2340 -0.0475  0.0393
47267W        W48131  22.911  20.249   0.517 -0.2528  0.2155 -0.0755
47268W        W48132  21.609  19.812  27.510  0.0832  0.1573 -0.0489
47269W        W48133  19.660  19.576  26.840 -0.0826  0.0717  0.3290
47270W        W48134  16.523  25.518   1.684 -0.3401  0.0646 -0.1752
47271W        W48135  19.109  22.515   4.504 -0.1935  0.0036  0.0971
47272W        W48136  21.644  21.620   1.793  0.0267  0.1626 -0.0307
47273W        W48137  23.272  22.372   3.300 -0.1644  0.0823  0.1496
47274W        W48138  20.622  25.360   2.859 -0.1342  0.0158  0.2686
47275W        W48139  21.818  22.421   2.174  0.4861  0.1434 -0.1899
47276W        W48140  15.527  23.806   2.200  0.0806  0.3585 -0.1872
47277W        W48141  19.570  24.464  27.643  0.0832  0.2550  0.1823
47278W        W48142  17.830  24.986   4.767 -0.1325  0.2343  0.1960
47279W        W48143  18.648  25.003   3.732  0.1512 -0.0528  0.0392
47280W        W48144  17.296  22.867   1.725  0.0706 -0.1351 -0.4220
47281W        W48145  20.561  21.140  28.602  0.0700  0.0533 -0.2316
47282W        W48146  20.694  21.738  27.566 -0.0076  0.1957 -0.1434
47283W        W48147  19.810  21.494   3.670 -0.1143  0.1516 -0.1532
47284W        W48148  20.899  23.750   3.726  0.1027 -0.0901 -0.0284
47285W        W48149  20.705  24.379  24.885 -0.1103  0.3111 -0.2458
47286W        W48150  18.589  25.382   2.653 -0.0816 -0.1064 -0.3861
47287W        W48151  18.125  23.925   4.061  0.4948  0.3315  0.2261
47288W        W48152  21.844  25.713   4.328  0.1125  0.0126 -0.0127
47289W        W48153  24.541  24.632   2.433 -0.1138 -0.3845 -0.0991
47290W        W48154  16.943  21.570   1.284  0.1108  0.0430 -0.0362
47291W        W48155  20.015  23.795   2.605  0.1173 -0.2950  0.3091
47292W        W48156  22.200  24.630   1.210 -0.3060 -0.1895  0.2248
47293W        W48157  18.189  22.359   5.449 -0.2846 -0.0010  0.1342
47294W        W48158  19.992  24.662   0.938  0.2141 -0.0526 -0.0253
47295W        W48159  18.926  24.433   5.058 -0.1948 -0.0508  0.0118
47296W        W48160  20.679  24.928  28.041  0.3452 -0.2710  0.1433
47297W        W48161  21.199  24.874   1.276  0.1516  0.2509 -0.1419
47298W        W48162  20.541  22.782   1.621 -0.2016  0.0610 -0.3623
47299W        W48163  20.401  24.817  27.523 -0.1172  0.2650  0.2223
47300W        W48164  23.072  23.749   3.907  0.2365 -0.2637 -0.1497
47301W        W48165  19.118  24.795   2.216 -0.0764 -0.0521 -0.0356
47302W        W48166  18.528  24.168   1.796 -0.2354 -0.0424  0.0339
47303W        W48167  19.779  21.745   4.149  0.0395  0.1911 -0.1163
47304W        W48168  21.979  23.516   1.741 -0.3888 -0.1194 -0.1886
47305W        W48169  17.885  22.158  28.985 -0.0656 -0.1505  0.1426
47306W        W48170  22.637  27.580   1.359 -0.1211  0.1071  0.2074
47307W        W48171  23.103  23.957   2.394 -0.0535 -0.0696 -0.0288
47308W        W48172  21.419  19.566   2.065  0.2231 -0.1713  0.0528
47309W        W48173  24.276  22.027   0.611  0.1572 -0.1138 -0.2261
47310W        W48174  24.605  21.245   3.301 -0.4991  0.1868 -0.1097
47311W        W48175  18.139  26.839   2.519  0.1470  0.1150 -0.1467
47312W        W48176  22.633  23.034   2.297 -0.0093 -0.2441  0.1573
47313W        W48177  19.918  23.896   2.106 -0.0137  0.0146  0.2514
47314W        W48178  17.149  24.874   0.922 -0.2453 -0.1050  0.3333
47315W        W48179  20.776  22.096   1.934  0.2109  0.0193 -0.3046
47316W        W48180  21.013  25.960   2.398  0.1183 -0.2359 -0.1969
47317W        W48181  20.173  23.194   2.406 -0.4463  0.2514 -0.0770
47318W        W48182  20.528  22.492  28.874 -0.1387 -0.1963  0.1507
47319W        W48183  20.302  23.197   3.356 -0.2530 -0.0270 -0.1951
47320W        W48184  20.983  22.425   1.619  0.3333  0.2112 -0.0555
47321W        W48185  17.560  25.732   3.134 -0.3698  0.0433  0.1010
47322W        W48186  21.039  24.162   0.531  0.0841  0.0246  0.1094
47323W        W48187  19.925  23.802  28.837  0.1207  0.1379  0.0525
47324W        W48188  19.808  26.154  28.495 -0.2295 -0.3061  0.0011
47325W        W48189  16.355  21.071   0.141 -0.1512  0.1631 -0.0553
47326W        W48190  19.360  21.586  27.639 -0.0539 -0.0010  0.0435
47327W        W48191  17.129  26.298   2.398  0.1359  0.0212  0.0566
47328W        W48192  18.872  25.356   1.514  0.1008 -0.1984  0.1378
47329W        W48193  21.303  21.818   0.955 -0.1466  0.0780 -0.1219
47330W        W48194  17.747  26.693   2.863  0.0461 -0.2353 -0.3905
47331W        W48195  18.993  26.370   3.461 -0.0930  0.0267 -0.2999
47332W        W48196  18.273  22.408   0.100 -0.0387 -0.4105 -0.1114
47333W        W48197  18.439  22.604   1.408  0.0140 -0.4952 -0.0692
47334W        W48198  21.885  24.031   0.451 -0.0744  0.0154  0.1047
47335W        W48199  18.788  26.103  27.552  0.2325 -0.0840 -0.0057
47336W        W48200  17.302  24.399  26.913  0.1045  0.0280 -0.1988
47337W        W48201  20.701  23.404  28.709 -0.0680  0.2006  0.0576
47338W        W48202  19.600  23.979   0.186  0.3172  0.2513 -0.0559
47339W        W48203  21.147  23.129   5.115  0.2789  0.0666 -0.2272
47340W        W48204  20.484  23.290   1.608 -0.3348 -0.2513 -0.1446
47341W        W48205  21.730  25.001   2.068 -0.1103  0.0563 -0.2425
47342W        W48206  21.408  22.036   2.241 -0.0750  0.0233  0.0198
47343W        W48207  22.834  23.491  27.759 -0.0761  0.3419 -0.4269
47344W        W48208  19.864  22.059   3.459  0.3208  0.1983  0.2128
47345W        W48209  16.520  21.488  28.498 -0.2770 -0.1269  0.1064
47346W        W48210  22.365  25.591   2.026  0.4279 -0.1708 -0.0948
47347W        W48211  22.619  21.616   1.491  0.0703  0.3469  0.2452
47348W        W48212  20.259  21.463   1.760  0.1019 -0.2244 -0.0328
47349W        W48213  17.477  23.617   1.664  0.0184  0.1955 -0.1333
47350W        W48214  18.169  23.963   2.217  0.2043 -0.1272  0.5074
47351W        W48215  18.162  22.806   2.759 -0.2554  0.4197 -0.1339
47352W        W48216  17.391  25.072   1.314 -0.2274  0.4145  0.2250
47353W        W48217  18.568  24.595   0.936 -0.0062  0.1178 -0.0478
47354W        W48218  21.860  20.486   1.302 -0.3230 -0.1873 -0.0723
47355W        W48219  21.540  24.041   1.970  0.1742  0.1586 -0.1245
47356W        W48220  19.636  20.611   5.441  0.4681 -0.0676  0.0358
47357W        W48221  24.198  23.908   3.092 -0.1957 -0.1370  0.1989
47358W        W48222  19.753  22.471   1.477 -0.0692  0.1198 -0.0877
47359W        W48223  20.956  19.920   2.347 -0.0832 -0.2244 -0.1651
47360W        W48224  24.022  22.435   2.174 -0.0884  0.0919 -0.0838
47361W        W48225  19.617  23.766   1.499  0.3150 -0.1259 -0.1399
47362W        W48226  20.801  23.805  28.380 -0.0199 -0.1665  0.0958
47363W        W48227  18.942  25.362   3.549 -0.2216  0.0210 -0.4385
47364W        W48228  21.175  22.962   3.899  0.0701  0.0262  0.2561
47365W        W48229  19.667  21.613   1.245  0.0761 -0.0661  0.0649
47366W        W48230  20.369  22.951   4.399 -0.0181 -0.0936 -0.2429
47367W        W48231  19.423  23.697   1.954  0.1308  0.1316 -0.1602
47368W        W48232  19.956  23.878  25.063  0.0278 -0.5044  0.2116
47369W        W48233  18.314  23.778   3.502 -0.0202 -0.1186 -0.1476
47370W        W48234  18.999  23.987  28.867  0.0360  0.0732 -0.2107
47371W        W48235  21.753  21.865   0.748  0.0097 -0.1728 -0.0224
47372W        W48236  23.006  20.309   3.518  0.1002 -0.0080  0.1592
47373W        W48237  18.548  23.951   4.294 -0.2174 -0.1840 -0.2401
47374W        W48238  21.858  21.146   0.127 -0.1413  0.1941 -0.2006
47375W        W48239  21.116  23.139   4.457 -0.2216 -0.1506 -0.0045
47376W        W48240  19.621  20.900   4.443  0.2382  0.4366  0.1189
47377W        W48241  15.529  24.513   0.371  0.0276  0.1237 -0.2108
47378W        W48242  19.687  24.909   2.912  0.0737 -0.0334  0.2205
47379W        W48243  19.247  23.389   1.437  0.2230  0.2996  0.0884
47380W        W48244  20.890  21.394   2.206 -0.4425 -0.0689  0.0791
47381W        W48245  22.149  25.906   2.909  0.0167 -0.1625  0.2061
47382W        W48246  21.390  22.068  29.035  0.0848  0.2197 -0.2387
47383W        W48247  19.293  21.900   1.040  0.1538  0.1143 -0.1375
47384W        W48248  19.894  21.977  28.831  0.3330 -0.2218 -0.0055
47385W        W48249  19.798  24.541   3.731  0.0254 -0.0605  0.0486
47386W        W48250  18.627  21.224  28.627  0.1212  0.0182 -0.1712
47387W        W48251  21.248  22.059  28.163  0.0766  0.0689  0.1438
47388W        W48252  21.558  24.271   3.316 -0.1618 -0.0039 -0.1664
47389W        W48253  19.972  25.609  28.192 -0.1429  0.1474  0.3332
47390W        W48254  24.009  24.787   1.677 -0.1044 -0.1568 -0.0381
47391W        W48255  21.328  22.797   0.878 -0.3135  0.0996  0.0927
47392W        W48256  19.441  22.856   1.747  0.1926 -0.1010 -0.4600
47393W        W48257  21.069  21.623  27.900 -0.0093 -0.0870 -0.0850
47394W        W48258  20.007  24.708   2.605  0.0436 -0.2182  0.3384
47395W        W48259  21.769  23.120   2.038 -0.0857  0.2345 -0.2875
47396W        W48260  23.847  22.225   0.457 -0.1214 -0.1179  0.1667
47397W        W48261  20.055  24.901   2.129  0.1016  0.3995 -0.2765
47398W        W48262  20.880  23.707   2.133 -0.0602  0.0700 -0.0355
47399W        W48263  19.967  22.362   4.887 -0.1910 -0.1941  0.0212
47400W        W48264  21.248  25.684   3.384  0.1285 -0.0677  0.0351
47401W        W48265  21.738  21.447   1.308  0.0806  0.1084  0.0530
47402W        W48266  22.562  22.794   1.858  0.0296  0.0456 -0.2147
47403W        W48267  17.760  22.919   0.346  0.0345 -0.5105  0.3724
47404W        W48268  21.390  19.021   0.120  0.1067  0.0112  0.0978
47405W        W48269  22.155  20.708   3.669 -0.0219  0.1722  0.0639
47406W        W48270  21.045  23.430   1.608  0.2918  0.2507 -0.4119
47407W        W48271  21.993  25.541  28.733 -0.0918 -0.1761  0.2419
47408W        W48272  19.186  21.323  28.898 -0.2494 -0.0161 -0.1299
47409W        W48273  19.733  24.075   3.157 -0.0904  0.0442 -0.0242
47410W        W48274  20.264  24.643  25.044 -0.3211 -0.0958  0.1992
47411W        W48275  20.001  23.335   0.855 -0.1153 -0.1681 -0.0457
47412W        W48276  22.444  22.937   5.729  0.0652  0.0849 -0.0869
47413W        W48277  17.891  23.168  27.276  0.0501  0.1899 -0.2097
47414W        W48278  18.979  22.573   1.780 -0.1508  0.1693 -0.0101
47415W        W48279  22.303  23.387   2.154  0.1680 -0.0639  0.1894
47416W        W48280  18.616  24.757   2.105 -0.3885  0.0682  0.1292
47417W        W48281  21.932  23.024   5.781 -0.2186 -0.3161 -0.1980
47418W        W48282  24.300  25.832   3.484  0.3664  0.0688 -0.0473
47419W        W48283  17.764  24.245   2.560  0.0482 -0.0315 -0.2779
47420W        W48284  20.476  25.126   3.307  0.1178  0.1623  0.4540
47421W        W48285  17.695  22.245   3.510 -0.2071  0.0555 -0.0854
47422W        W48286  18.180  25.981   1.760 -0.1707  0.1251 -0.1130
47423W        W48287  22.381  20.271   0.604 -0.1179 -0.2249 -0.0155
47424W        W48288  19.584  24.673   2.347  0.1241 -0.0079 -0.2100
47425W        W48289  20.293  24.707   0.129  0.0114  0.1579  0.0461
47426W        W48290  19.190  22.690  29.024  0.3283 -0.0462 -0.1231
47427W        W48291  20.387  22.925   1.070  0.0448 -0.0668 -0.4558
47428W        W48292  17.659  24.332   2.088  0.0101  0.0275 -0.2668
47429W        W48293  17.863  24.472   4.598  0.1771 -0.1641  0.2242
47430W        W48294  21.469  24.189   4.510  0.3504 -0.0236  0.2878
47431W        W48295  19.936  23.407   3.036  0.2337 -0.1792 -0.2039
47432W        W48296  19.300  22.263   1.407 -0.2871  0.0166  0.2438
47433W        W48297  16.866  22.173   0.663  0.1181  0.5499 -0.0307
47434W        W48298  19.019  23.394   3.779 -0.0135  0.0285 -0.0807
47435W        W48299  18.335  25.099   2.314 -0.0624  0.0509 -0.4177
47436W        W48300  19.375  23.955   3.460 -0.0057  0.2476 -0.0607
47437W        W48301  21.287  25.307  26.425  0.0424 -0.3760  0.1715
47438W        W48302  18.289  23.459   1.084  0.0753  0.0498  0.1506
47439W        W48303  22.204  22.440   1.893  0.2144  0.0641  0.1074
47440W        W48304  22.091  23.746   0.819  0.0403 -0.2322  0.1409
47441W        W48305  22.313  24.253  28.849  0.1624  0.2063 -0.1275
47442W        W48306  21.472  20.179  28.823 -0.0151  0.2543 -0.1380
47443W        W48307  24.168  24.877  28.853  0.0706 -0.1042  0.0442
47444W        W48308  17.467  23.455   3.382  0.2715  0.1300 -0.1445
47445W        W48309  18.060  23.434   2.139 -0.1904  0.2798 -0.0530
47446W        W48310  15.110  24.281   1.440  0.0582 -0.0073  0.2106
47447W        W48311  20.235  24.919   3.712 -0.0137  0.1369  0.0952
47448W        W48312  19.618  24.493  29.103  0.1557  0.2005 -0.0417
47449W        W48313  22.461  21.111   1.681  0.2097  0.2012 -0.0383
47450W        W48314  18.998  23.862   1.622 -0.1534 -0.2690 -0.0563
47451W        W48315  20.235  26.469   0.512 -0.0075 -0.2072 -0.4790
47452W        W48316  16.880  21.400  28.896  0.0449  0.0337 -0.2868
47453W        W48317  24.373  22.541   3.675 -0.2321 -0.3137  0.0593
47454W        W48318  18.763  22.522  28.644  0.0159  0.1480 -0.1019
47455W        W48319  17.532  21.369   0.452 -0.1168 -0.0077 -0.2026
47456W        W48320  16.798  23.871   2.832 -0.0000 -0.4275  0.4035
47457W        W48321  20.796  25.579   0.325  0.4610 -0.1678 -0.2637
47458W        W48322  20.765  25.072   0.289 -0.2798 -0.5108  0.0962
47459W        W48323  17.955  22.516   3.088  0.1257  0.0608 -0.2749
47460W        W48324  19.937  24.261   2.437  0.1612 -0.2708 -0.0915
47461W        W48325  18.522  23.401   3.293  0.0783  0.0167 -0.2179
47462W        W48326  20.940  24.717   1.700  0.1516 -0.1147  0.1482
47463W        W48327  19.835  23.772   3.578 -0.1984 -0.2571 -0.0250
47464W        W48328  20.029  24.275  29.038  0.2597 -0.0083 -0.0104
47465W        W48329  20.475  22.244   4.026 -0.1417  0.0564  0.1166
47466W        W48330  15.261  24.480   3.849  0.0238 -0.0477  0.1007
47467W        W48331  21.446  20.976  29.006  0.1341 -0.1042  0.1527
47468W        W48332  16.152  22.012  27.704  0.0263 -0.0374  0.2777
47469W        W48333  20.037  21.455  28.745  0.2685  0.0532  0.2707
47470W        W48334  22.331  20.868  25.539  0.0872 -0.1105 -0.1091
47471W        W48335  20.554  24.112   1.309  0.2116 -0.1242 -0.0868
47472W        W48336  17.689  23.389   0.770  0.0837  0.1754  0.1163
47473W        W48337  15.749  21.355   1.876  0.3310 -0.2157 -0.2153
47474W        W48338  19.012  23.944   4.539  0.0309  0.2997  0.1130
47475W        W48339  19.732  24.092   4.013 -0.0283 -0.1261 -0.0483
47476W        W48340  19.489  26.756   3.160  0.1155  0.0731 -0.1812
47477W        W48341  16.809  24.860  29.128  0.0810 -0.1940  0.2150
47478W        W48342  19.292  23.474   4.472  0.0838  0.0216 -0.0529
47479W        W48343  17.986  23.530   1.485 -0.1809 -0.0159  0.0853
47480W        W48344  18.735  26.336   2.848  0.1225  0.1787 -0.1174
47481W        W48345  20.591  20.658   0.935 -0.0036  0.0535  0.2577
47482W        W48346  23.817  23.378   3.760  0.1888 -0.3743 -0.0968
47483W        W48347  23.313  24.187   1.154  0.0272  0.0979 -0.2702
47484W        W48348  22.181  22.162  27.707 -0.0879  0.0828  0.0573
47485W        W48349  19.491  24.678   1.190 -0.0996 -0.0720 -0.0128
47486W        W48350  19.575  24.263   2.066 -0.1151  0.0959  0.0661
47487W        W48351  17.852  21.326   0.107  0.0584  0.1573  0.0457
47488W        W48352  21.267  24.167   2.855  0.4503  0.1775 -0.1520
47489W        W48353  22.144  22.825   2.206 -0.0488 -0.1844  0.0721
47490W        W48354  21.044  28.067   1.982  0.1106  0.0917 -0.2680
47491W        W48355  20.790  23.226   1.160 -0.1067  0.2300  0.0135
47492W        W48356  21.662  25.122   1.502 -0.3483 -0.0564  0.4973
47493W        W48357  18.780  21.013   3.457  0.1819 -0.0685 -0.2195
47494W        W48358  19.204  25.160   3.146  0.2285 -0.0933  0.0798
47495W        W48359  21.199  23.300  29.003 -0.2243 -0.2139  0.0346
47496W        W48360  20.481  23.635   2.522  0.1220 -0.0583 -0.0809
47497W        W48361  22.378  22.943   3.804  0.1005 -0.0205 -0.1169
47498W        W48362  17.506  20.816   3.065 -0.1081  0.1909 -0.0838
47499W        W48363  22.115  23.185   3.477  0.2545 -0.1351  0.3438
47500W        W48364  19.610  25.433   0.832  0.0398 -0.4420 -0.3737
47501W        W48365  20.453  23.254   2.875  0.1808 -0.1003  0.0757
47502W        W48366  15.534  21.790  28.944 -0.0699 -0.0895 -0.1536
47503W        W48367  21.703  23.123   3.890  0.1631 -0.0458 -0.0265
47504W        W48368  21.434  21.281   0.898 -0.0223 -0.1512  0.1396
47505W        W48369  20.390  21.987   0.434  0.3197 -0.1645  0.0778
47506W        W48370  21.006  23.329   0.664  0.0882  0.0085 -0.2004
47507W        W48371  21.179  25.219   1.642 -0.0153 -0.1182  0.0139
47508W        W48372  20.496  25.326   0.666 -0.0436 -0.0637  0.3529
47509W        W48373  17.493  21.983   4.342  0.0232 -0.0972 -0.2245
47510W        W48374  18.166  24.383  28.014  0.0673 -0.1011  0.1717
47511W        W48375  17.538  21.229   1.708  0.0686 -0.0238  0.1406
47512W        W48376  19.708  23.343  28.728  0.0235  0.2003 -0.1678
47513W        W48377  16.924  23.422  27.330  0.0759 -0.0801 -0.0378
47514W        W48378  22.855  24.263   2.011 -0.1052 -0.1539 -0.1965
47515W        W48379  18.020  22.372   4.296 -0.3649  0.0152 -0.0313
47516W        W48380  22.539  26.458  28.598  0.0519 -0.0162  0.0563
47517W        W48381  19.306  24.165   1.428 -0.1394  0.2319 -0.1356
47518W        W48382  17.564  24.814   2.217  0.0785  0.4106 -0.1084
47519W        W48383  19.144  28.780   3.157 -0.0014 -0.1666  0.3169
47520W        W48384  22.483  23.117   4.372  0.3099  0.2288 -0.2211
47521W        W48385  20.439  21.644   2.338  0.1593 -0.1072  0.0429
47522W        W48386  16.230  23.715   0.427 -0.1183 -0.1328  0.0617
47523W        W48387  22.917  23.166   1.798 -0.0560  0.1730 -0.1322
47524W        W48388  21.632  22.789   2.463 -0.1690  0.0761  0.1408
47525W        W48389  18.127  21.772   2.708 -0.0746 -0.2379 -0.2008
47526W        W48390  21.403  24.609  29.070 -0.1098  0.1331  0.1163
47527W        W48391  20.776  22.925  29.011  0.0560 -0.1632  0.4220
47528W        W48392  17.110  20.697  28.751 -0.0675  0.0511  0.2427
47529W        W48393  17.427  26.157   2.956 -0.0962 -0.1234  0.2364
47530W        W48394  20.493  22.922   3.755  0.3666 -0.0014 -0.3644
47531W        W48395  18.010  22.879   4.366  0.1208  0.0047  0.0391
47532W        W48396  19.061  23.006   0.913 -0.3256  0.1053  0.1165
47533W        W48397  18.879  23.816   3.682 -0.2085 -0.1112 -0.0186
47534W        W48398  21.154  20.862   0.826 -0.1725  0.1002  0.0532
47535W        W48399  20.281  23.767   3.038 -0.1596  0.0581  0.0326
47536W        W48400  20.616  23.570   0.263 -0.2515  0.2509  0.0101
47537W        W48401  21.687  22.252  28.206 -0.0745 -0.0116  0.1308
47538W        W48402  18.322  23.273  28.025 -0.0393  0.0019  0.0285
47539W        W48403  20.516  23.284   0.733  0.0279 -0.0836 -0.0552
47540W        W48404  20.642  20.416   0.466 -0.0455  0.0840 -0.1672
47541W        W48405  20.280  20.324   1.230  0.0439  0.2024 -0.1952
47542W        W48406  23.381  24.367   2.609  0.0908  0.0260  0.0751
47543W        W48407  19.870  20.767   2.004 -0.2211  0.0578  0.1040
47544W        W48408  18.006  20.870   3.186 -0.1086 -0.0847 -0.0918
47545W        W48409  18.259  21.810  28.693 -0.3014 -0.0137 -0.0006
47546W        W48410  20.232  22.725  26.930  0.2351 -0.1914 -0.3586
47547W        W48411  18.850  24.743   5.674  0.2698 -0.0648 -0.1849
47548W        W48412  20.088  22.502  28.589  0.1603  0.1313  0.2152
47549W        W48413  18.758  22.554   0.617 -0.1151  0.0123 -0.1047
47550W        W48414  14.706  24.741  28.429  0.2515  0.2788  0.1526
47551W        W48415  19.007  24.403   1.865 -0.3436  0.0559 -0.5100
47552W        W48416  21.646  23.677   0.042  0.1952 -0.2346 -0.0982
47553W        W48417  20.000  23.379   1.348  0.0941  0.0631 -0.1791
47554W        W48418  22.446  25.064   1.306  0.1676  0.0265 -0.0066
47555W        W48419  19.539  24.005   2.585 -0.3279 -0.2870 -0.1868
47556W        W48420  22.230  22.329   1.020 -0.0475 -0.0002 -0.0054
47557W        W48421  22.391  25.588   1.470 -0.2058  0.1341 -0.1588
47558W        W48422  20.001  22.293   0.638 -0.1370  0.0307  0.5262
47559W        W48423  21.740  22.130   1.742  0.0030 -0.3231  0.0094
47560W        W48424  20.189  21.428  27.574 -0.1048 -0.1796  0.0904
47561W        W48425  14.695  23.286   1.379 -0.0443 -0.4397  0.1994
47562W        W48426  20.467  24.196   0.317  0.3201  0.2262  0.0764
47563W        W48427  20.562  22.290   1.355  0.4385 -0.0843  0.1554
47564W        W48428  20.863  21.997   0.624 -0.0816  0.0985  0.3871
47565W        W48429  22.061  22.900   4.203  0.2598  0.2129 -0.0084
47566W        W48430  20.936  19.443   0.535 -0.3625 -0.1534 -0.1322
47567W        W48431  17.945  24.015   1.768  0.3116 -0.1120  0.0903
47568W        W48432  19.250  24.766   2.751 -0.2396  0.0113 -0.0071
47569W        W48433  17.442  23.013   2.801 -0.2210 -0.0610 -0.1742
47570W        W48434  20.989  25.432   4.841  0.2373  0.1873  0.0452
47571W        W48435  19.951  26.172   0.801 -0.2246 -0.2534  0.1837
47572W        W48436  20.244  23.514  28.534 -0.3162 -0.0976 -0.0264
47573W        W48437  18.123  25.430   1.902  0.0850 -0.0568  0.0551
47574W        W48438  21.333  25.169   5.856 -0.0361  0.1781  0.0170
47575W        W48439  16.682  23.041  26.246 -0.1669 -0.2796  0.2563
47576W        W48440  19.275  23.185  28.634  0.3748 -0.2506 -0.0719
47577W        W48441  17.551  22.956   2.189 -0.2606  0.0660  0.1663
47578W        W48442  16.399  23.149  26.978 -0.0488  0.0833  0.1452
47579W        W48443  19.152  21.047   4.188 -0.3210  0.1839 -0.1200
47580W        W48444  21.007  24.628  28.243 -0.1229 -0.2420 -0.0590
47581W        W48445  17.227  24.372   3.713  0.1560  0.4276  0.0397
47582W        W48446  20.114  24.232   0.633  0.2363  0.1477  0.0935
47583W        W48447  20.973  25.049   2.543 -0.2412 -0.1841 -0.1490
47584W        W48448  18.174  22.620   0.695  0.0876 -0.3690  0.0812
47585W        W48449  20.104  21.509   2.680  0.4123  0.0632 -0.2768
47586W        W48450  20.116  24.176   3.455 -0.1730  0.0029  0.2155
47587W        W48451  16.590  23.586   1.615  0.3205 -0.1486  0.0514
47588W        W48452  19.574  27.006   2.326  0.0757 -0.0647  0.0731
47589W        W48453  19.639  26.559  28.141 -0.1269  0.0206 -0.3740
47590W        W48454  16.687  25.104   4.574  0.1152 -0.1860 -0.0373
47591W        W48455  18.195  24.323   1.423  0.2090  0.1061  0.1533
47592W        W48456  21.484  23.709   1.573  0.1275 -0.4678  0.0359
47593W        W48457  18.317  25.623   2.996  0.1069 -0.1732 -0.0208
47594W        W48458  23.056  19.908   1.437  0.2318  0.2550  0.1043
47595W        W48459  19.017  25.025  28.980  0.2536  0.0617  0.2391
47596W        W48460  19.726  22.727   0.826  0.1877  0.0726  0.0388
47597W        W48461  18.821  23.489   2.858 -0.1510  0.1152  0.1043
47598W        W48462  20.517  21.461   5.094  0.4401  0.2170  0.1460
47599W        W48463  20.484  22.414   0.734 -0.2654 -0.2826  0.1501
47600W        W48464  22.844  22.334   5.347 -0.0724 -0.0391  0.0063
47601W        W48465  21.905  23.303   2.527 -0.1096  0.1913 -0.0826
47602W        W48466  21.294  24.027   4.962  0.1008  0.2767  0.0081
47603W        W48467  22.181  24.214   7.120  0.3183  0.1166 -0.0582
47604W        W48468  20.327  22.687   2.320  0.2232  0.1614 -0.3197
47605W        W48469  23.340  26.113   0.012 -0.1865  0.0322 -0.1281
47606W        W48470  18.022  24.058  28.614  0.0045 -0.1625 -0.1140
47607W        W48471  20.877  21.927   3.192 -0.1114  0.0795 -0.0716
47608W        W48472  21.308  23.865   2.346  0.0649 -0.2179  0.1318
47609W        W48473  17.168  22.372   3.359 -0.0784 -0.3852  0.1321
47610W        W48474  19.527  20.888  28.871 -0.0069  0.0002 -0.0826
47611W        W48475  18.713  28.150   1.096  0.1703  0.1489 -0.1328
47612W        W48476  21.042  23.141   3.027 -0.0789  0.0528 -0.0776
47613W        W48477  20.169  22.951   1.938  0.1563  0.1195 -0.0974
47614W        W48478  18.989  24.750   1.272 -0.0571  0.1297  0.0148
47615W        W48479  20.099  24.684   1.456  0.3544  0.0680 -0.4113
47616W        W48480  19.094  23.218   1.848 -0.1711  0.0225 -0.1143
47617W        W48481  19.261  20.499  28.286  0.1080 -0.1275  0.0059
47618W        W48482  19.344  23.158   2.277  0.2259 -0.1645  0.1463
47619W        W48483  22.212  21.752  28.085 -0.3069 -0.0235  0.2737
47620W        W48484  21.169  22.948   2.288 -0.2607  0.1623  0.0413
47621W        W48485  19.613  23.181   1.154 -0.1651  0.0189 -0.2513
47622W        W48486  19.847  24.572   0.359 -0.0937  0.2301  0.1015
47623W        W48487  22.528  21.375  27.141 -0.0894 -0.0991 -0.3692
47624W        W48488  17.936  25.355   3.236 -0.0078  0.2027  0.0147
47625W        W48489  19.361  19.845   4.583  0.0156  0.2767  0.1009
47626W        W48490  18.733  22.215   6.291  0.1756 -0.1864  0.1961
47627W        W48491  15.386  23.087   0.906  0.0498  0.2313  0.1865
47628W        W48492  16.343  24.421  28.315  0.0908 -0.0582 -0.1897
47629W        W48493  20.644  23.165   5.143  0.4198  0.0465  0.1961
47630W        W48494  18.492  23.340  29.128  0.1037 -0.0275 -0.0299
47631W        W48495  21.261  20.567  28.090 -0.0557 -0.2428 -0.2781
47632W        W48496  20.988  26.819   3.100  0.0635 -0.0851 -0.0469
47633W        W48497  22.937  24.548   4.481  0.0065 -0.0027  0.2124
47634W        W48498  22.219  25.186   2.300  0.0670  0.3063  0.2431
47635W        W48499  21.360  21.950   1.472 -0.2287  0.1237 -0.1277
47636W        W48500  20.861  22.886  28.431  0.1744 -0.0394  0.3417
47637W        W48501  21.710  21.665  28.109 -0.1023  0.0758  0.2099
47638W        W48502  19.690  23.707   0.584 -0.0124 -0.0048 -0.1326
47639W        W48503  20.859  21.837   1.463 -0.1208 -0.0039 -0.2173
47640W        W48504  20.364  25.295   0.169  0.4116  0.1242 -0.3487
47641W        W48505  20.051  25.708   2.790 -0.3368  0.2624  0.1666
47642W        W48506  21.929  25.628   2.317 -0.0267  0.1577  0.0134
47643W        W48507  18.654  20.317   5.747  0.2840  0.0690 -0.0196
47644W        W48508  18.493  23.817  28.880 -0.1612 -0.0677 -0.1978
47645W        W48509  19.529  25.236   5.429  0.0086 -0.0639 -0.2917
47646W        W48510  20.584  24.034   3.964 -0.0605 -0.0429  0.0479
47647W        W48511  19.940  22.793   4.602  0.0475  0.1208  0.0256
47648W        W48512  20.232  24.365   3.857  0.0075  0.1934  0.2278
47649W        W48513  18.635  25.805  28.606  0.2598 -0.2490 -0.1308
47650W        W48514  16.185  22.229   1.469  0.2302  0.1695  0.0132
47651W        W48515  19.140  21.245   3.245  0.0365 -0.1311 -0.0233
47652W        W48516  20.411  24.793   2.884  0.3111  0.2844  0.1829
47653W        W48517  19.659  23.296   1.730 -0.3164 -0.1427  0.3454
47654W        W48518  23.240  23.863   0.724  0.2305  0.2735 -0.1731
47655W        W48519  20.233  25.566   2.324 -0.0308 -0.0157  0.2877
47656W        W48520  17.851  23.136   2.582 -0.1452 -0.1572 -0.1941
47657W        W48521  21.641  23.280   0.804 -0.1955 -0.0613 -0.1645
47658W        W48522  20.262  24.825   5.052  0.0143 -0.0689 -0.0241
47659W        W48523  22.386  24.662   2.046  0.1572  0.0841 -0.1381
47660W        W48524  23.260  24.671   3.068 -0.0149 -0.4687 -0.0198
47661W        W48525  21.314  26.426   1.961  0.1194 -0.2266 -0.2976
47662W        W48526  16.529  24.672   0.352 -0.2139  0.1019  0.0809
47663W        W48527  19.752  24.667  26.314 -0.1077 -0.0423 -0.1005
47664W        W48528  20.613  24.671   1.262  0.0566  0.1555  0.1696
47665W        W48529  21.016  24.318   1.427 -0.0328  0.1152  0.1030
47666W        W48530  20.269  27.313   0.210  0.0035 -0.0485  0.0694
47667W        W48531  19.386  24.983  27.783 -0.0883 -0.2064  0.1893
47668W        W48532  16.866  24.138   4.877 -0.1197  0.1111  0.0179
47669W        W48533  17.700  24.021   6.847  0.2349 -0.4000 -0.3585
47670W        W48534  20.854  22.335   4.940 -0.1260  0.0998  0.1551
47671W        W48535  19.612  24.670   7.536  0.0320  0.0043 -0.0096
47672W        W48536  20.069  25.623   3.942  0.1794  0.0243  0.0165
47673W        W48537  18.452  22.406   7.470 -0.1543  0.2483 -0.1051
47674W        W48538  19.449  21.550   5.833 -0.0079  0.3451 -0.2850
47675W        W48539  20.734  22.625   4.157  0.2523  0.2936  0.0227
47676W        W48540  22.329  28.817   5.912 -0.0167 -0.0478  0.2393
47677W        W48541  18.069  19.365   7.763 -0.1702  0.3226 -0.3172
47678W        W48542  19.130  21.387   6.139  0.0819 -0.1529 -0.1222
47679W        W48543  21.842  18.557   8.404 -0.1315  0.1257 -0.0206
47680W        W48544  19.766  24.875   5.042  0.0758 -0.2466  0.0450
47681W        W48545  22.128  20.092   8.541  0.3334 -0.1433  0.3827
47682W        W48546  18.905  22.600   7.048 -0.0180  0.0042 -0.0221
47683W        W48547  18.747  25.343   6.584 -0.1771 -0.1155 -0.0155
47684W        W48548  19.253  23.576   6.038 -0.0898  0.0111  0.0390
47685W        W48549  16.600  23.227   2.575  0.0912  0.0722  0.0302
47686W        W48550  20.180  23.317   7.120 -0.0620  0.1148  0.2440
47687W        W48551  23.375  24.795   4.436 -0.0066 -0.3593 -0.0558
47688W        W48552  20.728  19.757   7.675  0.2068  0.0349  0.0397
47689W        W48553  20.683  20.828   7.439  0.1648  0.2631  0.2941
47690W        W48554  20.634  25.390   4.448  0.0177 -0.1131 -0.1038
47691W        W48555  20.859  22.148   4.451 -0.1135 -0.1841 -0.1225
47692W        W48556  19.683  23.374   5.298  0.0086 -0.0909 -0.0174
47693W        W48557  19.766  25.072   9.042  0.1362 -0.0065 -0.3128
47694W        W48558  23.014  22.838   9.286  0.0703  0.1418  0.2301
47695W        W48559  21.297  25.066   5.116 -0.0328  0.2196 -0.0862
47696W        W48560  19.539  23.773   4.906 -0.1630 -0.0261 -0.0845
47697W        W48561  18.996  21.144   6.535 -0.0073  0.2115  0.1592
47698W        W48562  19.284  24.190   3.044  0.2935 -0.3288  0.1683
47699W        W48563  24.044  24.425   9.371  0.2116  0.0579 -0.2195
47700W        W48564  19.511  25.303   5.936 -0.0332 -0.0659  0.1263
47701W        W48565  20.388  24.277   7.208  0.4086  0.1203 -0.2576
47702W        W48566  15.600  23.851   7.862 -0.0156 -0.0639  0.0301
47703W        W48567  20.686  25.049   6.745  0.0073 -0.1419 -0.0092
47704W        W48568  17.505  23.269   1.324 -0.2705  0.2165  0.2537
47705W        W48569  19.844  25.638   7.402  0.2311 -0.1823 -0.0126
47706W        W48570  22.316  24.453   6.367 -0.1789  0.2690 -0.0182
47707W        W48571  21.361  21.248   4.765  0.2187  0.0647  0.1494
47708W        W48572  20.466  21.762   4.269  0.2368 -0.1027  0.3475
47709W        W48573  23.493  24.424   5.158 -0.0399  0.4606  0.0971
47710W        W48574  22.056  24.642   4.417 -0.2725  0.0845 -0.0666
47711W        W48575  21.944  24.202   4.839 -0.1312  0.1801 -0.0867
47712W        W48576  19.658  27.100   5.314 -0.1103  0.1610 -0.3644
47713W        W48577  19.357  26.247   3.066 -0.1696 -0.0557 -0.0792
47714W        W48578  17.360  19.401   9.004  0.2835 -0.2172 -0.3846
47715W        W48579  22.840  23.191   6.398  0.2180 -0.0260 -0.2540
47716W        W48580  21.477  20.331   5.062 -0.1660 -0.3083 -0.2482
47717W        W48581  21.745  23.593   5.641  0.0480  0.1222 -0.1197
47718W        W48582  18.982  21.241   5.729  0.0271 -0.0805  0.2063
47719W        W48583  19.615  21.127   3.433  0.4041 -0.0030  0.1270
47720W        W48584  21.050  26.431   4.673 -0.1475  0.1820 -0.0630
47721W        W48585  20.421  24.682   6.946  0.0338  0.0658  0.2335
47722W        W48586  21.353  20.467   4.197  0.1667 -0.0973  0.2542
47723W        W48587  20.149  23.959   1.576 -0.2792 -0.0794 -0.0016
47724W        W48588  19.141  22.249   3.485 -0.0192  0.2525 -0.0899
47725W        W48589  20.330  24.850   6.414 -0.0902 -0.3777 -0.0269
47726W        W48590  17.877  23.421   5.152 -0.0479 -0.1130 -0.0570
47727W        W48591  19.819  24.944   4.531  0.0912  0.3592 -0.0307
47728W        W48592  24.038  25.590   3.129 -0.0795  0.1193 -0.3794
47729W        W48593  17.804  23.016   4.868 -0.5084 -0.2860 -0.1062
47730W        W48594  20.196  24.276   6.746 -0.1252 -0.1337 -0.1792
47731W        W48595  18.755  25.467   5.330  0.2127 -0.2133  0.2400
47732W        W48596  18.298  20.199   6.107 -0.0072 -0.1039  0.0566
47733W        W48597  22.030  21.038   3.331  0.3227 -0.0780  0.2666
47734W        W48598  21.738  22.340   5.535 -0.0175  0.3151  0.1773
47735W        W48599  19.402  19.832   5.379 -0.0160  0.0355 -0.2394
47736W        W48600  18.522  23.228   2.147 -0.1559 -0.0123 -0.2099
47737W        W48601  22.689  23.231   4.768 -0.1943 -0.2776  0.2264
47738W        W48602  20.539  25.395   3.745 -0.0639  0.0897 -0.1316
47739W        W48603  19.800  21.260   6.012  0.0606 -0.1200  0.0494
47740W        W48604  22.701  25.878   7.081 -0.0030 -0.2115 -0.0157
47741W        W48605  20.948  22.676   6.918  0.0181  0.0097 -0.2887
47742W        W48606  22.189  24.486   5.822  0.2423  0.3113 -0.0386
47743W        W48607  21.654  22.464   7.216 -0.0313  0.1110  0.1050
47744W        W48608  18.470  24.182   3.714  0.3344  0.0604  0.0737
47745W        W48609  18.201  23.886   8.278  0.0788  0.1925 -0.1550
47746W        W48610  21.148  22.752   3.322 -0.0864 -0.0719 -0.1881
47747W        W48611  20.349  23.350   5.784 -0.1417 -0.1685 -0.5293
47748W        W48612  16.395  22.515   5.909 -0.0077 -0.3816 -0.0990
47749W        W48613  19.202  24.898   9.766  0.1534 -0.0595 -0.2034
47750W        W48614  19.534  22.606   5.603  0.1348  0.3997 -0.2371
47751W        W48615  16.072  23.249   6.331 -0.1463  0.2700  0.0397
47752W        W48616  21.834  21.386   5.464 -0.2538 -0.1510 -0.0212
47753W        W48617  19.542  21.601   2.385  0.0529  0.0834  0.2296
47754W        W48618  18.108  25.487   5.410 -0.0870  0.1865  0.0677
47755W        W48619  20.331  20.150   3.191 -0.1576 -0.0682 -0.1441
47756W        W48620  19.621  24.351   5.601 -0.4248 -0.0032 -0.2334
47757W        W48621  21.152  22.986   6.557  0.0253  0.1231  0.1345
47758W        W48622  22.223  21.887   3.339  0.3113 -0.0010 -0.1230
47759W        W48623  18.807  22.868   7.594  0.0795  0.3549  0.0835
47760W        W48624  19.316  24.452   3.793 -0.0386 -0.1974  0.1230
47761W        W48625  19.497  23.983   4.463 -0.1460 -0.1244  0.1516
47762W        W48626  20.318  20.572   3.594  0.1756 -0.1890 -0.0403
47763W        W48627  18.971  23.938   2.161  0.0644 -0.0177 -0.1155
47764W        W48628  23.274  23.537   2.661 -0.2550 -0.2533 -0.2544
47765W        W48629  17.212  24.401   6.774 -0.2180 -0.0484 -0.0179
47766W        W48630  18.467  19.782   4.540 -0.0196 -0.0084  0.1483
47767W        W48631  25.068  20.066   5.013 -0.1731 -0.0962 -0.3758
47768W        W48632  21.632  24.208   6.856 -0.2169  0.0705  0.1284
47769W        W48633  19.907  24.160   7.227 -0.1471  0.2605  0.3772
47770W        W48634  20.240  21.325   5.822  0.2931  0.0487  0.0407
47771W        W48635  22.019  23.768   6.048  0.4549 -0.2302  0.0917
47772W        W48636  21.264  20.370   8.169 -0.0871  0.2223  0.3286
47773W        W48637  19.308  21.686   8.248  0.0889 -0.1918  0.0346
47774W        W48638  16.911  24.313   6.399 -0.1586 -0.1407 -0.2157
47775W        W48639  21.422  23.564   8.766 -0.2147  0.0210 -0.3359
47776W        W48640  19.070  19.834   5.002  0.2126 -0.0437  0.1549
47777W        W48641  18.816  22.043   3.897 -0.2146  0.1942 -0.0563
47778W        W48642  21.159  24.886   6.660 -0.0985  0.1964  0.3896
47779W        W48643  21.274  24.518   4.882  0.2488  0.0148  0.1196
47780W        W48644  22.324  23.034   5.162  0.1353  0.1907  0.0067
47781W        W48645  19.895  26.201   5.081  0.0366 -0.1449  0.0698
47782W        W48646  24.415  26.048   1.372 -0.0221 -0.2465  0.0582
47783W        W48647  23.454  23.442   8.135  0.0222  0.0918  0.1061
47784W        W48648  21.425  21.982   8.648  0.4528  0.0864 -0.1409
47785W        W48649  21.293  24.099   7.772  0.1414 -0.1669 -0.0467
47786W        W48650  19.552  20.531   4.825 -0.2168  0.0704  0.0863
47787W        W48651  22.261  22.889   1.141 -0.1051 -0.1764 -0.0238
47788W        W48652  21.493  21.561   5.185  0.1831 -0.2389  0.1514
47789W        W48653  23.486  23.238   4.857  0.0277 -0.3741  0.2073
47790W        W48654  20.711  25.999   6.973 -0.0929  0.0519 -0.0105
47791W        W48655  20.182  24.329   5.632  0.1123  0.3783  0.0677
47792W        W48656  21.494  22.848   7.471 -0.0486  0.1549  0.2562
47793W        W48657  22.326  24.716   7.910  0.1394 -0.1425 -0.0444
47794W        W48658  17.470  22.579   7.555  0.0213 -0.0168  0.0179
47795W        W48659  19.969  21.845   7.474  0.1368  0.4408  0.2198
47796W        W48660  22.214  26.169   6.757  0.0073  0.0161 -0.0886
47797W        W48661  20.928  24.005   8.135  0.2201  0.2722  0.2773
47798W        W48662  21.272  24.452   5.747 -0.0364  0.0694  0.1417
47799W        W48663  20.796  22.845   4.801 -0.1809 -0.0704 -0.0083
47800W        W48664  18.714  24.894   4.908 -0.1703 -0.1250  0.0263
47801W        W48665  22.505  23.519   5.167  0.1728 -0.0969 -0.0867
47802W        W48666  20.592  21.581   6.044 -0.0402  0.2489  0.0995
47803W        W48667  15.264  21.234   6.641 -0.2380  0.0412 -0.1133
47804W        W48668  22.065  21.882   3.818 -0.1319 -0.0513 -0.0667
47805W        W48669  21.126  19.661   6.993  0.2177 -0.3016  0.0381
47806W        W48670  22.152  23.183   6.177  0.1698  0.1920 -0.1054
47807W        W48671  21.500  23.294   4.683 -0.0352 -0.2571 -0.1056
47808W        W48672  19.607  22.696   2.725  0.1018  0.4733 -0.0293
47809W        W48673  18.884  22.162   2.191  0.0778  0.1515  0.0404
47810W        W48674  18.822  25.285   4.275 -0.3265 -0.1287 -0.0499
47811W        W48675  20.201  23.436   5.360 -0.0369  0.0333  0.0334
47812W        W48676  19.326  22.020   6.910  0.0609  0.3966  0.0922
47813W        W48677  17.998  23.322   4.065  0.3081 -0.1908 -0.3953
47814W        W48678  20.739  22.675   6.461 -0.0418  0.1557 -0.1949
47815W        W48679  22.923  26.546   6.458 -0.0267  0.3101 -0.1085
47816W        W48680  19.039  23.924   2.710 -0.3340 -0.1106  0.1327
47817W        W48681  17.234  23.492   6.222 -0.0794  0.0264 -0.1197
47818W        W48682  22.764  25.630   6.383 -0.1155 -0.1458 -0.0960
47819W        W48683  20.296  21.063   4.784 -0.0560  0.3525  0.2905
47820W        W48684  22.486  25.427   7.312  0.2184  0.1691 -0.1531
47821W        W48685  19.107  23.916   5.088  0.3903 -0.1326 -0.0503
47822W        W48686  20.303  21.079   6.989 -0.1285 -0.2375  0.2305
47823W        W48687  18.178  19.663   4.899  0.1427  0.0861  0.0104
47824W        W48688  16.450  22.452   2.703  0.0504  0.1437 -0.3234
47825W        W48689  19.225  22.670   3.092  0.0146  0.0437  0.4236
47826W        W48690  20.166  21.372   4.097  0.1431 -0.1482 -0.1136
47827W        W48691  20.339  22.337   3.574  0.0326 -0.0253  0.4220
47828W        W48692  17.247  21.153   8.190  0.0977 -0.0213  0.0229
47829W        W48693  20.003  23.925   6.417 -0.2349  0.0587  0.1032
47830W        W48694  18.596  24.216   7.978  0.0247 -0.0600 -0.0822
47831W        W48695  21.054  21.318   6.122 -0.0127  0.0840  0.2211
47832W        W48696  20.586  21.582   8.347 -0.1907 -0.5667 -0.0167
47833W        W48697  18.722  24.130   8.710 -0.1696 -0.0029 -0.3859
47834W        W48698  18.247  22.135   3.894 -0.2754 -0.0825 -0.0873
47835W        W48699  18.443  23.067   4.174 -0.2106 -0.0381  0.1514
47836W        W48700  21.804  27.556   5.972  0.3606 -0.0069  0.0581
47837W        W48701  18.990  22.284   5.763 -0.2952 -0.0272 -0.0224
47838W        W48702  19.922  23.631   8.026  0.3243  0.1059  0.1930
47839W        W48703  19.461  23.287   4.013  0.0874 -0.1500 -0.0156
47840W        W48704  19.741  22.081   6.051  0.0250 -0.0368  0.1309
47841W        W48705  21.411  23.321   2.472  0.0698  0.0093 -0.1173
47842W        W48706  19.230  20.061   3.233  0.0105 -0.0434  0.0442
47843W        W48707  22.489  23.771   3.137  0.3393 -0.1297 -0.1975
47844W        W48708  15.308  26.004   4.800 -0.1525  0.2306 -0.2239
47845W        W48709  19.368  24.500   4.806  0.0553  0.2683 -0.0776
47846W        W48710  16.029  22.863   5.770  0.0023  0.3105  0.3311
47847W        W48711  20.457  22.344   5.607  0.0870 -0.3609 -0.2712
47848W        W48712  19.447  24.965   3.652 -0.0941  0.2680 -0.1794
47849W        W48713  23.444  23.457   4.211  0.0440  0.0398 -0.1371
47850W        W48714  20.548  25.808   4.042 -0.0878 -0.2308 -0.1567
47851W        W48715  20.306  23.584   4.391 -0.1919  0.0770  0.0275
47852W        W48716  19.449  21.643   1.731 -0.0715  0.2124  0.3516
47853W        W48717  18.028  25.068   6.098  0.0298  0.0718  0.0770
47854W        W48718  20.974  22.124   6.514 -0.1751 -0.0129 -0.3382
47855W        W48719  16.957  23.313   4.710 -0.2361  0.0884  0.5686
47856W        W48720  20.495  23.715   8.019  0.0758 -0.1275 -0.0534
47857W        W48721  21.069  25.136   7.093  0.0154  0.0663 -0.0232
47858W        W48722  20.664  21.376   5.614 -0.0237  0.0243  0.3013
47859W        W48723  15.757  24.967   4.906 -0.1304  0.0478 -0.0566
47860W        W48724  21.809  24.109   7.846  0.1636 -0.0847  0.1418
47861W        W48725  17.822  21.706   6.235 -0.2327 -0.0352 -0.1794
47862W        W48726  18.179  22.309   6.976  0.0657  0.2854  0.2400
47863W        W48727  18.408  21.740   2.280  0.3100  0.0209  0.1047
47864W        W48728  21.223  22.698   2.758 -0.1322  0.0341 -0.0613
47865W        W48729  17.504  19.520   8.268  0.1832  0.0039 -0.1271
47866W        W48730  15.199  20.667   6.104 -0.0465  0.0742  0.1464
47867W        W48731  21.587  21.143   5.818 -0.0713 -0.1277 -0.0423
47868W        W48732  19.829  22.307   3.896  0.1651 -0.2679 -0.0746
47869W        W48733  20.728  17.998   7.036  0.2087  0.1072  0.1341
47870W        W48734  21.643  23.706   4.798 -0.2900 -0.5715 -0.1484
47871W        W48735  19.298  23.028   7.271 -0.0381 -0.0479  0.1622
47872W        W48736  18.930  22.438   7.828 -0.0880  0.3318 -0.1428
47873W        W48737  17.353  22.227   4.785 -0.2402 -0.2126  0.0106
47874W        W48738  21.059  26.165   7.361  0.1452  0.0091 -0.0131
47875W        W48739  20.597  21.207   6.422 -0.1011  0.0432  0.0107
47876W        W48740  19.811  23.503   5.742 -0.2193  0.0574  0.1606
47877W        W48741  17.639  24.745   3.709 -0.1019  0.0433 -0.2807
47878W        W48742  17.935  25.474   6.416 -0.3479 -0.4298  0.0346
47879W        W48743  22.539  24.926   6.721  0.0501  0.0558 -0.1819
47880W        W48744  18.319  25.152   6.580  0.0174 -0.2886 -0.0389
47881W        W48745  19.916  19.360   3.144  0.0186 -0.1478  0.2172
47882W        W48746  20.893  21.607   6.585 -0.4732  0.0578  0.0239
47883W        W48747  22.041  24.003   3.253 -0.2535 -0.0424 -0.0330
47884W        W48748  19.999  23.572   4.949  0.3002 -0.0135  0.1805
47885W        W48749  22.797  24.077   4.361  0.3358 -0.0395 -0.0618
47886W        W48750  20.741  22.253   6.998  0.1478 -0.1610 -0.0204
47887W        W48751  19.436  25.832   6.844 -0.0570  0.0568  0.3812
47888W        W48752  22.104  20.331   7.294 -0.0391 -0.0635 -0.1858
47889W        W48753  21.365  22.721   5.528 -0.0725  0.2218 -0.2721
47890W        W48754  21.371  24.719   7.150  0.0088  0.3330  0.1076
47891W        W48755  19.810  22.855   2.255 -0.1630  0.1768  0.0154
47892W        W48756  19.413  23.015   5.967  0.1767 -0.0090 -0.1135
47893W        W48757  18.003  22.127   8.166 -0.0952  0.1738 -0.2987
47894W        W48758  18.699  23.556   5.219 -0.1638  0.0087  0.2601
47895W        W48759  21.285  20.201   7.674 -0.1169  0.1493 -0.2604
47896W        W48760  20.593  25.882   2.055 -0.0294 -0.1062  0.0711
47897W        W48761  20.714  23.536   6.053  0.0521 -0.0939  0.0450
47898W        W48762  20.888  25.345   5.838  0.0539 -0.2357 -0.1314
47899W        W48763  20.739  22.144   6.052 -0.0652  0.0497 -0.1523
47900W        W48764  19.868  24.657   6.527  0.3014 -0.0396 -0.0692
47901W        W48765  22.394  22.330   2.320  0.0258  0.0586  0.0467
47902W        W48766  20.031  24.667   7.971  0.3019 -0.3565 -0.2220
47903W        W48767  19.654  23.270   2.658  0.0954 -0.0206  0.0069
47904W        W48768  22.245  21.779   4.658 -0.0329  0.1130  0.0419
47905W        W48769  22.007  20.991   8.886 -0.0615 -0.0298 -0.2191
47906W        W48770  19.005  27.207   5.887 -0.1362  0.0282  0.0478
47907W        W48771  21.774  26.389   3.668 -0.1836 -0.3390  0.0217
47908W        W48772  19.723  24.414   4.400 -0.1739  0.2409  0.0631
47909W        W48773  18.779  26.548   8.726  0.2647  0.1804  0.0810
47910W        W48774  19.517  25.540   6.438 -0.0939 -0.2274 -0.1577
47911W        W48775  17.672  22.662   3.985  0.1105  0.0522  0.0838
47912W        W48776  21.151  21.109   7.490  0.3039 -0.2510 -0.2861
47913W        W48777  18.825  24.331   4.041 -0.1305  0.1515 -0.0020
47914W        W48778  23.173  25.339   7.157  0.0631  0.0705 -0.2816
47915W        W48779  19.860  23.879   5.359  0.2623 -0.2727  0.0150
47916W        W48780  20.415  24.699   5.764 -0.0583 -0.3113 -0.1025
47917W        W48781  17.514  22.466   2.973  0.1528 -0.3571 -0.0875
47918W        W48782  18.362  20.606   7.070 -0.1126 -0.2492 -0.0044
47919W        W48783  20.991  22.208   5.466  0.0721  0.1823 -0.0267
47920W        W48784  22.858  23.677   7.452  0.2254 -0.0789  0.0642
47921W        W48785  21.557  25.170   8.374 -0.0856 -0.1130 -0.3897
47922W        W48786  19.926  23.165   4.236  0.1042  0.2191  0.0663
47923W        W48787  19.245  25.931   6.019  0.1219  0.0969  0.0443
47924W        W48788  20.774  19.966   4.596 -0.0894  0.0709  0.0355
47925W        W48789  19.920  22.030   5.555  0.0791 -0.2686  0.1808
47926W        W48790  21.469  23.403   6.954  0.1692 -0.1054  0.3256
47927W        W48791  19.926  23.275   6.678 -0.3401 -0.1268 -0.2125
47928W        W48792  19.196  23.381   6.959  0.2427 -0.0228 -0.1621
47929W        W48793  20.347  23.793   7.298  0.1217 -0.2950  0.1946
47930W        W48794  19.744  23.023   7.701 -0.2476 -0.1826 -0.0542
47931W        W48795  21.784  21.638   4.126  0.1569 -0.0069  0.2085
47932W        W48796  20.080  25.544   3.271  0.1711  0.2450 -0.0880
47933W        W48797  19.817  23.656   4.333  0.2042 -0.1778 -0.0719
47934W        W48798  14.974  21.798   2.046  0.2665 -0.0709 -0.1064
47935W        W48799  24.940  26.946   3.728  0.0592 -0.1974 -0.4437
47936W        W48800  21.140  21.868   7.089 -0.2943  0.0186 -0.0553
47937W        W48801  23.301  25.199   3.596  0.0209  0.2516 -0.2022
47938W        W48802  18.853  22.976   3.221 -0.2319 -0.1478 -0.0131
47939W        W48803  21.395  23.550   5.244 -0.0697 -0.1260  0.1319
47940W        W48804  19.053  22.392   6.606  0.1507  0.2131 -0.2073
47941W        W48805  19.395  24.568   6.678  0.0685 -0.1173 -0.0713
47942W        W48806  19.501  25.443   8.561 -0.1914  0.0424 -0.0999
47943W        W48807  21.172  23.456   6.441  0.3193  0.0948  0.0355
47944W        W48808  18.867  23.210   6.177 -0.2631 -0.1021 -0.0637
47945W        W48809  19.028  23.268   5.679  0.0119 -0.2194 -0.2098
47946W        W48810  20.120  23.801   0.233  0.1804  0.0267 -0.2420
47947W        W48811  17.166  25.190   7.588  0.1877 -0.0557 -0.1154
47948W        W48812  19.964  22.517   5.861  0.1430 -0.0423  0.2526
47949W        W48813  17.853  19.722   5.804 -0.1551 -0.1384 -0.0692
47950W        W48814  18.522  22.511   6.649  0.1520  0.2118 -0.0708
47951W        W48815  19.099  24.222   5.488 -0.0175 -0.2956 -0.0044
47952W        W48816  18.625  22.353   4.886 -0.1882  0.0817  0.0958
47953W        W48817  21.369  18.632   4.314  0.2881 -0.1923 -0.1006
47954W        W48818  18.352  24.653   4.730  0.5017  0.0567  0.1871
47955W        W48819  17.686  23.612   6.492  0.0065  0.1161  0.1014
47956W        W48820  22.621  22.413   2.941  0.1075  0.0443  0.2711
47957W        W48821  21.472  21.748   3.224  0.0197  0.1714  0.0348
47958W        W48822  18.657  24.015   4.907  0.1792 -0.2416  0.1885
47959W        W48823  19.931  22.399   2.501  0.2836 -0.0261  0.0108
47960W        W48824  20.651  21.937   3.660  0.2027  0.0299 -0.1138
47961W        W48825  15.260  22.195   7.560  0.2321 -0.0201  0.0057
47962W        W48826  18.673  24.267   5.783 -0.0959 -0.2326 -0.1937
47963W        W48827  19.164  23.010   4.703  0.0588  0.0432 -0.1174
47964W        W48828  17.317  20.108   6.339 -0.1848  0.2391 -0.1300
47965W        W48829  21.645  24.571   6.584 -0.0203 -0.0241 -0.0446
47966W        W48830  20.780  22.616   2.085  0.2903 -0.0611 -0.0152
47967W        W48831  19.057  21.572   4.169  0.0030  0.3060  0.2168
47968W        W48832  19.569  24.307   6.233  0.2160 -0.1622 -0.1864
47969W        W48833  19.939  24.150   8.107  0.2014  0.0610 -0.2100
47970W        W48834  21.515  23.631   7.790  0.2939 -0.2064  0.0430
47971W        W48835  21.011  23.357   6.983  0.2804 -0.2641  0.2697
47972W        W48836  21.808  24.241   6.218 -0.0569 -0.1811 -0.0781
47973W        W48837  18.930  23.739   5.585  0.0272  0.0923 -0.0178
47974W        W48838  21.479  26.685   6.275  0.1624 -0.0948 -0.1069
47975W        W48839  19.738  22.977   3.182 -0.3511  0.0863  0.2456
47976W        W48840  21.602  21.784   3.685  0.0169  0.1087 -0.3634
47977W        W48841  20.404  23.866   5.550 -0.2636  0.2438  0.1158
47978W        W48842  18.421  21.782   7.135 -0.0268 -0.4155  0.2288
47979W        W48843  18.581  25.341   8.188 -0.3172 -0.1301 -0.2759
47980W        W48844  19.353  22.649   2.196 -0.0466 -0.0559 -0.1467
47981W        W48845  21.078  24.515   5.323 -0.3090  0.4119 -0.0125
47982W        W48846  20.931  23.041   5.627 -0.0974  0.1013  0.2472
47983W        W48847  22.288  24.831   7.375  0.1434  0.3715  0.0262
47984W        W48848  18.344  23.535   4.392 -0.2917  0.0474  0.1273
47985W        W48849  20.158  24.089   4.329 -0.0611  0.3833  0.2239
47986W        W48850  20.595  25.052   7.264 -0.0461  0.0739  0.1164
47987W        W48851  19.865  22.934   5.125  0.0312 -0.3219  0.0318
47988W        W48852  18.720  24.377   4.540 -0.3179  0.1790 -0.1573
47989W        W48853  20.257  26.305   3.894 -0.1114  0.1318 -0.1662
47990W        W48854  18.902  23.943   6.158  0.0525 -0.0088 -0.1276
47991W        W48855  20.275  23.824   6.027 -0.2384 -0.3713  0.2340
47992W        W48856  19.762  22.360   9.061 -0.1113  0.3776 -0.2410
47993W        W48857  20.539  23.597   4.962  0.3444  0.2113  0.0247
47994W        W48858  18.229  24.728   5.698 -0.1390  0.1211  0.2131
47995W        W48859  16.318  23.189   1.805 -0.1734  0.1443  0.1390
47996W        W48860  20.675  24.294   5.475  0.2813  0.3009  0.1328
47997W        W48861  19.426  21.877   3.819  0.2121 -0.0772 -0.0474
47998W        W48862  19.356  21.324   7.409 -0.2443 -0.0966 -0.4723
47999W        W48863  20.979  21.735   5.176 -0.0305  0.4630  0.3473
48000W        W48864  19.676  24.140   6.755  0.2719 -0.3247 -0.1299
48001W        W48865  20.198  25.116   6.905 -0.0713  0.1735  0.1520
48002W        W48866  21.772  21.308   8.149  0.1378 -0.3297  0.3504
48003W        W48867  22.843  24.575   8.000 -0.1539 -0.0841 -0.3469
48004W        W48868  17.638  24.087   4.318  0.0086  0.2353  0.0135
48005W        W48869  21.652  22.653   5.963 -0.1549 -0.2581  0.1025
48006W        W48870  22.857  23.521   4.305  0.1279 -0.1236 -0.1346
48007W        W48871  18.701  22.530   2.968 -0.0424 -0.0190  0.0269
48008W        W48872  18.738  25.921   6.188  0.0260  0.0391  0.3546
48009W        W48873  18.100  23.342   8.667 -0.1751  0.1008  0.2367
48010W        W48874  18.486  24.561   7.545 -0.0090 -0.4398 -0.0859
48011W        W48875  18.068  26.096   3.903  0.2256  0.3405 -0.1554
48012W        W48876  21.150  27.322   4.785 -0.0257  0.0628  0.2950
48013W        W48877  19.590  26.577   6.470 -0.0689 -0.3066  0.1068
48014W        W48878  17.473  21.689   6.751 -0.2482  0.0161 -0.2100
48015W        W48879  18.683  20.124   3.270 -0.0512  0.1108  0.0004
48016W        W48880  21.485  28.713   6.155  0.1435 -0.2509 -0.1471
48017W        W48881  17.300  25.234   2.531 -0.2151  0.2241  0.0349
48018W        W48882  21.689  23.397   6.109 -0.1813  0.0231  0.0766
48019W        W48883  22.212  23.348   5.543 -0.0774 -0.1457  0.1729
48020W        W48884  20.759  24.504   3.907  0.0616 -0.5183 -0.0906
48021W        W48885  20.326  22.699   6.141 -0.0663 -0.0158  0.2272
48022W        W48886  19.462  25.573   1.597 -0.1024 -0.1801  0.2602
48023W        W48887  21.914  23.425   4.432  0.1511 -0.1211  0.0610
48024W        W48888  18.428  21.911   6.593  0.0021  0.0240  0.2463
48025W        W48889  20.604  23.028   6.975  0.0400  0.0024  0.2058
48026W        W48890  17.782  21.349   6.625 -0.4050 -0.3842  0.0081
48027W        W48891  17.357  22.870   4.801  0.1088 -0.0581 -0.0059
48028W        W48892  16.907  21.967   5.001  0.1498  0.2415 -0.1127
48029W        W48893  21.306  21.840   9.744 -0.0650  0.0345 -0.1851
48030W        W48894  18.682  22.871   4.734 -0.0493  0.0802  0.2357
48031W        W48895  19.164  21.704   2.981  0.3521 -0.2115 -0.2203
48032W        W48896  23.030  24.430   5.394  0.3759 -0.0078  0.1592
48033W        W48897  22.210  25.235   6.870  0.2085  0.0786 -0.0658
48034W        W48898  20.780  26.665   4.261 -0.0564  0.1416  0.1718
48035W        W48899  20.404  23.696   3.568 -0.3691 -0.3858 -0.0517
48036W        W48900  18.535  21.282   4.873  0.0195  0.1725 -0.4105
48037W        W48901  23.263  25.185   6.154  0.0798 -0.0622 -0.2063
48038W        W48902  18.729  24.309   2.902  0.1150 -0.0063 -0.1342
48039W        W48903  19.497  22.115   2.348  0.0869  0.0592 -0.0304
48040W        W48904  18.132  24.238   5.749  0.0210  0.2246 -0.0580
48041W        W48905  24.138  24.398   7.870 -0.0615 -0.0675 -0.0750
48042W        W48906  21.170  22.371   4.092 -0.0710 -0.1643  0.4013
48043W        W48907  21.218  22.604   4.570  0.0997 -0.1063 -0.2162
48044W        W48908  19.913  22.466   6.372 -0.0242  0.0660  0.2440
48045W        W48909  20.374  20.980   5.299 -0.2074 -0.0033  0.4557
48046W        W48910  19.269  22.170   4.839  0.0450 -0.0976  0.2748
48047W        W48911  15.412  21.716   5.399  0.1459 -0.2836  0.2498
48048W        W48912  20.879  22.690   5.307 -0.2885  0.1277  0.1038
48049W        W48913  17.789  24.553   5.951 -0.2000  0.0747  0.0052
48050W        W48914  18.271  24.412   8.389  0.0814 -0.0684  0.0268
48051W        W48915  19.038  22.587   5.101  0.1154 -0.4642  0.0949
48052W        W48916  20.074  23.766   6.892  0.1107 -0.2534  0.0475
48053W        W48917  20.683  23.021   6.086  0.0926  0.4203  0.2985
48054W        W48918  20.157  25.268   4.696 -0.0521  0.1208 -0.0723
48055W        W48919  20.141  24.468   4.689 -0.0636  0.0446  0.0850
48056W        W48920  18.399  25.560   4.962  0.3989 -0.1975 -0.0381
48057W        W48921  20.301  24.088   5.123 -0.1321 -0.3081 -0.0040
48058W        W48922  20.588  27.060   7.317 -0.0953 -0.0914 -0.0702
48059W        W48923  18.275  24.377   4.199 -0.1921  0.0135  0.0823
48060W        W48924  21.006  23.801   1.267 -0.0136  0.2756 -0.2375
48061W        W48925  19.912  24.674   6.019  0.5196  0.1877  0.2135
48062W        W48926  20.408  22.860   5.572  0.0476  0.1255  0.0644
48063W        W48927  18.791  23.079   7.130 -0.0694 -0.0161 -0.2240
48064W        W48928  18.565  24.638   5.300 -0.1147  0.2126  0.1445
48065W        W48929  18.531  24.803   6.080 -0.3082 -0.0254 -0.1265
48066W        W48930  21.041  24.650   4.456 -0.0277 -0.0910  0.0323
48067W        W48931  17.287  22.610   2.417  0.0265 -0.0373  0.0400
48068W        W48932  19.648  27.846  10.056  0.0566 -0.2343  0.1102
48069W        W48933  17.171  23.423   8.528 -0.0372  0.2445 -0.0047
48070W        W48934  20.155  23.065   8.613 -0.2963  0.0289 -0.0005
48071W        W48935  21.203  23.983   8.622 -0.3590  0.4464  0.0906
48072W        W48936  19.727  26.147   7.252 -0.0564  0.3188  0.0206
48073W        W48937  20.551  24.020   6.533  0.1343  0.2625 -0.0219
48074W        W48938  18.533  20.450   9.089  0.1288  0.0461  0.0393
48075W        W48939  21.341  22.230   6.888 -0.0273 -0.1442  0.0187
48076W        W48940  20.157  25.577  10.848 -0.1629 -0.1110  0.2090
48077W        W48941  18.367  21.827   8.390 -0.1423  0.0187 -0.3212
48078W        W48942  19.698  21.896   9.169 -0.0553 -0.4640  0.0521
48079W        W48943  20.119  23.153   9.378 -0.1180  0.1936 -0.0466
48080W        W48944  19.441  22.729   6.444 -0.0802 -0.1804  0.2525
48081W        W48945  23.833  21.756  10.764  0.1395  0.1610 -0.0287
48082W        W48946  16.437  23.270   9.655  0.1022  0.1227 -0.0369
48083W        W48947  18.680  24.645  10.410  0.1664 -0.0046  0.3091
48084W        W48948  21.539  25.115   6.403  0.0873 -0.2276  0.1731
48085W        W48949  19.705  23.154   8.733 -0.1228  0.1045 -0.1513
48086W        W48950  18.636  22.291  10.053 -0.2120  0.1259  0.0250
48087W        W48951  24.352  23.113   8.336 -0.2082 -0.1494  0.2150
48088W        W48952  23.585  21.998  11.266 -0.0199  0.0075  0.4087
48089W        W48953  20.834  21.892   8.004 -0.0610  0.1720  0.1098
48090W        W48954  20.754  25.621   8.369 -0.0393  0.1292  0.1906
48091W        W48955  18.242  22.913   7.551  0.0900 -0.2422  0.2367
48092W        W48956  17.423  24.694  11.618  0.0185 -0.3298  0.2563
48093W        W48957  17.732  24.614   7.797  0.3356  0.2346 -0.2858
48094W        W48958  19.175  22.835   9.434 -0.5370 -0.1988  0.3664
48095W        W48959  20.033  23.434   8.984  0.3819  0.0170 -0.2526
48096W        W48960  21.305  24.031   9.654  0.0093  0.0429  0.3568
48097W        W48961  20.369  22.819   9.647 -0.0690 -0.1843 -0.2476
48098W        W48962  19.416  26.179   5.630  0.0187  0.1113 -0.0537
48099W        W48963  22.403  24.739   9.906  0.2220  0.1119 -0.0606
48100W        W48964  20.721  23.448   9.884 -0.2350  0.1680  0.0378
48101W        W48965  19.324  24.813  10.753  0.0830  0.2808 -0.3017
48102W        W48966  19.490  23.746  10.277 -0.2203 -0.1465 -0.1582
48103W        W48967  22.169  24.540   9.321 -0.4124  0.0449  0.0236
48104W        W48968  19.371  22.130   7.774 -0.0700  0.1275 -0.0610
48105W        W48969  17.355  23.298  10.445  0.1848  0.2549 -0.0435
48106W        W48970  21.788  25.377   6.082  0.0028 -0.0634 -0.2142
48107W        W48971  21.255  22.465   9.544  0.2137 -0.2619  0.0789
48108W        W48972  22.761  20.133   5.229  0.0345  0.2795  0.1902
48109W        W48973  23.653  23.228   7.112 -0.1761  0.0798  0.0435
48110W        W48974  20.044  25.070   9.521  0.0032  0.1395  0.0966
48111W        W48975  20.989  26.436   6.878  0.0552  0.1821 -0.2059
48112W        W48976  21.586  27.215   7.073 -0.0691  0.3219 -0.1208
48113W        W48977  19.951  25.164   6.165  0.0858  0.1093 -0.1589
48114W        W48978  20.200  23.531   8.468  0.1579  0.0876  0.1006
48115W        W48979  20.939  23.571   8.844  0.0807  0.0902 -0.0021
48116W        W48980  17.371  22.157   9.944 -0.0183  0.0599 -0.1047
48117W        W48981  21.807  23.689  10.324  0.0925  0.2155  0.0615
48118W        W48982  18.808  23.209   9.741 -0.0084  0.0505 -0.1043
48119W        W48983  20.884  21.093   5.001  0.2346 -0.1076  0.0811
48120W        W48984  18.327  24.356  10.110 -0.0261 -0.1598 -0.0537
48121W        W48985  20.975  20.000   8.033 -0.2684 -0.0857  0.0850
48122W        W48986  19.592  24.525   8.075 -0.0256  0.1001  0.1816
48123W        W48987  18.952  24.551   7.009 -0.0079 -0.1091  0.2532
48124W        W48988  19.878  23.773   7.568 -0.0429  0.1755 -0.1168
48125W        W48989  18.748  23.169   7.980 -0.0512  0.1579  0.1867
48126W        W48990  19.466  25.375  10.973  0.0479 -0.0842  0.2568
48127W        W48991  19.465  27.638   5.165 -0.0870 -0.2466  0.0132
48128W        W48992  19.765  22.907   8.180  0.1757 -0.0321 -0.2868
48129W        W48993  17.445  25.377   8.322 -0.0491  0.0933  0.0787
48130W        W48994  19.714  24.142  10.112  0.1702  0.0110 -0.1219
48131W        W48995  18.862  25.620   9.251 -0.0514  0.2264 -0.1361
48132W        W48996  19.505  21.765   9.962 -0.3320 -0.2197  0.2413
48133W        W48997  19.957  19.314   7.748 -0.3666  0.0460  0.0959
48134W        W48998  17.073  22.663   7.942  0.1337 -0.0081  0.4028
48135W        W48999  19.747  20.731   7.202  0.0179  0.1247 -0.2370
48136W        W49000  18.632  22.780   9.563 -0.0345  0.0897 -0.1577
48137W        W49001  19.505  24.866   8.437  0.2046  0.2461  0.3079
48138W        W49002  22.604  27.676  10.637  0.3893 -0.0037 -0.1389
48139W        W49003  21.527  21.589   7.466 -0.0691 -0.0119  0.0206
48140W        W49004  21.465  26.016   8.883  0.4114  0.2465  0.2454
48141W        W49005  23.222  20.701   8.679 -0.0586 -0.1662  0.3500
48142W        W49006  22.549  25.671   9.775 -0.2055  0.0663  0.1739
48143W        W49007  20.793  24.213   9.790  0.0888  0.3959  0.0037
48144W        W49008  20.963  27.458   8.922  0.3283 -0.1176  0.0403
48145W        W49009  20.937  24.495   7.954 -0.0608 -0.0432 -0.1190
48146W        W49010  20.118  24.511   8.426 -0.0151 -0.1039 -0.0394
48147W        W49011  17.839  20.373  10.771  0.0322  0.1227 -0.0697
48148W        W49012  18.371  22.719  11.152  0.1768  0.0133 -0.1944
48149W        W49013  17.931  22.993  11.324  0.0825  0.1293 -0.0366
48150W        W49014  20.778  24.154   6.969  0.0094  0.2448  0.2419
48151W        W49015  19.066  19.994   5.691 -0.1975  0.1359  0.2270
48152W        W49016  20.895  22.914   9.494  0.0770  0.4204 -0.0158
48153W        W49017  22.853  19.646   5.553 -0.1866 -0.2886 -0.1082
48154W        W49018  19.170  22.826  10.655 -0.0089  0.0008 -0.0131
48155W        W49019  20.076  22.204  11.597 -0.0252 -0.1155  0.1954
48156W        W49020  20.073  24.810  11.271 -0.3461 -0.1288  0.0674
48157W        W49021  24.595  21.064   9.114 -0.0968  0.3148  0.1237
48158W        W49022  22.257  22.406   8.657  0.1253  0.1681 -0.0938
48159W        W49023  23.841  25.245  11.685 -0.2319  0.1183  0.1417
48160W        W49024  22.027  23.842   7.417  0.1606  0.0443 -0.2722
48161W        W49025  21.021  24.287   9.336 -0.1776  0.1505  0.1425
48162W        W49026  16.565  21.472  13.309  0.2226 -0.1118  0.0934
48163W        W49027  21.837  22.027   7.506 -0.2396  0.3497  0.4344
48164W        W49028  24.222  22.369   9.150  0.0366  0.0671  0.3334
48165W        W49029  20.297  25.515   9.629 -0.1829 -0.4108 -0.0921
48166W        W49030  21.379  20.939   8.226  0.1072 -0.1590  0.3094
48167W        W49031  20.606  20.336  12.168 -0.2940 -0.0644  0.2248
48168W        W49032  22.929  27.208   5.664  0.0137 -0.1906  0.1149
48169W        W49033  19.396  24.263   7.147  0.3247  0.0666 -0.4872
48170W        W49034  19.093  19.530   6.953 -0.1193 -0.5069  0.1113
48171W        W49035  23.009  25.693   7.484  0.2494  0.0853 -0.3019
48172W        W49036  21.832  22.712   6.828 -0.2207 -0.3385 -0.0910
48173W        W49037  21.018  23.055   8.711 -0.1991 -0.1492 -0.2339
48174W        W49038  21.270  23.127   7.846 -0.0068 -0.3156 -0.5043
48175W        W49039  20.026  24.709   9.875  0.0717 -0.1120  0.0902
48176W        W49040  19.290  19.963   8.657  0.2385 -0.1503 -0.0404
48177W        W49041  18.674  24.410   9.509 -0.0748 -0.0025  0.1874
48178W        W49042  18.011  24.841  12.411  0.1991  0.6428 -0.1117
48179W        W49043  18.345  21.936   9.848 -0.1732  0.0587  0.3236
48180W        W49044  21.920  21.364   7.273  0.0160  0.2302 -0.4573
48181W        W49045  20.891  25.750  10.180  0.0805 -0.0801  0.3761
48182W        W49046  19.899  22.956   6.156  0.0367 -0.1140  0.3314
48183W        W49047  19.519  25.517  10.035 -0.0616  0.0266 -0.2897
48184W        W49048  21.638  20.401   8.946 -0.0591  0.0156  0.0667
48185W        W49049  21.461  23.683  10.005  0.0737 -0.1921  0.0472
48186W        W49050  21.947  23.181  10.605  0.0443 -0.0604 -0.1196
48187W        W49051  23.092  23.497   9.999 -0.2800 -0.2047 -0.0274
48188W        W49052  21.875  20.852   7.994 -0.2260  0.3969 -0.2741
48189W        W49053  20.531  23.962   4.640 -0.1011  0.1538 -0.3549
48190W        W49054  20.712  26.211  10.185 -0.0077  0.2748  0.2739
48191W        W49055  21.939  21.641   7.769 -0.4321 -0.2081  0.1682
48192W        W49056  21.475  22.698   8.104  0.1724  0.3778 -0.0926
48193W        W49057  23.255  21.803  10.082 -0.1877  0.1345  0.0158
48194W        W49058  20.988  24.698  12.746 -0.0027  0.0482  0.0177
48195W        W49059  19.956  23.726   9.900  0.0649 -0.0077 -0.3968
48196W        W49060  21.861  22.554   7.712 -0.1484 -0.1387  0.0241
48197W        W49061  22.634  25.034   8.228  0.0462 -0.1952  0.1844
48198W        W49062  20.415  25.737   8.785  0.1808 -0.0984 -0.3068
48199W        W49063  20.095  24.190   9.792  0.2031 -0.2338  0.0012
48200W        W49064  19.342  24.821   7.102  0.0831  0.0307 -0.2003
48201W        W49065  21.582  19.581   9.331 -0.0866 -0.0898 -0.2433
48202W        W49066  19.672  21.365  10.939  0.0680 -0.0382 -0.2653
48203W        W49067  17.189  24.027   8.686  0.2300  0.2263  0.2002
48204W        W49068  23.354  22.537   5.841  0.0273  0.0812  0.0977
48205W        W49069  22.670  19.415  11.687  0.4276  0.0747 -0.0393
48206W        W49070  19.893  26.924   7.761  0.3491 -0.2967 -0.1185
48207W        W49071  20.267  27.594   9.371 -0.1936  0.0019 -0.1947
48208W        W49072  20.041  22.808   9.029  0.0912  0.1746 -0.1943
48209W        W49073  21.405  21.999  10.780 -0.2633 -0.1325  0.1049
48210W        W49074  18.785  24.142   6.710  0.0980 -0.0073  0.3872
48211W        W49075  17.759  21.324   9.320 -0.0765  0.0706  0.1535
48212W        W49076  20.218  25.909   7.174  0.3673  0.3023 -0.1992
48213W        W49077  17.848  21.293  10.537  0.0217 -0.1824  0.0774
48214W        W49078  20.479  21.899   7.401  0.4490  0.1104  0.0906
48215W        W49079  20.450  22.152   8.261  0.1296 -0.0091 -0.0173
48216W        W49080  19.931  26.047   8.175 -0.0101 -0.1642 -0.1127
48217W        W49081  21.494  22.860   8.710 -0.1777 -0.0279  0.0190
48218W        W49082  22.781  21.863   9.948  0.1269 -0.1598 -0.2822
48219W        W49083  20.666  23.868   8.515  0.1055  0.0987  0.0728
48220W        W49084  21.839  25.891  10.000 -0.0627  0.1043 -0.0292
48221W        W49085  18.864  21.810   5.733  0.0912 -0.0508 -0.0288
48222W        W49086  19.327  22.465   9.801  0.2500 -0.1091  0.2275
48223W        W49087  19.245  23.245   8.916 -0.0430 -0.0793 -0.0165
48224W        W49088  19.468  23.239  10.600 -0.1698  0.0966 -0.2314
48225W        W49089  18.748  23.244  10.315  0.3954  0.0798 -0.0190
48226W        W49090  19.555  21.749   5.238 -0.0104 -0.1107  0.0471
48227W        W49091  18.559  23.044   6.625  0.1200  0.0143 -0.0379
48228W        W49092  22.507  21.247  13.196 -0.1275  0.0282 -0.0531
48229W        W49093  21.249  23.279   9.809  0.0916 -0.0682  0.1754
48230W        W49094  20.222  23.879  10.290  0.4996 -0.0408  0.0930
48231W        W49095  22.584  24.634  10.348  0.1844 -0.2932  0.1384
48232W        W49096  21.459  23.900  11.193  0.1928 -0.1846  0.1419
48233W        W49097  18.432  22.239   9.392  0.0112  0.3134  0.1380
48234W        W49098  19.108  20.630   5.676  0.4358  0.0198  0.1490
48235W        W49099  17.668  23.250   6.139 -0.0430  0.1083  0.1531
48236W        W49100  20.804  24.083   8.944 -0.1386 -0.1350  0.0362
48237W        W49101  21.160  25.686   7.380 -0.0394 -0.3090 -0.2539
48238W        W49102  22.815  23.489   8.020 -0.0598  0.2196 -0.1428
48239W        W49103  20.656  22.502  10.239  0.1004  0.4834 -0.1987
48240W        W49104  20.627  25.667   7.376  0.2357 -0.1642 -0.1602
48241W        W49105  20.117  22.794   7.063 -0.1841  0.0692 -0.0548
48242W        W49106  23.498  22.057   7.964 -0.1090 -0.2362 -0.1023
48243W        W49107  22.247  20.906   9.873 -0.2377  0.0894 -0.0258
48244W        W49108  15.550  24.015  12.382 -0.0230 -0.0670  0.0734
48245W        W49109  20.599  25.139  12.819  0.0606  0.1258 -0.0414
48246W        W49110  18.217  26.570   8.569  0.1985  0.1442 -0.2185
48247W        W49111  22.339  22.689   8.226  0.0447 -0.0526  0.2871
48248W        W49112  21.290  25.050   4.547 -0.1641 -0.1684  0.3404
48249W        W49113  18.748  21.381   9.206 -0.1154 -0.0932 -0.1595
48250W        W49114  19.990  24.344   9.347 -0.0891  0.2631 -0.2672
48251W        W49115  19.704  22.266   7.303  0.0535 -0.1557 -0.1447
48252W        W49116  21.747  23.311   8.032 -0.1728 -0.3671 -0.1471
48253W        W49117  20.665  22.596  11.565  0.1421 -0.1239  0.2616
48254W        W49118  21.815  22.360   8.409  0.2645 -0.0318  0.0403
48255W        W49119  19.743  22.908   3.765 -0.0954 -0.1454  0.0171
48256W        W49120  17.369  24.876   8.331  0.1358 -0.0931  0.0820
48257W        W49121  19.848  24.031   5.876  0.2777  0.4038  0.0291
48258W        W49122  17.656  20.445   7.453  0.0102  0.1311  0.4273
48259W        W49123  20.007  25.436   5.709  0.1573  0.2029 -0.0460
48260W        W49124  18.564  24.956  11.894  0.1410  0.0063 -0.0116
48261W        W49125  20.468  22.898  12.409 -0.2632 -0.1551 -0.1657
48262W        W49126  19.104  23.209  11.505 -0.1178  0.3758  0.1064
48263W        W49127  19.347  19.179   5.996 -0.0133  0.0450 -0.2081
48264W        W49128  19.859  20.133   6.695  0.2096  0.3197 -0.1186
48265W        W49129  15.680  20.346   8.704  0.3772  0.0247  0.1873
48266W        W49130  19.220  22.757  11.691  0.0743 -0.0862 -0.3469
48267W        W49131  23.881  22.359   8.755 -0.1560  0.2683  0.0317
48268W        W49132  19.305  22.991   7.935  0.3531 -0.3299 -0.2737
48269W        W49133  22.753  23.296   9.320  0.1848  0.0018 -0.1622
48270W        W49134  23.190  22.832   8.379  0.3076  0.0447 -0.1852
48271W        W49135  20.550  22.767   9.164 -0.0776  0.2043 -0.3652
48272W        W49136  21.514  23.352  10.587 -0.1011  0.0296 -0.0996
48273W        W49137  19.495  24.181   5.181  0.1548 -0.1250  0.0931
48274W        W49138  18.315  24.816  10.087 -0.0313 -0.1532 -0.0038
48275W        W49139  23.323  26.772   7.643  0.3735  0.1250 -0.0692
48276W        W49140  20.943  24.823   5.735  0.3010  0.0597 -0.1335
48277W        W49141  18.705  23.710   8.337 -0.0316  0.2749 -0.1215
48278W        W49142  17.945  27.298   9.946  0.1085 -0.2053 -0.2161
48279W        W49143  19.172  23.950   9.412 -0.1849 -0.0025 -0.1501
48280W        W49144  18.915  23.671   9.012  0.0373 -0.0040 -0.1053
48281W        W49145  23.283  20.948   9.503  0.1090  0.1017  0.2108
48282W        W49146  22.356  23.733   7.880 -0.2106 -0.0554  0.0808
48283W        W49147  22.660  23.702  10.154 -0.0895  0.0109  0.0802
48284W        W49148  21.025  25.327   9.229 -0.1688  0.1681  0.1636
48285W        W49149  19.387  25.990   5.081 -0.0981 -0.1376  0.3064
48286W        W49150  21.521  24.546  10.150  0.0075  0.2646 -0.2462
48287W        W49151  19.452  25.035  10.343 -0.1193 -0.1065  0.0120
48288W        W49152  22.655  20.997   8.586  0.1152 -0.0713 -0.1550
48289W        W49153  25.075  26.213   8.495 -0.0443 -0.1146  0.1302
48290W        W49154  17.793  25.090   8.720 -0.0053  0.0275  0.3468
48291W        W49155  20.181  22.706   7.745  0.1473  0.0723  0.1293
48292W        W49156  21.729  24.278   7.379  0.0921 -0.1781 -0.0745
48293W        W49157  19.034  22.480  10.320  0.0712 -0.1687  0.0848
48294W        W49158  19.694  23.358   7.270 -0.3133 -0.2132 -0.2969
48295W        W49159  23.500  21.957  11.757  0.1520 -0.0808 -0.0002
48296W        W49160  20.988  26.859   7.087 -0.0481 -0.3914 -0.2074
48297W        W49161  23.297  24.074   8.714 -0.0508 -0.0615 -0.0374
48298W        W49162  17.514  23.687  10.736  0.2409  0.2815 -0.1560
48299W        W49163  18.137  21.493   9.988 -0.0241 -0.0659 -0.2164
48300W        W49164  19.632  25.017   6.768 -0.0498  0.2026 -0.0414
48301W        W49165  18.816  24.141   7.372  0.0177 -0.0511  0.3595
48302W        W49166  20.743  22.416   9.567 -0.4646 -0.1823 -0.3535
48303W        W49167  19.590  23.625   6.794  0.0758  0.2634 -0.0251
48304W        W49168  22.555  24.488   8.926  0.2434  0.1039 -0.0684
48305W        W49169  18.484  22.243   7.976 -0.1793 -0.0392  0.1753
48306W        W49170  22.526  24.984   9.001 -0.0043  0.1530 -0.1220
48307W        W49171  22.001  22.725   8.910 -0.2360  0.0226 -0.0237
48308W        W49172  20.527  26.473   6.604 -0.1167  0.3008  0.0863
48309W        W49173  18.046  22.860  11.816 -0.3788 -0.1377 -0.4015
48310W        W49174  19.955  22.174   8.598 -0.0104  0.1078 -0.1184
48311W        W49175  19.927  21.664   8.227  0.4845 -0.1164  0.3908
48312W        W49176  18.263  24.308   8.988  0.3066 -0.0663 -0.2293
48313W        W49177  20.699  24.088   7.623 -0.0445 -0.0547 -0.0477
48314W        W49178  18.973  22.846  10.004  0.1906 -0.3406 -0.0213
48315W        W49179  16.634  24.698  10.545 -0.0262 -0.0093  0.1830
48316W        W49180  21.876  28.613   9.428  0.1501 -0.0418  0.0721
48317W        W49181  19.486  26.001   8.641 -0.0027  0.0504 -0.0283
48318W        W49182  18.994  26.170   8.424  0.1950 -0.0475  0.3013
48319W        W49183  19.154  23.919   6.940  0.1091 -0.2170  0.1978
48320W        W49184  20.713  26.547   8.759  0.3081  0.0429  0.2057
48321W        W49185  20.996  23.666   7.784  0.0016 -0.0553  0.0220
48322W        W49186  18.350  21.667   9.377  0.0842  0.4163 -0.2458
48323W        W49187  20.892  24.623   7.141 -0.0530  0.2001 -0.1550
48324W        W49188  25.288  21.406   4.922  0.1268 -0.0009  0.0393
48325W        W49189  17.994  23.915  10.016 -0.0575 -0.1038 -0.0652
48326W        W49190  22.059  22.913   7.326  0.4793 -0.4613 -0.2351
48327W        W49191  23.030  24.221   9.675 -0.2198  0.3052  0.3037
48328W        W49192  19.221  24.088   9.955  0.1137  0.2975 -0.1635
48329W        W49193  21.388  22.180   7.674  0.2419 -0.2534 -0.0368
48330W        W49194  21.956  23.786   8.230 -0.1335 -0.1416 -0.2612
48331W        W49195  20.209  24.775   9.126  0.1031  0.1894  0.3147
48332W        W49196  20.227  26.602   5.841  0.3583  0.1464  0.0506
48333W        W49197  19.474  25.272   8.122 -0.1725 -0.0487 -0.2183
48334W        W49198  20.406  28.066   5.426 -0.0287  0.2662 -0.0546
48335W        W49199  23.192  22.114   8.717 -0.2771  0.0743 -0.2850
48336W        W49200  19.273  23.000   8.466 -0.0999 -0.0435  0.1229
48337W        W49201  19.923  20.988   9.085 -0.0749  0.2050 -0.0364
48338W        W49202  17.690  24.498   6.701  0.0712 -0.1163  0.0219
48339W        W49203  22.593  22.218   7.532 -0.2102  0.0639 -0.0648
48340W        W49204  21.243  23.815   6.892  0.2418  0.0216  0.3966
48341W        W49205  21.283  25.435   7.755  0.2353  0.3948 -0.1981
48342W        W49206  21.496  26.872   6.748 -0.0579 -0.3301  0.1691
48343W        W49207  23.162  24.318  12.944 -0.0657  0.2576  0.0218
48344W        W49208  20.696  23.221  10.339 -0.1546 -0.1966  0.2498
48345W        W49209  22.504  23.998   7.465  0.3085 -0.1080  0.0883
48346W        W49210  19.174  20.806   4.642 -0.3903 -0.2191 -0.0603
48347W        W49211  19.015  25.136  11.126 -0.0656  0.0156  0.2231
48348W        W49212  22.345  22.153   9.213  0.0332 -0.2433  0.1488
48349W        W49213  19.028  19.958   7.877  0.1549  0.0778  0.0498
48350W        W49214  20.403  26.200  11.132  0.0182 -0.0016  0.0272
48351W        W49215  20.368  26.724   8.472 -0.2573 -0.0437 -0.0273
48352W        W49216  21.765  24.088   9.435 -0.3681 -0.0182  0.2804
48353W        W49217  22.883  23.721   9.606  0.0871  0.0914 -0.1269
48354W        W49218  23.772  25.247   6.301  0.2384  0.1639 -0.0089
48355W        W49219  17.515  24.426   8.716  0.0064  0.1322 -0.1218
48356W        W49220  20.692  22.594   7.422  0.3028  0.0161  0.1185
48357W        W49221  21.513  25.199   7.374  0.1376 -0.0909 -0.2161
48358W        W49222  21.464  23.821   8.250 -0.3064  0.1942 -0.0929
48359W        W49223  19.956  22.510   5.384 -0.2876 -0.0902 -0.3005
48360W        W49224  22.336  20.602   9.454  0.0378  0.1919  0.3077
48361W        W49225  18.024  24.770   7.433 -0.1808 -0.2176 -0.1772
48362W        W49226  19.982  23.145  10.995 -0.1552  0.1136  0.0369
48363W        W49227  21.721  21.894   7.023  0.1457  0.2418  0.0085
48364W        W49228  21.515  23.655  11.575 -0.0096  0.2165 -0.0622
48365W        W49229  22.412  22.665   7.623  0.0399 -0.1707 -0.1435
48366W        W49230  20.405  20.792  12.285 -0.3331 -0.1159  0.0652
48367W        W49231  18.151  24.284   9.623  0.0280 -0.1005  0.0137
48368W        W49232  20.966  23.809   7.313  0.0506  0.1431  0.1243
48369W        W49233  19.478  23.466   7.779 -0.2817  0.2998  0.0769
48370W        W49234  22.493  26.406   9.466 -0.1247 -0.0068 -0.0399
48371W        W49235  20.381  24.998   7.785 -0.1892 -0.1745 -0.1245
48372W        W49236  21.829  24.297   8.387  0.0440 -0.1912  0.0314
48373W        W49237  21.934  27.567   8.599  0.0336  0.1068 -0.3095
48374W        W49238  22.159  24.018  10.174  0.0194 -0.1566  0.0113
48375W        W49239  22.799  21.145   9.249 -0.0959  0.0455 -0.1460
48376W        W49240  18.715  21.219   7.893 -0.1005 -0.0792 -0.0722
48377W        W49241  19.401  23.803   7.387 -0.2320 -0.0369  0.0085
48378W        W49242  21.057  22.317   8.674  0.0912 -0.0788 -0.0422
48379W        W49243  21.603  23.418  11.149  0.1754 -0.1830 -0.0111
48380W        W49244  21.002  21.784   8.441  0.1061 -0.2592  0.4715
48381W        W49245  21.032  24.814   8.533  0.3109 -0.0404  0.6293
48382W        W49246  19.779  25.938   9.351  0.0016 -0.2669  0.1329
48383W        W49247  17.085  24.323  11.337 -0.3799 -0.2710  0.2251
48384W        W49248  16.777  21.068   8.329 -0.0070 -0.1934 -0.1736
48385W        W49249  19.584  22.268   5.201  0.1257  0.0078 -0.3939
48386W        W49250  20.166  27.697  10.329 -0.0222 -0.0734  0.4070
48387W        W49251  22.311  23.130   9.093  0.0218  0.0843  0.1376
48388W        W49252  18.005  25.076   9.753 -0.1430 -0.2002 -0.0598
48389W        W49253  21.727  27.356   7.784 -0.1285 -0.0570 -0.2979
48390W        W49254  18.898  21.893  11.479 -0.2595  0.0571  0.2453
48391W        W49255  20.677  23.404   7.362  0.3149 -0.1344  0.0869
48392W        W49256  19.052  25.318   7.860  0.1631  0.1057 -0.0927
48393W        W49257  21.161  24.402   6.788  0.1191  0.0594 -0.0783
48394W        W49258  22.696  22.230   6.243 -0.2662 -0.0620 -0.1069
48395W        W49259  21.676  26.882   7.452  0.0717 -0.1623 -0.3171
48396W        W49260  17.281  23.374   8.054 -0.1590  0.1743  0.0908
48397W        W49261  19.913  23.728   9.371  0.1597 -0.1056 -0.2438
48398W        W49262  19.261  21.374  11.553  0.0303 -0.1573 -0.0764
48399W        W49263  19.537  21.710   3.321 -0.0670  0.0110 -0.0464
48400W        W49264  20.490  24.237   9.323 -0.0240 -0.1382  0.0684
48401W        W49265  19.437  23.634  11.755  0.3217  0.0110 -0.4678
48402W        W49266  23.159  23.068   9.711 -0.1753  0.2189 -0.1398
48403W        W49267  22.437  23.308  11.405  0.1678  0.0571 -0.0580
48404W        W49268  19.211  23.970   8.750  0.4304  0.1812 -0.5148
48405W        W49269  23.624  22.471   8.323 -0.0146  0.1451 -0.1961
48406W        W49270  21.172  22.487   7.312 -0.3316  0.2545 -0.0361
48407W        W49271  20.220  19.417   9.973 -0.3067  0.0922  0.2075
48408W        W49272  19.155  24.637  10.253 -0.2084  0.0128  0.3880
48409W        W49273  20.416  21.996   9.823 -0.1487  0.0999 -0.0418
48410W        W49274  19.968  22.297   7.930 -0.1867 -0.2353  0.0098
48411W        W49275  19.233  25.255   8.944 -0.0960 -0.1415 -0.2947
48412W        W49276  22.939  22.608   7.471  0.1809  0.2974  0.0139
48413W        W49277  18.890  25.292   9.589  0.1885 -0.3078 -0.3019
48414W        W49278  16.162  25.175   5.107 -0.1439 -0.1647 -0.0115
48415W        W49279  22.199  23.105   7.813 -0.4276 -0.2572  0.1212
48416W        W49280  20.769  27.229   7.726 -0.0043 -0.0087  0.0452
48417W        W49281  18.112  23.235   6.540 -0.1000 -0.0445 -0.1777
48418W        W49282  23.685  23.459   9.919 -0.0316 -0.0433  0.2180
48419W        W49283  22.573  22.165   5.742  0.1783 -0.0931 -0.2289
48420W        W49284  24.273  21.019   8.585 -0.1411 -0.4370 -0.1447
48421W        W49285  19.716  25.657   7.905 -0.2377  0.3223 -0.1318
48422W        W49286  18.171  24.706   9.371  0.0601  0.0878  0.2364
48423W        W49287  22.284  23.745   6.986  0.0127  0.1601  0.2292
48424W        W49288  20.814  24.371   8.512  0.0904  0.0180 -0.0744
48425W        W49289  18.884  22.335   9.587  0.1044  0.2106 -0.0167
48426W        W49290  16.093  21.975  10.291  0.0453 -0.0694 -0.0753
48427W        W49291  20.572  21.133   7.984  0.5164  0.0962 -0.1460
48428W        W49292  20.476  25.464  10.146 -0.2004 -0.1063  0.0551
48429W        W49293  21.108  21.990   9.040 -0.2128 -0.1812  0.0869
48430W        W49294  16.536  24.368   6.729 -0.1511  0.0281 -0.0572
48431W        W49295  21.242  21.594   9.331 -0.1474 -0.0365  0.1647
48432W        W49296  18.329  26.403   9.009 -0.2291  0.1293  0.3845
48433W        W49297  21.473  22.864  11.099 -0.1515 -0.1719  0.0164
48434W        W49298  20.209  25.338   7.388  0.2515 -0.0908 -0.0111
48435W        W49299  20.580  22.728   8.573 -0.4727 -0.1332 -0.1821
48436W        W49300  22.404  22.333   9.710 -0.3093  0.2096 -0.0742
48437W        W49301  21.597  19.926  11.498 -0.0291 -0.3147  0.3258
48438W        W49302  19.442  21.773   7.367 -0.3238 -0.2982 -0.0409
48439W        W49303  21.363  21.727   7.934  0.1180  0.0767  0.1589
48440W        W49304  20.932  25.819   7.892 -0.0181 -0.0415 -0.2492
48441W        W49305  22.883  25.064  11.195  0.0451 -0.0853 -0.1580
48442W        W49306  19.524  27.686   6.559  0.1440  0.3832  0.0125
48443W        W49307  20.097  22.742  11.445  0.1005  0.2311 -0.1028
48444W        W49308  20.035  21.254   8.696 -0.2049 -0.2080 -0.0622
48445W        W49309  22.223  23.997  10.940  0.0770 -0.2333  0.2326
48446W        W49310  20.404  23.013   7.431 -0.1003 -0.1823  0.1275
48447W        W49311  18.948  23.757  10.374 -0.3758 -0.0818  0.0221
48448W        W49312  21.418  26.007   7.738 -0.2598  0.2081 -0.2156
48449W        W49313  18.237  23.270  10.448 -0.2488 -0.0471 -0.1198
48450W        W49314  17.039  25.182   8.086 -0.2481  0.2611  0.1149
48451W        W49315  21.704  24.383   9.025 -0.0138  0.1464  0.2502
48452W        W49316  19.318  25.380  11.438 -0.0920 -0.1515  0.1966
48453W        W49317  22.474  22.837  11.013  0.0087 -0.0118 -0.0357
48454W        W49318  21.625  25.876   9.438  0.3739  0.1244  0.3027
48455W        W49319  20.485  24.737   9.597 -0.0339 -0.1218 -0.0434
48456W        W49320  20.855  24.862   6.288  0.1526  0.0121  0.2607
48457W        W49321  20.701  25.409   7.807 -0.1289 -0.5251  0.3131
48458W        W49322  18.973  23.257  12.468  0.3528  0.0050  0.2031
48459W        W49323  19.236  23.287  10.145  0.0964  0.1133 -0.0133
48460W        W49324  22.402  20.779   8.102 -0.1786 -0.1061 -0.1608
48461W        W49325  22.415  25.646   8.478 -0.0941 -0.0167  0.3460
48462W        W49326  15.262  21.885  13.007 -0.0163  0.1682  0.0990
48463W        W49327  18.526  20.705  11.906  0.0224  0.1218  0.1793
48464W        W49328  19.746  27.358   6.903  0.1085  0.0579  0.0459
48465W        W49329  20.702  24.732   9.095  0.0780 -0.0705 -0.1130
48466W        W49330  20.392  25.815   8.092 -0.1992 -0.3079  0.0710
48467W        W49331  19.270  21.498   9.209 -0.1204 -0.0929  0.1546
48468W        W49332  18.768  25.842  12.757  0.2140 -0.0220 -0.2669
48469W        W49333  17.649  26.141  12.090  0.1325  0.0748  0.0014
48470W        W49334  19.886  24.868  10.306 -0.0018 -0.3377  0.3096
48471W        W49335  20.847  27.128  12.310 -0.0283 -0.2257 -0.1470
48472W        W49336  19.977  25.962   8.747  0.1704  0.3105 -0.1462
48473W        W49337  18.623  24.353  13.980 -0.2594 -0.1714 -0.1962
48474W        W49338  19.470  24.272  12.467  0.1835  0.2040  0.2168
48475W        W49339  21.774  24.350  11.037 -0.0254 -0.0115  0.1513
48476W        W49340  18.601  26.256  12.388 -0.1006  0.4068 -0.1344
48477W        W49341  19.306  23.495  12.863 -0.3195 -0.0817 -0.2732
48478W        W49342  21.556  24.607  13.654 -0.0340 -0.1234  0.3219
48479W        W49343  23.791  22.351  14.180  0.0434  0.1970  0.1302
48480W        W49344  18.667  24.739  11.370 -0.1534 -0.3403 -0.5733
48481W        W49345  19.538  23.543  14.269 -0.0083 -0.0773 -0.2069
48482W        W49346  20.717  23.021  15.515  0.2654  0.0996 -0.0516
48483W        W49347  21.957  25.678  12.570 -0.1663  0.0065 -0.1349
48484W        W49348  22.130  23.418  10.030 -0.2411 -0.1105  0.3886
48485W        W49349  20.628  22.310  16.446 -0.0362 -0.2127  0.1136
48486W        W49350  18.760  24.544  15.969 -0.1660  0.4589 -0.1794
48487W        W49351  21.094  22.905  14.218  0.1133  0.0517  0.2628
48488W        W49352  20.678  26.190  17.343  0.1422  0.2953  0.1877
48489W        W49353  16.993  24.024  12.899  0.0866  0.1284  0.1670
48490W        W49354  19.923  25.581  13.076 -0.0954  0.1179 -0.0560
48491W        W49355  21.774  22.711  11.621 -0.1202 -0.5242  0.3673
48492W        W49356  17.293  21.738  13.942 -0.2428  0.1067 -0.2397
48493W        W49357  20.259  22.461  13.780  0.0809  0.1133  0.1346
48494W        W49358  19.399  22.978  11.048  0.0730  0.1380  0.0280
48495W        W49359  16.369  25.902  12.491  0.0232 -0.1778  0.0378
48496W        W49360  19.044  24.340  14.760  0.2318 -0.2665  0.2069
48497W        W49361  20.992  22.801  12.532 -0.1315 -0.0169 -0.2477
48498W        W49362  16.517  25.630  15.229 -0.1703 -0.4170 -0.1048
48499W        W49363  19.156  26.913  12.323 -0.2316  0.1497  0.1826
48500W        W49364  21.281  24.264  13.411  0.0931  0.2432  0.0464
48501W        W49365  18.696  23.272  11.188  0.0677  0.3762 -0.1358
48502W        W49366  16.384  22.654  12.447  0.0940  0.1387  0.1898
48503W        W49367  20.477  27.400  14.624  0.1036 -0.0969 -0.1848
48504W        W49368  19.964  23.140  15.091  0.0431 -0.1620 -0.0709
48505W        W49369  20.625  23.824  14.067  0.0331 -0.5385  0.2432
48506W        W49370  20.716  25.436  11.567  0.1870  0.0680  0.1135
48507W        W49371  22.187  21.242  12.754 -0.2621 -0.1294  0.1516
48508W        W49372  20.565  23.591  11.398 -0.1631 -0.2856  0.2720
48509W        W49373  22.803  23.555  14.529 -0.2116  0.1673 -0.0763
48510W        W49374  19.589  25.445  14.158  0.0202 -0.1617 -0.1891
48511W        W49375  19.878  25.802  10.322 -0.2222 -0.2219  0.0820
48512W        W49376  20.106  25.084  11.681  0.2586 -0.0928 -0.1508
48513W        W49377  18.242  24.574  11.643 -0.0617  0.1345 -0.0159
48514W        W49378  22.383  21.685  14.440 -0.0898 -0.0055  0.0433
48515W        W49379  20.219  27.519  15.128 -0.1324  0.6224  0.2135
48516W        W49380  21.910  21.688  10.518  0.4561  0.0227 -0.1708
48517W        W49381  22.002  22.974  11.099 -0.1103  0.1052 -0.0224
48518W        W49382  21.518  25.945  14.256 -0.1018  0.0362  0.0871
48519W        W49383  18.239  22.610  13.765  0.0057 -0.0772  0.1672
48520W        W49384  19.680  23.057  16.963  0.4084  0.3097  0.1111
48521W        W49385  22.643  25.111  10.161  0.1902 -0.0147 -0.1528
48522W        W49386  21.080  19.521  11.657 -0.1838  0.1875 -0.0949
48523W        W49387  19.109  23.754  13.330  0.0263  0.0834  0.2413
48524W        W49388  16.470  22.082  12.044  0.0491 -0.0378 -0.0537
48525W        W49389  20.934  22.854  10.678 -0.0151 -0.2307 -0.0441
48526W        W49390  19.289  23.266  15.125 -0.3063  0.1222 -0.3026
48527W        W49391  19.608  22.293  11.777  0.0599  0.1141 -0.0746
48528W        W49392  18.916  24.177  11.354  0.0044 -0.2259  0.0545
48529W        W49393  19.611  26.560  12.078 -0.0867 -0.2319  0.2329
48530W        W49394  20.426  24.062  12.291  0.0191 -0.0640  0.1650
48531W        W49395  19.204  22.262  11.491 -0.3353 -0.1201  0.2525
48532W        W49396  20.606  23.422  13.566 -0.0230 -0.1938  0.1004
48533W        W49397  20.935  22.276  10.593 -0.2341  0.2429  0.1872
48534W        W49398  17.216  25.129  11.809  0.2338  0.1520 -0.0478
48535W        W49399  17.048  24.424  11.836  0.2220 -0.3265 -0.0873
48536W        W49400  18.094  23.041  16.532  0.1494 -0.1541  0.2610
48537W        W49401  20.564  21.505  11.225 -0.4923  0.0402 -0.1665
48538W        W49402  19.315  24.582  15.125 -0.0665  0.2103 -0.0711
48539W        W49403  22.503  23.774  11.301 -0.1332  0.1584  0.2095
48540W        W49404  20.712  24.399  13.416  0.2352  0.0530 -0.0649
48541W        W49405  20.678  23.806  15.126 -0.0872  0.1897 -0.0311
48542W        W49406  20.343  26.067   9.368  0.1405 -0.1764 -0.1964
48543W        W49407  20.560  24.729  13.754 -0.1803 -0.2177  0.0303
48544W        W49408  16.421  24.147  11.905 -0.0054  0.3357 -0.2429
48545W        W49409  17.823  21.356  15.089  0.2290  0.0185 -0.1556
48546W        W49410  19.573  22.487  10.640 -0.5141  0.0358  0.1738
48547W        W49411  22.755  22.698  10.589  0.2043 -0.2618  0.2086
48548W        W49412  20.423  23.849  15.586 -0.2996 -0.0286  0.3785
48549W        W49413  18.242  24.212  16.519  0.0283 -0.2521  0.0237
48550W        W49414  19.814  24.031  11.077 -0.0274  0.0806 -0.4418
48551W        W49415  21.530  25.197  11.926 -0.0537 -0.2807 -0.1119
48552W        W49416  19.115  22.285  13.550  0.0124  0.0059  0.1354
48553W        W49417  21.159  22.017  11.419 -0.0821 -0.3863 -0.0920
48554W        W49418  20.732  25.486  14.379  0.1398  0.3920  0.0485
48555W        W49419  21.619  22.304  15.356 -0.1007 -0.2323 -0.1053
48556W        W49420  19.682  26.719  14.910 -0.0429 -0.0674 -0.0173
48557W        W49421  21.298  23.106  12.809 -0.0477  0.0368 -0.0095
48558W        W49422  23.923  24.057  10.641 -0.0308 -0.2010  0.0882
48559W        W49423  20.870  26.835  17.018 -0.0388 -0.0055  0.0128
48560W        W49424  19.673  23.830  13.436  0.1315 -0.1809 -0.1262
48561W        W49425  19.483  24.765  12.142 -0.2227  0.2638 -0.0591
48562W        W49426  18.598  23.345  14.439  0.2076 -0.0626  0.4246
48563W        W49427  22.674  21.327  11.236 -0.3266  0.2851  0.1263
48564W        W49428  20.389  25.111  10.906  0.0849 -0.1662  0.0458
48565W        W49429  19.689  26.250  12.971  0.1258 -0.0563  0.0987
48566W        W49430  19.864  23.549  10.744 -0.4116 -0.1838 -0.0593
48567W        W49431  20.434  23.104  11.304  0.2143 -0.0566  0.3724
48568W        W49432  24.432  24.115  10.231 -0.2127 -0.2790 -0.1860
48569W        W49433  17.522  24.889  12.582  0.0836 -0.0393 -0.3065
48570W        W49434  21.471  24.307  11.945  0.1526  0.0210  0.0741
48571W        W49435  19.364  26.348  14.093  0.1076 -0.1009  0.1861
48572W        W49436  19.820  24.476  15.070 -0.1133  0.1110  0.3550
48573W        W49437  22.407  24.781  14.013 -0.1831 -0.1087  0.0784
48574W        W49438  20.005  25.355  10.046 -0.0165 -0.2049  0.1648
48575W        W49439  20.513  24.111  16.050  0.1456 -0.2339  0.2141
48576W        W49440  19.979  19.761  12.799  0.1079  0.0927  0.0237
48577W        W49441  21.428  22.508  12.431 -0.1922  0.0946  0.2216
48578W        W49442  17.787  20.523  15.192 -0.4103  0.1930 -0.1427
48579W        W49443  20.487  26.652  11.718 -0.1770  0.0584 -0.0801
48580W        W49444  19.509  26.609  12.544  0.1357 -0.1134  0.2574
48581W        W49445  18.868  24.817  14.548  0.1044  0.1632  0.0887
48582W        W49446  21.014  23.549   8.284 -0.1218 -0.2081  0.0996
48583W        W49447  17.829  22.245  10.681  0.0098 -0.2595 -0.3146
48584W        W49448  21.232  21.110  14.320 -0.1090  0.0499 -0.0863
48585W        W49449  21.910  23.062  13.148  0.0540 -0.4320 -0.0116
48586W        W49450  21.491  22.057  12.714  0.2849 -0.0235  0.0952
48587W        W49451  19.652  23.968  12.898  0.2158 -0.1165  0.0257
48588W        W49452  22.252  23.652  11.757  0.2047  0.1383  0.0208
48589W        W49453  20.522  23.410  10.863  0.0096  0.0466  0.2084
48590W        W49454  18.082  24.933  13.880  0.3284  0.0898  0.0643
48591W        W49455  18.613  22.299  11.198  0.1032  0.0397  0.1161
48592W        W49456  20.654  25.506  10.611 -0.1938 -0.4317  0.0484
48593W        W49457  22.836  25.525  12.016  0.2966 -0.0371 -0.3185
48594W        W49458  17.928  22.565  14.135 -0.3225  0.3104  0.1030
48595W        W49459  21.724  23.450  14.046 -0.2789 -0.3010  0.0921
48596W        W49460  20.805  26.190  14.446  0.1271  0.2684  0.0145
48597W        W49461  20.360  22.362  11.976 -0.1320  0.0849 -0.0914
48598W        W49462  18.915  25.549  16.585  0.2917  0.1221 -0.1289
48599W        W49463  22.141  21.620  15.747  0.3220 -0.1973  0.1023
48600W        W49464  17.957  26.778  14.537  0.0045 -0.0641  0.3052
48601W        W49465  23.120  23.130  12.518 -0.2207 -0.2147 -0.2340
48602W        W49466  20.391  22.895  11.894 -0.2721  0.1070  0.3129
48603W        W49467  18.555  22.991  13.562  0.0102  0.1015 -0.2362
48604W        W49468  21.952  21.209  10.662 -0.1263 -0.1876  0.1246
48605W        W49469  19.643  23.122  14.680  0.0694  0.1096 -0.0965
48606W        W49470  19.824  23.837  13.961 -0.0273  0.1319  0.1136
48607W        W49471  18.567  24.944   9.499  0.1026 -0.1229  0.3088
48608W        W49472  18.414  24.529  12.144 -0.1031 -0.1043 -0.0431
48609W        W49473  20.690  25.705  12.354 -0.2307  0.2789  0.0409
48610W        W49474  19.731  25.489   9.554 -0.0172 -0.2580  0.1323
48611W        W49475  21.109  21.421  13.257  0.2012 -0.0345  0.0301
48612W        W49476  16.827  23.425  12.767 -0.0568  0.0201  0.1828
48613W        W49477  20.498  23.285   8.889  0.1507  0.0337 -0.2652
48614W        W49478  22.329  25.507  12.037 -0.1600  0.0716 -0.0037
48615W        W49479  20.528  25.593  14.833 -0.0850  0.0394  0.2341
48616W        W49480  17.920  24.414  12.189 -0.0939  0.1270  0.0617
48617W        W49481  20.421  25.063   9.909  0.0341  0.0035  0.1102
48618W        W49482  21.006  23.179  14.605 -0.0164 -0.0284 -0.0567
48619W        W49483  18.763  22.482  10.748  0.1670  0.1838 -0.1146
48620W        W49484  19.700  26.020  11.740  0.0693 -0.0551  0.2154
48621W        W49485  17.369  21.968   9.456  0.0527 -0.2530 -0.0894
48622W        W49486  23.494  22.254  15.206  0.0319 -0.0672 -0.1258
48623W        W49487  21.243  21.480  10.115  0.1078 -0.0482  0.0294
48624W        W49488  18.538  23.790  14.193  0.1956 -0.2217 -0.0284
48625W        W49489  17.852  23.231  12.537  0.0815  0.1345 -0.3138
48626W        W49490  19.969  24.024   8.933 -0.0367  0.1188  0.3128
48627W        W49491  16.221  23.896  11.477 -0.3188  0.0387 -0.0632
48628W        W49492  24.354  21.717  15.117 -0.1486  0.1429  0.1664
48629W        W49493  19.559  24.095  11.909 -0.0419  0.3117 -0.2988
48630W        W49494  20.368  24.621  11.693  0.0890  0.2203 -0.0353
48631W        W49495  18.773  23.582  12.916  0.3086  0.1220  0.0534
48632W        W49496  20.344  21.640  15.315 -0.0265 -0.0327  0.1744
48633W        W49497  20.808  22.970  13.038  0.3218 -0.0369 -0.0690
48634W        W49498  20.098  21.399  12.269  0.2049  0.2349 -0.1728
48635W        W49499  18.152  24.590  10.504 -0.0091  0.1207  0.1737
48636W        W49500  21.275  24.875  15.528 -0.0403 -0.0638  0.0449
48637W        W49501  17.117  24.294  12.295  0.1174  0.0648 -0.2295
48638W        W49502  23.039  25.216  12.303 -0.2091 -0.1945 -0.0288
48639W        W49503  21.371  22.540  10.652 -0.1075  0.3142  0.0833
48640W        W49504  21.096  24.609  17.546  0.1804  0.3319  0.1704
48641W        W49505  20.704  25.935  11.437 -0.0504  0.1398  0.2572
48642W        W49506  19.493  23.455  11.202  0.1300  0.0981 -0.0555
48643W        W49507  22.885  22.072  12.998 -0.0168 -0.1190 -0.2620
48644W        W49508  20.111  26.774  13.969  0.1092 -0.0697 -0.0452
48645W        W49509  16.625  23.617  16.301 -0.1434  0.2578  0.1459
48646W        W49510  16.729  22.028  11.268  0.4484  0.0034  0.2037
48647W        W49511  22.364  21.656  12.332  0.0734  0.0957 -0.0387
48648W        W49512  19.458  25.883  11.326  0.2422  0.1815 -0.1251
48649W        W49513  23.014  26.862  11.537 -0.2299  0.0453  0.0976
48650W        W49514  20.309  22.971  12.976 -0.0282 -0.2903  0.2656
48651W        W49515  20.820  23.846  10.626  0.1900 -0.1318  0.0618
48652W        W49516  19.226  21.625  11.111 -0.0120  0.2710  0.2229
48653W        W49517  20.879  24.989  14.180  0.0955  0.2087  0.2994
48654W        W49518  20.333  23.804   9.570 -0.2735 -0.2214  0.0970
48655W        W49519  19.033  23.296  10.853 -0.2395  0.2173  0.1200
48656W        W49520  17.306  25.278  12.366 -0.2327 -0.0976 -0.2428
48657W        W49521  17.125  25.446  10.241 -0.0096  0.1386  0.2039
48658W        W49522  19.955  26.259  12.419 -0.1392 -0.0998 -0.0159
48659W        W49523  15.792  28.510  12.990  0.3692  0.0883 -0.0190
48660W        W49524  19.954  23.730  12.172  0.2986  0.1505  0.4231
48661W        W49525  22.419  23.321  12.570  0.0638 -0.0136  0.1209
48662W        W49526  21.714  22.851  15.209 -0.3621 -0.2191 -0.1432
48663W        W49527  19.050  23.668  11.259  0.1171 -0.0572 -0.0848
48664W        W49528  20.470  23.830  11.825  0.0393  0.2444  0.0180
48665W        W49529  17.552  19.857  12.169  0.0465 -0.0075 -0.1380
48666W        W49530  20.678  22.012  12.743 -0.1099  0.1196  0.1488
48667W        W49531  22.179  22.944  12.380  0.0836 -0.0546  0.1448
48668W        W49532  16.153  24.041  12.460 -0.1835 -0.1039  0.2263
48669W        W49533  23.551  21.872  15.495 -0.1674  0.4100  0.1644
48670W        W49534  20.250  22.419   9.932  0.1116  0.2344 -0.0799
48671W        W49535  17.643  22.509  14.486  0.1876  0.1157  0.3153
48672W        W49536  21.884  23.397  12.727 -0.3424 -0.2786  0.0452
48673W        W49537  18.765  24.446  11.832 -0.2105  0.1717 -0.3750
48674W        W49538  17.688  25.187  14.515 -0.0851 -0.0629  0.2852
48675W        W49539  20.938  24.125  13.799 -0.0550  0.1092  0.1535
48676W        W49540  19.887  23.870  11.598  0.2821  0.0290 -0.0144
48677W        W49541  19.813  23.390  13.818  0.1598 -0.1163 -0.2853
48678W        W49542  17.304  25.765  13.266  0.0434 -0.0929  0.0210
48679W        W49543  21.373  23.783  12.014  0.1787  0.0040  0.0527
48680W        W49544  20.023  23.595  13.049 -0.0681 -0.2114 -0.1542
48681W        W49545  21.140  20.700  15.998 -0.1214  0.3443  0.1804
48682W        W49546  21.311  22.168  13.262 -0.1088  0.0652  0.1624
48683W        W49547  19.022  24.299  12.245  0.0005  0.0698  0.4238
48684W        W49548  20.333  23.318  15.737  0.0934 -0.1661  0.0549
48685W        W49549  18.924  24.440   9.065  0.0560 -0.0479 -0.1743
48686W        W49550  19.764  25.205  14.636 -0.2245  0.2205  0.1925
48687W        W49551  16.434  26.096  14.616  0.0965 -0.1636  0.1553
48688W        W49552  21.127  25.000  12.252  0.2579 -0.0948 -0.2688
48689W        W49553  21.157  24.185  11.482  0.1986 -0.1812  0.0226
48690W        W49554  17.121  24.560  14.502  0.0429  0.1049 -0.1625
48691W        W49555  19.634  21.762  11.410 -0.1195 -0.3113 -0.2686
48692W        W49556  22.549  25.892  11.758  0.0744  0.0833  0.1485
48693W        W49557  20.604  23.854  13.304 -0.1003  0.0204 -0.0316
48694W        W49558  18.207  26.132  11.356  0.0863  0.1575 -0.0357
48695W        W49559  22.032  23.577  12.293  0.0336  0.1664  0.0845
48696W        W49560  20.826  26.095   9.533 -0.0890  0.3872  0.3918
48697W        W49561  21.849  25.551  12.053 -0.1260  0.0580  0.0132
48698W        W49562  19.884  22.647  10.950 -0.0914 -0.0979 -0.3517
48699W        W49563  21.183  25.179  13.123  0.1049 -0.3738  0.0827
48700W        W49564  17.451  24.414  14.180  0.1872 -0.2344  0.0991
48701W        W49565  22.936  25.636  15.407 -0.0328 -0.0579  0.0390
48702W        W49566  16.320  23.020  15.444 -0.0921 -0.4684 -0.3327
48703W        W49567  18.926  24.613  13.041 -0.0264  0.1103 -0.3433
48704W        W49568  20.315  23.054  13.848 -0.1100  0.1128  0.1516
48705W        W49569  17.837  24.648  14.362 -0.3280 -0.0252  0.0239
48706W        W49570  19.271  27.160  12.769 -0.0146  0.0455  0.0717
48707W        W49571  20.982  25.382  11.973 -0.3201 -0.1067  0.2087
48708W        W49572  17.423  22.693  14.018 -0.1764 -0.1051  0.1731
48709W        W49573  18.752  23.016  15.753  0.1733 -0.0969  0.0230
48710W        W49574  16.062  23.481  11.805 -0.0163  0.0340  0.2827
48711W        W49575  20.041  22.884  14.681 -0.0258 -0.1584 -0.1609
48712W        W49576  21.121  22.428  11.070 -0.0082  0.1772  0.1805
48713W        W49577  21.664  24.728  12.141  0.4044  0.0771  0.0357
48714W        W49578  17.797  26.800  13.115 -0.2972  0.2835  0.1040
48715W        W49579  20.490  24.582  11.091  0.1680 -0.4042  0.1454
48716W        W49580  20.255  21.216  12.679 -0.0002  0.5424 -0.1154
48717W        W49581  17.537  24.800  13.897  0.0925  0.0676  0.0420
48718W        W49582  18.931  25.915  10.635 -0.0363 -0.0270  0.1041
48719W        W49583  20.621  25.116  14.707 -0.0778 -0.0129 -0.0620
48720W        W49584  20.656  23.847  12.745  0.2355 -0.1465  0.2941
48721W        W49585  17.345  26.101  10.203 -0.0078 -0.1551 -0.0539
48722W        W49586  20.638  23.551  14.501  0.2689  0.1340 -0.0604
48723W        W49587  23.434  20.782  11.886 -0.0648  0.1210  0.0204
48724W        W49588  19.601  21.525  13.030 -0.1449 -0.3216 -0.3600
48725W        W49589  19.681  24.452  11.367  0.1475 -0.1423  0.0361
48726W        W49590  20.558  23.287   9.432 -0.3770  0.0698 -0.3113
48727W        W49591  19.165  25.567  12.682  0.0494  0.0873  0.1546
48728W        W49592  18.497  23.735  15.074  0.0424  0.0572  0.1539
48729W        W49593  21.489  24.591  14.823 -0.0321 -0.5057 -0.2263
48730W        W49594  19.765  25.308  12.637  0.0075 -0.1553 -0.2599
48731W        W49595  20.625  27.175  11.430  0.1347  0.1699  0.0284
48732W        W49596  19.242  27.364  15.347 -0.0523 -0.0599  0.2323
48733W        W49597  18.986  25.946  12.332 -0.0992  0.1202 -0.1288
48734W        W49598  22.028  25.065  12.172  0.1685  0.0107 -0.2468
48735W        W49599  19.551  23.895  16.590  0.0756 -0.3113 -0.0900
48736W        W49600  22.878  20.218   9.221 -0.1688 -0.1741 -0.1695
48737W        W49601  20.358  21.883  11.956  0.0845 -0.0165 -0.2041
48738W        W49602  21.057  24.044  14.352  0.1015 -0.0870  0.0969
48739W        W49603  22.817  23.334  12.865  0.0715 -0.2841 -0.0809
48740W        W49604  19.487  23.718  16.143 -0.0242 -0.4059  0.0875
48741W        W49605  18.212  26.036  14.257 -0.0153 -0.0459 -0.1599
48742W        W49606  21.734  22.313  13.549 -0.0379 -0.0360  0.0189
48743W        W49607  18.904  22.484  15.518  0.3293  0.1627  0.3368
48744W        W49608  21.020  20.764  13.513 -0.0534 -0.0854 -0.0085
48745W        W49609  18.778  25.606  11.954 -0.3486 -0.1658  0.0523
48746W        W49610  16.279  24.688  14.775 -0.1189 -0.0952 -0.2260
48747W        W49611  18.121  22.441  13.198  0.3347  0.2543 -0.0905
48748W        W49612  17.934  23.884  12.300 -0.2299  0.0389 -0.1994
48749W        W49613  18.549  24.231  15.033  0.5522  0.1283  0.0003
48750W        W49614  19.973  26.513  13.316  0.0788 -0.0100 -0.2709
48751W        W49615  20.846  22.138  11.915 -0.1339  0.2853  0.0801
48752W        W49616  22.748  22.880  14.993  0.1142  0.2056 -0.1388
48753W        W49617  20.161  24.284  11.377  0.2896 -0.2173 -0.0211
48754W        W49618  20.451  23.018  15.078  0.0589 -0.1616  0.1586
48755W        W49619  20.619  22.463  10.925  0.1079  0.2417  0.0709
48756W        W49620  21.385  26.272  11.784 -0.1626 -0.1408  0.1041
48757W        W49621  21.875  23.303  11.547 -0.0307 -0.1026 -0.2884
48758W        W49622  21.622  22.416  11.263  0.0248 -0.0151  0.2313
48759W        W49623  18.867  26.591  11.688 -0.0595 -0.4030  0.0472
48760W        W49624  20.210  24.089  14.187  0.0189  0.2863 -0.1645
48761W        W49625  21.599  21.619   8.984  0.0847 -0.0752 -0.1957
48762W        W49626  21.398  25.079  15.083  0.2278  0.1699  0.0247
48763W        W49627  21.313  22.008  10.274 -0.1276 -0.0032  0.0878
48764W        W49628  20.635  25.148  12.322 -0.0499 -0.1816 -0.0475
48765W        W49629  23.321  21.204  14.829 -0.1251  0.1441 -0.2031
48766W        W49630  19.758  27.031  12.687 -0.0548 -0.1602  0.1868
48767W        W49631  17.678  26.386   9.971 -0.1788 -0.0003 -0.1751
48768W        W49632  14.875  23.843  17.107 -0.0226 -0.2343  0.2096
48769W        W49633  18.708  25.491  13.554  0.2807  0.2595  0.0260
48770W        W49634  21.620  26.449  14.054 -0.1804 -0.1909 -0.0604
48771W        W49635  19.631  24.182   9.597 -0.0278  0.0490 -0.0852
48772W        W49636  24.043  27.379  13.561  0.1164 -0.0142 -0.1208
48773W        W49637  21.811  27.453  14.903 -0.0468  0.1090  0.0279
48774W        W49638  20.650  22.009  11.445  0.2347  0.0264  0.2219
48775W        W49639  19.161  24.669  12.583  0.1818 -0.2724 -0.2304
48776W        W49640  18.131  24.533  15.208  0.2269 -0.0210  0.0761
48777W        W49641  19.850  25.122  12.217  0.0132  0.0996  0.1069
48778W        W49642  20.261  23.517  14.088  0.1004 -0.2595  0.4706
48779W        W49643  21.073  19.502  12.265 -0.2126  0.0823  0.1056
48780W        W49644  19.694  23.118  12.968  0.0854 -0.2269  0.1257
48781W        W49645  18.742  26.486  15.631  0.3078 -0.0862 -0.2137
48782W        W49646  17.845  24.661  12.921  0.4213 -0.0301  0.1405
48783W        W49647  18.544  23.550  10.724 -0.0423 -0.0930  0.2428
48784W        W49648  20.462  26.312  10.615 -0.0653  0.2113  0.0641
48785W        W49649  19.529  24.273  13.352  0.0173  0.0886  0.0169
48786W        W49650  22.568  22.329  14.126  0.1309 -0.0527  0.0564
48787W        W49651  19.273  25.121  12.444 -0.1467  0.1024 -0.0337
48788W        W49652  21.213  26.152  15.202  0.1397  0.2126 -0.1115
48789W        W49653  19.931  24.353  13.836  0.0170 -0.2804  0.2370
48790W        W49654  20.166  25.989  12.775 -0.0572  0.0702  0.0373
48791W        W49655  20.053  24.069  13.211 -0.1174  0.2493 -0.0340
48792W        W49656  18.880  25.280  15.470  0.1457  0.2206 -0.4658
48793W        W49657  18.134  22.618  14.586 -0.2234  0.0540  0.0955
48794W        W49658  18.061  23.796  10.835 -0.2470 -0.2031 -0.0320
48795W        W49659  21.075  25.289  10.068 -0.0103 -0.1312 -0.3351
48796W        W49660  16.863  23.989  12.027 -0.3828 -0.0319  0.0991
48797W        W49661  22.426  25.049  14.848 -0.4320 -0.0998  0.0230
48798W        W49662  22.689  20.806  11.299 -0.1055  0.2480  0.1942
48799W        W49663  21.871  22.964  14.037 -0.0884  0.0084  0.2079
48800W        W49664  19.474  25.648  14.678 -0.0418  0.1426 -0.1594
48801W        W49665  20.420  26.522  16.442 -0.3353  0.3454  0.2159
48802W        W49666  22.659  24.325  13.173 -0.0050  0.1242 -0.0519
48803W        W49667  18.388  27.210  13.635  0.1335 -0.3100 -0.0859
48804W        W49668  21.981  25.952  11.778 -0.0159  0.0484  0.3022
48805W        W49669  18.837  23.935  13.809 -0.1907  0.0489  0.0928
48806W        W49670  19.818  20.628  12.052  0.1164  0.1424 -0.3486
48807W        W49671  19.746  24.788  12.565  0.0475 -0.1277  0.0573
48808W        W49672  19.615  22.572  11.403 -0.1439  0.2583 -0.0930
48809W        W49673  22.251  24.086  12.280  0.3107  0.1454  0.0491
48810W        W49674  20.133  24.777  12.094 -0.0393  0.0590  0.1760
48811W        W49675  18.764  23.546  11.658 -0.1325 -0.0486  0.2053
48812W        W49676  17.525  27.718  13.486  0.1238  0.0165 -0.3759
48813W        W49677  15.275  21.511  10.897 -0.0959  0.2622  0.0167
48814W        W49678  18.095  20.023  13.659 -0.1015 -0.0234  0.1485
48815W        W49679  19.933  25.827  12.134 -0.1054 -0.1634 -0.3062
48816W        W49680  19.884  24.436  12.977  0.0845 -0.0820  0.3308
48817W        W49681  21.541  25.559  13.374 -0.0836  0.0127  0.0961
48818W        W49682  20.276  23.112   8.098  0.0327  0.1107  0.1222
48819W        W49683  20.491  23.414  13.011 -0.0889 -0.2049  0.1996
48820W        W49684  18.223  24.677  10.991  0.1093 -0.1995 -0.0322
48821W        W49685  21.617  26.737  10.601 -0.4203 -0.1359  0.0765
48822W        W49686  23.041  22.414  10.295 -0.2654  0.0857 -0.0866
48823W        W49687  16.422  23.395  11.294 -0.1077  0.0131  0.1254
48824W        W49688  20.757  23.963  16.617 -0.0019 -0.1173  0.2938
48825W        W49689  20.174  22.598  15.090 -0.1453 -0.0708  0.2001
48826W        W49690  19.253  23.232  12.014 -0.1186  0.1176  0.0495
48827W        W49691  17.709  23.961  11.137 -0.1513 -0.2790 -0.3084
48828W        W49692  19.470  24.149  15.288  0.0810  0.1527 -0.0794
48829W        W49693  17.503  22.930  11.118 -0.0822 -0.1454 -0.2302
48830W        W49694  20.753  23.858  10.155  0.2344 -0.1121  0.5732
48831W        W49695  17.214  27.364  12.525 -0.1734 -0.1396 -0.1608
48832W        W49696  18.831  27.014  13.790  0.0556 -0.0080 -0.1412
48833W        W49697  21.691  24.601  15.352 -0.0950 -0.3241 -0.3558
48834W        W49698  20.253  21.858  14.652 -0.0134 -0.4154  0.5037
48835W        W49699  21.778  22.750  10.331 -0.0267  0.0163  0.2305
48836W        W49700  23.529  24.386  12.082 -0.1301 -0.3075 -0.1140
48837W        W49701  17.369  23.378   9.501 -0.0521 -0.0691  0.2277
48838W        W49702  21.880  25.086  11.016  0.1012  0.2878 -0.0295
48839W        W49703  20.985  23.738   9.448 -0.0069 -0.0882 -0.1982
48840W        W49704  19.712  26.442  15.288  0.1567  0.2883  0.2357
48841W        W49705  19.670  27.217  13.126 -0.0315  0.0649  0.3154
48842W        W49706  19.835  21.499  16.091 -0.2648  0.1836  0.0982
48843W        W49707  17.908  23.720  12.778  0.2469  0.1244  0.0461
48844W        W49708  19.542  25.178  13.729 -0.1620 -0.1103 -0.2484
48845W        W49709  17.884  24.792  15.649  0.1698 -0.0752  0.3516
48846W        W49710  20.311  23.476  12.518  0.0059 -0.1912  0.1561
48847W        W49711  19.059  24.034  11.800 -0.0063  0.1954  0.0498
48848W        W49712  16.410  24.198  10.592  0.4804 -0.1938  0.1170
48849W        W49713  19.053  24.198  15.785  0.1100 -0.2607  0.2383
48850W        W49714  23.526  24.954  15.283 -0.0362  0.1528 -0.2683
48851W        W49715  18.740  26.193  14.306  0.4144  0.1810  0.1983
48852W        W49716  19.723  23.286  10.187 -0.0358  0.0363  0.4365
48853W        W49717  21.457  23.803  14.260 -0.3301  0.1756  0.0865
48854W        W49718  19.418  22.756  10.231  0.0667 -0.0039 -0.2442
48855W        W49719  18.256  25.360  11.828  0.1076  0.0144  0.2109
48856W        W49720  19.291  25.641  13.560 -0.2288 -0.0716 -0.0536
48857W        W49721  19.688  24.630  15.547 -0.1381 -0.2212  0.1894
48858W        W49722  15.712  24.611  12.989 -0.0547 -0.0025 -0.1811
48859W        W49723  22.035  25.089  13.221  0.2534 -0.0517  0.5473
48860W        W49724  20.452  24.259  13.003 -0.0515  0.1676  0.0633
48861W        W49725  15.834  22.576  11.580  0.0730 -0.4377 -0.3053
48862W        W49726  18.431  23.220  15.269 -0.0918 -0.0019  0.2038
48863W        W49727  18.296  25.003  15.293  0.0341  0.1473  0.1692
48864W        W49728  19.847  24.946  13.041 -0.0854  0.0716 -0.1589
48865W        W49729  17.523  24.764  12.119  0.0274  0.0174 -0.0864
48866W        W49730  18.076  22.480   9.013 -0.2077 -0.0235 -0.1527
48867W        W49731  20.641  24.884  17.297 -0.1010  0.1634  0.0364
48868W        W49732  18.313  24.077  17.419 -0.0448 -0.0006  0.0112
48869W        W49733  20.492  24.622  14.607  0.1541 -0.0824 -0.0845
48870W        W49734  20.524  25.218  19.173 -0.1588  0.0265 -0.1006
48871W        W49735  19.011  24.692  15.559  0.2142  0.0760  0.1715
48872W        W49736  18.995  23.500  14.173 -0.2445 -0.0304  0.3317
48873W        W49737  17.647  23.090  15.325 -0.0350  0.1376  0.1231
48874W        W49738  18.372  26.769  14.845 -0.2618 -0.0023 -0.0301
48875W        W49739  18.102  24.491  19.582 -0.1958  0.1557  0.2382
48876W        W49740  20.763  20.320  18.581  0.1540 -0.1417  0.1556
48877W        W49741  19.589  22.847  18.417  0.1918  0.1974  0.1659
48878W        W49742  21.489  23.375  13.259 -0.1119  0.2544 -0.2988
48879W        W49743  21.305  24.148  18.537 -0.3238  0.0977  0.0457
48880W        W49744  21.500  24.824  17.312 -0.0802 -0.2620  0.0916
48881W        W49745  20.048  21.712  16.509  0.3236  0.1765 -0.1473
48882W        W49746  20.317  24.887  18.819 -0.3665  0.1053  0.1218
48883W        W49747  19.477  26.093  17.393 -0.2546 -0.1101  0.1562
48884W        W49748  17.721  23.201  17.790  0.3399 -0.1330  0.1346
48885W        W49749  21.124  24.617  22.225  0.0695 -0.1098  0.1766
48886W        W49750  22.256  21.828  18.818  0.4303  0.1680  0.0130
48887W        W49751  18.878  24.906  18.747 -0.1182 -0.2442  0.1496
48888W        W49752  20.588  23.051  16.550  0.1015  0.0589 -0.0543
48889W        W49753  20.835  26.672  18.440  0.2027  0.1973 -0.0330
48890W        W49754  17.904  25.978  16.436  0.2256  0.1134  0.2147
48891W        W49755  17.679  23.236  14.833  0.0788 -0.0214 -0.4644
48892W        W49756  19.276  22.701  17.620  0.3798 -0.2473  0.0280
48893W        W49757  20.017  23.991  18.917 -0.1273  0.0030  0.0038
48894W        W49758  18.469  24.522  19.929  0.0056 -0.1411  0.6130
48895W        W49759  19.855  24.581  16.994 -0.0011 -0.1714  0.1344
48896W        W49760  19.914  21.233  17.087  0.1413  0.0003 -0.1704
48897W        W49761  18.471  23.595  16.518 -0.0094  0.1309 -0.1548
48898W        W49762  21.833  24.158  18.133  0.1426  0.2852 -0.0413
48899W        W49763  20.179  25.176  16.307 -0.2047  0.1176 -0.2847
48900W        W49764  17.503  23.884  16.808  0.2848  0.1884  0.0372
48901W        W49765  18.771  22.700  16.518 -0.1831 -0.2699  0.0101
48902W        W49766  22.539  23.199  18.735  0.0522 -0.0187  0.0272
48903W        W49767  17.480  23.662  17.658  0.1231 -0.0084  0.0047
48904W        W49768  19.075  22.673  15.961 -0.0912  0.2544 -0.0889
48905W        W49769  21.433  23.798  12.987  0.0008 -0.0891 -0.3353
48906W        W49770  25.568  20.788  14.870  0.0167 -0.1935  0.0034
48907W        W49771  21.432  27.279  14.420  0.1705 -0.0273 -0.1594
48908W        W49772  24.366  24.396  16.511 -0.0620 -0.1672  0.3277
48909W        W49773  19.463  25.625  18.787  0.0161  0.0773 -0.1702
48910W        W49774  22.147  24.714  15.270  0.0728 -0.0853 -0.0581
48911W        W49775  19.279  25.096  15.303 -0.2393 -0.2169  0.0918
48912W        W49776  18.699  25.004  15.872  0.1165 -0.1671  0.0933
48913W        W49777  19.519  22.402  20.570  0.0161 -0.0022  0.2711
48914W        W49778  23.209  23.423  20.002 -0.0728  0.1107  0.1189
48915W        W49779  20.490  26.260  16.900  0.2368  0.0145  0.0285
48916W        W49780  20.450  26.274  12.476 -0.1077 -0.2408 -0.0796
48917W        W49781  20.782  24.289  15.110 -0.1890  0.1013  0.2171
48918W        W49782  23.079  23.828  16.657  0.3900  0.1202  0.0516
48919W        W49783  21.360  24.063  20.541  0.0620 -0.1546  0.3770
48920W        W49784  21.389  25.130  16.840 -0.0070 -0.1965 -0.2084
48921W        W49785  22.022  23.663  14.390 -0.3900  0.0986 -0.1978
48922W        W49786  17.741  23.884  15.660  0.0183  0.1931  0.0852
48923W        W49787  18.650  23.912  16.054  0.0614 -0.0303  0.1529
48924W        W49788  19.709  24.258  14.290 -0.2127 -0.0858  0.1840
48925W        W49789  19.671  25.156  17.280 -0.1950  0.2057 -0.0045
48926W        W49790  16.005  23.956  17.438  0.1341 -0.1035  0.1008
48927W        W49791  20.328  24.759  12.964 -0.0425  0.0444  0.0565
48928W        W49792  17.523  25.258  19.052 -0.2828  0.0390 -0.1920
48929W        W49793  17.895  24.182  17.032  0.1011  0.0279  0.1762
48930W        W49794  17.795  24.173  16.290  0.2566 -0.0168  0.1162
48931W        W49795  17.611  22.071  18.542 -0.0366 -0.0622  0.0961
48932W        W49796  23.730  24.608  16.064 -0.1427  0.0930 -0.2581
48933W        W49797  19.316  24.619  15.956 -0.1693  0.0537  0.0510
48934W        W49798  17.609  23.831  14.835 -0.1954 -0.0652  0.0587
48935W        W49799  19.697  24.959  18.053 -0.0390  0.0279  0.4169
48936W        W49800  20.510  24.490  16.980  0.3023  0.1261 -0.1358
48937W        W49801  19.354  22.725  15.526  0.0640 -0.1954  0.0065
48938W        W49802  20.665  22.370  14.094 -0.1987  0.0973 -0.0157
48939W        W49803  23.820  26.083  15.801 -0.0952  0.0992  0.0602
48940W        W49804  23.358  22.524  17.343  0.0032  0.1628  0.2306
48941W        W49805  21.484  26.898  17.854  0.2499  0.3239  0.0494
48942W        W49806  17.937  22.219  16.791 -0.4643  0.1946 -0.1677
48943W        W49807  20.783  22.436  15.426  0.0334  0.2798  0.4802
48944W        W49808  17.001  21.163  17.220 -0.0348 -0.3413  0.0647
48945W        W49809  20.441  23.934  17.012 -0.1033 -0.0030  0.1110
48946W        W49810  19.709  26.047  16.464  0.0753  0.0544  0.2886
48947W        W49811  19.722  22.297  15.130 -0.1032  0.1076 -0.3237
48948W        W49812  18.230  22.632  16.845 -0.1432 -0.0604 -0.3324
48949W        W49813  16.769  22.493  17.577  0.2221 -0.0793 -0.2548
48950W        W49814  22.007  22.802  17.985  0.1619  0.0574  0.2097
48951W        W49815  21.843  19.958  19.235 -0.0900 -0.2856 -0.2133
48952W        W49816  23.691  22.792  14.626  0.2096  0.3741  0.4785
48953W        W49817  21.512  25.210  20.342  0.2381 -0.0554  0.2161
48954W        W49818  20.285  23.903  20.166 -0.0260  0.0984 -0.1468
48955W        W49819  22.983  25.315  20.112  0.0543  0.0061 -0.0077
48956W        W49820  21.631  22.043  18.191 -0.2655 -0.2808 -0.0789
48957W        W49821  20.593  24.525  17.658  0.1616 -0.0491  0.0497
48958W        W49822  18.117  21.118  18.833 -0.2388 -0.3855 -0.2337
48959W        W49823  19.675  23.689  15.098  0.0474  0.0067 -0.0384
48960W        W49824  21.530  25.395  12.501  0.1121  0.0423 -0.0233
48961W        W49825  21.229  19.467  19.976  0.1159  0.1886 -0.3122
48962W        W49826  18.714  23.507  15.706 -0.2899  0.4307 -0.1829
48963W        W49827  22.543  23.435  12.125 -0.1241  0.1437 -0.0387
48964W        W49828  18.554  23.643  18.640  0.0005  0.0764  0.0084
48965W        W49829  21.263  24.451  12.374 -0.1875  0.1294  0.0432
48966W        W49830  19.839  23.096  14.224 -0.0256 -0.1539  0.1931
48967W        W49831  20.145  26.255  15.464 -0.0539  0.2112  0.0859
48968W        W49832  16.506  24.875  15.923 -0.2364  0.1199 -0.0021
48969W        W49833  21.317  23.329  14.238  0.1604 -0.0082  0.0968
48970W        W49834  21.966  24.954  18.493 -0.0119 -0.2393 -0.0486
48971W        W49835  22.129  20.579  15.989  0.1362 -0.0906 -0.2373
48972W        W49836  20.649  21.768  15.717 -0.0535 -0.0972  0.2172
48973W        W49837  21.087  24.679  15.097 -0.2724 -0.0744 -0.0340
48974W        W49838  21.084  25.091  17.305 -0.0793  0.1557  0.1444
48975W        W49839  19.272  22.651  17.007 -0.2457  0.0576 -0.1471
48976W        W49840  18.435  24.607  17.522 -0.0509 -0.1917 -0.0292
48977W        W49841  18.064  23.511  17.035 -0.1133  0.2412  0.0957
48978W        W49842  21.071  25.441  19.450  0.1693  0.2245  0.0568
48979W        W49843  23.119  24.288  16.810 -0.0252 -0.0132  0.1336
48980W        W49844  20.705  26.315  18.115 -0.1648  0.2227 -0.1243
48981W        W49845  20.369  25.811  17.451 -0.0628 -0.0411  0.1832
48982W        W49846  21.083  25.092  11.515  0.0573 -0.1369  0.1941
48983W        W49847  21.695  26.229  17.890 -0.0374 -0.0837  0.0815
48984W        W49848  19.032  22.904  18.491  0.0789 -0.0009 -0.1928
48985W        W49849  17.458  24.058  15.272 -0.0930 -0.0592  0.0687
48986W        W49850  21.036  23.473  12.974 -0.0087 -0.1379 -0.2765
48987W        W49851  21.695  24.691  13.161  0.0330 -0.0618  0.3577
48988W        W49852  19.791  26.862  14.463 -0.2596  0.3438 -0.1344
48989W        W49853  21.245  23.133  17.164  0.0121  0.0089 -0.0149
48990W        W49854  22.534  23.877  16.042  0.1260 -0.2240  0.0929
48991W        W49855  20.658  24.048  14.628 -0.0640  0.1228  0.1254
48992W        W49856  21.428  25.823  17.809 -0.2036 -0.1505 -0.0447
48993W        W49857  20.940  22.038  16.738  0.1137 -0.1332  0.0799
48994W        W49858  22.401  23.818  18.627  0.0935 -0.1269 -0.3237
48995W        W49859  22.503  26.177  17.376 -0.1750  0.0889  0.0036
48996W        W49860  20.151  23.875  15.083  0.1708  0.4014 -0.0008
48997W        W49861  21.026  25.498  14.864 -0.0408 -0.0524 -0.2400
48998W        W49862  19.867  21.050  17.538  0.0364  0.1425  0.2991
48999W        W49863  19.614  24.735  16.396 -0.1437 -0.1081 -0.1350
49000W        W49864  19.903  25.077  14.147 -0.2074  0.2173 -0.0216
49001W        W49865  22.248  27.866  16.756 -0.1207 -0.1995 -0.2379
49002W        W49866  18.550  21.643  16.073 -0.2500  0.3315 -0.1969
49003W        W49867  19.521  24.700  14.652 -0.5438 -0.3534 -0.3546
49004W        W49868  21.678  26.008  18.394  0.4644  0.0209 -0.2393
49005W        W49869  19.179  26.581  14.952 -0.1063 -0.1045 -0.0809
49006W        W49870  20.367  24.803  15.983  0.1709 -0.3695  0.5268
49007W        W49871  19.711  22.085  13.244  0.0592  0.2816  0.0681
49008W        W49872  22.321  22.784  16.483  0.1025  0.2723 -0.1065
49009W        W49873  19.439  24.197  13.804  0.0199  0.0240 -0.0660
49010W        W49874  16.967  24.564  16.394  0.1578 -0.0145  0.3534
49011W        W49875  21.006  25.969  16.979  0.1973  0.2029  0.4325
49012W        W49876  20.077  22.929  15.529  0.0590 -0.0101  0.0119
49013W        W49877  20.902  23.688  16.971  0.0139  0.2570 -0.0777
49014W        W49878  20.522  25.315  16.606 -0.0087 -0.1865 -0.3809
49015W        W49879  19.080  25.398  13.933  0.2204 -0.2263 -0.0802
49016W        W49880  18.397  23.793  18.129  0.2905 -0.2525  0.1503
49017W        W49881  25.026  23.244  20.542  0.0192 -0.0212  0.2035
49018W        W49882  19.485  26.060  15.642  0.1455 -0.0017  0.1402
49019W        W49883  20.760  24.746  19.080 -0.2102 -0.0749 -0.1225
49020W        W49884  21.515  21.335  11.529 -0.1095 -0.2064 -0.1120
49021W        W49885  20.880  23.395  17.416  0.0179 -0.1621  0.1694
49022W        W49886  20.283  22.236  16.898  0.3026 -0.0283  0.1563
49023W        W49887  20.873  23.982  15.709 -0.3279  0.1303 -0.0829
49024W        W49888  16.577  26.639  11.905  0.4586  0.0517 -0.2029
49025W        W49889  18.288  23.535  12.458 -0.1749  0.1383 -0.1017
49026W        W49890  21.727  21.513  17.516 -0.1728 -0.1377 -0.0732
49027W        W49891  21.634  21.716  15.291  0.2305  0.0733 -0.0033
49028W        W49892  20.348  22.202  19.317 -0.0755 -0.0384 -0.0938
49029W        W49893  20.906  21.109  17.400 -0.1413 -0.0822  0.2177
49030W        W49894  18.724  25.026  18.280  0.2136  0.0306  0.0786
49031W        W49895  19.316  20.404  16.642 -0.0608  0.1682 -0.3273
49032W        W49896  20.412  25.651  16.256  0.0348 -0.1118 -0.0592
49033W        W49897  16.447  19.659  14.660 -0.1792  0.4118 -0.0704
49034W        W49898  17.898  24.957  14.927 -0.0945 -0.0997 -0.3459
49035W        W49899  18.984  25.458  18.969  0.1396  0.0023  0.1429
49036W        W49900  21.246  24.141  14.880  0.0722  0.1937  0.0675
49037W        W49901  18.353  24.309  17.942 -0.2692 -0.2293  0.1086
49038W        W49902  21.541  24.400  19.411  0.2232 -0.0260  0.1854
49039W        W49903  20.041  22.725  17.001  0.2737  0.1124 -0.0883
49040W        W49904  22.532  23.181  16.673 -0.1768  0.1002 -0.2606
49041W        W49905  23.347  23.477  16.337 -0.1273 -0.0921  0.0507
49042W        W49906  22.127  23.966  16.900 -0.2183 -0.2265  0.0144
49043W        W49907  17.390  25.712  18.052 -0.1772 -0.0990 -0.0818
49044W        W49908  19.116  24.705  16.421 -0.0988 -0.1529 -0.1094
49045W        W49909  17.301  25.362  15.654 -0.0022 -0.0833  0.2502
49046W        W49910  21.469  23.682  16.365 -0.4133 -0.1325  0.1417
49047W        W49911  17.614  21.863  16.021  0.1862  0.0781 -0.1383
49048W        W49912  20.909  22.724  15.063  0.0605  0.1469 -0.1367
49049W        W49913  20.328  24.376  15.034  0.4055  0.4147 -0.0824
49050W        W49914  17.516  23.755  16.180 -0.1251 -0.0617  0.0517
49051W        W49915  21.564  25.104  15.937  0.2063 -0.2720 -0.1680
49052W        W49916  20.382  22.544  17.405 -0.2711 -0.2769 -0.0310
49053W        W49917  23.340  20.592  14.713 -0.1786  0.0465  0.1582
49054W        W49918  18.601  19.685  13.640  0.1037 -0.0068 -0.2667
49055W        W49919  17.834  24.855  18.291  0.4423  0.0142 -0.0682
49056W        W49920  19.515  24.390  16.735 -0.1599  0.0603 -0.0994
49057W        W49921  17.047  24.781  12.350  0.1082  0.0819  0.2197
49058W        W49922  18.159  26.172  12.210  0.2737  0.0144 -0.0602
49059W        W49923  19.983  22.766  21.811  0.1950 -0.3046 -0.2236
49060W        W49924  18.621  21.084  17.339  0.0756 -0.5869 -0.2095
49061W        W49925  20.211  22.640  16.491  0.3019 -0.1432 -0.0845
49062W        W49926  19.952  20.477  16.517 -0.1410  0.2983 -0.1708
49063W        W49927  21.569  22.921  14.440  0.3783 -0.1849 -0.0328
49064W        W49928  16.990  22.128  18.771  0.1793 -0.1909  0.3612
49065W        W49929  20.111  24.821  17.354  0.0505 -0.1479  0.1604
49066W        W49930  23.215  22.170  18.234  0.0646 -0.0025  0.0336
49067W        W49931  20.778  21.363  15.395  0.1395  0.1524  0.0327
49068W        W49932  21.220  21.874  17.205  0.2199  0.0561  0.2725
49069W        W49933  19.883  22.043  10.708 -0.1085  0.0725  0.0342
49070W        W49934  18.517  21.629  16.767 -0.0669 -0.1105 -0.0012
49071W        W49935  21.457  22.281  16.720  0.3418 -0.3203 -0.1772
49072W        W49936  17.331  22.618  15.592  0.0184 -0.0520 -0.0939
49073W        W49937  19.514  24.554  19.865  0.2778  0.1688  0.2722
49074W        W49938  20.513  24.028  17.503  0.4638  0.2110  0.6716
49075W        W49939  20.545  26.536  15.733  0.3237  0.0086 -0.1277
49076W        W49940  16.627  24.732  15.420  0.2627  0.0109  0.0606
49077W        W49941  20.441  24.708  21.773 -0.0475  0.0785 -0.0053
49078W        W49942  20.404  24.005  19.318 -0.0987  0.0246 -0.4072
49079W        W49943  19.945  24.655  19.032 -0.0145 -0.2850 -0.1133
49080W        W49944  22.761  21.201  16.000 -0.1680 -0.1712 -0.3536
49081W        W49945  23.342  25.335  16.912  0.3029 -0.0240 -0.3711
49082W        W49946  22.604  25.948  15.665 -0.2734 -0.0163 -0.2391
49083W        W49947  20.914  25.482  16.936  0.1735 -0.0501  0.1100
49084W        W49948  19.872  24.632  18.519 -0.0659 -0.0708 -0.1332
49085W        W49949  20.009  23.464  17.886 -0.3784  0.0727  0.2506
49086W        W49950  20.820  24.210  18.560  0.1069 -0.0421  0.1678
49087W        W49951  21.716  21.827  17.144  0.0659 -0.2484 -0.0673
49088W        W49952  22.494  22.912  17.467 -0.1419  0.1039 -0.2633
49089W        W49953  21.149  26.101  18.203 -0.3526 -0.1340  0.0961
49090W        W49954  19.936  21.818  15.034  0.0883 -0.0606  0.0666
49091W        W49955  21.045  22.642  13.301 -0.1449  0.0412  0.1894
49092W        W49956  20.380  21.073  17.643  0.2109 -0.2987  0.0029
49093W        W49957  21.408  24.172  20.007  0.0060  0.4018 -0.4100
49094W        W49958  19.717  25.160  16.651 -0.0221 -0.3112 -0.1647
49095W        W49959  22.170  27.665  17.869 -0.0601  0.1602 -0.1187
49096W        W49960  19.645  23.821  17.998  0.1414 -0.3761  0.2030
49097W        W49961  19.403  21.131  17.074  0.1534 -0.0714  0.2719
49098W        W49962  16.328  24.546  19.233  0.0169  0.2257 -0.0788
49099W        W49963  18.149  25.515  15.296  0.0177 -0.1399  0.2078
49100W        W49964  21.092  23.790  18.837 -0.1154 -0.1434  0.1183
49101W        W49965  21.044  22.877  19.405 -0.1209  0.1895 -0.0033
49102W        W49966  21.101  23.308  18.329 -0.3698 -0.1335 -0.3834
49103W        W49967  20.077  25.309  15.866  0.0459 -0.1556  0.0245
49104W        W49968  20.072  23.160  16.691 -0.1916  0.0209  0.1911
49105W        W49969  19.998  27.505  16.207  0.1790 -0.1322  0.0716
49106W        W49970  18.795  25.041  16.582 -0.0327  0.0613  0.2970
49107W        W49971  18.959  24.521  16.873  0.0525 -0.0926  0.0075
49108W        W49972  19.581  22.487  19.257  0.1731 -0.3360  0.3953
49109W        W49973  17.488  22.479  16.051  0.0096 -0.1330  0.1332
49110W        W49974  17.843  18.288  15.100  0.2035  0.3315 -0.2074
49111W        W49975  21.113  25.145  19.012 -0.1937  0.0573 -0.0965
49112W        W49976  19.304  25.124  14.819 -0.0653  0.0203  0.2479
49113W        W49977  20.926  24.432  15.998  0.1892 -0.0986 -0.0160
49114W        W49978  20.908  24.950  22.644  0.0140 -0.1369 -0.0411
49115W        W49979  21.485  25.827  14.853 -0.0825  0.2009 -0.0431
49116W        W49980  20.702  23.141  16.045 -0.1337  0.1727 -0.2449
49117W        W49981  17.731  23.284  16.235 -0.2163 -0.0521 -0.0051
49118W        W49982  18.192  25.155  19.350  0.0581 -0.1038  0.0671
49119W        W49983  23.115  26.209  17.451 -0.0791  0.4242 -0.2244
49120W        W49984  20.371  23.522  17.498  0.2302  0.1716  0.1208
49121W        W49985  18.606  22.601  15.150 -0.4583 -0.2813  0.0871
49122W        W49986  20.360  27.567  17.367  0.1626  0.0740 -0.2310
49123W        W49987  21.652  23.155  16.520 -0.1681  0.0850  0.0650
49124W        W49988  18.348  20.898  17.714  0.1772  0.0305  0.2906
49125W        W49989  20.055  24.772  14.705  0.2700 -0.2008 -0.0819
49126W        W49990  19.960  24.158  15.512 -0.1496  0.1509  0.2380
49127W        W49991  21.851  22.759  16.694  0.1109 -0.0740 -0.1804
49128W        W49992  20.403  21.054  16.092 -0.1617 -0.2014 -0.2833
49129W        W49993  20.922  27.020  19.151 -0.0387  0.4172 -0.0121
49130W        W49994  21.489  23.781  19.329  0.2438 -0.0027 -0.0487
49131W        W49995  21.124  24.574  18.806 -0.1115  0.0978 -0.0603
49132W        W49996  19.088  25.532  18.048  0.2603 -0.0311  0.0292
49133W        W49997  16.915  27.419  16.042 -0.0358 -0.0121  0.3962
49134W        W49998  26.302  23.408  15.568  0.0629 -0.1789 -0.0026
49135W        W49999  20.659  22.924  19.809 -0.1323  0.0059 -0.0320
49136W        W50000  22.793  21.461  15.117  0.1059 -0.0058 -0.1709
49137W        W50001  17.785  25.216  12.833  0.1137  0.2218 -0.2001
49138W        W50002  20.864  22.324  17.162  0.0105  0.2330  0.1547
49139W        W50003  21.195  23.363  17.809 -0.2012  0.1375 -0.2145
49140W        W50004  18.473  22.049  17.542  0.1161 -0.0437 -0.0121
49141W        W50005  20.765  27.522  19.127  0.0199  0.3768 -0.2355
49142W        W50006  22.543  22.480  17.681  0.0738 -0.3328  0.1549
49143W        W50007  18.532  22.540  15.876 -0.2562  0.2046  0.1374
49144W        W50008  20.897  24.999  16.815  0.1976  0.0463 -0.1289
49145W        W50009  21.017  23.685  14.724 -0.0063 -0.2377  0.4013
49146W        W50010  19.337  21.427  19.157 -0.1692  0.2073  0.0978
49147W        W50011  21.182  22.147  19.762 -0.1136  0.3365 -0.2584
49148W        W50012  19.977  21.051  15.811 -0.1503 -0.3774 -0.2818
49149W        W50013  19.694  23.035  16.372  0.2252  0.3078  0.4593
49150W        W50014  15.706  26.006  18.108  0.1653  0.0509  0.1544
49151W        W50015  20.742  26.620  17.632 -0.0317 -0.1067  0.1796
49152W        W50016  22.355  26.095  19.089  0.1703 -0.1043 -0.3218
49153W        W50017  18.838  27.002  16.993  0.1387  0.1557  0.0138
49154W        W50018  19.743  22.153  18.334 -0.0520 -0.0862  0.3842
49155W        W50019  22.096  20.912  15.026 -0.3140  0.1994 -0.0797
49156W        W50020  20.636  23.966  19.748  0.1163 -0.0334 -0.0505
49157W        W50021  19.050  23.287  17.638 -0.1055  0.0132  0.0748
49158W        W50022  20.154  24.813  15.455 -0.1565 -0.0754 -0.0616
49159W        W50023  20.774  22.781  13.722 -0.0473  0.2916 -0.3421
49160W        W50024  18.761  24.139  16.496  0.0013 -0.0350 -0.1775
49161W        W50025  16.896  26.368  19.361 -0.2627 -0.2650 -0.0036
49162W        W50026  19.845  23.335  15.916 -0.0187 -0.2396 -0.0798
49163W        W50027  21.342  20.728  19.743 -0.1909  0.2674  0.1919
49164W        W50028  21.532  25.546  18.490  0.0635 -0.0745 -0.3007
49165W        W50029  21.425  22.694  17.015  0.0815  0.4782  0.1126
49166W        W50030  17.797  22.638  15.388  0.1462  0.3966  0.0464
49167W        W50031  21.566  24.606  18.340  0.2456  0.0716  0.1832
49168W        W50032  20.329  19.493  16.994  0.0468  0.1188  0.3553
49169W        W50033  21.686  25.434  16.542  0.0504  0.3323  0.0031
49170W        W50034  26.377  23.250  17.407 -0.3217 -0.0033 -0.1377
49171W        W50035  20.130  25.088  13.647  0.3147 -0.0651 -0.2611
49172W        W50036  21.383  25.634  16.146  0.2146 -0.0082 -0.3389
49173W        W50037  22.968  22.201  17.146 -0.0956 -0.1839 -0.2285
49174W        W50038  21.361  23.221  15.600  0.1740 -0.0099 -0.1614
49175W        W50039  21.285  23.679  17.309 -0.3086 -0.1428  0.0147
49176W        W50040  18.456  20.062  15.382  0.3690 -0.0379 -0.4736
49177W        W50041  20.498  23.569  16.645 -0.1808 -0.3746  0.3263
49178W        W50042  19.410  24.525  19.330 -0.2628 -0.3652  0.0281
49179W        W50043  23.717  22.011  16.034 -0.0205  0.0560 -0.1497
49180W        W50044  18.329  22.485  17.806 -0.1293 -0.4016 -0.1844
49181W        W50045  16.741  27.287  15.554 -0.0273 -0.0806  0.2145
49182W        W50046  19.020  22.240  18.948  0.0897 -0.0728 -0.0611
49183W        W50047  21.689  23.676  15.693  0.0349  0.0829  0.1398
49184W        W50048  23.387  21.837  16.451 -0.0622 -0.0391 -0.3456
49185W        W50049  18.925  24.003  18.684 -0.0309  0.1675 -0.0569
49186W        W50050  18.553  24.609  16.381  0.0381  0.0086 -0.0353
49187W        W50051  20.398  25.895  18.719 -0.4444  0.2091 -0.0084
49188W        W50052  19.537  26.520  16.851 -0.0872  0.1248 -0.0111
49189W        W50053  17.096  24.904  19.765  0.0796  0.0091 -0.3290
49190W        W50054  21.902  24.236  13.623  0.2425  0.1478 -0.4285
49191W        W50055  18.186  22.916  16.019  0.1008  0.0672  0.2114
49192W        W50056  20.392  25.593  17.010 -0.0706  0.0613  0.1555
49193W        W50057  20.059  18.227  17.473 -0.3083 -0.2483 -0.0777
49194W        W50058  20.265  25.473  13.958  0.1985  0.0396  0.2023
49195W        W50059  19.223  23.209  16.110  0.0754 -0.0212 -0.0611
49196W        W50060  19.374  25.046  14.354  0.2418 -0.0872  0.1123
49197W        W50061  21.435  19.882  12.514  0.0493 -0.4089  0.1615
49198W        W50062  22.526  21.803  16.643 -0.2155  0.1196  0.2272
49199W        W50063  21.646  22.791  19.756 -0.0499 -0.1200  0.0378
49200W        W50064  22.935  24.785  20.282 -0.0869  0.0463 -0.1633
49201W        W50065  23.367  24.771  15.689 -0.0322  0.0323 -0.4361
49202W        W50066  22.506  23.050  20.295  0.4120 -0.1310 -0.2037
49203W        W50067  18.265  22.358  18.384 -0.0628  0.2344 -0.0168
49204W        W50068  22.431  23.695  16.557  0.0025  0.0477  0.2322
49205W        W50069  21.351  24.172  19.033 -0.1490 -0.2510  0.2542
49206W        W50070  21.901  22.780  16.149 -0.1638 -0.3230  0.0107
49207W        W50071  16.983  26.911  15.924 -0.1856 -0.1895  0.1352
49208W        W50072  18.799  21.323  16.444  0.1313  0.3169  0.0503
49209W        W50073  23.749  23.151  16.200  0.0106 -0.0959  0.2052
49210W        W50074  17.303  26.637  13.233  0.1230 -0.1978  0.0384
49211W        W50075  19.921  25.866  15.796 -0.0834  0.0869  0.1150
49212W        W50076  16.480  26.278  17.408  0.0745 -0.0348 -0.1363
49213W        W50077  18.177  20.596  16.003 -0.2585  0.1628  0.2243
49214W        W50078  18.481  20.447  17.437 -0.0502  0.0118 -0.1349
49215W        W50079  22.023  26.056  16.935 -0.1398 -0.3547 -0.0216
49216W        W50080  20.133  22.134  14.220  0.1445  0.2733 -0.0465
49217W        W50081  21.202  22.284  17.610 -0.0939  0.3454 -0.1919
49218W        W50082  22.561  24.331  15.395 -0.0315 -0.0544  0.0280
49219W        W50083  21.149  24.390  15.510 -0.0530 -0.0994 -0.0127
49220W        W50084  21.926  25.550  15.669 -0.0585 -0.1047  0.0092
49221W        W50085  20.003  23.857  15.977  0.3008 -0.0288 -0.2028
49222W        W50086  21.430  24.878  16.336 -0.2019 -0.0171  0.0097
49223W        W50087  15.809  24.782  17.251 -0.0543 -0.0874 -0.0562
49224W        W50088  18.122  23.052  19.381  0.0272  0.2121 -0.0253
49225W        W50089  19.934  19.335  17.979  0.0773 -0.2270 -0.2697
49226W        W50090  18.742  20.697  15.184  0.3224 -0.0401  0.0039
49227W        W50091  19.971  24.108  16.837  0.2955 -0.0971  0.0393
49228W        W50092  19.442  20.247  18.984 -0.0384  0.0224 -0.2776
49229W        W50093  21.236  21.215  19.584  0.2303  0.0948 -0.1379
49230W        W50094  23.222  20.735  18.304 -0.0974  0.2134  0.0296
49231W        W50095  22.165  25.624  16.492  0.0597  0.1563 -0.2025
49232W        W50096  20.602  26.261  19.165  0.0465  0.0204  0.0199
49233W        W50097  17.525  25.141  15.260  0.1314  0.0148  0.4960
49234W        W50098  19.035  25.407  14.508  0.0234 -0.2950  0.0212
49235W        W50099  19.919  23.602  15.493  0.0434 -0.0352 -0.0154
49236W        W50100  22.373  22.459  18.179  0.1300 -0.2693  0.0782
49237W        W50101  20.127  24.669  16.364  0.0446 -0.2622  0.0654
49238W        W50102  19.568  24.072  17.150  0.0307  0.1089 -0.0216
49239W        W50103  20.877  26.439  14.001  0.0152 -0.1330  0.5551
49240W        W50104  22.386  24.843  18.193  0.1794 -0.0392 -0.1964
49241W        W50105  19.290  26.259  16.486 -0.0121 -0.0204  0.1169
49242W        W50106  21.378  22.484  19.480 -0.1788 -0.0078 -0.0699
49243W        W50107  21.585  24.495  15.816  0.0285 -0.1249 -0.2548
49244W        W50108  21.910  23.139  19.516 -0.1022  0.0884 -0.0774
49245W        W50109  19.536  21.979  16.519  0.1928 -0.0243 -0.1538
49246W        W50110  20.718  22.897  18.886  0.1560  0.3265 -0.1966
49247W        W50111  20.972  21.892  20.369  0.0952 -0.3992 -0.1529
49248W        W50112  19.273  22.912  16.472  0.1813  0.0715 -0.0222
49249W        W50113  17.175  25.376  16.686 -0.2317 -0.0912 -0.0419
49250W        W50114  22.952  22.700  17.534 -0.0147  0.2626 -0.1786
49251W        W50115  18.886  22.913  19.366  0.0074 -0.1165  0.0336
49252W        W50116  19.829  20.652  19.051  0.1209 -0.1481  0.0653
49253W        W50117  18.897  25.843  17.229 -0.0086 -0.0276  0.1274
49254W        W50118  17.439  25.256  19.559 -0.1899 -0.1394 -0.1719
49255W        W50119  17.154  26.234  16.779 -0.0984 -0.0537 -0.0167
49256W        W50120  20.681  24.860  16.376  0.0595 -0.0210 -0.2444
49257W        W50121  19.417  23.750  18.876 -0.2418 -0.0073 -0.1641
49258W        W50122  19.365  24.695  17.070  0.2055 -0.1562 -0.2160
49259W        W50123  20.689  24.502  14.160 -0.1627 -0.1611  0.0956
49260W        W50124  19.075  26.706  18.389  0.2664  0.1312 -0.3388
49261W        W50125  19.682  24.308  17.587  0.1559 -0.3642 -0.3760
49262W        W50126  21.189  22.109  15.549  0.0220  0.1037  0.1307
49263W        W50127  21.245  23.765  15.243  0.0652 -0.2541 -0.0569
49264W        W50128  19.141  24.074  16.850  0.4374  0.1980 -0.2804
49265W        W50129  18.991  24.906  14.021  0.0072 -0.0969 -0.0172
49266W        W50130  20.097  22.553  12.558 -0.0770  0.0351 -0.1752
49267W        W50131  17.232  25.849  20.623  0.1380 -0.0767  0.2114
49268W        W50132  19.001  21.092  23.062 -0.0818 -0.2241 -0.2024
49269W        W50133  23.038  21.918  20.892 -0.2460  0.0138 -0.0124
49270W        W50134  22.933  24.883  24.708  0.2377 -0.1297 -0.0478
49271W        W50135  19.712  26.363  17.893  0.1394 -0.1969 -0.3780
49272W        W50136  18.122  24.238  20.394 -0.0758  0.1700 -0.1081
49273W        W50137  22.101  23.676  22.089 -0.0595  0.0084 -0.0592
49274W        W50138  20.389  22.591  20.059  0.0733  0.0679 -0.0459
49275W        W50139  20.816  26.943  23.801  0.0255  0.0235 -0.3242
49276W        W50140  18.756  22.376  20.574  0.0998 -0.0651 -0.1164
49277W        W50141  21.053  23.980  23.896  0.1081  0.1575  0.4215
49278W        W50142  21.294  22.201  21.552 -0.3379  0.2475 -0.1725
49279W        W50143  17.804  22.523  18.420  0.0661 -0.2251 -0.2706
49280W        W50144  21.644  22.056  22.663 -0.2361  0.0372 -0.2079
49281W        W50145  19.992  22.242  18.854 -0.0434  0.1428  0.0850
49282W        W50146  19.744  24.554  22.818 -0.0151 -0.2840  0.3722
49283W        W50147  18.507  23.192  16.789 -0.0667  0.0399  0.0595
49284W        W50148  15.303  20.243  20.540 -0.2388 -0.1885  0.0432
49285W        W50149  18.119  20.102  23.032 -0.2843 -0.0329 -0.0597
49286W        W50150  24.212  21.885  21.205 -0.3644  0.1273 -0.3110
49287W        W50151  22.934  24.192  20.752  0.0801 -0.0292 -0.0104
49288W        W50152  20.592  22.017  21.041  0.0973 -0.1840 -0.2321
49289W        W50153  20.868  26.316  20.808 -0.1473 -0.0492 -0.0826
49290W        W50154  20.166  25.367  20.155  0.0555  0.0153  0.2862
49291W        W50155  21.544  20.709  22.648  0.0979 -0.0137  0.0016
49292W        W50156  19.745  21.090  24.411  0.2126  0.1765 -0.2632
49293W        W50157  22.108  23.337  22.455 -0.0498  0.0233  0.0412
49294W        W50158  18.840  22.352  19.397  0.0923  0.0529 -0.1143
49295W        W50159  21.805  23.128  21.468  0.0529  0.1304  0.0586
49296W        W50160  19.296  22.821  18.940 -0.1066  0.0155  0.0293
49297W        W50161  22.119  23.721  21.614 -0.0137 -0.1677  0.2498
49298W        W50162  20.687  25.146  21.819  0.2152 -0.2200  0.2472
49299W        W50163  21.142  23.136  25.606 -0.1396  0.3156 -0.0085
49300W        W50164  18.336  24.760  21.630 -0.2974 -0.3128  0.0730
49301W        W50165  18.210  22.603  19.770  0.1211  0.0422 -0.1183
49302W        W50166  22.407  22.571  22.635 -0.0948  0.1671  0.3011
49303W        W50167  19.983  23.217  18.341 -0.1128  0.1091  0.1201
49304W        W50168  16.423  22.394  21.471 -0.1459  0.0721 -0.0273
49305W        W50169  22.008  22.740  21.789  0.1452 -0.1032  0.2795
49306W        W50170  20.289  21.394  22.692  0.1332 -0.1828 -0.0558
49307W        W50171  21.160  23.035  16.697 -0.1876  0.1576  0.1602
49308W        W50172  22.247  24.031  22.389 -0.2473  0.2842 -0.2091
49309W        W50173  19.473  21.636  21.195  0.3902  0.2810 -0.1737
49310W        W50174  20.186  21.598  19.612 -0.0139 -0.1112 -0.2922
49311W        W50175  17.212  26.759  19.601  0.0173  0.1597  0.0842
49312W        W50176  19.527  25.322  17.732  0.0800 -0.2579  0.0554
49313W        W50177  18.036  21.142  24.173 -0.1717 -0.2993  0.0821
49314W        W50178  20.575  22.728  24.121  0.1405  0.0469  0.0524
49315W        W50179  20.469  21.676  19.185  0.1784 -0.0155  0.1174
49316W        W50180  20.135  24.330  17.331 -0.0504 -0.2178  0.3243
49317W        W50181  21.828  23.332  20.422  0.0076  0.0176  0.0698
49318W        W50182  24.572  21.546  19.275  0.1005  0.1457  0.2755
49319W        W50183  20.301  23.553  22.073  0.0165  0.4395  0.0912
49320W        W50184  23.784  24.142  19.868  0.1073 -0.0757  0.2020
49321W        W50185  19.617  21.848  18.771 -0.0574  0.0069 -0.2078
49322W        W50186  19.125  26.730  20.348  0.2216 -0.4028 -0.2212
49323W        W50187  20.865  22.449  19.584 -0.1536  0.0184  0.0669
49324W        W50188  20.891  22.408  20.113 -0.2128 -0.1315  0.1207
49325W        W50189  19.677  23.775  19.305 -0.0755 -0.0392  0.0026
49326W        W50190  22.745  23.205  19.474  0.3220  0.1365  0.3433
49327W        W50191  22.793  22.750  20.526 -0.2421  0.0895  0.0602
49328W        W50192  20.386  23.834  21.434  0.0180 -0.0708 -0.2359
49329W        W50193  20.640  24.503  22.642 -0.0238 -0.0929  0.2287
49330W        W50194  18.340  22.016  16.492 -0.2767  0.3701 -0.1741
49331W        W50195  15.226  22.036  19.729 -0.1335 -0.1881 -0.1746
49332W        W50196  21.416  22.681  21.324 -0.1922  0.0308  0.1524
49333W        W50197  20.372  23.636  20.946  0.2225  0.0950 -0.2847
49334W        W50198  19.325  22.255  15.889  0.2009 -0.0109 -0.2601
49335W        W50199  19.160  26.422  22.689  0.1081 -0.0183 -0.1264
49336W        W50200  20.831  22.419  20.673  0.0635  0.0648  0.0554
49337W        W50201  20.844  26.587  21.897  0.0934 -0.0342 -0.2050
49338W        W50202  20.936  20.097  16.252  0.2513 -0.1158 -0.3588
49339W        W50203  23.322  21.493  20.823  0.0065 -0.0767 -0.1454
49340W        W50204  21.524  22.795  24.735  0.2981 -0.0059 -0.2452
49341W        W50205  22.030  22.282  21.938  0.5390  0.1273  0.0631
49342W        W50206  18.956  27.306  19.437 -0.2130  0.1146  0.1855
49343W        W50207  19.021  23.680  20.244  0.0651 -0.1981  0.0348
49344W        W50208  21.206  24.046  24.351  0.2181  0.0201  0.2195
49345W        W50209  19.487  24.682  21.872 -0.0815  0.1511  0.3669
49346W        W50210  20.645  23.578  20.155  0.0763  0.0809  0.0788
49347W        W50211  17.268  24.575  20.085 -0.0281 -0.1895  0.1174
49348W        W50212  18.146  23.804  21.667 -0.0074 -0.0044 -0.2502
49349W        W50213  19.624  23.026  21.497 -0.1143 -0.0793 -0.1746
49350W        W50214  18.835  21.121  22.448  0.2629  0.0659  0.0038
49351W        W50215  16.325  20.667  24.827 -0.0604  0.0221  0.2647
49352W        W50216  19.517  19.912  20.177  0.1919  0.0013 -0.2929
49353W        W50217  22.396  24.401  24.485  0.1472  0.0231 -0.0203
49354W        W50218  21.239  23.387  21.492  0.1538 -0.0326  0.0569
49355W        W50219  23.388  24.062  20.713  0.2940  0.0905  0.0650
49356W        W50220  21.053  22.078  21.047 -0.0960 -0.0936  0.2712
49357W        W50221  23.643  23.641  19.672  0.1621  0.1499 -0.1629
49358W        W50222  20.285  24.404  22.249 -0.1261  0.0139  0.0950
49359W        W50223  16.170  25.247  20.924 -0.1861 -0.1061 -0.0578
49360W        W50224  21.406  23.314  19.517  0.1026  0.0313  0.1300
49361W        W50225  19.772  23.550  22.147  0.2429 -0.0785 -0.2178
49362W        W50226  20.991  24.346  20.813  0.0969  0.1049  0.0225
49363W        W50227  20.726  24.181  18.035 -0.2232  0.0677 -0.0798
49364W        W50228  18.204  23.628  19.198 -0.0191 -0.1706  0.3341
49365W        W50229  18.825  22.829  17.519  0.1047  0.2691 -0.1457
49366W        W50230  24.720  21.716  21.447  0.0472  0.5501  0.0478
49367W        W50231  22.105  25.738  21.026 -0.0858  0.0552 -0.1065
49368W        W50232  22.128  23.699  20.137  0.2637 -0.1589  0.1781
49369W        W50233  21.667  20.346  18.906 -0.1154  0.1515  0.1243
49370W        W50234  21.956  25.561  20.150  0.2310 -0.1702  0.0938
49371W        W50235  21.168  22.363  23.002 -0.1797  0.1766 -0.2585
49372W        W50236  21.773  25.376  22.279  0.2352  0.0211 -0.0340
49373W        W50237  22.914  24.304  20.246 -0.0142 -0.0809 -0.3055
49374W        W50238  22.289  20.502  22.430  0.1994 -0.2689  0.0021
49375W        W50239  21.678  22.813  20.265  0.0089  0.0403 -0.2182
49376W        W50240  17.279  21.331  19.815  0.2929  0.2061  0.1048
49377W        W50241  19.608  23.156  22.551 -0.3209  0.3464 -0.5195
49378W        W50242  18.316  24.796  18.013 -0.0767  0.0453  0.1256
49379W        W50243  20.053  23.016  20.700 -0.2295 -0.0806 -0.2691
49380W        W50244  21.184  24.185  24.857  0.0822  0.0804 -0.4162
49381W        W50245  20.979  21.701  18.849  0.1059 -0.1196 -0.2107
49382W        W50246  20.758  24.981  23.163  0.0748  0.0796 -0.0956
49383W        W50247  20.250  19.895  22.578  0.0847  0.0721 -0.0632
49384W        W50248  19.768  23.467  21.667 -0.2122 -0.0705  0.0576
49385W        W50249  21.977  22.614  19.399  0.0322 -0.3338 -0.0613
49386W        W50250  19.378  21.916  14.964 -0.0867  0.0176  0.3882
49387W        W50251  21.282  24.043  16.655 -0.2513 -0.2066 -0.2946
49388W        W50252  20.982  25.953  20.450  0.1776 -0.0356  0.0765
49389W        W50253  20.746  22.003  22.954 -0.1403 -0.0536 -0.2270
49390W        W50254  21.140  21.980  18.406 -0.0604 -0.1903  0.0252
49391W        W50255  21.690  21.357  20.882 -0.0551  0.0405  0.0802
49392W        W50256  20.910  20.267  20.795  0.0673  0.0365  0.3092
49393W        W50257  19.933  22.302  20.185  0.0706  0.0232  0.0737
49394W        W50258  20.680  24.103  22.957 -0.0281  0.4210 -0.4940
49395W        W50259  24.127  24.072  22.370  0.1231 -0.2824 -0.2512
49396W        W50260  19.848  24.748  22.248  0.1052 -0.0918  0.2870
49397W        W50261  21.746  25.709  21.363  0.3695 -0.1741 -0.1722
49398W        W50262  21.010  23.119  21.925  0.1686  0.0246  0.1025
49399W        W50263  22.250  23.449  19.672 -0.1434  0.0404 -0.1699
49400W        W50264  22.582  21.174  18.843 -0.0414  0.3085 -0.1113
49401W        W50265  23.216  23.223  18.534 -0.2827  0.1078  0.3333
49402W        W50266  15.097  19.390  20.136  0.0321 -0.2657  0.3122
49403W        W50267  22.301  23.174  19.199 -0.1723  0.0277 -0.1584
49404W        W50268  22.689  22.547  22.122 -0.0255 -0.2607  0.1151
49405W        W50269  23.032  23.949  21.187 -0.0903  0.0080 -0.1296
49406W        W50270  18.848  25.913  16.272 -0.0410 -0.2217  0.1712
49407W        W50271  19.529  23.121  17.490 -0.0066  0.1782 -0.1765
49408W        W50272  20.846  22.269  23.411  0.1746  0.2391 -0.0489
49409W        W50273  17.680  23.945  20.176  0.0379  0.1731 -0.0496
49410W        W50274  20.590  25.466  19.832 -0.2859  0.1397 -0.2548
49411W        W50275  20.604  22.467  22.907  0.3684 -0.3189 -0.0244
49412W        W50276  21.852  20.918  18.123  0.0531  0.2288 -0.3409
49413W        W50277  22.368  21.555  19.243  0.4368  0.0222 -0.2268
49414W        W50278  21.897  27.017  21.638  0.2271 -0.1260  0.2281
49415W        W50279  20.898  27.356  20.105 -0.0496 -0.0897  0.0458
49416W        W50280  19.353  22.286  22.425  0.0116  0.1311  0.1355
49417W        W50281  24.113  24.539  22.179  0.5722  0.0949 -0.0710
49418W        W50282  17.756  22.492  20.241 -0.1714 -0.1707  0.2086
49419W        W50283  19.682  23.407  20.547  0.2343 -0.0801  0.1511
49420W        W50284  19.265  22.645  19.591  0.1210  0.1616 -0.2007
49421W        W50285  16.252  23.513  18.687  0.1893  0.1336 -0.0414
49422W        W50286  23.382  19.611  22.696  0.1635 -0.0398 -0.4527
49423W        W50287  17.542  24.210  21.041  0.0124 -0.2843  0.1186
49424W        W50288  20.031  21.574  18.836  0.0079 -0.3170  0.1173
49425W        W50289  19.488  18.947  17.222 -0.0574  0.1560 -0.1297
49426W        W50290  21.045  23.797  20.796  0.1704 -0.1811  0.2859
49427W        W50291  20.871  23.126  20.226  0.1366  0.0239 -0.0361
49428W        W50292  19.917  21.307  21.296  0.1997 -0.3510  0.3899
49429W        W50293  21.036  23.489  23.657  0.2594 -0.1577 -0.1483
49430W        W50294  21.199  23.802  22.318  0.1029 -0.1355 -0.3049
49431W        W50295  20.811  23.918  25.042 -0.1693  0.4089  0.0231
49432W        W50296  21.891  22.519  18.456  0.0406  0.0203  0.0451
49433W        W50297  17.905  21.922  20.409 -0.0563 -0.1361 -0.0504
49434W        W50298  20.963  26.087  22.128 -0.0201  0.0219 -0.1676
49435W        W50299  19.586  23.321  23.043 -0.0626 -0.1598 -0.2287
49436W        W50300  20.634  23.415  18.922 -0.0989 -0.2769  0.0229
49437W        W50301  19.504  22.547  19.996  0.0277 -0.2164  0.0749
49438W        W50302  22.463  19.877  20.223 -0.0394  0.2218  0.1094
49439W        W50303  19.422  23.851  20.575  0.1400 -0.2431 -0.3167
49440W        W50304  21.501  22.810  18.246  0.0292 -0.0223 -0.0596
49441W        W50305  21.059  22.745  18.467  0.2316 -0.0234  0.1716
49442W        W50306  22.354  25.040  16.754  0.0612  0.2119 -0.1117
49443W        W50307  20.118  21.812  21.968 -0.0958 -0.3555  0.1460
49444W        W50308  19.449  23.716  22.582 -0.1050 -0.0251  0.2374
49445W        W50309  19.117  23.978  21.267  0.2893 -0.2484  0.1916
49446W        W50310  20.942  24.692  21.758  0.1532 -0.1009  0.0750
49447W        W50311  19.193  24.066  19.196  0.1070  0.0524  0.0694
49448W        W50312  20.540  23.950  18.851 -0.4994 -0.0238  0.1300
49449W        W50313  20.489  22.708  19.407 -0.0895  0.0320 -0.0015
49450W        W50314  19.646  22.518  21.553  0.0018 -0.1258  0.2060
49451W        W50315  21.795  24.138  16.065  0.1391  0.1103  0.1060
49452W        W50316  21.762  24.986  21.998 -0.0738 -0.0679  0.2731
49453W        W50317  21.702  23.913  17.545 -0.2364 -0.1602 -0.4123
49454W        W50318  18.260  20.707  19.116 -0.0031  0.5392  0.2884
49455W        W50319  22.527  23.633  20.432  0.0433 -0.1942  0.0329
49456W        W50320  19.841  28.013  20.952  0.4484 -0.3548 -0.1081
49457W        W50321  19.019  25.392  19.716 -0.0241 -0.0311  0.0773
49458W        W50322  18.634  23.544  19.917 -0.0248 -0.2248 -0.0201
49459W        W50323  18.109  21.935  22.811  0.1276  0.3770  0.1960
49460W        W50324  23.255  21.644  24.311  0.1346 -0.0851  0.0948
49461W        W50325  19.058  20.976  21.235  0.0408  0.0593 -0.1897
49462W        W50326  21.106  21.413  18.249  0.3236 -0.1447  0.1342
49463W        W50327  21.658  23.414  17.525 -0.1210  0.3569  0.2393
49464W        W50328  17.361  21.977  21.330  0.2474 -0.2597  0.1829
49465W        W50329  18.141  21.790  19.163 -0.2672  0.0118 -0.1363
49466W        W50330  23.508  23.012  21.703  0.1548 -0.1321 -0.0698
49467W        W50331  19.159  22.165  16.880 -0.0964 -0.0453 -0.0017
49468W        W50332  22.526  23.480  21.906  0.1359 -0.3347 -0.0243
49469W        W50333  20.566  24.827  15.131 -0.5950 -0.0140 -0.2975
49470W        W50334  19.070  21.980  21.351  0.0520  0.0295  0.2295
49471W        W50335  19.811  21.387  19.350  0.0073 -0.1711 -0.0397
49472W        W50336  19.379  20.129  17.782 -0.0130  0.1637 -0.0326
49473W        W50337  18.700  26.247  22.377 -0.1778 -0.0727  0.2145
49474W        W50338  17.921  23.597  22.965  0.2151 -0.3307  0.1986
49475W        W50339  24.102  21.551  20.806 -0.1387  0.0297 -0.0886
49476W        W50340  16.484  21.296  18.360  0.0163 -0.1617 -0.3801
49477W        W50341  21.745  24.869  21.018 -0.0465 -0.3806  0.2585
49478W        W50342  16.718  23.403  20.007 -0.1358  0.1550  0.1117
49479W        W50343  18.151  26.091  19.118 -0.0270 -0.0057 -0.4047
49480W        W50344  18.384  23.197  23.372 -0.1695  0.1414  0.1974
49481W        W50345  22.926  24.712  22.924 -0.1283  0.3999  0.0346
49482W        W50346  22.263  21.813  17.874 -0.2445 -0.0285  0.0379
49483W        W50347  23.587  23.992  16.746 -0.0608  0.1275  0.0104
49484W        W50348  19.931  24.810  20.328  0.0872 -0.1447  0.3097
49485W        W50349  19.374  23.173  23.547 -0.0389 -0.0062  0.2969
49486W        W50350  21.162  21.599  24.048 -0.0174  0.1657  0.3203
49487W        W50351  23.122  24.014  22.482 -0.1997 -0.1985 -0.3553
49488W        W50352  19.454  22.918  20.458  0.1334  0.2955  0.2397
49489W        W50353  19.645  27.231  21.672  0.1412 -0.0095  0.2483
49490W        W50354  20.422  20.873  19.804  0.0088 -0.0045 -0.1731
49491W        W50355  24.459  23.447  19.320 -0.2021  0.0577 -0.0704
49492W        W50356  21.501  21.430  23.104 -0.0456 -0.0403 -0.0026
49493W        W50357  20.065  23.955  22.242  0.0883 -0.1574 -0.1048
49494W        W50358  22.505  21.460  19.877 -0.1251 -0.1601  0.0069
49495W        W50359  21.326  24.791  19.906  0.1415 -0.0945  0.4111
49496W        W50360  19.891  25.008  21.196 -0.0777  0.0652 -0.0391
49497W        W50361  20.012  22.484  20.662  0.4202  0.0615  0.0447
49498W        W50362  18.699  23.111  24.273  0.4278 -0.1678  0.2476
49499W        W50363  18.997  23.195  20.575 -0.2912 -0.0318 -0.1601
49500W        W50364  20.792  21.233  17.905 -0.2380 -0.1776  0.0881
49501W        W50365  15.810  24.009  21.095  0.1833 -0.2864  0.1521
49502W        W50366  19.324  25.953  17.855  0.0755  0.0392  0.2609
49503W        W50367  21.274  20.211  19.188  0.0519  0.0873 -0.0057
49504W        W50368  20.185  22.055  20.742  0.0880  0.0469  0.0765
49505W        W50369  20.904  22.965  21.470  0.1985  0.2899  0.1879
49506W        W50370  21.874  25.852  20.569  0.0232 -0.1311  0.0766
49507W        W50371  21.366  23.192  19.968  0.2600 -0.0059 -0.2030
49508W        W50372  21.341  23.561  24.165 -0.0818 -0.0362  0.2217
49509W        W50373  18.467  24.107  23.306  0.1790  0.0388 -0.1658
49510W        W50374  21.464  20.854  20.529 -0.0088 -0.0996 -0.2927
49511W        W50375  20.491  19.514  19.660  0.3810 -0.0257 -0.2481
49512W        W50376  19.048  23.837  17.380 -0.0416 -0.4230 -0.2293
49513W        W50377  24.523  23.021  19.068  0.0202 -0.2463  0.2123
49514W        W50378  19.697  23.207  20.993 -0.1006  0.2554 -0.1317
49515W        W50379  20.662  20.385  19.787  0.0195 -0.1531  0.1902
49516W        W50380  18.908  22.409  18.421  0.1925  0.1032 -0.0182
49517W        W50381  18.455  24.810  19.456  0.0964 -0.0475 -0.0186
49518W        W50382  20.559  26.907  20.334 -0.2190 -0.0039 -0.4664
49519W        W50383  20.268  28.088  19.623  0.1348  0.1891 -0.1765
49520W        W50384  21.870  22.270  23.694 -0.0882 -0.2007  0.3319
49521W        W50385  19.739  22.976  17.961 -0.2598 -0.1301 -0.2994
49522W        W50386  21.779  21.837  20.702  0.2619 -0.0378  0.1364
49523W        W50387  19.743  20.800  16.847  0.0539  0.0642 -0.1893
49524W        W50388  15.264  21.443  19.434  0.0350  0.1630  0.0187
49525W        W50389  22.677  21.583  20.762  0.0692 -0.0259  0.0917
49526W        W50390  21.691  23.561  17.961 -0.2192  0.0236 -0.1777
49527W        W50391  18.878  21.830  20.527 -0.0813  0.2150 -0.1169
49528W        W50392  20.514  25.356  20.845  0.1129 -0.4849  0.0014
49529W        W50393  24.080  23.001  21.633 -0.0637 -0.1691  0.1813
49530W        W50394  20.061  22.259  21.641 -0.1064 -0.0749  0.2325
49531W        W50395  17.666  25.872  19.756  0.0628 -0.0176 -0.2325
49532W        W50396  18.767  25.411  20.797  0.0479  0.0616 -0.1329
49533W        W50397  17.335  22.788  19.295  0.3181 -0.0226  0.0925
49534W        W50398  25.471  23.281  18.759 -0.0436 -0.0800 -0.2071
49535W        W50399  20.880  21.020  23.329  0.1554 -0.0953 -0.3670
49536W        W50400  22.146  23.046  15.787 -0.2773  0.2742 -0.1003
49537W        W50401  21.111  22.660  21.767  0.1666  0.1008 -0.0555
49538W        W50402  21.048  21.768  22.234  0.0598  0.1308  0.2527
49539W        W50403  20.959  22.622  21.131  0.0320 -0.1655  0.1076
49540W        W50404  22.115  23.238  21.831  0.2439 -0.1531  0.0451
49541W        W50405  21.608  28.100  20.533 -0.0344 -0.2431  0.1906
49542W        W50406  23.809  21.867  18.925  0.0910 -0.1094 -0.0085
49543W        W50407  22.839  22.707  22.729  0.1233 -0.0303 -0.0828
49544W        W50408  20.239  23.217  21.729 -0.2306 -0.3015 -0.1650
49545W        W50409  19.910  21.890  19.255 -0.3113  0.0314  0.3378
49546W        W50410  18.527  21.469  19.245  0.1544 -0.1506 -0.4162
49547W        W50411  20.763  24.744  21.300 -0.3484 -0.0493  0.0051
49548W        W50412  20.771  24.027  21.124 -0.1172 -0.1329 -0.0280
49549W        W50413  19.386  25.208  19.105 -0.0264 -0.2686 -0.2585
49550W        W50414  19.357  24.722  18.834  0.1387  0.1386 -0.1530
49551W        W50415  20.045  24.106  21.190  0.1670  0.0085 -0.0835
49552W        W50416  23.167  20.770  24.480 -0.1964  0.0943 -0.1164
49553W        W50417  22.638  24.417  17.628  0.0184  0.1454  0.1717
49554W        W50418  16.766  22.740  23.358 -0.1180  0.2232  0.2749
49555W        W50419  20.684  21.969  19.641  0.0168  0.0084 -0.2259
49556W        W50420  21.560  22.217  21.079  0.1004  0.1033 -0.2210
49557W        W50421  21.394  23.367  22.214  0.1374  0.5373  0.1065
49558W        W50422  20.708  21.345  19.667 -0.2112 -0.0054  0.0039
49559W        W50423  23.046  23.559  22.759  0.0376  0.0275  0.1537
49560W        W50424  17.223  23.561  20.594  0.0200  0.1231  0.1125
49561W        W50425  19.790  23.766  20.186 -0.0992  0.2873  0.0457
49562W        W50426  21.824  21.695  19.103 -0.1416 -0.0841  0.0084
49563W        W50427  19.230  22.115  20.322  0.2907 -0.2848  0.1644
49564W        W50428  20.799  23.575  22.119 -0.0299 -0.0710 -0.0336
49565W        W50429  21.044  20.886  22.011  0.3675 -0.1228  0.1388
49566W        W50430  19.141  22.656  20.810 -0.1284 -0.1045  0.0088
49567W        W50431  17.800  22.944  19.016 -0.0317  0.1535 -0.1510
49568W        W50432  18.837  22.436  24.584  0.0118 -0.1217  0.1325
49569W        W50433  18.982  21.078  20.723 -0.2230 -0.2081  0.1724
49570W        W50434  23.709  21.254  20.699  0.1121  0.2679  0.5199
49571W        W50435  24.069  23.846  19.586  0.0054  0.3957  0.1627
49572W        W50436  17.188  24.552  22.155  0.2610  0.0072 -0.4205
49573W        W50437  22.940  25.230  21.602  0.1924 -0.0084  0.0060
49574W        W50438  18.883  21.395  19.641 -0.3215  0.1907 -0.4151
49575W        W50439  22.184  25.695  22.092 -0.1383  0.2341  0.2754
49576W        W50440  19.476  24.460  20.504 -0.1240 -0.0446  0.0389
49577W        W50441  21.889  21.188  17.154  0.1302  0.1262  0.0520
49578W        W50442  21.674  24.016  21.484 -0.1433 -0.1822  0.1019
49579W        W50443  21.217  22.812  17.777 -0.4088  0.1242 -0.1666
49580W        W50444  21.111  26.733  21.006 -0.2109  0.2744  0.0442
49581W        W50445  17.200  24.682  18.143 -0.0651 -0.0286 -0.0671
49582W        W50446  19.660  24.483  21.391 -0.3072  0.3191  0.0541
49583W        W50447  15.858  22.887  18.954 -0.1052  0.1272 -0.2088
49584W        W50448  20.016  20.898  17.989  0.0874  0.1770 -0.0771
49585W        W50449  23.699  24.808  21.280 -0.1534 -0.0217  0.0285
49586W        W50450  21.365  24.005  21.075  0.2805 -0.0424 -0.1732
49587W        W50451  21.272  24.808  21.169 -0.4365  0.2724 -0.0774
49588W        W50452  22.285  25.973  18.610 -0.0618  0.0683  0.2898
49589W        W50453  19.606  23.930  21.490 -0.1574  0.0717 -0.1058
49590W        W50454  20.318  20.986  21.184  0.0666 -0.3033  0.2013
49591W        W50455  21.557  24.757  19.103  0.1284 -0.0117 -0.2129
49592W        W50456  23.288  24.696  21.618 -0.1809  0.1858  0.0709
49593W        W50457  20.016  19.814  19.650  0.0778 -0.1005 -0.3155
49594W        W50458  19.411  21.062  19.591 -0.3656 -0.2086 -0.0966
49595W        W50459  18.990  20.289  17.428  0.0707 -0.3883  0.2215
49596W        W50460  21.279  23.707  19.805 -0.0413 -0.0855  0.0974
49597W        W50461  15.376  20.514  23.604 -0.0249  0.0147  0.0939
49598W        W50462  23.762  23.507  19.127 -0.0548  0.0608 -0.0134
49599W        W50463  24.392  22.087  21.663  0.1697 -0.3170 -0.2579
49600W        W50464  19.337  21.890  23.367  0.0747 -0.2733 -0.3878
49601W        W50465  21.844  22.386  21.473  0.1255  0.0705  0.0732
49602W        W50466  20.844  25.376  22.384  0.1346  0.0712 -0.1472
49603W        W50467  16.491  24.960  19.547 -0.1108  0.0532 -0.1690
49604W        W50468  23.004  23.192  17.407  0.1874 -0.1617 -0.4180
49605W        W50469  22.209  22.041  18.344  0.2309 -0.0934  0.4337
49606W        W50470  20.965  21.347  20.409 -0.0824 -0.1792  0.4230
49607W        W50471  22.854  23.070  22.180 -0.3123 -0.1308  0.1342
49608W        W50472  23.134  22.374  22.875  0.1627  0.2509  0.0818
49609W        W50473  19.781  23.653  21.074  0.1858  0.0537  0.1119
49610W        W50474  18.023  22.873  20.508 -0.1528 -0.0191  0.1404
49611W        W50475  20.288  24.928  20.948 -0.1069 -0.0263 -0.0949
49612W        W50476  20.055  23.715  22.634  0.0679  0.2356  0.1597
49613W        W50477  20.506  22.593  20.972 -0.0171  0.0228 -0.4095
49614W        W50478  19.673  20.591  17.737  0.0555  0.1560  0.0299
49615W        W50479  19.418  27.232  20.260  0.1357 -0.1302 -0.2353
49616W        W50480  19.057  22.016  18.181  0.0257  0.0034 -0.0565
49617W        W50481  22.481  21.028  22.490  0.3017  0.2490  0.4645
49618W        W50482  22.453  18.951  18.013 -0.3702  0.2628 -0.0869
49619W        W50483  19.321  27.759  20.941 -0.1058 -0.0135 -0.2549
49620W        W50484  17.477  26.590  22.277 -0.0106  0.0373 -0.3645
49621W        W50485  19.212  24.968  19.497  0.2095  0.1005 -0.4297
49622W        W50486  21.126  22.273  16.332 -0.2551  0.0457  0.2171
49623W        W50487  17.507  25.146  18.561  0.0950  0.1183  0.1312
49624W        W50488  22.055  23.090  20.020 -0.2427 -0.3017 -0.0248
49625W        W50489  19.644  22.331  24.314  0.1586 -0.0435 -0.4403
49626W        W50490  20.234  23.530  18.679  0.3733  0.0761 -0.3410
49627W        W50491  19.388  26.450  19.748 -0.0589 -0.0289 -0.0300
49628W        W50492  21.615  22.518  22.831  0.0328 -0.0189  0.1529
49629W        W50493  20.671  23.185  23.810  0.0059  0.2623 -0.2198
49630W        W50494  21.305  23.057  21.036  0.1420 -0.2089 -0.2249
49631W        W50495  19.599  25.407  19.567 -0.0670  0.0557 -0.1954
49632W        W50496  21.768  23.167  20.899  0.1092 -0.2363  0.2886
49633W        W50497  22.375  25.616  21.445 -0.0399 -0.0129  0.1027
49634W        W50498  20.640  23.395  20.607  0.1981  0.0576  0.3416
49635W        W50499  19.915  21.780  21.384 -0.0452 -0.2613  0.0775
49636W        W50500  21.930  23.605  19.276  0.0051  0.1791 -0.4571
49637W        W50501  22.783  22.844  17.065 -0.1056 -0.1613 -0.0592
49638W        W50502  23.099  25.401  16.408 -0.0966 -0.2044 -0.0136
49639W        W50503  21.113  25.132  22.014 -0.0296  0.2894  0.0632
49640W        W50504  20.223  22.862  22.652  0.0341 -0.0695  0.1244
49641W        W50505  22.557  22.166  21.855  0.0316 -0.0613 -0.2800
49642W        W50506  17.961  23.369  21.871  0.1638 -0.2710  0.1753
49643W        W50507  21.408  22.425  22.393 -0.0821 -0.0848 -0.2460
49644W        W50508  23.109  25.911  22.377 -0.0251  0.1636  0.3324
49645W        W50509  18.784  22.651  19.813 -0.1673 -0.1542  0.4419
49646W        W50510  21.737  23.603  21.239 -0.2708  0.0244  0.1313
49647W        W50511  18.574  22.269  20.062 -0.4464 -0.0643 -0.0386
49648W        W50512  18.330  23.234  20.234 -0.3001 -0.1180  0.1241
49649W        W50513  16.581  23.033  22.168 -0.2107  0.2338  0.4617
49650W        W50514  23.202  23.483  20.716  0.1500  0.0323 -0.0031
49651W        W50515  21.039  24.500  24.491  0.2323 -0.0301  0.2883
49652W        W50516  19.627  22.989  19.801  0.3117  0.1460  0.3802
49653W        W50517  22.201  23.540  21.077  0.0849  0.2566  0.0096
49654W        W50518  21.778  24.077  21.973  0.3068 -0.0858  0.1501
49655W        W50519  18.107  26.175  19.747  0.1342  0.4135  0.0016
49656W        W50520  21.456  21.338  19.095  0.0417 -0.3042 -0.0782
49657W        W50521  21.610  21.902  24.066  0.1208 -0.0133 -0.2719
49658W        W50522  14.594  23.359  19.453 -0.0937  0.1005 -0.1394
49659W        W50523  22.035  24.532  20.797  0.1773  0.1262 -0.2928
49660W        W50524  21.451  25.551  23.197  0.1457 -0.0797  0.0371
49661W        W50525  17.640  23.388  18.842 -0.1819  0.0619 -0.1596
49662W        W50526  20.773  24.339  22.111 -0.1711  0.0692 -0.3078
49663W        W50527  19.645  24.141  19.642 -0.3481  0.1077  0.4047
49664W        W50528  21.228  24.289  21.883 -0.1376  0.1079 -0.0202
49665W        W50529  20.889  24.251  19.152 -0.0188  0.0935  0.0815
49666W        W50530  15.420  22.550  15.746 -0.3041  0.2373  0.3526
49667W        W50531  20.658  25.781  25.403  0.2025  0.1014  0.2553
49668W        W50532  18.273  24.608  24.253  0.0275 -0.2908 -0.3275
49669W        W50533  20.657  27.058  21.722  0.0262  0.2464 -0.1268
49670W        W50534  22.493  27.382  23.247  0.3118  0.1371 -0.2555
49671W        W50535  17.949  25.344  20.290  0.0511 -0.0596 -0.2039
49672W        W50536  21.734  26.375  22.994  0.1086 -0.0304 -0.0921
49673W        W50537  17.586  23.845  23.251  0.0211  0.0636 -0.1072
49674W        W50538  19.769  21.468  23.923  0.0103 -0.2515  0.2941
49675W        W50539  19.537  27.019  23.064 -0.4033 -0.4073 -0.1710
49676W        W50540  18.302  23.177  24.594  0.2269 -0.0627 -0.1689
49677W        W50541  19.383  22.556  25.767 -0.0598  0.0819  0.0323
49678W        W50542  19.901  24.864  24.759  0.0479  0.2665  0.1300
49679W        W50543  21.789  23.277  22.889 -0.1530  0.2231  0.1901
49680W        W50544  20.618  23.657  25.569 -0.0697 -0.0664 -0.1070
49681W        W50545  18.096  21.420  22.607  0.1242  0.0177 -0.1588
49682W        W50546  18.595  25.680  27.667  0.0899 -0.0151  0.0917
49683W        W50547  20.030  23.849  21.761 -0.2916  0.1691 -0.0720
49684W        W50548  17.553  22.680  25.781  0.0484  0.2688 -0.0943
49685W        W50549  20.984  22.557  23.840 -0.2262  0.3096 -0.0899
49686W        W50550  22.944  23.718  23.238 -0.1958  0.0303  0.1135
49687W        W50551  22.338  20.146  24.998  0.0647  0.1903  0.1126
49688W        W50552  21.087  21.768  26.586 -0.1203  0.0024  0.5372
49689W        W50553  21.632  23.947  24.090  0.0545  0.0974 -0.0579
49690W        W50554  20.360  25.123  21.413 -0.1732  0.2607 -0.0545
49691W        W50555  19.284  23.736  23.403 -0.0056 -0.1821  0.0761
49692W        W50556  20.649  24.906  25.341 -0.4853 -0.2723  0.1570
49693W        W50557  22.448  22.736  25.639 -0.2311 -0.1481 -0.1020
49694W        W50558  19.312  24.436  25.589  0.0944 -0.0694  0.3694
49695W        W50559  20.934  26.801  22.710 -0.2526 -0.0356  0.4938
49696W        W50560  20.237  24.069  24.288  0.2117  0.0473  0.1236
49697W        W50561  20.308  22.809  23.172 -0.0795 -0.4000  0.3023
49698W        W50562  20.935  25.733  26.189 -0.3747  0.1415  0.0995
49699W        W50563  19.631  23.023  25.991  0.2856  0.0797 -0.0413
49700W        W50564  21.163  21.487  23.557  0.1547  0.0889 -0.0077
49701W        W50565  16.590  22.549  27.368  0.1393 -0.2430 -0.1107
49702W        W50566  23.072  25.372  26.580  0.1762 -0.1600 -0.2091
49703W        W50567  19.300  23.554  20.961 -0.0011  0.1986 -0.1748
49704W        W50568  19.761  24.199  24.225  0.0245  0.1502 -0.0597
49705W        W50569  26.399  28.146  22.354 -0.4220 -0.2614  0.1318
49706W        W50570  21.567  21.873  25.943 -0.1144 -0.0531  0.3533
49707W        W50571  20.077  22.848  21.286 -0.1850 -0.0952 -0.2093
49708W        W50572  20.983  22.872  25.234 -0.0083  0.1453  0.0626
49709W        W50573  20.483  26.799  24.528  0.1921  0.1288  0.0277
49710W        W50574  22.217  25.693  24.864  0.1862  0.0370 -0.0894
49711W        W50575  18.759  22.561  25.090 -0.0145  0.2675  0.3289
49712W        W50576  20.248  25.496  25.427 -0.1004  0.0156  0.2736
49713W        W50577  17.281  20.621  22.223  0.0879 -0.6131  0.1641
49714W        W50578  22.724  22.353  26.915 -0.0460 -0.0127 -0.1350
49715W        W50579  21.218  25.218  25.039 -0.2285 -0.3256  0.3369
49716W        W50580  23.223  25.928  21.655 -0.3585 -0.0743  0.1480
49717W        W50581  21.853  27.750  24.039 -0.0351 -0.3088  0.0218
49718W        W50582  20.446  23.237  25.445 -0.0506 -0.0536 -0.0423
49719W        W50583  23.514  23.297  25.504 -0.2201 -0.0980  0.2272
49720W        W50584  19.208  22.706  24.910  0.2942  0.2722  0.0811
49721W        W50585  24.738  23.673  22.846  0.2560 -0.2618 -0.0300
49722W        W50586  21.233  26.367  21.436 -0.2723 -0.1039  0.1550
49723W        W50587  19.395  20.385  23.785 -0.1219 -0.0824 -0.2268
49724W        W50588  22.805  23.024  23.848  0.0365 -0.3559 -0.0611
49725W        W50589  18.307  25.973  25.115  0.2094  0.0888  0.0869
49726W        W50590  21.870  27.631  24.532 -0.2184 -0.2724 -0.2701
49727W        W50591  23.632  21.449  21.750  0.0489  0.3639 -0.1653
49728W        W50592  19.394  24.657  22.431 -0.0957 -0.1661  0.0243
49729W        W50593  22.623  24.196  23.374  0.1958 -0.1831 -0.0256
49730W        W50594  19.642  22.866  24.471  0.3104  0.0204  0.2312
49731W        W50595  19.622  22.621  25.260  0.0632 -0.0547  0.0128
49732W        W50596  22.728  21.964  24.040 -0.1498 -0.2019  0.0690
49733W        W50597  21.784  24.865  22.987  0.0243 -0.2043  0.3145
49734W        W50598  15.717  22.590  21.190 -0.5379  0.1414 -0.0305
49735W        W50599  20.075  25.096  23.104 -0.0435 -0.3099  0.1785
49736W        W50600  22.793  21.953  24.653 -0.0500  0.1428  0.0906
49737W        W50601  22.435  24.882  24.509  0.2142  0.1529  0.0779
49738W        W50602  21.956  24.330  22.624 -0.0557  0.1203 -0.1917
49739W        W50603  23.576  27.513  21.533  0.1586 -0.0331  0.0513
49740W        W50604  22.920  23.520  26.201  0.2954 -0.3116  0.1050
49741W        W50605  20.151  24.754  23.494 -0.1166 -0.1203 -0.1005
49742W        W50606  23.263  25.829  25.246 -0.0305  0.2860 -0.0993
49743W        W50607  15.530  23.103  21.724 -0.1961  0.0983 -0.0771
49744W        W50608  22.851  26.481  21.178 -0.4859 -0.0007  0.1447
49745W        W50609  20.863  24.812  25.764  0.2570  0.2354  0.0562
49746W        W50610  20.662  23.395  23.270 -0.1284 -0.0199  0.1864
49747W        W50611  19.286  24.727  22.945 -0.0908 -0.2907 -0.0316
49748W        W50612  20.923  23.880  23.386  0.1499  0.2583 -0.1663
49749W        W50613  18.886  19.398  23.917  0.0104  0.0518 -0.0023
49750W        W50614  22.146  21.833  22.661  0.0118 -0.1044  0.1334
49751W        W50615  20.840  23.132  26.126 -0.2988 -0.0887  0.1646
49752W        W50616  19.690  23.574  25.421  0.0824  0.2688  0.0994
49753W        W50617  23.086  26.735  25.043 -0.1830  0.2491 -0.1449
49754W        W50618  20.038  23.214  26.261 -0.0812 -0.0400  0.1466
49755W        W50619  21.508  27.407  27.799 -0.0750 -0.0622 -0.3452
49756W        W50620  21.071  21.142  24.390  0.0928  0.2557  0.0975
49757W        W50621  20.445  21.973  22.349 -0.1207  0.0105  0.1441
49758W        W50622  21.046  22.326  25.853  0.1549 -0.1290  0.0768
49759W        W50623  20.406  22.718  25.215  0.2076  0.0295  0.3101
49760W        W50624  21.052  20.824  22.623  0.4991 -0.5683 -0.2735
49761W        W50625  19.024  24.866  25.369  0.3452  0.0867 -0.0307
49762W        W50626  23.277  20.668  23.466 -0.0804 -0.0438  0.1299
49763W        W50627  20.618  21.140  24.222 -0.0660 -0.0588 -0.0890
49764W        W50628  20.061  26.573  24.730 -0.0834  0.0412  0.1204
49765W        W50629  18.354  24.140  24.287  0.0225  0.0468 -0.2821
49766W        W50630  21.868  21.483  21.940  0.2148  0.1703  0.1951
49767W        W50631  23.488  25.161  21.755 -0.3242 -0.3381 -0.4177
49768W        W50632  18.413  25.247  24.794 -0.1448 -0.2279 -0.2379
49769W        W50633  19.530  22.030  21.562 -0.2268  0.1199  0.1453
49770W        W50634  21.944  24.320  24.218 -0.3537 -0.1303  0.2086
49771W        W50635  18.747  20.859  25.629 -0.1104 -0.2267 -0.0176
49772W        W50636  19.663  22.329  24.792 -0.0410 -0.0715 -0.2066
49773W        W50637  22.708  27.285  24.073 -0.4037  0.0893  0.3011
49774W        W50638  21.207  23.459  27.528 -0.1715  0.1146  0.0793
49775W        W50639  20.216  20.850  24.472 -0.0367 -0.0375 -0.1449
49776W        W50640  19.495  23.931  22.053  0.1616 -0.2320  0.0576
49777W        W50641  19.481  24.851  20.889 -0.0115 -0.0202  0.2995
49778W        W50642  19.168  25.190  24.464  0.1495 -0.1669 -0.2675
49779W        W50643  19.814  20.995  24.894  0.1068  0.1538  0.1479
49780W        W50644  22.162  26.900  23.354  0.1599  0.2949  0.1485
49781W        W50645  21.475  24.520  22.752 -0.4459  0.4729  0.0159
49782W        W50646  22.274  24.142  21.904  0.2848  0.1826  0.3013
49783W        W50647  23.026  22.420  23.870  0.3993 -0.1920  0.0074
49784W        W50648  21.718  26.436  22.439 -0.0971  0.2869  0.0974
49785W        W50649  19.957  23.126  23.415 -0.2484 -0.1630  0.0462
49786W        W50650  22.892  20.662  22.544 -0.0328 -0.0633  0.1753
49787W        W50651  21.009  22.175  21.933  0.1459  0.0805  0.0276
49788W        W50652  21.343  27.098  23.948  0.0695 -0.1353 -0.1480
49789W        W50653  24.111  26.745  24.281  0.2547 -0.5184 -0.0557
49790W        W50654  20.253  24.277  21.675 -0.0304  0.2342 -0.0976
49791W        W50655  21.691  23.865  25.706 -0.2528 -0.1645 -0.0333
49792W        W50656  21.101  25.605  25.592 -0.1701  0.0555 -0.0741
49793W        W50657  18.170  23.172  22.446  0.2721  0.1928  0.1665
49794W        W50658  21.763  21.436  24.865  0.0182  0.1182 -0.0146
49795W        W50659  24.911  25.988  24.652  0.0719  0.3284  0.1112
49796W        W50660  19.933  26.473  21.931  0.0970  0.1011  0.2056
49797W        W50661  20.206  25.709  23.855 -0.2037 -0.3995  0.2823
49798W        W50662  20.307  23.324  26.991  0.1173 -0.4587 -0.0422
49799W        W50663  19.361  24.913  24.809 -0.1980  0.1794  0.2089
49800W        W50664  20.521  20.402  23.072 -0.0139  0.2062  0.2193
49801W        W50665  21.266  20.103  23.472  0.0535 -0.2825 -0.0784
49802W        W50666  18.368  23.292  25.100 -0.0050  0.1103  0.2410
49803W        W50667  23.666  20.926  25.907 -0.0213 -0.0646 -0.0833
49804W        W50668  23.905  22.234  26.084  0.2394  0.0773  0.3024
49805W        W50669  19.585  24.541  24.575 -0.2804 -0.0688 -0.1541
49806W        W50670  17.499  24.207  23.590  0.1772  0.2101  0.0031
49807W        W50671  18.797  22.779  23.274  0.0961  0.1366 -0.1232
49808W        W50672  20.176  20.555  25.160 -0.0416 -0.3149  0.1004
49809W        W50673  18.999  24.868  24.026  0.1493 -0.1415  0.0120
49810W        W50674  18.592  23.578  20.439 -0.1115  0.2831 -0.0661
49811W        W50675  20.239  23.042  24.397  0.1847  0.1921 -0.3295
49812W        W50676  18.325  23.073  27.533  0.2332  0.1879  0.0376
49813W        W50677  18.406  21.643  24.300  0.1439  0.2159 -0.3814
49814W        W50678  26.181  27.598  26.242  0.0345  0.5004  0.0565
49815W        W50679  22.783  26.590  26.268 -0.4026 -0.2720 -0.0493
49816W        W50680  18.047  24.217  23.620  0.0870  0.3479 -0.0919
49817W        W50681  21.413  25.169  23.544 -0.2013 -0.1267 -0.0241
49818W        W50682  20.092  20.343  23.498 -0.0052 -0.0272  0.2699
49819W        W50683  24.026  23.268  24.066 -0.0624  0.1297  0.0846
49820W        W50684  18.809  23.304  22.001 -0.2845  0.3093  0.0317
49821W        W50685  21.402  21.648  24.517  0.0112 -0.1802  0.4172
49822W        W50686  20.426  21.557  25.146 -0.1228 -0.0692  0.1132
49823W        W50687  19.624  24.960  24.331  0.1264 -0.0238 -0.2086
49824W        W50688  19.268  22.949  23.068 -0.1093 -0.1489  0.2348
49825W        W50689  18.468  25.824  24.621 -0.3635  0.0615 -0.1599
49826W        W50690  20.294  22.707  22.211 -0.0243 -0.3092  0.0284
49827W        W50691  21.070  19.174  23.746 -0.1072 -0.0296  0.2358
49828W        W50692  19.278  25.239  25.166 -0.1362  0.2477  0.2966
49829W        W50693  19.714  26.322  24.977 -0.0284 -0.0564 -0.0219
49830W        W50694  20.696  23.058  22.858  0.0453 -0.1240 -0.1821
49831W        W50695  22.825  24.516  25.224  0.0255  0.0480 -0.2595
49832W        W50696  19.996  22.694  24.789 -0.1782  0.1447 -0.1554
49833W        W50697  17.900  20.443  23.660  0.2404  0.1044  0.0840
49834W        W50698  19.783  24.252  21.820  0.4535  0.2535 -0.3412
49835W        W50699  20.519  24.487  24.415  0.0314 -0.1458 -0.0586
49836W        W50700  20.846  27.535  22.018 -0.2771  0.1760 -0.0017
49837W        W50701  23.523  21.809  23.447 -0.3762  0.2608  0.1423
49838W        W50702  23.200  25.362  25.893 -0.0036 -0.1870  0.0434
49839W        W50703  19.970  24.633  24.297 -0.3109  0.0145  0.0919
49840W        W50704  20.747  24.240  21.613  0.0732 -0.0696 -0.1495
49841W        W50705  18.758  21.623  25.720 -0.2803 -0.0493 -0.3720
49842W        W50706  20.624  24.505  23.411  0.1068  0.1158  0.2446
49843W        W50707  20.624  25.856  23.198 -0.0258  0.4105  0.0424
49844W        W50708  18.273  23.722  25.285  0.2610 -0.1619  0.0717
49845W        W50709  17.439  21.771  23.915 -0.1469 -0.1851 -0.2372
49846W        W50710  18.474  21.168  24.528 -0.4830  0.1966  0.2144
49847W        W50711  21.120  24.755  23.463  0.0301  0.0379  0.1879
49848W        W50712  21.681  22.234  23.212  0.1001  0.1982  0.0124
49849W        W50713  21.687  24.491  21.309 -0.1381  0.2732  0.1746
49850W        W50714  21.724  22.747  23.701  0.0665 -0.0824 -0.1884
49851W        W50715  17.198  21.869  24.764 -0.0919 -0.3090 -0.2837
49852W        W50716  19.683  25.884  25.212  0.2109 -0.2974  0.4107
49853W        W50717  21.478  18.546  23.597 -0.0603  0.1478 -0.1086
49854W        W50718  16.963  21.128  22.295 -0.0435  0.0341  0.2200
49855W        W50719  20.952  21.758  24.645 -0.0080  0.0388 -0.2994
49856W        W50720  19.368  26.078  24.005  0.1576 -0.1647  0.1533
49857W        W50721  21.374  26.007  22.427  0.2596 -0.0596  0.2159
49858W        W50722  19.052  24.332  20.860  0.0317 -0.1588 -0.1037
49859W        W50723  22.574  26.824  24.216 -0.3813  0.2652 -0.2962
49860W        W50724  20.739  22.863  25.638 -0.0418  0.0296 -0.2379
49861W        W50725  20.190  21.780  24.243 -0.3197 -0.0413  0.2546
49862W        W50726  22.049  21.490  23.876 -0.0096 -0.0001  0.0741
49863W        W50727  21.791  20.993  23.099  0.1801  0.2017 -0.3251
49864W        W50728  19.138  19.598  26.710 -0.0727 -0.0605 -0.3157
49865W        W50729  20.690  23.184  24.344 -0.1069 -0.0225 -0.2180
49866W        W50730  21.318  20.937  23.065 -0.1924  0.1887  0.0927
49867W        W50731  20.292  21.728  23.264  0.0564  0.0747  0.1866
49868W        W50732  20.688  22.994  27.003 -0.1602 -0.0004 -0.1088
49869W        W50733  21.580  22.492  21.934  0.0765 -0.3454 -0.0482
49870W        W50734  21.015  22.341  24.848 -0.0664 -0.5590  0.2252
49871W        W50735  20.812  22.333  25.376 -0.3225  0.1604 -0.2713
49872W        W50736  19.289  23.693  24.448 -0.0810 -0.0419  0.0700
49873W        W50737  17.624  22.939  23.631 -0.1421 -0.0353 -0.1297
49874W        W50738  21.107  20.553  24.993  0.1964  0.0967 -0.0960
49875W        W50739  22.248  24.556  22.226  0.1009 -0.0527 -0.1787
49876W        W50740  19.137  24.423  23.570  0.0457 -0.0840 -0.0985
49877W        W50741  19.942  23.075  26.733 -0.2298  0.3332 -0.4071
49878W        W50742  19.564  24.024  24.742  0.0121  0.1060 -0.2067
49879W        W50743  19.889  23.770  23.400 -0.0291  0.1482  0.1078
49880W        W50744  21.998  21.585  26.211 -0.0790 -0.2736  0.1716
49881W        W50745  22.472  24.715  24.981  0.3806  0.2674 -0.1096
49882W        W50746  20.181  23.064  23.827  0.1994 -0.1888  0.1935
49883W        W50747  21.939  27.371  23.535  0.4625 -0.0265 -0.0092
49884W        W50748  23.100  28.586  24.576 -0.0838 -0.1687  0.2525
49885W        W50749  21.612  22.828  26.390  0.0881  0.0758 -0.1029
49886W        W50750  20.411  23.972  24.753 -0.3616 -0.5414 -0.2750
49887W        W50751  21.149  23.249  27.047 -0.1870 -0.3365  0.3421
49888W        W50752  21.255  24.731  24.917  0.0733  0.1214 -0.1950
49889W        W50753  17.604  23.876  27.658  0.0115 -0.1007  0.0333
49890W        W50754  19.068  22.126  23.698  0.0013 -0.0150 -0.1793
49891W        W50755  21.110  23.855  21.541 -0.0559  0.0407  0.2559
49892W        W50756  21.526  24.712  24.337 -0.2827 -0.0531  0.0298
49893W        W50757  21.585  25.800  25.321  0.2479  0.2551 -0.0294
49894W        W50758  21.547  23.780  24.580 -0.0546  0.1043  0.1084
49895W        W50759  20.701   0.749  23.192 -0.0936 -0.1452  0.0071
49896W        W50760  22.458  21.749  23.026  0.2046 -0.3152 -0.2979
49897W        W50761  17.091  23.904  24.455  0.4800  0.3340 -0.1580
49898W        W50762  19.060  23.024  26.366  0.0545 -0.1757 -0.0500
49899W        W50763  18.647  24.957  24.417 -0.0257 -0.2088 -0.1575
49900W        W50764  22.908  23.334  24.685  0.5942 -0.0024 -0.0708
49901W        W50765  20.345  23.525  23.641 -0.1314 -0.2367  0.1302
49902W        W50766  21.331  23.275  24.620 -0.0855 -0.0448 -0.3774
49903W        W50767  23.520  22.343  22.081  0.0363 -0.3830 -0.2316
49904W        W50768  17.475  22.136  25.218 -0.0105  0.4525 -0.2338
49905W        W50769  21.125  27.825  23.501 -0.1205  0.1219  0.4446
49906W        W50770  21.504  27.340  21.553  0.0700  0.1477 -0.2706
49907W        W50771  20.524  23.985  22.461  0.0121  0.1799 -0.0681
49908W        W50772  18.967  25.843  25.781  0.1810 -0.2149  0.2386
49909W        W50773  18.432  23.659  24.775  0.1995 -0.1788  0.5012
49910W        W50774  19.590  23.027  24.991 -0.3234  0.1682 -0.0962
49911W        W50775  20.280  20.998  24.950  0.2432  0.2001  0.0144
49912W        W50776  21.696  24.732  20.410  0.4195 -0.1308  0.0546
49913W        W50777  23.955  22.239  23.574 -0.3407  0.1918 -0.1663
49914W        W50778  18.669  26.855  25.929 -0.1164 -0.0455  0.1609
49915W        W50779  21.579  22.760  24.282 -0.0654  0.5629  0.0172
49916W        W50780  18.639  22.115  24.975  0.0477 -0.0264  0.0566
49917W        W50781  20.170  25.031  25.521  0.0777  0.1236 -0.4175
49918W        W50782  22.328  25.570  23.702  0.0884 -0.1224 -0.0622
49919W        W50783  23.201  25.282  25.062 -0.2464  0.1045  0.1980
49920W        W50784  22.293  22.908  23.922 -0.0224  0.1032  0.2771
49921W        W50785  16.879  21.595  19.721  0.1402  0.0077 -0.4812
49922W        W50786  22.344  26.973  21.762  0.2038  0.0785 -0.2051
49923W        W50787  22.627  22.652  23.596  0.2320  0.2653 -0.0813
49924W        W50788  19.033  20.532  25.301  0.2065  0.2333 -0.0698
49925W        W50789  21.235  27.488  25.610 -0.0911  0.0500  0.2105
49926W        W50790  20.637  24.106  23.773  0.0445  0.0919  0.1025
49927W        W50791  16.972  20.724  25.333  0.3553  0.1895  0.0460
49928W        W50792  20.398  22.956  26.543  0.2295  0.1108  0.0189
49929W        W50793  20.548  23.889  27.160  0.0026  0.2019  0.3534
49930W        W50794  19.422  21.162  25.178  0.1423  0.2133  0.1958
49931W        W50795  20.336  24.985  24.423 -0.0035  0.0855 -0.1751
49932W        W50796  16.467  21.624  24.300  0.0799  0.0859 -0.2372
49933W        W50797  20.505  26.816  23.385 -0.1063  0.0925 -0.1349
49934W        W50798  22.252  25.721  24.331 -0.0273 -0.1437 -0.1540
49935W        W50799  18.434  23.287  23.873 -0.0400 -0.2519 -0.2296
49936W        W50800  21.457  22.942  22.613  0.1710 -0.1929 -0.1033
49937W        W50801  20.217  25.093  22.064  0.0013 -0.1108 -0.2596
49938W        W50802  19.649  21.787  25.873  0.2246 -0.1350 -0.0895
49939W        W50803  20.020  22.952  25.312  0.0353  0.0662 -0.2132
49940W        W50804  19.412  25.252  26.327  0.1197 -0.0493 -0.0490
49941W        W50805  24.227  26.100  24.534 -0.1670  0.0523  0.0929
49942W        W50806  20.181  24.748  26.048 -0.0385  0.1885 -0.2831
49943W        W50807  20.355  22.283  27.064 -0.0223  0.2737  0.2070
49944W        W50808  16.833  23.406  24.421  0.1060  0.0040  0.0147
49945W        W50809  21.868  23.446  24.808  0.3111  0.1156  0.1712
49946W        W50810  18.126  25.020  25.136 -0.3252 -0.3102  0.3502
49947W        W50811  18.948  22.193  25.490 -0.1528 -0.3028  0.1833
49948W        W50812  21.550  20.450  23.091  0.0701 -0.1732  0.5141
49949W        W50813  20.467  23.478  22.555 -0.1017  0.0251 -0.1555
49950W        W50814  20.416  23.628  25.106 -0.2697  0.1340  0.4161
49951W        W50815  21.884  23.513  24.246 -0.2099  0.2214  0.0748
49952W        W50816  21.434  22.440  27.341  0.1867 -0.0509  0.1053
49953W        W50817  19.442  25.628  24.316  0.0536  0.1181  0.1875
49954W        W50818  20.727  25.326  24.605 -0.1069  0.1564  0.0058
49955W        W50819  20.370  23.201  20.277  0.0207  0.3980  0.3872
49956W        W50820  20.482  22.270  21.943  0.1410 -0.3314 -0.1498
49957W        W50821  23.487  23.293  23.420 -0.0837  0.0290 -0.1700
49958W        W50822  21.970  20.147  21.595 -0.2396  0.2758 -0.2709
49959W        W50823  21.480  25.265  24.102 -0.4838 -0.1576  0.3109
49960W        W50824  20.890  23.709  22.755  0.0856 -0.4469 -0.1697
49961W        W50825  21.548  25.865  22.834 -0.4606  0.0135  0.0969
49962W        W50826  18.728  25.482  25.096  0.0692 -0.0452 -0.1083
49963W        W50827  19.863  23.353  24.463  0.5028  0.2330  0.0697
49964W        W50828  19.200  22.393  24.079  0.3387  0.0130 -0.1330
49965W        W50829  19.999  21.884  24.973  0.1015 -0.0903 -0.0885
49966W        W50830  20.037  26.952  22.979 -0.1058  0.0044 -0.0257
49967W        W50831  19.306  23.253  24.130  0.0657 -0.0261 -0.1585
49968W        W50832  20.134  21.432  24.683  0.2418  0.2163  0.0749
49969W        W50833  23.535  27.437  26.125 -0.1559 -0.1898 -0.1133
49970W        W50834  22.355  26.334  24.213  0.1670 -0.1425  0.1662
49971W        W50835  24.997  21.434  23.400 -0.0305  0.0656  0.0147
49972W        W50836  19.402  25.334  23.642  0.1474  0.1154 -0.2146
49973W        W50837  23.541  24.640  28.187 -0.0998 -0.1780  0.0599
49974W        W50838  20.852  21.904  25.110 -0.1118  0.1042 -0.1479
49975W        W50839  20.948  22.213  22.463  0.1699  0.0343 -0.0418
49976W        W50840  17.822  23.831  23.734 -0.1963 -0.0735  0.0827
49977W        W50841  16.468  21.767  21.537 -0.1378  0.3411  0.0456
49978W        W50842  21.787  24.753  23.864 -0.1117 -0.1044  0.1585
49979W        W50843  23.190  22.212  21.249  0.0432 -0.1567 -0.3098
49980W        W50844  22.158  23.169  25.793  0.0014 -0.1173  0.1119
49981W        W50845  19.637  25.365  24.749 -0.0588 -0.0464  0.2154
49982W        W50846  19.391  26.910  23.929 -0.0965  0.0174 -0.1672
49983W        W50847  18.442  23.917  23.820 -0.0716  0.2192  0.1283
49984W        W50848  21.933  20.497  23.875  0.0161  0.1652  0.0825
49985W        W50849  21.194  27.954  26.071 -0.1933  0.1730 -0.0265
49986W        W50850  22.411  24.469  25.420 -0.3153 -0.1759 -0.1129
49987W        W50851  21.336  23.165  26.115 -0.0755 -0.2967 -0.4849
49988W        W50852  23.043  26.033  23.761  0.0659  0.3259 -0.3568
49989W        W50853  20.162  23.301  22.918 -0.1380  0.3055 -0.1172
49990W        W50854  25.049  24.601  26.022  0.1931  0.1063  0.1653
49991W        W50855  21.946  22.416  24.200  0.0366 -0.2238 -0.0413
49992W        W50856  19.305  25.577  22.863 -0.2343  0.0221 -0.2916
49993W        W50857  19.927  22.241  26.540  0.1356  0.0516  0.0347
49994W        W50858  21.484  25.791  24.183 -0.2845 -0.1341  0.1150
49995W        W50859  21.875  21.019  22.293  0.1241  0.2639 -0.3119
49996W        W50860  20.127  24.287  22.666 -0.1524  0.0235 -0.0446
49997W        W50861  19.328  20.826  24.775 -0.0706 -0.1257 -0.0142
49998W        W50862  21.646  19.585  21.044  0.1249 -0.1380  0.1544
49999W        W50863  21.449  22.211  25.515 -0.0034  0.0678 -0.0921
50000W        W50864  22.717  25.231  25.058 -0.0401  0.2552  0.1467
50001W        W50865  21.600  23.592  26.189  0.1135  0.2024 -0.1899
50002W        W50866  22.033  27.434  25.438  0.0525  0.0260  0.0817
50003W        W50867  18.615  25.791  23.697  0.1677 -0.2621  0.0493
50004W        W50868  20.317  24.434  23.973  0.3957 -0.0618 -0.1044
50005W        W50869  20.140  22.301  24.558 -0.1989  0.0245 -0.0457
50006W        W50870  22.018  20.382  22.922 -0.0364 -0.0277  0.1660
50007W        W50871  19.729  26.215  23.326 -0.3418  0.0368  0.2395
50008W        W50872  19.011  21.295  26.033  0.2921 -0.0315 -0.3110
50009W        W50873  20.847  20.330  25.578  0.1063 -0.0859 -0.0645
50010W        W50874  21.053  24.201  22.580  0.1486  0.0678  0.2862
50011W        W50875  19.995  25.597  24.977  0.2035 -0.2214 -0.0183
50012W        W50876  20.464  25.659  25.877 -0.0692  0.3428  0.3112
50013W        W50877  17.558  22.734  22.652  0.0206  0.0746  0.3360
50014W        W50878  18.268  20.623  21.852  0.4587  0.0579  0.3613
50015W        W50879  21.442  22.414  23.984  0.0175 -0.0245  0.2110
50016W        W50880  21.228  21.996  23.739 -0.1491  0.1575  0.0639
50017W        W50881  21.659  24.489  25.047  0.2792 -0.0462  0.0315
50018W        W50882  20.790  20.566  23.591  0.4308  0.0815 -0.0675
50019W        W50883  21.214  24.855  23.953  0.1192 -0.1136 -0.1740
50020W        W50884  18.523  23.649  23.006 -0.0447  0.1228 -0.1142
50021W        W50885  22.248  27.655  22.815 -0.1039 -0.0144 -0.0882
50022W        W50886  19.795  22.689  22.411 -0.1834  0.0904  0.1132
50023W        W50887  18.171  24.262  22.602 -0.0160  0.3733  0.0128
50024W        W50888  22.571  22.982  24.570 -0.1622  0.1641 -0.0954
50025W        W50889  19.505  23.388  26.852  0.2928  0.0675 -0.0391
50026W        W50890  19.851  22.137  22.597  0.1932 -0.3546  0.0342
50027W        W50891  20.335  22.199  23.364  0.0079  0.2022 -0.1696
50028W        W50892  20.557  19.020  26.044 -0.2935  0.1215  0.2948
50029W        W50893  21.786  22.723  25.422  0.0237  0.0641 -0.0154
50030W        W50894  23.035  20.462  21.975 -0.0935  0.2088 -0.1680
50031W        W50895  23.030  26.996  23.836  0.1166 -0.1850  0.0362
50032W        W50896  24.401  22.596  24.233  0.1784  0.2885  0.0566
50033W        W50897  19.618  25.911  24.708  0.2129 -0.0465  0.3384
50034W        W50898  22.740  24.326  27.212  0.3022  0.0702  0.0512
50035W        W50899  22.092  22.288  22.930  0.0203 -0.0280  0.0797
50036W        W50900  19.818  20.948  23.926  0.1699 -0.2812 -0.0336
50037W        W50901  20.517  22.665  23.598  0.1501  0.5398 -0.0647
50038W        W50902  24.758  22.461  22.175  0.1581  0.1354  0.0400
50039W        W50903  20.165  21.397  21.706 -0.1970  0.0773  0.2693
50040W        W50904  21.193  24.702  27.724  0.1922 -0.0189  0.0653
50041W        W50905  20.996  22.712  22.646 -0.1595 -0.3761  0.1834
50042W        W50906  17.818  21.718  25.555 -0.0550  0.1047  0.2306
50043W        W50907  22.514  26.078  21.209  0.1225  0.0721 -0.1155
50044W        W50908  22.802  24.939  25.864  0.1507  0.2995 -0.1358
50045W        W50909  19.153  22.610  26.857  0.0145 -0.1211 -0.2255
50046W        W50910  19.266  22.422  23.301  0.1943 -0.0892  0.1448
50047W        W50911  20.918  25.222  23.758 -0.1238  0.2502  0.0547
50048W        W50912  18.142  24.877  24.647  0.2054 -0.2663  0.3225
50049W        W50913  17.164  24.118  20.473  0.1926 -0.0436  0.0282
50050W        W50914  19.986  23.282  25.701  0.0972  0.0519 -0.1783
50051W        W50915  21.995  25.304  25.325  0.0275  0.1101  0.1723
50052W        W50916  21.775  23.917  24.987 -0.0126 -0.0094 -0.0601
50053W        W50917  20.555  26.217  23.474 -0.2393  0.2224  0.0469
50054W        W50918  17.263  25.510  25.426 -0.2208 -0.1056 -0.2879
50055W        W50919  21.046  25.406  24.232  0.1186  0.1558 -0.1306
50056W        W50920  21.727  26.433  23.994 -0.0574  0.1608  0.0368
50057W        W50921  17.979  23.492  24.898  0.0121  0.2036  0.1146
50058W        W50922  20.174  23.518  24.085  0.2936 -0.1020  0.3128
50059W        W50923  21.255  21.891  23.255  0.0858 -0.0935  0.0577
50060W        W50924  22.335  26.081  23.477  0.0625  0.1050  0.4002
50061W        W50925  19.326  24.790  25.963  0.4728  0.0271  0.0911
50062W        W50926  17.656  22.525  23.921 -0.1965  0.0501 -0.2965
50063W        W50927  21.482  26.844  24.331  0.0020 -0.1769 -0.0715
50064W        W50928  20.415  25.573  26.965  0.2027 -0.2944 -0.2222
50065W        W50929  22.632  21.672  22.528  0.0766 -0.3281 -0.0392
50066W        W50930  19.365  25.644  22.380 -0.2926 -0.0447  0.0401
50067W        W50931  19.077  27.087   1.463  0.1588 -0.0677 -0.3388
50068W        W50932  21.468  24.585  27.266 -0.0905  0.1936 -0.3253
50069W        W50933  20.262  26.038  28.306 -0.1116  0.0227  0.3083
50070W        W50934  22.978  24.290   0.791  0.1283 -0.0308 -0.1260
50071W        W50935  20.509  22.694  27.373  0.0077  0.1402  0.1857
50072W        W50936  20.593  23.764   1.744  0.0481  0.1316 -0.0040
50073W        W50937  20.293  22.917  25.832 -0.1148  0.0177  0.3909
50074W        W50938  20.243  23.808  26.145  0.0889 -0.2997  0.1378
50075W        W50939  19.991  25.646   0.074  0.0209 -0.2678 -0.2218
50076W        W50940  20.690  21.715   0.109 -0.0238  0.1215  0.2025
50077W        W50941  19.644  22.577   0.273 -0.0532 -0.4070 -0.1623
50078W        W50942  24.555  22.334  25.990 -0.0033 -0.0102  0.1089
50079W        W50943  20.234  21.958  22.859 -0.1521 -0.2255  0.0752
50080W        W50944  20.911  22.424  28.291 -0.1153  0.1293  0.3309
50081W        W50945  20.089  20.339  28.329  0.1043 -0.0820 -0.0365
50082W        W50946  21.515  25.218  28.861 -0.3021  0.3589 -0.0295
50083W        W50947  20.838  26.503  26.704 -0.0118 -0.0352 -0.1657
50084W        W50948  17.955  22.693  28.934 -0.2136 -0.0897  0.2252
50085W        W50949  20.683  20.854   1.438 -0.1039  0.0123  0.1521
50086W        W50950  23.839  24.188   1.055 -0.2002  0.3267 -0.0408
50087W        W50951  21.897  26.635  27.348  0.1671  0.2199 -0.1577
50088W        W50952  22.271  24.017  26.890 -0.1303  0.0227  0.0166
50089W        W50953  19.205  26.175  27.180  0.1386  0.4494  0.1893
50090W        W50954  19.716  22.478  28.126  0.0251  0.0108 -0.0219
50091W        W50955  17.356  24.244  27.392 -0.1629  0.0430 -0.1006
50092W        W50956  19.810  23.452   0.059  0.1543 -0.2002 -0.0175
50093W        W50957  22.855  22.596  27.363  0.1406 -0.0040 -0.1698
50094W        W50958  19.268  24.208  24.409 -0.1319  0.1452 -0.2442
50095W        W50959  20.403  24.079  27.685  0.3224  0.1216  0.3880
50096W        W50960  20.186  19.489  27.063  0.3681  0.0972  0.2272
50097W        W50961  19.666  25.008  28.211  0.2502 -0.1039  0.0828
50098W        W50962  20.646  25.120   1.511  0.1782  0.1545 -0.0044
50099W        W50963  19.162  25.761  28.036  0.4211  0.0067  0.0655
50100W        W50964  22.547  23.941  27.730  0.0081  0.1511 -0.1124
50101W        W50965  17.653  22.307   1.643  0.0061  0.1268 -0.3890
50102W        W50966  20.386  25.902   1.520 -0.0163  0.0626 -0.1113
50103W        W50967  16.003  22.330  28.023 -0.0220  0.3378 -0.0142
50104W        W50968  21.037  25.586  28.506 -0.0334  0.1909 -0.0120
50105W        W50969  22.208  27.422  24.822  0.1810 -0.1312 -0.0455
50106W        W50970  22.320  22.455  27.350  0.0396 -0.1328 -0.1181
50107W        W50971  20.179  21.258  27.046  0.0948  0.0975  0.2708
50108W        W50972  24.996  22.845  27.525  0.1785 -0.1153  0.4171
50109W        W50973  20.657  24.831  26.900  0.3388 -0.1045  0.0633
50110W        W50974  23.273  26.451  24.702 -0.0700 -0.3333  0.0852
50111W        W50975  17.452  23.865  28.507 -0.2834  0.1498  0.0580
50112W        W50976  20.975  24.002  25.669  0.1768 -0.0294 -0.1804
50113W        W50977  21.685  20.470  27.564  0.0985  0.1264  0.0844
50114W        W50978  23.723  23.912  26.396 -0.1387 -0.1205 -0.0926
50115W        W50979  22.698  25.144  27.454  0.1557 -0.1391  0.3150
50116W        W50980  20.486  21.942  25.433  0.0473  0.0794  0.1825
50117W        W50981  19.084  24.306  28.499  0.0696 -0.0055 -0.2062
50118W        W50982  22.204  23.880  26.394 -0.2605 -0.0802  0.3623
50119W        W50983  20.111  23.321  28.048 -0.0847  0.2021  0.2722
50120W        W50984  23.239  23.173  27.537 -0.0851  0.0333  0.3294
50121W        W50985  21.948  23.053  27.894  0.4805  0.1805 -0.2074
50122W        W50986  19.640  25.951  27.015  0.0340  0.1153  0.0278
50123W        W50987  20.076  22.622  26.325  0.1105 -0.0248 -0.2216
50124W        W50988  21.959  21.344  26.652  0.2767  0.0173  0.1404
50125W        W50989  21.832  25.540  24.491 -0.1276 -0.1717  0.3320
50126W        W50990  21.374  24.323  25.757  0.2069 -0.3606  0.0285
50127W        W50991  23.185  25.761  26.211 -0.0916 -0.1310  0.2468
50128W        W50992  19.356  25.712   0.163 -0.0201 -0.5219 -0.2088
50129W        W50993  18.857  25.532   0.089  0.0108 -0.3968 -0.0882
50130W        W50994  20.202  24.636  26.558 -0.0445  0.0929  0.0254
50131W        W50995  20.460  23.845  28.898  0.1946  0.0290  0.0453
50132W        W50996  22.377  23.491  27.456 -0.2910  0.0413 -0.1002
50133W        W50997  21.966  24.595  24.666  0.0883 -0.2049  0.0603
50134W        W50998  21.530  23.126  25.075 -0.0936 -0.1131 -0.0927
50135W        W50999  18.843  27.152  28.224 -0.0287  0.1332 -0.1793
50136W        W51000  19.443  24.902  28.834 -0.2367 -0.4239 -0.0143
50137W        W51001  21.531  25.531  28.291 -0.1347  0.0523 -0.2019
50138W        W51002  20.259  23.799  28.119  0.0530 -0.3245 -0.2184
50139W        W51003  22.020  25.711  27.558  0.2301 -0.2931  0.0492
50140W        W51004  20.273  23.395  29.059 -0.2736  0.1726 -0.1069
50141W        W51005  22.017  23.262  27.074  0.0677  0.1161  0.1582
50142W        W51006  18.675  24.001  27.223 -0.0688  0.0543  0.0573
50143W        W51007  21.206  24.591  25.381 -0.2269 -0.1287 -0.0539
50144W        W51008  19.097  21.733  26.195  0.1604  0.1245 -0.2410
50145W        W51009  19.726  21.224  27.299 -0.0333  0.0104 -0.0802
50146W        W51010  22.170  25.095  24.879  0.0454 -0.0490  0.1092
50147W        W51011  16.078  20.597  27.885 -0.0795  0.0581 -0.2271
50148W        W51012  17.328  22.878  26.711  0.0961  0.1510 -0.0345
50149W        W51013  18.101  26.660  24.480  0.0993 -0.1331 -0.4469
50150W        W51014  22.056  20.907  28.382  0.1858 -0.1045  0.1777
50151W        W51015  18.603  23.066   0.453 -0.1089 -0.2386 -0.2723
50152W        W51016  19.426  23.996  25.245  0.1811  0.2511 -0.4233
50153W        W51017  22.809  24.385  28.719  0.0137  0.3038  0.1792
50154W        W51018  18.251  22.396  28.636 -0.0540 -0.0285  0.0333
50155W        W51019  21.251  23.481  28.516 -0.2038  0.2135 -0.2197
50156W        W51020  20.729  22.546  27.851 -0.0778 -0.0349  0.0268
50157W        W51021  22.967  23.229  28.238  0.1135  0.0272  0.2087
50158W        W51022  22.450  23.561  26.968  0.1086  0.1325 -0.3323
50159W        W51023  20.045  25.517  24.426  0.1792 -0.1029 -0.2138
50160W        W51024  19.780  21.877  24.508  0.1797  0.0666  0.4154
50161W        W51025  18.390  21.271   1.960 -0.1445 -0.0246  0.1053
50162W        W51026  19.366  24.590  28.167 -0.1791 -0.0709  0.2400
50163W        W51027  22.531  23.158  26.605  0.0588 -0.1218  0.4123
50164W        W51028  20.936  24.051  27.911 -0.0390 -0.1053  0.0405
50165W        W51029  20.568  24.349  27.284  0.1010 -0.1562 -0.0304
50166W        W51030  21.928  21.891  26.810 -0.0129  0.0187  0.2560
50167W        W51031  20.218  25.989  25.200  0.0980  0.0427 -0.4654
50168W        W51032  20.820  26.042  25.783 -0.1001 -0.0729  0.0733
50169W        W51033  22.579  22.678  26.495 -0.0190  0.4499  0.0041
50170W        W51034  23.644  26.715  26.813 -0.0459 -0.1680  0.0041
50171W        W51035  21.870  22.157  27.281  0.0430 -0.4157  0.0422
50172W        W51036  21.415  23.781   0.609  0.0824  0.0681  0.0651
50173W        W51037  21.337  27.899  27.961 -0.0157  0.0060 -0.1659
50174W        W51038  20.456  23.392  25.964  0.0720 -0.0853  0.0011
50175W        W51039  19.905  20.013  27.697 -0.3337 -0.2330  0.1673
50176W        W51040  15.518  22.594  27.700  0.0599  0.0976 -0.0194
50177W        W51041  20.904  23.784   0.826  0.0877  0.0935  0.1195
50178W        W51042  21.494  25.733  26.596 -0.0869 -0.2533  0.2870
50179W        W51043  18.144  25.049   0.996 -0.2104  0.2344  0.1649
50180W        W51044  17.739  21.903  27.095 -0.2988 -0.1684  0.0385
50181W        W51045  22.524  25.216  26.629 -0.2143  0.2347 -0.2369
50182W        W51046  20.400  20.635  25.692  0.1928 -0.2460 -0.0707
50183W        W51047  23.488  20.396  26.571 -0.0553 -0.1094 -0.1521
50184W        W51048  22.028  24.122  28.028  0.0037  0.0461 -0.3326
50185W        W51049  21.924  22.481  26.399 -0.0390  0.0336 -0.1537
50186W        W51050  21.111  23.861  27.239  0.2508  0.0236  0.3651
50187W        W51051  20.544  23.424  26.457  0.1006 -0.1783 -0.1676
50188W        W51052  22.672  23.344  28.727 -0.2992 -0.3424  0.1570
50189W        W51053  19.893  24.922  27.330  0.0554  0.0730  0.1714
50190W        W51054  21.161  24.257  27.529  0.0442 -0.1587  0.0228
50191W        W51055  20.057  23.942  23.849  0.0171 -0.0598  0.4302
50192W        W51056  22.512  24.208  26.279 -0.2217 -0.2686  0.0149
50193W        W51057  17.573  23.483  28.136 -0.0373 -0.0202 -0.0679
50194W        W51058  19.548  24.160  28.261  0.2819  0.0278 -0.0708
50195W        W51059  17.781  25.461  28.322  0.0534 -0.0611  0.0290
50196W        W51060  19.803  25.929  24.214  0.0485 -0.2829 -0.2537
50197W        W51061  19.832  24.998   0.039  0.2245 -0.2661 -0.2839
50198W        W51062  20.663  23.153   2.185  0.1120  0.1931  0.2298
50199W        W51063  19.484  25.742  28.434  0.1238  0.2399  0.3203
50200W        W51064  22.986  23.952  24.458  0.2704  0.2476 -0.0331
50201W        W51065  21.695  21.245  27.687  0.1961 -0.0575 -0.1447
50202W        W51066  19.124  22.182  28.828 -0.1173  0.0989 -0.2567
50203W        W51067  21.567  23.815  28.729 -0.1487  0.4502  0.0287
50204W        W51068  22.371  19.816   0.898 -0.1359 -0.0886 -0.2160
50205W        W51069  22.081  25.707  27.095  0.1689  0.0013 -0.0162
50206W        W51070  21.988  26.983  25.563 -0.2708  0.2463 -0.2556
50207W        W51071  20.023  24.157  26.480 -0.1699 -0.1036 -0.0547
50208W        W51072  21.683  19.860  26.160 -0.0922 -0.0594 -0.2436
50209W        W51073  20.147  26.039  26.400  0.2758  0.0528 -0.2671
50210W        W51074  20.169  23.812  25.547  0.0850  0.0223  0.4529
50211W        W51075  20.400  25.888   0.774 -0.0139  0.3757 -0.2034
50212W        W51076  18.036  22.619  26.064  0.1058 -0.6832  0.0518
50213W        W51077  21.909  23.211  26.212 -0.2534 -0.1454  0.1524
50214W        W51078  18.639  27.113  28.713  0.1536 -0.0002  0.1003
50215W        W51079  21.066  23.718   0.240  0.2047  0.0011 -0.1271
50216W        W51080  22.056  24.977  25.763  0.0792  0.2193 -0.0377
50217W        W51081  22.685  25.690  26.520 -0.0427 -0.1948  0.0488
50218W        W51082  16.734  22.462   0.156 -0.1221 -0.0765  0.0147
50219W        W51083  19.279  26.295   0.223  0.1833  0.2211 -0.3343
50220W        W51084  18.937  25.279  26.099 -0.1952  0.0109  0.1317
50221W        W51085  19.415  23.680  28.954 -0.0910 -0.0630  0.0294
50222W        W51086  21.730  23.755  28.247  0.0966  0.1155  0.3849
50223W        W51087  17.455  25.333   2.004  0.1289 -0.0502 -0.0347
50224W        W51088  18.492  22.574  22.684 -0.1370 -0.1483 -0.0593
50225W        W51089  17.812  24.340  27.634  0.2239 -0.1809  0.1182
50226W        W51090  22.176  20.586  24.838 -0.1422 -0.0171  0.1255
50227W        W51091  22.115  21.565  29.074 -0.2004  0.0289 -0.1763
50228W        W51092  20.069  22.898   1.484 -0.2048 -0.0103  0.3756
50229W        W51093  18.495  25.892   0.106  0.2487  0.1820  0.1010
50230W        W51094  20.545  22.488   0.228 -0.2573  0.0827  0.0607
50231W        W51095  21.355  20.825  27.636 -0.1588  0.3900  0.0724
50232W        W51096  18.745  20.302  28.395 -0.0314  0.0364 -0.0260
50233W        W51097  20.902  22.255  26.367  0.2741  0.4317  0.0047
50234W        W51098  19.707  24.860  26.773  0.0081 -0.2538  0.0632
50235W        W51099  19.208  22.851   0.412 -0.2783  0.1158 -0.0577
50236W        W51100  18.148  23.731  26.417  0.0597  0.1042 -0.1313
50237W        W51101  20.290  25.212  26.010  0.0280 -0.0982 -0.1855
50238W        W51102  23.399  21.368  27.513 -0.0482 -0.2799 -0.0063
50239W        W51103  20.676  23.399  27.332  0.0966 -0.1753 -0.3476
50240W        W51104  21.457  24.477  26.222 -0.2927 -0.1194  0.1136
50241W        W51105  20.858  19.144  29.036  0.0463 -0.0260 -0.1343
50242W        W51106  22.108  23.457  26.625 -0.2712  0.1003 -0.0486
50243W        W51107  18.955  24.129  25.331 -0.1208  0.2018  0.3885
50244W        W51108  21.105  23.559  25.937 -0.0227  0.1912  0.0401
50245W        W51109  19.774  25.202  25.829 -0.1402  0.1074  0.0416
50246W        W51110  20.400  23.765   0.668 -0.1475  0.1804  0.1496
50247W        W51111  21.549  26.544  26.449 -0.2713 -0.4175 -0.0815
50248W        W51112  23.038  24.964  25.443  0.2323  0.0349 -0.2667
50249W        W51113  20.846  21.356  26.068  0.0617 -0.3751  0.1199
50250W        W51114  19.810  26.928  26.696  0.0879  0.0181  0.1573
50251W        W51115  19.163  22.580  26.208  0.0487  0.3186  0.3079
50252W        W51116  21.828  24.179  29.021  0.1153  0.1020 -0.2445
50253W        W51117  22.801  20.337  28.855  0.0749 -0.3802  0.4475
50254W        W51118  17.424  22.863  27.197  0.1212  0.1612 -0.1309
50255W        W51119  22.416  23.981   0.443 -0.1909  0.0859 -0.2052
50256W        W51120  23.555  24.805  25.406  0.0841 -0.1651  0.2338
50257W        W51121  17.662  25.819  25.821  0.1315 -0.0201  0.2586
50258W        W51122  21.332  27.281  26.891 -0.2418  0.3267  0.2910
50259W        W51123  19.171  23.921   0.517  0.1707  0.2030 -0.0968
50260W        W51124  18.384  20.912   0.640 -0.2261  0.1327  0.3744
50261W        W51125  18.825  22.922  27.187  0.2795 -0.5061 -0.0263
50262W        W51126  21.068  21.075  27.971  0.3123  0.1137  0.0289
50263W        W51127  22.779  21.441  25.025 -0.3173  0.2342 -0.1175
50264W        W51128  18.786  22.213  27.658  0.1203  0.3572  0.1512
50265W        W51129  17.882  23.168  28.393  0.0858  0.0611  0.1717
50266W        W51130  23.204  24.086  27.377 -0.1523  0.1373 -0.0915
50267W        W51131  20.766  22.227  27.389  0.0203  0.2592 -0.1379
50268W        W51132  22.450  22.650  27.875  0.3455 -0.1084  0.1538
50269W        W51133  18.635  26.856  26.748 -0.1362  0.1962  0.1883
50270W        W51134  17.547  22.430  28.694  0.1204  0.0746 -0.2532
50271W        W51135  17.233  22.110  28.376 -0.0631 -0.2125  0.1656
50272W        W51136  19.009  23.958  26.156  0.3900 -0.0051  0.3573
50273W        W51137  17.249  22.531   0.433  0.1673  0.0962  0.1698
50274W        W51138  22.093  23.834  28.584  0.1363 -0.0860 -0.0925
50275W        W51139  20.083  26.028  24.683 -0.0535  0.1524 -0.1418
50276W        W51140  16.058  24.974  27.136 -0.0732  0.0370  0.0621
50277W        W51141  19.162  25.340  28.297  0.2284  0.2213  0.2721
50278W        W51142  19.338  23.422   0.784  0.2607  0.0757  0.0210
50279W        W51143  18.695  23.053  26.062 -0.1504  0.2440  0.4060
50280W        W51144  22.819  19.062  27.338 -0.1749 -0.0082 -0.2381
50281W        W51145  22.893  24.075  28.298 -0.4083 -0.1098  0.3913
50282W        W51146  21.177  25.034  24.505 -0.1469  0.1924 -0.0406
50283W        W51147  22.323  24.741  24.046 -0.0548  0.1756 -0.1757
50284W        W51148  21.705  26.757  25.961  0.0976  0.1157 -0.1771
50285W        W51149  22.062  22.532   3.126  0.1306  0.4694  0.0429
50286W        W51150  18.232  21.890   0.279 -0.1492  0.0054 -0.2167
50287W        W51151  20.305  20.818  28.251 -0.0197 -0.1571  0.2251
50288W        W51152  22.413  24.073  25.788 -0.2313 -0.0325  0.0361
50289W        W51153  21.655  23.309  28.869  0.4495 -0.0463 -0.2560
50290W        W51154  19.144  23.428  25.840 -0.0088 -0.0811  0.0359
50291W        W51155  21.561  23.189  23.861 -0.0370  0.2579  0.4018
50292W        W51156  17.077  23.448  27.939  0.1145  0.0018 -0.1390
50293W        W51157  17.735  25.113  26.886 -0.5877  0.0315  0.4685
50294W        W51158  22.964  20.691  28.526 -0.2406  0.0771  0.1379
50295W        W51159  23.093  26.672  27.216 -0.2121  0.0385  0.0000
50296W        W51160  19.506  27.521  28.833  0.3542  0.1889  0.1855
50297W        W51161  18.737  20.724  27.555  0.2405  0.0625 -0.1050
50298W        W51162  19.679  22.262   1.051  0.1239  0.2875 -0.2340
50299W        W51163  21.292  27.061  25.855  0.1298  0.0851  0.0343
50300W        W51164  21.993  24.226  25.965  0.0973 -0.1135  0.1982
50301W        W51165  20.204  21.000   1.704  0.2419  0.1146  0.2103
50302W        W51166  20.867  25.663  27.613  0.0958  0.0628  0.1008
50303W        W51167  22.980  24.424  26.291 -0.2328 -0.2200  0.3193
50304W        W51168  20.529  23.031   0.264  0.1232  0.1166 -0.1266
50305W        W51169  21.160  24.887  26.207 -0.2117  0.1907 -0.0039
50306W        W51170  21.692  25.383  27.431 -0.2388 -0.0967  0.1996
50307W        W51171  20.168  25.869  23.404  0.2626 -0.0832  0.0255
50308W        W51172  18.788  24.189   0.554 -0.0836  0.1811  0.0397
50309W        W51173  17.728  22.917  27.969  0.1109  0.4599 -0.0049
50310W        W51174  18.178  21.485  27.218 -0.1258 -0.0583  0.0202
50311W        W51175  22.153  25.114  28.624  0.0700  0.0815 -0.0247
50312W        W51176  20.718  23.799  26.136 -0.2800  0.1745 -0.0597
50313W        W51177  22.113  24.880   0.247  0.0978  0.2357 -0.1259
50314W        W51178  19.423  22.806  28.386 -0.0402  0.1243  0.0924
50315W        W51179  21.272  26.904  27.265  0.0709 -0.1039 -0.0009
50316W        W51180  21.137  20.600  26.508 -0.0740  0.0371  0.1779
50317W        W51181  20.820  25.252  27.133  0.0725  0.1381 -0.0989
50318W        W51182  18.936  26.660   0.908 -0.0043 -0.2286  0.0730
50319W        W51183  20.738  27.060  27.591 -0.0506  0.0798  0.3375
50320W        W51184  19.246  23.106  27.825 -0.0046 -0.0098 -0.0277
50321W        W51185  20.473  19.433  28.745 -0.0372  0.3544  0.1657
50322W        W51186  21.343  25.479  24.622  0.5004  0.0423 -0.0301
50323W        W51187  25.347  23.866  27.267  0.0449 -0.0768  0.2309
50324W        W51188  21.201  18.584   0.347  0.2003  0.0623 -0.0486
50325W        W51189  22.241  26.820  28.966 -0.2736  0.1283  0.1176
50326W        W51190  18.763  24.776  25.808 -0.0936 -0.1696 -0.2088
50327W        W51191  20.226  25.279  28.850  0.1021  0.0673  0.2705
50328W        W51192  18.498  24.835  28.238 -0.0995 -0.3230  0.3353
50329W        W51193  21.625  25.338   0.608 -0.0453  0.0273  0.0399
50330W        W51194  17.930  22.635  28.380 -0.2981 -0.1941 -0.1167
50331W        W51195  17.918   0.036  28.132 -0.1620 -0.0036 -0.3267
50332W        W51196  19.096  27.198   0.901 -0.2298  0.2141 -0.0416
50333W        W51197  17.589  28.193  24.760 -0.0322  0.0440 -0.0056
50334W        W51198  22.931  25.511  25.480 -0.4796  0.5072  0.2353
50335W        W51199  19.736  23.597  27.847  0.1248  0.3227 -0.1738
50336W        W51200  19.807  23.718  28.339 -0.4136  0.0945 -0.2181
50337W        W51201  19.590  23.568  24.917 -0.1810 -0.0804 -0.1990
50338W        W51202  19.254  22.520   0.751  0.1164 -0.1866 -0.3023
50339W        W51203  19.751  25.791  27.534  0.2830 -0.1089 -0.2009
50340W        W51204  18.195  23.174  28.804  0.1754  0.0124  0.0703
50341W        W51205  19.046  26.296   1.254  0.0929 -0.1302 -0.2813
50342W        W51206  19.532  21.647  28.577  0.0116  0.1328 -0.0238
50343W        W51207  16.901  24.840  26.777 -0.1859 -0.0291  0.0190
50344W        W51208  21.562  23.526  27.235  0.1565 -0.2229  0.2282
50345W        W51209  21.308  23.614  25.471 -0.2063  0.0826  0.0090
50346W        W51210  17.140  25.807   0.926 -0.0836  0.2932 -0.1867
50347W        W51211  20.559  21.527  26.832 -0.0360  0.0105  0.1728
50348W        W51212  19.335  23.233  24.639 -0.2056 -0.0115 -0.1795
50349W        W51213  20.930  24.413  26.045 -0.0921 -0.0116 -0.1588
50350W        W51214  16.430  25.817  28.210  0.1754 -0.0935 -0.0261
50351W        W51215  22.565  25.450  27.095  0.1349  0.0218  0.0421
50352W        W51216  19.490  23.369  26.317  0.0816 -0.0314 -0.0536
50353W        W51217  18.232  25.007  26.679  0.0902  0.2595 -0.0534
50354W        W51218  18.220  22.915   0.140 -0.0893  0.0616 -0.1593
50355W        W51219  21.389  22.361  26.193  0.1450 -0.0894  0.0084
50356W        W51220  19.502  24.100  23.839 -0.2458  0.0014  0.5315
50357W        W51221  21.957  22.692  27.184  0.0503 -0.1362  0.0634
50358W        W51222  21.235  22.433  27.864  0.0100  0.1534 -0.0611
50359W        W51223  19.774  24.612  25.737  0.1610 -0.2804  0.0690
50360W        W51224  19.162  25.543   0.612 -0.0595  0.1004 -0.0216
50361W        W51225  20.248  24.494  27.958  0.1251 -0.0437 -0.0458
50362W        W51226  20.990  22.258   0.188  0.0843 -0.0927  0.1177
50363W        W51227  18.597  23.303  28.468 -0.2385 -0.0445  0.0313
50364W        W51228  19.669  25.926  28.935  0.0121 -0.0470 -0.0467
50365W        W51229  23.551  22.578  28.282  0.0697  0.1529 -0.1449
50366W        W51230  17.046  26.561  27.744  0.0386 -0.2473  0.3010
50367W        W51231  17.654  24.681  28.161  0.1993  0.0042  0.1170
50368W        W51232  22.175  23.374  28.990  0.0674 -0.2070 -0.1421
50369W        W51233  22.662  24.657   0.978 -0.3091 -0.1982 -0.1968
50370W        W51234  22.165  26.251  24.726  0.0196  0.1369 -0.2767
50371W        W51235  22.887  24.415  25.723 -0.0579 -0.0795 -0.1381
50372W        W51236  20.462  25.535  28.331 -0.0959  0.6341 -0.1306
50373W        W51237  21.482  24.720   1.687  0.0906  0.3044 -0.0448
50374W        W51238  20.368  19.774  27.396  0.2636 -0.2480 -0.1391
50375W        W51239  20.034  22.557  27.747  0.1879  0.1186 -0.0034
50376W        W51240  19.323  23.766  28.412 -0.0312 -0.2872 -0.0215
50377W        W51241  19.475  23.621  27.414 -0.0407 -0.0408  0.0912
50378W        W51242  19.317  24.176  27.341  0.1294  0.3506 -0.2664
50379W        W51243  19.832  22.821  28.798 -0.1362 -0.0171 -0.1676
50380W        W51244  23.020  24.089  26.879  0.1823 -0.0118  0.1176
50381W        W51245  19.744  22.985  27.828 -0.4818  0.0588  0.0084
50382W        W51246  23.229  25.107   1.207  0.2160  0.1045 -0.1420
50383W        W51247  21.021  22.908  24.770  0.0785  0.2215 -0.2134
50384W        W51248  21.181  21.188  27.061 -0.0530 -0.2172 -0.1526
50385W        W51249  22.287  24.128   1.185 -0.1076 -0.2945 -0.3667
50386W        W51250  20.478  24.239  26.283 -0.1619  0.1257 -0.1052
50387W        W51251  17.798  25.375   0.993  0.0337 -0.2754  0.1591
50388W        W51252  22.923  23.970  25.448  0.0364  0.0811 -0.0385
50389W        W51253  17.072  24.004   1.389  0.2701 -0.2223 -0.2448
50390W        W51254  21.751  24.513   0.240 -0.0725 -0.1848 -0.1175
50391W        W51255  20.157  25.320  27.480  0.2718 -0.0221 -0.1314
50392W        W51256  19.549  25.341  27.440 -0.1402 -0.2075  0.3599
50393W        W51257  19.984  24.926  27.813 -0.0380  0.2108 -0.4776
50394W        W51258  17.714  25.237  27.444  0.0940  0.0330  0.3996
50395W        W51259  20.242  24.490  25.573 -0.0049 -0.0664 -0.1999
50396W        W51260  19.730  23.737  24.154 -0.0650  0.0804 -0.0210
50397W        W51261  20.621  22.053  28.454  0.0317 -0.0881 -0.4670
50398W        W51262  22.279  21.999  27.112  0.0833  0.0273  0.0816
50399W        W51263  21.334  23.725  26.760  0.3068  0.0887  0.0861
50400W        W51264  19.807  25.331  28.547  0.0437  0.1263 -0.1691
50401W        W51265  22.259  22.997  27.487 -0.2535  0.0915  0.1964
50402W        W51266  19.418  25.795   1.161  0.1686  0.1366  0.3163
50403W        W51267  19.807  27.951  27.279 -0.3154  0.1125  0.1471
50404W        W51268  21.227  25.554  27.311  0.3209 -0.1403 -0.0406
50405W        W51269  20.922  23.956  26.633 -0.0939  0.2874 -0.3909
50406W        W51270  20.345  22.420  25.717 -0.2023  0.1124  0.0750
50407W        W51271  21.305  26.300  25.913 -0.1575 -0.0511  0.2606
50408W        W51272  18.516  21.967  28.020 -0.2136  0.0510  0.0450
50409W        W51273  21.590  22.927  26.949 -0.1985  0.1842  0.2149
50410W        W51274  19.514  24.905  25.446  0.1491  0.0966 -0.2586
50411W        W51275  21.459  25.751  28.717  0.0499 -0.0630 -0.0372
50412W        W51276  22.059  25.288   1.739  0.1567  0.2451 -0.1683
50413W        W51277  20.038  24.246  26.016 -0.3713  0.1716 -0.2712
50414W        W51278  19.538  23.297  28.196 -0.1906 -0.2954 -0.1750
50415W        W51279  20.693  25.999  28.117 -0.4734 -0.1054  0.0458
50416W        W51280  16.562  22.273  26.920  0.0882 -0.1513  0.0124
50417W        W51281  19.126  24.545  26.871 -0.4150 -0.0293  0.1603
50418W        W51282  23.529  24.051  26.852 -0.0642 -0.0274 -0.5351
50419W        W51283  21.731  24.897  27.603 -0.2793 -0.2418  0.1340
50420W        W51284  21.092  25.006  29.107 -0.0331  0.0619  0.1140
50421W        W51285  23.271  24.972  27.933  0.0237  0.0931  0.0218
50422W        W51286  22.035  24.129  25.432  0.2501  0.1832 -0.0134
50423W        W51287  18.649  26.782  27.442 -0.0097  0.0038  0.1765
50424W        W51288  21.230  24.117   0.984  0.1956 -0.0458  0.0648
50425W        W51289  16.709  23.485  25.352 -0.1793 -0.4008 -0.2018
50426W        W51290  21.605  24.755  26.625  0.0205  0.0295  0.1836
50427W        W51291  21.316  26.245  24.349 -0.2066  0.0511  0.0836
50428W        W51292  19.072  23.213  26.826  0.3558 -0.1885  0.3271
50429W        W51293  19.505  23.879  26.386  0.0407 -0.1350 -0.0348
50430W        W51294  20.775  22.656  26.679 -0.2200  0.0824 -0.1393
50431W        W51295  21.728  24.976  27.065 -0.2477  0.1926  0.2799
50432W        W51296  20.909  25.886   0.815 -0.0748 -0.0128  0.0534
50433W        W51297  21.103  25.630  29.083  0.0742 -0.1070 -0.0756
50434W        W51298  22.835  26.319  27.381  0.0787 -0.0572  0.3139
50435W        W51299  20.384  24.176  25.246  0.2343  0.0702  0.0467
50436W        W51300  22.095  24.799  25.286  0.1054  0.1571  0.1214
50437W        W51301  23.216  24.476  24.513  0.3797  0.1497 -0.0005
50438W        W51302  23.366  24.912  26.754 -0.2303 -0.1455  0.1319
50439W        W51303  21.607  24.939  25.294  0.0385 -0.2114  0.3034
50440W        W51304  22.785  24.270   1.292  0.2312  0.4602  0.2969
50441W        W51305  19.999  25.120  26.400  0.0597 -0.0051 -0.0799
50442W        W51306  19.139  22.519  28.010 -0.0266 -0.1785  0.3577
50443W        W51307  19.635  24.356   0.753  0.1776  0.1555 -0.1522
50444W        W51308  23.595  24.828   2.673 -0.3334 -0.2281  0.2376
50445W        W51309  21.990  21.644  27.653 -0.0639 -0.2470  0.0332
50446W        W51310  18.571  23.672   0.610  0.2196  0.0636  0.0135
50447W        W51311  17.256  25.392  28.255  0.2569 -0.1112 -0.2104
50448W        W51312  21.848  26.066  24.379  0.4318 -0.1009 -0.0794
50449W        W51313  17.340  23.704  26.467 -0.0213 -0.0547  0.2286
50450W        W51314  23.862  21.777  27.954  0.4830 -0.2958 -0.2750
50451W        W51315  18.954  25.952   3.097 -0.2795  0.1902 -0.1254
50452W        W51316  20.220  27.393  28.338 -0.0679  0.1712 -0.0146
50453W        W51317  20.138  24.966  23.991 -0.2251  0.1406  0.0475
50454W        W51318  17.769  24.765  27.266 -0.1273  0.2821 -0.1315
50455W        W51319  16.644  27.219  28.210  0.2529 -0.1000  0.1021
50456W        W51320  22.154  25.174  27.680 -0.0094 -0.4376  0.3132
50457W        W51321  20.058  24.385  27.465 -0.0796 -0.0307  0.2923
50458W        W51322  17.621  26.068   1.107  0.0088 -0.2813  0.0441
50459W        W51323  22.713  23.170   1.227 -0.2701  0.0079 -0.2515
50460W        W51324  20.072  23.317  24.963  0.0252  0.4366 -0.0663
50461W        W51325  18.340  26.476  25.544 -0.1091 -0.3962  0.0862
50462W        W51326  19.350  23.503   0.269  0.1184 -0.0155 -0.0820
50463W        W51327  20.749  25.362  25.147 -0.0414  0.2926  0.1831
50464W        W51328  20.068  26.790  29.081  0.1182 -0.1806  0.0565
50465W        W51329  18.991  23.990  28.065  0.0823 -0.1564  0.1754
50466W        W51330  19.973  23.769  24.633 -0.2437  0.2692  0.1116
50467W        W51331  17.824   0.603   2.939 -0.0978  0.0985  0.0665
50468W        W51332  19.112   0.062   3.430  0.2417  0.1846 -0.1177
50469W        W51333  19.938  28.123   1.064 -0.1102  0.1333 -0.0937
50470W        W51334  21.439  28.153   1.570  0.1490 -0.0733 -0.2260
50471W        W51335  18.818   2.370   1.911 -0.3787 -0.1613 -0.2065
50472W        W51336  22.987  24.711   2.170  0.0139  0.0577 -0.1989
50473W        W51337  20.502   0.191   1.562  0.3621 -0.1824  0.1995
50474W        W51338  19.933  25.776   1.157  0.2200 -0.1537 -0.1039
50475W        W51339  19.205   1.876   3.639 -0.0875  0.2657  0.0214
50476W        W51340  18.417  25.083   1.773 -0.2284 -0.0338 -0.0765
50477W        W51341  17.069  25.072   2.986 -0.1356  0.3337 -0.1343
50478W        W51342  24.065  24.933   3.783 -0.2198 -0.2726  0.0779
50479W        W51343  20.305  25.432   1.403  0.0471 -0.2643  0.0879
50480W        W51344  21.503  25.953   2.200  0.3728  0.1163 -0.1522
50481W        W51345  17.604  26.003   3.637 -0.0383 -0.1313 -0.1607
50482W        W51346  16.024   0.519   4.906 -0.1266  0.0152 -0.2570
50483W        W51347  19.641  27.995  28.855 -0.2338  0.2587 -0.0555
50484W        W51348  18.054  26.236   1.215  0.4183 -0.0204  0.0409
50485W        W51349  20.345  25.878   3.597  0.0009 -0.2060  0.1903
50486W        W51350  21.132  24.368   1.957  0.1271  0.3799 -0.2209
50487W        W51351  20.766  28.300   1.493 -0.0143 -0.2450 -0.0637
50488W        W51352  17.307  26.626   2.746 -0.1096 -0.1878 -0.4518
50489W        W51353  18.656  26.771   3.709 -0.1514  0.0506 -0.0733
50490W        W51354  15.572  26.880   0.585 -0.4248  0.0595  0.0736
50491W        W51355  19.594  24.821   0.711 -0.1119 -0.1176 -0.1981
50492W        W51356  20.615  27.265   2.351 -0.1376  0.1981  0.1010
50493W        W51357  21.187  27.793   2.915  0.0886 -0.0523 -0.0556
50494W        W51358  16.870  27.692   2.409  0.1477 -0.1863 -0.3660
50495W        W51359  18.802  28.938   0.958 -0.0764 -0.0841  0.0265
50496W        W51360  21.517  26.031   4.612 -0.1089  0.2310  0.0102
50497W        W51361  20.000   0.179   0.268 -0.0388 -0.0198  0.2949
50498W        W51362  21.202  27.408   2.350 -0.0875  0.1427 -0.1394
50499W        W51363  19.141  26.530   2.314  0.1343  0.1987 -0.2481
50500W        W51364  21.012  26.487   6.297 -0.0257 -0.1133 -0.1192
50501W        W51365  17.097  27.266   1.163 -0.4801  0.2421 -0.0904
50502W        W51366  18.998   1.582   3.985 -0.0281  0.2581  0.0051
50503W        W51367  18.213  25.942   2.235  0.2339  0.0309 -0.3678
50504W        W51368  18.033  26.790   1.282  0.1182 -0.0931  0.1173
50505W        W51369  22.170  26.814   1.659 -0.0089 -0.0769 -0.0327
50506W        W51370  20.867  23.284   2.596 -0.1045  0.3276 -0.0104
50507W        W51371  21.743  25.875  27.991  0.3549  0.1818 -0.0939
50508W        W51372  24.855  25.837   1.563 -0.0238  0.0468  0.1490
50509W        W51373  18.495  28.645   2.201 -0.0761  0.2824 -0.2615
50510W        W51374  21.713  26.499   2.327 -0.2386  0.2866 -0.0174
50511W        W51375  18.004   1.809   1.399  0.0476  0.1358 -0.1069
50512W        W51376  21.011  27.135   0.875 -0.1830  0.3078  0.1225
50513W        W51377  21.662  27.429   2.201 -0.4438 -0.2673  0.2656
50514W        W51378  21.976  25.978   1.861 -0.0983 -0.1502  0.1764
50515W        W51379  22.831  28.035   1.486 -0.0142 -0.0544 -0.2068
50516W        W51380  22.172  25.771  28.284  0.2204 -0.2873  0.0129
50517W        W51381  20.434  24.477   2.477 -0.0142  0.0005 -0.1300
50518W        W51382  17.843  25.246   1.508 -0.1441  0.2053  0.2096
50519W        W51383  20.062  27.566   4.994 -0.0095  0.1591 -0.0419
50520W        W51384  19.570  26.481   2.073  0.0237 -0.0626  0.0973
50521W        W51385  20.838  25.136   1.985  0.0712  0.2932  0.1808
50522W        W51386  18.168  27.481   0.763  0.1970 -0.0398 -0.0217
50523W        W51387  20.044  23.829   1.039 -0.1701 -0.2176  0.2059
50524W        W51388  21.326  28.785   0.428 -0.1047 -0.1222 -0.3223
50525W        W51389  17.274   1.024   2.399  0.0716  0.1160  0.2180
50526W        W51390  22.090  26.316   0.890 -0.0565  0.0614  0.0317
50527W        W51391  22.790  25.039  28.786  0.0868  0.0878  0.1927
50528W        W51392  17.457   0.060   3.649 -0.1903  0.0475 -0.1439
50529W        W51393  17.842  26.729   5.174 -0.2814 -0.1304 -0.0983
50530W        W51394  20.987  27.359   3.233 -0.1231  0.0363  0.1105
50531W        W51395  21.405  24.137   0.155 -0.0348 -0.2535  0.2919
50532W        W51396  21.443  22.901  29.141  0.3598 -0.1785  0.1021
50533W        W51397  21.461  25.324   1.095 -0.0792  0.0802  0.0440
50534W        W51398  22.840  24.442   2.595 -0.2368 -0.1587 -0.2114
50535W        W51399  17.496  28.684   0.959  0.0159  0.0316 -0.2822
50536W        W51400  19.621   1.379   2.757 -0.1235  0.1484 -0.0447
50537W        W51401  20.122  27.120   1.645  0.0744  0.0537 -0.1489
50538W        W51402  22.011  23.719  27.185  0.1250 -0.2094  0.0362
50539W        W51403  18.667   0.677   0.779  0.3362 -0.1847 -0.3507
50540W        W51404  20.388  26.441   0.042  0.0939 -0.2859  0.0126
50541W        W51405  22.523  28.969   3.344 -0.0168  0.0575  0.1837
50542W        W51406  18.644  26.657   4.174 -0.3285 -0.1446  0.1038
50543W        W51407  16.127  27.261   3.032 -0.3865  0.0409 -0.1917
50544W        W51408  17.978  28.493   2.135  0.1518  0.0790 -0.3633
50545W        W51409  18.648  24.916  26.404  0.0132  0.2018 -0.3009
50546W        W51410  19.022  25.898   1.585 -0.0408 -0.0954 -0.0103
50547W        W51411  19.924  25.557   1.759  0.1612 -0.1279  0.1048
50548W        W51412  20.421  24.772   1.794  0.1315  0.1907 -0.1537
50549W        W51413  18.957  23.773   1.010  0.1071  0.1610  0.0377
50550W        W51414  20.834  25.824  27.103  0.0494  0.1082  0.0057
50551W        W51415  22.048  24.904   3.984 -0.2279 -0.1079 -0.0474
50552W        W51416  20.968  24.577   0.828 -0.0677  0.0410  0.1743
50553W        W51417  21.104  27.139   3.629 -0.1813  0.0631 -0.1863
50554W        W51418  17.535  25.502   4.590 -0.0948  0.2460  0.1801
50555W        W51419  19.962  27.244   2.190 -0.1188  0.2863  0.0782
50556W        W51420  20.162  26.631   1.761  0.0246  0.3152 -0.2648
50557W        W51421  23.074  25.830   1.490  0.1293  0.1432 -0.2475
50558W        W51422  20.939  27.524   1.862 -0.2898 -0.1153  0.1260
50559W        W51423  18.425   1.688   2.378  0.2167  0.0567 -0.2436
50560W        W51424  20.977  24.451   3.170  0.0955  0.1318  0.0155
50561W        W51425  18.624  26.173   3.874  0.2768 -0.1183  0.2622
50562W        W51426  21.918  25.650   0.790  0.1687 -0.1696  0.0944
50563W        W51427  21.913  28.948  27.140 -0.1938  0.0837 -0.1969
50564W        W51428  17.364   0.610   2.754 -0.2921 -0.0663 -0.0613
50565W        W51429  16.906  23.922   0.301 -0.3487  0.0926  0.3349
50566W        W51430  22.017  23.354   1.257 -0.3596 -0.0743  0.3400
50567W        W51431  23.265   2.525   0.388  0.0578 -0.2275  0.0413
50568W        W51432  15.313   0.035   4.058  0.0256  0.0750 -0.0228
50569W        W51433  20.341  28.713   0.129 -0.3101  0.1346  0.3208
50570W        W51434  21.862  28.239   0.740 -0.1095 -0.1874 -0.1467
50571W        W51435  22.528  23.492   0.521 -0.0133  0.0078 -0.1658
50572W        W51436  20.861  28.653   0.462 -0.0877 -0.0998 -0.0489
50573W        W51437  18.430  28.654   1.164  0.1448 -0.1271 -0.2142
50574W        W51438  19.789  26.143   2.354 -0.0199 -0.0290  0.0885
50575W        W51439  18.679  26.682   2.490 -0.1236  0.0262 -0.0310
50576W        W51440  18.498  25.638   1.605  0.2115  0.2036  0.2019
50577W        W51441  18.848  27.314   3.617  0.0905 -0.0041  0.0667
50578W        W51442  21.686  28.473  28.466  0.1271  0.0985 -0.0662
50579W        W51443  19.468  25.175   1.976  0.0005  0.2853 -0.0991
50580W        W51444  19.774  26.603   1.431 -0.1674 -0.4367 -0.1858
50581W        W51445  20.121   0.076  28.138 -0.0005  0.0204 -0.2034
50582W        W51446  17.999  25.975   2.872  0.2677 -0.0566  0.3008
50583W        W51447  21.575  23.796   3.149  0.2556  0.0756  0.0814
50584W        W51448  21.099  25.598   1.985 -0.1470  0.1562  0.1093
50585W        W51449  23.808  25.766   2.770  0.0600 -0.3657  0.0766
50586W        W51450  22.648  25.496   0.477 -0.1420 -0.1930 -0.2188
50587W        W51451  22.840  24.691  29.132 -0.2767  0.0035 -0.0110
50588W        W51452  21.266  28.699  28.553  0.1033 -0.1661  0.3884
50589W        W51453  19.598  28.316   1.904  0.0356  0.2891  0.0819
50590W        W51454  18.613  26.621   3.228  0.1074 -0.0212 -0.0984
50591W        W51455  21.472  25.864   1.682  0.0592 -0.0355 -0.1465
50592W        W51456  20.938  27.147   4.049 -0.1038 -0.0335  0.2279
50593W        W51457  18.385   0.747   2.733  0.3101  0.2166 -0.0958
50594W        W51458  21.648  28.075   0.184 -0.0112 -0.6078  0.1254
50595W        W51459  21.238  29.054   2.147 -0.1159  0.0751 -0.2044
50596W        W51460  19.320   1.615   2.420 -0.2050  0.1474 -0.0446
50597W        W51461  19.664  29.016   1.511 -0.1552 -0.2296 -0.2565
50598W        W51462  19.855  25.062   3.353  0.0734 -0.0134 -0.0873
50599W        W51463  19.546   2.308   2.495  0.4577 -0.1369 -0.3658
50600W        W51464  21.161  27.623   1.013 -0.0381 -0.0088  0.0853
50601W        W51465  21.381  27.251   1.849 -0.1265  0.2984 -0.2433
50602W        W51466  18.438  27.084   3.396 -0.0596  0.0634 -0.1801
50603W        W51467  23.090  25.428  28.557 -0.0633 -0.1358 -0.0414
50604W        W51468  21.906  27.084   0.153 -0.2069 -0.1123  0.1547
50605W        W51469  17.536  25.458   3.542  0.1435  0.0339 -0.1930
50606W        W51470  19.390  26.232   1.613 -0.0076  0.0009 -0.2233
50607W        W51471  18.947  27.683   0.803  0.0918  0.3490  0.1584
50608W        W51472  20.965  22.943   1.739 -0.3123  0.0272 -0.0371
50609W        W51473  15.481   1.079  28.990  0.1350  0.0069 -0.0895
50610W        W51474  17.903   1.449   4.083  0.1116 -0.0666 -0.1103
50611W        W51475  18.544  26.998   2.842 -0.1124  0.0292 -0.0925
50612W        W51476  20.783  25.024   0.993 -0.1112  0.1085  0.2108
50613W        W51477  21.080  26.349   0.999  0.0979  0.1441 -0.0270
50614W        W51478  18.841  28.293   0.086  0.1475 -0.1606 -0.0777
50615W        W51479  18.727  27.883   2.020  0.2145  0.1560 -0.2190
50616W        W51480  20.625  27.502   1.015  0.0704 -0.1555 -0.0751
50617W        W51481  20.140  28.949   1.690  0.0094  0.1218  0.1231
50618W        W51482  16.763  25.195   0.688 -0.0162 -0.1934 -0.1260
50619W        W51483  17.475  26.768   0.781 -0.1224  0.1365 -0.1389
50620W        W51484  17.137  25.557   0.424  0.1891  0.1552 -0.1247
50621W        W51485  21.071  25.520   2.841  0.0594 -0.0570  0.1678
50622W        W51486  20.763  23.937   2.802 -0.0094 -0.1287 -0.2260
50623W        W51487  17.421  27.504   2.422  0.1611  0.2227  0.1263
50624W        W51488  20.412  24.694   0.695 -0.0210 -0.1290 -0.3629
50625W        W51489  21.307  24.957   0.788  0.0848 -0.1976  0.0062
50626W        W51490  18.018  25.928   0.783 -0.3728 -0.2833 -0.1359
50627W        W51491  21.326  24.297  28.727 -0.0250 -0.2388 -0.0817
50628W        W51492  19.279  27.623   2.561 -0.0817  0.2062  0.2432
50629W        W51493  20.555  27.699   1.461 -0.2083  0.0031 -0.2528
50630W        W51494  20.814  25.606   1.608 -0.2012 -0.0789 -0.3927
50631W        W51495  21.417  24.013   5.966  0.0245  0.2933  0.1833
50632W        W51496  20.314  26.014   3.103 -0.2289 -0.2009 -0.1299
50633W        W51497  17.559  25.790   2.634 -0.2333  0.1822  0.0116
50634W        W51498  20.203   1.195   1.897  0.0867  0.1391 -0.1522
50635W        W51499  18.232  27.817   1.690 -0.2238  0.1889 -0.0116
50636W        W51500  19.061   0.736   1.067 -0.0315 -0.1648 -0.3318
50637W        W51501  21.173  27.613   3.877 -0.2608 -0.0359 -0.0670
50638W        W51502  22.198  24.921   2.867 -0.0537 -0.0834 -0.2347
50639W        W51503  18.190  26.602   2.986  0.0425  0.0162 -0.4158
50640W        W51504  22.080   0.589  27.037  0.0284  0.0431 -0.1248
50641W        W51505  21.204  25.676   1.303  0.0178  0.1223  0.0712
50642W        W51506  20.963  27.861  28.310 -0.1646  0.3026  0.1788
50643W        W51507  16.864   0.609   0.646 -0.1176 -0.1176 -0.0315
50644W        W51508  16.701  27.921   2.843 -0.1528 -0.0344 -0.0760
50645W        W51509  20.053  28.192   2.085  0.0040 -0.0378  0.2387
50646W        W51510  19.004  25.670   2.474  0.0837  0.1786  0.1765
50647W        W51511  21.395  28.947   1.083  0.4369  0.1681 -0.1649
50648W        W51512  18.888  27.910   2.616 -0.0058  0.1423 -0.2349
50649W        W51513  19.283  26.199  28.901  0.2189 -0.1380  0.0411
50650W        W51514  18.579  25.027   1.257  0.0267 -0.3778 -0.1460
50651W        W51515  18.705  27.631  28.342 -0.0234 -0.3011  0.2530
50652W        W51516  21.122  23.914   3.312 -0.2728  0.0630  0.1398
50653W        W51517  19.908  27.636  29.122  0.0472  0.0592  0.3223
50654W        W51518  18.509  26.016   0.845 -0.0943  0.2352 -0.1571
50655W        W51519  18.641  28.606   3.044  0.1743 -0.1790  0.0111
50656W        W51520  19.455  27.703   0.174 -0.1202  0.1770 -0.0020
50657W        W51521  19.026  28.468   0.897 -0.2426  0.2067 -0.1111
50658W        W51522  19.538   0.528   0.123 -0.1075 -0.1197  0.0666
50659W        W51523  18.800   1.106   3.190 -0.2434  0.3217 -0.0917
50660W        W51524  20.486  27.675   6.313 -0.1036 -0.3695 -0.1959
50661W        W51525  19.215  28.422   2.423 -0.2638  0.1778 -0.3499
50662W        W51526  20.631  24.311   1.824 -0.0223 -0.1267  0.0343
50663W        W51527  22.580  22.227   0.520 -0.0449  0.0236  0.0441
50664W        W51528  19.997  26.622   2.258  0.1271 -0.1157  0.3322
50665W        W51529  20.120  25.224   2.739  0.0546  0.0149  0.0537
50666W        W51530  22.573  24.984   2.507  0.0933  0.0251  0.0208
50667W        W51531  20.101  25.048   0.514  0.0980  0.1062  0.0602
50668W        W51532  18.902  25.855   3.571 -0.1862  0.4094  0.1139
50669W        W51533  20.837  25.982   1.296 -0.0705 -0.2457 -0.0578
50670W        W51534  18.765  22.711   0.151  0.1747  0.1513 -0.0746
50671W        W51535  21.812  25.217   4.384  0.0130 -0.0242  0.0555
50672W        W51536  19.396  26.496   0.737  0.1585 -0.1366 -0.1617
50673W        W51537  19.535  24.520   3.310  0.3707  0.2586  0.0896
50674W        W51538  22.127  24.746  27.364 -0.1528 -0.1289  0.4949
50675W        W51539  20.127   0.555  29.005 -0.0161  0.2178  0.1958
50676W        W51540  17.833   0.420  29.026  0.0962  0.5571 -0.0828
50677W        W51541  15.958  27.046   2.628  0.0789 -0.0924  0.0981
50678W        W51542  18.607  24.772   4.225  0.0521 -0.0015  0.0087
50679W        W51543  22.083  24.782   1.673  0.2573 -0.3839  0.0329
50680W        W51544  19.282  25.023   4.910 -0.0525 -0.1298  0.0585
50681W        W51545  20.259  28.609   2.441 -0.1412  0.1739 -0.0548
50682W        W51546  22.226  28.008  27.842  0.1028  0.0986  0.1749
50683W        W51547  19.876  26.107   1.553  0.1637  0.0004 -0.2252
50684W        W51548  20.159  28.854  27.758 -0.0715  0.1142  0.1123
50685W        W51549  19.103  26.650   2.862  0.1320 -0.0898  0.0156
50686W        W51550  18.815   1.276   2.526 -0.1266 -0.0527  0.0697
50687W        W51551  19.711  25.912   3.266 -0.1909 -0.1507  0.1387
50688W        W51552  21.790  25.662   1.405 -0.0387  0.1205  0.1951
50689W        W51553  20.082  25.739   4.962  0.2109 -0.1915 -0.1181
50690W        W51554  18.811  27.470  27.861 -0.1579  0.2222 -0.0560
50691W        W51555  22.068  25.729   0.241  0.2072  0.1835 -0.0305
50692W        W51556  18.949  27.077   3.137 -0.0906  0.0869 -0.0034
50693W        W51557  17.680   1.079   2.767  0.0018 -0.0850  0.0406
50694W        W51558  24.856  26.810   2.687  0.0584  0.0247 -0.3036
50695W        W51559  20.422  27.986   1.075 -0.0275 -0.2298 -0.2026
50696W        W51560  22.327  27.404   2.919  0.0467 -0.0359 -0.2950
50697W        W51561  21.799  24.489   1.985  0.1503 -0.2228 -0.2739
50698W        W51562  18.615  25.663   4.001  0.0907  0.1186  0.3629
50699W        W51563  19.745  27.014   3.530 -0.0756  0.0799 -0.3939
50700W        W51564  21.954  26.648  27.886  0.1651  0.1430  0.2131
50701W        W51565  21.206  25.084  28.484  0.1656  0.0681  0.1423
50702W        W51566  20.325  28.493   1.252 -0.2424 -0.2141 -0.0458
50703W        W51567  21.518  26.755   0.228 -0.0417 -0.1056 -0.0303
50704W        W51568  21.277  24.051   5.455 -0.0768  0.2434  0.0427
50705W        W51569  21.850  24.713  28.904 -0.1279  0.1390  0.0406
50706W        W51570  20.029   0.397   1.932  0.1274  0.0229 -0.0561
50707W        W51571  21.506  27.622   1.409 -0.3192 -0.1905  0.3026
50708W        W51572  19.277  28.571   4.216  0.1035  0.0403 -0.0970
50709W        W51573  16.763  24.741   1.926  0.1738 -0.1976  0.1233
50710W        W51574  17.549  26.210   0.610  0.0190 -0.1951 -0.1283
50711W        W51575  20.570  27.000   2.916  0.1962  0.2650 -0.2817
50712W        W51576  20.535  27.944   1.900  0.0876  0.0890 -0.2264
50713W        W51577  19.339  25.129   1.439 -0.2081 -0.2057  0.0657
50714W        W51578  15.506  27.700   3.363  0.1142  0.0332 -0.1619
50715W        W51579  20.614   1.076   1.750 -0.2747  0.2348  0.1673
50716W        W51580  21.270  25.297   0.310  0.0163 -0.2196 -0.1542
50717W        W51581  18.648   0.218  28.565  0.6665  0.0451 -0.0767
50718W        W51582  20.974  27.039   0.360  0.0044 -0.0956 -0.1144
50719W        W51583  20.744   0.047   2.522 -0.3638 -0.2369 -0.2656
50720W        W51584  21.149  27.238   1.383  0.4387 -0.6130 -0.0679
50721W        W51585  18.739  27.013   1.896 -0.0118 -0.0599 -0.2599
50722W        W51586  20.714   1.443   3.515 -0.1120  0.0192  0.0745
50723W        W51587  22.142   0.401   3.220 -0.6071 -0.1776 -0.0156
50724W        W51588  20.711  23.533   3.189  0.2699  0.0338  0.2670
50725W        W51589  19.351   0.018   3.005 -0.0682 -0.0404  0.0763
50726W        W51590  22.917  25.304   2.233  0.0153  0.0347 -0.1366
50727W        W51591  21.290  26.295   1.490  0.1493 -0.0215  0.1111
50728W        W51592  20.816  24.182   2.296  0.0600  0.1744  0.2014
50729W        W51593  20.801   0.838   3.909  0.0884  0.0377  0.0282
50730W        W51594  20.378  25.294   1.895 -0.0923 -0.3110  0.2239
50731W        W51595  17.774  28.296   0.283 -0.3577  0.2786 -0.0039
50732W        W51596  17.861  28.877   2.529  0.0192  0.0201 -0.1889
50733W        W51597  20.418  26.589  27.499 -0.3562  0.0111  0.1772
50734W        W51598  22.135  28.890  29.086 -0.0369  0.2589 -0.1087
50735W        W51599  20.392  22.701   5.051  0.1632  0.1224  0.0924
50736W        W51600  20.410  27.635  29.002  0.1309  0.0596 -0.0427
50737W        W51601  18.662   0.195  27.536 -0.1554  0.1070  0.1117
50738W        W51602  19.778  26.162   2.849  0.0891  0.2805  0.1957
50739W        W51603  21.220  28.044   0.612 -0.0440  0.3988 -0.1627
50740W        W51604  21.743  24.861   3.106 -0.2780  0.0823 -0.0769
50741W        W51605  19.188  27.094   4.422  0.0744  0.1335 -0.0449
50742W        W51606  21.429  26.704   1.145  0.0215 -0.1070 -0.0675
50743W        W51607  18.139  25.577   2.545  0.2442  0.1754  0.1843
50744W        W51608  19.559  26.491   3.610  0.1526 -0.1435  0.1069
50745W        W51609  17.120  26.726  28.963 -0.0976 -0.0681 -0.0396
50746W        W51610  18.584   2.109   2.256 -0.0184  0.1685 -0.0773
50747W        W51611  19.617  25.917   1.924 -0.1672 -0.2816  0.1258
50748W        W51612  16.801  27.747  28.922 -0.1035 -0.0687  0.3742
50749W        W51613  17.175  27.701   2.845 -0.0979  0.1654  0.0051
50750W        W51614  19.524  28.849  28.735  0.1602 -0.3338  0.2501
50751W        W51615  21.834  27.785  28.019  0.0026  0.0262 -0.0904
50752W        W51616  24.304  24.444   3.004  0.0506  0.1613 -0.0201
50753W        W51617  20.895   0.055   1.883  0.1185 -0.0678 -0.0267
50754W        W51618  16.637  27.448   4.022 -0.1059 -0.2963 -0.0946
50755W        W51619  22.646  27.727  27.976 -0.0571 -0.1814  0.0492
50756W        W51620  21.708  27.529   0.229 -0.1018 -0.2299 -0.1047
50757W        W51621  18.817  26.420   0.004  0.1437  0.2112 -0.1219
50758W        W51622  20.115  24.196  26.971  0.0319 -0.0026  0.0132
50759W        W51623  20.760  24.569   0.316  0.0384 -0.0663 -0.0844
50760W        W51624  19.290  25.625   3.287 -0.0201 -0.1251 -0.1201
50761W        W51625  17.560  24.637   1.002  0.0688  0.2495 -0.0336
50762W        W51626  17.016  29.145   2.247  0.1943  0.2214 -0.2816
50763W        W51627  22.474  23.751   1.639 -0.3166  0.1876  0.0775
50764W        W51628  19.917  28.963  29.065  0.0696  0.1508  0.0733
50765W        W51629  21.742  26.811   1.922  0.1177 -0.0782 -0.0911
50766W        W51630  18.354   1.686   1.741  0.0340  0.1079  0.2353
50767W        W51631  17.889   2.853   0.131  0.0221 -0.0387  0.0751
50768W        W51632  20.038  26.852   6.278 -0.2182  0.2609 -0.2245
50769W        W51633  20.795   1.788   2.359 -0.1110 -0.1044 -0.2543
50770W        W51634  23.430  26.777   3.582  0.0001 -0.0359  0.1076
50771W        W51635  19.536   1.782   1.272 -0.0153 -0.0925  0.0777
50772W        W51636  21.926  25.396   2.861 -0.1858 -0.1892 -0.0892
50773W        W51637  22.016   0.179   4.073 -0.0614 -0.1290  0.0217
50774W        W51638  17.028  21.602  28.442  0.0536 -0.2026  0.2635
50775W        W51639  23.442  26.288  26.986 -0.1278  0.2613 -0.2105
50776W        W51640  18.383  26.028   4.880 -0.1422 -0.0569  0.0536
50777W        W51641  20.513  23.656   1.155 -0.0871  0.3867 -0.2280
50778W        W51642  20.817  24.899   3.578 -0.2066 -0.1843  0.2825
50779W        W51643  22.278  26.033   2.277 -0.1009 -0.0250  0.0443
50780W        W51644  19.344   0.034   0.013 -0.0663 -0.1044  0.1017
50781W        W51645  19.073   3.112   1.340 -0.2643 -0.0991  0.0826
50782W        W51646  17.842  28.389   3.842  0.0850 -0.0839  0.2044
50783W        W51647  17.935  24.106   0.129  0.1211 -0.0127 -0.0444
50784W        W51648  21.682  24.570   1.175 -0.1180 -0.0042 -0.3747
50785W        W51649  20.404   1.017   3.583  0.1943  0.0103  0.3017
50786W        W51650  18.242  26.133  28.847  0.2201  0.1057  0.0556
50787W        W51651  19.776  28.930   2.570 -0.3045  0.0530  0.3036
50788W        W51652  20.172  27.610   0.757 -0.1591  0.1200  0.2445
50789W        W51653  18.427  29.147   1.309 -0.0728 -0.2378 -0.1112
50790W        W51654  20.711  27.971   3.786 -0.0234 -0.1845 -0.2411
50791W        W51655  18.650  26.856   0.041 -0.0587  0.1408  0.2329
50792W        W51656  18.961  29.111   3.929  0.0651 -0.0724  0.1479
50793W        W51657  22.180  24.370   0.741  0.0546 -0.0827  0.3811
50794W        W51658  20.807   0.119  28.834  0.2020 -0.1563  0.3799
50795W        W51659  20.206  26.184   2.016  0.1817  0.1843  0.0225
50796W        W51660  18.833  25.491   3.077  0.2740 -0.1109  0.1752
50797W        W51661  21.332  23.476   2.054 -0.1812 -0.0764  0.0382
50798W        W51662  21.733  25.106  28.366  0.0598 -0.2070 -0.2132
50799W        W51663  21.019  28.721   2.987 -0.0012  0.0642 -0.0111
50800W        W51664  19.431   2.811   2.588 -0.2187 -0.1191 -0.0057
50801W        W51665  19.524  28.702   0.238  0.3040  0.2304 -0.0115
50802W        W51666  20.215  28.341   0.714  0.0612  0.0370 -0.0334
50803W        W51667  17.210  28.934   1.324  0.1864  0.1747 -0.0914
50804W        W51668  21.652  27.731   3.760 -0.0378  0.0723 -0.3310
50805W        W51669  20.233  27.215   1.149  0.0678  0.0040  0.0021
50806W        W51670  19.271  24.369   0.320  0.6924  0.1563  0.0741
50807W        W51671  18.512   1.369   2.886  0.0165  0.2740  0.0931
50808W        W51672  21.357  24.381   2.450  0.0982 -0.1350 -0.0556
50809W        W51673  21.852  23.694   2.241 -0.2695  0.0038 -0.0239
50810W        W51674  18.002   0.039   1.612 -0.0235 -0.2241  0.0710
50811W        W51675  20.609  25.843   2.742  0.2079  0.1308 -0.2173
50812W        W51676  17.444  27.521   4.672 -0.1297 -0.1612  0.0481
50813W        W51677  17.215  27.867   1.708 -0.2367 -0.0584  0.2218
50814W        W51678  18.408  23.824   1.356  0.1687 -0.0579 -0.1631
50815W        W51679  19.295  28.035   0.585 -0.0836  0.3764 -0.1444
50816W        W51680  18.003  27.374   1.752 -0.4109  0.2090  0.0358
50817W        W51681  19.705  26.619   2.668 -0.2571  0.0814 -0.0416
50818W        W51682  19.577  25.436  28.999 -0.3136 -0.0147 -0.1358
50819W        W51683  22.385  27.462   0.030  0.0566 -0.0949  0.0291
50820W        W51684  19.420  27.201   2.901 -0.1268 -0.0607 -0.0321
50821W        W51685  21.342  26.340   0.408 -0.0148  0.1075 -0.2902
50822W        W51686  21.270  25.776   0.472  0.0466  0.2309  0.2029
50823W        W51687  17.772  28.740  28.570  0.3352 -0.2911 -0.0300
50824W        W51688  18.955  26.467   5.387 -0.2055  0.4939 -0.1520
50825W        W51689  16.716  23.333   5.391  0.0546  0.1616 -0.1024
50826W        W51690  19.040  27.559   1.752  0.3535  0.0029 -0.3219
50827W        W51691  19.399   1.201  28.411  0.0701  0.2771 -0.3331
50828W        W51692  20.783  27.784   2.369  0.0587  0.0508  0.1083
50829W        W51693  17.485   0.141   2.413 -0.0767  0.3900 -0.0201
50830W        W51694  22.449  27.244   1.663  0.0464  0.0501  0.3947
50831W        W51695  17.782  27.799   1.487 -0.2422 -0.2636 -0.2832
50832W        W51696  17.407  28.182   2.916 -0.1366  0.4375 -0.2505
50833W        W51697  20.397   0.781   0.724 -0.3620  0.0476 -0.1983
50834W        W51698  20.599  27.044   1.582 -0.0362  0.0008 -0.1206
50835W        W51699  21.758  24.140   1.029 -0.1845 -0.2341 -0.3376
50836W        W51700  21.348  26.462  28.972  0.1724 -0.1696 -0.2115
50837W        W51701  18.496  26.481   0.999  0.0038  0.0162 -0.0907
50838W        W51702  19.598   0.065  28.343 -0.0007  0.0636  0.0842
50839W        W51703  19.675  27.755  27.758  0.1642 -0.2720 -0.0187
50840W        W51704  19.187  27.938   2.166 -0.0791  0.1391  0.5184
50841W        W51705  20.720  28.277  28.776 -0.0320  0.1323  0.0366
50842W        W51706  22.109  25.128   3.480  0.0450 -0.1513 -0.2029
50843W        W51707  18.482  27.217   2.405 -0.0328  0.0923 -0.1672
50844W        W51708  19.682  27.900   2.316 -0.1979 -0.1446 -0.1652
50845W        W51709  19.854  25.999   3.736 -0.1554  0.1132  0.0648
50846W        W51710  19.437  28.674   2.819 -0.3321 -0.0058  0.0558
50847W        W51711  19.190  26.326  27.879 -0.0362 -0.1996 -0.0123
50848W        W51712  17.329  28.165   3.829 -0.1886  0.0545 -0.3055
50849W        W51713  16.409  26.708   2.310 -0.1381 -0.2890 -0.0074
50850W        W51714  21.521  27.249   1.007 -0.5062 -0.0817  0.0417
50851W        W51715  18.953   1.204   1.253 -0.0112  0.1231  0.2761
50852W        W51716  21.089  23.922   1.737  0.1801  0.1686 -0.3507
50853W        W51717  18.154   0.233   0.216  0.0763  0.0481  0.2650
50854W        W51718  20.641  28.288   2.259  0.0032 -0.0731 -0.1219
50855W        W51719  18.829  26.395   1.764 -0.2208 -0.1650 -0.1647
50856W        W51720  22.649   1.280   2.576  0.1628 -0.0790 -0.0529
50857W        W51721  19.667  26.342   4.575 -0.2881  0.0327  0.1039
50858W        W51722  19.329  28.700   1.695 -0.0955 -0.1265  0.0248
50859W        W51723  20.442  27.173   0.708  0.1208 -0.1026 -0.2924
50860W        W51724  21.767  28.832   0.726  0.0865 -0.2625  0.0577
50861W        W51725  14.959  28.288   6.131  0.0344 -0.2027  0.0728
50862W        W51726  18.908  27.480   2.254 -0.0676 -0.5214 -0.1381
50863W        W51727  19.208  28.031   1.675 -0.1587 -0.1525 -0.1182
50864W        W51728  17.720   0.786   2.357  0.1864 -0.0972  0.1244
50865W        W51729  19.473  28.211   0.171  0.0114  0.0099 -0.1339
50866W        W51730  19.260  28.799   1.224  0.2239  0.1455 -0.0809
50867W        W51731  18.041  28.675   8.612 -0.1253  0.1733  0.1631
50868W        W51732  19.964  28.021   4.215  0.1729  0.1848 -0.2100
50869W        W51733  21.309  26.237   3.623  0.2081  0.1806  0.1496
50870W        W51734  21.729   0.208   5.283 -0.2877 -0.0236 -0.0061
50871W        W51735  19.393   0.802   1.465 -0.0009 -0.3766  0.2642
50872W        W51736  19.383  26.834   4.782  0.1061 -0.2185 -0.1538
50873W        W51737  19.552  24.761   4.109  0.1499  0.0358  0.2074
50874W        W51738  21.968  27.767   6.418 -0.2741  0.0471 -0.2026
50875W        W51739  19.540   0.071   6.728  0.1441  0.0464  0.1821
50876W        W51740  17.667  27.598   6.293 -0.0347  0.1274 -0.0026
50877W        W51741  18.273  25.282   8.578 -0.1801 -0.0515  0.0062
50878W        W51742  21.568  24.812   5.573 -0.1319  0.5335 -0.1335
50879W        W51743  19.261  27.519   1.311  0.1145  0.0720  0.0115
50880W        W51744  23.028  27.663   7.563 -0.3853  0.0861 -0.0640
50881W        W51745  17.412  25.897   5.848 -0.2298  0.0307 -0.0766
50882W        W51746  17.648  28.004   4.626 -0.2603 -0.0444  0.0814
50883W        W51747  19.999  28.665   2.032  0.0731 -0.0774  0.0073
50884W        W51748  18.191  26.714   4.442 -0.1008 -0.1931  0.3995
50885W        W51749  20.102  28.115   5.874  0.2484 -0.0237  0.0370
50886W        W51750  21.474  26.048   6.214  0.0144 -0.4005  0.2512
50887W        W51751  20.541  27.934   7.009 -0.0426  0.0743  0.2637
50888W        W51752  22.214  26.185   5.873  0.2707  0.0221  0.0273
50889W        W51753  20.442  28.900   2.803  0.0278  0.1643 -0.0226
50890W        W51754  15.706  26.926   7.364 -0.0596  0.1213 -0.4674
50891W        W51755  17.869  27.611   4.963  0.0217 -0.0221 -0.0843
50892W        W51756  19.533  26.519   6.943 -0.2163 -0.1014 -0.1026
50893W        W51757  22.013  27.774   7.653  0.2189 -0.0911 -0.2319
50894W        W51758  20.768  27.156   5.313  0.1031  0.3055 -0.2876
50895W        W51759  18.929   0.698   3.548 -0.3393 -0.2764 -0.0540
50896W        W51760  21.307  24.583   7.618  0.1709  0.2957 -0.0438
50897W        W51761  21.531  26.992   4.901  0.3584  0.1844 -0.0306
50898W        W51762  22.517  27.866   4.928  0.0568  0.0859 -0.1130
50899W        W51763  20.014  27.900   9.730  0.0216 -0.2660 -0.0915
50900W        W51764  21.942  28.970   6.253 -0.1013  0.0698 -0.2302
50901W        W51765  17.785  27.214   5.393 -0.0183 -0.0780  0.3983
50902W        W51766  20.663  28.397   7.118 -0.0015 -0.2701  0.2789
50903W        W51767  19.250  25.617   4.534 -0.1011  0.1192 -0.0555
50904W        W51768  19.406  26.781   4.076 -0.2942  0.2697  0.1079
50905W        W51769  23.478  27.399   5.391  0.0962  0.1984  0.0949
50906W        W51770  21.601  27.568   2.688  0.1337 -0.0050 -0.1758
50907W        W51771  20.394  26.910   2.145 -0.1467 -0.0752 -0.3945
50908W        W51772  22.601  28.053   8.311  0.0663 -0.0521  0.0465
50909W        W51773  20.801  28.840   4.734 -0.0237 -0.2191  0.1240
50910W        W51774  20.520   0.547   4.968 -0.2249  0.0314  0.1990
50911W        W51775  19.026  26.302   4.932  0.6316  0.1031  0.0951
50912W        W51776  16.616  29.035   1.058 -0.0003 -0.0486 -0.0412
50913W        W51777  20.237  25.686   4.458  0.1249 -0.2649  0.1447
50914W        W51778  21.493  27.496   3.234  0.2761 -0.3224 -0.1382
50915W        W51779  23.493  26.921   4.635  0.0280 -0.1698 -0.1274
50916W        W51780  20.889  25.744   3.672  0.1554  0.1408 -0.0469
50917W        W51781  20.234  26.586   4.338 -0.0643  0.0994  0.3597
50918W        W51782  20.734  27.175   5.783  0.2768  0.1502  0.1622
50919W        W51783  22.671  27.371   6.322  0.0744 -0.1323  0.1002
50920W        W51784  23.953  28.096   3.709  0.1905 -0.1335  0.2850
50921W        W51785  20.702  23.311   4.635 -0.1040  0.0174 -0.1014
50922W        W51786  18.180   1.485   4.500  0.0331 -0.2487 -0.0981
50923W        W51787  20.602  26.184   5.639  0.1361 -0.0600 -0.1190
50924W        W51788  20.229  25.235   4.164  0.0180  0.0404  0.2090
50925W        W51789  17.777  27.516   4.000 -0.3746 -0.1579 -0.3545
50926W        W51790  17.700   0.319   2.017  0.3114 -0.1741  0.1242
50927W        W51791  20.802  26.813   2.485 -0.0805  0.0607 -0.0325
50928W        W51792  20.092  26.954   2.603 -0.0065  0.2406 -0.0037
50929W        W51793  20.552   1.009   6.584  0.1349  0.3688 -0.3019
50930W        W51794  19.553  27.463   2.101 -0.3549  0.2407 -0.1572
50931W        W51795  19.567  26.932   7.185 -0.0170  0.2224  0.0700
50932W        W51796  22.408  24.370   4.670 -0.4144 -0.0431  0.1317
50933W        W51797  19.523  26.988   0.602  0.1712  0.0787  0.0476
50934W        W51798  16.890  26.418   3.035 -0.2224 -0.0937  0.1008
50935W        W51799  18.174  27.584   2.164 -0.0524  0.2942 -0.0464
50936W        W51800  18.677   0.311   3.646  0.4390  0.0733 -0.0456
50937W        W51801  24.274   0.004   7.162  0.0731 -0.1738  0.0520
50938W        W51802  19.998  26.661   4.860  0.3015 -0.3214  0.1416
50939W        W51803  20.433   1.157   4.078 -0.2092  0.1610 -0.0237
50940W        W51804  22.321  28.279   6.148  0.1462  0.1436 -0.0937
50941W        W51805  21.891  26.926   3.743  0.4079 -0.0850  0.0599
50942W        W51806  21.632   0.148   6.491  0.3689 -0.0920  0.1631
50943W        W51807  19.184  28.005   1.143  0.0496  0.0896  0.2337
50944W        W51808  20.084  25.634   8.413  0.0981 -0.1225  0.2495
50945W        W51809  20.480  26.322   6.149 -0.0809 -0.1618 -0.4710
50946W        W51810  17.713  26.620   1.663 -0.0121  0.1601 -0.0457
50947W        W51811  18.722  26.995   7.379 -0.3577 -0.1297  0.1065
50948W        W51812  19.309  28.523   5.582 -0.1139  0.0065  0.0541
50949W        W51813  16.404  25.045   6.440 -0.1041 -0.2859  0.2176
50950W        W51814  18.957  27.718   5.349  0.1209 -0.1105  0.1803
50951W        W51815  21.421  27.319   6.307 -0.2359  0.1219  0.0079
50952W        W51816  21.918  26.249   3.189 -0.3619 -0.0503  0.2854
50953W        W51817  22.542   1.038   7.862  0.1950 -0.1321  0.0632
50954W        W51818  21.053  26.107   8.536 -0.0052  0.4366  0.1633
50955W        W51819  22.330  28.420   8.393  0.1851  0.1302 -0.1053
50956W        W51820  21.976  26.755   8.456  0.0171  0.3653  0.0805
50957W        W51821  22.816  23.963   5.293 -0.0119 -0.0882  0.0561
50958W        W51822  21.524  28.726   7.574  0.1492 -0.1604 -0.0597
50959W        W51823  18.071  27.758   3.314  0.0111  0.0631  0.0597
50960W        W51824  21.170  24.360   3.652 -0.0749 -0.4321  0.3339
50961W        W51825  17.508  23.167   9.966  0.0706  0.1546 -0.1542
50962W        W51826  24.199  26.394   2.540  0.1471 -0.0656 -0.2355
50963W        W51827  20.455  27.416   1.867  0.0776  0.2269  0.4483
50964W        W51828  19.238   0.437   5.658 -0.0013 -0.1553 -0.0564
50965W        W51829  18.344  25.223   4.098 -0.0576  0.0989  0.2422
50966W        W51830  21.811  25.024   5.160 -0.0825  0.0490 -0.2823
50967W        W51831  21.676   0.910   4.062 -0.2994 -0.1925 -0.3131
50968W        W51832  18.510  24.474   3.300  0.0780  0.2701  0.1297
50969W        W51833  20.471  24.580   3.406 -0.0403 -0.0357 -0.1610
50970W        W51834  22.529  26.965   3.732 -0.0667 -0.2383  0.1388
50971W        W51835  21.635  27.669   5.472 -0.1062  0.1868  0.1597
50972W        W51836  22.239  24.189   8.615  0.1074 -0.0534  0.2037
50973W        W51837  21.701  25.042   2.565  0.2231  0.0962  0.0324
50974W        W51838  21.774  28.319   5.445  0.0181  0.1731  0.0131
50975W        W51839  18.779  23.380   4.706  0.1479  0.3525  0.0416
50976W        W51840  18.772  26.917   4.662 -0.2350 -0.0223 -0.1791
50977W        W51841  19.970  24.046   4.777 -0.0747  0.0125  0.0765
50978W        W51842  19.188  25.481   5.088 -0.1855 -0.1618 -0.2013
50979W        W51843  21.151  25.989   4.949 -0.0971 -0.1570  0.2385
50980W        W51844  21.165  27.138   8.014  0.0975  0.0241  0.1086
50981W        W51845  24.291  28.534   3.554 -0.0012 -0.0091 -0.1862
50982W        W51846  19.434  28.886   4.573  0.1997 -0.1127  0.0263
50983W        W51847  19.802  25.418   4.327 -0.1615  0.1987 -0.4200
50984W        W51848  21.009  27.529   7.248  0.1712  0.2063 -0.0065
50985W        W51849  20.898  24.877   4.947 -0.2914  0.2133 -0.3266
50986W        W51850  20.918  27.036   1.988 -0.0781  0.0490  0.2153
50987W        W51851  21.263  23.446   3.357  0.3553  0.3694  0.1542
50988W        W51852  20.884  26.356   5.176 -0.0467 -0.0820  0.0952
50989W        W51853  21.886  27.395   3.467  0.0884 -0.0951 -0.0324
50990W        W51854  20.800  25.774   5.286  0.0321 -0.0226 -0.2306
50991W        W51855  18.004  26.440   4.778  0.3188  0.1545 -0.3400
50992W        W51856  21.898  28.773   2.853  0.3049 -0.0068  0.1657
50993W        W51857  19.260  26.415   6.090  0.2109  0.3944 -0.2764
50994W        W51858  22.106  27.185   7.436 -0.0605 -0.1460  0.0280
50995W        W51859  24.109   3.323   3.355 -0.3508  0.1708 -0.0109
50996W        W51860  21.796  27.601   4.292 -0.2275 -0.2452 -0.2688
50997W        W51861  19.904  28.983   6.931  0.0424 -0.1900 -0.1175
50998W        W51862  20.200  25.955   5.962  0.0291 -0.2734 -0.0624
50999W        W51863  20.892   0.693   6.321  0.0795 -0.1991  0.0047
51000W        W51864  23.924  25.963   5.894 -0.3557  0.2933  0.0052
51001W        W51865  19.561  25.744   4.032  0.1544  0.0005 -0.2125
51002W        W51866  15.567  25.556   5.670  0.0364 -0.1934 -0.3296
51003W        W51867  20.192  24.736   4.207 -0.2226  0.0578 -0.1405
51004W        W51868  22.675  24.485   7.484  0.0516  0.0692 -0.0299
51005W        W51869  18.928  28.783   6.040  0.1882  0.2955 -0.0379
51006W        W51870  17.850  26.001   5.122  0.0474 -0.0607  0.1638
51007W        W51871  19.419  23.769   5.484 -0.3678  0.0898 -0.0097
51008W        W51872  20.557  26.578   4.744 -0.2860  0.0568  0.1466
51009W        W51873  17.512   1.481   3.509 -0.1547 -0.0779 -0.1188
51010W        W51874  22.330  26.917   2.876  0.0778 -0.0046  0.0957
51011W        W51875  18.803  27.544   4.453  0.0460  0.1652  0.2574
51012W        W51876  23.922  27.591   6.134 -0.0366  0.2318  0.1906
51013W        W51877  21.015  25.302   6.321  0.0005 -0.0836 -0.0716
51014W        W51878  19.603  28.385   4.592 -0.1169  0.0347 -0.0363
51015W        W51879  21.330  27.354   5.814  0.0931  0.2091  0.0661
51016W        W51880  19.649   2.014   6.900  0.1101 -0.3709  0.1339
51017W        W51881  21.760   1.232   6.435  0.3582 -0.0019  0.0138
51018W        W51882  17.688  26.825   5.804  0.2502 -0.1608  0.2626
51019W        W51883  20.284  28.676   6.615 -0.1682  0.0282  0.0501
51020W        W51884  18.554  25.109   3.034  0.1235  0.1097  0.4398
51021W        W51885  19.648  25.344   4.896  0.3713 -0.0093  0.1804
51022W        W51886  22.497  26.112   4.949  0.0841 -0.2553  0.2369
51023W        W51887  19.365  27.332   3.379  0.1542  0.0218 -0.2059
51024W        W51888  19.889  26.680   5.411  0.3706 -0.0958 -0.1783
51025W        W51889  16.921  26.226   3.681  0.0080 -0.1689 -0.0546
51026W        W51890  18.240  26.122   4.358  0.1950 -0.0010  0.0311
51027W        W51891  19.428  26.677   5.696 -0.2485 -0.1916 -0.1044
51028W        W51892  18.998  27.727   5.898  0.0485 -0.2693 -0.1547
51029W        W51893  18.308  26.866   7.082  0.1626 -0.0381 -0.1083
51030W        W51894  20.549  26.809   6.196  0.2543  0.3040  0.0364
51031W        W51895  19.071  26.630   6.687 -0.2610  0.2252  0.2846
51032W        W51896  22.461  26.874   6.306  0.1010  0.0981 -0.2133
51033W        W51897  17.446  24.497   5.503  0.1200 -0.0855 -0.0691
51034W        W51898  18.288  26.190   6.304  0.0648 -0.0009 -0.0955
51035W        W51899  21.678   0.481   5.685 -0.0263 -0.0545 -0.1614
51036W        W51900  18.367  26.864   4.940  0.3827 -0.1844 -0.1211
51037W        W51901  21.589  25.895   5.348  0.2133  0.2988 -0.0259
51038W        W51902  20.798  28.193   6.588 -0.1778  0.0335 -0.0927
51039W        W51903  19.739  27.965   4.811  0.0960 -0.0611  0.0870
51040W        W51904  18.990  27.631   4.030 -0.2297  0.0870 -0.0740
51041W        W51905  19.476  26.284   4.097 -0.0236  0.1158 -0.2258
51042W        W51906  21.565   0.259   1.342 -0.0383  0.1433  0.1045
51043W        W51907  17.768  27.040   6.275  0.1373  0.0575  0.4033
51044W        W51908  20.213  27.354   7.104 -0.0336 -0.1374  0.0059
51045W        W51909  17.455  27.148   2.913 -0.1185  0.2282 -0.1173
51046W        W51910  20.220  27.378   6.590 -0.2368 -0.1772  0.0657
51047W        W51911  17.148  28.260   0.973  0.1610  0.0154  0.1577
51048W        W51912  21.964  26.795   6.485 -0.1438  0.0997  0.2891
51049W        W51913  21.725  27.889   5.048 -0.0564 -0.0889 -0.0867
51050W        W51914  19.239  29.139   5.391 -0.0071  0.1189  0.2170
51051W        W51915  20.995  24.149   4.628  0.3588  0.0206  0.0886
51052W        W51916  22.567  26.671   8.665  0.0080  0.1770  0.3711
51053W        W51917  18.721  26.040   4.402 -0.2593 -0.1040 -0.0440
51054W        W51918  19.938  26.184   5.615 -0.0089  0.1099 -0.2726
51055W        W51919  18.134  27.274   3.044  0.2780 -0.1146 -0.1495
51056W        W51920  19.088  27.965   6.394 -0.0704  0.2642 -0.1211
51057W        W51921  19.738  26.966   4.488 -0.2838 -0.2130  0.0105
51058W        W51922  18.513  26.422   5.227 -0.2112 -0.0958  0.1399
51059W        W51923  19.047  28.205   5.170  0.0361 -0.1271 -0.0088
51060W        W51924  21.684  26.216   5.710  0.1950  0.1373  0.0023
51061W        W51925  19.763  26.032   6.247  0.0179 -0.3263 -0.1115
51062W        W51926  20.134  23.779   3.971 -0.1796 -0.0419  0.2293
51063W        W51927  20.615  24.113   3.352  0.1605 -0.0090  0.1515
51064W        W51928  18.356  26.050   5.831 -0.0063  0.1378  0.1759
51065W        W51929  18.238  27.327   5.213  0.1807  0.0423 -0.0071
51066W        W51930  20.341  25.960   6.578 -0.1189 -0.2503  0.0218
51067W        W51931  18.843  28.376   3.465 -0.1139 -0.1219 -0.0422
51068W        W51932  22.108  26.708   5.887 -0.0557 -0.0885  0.0026
51069W        W51933  21.411  27.247   0.518  0.1522 -0.0705  0.0976
51070W        W51934  19.120  26.649   7.231 -0.2977 -0.0354  0.0121
51071W        W51935  21.679  24.895   9.245 -0.1078  0.2585 -0.2067
51072W        W51936  16.701  22.831   5.175 -0.3506  0.1443  0.1066
51073W        W51937  17.563  25.559   5.417 -0.1266  0.2337 -0.1323
51074W        W51938  18.549  25.896   2.622 -0.1169  0.1201  0.2721
51075W        W51939  18.932   0.294   2.163 -0.1625 -0.0632 -0.0554
51076W        W51940  17.531  24.393   3.091 -0.2828  0.2577  0.3230
51077W        W51941  17.840  25.515   4.962  0.0019  0.4387  0.2594
51078W        W51942  23.421  27.231   7.794 -0.1085  0.2701  0.5001
51079W        W51943  19.610  28.770   3.306 -0.3036  0.0621  0.0765
51080W        W51944  22.824  27.989   5.901  0.0401  0.4836  0.0932
51081W        W51945  21.964  28.517   7.127  0.1598 -0.2588 -0.1981
51082W        W51946  20.823  27.413   2.777  0.0074  0.1134  0.0718
51083W        W51947  19.223   0.574   2.562 -0.0283 -0.1339 -0.1722
51084W        W51948  19.936   0.828   3.343 -0.0293 -0.2794 -0.1822
51085W        W51949  21.709  27.953  10.843 -0.1618  0.3392 -0.0483
51086W        W51950  15.832  28.655   8.645  0.0427 -0.1236 -0.0407
51087W        W51951  22.476  25.906   5.396 -0.2216 -0.0731  0.0216
51088W        W51952  20.547   0.161   3.059 -0.0192  0.1333 -0.2163
51089W        W51953  15.866  28.427   6.650 -0.1227  0.1701 -0.0979
51090W        W51954  20.734  27.292   6.856 -0.0254  0.1044  0.0131
51091W        W51955  20.785  26.223   3.822  0.2228 -0.0275  0.3733
51092W        W51956  18.411  28.692   6.217  0.0039  0.0221 -0.0377
51093W        W51957  19.352  28.591   7.638 -0.1791 -0.2396  0.0062
51094W        W51958  22.511  28.997   7.783 -0.3272  0.0513  0.1920
51095W        W51959  19.493  27.800   4.115  0.2110 -0.0442  0.3140
51096W        W51960  22.428   0.611   4.659  0.2510  0.1374 -0.0727
51097W        W51961  18.600  28.173   7.311  0.1170 -0.0534 -0.0278
51098W        W51962  20.401   0.944   8.106 -0.0226  0.2747  0.0818
51099W        W51963  19.811  27.262   6.313  0.1896  0.1592  0.0948
51100W        W51964  21.360  26.457   3.153 -0.0516  0.0230 -0.0449
51101W        W51965  18.256  25.007   5.145 -0.1787 -0.1380 -0.1121
51102W        W51966  19.715  28.069   3.732  0.0142 -0.0345 -0.0527
51103W        W51967  21.334  24.740   3.353 -0.2562 -0.1138 -0.5305
51104W        W51968  19.742  27.449   7.362 -0.0087  0.1128 -0.1125
51105W        W51969  21.089  26.002   4.077 -0.0128 -0.0741 -0.1906
51106W        W51970  21.562   0.029   6.013  0.1075  0.1893 -0.3132
51107W        W51971  21.574  28.224   7.259  0.0291  0.0896  0.1375
51108W        W51972  18.770   0.547   6.526  0.0597  0.1359 -0.1222
51109W        W51973  19.205  27.332   4.905 -0.2414  0.1157  0.0382
51110W        W51974  18.505  23.608   5.884 -0.1245  0.0322  0.1615
51111W        W51975  22.530  26.689   6.835 -0.0143 -0.0954  0.2548
51112W        W51976  17.918  26.896   3.285 -0.0218  0.0911  0.0581
51113W        W51977  19.965  27.817   6.235 -0.0190 -0.0464  0.0754
51114W        W51978  19.790  27.589   4.512 -0.2483  0.0068  0.1822
51115W        W51979  20.330   0.722   5.931  0.0174  0.0712 -0.2050
51116W        W51980  20.331  26.511   2.866 -0.0329  0.0085  0.0387
51117W        W51981  18.038  26.435   5.960  0.2194 -0.0833  0.2722
51118W        W51982  19.367   2.043   7.465  0.0287 -0.0593  0.3403
51119W        W51983  20.999   1.241   6.625  0.0839  0.2699  0.0905
51120W        W51984  18.527  26.485   4.691 -0.1393  0.1744 -0.1007
51121W        W51985  18.531  25.367   6.135 -0.3204  0.3784  0.0463
51122W        W51986  21.895  28.370   1.684 -0.0637 -0.3273  0.1725
51123W        W51987  21.659  26.095   4.085  0.3291  0.1517 -0.2123
51124W        W51988  19.647  27.562   5.936 -0.2021  0.1603  0.0499
51125W        W51989  20.922  27.875   4.653 -0.1227  0.0977 -0.1957
51126W        W51990  21.949  28.469   6.484  0.0482 -0.2692  0.0094
51127W        W51991  21.148  26.078   5.522  0.0050 -0.2140  0.3081
51128W        W51992  19.877  25.512   6.880 -0.1720  0.1653  0.2221
51129W        W51993  22.079   0.771   6.857  0.0975 -0.0056  0.0055
51130W        W51994  19.126  26.814   9.756  0.0768  0.1763 -0.0023
51131W        W51995  18.183  28.718   5.702 -0.2794 -0.2125  0.2183
51132W        W51996  18.991   1.854   5.724  0.0929 -0.1674  0.2264
51133W        W51997  17.030  28.183   2.516 -0.0894  0.1475  0.1195
51134W        W51998  22.651  27.206   2.537 -0.1044  0.0011 -0.0857
51135W        W51999  19.536  26.651   7.583  0.0818  0.0055  0.2418
51136W        W52000  21.140  23.616   2.867 -0.2333 -0.0291  0.0518
51137W        W52001  19.246  25.352   3.994 -0.1588 -0.3862  0.0787
51138W        W52002  18.883  25.674   6.971  0.1598  0.4730 -0.1421
51139W        W52003  21.629  27.621   7.388 -0.4033  0.0615  0.4479
51140W        W52004  18.857  27.587   6.702  0.1623  0.1686 -0.0109
51141W        W52005  21.991   0.207   7.412  0.0497  0.2825  0.1333
51142W        W52006  19.704  27.259   4.866  0.3375 -0.0526  0.2460
51143W        W52007  20.562  25.705   5.786 -0.1642 -0.0529 -0.0782
51144W        W52008  19.887  27.237   3.044  0.0221  0.0670 -0.1293
51145W        W52009  19.393  24.669   5.299 -0.1296 -0.1203  0.2587
51146W        W52010  17.953   0.281   6.767  0.1963 -0.0173 -0.1006
51147W        W52011  18.410  25.643   4.509 -0.2831 -0.2192  0.0039
51148W        W52012  19.554  27.677   0.848 -0.4038  0.0461  0.2388
51149W        W52013  20.336  27.959   4.930 -0.2337 -0.1335  0.1275
51150W        W52014  17.385  27.243   5.686 -0.0556  0.2951 -0.0107
51151W        W52015  21.428  25.189   2.936  0.1981  0.2107 -0.0981
51152W        W52016  21.044  27.980   7.483  0.0999 -0.1304  0.0607
51153W        W52017  19.543   0.849   2.903  0.0406  0.2225 -0.3405
51154W        W52018  15.723  26.237   3.737  0.0052  0.0755  0.0026
51155W        W52019  21.878  26.323   6.353 -0.1324 -0.0036 -0.1377
51156W        W52020  19.509   0.706   4.276  0.0782 -0.1408  0.1220
51157W        W52021  21.419  26.765   2.761 -0.0378  0.2690 -0.3707
51158W        W52022  22.010  26.101   5.347 -0.0135  0.3212 -0.1377
51159W        W52023  22.993   0.069   7.280  0.2009  0.2104  0.1229
51160W        W52024  16.653  28.573   3.302  0.0726  0.1014  0.1227
51161W        W52025  19.380  27.946   5.553 -0.0367 -0.2182 -0.1703
51162W        W52026  18.521  27.570   5.693  0.1799 -0.0746  0.3562
51163W        W52027  17.905  25.899   5.632  0.1740 -0.0876  0.1063
51164W        W52028  20.259   0.229   4.663 -0.0423 -0.0897 -0.1199
51165W        W52029  22.121  27.691   5.359 -0.0187 -0.3359 -0.3700
51166W        W52030  20.498  28.361   3.008  0.1187  0.1970 -0.1336
51167W        W52031  16.248   1.005   4.174  0.1958 -0.1814 -0.0644
51168W        W52032  19.087  25.374   6.196  0.0037  0.0049  0.0344
51169W        W52033  22.071  27.615  10.577  0.2141 -0.0944  0.0252
51170W        W52034  21.306  28.583   5.339  0.0842  0.4014  0.1822
51171W        W52035  20.274  26.100   2.491 -0.1536  0.0244  0.1104
51172W        W52036  20.024  28.207   3.320  0.0266  0.2373 -0.1249
51173W        W52037  22.887   0.243  10.281  0.0114 -0.1826  0.1223
51174W        W52038  22.067  27.547   7.107  0.2790 -0.0168  0.0328
51175W        W52039  22.313  27.690   8.060 -0.2519  0.2099 -0.3591
51176W        W52040  19.769  27.017   5.829  0.3430 -0.1661 -0.0866
51177W        W52041  19.023  24.734   4.552  0.1270  0.0246 -0.2196
51178W        W52042  20.927  27.694   6.583 -0.0408 -0.0207  0.0439
51179W        W52043  20.043  25.256   5.253  0.0964  0.0653  0.0279
51180W        W52044  20.832  27.968   5.728  0.0637  0.0846 -0.1137
51181W        W52045  17.236   0.010   6.748  0.0474  0.4913 -0.4013
51182W        W52046  20.382   0.415   6.383 -0.0397 -0.0571  0.0339
51183W        W52047  20.147  27.274   3.605 -0.0454 -0.0322 -0.0577
51184W        W52048  22.370  25.710   6.720  0.2865 -0.1030 -0.4389
51185W        W52049  23.018   0.360   5.427  0.0420 -0.2759  0.4363
51186W        W52050  18.538  25.148   5.695  0.0583 -0.1314  0.0582
51187W        W52051  16.992  28.310   5.870 -0.2126 -0.3482  0.1311
51188W        W52052  21.171   1.243   3.293 -0.1227 -0.0772 -0.0628
51189W        W52053  18.664   2.250   6.897 -0.1543 -0.2959  0.1346
51190W        W52054  21.607  25.432   4.873  0.0514  0.1677  0.0849
51191W        W52055  18.481  26.537   5.743 -0.0115 -0.1927  0.1098
51192W        W52056  20.736  28.757   6.696 -0.2768  0.0179  0.0971
51193W        W52057  19.329  25.126   4.441  0.0481 -0.0487  0.3353
51194W        W52058  18.861  25.334   4.756  0.0894  0.0592  0.2732
51195W        W52059  21.401  24.688   2.847  0.0406  0.3624 -0.0505
51196W        W52060  17.955  25.435   4.367 -0.2382 -0.0068  0.1810
51197W        W52061  22.245  25.709   7.608 -0.2202  0.2870  0.2338
51198W        W52062  21.383  22.358   5.074  0.1193 -0.1541 -0.1833
51199W        W52063  20.720   0.194   6.040  0.0941  0.0456  0.2049
51200W        W52064  22.459  27.807   4.307 -0.2531 -0.0521  0.2214
51201W        W52065  22.759   0.794   8.545 -0.3758  0.0404  0.1152
51202W        W52066  22.700  27.318   4.774 -0.1496 -0.0357  0.2352
51203W        W52067  18.066   1.323   2.045 -0.0218  0.0572  0.4496
51204W        W52068  22.994  27.971   5.004  0.2589  0.3048 -0.1108
51205W        W52069  21.393  26.436   5.306 -0.0803 -0.4254  0.0281
51206W        W52070  21.899  24.212   2.398  0.0232 -0.1909 -0.0686
51207W        W52071  18.951  24.782   3.329  0.1342  0.4350  0.0927
51208W        W52072  15.733  27.979   6.319  0.2617 -0.2440 -0.1500
51209W        W52073  21.270  25.557   5.326 -0.0661  0.0399  0.0677
51210W        W52074  18.575  28.027   3.020  0.0907 -0.1588 -0.0322
51211W        W52075  19.551  27.718   3.027 -0.0701  0.0217  0.0529
51212W        W52076  19.039   1.955   6.177  0.0382 -0.1961 -0.2262
51213W        W52077  15.547  28.111   5.569 -0.1207  0.4807 -0.2196
51214W        W52078  18.972  27.007   4.004  0.0410  0.0598 -0.2114
51215W        W52079  17.277   0.762   6.038  0.0856 -0.0820 -0.0533
51216W        W52080  21.140  24.873   3.998  0.0992 -0.1869  0.1660
51217W        W52081  19.008   0.662   4.327  0.0585 -0.1253 -0.0241
51218W        W52082  20.432  25.558   6.876  0.0549 -0.0945  0.0597
51219W        W52083  20.581  26.238   4.300  0.0409 -0.0963 -0.1836
51220W        W52084  19.908   1.017   4.508 -0.0042 -0.3672  0.0337
51221W        W52085  18.958  28.771   2.667  0.5046  0.1461  0.0344
51222W        W52086  19.992  24.586   3.141  0.1879 -0.1528  0.6047
51223W        W52087  17.540   2.100   2.285 -0.3274 -0.1709  0.1946
51224W        W52088  19.064  25.727   6.528  0.0053 -0.0269  0.0610
51225W        W52089  18.966  27.049   8.723  0.0998  0.0023 -0.1540
51226W        W52090  18.903  26.168   5.766  0.1849 -0.0397  0.0476
51227W        W52091  19.678  25.396   2.998 -0.1097  0.1306 -0.2559
51228W        W52092  23.183  27.681   4.178  0.1368  0.1384 -0.0321
51229W        W52093  22.639   0.383   7.597  0.1942 -0.0739  0.1350
51230W        W52094  21.249  23.458   3.907  0.2156 -0.1872 -0.0087
51231W        W52095  19.968  26.706   3.836 -0.3754 -0.0772 -0.0788
51232W        W52096  22.855  29.010   8.165 -0.3891  0.1067  0.0723
51233W        W52097  20.988   0.370   3.975  0.0134  0.0561 -0.2462
51234W        W52098  18.182  24.877   3.283  0.0310  0.2594 -0.1419
51235W        W52099  21.767  24.226   5.667 -0.3305  0.0626  0.2548
51236W        W52100  23.885  24.643   4.165  0.0141  0.3232 -0.1374
51237W        W52101  20.001  29.101   3.072  0.0351  0.1300 -0.1324
51238W        W52102  20.694  27.059   4.586  0.0409  0.1608  0.2150
51239W        W52103  19.869  27.605   3.399  0.1415  0.1713  0.2361
51240W        W52104  21.545   1.777   7.596  0.1422  0.0178 -0.5133
51241W        W52105  20.144   1.690   2.052  0.3453 -0.1229  0.3537
51242W        W52106  20.328  26.314   8.011 -0.0034 -0.1416 -0.3253
51243W        W52107  18.136  28.053   2.819 -0.1809 -0.1781 -0.1334
51244W        W52108  21.011  27.570   5.521 -0.1266 -0.1271  0.0629
51245W        W52109  22.006  27.216   5.631  0.2467  0.3768  0.0776
51246W        W52110  18.576  26.893   7.847 -0.0647  0.1956  0.0506
51247W        W52111  19.581  28.163   6.041  0.2125  0.3169 -0.1494
51248W        W52112  16.508  26.049   5.450 -0.0943  0.0411 -0.3071
51249W        W52113  18.908  26.694   5.848  0.0059 -0.0671  0.0121
51250W        W52114  20.474  27.531   5.355 -0.1567 -0.0428 -0.1132
51251W        W52115  20.011   1.674   7.066  0.1937 -0.0281 -0.2821
51252W        W52116  20.357  27.657   5.844 -0.0194 -0.0701  0.0303
51253W        W52117  20.035  27.792   2.955  0.0000  0.0560 -0.3559
51254W        W52118  20.121  28.316   4.593 -0.1697 -0.1591  0.2024
51255W        W52119  17.752   0.109   7.179 -0.2989 -0.0234 -0.2382
51256W        W52120  20.948  27.592   6.074 -0.2619 -0.1606  0.0715
51257W        W52121  22.885  26.117   6.038 -0.1435 -0.0923 -0.1750
51258W        W52122  18.350  29.029   5.397  0.1728 -0.0782 -0.0896
51259W        W52123  22.372   1.036   6.437 -0.0421  0.1235  0.0584
51260W        W52124  17.502   0.278   5.808 -0.2777  0.1840  0.2794
51261W        W52125  20.210   0.211   6.903 -0.0119 -0.0257 -0.0182
51262W        W52126  20.973  26.281   8.071 -0.1168 -0.3732 -0.1648
51263W        W52127  19.098  26.550   4.462  0.1108 -0.0809 -0.1370
51264W        W52128  19.515  27.248   7.810  0.1485  0.1745 -0.0203
51265W        W52129  17.178  24.957   3.817  0.0694 -0.2520 -0.0107
51266W        W52130  20.499  26.096   5.021  0.3551  0.1274 -0.1819
51267W        W52131  17.310   1.755  10.482 -0.3709  0.4121 -0.0688
51268W        W52132  18.610  28.550   9.251 -0.1497 -0.0619 -0.0849
51269W        W52133  22.351  27.862   9.831 -0.4824  0.3876  0.0907
51270W        W52134  22.390   0.481  10.163  0.3408  0.1533 -0.1217
51271W        W52135  18.199   0.533   7.144  0.0216  0.1140  0.1928
51272W        W52136  20.925  26.737   7.596 -0.2148 -0.1172  0.0483
51273W        W52137  18.629   0.531   8.906 -0.2265  0.1074  0.0396
51274W        W52138  21.645  26.951   8.050 -0.1137 -0.0004 -0.0388
51275W        W52139  20.132   1.231   9.510  0.0746 -0.4044  0.1175
51276W        W52140  16.197  25.309  12.200 -0.1311 -0.0373  0.3469
51277W        W52141  20.007  24.499  10.841 -0.0161 -0.0119 -0.1062
51278W        W52142  22.106  26.502   8.944 -0.0209  0.1400 -0.0412
51279W        W52143  21.065  25.280   8.226 -0.1278 -0.2332 -0.0963
51280W        W52144  20.709  26.107   9.018  0.2659 -0.2379 -0.3164
51281W        W52145  17.033  25.647   8.444 -0.1918  0.0609 -0.1376
51282W        W52146  18.653  29.090  10.427  0.1108  0.3329  0.0424
51283W        W52147  19.261   0.853   9.350  0.3048  0.2876 -0.0415
51284W        W52148  18.179  27.863   8.855  0.0320 -0.0117 -0.2893
51285W        W52149  19.881  27.409   9.969 -0.4034 -0.3995  0.1197
51286W        W52150  21.375  25.112   9.603 -0.0577 -0.1699  0.1057
51287W        W52151  23.177  28.311  11.064  0.0397  0.0881  0.0631
51288W        W52152  19.528  26.015   9.846  0.2720  0.0716 -0.1030
51289W        W52153  24.797  29.045   8.290 -0.2423  0.0854 -0.1162
51290W        W52154  19.942  26.354  11.434  0.1576  0.3938 -0.4242
51291W        W52155  17.474  28.211   7.913  0.0474  0.0518  0.3027
51292W        W52156  18.739  27.803  11.628 -0.0381  0.2073 -0.0101
51293W        W52157  20.480  28.022   9.634  0.0564 -0.0407  0.1777
51294W        W52158  18.946   0.150   6.794  0.0210  0.1151  0.2466
51295W        W52159  20.931  27.238  10.845  0.0692  0.1069 -0.0710
51296W        W52160  19.324   0.658  11.543  0.1235  0.1526  0.0247
51297W        W52161  19.341  27.277   8.336  0.2732  0.1300 -0.1493
51298W        W52162  20.958  27.517  11.304  0.1149 -0.1273 -0.2212
51299W        W52163  19.955  28.670  12.655  0.0890  0.2353 -0.1089
51300W        W52164  22.486   0.698  12.859 -0.0752 -0.0601  0.0654
51301W        W52165  19.195  29.053   8.693 -0.1557 -0.0426 -0.0417
51302W        W52166  18.436  27.529   9.407 -0.2636  0.1174  0.5600
51303W        W52167  18.716  26.432   8.061  0.1092  0.1413  0.4146
51304W        W52168  19.240  27.745   7.455  0.1106 -0.2032 -0.3405
51305W        W52169  22.304  27.492  11.416 -0.1365  0.0779  0.2508
51306W        W52170  22.317  25.512   8.970 -0.1587  0.2335  0.1048
51307W        W52171  21.846  26.480   6.944 -0.0581  0.1559  0.1051
51308W        W52172  22.285  27.219   9.360 -0.0937  0.2451  0.0789
51309W        W52173  21.040  28.672   9.333 -0.1597  0.1146  0.0299
51310W        W52174  20.675   1.096   9.304 -0.1777 -0.0037  0.1416
51311W        W52175  17.737   0.858   7.943  0.3857 -0.3963 -0.0002
51312W        W52176  21.030  27.971   8.745  0.1104 -0.0052  0.0427
51313W        W52177  22.231  28.063  10.779  0.1342  0.1049 -0.3628
51314W        W52178  23.223  28.026  10.084  0.1059 -0.3148 -0.1081
51315W        W52179  25.674  27.605   8.948 -0.1833 -0.0903 -0.0031
51316W        W52180  20.109  24.377  10.316  0.0289 -0.3719  0.1171
51317W        W52181  18.096  28.449   9.358  0.1646 -0.2053  0.1528
51318W        W52182  22.909  27.675   8.599  0.0989  0.0587 -0.0654
51319W        W52183  21.019  28.498   7.635  0.1599 -0.2076 -0.1034
51320W        W52184  20.053  27.646  10.844 -0.2265 -0.0108  0.1627
51321W        W52185  19.377  25.780   7.327  0.0403 -0.6554  0.1689
51322W        W52186  16.790  26.999   6.421 -0.3474  0.1516  0.2761
51323W        W52187  18.450  27.366   8.900  0.0270 -0.0158  0.1100
51324W        W52188  21.658  26.281   9.820 -0.1322 -0.1871 -0.0654
51325W        W52189  19.252  25.784   8.268  0.1072  0.0579  0.1218
51326W        W52190  21.567  27.747   6.895  0.2046 -0.3639 -0.2769
51327W        W52191  19.994  27.733   6.780  0.2604 -0.1635 -0.1326
51328W        W52192  21.715  27.470   9.147  0.2218  0.2678  0.1279
51329W        W52193  20.821  28.440   8.740 -0.1205 -0.3255  0.0653
51330W        W52194  21.182  27.888   9.290 -0.0494 -0.0726 -0.0389
51331W        W52195  19.181  24.486   8.620  0.1943  0.2872  0.2695
51332W        W52196  21.809  23.182   9.649 -0.0485  0.3835 -0.0957
51333W        W52197  23.018  28.022   8.056  0.3434  0.0300  0.2841
51334W        W52198  19.815  26.991   8.500  0.2073  0.1949 -0.2497
51335W        W52199  17.268  27.341   6.987 -0.1135  0.0870  0.2984
51336W        W52200  19.382   0.364   8.612  0.0082  0.0547  0.1321
51337W        W52201  23.900   0.421   8.726  0.3464  0.1548  0.1200
51338W        W52202  19.985  26.780   9.941  0.1166  0.0275 -0.0868
51339W        W52203  21.473  29.088   8.554  0.0130 -0.2432 -0.2866
51340W        W52204  22.211  26.029  10.547  0.2617  0.0825  0.1622
51341W        W52205  23.520  29.007   8.766  0.1314  0.0288 -0.0132
51342W        W52206  23.076  26.704   9.603  0.0052  0.2633 -0.0558
51343W        W52207  17.844  28.848   9.100  0.2113  0.0879 -0.4979
51344W        W52208  17.855  27.378   9.469 -0.0199  0.3100  0.2609
51345W        W52209  21.991  28.037   6.893  0.0191  0.0373  0.0974
51346W        W52210  18.526   0.217   8.094 -0.0985 -0.0601  0.0824
51347W        W52211  19.046  28.133   8.355  0.1543  0.0693  0.2130
51348W        W52212  19.054  26.150   7.010 -0.0855  0.0782 -0.0615
51349W        W52213  18.164  25.968   9.822  0.1097  0.1919 -0.0589
51350W        W52214  20.466  26.716   7.700  0.3615 -0.1114 -0.1977
51351W        W52215  21.555  26.730   9.557  0.1237  0.2971 -0.1404
51352W        W52216  21.261  26.494   5.869 -0.1083 -0.1676  0.3480
51353W        W52217  24.662  27.356   8.974  0.0239 -0.3294 -0.1880
51354W        W52218  21.003  24.192  10.950  0.0343 -0.0186 -0.3794
51355W        W52219  21.035  27.619  10.259 -0.0136  0.0363  0.3258
51356W        W52220  21.584  26.701  11.804  0.1676  0.2222  0.0594
51357W        W52221  19.278  26.215   7.478 -0.1364  0.0385 -0.1281
51358W        W52222  20.121  28.616  11.124  0.0199 -0.2435  0.0291
51359W        W52223  18.612  26.910   5.350  0.3336 -0.0220 -0.4076
51360W        W52224  21.119  28.064   6.998  0.2122 -0.1328  0.0481
51361W        W52225  17.424  26.497   9.033 -0.0435 -0.0564  0.0087
51362W        W52226  19.398  24.734   5.875  0.0972 -0.0794 -0.0204
51363W        W52227  21.849  25.470   6.570  0.3153 -0.1381  0.4532
51364W        W52228  19.734  27.824   9.139 -0.4105  0.1234  0.0336
51365W        W52229  22.428  26.079   8.756  0.1927 -0.2948  0.0283
51366W        W52230  20.427  25.168   5.571 -0.1171  0.0715  0.1684
51367W        W52231  23.293   0.823   8.991 -0.3342 -0.3755  0.1066
51368W        W52232  21.878  28.343   7.657  0.3431 -0.0726  0.2994
51369W        W52233  22.055  24.566   5.313  0.0700 -0.2236 -0.1440
51370W        W52234  24.855  27.012  10.130  0.1801  0.0779 -0.1258
51371W        W52235  20.883  22.386   8.174 -0.3650  0.3149 -0.0725
51372W        W52236  18.272  28.483   9.899 -0.0244 -0.0288  0.0628
51373W        W52237  18.577  28.062   9.764 -0.1652 -0.1988  0.1139
51374W        W52238  20.049   0.978   9.942  0.1733 -0.0770 -0.1453
51375W        W52239  22.127  25.475  10.838 -0.1622 -0.0355 -0.3707
51376W        W52240  18.638  24.035   9.237 -0.0453  0.2365 -0.1329
51377W        W52241  18.921  28.700  10.547 -0.0128  0.0577 -0.1559
51378W        W52242  21.380   0.854   7.844 -0.1643  0.0357 -0.1523
51379W        W52243  22.444  27.128  10.556  0.1399 -0.1525 -0.1875
51380W        W52244  19.754  27.985  11.703 -0.2312  0.0979 -0.0983
51381W        W52245  22.612  23.819   8.294  0.1965  0.0712  0.0801
51382W        W52246  18.484  26.871   8.937 -0.0392 -0.1448  0.0808
51383W        W52247  19.156  26.767  10.316 -0.1504  0.1344 -0.0039
51384W        W52248  19.282   0.139  11.300  0.0163 -0.0747  0.3752
51385W        W52249  22.438  27.532   7.611  0.1534  0.0818  0.0667
51386W        W52250  23.197  26.384   8.167 -0.0334  0.0498 -0.1570
51387W        W52251  23.479  28.769   9.240  0.0789 -0.0510 -0.1424
51388W        W52252  18.760  27.800   7.590  0.1472  0.1023 -0.1743
51389W        W52253  21.818  27.730  10.144 -0.1615  0.1895 -0.0756
51390W        W52254  21.188  28.487   6.515  0.0908  0.1720  0.2264
51391W        W52255  19.101   0.035   4.817  0.0058  0.1018  0.0209
51392W        W52256  22.950  28.240   5.487 -0.3864  0.2631 -0.1657
51393W        W52257  16.107  25.366   8.580  0.3569  0.1070  0.2485
51394W        W52258  19.488  24.209   9.084  0.0267 -0.1740  0.1613
51395W        W52259  20.780   1.073   8.842 -0.2455 -0.0259 -0.1144
51396W        W52260  18.825  28.196  10.703  0.2476  0.0786  0.1153
51397W        W52261  21.910  29.003   9.822  0.1682 -0.0452 -0.0733
51398W        W52262  22.507  26.373  10.972 -0.1644 -0.0156 -0.1940
51399W        W52263  21.028   0.925   7.486 -0.2670  0.2344  0.3553
51400W        W52264  22.204  24.528  10.791 -0.0467  0.1805  0.3987
51401W        W52265  21.047  26.860   9.466 -0.2573 -0.0781 -0.0026
51402W        W52266  19.401  26.969  11.361 -0.1529  0.1142 -0.0104
51403W        W52267  22.598  26.288   8.302  0.3337  0.0912  0.0793
51404W        W52268  21.176  26.754  10.854  0.2737  0.1793 -0.0653
51405W        W52269  21.290  27.119  10.465 -0.4612 -0.2199  0.2635
51406W        W52270  17.852  28.254   8.863 -0.1821 -0.1076 -0.0712
51407W        W52271  18.925  25.807   4.862 -0.0863 -0.4017 -0.2902
51408W        W52272  18.126  26.780   7.531 -0.0278  0.3904 -0.1078
51409W        W52273  17.416  28.588   6.004 -0.0124 -0.1401  0.1289
51410W        W52274  20.794  27.941   7.911  0.4445  0.1602  0.1969
51411W        W52275  23.087  27.909   9.657 -0.2057  0.4278  0.1176
51412W        W52276  20.064  26.383   6.401  0.0680 -0.0856 -0.0282
51413W        W52277  22.174  27.598   9.011  0.0316  0.4506  0.0173
51414W        W52278  23.405   0.492   9.485  0.1598 -0.0548  0.1015
51415W        W52279  21.791   0.494   7.889 -0.1739  0.0568  0.0026
51416W        W52280  20.270  27.018  11.949 -0.1733 -0.1294 -0.4004
51417W        W52281  22.276   0.664   8.820  0.1667  0.2009 -0.0361
51418W        W52282  21.509  23.816   7.317 -0.1695 -0.4403 -0.0176
51419W        W52283  20.434  26.913   8.915 -0.1402  0.1107  0.2607
51420W        W52284  18.605  26.423   7.035 -0.1698 -0.3393  0.2652
51421W        W52285  20.294  26.399   8.933 -0.2551 -0.4692 -0.0575
51422W        W52286  19.714  23.745   8.577  0.3738 -0.2056  0.0978
51423W        W52287  20.068  28.426   9.690 -0.0358  0.1431 -0.0261
51424W        W52288  18.968  25.344   7.352 -0.0668  0.4264 -0.3394
51425W        W52289  19.098  26.856   7.775  0.0778 -0.4433 -0.3347
51426W        W52290  20.786  25.146   9.634 -0.1359  0.0723  0.0726
51427W        W52291  18.091  29.069   8.112  0.0110  0.0784 -0.1854
51428W        W52292  22.736  26.867  11.041  0.2160  0.0068  0.1258
51429W        W52293  22.502  28.149  10.394 -0.0257  0.1072  0.0174
51430W        W52294  21.845  28.570  11.592 -0.1417  0.1045 -0.2035
51431W        W52295  22.695  25.487  11.038  0.2246 -0.0551  0.1526
51432W        W52296  20.588  27.747   8.644 -0.0816 -0.0085 -0.1391
51433W        W52297  20.678  27.882  11.015  0.0591  0.0013 -0.1434
51434W        W52298  17.617   0.555   8.943 -0.0344 -0.0518  0.0350
51435W        W52299  22.011   0.060   9.370 -0.2236  0.0098  0.1275
51436W        W52300  19.514  26.827   8.120  0.0200  0.2336  0.1943
51437W        W52301  20.652  27.995   9.134  0.0693  0.0741  0.4365
51438W        W52302  21.340  25.578   9.721  0.3056  0.2887 -0.0115
51439W        W52303  22.302  26.943  10.099 -0.0356 -0.2251  0.2937
51440W        W52304  23.694   0.076   9.545 -0.0295 -0.0842  0.0466
51441W        W52305  19.414  25.302   7.534  0.2584 -0.2002  0.2296
51442W        W52306  21.796  23.427   8.531 -0.0994  0.2664  0.0275
51443W        W52307  19.226  27.843  10.398  0.0453  0.2893 -0.0284
51444W        W52308  19.423  26.702   8.675  0.0901 -0.1468 -0.2772
51445W        W52309  14.739  28.678   9.184  0.0546  0.0634  0.3516
51446W        W52310  19.277  25.891   9.201 -0.0709 -0.0875  0.1149
51447W        W52311  18.024   0.036   8.814  0.3658 -0.2259 -0.0167
51448W        W52312  21.818  26.001   8.028 -0.0920  0.0444  0.0729
51449W        W52313  19.952  26.401   8.571 -0.3042  0.0610 -0.1070
51450W        W52314  20.935  25.965   6.045  0.0358  0.0538  0.2260
51451W        W52315  21.756  25.648   7.498  0.2410 -0.1820  0.2157
51452W        W52316  19.193  28.388  13.221 -0.0237 -0.0575 -0.4374
51453W        W52317  21.699  28.507   9.887  0.1056 -0.0080 -0.1967
51454W        W52318  19.891  26.048   6.762 -0.0475  0.0779 -0.1276
51455W        W52319  19.155  26.307   8.903 -0.0389 -0.2186 -0.1738
51456W        W52320  19.310  28.087   9.019 -0.4561 -0.1350 -0.0272
51457W        W52321  21.484  28.506   4.444 -0.4481  0.0673 -0.1605
51458W        W52322  19.701   0.211   5.474 -0.1534  0.1714 -0.2546
51459W        W52323  15.798  25.038  10.423 -0.2283 -0.0104  0.0706
51460W        W52324  16.430  25.805  11.461  0.2192  0.2501  0.0081
51461W        W52325  20.099  24.661   7.411  0.1998  0.0909 -0.1624
51462W        W52326  21.932  28.887  10.296 -0.0432  0.0262  0.0159
51463W        W52327  22.061  28.880   6.805  0.0931  0.4344  0.1507
51464W        W52328  19.862  25.021  10.775 -0.1048  0.1990  0.2371
51465W        W52329  19.588  27.837   7.059 -0.1829  0.1556 -0.0671
51466W        W52330  21.875  22.927   8.399  0.0493  0.1709 -0.1655
51467W        W52331  17.135  25.413   7.063  0.1172 -0.1762 -0.1237
51468W        W52332  21.759  26.249  10.421 -0.1779 -0.0065  0.0650
51469W        W52333  22.309  25.878   8.053 -0.2202 -0.1144 -0.0313
51470W        W52334  19.960  25.812   9.830 -0.2789  0.6196  0.0033
51471W        W52335  19.632  25.831  10.822  0.0999 -0.0623 -0.0169
51472W        W52336  16.716  24.944   5.040 -0.0320 -0.1086  0.0233
51473W        W52337  19.804  25.054   7.784 -0.0692  0.0059 -0.0774
51474W        W52338  20.508   0.676   9.034 -0.2158 -0.0541 -0.1742
51475W        W52339  19.843   1.406   6.040  0.2719  0.0024  0.4347
51476W        W52340  17.346  26.875   7.290 -0.2022  0.0521 -0.1345
51477W        W52341  20.251  25.196  10.449  0.0615  0.1447  0.0545
51478W        W52342  17.474  25.933   9.276  0.2800  0.2148  0.0388
51479W        W52343  20.699  26.536   9.278 -0.0939 -0.1238 -0.2383
51480W        W52344  21.325  24.909   7.987 -0.0030  0.0378 -0.1119
51481W        W52345  22.869  27.409  10.381 -0.0325 -0.0597  0.2046
51482W        W52346  23.630  27.331   6.882 -0.2309  0.1512 -0.0654
51483W        W52347  20.795  29.024   8.482 -0.1267  0.0273 -0.1207
51484W        W52348  19.965   0.108   7.427  0.0022  0.0219  0.3475
51485W        W52349  20.863  28.114  10.565  0.0715 -0.1527 -0.1058
51486W        W52350  18.376   1.171  11.903  0.1537  0.0418 -0.1457
51487W        W52351  22.625  25.641  10.366 -0.0237  0.0771 -0.0276
51488W        W52352  20.504  24.282   8.077  0.1502 -0.0191 -0.0056
51489W        W52353  15.783   1.550  11.561 -0.0488 -0.4036 -0.2022
51490W        W52354  20.632  24.763   5.356  0.4855  0.1525 -0.0862
51491W        W52355  20.417  27.064   5.007 -0.1137  0.0655 -0.0006
51492W        W52356  20.356  25.849  10.413 -0.1584  0.1117  0.0742
51493W        W52357  19.188  28.465   6.395  0.2120 -0.3388 -0.2375
51494W        W52358  21.550  22.744   9.836 -0.1679  0.0245 -0.3133
51495W        W52359  19.367   1.705   7.846  0.3195 -0.1420  0.1317
51496W        W52360  23.276  24.645   8.521 -0.0167 -0.1594  0.0468
51497W        W52361  20.089  25.603   9.176 -0.1566  0.4104  0.1157
51498W        W52362  18.761  25.455  10.800  0.2019  0.2423 -0.2121
51499W        W52363  18.207  25.732   7.494  0.0371 -0.0575  0.0549
51500W        W52364  20.364  29.109   8.246  0.0236 -0.0801 -0.2867
51501W        W52365  19.771  25.064   7.248 -0.4200  0.2150 -0.1248
51502W        W52366  20.708   0.060   6.515 -0.1552 -0.3231  0.1739
51503W        W52367  23.108  27.248   8.763  0.0662 -0.1813 -0.1069
51504W        W52368  22.025  25.013  10.165  0.1436 -0.1650  0.2855
51505W        W52369  21.613   0.212   9.613 -0.0197  0.1149  0.1359
51506W        W52370  21.223  28.991   7.956 -0.0626  0.1490 -0.0407
51507W        W52371  20.637  26.509   7.196  0.2180 -0.2183  0.0035
51508W        W52372  19.318   1.288  10.299  0.0641 -0.3033  0.2641
51509W        W52373  20.967  25.674   8.810 -0.0890 -0.2924 -0.1065
51510W        W52374  18.952  24.857   7.475 -0.0412 -0.2977 -0.2307
51511W        W52375  21.370  26.612   7.830  0.1486 -0.0560 -0.0308
51512W        W52376  18.808  27.448   7.203 -0.2146  0.5476  0.0816
51513W        W52377  23.799   0.821   9.153  0.1083 -0.1150  0.2005
51514W        W52378  19.929  26.781   8.978  0.0147 -0.0376  0.1065
51515W        W52379  21.595   0.050   7.659 -0.1673 -0.0409 -0.0396
51516W        W52380  21.393  26.563   7.208  0.0257 -0.0609  0.0827
51517W        W52381  19.904  28.536   6.224 -0.0222  0.0493  0.1022
51518W        W52382  21.953  27.059  10.808  0.0822 -0.0138 -0.0365
51519W        W52383  18.482  27.916  11.204  0.1130 -0.0878  0.1338
51520W        W52384  22.056  26.828   9.621  0.1636  0.2597  0.0816
51521W        W52385  20.377  24.343   8.870 -0.0793 -0.0856  0.5991
51522W        W52386  23.034   0.699   7.872 -0.2306  0.1709 -0.0294
51523W        W52387  21.797  24.831   7.447 -0.0097 -0.1025  0.1271
51524W        W52388  20.469  25.208   9.239 -0.0477  0.0667 -0.0216
51525W        W52389  21.490  27.467   8.239 -0.2080  0.1192  0.0630
51526W        W52390  20.401  25.223   8.347 -0.0526 -0.0900 -0.0922
51527W        W52391  19.604  24.215   8.483 -0.1050 -0.2682  0.1070
51528W        W52392  17.829  24.074  10.537 -0.1363  0.1505 -0.1640
51529W        W52393  21.486  26.008  11.319 -0.0010 -0.1507 -0.1266
51530W        W52394  17.156  27.130  12.967  0.1058 -0.2137 -0.0471
51531W        W52395  21.003  29.072  10.679  0.1709  0.1582  0.0467
51532W        W52396  19.844   0.499  10.041  0.1030  0.0722  0.1201
51533W        W52397  20.338  28.923   7.126 -0.0118  0.1916  0.0653
51534W        W52398  22.222  28.832   8.126 -0.0848  0.5208  0.0344
51535W        W52399  19.123  27.286  10.384 -0.1252  0.2615 -0.0880
51536W        W52400  22.765  28.238   6.345 -0.1265  0.1532  0.0341
51537W        W52401  19.117  28.302   7.367  0.1343 -0.2078 -0.0806
51538W        W52402  23.606  28.619   9.762 -0.4232  0.1981  0.0769
51539W        W52403  21.793  27.472  11.156  0.4743  0.4154  0.2288
51540W        W52404  17.383  27.419   9.310 -0.2084  0.3058 -0.2676
51541W        W52405  20.520  27.651   7.471  0.0785  0.1544 -0.0966
51542W        W52406  21.880  25.133   8.791  0.0275  0.0201 -0.1849
51543W        W52407  16.145  26.329   8.596  0.2304  0.1719  0.4751
51544W        W52408  19.725  27.533   9.534 -0.1229 -0.1148 -0.3204
51545W        W52409  20.213  27.982   7.848 -0.0646 -0.4107 -0.3938
51546W        W52410  18.667   0.932   9.808  0.1748 -0.1915 -0.0729
51547W        W52411  20.732   0.345   9.487  0.1224 -0.0775 -0.1058
51548W        W52412  18.656  23.583   9.446  0.1099  0.0129 -0.4061
51549W        W52413  17.797  27.909   7.598  0.3864 -0.0118  0.5006
51550W        W52414  16.432   2.824  11.428  0.2054  0.2102 -0.0728
51551W        W52415  21.588  25.081   6.912  0.2733  0.2361  0.2343
51552W        W52416  21.676  27.215   9.573 -0.2488  0.0653 -0.0475
51553W        W52417  23.608   1.120  10.678  0.0206  0.1106  0.2335
51554W        W52418  18.670  25.228  11.494 -0.1469 -0.2735  0.0980
51555W        W52419  25.320  27.470   5.933  0.1500 -0.2690 -0.1017
51556W        W52420  23.266  27.847   7.109  0.4255 -0.0909 -0.0036
51557W        W52421  21.386  26.970   9.053 -0.3026  0.0065 -0.1929
51558W        W52422  22.329  27.332   6.708  0.0093  0.0563  0.1597
51559W        W52423  22.313  25.053  10.654 -0.1258 -0.2087 -0.0508
51560W        W52424  20.355  26.405   9.866 -0.0943 -0.0887  0.2129
51561W        W52425  21.618  28.789   6.653  0.2058 -0.0066  0.0631
51562W        W52426  20.125  23.338   7.654  0.0058  0.2442  0.3292
51563W        W52427  18.182  24.430   7.913  0.0669  0.0076  0.2692
51564W        W52428  23.623  27.923  10.794  0.1907  0.1978 -0.1298
51565W        W52429  20.411  23.778   9.046 -0.1478 -0.0129  0.2732
51566W        W52430  18.378   1.013   7.094 -0.1541 -0.1664 -0.0795
51567W        W52431  18.123  26.866   5.539 -0.1198 -0.1711  0.0011
51568W        W52432  17.892  25.379  10.422 -0.2008  0.1389  0.1934
51569W        W52433  20.591  27.923  10.122 -0.1124 -0.0373  0.4027
51570W        W52434  21.785  27.863   8.212  0.2623 -0.1097 -0.0069
51571W        W52435  20.846  28.815   9.961 -0.0357  0.0854 -0.1415
51572W        W52436  21.913  28.531   5.959 -0.3818  0.0075 -0.0898
51573W        W52437  20.519  28.434   9.330  0.0166 -0.0418  0.0496
51574W        W52438  22.084  24.654   8.807 -0.0328 -0.2552  0.0691
51575W        W52439  22.687  24.988   7.708  0.0607 -0.1106 -0.0904
51576W        W52440  16.761  28.015   9.224 -0.1443 -0.1120 -0.3005
51577W        W52441  19.901  27.810   8.266  0.0101  0.0011 -0.0554
51578W        W52442  18.772  26.130  11.888  0.0006  0.0023 -0.0417
51579W        W52443  20.901  26.980   8.984 -0.0204  0.0947  0.1787
51580W        W52444  21.517  26.491   8.724  0.3382  0.2336 -0.1139
51581W        W52445  19.201   2.829  10.482 -0.0855  0.2843 -0.0624
51582W        W52446  18.288   0.935   9.477 -0.1431 -0.5370 -0.3095
51583W        W52447  20.080  28.742   8.133 -0.0757 -0.1312  0.2394
51584W        W52448  19.209  26.386   7.953  0.1173 -0.0205  0.1517
51585W        W52449  21.506  27.546  10.546  0.2277  0.2445  0.0874
51586W        W52450  19.771  28.275   8.992  0.0510 -0.0696  0.1295
51587W        W52451  19.380   0.045   9.771 -0.0214  0.1794  0.1885
51588W        W52452  23.862  26.870   7.901 -0.2053 -0.0918 -0.2722
51589W        W52453  19.094  25.838  10.043 -0.1204 -0.0470 -0.2000
51590W        W52454  22.364  28.351   6.714 -0.1343 -0.5586  0.0088
51591W        W52455  18.321  27.288   7.415  0.2458  0.1455 -0.0337
51592W        W52456  19.392   0.400  10.133  0.1283 -0.1512 -0.3473
51593W        W52457  21.771  24.617   7.887 -0.0410 -0.1274  0.0195
51594W        W52458  20.136  27.420   7.702 -0.1657 -0.1914 -0.0101
51595W        W52459  20.428  26.682  10.263  0.2318  0.0876  0.0171
51596W        W52460  18.700   0.600   6.999  0.1711  0.2465 -0.1045
51597W        W52461  20.764  25.638   9.735 -0.1059  0.0042 -0.0477
51598W        W52462  20.471  27.514   9.833  0.0415 -0.2432  0.2281
51599W        W52463  20.602  25.687   9.226  0.1217 -0.0816 -0.0892
51600W        W52464  17.805   0.105  11.030 -0.3212  0.2206  0.1684
51601W        W52465  23.633   1.330  10.226  0.1314 -0.2132  0.0059
51602W        W52466  20.968  28.307  10.115 -0.1134  0.4381  0.1061
51603W        W52467  17.995   1.686   8.807  0.0050  0.1195  0.1016
51604W        W52468  18.916   1.495   7.720 -0.4127  0.0496 -0.0766
51605W        W52469  23.825  28.358   9.221  0.1608  0.0656  0.0996
51606W        W52470  21.335  25.642   6.510  0.1109 -0.0502 -0.0545
51607W        W52471  18.954   0.574  10.051  0.5154 -0.0569 -0.2295
51608W        W52472  21.007  26.389  10.563 -0.0120  0.1571  0.0561
51609W        W52473  21.581  26.039   7.235 -0.0062 -0.0409  0.0376
51610W        W52474  19.059  28.483   4.768 -0.2583 -0.0107  0.0101
51611W        W52475  20.046  26.449   7.546  0.0639  0.1597 -0.0314
51612W        W52476  20.462  27.581   8.077 -0.0619 -0.0839 -0.0431
51613W        W52477  19.439  28.624   8.535 -0.3874 -0.2163  0.1839
51614W        W52478  17.885  27.397   8.988 -0.0262 -0.2750  0.0997
51615W        W52479  19.805  28.053  10.562  0.1743  0.0184 -0.0153
51616W        W52480  17.906  24.355   3.902  0.0683  0.0879  0.0108
51617W        W52481  19.679  24.718   9.480 -0.2087  0.0122  0.1916
51618W        W52482  21.406  25.711   8.169  0.2079  0.2084  0.3820
51619W        W52483  23.751   1.883   8.200  0.0117  0.0014  0.0262
51620W        W52484  19.432  29.128   5.845  0.0836 -0.1265 -0.3434
51621W        W52485  19.697  27.821   7.685 -0.2320  0.0782  0.0241
51622W        W52486  21.189  24.239   7.252 -0.0629  0.1622 -0.2419
51623W        W52487  18.450  28.549  10.419  0.2429 -0.0999  0.0135
51624W        W52488  22.799  24.734  10.780  0.1492 -0.1698 -0.1232
51625W        W52489  19.180  27.701   8.613 -0.2422 -0.0117  0.1972
51626W        W52490  21.209  25.933   6.908  0.1720  0.0694  0.2637
51627W        W52491  18.842  26.933   6.288  0.0906 -0.2539 -0.1471
51628W        W52492  18.845  26.154  11.350  0.0811 -0.0322  0.1733
51629W        W52493  18.746  27.418   8.408  0.1624  0.1319  0.1064
51630W        W52494  22.769  27.472   9.691  0.0798  0.0596 -0.0909
51631W        W52495  20.381  28.981   7.710  0.0294  0.0057 -0.1119
51632W        W52496  21.720  28.988   9.009 -0.1548  0.0414 -0.2740
51633W        W52497  21.198  27.598   7.825  0.1331  0.1323 -0.0456
51634W        W52498  19.929   2.203   8.310  0.2997 -0.1344 -0.1400
51635W        W52499  20.125  25.219   8.765 -0.1248  0.1268  0.0593
51636W        W52500  21.750  27.117   8.767 -0.0392 -0.1407  0.1227
51637W        W52501  19.283  27.532   6.938  0.5133  0.1142  0.2895
51638W        W52502  21.513  24.506   9.591 -0.1183 -0.0772  0.1366
51639W        W52503  21.233  27.322   6.775  0.0269  0.1448  0.0100
51640W        W52504  22.486  27.846  11.672  0.0351 -0.2035  0.0116
51641W        W52505  21.366   2.143   7.901 -0.2648 -0.0718 -0.0149
51642W        W52506  18.346  28.443  11.256  0.5521  0.0654 -0.0773
51643W        W52507  20.785  27.583   9.364 -0.2318 -0.1726 -0.0430
51644W        W52508  21.781  25.346   9.829 -0.1113 -0.3685 -0.2676
51645W        W52509  18.168  25.985   8.690  0.0993 -0.3627 -0.3549
51646W        W52510  19.072  25.284  10.101  0.0700  0.1540  0.2899
51647W        W52511  19.830  24.510   8.826 -0.0478  0.0421  0.2142
51648W        W52512  19.538  28.076   8.520 -0.0403 -0.0951  0.1786
51649W        W52513  16.290  28.310   8.406  0.0263 -0.0390 -0.1292
51650W        W52514  21.849   0.453   9.109  0.0175 -0.2198  0.1905
51651W        W52515  19.220  28.637   9.461  0.0562 -0.3457 -0.1845
51652W        W52516  21.559  27.954   7.763 -0.3935 -0.1125  0.0923
51653W        W52517  20.619   2.247   7.378 -0.0253  0.0915  0.1283
51654W        W52518  19.721  26.148   7.759 -0.2236  0.0232 -0.3040
51655W        W52519  18.142   1.088   8.138  0.1334  0.0308 -0.0612
51656W        W52520  23.025  25.988   9.131  0.2917 -0.3086 -0.0555
51657W        W52521  17.301   1.970   9.936  0.0829 -0.1429 -0.1156
51658W        W52522  19.886  27.338   8.131 -0.1223 -0.1079 -0.4561
51659W        W52523  18.327   0.816   8.549 -0.0317  0.2467  0.1531
51660W        W52524  19.571  26.986  10.482  0.1934  0.1153 -0.0087
51661W        W52525  18.547  27.346  10.724  0.0436 -0.3886 -0.0963
51662W        W52526  20.122  27.122   9.403 -0.0115  0.0309 -0.2579
51663W        W52527  19.654  27.520   8.596  0.2118  0.0954 -0.0823
51664W        W52528  18.920  28.991   9.585  0.0861 -0.2071  0.1191
51665W        W52529  19.084   0.979   6.447  0.1828 -0.2470 -0.1934
51666W        W52530  19.274  26.165   6.556 -0.0973 -0.1465  0.0883
51667W        W52531  17.248   0.100  14.194 -0.2815  0.1189  0.0979
51668W        W52532  16.707  27.194  12.620  0.0523 -0.1709 -0.2085
51669W        W52533  22.142   1.057  13.030  0.3627  0.0436 -0.2403
51670W        W52534  21.650   0.017  14.143  0.0348 -0.0099  0.1926
51671W        W52535  20.968   0.578  10.303 -0.0438  0.2089 -0.0250
51672W        W52536  20.363  26.929  13.481 -0.0882 -0.1714 -0.2343
51673W        W52537  19.877  28.515  14.039  0.2428 -0.0662 -0.1017
51674W        W52538  18.307  28.015  13.364  0.0035  0.3015 -0.2920
51675W        W52539  19.232  28.254  12.376  0.5124  0.2278  0.1730
51676W        W52540  18.166  27.692  12.926  0.1310 -0.0204 -0.2070
51677W        W52541  19.082  22.898  14.860 -0.1471 -0.1674  0.0959
51678W        W52542  21.226  24.687  11.791 -0.0008  0.0698  0.1477
51679W        W52543  20.100  27.863   8.795 -0.2085  0.2245 -0.0288
51680W        W52544  21.625  23.796  13.653  0.0867 -0.2297  0.1077
51681W        W52545  17.655  28.729  12.659 -0.1622  0.0476  0.1748
51682W        W52546  15.956   0.304  15.367 -0.1962 -0.0736  0.0788
51683W        W52547  21.177  27.296  12.707 -0.2148  0.1209  0.2472
51684W        W52548  17.180  23.579  14.698 -0.0805 -0.0257 -0.1317
51685W        W52549  19.666  27.018  14.021  0.2144  0.1347 -0.0195
51686W        W52550  21.783  28.495  13.107  0.1167 -0.1431 -0.1504
51687W        W52551  21.776  25.891  13.003 -0.1749  0.0615 -0.4513
51688W        W52552  21.735  27.552  13.128  0.0806 -0.0060 -0.1976
51689W        W52553  20.455  27.784  12.463 -0.1931 -0.0507 -0.0380
51690W        W52554  21.159   0.917  13.784  0.1291  0.2327 -0.4438
51691W        W52555  19.094  25.720  11.029  0.3148  0.0968 -0.3956
51692W        W52556  20.488  28.444  11.780  0.2708 -0.0584  0.0382
51693W        W52557  20.996  25.366  12.641 -0.0734 -0.0608  0.1399
51694W        W52558  20.617  27.633  10.614  0.1293 -0.0651 -0.2923
51695W        W52559  23.252   0.491  13.812  0.0349 -0.0383  0.1539
51696W        W52560  21.307  26.267  12.651 -0.1286 -0.0494  0.2728
51697W        W52561  17.011  25.843  11.531 -0.2310  0.1432 -0.1052
51698W        W52562  22.068  26.533  15.307 -0.2351 -0.4293  0.1959
51699W        W52563  20.042  27.875  17.786 -0.0034  0.0297 -0.2126
51700W        W52564  19.510   1.848  12.153 -0.2910  0.3573  0.2948
51701W        W52565  16.347  26.281  15.875 -0.0782  0.0435  0.2563
51702W        W52566  20.591   0.608  16.371 -0.2145  0.0664 -0.6496
51703W        W52567  18.703  27.031  13.312 -0.3284  0.0786  0.2566
51704W        W52568  20.502  28.914  13.435  0.1878 -0.0324  0.2162
51705W        W52569  24.503   0.940  11.637  0.2509  0.2578  0.1211
51706W        W52570  20.680  25.228  13.674 -0.2372 -0.1838 -0.0081
51707W        W52571  20.978  26.214  11.093 -0.3696 -0.1600  0.0606
51708W        W52572  22.795  26.853  17.966 -0.2454  0.1762 -0.0126
51709W        W52573  21.330  27.714  12.035  0.3925  0.2036 -0.0856
51710W        W52574  22.160  27.783  14.813  0.0705  0.0168 -0.3282
51711W        W52575  18.378   0.195  10.895 -0.3220 -0.0308  0.1214
51712W        W52576  17.706  28.305  12.433  0.0898  0.1687 -0.1536
51713W        W52577  17.498  24.179  11.977  0.1733  0.0466  0.3718
51714W        W52578  22.951  29.136  13.519 -0.0477  0.0786  0.1229
51715W        W52579  21.772  27.262  12.587  0.3212 -0.0810  0.2336
51716W        W52580  22.517  27.959  14.531  0.0959 -0.2309  0.0703
51717W        W52581  21.464  28.332  12.641 -0.2834 -0.0647 -0.2178
51718W        W52582  21.495  25.711  11.749  0.2949  0.2070 -0.1106
51719W        W52583  21.082  28.047  12.802 -0.1838  0.3155  0.4860
51720W        W52584  23.230  26.207  13.647 -0.1181 -0.1142 -0.1417
51721W        W52585  20.896  25.413  11.005 -0.2437 -0.2930 -0.2180
51722W        W52586  20.455  26.918  12.622  0.3001  0.1952  0.0689
51723W        W52587  16.328  23.775  10.955  0.2007  0.3979  0.1085
51724W        W52588  21.554  26.493  12.280 -0.0668 -0.0856  0.1604
51725W        W52589  17.656  27.722  12.442  0.1871  0.1168 -0.1324
51726W        W52590  20.821  28.209  11.482  0.0714  0.4118 -0.2771
51727W        W52591  20.891  27.374  11.788 -0.0542 -0.0546 -0.0277
51728W        W52592  18.492  26.913  15.799  0.1074 -0.4719 -0.0653
51729W        W52593  20.151  28.453  10.642  0.1107  0.1378 -0.0476
51730W        W52594  19.856  24.047  10.624 -0.0169  0.1200  0.1175
51731W        W52595  19.341  27.616  13.244 -0.0346  0.3240 -0.1703
51732W        W52596  20.769  26.532  12.678  0.2069 -0.1687 -0.1840
51733W        W52597  20.909  26.860  10.261  0.0861  0.1573  0.0725
51734W        W52598  18.498  25.946   9.347 -0.2486 -0.0082 -0.0729
51735W        W52599  19.274   1.084  11.261  0.2006 -0.1923  0.1914
51736W        W52600  20.554  27.699  11.480 -0.1712  0.2187  0.0907
51737W        W52601  22.831   1.268  17.006 -0.1198  0.0301  0.2484
51738W        W52602  19.507  24.547   9.937  0.1264 -0.2179  0.2324
51739W        W52603  20.149  27.092  11.471 -0.1120 -0.2176 -0.2040
51740W        W52604  18.296  25.254  15.698 -0.0593 -0.0125 -0.0327
51741W        W52605  22.080  25.617  13.459  0.2464  0.0847  0.1181
51742W        W52606  19.267   2.556  13.043 -0.1278  0.0286  0.1733
51743W        W52607  16.908  27.600  10.457  0.2490  0.1787  0.1385
51744W        W52608  19.929  24.414  11.797  0.0614 -0.2585 -0.1297
51745W        W52609  20.337  24.769  10.529 -0.1491  0.0739 -0.3040
51746W        W52610  18.822  26.514  13.345  0.0128 -0.1139 -0.0027
51747W        W52611  18.959   0.021  12.231 -0.0753 -0.3955  0.2290
51748W        W52612  18.933  25.905  13.780  0.1881 -0.0514  0.1118
51749W        W52613  20.061  29.134  12.452  0.0083 -0.0650  0.0529
51750W        W52614  18.289  25.268  12.330 -0.2279 -0.2051 -0.0077
51751W        W52615  20.443  23.056  17.330 -0.1667 -0.0269 -0.2375
51752W        W52616  20.609  24.085  11.366 -0.0129  0.3413 -0.0126
51753W        W52617  22.711  27.726  15.969 -0.0933  0.3730 -0.0542
51754W        W52618  18.654  27.284  15.507 -0.3510  0.1026  0.0229
51755W        W52619  20.250  25.950  14.422 -0.2070 -0.1521  0.1929
51756W        W52620  22.094  23.808  13.767  0.1645 -0.3446 -0.2221
51757W        W52621  20.188  26.602   9.379 -0.2897  0.2063 -0.3875
51758W        W52622  21.138   0.007  13.904  0.0167 -0.1370 -0.1407
51759W        W52623  18.947  26.786  12.953  0.0338 -0.2278  0.0776
51760W        W52624  18.495  25.718  12.369  0.1805  0.1502  0.2019
51761W        W52625  18.836  26.944  15.206 -0.0072 -0.2003 -0.4477
51762W        W52626  23.218  27.222  11.988  0.0075 -0.0497  0.1242
51763W        W52627  22.245  28.697  11.883  0.1535 -0.1778 -0.2003
51764W        W52628  19.694   0.998  15.257  0.1685 -0.1078  0.0059
51765W        W52629  19.035  24.295  13.451 -0.0932 -0.0556  0.0042
51766W        W52630  23.080  25.444  14.220 -0.3676  0.4137  0.1442
51767W        W52631  22.544   1.682  11.226 -0.0620  0.0872  0.1169
51768W        W52632  20.091  23.553  11.284  0.2576 -0.1161 -0.1523
51769W        W52633  19.626  24.459  10.532 -0.1613  0.2357  0.1544
51770W        W52634  21.850  27.940  12.340  0.0988  0.1414 -0.0932
51771W        W52635  20.804  24.271  12.551 -0.4140 -0.2626 -0.0527
51772W        W52636  21.484  27.486  16.207  0.0289  0.2371  0.1572
51773W        W52637  20.550  28.362  10.955  0.0366  0.0891  0.2343
51774W        W52638  20.147  27.933  13.338 -0.1452 -0.0158  0.3640
51775W        W52639  18.781  25.281  12.403 -0.3927 -0.1012 -0.1972
51776W        W52640  19.354  23.729  10.812  0.2269  0.0886  0.2111
51777W        W52641  19.347  26.690  14.470  0.2458 -0.0818  0.0273
51778W        W52642  22.724  27.861  12.164 -0.0871  0.1131  0.1960
51779W        W52643  23.136  28.505  11.562  0.1538 -0.1831  0.0878
51780W        W52644  18.833  27.020  11.300 -0.0114  0.1886 -0.0078
51781W        W52645  20.446  27.402   8.971 -0.0853  0.1099  0.2401
51782W        W52646  17.740  25.707  13.027  0.0046 -0.0776  0.3688
51783W        W52647  21.204  25.356  14.193  0.0767 -0.0573  0.2932
51784W        W52648  19.481  28.559  12.785 -0.1648  0.0307 -0.0177
51785W        W52649  21.053  26.467  13.087 -0.2052 -0.0439 -0.0941
51786W        W52650  22.238  27.234  12.422 -0.0974 -0.2557  0.0631
51787W        W52651  19.549  27.902  11.257  0.0717  0.2406 -0.2194
51788W        W52652  22.495  28.844  13.338  0.1881  0.3634  0.1887
51789W        W52653  23.208  28.565  14.637  0.0373  0.1479  0.0401
51790W        W52654  22.049  26.730  12.613 -0.1794  0.1284 -0.1974
51791W        W52655  22.088  26.948  13.686  0.2643 -0.2175 -0.2331
51792W        W52656  21.586  25.140  11.415  0.1691  0.0802 -0.2161
51793W        W52657  18.741  24.666   9.913 -0.1047 -0.0364 -0.1209
51794W        W52658  22.205  27.192  14.732  0.2088  0.0060 -0.0168
51795W        W52659  19.637  27.568  12.561 -0.1019  0.0946  0.1634
51796W        W52660  21.290  28.697  12.308 -0.1299  0.1054 -0.0900
51797W        W52661  19.658   0.619  14.825 -0.2399 -0.2402  0.0122
51798W        W52662  21.222  28.550  13.924 -0.1613  0.0401 -0.2173
51799W        W52663  22.083   0.509  13.105  0.1892 -0.0709  0.2485
51800W        W52664  21.192  25.582  11.386 -0.1651 -0.1216  0.2009
51801W        W52665  20.170  25.552  12.468 -0.3136  0.2283  0.0943
51802W        W52666  18.945  24.830  12.159  0.2323  0.1396  0.2299
51803W        W52667  22.372  25.984  13.687 -0.0211  0.1519  0.1541
51804W        W52668  21.320   0.430  15.568  0.0148 -0.2050  0.4170
51805W        W52669  21.291  28.802  14.421  0.1982 -0.2044 -0.0268
51806W        W52670  19.831   1.644   9.771 -0.0538  0.2161  0.1015
51807W        W52671  19.527  27.089   8.957  0.1445  0.1164 -0.1792
51808W        W52672  19.786  26.767  11.653 -0.1703 -0.1674  0.1035
51809W        W52673  18.695   0.133   9.908 -0.1530  0.0837 -0.0830
51810W        W52674  20.138  27.344  13.790 -0.5455 -0.0320  0.1942
51811W        W52675  21.459  28.057  15.390  0.0926 -0.4359  0.0954
51812W        W52676  19.470  23.145  12.494 -0.0221  0.0754  0.0893
51813W        W52677  21.721  27.998  14.067  0.0677  0.1327  0.0421
51814W        W52678  19.736   1.983  10.677  0.1169  0.1114  0.2123
51815W        W52679  19.149   2.216  12.150  0.2087  0.0222 -0.0869
51816W        W52680  18.417  26.763  12.993  0.3420  0.0338  0.2576
51817W        W52681  23.726  27.136  11.649 -0.0932  0.2394 -0.1897
51818W        W52682  18.997  25.628  13.186  0.1335 -0.0766  0.2413
51819W        W52683  21.499  27.810  13.581  0.2824 -0.3584  0.1912
51820W        W52684  16.745  26.104   9.421  0.2262 -0.0037  0.0648
51821W        W52685  20.928  26.962  12.992 -0.2574  0.4466  0.1747
51822W        W52686  21.076  28.101  12.162  0.1634  0.0109 -0.0117
51823W        W52687  16.959  28.641  12.137  0.0363  0.0422 -0.0825
51824W        W52688  18.668  27.014  10.369 -0.1333  0.0149 -0.1500
51825W        W52689  19.180  25.361  11.985  0.0906  0.2049  0.0714
51826W        W52690  24.481  27.647  13.420  0.0775  0.0146  0.0829
51827W        W52691  21.386  25.322  17.695  0.0073 -0.5233  0.2129
51828W        W52692  17.306  26.015  12.814  0.3985  0.0721  0.3388
51829W        W52693  19.556  26.537  11.181 -0.0368  0.1455  0.0925
51830W        W52694  21.974  26.806  13.194  0.0531  0.0788 -0.0563
51831W        W52695  20.998  24.513  16.549 -0.1461  0.1832  0.0312
51832W        W52696  17.149  24.734  15.311  0.0546  0.0063 -0.0906
51833W        W52697  18.780  26.855  10.830 -0.2348  0.3381 -0.2774
51834W        W52698  19.775   0.081  12.842  0.2425  0.0022  0.1636
51835W        W52699  20.869   0.562  14.667  0.1911  0.5005 -0.0056
51836W        W52700  20.803   0.351  12.686 -0.2956  0.0412  0.1648
51837W        W52701  22.301  27.642  12.128 -0.0556  0.0373  0.0485
51838W        W52702  22.354  23.369  13.121 -0.3046 -0.1772 -0.0117
51839W        W52703  20.405  26.410  14.173 -0.0918 -0.1616 -0.0112
51840W        W52704  20.538  28.815  10.789 -0.0350  0.0941 -0.2038
51841W        W52705  20.235  25.049  12.568  0.1705 -0.1635 -0.0935
51842W        W52706  21.097  25.896  15.816  0.2292  0.1255  0.0727
51843W        W52707  16.081  27.557  13.902  0.1146  0.2666 -0.1965
51844W        W52708  19.686  26.454  13.727  0.0966 -0.0218  0.0281
51845W        W52709  17.296  28.160   9.745 -0.1049  0.0819  0.1074
51846W        W52710  21.298  25.701  12.174  0.0927 -0.1352  0.1497
51847W        W52711  18.619  25.708   8.549 -0.0416  0.0504  0.1402
51848W        W52712  21.797  28.708  12.140 -0.1797  0.1722  0.1039
51849W        W52713  18.400  27.479   9.944 -0.0095 -0.0399 -0.0269
51850W        W52714  20.300  25.438  11.331  0.3512  0.0469 -0.3369
51851W        W52715  19.259  26.870  11.823  0.3220 -0.1487 -0.2945
51852W        W52716  21.707  25.293  12.910  0.0577  0.2103  0.3085
51853W        W52717  20.554  25.612  12.921  0.1567  0.2660 -0.1234
51854W        W52718  18.147  27.037   9.259  0.2113  0.0164 -0.3876
51855W        W52719  20.316   1.580  11.925 -0.2506 -0.1040  0.0881
51856W        W52720  17.870   0.187  15.262 -0.2085  0.2570 -0.1508
51857W        W52721  22.272  26.476  13.534  0.1953 -0.1876 -0.1929
51858W        W52722  16.028  26.149  11.216  0.3295  0.1888 -0.0785
51859W        W52723  19.622  27.247  16.475  0.2662  0.0398 -0.0145
51860W        W52724  18.788  24.669  15.038 -0.0503 -0.0096  0.0103
51861W        W52725  20.517  27.481  12.072  0.0820  0.1161  0.1195
51862W        W52726  18.348  27.008   9.755 -0.1872 -0.1947  0.3940
51863W        W52727  16.512  27.104  10.346 -0.1529 -0.0532  0.2973
51864W        W52728  17.463  26.850  14.469 -0.2423  0.1486  0.0071
51865W        W52729  17.096  26.075   9.771  0.1283 -0.2828 -0.0094
51866W        W52730  20.326  25.167  13.233 -0.0428 -0.0571 -0.0900
51867W        W52731  19.644  26.348   8.977  0.1438  0.1549 -0.0121
51868W        W52732  20.180  28.297  13.717  0.0936 -0.3446  0.1938
51869W        W52733  20.059  26.425  11.935 -0.0776 -0.0602  0.1676
51870W        W52734  19.040  23.265  13.608  0.2302  0.0067  0.3005
51871W        W52735  19.234  26.686  13.746  0.1065 -0.1673 -0.2565
51872W        W52736  16.632  26.795   9.856  0.2550  0.0958  0.3107
51873W        W52737  18.030   1.924  13.709 -0.1634  0.3421 -0.2051
51874W        W52738  20.705   0.259  11.692 -0.1046 -0.0174 -0.3946
51875W        W52739  18.705   0.406  14.413  0.0354 -0.3464  0.0794
51876W        W52740  20.932  28.621  10.448 -0.2971 -0.0538 -0.0455
51877W        W52741  20.462   0.582  13.042 -0.1168  0.0789 -0.4377
51878W        W52742  17.549  26.169  15.121 -0.0081  0.0153  0.0093
51879W        W52743  20.044  26.769  12.336 -0.3846 -0.1472  0.0990
51880W        W52744  22.907  26.656  15.218  0.1360  0.3015 -0.1330
51881W        W52745  22.875  26.385  16.481 -0.0660  0.0728 -0.1231
51882W        W52746  22.361  28.481  11.055  0.1746  0.1752 -0.0756
51883W        W52747  20.153  27.255  12.419 -0.0697 -0.0502  0.1569
51884W        W52748  22.306  28.323  11.560  0.3369 -0.0925  0.0904
51885W        W52749  21.434  27.707  12.613  0.0582 -0.3001  0.1176
51886W        W52750  19.586  28.101  14.020 -0.1869  0.2832 -0.0681
51887W        W52751  18.576  28.129  15.217  0.0485  0.0595 -0.0582
51888W        W52752  24.062  27.564  10.879 -0.1040 -0.1535  0.0666
51889W        W52753  18.355   3.070  12.712  0.0163  0.1408  0.2452
51890W        W52754  22.131  26.739  11.643  0.1355  0.0039  0.0099
51891W        W52755  21.031  28.548  11.817  0.1455  0.1217 -0.3323
51892W        W52756  19.445  28.032  12.878  0.1926 -0.0861  0.1197
51893W        W52757  22.243  27.818  14.161 -0.0421  0.0001 -0.2538
51894W        W52758  24.934  27.273  12.984  0.1167  0.0116  0.2886
51895W        W52759  18.734   2.174   9.910 -0.0117  0.2053 -0.0332
51896W        W52760  22.691  27.631  12.611 -0.1013 -0.0831  0.2144
51897W        W52761  19.691  27.097  12.195  0.0558 -0.2004  0.2392
51898W        W52762  19.613   0.437  12.539  0.1946  0.0613 -0.0126
51899W        W52763  17.369  27.857  10.546 -0.0942  0.1419  0.0479
51900W        W52764  22.176  27.184  14.223 -0.1054 -0.0055  0.1671
51901W        W52765  19.504  28.316  14.802  0.0399 -0.2864  0.3406
51902W        W52766  20.402   0.078  12.791  0.0399 -0.0072 -0.2730
51903W        W52767  22.496  26.366  11.881 -0.0299  0.3574 -0.0945
51904W        W52768  19.408  28.979  14.747 -0.2428  0.2018  0.2083
51905W        W52769  19.886  26.248  14.834  0.0872 -0.0182 -0.1743
51906W        W52770  17.801  27.621  11.464  0.0195  0.0951  0.1823
51907W        W52771  20.316   0.728   9.562  0.0087 -0.3683  0.1454
51908W        W52772  16.692   0.572  16.389 -0.0916  0.0601 -0.1041
51909W        W52773  18.581  26.583  11.266  0.2503  0.2939 -0.1885
51910W        W52774  20.061  26.558  12.799 -0.2831 -0.0200 -0.0711
51911W        W52775  20.642  26.710  12.214  0.0485 -0.0031 -0.2430
51912W        W52776  19.703  28.549  10.812 -0.3524 -0.0944  0.0511
51913W        W52777  22.439  27.391  15.172 -0.0905 -0.0665  0.0123
51914W        W52778  18.933  29.134  14.688 -0.3090  0.2581  0.1972
51915W        W52779  22.713  28.542   8.063 -0.1850 -0.0677 -0.1317
51916W        W52780  19.483  25.570  12.298  0.3276 -0.0217  0.1685
51917W        W52781  19.496   1.859  12.684 -0.0686 -0.0398  0.0807
51918W        W52782  21.109   0.556  11.732 -0.0354  0.0077 -0.1543
51919W        W52783  20.810   1.315  13.678  0.0901 -0.1502  0.3165
51920W        W52784  20.973  25.872  11.859  0.0622 -0.3353  0.0766
51921W        W52785  17.259  26.978   8.777 -0.1558 -0.1556 -0.0486
51922W        W52786  20.980  28.679  11.006  0.0732 -0.1531  0.2076
51923W        W52787  22.964  24.699   9.931  0.1356  0.1097  0.0693
51924W        W52788  19.485  25.762  13.099 -0.3143  0.0108 -0.1099
51925W        W52789  22.916  27.507  11.658  0.2116  0.0367 -0.3154
51926W        W52790  20.627  27.364  12.683  0.0655 -0.1575 -0.1808
51927W        W52791  18.243  24.159  11.218  0.1720  0.1115  0.1077
51928W        W52792  20.569  28.017  12.888  0.1176  0.0444  0.2095
51929W        W52793  21.276  28.634  13.000 -0.1386 -0.2921 -0.0940
51930W        W52794  18.655  26.345  13.788 -0.1972 -0.0589 -0.1096
51931W        W52795  17.260   2.921  12.334  0.1689 -0.0204  0.1427
51932W        W52796  18.790   0.886  14.951  0.0892 -0.2814 -0.0778
51933W        W52797  18.881  26.301  10.302  0.0094  0.0997  0.1610
51934W        W52798  23.618  28.386  10.729  0.2156 -0.1526 -0.1064
51935W        W52799  18.015  27.433  11.923  0.2372 -0.2283 -0.0144
51936W        W52800  24.099  25.593  11.485  0.1672 -0.1865 -0.2440
51937W        W52801  18.115  28.859  14.197 -0.0967 -0.0655  0.0974
51938W        W52802  21.846  26.954  12.170  0.0236  0.2661 -0.1601
51939W        W52803  22.855  25.908  13.534 -0.1354  0.1616 -0.1931
51940W        W52804  18.942  26.656  14.139 -0.0029  0.1754 -0.0144
51941W        W52805  21.988   1.425   9.245 -0.0056  0.2127  0.0286
51942W        W52806  21.090  24.986  14.650 -0.2837 -0.3213  0.1486
51943W        W52807  19.042  28.068  14.472  0.1162  0.0513 -0.2764
51944W        W52808  17.691  27.450  12.854  0.0504  0.1725 -0.2697
51945W        W52809  19.416  26.428  11.677  0.1071 -0.3181 -0.2704
51946W        W52810  18.368  27.015  14.389  0.1429  0.0337 -0.2676
51947W        W52811  19.691  25.814  12.644  0.1542 -0.0386 -0.1640
51948W        W52812  18.316  25.329  10.966  0.1908 -0.0485 -0.0240
51949W        W52813  19.036  26.347  12.621 -0.1867  0.0037  0.2435
51950W        W52814  19.240  27.763  11.663  0.0170  0.1122 -0.2778
51951W        W52815  18.391  28.035  10.285 -0.0474 -0.1202 -0.3171
51952W        W52816  21.351  26.854  14.224  0.0811  0.2004 -0.0465
51953W        W52817  22.967  26.995  13.306  0.0516 -0.3416 -0.1365
51954W        W52818  18.729   0.882  16.560 -0.0971  0.0704  0.3521
51955W        W52819  19.739  25.401  10.502 -0.1863 -0.0468  0.0403
51956W        W52820  20.173   1.080  10.820 -0.0942  0.2863  0.2712
51957W        W52821  20.825  27.969  13.357  0.1053  0.1945  0.2289
51958W        W52822  21.789  24.376  12.523  0.1276  0.0798 -0.0121
51959W        W52823  21.396  26.700  15.956  0.2831 -0.1174  0.0142
51960W        W52824  20.518  26.661  13.079  0.1207  0.1776  0.2519
51961W        W52825  19.006  27.926  11.172 -0.1486  0.2263 -0.1518
51962W        W52826  21.384  27.208  12.158 -0.0584  0.4098  0.3600
51963W        W52827  15.933  26.310  10.743  0.1301 -0.0663  0.0043
51964W        W52828  22.637  26.937  12.485 -0.1442 -0.0043  0.0455
51965W        W52829  21.337  27.280  13.217  0.0576 -0.2278  0.0675
51966W        W52830  19.919  27.768  12.238  0.0021  0.1908  0.1862
51967W        W52831  18.511  27.333  12.130  0.1570 -0.1476  0.0715
51968W        W52832  17.634  27.136  15.390 -0.0531 -0.1155  0.4649
51969W        W52833  21.365   0.402  11.331 -0.0592  0.0691 -0.0608
51970W        W52834  20.429  29.001  10.314 -0.3907 -0.0054  0.0361
51971W        W52835  20.841  27.120  13.458  0.1330  0.0276 -0.1952
51972W        W52836  19.031   1.233  15.311  0.0862 -0.1206  0.1770
51973W        W52837  20.074  27.815  13.995  0.0392 -0.0532 -0.1862
51974W        W52838  21.820  27.193  10.334  0.1300 -0.1322 -0.2640
51975W        W52839  20.829  26.005  14.892  0.3065 -0.3733 -0.2554
51976W        W52840  19.889   0.779  11.765  0.0906 -0.0267  0.3110
51977W        W52841  18.581  25.138  13.969  0.4626 -0.1195  0.4353
51978W        W52842  19.393   0.015  12.496 -0.3014  0.2783 -0.4610
51979W        W52843  22.605  25.523  13.370 -0.1362  0.2838 -0.5315
51980W        W52844  17.356   1.196  12.078 -0.0432 -0.1213 -0.2476
51981W        W52845  17.455  28.206  12.884 -0.1402 -0.1093  0.2542
51982W        W52846  19.467   3.896  13.763 -0.4767 -0.0740  0.1289
51983W        W52847  17.727  24.701   9.686  0.0614  0.1850 -0.1731
51984W        W52848  19.755  27.324  11.160 -0.2149  0.0970  0.1354
51985W        W52849  22.680  28.023  15.630 -0.0389 -0.2896  0.1097
51986W        W52850  21.928  26.206  12.520  0.2558  0.2680 -0.0918
51987W        W52851  17.716  28.977  15.569  0.0537 -0.4037 -0.0429
51988W        W52852  20.744   0.650   7.798  0.2205  0.1587  0.0394
51989W        W52853  18.304  26.524  14.314  0.0485 -0.1664 -0.3171
51990W        W52854  19.544  28.777  10.405 -0.1436  0.1476  0.3129
51991W        W52855  16.851  26.206  12.617 -0.3442  0.0645  0.2233
51992W        W52856  20.579  26.941  13.918 -0.0647  0.0031  0.0243
51993W        W52857  21.904  23.678  13.207 -0.0100 -0.2415  0.2161
51994W        W52858  19.088  26.647  11.163  0.0722  0.2617 -0.3932
51995W        W52859  20.167  25.496   7.829  0.0747 -0.2630  0.1149
51996W        W52860  19.603  27.486  10.378 -0.3231 -0.0718 -0.0164
51997W        W52861  20.992  28.466  12.617 -0.3617 -0.0495 -0.0369
51998W        W52862  20.659  26.758  10.719  0.1160  0.0514 -0.1633
51999W        W52863  22.968  29.027  14.504 -0.0651  0.2345 -0.1161
52000W        W52864  19.492  28.143  16.227 -0.0571  0.2344  0.1854
52001W        W52865  24.122  25.978  12.980 -0.2156 -0.0168 -0.1968
52002W        W52866  21.322  28.356  14.943  0.1701  0.0555  0.0715
52003W        W52867  19.240  27.401  12.089  0.1210 -0.3242 -0.0468
52004W        W52868  22.347  28.014  12.635  0.1933  0.0433  0.1071
52005W        W52869  20.413  25.902   9.941 -0.2433  0.0628  0.1652
52006W        W52870  18.932  24.483  10.809 -0.2760 -0.1068 -0.0570
52007W        W52871  21.356   1.110  13.378 -0.1350 -0.0514  0.1401
52008W        W52872  20.742  24.895  13.222 -0.0183 -0.2074 -0.2776
52009W        W52873  20.684  26.047  16.088  0.2318 -0.1956 -0.0553
52010W        W52874  20.142  28.149  10.144 -0.4676  0.2369  0.3431
52011W        W52875  18.171  25.063  11.408  0.1197 -0.4468  0.2284
52012W        W52876  21.160   0.059  13.198 -0.2279  0.2493  0.0360
52013W        W52877  18.154  25.497   9.970 -0.1004  0.0981  0.1401
52014W        W52878  18.097  26.920  10.190 -0.0894  0.3255 -0.1205
52015W        W52879  21.222  29.029  12.691  0.0782  0.4660  0.1738
52016W        W52880  19.222  25.849  11.879  0.1109  0.0609  0.0381
52017W        W52881  20.221  26.674  11.125  0.0002 -0.1443  0.0200
52018W        W52882  21.713  24.150   9.978 -0.0933 -0.0434  0.1868
52019W        W52883  20.180  28.216  12.305 -0.2528  0.3654 -0.1133
52020W        W52884  19.564   1.307  12.984 -0.0573 -0.0145  0.0344
52021W        W52885  19.876   1.201  11.406  0.1533  0.2976 -0.1601
52022W        W52886  18.450  26.536  10.439  0.6621  0.1688  0.2200
52023W        W52887  19.647   2.025  15.064  0.3106  0.3120 -0.2883
52024W        W52888  19.588  26.305  16.076 -0.1592  0.0183 -0.2189
52025W        W52889  19.151  26.547  16.003  0.0788 -0.0794 -0.0890
52026W        W52890  16.480   0.261  10.682  0.0378  0.1450  0.0767
52027W        W52891  18.310  25.695  10.585  0.2836  0.1018 -0.2763
52028W        W52892  18.625  24.775  13.654 -0.1158 -0.3059  0.1745
52029W        W52893  18.183  26.581  12.567 -0.1122 -0.3583  0.4566
52030W        W52894  19.527  26.129  10.450 -0.1583  0.0840 -0.2689
52031W        W52895  19.799   0.580  13.560  0.1754 -0.0349 -0.0762
52032W        W52896  20.943  27.598  12.988  0.1261  0.0781  0.1859
52033W        W52897  22.050  27.648  12.693 -0.0728 -0.1080  0.1216
52034W        W52898  22.578   0.110  11.235 -0.0366  0.0492  0.0979
52035W        W52899  19.753  23.098  11.585  0.1115  0.2268  0.0552
52036W        W52900  21.292  26.922   9.968 -0.4655 -0.2612 -0.0820
52037W        W52901  20.138  28.107   9.280 -0.0486 -0.1294 -0.0166
52038W        W52902  22.857  28.124  12.714  0.1904 -0.2142 -0.2604
52039W        W52903  20.611   1.191   9.746  0.0065  0.2369  0.0744
52040W        W52904  20.383  24.985  14.245  0.2492  0.3240  0.5153
52041W        W52905  20.321  28.015  10.631 -0.0523 -0.0938  0.0648
52042W        W52906  17.713  25.285  11.659 -0.3004 -0.5323  0.4120
52043W        W52907  19.239  27.182   9.516 -0.1219  0.0605  0.0680
52044W        W52908  21.828   0.292  12.754  0.0183  0.0442 -0.0445
52045W        W52909  19.576  24.212  15.834  0.0299  0.1605  0.0484
52046W        W52910  20.130  27.269  14.267  0.1040  0.3057 -0.1728
52047W        W52911  21.788  26.394  11.490 -0.0533 -0.0783  0.1629
52048W        W52912  18.451  27.019  11.706  0.1182 -0.0889  0.0133
52049W        W52913  20.463  24.215  10.579  0.1850  0.0036  0.3010
52050W        W52914  19.759   0.012   9.380  0.1529  0.2271  0.0098
52051W        W52915  21.355  27.387  13.871 -0.1309  0.1847 -0.0528
52052W        W52916  19.094  27.962  16.706  0.0159 -0.0857  0.1943
52053W        W52917  20.508  28.482  10.293 -0.2093  0.0448 -0.0752
52054W        W52918  19.268   0.441  12.093 -0.1960  0.2344 -0.1800
52055W        W52919  19.096  27.752  13.974 -0.1438  0.4404 -0.1454
52056W        W52920  20.705  29.069  15.143  0.0806  0.0789 -0.1122
52057W        W52921  20.379  27.772  18.161 -0.0444 -0.0057 -0.1937
52058W        W52922  21.590  26.384  13.078  0.2740 -0.1290 -0.0529
52059W        W52923  20.216   0.505  10.858 -0.1385 -0.0013  0.0106
52060W        W52924  21.248  26.532  11.351 -0.3295 -0.2572  0.0211
52061W        W52925  20.736  28.954  13.010 -0.1722  0.4084 -0.0818
52062W        W52926  22.723  27.716  14.910 -0.0860  0.2206  0.0400
52063W        W52927  20.036  28.925  10.699 -0.3433  0.0596 -0.1542
52064W        W52928  19.078   0.573  14.665 -0.2762  0.1724  0.1730
52065W        W52929  18.369   3.166  10.637 -0.1213  0.0173  0.0986
52066W        W52930  20.584  27.163   9.414 -0.1923 -0.0970 -0.0817
52067W        W52931  15.841   1.460  19.655 -0.0005 -0.0446  0.0795
52068W        W52932  19.164  29.044  17.664 -0.0760  0.0082 -0.0553
52069W        W52933  20.025  28.778  13.644  0.0377 -0.1058  0.1745
52070W        W52934  22.923  27.928  18.123  0.1702  0.2049  0.3147
52071W        W52935  18.162  28.970  11.170 -0.1641  0.0872  0.1121
52072W        W52936  18.036  24.868  17.079 -0.1084 -0.0391  0.2344
52073W        W52937  18.804  27.970  13.225 -0.0384 -0.1048  0.2835
52074W        W52938  20.018  27.773  14.522  0.0219  0.2031  0.2020
52075W        W52939  20.856   0.402  18.223  0.4795 -0.0045  0.1423
52076W        W52940  18.124  27.213  15.318  0.0695 -0.1826  0.0437
52077W        W52941  21.976  23.694  18.349  0.1948 -0.0078 -0.1668
52078W        W52942  20.016  26.114  17.630 -0.0381 -0.0394  0.0350
52079W        W52943  18.687  28.736  15.520  0.0472  0.0049 -0.2110
52080W        W52944  22.173  27.162  19.193 -0.0799  0.2181  0.0099
52081W        W52945  18.188  26.451  15.816  0.1999 -0.1241  0.0960
52082W        W52946  19.302  28.138  17.458  0.2383  0.2784  0.0421
52083W        W52947  20.458   1.083  15.146  0.3044  0.0947 -0.0970
52084W        W52948  17.217  26.764  17.283  0.1522 -0.1381  0.0630
52085W        W52949  20.691  26.524  15.259  0.1678 -0.1618  0.0850
52086W        W52950  21.037  25.712  15.306 -0.0968  0.3233  0.0703
52087W        W52951  19.556  27.649  16.084 -0.2361 -0.2023 -0.1180
52088W        W52952  18.675  25.264  19.366  0.1921  0.3071  0.0255
52089W        W52953  21.326   2.011  17.636 -0.0363  0.0093  0.3222
52090W        W52954  18.435  27.420  17.031  0.0489  0.2657 -0.1987
52091W        W52955  17.808  24.847  19.452  0.0078 -0.1316 -0.1586
52092W        W52956  17.911  26.157  17.815  0.1182  0.0607  0.0028
52093W        W52957  22.927  24.172  17.297 -0.2086 -0.1505 -0.0969
52094W        W52958  20.166  27.083  14.909 -0.2455 -0.2413  0.2085
52095W        W52959  21.094  28.962  18.296 -0.0995 -0.1762  0.1312
52096W        W52960  21.279   0.644  18.562  0.0009  0.0993 -0.2216
52097W        W52961  17.729  27.073  18.723 -0.1592 -0.0660  0.2165
52098W        W52962  20.973  27.736  19.589 -0.0251  0.0028 -0.3021
52099W        W52963  19.854  23.377  19.526  0.3960  0.0237  0.0477
52100W        W52964  17.570  26.499  17.687 -0.0927  0.0966  0.0999
52101W        W52965  18.177  26.827  18.739 -0.0808  0.2912  0.1577
52102W        W52966  20.788   4.246  20.750 -0.1605  0.0018  0.1703
52103W        W52967  17.952  26.046  15.446  0.0488 -0.2552  0.2945
52104W        W52968  18.755  25.836  17.823 -0.0870  0.1156 -0.0434
52105W        W52969  22.590   0.369  19.052 -0.2649 -0.3090  0.0654
52106W        W52970  21.687  25.946  16.506  0.1147 -0.0890  0.0108
52107W        W52971  19.935  25.723  14.805  0.0156 -0.1644  0.0637
52108W        W52972  21.105  27.274  17.764 -0.0947  0.2765 -0.0127
52109W        W52973  18.689   0.080  17.756 -0.1504 -0.0149  0.3524
52110W        W52974  21.238   2.948  13.463  0.1994  0.0007 -0.0668
52111W        W52975  18.323   0.353  15.976  0.0123 -0.2567  0.1105
52112W        W52976  17.878   1.474  14.948 -0.0054  0.0982 -0.1014
52113W        W52977  16.660  26.321  16.659 -0.0630  0.1497  0.1672
52114W        W52978  20.113  25.552  15.360  0.0469  0.0677  0.2113
52115W        W52979  20.500  27.539  13.429 -0.2313  0.0972 -0.2434
52116W        W52980  21.771  26.542  13.604 -0.1098  0.0804 -0.1362
52117W        W52981  19.088  28.044  17.980 -0.2860 -0.4772 -0.0313
52118W        W52982  18.240  27.001  17.296 -0.1987 -0.1645  0.1456
52119W        W52983  18.809  28.447  17.953  0.0034 -0.1403  0.1922
52120W        W52984  21.532  26.692  17.019 -0.1893  0.1204  0.0996
52121W        W52985  22.714  23.750  19.510  0.1428  0.2422  0.0681
52122W        W52986  20.378   0.019  16.641  0.0994 -0.0525 -0.1158
52123W        W52987  18.420  25.759  13.114  0.1114  0.0332 -0.1847
52124W        W52988  21.148  27.341  18.834 -0.2175 -0.1033  0.1309
52125W        W52989  17.734  27.557  16.259 -0.0004  0.1164 -0.0526
52126W        W52990  20.203  28.915  15.449  0.0831  0.1099 -0.0743
52127W        W52991  21.284  27.184  15.849 -0.1312 -0.2756 -0.0205
52128W        W52992  19.267  28.314  17.012 -0.0678 -0.0788 -0.3218
52129W        W52993  20.882  25.929  17.727  0.0527 -0.0640 -0.0578
52130W        W52994  19.960   0.792  13.963 -0.2405 -0.0166 -0.1111
52131W        W52995  18.399  26.766  13.882 -0.3381 -0.3838  0.0104
52132W        W52996  21.938  26.801  17.307 -0.0444  0.2591  0.2277
52133W        W52997  19.578  28.679  12.216  0.0070 -0.0498  0.1393
52134W        W52998  17.894  25.733  14.503 -0.0529 -0.0929 -0.2161
52135W        W52999  19.713   0.454  15.354  0.2636 -0.0870 -0.0914
52136W        W53000  18.820  28.631  18.509 -0.1956  0.0416 -0.3635
52137W        W53001  20.561   1.201  17.721 -0.1740  0.1926  0.3024
52138W        W53002  20.115  24.276  14.608  0.3457  0.1280 -0.0599
52139W        W53003  19.751   0.054  13.574  0.3836  0.1910 -0.0440
52140W        W53004  20.885  25.602  16.213  0.0834 -0.0754 -0.2158
52141W        W53005  22.087   0.479  16.033  0.1034  0.2321 -0.0835
52142W        W53006  21.137  27.800  18.077 -0.0603  0.0251 -0.0321
52143W        W53007  18.946  27.961  16.098 -0.0529 -0.0620  0.2258
52144W        W53008  17.811  27.343  17.083  0.1314  0.0995  0.1401
52145W        W53009  18.745  26.764  16.329  0.1936  0.1636 -0.0484
52146W        W53010  18.565  27.858  15.797  0.4283  0.3709  0.1737
52147W        W53011  19.723  28.745  15.678 -0.1664  0.4588 -0.2997
52148W        W53012  17.718  26.888  17.403 -0.0606 -0.0011 -0.1020
52149W        W53013  16.691  28.150  18.712 -0.1961  0.3740  0.0485
52150W        W53014  20.810  23.500  15.558  0.0405 -0.1331  0.1716
52151W        W53015  20.646  25.213  18.208 -0.1835  0.1352 -0.0922
52152W        W53016  19.204  27.102  13.299 -0.0919 -0.0317 -0.0007
52153W        W53017  21.473   0.064  20.685 -0.0957  0.2523  0.0074
52154W        W53018  21.138  26.380  17.798  0.1082  0.1267  0.0487
52155W        W53019  23.058   0.104  18.826  0.1864 -0.1142 -0.2994
52156W        W53020  21.118  26.868  17.449 -0.0315  0.1492  0.1766
52157W        W53021  18.379  27.623  15.174  0.2715 -0.2561  0.0262
52158W        W53022  25.646  27.829  20.127 -0.1358  0.2417 -0.0562
52159W        W53023  18.358   1.702  16.189 -0.2485 -0.2883  0.0253
52160W        W53024  19.569  27.754  14.936 -0.0661 -0.0713  0.1757
52161W        W53025  20.183  23.828  18.232  0.2909 -0.0093  0.1397
52162W        W53026  21.680  25.594  17.432  0.3859  0.0389  0.0217
52163W        W53027  21.233  26.887  16.575 -0.1450 -0.0931  0.3558
52164W        W53028  19.023  26.593  16.738  0.0432 -0.2863 -0.1515
52165W        W53029  20.433  25.213  15.439 -0.1371  0.1225  0.0186
52166W        W53030  19.654  25.420  15.182  0.1468  0.0080 -0.1379
52167W        W53031  22.246   1.208  14.365  0.2996  0.0858  0.2060
52168W        W53032  18.352   0.392  16.494  0.0068  0.1521  0.5645
52169W        W53033  20.978  24.121  13.001 -0.0205  0.0470 -0.1601
52170W        W53034  22.614   0.269  15.018  0.3506  0.2273  0.1633
52171W        W53035  21.430  24.890  17.858 -0.1195  0.2268  0.1216
52172W        W53036  20.008  25.406  18.752 -0.0746 -0.1072  0.1019
52173W        W53037  19.426  26.740  16.416 -0.1480 -0.1770 -0.2937
52174W        W53038  22.265  26.511  18.679  0.0419 -0.1694 -0.2213
52175W        W53039  20.028  25.300  17.902 -0.1004  0.1939  0.0166
52176W        W53040  19.248  24.220  16.250  0.0157  0.2002  0.0669
52177W        W53041  17.942  25.417  18.775  0.0059 -0.0336  0.2469
52178W        W53042  21.750   1.286  14.356  0.2415  0.3568 -0.1064
52179W        W53043  19.509  27.735  19.439 -0.1429 -0.3824  0.3225
52180W        W53044  19.284  28.856  18.166 -0.4976 -0.2742 -0.2304
52181W        W53045  20.292  27.626  12.956  0.1002  0.0525 -0.0488
52182W        W53046  18.034  24.953  17.584 -0.1673 -0.1141 -0.4093
52183W        W53047  21.494  28.447  17.908 -0.2087  0.1983  0.1575
52184W        W53048  19.998  26.403  16.793 -0.0912 -0.0406 -0.0124
52185W        W53049  17.992  28.893  18.171  0.2397  0.0039 -0.1902
52186W        W53050  18.024  24.628  16.507 -0.1004 -0.2976 -0.3738
52187W        W53051  20.158  26.590  15.089 -0.3430  0.2917  0.1265
52188W        W53052  17.862  27.601  15.066 -0.0128  0.2864  0.0439
52189W        W53053  20.988   2.365  19.444  0.2017 -0.1855 -0.0351
52190W        W53054  20.905  28.953  16.453  0.0124 -0.0130  0.0231
52191W        W53055  20.312  26.460  17.875 -0.4751 -0.2586 -0.3962
52192W        W53056  20.196  26.436  17.302 -0.1190 -0.1746 -0.3695
52193W        W53057  19.597  25.416  18.239  0.0422  0.2371 -0.1409
52194W        W53058  20.621  27.353  16.876 -0.1482 -0.1836 -0.1035
52195W        W53059  20.583  29.068  17.566  0.1135  0.0039 -0.2940
52196W        W53060  20.076  28.978  16.985 -0.1098  0.0708  0.2459
52197W        W53061  19.133   1.212  18.324  0.0569 -0.0034  0.0377
52198W        W53062  17.463  24.274  18.314 -0.0662 -0.1444 -0.1812
52199W        W53063  18.854  26.020  16.788 -0.5827  0.1620  0.0996
52200W        W53064  24.455  27.783  17.667 -0.2971 -0.0106 -0.0112
52201W        W53065  21.999  28.483  17.728 -0.0157 -0.1991 -0.3981
52202W        W53066  18.566  26.613  17.124 -0.2789  0.0195 -0.2744
52203W        W53067  18.117  26.435  16.331  0.2520 -0.2332 -0.1738
52204W        W53068  19.468  28.437  18.819  0.3590  0.1532  0.0740
52205W        W53069  19.831   0.129  14.810  0.4395 -0.4488 -0.2633
52206W        W53070  21.020  28.124  15.650  0.0136  0.1875 -0.1676
52207W        W53071  17.896  25.796  13.975  0.1992 -0.0890 -0.0005
52208W        W53072  19.471  27.743  17.722  0.2533 -0.1193 -0.1293
52209W        W53073  20.214  28.597  14.595 -0.0415 -0.2587  0.2827
52210W        W53074  18.561  28.483  13.192 -0.1056 -0.2084  0.1622
52211W        W53075  22.048  28.838  19.622 -0.2740  0.3220  0.2726
52212W        W53076  19.519  26.107  12.247  0.0197 -0.1535 -0.0172
52213W        W53077  20.626  25.283  15.971  0.2995  0.1790 -0.0059
52214W        W53078  19.064  27.443  16.880 -0.0521  0.2489  0.2158
52215W        W53079  20.758   1.036  16.365 -0.0385  0.1050  0.0640
52216W        W53080  16.192   0.301  16.153 -0.1656 -0.0598 -0.1345
52217W        W53081  21.458   1.343  14.892  0.2291  0.0551  0.0943
52218W        W53082  18.533  27.735  12.551 -0.1963  0.0010  0.0330
52219W        W53083  20.449  28.847  16.096 -0.3215 -0.2507 -0.1154
52220W        W53084  18.697  28.272  16.695 -0.2355  0.1043  0.0242
52221W        W53085  18.985  28.486  15.935 -0.2000  0.1757  0.2758
52222W        W53086  20.983  23.571  16.487 -0.2639 -0.1928 -0.1861
52223W        W53087  20.316   2.127  17.476 -0.1912  0.1224  0.1870
52224W        W53088  17.456  26.695  15.017 -0.0875  0.1117  0.0247
52225W        W53089  18.101  24.325  14.723  0.2692  0.1570  0.3724
52226W        W53090  18.550  26.381  16.607 -0.0391  0.1121  0.1588
52227W        W53091  20.136  23.557  20.558  0.0558  0.0152  0.0721
52228W        W53092  20.219  26.998  16.379 -0.2359 -0.0701  0.2732
52229W        W53093  23.650  26.760  19.058 -0.0492 -0.0031 -0.0306
52230W        W53094  20.955  25.764  20.014  0.2530  0.1790 -0.0919
52231W        W53095  19.692  24.049  18.480 -0.1518  0.1196 -0.3329
52232W        W53096  19.641  25.336  16.131 -0.1908 -0.3202  0.2345
52233W        W53097  19.602  24.236  18.949 -0.3067 -0.0413  0.5635
52234W        W53098  19.235   2.274  17.363  0.1704  0.0557  0.1129
52235W        W53099  18.543   1.563  16.957  0.0915  0.0049  0.5218
52236W        W53100  19.516  28.729  16.161  0.2996  0.2295 -0.2219
52237W        W53101  21.405  27.703  17.131  0.2560 -0.0169 -0.1064
52238W        W53102  20.489   0.838  17.306 -0.0294 -0.1380 -0.0109
52239W        W53103  18.030  26.504  17.377 -0.0260  0.0585 -0.1942
52240W        W53104  19.950  26.904  15.489 -0.3173  0.1646  0.0973
52241W        W53105  19.166  27.532  15.820 -0.2088 -0.2141  0.0164
52242W        W53106  21.372  25.560  19.046 -0.1741  0.0746 -0.0715
52243W        W53107  17.732  28.024  18.828  0.1069 -0.1535  0.2860
52244W        W53108  17.769  27.412  19.083 -0.2306  0.2430 -0.0988
52245W        W53109  18.904   0.439  17.489  0.0678  0.2076 -0.3221
52246W        W53110  18.751  24.115  17.719 -0.1370  0.1769  0.1933
52247W        W53111  20.996   0.532  13.113  0.2886 -0.0381  0.1526
52248W        W53112  19.945   1.628  14.931 -0.0061 -0.1636 -0.1787
52249W        W53113  20.004  28.437  15.336  0.2853  0.0105  0.1167
52250W        W53114  18.596  22.940  14.762  0.0677  0.0531 -0.1542
52251W        W53115  20.154  24.117  17.818  0.1611  0.0900  0.0856
52252W        W53116  20.592  26.747  19.479 -0.1500 -0.0270  0.0692
52253W        W53117  21.119  26.908  13.798  0.0113  0.0680 -0.1375
52254W        W53118  20.334  28.396  13.274 -0.0258  0.1715  0.1389
52255W        W53119  19.068  28.852  13.139  0.0906 -0.0299  0.2335
52256W        W53120  21.266  26.598  19.329 -0.0633  0.1805 -0.1405
52257W        W53121  22.655   0.235  13.105 -0.1196 -0.1899  0.3026
52258W        W53122  19.438   0.259  14.481  0.2349 -0.2557  0.2659
52259W        W53123  19.300  27.411  17.315 -0.1967  0.3169  0.0933
52260W        W53124  18.212  25.821  18.053  0.0131 -0.2134 -0.1971
52261W        W53125  18.873  24.631  17.894 -0.1575 -0.0319 -0.2079
52262W        W53126  18.010  25.672  15.761 -0.0402  0.2987 -0.0913
52263W        W53127  19.155  25.059  17.911 -0.0071 -0.0715 -0.0038
52264W        W53128  17.174  25.276  17.286  0.2443 -0.1675 -0.2060
52265W        W53129  16.922  26.424  15.782 -0.1608 -0.2825  0.0774
52266W        W53130  22.196  26.550  16.348  0.0472  0.1462  0.0608
52267W        W53131  18.270  26.276  18.140  0.2032 -0.1412 -0.1230
52268W        W53132  21.722  29.111  18.483 -0.1540 -0.3956 -0.1487
52269W        W53133  21.078  28.074  13.809 -0.3881  0.0791 -0.1494
52270W        W53134  16.799  25.059  16.805 -0.0468 -0.0713 -0.0621
52271W        W53135  20.727   0.154  16.178  0.0111 -0.2452 -0.1169
52272W        W53136  20.503  26.138  13.058  0.1050 -0.3866  0.4035
52273W        W53137  21.756  28.932  17.059  0.0137  0.1932  0.1795
52274W        W53138  21.471   1.524  17.602 -0.0688 -0.2718 -0.0137
52275W        W53139  20.303  26.790  14.504 -0.2114  0.1737  0.0513
52276W        W53140  19.945  27.678  18.406 -0.2817  0.2006 -0.2347
52277W        W53141  18.607  27.825  16.797 -0.0342 -0.0129 -0.2310
52278W        W53142  18.230  27.516  15.746  0.2365 -0.2131  0.0538
52279W        W53143  18.593  25.657  15.733  0.1277  0.0751 -0.3547
52280W        W53144  22.769  23.610  20.882 -0.1957  0.0584  0.0541
52281W        W53145  21.896  24.911  16.994  0.1196  0.0621  0.2580
52282W        W53146  22.327  27.949  16.207 -0.5248  0.0066  0.2123
52283W        W53147  19.866  27.010  13.542  0.2067 -0.0115 -0.2204
52284W        W53148  22.568  26.721  13.813  0.0550 -0.3056  0.3801
52285W        W53149  19.797  26.831  19.261 -0.2501 -0.1169  0.0664
52286W        W53150  19.842  25.963  18.561  0.1330  0.2669 -0.2000
52287W        W53151  21.919  25.047  17.593  0.1105 -0.0504  0.0029
52288W        W53152  19.677  26.631  17.382 -0.0096  0.1282 -0.1798
52289W        W53153  21.618   1.069  20.765  0.0272 -0.0672 -0.0870
52290W        W53154  19.880  26.870  16.703 -0.0580  0.2727  0.1167
52291W        W53155  21.668   0.255  17.221 -0.1249 -0.2819 -0.1501
52292W        W53156  18.623  24.314  19.423  0.1750 -0.0249  0.1476
52293W        W53157  20.803   1.563  19.007 -0.1661  0.0211 -0.0969
52294W        W53158  23.668  25.191  19.517  0.2543  0.1864 -0.3411
52295W        W53159  21.779   0.157  16.239  0.2154  0.0131  0.0622
52296W        W53160  19.770  27.748  16.530  0.0025 -0.4152 -0.1082
52297W        W53161  20.237  23.943  16.458  0.1597 -0.1007 -0.1206
52298W        W53162  18.852  25.176  20.304 -0.2487 -0.2251  0.3137
52299W        W53163  19.004   1.562  17.738  0.0136 -0.3275  0.0628
52300W        W53164  22.639  28.646  14.361  0.1872  0.0618  0.0850
52301W        W53165  19.735  24.383  18.103  0.3492  0.3131 -0.0580
52302W        W53166  18.830   2.070  17.736 -0.3232  0.4494 -0.0244
52303W        W53167  23.595  26.205  17.208 -0.0000  0.2766  0.0354
52304W        W53168  19.446  25.621  16.543  0.0125  0.1373  0.2930
52305W        W53169  19.935   2.055  17.826 -0.1181 -0.2052  0.2338
52306W        W53170  21.995   1.205  15.640 -0.0130  0.0215 -0.0859
52307W        W53171  20.011   1.359  13.319  0.0759  0.1434  0.5840
52308W        W53172  18.534  28.268  16.206  0.2437  0.0074 -0.0829
52309W        W53173  18.082  25.449  16.259 -0.1120 -0.1848 -0.0761
52310W        W53174  21.364  25.058  19.473  0.1211 -0.0131 -0.3121
52311W        W53175  20.708   0.096  18.569  0.0933 -0.0054  0.1224
52312W        W53176  21.154  27.010  14.763 -0.1852 -0.0109 -0.2084
52313W        W53177  22.734   2.040  18.105 -0.3459 -0.0708  0.2572
52314W        W53178  20.442  28.523  18.952 -0.1640 -0.1273  0.0847
52315W        W53179  21.117   1.195  17.796  0.1204  0.0169 -0.3120
52316W        W53180  19.010  25.901  14.667 -0.0390  0.2810  0.0260
52317W        W53181  19.348  26.031  15.029 -0.1601 -0.0431  0.0528
52318W        W53182  16.295   1.253  16.966  0.0044  0.3005 -0.1338
52319W        W53183  22.168   2.817  17.928  0.0157 -0.4053  0.1045
52320W        W53184  20.591  27.938  17.102  0.0108 -0.0576  0.1984
52321W        W53185  18.193  27.598  13.961  0.0346 -0.0708  0.1091
52322W        W53186  21.831   1.843  14.714 -0.1632  0.1492 -0.2431
52323W        W53187  22.490  24.898  17.724 -0.2001 -0.0249 -0.2283
52324W        W53188  20.076  24.380  19.400  0.1365  0.0652  0.1076
52325W        W53189  22.146  26.860  19.964 -0.0066  0.3635  0.1122
52326W        W53190  22.617  27.918  17.115  0.0997 -0.0526 -0.2247
52327W        W53191  20.241  26.113  18.259 -0.0128 -0.1381  0.1980
52328W        W53192  21.147  26.691  18.838  0.0200 -0.1286  0.0968
52329W        W53193  23.988  28.324  18.630  0.2449 -0.0879 -0.0536
52330W        W53194  18.839  24.558  18.390  0.1107 -0.0600 -0.0667
52331W        W53195  20.510   1.348  15.643 -0.2018  0.0198  0.0149
52332W        W53196  19.730  28.609  17.278 -0.0211  0.2648 -0.2494
52333W        W53197  17.626  28.040  15.174 -0.2101  0.1117  0.1276
52334W        W53198  20.960  27.564  13.608 -0.0300 -0.0460 -0.0768
52335W        W53199  18.285  22.341  15.490  0.0929  0.2083  0.1293
52336W        W53200  22.427  26.851  15.102  0.3196  0.0246  0.0389
52337W        W53201  19.394   1.702  13.271 -0.2775 -0.0393  0.0421
52338W        W53202  22.081  23.403  18.789  0.1240  0.1167 -0.2186
52339W        W53203  17.759  26.852  14.062 -0.0529 -0.0583 -0.2794
52340W        W53204  23.586  26.902  16.166 -0.0987 -0.0301  0.2693
52341W        W53205  22.261  24.938  19.708 -0.3265  0.0756 -0.1408
52342W        W53206  19.623  25.088  18.693  0.1204 -0.0448  0.1731
52343W        W53207  19.096  27.551  16.363  0.2305  0.0953 -0.2421
52344W        W53208  21.921  25.953  13.961  0.1024  0.0747 -0.0501
52345W        W53209  15.521  25.604  16.391 -0.1162  0.1556 -0.1547
52346W        W53210  18.693  22.766  18.040 -0.3730 -0.0771 -0.1750
52347W        W53211  18.356  23.943  16.927  0.1186 -0.2763  0.3223
52348W        W53212  20.574  27.428  14.029  0.3911  0.0925  0.0474
52349W        W53213  20.040  26.823  18.750  0.0662 -0.1262  0.2384
52350W        W53214  21.332  24.735  14.265 -0.1448  0.1458  0.1205
52351W        W53215  20.790  24.816  20.778 -0.0649  0.1037  0.1023
52352W        W53216  20.301   0.326  14.015 -0.2256  0.0702 -0.1977
52353W        W53217  17.397  27.317  17.387  0.2597 -0.3396  0.1031
52354W        W53218  21.482  26.107  17.327 -0.3027  0.4904 -0.1013
52355W        W53219  22.447  26.137  19.701  0.1408  0.5603 -0.1031
52356W        W53220  17.949  24.460  17.416  0.0622  0.0238  0.0880
52357W        W53221  18.884  27.767  15.454  0.1169 -0.1942 -0.2061
52358W        W53222  21.268   0.045  17.436 -0.0581  0.0185 -0.4374
52359W        W53223  19.765  27.714  13.580 -0.0725 -0.0749  0.3429
52360W        W53224  17.855  26.309  14.676 -0.1295  0.0818 -0.3120
52361W        W53225  17.237  27.308  15.634 -0.5909 -0.3104  0.3658
52362W        W53226  18.127  26.728  13.464 -0.1824  0.0901  0.1726
52363W        W53227  19.656   1.092  16.099  0.0725  0.0623  0.1564
52364W        W53228  23.331  25.843  17.694  0.0795 -0.2134 -0.1140
52365W        W53229  18.435   1.398  17.451 -0.0852  0.0168  0.4805
52366W        W53230  20.022  29.047  15.886 -0.0855  0.0172  0.0698
52367W        W53231  20.146  26.132  16.188  0.1364  0.0646 -0.1984
52368W        W53232  19.532   0.487  19.568  0.4312  0.1873 -0.2205
52369W        W53233  20.553  28.062  19.203  0.1063  0.2825  0.0671
52370W        W53234  20.517  27.902  13.782  0.2600 -0.0142  0.0161
52371W        W53235  18.748  27.975  13.731  0.2967  0.1610 -0.0500
52372W        W53236  20.942   0.307  20.528  0.0214  0.0290 -0.2860
52373W        W53237  19.113  23.690  17.897  0.5354  0.1656 -0.2867
52374W        W53238  19.406  25.549  17.191 -0.0772 -0.1913  0.3143
52375W        W53239  21.130   0.381  13.566 -0.1529  0.1380  0.1186
52376W        W53240  21.201  24.630  17.001  0.1564  0.0015 -0.0123
52377W        W53241  18.504  26.127  15.461  0.1676 -0.0354  0.2044
52378W        W53242  19.300  25.162  16.893 -0.0796 -0.2085 -0.0351
52379W        W53243  18.488  26.136  17.124 -0.1822 -0.0311 -0.1806
52380W        W53244  20.021   0.378  15.756 -0.0546  0.1019 -0.3622
52381W        W53245  21.279  25.977  18.707 -0.0636  0.2127  0.0116
52382W        W53246  18.217  25.150  18.403 -0.2639  0.2879 -0.1872
52383W        W53247  21.537  25.701  16.938  0.3231  0.1426  0.3017
52384W        W53248  19.400  27.918  18.688  0.2654  0.0565 -0.1308
52385W        W53249  18.273  27.261  16.189  0.2621  0.0194 -0.0520
52386W        W53250  18.146   1.721  16.643 -0.1083 -0.0254  0.0059
52387W        W53251  21.197   0.453  14.236  0.0292  0.2763  0.1419
52388W        W53252  18.552  27.673  16.311  0.3478  0.1132 -0.3233
52389W        W53253  19.178  27.205  17.739 -0.0608 -0.0458 -0.1369
52390W        W53254  19.313  28.000  15.727 -0.2401  0.1334 -0.0039
52391W        W53255  17.884   2.013  17.890  0.0925 -0.2351 -0.1798
52392W        W53256  18.561  26.800  17.611  0.1657 -0.0401 -0.0750
52393W        W53257  19.739  27.485  14.123 -0.0357  0.0024 -0.1073
52394W        W53258  19.018  25.930  15.379 -0.2425  0.1230 -0.2876
52395W        W53259  18.045  28.935  17.003  0.2602 -0.1516  0.1446
52396W        W53260  20.497  25.564  17.890  0.0263 -0.0804 -0.0241
52397W        W53261  23.085  27.250  13.838 -0.1312 -0.0356 -0.0983
52398W        W53262  20.254  27.286  18.340 -0.1799  0.1148 -0.1934
52399W        W53263  21.427   1.122  19.429  0.1665  0.1146  0.1615
52400W        W53264  20.756  28.180  19.752  0.6286 -0.0198  0.2667
52401W        W53265  21.354   1.478  18.564 -0.0847 -0.3377 -0.1196
52402W        W53266  19.515   0.968  16.974 -0.1304 -0.0966  0.0775
52403W        W53267  19.759  28.146  15.808 -0.0864 -0.0069 -0.0663
52404W        W53268  21.053  28.325  18.703 -0.0533  0.3291  0.3570
52405W        W53269  20.279  25.277  17.427 -0.1568  0.0056 -0.1970
52406W        W53270  22.026   0.363  17.639 -0.2303  0.1759  0.1526
52407W        W53271  18.410  24.990  18.922 -0.0916  0.0103  0.3448
52408W        W53272  20.264  24.929  16.838 -0.0041  0.0416  0.2779
52409W        W53273  17.154   0.498  16.037  0.0722  0.3633 -0.0479
52410W        W53274  19.504  26.789  18.256  0.0901 -0.1825  0.0677
52411W        W53275  17.990  26.392  16.859 -0.2707  0.0148 -0.1105
52412W        W53276  18.645   0.009  16.304  0.3084 -0.0552 -0.3715
52413W        W53277  18.186  27.697  14.486  0.0626 -0.0332  0.1595
52414W        W53278  18.501  28.048  17.839 -0.4895 -0.2118  0.2011
52415W        W53279  17.089  26.012  14.379 -0.1195  0.0668  0.1502
52416W        W53280  21.555  28.768  15.226  0.0125 -0.0085  0.0693
52417W        W53281  20.922  25.168  15.213 -0.0359  0.0599 -0.0318
52418W        W53282  18.195  27.283  14.795 -0.2680 -0.0423  0.0679
52419W        W53283  19.835  28.286  14.473  0.0667  0.0816  0.1107
52420W        W53284  21.007   0.715  16.972 -0.0368  0.2331  0.4369
52421W        W53285  19.762  25.906  15.255  0.3459  0.3661 -0.1790
52422W        W53286  19.702  28.807  17.828 -0.0992  0.0808  0.2212
52423W        W53287  19.815  27.906  18.860 -0.4759 -0.0639 -0.0852
52424W        W53288  19.868  25.626  17.398 -0.0991  0.0620 -0.1051
52425W        W53289  17.611  25.556  16.523  0.0648  0.2478 -0.0194
52426W        W53290  18.066  26.261  13.846  0.1290  0.0402 -0.0007
52427W        W53291  19.966  27.039  21.035 -0.1057 -0.5604 -0.0802
52428W        W53292  18.453  27.559  17.586  0.2238  0.1117 -0.1986
52429W        W53293  22.197  25.254  17.987  0.1471 -0.0754 -0.0143
52430W        W53294  18.896   0.745  18.397  0.0597 -0.1611  0.2295
52431W        W53295  19.865  27.537  17.393 -0.0299  0.0998  0.0738
52432W        W53296  19.094  29.043  15.225  0.0731  0.0414  0.0459
52433W        W53297  18.480  28.822  17.948 -0.1737 -0.3302 -0.1683
52434W        W53298  19.872  25.549  16.906 -0.1308  0.0718  0.2228
52435W        W53299  23.079  25.345  20.949 -0.1336  0.2121  0.0895
52436W        W53300  20.875  28.522  14.631  0.0918  0.0284 -0.0915
52437W        W53301  19.832  28.341  17.736  0.1986  0.0453 -0.3303
52438W        W53302  19.053  27.586  14.626  0.1771 -0.2322 -0.0413
52439W        W53303  22.451  28.853  19.307  0.1965 -0.2577 -0.0272
52440W        W53304  19.436   1.218  15.626 -0.0279  0.0701  0.1685
52441W        W53305  18.087  27.949  17.561 -0.2906  0.1900  0.0250
52442W        W53306  17.991  23.979  18.847 -0.0376  0.1621  0.0551
52443W        W53307  18.879  26.302  17.620  0.1016  0.0134 -0.0950
52444W        W53308  21.952  24.743  18.028  0.3741  0.0498 -0.2907
52445W        W53309  17.375  26.876  16.849 -0.1680 -0.0681  0.1053
52446W        W53310  22.458  25.679  17.089 -0.2102  0.4270 -0.1994
52447W        W53311  19.231   0.392  16.968 -0.4344  0.2091  0.0077
52448W        W53312  16.765  25.517  15.713 -0.1593 -0.0394 -0.2490
52449W        W53313  22.570  28.351  16.418  0.0484 -0.0192 -0.1892
52450W        W53314  18.064  27.683  18.002  0.3206 -0.2638 -0.0755
52451W        W53315  22.804  24.056  18.842 -0.0270  0.1430  0.3290
52452W        W53316  21.778   0.187  15.760 -0.0763 -0.0462 -0.4417
52453W        W53317  18.148  28.220  17.072 -0.1501  0.2797  0.0509
52454W        W53318  18.434  25.644  17.041  0.0545 -0.2617  0.2176
52455W        W53319  20.707   1.835  15.710  0.1226  0.2484 -0.0235
52456W        W53320  20.285  27.384  20.252 -0.0723 -0.1568  0.0421
52457W        W53321  20.490   0.425  15.837 -0.2819  0.0997 -0.1371
52458W        W53322  20.824  27.692  15.510 -0.0583  0.0043 -0.0131
52459W        W53323  23.733   0.926  20.399 -0.0892  0.0548  0.0036
52460W        W53324  18.659  29.125  15.804 -0.1174 -0.1332  0.0437
52461W        W53325  18.387  27.300  18.273 -0.1575  0.0740  0.0004
52462W        W53326  20.010  27.402  15.532  0.3533 -0.0340  0.1640
52463W        W53327  21.812  27.651  17.496 -0.1892  0.2694 -0.1012
52464W        W53328  20.745  29.066  17.086 -0.1110 -0.4978 -0.0181
52465W        W53329  20.024  28.910  16.366  0.1466 -0.0359 -0.1467
52466W        W53330  17.176  27.247  23.966 -0.0392  0.0806 -0.0572
52467W        W53331  18.921  27.156  20.473 -0.2414 -0.0843 -0.4286
52468W        W53332  22.041  26.370  19.923 -0.0700  0.1039 -0.0444
52469W        W53333  22.708  28.902  18.347  0.1163  0.1978 -0.0002
52470W        W53334  19.181  28.395  18.324  0.0416 -0.0978 -0.0328
52471W        W53335  19.092  28.292  21.382  0.2042 -0.3155  0.0278
52472W        W53336  21.430  25.692  20.283 -0.1079 -0.1270  0.3959
52473W        W53337  20.283  28.155  17.481  0.1014  0.1252  0.0060
52474W        W53338  20.538   1.158  22.247 -0.1118  0.0695  0.2133
52475W        W53339  14.786  24.564  20.214  0.1662  0.2056  0.0052
52476W        W53340  20.747  25.908  22.543  0.3738  0.0158  0.1108
52477W        W53341  23.087  26.203  19.500 -0.0724  0.1765  0.1971
52478W        W53342  21.231  27.857  18.617  0.1363  0.1601 -0.1547
52479W        W53343  18.817  27.507  21.745 -0.0481  0.0553 -0.0185
52480W        W53344  19.427  25.992  21.030 -0.2125 -0.0987  0.4722
52481W        W53345  17.776  27.495  22.521 -0.1070 -0.1149 -0.0391
52482W        W53346  20.237   2.453  18.428 -0.3524 -0.1539  0.4489
52483W        W53347  19.799  25.221  21.718  0.0061 -0.1790 -0.0575
52484W        W53348  19.320  27.587  21.417  0.4643 -0.2355  0.3905
52485W        W53349  20.129  25.045  18.370 -0.0580 -0.0923 -0.0007
52486W        W53350  22.489  27.572  20.669  0.2031  0.1322 -0.0567
52487W        W53351  19.742  24.906  19.541 -0.1779 -0.1320  0.1128
52488W        W53352  20.717   0.278  21.328  0.0730 -0.0497  0.0372
52489W        W53353  20.784  28.146  23.905  0.0293 -0.1339 -0.4041
52490W        W53354  21.790  27.212  19.876  0.0086 -0.0622  0.0703
52491W        W53355  18.900  25.706  22.409 -0.3112 -0.2659  0.1036
52492W        W53356  21.741  25.850  23.439 -0.4294  0.2863  0.0926
52493W        W53357  20.081   1.620  21.761 -0.1156  0.1773 -0.2402
52494W        W53358  21.156   0.666  21.468 -0.3394  0.0503  0.3853
52495W        W53359  20.390  25.717  19.237  0.2513 -0.1738 -0.1223
52496W        W53360  19.676  26.882  19.746  0.1690  0.0042 -0.1166
52497W        W53361  22.692   0.412  20.817 -0.0589 -0.0946  0.3039
52498W        W53362  18.817  26.749  22.535  0.0944 -0.0496 -0.0184
52499W        W53363  20.843  27.502  21.491  0.1403  0.2318  0.1382
52500W        W53364  20.879  25.590  21.745  0.0320 -0.2267 -0.3706
52501W        W53365  22.278  27.438  21.122 -0.4332 -0.0547  0.1114
52502W        W53366  16.623  26.246  17.892 -0.0720  0.1976  0.0869
52503W        W53367  20.399  27.695  22.289 -0.1287 -0.3511  0.1161
52504W        W53368  19.018  27.675  20.405 -0.1370 -0.0754  0.2817
52505W        W53369  21.589  22.691  20.763 -0.1462  0.1675  0.1711
52506W        W53370  23.830  22.496  18.946 -0.0874  0.1218  0.1930
52507W        W53371  21.948  27.295  22.077  0.1040  0.2572  0.0644
52508W        W53372  19.596   0.636  20.547  0.2447 -0.1398 -0.1806
52509W        W53373  21.564  27.459  17.923  0.0515 -0.0425 -0.2194
52510W        W53374  17.621   0.768  16.072 -0.0804 -0.2686 -0.1446
52511W        W53375  20.547   3.503  18.200  0.3556  0.1331  0.3043
52512W        W53376  15.837  26.354  19.188  0.2408  0.2152  0.1102
52513W        W53377  22.254  26.537  25.546  0.1905 -0.0172 -0.0196
52514W        W53378  24.027  24.794  21.740  0.0858 -0.1064 -0.0094
52515W        W53379  20.658  27.996  16.201  0.0992  0.2393 -0.0031
52516W        W53380  21.157  28.204  21.074  0.0687 -0.3780 -0.1890
52517W        W53381  20.624   0.673  21.943  0.0946 -0.1261 -0.2269
52518W        W53382  20.761  27.425  22.501  0.3161  0.0698 -0.0644
52519W        W53383  19.532   2.303  18.570 -0.2073 -0.3517  0.1699
52520W        W53384  18.635  25.430  18.654  0.2253 -0.0298 -0.0945
52521W        W53385  18.085   0.234  18.874 -0.4618  0.0420 -0.0502
52522W        W53386  17.912  27.496  18.460 -0.1237  0.1806 -0.0106
52523W        W53387  20.090  26.619  15.900 -0.0804  0.2609  0.2102
52524W        W53388  19.306  26.699  19.323 -0.4274 -0.1804  0.0314
52525W        W53389  18.442   0.067  19.637  0.0309 -0.0492  0.0113
52526W        W53390  20.155  25.626  18.336  0.0587  0.0779  0.1186
52527W        W53391  18.474  27.140  18.950  0.2051  0.1306  0.0400
52528W        W53392  18.682  25.442  24.404 -0.0018 -0.2998 -0.0437
52529W        W53393  19.334  28.176  19.188 -0.3573 -0.1230  0.1029
52530W        W53394  19.792  23.604  18.560 -0.1663 -0.4074 -0.1557
52531W        W53395  20.690  21.806  21.896 -0.0704 -0.0541 -0.2058
52532W        W53396  19.422  27.222  19.300  0.2933 -0.1972 -0.2211
52533W        W53397  20.766  25.404  17.496  0.0134 -0.0905 -0.1893
52534W        W53398  21.010   2.406  21.421  0.0549 -0.2354  0.1206
52535W        W53399  20.601  28.583  17.332 -0.0841 -0.1534  0.1113
52536W        W53400  16.577  28.129  21.249 -0.1615  0.0264  0.0680
52537W        W53401  20.838  24.870  18.582  0.0725  0.1337  0.4602
52538W        W53402  21.559   0.273  17.729  0.2657 -0.1198 -0.1802
52539W        W53403  19.113  27.935  23.885  0.2290  0.1280  0.5357
52540W        W53404  19.376  29.070  19.053 -0.2763 -0.2723 -0.0524
52541W        W53405  20.148  28.494  22.111  0.1228 -0.0147  0.1928
52542W        W53406  21.042  28.197  21.610  0.1635 -0.1021 -0.0729
52543W        W53407  19.793  27.208  18.555  0.1384  0.0473  0.0648
52544W        W53408  18.837  28.085  19.192  0.0017  0.0127 -0.0264
52545W        W53409  22.030  28.259  18.940  0.1216  0.0170  0.3139
52546W        W53410  18.881  24.635  22.627 -0.0144 -0.0308 -0.0867
52547W        W53411  21.284  25.045  23.063 -0.2536 -0.2265  0.2052
52548W        W53412  19.578  26.788  20.697  0.0926 -0.1427  0.1448
52549W        W53413  21.733  23.672  23.171  0.0343  0.1271  0.0128
52550W        W53414  22.619  28.402  21.746 -0.0913 -0.0254 -0.1422
52551W        W53415  21.978  26.395  19.298 -0.1724 -0.0244 -0.0098
52552W        W53416  20.665   0.823  21.470  0.0024  0.2920  0.0543
52553W        W53417  21.092  26.935  21.464  0.3099  0.1578 -0.1354
52554W        W53418  20.362  27.205  20.706 -0.1030 -0.0899 -0.1015
52555W        W53419  20.154  28.888  20.675  0.1480  0.3672  0.0446
52556W        W53420  20.996  26.875  19.981 -0.0131 -0.0282 -0.0730
52557W        W53421  24.248  28.270  23.838 -0.0328 -0.1142 -0.1634
52558W        W53422  18.380  28.305  20.111 -0.2648 -0.1130 -0.1685
52559W        W53423  18.611  27.685  18.156  0.1799 -0.2638 -0.0989
52560W        W53424  19.533  24.186  20.987  0.2163 -0.1447 -0.0240
52561W        W53425  21.142  26.346  22.749  0.0530  0.0604  0.1304
52562W        W53426  23.868  26.509  18.019  0.3332  0.0224 -0.1556
52563W        W53427  20.978   1.342  21.335 -0.0044 -0.1035  0.1879
52564W        W53428  20.462  26.170  22.872  0.1351  0.2012  0.3684
52565W        W53429  22.925  24.869  18.477  0.0379  0.2688  0.2212
52566W        W53430  21.749   2.328  19.739 -0.0293 -0.1367 -0.0175
52567W        W53431  21.113  28.963  22.257 -0.0556  0.0162  0.0046
52568W        W53432  18.894  24.770  17.269  0.1172  0.3209  0.0389
52569W        W53433  18.472  26.697  22.163  0.1657 -0.3631  0.1815
52570W        W53434  23.263  26.226  21.282 -0.0481  0.0510  0.1433
52571W        W53435  21.561  28.494  20.891  0.3021  0.2925  0.0480
52572W        W53436  22.811  28.443  19.437  0.0550 -0.1110  0.2353
52573W        W53437  21.319  25.656  23.703 -0.1646  0.1114 -0.0492
52574W        W53438  19.293  25.254  21.801 -0.1611  0.2197  0.1892
52575W        W53439  16.071  26.660  20.615  0.0976 -0.1992  0.0044
52576W        W53440  21.615  28.038  22.318 -0.2380 -0.0360 -0.1014
52577W        W53441  19.679  25.498  20.226 -0.0118  0.3434 -0.0397
52578W        W53442  22.064   0.902  21.751  0.1622  0.0023 -0.1097
52579W        W53443  20.000   1.953  22.551 -0.3559  0.2787  0.1582
52580W        W53444  20.708  28.090  18.047  0.2854 -0.2593 -0.1572
52581W        W53445  21.484  28.865  19.657  0.0845  0.1236  0.0645
52582W        W53446  20.899  27.899  22.991  0.0724  0.1611 -0.3354
52583W        W53447  18.050  26.115  21.254 -0.3164 -0.1855 -0.3121
52584W        W53448  20.634  26.766  20.845 -0.3162  0.0387 -0.0802
52585W        W53449  19.985  26.818  18.002  0.0589 -0.1743 -0.0170
52586W        W53450  21.640  25.449  19.513  0.0086  0.2607  0.2419
52587W        W53451  21.305  28.534  20.000 -0.0236 -0.1043  0.2096
52588W        W53452  18.370  28.982  20.391  0.1333 -0.1313 -0.0074
52589W        W53453  21.146  24.134  19.557 -0.0112  0.0549 -0.0600
52590W        W53454  21.083  28.884  17.771 -0.5402  0.0981  0.0907
52591W        W53455  22.420  25.234  20.126 -0.3399  0.3010  0.0580
52592W        W53456  16.986  22.440  19.442  0.3961 -0.1750 -0.0861
52593W        W53457  19.137  28.407  22.358  0.0646 -0.1417 -0.0390
52594W        W53458  20.250   0.010  21.325 -0.0944  0.0107 -0.3153
52595W        W53459  19.080  28.090  20.706 -0.0166  0.2094 -0.0134
52596W        W53460  21.748  28.715  20.484  0.3084 -0.0264  0.1862
52597W        W53461  21.254  24.506  20.315  0.2757 -0.2103  0.1219
52598W        W53462  21.153  28.655  21.231  0.4978 -0.2962 -0.1159
52599W        W53463  22.516  23.325  17.195  0.2399  0.0686  0.0819
52600W        W53464  20.670  27.812  20.100 -0.1414  0.3965  0.5546
52601W        W53465  20.417  27.620  21.789 -0.1104  0.0942 -0.2409
52602W        W53466  20.943  24.892  20.208 -0.0763  0.0982 -0.1125
52603W        W53467  20.612  28.409  22.500  0.6342  0.1916  0.1029
52604W        W53468  20.396   1.881  18.197  0.0757  0.2467 -0.0835
52605W        W53469  20.704  29.102  18.044 -0.0470  0.1800  0.0788
52606W        W53470  20.188  21.287  20.501 -0.1241  0.0323  0.0979
52607W        W53471  19.287  25.757  20.050  0.1771 -0.1993 -0.1716
52608W        W53472  18.756   0.485  16.106 -0.0532  0.1356 -0.3175
52609W        W53473  19.921  28.355  19.173 -0.0435  0.1545 -0.0986
52610W        W53474  22.905  29.135  20.624  0.0479 -0.2116 -0.0515
52611W        W53475  18.976  26.764  17.378 -0.3184  0.0917  0.0297
52612W        W53476  25.212  23.559  20.905  0.1300  0.0517 -0.0598
52613W        W53477  22.363   0.814  22.281 -0.2481 -0.1339  0.0063
52614W        W53478  20.160   0.977  21.356 -0.2941  0.2143  0.3128
52615W        W53479  21.773  28.005  17.879  0.4598 -0.1523 -0.0997
52616W        W53480  20.136  28.193  20.531 -0.2124 -0.2105 -0.0393
52617W        W53481  19.159  23.941  19.745  0.1901 -0.2914  0.0107
52618W        W53482  18.521  26.375  21.392 -0.0745 -0.2767  0.2834
52619W        W53483  16.348  27.061  19.845  0.0525  0.0333 -0.0838
52620W        W53484  19.961  24.752  21.740  0.2821  0.1011  0.4869
52621W        W53485  21.091  25.134  21.459  0.1324 -0.1114  0.1719
52622W        W53486  19.892  26.893  22.456 -0.4417  0.0554  0.1722
52623W        W53487  19.337  25.988  16.880  0.2217  0.1280 -0.2986
52624W        W53488  20.460  27.577  19.640 -0.1844 -0.2221 -0.2341
52625W        W53489  23.609  25.071  20.862 -0.2323  0.1570  0.1332
52626W        W53490  22.303  27.946  21.346  0.1804 -0.1995  0.0778
52627W        W53491  17.040   0.557  21.312 -0.1147  0.1853  0.1355
52628W        W53492  19.464  27.065  21.162 -0.0801 -0.2248 -0.1544
52629W        W53493  22.628   0.096  21.771  0.2351 -0.0423  0.0683
52630W        W53494  21.830  24.943  21.515  0.0978  0.0564 -0.1640
52631W        W53495  20.388  27.043  19.862 -0.0569 -0.0188  0.0624
52632W        W53496  21.478  27.003  19.076  0.0411  0.1632  0.3224
52633W        W53497  18.455   3.028  19.743 -0.0927 -0.2805 -0.0049
52634W        W53498  20.486  28.615  19.549  0.0528 -0.0858 -0.0742
52635W        W53499  18.261  28.414  18.133 -0.2785  0.0609  0.0369
52636W        W53500  19.596  25.926  19.644 -0.0009 -0.1547 -0.3034
52637W        W53501  22.790  26.203  21.570  0.0561 -0.2025 -0.1783
52638W        W53502  20.987   0.671  19.564  0.1229 -0.0076  0.3772
52639W        W53503  19.270  28.826  18.620  0.2434 -0.0720  0.0960
52640W        W53504  20.509  24.872  19.941 -0.0726 -0.0122  0.0082
52641W        W53505  20.280  28.049  18.811 -0.0765  0.1891  0.2675
52642W        W53506  16.920   0.277  21.784 -0.1776  0.3458  0.2669
52643W        W53507  18.005  27.337  21.003 -0.0888  0.2617  0.1607
52644W        W53508  16.796   1.128  16.739  0.2289  0.1515  0.0771
52645W        W53509  21.000  25.238  20.992 -0.2510 -0.4370 -0.0553
52646W        W53510  20.707  27.785  18.671  0.0614  0.0316  0.0518
52647W        W53511  18.762   0.506  19.608 -0.0193 -0.0685  0.0032
52648W        W53512  20.073  26.895  20.185  0.1567 -0.2003  0.1132
52649W        W53513  19.384  27.385  18.774  0.2938 -0.4049 -0.0265
52650W        W53514  21.323  26.538  20.522  0.0143  0.0786  0.1533
52651W        W53515  23.336   0.464  21.389  0.1273 -0.2368 -0.2516
52652W        W53516  20.310  25.514  21.709  0.1992  0.0390 -0.0051
52653W        W53517  19.140  25.318  18.510 -0.2054  0.0989  0.0587
52654W        W53518  19.039   1.457  18.762 -0.3976 -0.1654  0.3740
52655W        W53519  19.386   0.314  17.521 -0.2288 -0.0364  0.0221
52656W        W53520  20.310  26.395  18.714 -0.0842 -0.0082  0.1660
52657W        W53521  19.831  27.432  19.060  0.0108 -0.1549 -0.1427
52658W        W53522  21.283  27.207  22.488 -0.2793 -0.1658 -0.2280
52659W        W53523  22.672  25.897  21.957 -0.2799 -0.3945 -0.1633
52660W        W53524  20.751  25.745  23.748 -0.0378 -0.2341  0.3333
52661W        W53525  20.280  24.825  19.369 -0.2449 -0.2082  0.0873
52662W        W53526  18.762  24.434  18.867  0.1458 -0.0602 -0.0683
52663W        W53527  18.664  25.926  18.427  0.3713  0.0129  0.0334
52664W        W53528  18.985  28.235  18.761  0.2605 -0.0547  0.2104
52665W        W53529  21.689  26.224  21.489  0.0276  0.0994 -0.2092
52666W        W53530  18.289  26.875  20.478 -0.1015  0.6488 -0.0879
52667W        W53531  21.746  21.878  21.663  0.1909  0.0806  0.2383
52668W        W53532  22.824   1.174  19.147 -0.2257 -0.0883  0.0378
52669W        W53533  17.658  26.043  19.279  0.1032 -0.1257 -0.0837
52670W        W53534  20.576  24.843  23.792  0.1347 -0.0559 -0.0750
52671W        W53535  17.940  26.606  18.342  0.0531 -0.4704 -0.2134
52672W        W53536  20.147  26.438  23.164  0.0453 -0.0014 -0.2276
52673W        W53537  21.009  25.412  20.376 -0.1630 -0.2585 -0.0604
52674W        W53538  22.666   0.170  17.489 -0.0953  0.0329  0.1634
52675W        W53539  19.652  25.139  15.611  0.0278 -0.3903 -0.1869
52676W        W53540  20.128  27.595  24.881  0.2024  0.0442 -0.2059
52677W        W53541  18.160  23.969  22.170  0.0897  0.2019  0.0647
52678W        W53542  18.575  23.907  21.419  0.0530 -0.1543 -0.3826
52679W        W53543  22.856  25.701  21.353 -0.1139 -0.1181 -0.3354
52680W        W53544  18.890  27.388  18.701 -0.0812 -0.0146 -0.4256
52681W        W53545  20.692  25.901  16.578 -0.2241 -0.0319  0.0924
52682W        W53546  19.592  28.219  20.089  0.1008 -0.0587  0.1348
52683W        W53547  22.546   1.196  15.699  0.2503 -0.1128  0.1274
52684W        W53548  19.175  27.062  21.802 -0.0231  0.1352  0.1447
52685W        W53549  19.598  26.710  20.206 -0.1386 -0.0248 -0.1278
52686W        W53550  22.078  27.702  22.340  0.3175 -0.0351  0.1485
52687W        W53551  19.549  25.178  22.247  0.1084 -0.3162  0.1862
52688W        W53552  19.981  26.008  22.948  0.2173  0.1170  0.1059
52689W        W53553  20.562  24.682  18.204  0.2912  0.0083 -0.0761
52690W        W53554  22.613   1.104  17.930  0.2328  0.0082  0.0508
52691W        W53555  19.740  23.235  18.903  0.1569 -0.1908  0.0964
52692W        W53556  19.828  26.263  21.416  0.4162  0.0354 -0.0958
52693W        W53557  19.020  25.916  20.603  0.2216 -0.0515 -0.0120
52694W        W53558  23.768   0.350  19.020 -0.3374  0.0732 -0.0530
52695W        W53559  19.961  28.585  19.675  0.1377  0.0621 -0.3443
52696W        W53560  20.220  24.296  20.484 -0.3166 -0.0662  0.1878
52697W        W53561  20.189  26.511  23.708 -0.0131  0.0757  0.0886
52698W        W53562  19.842  29.076  18.345  0.0258 -0.0156 -0.0925
52699W        W53563  19.232  28.307  19.687 -0.0050  0.0061 -0.1116
52700W        W53564  18.469  25.048  20.731 -0.1124 -0.0612  0.1964
52701W        W53565  18.432   0.348  20.791  0.0985 -0.2838  0.2136
52702W        W53566  20.463  25.934  24.284  0.0028 -0.1556 -0.0919
52703W        W53567  21.154  27.962  22.078 -0.1346 -0.2145  0.0943
52704W        W53568  20.723  25.853  18.330  0.1271 -0.0725 -0.1689
52705W        W53569  17.054   0.748  20.135 -0.1958 -0.0843  0.1162
52706W        W53570  21.189   2.363  18.012  0.0067 -0.0722  0.3082
52707W        W53571  18.468  27.119  20.880  0.2712  0.0543 -0.1192
52708W        W53572  20.487  25.071  20.439 -0.0394 -0.0965  0.1810
52709W        W53573  21.204  25.596  21.334 -0.0894  0.0143  0.1196
52710W        W53574  18.257  22.762  23.215 -0.2097  0.0259 -0.0223
52711W        W53575  19.333  28.477  17.833  0.0611  0.1051 -0.0438
52712W        W53576  20.805  26.453  20.302 -0.0023 -0.3734 -0.0854
52713W        W53577  17.372  28.382  20.547 -0.2130 -0.1756 -0.0397
52714W        W53578  21.476  28.974  18.927  0.0221  0.0009 -0.0183
52715W        W53579  21.877  25.253  18.944 -0.0772  0.2947 -0.1391
52716W        W53580  19.058  26.727  21.392 -0.0629 -0.0734  0.2939
52717W        W53581  18.714   1.114  22.462 -0.2026  0.0598 -0.0534
52718W        W53582  23.205  28.218  20.992  0.1266 -0.0917 -0.0301
52719W        W53583  20.552  25.782  22.083  0.2116  0.2649 -0.2496
52720W        W53584  20.156  25.952  16.672 -0.0955 -0.0593  0.2782
52721W        W53585  22.858  27.541  17.329 -0.0349  0.1226  0.3199
52722W        W53586  21.732  24.046  19.696 -0.1345 -0.3247  0.1445
52723W        W53587  22.792  24.783  21.441 -0.0198 -0.2731  0.1363
52724W        W53588  20.354   2.039  21.706  0.1134 -0.0581 -0.1580
52725W        W53589  22.659  22.214  21.206 -0.3039  0.0775  0.3447
52726W        W53590  21.936  26.724  17.805  0.0034  0.1164 -0.0364
52727W        W53591  21.442  25.007  22.548  0.2060 -0.2505 -0.1168
52728W        W53592  20.172   0.188  21.927  0.1059  0.2311 -0.4015
52729W        W53593  19.066  28.642  19.101  0.0806  0.1233 -0.0878
52730W        W53594  20.662   0.971  20.336 -0.1047  0.0257  0.0879
52731W        W53595  19.253   0.104  22.924 -0.1462 -0.1966  0.2280
52732W        W53596  17.324  27.675  15.970 -0.0994 -0.2440 -0.1699
52733W        W53597  20.310  26.187  19.631  0.1455  0.1317 -0.4040
52734W        W53598  19.949  23.313  20.008  0.3272 -0.4613  0.1516
52735W        W53599  22.054  27.163  17.654 -0.2962 -0.1928  0.1447
52736W        W53600  21.352  26.973  19.663  0.0926 -0.1055 -0.1036
52737W        W53601  18.260  26.438  22.633 -0.0670  0.0021  0.1262
52738W        W53602  19.435  26.867  22.572 -0.1380  0.1046  0.3585
52739W        W53603  20.238  27.063  19.165 -0.1104 -0.2628 -0.0497
52740W        W53604  20.037   0.679  18.687 -0.2459  0.2577  0.1210
52741W        W53605  19.477  24.926  21.464  0.2530 -0.2389  0.2286
52742W        W53606  20.267  25.349  22.555  0.0106  0.0625  0.2131
52743W        W53607  20.118  27.257  21.570 -0.0373  0.0867  0.0662
52744W        W53608  23.141  22.996  19.625 -0.0309  0.0627  0.1074
52745W        W53609  18.241  26.983  23.951 -0.0197 -0.0707  0.1341
52746W        W53610  19.832  27.375  20.024 -0.1373 -0.1446 -0.0167
52747W        W53611  17.618  25.619  15.990 -0.0323 -0.1410  0.0064
52748W        W53612  18.790  26.815  19.410  0.1209  0.0427  0.3045
52749W        W53613  18.783  28.519  19.558  0.0081 -0.1506 -0.0334
52750W        W53614  22.269  25.974  20.250 -0.2119  0.0581  0.2702
52751W        W53615  19.543  28.177  20.574 -0.0735  0.1535  0.4374
52752W        W53616  20.373  28.785  20.189  0.2936 -0.2155 -0.5406
52753W        W53617  18.470  26.774  23.269 -0.1286  0.5206 -0.0413
52754W        W53618  22.203  24.298  19.930 -0.0768  0.1568  0.0644
52755W        W53619  21.742   1.751  18.420 -0.0961 -0.0928  0.0009
52756W        W53620  21.225  25.103  18.249  0.0649  0.1602 -0.0881
52757W        W53621  20.089  26.699  19.632  0.1425 -0.0642  0.0559
52758W        W53622  22.487  24.152  19.234 -0.1499  0.1410 -0.3237
52759W        W53623  17.622  24.966  19.920 -0.1759 -0.0467 -0.0827
52760W        W53624  20.199  26.540  19.194  0.0267  0.2005 -0.1672
52761W        W53625  21.530  27.676  20.273 -0.0930 -0.2681  0.1970
52762W        W53626  20.070  23.837  19.724  0.2464 -0.1313 -0.2944
52763W        W53627  22.172  24.602  20.289 -0.0687  0.1027 -0.0997
52764W        W53628  24.139  25.670  21.128  0.0925 -0.0099 -0.3794
52765W        W53629  19.171   0.427  18.013 -0.1010 -0.1592 -0.1853
52766W        W53630  18.161  27.951  18.410  0.2777  0.0385  0.1406
52767W        W53631  17.183  25.926  23.455 -0.2947 -0.0019 -0.1186
52768W        W53632  18.511   2.007  22.156  0.0255 -0.0570  0.0563
52769W        W53633  22.514   1.611  20.621  0.1904 -0.0286 -0.0668
52770W        W53634  20.098   0.114  17.871  0.0418 -0.0736 -0.0982
52771W        W53635  18.918  27.567  23.041 -0.1318  0.4016  0.0558
52772W        W53636  21.547  28.955  21.144  0.0615 -0.0175  0.4588
52773W        W53637  19.863  25.623  19.218  0.1567  0.2051 -0.0762
52774W        W53638  21.831  24.178  20.294  0.1367  0.0849 -0.0762
52775W        W53639  17.918  28.287  21.623  0.1459 -0.0309 -0.0954
52776W        W53640  17.597  26.465  16.498  0.1576  0.1011  0.1384
52777W        W53641  20.153  25.978  21.804  0.0173 -0.0803  0.1115
52778W        W53642  19.937  25.151  19.172 -0.1145  0.1009  0.1887
52779W        W53643  20.951  29.046  24.236  0.2540  0.2419 -0.1307
52780W        W53644  19.885  27.208  20.518 -0.2113 -0.2131 -0.5470
52781W        W53645  18.633  28.926  23.570  0.3342 -0.0652 -0.0726
52782W        W53646  18.571  26.057  19.948 -0.0583  0.1581 -0.0462
52783W        W53647  20.148  28.790  17.511 -0.1391  0.1570  0.0751
52784W        W53648  19.739  28.382  21.826  0.0459  0.3366  0.1845
52785W        W53649  21.190  28.201  19.549  0.3727 -0.0379  0.0420
52786W        W53650  19.331  26.332  20.635 -0.1778  0.1842 -0.0575
52787W        W53651  23.073   2.070  19.061  0.0013  0.1169 -0.2930
52788W        W53652  17.693  24.465  22.582  0.1423 -0.1166  0.2719
52789W        W53653  20.521  26.574  19.925  0.2792  0.1511  0.0703
52790W        W53654  19.509  26.801  18.801 -0.1335  0.1170 -0.0460
52791W        W53655  18.141   0.309  21.749 -0.2064  0.1056  0.0424
52792W        W53656  20.899  25.767  18.898  0.1645  0.6072  0.0626
52793W        W53657  16.026   0.081  19.417  0.1256  0.0961 -0.3024
52794W        W53658  17.822  26.022  18.274  0.0584 -0.0278 -0.0874
52795W        W53659  19.718  28.130  19.630  0.1872  0.0953  0.0595
52796W        W53660  20.280  24.853  22.521  0.0204 -0.2915  0.1108
52797W        W53661  23.981  25.540  15.812  0.2163 -0.2483 -0.1457
52798W        W53662  21.414   0.137  21.476 -0.1150 -0.3911 -0.1262
52799W        W53663  19.285  27.522  21.964  0.3207  0.0607  0.0750
52800W        W53664  21.975  27.764  23.233 -0.1053  0.0600  0.0250
52801W        W53665  19.263  26.838  23.459  0.1546 -0.0002  0.0436
52802W        W53666  18.595   1.083  18.673 -0.0329 -0.3160 -0.1209
52803W        W53667  20.800  27.316  18.233 -0.1353 -0.0654  0.0921
52804W        W53668  20.058  26.068  19.048  0.3575 -0.1863  0.2418
52805W        W53669  21.382  27.470  19.790  0.2985 -0.3774  0.2178
52806W        W53670  20.124   0.606  20.553  0.1479 -0.0734 -0.3566
52807W        W53671  19.237  25.709  19.342 -0.0435  0.3519 -0.2999
52808W        W53672  19.862  25.153  20.713  0.1818 -0.3052  0.2228
52809W        W53673  20.097  27.782  19.232  0.1928 -0.1881  0.3409
52810W        W53674  22.043  27.935  19.317 -0.1885  0.1892  0.3757
52811W        W53675  19.918   1.119  21.816  0.0049 -0.0370 -0.0316
52812W        W53676  18.008  25.589  16.838 -0.0268 -0.3357 -0.4380
52813W        W53677  17.250  26.186  20.206  0.0699  0.1363  0.1844
52814W        W53678  18.070  27.385  19.938 -0.0553 -0.0364 -0.1544
52815W        W53679  18.796  24.925  19.866  0.0344 -0.1916 -0.1737
52816W        W53680  20.341  27.987  20.986 -0.2006  0.0010  0.0390
52817W        W53681  21.357  23.488  16.813  0.0326  0.0175 -0.0977
52818W        W53682  20.215  27.316  22.586  0.0022 -0.1797  0.0689
52819W        W53683  19.823  28.910  21.213 -0.0217 -0.1933  0.0947
52820W        W53684  20.632  26.705  18.930 -0.0135  0.2491  0.0154
52821W        W53685  18.215  25.778  18.542  0.1897  0.0169  0.0214
52822W        W53686  19.924  26.451  18.393 -0.1649  0.2919  0.2439
52823W        W53687  19.159  24.590  21.296 -0.3223 -0.0813  0.0272
52824W        W53688  16.278  26.651  21.166 -0.0901  0.0650  0.2638
52825W        W53689  17.953  27.836  21.103 -0.1444 -0.0072 -0.1746
52826W        W53690  19.779  25.763  21.497  0.0307 -0.1199 -0.0556
52827W        W53691  20.116  25.479  21.204  0.0122 -0.2141 -0.0236
52828W        W53692  21.481  27.875  19.475  0.1131  0.0232  0.0097
52829W        W53693  21.008  26.980  20.533  0.1003 -0.1146 -0.1177
52830W        W53694  20.009   0.636  22.740  0.0196  0.1412 -0.0609
52831W        W53695  22.214  28.550  23.691 -0.2100  0.1233 -0.2353
52832W        W53696  20.243   1.143  20.724 -0.0929 -0.0219 -0.2284
52833W        W53697  19.896  28.415  16.281 -0.0622  0.0235 -0.1764
52834W        W53698  21.562  26.435  18.929  0.5474 -0.2482  0.0067
52835W        W53699  20.799  26.259  18.671  0.1025 -0.2591  0.0007
52836W        W53700  20.778  26.977  22.287  0.0747 -0.2011  0.2709
52837W        W53701  21.517  26.375  19.665  0.2183 -0.1083  0.1714
52838W        W53702  19.890  27.246  19.525  0.2824 -0.0175  0.1201
52839W        W53703  20.430  27.758  22.783 -0.0948  0.0410  0.0532
52840W        W53704  19.781   1.443  20.746  0.2186  0.2280 -0.1435
52841W        W53705  22.554  25.854  22.480  0.0546  0.0105  0.3855
52842W        W53706  19.856  26.785  21.486 -0.1146 -0.0042 -0.0743
52843W        W53707  20.768   0.697  20.793  0.0278  0.3561 -0.1077
52844W        W53708  20.421  26.825  22.695  0.2233  0.0981  0.1754
52845W        W53709  21.771  27.247  22.569 -0.1152 -0.1707 -0.3617
52846W        W53710  20.769  25.432  22.834 -0.1719 -0.1428 -0.0886
52847W        W53711  18.853  29.073  18.244 -0.1065  0.1058  0.3805
52848W        W53712  18.142  26.623  21.634  0.1401  0.0905 -0.2275
52849W        W53713  22.625  28.231  22.205 -0.1446 -0.1417 -0.1230
52850W        W53714  17.987  27.129  21.458  0.1050 -0.0868 -0.0250
52851W        W53715  23.247  24.556  20.608  0.1224  0.0464  0.1312
52852W        W53716  23.965   3.236  17.976 -0.0056  0.0316 -0.1368
52853W        W53717  20.365  29.050  19.776  0.3810 -0.0547 -0.1501
52854W        W53718  17.953   0.624  19.176  0.5343 -0.1540  0.0723
52855W        W53719  19.492  28.653  19.877 -0.1696  0.0439  0.0502
52856W        W53720  20.417  26.996  21.264 -0.0567 -0.1872 -0.0168
52857W        W53721  17.312  27.682  21.646  0.0918 -0.0866 -0.0148
52858W        W53722  20.365  28.302  20.030  0.2372  0.0541  0.1372
52859W        W53723  19.304  29.004  20.295  0.0629 -0.0753 -0.1759
52860W        W53724  21.678  27.994  23.603 -0.0648  0.0023  0.1013
52861W        W53725  20.706  26.072  21.730  0.1881 -0.0257 -0.1548
52862W        W53726  20.418   0.698  19.071 -0.2183  0.0199 -0.0284
52863W        W53727  20.400  26.238  22.099 -0.1559 -0.0949  0.0094
52864W        W53728  18.657   0.336  18.521 -0.2946 -0.0462  0.2414
52865W        W53729  19.112  27.686  19.023 -0.1139  0.1059  0.2210
52866W        W53730  19.087   0.199  25.332  0.1032 -0.6595  0.0220
52867W        W53731  18.983  25.400  23.985  0.0577  0.1931  0.1379
52868W        W53732  22.525  27.513  22.157  0.3207 -0.1944 -0.0149
52869W        W53733  23.034  27.856  24.367  0.2650 -0.2105  0.0568
52870W        W53734  16.893   0.965  23.165  0.0610 -0.3313  0.1851
52871W        W53735  19.339  26.659  24.965 -0.1656 -0.0654  0.0306
52872W        W53736  19.266  26.996  26.726 -0.0278  0.0449 -0.3654
52873W        W53737  19.094  26.454  24.243 -0.1410  0.1153  0.2735
52874W        W53738  20.933  27.740  27.006 -0.0507  0.0530  0.2330
52875W        W53739  20.489  27.289  23.683 -0.2453 -0.0417  0.1156
52876W        W53740  21.512  25.366  21.716 -0.0667 -0.1843 -0.2027
52877W        W53741  22.360  27.757  24.206 -0.1313 -0.1316 -0.3274
52878W        W53742  22.119  25.995  21.637 -0.1472 -0.0658 -0.1057
52879W        W53743  24.431  25.868  27.893  0.2301  0.0532  0.0084
52880W        W53744  16.827  25.897  24.298  0.0145  0.0343 -0.0660
52881W        W53745  17.723  28.311  26.607 -0.1411 -0.4304  0.1655
52882W        W53746  21.159  28.867  20.427 -0.0497 -0.2847  0.1280
52883W        W53747  19.639  26.608  25.964  0.2490 -0.1652  0.1382
52884W        W53748  18.556  25.482  25.832 -0.0005 -0.1498 -0.0381
52885W        W53749  20.849  27.028  26.544  0.1491  0.0441  0.1854
52886W        W53750  20.732  28.226  25.899  0.0422  0.1339 -0.0072
52887W        W53751  18.903  26.685  23.073  0.1973 -0.1636  0.1125
52888W        W53752  20.511  27.218  23.023 -0.0838 -0.0098 -0.2645
52889W        W53753  18.764   0.853  24.125  0.2031 -0.0889  0.0333
52890W        W53754  20.981  26.163  24.923  0.0455  0.1306 -0.0890
52891W        W53755  17.956  27.920  24.504 -0.1298 -0.2038  0.2434
52892W        W53756  23.368  27.089  27.000  0.0820 -0.1918  0.2683
52893W        W53757  22.137  28.675  24.193  0.0915  0.4415 -0.0310
52894W        W53758  17.498  28.251  23.989 -0.0970  0.0941  0.0672
52895W        W53759  18.872  26.926  25.427 -0.2747  0.0228 -0.2423
52896W        W53760  22.009  28.099  24.424  0.1688 -0.1411 -0.0704
52897W        W53761  18.578   0.603  26.927  0.0293 -0.0399  0.3669
52898W        W53762  21.214  27.408  25.094 -0.0122 -0.0952 -0.1389
52899W        W53763  21.465  27.485  24.307  0.0950  0.0834 -0.1681
52900W        W53764  17.431  25.694  27.370  0.1316  0.0910 -0.2294
52901W        W53765  22.702  28.583  26.027 -0.1439  0.1965  0.1699
52902W        W53766  17.168  25.161  20.152  0.0179  0.1890 -0.2941
52903W        W53767  22.568  28.663  24.337 -0.1515  0.2014  0.0341
52904W        W53768  22.398  29.024  23.966 -0.2054 -0.1100 -0.1227
52905W        W53769  21.093  26.616  24.056 -0.0694  0.0647  0.2106
52906W        W53770  20.822  28.620  21.990  0.1863 -0.0264 -0.2219
52907W        W53771  23.617  27.215  25.621 -0.3058 -0.0164 -0.3675
52908W        W53772  23.571   2.790  24.331  0.3792  0.5312 -0.0581
52909W        W53773  23.549  28.777  23.294 -0.0062  0.0331 -0.2988
52910W        W53774  19.477   1.459  21.136 -0.0626 -0.4315  0.1667
52911W        W53775  20.269  28.572  24.932  0.3095  0.3259 -0.1474
52912W        W53776  19.121  25.693  26.342  0.1112 -0.0401 -0.1454
52913W        W53777  21.758  27.273  25.852 -0.0135  0.2232  0.0239
52914W        W53778  19.506  27.160  22.192  0.0550 -0.1387  0.2806
52915W        W53779  18.726  24.737  21.179  0.2055  0.1458  0.2789
52916W        W53780  19.196  28.742  25.892 -0.1622  0.1837 -0.1657
52917W        W53781  21.440  26.777  21.771 -0.1100  0.0738 -0.3340
52918W        W53782  19.060  27.973  23.371 -0.0556  0.0356  0.0665
52919W        W53783  21.197  28.419  22.525 -0.0851 -0.0261  0.0473
52920W        W53784  23.461  24.931  23.350  0.2446  0.0338  0.3107
52921W        W53785  19.479  25.027  20.418  0.0795 -0.0697 -0.1349
52922W        W53786  18.308  27.058  21.861  0.3132  0.1485  0.2347
52923W        W53787  21.307  26.453  23.217  0.0917 -0.2313 -0.0155
52924W        W53788  19.678  28.871  25.910 -0.0710  0.2782 -0.0231
52925W        W53789  18.978   0.749  21.487 -0.3588  0.0580 -0.0332
52926W        W53790  20.580  25.570  20.361 -0.2228  0.2166 -0.1502
52927W        W53791  21.114  28.549  25.237  0.1081 -0.1995 -0.2867
52928W        W53792  19.742  27.303  24.758  0.0310  0.0422  0.0736
52929W        W53793  20.876  27.850  24.822 -0.0552  0.3342  0.1983
52930W        W53794  18.616  26.576  25.147  0.0665 -0.0540  0.1154
52931W        W53795  21.601  27.800  25.721  0.0377  0.1309 -0.3329
52932W        W53796  19.731  26.461  22.756  0.2562  0.0093 -0.1886
52933W        W53797  18.653  24.103  22.826 -0.1582  0.0884 -0.1036
52934W        W53798  22.235  27.157  22.506  0.0917 -0.0821 -0.1622
52935W        W53799  20.317   0.027  25.331  0.0259 -0.2333 -0.2234
52936W        W53800  22.172  26.921  27.000 -0.1361  0.0343  0.0124
52937W        W53801  22.230  25.644  22.845 -0.0716  0.0527 -0.1117
52938W        W53802  23.046   2.948  25.619  0.0666  0.1458  0.1853
52939W        W53803  20.787  28.362  24.748  0.3803  0.1402  0.3215
52940W        W53804  21.339  27.890  23.995  0.0864  0.0541 -0.0653
52941W        W53805  20.996  27.497  26.513  0.0175  0.0149  0.1176
52942W        W53806  18.550  25.325  23.483  0.1843  0.3553  0.0523
52943W        W53807  20.031  27.987  23.129  0.0104 -0.1936  0.4301
52944W        W53808  20.604  27.982  21.393 -0.2750 -0.0898  0.1297
52945W        W53809  19.461  28.161  23.194 -0.1349  0.4368 -0.2117
52946W        W53810  20.622  27.984  27.319  0.0426  0.0630 -0.1349
52947W        W53811  18.120  26.801  26.668 -0.1604  0.0973 -0.1882
52948W        W53812  19.724  24.026  22.895  0.1412 -0.0382  0.2220
52949W        W53813  21.433  26.138  23.769 -0.2716 -0.1598  0.0864
52950W        W53814  22.221   1.336  25.179  0.1874  0.0634 -0.1316
52951W        W53815  23.521  26.981  22.391 -0.0564  0.1655 -0.2075
52952W        W53816  23.010  27.082  25.311 -0.2248  0.2335 -0.1200
52953W        W53817  25.108  26.532  26.019 -0.2300 -0.0211 -0.2324
52954W        W53818  21.786   0.805  27.423 -0.1531 -0.0171 -0.0629
52955W        W53819  23.420  27.159  26.477  0.2937 -0.1248 -0.0588
52956W        W53820  22.855  27.438  23.557  0.1501  0.0595 -0.0248
52957W        W53821  23.973  27.383  25.231 -0.2318 -0.2470  0.0194
52958W        W53822  22.781  29.092  24.574 -0.3078  0.0569  0.0474
52959W        W53823  19.969  27.203  23.929 -0.1027  0.1822  0.0499
52960W        W53824  20.763  24.389  25.523  0.3327  0.0708  0.1548
52961W        W53825  21.560  24.041  22.628  0.1995 -0.3795 -0.0308
52962W        W53826  23.326  26.389  22.451  0.1765 -0.1158 -0.0860
52963W        W53827  22.274  29.027  24.562  0.1760 -0.0613 -0.0527
52964W        W53828  22.546  25.393  24.555 -0.1151  0.0289  0.0887
52965W        W53829  20.949  26.474  23.564  0.1046  0.2395  0.1668
52966W        W53830  18.969  26.249  20.966 -0.2575 -0.2244 -0.1509
52967W        W53831  16.830  27.009  24.245 -0.1779  0.1428 -0.0368
52968W        W53832  17.627  26.450  21.101 -0.1129  0.2152  0.1112
52969W        W53833  24.388  28.195  22.153 -0.2138  0.1414 -0.2631
52970W        W53834  23.990  26.867  26.471 -0.2364 -0.0580 -0.4040
52971W        W53835  20.592  26.496  24.929  0.4427 -0.2249 -0.2228
52972W        W53836  17.462  27.903  24.388  0.1566 -0.1969  0.0255
52973W        W53837  19.722   1.301  26.255 -0.3527 -0.2311  0.1905
52974W        W53838  19.424  26.562  21.691  0.1905 -0.1198 -0.0953
52975W        W53839  19.517  26.005  22.755 -0.0928  0.2484 -0.1470
52976W        W53840  20.273  28.682  25.626 -0.0306 -0.0747 -0.2390
52977W        W53841  19.259  27.507  22.547 -0.0656  0.4917 -0.1429
52978W        W53842  21.072  25.720  25.085 -0.1610  0.1867 -0.0986
52979W        W53843  20.098  28.089  24.583 -0.0839 -0.1338 -0.0273
52980W        W53844  22.669  26.860  23.457  0.1940 -0.1289 -0.0396
52981W        W53845  19.738  24.899  23.752 -0.0378  0.3448  0.0621
52982W        W53846  21.892  26.037  26.741 -0.0197  0.0845  0.0417
52983W        W53847  23.250  26.819  26.175  0.1873 -0.0428  0.0004
52984W        W53848  21.833  27.115  24.616 -0.3935  0.1874  0.1629
52985W        W53849  18.321  27.654  20.724 -0.4439  0.0142 -0.4053
52986W        W53850  21.980  24.988  23.475 -0.1082 -0.3223 -0.0824
52987W        W53851  23.643   0.282  21.962 -0.0975 -0.0184  0.1022
52988W        W53852  22.373  28.268  24.074 -0.1750  0.0386 -0.1104
52989W        W53853  21.343   0.531  23.212 -0.1623 -0.2265 -0.0825
52990W        W53854  21.815  28.240  25.716 -0.0555 -0.5298  0.1116
52991W        W53855  21.089  28.620  26.804  0.1718  0.1760 -0.0949
52992W        W53856  19.068  24.882  22.111  0.0735  0.0112  0.0149
52993W        W53857  23.151  28.340  25.789  0.0712 -0.1160  0.2115
52994W        W53858  23.894  27.724  24.149 -0.0759 -0.1617  0.1912
52995W        W53859  17.919  28.534  24.661 -0.4162 -0.0868  0.1444
52996W        W53860  18.737   0.608  25.336 -0.1092  0.0771 -0.1614
52997W        W53861  23.816  26.398  25.591  0.4045  0.2456  0.2000
52998W        W53862  21.369   1.128  22.147 -0.0977 -0.2799 -0.0717
52999W        W53863  24.544  28.517  23.035 -0.1748  0.2937 -0.2532
53000W        W53864  18.060  25.646  24.373 -0.2987  0.1474  0.0348
53001W        W53865  20.117  27.165  23.422 -0.1805  0.2841  0.0277
53002W        W53866  21.913  25.925  23.897  0.3047  0.1630  0.1127
53003W        W53867  24.398  27.589  25.373  0.1201 -0.1728  0.3367
53004W        W53868  22.391  27.735  25.291 -0.0147  0.0718 -0.2111
53005W        W53869  20.349  28.472  23.838  0.5120 -0.0416 -0.0250
53006W        W53870  22.295  27.083  20.691 -0.0179 -0.0678  0.1045
53007W        W53871  18.775  26.105  24.958  0.1077  0.0203 -0.0953
53008W        W53872  19.115   2.198  21.618 -0.0137  0.0067  0.2693
53009W        W53873  19.611  27.626  23.086  0.3454 -0.1019 -0.0844
53010W        W53874  20.794  26.932  25.901  0.1514  0.0943 -0.0706
53011W        W53875  21.055  26.879  23.244 -0.1183 -0.3512 -0.2772
53012W        W53876  21.976  25.002  24.362  0.0099  0.0524  0.0588
53013W        W53877  23.267   1.095  24.600  0.0058  0.0440  0.2621
53014W        W53878  20.186  28.897  23.698  0.1749 -0.3839 -0.0944
53015W        W53879  18.444  25.012  23.913 -0.2731 -0.3053  0.3832
53016W        W53880  20.505  27.276  24.259 -0.0717 -0.0938 -0.1214
53017W        W53881  19.665  27.698  20.527 -0.0781  0.0087  0.0870
53018W        W53882  19.943  27.772  26.802 -0.0806  0.2301  0.2692
53019W        W53883  18.760  26.188  24.409 -0.2144  0.0861 -0.1952
53020W        W53884  22.215  28.027  24.852  0.2106 -0.4085  0.1670
53021W        W53885  18.924  27.703  26.025 -0.1281 -0.4724  0.0102
53022W        W53886  18.471  25.800  23.242  0.2749 -0.0648 -0.2464
53023W        W53887  18.642  25.755  21.879  0.4381  0.1849 -0.0282
53024W        W53888  20.279  25.528  23.036  0.2701 -0.1267 -0.6061
53025W        W53889  18.018  27.419  22.066 -0.1206 -0.2820 -0.0026
53026W        W53890  19.431  24.568  24.061 -0.0258 -0.5066 -0.1359
53027W        W53891  17.344  28.532  25.494 -0.1605  0.1375  0.1813
53028W        W53892  22.071  26.560  26.727  0.1705 -0.2054 -0.0547
53029W        W53893  22.323  26.791  28.132  0.2167 -0.1022 -0.0052
53030W        W53894  19.945  26.919  25.679 -0.1080 -0.0024 -0.3879
53031W        W53895  19.713  27.783  21.767  0.1238 -0.1133 -0.1060
53032W        W53896  20.209  25.872  22.490  0.0115  0.1051  0.0660
53033W        W53897  19.265   0.655  23.617  0.1453  0.0155  0.3278
53034W        W53898  16.456  26.994  27.507  0.1357  0.1564  0.0436
53035W        W53899  17.952  26.021  23.523 -0.1335  0.1187  0.3008
53036W        W53900  20.159  26.516  25.250  0.0419  0.2810 -0.0631
53037W        W53901  19.196  28.328  25.342 -0.1123 -0.0027  0.1762
53038W        W53902  20.120  27.828  21.436  0.1168  0.1328 -0.0421
53039W        W53903  22.198  28.060  23.661  0.2164  0.0684  0.1180
53040W        W53904  24.362  27.458  21.075  0.3113 -0.1561 -0.0595
53041W        W53905  22.628  27.958  22.678  0.2733  0.2527  0.0693
53042W        W53906  19.197   0.740  25.571 -0.0688  0.2401 -0.2107
53043W        W53907  17.907   0.844  25.889 -0.1132  0.1858  0.0938
53044W        W53908  19.939   0.976  24.265 -0.0683 -0.2918  0.0621
53045W        W53909  20.494  25.280  23.442 -0.1235 -0.0648 -0.4051
53046W        W53910  20.509  27.705  23.326 -0.0146 -0.2871  0.2210
53047W        W53911  24.011   1.401  21.765 -0.1764 -0.0248 -0.0535
53048W        W53912  18.880  25.055  23.002 -0.2011  0.2983  0.0139
53049W        W53913  21.975  26.150  22.129  0.1664 -0.2781 -0.0748
53050W        W53914  22.174  24.755  21.233 -0.1665  0.1562 -0.0566
53051W        W53915  19.402  27.625  25.959  0.0034  0.1661  0.1105
53052W        W53916  22.163  21.951  24.042 -0.0061  0.0019  0.1589
53053W        W53917  18.646  24.645  20.363 -0.0590  0.0743 -0.0032
53054W        W53918  20.753   0.478  26.061 -0.2438 -0.0442 -0.3682
53055W        W53919  18.676  27.679  23.495  0.0359 -0.1360 -0.0811
53056W        W53920  18.943   0.669  22.787  0.0635  0.0307  0.2087
53057W        W53921  18.011  26.500  22.097 -0.2501 -0.0074 -0.1932
53058W        W53922  17.135  28.295  24.641  0.0018 -0.1804 -0.0584
53059W        W53923  20.613  26.287  25.382  0.2571  0.2017 -0.3413
53060W        W53924  22.361  26.237  26.405 -0.2915  0.0958 -0.1414
53061W        W53925  19.658  27.290  22.687  0.2146 -0.0818 -0.1558
53062W        W53926  21.133  24.368  21.377  0.0195 -0.2549  0.2256
53063W        W53927  19.516  25.372  26.824  0.0884  0.2968  0.0643
53064W        W53928  19.789  25.595  23.184  0.1337  0.0026  0.1787
53065W        W53929  23.346  26.517  23.822  0.3343  0.1050 -0.1593
53066W        W53930  19.314  24.176  22.681  0.5047 -0.2048  0.0624
53067W        W53931  18.958  26.209  23.343  0.1049  0.1978  0.0133
53068W        W53932  23.267  28.463  22.911 -0.3326 -0.0838  0.1465
53069W        W53933  19.750  25.966  22.283 -0.0390  0.2375  0.2566
53070W        W53934  21.429  25.928  24.718 -0.0161  0.0531  0.2615
53071W        W53935  16.574  25.050  22.649 -0.1090  0.0920  0.1378
53072W        W53936  21.039  27.459  22.939  0.0483 -0.1732  0.0316
53073W        W53937  19.149  27.246  24.732 -0.1531  0.0050  0.2844
53074W        W53938  21.201   0.843  24.524  0.0155 -0.2953  0.0005
53075W        W53939  19.952  26.995  21.990  0.0196 -0.0387 -0.0715
53076W        W53940  19.630  27.420  26.817  0.0751  0.0264 -0.0717
53077W        W53941  19.325  26.379  23.624 -0.0302  0.2506 -0.5557
53078W        W53942  18.325  27.449  24.896 -0.1372 -0.0072  0.1734
53079W        W53943  20.930  27.026  24.919 -0.1633 -0.1728 -0.2302
53080W        W53944  23.141   1.816  24.189 -0.2216 -0.2152 -0.0190
53081W        W53945  21.299  28.425  22.053 -0.2715  0.0697 -0.0403
53082W        W53946  20.594  28.517  21.477  0.3218  0.1592 -0.0218
53083W        W53947  19.601   1.487  21.612  0.1952 -0.0448  0.2673
53084W        W53948  20.093  29.020  24.900  0.0317  0.1321 -0.3046
53085W        W53949  19.112  26.659  28.216  0.2753 -0.0418 -0.2295
53086W        W53950  19.444  26.775  27.657 -0.1054 -0.0958  0.1811
53087W        W53951  22.834   0.439  27.539  0.1062 -0.2883 -0.2012
53088W        W53952  19.587  27.672  24.572 -0.2699 -0.2823  0.0128
53089W        W53953  21.438  24.785  21.692 -0.0409 -0.4846 -0.0551
53090W        W53954  18.835  28.480  23.358  0.0122  0.0125  0.0198
53091W        W53955  20.720  24.863  24.811  0.0532 -0.0214  0.1737
53092W        W53956  18.008  25.563  24.860  0.3377 -0.3688  0.0363
53093W        W53957  20.808  26.366  24.431 -0.2210 -0.0638 -0.3307
53094W        W53958  23.585  28.508  21.726 -0.0346  0.0919 -0.1743
53095W        W53959  20.379  27.728  24.005  0.1858 -0.2125 -0.0288
53096W        W53960  18.289  25.373  28.358 -0.0406 -0.2509 -0.1878
53097W        W53961  19.804  26.199  23.854  0.2583 -0.1123  0.2835
53098W        W53962  19.442   3.472  22.109  0.0976  0.0182  0.0345
53099W        W53963  20.589  26.344  23.943 -0.1694 -0.0800 -0.1113
53100W        W53964  17.546  25.453  24.927  0.3686 -0.2722  0.3207
53101W        W53965  19.172  26.732  25.933  0.2079 -0.1354 -0.2284
53102W        W53966  21.615  26.308  25.097 -0.1804 -0.0192  0.1125
53103W        W53967  18.078  25.209  25.629  0.0354 -0.0257  0.0847
53104W        W53968  22.485  28.043  26.104  0.3447 -0.3400  0.2185
53105W        W53969  21.148   0.971  23.363  0.0219  0.1198 -0.1070
53106W        W53970  20.734  28.925  21.174  0.0668  0.2476 -0.2111
53107W        W53971  18.862  27.323  25.147 -0.0708 -0.1790  0.0474
53108W        W53972  18.670  25.524  22.844  0.1451  0.4125  0.0193
53109W        W53973  20.352  24.643  23.029  0.0978 -0.0981 -0.2046
53110W        W53974  21.676  26.904  23.211  0.0022 -0.0801 -0.2397
53111W        W53975  18.291  27.440  22.546 -0.0926 -0.0559  0.1717
53112W        W53976  23.186   0.164  25.861 -0.1141  0.1359  0.1924
53113W        W53977  20.554  28.883  24.042 -0.2865  0.3742 -0.1404
53114W        W53978  19.223  28.571  23.026  0.3966  0.0510  0.0107
53115W        W53979  21.221  25.934  21.744 -0.4528 -0.3460  0.0487
53116W        W53980  19.704  28.962  23.677 -0.0314  0.1773 -0.0310
53117W        W53981  19.611   2.371  24.324 -0.0218  0.0987 -0.0580
53118W        W53982  23.216   2.238  23.849  0.2043  0.3255  0.1217
53119W        W53983  20.825  28.606  22.934 -0.2628  0.1517  0.1926
53120W        W53984  17.547  27.562  21.234  0.0576 -0.2804  0.3292
53121W        W53985  19.474  28.910  24.525 -0.0703  0.0866 -0.1505
53122W        W53986  23.245  25.678  23.474 -0.1809  0.0598  0.2812
53123W        W53987  21.422  27.884  23.096 -0.0685 -0.3133  0.1581
53124W        W53988  19.999  27.519  26.385 -0.1867 -0.1482 -0.1105
53125W        W53989  18.515   0.718  22.153  0.1160  0.1960 -0.6292
53126W        W53990  19.142  27.467  24.201 -0.3338  0.0882 -0.3811
53127W        W53991  18.405  27.542  27.506  0.3032  0.2271  0.1565
53128W        W53992  20.430  28.073  24.979  0.2457  0.0529  0.0444
53129W        W53993  19.057  26.371  25.375 -0.1377 -0.3296  0.0454
53130W        W53994  19.764  28.856  21.881 -0.0676  0.0262  0.1017
53131W        W53995  20.016   0.395  25.590  0.2548  0.2460 -0.1280
53132W        W53996  18.999  25.953  22.856  0.2373  0.0005  0.0570
53133W        W53997  20.979  28.054  25.279  0.0290 -0.0879  0.0410
53134W        W53998  19.148  27.500  25.548  0.1365  0.0977  0.0123
53135W        W53999  22.374  29.009  23.468  0.1824 -0.0504  0.1091
53136W        W54000  19.373  26.472  23.117 -0.0998  0.2364  0.1542
53137W        W54001  21.208  26.584  24.678 -0.0578 -0.2570  0.5766
53138W        W54002  22.522  28.668  25.395  0.0361 -0.2228  0.0986
53139W        W54003  19.293  29.068  21.562  0.0159  0.1190 -0.0901
53140W        W54004  21.392  27.835  25.254 -0.0587  0.0270 -0.1447
53141W        W54005  21.656  24.965  24.765 -0.2381 -0.3743  0.0151
53142W        W54006  18.387  25.045  22.963  0.0213  0.1451  0.0853
53143W        W54007  20.757  26.509  23.113  0.0976 -0.1196 -0.2597
53144W        W54008  21.460  26.814  22.776 -0.2728 -0.1316  0.1781
53145W        W54009  17.189   1.768  24.555  0.1375 -0.1577 -0.1023
53146W        W54010  18.899  26.842  26.346 -0.3043 -0.2789 -0.0795
53147W        W54011  18.192  25.487  22.783  0.0628  0.0109 -0.1267
53148W        W54012  18.681  27.336  25.720 -0.0287  0.0222  0.0997
53149W        W54013  21.955   0.758  24.565  0.1097 -0.2309  0.0597
53150W        W54014  21.993  27.533  26.271 -0.2458 -0.0538  0.1153
53151W        W54015  22.949  28.158  23.213 -0.1910  0.1041  0.0924
53152W        W54016  19.895  27.509  22.177  0.1584  0.0762  0.0113
53153W        W54017  17.155  26.892  28.290  0.0508 -0.0541  0.0676
53154W        W54018  22.258  25.032  22.115  0.2490 -0.3145  0.0259
53155W        W54019  21.577  27.417  23.093  0.0280  0.0884  0.1068
53156W        W54020  19.749  25.358  23.979 -0.1156  0.1618  0.1155
53157W        W54021  23.826  25.220  24.144 -0.0941 -0.3576  0.1456
53158W        W54022  22.874  27.701  23.017 -0.1917 -0.0518  0.2114
53159W        W54023  20.449  27.236  24.800  0.2309  0.0107 -0.0933
53160W        W54024  19.615  27.184  23.572  0.1841  0.2185  0.1605
53161W        W54025  22.893  27.815  22.229  0.0567  0.1158 -0.1993
53162W        W54026  20.360  26.838  24.050  0.1087 -0.0597 -0.0870
53163W        W54027  22.846  27.972  25.669  0.1477 -0.1573  0.0158
53164W        W54028  22.345  28.848  26.369  0.0449 -0.1761  0.0430
53165W        W54029  18.505  29.117  25.197  0.0823  0.0922  0.3034
53166W        W54030  19.878  28.497  23.679 -0.0152 -0.0373 -0.2588
53167W        W54031  19.021  25.284  26.602  0.3125  0.3181 -0.0132
53168W        W54032  20.935   0.437  25.338 -0.2495  0.0930 -0.1525
53169W        W54033  22.594   0.484  25.157  0.2089  0.1144  0.0389
53170W        W54034  20.961  27.356  23.414  0.1013  0.0138 -0.2446
53171W        W54035  17.772  28.934  26.699 -0.0679 -0.2958 -0.0225
53172W        W54036  19.490  28.997  26.935 -0.2587  0.1075  0.1712
53173W        W54037  20.249  28.119  23.536  0.2242 -0.1621 -0.0342
53174W        W54038  20.776  24.910  24.268 -0.1328  0.1984 -0.0412
53175W        W54039  19.192   0.743  24.619 -0.0116 -0.1136  0.1598
53176W        W54040  17.963  26.613  25.863  0.1670  0.0928 -0.1400
53177W        W54041  18.005   1.231  27.448  0.0776 -0.0616 -0.0615
53178W        W54042  18.949  25.825  24.176  0.1193 -0.0659 -0.1982
53179W        W54043  22.044  27.039  25.058 -0.0205 -0.0872  0.0753
53180W        W54044  21.075   0.852  25.644  0.2070 -0.2030  0.0518
53181W        W54045  21.429  27.744  26.654 -0.1565  0.1831  0.2025
53182W        W54046  20.368  23.486  24.575 -0.2739  0.0285  0.2023
53183W        W54047  20.527   0.215  23.479 -0.0764  0.0359 -0.2960
53184W        W54048  18.878   0.632  26.336 -0.4785  0.0835  0.1723
53185W        W54049  20.084  27.049  24.458  0.1736  0.0468 -0.2890
53186W        W54050  20.456   0.144  24.447 -0.0217  0.1004 -0.1659
53187W        W54051  22.080   0.326  21.914 -0.0331  0.2548 -0.1876
53188W        W54052  14.622  26.422  27.744 -0.1058 -0.0965 -0.0364
53189W        W54053  20.950  26.949  24.363 -0.0102 -0.1463 -0.1481
53190W        W54054  17.977  27.394  25.231 -0.4472  0.1927  0.2568
53191W        W54055  19.907  27.387  25.872 -0.0509  0.0660  0.2440
53192W        W54056  21.003  27.438  24.108  0.1604  0.2997 -0.0686
53193W        W54057  18.311   0.584  26.252  0.0925  0.0660  0.1985
53194W        W54058  18.620  28.161  23.726 -0.3602  0.1220 -0.1338
53195W        W54059  16.725  25.869  23.218 -0.3867 -0.1492  0.1031
53196W        W54060  19.754  27.326  25.386  0.1238  0.1846  0.0080
53197W        W54061  21.280  25.597  22.181  0.0887 -0.1720 -0.0873
53198W        W54062  22.952  28.807  25.569 -0.0547 -0.1181 -0.0263
53199W        W54063  22.659  28.227  24.603  0.0989 -0.3231  0.0513
53200W        W54064  23.468  28.276  26.200 -0.1199 -0.0743  0.1297
53201W        W54065  22.180   0.772  22.745 -0.4080  0.1502 -0.3433
53202W        W54066  19.789  28.587  24.688 -0.0468  0.2694 -0.1218
53203W        W54067  23.780  28.927  21.963 -0.3753  0.3007 -0.2844
53204W        W54068  20.342  26.729  22.106  0.3465 -0.2633 -0.0612
53205W        W54069  22.966  23.177  21.706  0.1283  0.2722 -0.1472
53206W        W54070  19.556  28.141  24.483 -0.2180  0.1936  0.0876
53207W        W54071  20.334  26.438  26.672 -0.0806 -0.1424 -0.2497
53208W        W54072  19.041  25.673  24.740  0.0064  0.2025  0.3292
53209W        W54073  17.445  27.714  23.060  0.0239 -0.1546 -0.3629
53210W        W54074  19.572  26.518  22.273  0.1013  0.1401  0.0789
53211W        W54075  19.105  27.849  24.565 -0.1214 -0.2088  0.0043
53212W        W54076  18.825  27.244  22.337  0.2934  0.2285 -0.2147
53213W        W54077  19.814  26.709  23.505  0.1402 -0.2402 -0.0003
53214W        W54078  19.344  28.139  24.931  0.0409  0.2580  0.0460
53215W        W54079  17.607  24.336  23.035  0.1387  0.0461 -0.3054
53216W        W54080  25.006  27.027  26.862  0.2074  0.0635  0.1084
53217W        W54081  21.251   1.430  20.943  0.0039  0.0018  0.0603
53218W        W54082  23.679  26.589  25.989  0.0306  0.1800  0.1996
53219W        W54083  18.410  27.604  21.188 -0.1414 -0.1025  0.2415
53220W        W54084  19.849   0.577  21.826  0.0693  0.1136  0.0141
53221W        W54085  21.973  26.763  22.794  0.3857 -0.0112  0.1032
53222W        W54086  18.743  28.759  26.117 -0.2510  0.0443 -0.1686
53223W        W54087  19.744  27.488  28.220 -0.1930 -0.2224 -0.1160
53224W        W54088  19.826  25.182  25.207  0.2608  0.1129 -0.1225
53225W        W54089  17.593  27.089  22.728 -0.0343 -0.1672  0.0839
53226W        W54090  21.047  25.867  22.972 -0.1493 -0.0462 -0.0441
53227W        W54091  20.969  28.093  26.497 -0.4846 -0.0697  0.0263
53228W        W54092  16.527  25.183  23.695 -0.2104  0.2867  0.1542
53229W        W54093  19.455  21.486  24.309  0.0364 -0.1166 -0.1836
53230W        W54094  22.007   1.372  23.348  0.2124  0.0126  0.2309
53231W        W54095  19.862  28.958  25.426  0.2967 -0.0635 -0.2037
53232W        W54096  21.587   0.623  21.686  0.0704 -0.0306 -0.0306
53233W        W54097  18.649  29.027  24.099 -0.1506  0.1057  0.2136
53234W        W54098  21.205  26.650  22.291  0.2755 -0.0748 -0.0283
53235W        W54099  22.502  25.977  23.933 -0.0689 -0.0487 -0.2769
53236W        W54100  21.703  26.887  22.241  0.2978  0.0664 -0.0370
53237W        W54101  22.114  28.110  22.761  0.0952  0.0285 -0.0375
53238W        W54102  18.858  27.169  23.358  0.1795 -0.0478 -0.1144
53239W        W54103  21.398  28.327  26.531  0.1718 -0.0706 -0.0599
53240W        W54104  21.676  28.810  21.770 -0.0454  0.0190  0.2702
53241W        W54105  20.981  25.626  26.683  0.2224 -0.2497 -0.1743
53242W        W54106  19.108  25.834  23.661  0.3071  0.2876  0.0677
53243W        W54107  22.338   0.310  23.678  0.3662  0.4836 -0.2602
53244W        W54108  21.022  26.047  23.997 -0.0796  0.0051  0.0048
53245W        W54109  19.534  24.441  25.075 -0.0027 -0.1231 -0.1292
53246W        W54110  21.386  26.710  23.629 -0.1438 -0.1575  0.1675
53247W        W54111  20.686   0.974  23.647  0.1175 -0.1700  0.0327
53248W        W54112  19.155  28.346  24.358  0.3244  0.1453  0.1766
53249W        W54113  23.233  25.930  27.261 -0.1589 -0.2218  0.4009
53250W        W54114  18.266  28.667  25.337 -0.0208 -0.2129 -0.0098
53251W        W54115  21.448   0.743  25.344  0.2234 -0.2111  0.2876
53252W        W54116  21.412   1.693  21.391 -0.1085 -0.0824  0.2691
53253W        W54117  21.832  27.221  24.065  0.0170 -0.2688 -0.2372
53254W        W54118  20.355   1.335  23.490 -0.0966  0.1029  0.2404
53255W        W54119  19.389   0.453  26.357  0.1881  0.3845 -0.1118
53256W        W54120  23.039  27.192  27.491 -0.1156 -0.3219 -0.2203
53257W        W54121  17.628  25.852  24.498 -0.0476 -0.0930 -0.0959
53258W        W54122  21.827  29.061  23.425  0.2892  0.1195 -0.0121
53259W        W54123  20.324  28.660  24.438  0.0876  0.0578 -0.0878
53260W        W54124  20.596  28.471  25.322  0.1208  0.2212  0.0375
53261W        W54125  18.076  27.008  24.897 -0.3641  0.1575  0.0291
53262W        W54126  19.323  27.605  23.519 -0.0270  0.3131 -0.0272
53263W        W54127  19.618  28.479  25.128  0.0313  0.0673  0.1033
53264W        W54128  18.862  28.578  20.936 -0.2409  0.3809  0.0011
53265W        W54129  17.920  25.890  22.813  0.1108  0.2716 -0.0194
53266W        W54130  17.745   1.732  28.231 -0.1750  0.2202  0.1770
53267W        W54131  20.032   0.688  28.566  0.1622 -0.1319 -0.4524
53268W        W54132  20.543  26.326  27.129 -0.1610 -0.1753  0.2621
53269W        W54133  22.579  28.600  29.116 -0.1673  0.1569 -0.0007
53270W        W54134  21.599  28.378  25.219 -0.1466 -0.1914 -0.0100
53271W        W54135  18.391  26.172  27.858 -0.0389  0.0160 -0.2893
53272W        W54136  19.989  27.897  28.183 -0.0581  0.0492  0.1845
53273W        W54137  20.115   1.126  27.759  0.0639  0.0222  0.0560
53274W        W54138  20.930  28.291   3.265  0.0084  0.0484 -0.0170
53275W        W54139  18.319  24.318   0.447 -0.0309 -0.0573 -0.1718
53276W        W54140  18.877  25.949   0.398  0.2272 -0.0233 -0.0847
53277W        W54141  20.146  25.123  26.886  0.1172 -0.0241 -0.2096
53278W        W54142  21.863  28.531  26.442  0.1692  0.2889 -0.3717
53279W        W54143  20.400  25.630  27.870  0.1335  0.1030 -0.1532
53280W        W54144  19.812  25.091   1.201  0.1258 -0.0322  0.1650
53281W        W54145  16.621   3.519   1.600  0.0569 -0.0571 -0.0180
53282W        W54146  21.547  26.884  27.694 -0.2888 -0.2275  0.1121
53283W        W54147  19.261   0.925  28.860 -0.0375  0.0419  0.0438
53284W        W54148  16.989  26.473  28.453 -0.0519 -0.1355  0.0582
53285W        W54149  21.600  27.133  25.390  0.2015 -0.0054  0.0599
53286W        W54150  22.481  27.887  28.833  0.1479  0.2148 -0.0932
53287W        W54151  18.729  29.097  27.119  0.0432 -0.1509  0.0769
53288W        W54152  19.955   0.667  26.941  0.1599  0.3715 -0.1842
53289W        W54153  19.228   0.895  26.099  0.2561  0.0773 -0.1126
53290W        W54154  16.377   0.021  27.918  0.1055 -0.3910  0.1523
53291W        W54155  21.176   0.587  28.969  0.0327  0.1039 -0.1906
53292W        W54156  23.269  26.318  28.340  0.1269  0.0543  0.0003
53293W        W54157  17.647  28.140  25.653 -0.0352 -0.1398  0.2361
53294W        W54158  17.902  27.780  28.715 -0.0096 -0.0014  0.1312
53295W        W54159  18.501   2.195   0.449  0.1258 -0.2167  0.1398
53296W        W54160  19.294  27.958  28.353  0.0581  0.0015 -0.0679
53297W        W54161  21.250   0.466   1.063 -0.3862 -0.0810  0.0085
53298W        W54162  19.296  26.704  29.106  0.1968  0.2050  0.4823
53299W        W54163  19.834  27.152   0.916 -0.1184 -0.0781 -0.1581
53300W        W54164  17.312  24.512   0.545 -0.0983 -0.0244  0.0231
53301W        W54165  22.427  27.305  26.677  0.1574  0.1611  0.1678
53302W        W54166  19.174  23.614  25.376 -0.0288  0.1113 -0.1123
53303W        W54167  19.825  27.957   0.490  0.3124  0.0576  0.0202
53304W        W54168  22.952  26.690  28.352  0.0717 -0.1738  0.1484
53305W        W54169  20.755  25.182  28.550 -0.5531  0.1811  0.0491
53306W        W54170  20.971  24.701  28.771 -0.0444 -0.0373  0.2078
53307W        W54171  22.365  25.977  27.856 -0.1479  0.0474  0.1560
53308W        W54172  21.322   2.347  28.675 -0.0761  0.0108 -0.0824
53309W        W54173  22.470  28.768  28.200 -0.1352 -0.0602  0.4605
53310W        W54174  18.272   0.839  27.180  0.2497 -0.0935 -0.2695
53311W        W54175  19.358   1.648  27.551  0.1550 -0.0663  0.1373
53312W        W54176  17.410  24.145   0.189  0.1644 -0.1335  0.0865
53313W        W54177  18.948  26.686  28.762  0.0641  0.4085 -0.2670
53314W        W54178  20.394   0.495   0.260  0.0543  0.1462 -0.0356
53315W        W54179  20.466   0.831  26.925  0.0964 -0.1869 -0.1880
53316W        W54180  20.199  28.254  26.965  0.1838  0.3310 -0.0829
53317W        W54181  20.425  26.241  26.002 -0.1285  0.0584 -0.3687
53318W        W54182  21.379  28.468   0.888 -0.3272  0.0321 -0.1170
53319W        W54183  21.267  28.665  29.051 -0.1826  0.2383  0.0999
53320W        W54184  21.731  25.584  26.204  0.1522  0.0816  0.0622
53321W        W54185  22.007  28.238  27.425  0.0572 -0.0956 -0.0501
53322W        W54186  17.931   0.727  28.114  0.3518  0.1701  0.0603
53323W        W54187  21.720  26.943  26.849  0.1241  0.2394 -0.4430
53324W        W54188  16.433  26.135   0.154  0.0360  0.0306 -0.2684
53325W        W54189  23.384  28.694  26.455 -0.0241  0.4184 -0.1191
53326W        W54190  21.847  26.364  23.503 -0.2645  0.2193  0.2492
53327W        W54191  18.294  27.155  28.390 -0.0545  0.0606 -0.2701
53328W        W54192  20.141  28.061   1.485 -0.1537  0.0586 -0.0786
53329W        W54193  19.535  25.878   0.602  0.0497 -0.1871 -0.3189
53330W        W54194  20.774  27.475   0.518  0.2275  0.2278 -0.0324
53331W        W54195  24.039  23.544  26.671 -0.2544 -0.0310 -0.2045
53332W        W54196  19.343  27.115  25.235 -0.2995  0.1196  0.1353
53333W        W54197  19.577  26.349  24.388 -0.1412  0.2608  0.1833
53334W        W54198  18.723  27.742  26.459  0.0156  0.2308  0.3964
53335W        W54199  22.078   0.857  25.912 -0.1443 -0.0085 -0.0052
53336W        W54200  19.969   1.643  27.637  0.2084 -0.0936 -0.0449
53337W        W54201  20.013  25.548  26.599  0.2938 -0.0137  0.1154
53338W        W54202  21.717  26.088  26.230 -0.0000  0.1858 -0.0098
53339W        W54203  21.108  26.269  27.067  0.0726  0.0238 -0.0731
53340W        W54204  23.887  26.872  25.386 -0.0883 -0.1563 -0.0265
53341W        W54205  19.905  26.961  28.186 -0.0788 -0.1579  0.0010
53342W        W54206  17.176  28.085  28.139 -0.0120 -0.1753  0.0411
53343W        W54207  18.417  27.774   0.297 -0.2537 -0.1622 -0.1626
53344W        W54208  19.255  27.065  28.553 -0.0788  0.1460  0.0501
53345W        W54209  21.120  26.591  25.219  0.0465 -0.0434  0.5033
53346W        W54210  18.312  26.268   0.490 -0.1958 -0.1084  0.1716
53347W        W54211  19.275  28.513  27.550 -0.1486 -0.0053 -0.2865
53348W        W54212  18.280  25.464  25.263  0.0304  0.2998 -0.0605
53349W        W54213  19.762  26.239  26.622  0.2392  0.0095 -0.0051
53350W        W54214  19.119  25.611   1.954 -0.0871 -0.1497 -0.0926
53351W        W54215  21.099  25.143  25.460 -0.0203  0.2217  0.0176
53352W        W54216  23.029  28.545   0.197  0.1338 -0.2405  0.0159
53353W        W54217  19.795  25.077   1.676  0.0437  0.2635 -0.1291
53354W        W54218  21.240  27.426  28.302  0.1047  0.0499  0.3723
53355W        W54219  21.211  27.364  27.381 -0.0238 -0.0883  0.0202
53356W        W54220  20.211  27.185  27.380 -0.1791 -0.1732  0.0426
53357W        W54221  22.159   0.048   1.898 -0.0361  0.2815 -0.2346
53358W        W54222  19.958  28.367   0.242 -0.0395  0.0340 -0.2625
53359W        W54223  19.806  26.690  24.032  0.4104  0.3184 -0.1576
53360W        W54224  21.201  26.187  26.532  0.1169  0.2470 -0.0108
53361W        W54225  22.582  26.337  25.809 -0.2544  0.2886  0.0739
53362W        W54226  22.548  26.014  26.814 -0.3001  0.0714  0.1920
53363W        W54227  20.845   1.453   1.500  0.0425  0.1473 -0.1349
53364W        W54228  20.178  26.524  28.622  0.1851 -0.1200  0.0332
53365W        W54229  22.768  26.540  24.646 -0.2021 -0.2886  0.1794
53366W        W54230  19.208  27.199  29.103 -0.3079 -0.3041 -0.2686
53367W        W54231  17.616  28.148   0.712  0.1629  0.2368  0.0420
53368W        W54232  19.754  24.103  25.603  0.0369  0.0218  0.2317
53369W        W54233  24.757  27.911  26.459 -0.1464  0.0587 -0.0595
53370W        W54234  21.839  26.197  27.578 -0.0579  0.2404  0.0214
53371W        W54235  20.913  26.771   1.204 -0.0066  0.0008 -0.1470
53372W        W54236  23.400   3.138  25.954  0.4354  0.0515  0.0583
53373W        W54237  23.352  27.989   0.463  0.0058  0.0039 -0.0688
53374W        W54238  20.149  26.475  28.134  0.4921 -0.1367 -0.1669
53375W        W54239  18.335  26.098  27.380  0.0735  0.0827 -0.4427
53376W        W54240  19.069  27.895  27.903 -0.1138  0.3306  0.0177
53377W        W54241  19.717  27.073   0.084 -0.0515  0.0335  0.1329
53378W        W54242  19.266  28.381  28.033  0.1361  0.0533  0.0413
53379W        W54243  19.780  28.839  27.421  0.2769  0.0431 -0.2251
53380W        W54244  23.278  28.450  26.973  0.3972  0.0623  0.0447
53381W        W54245  20.179  28.103  28.999 -0.1710  0.1943  0.1246
53382W        W54246  22.994  26.713  27.749  0.0850 -0.2669 -0.1562
53383W        W54247  22.076   0.714  26.379  0.2123  0.0640 -0.1492
53384W        W54248  21.689  28.298  28.024  0.1123  0.4437 -0.3927
53385W        W54249  20.637  28.268  28.286 -0.0328  0.2339 -0.4367
53386W        W54250  20.474  27.683  28.036 -0.0654  0.0608 -0.0326
53387W        W54251  20.594   1.237  26.688 -0.0966 -0.0280  0.1190
53388W        W54252  22.251  29.091  27.688  0.0344 -0.1963  0.1015
53389W        W54253  21.405  27.475  26.175  0.0282 -0.3153  0.0708
53390W        W54254  19.312  29.025  26.370 -0.0859 -0.3898 -0.0963
53391W        W54255  22.288  26.790  24.648  0.3116  0.1512 -0.0194
53392W        W54256  19.892  26.107   0.280  0.4684 -0.1296 -0.0843
53393W        W54257  20.150  26.078  29.010 -0.0924  0.0630 -0.0831
53394W        W54258  18.815  28.115  28.338  0.2619  0.2732 -0.0602
53395W        W54259  18.661  28.746   0.088  0.1029 -0.1841 -0.3057
53396W        W54260  21.817   1.217  28.992  0.0837  0.2418 -0.0025
53397W        W54261  19.488  25.663   2.282  0.0742 -0.0626 -0.0431
53398W        W54262  21.526   2.305  26.906  0.3205 -0.0508 -0.2171
53399W        W54263  21.298  25.037  27.380  0.0281 -0.3384 -0.3411
53400W        W54264  22.213  26.159   0.396 -0.4073 -0.1257 -0.1285
53401W        W54265  16.477  27.271   0.527 -0.1516  0.4055 -0.0254
53402W        W54266  22.528  25.524  27.701  0.1252 -0.0079  0.1217
53403W        W54267  21.315   1.566  27.972  0.0346 -0.0307 -0.2955
53404W        W54268  21.321  28.469  27.683  0.0895 -0.3887 -0.1449
53405W        W54269  17.006  26.349  25.167  0.0159  0.0390  0.2604
53406W        W54270  17.872  27.322  28.500 -0.0895  0.0464  0.0266
53407W        W54271  22.651   1.436  27.832  0.2383  0.1088  0.1257
53408W        W54272  21.971  25.643  25.728 -0.2986  0.1505  0.1701
53409W        W54273  18.616   1.582  28.879 -0.1085  0.1919  0.0515
53410W        W54274  19.551  27.135  26.218 -0.1486 -0.1465 -0.1322
53411W        W54275  22.648  27.333  25.118  0.1981  0.1624  0.2829
53412W        W54276  21.932   0.690  25.089 -0.1906 -0.2658  0.0830
53413W        W54277  23.644   0.059  28.956  0.1033  0.2130 -0.0020
53414W        W54278  17.644  27.586  27.816  0.0970  0.1288 -0.0994
53415W        W54279  23.415  28.895  28.562  0.2434 -0.2330  0.1496
53416W        W54280  19.568  26.511  27.043 -0.1212 -0.0131  0.0682
53417W        W54281  21.575   1.619  27.555  0.3131 -0.2142  0.0192
53418W        W54282  20.664  26.789  25.342 -0.1443 -0.1411 -0.1793
53419W        W54283  22.279  27.316  25.868  0.0462  0.0244 -0.2212
53420W        W54284  22.661  23.923   0.858 -0.2424  0.0964 -0.1304
53421W        W54285  18.543  26.989   1.014 -0.0689 -0.1844  0.0757
53422W        W54286  17.501  28.970  25.359  0.0729  0.1763  0.1670
53423W        W54287  19.850  26.109  26.053  0.2659 -0.1750 -0.2472
53424W        W54288  17.988   0.480  24.492  0.2573 -0.2798  0.0946
53425W        W54289  24.857  24.184  28.159 -0.0284 -0.1328 -0.0098
53426W        W54290  20.460  27.863  28.511 -0.0688  0.5744  0.2525
53427W        W54291  21.592   1.163  27.754 -0.1489 -0.1136  0.0092
53428W        W54292  23.314  28.171   1.606  0.0121 -0.0568  0.1937
53429W        W54293  20.533  24.715  28.483 -0.0500  0.2568  0.1078
53430W        W54294  19.254  28.355  26.758  0.2972  0.0772  0.1374
53431W        W54295  19.764  26.978  27.283  0.1816 -0.0002 -0.1092
53432W        W54296  18.012  27.536  26.280  0.1907  0.2144  0.3109
53433W        W54297  20.887   2.211  26.204 -0.4583 -0.1604  0.1219
53434W        W54298  19.222   1.952  25.975  0.1112 -0.2017  0.2026
53435W        W54299  21.532  27.042  26.371  0.0126  0.0071  0.5041
53436W        W54300  19.657  26.545   0.353  0.6029 -0.0686 -0.0214
53437W        W54301  18.847  28.305  27.368  0.4648 -0.0103  0.1205
53438W        W54302  21.727  28.002  26.312 -0.0436 -0.1090  0.3502
53439W        W54303  21.849  27.452  26.770 -0.2222 -0.1832  0.1873
53440W        W54304  22.588  27.059  26.217  0.0256  0.1766 -0.2152
53441W        W54305  20.709   0.184  27.430  0.2638  0.1813 -0.2837
53442W        W54306  19.112   0.234  28.434 -0.2663  0.0867  0.1201
53443W        W54307  19.482  28.276  23.937 -0.1959  0.2427 -0.2758
53444W        W54308  19.487  24.137  28.737  0.3655 -0.1448  0.0766
53445W        W54309  19.310   0.121  25.877  0.0142  0.0480  0.2400
53446W        W54310  22.203  27.919  26.608  0.2258 -0.0646  0.0727
53447W        W54311  20.634  27.749  26.261 -0.3366  0.1568 -0.0033
53448W        W54312  22.159  27.065  27.540  0.0109 -0.3520 -0.1898
53449W        W54313  20.694  25.309  25.642 -0.2911 -0.0752 -0.1216
53450W        W54314  18.255  27.177   0.377 -0.1008 -0.0375 -0.1234
53451W        W54315  20.619  27.562  27.569 -0.0468 -0.2412  0.1614
53452W        W54316  17.162  25.847  25.886  0.3116 -0.2026  0.4393
53453W        W54317  20.327  27.734  25.873  0.1578 -0.0636  0.0763
53454W        W54318  18.314  24.717  25.534 -0.1240  0.0001 -0.2089
53455W        W54319  18.881  28.867  26.641  0.2296  0.0676  0.0701
53456W        W54320  18.012  27.310  22.917 -0.3606  0.1598 -0.2268
53457W        W54321  19.470   1.417  28.930 -0.0415 -0.1176 -0.0122
53458W        W54322  18.452  25.433  28.912 -0.0784 -0.2582 -0.1230
53459W        W54323  20.841  26.313  26.223 -0.5046 -0.1674  0.1877
53460W        W54324  22.888  26.251  24.308  0.0379 -0.1283  0.0935
53461W        W54325  21.450  25.838  25.864  0.0009 -0.2193  0.0346
53462W        W54326  18.232  25.857  26.908  0.4319  0.4703 -0.1944
53463W        W54327  22.558  26.816  26.630  0.0780  0.1154 -0.1650
53464W        W54328  21.491  25.947  27.163 -0.3310 -0.1780  0.1634
53465W        W54329  18.791  29.106  24.611  0.3406  0.0023 -0.0560
53466W        W54330  21.468  27.715   1.867 -0.3379  0.1439 -0.2535
53467W        W54331  21.168  28.331  28.206  0.2647  0.2948 -0.3543
53468W        W54332  15.714  26.124   0.728 -0.0200  0.3761 -0.1482
53469W        W54333  19.616  25.247   2.501 -0.4127 -0.0523 -0.0369
53470W        W54334  18.178  25.805  25.589  0.0076 -0.1952  0.0665
53471W        W54335  19.746  27.499  27.286 -0.0550 -0.2050  0.0137
53472W        W54336  18.251  26.605  27.194  0.0013  0.1004  0.0919
53473W        W54337  19.058   0.786  26.767 -0.2874  0.1923  0.1490
53474W        W54338  18.037   0.458  23.482  0.0824 -0.0517 -0.0228
53475W        W54339  20.194  26.287   1.194  0.1739 -0.3958 -0.3050
53476W        W54340  18.811  26.090  28.193  0.0891  0.2458  0.1904
53477W        W54341  17.373  28.373  28.546 -0.0770  0.2584  0.0764
53478W        W54342  20.655  25.522   1.086 -0.0815  0.1362  0.1171
53479W        W54343  20.563  26.691  27.962 -0.0110 -0.1652  0.0796
53480W        W54344  23.749  27.879  26.273 -0.3613 -0.1936  0.0995
53481W        W54345  18.693  27.389   0.064 -0.2246 -0.3962  0.0786
53482W        W54346  24.090   0.139  23.172 -0.0114  0.2152  0.0830
53483W        W54347  21.384  24.287  26.859  0.1528  0.1343 -0.0914
53484W        W54348  18.362   1.160  28.476  0.2850 -0.1009  0.0141
53485W        W54349  22.016  22.943   1.581  0.2071  0.3851 -0.1631
53486W        W54350  22.973  26.412   0.218 -0.0229 -0.1192  0.0901
53487W        W54351  19.254   0.123   0.853 -0.1928 -0.2105  0.0890
53488W        W54352  18.751  27.808  24.982 -0.0861  0.2258  0.3364
53489W        W54353  20.735  27.516  25.104  0.3361  0.1122 -0.0119
53490W        W54354  17.493  27.704   0.500  0.2823 -0.0227 -0.0953
53491W        W54355  20.556   0.085   0.489 -0.2210  0.0567  0.1230
53492W        W54356  19.641  28.699  27.936 -0.0434  0.1860 -0.1249
53493W        W54357  20.519   0.839  26.375  0.0829  0.1300 -0.2151
53494W        W54358  21.622   0.323  29.067  0.0030 -0.1562  0.3340
53495W        W54359  17.470  27.005  28.648  0.2525  0.1180  0.2493
53496W        W54360  18.709  27.239   0.611 -0.0973 -0.1844  0.2584
53497W        W54361  17.410  27.415  28.224 -0.0377  0.0822  0.1434
53498W        W54362  20.200   0.228  27.554  0.2935 -0.1329  0.2929
53499W        W54363  18.435  27.582  28.820  0.1127  0.1185 -0.3829
53500W        W54364  17.796  28.302  27.547  0.2466 -0.0724  0.0835
53501W        W54365  26.644  28.141  27.856  0.0825  0.1905  0.2321
53502W        W54366  20.664  26.342   2.418  0.0337  0.0038  0.0119
53503W        W54367  20.866  28.711  28.047  0.1182  0.1584 -0.2203
53504W        W54368  22.277  28.501  27.775 -0.1644 -0.0982  0.2045
53505W        W54369  20.222  27.716  27.267 -0.0570 -0.2456  0.1309
53506W        W54370  19.682   1.876   2.245  0.2616 -0.0764  0.1335
53507W        W54371  18.790  27.399   1.218 -0.1063  0.0161  0.0512
53508W        W54372  20.001  26.264  27.296 -0.1036 -0.0502 -0.1115
53509W        W54373  18.071  28.548   0.697  0.0218  0.1691 -0.2603
53510W        W54374  20.955   1.334  25.745  0.0637 -0.1122 -0.2593
53511W        W54375  24.112   0.482  27.010  0.0380 -0.2031  0.0768
53512W        W54376  19.357   0.724   0.561 -0.0791  0.1579  0.1467
53513W        W54377  21.878   1.027  28.398 -0.1713 -0.0200  0.0474
53514W        W54378  18.024  24.987  28.274 -0.3210 -0.1208 -0.0328
53515W        W54379  20.719  27.290   0.004  0.0229  0.1149  0.3696
53516W        W54380  21.461   1.193  28.261  0.2436  0.0185 -0.0950
53517W        W54381  23.768  27.464  27.913  0.1044 -0.0298 -0.2732
53518W        W54382  18.868  26.212  28.665 -0.0418  0.0557 -0.1345
53519W        W54383  21.728  27.808  27.571 -0.2337  0.0311 -0.0249
53520W        W54384  19.320   0.059  27.946  0.0518  0.4478 -0.0602
53521W        W54385  23.164  22.731  29.128  0.2160  0.3841  0.1540
53522W        W54386  17.947  26.132   0.200 -0.2050  0.0833 -0.0768
53523W        W54387  19.812   0.142  27.251 -0.0614 -0.2080  0.2739
53524W        W54388  20.691  26.022  26.603  0.4246 -0.1188 -0.0722
53525W        W54389  17.308  28.366  27.338 -0.0681  0.1835  0.2814
53526W        W54390  20.546  26.712  26.287 -0.1973  0.5244 -0.0503
53527W        W54391  20.896  26.537   0.260 -0.0654 -0.0186 -0.0634
53528W        W54392  17.612  27.423  29.031 -0.1510  0.0684  0.2017
53529W        W54393  18.145  26.355  28.290  0.4293  0.2963 -0.1378
53530W        W54394  18.200   2.517  27.896 -0.0682  0.0992  0.2450
53531W        W54395  21.940   0.842  27.911 -0.2383 -0.2048 -0.2190
53532W        W54396  21.513   0.108  26.147  0.2304  0.1139 -0.2957
53533W        W54397  16.419  27.422   1.716 -0.1756 -0.0706 -0.2243
53534W        W54398  20.121  28.008  27.722 -0.1620  0.0006 -0.1588
53535W        W54399  17.536  27.878  27.200 -0.0722 -0.2331  0.0907
53536W        W54400  20.530  26.120  28.742 -0.0633 -0.0367 -0.1015
53537W        W54401  19.421  26.582  28.627 -0.0346 -0.1506 -0.1825
53538W        W54402  17.499  26.383   0.117  0.1507 -0.3346  0.1247
53539W        W54403  20.499   0.490  28.586 -0.0313  0.0798  0.1413
53540W        W54404  22.092  24.818  26.739  0.0688 -0.2261  0.1684
53541W        W54405  20.709  28.284  26.929 -0.1160 -0.1599  0.3573
53542W        W54406  18.251  27.093  25.772  0.2187  0.2400 -0.0404
53543W        W54407  22.201  26.640  26.114  0.0659 -0.1019 -0.0610
53544W        W54408  20.832   3.050  28.734  0.2387  0.1427  0.1002
53545W        W54409  20.745  28.763  29.002  0.0263  0.2134 -0.1757
53546W        W54410  18.359  28.362  26.128  0.1641  0.0638 -0.0723
53547W        W54411  19.913  28.757  28.424 -0.0185 -0.2491 -0.1314
53548W        W54412  21.460  28.766  28.054 -0.2174  0.2768  0.2175
53549W        W54413  22.528  26.538  27.078  0.1768 -0.1278  0.0862
53550W        W54414  20.612  27.319  28.669  0.1985  0.0916 -0.2223
53551W        W54415  23.908  27.859  28.561  0.0800 -0.1790 -0.2021
53552W        W54416  20.737  25.489   2.358 -0.0890 -0.2510  0.0507
53553W        W54417  22.468  25.483  25.792  0.3077  0.1540 -0.1415
53554W        W54418  20.401  26.965  28.416 -0.5160  0.4767  0.1487
53555W        W54419  20.927  27.433  25.993 -0.1773  0.0679  0.0653
53556W        W54420  20.107  26.043  27.795  0.0299 -0.0529 -0.1534
53557W        W54421  19.941  25.553  26.104 -0.0635 -0.4337  0.2574
53558W        W54422  18.212  28.019  29.029  0.1694 -0.0328  0.1031
53559W        W54423  18.804  26.223  23.871 -0.1580 -0.0569 -0.1368
53560W        W54424  20.033  25.723  28.642 -0.2073 -0.4447 -0.2370
53561W        W54425  20.444  27.340  26.562  0.4912 -0.1795  0.2054
53562W        W54426  24.318  28.633  28.500 -0.0317  0.2413 -0.0933
53563W        W54427  21.183  24.780  26.916  0.0690 -0.0778 -0.1871
53564W        W54428  19.537  25.457  27.919 -0.0997 -0.2242  0.3285
53565W        W54429  19.466  26.600  26.457 -0.4618 -0.2385 -0.2087
53566W        W54430  20.453  25.004   2.422 -0.1793  0.0722  0.1121
53567W        W54431  19.351  26.147   2.510 -0.2363  0.1880  0.0687
53568W        W54432  22.212   0.241  26.587 -0.0881 -0.2136  0.1717
53569W        W54433  22.197  27.063  28.501 -0.1785  0.2189 -0.0694
53570W        W54434  22.123   3.103  26.220  0.0320 -0.1222  0.4026
53571W        W54435  20.378  28.495   1.736  0.0016 -0.3306 -0.2670
53572W        W54436  19.385  27.027  28.060 -0.0302 -0.0683 -0.2374
53573W        W54437  20.984  26.483  28.000  0.0119  0.2479  0.0681
53574W        W54438  18.919  28.809  25.199 -0.4075 -0.0398  0.0419
53575W        W54439  18.442  26.586  28.754  0.0469 -0.2463 -0.5506
53576W        W54440  19.065  29.001   0.392  0.2378 -0.0241 -0.0554
53577W        W54441  22.703  27.663  27.499  0.0441  0.1408  0.1279
53578W        W54442  21.317   0.109  28.706 -0.1252 -0.0100 -0.0365
53579W        W54443  19.015   1.088   0.683 -0.0053 -0.4100 -0.0503
53580W        W54444  17.973  26.486   0.783  0.0731  0.1738 -0.0169
53581W        W54445  19.786  26.849  25.067  0.4174 -0.1753 -0.0787
53582W        W54446  21.782  26.527  24.594 -0.0466 -0.0909  0.0212
53583W        W54447  20.270  27.842   0.315 -0.0906  0.0702  0.3106
53584W        W54448  18.237  26.510   0.044 -0.4064 -0.1247  0.0446
53585W        W54449  19.713   0.674   2.441 -0.3248  0.2350 -0.0538
53586W        W54450  18.939  27.940  26.885 -0.2458 -0.0124 -0.0784
53587W        W54451  18.198  28.893   0.278  0.0142 -0.0367  0.1908
53588W        W54452  18.785  28.176   0.580  0.1751  0.0994 -0.1640
53589W        W54453  16.630  27.950  27.902 -0.0897 -0.0869 -0.2059
53590W        W54454  18.812  27.806  27.378  0.0681 -0.1138  0.1542
53591W        W54455  22.079  23.664  25.896 -0.0742 -0.2527  0.1214
53592W        W54456  19.772   0.090  27.794  0.1666 -0.1821 -0.0183
53593W        W54457  21.453  26.474  27.470  0.1036 -0.1301 -0.2306
53594W        W54458  18.751  26.511  27.856  0.2105 -0.4339  0.1754
53595W        W54459  18.591  25.359  26.847  0.2052  0.0230  0.0744
53596W        W54460  22.630  24.179  24.128 -0.0818  0.1389  0.2103
53597W        W54461  23.503  27.520  28.741  0.2698  0.1214  0.1652
53598W        W54462  19.148  28.718  29.087 -0.3311 -0.0479 -0.3036
53599W        W54463  21.296   1.909  28.329 -0.0543 -0.0346 -0.0366
53600W        W54464  20.580  29.084  27.890 -0.0783 -0.0655  0.0704
53601W        W54465  17.296  25.942  28.444 -0.0065  0.1996  0.2470
53602W        W54466  20.722  27.291  25.519 -0.0131  0.0020 -0.0188
53603W        W54467  19.729  26.425  28.995  0.0833  0.3394  0.0390
53604W        W54468  23.051  27.892  26.084 -0.2136 -0.2646 -0.0666
53605W        W54469  19.737  27.027  28.687  0.1573  0.3091 -0.2111
53606W        W54470  15.556   0.561  28.843 -0.1005 -0.0352  0.1669
53607W        W54471  19.516  28.955  25.001  0.0564 -0.1712  0.2532
53608W        W54472  17.172  27.916  26.644  0.1033  0.0535  0.2369
53609W        W54473  19.717  27.209  27.684  0.1406  0.2970  0.0297
53610W        W54474  18.929   2.355   0.119  0.0560 -0.0232 -0.1893
53611W        W54475  22.020   1.902  26.678 -0.0926  0.0411  0.1663
53612W        W54476  20.594  26.414  28.364  0.3124  0.2963 -0.3055
53613W        W54477  18.489  27.098  27.854 -0.1273 -0.2199 -0.0022
53614W        W54478  20.298  27.657  25.339  0.3349  0.3245 -0.0593
53615W        W54479  22.023  27.389  28.849 -0.1892 -0.0009 -0.1556
53616W        W54480  21.850  25.377  23.765 -0.0710  0.0800  0.4496
53617W        W54481  19.362  26.697   1.201  0.4748 -0.1395 -0.0348
53618W        W54482  22.079  27.767  27.182  0.2682  0.1163 -0.0509
53619W        W54483  19.149  28.006  26.394  0.0092  0.0783 -0.2936
53620W        W54484  22.234  25.001  28.108 -0.1717  0.1202 -0.0928
53621W        W54485  17.001  28.649  26.279 -0.1083  0.0960  0.2125
53622W        W54486  21.238  24.713   0.344  0.3919  0.3160  0.2780
53623W        W54487  16.066  26.648   0.431  0.0445  0.0792  0.2648
53624W        W54488  22.087  27.812  25.841 -0.0655  0.2585 -0.3215
53625W        W54489  20.116  26.308  24.273 -0.2375 -0.0304  0.1817
53626W        W54490  20.540  26.915   0.243  0.1111 -0.1641 -0.0745
53627W        W54491  21.616  26.417  26.997 -0.1719  0.3079 -0.0307
53628W        W54492  19.053  25.317  27.262  0.1466 -0.0922  0.0475
53629W        W54493  21.971  27.571   1.227 -0.1314 -0.2271  0.0290
53630W        W54494  20.847  26.470  28.837  0.0237  0.2431 -0.2629
53631W        W54495  22.193  27.052   2.121 -0.2204  0.1101 -0.1369
53632W        W54496  18.997  26.912   0.405 -0.0162  0.2143 -0.0244
53633W        W54497  19.559  28.387  26.119 -0.0314 -0.0425  0.1517
53634W        W54498  20.658  24.760  26.316  0.0103 -0.0018  0.0117
53635W        W54499  18.797  29.019  25.695  0.0963  0.0692 -0.0259
53636W        W54500  20.529  24.298  26.788 -0.3779 -0.1985 -0.1229
53637W        W54501  22.534  28.369  26.467 -0.0808  0.2636  0.0348
53638W        W54502  23.391  26.931  27.967 -0.0727 -0.0013 -0.1516
53639W        W54503  19.880  27.962  25.901  0.3189 -0.0410  0.1897
53640W        W54504  17.704  26.636  27.959  0.0691  0.2693 -0.0689
53641W        W54505  16.683  27.466  27.529 -0.0071  0.2249 -0.1611
53642W        W54506  21.442   0.959  28.738 -0.0991  0.0580  0.0767
53643W        W54507  17.701  27.878   0.024  0.0564 -0.2342 -0.0493
53644W        W54508  16.353  28.993   0.644 -0.3933  0.1333 -0.3759
53645W        W54509  19.560  25.289   0.353  0.2549 -0.2551 -0.0606
53646W        W54510  19.299  27.509  27.513 -0.0221  0.1114  0.0265
53647W        W54511  16.391   0.863  28.235  0.1690 -0.2601  0.0963
53648W        W54512  19.575  28.319  28.432  0.1154  0.3023 -0.0190
53649W        W54513  20.278  27.076  27.845  0.0387  0.1750  0.2029
53650W        W54514  20.606  25.649  28.918 -0.0706  0.3414 -0.0944
53651W        W54515  21.223   0.530  26.265  0.5882  0.1705  0.1152
53652W        W54516  20.958  26.049   1.773  0.1912  0.2067  0.2389
53653W        W54517  18.121   0.701  27.670 -0.1274 -0.1166  0.1535
53654W        W54518  21.027  26.878  29.041 -0.0684 -0.1837  0.1486
53655W        W54519  19.099  25.743  28.745 -0.1821 -0.0713 -0.1396
53656W        W54520  20.995  27.526  27.888 -0.3332 -0.1174 -0.2433
53657W        W54521  19.669  28.227  27.740  0.0361  0.0506  0.2571
53658W        W54522  20.601   0.954   0.273 -0.1933  0.2880  0.0132
53659W        W54523  19.243  27.501  28.196 -0.1878  0.1296 -0.3101
53660W        W54524  17.380   0.214  28.927 -0.0283  0.0892  0.1478
53661W        W54525  19.631   0.276  28.798  0.1581 -0.0930  0.0587
53662W        W54526  20.186  28.318  28.558 -0.1446  0.1963 -0.0884
53663W        W54527  20.619   0.890  25.839 -0.1236 -0.3561 -0.0605
53664W        W54528  19.222  26.202  24.836  0.0562  0.0845  0.1981
53665W        W54529  22.272   4.057   3.843  0.0840 -0.1363  0.0799
53666W        W54530  23.623   1.677   1.570  0.1555  0.2858  0.1646
53667W        W54531  25.070   1.234  28.036  0.0589 -0.3126 -0.0041
53668W        W54532  24.847   2.733   3.900 -0.4487  0.0133 -0.1162
53669W        W54533  22.212   6.387   2.592 -0.1655  0.1575 -0.1036
53670W        W54534  22.245   1.443   1.329 -0.3369  0.0649  0.0195
53671W        W54535  23.766   1.487  28.436 -0.1029  0.0403 -0.0829
53672W        W54536  24.069   3.178   1.657  0.0142 -0.1838  0.1466
53673W        W54537  24.785   3.148   3.641 -0.0605 -0.0769  0.0670
53674W        W54538  19.449   1.694   3.221 -0.0395  0.1754 -0.1804
53675W        W54539  21.668  28.096   4.159  0.0059  0.1451  0.1259
53676W        W54540  24.337   3.973   2.522 -0.1004 -0.1157 -0.2490
53677W        W54541  26.447  28.761   1.058 -0.2116  0.1316  0.0258
53678W        W54542  23.228  27.806   2.780  0.1104  0.1172  0.0419
53679W        W54543  20.707   1.959   1.569  0.0001  0.3248 -0.2323
53680W        W54544  23.951   4.903   4.159  0.2754  0.1659 -0.0429
53681W        W54545  24.480   2.975   1.334  0.1073 -0.0517 -0.0002
53682W        W54546  19.451   2.318   3.651  0.0593  0.1124 -0.2149
53683W        W54547  23.866   1.125   3.529  0.0308  0.2241 -0.2366
53684W        W54548  27.472   2.011  27.068 -0.0618 -0.5106 -0.0438
53685W        W54549  27.089   1.939   3.493  0.0842 -0.1281  0.2012
53686W        W54550  23.580   1.768   2.339 -0.1254 -0.1312  0.0371
53687W        W54551  24.482   1.069   1.641 -0.0526 -0.0763 -0.0695
53688W        W54552  20.871   0.692   0.792 -0.1784  0.2195  0.3853
53689W        W54553  19.892  28.689   1.039 -0.2728  0.0766  0.0866
53690W        W54554  20.900  29.048   3.757 -0.0546  0.3050  0.1449
53691W        W54555  23.772   4.226   3.459  0.0191  0.0540  0.0346
53692W        W54556  23.101   1.720   2.141  0.1326 -0.2264  0.0689
53693W        W54557  23.965   4.349   3.935  0.2216  0.1238  0.2371
53694W        W54558  22.735   1.556   4.423  0.2165 -0.0120 -0.0292
53695W        W54559  20.958   0.932   2.728 -0.1707 -0.0471 -0.0074
53696W        W54560  22.246   3.183   4.521 -0.0310  0.0512 -0.0877
53697W        W54561  23.958   1.420   2.307  0.1373 -0.0706  0.0877
53698W        W54562  22.307   3.328   1.239 -0.1610  0.1485  0.2360
53699W        W54563  22.088   1.443   3.446  0.2292 -0.1925  0.0026
53700W        W54564  22.286   2.472   3.996  0.1077  0.0277  0.1328
53701W        W54565  22.593  28.149   1.057  0.1234 -0.1738  0.1787
53702W        W54566  23.275   2.006   1.445 -0.2455 -0.1207  0.2461
53703W        W54567  25.594   1.791   2.754 -0.0579  0.3120 -0.2589
53704W        W54568  27.508   1.859   3.153  0.0319  0.1218 -0.3863
53705W        W54569  24.662   0.082   0.136  0.1391  0.3594 -0.0638
53706W        W54570  25.195   1.399   2.112 -0.0486  0.3096  0.0998
53707W        W54571  22.552   1.914   1.341 -0.0007 -0.3133  0.1330
53708W        W54572  23.853   3.497  26.990  0.0517  0.0261  0.0838
53709W        W54573  23.955   2.351  28.001 -0.1384  0.2526  0.1770
53710W        W54574  22.479   4.307   2.830  0.2318 -0.1454 -0.2033
53711W        W54575  22.969   0.574   3.650  0.0322 -0.2064  0.1373
53712W        W54576  27.729   1.488   5.079  0.2490 -0.1332 -0.0519
53713W        W54577  24.037   3.499   2.095 -0.1442  0.5649 -0.1162
53714W        W54578  27.255   1.154   0.121  0.1720 -0.1537  0.0419
53715W        W54579  26.721   3.056   1.616  0.2550  0.1306 -0.0648
53716W        W54580  21.974   0.473   4.538  0.0678 -0.4267  0.1531
53717W        W54581  23.720   3.435   2.469 -0.1375  0.0632  0.1090
53718W        W54582  24.659  27.295   1.367  0.1514 -0.2023  0.4272
53719W        W54583  22.236  28.404   2.578 -0.0180 -0.2316 -0.4648
53720W        W54584  23.625   3.012  27.921  0.1035 -0.2561 -0.0355
53721W        W54585  25.689   3.386  28.291 -0.0088 -0.0038  0.1292
53722W        W54586  27.655   0.106   3.141  0.0809 -0.0499  0.0076
53723W        W54587  21.518   0.814   1.860 -0.1487  0.2252  0.1197
53724W        W54588  24.293   4.328   0.113 -0.1177 -0.0284  0.0192
53725W        W54589  26.876   2.148  26.446  0.2100  0.1338  0.0608
53726W        W54590  22.137   2.945   2.241  0.2125  0.1283  0.2013
53727W        W54591  23.665   1.027   2.702 -0.0368  0.0753 -0.3998
53728W        W54592  23.409   0.335   2.841 -0.1654  0.1527 -0.0759
53729W        W54593  24.540   0.628   3.821  0.2613  0.0228 -0.1422
53730W        W54594  24.343  28.152  28.761  0.2031 -0.0340 -0.3569
53731W        W54595  24.329  28.795  27.573 -0.1015 -0.0037  0.0925
53732W        W54596  25.148   0.925  28.477 -0.0055  0.0275  0.2216
53733W        W54597  24.416   2.148  27.393 -0.0791  0.0371 -0.0296
53734W        W54598  25.021   2.200   2.170 -0.0236 -0.3803 -0.0280
53735W        W54599  24.532   1.400   5.634 -0.1561  0.0185 -0.3358
53736W        W54600  24.251   0.925  28.769  0.1820  0.2671 -0.0399
53737W        W54601  25.333   4.292   3.916 -0.1911 -0.2930 -0.0330
53738W        W54602  26.068   0.106   3.274  0.1362 -0.2324  0.0821
53739W        W54603  24.643   3.124   0.834  0.0856 -0.2013 -0.1925
53740W        W54604  27.328   3.172   5.348 -0.1314 -0.2203 -0.0674
53741W        W54605  22.510   4.041   1.623 -0.0527 -0.0649  0.1065
53742W        W54606  22.730   2.663   2.416 -0.1999 -0.1765  0.2402
53743W        W54607  24.916   1.073   1.324 -0.0331 -0.1039  0.3153
53744W        W54608  21.958   4.029   0.465  0.1466  0.0450 -0.1742
53745W        W54609  21.328   1.870   2.759 -0.3647 -0.3326  0.1029
53746W        W54610  22.357  29.025   1.165  0.0914 -0.1436 -0.2436
53747W        W54611  20.527   0.183   3.539 -0.3414  0.0899 -0.0171
53748W        W54612  23.329   0.713   2.386  0.2511 -0.5291  0.1358
53749W        W54613  25.077   1.522   3.986  0.0688 -0.0059 -0.2860
53750W        W54614  23.737   2.552   0.891 -0.1302 -0.0149 -0.3391
53751W        W54615  24.629   3.920   3.774 -0.1388 -0.1325 -0.5063
53752W        W54616  25.650   0.544   5.556 -0.1368 -0.0684  0.1365
53753W        W54617  26.284   1.440   3.597 -0.2491 -0.0301 -0.2178
53754W        W54618  26.113  28.489   2.793  0.0064 -0.2444 -0.1679
53755W        W54619  24.498   0.932   0.608 -0.0104 -0.0709 -0.4316
53756W        W54620  23.579  29.079   3.681  0.1200 -0.1609 -0.0279
53757W        W54621  23.227   2.018   0.314  0.0159 -0.1300  0.0715
53758W        W54622  24.583  28.898  28.046  0.0170 -0.3655 -0.0089
53759W        W54623  22.591  27.881   3.826  0.0208 -0.1814 -0.0620
53760W        W54624  25.229  27.911   0.063  0.0548 -0.0098  0.0113
53761W        W54625  23.290  28.095  29.118 -0.0860 -0.0878 -0.0925
53762W        W54626  21.720   1.205   5.580  0.0253 -0.3239 -0.1394
53763W        W54627  24.391  28.354   2.028 -0.2967  0.1505  0.2576
53764W        W54628  24.130   0.217   1.596 -0.1732  0.2605  0.0979
53765W        W54629  24.238   3.310   1.061 -0.0312  0.2072  0.0205
53766W        W54630  21.796   1.161   1.487 -0.2276 -0.0682 -0.0142
53767W        W54631  23.735  28.496  26.764 -0.0190  0.0102 -0.0498
53768W        W54632  25.955   1.055   4.673  0.0224 -0.0697 -0.3507
53769W        W54633  23.695   1.475   2.829  0.1392 -0.1103  0.2374
53770W        W54634  23.075   0.700   3.158  0.2048  0.1853  0.2730
53771W        W54635  23.771   2.051   1.172 -0.0485  0.1452 -0.5322
53772W        W54636  24.396   1.820   3.410 -0.0425 -0.0323 -0.1925
53773W        W54637  25.174  28.191  28.754  0.0111  0.0882 -0.2049
53774W        W54638  22.633   0.819   3.075 -0.2200 -0.1127  0.1890
53775W        W54639  22.282   1.136   3.813  0.1470  0.2111  0.2049
53776W        W54640  22.901   1.984  29.067  0.2519 -0.0982 -0.1627
53777W        W54641  26.392   0.477   1.750  0.0035 -0.0306 -0.0313
53778W        W54642  22.543   2.402   1.471 -0.0115 -0.1776 -0.2155
53779W        W54643  25.673   3.369   0.487  0.0032  0.2377  0.2551
53780W        W54644  24.289   1.039   2.094  0.1127 -0.1171  0.2219
53781W        W54645  24.998   0.658   4.010  0.1302  0.2683  0.3857
53782W        W54646  26.277   4.414   2.348 -0.0581  0.0006 -0.0542
53783W        W54647  24.887  27.663   1.641 -0.1307 -0.2154  0.3221
53784W        W54648  25.253   1.354   1.056 -0.2250 -0.0771  0.0765
53785W        W54649  22.852   2.705   1.298 -0.1629  0.1764 -0.1095
53786W        W54650  25.887   3.644   2.243 -0.0494  0.2637  0.0323
53787W        W54651  23.057   2.861   0.018 -0.3408  0.2873 -0.0004
53788W        W54652  24.864   0.540   0.552  0.0129  0.1381 -0.2429
53789W        W54653  25.768   1.152   1.944  0.1694  0.0259 -0.0342
53790W        W54654  21.221   1.850   1.450 -0.0992  0.2753  0.0332
53791W        W54655  20.611   2.108   2.019 -0.0331  0.1766 -0.1180
53792W        W54656  27.983   3.144   6.306 -0.1115 -0.2638 -0.2255
53793W        W54657  24.857   3.155   2.767 -0.2779  0.0092 -0.0676
53794W        W54658  22.816   2.285   0.397  0.0917 -0.1576  0.0436
53795W        W54659  26.786   2.806   3.799  0.0312 -0.1015  0.0039
53796W        W54660  22.279   1.024   1.745  0.1799 -0.2496  0.1766
53797W        W54661  23.443   3.454   5.152  0.0617  0.3373  0.1101
53798W        W54662  22.557  27.442   2.111 -0.0985 -0.0025 -0.3550
53799W        W54663  28.414   1.892   2.251  0.0709 -0.1202  0.3086
53800W        W54664  22.290   1.474   0.189 -0.0296 -0.1265  0.1019
53801W        W54665  24.053   0.992   3.038  0.3094 -0.1949  0.1160
53802W        W54666  25.566   2.038   3.182 -0.0548  0.1323  0.0708
53803W        W54667  24.033   2.140   0.715  0.0602  0.1772 -0.0263
53804W        W54668  24.515   2.690   2.890  0.1220  0.5754  0.0038
53805W        W54669  24.012   0.780   1.739 -0.1129 -0.0769  0.3700
53806W        W54670  22.287   1.262   2.186 -0.1704 -0.0782 -0.1986
53807W        W54671  23.539   4.850   0.236 -0.2077  0.1959  0.1129
53808W        W54672  21.026   0.452  28.474  0.0140  0.2009  0.2693
53809W        W54673  25.141   2.242   3.946 -0.1137 -0.3258 -0.1810
53810W        W54674  23.967  28.901  28.694 -0.4460 -0.2516 -0.0669
53811W        W54675  24.152   1.315   0.636  0.0153 -0.3293  0.1433
53812W        W54676  25.351   4.031   2.595 -0.1603 -0.0663  0.3512
53813W        W54677  24.396   3.804   0.928 -0.1245 -0.0463  0.1429
53814W        W54678  26.067   1.099   2.351 -0.2234  0.2264  0.0731
53815W        W54679  24.895   3.861   2.352 -0.3400 -0.1323  0.2728
53816W        W54680  24.500   0.528   1.814  0.0165  0.0762  0.2397
53817W        W54681  20.824  28.697   2.528 -0.0531  0.0643  0.1679
53818W        W54682  23.078  29.059   1.888  0.1064 -0.3330  0.2553
53819W        W54683  23.723   0.346   5.066 -0.0464 -0.0384 -0.0446
53820W        W54684  23.342  29.020   2.311 -0.2191 -0.3121 -0.0481
53821W        W54685  21.620   2.169   3.403 -0.2025 -0.2128  0.0627
53822W        W54686  22.072   0.570  28.449 -0.3514 -0.1731 -0.1540
53823W        W54687  22.809  28.052   0.603 -0.0334 -0.2674  0.0946
53824W        W54688  27.058   1.478   2.336  0.0742 -0.1729  0.1220
53825W        W54689  26.826   1.695   4.478 -0.0113  0.0289 -0.1093
53826W        W54690  22.396   3.490   3.930 -0.0122  0.0506  0.2664
53827W        W54691  24.980   3.521   3.146 -0.1341  0.2885 -0.0251
53828W        W54692  25.210   2.381   3.330  0.1361 -0.0232  0.0950
53829W        W54693  22.874   0.069   3.680 -0.0531 -0.0895 -0.0092
53830W        W54694  23.359   1.762  28.352  0.0454 -0.1753 -0.0312
53831W        W54695  23.611   0.340   2.263 -0.3178  0.1856  0.1030
53832W        W54696  24.935   2.633  28.828  0.1697  0.1032  0.0326
53833W        W54697  22.433   3.884   0.141 -0.2886  0.3877 -0.0869
53834W        W54698  22.820   0.775   1.459  0.0010  0.2468  0.2017
53835W        W54699  24.785   1.966   4.357  0.2655 -0.2131  0.4324
53836W        W54700  26.733  28.840   1.531 -0.0746  0.4814 -0.2310
53837W        W54701  23.576  28.058   2.436  0.1269  0.1893 -0.0359
53838W        W54702  24.840   0.418  27.125  0.1525 -0.1916  0.1016
53839W        W54703  23.263  28.364   2.119 -0.2884  0.2871  0.0782
53840W        W54704  24.416   3.273  27.749 -0.0974 -0.2138 -0.0916
53841W        W54705  21.101   1.508   5.138  0.3179  0.0077 -0.0780
53842W        W54706  21.243  28.550   4.002 -0.1103 -0.1444  0.0081
53843W        W54707  21.317   2.430   0.035  0.1946  0.0093  0.0782
53844W        W54708  25.274   0.710   1.123 -0.2961 -0.3792 -0.2319
53845W        W54709  23.325   2.933   1.237  0.3097 -0.0520 -0.1521
53846W        W54710  22.892   3.719   0.260  0.3031  0.1825 -0.0967
53847W        W54711  25.215   3.098   1.949 -0.0407  0.0003 -0.0782
53848W        W54712  21.303   1.796   0.069  0.0743 -0.0282 -0.1393
53849W        W54713  23.546   0.115   0.297  0.2264 -0.0510 -0.2405
53850W        W54714  20.529   2.255   3.889  0.0486 -0.0663 -0.2695
53851W        W54715  24.558  28.681   1.683  0.2129  0.1325  0.1186
53852W        W54716  22.865   0.959  28.219 -0.2836  0.0211  0.1883
53853W        W54717  21.980   3.261   4.081 -0.0910 -0.1770 -0.1100
53854W        W54718  22.610   4.671   3.276  0.0677  0.1394 -0.2101
53855W        W54719  22.648   3.146  27.025  0.2689  0.1371 -0.0015
53856W        W54720  23.344   3.212  28.994 -0.3191  0.1519  0.3105
53857W        W54721  23.396   1.273   3.637  0.3669  0.0784 -0.0061
53858W        W54722  22.857   3.406   4.300 -0.1103  0.0181 -0.0521
53859W        W54723  22.103  27.963   3.960  0.0883 -0.0822  0.4149
53860W        W54724  23.083   1.407   1.653 -0.2234 -0.0268  0.1562
53861W        W54725  26.233  27.909  28.064  0.2148 -0.1650  0.1936
53862W        W54726  21.562   0.543  28.548  0.1561 -0.0875 -0.0206
53863W        W54727  20.815   2.579  28.903  0.2381 -0.0125  0.1360
53864W        W54728  22.816  28.133   2.785  0.0897  0.0742  0.1916
53865W        W54729  23.511   1.704  27.872 -0.0635  0.0526 -0.2846
53866W        W54730  22.936  28.695   2.259  0.3355 -0.0939  0.4809
53867W        W54731  25.945   3.509  28.716 -0.1339 -0.1020 -0.1242
53868W        W54732  24.515   1.114  27.856  0.1094 -0.1936  0.0462
53869W        W54733  23.794   0.979   4.489 -0.3141  0.1051  0.2098
53870W        W54734  26.109  29.139  26.677  0.2043  0.1654 -0.0901
53871W        W54735  24.404   0.253   2.570  0.0004 -0.1072 -0.0048
53872W        W54736  24.189   1.376   2.723  0.2443 -0.2229 -0.1268
53873W        W54737  24.925   1.749   1.056 -0.1246 -0.3053  0.2314
53874W        W54738  24.401   1.985   1.922 -0.2599  0.0983 -0.1882
53875W        W54739  25.151   1.652   5.028 -0.1357 -0.0722  0.2427
53876W        W54740  20.969   1.886   3.785  0.2264  0.2647  0.2287
53877W        W54741  22.209   2.124   2.939 -0.1865  0.1721 -0.1291
53878W        W54742  25.079   1.081   4.271  0.0848  0.3004 -0.0295
53879W        W54743  27.699   0.747   5.359  0.4011  0.1699  0.1223
53880W        W54744  25.246   2.541   0.882 -0.1411 -0.0152  0.0265
53881W        W54745  21.843   1.708  27.116  0.0423  0.0891 -0.0938
53882W        W54746  22.870   3.283   1.330  0.0595  0.0701  0.0543
53883W        W54747  25.329  29.063   2.180 -0.2959  0.0176 -0.2392
53884W        W54748  21.215   2.300   3.671  0.1727 -0.0497 -0.0423
53885W        W54749  25.827   1.031   3.519 -0.0465  0.3232  0.1146
53886W        W54750  22.406   2.059   3.778  0.0524  0.0741 -0.0814
53887W        W54751  21.294   5.971   5.223  0.0268 -0.1181 -0.0465
53888W        W54752  25.118   1.130  28.943 -0.2884 -0.0045  0.1072
53889W        W54753  23.928   1.844   1.997  0.0544  0.2061 -0.1439
53890W        W54754  21.296  28.777   4.813 -0.2708  0.0386  0.2430
53891W        W54755  25.025   0.625   1.666 -0.0688 -0.0854 -0.0977
53892W        W54756  26.602   0.010   3.202 -0.0623  0.0936 -0.2160
53893W        W54757  27.380   3.132   0.316 -0.0294 -0.2477 -0.2727
53894W        W54758  23.458   2.445   1.286 -0.0567 -0.0488 -0.0962
53895W        W54759  21.305   1.367   2.809 -0.1576  0.1236 -0.0819
53896W        W54760  25.076   0.576   2.194 -0.0115 -0.0909  0.2712
53897W        W54761  23.474   1.111   0.861  0.1178 -0.4041 -0.2226
53898W        W54762  24.769   1.950   1.618  0.1409 -0.0368  0.3563
53899W        W54763  20.664  28.782   3.335 -0.1034  0.0593  0.0448
53900W        W54764  22.561   1.647   2.274 -0.0677 -0.0223 -0.2052
53901W        W54765  25.940   3.105   4.404 -0.1075  0.0329  0.0275
53902W        W54766  26.032   1.925   2.966 -0.1128  0.1251 -0.0707
53903W        W54767  24.626   2.788   5.230  0.1174  0.1774 -0.1469
53904W        W54768  25.166   0.381  28.496 -0.0614  0.0839 -0.1200
53905W        W54769  24.495   0.562  28.478  0.0554 -0.2103  0.1499
53906W        W54770  22.502   3.148   2.540  0.0177 -0.1154  0.0466
53907W        W54771  21.580   1.609   3.372  0.1616 -0.0236 -0.1420
53908W        W54772  21.210  28.440   2.297 -0.2533 -0.1671 -0.2050
53909W        W54773  25.367  27.277   0.667  0.1107  0.0292 -0.1357
53910W        W54774  21.579   3.342  28.462  0.0575 -0.1071  0.3539
53911W        W54775  24.400   6.593   2.500  0.0339 -0.0333  0.0032
53912W        W54776  24.089   1.889   1.531  0.3578  0.1864 -0.2694
53913W        W54777  25.157   4.436   4.603 -0.2320 -0.0200  0.0766
53914W        W54778  24.601   2.225   0.989  0.0432 -0.1063  0.1151
53915W        W54779  21.584   0.807   0.133  0.3006 -0.0545 -0.0009
53916W        W54780  22.682   3.240   0.213  0.0297 -0.0197 -0.1399
53917W        W54781  24.964   1.336   2.924 -0.0546  0.1066 -0.2085
53918W        W54782  26.678   0.500   2.345  0.1292  0.3312 -0.1962
53919W        W54783  23.490   0.859  26.203 -0.1060 -0.0206  0.4541
53920W        W54784  25.641   4.853   0.318  0.1727 -0.0257  0.2393
53921W        W54785  23.300  25.439   4.213  0.2750 -0.1509 -0.0006
53922W        W54786  22.526   0.733   3.579  0.0985 -0.0596  0.4452
53923W        W54787  26.147   4.027   2.020 -0.0354  0.1067  0.0575
53924W        W54788  24.699   2.500   1.599  0.0470  0.1320 -0.1111
53925W        W54789  25.389   2.963  29.066 -0.2614 -0.0533  0.0946
53926W        W54790  22.329   3.154   3.043 -0.1142  0.1452 -0.1096
53927W        W54791  24.474   3.153   2.000  0.1530 -0.2455  0.0661
53928W        W54792  20.824  27.519   4.323 -0.3091 -0.0552  0.1787
53929W        W54793  23.601   0.637   0.378  0.0028  0.1842  0.2425
53930W        W54794  22.122   3.849   5.083 -0.2440 -0.0248  0.0698
53931W        W54795  24.331   2.038  28.612  0.0144 -0.1312  0.3921
53932W        W54796  24.360   1.823   1.169  0.3974 -0.0183 -0.0200
53933W        W54797  22.564   1.567   0.891  0.1988  0.3093  0.0807
53934W        W54798  25.517   2.587   1.417 -0.0853  0.1389  0.0954
53935W        W54799  21.754   1.658   1.413 -0.0147  0.0320  0.0739
53936W        W54800  25.561   1.036   0.149 -0.1757  0.1664  0.1593
53937W        W54801  23.747  27.621  29.139  0.0816  0.1153 -0.0747
53938W        W54802  22.305   0.681   0.116 -0.2731 -0.0590  0.1513
53939W        W54803  24.627   2.864   2.416 -0.0332 -0.0309 -0.0475
53940W        W54804  24.461   0.108   2.083 -0.2620 -0.0170 -0.1346
53941W        W54805  20.205   2.768   3.675 -0.0357  0.1917  0.3752
53942W        W54806  24.515   1.736  29.099 -0.0281 -0.1909  0.0139
53943W        W54807  23.065  29.046   0.419  0.0491 -0.1774 -0.0283
53944W        W54808  24.407   3.368   2.454  0.2675 -0.0901  0.0043
53945W        W54809  23.272   4.003   3.363  0.0050  0.0561  0.1156
53946W        W54810  25.726  28.587  28.813 -0.0538 -0.2372  0.0612
53947W        W54811  23.699  26.897   1.867  0.2240 -0.2321 -0.2202
53948W        W54812  21.456   4.085   2.891 -0.1831 -0.5082  0.0003
53949W        W54813  25.232   0.298   0.839 -0.1234 -0.2113  0.3930
53950W        W54814  26.797   1.625   2.725  0.4128 -0.1985 -0.1031
53951W        W54815  25.984   0.657   2.020 -0.0631  0.1078 -0.0953
53952W        W54816  22.483   2.139   4.293 -0.2217  0.0974  0.0212
53953W        W54817  23.749  27.835  27.307 -0.3112 -0.0822  0.0885
53954W        W54818  23.770   0.983   2.161  0.2302 -0.0319 -0.0979
53955W        W54819  24.791   1.031   2.029  0.0799  0.0005 -0.0070
53956W        W54820  23.526  28.501  28.860  0.1260  0.2028 -0.0729
53957W        W54821  21.966   3.656   3.719  0.2086  0.2846 -0.0369
53958W        W54822  25.042   1.693  27.863 -0.1622  0.3444  0.0400
53959W        W54823  25.834  29.007   0.839  0.0259 -0.0028 -0.3285
53960W        W54824  21.776   0.743   2.863  0.1467  0.1686  0.2003
53961W        W54825  24.312   2.754   0.928 -0.0844 -0.0548  0.2956
53962W        W54826  27.380   0.235   4.751 -0.2182 -0.4057 -0.0356
53963W        W54827  24.793   0.587   1.216  0.3876  0.0432 -0.1586
53964W        W54828  23.178   2.597   0.854  0.0406 -0.1106 -0.1797
53965W        W54829  22.245   0.528   1.881 -0.0811  0.2572 -0.3104
53966W        W54830  21.620  27.437   4.745  0.1190  0.1514  0.2015
53967W        W54831  22.419   1.978   1.908  0.3808  0.4667  0.4353
53968W        W54832  26.723   2.083   2.534  0.2489 -0.1444  0.1531
53969W        W54833  26.983   3.728   2.116 -0.2539  0.1361  0.0220
53970W        W54834  24.812   4.657   0.870 -0.0583  0.2118  0.2136
53971W        W54835  24.667   4.136   3.281 -0.0196 -0.2089 -0.3459
53972W        W54836  23.577   0.356   1.404  0.0917 -0.0584 -0.2119
53973W        W54837  24.118   0.817   2.506  0.0287  0.0042  0.0597
53974W        W54838  25.364   1.839   1.304 -0.0906 -0.1481  0.1613
53975W        W54839  24.089   0.766   0.325  0.0177  0.0563  0.1443
53976W        W54840  24.224   0.047   2.965  0.0154 -0.4819  0.5263
53977W        W54841  25.460   3.246   2.955  0.0308 -0.2763  0.0044
53978W        W54842  23.038   0.985   2.684 -0.1551 -0.2294  0.0305
53979W        W54843  21.608   0.188   0.818  0.2384 -0.0881  0.0528
53980W        W54844  22.928   3.418   2.727  0.0007 -0.1126 -0.1483
53981W        W54845  25.322  27.148  28.260 -0.0581 -0.2670  0.3216
53982W        W54846  24.131  27.627   0.864  0.1619  0.1176 -0.1450
53983W        W54847  23.042   2.661   4.640 -0.0591  0.3476  0.2359
53984W        W54848  22.744   1.246   4.850 -0.1558  0.3424 -0.0179
53985W        W54849  19.985   0.981   2.863  0.0487  0.0219  0.1447
53986W        W54850  25.491   2.718   0.508 -0.0061  0.1713  0.0728
53987W        W54851  22.133   1.198   2.721  0.0297  0.0480 -0.1273
53988W        W54852  25.118   3.762  28.866 -0.4241  0.0439 -0.1007
53989W        W54853  22.312  28.913   2.448  0.1005  0.1789 -0.1055
53990W        W54854  22.754   3.570   2.262 -0.1327 -0.1055 -0.0802
53991W        W54855  24.515   0.962   2.800  0.1744 -0.1850 -0.0290
53992W        W54856  24.095  27.181  29.081  0.0615  0.0924  0.1311
53993W        W54857  22.265   1.111  29.051  0.0428 -0.2325 -0.2392
53994W        W54858  23.191   1.482   0.196  0.0406 -0.0097  0.3490
53995W        W54859  25.962  28.582   1.048  0.0306  0.0737  0.0903
53996W        W54860  24.337   2.240   3.861  0.0019  0.5205 -0.1437
53997W        W54861  24.267   4.050   4.232  0.0900 -0.0121  0.3658
53998W        W54862  26.262   1.328   4.395 -0.0985 -0.3054  0.1432
53999W        W54863  25.499   3.316   5.416 -0.0749  0.2702  0.1160
54000W        W54864  23.900   4.912   3.260 -0.6163  0.5068 -0.0392
54001W        W54865  26.577   1.274   2.387  0.1473  0.0633  0.2235
54002W        W54866  25.532   1.385   0.576  0.2390 -0.0555  0.0490
54003W        W54867  24.519  28.861  26.695 -0.0865 -0.3031 -0.0146
54004W        W54868  23.667   1.158   0.395  0.0953  0.1991  0.0165
54005W        W54869  23.144  28.493   0.767 -0.3179 -0.0500  0.0268
54006W        W54870  24.619   1.519   1.436 -0.0187 -0.1159 -0.0187
54007W        W54871  22.874   4.365  28.643  0.0392 -0.0027 -0.3767
54008W        W54872  24.538   3.570   3.409  0.2107 -0.3099 -0.2322
54009W        W54873  22.760   2.514   1.951  0.3552 -0.1567 -0.1320
54010W        W54874  22.174   1.106  27.122 -0.0723  0.1823 -0.2553
54011W        W54875  20.390   1.839   2.562  0.0153  0.2189 -0.0580
54012W        W54876  25.597   1.462   3.741  0.0359  0.1847  0.0820
54013W        W54877  21.649   1.183   0.548  0.2329  0.0699 -0.0994
54014W        W54878  26.785   1.282   1.899 -0.2395 -0.1013  0.2552
54015W        W54879  26.463   2.389   0.387  0.4239 -0.1248 -0.0520
54016W        W54880  27.813   0.811   3.312  0.2725 -0.0082  0.0995
54017W        W54881  25.406   4.100   1.994 -0.2085 -0.2886  0.3297
54018W        W54882  24.676   5.178   2.984  0.0147 -0.2435  0.2351
54019W        W54883  21.913  27.715   3.047  0.0850 -0.0116 -0.0796
54020W        W54884  21.547   1.909  28.781 -0.4605 -0.2239  0.1479
54021W        W54885  23.822   1.243   5.109  0.0168 -0.2194  0.2620
54022W        W54886  23.215  29.056   4.024 -0.0333  0.0299 -0.0592
54023W        W54887  25.540   2.227   0.545 -0.1366  0.0819 -0.1244
54024W        W54888  22.031   1.544   1.749  0.1679 -0.0589 -0.0984
54025W        W54889  26.254   2.908   1.726  0.2273 -0.0253  0.0007
54026W        W54890  24.190   1.352   1.274 -0.3298 -0.0941  0.0367
54027W        W54891  25.589   0.220   0.510 -0.0750  0.1077 -0.1267
54028W        W54892  24.331   4.909   2.153  0.1057 -0.0139 -0.5469
54029W        W54893  26.333   2.778   1.237 -0.0035  0.1830  0.1627
54030W        W54894  23.685   3.182   1.086  0.2561 -0.1104  0.1969
54031W        W54895  24.198   5.530   5.306  0.0284 -0.0022 -0.0004
54032W        W54896  22.670   0.054   0.725  0.2189 -0.5316 -0.2297
54033W        W54897  26.779  28.398   1.300  0.2012 -0.0974  0.1524
54034W        W54898  22.169   0.310   1.363 -0.1648 -0.0392  0.1462
54035W        W54899  25.425   2.967   1.129 -0.2464 -0.1175  0.0881
54036W        W54900  23.354  28.861   0.011 -0.2530  0.0519  0.2480
54037W        W54901  24.072   2.335   2.059 -0.1860 -0.3065  0.2691
54038W        W54902  26.226   1.402   1.963  0.0827 -0.1978  0.3506
54039W        W54903  22.597   2.373   3.357 -0.1659 -0.1235  0.1826
54040W        W54904  23.411   1.337   1.262  0.2355  0.1640 -0.1075
54041W        W54905  27.219   4.698   2.147 -0.1093  0.1791 -0.3772
54042W        W54906  23.515   1.931   2.783 -0.0823 -0.0223  0.0216
54043W        W54907  21.463   0.349   3.040 -0.0236 -0.1237 -0.0013
54044W        W54908  21.723  28.359   4.881  0.0658 -0.0775 -0.0034
54045W        W54909  22.661   0.346   3.293  0.0449 -0.0221  0.1995
54046W        W54910  22.662   0.433   1.052 -0.0551 -0.1045 -0.0887
54047W        W54911  24.271  28.862   1.295  0.0165 -0.0791  0.0854
54048W        W54912  22.530   4.492   1.446  0.1763 -0.2199  0.0450
54049W        W54913  26.273   2.124   3.519 -0.3066  0.0431  0.0585
54050W        W54914  23.047   6.003  29.095 -0.0011  0.3038 -0.1195
54051W        W54915  24.614   3.152   4.117  0.0927  0.0920 -0.3472
54052W        W54916  22.795   4.214   1.080 -0.0046  0.1554  0.2692
54053W        W54917  25.434   1.889   2.274 -0.0986 -0.0846  0.2386
54054W        W54918  25.979   2.908   3.077 -0.2492  0.0988  0.1523
54055W        W54919  21.585   1.086   2.553 -0.0888  0.2258 -0.0428
54056W        W54920  23.540   5.359   2.508  0.1901 -0.1822 -0.0442
54057W        W54921  21.458   3.038   0.887 -0.0746  0.1991  0.3081
54058W        W54922  21.367   1.961   0.856  0.0817 -0.1437 -0.0069
54059W        W54923  23.558   1.312   4.128  0.0272 -0.1295  0.1576
54060W        W54924  25.016   5.341   2.542  0.0672  0.3047  0.1969
54061W        W54925  21.850   0.407   2.310  0.1607  0.1077  0.0618
54062W        W54926  22.726   0.551   1.998  0.0642  0.3776 -0.1611
54063W        W54927  23.893  27.149   0.746  0.0403  0.0217 -0.0973
54064W        W54928  22.707   6.528   4.896 -0.0138  0.1136 -0.1023
54065W        W54929  22.817   4.445   6.785 -0.3255  0.2663 -0.1416
54066W        W54930  28.554   3.530   4.214 -0.1399 -0.0331 -0.3508
54067W        W54931  23.592   3.641   8.548 -0.0121  0.1446  0.2349
54068W        W54932  22.367   3.316   6.681 -0.0985  0.1986  0.0950
54069W        W54933  22.500   2.370   4.779 -0.2293  0.1558 -0.1947
54070W        W54934  22.077  28.828   4.202  0.1203  0.0956  0.0595
54071W        W54935  22.344   2.649   3.048 -0.1709 -0.1318  0.0732
54072W        W54936  21.123   6.147   8.206 -0.4363  0.2108 -0.1534
54073W        W54937  21.272   2.014   6.513 -0.0974 -0.2065 -0.2250
54074W        W54938  23.815  28.218   5.247  0.3238 -0.2035  0.0740
54075W        W54939  27.168  26.238   4.735  0.0457 -0.0481  0.2120
54076W        W54940  25.015   0.880   2.534 -0.1168 -0.0519 -0.1604
54077W        W54941  25.075  28.507   5.504  0.0670  0.1225  0.0636
54078W        W54942  21.235  28.035   5.435  0.0508 -0.0292 -0.0080
54079W        W54943  21.388   5.861   5.712 -0.2544 -0.2192  0.1001
54080W        W54944  24.122  28.915   1.845  0.0488  0.2131 -0.0596
54081W        W54945  22.964   0.722   5.709 -0.1356  0.0762 -0.2294
54082W        W54946  22.429   4.820   7.568 -0.0011 -0.2082  0.0700
54083W        W54947  25.438   3.014   4.549 -0.2484 -0.1610 -0.2312
54084W        W54948  24.695  28.195   7.307 -0.1645 -0.1401  0.0426
54085W        W54949  21.145   0.879   4.263  0.0338  0.3699 -0.1446
54086W        W54950  22.403   1.414   5.196 -0.4181  0.0727 -0.2748
54087W        W54951  21.699   2.513   6.292  0.0304  0.1066  0.0922
54088W        W54952  20.885  28.830   5.208  0.0565 -0.0329  0.0727
54089W        W54953  23.209   4.210   5.463 -0.1279 -0.1421  0.1370
54090W        W54954  25.020   1.535   5.574 -0.2024  0.1952  0.0486
54091W        W54955  23.950   3.787   5.098  0.0749 -0.0717  0.0939
54092W        W54956  23.223   2.153   4.194  0.2022  0.2720 -0.1662
54093W        W54957  21.917   2.772   7.307 -0.2026 -0.0796 -0.1540
54094W        W54958  21.460   0.524   5.034  0.1844 -0.4394  0.0417
54095W        W54959  23.578   3.291   7.132 -0.0166 -0.1176  0.1465
54096W        W54960  24.037   2.616   8.189 -0.0690 -0.0896  0.0896
54097W        W54961  23.703  28.275   6.405 -0.1160 -0.0884 -0.2914
54098W        W54962  21.214  29.002   6.780  0.2302  0.0109 -0.0267
54099W        W54963  23.233   2.312   9.345  0.1989  0.2637  0.0701
54100W        W54964  24.348   1.310   3.544  0.0671  0.0150 -0.0603
54101W        W54965  22.224   5.112   7.213  0.0071  0.3030 -0.1394
54102W        W54966  25.934   1.942   5.283  0.0238  0.0557  0.2035
54103W        W54967  24.938   0.706   4.585 -0.0193 -0.0253 -0.1189
54104W        W54968  24.329   0.487   4.521  0.1267  0.1665  0.0139
54105W        W54969  24.979   1.174   7.225 -0.3100 -0.3420 -0.1616
54106W        W54970  23.080   3.960   3.966  0.1337  0.0051  0.0642
54107W        W54971  24.484   1.596   8.699  0.1532  0.1517  0.3825
54108W        W54972  25.140   3.585   2.671 -0.0689 -0.3126  0.0667
54109W        W54973  20.871   5.565   4.421 -0.2272  0.0721 -0.1002
54110W        W54974  24.346   2.841   7.424 -0.0564 -0.1022  0.0273
54111W        W54975  23.812  28.768   7.399 -0.0215  0.2219 -0.1220
54112W        W54976  24.565  28.815   6.353  0.3791 -0.0774  0.0246
54113W        W54977  28.279   2.432   3.910  0.0140  0.3043  0.1067
54114W        W54978  22.695   4.647   6.322  0.1721  0.1769  0.2690
54115W        W54979  26.347  28.389   4.961 -0.0382  0.0690  0.0997
54116W        W54980  22.659   3.164   4.780 -0.1227 -0.0349 -0.3308
54117W        W54981  23.082   3.414   7.256  0.1662 -0.2178  0.1218
54118W        W54982  25.963   1.250   3.977 -0.3683 -0.1433 -0.4953
54119W        W54983  23.164   4.829   4.841  0.0324  0.0621 -0.2839
54120W        W54984  21.113   2.875   4.515  0.2311 -0.0720  0.1041
54121W        W54985  22.679   2.859   6.645 -0.0546  0.0043  0.0029
54122W        W54986  25.530   2.536   5.979 -0.2591  0.0223  0.0370
54123W        W54987  23.992   1.539   3.206  0.0427  0.0614 -0.1440
54124W        W54988  23.250   3.587   3.642  0.0094  0.4201  0.1539
54125W        W54989  22.188   1.780   5.998 -0.1454  0.2298  0.1494
54126W        W54990  20.929   3.760   6.411  0.2740  0.0542 -0.1390
54127W        W54991  21.827   3.216   6.605 -0.0187 -0.2303  0.1123
54128W        W54992  22.845   0.446   4.526  0.0020 -0.0673 -0.0980
54129W        W54993  24.579  28.955   4.726  0.0321  0.0392  0.1065
54130W        W54994  23.485   2.017   1.910 -0.2009  0.1522 -0.2083
54131W        W54995  22.535   1.220   3.339  0.0150 -0.2174 -0.1133
54132W        W54996  26.364   1.812   4.482  0.0304 -0.0422 -0.1406
54133W        W54997  24.036  29.123   2.301 -0.1847  0.0472  0.1680
54134W        W54998  21.825   4.581   7.265  0.0434 -0.0291  0.1518
54135W        W54999  23.484   2.230   3.686  0.0218  0.3695  0.1011
54136W        W55000  28.170   6.665   6.113 -0.0572 -0.1905 -0.0924
54137W        W55001  23.823   1.505   7.169 -0.0617 -0.1560 -0.1356
54138W        W55002  23.885   2.979   5.822 -0.1435  0.3460  0.0654
54139W        W55003  21.744   2.695   6.817  0.0726 -0.0599 -0.0550
54140W        W55004  20.264  28.591   5.570 -0.1193 -0.0454  0.1438
54141W        W55005  22.713   3.948   5.592  0.1453 -0.1912 -0.0141
54142W        W55006  22.219   2.765   4.947 -0.1700  0.3170 -0.3581
54143W        W55007  25.017   0.856   3.021 -0.0615  0.4129  0.0818
54144W        W55008  21.720   3.691   6.793  0.0340  0.2027 -0.3196
54145W        W55009  21.504   1.983   5.744 -0.0257 -0.0086  0.2699
54146W        W55010  22.348  26.604   5.022  0.1122 -0.1388  0.1570
54147W        W55011  23.337   0.678   4.503  0.1351  0.0202 -0.0414
54148W        W55012  22.289   3.000   6.314  0.3595 -0.0325  0.2864
54149W        W55013  21.302   0.808   3.116  0.2848 -0.0116  0.2394
54150W        W55014  24.512   2.917   9.088  0.1928  0.2717  0.1037
54151W        W55015  23.507   0.857   5.746  0.3277  0.2398 -0.0154
54152W        W55016  24.032   3.823  10.174 -0.0208  0.1479 -0.1272
54153W        W55017  24.635  28.440   5.242  0.1616 -0.0666  0.0296
54154W        W55018  27.250   0.666   4.419  0.2423 -0.6641  0.1518
54155W        W55019  25.305   1.764   5.980  0.0042 -0.2792 -0.3275
54156W        W55020  25.115   2.644   7.244 -0.0753  0.1091 -0.1828
54157W        W55021  23.811   0.451   4.595 -0.2953  0.1014  0.1243
54158W        W55022  21.002   0.647   4.868 -0.0025  0.1346  0.1676
54159W        W55023  22.839  29.088   4.516  0.2606 -0.0212  0.0258
54160W        W55024  22.919   1.651   5.300  0.0194 -0.1797 -0.0399
54161W        W55025  21.372   1.382   6.890 -0.0822 -0.4228  0.0024
54162W        W55026  22.003  29.014   3.289  0.2396 -0.2513  0.1509
54163W        W55027  23.131   2.092   6.522  0.0871 -0.0338  0.1409
54164W        W55028  24.380   1.867   6.017  0.1476  0.1128 -0.0310
54165W        W55029  20.276   2.368   4.710  0.1329  0.1123 -0.1450
54166W        W55030  20.833  28.490   3.728  0.0375  0.0027 -0.1525
54167W        W55031  25.356   2.969   5.084 -0.2280 -0.0370  0.0286
54168W        W55032  24.968  28.678   6.018 -0.0316  0.1751 -0.1213
54169W        W55033  23.643   2.934   6.723 -0.1533 -0.3999  0.0604
54170W        W55034  24.293   1.873   7.396 -0.1302 -0.1124  0.0662
54171W        W55035  23.858   1.503   6.210 -0.1451 -0.2171 -0.1329
54172W        W55036  22.197  26.964   4.230  0.0669  0.1203 -0.2534
54173W        W55037  23.198   2.959   5.506 -0.0298 -0.0931  0.0872
54174W        W55038  23.060   1.408   7.717  0.1595  0.4070  0.0424
54175W        W55039  25.346  29.119   2.895  0.0526  0.4706 -0.1167
54176W        W55040  24.192   3.058   7.816 -0.0670 -0.0275  0.1875
54177W        W55041  24.227   2.769   5.533  0.3083 -0.1686  0.0171
54178W        W55042  25.697   2.161   4.361 -0.0771  0.3063 -0.0158
54179W        W55043  22.895   2.058   4.545  0.0324 -0.2331  0.0999
54180W        W55044  25.193  28.253   7.139  0.0341  0.0324  0.1651
54181W        W55045  22.945   0.968   4.420 -0.0079  0.2479  0.0394
54182W        W55046  22.734  28.465   5.917  0.0799  0.0318 -0.1514
54183W        W55047  23.722  29.006   6.966  0.1579  0.0418  0.0125
54184W        W55048  25.031   1.181   4.777 -0.3054 -0.1010 -0.0581
54185W        W55049  25.528   2.600   5.407 -0.0002  0.0965 -0.1834
54186W        W55050  26.325   4.025   5.387  0.1645  0.1469 -0.0960
54187W        W55051  23.073   4.514   6.040 -0.2037 -0.3017 -0.0567
54188W        W55052  23.305   0.948   1.964 -0.0974  0.1604  0.3959
54189W        W55053  22.804   1.834   4.032 -0.0830  0.1418  0.2150
54190W        W55054  22.876   0.395   6.947 -0.1552 -0.0292 -0.0074
54191W        W55055  23.160   3.106   4.988  0.0492 -0.1450  0.2031
54192W        W55056  23.425   2.164   6.939 -0.0296  0.2551 -0.0073
54193W        W55057  24.780   1.921   3.850 -0.2735 -0.0255  0.2201
54194W        W55058  26.333   5.179   6.646  0.1354 -0.0806  0.0344
54195W        W55059  22.163   1.306   6.038 -0.3286  0.2559  0.1517
54196W        W55060  23.177   4.718   6.533 -0.0797 -0.1535  0.0637
54197W        W55061  24.882  28.524   3.249  0.0565  0.1213  0.0030
54198W        W55062  25.226   2.202   4.489 -0.2359  0.0052 -0.0052
54199W        W55063  20.680   2.141   3.420  0.0903  0.3236  0.0462
54200W        W55064  24.635   1.562   4.774  0.0702 -0.2445 -0.1608
54201W        W55065  22.681   0.325   5.830 -0.0656  0.0675  0.2185
54202W        W55066  22.653   3.726   5.124 -0.1000 -0.0883  0.4199
54203W        W55067  24.809   2.213   3.047 -0.0876 -0.1083 -0.1544
54204W        W55068  21.607   0.125   4.680 -0.0156 -0.1250  0.1756
54205W        W55069  22.346  28.243   5.640 -0.1467  0.0325 -0.1718
54206W        W55070  21.446   6.008   3.509  0.1369  0.1250  0.0942
54207W        W55071  22.545   2.730   4.449  0.0543  0.2773 -0.0007
54208W        W55072  22.556   1.493   5.638  0.0079  0.0555 -0.2648
54209W        W55073  26.824   0.188   3.682  0.3523 -0.3418  0.1139
54210W        W55074  27.264  27.252   4.790  0.0273  0.1026 -0.1383
54211W        W55075  24.872   4.134   5.417  0.1625  0.0181  0.0900
54212W        W55076  24.791   4.338   4.979  0.0574 -0.0366  0.0256
54213W        W55077  22.474   3.643   8.185 -0.0484 -0.1304  0.2078
54214W        W55078  24.095   4.609   5.533 -0.0763 -0.2697  0.0254
54215W        W55079  23.190   0.216   3.270 -0.0627 -0.1901  0.0947
54216W        W55080  22.438   2.980   3.979 -0.0862 -0.0858 -0.1143
54217W        W55081  20.991  28.044   4.181  0.0916 -0.0793 -0.1272
54218W        W55082  25.753   2.029   6.141  0.1873  0.2758 -0.1437
54219W        W55083  23.169   0.202   5.937  0.1997 -0.0590  0.1684
54220W        W55084  21.604   2.362   5.242  0.0403  0.3047 -0.2815
54221W        W55085  23.245   3.102   4.471 -0.0082 -0.1439  0.2242
54222W        W55086  22.411   0.068   5.432  0.1521  0.4091 -0.0900
54223W        W55087  25.279   1.961   1.800 -0.2016 -0.1369  0.4101
54224W        W55088  23.434   1.857   5.767  0.0451  0.1327  0.0440
54225W        W55089  24.033   3.251   7.344  0.1712  0.0105  0.1919
54226W        W55090  21.304   3.030   6.832 -0.0302 -0.0673 -0.2230
54227W        W55091  25.333   3.459   7.115  0.0405 -0.0190 -0.1427
54228W        W55092  21.339   0.862   6.524  0.0801 -0.0276  0.2060
54229W        W55093  23.385   0.009   6.357  0.0762 -0.2692  0.0339
54230W        W55094  24.973   2.454   7.668  0.0111 -0.0671 -0.2542
54231W        W55095  22.961   1.066   3.494 -0.0241  0.1061  0.1852
54232W        W55096  22.066   1.761   7.516  0.2685 -0.3138  0.0647
54233W        W55097  20.871   2.626   3.941 -0.0147 -0.2097 -0.0097
54234W        W55098  25.517   1.324   5.883 -0.0276 -0.2671 -0.0603
54235W        W55099  25.780  29.026   4.821  0.2194  0.1559  0.1371
54236W        W55100  24.786   1.908   5.789 -0.0972  0.1949  0.3931
54237W        W55101  24.024   2.417   4.672  0.0207  0.0558  0.0210
54238W        W55102  23.348  29.012   5.528 -0.3153 -0.3403 -0.2011
54239W        W55103  24.160   0.055   6.206 -0.0056  0.0201 -0.2152
54240W        W55104  21.245   3.235   4.252 -0.0941 -0.2478 -0.1622
54241W        W55105  22.947   4.471   4.220 -0.2388  0.1713 -0.2202
54242W        W55106  22.256   6.567   4.072  0.1977 -0.0917 -0.1287
54243W        W55107  22.944  26.744   5.479  0.1379  0.3962 -0.3548
54244W        W55108  24.224   1.616   5.078  0.1690  0.1242 -0.1761
54245W        W55109  24.366   2.694   4.202  0.5715  0.1857 -0.0852
54246W        W55110  25.222   2.189   2.802  0.0009 -0.0492  0.1674
54247W        W55111  22.325   1.545   3.035  0.1081 -0.0685  0.0742
54248W        W55112  23.342  28.497   4.135  0.1670  0.0437 -0.1075
54249W        W55113  24.182   2.301   5.727 -0.2410  0.1512 -0.0134
54250W        W55114  23.027  26.787   4.673  0.1210  0.3932 -0.0962
54251W        W55115  20.335  27.779   4.016  0.0752  0.0878 -0.3737
54252W        W55116  22.428   4.115   5.989  0.0422 -0.2447 -0.0750
54253W        W55117  22.953   2.385   5.510 -0.1172 -0.0695  0.0230
54254W        W55118  21.438   1.924   3.929  0.0438 -0.1133  0.1005
54255W        W55119  19.543   5.581   4.922 -0.1341 -0.0411  0.0209
54256W        W55120  22.550   2.037   7.193 -0.0862  0.1294 -0.2104
54257W        W55121  22.780   1.042   9.044 -0.2235  0.2005  0.0576
54258W        W55122  23.267   2.080   5.312 -0.3524  0.2430 -0.0077
54259W        W55123  25.012  29.113   4.538  0.4154  0.0326  0.1757
54260W        W55124  20.412  26.797   3.963  0.0730  0.2393  0.2414
54261W        W55125  21.974   0.329   6.152  0.0991 -0.0067  0.1164
54262W        W55126  22.822   2.407   4.071 -0.2572 -0.1683  0.0130
54263W        W55127  24.743  28.569   3.721 -0.2557 -0.1779 -0.0636
54264W        W55128  22.726   0.903   4.012  0.3074  0.1496 -0.3702
54265W        W55129  24.165  28.280   4.622  0.0820  0.1747 -0.0702
54266W        W55130  26.897   2.927   5.523  0.0221 -0.0816 -0.7052
54267W        W55131  24.365   0.450   0.932 -0.3561 -0.1507  0.3551
54268W        W55132  23.273   4.161   6.375 -0.1544  0.0751 -0.0303
54269W        W55133  21.154   0.126   4.936  0.2066  0.2841  0.2279
54270W        W55134  22.544   2.615   7.232 -0.1121 -0.1786  0.0231
54271W        W55135  25.136   1.089   6.256  0.3215  0.1415  0.1566
54272W        W55136  24.118   5.382   2.970  0.0426 -0.2316 -0.0009
54273W        W55137  19.304   1.408   1.935  0.0822  0.3968  0.1502
54274W        W55138  23.045   1.890   7.087 -0.3865  0.2288 -0.0687
54275W        W55139  21.368   1.044   4.992  0.4015 -0.3354  0.0423
54276W        W55140  22.644   2.348   6.780 -0.0521  0.0565 -0.0014
54277W        W55141  23.559  28.704   6.047 -0.2094  0.0272 -0.2367
54278W        W55142  25.863   3.372   5.847 -0.0090 -0.1009  0.0890
54279W        W55143  28.548   2.390   2.496 -0.1222  0.1744  0.3579
54280W        W55144  23.159   2.584   3.251 -0.2216 -0.1472  0.0287
54281W        W55145  23.700   3.257   4.293 -0.1173 -0.1813  0.2358
54282W        W55146  26.460   1.631   5.381 -0.4476  0.0969 -0.1848
54283W        W55147  22.234   4.607   4.955 -0.1495 -0.1168 -0.1195
54284W        W55148  28.006  28.166   6.601 -0.2239  0.1973  0.2522
54285W        W55149  24.834   1.453   6.074  0.4329 -0.2234  0.1130
54286W        W55150  23.408   6.686   7.592  0.2367  0.1566 -0.2013
54287W        W55151  24.602  28.735   4.256  0.1796 -0.0125 -0.2518
54288W        W55152  23.576   3.933   3.803 -0.0977 -0.0568  0.0327
54289W        W55153  23.453   0.447   4.076  0.1253 -0.2697 -0.1243
54290W        W55154  22.777   2.387   7.577 -0.0594  0.0736 -0.1325
54291W        W55155  25.537  28.300   6.498  0.1270  0.1186  0.0472
54292W        W55156  24.976   2.107   4.902  0.1521 -0.0939  0.0673
54293W        W55157  26.671   2.888   6.896 -0.0212 -0.0058 -0.4832
54294W        W55158  24.266   1.701   6.464  0.1083 -0.0681 -0.0020
54295W        W55159  24.779   2.477   8.977 -0.0063  0.0130  0.0525
54296W        W55160  19.877   5.207   3.880  0.0358 -0.1123 -0.0813
54297W        W55161  24.243   0.545   2.984 -0.1090  0.2252 -0.0057
54298W        W55162  20.934   2.545   6.343 -0.1335 -0.0532  0.2807
54299W        W55163  21.411   5.189   4.864 -0.2010 -0.2292  0.1327
54300W        W55164  25.151   1.588   6.461 -0.1072 -0.1636 -0.0483
54301W        W55165  24.340   1.382   6.131 -0.1442 -0.1157  0.0566
54302W        W55166  26.472   1.835   6.025  0.0543  0.0247  0.2918
54303W        W55167  24.159   3.912   3.208  0.2750  0.1544  0.0539
54304W        W55168  22.495   1.937   5.453 -0.1152 -0.1667 -0.2745
54305W        W55169  22.825   2.738   5.121 -0.0929 -0.0506 -0.3333
54306W        W55170  23.126  27.169   4.302  0.0925 -0.1348 -0.0213
54307W        W55171  23.247   0.395   4.855  0.1107 -0.2649 -0.3488
54308W        W55172  25.185   1.119   3.463  0.1766  0.0769  0.1045
54309W        W55173  25.532   2.439   7.399  0.4583  0.0136  0.0501
54310W        W55174  22.784   4.153   6.338  0.0307  0.1545  0.0792
54311W        W55175  24.808   3.622   5.198  0.1016  0.0517 -0.0212
54312W        W55176  21.971   0.880   4.801 -0.3514  0.0528 -0.1168
54313W        W55177  22.680   1.874   2.785 -0.1167  0.3281  0.1758
54314W        W55178  23.517   4.260   5.872  0.2686 -0.1286 -0.1631
54315W        W55179  26.007   1.361   6.863 -0.3902 -0.0545  0.2668
54316W        W55180  23.177   3.199   6.777 -0.0863 -0.2486 -0.2707
54317W        W55181  20.103   1.881   3.929 -0.2133 -0.1186 -0.2142
54318W        W55182  27.630   3.589   4.401 -0.0398  0.0427  0.0971
54319W        W55183  24.430  28.641   3.070 -0.1987 -0.1205 -0.1013
54320W        W55184  22.285   1.623   4.227  0.1212 -0.0774  0.0571
54321W        W55185  26.462   2.630   5.613 -0.0503  0.1988  0.1078
54322W        W55186  24.105   0.764   4.933  0.3290  0.1694 -0.2763
54323W        W55187  22.829  28.999   5.754 -0.0350 -0.1465 -0.3560
54324W        W55188  20.830   0.876   5.354  0.0370  0.1313  0.0475
54325W        W55189  26.635   4.456   5.479  0.0026  0.0413  0.0578
54326W        W55190  23.615   1.932   6.509  0.2600  0.2186 -0.1953
54327W        W55191  24.581   2.327   6.000  0.1912 -0.0237  0.1534
54328W        W55192  22.888   5.093   7.687  0.1225 -0.2970  0.2407
54329W        W55193  22.446   2.941   5.434 -0.0665  0.0417 -0.1707
54330W        W55194  22.880   2.959   4.157 -0.0450 -0.3315 -0.1145
54331W        W55195  19.508   3.873   6.053  0.0791 -0.2730  0.0523
54332W        W55196  24.663   1.750   5.263  0.3613 -0.1677  0.0882
54333W        W55197  23.278   4.197   2.853  0.0584  0.3255 -0.0532
54334W        W55198  25.633  28.556   7.081 -0.1430 -0.0422  0.0224
54335W        W55199  23.957  27.972   7.553  0.0339 -0.0902  0.2831
54336W        W55200  22.055   1.586   5.546 -0.1331 -0.0865 -0.3659
54337W        W55201  23.060   4.257   2.415 -0.0102 -0.1189  0.0618
54338W        W55202  23.994   2.813   7.052  0.1343 -0.1725  0.2333
54339W        W55203  21.522   1.617   4.861 -0.2174  0.0367 -0.2012
54340W        W55204  24.497   1.760   2.839 -0.1065 -0.3265  0.0691
54341W        W55205  22.433  28.782   4.581 -0.1517 -0.2138 -0.0540
54342W        W55206  20.935   3.555   3.619 -0.0067 -0.4254  0.0433
54343W        W55207  25.362   0.989   3.886 -0.2501 -0.0948 -0.2188
54344W        W55208  22.891  29.058   3.055  0.2077 -0.2564 -0.3550
54345W        W55209  23.274   5.004   6.097  0.3102  0.0731 -0.2999
54346W        W55210  24.011   3.230   6.793 -0.2955  0.1771 -0.2399
54347W        W55211  25.504   0.907   2.800 -0.0609  0.2087  0.0815
54348W        W55212  25.641   0.526   7.741  0.2023  0.0827 -0.1187
54349W        W55213  25.248   2.211   7.993 -0.0925  0.1667 -0.1353
54350W        W55214  19.291   0.541   4.710  0.0685 -0.2071 -0.0978
54351W        W55215  26.298  28.242   3.185  0.2317 -0.1222  0.2202
54352W        W55216  25.845   0.511   4.638  0.1081 -0.1577 -0.1694
54353W        W55217  23.379   1.169   3.109 -0.0059 -0.1372 -0.0844
54354W        W55218  24.241   1.214   4.604  0.1532  0.0467  0.1333
54355W        W55219  24.288  28.386   6.550 -0.0259  0.2902  0.0488
54356W        W55220  23.534   3.284   5.654 -0.0485  0.1875 -0.0904
54357W        W55221  20.111   0.367   5.163 -0.0800 -0.1911  0.0302
54358W        W55222  25.118   0.666   5.269  0.1935  0.2716  0.0590
54359W        W55223  21.667  27.017   4.370 -0.2089  0.2098 -0.1558
54360W        W55224  27.963   4.337   7.189  0.1352 -0.0900 -0.2357
54361W        W55225  25.120   0.529   7.613  0.3195  0.1354  0.1950
54362W        W55226  21.200   5.030   5.678 -0.1581 -0.2933 -0.0115
54363W        W55227  20.010   3.779   6.365 -0.0312 -0.1589  0.0842
54364W        W55228  21.237  28.216   4.912 -0.3691  0.1317 -0.1038
54365W        W55229  24.602   4.511   6.752  0.0787  0.3555 -0.2066
54366W        W55230  23.253   0.906   3.985 -0.0597  0.3157  0.2392
54367W        W55231  23.282   2.210   2.365  0.1971  0.0684  0.0142
54368W        W55232  24.150   2.241   6.326 -0.2262 -0.0746  0.1796
54369W        W55233  26.563   2.136   7.426  0.0315  0.0462  0.0372
54370W        W55234  25.063   0.323   3.116 -0.1120  0.0052 -0.1841
54371W        W55235  21.204   0.426   4.456 -0.1929  0.1895  0.2125
54372W        W55236  24.603   0.646   2.313 -0.0513  0.0173  0.1832
54373W        W55237  24.262  29.137   4.349 -0.1764 -0.1074 -0.2290
54374W        W55238  25.030  28.713   6.573 -0.2475 -0.3470  0.1447
54375W        W55239  22.557  28.668   5.474 -0.2290  0.1854  0.1832
54376W        W55240  22.933   5.137   6.715  0.1165 -0.0207  0.0121
54377W        W55241  20.171   5.340   7.247 -0.1469  0.3245  0.1571
54378W        W55242  23.805   2.576   4.077  0.0644  0.0705 -0.0312
54379W        W55243  23.376   3.910   1.597  0.1111 -0.3171 -0.1266
54380W        W55244  25.805   0.751   3.983 -0.0628  0.2313  0.0409
54381W        W55245  25.074   3.996   6.600  0.0695  0.0066  0.0856
54382W        W55246  23.738   2.080   5.444  0.0735  0.3130  0.0928
54383W        W55247  23.817   3.868   8.015  0.1927  0.1127  0.2804
54384W        W55248  23.762   3.687   3.367 -0.2518 -0.2184  0.1700
54385W        W55249  19.273   3.223   7.471  0.0347  0.2525 -0.2078
54386W        W55250  25.624   1.535   6.318 -0.0649  0.1319  0.0645
54387W        W55251  23.012   1.681   3.566 -0.1535 -0.1559  0.0420
54388W        W55252  23.305   5.291   4.765 -0.0309 -0.2745  0.0004
54389W        W55253  24.248   1.797   5.544 -0.0744  0.4404 -0.0722
54390W        W55254  22.605   3.596   6.128 -0.0803 -0.0492  0.0107
54391W        W55255  24.054   0.852   0.854  0.0700  0.0571  0.2393
54392W        W55256  21.032   0.053   3.220  0.1200 -0.2630 -0.2992
54393W        W55257  26.024   2.596   6.222 -0.0421 -0.0674 -0.0782
54394W        W55258  23.077   1.610   4.798  0.2225  0.0358 -0.0142
54395W        W55259  24.618   1.096   8.707 -0.0732  0.0414 -0.2421
54396W        W55260  24.700   3.805   7.371 -0.0088 -0.6122  0.2902
54397W        W55261  27.849   0.528   7.425  0.2356  0.0641 -0.2290
54398W        W55262  25.511   5.269   7.136 -0.0171 -0.1070  0.0363
54399W        W55263  20.552   4.811   5.096  0.0031  0.3180 -0.2047
54400W        W55264  25.971   2.940   6.671  0.3000 -0.0107  0.1162
54401W        W55265  27.532   1.908   5.522 -0.0439 -0.0751  0.2909
54402W        W55266  21.327  27.435   4.336  0.0561 -0.0845 -0.0022
54403W        W55267  23.763   3.460   3.849 -0.0189  0.4400 -0.0778
54404W        W55268  22.462  28.726   6.416  0.0997 -0.1278  0.0462
54405W        W55269  20.858  28.356   5.360  0.2070  0.2949 -0.3632
54406W        W55270  20.127   4.574   4.676  0.0648 -0.1447 -0.1672
54407W        W55271  24.613   2.248   5.444  0.0857  0.1819  0.0824
54408W        W55272  23.573   2.236   7.864 -0.0001  0.0858 -0.0359
54409W        W55273  21.785   2.435   3.010 -0.2599  0.3239 -0.0477
54410W        W55274  23.597  28.722   5.053  0.1606  0.0574 -0.0199
54411W        W55275  24.930   3.182   5.973 -0.2129 -0.1078 -0.0534
54412W        W55276  21.025  29.119   4.259  0.0865 -0.0544  0.2316
54413W        W55277  23.032   3.664   6.391  0.4680 -0.1798 -0.0413
54414W        W55278  27.909   1.102   3.689 -0.0726 -0.4248  0.0092
54415W        W55279  26.004   2.366   5.622 -0.1583  0.3207  0.0424
54416W        W55280  27.312   2.203   5.898 -0.0220  0.0148  0.3538
54417W        W55281  19.133   6.367   3.550 -0.0428 -0.3086 -0.0928
54418W        W55282  23.846   0.779   5.390 -0.0052  0.1676  0.0075
54419W        W55283  21.999   2.700   4.341  0.3255  0.0851  0.2563
54420W        W55284  25.385   2.075   6.450 -0.0533  0.1079 -0.1340
54421W        W55285  22.606   2.086   6.209 -0.2170  0.1015 -0.2434
54422W        W55286  20.584   0.725   4.353  0.2068 -0.1682  0.0799
54423W        W55287  23.653  28.603   5.524  0.1322 -0.3922  0.2348
54424W        W55288  22.996   1.141   6.132 -0.2781 -0.1629 -0.0607
54425W        W55289  20.287   1.889   4.925 -0.1464 -0.3888 -0.2898
54426W        W55290  24.507  28.102   3.742 -0.0036 -0.0925 -0.0440
54427W        W55291  24.517   1.375   3.109  0.1403 -0.0105 -0.1425
54428W        W55292  23.631   4.628   8.437  0.0092 -0.2258 -0.1079
54429W        W55293  23.846   2.043   5.963  0.0667 -0.0228 -0.1558
54430W        W55294  22.770   0.323   4.963 -0.1320 -0.0329  0.0171
54431W        W55295  24.064  27.444   6.660 -0.1649  0.1060  0.0260
54432W        W55296  24.977   1.043   5.705  0.2097  0.1683  0.1950
54433W        W55297  23.961   0.345   0.073  0.0375 -0.2116 -0.0239
54434W        W55298  26.965   2.050   5.003 -0.1325 -0.0479 -0.0514
54435W        W55299  22.738   3.775   3.632  0.1740 -0.2182 -0.1397
54436W        W55300  23.856   3.097   5.301 -0.1843  0.1554  0.0478
54437W        W55301  24.171   3.266   4.229  0.2155 -0.0876 -0.1095
54438W        W55302  21.760   2.211   6.754 -0.2161 -0.3136 -0.2671
54439W        W55303  20.390   3.533   6.619  0.0830  0.0773 -0.2230
54440W        W55304  25.138   3.796   8.546 -0.1204 -0.0140  0.0755
54441W        W55305  22.814   1.145   5.350 -0.1383 -0.1112 -0.2492
54442W        W55306  20.902   1.066   8.126 -0.3579 -0.0691  0.2857
54443W        W55307  22.035   2.186   5.586 -0.0322 -0.1163 -0.2382
54444W        W55308  20.497   0.475   5.509  0.1230 -0.1030  0.0599
54445W        W55309  20.450   3.625   4.957  0.2289 -0.0571  0.1121
54446W        W55310  23.381   2.941   5.967  0.4875  0.3581  0.0612
54447W        W55311  22.988   4.178   7.775 -0.1794  0.0917  0.0584
54448W        W55312  22.443   3.787   6.566  0.1776 -0.1332 -0.0112
54449W        W55313  23.483   1.713   5.086  0.1282 -0.0350 -0.2149
54450W        W55314  24.619   2.302   6.529 -0.0110  0.0274  0.1641
54451W        W55315  23.302   2.644   5.137 -0.1064  0.2231 -0.0817
54452W        W55316  23.898   3.003   6.313 -0.1816 -0.0856  0.0408
54453W        W55317  25.441  28.728   6.185  0.2197  0.1689  0.0673
54454W        W55318  22.426   3.604   4.691  0.1595 -0.1912  0.2152
54455W        W55319  26.968   1.814   6.117 -0.1455  0.0318  0.2123
54456W        W55320  25.534   3.746   6.707  0.0398 -0.1873  0.0488
54457W        W55321  24.031   3.896   5.897 -0.4300 -0.0297  0.0730
54458W        W55322  24.160   2.897   4.969  0.0669  0.4840  0.3558
54459W        W55323  23.777   6.529   5.283 -0.3262  0.1907  0.0048
54460W        W55324  22.093   5.003   5.566 -0.0815  0.3834 -0.0963
54461W        W55325  24.614   1.425   2.479  0.0930  0.1352  0.3000
54462W        W55326  20.247   2.012   1.731 -0.2568 -0.0234  0.2522
54463W        W55327  20.789   3.313   8.959  0.1513 -0.2387 -0.4995
54464W        W55328  20.700   3.778   9.149  0.1006 -0.0593  0.0255
54465W        W55329  27.479   1.455   7.804  0.0534 -0.3091 -0.2223
54466W        W55330  24.672   5.610   9.039  0.0681  0.0717  0.0249
54467W        W55331  20.992   2.574   7.211  0.2359  0.0437 -0.1745
54468W        W55332  23.334   1.674   7.396 -0.0316  0.0574  0.1297
54469W        W55333  25.045   1.101   8.258  0.2296  0.1446 -0.1836
54470W        W55334  23.267   0.453   6.560  0.0032  0.1280  0.2301
54471W        W55335  23.302   4.420  10.329  0.1327 -0.0808 -0.0373
54472W        W55336  22.600   1.448   9.287  0.3174 -0.3080 -0.1575
54473W        W55337  21.985  28.922  10.870  0.0076  0.2138  0.0847
54474W        W55338  25.464  28.347   8.544 -0.1177  0.0693 -0.1162
54475W        W55339  28.030  28.609   7.718  0.0587  0.2164  0.0383
54476W        W55340  25.966   0.663  12.403 -0.1793 -0.3032  0.3420
54477W        W55341  21.411  29.021  10.007 -0.2437 -0.0923 -0.0244
54478W        W55342  19.455   2.320   8.556  0.3016 -0.0142 -0.1250
54479W        W55343  24.538   2.327   7.511 -0.0453  0.2892 -0.0640
54480W        W55344  22.056   0.260   6.844  0.0620 -0.3193  0.1330
54481W        W55345  23.894   1.736   9.720 -0.1989  0.2059  0.1265
54482W        W55346  26.594  28.710  10.532  0.2571 -0.2988 -0.0090
54483W        W55347  28.413   1.243   9.074 -0.0534 -0.2854 -0.1992
54484W        W55348  24.116   1.194   8.947 -0.0531 -0.3102  0.0912
54485W        W55349  23.983   1.047   7.093  0.1857  0.1808  0.3902
54486W        W55350  23.534   2.617   7.191 -0.0508  0.2244 -0.1365
54487W        W55351  23.527   1.111   7.034 -0.3632 -0.0071  0.1142
54488W        W55352  23.989   2.294   9.852  0.1903  0.0014 -0.1843
54489W        W55353  27.547   3.279  11.758  0.2514 -0.2188 -0.0073
54490W        W55354  24.815   3.836   9.669  0.1555  0.0690  0.0663
54491W        W55355  23.476   1.373   8.263  0.4768  0.3562 -0.0164
54492W        W55356  23.670   0.416  11.893  0.1297 -0.0792  0.3665
54493W        W55357  24.967   0.676   7.175  0.0637  0.2645 -0.0257
54494W        W55358  24.731   1.287   7.672  0.1776  0.2023 -0.5650
54495W        W55359  22.573   4.488  11.260 -0.0101  0.1838  0.1030
54496W        W55360  23.533   1.784  10.191 -0.0445  0.0364  0.2577
54497W        W55361  21.269  28.382   9.010  0.1524 -0.0378  0.1154
54498W        W55362  24.634   1.328  10.054  0.0975 -0.1541  0.1944
54499W        W55363  23.211   1.826   7.997  0.1428  0.0203  0.0156
54500W        W55364  23.389   2.972   9.244  0.0084  0.2330 -0.1257
54501W        W55365  25.214   2.879   9.367 -0.3886  0.0801 -0.0996
54502W        W55366  25.457   0.847   5.893  0.1093 -0.2922  0.1195
54503W        W55367  25.031   0.543   6.284 -0.2290  0.0306  0.0010
54504W        W55368  24.328   3.146  11.464 -0.0571  0.0840  0.2190
54505W        W55369  21.531   1.715   9.909  0.0755  0.0999  0.0755
54506W        W55370  27.820   1.948   8.776 -0.0265  0.1574  0.2610
54507W        W55371  23.012   3.391   8.727 -0.0105  0.1252  0.2425
54508W        W55372  22.515   3.994   7.804 -0.0022  0.0504 -0.1967
54509W        W55373  23.643   0.444   9.896 -0.0336  0.1966 -0.2577
54510W        W55374  26.005   1.779  10.631 -0.0097 -0.0715 -0.0407
54511W        W55375  25.342   1.009   7.539 -0.1659  0.3638  0.1449
54512W        W55376  24.743  29.121   6.795  0.3386  0.1323  0.0685
54513W        W55377  23.891   2.134  10.368 -0.0348  0.0138 -0.0133
54514W        W55378  23.442   0.265  11.007 -0.1198 -0.1268  0.0703
54515W        W55379  24.975   4.282   8.673 -0.0535  0.3154  0.2238
54516W        W55380  25.782   1.611   7.780  0.0945 -0.0836  0.0326
54517W        W55381  24.456   2.447   8.434 -0.1679 -0.0452  0.0658
54518W        W55382  22.785   3.777   9.079  0.0202  0.0625 -0.2368
54519W        W55383  24.599   0.508   5.202  0.0150 -0.2437  0.0667
54520W        W55384  24.165   2.216   7.894 -0.3161 -0.0894 -0.0201
54521W        W55385  24.644   0.959   8.057  0.2351 -0.0656  0.1138
54522W        W55386  24.496   4.179   8.318  0.2988 -0.0689 -0.0026
54523W        W55387  25.185   1.807   7.141  0.2033  0.0826  0.0196
54524W        W55388  23.284   1.091   6.570  0.0288 -0.1859 -0.0091
54525W        W55389  22.637   4.186  10.276 -0.1370 -0.0662 -0.1162
54526W        W55390  23.054   1.458   5.750  0.0331  0.0601 -0.0037
54527W        W55391  21.910   2.173   9.012 -0.0775 -0.1564 -0.2836
54528W        W55392  26.648  28.416  12.309 -0.0060  0.3019 -0.0336
54529W        W55393  22.805   0.977   7.439 -0.0336  0.2588 -0.2825
54530W        W55394  24.843   0.719   8.900 -0.0265 -0.1068 -0.1015
54531W        W55395  21.239  28.574   9.795 -0.0533 -0.1683  0.1786
54532W        W55396  27.142   2.542   8.231  0.0690  0.0118  0.2915
54533W        W55397  25.625   3.247  12.556 -0.0620 -0.0942 -0.1166
54534W        W55398  25.566   1.407   7.192  0.1061  0.4599 -0.0273
54535W        W55399  24.185   4.180   7.752 -0.0746  0.1117  0.3186
54536W        W55400  24.035   1.656   7.855 -0.2428  0.1201 -0.3740
54537W        W55401  22.166   4.107  10.433 -0.1082 -0.0131 -0.0135
54538W        W55402  24.757   2.824   8.607 -0.1867 -0.1211 -0.1165
54539W        W55403  22.955   3.020   6.274 -0.1717 -0.0501  0.1075
54540W        W55404  22.162   3.535   7.066 -0.1520  0.4461 -0.0559
54541W        W55405  24.591   0.594   6.542  0.1263 -0.1487 -0.1869
54542W        W55406  23.313   1.764  11.608 -0.0018  0.3144 -0.0081
54543W        W55407  20.053  26.663  10.605  0.0266 -0.0161  0.0333
54544W        W55408  23.074  27.911  10.640 -0.0139  0.0277  0.1420
54545W        W55409  23.623   0.386   6.078  0.3057 -0.1518 -0.1519
54546W        W55410  23.621   0.683   7.292 -0.1604 -0.2698  0.1064
54547W        W55411  24.572  28.695  12.866  0.0387  0.0277 -0.0439
54548W        W55412  26.092   1.004   8.794 -0.0510 -0.1272  0.1273
54549W        W55413  26.447   4.311   9.476 -0.1115 -0.1742 -0.0538
54550W        W55414  25.084  26.306   9.942 -0.2540 -0.0162  0.0288
54551W        W55415  25.790   1.812  10.064  0.0894  0.1614 -0.0596
54552W        W55416  24.556  27.849   9.878  0.1568  0.0606  0.0510
54553W        W55417  23.993   2.135  12.256 -0.0951 -0.2932  0.2140
54554W        W55418  24.105   2.811  10.058  0.0598 -0.0120  0.0768
54555W        W55419  22.810   2.567   8.579  0.4824 -0.1973 -0.1439
54556W        W55420  26.085   1.508   6.081  0.0275 -0.0148 -0.0813
54557W        W55421  21.507   2.529  11.188  0.2572  0.1462  0.2514
54558W        W55422  24.720   1.503   6.653 -0.0311  0.0384  0.4489
54559W        W55423  27.879   2.299   7.529  0.1780  0.0626  0.2190
54560W        W55424  21.808   2.962  10.930  0.2487  0.0667 -0.0582
54561W        W55425  22.377   0.091   6.212  0.0427  0.3878 -0.1589
54562W        W55426  25.546   0.359   7.298 -0.2040 -0.3579  0.1068
54563W        W55427  23.915   1.352   9.351  0.0978  0.0704 -0.1871
54564W        W55428  22.965   1.372   7.086 -0.2247  0.1336 -0.2494
54565W        W55429  26.877   0.716   5.714 -0.0528 -0.1067  0.1304
54566W        W55430  26.333   2.284   6.006 -0.1590  0.1360 -0.2203
54567W        W55431  23.584   2.409   8.457  0.2450 -0.0668 -0.0461
54568W        W55432  23.812   1.614  10.711  0.0671  0.0306 -0.2905
54569W        W55433  21.420   3.031   5.429  0.1117  0.0639 -0.1626
54570W        W55434  23.830   2.216  11.749  0.2139 -0.1731 -0.1206
54571W        W55435  24.385  28.962   8.561  0.0177 -0.1257 -0.0537
54572W        W55436  24.574   1.753   7.776  0.2113 -0.1942 -0.0210
54573W        W55437  23.104   1.410   9.189 -0.1593  0.0364 -0.1132
54574W        W55438  25.429   2.556   9.770  0.0110  0.1099  0.0604
54575W        W55439  24.830   0.660   8.404  0.3770 -0.1580  0.0078
54576W        W55440  24.001   5.303   9.301  0.3319  0.3185 -0.0556
54577W        W55441  26.969   2.768   7.774  0.0845  0.0666 -0.2008
54578W        W55442  21.739   2.134   9.877 -0.1802 -0.1101 -0.3529
54579W        W55443  27.601  28.927   7.374 -0.0521  0.0375  0.1084
54580W        W55444  24.239   2.739   9.503 -0.1998 -0.1734  0.2571
54581W        W55445  24.898   1.978   9.516 -0.1467  0.2395  0.0043
54582W        W55446  25.061   3.099  10.761  0.1662 -0.3293 -0.1811
54583W        W55447  25.586   0.975   8.564  0.3210 -0.2907 -0.1458
54584W        W55448  25.669   1.252   9.099  0.1069 -0.2728  0.3103
54585W        W55449  23.474   3.262   6.341 -0.1203  0.0898 -0.0176
54586W        W55450  26.774  29.094   6.443 -0.1553 -0.1709 -0.3599
54587W        W55451  21.788   2.992   9.595  0.1816  0.0777  0.0886
54588W        W55452  26.110   0.263   6.588  0.5673  0.2183  0.0168
54589W        W55453  23.394  27.616  11.654  0.1833 -0.0727 -0.0269
54590W        W55454  25.842   0.740  10.166 -0.2799  0.1325 -0.2191
54591W        W55455  24.781   2.418  10.258 -0.1931  0.1638 -0.0188
54592W        W55456  25.734  28.935  10.421 -0.0418 -0.1660 -0.4162
54593W        W55457  25.279   2.841   8.428 -0.0156  0.1012 -0.1105
54594W        W55458  21.201   2.247   9.985 -0.3535  0.3849 -0.1814
54595W        W55459  22.584   5.729  11.725  0.0083  0.2852 -0.0127
54596W        W55460  25.651  27.526   8.462  0.0152  0.1487  0.1171
54597W        W55461  26.136   1.362  11.615 -0.2208 -0.1586 -0.0400
54598W        W55462  22.826   1.909   7.621 -0.0907 -0.0122  0.1342
54599W        W55463  25.921   1.474   8.715  0.3405 -0.1067  0.2341
54600W        W55464  23.991   3.513  10.571 -0.0673  0.3090 -0.0142
54601W        W55465  24.224   3.737   7.493 -0.2561 -0.0216 -0.0204
54602W        W55466  23.274   3.240   7.751 -0.1031  0.2274 -0.0298
54603W        W55467  22.548   0.945   6.939  0.1492  0.2573 -0.1115
54604W        W55468  22.528   0.258   9.732  0.0288  0.1192 -0.0735
54605W        W55469  23.195   2.837   8.532 -0.0623  0.0806 -0.0665
54606W        W55470  22.560   1.384   7.484 -0.0571 -0.3816  0.0906
54607W        W55471  24.782   2.236  11.345 -0.4279 -0.0743 -0.1443
54608W        W55472  22.726   3.207   7.615 -0.0415 -0.0006 -0.0451
54609W        W55473  25.187   0.030   6.363 -0.1452 -0.3579 -0.2868
54610W        W55474  26.522   4.355   8.123  0.0446 -0.2053 -0.2219
54611W        W55475  24.825   3.459   9.987  0.0246 -0.0037 -0.1543
54612W        W55476  23.974   0.490   6.945  0.0687  0.2804 -0.0407
54613W        W55477  23.030   1.996  10.434  0.0245 -0.1381 -0.1525
54614W        W55478  22.299  28.738   9.036  0.1506 -0.1403  0.0704
54615W        W55479  26.271  29.039  10.346 -0.1065 -0.1119 -0.1135
54616W        W55480  20.954   2.809   5.429  0.3150  0.1861 -0.0283
54617W        W55481  24.483   1.216  10.889  0.2543  0.0212 -0.0921
54618W        W55482  26.199   1.755   8.249 -0.4607 -0.0998 -0.1148
54619W        W55483  20.637   4.601   8.281  0.2431 -0.1950 -0.0732
54620W        W55484  24.665  28.818   5.667 -0.2133 -0.1912  0.3365
54621W        W55485  24.280   1.476   6.948  0.2564 -0.0717  0.0919
54622W        W55486  27.928   1.715   9.700  0.2203  0.0187  0.1554
54623W        W55487  22.099   2.490  10.166 -0.2155  0.0360 -0.1508
54624W        W55488  23.016   0.656  10.657 -0.1266  0.2923  0.1140
54625W        W55489  24.164   0.303  11.852  0.0050 -0.0567 -0.1023
54626W        W55490  23.956  27.451   8.801 -0.1042  0.1066  0.1233
54627W        W55491  21.515  26.272  10.868 -0.0812  0.0926 -0.0529
54628W        W55492  22.660   1.179  10.042 -0.0354 -0.0313  0.1070
54629W        W55493  23.028   3.742   9.603  0.0072  0.2176  0.0183
54630W        W55494  21.248   1.742   9.361 -0.1717  0.0811  0.2448
54631W        W55495  24.221   2.866   8.605 -0.1450  0.1691  0.2615
54632W        W55496  26.586   2.192   8.361 -0.0779 -0.1059 -0.0758
54633W        W55497  26.195   2.263  10.806 -0.3885  0.0478  0.2055
54634W        W55498  23.870   0.711   7.793  0.1724 -0.0190 -0.1675
54635W        W55499  21.316   4.730   7.097  0.1574  0.0087 -0.0526
54636W        W55500  23.999  27.694   5.189  0.0626  0.2421  0.0174
54637W        W55501  26.916   2.483   7.340  0.1883 -0.2460 -0.4362
54638W        W55502  21.067  29.013  11.512 -0.2157  0.2068 -0.1833
54639W        W55503  20.184   2.617   8.027 -0.1308 -0.0269 -0.0390
54640W        W55504  18.753   1.213   5.877  0.0647  0.1184  0.2347
54641W        W55505  25.008   0.179  12.079  0.3396 -0.3299 -0.2148
54642W        W55506  21.560   1.679  11.307  0.1695  0.0270  0.1457
54643W        W55507  24.824   4.080   9.161  0.0358  0.1336 -0.0906
54644W        W55508  23.299   1.579   6.698 -0.1967 -0.3255  0.2782
54645W        W55509  24.269   1.383   7.433 -0.1437 -0.2134 -0.3153
54646W        W55510  25.835   0.819   8.192 -0.4288  0.0342  0.3763
54647W        W55511  24.217   4.314  10.810  0.0642  0.1751  0.1252
54648W        W55512  26.703   2.039   8.976 -0.2869  0.1028  0.1959
54649W        W55513  22.810   1.279   6.665 -0.0556 -0.0917 -0.2674
54650W        W55514  22.207   3.132  11.466 -0.1506 -0.0273  0.0264
54651W        W55515  23.964   2.136   8.615  0.1870 -0.0699 -0.1283
54652W        W55516  19.960   3.261   6.398 -0.0167 -0.1028  0.0173
54653W        W55517  20.837   3.536   8.479 -0.0278 -0.3091 -0.2597
54654W        W55518  23.517   1.730   9.322 -0.2586 -0.0091 -0.2974
54655W        W55519  22.720  27.291  12.111  0.1743  0.0077 -0.1488
54656W        W55520  26.980   0.167  11.242 -0.0902 -0.1642  0.1315
54657W        W55521  23.949  29.054   5.303  0.3395 -0.2006 -0.0988
54658W        W55522  26.974   1.529   7.998  0.1287 -0.2432 -0.3334
54659W        W55523  23.417  28.003   7.709  0.3177 -0.1960  0.0646
54660W        W55524  21.884  26.901   9.156  0.0894 -0.0903 -0.1815
54661W        W55525  24.590  28.760   9.554 -0.0506 -0.2554 -0.2467
54662W        W55526  19.700   2.990   7.376 -0.2329  0.1735 -0.0059
54663W        W55527  25.491   1.470   8.407  0.1541  0.2303 -0.0844
54664W        W55528  25.009  27.905   7.603 -0.1503  0.2335 -0.0402
54665W        W55529  23.062   1.605   8.418  0.0792 -0.0121  0.0612
54666W        W55530  22.767  27.319  11.267 -0.3270 -0.2807  0.1436
54667W        W55531  22.382   3.237   9.414  0.1835  0.3191 -0.3290
54668W        W55532  22.635  28.576  10.126  0.1508 -0.0368 -0.2063
54669W        W55533  23.524   1.506   7.825 -0.0076  0.3943 -0.0204
54670W        W55534  24.926   4.109   8.128  0.0067  0.1904 -0.1518
54671W        W55535  21.942   4.538   6.730  0.2072 -0.1389  0.1473
54672W        W55536  21.778   1.404  11.669  0.0428  0.0415 -0.0713
54673W        W55537  22.656   2.006   9.211 -0.0387 -0.0391  0.0337
54674W        W55538  21.871   3.230  10.079  0.2307  0.0457 -0.2466
54675W        W55539  25.498  25.876   9.662 -0.1086  0.0252 -0.1879
54676W        W55540  25.415  28.621   7.485  0.2761 -0.1963 -0.1704
54677W        W55541  26.833   1.028   7.311 -0.0641  0.0128  0.0740
54678W        W55542  27.068   1.053   9.496  0.2716  0.3194  0.0926
54679W        W55543  25.933   2.676   8.665  0.2152 -0.3035 -0.4492
54680W        W55544  24.230   0.748  10.670  0.1838  0.1195  0.0509
54681W        W55545  22.695   4.115   9.541  0.3111  0.2691 -0.1567
54682W        W55546  26.106   0.535   7.533  0.0436 -0.0596 -0.0815
54683W        W55547  24.852   0.157   7.246  0.1628  0.2552 -0.2520
54684W        W55548  23.100   4.479  11.303 -0.0009 -0.2103  0.4322
54685W        W55549  23.855  28.176   5.926  0.0352  0.0339  0.1709
54686W        W55550  25.526  28.779   6.670 -0.0423 -0.2649  0.4038
54687W        W55551  23.778   1.865   7.463 -0.0422  0.1224 -0.1459
54688W        W55552  21.557   2.384  11.989  0.0854 -0.2591  0.2176
54689W        W55553  23.174  28.026   9.003  0.3002 -0.0718 -0.0614
54690W        W55554  26.221   0.996  10.378  0.0544 -0.1972 -0.0344
54691W        W55555  24.869   1.464   9.554  0.0952  0.1905  0.1853
54692W        W55556  24.916  28.508   9.167 -0.0057 -0.0351 -0.1213
54693W        W55557  24.690   1.599   7.226  0.0022  0.0255  0.1100
54694W        W55558  23.238   4.408   8.663  0.0600 -0.1220 -0.2862
54695W        W55559  24.893   3.589   8.993 -0.0750  0.2920  0.0777
54696W        W55560  23.043  26.858  12.803 -0.1516 -0.0232 -0.0693
54697W        W55561  24.262   1.870   8.257 -0.0059 -0.0368  0.0656
54698W        W55562  24.681   1.752  10.974 -0.1715 -0.2576  0.1857
54699W        W55563  22.736  28.355  11.883 -0.4376 -0.0248 -0.0134
54700W        W55564  23.674   2.831   9.813  0.0233  0.2478 -0.2340
54701W        W55565  23.781   4.418  10.977 -0.3041 -0.1002 -0.1736
54702W        W55566  24.039   3.323   8.339  0.2023  0.4952  0.0718
54703W        W55567  21.713   2.429   9.437  0.0913 -0.2408  0.0406
54704W        W55568  24.297  29.144   9.433 -0.1300 -0.1046 -0.1236
54705W        W55569  23.115  26.657   8.596 -0.1357 -0.2498  0.1291
54706W        W55570  25.186   1.160   8.922 -0.1588 -0.1585 -0.0509
54707W        W55571  23.329   2.871  11.420 -0.0009 -0.4032  0.3393
54708W        W55572  25.012   1.069   9.826  0.1394 -0.0219  0.0360
54709W        W55573  22.323   3.396  10.022 -0.2779  0.4393  0.3398
54710W        W55574  23.196   3.246  11.046  0.0565  0.1138  0.3124
54711W        W55575  21.705   0.428   8.617  0.3576 -0.3369  0.1907
54712W        W55576  21.847  28.388   8.288 -0.2519  0.0056  0.1046
54713W        W55577  22.956   3.323   9.294  0.2263 -0.0274 -0.0275
54714W        W55578  22.673   3.117  11.318  0.2959  0.0093 -0.1113
54715W        W55579  24.221   1.005   8.450  0.0476 -0.0610  0.3322
54716W        W55580  23.029   1.139   8.133 -0.0676  0.0708 -0.0299
54717W        W55581  23.682   4.775  10.662  0.2922 -0.2369 -0.1610
54718W        W55582  28.711  29.097   7.333 -0.0378 -0.3280 -0.2935
54719W        W55583  25.934   0.192  10.146  0.0289 -0.0133  0.1305
54720W        W55584  24.775   3.726  12.453  0.0955 -0.1521 -0.0246
54721W        W55585  24.443   2.470   9.923 -0.0848 -0.0721  0.2003
54722W        W55586  24.948   1.524   8.542  0.0661 -0.0758  0.6065
54723W        W55587  25.903   1.325   8.175  0.0959 -0.2296  0.2566
54724W        W55588  23.033   2.747  10.430  0.1285  0.0773 -0.0863
54725W        W55589  20.204  28.915  11.470 -0.0819 -0.1858 -0.1454
54726W        W55590  22.364   5.118  11.266  0.2562 -0.1992  0.2816
54727W        W55591  21.869   0.923   9.673  0.0217 -0.1633 -0.3029
54728W        W55592  22.248   3.965   7.347  0.0516  0.1732 -0.0918
54729W        W55593  24.828   2.261   7.113  0.0841  0.0134 -0.1483
54730W        W55594  22.306   1.166  10.748 -0.1324  0.1143  0.2903
54731W        W55595  27.598   2.550   7.177 -0.1244  0.1486 -0.0341
54732W        W55596  23.201   3.082  10.018  0.0788 -0.2697 -0.1001
54733W        W55597  23.857   2.530  11.291  0.1761 -0.0934 -0.0250
54734W        W55598  24.967   1.080  10.842 -0.2664  0.1210 -0.0389
54735W        W55599  25.471   1.188   7.970 -0.2224 -0.0495  0.0695
54736W        W55600  23.208   2.072   8.499 -0.0326 -0.0704  0.0203
54737W        W55601  23.611  28.020  11.862  0.0426 -0.2474  0.0155
54738W        W55602  24.040  27.302   7.567  0.0707 -0.1810  0.4372
54739W        W55603  26.242   3.658   8.813  0.1610 -0.1642  0.1259
54740W        W55604  21.115   3.300   6.075 -0.2395  0.1465  0.3207
54741W        W55605  18.984   3.015   7.869  0.4156  0.0054 -0.0498
54742W        W55606  22.500   1.774   4.840 -0.2724  0.1741  0.1370
54743W        W55607  22.655   1.563   6.202 -0.0228  0.3223 -0.3312
54744W        W55608  22.245   1.072   5.516 -0.2529 -0.0196 -0.3173
54745W        W55609  20.669   4.087   4.873 -0.0197 -0.2211 -0.1024
54746W        W55610  26.394   0.647   8.404  0.2921 -0.0883  0.1872
54747W        W55611  23.429   1.526   9.798 -0.1828  0.1957 -0.0426
54748W        W55612  23.743   2.935   8.447  0.0146 -0.1030  0.1433
54749W        W55613  22.684   2.557   8.006 -0.3982  0.0812  0.3197
54750W        W55614  26.354  28.036   9.423  0.2243  0.1529 -0.1382
54751W        W55615  26.317   1.000   7.513  0.1458 -0.0185  0.0090
54752W        W55616  24.243   2.744   6.547 -0.0115 -0.0832  0.2397
54753W        W55617  26.074   0.329   7.085  0.0338  0.3218 -0.2872
54754W        W55618  22.755   1.334  11.528  0.0672  0.1801  0.1777
54755W        W55619  20.104   0.664   6.773 -0.1775 -0.1637  0.2817
54756W        W55620  22.954   3.677   7.705 -0.0470  0.0180  0.0790
54757W        W55621  24.348   2.043  10.205 -0.2084  0.1223 -0.0937
54758W        W55622  24.192   0.709   9.949  0.0972  0.0807 -0.1449
54759W        W55623  21.873   1.090  10.559  0.1080  0.0242 -0.1090
54760W        W55624  26.136  26.676  11.698  0.0577 -0.2329 -0.0753
54761W        W55625  21.542   0.663   9.406 -0.2101 -0.0007  0.2010
54762W        W55626  21.937   5.110   8.065 -0.0642  0.0915 -0.0257
54763W        W55627  22.476   2.784  10.432 -0.1265  0.1591 -0.0517
54764W        W55628  22.308   2.783  10.942 -0.0006 -0.2432  0.0296
54765W        W55629  26.244  29.109   9.084  0.0101 -0.0157  0.0407
54766W        W55630  22.708   3.149   7.034  0.0867 -0.0826 -0.0307
54767W        W55631  22.594   3.524  10.543  0.2311 -0.1662 -0.2259
54768W        W55632  23.077   3.725  11.403  0.1673  0.1160  0.2492
54769W        W55633  24.649   0.745   7.581 -0.0314  0.2667 -0.0089
54770W        W55634  23.144   2.395   8.860  0.0053 -0.0741  0.0228
54771W        W55635  22.334   2.196   8.423  0.0309  0.1554  0.3639
54772W        W55636  21.525   0.281   7.141  0.0779  0.0355  0.0105
54773W        W55637  21.992   3.247   9.101 -0.0399  0.1508 -0.0059
54774W        W55638  23.481   1.715   8.650 -0.3336  0.0175  0.0349
54775W        W55639  24.779   1.232  11.332  0.1928 -0.1896  0.1237
54776W        W55640  22.340   2.716   8.350 -0.0886  0.2559 -0.0850
54777W        W55641  22.677   3.111   8.484  0.1275  0.0105  0.0216
54778W        W55642  25.245   4.447   9.073  0.0896  0.1834 -0.1111
54779W        W55643  25.539   0.268   6.669 -0.0927 -0.1473  0.0311
54780W        W55644  23.823   2.619  10.647  0.3009 -0.0899 -0.2335
54781W        W55645  21.247   2.540   7.643  0.0252 -0.1704 -0.0092
54782W        W55646  23.088   4.130   9.948 -0.0067 -0.1312 -0.4035
54783W        W55647  25.115   4.533   7.844 -0.0332  0.1250 -0.0040
54784W        W55648  21.379   2.743  10.782  0.4155  0.0842 -0.2154
54785W        W55649  24.688   0.578   9.724 -0.1791  0.0328 -0.3021
54786W        W55650  23.664   2.469   6.243  0.1286  0.0833 -0.3276
54787W        W55651  25.120   2.378   9.290  0.0640 -0.0031  0.2064
54788W        W55652  25.463  27.141   8.737 -0.0338  0.0120  0.0469
54789W        W55653  19.891   3.443   7.492  0.0951  0.1008 -0.0741
54790W        W55654  24.187   0.197   4.924  0.0483 -0.1665  0.0511
54791W        W55655  23.062   2.409   6.027  0.2063 -0.1866 -0.0728
54792W        W55656  24.222   0.095  10.259  0.1113 -0.0285  0.2379
54793W        W55657  24.803  27.766   7.103 -0.0436 -0.0658 -0.0749
54794W        W55658  25.243   4.066  11.002  0.0247  0.0072  0.1670
54795W        W55659  25.204   3.153  11.289 -0.1383 -0.1325 -0.2120
54796W        W55660  25.651   2.669  10.597 -0.0700 -0.0518 -0.1616
54797W        W55661  22.397   4.686  10.291  0.0332  0.0684  0.0307
54798W        W55662  23.938  29.103   8.414  0.2509  0.2624 -0.2859
54799W        W55663  26.845   0.829   8.231  0.0327  0.1725 -0.1107
54800W        W55664  24.237   1.070   6.572 -0.1168 -0.1594 -0.1887
54801W        W55665  23.087  28.695   8.482 -0.0432  0.0071 -0.2229
54802W        W55666  22.732   4.354   7.420  0.1273 -0.1630  0.3211
54803W        W55667  24.408   0.063   8.083  0.2164  0.1182 -0.1237
54804W        W55668  23.496  27.385  10.779  0.1016  0.0326 -0.3161
54805W        W55669  21.994   4.000   7.947  0.0022 -0.2301 -0.1546
54806W        W55670  22.247   1.296   9.748  0.3020  0.3790  0.1631
54807W        W55671  22.955   2.970   8.070  0.0426 -0.0815  0.0278
54808W        W55672  20.492   2.733   7.123  0.0071  0.0936  0.1327
54809W        W55673  24.731  27.766   8.627  0.1613  0.1668 -0.1140
54810W        W55674  21.935   1.854   8.575 -0.0672  0.1133 -0.0598
54811W        W55675  23.560   0.360   5.577 -0.1352 -0.0277  0.0121
54812W        W55676  26.693   0.341  10.076  0.1992  0.1421  0.1581
54813W        W55677  25.768   0.707   5.113 -0.0162 -0.1923 -0.0417
54814W        W55678  24.965   2.661  11.103  0.0738 -0.1175 -0.1845
54815W        W55679  24.237   4.600   8.542 -0.0210 -0.2046  0.2127
54816W        W55680  21.793   2.199   7.588 -0.1374 -0.0866  0.1873
54817W        W55681  24.115   0.940   9.505  0.0399  0.2287 -0.1706
54818W        W55682  22.237   1.172   8.863 -0.1306 -0.0703 -0.0330
54819W        W55683  23.440   3.307   9.672  0.1232  0.1617 -0.2682
54820W        W55684  23.954   1.197   8.060  0.3864  0.2876 -0.0061
54821W        W55685  21.417   1.956   6.987  0.0155  0.1271  0.0495
54822W        W55686  25.472  29.137   7.030  0.1764 -0.0529  0.1641
54823W        W55687  21.643   2.315  10.313 -0.2352  0.2842 -0.0548
54824W        W55688  23.120   1.200   8.659 -0.2002 -0.1416 -0.2022
54825W        W55689  25.298  27.315   9.941 -0.2678  0.0572 -0.0761
54826W        W55690  24.219   4.943   9.732 -0.0057  0.0520 -0.1209
54827W        W55691  25.048   1.741  11.407 -0.1732 -0.1885 -0.0265
54828W        W55692  23.414   3.659   6.694 -0.0345  0.0514  0.0287
54829W        W55693  23.232   2.523   9.811 -0.2304 -0.1184 -0.0661
54830W        W55694  26.343  28.224   8.936 -0.2361  0.0741 -0.2153
54831W        W55695  23.287   2.162   7.526  0.2479 -0.3557  0.0266
54832W        W55696  21.734   5.157   7.146  0.2361 -0.0648  0.1241
54833W        W55697  25.501  29.060  10.910 -0.0935 -0.2294 -0.0286
54834W        W55698  24.211   2.674   6.011 -0.0356 -0.0713  0.0991
54835W        W55699  21.561   1.807  11.914  0.1687  0.2615  0.0272
54836W        W55700  27.849   1.800   7.578  0.1520  0.2288  0.1030
54837W        W55701  23.331   0.641  10.235 -0.1625  0.0459  0.0922
54838W        W55702  22.170   1.825   6.952 -0.0864  0.0390  0.0162
54839W        W55703  25.421   2.838  10.969  0.1354 -0.0014  0.2214
54840W        W55704  22.563   0.780  10.973  0.0258  0.1257 -0.0947
54841W        W55705  21.199   1.185   8.518 -0.0867 -0.0485 -0.3965
54842W        W55706  25.099   0.696  11.337 -0.0462  0.0628  0.1480
54843W        W55707  23.543   2.799   7.995 -0.2899 -0.0142  0.0252
54844W        W55708  23.778   2.449   6.778  0.2173  0.0068  0.0150
54845W        W55709  25.917   0.473   9.711  0.3025 -0.1724  0.2114
54846W        W55710  21.226   2.808  10.115  0.2647  0.1227  0.1376
54847W        W55711  22.199   0.413  11.006 -0.1191 -0.1991  0.2962
54848W        W55712  24.177   4.821  11.575 -0.1835 -0.3290  0.1570
54849W        W55713  23.536   2.054   9.677 -0.0149  0.2016 -0.1289
54850W        W55714  23.445   4.008   9.628 -0.0931  0.0603  0.2825
54851W        W55715  24.741   1.448   9.070  0.1079  0.3501 -0.0124
54852W        W55716  21.050   3.094   8.597 -0.0461 -0.2714 -0.0546
54853W        W55717  20.903   2.767   6.771 -0.0190  0.0424  0.2388
54854W        W55718  22.821   3.059  10.840  0.1095  0.0584  0.0893
54855W        W55719  26.591   1.021   8.642  0.1242 -0.1220  0.0179
54856W        W55720  20.939   3.196   7.097  0.1206  0.2456 -0.1254
54857W        W55721  24.520   1.950   6.830 -0.0064  0.2153 -0.0180
54858W        W55722  23.706   5.339  10.379  0.2991  0.0538  0.2110
54859W        W55723  20.783   0.666   9.846 -0.0911  0.0810 -0.1617
54860W        W55724  25.958   0.771   9.195 -0.0883  0.1661  0.0971
54861W        W55725  23.165   2.431   8.153 -0.1436  0.2341  0.3150
54862W        W55726  20.693   2.302  16.507 -0.3606 -0.1330 -0.0817
54863W        W55727  20.862   0.948  12.494 -0.0087  0.0095 -0.0666
54864W        W55728  27.306  29.010  12.597 -0.0498 -0.0198  0.1051
54865W        W55729  25.042   4.894  12.770 -0.0186 -0.1707 -0.4411
54866W        W55730  25.643   5.721  11.103 -0.0219 -0.1509  0.1914
54867W        W55731  23.665   2.023  11.288  0.1854 -0.2930 -0.0470
54868W        W55732  22.097   0.488  11.844 -0.2034  0.1772  0.0283
54869W        W55733  22.652  28.982  12.683 -0.1676  0.0737  0.0280
54870W        W55734  24.903   3.637  11.070  0.1086  0.0284 -0.1927
54871W        W55735  19.226   0.774  15.086  0.0553  0.2377  0.1594
54872W        W55736  26.224  27.808  13.519 -0.1285  0.1241  0.2320
54873W        W55737  24.085   2.168  14.055 -0.0793  0.4782  0.0416
54874W        W55738  24.612   2.449  11.793 -0.4286  0.0081 -0.1891
54875W        W55739  25.418   2.093  13.284 -0.2977 -0.5002 -0.3202
54876W        W55740  19.765   1.704  13.628 -0.0953 -0.0829 -0.0053
54877W        W55741  21.320   1.146  12.552 -0.0149 -0.2039 -0.1657
54878W        W55742  22.851   2.400  11.665  0.3185  0.0843 -0.0049
54879W        W55743  23.775   0.845  10.228  0.1792 -0.3057 -0.1865
54880W        W55744  19.949   0.631  12.280 -0.0344 -0.1296  0.1113
54881W        W55745  25.606   2.218   9.392  0.0525 -0.1799  0.0181
54882W        W55746  22.217   1.449  10.319  0.1620 -0.1077 -0.0220
54883W        W55747  25.527   0.370  12.276  0.1750  0.0029  0.0203
54884W        W55748  22.165   0.631  14.980 -0.0161  0.3750  0.3164
54885W        W55749  23.783   2.752  13.391 -0.0244  0.1224 -0.0726
54886W        W55750  22.524   1.730  13.467  0.1831 -0.0182 -0.2866
54887W        W55751  23.789   0.914  14.965  0.1963  0.1271 -0.2033
54888W        W55752  25.318   5.398  14.931  0.0944 -0.2241 -0.0931
54889W        W55753  23.755   1.969  13.577 -0.2514 -0.1743  0.1566
54890W        W55754  22.719   2.206  14.094  0.1622 -0.0378  0.4857
54891W        W55755  22.815  28.136  11.405  0.3649  0.1681  0.2783
54892W        W55756  22.425  28.909  10.661  0.1469  0.0410  0.1510
54893W        W55757  22.087   0.537  13.635 -0.2511 -0.1174 -0.1407
54894W        W55758  23.364   4.439  15.066  0.1795 -0.0170 -0.2096
54895W        W55759  23.836   2.831  12.899  0.0243 -0.3927 -0.1607
54896W        W55760  22.176  28.360  14.177  0.1425 -0.1026 -0.4564
54897W        W55761  24.304   4.580  15.794 -0.0703 -0.2636  0.3260
54898W        W55762  23.241  28.949   9.638  0.0659  0.0339  0.0817
54899W        W55763  24.077   1.812  12.707  0.0668 -0.1054  0.0867
54900W        W55764  26.067   2.264  14.069 -0.1181  0.2383 -0.0147
54901W        W55765  25.916   0.024  12.197  0.3957 -0.0425  0.1495
54902W        W55766  25.132   0.784  11.926  0.3132  0.2409 -0.1266
54903W        W55767  26.281   1.458  15.074  0.2466  0.1384 -0.1186
54904W        W55768  22.055   5.273  13.799  0.0001 -0.3290 -0.2447
54905W        W55769  23.877   5.593  11.497 -0.1012 -0.2423 -0.2803
54906W        W55770  20.707   2.835   8.897  0.2647  0.0106 -0.4166
54907W        W55771  22.417   3.921  10.848  0.1696 -0.1297  0.0355
54908W        W55772  20.801  28.442  13.132 -0.3493  0.2814  0.0674
54909W        W55773  25.104  28.676  13.992  0.0791  0.0971 -0.2027
54910W        W55774  24.621   0.496  11.491  0.1709  0.0013 -0.1163
54911W        W55775  22.746   3.580  11.033  0.0103  0.1232  0.0271
54912W        W55776  23.046   4.037  13.345  0.1082 -0.0257  0.0541
54913W        W55777  22.921  29.075  11.688  0.0547  0.2686 -0.2562
54914W        W55778  22.041   1.776  13.550 -0.0872 -0.0971 -0.0128
54915W        W55779  26.576   2.984  12.591 -0.1867  0.0297 -0.0559
54916W        W55780  23.622   0.771  11.143  0.0265 -0.0167 -0.2511
54917W        W55781  20.721   3.650  11.558 -0.0839 -0.0348  0.0901
54918W        W55782  21.263   2.209   9.475  0.1315  0.0925 -0.0960
54919W        W55783  23.102  29.051  12.371 -0.0914 -0.1697 -0.1279
54920W        W55784  22.296   1.791   8.938  0.0588 -0.1620 -0.0314
54921W        W55785  20.757   0.565  12.177 -0.1504 -0.2056 -0.1372
54922W        W55786  23.957   4.358   9.060  0.0246 -0.2544 -0.0780
54923W        W55787  19.663   3.981  12.554  0.2467 -0.1511  0.2002
54924W        W55788  23.277   1.309  12.780  0.1892  0.0611 -0.0048
54925W        W55789  22.996   0.391   9.783  0.4703 -0.0974  0.0515
54926W        W55790  21.616  29.039  13.104  0.2305  0.1774  0.1208
54927W        W55791  25.346  28.596  12.676  0.2440 -0.0367  0.3266
54928W        W55792  22.231   1.319   4.677 -0.0816 -0.1358 -0.1010
54929W        W55793  19.635   3.171  10.419 -0.3799 -0.1446  0.0579
54930W        W55794  22.307   2.972  12.736 -0.1706 -0.2453  0.0172
54931W        W55795  24.954   0.254  10.105  0.0103  0.3700  0.2997
54932W        W55796  23.742  28.729  18.359  0.1108 -0.1066  0.0276
54933W        W55797  24.355   0.250   9.830  0.2108 -0.1052  0.1007
54934W        W55798  23.792   4.582  13.332  0.1376 -0.1608 -0.0182
54935W        W55799  24.582  27.501  12.162 -0.1680 -0.1356 -0.0411
54936W        W55800  25.518   3.113  13.099  0.1140  0.2476 -0.2163
54937W        W55801  25.298  27.751  10.362 -0.0022 -0.0197 -0.2613
54938W        W55802  19.242   3.113  12.804  0.1774  0.0137 -0.0476
54939W        W55803  21.860   0.641  11.437 -0.2656  0.1405  0.0675
54940W        W55804  20.814   1.722  11.852  0.1810 -0.1623 -0.2041
54941W        W55805  26.034   0.742  13.888  0.0436 -0.0006  0.0620
54942W        W55806  22.877   0.881  11.402 -0.0470  0.0338  0.0121
54943W        W55807  22.853   2.483  14.487 -0.5927 -0.0489  0.0861
54944W        W55808  20.769  28.913  12.497 -0.0689 -0.3110  0.3096
54945W        W55809  22.618  28.794  13.840 -0.0294  0.0330 -0.3279
54946W        W55810  24.585   2.182  13.539 -0.1787 -0.1014 -0.2267
54947W        W55811  24.665   1.019  10.433  0.0303  0.1282  0.0905
54948W        W55812  24.734   3.237  14.967  0.2322  0.0965  0.1865
54949W        W55813  24.991  28.027  14.723  0.1363  0.0128  0.3252
54950W        W55814  25.997   2.359  18.265  0.1954 -0.0166 -0.0387
54951W        W55815  24.340   0.601  12.570  0.2067  0.0490  0.1363
54952W        W55816  24.637  29.132  11.646 -0.0980 -0.1355 -0.0688
54953W        W55817  26.124   1.418  15.695 -0.2148  0.0699 -0.3733
54954W        W55818  21.829   2.647  11.631 -0.0379 -0.2526 -0.2559
54955W        W55819  23.285   0.275  11.479 -0.3487 -0.1611 -0.1825
54956W        W55820  21.512  27.235  15.233 -0.0283  0.0979 -0.1644
54957W        W55821  23.048   1.091  11.848  0.1654 -0.1076  0.4360
54958W        W55822  23.028   2.084  11.987  0.4546 -0.2215  0.2141
54959W        W55823  24.186   5.017  13.498 -0.0846 -0.2429 -0.0010
54960W        W55824  23.934  27.662  10.391  0.0986  0.0567 -0.0955
54961W        W55825  25.687   0.295  15.095 -0.3204  0.0447 -0.0717
54962W        W55826  26.320   3.428  12.637  0.0396 -0.1990 -0.0224
54963W        W55827  21.943  28.134   9.643 -0.0146  0.0412 -0.2558
54964W        W55828  22.548  28.502  12.515  0.1883 -0.1862 -0.2368
54965W        W55829  25.168   2.978  12.688  0.1421  0.3714  0.3626
54966W        W55830  26.217   2.124  16.025  0.1843  0.1704 -0.0832
54967W        W55831  23.267  28.638  12.052  0.0202  0.3064 -0.2953
54968W        W55832  24.246   1.265  11.380  0.1026 -0.0271  0.0806
54969W        W55833  23.243   3.641  14.265  0.2350 -0.3357  0.0695
54970W        W55834  26.528  28.273  10.251 -0.4940 -0.0065  0.0514
54971W        W55835  19.994   0.242  10.474  0.0779 -0.2673  0.3240
54972W        W55836  21.357   2.725  11.632 -0.0909 -0.2598 -0.0899
54973W        W55837  25.390   2.589  13.488  0.0308 -0.2584  0.0687
54974W        W55838  23.508  27.973  14.367  0.0440 -0.1635 -0.0288
54975W        W55839  24.198   1.929  15.931  0.0786 -0.1498  0.0473
54976W        W55840  23.966   1.130  10.966 -0.2758  0.2024  0.1388
54977W        W55841  22.713   1.499  10.467  0.0489 -0.0340 -0.0331
54978W        W55842  25.689  28.819  13.833 -0.0473 -0.3440  0.1532
54979W        W55843  23.015   3.652  13.722  0.2775  0.1139  0.4708
54980W        W55844  22.004   0.750  12.628 -0.4865 -0.1495 -0.2865
54981W        W55845  25.214   0.249  10.616 -0.1955 -0.0271 -0.1769
54982W        W55846  24.668  28.857  12.169  0.0983  0.6158  0.1008
54983W        W55847  26.142   1.663  12.865 -0.0870 -0.1196  0.2437
54984W        W55848  22.565   0.894  11.830 -0.1468  0.1616 -0.0761
54985W        W55849  25.256   2.594  12.948 -0.4565  0.0969  0.2002
54986W        W55850  24.521   3.049   9.794  0.2477  0.0306  0.2180
54987W        W55851  24.174   2.162  11.369 -0.0220  0.0944 -0.3799
54988W        W55852  21.026  29.086  12.007 -0.2604 -0.3032  0.2787
54989W        W55853  23.978   0.803  11.609 -0.0326 -0.1147  0.2956
54990W        W55854  24.611   1.224  13.376 -0.1757 -0.2670  0.2776
54991W        W55855  25.031   4.157  10.036  0.0483  0.2496 -0.2133
54992W        W55856  23.555   1.991  14.129  0.0282 -0.0733  0.0892
54993W        W55857  23.246  27.847  12.722  0.0168 -0.1226 -0.0354
54994W        W55858  23.690   5.395  16.344 -0.1072 -0.1889  0.3545
54995W        W55859  23.127   1.576  11.052 -0.1085  0.0711 -0.1232
54996W        W55860  22.819   2.295  15.754  0.3283 -0.0249  0.1900
54997W        W55861  22.819   0.201  13.940  0.2729 -0.2655 -0.1117
54998W        W55862  25.240   0.584   9.731 -0.2720  0.0389  0.0264
54999W        W55863  26.310   3.315  14.216 -0.0554 -0.0200  0.0377
55000W        W55864  24.466   1.928  12.355  0.2810  0.1364  0.4810
55001W        W55865  22.347   6.317  12.443 -0.1227 -0.0226  0.0441
55002W        W55866  22.711   1.529   8.794 -0.0663 -0.0104  0.2036
55003W        W55867  24.944  27.340  11.832  0.0939 -0.1145  0.1422
55004W        W55868  20.829   3.224   6.551  0.2265 -0.0026 -0.3230
55005W        W55869  22.277   2.174   9.809  0.1669  0.0400  0.1335
55006W        W55870  23.335   1.793  13.503 -0.0070  0.1495  0.2673
55007W        W55871  21.078   0.258   8.634  0.0433  0.0355  0.3608
55008W        W55872  25.860   1.331  12.493 -0.2967  0.2253  0.0585
55009W        W55873  24.612   4.260  13.657  0.0614  0.0032  0.3329
55010W        W55874  21.176   2.006  11.215 -0.3580 -0.3360  0.0499
55011W        W55875  23.067  27.982  11.802 -0.0140 -0.0063 -0.0440
55012W        W55876  26.289   3.932  12.388 -0.0255 -0.0888  0.2773
55013W        W55877  22.438   2.143  12.148 -0.2556  0.1185 -0.1134
55014W        W55878  23.263   1.594  14.402 -0.1988 -0.4028 -0.1365
55015W        W55879  21.753   1.270  10.097  0.1007 -0.1449 -0.1323
55016W        W55880  21.209   0.833  12.182 -0.0052  0.0476  0.0354
55017W        W55881  24.733   2.748  14.644 -0.0940 -0.4039 -0.1681
55018W        W55882  19.194   1.421  12.144  0.0087  0.2059 -0.0298
55019W        W55883  23.010   0.809   9.470  0.3430 -0.0701  0.1254
55020W        W55884  22.604  26.930   9.619 -0.1820  0.0125 -0.1479
55021W        W55885  22.417  28.878   9.538 -0.1631  0.3111  0.2631
55022W        W55886  24.401   1.019  14.373  0.2559  0.2226 -0.1558
55023W        W55887  21.244   3.422  13.714  0.5067  0.1635  0.1560
55024W        W55888  23.724   2.886  13.858 -0.0902  0.2856 -0.0893
55025W        W55889  22.872   1.334  13.607 -0.3968 -0.0756  0.2230
55026W        W55890  22.179   0.172  14.735  0.1803  0.2427  0.0465
55027W        W55891  22.382  27.817  13.081  0.1229  0.0844 -0.0297
55028W        W55892  24.129   1.712  11.135 -0.1466  0.0568 -0.4044
55029W        W55893  23.297   5.819   9.120  0.1061 -0.0615 -0.0498
55030W        W55894  20.851   3.507  16.323  0.0154  0.0108 -0.0970
55031W        W55895  21.272   1.081   9.206 -0.0302  0.0893 -0.0404
55032W        W55896  24.522   0.494  12.084 -0.2030 -0.4331 -0.1875
55033W        W55897  23.626   1.510  11.177  0.0740 -0.0087  0.1760
55034W        W55898  22.434   0.811  13.426 -0.3037  0.1289 -0.0935
55035W        W55899  21.849   0.970   9.104 -0.1153  0.0162  0.1865
55036W        W55900  23.136  28.185  12.243 -0.2705 -0.0084 -0.1090
55037W        W55901  25.772   2.305  12.384 -0.1572  0.0955 -0.1275
55038W        W55902  20.002   2.225  15.418 -0.0241 -0.0929  0.2654
55039W        W55903  22.751   1.285  10.978 -0.0359 -0.1442 -0.0898
55040W        W55904  21.918   2.763   9.163  0.2263 -0.1495  0.0990
55041W        W55905  25.349   0.477  12.717  0.2443 -0.1335  0.0705
55042W        W55906  23.115   1.091  10.397  0.0891  0.0278  0.1889
55043W        W55907  25.217   3.002  10.311 -0.0003 -0.1036  0.0384
55044W        W55908  23.555   2.392  10.132 -0.2244 -0.0634  0.2021
55045W        W55909  23.223   1.262  11.429 -0.0059 -0.1299 -0.0570
55046W        W55910  23.838  29.082   9.961 -0.1380 -0.4462  0.0326
55047W        W55911  24.641   1.558  15.261  0.1317  0.0510  0.0291
55048W        W55912  23.775   0.395  11.416  0.4197  0.0572 -0.1217
55049W        W55913  23.066  28.520   9.881 -0.1412 -0.0069 -0.0887
55050W        W55914  23.297   2.716  12.511 -0.1400  0.1945 -0.1467
55051W        W55915  24.469   2.458  14.952  0.4090  0.0410 -0.3691
55052W        W55916  22.920   2.692  11.260 -0.2228 -0.1830 -0.3080
55053W        W55917  19.929   1.734  12.393  0.0178 -0.1425 -0.1349
55054W        W55918  21.867   1.246  12.681  0.0772 -0.5246  0.1384
55055W        W55919  23.432   3.732  15.708 -0.0885 -0.1061  0.0043
55056W        W55920  24.900   0.931  13.668  0.3499  0.2259  0.1113
55057W        W55921  22.189  28.742  12.825 -0.1858  0.0816 -0.2044
55058W        W55922  24.565   0.535  10.264  0.0618  0.4422 -0.2075
55059W        W55923  23.619  28.525  11.703  0.0865  0.1800 -0.2262
55060W        W55924  23.987  28.099  11.610  0.0996  0.3227 -0.2118
55061W        W55925  23.771  26.507  14.341  0.0634 -0.1121 -0.4461
55062W        W55926  22.864   0.032  10.839  0.0815  0.0714 -0.2593
55063W        W55927  25.164   0.566  13.901 -0.0096  0.3692  0.1769
55064W        W55928  25.851   2.046  13.000  0.2993 -0.1484  0.1381
55065W        W55929  24.004   0.624  14.631 -0.0175 -0.0178 -0.1737
55066W        W55930  23.367   2.641  13.035 -0.1128 -0.1807 -0.0978
55067W        W55931  20.443   1.485  10.807 -0.0814  0.0239  0.0506
55068W        W55932  21.699   4.348  13.348  0.0585 -0.1651  0.0525
55069W        W55933  24.615   0.773  11.099 -0.1106 -0.0224  0.2239
55070W        W55934  22.855   1.060  12.648  0.2996  0.1009 -0.2006
55071W        W55935  21.155   1.387  11.182 -0.0608 -0.0679 -0.2276
55072W        W55936  21.173   5.505  11.883  0.1639 -0.0230  0.2634
55073W        W55937  21.496  28.867  13.534  0.1612  0.0139 -0.1070
55074W        W55938  24.255   2.827  13.166 -0.4012 -0.0058 -0.2925
55075W        W55939  25.306   1.259  13.776  0.0290  0.1566  0.0675
55076W        W55940  24.511   1.926  12.941  0.2061  0.1505  0.2225
55077W        W55941  24.138   2.877  11.056 -0.2209  0.0251  0.1186
55078W        W55942  23.669   3.216  10.832  0.0278 -0.1083  0.2538
55079W        W55943  21.684   4.165   9.661  0.1443  0.0564  0.0504
55080W        W55944  23.060   2.853  16.392 -0.1298  0.3190 -0.2371
55081W        W55945  23.291   2.725  13.619 -0.2365  0.2821 -0.1113
55082W        W55946  24.805  28.130  13.026 -0.0972 -0.0490 -0.0562
55083W        W55947  27.271   1.625  15.169 -0.0906  0.1226  0.4328
55084W        W55948  23.869   1.544  14.922 -0.0188 -0.1734 -0.3952
55085W        W55949  23.008   1.836   9.589 -0.2080 -0.1537 -0.0731
55086W        W55950  24.769   4.914  10.497  0.1739 -0.0256 -0.2041
55087W        W55951  24.426  28.798  14.682 -0.0628  0.1046 -0.1308
55088W        W55952  22.488   3.279  13.181 -0.0432  0.1052 -0.1023
55089W        W55953  25.258  28.591  15.199 -0.0823 -0.1429  0.2867
55090W        W55954  24.259   2.460  12.687 -0.1610 -0.1243  0.0624
55091W        W55955  22.221   2.318  11.685  0.1711  0.4128 -0.2963
55092W        W55956  25.475   0.848  15.213  0.0342 -0.1037  0.0438
55093W        W55957  24.023   4.269  14.302  0.0610  0.1903  0.1737
55094W        W55958  23.702   4.020  11.869  0.3280  0.3015  0.2214
55095W        W55959  23.839   3.089  11.384  0.2397  0.0127  0.2990
55096W        W55960  24.111   1.395  13.395 -0.1647  0.3629  0.5125
55097W        W55961  22.741   1.569  12.743  0.1568  0.0102 -0.0165
55098W        W55962  24.944   1.308  11.799 -0.1403 -0.0901 -0.3054
55099W        W55963  24.335   1.015  13.884 -0.1283 -0.2051  0.0243
55100W        W55964  24.789   4.188  12.738 -0.1814  0.1180 -0.0078
55101W        W55965  22.170   0.033  13.054 -0.2847 -0.0721 -0.1601
55102W        W55966  25.858   5.587   9.808  0.1081  0.1138  0.0965
55103W        W55967  20.984   1.394  14.371 -0.2235  0.0202 -0.0981
55104W        W55968  22.915   0.338  12.679 -0.1118 -0.1442 -0.0471
55105W        W55969  23.578  28.787  13.772 -0.0702 -0.1524 -0.0056
55106W        W55970  22.674  28.829  12.138 -0.0193 -0.0514  0.1277
55107W        W55971  22.652   1.517  14.341 -0.0007  0.0330 -0.1445
55108W        W55972  28.452   1.763  11.665 -0.2321 -0.0004  0.1444
55109W        W55973  21.670   2.881  16.104 -0.2335  0.1451 -0.0955
55110W        W55974  25.337   5.601   9.684  0.4095  0.0544 -0.1151
55111W        W55975  23.026   2.021  11.305  0.0098  0.1251 -0.0520
55112W        W55976  20.908   1.452  12.660  0.0583  0.1432  0.1966
55113W        W55977  22.576   3.539  12.267 -0.1251 -0.0135 -0.0511
55114W        W55978  26.848   1.642  15.590  0.2497  0.0516  0.0470
55115W        W55979  22.242  28.977  12.346 -0.1310  0.0491  0.2381
55116W        W55980  21.887  28.127  11.808 -0.1822 -0.0333  0.2347
55117W        W55981  23.949  28.790   9.413 -0.1389  0.2198 -0.0882
55118W        W55982  25.961  28.431  10.263 -0.3542 -0.2392  0.0771
55119W        W55983  23.892  28.835  14.164 -0.1485  0.2393 -0.1112
55120W        W55984  24.223   3.306  14.936  0.1580  0.2626 -0.0794
55121W        W55985  23.315   2.855  10.819 -0.0315 -0.1391 -0.0209
55122W        W55986  22.610  27.251  12.964 -0.1256  0.1683 -0.1292
55123W        W55987  22.724   0.201  12.240 -0.0043 -0.0756 -0.0262
55124W        W55988  24.664   2.713  12.568 -0.1064  0.0860  0.2248
55125W        W55989  23.889  28.909  13.423 -0.0646 -0.1616  0.0498
55126W        W55990  19.516   2.367  10.895  0.1918  0.0022 -0.0429
55127W        W55991  22.384   4.309  12.654  0.0373  0.0953 -0.1261
55128W        W55992  23.426   0.421  13.086 -0.0635 -0.0927  0.0907
55129W        W55993  24.287   2.914  12.372 -0.2613  0.1512 -0.0005
55130W        W55994  23.663  29.093  12.987  0.1228 -0.0543 -0.0497
55131W        W55995  27.129   2.660  14.303 -0.0123 -0.1062  0.0578
55132W        W55996  23.249   4.124  11.803  0.0486 -0.0117  0.2029
55133W        W55997  24.643   0.979  12.724 -0.1536 -0.3197  0.2403
55134W        W55998  21.889  28.341  11.064 -0.0793  0.0495  0.1322
55135W        W55999  22.225   1.267  13.476  0.1535 -0.2305 -0.4282
55136W        W56000  23.367   4.802  14.552  0.0917  0.1707 -0.0587
55137W        W56001  23.569   1.961  14.669 -0.0899  0.0525 -0.1251
55138W        W56002  20.676   0.207  13.352  0.0423  0.0510  0.1316
55139W        W56003  24.116   2.615  11.712  0.0877  0.3155  0.1587
55140W        W56004  22.773  29.038   9.892  0.1966 -0.0754  0.1086
55141W        W56005  20.532   0.648  14.296 -0.2516  0.1369 -0.2711
55142W        W56006  21.335   0.744  14.614  0.3615  0.2014 -0.1804
55143W        W56007  24.086   1.573  10.173  0.5018 -0.2915 -0.1908
55144W        W56008  22.135   0.623  10.552  0.0408 -0.4594 -0.0640
55145W        W56009  23.069   5.446  14.158 -0.1045  0.1332 -0.4100
55146W        W56010  23.423   1.944  10.813  0.2873  0.1610  0.0804
55147W        W56011  23.968   0.446  12.891  0.0352  0.1248  0.2013
55148W        W56012  24.509   2.891  11.913 -0.1987  0.1452  0.0955
55149W        W56013  22.717   0.462  13.552  0.0728 -0.0686 -0.0814
55150W        W56014  22.847   0.705  10.150  0.1395  0.1177 -0.0866
55151W        W56015  23.884   4.868  10.227 -0.1747 -0.1306  0.2204
55152W        W56016  22.251   1.822   9.473 -0.1149 -0.3061  0.3532
55153W        W56017  24.535  28.420  10.053 -0.2423 -0.1018 -0.3084
55154W        W56018  23.931   0.208  10.829 -0.2847  0.4552  0.0238
55155W        W56019  23.604   3.534  13.111 -0.0155 -0.0784 -0.0014
55156W        W56020  21.948  29.116  11.852 -0.2302  0.0720 -0.1047
55157W        W56021  23.983  28.928  12.593 -0.2315  0.1017 -0.1150
55158W        W56022  23.733  26.769  10.955 -0.0525 -0.3041 -0.0444
55159W        W56023  25.421   2.240  14.444  0.2161  0.1315  0.0341
55160W        W56024  26.410   2.855  13.774  0.0473 -0.1673 -0.0658
55161W        W56025  21.991   4.458  10.059 -0.1056 -0.1457 -0.2228
55162W        W56026  21.717   2.101  12.418 -0.1631  0.1214 -0.0021
55163W        W56027  21.868   2.224  13.518 -0.0869  0.1262  0.2157
55164W        W56028  21.767   0.867  13.511 -0.0151  0.0803 -0.0264
55165W        W56029  27.098   3.077  10.019 -0.0092  0.1608  0.4408
55166W        W56030  25.222   3.916  10.429 -0.1578  0.1885  0.1993
55167W        W56031  26.386   0.610  14.721  0.2767 -0.2326  0.1109
55168W        W56032  23.074   3.228  11.595 -0.1283  0.2238 -0.2880
55169W        W56033  24.015  28.638  11.459  0.1814 -0.3736  0.2438
55170W        W56034  24.367   0.474   8.459 -0.0421  0.1262  0.0785
55171W        W56035  23.686   2.388  12.667 -0.1955 -0.1769  0.1921
55172W        W56036  20.016  27.975  12.699  0.1693  0.0898  0.1968
55173W        W56037  21.373   3.194  15.734  0.0022 -0.3317  0.0352
55174W        W56038  22.920   1.579  11.921  0.1131  0.1593  0.2913
55175W        W56039  23.177   3.996  12.862 -0.0661 -0.2194  0.0093
55176W        W56040  23.335   1.031  15.021  0.1611  0.2751 -0.0693
55177W        W56041  20.919  28.742  15.903  0.2079  0.0226 -0.0220
55178W        W56042  21.374   0.461   9.983  0.0874  0.1708  0.0519
55179W        W56043  24.561  27.894  11.715 -0.0981 -0.1130 -0.0331
55180W        W56044  22.897   2.577  13.316 -0.1915 -0.0914 -0.2641
55181W        W56045  21.359  27.831  11.207  0.2183 -0.0999  0.0575
55182W        W56046  21.344   3.260  14.203  0.4726  0.0963  0.3057
55183W        W56047  23.382   2.249  13.337  0.1845  0.1275  0.2614
55184W        W56048  21.037   2.097  15.120 -0.0015  0.0211 -0.0631
55185W        W56049  23.285   1.019   9.949 -0.2901  0.0242  0.2832
55186W        W56050  22.002   0.433   9.726  0.2165  0.2421 -0.0531
55187W        W56051  23.020  28.620  12.613 -0.1442  0.0688  0.0800
55188W        W56052  23.646  29.063  11.258  0.0572 -0.4058 -0.0135
55189W        W56053  22.322   2.737   7.690  0.0692 -0.4790 -0.0663
55190W        W56054  24.341   2.368  10.936  0.4946  0.0956 -0.0461
55191W        W56055  20.651   1.091  11.125 -0.0747 -0.1734  0.3410
55192W        W56056  23.887  28.191  11.127 -0.2772  0.1925  0.2525
55193W        W56057  25.318   1.244   9.449  0.1481 -0.0682  0.0290
55194W        W56058  23.613   0.945  13.007  0.0451 -0.2381 -0.0403
55195W        W56059  22.330   0.085  15.728 -0.0250  0.1009 -0.0797
55196W        W56060  24.633   2.694  13.468  0.2256 -0.0584  0.0072
55197W        W56061  25.302   1.728  16.634  0.1126 -0.0562  0.1783
55198W        W56062  23.069   3.384  10.532  0.1458 -0.2787 -0.1886
55199W        W56063  25.008   3.240  12.147 -0.1045  0.0560  0.3665
55200W        W56064  23.307   2.182  12.406 -0.3573  0.0919  0.0265
55201W        W56065  21.838   0.423  12.225 -0.0961 -0.1565 -0.1944
55202W        W56066  24.017   2.381  13.086  0.0461  0.0095 -0.0437
55203W        W56067  27.284   2.134  12.249  0.2490 -0.1682  0.2778
55204W        W56068  23.411  28.301  12.677  0.0752 -0.1731 -0.2758
55205W        W56069  22.101   2.052  10.367  0.1998 -0.1972  0.0746
55206W        W56070  22.303   1.750  10.737  0.2198 -0.1090 -0.0721
55207W        W56071  23.376   3.151  12.637  0.1206  0.0250 -0.3599
55208W        W56072  19.443   2.536   9.512 -0.0770 -0.2354  0.1150
55209W        W56073  21.089   0.368  10.889 -0.2251 -0.0392 -0.0900
55210W        W56074  23.673  28.115  10.302  0.0068 -0.2778 -0.1652
55211W        W56075  22.341  29.117  10.166  0.4896 -0.3584 -0.2284
55212W        W56076  22.349   0.259  12.644  0.1912 -0.1185 -0.0275
55213W        W56077  23.552   1.210   8.908  0.1561  0.1176  0.2072
55214W        W56078  24.257   1.991  15.369 -0.0958  0.1341 -0.2088
55215W        W56079  21.378   1.670  12.415 -0.2785 -0.1169 -0.3294
55216W        W56080  21.300   3.693  12.403  0.1300  0.1459  0.0005
55217W        W56081  22.545  28.888   8.535  0.0886 -0.0832 -0.1587
55218W        W56082  21.941   3.191  12.456  0.1900 -0.0034 -0.0259
55219W        W56083  24.333   0.867  13.137  0.1090  0.3985 -0.0392
55220W        W56084  23.046   1.599  13.192 -0.1896  0.2891  0.4111
55221W        W56085  19.655   2.288  12.290  0.0719 -0.1865 -0.0163
55222W        W56086  21.293   1.415  10.270 -0.2011  0.0564  0.1714
55223W        W56087  24.390   0.603  13.605 -0.1357 -0.1001 -0.0976
55224W        W56088  23.917   0.071  13.805 -0.4917 -0.0632 -0.3125
55225W        W56089  22.111  27.175  12.901 -0.0128  0.0314 -0.0137
55226W        W56090  25.452   2.477  11.870 -0.0024 -0.3729  0.2649
55227W        W56091  23.867   1.410  12.949 -0.0673 -0.2634  0.0227
55228W        W56092  25.072   3.336  13.005 -0.0281 -0.2879 -0.0989
55229W        W56093  25.071   2.952  13.640 -0.1764  0.3204 -0.1875
55230W        W56094  21.782   0.958  12.232  0.0078  0.0093  0.0977
55231W        W56095  25.486   0.530  11.631 -0.0326  0.0056  0.0070
55232W        W56096  21.914   2.541   8.649  0.0293  0.0451  0.0637
55233W        W56097  27.374   2.628  10.917  0.1998 -0.1040  0.3448
55234W        W56098  24.150  28.016  10.102 -0.0235  0.0187 -0.1645
55235W        W56099  23.258   1.039  12.331  0.1853  0.1498  0.2584
55236W        W56100  25.070   3.736  12.055  0.1016  0.3018 -0.3133
55237W        W56101  24.003   0.516  15.126 -0.0067 -0.1437  0.0829
55238W        W56102  21.418  27.960  13.129  0.1467 -0.0773  0.2471
55239W        W56103  25.933   4.024  11.415 -0.0367  0.1272 -0.2016
55240W        W56104  24.503   1.504  11.918 -0.3189 -0.1206 -0.1519
55241W        W56105  22.038  28.411  12.487 -0.0989 -0.0499  0.0139
55242W        W56106  22.050   0.963  11.757  0.0031  0.0209  0.1280
55243W        W56107  20.305   1.593   9.110  0.1688  0.0433 -0.4359
55244W        W56108  22.030   2.601  13.272 -0.0191 -0.0808  0.1526
55245W        W56109  26.774   1.390  15.022  0.1478 -0.3389  0.0196
55246W        W56110  23.509   2.205  16.226  0.3796  0.0228  0.2959
55247W        W56111  22.531   1.057  14.746 -0.0149  0.0449 -0.3527
55248W        W56112  21.734   3.473  13.955 -0.0518 -0.1976  0.1655
55249W        W56113  23.414   4.254  16.097 -0.0637  0.1307 -0.3348
55250W        W56114  20.730   5.102  11.103 -0.1597  0.1102  0.1373
55251W        W56115  25.496   3.062  12.106  0.1635 -0.0337 -0.0661
55252W        W56116  25.924   2.297  14.632 -0.2432  0.0596  0.1377
55253W        W56117  23.338   2.303  11.590 -0.1261 -0.1915 -0.0155
55254W        W56118  22.747   1.928  10.807  0.1075 -0.0919  0.3684
55255W        W56119  24.087   1.838  14.491  0.2025 -0.2788 -0.0738
55256W        W56120  22.984   3.193  12.206  0.3241  0.3227  0.0389
55257W        W56121  24.912   0.625  12.432 -0.1247  0.4083 -0.0585
55258W        W56122  20.656   3.185  12.238  0.0261  0.1009  0.0419
55259W        W56123  21.823   2.352  15.964  0.0055  0.0610 -0.1688
55260W        W56124  23.343   2.383  10.601 -0.0939  0.2026 -0.0929
55261W        W56125  18.616   1.849  11.608  0.0459  0.1091  0.1885
55262W        W56126  22.111   5.486  21.222 -0.0709 -0.0108  0.0273
55263W        W56127  23.862  28.767  17.006 -0.1747  0.2548 -0.0985
55264W        W56128  23.932   0.993  14.191  0.2714 -0.0612 -0.0565
55265W        W56129  26.051   1.688  16.615 -0.2266  0.0845 -0.0528
55266W        W56130  21.667   3.508  14.495  0.2002 -0.0536 -0.1431
55267W        W56131  22.861   0.714  12.224 -0.1687 -0.0391 -0.0990
55268W        W56132  20.749   0.215  14.282 -0.1732 -0.1182 -0.1606
55269W        W56133  23.123   2.802  11.865 -0.1481 -0.2425 -0.2761
55270W        W56134  23.174   1.901  17.943  0.0358  0.2686  0.1328
55271W        W56135  23.684   0.087  20.921 -0.1303 -0.1966 -0.0425
55272W        W56136  23.657   1.018  17.855  0.2550 -0.0585  0.2051
55273W        W56137  25.096   3.048  17.694 -0.2108  0.0448  0.1171
55274W        W56138  23.869   3.185  12.553 -0.0808 -0.0328  0.1471
55275W        W56139  25.575   1.414  15.699 -0.2655  0.2556  0.0593
55276W        W56140  21.537   2.330  18.853 -0.1848  0.2111 -0.2025
55277W        W56141  20.138   1.442  20.277 -0.0706  0.1032 -0.1238
55278W        W56142  21.791   2.483  13.997 -0.0458 -0.3079 -0.1574
55279W        W56143  24.349  28.093  14.192 -0.1909  0.1685 -0.0083
55280W        W56144  20.885   1.823  16.436  0.0572 -0.0550 -0.0471
55281W        W56145  28.512   0.795  16.521  0.0376  0.1850 -0.0513
55282W        W56146  24.121   2.608  15.762 -0.1030 -0.1397 -0.2779
55283W        W56147  25.128   1.245  15.378 -0.0413 -0.0554  0.0726
55284W        W56148  23.000   3.541  15.853 -0.3163 -0.3393  0.3630
55285W        W56149  22.118  29.131  19.039 -0.1696 -0.0044 -0.0473
55286W        W56150  23.043   1.229  17.544 -0.2932  0.1192  0.0200
55287W        W56151  23.946   1.527  19.908  0.0652 -0.1667  0.2191
55288W        W56152  26.592   1.632  18.485 -0.0390  0.2343 -0.0983
55289W        W56153  21.965   2.751  18.732 -0.0884  0.0770 -0.0049
55290W        W56154  25.118  28.787  16.813 -0.2507  0.1260 -0.0416
55291W        W56155  24.219   1.270  15.198 -0.1306 -0.0582  0.2315
55292W        W56156  26.039   2.528  17.023  0.1461  0.0063 -0.4295
55293W        W56157  23.463   4.495  18.532  0.2048 -0.1088  0.1487
55294W        W56158  24.209   3.665  16.232 -0.1277 -0.3631 -0.0495
55295W        W56159  21.153   1.724  15.948  0.0802 -0.0617  0.0071
55296W        W56160  22.948   2.479  18.788 -0.4656 -0.1846 -0.1233
55297W        W56161  27.349  28.729  17.541  0.0474 -0.0308 -0.0397
55298W        W56162  22.244   0.224  19.548 -0.0308  0.1009  0.1833
55299W        W56163  20.941   2.628  15.270  0.1948 -0.2307  0.1042
55300W        W56164  21.988   3.881  14.868 -0.3117  0.0076 -0.1579
55301W        W56165  24.813  28.542  16.431 -0.2241 -0.2872  0.1984
55302W        W56166  22.853   2.538  16.756 -0.0544  0.3462  0.1094
55303W        W56167  24.521   1.116  16.054 -0.0700 -0.1387 -0.2186
55304W        W56168  21.373   1.707  16.649 -0.1008  0.1714  0.2360
55305W        W56169  26.741   3.506  15.115 -0.0338  0.2166  0.2386
55306W        W56170  19.775   2.576  15.199 -0.0460 -0.3501  0.0501
55307W        W56171  20.200   3.153  13.794 -0.0743 -0.0745 -0.1013
55308W        W56172  21.936   0.960  14.673  0.0674 -0.1879  0.3465
55309W        W56173  25.656   1.812  17.491  0.1529  0.2144 -0.1140
55310W        W56174  21.343   1.594  13.509 -0.0124 -0.0660  0.0156
55311W        W56175  25.082   1.509  14.966 -0.1169 -0.1835 -0.0585
55312W        W56176  24.194   4.061  13.810 -0.1031  0.0003  0.0603
55313W        W56177  25.898   2.147  17.767 -0.1768  0.0389 -0.3561
55314W        W56178  23.179   3.385  16.312 -0.1141  0.1762  0.0354
55315W        W56179  23.736  29.028  17.893 -0.3785 -0.1625  0.0534
55316W        W56180  23.674  26.848  15.462 -0.0538 -0.0772  0.0366
55317W        W56181  20.949   2.388  14.543  0.1023 -0.2103  0.0687
55318W        W56182  20.389  27.811  16.578  0.2901 -0.0594 -0.2386
55319W        W56183  23.982   4.715  16.720 -0.0722 -0.0494 -0.1563
55320W        W56184  22.257   2.298  17.413 -0.4752 -0.2047 -0.1253
55321W        W56185  23.061   1.238  14.106  0.3513 -0.2311  0.2967
55322W        W56186  26.035   1.943  15.608  0.0634 -0.0645 -0.1428
55323W        W56187  21.720   2.552  14.632 -0.0969 -0.0789  0.2200
55324W        W56188  23.180  28.746  19.311  0.1947 -0.2292 -0.2039
55325W        W56189  23.442   0.138  13.518 -0.1198 -0.0895 -0.1685
55326W        W56190  24.477  27.312  17.993  0.0456  0.0220 -0.0612
55327W        W56191  24.318   0.934  14.889 -0.0973 -0.0736 -0.0750
55328W        W56192  21.136   3.989  14.901 -0.0819 -0.1175  0.3866
55329W        W56193  24.427   2.921  15.195 -0.0879  0.1279 -0.0597
55330W        W56194  23.539   1.917  15.182  0.4029  0.2604  0.0890
55331W        W56195  23.205   3.026  18.883 -0.1554  0.0987 -0.0752
55332W        W56196  22.656   3.658  16.837 -0.1409 -0.1016 -0.1420
55333W        W56197  21.289   2.114  13.691 -0.0258  0.0159 -0.0925
55334W        W56198  25.073   4.101  16.772 -0.1398 -0.1173  0.0592
55335W        W56199  26.744   1.740  19.480  0.1320  0.0416  0.0321
55336W        W56200  26.424   4.394  17.800 -0.0213  0.0451  0.1669
55337W        W56201  22.686   1.634  17.822  0.1129  0.2221 -0.0395
55338W        W56202  23.249  27.924  13.949  0.2352 -0.0293 -0.1259
55339W        W56203  23.020   0.318  15.817  0.0033  0.1070 -0.0337
55340W        W56204  25.357   2.785  14.077  0.0503 -0.1239  0.2041
55341W        W56205  22.355   0.933  16.084 -0.0392  0.0966 -0.0011
55342W        W56206  22.519  28.791  17.332  0.2230  0.0530  0.2220
55343W        W56207  22.499   2.739  19.518 -0.1468  0.3469  0.1116
55344W        W56208  22.934   0.029  17.998 -0.1669  0.0839 -0.2849
55345W        W56209  24.539   0.956  16.638 -0.0228  0.2126 -0.1222
55346W        W56210  25.665   0.204  17.767 -0.3381  0.0359 -0.2646
55347W        W56211  24.975  27.843  13.504  0.0324  0.0588 -0.0982
55348W        W56212  25.970   4.237  17.454 -0.1571  0.3449  0.0940
55349W        W56213  24.695  27.006  18.425  0.0592 -0.0757 -0.1287
55350W        W56214  27.607   2.344  18.678  0.0429 -0.0215 -0.0798
55351W        W56215  22.713   0.832  15.228 -0.3004 -0.0236 -0.3579
55352W        W56216  23.909   0.001  17.416 -0.2046  0.0216 -0.0430
55353W        W56217  25.014   0.944  18.665  0.0893 -0.0365 -0.2312
55354W        W56218  21.938   1.675  17.536 -0.1528 -0.0249  0.0156
55355W        W56219  21.365   0.260  18.278  0.2709  0.0665  0.3587
55356W        W56220  27.105  28.215  17.431 -0.1732 -0.1284 -0.1544
55357W        W56221  25.657   2.963  17.182  0.0652  0.4207  0.0451
55358W        W56222  23.119   0.413  18.335  0.0315  0.2945  0.0030
55359W        W56223  19.983   3.674  16.188 -0.1795  0.0999  0.0512
55360W        W56224  22.338   0.665  15.671 -0.0640  0.1964 -0.2274
55361W        W56225  24.281  28.412  15.612  0.2693  0.1084 -0.0068
55362W        W56226  23.588   1.333  13.430  0.2304  0.1547 -0.0179
55363W        W56227  19.981   3.805  16.718 -0.1354 -0.1815 -0.3813
55364W        W56228  24.649   0.536  15.088 -0.4149  0.1715 -0.2194
55365W        W56229  25.553   5.240  15.403  0.2523  0.1438  0.0108
55366W        W56230  24.348  28.799  16.287 -0.0157 -0.0975 -0.0386
55367W        W56231  23.567   0.984  16.722  0.0293 -0.1462 -0.1856
55368W        W56232  24.964   2.506  16.139  0.0544  0.1327  0.0552
55369W        W56233  23.042   1.987  14.441  0.2260  0.0751 -0.2133
55370W        W56234  23.938  28.846  15.939 -0.0418  0.0537 -0.1514
55371W        W56235  24.141  28.188  17.568  0.1208 -0.2351  0.0916
55372W        W56236  22.935   3.159  13.685  0.0864  0.0906 -0.0451
55373W        W56237  23.834   3.364  15.902 -0.2440  0.0338 -0.0037
55374W        W56238  25.464   1.591  16.140  0.0320  0.3540  0.3006
55375W        W56239  22.060   1.954  16.119  0.3285 -0.0382  0.1829
55376W        W56240  27.459   2.081  15.334 -0.0309  0.0721  0.3175
55377W        W56241  25.919   2.192  15.154  0.5206  0.0212  0.2486
55378W        W56242  22.099   1.125  16.661  0.2193 -0.1532  0.0230
55379W        W56243  24.642   1.801  17.143 -0.2166 -0.2786 -0.0957
55380W        W56244  22.748   4.667  16.558  0.1166  0.1793 -0.2131
55381W        W56245  24.700   3.042  18.962 -0.0796  0.0104  0.0954
55382W        W56246  21.527   0.891  14.164 -0.0891 -0.0714  0.4601
55383W        W56247  27.511   2.060  16.749 -0.1042  0.1890  0.2102
55384W        W56248  24.603   2.192  16.127  0.2905  0.0473  0.0256
55385W        W56249  25.556   3.094  14.516  0.1806 -0.1935 -0.2660
55386W        W56250  23.511  28.834  12.581  0.2083 -0.1354 -0.2210
55387W        W56251  25.628  28.867  16.522  0.2061 -0.2056 -0.2146
55388W        W56252  21.483   2.203  19.302  0.0401 -0.0290 -0.2897
55389W        W56253  23.231   1.160  15.946  0.0986 -0.1895 -0.1817
55390W        W56254  25.931   1.621  16.120 -0.0340  0.0222  0.1153
55391W        W56255  23.241   2.153  15.618 -0.4641 -0.1396  0.0521
55392W        W56256  26.206   1.937  18.224 -0.2499  0.1119  0.2000
55393W        W56257  22.339  28.796  16.459  0.2001  0.0588 -0.0466
55394W        W56258  20.331   3.474  16.492 -0.1488  0.3662 -0.0295
55395W        W56259  25.671   1.142  16.136  0.2163  0.3200 -0.1396
55396W        W56260  26.421   4.112  15.445 -0.4054  0.0371  0.2521
55397W        W56261  23.270  25.335  15.048 -0.2340  0.2145  0.0197
55398W        W56262  25.114   0.526  17.304 -0.1476  0.2815 -0.1630
55399W        W56263  25.004   1.162  17.983 -0.1323 -0.1981  0.4110
55400W        W56264  24.071   4.271  16.847 -0.2685  0.2217  0.2191
55401W        W56265  23.699   1.232  15.319 -0.0910  0.0961 -0.2071
55402W        W56266  23.041  28.651  14.102  0.0142  0.1125 -0.1321
55403W        W56267  23.207   2.702  14.722  0.0762  0.1606  0.0698
55404W        W56268  23.289   4.463  13.130  0.3024  0.0894  0.2362
55405W        W56269  26.049   1.369  14.571 -0.1477  0.1906  0.1712
55406W        W56270  21.851  28.858  16.500 -0.0865  0.2057  0.2968
55407W        W56271  23.662   0.750  15.425  0.1950 -0.1434 -0.0979
55408W        W56272  24.173  28.351  14.612  0.2373  0.0466  0.1463
55409W        W56273  23.588   4.611  17.868  0.1951 -0.1744  0.0019
55410W        W56274  22.719   3.989  15.740 -0.0906 -0.1706  0.3436
55411W        W56275  22.209   1.808  15.651 -0.2910 -0.2066  0.0141
55412W        W56276  26.118   3.806  18.352  0.0141 -0.1173 -0.0992
55413W        W56277  24.787  28.619  15.386 -0.1055  0.3255 -0.0001
55414W        W56278  23.854   2.995  17.527 -0.1251 -0.0988  0.1127
55415W        W56279  24.690   0.630  14.038 -0.2080 -0.3345 -0.0580
55416W        W56280  23.139   3.569  19.058  0.0329 -0.0322  0.0112
55417W        W56281  24.286   2.028  16.657 -0.0846  0.1673 -0.0303
55418W        W56282  21.708   3.555  21.330  0.2112 -0.1228  0.0383
55419W        W56283  23.191   0.536  15.406  0.0230 -0.0159 -0.0886
55420W        W56284  25.048  28.369  13.538 -0.0610  0.1935 -0.0622
55421W        W56285  23.165   0.170  16.282 -0.0293 -0.3829 -0.2694
55422W        W56286  23.021   0.707  14.716  0.0666  0.0157 -0.1175
55423W        W56287  23.028   2.738  19.292 -0.4204  0.0112 -0.2892
55424W        W56288  24.974   3.396  18.721 -0.1671  0.3472 -0.0267
55425W        W56289  23.161   0.328  17.339  0.0870 -0.2246 -0.1668
55426W        W56290  23.765  28.016  19.545  0.2800 -0.1676 -0.1312
55427W        W56291  21.277  27.722  17.622  0.2237  0.1128  0.2055
55428W        W56292  23.573  27.542  14.750 -0.0290 -0.0760  0.0132
55429W        W56293  22.328   1.447  16.974  0.3708  0.0171 -0.0336
55430W        W56294  23.291   1.096  17.106 -0.2341  0.0758 -0.4612
55431W        W56295  20.828   2.023  17.428  0.1713  0.0656  0.0418
55432W        W56296  23.104   1.936  16.045  0.0223 -0.2571  0.0693
55433W        W56297  25.331   0.202  14.646  0.1422 -0.1713 -0.3330
55434W        W56298  23.628   1.424  15.792  0.2872  0.0767 -0.3590
55435W        W56299  25.119   1.933  16.120  0.0574 -0.0874  0.1132
55436W        W56300  19.974   0.389  19.913 -0.0680 -0.2790  0.0760
55437W        W56301  24.309   2.804  16.718 -0.2034 -0.0486  0.0219
55438W        W56302  20.924   4.981  19.077  0.1799  0.3481 -0.2631
55439W        W56303  22.069   0.247  14.027 -0.0458  0.3161 -0.0693
55440W        W56304  21.067   2.766  15.722 -0.4597 -0.0429  0.1833
55441W        W56305  23.467  28.949  14.439 -0.1032 -0.1071  0.5072
55442W        W56306  24.945   2.079  15.254  0.2194 -0.2854 -0.1007
55443W        W56307  24.480   1.995  14.896 -0.3842 -0.0262  0.2937
55444W        W56308  24.121   1.901  13.210  0.4017  0.2098 -0.0442
55445W        W56309  24.569  28.033  16.100  0.1058 -0.0739  0.4752
55446W        W56310  26.191   1.185  13.552 -0.0821  0.0340 -0.4373
55447W        W56311  26.283   1.733  19.701  0.2730  0.0847 -0.0250
55448W        W56312  25.228  28.112  12.427  0.3244 -0.1976 -0.2803
55449W        W56313  19.121   0.475  12.608  0.2061  0.2611 -0.0228
55450W        W56314  22.233   2.292  19.606 -0.0304 -0.0490  0.1605
55451W        W56315  22.139  28.873  16.012  0.0769  0.0144 -0.3746
55452W        W56316  24.847   2.254  12.208 -0.2410  0.1398 -0.1632
55453W        W56317  21.803   2.975  16.936 -0.2186  0.1435  0.0233
55454W        W56318  23.559   4.257  16.896 -0.1677 -0.3049  0.0965
55455W        W56319  24.880   1.502  15.748  0.0720 -0.0632  0.2263
55456W        W56320  23.697   0.431  17.462 -0.1004  0.0775  0.2119
55457W        W56321  23.183   0.892  17.993 -0.0118  0.1258 -0.1309
55458W        W56322  22.596   0.457  16.022 -0.2688  0.1875  0.0405
55459W        W56323  21.608   1.380  18.055 -0.2399  0.1331  0.0180
55460W        W56324  23.827   2.199  15.478 -0.3763 -0.1559  0.3418
55461W        W56325  25.918  26.835  14.639 -0.1840 -0.2247 -0.2326
55462W        W56326  22.677   0.401  15.466 -0.1387  0.0099  0.0679
55463W        W56327  26.334  28.800  17.241  0.0183  0.2794  0.2068
55464W        W56328  22.974   1.943  15.215 -0.0653 -0.0785  0.3509
55465W        W56329  23.121  28.654  13.604 -0.0322  0.0931 -0.3733
55466W        W56330  24.431   0.099  18.335 -0.3945 -0.1785  0.1040
55467W        W56331  23.340  26.532  15.607  0.1878  0.1017 -0.2862
55468W        W56332  22.757   2.607  18.303 -0.0588 -0.1200 -0.1335
55469W        W56333  23.037   0.748  16.890  0.0975 -0.1528  0.1148
55470W        W56334  22.932   4.810  13.790 -0.0495 -0.3100  0.2132
55471W        W56335  24.191   2.967  13.708 -0.2472  0.2359 -0.1406
55472W        W56336  20.949   1.703  19.941 -0.0566 -0.0459 -0.0441
55473W        W56337  23.111  28.271  18.971 -0.0469  0.0353 -0.0871
55474W        W56338  23.818   0.600  16.436 -0.1470 -0.0215 -0.0571
55475W        W56339  23.351   0.156  19.186  0.1619  0.0958 -0.1562
55476W        W56340  25.530   4.486  14.691 -0.1158  0.3010  0.0918
55477W        W56341  25.456   3.258  15.819  0.0667 -0.0002  0.0394
55478W        W56342  24.039   1.112  15.653 -0.1862  0.0229  0.1081
55479W        W56343  22.894   1.706  14.806  0.2170  0.1762 -0.2175
55480W        W56344  23.093   1.149  16.534  0.0136  0.1568  0.0702
55481W        W56345  20.605   1.459  16.111  0.0819  0.1490 -0.0776
55482W        W56346  26.781  28.925  17.606  0.1501 -0.0431  0.1830
55483W        W56347  24.815   1.014  15.006  0.0932 -0.1371 -0.2386
55484W        W56348  22.642   6.606  16.452 -0.1201  0.1727 -0.1838
55485W        W56349  24.843  28.632  14.895 -0.0572 -0.2749 -0.0196
55486W        W56350  27.055   0.576  15.164  0.1010 -0.0859  0.1891
55487W        W56351  24.041   0.114  15.609 -0.1183 -0.1201  0.0964
55488W        W56352  23.962   2.458  16.691  0.2817  0.2305  0.0569
55489W        W56353  26.138   2.204  16.597 -0.2113 -0.0433  0.0444
55490W        W56354  24.593   2.387  15.485 -0.0055 -0.0867 -0.0433
55491W        W56355  24.804   0.751  17.760 -0.3087  0.0817  0.2718
55492W        W56356  21.869  28.717  19.169  0.0120  0.1391  0.0750
55493W        W56357  23.906   3.983  20.269  0.0126 -0.1318  0.1392
55494W        W56358  23.368   2.397  14.359  0.3868 -0.0592 -0.0979
55495W        W56359  22.557   2.031  16.110  0.0430 -0.0146 -0.2776
55496W        W56360  23.540   1.351  17.471 -0.1298  0.3111 -0.0061
55497W        W56361  23.081   4.080  17.332 -0.1333 -0.0638 -0.1680
55498W        W56362  24.611   4.132  17.351  0.0546 -0.1045 -0.1410
55499W        W56363  24.178   0.488  17.330 -0.2617 -0.4539  0.1386
55500W        W56364  24.957   2.297  14.755  0.0083  0.1581  0.2666
55501W        W56365  26.449   3.914  14.905  0.0964 -0.1282 -0.4336
55502W        W56366  24.036   2.645  14.122 -0.0293  0.1597  0.0664
55503W        W56367  22.073   1.916  16.948  0.0155  0.0121  0.0446
55504W        W56368  22.679   0.311  18.530 -0.0452  0.1012  0.2175
55505W        W56369  23.347  27.492  17.248  0.1248  0.0652 -0.3530
55506W        W56370  24.841   2.225  17.007  0.1480  0.1252 -0.0406
55507W        W56371  23.785   1.223  12.422 -0.1712 -0.0563 -0.1127
55508W        W56372  25.511   3.327  16.345  0.0338  0.0802  0.1721
55509W        W56373  22.863   0.802  15.708 -0.1657  0.0955  0.0318
55510W        W56374  23.916   3.312  14.533 -0.3306 -0.1971  0.0429
55511W        W56375  22.552  28.912  14.804 -0.0766  0.1745 -0.4290
55512W        W56376  23.944   2.124  14.971 -0.0750  0.2244 -0.0628
55513W        W56377  22.287   3.723  15.736  0.1346  0.1159 -0.0206
55514W        W56378  24.707   7.335  18.652  0.0224  0.2065 -0.2234
55515W        W56379  22.577  29.139  16.145 -0.1791  0.1018 -0.2090
55516W        W56380  23.275   0.757  12.739 -0.0694  0.1226 -0.3011
55517W        W56381  26.263   2.724  16.591 -0.2421 -0.2177 -0.3457
55518W        W56382  22.971   1.203  14.603  0.0450  0.2717  0.2714
55519W        W56383  22.991  28.975  17.218 -0.0045 -0.0549 -0.0998
55520W        W56384  23.756   2.671  17.141 -0.1905  0.1836  0.2377
55521W        W56385  24.502   0.248  15.567  0.0049  0.1968 -0.1219
55522W        W56386  22.083  28.826  15.541  0.1064 -0.1540  0.2081
55523W        W56387  23.523   2.407  17.947  0.0799  0.1685  0.2067
55524W        W56388  24.511   3.330  16.959 -0.1117 -0.0690  0.0389
55525W        W56389  22.975   0.516  19.286 -0.0817  0.1409 -0.2333
55526W        W56390  21.516   2.073  16.258 -0.3318 -0.1010 -0.0952
55527W        W56391  21.531   5.440  18.440 -0.1381  0.3036 -0.0444
55528W        W56392  22.933   0.866  13.758 -0.0721 -0.2848 -0.0769
55529W        W56393  22.260   2.532  15.184  0.3375  0.2745 -0.1127
55530W        W56394  20.875   0.769  17.619 -0.0656 -0.1132 -0.1312
55531W        W56395  27.360   1.999  14.860  0.0631  0.1152 -0.1565
55532W        W56396  23.347   3.552  15.152 -0.1642 -0.1901  0.1332
55533W        W56397  24.916   3.876  14.541  0.2498 -0.1853  0.3220
55534W        W56398  23.826   0.942  17.252 -0.0431  0.1138 -0.2072
55535W        W56399  23.483   3.752  17.191  0.1029 -0.2529 -0.0004
55536W        W56400  25.810   3.791  18.759 -0.0699 -0.1161  0.2036
55537W        W56401  25.097  28.976  18.186 -0.0234  0.0127  0.3638
55538W        W56402  22.778   2.916  18.670  0.1074  0.1458  0.4537
55539W        W56403  21.573  28.306  18.810  0.1815  0.1156 -0.1253
55540W        W56404  22.386   0.646  12.318 -0.0168 -0.0648 -0.0092
55541W        W56405  22.243   3.170  18.732 -0.2177  0.1864  0.0404
55542W        W56406  23.141   0.184  14.915 -0.1687  0.0662  0.1378
55543W        W56407  25.930  27.887  13.118  0.0160 -0.1160  0.0421
55544W        W56408  23.057   3.454  17.171  0.3403  0.0368  0.0905
55545W        W56409  20.470   2.953  18.458 -0.0167 -0.0338  0.4247
55546W        W56410  23.727   1.529  14.286 -0.0745  0.1731  0.0893
55547W        W56411  22.418  28.363  16.979  0.1953 -0.0608 -0.0344
55548W        W56412  23.874   4.583  15.517 -0.0665 -0.2241 -0.0666
55549W        W56413  21.103   1.391  16.324  0.2194 -0.2965  0.0455
55550W        W56414  24.797   0.137  14.669  0.2105  0.1348 -0.1035
55551W        W56415  24.296   3.546  13.554 -0.1253  0.2193 -0.0341
55552W        W56416  23.923  28.822  14.659 -0.0518  0.0213 -0.0387
55553W        W56417  24.614   1.829  14.416  0.3865 -0.0744  0.1021
55554W        W56418  24.569  28.250  17.837 -0.3127  0.0515  0.2853
55555W        W56419  20.426  27.646  15.825  0.0396 -0.0800  0.0262
55556W        W56420  21.087  27.247  16.958  0.0991  0.4346  0.2316
55557W        W56421  23.486   0.561  14.712 -0.2575 -0.0776  0.2432
55558W        W56422  20.541  27.815  14.396 -0.1972 -0.1608  0.2478
55559W        W56423  26.173   1.590  18.772 -0.0057 -0.0453 -0.2318
55560W        W56424  26.504   0.272  16.646 -0.1954 -0.4371 -0.1009
55561W        W56425  22.778   3.299  12.709 -0.1875 -0.3757  0.0915
55562W        W56426  23.126   2.771  14.145  0.1147  0.0638 -0.0903
55563W        W56427  21.785   0.544  18.458 -0.1590  0.1099 -0.2054
55564W        W56428  23.066   3.922  18.041 -0.0117  0.0324  0.2179
55565W        W56429  26.121   2.697  15.269 -0.0312 -0.0232  0.0947
55566W        W56430  23.640   0.987  16.212  0.1493 -0.2114 -0.0851
55567W        W56431  24.146   3.586  18.404 -0.1316  0.1081  0.0810
55568W        W56432  24.628   0.996  18.282 -0.0046  0.2153 -0.0121
55569W        W56433  23.461  27.874  16.449 -0.0810  0.2362  0.1110
55570W        W56434  21.877   0.607  15.460  0.0441  0.2808 -0.2438
55571W        W56435  24.801  28.023  18.493  0.1121 -0.1905 -0.0227
55572W        W56436  24.925  28.268  11.646  0.0154 -0.1145 -0.1911
55573W        W56437  20.800   1.456  18.088  0.0937  0.1079 -0.0333
55574W        W56438  25.667   1.302  17.481  0.0720 -0.1852 -0.0614
55575W        W56439  24.566   2.256  17.497  0.1396  0.0766  0.0103
55576W        W56440  20.724   2.600  16.061 -0.1716  0.2680 -0.1608
55577W        W56441  22.388   5.986  19.173 -0.1515 -0.0599  0.0524
55578W        W56442  23.406  26.952  14.112 -0.0306 -0.2127  0.6426
55579W        W56443  20.180  28.480  17.015  0.1691  0.1360  0.1307
55580W        W56444  23.899   2.395  17.519  0.0529 -0.0482 -0.0406
55581W        W56445  22.264   1.895  18.396 -0.0260 -0.0185 -0.0263
55582W        W56446  22.511   3.046  16.330 -0.1088  0.2569  0.0281
55583W        W56447  25.365   2.060  17.763 -0.2985  0.0011  0.2664
55584W        W56448  21.957   2.226  18.706 -0.0495 -0.1930 -0.0449
55585W        W56449  24.634   3.732  14.971 -0.0960 -0.1857 -0.2496
55586W        W56450  22.650   0.926  14.273  0.0510 -0.4162  0.0501
55587W        W56451  21.454   3.320  18.563  0.0198 -0.2320 -0.0039
55588W        W56452  25.921  28.933  18.102 -0.2498  0.1167  0.0782
55589W        W56453  21.339   2.120  14.755 -0.1146  0.1606 -0.1170
55590W        W56454  24.581   3.170  16.488 -0.0407 -0.2373  0.2345
55591W        W56455  22.868  28.536  15.452  0.3385  0.0896  0.1283
55592W        W56456  22.304   0.424  20.061 -0.1190  0.0308  0.2182
55593W        W56457  22.980  28.797  15.073  0.0307 -0.0707 -0.0947
55594W        W56458  25.659   1.497  18.461  0.0033  0.2028  0.0563
55595W        W56459  22.049   2.502  17.030  0.0083 -0.2206 -0.0084
55596W        W56460  24.958   2.636  18.064 -0.1434  0.1944 -0.0032
55597W        W56461  23.072   3.701  18.532 -0.2480 -0.2654  0.1245
55598W        W56462  20.606   2.793  15.580 -0.0167  0.0752 -0.1092
55599W        W56463  24.684   3.227  13.794 -0.0183  0.2570 -0.1445
55600W        W56464  25.246   1.758  15.493  0.0356  0.2684 -0.2214
55601W        W56465  23.574  27.417  16.116 -0.4042 -0.0482 -0.0618
55602W        W56466  22.959   3.979  16.250 -0.2629 -0.0295  0.0450
55603W        W56467  21.182  29.091  19.322  0.1126  0.0002 -0.1628
55604W        W56468  24.659   1.245  18.833 -0.0397  0.2253 -0.0996
55605W        W56469  19.345   2.156  13.426 -0.2367 -0.2726  0.0207
55606W        W56470  24.378   4.346  16.378  0.2668 -0.1359 -0.1567
55607W        W56471  21.688   3.124  18.981  0.0007  0.2252 -0.0311
55608W        W56472  24.103  27.287  14.207  0.0295 -0.0075  0.0902
55609W        W56473  24.179   0.573  14.116  0.2434  0.0540  0.0469
55610W        W56474  22.161   0.020  17.275  0.1017 -0.1864 -0.1623
55611W        W56475  21.766   3.422  16.699 -0.2263 -0.1778 -0.2848
55612W        W56476  22.862   0.812  16.209  0.1522  0.1246 -0.1284
55613W        W56477  25.862   1.070  15.368  0.1507  0.1502 -0.0046
55614W        W56478  26.809   3.779  17.234  0.1815  0.0380  0.1585
55615W        W56479  25.145   2.266  15.718 -0.2058 -0.0090  0.1352
55616W        W56480  22.570   1.094  16.536 -0.1074  0.0086 -0.0473
55617W        W56481  23.059  27.676  14.434  0.0649  0.1489  0.0247
55618W        W56482  21.579   3.328  16.187  0.1452  0.0824 -0.2137
55619W        W56483  23.996   2.490  18.949  0.0354 -0.3883 -0.2440
55620W        W56484  23.755  28.508  19.637  0.2861 -0.0844 -0.1583
55621W        W56485  21.662   1.580  16.115 -0.0107 -0.1201  0.1638
55622W        W56486  21.548  27.912  14.851 -0.0286  0.2478 -0.2972
55623W        W56487  27.219  29.000  17.936 -0.0655 -0.0488  0.0033
55624W        W56488  23.165   1.892  19.659 -0.0244 -0.2426 -0.2007
55625W        W56489  22.819  28.475  16.053 -0.2224  0.0675 -0.0259
55626W        W56490  23.656   1.906  15.880  0.3350  0.2647 -0.1066
55627W        W56491  23.438   4.505  19.017  0.3546  0.4023 -0.0939
55628W        W56492  25.013  28.621  13.097 -0.0921 -0.0875  0.2817
55629W        W56493  23.169   1.586  15.570 -0.2974  0.1456 -0.0284
55630W        W56494  24.476   3.405  15.347  0.2852  0.1447  0.1805
55631W        W56495  22.240   0.581  18.022  0.0491 -0.1069  0.2620
55632W        W56496  21.138   1.739  15.440 -0.0473 -0.0136  0.2015
55633W        W56497  25.622   1.906  15.821 -0.0668 -0.1989  0.1382
55634W        W56498  25.748   2.858  15.854  0.0982  0.1866  0.0254
55635W        W56499  23.380   0.800  17.457  0.3823 -0.2104  0.1990
55636W        W56500  22.179   2.796  16.047  0.1460  0.0224 -0.1443
55637W        W56501  22.914   1.352  20.523 -0.0294 -0.1523  0.2383
55638W        W56502  23.372   2.180  17.393  0.3723  0.1639 -0.1429
55639W        W56503  23.391   6.471  18.157  0.0528 -0.0417 -0.1684
55640W        W56504  23.892   0.198  16.946 -0.3467 -0.1787  0.1253
55641W        W56505  23.908   3.834  16.605 -0.0626 -0.0758  0.1177
55642W        W56506  24.168   2.912  18.444 -0.1928  0.0978 -0.1082
55643W        W56507  20.672   0.550  15.145  0.1448 -0.0140 -0.0569
55644W        W56508  21.143  28.986  15.479 -0.0690 -0.2068  0.1218
55645W        W56509  24.842  28.988  16.045  0.0202 -0.0120  0.2558
55646W        W56510  23.879   4.696  18.813  0.2564 -0.1545  0.2410
55647W        W56511  23.104   0.158  16.861  0.4451 -0.1328  0.1065
55648W        W56512  24.360   3.215  15.974  0.0061  0.0788  0.0881
55649W        W56513  20.830   3.672  18.575  0.0482 -0.4089 -0.0140
55650W        W56514  23.080   2.557  17.237  0.2553 -0.0771  0.1323
55651W        W56515  28.694   3.742  19.580  0.1512  0.0737  0.0515
55652W        W56516  23.484  29.117  17.141  0.1850  0.3614  0.0273
55653W        W56517  20.038   1.744  19.906  0.1036 -0.0469 -0.1004
55654W        W56518  24.785   1.885  16.551 -0.0844  0.0248  0.3555
55655W        W56519  23.159   2.493  16.056 -0.1995  0.0450  0.0516
55656W        W56520  23.011   3.224  17.613 -0.3458  0.2857 -0.0269
55657W        W56521  21.786   0.579  16.469  0.0617  0.3451 -0.1005
55658W        W56522  23.938   2.656  15.236 -0.2377 -0.2234 -0.1422
55659W        W56523  24.326   6.613  18.834  0.3331 -0.2097 -0.2407
55660W        W56524  24.357   1.507  15.709 -0.0813 -0.2323  0.0490
55661W        W56525  24.077   0.975  12.744  0.1292  0.2655 -0.3136
55662W        W56526  21.408   4.384  21.556  0.1731 -0.3565 -0.3683
55663W        W56527  22.840   2.002  18.652 -0.1075  0.2549  0.1423
55664W        W56528  25.662   1.973  18.160  0.0423  0.3620  0.1613
55665W        W56529  23.961   1.451  17.221  0.3202 -0.0302 -0.1564
55666W        W56530  22.167   3.564  20.494 -0.1022 -0.0738 -0.0330
55667W        W56531  23.004   1.741  21.957 -0.0736  0.0178  0.0356
55668W        W56532  23.019   1.299  18.634 -0.0966  0.1130 -0.0174
55669W        W56533  24.576   4.759  16.722 -0.1215 -0.0259 -0.0775
55670W        W56534  21.289   3.469  20.319 -0.1048  0.3317 -0.0278
55671W        W56535  21.820   2.173  21.152 -0.2728 -0.2438 -0.0817
55672W        W56536  19.892  28.519  20.842 -0.1137 -0.0112 -0.2071
55673W        W56537  21.779   2.758  23.117  0.1571 -0.1293  0.1552
55674W        W56538  24.236  28.439  19.735 -0.0529 -0.0497  0.2197
55675W        W56539  24.853   1.630  22.970 -0.2951  0.2281  0.3108
55676W        W56540  23.521   2.147  21.814  0.0704  0.1534  0.0115
55677W        W56541  24.099   5.024  22.705 -0.0519  0.0158 -0.1871
55678W        W56542  24.159   2.990  17.157 -0.0858  0.3872 -0.1818
55679W        W56543  21.367   0.378  20.245  0.1756  0.0056 -0.0601
55680W        W56544  24.928   0.345  22.069 -0.3057  0.0567 -0.2227
55681W        W56545  26.302   2.810  18.649 -0.0042 -0.0309  0.1961
55682W        W56546  23.108  28.127  20.503  0.2845  0.2468  0.2761
55683W        W56547  24.337   2.563  20.007 -0.0213  0.0075  0.1051
55684W        W56548  25.432   4.263  19.944 -0.0908  0.2585 -0.0986
55685W        W56549  20.623   1.548  20.353 -0.0185  0.0749  0.0015
55686W        W56550  21.443   4.503  17.788  0.2209 -0.2577 -0.0471
55687W        W56551  21.942   0.149  20.411  0.0675  0.0786 -0.2614
55688W        W56552  26.661   2.129  22.816 -0.0867  0.0417  0.0265
55689W        W56553  23.233   3.183  20.475 -0.1633 -0.2864  0.1019
55690W        W56554  21.592   0.771  21.161 -0.2620  0.3794 -0.0822
55691W        W56555  23.457   1.740  20.683  0.2256  0.0809  0.1309
55692W        W56556  23.004   3.814  21.123  0.2146 -0.5160  0.1267
55693W        W56557  20.920   0.834  22.317 -0.0845 -0.0054 -0.0847
55694W        W56558  23.780   2.048  22.262 -0.2614 -0.1533  0.0524
55695W        W56559  24.638   0.458  23.486 -0.1581 -0.0369  0.2543
55696W        W56560  16.150   0.803  20.188 -0.0263  0.0132 -0.0896
55697W        W56561  21.348   2.031  19.747 -0.0825 -0.2100  0.0012
55698W        W56562  21.052  27.915  19.124 -0.1652  0.0239  0.1568
55699W        W56563  22.323   1.758  19.624  0.0037 -0.0963 -0.0135
55700W        W56564  24.810  27.469  18.427 -0.1077 -0.0977  0.0491
55701W        W56565  22.725  27.262  20.982 -0.1742  0.0086 -0.1103
55702W        W56566  21.815   0.843  18.055  0.0458 -0.0645 -0.0500
55703W        W56567  26.142   1.233  19.894 -0.1086  0.0549 -0.3051
55704W        W56568  23.766   4.744  22.368  0.1286 -0.0821  0.0649
55705W        W56569  26.350   4.444  19.980  0.0262 -0.0683  0.2714
55706W        W56570  21.592   2.518  21.922 -0.0321  0.0498  0.2562
55707W        W56571  21.979   2.494  19.168  0.2194  0.1037 -0.2975
55708W        W56572  21.403  27.116  20.154 -0.5290 -0.0459 -0.1258
55709W        W56573  25.481   1.148  21.156  0.2116  0.2277 -0.0183
55710W        W56574  22.208   3.214  19.234 -0.1583 -0.1416 -0.5080
55711W        W56575  25.049   1.424  18.467  0.0418  0.1819 -0.1781
55712W        W56576  22.450   4.463  18.128  0.0124  0.0721  0.0632
55713W        W56577  23.573   2.271  19.458  0.0478 -0.3143  0.1596
55714W        W56578  23.398   2.552  20.950  0.1950  0.3060  0.0111
55715W        W56579  25.813   2.725  18.007 -0.2083 -0.0137  0.1827
55716W        W56580  23.973  26.375  18.993 -0.1798  0.0259 -0.0941
55717W        W56581  23.451   3.210  17.785 -0.0385  0.2839  0.2228
55718W        W56582  22.727   1.703  20.131  0.1440 -0.2277  0.1949
55719W        W56583  26.120   0.877  20.375  0.1874 -0.0305  0.1780
55720W        W56584  19.614   4.318  17.997 -0.2002  0.2905  0.0236
55721W        W56585  23.987   2.520  19.628  0.1038 -0.1526 -0.1460
55722W        W56586  24.686   4.332  18.928 -0.3485  0.0053  0.1923
55723W        W56587  22.719   3.237  20.651  0.2648 -0.2394 -0.1221
55724W        W56588  24.319   4.560  22.614 -0.0786 -0.0179  0.0502
55725W        W56589  23.433   2.989  15.972 -0.5325 -0.0171  0.2108
55726W        W56590  23.167   2.470  21.905 -0.0713  0.3034  0.2226
55727W        W56591  24.676  27.752  20.389  0.0075 -0.0848 -0.3913
55728W        W56592  23.522   1.613  22.147  0.0368  0.1183 -0.3162
55729W        W56593  21.025   3.966  19.266  0.1993  0.0686 -0.0665
55730W        W56594  23.672   4.053  15.134  0.1832  0.1467  0.0439
55731W        W56595  22.154   4.855  22.331 -0.0752 -0.1132  0.1836
55732W        W56596  25.990  28.980  14.437  0.1387 -0.3141  0.1997
55733W        W56597  24.688   1.354  20.056  0.2597  0.1158  0.0807
55734W        W56598  26.872   1.616  23.768 -0.0569  0.0818  0.2040
55735W        W56599  24.697   5.135  18.018 -0.1518 -0.3443  0.1718
55736W        W56600  26.300   2.602  21.439 -0.0146  0.0140 -0.2890
55737W        W56601  18.871   2.842  19.831 -0.4904  0.0195  0.2885
55738W        W56602  25.286   1.215  20.675  0.1116 -0.0910  0.2054
55739W        W56603  24.081   1.134  16.883  0.1104 -0.2252 -0.0295
55740W        W56604  26.410   0.552  18.277  0.1019  0.1640  0.2496
55741W        W56605  23.444   1.968  18.767 -0.1312 -0.0601 -0.1193
55742W        W56606  23.872  27.534  20.794 -0.2575 -0.1289 -0.1230
55743W        W56607  22.397   1.761  21.156  0.0830 -0.0651 -0.0712
55744W        W56608  23.133   1.278  22.152  0.2353 -0.0148 -0.1117
55745W        W56609  25.057  28.841  19.574  0.2959 -0.0809 -0.2858
55746W        W56610  26.041  27.668  20.509  0.0306  0.0314  0.0434
55747W        W56611  26.779   1.750  22.226  0.0943 -0.3084  0.2043
55748W        W56612  21.937   1.162  22.161  0.0890 -0.1521  0.0858
55749W        W56613  25.702   0.643  25.573  0.0594 -0.0553 -0.1231
55750W        W56614  25.011   2.134  22.937  0.1475  0.1193  0.0852
55751W        W56615  24.782   0.310  18.055  0.0978 -0.0072 -0.0365
55752W        W56616  24.014   1.288  24.470  0.3843 -0.2462  0.2201
55753W        W56617  21.185   2.859  20.306 -0.0689 -0.3416 -0.0388
55754W        W56618  23.445   0.449  17.917 -0.0598 -0.1393 -0.0700
55755W        W56619  21.796   0.522  22.964  0.2017 -0.0183  0.2582
55756W        W56620  23.979  28.386  18.035  0.0856 -0.0536 -0.3138
55757W        W56621  25.218   1.519  17.506 -0.5445  0.0847  0.2033
55758W        W56622  23.709   6.115  22.418  0.0600  0.2876  0.0668
55759W        W56623  21.069  28.481  18.123 -0.1129  0.1186  0.0810
55760W        W56624  23.667   1.186  19.374  0.0780  0.3106  0.0820
55761W        W56625  23.297   0.650  16.413 -0.2159 -0.1958 -0.0719
55762W        W56626  21.451   2.594  20.943 -0.3409  0.2280 -0.1223
55763W        W56627  23.905   0.632  17.858  0.0610  0.0725 -0.2774
55764W        W56628  25.361   1.456  19.355 -0.3797 -0.2097  0.1229
55765W        W56629  26.623   0.475  20.133 -0.1288  0.0629 -0.0826
55766W        W56630  23.871   3.677  24.190  0.1358 -0.3596 -0.0235
55767W        W56631  23.991   1.715  16.840  0.0826  0.0924 -0.0780
55768W        W56632  25.325   0.009  22.946  0.2805 -0.3535  0.0172
55769W        W56633  23.573   1.933  19.949  0.1922 -0.3675  0.0545
55770W        W56634  22.871   0.282  21.352 -0.3144  0.2156 -0.2643
55771W        W56635  20.027   3.324  21.164 -0.1285 -0.1662 -0.2707
55772W        W56636  24.965   2.383  19.950 -0.0774 -0.1507  0.1158
55773W        W56637  24.220   1.931  20.663  0.2525  0.1405  0.0750
55774W        W56638  23.426   3.342  19.824 -0.1522  0.1650  0.5933
55775W        W56639  26.482   2.538  18.300  0.0165 -0.0153  0.2757
55776W        W56640  22.224   3.776  19.958  0.0576  0.2836 -0.0344
55777W        W56641  27.304  29.001  19.871  0.0873 -0.1071 -0.0025
55778W        W56642  22.732   2.812  23.229 -0.1253 -0.1070 -0.1218
55779W        W56643  22.670   1.469  18.322  0.1794  0.0085 -0.1564
55780W        W56644  22.191   1.503  20.226 -0.2887  0.1273  0.1169
55781W        W56645  24.931   3.532  19.204 -0.3150  0.2280  0.2443
55782W        W56646  23.766   3.562  17.595  0.2933 -0.0077 -0.1363
55783W        W56647  26.254   5.401  17.731  0.2284  0.2974 -0.0850
55784W        W56648  22.306   1.951  18.914 -0.1902  0.2307  0.0217
55785W        W56649  22.575   2.206  17.021  0.1073  0.2908 -0.0591
55786W        W56650  24.280   0.970  17.387  0.1750  0.0662  0.3224
55787W        W56651  24.343   0.701  19.977  0.2092  0.2245  0.0676
55788W        W56652  23.036   2.903  20.811 -0.2283  0.2047 -0.1527
55789W        W56653  23.883   2.951  19.930  0.1903 -0.1937 -0.2965
55790W        W56654  20.233   0.514  21.590  0.0589  0.1423 -0.0022
55791W        W56655  25.980   4.682  18.615 -0.2754 -0.1631  0.1332
55792W        W56656  23.315   1.006  18.960  0.0867 -0.0015 -0.1511
55793W        W56657  22.654   1.291  21.040  0.0759  0.0629  0.2264
55794W        W56658  25.354   1.591  17.978 -0.0357 -0.0960 -0.0539
55795W        W56659  23.382  29.035  19.671 -0.1444 -0.0563  0.2088
55796W        W56660  22.373   1.377  19.230  0.0575  0.1312 -0.1219
55797W        W56661  23.516  26.558  18.621 -0.1397 -0.0896  0.3333
55798W        W56662  26.739   2.681  19.358  0.1717 -0.0416  0.0221
55799W        W56663  21.775   3.822  17.072  0.2483 -0.1443  0.3543
55800W        W56664  21.881   5.951  21.595  0.1177 -0.0137  0.0218
55801W        W56665  20.193   0.096  22.731  0.0883  0.3911 -0.0445
55802W        W56666  24.803   0.712  19.550 -0.2191 -0.0975  0.0559
55803W        W56667  20.947   4.268  20.283 -0.2139 -0.1956 -0.0969
55804W        W56668  21.084   1.391  20.346  0.2155 -0.0728 -0.0518
55805W        W56669  26.139   4.394  18.222  0.1092 -0.0650  0.1909
55806W        W56670  22.349   3.235  21.036  0.2528  0.1278 -0.0428
55807W        W56671  26.903   1.915  20.487 -0.1756  0.1201 -0.1610
55808W        W56672  26.747   2.814  20.754 -0.4007  0.0712 -0.0459
55809W        W56673  22.638   2.640  21.852 -0.0311  0.1897  0.1579
55810W        W56674  25.119   2.237  21.107  0.0259  0.2142 -0.4005
55811W        W56675  27.207   2.215  20.119  0.3133 -0.1817 -0.2560
55812W        W56676  23.022  27.518  18.465  0.1752  0.0021 -0.0045
55813W        W56677  21.883   2.615  21.425  0.2621 -0.0650 -0.1783
55814W        W56678  22.772   1.516  19.528 -0.0166  0.1674  0.2083
55815W        W56679  23.360   3.186  19.359  0.1564  0.1555 -0.1876
55816W        W56680  26.711   4.487  20.825 -0.0233 -0.1317 -0.1618
55817W        W56681  20.180   0.844  22.219  0.0294 -0.1530  0.0253
55818W        W56682  22.378   1.666  16.501  0.0951  0.2744  0.0389
55819W        W56683  21.403   1.658  19.382  0.2667  0.3574 -0.0240
55820W        W56684  22.331  28.513  15.218 -0.1963  0.0667  0.1095
55821W        W56685  24.774  28.671  20.967 -0.0298 -0.2470  0.2184
55822W        W56686  24.434   0.045  20.180 -0.0510  0.2146  0.0009
55823W        W56687  25.540   1.145  23.763  0.2177  0.1198 -0.1445
55824W        W56688  24.299   4.999  23.709 -0.0333  0.1033  0.0292
55825W        W56689  25.013  28.619  22.494 -0.1417  0.4110 -0.1484
55826W        W56690  22.747  26.150  20.087 -0.2415  0.1466 -0.2142
55827W        W56691  22.575  27.961  19.275  0.1044  0.1813 -0.0249
55828W        W56692  22.279   3.834  18.763 -0.2223  0.0430 -0.1973
55829W        W56693  26.023   3.390  23.253  0.1128 -0.0518 -0.2353
55830W        W56694  20.927   3.441  19.056  0.2175  0.2157  0.0442
55831W        W56695  23.075   2.113  17.005  0.1030  0.2863 -0.0223
55832W        W56696  24.994   1.366  22.532 -0.1107  0.1612 -0.1562
55833W        W56697  24.519   1.598  21.548 -0.1137 -0.0027 -0.0561
55834W        W56698  24.886   3.730  17.111 -0.5553  0.0201 -0.2037
55835W        W56699  24.908  28.777  20.379 -0.4806 -0.0239  0.0113
55836W        W56700  25.439   1.063  18.414  0.0882  0.1386  0.0054
55837W        W56701  23.309   2.202  20.511 -0.0117 -0.2143 -0.1068
55838W        W56702  22.067   2.435  20.734  0.1546 -0.0360  0.6304
55839W        W56703  20.757   5.703  19.436  0.1960  0.1022 -0.0892
55840W        W56704  23.574  28.750  20.044  0.0788 -0.2938 -0.1326
55841W        W56705  21.307   3.332  21.495  0.3806 -0.0814  0.0375
55842W        W56706  24.992   0.370  20.833 -0.1408  0.0982  0.0713
55843W        W56707  21.087   2.899  17.838  0.2439 -0.0157  0.0696
55844W        W56708  24.910   1.367  16.389  0.2358  0.4999  0.1812
55845W        W56709  24.937  29.137  17.663 -0.0285  0.0334 -0.1331
55846W        W56710  25.640   1.712  23.827  0.3233  0.0421  0.1618
55847W        W56711  23.463  28.766  18.870  0.1183  0.0676  0.2434
55848W        W56712  22.231   0.672  20.497 -0.1104 -0.1998 -0.0449
55849W        W56713  24.410   2.290  19.203 -0.1089  0.0431 -0.1547
55850W        W56714  21.256   4.214  18.781  0.3576  0.2412  0.0367
55851W        W56715  22.075   1.695  22.106  0.3291 -0.0710  0.0823
55852W        W56716  22.367   3.647  19.359  0.1411  0.0765 -0.2599
55853W        W56717  23.802   2.915  21.327 -0.3900  0.0415  0.1227
55854W        W56718  23.010  28.984  21.177  0.0873  0.0243  0.0282
55855W        W56719  24.102   1.189  20.220  0.0203  0.0540  0.0475
55856W        W56720  21.866  27.769  19.831 -0.0002 -0.3537  0.0567
55857W        W56721  24.347  27.946  18.740 -0.4015 -0.0587 -0.1618
55858W        W56722  21.626  27.830  18.953  0.2726  0.0025 -0.3572
55859W        W56723  21.756   1.349  19.072  0.0042  0.1475 -0.0161
55860W        W56724  23.967  27.923  21.213  0.1786  0.1674 -0.0869
55861W        W56725  21.925   3.573  18.576 -0.1648  0.1576 -0.0055
55862W        W56726  25.097   1.121  19.690 -0.3332  0.0129  0.1931
55863W        W56727  25.896  29.145  18.618 -0.0401 -0.2641  0.3117
55864W        W56728  23.672   0.388  22.462  0.2987  0.1521 -0.0943
55865W        W56729  24.560  28.629  20.055 -0.0016 -0.2367  0.0387
55866W        W56730  24.972   2.594  18.952  0.3120  0.0092 -0.0761
55867W        W56731  24.926   1.536  20.557 -0.1531 -0.3635  0.2559
55868W        W56732  23.747   4.776  20.902  0.3627 -0.2366  0.0273
55869W        W56733  24.330   3.751  17.143 -0.2509  0.1097 -0.0377
55870W        W56734  20.475   1.893  19.691  0.1894  0.3508 -0.1240
55871W        W56735  23.069   2.618  23.565 -0.1729 -0.0883  0.1162
55872W        W56736  25.697   0.282  22.721 -0.0099 -0.0421  0.4244
55873W        W56737  24.424   0.450  22.987 -0.1330  0.1593 -0.4703
55874W        W56738  25.770   0.760  23.532 -0.1421 -0.3696  0.1953
55875W        W56739  25.110   1.772  20.942 -0.0223  0.0052 -0.2992
55876W        W56740  24.584   1.688  16.143  0.3131  0.0972 -0.2118
55877W        W56741  22.137   1.238  17.766  0.4686 -0.0633 -0.0273
55878W        W56742  24.720   0.675  21.712  0.0923 -0.0341  0.3288
55879W        W56743  24.153   5.665  21.927  0.1033 -0.0103  0.3031
55880W        W56744  25.975   2.005  21.421  0.2174 -0.1732  0.0422
55881W        W56745  24.144   2.076  20.097 -0.0451 -0.0829  0.1155
55882W        W56746  22.489   2.134  20.730  0.0180  0.1431  0.0059
55883W        W56747  22.369  26.662  19.447 -0.1088 -0.1074  0.0552
55884W        W56748  27.808   1.215  18.466  0.2239  0.2077  0.5233
55885W        W56749  22.359   0.943  20.088  0.0787 -0.0310 -0.2994
55886W        W56750  21.693   4.514  19.013  0.3967 -0.0861  0.0381
55887W        W56751  26.969   3.561  19.701  0.0284 -0.1036 -0.1278
55888W        W56752  26.889   4.476  16.401 -0.0450 -0.0585 -0.0093
55889W        W56753  25.338  28.433  19.339 -0.2887 -0.0739  0.3453
55890W        W56754  22.384   1.133  20.652 -0.2105 -0.2457 -0.4198
55891W        W56755  23.793   2.177  21.354 -0.0443 -0.2569 -0.0158
55892W        W56756  22.125  28.899  20.143 -0.0679  0.1164 -0.0250
55893W        W56757  24.864   3.896  18.861  0.1472  0.0982 -0.1636
55894W        W56758  23.354   0.830  22.301 -0.1240  0.0110 -0.2221
55895W        W56759  23.614   3.421  18.971  0.0435  0.3889  0.1445
55896W        W56760  25.287   0.718  19.963  0.1543 -0.1824  0.1680
55897W        W56761  23.746   0.339  20.458  0.0097 -0.1035  0.0186
55898W        W56762  23.702   0.692  23.736 -0.1920  0.0868  0.1214
55899W        W56763  22.816   2.036  21.115  0.1857  0.2643 -0.1329
55900W        W56764  23.443   2.737  19.619  0.1523 -0.0115 -0.0937
55901W        W56765  19.888   2.079  21.992 -0.2828 -0.1145  0.0161
55902W        W56766  24.837   1.837  19.980 -0.1627  0.0424  0.0246
55903W        W56767  23.279   2.752  18.458 -0.1238 -0.0933 -0.0987
55904W        W56768  25.387   2.244  18.671  0.1486 -0.2280  0.3228
55905W        W56769  21.641   2.073  16.810 -0.1510  0.0273 -0.0734
55906W        W56770  26.121   0.366  19.461 -0.3246  0.0183  0.2157
55907W        W56771  21.899   3.410  19.701 -0.0235 -0.1146 -0.1083
55908W        W56772  25.275   3.868  19.603 -0.3918 -0.1469 -0.1755
55909W        W56773  23.196  26.134  20.484 -0.1707  0.0176 -0.1832
55910W        W56774  22.799   2.972  22.153 -0.2297 -0.0535  0.0545
55911W        W56775  22.569   5.167  19.893  0.0812  0.0368 -0.2831
55912W        W56776  25.181   5.134  22.809  0.0689  0.2325  0.0879
55913W        W56777  23.367   2.885  20.081 -0.3361  0.0864  0.5255
55914W        W56778  23.162   1.074  19.497 -0.0900 -0.2382  0.1021
55915W        W56779  26.435   0.587  18.995  0.1676 -0.1532  0.1444
55916W        W56780  23.744  28.193  17.131 -0.1210  0.1206 -0.0760
55917W        W56781  23.597  28.278  23.258 -0.1329 -0.5499 -0.1591
55918W        W56782  25.393   2.573  20.065  0.3041 -0.0539  0.3444
55919W        W56783  27.541   1.286  20.971 -0.0954 -0.0392  0.1464
55920W        W56784  21.420   2.431  20.147 -0.0224 -0.0951 -0.1036
55921W        W56785  21.396   1.438  19.866  0.0255 -0.4263 -0.0747
55922W        W56786  25.307   0.888  17.666 -0.0489  0.0668 -0.0233
55923W        W56787  24.583  28.236  20.649  0.0044 -0.3531  0.1692
55924W        W56788  21.151   4.769  19.599 -0.3118  0.1401 -0.1682
55925W        W56789  23.539   3.360  21.581  0.1317 -0.1854  0.2951
55926W        W56790  22.438   4.312  18.660  0.1532  0.0118 -0.0665
55927W        W56791  25.228   3.050  18.975  0.2612 -0.0870  0.1053
55928W        W56792  22.497   2.293  18.603  0.4508 -0.4123  0.2977
55929W        W56793  27.144   0.300  17.737  0.2267 -0.1472  0.0951
55930W        W56794  23.247  28.883  18.251  0.1673 -0.3261 -0.0711
55931W        W56795  23.994   0.366  20.014  0.1298  0.4848 -0.2070
55932W        W56796  22.854  27.474  20.088 -0.0356 -0.0113 -0.0082
55933W        W56797  25.611   3.690  22.518 -0.1264  0.0662  0.0948
55934W        W56798  25.624   3.106  20.806 -0.0038  0.2751 -0.0668
55935W        W56799  25.586   3.531  21.401 -0.2490  0.2190  0.0313
55936W        W56800  21.524  28.441  21.467 -0.3637 -0.3997  0.1148
55937W        W56801  22.764   1.666  19.011  0.2838 -0.2432 -0.0141
55938W        W56802  24.085   0.661  16.842  0.1855  0.0473 -0.0396
55939W        W56803  20.783   3.048  19.403  0.4050 -0.0035  0.0915
55940W        W56804  22.736   2.221  22.086  0.0693 -0.0539 -0.1561
55941W        W56805  23.547   1.934  16.681 -0.1904  0.1836  0.2980
55942W        W56806  19.816   2.488  22.308  0.1024  0.1017  0.0002
55943W        W56807  23.903   3.738  21.537  0.0422  0.0642 -0.0263
55944W        W56808  24.406   1.714  19.746 -0.1167  0.2033 -0.1887
55945W        W56809  25.981   1.808  20.587  0.1484  0.3467 -0.3893
55946W        W56810  23.090   3.400  18.179  0.1369 -0.2037  0.0709
55947W        W56811  24.134   3.846  20.986 -0.1590 -0.0556  0.2305
55948W        W56812  22.294   0.673  16.475  0.1955  0.2924 -0.1654
55949W        W56813  21.701   4.065  17.952 -0.0940  0.2884 -0.2924
55950W        W56814  24.872   2.343  18.481 -0.1469 -0.2271 -0.3785
55951W        W56815  24.521   1.464  17.507 -0.0769  0.0553  0.0342
55952W        W56816  24.215   0.114  21.251 -0.4000  0.1515 -0.2026
55953W        W56817  21.554   1.478  20.517  0.0823 -0.0312  0.2863
55954W        W56818  22.696   3.100  18.032 -0.1914  0.3410 -0.0975
55955W        W56819  24.753   0.490  20.389 -0.0834 -0.1605  0.0769
55956W        W56820  22.452   2.445  17.870  0.0169  0.3545 -0.1263
55957W        W56821  25.395   1.256  18.890 -0.1388  0.3646 -0.2000
55958W        W56822  25.151   0.427  22.699  0.5028  0.0924  0.1345
55959W        W56823  21.925   2.169  23.507 -0.1765 -0.3835  0.1798
55960W        W56824  19.849   1.838  20.433 -0.0865  0.0742 -0.3115
55961W        W56825  23.120   0.332  21.883  0.0046 -0.2546  0.0268
55962W        W56826  22.982   3.412  21.425  0.3298 -0.0263  0.1000
55963W        W56827  28.010   2.398  16.718  0.1601  0.1732 -0.0332
55964W        W56828  24.277   3.673  20.509  0.1685  0.0791 -0.5167
55965W        W56829  25.877   3.273  18.767 -0.0516  0.3264  0.2197
55966W        W56830  25.070   0.324  21.577 -0.0029 -0.2717 -0.0974
55967W        W56831  25.771   0.707  19.661  0.3793  0.0060 -0.0573
55968W        W56832  23.816   2.042  19.142 -0.2609  0.0967  0.0670
55969W        W56833  21.044   1.792  20.619  0.2329  0.3920  0.0268
55970W        W56834  23.005   1.274  21.623  0.0941 -0.1313 -0.1096
55971W        W56835  25.143   2.145  21.636 -0.3791  0.0155 -0.1921
55972W        W56836  23.546   0.112  20.079 -0.0594  0.2449 -0.0287
55973W        W56837  25.449   2.677  17.676  0.1144 -0.0986 -0.0127
55974W        W56838  25.425   3.283  18.503  0.0572  0.0068  0.1353
55975W        W56839  23.375   2.072  21.022  0.0958  0.1784 -0.0653
55976W        W56840  25.666   2.867  19.605  0.0773  0.2719  0.4113
55977W        W56841  22.913   0.760  18.765 -0.0442  0.0842  0.2173
55978W        W56842  25.533   1.948  20.758  0.0647 -0.0416 -0.0577
55979W        W56843  22.885   3.837  21.641  0.0588 -0.1577 -0.0494
55980W        W56844  23.031   4.337  19.764 -0.2604  0.0544  0.2331
55981W        W56845  27.052   2.357  17.754  0.1412  0.1288 -0.3463
55982W        W56846  21.396   0.107  23.505  0.1648  0.1594 -0.2805
55983W        W56847  25.481   2.409  20.578 -0.3199  0.0068 -0.2297
55984W        W56848  17.454   0.854  20.739  0.0304 -0.1251 -0.2781
55985W        W56849  23.431   2.485  21.427  0.0436 -0.3242 -0.2796
55986W        W56850  22.698   0.991  19.608  0.0413  0.0347  0.0495
55987W        W56851  23.443   3.744  19.477  0.0307 -0.2156  0.0236
55988W        W56852  23.248   1.009  20.321 -0.1886  0.1128  0.4741
55989W        W56853  23.588   3.464  22.063 -0.3398  0.2565 -0.1354
55990W        W56854  24.909   1.583  19.538 -0.1537 -0.0707 -0.0882
55991W        W56855  24.712   2.022  20.766 -0.0036 -0.1431 -0.1842
55992W        W56856  23.839   5.662  23.368 -0.2042  0.4235 -0.1204
55993W        W56857  23.289   3.032  22.211 -0.0188 -0.4507  0.6181
55994W        W56858  26.033   0.543  18.626 -0.0447 -0.0442  0.3232
55995W        W56859  24.828   5.326  23.815 -0.2161  0.1652 -0.2776
55996W        W56860  23.156   4.532  22.220 -0.1076  0.2778  0.0522
55997W        W56861  24.975  28.583  17.841  0.1041 -0.0236 -0.3444
55998W        W56862  23.595   1.491  20.287 -0.0916  0.2713  0.1518
55999W        W56863  24.384   3.532  17.983  0.2735 -0.1920  0.3420
56000W        W56864  25.593   4.121  17.792 -0.0104  0.0369  0.1562
56001W        W56865  22.220   2.985  20.529 -0.0722  0.1071 -0.1731
56002W        W56866  24.453   1.750  20.281  0.0329 -0.0269 -0.0008
56003W        W56867  21.469   2.817  18.709  0.0030  0.3544  0.0065
56004W        W56868  24.487   2.175  19.677 -0.1085  0.0598 -0.0526
56005W        W56869  24.476   1.506  22.647  0.0797  0.0691 -0.1884
56006W        W56870  25.843   4.413  19.017  0.0877 -0.1165 -0.0424
56007W        W56871  22.778   5.618  18.390  0.0653 -0.2282  0.0008
56008W        W56872  21.124   3.915  18.093 -0.3248 -0.1726  0.0604
56009W        W56873  19.908  28.985  19.968  0.1783  0.3328 -0.0503
56010W        W56874  26.586   2.595  22.284 -0.1430 -0.1055  0.4370
56011W        W56875  23.781   0.919  19.778 -0.0435 -0.1132 -0.1859
56012W        W56876  25.650   3.273  17.800  0.2047  0.0033 -0.2466
56013W        W56877  25.383   2.540  19.231  0.1022 -0.0285 -0.2394
56014W        W56878  24.889   5.078  16.524  0.2424 -0.1234 -0.2173
56015W        W56879  23.407   1.616  16.197 -0.2637  0.0373  0.1943
56016W        W56880  23.155   3.356  20.978 -0.0749 -0.1496  0.0045
56017W        W56881  27.598   2.252  22.104 -0.0522  0.1125 -0.1581
56018W        W56882  20.956  26.332  19.703  0.1032  0.1140  0.3234
56019W        W56883  24.373  27.500  19.006 -0.3134  0.1682 -0.1947
56020W        W56884  22.527   1.118  18.716 -0.0645  0.1628 -0.0838
56021W        W56885  24.732   0.067  23.730 -0.0266  0.1414  0.0499
56022W        W56886  23.577   1.805  22.598  0.3369 -0.0720 -0.1309
56023W        W56887  22.619  26.906  20.112 -0.5787 -0.0248 -0.3202
56024W        W56888  24.943   2.077  18.919 -0.1836 -0.0541  0.0507
56025W        W56889  24.221   0.985  21.791  0.0956  0.2586  0.2049
56026W        W56890  24.066   1.995  21.844  0.1348  0.1279 -0.0558
56027W        W56891  20.861   3.805  19.965 -0.0816  0.2474 -0.2154
56028W        W56892  23.894  28.743  16.489 -0.0081 -0.0047  0.1414
56029W        W56893  25.416  28.777  18.733 -0.1523 -0.2752  0.0242
56030W        W56894  24.622  28.469  18.767  0.1783  0.0563  0.2042
56031W        W56895  25.625   1.156  17.950 -0.2180 -0.0397 -0.2323
56032W        W56896  21.343   0.908  15.636  0.1985 -0.3493  0.5410
56033W        W56897  24.530   2.894  20.811  0.1199 -0.0625 -0.0637
56034W        W56898  25.667   2.374  17.353 -0.0943 -0.0072 -0.0080
56035W        W56899  24.794  27.885  21.838 -0.1385 -0.1044 -0.3431
56036W        W56900  24.172   1.158  19.678 -0.0739 -0.0087 -0.0045
56037W        W56901  25.413   1.423  21.673  0.0483 -0.0548  0.1407
56038W        W56902  23.852   2.282  20.864 -0.2382  0.2842 -0.0840
56039W        W56903  23.547   2.925  21.829  0.1628 -0.1896  0.1047
56040W        W56904  24.760   2.131  18.055  0.3713  0.0188  0.2136
56041W        W56905  21.889   2.275  20.245  0.0822 -0.3209  0.0121
56042W        W56906  19.652   1.039  22.960  0.4057 -0.1912  0.0783
56043W        W56907  24.917   2.544  20.769 -0.0331 -0.1022  0.1153
56044W        W56908  24.613   3.815  20.983 -0.0193 -0.1753 -0.2009
56045W        W56909  23.188  28.018  19.444  0.1235 -0.2860  0.1788
56046W        W56910  25.795   2.807  19.091 -0.0011  0.1327 -0.1522
56047W        W56911  24.571   0.567  19.117 -0.0317  0.0041 -0.2370
56048W        W56912  23.679   2.849  18.744  0.2743  0.3435 -0.3754
56049W        W56913  27.980   2.308  22.502 -0.0390  0.3862  0.2598
56050W        W56914  24.238   1.122  22.336  0.0900  0.1010 -0.2566
56051W        W56915  22.614   3.016  20.187  0.2503  0.5467  0.1386
56052W        W56916  26.751   2.615  18.848  0.0134 -0.0173 -0.1497
56053W        W56917  25.894   1.086  18.766  0.0482 -0.1370  0.1133
56054W        W56918  23.556   3.606  18.059  0.1804 -0.0538  0.1881
56055W        W56919  23.168  25.584  21.979  0.3495 -0.0846 -0.3153
56056W        W56920  22.042   4.166  19.143 -0.0612  0.0150 -0.1660
56057W        W56921  22.986   0.874  20.770 -0.2836  0.1411 -0.4543
56058W        W56922  23.501   4.150  18.144  0.1797 -0.2064 -0.2126
56059W        W56923  19.961   1.247  19.212  0.0074  0.2365 -0.2741
56060W        W56924  21.475   3.062  23.447 -0.0966  0.4726 -0.0037
56061W        W56925  21.510   2.326  23.218  0.2648  0.0612  0.2508
56062W        W56926  26.368   1.823  22.585  0.0232 -0.2213  0.0043
56063W        W56927  23.796   3.468  25.991 -0.4045  0.0843  0.2620
56064W        W56928  24.210   2.956  20.384 -0.1342 -0.0413 -0.0751
56065W        W56929  24.789   3.852  22.395  0.0661  0.0839  0.2052
56066W        W56930  23.240   2.062  22.294  0.1266  0.1306 -0.0308
56067W        W56931  25.723   1.492  23.393  0.1372 -0.4065 -0.0046
56068W        W56932  22.532   4.087  25.307 -0.3386 -0.3678  0.3929
56069W        W56933  21.258   2.934  25.075 -0.0308  0.0477  0.1532
56070W        W56934  22.424   1.365  24.265  0.0562  0.1011 -0.1535
56071W        W56935  24.657   0.978  25.069  0.1371 -0.2306 -0.1124
56072W        W56936  25.052   0.873  25.353  0.1502  0.0983  0.0442
56073W        W56937  24.655  28.376  24.580 -0.1614 -0.1059 -0.0349
56074W        W56938  22.767   0.013  23.663 -0.0947  0.0026  0.0273
56075W        W56939  21.047   2.702  28.419 -0.1156  0.0335 -0.1309
56076W        W56940  24.404   1.511  22.074  0.1436  0.0749  0.4146
56077W        W56941  21.268  28.309  23.715  0.1441  0.0916  0.1445
56078W        W56942  24.005  28.620  21.453  0.0008  0.0010  0.0363
56079W        W56943  26.660   0.794  26.367  0.3377 -0.1439 -0.2707
56080W        W56944  26.091   3.763  27.619  0.1810 -0.0176  0.1900
56081W        W56945  23.788  28.452  23.750  0.2219  0.0600  0.0250
56082W        W56946  24.881   3.924  25.043 -0.1371 -0.1118 -0.1572
56083W        W56947  20.845  29.075  23.160  0.0937  0.0266  0.0483
56084W        W56948  24.415   3.133  25.588 -0.0955  0.1922 -0.2335
56085W        W56949  23.987   2.453  24.418 -0.0334 -0.1088 -0.0467
56086W        W56950  27.117   0.709  24.877 -0.0615 -0.2360  0.2208
56087W        W56951  24.395   2.842  23.568 -0.1068  0.3957  0.0982
56088W        W56952  23.792   2.338  23.912  0.0530 -0.1311  0.4006
56089W        W56953  23.219   0.307  23.735 -0.0302  0.0328  0.1619
56090W        W56954  24.125   1.339  21.156  0.0060 -0.3417 -0.1147
56091W        W56955  25.868   4.324  25.716 -0.0207  0.2618 -0.4950
56092W        W56956  23.538   5.254  25.526  0.1031  0.0375 -0.1268
56093W        W56957  26.281   3.059  24.642  0.0503  0.2440  0.0778
56094W        W56958  24.035   2.981  25.274  0.1853 -0.3015  0.1667
56095W        W56959  24.738   3.507  24.100 -0.0161 -0.0869 -0.1609
56096W        W56960  23.733   1.151  22.108  0.0014  0.2898  0.1738
56097W        W56961  23.670   1.643  24.091 -0.0258 -0.0606  0.1140
56098W        W56962  25.103   0.976  25.897  0.0642 -0.0699 -0.3351
56099W        W56963  27.539   0.804  23.482  0.0211 -0.0118  0.0696
56100W        W56964  27.138   2.131  23.083 -0.3109 -0.1016  0.1962
56101W        W56965  26.290   1.155  25.020  0.0077  0.0265  0.1360
56102W        W56966  20.958   5.441  23.735  0.0531 -0.0344  0.0339
56103W        W56967  23.530   1.343  21.190  0.1010  0.0968 -0.2537
56104W        W56968  21.074   3.258  24.282 -0.0336 -0.2924 -0.0806
56105W        W56969  21.817   4.557  24.575  0.0418  0.0641  0.2407
56106W        W56970  24.979   0.001  22.453  0.1530  0.0117  0.2418
56107W        W56971  27.875   4.645  24.984  0.3616  0.2179 -0.2618
56108W        W56972  25.615   2.324  21.590  0.2005  0.0388 -0.0489
56109W        W56973  26.287   3.457  22.203  0.0160  0.3717 -0.0548
56110W        W56974  27.152   3.866  23.715 -0.5515  0.2543 -0.1573
56111W        W56975  25.163  28.564  23.770  0.0238 -0.1006 -0.0454
56112W        W56976  21.537   5.909  22.930  0.1286  0.2720 -0.0341
56113W        W56977  25.198   2.613  24.908 -0.0305  0.3939  0.1378
56114W        W56978  25.155   1.519  23.764  0.0083  0.0427  0.0865
56115W        W56979  24.009   1.373  20.697 -0.2037 -0.2205  0.5458
56116W        W56980  21.695   0.597  20.632  0.0530 -0.2297  0.1370
56117W        W56981  25.485  29.091  24.632  0.3098  0.1479 -0.0537
56118W        W56982  23.967   4.287  25.322 -0.2867 -0.3892 -0.2134
56119W        W56983  25.871   5.506  20.989  0.1176  0.1240 -0.2494
56120W        W56984  24.989   1.475  21.365  0.2628 -0.2371 -0.2807
56121W        W56985  22.448   3.647  23.092 -0.1097  0.1027 -0.2499
56122W        W56986  24.774   5.401  23.247 -0.2524 -0.1327  0.3709
56123W        W56987  23.484   1.308  21.670  0.0599 -0.0493  0.0086
56124W        W56988  22.612  29.138  25.118 -0.0648  0.1285 -0.0707
56125W        W56989  27.707  27.273  26.354 -0.2315 -0.1425 -0.4556
56126W        W56990  25.248   0.669  21.908 -0.0915  0.1586 -0.2076
56127W        W56991  24.436  28.337  21.614  0.0602 -0.0105 -0.0560
56128W        W56992  20.040   2.216  21.337 -0.1106 -0.0251  0.0412
56129W        W56993  26.916   2.524  25.526  0.2891  0.2784 -0.0277
56130W        W56994  25.203   4.020  22.469  0.0688  0.0869 -0.0203
56131W        W56995  22.619  27.378  22.680 -0.1043  0.2390 -0.0647
56132W        W56996  25.677   4.121  22.191  0.2086 -0.1498 -0.0532
56133W        W56997  28.309   0.947  27.257  0.1367  0.1547 -0.1004
56134W        W56998  24.571   4.520  23.676 -0.0774  0.0751  0.3723
56135W        W56999  24.816   5.395  26.108  0.3344  0.0793 -0.0468
56136W        W57000  23.890   0.707  22.149 -0.0875 -0.2930  0.0064
56137W        W57001  25.744   3.359  24.288 -0.0288 -0.0212  0.0241
56138W        W57002  23.362   0.789  22.836 -0.1584  0.3554 -0.0991
56139W        W57003  24.087  28.726  23.466  0.0625  0.1960 -0.0292
56140W        W57004  23.047  28.998  22.747  0.2816 -0.2102 -0.1342
56141W        W57005  25.103   0.337  24.586  0.0710  0.2510  0.4276
56142W        W57006  25.320   0.005  23.804  0.2001  0.2319  0.1486
56143W        W57007  22.988   0.253  25.397  0.2343 -0.2323  0.0002
56144W        W57008  26.964  28.718  27.129  0.1970 -0.1273  0.2778
56145W        W57009  27.489   2.148  25.121 -0.3339  0.3616  0.2239
56146W        W57010  23.417   0.876  26.794 -0.1572  0.0645  0.2799
56147W        W57011  26.101  29.078  24.893  0.0778 -0.1836  0.0156
56148W        W57012  25.914   4.494  24.480 -0.1063  0.0674  0.1546
56149W        W57013  25.338   0.395  25.154  0.1449  0.2809  0.1142
56150W        W57014  27.723   2.070  26.010  0.0464  0.1863  0.1451
56151W        W57015  25.200   4.019  24.713  0.0654 -0.1498 -0.2981
56152W        W57016  25.478   6.784  20.115  0.0974 -0.0521 -0.0469
56153W        W57017  24.630   2.049  21.928 -0.0233  0.0547 -0.3349
56154W        W57018  24.546   0.810  23.811  0.1095 -0.1473  0.0396
56155W        W57019  25.590  28.759  21.432 -0.0775 -0.0884 -0.1622
56156W        W57020  27.671   1.824  21.745 -0.0823 -0.1881  0.3238
56157W        W57021  23.316   4.898  25.818  0.0140  0.0910 -0.1023
56158W        W57022  26.111   1.161  22.463  0.0887  0.0878 -0.0937
56159W        W57023  28.440  27.693  24.114 -0.0116  0.0620 -0.1994
56160W        W57024  25.004   3.714  20.713  0.0648  0.0361 -0.4774
56161W        W57025  24.167   1.141  23.493 -0.2606 -0.1691 -0.0686
56162W        W57026  25.662   2.526  23.441 -0.2928  0.2299  0.0724
56163W        W57027  26.578   4.594  25.107 -0.2117 -0.1100  0.2708
56164W        W57028  28.637  26.132  25.593  0.1567 -0.0993  0.0625
56165W        W57029  25.255   3.036  24.670 -0.1308 -0.3626 -0.1408
56166W        W57030  24.962   3.008  21.849 -0.2754  0.2215  0.1660
56167W        W57031  25.601   4.266  24.926  0.1782 -0.1434  0.0940
56168W        W57032  23.335  27.937  19.975 -0.0666  0.0225  0.1398
56169W        W57033  23.242   0.933  23.749 -0.0704  0.1695  0.0282
56170W        W57034  20.744  28.899  24.661  0.0076  0.0420 -0.2924
56171W        W57035  25.578   3.828  24.366 -0.1548  0.0902  0.0843
56172W        W57036  25.784   3.648  23.893 -0.1199  0.0329 -0.2073
56173W        W57037  23.011   7.293  25.042  0.0067 -0.0509 -0.2356
56174W        W57038  25.304   1.881  24.229 -0.1040 -0.0495 -0.1067
56175W        W57039  24.528   0.453  20.948  0.1054  0.0089 -0.1112
56176W        W57040  26.377  29.097  23.249  0.4520 -0.2348  0.2031
56177W        W57041  26.752   3.461  24.337 -0.2871  0.0904  0.1691
56178W        W57042  25.409  28.954  22.364 -0.0700  0.0325 -0.0867
56179W        W57043  25.561   2.630  22.937 -0.0842 -0.1205 -0.0175
56180W        W57044  26.729   0.790  22.521 -0.0266 -0.3540  0.0703
56181W        W57045  27.163   2.224  21.413  0.0422 -0.0442  0.2428
56182W        W57046  28.893   2.025  24.723  0.0571  0.0189 -0.1338
56183W        W57047  25.921   3.315  20.117 -0.1546  0.1928 -0.1117
56184W        W57048  24.946  28.789  24.601  0.1826  0.0666 -0.0175
56185W        W57049  24.816  27.772  22.355 -0.0168 -0.1471 -0.3276
56186W        W57050  22.582   1.734  22.825  0.2274 -0.1147  0.0036
56187W        W57051  25.756   1.245  27.400  0.0810  0.2635  0.0587
56188W        W57052  25.375   3.417  25.921  0.0320  0.0551  0.3493
56189W        W57053  25.457  28.821  24.147 -0.0210 -0.3808  0.2765
56190W        W57054  24.501   1.964  22.892 -0.0273  0.0135 -0.2157
56191W        W57055  26.528   2.599  24.668 -0.0401  0.0534 -0.2686
56192W        W57056  23.434   0.555  24.144 -0.1547  0.0709 -0.1772
56193W        W57057  25.241  27.735  24.237  0.1143  0.2251  0.0221
56194W        W57058  27.892   1.348  24.777  0.0759 -0.0675  0.0366
56195W        W57059  24.580   0.248  24.207  0.1632  0.2982 -0.0142
56196W        W57060  26.225   1.879  23.078 -0.0513  0.2643  0.1165
56197W        W57061  26.871   0.005  24.956  0.2097  0.1677  0.0680
56198W        W57062  25.250   1.050  22.808 -0.1164 -0.0252 -0.0101
56199W        W57063  22.893   5.073  22.981 -0.1773  0.0500  0.2446
56200W        W57064  21.776   0.687  22.143 -0.0736  0.2213 -0.2106
56201W        W57065  24.312   0.557  25.194  0.0198  0.0595  0.1640
56202W        W57066  24.584   3.385  22.147 -0.1696  0.2474 -0.3683
56203W        W57067  24.173   0.072  23.660 -0.0117 -0.2792  0.1860
56204W        W57068  23.336   4.242  24.913 -0.2455 -0.1418  0.2350
56205W        W57069  24.638  28.051  23.264 -0.0521  0.1330 -0.0325
56206W        W57070  26.232  27.982  25.384 -0.1521 -0.2201  0.0334
56207W        W57071  24.280   3.507  24.447 -0.2456 -0.2051  0.1274
56208W        W57072  25.840   4.132  24.104  0.0359 -0.0520  0.1617
56209W        W57073  24.696   3.162  22.695 -0.2766  0.1643  0.0014
56210W        W57074  24.879   4.453  24.260  0.1537 -0.6353 -0.0625
56211W        W57075  23.680   1.250  23.703 -0.1194  0.0789 -0.0874
56212W        W57076  26.491   3.272  23.451  0.2159 -0.0568 -0.2896
56213W        W57077  23.845   0.867  21.419  0.0495  0.0767 -0.0429
56214W        W57078  25.078   0.749  24.877  0.2950 -0.0661  0.1263
56215W        W57079  25.116  28.928  23.421  0.2463 -0.2614 -0.0105
56216W        W57080  21.721   2.541  24.252  0.0879  0.0275 -0.2241
56217W        W57081  24.001  28.949  22.398  0.0302 -0.0040 -0.1002
56218W        W57082  24.105   0.246  22.161  0.1862  0.0052  0.1282
56219W        W57083  25.010   0.768  23.575  0.2692  0.2526  0.2003
56220W        W57084  29.055  28.639  23.896 -0.1122 -0.2701  0.1023
56221W        W57085  21.307   1.887  25.271  0.0584 -0.0135  0.1140
56222W        W57086  24.138   3.158  22.630 -0.0227  0.1580  0.4569
56223W        W57087  24.822   2.603  23.671 -0.0360 -0.1347  0.0471
56224W        W57088  24.824   1.499  26.071  0.1275  0.1910 -0.0816
56225W        W57089  24.417   2.222  24.587  0.1355 -0.0488 -0.1437
56226W        W57090  21.900  29.034  23.933 -0.1226 -0.1551 -0.2566
56227W        W57091  23.837   4.607  24.380  0.2619 -0.0579  0.3412
56228W        W57092  22.693   6.315  23.453 -0.0223 -0.1651  0.0575
56229W        W57093  19.912   0.495  23.978 -0.1077  0.1501  0.0885
56230W        W57094  26.015  28.539  22.281 -0.1576 -0.3042  0.1089
56231W        W57095  27.144   2.520  25.086 -0.1488 -0.1668  0.2679
56232W        W57096  27.141   2.419  26.117  0.0092  0.0558 -0.1405
56233W        W57097  23.868   1.881  23.603  0.0588  0.0468 -0.0737
56234W        W57098  25.924  28.673  24.471 -0.0886 -0.0515  0.2295
56235W        W57099  25.168   0.852  24.385  0.1333 -0.0200  0.4174
56236W        W57100  20.151   3.847  23.277  0.0909 -0.1243  0.2696
56237W        W57101  23.189   3.175  24.218  0.0708  0.3553 -0.1553
56238W        W57102  25.533   2.022  20.175  0.0870  0.1785  0.3752
56239W        W57103  24.202   0.877  24.703 -0.2531  0.2932  0.1573
56240W        W57104  23.874   3.867  22.029 -0.1307  0.1112 -0.0058
56241W        W57105  25.165   3.079  25.611 -0.1775  0.3594 -0.1404
56242W        W57106  24.055   0.510  21.687 -0.0934  0.0430 -0.0544
56243W        W57107  23.197   2.958  23.228 -0.0158 -0.1098  0.1307
56244W        W57108  24.919   0.475  23.929  0.3552  0.0310  0.0514
56245W        W57109  24.472   2.460  27.817  0.1595 -0.1634 -0.2267
56246W        W57110  25.041  28.439  23.298 -0.2426 -0.0614  0.0542
56247W        W57111  24.141  27.837  23.490  0.0239  0.1650 -0.0600
56248W        W57112  23.612   2.140  25.907 -0.5098  0.1203  0.0756
56249W        W57113  22.921   7.060  22.428 -0.1695 -0.0229 -0.2253
56250W        W57114  24.287   3.905  22.354 -0.0365 -0.0394 -0.2862
56251W        W57115  21.197   2.128  22.856  0.0022 -0.2587 -0.0120
56252W        W57116  23.002   0.348  24.264 -0.3390  0.1328 -0.0110
56253W        W57117  23.968   0.997  26.951 -0.3851 -0.4368  0.1926
56254W        W57118  23.588   1.126  24.235  0.2982  0.1434  0.2929
56255W        W57119  26.720   1.296  22.495  0.0682 -0.1797  0.0628
56256W        W57120  24.496   0.077  25.129  0.0499 -0.1599 -0.1302
56257W        W57121  25.130  28.522  21.430  0.0967 -0.2204 -0.2151
56258W        W57122  24.184   0.665  22.574 -0.1055 -0.0679 -0.3627
56259W        W57123  27.430  26.232  21.676 -0.0989 -0.3138 -0.4517
56260W        W57124  20.951  28.716  19.714 -0.0150 -0.0583 -0.1408
56261W        W57125  24.972  28.956  24.099  0.0437  0.2349 -0.2567
56262W        W57126  27.241   1.876  23.476  0.1278  0.1665  0.0690
56263W        W57127  24.432  28.970  25.756 -0.2148 -0.1707 -0.2540
56264W        W57128  24.390   2.625  25.382 -0.0496  0.1637 -0.0986
56265W        W57129  20.998   0.301  22.321  0.1696 -0.0321 -0.3140
56266W        W57130  24.741   4.042  23.874 -0.0887 -0.1934 -0.0104
56267W        W57131  26.318   2.134  24.648  0.1101 -0.0511 -0.2854
56268W        W57132  19.722   1.571  23.397 -0.0444  0.0494  0.3492
56269W        W57133  20.925   1.856  19.428 -0.3138 -0.0725  0.0599
56270W        W57134  22.684   1.878  24.604  0.4297 -0.0939 -0.2151
56271W        W57135  24.374   1.410  23.136 -0.1633 -0.0209 -0.0570
56272W        W57136  24.162   2.441  22.129  0.0871  0.0945 -0.0038
56273W        W57137  27.606   3.039  26.863  0.2403 -0.2666 -0.0408
56274W        W57138  26.782  28.954  22.885 -0.1912  0.0183 -0.2648
56275W        W57139  26.645   3.285  20.837 -0.0428  0.0256 -0.1386
56276W        W57140  24.055  28.046  21.673  0.0601  0.1170 -0.0517
56277W        W57141  23.467   3.746  21.227 -0.0511 -0.0939  0.0519
56278W        W57142  23.467   1.583  24.600  0.2081  0.2472 -0.2808
56279W        W57143  23.837   4.632  23.856 -0.1898  0.0556 -0.1393
56280W        W57144  26.599  28.132  26.028 -0.4013 -0.1237 -0.0969
56281W        W57145  25.192   0.815  26.587  0.1429 -0.1211 -0.1078
56282W        W57146  22.580   5.361  24.751  0.1502  0.2096  0.0884
56283W        W57147  25.587   1.869  21.782  0.3401 -0.2372  0.0526
56284W        W57148  28.394   2.025  19.861  0.3963 -0.1576 -0.1708
56285W        W57149  21.956   1.124  24.239  0.1006  0.1219  0.1938
56286W        W57150  23.408   5.512  23.503 -0.1630 -0.1195 -0.0080
56287W        W57151  26.944   3.268  25.883 -0.1403 -0.0635  0.0130
56288W        W57152  24.719   2.533  21.292 -0.0174 -0.2138 -0.0087
56289W        W57153  26.493   2.076  27.752  0.2978  0.1261 -0.1782
56290W        W57154  22.929   1.475  24.492 -0.3674 -0.0707 -0.0680
56291W        W57155  26.561   2.934  25.664 -0.0989 -0.2434 -0.0908
56292W        W57156  24.017   1.815  22.877  0.0476  0.2720  0.2100
56293W        W57157  24.835   4.044  22.922 -0.2789  0.3286 -0.0148
56294W        W57158  25.060   2.965  24.160  0.1950 -0.0162 -0.2339
56295W        W57159  20.931   4.702  23.169  0.2129  0.0568  0.1810
56296W        W57160  26.550   2.097  25.360 -0.3828 -0.2198  0.0463
56297W        W57161  26.326  28.759  22.770  0.2541  0.1395 -0.0137
56298W        W57162  25.284   3.501  25.445  0.2224 -0.0250 -0.0710
56299W        W57163  27.326   3.078  24.828  0.2296  0.0235  0.0663
56300W        W57164  21.193   1.783  23.430 -0.0539 -0.1241  0.0957
56301W        W57165  21.612   3.686  25.027 -0.0003 -0.0988 -0.0694
56302W        W57166  22.211  28.453  26.053 -0.1116  0.2254 -0.2062
56303W        W57167  22.616   0.743  22.941  0.3324  0.2451 -0.2290
56304W        W57168  26.978  28.442  24.712 -0.2378 -0.1113 -0.0165
56305W        W57169  24.588   3.292  21.681  0.0494  0.1411  0.1751
56306W        W57170  26.351   2.569  25.406 -0.1246  0.2012  0.0118
56307W        W57171  22.225   3.634  23.576  0.0178 -0.0012 -0.0343
56308W        W57172  24.422   3.584  22.699  0.4363  0.1479  0.1467
56309W        W57173  21.621  28.290  22.823  0.0873  0.0386 -0.0136
56310W        W57174  25.155   2.532  23.232  0.0076 -0.1909  0.2401
56311W        W57175  24.905   4.690  21.999  0.1416 -0.0039 -0.2313
56312W        W57176  24.959   2.871  27.086  0.0589  0.1538  0.0584
56313W        W57177  25.436   0.630  23.106  0.0243  0.1977  0.1824
56314W        W57178  19.875   1.495  22.937 -0.0324 -0.1164  0.1631
56315W        W57179  26.037   3.110  23.743  0.1677  0.5824  0.0948
56316W        W57180  26.001   1.881  22.244  0.2537 -0.1626  0.4349
56317W        W57181  20.135  27.017  26.297 -0.0909  0.0142 -0.0992
56318W        W57182  25.485   3.157  23.881  0.2310 -0.3188  0.0353
56319W        W57183  27.007  27.718  24.006 -0.1921  0.0998 -0.2134
56320W        W57184  22.552   2.580  22.352 -0.0842  0.0084  0.1928
56321W        W57185  22.759   0.569  23.777 -0.0351  0.0498  0.1719
56322W        W57186  22.982   3.378  25.812  0.1260 -0.2211 -0.0242
56323W        W57187  25.423   1.126  24.744  0.1961  0.0491  0.1955
56324W        W57188  20.759   2.534  22.785  0.1831  0.0611  0.1820
56325W        W57189  21.226   6.186  25.282 -0.0012 -0.1341 -0.1932
56326W        W57190  22.055   1.412  20.834  0.1706 -0.0561 -0.0725
56327W        W57191  26.072   3.846  22.484 -0.2045 -0.0347 -0.2621
56328W        W57192  25.848   2.770  25.238  0.2950 -0.0053  0.1127
56329W        W57193  25.320   2.174  23.711 -0.0008  0.1967  0.3628
56330W        W57194  25.703   3.896  20.985 -0.1890 -0.0229  0.1600
56331W        W57195  22.925   1.001  26.359  0.1842  0.3336 -0.1842
56332W        W57196  22.171   1.419  23.821  0.1246  0.3165  0.1272
56333W        W57197  24.978   4.276  23.343 -0.3512 -0.0731  0.1624
56334W        W57198  22.370   6.210  23.106 -0.2349  0.0556 -0.1069
56335W        W57199  25.771   1.035  25.932 -0.0809  0.3739  0.3217
56336W        W57200  21.336   1.661  26.973 -0.1279  0.0214  0.4163
56337W        W57201  25.014   1.839  23.367  0.1219  0.0869 -0.1588
56338W        W57202  24.447   0.227  21.700  0.1595  0.1701  0.0812
56339W        W57203  21.198   2.659  23.531  0.0984  0.1152 -0.5761
56340W        W57204  24.915   2.373  25.436  0.0598 -0.0706  0.1922
56341W        W57205  23.567  28.178  21.308  0.1000 -0.0809  0.2298
56342W        W57206  23.143   1.978  22.852  0.3747  0.3208  0.2349
56343W        W57207  19.835   5.009  24.621  0.1638 -0.2195  0.0625
56344W        W57208  25.201   3.034  22.826  0.0502 -0.4292 -0.1979
56345W        W57209  24.201   0.658  25.700  0.0422  0.1092 -0.1959
56346W        W57210  26.310   4.272  21.750  0.2125 -0.1068 -0.3260
56347W        W57211  24.321   1.692  24.337 -0.2214  0.0680  0.1065
56348W        W57212  24.190   0.130  20.726  0.1134 -0.2817  0.1179
56349W        W57213  25.731   2.757  21.295 -0.0769 -0.3481  0.2646
56350W        W57214  25.684   2.659  24.754 -0.3775 -0.4835  0.0545
56351W        W57215  27.545   1.183  21.473  0.1873 -0.0040  0.1078
56352W        W57216  24.125   2.329  23.589 -0.0842  0.1280  0.1467
56353W        W57217  25.016   2.311  24.106  0.0356 -0.2839 -0.0037
56354W        W57218  25.183   3.351  23.225  0.2542 -0.0154  0.0858
56355W        W57219  26.119  29.069  23.641  0.1173  0.0896 -0.2785
56356W        W57220  24.680   0.538  24.725 -0.0200  0.1614 -0.3068
56357W        W57221  24.694   2.065  23.714 -0.1430 -0.4384  0.2357
56358W        W57222  28.111   0.157  24.312 -0.2154  0.2672  0.4822
56359W        W57223  22.901   3.220  24.741 -0.1254 -0.1612 -0.0954
56360W        W57224  24.513   1.249  24.241  0.0190  0.0852  0.0464
56361W        W57225  25.308   0.519  26.175  0.1320 -0.1593  0.1327
56362W        W57226  22.215   1.774  24.514  0.0502 -0.1020  0.0358
56363W        W57227  26.739   2.798  22.760  0.0242  0.0212  0.1793
56364W        W57228  25.426   1.369  24.235  0.0024  0.3115 -0.0555
56365W        W57229  24.708   5.324  22.694  0.0489  0.1241 -0.0391
56366W        W57230  25.581   3.383  22.932  0.0719 -0.0335  0.3267
56367W        W57231  24.788   1.160  22.979 -0.3422 -0.0936 -0.3603
56368W        W57232  27.299   2.850  25.877  0.2165 -0.0143  0.1186
56369W        W57233  21.353   1.786  24.037  0.0483 -0.0962  0.1583
56370W        W57234  26.188   0.088  22.684  0.0008 -0.0948 -0.1010
56371W        W57235  22.371   5.088  23.512 -0.1129  0.2258  0.0367
56372W        W57236  24.734   2.690  22.887  0.0112  0.1003 -0.0057
56373W        W57237  26.267   4.304  22.869  0.1069 -0.2699  0.0551
56374W        W57238  24.593   2.331  23.243  0.0803 -0.0507  0.0970
56375W        W57239  22.515   4.477  25.670 -0.3617  0.1996 -0.1145
56376W        W57240  26.716  28.582  22.524  0.2409  0.4225  0.1266
56377W        W57241  25.780   2.703  21.851 -0.0498  0.0507 -0.0428
56378W        W57242  23.689   3.286  23.955 -0.0886  0.1093 -0.1734
56379W        W57243  24.957  28.871  22.000 -0.0119  0.2165 -0.3595
56380W        W57244  26.636   4.641  23.129 -0.3255 -0.2829 -0.0179
56381W        W57245  25.842   4.172  19.705 -0.1856  0.0512 -0.0165
56382W        W57246  23.731   0.908  23.266  0.1974  0.2636  0.1420
56383W        W57247  26.328   3.524  23.870  0.0972  0.0065  0.0458
56384W        W57248  23.594   1.961  23.120  0.2492 -0.2785 -0.0499
56385W        W57249  22.215   2.394  23.833 -0.1090 -0.2028  0.0341
56386W        W57250  25.277  28.080  23.836  0.0942 -0.0540  0.1273
56387W        W57251  22.245   4.974  23.013  0.2128  0.0214  0.0419
56388W        W57252  22.833  28.845  21.584  0.1431 -0.1088  0.0121
56389W        W57253  21.339   3.846  22.895 -0.0699 -0.0466  0.3189
56390W        W57254  26.320  28.091  24.604  0.1627  0.0319  0.1976
56391W        W57255  26.523  29.148  19.400  0.0223  0.0202  0.0962
56392W        W57256  25.009   3.900  25.520  0.1635  0.3060 -0.2869
56393W        W57257  23.381   4.963  24.212 -0.1371 -0.2814 -0.1602
56394W        W57258  24.313   4.124  22.939 -0.3633 -0.0096  0.0079
56395W        W57259  23.925   3.916  25.696 -0.1597 -0.3445  0.0759
56396W        W57260  22.520   2.647  25.086 -0.0955 -0.0664 -0.0595
56397W        W57261  27.558   3.983  24.522 -0.2309  0.0289  0.1804
56398W        W57262  23.631   3.292  22.525 -0.0285  0.1170  0.0558
56399W        W57263  24.558  27.563  23.414 -0.3672  0.1089 -0.0129
56400W        W57264  24.988   3.220  23.704  0.3695  0.0933  0.2569
56401W        W57265  23.432  27.820  24.795 -0.1753  0.0477 -0.0140
56402W        W57266  26.521  26.708  24.958 -0.4500  0.0266  0.1026
56403W        W57267  24.790   3.758  21.822  0.0594  0.0624  0.2745
56404W        W57268  24.244   0.499  23.955  0.1966  0.0520  0.0882
56405W        W57269  23.079   5.320  22.481 -0.1095 -0.0359 -0.2439
56406W        W57270  26.430   3.195  22.954 -0.4194 -0.1837  0.0624
56407W        W57271  22.932  28.731  23.320 -0.1205  0.2394  0.0509
56408W        W57272  26.168   4.535  24.037 -0.2554 -0.0428  0.2674
56409W        W57273  22.522   2.842  23.771 -0.0767  0.2082  0.1239
56410W        W57274  26.697   1.821  24.824  0.1843 -0.0886 -0.0735
56411W        W57275  26.646   1.530  25.840 -0.0927  0.0674 -0.1626
56412W        W57276  25.357   4.345  24.237  0.0963  0.0177  0.1790
56413W        W57277  20.985   3.454  22.929 -0.0975  0.0520 -0.2650
56414W        W57278  24.259   3.285  24.924  0.0396 -0.0363  0.2084
56415W        W57279  25.965  27.389  21.559  0.1858  0.1753  0.1105
56416W        W57280  22.724   0.938  23.394 -0.0361  0.0106  0.0850
56417W        W57281  27.800   2.473  26.972 -0.1331 -0.1127 -0.1795
56418W        W57282  24.789   2.718  24.502  0.1302  0.3593  0.0781
56419W        W57283  23.858   0.018  21.557  0.0156 -0.0597 -0.1544
56420W        W57284  25.267   0.783  20.919  0.1819 -0.2579 -0.1185
56421W        W57285  24.437   3.764  24.851 -0.3779  0.2362 -0.3871
56422W        W57286  21.705   0.960  23.184  0.0719 -0.0168  0.2050
56423W        W57287  20.878  28.520  24.220 -0.0789  0.2558  0.2876
56424W        W57288  22.908   3.343  23.066 -0.2554  0.0403  0.0737
56425W        W57289  25.020   3.774  23.423  0.0867 -0.1074  0.1161
56426W        W57290  24.686   1.597  23.946 -0.2267  0.2781 -0.1132
56427W        W57291  25.480   2.009  23.051  0.0085 -0.3308  0.2546
56428W        W57292  23.073  28.241  21.959  0.0473 -0.3689 -0.4226
56429W        W57293  27.031  27.862  23.002  0.0496  0.1511 -0.0431
56430W        W57294  24.525   0.909  23.297 -0.0962  0.1311  0.0373
56431W        W57295  27.454  28.627  24.209 -0.3500 -0.1536  0.2337
56432W        W57296  26.268   2.757  21.910  0.2765  0.1285 -0.3090
56433W        W57297  23.876   5.090  24.071 -0.3726  0.1364  0.0157
56434W        W57298  23.553   2.289  22.626 -0.3113 -0.2945 -0.1284
56435W        W57299  24.116   1.155  25.150  0.0836 -0.0692 -0.0275
56436W        W57300  24.301   3.794  21.846 -0.0672 -0.2027 -0.1300
56437W        W57301  27.296   1.438  24.454 -0.2147  0.0468  0.0266
56438W        W57302  26.710  28.662  23.308  0.2959  0.0198 -0.5034
56439W        W57303  23.440   4.493  22.605 -0.0787 -0.0071 -0.3684
56440W        W57304  24.018   2.883  23.926  0.0225  0.0563 -0.2769
56441W        W57305  20.407   1.892  25.390 -0.2940 -0.0029  0.1305
56442W        W57306  26.451   0.089  24.502 -0.0633 -0.0700 -0.0786
56443W        W57307  26.637   2.520  26.933  0.0252  0.0693 -0.3212
56444W        W57308  24.313   1.865  25.032  0.0726 -0.1051 -0.0546
56445W        W57309  27.458   0.516  26.057  0.4713 -0.0182  0.2679
56446W        W57310  24.339   2.702  22.542  0.0836  0.0878  0.0368
56447W        W57311  21.726   2.805  26.291 -0.0775 -0.1264  0.1438
56448W        W57312  24.898   3.362  25.075  0.0079 -0.4118  0.2800
56449W        W57313  26.127   2.237  25.135 -0.1085  0.2273  0.0058
56450W        W57314  24.792   1.177  27.458 -0.1673 -0.0906  0.0671
56451W        W57315  23.407   3.578  24.522 -0.1150  0.1364 -0.0765
56452W        W57316  25.915   5.454  22.331 -0.1131  0.0097  0.0520
56453W        W57317  23.381   4.599  24.532  0.3024 -0.1282  0.0781
56454W        W57318  23.898   5.071  24.691 -0.0107 -0.0100  0.0127
56455W        W57319  24.187   2.040  24.018  0.3112  0.0746 -0.2574
56456W        W57320  25.910   1.098  25.416  0.0535 -0.2953 -0.2402
56457W        W57321  22.492   0.990  23.910 -0.4208 -0.2036  0.0014
56458W        W57322  25.157   4.062  21.982 -0.0269  0.1141  0.0808
56459W        W57323  23.439   1.262  20.710  0.2866  0.0465  0.1187
56460W        W57324  21.813   3.072  27.286 -0.2051  0.0586 -0.0099
56461W        W57325  23.646   0.876  27.330  0.0109 -0.2044 -0.2408
56462W        W57326  26.669   4.536  28.612 -0.0432  0.0031 -0.3095
56463W        W57327  27.086   3.101  28.624 -0.0265 -0.5154 -0.3117
56464W        W57328  23.292   3.940  25.806 -0.2604 -0.5699  0.1200
56465W        W57329  23.953   2.497  25.730 -0.1037  0.0259 -0.0798
56466W        W57330  23.721   3.333  25.047  0.1564  0.0367 -0.0761
56467W        W57331  25.587   2.161   1.063  0.1312  0.0350 -0.0121
56468W        W57332  22.815   0.866  27.746  0.0979  0.0251  0.1871
56469W        W57333  22.080   2.071  27.456  0.0035  0.1426  0.0278
56470W        W57334  22.889  27.686  28.389  0.0249  0.3388  0.1324
56471W        W57335  23.053  28.872  26.882  0.0548  0.1551 -0.1195
56472W        W57336  28.223   0.113  26.600 -0.1609  0.1236  0.0085
56473W        W57337  23.111   2.652  28.467  0.0351  0.0522 -0.0109
56474W        W57338  24.137   1.846  26.310  0.1313 -0.0426 -0.0182
56475W        W57339  20.027   2.302   2.287 -0.1419 -0.1219  0.2829
56476W        W57340  25.086   1.430  25.008  0.2538  0.1244  0.0720
56477W        W57341  23.975  28.328  26.357 -0.2390  0.2772  0.3557
56478W        W57342  23.874  27.081  27.022  0.1075 -0.0627  0.1042
56479W        W57343  24.369  28.238   0.220  0.2072 -0.3225  0.0531
56480W        W57344  27.182   4.241  28.699  0.0671 -0.2667  0.1008
56481W        W57345  26.020   0.076  27.481 -0.0414  0.0677  0.0112
56482W        W57346  26.959   2.100  26.899 -0.2380  0.0743  0.0282
56483W        W57347  24.494   1.528  26.444 -0.4073 -0.3874 -0.2106
56484W        W57348  24.322   0.587  26.340 -0.1097  0.0272  0.2000
56485W        W57349  23.004   1.791  27.913 -0.0680  0.0070  0.0193
56486W        W57350  26.290   0.525  28.096  0.0822  0.2413  0.1453
56487W        W57351  23.720   4.872   0.712  0.5383 -0.1424 -0.1490
56488W        W57352  22.828   4.229  29.141  0.4349 -0.1816  0.1488
56489W        W57353  25.078   1.746  27.380  0.0877 -0.2469 -0.1779
56490W        W57354  24.336   1.018  26.527  0.0233  0.3331  0.0190
56491W        W57355  23.572   3.231   1.632  0.0716  0.0568  0.0237
56492W        W57356  24.766   0.270  28.176 -0.1491 -0.2754  0.0566
56493W        W57357  26.136  28.410  28.557 -0.0261  0.0594 -0.0488
56494W        W57358  22.385  28.701  27.308  0.0479  0.0672  0.3365
56495W        W57359  25.619   2.195  28.291  0.1032 -0.2724 -0.1316
56496W        W57360  24.722   0.630  25.681  0.0457  0.0032 -0.1167
56497W        W57361  24.968   1.542  24.365  0.0475 -0.2935 -0.2088
56498W        W57362  24.587   2.462  28.383 -0.1689 -0.0207  0.0843
56499W        W57363  26.000   1.451   2.730  0.1776 -0.2191 -0.2491
56500W        W57364  26.179   0.340  25.636  0.0652 -0.0328 -0.0647
56501W        W57365  25.686   0.568  26.521 -0.1301 -0.3891  0.1342
56502W        W57366  23.213   2.558  27.411  0.3565 -0.1428  0.2005
56503W        W57367  25.119   4.337  25.166  0.2225  0.1429  0.2293
56504W        W57368  23.838   4.480  24.889 -0.0996  0.0504  0.0137
56505W        W57369  24.788   3.795  28.110 -0.1006 -0.1119  0.2377
56506W        W57370  22.563  29.022  28.730 -0.0094 -0.3126  0.2818
56507W        W57371  26.199  28.687   0.628  0.0872  0.1316  0.0082
56508W        W57372  26.732   3.243  27.197  0.0226  0.1277 -0.0569
56509W        W57373  24.670   3.149  24.599 -0.3193  0.0906 -0.2294
56510W        W57374  22.658   3.577   0.662  0.1005  0.1504  0.0561
56511W        W57375  23.111   0.055  26.360  0.1313  0.0313 -0.1537
56512W        W57376  24.449   3.580  25.336 -0.0999 -0.0414  0.1029
56513W        W57377  26.313   1.205  26.689  0.1287  0.0301  0.1094
56514W        W57378  22.593   0.031  25.623  0.0815  0.1004  0.0426
56515W        W57379  22.544   1.956  27.679  0.1885 -0.0059 -0.2801
56516W        W57380  23.462   2.520  25.624  0.1590  0.0961 -0.1771
56517W        W57381  26.417   0.017   0.267  0.1543  0.0372 -0.0128
56518W        W57382  23.112   3.315  26.691 -0.3195  0.0245  0.0258
56519W        W57383  25.024   2.806   0.278 -0.0553 -0.0784 -0.1033
56520W        W57384  25.392   1.198  26.249  0.0303 -0.0438  0.0235
56521W        W57385  23.459   3.905  24.125 -0.1179 -0.2181  0.3070
56522W        W57386  24.007   3.043   0.577 -0.2630  0.0380 -0.0794
56523W        W57387  22.048   2.045  28.843  0.1607  0.2569 -0.2257
56524W        W57388  24.809  28.195   0.426 -0.3131  0.2380 -0.1394
56525W        W57389  26.235  28.421  28.068 -0.3430 -0.3990  0.1238
56526W        W57390  23.572   3.002  25.417  0.1122  0.0402 -0.1094
56527W        W57391  25.605   1.520  25.695  0.0936  0.2457  0.3868
56528W        W57392  22.357   0.117  27.133 -0.0796  0.4037 -0.1944
56529W        W57393  24.138   1.171  25.738 -0.1098  0.2889 -0.0828
56530W        W57394  24.410   2.747   0.427 -0.0722 -0.0727 -0.0222
56531W        W57395  24.891   1.988  25.889  0.0142 -0.1222 -0.2941
56532W        W57396  26.329   3.415  26.931 -0.2029 -0.1710 -0.1122
56533W        W57397  26.874   1.695   1.510  0.0910 -0.0223 -0.0268
56534W        W57398  26.087   5.366  25.589 -0.0926 -0.0654 -0.0387
56535W        W57399  23.047   1.908  25.492  0.0328  0.0368 -0.0087
56536W        W57400  24.053   2.054  25.455  0.1504 -0.4553  0.1459
56537W        W57401  22.959   1.774  26.907  0.0850 -0.0153 -0.0346
56538W        W57402  26.686   0.100  28.022  0.0387  0.3108 -0.1563
56539W        W57403  24.904   3.646  26.814  0.3228  0.3006 -0.1189
56540W        W57404  24.792   2.158  28.788 -0.0268 -0.1915 -0.2581
56541W        W57405  24.620   1.346   0.944  0.0629 -0.2862 -0.4383
56542W        W57406  22.973  25.421  27.912 -0.0551  0.0401  0.1613
56543W        W57407  24.735   0.084  27.687  0.4490  0.0219  0.0743
56544W        W57408  23.941  26.983  27.602  0.2691  0.1451 -0.2579
56545W        W57409  24.886   2.903  26.299 -0.1023 -0.1307  0.2091
56546W        W57410  23.249   3.640  28.058  0.0715 -0.1452 -0.0388
56547W        W57411  22.150  27.310   0.569 -0.2497 -0.2038  0.0515
56548W        W57412  25.357   3.350  28.673  0.3795  0.1542  0.0494
56549W        W57413  26.634   0.329  26.665  0.1474  0.2076  0.1399
56550W        W57414  26.891   0.102  27.207 -0.0780 -0.0883  0.1266
56551W        W57415  25.455  29.136  28.346 -0.1827  0.0459  0.0021
56552W        W57416  23.873   6.758  24.018 -0.2711 -0.4062 -0.1228
56553W        W57417  25.949   0.976  27.950  0.0237 -0.0316 -0.1857
56554W        W57418  23.491  28.799   0.499  0.0036  0.0753  0.2898
56555W        W57419  27.221   0.665  27.277  0.2073  0.2095 -0.0639
56556W        W57420  27.276   1.931  27.529 -0.0905 -0.2171 -0.2063
56557W        W57421  24.243   2.663   1.710  0.0912  0.0315  0.1403
56558W        W57422  23.125  28.821  26.054  0.2019 -0.1314 -0.1418
56559W        W57423  27.941  28.531   0.002  0.2113 -0.0173  0.2039
56560W        W57424  22.000   5.578  26.379 -0.1580 -0.1170 -0.1337
56561W        W57425  19.830   3.685  26.093  0.0771 -0.1240 -0.0753
56562W        W57426  25.338   1.772  26.001  0.0369 -0.3919 -0.1425
56563W        W57427  24.149   2.624  27.346  0.1258  0.0459 -0.0063
56564W        W57428  24.381  27.084  27.205  0.1619  0.2651 -0.1731
56565W        W57429  26.064   2.272   1.216 -0.0158  0.2826  0.0591
56566W        W57430  23.311   5.375  23.025 -0.2523 -0.1354  0.0030
56567W        W57431  25.168   0.455  27.892 -0.0966 -0.0195  0.2654
56568W        W57432  27.069   0.506  25.689 -0.1373  0.1196  0.0263
56569W        W57433  22.661   0.100  26.173  0.0692  0.1528  0.4595
56570W        W57434  21.478   3.076  26.771  0.0064 -0.0045 -0.2827
56571W        W57435  23.641   1.337  27.063 -0.1897  0.4126  0.1184
56572W        W57436  25.921  29.104  28.724  0.1391  0.0699 -0.0000
56573W        W57437  23.966   2.827   1.312 -0.0898  0.0107  0.1736
56574W        W57438  25.979   4.995  23.898 -0.2651 -0.2709 -0.2627
56575W        W57439  23.496   3.849  26.699 -0.3548  0.1492  0.1322
56576W        W57440  22.752  28.690  27.774  0.3588  0.0306  0.1732
56577W        W57441  21.732   1.678  28.266 -0.2756 -0.0791 -0.0570
56578W        W57442  22.331   0.873  24.908 -0.0209 -0.1660  0.2366
56579W        W57443  25.195   0.414  25.687 -0.0407 -0.2161  0.0237
56580W        W57444  26.893   0.089  25.918  0.1407  0.1929 -0.0297
56581W        W57445  24.181   4.248  24.591 -0.2220  0.1111 -0.0080
56582W        W57446  24.391   1.838  26.852 -0.2062  0.0687  0.2144
56583W        W57447  23.463   3.825  25.182  0.2653  0.1513 -0.3642
56584W        W57448  25.433   1.191  26.823  0.1447 -0.3754 -0.0140
56585W        W57449  25.828  28.455  27.413 -0.0324 -0.0918 -0.0629
56586W        W57450  24.395   0.430   0.386  0.3873  0.3380  0.2461
56587W        W57451  26.211   3.185  28.456 -0.0731  0.1096 -0.4918
56588W        W57452  24.271   3.718  27.904 -0.0637  0.4119 -0.4978
56589W        W57453  24.409   1.317  26.956 -0.0648  0.1646 -0.0679
56590W        W57454  23.966   2.524   0.330  0.2184 -0.0192  0.2088
56591W        W57455  25.772  28.503   0.342 -0.3624 -0.1377  0.0035
56592W        W57456  25.152  29.137  27.899 -0.1958 -0.3890  0.0280
56593W        W57457  25.985  27.378  27.681 -0.1619  0.3937  0.0986
56594W        W57458  27.446  27.590  27.528  0.1338  0.0858  0.1222
56595W        W57459  23.275   2.252  25.175  0.4128 -0.0330  0.1933
56596W        W57460  27.228   0.101  28.026 -0.0169 -0.0437 -0.1720
56597W        W57461  25.631   1.525  29.111  0.1077  0.3084 -0.2851
56598W        W57462  25.914   1.985  26.948  0.0095  0.2161 -0.0905
56599W        W57463  24.105   2.332  24.967  0.1616 -0.2024 -0.0286
56600W        W57464  22.737  29.057  27.380  0.0358 -0.3586 -0.1082
56601W        W57465  24.007  27.866  24.640  0.0430  0.3318  0.0283
56602W        W57466  23.907   5.057  26.619  0.1526  0.1805 -0.1524
56603W        W57467  23.059   0.160  27.108 -0.0562 -0.0379  0.1421
56604W        W57468  24.124   0.749  27.450 -0.0398  0.1238  0.0316
56605W        W57469  22.431   0.939  26.693  0.0399  0.0436 -0.1666
56606W        W57470   0.850   0.291  27.387 -0.1754  0.1502 -0.1111
56607W        W57471  24.877   1.961  26.894  0.0917  0.0942  0.1065
56608W        W57472  25.461   1.497  27.696  0.0484 -0.1309 -0.4529
56609W        W57473  26.000   2.723  26.499  0.1806  0.2174 -0.2752
56610W        W57474  26.762   3.606  27.749  0.0008 -0.1273 -0.2310
56611W        W57475  21.915  29.034  26.670 -0.4205  0.1788 -0.4512
56612W        W57476  23.850   2.104  26.686  0.0823  0.2271  0.0790
56613W        W57477  23.141   3.282  25.202  0.3181 -0.0707 -0.0625
56614W        W57478  24.414   1.613  28.248  0.1948  0.0253  0.1336
56615W        W57479  24.512  27.906  27.768  0.1421  0.0193  0.1368
56616W        W57480  22.665   2.961  26.110  0.0459  0.0016  0.1395
56617W        W57481  23.737   2.577  25.203 -0.2375  0.0927 -0.1089
56618W        W57482  23.894   0.603  24.282 -0.3156  0.0601  0.1021
56619W        W57483  23.864   0.001  28.301 -0.1023 -0.1265 -0.0684
56620W        W57484  26.179   0.047  27.991  0.2529 -0.2047  0.0088
56621W        W57485  24.468   0.820  27.127  0.1776  0.0527 -0.0860
56622W        W57486  25.732   0.128  26.290  0.0943  0.1089  0.0605
56623W        W57487  25.390   2.791  28.580 -0.0600 -0.2741 -0.3076
56624W        W57488  25.705   0.123  25.734 -0.0334 -0.0052 -0.0441
56625W        W57489  24.043   3.798  25.196 -0.0373 -0.1695 -0.0251
56626W        W57490  23.028   0.484  26.710  0.1620  0.0446  0.1356
56627W        W57491  23.343   4.316  26.928 -0.0949 -0.0096 -0.2158
56628W        W57492  21.953   1.558  28.676 -0.0932 -0.1556 -0.1021
56629W        W57493  22.579   2.049  24.101 -0.1634 -0.1808  0.0138
56630W        W57494  25.907   0.896  26.819 -0.2106 -0.3166 -0.0800
56631W        W57495  23.061   1.081  25.861  0.1545  0.1733  0.2033
56632W        W57496  24.891   2.404  26.599  0.0848 -0.1849  0.3650
56633W        W57497  26.109   6.264  24.210 -0.0246  0.3217  0.1498
56634W        W57498  23.614   0.324  26.948  0.0392 -0.1069 -0.0288
56635W        W57499  25.291  28.610  25.292 -0.1518  0.0241 -0.1322
56636W        W57500  21.967   3.568  28.222  0.3830  0.0187 -0.0194
56637W        W57501  24.755   0.821  28.834  0.2341 -0.1251 -0.0702
56638W        W57502  24.417   2.227  25.715  0.0653 -0.0374 -0.1390
56639W        W57503  26.134   0.342  28.902  0.3793  0.3374 -0.1022
56640W        W57504  23.552   4.373  25.663 -0.0972 -0.1167  0.0255
56641W        W57505  22.490   7.157  25.913  0.0990  0.1430  0.0175
56642W        W57506  23.576   1.948  25.443 -0.1395  0.1029 -0.0060
56643W        W57507  24.933   1.436  26.893  0.0209  0.3812  0.2543
56644W        W57508  26.634   3.642  24.804  0.1121  0.1722 -0.0226
56645W        W57509  24.396   0.352  27.414  0.2755  0.1548 -0.1241
56646W        W57510  25.429   0.846  27.614  0.0909  0.0472 -0.1579
56647W        W57511  22.401   1.668  25.508 -0.2425  0.0092  0.0853
56648W        W57512  23.230   1.397  26.186  0.2495  0.2536  0.1831
56649W        W57513  24.555   2.826  27.516  0.0370 -0.1557 -0.5156
56650W        W57514  24.694   1.879  25.425  0.0405  0.1724  0.0947
56651W        W57515  24.342   2.671  25.932 -0.2976 -0.2898 -0.0569
56652W        W57516  22.515   2.207  28.695  0.0369 -0.1962  0.2098
56653W        W57517  23.879  28.160  29.043  0.4939  0.2756  0.1064
56654W        W57518  24.630  27.658  27.330 -0.2344 -0.3077  0.0159
56655W        W57519  26.865  28.452  27.536  0.1831 -0.3157 -0.1480
56656W        W57520  25.817   0.786  27.352  0.1182 -0.2448 -0.1259
56657W        W57521  22.010  28.868  28.000 -0.0546  0.0029 -0.0230
56658W        W57522  23.514   0.399  27.905  0.0110  0.0187  0.3230
56659W        W57523  26.369   1.184  27.652  0.0159 -0.0493 -0.1303
56660W        W57524  20.572   0.032  26.293  0.1961 -0.2930  0.1224
56661W        W57525  23.577  28.418   0.212 -0.0469 -0.0724 -0.2421
56662W        W57526  25.207   2.441  25.905  0.0415  0.0382 -0.1627
56663W        W57527  26.812   1.006  27.214  0.4180 -0.0893  0.1376
56664W        W57528  23.832   0.850  27.864 -0.2130 -0.0600  0.3101
56665W        W57529  22.189  28.922  25.083  0.2011  0.0920 -0.0479
56666W        W57530  24.741   0.111   0.804  0.1778 -0.2828  0.1514
56667W        W57531  27.108  27.887  28.081  0.2940 -0.1142  0.0007
56668W        W57532  23.425   5.159  25.014  0.0345 -0.0805  0.2850
56669W        W57533  24.287   3.620  25.833  0.2764  0.1649  0.2727
56670W        W57534  23.021   1.322   0.672 -0.0298 -0.2237  0.2167
56671W        W57535  23.046   1.867  26.330 -0.2098  0.0833  0.1625
56672W        W57536  24.492   0.909   0.112  0.1034 -0.0712  0.2613
56673W        W57537  26.505  28.915  27.415  0.1889 -0.2027 -0.3901
56674W        W57538  24.160   2.294  26.985 -0.2682  0.1068 -0.1235
56675W        W57539  25.604   2.617  26.860 -0.1008 -0.0163  0.1855
56676W        W57540  26.457   1.569  27.081 -0.1006  0.3682  0.3392
56677W        W57541  22.754   5.202  24.301 -0.0347 -0.0872  0.0842
56678W        W57542  25.011   3.497   0.807 -0.0326 -0.1280 -0.1866
56679W        W57543  22.341   0.330   2.373 -0.0782 -0.0380 -0.0583
56680W        W57544  24.711  28.202  27.423 -0.1775  0.0110 -0.2217
56681W        W57545  26.231   1.318  26.083  0.0586 -0.1239 -0.0024
56682W        W57546  22.195   2.482   1.913  0.0173 -0.0037 -0.1778
56683W        W57547  22.503  28.806  26.859 -0.6146  0.1554 -0.0863
56684W        W57548  26.347   2.445  27.442  0.0766 -0.2346  0.1410
56685W        W57549  23.676   1.236  25.938 -0.2282  0.7213  0.1355
56686W        W57550  23.650  29.080   1.931 -0.1939  0.0179 -0.1014
56687W        W57551  25.736  26.886  28.168 -0.1249  0.0740 -0.1870
56688W        W57552  25.171   3.849  25.976 -0.2500 -0.3533 -0.0150
56689W        W57553  28.868   5.885  27.828 -0.5261 -0.1218  0.1806
56690W        W57554  22.118  28.163  28.670  0.0634  0.2998  0.0788
56691W        W57555  23.511   2.710  28.809  0.1138  0.1820 -0.2555
56692W        W57556  22.478   5.465  23.909 -0.0125  0.4614  0.2345
56693W        W57557  24.604   2.238  25.075 -0.2375  0.0102  0.1447
56694W        W57558  26.901  29.029   0.053  0.0510  0.1390  0.0851
56695W        W57559  23.378   1.677  25.070  0.0853 -0.1585  0.1798
56696W        W57560  25.391   3.550  26.433 -0.1494  0.0696  0.2281
56697W        W57561  21.837  27.193   3.000 -0.0907  0.1622  0.3005
56698W        W57562  25.934   1.534  27.831  0.1673 -0.2949 -0.2695
56699W        W57563  25.684   3.106  25.629 -0.2095 -0.0634 -0.4858
56700W        W57564  21.952   5.157  26.087  0.0527 -0.4175 -0.1102
56701W        W57565  22.980   2.104  27.325  0.3272  0.0889 -0.0027
56702W        W57566  23.918   2.101  27.530  0.2642  0.3550  0.1682
56703W        W57567  24.954  29.143  25.612 -0.0082 -0.2299 -0.1915
56704W        W57568  25.209  28.789  26.940  0.0229  0.2511 -0.1647
56705W        W57569  25.457   1.685  27.008  0.0754 -0.1633  0.2235
56706W        W57570  22.794   1.594  25.891  0.1998 -0.0150  0.1555
56707W        W57571  23.462   1.782  26.772  0.0465 -0.0425 -0.4824
56708W        W57572  24.831   2.792  25.775  0.0561 -0.0313 -0.2472
56709W        W57573  23.300   0.654  25.672  0.0193 -0.0419 -0.2748
56710W        W57574  23.031   4.760  25.445  0.2527 -0.1006 -0.1157
56711W        W57575  25.254   3.015  27.618 -0.1268  0.2718 -0.0368
56712W        W57576  24.640   3.629   0.102 -0.0084  0.2153 -0.1323
56713W        W57577  25.830   0.549  26.020  0.1098  0.0029  0.1872
56714W        W57578  22.211   0.764  23.287  0.2699  0.0335  0.0451
56715W        W57579  25.657   2.153  26.010 -0.3171 -0.0854  0.1192
56716W        W57580  25.812   3.154  26.076 -0.3663 -0.1936 -0.2287
56717W        W57581  24.633   1.112  28.446 -0.0827  0.3948  0.1003
56718W        W57582  24.324   3.580  26.392 -0.1134 -0.0682  0.1140
56719W        W57583  23.440   0.088   0.874 -0.2298  0.0484 -0.2856
56720W        W57584  24.523  27.907  26.919 -0.3466  0.1246 -0.1599
56721W        W57585  24.744  28.590  27.088  0.0058  0.1038  0.1511
56722W        W57586  23.419   1.744  27.353  0.1254 -0.4144 -0.0493
56723W        W57587  24.183   1.357   0.070 -0.1437 -0.0230 -0.1411
56724W        W57588  24.642   3.964  26.467  0.0867 -0.1337 -0.1468
56725W        W57589  22.785   5.001   0.644  0.0530  0.0833  0.0772
56726W        W57590  22.258   4.260  24.134  0.2462 -0.1968 -0.1485
56727W        W57591  26.352   3.304  27.584 -0.0270 -0.0632  0.0298
56728W        W57592  22.017   2.283  27.010 -0.4250  0.0139 -0.1573
56729W        W57593  25.675   0.719  25.050 -0.1377  0.2245 -0.2283
56730W        W57594  24.911   2.227  24.696  0.0221  0.1231  0.2995
56731W        W57595  23.149   1.361  26.676  0.0602  0.0385 -0.1656
56732W        W57596  22.970   0.110  28.530 -0.0359  0.2371 -0.3090
56733W        W57597  22.692  28.645   0.544  0.0496 -0.0133 -0.3169
56734W        W57598  26.060   2.646  29.090  0.2677 -0.0642  0.0657
56735W        W57599  26.335   2.203   2.127  0.1281  0.0694  0.0213
56736W        W57600  23.015  28.598  28.819 -0.1378 -0.0125 -0.2571
56737W        W57601  23.944   1.622  26.703 -0.0302  0.2352 -0.0599
56738W        W57602  22.702   3.078  24.174  0.2855 -0.0407 -0.2044
56739W        W57603  22.946   3.201  27.967  0.0679  0.0036 -0.1910
56740W        W57604  24.758   1.996  28.317 -0.0186 -0.0350 -0.3413
56741W        W57605  23.959   1.597  22.368 -0.1207  0.4653  0.1797
56742W        W57606  23.714   0.522  25.952  0.0551  0.4003  0.0867
56743W        W57607  21.540   3.170  25.957 -0.0350  0.1260 -0.1311
56744W        W57608  25.357   2.197  26.809  0.0970 -0.1626 -0.2805
56745W        W57609  25.350  28.296  28.192 -0.0988  0.0408  0.1415
56746W        W57610  24.949   1.495  28.421  0.1143 -0.0545  0.1688
56747W        W57611  24.570   1.680  27.273 -0.1740 -0.3915  0.0231
56748W        W57612  26.364   0.727  26.847 -0.2605  0.2458 -0.0194
56749W        W57613  24.701   3.877  27.183 -0.1688 -0.2422 -0.3566
56750W        W57614  23.415   3.506  25.565  0.1839 -0.0726  0.1767
56751W        W57615  26.661  28.821  23.814  0.1792 -0.3739  0.0812
56752W        W57616  24.978  27.804  27.641 -0.1471  0.2457  0.2406
56753W        W57617  23.846   0.735  26.575 -0.2263 -0.0981 -0.0149
56754W        W57618  22.178   0.209  25.370 -0.0701  0.0584  0.0849
56755W        W57619  26.884  29.142  26.430 -0.1689 -0.1014  0.1118
56756W        W57620  24.001   0.893  26.119 -0.2977 -0.0248  0.0054
56757W        W57621  26.543   2.535  26.355 -0.0735  0.1784 -0.0124
56758W        W57622  26.216  28.285   0.259 -0.1848  0.2502 -0.1231
56759W        W57623  23.116   2.798  26.548  0.3468  0.0492 -0.0781
56760W        W57624  21.628   2.173  25.504 -0.0569  0.2218 -0.1755
56761W        W57625  22.569  28.476  28.633 -0.0791 -0.0671  0.3335
56762W        W57626  23.402   1.872  28.870  0.0856 -0.1508 -0.0812
56763W        W57627  26.401   2.090  27.111  0.0195 -0.1080 -0.1955
56764W        W57628  24.579   2.953  24.035  0.2233 -0.0120  0.0175
56765W        W57629  24.099   4.017   1.261  0.2156 -0.1108 -0.3208
56766W        W57630  25.160   4.970   2.896 -0.2398 -0.2683  0.0763
56767W        W57631  24.433  28.647  26.268 -0.1112 -0.1778 -0.0493
56768W        W57632  26.091   0.865  26.357  0.0191 -0.1953 -0.1611
56769W        W57633  22.424   2.406  27.524 -0.2674  0.0057 -0.1438
56770W        W57634  21.879   0.984  26.741 -0.0363  0.2220 -0.4863
56771W        W57635  22.465   4.117   0.700 -0.3533  0.1982  0.0712
56772W        W57636  27.154   0.312  26.840  0.4211  0.2286 -0.1323
56773W        W57637  22.531   1.863  26.619 -0.0635  0.1497  0.2253
56774W        W57638  23.602   1.252  28.021 -0.1081  0.0461 -0.0662
56775W        W57639  24.077   2.876  27.782  0.0557 -0.2875 -0.0111
56776W        W57640  24.412   1.752  23.503  0.0088  0.0825 -0.1980
56777W        W57641  27.035  28.237  25.856 -0.1703  0.2015  0.1740
56778W        W57642  25.020   2.091   0.645 -0.0980 -0.0618 -0.0250
56779W        W57643  22.628   1.846  28.261 -0.1474 -0.0211  0.1036
56780W        W57644  24.511   4.403  28.779 -0.0552 -0.1255 -0.2822
56781W        W57645  26.640   5.321  26.044  0.1603 -0.2548 -0.0415
56782W        W57646  20.527   3.194   0.038 -0.4071 -0.2141 -0.2357
56783W        W57647  27.547   3.163  28.462 -0.2642 -0.2383 -0.0574
56784W        W57648  21.775   0.006  25.609 -0.1153 -0.0528 -0.0540
56785W        W57649  26.048   1.303   0.299  0.0390 -0.0920 -0.4045
56786W        W57650  23.827   0.970  28.467 -0.1152  0.0461 -0.1044
56787W        W57651  24.816   1.753  24.760 -0.3021  0.2978  0.3403
56788W        W57652  24.243   1.602  25.441 -0.2697  0.0430 -0.2351
56789W        W57653  23.281   1.162  25.392  0.0363  0.0284  0.3607
56790W        W57654  24.882   0.713  27.581  0.1650 -0.3924 -0.1770
56791W        W57655  27.020   0.761  26.688  0.3367  0.1663 -0.1101
56792W        W57656  26.694   4.304   0.424 -0.0020  0.2100 -0.0489
56793W        W57657  24.688   2.500   0.076  0.0457  0.2356 -0.5051
56794W        W57658  24.949   5.508  29.079 -0.2756 -0.0882  0.0498
56795W        W57659  25.892   3.968  28.952  0.0282 -0.0544 -0.3304
56796W        W57660  25.369   2.154  27.288 -0.1447 -0.0434 -0.0951
56797W        W57661  28.027   0.562  28.394 -0.0608 -0.0426 -0.0038
56798W        W57662  24.691   4.967  25.783 -0.0811  0.2034 -0.1092
56799W        W57663  23.072   0.557  26.159  0.0289 -0.2015  0.3237
56800W        W57664  22.287   2.752  27.099  0.0805 -0.2251 -0.0150
56801W        W57665  25.380  28.380   1.771 -0.1155  0.0350  0.1829
56802W        W57666  26.290   1.101  27.205  0.0448  0.0116  0.0767
56803W        W57667  21.845   5.504  24.069  0.2295 -0.1526 -0.0361
56804W        W57668  22.866   2.407  27.779  0.0293 -0.1779  0.3957
56805W        W57669  23.247   3.320   0.318  0.0155  0.0932 -0.0409
56806W        W57670  24.873   1.162  24.622 -0.1978 -0.1136 -0.3056
56807W        W57671  23.928   3.004  25.791 -0.0612 -0.1021  0.1456
56808W        W57672  26.267   1.740  27.494  0.2753  0.2043 -0.2474
56809W        W57673  21.789  28.970  24.641  0.1748 -0.2233  0.0589
56810W        W57674  24.802   1.120  26.483  0.0576 -0.0670  0.1280
56811W        W57675  24.581   3.222  26.675 -0.3532 -0.1140  0.2286
56812W        W57676  25.669   1.247  28.335 -0.1366 -0.1028  0.0264
56813W        W57677  25.416   3.080  27.036 -0.2182 -0.1235  0.0799
56814W        W57678  23.655   2.573  27.661  0.0941 -0.0963 -0.1632
56815W        W57679  27.146   2.475  27.110 -0.2585 -0.1333  0.1419
56816W        W57680  20.299   4.332  28.484 -0.0150 -0.4516  0.0982
56817W        W57681  25.313   0.574   0.293  0.2450 -0.1888  0.3272
56818W        W57682  22.201   2.476  25.477 -0.1928 -0.0525  0.0007
56819W        W57683  24.091   1.339  26.221 -0.2999 -0.1734  0.0185
56820W        W57684  25.850   3.761  24.849 -0.0277  0.0100  0.0110
56821W        W57685  24.973   0.938  27.039  0.2318 -0.0714 -0.3120
56822W        W57686  25.404   3.524  24.863  0.1702  0.0286  0.0685
56823W        W57687  23.693   2.052  24.938 -0.2303  0.0368 -0.0838
56824W        W57688  23.345   3.214  27.581  0.0693  0.0869 -0.0410
56825W        W57689  25.587   0.689  28.121 -0.0567  0.1381 -0.2670
56826W        W57690  25.286   1.280  27.317 -0.0590 -0.0773  0.0187
56827W        W57691  24.197   1.240  27.489 -0.0240  0.3171  0.2646
56828W        W57692  25.300  28.026  24.685 -0.2184  0.0261 -0.2105
56829W        W57693  25.055   0.033   0.401  0.3672  0.1718 -0.0150
56830W        W57694  24.791   2.889  25.265  0.2284  0.2797  0.1562
56831W        W57695  25.065  28.700  28.127  0.0415 -0.1593 -0.1429
56832W        W57696  22.727   0.958  25.235  0.1242  0.1809 -0.0839
56833W        W57697  25.795   1.739  27.368  0.0761  0.2117 -0.0800
56834W        W57698  26.768   4.666  26.803  0.0530  0.1353  0.1660
56835W        W57699  26.337   0.931   0.606  0.1620  0.2834  0.4786
56836W        W57700  23.930   1.682  25.844  0.1374 -0.0373  0.0558
56837W        W57701  25.042   1.770  28.979 -0.1841 -0.0831 -0.4325
56838W        W57702  27.278  28.739  29.048 -0.0439 -0.0664 -0.2611
56839W        W57703  26.363   1.691  28.534  0.5095  0.1305  0.0436
56840W        W57704  26.585  28.783  27.901  0.3434  0.0007  0.1002
56841W        W57705  21.387   3.641  25.724  0.0963  0.1267 -0.2267
56842W        W57706  24.225   1.423  28.652 -0.0175 -0.0963 -0.0442
56843W        W57707  26.179   1.305  28.274  0.0029 -0.1892  0.0741
56844W        W57708  25.363   1.855   0.239 -0.0988  0.3981 -0.0320
56845W        W57709  25.044  28.821   0.056  0.1219  0.1056  0.4549
56846W        W57710  23.168   1.346  27.184  0.1138  0.0012 -0.3076
56847W        W57711  22.428   5.461   0.360 -0.1447  0.2135 -0.1913
56848W        W57712  25.581   1.740  26.493 -0.0784  0.1598  0.2927
56849W        W57713  25.257   2.075  26.363 -0.3249  0.3455  0.0607
56850W        W57714  23.710   3.538  27.864  0.1238 -0.3082 -0.1898
56851W        W57715  24.519   1.059  26.053  0.1957 -0.0741  0.0995
56852W        W57716  26.027   1.943  28.105  0.0766  0.4354 -0.0276
56853W        W57717  23.977   1.931  28.287 -0.0862 -0.1101 -0.1180
56854W        W57718  22.282   5.700  27.560 -0.2165  0.0247  0.0573
56855W        W57719  26.370   0.942  28.869  0.1832 -0.1099 -0.1101
56856W        W57720  23.563   5.343  24.503  0.3206 -0.1821 -0.0552
56857W        W57721  22.979   0.883   0.941 -0.2298  0.1346  0.1878
56858W        W57722  23.404   2.239  26.463  0.1856 -0.0903  0.2688
56859W        W57723  26.882   2.004  25.798  0.2611  0.0884  0.0315
56860W        W57724  24.088   9.053   2.907  0.0999  0.2257  0.1601
56861W        W57725  21.161   6.099   2.668 -0.1017  0.0792 -0.1979
56862W        W57726  25.927   5.270   0.309  0.3737 -0.1687 -0.1686
56863W        W57727  25.249   5.266   1.513  0.3075  0.0403  0.3393
56864W        W57728  24.789   7.618  28.746  0.1024  0.1267 -0.0261
56865W        W57729  22.133   4.288  27.515 -0.2314  0.0312 -0.3759
56866W        W57730  22.964   4.176   0.527 -0.0791 -0.3056 -0.0686
56867W        W57731  22.890   6.557   0.946 -0.0957  0.0098  0.0476
56868W        W57732  24.883   3.434   1.753  0.0427  0.2001 -0.1364
56869W        W57733  23.149   3.713   5.511  0.2549 -0.0183  0.1963
56870W        W57734  21.210   3.428   2.403  0.6314  0.0168 -0.0006
56871W        W57735  24.291   4.143   2.021  0.0765 -0.1427 -0.3863
56872W        W57736  26.582   6.509   1.121 -0.0121 -0.0874  0.1848
56873W        W57737  23.964   2.843   4.487  0.0096 -0.2021 -0.0122
56874W        W57738  22.987   4.528  27.599  0.1384 -0.0040  0.0413
56875W        W57739  21.685   9.951   2.936  0.0287 -0.0489 -0.2991
56876W        W57740  22.854   5.282  28.244  0.2128 -0.0290  0.1562
56877W        W57741  23.458   3.359   2.976 -0.0224 -0.0040  0.0339
56878W        W57742  23.380   4.951   3.244 -0.0098 -0.3754  0.0456
56879W        W57743  24.143   3.762   0.219 -0.0145  0.1650  0.1996
56880W        W57744  25.387   4.807   3.702 -0.3542  0.1054 -0.0056
56881W        W57745  21.735   4.484   3.030 -0.0564  0.0309  0.0383
56882W        W57746  23.775   7.894   1.887 -0.0495  0.3549  0.0004
56883W        W57747  20.754   6.448   1.509  0.3308  0.4413 -0.0604
56884W        W57748  21.982   6.249   0.695  0.2283  0.1342  0.4180
56885W        W57749  23.583   4.859   2.265  0.0305  0.4082 -0.0233
56886W        W57750  25.546   4.384   1.387  0.0701  0.0085  0.0116
56887W        W57751  22.115   5.713   1.128  0.0708 -0.3267 -0.0098
56888W        W57752  25.425   8.468   5.739  0.2429  0.3811  0.0392
56889W        W57753  23.730   6.867  28.576 -0.1323 -0.1187  0.3853
56890W        W57754  24.549   4.071   1.418 -0.2399 -0.2071 -0.2913
56891W        W57755  21.707   4.891   1.474 -0.0305 -0.2667  0.0714
56892W        W57756  22.040   5.775   2.509  0.1643  0.2376  0.0613
56893W        W57757  22.639   3.140   0.925  0.2061 -0.0152 -0.3843
56894W        W57758  21.971   4.420   1.542  0.3445 -0.1496 -0.0045
56895W        W57759  24.027   7.719   3.325  0.1174 -0.2403  0.0920
56896W        W57760  21.891   0.593   1.062 -0.1654 -0.0089  0.0094
56897W        W57761  22.935   6.790   1.444  0.1215 -0.1483  0.0926
56898W        W57762  27.114   6.812   1.327  0.0320 -0.1494 -0.0657
56899W        W57763  25.584   4.095   3.538  0.3863  0.0544 -0.1099
56900W        W57764  23.701   5.727  27.848 -0.1520 -0.1104 -0.2883
56901W        W57765  27.175   6.233   1.664 -0.2971  0.0993  0.0853
56902W        W57766  25.393   7.006   4.006 -0.3515  0.1037 -0.2870
56903W        W57767  24.261   7.604   0.553 -0.0313  0.0470  0.1411
56904W        W57768  23.340   6.189   0.950 -0.2228 -0.0582  0.0817
56905W        W57769  23.085   6.293   2.324 -0.0569  0.1546 -0.0769
56906W        W57770  21.576   5.953   0.586  0.0781 -0.0606 -0.0773
56907W        W57771  25.035   3.598   3.816  0.1075 -0.3552  0.2868
56908W        W57772  26.930   3.103   2.934  0.0994 -0.0469  0.0216
56909W        W57773  27.002   7.193   0.944 -0.0309 -0.0311 -0.1346
56910W        W57774  24.334   5.664   3.752 -0.0953  0.3192  0.0916
56911W        W57775  24.024   4.292   2.777 -0.0074  0.2113 -0.1007
56912W        W57776  24.952   7.177   1.565  0.2171 -0.0704  0.0663
56913W        W57777  24.543   6.743  28.015 -0.0039 -0.2023  0.3277
56914W        W57778  24.163   5.218   0.859  0.4618 -0.1955 -0.0687
56915W        W57779  21.592   8.685   1.729  0.1414 -0.0914 -0.2132
56916W        W57780  22.129   1.816   1.035  0.0512  0.3060 -0.1139
56917W        W57781  22.314   4.502   1.976 -0.0427 -0.1919 -0.0425
56918W        W57782  21.996   7.375   1.713 -0.4385 -0.2722 -0.0576
56919W        W57783  23.281   6.659  27.806  0.2616  0.1442  0.0898
56920W        W57784  23.466   2.966   0.679 -0.0998  0.3062  0.0528
56921W        W57785  23.425   7.485   1.978 -0.2708  0.2192 -0.1720
56922W        W57786  23.841   8.812   1.592 -0.0394 -0.1195 -0.0285
56923W        W57787  24.025   6.490  28.601 -0.0298 -0.2083  0.1817
56924W        W57788  22.461   3.975  28.731  0.3812 -0.1920 -0.2343
56925W        W57789  27.458   2.782   4.324  0.0408  0.1514  0.1118
56926W        W57790  24.225   5.293  28.949 -0.2620  0.1232 -0.1832
56927W        W57791  23.344   4.136  28.723  0.2280 -0.0634  0.0005
56928W        W57792  25.658   7.627   0.966 -0.1865  0.1056 -0.0059
56929W        W57793  23.919   7.068   1.417  0.1236 -0.0693 -0.1774
56930W        W57794  25.643   7.895   3.164 -0.1324  0.0742  0.4674
56931W        W57795  24.495   4.760   1.185 -0.0356 -0.0325  0.2911
56932W        W57796  27.798   7.574  28.200  0.2828 -0.1291  0.1199
56933W        W57797  25.842   4.551   3.801  0.1030  0.0550 -0.1197
56934W        W57798  24.799   8.515  28.113  0.0204  0.0510 -0.0279
56935W        W57799  22.791   5.964   3.045  0.1787  0.1567 -0.1625
56936W        W57800  21.729   4.540  29.035  0.1213 -0.0532 -0.0837
56937W        W57801  22.423   4.038   2.268  0.1413  0.2512 -0.2551
56938W        W57802  26.093   4.505   1.325 -0.1440  0.2931 -0.1952
56939W        W57803  21.710   3.678  28.770 -0.1697 -0.1262  0.0472
56940W        W57804  18.926   6.389   4.097 -0.1103  0.0303  0.0028
56941W        W57805  23.523   4.765   1.158  0.0341  0.0353 -0.2730
56942W        W57806  20.258   3.945   1.163  0.0663  0.0364 -0.0159
56943W        W57807  21.699   5.869   1.485  0.1520 -0.2003  0.2726
56944W        W57808  22.594   1.862   3.307 -0.0696  0.2194 -0.1911
56945W        W57809  22.594   3.762   1.157  0.1898  0.1020  0.1153
56946W        W57810  24.701   7.979   2.941  0.4602 -0.2228 -0.2196
56947W        W57811  24.458   4.380   3.712  0.3456 -0.1569 -0.1356
56948W        W57812  24.487   6.567   3.629 -0.0746 -0.0458  0.2234
56949W        W57813  23.831   4.985   2.728  0.0986 -0.0548  0.1621
56950W        W57814  23.727   3.446   0.171  0.2586  0.1734 -0.1306
56951W        W57815  25.734   4.162   3.043 -0.0481 -0.0630  0.1276
56952W        W57816  24.789   6.704   1.631 -0.2109  0.1526 -0.1377
56953W        W57817  22.508   1.671  28.867  0.2589  0.3803 -0.3282
56954W        W57818  22.837   3.877   2.739  0.3322 -0.0524  0.1155
56955W        W57819  25.043   4.459   2.583  0.2270  0.3250  0.1995
56956W        W57820  25.634   4.942   1.363  0.0596  0.1187 -0.1770
56957W        W57821  21.811   6.193   2.796 -0.0126 -0.0746 -0.0946
56958W        W57822  24.257   2.148  29.121  0.1287  0.0016 -0.2657
56959W        W57823  22.098   3.775   1.423  0.1068 -0.2119 -0.0749
56960W        W57824  26.813   7.014  27.438 -0.1529 -0.3716  0.1817
56961W        W57825  22.523   6.832   1.860  0.2727 -0.1244 -0.2114
56962W        W57826  22.932   5.779   3.906  0.1704  0.2361 -0.0532
56963W        W57827  23.917   6.602   2.308 -0.0192 -0.2217  0.1533
56964W        W57828  24.501   3.710   2.109  0.4178  0.2651 -0.2409
56965W        W57829  22.266   7.201   6.562 -0.2737 -0.0729  0.0297
56966W        W57830  21.870   3.200   0.391  0.0068  0.1433 -0.0015
56967W        W57831  22.187   4.641   4.443 -0.0214 -0.1610 -0.1413
56968W        W57832  24.212   4.464   1.539  0.0183 -0.0659 -0.1254
56969W        W57833  20.612   6.393   1.034  0.1082 -0.1447  0.2240
56970W        W57834  21.844   6.746   2.622 -0.3473  0.4388 -0.0689
56971W        W57835  22.241   6.967   0.875  0.2146 -0.1939 -0.1788
56972W        W57836  22.950   3.824   1.438  0.2555  0.2135  0.0893
56973W        W57837  24.803   7.755   4.907 -0.1922  0.0987  0.0705
56974W        W57838  25.737   3.754   2.812 -0.0158  0.0484 -0.3497
56975W        W57839  23.987   5.272   1.594  0.2111 -0.0247 -0.1573
56976W        W57840  25.656   3.913   4.847  0.0692 -0.0971  0.1312
56977W        W57841  24.571   4.430   2.354  0.1686 -0.3578 -0.2243
56978W        W57842  22.605   5.510   3.050  0.0808 -0.0284 -0.1991
56979W        W57843  23.599   4.719   3.642  0.2286  0.1392 -0.0416
56980W        W57844  27.659   6.988   0.569  0.0690  0.0571 -0.0965
56981W        W57845  25.224   6.484   0.123 -0.0199  0.0447  0.2696
56982W        W57846  23.456   8.317   1.858  0.0790 -0.2165 -0.0678
56983W        W57847  22.269   7.990   0.998  0.0819  0.1009  0.0776
56984W        W57848  24.100   7.002   2.701 -0.0410 -0.0477 -0.1490
56985W        W57849  23.912   5.816   2.771  0.3323 -0.0654 -0.0498
56986W        W57850  23.745   4.129   0.172  0.3297  0.1911  0.2345
56987W        W57851  25.830   3.514   1.296 -0.0121 -0.0571 -0.0978
56988W        W57852  28.215   7.786  27.974  0.2626 -0.1432 -0.0383
56989W        W57853  25.262   7.300   0.840  0.1580  0.1262 -0.0696
56990W        W57854  26.897   7.580  28.662  0.1586 -0.1046 -0.0335
56991W        W57855  24.314   3.390   0.581 -0.1421  0.1825 -0.1236
56992W        W57856  24.050   7.685   1.465  0.2321 -0.3190 -0.3761
56993W        W57857  25.201   5.337   2.089 -0.1756 -0.4845 -0.1636
56994W        W57858  25.520   3.626  29.093 -0.1957 -0.0731  0.0906
56995W        W57859  21.100   4.680   1.597 -0.3072 -0.1118 -0.0696
56996W        W57860  23.823   2.232   2.483 -0.2062 -0.1298  0.1367
56997W        W57861  25.950   5.372   1.457 -0.3276  0.1437 -0.1686
56998W        W57862  24.588   5.272   2.356 -0.3605 -0.0147 -0.0633
56999W        W57863  24.592   6.427   1.102  0.2587 -0.0893 -0.2763
57000W        W57864  23.260   5.235   0.716  0.0945  0.3129  0.3679
57001W        W57865  24.929   5.603   1.321 -0.0535 -0.0608 -0.2603
57002W        W57866  24.300   6.201   0.642  0.2825  0.0956 -0.2045
57003W        W57867  23.007   4.766   1.047  0.0225 -0.0829  0.0064
57004W        W57868  22.172   6.901   2.231  0.1523 -0.1164 -0.2443
57005W        W57869  20.772   5.491   1.177 -0.0394 -0.1406 -0.1332
57006W        W57870  23.490   6.553   3.096  0.0169 -0.2924 -0.0760
57007W        W57871  26.844   6.849   2.884  0.0553 -0.2294  0.0381
57008W        W57872  21.473   7.299   0.943  0.0016  0.0086 -0.0454
57009W        W57873  23.170   5.770   2.595  0.0971 -0.1800 -0.0549
57010W        W57874  25.662   6.966   2.813  0.2296  0.1979 -0.1710
57011W        W57875  22.666   2.626   0.860  0.0958  0.0450  0.0361
57012W        W57876  22.780   4.368   1.871  0.0160  0.2568 -0.0134
57013W        W57877  23.558   2.188  28.530  0.0632  0.1397 -0.0589
57014W        W57878  24.025   4.601   2.323 -0.1615  0.1991 -0.1098
57015W        W57879  23.009   3.496   1.791 -0.0436 -0.1892 -0.2948
57016W        W57880  21.406   4.897   2.795  0.0046 -0.1796  0.1575
57017W        W57881  21.405   5.400  27.503 -0.2203  0.1629 -0.2603
57018W        W57882  23.849   3.987   1.800 -0.0703  0.1122 -0.3355
57019W        W57883  21.708   3.649   0.675  0.2740 -0.0470  0.0664
57020W        W57884  23.641   2.870   4.836 -0.0285  0.1553 -0.1228
57021W        W57885  22.373   5.820   0.702  0.1253 -0.0262 -0.0946
57022W        W57886  22.179   5.644   4.262 -0.1764 -0.1923  0.2089
57023W        W57887  23.796   6.486   1.564 -0.0120  0.2580 -0.0169
57024W        W57888  23.066   4.358   5.016 -0.1442  0.1800  0.2048
57025W        W57889  23.358   5.697   1.021 -0.0758  0.2684  0.0510
57026W        W57890  20.929   4.307   2.819 -0.1839  0.1843 -0.1245
57027W        W57891  21.045   6.780  28.885 -0.2705  0.0492  0.2782
57028W        W57892  24.563   8.916   4.544  0.3949 -0.2792 -0.1175
57029W        W57893  24.167   7.318  27.535  0.2326 -0.0546 -0.0817
57030W        W57894  23.704   3.958   2.470  0.3724  0.1496  0.1710
57031W        W57895  22.864   5.783   2.168 -0.0009 -0.1707 -0.0381
57032W        W57896  26.028   5.946   1.080  0.0873 -0.3450  0.0363
57033W        W57897  21.897   6.470  26.785 -0.2582 -0.2909 -0.0556
57034W        W57898  21.311   2.333   0.530 -0.0893  0.1144  0.3579
57035W        W57899  26.371   4.425   1.778  0.4580 -0.1641  0.5124
57036W        W57900  21.411   6.546   2.597 -0.1339  0.1697  0.1117
57037W        W57901  22.417   6.255   0.463  0.1834 -0.1699 -0.1109
57038W        W57902  23.399   6.677  28.886 -0.0069 -0.0454  0.2783
57039W        W57903  22.489   1.082   0.951  0.2341  0.2923  0.2007
57040W        W57904  23.425   7.574  28.308  0.1270 -0.0176  0.1672
57041W        W57905  24.669   7.761  28.210 -0.2437 -0.1845  0.0773
57042W        W57906  21.204   4.701  28.967  0.3032 -0.0787 -0.1947
57043W        W57907  23.868   4.452   0.963  0.3267 -0.1545  0.1873
57044W        W57908  23.033   1.820   0.714  0.0843  0.1819  0.3115
57045W        W57909  24.710   5.353   3.454 -0.0086  0.0788  0.0175
57046W        W57910  24.831   4.070   0.995 -0.4891  0.2120  0.2781
57047W        W57911  21.421   0.976  26.918  0.0995  0.1738  0.2794
57048W        W57912  24.278   5.442   2.016  0.0580 -0.1157  0.2151
57049W        W57913  22.029   7.117   3.062  0.1298 -0.3496  0.2334
57050W        W57914  22.497   6.394  28.765 -0.1605 -0.2638 -0.2717
57051W        W57915  22.855   6.768  28.702  0.0695  0.1890  0.0021
57052W        W57916  25.519   8.962   3.003 -0.2851 -0.0793 -0.0635
57053W        W57917  26.035   5.561   3.595  0.2144  0.1775  0.1064
57054W        W57918  22.962   4.887   1.544  0.1103  0.0787  0.0193
57055W        W57919  23.606   4.528   3.068  0.0303  0.1476  0.0112
57056W        W57920  27.150   2.636   2.789 -0.0018  0.1135 -0.2205
57057W        W57921  22.573   1.517   1.764 -0.1016  0.1248  0.2144
57058W        W57922  20.320   3.070   2.931 -0.0221 -0.0255  0.2983
57059W        W57923  25.376   1.376   2.615  0.1460  0.0321  0.1213
57060W        W57924  23.562   2.760   1.713 -0.3334 -0.1012  0.2800
57061W        W57925  26.858   3.495   3.825 -0.1586 -0.0088  0.0455
57062W        W57926  26.669   6.910  28.668 -0.5192  0.1204  0.0273
57063W        W57927  22.859   0.774   0.054  0.1297 -0.1621 -0.4063
57064W        W57928  21.718   2.226   1.833  0.0946 -0.0404  0.0759
57065W        W57929  21.596   3.980   1.470  0.2417  0.3621  0.2179
57066W        W57930  21.218   5.941   1.836  0.0673 -0.0786 -0.0571
57067W        W57931  23.527   5.044   1.565 -0.3236  0.1100 -0.0600
57068W        W57932  22.993   9.321  28.958  0.2409  0.0900 -0.1701
57069W        W57933  24.402   5.984  28.426 -0.0801 -0.1379  0.1644
57070W        W57934  22.719   7.101   1.056 -0.0385 -0.0043  0.3707
57071W        W57935  21.147   6.581   3.404 -0.2438 -0.0623  0.1425
57072W        W57936  21.222   5.124   1.361 -0.0351  0.0229 -0.0424
57073W        W57937  24.784   1.898   6.303  0.1881 -0.2532  0.1567
57074W        W57938  24.451   6.094   3.467  0.0413  0.2801  0.0079
57075W        W57939  26.277   7.426   1.847  0.0697 -0.0066  0.2184
57076W        W57940  24.525   5.235   1.308 -0.0696  0.2474  0.1847
57077W        W57941  22.933   6.235   0.540  0.1518 -0.1063  0.3073
57078W        W57942  23.855   5.948   0.927 -0.0294 -0.2980  0.1934
57079W        W57943  22.560   7.836   2.337  0.0630  0.2018 -0.2013
57080W        W57944  25.810   2.413   3.327 -0.2175  0.0881  0.2841
57081W        W57945  24.447   4.882   1.668 -0.1218 -0.0184 -0.3346
57082W        W57946  24.256   8.005   5.769  0.1239 -0.0034  0.0293
57083W        W57947  23.401   2.158  27.638  0.2461 -0.1649 -0.0796
57084W        W57948  22.778   8.287  26.429 -0.1796  0.1000  0.2535
57085W        W57949  25.345   2.718   3.665  0.0329 -0.1324 -0.0740
57086W        W57950  23.118   8.358   5.551 -0.2240 -0.0394  0.2237
57087W        W57951  24.158   3.966   3.724 -0.1930  0.0484 -0.3476
57088W        W57952  25.334   4.721   1.707  0.3135 -0.0936 -0.2464
57089W        W57953  26.638   5.725   3.463 -0.1014  0.1310  0.1780
57090W        W57954  23.272   3.321   2.248 -0.0457  0.2203  0.1559
57091W        W57955  21.080   6.255   0.994 -0.2863 -0.0391  0.1276
57092W        W57956  21.220   5.724   0.899 -0.0962 -0.0327  0.3733
57093W        W57957  25.824   4.432   1.895 -0.1207  0.0944 -0.1083
57094W        W57958  22.924   1.488   3.104 -0.0821  0.0822 -0.3734
57095W        W57959  23.019   8.136   2.599 -0.2411  0.0786  0.0681
57096W        W57960  23.853   3.583   1.327 -0.1779 -0.0673  0.1074
57097W        W57961  22.277   3.525   2.224  0.0233  0.1250  0.0308
57098W        W57962  24.694   5.881   0.622  0.0858  0.0140  0.2801
57099W        W57963  25.403   7.168   1.783 -0.1049 -0.0474 -0.0596
57100W        W57964  22.970   7.413  28.201  0.1115  0.1150  0.0797
57101W        W57965  24.812   6.688   2.811  0.1672 -0.1497 -0.2323
57102W        W57966  23.500   4.697  27.206  0.2003  0.0933  0.0332
57103W        W57967  23.633   3.623  28.808 -0.1498  0.0085 -0.2523
57104W        W57968  22.743   4.008   4.741  0.1456 -0.2373  0.3176
57105W        W57969  23.614   6.258  28.704 -0.2015  0.1145  0.1440
57106W        W57970  23.083   5.341   1.225  0.0810  0.0114  0.1961
57107W        W57971  21.365   6.319   3.032  0.0793 -0.1520 -0.1696
57108W        W57972  26.174   7.180   0.387  0.3889 -0.0505  0.2236
57109W        W57973  26.726   3.351  28.780  0.1591 -0.1339  0.2681
57110W        W57974  23.006   7.268   3.262 -0.2836  0.0429  0.0706
57111W        W57975  22.584   8.540   0.164  0.4082 -0.0483  0.1465
57112W        W57976  25.097   6.261   2.159 -0.3815  0.0089 -0.1802
57113W        W57977  23.219   4.464   0.197 -0.2663  0.2263  0.2119
57114W        W57978  24.917   3.785   0.481 -0.0686 -0.0141  0.1504
57115W        W57979  25.021   4.389   1.323  0.0589 -0.2334  0.0148
57116W        W57980  23.402   2.461   2.770 -0.0926  0.0170  0.0379
57117W        W57981  25.625   5.342   4.457  0.1407  0.2094  0.2351
57118W        W57982  25.420   5.907   1.330  0.2106  0.2897 -0.2175
57119W        W57983  25.719   3.218   1.907 -0.1455 -0.1335  0.3903
57120W        W57984  23.684   5.526   0.692  0.2257 -0.1949 -0.2367
57121W        W57985  24.581   6.189   4.629 -0.0085  0.1352  0.1084
57122W        W57986  24.934   6.861   3.319  0.1492  0.1048 -0.0042
57123W        W57987  20.961   4.708   2.437  0.0353 -0.1429 -0.1370
57124W        W57988  23.746   7.985   0.981 -0.0171 -0.2979  0.1025
57125W        W57989  23.421   9.056   1.410 -0.2715  0.2456 -0.0043
57126W        W57990  22.848   3.995  28.248 -0.0062 -0.2255  0.2786
57127W        W57991  24.979   7.069   4.282 -0.0300  0.1491  0.0779
57128W        W57992  23.995   4.830   1.258 -0.0848 -0.2573  0.2723
57129W        W57993  25.165   5.005  29.105 -0.0053 -0.1186 -0.3438
57130W        W57994  22.620   6.730   0.456  0.0343  0.1325 -0.1449
57131W        W57995  23.287   6.539   5.137  0.1593 -0.1126  0.1703
57132W        W57996  26.340   4.264   3.151 -0.1559 -0.0835  0.3375
57133W        W57997  21.171   3.636   1.349  0.0422 -0.0611  0.0428
57134W        W57998  25.020   4.996   3.368 -0.1565 -0.0235 -0.2606
57135W        W57999  24.322   4.807   2.786  0.0071  0.0618 -0.1640
57136W        W58000  23.133   2.454   1.673  0.1757 -0.1731  0.4233
57137W        W58001  24.533   6.228  28.902  0.2037 -0.0830  0.0140
57138W        W58002  22.140   2.595  28.362  0.0734  0.1319  0.0635
57139W        W58003  23.373   7.523   4.632  0.1114 -0.2285 -0.0378
57140W        W58004  22.210   7.091   0.301  0.1738 -0.3536 -0.1958
57141W        W58005  25.308   4.137   0.158 -0.0334  0.1138  0.1797
57142W        W58006  21.734   6.937   0.578 -0.0209 -0.1671  0.2501
57143W        W58007  23.341   4.874   2.726  0.0600  0.1408  0.1235
57144W        W58008  24.973   5.189  28.672  0.1931  0.1969  0.0228
57145W        W58009  26.272   3.112   3.550  0.0608  0.0126  0.0303
57146W        W58010  27.454   7.249   0.194  0.1118  0.0619 -0.0943
57147W        W58011  22.592   5.585   2.550 -0.1431 -0.0928 -0.0084
57148W        W58012  22.889   1.996   1.759  0.0795 -0.0770 -0.1506
57149W        W58013  24.076   7.188   3.180 -0.2220 -0.0386  0.0103
57150W        W58014  24.771   5.475   1.879 -0.2834  0.1223 -0.2480
57151W        W58015  22.955   3.094  28.728  0.2075  0.2067  0.0425
57152W        W58016  26.700   3.921   2.598 -0.0463  0.0796  0.1398
57153W        W58017  24.135   6.633  27.677 -0.0875  0.0497  0.1732
57154W        W58018  23.204   6.347   1.701 -0.1753  0.0117 -0.2155
57155W        W58019  24.435   4.300   0.919 -0.0492  0.1948 -0.1584
57156W        W58020  22.671   7.044   2.300  0.1828  0.1240  0.1607
57157W        W58021  23.644   4.395   1.483  0.0843 -0.2234 -0.2484
57158W        W58022  24.843   2.779   3.321  0.1745  0.1683 -0.0965
57159W        W58023  20.276   7.124   1.738 -0.1835 -0.1677 -0.0627
57160W        W58024  22.476   7.543   1.005 -0.2963 -0.1128  0.1390
57161W        W58025  21.357   6.893   3.687  0.0845  0.1762  0.1859
57162W        W58026  23.490   6.477   3.604 -0.2593 -0.0960 -0.1417
57163W        W58027  24.223   4.407   3.220  0.1929 -0.0893 -0.0068
57164W        W58028  24.195   6.217   1.472  0.2555  0.2167 -0.0760
57165W        W58029  23.213   8.763   1.748  0.3658  0.3353 -0.0910
57166W        W58030  24.522   4.867   3.370  0.0530  0.1784  0.0520
57167W        W58031  22.227   0.793   0.651  0.0670  0.1542  0.1746
57168W        W58032  21.898   5.774   1.946  0.1324 -0.2464 -0.1468
57169W        W58033  21.301   8.430   2.985  0.2621 -0.0216 -0.1416
57170W        W58034  21.139   8.169   0.055  0.0127  0.1805 -0.0868
57171W        W58035  24.077   6.803   4.327  0.0606  0.1061 -0.1153
57172W        W58036  24.296   4.677   0.673 -0.0688  0.0819  0.2532
57173W        W58037  24.908   5.740   2.294  0.0768  0.1586 -0.4609
57174W        W58038  22.961   3.945   2.006  0.0218  0.0125  0.0278
57175W        W58039  23.992   7.157   6.528 -0.2018  0.1009 -0.1319
57176W        W58040  21.907   2.714   0.602  0.2581 -0.2972 -0.3845
57177W        W58041  22.945   1.446  28.278  0.4998  0.0090 -0.1909
57178W        W58042  24.278   6.995   2.176  0.1187 -0.0917 -0.0846
57179W        W58043  22.012   4.505   0.722  0.2448  0.5599 -0.3732
57180W        W58044  18.412   6.423   2.899  0.0053 -0.0070  0.2660
57181W        W58045  25.046   6.573  28.836  0.0384  0.2168 -0.3026
57182W        W58046  18.544  10.063   3.733  0.0428 -0.1301 -0.0554
57183W        W58047  25.374   8.570   2.479  0.0348  0.0995 -0.3197
57184W        W58048  27.030   6.265   1.134 -0.1096  0.0344  0.0642
57185W        W58049  24.597   5.063   0.600  0.0926  0.0066 -0.3262
57186W        W58050  23.527   3.958   1.131 -0.0547  0.1451  0.0977
57187W        W58051  22.838   5.497   0.795  0.0121 -0.1429 -0.1714
57188W        W58052  22.964   5.824  28.435  0.1882  0.1800 -0.1786
57189W        W58053  23.287   5.762   0.427  0.0943 -0.1680 -0.0858
57190W        W58054  21.949   3.216   0.897 -0.0365 -0.0139  0.6801
57191W        W58055  21.730   4.204   2.041  0.0055  0.0353 -0.0370
57192W        W58056  24.818   5.599   4.472 -0.3418 -0.0097  0.0757
57193W        W58057  26.891   5.854   1.945 -0.4141  0.0256  0.0911
57194W        W58058  23.668   5.249   1.997  0.2544 -0.1764  0.0440
57195W        W58059  24.998   5.723   3.643 -0.1424  0.3242 -0.1703
57196W        W58060  23.943   8.498   0.310 -0.0392 -0.0722 -0.2614
57197W        W58061  23.889   4.809   1.871  0.1217  0.0113  0.4168
57198W        W58062  26.179   4.989   3.105  0.1538 -0.0811  0.0236
57199W        W58063  23.307   3.931   0.075 -0.1842 -0.0655  0.1274
57200W        W58064  25.334   6.250   2.658 -0.1889 -0.0228 -0.1341
57201W        W58065  23.462   3.984   0.650  0.0358  0.0093  0.0413
57202W        W58066  25.439  29.061   3.732 -0.0696  0.1281 -0.1180
57203W        W58067  23.736   7.021  27.631 -0.1146 -0.0298  0.1661
57204W        W58068  23.034   7.009   0.633  0.0149  0.0197  0.0233
57205W        W58069  22.772   4.877   5.886 -0.2678  0.1027 -0.0213
57206W        W58070  22.375   7.193  28.871  0.0546  0.0347 -0.2944
57207W        W58071  21.970   2.891   3.214  0.0307 -0.1781 -0.1493
57208W        W58072  22.606   4.542   2.432 -0.1325 -0.3102 -0.0562
57209W        W58073  21.584   3.875  28.331 -0.3275  0.0184 -0.0128
57210W        W58074  23.944   6.594   2.909  0.0529  0.1530  0.1841
57211W        W58075  23.701   6.869   0.946  0.0093  0.0293 -0.0497
57212W        W58076  25.736   4.955   2.838  0.0091  0.0876 -0.2742
57213W        W58077  22.335   5.950   2.165  0.0542  0.0110  0.2823
57214W        W58078  24.268   6.727   1.406 -0.0057 -0.1017 -0.3787
57215W        W58079  23.321   1.247   2.396  0.2358 -0.0783 -0.2113
57216W        W58080  20.683   6.563   2.034 -0.2636 -0.0280  0.0851
57217W        W58081  22.035   4.988   4.099  0.3250  0.2645  0.2885
57218W        W58082  22.654   3.491  28.897  0.0243 -0.2786  0.0630
57219W        W58083  23.091   6.694   0.171  0.1589 -0.0635  0.0091
57220W        W58084  23.227   4.714   0.590  0.0520 -0.0940 -0.0920
57221W        W58085  23.212   5.044   1.944  0.0864 -0.0391  0.3032
57222W        W58086  21.347   5.378   3.147 -0.2031 -0.2558 -0.0097
57223W        W58087  23.453   2.167   0.719 -0.1924 -0.0774 -0.0714
57224W        W58088  23.273   9.124   0.463  0.3549 -0.1768 -0.0924
57225W        W58089  24.516   5.812   1.596  0.1309  0.0538 -0.2118
57226W        W58090  24.831   7.200  28.342  0.1246  0.0226 -0.1454
57227W        W58091  24.315   7.430   2.573 -0.4031  0.2088  0.4656
57228W        W58092  25.328  28.892   1.081 -0.2282 -0.1558 -0.2500
57229W        W58093  26.898   5.118   3.462  0.0349 -0.1276 -0.0968
57230W        W58094  22.327   2.995   0.532 -0.0631 -0.0513 -0.1047
57231W        W58095  25.843   4.643   0.850  0.1607 -0.2102  0.0802
57232W        W58096  21.494   5.376   0.571 -0.1329  0.0014 -0.0014
57233W        W58097  24.283   5.269   4.050 -0.2395  0.0839 -0.0265
57234W        W58098  23.786   7.421   1.085  0.0310 -0.0803  0.0439
57235W        W58099  22.374   5.343   2.187 -0.1477 -0.0166  0.3483
57236W        W58100  22.618   5.019   3.660 -0.2256  0.0366  0.0622
57237W        W58101  27.038   7.276   2.199  0.0611 -0.0555  0.0650
57238W        W58102  21.662   4.858   3.652  0.0471  0.2028  0.1056
57239W        W58103  23.223   3.793   2.418  0.0210  0.2541 -0.1146
57240W        W58104  22.992   6.774   2.511 -0.1895  0.2013 -0.0313
57241W        W58105  20.248   5.120  29.000 -0.2131  0.1844 -0.2829
57242W        W58106  22.627   6.523   3.407  0.2077  0.1485 -0.0723
57243W        W58107  23.912   6.483   3.904  0.1540  0.0756 -0.2470
57244W        W58108  24.409   8.456   2.597  0.2202 -0.3761  0.1655
57245W        W58109  23.094   6.351   2.788  0.1111 -0.0662  0.1112
57246W        W58110  24.238   6.835   0.892  0.0685 -0.2743  0.0867
57247W        W58111  23.675   5.268   1.138  0.1417 -0.0505  0.1220
57248W        W58112  25.757   7.159   0.801  0.5878 -0.1195  0.0083
57249W        W58113  23.857   5.739   2.258  0.0641  0.0455  0.1518
57250W        W58114  22.533   9.518   6.103 -0.0553 -0.0747 -0.0709
57251W        W58115  22.733   5.388  28.802 -0.3230  0.3155 -0.0338
57252W        W58116  25.992   8.023   0.949 -0.2408 -0.1741 -0.1152
57253W        W58117  25.784   6.434   2.791  0.0517  0.2979 -0.1971
57254W        W58118  21.903   6.674   1.015 -0.1636  0.1118 -0.0170
57255W        W58119  21.360   5.751   3.988 -0.0620 -0.1405 -0.1957
57256W        W58120  22.976   5.914   1.562 -0.0198  0.0144  0.2664
57257W        W58121  23.640   7.052   3.007 -0.2376 -0.2039 -0.0905
57258W        W58122  27.470   6.013   0.137 -0.0591  0.2526 -0.1756
57259W        W58123  21.304   4.237  28.822  0.0276  0.0477 -0.0684
57260W        W58124  20.498   5.026   8.610 -0.0935 -0.0854  0.4121
57261W        W58125  22.433   8.133   5.835  0.2353  0.1582 -0.0619
57262W        W58126  28.141   8.389   3.995  0.5091  0.0049  0.3294
57263W        W58127  24.284   7.371   7.205  0.1021  0.0543 -0.1818
57264W        W58128  24.449   8.053   3.356  0.1690 -0.0872  0.1822
57265W        W58129  23.016   4.737   3.725 -0.0268 -0.1209 -0.0607
57266W        W58130  24.083   4.154   4.747  0.0230  0.0630 -0.1264
57267W        W58131  24.435   5.664   2.729  0.3095  0.2039  0.1209
57268W        W58132  25.158   8.956   5.320 -0.0212  0.0323  0.0640
57269W        W58133  22.043   5.588   7.263  0.1016 -0.0005  0.1846
57270W        W58134  21.593   5.669   4.945 -0.2122  0.0408  0.1634
57271W        W58135  21.624   4.580   4.130 -0.3590 -0.1142  0.1777
57272W        W58136  24.756   7.150   4.741 -0.2387 -0.0016  0.2171
57273W        W58137  26.708   3.862   7.325  0.0367 -0.0525 -0.1034
57274W        W58138  21.043   3.099   3.763 -0.2197 -0.1017 -0.3103
57275W        W58139  22.249   8.418   5.206 -0.3567 -0.1604 -0.0167
57276W        W58140  21.047   5.030   5.227  0.0548  0.0403  0.3242
57277W        W58141  20.711   4.076   5.418 -0.1308 -0.1864 -0.0217
57278W        W58142  21.196   5.340   8.551  0.1751  0.1798  0.1187
57279W        W58143  26.689   6.865   4.305  0.0704  0.1724 -0.0134
57280W        W58144  22.358   4.561   5.431  0.1359  0.2937  0.1267
57281W        W58145  23.046   6.877   6.623  0.1122  0.0883  0.1398
57282W        W58146  21.654   8.447   7.316 -0.1203 -0.2841  0.1347
57283W        W58147  19.168   4.115   6.543  0.1452  0.1600  0.2201
57284W        W58148  23.787   5.191   3.663  0.0264 -0.0877 -0.2688
57285W        W58149  24.753   4.081   6.263  0.1389 -0.2651  0.0826
57286W        W58150  25.399   6.530   5.414  0.2251  0.0479  0.1433
57287W        W58151  22.903   3.996   8.256 -0.0401  0.0773  0.0433
57288W        W58152  21.067   6.310   6.032 -0.0954  0.2412  0.6187
57289W        W58153  24.767   5.822   3.151 -0.1177  0.1822  0.0518
57290W        W58154  23.528   5.702   5.069  0.2330 -0.2525 -0.0249
57291W        W58155  25.127   6.027   7.227  0.0912 -0.2005 -0.2790
57292W        W58156  21.342   7.011   4.570 -0.0299  0.1545  0.0338
57293W        W58157  20.979   3.585   5.004 -0.0450  0.1296  0.2720
57294W        W58158  23.623   8.073   6.506  0.1171  0.2382 -0.1069
57295W        W58159  21.934   3.833   2.422  0.0076 -0.1998  0.1477
57296W        W58160  23.676   9.480   8.360  0.5867 -0.4257 -0.0188
57297W        W58161  28.252   9.884   1.794 -0.0911 -0.1116 -0.0122
57298W        W58162  24.315   2.128   4.352 -0.3534  0.1607 -0.0849
57299W        W58163  24.459   6.030   5.492  0.1799 -0.1955  0.1118
57300W        W58164  26.820   5.992   4.024 -0.1303  0.1567 -0.1534
57301W        W58165  23.308   7.200   6.937  0.1938 -0.1465 -0.2919
57302W        W58166  25.903   9.825   5.052 -0.0018  0.0598 -0.4251
57303W        W58167  22.327   8.822   2.374  0.1547  0.2568 -0.1843
57304W        W58168  24.856   8.397   4.336 -0.0754  0.2501 -0.1352
57305W        W58169  20.670   7.087   2.887 -0.1432  0.0901  0.0274
57306W        W58170  23.777   3.733   4.264  0.1578  0.0967  0.0873
57307W        W58171  22.979   7.493   7.181 -0.0120  0.0575  0.2379
57308W        W58172  22.024   4.567   8.155  0.2791 -0.1726 -0.3568
57309W        W58173  23.595   6.051   7.323 -0.0605  0.3620 -0.0566
57310W        W58174  23.597   3.932   4.659  0.1788  0.1210  0.1248
57311W        W58175  22.164   5.543   9.732 -0.0865 -0.0135  0.0790
57312W        W58176  25.099   5.803   2.786 -0.2009 -0.1861  0.2075
57313W        W58177  23.309   3.621   4.319 -0.0434 -0.1723  0.0966
57314W        W58178  21.947   6.425   2.208  0.3060  0.0271  0.0595
57315W        W58179  22.210   3.241   5.029  0.1323 -0.3073  0.0240
57316W        W58180  24.292   6.484   5.300 -0.0829 -0.2572 -0.0665
57317W        W58181  22.109   6.226   5.559  0.1833 -0.1569  0.0794
57318W        W58182  25.248   6.895   1.249  0.3429 -0.2481 -0.2019
57319W        W58183  26.121   5.417   4.070 -0.1549 -0.0216  0.0560
57320W        W58184  23.979   5.268   5.681  0.0139  0.1421 -0.2261
57321W        W58185  24.659   5.322   6.141  0.0662  0.1874 -0.2033
57322W        W58186  24.856   4.427   4.060 -0.1433  0.0369 -0.0864
57323W        W58187  24.110   4.551   6.557 -0.0889  0.3204 -0.0748
57324W        W58188  25.654   5.550   5.999  0.1959 -0.1306  0.4391
57325W        W58189  22.273   7.701   4.663  0.5083  0.2577  0.2514
57326W        W58190  23.569   4.423   2.530 -0.3664 -0.0915  0.0005
57327W        W58191  21.681   8.167   5.162  0.0646 -0.3222  0.0744
57328W        W58192  23.559   5.749   4.569 -0.0688 -0.2509  0.0515
57329W        W58193  23.865   9.013   7.746 -0.2807 -0.1616  0.2214
57330W        W58194  23.351   4.337   3.797 -0.0347  0.2354 -0.1395
57331W        W58195  24.931   6.385   5.596 -0.0977 -0.0997 -0.2681
57332W        W58196  23.975   4.583   4.481 -0.0181 -0.1049 -0.1246
57333W        W58197  25.988   6.077   5.461 -0.6177 -0.2002  0.2259
57334W        W58198  23.585   7.175   7.850 -0.0130  0.2286 -0.1623
57335W        W58199  23.029   7.747   4.949  0.0713 -0.0384  0.2248
57336W        W58200  23.863   8.148   6.044  0.1764 -0.0851 -0.0619
57337W        W58201  23.280   5.975   6.446  0.1310 -0.4476 -0.1466
57338W        W58202  23.017   6.783   3.091 -0.0703  0.2373 -0.3835
57339W        W58203  21.325   2.923   6.358  0.0101  0.1281  0.4023
57340W        W58204  22.282   7.621   7.907  0.1914  0.2051  0.0873
57341W        W58205  21.689   3.641   4.213 -0.2011 -0.0780 -0.0896
57342W        W58206  24.662   5.001   4.319 -0.4169  0.2437 -0.0645
57343W        W58207  24.355   5.455   4.507  0.0989  0.3476 -0.0176
57344W        W58208  23.096   2.957   1.707  0.0575 -0.3806  0.1362
57345W        W58209  24.864   7.381   7.960  0.0513  0.0014  0.2927
57346W        W58210  25.399   2.924   6.913 -0.0701  0.0235  0.2749
57347W        W58211  23.029   6.437   8.345  0.1629  0.0181 -0.0281
57348W        W58212  26.271   3.315   6.881  0.0510 -0.2451  0.1808
57349W        W58213  22.036   5.734   5.713  0.0398 -0.0966  0.3085
57350W        W58214  23.342   3.661   8.025 -0.0560 -0.0918 -0.1134
57351W        W58215  24.125   2.758   3.226 -0.3002 -0.0981  0.2306
57352W        W58216  22.678   6.261   1.832  0.0382  0.0839  0.1569
57353W        W58217  22.148   4.464   8.685  0.1345 -0.0731  0.2734
57354W        W58218  23.557   6.119   3.945 -0.1608  0.0975  0.2886
57355W        W58219  23.769   5.694   3.501 -0.1720  0.0603  0.3218
57356W        W58220  21.353   5.025   4.066  0.2063  0.0766 -0.1476
57357W        W58221  21.950   2.796   5.352 -0.0812  0.2757 -0.4125
57358W        W58222  24.472   4.721   7.217 -0.0644  0.0616 -0.3297
57359W        W58223  26.017   7.583   2.976 -0.0235  0.0411  0.0606
57360W        W58224  21.942   6.061   6.534 -0.0786 -0.1156  0.3035
57361W        W58225  22.089   3.475   6.270  0.1216 -0.1759 -0.0099
57362W        W58226  26.941   5.512   3.116  0.2686  0.3466 -0.0432
57363W        W58227  24.006   3.112   2.835  0.1129  0.1072  0.2134
57364W        W58228  21.981   5.418   5.148 -0.2783 -0.1984 -0.0688
57365W        W58229  24.741   6.619   2.115 -0.0558  0.2023 -0.0942
57366W        W58230  24.300   4.738   9.198 -0.0953 -0.3148  0.0709
57367W        W58231  24.854   6.248   3.735 -0.1639 -0.5992  0.0575
57368W        W58232  21.630   4.987   5.360  0.1279 -0.0852  0.0547
57369W        W58233  21.699   4.555   4.691 -0.1287  0.1284  0.0342
57370W        W58234  22.696   7.146   5.416  0.0259 -0.1706  0.1042
57371W        W58235  24.168   4.786   3.709 -0.1629 -0.0075  0.1843
57372W        W58236  22.109   6.603   7.501  0.2265 -0.0918 -0.0844
57373W        W58237  25.908   5.862   3.992 -0.3758 -0.1585 -0.2923
57374W        W58238  23.504   3.228   3.436  0.3271  0.1897  0.0593
57375W        W58239  26.273   5.192   6.115  0.2326  0.1702 -0.1486
57376W        W58240  22.430   7.051   4.171  0.0310 -0.1579 -0.0401
57377W        W58241  25.395   3.478   6.085 -0.0111  0.0245 -0.1587
57378W        W58242  24.913   8.685   5.683 -0.0705 -0.1585 -0.0484
57379W        W58243  23.123   6.894   3.877  0.2537  0.1118 -0.0636
57380W        W58244  24.429   4.620   4.154 -0.0798 -0.1068 -0.0844
57381W        W58245  25.188   7.847   6.668  0.0961  0.3848  0.0180
57382W        W58246  26.088   7.140   1.332 -0.0765  0.2231 -0.2113
57383W        W58247  25.055   5.503   5.915  0.3901 -0.0953 -0.1479
57384W        W58248  24.840   6.830   6.081 -0.4002  0.1287  0.0257
57385W        W58249  23.582   4.747   5.760  0.2020 -0.1129  0.1052
57386W        W58250  25.325   6.650   5.938  0.1929  0.0607  0.0580
57387W        W58251  24.847   7.034   6.540 -0.2173 -0.1391  0.2440
57388W        W58252  23.718   6.903   5.659 -0.1092  0.1924 -0.0084
57389W        W58253  24.479   6.633   5.773  0.1680 -0.0361  0.0945
57390W        W58254  22.658   5.878   7.158 -0.1950 -0.0264 -0.1022
57391W        W58255  27.362   7.807   6.071  0.2080  0.0547 -0.1133
57392W        W58256  24.342   3.784   5.430 -0.0997 -0.0202  0.1838
57393W        W58257  21.699   5.367   7.610 -0.0492 -0.2656  0.2429
57394W        W58258  18.283   4.777   6.106 -0.1649 -0.1018  0.1651
57395W        W58259  27.009   5.702   6.372 -0.0907 -0.0568 -0.0315
57396W        W58260  26.124   6.013   6.718 -0.0117  0.0518  0.1000
57397W        W58261  25.419   5.183   5.734  0.1937 -0.1050 -0.1306
57398W        W58262  24.883   5.802   6.765  0.2382  0.1159 -0.0119
57399W        W58263  19.743   7.319   4.152 -0.0311 -0.0292 -0.0012
57400W        W58264  23.902   2.999   3.739  0.1994  0.1158 -0.1829
57401W        W58265  23.390   8.179   3.926  0.2819 -0.1056  0.0040
57402W        W58266  22.405   5.491   5.479 -0.1088  0.0410  0.0429
57403W        W58267  25.253   5.117   6.196  0.1939 -0.1941 -0.1878
57404W        W58268  25.438   4.938   4.610  0.0642  0.0313  0.1044
57405W        W58269  23.662   4.205   5.100 -0.1658  0.0413 -0.2728
57406W        W58270  26.265   7.357   6.413  0.2437 -0.0118  0.2182
57407W        W58271  22.971   8.870   7.546 -0.3210  0.2214  0.3088
57408W        W58272  23.381   5.215   5.670  0.1559  0.1263 -0.0247
57409W        W58273  25.312   7.063   6.291  0.1857 -0.1209  0.1283
57410W        W58274  21.974   2.878   3.763 -0.2933 -0.3164 -0.0154
57411W        W58275  23.113   6.271   4.683  0.1723  0.3544 -0.0983
57412W        W58276  21.020   7.838   3.695 -0.0771  0.0047 -0.1942
57413W        W58277  21.095   5.746   6.282  0.1322 -0.0461 -0.0687
57414W        W58278  23.154   5.523   4.358 -0.0339  0.2032 -0.0243
57415W        W58279  20.635   3.668   5.665 -0.2188 -0.2654  0.0238
57416W        W58280  22.633   3.129   1.975  0.0120  0.1404  0.2179
57417W        W58281  23.472   5.553   3.935  0.0543  0.0179 -0.2298
57418W        W58282  21.809   6.109   5.990  0.0923  0.0572 -0.0334
57419W        W58283  26.059   4.107   4.528 -0.2206  0.0404  0.2670
57420W        W58284  24.502   3.896   4.954  0.0115  0.2191 -0.1281
57421W        W58285  24.057   6.167   8.157  0.2449  0.1184 -0.1600
57422W        W58286  24.682   6.232   6.480 -0.2953 -0.1477 -0.1881
57423W        W58287  21.862   4.349   5.749 -0.0766 -0.0242  0.4721
57424W        W58288  20.857   4.877   3.858 -0.0055  0.0588  0.1487
57425W        W58289  22.308   4.305   3.318  0.1147  0.0001 -0.0455
57426W        W58290  22.557   4.255   5.137  0.2359  0.1409  0.0222
57427W        W58291  23.117   4.059   6.871  0.0494 -0.1113 -0.2286
57428W        W58292  22.876   5.081   3.219 -0.4877  0.1089 -0.2261
57429W        W58293  25.799   6.403   5.150 -0.5148  0.0441 -0.0829
57430W        W58294  25.250   5.531   5.439  0.0681 -0.1144  0.0571
57431W        W58295  24.354   6.972   6.824  0.0312 -0.1329 -0.0741
57432W        W58296  23.007   5.209   2.379 -0.0164  0.0913  0.0058
57433W        W58297  24.366   2.792   3.727 -0.0919 -0.3758  0.2219
57434W        W58298  24.320   3.402   4.989  0.1184 -0.0320  0.2515
57435W        W58299  22.434   5.091   5.182 -0.0272 -0.0903 -0.0909
57436W        W58300  20.666   5.279   3.601 -0.1723 -0.0851 -0.1471
57437W        W58301  22.617   6.404   1.357 -0.2504  0.0017 -0.2062
57438W        W58302  23.408   4.095   8.173  0.2535 -0.1994  0.1010
57439W        W58303  22.985   8.869   3.861 -0.2660  0.0208  0.2027
57440W        W58304  23.767   7.729   3.812 -0.3791  0.2804 -0.1819
57441W        W58305  22.317   5.900   5.261 -0.2418  0.1951  0.2840
57442W        W58306  22.565   3.169   5.941  0.1796 -0.1745  0.3479
57443W        W58307  23.787   5.302   4.396  0.1023  0.0707 -0.0870
57444W        W58308  24.963   6.536   7.516  0.1494  0.1260  0.0426
57445W        W58309  26.190   3.148   2.188  0.2960 -0.2523  0.1162
57446W        W58310  20.080   3.063   1.493 -0.2535  0.0304 -0.4888
57447W        W58311  24.364   7.078   7.749  0.1193  0.1929 -0.0071
57448W        W58312  23.868   7.524   7.524 -0.2551  0.0376  0.1543
57449W        W58313  21.609   7.054   5.065  0.0177 -0.0036 -0.1814
57450W        W58314  23.713   3.074   2.103 -0.0483  0.0040  0.2258
57451W        W58315  22.698   5.170   9.090 -0.0398 -0.4864  0.0840
57452W        W58316  24.353   3.602   6.240  0.2855  0.1584  0.1649
57453W        W58317  24.318   4.069   6.520 -0.0288 -0.1049  0.0652
57454W        W58318  22.927   5.237   3.984  0.2344  0.0101  0.0171
57455W        W58319  22.416   3.423   5.490  0.2293 -0.3408  0.2087
57456W        W58320  18.144   6.171   4.837  0.1141 -0.0335 -0.3096
57457W        W58321  23.460   2.715   3.681  0.2097 -0.0757  0.3929
57458W        W58322  26.362   3.083   5.689  0.2301 -0.0640  0.0306
57459W        W58323  21.498   2.797   3.646 -0.3075  0.1207  0.1126
57460W        W58324  24.016   4.246   8.231 -0.0430  0.0881 -0.0094
57461W        W58325  26.165   4.651   4.487  0.2589 -0.1320 -0.0904
57462W        W58326  22.996   6.290   3.809 -0.1461 -0.0325 -0.3246
57463W        W58327  24.561   4.802   5.107  0.2986  0.0992  0.1601
57464W        W58328  22.572   6.066   3.488  0.0492 -0.1071 -0.2100
57465W        W58329  22.269   5.657   3.403  0.1232  0.2709  0.1054
57466W        W58330  25.596   9.507   4.715 -0.1790 -0.3430  0.0677
57467W        W58331  25.410   7.062   4.628  0.3097 -0.0248  0.1416
57468W        W58332  23.453   7.645   2.568 -0.1962  0.1313  0.4566
57469W        W58333  21.954   7.944   6.506 -0.0169 -0.0229  0.0026
57470W        W58334  22.935   4.745   8.902 -0.0017  0.0525 -0.2151
57471W        W58335  21.500   5.661   7.243  0.0483 -0.1310 -0.1651
57472W        W58336  23.673   3.019   7.530  0.2073 -0.2149  0.2980
57473W        W58337  27.189   3.262   1.492 -0.0452  0.5777  0.2187
57474W        W58338  24.094   6.353   4.796  0.0505  0.0537  0.0685
57475W        W58339  24.062   6.146   2.458  0.0338  0.0264  0.1277
57476W        W58340  24.525   6.363   7.414  0.1570 -0.0146  0.0164
57477W        W58341  22.934   6.868   9.731 -0.0593 -0.0645  0.0103
57478W        W58342  27.427   2.075   7.366 -0.2385 -0.0964  0.0221
57479W        W58343  23.068   5.271   7.167  0.4504 -0.0244  0.0559
57480W        W58344  18.660   5.213   4.492  0.0656 -0.4464  0.0485
57481W        W58345  22.770   5.642   5.162  0.2527 -0.5188  0.1010
57482W        W58346  25.165   5.270   3.791 -0.0371 -0.2036 -0.0679
57483W        W58347  22.260   4.492   7.169 -0.0764  0.1591 -0.1552
57484W        W58348  22.317   6.915   5.020  0.1710 -0.2521  0.0296
57485W        W58349  25.287   5.100   6.695 -0.1026  0.3235  0.1470
57486W        W58350  25.243  10.601   3.629  0.0599 -0.0352 -0.2882
57487W        W58351  23.903   4.917   8.822 -0.2737  0.0454 -0.0932
57488W        W58352  24.998   4.469   5.856 -0.1694  0.1989  0.0048
57489W        W58353  22.647   5.222   6.298 -0.0224 -0.0027  0.0553
57490W        W58354  25.010   5.450   4.910  0.3565  0.0913  0.1145
57491W        W58355  23.365   5.018   3.965 -0.0364  0.0249 -0.0397
57492W        W58356  21.661   4.083   4.948 -0.1475  0.3138  0.2103
57493W        W58357  23.677   6.688   4.734 -0.1216 -0.0893 -0.1841
57494W        W58358  24.821   7.754   4.070 -0.1454 -0.1633 -0.0365
57495W        W58359  23.910   3.425   6.006  0.0352  0.0645  0.0097
57496W        W58360  22.539   6.481   5.399  0.3343 -0.1877 -0.4758
57497W        W58361  24.888   5.912   5.747 -0.4077  0.1029 -0.1452
57498W        W58362  22.089   5.585   6.351 -0.0212 -0.3274 -0.0253
57499W        W58363  21.354   4.478   8.415  0.1966  0.1184  0.2643
57500W        W58364  24.605   5.738   6.285  0.0825 -0.2209 -0.1381
57501W        W58365  22.520   2.415   5.282  0.0354 -0.1983  0.1975
57502W        W58366  25.042   4.589   5.332  0.1755  0.0305  0.0996
57503W        W58367  23.370   3.181   3.942  0.1202 -0.0975 -0.0939
57504W        W58368  25.780   5.143   6.279 -0.2474  0.0230  0.1267
57505W        W58369  21.529   6.673   8.234 -0.1672 -0.0670  0.1927
57506W        W58370  26.976   5.808   5.538  0.0081 -0.2900 -0.0807
57507W        W58371  21.678   3.939   5.461 -0.1390  0.2941 -0.2255
57508W        W58372  21.087   4.591   4.231 -0.1870  0.1632 -0.1121
57509W        W58373  22.691   7.656   6.176 -0.0729  0.2538  0.2745
57510W        W58374  24.524   9.032   8.011  0.0704  0.1327 -0.3430
57511W        W58375  24.991   5.431   6.487  0.1359  0.2434 -0.0009
57512W        W58376  20.744   6.349   2.573  0.4259 -0.0991  0.0088
57513W        W58377  24.944   9.164   6.245  0.2006 -0.1048 -0.0463
57514W        W58378  26.137   5.261   4.572 -0.0997  0.1141  0.0186
57515W        W58379  23.523   5.816  10.130 -0.0786  0.0402 -0.0319
57516W        W58380  27.149   4.324   4.020 -0.0099 -0.2421  0.3064
57517W        W58381  23.273   6.560   6.246 -0.2473 -0.1405 -0.1968
57518W        W58382  25.728   4.448   4.818  0.1613 -0.2599  0.1387
57519W        W58383  23.065   3.440   5.955  0.1016  0.1661 -0.2629
57520W        W58384  24.286   6.412   6.953 -0.0454  0.0480 -0.1146
57521W        W58385  20.909   7.609   4.899 -0.4326  0.2060  0.3166
57522W        W58386  22.811   6.923   4.459 -0.0782 -0.1206  0.0906
57523W        W58387  22.224   8.444  10.077  0.0128 -0.0016  0.1636
57524W        W58388  22.186   8.254   3.935  0.0244 -0.0873 -0.1404
57525W        W58389  26.453   3.539   3.480  0.0835  0.0687  0.1449
57526W        W58390  24.393   3.186   6.462 -0.1622 -0.0844  0.3188
57527W        W58391  24.493   4.611   4.656 -0.3135  0.0625  0.0746
57528W        W58392  23.416   4.691   4.304  0.0714  0.0196 -0.0145
57529W        W58393  23.997   6.005   5.222  0.0189  0.1198 -0.0741
57530W        W58394  26.514   6.930   5.632 -0.4782 -0.1096 -0.0279
57531W        W58395  20.839   6.373   7.618 -0.3112  0.0391  0.2635
57532W        W58396  27.376   8.117   6.788  0.1352  0.0527  0.0658
57533W        W58397  25.226   3.338   6.652 -0.0200 -0.2026  0.0744
57534W        W58398  24.201   5.005   4.672 -0.2563  0.1673  0.0389
57535W        W58399  21.592   4.630   7.898  0.0792  0.0397  0.1973
57536W        W58400  22.879   6.090   6.138 -0.2546 -0.2790 -0.1416
57537W        W58401  24.410   7.946   6.238  0.0253 -0.2558 -0.1224
57538W        W58402  22.853   3.316   5.350  0.0020 -0.1615 -0.4641
57539W        W58403  23.455   6.148   5.420 -0.1691  0.1084  0.0168
57540W        W58404  23.759   5.092   6.191 -0.1174  0.1323 -0.1417
57541W        W58405  24.370   5.012   6.415  0.0355 -0.1673  0.0404
57542W        W58406  25.759   6.300   1.406  0.0614 -0.1724  0.0414
57543W        W58407  23.681   3.585   7.561  0.2274 -0.0244 -0.0829
57544W        W58408  22.870   7.318   5.851  0.1716  0.4151  0.0300
57545W        W58409  22.713   5.898   4.413  0.0723 -0.3215 -0.2326
57546W        W58410  27.358   3.426   2.485 -0.3180 -0.1379 -0.0698
57547W        W58411  23.519   6.158   4.917 -0.0819 -0.1341 -0.0713
57548W        W58412  25.257   6.022   5.289  0.0974 -0.2120  0.0379
57549W        W58413  23.596   1.437   4.646 -0.0097  0.3375 -0.1341
57550W        W58414  23.647   3.837   5.602 -0.5368 -0.0090 -0.1892
57551W        W58415  21.077   5.641   3.510 -0.1708 -0.2158 -0.0960
57552W        W58416  23.275   5.971   3.556 -0.2691  0.2211 -0.2798
57553W        W58417  23.616   5.421   3.018  0.0244  0.0512 -0.0690
57554W        W58418  25.751   7.860   6.121  0.0323  0.3095 -0.2471
57555W        W58419  25.212   6.534   3.498 -0.1459  0.0169  0.3543
57556W        W58420  25.027   6.244   6.162  0.0696 -0.0194 -0.2378
57557W        W58421  22.046   9.205   4.958  0.0664  0.2068 -0.0505
57558W        W58422  20.323   8.013   1.214  0.0489  0.2708 -0.3192
57559W        W58423  23.746   3.270   7.940  0.3619  0.1483 -0.0313
57560W        W58424  23.804   6.168   6.122 -0.0208 -0.1881 -0.1860
57561W        W58425  24.411   4.331   5.275  0.4496 -0.1842  0.0794
57562W        W58426  23.141   7.202   4.274  0.0280 -0.2969  0.0502
57563W        W58427  25.141  11.274   6.506 -0.2283 -0.2191  0.2902
57564W        W58428  24.826   6.923   9.170 -0.0849 -0.0693  0.0186
57565W        W58429  23.646   2.348   3.168 -0.2471  0.1274  0.1580
57566W        W58430  26.461   7.181   7.586  0.1976 -0.1242 -0.1426
57567W        W58431  22.820   6.578   6.928  0.1515  0.1020 -0.2825
57568W        W58432  23.672   4.908   4.726  0.2412  0.1823  0.0268
57569W        W58433  22.558   6.397   7.495  0.1139 -0.2344  0.0343
57570W        W58434  24.160   6.227   4.283  0.1099  0.0742  0.0910
57571W        W58435  26.588   8.760   4.022  0.0566 -0.0441 -0.0238
57572W        W58436  24.175   8.696   8.070 -0.0018  0.0586 -0.1870
57573W        W58437  21.381   7.626   5.164 -0.0346  0.1334  0.1944
57574W        W58438  21.713   4.076   3.959 -0.1260 -0.1314 -0.4705
57575W        W58439  25.546   3.581   4.203 -0.1035  0.0819  0.0468
57576W        W58440  20.957   5.448   5.439  0.2676 -0.3163  0.3103
57577W        W58441  24.011   5.720   4.204 -0.2523 -0.0448 -0.0237
57578W        W58442  22.976   7.559   2.356 -0.2859 -0.2045  0.1693
57579W        W58443  27.389   8.903   3.902  0.1851  0.0559  0.0904
57580W        W58444  22.110   3.768   8.492 -0.0656 -0.0743 -0.0097
57581W        W58445  23.953   8.227   4.839 -0.1825  0.0963 -0.4037
57582W        W58446  23.900   8.165   3.779 -0.0825  0.0555 -0.0541
57583W        W58447  25.725   7.149   6.727 -0.2884  0.3709 -0.3078
57584W        W58448  23.116   5.793   4.793  0.1094 -0.1207 -0.1612
57585W        W58449  21.629   6.666   1.453 -0.1829 -0.2193 -0.1406
57586W        W58450  22.822   5.218   4.853 -0.0985 -0.2352 -0.0820
57587W        W58451  18.312   4.400   4.875 -0.1906  0.0675  0.1267
57588W        W58452  22.539   2.316   5.790 -0.1369  0.0115 -0.2782
57589W        W58453  23.562   6.199   2.571 -0.0663  0.3438 -0.0900
57590W        W58454  24.371   4.968   5.932  0.2585 -0.0820 -0.0373
57591W        W58455  26.587   6.045   6.818 -0.0583  0.1522 -0.1574
57592W        W58456  27.085   6.110   6.869 -0.2463  0.0399  0.2662
57593W        W58457  25.869   5.038   6.829 -0.3846 -0.1501  0.2527
57594W        W58458  23.174   6.873   5.628 -0.0334 -0.0964  0.0294
57595W        W58459  24.065   5.884   3.228  0.1045  0.0675  0.1892
57596W        W58460  22.926  10.113   5.459  0.1478 -0.0856  0.0723
57597W        W58461  23.197   4.787   5.496  0.4790 -0.2675  0.0355
57598W        W58462  24.619   6.381   4.152  0.0062  0.0418 -0.0193
57599W        W58463  21.861   7.372   4.827  0.0992  0.0264 -0.0062
57600W        W58464  23.525   3.746   6.075 -0.1548  0.1704  0.0072
57601W        W58465  21.886   7.608   3.237 -0.1275 -0.0241 -0.0417
57602W        W58466  24.583   4.625   5.634  0.0015 -0.2522 -0.1761
57603W        W58467  23.306   6.132   6.937  0.1750  0.1425  0.1945
57604W        W58468  22.706   6.676   3.926 -0.2076  0.0692  0.0572
57605W        W58469  21.098   5.534   4.973 -0.5554  0.0569 -0.1062
57606W        W58470  22.759   4.430   5.671 -0.1216 -0.0163 -0.0117
57607W        W58471  21.397   3.748   3.796 -0.0912 -0.0730 -0.3033
57608W        W58472  27.623   6.181   6.490 -0.1418  0.1324 -0.3019
57609W        W58473  23.237   2.939   2.721 -0.1764 -0.1674  0.0224
57610W        W58474  25.867   8.392   6.002 -0.0963  0.0830 -0.2601
57611W        W58475  25.122   5.241   4.285 -0.0696  0.0548  0.2051
57612W        W58476  23.401   8.519   4.355 -0.2716 -0.2203 -0.2238
57613W        W58477  25.862   5.806   4.537 -0.1607 -0.0806 -0.0425
57614W        W58478  22.109   9.631   4.285  0.2964  0.3018  0.0582
57615W        W58479  23.606   5.543   7.401 -0.0498  0.1255  0.2286
57616W        W58480  23.204   4.783   7.082  0.1078  0.1366  0.0880
57617W        W58481  21.404   5.800   6.758 -0.0937 -0.0073 -0.0349
57618W        W58482  22.412   6.860   2.692  0.0710 -0.0128  0.0071
57619W        W58483  22.171   4.944   8.481  0.0742  0.1130 -0.3118
57620W        W58484  21.697   4.969   4.468 -0.1310  0.0023  0.0165
57621W        W58485  22.687   5.889   5.602  0.0440  0.1608 -0.1278
57622W        W58486  23.979   6.339   3.370 -0.0363 -0.0170 -0.2338
57623W        W58487  22.162   6.097   7.338 -0.6356  0.0509  0.1219
57624W        W58488  25.673   7.669   4.454 -0.0448  0.0369 -0.0988
57625W        W58489  25.172   4.766   4.136  0.0448 -0.0756 -0.4033
57626W        W58490  23.078   2.081   3.048  0.1375  0.2016 -0.2622
57627W        W58491  23.832   7.132   3.905 -0.0311  0.3093  0.0630
57628W        W58492  23.522   5.261   7.006 -0.0373  0.1313 -0.1179
57629W        W58493  24.030   3.469   5.542 -0.1891 -0.0620 -0.2212
57630W        W58494  23.925   7.297   5.026 -0.1095  0.2426  0.2690
57631W        W58495  24.422   7.274   5.104 -0.2469 -0.2478 -0.0560
57632W        W58496  24.365   6.671   6.287  0.1646 -0.0696 -0.4237
57633W        W58497  22.712   7.103   6.283 -0.0664  0.1038  0.2313
57634W        W58498  21.891   5.389   4.567  0.0302 -0.2382 -0.0694
57635W        W58499  24.915   5.022   5.794 -0.1011  0.0139 -0.1172
57636W        W58500  24.952   5.405   7.020 -0.1581  0.0706  0.0914
57637W        W58501  20.116   4.516   4.082  0.0379  0.2946  0.2176
57638W        W58502  25.358   6.304   4.830  0.3770 -0.1333 -0.4221
57639W        W58503  22.054   2.205   4.566 -0.1379 -0.1255 -0.1018
57640W        W58504  21.433   4.008   8.799  0.0147 -0.3492  0.0327
57641W        W58505  25.312   4.268   5.054 -0.1561 -0.1451 -0.0935
57642W        W58506  25.794   6.860   6.225  0.0993 -0.2422 -0.1559
57643W        W58507  24.276   2.351   6.986 -0.0490  0.1895 -0.1871
57644W        W58508  25.775   7.461   5.462  0.0600 -0.0862  0.3019
57645W        W58509  24.664   7.919   7.933  0.2958  0.1369 -0.1675
57646W        W58510  23.698   7.149   6.088 -0.0859 -0.1083 -0.0380
57647W        W58511  25.169   7.634   7.126  0.3522  0.2117 -0.0180
57648W        W58512  21.676   6.174   4.920  0.3249  0.1849 -0.2226
57649W        W58513  23.232   4.324   7.292 -0.1085 -0.1384  0.0950
57650W        W58514  25.533   7.461   5.878  0.0562 -0.0374 -0.0925
57651W        W58515  21.808   8.218   6.097  0.0332  0.2409 -0.0548
57652W        W58516  22.924   6.182   5.239 -0.4379  0.3086 -0.1741
57653W        W58517  24.939   2.356   9.818  0.0111 -0.0868 -0.0711
57654W        W58518  24.148   6.843   4.984  0.4014 -0.2093  0.0763
57655W        W58519  23.037   6.285   5.687 -0.0612  0.0975 -0.0528
57656W        W58520  23.120   7.778   6.387 -0.2236  0.2643  0.2533
57657W        W58521  20.338   1.451   1.494  0.0504 -0.0710  0.2183
57658W        W58522  22.931   7.360   9.766 -0.0894  0.2667 -0.1711
57659W        W58523  21.950   1.997  10.941 -0.0250  0.1561  0.3067
57660W        W58524  27.075   7.870   6.472  0.1816 -0.0103  0.0972
57661W        W58525  26.251   5.350   8.794 -0.2987  0.0365  0.0117
57662W        W58526  22.107   6.833  10.127 -0.2718 -0.0856  0.2215
57663W        W58527  23.790   4.354  10.426  0.2920  0.2106 -0.0379
57664W        W58528  19.654   4.780   8.903  0.1363  0.0043 -0.4183
57665W        W58529  22.264   5.291   6.004 -0.3158  0.0990 -0.2083
57666W        W58530  21.178   8.085   8.687  0.1897  0.1402 -0.0768
57667W        W58531  22.893   5.000   8.179  0.3215  0.0625  0.0526
57668W        W58532  20.429   3.430   7.692  0.0164 -0.1744 -0.2464
57669W        W58533  22.284   5.858   8.629 -0.0975  0.1545  0.0180
57670W        W58534  24.932   6.374   8.458  0.1250 -0.0361  0.1957
57671W        W58535  25.280   4.992  10.594 -0.0481  0.1993  0.3591
57672W        W58536  22.289   3.629  11.364  0.0848 -0.2790  0.1734
57673W        W58537  23.812   6.549   9.627  0.1642 -0.0219 -0.0364
57674W        W58538  21.942   7.208   8.849 -0.2114 -0.0292 -0.3891
57675W        W58539  21.903   3.909  10.003 -0.1219 -0.0987  0.2873
57676W        W58540  22.671   4.540   9.891 -0.0212  0.1673  0.1933
57677W        W58541  24.392   6.629  11.872  0.0685  0.1900  0.0195
57678W        W58542  27.311   7.931   7.743  0.0534 -0.2091 -0.2145
57679W        W58543  23.480   7.172   7.376 -0.3079 -0.1365  0.0836
57680W        W58544  23.732   8.960   8.491 -0.0149 -0.1570 -0.2411
57681W        W58545  21.448   6.316   8.674  0.0965  0.0890  0.2717
57682W        W58546  21.346   4.966   8.880  0.1004 -0.2401  0.0180
57683W        W58547  22.987   5.528   9.373 -0.2165 -0.0763 -0.1828
57684W        W58548  25.347   4.541  10.949 -0.0144 -0.0574  0.1512
57685W        W58549  22.376   5.470  10.260  0.0219  0.1435  0.1618
57686W        W58550  24.125   4.401  12.898 -0.2838 -0.0850  0.0465
57687W        W58551  20.679   4.605   9.606 -0.1116 -0.1735 -0.0707
57688W        W58552  22.531   7.706  10.010 -0.2697  0.0287 -0.0009
57689W        W58553  25.960   8.865   9.433  0.1720 -0.0639  0.1652
57690W        W58554  21.902   5.832   9.034 -0.2309 -0.4321  0.2893
57691W        W58555  22.727   5.678  10.912  0.0349  0.1348 -0.1197
57692W        W58556  21.747   3.471   8.736  0.1069  0.0380  0.0441
57693W        W58557  25.284   6.731   9.139  0.1984 -0.1808 -0.1474
57694W        W58558  20.936   4.984  10.203  0.1905 -0.0687  0.0304
57695W        W58559  25.096   8.061  10.045 -0.0423 -0.0179 -0.2129
57696W        W58560  23.878   6.687   6.166 -0.1547 -0.0699 -0.0184
57697W        W58561  24.849   5.368  12.146  0.0813  0.2349 -0.0704
57698W        W58562  27.102   5.469   5.910 -0.2616 -0.0794 -0.1625
57699W        W58563  25.422   4.089  11.886  0.1308  0.2607 -0.0147
57700W        W58564  23.121   6.379   7.872 -0.0430 -0.3399  0.2529
57701W        W58565  26.032   5.590   6.347  0.2079  0.1741 -0.1764
57702W        W58566  21.260   7.617   5.962 -0.0823  0.1070 -0.2263
57703W        W58567  20.515   7.467   9.161 -0.1698  0.2160  0.1213
57704W        W58568  23.728   2.477   9.490  0.1797 -0.2861  0.1905
57705W        W58569  23.845   4.162   7.430 -0.0700 -0.0437  0.3715
57706W        W58570  22.950   6.851   8.132  0.1265  0.0577  0.1325
57707W        W58571  24.063   5.848   5.773  0.1070  0.1146 -0.1061
57708W        W58572  22.654   4.564   9.315 -0.0544 -0.1384  0.0530
57709W        W58573  25.066   5.364   8.816 -0.2812  0.2999 -0.2255
57710W        W58574  23.513   8.279  10.781  0.0458 -0.0511 -0.0965
57711W        W58575  24.477   3.208   7.008 -0.1832 -0.0949  0.1198
57712W        W58576  24.811   4.668   9.192  0.1367  0.3256 -0.1028
57713W        W58577  22.638   6.207   8.592  0.1330 -0.0165 -0.3238
57714W        W58578  20.283   2.958   9.430  0.0949  0.3463 -0.1029
57715W        W58579  25.117   2.531  10.613  0.3917  0.0451  0.3237
57716W        W58580  25.386   4.433   9.719 -0.1298  0.0806  0.1327
57717W        W58581  21.584   3.485   6.266  0.2818 -0.0229  0.1832
57718W        W58582  24.786   4.046  10.751 -0.0115 -0.0104  0.0899
57719W        W58583  20.918   9.187   9.266 -0.2534  0.0319  0.1655
57720W        W58584  23.509   7.870  10.004 -0.0686  0.1236 -0.0504
57721W        W58585  22.645   8.502   9.386 -0.1081 -0.2138 -0.2146
57722W        W58586  23.669   4.139   8.666  0.2753 -0.1359  0.2997
57723W        W58587  25.775   1.919   7.240  0.3062 -0.1779 -0.1028
57724W        W58588  23.900   6.640   8.593 -0.2028 -0.0618  0.1002
57725W        W58589  23.893   6.118   8.715  0.3093  0.0511 -0.1364
57726W        W58590  23.734   8.030   7.512 -0.3586 -0.1824 -0.1542
57727W        W58591  21.360   7.816   8.144 -0.0868 -0.1131 -0.3802
57728W        W58592  25.074   4.758   8.690  0.4677  0.1892 -0.1179
57729W        W58593  22.413   4.147   9.048 -0.0975  0.3291 -0.0563
57730W        W58594  25.133   7.079   8.311 -0.0253  0.0168 -0.1865
57731W        W58595  23.631   4.421   9.963  0.5390  0.1231  0.2013
57732W        W58596  23.713   7.179   8.434  0.3177 -0.0624 -0.2516
57733W        W58597  24.501   5.242   9.419 -0.1521  0.0800 -0.0648
57734W        W58598  23.843   6.160   6.868  0.2452  0.1716 -0.2101
57735W        W58599  22.180   6.314   8.311  0.1208  0.2291  0.1019
57736W        W58600  22.556   6.684   8.438 -0.1261 -0.0441  0.1178
57737W        W58601  23.481   5.750   8.623  0.2047  0.0349 -0.2444
57738W        W58602  23.602   2.181   9.009 -0.2424 -0.0319 -0.3255
57739W        W58603  23.365   7.120   9.867  0.0046 -0.1612  0.0562
57740W        W58604  21.390   2.968   7.800 -0.0018  0.1244 -0.2056
57741W        W58605  23.904   4.528   9.559 -0.1197  0.0579 -0.2339
57742W        W58606  24.017   4.852  11.071 -0.4090  0.1681 -0.1155
57743W        W58607  22.932   3.456   8.244 -0.0855 -0.2550 -0.2690
57744W        W58608  23.405   6.286   9.896 -0.1999  0.1059 -0.1648
57745W        W58609  21.655   2.889  10.398 -0.1214 -0.2863  0.0677
57746W        W58610  23.569   4.467  12.127 -0.1707  0.3357 -0.1560
57747W        W58611  23.835   5.849  12.482  0.3679  0.0475 -0.2950
57748W        W58612  25.344   4.998   9.103 -0.0040 -0.0134  0.1086
57749W        W58613  24.574   5.101  11.785  0.1975 -0.3535 -0.2641
57750W        W58614  22.034   7.680   9.685 -0.1177  0.1167  0.0363
57751W        W58615  24.617   6.512  10.039 -0.0926 -0.1973  0.0037
57752W        W58616  23.147   1.883   8.988  0.0049 -0.1997  0.2335
57753W        W58617  25.085   0.339   6.835 -0.0371  0.2606 -0.2098
57754W        W58618  24.178   6.013   7.374  0.0493 -0.2174 -0.2221
57755W        W58619  22.716   8.063   9.192 -0.1215  0.3653  0.2326
57756W        W58620  21.031   2.105   8.360  0.1376  0.2240 -0.2234
57757W        W58621  24.608   6.303   8.096 -0.1992  0.0122  0.3652
57758W        W58622  23.196   7.469   8.778 -0.0469 -0.4192  0.0298
57759W        W58623  22.694   4.282   8.669  0.0902 -0.2396  0.1706
57760W        W58624  22.291   7.173   8.323 -0.0471 -0.0050  0.0090
57761W        W58625  22.666   7.150   9.371 -0.0787 -0.3119 -0.0346
57762W        W58626  24.374   6.740   8.889 -0.2090  0.1435 -0.0447
57763W        W58627  23.910   3.555   9.295  0.0106 -0.0646  0.0747
57764W        W58628  22.376   6.346   6.901  0.0336 -0.1272 -0.1824
57765W        W58629  23.431   4.089  11.246 -0.0873 -0.2097  0.1811
57766W        W58630  25.122   4.874   9.566 -0.1853 -0.0518  0.0165
57767W        W58631  23.138   4.671   7.645  0.0665 -0.1345  0.0593
57768W        W58632  20.403   6.277   9.843  0.0350  0.0383 -0.2464
57769W        W58633  22.678   8.907   9.047  0.2624 -0.0323 -0.4095
57770W        W58634  26.493   6.566  10.882  0.2064 -0.1721  0.1419
57771W        W58635  22.880   6.322  11.235  0.3090  0.2322  0.0042
57772W        W58636   0.307   6.491   7.956  0.2753 -0.2539  0.2114
57773W        W58637  24.875   4.752  11.369  0.0863 -0.0734  0.0107
57774W        W58638  26.042   1.553  12.060  0.4581  0.1785 -0.0318
57775W        W58639  24.234   7.022   8.472  0.4377 -0.0356  0.0516
57776W        W58640  22.060   2.988  12.005 -0.0173  0.3327 -0.0483
57777W        W58641  25.632   3.810   5.731 -0.1316 -0.1014 -0.0624
57778W        W58642  27.792   5.679   7.054  0.2280  0.1999 -0.0255
57779W        W58643  23.198   6.127  10.360 -0.1542  0.2399 -0.0564
57780W        W58644  22.757   7.376   8.017 -0.1228 -0.1107  0.0074
57781W        W58645  25.435   2.230   6.904  0.0267  0.2068 -0.1360
57782W        W58646  23.936   6.478   7.295 -0.1941 -0.0083  0.0807
57783W        W58647  23.924   5.328   6.582 -0.0642  0.0161  0.0589
57784W        W58648  22.165   6.274   7.840 -0.0558  0.2221  0.2058
57785W        W58649  23.338   6.591  10.806  0.1889 -0.1320  0.1348
57786W        W58650  27.122   5.795   9.376 -0.2348 -0.0475  0.1237
57787W        W58651  21.586   7.677   8.730 -0.1493 -0.3464  0.4586
57788W        W58652  24.664   8.022   8.490  0.3043 -0.0714 -0.1347
57789W        W58653  24.583   3.826  10.188 -0.0644 -0.2057  0.3252
57790W        W58654  22.579   8.860   9.762 -0.0407  0.0199  0.0247
57791W        W58655  27.933   5.325   5.874  0.0053 -0.2162 -0.2361
57792W        W58656  26.159   5.014   7.249 -0.1672  0.1992 -0.2353
57793W        W58657  19.327   3.511  10.286  0.0682  0.0067  0.1391
57794W        W58658  22.740   5.018  10.069  0.0664  0.0426  0.1606
57795W        W58659  24.372   3.295   9.326  0.0672  0.2908  0.0518
57796W        W58660  23.523   6.180   8.312  0.0692 -0.0830  0.1867
57797W        W58661  21.843   5.836   7.677 -0.0486 -0.1749  0.0901
57798W        W58662  18.426   3.315   7.328 -0.2304 -0.3687  0.0075
57799W        W58663  24.661   5.065   8.717  0.2809  0.0628  0.2361
57800W        W58664  20.687   9.488   7.096  0.1518  0.1408 -0.1224
57801W        W58665  24.363   5.041   8.292  0.2072 -0.1142 -0.1295
57802W        W58666  22.493   6.397   9.444 -0.0690 -0.2038 -0.1794
57803W        W58667  22.321   2.828   8.826  0.1367 -0.1099  0.0646
57804W        W58668  24.385   4.530   7.979  0.2004 -0.0929  0.0745
57805W        W58669  25.875   6.444   7.505  0.0083  0.1439  0.1827
57806W        W58670  22.068   5.076  10.425  0.2750 -0.2344  0.3465
57807W        W58671  23.609   6.128   9.466 -0.1667  0.0099  0.1279
57808W        W58672  22.423   5.606   9.208 -0.1792  0.2780  0.1823
57809W        W58673  24.557   3.803   7.903  0.1198  0.1526  0.1041
57810W        W58674  25.164   5.141   7.551 -0.0012 -0.1685  0.3561
57811W        W58675  22.271   5.121   9.304  0.0285  0.1084 -0.4448
57812W        W58676  26.348   5.612   9.835  0.1198 -0.0974 -0.0415
57813W        W58677  24.768   2.667   9.484  0.4319  0.1720  0.0034
57814W        W58678  21.231   3.554   8.797 -0.1960  0.2435 -0.1840
57815W        W58679  23.066   4.000   5.960  0.0638  0.3156 -0.1174
57816W        W58680  24.607   3.899   8.725 -0.0395  0.1997 -0.5307
57817W        W58681  24.049   7.363   8.043 -0.1712  0.5241 -0.4701
57818W        W58682  22.951   2.901   9.525  0.2060 -0.1022 -0.2556
57819W        W58683  22.167   2.622   9.707  0.2874  0.0226 -0.2447
57820W        W58684  23.252   5.128  11.435  0.1684 -0.0535  0.1559
57821W        W58685  21.315   2.715   9.554  0.1015  0.1956  0.0238
57822W        W58686  23.719   7.011   9.452 -0.1529 -0.0865  0.0474
57823W        W58687  23.262   3.627  10.060  0.1294  0.0794 -0.1849
57824W        W58688  21.034   3.408   9.513 -0.0287  0.3806 -0.2463
57825W        W58689  20.756   8.667   6.927  0.3588 -0.1524 -0.0143
57826W        W58690  24.260   5.850  11.139 -0.0414 -0.2450  0.0375
57827W        W58691  22.007   6.675   8.013 -0.0368 -0.2423  0.2094
57828W        W58692  23.125   5.525   6.269  0.0416  0.1920 -0.3144
57829W        W58693  25.312   3.643  10.011 -0.0545 -0.2163 -0.0795
57830W        W58694  24.205   3.866  12.040 -0.1758 -0.0638  0.1872
57831W        W58695  21.925   7.584   6.868 -0.4160 -0.2684  0.1158
57832W        W58696  23.410   3.978   7.678  0.1417 -0.1775  0.0890
57833W        W58697  25.503   3.440   7.660  0.1404 -0.0026  0.2295
57834W        W58698  20.937   7.379  10.665  0.1963  0.3629  0.0009
57835W        W58699  22.975   4.255   9.106 -0.1954  0.4173  0.0508
57836W        W58700  21.709   6.314   7.614 -0.2861  0.1928  0.1621
57837W        W58701  22.205   3.569   7.690 -0.1181  0.1023 -0.1836
57838W        W58702  21.654   7.615  10.063  0.0006  0.0430  0.1486
57839W        W58703  23.178   5.658   5.462  0.2624 -0.1820  0.1371
57840W        W58704  23.020   5.224   5.296 -0.2583 -0.0576  0.0750
57841W        W58705  25.294   7.220   9.371  0.2194  0.0488  0.0320
57842W        W58706  20.828   4.942   6.144  0.1623 -0.1306 -0.3177
57843W        W58707  25.059   5.791  10.091  0.1611 -0.1494 -0.1106
57844W        W58708  28.014   4.127   8.402 -0.1113  0.1274 -0.0009
57845W        W58709  21.888   3.776   5.946  0.0936 -0.0419  0.1348
57846W        W58710  23.169   5.447  11.054 -0.1499 -0.2889 -0.2284
57847W        W58711  20.670   6.514   9.494  0.3656  0.0355 -0.1622
57848W        W58712  22.727   7.567   8.849  0.3667 -0.0847  0.0947
57849W        W58713  22.674   7.989   8.023  0.2184 -0.0503  0.2502
57850W        W58714  22.253   5.069   9.922 -0.1941 -0.0973 -0.1686
57851W        W58715  24.274   5.241  10.345  0.1243 -0.0472 -0.0928
57852W        W58716  24.025   2.032   9.368  0.0680  0.1034  0.0937
57853W        W58717  20.487   3.972   6.282  0.2787 -0.1373  0.0617
57854W        W58718  25.470   5.212  10.114  0.3331 -0.3414 -0.0066
57855W        W58719  21.657   4.499   8.818  0.2252  0.2514  0.0449
57856W        W58720  21.293   3.402   7.439 -0.2101  0.0912  0.1630
57857W        W58721  24.213   1.179  10.429 -0.0784 -0.1090  0.2602
57858W        W58722  24.607   5.413   7.878  0.2103  0.1219 -0.1775
57859W        W58723  23.489   3.995  10.176  0.3324  0.1522 -0.0114
57860W        W58724  25.584   5.466   6.550  0.4057  0.0422  0.0880
57861W        W58725  24.416   3.297   8.808  0.0059 -0.0134 -0.4129
57862W        W58726  25.836   3.848  10.914 -0.0978 -0.1060  0.0591
57863W        W58727  21.553   3.402   5.802  0.1264 -0.0042 -0.0972
57864W        W58728  22.675   5.451   9.828 -0.0373  0.5170 -0.0094
57865W        W58729  22.947   7.613   9.311  0.0193  0.1402  0.1174
57866W        W58730  20.238   4.665   9.017 -0.0352  0.1524  0.0725
57867W        W58731  20.609   5.035   4.415  0.1223 -0.1463  0.1553
57868W        W58732  22.910   6.822  11.110 -0.2055  0.0358  0.1071
57869W        W58733  22.542   4.674   8.368  0.1880 -0.0412 -0.2126
57870W        W58734  21.621   2.962   8.762  0.0022 -0.0445  0.1734
57871W        W58735  24.679   4.705   9.692  0.3510 -0.3308 -0.2715
57872W        W58736  24.765   4.592   8.262 -0.2017 -0.2219 -0.0930
57873W        W58737  26.042   7.520   6.808 -0.1388  0.0940 -0.0748
57874W        W58738  24.787   6.751   6.966 -0.1870  0.3108 -0.0572
57875W        W58739  23.520   6.898   6.543 -0.3505  0.3121  0.1130
57876W        W58740  23.579   4.923   9.842  0.0769  0.0130  0.1457
57877W        W58741  25.177   6.299   8.947  0.1021 -0.2599 -0.1167
57878W        W58742  24.391   4.544  11.204  0.2741 -0.0310 -0.1496
57879W        W58743  24.341   5.672  11.695  0.1118  0.2224 -0.1237
57880W        W58744  22.643   7.559  11.996 -0.0490  0.0859  0.4659
57881W        W58745  23.923   2.337   7.323 -0.0937 -0.1471 -0.3691
57882W        W58746  24.851   6.087   7.672 -0.0217 -0.2163  0.0906
57883W        W58747  24.675   6.139  10.932 -0.0167  0.2764  0.1381
57884W        W58748  24.280   5.750   9.451  0.3035  0.0863 -0.1103
57885W        W58749  24.266   4.247  10.320 -0.0994  0.2152 -0.0539
57886W        W58750  22.105   9.691   8.919  0.0514  0.1529 -0.2291
57887W        W58751  23.404   4.909   8.034 -0.2283 -0.0804  0.0397
57888W        W58752  21.103   2.453  10.465 -0.2348 -0.4628  0.0208
57889W        W58753  23.698   3.356  10.183 -0.0660 -0.0900 -0.1927
57890W        W58754  20.990   5.221  10.644  0.1951 -0.0250 -0.1544
57891W        W58755  21.990   5.851   8.168  0.0128 -0.0739 -0.2374
57892W        W58756  22.601   2.228  10.307 -0.0250 -0.0556  0.0710
57893W        W58757  22.786   8.302   7.648  0.2514 -0.0235 -0.0113
57894W        W58758  26.413   7.093   8.990 -0.2147  0.3093 -0.3259
57895W        W58759  24.457   4.747  10.128 -0.0565 -0.0627 -0.0848
57896W        W58760  24.674   8.258   8.954 -0.1483  0.1077 -0.4166
57897W        W58761  23.579   7.504   9.179  0.1379  0.1724  0.0866
57898W        W58762  23.875   7.002   8.941  0.2375  0.2172  0.2923
57899W        W58763  22.233   6.352   9.935 -0.1427  0.3194 -0.1021
57900W        W58764  22.401   4.819   8.936 -0.1955  0.1701  0.0964
57901W        W58765  24.316   3.616   9.791  0.2914  0.2384 -0.1622
57902W        W58766  25.344   1.731   9.393  0.0524  0.1286 -0.0430
57903W        W58767  21.786   4.858   9.952  0.1486  0.0811  0.0626
57904W        W58768  24.609   6.874   8.140 -0.0346 -0.1761  0.0327
57905W        W58769  22.078   9.502   6.323 -0.1682  0.2717  0.0305
57906W        W58770  24.788   9.629  10.698  0.2909  0.0993 -0.3525
57907W        W58771  23.412   3.594   9.236 -0.0537 -0.0748  0.0300
57908W        W58772  20.109   5.333   9.528 -0.0881 -0.1814 -0.0036
57909W        W58773  19.801   7.269   9.814 -0.2765  0.3642  0.1405
57910W        W58774  25.157   7.176  11.567  0.1571  0.0498 -0.0796
57911W        W58775  23.467   7.671   7.282 -0.0924  0.0982  0.1012
57912W        W58776  20.323   3.719   7.312 -0.0271  0.3766  0.2168
57913W        W58777  23.285   8.286  10.131 -0.0803  0.1468 -0.2792
57914W        W58778  23.848   5.281   7.887  0.0653  0.0205  0.2641
57915W        W58779  23.469   3.284   8.860  0.1280  0.1351  0.1765
57916W        W58780  23.896   6.870   7.597  0.0469  0.0420 -0.1357
57917W        W58781  24.691   5.512  10.901  0.0526 -0.0595  0.1010
57918W        W58782  23.647   5.299   8.909  0.0868  0.3213 -0.0398
57919W        W58783  23.880   7.684  10.501 -0.1651 -0.1064 -0.1808
57920W        W58784  23.078   7.523  10.722  0.0039  0.3533  0.2335
57921W        W58785  20.890   2.804  11.837 -0.0861 -0.0046  0.5142
57922W        W58786  21.368   7.218  10.246 -0.0449 -0.0978  0.1562
57923W        W58787  22.421   6.554  11.995  0.0682 -0.1790  0.2987
57924W        W58788  22.876   6.747   7.662 -0.3030  0.1573  0.0173
57925W        W58789  23.997   7.539   8.680  0.1226 -0.1290 -0.1326
57926W        W58790  24.202   6.816  11.392 -0.0693 -0.0777 -0.3793
57927W        W58791  26.526   4.702   6.424 -0.2615 -0.1516 -0.0067
57928W        W58792  20.576   6.824   8.202  0.1664  0.0038  0.0545
57929W        W58793  25.586   5.168   9.594  0.1544  0.2191  0.1076
57930W        W58794  20.965   3.569  10.308  0.2995  0.0080  0.0353
57931W        W58795  20.409   5.295  10.784 -0.3655 -0.0340  0.3371
57932W        W58796  25.393   6.677   7.588 -0.3406  0.0117 -0.1019
57933W        W58797  24.627   4.526  10.804  0.0592 -0.1748  0.1119
57934W        W58798  19.636   5.468   9.703 -0.0867 -0.0714 -0.5021
57935W        W58799  22.580   9.358   7.628 -0.3131  0.0283 -0.0936
57936W        W58800  22.317   4.323   6.517 -0.1673 -0.3749  0.1828
57937W        W58801  21.683   4.720   9.452  0.3016 -0.3427  0.2259
57938W        W58802  23.722   4.988  11.596 -0.1353 -0.0511  0.3367
57939W        W58803  24.178   5.350   8.859 -0.0361  0.4613 -0.1279
57940W        W58804  23.109   5.355   8.847  0.1562  0.2607  0.1331
57941W        W58805  21.313   4.845   9.823 -0.3193  0.2792 -0.0205
57942W        W58806  24.438   5.895   7.820  0.1629  0.0088  0.2487
57943W        W58807  26.149   3.830   7.461  0.3920 -0.2361 -0.0655
57944W        W58808  22.868   5.229  10.505  0.3075 -0.2931 -0.0001
57945W        W58809  23.149   5.962  10.877 -0.1829  0.2136 -0.2965
57946W        W58810  26.194   4.481   5.211 -0.0725 -0.0993  0.1628
57947W        W58811  25.010   6.900   7.870  0.0117  0.2255 -0.2269
57948W        W58812  24.977   3.118   7.163 -0.0172 -0.0409 -0.1736
57949W        W58813  26.425   4.020   8.521 -0.1549  0.0100 -0.2246
57950W        W58814  23.465   8.310   9.620  0.0616  0.0898  0.0281
57951W        W58815  24.163   5.036   6.924 -0.1454  0.3895 -0.5308
57952W        W58816  25.329   7.631  10.075 -0.0803  0.0031  0.0597
57953W        W58817  23.511   4.159   9.163  0.2756 -0.4037  0.0626
57954W        W58818  23.886   4.145   6.781 -0.1915 -0.0579  0.1021
57955W        W58819  25.422   7.526   8.107  0.0346  0.3930 -0.2374
57956W        W58820  23.961   4.585   7.111 -0.2267 -0.0925 -0.1385
57957W        W58821  24.625   6.933   9.718  0.0371 -0.1399  0.2458
57958W        W58822  20.371   6.488   8.559  0.1270 -0.0404 -0.2042
57959W        W58823  20.036   2.990  10.168  0.0565 -0.0323 -0.3595
57960W        W58824  21.853   7.183   9.915  0.1195 -0.3771  0.0154
57961W        W58825  24.662   8.128   7.484  0.2527  0.4857  0.0124
57962W        W58826  22.370   4.808   6.774 -0.2099  0.2190 -0.0278
57963W        W58827  23.866   5.481   9.764  0.0506  0.2747 -0.0502
57964W        W58828  24.189   6.025  10.650 -0.0961  0.1199  0.0025
57965W        W58829  24.261   1.729  10.614  0.0030 -0.7313  0.2485
57966W        W58830  27.227   3.901   7.494 -0.0248 -0.0601  0.0654
57967W        W58831  23.698   6.775  10.024  0.2101  0.0342  0.1882
57968W        W58832  24.581   4.265   9.892  0.0540 -0.0072  0.0017
57969W        W58833  23.696   5.255  11.129  0.3272 -0.1860  0.1074
57970W        W58834  21.603   7.926   7.331 -0.2022  0.1658 -0.1441
57971W        W58835  23.467   6.417   8.719 -0.3084 -0.0256 -0.2157
57972W        W58836  23.385   7.036  11.093  0.2053  0.1407 -0.2121
57973W        W58837  24.960   6.401   9.405 -0.3266  0.1163  0.1410
57974W        W58838  23.360   3.247   8.359 -0.0983 -0.0313 -0.2303
57975W        W58839  23.217   7.157   9.408  0.1676  0.1448 -0.3226
57976W        W58840  24.264   8.975  11.621  0.2046  0.0867 -0.0387
57977W        W58841  24.238   5.877   8.966  0.0933  0.2900  0.1881
57978W        W58842  18.865   5.933  10.310 -0.0735 -0.4889 -0.1899
57979W        W58843  26.262   6.818   6.095  0.0041 -0.3747 -0.0642
57980W        W58844  20.426   6.088  10.364  0.1732  0.1065 -0.1960
57981W        W58845  23.943   4.799   8.074 -0.0338  0.2013 -0.0754
57982W        W58846  22.143   4.406   7.686  0.1711 -0.0948 -0.1431
57983W        W58847  23.386   6.863   9.005  0.2614 -0.0447  0.2120
57984W        W58848  23.511   3.879   7.169 -0.0312  0.0407 -0.0564
57985W        W58849  21.693   5.857   8.574 -0.2007 -0.3058 -0.1131
57986W        W58850  23.485   4.448   6.863 -0.1984 -0.1236 -0.0554
57987W        W58851  21.913   4.900   8.941 -0.1102  0.0925 -0.2447
57988W        W58852  22.462   2.765   9.321 -0.0331 -0.0382 -0.0979
57989W        W58853  25.904   4.235   5.853  0.0148  0.0614 -0.0415
57990W        W58854  23.260   7.895  10.479 -0.2043  0.0909  0.3096
57991W        W58855  23.038   6.240   9.582 -0.1830  0.0885  0.0046
57992W        W58856  23.944   5.999   9.833 -0.0069 -0.3134 -0.2174
57993W        W58857  26.857   4.898  13.470  0.1378 -0.2469 -0.1456
57994W        W58858  22.661   5.151   8.600 -0.1690  0.1660 -0.1096
57995W        W58859  26.245   5.246   8.306 -0.2685  0.0009  0.1637
57996W        W58860  23.165   3.895   8.731 -0.1668 -0.0306  0.0076
57997W        W58861  25.992   0.921   7.160 -0.3130  0.0869  0.0590
57998W        W58862  20.931   6.602   6.977  0.0186  0.1200 -0.1180
57999W        W58863  23.739   5.659  10.771  0.0176  0.1984 -0.2493
58000W        W58864  21.717   3.654   7.339  0.0911  0.1610 -0.1974
58001W        W58865  20.376   6.972   8.714  0.1360 -0.1089  0.2435
58002W        W58866  25.441   6.720   6.655 -0.1624  0.2438  0.2730
58003W        W58867  23.674   4.900   9.348 -0.1117 -0.1138  0.0477
58004W        W58868  22.331   5.802   6.757 -0.1530 -0.0249  0.2333
58005W        W58869  25.228   1.661   8.042 -0.2912  0.3050  0.1244
58006W        W58870  24.326   6.314   9.651  0.0163  0.1487 -0.0339
58007W        W58871  20.623   4.065   7.255  0.0278 -0.4722 -0.0804
58008W        W58872  27.322   6.775   8.533 -0.3435 -0.1235 -0.2629
58009W        W58873  23.939   3.679   7.039  0.1388 -0.4729 -0.3309
58010W        W58874  24.635   6.665  11.068  0.0236 -0.1940  0.4581
58011W        W58875  21.868   3.381  11.207  0.1638  0.2259 -0.0509
58012W        W58876  23.239   5.846   9.680  0.1601 -0.2373 -0.1842
58013W        W58877  25.835   7.291   9.527 -0.1477 -0.3191  0.3715
58014W        W58878  21.810   5.476  10.602  0.2174  0.1930 -0.1319
58015W        W58879  21.777   1.842   9.451  0.1054  0.0517  0.0447
58016W        W58880  20.282   2.085   9.191  0.0260 -0.0904 -0.0370
58017W        W58881  21.059   6.800   9.392  0.1104  0.0375  0.1426
58018W        W58882  23.113   7.406   7.660  0.3334  0.0013 -0.0930
58019W        W58883  24.784   5.683   9.578 -0.0955 -0.0223 -0.3277
58020W        W58884  23.230   7.419  10.220  0.1132  0.0443  0.3029
58021W        W58885  25.183   4.043   7.670 -0.0085  0.2322 -0.1070
58022W        W58886  22.263   8.093   7.814 -0.0257 -0.0034  0.0708
58023W        W58887  21.823   7.570   9.201 -0.0299  0.1698  0.1096
58024W        W58888  23.483   8.950   7.428  0.2486 -0.0714 -0.0252
58025W        W58889  26.534   5.245   9.254  0.2295 -0.4171  0.0810
58026W        W58890  24.981   2.030   6.744  0.0535 -0.2528  0.2466
58027W        W58891  23.380   4.907  10.335  0.1725  0.1133  0.0008
58028W        W58892  20.024   8.832   7.504  0.0302  0.0999 -0.0650
58029W        W58893  24.854   4.340   7.217  0.0712  0.1041  0.1206
58030W        W58894  20.924   3.961   8.793  0.1693  0.2940  0.1339
58031W        W58895  24.995   5.105  10.982 -0.1653 -0.1588  0.0873
58032W        W58896  26.413   8.654   9.473  0.0092  0.0626  0.0198
58033W        W58897  23.736   3.673   9.813 -0.3931  0.1836 -0.3395
58034W        W58898  22.708   4.970   9.592 -0.3186 -0.2361 -0.0317
58035W        W58899  22.999   5.766  12.173 -0.2404  0.1406 -0.4500
58036W        W58900  24.251   3.371  10.198 -0.0248  0.0294  0.1688
58037W        W58901  22.096   4.064   9.411 -0.0605  0.0244 -0.0849
58038W        W58902  22.352   6.086   9.085  0.0012  0.1207 -0.0283
58039W        W58903  20.956   3.485   7.984 -0.0622  0.0647 -0.2794
58040W        W58904  25.279   5.434  11.353 -0.0960 -0.0668  0.2749
58041W        W58905  22.009   6.734   8.528  0.0209 -0.1132 -0.0030
58042W        W58906  23.754   7.373  10.104  0.0795  0.1500 -0.3116
58043W        W58907  25.833   2.219  10.381 -0.3678  0.1817  0.0432
58044W        W58908  23.455  10.484   8.927 -0.0089 -0.0510  0.1752
58045W        W58909  23.895   8.826   9.040 -0.1805  0.2127 -0.2490
58046W        W58910  25.836   8.276   8.249  0.1195 -0.1272 -0.1514
58047W        W58911  20.496   6.931   9.315  0.1639 -0.1591 -0.4125
58048W        W58912  23.180   4.628  11.779  0.1223 -0.4161 -0.0522
58049W        W58913  20.364   4.269  11.538 -0.1594  0.1656 -0.0070
58050W        W58914  24.232   4.759  10.584 -0.1433  0.1976  0.0147
58051W        W58915  23.714   9.642  10.281  0.4508  0.0190  0.1625
58052W        W58916  19.874   4.876  14.701 -0.3574  0.1900 -0.3109
58053W        W58917  22.654   6.342   8.078 -0.2021  0.1437  0.1144
58054W        W58918  23.780   7.468   9.648  0.1003  0.2422 -0.0523
58055W        W58919  25.037   7.836  11.798  0.1659 -0.1026  0.0032
58056W        W58920  21.339   4.685   5.063 -0.0431 -0.2164 -0.1558
58057W        W58921  23.053   4.520   8.183 -0.1259  0.1344  0.1451
58058W        W58922  19.232   8.198  14.568  0.1365 -0.1607 -0.0048
58059W        W58923  21.342   3.758  12.866 -0.0525 -0.1089 -0.1371
58060W        W58924  23.556   6.075  11.608 -0.1054  0.1004  0.4346
58061W        W58925  23.355   5.206  15.615 -0.1814  0.0473  0.2167
58062W        W58926  23.710   8.298  11.304  0.1908  0.0651  0.1998
58063W        W58927  24.389   4.285   9.443 -0.1314  0.1980 -0.1085
58064W        W58928  23.120   4.716   9.907  0.2899  0.0627  0.0117
58065W        W58929  24.187   6.784  10.009  0.2568  0.0163 -0.1496
58066W        W58930  23.315   7.127  15.623 -0.0837  0.2677  0.0078
58067W        W58931  22.693   3.046  15.248 -0.2277 -0.0203 -0.2237
58068W        W58932  21.276   3.430  16.536 -0.0366 -0.2398 -0.1413
58069W        W58933  22.359   6.101  12.898  0.2025 -0.0657  0.2820
58070W        W58934  22.481   2.207  11.272  0.2082 -0.2897  0.1803
58071W        W58935  25.069   6.909  17.874 -0.2656 -0.1563 -0.0178
58072W        W58936  18.908   4.416  15.337 -0.1842 -0.2052  0.0710
58073W        W58937  22.796   7.094  13.827  0.0626  0.2687 -0.1665
58074W        W58938  23.698   6.235  10.275  0.0777 -0.0322 -0.1457
58075W        W58939  22.361   4.742  11.682  0.0605  0.1156  0.2796
58076W        W58940  23.139   1.923  12.831 -0.0768 -0.3982 -0.0595
58077W        W58941  25.025   1.965  13.647  0.0536 -0.3626 -0.2146
58078W        W58942  25.598   6.131  14.030  0.0636  0.1879 -0.0601
58079W        W58943  23.988   4.198  11.453 -0.1539 -0.2482  0.3205
58080W        W58944  25.002   4.377  13.144 -0.0387 -0.0415 -0.0674
58081W        W58945  25.420   5.958  12.553  0.0474 -0.1820  0.3455
58082W        W58946  21.321   7.226  11.464  0.1229  0.2549 -0.1150
58083W        W58947  20.285   4.533  14.679 -0.2661  0.1547 -0.1267
58084W        W58948  26.328   4.199  13.796 -0.0661  0.0953  0.1897
58085W        W58949  23.476   6.603  11.797 -0.0620 -0.0276  0.1379
58086W        W58950  24.565   7.253  15.105  0.0640 -0.0029  0.0435
58087W        W58951  24.582   4.612  11.759 -0.0577  0.1711  0.3430
58088W        W58952  24.379   4.581  14.533 -0.2357  0.0495  0.0283
58089W        W58953  22.901   6.785  13.333 -0.1203 -0.1654 -0.0304
58090W        W58954  24.047   6.122  16.626  0.0668 -0.3462 -0.2797
58091W        W58955  23.878   6.823  16.620  0.2215 -0.3597 -0.0118
58092W        W58956  21.225   3.167  10.508 -0.1174 -0.0446  0.0437
58093W        W58957  22.412   5.900  11.249 -0.3433 -0.1641  0.1680
58094W        W58958  21.198   3.164  12.438  0.0683  0.0755 -0.1890
58095W        W58959  22.728   7.933  13.281  0.4962 -0.0211 -0.3813
58096W        W58960  25.131   6.503  14.641  0.2513  0.0763 -0.0985
58097W        W58961  25.303   3.353  11.768  0.1017 -0.0968 -0.2596
58098W        W58962  27.980   6.477  11.258 -0.0634  0.0584  0.0863
58099W        W58963  25.736   6.130  14.535  0.0278 -0.1236  0.1501
58100W        W58964  23.161   6.950  11.498 -0.0675 -0.1236 -0.1705
58101W        W58965  25.044   5.299   9.348 -0.0821 -0.1022  0.0358
58102W        W58966  22.881   6.514  10.695  0.0519  0.4090 -0.2311
58103W        W58967  24.029   6.310  12.655 -0.0768 -0.0820 -0.0264
58104W        W58968  22.191   3.066  15.194 -0.2424  0.1343 -0.0157
58105W        W58969  25.806   2.624  13.783 -0.0068  0.3786 -0.0814
58106W        W58970  24.481   6.912  12.540  0.2104 -0.1413 -0.1196
58107W        W58971  25.808   5.657  11.752  0.1867 -0.1017  0.0270
58108W        W58972  25.205   7.801  11.320  0.1610  0.0355 -0.2339
58109W        W58973  22.526   5.707  12.549  0.2567 -0.0060 -0.1308
58110W        W58974  24.426  11.307  14.479 -0.2659  0.0675 -0.1154
58111W        W58975  25.885   3.692  12.585 -0.1246 -0.1941  0.0215
58112W        W58976  23.096   5.974  11.745  0.0704 -0.0199  0.0256
58113W        W58977  22.929   8.485   9.828  0.1449  0.1889  0.0784
58114W        W58978  22.675   2.698   9.995 -0.1654  0.0780 -0.1932
58115W        W58979  24.016   5.222  13.915  0.0708 -0.2288  0.0059
58116W        W58980  22.624   3.491  11.727  0.0471  0.3661  0.0462
58117W        W58981  21.685   7.405  10.953 -0.0234 -0.0211 -0.0115
58118W        W58982  21.805   1.665  10.534  0.0285  0.0768 -0.1170
58119W        W58983  26.063   6.244  11.000  0.3994  0.0316  0.1848
58120W        W58984  23.791   7.328  12.147  0.0096 -0.0080 -0.0265
58121W        W58985  23.923   3.822  14.227  0.0720  0.1959  0.0494
58122W        W58986  24.589   3.238  13.280 -0.2039 -0.2024  0.1727
58123W        W58987  26.361   1.361  14.025 -0.1800 -0.0758 -0.0500
58124W        W58988  21.898   4.485  12.307 -0.0212  0.0738 -0.0449
58125W        W58989  22.461   3.682   9.561 -0.1057 -0.2165  0.0330
58126W        W58990  23.662   4.534  11.628  0.3282 -0.1098  0.0830
58127W        W58991  22.005   6.006  10.934  0.1099 -0.0057  0.1173
58128W        W58992  23.922   4.901  17.628 -0.2619 -0.1736  0.2557
58129W        W58993  21.398   2.181  10.795 -0.2941 -0.0504 -0.2205
58130W        W58994  21.263   5.618  10.762 -0.0707  0.2658 -0.1589
58131W        W58995  24.651   7.195  17.604  0.0432  0.0803  0.1002
58132W        W58996  24.849   6.076  13.030 -0.1420  0.2479  0.1230
58133W        W58997  23.055   5.438  17.114  0.0914  0.0126  0.2431
58134W        W58998  22.274   2.297  10.760 -0.1481  0.6003 -0.1810
58135W        W58999  23.355   6.593  10.335  0.0576  0.1580 -0.1201
58136W        W59000  21.882   5.412  10.112  0.0776  0.2805 -0.0625
58137W        W59001  21.033   2.449  11.054 -0.2892 -0.4032 -0.2272
58138W        W59002  23.309   3.288  14.608  0.0593  0.2190  0.0106
58139W        W59003  20.970   4.513  15.647  0.0211 -0.0559  0.0538
58140W        W59004  20.401   1.475  14.829  0.1290  0.0612  0.0907
58141W        W59005  23.654   2.820  11.780 -0.2529  0.3626  0.0011
58142W        W59006  26.305   4.414  12.320 -0.0497 -0.0283  0.2713
58143W        W59007  23.500   5.386   9.410  0.0271  0.2917 -0.0952
58144W        W59008  24.913   5.707  14.410 -0.2184  0.1123 -0.0344
58145W        W59009  25.996   4.949  14.139 -0.0734  0.0046  0.1304
58146W        W59010  27.652   4.957  14.777  0.0315 -0.1877 -0.1400
58147W        W59011  23.521   4.054  14.346 -0.1088 -0.0404 -0.2757
58148W        W59012  25.670   2.761  12.617 -0.2313  0.0235 -0.1723
58149W        W59013  25.353   5.789  16.490  0.1303  0.0142 -0.4304
58150W        W59014  21.811   5.406  13.392 -0.0116  0.2349  0.0313
58151W        W59015  25.331   2.059  12.319  0.0303  0.2146 -0.1260
58152W        W59016  19.129   2.429  14.390 -0.2288 -0.0376 -0.1244
58153W        W59017  24.573   2.026  13.968 -0.0522  0.0383 -0.3974
58154W        W59018  26.194   4.906  12.239 -0.1226  0.3095  0.0354
58155W        W59019  23.487   8.567  14.171  0.1144 -0.0125 -0.1247
58156W        W59020  23.542   1.977  12.058 -0.1253 -0.0282 -0.0630
58157W        W59021  25.920   4.439  13.108 -0.1173  0.3056 -0.1957
58158W        W59022  27.004   6.510  11.462  0.1089  0.1793  0.0216
58159W        W59023  21.295   3.986  11.323  0.2117 -0.1239  0.4139
58160W        W59024  21.834   2.475  10.701  0.0024  0.0952  0.2159
58161W        W59025  22.861   6.946  10.200 -0.1304  0.2885 -0.0765
58162W        W59026  26.643   1.774  14.098  0.0931 -0.0924 -0.4511
58163W        W59027  23.401   3.215  14.077 -0.1911 -0.0692 -0.0224
58164W        W59028  23.893   4.956  15.149 -0.0005  0.3140 -0.0825
58165W        W59029  22.703   5.838  16.319 -0.2602 -0.0194 -0.0080
58166W        W59030  23.698   1.236  11.532 -0.1844  0.3375 -0.0339
58167W        W59031  21.907   6.944  11.905  0.1750  0.1877  0.0502
58168W        W59032  25.214   3.474  12.537 -0.0428  0.1066 -0.2646
58169W        W59033  24.688   8.454   9.891 -0.1805 -0.0249  0.1095
58170W        W59034  25.992   3.319  12.149  0.2684  0.0655 -0.1344
58171W        W59035  23.879   7.653  16.541  0.0306  0.1204  0.1218
58172W        W59036  25.166   5.839  11.138 -0.1370  0.1789  0.2919
58173W        W59037  24.507   6.595   9.324  0.1950  0.2173 -0.1747
58174W        W59038  26.544   1.547  14.512  0.3112 -0.3644  0.0902
58175W        W59039  25.717   3.445  14.937 -0.1691 -0.5183 -0.1461
58176W        W59040  21.967   1.438  11.044 -0.0580 -0.1647 -0.0251
58177W        W59041  25.639   7.086  11.334  0.1472 -0.1244  0.0166
58178W        W59042  26.393   5.929  11.748 -0.1013  0.1192 -0.0417
58179W        W59043  24.165   6.475  13.508 -0.1405 -0.3103 -0.0575
58180W        W59044  27.307   6.499   9.962  0.1102  0.0114 -0.3217
58181W        W59045  22.011   4.688  11.308 -0.0495  0.2851 -0.0185
58182W        W59046  24.625   3.237  12.457  0.0686  0.0530  0.1927
58183W        W59047  26.052   6.784  12.515  0.0836  0.1382  0.2033
58184W        W59048  24.790   3.224  11.628 -0.0131  0.2026 -0.1759
58185W        W59049  24.585   4.669  12.964  0.1346 -0.1932  0.2276
58186W        W59050  24.345   5.846  12.558  0.2162  0.2003  0.0093
58187W        W59051  23.923   5.872  11.955 -0.1340  0.0844 -0.1074
58188W        W59052  24.531   5.759  14.789 -0.0236  0.1067 -0.0617
58189W        W59053  25.782   3.654  11.751  0.1084  0.1031 -0.0212
58190W        W59054  23.727   6.349  13.605 -0.1178  0.0597  0.1281
58191W        W59055  26.059   5.024  13.070 -0.1006  0.0095  0.3500
58192W        W59056  24.485   3.986  14.284  0.0070 -0.4200 -0.1140
58193W        W59057  21.274   4.063  13.290 -0.0333 -0.2044  0.0323
58194W        W59058  26.989   3.191  11.770  0.1297  0.0572 -0.0451
58195W        W59059  25.905   4.519  13.780 -0.1993 -0.1148 -0.2916
58196W        W59060  24.307   5.412  12.244 -0.0495  0.0021 -0.0814
58197W        W59061  22.493   5.083  10.748  0.0306  0.0380 -0.2219
58198W        W59062  23.256   4.455   9.505 -0.2500 -0.1286  0.3678
58199W        W59063  22.775   2.503  10.790 -0.2861  0.1660 -0.0776
58200W        W59064  20.200   6.653  12.079  0.0898  0.2511 -0.0707
58201W        W59065  23.847   7.279  13.089  0.0104  0.0060 -0.1449
58202W        W59066  22.321   4.863  13.497 -0.1960  0.1066  0.2845
58203W        W59067  23.420   0.760  13.443  0.0697  0.0811  0.0558
58204W        W59068  25.955   5.195  13.609  0.0686  0.0942  0.1828
58205W        W59069  24.655   6.302   8.833 -0.0362 -0.2663 -0.2679
58206W        W59070  26.012   2.870  13.361  0.0819 -0.0309  0.2977
58207W        W59071  26.043   7.850  11.818  0.0457 -0.1170  0.0384
58208W        W59072  22.804   5.645  14.873 -0.0788 -0.0956 -0.0810
58209W        W59073  21.376   5.351   9.798 -0.0842  0.2542  0.2963
58210W        W59074  25.907   5.703  14.324 -0.0748  0.2656  0.0135
58211W        W59075  22.368   3.160   7.988 -0.1335 -0.0509 -0.0908
58212W        W59076  24.125   4.647  13.842 -0.1928 -0.2477 -0.3042
58213W        W59077  24.201   1.758  13.726  0.0646 -0.2060  0.0290
58214W        W59078  23.462   5.473  12.815 -0.1819  0.1113  0.1630
58215W        W59079  20.810   2.595   9.866 -0.0088  0.1686  0.1660
58216W        W59080  22.129   1.886  11.404 -0.1348 -0.1916 -0.0061
58217W        W59081  23.601   3.588  11.252 -0.2224 -0.3278  0.0438
58218W        W59082  23.188   3.233  15.511  0.0002 -0.1551 -0.3685
58219W        W59083  22.256   4.889  12.173  0.1524 -0.2156  0.2779
58220W        W59084  25.554   4.916  14.333  0.0396 -0.1037 -0.0033
58221W        W59085  25.812   2.359  15.702 -0.0639  0.0164  0.0389
58222W        W59086  25.476   2.201  15.365 -0.0077 -0.1127 -0.0642
58223W        W59087  23.731   6.252  10.771 -0.3383  0.2633  0.0886
58224W        W59088  24.442   6.727  10.458 -0.0119  0.1362  0.3422
58225W        W59089  22.913   4.694  10.486 -0.0347  0.1505  0.0753
58226W        W59090  24.089   5.041  15.653  0.0048  0.1592  0.3370
58227W        W59091  22.183   6.037  10.421 -0.0400  0.1594 -0.0860
58228W        W59092  26.043   7.790  12.751  0.0676 -0.0923  0.2814
58229W        W59093  25.372   3.866  13.919 -0.2072 -0.0912  0.1807
58230W        W59094  23.242   7.061  14.064 -0.0105 -0.1310 -0.3133
58231W        W59095  22.480   5.220  11.774 -0.1888  0.1441  0.0833
58232W        W59096  21.984   3.237  12.973  0.1918  0.0625 -0.2471
58233W        W59097  26.688   4.524  11.568  0.1070  0.3498 -0.3235
58234W        W59098  24.704   7.024  15.788  0.1903  0.4166 -0.1982
58235W        W59099  24.534   6.315  12.683 -0.0526  0.1677 -0.0414
58236W        W59100  23.125   6.449  12.959 -0.0064  0.0804  0.0567
58237W        W59101  22.651   2.026  13.014  0.2684 -0.0976  0.0589
58238W        W59102  23.313   6.518  11.289  0.0973  0.0750  0.0586
58239W        W59103  23.810   5.771   9.129 -0.1520 -0.1149 -0.1922
58240W        W59104  26.510   7.406  12.669  0.1755  0.0837  0.1925
58241W        W59105  25.101   4.682  13.562 -0.1545 -0.0822  0.0645
58242W        W59106  25.580   4.068  10.081  0.1492  0.0598 -0.1385
58243W        W59107  24.429   5.740  16.021 -0.1237  0.2989 -0.0452
58244W        W59108  25.204   5.899  11.677  0.0189 -0.2859 -0.1161
58245W        W59109  21.057   2.553   8.127 -0.1477 -0.2369 -0.1477
58246W        W59110  23.581   5.250  14.261  0.3321  0.2852  0.2094
58247W        W59111  23.763   3.606  12.168  0.2871 -0.0725  0.0874
58248W        W59112  22.176   5.537  11.477 -0.1412  0.0143 -0.0075
58249W        W59113  22.765   4.357  11.722  0.1215 -0.0123 -0.0692
58250W        W59114  22.262   3.870  12.344  0.3085 -0.3224 -0.0534
58251W        W59115  24.148   3.784  15.172 -0.2975 -0.1047 -0.0722
58252W        W59116  27.096   2.950  12.560  0.2849  0.1313  0.0867
58253W        W59117  23.193   3.785  10.931  0.2404  0.3631 -0.0353
58254W        W59118  25.603   5.520  12.216 -0.1307  0.4039  0.0683
58255W        W59119  22.730   3.754  13.058  0.2418 -0.0905 -0.1684
58256W        W59120  22.750   4.881  11.992 -0.0358  0.0800  0.0770
58257W        W59121  24.822   1.359  14.529 -0.4495  0.1567  0.1764
58258W        W59122  22.742   3.186  10.231  0.0078  0.4338  0.0003
58259W        W59123  25.724   0.378  13.097 -0.0182 -0.2847 -0.3112
58260W        W59124  22.268   5.286  12.492  0.0406  0.1975 -0.0389
58261W        W59125  22.667   3.990  11.361  0.0941 -0.0984 -0.1411
58262W        W59126  22.223   3.922  12.999 -0.2180  0.1404  0.1593
58263W        W59127  20.521   0.833  10.589 -0.0937  0.0368  0.0176
58264W        W59128  21.321   2.075  18.455 -0.0077 -0.3316  0.1374
58265W        W59129  22.712   3.918  12.587  0.1451  0.2207 -0.4146
58266W        W59130  21.808   6.340  10.279 -0.4352 -0.1002 -0.1028
58267W        W59131  21.329   3.510  11.360  0.2908  0.3543  0.0498
58268W        W59132  22.819   3.949  14.853  0.1211 -0.1042 -0.1971
58269W        W59133  21.154   3.436  13.217  0.1073 -0.1853 -0.0968
58270W        W59134  23.151   3.544  12.502 -0.1652 -0.1896  0.1311
58271W        W59135  24.509   3.542  14.559  0.0105  0.1239 -0.0106
58272W        W59136  23.588   2.884  14.354  0.1810 -0.0598  0.2350
58273W        W59137  22.157   5.985  11.702  0.0585 -0.1787 -0.1045
58274W        W59138  24.399   6.304  11.471 -0.0157 -0.1554  0.1373
58275W        W59139  25.573   9.018  10.925 -0.0252 -0.0017 -0.1504
58276W        W59140  24.862   5.013  17.018 -0.1606 -0.1514  0.1994
58277W        W59141  23.803   3.755  13.561 -0.1477  0.2637 -0.0961
58278W        W59142  27.335   3.457  14.818 -0.0429 -0.1620  0.2272
58279W        W59143  25.550   4.898  13.826 -0.2202 -0.1486 -0.1223
58280W        W59144  22.422   7.227  15.385  0.1271 -0.1443  0.1564
58281W        W59145  25.041   5.095   8.099  0.1363 -0.0359 -0.2584
58282W        W59146  22.492   8.000   8.747 -0.0681  0.1610  0.0007
58283W        W59147  23.076   3.484  13.258 -0.1269 -0.0243 -0.3270
58284W        W59148  23.176   2.208  14.878  0.1073  0.0521 -0.2442
58285W        W59149  25.871   4.035  13.705 -0.0083 -0.0419 -0.3289
58286W        W59150  25.120   8.725   9.956  0.0782  0.0488  0.0143
58287W        W59151  22.573   5.393  15.472 -0.0669 -0.4034 -0.2431
58288W        W59152  21.947   6.051  14.908  0.2425  0.1085  0.0788
58289W        W59153  22.650   4.171  16.636  0.0862  0.0666 -0.2277
58290W        W59154  26.632   7.058  15.326 -0.1103 -0.2885 -0.3009
58291W        W59155  27.298   4.091  11.394  0.2902 -0.1038  0.1836
58292W        W59156  21.396   3.776  14.129 -0.1493  0.1713 -0.0242
58293W        W59157  26.776   3.750  12.011 -0.0199  0.2938 -0.2371
58294W        W59158  26.093   6.940  11.034 -0.3060 -0.0790 -0.0046
58295W        W59159  23.730   5.749  14.839 -0.4143 -0.2022 -0.0777
58296W        W59160  24.915   5.927  15.570  0.0554 -0.0382 -0.0899
58297W        W59161  24.576   8.976  14.125  0.0410  0.1683  0.1164
58298W        W59162  23.239   5.629  10.557 -0.1819 -0.0364  0.1575
58299W        W59163  20.481   3.743  15.987  0.2457 -0.2001  0.0571
58300W        W59164  22.086   4.031  13.701 -0.2736 -0.3361 -0.0614
58301W        W59165  22.788   2.649  13.798 -0.0875 -0.3432 -0.2197
58302W        W59166  22.915   4.990  14.802 -0.0848 -0.3019  0.0307
58303W        W59167  24.250   6.159  12.173  0.1501 -0.1436  0.4120
58304W        W59168  24.823   5.705  13.905 -0.2191 -0.0438  0.2401
58305W        W59169  24.298   6.284  14.799  0.0598  0.0601  0.0096
58306W        W59170  20.832   8.872  11.926 -0.0324  0.2229  0.0122
58307W        W59171  23.309   5.117  10.785  0.3304  0.0717  0.1800
58308W        W59172  23.178   4.822  12.364  0.0502 -0.1245  0.1652
58309W        W59173  24.359   8.233  14.602  0.1061  0.1332  0.2786
58310W        W59174  23.790   6.241  14.670 -0.1691 -0.0720 -0.1515
58311W        W59175  24.780   4.914  14.473 -0.0032  0.2428 -0.1132
58312W        W59176  20.706   4.713   9.097 -0.0486 -0.0430  0.2875
58313W        W59177  24.684   8.151  14.157 -0.2226 -0.0291  0.0095
58314W        W59178  23.628   5.052  12.533  0.3119  0.0013 -0.2246
58315W        W59179  21.771   3.856  13.135  0.1045  0.1979 -0.2805
58316W        W59180  25.404   7.386  14.018 -0.1891  0.0631 -0.1143
58317W        W59181  25.454   5.267  11.849  0.2052 -0.3274  0.2163
58318W        W59182  22.995   4.379  12.201  0.0724 -0.0117 -0.2925
58319W        W59183  20.100   3.586  14.373  0.1513  0.0053 -0.2554
58320W        W59184  23.079   5.370  13.146 -0.0285 -0.0487 -0.0821
58321W        W59185  23.699   4.100  12.901 -0.0984 -0.0845 -0.3422
58322W        W59186  24.425   5.688  13.022 -0.1667  0.3118  0.3894
58323W        W59187  23.816   5.888  17.573 -0.0191 -0.1492  0.2378
58324W        W59188  24.868   6.909  10.658  0.4221  0.0560  0.1252
58325W        W59189  25.617   7.563  11.056 -0.1791 -0.2974  0.1471
58326W        W59190  22.782   4.535  14.180 -0.3930 -0.3673  0.1783
58327W        W59191  25.477   6.900  11.895  0.1973 -0.3412  0.1782
58328W        W59192  21.914   4.232  10.873  0.0030 -0.0463 -0.1914
58329W        W59193  25.455   7.154  14.626  0.0622 -0.0226 -0.0667
58330W        W59194  23.144   3.928  16.869 -0.1055  0.1106  0.0476
58331W        W59195  22.461   4.410  13.663 -0.0020 -0.1225 -0.1715
58332W        W59196  24.547   7.964  15.069  0.3097  0.1071 -0.3643
58333W        W59197  25.357   3.643  14.398 -0.0888  0.0082  0.0820
58334W        W59198  21.062   7.100  12.993 -0.0038  0.1678  0.5404
58335W        W59199  22.153   3.508  11.944 -0.0770  0.0435  0.3658
58336W        W59200  20.551   3.176  12.828  0.1583 -0.0751 -0.0318
58337W        W59201  21.861   6.168  14.443 -0.0789 -0.2728  0.0467
58338W        W59202  23.563   4.738  12.874  0.2226  0.4189 -0.1887
58339W        W59203  24.055   5.744  10.219  0.0583 -0.1789  0.3107
58340W        W59204  25.066   6.166  13.859 -0.2336 -0.0716 -0.0602
58341W        W59205  23.897   4.578  12.493 -0.0672 -0.0611  0.0492
58342W        W59206  25.006   7.232  12.527  0.0307 -0.1773  0.1387
58343W        W59207  26.609   0.524  15.454 -0.2032 -0.3267 -0.0845
58344W        W59208  23.191   5.410  10.028  0.0181 -0.0249 -0.1903
58345W        W59209  22.401   5.362  13.394  0.1685  0.1910 -0.1118
58346W        W59210  26.267   4.386  11.361  0.0922 -0.1961  0.2009
58347W        W59211  23.280   8.785   9.970  0.1049  0.0123  0.1284
58348W        W59212  24.571   5.505   8.536  0.0048 -0.0096 -0.0628
58349W        W59213  24.924   3.618  14.048  0.4209 -0.0546 -0.0008
58350W        W59214  23.606   0.227  15.276 -0.2681  0.1127 -0.1308
58351W        W59215  22.027   6.546  10.656  0.0282  0.2458  0.1742
58352W        W59216  24.107   6.282   9.143  0.0624  0.0547  0.1206
58353W        W59217  24.248   7.754   8.322  0.2601 -0.1442  0.0878
58354W        W59218  24.636   4.906  12.346 -0.0157  0.0493 -0.0377
58355W        W59219  24.929   5.440  15.329 -0.0471 -0.1910  0.3423
58356W        W59220  25.079   1.837  14.567  0.2052  0.0271  0.0596
58357W        W59221  21.230   7.896  11.954  0.2983 -0.2780  0.2249
58358W        W59222  22.434   6.263  10.884 -0.0166 -0.0551 -0.0280
58359W        W59223  21.215   4.251  15.274 -0.1403 -0.0432  0.0325
58360W        W59224  22.674   5.335  12.241  0.1656 -0.2145 -0.2195
58361W        W59225  26.019   5.574  13.245 -0.2506  0.1394 -0.0853
58362W        W59226  24.151   4.973  12.497  0.0592  0.0241 -0.0058
58363W        W59227  26.355   7.549  14.454 -0.0040  0.1776  0.1424
58364W        W59228  25.634   5.320  14.578  0.0027  0.2586  0.1821
58365W        W59229  22.166   4.111  11.331  0.0084 -0.0369 -0.0037
58366W        W59230  24.391   3.598  14.042 -0.1465  0.2718 -0.3959
58367W        W59231  19.551   2.927  11.499 -0.0668 -0.0561  0.2236
58368W        W59232  22.923   2.518  12.235  0.0643  0.1824 -0.2051
58369W        W59233  19.128   4.642  14.930  0.1397  0.3483 -0.0273
58370W        W59234  21.661   3.847  11.004 -0.1341  0.4187  0.1101
58371W        W59235  24.096   7.521  13.512 -0.2493  0.0257 -0.0659
58372W        W59236  25.865   6.552  14.113 -0.0101  0.1255 -0.2552
58373W        W59237  22.578   5.425  15.961 -0.1242  0.3632  0.0261
58374W        W59238  21.508   1.189  10.855 -0.1147 -0.1218 -0.1262
58375W        W59239  23.910   6.676  13.048  0.1264 -0.0413 -0.0755
58376W        W59240  25.716   7.426  13.631 -0.1856 -0.0122 -0.0887
58377W        W59241  24.478   5.153  12.878 -0.0178 -0.0039 -0.3064
58378W        W59242  21.527   7.446  13.180  0.3173  0.0149  0.3050
58379W        W59243  24.068   7.483   9.209 -0.0170  0.4424 -0.1814
58380W        W59244  22.321   4.255  14.111 -0.1134 -0.4512  0.3078
58381W        W59245  24.458   6.999  13.642 -0.1538 -0.0326  0.0596
58382W        W59246  20.990   7.525  11.688 -0.1438  0.0281 -0.1950
58383W        W59247  21.648   7.492  16.548 -0.2914 -0.0633 -0.0656
58384W        W59248  21.882   3.659  12.600  0.4466 -0.1581  0.2218
58385W        W59249  21.712   5.500  12.573 -0.0163  0.2465 -0.1066
58386W        W59250  21.053   6.517  12.189  0.4131 -0.1434 -0.2722
58387W        W59251  23.322   6.257  12.137 -0.0050  0.1709  0.0059
58388W        W59252  24.122   2.384  13.599 -0.2436 -0.0501 -0.2187
58389W        W59253  25.318   5.678  13.082  0.0258 -0.1460  0.1407
58390W        W59254  24.950   6.584  16.651  0.2795 -0.0340 -0.0633
58391W        W59255  22.286   7.653  14.550  0.0634  0.2456 -0.4320
58392W        W59256  26.717   5.880  14.944 -0.0014  0.1370 -0.1571
58393W        W59257  25.548   7.035  18.221  0.0403  0.2719 -0.1651
58394W        W59258  21.690   5.282  14.265 -0.0364 -0.1334 -0.0298
58395W        W59259  27.267   3.567   9.933 -0.0037 -0.0438  0.1788
58396W        W59260  26.358   6.096  13.004 -0.0273  0.2478 -0.0792
58397W        W59261  24.320   7.112  12.124 -0.1929  0.2142 -0.0522
58398W        W59262  21.297   6.404  10.250  0.0605  0.2393  0.1707
58399W        W59263  24.262   3.579  12.450  0.0154  0.2278 -0.1760
58400W        W59264  20.305   0.042  11.048  0.2374  0.0726  0.1947
58401W        W59265  20.521   4.542  13.848 -0.3359  0.1713 -0.0176
58402W        W59266  25.262   5.580  13.973 -0.0374 -0.2748  0.2496
58403W        W59267  23.850   6.479  14.171 -0.0935  0.3694 -0.1771
58404W        W59268  19.288   6.096  10.424  0.1719 -0.0647 -0.0928
58405W        W59269  22.356   3.521  12.749  0.0779 -0.0924 -0.2213
58406W        W59270  24.262   7.055  15.466  0.0024 -0.5306 -0.0698
58407W        W59271  22.928   6.480  10.073 -0.0545 -0.4193 -0.0087
58408W        W59272  24.568   4.863  14.928 -0.0512  0.3389  0.3943
58409W        W59273  24.349   3.854  10.700  0.0385  0.0211 -0.3455
58410W        W59274  26.608   6.036  12.258  0.0414  0.0845 -0.3710
58411W        W59275  23.564   4.827  13.800 -0.0071 -0.2830  0.0199
58412W        W59276  21.889   6.026  13.428 -0.3161  0.1448 -0.1096
58413W        W59277  24.558   3.647  11.434 -0.5948  0.2773 -0.1295
58414W        W59278  21.184   8.953  13.526 -0.3241  0.0762  0.1047
58415W        W59279  24.066   3.741  13.066 -0.0042 -0.1521 -0.0540
58416W        W59280  22.932   3.398  14.951 -0.1925 -0.0185 -0.1163
58417W        W59281  22.656   4.856  12.559 -0.2085 -0.5450  0.0264
58418W        W59282  23.339   4.469  14.182  0.0301  0.1299  0.0857
58419W        W59283  25.785   4.504  14.221  0.1090  0.2140 -0.0675
58420W        W59284  25.179   4.982  12.290  0.1847 -0.0263  0.0478
58421W        W59285  23.895   3.255  13.384 -0.1319  0.1967  0.0759
58422W        W59286  23.204   3.584  11.997  0.3060  0.1875  0.2142
58423W        W59287  25.380   6.408  11.710  0.0294  0.2545 -0.0922
58424W        W59288  22.684   6.792  14.211 -0.1530  0.3213  0.2120
58425W        W59289  25.721   4.083  12.334 -0.2203  0.1160  0.0125
58426W        W59290  25.004   6.282  11.293 -0.5946  0.0453  0.0210
58427W        W59291  28.149   5.932  11.463  0.3199 -0.1059 -0.2795
58428W        W59292  24.750   4.988  13.329 -0.1248 -0.0734 -0.3266
58429W        W59293  25.036   3.799  12.928  0.0908 -0.0249  0.2979
58430W        W59294  25.134   7.650   9.585 -0.3316 -0.1354  0.3375
58431W        W59295  25.002   6.582  15.214 -0.2048 -0.2628 -0.0381
58432W        W59296  22.784   8.441  12.346  0.0015 -0.0414 -0.1583
58433W        W59297  22.145   4.510  13.215  0.0507 -0.2353  0.0547
58434W        W59298  24.625   4.165  12.123  0.0364 -0.1732  0.2505
58435W        W59299  23.128   6.716  12.226  0.0341  0.0528 -0.0219
58436W        W59300  25.954   3.309  15.922  0.0408  0.3395 -0.1005
58437W        W59301  21.259   5.177  13.333 -0.0520  0.0535  0.0036
58438W        W59302  22.359   4.756  14.029 -0.2453 -0.0025  0.1225
58439W        W59303  22.893   4.897  11.044  0.1777  0.1999  0.2141
58440W        W59304  23.272   2.404  11.065  0.5076 -0.3752  0.2852
58441W        W59305  23.503   5.891  14.399  0.2188 -0.0748  0.0451
58442W        W59306  24.982   5.793  14.979  0.1005  0.1278  0.1059
58443W        W59307  25.359   4.228  15.774 -0.1848 -0.5722 -0.1905
58444W        W59308  22.942   5.933  10.025  0.1591  0.1785  0.1423
58445W        W59309  22.034   8.914  12.730 -0.3847 -0.2623  0.1913
58446W        W59310  23.136   6.954  12.673  0.3483 -0.1214 -0.2881
58447W        W59311  22.954   4.464  14.771 -0.0174  0.0888  0.1711
58448W        W59312  25.423   5.711  15.333 -0.0818 -0.0917 -0.0547
58449W        W59313  22.921   3.047  15.943  0.0618 -0.0487 -0.2795
58450W        W59314  27.031   4.821  12.395  0.1267  0.1062  0.3248
58451W        W59315  26.000   7.268  12.620 -0.1039  0.0595  0.0168
58452W        W59316  20.268   5.069  12.916 -0.1821 -0.2676  0.1633
58453W        W59317  23.333   1.517  14.986  0.2007  0.1595  0.0102
58454W        W59318  24.315   7.044   9.306  0.0617  0.0216 -0.1908
58455W        W59319  23.782   4.746  14.223 -0.2182 -0.0018 -0.0821
58456W        W59320  22.030   7.503  13.569 -0.2287  0.0857  0.0699
58457W        W59321  21.442   5.159  10.898 -0.0941  0.0959  0.1946
58458W        W59322  21.353   5.295  16.833 -0.1582 -0.2291 -0.0908
58459W        W59323  20.985   5.519  18.520 -0.0105  0.1225 -0.3214
58460W        W59324  26.704   3.827  15.827 -0.0089  0.2926 -0.1863
58461W        W59325  25.269   7.800  17.085  0.0558 -0.2534 -0.2809
58462W        W59326  23.085   4.903  12.877  0.1085 -0.1182  0.2599
58463W        W59327  18.068   2.390  14.656 -0.0842 -0.1792  0.2503
58464W        W59328  23.015   4.458  16.975  0.2367 -0.0800  0.1067
58465W        W59329  23.010   4.092  14.377  0.1307 -0.3115 -0.0275
58466W        W59330  21.370   5.780  16.985  0.1476  0.2129  0.0768
58467W        W59331  22.659   5.294  18.044  0.1414 -0.0960  0.0349
58468W        W59332  24.916   0.421  16.840  0.1722 -0.0793 -0.1410
58469W        W59333  26.414   3.021  16.126 -0.2695 -0.0773 -0.1483
58470W        W59334  23.643   5.297  13.367  0.3523 -0.1499  0.1289
58471W        W59335  21.886   7.041  20.136 -0.1129 -0.2102  0.0673
58472W        W59336  21.544   1.845  15.142 -0.1278  0.0437 -0.0213
58473W        W59337  23.082   4.359  21.752 -0.0855 -0.2235 -0.0904
58474W        W59338  22.712   6.136  14.925  0.3534 -0.4120  0.1459
58475W        W59339  21.528   4.775  14.086  0.0401 -0.3349  0.3158
58476W        W59340  22.288   3.719  16.467  0.0040 -0.1238 -0.1209
58477W        W59341  23.853   4.539  17.285 -0.0516  0.1304 -0.1622
58478W        W59342  27.013   2.952  17.517 -0.0358  0.0842 -0.1197
58479W        W59343  23.339   4.702  15.545 -0.0927 -0.0320 -0.1353
58480W        W59344  23.054   6.998  18.838 -0.1884 -0.1057 -0.2336
58481W        W59345  22.491   6.387  17.253 -0.0368 -0.1966  0.1092
58482W        W59346  22.520   6.328  15.964 -0.1207 -0.2069  0.0866
58483W        W59347  22.545   6.604  18.111  0.0051  0.2411 -0.0735
58484W        W59348  23.981   5.527  16.897 -0.0164  0.1696 -0.2575
58485W        W59349  21.179   6.015  12.966  0.1263 -0.4118  0.1536
58486W        W59350  24.644   5.569  20.808  0.1448  0.1514 -0.1777
58487W        W59351  22.970   4.354  18.371 -0.0230 -0.0037  0.0473
58488W        W59352  24.807   4.052  16.266 -0.0282  0.4336  0.1251
58489W        W59353  23.911   6.702  19.326 -0.1585  0.2273 -0.2308
58490W        W59354  22.253   5.480  19.178 -0.2699  0.2399 -0.2128
58491W        W59355  22.381   5.563  17.609  0.0923 -0.3164  0.0442
58492W        W59356  20.933   6.733  17.847  0.0168  0.1576 -0.2479
58493W        W59357  25.419   6.627  16.448 -0.2678  0.1867 -0.0619
58494W        W59358  22.845   4.493  17.414  0.0573  0.1687 -0.0256
58495W        W59359  21.511   6.940  16.499 -0.2036  0.1580  0.4732
58496W        W59360  26.744   8.929  17.054 -0.0701 -0.4073 -0.3297
58497W        W59361  26.305   7.728  15.669 -0.0525 -0.2448  0.0556
58498W        W59362  25.313   4.570  15.166  0.0792 -0.0126 -0.4989
58499W        W59363  28.103   5.610  15.474  0.1244  0.0392 -0.1847
58500W        W59364  23.648   5.666  19.390  0.1827 -0.0399 -0.0583
58501W        W59365  22.899   5.168  18.594 -0.0375 -0.0969  0.2230
58502W        W59366  22.665   3.860  14.066 -0.0573  0.0883 -0.0440
58503W        W59367  25.059   5.405  17.222  0.2004 -0.3138  0.0216
58504W        W59368  21.989   4.669  15.729  0.1853  0.1015  0.1745
58505W        W59369  24.786   6.658  17.143  0.2548 -0.0075 -0.1264
58506W        W59370  24.091   5.925  15.072 -0.3487  0.0197 -0.2284
58507W        W59371  26.726   3.649  16.670 -0.0124 -0.0017 -0.2004
58508W        W59372  22.610   6.956  17.244 -0.0791  0.1591  0.1813
58509W        W59373  26.292   3.067  15.576 -0.0882 -0.3552  0.0219
58510W        W59374  22.458   8.239  14.445  0.1184  0.0130 -0.1234
58511W        W59375  24.121   9.345  14.425 -0.0238  0.0669 -0.0205
58512W        W59376  24.617   2.422  16.552 -0.2508 -0.0648 -0.0031
58513W        W59377  21.459   2.764  14.285 -0.2120 -0.1754  0.2169
58514W        W59378  22.155   3.363  16.167 -0.2338 -0.0710 -0.0864
58515W        W59379  22.957   5.985  19.978 -0.0848 -0.1089 -0.0263
58516W        W59380  25.416   5.904  13.522 -0.2067  0.0455 -0.3853
58517W        W59381  22.796   7.507  15.495 -0.0041 -0.1046 -0.1790
58518W        W59382  24.367   4.576  13.393 -0.0351  0.0970 -0.2165
58519W        W59383  24.903   4.470  16.452  0.0553 -0.0523  0.3196
58520W        W59384  24.133   9.778  14.737  0.1314  0.1007  0.1641
58521W        W59385  22.023   4.694  14.831 -0.0177  0.2325  0.1582
58522W        W59386  19.801   3.259  16.376 -0.2861  0.1353  0.1184
58523W        W59387  25.647   2.176  19.085 -0.1748  0.2592  0.0029
58524W        W59388  21.977   4.760  14.322  0.1358 -0.2778 -0.1451
58525W        W59389  20.208   2.600  13.271 -0.1409 -0.1176 -0.3156
58526W        W59390  19.913   6.121  16.004 -0.3590  0.1061  0.0433
58527W        W59391  23.569   6.319  17.583 -0.2521 -0.2564  0.1456
58528W        W59392  22.498   7.765  17.916 -0.1083  0.2641  0.0203
58529W        W59393  25.927   3.299  16.683 -0.1358  0.1720  0.0459
58530W        W59394  23.353   7.498  16.785  0.0910  0.1409  0.3139
58531W        W59395  27.320   4.455  15.987 -0.0285 -0.2220 -0.0127
58532W        W59396  22.969   6.678  15.909 -0.0151 -0.2395 -0.0364
58533W        W59397  21.656   4.887  18.058 -0.1258 -0.2770  0.2224
58534W        W59398  23.437   6.751  13.198  0.2966 -0.1146  0.1507
58535W        W59399  22.928   7.480  18.635 -0.0627 -0.4557 -0.0137
58536W        W59400  25.440   0.616  16.858  0.2810 -0.1415 -0.1607
58537W        W59401  22.609   4.673  16.042  0.1899  0.0304  0.1178
58538W        W59402  21.790   5.826  18.261 -0.0879 -0.1390 -0.0237
58539W        W59403  22.152   6.462  16.856  0.0415 -0.3044 -0.2232
58540W        W59404  22.787   2.195  17.509 -0.0006 -0.3392 -0.1632
58541W        W59405  22.469   3.995  15.344  0.0735  0.0750  0.0681
58542W        W59406  22.256   6.968  17.651 -0.1491 -0.1099  0.1890
58543W        W59407  24.807   6.142  14.624  0.1776  0.0417  0.0941
58544W        W59408   0.424   7.066  16.919 -0.0077 -0.1199  0.1925
58545W        W59409  25.389   2.492  16.956 -0.0161  0.0727  0.1381
58546W        W59410  25.105   7.354  18.889  0.1108 -0.2834 -0.2124
58547W        W59411  25.762   5.473  19.314  0.2365  0.0750  0.0564
58548W        W59412  23.634   5.225  16.780  0.0771  0.2820 -0.0147
58549W        W59413  25.085   2.792  19.543  0.1369  0.2181 -0.0154
58550W        W59414  23.236   7.312  19.436  0.0356  0.0531 -0.0800
58551W        W59415  23.322   4.211  15.587  0.1508 -0.0257 -0.0809
58552W        W59416  21.779   3.614  20.136  0.1033 -0.1571  0.1879
58553W        W59417  23.165   5.373  18.067 -0.1456  0.2900 -0.1369
58554W        W59418  26.964   5.484  13.320  0.2468  0.4089 -0.1062
58555W        W59419  21.516  10.076  17.010  0.0520 -0.3449 -0.2437
58556W        W59420  24.542   5.426  16.374 -0.0871 -0.0195  0.0165
58557W        W59421  21.459   3.536  17.972 -0.0493 -0.0264 -0.0088
58558W        W59422  23.782   8.688  19.899  0.0310 -0.2908 -0.0896
58559W        W59423  23.735   3.657  14.849  0.0290 -0.1711 -0.3486
58560W        W59424  21.743   2.506  16.509 -0.1557  0.1360  0.3517
58561W        W59425  23.490   5.443  17.637 -0.1293 -0.5908  0.3086
58562W        W59426  22.032   4.411  17.795 -0.3814  0.4517  0.3115
58563W        W59427  22.745   4.460  19.029 -0.0749 -0.1559  0.1277
58564W        W59428  22.568   4.849  18.801 -0.0294 -0.2474  0.1853
58565W        W59429  22.387   5.054  19.428 -0.0898  0.2377 -0.2332
58566W        W59430  25.482   7.473  18.445  0.2097  0.0932 -0.3533
58567W        W59431  20.813   2.966  17.412  0.1756  0.2761 -0.0603
58568W        W59432  20.218   5.118  18.419  0.0142  0.0856 -0.1859
58569W        W59433  23.845   7.778  17.193  0.1581  0.1450  0.0977
58570W        W59434  27.105   4.715  15.660  0.1081  0.0619 -0.0612
58571W        W59435  27.162   7.206  17.092  0.0441  0.1269 -0.1595
58572W        W59436  24.476   5.432  14.406  0.2431 -0.0414  0.0683
58573W        W59437  21.312   4.097  15.709 -0.1446 -0.1353 -0.0649
58574W        W59438  28.480   3.999  15.931  0.1527  0.0949 -0.1269
58575W        W59439  24.069   6.337  17.529  0.4476  0.3194 -0.2085
58576W        W59440  22.478   3.323  17.269 -0.0726 -0.2928  0.0625
58577W        W59441  24.007   5.025  17.086  0.2209  0.2070  0.1475
58578W        W59442  24.488   5.719  15.290 -0.1823 -0.2950  0.3762
58579W        W59443  23.881   8.300  16.803  0.1818  0.0269 -0.2489
58580W        W59444  21.824   5.555  17.056  0.2004 -0.0833 -0.2144
58581W        W59445  25.426   7.404  16.167  0.2106  0.0316  0.1614
58582W        W59446  23.426   3.073  13.268  0.0245  0.0871  0.1226
58583W        W59447  24.548   4.476  14.088 -0.2085 -0.2496  0.0586
58584W        W59448  21.016   4.503  14.594  0.3105 -0.3375  0.0479
58585W        W59449  26.299   4.897  17.753  0.2053 -0.2317 -0.3020
58586W        W59450  24.699   7.841  18.536 -0.1456 -0.2399  0.0334
58587W        W59451  25.962   4.769  17.368 -0.3939  0.1206 -0.1678
58588W        W59452  24.633   4.920  15.652  0.4745 -0.3192  0.0519
58589W        W59453  22.208   5.091  17.797  0.1371 -0.2215  0.2030
58590W        W59454  23.272   7.910  17.250 -0.0266 -0.3512 -0.1311
58591W        W59455  23.163   6.271  16.304  0.1194 -0.2212 -0.1626
58592W        W59456  24.801   4.870  17.542  0.0893  0.3367 -0.1028
58593W        W59457  23.470   4.093  17.604  0.0308 -0.0377 -0.3452
58594W        W59458  23.758   4.309  13.855  0.0982  0.1854  0.0374
58595W        W59459  26.410   6.494  16.433  0.1518 -0.0081  0.1868
58596W        W59460  23.188   4.940  16.619  0.1646  0.1715 -0.0356
58597W        W59461  22.049   6.413  15.678 -0.2201  0.1375 -0.1274
58598W        W59462  20.739   3.363  14.683  0.1042  0.2281  0.0161
58599W        W59463  22.665   3.742  17.455 -0.1062  0.0094 -0.1790
58600W        W59464  20.818   5.823  14.522 -0.1007 -0.1926  0.0147
58601W        W59465  22.493   1.959  14.497 -0.0617 -0.0041  0.2589
58602W        W59466  19.201   5.379  16.578  0.2568  0.0194  0.2409
58603W        W59467  23.278   3.863  14.728 -0.3707 -0.2843 -0.0261
58604W        W59468  24.706   2.684  17.109  0.1179  0.1027  0.1935
58605W        W59469  24.246   3.632  15.741 -0.0848  0.1844  0.2384
58606W        W59470  23.416   7.591  18.458  0.1683 -0.0041  0.1577
58607W        W59471  23.189   4.798  18.179 -0.1124 -0.1985 -0.1143
58608W        W59472  23.701   6.112  18.458  0.2032 -0.4657 -0.0601
58609W        W59473  22.820   2.827  12.587  0.0084 -0.1229  0.0855
58610W        W59474  24.112   5.657  16.424 -0.0596  0.3731 -0.0570
58611W        W59475  24.076   5.150  16.586 -0.3336  0.0370  0.0628
58612W        W59476  21.823   4.165  15.901  0.0216  0.0971 -0.5400
58613W        W59477  24.625   4.288  16.861  0.3173  0.0663 -0.1846
58614W        W59478  22.322   5.754  18.074 -0.1515  0.1539  0.5116
58615W        W59479  22.891   4.193  13.796  0.4020 -0.1767  0.0014
58616W        W59480  24.371   2.431  12.207  0.3723  0.4074  0.1387
58617W        W59481  23.313   4.443  13.649 -0.1338  0.2780  0.0471
58618W        W59482  23.179   5.927  16.882 -0.0479 -0.0416 -0.0266
58619W        W59483  20.941   6.087  13.565  0.1860  0.1548 -0.2857
58620W        W59484  25.978   2.239  19.507  0.0746  0.0059 -0.3030
58621W        W59485  26.659   3.796  17.732 -0.0379 -0.2030 -0.2271
58622W        W59486  23.089   2.837  17.961  0.2811  0.2150 -0.0939
58623W        W59487  23.501   4.746  16.907 -0.1458  0.3252  0.2460
58624W        W59488  25.624   4.440  16.596  0.0375 -0.1699 -0.1244
58625W        W59489  22.026   7.854  15.010 -0.3836  0.0412 -0.2366
58626W        W59490  21.898   6.926  19.075  0.0981  0.3062  0.1749
58627W        W59491  23.280   7.952  13.282 -0.2229 -0.0441  0.3939
58628W        W59492  24.142   5.437  17.989 -0.0572 -0.2473 -0.0098
58629W        W59493  26.658   3.233  17.198  0.1112 -0.1200  0.2819
58630W        W59494  25.563   4.969  16.447  0.3755  0.1356 -0.0997
58631W        W59495  22.463   4.068  16.163 -0.0552 -0.0848 -0.2228
58632W        W59496  22.720   3.885  19.038  0.1312 -0.3170 -0.1048
58633W        W59497  24.842   4.498  15.806 -0.2854 -0.0304 -0.0823
58634W        W59498  22.223   8.454  13.822 -0.0815 -0.0225 -0.2262
58635W        W59499  21.358   6.186  15.656 -0.2023 -0.1151  0.0488
58636W        W59500  20.947   5.611  14.994 -0.0851 -0.0739  0.0304
58637W        W59501  21.995   5.384  18.189 -0.0582 -0.0519  0.0080
58638W        W59502  22.260   5.779  13.640 -0.0699  0.1714  0.2318
58639W        W59503  23.753   8.872  15.719  0.2174  0.2171  0.0394
58640W        W59504  25.616   4.569  16.118 -0.0336  0.4136  0.1104
58641W        W59505  22.254   3.839  17.015  0.0899 -0.1600 -0.1897
58642W        W59506  23.731   3.120  14.995  0.1094  0.3682 -0.0217
58643W        W59507  22.700   6.847  19.615  0.1627  0.1885 -0.2082
58644W        W59508  23.917   4.305  15.974  0.2438 -0.0728 -0.1724
58645W        W59509  23.695   2.380  13.822 -0.1500  0.2393 -0.0603
58646W        W59510  24.629   7.891  15.951  0.1763  0.1700  0.0187
58647W        W59511  23.506   6.256  15.727 -0.0736 -0.0940  0.1879
58648W        W59512  24.013   4.177  13.365  0.1717 -0.1570  0.2346
58649W        W59513  21.453   6.258  15.137  0.0535 -0.0102  0.0424
58650W        W59514  24.522   4.549  21.422 -0.2474  0.2092 -0.1809
58651W        W59515  22.777   2.233  20.274  0.2094  0.0138  0.4385
58652W        W59516  22.427   5.203  18.504 -0.2936 -0.0796 -0.0629
58653W        W59517  20.855   3.037  13.849 -0.1287  0.0632  0.0173
58654W        W59518  22.641   2.585  16.130 -0.0668 -0.1505  0.0266
58655W        W59519  21.416   6.746  18.914 -0.1095 -0.1096  0.1179
58656W        W59520  20.089   1.293  15.903  0.0603 -0.0187  0.0168
58657W        W59521  27.077   5.827  15.917  0.2678  0.0579  0.1057
58658W        W59522  19.834   2.640  11.165  0.0203 -0.0239 -0.1112
58659W        W59523  26.299   4.579  18.972 -0.1282  0.2614  0.0957
58660W        W59524  25.276   5.455  15.781 -0.3260  0.1226  0.1732
58661W        W59525  23.625   2.498  15.809  0.0039  0.0493 -0.0819
58662W        W59526  21.602   7.118  16.965  0.0494 -0.2227 -0.1717
58663W        W59527  21.847   2.122  14.325 -0.2351  0.1863 -0.1635
58664W        W59528  23.056   4.706  18.741 -0.1768 -0.0074  0.1628
58665W        W59529  23.782   5.884  16.105  0.0317  0.2393 -0.2584
58666W        W59530  20.891   5.986  15.781 -0.0164 -0.1210  0.2036
58667W        W59531  21.506   4.360  14.841 -0.0376 -0.1530  0.2301
58668W        W59532  21.539   5.735  18.860  0.4161 -0.2086 -0.0461
58669W        W59533  20.460   5.327  20.441  0.0512 -0.0287  0.0833
58670W        W59534  23.763   4.384  16.455  0.0163  0.0933  0.0209
58671W        W59535  25.695   3.428  19.263 -0.1646  0.0189  0.0323
58672W        W59536  25.921   5.489  18.500 -0.2672  0.1080  0.2253
58673W        W59537  26.483   7.573  16.241  0.3852 -0.0336  0.1515
58674W        W59538  23.358   6.398  16.818  0.0278  0.2856  0.0604
58675W        W59539  24.487   5.385  15.702 -0.3939  0.0580  0.0020
58676W        W59540  21.619   5.607  19.577  0.1247 -0.2190 -0.0604
58677W        W59541  22.713   3.563  17.928  0.1715  0.0859 -0.2554
58678W        W59542  25.413   4.802  19.886 -0.1811  0.1552 -0.1778
58679W        W59543  23.244   5.622  18.603  0.0923 -0.0525  0.1023
58680W        W59544  23.968   6.613  14.997 -0.0194 -0.3099 -0.4800
58681W        W59545  25.345   2.928  14.985  0.1867  0.1490 -0.2454
58682W        W59546  25.766   5.410  17.091  0.1833 -0.2461  0.1656
58683W        W59547  21.223   5.575  19.297  0.0257  0.0783  0.1203
58684W        W59548  20.694   5.099  18.576  0.1742  0.0422  0.1811
58685W        W59549  26.929   1.682  16.620  0.2644 -0.0972  0.0028
58686W        W59550  23.566   7.155  16.414 -0.2803  0.1417 -0.0041
58687W        W59551  25.138   7.391  17.778 -0.2255 -0.2974  0.1077
58688W        W59552  21.505   3.675  15.827  0.1828  0.1061 -0.3695
58689W        W59553  22.134   4.817  19.884  0.1333 -0.1096 -0.3711
58690W        W59554  24.016   7.761  13.984  0.2018 -0.0466 -0.2697
58691W        W59555  25.224   2.027  17.237 -0.2702 -0.1641  0.0684
58692W        W59556  24.442   5.129  17.358 -0.1858 -0.0368 -0.3497
58693W        W59557  22.699   5.579  18.961  0.0973 -0.1942  0.0837
58694W        W59558  26.561   5.230  14.229 -0.0769 -0.0613  0.2058
58695W        W59559  22.790   5.804  17.915  0.2854  0.0019 -0.1914
58696W        W59560  23.277   8.979  15.915 -0.3231 -0.0035 -0.1748
58697W        W59561  25.358   7.894  17.679  0.1442  0.2930  0.0207
58698W        W59562  24.933   5.736  16.213 -0.1292 -0.2051 -0.3816
58699W        W59563  21.168   5.777  17.500 -0.0320  0.1547  0.1597
58700W        W59564  21.030   3.391  17.677 -0.0665  0.0368 -0.0797
58701W        W59565  22.458   3.214  15.792 -0.1192  0.2268 -0.0731
58702W        W59566  21.122   5.547  16.444 -0.2688  0.2709  0.1468
58703W        W59567  23.261   3.001  15.072  0.1722  0.0531 -0.0008
58704W        W59568  23.089   6.732  16.486  0.2832 -0.5855  0.0581
58705W        W59569  22.649   5.834  17.303  0.0115  0.2489  0.0951
58706W        W59570  26.072   7.268  17.623  0.1089  0.1555 -0.0267
58707W        W59571  23.369   4.002  13.864  0.1721 -0.1548 -0.0044
58708W        W59572  24.710   3.494  16.174 -0.0489 -0.0227 -0.0768
58709W        W59573  24.874   8.511  16.766 -0.0266  0.5670  0.1614
58710W        W59574  25.124   4.842  18.085 -0.0526 -0.0502 -0.0927
58711W        W59575  21.219   5.393  11.252 -0.3273 -0.2196 -0.0855
58712W        W59576  24.042   6.769  14.556 -0.0474 -0.0977  0.1088
58713W        W59577  25.385   4.429  13.923 -0.4076 -0.0219 -0.1766
58714W        W59578  21.441   3.004  18.178  0.2792  0.3453 -0.1143
58715W        W59579  22.496   7.540  16.630 -0.1048 -0.2397 -0.1486
58716W        W59580  23.915   4.262  18.532 -0.3762 -0.0815 -0.0353
58717W        W59581  24.438   6.238  17.828  0.0778  0.0112  0.1665
58718W        W59582  24.495   5.467  18.394  0.1411 -0.0184 -0.4626
58719W        W59583  25.519   6.275  16.812 -0.1549  0.0704 -0.2669
58720W        W59584  23.823   4.734  18.305 -0.1733  0.2711 -0.2210
58721W        W59585  19.031   8.117  18.764 -0.4238  0.3968  0.1626
58722W        W59586  22.431   3.303  19.699  0.1570  0.1642  0.1215
58723W        W59587  21.950   3.126  18.319  0.1894 -0.2085 -0.2014
58724W        W59588  26.255   6.884  16.101 -0.3293 -0.1593 -0.2159
58725W        W59589  24.358   4.060  15.951 -0.0015  0.0596  0.4534
58726W        W59590  24.567   4.792  16.207  0.0488 -0.0534  0.0813
58727W        W59591  23.998   2.943  16.144 -0.1100 -0.1406 -0.2684
58728W        W59592  22.664   6.998  18.452  0.0759  0.2910  0.1232
58729W        W59593  20.445   5.860  19.068  0.0529 -0.0526  0.0731
58730W        W59594  22.081   4.456  19.567  0.0477 -0.1635  0.0786
58731W        W59595  25.024   8.709  17.499 -0.2811  0.2486  0.2233
58732W        W59596  25.031   6.574  18.237 -0.1395  0.1161  0.0809
58733W        W59597  21.462   3.007  16.577  0.3875 -0.3576  0.1366
58734W        W59598  22.711   4.142  17.774 -0.4880 -0.2732 -0.1418
58735W        W59599  25.204   2.819  15.824 -0.3005 -0.3005  0.0072
58736W        W59600  22.710   4.785  18.360  0.0536 -0.0494  0.3619
58737W        W59601  24.547   1.300  16.977  0.1694  0.1471 -0.4354
58738W        W59602  23.907   3.334  13.993  0.0530  0.0063 -0.0885
58739W        W59603  22.034   4.043  18.336  0.2611  0.0056  0.0012
58740W        W59604  20.144   7.906  16.585  0.2527 -0.3632  0.1627
58741W        W59605  24.047   4.760  16.183 -0.0014  0.0682  0.3328
58742W        W59606  24.339   5.022  18.509 -0.0484  0.0204  0.0020
58743W        W59607  24.447   5.331  16.883 -0.0879  0.1310 -0.2890
58744W        W59608  22.585   3.560  20.265  0.1319 -0.4937 -0.0947
58745W        W59609  24.540   6.215  17.326 -0.2869 -0.2382 -0.1020
58746W        W59610  24.353   6.850  17.469  0.0843  0.0472  0.1539
58747W        W59611  22.783   5.103  16.842 -0.0902  0.1958 -0.4536
58748W        W59612  28.465   5.507  17.685 -0.2203 -0.0771 -0.0081
58749W        W59613  23.588   3.195  20.817  0.1605  0.1528 -0.0626
58750W        W59614  22.889   5.014  15.296  0.1099 -0.1984 -0.2300
58751W        W59615  21.385   4.809  15.546  0.1651  0.0930  0.0710
58752W        W59616  25.723   7.018  16.210  0.1546 -0.1043 -0.1263
58753W        W59617  26.872   5.036  15.969  0.1808  0.1127  0.1162
58754W        W59618  25.512  10.235  15.619  0.0381  0.2211 -0.0610
58755W        W59619  24.988   5.573  18.244 -0.0752  0.0711 -0.0374
58756W        W59620  19.687   5.993  14.879 -0.1490  0.0182  0.1493
58757W        W59621  22.143   3.398  14.351 -0.0314 -0.0155 -0.1956
58758W        W59622  23.115   6.772  19.291 -0.0422 -0.1611 -0.0750
58759W        W59623  24.994   4.585  18.577 -0.1967 -0.0164  0.3364
58760W        W59624  23.142   6.247  15.259 -0.2546 -0.1347 -0.0346
58761W        W59625  25.396   6.832  15.068 -0.1180 -0.1908  0.2439
58762W        W59626  24.628   8.068  18.067 -0.1320  0.0783  0.0285
58763W        W59627  23.038   2.351  19.611  0.1549  0.0406 -0.3106
58764W        W59628  23.245   4.394  16.528 -0.0622  0.0602 -0.1176
58765W        W59629  24.587   3.782  16.631  0.1711 -0.1538  0.1578
58766W        W59630  22.720   7.495  15.969 -0.1242  0.1834 -0.4299
58767W        W59631  24.986   3.052  15.378 -0.2243 -0.0797 -0.0029
58768W        W59632  22.039   4.953  18.763 -0.2378  0.1677  0.1909
58769W        W59633  23.722   3.334  16.374 -0.3226 -0.0607 -0.0357
58770W        W59634  23.978   5.456  17.415  0.0457 -0.1327  0.1922
58771W        W59635  21.179   7.153  18.185  0.0758  0.0360  0.0417
58772W        W59636  22.942   8.838  19.459 -0.1403 -0.1008 -0.1422
58773W        W59637  21.575   3.101  14.740  0.1808  0.3988  0.1942
58774W        W59638  23.801   5.381  15.823  0.1321  0.0212  0.1578
58775W        W59639  25.883   5.948  17.646  0.3459  0.1411 -0.1911
58776W        W59640  23.141   4.384  17.820  0.0781  0.1524  0.2619
58777W        W59641  24.463   6.708  15.192  0.0473  0.2354 -0.0415
58778W        W59642  24.032   6.496  17.101 -0.3594  0.2022  0.1393
58779W        W59643  23.697   5.660  18.147 -0.1015 -0.1022 -0.1733
58780W        W59644  22.792   4.861  17.843 -0.2253 -0.2090  0.1025
58781W        W59645  22.701   6.403  15.517 -0.2087 -0.1382  0.0415
58782W        W59646  21.622   5.504  16.328 -0.3360 -0.1529  0.1117
58783W        W59647  24.067   2.413  16.201 -0.2076  0.2848  0.0123
58784W        W59648  23.614   4.897  16.432  0.0835 -0.1349 -0.0140
58785W        W59649  24.606   4.316  14.883 -0.2924 -0.2789 -0.0461
58786W        W59650  22.677   4.117  17.116  0.0005 -0.3005  0.5461
58787W        W59651  23.409   1.527  13.908  0.1841  0.1736 -0.0837
58788W        W59652  21.127   2.871  17.036  0.1445  0.1770  0.0690
58789W        W59653  24.992   5.120  18.483 -0.2140  0.1139  0.0801
58790W        W59654  24.420   7.414  19.443 -0.3340  0.0239 -0.0230
58791W        W59655  25.103   8.259  16.222 -0.2450 -0.0228  0.0005
58792W        W59656  24.222   9.676  17.031  0.0686 -0.1780  0.1715
58793W        W59657  21.886   5.275  16.663  0.0946  0.2926  0.0094
58794W        W59658  25.459   2.981  16.723  0.1865 -0.2314 -0.0064
58795W        W59659  22.069   2.906  14.663  0.3794 -0.2471 -0.2941
58796W        W59660  24.084   5.835  13.543 -0.1588  0.0166 -0.1038
58797W        W59661  24.918   5.573  16.789  0.1754 -0.0592  0.0874
58798W        W59662  20.703   4.208  18.063 -0.1705  0.1064  0.1936
58799W        W59663  22.252   5.000  16.937  0.0648  0.5915 -0.1912
58800W        W59664  21.899   3.920  12.060 -0.2639 -0.0151  0.0467
58801W        W59665  25.316   5.356  16.276 -0.0479  0.0307  0.1202
58802W        W59666  23.202   5.445  16.595  0.2454  0.0088  0.4400
58803W        W59667  22.759   5.649  16.767 -0.2414  0.0299 -0.0876
58804W        W59668  19.905   5.087  15.922  0.0983 -0.0526  0.1128
58805W        W59669  21.113   7.585  17.616  0.2421 -0.0274 -0.2586
58806W        W59670  22.372   2.592  16.640 -0.1182  0.0722 -0.0263
58807W        W59671  27.979   2.871  16.814  0.0040 -0.0968 -0.1242
58808W        W59672  22.717   1.777  16.871  0.2621  0.1791  0.2571
58809W        W59673  22.112   7.380  16.898  0.0030 -0.5888  0.0522
58810W        W59674  20.270   5.195  16.752  0.0628  0.0875 -0.1083
58811W        W59675  25.716   7.003  12.914  0.1358  0.0164  0.0314
58812W        W59676  24.371   1.470  14.774 -0.0680  0.2179  0.0942
58813W        W59677  22.385   5.992  12.113  0.2106  0.0551  0.0487
58814W        W59678  21.355   4.615  17.246  0.1095  0.2546  0.1098
58815W        W59679  19.743   6.757  19.044 -0.1971  0.2686  0.1622
58816W        W59680  20.515   4.910  13.455  0.1296  0.1589  0.2740
58817W        W59681  23.423   3.882  16.454 -0.0861 -0.2204  0.1812
58818W        W59682  25.278   2.860  20.442 -0.0734  0.1212 -0.0282
58819W        W59683  22.435   8.428  16.412 -0.0224  0.0836 -0.2614
58820W        W59684  25.310   1.192  14.653 -0.1093 -0.0289  0.2709
58821W        W59685  24.139   7.558  15.178 -0.1003  0.1020 -0.2999
58822W        W59686  24.204   7.021  18.258 -0.2675  0.2364 -0.3921
58823W        W59687  22.347   6.015  16.926 -0.1671 -0.1946  0.0144
58824W        W59688  22.847   5.151  16.334  0.0151  0.2233 -0.4242
58825W        W59689  22.452   4.814  14.521  0.1323 -0.1819 -0.1653
58826W        W59690  23.722   3.780  16.077  0.2638 -0.0063 -0.0128
58827W        W59691  24.234   6.218  13.893 -0.0545  0.2433 -0.0945
58828W        W59692  24.914   2.779  16.632  0.3385 -0.0088  0.0270
58829W        W59693  23.835   2.988  16.771  0.1084  0.0903  0.3280
58830W        W59694  24.590   5.827  18.908 -0.1253 -0.0470  0.2009
58831W        W59695  24.483   6.333  16.821  0.1382  0.0687 -0.0380
58832W        W59696  22.003   6.787  18.130 -0.0856 -0.1292 -0.0040
58833W        W59697  21.861   4.895  19.422  0.2879  0.3123 -0.1193
58834W        W59698  23.378   4.528  17.388 -0.1760 -0.0386 -0.0710
58835W        W59699  23.742   3.295  18.481  0.1347 -0.1542 -0.1602
58836W        W59700  18.761   3.363  19.927 -0.0818  0.0760  0.0297
58837W        W59701  24.294   5.847  17.588  0.0297  0.0354  0.0402
58838W        W59702  22.961   7.317  14.336  0.2016 -0.1032 -0.1256
58839W        W59703  22.172   3.236  13.864  0.0176 -0.2585 -0.2126
58840W        W59704  27.489   2.879  16.064 -0.3922  0.0732 -0.1018
58841W        W59705  20.982   7.085  19.842  0.1003  0.1263  0.4201
58842W        W59706  23.407   6.016  17.954  0.1160 -0.3802  0.0720
58843W        W59707  25.130   6.999  17.376 -0.1214 -0.0286 -0.0353
58844W        W59708  21.961   6.049  18.749  0.1007  0.1275  0.4963
58845W        W59709  23.806   7.686  17.682  0.1743  0.2017  0.1510
58846W        W59710  24.807   8.679  17.979  0.2828  0.0088 -0.1167
58847W        W59711  23.852   5.179  20.682  0.1978 -0.0386  0.0326
58848W        W59712  24.583   5.974  16.497 -0.0718 -0.1610  0.3274
58849W        W59713  25.165   5.330  17.726  0.1184 -0.2831 -0.0159
58850W        W59714  22.882   8.491  16.121  0.1480  0.2798  0.1332
58851W        W59715  23.101   4.931  17.269 -0.3078  0.3621  0.0355
58852W        W59716  22.084   7.268  16.405  0.2612 -0.1767  0.0527
58853W        W59717  22.646   6.127  18.284 -0.1206 -0.1389  0.2561
58854W        W59718  21.328   4.307  18.283  0.0327  0.0386 -0.3958
58855W        W59719  23.450   9.925  15.939  0.2390  0.0005 -0.1602
58856W        W59720  21.017   1.887  14.462  0.0104 -0.1598  0.3266
58857W        W59721  22.090   7.850  23.425  0.1970  0.2898  0.2215
58858W        W59722  21.943   7.445  21.266 -0.0235  0.0754  0.3171
58859W        W59723  23.004   5.241  21.535  0.1621  0.2118 -0.2189
58860W        W59724  25.727   9.195  22.265 -0.0587 -0.2616  0.1913
58861W        W59725  23.518   5.582  17.079 -0.0031 -0.1736 -0.1226
58862W        W59726  21.955   3.625  18.067 -0.1743 -0.0285 -0.1791
58863W        W59727  23.055   2.574  22.436 -0.0640  0.2281  0.0330
58864W        W59728  24.137   2.564  21.288  0.1976 -0.1865  0.3108
58865W        W59729  21.427   6.046  19.295 -0.0297 -0.0060  0.3244
58866W        W59730  20.215   2.819  22.185  0.2706  0.0030  0.4206
58867W        W59731  21.654   1.456  21.806 -0.0146  0.2960  0.0849
58868W        W59732  24.088   3.175  18.853 -0.0485 -0.0076 -0.2830
58869W        W59733  23.742   2.421  20.064 -0.3128 -0.4309  0.0498
58870W        W59734  24.455   5.824  22.376 -0.1413 -0.0959 -0.1314
58871W        W59735  22.134   4.338  22.597 -0.3514  0.1287  0.2283
58872W        W59736  24.646   7.843  21.153  0.0473  0.1236 -0.0934
58873W        W59737  26.337   3.513  18.901 -0.1022 -0.0378 -0.2013
58874W        W59738  22.590   3.412  22.230  0.1887 -0.1666  0.4368
58875W        W59739  25.627   3.094  23.354  0.0411 -0.1364  0.0065
58876W        W59740  26.476   4.692  18.349 -0.2395 -0.1206 -0.1029
58877W        W59741  25.993   6.665  22.332 -0.0520 -0.1975 -0.0812
58878W        W59742  22.863   5.140  19.196  0.2026  0.0107  0.1086
58879W        W59743  23.301   6.482  19.931 -0.0551 -0.2199 -0.1835
58880W        W59744  22.603   6.180  19.678  0.2934 -0.0955  0.0607
58881W        W59745  21.122   2.896  21.134  0.0520  0.0914  0.1044
58882W        W59746  27.216   7.016  21.148 -0.0028 -0.3353 -0.1722
58883W        W59747  24.581   4.934  22.389 -0.0280  0.2029  0.0617
58884W        W59748  25.369   4.098  18.785 -0.1016 -0.0712  0.1527
58885W        W59749  23.479   6.547  21.193 -0.0674 -0.0282 -0.0806
58886W        W59750  22.582   5.361  21.882 -0.1664 -0.3336 -0.1574
58887W        W59751  25.898   6.711  16.561  0.0713  0.0985 -0.1363
58888W        W59752  24.874   7.959  20.662  0.0446 -0.0843  0.1584
58889W        W59753  24.285   8.550  22.466  0.1370  0.5421  0.3082
58890W        W59754  23.935   6.051  21.037  0.0606 -0.0559  0.2422
58891W        W59755  23.007   6.524  22.086 -0.0826 -0.1667 -0.0090
58892W        W59756  25.160   8.350  22.404 -0.1640 -0.1540  0.1626
58893W        W59757  21.858   3.324  20.872 -0.0351 -0.0342 -0.0487
58894W        W59758  22.456   4.144  20.557 -0.0143 -0.2223 -0.4359
58895W        W59759  23.090   7.042  17.384 -0.1362  0.1385 -0.2753
58896W        W59760  25.656   4.119  18.387  0.1142  0.0147 -0.2321
58897W        W59761  22.968   3.451  19.474 -0.1128  0.2097  0.0039
58898W        W59762  24.333   4.694  19.109  0.2343 -0.4050 -0.1769
58899W        W59763  24.221   7.837  19.916 -0.1176 -0.2743  0.3018
58900W        W59764  26.270   7.775  18.821  0.0578  0.0016  0.2202
58901W        W59765  21.367   6.834  19.623  0.0720 -0.0499  0.1607
58902W        W59766  24.827   8.495  19.368 -0.0718  0.1027  0.2200
58903W        W59767  20.656   4.683  22.235 -0.2795  0.1164  0.6140
58904W        W59768  27.828   5.681  22.562  0.0692 -0.0470 -0.0426
58905W        W59769  26.020   9.061  19.226  0.1675 -0.0864 -0.0425
58906W        W59770  24.034   5.115  19.003 -0.0096 -0.1431  0.0721
58907W        W59771  26.394   6.210  20.526 -0.3505 -0.2088 -0.1860
58908W        W59772  24.457   1.456  18.259 -0.0648 -0.0254  0.1440
58909W        W59773  24.522   5.275  19.972  0.1842 -0.0442  0.3241
58910W        W59774  24.743   8.313  20.990 -0.1074 -0.1177  0.1559
58911W        W59775  20.599   5.079  17.222 -0.1710 -0.0027 -0.0371
58912W        W59776  21.927   7.168  20.654  0.0710 -0.0900  0.1710
58913W        W59777  20.507   3.530  20.924 -0.2997  0.0541 -0.0751
58914W        W59778  24.529   4.024  21.429 -0.0277  0.2765  0.0924
58915W        W59779  22.201   7.128  18.519  0.0502 -0.1805  0.1734
58916W        W59780  23.969   5.984  19.177  0.2558  0.3801 -0.1351
58917W        W59781  25.181   4.951  15.686 -0.0852 -0.1387 -0.0187
58918W        W59782  22.326   9.624  20.373 -0.1100 -0.2276  0.0017
58919W        W59783  21.632   3.730  20.670  0.0333  0.2178 -0.2253
58920W        W59784  22.483   5.794  20.844 -0.1135  0.0137  0.0725
58921W        W59785  23.064   4.999  19.869  0.0482  0.1415 -0.0580
58922W        W59786  23.158   2.267  18.383  0.1179 -0.2447  0.0293
58923W        W59787  22.969   6.584  18.455 -0.0860  0.4261  0.1887
58924W        W59788  19.946   4.763  16.313 -0.3650  0.1768 -0.1252
58925W        W59789  21.687   6.111  19.712  0.1131  0.2624  0.1547
58926W        W59790  24.293   5.534  19.298 -0.1411  0.0064  0.0942
58927W        W59791  26.135   7.824  22.269 -0.0499  0.1149 -0.0411
58928W        W59792  26.611   4.106  18.185 -0.1036 -0.0816 -0.1019
58929W        W59793  23.623   4.954  19.846 -0.4128 -0.0292 -0.1231
58930W        W59794  23.748   6.989  21.376  0.0026 -0.4618  0.3549
58931W        W59795  23.571   4.345  19.440 -0.2396 -0.2025 -0.0324
58932W        W59796  24.983   7.432  19.374  0.2237  0.0052  0.0549
58933W        W59797  21.945   5.674  19.993 -0.2405 -0.1603 -0.0677
58934W        W59798  25.400   5.280  23.269 -0.1985  0.1893 -0.1811
58935W        W59799  26.133   4.201  18.672 -0.1024  0.1642 -0.0179
58936W        W59800  24.123   4.699  20.601  0.1159 -0.2624 -0.0698
58937W        W59801  22.106   5.429  22.334 -0.3625  0.1859 -0.0496
58938W        W59802  24.058   3.294  21.700 -0.0349  0.1524  0.1385
58939W        W59803  23.973   2.035  19.617 -0.3318 -0.0044 -0.1776
58940W        W59804  23.529   6.339  19.377 -0.1479  0.0888 -0.2288
58941W        W59805  22.727   7.059  21.914 -0.0677 -0.0161 -0.1793
58942W        W59806  22.679   3.940  18.379  0.1786  0.1250  0.2490
58943W        W59807  26.541   7.104  22.696  0.4241 -0.1327 -0.0633
58944W        W59808  24.958   3.497  21.246 -0.1051  0.0149 -0.1089
58945W        W59809  22.895   6.002  21.315 -0.2236  0.0396  0.2526
58946W        W59810  24.387   2.694  17.470  0.0933  0.0288 -0.0274
58947W        W59811  23.954   4.325  17.720  0.0270 -0.1497  0.0312
58948W        W59812  26.460   3.519  21.256 -0.0320  0.1665 -0.3384
58949W        W59813  22.702   9.317  18.478 -0.1560  0.2702  0.1752
58950W        W59814  24.297   3.494  19.482 -0.1319 -0.4570  0.0719
58951W        W59815  20.964   6.694  22.683  0.0767  0.0472  0.0306
58952W        W59816  23.936   5.309  18.441  0.1882 -0.1849 -0.1236
58953W        W59817  26.939   4.596  19.085 -0.2913 -0.1149  0.1725
58954W        W59818  23.345   9.432  22.696  0.1459 -0.0488  0.2198
58955W        W59819  23.223   3.655  17.689  0.1277  0.0561 -0.3574
58956W        W59820  24.067   4.932  20.121 -0.0680 -0.2445 -0.2930
58957W        W59821  25.569   8.181  17.319 -0.1552 -0.0493  0.1565
58958W        W59822  21.620   2.453  22.725  0.1912  0.0384  0.1882
58959W        W59823  23.480   2.407  18.973  0.3141 -0.2382 -0.1664
58960W        W59824  23.316   7.412  18.956 -0.0300 -0.1618 -0.2028
58961W        W59825  25.373   1.790  18.806 -0.0061 -0.0050  0.1229
58962W        W59826  23.811   4.489  19.955  0.0163  0.1306  0.2129
58963W        W59827  23.327   4.892  21.141 -0.2478  0.0827 -0.2903
58964W        W59828  25.120   4.725  21.447 -0.2982 -0.2774  0.0122
58965W        W59829  24.234   3.662  23.182  0.2893  0.0967  0.4414
58966W        W59830  21.685   7.799  19.138 -0.0187  0.0009 -0.3216
58967W        W59831  22.881   5.056  21.005  0.1893 -0.1728  0.1308
58968W        W59832  22.024   9.176  19.144  0.2661 -0.1017 -0.3167
58969W        W59833  26.691   6.798  19.776  0.1107  0.1200 -0.2237
58970W        W59834  25.123   5.904  22.457  0.3685 -0.4734  0.1788
58971W        W59835  25.461   4.635  18.808 -0.1089 -0.0585  0.1299
58972W        W59836  23.326   5.235  20.743  0.0015  0.0447  0.0819
58973W        W59837  23.649   3.699  20.724 -0.2653  0.4002 -0.3567
58974W        W59838  25.022   5.273  21.689 -0.2639  0.1439 -0.2459
58975W        W59839  24.325   3.040  19.310  0.0824  0.0746  0.3262
58976W        W59840  27.984   6.177  17.729  0.0144 -0.2082  0.0324
58977W        W59841  23.830   4.276  20.753 -0.1421 -0.1305  0.1479
58978W        W59842  26.197   7.492  18.021  0.0497 -0.2052 -0.2122
58979W        W59843  24.243   8.599  20.107 -0.1130 -0.1347 -0.2087
58980W        W59844  24.681   3.719  18.452  0.0117  0.1937  0.0512
58981W        W59845  23.254   6.786  20.737  0.1738 -0.0169  0.1906
58982W        W59846  24.008   8.146  19.047  0.0576 -0.4334 -0.1497
58983W        W59847  20.590   3.825  19.007 -0.3395 -0.2307 -0.1340
58984W        W59848  24.438   6.566  19.761 -0.1032 -0.2218 -0.0079
58985W        W59849  26.437   7.516  20.957 -0.1341 -0.0300 -0.1981
58986W        W59850  21.310   8.480  19.290 -0.1091  0.1996 -0.1117
58987W        W59851  23.237   6.799  21.645  0.2929  0.0783  0.0575
58988W        W59852  25.230   4.109  20.954  0.0434  0.2524  0.3316
58989W        W59853  21.937   8.517  21.372 -0.1728  0.1741 -0.1629
58990W        W59854  23.789   5.642  20.386 -0.0188 -0.0082  0.1991
58991W        W59855  23.345   5.297  19.447  0.3784 -0.4103  0.2138
58992W        W59856  19.897   4.209  19.104  0.0309  0.1572 -0.4422
58993W        W59857  27.231   1.016  20.629 -0.2601  0.1075 -0.3538
58994W        W59858  24.737   4.285  19.875 -0.0075  0.1436 -0.0822
58995W        W59859  26.081   9.806  18.108  0.2693 -0.1879 -0.0595
58996W        W59860  23.434   8.686  19.246 -0.0953  0.0217  0.1408
58997W        W59861  20.990   5.475  17.118 -0.2073  0.0156 -0.2358
58998W        W59862  22.857   3.007  19.760 -0.1078 -0.2980 -0.1446
58999W        W59863  22.310   4.904  16.362  0.1497 -0.0548  0.0122
59000W        W59864  22.468   7.227  19.786 -0.3858 -0.1752  0.2453
59001W        W59865  23.204   7.875  22.331  0.3127  0.0336  0.4143
59002W        W59866  26.005   5.373  20.051 -0.1091  0.5240  0.0446
59003W        W59867  24.633   2.970  18.361  0.1041 -0.0632  0.1837
59004W        W59868  24.599   4.775  19.820  0.0269  0.0345 -0.0237
59005W        W59869  25.654   7.209  19.997 -0.2909  0.4252 -0.0538
59006W        W59870  24.055   3.455  22.232 -0.0447  0.3851  0.0445
59007W        W59871  25.204   4.947  20.411  0.1192 -0.0368 -0.0149
59008W        W59872  23.951   3.910  18.055  0.3479  0.2110 -0.0918
59009W        W59873  23.765   6.808  20.866  0.1556  0.2077 -0.3358
59010W        W59874  20.960   5.235  20.555  0.0436  0.2143 -0.3933
59011W        W59875  22.189   4.465  20.787  0.0081  0.1146  0.2202
59012W        W59876  23.519   0.794  21.782  0.2514 -0.1648 -0.0100
59013W        W59877  24.225   4.914  19.524 -0.0751  0.0549  0.3306
59014W        W59878  24.665   4.405  19.404  0.1267 -0.2739 -0.1072
59015W        W59879  24.471   2.615  18.891 -0.0126 -0.0010  0.0593
59016W        W59880  22.691   3.856  19.704  0.1929  0.2565 -0.1474
59017W        W59881  24.489   1.218  20.501 -0.0125  0.3482  0.4053
59018W        W59882  21.267   5.015  20.251 -0.0901 -0.0932 -0.0097
59019W        W59883  21.483   8.375  22.379 -0.1516  0.1499 -0.2054
59020W        W59884  23.373   4.191  20.966  0.1509 -0.2596  0.1885
59021W        W59885  23.503   5.309  21.773 -0.3336 -0.0571  0.1716
59022W        W59886  21.548   4.935  18.595  0.3079 -0.0749  0.0457
59023W        W59887  23.777   2.483  18.401 -0.0971 -0.1038  0.2847
59024W        W59888  20.697   9.330  20.175 -0.0201 -0.0563 -0.2780
59025W        W59889  24.169   7.067  21.014 -0.0220  0.1387  0.0902
59026W        W59890  24.370   8.522  16.595 -0.3903 -0.0794 -0.0376
59027W        W59891  23.656   6.468  20.323  0.2446 -0.1251 -0.2644
59028W        W59892  23.713   5.193  21.294  0.3195  0.3471 -0.1260
59029W        W59893  23.785   4.842  21.904 -0.0243  0.0198  0.0525
59030W        W59894  24.788   4.887  21.107 -0.1037  0.0207  0.2339
59031W        W59895  24.473   3.526  18.862  0.1762  0.4147  0.3301
59032W        W59896  23.070   1.644  16.639  0.0674 -0.1161  0.2077
59033W        W59897  20.352   6.786  21.706  0.0115  0.3285  0.1372
59034W        W59898  23.819   7.871  18.158 -0.0834 -0.0204 -0.1086
59035W        W59899  22.581   8.210  18.151  0.1419 -0.1639 -0.1297
59036W        W59900  23.765   5.713  21.451  0.1955 -0.0156 -0.0123
59037W        W59901  22.434   5.888  18.625  0.0532 -0.0684 -0.3215
59038W        W59902  24.814   6.740  19.490 -0.0269  0.1140 -0.0390
59039W        W59903  25.370   3.586  18.968  0.3020 -0.0094  0.0744
59040W        W59904  21.314   3.416  20.995  0.0135 -0.0395 -0.2062
59041W        W59905  21.840   1.745  16.515  0.0643 -0.0053 -0.2392
59042W        W59906  24.387   5.756  20.206  0.0186  0.2729 -0.1125
59043W        W59907  24.033   2.710  17.866  0.1141  0.0838 -0.2643
59044W        W59908  22.421   3.498  18.386  0.0868  0.1982  0.1805
59045W        W59909  19.407   8.254  19.758  0.1665  0.1480 -0.0868
59046W        W59910  25.080   8.035  19.560 -0.0267  0.1497 -0.0117
59047W        W59911  22.873   6.645  17.547  0.2965 -0.1247  0.0120
59048W        W59912  19.956   5.176  20.318  0.0648  0.0581  0.0715
59049W        W59913  21.018   5.605  24.354 -0.1446  0.0835 -0.0216
59050W        W59914  18.623   6.969  21.665  0.0128  0.2086 -0.1446
59051W        W59915  24.186   4.649  18.006  0.0250 -0.3072  0.1432
59052W        W59916  24.280   3.048  21.197 -0.2914 -0.2591  0.2076
59053W        W59917  20.785   5.981  18.595  0.1495  0.2214 -0.0265
59054W        W59918  24.416   5.108  20.858  0.0369 -0.1013 -0.0758
59055W        W59919  23.033   3.438  20.051  0.1116  0.0710  0.1538
59056W        W59920  24.743   4.515  18.093  0.2900 -0.1216 -0.0597
59057W        W59921  22.782   5.856  20.368  0.0472 -0.2912  0.0799
59058W        W59922  24.950   4.265  21.573 -0.3506 -0.1537  0.0314
59059W        W59923  25.378   4.532  21.885 -0.0227  0.0747  0.0969
59060W        W59924  22.336   4.863  21.765 -0.0031  0.2190  0.2600
59061W        W59925  24.359   2.830  21.751  0.1666 -0.0607  0.1934
59062W        W59926  19.026   4.948  16.164 -0.1542 -0.3138 -0.1953
59063W        W59927  22.389   4.754  21.170  0.1029 -0.0336  0.3587
59064W        W59928  25.020   4.626  20.050 -0.0027 -0.0250 -0.2282
59065W        W59929  24.441   8.442  19.036 -0.0343 -0.0475  0.1982
59066W        W59930  21.644   6.293  18.326  0.1433  0.1022  0.0897
59067W        W59931  23.805   4.758  19.344 -0.0889  0.0020 -0.0795
59068W        W59932  22.739   5.515  21.248 -0.0085 -0.2077  0.5792
59069W        W59933  21.905   9.541  18.620 -0.0071 -0.3751  0.0754
59070W        W59934  24.745   4.349  22.496 -0.1380  0.1153  0.0854
59071W        W59935  26.239   5.412  19.165 -0.0657 -0.0802  0.2838
59072W        W59936  26.818   6.820  17.136 -0.1598  0.1206 -0.0702
59073W        W59937  26.408   4.083  16.896 -0.1638  0.1557 -0.1149
59074W        W59938  24.297   7.600  17.479  0.0445 -0.1319  0.3796
59075W        W59939  25.026   6.028  20.522 -0.2112  0.1430  0.1518
59076W        W59940  21.278   5.415  19.967 -0.1099 -0.3550 -0.0298
59077W        W59941  25.604   3.485  19.795 -0.1849  0.1302 -0.0397
59078W        W59942  24.051   4.246  18.994 -0.0742 -0.1104 -0.1504
59079W        W59943  24.692   7.090  19.175 -0.2450  0.2319  0.0110
59080W        W59944  24.417   2.442  17.942  0.1705 -0.0802 -0.1521
59081W        W59945  24.929   3.484  15.686 -0.0149  0.2937  0.0154
59082W        W59946  25.416   4.311  21.426  0.5582  0.1672 -0.0283
59083W        W59947  23.725   5.573  20.916  0.3526 -0.2899 -0.2570
59084W        W59948  23.831   3.282  20.302 -0.1665 -0.0487  0.2115
59085W        W59949  24.717   5.647  19.695 -0.4705  0.0020  0.0767
59086W        W59950  24.778   4.332  21.085  0.1833  0.0002  0.2508
59087W        W59951  26.850   3.503  19.155  0.3390 -0.1192 -0.0935
59088W        W59952  22.726   6.799  21.518 -0.0710  0.0967 -0.2423
59089W        W59953  25.676   4.425  20.899  0.0163  0.0359 -0.1258
59090W        W59954  23.997   8.183  20.256 -0.0784 -0.0637 -0.0791
59091W        W59955  20.885   5.222  19.563  0.2035 -0.0842  0.0630
59092W        W59956  23.636   7.689  19.312  0.3389 -0.1907 -0.3846
59093W        W59957  24.139   5.630  18.763 -0.0010  0.0984  0.1602
59094W        W59958  24.759   1.930  21.327  0.0955 -0.0085 -0.0614
59095W        W59959  23.480   8.142  19.132 -0.0887 -0.1080  0.2963
59096W        W59960  26.957   5.941  17.724  0.1640  0.1245  0.0394
59097W        W59961  21.227   7.974  19.380  0.1490  0.0595 -0.1307
59098W        W59962  23.152   9.224  20.535  0.2590  0.1166  0.0323
59099W        W59963  24.653   2.692  20.361  0.1294  0.1336  0.4112
59100W        W59964  25.785   4.254  22.642 -0.4069 -0.1408 -0.1855
59101W        W59965  24.126   3.287  20.759  0.0165 -0.0556  0.3872
59102W        W59966  23.410   5.101  18.507  0.3130  0.2999 -0.0459
59103W        W59967  25.847   3.144  18.279  0.0083 -0.0349  0.1911
59104W        W59968  22.452   4.181  19.415 -0.1142 -0.0035 -0.0424
59105W        W59969  24.160   7.274  17.857  0.0332 -0.1597 -0.2646
59106W        W59970  22.629   3.688  20.847  0.1111 -0.2021  0.1257
59107W        W59971  22.966   5.519  19.783  0.1721 -0.0150 -0.1064
59108W        W59972  24.010   9.021  20.241  0.0574 -0.4454  0.2333
59109W        W59973  27.135   7.428  21.506  0.0123 -0.4027  0.3211
59110W        W59974  24.129   6.681  22.195  0.5039  0.2501 -0.0257
59111W        W59975  21.886   3.982  19.600 -0.2221  0.2569 -0.1135
59112W        W59976  23.480   6.964  19.062  0.0169 -0.0806 -0.1499
59113W        W59977  24.391   2.425  20.852  0.0507 -0.0457 -0.2389
59114W        W59978  23.301   2.963  21.272 -0.0802  0.4928 -0.0283
59115W        W59979  24.199   6.992  19.588 -0.0917  0.4042 -0.2434
59116W        W59980  23.980   6.068  20.459 -0.0346  0.1760  0.1199
59117W        W59981  25.192   1.940  18.337 -0.2929  0.0724  0.0353
59118W        W59982  24.952   7.636  21.581 -0.0755  0.0203 -0.2994
59119W        W59983  22.410   6.805  21.134 -0.0633 -0.1951 -0.2926
59120W        W59984  21.969   4.987  21.439 -0.0988 -0.1175  0.0497
59121W        W59985  21.371   6.717  18.425 -0.0641 -0.1202 -0.2215
59122W        W59986  20.563   6.946  22.427 -0.0622 -0.0582  0.0355
59123W        W59987  24.200   7.296  16.703  0.0484 -0.3125  0.0157
59124W        W59988  24.943   5.925  21.107 -0.1640 -0.0963 -0.0238
59125W        W59989  25.014   3.164  20.828 -0.1026 -0.0662 -0.1942
59126W        W59990  26.286   1.268  17.759 -0.1101 -0.1604  0.1209
59127W        W59991  22.428   7.661  21.205  0.3463  0.0709 -0.4045
59128W        W59992  24.160   4.365  22.120 -0.0385 -0.1231  0.1926
59129W        W59993  25.625   6.324  20.527 -0.1893  0.1896 -0.3713
59130W        W59994  22.944   3.107  23.663  0.2438  0.4197 -0.0092
59131W        W59995  25.445   8.188  20.334  0.2974 -0.0389 -0.0486
59132W        W59996  25.243   5.660  20.799  0.2469 -0.0574  0.1084
59133W        W59997  20.091   6.193  19.886  0.0715  0.0123  0.0530
59134W        W59998  25.076   7.027  22.239  0.1850 -0.0006  0.2596
59135W        W59999  23.515   6.683  18.604 -0.3427 -0.2430 -0.2075
59136W        W60000  21.492   9.660  20.768  0.0298 -0.0496  0.3401
59137W        W60001  23.004   3.948  20.138  0.3949 -0.1104  0.1481
59138W        W60002  24.126   1.034  16.371 -0.0124  0.0728 -0.4534
59139W        W60003  24.794   4.168  18.440  0.2821  0.0906 -0.1367
59140W        W60004  23.046   7.969  20.033 -0.1330 -0.1541  0.1569
59141W        W60005  23.292   5.929  19.649 -0.1493  0.0256 -0.4059
59142W        W60006  26.015   3.239  19.611 -0.0160  0.2204 -0.2126
59143W        W60007  23.425   4.282  21.428  0.0812 -0.5064 -0.0473
59144W        W60008  21.450   2.170  20.628 -0.0667  0.2074  0.0318
59145W        W60009  26.545   3.139  19.501 -0.1331  0.0322  0.0689
59146W        W60010  23.389   5.020  19.026 -0.0722 -0.1672 -0.1141
59147W        W60011  21.288   5.478  17.983  0.2626  0.0720 -0.3341
59148W        W60012  24.420   3.977  19.203  0.4573  0.1200  0.0106
59149W        W60013  23.220   5.782  21.642  0.1033 -0.1239  0.2413
59150W        W60014  22.989   2.723  20.326  0.1386 -0.0647 -0.0384
59151W        W60015  22.428   6.418  18.614 -0.0606 -0.1455  0.3248
59152W        W60016  20.742   2.219  19.907  0.2686  0.2748  0.0835
59153W        W60017  24.162   3.355  16.596  0.1818  0.0295  0.1201
59154W        W60018  25.479   5.992  19.455  0.1744  0.1443 -0.3816
59155W        W60019  23.084   4.070  19.351  0.0246  0.1322  0.1621
59156W        W60020  22.598   8.477  19.500 -0.1771  0.2430 -0.0083
59157W        W60021  23.945   3.712  22.758  0.0885  0.1430  0.0134
59158W        W60022  22.639   5.904  21.754  0.3507 -0.2592  0.0689
59159W        W60023  21.761   7.094  21.699  0.1282  0.0810  0.1503
59160W        W60024  24.271   7.732  19.002 -0.2115  0.0801  0.1244
59161W        W60025  25.481   7.926  18.217 -0.2556  0.1252  0.2015
59162W        W60026  24.161   5.671  20.743 -0.2541 -0.0608  0.0075
59163W        W60027  25.318   6.647  21.559 -0.2288  0.0757  0.1812
59164W        W60028  21.891   5.859  19.177 -0.0474 -0.0504 -0.1039
59165W        W60029  23.806   3.694  19.844 -0.0754 -0.3152 -0.1032
59166W        W60030  22.618   5.703  19.503 -0.1250  0.0709  0.2245
59167W        W60031  22.704   2.600  19.931  0.0706  0.1199  0.0466
59168W        W60032  24.402   4.742  21.917 -0.0107  0.0872  0.1231
59169W        W60033  22.156   2.607  20.008 -0.2296 -0.2993 -0.0049
59170W        W60034  23.949   6.527  21.754 -0.0448 -0.2625 -0.2225
59171W        W60035  23.418   9.968  17.335  0.2896  0.5106  0.0946
59172W        W60036  23.196   7.895  18.762 -0.1148 -0.2912  0.0494
59173W        W60037  21.984   5.534  18.680 -0.2385  0.1773  0.1161
59174W        W60038  23.422   5.973  18.913 -0.1463  0.0895 -0.0181
59175W        W60039  26.448   7.120  20.686 -0.1063  0.0385  0.2459
59176W        W60040  23.464   4.052  19.866 -0.0052  0.1134 -0.0141
59177W        W60041  22.521   4.883  20.542 -0.0086  0.0245 -0.0566
59178W        W60042  24.215   6.235  16.079 -0.0523  0.2273  0.0574
59179W        W60043  21.509   6.271  21.270  0.0014 -0.0185 -0.1139
59180W        W60044  25.345   5.480  22.284 -0.4354  0.1644  0.1143
59181W        W60045  24.096   5.218  21.691  0.0370  0.3541  0.0005
59182W        W60046  22.113  11.336  22.724 -0.0120 -0.1006 -0.2790
59183W        W60047  24.592   1.227  19.379 -0.2217 -0.3443 -0.0105
59184W        W60048  22.091   7.833  17.657 -0.0443 -0.1192  0.1603
59185W        W60049  22.282   1.984  20.091 -0.0652  0.2252  0.0125
59186W        W60050  23.596   4.348  21.910 -0.0376  0.0183 -0.1863
59187W        W60051  22.493   6.307  20.987  0.2736 -0.2995 -0.2697
59188W        W60052  26.620   5.971  17.081 -0.2588  0.0212 -0.0231
59189W        W60053  26.528   5.899  21.454  0.0501  0.1381  0.0975
59190W        W60054  24.172   9.173  20.731  0.1128 -0.0692 -0.1880
59191W        W60055  26.269   7.142  21.609 -0.1759  0.0197 -0.0620
59192W        W60056  25.996   8.248  21.435  0.0852  0.1771  0.0015
59193W        W60057  18.975   5.956  21.530  0.1215 -0.1205  0.1878
59194W        W60058  25.108   5.126  18.962  0.0358 -0.2827  0.3323
59195W        W60059  22.340   5.911  21.349 -0.2364 -0.1492 -0.0348
59196W        W60060  23.600   3.895  18.564 -0.1232 -0.0233 -0.0334
59197W        W60061  20.234   5.160  20.861 -0.0899  0.4626 -0.0537
59198W        W60062  23.335   3.943  22.289 -0.4356 -0.1993 -0.0972
59199W        W60063  22.647   6.476  19.107  0.1364 -0.2281  0.2698
59200W        W60064  20.918   5.880  18.010 -0.0425  0.5557 -0.0436
59201W        W60065  21.767   9.256  20.860 -0.1895  0.1256  0.1218
59202W        W60066  23.425   4.191  20.365  0.0269 -0.0821 -0.0236
59203W        W60067  20.358   4.949  20.107  0.0003 -0.2977  0.0521
59204W        W60068  21.197   1.671  21.990  0.2832  0.2748  0.1027
59205W        W60069  24.554   6.948  22.126 -0.0830  0.1722  0.3099
59206W        W60070  20.409   5.843  20.583 -0.1371 -0.1093  0.1334
59207W        W60071  25.082   8.020  21.879  0.0278 -0.0896 -0.1639
59208W        W60072  23.668   5.433  18.893  0.2481 -0.0758  0.1100
59209W        W60073  23.674   7.141  18.633  0.1453  0.1238 -0.0691
59210W        W60074  23.218   8.525  18.842  0.0157  0.2182 -0.2554
59211W        W60075  22.830  10.086  16.011 -0.1333 -0.0176  0.0648
59212W        W60076  26.042   4.779  16.430 -0.2265  0.0862  0.2344
59213W        W60077  24.316   7.333  19.909  0.1287 -0.0708 -0.1704
59214W        W60078  25.011   7.551  22.045  0.0282 -0.2680  0.0211
59215W        W60079  22.784   4.756  21.962 -0.1310  0.2049  0.1280
59216W        W60080  23.888   3.402  21.164 -0.3369  0.1389 -0.3039
59217W        W60081  21.749   2.772  17.409  0.1426  0.0067 -0.2500
59218W        W60082  25.240   6.162  21.425  0.2110  0.1852  0.1349
59219W        W60083  22.999   6.228  17.258 -0.7890 -0.1882  0.0507
59220W        W60084  26.632   4.704  20.276  0.2152 -0.2363  0.1045
59221W        W60085  24.638   8.272  19.787  0.0465  0.0721  0.4745
59222W        W60086  26.399   9.917  21.470  0.0805  0.2773  0.0432
59223W        W60087  23.715   9.279  19.176 -0.0079  0.2838  0.1538
59224W        W60088  24.670   6.061  21.913  0.1521 -0.0710 -0.1647
59225W        W60089  19.927   3.655  18.679 -0.0538 -0.0109 -0.0086
59226W        W60090  23.671   4.669  20.413  0.1092  0.0409 -0.0877
59227W        W60091  23.309   5.007  17.706 -0.2726 -0.1610  0.3413
59228W        W60092  26.328   4.989  21.558 -0.2456  0.0598  0.0673
59229W        W60093  24.329   4.487  18.588  0.0316 -0.0113 -0.0100
59230W        W60094  25.654   8.055  19.342  0.5883 -0.1613  0.0943
59231W        W60095  24.043   6.611  17.923 -0.1442  0.4650  0.0662
59232W        W60096  22.860   3.822  22.163 -0.0778  0.0404  0.3209
59233W        W60097  23.256   4.621  20.642  0.1269 -0.1023  0.0317
59234W        W60098  24.346   6.895  20.138 -0.2817 -0.1393  0.0326
59235W        W60099  23.183   1.934  21.496  0.0620  0.0975  0.0253
59236W        W60100  22.270   6.476  22.507 -0.1554 -0.0787  0.0400
59237W        W60101  22.417   8.089  19.220 -0.2512 -0.0803 -0.1250
59238W        W60102  23.164   3.534  22.504  0.0081  0.0014  0.0781
59239W        W60103  25.594   3.962  19.222 -0.1996 -0.2045 -0.0917
59240W        W60104  24.401   6.371  23.305 -0.1631 -0.3050 -0.2334
59241W        W60105  26.994   7.962  21.137 -0.0372 -0.1871 -0.0011
59242W        W60106  23.337   4.580  20.084  0.3230  0.0267  0.2698
59243W        W60107  23.266   8.693  16.396 -0.1731  0.0333 -0.2507
59244W        W60108  24.576   5.350  18.891 -0.2935  0.2839  0.1161
59245W        W60109  20.881   4.169  21.278  0.2929 -0.0250  0.0904
59246W        W60110  24.999   5.439  21.257 -0.0630 -0.0078 -0.1666
59247W        W60111  21.572   5.387  23.021  0.1149 -0.0120  0.0275
59248W        W60112  23.618   9.080  20.627  0.0026 -0.1798  0.1442
59249W        W60113  23.366   6.650  17.227 -0.0360  0.0663  0.1788
59250W        W60114  25.963   7.529  21.442  0.1790 -0.2894  0.1715
59251W        W60115  21.430   7.296  19.798  0.2892 -0.1040  0.0416
59252W        W60116  24.888   6.553  22.053  0.1379  0.1042  0.0102
59253W        W60117  23.221   5.786  17.429  0.0987  0.2841 -0.1545
59254W        W60118  25.185   3.865  21.431 -0.1211  0.2552  0.0718
59255W        W60119  23.890   5.237  19.493 -0.0871  0.0508 -0.0895
59256W        W60120  21.807   4.818  17.579  0.0005 -0.0249  0.1445
59257W        W60121  21.744   9.168  24.808  0.0965  0.1529 -0.0814
59258W        W60122  22.092   7.116  23.336 -0.0533  0.0073 -0.0531
59259W        W60123  25.217   3.561  22.165  0.1504  0.0770  0.1628
59260W        W60124  26.662   7.969  24.159  0.2334 -0.1588  0.0078
59261W        W60125  25.821   7.694  23.196 -0.2956  0.1853  0.1061
59262W        W60126  22.233   6.782  21.662 -0.1296 -0.1328 -0.1734
59263W        W60127  22.961   5.680  22.104  0.2968  0.0567 -0.1364
59264W        W60128  22.911   7.769  21.394 -0.4631  0.1822 -0.3178
59265W        W60129  23.820   8.150  25.972  0.2246 -0.3213  0.1112
59266W        W60130  21.472   4.050  25.339 -0.2794 -0.0403  0.0330
59267W        W60131  20.747   5.133  21.012 -0.0859  0.2603  0.0368
59268W        W60132  24.565   5.141  21.494  0.1385  0.2072  0.2714
59269W        W60133  25.394   3.551  20.933 -0.0183 -0.0178  0.0650
59270W        W60134  24.215   2.898  24.423 -0.1159  0.1472 -0.2534
59271W        W60135  19.321   5.459  23.081  0.3343  0.0350  0.0219
59272W        W60136  22.309   6.749  25.134  0.0156  0.1937  0.1303
59273W        W60137  24.706   5.894  22.798  0.0597 -0.2350  0.0542
59274W        W60138  21.058   4.950  24.720  0.2092 -0.0964  0.0060
59275W        W60139  23.091   5.128  24.651 -0.0851 -0.1279 -0.0054
59276W        W60140  25.023   5.393  24.324 -0.1479 -0.0406  0.0589
59277W        W60141  22.264   5.944  25.429  0.1541  0.2378 -0.1173
59278W        W60142  23.399   6.668  23.078  0.0062 -0.1392 -0.3189
59279W        W60143  24.996   7.219  23.038  0.0674 -0.1261 -0.1841
59280W        W60144  20.823   7.390  22.679  0.0897  0.0234 -0.1643
59281W        W60145  20.987   5.123  22.235  0.0405 -0.1773  0.2676
59282W        W60146  21.703   7.029  25.941  0.0680 -0.0948 -0.0768
59283W        W60147  25.253   5.812  24.080  0.2015 -0.1061  0.1111
59284W        W60148  22.943   7.174  24.184  0.2208 -0.0934 -0.0765
59285W        W60149  21.426   6.550  25.682 -0.1428  0.0636 -0.1821
59286W        W60150  24.125   5.924  26.792  0.0287 -0.4316 -0.3815
59287W        W60151  23.847   7.827  21.712  0.2318  0.2655 -0.2919
59288W        W60152  25.668   6.000  23.716  0.0648  0.0572  0.2399
59289W        W60153  21.725   6.105  25.373  0.3166  0.0839  0.0527
59290W        W60154  24.301   8.702  26.781 -0.0673 -0.3240  0.1923
59291W        W60155  20.238   5.431  25.372  0.0761 -0.2397  0.1078
59292W        W60156  27.780   7.778  24.328 -0.0785  0.2269 -0.2541
59293W        W60157  24.859   5.935  23.312  0.0745 -0.4985 -0.1431
59294W        W60158  23.512   5.698  22.710 -0.1225 -0.1394  0.0662
59295W        W60159  23.820   8.185  20.745  0.0785 -0.0984  0.2701
59296W        W60160  25.645   2.652  22.426 -0.0998  0.1556 -0.2643
59297W        W60161  23.872   2.819  19.314  0.0282  0.0136  0.5257
59298W        W60162  25.724   7.409  26.593  0.1244  0.0032 -0.0646
59299W        W60163  22.299   6.886  23.943 -0.2621  0.1441 -0.2484
59300W        W60164  27.657   9.984  22.990 -0.0785 -0.1733 -0.1169
59301W        W60165  22.055   8.028  21.358 -0.0568  0.0749  0.1929
59302W        W60166  23.945   8.185  22.521 -0.0550 -0.0995  0.1080
59303W        W60167  23.526   6.260  22.851  0.2229  0.2998  0.0631
59304W        W60168  25.102   3.511  22.690  0.1402  0.0238  0.0351
59305W        W60169  24.538   7.309  22.878  0.0062 -0.0376 -0.0482
59306W        W60170  25.795   2.802  20.367  0.0349 -0.3645  0.2197
59307W        W60171  26.878   6.277  21.346  0.0085  0.0586  0.1131
59308W        W60172  25.949   5.110  21.264 -0.1683  0.3795  0.1127
59309W        W60173  26.029   8.120  22.995  0.1737  0.0469 -0.1326
59310W        W60174  25.112   2.520  22.530  0.3285  0.2090  0.0021
59311W        W60175  20.929   3.692  25.411 -0.0624 -0.1205  0.1810
59312W        W60176  23.783   6.436  18.951  0.1292 -0.0554  0.3118
59313W        W60177  21.388   4.262  24.419  0.2364  0.0472  0.2905
59314W        W60178  22.847   6.164  24.179 -0.2282  0.0955 -0.2803
59315W        W60179  22.431   6.962  22.431  0.0625  0.0265  0.1110
59316W        W60180  23.307   8.695  23.529  0.0947 -0.0103  0.3283
59317W        W60181  25.768   6.307  18.876  0.0970 -0.0484  0.1436
59318W        W60182  23.493   5.979  23.719 -0.1506 -0.0764  0.0806
59319W        W60183  24.762   4.689  25.056 -0.0173  0.0958  0.4432
59320W        W60184  22.565   5.634  22.392 -0.1811  0.0630 -0.2431
59321W        W60185  23.621   7.369  22.547 -0.1910  0.0655  0.2981
59322W        W60186  26.750   4.152  23.048  0.3686 -0.2069 -0.3787
59323W        W60187  23.292   5.423  21.180  0.1908 -0.1181 -0.1212
59324W        W60188  24.495   6.648  21.338 -0.0083  0.1839  0.0843
59325W        W60189  24.618   8.525  22.030 -0.1848 -0.1049 -0.0582
59326W        W60190  21.666   7.120  22.226  0.0620 -0.0900 -0.2306
59327W        W60191  22.942   6.777  23.390  0.0964 -0.2708 -0.3280
59328W        W60192  25.619   7.404  22.848  0.0993 -0.0670 -0.2346
59329W        W60193  28.399   8.127  21.321 -0.1241 -0.1497 -0.0355
59330W        W60194  26.685   5.462  27.050  0.1585  0.1488 -0.1799
59331W        W60195  27.859   7.066  22.624  0.0983  0.3951 -0.2802
59332W        W60196  24.105   5.999  24.639  0.0183  0.0592 -0.2567
59333W        W60197  21.498   6.772  21.088  0.0130  0.1918 -0.2915
59334W        W60198  22.999   6.956  22.884 -0.0855  0.0793  0.1076
59335W        W60199  25.247   4.868  24.239  0.2218  0.2442  0.0809
59336W        W60200  25.582   5.798  23.261 -0.0985 -0.2856 -0.1578
59337W        W60201  20.323   5.784  24.535 -0.0655 -0.1890  0.2445
59338W        W60202  21.656   5.151  26.548 -0.0035 -0.0016  0.1625
59339W        W60203  23.542   5.467  24.011  0.0505  0.0982  0.4089
59340W        W60204  23.117   8.832  24.142 -0.3148  0.1451 -0.1540
59341W        W60205  23.903   2.619  26.703 -0.0594  0.1296 -0.1496
59342W        W60206  21.695   0.337  23.952 -0.0133  0.0732  0.0510
59343W        W60207  24.650   7.414  25.377  0.0500  0.1701  0.0633
59344W        W60208  22.872   5.869  25.283  0.1393  0.0495 -0.1401
59345W        W60209  28.918   7.088  22.669 -0.1371  0.1634 -0.2877
59346W        W60210  22.457   5.202  27.470 -0.3078  0.1928  0.0361
59347W        W60211  25.450   7.520  22.278  0.0931  0.2638  0.0929
59348W        W60212  25.655   7.943  26.595  0.0319 -0.0050  0.3381
59349W        W60213  23.157   7.757  25.183  0.0882 -0.1420  0.1306
59350W        W60214  24.184   4.924  21.280  0.0914 -0.2441  0.0173
59351W        W60215  20.005   5.687  25.015 -0.0228 -0.3023  0.0340
59352W        W60216  25.756   4.923  20.851 -0.1007 -0.1057  0.1658
59353W        W60217  23.537   6.223  21.634  0.2377  0.0084  0.1111
59354W        W60218  23.229   8.119  26.244  0.2382  0.0528  0.2408
59355W        W60219  23.855   2.749  22.586 -0.0291 -0.3421  0.1365
59356W        W60220  26.401   5.505  22.353  0.2384 -0.0862 -0.1852
59357W        W60221  25.578   5.096  18.699  0.0379 -0.0632  0.2469
59358W        W60222  21.237   7.352  21.400 -0.0023 -0.0858  0.0623
59359W        W60223  22.095   8.492  22.280 -0.0120 -0.1939 -0.0469
59360W        W60224  27.391   6.017  20.511  0.3361  0.0278  0.2288
59361W        W60225  25.604   5.835  22.572 -0.1409 -0.0786 -0.1753
59362W        W60226  25.214   4.882  25.014  0.1036  0.1332  0.0251
59363W        W60227  25.630   5.376  24.218  0.1643  0.3774 -0.2698
59364W        W60228  25.036   7.702  25.602  0.0314 -0.3339 -0.2560
59365W        W60229  23.690   3.835  23.677  0.0099 -0.2859  0.0377
59366W        W60230  21.244   7.409  23.012  0.4404  0.1111  0.0864
59367W        W60231  19.311   5.097  24.525 -0.0246  0.0270  0.0479
59368W        W60232  22.911   7.500  22.610 -0.0538  0.0682 -0.2748
59369W        W60233  23.443   5.870  23.163  0.1195 -0.1203 -0.1698
59370W        W60234  25.521   7.155  23.742 -0.1406  0.0074 -0.1327
59371W        W60235  25.948   7.227  21.018  0.0273 -0.0465  0.1776
59372W        W60236  23.559   8.100  24.046  0.2473 -0.1900 -0.2264
59373W        W60237  25.711   6.468  26.201 -0.0990 -0.1066  0.2660
59374W        W60238  21.713   6.814  24.513  0.0250  0.1247  0.1348
59375W        W60239  21.453   3.762  24.506 -0.2169 -0.2334 -0.2991
59376W        W60240  26.247   8.164  21.904  0.3058  0.1392 -0.0900
59377W        W60241  26.217   8.783  22.865 -0.0980 -0.2276 -0.1501
59378W        W60242  27.280   9.318  22.187  0.1076 -0.0145 -0.1262
59379W        W60243  24.717   6.971  25.160 -0.1400 -0.1398 -0.3079
59380W        W60244  26.307   6.905  22.039  0.0278  0.0770 -0.0627
59381W        W60245  24.830   8.898  21.733 -0.0313  0.1802  0.0868
59382W        W60246  23.670   6.913  22.676  0.0716 -0.3156  0.0261
59383W        W60247  21.312   4.461  23.820  0.0931  0.2909  0.3576
59384W        W60248  22.724   5.802  25.874 -0.3524  0.0089 -0.2260
59385W        W60249  27.690   8.564  19.423  0.0821 -0.1135  0.1362
59386W        W60250  22.488   7.784  24.245  0.2312 -0.2896  0.1004
59387W        W60251  28.050   7.931  21.657  0.0545 -0.2906 -0.1646
59388W        W60252  22.148   3.483  22.461 -0.1148  0.0893  0.1700
59389W        W60253  24.942   7.766  23.457  0.3049  0.0900 -0.0337
59390W        W60254  27.956   4.277  22.252  0.0870 -0.2380 -0.0479
59391W        W60255  23.481   6.153  25.941 -0.0028 -0.2699 -0.0419
59392W        W60256  19.319   4.130  24.725  0.0369  0.2672 -0.0973
59393W        W60257  22.747   5.015  23.835 -0.2110 -0.3359  0.1055
59394W        W60258  24.663   3.932  25.945 -0.0569 -0.1989 -0.0204
59395W        W60259  24.888   5.606  22.117  0.1145  0.0326  0.0074
59396W        W60260  24.045   7.395  21.473 -0.1536  0.0249  0.1488
59397W        W60261  20.475   6.566  22.105  0.1784  0.3024  0.0016
59398W        W60262  24.769   6.260  21.463  0.2206 -0.0204  0.2986
59399W        W60263  22.957   8.023  20.930  0.0720  0.2541  0.4233
59400W        W60264  23.022   4.926  20.366 -0.2687 -0.1482  0.1455
59401W        W60265  21.783   6.030  23.983  0.0586 -0.1774 -0.1505
59402W        W60266  21.499   5.523  24.516 -0.1537  0.1316 -0.0682
59403W        W60267  23.640   6.667  23.544  0.0200  0.2363 -0.1579
59404W        W60268  26.263   8.367  23.341  0.4860  0.2855 -0.2463
59405W        W60269  23.856   6.310  23.783 -0.0686  0.2218 -0.1847
59406W        W60270  24.626   5.227  21.963 -0.1262  0.0267  0.3566
59407W        W60271  26.252   8.087  25.065 -0.1391 -0.0524  0.0444
59408W        W60272  24.755   3.573  23.048 -0.2220  0.1464 -0.0424
59409W        W60273  20.462   6.421  27.067 -0.0250  0.1143  0.0522
59410W        W60274  22.578   3.305  21.692 -0.1609 -0.1832  0.1109
59411W        W60275  24.810   7.001  22.644 -0.1065  0.0412 -0.1306
59412W        W60276  23.703   5.119  23.599 -0.0150  0.1930 -0.0001
59413W        W60277  20.598   7.349  22.087 -0.3130  0.1785 -0.0615
59414W        W60278  22.177   7.170  21.958  0.1134 -0.2319 -0.0299
59415W        W60279  23.925   4.368  22.983 -0.1259  0.2930 -0.1558
59416W        W60280  26.598   7.436  21.481  0.0056 -0.1599  0.3422
59417W        W60281  27.075   4.466  23.358  0.4821 -0.0961 -0.1064
59418W        W60282  24.758   5.823  24.210 -0.0879 -0.2518 -0.0712
59419W        W60283  27.135   8.255  23.860 -0.2306  0.2801 -0.2876
59420W        W60284  24.705   7.030  25.780  0.0446 -0.1836  0.0836
59421W        W60285  25.398   2.200  24.608 -0.1031 -0.1433 -0.0874
59422W        W60286  23.900   4.185  24.094  0.0357 -0.0658 -0.1018
59423W        W60287  27.349   3.327  23.042 -0.1248  0.3599 -0.2213
59424W        W60288  24.610   4.619  20.721 -0.2554  0.1198 -0.0902
59425W        W60289  26.373   9.293  23.228  0.4358 -0.1004 -0.2849
59426W        W60290  23.920   7.676  20.700 -0.1291 -0.2235 -0.1261
59427W        W60291  22.083   5.464  25.262  0.1599  0.0763 -0.4623
59428W        W60292  23.445   5.517  22.261  0.2631  0.1893 -0.2710
59429W        W60293  26.485   4.568  21.370  0.1723 -0.0987  0.1853
59430W        W60294  24.188   8.105  22.049  0.3496 -0.1266  0.4170
59431W        W60295  26.164   5.938  22.293  0.1167 -0.0057  0.0534
59432W        W60296  25.266   4.573  22.424 -0.0283  0.0960 -0.3664
59433W        W60297  23.660   7.760  25.214  0.1995 -0.1556  0.0445
59434W        W60298  21.562   5.537  26.105 -0.4315  0.1400  0.1951
59435W        W60299  20.729   6.778  24.306  0.1723  0.7178  0.3675
59436W        W60300  22.987   8.483  22.613  0.3674 -0.1393 -0.0440
59437W        W60301  22.967   8.898  22.153 -0.1441  0.4783  0.0006
59438W        W60302  27.721   9.506  20.749  0.0809 -0.1468  0.2081
59439W        W60303  24.881   8.849  22.268  0.2752  0.0942 -0.0872
59440W        W60304  23.087   7.805  24.208  0.0184 -0.1386 -0.5759
59441W        W60305  22.852   1.339  23.699 -0.1265  0.0135  0.1850
59442W        W60306  25.661   6.479  27.095  0.1523  0.0402  0.1805
59443W        W60307  22.770   6.606  22.559 -0.1490  0.3889  0.2287
59444W        W60308  23.784   3.945  23.195 -0.1206  0.0398 -0.0397
59445W        W60309  21.851   8.480  22.731 -0.0781 -0.1007 -0.1191
59446W        W60310  22.846   5.390  23.430 -0.0975  0.2532  0.0804
59447W        W60311  22.250   5.670  20.426 -0.2018  0.1018  0.0766
59448W        W60312  20.510   5.708  23.636 -0.0875  0.0943  0.2017
59449W        W60313  19.825   5.876  24.395  0.0703 -0.0590  0.3261
59450W        W60314  22.531   4.554  26.656 -0.0253  0.2137  0.0310
59451W        W60315  24.305   5.468  23.392 -0.0245  0.1654  0.1050
59452W        W60316  23.026   6.420  22.955 -0.0403  0.1496  0.0368
59453W        W60317  25.455   3.975  20.513  0.2351  0.0438  0.0599
59454W        W60318  20.685   5.591  21.929 -0.1205  0.2068  0.2564
59455W        W60319  23.798   3.051  22.995  0.3089  0.0380 -0.0876
59456W        W60320  26.595   3.830  23.538 -0.3143  0.2782  0.0574
59457W        W60321  25.158   5.617  22.974  0.2247  0.0900  0.1060
59458W        W60322  24.061   5.926  24.105  0.1823  0.0442 -0.0665
59459W        W60323  26.318   6.689  24.602 -0.1907 -0.1840 -0.0380
59460W        W60324  19.853   4.194  23.149  0.3023 -0.0415  0.3937
59461W        W60325  24.220   4.780  24.986  0.4846 -0.1415  0.1642
59462W        W60326  21.253   4.527  25.399 -0.2071  0.0018  0.1363
59463W        W60327  21.716   7.640  26.679 -0.0479  0.0225 -0.1350
59464W        W60328  25.798   7.481  21.930 -0.1672  0.0798  0.0225
59465W        W60329  22.885   8.911  21.305  0.0772 -0.0410  0.3231
59466W        W60330  21.020   4.657  21.436  0.3197 -0.0787  0.0843
59467W        W60331  20.582   4.970  24.863  0.2803  0.1347  0.2307
59468W        W60332  21.826   8.523  25.972  0.1276 -0.3347  0.0461
59469W        W60333  26.108   6.118  26.266  0.0651  0.1145 -0.0676
59470W        W60334  25.770   4.976  23.427  0.1688 -0.3318  0.1802
59471W        W60335  26.410   5.071  27.874  0.2693  0.0348  0.1591
59472W        W60336  26.015   6.968  22.715  0.2190 -0.0269 -0.1407
59473W        W60337  22.736   9.625  20.709  0.2374  0.1108 -0.0518
59474W        W60338  25.041   5.807  21.653 -0.0188 -0.1967  0.0838
59475W        W60339  22.342   5.042  25.124 -0.1147 -0.0023  0.2191
59476W        W60340  21.090   7.798  26.237 -0.2277 -0.0995  0.1824
59477W        W60341  26.731   3.924  24.024  0.1514  0.0089 -0.0081
59478W        W60342  24.238   7.107  23.959  0.0474 -0.0816  0.3150
59479W        W60343  25.078   9.506  22.945 -0.3538  0.0031  0.1572
59480W        W60344  23.717   4.794  22.896  0.0693  0.0330  0.1971
59481W        W60345  25.457   8.371  22.823  0.0071 -0.0079  0.1386
59482W        W60346  22.139   4.789  25.555  0.2500  0.0421  0.2600
59483W        W60347  24.274   7.115  25.579 -0.1469 -0.0727 -0.1775
59484W        W60348  23.586   4.438  23.506  0.0567 -0.1625 -0.0695
59485W        W60349  24.521   7.381  21.187  0.1482  0.1434 -0.2400
59486W        W60350  22.155   4.884  24.714 -0.0890  0.0204  0.1832
59487W        W60351  22.130   6.409  26.304 -0.1628  0.0632 -0.0710
59488W        W60352  21.183   6.971  26.013 -0.4758  0.1231  0.0445
59489W        W60353  22.148   5.552  21.709 -0.3532  0.0869 -0.0162
59490W        W60354  27.446   4.428  20.114 -0.0528 -0.1492  0.1555
59491W        W60355  22.756   5.045  27.818 -0.0962 -0.1065 -0.0531
59492W        W60356  22.732   7.694  21.863 -0.0348  0.2694 -0.0410
59493W        W60357  25.522   4.142  23.323 -0.4082  0.0712  0.1396
59494W        W60358  22.667   4.500  23.819  0.0001 -0.0534 -0.1103
59495W        W60359  21.852   5.704  25.737 -0.0744 -0.0455  0.3682
59496W        W60360  24.499   7.656  23.251  0.2417 -0.0117  0.3835
59497W        W60361  23.036   6.359  21.601  0.2025  0.1460  0.2369
59498W        W60362  22.897   6.995  24.696  0.0478 -0.0867  0.0239
59499W        W60363  21.372   5.251  24.039 -0.3328 -0.2216 -0.1450
59500W        W60364  25.304   4.404  22.941  0.1576  0.0121  0.2275
59501W        W60365  25.364   7.022  22.619 -0.0228 -0.2235 -0.2542
59502W        W60366  23.590   6.317  20.798  0.1436 -0.1959 -0.1048
59503W        W60367  25.135   5.334  25.386  0.1163  0.0267 -0.0974
59504W        W60368  21.526   5.647  25.315 -0.1000 -0.2228  0.1744
59505W        W60369  24.611  10.136  22.592 -0.0588  0.0074  0.0189
59506W        W60370  22.814   4.769  21.463  0.0909 -0.1329 -0.1935
59507W        W60371  22.094   7.545  22.975  0.2129 -0.0872 -0.0654
59508W        W60372  23.770   7.177  24.237 -0.0107  0.1243  0.1046
59509W        W60373  25.351   9.345  26.057 -0.2047  0.0215  0.1581
59510W        W60374  24.959   6.702  25.529 -0.0722  0.4033  0.1068
59511W        W60375  20.475   5.107  23.891 -0.1107 -0.0696  0.3770
59512W        W60376  26.865   6.852  23.599 -0.2911  0.0998  0.1229
59513W        W60377  23.958   5.696  22.390  0.1081 -0.0469 -0.2432
59514W        W60378  20.707   5.366  24.682  0.1743 -0.0310  0.0482
59515W        W60379  21.728   7.013  23.941 -0.1294  0.0183 -0.0285
59516W        W60380  22.144   6.667  24.603  0.1156 -0.1198 -0.0596
59517W        W60381  22.306   7.747  22.530  0.2388  0.0005  0.0296
59518W        W60382  22.516   5.496  26.394 -0.0123  0.2326  0.2455
59519W        W60383  24.869   3.636  24.621  0.0669 -0.0048  0.1913
59520W        W60384  22.811   6.753  23.892  0.1482  0.3010 -0.0100
59521W        W60385  23.874   6.015  25.062  0.2388 -0.0610 -0.1739
59522W        W60386  21.088   8.145  23.193 -0.2735  0.0618  0.2319
59523W        W60387  26.493   5.620  22.835  0.1840 -0.1047  0.0953
59524W        W60388  22.322   5.936  24.009  0.0297  0.1797  0.0153
59525W        W60389  27.723   5.402  22.016 -0.2380  0.0484 -0.2462
59526W        W60390  24.560   6.310  22.354  0.2305  0.2660  0.1175
59527W        W60391  25.497   8.160  23.303 -0.0868  0.0799  0.0829
59528W        W60392  23.045   5.408  23.921  0.0051  0.2345  0.1896
59529W        W60393  26.176   4.868  23.143  0.0436 -0.0514  0.1028
59530W        W60394  24.973   7.170  24.729  0.0525 -0.1117  0.1771
59531W        W60395  23.051   4.366  25.889  0.0050  0.1581 -0.0275
59532W        W60396  22.364   7.195  21.493 -0.0906 -0.0758 -0.1124
59533W        W60397  23.328   7.795  21.761 -0.3046  0.2254  0.1380
59534W        W60398  20.503   4.707  23.575  0.0194  0.2596 -0.1004
59535W        W60399  21.623   8.385  24.395  0.3366  0.3889 -0.0973
59536W        W60400  22.519   6.392  23.927  0.1057 -0.1524  0.0546
59537W        W60401  22.615   5.062  22.345  0.5359  0.1047  0.1135
59538W        W60402  23.443   8.285  20.034 -0.1469  0.2382  0.1066
59539W        W60403  22.181   7.053  25.509 -0.0803 -0.0890 -0.1371
59540W        W60404  26.270   5.969  20.928 -0.1061 -0.0794 -0.0767
59541W        W60405  26.234   3.686  25.248 -0.2837 -0.1714 -0.0280
59542W        W60406  24.876   7.651  22.927  0.0973 -0.1090 -0.1152
59543W        W60407  20.891   5.120  24.245 -0.1902  0.1647  0.3243
59544W        W60408  27.897   4.298  20.850  0.0999 -0.3070 -0.0288
59545W        W60409  23.509   8.411  21.724  0.3019 -0.0080 -0.2200
59546W        W60410  22.513   8.240  23.119  0.0852 -0.0559 -0.2581
59547W        W60411  23.164   4.021  24.497  0.1316  0.0896  0.1390
59548W        W60412  23.823   4.830  25.693 -0.0877 -0.2289 -0.0910
59549W        W60413  21.377   4.851  23.259 -0.1053  0.0061  0.0900
59550W        W60414  20.844   7.238  25.727  0.0430 -0.2385  0.0468
59551W        W60415  24.413   6.429  21.859 -0.1968  0.0510 -0.2815
59552W        W60416  21.853   4.561  24.043  0.1618  0.0760 -0.0191
59553W        W60417  23.378   4.940  23.280  0.2060  0.0890 -0.1712
59554W        W60418  25.489   5.038  22.000 -0.1957  0.1212 -0.1003
59555W        W60419  21.812   6.360  22.709  0.0412  0.2414 -0.3731
59556W        W60420  21.079   5.237  21.551 -0.1058  0.0777  0.1082
59557W        W60421  20.266   3.467  25.014 -0.1183 -0.0917  0.1943
59558W        W60422  22.536   6.926  26.685  0.2454 -0.1264 -0.0233
59559W        W60423  25.318   7.670  23.186  0.0963  0.0097 -0.4191
59560W        W60424  24.929   5.197  20.729  0.1995 -0.1739  0.0435
59561W        W60425  24.937   6.165  23.898 -0.2899  0.0104 -0.0759
59562W        W60426  23.301   6.203  25.103 -0.0832  0.0899  0.0546
59563W        W60427  24.572   6.204  24.553  0.0637  0.1730 -0.3281
59564W        W60428  26.432   4.653  22.026  0.0806  0.0626 -0.0347
59565W        W60429  22.594   7.122  23.590  0.2500 -0.1356 -0.0340
59566W        W60430  24.425   5.898  21.158  0.2114  0.1183  0.0306
59567W        W60431  22.998   6.232  27.960 -0.0737 -0.2084  0.1436
59568W        W60432  24.325   6.229  22.771  0.2619 -0.1829  0.0536
59569W        W60433  22.865   4.824  23.373 -0.0135  0.2891  0.0062
59570W        W60434  25.166   8.797  22.692 -0.0219 -0.3343  0.1948
59571W        W60435  24.161   7.684  22.847 -0.1588  0.0020 -0.3620
59572W        W60436  23.134   6.231  22.438 -0.1154 -0.0411 -0.2147
59573W        W60437  24.799   4.714  22.868 -0.1718  0.0537 -0.0447
59574W        W60438  25.441   6.357  23.994 -0.5300 -0.5061  0.2638
59575W        W60439  22.612   7.752  22.901 -0.0311  0.0593 -0.0298
59576W        W60440  22.513   5.749  23.444  0.2702 -0.1463  0.2991
59577W        W60441  24.720   5.738  25.191  0.0176 -0.1986  0.1620
59578W        W60442  24.129   6.302  25.450  0.0390  0.0476 -0.2400
59579W        W60443  25.451   7.523  24.622  0.2089 -0.1887 -0.0531
59580W        W60444  20.143   3.590  23.663 -0.1110  0.1140  0.2392
59581W        W60445  23.922   6.492  22.627  0.0325 -0.1192 -0.3125
59582W        W60446  21.752   3.481  23.631  0.1466 -0.3203  0.2224
59583W        W60447  21.978   4.920  20.833  0.0933  0.0143  0.0620
59584W        W60448  21.879   5.867  24.987 -0.1111 -0.3099 -0.1910
59585W        W60449  23.630   8.116  22.128 -0.0503 -0.0656 -0.1329
59586W        W60450  22.045   5.552  23.621  0.2923 -0.1080  0.0537
59587W        W60451  24.563   4.648  24.606  0.0085  0.2613 -0.3364
59588W        W60452  24.718   6.880  26.729 -0.2207  0.1729 -0.2435
59589W        W60453  26.360   8.980  24.006 -0.0939  0.0282  0.2539
59590W        W60454  25.675   7.215  25.697 -0.1735  0.2304 -0.2700
59591W        W60455  25.481   9.311  24.506 -0.0860  0.0283 -0.1529
59592W        W60456  21.663   7.604  20.240  0.0387 -0.0436  0.2316
59593W        W60457  23.653   7.532  22.023  0.0379  0.0760 -0.1553
59594W        W60458  24.150   7.154  22.389 -0.1626 -0.0650  0.1099
59595W        W60459  23.906   5.044  25.254  0.1324 -0.3634  0.3536
59596W        W60460  22.389   6.173  24.554 -0.0853 -0.1869 -0.1443
59597W        W60461  24.396   4.541  23.216 -0.2587 -0.1611 -0.0625
59598W        W60462  24.235   3.808  23.780 -0.2695  0.2868 -0.0138
59599W        W60463  22.730   8.026  22.403 -0.1043  0.6896  0.0880
59600W        W60464  22.003   7.666  22.128 -0.3766 -0.2561  0.1186
59601W        W60465  21.384   5.950  24.874 -0.1259  0.0849  0.1618
59602W        W60466  23.299   7.487  19.983  0.1822 -0.0459  0.2257
59603W        W60467  21.843   6.482  23.685  0.1927  0.0989  0.1991
59604W        W60468  25.382   6.609  22.106  0.0840 -0.1020  0.0960
59605W        W60469  20.833   4.596  24.072 -0.0424 -0.1294  0.1358
59606W        W60470  25.588   4.736  21.362 -0.0608 -0.0773 -0.1537
59607W        W60471  25.447   5.737  21.314  0.0313 -0.1655  0.1961
59608W        W60472  24.221   7.234  24.519 -0.0581 -0.1068  0.2386
59609W        W60473  21.832   7.678  20.692 -0.0676  0.0409  0.0675
59610W        W60474  22.011   5.412  22.843  0.0032 -0.3019  0.0199
59611W        W60475  24.820   3.024  21.321  0.2361  0.1845 -0.1740
59612W        W60476  22.214   4.581  23.602 -0.1284  0.0151 -0.0466
59613W        W60477  22.518   6.670  26.128 -0.1189 -0.2438  0.3277
59614W        W60478  24.474   3.937  24.308  0.2096 -0.0379 -0.0072
59615W        W60479  21.526   5.780  21.151 -0.0253  0.2808  0.2013
59616W        W60480  22.273   5.812  22.094 -0.0310  0.0520  0.0001
59617W        W60481  22.594   6.644  23.058 -0.0069 -0.2374  0.1019
59618W        W60482  23.822   8.415  21.322  0.0741  0.1286 -0.1723
59619W        W60483  25.143   4.514  24.653 -0.2467  0.0911 -0.0804
59620W        W60484  25.644   7.442  24.149  0.2422  0.0518 -0.0170
59621W        W60485  21.929   6.980  24.942  0.2795  0.1218 -0.0819
59622W        W60486  23.440   5.976  20.127 -0.3570 -0.1413 -0.0661
59623W        W60487  25.589   4.632  23.834 -0.1864  0.1608  0.5211
59624W        W60488  24.278   3.521  20.029 -0.0741 -0.0358 -0.1692
59625W        W60489  26.674   2.911  23.714  0.0226  0.1672  0.1165
59626W        W60490  23.721   4.695  21.410 -0.0786 -0.1689  0.0378
59627W        W60491  25.580   4.844  22.952 -0.0283  0.0004  0.0082
59628W        W60492  23.105   7.424  22.074  0.3497 -0.1077  0.1107
59629W        W60493  22.701   3.079  19.163 -0.2454 -0.1198  0.1859
59630W        W60494  22.296   4.075  23.243 -0.1843 -0.0840  0.1817
59631W        W60495  24.289   5.483  25.156 -0.1768 -0.2200  0.0303
59632W        W60496  23.047   5.537  24.946 -0.0110  0.0212 -0.0297
59633W        W60497  23.237   7.441  24.550 -0.0413 -0.0039  0.1374
59634W        W60498  23.200   8.228  24.405  0.1442 -0.0946 -0.0197
59635W        W60499  27.068   6.873  25.899  0.0874 -0.2414  0.3004
59636W        W60500  21.645   7.681  21.603 -0.0260 -0.0394 -0.0082
59637W        W60501  21.346   6.295  23.207  0.1345 -0.0366 -0.1619
59638W        W60502  24.178   7.491  21.948  0.0765  0.2108  0.0188
59639W        W60503  24.809   6.406  25.906  0.0065 -0.2389 -0.2827
59640W        W60504  24.777   5.943  26.048 -0.1235  0.1311  0.2288
59641W        W60505  26.303   7.858  21.539 -0.2705 -0.0653 -0.3485
59642W        W60506  25.227   7.593  26.399 -0.1762  0.2074 -0.1444
59643W        W60507  24.958   8.999  24.489  0.0083 -0.1990 -0.3601
59644W        W60508  27.842   7.789  21.249 -0.0519 -0.2534 -0.3459
59645W        W60509  23.414   7.438  23.962  0.0095 -0.5540 -0.2403
59646W        W60510  23.488   2.762  23.872  0.0626 -0.1957  0.2799
59647W        W60511  24.680   7.266  23.519  0.0798  0.3255  0.0344
59648W        W60512  24.101   5.492  23.876 -0.2211 -0.0306  0.0983
59649W        W60513  21.356   6.482  24.579 -0.0174  0.1358  0.1345
59650W        W60514  21.833   6.234  25.843 -0.2673 -0.0174  0.2582
59651W        W60515  24.650   6.888  20.921  0.1896 -0.0109 -0.0992
59652W        W60516  23.367   7.539  23.466 -0.2858  0.0015  0.0265
59653W        W60517  22.762   7.187  21.133  0.2058 -0.2196 -0.1721
59654W        W60518  22.405   2.684  21.421  0.0341 -0.1020  0.1777
59655W        W60519  23.939   6.535   0.577  0.1921 -0.2342 -0.0801
59656W        W60520  24.892   6.103  27.390  0.2296 -0.0201 -0.1019
59657W        W60521  21.609   4.778  25.634 -0.1154 -0.0248  0.0035
59658W        W60522  23.919   6.031  28.356  0.1863 -0.2420  0.0639
59659W        W60523  23.202   6.421  23.869  0.2256 -0.2064 -0.3117
59660W        W60524  20.903   5.892  24.761  0.0734 -0.2065  0.4005
59661W        W60525  23.820   5.454  25.845  0.3258  0.3702 -0.0466
59662W        W60526  24.233   4.886  26.024  0.2584  0.4477  0.1329
59663W        W60527  24.707   6.757   0.145 -0.2162 -0.4234  0.1131
59664W        W60528  21.201   3.214  26.354 -0.0298 -0.2754  0.0576
59665W        W60529  24.086   1.178  28.111  0.2691 -0.1528  0.2525
59666W        W60530  25.423   4.836  26.299  0.1287 -0.0455 -0.0964
59667W        W60531  24.390   3.634  26.850 -0.2344  0.0564 -0.1286
59668W        W60532  23.936  28.924  27.341 -0.0317 -0.0178 -0.1801
59669W        W60533  23.406   4.514  27.931 -0.2376 -0.1009  0.0010
59670W        W60534  23.307   5.656  27.462  0.4653 -0.2113  0.0953
59671W        W60535  22.944   7.885  23.350  0.2311  0.3616 -0.0279
59672W        W60536  23.412   4.776  26.730 -0.3546 -0.1887 -0.1719
59673W        W60537  22.566   5.048   0.072  0.0483 -0.2713 -0.2584
59674W        W60538  25.336   5.636  27.411 -0.1201 -0.0736 -0.0314
59675W        W60539  25.340   6.570  26.766  0.1294 -0.0113 -0.1385
59676W        W60540  23.213   5.007  26.314 -0.0681 -0.0279 -0.3674
59677W        W60541  25.769   4.674  26.669 -0.0012  0.4293 -0.1791
59678W        W60542  23.740   5.327  27.521  0.0773  0.1334  0.0681
59679W        W60543  20.850   3.729  27.135 -0.1817 -0.1329  0.0744
59680W        W60544  23.949   7.203   0.585  0.1562  0.2680  0.0431
59681W        W60545  26.621   3.605  28.361  0.1586  0.0727  0.2803
59682W        W60546  20.918   6.008  25.695  0.0167  0.4702 -0.1533
59683W        W60547  25.800   4.763  28.530  0.1753  0.1679 -0.1631
59684W        W60548  23.752   6.442  27.369 -0.3332  0.0254 -0.1957
59685W        W60549  23.626   7.113  23.196 -0.0682  0.2815 -0.0664
59686W        W60550  23.167   7.107  29.012 -0.1229  0.0622 -0.0196
59687W        W60551  23.964   5.772   1.715 -0.0538 -0.0930 -0.0434
59688W        W60552  23.732   5.127  28.846 -0.2135 -0.0958 -0.2694
59689W        W60553  19.788   4.837  27.980 -0.0276 -0.0787 -0.0121
59690W        W60554  23.065   5.622  26.979 -0.1731 -0.0315 -0.2045
59691W        W60555  24.395   2.505  24.016  0.1210  0.0316  0.2703
59692W        W60556  20.528   5.547  24.123 -0.1747 -0.0512 -0.1766
59693W        W60557  27.102   6.945   0.411 -0.0134  0.1237 -0.0005
59694W        W60558  23.918   4.613  26.915 -0.0675 -0.1002  0.1565
59695W        W60559  23.551   2.163  27.179 -0.2728 -0.2773  0.1106
59696W        W60560  24.561   2.636  26.956  0.2693 -0.0901  0.1100
59697W        W60561  24.303   6.539  26.784  0.0313 -0.2954 -0.1623
59698W        W60562  27.328   7.497  26.300 -0.0052  0.2478 -0.0885
59699W        W60563  24.016   6.660  23.097 -0.1342 -0.0039 -0.2310
59700W        W60564  21.213   5.414  25.707 -0.1110 -0.2343 -0.1028
59701W        W60565  22.610   5.930  28.856  0.0589  0.1577 -0.3416
59702W        W60566  24.021   6.110  27.704 -0.0714 -0.1110 -0.2305
59703W        W60567  21.766   5.012  27.412  0.0471 -0.1079 -0.2544
59704W        W60568  24.816   3.381  25.736 -0.1936  0.3912  0.2200
59705W        W60569  21.948   9.270  26.324 -0.2016  0.5486  0.2783
59706W        W60570  23.698   2.885  27.176  0.2757  0.0099 -0.0939
59707W        W60571  20.344   5.725  26.846 -0.0704 -0.0699 -0.0898
59708W        W60572  27.442   5.804  28.879 -0.0083 -0.4061  0.0643
59709W        W60573  26.203   4.120  24.886 -0.0467  0.3090 -0.1470
59710W        W60574  21.781   9.118  27.438  0.0017  0.1353  0.1272
59711W        W60575  22.569   0.342  29.021 -0.2020  0.1059 -0.0236
59712W        W60576  23.402   3.085  28.472 -0.0755  0.1376  0.1976
59713W        W60577  21.575   6.534  26.171  0.1061  0.0046 -0.0110
59714W        W60578  23.365   5.371  26.032  0.0979 -0.2099 -0.0222
59715W        W60579  23.318   5.245  28.531  0.1260  0.0888  0.1265
59716W        W60580  19.804   6.279  27.762 -0.0703  0.1020 -0.2931
59717W        W60581  23.448   6.157  27.730  0.1312  0.2052 -0.0236
59718W        W60582  23.176   4.922  28.122 -0.3644  0.3502 -0.1622
59719W        W60583  23.826   3.379  28.336 -0.3731  0.1388  0.0487
59720W        W60584  27.532   5.004  25.801 -0.3071  0.0528 -0.1730
59721W        W60585  20.808   6.134  27.775  0.2832  0.2050 -0.0756
59722W        W60586  23.079   5.400  25.454  0.0997  0.0980 -0.0633
59723W        W60587  21.912   5.403  27.711  0.0297 -0.4367  0.2506
59724W        W60588  24.463   4.404  25.896  0.0264 -0.3133  0.2342
59725W        W60589  23.261   6.021  26.694  0.0189  0.0606 -0.2286
59726W        W60590  22.629   5.743  28.088  0.0198  0.1047  0.1483
59727W        W60591  25.292   5.989  26.584  0.2042  0.1039 -0.0128
59728W        W60592  26.105   4.675   0.335  0.1694  0.0049  0.1736
59729W        W60593  28.786   6.976  26.854  0.1289  0.0876 -0.1112
59730W        W60594  23.953   5.017  27.249 -0.0101  0.0316 -0.1885
59731W        W60595  21.175   5.469  24.879 -0.0737  0.0254 -0.0881
59732W        W60596  22.072   6.756  25.919  0.2096 -0.2375  0.2553
59733W        W60597  24.038   5.452  26.893 -0.1134 -0.1227  0.1267
59734W        W60598  24.482   5.151  24.805  0.0078  0.0811  0.1306
59735W        W60599  19.736   5.437  26.967 -0.1780  0.0183  0.0205
59736W        W60600  23.134   3.629  28.758 -0.0143  0.3130 -0.1553
59737W        W60601  25.986   2.787  27.629 -0.1229  0.0640  0.3209
59738W        W60602  24.386   3.209  26.110 -0.0592  0.4618  0.4069
59739W        W60603  23.429   5.570   1.559  0.1953 -0.0122  0.2521
59740W        W60604  22.576   4.452  26.169  0.1562  0.0846  0.1121
59741W        W60605  26.133   7.581  27.260  0.1367 -0.2502  0.5144
59742W        W60606  23.620   4.062  27.867 -0.2997  0.0700  0.0724
59743W        W60607  23.983   5.567   0.127  0.3386 -0.2336  0.2480
59744W        W60608  24.566   5.549  26.900  0.1543 -0.1282 -0.2406
59745W        W60609  23.677   3.996  26.131 -0.1359 -0.0745 -0.0118
59746W        W60610  25.011   7.988   0.293 -0.0496  0.0093  0.0112
59747W        W60611  21.628   8.134  27.440 -0.3193  0.1093 -0.1857
59748W        W60612  25.337   3.914  22.929 -0.1885 -0.0843 -0.0354
59749W        W60613  22.967   2.909   0.502 -0.1540 -0.1025 -0.3795
59750W        W60614  24.706   5.178  25.285  0.1312  0.1221 -0.0315
59751W        W60615  22.847   6.983  26.283 -0.1200 -0.0648 -0.0967
59752W        W60616  23.732   7.420  27.864 -0.0361 -0.0215 -0.0216
59753W        W60617  25.341   3.878  26.895  0.0307  0.0108  0.0791
59754W        W60618  25.001   2.594  27.599 -0.0866 -0.1240  0.1316
59755W        W60619  23.027   8.248  25.488 -0.1737 -0.1298  0.3026
59756W        W60620  21.267   4.675  27.963  0.5237 -0.0688 -0.3159
59757W        W60621  24.324   4.449  24.161 -0.0089 -0.2995 -0.0162
59758W        W60622  25.323   8.104  27.098  0.0888  0.1166  0.0707
59759W        W60623  25.330   3.523  27.774  0.1240 -0.2883  0.1015
59760W        W60624  22.529   4.629   0.850  0.0283 -0.2633  0.1366
59761W        W60625  22.484   4.795  27.162  0.2031 -0.2376  0.2744
59762W        W60626  22.918   5.441   1.803 -0.0295 -0.0435  0.1423
59763W        W60627  23.026   4.585  26.501  0.2472  0.2132 -0.0172
59764W        W60628  21.837   3.445  26.923 -0.2049 -0.0659  0.0973
59765W        W60629  23.645   6.897  26.753  0.2871  0.3739 -0.0419
59766W        W60630  24.197   7.510  23.640  0.0530  0.1547  0.0649
59767W        W60631  25.366   5.422  28.310  0.1249  0.0051 -0.1178
59768W        W60632  25.747   7.501   0.456  0.0727  0.1369 -0.0374
59769W        W60633  26.152   3.864  25.738  0.0125  0.1902 -0.0401
59770W        W60634  21.631   4.900  28.670  0.1176 -0.0051 -0.2784
59771W        W60635  24.633   5.033  29.099 -0.0531 -0.3382  0.0074
59772W        W60636  23.932   4.527   0.394  0.1903  0.0394 -0.2909
59773W        W60637  23.249   2.346  29.045 -0.3907  0.0451 -0.0376
59774W        W60638  22.354   5.782  24.849  0.0935 -0.1936  0.0357
59775W        W60639  28.302   5.768  24.861 -0.1898 -0.0412  0.0442
59776W        W60640  24.837   8.516  26.793 -0.1365  0.2568 -0.0466
59777W        W60641  22.960   4.656  27.080  0.2075  0.3938  0.3524
59778W        W60642  22.810   3.705  27.856 -0.2212  0.0410  0.3229
59779W        W60643  21.266   5.929  26.293 -0.1095  0.2666  0.1350
59780W        W60644  25.428   4.562  25.806 -0.1617 -0.2731 -0.2848
59781W        W60645  22.182   2.860  27.591 -0.2128 -0.1195 -0.2426
59782W        W60646  25.653   7.296  28.673  0.0935  0.1102 -0.0323
59783W        W60647  25.234   5.149  25.876 -0.2105 -0.2336 -0.0554
59784W        W60648  21.331   5.153  25.203 -0.0434  0.2031 -0.3463
59785W        W60649  23.550  11.853  27.500 -0.0842 -0.0912 -0.1277
59786W        W60650  25.118   2.306   0.097  0.0442  0.1805  0.0651
59787W        W60651  21.049   8.694  27.468 -0.1441  0.2619 -0.1516
59788W        W60652  24.698   3.371  27.200 -0.2582 -0.3012 -0.0784
59789W        W60653  25.371   4.969  28.191 -0.0983 -0.0824 -0.0328
59790W        W60654  21.446   4.426  27.054  0.0016  0.0379 -0.1404
59791W        W60655  23.892   3.231  28.909 -0.2080  0.2750  0.1611
59792W        W60656  26.188   4.692  28.894 -0.1456  0.1471 -0.1615
59793W        W60657  24.839   6.484  27.005 -0.1659  0.1941 -0.1742
59794W        W60658  23.251   6.689  24.902 -0.2916 -0.1072 -0.0498
59795W        W60659  22.878   4.488  28.124 -0.0066  0.1486 -0.0220
59796W        W60660  24.011   1.701  27.261 -0.0921  0.0488 -0.3069
59797W        W60661  21.804   5.023  24.306  0.1462  0.2251 -0.0075
59798W        W60662  22.536   3.972  24.426  0.0071  0.2931 -0.3639
59799W        W60663  22.939   6.546  26.465 -0.1750  0.0785 -0.2259
59800W        W60664  23.419   2.537  26.887 -0.3967  0.2745  0.0442
59801W        W60665  24.953   5.273  26.589 -0.1417 -0.1383  0.1540
59802W        W60666  27.235   6.812  27.265  0.1159  0.1146 -0.1582
59803W        W60667  21.630   4.134  24.821 -0.1327 -0.1549 -0.0965
59804W        W60668  24.191   6.283  27.253 -0.0843  0.3704 -0.1022
59805W        W60669  23.971   4.410  25.900  0.1522 -0.0859  0.1045
59806W        W60670  22.840   5.318  26.028 -0.1264 -0.1729 -0.0867
59807W        W60671  21.161   5.871  26.758 -0.2762  0.3795 -0.1255
59808W        W60672  24.429   2.719  24.868 -0.1621  0.0077 -0.1460
59809W        W60673  24.975   5.767  26.949  0.0478  0.0496 -0.1271
59810W        W60674  24.854   4.050  28.530  0.0517  0.0266 -0.0306
59811W        W60675  22.380   6.851   1.323  0.0005  0.1862  0.1956
59812W        W60676  21.702   5.249  25.651  0.1984  0.1239  0.1288
59813W        W60677  24.547   3.997  23.384 -0.0217 -0.1181  0.0696
59814W        W60678  22.427   6.455  26.727 -0.1311  0.0115 -0.0655
59815W        W60679  24.385   2.048  28.027 -0.0054  0.5963 -0.1398
59816W        W60680  25.212   4.027  27.842  0.0273 -0.0373 -0.0849
59817W        W60681  24.201   4.786  29.029 -0.3044 -0.1578  0.2363
59818W        W60682  25.356   7.032  26.377 -0.0537  0.0270 -0.1114
59819W        W60683  25.128   3.012   0.699 -0.0865 -0.1969  0.0308
59820W        W60684  23.728   5.079  26.161 -0.0047  0.1443 -0.0420
59821W        W60685  23.983   4.615  26.363 -0.0859 -0.0193 -0.1771
59822W        W60686  22.178   6.090  23.552 -0.2055  0.0316  0.1978
59823W        W60687  20.808   5.611  27.030  0.0132  0.3761 -0.0660
59824W        W60688  20.733   7.301  26.302 -0.1865 -0.0590  0.0107
59825W        W60689  24.011   5.065  28.477  0.0338 -0.1184  0.0908
59826W        W60690  23.362   6.888   1.688 -0.0286  0.0303 -0.1059
59827W        W60691  24.759   6.271   0.277 -0.0739  0.1318  0.1865
59828W        W60692  24.127   8.974  23.134  0.1072 -0.2662 -0.1389
59829W        W60693  24.281   4.197  27.376 -0.2539  0.0010  0.5312
59830W        W60694  23.585   4.672  25.274  0.0663  0.1602 -0.0876
59831W        W60695  24.095   5.549   1.200 -0.2353  0.3222  0.0889
59832W        W60696  21.891   4.713  26.597  0.0152  0.0158 -0.0139
59833W        W60697  21.365   8.962  25.039 -0.1165 -0.1949 -0.4386
59834W        W60698  24.378   3.331  28.251 -0.0751  0.0404 -0.3707
59835W        W60699  22.064   7.585  26.328 -0.3270 -0.3067  0.1124
59836W        W60700  24.470   9.261  26.505  0.0563  0.1910  0.4438
59837W        W60701  24.908   5.228  27.122 -0.0496  0.2419  0.2388
59838W        W60702  21.935   3.823  25.460  0.2900 -0.1858  0.1424
59839W        W60703  25.588   5.146  25.481  0.3035  0.0349 -0.0245
59840W        W60704  26.860   5.358   0.488  0.1231  0.0244  0.2777
59841W        W60705  24.095   5.584  28.235  0.0550 -0.2728  0.2909
59842W        W60706  22.556   2.784  25.603 -0.0623 -0.0031  0.2253
59843W        W60707  22.775   5.976  24.814  0.0979  0.1667 -0.1568
59844W        W60708  22.091   8.009  27.321 -0.0020  0.0117 -0.0983
59845W        W60709  23.352   5.746  25.726  0.0678 -0.1021 -0.1300
59846W        W60710  20.224   5.292  24.818  0.0526 -0.0369  0.1956
59847W        W60711  23.583   4.895  27.629  0.1648 -0.1187  0.0673
59848W        W60712  23.143   3.290   0.813 -0.4138  0.0825  0.1110
59849W        W60713  25.469   3.494   0.992  0.3160 -0.0515  0.0545
59850W        W60714  24.444   2.919  28.542  0.0375 -0.1203  0.2039
59851W        W60715  24.381   4.324  26.857 -0.0973  0.1033 -0.3077
59852W        W60716  21.589   2.603   1.046 -0.1777  0.0435 -0.1355
59853W        W60717  22.456   3.499  26.031  0.0189 -0.2424 -0.0980
59854W        W60718  25.360   2.588  26.422 -0.0498  0.0848 -0.0952
59855W        W60719  22.470   3.458  24.385  0.2011  0.1029 -0.1071
59856W        W60720  23.231   5.720  27.995 -0.2287  0.1799 -0.2953
59857W        W60721  23.391   6.950  24.065  0.0027  0.0700 -0.1302
59858W        W60722  23.868   4.099  28.839  0.0755  0.2474  0.0062
59859W        W60723  23.334   3.483   1.288 -0.1746  0.1081  0.0827
59860W        W60724  20.712   2.168  27.533 -0.1899  0.0099  0.1198
59861W        W60725  23.340   1.357  28.669 -0.2820 -0.0899 -0.0838
59862W        W60726  23.664   3.824  28.378  0.1801  0.0559 -0.0910
59863W        W60727  25.113   6.853  23.907  0.3013  0.1805 -0.0541
59864W        W60728  22.265   3.728  24.056  0.3433  0.2148 -0.0417
59865W        W60729  23.357   3.458  27.142 -0.2885 -0.0038 -0.0488
59866W        W60730  21.936   3.392  27.653  0.1971 -0.0644  0.0639
59867W        W60731  24.300   7.000  28.509  0.4262  0.1092  0.2864
59868W        W60732  26.598   4.818   0.544  0.3288  0.1096  0.2533
59869W        W60733  26.266   5.863  28.451 -0.1422 -0.0236 -0.0213
59870W        W60734  24.878   6.183  28.476  0.0888  0.1994 -0.0257
59871W        W60735  24.033   5.458  24.387 -0.0275 -0.0155 -0.0776
59872W        W60736  23.394   7.634  26.253 -0.0972  0.0217  0.0203
59873W        W60737  20.917   6.297   0.435  0.0291 -0.1893  0.1557
59874W        W60738  24.205   6.428  28.129 -0.1733 -0.1440  0.0541
59875W        W60739  26.461   5.935   0.323 -0.2890  0.1410 -0.1068
59876W        W60740  24.210   3.139  27.210 -0.1245 -0.2916 -0.2557
59877W        W60741  23.875   6.056   0.443 -0.1219  0.2477  0.1876
59878W        W60742  22.593   4.221  22.874 -0.3225  0.0522 -0.0659
59879W        W60743  25.222   5.798  25.237 -0.1147 -0.4486  0.0629
59880W        W60744  22.365   5.487  28.480 -0.3800 -0.0982  0.0082
59881W        W60745  24.364   4.073  28.403 -0.1275 -0.2454 -0.0546
59882W        W60746  24.006   4.596  28.628 -0.1959  0.0973  0.0430
59883W        W60747  24.611   7.826  27.352  0.0300  0.3599 -0.2566
59884W        W60748  22.883   5.110  25.123 -0.0874 -0.2156  0.2550
59885W        W60749  22.410   3.777  28.123  0.1744  0.1161  0.1853
59886W        W60750  21.012   4.609  26.827 -0.1701  0.0344  0.0798
59887W        W60751  20.017   4.936  23.673  0.3346  0.0447  0.1638
59888W        W60752  23.793   5.870  27.326  0.0964 -0.0226  0.0359
59889W        W60753  23.398   6.104  28.217 -0.1140  0.2231  0.1251
59890W        W60754  24.424   5.377  26.410  0.1859  0.1228 -0.0658
59891W        W60755  25.742   3.778  27.980 -0.2493  0.2582 -0.0188
59892W        W60756  26.075   3.839  28.403  0.2574  0.2705  0.1077
59893W        W60757  24.934   9.378  25.710  0.1937 -0.0259  0.0529
59894W        W60758  20.537   7.899  24.292 -0.2878 -0.2325  0.0174
59895W        W60759  26.199   5.498  26.321 -0.2619 -0.0889  0.3808
59896W        W60760  22.403   4.934  26.005 -0.2378  0.1294  0.2494
59897W        W60761  23.511   4.610  26.244  0.2087  0.0813 -0.0503
59898W        W60762  23.014   5.009  29.071 -0.3024  0.1259  0.2839
59899W        W60763  24.819   3.967   1.822 -0.1239 -0.2510  0.2183
59900W        W60764  18.893   7.554  24.136 -0.1427 -0.0530 -0.0226
59901W        W60765  25.141   4.556  28.376 -0.2414 -0.0280  0.2581
59902W        W60766  23.328   7.835   1.147 -0.0564 -0.1529 -0.0393
59903W        W60767  25.081  10.696  26.528 -0.0746  0.3245 -0.2324
59904W        W60768  23.872   3.299  27.487 -0.0703  0.2784  0.1872
59905W        W60769  22.570   5.592  27.177  0.0377 -0.2590  0.3745
59906W        W60770  22.012   7.232  28.529 -0.0930 -0.3554 -0.0321
59907W        W60771  24.910   6.560  27.556  0.0272 -0.2506 -0.1862
59908W        W60772  23.874   3.820  27.491 -0.2558 -0.1414  0.2267
59909W        W60773  22.863   4.817  25.914 -0.0284  0.3109 -0.2190
59910W        W60774  24.948   8.001  26.625 -0.0444  0.0357 -0.0423
59911W        W60775  25.469   4.114  25.632 -0.2801  0.1943 -0.1268
59912W        W60776  25.199   3.532  27.247  0.1620 -0.0508 -0.0237
59913W        W60777  21.857   5.028  25.140 -0.0635 -0.2632  0.1296
59914W        W60778  25.951   4.308  27.832  0.2617 -0.1251 -0.4191
59915W        W60779  24.334   4.682  27.207 -0.2828 -0.0694  0.1038
59916W        W60780  24.045   4.072   0.624  0.2999 -0.0532  0.1630
59917W        W60781  23.392   6.541   1.259 -0.1192  0.1201  0.0177
59918W        W60782  22.454   1.201  25.744 -0.1290 -0.0267 -0.1299
59919W        W60783  21.464   4.315  26.421 -0.3287 -0.0356  0.1798
59920W        W60784  24.854   7.594  27.782 -0.1312  0.2167  0.1479
59921W        W60785  23.509   4.194  27.433 -0.1369  0.2221 -0.0880
59922W        W60786  24.428   4.447  26.388 -0.0431  0.3915 -0.1500
59923W        W60787  21.193   4.324  27.607  0.0874 -0.0106 -0.0126
59924W        W60788  25.308   5.518  26.247 -0.1170 -0.0146 -0.4604
59925W        W60789  22.619   5.742  24.362 -0.3729  0.2296  0.3732
59926W        W60790  24.735   4.683   0.317  0.0709 -0.1347 -0.0713
59927W        W60791  22.577   2.756   0.157  0.3846  0.3245 -0.1319
59928W        W60792  23.657   4.574  28.983  0.3112 -0.2148  0.0657
59929W        W60793  25.953   5.072  27.496  0.1423  0.0809  0.0279
59930W        W60794  22.958   1.622   1.198  0.1568  0.1390 -0.1440
59931W        W60795  23.510   1.628   0.590 -0.0866  0.0642  0.0874
59932W        W60796  22.330   4.990  28.692  0.0981 -0.1050  0.0015
59933W        W60797  22.713   6.341  25.306 -0.0877 -0.0725 -0.1528
59934W        W60798  23.379   8.222  27.612 -0.0360 -0.0902 -0.0991
59935W        W60799  24.373   5.023  26.841  0.0088 -0.1369  0.1141
59936W        W60800  20.834   6.976  25.319  0.3734  0.2382  0.0926
59937W        W60801  23.047   5.070  26.799  0.1094  0.1614  0.3208
59938W        W60802  21.012   6.578  27.589  0.0406 -0.2456 -0.2803
59939W        W60803  25.636   6.102  25.213 -0.3850  0.1024  0.1496
59940W        W60804  27.401   4.327  28.199 -0.0525  0.1217  0.1731
59941W        W60805  24.776   4.254   0.052  0.1579  0.0933  0.0005
59942W        W60806  22.067   5.125  27.053  0.1765  0.0372 -0.2422
59943W        W60807  24.537   1.570  27.759  0.2286 -0.0794 -0.1467
59944W        W60808  23.333   7.417  25.490  0.1692  0.1331  0.0144
59945W        W60809  20.541   3.837  23.639  0.1541  0.0872 -0.1051
59946W        W60810  25.095   3.938  24.223 -0.0837 -0.0213  0.3125
59947W        W60811  25.007   4.329  25.836  0.1201 -0.0398  0.0359
59948W        W60812  22.230   3.644  26.464 -0.2841 -0.1948 -0.2757
59949W        W60813  23.073   6.076  26.282  0.1454 -0.2505 -0.2443
59950W        W60814  25.648   4.277  27.029  0.2162  0.1572 -0.1575
59951W        W60815  21.100   2.903  27.964  0.2341 -0.0619 -0.1274
59952W        W60816   0.093   7.897  27.260 -0.1154 -0.3854  0.0295
59953W        W60817  23.453   7.375   1.430  0.0027 -0.1620  0.3910
59954W        W60818  17.840   8.147  25.142  0.4881 -0.1430  0.1262
59955W        W60819  20.710   9.409  28.678 -0.0478  0.0083 -0.0491
59956W        W60820  22.581   2.354  28.207 -0.1039  0.0900 -0.2367
59957W        W60821  24.287   5.636  27.740 -0.0420  0.4367  0.0742
59958W        W60822  24.179   3.654  28.555  0.3213  0.2277 -0.3703
59959W        W60823  24.381   6.154  25.888 -0.0386  0.0447  0.1791
59960W        W60824  21.877   5.979  26.966 -0.3008 -0.2790  0.2695
59961W        W60825  25.402   6.830  28.643  0.0611  0.2411  0.0007
59962W        W60826  20.889   3.860  27.613  0.1371  0.0154  0.1882
59963W        W60827  22.730   2.914  27.469 -0.0070  0.0502  0.2256
59964W        W60828  19.925   5.891  27.092 -0.0727 -0.0843 -0.0949
59965W        W60829  23.472   0.415  26.474 -0.0725 -0.0029  0.0409
59966W        W60830  21.958   5.233   0.278 -0.1035 -0.1385 -0.3198
59967W        W60831  24.869   4.446  27.979  0.0569  0.0314  0.0867
59968W        W60832  23.615   5.897  29.144 -0.3846  0.0530  0.3707
59969W        W60833  19.986   6.708  27.565  0.2137  0.2503  0.0045
59970W        W60834  25.912   4.520   3.326 -0.1147  0.1844 -0.1381
59971W        W60835  22.832   4.197  26.791 -0.0089  0.1370  0.1499
59972W        W60836  22.386   5.322  27.947  0.0214 -0.1071 -0.1502
59973W        W60837  27.284   7.469  27.984  0.0356  0.4546  0.1994
59974W        W60838  24.324   3.650  27.429 -0.2984  0.0689  0.0005
59975W        W60839  21.855   6.173  28.117  0.0662  0.2701 -0.1227
59976W        W60840  23.944   5.607  28.715 -0.1704  0.0900  0.1587
59977W        W60841  23.122   4.105  27.815 -0.0537  0.0823 -0.0286
59978W        W60842  24.723   3.194   0.378  0.0970  0.0921  0.0670
59979W        W60843  22.154   5.586  26.902  0.2000 -0.0211  0.0917
59980W        W60844  23.401   5.803  28.709 -0.0829 -0.2893  0.0196
59981W        W60845  23.989   2.888  28.472 -0.0369 -0.2174  0.2587
59982W        W60846  20.017   7.943  26.861  0.3441 -0.3367  0.1147
59983W        W60847  23.888   6.946  24.785 -0.1221 -0.0357 -0.1606
59984W        W60848  21.627   4.566  25.069 -0.2402  0.0649 -0.2210
59985W        W60849  22.254   2.549  28.957 -0.0954  0.0989  0.0232
59986W        W60850  23.744   4.089  27.051 -0.2702  0.1582 -0.3417
59987W        W60851  27.677   8.229  28.423 -0.1317 -0.2145 -0.2425
59988W        W60852  24.794   8.500  28.768  0.1019  0.2650 -0.1452
59989W        W60853  28.580   8.637  28.023 -0.0068 -0.2291 -0.1066
59990W        W60854  27.102   8.369  24.858  0.0901  0.0354  0.2813
59991W        W60855  22.723   7.480  24.542 -0.0563 -0.3365 -0.0358
59992W        W60856  24.267   5.265  25.616  0.1863 -0.2856 -0.1323
59993W        W60857  22.989   5.810  23.636 -0.0054  0.0196 -0.0614
59994W        W60858  24.021   2.814  29.038  0.0192 -0.0777 -0.0829
59995W        W60859  21.593   7.838  25.968  0.3368  0.2572 -0.0510
59996W        W60860  23.216   4.136  26.402  0.0742  0.0764 -0.0732
59997W        W60861  21.647   3.875  26.859 -0.4485  0.1023 -0.0307
59998W        W60862  21.817   9.151   0.288  0.1514 -0.2058 -0.2364
59999W        W60863  26.720   4.121  28.324  0.1824 -0.0010  0.0847
60000W        W60864  23.966   7.475   0.135  0.0424  0.0513  0.1492
60001W        W60865  20.265   5.947  25.922  0.1979  0.0680  0.0952
60002W        W60866  25.486   1.685  25.220  0.2451 -0.0951  0.0248
60003W        W60867  24.291   7.781  27.699  0.4198 -0.0735 -0.3683
60004W        W60868  23.892   2.824  24.769 -0.4215 -0.6131 -0.0543
60005W        W60869  24.314   5.793  27.286 -0.0951  0.2697 -0.1403
60006W        W60870  25.281   3.435  24.366 -0.0327  0.2682 -0.0541
60007W        W60871  23.934   8.230  26.951  0.0639 -0.0764 -0.0468
60008W        W60872  22.565   7.379  26.390  0.2177  0.3669 -0.0545
60009W        W60873  22.448   4.088  26.462 -0.1471  0.0238  0.2207
60010W        W60874  22.148   3.032  25.241  0.0473  0.2415 -0.0662
60011W        W60875  21.876   3.852  27.368 -0.2393  0.0283  0.2038
60012W        W60876  23.840   1.492   0.981  0.1805  0.2217 -0.0420
60013W        W60877  21.518   2.075  27.359  0.1847 -0.0613 -0.0297
60014W        W60878  21.996   4.210  26.305  0.0107 -0.0547  0.0669
60015W        W60879  22.013   5.834  24.428  0.0853 -0.2730 -0.0681
60016W        W60880  26.573   4.750   0.019 -0.0752  0.1626 -0.1718
60017W        W60881  25.279   6.155  27.063  0.0637  0.4053  0.1506
60018W        W60882  22.948   3.717  25.447  0.0466  0.0139  0.2049
60019W        W60883  23.769   6.251  26.845 -0.0336  0.0802 -0.0217
60020W        W60884  21.437   6.314  26.715  0.0446  0.3455 -0.0542
60021W        W60885  23.437   5.865  24.720 -0.0442  0.0672  0.1156
60022W        W60886  23.617   5.721  26.883  0.0586  0.1280  0.3919
60023W        W60887  22.909   0.974  26.856 -0.0238 -0.1157 -0.2525
60024W        W60888  25.829   2.320  27.384 -0.1025 -0.0908  0.2197
60025W        W60889  22.039   7.149  24.347 -0.1503 -0.0936 -0.2339
60026W        W60890  24.701   7.581  25.987 -0.1454  0.0823 -0.1708
60027W        W60891  23.089   6.250  24.604 -0.0027 -0.0217  0.2322
60028W        W60892  20.722   3.309  26.798 -0.0996  0.1082  0.0382
60029W        W60893  23.439   5.682  25.200  0.2472  0.0774  0.0218
60030W        W60894  24.599   2.987  29.004 -0.0786 -0.1391  0.2209
60031W        W60895  23.127   3.859  27.037  0.1962  0.0173  0.0697
60032W        W60896  21.502   5.533   0.029 -0.0377 -0.3826  0.0064
60033W        W60897  24.160   4.023  26.179 -0.1757  0.0227  0.3543
60034W        W60898  19.919   3.516  26.716 -0.0784 -0.1067  0.0274
60035W        W60899  24.873   4.990  28.199 -0.0138  0.0627  0.0618
60036W        W60900  21.955   3.966  27.884 -0.1021  0.1916 -0.1206
60037W        W60901  21.421   5.052  26.007  0.1009 -0.1109 -0.2027
60038W        W60902  25.063   6.226   0.690 -0.2972 -0.1707  0.0819
60039W        W60903  24.825   8.070  29.013  0.1342 -0.2165 -0.2854
60040W        W60904  23.611   5.569  28.292 -0.1311  0.0226  0.1968
60041W        W60905  24.641   9.807  26.328 -0.1558  0.0080  0.4899
60042W        W60906  21.255   7.928  27.199  0.3431  0.1395  0.0354
60043W        W60907  23.529   5.815  26.346  0.1035 -0.1773  0.5995
60044W        W60908  24.788   4.419  27.244 -0.2602  0.0541  0.0611
60045W        W60909  24.309   3.283   0.108 -0.1873  0.0944  0.0646
60046W        W60910  24.525   7.156   0.640 -0.0208  0.2255 -0.0598
60047W        W60911  24.791   5.574  27.418 -0.0083  0.2790 -0.0573
60048W        W60912  21.398   8.934  27.080  0.0161 -0.0114  0.0625
60049W        W60913  21.150   8.639  24.688  0.2194 -0.1775 -0.2839
60050W        W60914  23.799   4.260  28.356  0.0818 -0.1068  0.0143
60051W        W60915  25.364   6.785  25.957  0.0670 -0.2983  0.1559
60052W        W60916  23.903   4.660  27.983  0.3103 -0.0393 -0.0848
60053W        W60917  24.846   5.595  28.270  0.0933  0.3054  0.1568
60054W        W60918  21.761   4.496  23.474  0.3896  0.3296  0.0709
60055W        W60919  20.738  10.576   5.171 -0.0789 -0.1018  0.0637
60056W        W60920  25.062   9.816   3.211  0.1945 -0.1312  0.2349
60057W        W60921  26.503  11.081  27.904  0.1129 -0.0873 -0.2369
60058W        W60922  25.160  11.470   3.278  0.0819  0.0885  0.0196
60059W        W60923  19.801  10.988  28.495  0.0213  0.2780  0.0122
60060W        W60924  24.376   6.666   3.152 -0.1494  0.0299 -0.2539
60061W        W60925  26.463   7.288  29.121  0.2550 -0.0645 -0.1771
60062W        W60926  26.155   8.166   1.434  0.1897 -0.3347 -0.3117
60063W        W60927  20.744  11.592   3.124  0.1332 -0.3101  0.1732
60064W        W60928  22.657   8.905   3.447  0.1017  0.1830 -0.1243
60065W        W60929  24.006   8.278   5.352  0.1289 -0.2921 -0.1043
60066W        W60930  24.166   5.659   0.630 -0.0015  0.0701  0.1560
60067W        W60931  23.351   6.626   0.702  0.0232 -0.0533 -0.2392
60068W        W60932  24.759   9.730   3.655 -0.0484  0.2637 -0.0512
60069W        W60933  22.735   7.958   3.127 -0.0798  0.2579 -0.1405
60070W        W60934  21.122   9.786   3.924 -0.2684 -0.1373  0.2717
60071W        W60935  25.181   9.742   1.542 -0.2677 -0.0959 -0.3149
60072W        W60936  24.346   7.301   1.218  0.0877 -0.0911 -0.1866
60073W        W60937  23.630   8.051   4.313 -0.1987  0.0916  0.0172
60074W        W60938  26.063   8.464   0.688 -0.1466  0.1487 -0.3109
60075W        W60939  25.702   8.341   1.703  0.2731  0.0022  0.0922
60076W        W60940  24.878   8.934  27.452 -0.0735 -0.2877  0.1478
60077W        W60941  24.610   8.885   2.343 -0.3231 -0.3185  0.0254
60078W        W60942  21.716   9.843  28.846 -0.0078 -0.1907 -0.0061
60079W        W60943  23.595   6.818   0.321  0.2052 -0.1077 -0.1532
60080W        W60944  24.929   8.337   3.387  0.0094  0.2296  0.1088
60081W        W60945  25.331   8.466   5.197  0.0038  0.2807  0.3112
60082W        W60946  22.873   9.662   1.045 -0.1164 -0.2078 -0.3746
60083W        W60947  23.783   9.413   3.226  0.1110  0.1113  0.1919
60084W        W60948  23.749   8.890   1.054 -0.2771  0.2206  0.0040
60085W        W60949  24.186   8.716   0.741  0.3509 -0.0209 -0.0171
60086W        W60950  26.824   9.695  28.386  0.1899  0.1460  0.1424
60087W        W60951  24.243   8.212   4.157 -0.4603  0.1490 -0.0093
60088W        W60952  23.813   9.354   4.680  0.1146  0.2193  0.1319
60089W        W60953  20.809   8.508   3.251 -0.0517  0.1760  0.0471
60090W        W60954  26.672  11.059   1.256 -0.2557 -0.1300 -0.0008
60091W        W60955  21.999   4.123  29.029  0.0447  0.0660  0.4347
60092W        W60956  23.342  11.085  28.375  0.4318  0.0173 -0.1560
60093W        W60957  26.139   8.144  28.540  0.0094  0.0825 -0.0140
60094W        W60958  23.254   6.993   1.126  0.3318 -0.0277 -0.0822
60095W        W60959  27.209   7.983  28.630 -0.0492 -0.1041  0.1376
60096W        W60960  27.494   9.709   1.480 -0.0452 -0.1491 -0.2267
60097W        W60961  24.946  11.392   0.670  0.0895 -0.0984  0.2263
60098W        W60962  24.611  12.983   2.842 -0.3119 -0.0932 -0.1061
60099W        W60963  23.082  10.809  28.753  0.3808  0.0821  0.0430
60100W        W60964  26.747   6.029   1.457  0.0298 -0.3666  0.0214
60101W        W60965  22.114   7.939   2.936  0.0197  0.1394 -0.0845
60102W        W60966  25.107   7.803   0.928  0.0611 -0.2481 -0.2836
60103W        W60967  26.167   6.747   2.659  0.0721  0.0970 -0.0872
60104W        W60968  26.368   9.493  26.482 -0.0453  0.0940 -0.0057
60105W        W60969  26.230   9.659   3.140  0.0629 -0.1075  0.1765
60106W        W60970  23.650   8.098   1.443  0.1887  0.0542 -0.2110
60107W        W60971  24.216  10.112   1.650 -0.1619 -0.1974 -0.0483
60108W        W60972  26.733  12.875   2.004 -0.0937 -0.2378 -0.3027
60109W        W60973  25.630   6.399   2.266  0.0393 -0.0355  0.2441
60110W        W60974  25.191   9.412  27.546  0.0252 -0.0075  0.0632
60111W        W60975  22.699   6.114   2.569  0.0763  0.0305 -0.0464
60112W        W60976  26.204   8.824   1.035  0.0398  0.0800 -0.1155
60113W        W60977  22.044  11.550   3.392 -0.0516  0.1599  0.3108
60114W        W60978  24.885  10.291  29.039 -0.2030  0.0809  0.1316
60115W        W60979  24.024   9.008  28.248  0.1151 -0.1256  0.0403
60116W        W60980  20.847   9.765   0.024 -0.1748  0.0492 -0.3583
60117W        W60981  18.769   9.484   2.511 -0.0737 -0.1154  0.3096
60118W        W60982  24.308   8.210  27.406  0.2863 -0.2491  0.0303
60119W        W60983  24.206   8.833   2.002  0.2420  0.1080  0.4133
60120W        W60984  25.645   5.883   2.838 -0.0149 -0.0847 -0.1784
60121W        W60985  24.788   7.456   0.991  0.2344 -0.1003  0.3098
60122W        W60986  22.009   6.583  27.759 -0.0151 -0.0389 -0.1381
60123W        W60987  23.877   9.335   1.422  0.0380  0.0580  0.0919
60124W        W60988  24.748   9.316   2.084 -0.0421  0.0853 -0.1334
60125W        W60989  24.239   9.364   3.431 -0.0831 -0.2791 -0.1603
60126W        W60990  25.480   8.328  27.543 -0.0543 -0.1106  0.1271
60127W        W60991  25.555  12.497   1.621 -0.1629 -0.1127  0.0953
60128W        W60992  24.761   9.634   0.948 -0.1280 -0.0215  0.3260
60129W        W60993  25.248  10.266   0.681 -0.0357  0.0112 -0.4014
60130W        W60994  23.328   5.547   2.121 -0.2506  0.0971  0.0613
60131W        W60995  19.194   8.835  27.737 -0.0942  0.1816  0.0381
60132W        W60996  22.248   8.451   3.399  0.2024  0.0776  0.3107
60133W        W60997  22.008  11.796   1.334  0.0209  0.1193  0.0030
60134W        W60998  24.427   9.100   1.690  0.0127 -0.3389 -0.1843
60135W        W60999  22.193   6.385   1.789 -0.3259 -0.1288 -0.0296
60136W        W61000  22.291   9.902   1.546  0.1431 -0.1245  0.0539
60137W        W61001  24.396   8.055   1.809 -0.5286  0.1304  0.0067
60138W        W61002  23.811   7.240   2.345 -0.0890  0.0226  0.1009
60139W        W61003  23.392   9.436   4.415  0.3212 -0.1927  0.1726
60140W        W61004  25.132   6.960  29.143  0.0363  0.3231  0.4740
60141W        W61005  26.847  10.486   3.480 -0.2070  0.2825  0.3090
60142W        W61006  23.904   6.195   1.957 -0.2195 -0.3217  0.0999
60143W        W61007  23.842   8.723   5.315 -0.0744  0.0672 -0.2846
60144W        W61008  24.203   9.038   5.694 -0.0982  0.2931 -0.1955
60145W        W61009  25.808   6.454   3.294  0.0652 -0.1120  0.1152
60146W        W61010  24.684  11.511   5.228 -0.0700  0.0517  0.2342
60147W        W61011  20.995  13.899  28.227  0.0714 -0.0117  0.4099
60148W        W61012  20.712   6.264   3.120 -0.0360  0.0748  0.0017
60149W        W61013  24.449   7.557   1.969  0.2989 -0.3194  0.1752
60150W        W61014  23.557   8.435   3.159 -0.0759 -0.0922 -0.4158
60151W        W61015  25.573   7.262   1.279 -0.1356 -0.0090 -0.0837
60152W        W61016  23.495   6.705   2.623  0.0212 -0.0322  0.2092
60153W        W61017  23.690   9.492   0.606 -0.2495 -0.3224  0.1795
60154W        W61018  23.803   8.956   0.557  0.1403 -0.1180  0.0481
60155W        W61019  24.994  13.062   0.888 -0.1026 -0.0488 -0.0342
60156W        W61020  23.811   9.413   0.153 -0.1761  0.0903  0.2169
60157W        W61021  23.581   7.964   3.421 -0.1807  0.0855  0.0701
60158W        W61022  24.682   6.945   1.180 -0.1597  0.1126  0.0122
60159W        W61023  26.033   5.954   0.587  0.1894 -0.1704 -0.3601
60160W        W61024  23.953   7.768   2.382 -0.0396 -0.0098 -0.0852
60161W        W61025  25.279   9.339   1.816  0.1399 -0.2575  0.0447
60162W        W61026  23.853   9.517   4.149  0.2389 -0.0078  0.1062
60163W        W61027  26.767   6.522   1.629 -0.0678 -0.1895 -0.0829
60164W        W61028  22.025   7.395   0.787  0.1427  0.1746  0.0087
60165W        W61029  23.544   8.144   2.563 -0.1498 -0.2119 -0.0623
60166W        W61030  23.314   9.277  26.265  0.0742  0.0721  0.0839
60167W        W61031  26.232   8.706   0.218  0.0010 -0.3830  0.1761
60168W        W61032  24.382  13.577   4.416 -0.0647  0.0745  0.1205
60169W        W61033  26.044  11.333  28.040 -0.2148 -0.0349 -0.0158
60170W        W61034  22.946   8.154   0.280  0.0354  0.0773  0.2235
60171W        W61035  25.989   7.263   2.614 -0.2272  0.0627 -0.0268
60172W        W61036  24.234   7.985   2.740  0.0118 -0.0557  0.1396
60173W        W61037  24.833  10.917   3.787  0.3229  0.1229  0.3250
60174W        W61038  24.382   8.391   2.165 -0.0117 -0.2861 -0.0801
60175W        W61039  25.230   8.369  29.062 -0.2746 -0.2262 -0.1277
60176W        W61040  24.723   8.531   0.992 -0.3150  0.2443 -0.1265
60177W        W61041  24.669   9.364   4.233 -0.1879  0.1573 -0.3044
60178W        W61042  27.409   8.373  27.974  0.1111  0.1235 -0.0009
60179W        W61043  21.879   8.282   0.349  0.1475 -0.1393  0.3118
60180W        W61044  22.747   7.211   2.751 -0.0731  0.1098  0.0151
60181W        W61045  24.201   6.380   0.123 -0.1311  0.2977 -0.1480
60182W        W61046  25.800   8.675   2.133 -0.3422  0.0833  0.0717
60183W        W61047  25.310   8.610   1.851 -0.0190 -0.3316 -0.0823
60184W        W61048  24.523   8.099   5.270 -0.1345  0.1577 -0.4059
60185W        W61049  25.199  10.959   0.533  0.0372  0.0189 -0.3077
60186W        W61050  25.073   8.746   4.813 -0.2569  0.1966 -0.2792
60187W        W61051  24.261  11.363   5.516  0.0486  0.4171  0.1163
60188W        W61052  26.654   6.053  27.588  0.0992  0.0095  0.2482
60189W        W61053  25.174   6.434   1.082  0.2832  0.4701 -0.0166
60190W        W61054  23.593   9.643   1.062 -0.1019 -0.2484 -0.0649
60191W        W61055  24.577   8.432   4.815 -0.2533  0.1661 -0.3882
60192W        W61056  26.018  10.307   3.185 -0.3567 -0.0870  0.0585
60193W        W61057  24.372  10.156   1.154 -0.3111  0.1181 -0.0959
60194W        W61058  26.043   9.022   0.568  0.1288  0.2627 -0.0037
60195W        W61059  23.928   8.427   1.128  0.2584  0.2611 -0.2223
60196W        W61060  23.471   7.288   0.691  0.0972 -0.2514 -0.3381
60197W        W61061  22.910  10.754  27.104  0.0342  0.0510  0.0130
60198W        W61062  23.573   8.151   0.467 -0.2547 -0.1279  0.0668
60199W        W61063  25.313  10.768   2.370 -0.1584 -0.0785  0.0679
60200W        W61064  23.639   7.827   0.079 -0.0308  0.0458 -0.0092
60201W        W61065  26.473   7.315   1.068  0.0705  0.0868  0.0000
60202W        W61066  22.884  11.108   0.428  0.2704  0.0840  0.2198
60203W        W61067  23.839   7.636   4.575  0.1577 -0.1014  0.2199
60204W        W61068  23.245   8.968   2.570  0.2989  0.1885  0.2230
60205W        W61069  23.602  10.610   2.134 -0.1365  0.0446 -0.0001
60206W        W61070  22.397   8.103  29.112 -0.1814  0.2914  0.0255
60207W        W61071  21.847   8.000  27.905 -0.1172  0.2695  0.2184
60208W        W61072  23.603  10.186   1.347  0.0678  0.1025  0.0351
60209W        W61073  23.847   7.822   5.110 -0.1905 -0.1085  0.0698
60210W        W61074  23.356   9.209   0.930  0.0874 -0.1162  0.0318
60211W        W61075  23.576   8.379  26.578  0.2652 -0.3111  0.2392
60212W        W61076  21.181   7.675   1.094  0.0809  0.0091 -0.0515
60213W        W61077  23.089   9.903   1.464  0.6188 -0.1574  0.2385
60214W        W61078  25.554   8.203   2.155  0.1188 -0.1173  0.0695
60215W        W61079  25.006   8.874   3.216 -0.0604 -0.0492  0.0697
60216W        W61080  26.542   9.184   2.245  0.0872 -0.1622  0.0172
60217W        W61081  25.522   5.096   3.265  0.0871  0.2904 -0.1594
60218W        W61082  25.357   8.429   4.501 -0.2320 -0.2857 -0.3267
60219W        W61083  21.386   7.088   0.104  0.0336  0.3358 -0.1528
60220W        W61084  23.549   8.574   0.762  0.2607 -0.0854  0.1361
60221W        W61085  24.375  10.302  29.103  0.0773 -0.3089  0.2032
60222W        W61086  26.063  11.099   2.107  0.2151 -0.1977  0.2578
60223W        W61087  19.816   9.773   1.572 -0.2021 -0.1040 -0.0975
60224W        W61088  24.394   9.654   1.787  0.0155 -0.0456  0.0482
60225W        W61089  25.402  10.361   1.462  0.1532 -0.0381 -0.0260
60226W        W61090  25.447   7.447   3.029  0.2396  0.1905 -0.0851
60227W        W61091  22.391   8.231  27.721  0.5288  0.1083 -0.1910
60228W        W61092  25.699   6.211  27.986 -0.0141 -0.2061 -0.1972
60229W        W61093  26.572   7.919  28.441  0.1720 -0.0240 -0.0319
60230W        W61094  25.337  11.965   5.033 -0.2023  0.0007  0.0327
60231W        W61095  20.681   8.924   3.471 -0.2634 -0.0163 -0.1306
60232W        W61096  21.118   9.638   0.815  0.3745 -0.1680  0.2090
60233W        W61097  21.575   8.040   1.297 -0.0356  0.0815 -0.0570
60234W        W61098  23.257  10.034   0.920 -0.1310 -0.1959 -0.0814
60235W        W61099  26.240  12.774   1.251  0.2002 -0.0087 -0.0874
60236W        W61100  22.389   9.166   1.078  0.4474 -0.1082  0.2140
60237W        W61101  21.723   7.440   0.379 -0.2702  0.0319 -0.1578
60238W        W61102  23.855   6.789  25.548 -0.2735  0.0167 -0.0678
60239W        W61103  25.547   9.716   3.287  0.3270 -0.1575  0.0837
60240W        W61104  24.447   7.123   1.691  0.0715  0.1078 -0.1809
60241W        W61105  19.379   9.002   2.732 -0.2346 -0.2266  0.2681
60242W        W61106  22.633   8.783   1.839 -0.1309 -0.1651  0.0626
60243W        W61107  23.837   8.271  28.943 -0.0434  0.0885  0.0234
60244W        W61108  23.622  10.790  28.080 -0.0689  0.0804 -0.0543
60245W        W61109  22.537   7.153  27.190 -0.1875  0.0302  0.0388
60246W        W61110  24.207   8.823   1.267 -0.1036 -0.1887 -0.1111
60247W        W61111  22.530   8.417   1.049 -0.2241 -0.0856 -0.1689
60248W        W61112  24.874   6.719   3.914  0.1673 -0.1841 -0.0298
60249W        W61113  24.194   6.611   1.865 -0.2478 -0.0073  0.1590
60250W        W61114  26.185   7.158  28.752 -0.3675  0.2105  0.0396
60251W        W61115  23.522   8.605   3.714 -0.4059  0.0353 -0.1613
60252W        W61116  21.489   8.080   2.117  0.2072  0.1178 -0.2688
60253W        W61117  26.923   7.399   0.205 -0.0199  0.3317  0.0024
60254W        W61118  22.822   8.981   2.250 -0.0185 -0.1748 -0.2183
60255W        W61119  23.981   6.421   1.043  0.4325 -0.2157  0.3799
60256W        W61120  26.660  10.835   0.199  0.2159 -0.0176 -0.0037
60257W        W61121  23.098   4.391   1.497 -0.1711 -0.0576 -0.3454
60258W        W61122  24.584   7.745   1.337  0.2043  0.3606  0.1178
60259W        W61123  24.027   9.285   0.957  0.1790  0.1223  0.1793
60260W        W61124  23.791  11.825   3.897  0.0266 -0.1882  0.1260
60261W        W61125  26.239   9.070  28.994  0.1204  0.2165  0.2764
60262W        W61126  26.133  11.105  27.598 -0.0518  0.1454  0.0056
60263W        W61127  20.900   9.223   0.618  0.0275  0.3183 -0.0730
60264W        W61128  24.808   6.367   3.171 -0.0912 -0.4635 -0.1235
60265W        W61129  23.667   7.326   3.438 -0.0715  0.1218 -0.0234
60266W        W61130  21.933   7.682   2.288 -0.2064  0.1065  0.0256
60267W        W61131  22.810   7.661   1.816 -0.0948 -0.0024  0.3501
60268W        W61132  24.532   7.043   3.483  0.0683 -0.0273 -0.0822
60269W        W61133  26.751   9.805  27.411  0.1410  0.0691  0.2671
60270W        W61134  26.661   6.865   0.704  0.0732 -0.0768  0.0275
60271W        W61135  25.040  13.453   1.195 -0.1615 -0.3135 -0.2522
60272W        W61136  23.459  10.876   3.308  0.1143 -0.1708  0.2033
60273W        W61137  24.192   9.174   5.204 -0.3809 -0.0301  0.3232
60274W        W61138  25.463   9.717   4.297 -0.0300 -0.1170 -0.2041
60275W        W61139  26.668   8.643   2.389 -0.1258  0.0557  0.2003
60276W        W61140  25.102   8.658   3.672 -0.1919 -0.2674 -0.3625
60277W        W61141  22.498   7.565  28.442 -0.2010  0.0458 -0.0021
60278W        W61142  27.198   9.306  27.506  0.2590 -0.0423  0.1267
60279W        W61143  24.110  10.254   3.621  0.1340 -0.0797 -0.0286
60280W        W61144  25.814  11.028   1.112  0.1147 -0.3277 -0.4108
60281W        W61145  26.899   8.068   4.179 -0.0605 -0.2177  0.2561
60282W        W61146  26.774  11.341   0.422  0.0293 -0.0300 -0.0377
60283W        W61147  25.460   8.033   4.806  0.0659  0.0056  0.2719
60284W        W61148  23.911   7.467   2.815 -0.0100  0.1326  0.2177
60285W        W61149  24.495  10.589   3.595  0.0186  0.1783 -0.1390
60286W        W61150  20.856   8.320  28.079 -0.0974  0.1362 -0.1468
60287W        W61151  23.778   7.864  27.619 -0.1640  0.1935 -0.4267
60288W        W61152  22.035   5.823   4.828  0.1479 -0.1349  0.4071
60289W        W61153  24.760  11.078   0.351  0.0160  0.0992  0.1369
60290W        W61154  23.271   7.871   1.672  0.2749 -0.1054  0.2976
60291W        W61155  25.153   7.914   3.194  0.1038 -0.0988  0.0545
60292W        W61156  27.327  11.231   2.758 -0.0358  0.1635 -0.0183
60293W        W61157  25.309  11.796   0.432 -0.0385 -0.1128  0.0509
60294W        W61158  24.423   9.375  29.079  0.0037  0.1113 -0.0562
60295W        W61159  22.135  10.273   2.694 -0.0406  0.1570  0.3567
60296W        W61160  24.379   6.242   2.906 -0.2231 -0.0614  0.1828
60297W        W61161  24.997   7.200   2.060  0.0885  0.2321  0.0099
60298W        W61162  22.698   9.079   0.194  0.1721 -0.0386 -0.0853
60299W        W61163  20.719  10.293   0.464  0.2180  0.1439 -0.1802
60300W        W61164  26.580   6.965   1.351 -0.0290 -0.1413  0.1096
60301W        W61165  22.894  10.910   5.170 -0.0575 -0.0332 -0.0866
60302W        W61166  22.110  13.036   1.648 -0.2502  0.1214 -0.3402
60303W        W61167  25.848   7.335   4.152 -0.2766  0.2501  0.0907
60304W        W61168  24.852   8.569   2.816  0.0249 -0.0252 -0.1508
60305W        W61169  22.626  11.643   2.631  0.0131  0.0753 -0.1595
60306W        W61170  23.872  11.259   3.274 -0.2015  0.0570  0.0475
60307W        W61171  23.440   9.943   3.049  0.2889 -0.0010  0.1544
60308W        W61172  20.639   8.211   0.221 -0.2656 -0.2540  0.1325
60309W        W61173  25.208   9.600   2.318  0.5376  0.1130  0.2773
60310W        W61174  25.928   8.495  28.283  0.1465  0.1304  0.0118
60311W        W61175  24.249   9.744   0.293  0.3044 -0.0054  0.0132
60312W        W61176  25.203   9.871   1.049  0.0366 -0.0212 -0.1182
60313W        W61177  24.930   9.816   1.962  0.0565  0.0696 -0.0188
60314W        W61178  22.773   9.842   2.282  0.0620 -0.0127  0.2083
60315W        W61179  22.969  10.771   2.798  0.2451 -0.0930  0.1218
60316W        W61180  25.689   8.942   0.969  0.1869  0.2176  0.0471
60317W        W61181  22.915  11.624   3.736  0.1543  0.0583 -0.1255
60318W        W61182  23.352  11.116   0.436 -0.0584  0.3150 -0.1593
60319W        W61183  20.870  11.470   4.810  0.0975 -0.2009  0.0656
60320W        W61184  20.048  11.689  27.356 -0.0117 -0.3782 -0.0214
60321W        W61185  25.248  11.816  29.078  0.1433  0.0302  0.0391
60322W        W61186  25.361   9.731   2.754 -0.0428  0.3572  0.1806
60323W        W61187  26.981   8.186  29.042 -0.1297 -0.0284  0.0337
60324W        W61188  23.170  10.107  27.973 -0.0164  0.0776  0.1303
60325W        W61189  23.260   9.565   3.316 -0.2575  0.1274 -0.1256
60326W        W61190  25.811   7.384   3.433  0.2080  0.1488  0.0159
60327W        W61191  21.679   9.402   2.671  0.0967 -0.0076 -0.1791
60328W        W61192  24.798   9.358   1.585 -0.2847 -0.1200  0.1610
60329W        W61193  26.511   8.204   3.254 -0.1901  0.1203  0.1203
60330W        W61194  23.096   8.679   0.519  0.0229  0.1432 -0.3414
60331W        W61195  25.049  10.279   2.193 -0.0786  0.1444  0.1068
60332W        W61196  23.940  10.293   0.437  0.1783 -0.3045 -0.2455
60333W        W61197  22.752  11.339  28.749  0.3652 -0.3014  0.3828
60334W        W61198  25.553   6.162   0.879  0.0503 -0.2023 -0.0585
60335W        W61199  24.179   7.707   1.009 -0.3011 -0.1516  0.0724
60336W        W61200  24.151   8.238   0.744  0.2536 -0.2179  0.1696
60337W        W61201  25.797  14.006   3.543 -0.0284  0.0309  0.1206
60338W        W61202  23.675   9.619   2.268  0.0446  0.0883 -0.3829
60339W        W61203  22.058   9.637   2.976 -0.2787  0.3228 -0.1100
60340W        W61204  25.248   7.861  28.948  0.0213  0.2528  0.0748
60341W        W61205  22.596   9.993   4.663 -0.2536  0.2859 -0.2100
60342W        W61206  21.037   6.727   1.263 -0.0482  0.0494  0.3173
60343W        W61207  22.356   8.296   0.579 -0.2968  0.1404 -0.1268
60344W        W61208  23.177   7.661  27.536 -0.3840  0.0540  0.0843
60345W        W61209  23.588   4.720  28.393  0.2198  0.0352 -0.0629
60346W        W61210  24.246  10.138   2.723  0.2278 -0.1353 -0.1722
60347W        W61211  22.255   7.410   2.546  0.1197 -0.1718  0.3036
60348W        W61212  25.748   9.989   1.483 -0.2155  0.0306  0.0540
60349W        W61213  27.339   8.011   3.325  0.2368 -0.0625  0.0380
60350W        W61214  24.020   6.888  28.070 -0.0550  0.0715  0.3119
60351W        W61215  26.422  10.768   1.610 -0.0533 -0.0814  0.1311
60352W        W61216  25.849   8.277   3.883 -0.2023  0.1725 -0.1774
60353W        W61217  21.218  11.988   0.698 -0.0955  0.0897 -0.1134
60354W        W61218  21.149   7.509   0.553  0.1324 -0.0251 -0.0123
60355W        W61219  22.290   7.910   1.891 -0.1440  0.0042 -0.2279
60356W        W61220  23.909   7.662   6.504  0.3067 -0.0515 -0.0919
60357W        W61221  25.476   8.038   0.762 -0.1237 -0.1110 -0.1275
60358W        W61222  25.555   6.070   0.311 -0.0016 -0.1772  0.1286
60359W        W61223  25.167   9.355   3.031 -0.3853 -0.2585  0.0491
60360W        W61224  23.943  11.554   5.143 -0.3534  0.0111 -0.1610
60361W        W61225  25.421   7.169  28.246  0.0297  0.2343 -0.2494
60362W        W61226  22.840   5.982   0.994 -0.0728  0.0337  0.0171
60363W        W61227  21.561  11.316   1.025  0.0596  0.0242  0.1556
60364W        W61228  23.026   8.834  27.719  0.1191 -0.1607  0.0329
60365W        W61229  24.557   9.604   5.451  0.1999  0.0758  0.1192
60366W        W61230  26.367   6.077   1.980 -0.1526 -0.1539 -0.2123
60367W        W61231  26.497  10.967   2.832 -0.3100 -0.1252 -0.1510
60368W        W61232  22.076  10.871   3.876  0.0878  0.2087 -0.1176
60369W        W61233  26.845   8.740   3.144  0.1694  0.1217  0.0476
60370W        W61234  22.743   5.978  27.553 -0.0049 -0.0920 -0.1137
60371W        W61235  25.685  11.948   0.133  0.0109  0.1766 -0.1791
60372W        W61236  25.493  11.713   4.591  0.0339  0.1574  0.0068
60373W        W61237  24.504   6.630   0.546 -0.1032  0.0798  0.0497
60374W        W61238  23.012  10.822   4.607  0.0084  0.2523 -0.2158
60375W        W61239  22.416  11.038  26.435 -0.0448 -0.2213 -0.0246
60376W        W61240  22.011   8.438   2.961  0.0492 -0.2524 -0.0475
60377W        W61241  24.310  10.623   1.678  0.0794  0.0815 -0.0352
60378W        W61242  21.282   8.939   0.872  0.0043  0.1085  0.3471
60379W        W61243  24.679   9.935   2.639 -0.0327  0.0189 -0.1590
60380W        W61244  24.492   8.147   0.426  0.0041  0.0829 -0.2227
60381W        W61245  23.188   7.718   0.485  0.1380 -0.0794  0.1851
60382W        W61246  26.417   7.714   0.264 -0.0997  0.0699  0.0616
60383W        W61247  25.273   7.627   0.438  0.1105  0.3990 -0.0345
60384W        W61248  22.496   7.795   1.445  0.1239 -0.1770 -0.0273
60385W        W61249  27.536   7.738   1.593  0.2356 -0.0064 -0.1933
60386W        W61250  26.474  10.872   2.228  0.1634  0.1820  0.1243
60387W        W61251  24.349  11.595   2.158 -0.1055 -0.1772  0.1347
60388W        W61252  26.201   8.841   2.435  0.2221  0.0321  0.1567
60389W        W61253  26.870  10.414   4.438  0.0725 -0.0024  0.1670
60390W        W61254  21.951   9.827   2.514  0.1616 -0.0721 -0.1540
60391W        W61255  25.414   8.381  26.724  0.0280  0.0030 -0.0106
60392W        W61256  24.904   9.159   3.743  0.0516  0.1361  0.2031
60393W        W61257  24.837   8.133   1.294  0.1424 -0.0518 -0.0508
60394W        W61258  25.610  10.994   1.943  0.0035  0.0260 -0.2935
60395W        W61259  24.544   7.994   2.350 -0.1446  0.1310 -0.1480
60396W        W61260  24.245   5.260   3.492  0.1208  0.0760 -0.0663
60397W        W61261  23.598  10.065  28.732  0.0927 -0.2364  0.0954
60398W        W61262  24.579   9.933  28.788 -0.4859 -0.0435 -0.0180
60399W        W61263  24.624  10.791   3.128  0.1042  0.0582  0.0471
60400W        W61264  22.136   8.775   0.911  0.2758  0.0261 -0.3170
60401W        W61265  23.036  10.769   0.857  0.0544  0.0173  0.4746
60402W        W61266  21.964   7.983   4.284  0.0211 -0.1601 -0.2466
60403W        W61267  21.150   6.649   1.791 -0.0469 -0.0770  0.1978
60404W        W61268  24.532   6.882   4.407  0.3185  0.0397 -0.2994
60405W        W61269  25.674   7.832   0.112  0.0949  0.1406 -0.3692
60406W        W61270  26.537   6.479   4.056  0.0312  0.0552 -0.1509
60407W        W61271  24.033   8.455   2.910 -0.0674 -0.1451 -0.0880
60408W        W61272  25.482  10.209  27.848  0.0113 -0.0915  0.0892
60409W        W61273  23.879   7.094  25.911 -0.1587 -0.0594  0.0220
60410W        W61274  20.671   9.918   0.981 -0.0227 -0.2025  0.1900
60411W        W61275  23.182  10.431   1.252 -0.0274 -0.0528 -0.0987
60412W        W61276  19.890   8.201   0.423  0.1306  0.1461  0.1853
60413W        W61277  22.218   6.519  28.284  0.3081  0.1114 -0.2062
60414W        W61278  22.717   8.838   2.725  0.0345  0.0157 -0.1001
60415W        W61279  23.920   9.604   5.103 -0.1945 -0.2633  0.2287
60416W        W61280  24.253  10.462   3.163 -0.0307 -0.0728  0.3480
60417W        W61281  27.181   6.912   1.831  0.1594 -0.2363  0.2424
60418W        W61282  26.211  10.291   1.461 -0.1577  0.2668  0.0876
60419W        W61283  23.498   8.531   1.292 -0.6034 -0.1252  0.0122
60420W        W61284  24.370  11.847   3.847  0.1186 -0.0408  0.1835
60421W        W61285  25.121   9.896  28.761  0.1854  0.1798  0.0573
60422W        W61286  26.100   8.996  28.204 -0.2105  0.0375 -0.2116
60423W        W61287  27.784   8.438   0.223 -0.0121 -0.0940 -0.0504
60424W        W61288  24.414   9.768  27.780  0.2728  0.0650 -0.1540
60425W        W61289  23.790   6.917   1.916  0.0850 -0.1216  0.1077
60426W        W61290  26.938   8.676   0.347  0.0839 -0.5427  0.3077
60427W        W61291  23.621  10.099   2.152 -0.2698 -0.1544  0.0199
60428W        W61292  24.504  10.353  27.481  0.3357 -0.0699  0.0321
60429W        W61293  23.303   7.533   5.848 -0.0426 -0.0038 -0.1596
60430W        W61294  25.223   6.787   5.024 -0.4922 -0.0094  0.1874
60431W        W61295  25.030   7.953   4.467 -0.1130  0.0059  0.1525
60432W        W61296  25.867  10.827   3.585 -0.0416 -0.0450  0.0863
60433W        W61297  20.553   9.128   2.032  0.6103 -0.0811  0.0301
60434W        W61298  22.600   8.774   0.667  0.3564  0.4448 -0.0218
60435W        W61299  19.791   7.323  28.995 -0.3163  0.3036  0.2851
60436W        W61300  23.728   9.775   3.502 -0.1684 -0.1439  0.0075
60437W        W61301  24.499   8.571   1.657 -0.0412 -0.3348  0.1105
60438W        W61302  25.937  10.026   4.511  0.0581  0.0278 -0.1169
60439W        W61303  24.324   8.714   5.304 -0.0918 -0.1390 -0.1035
60440W        W61304  24.736  11.996   0.054 -0.0096 -0.0603  0.4527
60441W        W61305  24.460   7.562   3.181  0.2102  0.0119  0.0584
60442W        W61306  22.524  12.679  27.769 -0.2270  0.3236 -0.0120
60443W        W61307  26.466   8.621   2.838  0.0688 -0.1060 -0.0314
60444W        W61308  25.080  12.591   2.478  0.0061  0.1031  0.0073
60445W        W61309  24.395  11.134   0.754 -0.2796  0.1187 -0.0257
60446W        W61310  22.487   9.919   1.085  0.1581  0.0697  0.1883
60447W        W61311  23.044   9.397  28.456 -0.1965 -0.0960  0.1042
60448W        W61312  24.471   8.054  28.670 -0.2868  0.1769 -0.0148
60449W        W61313  23.563   8.993   4.547 -0.0554 -0.0259 -0.0775
60450W        W61314  26.609   9.186  28.188  0.3724 -0.1316 -0.0207
60451W        W61315  24.239  10.677   6.239  0.0416  0.0991 -0.1246
60452W        W61316  25.511   9.944  27.371 -0.1810  0.0782 -0.1983
60453W        W61317  24.087   7.567  26.667 -0.1613  0.0199  0.0801
60454W        W61318  21.771  11.232   9.607  0.0964 -0.2370 -0.1510
60455W        W61319  21.309   5.974   4.700 -0.0905  0.0845 -0.2213
60456W        W61320  23.621  11.389   4.804 -0.4029  0.2105 -0.2038
60457W        W61321  23.577   9.501   5.865  0.0649 -0.0876  0.1535
60458W        W61322  23.701   9.859   4.513 -0.5053 -0.3887  0.1549
60459W        W61323  25.107  10.364   5.078  0.4638 -0.3414 -0.0113
60460W        W61324  25.024   9.308   5.767 -0.0837 -0.0916 -0.1575
60461W        W61325  24.379  11.807   2.708  0.0493 -0.1471  0.0299
60462W        W61326  22.552  10.836   3.755  0.0898  0.1400  0.0241
60463W        W61327  21.192  10.589   7.584  0.1377  0.2347 -0.1241
60464W        W61328  23.270   6.368   9.158  0.1319  0.1557 -0.1013
60465W        W61329  28.147   8.698   3.007  0.1629 -0.0446 -0.1558
60466W        W61330  23.737   7.707   0.598 -0.2191  0.4981  0.0805
60467W        W61331  24.352   6.824   7.330 -0.2586 -0.1703 -0.3067
60468W        W61332  21.969   7.242   7.917 -0.2766  0.2062 -0.1745
60469W        W61333  22.121  10.617   6.129  0.0910  0.2153 -0.3036
60470W        W61334  22.589  12.230   2.811  0.3913 -0.3439  0.0299
60471W        W61335  21.846   6.045   6.998  0.3648 -0.1184  0.3836
60472W        W61336  19.784   8.008   5.891 -0.0725 -0.0136  0.1564
60473W        W61337  26.244   6.962   4.012 -0.2355 -0.1178  0.0811
60474W        W61338  25.773   8.420   7.233 -0.2827 -0.0681 -0.0710
60475W        W61339  28.036   8.345   6.362  0.1251 -0.0226  0.1213
60476W        W61340  24.358  13.037   3.766  0.3231  0.3320  0.1098
60477W        W61341  21.001  10.882   7.005  0.2529  0.2908  0.0238
60478W        W61342  24.001  10.080   4.120 -0.3182  0.2090  0.0314
60479W        W61343  22.647   9.005   8.548 -0.0554  0.1139 -0.0481
60480W        W61344  26.588   6.836   7.006  0.3405  0.2890  0.0786
60481W        W61345  24.625  11.743   5.682  0.0601  0.1544 -0.4237
60482W        W61346  23.751   6.587   9.148  0.2981  0.0295  0.2676
60483W        W61347  23.493   7.517   5.222  0.1055  0.1599 -0.0810
60484W        W61348  23.858  10.597   6.580 -0.1479 -0.1424 -0.1232
60485W        W61349  25.048  12.493   6.249  0.1174  0.0955  0.0371
60486W        W61350  23.188   9.702   5.590  0.0828 -0.2161  0.3327
60487W        W61351  25.668   6.433   7.945  0.1622 -0.3044  0.2351
60488W        W61352  20.762   6.843   7.474 -0.0638 -0.0735  0.2448
60489W        W61353  25.000  10.667   5.557 -0.2096  0.1892  0.1663
60490W        W61354  23.760   7.938   2.971  0.1545 -0.0099 -0.2065
60491W        W61355  22.046   7.505   5.751  0.0773  0.0006 -0.1221
60492W        W61356  26.145  11.315   5.091  0.0195  0.1378  0.1207
60493W        W61357  26.071   9.541   7.014  0.1545 -0.3941 -0.1728
60494W        W61358  25.776   6.853   2.274 -0.0988  0.1785  0.0887
60495W        W61359  25.151   8.776   7.953 -0.0721  0.1519 -0.2555
60496W        W61360  23.970  12.110   4.241  0.2021 -0.0670 -0.2452
60497W        W61361  23.816   9.237   3.731 -0.0032  0.1883  0.1181
60498W        W61362  24.970   8.212   5.945  0.0182 -0.2302 -0.0654
60499W        W61363  22.578  13.397   6.010 -0.0742 -0.2298  0.0681
60500W        W61364  23.059   6.277   7.374  0.0532 -0.1342  0.0246
60501W        W61365  25.033   9.421   5.184  0.3155 -0.1701  0.0642
60502W        W61366  26.042  10.961   5.435  0.1118 -0.2363 -0.0823
60503W        W61367  25.389   7.566   5.006  0.2600 -0.0015 -0.0394
60504W        W61368  24.493   7.207   6.235  0.4398 -0.0949 -0.1371
60505W        W61369  25.463   8.587   4.055 -0.2899 -0.0030 -0.1400
60506W        W61370  23.684  12.638   3.628 -0.0924  0.1218 -0.2959
60507W        W61371  26.152   9.106   5.574 -0.3362  0.1934 -0.1393
60508W        W61372  23.464   7.554   3.077  0.2635 -0.3385  0.1005
60509W        W61373  26.088   8.563   5.620  0.0159  0.1034 -0.0633
60510W        W61374  24.009   6.855   3.512 -0.2590 -0.1696  0.1575
60511W        W61375  24.611   8.820   4.011 -0.1229 -0.0793  0.2513
60512W        W61376  22.443   9.592   5.198 -0.1219 -0.0135  0.0134
60513W        W61377  23.515  11.084   5.177  0.0420  0.2145  0.0344
60514W        W61378  26.172   8.665   3.762 -0.0167 -0.3851  0.0314
60515W        W61379  22.520  10.433   5.333  0.0789  0.3174  0.0854
60516W        W61380  22.840   9.941   5.940  0.0202  0.0747 -0.0745
60517W        W61381  23.628  10.871   5.792 -0.1723  0.1241 -0.1752
60518W        W61382  21.912   6.514   7.046  0.2004  0.0302  0.1328
60519W        W61383  24.581   7.177   5.686 -0.2928 -0.1315 -0.0171
60520W        W61384  22.664   8.049   4.813 -0.2433  0.0241  0.0626
60521W        W61385  21.924   9.301   3.918  0.1261 -0.3106  0.1957
60522W        W61386  23.332   9.899   6.082 -0.0494  0.1754  0.1507
60523W        W61387  22.685  11.174   5.982 -0.0810 -0.0874 -0.1890
60524W        W61388  23.734  11.248   6.280 -0.1737 -0.1998 -0.3569
60525W        W61389  25.754   7.694   2.569  0.0031  0.2069 -0.4769
60526W        W61390  26.719  12.465   6.071 -0.0982  0.0341  0.1927
60527W        W61391  23.425   7.411   6.489  0.0243  0.0308  0.1415
60528W        W61392  26.453  11.811   4.191  0.0656  0.2014 -0.1575
60529W        W61393  22.354   9.325   4.591  0.1313  0.0968 -0.3086
60530W        W61394  23.869  10.534   3.989  0.2085  0.2845  0.0284
60531W        W61395  25.319  10.318   5.644  0.1619 -0.0786 -0.0901
60532W        W61396  23.355  10.591   4.245  0.1483 -0.0867 -0.2639
60533W        W61397  22.910   7.923   5.769 -0.0654  0.2757 -0.0772
60534W        W61398  23.601   8.616   4.854 -0.0513  0.3032 -0.3820
60535W        W61399  22.369   9.847   5.630  0.1604  0.1306 -0.3530
60536W        W61400  22.403   6.948   3.670  0.1315  0.1541  0.1905
60537W        W61401  22.802   6.522   6.372 -0.0493 -0.1752 -0.2728
60538W        W61402  23.524   9.094   6.918 -0.0461 -0.0133  0.3679
60539W        W61403  26.234  10.567   2.678  0.1963  0.2204  0.1566
60540W        W61404  21.912  11.721   6.218  0.1021  0.0101  0.2900
60541W        W61405  21.737   7.553   4.309  0.0996 -0.1309 -0.0415
60542W        W61406  25.599   9.685   8.777  0.1811 -0.0736  0.0244
60543W        W61407  23.753   7.408   6.906 -0.0414 -0.4477 -0.1765
60544W        W61408  22.888   9.172   6.378  0.2724  0.4632  0.1253
60545W        W61409  24.891   9.839   9.481  0.0402  0.0464 -0.4062
60546W        W61410  21.631  10.783   6.215 -0.0255  0.0517 -0.1740
60547W        W61411  22.417   8.917   6.061 -0.0405  0.0973  0.0415
60548W        W61412  22.912   7.662   8.380 -0.0489  0.0573 -0.1074
60549W        W61413  24.610   8.301   3.785  0.1023  0.1754 -0.0953
60550W        W61414  26.212   8.126   6.855 -0.1247  0.3197  0.1617
60551W        W61415  22.076  10.755   4.770 -0.1718  0.1191  0.0724
60552W        W61416  22.037   6.876   1.701  0.0937  0.4050  0.1444
60553W        W61417  25.426  11.043   5.589 -0.3609  0.1091  0.0308
60554W        W61418  27.576   8.722   5.741 -0.2199 -0.0015 -0.0794
60555W        W61419  24.293  10.416   6.734  0.0598  0.1299 -0.2660
60556W        W61420  22.849   9.344   2.552 -0.3670 -0.3640  0.0101
60557W        W61421  28.657  11.001   5.167  0.0956  0.1743 -0.1805
60558W        W61422  25.401   8.048   9.298  0.0364 -0.2386 -0.1398
60559W        W61423  23.253   9.467   8.192  0.0503  0.0812 -0.2373
60560W        W61424  25.148   8.210   2.688  0.0227 -0.1088  0.0135
60561W        W61425  24.293   8.259   8.159 -0.0056  0.2020 -0.4680
60562W        W61426  25.338   6.028   3.221 -0.0631  0.0339 -0.0796
60563W        W61427  23.537   8.251   5.231  0.1352  0.1410 -0.3353
60564W        W61428  22.347   8.233   7.276 -0.2129 -0.1442 -0.1704
60565W        W61429  22.704  14.568   6.114  0.0814 -0.0630 -0.1299
60566W        W61430  24.476   8.652   6.698  0.0598  0.1071  0.0881
60567W        W61431  23.695  13.190   6.775 -0.1653  0.1869  0.1313
60568W        W61432  26.492   9.866   3.798 -0.1653  0.1074  0.0316
60569W        W61433  25.937   9.085   6.470  0.3576 -0.0339  0.0849
60570W        W61434  25.244   7.313   6.792 -0.2123  0.0083 -0.0388
60571W        W61435  21.904   7.028   4.484 -0.0327  0.0731  0.1383
60572W        W61436  22.853  11.583   5.684 -0.0929 -0.0612  0.1994
60573W        W61437  23.905   8.291   2.218 -0.2409  0.0126 -0.0517
60574W        W61438  25.951   7.135   5.811 -0.1271  0.0708 -0.0832
60575W        W61439  25.417  11.775   4.084 -0.2789  0.0816  0.2603
60576W        W61440  23.428  10.315   4.917 -0.0208 -0.0346 -0.2085
60577W        W61441  25.447   9.775   5.244  0.0079 -0.1031  0.0141
60578W        W61442  23.755   7.877   5.604 -0.1103 -0.1581  0.0128
60579W        W61443  26.741   9.136   5.286 -0.2676  0.0104  0.3070
60580W        W61444  23.054   9.478   6.002 -0.0256 -0.2015  0.2339
60581W        W61445  25.698  10.595   5.749  0.3858  0.2007 -0.2617
60582W        W61446  25.711  10.211   5.381 -0.2345  0.0822  0.1112
60583W        W61447  21.422   9.889   6.007 -0.3863 -0.0879  0.0662
60584W        W61448  24.312  13.787   3.499  0.1748  0.0162  0.3215
60585W        W61449  24.151   8.802   6.264 -0.0314 -0.1410 -0.2877
60586W        W61450  22.062  12.763   4.758 -0.2984 -0.0202 -0.1229
60587W        W61451  23.750   7.384   5.607  0.0629  0.0009 -0.0144
60588W        W61452  23.192  10.456   8.116 -0.1481  0.0586  0.0060
60589W        W61453  21.155   9.166   6.569  0.3197  0.3164 -0.1240
60590W        W61454  22.585   6.512   2.258  0.1453 -0.0150 -0.1318
60591W        W61455  25.803   8.080   6.590 -0.2444 -0.1413 -0.1957
60592W        W61456  25.205  10.132   4.534  0.1035  0.1083 -0.2408
60593W        W61457  22.646   8.468   5.466 -0.0414 -0.1311 -0.0894
60594W        W61458  23.022   7.656   2.850  0.3288  0.4254  0.1296
60595W        W61459  25.852   6.916   7.609  0.3703  0.1166 -0.0289
60596W        W61460  22.558   7.978   4.315 -0.0883 -0.2922 -0.3019
60597W        W61461  23.501  10.073   4.111  0.0572 -0.0080  0.1332
60598W        W61462  23.724  11.075   6.766  0.0695  0.1502 -0.1402
60599W        W61463  24.295   7.758   4.874  0.0041  0.2538 -0.0222
60600W        W61464  26.547   7.807   5.778 -0.1388  0.2693  0.2022
60601W        W61465  25.246  10.744   6.018  0.1044  0.2366  0.1152
60602W        W61466  23.980  11.615   5.889 -0.2234 -0.2635 -0.2768
60603W        W61467  22.352   8.711   4.772  0.0441 -0.5855  0.1623
60604W        W61468  23.798   9.950   5.845 -0.1956  0.3082 -0.1482
60605W        W61469  23.797   9.232   5.463 -0.0469  0.1222 -0.2945
60606W        W61470  22.462  10.275   3.088  0.1316  0.1077  0.0223
60607W        W61471  22.718   9.636   1.776 -0.4528 -0.1223 -0.2648
60608W        W61472  23.297   7.777   6.823 -0.3303  0.1221 -0.0508
60609W        W61473  25.124   7.465   4.545 -0.1931  0.0576  0.0278
60610W        W61474  22.779  10.148   7.932 -0.0496 -0.1173  0.2378
60611W        W61475  23.859   8.899   3.388 -0.1202  0.1509 -0.2524
60612W        W61476  25.191   6.376   1.583 -0.2111 -0.2668  0.4007
60613W        W61477  26.374   8.849   4.457  0.0561  0.2284 -0.0889
60614W        W61478  24.156   7.629   5.437  0.1629  0.1766  0.3413
60615W        W61479  21.878   6.588   5.883 -0.2150  0.0196 -0.0806
60616W        W61480  25.217   6.991   7.185  0.0378 -0.2002  0.1117
60617W        W61481  25.602  10.312   8.019 -0.0215 -0.3295  0.0684
60618W        W61482  24.336   9.902   7.530 -0.2289  0.1872  0.2189
60619W        W61483  22.620   9.153   5.016 -0.1744 -0.0931 -0.2527
60620W        W61484  22.175  11.380   3.836  0.1063 -0.2175  0.2146
60621W        W61485  24.223   9.789   3.681  0.2122  0.1127 -0.1266
60622W        W61486  23.009  10.261   4.434  0.0460  0.3697 -0.2232
60623W        W61487  24.114  10.022   5.481 -0.0570 -0.0442  0.1501
60624W        W61488  24.486   8.451   5.714 -0.1648  0.3163  0.2814
60625W        W61489  24.879   8.703   7.168 -0.1601 -0.2405  0.0264
60626W        W61490  23.390   9.004   8.043 -0.1242 -0.2119 -0.2389
60627W        W61491  27.052  11.626   1.052 -0.0469 -0.2114  0.1599
60628W        W61492  22.094   8.818   3.803 -0.2567 -0.3158 -0.1012
60629W        W61493   0.084   8.688   4.454 -0.1923 -0.0903  0.1166
60630W        W61494  20.513   7.710   7.749  0.0544  0.1338  0.3451
60631W        W61495  20.558   9.939   6.597 -0.3071  0.1748  0.0465
60632W        W61496  21.674   7.394   7.353  0.0561 -0.1002 -0.1618
60633W        W61497  23.495   6.462   5.829 -0.1039  0.3428  0.1000
60634W        W61498  22.697  11.332   5.139  0.0864  0.1585  0.3395
60635W        W61499  21.792  13.485   5.381  0.1933 -0.1082  0.2012
60636W        W61500  26.353   8.398   7.265  0.1710 -0.1833  0.1023
60637W        W61501  26.385   7.372   5.457  0.3738 -0.0378  0.0100
60638W        W61502  21.601   6.747   3.111  0.1897 -0.1317  0.1760
60639W        W61503  23.718   8.996   5.914 -0.0549  0.3056 -0.0475
60640W        W61504  23.699   5.589   5.504 -0.0510  0.0567 -0.1641
60641W        W61505  21.182   9.286   3.651 -0.0114  0.0261  0.1831
60642W        W61506  21.811  12.778   5.803  0.1497  0.0547  0.1906
60643W        W61507  25.125   9.459   4.522 -0.3256 -0.0724  0.1499
60644W        W61508  21.439   8.045   4.378  0.1044  0.2078  0.4201
60645W        W61509  23.174   8.335   4.919 -0.0138 -0.0544  0.1713
60646W        W61510  24.674   7.728   7.135 -0.0203 -0.2000  0.2062
60647W        W61511  24.139   7.032   5.947  0.2432  0.1124 -0.2481
60648W        W61512  25.735   8.609   4.782  0.1839  0.4060  0.0832
60649W        W61513  24.020   6.394   5.745  0.1158  0.0890  0.2233
60650W        W61514  24.398   7.802   3.809  0.0865  0.2114 -0.1424
60651W        W61515  24.576   7.513   4.461 -0.0090  0.0189  0.0669
60652W        W61516  25.540  10.623   5.266  0.1511  0.1194 -0.2503
60653W        W61517  26.400   8.099   5.208 -0.0956  0.3800  0.3290
60654W        W61518  18.694  10.376   3.408  0.1281 -0.1910  0.0354
60655W        W61519  25.881   8.294   5.234  0.0974  0.0400 -0.1983
60656W        W61520  25.547   9.114   4.348 -0.0256 -0.0055  0.2085
60657W        W61521  20.468   9.400   0.015  0.0921  0.2373  0.0480
60658W        W61522  27.591   6.988   7.745 -0.2990 -0.1033 -0.2471
60659W        W61523  21.994   5.270   3.648 -0.3213  0.1557 -0.0288
60660W        W61524  22.603   7.236   7.494  0.0505  0.3228  0.1198
60661W        W61525  23.236   9.887   7.707  0.1241 -0.0096  0.0951
60662W        W61526  25.154  10.677   2.823  0.2012  0.0188  0.0326
60663W        W61527  26.519   6.381   0.052  0.0862 -0.1010  0.1167
60664W        W61528  19.876   8.403   7.341 -0.0017 -0.1464 -0.2910
60665W        W61529  23.846   7.893   6.906  0.0705 -0.0045 -0.0335
60666W        W61530  25.456  11.106   3.637 -0.3560  0.0046 -0.2387
60667W        W61531  24.741   5.588   5.363  0.2802 -0.0584  0.0333
60668W        W61532  26.159   8.467   6.498 -0.0931  0.1559 -0.1526
60669W        W61533  24.838   6.584   4.727 -0.0203  0.1441 -0.1354
60670W        W61534  25.292  11.019   5.075  0.0353 -0.1869  0.0389
60671W        W61535  25.689  10.389   2.821 -0.0926 -0.0492  0.5000
60672W        W61536  22.750   9.631   8.021 -0.0282 -0.2222 -0.2472
60673W        W61537  21.910   9.660   9.372  0.0113  0.1127  0.3142
60674W        W61538  26.344   7.406  10.052 -0.3020  0.1080 -0.2529
60675W        W61539  24.840  11.124   5.499 -0.2218 -0.2448  0.1375
60676W        W61540  21.831   9.127   5.413  0.1945 -0.2018 -0.0908
60677W        W61541  24.052   8.886   4.707 -0.2087  0.0109 -0.0743
60678W        W61542  23.131  12.158   5.993 -0.1364 -0.2202  0.1290
60679W        W61543  23.326   7.976   9.199 -0.0201  0.0953 -0.2050
60680W        W61544  24.489   8.428   7.143 -0.0346 -0.0035 -0.0642
60681W        W61545  27.732   7.802   7.369  0.1059  0.1750  0.0685
60682W        W61546  25.974  14.708   3.283 -0.0281  0.3283  0.4509
60683W        W61547  25.417   7.981   5.779 -0.2043 -0.0943  0.2441
60684W        W61548  22.581   7.532   5.046  0.0647  0.0110 -0.0478
60685W        W61549  23.188   8.794   6.051  0.0826  0.2044 -0.0710
60686W        W61550  23.285  11.397   6.511 -0.1390  0.2653  0.5003
60687W        W61551  24.350   9.822   4.979 -0.2705  0.1761  0.0420
60688W        W61552  22.177   9.024   6.460 -0.1154  0.2979 -0.3790
60689W        W61553  24.098   9.567   5.724 -0.4436 -0.2885  0.0059
60690W        W61554  25.489   7.023   5.625  0.2199 -0.2217  0.2080
60691W        W61555  23.376   5.076   7.537 -0.1851  0.1114  0.1046
60692W        W61556  23.216  10.536   5.356 -0.2419  0.2997 -0.2323
60693W        W61557  25.457  11.565   5.851 -0.4969  0.2028 -0.0068
60694W        W61558  25.359   9.199   3.450  0.1008  0.0024 -0.4470
60695W        W61559  23.293  11.196   6.081  0.3198  0.0868  0.0190
60696W        W61560  22.290   8.915   5.281 -0.5238 -0.0121  0.0042
60697W        W61561  22.891   6.683   9.256  0.0861 -0.0303 -0.0937
60698W        W61562  25.046   7.244   5.901 -0.1438 -0.2826  0.1305
60699W        W61563  22.989   9.791   3.721  0.0769 -0.2749 -0.1784
60700W        W61564  25.197   9.315   6.694 -0.0305  0.1239  0.1984
60701W        W61565  23.039  10.780   8.990 -0.1680  0.2596 -0.0156
60702W        W61566  23.463  12.188   4.435 -0.0092  0.0418  0.0139
60703W        W61567  25.622   8.856   5.526  0.0104  0.1614  0.1081
60704W        W61568  21.706   8.143   7.830 -0.1534 -0.2171 -0.2553
60705W        W61569  23.253  11.981   6.476 -0.2167 -0.0301 -0.1561
60706W        W61570  25.296   8.883   6.945 -0.0140 -0.2142 -0.0684
60707W        W61571  24.226  10.476   5.181 -0.0167  0.3430  0.1806
60708W        W61572  21.591   7.727   2.821  0.2811 -0.0883 -0.0536
60709W        W61573  26.723   8.424   4.498  0.0138 -0.2552  0.2494
60710W        W61574  26.638   6.867   4.995 -0.3134 -0.0704  0.1027
60711W        W61575  22.531   8.845   7.355  0.1514  0.0080 -0.0194
60712W        W61576  24.850  10.430   4.537 -0.0639 -0.0629 -0.0654
60713W        W61577  25.689   5.951   6.499  0.1447 -0.3703  0.2049
60714W        W61578  24.478   5.828   4.961 -0.0588  0.0345 -0.3520
60715W        W61579  23.477  10.299   9.506  0.0921 -0.0152  0.1338
60716W        W61580  25.107  10.341   6.348 -0.0188  0.1001  0.0247
60717W        W61581  23.340   8.771   8.825 -0.2195  0.0202  0.0540
60718W        W61582  21.989  12.001   5.782 -0.0813  0.0291  0.3745
60719W        W61583  23.451  10.344   7.506 -0.4351  0.0710 -0.2104
60720W        W61584  23.568  10.845   4.627 -0.1271  0.0460  0.2398
60721W        W61585  26.729  10.964   3.331  0.2049 -0.1260  0.3703
60722W        W61586  25.158   6.240   6.683 -0.0010 -0.1065 -0.0511
60723W        W61587  24.970  10.427   3.272  0.1970  0.0730 -0.3462
60724W        W61588  23.318  11.799   3.544  0.0584  0.0619  0.2189
60725W        W61589  24.092  11.415   6.909  0.0089  0.1373  0.1922
60726W        W61590  23.720  11.072   7.332 -0.0996 -0.1189 -0.0646
60727W        W61591  23.525  10.080   5.410 -0.1375 -0.1868  0.1228
60728W        W61592  23.579  10.075   8.088 -0.0101 -0.0463 -0.3962
60729W        W61593  23.140   8.690   3.372  0.0556 -0.0735  0.1584
60730W        W61594  23.301   8.471   7.599  0.3174  0.1745  0.0803
60731W        W61595  26.431   7.293   5.928  0.0840  0.0547  0.2668
60732W        W61596  22.372   5.380   3.912  0.0792 -0.2855  0.2439
60733W        W61597  20.736  11.860   4.529  0.3702 -0.0865 -0.2337
60734W        W61598  22.800   8.518   5.966 -0.1254 -0.1132  0.0390
60735W        W61599  23.032   7.719   3.475  0.0325 -0.1926  0.0322
60736W        W61600  22.221   9.214   3.463  0.2477  0.0098  0.1495
60737W        W61601  20.919  11.289   6.654  0.0868 -0.1847 -0.1641
60738W        W61602  24.490   8.025   4.511 -0.1947  0.1677  0.1336
60739W        W61603  24.525   9.713   6.444 -0.1875  0.0662 -0.2908
60740W        W61604  24.027   9.977   3.188  0.0479  0.1833 -0.3472
60741W        W61605  23.158   8.621   7.145 -0.1018 -0.2605 -0.3556
60742W        W61606  26.281   7.862   4.136  0.2283 -0.0835  0.2557
60743W        W61607  25.496  10.483   1.974  0.1754 -0.2670  0.0132
60744W        W61608  24.218   9.667   4.472  0.1073 -0.0096 -0.3352
60745W        W61609  23.233   7.230   2.682  0.1252 -0.0440 -0.1922
60746W        W61610  24.678   6.139   2.524 -0.1306 -0.3477  0.0109
60747W        W61611  24.025   8.309   7.024  0.2031 -0.1301 -0.3301
60748W        W61612  22.731  11.282   4.456 -0.2079  0.0628  0.3147
60749W        W61613  25.981   8.760   5.203  0.1907  0.2668 -0.0503
60750W        W61614  22.686   8.097   6.246 -0.2141  0.3903 -0.2753
60751W        W61615  24.607  11.304   5.880 -0.1770  0.0981 -0.2275
60752W        W61616  25.810   7.767   3.927  0.2356 -0.0113  0.1585
60753W        W61617  22.979  10.057   3.300  0.0023  0.2932  0.3758
60754W        W61618  24.503   8.434   6.198  0.1287  0.1690 -0.1073
60755W        W61619  22.910   6.600   8.785 -0.0410 -0.0363 -0.0686
60756W        W61620  20.041  11.300   7.044  0.0475 -0.0364 -0.0567
60757W        W61621  24.595   9.445   4.748 -0.2681 -0.0964 -0.2933
60758W        W61622  27.689   8.756   2.452 -0.1937 -0.0346 -0.4006
60759W        W61623  20.991  10.166   4.219  0.1369 -0.0735 -0.0401
60760W        W61624  23.297  11.332   7.925  0.1220  0.1606  0.0484
60761W        W61625  21.769   8.833   4.761 -0.2966 -0.1187  0.1863
60762W        W61626  24.003  12.181   3.666  0.0140  0.2429  0.0560
60763W        W61627  25.462   9.331   5.523 -0.2757 -0.2142 -0.2235
60764W        W61628  22.881   7.194   1.845  0.1521  0.0391 -0.0433
60765W        W61629  24.087   9.262   6.151 -0.1378  0.0633  0.0549
60766W        W61630  25.436   8.242   3.634  0.2142 -0.2570  0.1932
60767W        W61631  23.147   9.358   7.637  0.1522  0.0610  0.0520
60768W        W61632  22.168  11.472   5.131  0.0137  0.2964 -0.1485
60769W        W61633  23.549  10.186   6.380 -0.0113 -0.0359  0.2083
60770W        W61634  23.148   8.841   4.708  0.0478  0.3197  0.1390
60771W        W61635  24.689   6.826   5.142  0.1249  0.0938 -0.1544
60772W        W61636  25.109  10.910   3.301 -0.1162 -0.2375 -0.0871
60773W        W61637  22.439   7.702   6.654 -0.0975 -0.0710 -0.4420
60774W        W61638  23.274   9.978   6.759 -0.0738 -0.0375  0.0786
60775W        W61639  26.011  10.512   4.134  0.1508  0.0761 -0.0189
60776W        W61640  20.317  10.129   7.508  0.0459  0.0708 -0.1760
60777W        W61641  23.778   7.952   9.410 -0.0531 -0.0087 -0.1427
60778W        W61642  25.141   7.648   1.418  0.0330  0.0775 -0.0139
60779W        W61643  23.994  12.921   4.763  0.1606  0.1577 -0.0450
60780W        W61644  23.750   4.842   6.681 -0.0539 -0.2283  0.0343
60781W        W61645  23.256   9.864   2.507  0.0481  0.0003  0.1912
60782W        W61646  23.276   7.349   3.765  0.1128 -0.2148  0.1063
60783W        W61647  23.243   8.049   3.018  0.0598 -0.3824 -0.2195
60784W        W61648  24.317   7.467   6.721  0.1441  0.0269  0.1189
60785W        W61649  25.244   7.696   2.579 -0.2879  0.0525 -0.0088
60786W        W61650  26.102  11.399   7.956  0.0567  0.0170  0.0673
60787W        W61651  23.244  11.440   8.381 -0.0387  0.1307  0.3444
60788W        W61652  24.227   8.100   8.673 -0.1469  0.4267 -0.0285
60789W        W61653  23.637   9.431   7.868 -0.2457 -0.1797 -0.1898
60790W        W61654  23.380  10.773   7.089  0.3776  0.0495  0.1479
60791W        W61655  26.754   8.687   1.188 -0.1176 -0.2185  0.0593
60792W        W61656  22.259   7.820   6.153  0.1256  0.0378  0.0835
60793W        W61657  23.210   6.880   4.708  0.0527 -0.0198 -0.5116
60794W        W61658  23.030   9.353   4.780 -0.1129 -0.1075  0.0140
60795W        W61659  24.120   7.057   5.441 -0.0386  0.3059  0.0544
60796W        W61660  23.643   6.307   4.431  0.2119  0.1546 -0.0835
60797W        W61661  22.903   7.424   6.652 -0.0962  0.1380  0.0424
60798W        W61662  25.336   7.565   4.084 -0.3634 -0.2146  0.0041
60799W        W61663  23.528  12.033   7.000 -0.3700  0.1671  0.1137
60800W        W61664  23.204   9.897   4.722 -0.1591  0.3497 -0.1272
60801W        W61665  24.664   9.099   5.512  0.2147  0.2782 -0.1994
60802W        W61666  24.457   9.184   6.456  0.0979  0.1390  0.2200
60803W        W61667  22.650   7.796   3.809 -0.3066 -0.1123  0.2706
60804W        W61668  25.406   9.269   7.599  0.1074  0.0755 -0.2346
60805W        W61669  24.799   8.567   5.230 -0.4329  0.1751 -0.1944
60806W        W61670  24.962   7.403   3.245  0.2078 -0.1204 -0.1388
60807W        W61671  21.180  11.388   6.040 -0.2289 -0.0839  0.0802
60808W        W61672  24.047  12.267   1.603 -0.0885  0.0471 -0.2270
60809W        W61673  25.309   5.655   4.148  0.1914 -0.0400  0.0478
60810W        W61674  22.417  11.387   5.531 -0.0034  0.1335  0.1952
60811W        W61675  22.555   8.559   8.022 -0.2283 -0.0127 -0.0850
60812W        W61676  22.675   8.675   6.460  0.0462 -0.1126 -0.0283
60813W        W61677  23.521   8.974   3.029  0.2438 -0.2044  0.2335
60814W        W61678  22.231   8.444   1.979  0.1153  0.1961  0.1241
60815W        W61679  26.274   8.392   4.279 -0.0997  0.0625 -0.0291
60816W        W61680  24.022  11.110   4.719  0.3694 -0.0007 -0.0793
60817W        W61681  25.009   8.173   4.928  0.1760 -0.0829 -0.0808
60818W        W61682  23.095  10.969   5.706 -0.1175 -0.2546  0.2348
60819W        W61683  24.714  11.132   7.935  0.2700  0.0889  0.1032
60820W        W61684  24.221  10.943   6.712  0.1095 -0.1400 -0.2373
60821W        W61685  28.216   7.886   4.181 -0.0610 -0.1360  0.1386
60822W        W61686  25.207   9.036   2.205 -0.1401  0.3014  0.0399
60823W        W61687  25.913  11.442   4.662  0.1161 -0.2002 -0.3487
60824W        W61688  26.194   6.908   0.859 -0.0305  0.3182 -0.2381
60825W        W61689  25.419   9.465   6.135  0.2847 -0.0793 -0.0170
60826W        W61690  25.252  10.001   3.613  0.2455 -0.0334 -0.1134
60827W        W61691  24.384   8.874   7.404  0.0040  0.1534 -0.0012
60828W        W61692  25.211  12.331   5.324 -0.2324 -0.0294  0.1470
60829W        W61693  22.723   8.462   6.968 -0.0308  0.0288 -0.0460
60830W        W61694  24.216   7.531   5.934 -0.0002  0.0845 -0.0828
60831W        W61695  22.268  11.415   6.458 -0.1182  0.0328 -0.1288
60832W        W61696  24.940   8.152   7.005 -0.0629  0.1087  0.1372
60833W        W61697  23.241  11.149   4.319 -0.1916  0.1632  0.0448
60834W        W61698  22.185   6.347   5.057  0.1866 -0.1247  0.0092
60835W        W61699  21.866   7.690   5.261 -0.0619 -0.1677  0.1971
60836W        W61700  23.610   8.559   6.228 -0.2057 -0.2918  0.1738
60837W        W61701  23.744   7.655   6.052 -0.2312 -0.2261 -0.1237
60838W        W61702  23.284  11.659   4.598 -0.1912  0.0146  0.0039
60839W        W61703  22.917  10.910   8.078  0.1487  0.2040 -0.1246
60840W        W61704  24.491  10.782   4.744 -0.0842  0.0668  0.1308
60841W        W61705  25.574  10.159   4.842  0.2887  0.0804  0.2559
60842W        W61706  23.644  11.620   6.744  0.0833  0.0687 -0.2076
60843W        W61707  23.856  10.422   5.515  0.0904  0.0081 -0.0058
60844W        W61708  22.441  10.748   5.772  0.0288  0.0154  0.2174
60845W        W61709  22.335  10.970   5.298  0.1046  0.3064 -0.2981
60846W        W61710  25.997   8.414   3.288  0.1653  0.0925  0.0646
60847W        W61711  24.149   6.267   6.457  0.0263  0.0308 -0.1165
60848W        W61712  22.819  10.627   8.549  0.1331 -0.0022 -0.1540
60849W        W61713  24.942   9.926   5.397 -0.1119  0.0561  0.4313
60850W        W61714  24.819  12.317   4.943  0.2056  0.2691  0.0465
60851W        W61715  22.059  11.741   4.743 -0.0550 -0.0554  0.0177
60852W        W61716  24.830  11.932   4.074 -0.0395  0.0909 -0.1280
60853W        W61717  22.298   6.629   0.052  0.0320 -0.0679  0.0604
60854W        W61718  20.260  11.833  10.589  0.1849 -0.0811 -0.2326
60855W        W61719  22.151  10.183   9.196 -0.0916 -0.2272 -0.0179
60856W        W61720  22.741   9.880   6.979 -0.1130  0.0022  0.2253
60857W        W61721  23.625  10.022   9.936 -0.0288  0.2057  0.4116
60858W        W61722  22.294  11.521   4.325 -0.0603  0.1067  0.2129
60859W        W61723  21.518   6.554   9.387 -0.1196  0.1412 -0.0249
60860W        W61724  21.498   9.309   8.505  0.2576 -0.1854 -0.0761
60861W        W61725  21.113  10.854   7.972 -0.0748 -0.1110  0.1842
60862W        W61726  22.345  10.896  10.882 -0.1389  0.4705  0.2559
60863W        W61727  23.689   7.893   8.841 -0.2786 -0.1960  0.2342
60864W        W61728  24.816   7.690  12.733 -0.7787 -0.0842 -0.1521
60865W        W61729  23.853   9.703   6.241  0.0432  0.1322 -0.0843
60866W        W61730  25.614   7.521  12.761 -0.4892  0.0203 -0.1254
60867W        W61731  22.280  11.014   9.592  0.1447 -0.2164 -0.3556
60868W        W61732  22.205   9.875   9.730  0.4599 -0.1075  0.3649
60869W        W61733  21.536  10.378   7.348  0.1150 -0.2287 -0.2948
60870W        W61734  24.512   9.796   8.794  0.0544 -0.1913  0.0787
60871W        W61735  22.316   7.970  10.337 -0.0604  0.0602  0.1781
60872W        W61736  25.672   6.694   9.457  0.1335  0.2674 -0.2344
60873W        W61737  26.534   8.145   9.791  0.2263  0.0396 -0.0518
60874W        W61738  21.210   9.282   7.466  0.0193 -0.3068 -0.1414
60875W        W61739  24.706  10.579  10.262 -0.0742 -0.1800 -0.0197
60876W        W61740  23.341  12.111  10.420  0.0204  0.2831 -0.1375
60877W        W61741  19.286  10.725  11.474  0.2495  0.0673  0.0856
60878W        W61742  22.908   9.210   9.937  0.2605 -0.1375 -0.1296
60879W        W61743  26.604   8.942   9.127  0.1045  0.2186 -0.2868
60880W        W61744  20.973  11.705   5.645  0.1477  0.1653 -0.0932
60881W        W61745  24.040  10.498  11.379 -0.0689 -0.2452 -0.5119
60882W        W61746  21.099   8.478   9.976  0.0824  0.0519  0.0086
60883W        W61747  24.081  10.557  10.825  0.3028  0.1345  0.4014
60884W        W61748  25.053  11.669  13.457 -0.3103 -0.0413 -0.2025
60885W        W61749  21.631  10.113  10.347  0.0433  0.1422  0.1671
60886W        W61750  23.147  11.420   9.997  0.1125 -0.1011 -0.1827
60887W        W61751  21.110   9.207  11.071  0.2560  0.0860 -0.1263
60888W        W61752  21.979  10.557  10.669  0.3541 -0.1798 -0.2965
60889W        W61753  20.992  11.554   8.810 -0.1096 -0.0324  0.0634
60890W        W61754  25.908  13.054   9.775 -0.1909  0.0524 -0.0484
60891W        W61755  25.479   7.989  11.864 -0.2153  0.0933 -0.0350
60892W        W61756  24.538   5.231   7.278  0.0031 -0.3959  0.1175
60893W        W61757  24.179   7.868   7.314 -0.0544  0.0340  0.2275
60894W        W61758  23.834   9.692   8.960  0.3061  0.1592 -0.1659
60895W        W61759  25.318  10.977  10.167 -0.1754 -0.0581  0.1358
60896W        W61760  22.191   9.258   6.885  0.0970  0.2118 -0.1910
60897W        W61761  20.663   9.118   6.704 -0.2884 -0.2110  0.0739
60898W        W61762  22.289  12.520   5.928 -0.0460  0.1485  0.1821
60899W        W61763  24.390   8.394  12.094 -0.0243  0.1028  0.2441
60900W        W61764  23.366  10.942  10.109 -0.0389  0.3667  0.0523
60901W        W61765  23.634  10.567   9.953 -0.0919 -0.0471  0.1736
60902W        W61766  24.481   7.534   7.633 -0.2940  0.0184  0.1015
60903W        W61767  24.065  10.057  11.042  0.0108 -0.0722 -0.2947
60904W        W61768  22.891   9.144   8.064  0.2972 -0.0602 -0.1648
60905W        W61769  22.669  11.581  11.261 -0.0362 -0.1216  0.1514
60906W        W61770  22.523  10.647   8.141  0.2817 -0.0930  0.0174
60907W        W61771  22.223   6.832   9.222  0.1318 -0.3628 -0.0278
60908W        W61772  21.900  10.836   7.558  0.1511  0.0076 -0.2256
60909W        W61773  22.223   8.834   8.831 -0.0229 -0.0058  0.1165
60910W        W61774  25.981  10.501   7.686 -0.0653 -0.2233  0.1067
60911W        W61775  23.660  10.638  10.429 -0.0513 -0.0313 -0.1821
60912W        W61776  20.998  11.043   8.932 -0.2706  0.1150  0.0901
60913W        W61777  24.713   9.282   8.857 -0.3840  0.0439  0.1197
60914W        W61778  20.476   7.885   9.472  0.1120 -0.0040  0.1167
60915W        W61779  24.520   8.657  10.296  0.0395  0.3008  0.0419
60916W        W61780  24.557   9.453   6.006 -0.1224 -0.0503 -0.3449
60917W        W61781  24.227   7.660   9.604  0.3064 -0.0068 -0.0604
60918W        W61782  26.307   9.695   9.463 -0.0555 -0.0409 -0.1953
60919W        W61783  21.218   8.333   5.336  0.1934 -0.0261  0.0285
60920W        W61784  19.465   6.284   6.691 -0.0552 -0.0664 -0.0658
60921W        W61785  23.069  10.160   9.909  0.2975  0.0418 -0.2423
60922W        W61786  23.773  11.404   9.406 -0.3060  0.0230 -0.0511
60923W        W61787  24.205  11.661   9.373 -0.4178  0.0992  0.0266
60924W        W61788  25.517   9.286   8.233 -0.0815 -0.1089  0.0002
60925W        W61789  24.953   8.880   9.475  0.4098 -0.0519  0.1012
60926W        W61790  22.019   9.214  10.296  0.0940  0.1978  0.1046
60927W        W61791  21.971  10.407   7.049 -0.1748  0.1140  0.2568
60928W        W61792  24.498  10.130   8.350  0.1402  0.0300  0.3376
60929W        W61793  23.333  10.814   7.777  0.1434 -0.1607  0.1386
60930W        W61794  21.767   8.132   9.382 -0.0225  0.1143  0.1232
60931W        W61795  24.204   8.928   8.574 -0.1363 -0.0478  0.2660
60932W        W61796  23.339   7.635   9.604 -0.1006 -0.2728 -0.1279
60933W        W61797  25.273   7.131   8.797 -0.2885 -0.2178 -0.0782
60934W        W61798  22.109   7.238   9.512  0.1934  0.0358  0.0283
60935W        W61799  21.306   9.702   8.768  0.1734 -0.2840 -0.1664
60936W        W61800  24.678   7.392   9.412  0.0019  0.1365 -0.2451
60937W        W61801  22.781   7.395  13.299  0.2904 -0.3242 -0.1407
60938W        W61802  24.066   9.470   7.619 -0.1604  0.0415 -0.4550
60939W        W61803  23.702  11.835  11.839  0.1085  0.0229 -0.1824
60940W        W61804  25.488   7.052   9.868 -0.0917 -0.0941 -0.2585
60941W        W61805  25.523   9.824  11.995  0.2428  0.1937 -0.0040
60942W        W61806  24.367   7.571  10.285 -0.1699  0.0025  0.0890
60943W        W61807  23.748   8.631   9.962 -0.2046 -0.1439  0.1606
60944W        W61808  25.716   7.872  11.427  0.2192 -0.0448 -0.0701
60945W        W61809  23.691  11.994  10.108  0.0231 -0.0709  0.1440
60946W        W61810  23.031   8.024   7.189 -0.0311 -0.1974  0.1581
60947W        W61811  22.981   6.566  11.786  0.1914 -0.0859  0.0448
60948W        W61812  25.430  10.120   9.760  0.3083 -0.1786 -0.1171
60949W        W61813  24.509   9.556   7.848 -0.0694 -0.0772  0.0603
60950W        W61814  23.407  10.133  12.201 -0.2266 -0.1991 -0.1118
60951W        W61815  19.762   8.704   8.437  0.1864 -0.0684 -0.1641
60952W        W61816  24.297   8.532   8.923  0.1402 -0.0383 -0.0087
60953W        W61817  24.447  10.790   5.556 -0.1901  0.0222  0.1715
60954W        W61818  22.815  11.662   9.011 -0.2951 -0.2285 -0.0449
60955W        W61819  22.673   5.677   6.439 -0.1184 -0.0135 -0.0804
60956W        W61820  25.852  10.000   6.976  0.0806  0.0519 -0.3927
60957W        W61821  25.674   9.164   9.180  0.1663 -0.1960 -0.1437
60958W        W61822  23.624   9.052  11.787  0.1111  0.0764 -0.2244
60959W        W61823  23.738   9.969   7.595  0.2506  0.0101  0.1080
60960W        W61824  24.688   8.341  11.054  0.0519  0.0427  0.3684
60961W        W61825  23.945   8.101  10.868 -0.3140 -0.1494  0.3152
60962W        W61826  23.366   9.451   6.390  0.0510 -0.0046  0.2311
60963W        W61827  23.388  10.007   9.075 -0.1046  0.1379 -0.1329
60964W        W61828  21.664   8.130   8.900 -0.0576 -0.0355 -0.0071
60965W        W61829  26.624   7.731  10.704 -0.0224 -0.4131  0.0680
60966W        W61830  25.106  11.205   5.981 -0.0666 -0.2196  0.0547
60967W        W61831  23.229   9.670   8.707  0.0545 -0.0710 -0.1677
60968W        W61832  22.569  10.966   8.927 -0.1417  0.1713  0.2265
60969W        W61833  25.150   9.267  10.733 -0.1533 -0.1690  0.2486
60970W        W61834  24.061   9.780   8.043 -0.2016  0.1913  0.2949
60971W        W61835  23.298   8.447   9.160 -0.2485  0.1711  0.0772
60972W        W61836  24.915   8.873   6.677 -0.1468 -0.1034  0.1792
60973W        W61837  25.357   5.870   7.976  0.0448 -0.1048  0.0614
60974W        W61838  24.092   9.495   8.567 -0.0642  0.0233  0.1581
60975W        W61839  24.255   9.193   9.882 -0.1871 -0.2283 -0.2919
60976W        W61840  22.578  11.131   8.364  0.2905  0.1681  0.0813
60977W        W61841  21.665   9.012   7.529  0.1002  0.0157  0.0505
60978W        W61842  25.057   8.496   8.638 -0.1696  0.0608  0.2062
60979W        W61843  23.513  13.043   7.227 -0.0885  0.2147 -0.1348
60980W        W61844  25.016  10.808   9.176  0.0830  0.1613 -0.1020
60981W        W61845  22.852   9.444   8.487 -0.2343  0.2626 -0.2331
60982W        W61846  23.895  10.524   7.629 -0.0748  0.0089  0.1550
60983W        W61847  22.815  11.400  11.780 -0.1023  0.2529 -0.4018
60984W        W61848  22.137  10.498   9.586 -0.0040 -0.0615 -0.2098
60985W        W61849  25.985  10.971   9.570 -0.0729 -0.4035 -0.0609
60986W        W61850  22.986   7.011   7.272 -0.1685 -0.0017 -0.2613
60987W        W61851  25.099   8.930  11.764  0.3027 -0.0455  0.4627
60988W        W61852  21.432   8.110   9.774 -0.0403 -0.1232 -0.0827
60989W        W61853  24.600   9.550   9.224  0.0196 -0.0044 -0.0466
60990W        W61854  25.126   9.635   9.900  0.0229  0.1660 -0.0899
60991W        W61855  24.174  11.321   9.683  0.0900  0.0444 -0.2770
60992W        W61856  22.430  10.439   4.533  0.1241  0.0846 -0.1048
60993W        W61857  21.004   6.536   8.517 -0.1952  0.1226  0.2049
60994W        W61858  23.914   9.940  11.668 -0.0373  0.0716 -0.0604
60995W        W61859  21.412   7.978   6.321  0.0682 -0.1322 -0.0213
60996W        W61860  23.560  10.061   7.148 -0.0232 -0.1328  0.2503
60997W        W61861  24.377   9.610  10.988 -0.0897 -0.0279 -0.0733
60998W        W61862  22.848   8.430   8.895 -0.0453 -0.0665 -0.1242
60999W        W61863  23.529   9.702  12.050 -0.1039 -0.0049  0.0357
61000W        W61864  25.035  11.184   8.806 -0.0462 -0.1155  0.0365
61001W        W61865  22.740  11.312   7.079 -0.2490  0.1388 -0.1670
61002W        W61866  22.950   9.279  10.974  0.3277  0.3773  0.1171
61003W        W61867  26.623   9.500  11.211 -0.3512  0.0559 -0.2958
61004W        W61868  23.265   7.934   7.638 -0.3230  0.4670  0.2090
61005W        W61869  23.403   9.882  10.784 -0.1701 -0.0020  0.3827
61006W        W61870  23.406   9.557   5.150  0.1016 -0.0623 -0.2404
61007W        W61871  22.707  10.117   9.403  0.0776 -0.2100 -0.2492
61008W        W61872  23.048   8.831   9.438 -0.0732 -0.1643  0.0408
61009W        W61873  23.088  10.379   9.271 -0.0584  0.2025  0.0246
61010W        W61874  24.176  13.434   6.945  0.1329 -0.0720  0.1141
61011W        W61875  23.143   7.983   4.463 -0.0817  0.0059  0.0327
61012W        W61876  24.263   8.446   7.614  0.1024 -0.0527  0.0929
61013W        W61877  24.205   7.260   9.872  0.1940  0.0519 -0.1912
61014W        W61878  23.769   8.913  11.284 -0.4059 -0.1018  0.0883
61015W        W61879  23.188  11.855   8.677 -0.1315  0.1983 -0.3661
61016W        W61880  21.372   8.627  10.571 -0.0867 -0.1355  0.0603
61017W        W61881  24.787   7.899   9.252  0.0999  0.0491 -0.1078
61018W        W61882  22.107   9.308   8.604  0.0336  0.0977  0.1238
61019W        W61883  22.863   8.167   8.461  0.0921 -0.0066  0.0957
61020W        W61884  18.658  10.253   5.787  0.0092  0.0604  0.1989
61021W        W61885  21.161   8.817   8.385  0.0285  0.0944 -0.0153
61022W        W61886  22.708  12.080   5.865 -0.0846  0.2863 -0.0777
61023W        W61887  22.300   9.719   8.394  0.4093  0.1421  0.2414
61024W        W61888  23.139   9.199   9.090  0.0571 -0.2718 -0.1474
61025W        W61889  25.165   9.997  11.048  0.0951  0.1777 -0.0969
61026W        W61890  24.903  11.669   6.749 -0.2539 -0.1789  0.2340
61027W        W61891  21.039  10.064   6.338 -0.1179 -0.1788  0.0474
61028W        W61892  23.895   9.063   9.597 -0.0426 -0.1523  0.1429
61029W        W61893  19.700   8.757  10.821 -0.1357  0.1696  0.1251
61030W        W61894  21.031   9.309   9.816 -0.0933  0.3528 -0.1851
61031W        W61895  20.455   8.227   7.651  0.1148 -0.1001  0.0275
61032W        W61896  23.820   8.242  10.415 -0.0438  0.2718  0.2576
61033W        W61897  20.019   8.304   8.299  0.0337  0.1053 -0.2396
61034W        W61898  27.893   9.493   7.964 -0.0425 -0.0227 -0.1626
61035W        W61899  22.583  12.603  10.488  0.0957  0.3438 -0.2113
61036W        W61900  23.601   8.190   7.956 -0.0895 -0.1381  0.1640
61037W        W61901  23.080   9.326   6.822 -0.3342  0.0842  0.1307
61038W        W61902  20.128   9.979  11.439 -0.4280  0.1082 -0.3989
61039W        W61903  24.679   7.686   9.830 -0.1474  0.1866 -0.0860
61040W        W61904  21.738   5.307   8.548 -0.2282 -0.1103 -0.2756
61041W        W61905  25.572  10.284  11.192 -0.2231 -0.0898 -0.1056
61042W        W61906  25.498  11.144   9.703  0.0584  0.0621  0.3451
61043W        W61907  19.752  11.154   5.042 -0.1897  0.0862  0.3125
61044W        W61908  20.214  10.777   7.089  0.1204 -0.2699  0.2733
61045W        W61909  23.194  10.676   9.730 -0.0232  0.0296 -0.1989
61046W        W61910  22.656   7.271  10.892  0.0581 -0.1848  0.1405
61047W        W61911  23.627   5.732   8.147  0.0414  0.0864  0.3181
61048W        W61912  22.169  10.132   8.678 -0.3242 -0.0577  0.0631
61049W        W61913  22.847   7.199   8.499 -0.2888 -0.3617  0.0308
61050W        W61914  22.129   8.430   9.502  0.0953  0.1440  0.0797
61051W        W61915  19.452   8.649  10.265 -0.2621 -0.2556 -0.1252
61052W        W61916  23.389   7.848   8.380 -0.1091  0.0686  0.5654
61053W        W61917  20.835   5.757   8.977  0.0957 -0.0038  0.1813
61054W        W61918  23.527   7.093  10.464 -0.5785 -0.0217  0.0145
61055W        W61919  25.117   7.973   8.171 -0.1705  0.1741 -0.2263
61056W        W61920  21.120  10.508   5.585  0.0291 -0.1932  0.3742
61057W        W61921  24.242   8.051   9.161  0.3331  0.0681 -0.1028
61058W        W61922  20.668   8.322   6.004 -0.1265  0.1072  0.0296
61059W        W61923  23.212  10.668  10.641  0.0574 -0.2383  0.1112
61060W        W61924  23.079   8.233   8.043  0.2144 -0.0196  0.0115
61061W        W61925  23.806  11.747   3.420  0.1815  0.2803  0.1333
61062W        W61926  23.524  11.496   4.105  0.0663  0.1834 -0.0029
61063W        W61927  21.514   7.761  11.493 -0.4102  0.0936 -0.1523
61064W        W61928  20.859   7.814  10.399  0.2280 -0.1639 -0.1165
61065W        W61929  23.062  11.927  11.323 -0.2743  0.1580  0.1077
61066W        W61930  25.533   7.935   7.879 -0.3647  0.2451 -0.1392
61067W        W61931  23.870   7.766  11.295 -0.3393 -0.3415 -0.1299
61068W        W61932  24.753  10.325   6.931  0.0122 -0.1552 -0.3772
61069W        W61933  22.573  13.540   6.490  0.2606  0.0477 -0.1054
61070W        W61934  25.345   9.740   7.050  0.0469  0.0504  0.3964
61071W        W61935  24.791  10.544  13.441  0.1602  0.1429 -0.2123
61072W        W61936  19.299   8.743   9.714  0.1713 -0.2160 -0.1070
61073W        W61937  23.269   9.865   9.586  0.0274 -0.3328 -0.3025
61074W        W61938  24.392  10.673   9.842 -0.0043 -0.1185 -0.1613
61075W        W61939  24.033  13.022   9.076 -0.0228  0.1593 -0.1224
61076W        W61940  22.050   8.597   6.224 -0.0994 -0.2377 -0.1312
61077W        W61941  23.608  14.172   5.384 -0.0846 -0.0983  0.0394
61078W        W61942  21.666   9.137  13.416  0.3133 -0.1486 -0.3949
61079W        W61943  23.549   9.981  11.294 -0.0618 -0.1786 -0.2422
61080W        W61944  23.457   9.541   9.303  0.1350  0.0359 -0.0625
61081W        W61945  24.690  11.546   7.208  0.1674 -0.0989  0.0714
61082W        W61946  25.614  12.550   8.465  0.0101  0.0835 -0.1481
61083W        W61947  20.817   5.644  10.977 -0.3379  0.2287 -0.2227
61084W        W61948  23.445   7.764  10.972  0.1412 -0.0094  0.0470
61085W        W61949  25.086  13.514   7.742 -0.0831  0.0736 -0.1081
61086W        W61950  23.616  11.988   7.516  0.0035 -0.0410  0.3695
61087W        W61951  20.466   8.170  10.501  0.1406 -0.2320  0.3128
61088W        W61952  22.009  11.464   7.785  0.0218  0.0052  0.0974
61089W        W61953  23.985   6.825   8.104  0.0100  0.3074  0.3561
61090W        W61954  25.098   6.497  10.843  0.0219  0.2438  0.0417
61091W        W61955  27.784   9.518   8.573  0.1553  0.1305 -0.0379
61092W        W61956  25.334  11.778   8.063 -0.2028 -0.3980 -0.1831
61093W        W61957  25.591  11.351   6.250 -0.2039  0.2379  0.0761
61094W        W61958  20.307   9.337   8.676  0.1858  0.2064 -0.4640
61095W        W61959  24.058   8.806  10.304  0.0809 -0.0200  0.1162
61096W        W61960  20.616   8.576  10.215  0.2180  0.0562  0.2707
61097W        W61961  23.397   8.251   8.697  0.0977 -0.2866  0.1336
61098W        W61962  21.753   7.183   6.479 -0.1328  0.0765  0.1699
61099W        W61963  25.935  10.126  11.721  0.1434  0.1204 -0.0940
61100W        W61964  24.162   9.135  11.081  0.0293 -0.1169 -0.2600
61101W        W61965  23.714  11.467   8.101  0.0980  0.0308  0.3603
61102W        W61966  20.422   8.495   9.185 -0.0628  0.1253  0.1342
61103W        W61967  20.624  10.381   9.658 -0.1249  0.2151 -0.0801
61104W        W61968  25.257  11.186  10.592 -0.0125  0.0039  0.1146
61105W        W61969  26.112   8.785  11.688 -0.1130  0.0315 -0.1325
61106W        W61970  22.064   7.729   8.782 -0.0649 -0.2241 -0.0824
61107W        W61971  20.526   6.665   6.628  0.1639 -0.3133  0.0049
61108W        W61972  21.777  11.178   5.290 -0.0988 -0.0431  0.2095
61109W        W61973  22.384   9.854   7.773 -0.3307  0.0578 -0.4006
61110W        W61974  20.802   6.008   9.536  0.3760  0.0906 -0.2438
61111W        W61975  25.027   9.749   8.982 -0.0287  0.0118  0.1166
61112W        W61976  26.131   8.811   7.617 -0.0234  0.0836 -0.1029
61113W        W61977  22.639   8.823  10.676 -0.0746 -0.2186 -0.0239
61114W        W61978  23.091   9.934   8.251  0.2342  0.0069  0.1962
61115W        W61979  25.872  12.759  11.794  0.4478 -0.1411 -0.0682
61116W        W61980  25.740   7.101  10.364  0.0787 -0.3178  0.1999
61117W        W61981  22.427  10.436   7.706  0.1191 -0.0369 -0.4786
61118W        W61982  24.157  10.847   9.378  0.2542 -0.3502  0.2045
61119W        W61983  21.298  10.121   6.967  0.0595  0.0098 -0.0695
61120W        W61984  23.111  11.016   6.685 -0.1306 -0.0346  0.0184
61121W        W61985  21.065   6.596  10.879 -0.4214 -0.1950  0.3398
61122W        W61986  25.604   9.736   7.805 -0.1362 -0.2801 -0.1008
61123W        W61987  24.393   9.004   9.431  0.0438  0.5000 -0.1556
61124W        W61988  22.810  13.395  11.511 -0.3917  0.2451  0.0161
61125W        W61989  25.132   9.361   8.630  0.3373 -0.3826  0.1123
61126W        W61990  23.832  10.204   9.001 -0.2116  0.0365 -0.0093
61127W        W61991  24.190   9.279   9.000 -0.2124  0.3020 -0.1275
61128W        W61992  22.785   9.789   9.822  0.0454  0.2156 -0.0028
61129W        W61993  22.120   7.500  10.219 -0.3201 -0.1213 -0.1110
61130W        W61994  25.991   9.482  11.876 -0.0307  0.0713 -0.4194
61131W        W61995  24.425   8.104   9.691  0.0846 -0.1905 -0.0254
61132W        W61996  23.064  11.937   9.320  0.0026 -0.0877  0.0194
61133W        W61997  22.517   5.891   8.179  0.3425 -0.3404  0.0909
61134W        W61998  23.553   8.336   7.152 -0.1389 -0.5265  0.1075
61135W        W61999  21.919   9.036   6.001  0.1364 -0.1185  0.0344
61136W        W62000  18.921   8.023   7.067  0.1558  0.0383  0.1645
61137W        W62001  22.361   9.312   8.130 -0.0118  0.0337 -0.1386
61138W        W62002  25.268   8.709  11.210  0.0346  0.2708 -0.0915
61139W        W62003  22.969   9.667   9.201  0.1954 -0.1119  0.1798
61140W        W62004  21.858   6.792   9.651  0.2342 -0.1044  0.1132
61141W        W62005  22.115   9.982   7.361  0.2375  0.0406  0.1329
61142W        W62006  21.296   8.683   6.880  0.3654 -0.1867  0.2855
61143W        W62007  24.017   7.853  10.022  0.0127 -0.0702 -0.0476
61144W        W62008  24.521   5.267   4.977 -0.1837  0.0212 -0.0040
61145W        W62009  25.664   8.768   9.842  0.0349 -0.1392 -0.1863
61146W        W62010  20.686   8.880   9.785 -0.2614 -0.0024  0.0416
61147W        W62011  22.245   9.738   6.835  0.4007  0.0336  0.2398
61148W        W62012  23.334  11.497   8.990 -0.3642 -0.1448  0.0227
61149W        W62013  22.124   9.057   7.338 -0.1299  0.2444  0.4089
61150W        W62014  25.793   8.518  10.258  0.0462  0.4405 -0.2239
61151W        W62015  27.188   8.531  10.570  0.0757 -0.1024 -0.3163
61152W        W62016  21.366  10.195   8.600  0.2230 -0.1947 -0.2613
61153W        W62017  22.616   9.909   8.932  0.1795  0.4370  0.2755
61154W        W62018  23.077   8.538  10.612 -0.0410 -0.0594  0.1818
61155W        W62019  21.015  10.103   9.687  0.0780 -0.1141  0.0426
61156W        W62020  24.713   8.975   9.931  0.1286  0.1694  0.1044
61157W        W62021  22.942   9.664   5.156 -0.1705  0.0746  0.3582
61158W        W62022  23.720  11.055  12.215  0.0803  0.0679  0.0073
61159W        W62023  23.636   9.661  14.481 -0.0035  0.0249 -0.2614
61160W        W62024  23.608   9.525   7.386  0.0335  0.2118 -0.1387
61161W        W62025  25.695   8.417   7.727  0.0032  0.2339  0.1885
61162W        W62026  22.650  10.772   9.409  0.0032  0.0045 -0.2019
61163W        W62027  19.363   6.266   9.531 -0.0786  0.1494  0.2390
61164W        W62028  24.247   8.704   9.796  0.2164 -0.0701  0.0573
61165W        W62029  24.818   7.148   7.508 -0.1522 -0.0307  0.0056
61166W        W62030  24.625  11.085  10.109 -0.1799  0.0462  0.0225
61167W        W62031  19.715  10.498   8.307 -0.3324 -0.0194  0.1138
61168W        W62032  20.912   9.424  10.566 -0.1706 -0.0669  0.2320
61169W        W62033  24.549   8.948   6.017  0.3058  0.0490  0.2421
61170W        W62034  24.059  10.002   8.588 -0.0827 -0.0869 -0.0260
61171W        W62035  25.643   9.424  10.566 -0.0828 -0.0668 -0.0360
61172W        W62036  22.815   9.247   7.199  0.0673  0.2076 -0.0002
61173W        W62037  24.646  10.595  10.749 -0.0550  0.1570  0.0072
61174W        W62038  23.240  11.228   7.198  0.1955  0.1336 -0.2256
61175W        W62039  23.221  11.933   9.915 -0.0896  0.0769 -0.1220
61176W        W62040  23.163  10.305  11.179  0.0321 -0.0145  0.2616
61177W        W62041  21.556   9.507   7.774  0.0015 -0.1533  0.0057
61178W        W62042  22.666  10.182   8.465 -0.2952 -0.3526  0.1598
61179W        W62043  21.432   8.527   8.767 -0.1368  0.2700 -0.0049
61180W        W62044  21.879   7.540   8.337 -0.1511 -0.0921 -0.0272
61181W        W62045  22.787   9.916   6.485 -0.1170 -0.0349  0.1647
61182W        W62046  22.814   9.793   7.497  0.0120  0.3660  0.2427
61183W        W62047  24.789   5.256  14.073 -0.1922  0.0661 -0.2413
61184W        W62048  25.151   8.049   8.834 -0.0596 -0.0717  0.3507
61185W        W62049  25.216  10.799  12.344  0.0973  0.0621  0.0534
61186W        W62050  24.066  12.392   8.057 -0.0112  0.0072  0.1708
61187W        W62051  28.128  11.289   6.075  0.0409 -0.2332 -0.0265
61188W        W62052  25.519   8.624  12.097 -0.4155 -0.1718 -0.1380
61189W        W62053  22.174  12.256   9.211  0.0355  0.1559 -0.0369
61190W        W62054  23.787  10.484   8.568 -0.0988  0.0513  0.0556
61191W        W62055  24.410   9.940   6.881 -0.0997  0.1026 -0.1702
61192W        W62056  22.255   7.369  11.275 -0.1701 -0.1258  0.1566
61193W        W62057  19.881   7.933   8.610 -0.0734 -0.0875 -0.1923
61194W        W62058  24.064   8.083  11.631 -0.0268 -0.2432 -0.1277
61195W        W62059  24.636   8.532   9.391  0.3965  0.2146  0.0065
61196W        W62060  21.841  12.291   6.170  0.0067 -0.1744  0.0891
61197W        W62061  22.549  10.435   6.303 -0.1674  0.2292  0.2095
61198W        W62062  23.771  12.002  10.613 -0.1136 -0.2074 -0.1162
61199W        W62063  20.581  11.093   6.345 -0.1315  0.0732 -0.1691
61200W        W62064  20.727   9.595   8.876 -0.2512  0.1647 -0.1183
61201W        W62065  21.828   9.242   8.133 -0.1145 -0.3047 -0.3173
61202W        W62066  21.580   5.560   8.078  0.2592 -0.0642 -0.0750
61203W        W62067  26.823  10.220  12.160  0.2537 -0.2975  0.0600
61204W        W62068  24.500   7.705   8.870 -0.2008 -0.1231  0.0052
61205W        W62069  25.155   7.282  10.386 -0.0468  0.1614  0.2955
61206W        W62070  24.871   9.021  10.379  0.0555  0.2012  0.4544
61207W        W62071  22.926  14.397   9.569  0.3901  0.2777  0.0737
61208W        W62072  23.456   8.557   8.320  0.3912 -0.0673 -0.1472
61209W        W62073  23.768  11.018   7.825 -0.2182 -0.2207 -0.2845
61210W        W62074  21.693   6.266   9.764  0.0239  0.2040  0.1038
61211W        W62075  22.692   7.811  10.674 -0.0790  0.1709 -0.1066
61212W        W62076  20.943   7.421   8.025  0.1265 -0.0912 -0.0220
61213W        W62077  23.186   8.724   6.579  0.3914  0.1851  0.3141
61214W        W62078  23.640   9.540   9.787  0.0956 -0.3381 -0.1966
61215W        W62079  22.724  10.099  10.272  0.0100 -0.1449  0.1564
61216W        W62080  22.115   9.458   7.651  0.1072  0.1203 -0.0082
61217W        W62081  23.574   9.010   6.432  0.2870 -0.2939 -0.2223
61218W        W62082  24.436  11.590  10.481  0.4639 -0.1527 -0.0214
61219W        W62083  24.458  13.345   9.054 -0.0124  0.2372  0.0652
61220W        W62084  23.638  12.783   6.533 -0.0297 -0.3553  0.0418
61221W        W62085  25.127   6.421   7.954 -0.0315  0.1835  0.2592
61222W        W62086  25.542   8.821   8.354 -0.0507 -0.0014 -0.3874
61223W        W62087  22.206   8.616   6.976  0.4742  0.1161 -0.0724
61224W        W62088  27.756   6.873  10.282 -0.0662 -0.1362  0.3039
61225W        W62089  22.942  10.789   6.254 -0.2923  0.2542  0.2964
61226W        W62090  24.335  11.763  11.921  0.2722  0.0539  0.0085
61227W        W62091  22.840  10.472   5.856  0.3880 -0.4635 -0.0159
61228W        W62092  24.560   8.061  10.195 -0.0156 -0.1614 -0.0620
61229W        W62093  24.768   9.338   9.610 -0.1482  0.3250 -0.1715
61230W        W62094  21.309  12.376  10.069 -0.1741  0.2764  0.3605
61231W        W62095  23.392   9.390  10.603  0.2111  0.0172 -0.0834
61232W        W62096  19.770   8.757   9.433  0.4613 -0.1204 -0.0051
61233W        W62097  25.957  10.348  10.724  0.3554 -0.5721  0.1183
61234W        W62098  22.339  10.281   5.815 -0.1895  0.0893  0.1456
61235W        W62099  21.854   8.159   9.994 -0.1652 -0.1004 -0.2553
61236W        W62100  24.658  11.396   9.174 -0.0095 -0.1134  0.0810
61237W        W62101  25.865  11.172  11.750 -0.3246 -0.2701  0.0862
61238W        W62102  26.836   8.880  10.715  0.0038  0.0730  0.2800
61239W        W62103  24.567  10.968   8.516 -0.0795  0.0959  0.2102
61240W        W62104  21.886  11.355  11.555  0.0766 -0.0646  0.0203
61241W        W62105  24.110   8.346   6.528 -0.1274  0.0446  0.1190
61242W        W62106  24.329   8.806  10.768  0.3753  0.0124  0.1138
61243W        W62107  22.389   9.662  10.204  0.1814  0.0079 -0.0691
61244W        W62108  21.745   8.943   6.962  0.1188 -0.0916  0.0903
61245W        W62109  25.545  13.641   9.212 -0.1633 -0.0768 -0.2343
61246W        W62110  23.625  12.536   7.371 -0.2104  0.3157 -0.0549
61247W        W62111  23.088  10.307   7.152  0.2545  0.2226  0.3627
61248W        W62112  23.097   8.893  11.896  0.3139 -0.0983 -0.1949
61249W        W62113  24.428  12.789   8.876 -0.1694  0.2403 -0.1670
61250W        W62114  23.326   7.902  11.492  0.0219 -0.0126 -0.0642
61251W        W62115  20.622   9.693   7.568  0.2069 -0.3239  0.1601
61252W        W62116  21.796   9.415   7.255 -0.0731  0.1177 -0.0369
61253W        W62117  22.619   9.163  13.730 -0.0954  0.0657  0.0906
61254W        W62118  22.825   7.950  11.568  0.0022 -0.1222 -0.0501
61255W        W62119  25.105   9.187  11.257 -0.0372 -0.1909 -0.0050
61256W        W62120  24.967  10.036  13.354 -0.1806 -0.0692  0.0420
61257W        W62121  23.114   9.561  12.439  0.1686  0.0329  0.2004
61258W        W62122  22.275   7.875  13.003  0.1651 -0.2446  0.1393
61259W        W62123  21.957   9.479  12.732  0.2685  0.2309 -0.0594
61260W        W62124  22.680   9.747  11.650  0.0556  0.1092  0.0977
61261W        W62125  25.237  10.863  15.628 -0.0221 -0.0582  0.0682
61262W        W62126  23.025   6.945  14.709 -0.0647 -0.2397  0.0064
61263W        W62127  23.645   6.330  16.407 -0.1490  0.1048 -0.3094
61264W        W62128  24.762   7.399  14.453  0.3321 -0.3401  0.1415
61265W        W62129  22.984   7.595  11.204 -0.0907 -0.0478 -0.2225
61266W        W62130  23.529   8.768  14.677 -0.0614  0.0791 -0.0693
61267W        W62131  24.990   9.779  13.805  0.0373  0.0992  0.3290
61268W        W62132  22.695  10.302  12.916  0.0606 -0.2883 -0.1592
61269W        W62133  19.736  11.409  11.895 -0.2381  0.0591 -0.2267
61270W        W62134  20.763  10.159  14.252 -0.1396  0.0571  0.1220
61271W        W62135  21.603   4.406  16.878 -0.0114 -0.1693 -0.2480
61272W        W62136  26.595   7.994  12.726  0.1263  0.1609 -0.0906
61273W        W62137  25.237   6.775  12.329 -0.1083  0.0904 -0.0108
61274W        W62138  21.724  10.247  12.373  0.0588 -0.0414  0.1396
61275W        W62139  24.426   9.017  12.986  0.1042 -0.0691 -0.2069
61276W        W62140  19.801   9.673  11.691  0.0111  0.1841 -0.2002
61277W        W62141  20.657   8.103  13.031  0.2784 -0.0426 -0.1421
61278W        W62142  21.257   6.999  12.318 -0.0558  0.2100  0.2952
61279W        W62143  23.756   8.553  16.408 -0.0116 -0.2239 -0.1047
61280W        W62144  23.437  11.794  16.347 -0.0411 -0.1031 -0.1616
61281W        W62145  23.565   7.945  15.193  0.2983 -0.2814  0.1416
61282W        W62146  20.021  10.478  14.880  0.0721  0.0963 -0.1026
61283W        W62147  22.722   9.409  12.089 -0.1254 -0.0924  0.2940
61284W        W62148  23.044  11.499  13.415  0.1611 -0.1720 -0.1615
61285W        W62149  20.372  10.497  14.131 -0.1417  0.2458 -0.2294
61286W        W62150  25.032   9.886  11.905  0.0702 -0.3222 -0.1630
61287W        W62151  24.935   7.080  15.343  0.0763  0.1009  0.0059
61288W        W62152  24.720  11.445  12.940  0.1050 -0.0199  0.2998
61289W        W62153  22.746   6.995  11.946 -0.0852  0.0855  0.0493
61290W        W62154  24.580   6.568  13.741  0.0404 -0.2916  0.0439
61291W        W62155  24.986  10.284  13.911 -0.0127  0.0665  0.0048
61292W        W62156  23.565   6.763  13.867  0.1104 -0.0055 -0.2265
61293W        W62157  25.175   8.250  10.988  0.0640 -0.1597  0.0541
61294W        W62158  27.095   9.180  15.101  0.1045  0.0621 -0.0215
61295W        W62159  23.643  11.902  12.646 -0.1338  0.2082 -0.2976
61296W        W62160  24.124   8.549  11.173  0.1387  0.3192  0.2333
61297W        W62161  22.807   9.271   9.464  0.5882 -0.2925 -0.0792
61298W        W62162  22.090  12.230  11.417 -0.0302 -0.2677 -0.1378
61299W        W62163  22.951   5.889  14.428  0.2639  0.3683  0.2382
61300W        W62164  25.166   8.037  15.005  0.0040 -0.1080  0.0626
61301W        W62165  22.221  10.245  12.106  0.0648 -0.3078 -0.2543
61302W        W62166  24.674   5.822  12.071 -0.1237  0.3408 -0.0820
61303W        W62167  21.802  10.549  11.956  0.1862 -0.3122 -0.0382
61304W        W62168  22.813  11.152  10.897  0.0870  0.1780 -0.2452
61305W        W62169  22.924   8.759  11.113 -0.1852  0.0406  0.2753
61306W        W62170  25.079  10.083  14.835  0.0285 -0.1503 -0.0562
61307W        W62171  23.791   8.872  12.510  0.1662  0.1033  0.1711
61308W        W62172  24.530  13.610  10.359 -0.1161  0.0380  0.2460
61309W        W62173  20.679   6.664  11.885 -0.0755 -0.1812 -0.2645
61310W        W62174  23.808   8.282  12.452 -0.1279  0.1827 -0.0920
61311W        W62175  22.901   9.080  12.424 -0.0273 -0.0904  0.1518
61312W        W62176  23.892  12.382   9.805 -0.0805  0.4913  0.1272
61313W        W62177  26.038   8.239  13.241  0.2380 -0.1158 -0.3670
61314W        W62178  20.097   9.431  12.807  0.1143  0.0275  0.0993
61315W        W62179  23.751   9.546  13.155  0.2537  0.1401  0.1041
61316W        W62180  22.090   8.060  12.141 -0.2808 -0.1885 -0.0072
61317W        W62181  25.099   7.402  11.020  0.1741 -0.3651 -0.0538
61318W        W62182  24.392   5.205  15.247 -0.1279 -0.1770 -0.3540
61319W        W62183  23.721  11.137  10.381 -0.0951  0.4345 -0.0071
61320W        W62184  22.577   5.213  13.831 -0.3870 -0.0024 -0.1206
61321W        W62185  21.222  10.400  13.672 -0.2622  0.2447  0.0046
61322W        W62186  23.798   7.773  13.195  0.0965  0.2113  0.0753
61323W        W62187  25.281  10.085  14.333 -0.2548  0.2300  0.0414
61324W        W62188  23.666   9.229   8.897  0.0586 -0.4419  0.0446
61325W        W62189  22.852  11.020   9.830 -0.1936  0.0045 -0.1451
61326W        W62190  24.212   8.758  13.813  0.0849 -0.0240  0.0186
61327W        W62191  24.347   9.995   9.319  0.1895 -0.0278  0.1189
61328W        W62192  23.213  11.468  13.879  0.0904 -0.1650 -0.1888
61329W        W62193  22.674   6.774  12.475  0.0129  0.0119 -0.3745
61330W        W62194  21.962   9.649  10.675  0.0060 -0.0425  0.0572
61331W        W62195  24.133  12.904  12.588  0.0130 -0.0793  0.1089
61332W        W62196  24.367  11.179  13.092  0.1376 -0.2301  0.0682
61333W        W62197  21.060   7.456  13.473 -0.1481  0.0831 -0.2074
61334W        W62198  18.042   6.770  14.690 -0.2637  0.2623  0.1470
61335W        W62199  23.788   6.357  12.118  0.0744  0.1020  0.0659
61336W        W62200  22.593   7.289  12.421 -0.1045 -0.1281  0.0374
61337W        W62201  20.957   7.871  14.449 -0.0320 -0.3264  0.1019
61338W        W62202  24.864  11.149  12.106  0.2716  0.0112 -0.0847
61339W        W62203  27.221   9.906  13.892  0.0656 -0.1476  0.1409
61340W        W62204  23.812   8.205  14.463 -0.0980 -0.1939  0.0366
61341W        W62205  24.987  11.943  14.815  0.1361 -0.2503  0.1914
61342W        W62206  24.598  10.409  16.204  0.0047 -0.0175 -0.4973
61343W        W62207  23.270   9.140  11.361 -0.0297  0.1206 -0.1953
61344W        W62208  21.622   7.663  12.354 -0.0239  0.0149 -0.0629
61345W        W62209  20.821  10.859  11.065  0.0796  0.0316  0.0418
61346W        W62210  22.472   6.595  10.323 -0.0328 -0.0797  0.1231
61347W        W62211  20.603   7.668  12.744 -0.1089  0.3786 -0.2186
61348W        W62212  23.006   8.052  12.846  0.1211  0.0360  0.0101
61349W        W62213  25.783   9.190  11.363 -0.0757  0.1787 -0.0424
61350W        W62214  21.056  11.050  14.880  0.1945  0.0299 -0.1577
61351W        W62215  22.472   7.860  11.174 -0.0856 -0.1617  0.0233
61352W        W62216  23.082   7.880  11.992  0.1500  0.0077 -0.1048
61353W        W62217  26.768   8.465  11.473  0.1943 -0.4352  0.3174
61354W        W62218  24.313   7.558  12.407 -0.0157  0.1272  0.0346
61355W        W62219  22.973   8.006   9.639  0.1349  0.0088  0.2491
61356W        W62220  25.846  11.377  13.151  0.0888 -0.5177 -0.0770
61357W        W62221  24.102   5.400  13.218 -0.4386 -0.2258 -0.0886
61358W        W62222  22.572   7.602  13.730  0.0949 -0.1200 -0.0723
61359W        W62223  26.491   9.485  11.887 -0.2338 -0.1404  0.0576
61360W        W62224  23.999  11.960  13.757 -0.1734 -0.3113 -0.0106
61361W        W62225  23.365   5.596  11.473  0.0537 -0.0812  0.1106
61362W        W62226  21.056   6.807  10.418 -0.0395 -0.2842  0.1288
61363W        W62227  22.121   9.300  13.298 -0.0104  0.0700  0.1790
61364W        W62228  24.947   9.173  12.788 -0.0322  0.0850  0.1072
61365W        W62229  26.734   6.508  12.267  0.0013  0.0298 -0.2280
61366W        W62230  23.088  10.301  16.533 -0.2242  0.1924 -0.1204
61367W        W62231  25.512   8.537  10.781  0.3225 -0.1486  0.0097
61368W        W62232  23.286   8.247  12.432 -0.1826  0.0948  0.0803
61369W        W62233  23.116   8.759  13.878 -0.2015  0.3928 -0.2445
61370W        W62234  24.669   9.589  13.388  0.2992 -0.1512 -0.1233
61371W        W62235  21.693   8.168  11.129  0.0861  0.2853  0.1040
61372W        W62236  25.314   9.915  11.490  0.0257 -0.0301  0.2776
61373W        W62237  21.925   9.419   9.791 -0.0912  0.1537  0.2306
61374W        W62238  23.869  10.820  11.749 -0.3316  0.1084 -0.2225
61375W        W62239  26.813  12.022  12.101  0.1309 -0.0656 -0.2701
61376W        W62240  26.625   7.382  13.349 -0.2756 -0.1875 -0.0821
61377W        W62241  22.022  10.706  12.359 -0.1853  0.1087  0.1699
61378W        W62242  24.693  10.788  11.459 -0.0046  0.0643  0.1649
61379W        W62243  20.813  11.274  10.347 -0.1719 -0.1602 -0.4947
61380W        W62244  24.587   9.487  12.848 -0.1022 -0.1154  0.0826
61381W        W62245  26.516   8.164  15.488  0.0853  0.1800  0.2804
61382W        W62246  23.063  10.032  11.693 -0.1513 -0.0226 -0.0041
61383W        W62247  26.569  13.114  12.830  0.0712 -0.1489 -0.0231
61384W        W62248  22.601  10.282  11.715 -0.0687  0.2511 -0.2729
61385W        W62249  23.639  13.768  10.961  0.1063  0.1793 -0.0406
61386W        W62250  24.733   8.804  11.428  0.0932 -0.2810  0.1264
61387W        W62251  25.848   7.017  14.361  0.1718  0.0259 -0.1189
61388W        W62252  20.264   9.055   9.972  0.3145 -0.1271 -0.2348
61389W        W62253  24.555   8.331  13.693  0.2634  0.1553 -0.1915
61390W        W62254  24.953   5.717  13.442 -0.3286 -0.3446 -0.0256
61391W        W62255  23.301  13.212  12.861  0.0589  0.2008  0.0650
61392W        W62256  23.848   8.641  10.729 -0.0027  0.0771 -0.0892
61393W        W62257  22.966   8.633   8.285 -0.0373 -0.2143  0.2267
61394W        W62258  22.625   5.208  12.887 -0.1979 -0.1244 -0.0006
61395W        W62259  23.908  13.278  12.072 -0.0887 -0.0763  0.0922
61396W        W62260  22.586  10.424   8.956  0.2088 -0.0150  0.0976
61397W        W62261  26.866   9.636  13.023  0.2717 -0.1835  0.0665
61398W        W62262  24.293  10.280  10.470  0.0820  0.0566  0.2129
61399W        W62263  26.525   7.672  11.233 -0.0909 -0.1181 -0.1887
61400W        W62264  21.389   9.688   9.885  0.2594 -0.2571 -0.2631
61401W        W62265  20.177   9.653  14.094 -0.1205  0.0484  0.0264
61402W        W62266  25.324   9.348  12.074 -0.2173  0.2502 -0.0791
61403W        W62267  22.474   6.599  13.777 -0.2576 -0.0506 -0.1308
61404W        W62268  21.298   7.102  10.813 -0.0828 -0.0853  0.1684
61405W        W62269  23.153   8.379  11.919 -0.3431 -0.2250 -0.2232
61406W        W62270  23.627   8.232  11.810  0.0749 -0.0740  0.0775
61407W        W62271  23.549   7.895  14.680  0.0485 -0.0284  0.1715
61408W        W62272  24.184   6.162  13.126 -0.1976  0.2242 -0.0640
61409W        W62273  22.557  11.561  13.622  0.4139  0.0854 -0.0345
61410W        W62274  22.212   8.629   5.743 -0.1214  0.0425 -0.0078
61411W        W62275  21.805   6.054  11.393  0.0023  0.1748 -0.1699
61412W        W62276  24.029   7.884  12.174 -0.0073  0.0287 -0.1311
61413W        W62277  23.117   7.906  14.400 -0.1986 -0.3080  0.1761
61414W        W62278  24.968  11.650  11.960  0.4104 -0.2012  0.1411
61415W        W62279  22.438   8.244  12.678  0.0803 -0.1402  0.1847
61416W        W62280  21.544  11.552  12.575 -0.0338 -0.3179 -0.2794
61417W        W62281  27.002   7.512  14.998  0.2461  0.3304  0.1797
61418W        W62282  24.501   9.128  13.575  0.1074 -0.1834 -0.2483
61419W        W62283  25.101   4.013  13.479 -0.1006  0.5576  0.1301
61420W        W62284  21.330  13.073  12.544 -0.0967 -0.1800 -0.0471
61421W        W62285  25.270  11.607  14.537  0.3129 -0.2766  0.0503
61422W        W62286  22.483   9.112  10.213 -0.0126 -0.0471 -0.0325
61423W        W62287  26.842   8.511  13.527 -0.0285 -0.0714 -0.0139
61424W        W62288  24.865   6.573  14.195  0.1185 -0.0577  0.0065
61425W        W62289  24.939   9.423  11.706  0.1470  0.1952 -0.1170
61426W        W62290  22.280  11.724  11.653  0.1922 -0.1233  0.1488
61427W        W62291  24.605   7.137  10.168 -0.2490 -0.2371  0.1338
61428W        W62292  24.748   7.799  11.096 -0.4651 -0.0293  0.1015
61429W        W62293  23.672  11.146  11.298  0.0684  0.1959 -0.3060
61430W        W62294  20.610   9.502  13.004  0.1161 -0.0953  0.0166
61431W        W62295  22.177  10.734   9.105 -0.2199 -0.0110 -0.1859
61432W        W62296  23.638   8.960  13.047  0.2327  0.1593  0.1079
61433W        W62297  23.927   8.613  11.676 -0.0902 -0.3540  0.0669
61434W        W62298  27.164  10.605  11.993  0.3638  0.4611 -0.1449
61435W        W62299  24.439   9.676   9.697  0.0080 -0.0378  0.3352
61436W        W62300  22.315   7.801  11.618 -0.1523  0.2904 -0.1595
61437W        W62301  23.185   8.370  11.327 -0.1461 -0.3095  0.2901
61438W        W62302  22.652  12.674  12.183  0.0113  0.1292  0.1283
61439W        W62303  22.451   8.489   8.543  0.0753  0.2299  0.3819
61440W        W62304  21.121   7.880  12.419 -0.4394 -0.1212 -0.1365
61441W        W62305  23.826  12.448  12.721 -0.2175 -0.0307 -0.4104
61442W        W62306  20.972   8.692  12.525 -0.1069 -0.0442 -0.1467
61443W        W62307  22.440   9.038  11.047 -0.0421  0.0156  0.0027
61444W        W62308  20.828  13.527   9.210 -0.1702  0.1744  0.1006
61445W        W62309  22.010   8.930  11.789  0.3929 -0.3510  0.0492
61446W        W62310  24.588   6.558  13.220  0.4198  0.0486 -0.1005
61447W        W62311  22.477   8.785  14.761  0.0034 -0.0101 -0.1718
61448W        W62312  24.656   7.484  11.584  0.0308 -0.0655 -0.0050
61449W        W62313  22.944   5.836  11.319  0.4058 -0.0267 -0.0057
61450W        W62314  20.741   5.391  12.239  0.0847  0.4696 -0.0341
61451W        W62315  22.176   5.499  10.977  0.0276 -0.1950  0.3811
61452W        W62316  22.235   6.365  11.368 -0.0365 -0.0154 -0.1836
61453W        W62317  23.094   9.026  10.371 -0.0597 -0.0376  0.1087
61454W        W62318  24.180   8.533  12.633 -0.3311 -0.0133  0.1569
61455W        W62319  26.035  10.590  13.046  0.0453  0.1667  0.0675
61456W        W62320  22.366   7.341  14.168  0.0835 -0.0559  0.0292
61457W        W62321  22.288   6.911  12.267 -0.0847  0.1020 -0.1376
61458W        W62322  21.035   5.986  12.065  0.4014  0.4297  0.3143
61459W        W62323  22.137   8.269  11.310 -0.0578 -0.0130 -0.2376
61460W        W62324  24.932   8.421  13.310  0.0285 -0.0554 -0.2846
61461W        W62325  23.046  10.707  12.959  0.0301 -0.0288  0.0755
61462W        W62326  19.755  10.738   7.312 -0.0852 -0.2204 -0.0179
61463W        W62327  25.094  12.567  15.612 -0.0453 -0.3723  0.3194
61464W        W62328  20.359   7.663  13.605 -0.0163  0.1258 -0.0281
61465W        W62329  23.158   5.414  15.216 -0.1641 -0.1073 -0.2407
61466W        W62330  22.626   9.350  13.223  0.1409 -0.1625 -0.2786
61467W        W62331  26.356  10.726  15.004 -0.1324  0.0733 -0.1394
61468W        W62332  25.447   9.579  11.063 -0.0718 -0.1316 -0.2827
61469W        W62333  24.278   8.361  10.618 -0.1234 -0.1318  0.0789
61470W        W62334  27.175  11.312  10.688  0.0477 -0.3184 -0.0780
61471W        W62335  23.710   7.049  14.278 -0.2797 -0.2476 -0.4675
61472W        W62336  21.846   7.177  10.440 -0.0718  0.1069  0.2083
61473W        W62337  24.008   8.281  14.005 -0.0821  0.1671  0.0666
61474W        W62338  24.002  11.047  14.610 -0.2157 -0.0538 -0.0154
61475W        W62339  21.784  12.071  14.449 -0.2814  0.0638  0.1568
61476W        W62340  21.949   7.727  11.262  0.1690  0.0432  0.2142
61477W        W62341  24.482   7.217   8.893 -0.2063  0.0855  0.0097
61478W        W62342  19.330  10.190  14.017  0.0882 -0.0104  0.0500
61479W        W62343  21.609  11.071  13.043  0.0725  0.0045  0.0117
61480W        W62344  24.169   6.064  14.388 -0.0931  0.0021  0.0254
61481W        W62345  24.189  11.265   7.973 -0.0813  0.0033 -0.3337
61482W        W62346  24.216   7.181  14.322  0.1450 -0.0086  0.1780
61483W        W62347  26.233   6.434  14.450  0.2592  0.3014 -0.1836
61484W        W62348  21.565   9.143  12.887 -0.0046  0.0326 -0.0762
61485W        W62349  19.626   9.044  12.839  0.3074 -0.0050  0.5135
61486W        W62350  21.995  11.046  10.593 -0.2569  0.0053 -0.2387
61487W        W62351  22.325   7.283  11.739 -0.1403  0.2221  0.1157
61488W        W62352  24.315   8.119  11.232 -0.3134 -0.0614 -0.1382
61489W        W62353  25.434  12.054  12.615 -0.1263 -0.1557  0.4480
61490W        W62354  24.111   5.949  17.118 -0.2696  0.0692 -0.0572
61491W        W62355  22.192  11.344  14.499 -0.2046  0.0266  0.0572
61492W        W62356  23.925   9.306  12.230 -0.0301  0.4402 -0.0282
61493W        W62357  24.058  11.891  12.347 -0.0878 -0.3760 -0.1337
61494W        W62358  22.905  11.070  13.771  0.0215  0.4845 -0.0165
61495W        W62359  20.673  10.000  11.036  0.2058 -0.2684 -0.3632
61496W        W62360  23.213   6.359  13.450  0.0219  0.1620 -0.1744
61497W        W62361  21.530   9.062  11.868 -0.1973 -0.3516 -0.0866
61498W        W62362  23.998   9.459  11.778 -0.2427  0.0641 -0.0097
61499W        W62363  25.024   8.136  12.726  0.0828 -0.0136 -0.0276
61500W        W62364  22.116   8.948  14.254 -0.3073 -0.0582 -0.0187
61501W        W62365  25.032   7.881  13.178 -0.0885 -0.0564 -0.0185
61502W        W62366  23.548   7.760  11.902 -0.0245 -0.0011  0.2342
61503W        W62367  21.854   9.920  11.913 -0.1458  0.0699  0.1908
61504W        W62368  22.227  14.181  14.861 -0.2654  0.1546  0.2501
61505W        W62369  23.841  12.525  11.845 -0.1318 -0.1767  0.1566
61506W        W62370  25.441   8.303  14.136  0.0159  0.1222 -0.0666
61507W        W62371  24.888   7.717  10.251  0.0740  0.3199 -0.0188
61508W        W62372  21.528  12.476  13.347 -0.1704 -0.0624  0.5240
61509W        W62373  25.587   6.625  10.994  0.2751 -0.1963 -0.0228
61510W        W62374  21.738   7.602  14.581  0.0624 -0.2087  0.0866
61511W        W62375  23.289   9.754  12.920  0.2403 -0.2788 -0.3094
61512W        W62376  26.594   8.915  13.137 -0.1181  0.1897 -0.0684
61513W        W62377  22.734   6.327  13.247 -0.1722 -0.2665 -0.0255
61514W        W62378  23.479   6.710  16.033  0.0766 -0.3168  0.1083
61515W        W62379  21.894  11.082  10.087 -0.0255  0.1147 -0.0610
61516W        W62380  22.426   6.648  12.909 -0.2412  0.0092 -0.1498
61517W        W62381  24.710   9.650  12.273  0.2424  0.0747  0.2481
61518W        W62382  20.050  12.812  15.599 -0.0446  0.2550  0.0565
61519W        W62383  20.237  10.138  10.990  0.2491  0.1454  0.3501
61520W        W62384  24.225   9.418  13.178 -0.3577 -0.1166  0.2574
61521W        W62385  25.958   7.354  13.183  0.0913  0.0638  0.0802
61522W        W62386  24.316   7.651  12.953 -0.0837 -0.0904 -0.2476
61523W        W62387  23.302  11.240  12.063 -0.2058 -0.3584 -0.1630
61524W        W62388  26.735   7.888  14.784 -0.0465 -0.0515  0.0808
61525W        W62389  24.196   9.943  13.338 -0.2225  0.1297 -0.0705
61526W        W62390  22.276   9.100  15.608 -0.1835  0.1350  0.2601
61527W        W62391  24.010   9.846  12.921 -0.1805 -0.0071 -0.0312
61528W        W62392  23.903   7.645  14.484 -0.4608 -0.2631  0.0672
61529W        W62393  21.547   8.671  12.686 -0.1628  0.2387  0.1799
61530W        W62394  22.401   8.935  13.046 -0.0821 -0.2080  0.4400
61531W        W62395  23.544   9.509  11.612 -0.0576 -0.1203 -0.0285
61532W        W62396  22.458   9.997  14.067 -0.1097 -0.0737  0.1243
61533W        W62397  24.403   7.797  15.516  0.0587  0.2688 -0.1145
61534W        W62398  24.179   8.328  10.100  0.1874 -0.0863  0.1795
61535W        W62399  24.405   8.620  13.334  0.0380 -0.0495  0.0557
61536W        W62400  22.609  13.812  13.475  0.0390 -0.1224 -0.1395
61537W        W62401  24.477   9.924  11.331  0.0257  0.0195  0.0321
61538W        W62402  24.367   6.533  14.295  0.2884 -0.0621 -0.1661
61539W        W62403  22.706  10.477   9.765 -0.0149  0.0384  0.1612
61540W        W62404  22.049   7.072  13.892  0.0672  0.1095  0.2957
61541W        W62405  24.572   8.448  12.921 -0.1129 -0.0189 -0.0306
61542W        W62406  25.891   6.928  13.418 -0.1919 -0.0960 -0.0103
61543W        W62407  23.564  10.419  10.903 -0.0110  0.0010  0.0459
61544W        W62408  24.532   8.510   8.503 -0.4714 -0.2635 -0.1001
61545W        W62409  23.318   8.755  12.554 -0.1461  0.3184  0.1462
61546W        W62410  22.176   8.042  10.835 -0.1617  0.0802  0.1700
61547W        W62411  22.188  13.403  10.804 -0.0923  0.1266  0.3300
61548W        W62412  24.284   7.032  13.141 -0.2845  0.0595  0.0614
61549W        W62413  23.026   9.765  11.225  0.4004  0.0929  0.0754
61550W        W62414  24.803  10.148  12.460 -0.0252  0.2012  0.0098
61551W        W62415  25.037   8.186  13.805 -0.1602  0.1987 -0.0727
61552W        W62416  22.282   9.539  13.822  0.0610 -0.2834  0.2379
61553W        W62417  20.575  10.273  12.071  0.0669 -0.2714 -0.5091
61554W        W62418  22.469   3.608  14.975  0.0987 -0.1312 -0.0883
61555W        W62419  23.520   8.002  12.823 -0.0497 -0.1448 -0.2470
61556W        W62420  26.359   7.810  13.194  0.0814  0.0451  0.0417
61557W        W62421  23.316  10.150  10.365  0.4636  0.3183  0.0174
61558W        W62422  25.738  11.856  12.951  0.1479 -0.2970 -0.2104
61559W        W62423  22.827  10.610  13.412  0.1431 -0.2279 -0.0553
61560W        W62424  22.161   7.071  12.728  0.2774 -0.3115 -0.0798
61561W        W62425  26.539   7.822  10.193  0.1003  0.1709  0.2360
61562W        W62426  21.613   9.872  11.359  0.0505 -0.1940  0.1335
61563W        W62427  23.806   5.810  13.050 -0.0215 -0.0490  0.3327
61564W        W62428  21.563   9.546  10.911 -0.1194 -0.0370 -0.2153
61565W        W62429  25.323   6.218  12.981 -0.1035 -0.0793 -0.0259
61566W        W62430  24.503  12.184  12.575  0.0525 -0.1300  0.2411
61567W        W62431  21.627   9.977  15.592 -0.0837 -0.2047 -0.1700
61568W        W62432  24.164  11.409  12.263  0.1957 -0.1989  0.2627
61569W        W62433  24.092  10.712  12.350  0.0894  0.1550 -0.0685
61570W        W62434  22.168   9.812  11.542  0.2723  0.0613 -0.3597
61571W        W62435  25.745  11.470  14.587  0.0853  0.2679  0.2227
61572W        W62436  23.407   8.697  11.551 -0.1621  0.6302 -0.0256
61573W        W62437  22.578  13.891  11.944  0.3938  0.0546  0.1399
61574W        W62438  24.189  10.769  10.306  0.0568  0.1945 -0.2507
61575W        W62439  20.657   8.306  12.534  0.0921  0.0384  0.1268
61576W        W62440  25.844   9.373  14.152 -0.0493 -0.0700 -0.0028
61577W        W62441  21.428   9.283  12.403  0.0765 -0.0445 -0.0625
61578W        W62442  22.060  13.830  14.527  0.2333 -0.0696 -0.0020
61579W        W62443  24.577   4.879  13.810 -0.1651 -0.0897 -0.0223
61580W        W62444  23.085   7.044  10.679 -0.2161 -0.1202 -0.1913
61581W        W62445  21.379   9.364   9.436 -0.5393 -0.0711  0.0895
61582W        W62446  20.927   9.819  11.994 -0.3225  0.0971 -0.1203
61583W        W62447  24.133   8.122  16.387  0.0799  0.1818 -0.2741
61584W        W62448  24.144   6.651  12.312 -0.1134 -0.2663 -0.2065
61585W        W62449  26.832   9.153  14.681  0.2654 -0.0748  0.3877
61586W        W62450  23.108  11.954  13.610 -0.2316  0.0061 -0.1185
61587W        W62451  26.031  10.721  14.040  0.0356  0.0824  0.1329
61588W        W62452  22.562   6.628  14.675 -0.1894  0.0787  0.0687
61589W        W62453  22.458  11.065  13.610 -0.0713 -0.1453  0.0953
61590W        W62454  24.648  12.722   9.896  0.1357  0.1162  0.1430
61591W        W62455  23.482   9.167  14.327 -0.0671 -0.1184  0.1548
61592W        W62456  21.997   6.380   9.271  0.1107 -0.2759 -0.1116
61593W        W62457  23.293   7.715  12.487 -0.2814  0.0239 -0.3529
61594W        W62458  21.505   5.193  13.817  0.1248  0.1417  0.1800
61595W        W62459  23.269   7.097  13.552 -0.1150  0.3875 -0.0666
61596W        W62460  22.279   9.299  11.624  0.0448  0.1631 -0.1440
61597W        W62461  20.870   8.673   9.326  0.1585  0.2277 -0.1855
61598W        W62462  20.998  12.161  14.649  0.1051  0.0288  0.1352
61599W        W62463  22.773   9.157  11.596 -0.0220 -0.2294  0.0654
61600W        W62464  19.269   9.202  10.067  0.1283 -0.0654  0.1210
61601W        W62465  22.251   9.145  12.196  0.2364  0.2751  0.0259
61602W        W62466  24.682   7.427  10.676 -0.2126 -0.0646  0.2224
61603W        W62467  24.434   7.435  13.857  0.0406 -0.1425  0.0876
61604W        W62468  26.140   7.494  10.817  0.1831  0.2225 -0.1181
61605W        W62469  26.350  11.515  10.325  0.0051 -0.0213 -0.1882
61606W        W62470  23.267  10.049  13.684 -0.1721  0.0296 -0.3503
61607W        W62471  20.929  11.047  11.577 -0.3227  0.1294 -0.4116
61608W        W62472  23.893   6.678  10.494  0.0554  0.2504 -0.1406
61609W        W62473  22.144  11.978  12.079 -0.0255 -0.2039 -0.2049
61610W        W62474  25.722   7.817  13.168  0.3063 -0.0394  0.2740
61611W        W62475  23.370   6.645  14.382  0.0128  0.2260 -0.1395
61612W        W62476  23.200  10.960  11.085  0.0622 -0.0287  0.0609
61613W        W62477  24.044  10.343  10.081 -0.2997 -0.0163 -0.0892
61614W        W62478  24.083   8.118  12.941  0.2269 -0.1120  0.1554
61615W        W62479  21.479   7.712  14.165 -0.0857 -0.2026 -0.1480
61616W        W62480  25.288   8.332  10.404  0.0299 -0.1178  0.0136
61617W        W62481  23.815  11.746  16.034 -0.0576 -0.0838 -0.1391
61618W        W62482  23.815  10.766  13.532  0.1159  0.0774 -0.1256
61619W        W62483  23.012  10.099  13.219  0.1646  0.0080  0.0789
61620W        W62484  24.554   8.001  11.802  0.3229 -0.0231  0.0297
61621W        W62485  23.439   7.055  11.948  0.1449  0.2465  0.1446
61622W        W62486  23.804   7.291  10.863  0.0863  0.0842 -0.1735
61623W        W62487  20.943  10.837  10.582  0.1240 -0.0167 -0.0068
61624W        W62488  26.145  11.335  10.855 -0.1055  0.0250  0.1798
61625W        W62489  22.365  11.509  12.163 -0.0920 -0.3025  0.1489
61626W        W62490  25.259   7.714  13.594  0.0149 -0.2839  0.0916
61627W        W62491  24.394   9.309  12.456 -0.2866  0.0754  0.2359
61628W        W62492  24.533   5.016  10.935  0.2605 -0.1516  0.1817
61629W        W62493  21.964   6.591  12.569  0.0500 -0.0809  0.0601
61630W        W62494  24.413   7.808  14.338  0.0313  0.0158  0.2668
61631W        W62495  24.578  11.193  14.022  0.0195 -0.1406 -0.1275
61632W        W62496  19.382   7.605  13.201 -0.2042 -0.0633 -0.0905
61633W        W62497  23.461   6.530  14.997  0.1832 -0.1910 -0.0645
61634W        W62498  23.494  10.120  14.246  0.1190  0.2144 -0.1412
61635W        W62499  21.147   6.740  14.120 -0.2233  0.1464 -0.0978
61636W        W62500  23.689   7.279  13.800 -0.3412 -0.0729  0.2084
61637W        W62501  24.957  11.304  16.392 -0.0311  0.1836  0.2242
61638W        W62502  24.756  10.887  14.518 -0.1910  0.0449 -0.2751
61639W        W62503  24.421   9.413  11.487  0.1392 -0.1409 -0.1159
61640W        W62504  23.799  10.043  14.948 -0.0622  0.3876 -0.2701
61641W        W62505  25.040  11.098  11.632  0.0131 -0.0627  0.1802
61642W        W62506  26.015   7.454  14.056  0.1096  0.2340  0.0787
61643W        W62507  23.109  11.122  14.999 -0.1539  0.3200 -0.3014
61644W        W62508  20.847  12.460  16.555 -0.0198 -0.0505  0.0810
61645W        W62509  26.079   9.747  14.480 -0.2020 -0.2910 -0.0651
61646W        W62510  21.130  11.308  12.888 -0.1576  0.1076  0.1923
61647W        W62511  22.808  13.401  14.789  0.3185  0.2951 -0.0173
61648W        W62512  22.817   7.814  12.420  0.2035 -0.0505  0.4165
61649W        W62513  22.783  10.885  11.907 -0.3239 -0.0165  0.1196
61650W        W62514  23.533   6.434  12.630  0.0413  0.0119  0.2591
61651W        W62515  23.702  10.880  10.896 -0.0018 -0.0355  0.3226
61652W        W62516  23.483   8.943  10.892  0.0450  0.4858 -0.1744
61653W        W62517  24.280  12.515  19.997 -0.2095 -0.2449 -0.0410
61654W        W62518  24.682  10.251  18.225 -0.2047  0.2483  0.0119
61655W        W62519  24.188  11.618  15.734  0.1531 -0.3691  0.0444
61656W        W62520  26.637  11.186  15.828 -0.2003  0.2887 -0.0866
61657W        W62521  23.640  11.618  15.604  0.3767 -0.3398  0.0121
61658W        W62522  18.594   8.099  18.429 -0.1257  0.0688 -0.3327
61659W        W62523  23.201   9.270  13.213  0.1824 -0.2126 -0.1399
61660W        W62524  23.051   9.837  15.613 -0.1236  0.3618 -0.0663
61661W        W62525  20.138  11.172  17.576 -0.0137  0.1009 -0.1160
61662W        W62526  22.818   6.625  16.947  0.0434 -0.0071  0.1704
61663W        W62527  21.280   5.901  18.444  0.1048 -0.3139 -0.1112
61664W        W62528  23.762   6.591  15.482  0.0007  0.0133  0.1182
61665W        W62529  23.511   9.522  11.122  0.2424 -0.1284 -0.0104
61666W        W62530  25.185   9.870  18.124 -0.0405  0.1274 -0.0489
61667W        W62531  21.865   7.535  18.279 -0.2852  0.2027 -0.0623
61668W        W62532  22.552  10.927  19.323  0.0180 -0.1948 -0.0937
61669W        W62533  20.869  10.725  14.554 -0.0541  0.0002  0.0756
61670W        W62534  22.195   9.221  16.271  0.1534  0.3906  0.1457
61671W        W62535  20.884  10.745  16.788 -0.1326 -0.1155 -0.1366
61672W        W62536  27.081   8.284  15.681 -0.2718  0.0970 -0.0805
61673W        W62537  24.903   8.709  16.341 -0.2224 -0.1173  0.2660
61674W        W62538  20.835   7.576  15.518  0.0595 -0.0857  0.1039
61675W        W62539  25.653   9.009  17.039  0.0008  0.2591  0.1353
61676W        W62540  21.109  10.330  16.718  0.2238 -0.1927 -0.0107
61677W        W62541  20.470   6.178  16.457  0.0601 -0.0006 -0.0860
61678W        W62542  24.200   9.828  17.724 -0.2031 -0.0729 -0.0513
61679W        W62543  23.791   7.387  18.150  0.1507  0.0271 -0.0015
61680W        W62544  21.960   9.428  15.913 -0.1959 -0.0483 -0.3425
61681W        W62545  22.356   9.605  17.594 -0.0106 -0.0345 -0.0124
61682W        W62546  25.105   9.488  16.493 -0.0285  0.0509 -0.1426
61683W        W62547  21.852  11.702  15.196 -0.0302  0.1035  0.0339
61684W        W62548  24.541  10.117  14.643 -0.4254 -0.0235 -0.0364
61685W        W62549  24.311   8.050  20.664 -0.0357 -0.1368  0.0219
61686W        W62550  23.784  11.729  18.441  0.0972  0.3646 -0.2077
61687W        W62551  20.500   6.657  20.391 -0.1828 -0.0109 -0.1007
61688W        W62552  27.349   9.850  17.596  0.2139  0.1805 -0.2125
61689W        W62553  23.209   5.806  13.910  0.0161  0.2700 -0.1062
61690W        W62554  23.817   9.006  15.185 -0.0150 -0.3289  0.1767
61691W        W62555  23.745   9.007  16.235 -0.1143 -0.0453 -0.2114
61692W        W62556  26.433   6.462  17.258 -0.1909  0.0771  0.1828
61693W        W62557  22.934   8.991  12.907  0.1369 -0.0845  0.0467
61694W        W62558  26.173  10.386  16.242 -0.4268  0.0058 -0.0708
61695W        W62559  25.883   7.770  15.347 -0.0980  0.3800  0.3683
61696W        W62560  22.133  11.523  15.689 -0.0386  0.0924  0.0054
61697W        W62561  20.492  12.318  16.920 -0.0879 -0.0689  0.0334
61698W        W62562  22.422   6.784  15.755  0.3407  0.0544  0.0029
61699W        W62563  24.241   8.708  16.165 -0.1491 -0.3035  0.0387
61700W        W62564  24.218   9.901  15.459  0.0984 -0.0024 -0.0839
61701W        W62565  26.029   9.923  16.422 -0.1059 -0.0753  0.2334
61702W        W62566  22.440   9.436  19.397  0.0980 -0.1694  0.0645
61703W        W62567  23.649   7.523  14.968 -0.0235  0.1717  0.1845
61704W        W62568  25.646   9.164  16.257  0.0659  0.0238  0.0832
61705W        W62569  24.896  10.402  14.430  0.0664 -0.2950 -0.2404
61706W        W62570  23.022   5.541  15.756  0.1824 -0.0336  0.0222
61707W        W62571  22.505   9.839  13.377 -0.1162  0.2805  0.0272
61708W        W62572  21.747   8.742  13.190  0.3201 -0.3524  0.3299
61709W        W62573  24.800   7.603  15.318  0.1503 -0.1228  0.1055
61710W        W62574  24.211   9.811  14.179 -0.1788  0.0001  0.0971
61711W        W62575  20.607  11.583  13.702 -0.1984 -0.2940 -0.0862
61712W        W62576  21.777   8.962  12.309 -0.0246  0.1608  0.0572
61713W        W62577  23.307  10.447  17.361 -0.1269  0.3161  0.1847
61714W        W62578  21.306   9.677  16.779 -0.1679 -0.1327  0.0172
61715W        W62579  24.674   7.924  16.476 -0.1734  0.2679  0.2252
61716W        W62580  22.139   7.316  15.043  0.1169  0.0408  0.0563
61717W        W62581  27.104   9.688  15.487  0.0023 -0.0219  0.2021
61718W        W62582  20.056  11.618  15.579 -0.1149 -0.0299 -0.1660
61719W        W62583  21.887   8.353  17.708 -0.3236 -0.0916  0.1699
61720W        W62584  20.934   8.325  13.810  0.0196  0.0747 -0.0365
61721W        W62585  24.161  10.477  16.058 -0.0062 -0.3112  0.0507
61722W        W62586  22.326   7.747  16.196 -0.0674 -0.0738 -0.3941
61723W        W62587  22.684   8.021  15.748 -0.2983  0.1725  0.1724
61724W        W62588  25.020  10.788  18.296 -0.0534  0.1114 -0.0939
61725W        W62589  23.723   7.911  19.819  0.1403  0.0706  0.0955
61726W        W62590  24.965   8.547  15.825  0.0904 -0.0783 -0.2160
61727W        W62591  23.555   8.381  15.531 -0.2697  0.1371  0.2386
61728W        W62592  21.091   5.091  14.179 -0.0917  0.0700  0.1836
61729W        W62593  22.324   8.295  18.752 -0.2189 -0.0346  0.1059
61730W        W62594  24.769  10.739  13.997  0.3129  0.1766  0.0631
61731W        W62595  25.140  10.552  15.217  0.1019 -0.1538  0.2527
61732W        W62596  21.908   6.185  16.157 -0.1394 -0.0294 -0.1310
61733W        W62597  21.920   9.957  16.059 -0.0972 -0.3935 -0.4879
61734W        W62598  22.103   9.360  16.817 -0.3054 -0.1068  0.0580
61735W        W62599  24.026   8.643  14.797  0.1188  0.1182 -0.2798
61736W        W62600  21.557   7.955  17.488 -0.1916 -0.1288  0.1283
61737W        W62601  23.239   7.545  15.197  0.1765 -0.1757 -0.1774
61738W        W62602  25.340   7.114  16.602 -0.1848 -0.0211 -0.0393
61739W        W62603  22.275   7.281  15.917  0.0545 -0.0348 -0.0959
61740W        W62604  26.065   9.608  15.560  0.0902 -0.1809  0.0830
61741W        W62605  22.016   7.837  17.165  0.2868  0.1565  0.1345
61742W        W62606  25.620   9.491  15.803 -0.1737 -0.0595  0.0186
61743W        W62607  24.099  11.343  18.707  0.0015  0.1231  0.1629
61744W        W62608  20.774  10.376  17.205 -0.1334 -0.1395 -0.4233
61745W        W62609  22.838  10.862  14.271 -0.0202 -0.2336 -0.0957
61746W        W62610  23.109   6.462  18.918  0.0136 -0.1550 -0.1399
61747W        W62611  26.656   9.073  16.515  0.0522 -0.0443  0.2685
61748W        W62612  24.835  10.826  15.994  0.1043 -0.1751 -0.0369
61749W        W62613  24.716   9.766  15.576 -0.4391 -0.0207 -0.0497
61750W        W62614  23.006   6.624  13.816 -0.1918  0.0598  0.0799
61751W        W62615  26.484   8.428  17.034  0.1262 -0.0412 -0.2411
61752W        W62616  24.547  12.115  15.068  0.2577 -0.0601 -0.0036
61753W        W62617  23.455   5.723  15.502  0.1619 -0.0494  0.2636
61754W        W62618  25.032   6.798  13.781 -0.2796  0.0957 -0.1596
61755W        W62619  26.526   9.895  17.189  0.1596  0.2599  0.0796
61756W        W62620  23.449   8.074  14.101  0.0041  0.0377  0.3034
61757W        W62621  25.531  10.873  13.895 -0.1034  0.2206  0.1532
61758W        W62622  24.212  10.567  14.687  0.0759 -0.2293 -0.0500
61759W        W62623  25.038  11.040  17.637  0.1188  0.0509  0.1494
61760W        W62624  23.974   8.617  17.610 -0.3569 -0.0426  0.0194
61761W        W62625  20.882   9.289  14.734 -0.0003 -0.0875  0.0354
61762W        W62626  22.222   9.164  18.416  0.0539  0.0676 -0.1940
61763W        W62627  22.513  10.602  16.609 -0.3334  0.0430  0.2215
61764W        W62628  24.654   8.313  17.593  0.0930 -0.1261  0.3174
61765W        W62629  20.575  10.341  16.710  0.0071 -0.1114 -0.0427
61766W        W62630  24.811  10.988  12.606  0.2744 -0.0747 -0.0533
61767W        W62631  23.717   9.430  18.516  0.0567 -0.0880 -0.0119
61768W        W62632  26.751   9.190  19.222  0.1720 -0.3078  0.1967
61769W        W62633  21.463  10.648  16.458  0.1024 -0.0037  0.3705
61770W        W62634  23.198   8.372  15.158 -0.0982 -0.0211 -0.3657
61771W        W62635  25.530   6.549  13.739 -0.1002 -0.4807  0.2160
61772W        W62636  26.485   9.474  14.344  0.2489 -0.1031 -0.0354
61773W        W62637  25.082  12.149  12.314  0.0593 -0.1396  0.2268
61774W        W62638  27.140   8.834  15.905  0.3249  0.1113  0.2286
61775W        W62639  24.655  11.508  12.400 -0.0044  0.4078  0.1581
61776W        W62640  22.783   8.743  17.229  0.2140  0.1507  0.0021
61777W        W62641  22.760   9.150  17.619  0.2466 -0.4197 -0.2424
61778W        W62642  21.236   6.025  16.181 -0.0886  0.0077  0.0551
61779W        W62643  27.861  10.933  15.381  0.0630  0.1427 -0.1152
61780W        W62644  21.970  10.618  18.569  0.0397 -0.0165 -0.1140
61781W        W62645  22.829   9.354  14.182  0.2252 -0.1421  0.0448
61782W        W62646  23.012  12.210  17.538 -0.0437  0.0005 -0.2262
61783W        W62647  22.919   5.347  17.625  0.1136  0.1380  0.1294
61784W        W62648  23.093  13.777  16.489  0.2602 -0.0222  0.4961
61785W        W62649  26.191   5.992  14.724  0.2568  0.0552  0.2190
61786W        W62650  27.057   9.218  16.779  0.2516 -0.1158 -0.2698
61787W        W62651  21.637   8.023  16.768 -0.0470  0.1838 -0.0100
61788W        W62652  24.274   6.810  16.247  0.1924 -0.1741  0.2244
61789W        W62653  26.186   8.942  16.950  0.0069  0.1411 -0.0211
61790W        W62654  23.071   6.357  14.689  0.0518  0.2146  0.0058
61791W        W62655  22.850   9.249  16.169  0.4685  0.0480  0.0374
61792W        W62656  23.324   5.171  16.089 -0.1624  0.3321 -0.0895
61793W        W62657  25.077   7.171  18.311  0.0409 -0.0767 -0.0127
61794W        W62658  21.495  11.833  16.845 -0.1031  0.1915 -0.0820
61795W        W62659  23.099   7.987  14.887  0.0656 -0.2286 -0.0360
61796W        W62660  25.206   8.895  19.337  0.3125 -0.1058  0.0342
61797W        W62661  22.826   8.367  14.816  0.4041 -0.2401 -0.1103
61798W        W62662  23.787   7.065  15.790 -0.3625 -0.1048 -0.0872
61799W        W62663  23.681   8.913  13.829 -0.1355 -0.0966 -0.2076
61800W        W62664  23.989  10.348  13.048  0.1386 -0.2448 -0.3299
61801W        W62665  22.251   9.097  17.727  0.0612 -0.0776 -0.1999
61802W        W62666  26.855  10.760  15.704  0.0748  0.1090  0.0189
61803W        W62667  23.206   7.571  15.806  0.0614 -0.5027 -0.0404
61804W        W62668  23.126  11.126  18.249 -0.3519  0.0405 -0.0732
61805W        W62669  24.031   4.958  12.974 -0.1288  0.0110  0.3279
61806W        W62670  22.377   9.937  19.010  0.0549  0.0901  0.0746
61807W        W62671  22.938  10.128  14.116  0.0913 -0.0404  0.1021
61808W        W62672  21.087   8.659  15.946 -0.2812  0.0880 -0.1646
61809W        W62673  23.213   9.999  14.709 -0.0418 -0.1839  0.1391
61810W        W62674  26.065   5.366  16.019 -0.1625 -0.0655  0.0243
61811W        W62675  24.901   8.953  15.485 -0.3412 -0.0710 -0.1431
61812W        W62676  25.419   5.574  18.505 -0.1711 -0.1373 -0.1622
61813W        W62677  22.666   8.887  16.654  0.0839  0.2429  0.3189
61814W        W62678  21.900   8.152  16.192 -0.0326 -0.4395  0.2289
61815W        W62679  25.571   9.274  19.221  0.0649 -0.0367 -0.0733
61816W        W62680  22.492   6.966  16.766 -0.1456  0.4115  0.0939
61817W        W62681  21.800   7.493  15.568  0.0291 -0.0821  0.2731
61818W        W62682  22.926   6.109  15.796 -0.2373  0.1159 -0.1733
61819W        W62683  20.119  11.645  14.270  0.2724  0.2178 -0.3549
61820W        W62684  22.913  10.266  15.002 -0.1807 -0.1523 -0.1034
61821W        W62685  24.335  10.982  15.913 -0.2772  0.0040 -0.2359
61822W        W62686  23.462   9.516  15.045  0.2120 -0.2289 -0.4703
61823W        W62687  25.180   7.763  16.003 -0.1396  0.0197  0.0445
61824W        W62688  23.671   9.738  17.004  0.0073 -0.2277 -0.0092
61825W        W62689  25.832   8.403  16.279 -0.3185 -0.1224  0.1663
61826W        W62690  23.662   8.020  16.324 -0.0269  0.0292  0.0504
61827W        W62691  25.358   9.111  13.352  0.1192 -0.0046 -0.1600
61828W        W62692  22.102   8.064  18.140 -0.0610 -0.0032  0.0008
61829W        W62693  22.278  10.843  17.131 -0.1495  0.0668 -0.0345
61830W        W62694  23.602  11.719  13.525 -0.0234  0.0327  0.3317
61831W        W62695  23.508   9.413  15.991  0.0884  0.0019 -0.1857
61832W        W62696  22.335   8.595  15.659  0.1993  0.2966 -0.1687
61833W        W62697  23.332   8.343  14.560 -0.2589  0.2763  0.2135
61834W        W62698  21.843   9.436  12.197 -0.0528 -0.2169  0.0028
61835W        W62699  23.109   7.954  15.506 -0.0327  0.1534  0.0389
61836W        W62700  24.205   7.852  16.834 -0.0131  0.1455 -0.0700
61837W        W62701  24.513   9.975  17.347  0.2414 -0.0655 -0.0504
61838W        W62702  24.612   7.498  13.386 -0.0275 -0.2781  0.1769
61839W        W62703  22.988   5.899  13.129 -0.0787  0.0688  0.1926
61840W        W62704  23.096   8.314  19.625  0.2130 -0.2062  0.1563
61841W        W62705  20.473   9.520  16.888 -0.1807 -0.2520 -0.1503
61842W        W62706  23.985   8.648  13.075  0.0920  0.4299  0.1258
61843W        W62707  23.662   7.484  15.534 -0.0399  0.2435  0.0372
61844W        W62708  21.992  10.845  19.432  0.0946 -0.4780 -0.2623
61845W        W62709  20.375   7.880  17.471  0.0753  0.1051 -0.1112
61846W        W62710  22.385   7.334  18.151 -0.4712 -0.1057  0.1489
61847W        W62711  20.536   7.310  16.312 -0.0543  0.1590  0.1880
61848W        W62712  24.799   9.280  15.059  0.1394  0.1440  0.1356
61849W        W62713  21.083   4.783  16.805  0.3235 -0.0337 -0.2384
61850W        W62714  22.130   5.530  15.602 -0.0963  0.2208 -0.0885
61851W        W62715  22.846   8.237  18.555  0.1151 -0.0104  0.0604
61852W        W62716  21.519   6.669  13.812  0.1664 -0.4076 -0.3398
61853W        W62717  24.093   7.824  19.451 -0.0220  0.0961  0.0067
61854W        W62718  24.461  12.031  14.199 -0.1330 -0.0871 -0.1044
61855W        W62719  19.675   4.951  14.178 -0.1452  0.0317  0.1601
61856W        W62720  22.491   7.748  18.409  0.0767  0.1787  0.0034
61857W        W62721  21.457   4.863  14.617  0.3820 -0.0477  0.2908
61858W        W62722  24.220  10.716  21.099  0.0385  0.1994 -0.2846
61859W        W62723  25.715   9.246  15.350 -0.1851 -0.1567 -0.2880
61860W        W62724  24.402  10.170  12.174 -0.0289  0.0026  0.2828
61861W        W62725  24.407   6.096  15.640  0.1825  0.1507 -0.2268
61862W        W62726  24.478   9.796  19.884  0.0575  0.3122 -0.2221
61863W        W62727  24.349  10.094  21.703  0.1008 -0.0389  0.0803
61864W        W62728  22.323   8.235  15.962  0.0967 -0.2549 -0.3216
61865W        W62729  26.117   6.895  19.865  0.2246  0.0111  0.2039
61866W        W62730  25.745  10.597  17.242 -0.0132  0.1786 -0.0441
61867W        W62731  23.945   7.970  15.449  0.3210 -0.0179  0.1153
61868W        W62732  22.817   9.431  16.641  0.1906 -0.0622 -0.0337
61869W        W62733  24.725  11.974  13.174 -0.1824  0.1898  0.0772
61870W        W62734  25.282   8.433  19.315  0.0759 -0.0121 -0.0039
61871W        W62735  22.405  10.153  17.330 -0.0321 -0.1923 -0.1714
61872W        W62736  26.139   8.411  17.473 -0.1856 -0.2598  0.0886
61873W        W62737  26.248   8.686  15.442 -0.1155  0.0593 -0.2539
61874W        W62738  26.059  11.666  15.063 -0.0013  0.1819 -0.0565
61875W        W62739  25.200   4.731  16.827 -0.1881 -0.0158 -0.0694
61876W        W62740  22.757  11.538  15.161 -0.2328  0.1737 -0.0858
61877W        W62741  21.746   4.863  17.050 -0.0630 -0.1176 -0.1164
61878W        W62742  24.381  12.122  19.132 -0.1555 -0.0354 -0.2539
61879W        W62743  25.815   8.258  17.785 -0.0939  0.1647  0.0919
61880W        W62744  24.333   9.810  15.987 -0.1192 -0.3126 -0.0601
61881W        W62745  24.868   6.653  20.026  0.0630 -0.1309 -0.0362
61882W        W62746  21.027   7.109  19.317  0.2545  0.0245 -0.0252
61883W        W62747  23.483   7.829  20.919 -0.0218  0.1066  0.0443
61884W        W62748  22.963   9.682  15.060 -0.2447 -0.0535  0.1202
61885W        W62749  24.555  10.046  13.679 -0.3010 -0.3030  0.0545
61886W        W62750  25.231   9.005  16.613  0.3269  0.0190 -0.1084
61887W        W62751  25.515   9.022  15.729  0.4447  0.0997 -0.2505
61888W        W62752  25.713  10.343  14.432 -0.1609  0.1842 -0.0141
61889W        W62753  23.771   8.655  20.927 -0.0696 -0.1121 -0.0684
61890W        W62754  23.637   8.914  16.750 -0.1560 -0.0399  0.1110
61891W        W62755  25.528  11.795  17.480  0.1292 -0.1194 -0.3159
61892W        W62756  24.427  11.396  14.975 -0.0847  0.0385 -0.0521
61893W        W62757  21.669  12.154  18.599 -0.2871  0.0433  0.1106
61894W        W62758  23.305   8.879  15.419  0.1678  0.1448  0.0546
61895W        W62759  22.900   5.847  15.312 -0.0613  0.1866 -0.0383
61896W        W62760  25.332   6.861  15.529 -0.2141  0.3504  0.1707
61897W        W62761  23.372   6.262  14.061  0.0125 -0.4065 -0.3247
61898W        W62762  22.946   7.834  16.831  0.1785 -0.0832  0.3595
61899W        W62763  21.808  11.025  18.883 -0.2322 -0.1931  0.0417
61900W        W62764  25.859  11.269  15.378  0.0234  0.1284 -0.0038
61901W        W62765  22.535   5.897  15.597  0.1100 -0.0455 -0.3795
61902W        W62766  22.569   9.516  15.439 -0.0713  0.2806 -0.0171
61903W        W62767  23.006  10.384  15.517  0.0078  0.0822  0.2182
61904W        W62768  24.763  10.654  16.858 -0.1556  0.2122  0.0272
61905W        W62769  25.246  10.069  17.546 -0.0286  0.0795 -0.1221
61906W        W62770  19.815   6.713  14.302  0.0879  0.0673 -0.0270
61907W        W62771  25.002  13.346  15.774 -0.0735 -0.0059 -0.2661
61908W        W62772  23.031  11.311  14.300 -0.1981  0.0868 -0.0955
61909W        W62773  22.778   6.186  16.730 -0.3813 -0.0644 -0.2341
61910W        W62774  26.505  10.574  13.543 -0.0639  0.0436 -0.0713
61911W        W62775  27.823   9.156  18.184 -0.1730  0.3061 -0.0156
61912W        W62776  24.044   8.441  15.273  0.4356  0.0010 -0.1522
61913W        W62777  22.992   7.864  18.293 -0.2111  0.2877 -0.0021
61914W        W62778  24.357  10.891  18.937  0.0230 -0.0862  0.0393
61915W        W62779  22.033   8.677  15.287  0.2430  0.3865  0.1068
61916W        W62780  24.450  10.269  14.108 -0.0734  0.1299 -0.5053
61917W        W62781  19.673   9.746  16.550  0.0103  0.0359  0.0496
61918W        W62782  24.384   8.051  12.545  0.0687 -0.4551  0.2200
61919W        W62783  24.226  10.324  15.178  0.1084 -0.1408 -0.2176
61920W        W62784  24.097   9.618  20.455  0.3211 -0.0077  0.0869
61921W        W62785  25.898   7.715  16.005 -0.2145  0.1169  0.1077
61922W        W62786  22.484  11.011  12.293 -0.1635  0.0955  0.1750
61923W        W62787  24.523   8.359  15.651 -0.0296  0.0134 -0.1669
61924W        W62788  24.358   9.613  16.550  0.2922  0.0382  0.1494
61925W        W62789  24.658   9.103  16.553 -0.3205 -0.1606 -0.0511
61926W        W62790  25.163   9.903  16.960  0.1497  0.0059  0.1240
61927W        W62791  25.517   7.896  19.818 -0.3826 -0.0128 -0.0366
61928W        W62792  21.976   9.717  19.168 -0.1878 -0.1449  0.0402
61929W        W62793  23.653   7.531  16.065 -0.1011  0.5894  0.0741
61930W        W62794  24.661   6.207  15.186 -0.1621 -0.0085  0.0381
61931W        W62795  19.634   9.866  17.503 -0.1400 -0.2029  0.0008
61932W        W62796  24.735  10.154  15.213 -0.1007 -0.0017  0.1704
61933W        W62797  20.089   8.992  15.121  0.0849  0.0885 -0.0022
61934W        W62798  21.761   8.279  15.101  0.3956 -0.1157 -0.4428
61935W        W62799  23.819  10.730  15.015  0.0876  0.0887 -0.0978
61936W        W62800  23.473  10.445  14.857  0.0230  0.2077 -0.0637
61937W        W62801  22.461   7.872  17.003  0.2941  0.0427 -0.0220
61938W        W62802  23.150   8.806  16.887  0.3388 -0.2112 -0.1266
61939W        W62803  24.394   9.258  19.758 -0.0220  0.2241 -0.3195
61940W        W62804  25.102   7.535  14.830  0.2856  0.0835 -0.2200
61941W        W62805  25.255  11.010  14.705  0.1641 -0.3483  0.0409
61942W        W62806  21.583   8.832  14.360  0.1991 -0.1340 -0.0440
61943W        W62807  23.753   7.065  15.315 -0.0156 -0.2328  0.0511
61944W        W62808  25.516   8.444  18.260  0.1745 -0.0683 -0.0094
61945W        W62809  20.730   8.810  17.405 -0.0108 -0.2997 -0.0417
61946W        W62810  21.206  11.141  16.313 -0.0607  0.0211  0.2083
61947W        W62811  24.570   9.510  14.560  0.0067  0.0725  0.0702
61948W        W62812  21.893   5.551  15.111 -0.1311  0.0391  0.0234
61949W        W62813  24.845   8.904  17.068  0.2315 -0.3138  0.0412
61950W        W62814  24.012   8.353  15.775  0.3452 -0.1356 -0.0724
61951W        W62815  21.457  12.020  16.420 -0.2029  0.1031  0.2136
61952W        W62816  23.614   8.335  13.195 -0.0089 -0.1903 -0.1050
61953W        W62817  20.247   4.609  19.261 -0.0779  0.1676 -0.3788
61954W        W62818  24.772  10.619  19.554 -0.2058  0.3802 -0.3360
61955W        W62819  22.884   8.406  16.608 -0.2299  0.3451  0.1019
61956W        W62820  23.835  10.224  12.543  0.3582 -0.1534 -0.1270
61957W        W62821  24.492  12.105  17.377  0.1436 -0.0292 -0.1667
61958W        W62822  23.095  12.316  18.361  0.0831 -0.2313 -0.1410
61959W        W62823  23.179   8.419  17.448  0.0211 -0.1752 -0.3579
61960W        W62824  23.743   9.224  14.737 -0.3977 -0.0885  0.4684
61961W        W62825  24.991   7.074  14.828  0.1456  0.2775  0.0101
61962W        W62826  24.087   7.125  14.874  0.0759  0.0580 -0.0619
61963W        W62827  21.802   9.561  16.426  0.2326 -0.1736 -0.1984
61964W        W62828  25.165   9.331  15.582 -0.1030  0.3817  0.0743
61965W        W62829  23.652   8.091  18.584 -0.2714  0.2475  0.1469
61966W        W62830  23.017  12.961  17.602  0.2702 -0.0294 -0.0323
61967W        W62831  23.007  11.354  16.989 -0.2242  0.2763 -0.0849
61968W        W62832  25.268   5.042  13.264  0.0278  0.0153  0.0519
61969W        W62833  22.403   9.690  14.981  0.1273 -0.4046  0.0630
61970W        W62834  26.052   9.047  15.768 -0.2090 -0.4259  0.0040
61971W        W62835  24.560   8.567  17.185  0.0437  0.0792 -0.0416
61972W        W62836  22.885  11.377  19.486  0.2245 -0.3254  0.2032
61973W        W62837  23.647  12.088  15.467  0.1011 -0.0395 -0.0243
61974W        W62838  22.757   9.809  19.599  0.3097 -0.2017  0.2161
61975W        W62839  23.040   8.862  14.810  0.0289  0.1029 -0.2641
61976W        W62840  23.485   7.438  17.345 -0.3126 -0.1106 -0.1619
61977W        W62841  22.946   4.459  15.756 -0.4156  0.0283  0.2119
61978W        W62842  22.663   7.225  17.660  0.1733  0.2668 -0.2810
61979W        W62843  20.836  12.765  12.492  0.1241 -0.2449 -0.1074
61980W        W62844  24.087   6.795  13.913 -0.5444  0.0652 -0.1440
61981W        W62845  23.609   7.850  13.661 -0.1082 -0.0656 -0.1324
61982W        W62846  22.443   8.733  18.546  0.1139 -0.2498 -0.3080
61983W        W62847  25.464   8.028  14.566  0.4334 -0.3115 -0.1916
61984W        W62848  27.928   7.988  18.450 -0.0784 -0.0330  0.2223
61985W        W62849  23.982  10.401  17.715  0.1793 -0.1158  0.0631
61986W        W62850  21.264  10.148  15.980 -0.3908 -0.0109  0.0669
61987W        W62851  25.073  11.580  16.801 -0.1375  0.2900 -0.2765
61988W        W62852  24.196  10.196  18.171  0.1573 -0.1564  0.0809
61989W        W62853  25.612   8.888  14.849 -0.0597  0.1691  0.0273
61990W        W62854  24.583   8.320  16.170 -0.0528  0.0966  0.1917
61991W        W62855  21.453   7.813  15.195 -0.1305  0.2008  0.0389
61992W        W62856  22.115  10.030  15.182 -0.0223 -0.2677  0.1877
61993W        W62857  22.664   5.352  14.513  0.0129  0.1074 -0.1426
61994W        W62858  23.387   4.973  15.141  0.0156 -0.0746  0.1090
61995W        W62859  21.819  10.829  14.542  0.0257 -0.0896 -0.0809
61996W        W62860  23.374   7.780  17.957  0.2322 -0.2184 -0.2266
61997W        W62861  22.549  10.142  16.431 -0.3256  0.1094  0.0467
61998W        W62862  22.095   8.701  16.192  0.2930  0.1033  0.2278
61999W        W62863  23.924  10.097  15.810  0.1974 -0.3637  0.1241
62000W        W62864  23.777   9.585  14.031  0.0298  0.1849 -0.1078
62001W        W62865  21.853   5.930  15.429 -0.0677  0.0974 -0.1318
62002W        W62866  25.799  10.072  17.308 -0.0043 -0.2218  0.0208
62003W        W62867  23.962   5.799  15.622 -0.4130 -0.3161 -0.4335
62004W        W62868  24.798   8.508  14.725 -0.1072  0.1551 -0.1303
62005W        W62869  23.338  10.044  15.201 -0.1348  0.2670 -0.1334
62006W        W62870  23.751   8.607  18.811  0.0762 -0.2356 -0.2465
62007W        W62871  24.392   6.803  16.715 -0.0479  0.0548  0.1540
62008W        W62872  22.689  11.531  19.952 -0.3225  0.1529  0.1159
62009W        W62873  24.317   8.484  18.021  0.1143  0.1463  0.2819
62010W        W62874  21.649   8.520  18.695 -0.0129 -0.3365 -0.0470
62011W        W62875  23.458   3.465  16.767  0.3286 -0.1663  0.0713
62012W        W62876  21.766   5.735  15.902 -0.1604 -0.3507  0.0826
62013W        W62877  26.048   9.640  18.629  0.0120  0.1298  0.0204
62014W        W62878  23.651   8.355  14.943  0.3760 -0.1140  0.0080
62015W        W62879  23.990   8.000  14.910 -0.1117  0.2084  0.3005
62016W        W62880  22.971   9.762  16.360  0.1510 -0.1956  0.0307
62017W        W62881  25.660  10.901  13.262 -0.0801 -0.4347 -0.0432
62018W        W62882  23.293   7.017  16.867 -0.0338  0.2238  0.1647
62019W        W62883  24.057   9.453  15.179  0.1426 -0.1602 -0.1527
62020W        W62884  24.541   9.712  15.015 -0.1391 -0.1550  0.0278
62021W        W62885  25.799   6.800  15.807 -0.2320 -0.3032 -0.0725
62022W        W62886  20.934   9.644  14.350 -0.0169  0.0990 -0.1673
62023W        W62887  26.519   9.732  14.739  0.2016 -0.2922 -0.1026
62024W        W62888  26.412  12.275  15.728  0.3346 -0.2489 -0.0113
62025W        W62889  23.466   9.859  18.371  0.3126 -0.0878 -0.0166
62026W        W62890  23.375   8.782  13.481 -0.1696 -0.1599 -0.1635
62027W        W62891  24.695   5.458  17.625  0.0009  0.0673  0.0313
62028W        W62892  25.384   9.816  19.004  0.2384 -0.2557  0.0750
62029W        W62893  23.522  12.506  18.383 -0.2200  0.2741 -0.1691
62030W        W62894  23.190   8.895  17.404  0.1274 -0.1227 -0.2357
62031W        W62895  22.658   9.929  16.859 -0.2312 -0.0451 -0.1084
62032W        W62896  24.255   8.847  15.519  0.0762  0.1990 -0.0470
62033W        W62897  23.542   7.914  15.740 -0.1174  0.3050  0.3331
62034W        W62898  19.447   7.679  17.464  0.2174  0.0484  0.1133
62035W        W62899  26.978   6.808  15.078  0.1313 -0.2023 -0.0012
62036W        W62900  25.533  12.763  16.987 -0.0642 -0.1074  0.1801
62037W        W62901  26.063  11.399  15.875 -0.2879 -0.0745 -0.0094
62038W        W62902  23.900   8.861  14.268  0.0387  0.1229  0.0172
62039W        W62903  25.420  10.334  17.061 -0.0831  0.0291 -0.1598
62040W        W62904  22.240  10.045  14.645 -0.1489  0.0540  0.3709
62041W        W62905  23.078   9.339  15.676 -0.0557 -0.3203 -0.1280
62042W        W62906  23.601  11.341  19.353 -0.0919 -0.0724  0.1361
62043W        W62907  23.211  10.501  14.367  0.1675 -0.0194  0.0033
62044W        W62908  23.260   6.652  15.524  0.0986 -0.0490  0.0369
62045W        W62909  26.542  12.201  16.214  0.0536  0.2712  0.0276
62046W        W62910  23.233   9.371  19.190  0.0913 -0.2135  0.1041
62047W        W62911  22.325   9.698  17.119 -0.2944  0.0447 -0.0612
62048W        W62912  24.618  10.608  12.329 -0.2872  0.0731  0.0482
62049W        W62913  23.769   8.276  17.290  0.0444 -0.2261  0.0422
62050W        W62914  24.289  10.559  16.639 -0.0602  0.1996  0.0857
62051W        W62915  22.041   8.395  12.944  0.4929 -0.2460  0.1734
62052W        W62916  23.328  12.037  22.367 -0.3697  0.2824  0.2338
62053W        W62917  22.455  10.841  20.491 -0.0253  0.3275 -0.0462
62054W        W62918  25.314   7.749  19.188 -0.0514  0.0971 -0.3760
62055W        W62919  25.637   6.896  19.639 -0.0314  0.0674 -0.0583
62056W        W62920  24.889   9.671  18.538 -0.2169 -0.2349 -0.1409
62057W        W62921  22.442   9.650  16.354 -0.2521 -0.2013  0.2161
62058W        W62922  21.561   9.239  14.782 -0.0204 -0.0112  0.0415
62059W        W62923  23.017   9.173  15.163 -0.0983  0.2935  0.0896
62060W        W62924  25.297  10.727  20.902  0.1833  0.2441  0.0565
62061W        W62925  23.088   7.236  20.645  0.0236 -0.2616  0.0038
62062W        W62926  24.616   8.414  20.352 -0.3405 -0.0131  0.0692
62063W        W62927  24.003   7.895  21.162  0.0369  0.1969 -0.0612
62064W        W62928  26.110   7.921  17.324  0.2300  0.2639 -0.1171
62065W        W62929  25.992   7.614  20.673  0.1576 -0.0025 -0.0939
62066W        W62930  22.278  10.454  18.120  0.1534 -0.2485  0.1130
62067W        W62931  21.058  11.090  22.371 -0.1012  0.1973  0.1353
62068W        W62932  24.853  11.047  18.674 -0.3574  0.0048  0.0014
62069W        W62933  21.442   7.678  18.580 -0.0516  0.0302  0.3659
62070W        W62934  24.039  12.258  23.876  0.0512 -0.0356 -0.0708
62071W        W62935  25.751   8.032  18.770 -0.2043  0.1287  0.1322
62072W        W62936  26.640   8.229  19.586  0.0620 -0.1807 -0.3426
62073W        W62937  25.149   7.473  19.869 -0.0298 -0.3463  0.0353
62074W        W62938  23.674  12.756  20.989  0.2137  0.1735 -0.1381
62075W        W62939  20.920  10.471  22.290 -0.0525  0.0481 -0.0671
62076W        W62940  20.853   8.356  19.302 -0.3827 -0.0670  0.0496
62077W        W62941  21.736   9.726  22.181 -0.1707 -0.1735  0.0139
62078W        W62942  25.969   9.547  19.131  0.3776 -0.2983 -0.2643
62079W        W62943  25.038   9.098  20.219  0.2258  0.0193  0.1050
62080W        W62944  23.712  11.236  21.188  0.0637 -0.0051 -0.1519
62081W        W62945  22.902  11.044  20.218 -0.1648  0.1149  0.0612
62082W        W62946  27.157  11.628  18.974  0.0991  0.1582  0.2612
62083W        W62947  26.925   9.656  18.855  0.4263  0.3182 -0.1064
62084W        W62948  25.326  10.680  19.675  0.0320  0.3351  0.2986
62085W        W62949  23.911  12.031  19.993 -0.2541  0.1243  0.0373
62086W        W62950  23.075   9.985  23.073  0.3201  0.0844 -0.3286
62087W        W62951  26.347   9.287  18.929 -0.1388 -0.4801  0.0845
62088W        W62952  21.334   9.392  16.395  0.0444 -0.0068  0.2036
62089W        W62953  26.412  10.312  19.982  0.0499 -0.2121  0.1884
62090W        W62954  27.587   9.468  18.457  0.2486 -0.0348  0.0232
62091W        W62955  28.233   9.265  17.591  0.0253 -0.1773  0.0933
62092W        W62956  25.555   8.927  18.388  0.1131 -0.1264  0.2357
62093W        W62957  26.247   8.454  20.982  0.2200  0.1369  0.1299
62094W        W62958  27.021   8.507  19.271  0.2209 -0.2343  0.1213
62095W        W62959  24.445   8.754  17.611  0.1239 -0.1005 -0.1770
62096W        W62960  23.223  11.216  18.957 -0.0057  0.0118  0.0371
62097W        W62961  21.585   9.227  16.947  0.0124  0.0073  0.0324
62098W        W62962  22.414   7.337  18.943  0.0199 -0.1442 -0.0808
62099W        W62963  28.302  11.173  19.600 -0.0389  0.0630 -0.0009
62100W        W62964  25.888   8.734  17.930 -0.2415 -0.1735  0.0048
62101W        W62965  26.570  10.972  17.278 -0.0612  0.0867 -0.2590
62102W        W62966  23.342  10.300  20.696  0.1975  0.1129 -0.4278
62103W        W62967  22.979   9.123  20.008  0.0333  0.2090  0.0233
62104W        W62968  23.080   9.954  19.897 -0.0584 -0.1437 -0.1029
62105W        W62969  26.743  11.434  17.870 -0.0652  0.2335  0.2638
62106W        W62970  21.474   6.696  17.955  0.0506  0.2787  0.0119
62107W        W62971  23.008  10.844  19.388 -0.1473 -0.0534  0.1905
62108W        W62972  20.370   6.353  19.432  0.0690  0.0099 -0.0576
62109W        W62973  23.252   7.823  19.578 -0.0963  0.0095  0.0828
62110W        W62974  21.890  10.147  18.843 -0.0658 -0.1908  0.0444
62111W        W62975  24.341  13.027  18.800 -0.0285 -0.1226  0.1398
62112W        W62976  23.917  10.863  18.548  0.2001 -0.1408  0.0468
62113W        W62977  24.323   6.377  20.243 -0.1359  0.0009  0.0738
62114W        W62978  23.142   7.748  20.578 -0.1998 -0.1938  0.1227
62115W        W62979  22.995   8.094  17.794 -0.0803  0.3747  0.1966
62116W        W62980  24.719   7.713  19.752 -0.0706  0.1070 -0.2738
62117W        W62981  27.136   6.314  22.690 -0.1490 -0.1019 -0.2212
62118W        W62982  22.289  11.079  17.574 -0.1095  0.0938  0.0455
62119W        W62983  23.901  10.628  19.067  0.1313 -0.1390 -0.1324
62120W        W62984  23.240   9.156  16.421  0.0203  0.3758 -0.2603
62121W        W62985  23.937   9.710  19.893  0.1348 -0.3033 -0.2753
62122W        W62986  24.469  11.679  19.385  0.2069  0.1462 -0.4401
62123W        W62987  22.166   6.410  19.523  0.1494  0.2797  0.0203
62124W        W62988  25.549   7.836  20.718  0.1709  0.2661  0.1029
62125W        W62989  26.126   9.216  21.171  0.1753  0.0106 -0.0277
62126W        W62990  27.065  11.291  17.486  0.1777 -0.1258  0.2558
62127W        W62991  24.718   8.830  19.898 -0.1466 -0.3736 -0.0680
62128W        W62992  23.310  11.577  19.745 -0.1850  0.1030 -0.1843
62129W        W62993  24.660  11.371  20.376  0.0202 -0.0606 -0.2485
62130W        W62994  27.184  11.130  18.232  0.0330  0.0325 -0.5165
62131W        W62995  22.855   9.638  17.768 -0.1739 -0.1729  0.1933
62132W        W62996  21.999   5.927  20.953  0.0502  0.1918 -0.0961
62133W        W62997  23.454   9.048  18.784 -0.0696  0.0992  0.0970
62134W        W62998  21.139  10.177  18.820  0.2822  0.0607  0.1842
62135W        W62999  25.657   7.508  19.527 -0.1346  0.1167  0.0061
62136W        W63000  24.067  10.752  20.173  0.0851  0.0468 -0.0520
62137W        W63001  23.345   8.747  17.912 -0.0953  0.1089  0.1585
62138W        W63002  23.928   9.532  20.976  0.0011 -0.1011  0.3433
62139W        W63003  22.270   8.588  17.422  0.0056 -0.2023  0.1085
62140W        W63004  26.242  10.007  23.339  0.1442 -0.0067  0.2748
62141W        W63005  23.990   8.905  17.987 -0.1145  0.1645 -0.0695
62142W        W63006  27.408   9.928  18.800 -0.3126 -0.0006  0.1869
62143W        W63007  26.140   9.812  23.783  0.0647 -0.1642 -0.2114
62144W        W63008  24.409  10.468  19.178 -0.0292 -0.1914 -0.1541
62145W        W63009  23.964   9.884  21.534  0.0746 -0.1322  0.1023
62146W        W63010  22.921   5.510  20.799 -0.1831  0.0217  0.0863
62147W        W63011  23.778   7.619  18.854  0.3145  0.0978 -0.2135
62148W        W63012  24.249   7.723  18.019  0.0661 -0.1471 -0.0762
62149W        W63013  21.790  12.562  23.425 -0.1533  0.0074 -0.2322
62150W        W63014  22.924   9.002  18.863  0.1865  0.1690  0.4080
62151W        W63015  28.087  10.350  19.107 -0.0003  0.0347  0.1381
62152W        W63016  27.268  10.229  20.468 -0.0985 -0.2787 -0.1329
62153W        W63017  24.618   9.585  19.420 -0.1550 -0.0254 -0.2130
62154W        W63018  22.874   6.986  15.535 -0.0924 -0.0757 -0.3605
62155W        W63019  24.823  14.424  19.760 -0.3697  0.0112  0.0190
62156W        W63020  24.232   6.670  20.683 -0.0228 -0.1585  0.1939
62157W        W63021  23.933  10.357  21.922  0.0014  0.0528  0.3126
62158W        W63022  25.151   9.340  17.014  0.0037  0.2109 -0.0665
62159W        W63023  23.973  10.099  16.848 -0.4890  0.0380  0.0293
62160W        W63024  25.679   8.721  19.283 -0.0795  0.2412 -0.0222
62161W        W63025  21.131   8.538  21.327 -0.1137  0.0451 -0.0174
62162W        W63026  22.043  11.244  22.215 -0.0226  0.0499  0.1183
62163W        W63027  24.744  10.671  20.992  0.1074  0.2071 -0.1327
62164W        W63028  24.027   9.049  18.692 -0.1189 -0.0849  0.1419
62165W        W63029  24.977  13.182  20.272  0.0741 -0.0103  0.1334
62166W        W63030  28.881  11.367  21.359 -0.1059  0.2361  0.1529
62167W        W63031  24.628   8.374  18.505 -0.0084 -0.3366 -0.1710
62168W        W63032  26.216   6.125  23.737 -0.1137 -0.0451  0.1094
62169W        W63033  22.739   9.135  20.867 -0.0517 -0.1729 -0.4389
62170W        W63034  21.866   7.211  17.883 -0.1076 -0.2096 -0.0843
62171W        W63035  24.281   9.380  18.493  0.2330  0.1839 -0.2334
62172W        W63036  26.705   7.665  19.152  0.1447  0.0232  0.2074
62173W        W63037  24.033   8.114  17.766  0.1292  0.2638 -0.2453
62174W        W63038  25.063  11.574  17.691  0.1474 -0.3766 -0.0403
62175W        W63039  26.331  10.047  18.476  0.0578  0.0455 -0.2281
62176W        W63040  26.233   9.225  18.396  0.2790 -0.0638 -0.1029
62177W        W63041  24.627   6.800  18.446 -0.0344  0.2322 -0.2343
62178W        W63042  20.779   9.746  18.606  0.0073 -0.1872 -0.1513
62179W        W63043  27.844   8.946  19.783 -0.2762 -0.5124 -0.2103
62180W        W63044  25.892   9.116  18.757 -0.0775  0.0199 -0.0472
62181W        W63045  25.961   8.738  21.372  0.1310 -0.2658 -0.2542
62182W        W63046  24.477  11.028  19.468 -0.1941 -0.1550 -0.0668
62183W        W63047  23.824   8.740  23.651  0.0835 -0.2265 -0.0971
62184W        W63048  22.716  12.035  20.502 -0.3010 -0.0464 -0.1870
62185W        W63049  23.532   7.929  16.815 -0.3267  0.2904 -0.0067
62186W        W63050  26.189   7.219  18.936  0.2476 -0.1804 -0.1391
62187W        W63051  17.305   8.539  19.949 -0.2113 -0.1021  0.0326
62188W        W63052  23.678   6.900  18.105 -0.0545 -0.2090 -0.0494
62189W        W63053  23.426   8.047  21.354  0.3456 -0.1677  0.1348
62190W        W63054  27.727   9.175  19.065 -0.2388 -0.2968 -0.0985
62191W        W63055  26.864   7.370  20.561 -0.1464  0.1180 -0.2324
62192W        W63056  22.775  10.976  18.881  0.4175  0.3878  0.1862
62193W        W63057  22.986   6.322  17.910 -0.1975  0.1744 -0.0208
62194W        W63058  20.912  11.960  16.855  0.0872  0.0716  0.1394
62195W        W63059  23.442  10.358  16.935  0.1140 -0.2828  0.1236
62196W        W63060  24.992  10.962  20.537 -0.0221  0.0583 -0.0139
62197W        W63061  23.930   8.587  19.273  0.0833  0.0366 -0.0167
62198W        W63062  27.381   8.864  21.431  0.0233  0.3194  0.2031
62199W        W63063  25.424  11.195  19.512  0.5038 -0.0777 -0.2914
62200W        W63064  25.333  11.453  18.573  0.0658 -0.2053  0.1474
62201W        W63065  23.960  10.330  21.311  0.0717 -0.1217 -0.2590
62202W        W63066  25.518   9.026  19.682 -0.1978 -0.0406 -0.0445
62203W        W63067  23.152   9.402  18.602 -0.1354 -0.2430  0.0551
62204W        W63068  25.023   9.233  19.706 -0.1572 -0.0363  0.0924
62205W        W63069  22.896   4.999  15.784 -0.2331 -0.1363  0.0819
62206W        W63070  23.093  10.013  21.485 -0.1101  0.0201 -0.1988
62207W        W63071  24.562   8.029  19.398 -0.3879 -0.3273  0.1126
62208W        W63072  20.163  10.728  18.280 -0.1003 -0.0876 -0.0209
62209W        W63073  24.178   9.029  19.188  0.1781 -0.1165  0.2111
62210W        W63074  21.175   6.798  16.816 -0.0166 -0.0985 -0.1153
62211W        W63075  24.795   7.093  19.861 -0.0586  0.1548  0.0144
62212W        W63076  21.598   8.605  23.134 -0.0955  0.0570  0.0433
62213W        W63077  25.059   7.916  20.070  0.3008 -0.1717  0.2583
62214W        W63078  24.907   9.618  22.480  0.0814 -0.0644  0.1431
62215W        W63079  24.917  10.480  22.952 -0.1074  0.0051 -0.1000
62216W        W63080  22.263   7.707  21.713  0.0368 -0.1671  0.3077
62217W        W63081  21.777   8.042  18.547 -0.1276 -0.1173  0.1837
62218W        W63082  21.986  10.095  18.368 -0.0399  0.0754  0.2439
62219W        W63083  21.950  10.839  18.107 -0.2687  0.1018  0.1048
62220W        W63084  23.533   9.631  21.366 -0.1723  0.1271  0.3713
62221W        W63085  22.979   8.362  21.342  0.1057  0.0927 -0.1958
62222W        W63086  25.971   9.680  22.402 -0.1110  0.0255 -0.0134
62223W        W63087  26.953   8.666  20.322  0.0222  0.3150 -0.0094
62224W        W63088  23.623   8.631  20.398 -0.0197 -0.0798 -0.1421
62225W        W63089  22.940  11.928  19.549  0.1754 -0.1825  0.0560
62226W        W63090  23.585   5.109  17.278 -0.0018 -0.2350 -0.1914
62227W        W63091  24.648   7.325  18.100 -0.3248  0.3290  0.1601
62228W        W63092  21.500  11.522  21.558  0.2205  0.1564 -0.0451
62229W        W63093  25.153   8.517  21.930  0.0955  0.0682 -0.0195
62230W        W63094  23.573  11.580  18.838  0.1002  0.3361 -0.0970
62231W        W63095  24.772   9.974  17.757 -0.3396  0.5179  0.1179
62232W        W63096  25.538   8.914  20.148  0.1529 -0.1197 -0.2503
62233W        W63097  25.412  10.865  17.953 -0.2303 -0.0907 -0.2477
62234W        W63098  23.042  10.057  18.661  0.1807  0.3456 -0.2151
62235W        W63099  25.003  10.426  17.924  0.1885 -0.2944  0.0812
62236W        W63100  23.133   7.153  16.117  0.2910 -0.1113 -0.0600
62237W        W63101  25.530  11.278  21.021 -0.1953  0.0466 -0.0612
62238W        W63102  26.213   6.860  18.581  0.1462 -0.0689  0.3386
62239W        W63103  22.545   8.372  20.507 -0.3678  0.0439  0.5567
62240W        W63104  22.420  11.798  20.853  0.1306  0.1196 -0.0316
62241W        W63105  25.709  10.535  20.720 -0.0152 -0.1263  0.2065
62242W        W63106  22.657   7.869  18.845 -0.3578  0.1196  0.1650
62243W        W63107  19.534  11.005  18.959  0.3128  0.2917 -0.3648
62244W        W63108  24.445   9.827  22.211  0.0211  0.0677  0.1104
62245W        W63109  23.367   5.802  20.645 -0.1576 -0.0921  0.2222
62246W        W63110  23.672   5.802  21.949  0.3802 -0.2763  0.1352
62247W        W63111  23.586   7.947  20.395  0.1603  0.1171 -0.0192
62248W        W63112  25.197   4.903  19.475  0.2298 -0.1065 -0.0331
62249W        W63113  22.736   6.878  20.755  0.2041  0.3005  0.3539
62250W        W63114  22.501   9.489  19.919  0.0380  0.2266 -0.1022
62251W        W63115  26.994   8.305  20.702  0.5523  0.3378 -0.0456
62252W        W63116  24.356  10.780  14.283 -0.2064 -0.1494 -0.0938
62253W        W63117  25.216   7.038  19.500  0.1184  0.0245  0.0238
62254W        W63118  24.666   8.930  15.951  0.0276  0.4163 -0.3012
62255W        W63119  22.837   7.297  15.042 -0.3324 -0.0938  0.5938
62256W        W63120  23.840   7.058  19.980  0.1198  0.0456 -0.3229
62257W        W63121  19.081   9.603  19.130 -0.1842 -0.2525  0.2960
62258W        W63122  23.300   9.334  22.100  0.1107 -0.2218 -0.1236
62259W        W63123  25.504   7.044  18.721  0.1279  0.2935  0.1408
62260W        W63124  23.076  11.739  17.382  0.1161  0.0115 -0.0263
62261W        W63125  23.149   7.494  21.056  0.1410 -0.0321 -0.1869
62262W        W63126  24.616   7.331  21.754  0.4166  0.2660  0.0165
62263W        W63127  20.795   9.238  18.615  0.2131 -0.0703 -0.2017
62264W        W63128  21.948   8.757  20.942 -0.0201 -0.0659  0.2186
62265W        W63129  26.783   8.405  23.384 -0.2727  0.1202  0.1473
62266W        W63130  26.080   9.531  21.581 -0.1406 -0.0422  0.1739
62267W        W63131  26.695  11.376  16.650 -0.3528  0.1244 -0.0199
62268W        W63132  21.895  10.203  17.309  0.2179 -0.1192 -0.2854
62269W        W63133  27.248  13.614  20.879 -0.0441 -0.1101 -0.0271
62270W        W63134  25.913   8.098  20.165 -0.0555 -0.0896  0.0860
62271W        W63135  26.831  10.154  20.192  0.1196  0.0127  0.0358
62272W        W63136  25.757   7.121  21.590 -0.1409  0.3338 -0.3378
62273W        W63137  26.391   9.199  20.674  0.0921  0.0723 -0.0586
62274W        W63138  21.557  11.546  22.684 -0.4252 -0.3198 -0.1315
62275W        W63139  21.621   8.372  18.165 -0.0911  0.0182  0.0028
62276W        W63140  24.644  10.852  17.915 -0.1962  0.1835  0.0351
62277W        W63141  25.119   7.099  20.824 -0.0224  0.0209 -0.1771
62278W        W63142  26.506   8.944  21.107  0.0647 -0.4586 -0.0576
62279W        W63143  25.033  12.068  17.725  0.2619 -0.0951 -0.2561
62280W        W63144  24.532   9.758  18.179  0.1212  0.0237 -0.0014
62281W        W63145  27.265   9.205  20.562  0.0201  0.0096  0.2055
62282W        W63146  24.532   9.030  20.308 -0.1010  0.1452 -0.1641
62283W        W63147  25.346  10.341  20.333  0.1039 -0.2550 -0.1474
62284W        W63148  23.462   8.473  15.984  0.0270  0.1676  0.0388
62285W        W63149  24.284   7.111  18.773  0.0505  0.0222  0.0558
62286W        W63150  22.232   7.980  20.844 -0.0168  0.0775  0.2526
62287W        W63151  24.629  10.146  20.772 -0.2420  0.0564  0.2309
62288W        W63152  27.886   5.699  20.256  0.0473 -0.1535  0.1234
62289W        W63153  23.591   6.965  19.579  0.0097  0.2405 -0.2116
62290W        W63154  23.733   9.988  20.542 -0.0385  0.1544  0.0575
62291W        W63155  26.728  10.832  20.902 -0.0783  0.0863 -0.0346
62292W        W63156  25.832  11.171  19.086  0.4229 -0.1940  0.0512
62293W        W63157  22.149   9.979  22.745 -0.0433  0.3805  0.1587
62294W        W63158  22.188   9.064  21.670  0.0397 -0.1157 -0.2191
62295W        W63159  22.632   8.563  19.002  0.2230  0.7088 -0.0815
62296W        W63160  25.106   6.650  21.130  0.0154  0.1152 -0.3355
62297W        W63161  23.737   9.819  15.418  0.0878 -0.2480  0.2942
62298W        W63162  26.414   8.962  19.550 -0.0647 -0.3432 -0.0905
62299W        W63163  21.043   9.600  19.434  0.0446  0.1057  0.1287
62300W        W63164  25.577  11.058  18.713 -0.1414 -0.0171  0.1300
62301W        W63165  20.419   9.222  17.802 -0.0457 -0.0668 -0.1510
62302W        W63166  20.625   8.425  21.249 -0.1989  0.1653  0.1693
62303W        W63167  24.210  12.350  22.917  0.2328 -0.2700 -0.3867
62304W        W63168  24.249  13.805  21.537  0.1912  0.2118  0.1173
62305W        W63169  24.564   7.925  20.249  0.0056 -0.2186  0.1758
62306W        W63170  20.469  10.321  16.160 -0.0326 -0.0532  0.1513
62307W        W63171  25.051   8.208  18.255  0.0068  0.0748 -0.3379
62308W        W63172  25.821  10.349  16.745  0.1856 -0.0751 -0.1311
62309W        W63173  22.631   4.594  22.581  0.0828  0.2917 -0.1716
62310W        W63174  24.892   9.841  19.047  0.1287 -0.1787 -0.2668
62311W        W63175  23.338   8.374  16.978  0.0608  0.0087  0.0185
62312W        W63176  18.219  10.439  17.896  0.1341 -0.1276 -0.1020
62313W        W63177  23.185   9.850  21.051  0.4429  0.2191  0.0838
62314W        W63178  26.593  12.662  22.176 -0.0852 -0.0515 -0.0508
62315W        W63179  23.649   9.396  21.747 -0.0191 -0.5012 -0.0825
62316W        W63180  26.245  10.621  20.710  0.1322  0.0230  0.1877
62317W        W63181  22.067  10.311  19.305  0.1264 -0.1259 -0.0464
62318W        W63182  22.637  10.977  21.378 -0.1062 -0.0998 -0.2042
62319W        W63183  23.165  10.758  16.594  0.0611  0.3426 -0.0116
62320W        W63184  23.436   8.313  22.655 -0.1345 -0.2635 -0.0090
62321W        W63185  27.880   8.436  17.641 -0.1189 -0.2247 -0.0191
62322W        W63186  25.753   9.487  20.187  0.0790  0.0751  0.0533
62323W        W63187  22.642  11.004  19.800 -0.1058 -0.1226 -0.0702
62324W        W63188  23.155   4.160  18.792  0.1034  0.0764  0.0567
62325W        W63189  24.718   6.099  20.112  0.1210 -0.0850  0.1183
62326W        W63190  26.480   9.794  18.972 -0.2260 -0.1396 -0.1729
62327W        W63191  23.928   9.691  18.916  0.2111 -0.1258 -0.1379
62328W        W63192  21.489   8.885  24.358  0.0855 -0.0394 -0.3290
62329W        W63193  23.908   9.815  22.024 -0.0603 -0.0481  0.2213
62330W        W63194  21.622   7.804  17.970 -0.1768  0.2211  0.2235
62331W        W63195  22.685  11.534  21.207 -0.1939  0.0565 -0.1876
62332W        W63196  24.981   8.124  19.055 -0.3398  0.1857  0.0168
62333W        W63197  20.928   5.354  17.617  0.1581 -0.1693 -0.0299
62334W        W63198  23.920   9.131  19.679 -0.3417 -0.2377  0.1283
62335W        W63199  23.017  13.291  19.947 -0.2981 -0.0845 -0.0373
62336W        W63200  23.575   9.133  17.675 -0.0670  0.2219  0.2216
62337W        W63201  27.279   6.272  21.971 -0.0046 -0.1121 -0.0223
62338W        W63202  25.917   8.600  20.297  0.1061 -0.0624 -0.0142
62339W        W63203  22.653   9.943  21.121  0.2694 -0.0302  0.0425
62340W        W63204  25.847   4.541  17.821  0.2328 -0.2329 -0.0719
62341W        W63205  24.226  10.074  16.393 -0.0407 -0.1364  0.0815
62342W        W63206  21.940   8.850  17.010  0.2096  0.0942  0.0715
62343W        W63207  24.158   8.602  18.550  0.1114 -0.2313  0.3936
62344W        W63208  24.549   5.653  21.617  0.3040  0.1531  0.1041
62345W        W63209  22.951   9.358  19.558 -0.1722 -0.1352  0.0246
62346W        W63210  21.924  11.305  19.244  0.0633  0.1078  0.5226
62347W        W63211  25.443   9.527  19.712 -0.3273  0.1937 -0.0836
62348W        W63212  21.978   7.486  19.830 -0.1971  0.1952  0.2834
62349W        W63213  28.323  11.897  20.303  0.3379  0.1755  0.0125
62350W        W63214  26.394   8.645  17.951  0.3184  0.1742 -0.0050
62351W        W63215  22.444  10.255  18.581  0.0209 -0.0824 -0.1012
62352W        W63216  23.905  10.966  19.587 -0.0201 -0.0974 -0.0003
62353W        W63217  24.756   9.221  20.683  0.2486 -0.1027 -0.0803
62354W        W63218  23.254   9.801  20.402  0.0271 -0.2651  0.3587
62355W        W63219  24.956   9.112  18.726  0.0183 -0.2715  0.0400
62356W        W63220  22.882  10.370  16.954  0.0509 -0.0125 -0.4339
62357W        W63221  25.097  11.444  20.044  0.0863  0.4910 -0.3323
62358W        W63222  24.178  11.948  22.293  0.1015 -0.0699  0.2393
62359W        W63223  22.314   5.537  16.986  0.1884 -0.1047 -0.1613
62360W        W63224  24.294   8.766  19.625 -0.3782 -0.1425 -0.0322
62361W        W63225  23.409  10.212  19.563 -0.0183  0.1995  0.0138
62362W        W63226  18.222   8.479  18.958  0.1297 -0.2215  0.2290
62363W        W63227  26.059   8.751  22.292 -0.0513 -0.0663 -0.2202
62364W        W63228  25.630   9.796  18.346  0.1852  0.0328  0.2405
62365W        W63229  25.482   6.677  19.117  0.1815 -0.1661 -0.0480
62366W        W63230  22.300  11.328  20.849 -0.2449 -0.1958  0.3817
62367W        W63231  24.969  11.230  22.575 -0.3370  0.1556 -0.0756
62368W        W63232  21.837   8.877  17.536 -0.1367  0.2089  0.2575
62369W        W63233  26.616   8.715  18.405 -0.1719  0.2126  0.1033
62370W        W63234  26.679   8.648  19.797 -0.2038 -0.0976  0.1195
62371W        W63235  26.766   9.224  19.854 -0.0098 -0.0874  0.5125
62372W        W63236  20.778  10.540  19.508 -0.3662 -0.0442 -0.1552
62373W        W63237  26.067  12.247  18.507 -0.3704  0.0661 -0.1313
62374W        W63238  26.009  10.138  20.896  0.0225 -0.0815 -0.2875
62375W        W63239  23.995   9.811  18.406 -0.0886  0.2123 -0.3058
62376W        W63240  22.614   9.988  20.098  0.0587 -0.0008  0.2899
62377W        W63241  22.496  13.456  21.298 -0.0187  0.0410  0.1107
62378W        W63242  22.025   7.471  19.294  0.2599 -0.0286  0.0812
62379W        W63243  20.563  10.899  18.495  0.0114 -0.0158  0.1226
62380W        W63244  22.526   9.471  18.047 -0.0988 -0.1168 -0.1287
62381W        W63245  22.207   9.515  21.501 -0.2295  0.0752  0.0496
62382W        W63246  22.277   6.758  19.860  0.0542  0.0899  0.0672
62383W        W63247  23.933   9.286  17.054  0.0729  0.3381  0.1839
62384W        W63248  24.140   8.934  21.183  0.1783  0.2140  0.1411
62385W        W63249  21.579  12.252  20.250  0.3126 -0.0315  0.2898
62386W        W63250  24.983   9.765  19.766 -0.0726  0.0034 -0.0743
62387W        W63251  25.416  12.414  22.653  0.0698 -0.0085  0.0792
62388W        W63252  24.118  11.596  20.143 -0.0262 -0.0430 -0.1674
62389W        W63253  27.140  10.612  18.127 -0.0845  0.0234  0.0555
62390W        W63254  28.336   8.717  20.621 -0.2434  0.0734  0.2156
62391W        W63255  21.865   7.053  19.602  0.0226  0.2275 -0.1827
62392W        W63256  23.549  11.664  20.218  0.1683  0.1229  0.1041
62393W        W63257  19.481   8.684  20.474 -0.2328  0.1132  0.0130
62394W        W63258  22.907   9.755  18.277  0.5223  0.1375 -0.4144
62395W        W63259  23.393  11.052  19.800  0.0663 -0.0520 -0.1151
62396W        W63260  26.866  12.064  19.221  0.2585 -0.0192 -0.0291
62397W        W63261  23.190  11.289  21.025  0.0250  0.2688 -0.0505
62398W        W63262  23.403   7.264  17.837 -0.0172 -0.1740 -0.0654
62399W        W63263  20.126  10.773  19.447 -0.3691  0.1904 -0.2243
62400W        W63264  25.532  10.715  19.202 -0.2867  0.1045 -0.0076
62401W        W63265  22.187   7.915  19.633 -0.0402  0.1017 -0.1057
62402W        W63266  25.162  10.430  21.266 -0.2437  0.2975 -0.0230
62403W        W63267  24.813  11.104  16.851 -0.4065 -0.1978 -0.0803
62404W        W63268  27.172   9.212  18.964  0.2471  0.0537 -0.0736
62405W        W63269  25.891  10.310  19.290  0.2746 -0.1848  0.0094
62406W        W63270  24.572  12.724  22.218 -0.0165 -0.1191  0.4084
62407W        W63271  23.718   6.160  15.241 -0.0721  0.1070 -0.1387
62408W        W63272  23.014  11.271  24.118  0.0668 -0.1182  0.0998
62409W        W63273  24.616   6.352  20.969 -0.1781  0.2977  0.3511
62410W        W63274  22.914   6.111  20.812  0.1192  0.1313  0.1483
62411W        W63275  22.410   9.754  18.436  0.1521  0.2690 -0.1528
62412W        W63276  21.979   9.059  19.656 -0.0832  0.3275  0.1536
62413W        W63277  28.506   9.076  20.099 -0.0232 -0.1087  0.0792
62414W        W63278  25.151   7.548  20.508 -0.0003  0.0651  0.0267
62415W        W63279  22.284   7.420  17.419  0.2395 -0.1854  0.0115
62416W        W63280  25.168  11.965  19.967  0.1234  0.0616 -0.0132
62417W        W63281  26.624  11.911  21.438  0.0944 -0.0171  0.2677
62418W        W63282  24.428   9.338  21.139  0.0726  0.1977  0.0910
62419W        W63283  25.591   7.663  20.229 -0.1056 -0.4369  0.1614
62420W        W63284  25.952   9.263  19.687  0.0400 -0.1598  0.0423
62421W        W63285  26.927   7.391  21.046 -0.0389 -0.1459  0.2673
62422W        W63286  22.750   8.251  17.147  0.0165 -0.0192 -0.1021
62423W        W63287  24.019   7.226  17.336  0.1899 -0.0426 -0.0696
62424W        W63288  24.143  10.088  20.845  0.0040 -0.0364  0.0062
62425W        W63289  25.276  10.062  21.731  0.3596  0.0564 -0.0013
62426W        W63290  25.620  10.638  15.349 -0.4225  0.1452 -0.1187
62427W        W63291  22.930   8.172  19.147 -0.2606 -0.2151 -0.1731
62428W        W63292  22.561   8.908  19.819 -0.1034  0.0701 -0.1967
62429W        W63293  25.979  12.644  20.601  0.0633 -0.2269 -0.1069
62430W        W63294  22.516  10.071  23.617  0.0166  0.1122  0.1449
62431W        W63295  25.098   8.642  20.350 -0.3601 -0.1275  0.0583
62432W        W63296  21.283   8.702  20.577 -0.1211 -0.0624  0.0122
62433W        W63297  19.063   7.472  19.890 -0.1118 -0.0457  0.0095
62434W        W63298  24.507   8.680  21.397  0.3003 -0.3611 -0.2153
62435W        W63299  26.425   7.883  19.884 -0.0483 -0.0767 -0.0913
62436W        W63300  24.234  11.285  21.136 -0.2158 -0.2611  0.1138
62437W        W63301  24.624   9.400  18.917  0.1916 -0.0593 -0.0436
62438W        W63302  25.794  10.866  16.792 -0.2226 -0.0216 -0.0157
62439W        W63303  24.886  11.273  21.756 -0.2478  0.2073 -0.0990
62440W        W63304  23.437   9.876  21.799 -0.1926  0.0715 -0.0974
62441W        W63305  24.319   7.299  20.529 -0.1444  0.0396  0.0554
62442W        W63306  26.868  12.673  22.941  0.0670 -0.1104 -0.2368
62443W        W63307  21.236  11.840  19.756 -0.0893 -0.0308 -0.1411
62444W        W63308  25.592   9.472  18.731  0.3433  0.3475 -0.1394
62445W        W63309  26.786   9.123  18.066 -0.0430  0.1220  0.1855
62446W        W63310  22.143   9.171  20.146  0.0923  0.1138 -0.1290
62447W        W63311  24.106   9.563  19.409  0.3100 -0.3801  0.0544
62448W        W63312  22.018   9.536  19.663 -0.0463  0.1037 -0.1600
62449W        W63313  26.501   9.557  18.209 -0.1787 -0.1485  0.3069
62450W        W63314  24.276  10.659  19.732 -0.1022 -0.3512 -0.3089
62451W        W63315  20.090  10.536  16.750 -0.1519  0.0999 -0.2030
62452W        W63316  20.570  11.345  24.953  0.0065 -0.0787  0.0585
62453W        W63317  25.067   8.783  23.661 -0.1272  0.1823 -0.2500
62454W        W63318  26.324  11.331  22.806  0.0008 -0.0133  0.0053
62455W        W63319  25.988  10.561  23.988  0.3857  0.2677 -0.0619
62456W        W63320  24.602  11.306  22.219 -0.0100  0.0334  0.5186
62457W        W63321  26.643   8.182  24.670 -0.2122 -0.1221 -0.0300
62458W        W63322  21.233   8.077  23.707 -0.0421  0.1267  0.0539
62459W        W63323  26.333  10.337  21.844 -0.2984 -0.0643 -0.0127
62460W        W63324  22.997  10.018  23.755 -0.0540 -0.4545  0.0494
62461W        W63325  20.983   5.940  23.924  0.0068  0.0473  0.0418
62462W        W63326  23.609   7.664  24.362  0.0513  0.0848 -0.1932
62463W        W63327  23.405   8.384  25.841 -0.4560 -0.2144  0.1891
62464W        W63328  25.033   8.592  21.291  0.3104 -0.2032 -0.0963
62465W        W63329  23.348   6.979  22.150  0.1560  0.0146  0.5975
62466W        W63330  24.407   8.960  22.205  0.2333  0.0041  0.0528
62467W        W63331  19.782   9.901  24.566  0.0108 -0.0209 -0.1112
62468W        W63332  25.069  10.284  19.798 -0.1204 -0.1968  0.0575
62469W        W63333  19.366  10.533  21.970 -0.4284  0.0414 -0.0372
62470W        W63334  22.058   8.309  24.903  0.0378 -0.0839 -0.0214
62471W        W63335  26.052   7.216  20.310  0.0205 -0.2163 -0.0909
62472W        W63336  25.470   9.638  23.298 -0.2279 -0.0972 -0.2946
62473W        W63337  24.776   9.382  21.563 -0.1406 -0.0816  0.0263
62474W        W63338  23.851   8.877  21.576  0.0424  0.2337 -0.2751
62475W        W63339  20.917   8.673  23.201 -0.0405 -0.1203  0.1482
62476W        W63340  21.334   8.882  22.854  0.2043  0.1234 -0.2417
62477W        W63341  24.306  10.106  23.059 -0.1129 -0.1561 -0.0862
62478W        W63342  26.359   8.869  23.450 -0.0814 -0.2425  0.1654
62479W        W63343  21.791   9.623  21.238 -0.0592 -0.1150 -0.2082
62480W        W63344  20.697  10.378  27.449  0.0595  0.4540 -0.0257
62481W        W63345  20.810   8.373  23.617  0.1577  0.3325  0.2968
62482W        W63346  20.258   8.434  23.601 -0.0995 -0.1447  0.1007
62483W        W63347  21.729   9.221  25.363 -0.1127  0.0663 -0.1906
62484W        W63348  22.938  10.000  21.981 -0.1252  0.2281  0.0465
62485W        W63349  24.910   9.520  21.036  0.0802 -0.3849 -0.1814
62486W        W63350  20.774   9.320  24.995  0.0567 -0.1208 -0.0868
62487W        W63351  24.494   8.611  27.222 -0.3729  0.0013 -0.1956
62488W        W63352  20.467   5.941  22.678  0.0079  0.0376 -0.0207
62489W        W63353  25.283   8.919  25.000  0.1861  0.2121  0.1184
62490W        W63354  24.565  11.962  22.957  0.1696  0.0490 -0.0366
62491W        W63355  24.707   8.234  21.506  0.4234 -0.3297  0.1222
62492W        W63356  25.316   6.286  20.920  0.2187 -0.0210 -0.2510
62493W        W63357  26.580   8.615  20.662 -0.1132 -0.1689 -0.3065
62494W        W63358  25.475   9.717  22.646  0.4351 -0.1517  0.0974
62495W        W63359  23.841  12.663  18.822 -0.1012  0.1736 -0.3268
62496W        W63360  23.079  10.439  22.526 -0.1427 -0.1782 -0.2379
62497W        W63361  22.337  10.485  21.458 -0.3620  0.2878  0.2526
62498W        W63362  23.595   7.845  22.714 -0.2860 -0.0247 -0.0179
62499W        W63363  27.523   8.966  23.019 -0.0115  0.0915  0.2488
62500W        W63364  26.024   8.813  19.822 -0.2818 -0.1797  0.1569
62501W        W63365  25.808   9.334  22.824  0.2353  0.1698 -0.1082
62502W        W63366  25.841  11.009  24.178  0.1065  0.0632  0.1824
62503W        W63367  25.077   7.646  25.091 -0.1287 -0.0185  0.0326
62504W        W63368  25.404  12.530  24.261  0.1531 -0.1512  0.2308
62505W        W63369  27.488   7.183  23.441 -0.1088  0.2321 -0.0218
62506W        W63370  24.365   8.095  24.051  0.2192  0.4043  0.0105
62507W        W63371  21.056  10.184  23.296 -0.1308 -0.1578 -0.2969
62508W        W63372  20.710  10.164  22.623 -0.0340  0.2175  0.1353
62509W        W63373  21.823   9.080  21.325 -0.2262 -0.1558 -0.1053
62510W        W63374  21.865  10.252  22.265 -0.0863  0.2567  0.1723
62511W        W63375  19.399  13.015  24.345  0.0375 -0.0058  0.2893
62512W        W63376  21.931   8.074  21.849  0.4138  0.0308  0.1770
62513W        W63377  23.441  10.139  23.373  0.4256 -0.0426  0.4839
62514W        W63378  23.710   6.490  25.141 -0.3420 -0.1815 -0.1148
62515W        W63379  23.639   9.977  21.009 -0.0420  0.0245  0.0095
62516W        W63380  24.519   8.109  23.549 -0.0992 -0.0190 -0.1870
62517W        W63381  24.772   8.428  22.689 -0.0183 -0.1789 -0.0990
62518W        W63382  24.017  10.703  23.702 -0.2224 -0.2024  0.2680
62519W        W63383  22.022   8.373  20.534  0.1920 -0.2102  0.1566
62520W        W63384  22.143   9.008  23.881 -0.0445  0.3285  0.1528
62521W        W63385  24.425  10.203  24.379 -0.1006  0.0294  0.3780
62522W        W63386  26.768  10.894  23.183  0.0621 -0.2653 -0.0155
62523W        W63387  24.042   9.376  21.451 -0.0214  0.0362  0.3792
62524W        W63388  24.222  10.671  24.441 -0.0158 -0.0980 -0.1920
62525W        W63389  26.673  10.135  24.613 -0.0312  0.1162  0.0207
62526W        W63390  26.167   9.901  21.994  0.0472 -0.0440 -0.0100
62527W        W63391  24.235   8.915  23.963 -0.2604  0.1052  0.3091
62528W        W63392  21.633   8.143  23.435  0.3771  0.0258 -0.0045
62529W        W63393  23.482   9.871  24.371 -0.3593 -0.1792 -0.0006
62530W        W63394  26.460  10.292  21.023  0.0546 -0.0805  0.1115
62531W        W63395  24.175  10.625  22.845 -0.2850  0.2059 -0.3443
62532W        W63396  23.046   9.591  21.745  0.3213  0.1834  0.1210
62533W        W63397  22.197   7.020  26.289 -0.1664 -0.2884  0.0580
62534W        W63398  23.128  11.592  22.436  0.0286  0.0485  0.0226
62535W        W63399  24.793   8.088  24.951  0.2425  0.2309 -0.0057
62536W        W63400  23.819   7.571  23.203 -0.5163  0.0210  0.3459
62537W        W63401  27.133   7.732  22.820 -0.0885 -0.0125 -0.0317
62538W        W63402  25.223   9.130  21.980 -0.0233  0.2088 -0.0977
62539W        W63403  25.290   7.984  24.738  0.1104  0.1257  0.0940
62540W        W63404  25.437  10.409  22.911  0.1380  0.0184 -0.0277
62541W        W63405  24.003   9.567  23.198  0.1774 -0.2250 -0.1471
62542W        W63406  25.054   8.571  24.174 -0.1840 -0.1569 -0.3608
62543W        W63407  22.378   8.451  25.971 -0.1799  0.0616 -0.2573
62544W        W63408  20.734  11.646  23.969  0.1232 -0.0151 -0.2654
62545W        W63409  22.869   7.473  19.726 -0.2197  0.0971 -0.1363
62546W        W63410  22.779   8.422  24.610 -0.1057  0.0276  0.2027
62547W        W63411  27.534   9.057  20.997 -0.2769  0.0845  0.0835
62548W        W63412   0.509   6.849  23.169 -0.0207 -0.2484  0.1710
62549W        W63413  22.773  10.383  23.292  0.0671  0.0996 -0.2467
62550W        W63414  24.925   9.725  20.602 -0.0424 -0.0475 -0.1038
62551W        W63415  28.516   7.637  25.203  0.1847  0.1912 -0.0477
62552W        W63416  28.365  10.328  24.377  0.2378 -0.1445 -0.1046
62553W        W63417  21.557  10.825  24.532  0.2790 -0.0734  0.2134
62554W        W63418  25.303   6.476  19.653  0.2196  0.0515  0.3264
62555W        W63419  24.440   9.861  26.745  0.1072  0.2071  0.2578
62556W        W63420  26.555   7.518  22.373  0.0292  0.2673 -0.2300
62557W        W63421  25.201   9.148  21.404 -0.0877 -0.2505  0.1859
62558W        W63422  23.643  10.726  24.033  0.0766  0.3148 -0.0200
62559W        W63423  22.081  10.444  26.033 -0.0109 -0.0593 -0.3251
62560W        W63424  22.635   8.999  23.871 -0.1232  0.2263 -0.1719
62561W        W63425  23.780   8.979  24.357 -0.1004  0.2148  0.3057
62562W        W63426  21.648   7.320  25.548  0.0714 -0.2303  0.0836
62563W        W63427  26.219   8.369  19.856 -0.0962 -0.2377 -0.1727
62564W        W63428  22.269   7.255  20.976  0.0457 -0.2202 -0.0105
62565W        W63429  23.187   9.809  26.289 -0.0917 -0.1034  0.1315
62566W        W63430  24.043   8.049  23.333  0.2072  0.0048 -0.1385
62567W        W63431  25.158  10.311  19.124  0.4922  0.1946  0.0853
62568W        W63432  25.818   8.088  25.297  0.0678  0.1374 -0.3649
62569W        W63433  22.739   9.007  24.689 -0.0310 -0.3131 -0.0732
62570W        W63434  22.034   8.074  22.961  0.0496  0.1167  0.1848
62571W        W63435  23.775   7.376  21.031 -0.0707 -0.0236 -0.2433
62572W        W63436  25.686   9.330  21.382 -0.0082  0.2505 -0.1394
62573W        W63437  24.696  12.819  23.542  0.1670  0.1471  0.0910
62574W        W63438  27.183   7.756  24.182 -0.0782 -0.0849  0.2553
62575W        W63439  24.039   7.204  22.847  0.0743  0.0048  0.0145
62576W        W63440  26.537   8.374  22.892  0.1513 -0.1738 -0.0778
62577W        W63441  23.122   6.990  19.893 -0.0452 -0.0502  0.1741
62578W        W63442  24.912   7.626  24.500  0.0265  0.0883 -0.0408
62579W        W63443  25.901   8.178  20.674  0.0168  0.0797 -0.0910
62580W        W63444  26.493  12.980  23.396 -0.3136 -0.2294  0.1946
62581W        W63445  23.130  11.977  23.316 -0.4675 -0.0450 -0.2884
62582W        W63446  23.906  12.901  24.092  0.0755 -0.1759  0.1110
62583W        W63447  25.761   8.444  21.979  0.2378 -0.0025  0.2891
62584W        W63448  23.942  12.051  24.758 -0.2328  0.1125 -0.0239
62585W        W63449  26.204   8.051  24.320  0.0243 -0.0183  0.0573
62586W        W63450  27.257   9.709  24.490 -0.0318  0.0319  0.0525
62587W        W63451  19.660   6.273  22.733 -0.0429  0.4437 -0.0288
62588W        W63452  25.629   8.462  21.080  0.1157 -0.0789 -0.0266
62589W        W63453  25.832   8.811  24.823 -0.0829 -0.0085 -0.0948
62590W        W63454  26.674   8.926  24.419 -0.1834  0.0694  0.2511
62591W        W63455  24.581   7.574  24.932 -0.0775 -0.2831 -0.3413
62592W        W63456  22.240   8.562  21.786 -0.1219  0.1508 -0.1091
62593W        W63457  24.882   7.979  22.416  0.0693 -0.0136 -0.1151
62594W        W63458  21.747  11.161  21.811 -0.1858 -0.3089 -0.0440
62595W        W63459  26.582   8.310  20.215  0.1796  0.2793  0.0736
62596W        W63460  23.810   9.621  22.686  0.3647  0.2260  0.0491
62597W        W63461  25.545   7.459  21.150 -0.1741 -0.0867  0.1355
62598W        W63462  25.061   8.154  23.065  0.1264 -0.2470  0.1198
62599W        W63463  24.514   9.907  24.024  0.2578  0.3228  0.1771
62600W        W63464  22.651  10.713  24.225 -0.0528  0.1085 -0.2654
62601W        W63465  24.883   9.930  24.976  0.0820 -0.0472 -0.2345
62602W        W63466  26.243  12.690  22.580  0.1439 -0.3177  0.0739
62603W        W63467  25.967   8.091  23.662 -0.1014  0.3168  0.3039
62604W        W63468  24.083  12.093  23.372 -0.2674  0.0791  0.1306
62605W        W63469  22.113   8.979  22.514 -0.0248  0.0297  0.1755
62606W        W63470  23.916   8.174  24.985 -0.0023  0.0963  0.0496
62607W        W63471  20.507   5.742  25.004  0.1073 -0.1973  0.2845
62608W        W63472  20.939   9.659  24.690 -0.1939  0.4267  0.1504
62609W        W63473  24.257   6.035  19.692 -0.0149 -0.2743  0.2871
62610W        W63474  22.366  10.814  22.128 -0.1677  0.1895 -0.1005
62611W        W63475  26.736   9.630  21.870  0.0315 -0.2314  0.0151
62612W        W63476  28.430   7.327  25.675  0.0367 -0.0049 -0.1470
62613W        W63477  20.326  10.154  25.302 -0.4025  0.1824 -0.1722
62614W        W63478  27.217   9.885  23.356  0.0998 -0.1265  0.1945
62615W        W63479  26.276  11.184  24.607  0.0133 -0.3762 -0.1381
62616W        W63480  25.443   8.768  22.248  0.1166  0.0977 -0.1368
62617W        W63481  25.476   8.479  23.851  0.1105 -0.0414  0.4565
62618W        W63482  22.001   9.522  24.019  0.1840  0.1409  0.3313
62619W        W63483  23.395  10.040  22.717  0.0684  0.0478  0.0786
62620W        W63484  21.032  12.157  25.932  0.1803  0.3362 -0.1365
62621W        W63485  22.291  10.349  20.263  0.0844 -0.0117 -0.0439
62622W        W63486  24.167   6.133  21.556  0.1457 -0.0186  0.0976
62623W        W63487  25.538   9.831  20.601  0.1253 -0.0121 -0.0694
62624W        W63488  22.868   9.524  20.212  0.0417  0.2708  0.0504
62625W        W63489  23.318  11.088  22.991  0.0940  0.3450 -0.3616
62626W        W63490  23.373   7.961  23.136 -0.2849 -0.0938 -0.1774
62627W        W63491  26.527   8.060  21.176 -0.1666 -0.1710 -0.2465
62628W        W63492  22.150  11.212  23.801 -0.0469  0.1436 -0.1844
62629W        W63493  24.600   9.425  23.223  0.1742 -0.1541 -0.0260
62630W        W63494  20.737   8.745  22.683 -0.0113 -0.0220 -0.1277
62631W        W63495  21.400   5.733  23.965  0.3219 -0.1840  0.0317
62632W        W63496  22.808  10.390  21.327  0.1018  0.0661  0.2032
62633W        W63497  25.072  12.075  22.353  0.2144  0.0915 -0.2889
62634W        W63498  22.433   9.162  23.003  0.1628  0.2414 -0.1183
62635W        W63499  25.373   6.719  20.669 -0.3703 -0.0789  0.0695
62636W        W63500  23.468   8.895  21.908 -0.1645 -0.0389  0.0955
62637W        W63501  22.554  11.433  24.246 -0.1867  0.0201 -0.0878
62638W        W63502  25.831   6.398  19.359  0.0244 -0.1213 -0.1569
62639W        W63503  24.236   8.556  23.430  0.1776  0.1502 -0.1417
62640W        W63504  25.799   8.561  23.134  0.3492  0.1171 -0.0562
62641W        W63505  23.688  11.762  23.261  0.2018  0.1092 -0.2493
62642W        W63506  27.134  12.225  25.021 -0.0792  0.3435  0.2480
62643W        W63507  24.817  10.336  21.605 -0.0023 -0.0154  0.2451
62644W        W63508  24.242   7.145  23.301  0.1729 -0.0313  0.2895
62645W        W63509  22.028   7.309  22.483  0.1645 -0.0988  0.1967
62646W        W63510  23.522   6.480  22.082 -0.0620  0.1078 -0.2252
62647W        W63511  22.321  10.365  21.913 -0.3438 -0.2138 -0.0024
62648W        W63512  24.083   5.505  19.922  0.2515  0.0263 -0.1855
62649W        W63513  22.462   7.341  24.051 -0.1875  0.1216  0.1089
62650W        W63514  22.845  10.189  20.691  0.2009  0.3187 -0.0071
62651W        W63515  26.724  10.066  22.079 -0.2515  0.1625  0.1418
62652W        W63516  22.671  10.349  22.256  0.0277 -0.0230 -0.1027
62653W        W63517  25.048   7.409  23.840 -0.0789  0.0354 -0.0719
62654W        W63518  26.585  11.759  22.924 -0.0793  0.4786 -0.3540
62655W        W63519  21.606   8.981  22.448  0.0934  0.1287 -0.0151
62656W        W63520  26.694   9.440  22.912 -0.1062  0.0143 -0.0720
62657W        W63521  21.448   9.068  23.329  0.0978  0.2418 -0.0224
62658W        W63522  24.454  10.178  25.007 -0.2038 -0.0663  0.1213
62659W        W63523  24.484  11.799  23.696 -0.0565  0.1568 -0.2513
62660W        W63524  24.199  11.292  21.655  0.3372 -0.0473  0.2390
62661W        W63525  22.726   8.489  20.063 -0.1414 -0.1568 -0.3476
62662W        W63526  23.381  10.624  24.598 -0.0019 -0.0491 -0.2793
62663W        W63527  24.981   8.579  25.301  0.0822 -0.0175  0.0876
62664W        W63528  24.184   8.465  22.942 -0.0021 -0.3198  0.0014
62665W        W63529  26.110   6.391  25.414  0.1481 -0.0649  0.1883
62666W        W63530  23.300  12.886  23.710 -0.3029  0.0789  0.0371
62667W        W63531  23.208  13.408  22.961 -0.0725 -0.0611  0.2331
62668W        W63532  24.770  11.852  20.311  0.0437  0.0380 -0.1084
62669W        W63533  24.748  12.842  20.006  0.3161 -0.0278  0.0104
62670W        W63534  24.215   8.819  25.387  0.1380  0.1391 -0.0003
62671W        W63535  25.217  12.771  26.468  0.0539 -0.2501  0.2202
62672W        W63536  25.290   7.793  24.175  0.1695 -0.3380 -0.1405
62673W        W63537  26.436   8.531  21.476 -0.1223 -0.0087  0.1112
62674W        W63538  24.097   9.322  24.176  0.1574  0.1181  0.2882
62675W        W63539  23.488   9.051  20.145  0.0539  0.1448  0.1696
62676W        W63540  26.816  11.145  24.622 -0.1511  0.0546 -0.2213
62677W        W63541  25.902   9.081  23.230 -0.0305  0.1239 -0.1739
62678W        W63542  20.976  10.909  25.371 -0.1699 -0.1212  0.0208
62679W        W63543  26.799   7.973  23.117  0.1292 -0.1086 -0.0124
62680W        W63544  25.247   8.217  20.880  0.0982  0.0486  0.0628
62681W        W63545  24.228  10.999  23.365 -0.2776  0.0235 -0.3209
62682W        W63546  21.155   6.949  24.555 -0.0047 -0.0351  0.0195
62683W        W63547  24.423   9.050  24.566  0.3638 -0.0739  0.0140
62684W        W63548  20.613   9.398  23.426  0.0328  0.0199  0.0221
62685W        W63549  24.551  10.972  21.376  0.0854 -0.0878  0.1812
62686W        W63550  19.403   4.670  24.733 -0.1450 -0.1004  0.3895
62687W        W63551  25.147  10.094  22.692  0.0308 -0.2102  0.0061
62688W        W63552  27.726   8.228  19.024 -0.0506 -0.1578  0.0012
62689W        W63553  24.781   9.848  23.013 -0.0284  0.2311  0.1358
62690W        W63554  23.973  10.106  25.279  0.3247 -0.2301 -0.4060
62691W        W63555  25.156  12.511  22.161  0.0687  0.0819 -0.1402
62692W        W63556  24.338   9.575  21.805  0.1369 -0.0864 -0.0539
62693W        W63557  23.204   7.912  23.762  0.2674  0.0005 -0.1598
62694W        W63558  22.434   7.666  25.980  0.0222  0.3105  0.2093
62695W        W63559  23.632   8.549  24.588  0.1752  0.0831 -0.1116
62696W        W63560  24.962   6.672  26.326  0.1192  0.1851 -0.0152
62697W        W63561  23.550  10.739  21.271  0.0486 -0.0460  0.2776
62698W        W63562  21.350   9.891  24.601  0.0078 -0.1208  0.5951
62699W        W63563  21.898   8.671  24.126  0.1880 -0.0415 -0.1242
62700W        W63564  23.728  13.338  23.204 -0.0534  0.3314  0.0166
62701W        W63565  26.762   9.930  23.162 -0.0977  0.0599  0.1664
62702W        W63566  20.401   6.308  24.806 -0.1660  0.3072  0.3545
62703W        W63567  22.656  10.207  24.130  0.0925 -0.2477  0.2347
62704W        W63568  23.366  11.140  24.477 -0.0230 -0.4212  0.0941
62705W        W63569  25.021  10.275  27.422 -0.1204 -0.2168  0.1157
62706W        W63570  25.593   7.267  20.681 -0.0077  0.0745 -0.1694
62707W        W63571  26.053   7.535  19.831  0.3413 -0.1151  0.1421
62708W        W63572  27.169   8.088  21.990 -0.3177 -0.1784 -0.0788
62709W        W63573  22.056   6.410  21.310 -0.1519  0.0765  0.0689
62710W        W63574  25.181  10.111  23.268 -0.0415  0.1387 -0.2237
62711W        W63575  26.267   9.371  22.073 -0.2004  0.1407 -0.1327
62712W        W63576  24.633  11.429  23.029  0.1524  0.0952 -0.0755
62713W        W63577  23.834   8.612  22.148 -0.0223  0.1734 -0.0979
62714W        W63578  24.808   9.876  24.446 -0.0158 -0.0050  0.2335
62715W        W63579  24.105   9.386  25.598  0.0353  0.0390 -0.1324
62716W        W63580  21.597  12.072  23.306  0.2407  0.2250  0.1968
62717W        W63581  21.824   7.771  25.526 -0.1208 -0.2788 -0.2233
62718W        W63582  26.873  11.348  19.928  0.5191 -0.2070 -0.0066
62719W        W63583  23.770  11.609  21.496 -0.0223  0.0797 -0.0583
62720W        W63584  22.433   8.577  25.478 -0.2732 -0.1054  0.0439
62721W        W63585  25.217   9.593  20.184 -0.0446 -0.1310  0.2626
62722W        W63586  25.306   9.352  18.248  0.0664 -0.1202 -0.0091
62723W        W63587  24.541   8.373  25.413  0.2504 -0.0931  0.0647
62724W        W63588  25.678  10.051  23.195  0.0154 -0.1468  0.0591
62725W        W63589  23.396   6.965  24.542 -0.0638  0.1230 -0.0765
62726W        W63590  23.806  10.006  22.964  0.1016 -0.2011 -0.0674
62727W        W63591  26.592   7.406  23.486  0.0924 -0.1954  0.0353
62728W        W63592  21.755   6.847  25.430 -0.0883 -0.0235  0.1179
62729W        W63593  24.874   6.349  22.890 -0.1208 -0.2799 -0.2696
62730W        W63594  25.289   8.669  23.214  0.2619  0.2743  0.2828
62731W        W63595  23.890   8.085  24.473 -0.2353  0.0772  0.0163
62732W        W63596  25.783   9.702  24.431  0.1582 -0.0832  0.2157
62733W        W63597  24.769   7.378  20.732  0.2543 -0.1892  0.1933
62734W        W63598  24.339   7.817  21.565  0.2031 -0.1613  0.0249
62735W        W63599  21.939  10.848  22.588  0.0894 -0.0476  0.3900
62736W        W63600  26.236  10.745  21.197 -0.2374 -0.0341 -0.0540
62737W        W63601  25.258   8.898  26.642 -0.0906 -0.0253  0.1363
62738W        W63602  24.719  11.164  23.423  0.1126 -0.0690  0.2255
62739W        W63603  19.500   8.002  26.333  0.1863 -0.0001 -0.0641
62740W        W63604  24.764   6.932  20.457 -0.0332  0.0129  0.0267
62741W        W63605  26.244  13.322  22.489  0.3306 -0.2298  0.3646
62742W        W63606  24.138   8.564  20.614  0.3020 -0.1450  0.0065
62743W        W63607  27.577   8.032  20.897 -0.4202 -0.0608 -0.0655
62744W        W63608  24.254   8.359  21.095  0.1528  0.0630  0.1004
62745W        W63609  21.450   8.942  23.813 -0.1612 -0.0463 -0.1987
62746W        W63610  24.718   9.479  20.170  0.2893  0.1189 -0.5066
62747W        W63611  26.231  11.063  25.348  0.2026  0.1655  0.1580
62748W        W63612  24.092   8.969  25.865 -0.0224 -0.0838 -0.4958
62749W        W63613  27.352  10.902  23.078 -0.2745  0.2466 -0.0206
62750W        W63614  25.802   7.916  24.059  0.1101  0.3509 -0.0674
62751W        W63615  21.878  10.700  23.311 -0.2589  0.0350 -0.4370
62752W        W63616  22.733   8.509  23.563 -0.4163 -0.2882 -0.3282
62753W        W63617  20.842   8.842  24.322 -0.3383 -0.1103 -0.0414
62754W        W63618  23.913   8.866  27.197  0.0566  0.4007 -0.1873
62755W        W63619  23.781  12.463  23.213  0.3120 -0.1391 -0.2421
62756W        W63620  25.293   9.268  20.677 -0.4417  0.4288 -0.1072
62757W        W63621  23.683  10.922  24.908 -0.1739 -0.2011 -0.2139
62758W        W63622  24.858   9.400  26.256  0.2029  0.2773  0.2146
62759W        W63623  24.091   6.157  22.120  0.1390  0.3217 -0.0092
62760W        W63624  24.529   8.120  23.004 -0.0421  0.0340  0.1221
62761W        W63625  19.884  11.650  24.194 -0.1394 -0.0183 -0.0741
62762W        W63626  23.326   8.916  25.820 -0.1423  0.0690  0.0374
62763W        W63627  22.419   8.035  24.679 -0.0940  0.3085  0.1196
62764W        W63628  23.968   9.075  22.034 -0.1422 -0.1927  0.5367
62765W        W63629  23.472  11.190  23.999  0.0740 -0.2301  0.2739
62766W        W63630  24.947  10.197  22.214 -0.0783 -0.2073 -0.1721
62767W        W63631  21.551   6.505  24.112  0.3198 -0.0951 -0.0463
62768W        W63632  26.072   6.756  21.225  0.1887 -0.0136 -0.0563
62769W        W63633  23.832   8.424  18.261  0.0972  0.2279 -0.0008
62770W        W63634  25.307   9.915  23.749  0.1025  0.1590  0.0506
62771W        W63635  22.377   9.322  24.294 -0.2977  0.1006  0.1250
62772W        W63636  21.944  10.534  24.745  0.2834 -0.1102  0.3813
62773W        W63637  26.248  11.467  21.721  0.1599  0.2014 -0.1245
62774W        W63638  24.028   9.619  25.076  0.0582  0.1686 -0.0376
62775W        W63639  25.524   8.954  23.574  0.2804 -0.1565 -0.0626
62776W        W63640  22.266  10.414  22.534  0.0020  0.2984 -0.4350
62777W        W63641  22.860   9.532  22.951  0.0873  0.0259  0.0180
62778W        W63642  21.456   7.884  22.137  0.0959 -0.2043  0.1780
62779W        W63643  21.086  10.671  20.038  0.0982 -0.3057 -0.0230
62780W        W63644  25.553   8.634  20.586  0.1435  0.0630  0.2585
62781W        W63645  24.574  12.309  22.526 -0.1304  0.3061 -0.5351
62782W        W63646  22.722   6.494  24.776 -0.1430  0.0749 -0.0725
62783W        W63647  23.827   7.432  19.690 -0.1218 -0.1625 -0.2021
62784W        W63648  25.758  10.026  26.863  0.1041 -0.2379  0.1614
62785W        W63649  21.685   9.978  27.422  0.1139 -0.3796 -0.3196
62786W        W63650  25.698  12.058  22.406 -0.1596  0.0744  0.0481
62787W        W63651  26.539   8.779  25.281 -0.0450 -0.1035  0.0138
62788W        W63652  23.291  12.674  24.740  0.1295 -0.1715 -0.1993
62789W        W63653  25.809  11.631  22.642  0.1654  0.0128  0.1509
62790W        W63654  22.740   8.271  24.170 -0.1749  0.0823 -0.0805
62791W        W63655  22.678   9.102  21.684 -0.0924  0.2306 -0.2516
62792W        W63656  23.417   8.704  21.353 -0.3938  0.0399 -0.1779
62793W        W63657  26.814   7.854  23.639 -0.2203 -0.2055 -0.1661
62794W        W63658  22.623   8.527  22.193  0.2095  0.3201  0.2765
62795W        W63659  24.057  11.108  22.112  0.5657 -0.1152  0.1317
62796W        W63660  24.181  11.486  22.480 -0.0513 -0.2552 -0.1046
62797W        W63661  24.337   9.769  23.498 -0.0169  0.0523 -0.3642
62798W        W63662  25.850  11.670  22.118 -0.0769 -0.1541 -0.0668
62799W        W63663  24.028   8.495  24.236  0.2094  0.1860 -0.2836
62800W        W63664  23.118  11.185  22.054 -0.1682  0.0881  0.1199
62801W        W63665  21.032   9.291  23.116  0.0498  0.0343  0.0657
62802W        W63666  23.610   9.113  23.922 -0.1783 -0.0710  0.2148
62803W        W63667  24.545   8.767  20.793  0.0672  0.5254 -0.0119
62804W        W63668  26.485   9.600  20.421  0.0293 -0.0756 -0.0571
62805W        W63669  24.226  11.005  24.087  0.1490 -0.1748 -0.0913
62806W        W63670  21.431  10.716  23.041 -0.4944 -0.2691 -0.2277
62807W        W63671  25.074   7.434  22.531  0.0685  0.1714 -0.2403
62808W        W63672  24.548   8.812  22.907  0.1929  0.0620  0.2887
62809W        W63673  24.595   9.148  25.453 -0.2678  0.1427  0.1886
62810W        W63674  23.133   8.422  23.900 -0.1340  0.2451  0.0492
62811W        W63675  23.517  10.832  22.068 -0.2363 -0.0041  0.0310
62812W        W63676  22.680   8.726  23.083 -0.1026 -0.2584 -0.1062
62813W        W63677  22.022   9.960  27.059 -0.1281  0.1744  0.1378
62814W        W63678  26.072   7.648  25.202  0.1822  0.1301  0.1450
62815W        W63679  23.278   6.695  22.525 -0.0787 -0.0950  0.1258
62816W        W63680  24.397  11.153  24.536  0.0062 -0.0623 -0.1319
62817W        W63681  22.429   8.090  25.554  0.1989  0.1221 -0.4012
62818W        W63682  25.814  10.157  23.677  0.2212  0.1824 -0.0984
62819W        W63683  22.764  10.712  22.790  0.0182 -0.0900  0.0544
62820W        W63684  22.436   5.288  20.864 -0.0063 -0.0397  0.0887
62821W        W63685  27.403   7.558  21.094 -0.0113  0.0367 -0.0280
62822W        W63686  23.858  10.960  22.527 -0.0736 -0.0794  0.2206
62823W        W63687  28.023   8.164  23.062 -0.1898 -0.2231  0.0934
62824W        W63688  24.854   9.805  21.804  0.1970 -0.4221 -0.0496
62825W        W63689  24.319  11.726  25.106 -0.0170 -0.2407 -0.2539
62826W        W63690  24.168  10.920  24.915  0.0535 -0.2052 -0.1344
62827W        W63691  23.051   6.668  24.341 -0.3424 -0.0333 -0.2313
62828W        W63692  23.146   7.119  23.716  0.1880 -0.0577  0.2610
62829W        W63693  26.715   9.628  25.922 -0.0345  0.0321 -0.0941
62830W        W63694  25.217   6.306  25.668 -0.0999  0.0201 -0.2734
62831W        W63695  21.235   6.892  24.020  0.2246 -0.0908 -0.1374
62832W        W63696  24.657  10.427  24.044  0.2690  0.4138  0.0861
62833W        W63697  19.814   8.137  25.734  0.2300 -0.1139  0.1532
62834W        W63698  19.656   6.203  25.689  0.2397 -0.0057  0.1201
62835W        W63699  26.263   9.768  24.561  0.1925 -0.0248  0.2258
62836W        W63700  22.445  12.669  23.443 -0.5041 -0.2061 -0.0154
62837W        W63701  27.162  10.653  22.702 -0.0120  0.0067 -0.0308
62838W        W63702  27.747  13.572  21.177  0.0972 -0.0393  0.0052
62839W        W63703  23.554   9.391  25.832  0.3756  0.3391  0.0473
62840W        W63704  21.680   9.859  22.765 -0.0038  0.1257 -0.0439
62841W        W63705  24.113   9.474  22.288  0.1434  0.4418 -0.0683
62842W        W63706  21.353  10.047  25.499  0.1897  0.3103  0.2008
62843W        W63707  22.410   8.799  24.359 -0.0789  0.1257  0.0679
62844W        W63708  25.300  11.078  24.210 -0.1150 -0.0774 -0.3998
62845W        W63709  22.747  10.668  21.795  0.0494  0.1598  0.1435
62846W        W63710  26.016   8.628  23.739 -0.0813  0.1168  0.0716
62847W        W63711  24.522  10.547  23.245  0.1931  0.2646 -0.0752
62848W        W63712  22.598  12.324  22.622 -0.0496  0.1356 -0.0617
62849W        W63713  20.303  10.724  27.372 -0.0185  0.1221 -0.2609
62850W        W63714  22.566  11.473  22.949 -0.0712 -0.2385  0.1384
62851W        W63715  23.565  10.300  22.303  0.1661 -0.0443  0.0201
62852W        W63716  25.050  11.537  27.704 -0.0144 -0.1800 -0.1436
62853W        W63717  22.135   9.958  29.072  0.1159 -0.1055 -0.0145
62854W        W63718  23.486   8.224  23.559  0.0597 -0.2963  0.0630
62855W        W63719  25.200  10.996  27.563 -0.3217  0.1674 -0.2799
62856W        W63720  22.126  10.910  25.101  0.4947  0.1710 -0.0798
62857W        W63721  23.982   9.825  24.271 -0.2273 -0.3780  0.0265
62858W        W63722  23.825   8.395  27.559 -0.1154 -0.1196 -0.0683
62859W        W63723  23.908   7.701  26.217  0.0046 -0.0118  0.1519
62860W        W63724  21.861  11.899  27.485 -0.2628  0.0237 -0.0787
62861W        W63725  23.016   8.942  28.199 -0.2488  0.3614 -0.0655
62862W        W63726  22.833   6.157  26.871 -0.0741 -0.4112 -0.1751
62863W        W63727  24.249   7.372  26.181 -0.2102 -0.0966  0.0014
62864W        W63728  24.113   8.099  25.569  0.2062 -0.0510 -0.2066
62865W        W63729  26.767   6.902  29.147  0.1767 -0.1507 -0.0033
62866W        W63730  20.151   5.488  27.275  0.0008 -0.3746 -0.0436
62867W        W63731  22.188   9.437  27.997  0.4467 -0.1266  0.2131
62868W        W63732  22.257  10.500  23.939 -0.1134  0.3035 -0.1083
62869W        W63733  21.645   9.579  27.151 -0.0328  0.0428 -0.1361
62870W        W63734  23.497   7.367   0.219  0.0995  0.1326 -0.1588
62871W        W63735  23.844   6.715  26.294  0.3357  0.2429 -0.0350
62872W        W63736  26.294  10.013  26.790 -0.0943  0.0418 -0.0333
62873W        W63737  19.474  10.067  24.908 -0.1811  0.0009  0.2834
62874W        W63738  23.670   9.256  27.639  0.2653  0.2191 -0.2495
62875W        W63739  21.291   9.819  26.914 -0.0540  0.2252  0.2406
62876W        W63740  20.837   8.116  27.048 -0.3049 -0.1584  0.3706
62877W        W63741  21.487   9.098  27.857  0.1708 -0.0380  0.2529
62878W        W63742  24.323   8.816   0.295  0.0801  0.1332 -0.4718
62879W        W63743  24.117  11.400  28.814 -0.1575  0.0279  0.2848
62880W        W63744  23.418  10.906  27.511 -0.2382  0.1343  0.1953
62881W        W63745  22.759   7.455  27.709 -0.0344  0.2343  0.1647
62882W        W63746  22.704   9.200  27.856  0.1663 -0.2488 -0.0055
62883W        W63747  25.626   9.524   1.352 -0.2437  0.1379 -0.2076
62884W        W63748  24.772   8.483   0.114  0.0483  0.0785  0.0179
62885W        W63749  24.425   7.247  27.096  0.1738 -0.0515 -0.1185
62886W        W63750  20.650   7.132   0.595  0.2216 -0.1042 -0.3935
62887W        W63751  26.020  11.152  28.757 -0.0967 -0.0645  0.0845
62888W        W63752  21.985   7.428  25.143  0.3600  0.1188 -0.0537
62889W        W63753  23.863  10.530  27.346 -0.1076 -0.0998 -0.3841
62890W        W63754  22.273   9.692  26.460 -0.1809  0.1709  0.2170
62891W        W63755  25.850   8.774  27.819 -0.2739 -0.3381 -0.1214
62892W        W63756  26.460   7.892  22.678  0.1174 -0.0524 -0.1176
62893W        W63757  24.837   6.078   1.363 -0.4123  0.0092  0.0352
62894W        W63758  22.626   9.879  27.304 -0.0296 -0.4062 -0.2107
62895W        W63759  25.229   8.937  25.560 -0.0003 -0.3453  0.2776
62896W        W63760  20.680  12.097  26.285  0.4926  0.1377  0.0252
62897W        W63761  22.782   9.371  27.343  0.0572 -0.1520  0.0915
62898W        W63762  24.507   8.597  27.725  0.3330  0.4574 -0.0715
62899W        W63763  23.946   6.460  25.911 -0.0697 -0.0063 -0.0773
62900W        W63764  24.150   9.474  26.118 -0.2995 -0.0217  0.1658
62901W        W63765  23.178   9.915  25.176  0.1184  0.0076 -0.2923
62902W        W63766  22.029   8.667  28.571 -0.1786  0.2738 -0.0045
62903W        W63767  22.306   9.226  25.647 -0.1984 -0.1638 -0.0921
62904W        W63768  23.827  10.566  25.331  0.2886 -0.1958 -0.1209
62905W        W63769  24.044   8.273  26.430  0.1037  0.0813 -0.1165
62906W        W63770  25.457   8.285  24.306  0.2226 -0.1832 -0.0903
62907W        W63771  22.247   9.180  24.797 -0.1444 -0.1499 -0.0158
62908W        W63772  22.634   7.627  25.035 -0.2238  0.0277 -0.0500
62909W        W63773  23.054   7.950  28.005  0.1202 -0.3741  0.0558
62910W        W63774  21.941  11.119  26.792  0.1650  0.2999  0.1301
62911W        W63775  22.777  11.926  24.247 -0.1293  0.0138  0.2391
62912W        W63776  23.702   7.629  25.740  0.1852  0.0286 -0.1393
62913W        W63777  20.728   9.594  28.029  0.2413 -0.0199  0.0236
62914W        W63778  22.172  10.653  28.625  0.1074 -0.2883  0.0225
62915W        W63779  21.936   9.110  24.349  0.1406 -0.2151 -0.1610
62916W        W63780  25.023   7.690  26.982  0.1363 -0.1109  0.4277
62917W        W63781  23.022   5.519  26.427  0.2473  0.1313  0.0951
62918W        W63782  22.706  11.037  23.822 -0.3464 -0.2317 -0.1739
62919W        W63783  22.767   6.684  27.076 -0.1949 -0.1779  0.0413
62920W        W63784  22.259  11.304  25.695  0.1564 -0.1076  0.2409
62921W        W63785  22.677   7.286  25.395 -0.0191 -0.0176  0.1611
62922W        W63786  24.542   9.157   0.844 -0.5343 -0.1736 -0.1045
62923W        W63787  24.845   7.920  23.962  0.0821 -0.1128 -0.0546
62924W        W63788  23.702   9.712  27.468 -0.1328  0.2466 -0.1575
62925W        W63789  25.424   6.547   0.594  0.1017 -0.0629 -0.1946
62926W        W63790  24.801  10.087  25.864 -0.0706  0.0400 -0.2344
62927W        W63791  23.956   9.519  26.638 -0.3171  0.0367  0.0370
62928W        W63792  22.658  10.188  27.721  0.1371  0.4856  0.0784
62929W        W63793  22.855  11.070  28.269 -0.3735 -0.0392 -0.0910
62930W        W63794  24.224   8.561  21.791  0.1961 -0.3560  0.0493
62931W        W63795  24.712   8.107  27.728 -0.0986  0.2620 -0.0903
62932W        W63796  23.787   8.846  26.714 -0.0029  0.1149  0.0061
62933W        W63797  20.054   6.640  28.447 -0.3261  0.4266  0.1630
62934W        W63798  21.424   5.898  27.194 -0.2201  0.1624 -0.1560
62935W        W63799  21.211   9.369  27.355  0.2580 -0.1826  0.2355
62936W        W63800  24.229   7.777  28.976  0.2581 -0.3412  0.1283
62937W        W63801  22.445   8.770  26.423 -0.2718  0.1590  0.2178
62938W        W63802  26.284  10.589  27.655  0.1952 -0.1461  0.3058
62939W        W63803  23.910   5.926  25.914  0.1069  0.0386  0.1203
62940W        W63804  26.233  12.086  27.759  0.2183  0.0925 -0.1697
62941W        W63805  26.064   8.734  26.235 -0.0121  0.1895  0.0680
62942W        W63806  24.329   7.540  28.490  0.2222 -0.0199 -0.2911
62943W        W63807  25.756   8.357  28.790 -0.2564  0.0571 -0.0442
62944W        W63808  21.378  11.369  24.497  0.4321 -0.1516  0.0341
62945W        W63809  21.319   8.768  25.892 -0.1166  0.1782 -0.1459
62946W        W63810  22.596   6.235  26.324  0.0916  0.1767  0.3190
62947W        W63811  22.765  10.233  28.204 -0.1413 -0.1866 -0.1084
62948W        W63812  22.016   8.853  25.643 -0.0428  0.2039  0.0434
62949W        W63813  24.227   9.271   0.455 -0.1670 -0.1869 -0.1000
62950W        W63814  21.851   6.254  24.653 -0.0791 -0.0710  0.0191
62951W        W63815  25.182  10.484  25.989 -0.0218  0.0128  0.1446
62952W        W63816  24.853   9.516  24.721 -0.6141 -0.2442 -0.3236
62953W        W63817  21.182   7.306  28.837  0.0096  0.2737 -0.1949
62954W        W63818  24.317   6.791  28.966 -0.1610  0.0068  0.0208
62955W        W63819   0.833  10.601  26.002 -0.0875  0.0441  0.0292
62956W        W63820  23.435   6.417  26.433  0.0023  0.2554 -0.2150
62957W        W63821  25.089   7.241  26.761 -0.2358  0.2382 -0.2256
62958W        W63822  22.177  10.000  24.026  0.0496  0.1547 -0.0424
62959W        W63823  24.763   9.436  27.991  0.0807  0.0517  0.1173
62960W        W63824  24.167   8.612  24.724  0.0090  0.2039  0.0034
62961W        W63825  21.063  11.163  25.868  0.2877  0.1381  0.0124
62962W        W63826  23.058   7.470   0.927 -0.1959 -0.1634  0.0318
62963W        W63827  23.645  10.179  28.198 -0.5829  0.1201  0.1255
62964W        W63828  24.155   7.765  27.143  0.0955  0.1934  0.0645
62965W        W63829  24.802  10.731  27.233 -0.1169 -0.0196 -0.1058
62966W        W63830  26.130   9.424  24.168  0.1502 -0.1856  0.0442
62967W        W63831  21.556   8.135  29.021  0.0595 -0.0691  0.3732
62968W        W63832  26.670   6.523  27.852  0.0654 -0.1883  0.2552
62969W        W63833  23.817   9.150  26.237  0.0025 -0.0869  0.2615
62970W        W63834  20.771   9.079  27.254 -0.0841 -0.0189 -0.1513
62971W        W63835  24.035  10.443  25.791  0.2820 -0.0076 -0.1068
62972W        W63836  25.454  11.102  22.552  0.2460 -0.1901  0.0245
62973W        W63837  23.444  10.717   0.006  0.0918  0.1016  0.3639
62974W        W63838  24.793   8.928  26.456  0.1250  0.0308 -0.1720
62975W        W63839  25.191   8.518  24.723 -0.0801 -0.4712 -0.0793
62976W        W63840  22.850   8.661  25.163  0.3136 -0.0488 -0.1260
62977W        W63841  23.834  10.005  24.724 -0.2564 -0.0572  0.2747
62978W        W63842  24.423   5.175  27.294  0.1047  0.2594  0.0043
62979W        W63843  25.771   9.658  27.679  0.4376 -0.2366 -0.2160
62980W        W63844  23.761   9.075  28.675  0.0385  0.0436 -0.0802
62981W        W63845  20.870  11.860  28.591  0.0591 -0.1393  0.0255
62982W        W63846  22.525   9.644  27.746  0.2089 -0.1155 -0.2249
62983W        W63847  25.928   9.402  25.474  0.0153 -0.0100  0.0828
62984W        W63848  21.397  11.537   0.552  0.0613 -0.0181 -0.0331
62985W        W63849  23.731   7.243  26.361  0.0742 -0.1675  0.1520
62986W        W63850  24.962   9.422  28.750 -0.0586  0.1172 -0.1570
62987W        W63851  20.830  11.818   0.386  0.3001  0.1318 -0.0604
62988W        W63852  22.920   7.248  23.274 -0.2029  0.0431 -0.0853
62989W        W63853  24.341   6.898  26.106 -0.0795  0.1089 -0.1391
62990W        W63854  21.699  10.319  28.213 -0.0021 -0.0755 -0.1008
62991W        W63855  25.159   8.793   0.966  0.0700 -0.1304  0.2385
62992W        W63856  22.858   9.051  23.388  0.1818 -0.1831 -0.3214
62993W        W63857  25.741   7.339  27.392 -0.0215 -0.0966  0.2228
62994W        W63858  22.867  11.600  23.766  0.0675 -0.0745  0.1653
62995W        W63859  22.241   7.690  27.718 -0.1869 -0.0007 -0.0391
62996W        W63860  23.124   7.662  26.896 -0.1402  0.3157  0.1324
62997W        W63861  22.845   7.535  23.726 -0.1630 -0.0881  0.2519
62998W        W63862  27.490   7.359  28.541  0.3436 -0.2502 -0.0481
62999W        W63863  23.980   9.891  25.829  0.0559 -0.0928  0.1546
63000W        W63864  23.074   9.774  27.146 -0.2432 -0.0664 -0.0711
63001W        W63865  23.159   8.467  28.586 -0.1021 -0.2293 -0.1461
63002W        W63866  23.479  10.910  26.633  0.0184 -0.0949 -0.1762
63003W        W63867  23.161   8.332  24.952  0.1898 -0.2370  0.0025
63004W        W63868  23.242   9.804  25.788 -0.0789 -0.1567 -0.0356
63005W        W63869  25.863   8.318  22.501 -0.2299 -0.1750  0.1322
63006W        W63870  25.984   7.171  28.269 -0.3427 -0.1298 -0.0200
63007W        W63871  24.452   5.322  28.497 -0.0202  0.0313 -0.0650
63008W        W63872  20.647  10.495  25.406 -0.0158 -0.0517 -0.2090
63009W        W63873  23.658   8.671  26.164 -0.3532  0.2088 -0.1050
63010W        W63874  24.471   7.729  24.373  0.0103  0.3951  0.4326
63011W        W63875  20.988   8.235  25.909 -0.3145  0.2125 -0.2608
63012W        W63876  26.209   7.663  28.643 -0.0327 -0.2775 -0.0056
63013W        W63877  22.943   8.854  27.243  0.2908 -0.2355 -0.3814
63014W        W63878  26.556   8.041  27.863  0.1185 -0.1338  0.2949
63015W        W63879  25.007   8.916  28.955 -0.2048  0.2236 -0.1557
63016W        W63880  23.698   6.501  28.127 -0.3524  0.1584 -0.2744
63017W        W63881  21.374   5.914  25.795 -0.0511  0.2963  0.1497
63018W        W63882  21.501   9.413  24.322  0.0306  0.0257 -0.1878
63019W        W63883  20.899  10.747  24.427 -0.0394  0.0124  0.1666
63020W        W63884  22.279   8.773   1.386  0.0915  0.1071  0.2939
63021W        W63885  20.322  10.530  24.957  0.1298  0.0425  0.0354
63022W        W63886  24.640   7.082  27.581  0.3896 -0.0316 -0.0954
63023W        W63887  24.451   7.875  26.437  0.1461  0.1072  0.0300
63024W        W63888  26.808  10.554  28.523 -0.3938  0.1131 -0.2670
63025W        W63889  23.079   8.096  27.200  0.2786 -0.0480  0.1466
63026W        W63890  22.936   6.562  25.877 -0.0989  0.0311 -0.2053
63027W        W63891  25.284   9.744  24.392 -0.1358  0.0722 -0.0251
63028W        W63892  22.869   9.558   0.232 -0.1601  0.0689  0.1501
63029W        W63893  21.667   8.597   3.288 -0.0703 -0.0229  0.0445
63030W        W63894  22.728  11.360  26.025  0.0592 -0.1808 -0.1288
63031W        W63895  22.972   6.432  27.472 -0.0816 -0.1576  0.1049
63032W        W63896  21.745   9.618  25.035  0.0730  0.0315 -0.1324
63033W        W63897  26.948  10.451  25.465  0.0470 -0.0341  0.0141
63034W        W63898  23.641   6.156  25.506  0.0769  0.2575  0.0870
63035W        W63899  23.586   9.426  25.066  0.1542 -0.0415 -0.1034
63036W        W63900  24.754   6.074  25.507 -0.1871 -0.1930  0.0146
63037W        W63901  25.977   9.066  25.864  0.3021 -0.2738  0.3645
63038W        W63902  22.874   8.570  25.951 -0.3915 -0.0014  0.0732
63039W        W63903  23.282   6.519  26.964 -0.1520 -0.2919 -0.1931
63040W        W63904  23.567   8.647  28.900 -0.1291 -0.2660  0.0589
63041W        W63905  23.473   8.085  28.653  0.4375  0.0124  0.0911
63042W        W63906  22.997  11.566  24.553 -0.3835 -0.1130  0.0495
63043W        W63907  21.297  12.088  24.312  0.0519  0.0459  0.0527
63044W        W63908  22.228  10.633  27.749  0.1077 -0.0069  0.1420
63045W        W63909  23.952   7.874  28.582 -0.1357 -0.2151 -0.0300
63046W        W63910  25.159   5.318  27.862 -0.4713 -0.1328  0.0796
63047W        W63911  26.057   6.711  25.791  0.2921 -0.3177  0.3695
63048W        W63912  24.181   6.703  23.610 -0.2128  0.1555 -0.3543
63049W        W63913  21.470   8.610  26.684  0.2152 -0.1313 -0.0777
63050W        W63914  24.498   8.115  26.908 -0.0002 -0.0891  0.1238
63051W        W63915  26.275   4.981  26.075 -0.2512 -0.0913 -0.2373
63052W        W63916  21.226   9.076  26.572  0.1190 -0.1316  0.0672
63053W        W63917  24.977   7.474   0.009 -0.1519  0.0226 -0.2329
63054W        W63918  24.961   9.824  25.455  0.1845 -0.2271  0.0117
63055W        W63919  21.885   8.937  26.759 -0.0934 -0.1895 -0.3953
63056W        W63920  23.190   8.188   0.869  0.2835 -0.1597 -0.1075
63057W        W63921  21.207  10.413  27.547 -0.2216 -0.0073  0.2170
63058W        W63922  22.417   8.032  28.572 -0.1854 -0.2764  0.3287
63059W        W63923  26.242   6.431  27.354  0.1426 -0.0763  0.1184
63060W        W63924  24.912  11.416  24.453  0.1784  0.2106 -0.1767
63061W        W63925  21.523   7.927   0.454 -0.1462 -0.0208  0.0337
63062W        W63926  23.166   9.768  28.879  0.2400  0.0112 -0.4165
63063W        W63927  23.253   7.204  27.743  0.0971 -0.1607 -0.0767
63064W        W63928  25.359   8.570  28.014 -0.2800  0.0244  0.1196
63065W        W63929  24.589   7.875  25.403 -0.0958  0.3383 -0.1277
63066W        W63930  24.606   6.589  28.534 -0.0045 -0.0770  0.1292
63067W        W63931  25.152   8.499  26.307  0.0624 -0.1792 -0.0621
63068W        W63932  22.894   7.458  25.946  0.0333 -0.0568 -0.2211
63069W        W63933  23.748  12.517  24.430  0.0411  0.1560 -0.0718
63070W        W63934  22.911   9.685  28.099  0.0192 -0.4576  0.0214
63071W        W63935  21.557   8.580   0.056 -0.0536 -0.1080 -0.1187
63072W        W63936  27.525   8.921   0.570  0.2431  0.0671  0.2330
63073W        W63937  27.351   7.263  27.513  0.1270  0.0662  0.1661
63074W        W63938  24.293   9.725   0.811  0.0491  0.1275 -0.1647
63075W        W63939  22.828   6.792  25.155  0.3889 -0.0961 -0.0268
63076W        W63940  24.313  10.235  26.184  0.0531  0.0297 -0.0650
63077W        W63941  20.316   8.565   0.492  0.0105  0.1305  0.2838
63078W        W63942  23.227   9.291  27.849  0.1720 -0.1138  0.1737
63079W        W63943  21.357   8.446  27.154  0.0990 -0.1948 -0.2073
63080W        W63944  24.659  11.507  25.500 -0.0629  0.0201 -0.0493
63081W        W63945  24.113   8.859  27.666  0.2450 -0.0662 -0.0412
63082W        W63946  25.127   8.128  28.040 -0.0710 -0.0206  0.0468
63083W        W63947  24.319   8.425  29.026  0.0202 -0.2374  0.1651
63084W        W63948  22.162  11.584  23.384 -0.1292 -0.1532  0.3384
63085W        W63949  23.579   8.627  28.409 -0.1094 -0.4434  0.1071
63086W        W63950  24.715   8.518  23.252 -0.2160 -0.1229 -0.2120
63087W        W63951  23.656  10.223  26.070  0.3291  0.1275  0.1798
63088W        W63952  26.591   8.718  26.381 -0.2150 -0.0947  0.1146
63089W        W63953  24.927   5.157   1.033  0.1189  0.1800  0.0809
63090W        W63954  26.701  10.699  23.756  0.1282 -0.2397 -0.1081
63091W        W63955  23.215  10.097  24.708 -0.1876  0.1702 -0.0722
63092W        W63956  22.636  11.020  25.185 -0.0046  0.0524  0.2693
63093W        W63957  23.937   8.555  28.022 -0.1439  0.2149 -0.2806
63094W        W63958  22.123   9.201  28.537 -0.0715  0.3373 -0.1970
63095W        W63959  24.358   9.151  27.095  0.0889 -0.1537  0.0119
63096W        W63960  23.481   8.014  24.779 -0.0285  0.2732  0.0603
63097W        W63961  23.213  11.283  26.363 -0.0867  0.2594 -0.2034
63098W        W63962  24.724   5.544  25.618  0.2339  0.0816  0.1309
63099W        W63963  18.597  10.566  27.302 -0.0580  0.0427 -0.0219
63100W        W63964  22.907  11.036  26.684 -0.1382 -0.1934  0.1489
63101W        W63965  21.538   8.737  25.429 -0.0189 -0.1670  0.0322
63102W        W63966  21.113   9.974  25.005 -0.3176  0.2706 -0.1875
63103W        W63967  22.570  11.555  26.466  0.1832  0.2604 -0.0532
63104W        W63968  25.246   8.633  27.120  0.1060 -0.2896  0.0815
63105W        W63969  23.332   7.904  25.662  0.1998  0.1450  0.0001
63106W        W63970  21.565   8.420  23.886  0.1197 -0.0578 -0.2048
63107W        W63971  22.651  11.768  23.349  0.0548 -0.3277  0.0972
63108W        W63972  24.634  10.658  24.983  0.0994  0.1849  0.0540
63109W        W63973  23.175   8.208  26.768 -0.2405 -0.2810  0.1312
63110W        W63974  25.327  10.271  26.457  0.2249  0.0684 -0.1698
63111W        W63975  27.191  10.310  27.718  0.0091 -0.2514 -0.0820
63112W        W63976  26.400   7.560  27.834 -0.2797 -0.0810 -0.1081
63113W        W63977  22.274   9.163  27.589  0.0049  0.0838 -0.0669
63114W        W63978  24.269   8.164   1.305 -0.3278  0.1620  0.0224
63115W        W63979  25.330   6.821  27.397  0.4195 -0.3702 -0.0823
63116W        W63980  21.944  12.114  25.826  0.3585  0.5362  0.2809
63117W        W63981  21.616   9.617  28.212  0.2758  0.0325  0.2362
63118W        W63982  21.969   9.596  24.501  0.1549 -0.1082 -0.1789
63119W        W63983  29.128  11.659  24.690  0.1222 -0.0108  0.1694
63120W        W63984  22.751   9.768  28.608  0.1346 -0.4164  0.1194
63121W        W63985  25.584  10.925  23.752  0.2195 -0.1326  0.1245
63122W        W63986  22.442  13.229  24.921 -0.1363 -0.0699 -0.1854
63123W        W63987  24.822   8.076  25.915  0.1389  0.2584  0.2984
63124W        W63988  22.170   7.324  26.784 -0.2296 -0.0317  0.2409
63125W        W63989  21.751   9.522  27.742 -0.0619 -0.0445 -0.0760
63126W        W63990  22.625   8.255  25.091 -0.4728  0.0799  0.3847
63127W        W63991  23.851   5.676  25.422 -0.0411  0.2042 -0.0899
63128W        W63992  23.385   6.298   0.341  0.2164  0.2234 -0.1878
63129W        W63993  20.150  11.070  26.452  0.2536 -0.2974 -0.1079
63130W        W63994  27.434  10.101  21.551 -0.1963 -0.0166  0.0547
63131W        W63995  21.990  10.049  28.453  0.1569  0.1913 -0.0551
63132W        W63996  23.060   9.739  27.634  0.2991 -0.1309 -0.2975
63133W        W63997  22.294   7.578  25.519  0.0624  0.1590 -0.1775
63134W        W63998  24.007   9.104  25.007  0.0611 -0.1137 -0.0512
63135W        W63999  19.966   9.911  25.016 -0.2671  0.3275 -0.0468
63136W        W64000  24.259   7.594  25.667 -0.1710  0.0585  0.0298
63137W        W64001  24.045   8.009   0.251 -0.0283 -0.3033 -0.2788
63138W        W64002  24.702   9.424  27.460  0.1168  0.1370  0.0545
63139W        W64003  26.109   9.125  27.109  0.0004  0.1411  0.2499
63140W        W64004  25.167   7.460  27.382 -0.1579 -0.1004 -0.0867
63141W        W64005  21.837  13.670  24.224  0.1831  0.1005 -0.0482
63142W        W64006  22.416   7.951  26.408 -0.0499  0.2174  0.1587
63143W        W64007  24.084   7.694  24.663  0.0062 -0.1262 -0.0460
63144W        W64008  25.022   9.379  25.246 -0.3028 -0.3820 -0.0760
63145W        W64009  21.159   7.814  28.687  0.2527  0.0541  0.0969
63146W        W64010  21.578  11.791  25.183 -0.3074  0.0598  0.1947
63147W        W64011  25.530   9.234  27.854  0.3124  0.1808 -0.2434
63148W        W64012  24.719   7.000  28.833 -0.0300 -0.1057 -0.2615
63149W        W64013  28.326   9.491  26.742  0.0125  0.0257  0.4019
63150W        W64014  25.654   8.448  26.268  0.2288  0.5680 -0.1123
63151W        W64015  22.682  10.528  23.724  0.0229 -0.0047  0.3095
63152W        W64016  24.205   9.635  27.162 -0.3759 -0.2100  0.1812
63153W        W64017  24.491   6.241  27.674  0.2548  0.0367  0.3217
63154W        W64018  23.533  11.617   0.249  0.1719 -0.0089 -0.2010
63155W        W64019  24.796   9.506  26.841  0.0315 -0.0974  0.0662
63156W        W64020  24.717  10.802  21.920 -0.0552  0.1004 -0.1409
63157W        W64021  23.611  10.628  28.637  0.4424 -0.2345 -0.2234
63158W        W64022  24.564  11.379   1.170  0.1213  0.2048  0.0073
63159W        W64023  23.056  10.605  25.718  0.1418  0.2426 -0.2344
63160W        W64024  23.887   6.221  26.368  0.3953 -0.2354  0.0776
63161W        W64025  21.167   8.380  25.351 -0.0152 -0.2236 -0.0644
63162W        W64026  21.736   9.207  25.887 -0.4018  0.2920  0.0432
63163W        W64027  22.635   7.674  28.918  0.0297  0.2640  0.0435
63164W        W64028  20.885   8.680   0.166 -0.0297 -0.0613 -0.2206
63165W        W64029  24.079  10.052  28.713 -0.3329  0.4374 -0.1202
63166W        W64030  22.030  10.241  25.279 -0.2220 -0.0419 -0.0504
63167W        W64031  23.511   8.708   0.269 -0.3826  0.2279 -0.0039
63168W        W64032  20.989  10.602  25.921  0.1927  0.0564 -0.0281
63169W        W64033  25.137  11.512  25.833 -0.0366 -0.1985  0.0982
63170W        W64034  25.680  10.464  27.034  0.1960  0.0131 -0.1158
63171W        W64035  24.062   9.030  29.090  0.3264 -0.2736 -0.2247
63172W        W64036  22.654  12.444  26.297  0.4561  0.2512  0.2168
63173W        W64037  28.304  11.225  24.028 -0.0774 -0.2876 -0.2096
63174W        W64038  23.068   6.957  26.800 -0.1101 -0.1125  0.2697
63175W        W64039  22.323   8.400  26.830  0.1250  0.0412 -0.1973
63176W        W64040  22.663  12.219  23.191  0.0175  0.1657 -0.1389
63177W        W64041  21.392  11.652  27.335 -0.0822 -0.0158  0.1822
63178W        W64042  22.840   7.730  25.568  0.0398  0.0478  0.2744
63179W        W64043  21.447   9.142  29.096 -0.0334 -0.0321  0.3685
63180W        W64044  21.138  10.748  26.684  0.2224 -0.1699 -0.1078
63181W        W64045  20.973   5.739  25.269 -0.3131 -0.1960  0.0825
63182W        W64046  23.051   7.232  27.287 -0.0558  0.0162 -0.0007
63183W        W64047  23.866   7.289  25.344  0.0333 -0.3746  0.0597
63184W        W64048  24.600   8.033   0.885  0.0827 -0.3519 -0.1408
63185W        W64049  23.999   6.778  27.098 -0.1387  0.0366  0.0109
63186W        W64050  27.219   9.120  27.052  0.1152 -0.0837 -0.0166
63187W        W64051  25.123   9.763   0.573 -0.1425 -0.1488  0.2939
63188W        W64052  25.161   8.782   0.274  0.0045  0.2135  0.1676
63189W        W64053  28.217  10.016  26.918  0.0842  0.3290  0.0303
63190W        W64054  24.328   9.712  24.587 -0.3761  0.1144  0.1394
63191W        W64055  23.385   7.254  25.935  0.1217 -0.1497 -0.0331
63192W        W64056  22.728   9.028  28.637  0.2133  0.0949 -0.0030
63193W        W64057  24.303   9.505  28.249 -0.3851 -0.2425  0.1321
63194W        W64058  22.656   7.783   0.579  0.0051  0.1891  0.1426
63195W        W64059  21.394  10.820  25.718  0.0475 -0.0305  0.2286
63196W        W64060  23.542   7.908  27.181 -0.0574  0.1616 -0.1643
63197W        W64061  23.739  10.064  27.046  0.0292 -0.2400  0.0051
63198W        W64062  22.549   9.648  23.980  0.0223  0.0442  0.0395
63199W        W64063  20.945   7.701  26.723  0.1862  0.0238  0.1684
63200W        W64064  22.750  10.427  29.032 -0.1330  0.0499 -0.1533
63201W        W64065  21.590   6.445  25.063 -0.1112 -0.1219  0.2166
63202W        W64066  23.477   8.410  27.093 -0.1393  0.4224 -0.0358
63203W        W64067  26.187   6.815  25.123  0.0915 -0.1576 -0.0816
63204W        W64068  27.559   9.914  24.880  0.3805  0.0783  0.3012
63205W        W64069  22.135   8.303  24.409 -0.1964  0.0487 -0.1165
63206W        W64070  22.211  10.503   0.086 -0.1734  0.0537 -0.1384
63207W        W64071  24.223   7.256  25.009 -0.1543  0.1063  0.1356
63208W        W64072  21.662   8.518  28.031 -0.0436 -0.0916  0.2435
63209W        W64073  26.510   8.826  28.553  0.0459  0.2823 -0.2655
63210W        W64074  26.601  10.373  26.525  0.1903  0.1952 -0.1961
63211W        W64075  22.494   9.416  23.530 -0.0663 -0.1242 -0.2592
63212W        W64076  21.857   8.750  23.615  0.0844  0.3741  0.0417
63213W        W64077  24.878   7.030  27.179  0.3016  0.0083  0.3621
63214W        W64078  22.876  10.071  25.572  0.1098 -0.1727  0.1073
63215W        W64079  22.171   6.214  25.012 -0.4263  0.0877  0.0606
63216W        W64080  23.518  12.522  23.985  0.0050 -0.0458  0.0281
63217W        W64081  22.413   8.699  24.891 -0.1820  0.3015  0.0134
63218W        W64082  22.442   9.369  28.970  0.1041  0.0359 -0.2232
63219W        W64083  22.811   9.982  26.603 -0.1199 -0.0477 -0.2701
63220W        W64084  25.260   9.410  26.580  0.1754  0.2486  0.1037
63221W        W64085  26.979   5.761  27.368 -0.0815 -0.3207  0.0029
63222W        W64086  24.519   8.973  23.512  0.2879  0.0233 -0.2637
63223W        W64087  26.215   8.980  26.626 -0.0335  0.0984  0.0102
63224W        W64088  23.258   9.332  25.420 -0.2087  0.0707 -0.1625
63225W        W64089  25.053  10.943  25.769 -0.3612  0.0473 -0.0186
63226W        W64090  20.373  10.945  25.208 -0.0508  0.1181  0.1662
63227W        W64091  22.733   6.341   0.055 -0.0298 -0.0496 -0.1457
63228W        W64092  22.527   8.687  27.756  0.2131  0.0238 -0.3387
63229W        W64093  25.513   9.669  28.517 -0.3875 -0.0807  0.0074
63230W        W64094  23.473   9.305  28.264  0.5174 -0.1439 -0.0573
63231W        W64095  24.309   9.148  28.664 -0.0527  0.0696 -0.1794
63232W        W64096  23.457   8.799  27.467  0.2132 -0.0753 -0.2116
63233W        W64097  20.219  10.653  26.069 -0.0192  0.1007 -0.0724
63234W        W64098  24.190   8.473  25.998 -0.0819  0.1831  0.0705
63235W        W64099  22.265  10.006  25.696  0.1161  0.0017  0.4622
63236W        W64100  21.257   9.593  27.827 -0.1958 -0.3209 -0.1843
63237W        W64101  23.635   7.893  26.660 -0.2174 -0.1247  0.0860
63238W        W64102  23.273  10.664  25.275 -0.0659 -0.1187 -0.2969
63239W        W64103  23.565   8.900  27.954  0.3324 -0.0277  0.0531
63240W        W64104  25.749   8.827  27.174 -0.0793 -0.0231  0.1040
63241W        W64105  27.445   9.779  27.596 -0.0533  0.0867 -0.0828
63242W        W64106  25.750  11.634  27.099 -0.0655  0.0803  0.0504
63243W        W64107  23.431   9.739  26.742  0.1020  0.2598 -0.0844
63244W        W64108  22.007   8.553  26.495  0.0919 -0.0141  0.0351
63245W        W64109  22.249  12.242  27.120  0.0047 -0.1333 -0.1034
63246W        W64110  22.800   9.460  26.390 -0.2343 -0.4297  0.2097
63247W        W64111  25.645   7.620  28.250 -0.3237  0.0490 -0.2073
63248W        W64112  24.575  11.467  27.998  0.0383  0.2012 -0.0793
63249W        W64113  25.008   8.478  27.619  0.1145 -0.3144 -0.1685
63250W        W64114  21.476  10.572  24.069  0.2129  0.0253  0.2437
63251W        W64115  23.431   9.157  23.434  0.0434 -0.0950  0.0924
63252W        W64116  21.396  11.560   2.030 -0.1883 -0.5041  0.2244
63253W        W64117  19.298  14.579   6.321 -0.1905  0.0932  0.2246
63254W        W64118  25.333  11.680   2.214  0.0714 -0.1457  0.0570
63255W        W64119  25.150  10.856   1.879  0.0241 -0.2725 -0.1782
63256W        W64120  21.626  14.907   1.526 -0.2062  0.0551  0.0709
63257W        W64121  22.225  10.664   2.270  0.2800  0.1127 -0.0744
63258W        W64122  22.537  10.933   2.614 -0.0229 -0.1344 -0.2732
63259W        W64123  22.473  12.359   0.806 -0.0005  0.1773  0.1695
63260W        W64124  22.959  11.679   3.156 -0.1947 -0.0164  0.1258
63261W        W64125  22.064  11.724   2.758  0.1432 -0.2490  0.0575
63262W        W64126  25.365   8.464   3.152 -0.1582 -0.2412  0.2045
63263W        W64127  23.389  13.748   3.454 -0.1745 -0.0451 -0.3843
63264W        W64128  24.459  12.972   1.021  0.0046  0.0578  0.2563
63265W        W64129  26.108   8.883   3.265  0.0689  0.1214 -0.3240
63266W        W64130  21.269  10.307   3.739 -0.1234 -0.0587  0.1734
63267W        W64131  22.138  13.459   6.162  0.1802 -0.2018  0.0651
63268W        W64132  23.806  14.540  29.129 -0.1830  0.0005 -0.2456
63269W        W64133  23.236   9.350   2.245 -0.2020  0.6744  0.1165
63270W        W64134  22.094  11.207   2.010  0.2741 -0.2028 -0.2509
63271W        W64135  23.236  11.403  27.528 -0.1057 -0.2673  0.1068
63272W        W64136  25.934  14.978   2.030 -0.0849 -0.1135 -0.0008
63273W        W64137  25.799  11.224   0.072  0.1663 -0.2158  0.0529
63274W        W64138  21.069  15.067   0.200  0.1071 -0.1977  0.1641
63275W        W64139  22.629  14.208   3.225 -0.0674  0.1332 -0.0197
63276W        W64140  20.535  11.503   2.556  0.2592 -0.0541  0.3214
63277W        W64141  23.847  10.409   1.754  0.2310 -0.2062  0.0932
63278W        W64142  25.767  12.631   1.162  0.2023  0.0476  0.1693
63279W        W64143  23.771  13.258   2.432  0.0678 -0.0648  0.0208
63280W        W64144  24.395  14.035   2.166  0.0568  0.2104  0.2460
63281W        W64145  25.009  12.367   4.108 -0.0190 -0.1981 -0.2681
63282W        W64146  25.079  12.811   0.428 -0.1308 -0.1480  0.1095
63283W        W64147  23.364  13.489   4.632  0.3264  0.0911  0.0035
63284W        W64148  23.387  11.342   3.522 -0.0371  0.2002 -0.1527
63285W        W64149  24.618   8.996   2.943  0.4136 -0.1157 -0.0576
63286W        W64150  22.130  11.905   4.010 -0.1046  0.0642  0.1236
63287W        W64151  22.566  12.673   4.978  0.0552  0.0136  0.1644
63288W        W64152  23.182  11.220  29.113 -0.0553  0.0713  0.0974
63289W        W64153  23.376  13.054   2.711  0.2577  0.0604  0.1149
63290W        W64154  27.911  10.769   1.715 -0.0562  0.0604  0.1355
63291W        W64155  27.066  10.142   0.812  0.4856  0.0925 -0.0998
63292W        W64156  25.831  12.074  27.474  0.0153  0.1156  0.1732
63293W        W64157  24.406  11.608  28.481 -0.0175  0.2325 -0.1452
63294W        W64158  22.400  12.936   2.092 -0.0466  0.0527  0.1018
63295W        W64159  25.329  15.541  29.126 -0.2087 -0.1456  0.0903
63296W        W64160  23.920  12.559   0.880 -0.3857  0.1441  0.2727
63297W        W64161  22.427  14.436   0.951  0.0947  0.0020  0.0713
63298W        W64162  24.337   9.593   3.000 -0.0648 -0.2481 -0.2841
63299W        W64163  26.573  12.058   4.617 -0.2360 -0.2853  0.0622
63300W        W64164  24.382  13.727   1.034  0.0077  0.0356 -0.0134
63301W        W64165  24.726  13.151   1.751 -0.3082  0.1308 -0.1525
63302W        W64166  21.118  10.948   1.608 -0.0616  0.0603  0.2709
63303W        W64167  25.906   9.462   4.211 -0.1136  0.0061 -0.0412
63304W        W64168  20.616  15.412   0.270  0.1702 -0.0965 -0.1423
63305W        W64169  23.591  14.002  27.823  0.0062 -0.1838 -0.1398
63306W        W64170  24.413  10.708   1.168 -0.2126 -0.2136  0.0742
63307W        W64171  22.089  11.540  26.564  0.1556 -0.1272 -0.2171
63308W        W64172  23.156   9.757   1.933 -0.0622 -0.2914  0.0629
63309W        W64173  26.288  11.473   1.802 -0.1605  0.0943  0.0204
63310W        W64174  19.000  14.163   1.780 -0.2202  0.0550 -0.4849
63311W        W64175  23.762  14.450   1.047  0.0100  0.1693  0.0074
63312W        W64176  24.787  14.888   2.035 -0.1148 -0.0364  0.0000
63313W        W64177  20.424  13.497   1.610  0.0146 -0.0053 -0.0135
63314W        W64178  23.452  10.435   0.540 -0.1585  0.0814  0.1653
63315W        W64179  23.821  11.399   1.494  0.0418 -0.1486 -0.0245
63316W        W64180  24.005   9.545   2.645 -0.0666 -0.0241  0.0524
63317W        W64181  24.376  10.418  28.634 -0.1298  0.3115 -0.1548
63318W        W64182  23.357  12.429  28.254 -0.3528 -0.0821  0.0224
63319W        W64183  21.840  11.000  27.562 -0.1565 -0.1152  0.0210
63320W        W64184  25.309  14.658   1.544 -0.2436  0.2805  0.0404
63321W        W64185  24.187  12.708   0.258 -0.0905 -0.3628  0.0920
63322W        W64186  25.341  12.253   2.810 -0.1289 -0.1369  0.1084
63323W        W64187  22.661  11.830  27.945 -0.2213  0.1933 -0.1071
63324W        W64188  25.142  15.178   2.853  0.2162  0.0435  0.1938
63325W        W64189  23.901  10.948   2.403  0.2915 -0.0622 -0.1294
63326W        W64190  27.208  12.273   4.262  0.0128  0.0116  0.1598
63327W        W64191  23.790  13.903   2.627  0.0355 -0.0891 -0.0750
63328W        W64192  23.882  11.404   2.049 -0.2805 -0.0033 -0.0692
63329W        W64193  23.017  13.645   5.095 -0.0381  0.0084 -0.1589
63330W        W64194  23.404  10.224  27.416  0.4376 -0.0739  0.1973
63331W        W64195  26.939  12.893  28.716 -0.0858  0.1075  0.3685
63332W        W64196  25.219  14.389   4.474  0.0446 -0.0218  0.3523
63333W        W64197  21.190  11.727   3.946 -0.1581  0.2223 -0.0132
63334W        W64198  20.848  10.275   1.308 -0.0553  0.0211  0.0808
63335W        W64199  24.955  10.257   1.674 -0.1581 -0.1690  0.0730
63336W        W64200  26.433  12.069   2.176  0.0752  0.0684  0.3131
63337W        W64201  26.438  10.024  28.174  0.1054 -0.0402 -0.4557
63338W        W64202  26.449  14.711   5.196  0.0831 -0.0976  0.0128
63339W        W64203  24.714  13.454   2.805 -0.1362 -0.0867 -0.1160
63340W        W64204  25.106  13.389   4.823  0.0998  0.0136 -0.2405
63341W        W64205  23.923  13.243   4.389  0.1035 -0.0196  0.0582
63342W        W64206  23.599  11.532  28.420 -0.0516  0.0738  0.0049
63343W        W64207  24.936  15.855  29.128 -0.1847  0.3923 -0.0394
63344W        W64208  20.811  13.504   2.506 -0.1666 -0.0666  0.0329
63345W        W64209  24.115  13.634   1.489 -0.1423  0.0194 -0.0769
63346W        W64210  24.172   7.258   4.589  0.0470 -0.1365 -0.2362
63347W        W64211  25.805  10.557  28.908 -0.3257  0.0607 -0.1466
63348W        W64212  26.364  14.266   0.711  0.1780 -0.0174  0.1402
63349W        W64213  20.268  13.040   3.480 -0.3370  0.2489  0.0917
63350W        W64214  22.647   9.859   0.594 -0.0887  0.0198 -0.4309
63351W        W64215  24.814  11.745  28.775  0.2634 -0.1512  0.0993
63352W        W64216  27.053  11.786   0.181 -0.1748  0.0509 -0.2334
63353W        W64217  20.878  13.074   3.160  0.2529 -0.0111 -0.2246
63354W        W64218  22.589  12.416   1.847  0.1745 -0.1268 -0.1413
63355W        W64219  25.730  13.092   3.619 -0.1972  0.5272  0.0349
63356W        W64220  23.615  11.879   1.488  0.3478 -0.2298  0.0283
63357W        W64221  25.267  14.019   3.418 -0.3141 -0.1942  0.2014
63358W        W64222  22.449  13.198   1.258 -0.1002 -0.2469 -0.0970
63359W        W64223  26.819  11.839   3.481  0.0928  0.0667 -0.1361
63360W        W64224  26.107  11.718   2.426 -0.0373  0.2031  0.0711
63361W        W64225  24.923  10.496   1.226  0.0556  0.0211 -0.0644
63362W        W64226  22.154  12.189   2.547  0.1069  0.1403  0.0129
63363W        W64227  21.877  15.393   1.335  0.2139  0.0800 -0.1331
63364W        W64228  26.694  11.877   2.591 -0.2901 -0.0623 -0.0520
63365W        W64229  22.363  16.186   2.392  0.1866 -0.1279  0.1101
63366W        W64230  24.869  11.518   0.164 -0.0180 -0.0204  0.0592
63367W        W64231  25.891  10.154   1.951  0.2396  0.0930  0.1664
63368W        W64232  28.556  11.964   1.949 -0.0415  0.0731 -0.0464
63369W        W64233  22.051  14.650   4.480  0.1728  0.0366  0.2285
63370W        W64234  25.012  14.256   3.067 -0.0082 -0.1510 -0.0529
63371W        W64235  24.840  11.020   1.002 -0.0290 -0.2625  0.0118
63372W        W64236  25.781  11.640   1.984  0.2680 -0.0506  0.1548
63373W        W64237  27.161  11.897   3.922  0.2509  0.1819 -0.1363
63374W        W64238  23.875  15.639   1.547 -0.1622  0.3519  0.2120
63375W        W64239  22.283  11.179   0.836 -0.0526 -0.2441  0.0550
63376W        W64240  21.964  10.787   0.938 -0.0091 -0.0488 -0.0766
63377W        W64241  27.178  12.193   0.419 -0.0826 -0.0830 -0.3237
63378W        W64242  20.873   9.369   1.720  0.3784 -0.0788 -0.0978
63379W        W64243  24.113  14.248   3.502 -0.0388 -0.2396 -0.1497
63380W        W64244  24.747  14.465  28.759 -0.0912 -0.0930 -0.2325
63381W        W64245  23.650  12.276  28.690 -0.0260  0.0907  0.2362
63382W        W64246  22.319  14.157   2.256  0.1498 -0.0904  0.1484
63383W        W64247  27.421  13.562   3.606 -0.1487 -0.0894 -0.4146
63384W        W64248  22.778  14.151   3.759 -0.1499  0.2969 -0.1593
63385W        W64249  26.853  11.442  28.507  0.2566  0.0349 -0.1861
63386W        W64250  24.764  12.893   2.210 -0.1482 -0.0677  0.0911
63387W        W64251  22.320   8.846   3.048  0.0765 -0.3663 -0.2264
63388W        W64252  25.588  12.343   0.367 -0.0116 -0.0264 -0.2755
63389W        W64253  27.207  11.690   2.528 -0.1371 -0.2064  0.3182
63390W        W64254  24.569  13.792   1.757 -0.1928  0.1320 -0.2807
63391W        W64255  22.571  14.898   2.620 -0.0463 -0.0679 -0.2577
63392W        W64256  23.870  12.771   1.634  0.0380 -0.0638  0.1983
63393W        W64257  26.390  12.521   1.890 -0.0812 -0.5112  0.3111
63394W        W64258  21.644  14.005   0.220 -0.4319 -0.2411  0.1136
63395W        W64259  22.006  12.564  28.745  0.1822  0.0096  0.1412
63396W        W64260  26.028  13.132  28.698  0.1548 -0.0004  0.2849
63397W        W64261  26.056  10.784   3.104 -0.0502  0.0477 -0.3915
63398W        W64262  23.836  10.792   0.371  0.1295  0.1566  0.3271
63399W        W64263  22.847  13.461   2.840  0.1330  0.1036 -0.2877
63400W        W64264  21.531  14.553   2.543  0.3052  0.1728 -0.0955
63401W        W64265  22.539  11.267   2.175  0.1661 -0.2791 -0.0839
63402W        W64266  25.045  12.382   3.449  0.0010 -0.0131  0.0251
63403W        W64267  25.282  11.295   0.122 -0.1192 -0.0605 -0.0675
63404W        W64268  26.781  12.303   2.903  0.1939  0.0553  0.0874
63405W        W64269  24.328  10.742   0.366  0.0774  0.2886 -0.0499
63406W        W64270  25.173  13.207   1.958 -0.1195 -0.3214  0.2003
63407W        W64271  24.850  10.575   0.279 -0.0830 -0.0480 -0.3060
63408W        W64272  20.974   9.633   1.277  0.0483 -0.1371  0.3291
63409W        W64273  25.035  12.241  28.858 -0.0490 -0.1336 -0.1485
63410W        W64274  21.215  11.548  28.857 -0.1960 -0.0148  0.1835
63411W        W64275  23.934  12.414   2.173  0.2625 -0.2219  0.1027
63412W        W64276  24.340  12.154   1.996 -0.1358  0.0441  0.1459
63413W        W64277  21.550  10.790   3.050 -0.3272  0.0568 -0.2018
63414W        W64278  23.785  12.673   5.203 -0.1044 -0.0001  0.1288
63415W        W64279  21.989  15.244   3.680 -0.0470  0.0303  0.2869
63416W        W64280  23.452   9.479   2.789  0.2521 -0.2068 -0.0645
63417W        W64281  24.098   9.950   2.178 -0.2140  0.2028  0.2395
63418W        W64282  25.428  12.863   2.228  0.0020 -0.1184 -0.1322
63419W        W64283  21.477  15.872  28.264  0.0198 -0.3193 -0.1105
63420W        W64284  22.550  14.591   1.587 -0.0868  0.1430 -0.1422
63421W        W64285  21.853  11.014  28.893  0.1513  0.1726 -0.2899
63422W        W64286  22.813  12.833   1.031 -0.0448 -0.1698 -0.1940
63423W        W64287  24.772  13.893   1.311  0.2112 -0.2157  0.2341
63424W        W64288  26.486  13.180   1.646 -0.0273 -0.2169  0.2650
63425W        W64289  26.190  15.619  28.223 -0.2250 -0.0508 -0.0157
63426W        W64290  24.825  12.376   2.113  0.1038  0.1189  0.1203
63427W        W64291  27.566  11.707   2.095  0.1790  0.3534 -0.1372
63428W        W64292  20.222  15.695   6.796  0.0717  0.1110 -0.1362
63429W        W64293  21.102   9.473   2.118 -0.1164  0.1942 -0.3474
63430W        W64294  21.606  15.095   2.642 -0.2559 -0.0874 -0.1156
63431W        W64295  27.332  15.119   4.441  0.0313 -0.1329 -0.0385
63432W        W64296  25.151  10.917  28.443  0.4524 -0.0972  0.0183
63433W        W64297  26.172  13.783   0.883  0.0475 -0.0428 -0.1701
63434W        W64298  22.972  10.612   0.261 -0.3284  0.0137  0.1969
63435W        W64299  23.661   7.507  28.814  0.2667 -0.0345  0.1648
63436W        W64300  25.994   9.233   2.209 -0.2864 -0.2693 -0.0706
63437W        W64301  23.827  12.790   3.114  0.2974  0.0362  0.0256
63438W        W64302  23.527  11.515   0.873 -0.1282 -0.0316 -0.1633
63439W        W64303  23.337  11.950  28.516 -0.0746  0.0582 -0.2360
63440W        W64304  21.625  12.405   0.474  0.0081 -0.1461  0.0001
63441W        W64305  21.714  15.135   5.289 -0.1375 -0.1735 -0.0964
63442W        W64306  23.277   9.350  27.304 -0.0017  0.0320  0.0357
63443W        W64307  23.881  10.588   0.868  0.1840 -0.0627  0.1265
63444W        W64308  22.460  11.277   3.475 -0.1992  0.1919 -0.2507
63445W        W64309  24.783  10.763   5.098 -0.1203  0.1332 -0.1607
63446W        W64310  22.254  10.531   3.499 -0.0679  0.0153 -0.1232
63447W        W64311  21.616   8.539  24.919 -0.1431  0.3202  0.0261
63448W        W64312  24.776  10.067   0.351  0.0559 -0.1298 -0.4353
63449W        W64313  23.762   9.996   2.689 -0.1752 -0.0071 -0.2949
63450W        W64314  22.772  12.940   3.840 -0.1509 -0.0204 -0.0250
63451W        W64315  24.691  13.044  29.070 -0.0198 -0.1901  0.0263
63452W        W64316  21.663   9.668   0.860  0.0969  0.0891  0.2834
63453W        W64317  23.808  10.611   4.989 -0.0417 -0.0806 -0.0142
63454W        W64318  22.452  10.179  28.663  0.4020  0.0414 -0.2207
63455W        W64319  24.424  12.035   0.981 -0.1652  0.2149  0.0330
63456W        W64320  24.846  14.929   3.622 -0.1634  0.3580  0.0428
63457W        W64321  21.534  12.857  28.848  0.1590  0.1305  0.2033
63458W        W64322  20.514  12.145   1.183 -0.0527  0.1250  0.2426
63459W        W64323  25.405  13.533   3.304  0.0246  0.0398 -0.3098
63460W        W64324  26.170  13.411   0.516 -0.0486  0.5659  0.1538
63461W        W64325  23.085  11.630   0.465  0.1452  0.0901  0.1328
63462W        W64326  21.490  12.381  28.411 -0.4582  0.0135 -0.1391
63463W        W64327  24.312  11.616   4.827  0.1691  0.5334  0.1890
63464W        W64328  22.068  12.113   0.944 -0.4695  0.1450 -0.1700
63465W        W64329  25.664   9.935   0.643  0.2311 -0.1071 -0.0743
63466W        W64330  23.664  13.654   2.213  0.2129 -0.0457 -0.0704
63467W        W64331  24.471  13.436   0.214  0.1348  0.0335 -0.1252
63468W        W64332  26.594  13.363   2.103  0.1459 -0.0073  0.1977
63469W        W64333  24.562  15.773  28.167  0.2436 -0.0882 -0.2272
63470W        W64334  24.236  12.637   3.518  0.1309 -0.1170 -0.0493
63471W        W64335  20.821  11.620   2.185  0.0753  0.1732  0.2476
63472W        W64336  28.112  12.867   5.052 -0.1739 -0.1011 -0.3317
63473W        W64337  24.776  15.743   4.199 -0.2349  0.1180 -0.3084
63474W        W64338  21.688  14.453   5.197  0.2717 -0.0809 -0.1894
63475W        W64339  22.795  11.959  27.162  0.0198 -0.0617  0.0992
63476W        W64340  24.405  12.145   0.453 -0.1405 -0.0980  0.0840
63477W        W64341  21.985  11.301   1.437  0.1509 -0.1776  0.1239
63478W        W64342  23.894  14.217   2.281  0.2858 -0.0057 -0.1415
63479W        W64343  25.436  13.099   1.202 -0.2000 -0.3098  0.0524
63480W        W64344  23.631  12.376   1.373  0.1570  0.0415 -0.3829
63481W        W64345  26.862  13.695   3.643 -0.0074  0.3003 -0.0235
63482W        W64346  24.315  10.934   3.902 -0.3382  0.0047  0.0512
63483W        W64347  22.166  10.925   0.415  0.3197  0.4020 -0.0132
63484W        W64348  22.654   9.942  29.061  0.0610  0.1752 -0.0241
63485W        W64349  24.124  13.730   0.521  0.1078 -0.1242 -0.2248
63486W        W64350  23.212  11.162   2.961 -0.3131 -0.3777 -0.1311
63487W        W64351  21.113  13.094  28.789 -0.0569 -0.2115 -0.3258
63488W        W64352  25.950  12.642   3.456 -0.0325  0.2763  0.0943
63489W        W64353  22.503   9.753   2.732  0.0770 -0.1379  0.0068
63490W        W64354  23.812  15.550   5.005 -0.0079 -0.1540 -0.0858
63491W        W64355  26.703  16.900   2.156 -0.0980 -0.2802 -0.1109
63492W        W64356  25.128  13.608   2.427 -0.2484 -0.0911 -0.0106
63493W        W64357  18.497  11.503   2.485  0.1814 -0.0184  0.0224
63494W        W64358  23.615  11.348   5.647  0.1343  0.0360 -0.1639
63495W        W64359  24.545   8.958   3.481  0.2261 -0.0674 -0.0153
63496W        W64360  24.324  11.199   1.614 -0.5129  0.0941  0.1747
63497W        W64361  24.390  13.123   2.436  0.1028  0.0987 -0.1062
63498W        W64362  27.025  12.347   3.490 -0.2107  0.1628 -0.2598
63499W        W64363  24.032  10.993   1.222 -0.1546 -0.1178 -0.0173
63500W        W64364  23.218  13.757   1.271  0.0943 -0.0209 -0.1709
63501W        W64365  21.424  10.662   0.687 -0.1178 -0.0271 -0.1765
63502W        W64366  24.899  12.468   0.785 -0.0887 -0.0210  0.1254
63503W        W64367  24.091  15.403   3.663 -0.0147 -0.2990 -0.0482
63504W        W64368  26.997  13.251   3.473 -0.0451  0.0863  0.0748
63505W        W64369  25.108  15.368   0.900 -0.1568  0.2154 -0.3070
63506W        W64370  21.854  12.598  25.896 -0.0717  0.1109  0.3484
63507W        W64371  23.096  15.468  27.300  0.3236 -0.0455 -0.0992
63508W        W64372  26.940  13.056   0.742  0.1755 -0.1691 -0.3693
63509W        W64373  24.571  10.149   2.040 -0.0640  0.1586 -0.0575
63510W        W64374  22.911  14.534   0.248 -0.2868  0.0643 -0.2619
63511W        W64375  25.844  11.873  27.956  0.1884  0.0699  0.0880
63512W        W64376  25.153  11.587   1.787 -0.1066  0.3948  0.0156
63513W        W64377  21.838  10.362   2.104 -0.2962  0.0309 -0.2148
63514W        W64378  18.927  16.030   3.158  0.2686 -0.0376 -0.1215
63515W        W64379  24.806  13.993   2.685 -0.2575  0.1652 -0.0977
63516W        W64380  24.301  14.201   1.387  0.0405 -0.2943 -0.0894
63517W        W64381  21.227  11.938   1.782  0.2027 -0.1651 -0.0130
63518W        W64382  19.585  12.342   1.489  0.1062  0.2935 -0.2246
63519W        W64383  26.417  12.067   1.500 -0.5292  0.4687  0.1004
63520W        W64384  24.769  11.576   2.920 -0.0056  0.0347 -0.4288
63521W        W64385  27.594  12.294  28.013  0.1510 -0.1315 -0.0930
63522W        W64386  22.544  11.664   0.808  0.1838  0.1047 -0.0689
63523W        W64387  26.809  11.395   2.846 -0.0855  0.2138  0.0688
63524W        W64388  24.300  14.098   2.677 -0.0682  0.0597  0.0357
63525W        W64389  20.071  12.882   2.643 -0.0949 -0.1134 -0.0121
63526W        W64390  22.591  13.425   2.194 -0.0250  0.0575  0.3293
63527W        W64391  26.046   9.335   1.140 -0.1501  0.0039 -0.1522
63528W        W64392  24.340  11.189   4.319  0.2867 -0.2662  0.2507
63529W        W64393  26.153   9.476   3.719 -0.1844 -0.0224 -0.1089
63530W        W64394  23.498  12.785   2.285 -0.1567 -0.1711 -0.0598
63531W        W64395  21.159  12.579   0.686  0.1029  0.3944  0.2439
63532W        W64396  20.158  13.088   1.689 -0.2644 -0.1827 -0.0130
63533W        W64397  25.611   8.819  29.106 -0.4961  0.1703 -0.0053
63534W        W64398  25.265  12.512   1.201 -0.0467  0.0963 -0.1283
63535W        W64399  20.833  14.547   1.422  0.0444 -0.0486 -0.1128
63536W        W64400  25.704  13.552   0.978  0.0718  0.1285 -0.2904
63537W        W64401  24.783  12.854   3.569  0.0960 -0.0450  0.0588
63538W        W64402  26.183  14.785   1.423 -0.0722 -0.0186  0.1847
63539W        W64403  22.152  13.788   5.679 -0.0194 -0.2696 -0.1891
63540W        W64404  25.590  13.584   1.623 -0.3055 -0.2833 -0.0113
63541W        W64405  25.284  14.467  28.983  0.4504 -0.3088  0.3805
63542W        W64406  25.344  10.669   0.956  0.0860 -0.0824 -0.1365
63543W        W64407  25.607  10.262   1.014  0.1133  0.4015 -0.2791
63544W        W64408  24.408  15.906   0.041 -0.1264  0.0774 -0.1555
63545W        W64409  23.445  12.348   3.949 -0.0583  0.1990 -0.2708
63546W        W64410  24.782  12.611  28.671 -0.1888  0.0617  0.0354
63547W        W64411  24.961  12.043   1.064  0.1716  0.1125 -0.1195
63548W        W64412  25.064  10.186   2.845 -0.1225  0.1773  0.1327
63549W        W64413  26.686  13.816   0.132  0.0860  0.2024 -0.0524
63550W        W64414  26.461  12.533   5.606  0.0472 -0.3503 -0.1262
63551W        W64415  21.821  14.895   0.998 -0.1254 -0.0343  0.0517
63552W        W64416  25.836   9.910   2.916 -0.0464  0.0493  0.2163
63553W        W64417  21.829   9.549   3.424 -0.0338  0.2262 -0.1351
63554W        W64418  23.804  13.246   1.784 -0.0404  0.1601  0.0355
63555W        W64419  24.309  13.344  28.776  0.0981  0.3643  0.0633
63556W        W64420  26.061  11.902   4.473 -0.1110  0.2051 -0.3293
63557W        W64421  26.427  14.269   2.945 -0.4329  0.0667  0.1749
63558W        W64422  25.381  14.890   4.352  0.3041  0.1743 -0.0464
63559W        W64423  23.330  10.255   0.016  0.0279 -0.0543  0.0933
63560W        W64424  25.344  12.180   0.735 -0.0290 -0.2406  0.0284
63561W        W64425  20.187  12.408   2.433 -0.0546 -0.0753 -0.2382
63562W        W64426  23.299   9.835  28.444  0.1065 -0.1366  0.0432
63563W        W64427  24.663  14.443   4.765 -0.1213  0.0036  0.0710
63564W        W64428  25.862  10.625   0.786  0.0327  0.0191  0.1582
63565W        W64429  25.215  14.226   2.500 -0.0313  0.2687  0.2046
63566W        W64430  18.572  12.698   0.273 -0.1130  0.0564 -0.1432
63567W        W64431  21.220  12.153   4.820  0.0202  0.2123  0.0288
63568W        W64432  20.559  11.393  27.405  0.0587 -0.1538  0.0098
63569W        W64433  24.834   9.693   0.037  0.0675  0.3205  0.3510
63570W        W64434  23.456  13.961   2.984 -0.1612  0.3381  0.0658
63571W        W64435  25.022  12.070   2.483 -0.2146 -0.0679 -0.0307
63572W        W64436  23.072  11.945   2.574 -0.0010 -0.2334 -0.1440
63573W        W64437  28.535  14.462   0.466 -0.2218  0.2726  0.1244
63574W        W64438  24.229  12.615   2.885  0.1448  0.0493  0.2133
63575W        W64439  23.525  13.328   1.355 -0.0945 -0.5318  0.0672
63576W        W64440  24.192  13.248   0.611  0.0306 -0.1871 -0.2764
63577W        W64441  19.901  14.655   1.826  0.2999 -0.1685 -0.1867
63578W        W64442  25.567  10.831   0.244 -0.0065  0.2030 -0.0882
63579W        W64443  21.065  11.351  27.731 -0.0910  0.2575  0.1542
63580W        W64444  24.338  11.865  28.926  0.0975 -0.0221  0.1821
63581W        W64445  23.674  13.930   0.301 -0.2238  0.1294  0.2579
63582W        W64446  24.516  10.041   3.203  0.5342  0.2240  0.0731
63583W        W64447  25.031  10.861  29.016 -0.1262 -0.1503  0.0991
63584W        W64448  25.917  12.677   2.926  0.0922  0.0855  0.0412
63585W        W64449  23.406  11.826   5.080 -0.0712 -0.2727  0.0176
63586W        W64450  25.298  12.846   3.483  0.2501 -0.2021  0.1140
63587W        W64451  27.337  13.303   2.638  0.1288 -0.3060 -0.0213
63588W        W64452  21.270  13.001   1.865 -0.0409 -0.0749 -0.1642
63589W        W64453  28.507  13.976  27.392  0.0821 -0.0837 -0.3267
63590W        W64454  24.492  12.543   1.773 -0.0333 -0.3899  0.3347
63591W        W64455  25.406   9.948   1.925 -0.5228 -0.0429  0.0046
63592W        W64456  23.475  14.677   1.471  0.2159 -0.2441  0.1888
63593W        W64457  25.778  12.160   3.649  0.1410  0.1155 -0.0439
63594W        W64458  21.355  12.423   1.584  0.3433  0.1208 -0.4783
63595W        W64459  22.597  13.907   1.896  0.0655 -0.0594  0.1183
63596W        W64460  24.699  15.418  27.773 -0.0443 -0.0651  0.0483
63597W        W64461  24.259  13.148   1.708  0.1410  0.1602  0.1900
63598W        W64462  22.034  12.459  28.225 -0.1272 -0.0614 -0.0839
63599W        W64463  21.882  11.390   0.233  0.0558 -0.3355 -0.0485
63600W        W64464  24.632  11.587   1.623 -0.1204 -0.0599 -0.1526
63601W        W64465  21.344  12.730   0.211 -0.1153  0.1309  0.0536
63602W        W64466  27.262  14.892   1.994 -0.0263  0.0445 -0.0863
63603W        W64467  23.670  11.885  28.025  0.5179 -0.3888  0.1060
63604W        W64468  25.458  15.266   3.259  0.0442 -0.3259 -0.0486
63605W        W64469  22.290  16.200   1.875 -0.1962  0.2071  0.2446
63606W        W64470  22.323  13.846  28.005 -0.2993 -0.0596  0.4313
63607W        W64471  24.031  10.510  28.321  0.2211 -0.0426 -0.2939
63608W        W64472  22.805  13.615   1.515 -0.0615 -0.0363 -0.1157
63609W        W64473  22.555  10.707   0.660 -0.2755 -0.2865 -0.0162
63610W        W64474  20.825   8.343   1.549 -0.0106  0.2688 -0.1369
63611W        W64475  20.662  14.659  28.225 -0.1376 -0.2888 -0.3443
63612W        W64476  20.347  12.322  28.153  0.1456 -0.0968 -0.1390
63613W        W64477  23.209  12.647   4.592  0.2534  0.0339  0.0940
63614W        W64478  23.574  15.068   1.018 -0.3776 -0.1587 -0.0818
63615W        W64479  26.719  10.372   1.677  0.4121  0.0961  0.0414
63616W        W64480  23.442  12.431   1.956 -0.0035  0.2345 -0.1126
63617W        W64481  24.190  13.611   2.509 -0.0444 -0.0145 -0.1848
63618W        W64482  23.219  13.426   1.704 -0.1215 -0.0904  0.2812
63619W        W64483  26.508  14.284   2.281  0.1954 -0.3870 -0.0322
63620W        W64484  23.747  13.535   0.903 -0.0045  0.0914 -0.0498
63621W        W64485  25.842   9.338   3.349  0.0187 -0.1786 -0.0259
63622W        W64486  23.932  13.963   1.155  0.0983 -0.1861 -0.0203
63623W        W64487  24.804  11.499   2.433  0.2404  0.2048 -0.1151
63624W        W64488  21.277  11.953  26.936 -0.0430 -0.0749  0.0205
63625W        W64489  26.458  12.769   4.103 -0.2719  0.1388  0.0514
63626W        W64490  25.240  13.465   0.752 -0.1031  0.2216 -0.0888
63627W        W64491  23.576  14.955   2.785 -0.0546  0.0322 -0.2771
63628W        W64492  21.398   9.414   1.189  0.1389 -0.0259 -0.0566
63629W        W64493  23.776  14.376   2.794 -0.1457  0.1965 -0.4008
63630W        W64494  25.548  12.872  29.001 -0.1762  0.0710  0.0710
63631W        W64495  23.482  10.794   2.736  0.0144 -0.5905 -0.1013
63632W        W64496  23.370   9.508   1.526  0.1305 -0.0495 -0.0567
63633W        W64497  22.903  11.449   1.656  0.1349  0.2271  0.2407
63634W        W64498  24.026   9.792   1.273 -0.0248 -0.0670  0.1891
63635W        W64499  26.836  14.985   4.113 -0.2210  0.2807  0.1397
63636W        W64500  25.964  12.728   1.989 -0.0297  0.1435  0.0660
63637W        W64501  26.185  12.331   4.216 -0.0389  0.0630  0.4797
63638W        W64502  22.732  13.838   2.524  0.0969  0.1952 -0.1717
63639W        W64503  21.742  10.920   2.177  0.2678 -0.1389 -0.0326
63640W        W64504  21.460  15.201   4.721 -0.1152 -0.0953  0.3570
63641W        W64505  25.716  14.108   1.010 -0.1387  0.2957  0.2549
63642W        W64506  23.025  13.068   4.742 -0.1722  0.2787  0.0937
63643W        W64507  22.446  13.281  29.005  0.0086 -0.1092 -0.1615
63644W        W64508  26.290  13.733   2.937 -0.1083  0.4014  0.0127
63645W        W64509  24.995  12.613   3.002 -0.1467  0.0083 -0.2120
63646W        W64510  21.153  11.063   2.924 -0.0735  0.3392 -0.0208
63647W        W64511  25.705   9.723   2.399 -0.0968 -0.0045 -0.0038
63648W        W64512  24.058  14.044   1.788 -0.0087  0.1450  0.1426
63649W        W64513  23.214  12.199   1.599 -0.0360 -0.0380  0.2197
63650W        W64514  23.162  12.988   0.677 -0.0099  0.0239 -0.0133
63651W        W64515  20.776   8.695  28.518 -0.0352  0.0527  0.0116
63652W        W64516  24.137  14.432   8.295  0.0600  0.1867  0.2024
63653W        W64517  21.491  13.641   7.744 -0.4739 -0.1103 -0.3595
63654W        W64518  25.980  14.194   3.100 -0.2508  0.1281 -0.0859
63655W        W64519  25.029  16.624   7.459 -0.3320  0.0711 -0.1692
63656W        W64520  24.028  14.587   4.297  0.0810  0.0098  0.3098
63657W        W64521  23.252  11.768   1.819  0.2647  0.0048  0.1412
63658W        W64522  24.271  10.992   3.405 -0.1609 -0.3128 -0.2170
63659W        W64523  24.152  13.526   2.028  0.1392 -0.0033  0.0286
63660W        W64524  21.565  17.352   4.677 -0.3135  0.1014 -0.2264
63661W        W64525  20.590  10.187   5.481 -0.3769 -0.0003  0.1997
63662W        W64526  20.648  11.026   7.562  0.1079  0.0761  0.0650
63663W        W64527  25.043  13.135   2.542 -0.1102  0.0745 -0.2062
63664W        W64528  24.401  12.101   4.884 -0.0640  0.0274 -0.2719
63665W        W64529  26.672  12.588   6.906 -0.3342 -0.0057  0.1620
63666W        W64530  20.458  11.844   7.682 -0.1998 -0.1917 -0.0636
63667W        W64531  18.981  12.468   5.575  0.0738  0.1041  0.3921
63668W        W64532  24.649  12.238   4.478  0.0445 -0.1290 -0.0231
63669W        W64533  22.505  13.077   4.597 -0.1157 -0.0749  0.1002
63670W        W64534  21.497  10.207   4.242 -0.0194 -0.0472  0.0057
63671W        W64535  27.431  11.814   4.425  0.0279  0.2360  0.3056
63672W        W64536  23.422  11.674   6.110  0.0287  0.2185  0.0708
63673W        W64537  22.302  11.292   2.990  0.1826  0.0549 -0.0694
63674W        W64538  24.795  13.480   6.162 -0.0404 -0.0969  0.1230
63675W        W64539  21.633  11.746   3.209  0.1385  0.0618 -0.0981
63676W        W64540  20.165  14.355   6.859 -0.1412 -0.1148  0.2238
63677W        W64541  23.655  13.424   8.217 -0.3188  0.0202  0.0170
63678W        W64542  23.796  11.912   4.700 -0.2112  0.0121  0.0657
63679W        W64543  22.934  12.456   4.071 -0.1354  0.0843 -0.0097
63680W        W64544  22.426  13.190   8.671 -0.2906 -0.0887  0.0529
63681W        W64545  26.498  13.356   4.331 -0.3010  0.1136  0.0273
63682W        W64546  22.863  13.668   5.649 -0.2357  0.2437 -0.0260
63683W        W64547  22.414  11.673   6.021 -0.2668  0.0700 -0.1714
63684W        W64548  20.886  13.447   6.261  0.2135  0.1732 -0.0545
63685W        W64549  22.970  13.222   5.833 -0.1417 -0.0142  0.3884
63686W        W64550  21.119  11.770   6.543  0.1319  0.1827 -0.0742
63687W        W64551  22.554  13.902   5.230  0.0909 -0.0104 -0.0234
63688W        W64552  20.203  13.709   5.636 -0.1478 -0.0520  0.1263
63689W        W64553  25.355  14.828   3.662  0.0935  0.4092 -0.0796
63690W        W64554  24.345  16.316   4.894 -0.1497  0.0410 -0.2883
63691W        W64555  25.326   9.818   5.766 -0.0322  0.1977 -0.1749
63692W        W64556  23.965  11.801   2.394 -0.0921 -0.0170  0.0572
63693W        W64557  22.516  13.211   7.052  0.0330  0.0703  0.1054
63694W        W64558  25.254  12.940   6.433  0.0809 -0.5416  0.1242
63695W        W64559  24.839  13.795   6.654  0.1776 -0.2042  0.0859
63696W        W64560  23.010  14.134   2.862 -0.3636 -0.0079  0.1315
63697W        W64561  22.323  11.602   1.676  0.0889 -0.2389  0.0625
63698W        W64562  23.121  10.976   3.855  0.2796  0.0922 -0.1960
63699W        W64563  25.621  13.247   6.305  0.2230  0.1781 -0.3392
63700W        W64564  27.038  14.422   4.013 -0.1011  0.0755  0.3423
63701W        W64565  27.266  12.819   3.500  0.2737 -0.0288 -0.0395
63702W        W64566  21.785  13.105   6.790 -0.1482 -0.0759  0.2033
63703W        W64567  23.154  11.966   4.076 -0.0301 -0.3191 -0.1063
63704W        W64568  22.438  13.867   2.872  0.0420 -0.0910 -0.1018
63705W        W64569  23.815  13.069   6.126 -0.1232  0.1302  0.2275
63706W        W64570  23.848  13.634   4.643  0.2253 -0.0532  0.0256
63707W        W64571  24.245  13.934   4.745  0.0223  0.2098 -0.0954
63708W        W64572  21.521  10.085   2.371 -0.1848  0.1093  0.4205
63709W        W64573  25.370  12.754   6.008 -0.1041 -0.2658  0.0138
63710W        W64574  24.251  12.678   1.321 -0.2232  0.2531  0.1916
63711W        W64575  24.383  13.638   6.499  0.0936 -0.3128  0.2249
63712W        W64576  25.732  13.196   3.090 -0.3027  0.0891 -0.1110
63713W        W64577  22.015  12.710   6.443  0.1156 -0.1449 -0.1328
63714W        W64578  22.461  11.889   3.593 -0.0921 -0.0832  0.0560
63715W        W64579  22.446  12.320   3.298  0.0474  0.1415 -0.4657
63716W        W64580  21.097  10.952   5.343 -0.2779 -0.0270  0.0126
63717W        W64581  26.179  11.416   4.246 -0.0874 -0.3633 -0.4938
63718W        W64582  23.872  10.985   1.767  0.0588 -0.0620  0.0890
63719W        W64583  25.679  12.106   1.254 -0.0658 -0.0071 -0.3177
63720W        W64584  23.318  12.867   3.878 -0.2633 -0.1033 -0.1414
63721W        W64585  25.842  14.084   5.830 -0.0847  0.2150 -0.0368
63722W        W64586  21.779  14.880   5.663 -0.2398  0.2466 -0.2321
63723W        W64587  25.613  14.323   2.805  0.0168 -0.2134 -0.3324
63724W        W64588  25.859  14.588   6.602  0.0789  0.0216 -0.0045
63725W        W64589  23.219  12.197   7.439 -0.1139  0.0447  0.2961
63726W        W64590  22.195  15.198   5.456  0.3186 -0.1198  0.0759
63727W        W64591  23.719  13.177   8.629 -0.1466 -0.1908  0.2418
63728W        W64592  22.231  12.039   1.889 -0.0823 -0.1492 -0.0689
63729W        W64593  21.304  13.160   6.022  0.0794 -0.0034  0.4620
63730W        W64594  24.661  10.839   4.252  0.3082  0.0854  0.0853
63731W        W64595  21.176  12.595   5.822 -0.0029 -0.0534 -0.2271
63732W        W64596  21.733  10.321   4.774  0.1752  0.0038  0.0529
63733W        W64597  22.875  11.791   5.086 -0.1684  0.1502  0.3322
63734W        W64598  21.714  12.917   3.876  0.2239  0.3020  0.0581
63735W        W64599  27.099  12.150   4.734 -0.1732  0.0801 -0.2549
63736W        W64600  24.400   8.009   6.800 -0.0376 -0.1677  0.0397
63737W        W64601  24.948  11.919   5.362 -0.0137 -0.2336  0.0980
63738W        W64602  25.680  11.816   6.353  0.0069  0.0409 -0.1707
63739W        W64603  23.874  13.523   3.446 -0.1034 -0.0812 -0.2691
63740W        W64604  23.078  14.219   5.336  0.0722 -0.2000 -0.3215
63741W        W64605  24.191  12.396   5.275  0.1134  0.4307 -0.0119
63742W        W64606  23.043  13.887   6.655  0.0097  0.1692 -0.2325
63743W        W64607  23.319  10.690   8.525  0.1616  0.0562  0.0271
63744W        W64608  22.217  13.685   2.446 -0.2324  0.1545 -0.0941
63745W        W64609  23.048  12.151   2.096  0.1957 -0.0283  0.0018
63746W        W64610  20.634  13.501   5.843 -0.1782  0.0382 -0.0767
63747W        W64611  25.730  11.571   1.453  0.2031 -0.2182  0.1278
63748W        W64612  27.322  13.005   5.909  0.1416  0.1375  0.1041
63749W        W64613  24.732  14.727   7.309 -0.0231 -0.0504 -0.0760
63750W        W64614  21.881  11.559   5.577 -0.1167  0.0259 -0.2274
63751W        W64615  25.994  16.267   5.861 -0.2245 -0.2386 -0.0740
63752W        W64616  26.954  14.416   2.962  0.0262  0.2076 -0.1721
63753W        W64617  21.466  14.042   7.479  0.0613 -0.2033  0.0213
63754W        W64618  23.719  10.370   3.049 -0.0883 -0.1791  0.1677
63755W        W64619  23.057  13.201   7.336 -0.0719 -0.0994  0.1018
63756W        W64620  24.594  11.107   6.327  0.0334 -0.1304  0.2591
63757W        W64621  23.450  13.162   5.611 -0.1534  0.2286 -0.0817
63758W        W64622  24.181  13.143   3.329  0.1011  0.0580  0.2802
63759W        W64623  25.868  12.953   6.730 -0.1210 -0.1014  0.1691
63760W        W64624  23.026  12.769   5.582 -0.3322 -0.0091 -0.2786
63761W        W64625  23.723   9.147   2.545 -0.0412  0.0771  0.0043
63762W        W64626  22.286  12.187   4.440  0.0694 -0.1045 -0.0748
63763W        W64627  22.611  11.676   4.669  0.2805 -0.2566 -0.0180
63764W        W64628  26.970  13.439   4.587 -0.0643 -0.0961 -0.0051
63765W        W64629  22.185  16.501   3.445 -0.1098 -0.0827  0.3349
63766W        W64630  23.396  15.022   3.341 -0.0613 -0.0254 -0.0595
63767W        W64631  24.604  14.126   4.395  0.2967  0.3161  0.0226
63768W        W64632  27.098  12.396   6.712 -0.2387  0.1016  0.2739
63769W        W64633  24.643  10.342   5.434 -0.1043 -0.0129  0.0496
63770W        W64634  23.561  11.587   7.252  0.0399  0.2053 -0.1583
63771W        W64635  25.433  12.452   3.821  0.1083  0.0221 -0.0792
63772W        W64636  21.395  10.344   2.836  0.1013  0.0840  0.4007
63773W        W64637  24.647  13.323   3.420  0.1932  0.0682 -0.2260
63774W        W64638  26.230  13.083   3.493 -0.0200  0.0813  0.0858
63775W        W64639  25.446  13.446   4.300 -0.1096  0.2087 -0.5074
63776W        W64640  23.970  13.905   5.160 -0.0380  0.2233  0.0849
63777W        W64641  24.614  15.366   3.737 -0.1765  0.2422  0.2159
63778W        W64642  21.167  12.265   2.765  0.0036  0.1709 -0.0277
63779W        W64643  24.926  13.804   5.741  0.3266 -0.0283  0.2266
63780W        W64644  28.176  14.113   6.905  0.1625 -0.2044 -0.0675
63781W        W64645  25.662  13.609   3.739  0.2207 -0.0874 -0.1470
63782W        W64646  23.766  14.726   4.764  0.0652 -0.0401  0.0378
63783W        W64647  25.644  11.559   3.669  0.1896 -0.0452  0.1440
63784W        W64648  24.105  15.816   4.369  0.0368 -0.1535  0.2474
63785W        W64649  24.064  13.143   2.828 -0.3076 -0.0419 -0.2013
63786W        W64650  22.306  15.521   6.299 -0.0054  0.1720  0.3801
63787W        W64651  23.094  13.103   3.507  0.0394  0.2205  0.0958
63788W        W64652  24.499  14.140   3.110 -0.1100  0.1158 -0.1176
63789W        W64653  24.204  10.723   8.038 -0.2796 -0.0074  0.1084
63790W        W64654  24.571  13.740   3.950 -0.0356 -0.0362 -0.0444
63791W        W64655  26.354  13.896   5.629  0.1990 -0.1092  0.2280
63792W        W64656  23.699  11.009   0.803  0.1413 -0.4669 -0.1249
63793W        W64657  22.718   9.484   5.572 -0.0183  0.1780 -0.2488
63794W        W64658  22.458  14.363   2.669 -0.2168  0.0699 -0.0862
63795W        W64659  25.257  13.235   3.764 -0.3384  0.0741 -0.2152
63796W        W64660  20.410  15.650   5.961  0.0395  0.3233 -0.3151
63797W        W64661  25.511  12.360   3.280  0.1589 -0.1368  0.1491
63798W        W64662  26.889  11.719   4.864 -0.0317  0.1656  0.1289
63799W        W64663  24.534  14.580   3.417  0.2856 -0.0868 -0.1276
63800W        W64664  23.674  13.707   6.810  0.3711  0.0684 -0.2064
63801W        W64665  21.748  13.531   6.519 -0.0282 -0.0257 -0.0577
63802W        W64666  26.218  13.115   6.382 -0.2290 -0.2786  0.1868
63803W        W64667  25.443   9.038   4.885 -0.0032 -0.0128  0.2431
63804W        W64668  23.529  14.023   6.397 -0.1953  0.0725  0.1621
63805W        W64669  23.974  10.887   2.970 -0.0112 -0.1454  0.0505
63806W        W64670  24.414  12.712   4.884  0.1367 -0.1180  0.0972
63807W        W64671  22.486  12.106   4.985  0.2022 -0.2676 -0.0580
63808W        W64672  22.383  10.950   4.300  0.0169  0.1199  0.0501
63809W        W64673  23.414  12.983   1.765 -0.0137  0.0219 -0.0350
63810W        W64674  23.354  10.254   1.756 -0.0954  0.0652 -0.1162
63811W        W64675  24.936  14.904   4.685  0.2768  0.0988  0.0622
63812W        W64676  24.379   9.924   5.958  0.1327  0.0338 -0.1279
63813W        W64677  21.816  14.365   5.856 -0.0253  0.0361  0.0341
63814W        W64678  22.995  12.015   8.224 -0.1532  0.1598  0.1068
63815W        W64679  22.973  13.781   6.116  0.2625  0.1095  0.1756
63816W        W64680  21.619  12.327   5.701 -0.0389 -0.0740  0.0352
63817W        W64681  23.414  11.695   2.280  0.3819 -0.1180 -0.3045
63818W        W64682  24.298  11.325   3.014 -0.0611 -0.2869  0.2567
63819W        W64683  23.836  13.925   3.772  0.0603 -0.3727 -0.0387
63820W        W64684  24.389  11.849   6.806  0.0616  0.1410  0.0057
63821W        W64685  22.895  14.839   4.746 -0.0880 -0.0159  0.1954
63822W        W64686  22.892  11.689   6.148  0.1016 -0.0268 -0.2917
63823W        W64687  24.755  13.987   6.165  0.3501 -0.0677 -0.1196
63824W        W64688  24.876  12.944   6.097 -0.3621  0.3522  0.1182
63825W        W64689  26.298  15.168   5.395 -0.1525  0.1008  0.0281
63826W        W64690  25.019  12.086   1.558  0.0544 -0.0286  0.0437
63827W        W64691  25.719  12.144   4.722 -0.1522  0.0122  0.1096
63828W        W64692  20.995  12.828   5.433  0.1733  0.0580  0.1132
63829W        W64693  20.171  12.741   4.376  0.0926 -0.1485  0.0222
63830W        W64694  20.398  15.191   6.672  0.0281 -0.0034 -0.1436
63831W        W64695  22.902  12.974   4.284  0.3095  0.1773 -0.4486
63832W        W64696  23.585  14.220   4.096  0.0254  0.4600 -0.2658
63833W        W64697  26.952  12.673   0.023  0.0027  0.3605 -0.1503
63834W        W64698  25.064  14.406   3.667  0.0374 -0.1772  0.1117
63835W        W64699  24.960  11.544   4.403  0.0727 -0.0473 -0.3408
63836W        W64700  25.320  10.428   0.171  0.0742  0.0861  0.1435
63837W        W64701  23.592  12.358   7.877  0.2314  0.3456 -0.3374
63838W        W64702  26.002  10.613   1.805 -0.2765 -0.0188  0.1420
63839W        W64703  21.948  11.173   4.302  0.1746  0.1755 -0.0264
63840W        W64704  23.347  14.613   7.062  0.0082  0.3565  0.2110
63841W        W64705  23.200  12.750   5.090  0.0023 -0.1383  0.1854
63842W        W64706  23.569  13.098   3.379  0.1855 -0.2713 -0.0126
63843W        W64707  20.024  12.669   4.874 -0.2255 -0.2589  0.1482
63844W        W64708  20.563  12.671   5.039  0.2732 -0.0358  0.4973
63845W        W64709  21.105  12.147   5.869 -0.1884  0.5146 -0.1553
63846W        W64710  20.783  11.429   5.282  0.0494 -0.1563 -0.1173
63847W        W64711  21.267  10.424   6.100  0.0463 -0.1557 -0.0204
63848W        W64712  24.812  10.952   2.474 -0.1806  0.1093 -0.0781
63849W        W64713  23.450  12.587   6.081  0.2705  0.0052  0.0178
63850W        W64714  23.342   9.104   3.576  0.0814  0.1332  0.1428
63851W        W64715  27.100  13.497   6.016 -0.3623 -0.3323  0.1509
63852W        W64716  23.010   9.140   3.114 -0.0172 -0.2912  0.1156
63853W        W64717  23.838  12.056   5.232 -0.4243  0.0410 -0.3783
63854W        W64718  25.933  13.537   4.193  0.1989 -0.0157  0.0395
63855W        W64719  20.351  12.265   4.694 -0.0646 -0.1850  0.3822
63856W        W64720  22.971  12.335   4.934 -0.0403  0.2639 -0.0255
63857W        W64721  18.838  10.636   2.550 -0.0040  0.0096 -0.0877
63858W        W64722  23.819  13.324   5.203  0.2926 -0.0350  0.1471
63859W        W64723  24.376  13.014   6.056  0.0592 -0.1413  0.1737
63860W        W64724  21.528  14.368   1.202  0.2731 -0.1910 -0.4819
63861W        W64725  23.089  11.305   4.845  0.0321  0.0959  0.2559
63862W        W64726  25.383  14.076   5.657 -0.1398 -0.0787 -0.4488
63863W        W64727  20.846  12.956   5.900  0.0459 -0.2165 -0.2611
63864W        W64728  21.935  11.097   6.528  0.1033 -0.3188  0.1300
63865W        W64729  26.340  12.111   5.811  0.0086  0.0162  0.0046
63866W        W64730  23.828  14.634   5.377 -0.1374 -0.0674  0.1479
63867W        W64731  25.422  16.286   3.232  0.2406  0.1013  0.1803
63868W        W64732  23.378  14.077   2.399 -0.2274  0.0050  0.0184
63869W        W64733  23.616  14.756   4.188 -0.0998 -0.1435  0.1323
63870W        W64734  21.691  14.095   7.978 -0.0821  0.1050 -0.1412
63871W        W64735  19.869  10.868   7.929  0.1478  0.0816 -0.0225
63872W        W64736  26.967   9.033   6.099 -0.0736  0.0187 -0.0503
63873W        W64737  24.671  12.300   5.430 -0.0783 -0.1150  0.0208
63874W        W64738  22.059  11.955   7.982 -0.0256 -0.1792 -0.1053
63875W        W64739  22.394  12.685   4.173 -0.0311  0.0656  0.1000
63876W        W64740  27.046  14.700   4.462 -0.1855 -0.0455 -0.0536
63877W        W64741  20.059  13.480   5.180 -0.0522 -0.0688 -0.1905
63878W        W64742  23.147  11.695   6.997  0.0658  0.3841 -0.2261
63879W        W64743  26.297  14.541   8.702  0.4015 -0.0363 -0.2834
63880W        W64744  23.794  15.089   5.130 -0.1453  0.1549 -0.2374
63881W        W64745  22.954  12.907   8.737  0.1187  0.2113  0.1955
63882W        W64746  22.758  12.850   6.827 -0.1406  0.1528 -0.0448
63883W        W64747  23.142  12.673   9.160  0.1133  0.1902  0.1768
63884W        W64748  22.465  10.957   1.718 -0.4652 -0.2631  0.1158
63885W        W64749  24.792  13.243   5.208  0.2865  0.0728 -0.0932
63886W        W64750  20.271   9.263   7.614 -0.2113  0.1724  0.2929
63887W        W64751  26.924  13.964   5.802 -0.0726 -0.2624  0.0628
63888W        W64752  27.477  11.834   6.346  0.0610 -0.1185  0.0998
63889W        W64753  21.617  13.811   7.066 -0.6659  0.0543  0.0407
63890W        W64754  26.282  13.676   6.507 -0.1872 -0.0589  0.4112
63891W        W64755  27.427  13.088   4.751 -0.0791  0.2268  0.0858
63892W        W64756  23.108  13.481   4.121  0.0801 -0.0249  0.0301
63893W        W64757  20.822  14.409   5.498  0.1179  0.4056 -0.0155
63894W        W64758  22.867  13.150   5.359 -0.0692 -0.0888  0.1995
63895W        W64759  23.912  11.828   6.362  0.3620 -0.0061 -0.0047
63896W        W64760  24.751  12.146   6.503 -0.0247 -0.1799  0.2394
63897W        W64761  24.045  12.600   3.960 -0.0660  0.1984 -0.1207
63898W        W64762  21.726  12.488   6.746 -0.0807  0.2197 -0.2263
63899W        W64763  21.361  14.506   6.719  0.0952  0.2421  0.3624
63900W        W64764  25.024  15.147   5.503 -0.0568 -0.1171  0.2612
63901W        W64765  24.616  11.371   3.947  0.0273 -0.1294  0.0681
63902W        W64766  22.676  12.464   4.524  0.2283 -0.0851 -0.0590
63903W        W64767  24.340  14.673   5.435 -0.0328 -0.5621  0.1731
63904W        W64768  24.171  13.633   7.513  0.1628  0.1066 -0.1938
63905W        W64769  27.312  13.709   5.540  0.3589 -0.2427  0.0071
63906W        W64770  20.374  10.622   2.549  0.0435  0.0842 -0.1677
63907W        W64771  26.068  12.184   5.406  0.1670 -0.1432 -0.2117
63908W        W64772  26.604  14.363   6.016  0.1468  0.2446  0.0414
63909W        W64773  22.342   8.934   7.801 -0.1051 -0.0616  0.2370
63910W        W64774  24.523  11.567   8.136 -0.0761 -0.0629  0.0112
63911W        W64775  25.286  13.356   5.283  0.2490 -0.0178 -0.0182
63912W        W64776  22.105  13.367   3.837 -0.1422  0.2155 -0.1007
63913W        W64777  23.870  13.691   5.663  0.4416  0.0741  0.2011
63914W        W64778  24.376  14.926   5.991 -0.1710 -0.1170 -0.4813
63915W        W64779  21.968  13.314   4.862 -0.0793 -0.0653 -0.2365
63916W        W64780  24.058  13.251   5.671 -0.1978  0.2218 -0.1151
63917W        W64781  22.079  12.185   7.052 -0.0117  0.2331 -0.0526
63918W        W64782  21.033  12.047   3.157 -0.2774 -0.2707  0.6167
63919W        W64783  23.169  15.020   4.396 -0.3380 -0.2060  0.1735
63920W        W64784  19.638  13.278   5.683  0.4348 -0.0566  0.1138
63921W        W64785  27.443  14.337   2.766 -0.0376  0.2731  0.0432
63922W        W64786  22.043  13.481   6.942 -0.1152 -0.0744  0.2108
63923W        W64787  24.533  14.096   5.121 -0.1900 -0.1291  0.0242
63924W        W64788  23.700  15.053   3.761 -0.0239 -0.0141 -0.1074
63925W        W64789  22.291  13.455   7.380 -0.0834 -0.0292  0.1032
63926W        W64790  25.161  13.911   4.700 -0.1433 -0.1167  0.1161
63927W        W64791  25.064   9.842   4.925  0.0337  0.0963 -0.1951
63928W        W64792  20.603  11.990   5.890  0.0089 -0.0591  0.0109
63929W        W64793  23.222  10.470   3.158 -0.2108 -0.1267  0.1536
63930W        W64794  24.724  12.517   1.294 -0.1239 -0.1014 -0.0074
63931W        W64795  22.007  13.007   7.366 -0.0862 -0.0069  0.0213
63932W        W64796  24.027  14.617   5.854  0.3462  0.1241  0.2500
63933W        W64797  24.091  11.370   3.849 -0.4076  0.1735 -0.1655
63934W        W64798  23.907  12.209   5.675  0.2972  0.1684  0.2929
63935W        W64799  20.914  13.895   5.942  0.0024 -0.1050 -0.0135
63936W        W64800  28.387  14.226   2.832  0.0986  0.0147  0.0877
63937W        W64801  25.975  11.051   6.419 -0.1052 -0.1250  0.0082
63938W        W64802  22.969  12.108   3.619 -0.2702 -0.2514  0.2348
63939W        W64803  21.949  13.855   7.569 -0.1145 -0.0772 -0.0322
63940W        W64804  23.497  12.248   2.403  0.2287 -0.0527  0.0790
63941W        W64805  25.569  15.228   4.759  0.3924  0.0996 -0.2399
63942W        W64806  22.382  13.071   3.043 -0.0892 -0.3026 -0.0543
63943W        W64807  26.281  12.244   3.704  0.0460  0.2970 -0.0804
63944W        W64808  22.779  11.616   8.506 -0.3921  0.0424 -0.1550
63945W        W64809  24.730  10.463   2.645 -0.3506 -0.1545  0.2734
63946W        W64810  26.324  13.823   4.395 -0.1817  0.2036  0.0361
63947W        W64811  22.648  10.747   3.205 -0.0590  0.0969  0.0531
63948W        W64812  24.765  13.282   3.964 -0.1339  0.1264 -0.4669
63949W        W64813  20.779  14.415   5.984  0.0308  0.2920 -0.3012
63950W        W64814  23.912  12.753   5.724 -0.1191 -0.0780  0.0654
63951W        W64815  22.294  12.070   6.267 -0.3062  0.0782  0.0381
63952W        W64816  21.545  12.435   3.101 -0.2081  0.0608  0.0950
63953W        W64817  21.052  12.291   6.852  0.0943 -0.3209 -0.2848
63954W        W64818  22.540  13.988   8.624  0.2208 -0.0183 -0.3093
63955W        W64819  26.567  12.696   3.618  0.0859 -0.0419  0.3088
63956W        W64820  25.435  13.942   5.143  0.2722  0.4710  0.0565
63957W        W64821  23.394  13.686   5.454 -0.0216  0.3168  0.1880
63958W        W64822  27.761  12.886   7.021  0.2218 -0.0208  0.0701
63959W        W64823  24.670   9.850   1.426 -0.0866  0.1080  0.0771
63960W        W64824  22.151  10.754   2.989 -0.1139  0.1762 -0.1895
63961W        W64825  20.625  13.515   5.128  0.1088 -0.1091 -0.1223
63962W        W64826  24.489  11.697   4.387  0.3215 -0.1235 -0.0298
63963W        W64827  24.630  10.262   4.982  0.1528 -0.0621 -0.0397
63964W        W64828  25.966  11.786   3.963  0.1857 -0.2081  0.0803
63965W        W64829  22.389  11.516   8.119 -0.0794 -0.3000  0.0829
63966W        W64830  24.011  14.032   4.253  0.1734 -0.1388 -0.0661
63967W        W64831  24.145  12.898   8.509 -0.0346  0.2109  0.1218
63968W        W64832  21.646  12.088   4.060  0.1261 -0.3610 -0.1699
63969W        W64833  29.116   9.165   4.518 -0.1846  0.1324 -0.0062
63970W        W64834  22.534  14.855   7.069 -0.0914 -0.2239 -0.0304
63971W        W64835  23.818  11.085   4.198  0.3614  0.3255  0.0099
63972W        W64836  21.806  13.852   3.752  0.2975  0.0043 -0.1326
63973W        W64837  24.328  15.796   3.455  0.0199 -0.0929  0.1210
63974W        W64838  17.998  12.303   6.008 -0.1443  0.2583 -0.0609
63975W        W64839  22.993  12.249   6.874 -0.4275 -0.0424 -0.3114
63976W        W64840  21.952  12.000   3.548 -0.3156  0.0744  0.1557
63977W        W64841  23.445  14.514   5.074 -0.1451 -0.2444 -0.1023
63978W        W64842  22.632  11.294   3.993 -0.1759 -0.1870  0.0147
63979W        W64843  19.180  13.687   3.979 -0.0853 -0.1043 -0.1364
63980W        W64844  27.223  14.668   0.967 -0.0008  0.1652  0.1743
63981W        W64845  21.755  11.909   0.572  0.0555  0.0992  0.2585
63982W        W64846  22.890  10.829   7.115  0.3494 -0.0320  0.2481
63983W        W64847  25.929   8.675   2.863 -0.2417 -0.3530 -0.1976
63984W        W64848  22.789  13.595   7.358  0.4522  0.1027 -0.0546
63985W        W64849  21.452  11.867   5.564  0.0108  0.0296 -0.0050
63986W        W64850  24.730  15.332   8.300  0.3264  0.0600 -0.0612
63987W        W64851  24.211  14.001   6.091 -0.2750  0.0730  0.2446
63988W        W64852  25.854  15.773   4.226  0.0253 -0.1338  0.1591
63989W        W64853  24.705  14.069   3.579  0.4494 -0.2121  0.2300
63990W        W64854  22.756  12.613   5.951 -0.3405  0.3169 -0.0585
63991W        W64855  23.973  12.255   3.193  0.0279 -0.2718  0.0345
63992W        W64856  21.163  13.612   5.189 -0.1145  0.5585  0.3352
63993W        W64857  24.270  11.462   6.450 -0.0420  0.1939 -0.0014
63994W        W64858  23.446  13.894   4.952 -0.2219 -0.1403  0.1642
63995W        W64859  20.946  11.856   2.609 -0.0644 -0.2570 -0.4011
63996W        W64860  25.030  13.185   3.077  0.1684  0.3940  0.2595
63997W        W64861  21.190  15.847   7.666  0.0926 -0.0568  0.2397
63998W        W64862  20.177  11.139   2.733 -0.0094 -0.1843 -0.2882
63999W        W64863  23.255  10.503   6.687 -0.0599  0.2134 -0.0937
64000W        W64864  21.388  15.431   7.386  0.1914 -0.0681 -0.1112
64001W        W64865  21.457  11.659   4.899 -0.1476 -0.1075 -0.2147
64002W        W64866  23.740  13.491   2.950 -0.0354  0.0208  0.0386
64003W        W64867  26.408  11.323   2.463 -0.0560 -0.1463  0.1526
64004W        W64868  24.417  13.029   4.266 -0.4108 -0.0540 -0.2366
64005W        W64869  23.725  15.511   5.620 -0.2959 -0.0309 -0.0083
64006W        W64870  22.306  13.845   3.916 -0.0212 -0.0777  0.0709
64007W        W64871  22.623  10.344   1.324 -0.1241  0.0570 -0.0501
64008W        W64872  23.960  15.785   7.607  0.3492  0.0749  0.1609
64009W        W64873  25.830  12.760   6.239 -0.1125 -0.3125  0.2180
64010W        W64874  20.323  10.238   5.943  0.1611  0.0970 -0.0839
64011W        W64875  22.782  12.119   6.358  0.0486 -0.1120 -0.3109
64012W        W64876  23.183  12.839   3.090  0.6688 -0.3973 -0.0956
64013W        W64877  23.072  12.669   7.245  0.3844  0.1590  0.0571
64014W        W64878  22.621  12.414   5.461 -0.0263 -0.0536  0.3152
64015W        W64879  27.826  13.543   1.697  0.1155  0.1715  0.1683
64016W        W64880  23.140  16.442   5.746 -0.2434  0.0159  0.0193
64017W        W64881  24.419  14.756   6.606 -0.1351 -0.1606 -0.0616
64018W        W64882  23.266  14.391   7.673  0.0577 -0.2771 -0.1221
64019W        W64883  23.302  14.005   5.805  0.1392  0.0034 -0.1465
64020W        W64884  22.778  10.326   6.741 -0.2869 -0.2543  0.1909
64021W        W64885  27.125  11.206   4.886 -0.1594  0.2167 -0.2215
64022W        W64886  24.497  12.089   1.494 -0.1992  0.0154 -0.0856
64023W        W64887  24.295  11.590   3.411  0.1380 -0.3495  0.1077
64024W        W64888  23.986  12.258   2.670 -0.0534 -0.0482  0.2677
64025W        W64889  25.449  12.517   4.337  0.1797 -0.0584 -0.1474
64026W        W64890  24.429  17.099   4.828  0.0948 -0.0465 -0.0823
64027W        W64891  24.466  13.872   7.078  0.0243 -0.2893 -0.0614
64028W        W64892  22.156  11.166   6.076  0.3054  0.0211  0.0877
64029W        W64893  19.926  15.101   6.105 -0.0082 -0.1367 -0.0531
64030W        W64894  24.482  12.753   5.611 -0.4503  0.0523 -0.0935
64031W        W64895  22.152  11.328   7.363  0.1161  0.1121  0.0075
64032W        W64896  22.776  12.947   8.252  0.0737 -0.2632 -0.0496
64033W        W64897  20.334  13.135   4.886  0.3417 -0.3826  0.1410
64034W        W64898  21.265  12.734   6.770 -0.0493 -0.0995 -0.0306
64035W        W64899  22.915  12.916   7.747  0.1470  0.0900  0.0280
64036W        W64900  24.872  15.405   9.684 -0.0158 -0.1872  0.1129
64037W        W64901  24.755   9.802   4.463 -0.1141  0.0635 -0.2426
64038W        W64902  27.484  14.770   4.104 -0.0302 -0.0786 -0.0354
64039W        W64903  22.235  12.850   3.664  0.0985  0.2106  0.1119
64040W        W64904  25.843  13.599   6.043  0.1803  0.1213  0.0191
64041W        W64905  23.745  12.352   6.576  0.1004  0.2467  0.0677
64042W        W64906  24.140  14.228   5.504 -0.1421  0.2488 -0.0647
64043W        W64907  23.049  12.580   3.538 -0.1058 -0.0910 -0.0919
64044W        W64908  24.288  13.573   3.027  0.1460 -0.1015  0.1384
64045W        W64909  23.731  14.211   4.631  0.0071 -0.2564  0.0212
64046W        W64910  21.428  12.618   4.169 -0.1758  0.0672 -0.1643
64047W        W64911  23.619  13.632   4.209 -0.0794  0.0177  0.0272
64048W        W64912  25.260  11.964   3.638  0.0315  0.0190  0.2967
64049W        W64913  23.751  14.020   8.962  0.0948 -0.2173  0.1879
64050W        W64914  22.658  12.796   3.349  0.0436 -0.1224  0.1026
64051W        W64915  22.786  11.313   6.530 -0.2111 -0.1176 -0.0111
64052W        W64916  21.999  12.686  11.382 -0.2523  0.0158 -0.2663
64053W        W64917  23.578  12.153   8.924  0.2655 -0.0461 -0.0468
64054W        W64918  23.087  14.314   8.141 -0.0302 -0.2184  0.0573
64055W        W64919  25.704  15.530   8.001  0.0067  0.0132 -0.0542
64056W        W64920  22.196  13.968   6.651  0.2972 -0.3235 -0.0768
64057W        W64921  22.277  12.755   8.380 -0.0365 -0.0686  0.0917
64058W        W64922  20.518  11.154   6.988  0.3239  0.0447  0.2345
64059W        W64923  22.952  13.269   9.738  0.2865  0.0261 -0.0473
64060W        W64924  23.882  11.974  11.104  0.0482  0.2181  0.1372
64061W        W64925  22.242  11.897  11.014  0.2150 -0.1457  0.0169
64062W        W64926  19.344  13.615  12.945 -0.0874  0.1376 -0.2427
64063W        W64927  22.811  12.323   9.942 -0.0291  0.2701 -0.2252
64064W        W64928  24.070  12.295   6.988 -0.4166 -0.1613 -0.0504
64065W        W64929  23.987   9.567  11.296  0.0806 -0.3275 -0.1044
64066W        W64930  20.800  12.003  10.853  0.0974 -0.3451  0.1545
64067W        W64931  21.657  14.240  10.388  0.1327 -0.1246 -0.1712
64068W        W64932  24.620  11.506   8.661  0.1213 -0.1230  0.2370
64069W        W64933  23.003  14.375  10.406  0.0884  0.1936  0.2257
64070W        W64934  25.623  13.087   8.438  0.0120 -0.1342 -0.1576
64071W        W64935  24.548  10.032  10.827  0.2610  0.1423  0.1372
64072W        W64936  27.933  15.369  10.114 -0.0773  0.1617 -0.0886
64073W        W64937  21.978  12.338  10.951  0.0527 -0.0659 -0.2032
64074W        W64938  26.296  14.822   8.287 -0.0136 -0.1409 -0.1839
64075W        W64939  22.414  11.529  10.700 -0.0371  0.1112 -0.0529
64076W        W64940  20.292  11.403   9.828 -0.4179 -0.0188  0.0430
64077W        W64941  22.181  13.689   9.473 -0.2933 -0.0511 -0.0505
64078W        W64942  24.814  14.225   8.908 -0.0359 -0.1748  0.0532
64079W        W64943  22.916  11.565  10.732 -0.0637  0.3320  0.1932
64080W        W64944  24.722  15.725  11.233  0.0202 -0.0445 -0.3080
64081W        W64945  25.408  13.237   9.572 -0.2481  0.0431 -0.1744
64082W        W64946  23.314  13.731   8.983 -0.1092  0.0691  0.0390
64083W        W64947  23.479  14.507  10.482 -0.0741 -0.0826 -0.3660
64084W        W64948  22.375  15.109  13.036 -0.0273  0.1648  0.2678
64085W        W64949  23.409  14.262  10.862 -0.1710  0.0028  0.0033
64086W        W64950  22.326  13.146  11.389 -0.3533  0.0267 -0.2746
64087W        W64951  27.464  14.386   8.936 -0.5282 -0.1620 -0.2111
64088W        W64952  20.576  10.845   8.669  0.1550  0.2031  0.1543
64089W        W64953  26.880  13.073   6.949  0.1721  0.1187  0.1380
64090W        W64954  25.748  13.366  11.923  0.0653  0.0758 -0.0910
64091W        W64955  21.926  10.309   7.701  0.2188 -0.0914 -0.0293
64092W        W64956  24.551  11.263   6.790  0.1562 -0.1595  0.0557
64093W        W64957  25.903   9.931   9.515 -0.2004  0.0280 -0.1015
64094W        W64958  25.594  13.067  10.167  0.2151 -0.2094 -0.1981
64095W        W64959  23.785  11.932   8.546  0.1834 -0.2081 -0.0981
64096W        W64960  22.248  13.081   9.795 -0.1090 -0.0314  0.1214
64097W        W64961  24.553  13.329   8.523 -0.1482 -0.0141  0.0772
64098W        W64962  21.195  10.991   9.419  0.1396 -0.0264  0.1988
64099W        W64963  25.770  13.584   9.659  0.1198  0.0211  0.1007
64100W        W64964  23.341  12.338   8.437 -0.2730  0.1296  0.0964
64101W        W64965  23.077  10.232   8.735  0.2691 -0.1260 -0.1534
64102W        W64966  25.914  13.458   8.647  0.0773  0.0584  0.0093
64103W        W64967  21.557  12.852   7.120  0.1047 -0.2399  0.1422
64104W        W64968  26.052  13.636   9.076  0.0610 -0.0750  0.0454
64105W        W64969  26.250  11.859   6.478  0.0279  0.1697  0.0729
64106W        W64970  24.231  12.194   6.472  0.0472  0.0746 -0.0456
64107W        W64971  21.551  14.562   9.656 -0.0156  0.4322  0.0527
64108W        W64972  22.492  12.242   8.211  0.3812  0.1986  0.2589
64109W        W64973  24.576  12.572   6.052 -0.1720  0.0498  0.1611
64110W        W64974  24.757  15.542   8.729 -0.2215  0.1618  0.0527
64111W        W64975  24.118  12.426   8.618 -0.1673  0.1928 -0.1124
64112W        W64976  24.008  11.827   7.258 -0.0005 -0.0448  0.1620
64113W        W64977  21.224  13.827   8.630  0.0343 -0.1814 -0.0371
64114W        W64978  24.430  14.356  10.930  0.1487 -0.0892 -0.4865
64115W        W64979  22.458  12.329  11.855 -0.1801 -0.4072 -0.2440
64116W        W64980  23.072  13.318   9.127  0.2028 -0.0561 -0.0036
64117W        W64981  25.941  12.449   5.790  0.1797  0.2764  0.3624
64118W        W64982  22.478  12.219   6.748  0.1149  0.0541 -0.4117
64119W        W64983  20.719  13.357   6.789 -0.1141 -0.0143  0.2103
64120W        W64984  24.054  16.002   9.902 -0.0721 -0.1515  0.1361
64121W        W64985  23.017  12.443   7.886 -0.0612  0.0692  0.5234
64122W        W64986  25.669  12.569  10.194 -0.1283 -0.0133  0.2321
64123W        W64987  23.504  11.046   8.241  0.0313 -0.1020  0.1186
64124W        W64988  23.553  13.971   7.579  0.0310  0.0495  0.1837
64125W        W64989  28.009  12.586   9.182  0.0047 -0.0555  0.0629
64126W        W64990  25.092  13.571   7.020  0.0462 -0.0337  0.2687
64127W        W64991  25.762  14.700  10.222 -0.1036  0.1079 -0.1852
64128W        W64992  22.138  13.274   8.293 -0.1008 -0.3647 -0.2416
64129W        W64993  24.024  12.221   7.558 -0.1952 -0.0217 -0.0165
64130W        W64994  22.058  12.244   4.870  0.2305  0.2239  0.0794
64131W        W64995  24.997  11.173   6.972 -0.3928  0.0520  0.0275
64132W        W64996  24.420  12.229  11.191 -0.1282  0.1002  0.0312
64133W        W64997  20.602  10.729  11.812 -0.0405 -0.0700  0.0461
64134W        W64998  19.889  12.644   7.993 -0.0975 -0.3531  0.0386
64135W        W64999  25.082  12.398   8.632 -0.1752 -0.0633  0.2992
64136W        W65000  23.735  11.374   8.672  0.0183 -0.2459  0.0484
64137W        W65001  24.827  11.608   6.229  0.2572  0.1854  0.0164
64138W        W65002  26.563  15.138   8.657 -0.2221 -0.0547 -0.1743
64139W        W65003  24.122   9.271   8.137  0.3643  0.0131  0.1766
64140W        W65004  26.501  15.111   9.550 -0.2241  0.0818 -0.0096
64141W        W65005  25.010  11.686   8.981  0.2138  0.2983  0.1423
64142W        W65006  24.229  11.337   8.905 -0.1681 -0.1247 -0.0587
64143W        W65007  25.428  11.678  12.185  0.1669 -0.0252  0.0906
64144W        W65008  23.688  15.823   8.656  0.1404 -0.3509  0.2453
64145W        W65009  21.570  11.897   7.745  0.2377 -0.0180 -0.0385
64146W        W65010  21.138  11.712  10.579  0.2675 -0.0185  0.1760
64147W        W65011  23.635  14.598   8.247 -0.2799  0.0559 -0.1151
64148W        W65012  25.638  15.311   8.427  0.4090 -0.1352 -0.0507
64149W        W65013  22.305  12.663  10.078  0.0060  0.1148  0.2263
64150W        W65014  22.973  14.031  10.734  0.2570  0.1844  0.2650
64151W        W65015  25.985  11.382   8.685  0.0349  0.0379  0.0693
64152W        W65016  27.072  15.137   8.401  0.1844 -0.1773  0.0167
64153W        W65017  22.638  13.967   8.070  0.0479  0.1417 -0.0574
64154W        W65018  23.225   9.091   8.502 -0.0359  0.3084 -0.2905
64155W        W65019  26.313  13.405   9.411 -0.0352 -0.0707  0.1142
64156W        W65020  25.878  11.795   9.521 -0.0206  0.0254  0.0876
64157W        W65021  20.273  11.291  10.383  0.0359 -0.1691 -0.0639
64158W        W65022  25.855  14.308   8.564 -0.2780 -0.2957 -0.4372
64159W        W65023  25.522  14.440  11.551  0.0855  0.2320  0.2520
64160W        W65024  24.496  14.883   8.329  0.2572 -0.1473 -0.5385
64161W        W65025  24.590  11.896  11.520  0.1515  0.0471 -0.0479
64162W        W65026  20.810  14.682   8.979  0.2536 -0.0299  0.2644
64163W        W65027  27.123  13.121   7.756 -0.1176  0.3238  0.0262
64164W        W65028  26.173  11.146   6.969  0.1469  0.1999 -0.0236
64165W        W65029  24.882  13.367   9.893  0.1024  0.1734 -0.2981
64166W        W65030  23.686  12.691   8.664 -0.0220 -0.0554  0.0065
64167W        W65031  23.456  15.638   7.841  0.2858  0.0142  0.0765
64168W        W65032  26.887  12.278   8.605 -0.1137 -0.3474  0.5571
64169W        W65033  23.464  14.782   9.856  0.0049  0.1901  0.1014
64170W        W65034  25.695  13.874  10.072 -0.2059 -0.1176 -0.1815
64171W        W65035  25.021  10.904   8.322 -0.2066 -0.2844  0.1082
64172W        W65036  23.463  10.780   6.329 -0.1099 -0.1852  0.4462
64173W        W65037  24.288  12.601   7.291 -0.1817  0.2221 -0.0608
64174W        W65038  23.259  15.746   7.186 -0.1074  0.1724 -0.4292
64175W        W65039  27.051  13.244   5.603  0.0102  0.1703 -0.2175
64176W        W65040  24.858  13.820   7.403 -0.0278 -0.1338  0.0301
64177W        W65041  27.681  13.717   9.640 -0.0258 -0.3188  0.0148
64178W        W65042  20.761  12.061   6.356 -0.0037  0.0585 -0.1369
64179W        W65043  26.236  13.944  10.281  0.0660 -0.3097 -0.0281
64180W        W65044  24.697  15.859   8.157  0.0298  0.3387 -0.1980
64181W        W65045  25.252  13.353   5.872 -0.4236  0.4128 -0.2293
64182W        W65046  26.749  13.125   8.713  0.2475 -0.0274 -0.1262
64183W        W65047  26.955  12.302  10.278 -0.2886 -0.1572 -0.0936
64184W        W65048  26.044  12.845   8.420  0.1152 -0.2961 -0.0188
64185W        W65049  25.344  11.150   7.887  0.0567  0.0483 -0.0484
64186W        W65050  23.554  13.736   8.551  0.0668 -0.1227 -0.1177
64187W        W65051  19.855  10.685   9.798 -0.1230 -0.0777 -0.1236
64188W        W65052  24.118  10.161   6.329 -0.1777  0.1557  0.1219
64189W        W65053  23.980  12.878  10.913  0.1188  0.2989 -0.0844
64190W        W65054  25.152  14.424   9.414  0.2651 -0.0624  0.0234
64191W        W65055  22.757  13.421   8.291 -0.1501 -0.0750 -0.1178
64192W        W65056  22.617  12.481   7.159  0.1439 -0.1111 -0.2141
64193W        W65057  23.402  12.828   7.744 -0.1006 -0.1748 -0.0868
64194W        W65058  23.759  13.482   7.261  0.3910  0.1535 -0.1762
64195W        W65059  23.676  10.601   8.090  0.0196 -0.1441  0.0565
64196W        W65060  20.756  14.191  11.671 -0.1963 -0.2714  0.0024
64197W        W65061  21.698   9.400   8.978  0.0284 -0.1194 -0.2476
64198W        W65062  22.429  12.240  12.383  0.1303 -0.0807  0.0000
64199W        W65063  26.470  13.111   8.292  0.1719  0.0286  0.1068
64200W        W65064  25.914  15.528   9.253  0.3384  0.1471  0.0532
64201W        W65065  22.909  13.585  10.187 -0.2683 -0.3062  0.0109
64202W        W65066  27.782  14.134   9.328 -0.0923  0.3796  0.0906
64203W        W65067  20.895  13.430   8.631  0.0997  0.4673 -0.2065
64204W        W65068  24.135  11.772  10.101  0.3227 -0.0323  0.0631
64205W        W65069  22.598  10.310   7.191  0.0291 -0.3324 -0.0409
64206W        W65070  21.912  12.194  10.126 -0.2669 -0.0938 -0.0502
64207W        W65071  24.697  13.736   8.897 -0.0488 -0.0628 -0.1610
64208W        W65072  19.634  12.108  11.362 -0.0062 -0.0926 -0.0225
64209W        W65073  23.077  12.273   8.884  0.2685  0.2999  0.3467
64210W        W65074  24.975  12.116   8.147  0.1194  0.0921 -0.1722
64211W        W65075  22.305  12.074  10.533 -0.2295  0.1915 -0.0534
64212W        W65076  22.476  11.389   9.312  0.2465 -0.1328 -0.3235
64213W        W65077  23.550  13.109   9.107 -0.0543 -0.1799  0.2119
64214W        W65078  24.575  15.461  10.713  0.0446 -0.1698  0.0589
64215W        W65079  26.660  13.980  10.722  0.1055 -0.3076  0.3750
64216W        W65080  23.447  11.803  10.875  0.0507  0.4536  0.0092
64217W        W65081  24.281  12.030   8.400 -0.1081  0.3721  0.1945
64218W        W65082  19.495   9.649   8.432 -0.0003 -0.0661 -0.0633
64219W        W65083  23.197  13.947   9.537  0.4247 -0.0090 -0.3039
64220W        W65084  24.782  12.710  11.916  0.0995  0.0760 -0.2878
64221W        W65085  21.756  13.687   9.176  0.1908  0.0617  0.4196
64222W        W65086  26.662  14.190   8.577 -0.0719 -0.0562  0.1387
64223W        W65087  26.543  10.718   8.330 -0.4955 -0.0331  0.0520
64224W        W65088  25.451  13.611   8.336  0.0520  0.2973 -0.2255
64225W        W65089  24.828  15.573   5.350  0.1562 -0.1495  0.1625
64226W        W65090  23.946  10.947   9.852 -0.2280 -0.2698 -0.1848
64227W        W65091  22.447  12.881   5.609 -0.0513  0.0662  0.0847
64228W        W65092  21.463  14.274  10.906  0.1035  0.2350  0.1003
64229W        W65093  20.581  14.291   9.905  0.1520  0.2499  0.2036
64230W        W65094  24.304  14.095   8.824  0.0510  0.0406 -0.0543
64231W        W65095  22.956  11.231   9.282 -0.1065  0.0706 -0.2455
64232W        W65096  23.065  13.882   8.473 -0.4012 -0.2704  0.2732
64233W        W65097  24.954  14.136   7.049  0.1763 -0.0067 -0.0258
64234W        W65098  23.870  13.624   6.384  0.0295 -0.0900  0.0704
64235W        W65099  24.400  10.279   8.861 -0.1384  0.1031 -0.3886
64236W        W65100  23.325  13.063   6.205 -0.1273  0.1288  0.2546
64237W        W65101  21.334  13.494  11.365 -0.0344  0.1705  0.1381
64238W        W65102  25.108  13.260   8.398 -0.0537  0.1046 -0.0169
64239W        W65103  22.610  12.553   8.930 -0.0529  0.1641 -0.0075
64240W        W65104  24.492  13.291   7.752 -0.0713 -0.2730 -0.1532
64241W        W65105  22.576  12.826   9.542  0.1093 -0.0878 -0.2100
64242W        W65106  24.248  14.711   7.425  0.0875  0.2248 -0.0338
64243W        W65107  20.485  15.307  10.312  0.0251  0.0562 -0.2531
64244W        W65108  22.986  12.661  10.795 -0.1996 -0.3155  0.0013
64245W        W65109  20.991  13.242  10.146  0.0945  0.0688  0.0695
64246W        W65110  23.448  12.430  10.011 -0.0532 -0.0162  0.1514
64247W        W65111  25.132   9.349   9.233  0.0163  0.0853 -0.1901
64248W        W65112  21.095  10.721   6.528 -0.0761  0.0945 -0.1358
64249W        W65113  21.117   9.735   9.335  0.0338  0.0532  0.1961
64250W        W65114  20.818  12.905   9.801  0.0535 -0.1574 -0.0449
64251W        W65115  24.636  11.944   9.251 -0.2503 -0.1703  0.1956
64252W        W65116  20.692  12.510   8.655 -0.1857 -0.1276  0.1288
64253W        W65117  25.436  10.359  10.732 -0.1861  0.0742  0.0356
64254W        W65118  22.299  11.726   7.065  0.0720  0.0846 -0.1618
64255W        W65119  20.738  12.589   6.592 -0.0872  0.1774  0.1228
64256W        W65120  22.068  12.760   7.876  0.1757 -0.2257  0.1798
64257W        W65121  24.545  10.720   7.530  0.0529 -0.2609  0.0357
64258W        W65122  22.449  12.594  11.374  0.0013  0.1187  0.0259
64259W        W65123  24.328  14.408   6.980  0.0465  0.5082  0.0637
64260W        W65124  23.864  14.729   6.835  0.3585 -0.0642 -0.3183
64261W        W65125  20.849  14.691   4.915  0.0918  0.3394  0.4674
64262W        W65126  21.795  14.348  11.675  0.0015  0.2612 -0.0153
64263W        W65127  25.609  15.019   9.814 -0.1695  0.0629 -0.1258
64264W        W65128  23.802  14.672   9.234 -0.0075  0.0888 -0.2996
64265W        W65129  24.240  11.075  10.746  0.3528  0.0363  0.1085
64266W        W65130  25.169  12.536   9.511 -0.0386 -0.1618  0.0486
64267W        W65131  24.726  13.315   7.267  0.1522  0.1230  0.0454
64268W        W65132  21.779  13.527  10.513 -0.0422  0.1380  0.1885
64269W        W65133  21.639  14.570   6.229  0.0042 -0.0599  0.2080
64270W        W65134  22.517  12.428  10.937  0.1282  0.2270  0.1037
64271W        W65135  21.179  13.340  13.009  0.0088 -0.1752 -0.1158
64272W        W65136  25.147  12.243  10.810  0.2831 -0.2008 -0.2453
64273W        W65137  22.165   9.195   9.161 -0.2079 -0.1399  0.2792
64274W        W65138  25.564  15.838  10.865  0.2393  0.1594 -0.0829
64275W        W65139  22.328  11.176   6.856  0.0765  0.0888 -0.1725
64276W        W65140  25.781  12.836   8.003  0.2198  0.2952  0.0752
64277W        W65141  24.632  12.913   7.520  0.1337 -0.0797  0.0460
64278W        W65142  22.770  11.920  11.904 -0.1044  0.2597 -0.2562
64279W        W65143  26.891  12.790   8.426 -0.1505  0.0054 -0.0226
64280W        W65144  23.377  12.531   6.883 -0.3026  0.0318 -0.1222
64281W        W65145  24.178  13.813   9.207 -0.0096  0.0814  0.1899
64282W        W65146  22.578  14.092   9.353  0.4252  0.0553 -0.0613
64283W        W65147  21.291  13.324   9.711 -0.0019  0.2444  0.5646
64284W        W65148  21.577  11.573   6.575  0.2998 -0.0669  0.2729
64285W        W65149  24.416  13.976   7.842  0.0226 -0.1695 -0.0232
64286W        W65150  24.042   9.515   9.372 -0.1873  0.0708 -0.2192
64287W        W65151  23.838  11.526   7.657 -0.1236  0.4550 -0.4026
64288W        W65152  25.268  12.746   8.169 -0.3367 -0.0017 -0.1431
64289W        W65153  24.250  11.849   8.855 -0.0597  0.1194 -0.2649
64290W        W65154  25.807  15.954  10.447 -0.0828  0.0290  0.0101
64291W        W65155  25.541  14.344   9.010 -0.2198  0.1530  0.0446
64292W        W65156  26.580  13.612   6.052  0.0676 -0.1593 -0.0045
64293W        W65157  24.538  13.562   9.513 -0.2549 -0.1055  0.0842
64294W        W65158  21.793   9.057   9.428  0.2939 -0.1289  0.0553
64295W        W65159  21.441   9.676  10.392 -0.2027  0.2599 -0.1068
64296W        W65160  26.183  10.358   8.735 -0.1280 -0.1089 -0.0684
64297W        W65161  24.142  11.505   8.400 -0.3060  0.1072  0.1600
64298W        W65162  24.430  13.049   9.495  0.4196  0.2005 -0.1693
64299W        W65163  21.806  14.721  11.236 -0.0544  0.2674  0.1549
64300W        W65164  25.939  12.829  11.081  0.3774 -0.0453 -0.1989
64301W        W65165  24.860  12.400  10.214 -0.1008 -0.3061 -0.0232
64302W        W65166  24.047  13.348   9.475  0.0076 -0.1615  0.3189
64303W        W65167  21.625  12.225  11.325  0.2406 -0.2425 -0.1633
64304W        W65168  25.524  14.777   9.319  0.1242  0.0050  0.3574
64305W        W65169  23.243  13.644  10.617 -0.0876 -0.1085 -0.0100
64306W        W65170  28.337  15.029   3.863  0.0731  0.0027 -0.0432
64307W        W65171  26.008  10.167   5.884  0.0560 -0.2338 -0.2073
64308W        W65172  20.068   8.858  10.432  0.2815  0.2022  0.0503
64309W        W65173  24.864  13.166   8.909 -0.1495 -0.2010  0.1090
64310W        W65174  24.149  13.076   7.335  0.0605  0.3393 -0.0648
64311W        W65175  22.889  11.524   8.001 -0.1903  0.2357  0.0821
64312W        W65176  26.263  10.054   9.959  0.2810  0.1289 -0.2084
64313W        W65177  26.675  15.012   8.025 -0.1292 -0.0152 -0.3428
64314W        W65178  18.899  12.962  11.795 -0.2551  0.0881 -0.0473
64315W        W65179  23.819  12.453  10.422 -0.0021  0.2363  0.0270
64316W        W65180  24.402  16.239   9.201  0.0556 -0.2052 -0.0263
64317W        W65181  24.514  16.928   7.378 -0.1916  0.0235  0.2863
64318W        W65182  24.604  13.222   5.674  0.1163  0.1274  0.0031
64319W        W65183  23.650  10.724   9.316 -0.2033 -0.0632  0.0310
64320W        W65184  27.449  13.566  11.104 -0.0209  0.0115  0.1874
64321W        W65185  21.891  13.243   7.800  0.1089  0.0358 -0.0862
64322W        W65186  25.793  14.082  10.604 -0.0944 -0.0614  0.3869
64323W        W65187  25.448  11.617   9.289 -0.1456 -0.2127  0.3275
64324W        W65188  22.764  13.636   9.454 -0.2316 -0.0813 -0.0639
64325W        W65189  27.237  14.700   8.232  0.2754  0.0580  0.2604
64326W        W65190  26.828  11.220  10.063  0.1446  0.0326 -0.2148
64327W        W65191  23.262  12.735   8.231  0.2558  0.0775  0.0129
64328W        W65192  22.761  12.328   9.387  0.0059 -0.0777 -0.4542
64329W        W65193  22.788  13.051   6.317 -0.0824 -0.0146 -0.0101
64330W        W65194  22.147  10.306  11.520 -0.1006  0.1681 -0.1766
64331W        W65195  23.995  11.042   8.431  0.2934 -0.3722  0.1114
64332W        W65196  22.727  11.766   6.668 -0.0881 -0.1271 -0.2398
64333W        W65197  21.844  12.924  12.602  0.1233 -0.0186 -0.2856
64334W        W65198  21.879  15.759   8.595  0.0791 -0.0971 -0.1802
64335W        W65199  24.745  11.945   8.583  0.1532 -0.0537  0.1620
64336W        W65200  26.150  12.785   9.250  0.1447 -0.1377 -0.0038
64337W        W65201  22.514  12.894   7.444 -0.0127 -0.1570 -0.1356
64338W        W65202  19.744  14.116  12.576 -0.0231  0.2335  0.2811
64339W        W65203  25.839  11.031   7.744 -0.1555  0.1082 -0.0384
64340W        W65204  22.958  14.665   7.419  0.1703  0.1338 -0.0126
64341W        W65205  25.056  12.999   5.637 -0.0784 -0.4463  0.0395
64342W        W65206  23.337  13.260   5.146  0.3699 -0.0577 -0.0469
64343W        W65207  22.220  12.359   8.644  0.2968 -0.1930  0.1076
64344W        W65208  24.096  15.489   9.992  0.3653  0.1767  0.4136
64345W        W65209  24.214  14.296   9.276 -0.1715  0.1186 -0.3415
64346W        W65210  27.327  12.883   8.191 -0.1680  0.2795  0.2799
64347W        W65211  26.330  12.046   7.914 -0.1433  0.3873 -0.1154
64348W        W65212  26.306  14.291  11.921  0.1929  0.0398 -0.0692
64349W        W65213  24.896  13.075   7.942 -0.1514  0.0647  0.0649
64350W        W65214  21.642  14.768   8.421  0.4643  0.0658 -0.0004
64351W        W65215  21.863  12.317   7.660 -0.0226 -0.0347 -0.1014
64352W        W65216  22.828  10.660  11.047  0.2499 -0.1080  0.4260
64353W        W65217  25.849  13.185   9.259 -0.3795 -0.0843  0.0876
64354W        W65218  24.777  11.929  10.610 -0.2823  0.0604 -0.0016
64355W        W65219  24.238  10.636   8.555 -0.1223  0.1959 -0.1573
64356W        W65220  24.636  18.213   9.017 -0.1748 -0.0594  0.0491
64357W        W65221  22.613  13.113  10.988  0.0964 -0.0958  0.1012
64358W        W65222  24.659  10.547   8.128 -0.2095  0.0026 -0.2118
64359W        W65223  22.748  11.530  10.243  0.4076 -0.2274 -0.1052
64360W        W65224  23.632  15.101   9.061  0.0383  0.3433  0.0709
64361W        W65225  24.278  12.062  10.508  0.3128 -0.2197 -0.1344
64362W        W65226  23.300  14.421   9.138  0.3223 -0.1563  0.1154
64363W        W65227  24.055  10.262   8.153  0.1667 -0.1329 -0.1918
64364W        W65228  26.638  16.238   9.031 -0.1672  0.2067  0.1104
64365W        W65229  23.150  15.181   9.988 -0.0629 -0.0252  0.0106
64366W        W65230  23.918  15.305  11.100  0.6854 -0.2210  0.1930
64367W        W65231  22.283  13.660   7.916 -0.0055  0.0492  0.2608
64368W        W65232  25.189  11.946   6.332  0.3610  0.1198  0.1634
64369W        W65233  26.578  12.530   9.508 -0.2398  0.1165 -0.1759
64370W        W65234  22.487  11.890   5.468  0.0472 -0.0442 -0.0578
64371W        W65235  24.971  13.801  10.240 -0.1973 -0.1818  0.0390
64372W        W65236  25.364  13.908   6.751  0.0568 -0.0254 -0.1663
64373W        W65237  20.265  13.552  12.804  0.2103 -0.0942 -0.1178
64374W        W65238  25.832  13.097   7.187 -0.3711  0.0123  0.0767
64375W        W65239  22.661  14.185   6.450 -0.0496  0.4015 -0.2564
64376W        W65240  24.666  14.921  10.782  0.2658  0.0779 -0.0741
64377W        W65241  20.951  10.758   9.865 -0.0248 -0.2570 -0.0358
64378W        W65242  23.703  14.197   7.969 -0.2752  0.0982  0.1779
64379W        W65243  23.475  14.236   8.490 -0.2025  0.3763  0.2650
64380W        W65244  21.066  14.783   8.466 -0.0616 -0.2732 -0.0361
64381W        W65245  25.624  12.647   9.680  0.2087  0.0637  0.1620
64382W        W65246  24.097  10.866   7.156 -0.2205 -0.0401 -0.1153
64383W        W65247  24.851  12.990  10.380 -0.1513  0.0981 -0.2006
64384W        W65248  24.125  16.558  11.107  0.0810  0.3113 -0.0733
64385W        W65249  25.701  15.501  11.245 -0.0670  0.1972  0.1594
64386W        W65250  24.992  15.737  10.187  0.0007 -0.0135 -0.2947
64387W        W65251  21.940  13.896  10.810  0.1465  0.3576 -0.0340
64388W        W65252  26.351  14.941   7.053 -0.1740 -0.2815  0.3163
64389W        W65253  23.381  11.316  10.717 -0.2462  0.1947 -0.3739
64390W        W65254  23.700  12.619   9.167  0.0214 -0.1820  0.2134
64391W        W65255  23.846  15.117   9.579 -0.0608 -0.0449 -0.1364
64392W        W65256  23.664  13.782   9.864 -0.2618 -0.0623  0.0868
64393W        W65257  23.782  11.906   9.619 -0.0258  0.3597  0.0526
64394W        W65258  23.712  14.669   7.698  0.2895  0.0306 -0.1484
64395W        W65259  24.385  12.878   8.026  0.2534 -0.1176 -0.0359
64396W        W65260  24.177  14.845  10.858 -0.1418  0.1186  0.2760
64397W        W65261  22.635   9.484   6.710 -0.0299  0.1330 -0.1318
64398W        W65262  23.460  12.246   9.500 -0.2592 -0.2813  0.5569
64399W        W65263  26.474  13.901   9.115 -0.0436  0.0530 -0.2060
64400W        W65264  21.386  10.599   8.971  0.0175  0.0644  0.2064
64401W        W65265  25.141   9.321   7.203  0.1341 -0.0847  0.2779
64402W        W65266  24.569  10.761   7.023 -0.0926 -0.1741 -0.1014
64403W        W65267  26.211  13.927   8.653  0.0462  0.2415  0.2018
64404W        W65268  25.185  13.901   9.014  0.0978  0.2464 -0.1543
64405W        W65269  22.559  14.500  10.655 -0.4353 -0.0365 -0.0331
64406W        W65270  23.628   9.565   6.892  0.0459 -0.1136  0.0809
64407W        W65271  19.851  13.801   9.315 -0.1847 -0.1573  0.3878
64408W        W65272  24.614  11.891  10.143 -0.0665 -0.0494 -0.0331
64409W        W65273  21.331  11.374  11.354 -0.2395  0.1620  0.3030
64410W        W65274  20.732  13.373   9.730 -0.0640  0.0090 -0.1110
64411W        W65275  25.722  13.153   5.774  0.0326  0.0999  0.0357
64412W        W65276  24.523  17.098   9.531  0.0834 -0.2236 -0.0833
64413W        W65277  23.669  14.228   9.415 -0.1968  0.2409 -0.0785
64414W        W65278  23.037  10.578  10.233  0.1089  0.1129 -0.0199
64415W        W65279  23.273  16.031  10.940  0.2112 -0.0063 -0.1372
64416W        W65280  27.299  14.823   9.180  0.4586 -0.1526  0.2705
64417W        W65281  27.838  13.345   7.178  0.3873  0.0429  0.1661
64418W        W65282  26.179  12.374   6.216 -0.2850  0.0581 -0.1619
64419W        W65283  23.180  11.396   5.331 -0.0006 -0.1724 -0.1317
64420W        W65284  24.416  10.290   7.802 -0.1267  0.2086  0.1919
64421W        W65285  24.508  15.490   7.918  0.1877 -0.1591 -0.3646
64422W        W65286  24.911  10.503   8.680 -0.0372 -0.1096  0.0440
64423W        W65287  22.224  12.702   6.894 -0.1529 -0.2383  0.0072
64424W        W65288  24.193  13.333  10.724  0.0267 -0.0962 -0.2130
64425W        W65289  24.464  14.808   4.453  0.4208 -0.0750 -0.1477
64426W        W65290  23.927  13.229   7.767  0.1129  0.0942 -0.1981
64427W        W65291  21.866  11.397   6.953  0.1136 -0.0170  0.2784
64428W        W65292  26.375  15.379   9.090 -0.0625  0.4169 -0.3271
64429W        W65293  22.658  11.787  12.393 -0.2408  0.1458  0.2072
64430W        W65294  21.170  10.332   8.095 -0.1039 -0.2036  0.1471
64431W        W65295  23.773  12.928   8.149  0.0359 -0.0998  0.2193
64432W        W65296  21.016  13.838  11.927 -0.1248 -0.2605 -0.2396
64433W        W65297  20.711  13.840   9.582  0.0330 -0.0334  0.1698
64434W        W65298  24.171  15.158  11.612 -0.3011  0.1986  0.0014
64435W        W65299  24.834  14.742   9.788 -0.0269  0.0033  0.0565
64436W        W65300  23.371  14.278   9.870  0.3194 -0.1044 -0.0367
64437W        W65301  24.531  12.500   7.687 -0.0878  0.0048 -0.1901
64438W        W65302  25.510  15.967  10.080 -0.2055 -0.2329  0.2472
64439W        W65303  22.870  12.509   8.471 -0.2398  0.0760  0.1027
64440W        W65304  21.974  13.436  10.029 -0.0169  0.0986 -0.2202
64441W        W65305  22.656  13.981  10.326  0.1925  0.0993  0.2716
64442W        W65306  19.753  12.338  10.951 -0.1577  0.1171  0.1378
64443W        W65307  26.679  13.374   6.549  0.0402 -0.1197  0.0243
64444W        W65308  23.287  15.681   8.351  0.0436  0.0654 -0.0189
64445W        W65309  24.172  14.938   9.067 -0.0835  0.1325  0.0650
64446W        W65310  24.392  15.289  13.018  0.2480  0.0566  0.2122
64447W        W65311  22.453  10.847   7.386 -0.0878  0.0487 -0.2376
64448W        W65312  25.230  12.591  10.442 -0.1059  0.1275 -0.2042
64449W        W65313  25.040  13.735   8.530 -0.1643 -0.3120 -0.1632
64450W        W65314  18.883  12.940   6.419 -0.1893  0.3046  0.0799
64451W        W65315  21.559  15.346  16.563 -0.2400 -0.0445  0.1047
64452W        W65316  22.000  17.199  14.324  0.0547 -0.0906  0.1428
64453W        W65317  26.090  12.869  10.186  0.1369  0.0018 -0.0189
64454W        W65318  24.471  13.340  12.808  0.2143  0.1808 -0.1253
64455W        W65319  21.976  14.111  14.153  0.0950  0.0091  0.1928
64456W        W65320  22.447  13.966  10.854  0.0272  0.1219 -0.0129
64457W        W65321  22.051  13.646  13.771  0.1844  0.1193  0.1180
64458W        W65322  24.097  14.049   9.784 -0.3554  0.0959  0.0872
64459W        W65323  23.117  12.192  10.871 -0.3587  0.0309  0.0836
64460W        W65324  22.071  13.243  14.165 -0.0542  0.2793  0.1012
64461W        W65325  20.119  10.093  12.161 -0.3501 -0.3536  0.0610
64462W        W65326  25.522  11.165  16.354  0.2739 -0.0965 -0.0799
64463W        W65327  24.461  14.405   9.942 -0.2709 -0.1079 -0.2428
64464W        W65328  25.018  10.217  15.620  0.0977 -0.2073  0.1289
64465W        W65329  22.191  13.118  12.281  0.0820 -0.0094  0.4199
64466W        W65330  20.717  15.410  10.994 -0.0705 -0.1570 -0.3006
64467W        W65331  20.077  12.001  11.746  0.0035 -0.0853  0.0615
64468W        W65332  23.363  11.840  13.110 -0.1902 -0.1192 -0.0105
64469W        W65333  24.058  10.797  15.478 -0.3702 -0.0797 -0.1014
64470W        W65334  22.973  12.622  13.503  0.0930  0.0211  0.0101
64471W        W65335  23.012  12.995  11.296 -0.0435  0.0165 -0.3046
64472W        W65336  21.966  13.029  11.789  0.2851 -0.1738 -0.0763
64473W        W65337  26.095  13.169  11.613  0.3525  0.5325 -0.1472
64474W        W65338  21.674  13.833  12.499 -0.1816 -0.4050  0.0935
64475W        W65339  23.195  12.054  14.669 -0.3429  0.0175 -0.0726
64476W        W65340  23.134  11.968  14.179 -0.0441  0.1894 -0.2683
64477W        W65341  25.335  10.475  14.710 -0.2094 -0.1860 -0.2153
64478W        W65342  21.038  14.078  14.669 -0.2591  0.0819  0.0121
64479W        W65343  22.828  15.503  12.592  0.0322  0.1811  0.1179
64480W        W65344  20.530  11.231  11.247 -0.0431 -0.1412  0.1354
64481W        W65345  24.390  13.796  14.391  0.0573  0.1950 -0.0934
64482W        W65346  25.512  13.123  16.155  0.0711 -0.0387 -0.4658
64483W        W65347  23.451  11.626  10.354 -0.0275  0.0305  0.0338
64484W        W65348  23.561  13.219  11.647 -0.3192 -0.1770  0.0648
64485W        W65349  21.908  12.049  17.596  0.1953 -0.0019  0.2538
64486W        W65350  24.898  12.162  15.460  0.3513 -0.0146  0.2616
64487W        W65351  23.435   9.312  12.744 -0.0142 -0.2669  0.3895
64488W        W65352  24.003  14.178  11.137  0.0540 -0.3720  0.0386
64489W        W65353  24.652  14.598  13.001  0.3738  0.0908 -0.1603
64490W        W65354  23.472  12.178  11.300 -0.0784  0.0858  0.0172
64491W        W65355  24.378  11.791  10.919  0.0120 -0.0954 -0.2304
64492W        W65356  23.024  12.745  16.540 -0.0782 -0.1422  0.0316
64493W        W65357  24.987  14.349  11.622  0.1089  0.3929  0.0531
64494W        W65358  23.581  13.623  11.959  0.0391  0.1280  0.0662
64495W        W65359  21.083  16.023  12.168 -0.0454 -0.1384  0.1013
64496W        W65360  19.690  16.848  13.694 -0.0558 -0.3582  0.0359
64497W        W65361  22.626   8.332  11.101  0.1855 -0.0886  0.0228
64498W        W65362  22.732  13.881  14.453 -0.0367 -0.1035  0.1360
64499W        W65363  22.274  10.778  11.321  0.2236 -0.2411 -0.0998
64500W        W65364  22.775  14.932  10.413  0.0633  0.1744  0.3033
64501W        W65365  27.139  13.957  17.223  0.1433 -0.2997 -0.2700
64502W        W65366  23.317  12.339  12.840 -0.2067  0.3520 -0.1590
64503W        W65367  23.258  13.949  14.093 -0.0546 -0.0431 -0.1829
64504W        W65368  25.790  12.888   8.875  0.0780  0.0272  0.0916
64505W        W65369  25.306  12.342   9.913  0.0730 -0.1626 -0.3073
64506W        W65370  22.420  15.577   9.767  0.3533 -0.0411 -0.1316
64507W        W65371  24.411  10.506  11.816 -0.1727  0.2731 -0.3061
64508W        W65372  24.293  13.187  11.168  0.1865  0.2517  0.0650
64509W        W65373  21.040  14.711  11.610 -0.2628 -0.1505  0.0823
64510W        W65374  24.178  14.922  10.007 -0.0633 -0.2759  0.0427
64511W        W65375  24.645  12.980  10.796 -0.1451  0.0798 -0.0170
64512W        W65376  24.216  13.588  12.419  0.2463  0.0758 -0.0481
64513W        W65377  24.227  14.193  16.938  0.1577  0.1733  0.1578
64514W        W65378  22.742  14.908  10.987 -0.4571  0.1394 -0.1086
64515W        W65379  21.880  10.653  13.181  0.1896 -0.0069  0.1154
64516W        W65380  24.558  11.653  15.395 -0.1476 -0.1288  0.2745
64517W        W65381  21.794   9.481  11.664 -0.3606  0.1852  0.0860
64518W        W65382  23.060  12.521  10.315 -0.1136  0.0389 -0.0436
64519W        W65383  21.113  14.593  12.779  0.1452 -0.3061 -0.0530
64520W        W65384  22.614  13.153   9.119  0.2597  0.1582 -0.0139
64521W        W65385  23.243  13.964  15.996 -0.1192 -0.2310  0.0904
64522W        W65386  22.912  12.525  11.770 -0.2128  0.1526 -0.2573
64523W        W65387  26.012  14.329   9.971 -0.0297  0.2325  0.1530
64524W        W65388  24.716  13.074  14.202 -0.0529  0.2769  0.0139
64525W        W65389  26.309  14.224  12.781  0.1654  0.2580 -0.0988
64526W        W65390  25.220  12.108  13.140 -0.0464  0.0366 -0.2288
64527W        W65391  19.094  12.786  14.561  0.0674  0.1392 -0.1311
64528W        W65392  22.853  16.453  13.362 -0.1436 -0.5318 -0.2051
64529W        W65393  22.666  16.237  12.175  0.0025 -0.0728 -0.1813
64530W        W65394  25.885  15.985  11.325 -0.1730  0.1086 -0.1307
64531W        W65395  24.825  12.644  13.747  0.0035 -0.1598 -0.1938
64532W        W65396  22.720  15.422  11.081 -0.2504 -0.2351  0.0588
64533W        W65397  21.045  11.622  12.480 -0.1932  0.2243 -0.0958
64534W        W65398  25.481   8.968  12.867 -0.2500  0.2251 -0.2010
64535W        W65399  23.271  10.977  13.428 -0.3418  0.0547 -0.2811
64536W        W65400  23.780  13.536   9.028  0.0175  0.1154  0.1237
64537W        W65401  26.943  15.720  15.840 -0.0077  0.3723 -0.1969
64538W        W65402  22.178  12.890  16.011 -0.0193  0.0483  0.0804
64539W        W65403  22.908  12.314  13.885 -0.0399 -0.2503 -0.0342
64540W        W65404  24.098  11.789  15.211  0.0361 -0.1080 -0.4415
64541W        W65405  23.631  13.876  11.488 -0.1646  0.0139  0.0822
64542W        W65406  23.220  12.249  16.592  0.2014 -0.2577 -0.1509
64543W        W65407  22.211  14.969  10.855 -0.0878 -0.0887 -0.1262
64544W        W65408  21.686  11.088  11.062 -0.3217  0.1738  0.0484
64545W        W65409  22.672  12.557  15.896 -0.1173  0.3879 -0.1386
64546W        W65410  24.429  12.708  11.143  0.0334 -0.0429 -0.0294
64547W        W65411  26.226  14.153  10.946  0.1751 -0.0606  0.0287
64548W        W65412  24.410  13.755  15.072 -0.0786 -0.0116  0.1357
64549W        W65413  22.977  12.230  12.287  0.0103  0.0528  0.0908
64550W        W65414  22.270   9.840  12.903  0.1986 -0.2017  0.3577
64551W        W65415  27.267  13.278   9.589  0.1543  0.1078  0.1975
64552W        W65416  20.456  11.034  14.518 -0.0703  0.1074  0.0255
64553W        W65417  24.872  12.027  11.153 -0.0000  0.3732 -0.2424
64554W        W65418  25.135  13.039  13.599  0.2536  0.3049 -0.0839
64555W        W65419  28.013  10.995  12.054 -0.3077  0.1538  0.1542
64556W        W65420  25.024  15.545  14.264 -0.1598  0.0091  0.0013
64557W        W65421  25.261  12.837  11.511 -0.0729  0.3397 -0.1164
64558W        W65422  22.820  10.735  15.254  0.0032 -0.3161  0.0802
64559W        W65423  23.254  13.914  10.220 -0.0796 -0.1115 -0.1523
64560W        W65424  21.823  12.119  14.957 -0.3275 -0.0117  0.0731
64561W        W65425  23.887  12.822  16.101 -0.0781 -0.3631  0.3941
64562W        W65426  22.245  12.370  14.149 -0.1021 -0.0083 -0.0759
64563W        W65427  25.390  11.536  11.657  0.3518  0.0264 -0.0792
64564W        W65428  21.842  16.650  14.085 -0.0695  0.1695 -0.0187
64565W        W65429  25.962  15.398  11.737  0.1136  0.0069  0.4149
64566W        W65430  22.576  13.180  12.636  0.1991  0.3241 -0.2023
64567W        W65431  21.882   8.433  16.610  0.0212 -0.0434 -0.0542
64568W        W65432  21.420  11.996  15.390  0.2346  0.4245 -0.3244
64569W        W65433  20.996  14.272  13.314  0.3941 -0.0072  0.0194
64570W        W65434  24.817  13.109  13.213 -0.1821  0.2790 -0.3022
64571W        W65435  24.925  12.387  12.743  0.2588 -0.1077 -0.3069
64572W        W65436  26.302  13.631  11.695  0.0030 -0.0074 -0.0312
64573W        W65437  23.281  13.206  14.250 -0.0474 -0.1844  0.0030
64574W        W65438  23.420  15.452  10.434  0.2778  0.2390 -0.1540
64575W        W65439  21.312  14.243  13.746 -0.1553  0.2202 -0.1374
64576W        W65440  23.546  16.218  13.533 -0.3147  0.0854 -0.1129
64577W        W65441  19.715  13.039  13.430 -0.4355  0.1421 -0.1439
64578W        W65442  24.863  13.486  15.036 -0.1492 -0.0875  0.0311
64579W        W65443  26.079  13.329  11.181  0.0835 -0.0048 -0.0204
64580W        W65444  21.985  15.617  11.676  0.0782  0.3302 -0.1041
64581W        W65445  25.386  13.926  11.519 -0.1843 -0.2510 -0.0095
64582W        W65446  23.141  12.539  14.298 -0.2708  0.0038  0.0472
64583W        W65447  22.456  14.912  15.453  0.1192 -0.0767  0.2069
64584W        W65448  24.481  10.410  11.182  0.2163  0.1974  0.0136
64585W        W65449  24.706  14.580  12.056  0.1566  0.0710 -0.3014
64586W        W65450  20.502   9.296  13.753 -0.2449 -0.2992  0.2923
64587W        W65451  23.257  14.946  10.406  0.3501  0.0596 -0.1367
64588W        W65452  24.747  11.623  17.257 -0.0405  0.0383  0.1269
64589W        W65453  23.718  13.834  10.454 -0.3329  0.0135  0.0434
64590W        W65454  21.045  13.939  14.161  0.0649  0.1060 -0.0478
64591W        W65455  23.234  12.145  11.829 -0.0232  0.0875  0.0616
64592W        W65456  22.361  12.693  12.633 -0.0721  0.1032 -0.0360
64593W        W65457  21.234  14.006  12.337  0.1016  0.2242  0.2950
64594W        W65458  24.063  13.500  14.597  0.2167  0.1743  0.0296
64595W        W65459  22.864  13.997  12.623 -0.0604  0.3186  0.0500
64596W        W65460  21.616  13.044  10.722 -0.0630  0.2909 -0.0664
64597W        W65461  22.483  10.821  14.856  0.3549  0.0004 -0.1604
64598W        W65462  26.295  15.347  10.774  0.1020 -0.2493  0.2008
64599W        W65463  24.532  13.565  12.035 -0.2284 -0.4322  0.0938
64600W        W65464  23.776  13.146  14.797  0.0740 -0.0396  0.0188
64601W        W65465  24.753  13.685  12.551 -0.1658 -0.0808 -0.1689
64602W        W65466  22.528  10.988  10.426  0.1481  0.0477 -0.0854
64603W        W65467  25.483  16.268  13.490 -0.1351 -0.1081  0.2795
64604W        W65468  23.516   8.945   9.336  0.2062 -0.2338 -0.0470
64605W        W65469  25.509  11.324  14.172  0.2185  0.0218  0.1172
64606W        W65470  22.846  12.951  13.037  0.0795  0.0367  0.4556
64607W        W65471  22.984  13.471  12.567  0.3032 -0.2537  0.3238
64608W        W65472  23.146  14.713  11.475  0.3618  0.0960 -0.4229
64609W        W65473  23.334  10.756  11.971 -0.0831 -0.0621 -0.2446
64610W        W65474  21.795  14.244  15.103  0.0049 -0.0572 -0.1066
64611W        W65475  26.447  11.757  10.707 -0.1275  0.0582  0.0655
64612W        W65476  24.911  14.213  16.147  0.0350 -0.0893 -0.1464
64613W        W65477  23.819  13.537  13.540 -0.1665  0.0127  0.0357
64614W        W65478  24.451  13.391  16.399  0.1146  0.1329 -0.4237
64615W        W65479  25.857  10.234  18.369 -0.0165 -0.1987  0.1653
64616W        W65480  21.451  11.089  11.776  0.4512  0.1568 -0.2235
64617W        W65481  21.332  12.149  14.276  0.1429  0.1136 -0.1461
64618W        W65482  21.251  12.437  12.154  0.0469 -0.2931  0.2073
64619W        W65483  23.647  14.327  14.558  0.0617 -0.2571 -0.1530
64620W        W65484  25.673  13.889   8.755  0.1121 -0.1000  0.1046
64621W        W65485  26.121  13.474  14.398  0.0944  0.0094  0.0942
64622W        W65486  23.062  11.956  12.669 -0.1956  0.1048  0.3311
64623W        W65487  24.366  12.589  11.654 -0.1610  0.0278 -0.0096
64624W        W65488  25.236  12.876   8.717 -0.1215 -0.0421 -0.2357
64625W        W65489  22.960   9.674  10.587  0.0298  0.0414  0.1046
64626W        W65490  26.875  13.367  13.217  0.1573 -0.0166 -0.1870
64627W        W65491  20.436  12.515  14.702 -0.1320  0.0974 -0.1185
64628W        W65492  22.583  14.435  10.153 -0.0301 -0.1192  0.0601
64629W        W65493  21.436  16.391  10.472 -0.0107 -0.3494 -0.0162
64630W        W65494  23.624  12.409  10.911 -0.0771  0.0972  0.2741
64631W        W65495  25.140  12.857   9.937 -0.4323 -0.2369 -0.1648
64632W        W65496  24.859  17.406   9.418  0.1869 -0.4021 -0.1894
64633W        W65497  27.159  13.795  12.081  0.1133 -0.0082 -0.0425
64634W        W65498  23.016  10.642  11.503 -0.3119  0.0446 -0.1183
64635W        W65499  23.690  13.312  10.722  0.1623 -0.4487 -0.0982
64636W        W65500  23.103  15.125  14.469 -0.2185 -0.0813  0.0344
64637W        W65501  25.337  12.570  12.446 -0.0394 -0.1213  0.1448
64638W        W65502  21.990  11.987   9.713 -0.1311 -0.1404 -0.3579
64639W        W65503  26.040  11.937   8.969  0.1924  0.4293 -0.0253
64640W        W65504  21.325  12.239  10.929  0.0333  0.1508 -0.0943
64641W        W65505  21.033  14.226  10.310  0.0179 -0.1749  0.1085
64642W        W65506  23.137  14.653  10.925  0.4584 -0.0357  0.1783
64643W        W65507  23.383  13.458  15.787  0.2759 -0.0327  0.0149
64644W        W65508  23.361  12.504  13.877 -0.0215 -0.1161  0.0130
64645W        W65509  24.775  11.638  14.337 -0.1148  0.0309  0.2069
64646W        W65510  20.281  11.987  13.824 -0.1019 -0.1001  0.1499
64647W        W65511  24.674  12.330  16.030  0.2208  0.0151 -0.0859
64648W        W65512  23.072  10.172  12.594  0.0134  0.1866  0.0190
64649W        W65513  20.318  12.692  12.357 -0.0375 -0.3566  0.2589
64650W        W65514  24.536  10.090  12.995 -0.2222  0.0301 -0.1943
64651W        W65515  20.883  12.199  13.629 -0.3446  0.1217 -0.3173
64652W        W65516  23.872  11.721  13.075 -0.0288  0.1945  0.1742
64653W        W65517  22.943  12.466  11.271 -0.0470  0.2816 -0.2528
64654W        W65518  23.466  10.644  11.342  0.2274 -0.0925  0.3670
64655W        W65519  23.210  12.436  15.605 -0.2229 -0.1456 -0.0422
64656W        W65520  21.784  11.920  11.716  0.1712 -0.0841  0.2314
64657W        W65521  23.697  15.670  16.220 -0.1196 -0.1696 -0.0887
64658W        W65522  25.127  13.997  15.077 -0.1409  0.1738 -0.0345
64659W        W65523  25.342  13.450  10.077 -0.0088 -0.1340 -0.0419
64660W        W65524  21.124   9.912  10.690 -0.2810 -0.1741  0.1571
64661W        W65525  22.200  12.531  17.745  0.2799  0.0538 -0.4138
64662W        W65526  22.364  16.020  13.708 -0.3045  0.2359  0.1061
64663W        W65527  20.764  13.895  16.560 -0.0487 -0.2788 -0.2421
64664W        W65528  22.535  12.508  13.132 -0.0233 -0.2210  0.0261
64665W        W65529  26.076  13.046  14.013  0.1458  0.0687  0.0141
64666W        W65530  27.581  14.052  12.398 -0.1863  0.0400 -0.3036
64667W        W65531  21.650  12.964  13.058  0.1337  0.0736 -0.0416
64668W        W65532  27.289  16.625  12.102  0.0952  0.0431  0.0589
64669W        W65533  25.425  13.539  17.628  0.1838  0.0197 -0.3782
64670W        W65534  23.758  13.955  13.837  0.0269 -0.3631  0.0220
64671W        W65535  26.665  13.177  11.861  0.3157  0.0054 -0.1858
64672W        W65536  25.890  11.924  12.428 -0.2947 -0.0755 -0.2360
64673W        W65537  21.475  16.086  15.427  0.0098 -0.2602  0.1187
64674W        W65538  25.056  11.299   9.875 -0.2292  0.1405  0.0077
64675W        W65539  26.875  14.532   9.037 -0.1843  0.0618  0.3076
64676W        W65540  24.115  10.580  13.903  0.0832  0.0155  0.0928
64677W        W65541  24.934  12.451  17.370  0.1498  0.0580  0.0017
64678W        W65542  23.709  12.851  12.189 -0.0131 -0.0569  0.1321
64679W        W65543  24.971  13.628  13.114  0.0875 -0.1193 -0.0586
64680W        W65544  23.731  16.530  10.761  0.0767 -0.1873 -0.1365
64681W        W65545  22.539  11.310  14.111  0.1202 -0.1700  0.0487
64682W        W65546  23.331  13.930  12.702 -0.1290 -0.2411  0.1410
64683W        W65547  21.045  11.969  12.026  0.0763 -0.1212 -0.0988
64684W        W65548  25.670  14.140  12.335  0.0632  0.3450 -0.0584
64685W        W65549  21.988  11.128  13.428 -0.2307  0.0039  0.1186
64686W        W65550  24.282  16.217  10.702 -0.2391 -0.0506  0.2035
64687W        W65551  23.229  12.648  12.129 -0.3205 -0.1386  0.1164
64688W        W65552  23.159  14.656  14.466  0.3334 -0.0038 -0.2980
64689W        W65553  21.426  13.674  14.043 -0.2067 -0.0833  0.1837
64690W        W65554  24.650  16.061  15.319 -0.2562 -0.0179 -0.2482
64691W        W65555  25.492  11.529   8.803 -0.3108 -0.1550  0.0834
64692W        W65556  23.508  13.573  13.985 -0.4408 -0.1686 -0.1832
64693W        W65557  22.781  14.270  13.403 -0.1397 -0.1725  0.2974
64694W        W65558  23.387  12.376  13.388 -0.0063 -0.0155 -0.2165
64695W        W65559  24.665  10.678  15.447 -0.2017 -0.0319 -0.0696
64696W        W65560  21.540  11.337  10.514 -0.2586 -0.3103  0.0315
64697W        W65561  24.141  12.298  15.331  0.3115  0.1199  0.0794
64698W        W65562  22.788  14.500  14.839 -0.0919  0.2398  0.1960
64699W        W65563  25.033  17.562   9.979 -0.1123  0.0013 -0.0217
64700W        W65564  21.798  10.842  11.487 -0.2007  0.1460  0.3088
64701W        W65565  22.418  14.485  15.179  0.1243 -0.3253  0.1319
64702W        W65566  22.215  14.673  12.616  0.0359 -0.0662 -0.0535
64703W        W65567  22.585  15.506  14.816  0.1895 -0.0134 -0.1664
64704W        W65568  24.216  14.341  18.988  0.0287 -0.0830  0.4703
64705W        W65569  20.418   9.292  10.526  0.3260  0.0119  0.1502
64706W        W65570  24.594  15.457  11.677  0.2121 -0.1431  0.1266
64707W        W65571  23.875   7.655  12.658  0.0558  0.1018 -0.4685
64708W        W65572  23.850   8.515  13.564 -0.0876  0.3282  0.0419
64709W        W65573  23.847  12.589  15.593  0.0162 -0.0745 -0.0612
64710W        W65574  24.191  14.352  12.116 -0.1717  0.3000  0.0385
64711W        W65575  21.308  11.717  11.682  0.2376 -0.2524 -0.3616
64712W        W65576  22.273  12.878  13.946  0.2958 -0.0623  0.4754
64713W        W65577  25.176  14.605  15.856 -0.0738 -0.4981 -0.2769
64714W        W65578  20.083  11.528  13.762 -0.1304  0.1195 -0.1125
64715W        W65579  25.347  15.174  10.999  0.3154  0.2070  0.2919
64716W        W65580  22.789  15.371  15.910 -0.2426 -0.1539  0.0673
64717W        W65581  20.164  14.118  13.886  0.0806  0.0643  0.1239
64718W        W65582  25.117  13.915  10.739  0.0967  0.5519  0.0893
64719W        W65583  25.610  11.846  14.245 -0.0163  0.1512  0.3383
64720W        W65584  25.730  12.266  13.281  0.0484  0.1864  0.1858
64721W        W65585  26.288  12.713  11.477 -0.0095  0.0372  0.1337
64722W        W65586  24.498  13.422  15.886 -0.0156 -0.0497 -0.2671
64723W        W65587  26.689  11.044  13.357 -0.1050  0.1969  0.1645
64724W        W65588  22.345  14.125  13.816  0.1959 -0.0446  0.0982
64725W        W65589  25.115  13.370  14.548  0.1049 -0.0715 -0.1157
64726W        W65590  22.315  11.760  13.009  0.3284  0.2029 -0.1180
64727W        W65591  22.014   9.147  13.841  0.0204 -0.0060 -0.0981
64728W        W65592  21.679  12.010  13.535  0.1635 -0.3113  0.0985
64729W        W65593  23.152  11.780  12.188  0.0928 -0.1687 -0.2634
64730W        W65594  21.379  14.191  16.023  0.1711 -0.0683 -0.2176
64731W        W65595  21.242  11.897  13.766  0.0978 -0.0110 -0.0315
64732W        W65596  22.786  13.375  14.235 -0.3639 -0.0549 -0.4011
64733W        W65597  21.537  13.342  13.729  0.0177 -0.0328 -0.1757
64734W        W65598  21.726  15.646  10.590  0.0438 -0.0929 -0.0550
64735W        W65599  23.129  13.792  11.650  0.1759 -0.2409 -0.1528
64736W        W65600  24.046  11.050  13.978  0.0987  0.0858  0.3465
64737W        W65601  24.286  13.979  11.577  0.2451 -0.1294 -0.0432
64738W        W65602  20.894  12.689  15.691 -0.0629  0.2962  0.0053
64739W        W65603  22.877  12.530  12.688 -0.3015  0.0552  0.2218
64740W        W65604  25.513  16.981  11.432 -0.1930 -0.3824  0.0470
64741W        W65605  23.152  12.981  11.762 -0.0033 -0.0842 -0.1958
64742W        W65606  26.579  11.241  12.483  0.0247  0.1014 -0.4163
64743W        W65607  23.761  13.299  11.219 -0.2397 -0.1470 -0.0234
64744W        W65608  23.405  12.662  11.494 -0.3172  0.0762 -0.0273
64745W        W65609  22.546  13.655  12.403  0.0876 -0.0844  0.0205
64746W        W65610  22.482  12.425  13.662 -0.1257  0.0213 -0.2965
64747W        W65611  22.871   9.947  12.160 -0.0496 -0.1074  0.1397
64748W        W65612  23.722  13.142  13.159  0.0168  0.0372  0.1817
64749W        W65613  25.566  10.389  13.264 -0.0725  0.1913 -0.0143
64750W        W65614  22.791  15.900  15.122 -0.2268 -0.1494 -0.1553
64751W        W65615  19.766  12.804  12.993  0.0408 -0.1298 -0.2913
64752W        W65616  23.336  10.963  14.525  0.1295 -0.0639  0.0572
64753W        W65617  23.960  14.578  14.206 -0.2392  0.1562 -0.1086
64754W        W65618  26.791  12.837  11.493  0.2565 -0.3042 -0.1929
64755W        W65619  23.849  15.592  10.644 -0.0050 -0.2947  0.0293
64756W        W65620  24.782  12.974  11.413  0.3821 -0.0470 -0.1259
64757W        W65621  24.700  12.808  15.784 -0.1884  0.1606  0.2742
64758W        W65622  26.085  12.166  11.980  0.1665 -0.1434 -0.0356
64759W        W65623  25.108  14.071  12.418 -0.0103 -0.0507 -0.0457
64760W        W65624  20.950  12.683  14.662 -0.0349 -0.0514 -0.0150
64761W        W65625  23.749  12.959   9.522 -0.3149  0.0836 -0.1740
64762W        W65626  22.388  14.194  14.374  0.1433  0.1217 -0.0849
64763W        W65627  24.009  12.952  11.548 -0.1933 -0.4220  0.0385
64764W        W65628  25.349  13.478  13.688 -0.0831 -0.0904  0.1551
64765W        W65629  24.428  12.300  13.821  0.1158  0.2140  0.0301
64766W        W65630  20.504  14.229  16.796 -0.1381 -0.1960 -0.2323
64767W        W65631  23.023  10.830  12.409  0.1521  0.0753 -0.3048
64768W        W65632  22.134  14.854  11.694  0.0458 -0.2366 -0.0720
64769W        W65633  22.381  14.156  12.496 -0.3378  0.0712  0.0935
64770W        W65634  21.010  14.479  15.014 -0.0322 -0.1524  0.1578
64771W        W65635  25.078  14.182  15.528  0.0318  0.1089 -0.1910
64772W        W65636  24.892  16.372  13.659  0.0431  0.0579 -0.0790
64773W        W65637  20.475  14.497  14.289 -0.0352 -0.1790  0.0476
64774W        W65638  21.789  13.374  14.581 -0.0662  0.3013 -0.1389
64775W        W65639  21.918  12.574  16.339  0.2835  0.1774 -0.1347
64776W        W65640  21.318  13.794  13.212 -0.0621 -0.3168  0.0571
64777W        W65641  23.913  12.992  10.359  0.2972 -0.0384 -0.4129
64778W        W65642  20.354  13.320  10.645 -0.3386  0.0001  0.2095
64779W        W65643  21.824  11.562  12.032  0.0190  0.0142 -0.2164
64780W        W65644  21.011  12.171  12.543  0.3314  0.0268 -0.0584
64781W        W65645  21.768  11.928  13.008  0.3022 -0.1318  0.0895
64782W        W65646  23.438  12.825  10.603  0.3890  0.5830 -0.2619
64783W        W65647  25.252  12.609  14.048 -0.1934 -0.1621 -0.1122
64784W        W65648  24.333  12.478  14.614  0.0214 -0.0599  0.0703
64785W        W65649  23.511  13.657  13.137 -0.2437  0.0854 -0.0236
64786W        W65650  24.810  12.337  14.603  0.2112 -0.2244  0.1504
64787W        W65651  22.611  13.690  12.943 -0.4126 -0.2390  0.2586
64788W        W65652  27.095  14.266  10.854 -0.0097 -0.0095 -0.0041
64789W        W65653  24.049  13.498  13.013 -0.2571  0.0710 -0.2959
64790W        W65654  22.755  11.078  11.398  0.1815 -0.0242 -0.2525
64791W        W65655  23.786  14.279  10.188  0.3287 -0.1437  0.0062
64792W        W65656  22.989  12.184  13.195 -0.3845 -0.1764  0.1055
64793W        W65657  25.679   7.588  14.404 -0.0508  0.3277 -0.1600
64794W        W65658  21.968  13.342   8.763  0.1011 -0.0140  0.0513
64795W        W65659  22.393  10.652  13.149 -0.2406  0.0533 -0.1710
64796W        W65660  24.642  13.106  13.676  0.1509 -0.1137 -0.0557
64797W        W65661  20.544  12.225  13.283 -0.0089  0.2184 -0.1311
64798W        W65662  21.593  10.884  13.521 -0.0815 -0.0511 -0.1827
64799W        W65663  24.761  11.104  10.630  0.3597  0.0283  0.0195
64800W        W65664  21.675  10.637  12.737  0.3544 -0.0646 -0.2963
64801W        W65665  23.870  13.900  12.772  0.2713  0.1166 -0.0801
64802W        W65666  24.049  12.849   9.894 -0.2918 -0.0175 -0.1865
64803W        W65667  22.304  15.240  12.018  0.1122  0.0653 -0.0246
64804W        W65668  21.679  14.656  12.740  0.2290 -0.1596  0.1811
64805W        W65669  24.650  12.383  10.754 -0.1931  0.1113  0.0054
64806W        W65670  23.295  12.763  13.141  0.0194  0.0531  0.1248
64807W        W65671  20.843  14.164  12.634  0.1662  0.2480 -0.2946
64808W        W65672  24.445  12.051  15.655  0.2039 -0.1169  0.0097
64809W        W65673  22.762   9.794  14.516 -0.0360  0.0491  0.1290
64810W        W65674  22.636  12.115  12.845 -0.2415 -0.0073  0.1261
64811W        W65675  22.880  13.602  11.065  0.1428  0.0936  0.2629
64812W        W65676  22.501  12.595  16.385  0.1975 -0.0196 -0.0529
64813W        W65677  21.039  11.391  13.834  0.1822 -0.0660  0.0223
64814W        W65678  24.999  11.025  11.061 -0.0945  0.3636 -0.2355
64815W        W65679  24.061  13.560  10.136 -0.1594  0.1010  0.1944
64816W        W65680  23.506  14.171  13.125 -0.2370 -0.2004  0.0797
64817W        W65681  22.523  13.455   9.974  0.3975  0.0900 -0.0599
64818W        W65682  22.345  13.458  11.798 -0.1966 -0.0735  0.0233
64819W        W65683  23.878  11.299  11.800 -0.0627 -0.0889  0.2049
64820W        W65684  22.811  13.945  13.915 -0.1658 -0.2206 -0.0388
64821W        W65685  20.498   9.414   9.707 -0.1426 -0.1199  0.1175
64822W        W65686  25.000  11.068  13.649 -0.1712 -0.1430 -0.1120
64823W        W65687  22.515  15.518  11.608 -0.1312  0.0934  0.1796
64824W        W65688  24.270  12.542  15.780 -0.2144 -0.0054 -0.1597
64825W        W65689  27.012  16.439   9.289  0.1990 -0.0072 -0.2833
64826W        W65690  24.233  11.545  14.033 -0.2591 -0.0200  0.2281
64827W        W65691  23.397  13.237  12.282  0.4120 -0.0748  0.1412
64828W        W65692  21.885  14.978  14.106  0.0735  0.1069 -0.1380
64829W        W65693  23.621  11.205  13.770  0.2113 -0.0201  0.1259
64830W        W65694  21.203  10.520  14.142 -0.0204 -0.0528 -0.0603
64831W        W65695  22.763  11.765  14.504  0.4293  0.2457  0.2177
64832W        W65696  21.457  14.142   9.935  0.0947 -0.0977 -0.1121
64833W        W65697  21.766  10.371  13.542  0.2179 -0.0517  0.0150
64834W        W65698  22.668  11.870  13.996  0.0671  0.2089  0.0774
64835W        W65699  24.457  12.729  13.424 -0.1504 -0.0842 -0.0263
64836W        W65700  24.260  12.061  16.580 -0.1184 -0.3393 -0.0294
64837W        W65701  21.806  13.969  13.053  0.0442 -0.0103  0.0987
64838W        W65702  24.787  12.737  14.910 -0.1949 -0.3242  0.2053
64839W        W65703  22.128  14.864  13.643  0.1959 -0.2134 -0.1437
64840W        W65704  20.201  14.652  13.226 -0.5836 -0.0465  0.0731
64841W        W65705  24.825  14.141  12.919  0.0526 -0.2144  0.0876
64842W        W65706  22.061  13.684  12.167  0.0392  0.0946 -0.0090
64843W        W65707  26.251  11.631  12.623 -0.0552  0.0895  0.0358
64844W        W65708  23.015  12.967  12.509  0.0870 -0.0780  0.1534
64845W        W65709  19.223  15.161  14.911  0.1243  0.2689 -0.1377
64846W        W65710  20.987  11.818  15.176 -0.1460 -0.0665 -0.1515
64847W        W65711  24.729  14.078  11.332  0.2016 -0.0208 -0.1219
64848W        W65712  24.045  14.883  16.153  0.1205 -0.1292 -0.1849
64849W        W65713  20.914  16.162  13.712  0.1860 -0.0989  0.1346
64850W        W65714  22.121  14.244  12.091  0.1015  0.1561  0.0908
64851W        W65715  21.798  13.172  19.235  0.2648 -0.0259  0.0126
64852W        W65716  22.666  11.052  15.586  0.3531 -0.0889  0.2222
64853W        W65717  25.689  13.133  17.276 -0.1933  0.1766  0.0811
64854W        W65718  26.168  14.389  16.908 -0.0137  0.0689 -0.0610
64855W        W65719  19.682  14.577  12.345 -0.0946 -0.0476  0.1619
64856W        W65720  24.154  13.003  14.458  0.2782 -0.2397 -0.3235
64857W        W65721  23.525  13.180  18.354  0.0850  0.2476  0.0017
64858W        W65722  23.525  13.107  16.285  0.2977  0.0386  0.0953
64859W        W65723  21.329   8.934  15.582 -0.0651  0.0184 -0.3547
64860W        W65724  20.337  12.996  19.064  0.3037 -0.1149 -0.2897
64861W        W65725  23.275  10.305  18.290  0.0078  0.2783  0.1081
64862W        W65726  25.883  10.614  14.893 -0.1044 -0.1539  0.0677
64863W        W65727  25.993  12.042  17.513  0.1881 -0.1164 -0.0227
64864W        W65728  20.938  11.050  15.838  0.2805 -0.1317  0.2989
64865W        W65729  21.685  14.749  18.021  0.0771 -0.2211  0.2670
64866W        W65730  19.671  11.368  16.528  0.0439  0.0159  0.1481
64867W        W65731  22.394  11.684  14.824  0.0523 -0.0782 -0.1522
64868W        W65732  22.768  12.103  15.508  0.2466 -0.1219  0.2824
64869W        W65733  27.074  13.807  14.543  0.3641  0.0456 -0.1476
64870W        W65734  25.698  14.093  19.757 -0.4679  0.2021 -0.0415
64871W        W65735  24.948   9.681  17.338  0.0853  0.0661  0.0109
64872W        W65736  22.801  16.232  15.917 -0.0864 -0.2448  0.1524
64873W        W65737  24.812  10.792  19.083  0.0895 -0.0553 -0.1638
64874W        W65738  24.326  11.222  15.460 -0.3146 -0.1750  0.2308
64875W        W65739  21.450  12.787  16.475 -0.2279  0.1000 -0.0864
64876W        W65740  25.255  11.661  19.544 -0.3433  0.1111  0.0079
64877W        W65741  21.069  14.311  16.435  0.1371  0.1343 -0.0877
64878W        W65742  23.162  11.555  14.744  0.0144  0.3343 -0.0323
64879W        W65743  20.311  11.318  15.237  0.2567 -0.2127  0.2759
64880W        W65744  22.412  14.730  16.937 -0.0193  0.1241 -0.0524
64881W        W65745  25.733  13.838  17.938 -0.3617  0.0447 -0.0261
64882W        W65746  26.039  11.855  20.217 -0.1686 -0.0884 -0.1487
64883W        W65747  26.140  15.277  17.996 -0.0418  0.0679 -0.1051
64884W        W65748  22.650  16.274  19.810  0.0941 -0.1273 -0.2556
64885W        W65749  25.403  15.112  16.629 -0.1882 -0.1907 -0.0404
64886W        W65750  20.452   9.813  16.341  0.0170  0.0073  0.0365
64887W        W65751  22.462  12.987  15.564 -0.0573 -0.0901 -0.3750
64888W        W65752  26.614  12.565  16.978 -0.2174 -0.1666 -0.0044
64889W        W65753  25.594  13.184  14.605 -0.2183 -0.1874 -0.0345
64890W        W65754  22.637   9.312  14.722 -0.1998  0.3653 -0.1839
64891W        W65755  24.236  12.768  15.046  0.0075 -0.0842  0.0646
64892W        W65756  21.925  14.299  19.030  0.0523 -0.1664 -0.1002
64893W        W65757  26.073  11.182  14.211  0.1717 -0.0184  0.0257
64894W        W65758  20.567  13.038  15.468  0.1044 -0.0568 -0.0324
64895W        W65759  22.425  15.534  16.321  0.0417  0.0139 -0.2190
64896W        W65760  23.507  11.318  17.374 -0.0774 -0.1637  0.1266
64897W        W65761  23.209  13.669  18.253 -0.0210 -0.1031 -0.2541
64898W        W65762  24.714   9.579  16.844 -0.0266 -0.1362  0.0870
64899W        W65763  21.385  11.349  14.688  0.0145  0.2102  0.1987
64900W        W65764  21.892  14.110  17.519  0.1187  0.0077 -0.1721
64901W        W65765  21.333  11.403  15.196  0.4594 -0.1868 -0.0527
64902W        W65766  22.911  15.126  15.470 -0.0324  0.2036 -0.1679
64903W        W65767  26.119  12.433  17.171  0.1167  0.5378 -0.1902
64904W        W65768  20.646   7.686  15.985 -0.2282 -0.2360 -0.1541
64905W        W65769  20.889  13.506  16.844 -0.0591 -0.0374 -0.0733
64906W        W65770  21.962  11.310  16.103 -0.2302 -0.1070  0.4508
64907W        W65771  25.408  12.984  11.941 -0.0203  0.0895 -0.1376
64908W        W65772  21.237  13.645  17.987 -0.2921 -0.1477 -0.2909
64909W        W65773  22.699  13.606  16.937 -0.0039  0.2241 -0.2220
64910W        W65774  23.010  11.675  16.132 -0.1235  0.0778 -0.0286
64911W        W65775  21.583  15.286  18.671 -0.3329 -0.1915  0.1319
64912W        W65776  21.381  13.125  18.282  0.0351 -0.2155  0.1648
64913W        W65777  22.958  13.518  18.689  0.0405  0.1563 -0.0771
64914W        W65778  22.012  10.492  14.889 -0.1446  0.0869 -0.1884
64915W        W65779  25.390  10.039  13.620  0.1447 -0.1565 -0.2846
64916W        W65780  22.120  13.303  15.367  0.0951  0.2864  0.2281
64917W        W65781  22.110  11.432  13.879  0.1006 -0.2235  0.2721
64918W        W65782  21.744  15.158  15.659 -0.0430 -0.1981 -0.0429
64919W        W65783  23.661  14.369  15.427  0.0427 -0.2835 -0.0061
64920W        W65784  22.538  17.435  17.729 -0.0581  0.0923 -0.1108
64921W        W65785  22.969  11.146  16.053  0.0154  0.0046  0.2522
64922W        W65786  27.017  17.927  16.275  0.1057  0.0754 -0.1003
64923W        W65787  23.128  12.793  18.470 -0.4289 -0.1859 -0.0784
64924W        W65788  23.297  13.278  14.835 -0.4155  0.2159  0.0869
64925W        W65789  22.592  11.710  17.108  0.1344 -0.0779  0.0905
64926W        W65790  21.256  12.402  16.145 -0.0849 -0.1897  0.1972
64927W        W65791  23.528  15.615  17.170  0.1101 -0.1892 -0.0758
64928W        W65792  24.234  13.263  14.976  0.0813  0.0155  0.1728
64929W        W65793  24.831  13.741  16.356 -0.1174  0.0002  0.0566
64930W        W65794  23.900  12.112  16.964  0.1303  0.1793 -0.0751
64931W        W65795  23.287  13.973  20.428 -0.2816 -0.0894  0.2116
64932W        W65796  26.196  10.898  15.493 -0.3008  0.1114 -0.0785
64933W        W65797  25.289  12.047  19.200  0.0242  0.0893  0.0265
64934W        W65798  24.679  14.530  18.782 -0.0173  0.2012 -0.0108
64935W        W65799  23.571  11.257  14.879 -0.0732 -0.2527 -0.2565
64936W        W65800  23.072  13.087  18.070 -0.0236 -0.1424  0.1215
64937W        W65801  22.743  10.647  17.425 -0.1937  0.1991  0.0006
64938W        W65802  27.006  14.112  17.701  0.0244 -0.2495  0.3803
64939W        W65803  26.507  13.670  17.304  0.2554 -0.2637 -0.0093
64940W        W65804  25.576  10.223  16.316  0.1081 -0.0984  0.0216
64941W        W65805  25.589  12.676  17.893 -0.0257 -0.0130 -0.0020
64942W        W65806  24.942  14.978  18.480 -0.1495 -0.0176 -0.1098
64943W        W65807  22.808  11.662  12.969 -0.3770  0.1744  0.2422
64944W        W65808  22.857   9.655  17.210 -0.1103  0.0677 -0.1803
64945W        W65809  24.065  13.410  15.428  0.0060  0.0104 -0.1288
64946W        W65810  23.537  11.255  16.867 -0.2339 -0.0469 -0.1394
64947W        W65811  22.385  14.810  20.942 -0.0676 -0.1324 -0.1110
64948W        W65812  24.351  10.878  15.015 -0.0952 -0.0033 -0.0117
64949W        W65813  26.361   9.183  14.791  0.2187  0.1297 -0.4204
64950W        W65814  23.554  11.047  15.607 -0.1318  0.2013  0.0020
64951W        W65815  24.267  14.295  14.556  0.1363  0.0527 -0.1424
64952W        W65816  23.694  10.597  14.393  0.2150  0.0417  0.0946
64953W        W65817  22.806  13.730  17.862  0.1262  0.0640 -0.2656
64954W        W65818  23.529  11.710  14.466 -0.0420 -0.0130  0.0189
64955W        W65819  22.414  15.266  19.051  0.2213  0.1939 -0.1240
64956W        W65820  25.456  15.083  15.850 -0.1831 -0.1866  0.0128
64957W        W65821  24.931  13.040  23.132  0.1710  0.2118  0.1031
64958W        W65822  24.043   9.481  15.720  0.0752 -0.3092  0.0638
64959W        W65823  24.728   9.484  15.970  0.1131 -0.2325  0.1012
64960W        W65824  21.858  13.651  19.291 -0.4045  0.1143  0.3638
64961W        W65825  23.455  13.021  16.774  0.1074 -0.0184 -0.2231
64962W        W65826  26.822  15.371  18.001  0.0697 -0.2418 -0.1277
64963W        W65827  24.885  12.121  13.737  0.0698 -0.1504 -0.0710
64964W        W65828  22.892  11.802  16.632  0.0995  0.0359 -0.1033
64965W        W65829  25.577  11.911  18.768  0.3701 -0.1045  0.3285
64966W        W65830  24.414  13.292  19.322 -0.2661 -0.2043  0.3994
64967W        W65831  24.213  11.437  16.232  0.0833 -0.0860  0.1089
64968W        W65832  25.423  10.584  15.997 -0.0480 -0.0490 -0.1224
64969W        W65833  24.780   9.154  17.455  0.1117  0.2923  0.3900
64970W        W65834  25.372  12.546  13.527 -0.0052 -0.0812  0.0011
64971W        W65835  24.413  14.806  13.669  0.2360  0.3440 -0.1320
64972W        W65836  24.296  13.841  15.785  0.2075 -0.0547  0.1864
64973W        W65837  25.292  12.725  18.324  0.5418 -0.2163  0.0821
64974W        W65838  25.370  11.178  15.269 -0.3163 -0.1919 -0.0094
64975W        W65839  23.684  10.850  17.539  0.1689  0.0204 -0.0317
64976W        W65840  26.030  10.717  19.037 -0.2477  0.1074  0.2356
64977W        W65841  24.436  12.999  16.139  0.1732 -0.0892 -0.1359
64978W        W65842  22.839  14.609  15.416  0.1351 -0.2663 -0.2567
64979W        W65843  26.212  14.521  19.067  0.2817 -0.1776  0.2154
64980W        W65844  24.601  11.194  17.470 -0.0617 -0.2806  0.0097
64981W        W65845  23.764  16.586  19.718  0.3790 -0.0753  0.2390
64982W        W65846  26.107  12.423  14.624  0.3633  0.2898 -0.0019
64983W        W65847  23.991  11.682  17.985  0.0784 -0.0282  0.1080
64984W        W65848  23.209  11.325  16.480  0.1047 -0.0112  0.0471
64985W        W65849  25.259   9.814  15.845 -0.0339  0.1465  0.1568
64986W        W65850  24.063  12.529  16.792  0.2653  0.0446 -0.2265
64987W        W65851  24.847  13.496  16.792  0.0958  0.1167 -0.0076
64988W        W65852  22.695  14.682  13.011  0.1583 -0.0306 -0.2643
64989W        W65853  22.637  13.414  15.356  0.0993 -0.0443 -0.3233
64990W        W65854  22.909   9.189  17.119 -0.0331 -0.3131 -0.1041
64991W        W65855  23.888  13.922  14.307 -0.0257  0.0125 -0.0427
64992W        W65856  23.927  11.209  15.200 -0.1379 -0.1218  0.4104
64993W        W65857  21.650  14.253  17.976  0.0672  0.1962  0.2624
64994W        W65858  22.693  11.257  14.785  0.1321 -0.0087 -0.1018
64995W        W65859  25.842  12.427  16.626 -0.1088  0.0606 -0.1888
64996W        W65860  24.661  17.136  19.447 -0.1632  0.2513  0.0887
64997W        W65861  23.581  15.972  16.655  0.1797  0.0809  0.0727
64998W        W65862  24.421  10.980  18.386 -0.1634  0.0121  0.0669
64999W        W65863  26.117  14.804  15.617  0.1119  0.0132  0.0878
65000W        W65864  22.934  11.208  12.770 -0.1646  0.1050  0.1688
65001W        W65865  25.536  13.524  15.835 -0.1321  0.1053 -0.0299
65002W        W65866  23.643   9.755  12.575  0.1377  0.1286  0.1087
65003W        W65867  24.388  12.517  18.848  0.2585  0.3932 -0.2259
65004W        W65868  22.742  11.250  16.525  0.4447 -0.0983  0.0257
65005W        W65869  22.225  14.359  18.209 -0.0486 -0.2188  0.3537
65006W        W65870  24.890  10.968  13.126  0.1012  0.1653  0.0896
65007W        W65871  22.199  10.922  15.741  0.2858 -0.1254 -0.2785
65008W        W65872  24.951  12.998  15.381 -0.3487  0.0364  0.0411
65009W        W65873  23.565   9.315  15.486 -0.1262 -0.0580  0.1633
65010W        W65874  22.638  13.514  16.469 -0.1047  0.1655 -0.2901
65011W        W65875  23.136  13.905  17.552  0.1934  0.0990  0.3064
65012W        W65876  24.672  13.845  18.173 -0.4026  0.0926  0.0731
65013W        W65877  25.181  10.096  20.829 -0.1029 -0.2391  0.0745
65014W        W65878  22.880  10.108  17.511  0.0596 -0.1120  0.0104
65015W        W65879  21.851  13.326  18.286  0.0469  0.0417 -0.1329
65016W        W65880  23.237  14.481  18.582 -0.2492  0.0455  0.2476
65017W        W65881  22.338  13.174  20.085  0.1007 -0.0113 -0.1282
65018W        W65882  22.242  12.301  16.063 -0.2776 -0.3855  0.1695
65019W        W65883  27.028  13.414  18.560 -0.0974 -0.1220  0.1824
65020W        W65884  24.723  12.934  17.703  0.4617 -0.2008  0.0237
65021W        W65885  22.768  11.604  15.663  0.3239  0.0328 -0.0543
65022W        W65886  23.596  14.309  16.031  0.0180 -0.1917  0.1156
65023W        W65887  24.564   8.708  15.082  0.1820 -0.1662 -0.0590
65024W        W65888  24.332  11.898  16.142  0.1029  0.3298 -0.0825
65025W        W65889  22.243  13.763  16.734  0.0293 -0.3290 -0.3131
65026W        W65890  19.849  12.962  17.815  0.2326  0.0467  0.0784
65027W        W65891  22.255  12.512  15.573 -0.0026 -0.1414 -0.1265
65028W        W65892  24.031  11.223  17.723 -0.0648  0.1169  0.1914
65029W        W65893  21.102  14.463  14.181 -0.2013  0.0912 -0.2123
65030W        W65894  26.208  11.514  13.516  0.3434 -0.1378 -0.1255
65031W        W65895  23.089  13.464  17.263 -0.3325  0.0487  0.0676
65032W        W65896  22.016  11.892  17.104 -0.0785  0.2471  0.3089
65033W        W65897  24.230  13.005  13.073  0.1309 -0.2771  0.1204
65034W        W65898  20.997  15.415  18.784 -0.2065  0.0057 -0.0083
65035W        W65899  22.485   9.418  15.893  0.1672  0.3172 -0.4485
65036W        W65900  22.886   8.893  13.381  0.0319  0.1206 -0.2837
65037W        W65901  25.383  14.103  17.576  0.0722 -0.0337 -0.2705
65038W        W65902  24.195  12.469  16.250 -0.1892  0.0677 -0.3012
65039W        W65903  23.122  14.271  15.198  0.2670  0.1380 -0.4863
65040W        W65904  22.003  14.709  16.426 -0.3158 -0.2706 -0.5882
65041W        W65905  21.411  15.589  20.213 -0.0196 -0.0474  0.1442
65042W        W65906  25.396   8.953  18.877 -0.0069 -0.1580 -0.2797
65043W        W65907  23.944  11.657  16.683  0.2000 -0.3550 -0.0889
65044W        W65908  22.045  10.328  14.147  0.2795 -0.0130  0.4106
65045W        W65909  23.579  12.302  14.493  0.0754 -0.2462  0.1168
65046W        W65910  23.042  10.682  14.791  0.3110  0.1852 -0.1677
65047W        W65911  21.168  14.363  15.567  0.0319 -0.1360 -0.3731
65048W        W65912  25.143  12.200  16.451  0.2365 -0.2249  0.4104
65049W        W65913  20.956   9.564  12.648 -0.1300 -0.2956 -0.4071
65050W        W65914  23.370  11.393  15.951 -0.0234  0.0511  0.1134
65051W        W65915  23.964  13.299  16.055  0.0569 -0.1224 -0.2358
65052W        W65916  19.852   8.512  15.233  0.1480  0.2325  0.2412
65053W        W65917  24.398   9.138  17.040 -0.1635  0.1843 -0.3305
65054W        W65918  23.152   9.384  14.699  0.1254  0.2055  0.1602
65055W        W65919  24.581  14.760  18.222 -0.0507  0.2043  0.1755
65056W        W65920  22.401  12.406  20.463  0.2071 -0.2162  0.1044
65057W        W65921  22.629  14.881  13.618 -0.0676 -0.0696 -0.3344
65058W        W65922  21.924  11.811  16.168 -0.0687 -0.1064 -0.0815
65059W        W65923  23.019  14.168  18.009 -0.0926  0.0474 -0.1742
65060W        W65924  22.654  13.845  15.982 -0.0197 -0.1208  0.2177
65061W        W65925  24.381  13.378  18.322 -0.1599  0.1019  0.0175
65062W        W65926  26.337  11.798  18.325  0.0261 -0.1734  0.1357
65063W        W65927  25.045  13.779  17.367  0.1000  0.0580  0.2318
65064W        W65928  25.875  10.504  15.840 -0.2077 -0.0702 -0.0174
65065W        W65929  24.833  11.209  15.474  0.1160  0.2119 -0.2772
65066W        W65930  24.489  11.800  14.689 -0.1008 -0.1921  0.1580
65067W        W65931  23.395  13.572  16.875  0.0335 -0.2036  0.3225
65068W        W65932  21.882  14.834  18.518  0.0413  0.0905  0.0688
65069W        W65933  26.685  10.572  18.389 -0.4695 -0.3264  0.2629
65070W        W65934  23.865  13.004  17.530  0.0193  0.2661 -0.0569
65071W        W65935  26.109  13.494  18.070 -0.0823 -0.1854  0.3644
65072W        W65936  21.774  11.231  15.468 -0.0682 -0.0471  0.3154
65073W        W65937  23.988  12.341  14.160 -0.1484 -0.2115 -0.4008
65074W        W65938  22.101  12.817  17.313 -0.1268 -0.0596  0.0030
65075W        W65939  21.174  13.211  19.529  0.0816 -0.0322 -0.3368
65076W        W65940  23.556  12.651  16.494  0.0534 -0.1205  0.3395
65077W        W65941  23.572  15.556  14.834  0.0500 -0.3256 -0.0332
65078W        W65942  24.166  13.745  18.027  0.1585  0.1681 -0.2704
65079W        W65943  23.566  12.098  13.966  0.0116  0.0386 -0.0227
65080W        W65944  23.748  14.564  20.969  0.2681 -0.4519  0.0347
65081W        W65945  20.933  12.731  17.539  0.0627  0.3365 -0.1168
65082W        W65946  23.589  12.744  14.242  0.2154  0.3298 -0.0097
65083W        W65947  22.114  11.392  17.165  0.2958 -0.2388 -0.1395
65084W        W65948  24.021  14.804  14.667 -0.0038 -0.3868 -0.2402
65085W        W65949  23.285  12.774  15.280  0.0851  0.1614  0.0705
65086W        W65950  22.679  10.373  19.060 -0.1192 -0.2583  0.1125
65087W        W65951  23.765  13.880  16.833  0.3261  0.0804  0.4000
65088W        W65952  26.721  14.929  17.857 -0.1480 -0.2033 -0.0986
65089W        W65953  23.879  15.224  13.506  0.0256 -0.1505 -0.3435
65090W        W65954  21.650  11.847  19.107 -0.0889  0.0970  0.0202
65091W        W65955  22.577  11.911  16.091 -0.0573 -0.1305 -0.0349
65092W        W65956  21.270  11.383  12.100  0.0830  0.0153  0.2014
65093W        W65957  22.980  15.225  13.979 -0.0691  0.3624  0.0506
65094W        W65958  22.530  14.383  15.857 -0.2286 -0.3933  0.1893
65095W        W65959  23.139  14.617  17.729 -0.2658 -0.0184  0.0768
65096W        W65960  21.890  13.906  19.760  0.0373 -0.2066 -0.0919
65097W        W65961  23.087  12.973  13.842  0.0179  0.0146  0.2704
65098W        W65962  25.578  11.720  15.029 -0.1509 -0.0485 -0.1268
65099W        W65963  23.321  14.757  15.450  0.2215  0.0387  0.0413
65100W        W65964  21.825  17.297  18.354  0.2815 -0.0227 -0.3233
65101W        W65965  26.789  14.581  17.485 -0.3176 -0.1872 -0.1077
65102W        W65966  25.070  11.141  21.212 -0.0353  0.1402  0.3901
65103W        W65967  23.367  11.763  16.827 -0.2374 -0.2355  0.2077
65104W        W65968  24.590  15.408  15.982  0.1152  0.0896  0.0177
65105W        W65969  25.021   9.703  15.188 -0.4060  0.1553  0.1595
65106W        W65970  23.101  10.830  15.726  0.0731 -0.0219  0.2353
65107W        W65971  23.447  14.960  17.914 -0.2283  0.3376  0.0378
65108W        W65972  23.892  11.258  15.901  0.1084 -0.3200 -0.2161
65109W        W65973  20.507  12.976  17.406 -0.2257 -0.0349 -0.0279
65110W        W65974  22.845  13.438  19.506  0.1021 -0.0746 -0.2253
65111W        W65975  25.140  14.217  17.136 -0.1065  0.0756 -0.1886
65112W        W65976  21.668  11.282  18.193 -0.2266 -0.2525 -0.0346
65113W        W65977  23.788  13.758  15.823 -0.0731  0.3970 -0.1175
65114W        W65978  24.719  12.854  18.219  0.2694 -0.2741  0.0596
65115W        W65979  23.284  14.911  16.710 -0.1833 -0.0448 -0.0537
65116W        W65980  25.903  15.908  15.592  0.0051  0.2285 -0.0750
65117W        W65981  22.751  12.968  16.220  0.0213 -0.1937 -0.1936
65118W        W65982  25.700  10.966  15.888  0.1036  0.4106  0.0956
65119W        W65983  21.227  12.350  16.883  0.0790 -0.1579 -0.0887
65120W        W65984  23.413  10.924  16.134  0.3084 -0.1677  0.0801
65121W        W65985  24.189  14.444  15.897  0.1380 -0.3155 -0.0623
65122W        W65986  23.688  12.771  19.335 -0.2112 -0.0593 -0.1096
65123W        W65987  24.823  15.747  16.289  0.1069 -0.0031  0.0820
65124W        W65988  23.289  10.385  16.005 -0.0902 -0.1092 -0.0714
65125W        W65989  21.448  10.969  19.450 -0.1191 -0.0015 -0.0869
65126W        W65990  23.706  10.617  15.828  0.0118 -0.1742  0.0548
65127W        W65991  23.489  12.989  15.754 -0.3568  0.0580  0.2111
65128W        W65992  21.743  13.625  17.367 -0.1477 -0.1022 -0.0491
65129W        W65993  24.507  11.333  17.967 -0.3108  0.0191  0.2521
65130W        W65994  23.069  13.273  16.607 -0.2187  0.1672 -0.0773
65131W        W65995  23.026  12.971  17.029  0.0834 -0.0637 -0.2019
65132W        W65996  21.985  12.565  14.819  0.0075  0.0316  0.0163
65133W        W65997  24.464  12.645  17.071 -0.4627 -0.0888 -0.1064
65134W        W65998  26.786  10.988  16.346 -0.1020  0.0779  0.3494
65135W        W65999  24.558  15.049  17.428 -0.2213 -0.0186  0.0967
65136W        W66000  21.709  12.616  17.021  0.0428 -0.0148 -0.0890
65137W        W66001  25.952  10.026  15.274 -0.0687  0.0425 -0.0297
65138W        W66002  23.309  13.818  13.568 -0.3574  0.0569 -0.0246
65139W        W66003  25.536  12.279  18.340  0.1445  0.1756  0.0636
65140W        W66004  24.495   8.045  13.213 -0.0132 -0.2005  0.0812
65141W        W66005  24.882  11.765  18.133 -0.2152  0.1196 -0.2010
65142W        W66006  22.470  12.115  16.766 -0.1323 -0.0234  0.2216
65143W        W66007  20.280  12.143  14.300 -0.1205  0.1884  0.1513
65144W        W66008  22.464  12.613  14.864 -0.1144  0.0260 -0.0441
65145W        W66009  23.990  10.910  16.276  0.1829 -0.1498 -0.1311
65146W        W66010  26.086  14.760  17.861 -0.1631 -0.2100 -0.0291
65147W        W66011  25.790  10.700  16.318 -0.2347  0.2332 -0.5406
65148W        W66012  21.035  14.840  15.381 -0.0518 -0.3440  0.0766
65149W        W66013  21.241  16.268  16.704  0.0692 -0.2074 -0.2295
65150W        W66014  21.643  12.188  17.209  0.2849 -0.0478 -0.1576
65151W        W66015  25.327  12.416  18.799  0.0392 -0.2317  0.0398
65152W        W66016  25.587  15.134  18.158  0.0750  0.0699 -0.3718
65153W        W66017  23.241  12.678  16.093 -0.0702 -0.1076 -0.1783
65154W        W66018  23.646  15.272  17.531  0.1207  0.1193  0.1222
65155W        W66019  25.257  12.855  17.511  0.1730 -0.0742  0.1558
65156W        W66020  23.014  12.438  14.912  0.2976  0.3078  0.1476
65157W        W66021  24.138  10.752  18.042  0.2572  0.0635 -0.2712
65158W        W66022  22.203  13.220  16.887 -0.1270  0.3242  0.1547
65159W        W66023  25.052  11.610  15.207  0.0891 -0.0010  0.0249
65160W        W66024  22.443  15.239  20.087  0.0126 -0.0294  0.0718
65161W        W66025  20.360  12.069  16.332 -0.2485  0.0658 -0.3497
65162W        W66026  23.729  14.682  16.923 -0.2526  0.3083 -0.0148
65163W        W66027  21.980  12.032  15.643  0.3281 -0.0660  0.1952
65164W        W66028  22.156  15.551  19.501 -0.0881 -0.1645 -0.0868
65165W        W66029  20.883  11.808  17.702 -0.1972 -0.0200  0.0905
65166W        W66030  20.836  11.236  15.257  0.1988 -0.2310 -0.1526
65167W        W66031  23.010  15.396  19.546 -0.4009 -0.1775  0.1151
65168W        W66032  24.070  13.444  17.589 -0.0400  0.1892 -0.0926
65169W        W66033  21.973  15.175  16.212  0.0616  0.1492  0.0330
65170W        W66034  25.198  12.425  15.031  0.1977  0.1052 -0.2176
65171W        W66035  22.828  11.922  18.362 -0.0925  0.1731 -0.1902
65172W        W66036  24.522  15.488  17.671  0.1202 -0.0563  0.1050
65173W        W66037  22.497  14.202  12.984 -0.1547 -0.0268  0.0122
65174W        W66038  23.081  13.735  15.156  0.0583 -0.0074  0.1282
65175W        W66039  23.196  12.598  17.964  0.0441 -0.1445 -0.0813
65176W        W66040  22.520  13.344  13.785  0.3116  0.0627  0.0514
65177W        W66041  22.746  11.190  17.405  0.0313 -0.0408 -0.4128
65178W        W66042  21.402  11.921  14.881 -0.1935 -0.2215  0.0020
65179W        W66043  23.093  12.098  18.854  0.0589 -0.0851  0.2494
65180W        W66044  23.079   7.433  11.748 -0.0281  0.2218  0.2731
65181W        W66045  25.951  11.614  18.733 -0.0430 -0.1266 -0.2360
65182W        W66046  23.481  14.889  19.010 -0.4044 -0.2539 -0.2712
65183W        W66047  24.163  11.361  17.291 -0.0786 -0.1631 -0.0879
65184W        W66048  26.248  11.469  20.514  0.0126 -0.1399 -0.2705
65185W        W66049  23.006  17.825  16.278  0.1438 -0.3718 -0.1464
65186W        W66050  25.092  13.803  15.882  0.1758 -0.0667 -0.0322
65187W        W66051  23.433  12.103  17.217  0.3430  0.1205  0.0628
65188W        W66052  22.245   8.368  14.915  0.1690  0.2949 -0.0142
65189W        W66053  23.868  16.151  16.312  0.0057 -0.2359 -0.2707
65190W        W66054  22.659  12.226  17.913 -0.3031 -0.1066 -0.0464
65191W        W66055  21.886   9.740  17.635 -0.0963  0.0012 -0.0843
65192W        W66056  20.272  13.554  17.918  0.1193 -0.1366  0.1744
65193W        W66057  23.233  14.334  17.234  0.1940  0.2650 -0.1194
65194W        W66058  21.320  15.623  16.889 -0.1010 -0.2172 -0.4140
65195W        W66059  22.774  12.588  15.414  0.2806 -0.0279  0.1718
65196W        W66060  18.473   9.689  15.399  0.1450  0.1798  0.3953
65197W        W66061  24.997  16.244  15.618  0.1042  0.1364  0.1944
65198W        W66062  23.160  11.351  15.466  0.0051 -0.1505 -0.0581
65199W        W66063  26.645  13.080  16.589 -0.3280 -0.1492 -0.0385
65200W        W66064  25.053  11.096  14.212 -0.1914 -0.1432  0.0461
65201W        W66065  25.429  12.617  16.497  0.1891 -0.1605  0.1440
65202W        W66066  23.100  15.116  17.593 -0.1480 -0.0193  0.0706
65203W        W66067  23.173  14.362  15.703  0.0961 -0.0885  0.0464
65204W        W66068  24.416   9.472  17.430 -0.2311  0.0606 -0.2434
65205W        W66069  20.031  16.725  17.191  0.1764 -0.1624 -0.0677
65206W        W66070  22.705  13.027  18.516  0.1847 -0.1541 -0.0185
65207W        W66071  21.143  10.268  19.693 -0.0847  0.0058  0.0357
65208W        W66072  23.791  12.127  16.471 -0.0370 -0.0209  0.0073
65209W        W66073  22.694  12.716  14.068  0.0690 -0.4231  0.0238
65210W        W66074  26.263  11.969  18.866  0.0061  0.1045 -0.1461
65211W        W66075  23.052  15.640  17.383 -0.1897 -0.0728 -0.1800
65212W        W66076  20.902   8.604  15.427 -0.0922 -0.0053 -0.1889
65213W        W66077  25.368  15.188  18.675  0.2435 -0.0447 -0.1345
65214W        W66078  23.498  13.874  17.254 -0.0267  0.1885  0.1725
65215W        W66079  24.036  17.423  16.173 -0.0366  0.0759 -0.0794
65216W        W66080  22.873  14.572  16.714 -0.0376  0.2662  0.0880
65217W        W66081  25.605  11.883  16.587 -0.0465  0.0404  0.2405
65218W        W66082  25.353  10.362  18.302  0.0017 -0.2077 -0.0919
65219W        W66083  24.617  13.495  17.265 -0.4112 -0.2689  0.1255
65220W        W66084  26.012   9.621  14.988  0.1312  0.1141  0.1719
65221W        W66085  24.660  13.933  13.373 -0.1825 -0.0799 -0.0719
65222W        W66086  25.916  14.810  17.143  0.1862 -0.0586 -0.4007
65223W        W66087  21.111  14.709  13.688  0.1266 -0.1394  0.2473
65224W        W66088  23.848  13.298  18.799  0.2267 -0.1185 -0.3787
65225W        W66089  20.341  11.149  18.001  0.1573 -0.1103  0.1260
65226W        W66090  27.276  13.338  17.036 -0.0154 -0.0382  0.0569
65227W        W66091  23.253  10.877  17.145 -0.0533 -0.0777  0.1468
65228W        W66092  21.634  11.130  16.600 -0.1997  0.0740  0.1025
65229W        W66093  23.699  14.720  19.525 -0.2060 -0.0652 -0.0769
65230W        W66094  24.278  12.881  17.911 -0.1129 -0.3622 -0.0403
65231W        W66095  23.975  14.424  17.742 -0.0455 -0.2378  0.0877
65232W        W66096  23.581  12.509  17.520 -0.1155  0.4414 -0.1393
65233W        W66097  25.051  14.179  19.032  0.2025 -0.0941  0.3940
65234W        W66098  25.028  11.915  18.608  0.2387  0.1417 -0.0325
65235W        W66099  23.928  13.940  15.339 -0.0048  0.2829  0.0003
65236W        W66100  23.432  13.031  17.252  0.0926 -0.0252  0.0272
65237W        W66101  22.132  14.259  15.551 -0.3923 -0.0551 -0.0097
65238W        W66102  24.492  13.762  19.166  0.0591 -0.0369  0.0211
65239W        W66103  25.271  12.867  19.961  0.0914 -0.0236 -0.0957
65240W        W66104  21.697  12.308  17.993  0.1050  0.0627  0.1282
65241W        W66105  24.898  13.414  18.133 -0.2361  0.0447  0.2659
65242W        W66106  25.978  16.866  18.749 -0.1988 -0.0825  0.3312
65243W        W66107  22.790  10.651  16.194 -0.0032 -0.1199 -0.3133
65244W        W66108  23.798  11.641  17.192 -0.0682  0.1425 -0.0365
65245W        W66109  22.984  12.993  15.755 -0.0892 -0.0870 -0.0889
65246W        W66110  20.877  15.430  17.024  0.3057  0.1986  0.1955
65247W        W66111  25.714  16.721  16.736 -0.1154 -0.0351  0.1252
65248W        W66112  20.076  10.972  14.814  0.2501 -0.0577 -0.0043
65249W        W66113  21.518  18.463  21.390 -0.5725  0.3356  0.0140
65250W        W66114  22.068  15.278  22.125  0.0831  0.5248  0.0625
65251W        W66115  27.051  12.181  16.681 -0.0672 -0.0387  0.0620
65252W        W66116  25.535  15.344  22.005  0.0780  0.3203 -0.1687
65253W        W66117  23.690  15.750  19.155 -0.0235  0.1605 -0.2692
65254W        W66118  22.859  12.664  23.005  0.2144  0.0712 -0.0779
65255W        W66119  23.871  11.550  19.761 -0.1078  0.1846 -0.5543
65256W        W66120  27.379  13.812  17.651  0.2572  0.1249  0.0475
65257W        W66121  22.042  12.350  21.726 -0.1593  0.1385  0.0857
65258W        W66122  20.789  12.648  21.362  0.0586 -0.4414  0.0718
65259W        W66123  21.263  11.369  21.962  0.1182 -0.1347  0.0471
65260W        W66124  25.733  11.856  19.299  0.3645  0.2832 -0.1001
65261W        W66125  25.363  12.379  20.129  0.4625 -0.0762 -0.0016
65262W        W66126  25.324  11.571  22.429  0.0999 -0.0216  0.0919
65263W        W66127  22.501  12.846  22.477  0.2059 -0.0076  0.1031
65264W        W66128  21.877  14.584  21.687 -0.0706 -0.1796  0.3320
65265W        W66129  24.807  13.460  18.634 -0.0480 -0.0667  0.2403
65266W        W66130  23.225  12.253  21.861  0.0553 -0.1070 -0.1893
65267W        W66131  23.925  12.745  21.443 -0.2253  0.2442  0.0971
65268W        W66132  22.847  12.564  18.793 -0.3082  0.3012  0.2491
65269W        W66133  27.838  14.374  18.679  0.0392  0.0105 -0.0695
65270W        W66134  25.718  13.116  18.274  0.1924 -0.0417 -0.0492
65271W        W66135  23.893  14.324  19.764 -0.1762 -0.3855 -0.1128
65272W        W66136  23.163  13.405  22.388  0.1951 -0.1505  0.0211
65273W        W66137  22.362  12.625  21.464 -0.1523 -0.1674  0.0865
65274W        W66138  25.301  12.989  22.793  0.1088  0.1155 -0.0516
65275W        W66139  28.351  10.613  23.562 -0.1823  0.2986 -0.0901
65276W        W66140  20.818  12.397  18.368 -0.0358  0.1269 -0.0736
65277W        W66141  26.086  15.983  21.515  0.0724 -0.0175  0.2051
65278W        W66142  21.773  11.467  18.638  0.0502 -0.0958  0.2780
65279W        W66143  23.513  13.081  21.378  0.0775  0.0866 -0.4440
65280W        W66144  24.181  17.329  23.074  0.0624 -0.0324 -0.0178
65281W        W66145  22.808  14.476  23.051 -0.1533  0.0093 -0.1910
65282W        W66146  25.604  13.129  22.300  0.2532 -0.2239  0.2035
65283W        W66147  22.979  14.940  23.137 -0.0161  0.1123  0.0018
65284W        W66148  23.952  13.759  21.945  0.4332 -0.3041 -0.1258
65285W        W66149  23.485  12.963  17.846  0.3572  0.0429 -0.0291
65286W        W66150  22.426  12.874  21.953  0.0528  0.1056  0.0832
65287W        W66151  25.980  12.641  18.157  0.1905  0.1382  0.0831
65288W        W66152  24.166  12.464  22.268  0.1260  0.1462  0.0308
65289W        W66153  23.467   9.851  16.458 -0.2308 -0.0789 -0.1790
65290W        W66154  25.085  14.349  21.791  0.4835 -0.1727 -0.0182
65291W        W66155  21.546  14.491  21.208  0.2755 -0.1775 -0.0628
65292W        W66156  28.747  12.756  15.918  0.1554 -0.0085  0.1162
65293W        W66157  22.270  14.300  18.714 -0.2799  0.1812 -0.0209
65294W        W66158  24.230  16.405  19.308 -0.1245 -0.3054 -0.1136
65295W        W66159  23.762  10.154  19.129 -0.0165  0.0690  0.2575
65296W        W66160  23.511  13.527  21.817 -0.4440  0.0182 -0.0076
65297W        W66161  28.474  12.851  20.010 -0.1013 -0.1594  0.0673
65298W        W66162  27.522  12.716  19.156  0.4435  0.0378 -0.1225
65299W        W66163  23.456  13.634  18.711 -0.1857 -0.0234  0.1553
65300W        W66164  22.382  12.894  20.518  0.1714 -0.1779  0.1474
65301W        W66165  22.637  15.962  21.913  0.0830  0.1935  0.2371
65302W        W66166  24.651  12.361  16.554 -0.0841 -0.0263  0.1023
65303W        W66167  24.741  12.064  16.940  0.0356 -0.3297 -0.1849
65304W        W66168  23.702  13.655  20.327  0.0402  0.0998 -0.1400
65305W        W66169  23.289  12.112  19.855  0.0718  0.0907  0.1788
65306W        W66170  23.107  12.380  22.728 -0.3100  0.0515 -0.2896
65307W        W66171  18.379  13.192  20.794  0.4077  0.0629  0.1795
65308W        W66172  25.343  14.985  20.994  0.0077 -0.3921 -0.0187
65309W        W66173  23.940  10.043  17.343 -0.0481  0.4052 -0.4894
65310W        W66174  20.826  11.611  18.898 -0.0365  0.0064 -0.0062
65311W        W66175  23.957  13.136  21.142  0.0483  0.2013  0.2365
65312W        W66176  22.831  12.077  21.137  0.0243  0.2448 -0.0359
65313W        W66177  22.011  12.219  19.990  0.4232 -0.0780  0.2718
65314W        W66178  27.071  10.904  20.472 -0.2120  0.0396 -0.2274
65315W        W66179  23.400  16.790  19.304 -0.2067  0.1123 -0.0524
65316W        W66180  23.133  10.010  17.938 -0.0325 -0.0229 -0.0220
65317W        W66181  21.523  12.974  20.769  0.1179  0.0435 -0.0079
65318W        W66182  25.183  13.809  18.503 -0.0248 -0.1023  0.1876
65319W        W66183  25.888  14.415  20.400 -0.0311  0.0337  0.3366
65320W        W66184  25.533  11.930  20.358 -0.0285  0.0025 -0.3581
65321W        W66185  24.540  16.432  22.176  0.0974 -0.1171 -0.0543
65322W        W66186  23.517  12.557  20.105 -0.1996 -0.2600  0.2322
65323W        W66187  28.431  12.708  19.529  0.2624  0.2481  0.1744
65324W        W66188  24.552  14.929  19.477  0.0970 -0.0360 -0.0829
65325W        W66189  21.263  12.353  21.152  0.4336  0.1425 -0.1235
65326W        W66190  21.035  12.485  18.936  0.2753 -0.1250 -0.2942
65327W        W66191  23.716  10.550  19.802  0.0032  0.0685  0.0049
65328W        W66192  23.295  12.834  19.725 -0.1081 -0.3183  0.0732
65329W        W66193  22.323  12.703  22.941 -0.1840  0.1840  0.0364
65330W        W66194  23.256  12.449  23.263 -0.1384 -0.0521 -0.1219
65331W        W66195  21.824  10.461  21.142  0.0331 -0.0999 -0.0074
65332W        W66196  25.514  13.363  21.279  0.2141 -0.1943 -0.1864
65333W        W66197  23.447  10.810  20.760 -0.0819  0.1053  0.0985
65334W        W66198  27.203  12.301  19.503  0.0384 -0.3842  0.4120
65335W        W66199  23.971  14.711  21.820 -0.0439 -0.0195  0.1253
65336W        W66200  26.837  12.323  21.420  0.3088  0.0335 -0.0110
65337W        W66201  26.328  15.949  20.637  0.1730  0.0610  0.2479
65338W        W66202  25.458  10.252  19.509 -0.1747  0.1594  0.2105
65339W        W66203  25.846  14.154  19.193 -0.0413  0.0736 -0.2897
65340W        W66204  25.236  12.917  23.496  0.3336  0.0373  0.2104
65341W        W66205  25.005  13.696  19.070  0.0685  0.0953  0.2299
65342W        W66206  23.314  14.718  21.183 -0.0985 -0.0373  0.0990
65343W        W66207  22.032  11.777  22.430 -0.1128  0.3053  0.2071
65344W        W66208  25.275  10.574  17.526  0.1253 -0.3949 -0.0349
65345W        W66209  23.971  13.332  19.588 -0.0132 -0.4943 -0.1586
65346W        W66210  19.968  14.123  21.709 -0.5341 -0.0211  0.1868
65347W        W66211  23.157  10.601  19.838  0.0075  0.2705 -0.0786
65348W        W66212  25.163  11.153  19.036  0.0318  0.3569  0.3730
65349W        W66213  26.108  14.250  19.580 -0.0158 -0.1164 -0.2458
65350W        W66214  26.107  12.789  20.129 -0.1447 -0.1714  0.0865
65351W        W66215  24.094  12.161  18.107  0.1292 -0.0781 -0.1139
65352W        W66216  24.757  13.922  19.964 -0.1960 -0.0336  0.0368
65353W        W66217  25.534  11.430  23.048 -0.2696  0.1189  0.1056
65354W        W66218  23.525  10.107  20.042  0.4336 -0.0113 -0.2281
65355W        W66219  22.900  15.875  19.647 -0.2301  0.3114  0.0608
65356W        W66220  26.354  10.804  22.113  0.1025 -0.0914  0.4659
65357W        W66221  24.457  10.958  20.657  0.2202 -0.4108  0.3799
65358W        W66222  21.538  13.004  23.520 -0.1836  0.2438 -0.3974
65359W        W66223  21.228  13.299  22.064 -0.1314 -0.0325 -0.3157
65360W        W66224  24.299  13.973  18.479  0.0334  0.0567  0.1715
65361W        W66225  26.336  15.421  16.322  0.2274  0.0173 -0.1923
65362W        W66226  23.824  16.337  21.519 -0.2826 -0.0080 -0.1427
65363W        W66227  26.609  13.086  20.224 -0.0378 -0.2541 -0.1618
65364W        W66228  22.240  15.940  18.427 -0.2045  0.0347  0.0996
65365W        W66229  25.730  13.126  20.021 -0.1738 -0.1439 -0.0353
65366W        W66230  23.903  10.032  23.491  0.1904 -0.0612  0.2435
65367W        W66231  23.455  14.183  21.187 -0.0654 -0.0129  0.1183
65368W        W66232  23.588  16.732  18.794 -0.0764  0.2424  0.4513
65369W        W66233  24.519  12.006  18.669  0.2269 -0.1463  0.2955
65370W        W66234  22.742  13.446  18.215 -0.0864 -0.6722  0.1529
65371W        W66235  24.581  10.803  20.168  0.1839 -0.1513 -0.0561
65372W        W66236  23.993  15.607  19.554  0.1048  0.0451 -0.0996
65373W        W66237  23.519  14.225  17.714  0.0669  0.2455  0.4067
65374W        W66238  25.984  13.582  22.121  0.1403 -0.4215  0.3233
65375W        W66239  24.320  12.559  18.379 -0.2479  0.1234  0.0447
65376W        W66240  25.327  12.009  20.800  0.0397  0.0122 -0.1537
65377W        W66241  25.898  14.075  18.724 -0.0740  0.3057 -0.0093
65378W        W66242  24.669  13.078  21.870 -0.1381  0.0582 -0.1154
65379W        W66243  25.290  15.708  19.425  0.2470 -0.0145  0.1716
65380W        W66244  22.524  11.796  22.511 -0.1955 -0.1110 -0.0957
65381W        W66245  23.489  14.931  20.717 -0.2088  0.0634  0.0778
65382W        W66246  25.458  11.087  20.020 -0.0039 -0.0759 -0.0714
65383W        W66247  23.491  13.698  22.630 -0.1487  0.4004 -0.1446
65384W        W66248  21.847  11.589  25.557 -0.0530  0.2429  0.1102
65385W        W66249  25.308  13.144  19.421 -0.0385 -0.0264  0.1290
65386W        W66250  25.934  11.173  21.893 -0.0471 -0.0230  0.0404
65387W        W66251  24.945  14.340  22.301  0.0365  0.0820  0.2600
65388W        W66252  25.660  16.132  18.086 -0.0712 -0.1254  0.0287
65389W        W66253  21.529  11.741  21.046  0.1134  0.2278  0.1187
65390W        W66254  25.113   9.406  19.196  0.1432  0.0306 -0.0527
65391W        W66255  23.370  13.243  19.489  0.0391  0.0259 -0.2003
65392W        W66256  25.464  13.894  18.927  0.0460 -0.0236  0.2426
65393W        W66257  25.584  14.086  24.121  0.2853 -0.3405 -0.1230
65394W        W66258  23.021  12.330  20.184  0.0414 -0.1071  0.1637
65395W        W66259  23.898  10.523  17.228  0.1236 -0.0291 -0.2214
65396W        W66260  27.828  14.531  21.829 -0.2647  0.0353  0.1250
65397W        W66261  26.779  14.714  20.141  0.1445 -0.3218  0.0289
65398W        W66262  24.218  11.149  19.945  0.1055  0.1530 -0.1745
65399W        W66263  25.855  13.903  20.504  0.1442  0.0091  0.0097
65400W        W66264  24.604  11.307  19.053  0.0372  0.2067  0.0631
65401W        W66265  22.396  13.410  20.753  0.0002 -0.0367  0.0800
65402W        W66266  24.881  12.982  18.718  0.3942 -0.0026 -0.0430
65403W        W66267  24.027  10.543  22.352  0.0139 -0.4946 -0.1322
65404W        W66268  27.765   9.823  19.879 -0.0687  0.0848  0.1339
65405W        W66269  20.781  10.571  18.964  0.0358 -0.0742 -0.0377
65406W        W66270  26.170  13.668  18.644 -0.0179  0.0424 -0.0366
65407W        W66271  23.374  10.815  20.230 -0.0668  0.0729 -0.3246
65408W        W66272  24.889  11.378  19.467  0.0983 -0.1289  0.0069
65409W        W66273  25.150  13.197  21.700  0.0339 -0.4547 -0.1988
65410W        W66274  21.878  13.518  23.335  0.0233  0.0329 -0.1155
65411W        W66275  25.060  13.044  22.253 -0.1332 -0.2919 -0.0255
65412W        W66276  25.626  13.106  23.161  0.5108 -0.0729  0.1270
65413W        W66277  24.944  11.685  22.075  0.0754 -0.1698 -0.0805
65414W        W66278  21.923  12.813  21.705 -0.2683 -0.1950  0.2402
65415W        W66279  24.182  13.870  20.250  0.3123  0.0523  0.0347
65416W        W66280  22.572  15.172  18.383  0.3650  0.0081 -0.1535
65417W        W66281  23.506  14.447  20.524 -0.1175  0.4547  0.4965
65418W        W66282  22.003  13.564  22.225  0.2200 -0.1057  0.2835
65419W        W66283  23.770  11.365  20.722 -0.0158  0.2182  0.0481
65420W        W66284  23.705  13.442  22.279  0.2054 -0.0017 -0.0210
65421W        W66285  24.220  13.702  22.422 -0.1009 -0.0540 -0.1167
65422W        W66286  22.869  14.797  17.169 -0.1152  0.1980  0.1585
65423W        W66287  24.080  10.174  20.064  0.5571  0.1081  0.1667
65424W        W66288  26.815   9.958  20.643 -0.4271 -0.0135 -0.0926
65425W        W66289  24.334  15.343  20.537 -0.0981  0.3655 -0.4157
65426W        W66290  23.501  12.950  21.939 -0.0809 -0.0014 -0.3002
65427W        W66291  23.537  15.787  18.153  0.2118 -0.0847 -0.2507
65428W        W66292  24.008  12.061  17.569  0.0534 -0.0256 -0.0671
65429W        W66293  26.403  13.941  17.804  0.2000  0.1559 -0.1419
65430W        W66294  24.495  11.805  17.785  0.0442  0.0204  0.1610
65431W        W66295  24.562  14.217  19.355  0.1078 -0.1082  0.0505
65432W        W66296  23.795  14.122  20.229  0.1007  0.0917 -0.2460
65433W        W66297  23.232  13.564  19.134 -0.1298  0.0905  0.0257
65434W        W66298  22.888  12.539  22.282  0.2027 -0.2728 -0.0203
65435W        W66299  25.465  11.313  17.865  0.1215  0.0470  0.0602
65436W        W66300  23.730  11.088  18.965  0.1801 -0.3949 -0.1762
65437W        W66301  22.586  15.275  20.773  0.1966  0.1406 -0.0362
65438W        W66302  22.356  16.097  20.295 -0.2077  0.1255  0.0482
65439W        W66303  22.651  12.045  19.989  0.1372  0.0434 -0.1139
65440W        W66304  23.899  13.923  18.861 -0.4464 -0.3688 -0.0473
65441W        W66305  22.653  12.945  24.464  0.0979 -0.1233  0.2929
65442W        W66306  22.642  13.401  21.746  0.3575 -0.1486  0.0865
65443W        W66307  23.038  11.876  21.553 -0.2319 -0.1038  0.0513
65444W        W66308  25.902  11.102  20.784 -0.1602 -0.1344  0.0540
65445W        W66309  26.507   9.604  17.655  0.0738 -0.1233 -0.2317
65446W        W66310  21.131  12.152  18.102 -0.3016 -0.0358 -0.0079
65447W        W66311  22.337  13.204  19.373  0.0925  0.0235 -0.2145
65448W        W66312  25.761  10.761  18.328 -0.1519  0.1887  0.0620
65449W        W66313  24.084  11.367  19.259  0.2553  0.1598  0.1045
65450W        W66314  25.464   9.984  19.919  0.2654 -0.0948 -0.4254
65451W        W66315  24.709  10.153  19.411  0.4670 -0.0888  0.1515
65452W        W66316  24.099  14.491  20.288  0.2195 -0.2195 -0.1739
65453W        W66317  23.058  11.825  20.167  0.1607  0.0235 -0.2083
65454W        W66318  22.282  10.577  17.628 -0.0566  0.3406  0.1849
65455W        W66319  19.851  15.316  23.122 -0.1094 -0.1314  0.0571
65456W        W66320  26.333  15.016  21.548  0.2540 -0.0288 -0.0413
65457W        W66321  26.895  11.771  17.418 -0.0912  0.3458  0.2086
65458W        W66322  20.237  13.182  20.038  0.0850 -0.0625 -0.1598
65459W        W66323  22.358  14.115  21.300  0.3209 -0.4128  0.1834
65460W        W66324  23.302  11.781  21.159 -0.2558 -0.2503 -0.0569
65461W        W66325  23.816  12.526  21.887  0.1516 -0.2485  0.2257
65462W        W66326  27.530  11.630  21.703  0.0643  0.0452 -0.0318
65463W        W66327  25.556  13.961  21.987  0.1310  0.3393 -0.3138
65464W        W66328  27.156  11.931  21.269 -0.1334  0.2691  0.0030
65465W        W66329  26.934  14.795  19.689 -0.1301 -0.1147 -0.0830
65466W        W66330  25.185  13.824  16.877  0.1994 -0.1568  0.2075
65467W        W66331  24.363  12.194  20.806 -0.0468 -0.2311 -0.0106
65468W        W66332  21.957  12.147  23.655  0.1278  0.1049 -0.1553
65469W        W66333  26.690  11.315  21.846 -0.3492  0.0316 -0.1081
65470W        W66334  26.439  14.926  18.785 -0.3281 -0.0294  0.0418
65471W        W66335  23.533  15.983  21.358  0.2239  0.1348 -0.2195
65472W        W66336  24.845  12.220  18.958 -0.2759  0.0756 -0.0905
65473W        W66337  25.230  14.278  18.005 -0.2954  0.1187  0.0359
65474W        W66338  23.401  11.681  21.916 -0.2496  0.0975 -0.1986
65475W        W66339  24.661  15.712  20.244 -0.1107 -0.0895  0.0975
65476W        W66340  25.412  11.888  21.970 -0.0885 -0.1446 -0.0401
65477W        W66341  25.956  16.018  19.173 -0.0672  0.0085 -0.1298
65478W        W66342  23.914  11.858  20.536 -0.0245 -0.0302 -0.0023
65479W        W66343  22.908  13.423  20.868 -0.1757 -0.0718 -0.5431
65480W        W66344  24.382  14.158  23.985 -0.0653 -0.0150  0.2140
65481W        W66345  23.093  17.650  17.828  0.0746  0.0750 -0.0114
65482W        W66346  26.912  13.288  21.051 -0.3742  0.4294 -0.1489
65483W        W66347  22.072  11.448  24.294 -0.1000 -0.0371 -0.2770
65484W        W66348  22.366  14.038  20.238  0.2487  0.0397 -0.1602
65485W        W66349  26.488  12.835  19.744 -0.2393  0.0409 -0.0030
65486W        W66350  26.782  12.162  23.801  0.2577 -0.1061  0.1891
65487W        W66351  24.886  14.010  21.487 -0.0872  0.0108 -0.0980
65488W        W66352  25.976  12.927  19.603 -0.5815  0.0412 -0.1444
65489W        W66353  24.017  12.961  18.386 -0.0820  0.1550 -0.3569
65490W        W66354  20.827  14.713  20.123  0.0482  0.0457 -0.0233
65491W        W66355  22.421  12.435  19.683 -0.4278  0.0961  0.0532
65492W        W66356  24.647  13.951  18.762  0.0908  0.0078 -0.1482
65493W        W66357  22.741  11.142  20.774 -0.3536 -0.0476  0.2109
65494W        W66358  24.325  14.723  20.775  0.1375  0.0865 -0.2451
65495W        W66359  26.563  13.575  20.106 -0.1187  0.0108 -0.1591
65496W        W66360  22.624  15.634  23.752 -0.1776  0.1821  0.0815
65497W        W66361  25.295  14.434  19.826  0.0156  0.1786 -0.2266
65498W        W66362  22.686  12.688  20.149 -0.1325  0.3097 -0.1923
65499W        W66363  21.861  13.965  22.513 -0.0548 -0.0347  0.4520
65500W        W66364  25.725  16.937  20.195  0.1762 -0.4441 -0.0114
65501W        W66365  20.800  16.144  21.829 -0.1506 -0.1231 -0.0920
65502W        W66366  24.927  13.990  20.941 -0.3013 -0.1066 -0.0313
65503W        W66367  23.109  12.877  21.219  0.0335  0.2901 -0.0290
65504W        W66368  25.783  13.390  19.573  0.2548 -0.2627  0.0525
65505W        W66369  23.361  10.743  15.274  0.0488 -0.0990  0.2594
65506W        W66370  21.388  10.927  20.365 -0.3009  0.0936  0.0629
65507W        W66371  24.063  14.022  19.424  0.0529  0.1123  0.2735
65508W        W66372  28.523  12.759  20.542 -0.2597  0.1791 -0.1273
65509W        W66373  21.936  10.050  20.536 -0.1527  0.2844  0.3394
65510W        W66374  23.957  11.574  21.997 -0.1761  0.0713 -0.0953
65511W        W66375  22.643  16.009  21.339  0.1555 -0.2401 -0.2331
65512W        W66376  22.310  12.133  22.261  0.1239 -0.2146  0.1322
65513W        W66377  22.704  15.525  21.245  0.4973  0.0417  0.1482
65514W        W66378  21.506  15.386  22.840  0.3131  0.2025  0.1015
65515W        W66379  22.320  14.638  19.945  0.1996  0.0585  0.1847
65516W        W66380  25.179  12.618  19.210 -0.1521 -0.1036  0.0662
65517W        W66381  21.112  11.049  21.549 -0.0987 -0.1517 -0.0159
65518W        W66382  24.518  13.522  20.321 -0.1356  0.2387  0.1863
65519W        W66383  25.073  12.734  20.421  0.0528 -0.3654  0.2674
65520W        W66384  27.776  14.784  23.493  0.0548  0.1790  0.0599
65521W        W66385  25.349  15.344  21.541  0.2444  0.0800  0.0496
65522W        W66386  22.797  13.563  22.661 -0.0261  0.0407  0.4578
65523W        W66387  24.329  12.651  21.819 -0.0457 -0.0734 -0.2556
65524W        W66388  26.469  12.364  20.084  0.2042  0.0483  0.2000
65525W        W66389  20.668  11.237  21.158 -0.3637  0.0039  0.0266
65526W        W66390  22.292  13.071  18.222 -0.0783 -0.0116  0.3079
65527W        W66391  21.341  10.956  17.491  0.0735  0.0806  0.2532
65528W        W66392  21.923  11.612  20.678 -0.1374 -0.1135 -0.0188
65529W        W66393  24.546  16.164  20.325 -0.3414  0.5077  0.1612
65530W        W66394  24.332  11.589  18.332 -0.1870  0.0334  0.4135
65531W        W66395  19.966  12.110  19.367 -0.0039 -0.0646 -0.1461
65532W        W66396  20.444  17.299  20.791 -0.0670  0.3444 -0.0936
65533W        W66397  26.243  12.361  17.872 -0.4869 -0.0499  0.0606
65534W        W66398  24.956  12.568  21.120 -0.0307 -0.0921  0.1057
65535W        W66399  24.337  12.927  19.677  0.2179  0.0317  0.0481
65536W        W66400  21.604  13.139  23.022 -0.0185  0.1317 -0.2442
65537W        W66401  23.035  11.405  17.860 -0.2118 -0.0037  0.1609
65538W        W66402  24.254  13.543  18.772 -0.1325 -0.0825  0.0050
65539W        W66403  22.069  13.898  18.381 -0.0773  0.0074  0.0109
65540W        W66404  23.059   9.162  18.147 -0.0551  0.1124  0.1864
65541W        W66405  23.678   9.446  20.332  0.1092  0.2519  0.5051
65542W        W66406  23.240  12.271  19.305  0.0611 -0.4295 -0.0778
65543W        W66407  22.072  14.344  20.985 -0.3155 -0.0416  0.3666
65544W        W66408  26.809  10.946  19.332  0.1619 -0.2754 -0.2115
65545W        W66409  22.720  13.498  20.322 -0.0292 -0.0062 -0.2227
65546W        W66410  24.823  13.445  20.786 -0.1809  0.1447  0.0139
65547W        W66411  28.659  10.833  18.646  0.0498 -0.0299  0.1599
65548W        W66412  22.224  14.894  18.151  0.2159  0.1654  0.0474
65549W        W66413  24.845  13.527  19.539  0.0545  0.0147 -0.1277
65550W        W66414  23.828  12.947  23.538  0.2070  0.1408  0.2136
65551W        W66415  22.129  14.716  23.711  0.2564 -0.0045 -0.1782
65552W        W66416  29.137  14.822  17.996 -0.0400  0.0401  0.3121
65553W        W66417  26.095  11.728  19.703 -0.0208 -0.1837  0.1623
65554W        W66418  26.300  14.934  22.415 -0.1550  0.1538  0.2226
65555W        W66419  25.760  15.279  22.472 -0.2604 -0.0188 -0.0527
65556W        W66420  24.704  12.735  19.125  0.1971 -0.0241 -0.0623
65557W        W66421  24.287  12.068  20.332  0.0130 -0.1679  0.0438
65558W        W66422  19.119  14.487  19.198 -0.5418  0.0968  0.2268
65559W        W66423  24.921  10.009  20.208 -0.0626  0.0053 -0.2216
65560W        W66424  21.837  13.234  19.789  0.0120 -0.1343 -0.0787
65561W        W66425  24.096  11.967  19.501 -0.0695  0.1441  0.0318
65562W        W66426  23.955  14.138  21.198 -0.2970  0.0323 -0.1283
65563W        W66427  22.246  12.129  21.291 -0.3300 -0.1271  0.0138
65564W        W66428  22.837  14.002  22.396  0.1978 -0.0185 -0.0862
65565W        W66429  25.613  12.370  19.403 -0.0778  0.1135  0.0001
65566W        W66430  24.486  12.012  19.856  0.0084 -0.0796  0.0615
65567W        W66431  24.038  15.817  21.378  0.1234  0.3173 -0.1228
65568W        W66432  23.573  13.270  19.953  0.1686 -0.2394 -0.0763
65569W        W66433  22.301  13.102  18.880  0.1505  0.1399  0.2159
65570W        W66434  27.352  13.664  18.875 -0.1608  0.1240  0.0196
65571W        W66435  23.316  10.908  22.528 -0.1811 -0.0506 -0.2637
65572W        W66436  22.664  12.864  21.052 -0.2547 -0.0936 -0.1528
65573W        W66437  24.369  15.059  21.136  0.3899  0.0894 -0.1379
65574W        W66438  22.007  12.664  21.140  0.1242 -0.2418 -0.1756
65575W        W66439  22.975  10.579  18.669  0.0530 -0.2291 -0.0128
65576W        W66440  19.760  11.746  16.852 -0.0725 -0.0985 -0.1934
65577W        W66441  26.789  13.919  18.824 -0.0969 -0.1249 -0.0967
65578W        W66442  23.361  12.568  18.900  0.2614  0.0154  0.4362
65579W        W66443  25.452  10.451  22.372  0.1859  0.0110 -0.0437
65580W        W66444  22.555  13.379  15.925  0.1601 -0.2115  0.1333
65581W        W66445  26.769  13.551  20.665  0.1350 -0.0429 -0.1452
65582W        W66446  23.041  11.326  21.520  0.2020 -0.2369  0.1130
65583W        W66447  25.685  14.534  21.245  0.0295  0.0790  0.0278
65584W        W66448  28.160  15.022  21.831 -0.0977 -0.0142 -0.1789
65585W        W66449  22.107  15.700  21.887 -0.0258 -0.0736  0.1797
65586W        W66450  26.163  13.265  19.260 -0.3531  0.0100  0.2901
65587W        W66451  24.373  13.219  21.475 -0.0504 -0.1347  0.1354
65588W        W66452  27.072  11.414  19.484  0.0904  0.3354  0.1927
65589W        W66453  20.503  15.533  20.487 -0.0125 -0.1100 -0.1223
65590W        W66454  23.732  12.231  20.888  0.0321 -0.2582  0.0388
65591W        W66455  24.844  11.019  19.821  0.0620 -0.0513 -0.0620
65592W        W66456  22.649  12.726  17.980 -0.0972  0.1009  0.2075
65593W        W66457  21.722  15.984  22.167 -0.0937 -0.1219  0.0509
65594W        W66458  22.617  15.520  21.703 -0.2364 -0.1773 -0.1835
65595W        W66459  23.853  12.544  17.912 -0.0541  0.0321 -0.0662
65596W        W66460  20.307  11.588  20.806 -0.3160  0.0707  0.2022
65597W        W66461  23.608  13.979  19.497  0.3040 -0.0548 -0.1053
65598W        W66462  23.711  10.307  16.428  0.0871  0.0289 -0.1337
65599W        W66463  22.714  13.863  21.580 -0.1139 -0.0510 -0.2553
65600W        W66464  28.022   9.187  18.642  0.1623  0.1505  0.0814
65601W        W66465  28.186  14.554  19.736 -0.2793  0.0436  0.0911
65602W        W66466  25.553  14.413  18.943  0.1561  0.0822 -0.1977
65603W        W66467  25.005  16.013  18.890 -0.0281  0.2567  0.0369
65604W        W66468  24.156  10.201  19.524  0.3698  0.1391  0.2302
65605W        W66469  23.007  14.759  20.672  0.0470  0.2109  0.0075
65606W        W66470  22.151  10.477  20.726  0.0597  0.2321  0.0280
65607W        W66471  25.099  12.165  22.919  0.1314  0.0108 -0.0069
65608W        W66472  22.188  12.589  18.746  0.0700 -0.1789 -0.0827
65609W        W66473  22.761  14.903  19.919 -0.0857  0.0105 -0.2725
65610W        W66474  25.794  12.175  21.536 -0.2444  0.0837 -0.0028
65611W        W66475  22.114  13.079  17.738  0.2749  0.0126 -0.1884
65612W        W66476  25.416   9.663  21.118  0.2924 -0.0386  0.0015
65613W        W66477  22.612  14.383  20.777 -0.2232 -0.1177  0.0619
65614W        W66478  26.730  13.976  20.377  0.3637  0.0851 -0.1206
65615W        W66479  21.644  12.468  20.843  0.0523 -0.2201 -0.0545
65616W        W66480  28.502  15.591  18.145  0.3122  0.2172 -0.1981
65617W        W66481  26.230  12.913  18.898 -0.0290 -0.1752  0.0929
65618W        W66482  25.508  11.550  17.055  0.0290 -0.0154  0.3501
65619W        W66483  24.193  12.693  20.912 -0.1560 -0.0475 -0.3199
65620W        W66484  25.867   9.123  20.420  0.0733 -0.1485 -0.0784
65621W        W66485  23.028  14.023  18.594  0.0786  0.2367  0.2455
65622W        W66486  23.273  14.646  22.840 -0.1602 -0.2146  0.0100
65623W        W66487  24.437  14.300  18.004  0.1401 -0.0137  0.0241
65624W        W66488  21.896  13.209  20.445  0.2506  0.1565 -0.1235
65625W        W66489  21.067  11.720  20.832  0.1940 -0.0650  0.1261
65626W        W66490  27.130  14.473  20.416 -0.4014  0.1394  0.1448
65627W        W66491  26.501  14.344  24.218 -0.2167 -0.0764 -0.0797
65628W        W66492  21.427  13.013  20.083 -0.0269 -0.1518 -0.1014
65629W        W66493  23.061  15.556  22.478 -0.5338  0.0374 -0.3759
65630W        W66494  24.096  13.389  20.094 -0.0553 -0.1294 -0.0537
65631W        W66495  24.379  13.700  19.669 -0.0103  0.0293 -0.1796
65632W        W66496  25.268  13.840  19.884  0.0435  0.2034 -0.1505
65633W        W66497  23.086  15.210  22.068  0.1601  0.0283  0.1184
65634W        W66498  26.600  11.425  21.350  0.0563 -0.1436 -0.0594
65635W        W66499  25.724  11.471  20.521 -0.6224  0.0374  0.1590
65636W        W66500  22.338  13.803  22.624  0.1258  0.2334  0.1928
65637W        W66501  24.108  14.219  20.750  0.0651 -0.1410 -0.1482
65638W        W66502  26.059  13.063  20.818 -0.0422 -0.1346  0.4247
65639W        W66503  24.535  14.415  21.979 -0.1561  0.2857  0.2762
65640W        W66504  23.131  14.566  19.049 -0.2615  0.2308 -0.2205
65641W        W66505  27.474  14.180  19.056  0.0778  0.0042  0.2385
65642W        W66506  23.765  12.950  20.321  0.2064  0.3840  0.1663
65643W        W66507  19.571  14.296  19.058 -0.3096 -0.1015  0.0037
65644W        W66508  24.928  12.303  20.687  0.0367 -0.0773 -0.1476
65645W        W66509  24.146  14.581  21.212  0.0642  0.1672 -0.3222
65646W        W66510  24.285  13.627  23.216  0.1897  0.0915  0.2451
65647W        W66511  24.650  14.527  21.403 -0.1967  0.3403 -0.3156
65648W        W66512  24.045  12.162  18.600  0.0313 -0.0706  0.0460
65649W        W66513  18.271  14.608  24.383 -0.0548 -0.0101  0.0132
65650W        W66514  22.866  15.200  24.082 -0.1566 -0.2294 -0.1733
65651W        W66515  27.478  11.729  20.684  0.2615 -0.0765 -0.0615
65652W        W66516  24.513  15.258  25.879 -0.1024  0.2484  0.0678
65653W        W66517  23.359  15.337  23.520 -0.3026  0.2688  0.1520
65654W        W66518  22.168  11.687  19.910  0.1373 -0.0352 -0.1036
65655W        W66519  23.126  13.283  21.829 -0.1352  0.1739  0.1051
65656W        W66520  22.931  13.237  23.844  0.2140  0.0122  0.2118
65657W        W66521  19.260  12.563  24.855  0.0548  0.0318  0.1148
65658W        W66522  20.975  11.877  25.493  0.2267  0.2950 -0.2007
65659W        W66523  20.187  10.451  23.682 -0.0698 -0.1781  0.0132
65660W        W66524  23.932  10.888  20.614  0.1936 -0.1499  0.1415
65661W        W66525  24.902  13.056  21.292  0.2326  0.1119  0.2452
65662W        W66526  24.138  11.422  25.561 -0.0824  0.1432 -0.4195
65663W        W66527  19.667  13.043  22.975 -0.0796  0.0731 -0.1341
65664W        W66528  22.361  14.478  26.521 -0.2902  0.1115 -0.2434
65665W        W66529  22.703  16.981  21.893  0.1687 -0.1085 -0.1792
65666W        W66530  23.166  10.803  24.134  0.1817  0.0009 -0.1134
65667W        W66531  23.653  12.976  25.730  0.0917  0.1620 -0.1603
65668W        W66532  28.174  14.215  22.888  0.1919  0.0265 -0.1875
65669W        W66533  26.252  16.148  24.741 -0.0211 -0.1416 -0.1823
65670W        W66534  23.565  11.347  22.242 -0.2734 -0.3355  0.2807
65671W        W66535  24.900  15.831  24.224 -0.1445 -0.0461  0.0763
65672W        W66536  23.998  13.884  22.886 -0.1443 -0.0739  0.1016
65673W        W66537  21.470  14.191  25.182  0.1349  0.2455  0.0183
65674W        W66538  23.385  10.209  25.626 -0.1869 -0.0530  0.0855
65675W        W66539  25.469  12.711  25.206 -0.1578 -0.0380  0.1733
65676W        W66540  22.247  14.642  25.328 -0.0773 -0.0191 -0.1209
65677W        W66541  24.464  12.360  25.466  0.3854 -0.0837  0.0634
65678W        W66542  23.169  11.689  25.166 -0.0761  0.0091  0.1753
65679W        W66543  25.253  11.162  23.452  0.2262 -0.0755 -0.1219
65680W        W66544  22.063  14.477  25.771 -0.0457 -0.0413 -0.0161
65681W        W66545  22.832  14.018  26.316  0.1783 -0.1523  0.1071
65682W        W66546  23.837  14.717  27.562 -0.0844 -0.3238  0.3845
65683W        W66547  21.737  12.904  27.148  0.2671 -0.0234 -0.2101
65684W        W66548  23.429  14.124  24.295 -0.4181 -0.0375  0.0689
65685W        W66549  21.142  12.145  22.300 -0.0601  0.0794 -0.1097
65686W        W66550  23.494  14.952  21.658  0.0315  0.0051  0.1842
65687W        W66551  24.238  13.186  22.394  0.2146  0.1581  0.0625
65688W        W66552  24.088  11.519  24.603 -0.2670  0.2832 -0.0192
65689W        W66553  27.998  13.507  24.670 -0.2212  0.1058  0.3804
65690W        W66554  22.905  10.355  25.128 -0.0364 -0.0363 -0.0954
65691W        W66555  24.481  15.780  24.984 -0.2585 -0.0303  0.0310
65692W        W66556  26.047  12.922  23.776  0.1725 -0.0604 -0.3050
65693W        W66557  22.319  14.094  22.243  0.4633  0.2519 -0.1387
65694W        W66558  22.874  16.226  22.294 -0.2236 -0.2795  0.1250
65695W        W66559  20.040  10.163  24.222 -0.3473 -0.2693 -0.0159
65696W        W66560  24.803  13.621  25.262  0.0064 -0.1260 -0.2506
65697W        W66561  23.916  12.888  23.036 -0.1544  0.2669 -0.2055
65698W        W66562  27.182  10.227  22.339  0.1666 -0.1585  0.1325
65699W        W66563  24.665  12.849  25.325  0.3000 -0.0959 -0.0950
65700W        W66564  24.162  11.927  24.225  0.0918  0.1201 -0.0255
65701W        W66565  25.525  16.649  23.785  0.1308 -0.0075 -0.1635
65702W        W66566  25.558  10.140  21.145  0.3047  0.2112 -0.0551
65703W        W66567  24.714   9.208  22.676  0.1499 -0.0704 -0.1719
65704W        W66568  21.120  14.990  21.194 -0.2719 -0.0844 -0.2512
65705W        W66569  21.535  11.106  22.399 -0.0915 -0.0933  0.1087
65706W        W66570  25.069  11.654  22.885  0.0673  0.0993 -0.0057
65707W        W66571  22.488  13.934  24.455 -0.2201 -0.3240  0.0850
65708W        W66572  24.446  14.869  21.659  0.0461 -0.0584 -0.2899
65709W        W66573  26.107  11.947  21.233  0.1240  0.0819  0.1378
65710W        W66574  22.208  14.415  24.127 -0.0573 -0.2339  0.0292
65711W        W66575  23.271  16.218  26.252 -0.1167 -0.2048 -0.4770
65712W        W66576  24.426  13.052  23.097 -0.0072  0.1723  0.0430
65713W        W66577  23.870  12.884  24.788  0.1299 -0.1019 -0.0683
65714W        W66578  27.221  13.786  21.666 -0.1458 -0.3869 -0.2823
65715W        W66579  24.857  11.891  21.638  0.1257  0.0679 -0.0562
65716W        W66580  23.571  12.608  22.772 -0.2349 -0.0610  0.3930
65717W        W66581  21.703  12.094  22.468  0.0533  0.1360 -0.1782
65718W        W66582  24.664  12.276  22.043 -0.0380 -0.2379  0.0582
65719W        W66583  21.645  12.513  26.513 -0.0155 -0.1756 -0.1896
65720W        W66584  24.909  10.475  20.521 -0.2869  0.1176 -0.0065
65721W        W66585  26.604  14.195  25.512 -0.2111  0.0264  0.1250
65722W        W66586  24.859  11.752  24.045 -0.0153  0.0875 -0.1111
65723W        W66587  26.703  12.711  26.310  0.1238 -0.2098  0.0491
65724W        W66588  20.841  12.938  24.048 -0.1522  0.0825 -0.0315
65725W        W66589  21.901  12.649  20.452  0.1871 -0.3648  0.0233
65726W        W66590  26.360  10.708  24.432  0.2192 -0.5609 -0.0493
65727W        W66591  26.292  13.972  24.724  0.0409 -0.2516  0.2729
65728W        W66592  20.936  12.085  23.768  0.1190  0.3169  0.1752
65729W        W66593  22.560  12.935  23.907 -0.0625 -0.0825 -0.0001
65730W        W66594  23.011  16.158  24.418 -0.0821  0.0027  0.2419
65731W        W66595  19.780  10.336  21.167  0.0565  0.3366 -0.4295
65732W        W66596  24.712  13.293  24.860  0.2826 -0.0729 -0.1654
65733W        W66597  23.830   8.623  25.119 -0.0231 -0.0420  0.2834
65734W        W66598  25.310  11.609  23.716  0.0978 -0.0008 -0.1598
65735W        W66599  26.390  14.075  26.096  0.1752 -0.4998  0.1920
65736W        W66600  23.256  11.088  25.799 -0.0695  0.1828 -0.2845
65737W        W66601  24.767  10.887  26.196 -0.0772  0.0311  0.2100
65738W        W66602  26.618  11.325  23.248  0.1912  0.1395  0.1128
65739W        W66603  25.745  13.291  24.601 -0.2043 -0.0459 -0.2313
65740W        W66604  25.092  13.815  27.227  0.1694 -0.0916 -0.2046
65741W        W66605  22.110  12.305  22.666  0.0298 -0.0699  0.1202
65742W        W66606  24.358  13.004  20.272  0.1738  0.1327 -0.3852
65743W        W66607  20.423   8.824  20.578  0.1457  0.0442 -0.5766
65744W        W66608  25.312  14.690  24.518  0.0240  0.0032  0.0973
65745W        W66609  27.127  13.543  24.066  0.0504  0.2083 -0.0954
65746W        W66610  24.081  14.743  24.602  0.1344 -0.0864 -0.1943
65747W        W66611  22.168  10.911  21.661 -0.0246  0.0003  0.3149
65748W        W66612  23.645  14.272  22.861  0.2886  0.1906  0.1739
65749W        W66613  25.101  13.587  21.201 -0.1016 -0.0938  0.4543
65750W        W66614  23.128  13.219  24.426 -0.0201  0.0542 -0.2640
65751W        W66615  23.585  11.264  18.456  0.0481 -0.2899 -0.0405
65752W        W66616  25.560  13.170  25.037  0.2409 -0.0086  0.0608
65753W        W66617  24.678  10.897  28.137 -0.0464 -0.3710 -0.1809
65754W        W66618  24.078  13.255  25.840 -0.0358 -0.1973 -0.2386
65755W        W66619  24.422  13.151  24.460 -0.2764  0.0302 -0.1649
65756W        W66620  23.879  13.697  27.502  0.0248  0.0513 -0.2498
65757W        W66621  25.398  12.821  24.701  0.0046  0.1075 -0.0479
65758W        W66622  25.135  11.011  22.972  0.1371  0.0253  0.2872
65759W        W66623  21.883  12.076  24.709 -0.0237  0.3148  0.1668
65760W        W66624  24.337  15.115  23.109  0.0140  0.1031 -0.3002
65761W        W66625  24.782  10.899  24.342 -0.0584  0.0618 -0.0275
65762W        W66626  21.465  15.006  25.325  0.0619  0.0883  0.0603
65763W        W66627  23.317  13.354  20.418  0.1608 -0.2612  0.0430
65764W        W66628  24.339   9.621  22.744 -0.0513  0.1496 -0.2464
65765W        W66629  25.531  11.559  26.234  0.1075  0.3532 -0.1144
65766W        W66630  24.274  15.760  23.836  0.0594  0.0680  0.0760
65767W        W66631  22.893  11.219  22.710  0.1680 -0.3373 -0.0429
65768W        W66632  24.625  14.572  24.180  0.1757 -0.0548  0.1973
65769W        W66633  26.867  13.246  22.980 -0.0492 -0.1558 -0.0371
65770W        W66634  24.871  14.108  24.250 -0.1151  0.1170  0.3967
65771W        W66635  25.121  13.875  23.420  0.0326  0.2707 -0.0760
65772W        W66636  25.672  13.669  23.255 -0.1227 -0.0811  0.2708
65773W        W66637  23.334  11.656  23.652  0.0816  0.1931  0.0686
65774W        W66638  27.051  12.967  23.310  0.1259  0.0406 -0.1173
65775W        W66639  21.124  11.662  22.418 -0.1112  0.0915 -0.1819
65776W        W66640  24.469  13.728  24.252 -0.0572 -0.0897  0.0565
65777W        W66641  26.229  13.644  25.769 -0.0257 -0.2329  0.0915
65778W        W66642  21.660  15.041  21.854 -0.0982  0.2337  0.2767
65779W        W66643  23.607  15.618  25.538  0.2464  0.1135  0.0271
65780W        W66644  26.255  13.448  26.227 -0.0937  0.1888  0.1512
65781W        W66645  22.096  13.000  24.653 -0.2402 -0.2264 -0.2674
65782W        W66646  25.651  13.502  22.780  0.1346  0.2649  0.5108
65783W        W66647  24.534  16.066  22.756 -0.3701  0.2473 -0.1989
65784W        W66648  20.734  13.136  25.078  0.5037 -0.0861 -0.1951
65785W        W66649  23.739  10.474  20.371 -0.1940 -0.1823 -0.1105
65786W        W66650  23.331  15.492  26.565 -0.1367  0.1673  0.2014
65787W        W66651  26.269  12.329  21.462  0.2289  0.1349 -0.6286
65788W        W66652  22.259  14.317  21.789 -0.0319  0.0964 -0.0840
65789W        W66653  20.476  13.952  22.016  0.1286 -0.1164  0.0728
65790W        W66654  22.195   7.559  24.644 -0.0090 -0.0528 -0.0849
65791W        W66655  23.702  13.707  23.665 -0.0042 -0.0984  0.1598
65792W        W66656  20.124  13.048  23.458 -0.2560  0.0568 -0.1022
65793W        W66657  23.330  13.684  26.886  0.0298 -0.0279  0.1747
65794W        W66658  23.991  10.031  22.501  0.0385 -0.1221  0.0780
65795W        W66659  23.198  10.524  23.688 -0.0551  0.0938 -0.3964
65796W        W66660  24.911  15.042  24.766 -0.0383 -0.1808  0.1986
65797W        W66661  22.602  13.689  23.659  0.4170 -0.1092 -0.0963
65798W        W66662  24.150  11.584  23.316 -0.0727 -0.1729 -0.0395
65799W        W66663  25.657  14.089  24.723 -0.2848 -0.2991  0.1241
65800W        W66664  21.495  12.093  23.844  0.0826 -0.0357 -0.1077
65801W        W66665  25.553  13.204  25.643  0.2092  0.1280 -0.0524
65802W        W66666  26.983  10.465  20.818 -0.3990 -0.0275  0.1209
65803W        W66667  20.973  11.731  24.567  0.0805 -0.3069  0.3343
65804W        W66668  23.840  14.474  22.424 -0.1898 -0.1316 -0.0037
65805W        W66669  24.086  15.307  27.003  0.0593  0.1289 -0.1397
65806W        W66670  24.541  12.758  21.369 -0.1143 -0.2129  0.1426
65807W        W66671  24.073  11.821  22.820  0.0247 -0.1252 -0.1593
65808W        W66672  20.600  11.925  22.397 -0.0039 -0.1116 -0.1108
65809W        W66673  22.341  11.846  24.485  0.3006 -0.0974 -0.0756
65810W        W66674  22.235  13.007  27.060  0.0050  0.1639  0.0723
65811W        W66675  22.153  14.655  24.557  0.0560  0.0402  0.0835
65812W        W66676  24.347  16.205  24.746 -0.0150 -0.2367 -0.1426
65813W        W66677  23.846  10.546  26.827 -0.0174 -0.2444 -0.2422
65814W        W66678  24.413   9.347  24.946 -0.2271  0.1394  0.0574
65815W        W66679  20.725  11.499  22.085  0.1986  0.2222  0.3886
65816W        W66680  24.090  13.748  24.551  0.0198  0.2382 -0.1533
65817W        W66681  21.755  15.694  26.942  0.1598 -0.1842  0.0408
65818W        W66682  24.862  14.547  24.578 -0.0755 -0.0756  0.1223
65819W        W66683  26.010  12.754  23.163 -0.0060  0.1516 -0.0889
65820W        W66684  26.811  13.246  23.704  0.1703  0.0059  0.2071
65821W        W66685  24.044  13.447  23.945  0.0925 -0.0133  0.0280
65822W        W66686  25.324  12.308  24.750 -0.2179  0.1610  0.1317
65823W        W66687  24.488  11.743  20.949 -0.2195  0.0045  0.2165
65824W        W66688  24.875  13.878  22.957  0.1112  0.1517 -0.1728
65825W        W66689  21.694  15.896  24.735 -0.1954  0.2873  0.2686
65826W        W66690  23.670  11.745  25.079 -0.0769 -0.2230  0.0240
65827W        W66691  22.380  13.561  23.093  0.2205  0.0759 -0.1497
65828W        W66692  25.769  12.815  24.371  0.2470  0.0364 -0.1033
65829W        W66693  25.535  14.996  23.427 -0.1163  0.2007  0.2488
65830W        W66694  23.667  15.624  21.095  0.4192  0.2591  0.2195
65831W        W66695  24.539  14.703  24.860  0.0614 -0.1154  0.2685
65832W        W66696  25.492  13.315  24.173  0.1191 -0.1375  0.1496
65833W        W66697  24.562  12.190  23.415 -0.0755  0.2536 -0.1725
65834W        W66698  22.068  16.212  24.219 -0.0674  0.1430  0.1886
65835W        W66699  25.228  11.561  21.578  0.1538 -0.2165  0.0181
65836W        W66700  21.672   9.679  23.375 -0.2020 -0.0425  0.1811
65837W        W66701  22.143  13.523  24.652 -0.1459  0.0263  0.1266
65838W        W66702  22.169  12.609  24.364  0.1126 -0.1277 -0.0086
65839W        W66703  23.028  13.963  24.516 -0.5651  0.3441 -0.0074
65840W        W66704  21.123  13.792  23.723 -0.1579 -0.1289 -0.2482
65841W        W66705  22.748  13.333  25.777 -0.0198 -0.1091 -0.0813
65842W        W66706  22.281  12.472  23.907 -0.0152  0.0861  0.7376
65843W        W66707  23.649  10.374  27.780  0.0865 -0.1828 -0.2209
65844W        W66708  23.368   8.709  22.957  0.0373 -0.2500  0.1053
65845W        W66709  23.130  11.200  23.631 -0.1379  0.2258  0.3018
65846W        W66710  22.362   8.559  23.955 -0.0407  0.0105 -0.1833
65847W        W66711  21.899  14.366  26.309 -0.1457  0.1570 -0.2389
65848W        W66712  26.077  11.563  24.938  0.1794  0.0454  0.2764
65849W        W66713  24.359  10.917  22.434  0.1861 -0.1605  0.2860
65850W        W66714  24.156   9.152  22.672  0.0718 -0.0144  0.0348
65851W        W66715  23.062  10.783  21.061  0.0153 -0.1680 -0.0926
65852W        W66716  23.672   9.226  22.993 -0.1749  0.0161  0.2672
65853W        W66717  22.739  13.944  20.545 -0.0060 -0.1347  0.1043
65854W        W66718  22.593  10.590  20.947  0.3378 -0.0080  0.1044
65855W        W66719  23.113  13.622  25.477  0.2568  0.2362  0.2383
65856W        W66720  24.004  14.020  23.418 -0.1251 -0.0369  0.0387
65857W        W66721  23.868  15.960  22.311  0.0091  0.4870  0.0829
65858W        W66722  20.748  11.003  21.876 -0.2932 -0.1616 -0.0892
65859W        W66723  22.861  11.904  22.860 -0.0186 -0.1954  0.0784
65860W        W66724  23.509  13.637  24.446  0.0165 -0.0929  0.3645
65861W        W66725  25.397  11.973  23.378  0.1111  0.3538  0.3816
65862W        W66726  23.579  12.149  23.591 -0.0627 -0.0887 -0.1678
65863W        W66727  22.768  11.942  25.430  0.2511  0.0978  0.2885
65864W        W66728   0.131  13.046  21.980  0.0837 -0.0606  0.0014
65865W        W66729  23.526  10.507  21.678 -0.3594  0.0648  0.4307
65866W        W66730  24.807  13.568  21.689  0.2445 -0.2361  0.1709
65867W        W66731  24.425  12.382  24.842 -0.0420  0.2905  0.1688
65868W        W66732  21.002  12.948  23.566 -0.0477  0.0013 -0.3284
65869W        W66733  23.962  12.316  26.162 -0.1822  0.1228  0.0728
65870W        W66734  24.329  13.444  21.952 -0.0297  0.0576 -0.4187
65871W        W66735  22.584  14.389  24.466 -0.3370  0.2681 -0.2212
65872W        W66736  24.206  12.430  19.505  0.0559 -0.0338  0.1045
65873W        W66737  23.916  11.778  23.690  0.0972  0.0920  0.0837
65874W        W66738  21.360  11.487  25.454  0.0728 -0.0246 -0.0612
65875W        W66739  25.560  12.886  23.895  0.2706 -0.1728  0.1732
65876W        W66740  25.520  12.383  21.893 -0.2978  0.2334 -0.1993
65877W        W66741  26.258  16.425  20.627 -0.2801 -0.1368  0.1289
65878W        W66742  24.298  13.681  26.754 -0.0195  0.1468 -0.1028
65879W        W66743  21.733  11.073  22.962 -0.1109  0.1791 -0.1271
65880W        W66744  24.675  12.730  24.344  0.2080 -0.4211  0.3489
65881W        W66745  21.691  13.220  21.888 -0.0599 -0.0210 -0.2983
65882W        W66746  26.243  14.960  25.648  0.1417 -0.1823  0.4730
65883W        W66747  20.728  14.015  25.923  0.1420 -0.1015  0.2187
65884W        W66748  24.689  13.478  22.235  0.0828  0.1587 -0.1245
65885W        W66749  26.910  11.989  24.351  0.1026  0.1394  0.2635
65886W        W66750  23.946  11.863  25.887 -0.3563  0.2340  0.2210
65887W        W66751  28.371  12.980  23.265  0.1191  0.1886  0.2599
65888W        W66752  23.980  13.005  25.239  0.0846 -0.3708 -0.0342
65889W        W66753  25.310  11.581  24.212 -0.0866 -0.1880  0.3331
65890W        W66754  22.870  13.521  26.326 -0.2858  0.0778  0.1662
65891W        W66755  22.057  10.000  24.798  0.2324  0.1745 -0.3264
65892W        W66756  21.615  10.172  24.960  0.2081 -0.2954  0.0676
65893W        W66757  23.014  11.435  23.229  0.1319  0.0326  0.3053
65894W        W66758  23.013  13.696  21.992 -0.0505  0.0858  0.3451
65895W        W66759  23.096  12.760  24.165 -0.0785 -0.1556 -0.1921
65896W        W66760  20.999  16.870  23.929 -0.0038  0.1141 -0.1514
65897W        W66761  22.160  13.253  21.755  0.0793 -0.2075  0.0309
65898W        W66762  22.879  10.798  22.285  0.2824  0.1169  0.0818
65899W        W66763  21.710  15.565  21.238  0.1135 -0.0650  0.1288
65900W        W66764  22.113  15.382  26.113 -0.3444 -0.1234 -0.3248
65901W        W66765  24.268  14.244  26.409 -0.2321 -0.2242  0.1481
65902W        W66766  25.446  12.611  23.153  0.1624 -0.0360  0.2445
65903W        W66767  20.677  10.795  21.358 -0.0593  0.1486 -0.3764
65904W        W66768  25.833  12.268  24.355 -0.0902  0.1072  0.2644
65905W        W66769  27.622  11.534  24.692 -0.3327 -0.1257  0.0212
65906W        W66770  22.525   9.819  23.122 -0.0359 -0.1469  0.1702
65907W        W66771  22.831  12.366  25.164 -0.3787 -0.1910  0.1890
65908W        W66772  27.262  15.556  24.002  0.0720 -0.0194  0.0833
65909W        W66773  23.051  10.919  24.895  0.2608  0.1131 -0.1729
65910W        W66774  23.064  12.280  26.135  0.1669 -0.2448  0.0109
65911W        W66775  26.912  13.705  24.736 -0.0341 -0.3331 -0.1334
65912W        W66776  24.003  15.740  21.844  0.1800 -0.0251 -0.2900
65913W        W66777  20.092  14.456  22.730 -0.0549  0.1857 -0.0326
65914W        W66778  18.785  17.226  27.244  0.1953 -0.4125  0.0826
65915W        W66779  21.678   9.878  24.124  0.2541 -0.0180  0.0755
65916W        W66780  24.239  12.485  24.324  0.3199 -0.0195 -0.0883
65917W        W66781  23.663  14.420  25.172 -0.2132 -0.0674 -0.0906
65918W        W66782  23.866  12.754  19.824 -0.3776  0.4054  0.2968
65919W        W66783  22.854  12.496  24.645 -0.2287 -0.0424 -0.2343
65920W        W66784  23.415  12.147  25.343 -0.1136 -0.2295 -0.2833
65921W        W66785  24.105  13.671  25.500 -0.0375  0.3197  0.2668
65922W        W66786  25.287  13.550  25.341  0.2009  0.0079 -0.1291
65923W        W66787  25.780  13.362  26.045 -0.1134  0.1205  0.0602
65924W        W66788  22.667   9.516  24.856  0.0235  0.0189  0.0035
65925W        W66789  24.893  15.530  25.603  0.1515 -0.3082  0.1637
65926W        W66790  22.873  10.886  23.279 -0.1907 -0.2628  0.0711
65927W        W66791  23.823  10.919  23.075  0.1140  0.0381 -0.0079
65928W        W66792  19.918  16.746  23.905  0.3953  0.2367  0.0669
65929W        W66793  21.606  10.238  23.274 -0.1384  0.1191  0.0674
65930W        W66794  28.020  13.167  24.358 -0.2220 -0.2430 -0.1789
65931W        W66795  24.718  11.303  20.861 -0.1940  0.5190  0.0425
65932W        W66796  22.304  14.949  22.422  0.0935  0.0077  0.0742
65933W        W66797  24.557  13.551  22.829  0.1024  0.0066 -0.0759
65934W        W66798  23.570  13.313  24.796  0.3797  0.1218 -0.0808
65935W        W66799  22.565  12.118  25.880 -0.0992  0.1447  0.1959
65936W        W66800  24.001  12.356  27.230  0.2574  0.1613  0.0103
65937W        W66801  25.252  11.538  20.559  0.2095  0.1978 -0.0769
65938W        W66802  26.872  12.717  20.153  0.0307  0.0782 -0.3045
65939W        W66803  23.891  10.860  21.714 -0.2910 -0.2423 -0.0566
65940W        W66804  23.704  13.462  20.886  0.0360 -0.2423  0.3011
65941W        W66805  25.681  13.945  23.649 -0.0065  0.4062  0.0111
65942W        W66806  19.899  11.274  23.328 -0.0962  0.2462  0.0297
65943W        W66807  22.971  14.093  23.519 -0.1338 -0.1139 -0.0513
65944W        W66808  27.113  14.160  23.572  0.0042  0.1997  0.0840
65945W        W66809  21.040  12.481  24.082 -0.2465 -0.1748 -0.3442
65946W        W66810  26.386  12.072  25.676  0.0315  0.0004  0.5703
65947W        W66811  25.627  11.629  25.773  0.2403 -0.1311  0.0402
65948W        W66812  23.613  15.600  23.205 -0.2258  0.0690 -0.1769
65949W        W66813  23.771  14.896  22.853 -0.3126 -0.1450 -0.0611
65950W        W66814  23.418   9.359  24.294 -0.2522 -0.0978  0.2117
65951W        W66815  21.016  13.967  25.241  0.0358 -0.1035  0.1964
65952W        W66816  24.735  14.391  22.745  0.0624 -0.0403  0.4189
65953W        W66817  26.669  14.706  23.348  0.0240  0.1753  0.3472
65954W        W66818  23.756  16.157  23.908 -0.1094  0.1691 -0.0161
65955W        W66819  24.097  15.975  25.876  0.2585  0.1040  0.0806
65956W        W66820  22.625   9.552  22.023  0.1382  0.3161  0.1171
65957W        W66821  25.981  10.412  23.058  0.3272  0.0493  0.0390
65958W        W66822  19.042  13.397  25.610 -0.0787  0.1106  0.1252
65959W        W66823  26.114  14.091  23.907  0.1697  0.0294 -0.1092
65960W        W66824  23.886  15.792  24.727 -0.3398  0.2345 -0.0469
65961W        W66825  25.166   8.787  20.836 -0.2313 -0.0035 -0.3088
65962W        W66826  24.162  14.277  24.991 -0.0548 -0.2143  0.1820
65963W        W66827  25.046  13.492  22.660 -0.0695  0.0158 -0.1735
65964W        W66828  20.228  14.368  24.764  0.0125 -0.0250  0.0678
65965W        W66829  24.529  12.557  20.461  0.3990 -0.1537 -0.1655
65966W        W66830  22.418  10.787  24.702  0.0758  0.0025  0.1311
65967W        W66831  23.324  14.026  25.355  0.1642  0.0123  0.1593
65968W        W66832  25.006  12.405  23.302 -0.2312 -0.1044 -0.1346
65969W        W66833  21.651  14.136  24.096 -0.2975 -0.0166 -0.0612
65970W        W66834  25.961  12.558  21.859 -0.2093 -0.2000 -0.2049
65971W        W66835  24.564  11.310  27.132  0.0419  0.0167 -0.4630
65972W        W66836  22.913  14.144  24.972  0.0907  0.2513  0.0768
65973W        W66837  22.804  15.041  22.591 -0.0324  0.1904  0.0026
65974W        W66838  25.735  14.648  25.782  0.1047  0.2585  0.1310
65975W        W66839  24.678  13.424  23.357 -0.0817 -0.1867  0.0510
65976W        W66840  21.101  12.325  19.953 -0.1505  0.0774 -0.0095
65977W        W66841  23.609  11.281  23.362  0.2655 -0.0528 -0.1209
65978W        W66842  21.258  12.510  22.577 -0.2048  0.0870 -0.2896
65979W        W66843  23.511  12.935  24.363 -0.0269  0.3314 -0.1886
65980W        W66844  22.994  15.096  21.522  0.3303 -0.1906  0.0528
65981W        W66845  26.325  13.320  26.928  0.0506  0.4358 -0.2378
65982W        W66846  22.907  12.762  26.550 -0.2833 -0.2915 -0.3275
65983W        W66847  26.330  14.586  24.706  0.0932  0.0346 -0.0432
65984W        W66848  23.981  16.068  23.482  0.0328 -0.3793  0.2283
65985W        W66849  24.032  15.906  22.994 -0.1022  0.1550  0.0635
65986W        W66850  25.309  14.281  23.673  0.1065  0.3333  0.0752
65987W        W66851  24.141  13.370  24.868 -0.0176 -0.1037  0.3795
65988W        W66852  24.639   8.581  24.891 -0.0026 -0.0446  0.1792
65989W        W66853  23.453  13.953  22.055 -0.0596  0.2520  0.1075
65990W        W66854  23.324  13.397  23.481  0.2112 -0.0992  0.0396
65991W        W66855  17.757  11.739  25.061 -0.1381 -0.1497  0.3164
65992W        W66856  25.867  16.161  20.813  0.0387  0.2394 -0.2405
65993W        W66857  22.496  14.844  22.921 -0.0189  0.0408  0.0153
65994W        W66858  21.582  15.272  25.929  0.1160 -0.0286  0.0513
65995W        W66859  23.547  11.213  21.769  0.1301  0.3240  0.3675
65996W        W66860  20.062  15.395  23.661  0.1000  0.0113 -0.0409
65997W        W66861  21.645  13.299  22.460 -0.2015 -0.2048 -0.3989
65998W        W66862  26.059  11.071  23.730  0.1665 -0.0067 -0.3400
65999W        W66863  22.988  11.592  25.699 -0.0162 -0.1171  0.2906
66000W        W66864  23.800  11.396  22.911  0.1367 -0.3797 -0.0179
66001W        W66865  27.124  12.694  25.572  0.1789  0.2239 -0.1052
66002W        W66866  26.956  14.097  22.579 -0.1024  0.0476  0.2112
66003W        W66867  23.783  15.540  20.501 -0.0111 -0.1416 -0.0446
66004W        W66868  22.620  11.174  21.869 -0.2138  0.0836 -0.0030
66005W        W66869  22.566  15.649  24.613 -0.0656 -0.0010  0.2005
66006W        W66870  23.911  10.540  26.328 -0.1146  0.0204 -0.0941
66007W        W66871  20.788  11.700  25.945  0.0539  0.0806 -0.1465
66008W        W66872  22.771  12.419  24.124  0.3803 -0.2344  0.1924
66009W        W66873  24.888  11.763  23.341 -0.0831  0.2026 -0.1323
66010W        W66874  19.895  12.067  26.065  0.0600 -0.0328 -0.1804
66011W        W66875  21.585  13.928  23.277 -0.0055 -0.2496  0.0087
66012W        W66876  22.691  10.599  20.136  0.0142 -0.2988 -0.0719
66013W        W66877  23.714  12.063  22.084  0.1182  0.6481 -0.1637
66014W        W66878  20.328  12.815  23.856  0.0125 -0.0581  0.4257
66015W        W66879  23.646  14.885  22.152 -0.2309 -0.1947 -0.2146
66016W        W66880  23.488  13.912  23.264 -0.2332  0.0957 -0.0561
66017W        W66881  23.394  12.511  22.240 -0.0156 -0.1994  0.2762
66018W        W66882  26.733  11.494  22.533  0.0286 -0.6243 -0.1926
66019W        W66883  23.165  14.493  21.610 -0.0648 -0.1281 -0.3652
66020W        W66884  24.421  11.349  26.508  0.2666 -0.2308  0.3205
66021W        W66885  22.409  12.285  24.688 -0.4113 -0.0878 -0.0846
66022W        W66886  25.141  13.307  27.175 -0.0915 -0.0974 -0.0561
66023W        W66887  27.626  13.370  22.669 -0.0829 -0.0468 -0.0668
66024W        W66888  22.785  13.514  24.255 -0.2877 -0.1934  0.0974
66025W        W66889  22.568  15.561  25.962  0.2145 -0.3306  0.0580
66026W        W66890  24.789  13.768  24.708  0.0947 -0.0794 -0.2687
66027W        W66891  23.155   8.740  24.622 -0.0482 -0.0432  0.4201
66028W        W66892  18.430  12.850  24.484 -0.0130  0.1314 -0.0923
66029W        W66893  24.691  12.831  25.831 -0.0754  0.2104 -0.0789
66030W        W66894  25.116  14.111  25.232 -0.0040  0.0819 -0.0289
66031W        W66895  22.611  11.295  23.425 -0.0738 -0.0797 -0.0093
66032W        W66896  24.311  14.277  23.005  0.1562 -0.0499 -0.1489
66033W        W66897  24.238  12.564  23.424 -0.0894 -0.1842  0.2704
66034W        W66898  21.830  10.801  23.802 -0.0748 -0.0140 -0.0342
66035W        W66899  25.987  13.850  26.263 -0.1433  0.2437  0.0483
66036W        W66900  22.951  15.716  24.163  0.0710 -0.0201  0.0489
66037W        W66901  22.219  13.250  24.246 -0.1090  0.0423 -0.0730
66038W        W66902  23.182  15.717  21.195  0.2291  0.0353 -0.0970
66039W        W66903  24.294  12.859  27.320 -0.2166 -0.0834  0.3909
66040W        W66904  24.211  12.109  21.807  0.0681 -0.1243  0.3342
66041W        W66905  25.577  11.878  24.512 -0.1140  0.2058 -0.0040
66042W        W66906  27.039  14.963  25.220  0.4570 -0.0595 -0.1507
66043W        W66907  20.630  17.188  24.100  0.1197 -0.1478 -0.0444
66044W        W66908  23.798  11.538  24.184  0.2919 -0.0911  0.2146
66045W        W66909  23.714  11.768  22.475  0.2875  0.1696 -0.0758
66046W        W66910  23.071  13.107  24.889 -0.0825 -0.3181 -0.0512
66047W        W66911  23.519  12.116  22.944  0.0392 -0.0648  0.0773
66048W        W66912  22.342  11.943  22.955 -0.3083  0.0553 -0.0257
66049W        W66913  23.495  13.170  26.957  0.1028 -0.4134 -0.3178
66050W        W66914  23.104  14.923  26.555 -0.0870 -0.0209  0.1999
66051W        W66915  24.943  13.460  24.263 -0.0895  0.0854  0.0433
66052W        W66916  22.544  14.517  27.792  0.1236  0.0580  0.0737
66053W        W66917  22.752  16.303  27.736 -0.2434  0.4948  0.0687
66054W        W66918  21.959   8.922  27.950  0.2492 -0.2155  0.1643
66055W        W66919  20.618  11.557  26.514 -0.1603 -0.1351 -0.0253
66056W        W66920  20.018  12.629  24.373 -0.0214  0.0810  0.0215
66057W        W66921  23.897  12.306  28.101  0.0710  0.1280 -0.2925
66058W        W66922  23.304  12.519   0.184  0.1208  0.1230  0.1798
66059W        W66923  18.869  10.062  26.245  0.4297  0.0810 -0.1060
66060W        W66924  24.019  10.983  26.524 -0.0299 -0.1959 -0.1463
66061W        W66925  26.964  13.857  25.581 -0.2318  0.2695  0.2016
66062W        W66926  25.058  12.421  26.915 -0.0601 -0.1499  0.1350
66063W        W66927  21.645  11.454  27.772  0.1770  0.1783  0.2452
66064W        W66928  22.431  13.390   1.747 -0.0299  0.1676 -0.0247
66065W        W66929  22.091  15.960  23.314 -0.2269 -0.2776  0.1442
66066W        W66930  20.852  12.597  26.239 -0.0891  0.1529 -0.2869
66067W        W66931  25.007   8.586   1.451 -0.0609  0.0654 -0.1758
66068W        W66932  27.454  10.159  28.121 -0.0007  0.0028  0.0561
66069W        W66933  24.354  11.316   0.128 -0.1070  0.2160  0.0204
66070W        W66934  22.042   9.317  27.007  0.0298  0.1115  0.2195
66071W        W66935  24.013  14.173  27.485  0.0295  0.2629 -0.1723
66072W        W66936  22.481  14.009  27.141  0.2965 -0.1538  0.1309
66073W        W66937  22.712  12.996  28.132 -0.1524 -0.1821 -0.0207
66074W        W66938  23.415   9.105  29.106 -0.1090  0.0856 -0.0003
66075W        W66939  25.541  12.994  27.561 -0.0856 -0.1318 -0.2161
66076W        W66940  21.219  12.821  28.343 -0.2553 -0.0968 -0.2434
66077W        W66941  22.924  15.451  28.782  0.2788 -0.1470  0.1416
66078W        W66942  23.232  12.769  28.849 -0.4127  0.0697  0.3137
66079W        W66943  22.069  11.462  27.268 -0.0347  0.0001 -0.0109
66080W        W66944  24.593  15.768   1.884 -0.1932 -0.1655  0.0352
66081W        W66945  22.778  11.952  28.406  0.0247  0.1004 -0.3779
66082W        W66946  22.795  13.021  28.786  0.0901  0.1040 -0.0346
66083W        W66947  21.785  11.669  28.963  0.4289  0.0377 -0.2363
66084W        W66948  23.906  12.757   2.534  0.0484 -0.0934 -0.0857
66085W        W66949  21.820  11.710  26.117  0.2193  0.0896 -0.0384
66086W        W66950  22.943  14.343  28.661 -0.1664  0.1303  0.1008
66087W        W66951  25.933  11.911  25.373  0.1352  0.1390 -0.2078
66088W        W66952  23.338  11.806  27.044  0.1435  0.2143 -0.0164
66089W        W66953  24.595   9.884  27.221  0.1805 -0.0667  0.3051
66090W        W66954  25.548  12.388  28.209 -0.1663  0.1686 -0.1642
66091W        W66955  22.767  13.720  26.819  0.0109  0.1334 -0.4947
66092W        W66956  25.921  13.171  27.173  0.0313  0.1146 -0.2962
66093W        W66957  21.106  17.626  26.066  0.0791  0.2274  0.0455
66094W        W66958  23.033  14.404  26.489  0.0182  0.1254 -0.1315
66095W        W66959  25.572  10.979  27.981  0.1580 -0.3171  0.1045
66096W        W66960  27.519  13.851  27.139  0.2978 -0.1379  0.4024
66097W        W66961  22.727  10.005  24.790  0.0667  0.1869  0.6590
66098W        W66962  27.669  12.898  25.413 -0.0214  0.1614  0.1957
66099W        W66963  23.772  11.431  27.308 -0.0730  0.0530 -0.0132
66100W        W66964  21.529  11.938  26.461 -0.3254  0.2824  0.0426
66101W        W66965  25.316  13.694   0.057 -0.1991 -0.4517  0.1543
66102W        W66966  22.346  12.377  25.419  0.0833  0.1288 -0.0278
66103W        W66967  22.775  11.063  24.535 -0.1930 -0.2724  0.0884
66104W        W66968  18.844  14.618  22.710  0.3053 -0.3103  0.0577
66105W        W66969  23.069   9.293  26.823 -0.1089  0.0144  0.1428
66106W        W66970  26.012  12.218  27.003 -0.2035  0.0947 -0.3156
66107W        W66971  20.614  13.489  26.025 -0.0342  0.2295 -0.1117
66108W        W66972  24.041  10.868  28.918 -0.2247  0.2910  0.2625
66109W        W66973  23.835  13.796  25.064 -0.2879 -0.2842  0.1924
66110W        W66974  20.233  11.247  27.021 -0.0024 -0.1626  0.0771
66111W        W66975  22.121  11.517  28.560 -0.1630 -0.1796  0.1239
66112W        W66976  23.336  13.553   0.037  0.2468  0.1198  0.0638
66113W        W66977  25.052  12.396  27.935  0.0777 -0.0116 -0.5354
66114W        W66978  23.307   8.869  26.883  0.3307 -0.0554 -0.0074
66115W        W66979  22.211  15.529  25.617  0.0149  0.0852 -0.2270
66116W        W66980  22.726  14.438  27.311  0.0330 -0.0971  0.0191
66117W        W66981  23.530  11.829  26.393  0.0363  0.0593 -0.0832
66118W        W66982  20.551  12.898  26.512 -0.2824  0.3373  0.1011
66119W        W66983  25.545  13.351   2.316  0.2489  0.1931 -0.1665
66120W        W66984  25.180  12.109  24.206 -0.3217 -0.1960 -0.1200
66121W        W66985  23.734  13.610  28.872 -0.0121 -0.0217 -0.1349
66122W        W66986  24.685  13.451   0.754 -0.0247 -0.0599  0.3585
66123W        W66987  28.944   9.884  27.573 -0.1423 -0.0544  0.1078
66124W        W66988  25.005  13.823  28.442 -0.0859 -0.1337 -0.1945
66125W        W66989  23.341  14.114  25.831  0.1159  0.2676  0.0175
66126W        W66990  23.038  16.819  28.464  0.1932 -0.4705  0.2158
66127W        W66991  23.799  11.849  26.923 -0.0367 -0.1008  0.2490
66128W        W66992  23.971   9.508  27.933  0.0802 -0.2155 -0.2729
66129W        W66993  20.920  12.561  27.594  0.1976 -0.0895 -0.4616
66130W        W66994  23.551   9.493  28.828  0.1956 -0.1045 -0.1528
66131W        W66995  22.500   9.123  25.187 -0.1006 -0.0284 -0.1730
66132W        W66996  22.654   9.864  26.075 -0.0427 -0.1508  0.0411
66133W        W66997  24.381  10.307   0.606  0.0997  0.0036 -0.3082
66134W        W66998  23.716  12.575  25.480 -0.1625  0.1227 -0.2622
66135W        W66999  23.167  12.141  27.506 -0.5455  0.1589 -0.0044
66136W        W67000  23.782  14.395  27.102 -0.3680  0.2065  0.0211
66137W        W67001  25.442  12.871  28.099  0.0881  0.0269 -0.0051
66138W        W67002  24.727  12.045  25.062  0.1780 -0.0786 -0.4662
66139W        W67003  24.165  11.311  26.074  0.1792 -0.2297 -0.1633
66140W        W67004  23.355  13.551  27.511  0.0464  0.1183  0.0496
66141W        W67005  19.368  13.940  25.992  0.1513  0.0661 -0.0140
66142W        W67006  23.307  13.560  25.903 -0.0192 -0.1389  0.2098
66143W        W67007  22.034  11.252  26.133 -0.0381  0.1135 -0.0534
66144W        W67008  23.607  11.386  27.898  0.1600 -0.0598  0.0823
66145W        W67009  26.154  11.778  26.035  0.2374 -0.2081 -0.0049
66146W        W67010  23.463  12.600   0.719  0.1207  0.2362  0.0405
66147W        W67011  20.994  13.593  26.865  0.1839  0.0078 -0.1153
66148W        W67012  25.642  10.484  25.057 -0.2295 -0.0341  0.3660
66149W        W67013  25.524  12.434  26.700  0.0254 -0.1517  0.1633
66150W        W67014  25.378  10.841   1.405  0.0167  0.1688  0.0974
66151W        W67015  23.550  10.253  25.037 -0.1879  0.0949 -0.1752
66152W        W67016  27.655  14.213  27.510  0.0457  0.2919 -0.0454
66153W        W67017  25.001   9.945  26.638  0.2233 -0.1534  0.1182
66154W        W67018  23.964  11.933  28.477  0.1026 -0.1281 -0.2427
66155W        W67019  23.345  12.138  24.862 -0.1758 -0.1895 -0.1062
66156W        W67020  23.804   9.868  29.115  0.1204 -0.0487  0.0812
66157W        W67021  22.573  10.419  25.738  0.1686  0.1227  0.1867
66158W        W67022  22.070  13.018  26.041 -0.2194 -0.2981 -0.0978
66159W        W67023  21.744  13.117   0.131  0.1923 -0.1081 -0.0999
66160W        W67024  22.393  11.859  27.469  0.0372  0.0369 -0.0276
66161W        W67025  24.281  10.787  26.161  0.0218 -0.0143 -0.2062
66162W        W67026  22.719  12.917   0.301 -0.3208  0.2042 -0.1416
66163W        W67027  27.249  13.975  27.658 -0.2943 -0.0392  0.0095
66164W        W67028  24.488  11.790  26.720 -0.2825 -0.1667  0.0894
66165W        W67029  26.676  13.071   0.281 -0.0781  0.1342 -0.1031
66166W        W67030  23.803  11.198   0.086  0.0462 -0.1126 -0.0249
66167W        W67031  25.485  12.289  27.157  0.4291 -0.3012  0.1623
66168W        W67032  24.689  13.561  27.007  0.0510 -0.1398 -0.2156
66169W        W67033  24.263  11.071  28.008 -0.2424  0.1613 -0.1649
66170W        W67034  26.678  15.224  25.542 -0.0185  0.2407  0.0906
66171W        W67035  23.396  14.622  26.158 -0.1289 -0.1304 -0.2352
66172W        W67036  24.712  11.720  27.386 -0.2275  0.0209 -0.0416
66173W        W67037  25.069  11.113  28.001 -0.2276 -0.3208  0.1109
66174W        W67038  26.627  10.406  24.113  0.2800  0.2457  0.0138
66175W        W67039  23.063   9.183  25.004 -0.0084  0.0435 -0.1337
66176W        W67040  25.341  13.814   2.010 -0.2007  0.2472  0.1785
66177W        W67041  27.758  13.165  26.658  0.0845 -0.1480  0.2557
66178W        W67042  21.365  12.560  26.957  0.0255  0.0505 -0.0348
66179W        W67043  24.752  14.632  27.295  0.0094 -0.1415  0.1057
66180W        W67044  22.594  11.491  28.317  0.4466 -0.0752  0.2687
66181W        W67045  22.720  11.945   1.741  0.0927  0.3174  0.1396
66182W        W67046  23.390  10.637  27.066 -0.1844 -0.1111 -0.0580
66183W        W67047  24.144  12.415  28.565 -0.1508 -0.0109 -0.1620
66184W        W67048  24.236  10.272  27.008  0.0885  0.3361  0.3103
66185W        W67049  24.004  12.280  29.046  0.1493 -0.1321 -0.3758
66186W        W67050  27.192  10.989  28.654 -0.0554 -0.2436  0.1874
66187W        W67051  24.961  12.409  25.703 -0.1426  0.0659  0.1351
66188W        W67052  21.782  15.998  27.496 -0.1854  0.4663  0.1694
66189W        W67053  22.470   9.607  26.969  0.1316  0.3125 -0.1915
66190W        W67054  22.791  10.749  26.153  0.2442 -0.1106 -0.0710
66191W        W67055  21.740  15.361  25.008 -0.1583 -0.0648  0.1796
66192W        W67056  23.182  13.612  24.983 -0.0689  0.1415  0.2151
66193W        W67057  23.048  11.833   1.330  0.0389 -0.2567 -0.2945
66194W        W67058  24.234   9.301  27.574  0.1779 -0.2308  0.1897
66195W        W67059  24.870  12.702  24.826  0.1206 -0.1382 -0.1889
66196W        W67060  26.216  15.482  25.475 -0.2026  0.0334  0.2169
66197W        W67061  23.402  12.791  27.874 -0.3212  0.1193  0.0057
66198W        W67062  24.153  13.245  27.755  0.1034 -0.2709 -0.1357
66199W        W67063  25.570  14.837  28.747 -0.0614 -0.1040 -0.1752
66200W        W67064  23.013  13.937  27.208  0.0630  0.1747 -0.3598
66201W        W67065  23.434  14.892  27.977  0.0742  0.0409  0.0386
66202W        W67066  23.677  13.275  26.158  0.0169 -0.0907 -0.0766
66203W        W67067  26.250  11.297  26.347 -0.5257  0.0855  0.0064
66204W        W67068  23.077  11.781  26.206 -0.0265 -0.1219  0.2718
66205W        W67069  22.451  11.199  26.937  0.2768  0.1873  0.1183
66206W        W67070  20.139  12.505  25.126 -0.1220 -0.0771 -0.0916
66207W        W67071  23.571   8.995  24.823 -0.1501 -0.5250  0.1120
66208W        W67072  24.802  12.916  27.083 -0.1666 -0.4378 -0.0511
66209W        W67073  23.846  12.365   0.406  0.2850  0.1345  0.1593
66210W        W67074  24.336  11.036  28.526  0.3009  0.1677  0.3357
66211W        W67075  23.887  13.578  28.056  0.2347  0.1127  0.1639
66212W        W67076  25.011  13.756   0.455 -0.1938 -0.0778  0.3658
66213W        W67077  24.760  10.878   1.553  0.1284  0.1117 -0.0414
66214W        W67078  23.676  10.950  26.160  0.1210 -0.0099 -0.1130
66215W        W67079  21.634  11.358  26.428  0.0744 -0.1904  0.0898
66216W        W67080  22.669  15.176  24.913 -0.1249 -0.0531 -0.1328
66217W        W67081  24.696  13.449   2.178 -0.1530 -0.4213 -0.0496
66218W        W67082  19.839  13.666  26.647  0.0832 -0.1615  0.0367
66219W        W67083  27.253  10.630  28.153  0.0997 -0.1557  0.1594
66220W        W67084  25.076  12.118  27.370 -0.0905 -0.1023 -0.2450
66221W        W67085  22.861  12.906  27.035  0.2866  0.2726  0.1424
66222W        W67086  25.017  13.845  25.686  0.2952  0.0831 -0.0049
66223W        W67087  24.901  12.486  26.214 -0.1779 -0.0702  0.0520
66224W        W67088  27.968   9.594  25.687  0.0562  0.0844 -0.1661
66225W        W67089  23.870  13.578  26.547 -0.1037 -0.0084 -0.1125
66226W        W67090  21.130  11.386   1.237  0.1070 -0.3449  0.0310
66227W        W67091  23.790  16.118  26.217  0.0658 -0.1022  0.0035
66228W        W67092  25.581  13.090  28.536  0.3276 -0.1924  0.2304
66229W        W67093  21.915  12.567  25.376  0.1756  0.1110  0.0356
66230W        W67094  25.185  11.911  26.918 -0.0381 -0.1051  0.0731
66231W        W67095  24.186  11.841  27.235  0.2583 -0.1907  0.0230
66232W        W67096  25.387  10.905  26.950  0.0154  0.3725  0.0657
66233W        W67097  23.468  12.991  25.203 -0.0656 -0.1286 -0.1355
66234W        W67098  24.976  13.574   1.657  0.1385  0.0775  0.2411
66235W        W67099  23.208  10.544  28.341  0.0182 -0.1155 -0.0751
66236W        W67100  21.477  12.324  25.546  0.3398 -0.0917  0.1207
66237W        W67101  24.808  11.560  24.952  0.0280 -0.0498  0.0488
66238W        W67102  23.870  11.010  27.680  0.1570  0.0203 -0.0758
66239W        W67103  20.231  12.195  27.131  0.1989 -0.0762 -0.1469
66240W        W67104  22.354  13.114  25.571 -0.0533 -0.1934  0.1322
66241W        W67105  24.732   9.120   0.225 -0.2531  0.1232 -0.0669
66242W        W67106  22.318   8.908  27.011  0.1064 -0.1115  0.2136
66243W        W67107  24.034   9.544  28.801 -0.0382 -0.0921 -0.2367
66244W        W67108  21.500  11.322  24.958  0.0378 -0.0568  0.1102
66245W        W67109  22.933  11.562  26.831  0.1415  0.1812 -0.2473
66246W        W67110  22.506  11.187  27.853  0.1070  0.0410 -0.1505
66247W        W67111  22.357  11.002  27.388  0.1187 -0.0249 -0.2978
66248W        W67112  25.993  11.480  26.699 -0.2721  0.1401  0.0262
66249W        W67113  21.061   9.126  24.651  0.0372 -0.1126 -0.1192
66250W        W67114  23.057  11.568  28.379 -0.1470  0.0292 -0.0578
66251W        W67115  25.785  12.547  24.825 -0.1521  0.0944 -0.0669
66252W        W67116  24.756  14.070  26.509 -0.2014  0.0554  0.1600
66253W        W67117  24.128  11.474  27.667 -0.0999  0.1779  0.1357
66254W        W67118  20.535  10.940  24.155  0.3260 -0.3213  0.1554
66255W        W67119  22.641  10.642  28.513 -0.1027 -0.2686  0.2102
66256W        W67120  23.115  11.206  25.357  0.0090 -0.3197 -0.0016
66257W        W67121  23.408  15.888  24.236 -0.0644  0.2124  0.1008
66258W        W67122  18.495  13.327  25.446 -0.0022  0.1558  0.2533
66259W        W67123  21.802  11.638  28.203 -0.0365 -0.1530 -0.0467
66260W        W67124  24.039  10.063  27.943  0.1019 -0.0467 -0.2430
66261W        W67125  25.018  13.267   0.249  0.1019 -0.0636 -0.0040
66262W        W67126  22.893  11.002  27.511  0.1375  0.0877  0.2902
66263W        W67127  25.584  15.005  27.631  0.3120  0.1459  0.0915
66264W        W67128  25.713  12.901  26.498 -0.2590 -0.1248 -0.1225
66265W        W67129  24.381  14.774  25.793  0.0839  0.1870 -0.2025
66266W        W67130  22.677  15.671  27.149 -0.1138  0.3952  0.3888
66267W        W67131  26.853  10.283  28.107 -0.2637  0.1897 -0.1003
66268W        W67132  23.034  13.719   2.103  0.1138  0.1088  0.1709
66269W        W67133  24.530  13.708  28.494 -0.0581  0.0845 -0.0185
66270W        W67134  24.400  12.505   0.840 -0.0373  0.0260 -0.1649
66271W        W67135  20.169  13.983   0.064  0.2876 -0.0968 -0.1997
66272W        W67136  21.332  10.617  28.033  0.0579  0.3134 -0.1653
66273W        W67137  27.263  11.330  28.276 -0.1039 -0.0492  0.1227
66274W        W67138  21.201  10.814   1.112  0.1022  0.3075  0.2695
66275W        W67139  22.228  14.705   0.525  0.1053  0.2605  0.2262
66276W        W67140  26.398  10.512  28.133 -0.0109 -0.0755  0.2212
66277W        W67141  22.732  13.618  24.795  0.3801  0.0599 -0.1234
66278W        W67142  21.608  13.850  26.094 -0.1218 -0.0551 -0.1261
66279W        W67143  25.968  12.431   0.699  0.1580 -0.0828  0.0996
66280W        W67144  23.292  10.623  26.185 -0.2432 -0.0438  0.0583
66281W        W67145  22.691  13.865  25.371 -0.0217 -0.3012  0.1752
66282W        W67146  24.331  13.178  26.263 -0.0479 -0.1380  0.0529
66283W        W67147  22.275  10.378  28.223 -0.0369 -0.0561 -0.2354
66284W        W67148  21.720  15.419  26.419  0.4265  0.3326 -0.0325
66285W        W67149  26.007   9.527  26.822 -0.1484  0.0891 -0.1695
66286W        W67150  23.728  12.749  29.048 -0.0839  0.1203 -0.3724
66287W        W67151  24.730  13.886  29.135  0.0023 -0.1145  0.0715
66288W        W67152  25.055  12.105  28.393  0.2923  0.4300 -0.1324
66289W        W67153  24.681  14.227  24.967 -0.4090 -0.0632 -0.0893
66290W        W67154  24.686  12.530   0.301  0.2656  0.3179  0.0347
66291W        W67155  24.143  11.400  26.951 -0.0052 -0.1865 -0.1212
66292W        W67156  22.421  11.469   0.407  0.2734 -0.1352 -0.2020
66293W        W67157  24.521  10.845  29.069  0.0789 -0.3488 -0.1901
66294W        W67158  22.424  13.352  27.858  0.0466  0.0103 -0.1710
66295W        W67159  23.536   9.267  26.711 -0.0876 -0.0167 -0.0994
66296W        W67160  22.612  12.305  28.131  0.0628 -0.1426 -0.0870
66297W        W67161  24.420  14.986  27.997  0.1596 -0.0474  0.0204
66298W        W67162  22.818  11.437  24.965 -0.0238  0.0684  0.0145
66299W        W67163  21.345  10.719  27.156  0.0276  0.0168  0.1592
66300W        W67164  21.971  10.482   0.547 -0.2312  0.1384  0.2534
66301W        W67165  25.270  14.362   1.148 -0.2036  0.3886  0.0250
66302W        W67166  24.693  13.182  27.492  0.1396  0.3192 -0.0830
66303W        W67167  19.487  12.492  24.266 -0.3916  0.0426 -0.0263
66304W        W67168  26.689  14.672  25.789 -0.0390 -0.0685  0.3879
66305W        W67169  23.538  10.702  25.740  0.0903 -0.0201  0.2235
66306W        W67170  21.578  10.774  28.540 -0.1671 -0.1671  0.1536
66307W        W67171  24.688  12.232  26.566  0.2014  0.1575 -0.2901
66308W        W67172  26.626  12.931  27.305 -0.3598  0.0894 -0.1152
66309W        W67173  20.101  11.509  24.904 -0.0747 -0.0360 -0.2157
66310W        W67174  23.177  10.878  27.913 -0.0788  0.1735  0.1270
66311W        W67175  20.743  13.351  26.526  0.2442 -0.0084  0.0764
66312W        W67176  22.699  13.089  27.457  0.0276 -0.1880 -0.1102
66313W        W67177  23.380  12.655  26.017 -0.1987 -0.3159  0.1815
66314W        W67178  22.779  13.687  28.052  0.1238  0.0343  0.1821
66315W        W67179  23.100  15.754  25.540 -0.2034  0.1480 -0.0834
66316W        W67180  26.604  10.088  25.713 -0.0355  0.0602 -0.1042
66317W        W67181  22.866  10.484  26.610  0.4193 -0.0317  0.1298
66318W        W67182  28.321  11.217   0.070  0.0483  0.0126  0.0135
66319W        W67183  23.599  13.445  25.512  0.0174  0.0831 -0.0627
66320W        W67184  22.422  15.932  27.553  0.1873 -0.3017  0.1208
66321W        W67185  24.513  12.935  27.971  0.2854  0.1956  0.1755
66322W        W67186  21.992  11.213  28.149  0.2252  0.2470  0.3122
66323W        W67187  24.970  16.119  28.297  0.2453  0.1299 -0.0730
66324W        W67188  25.239  11.635  28.413  0.3576  0.1213  0.1999
66325W        W67189  19.795  13.506  26.131 -0.1230  0.1506 -0.1277
66326W        W67190  21.632   8.990  28.344  0.1151  0.1723 -0.0765
66327W        W67191  23.552  11.383  26.815  0.0019 -0.0861  0.2036
66328W        W67192  21.979  15.106  27.247 -0.0813  0.1379 -0.3066
66329W        W67193  22.021  11.992  26.749 -0.0869  0.2085  0.0303
66330W        W67194  22.611  12.114  23.767 -0.0838  0.0178 -0.1746
66331W        W67195  24.011  15.442  25.832 -0.1846 -0.2384 -0.4899
66332W        W67196  22.203  15.955  26.051  0.1228  0.1646  0.0011
66333W        W67197  23.686  11.084  25.386 -0.3105 -0.0377  0.2459
66334W        W67198  24.727  10.371  26.826 -0.5002  0.1395  0.0089
66335W        W67199  24.582  12.150  27.049  0.2685  0.2016  0.0811
66336W        W67200  20.443  12.640   0.626 -0.1298  0.0774  0.1822
66337W        W67201  22.098   9.552  23.079 -0.0010 -0.0686  0.2551
66338W        W67202  24.355  11.857  26.247  0.0065  0.1331  0.0340
66339W        W67203  23.359  14.157  26.820  0.0581 -0.0362 -0.0661
66340W        W67204  23.906   9.645  23.793 -0.0141 -0.4299  0.0434
66341W        W67205  26.507  11.633  26.770 -0.2873  0.0033  0.1727
66342W        W67206  24.282  13.348  28.205 -0.1441 -0.1827  0.0281
66343W        W67207  22.370  11.735  26.989 -0.1767 -0.1401  0.3834
66344W        W67208  22.963  10.267  26.123  0.2464 -0.0892  0.0482
66345W        W67209  24.612  11.275  28.854  0.0215  0.2983  0.2540
66346W        W67210  25.779  12.694  27.211  0.1347  0.2992 -0.2596
66347W        W67211  25.515  12.026  28.546  0.1243 -0.1131  0.0262
66348W        W67212  20.494  13.246  25.537  0.3309 -0.0761  0.2614
66349W        W67213  22.082  12.973  25.195 -0.0519  0.0302  0.3920
66350W        W67214  21.001  12.271  27.215 -0.1881  0.0277  0.0956
66351W        W67215  26.025  12.377   1.512  0.0197  0.0087  0.3481
66352W        W67216  27.629  12.142  27.519  0.1996  0.0319  0.0538
66353W        W67217  25.940  12.926  25.211 -0.0324 -0.2319  0.1530
66354W        W67218  24.523  14.178   0.866 -0.0004 -0.4614 -0.0604
66355W        W67219  26.098   9.635   1.579 -0.1019  0.1533 -0.1814
66356W        W67220  23.493  11.561  25.514  0.2612  0.3401  0.1750
66357W        W67221  22.734   8.422  28.143 -0.1844 -0.1901  0.2364
66358W        W67222  22.695  14.759  26.299  0.1002 -0.0152 -0.2692
66359W        W67223  24.479  12.411  28.118  0.1800 -0.0687  0.3054
66360W        W67224  21.548  11.587   1.486 -0.0500 -0.0855  0.2358
66361W        W67225  21.726  12.565  23.953  0.1244 -0.2505  0.0657
66362W        W67226  25.489  13.830   0.563  0.1628 -0.1440  0.0842
66363W        W67227  21.603  12.901  26.163  0.2827 -0.0282 -0.2006
66364W        W67228  24.324  14.574   0.567  0.1117  0.1871  0.0240
66365W        W67229  23.240  12.225  24.409  0.2632  0.2071  0.0943
66366W        W67230  23.861  10.412  29.110  0.0424 -0.1521 -0.2462
66367W        W67231  23.604  12.357  27.679 -0.0964 -0.1447  0.0476
66368W        W67232  21.108  12.025  28.148  0.1562 -0.3832 -0.2394
66369W        W67233  21.608  12.145  27.982  0.1133 -0.0265 -0.2225
66370W        W67234  25.115  13.768  26.759  0.0311  0.1905  0.0785
66371W        W67235  22.575  11.967   0.426 -0.1646 -0.0237 -0.2246
66372W        W67236  23.859  12.784  26.130 -0.0610 -0.2902  0.2910
66373W        W67237  22.296  11.796  25.548  0.4291 -0.2786  0.0010
66374W        W67238  25.148  11.311  28.772  0.4972 -0.1379  0.1559
66375W        W67239  21.276   9.972  26.044 -0.1257  0.0676 -0.1036
66376W        W67240  20.544  12.741  25.439 -0.0214  0.0683  0.4143
66377W        W67241  23.880  11.063  28.373 -0.2877  0.1530 -0.1042
66378W        W67242  21.427  11.803  24.701  0.0749 -0.0034 -0.1647
66379W        W67243  24.313  10.879  27.529 -0.1389  0.2760  0.1184
66380W        W67244  23.739   9.082  25.442 -0.0828 -0.2764 -0.2169
66381W        W67245  25.336  12.041  25.870 -0.0414  0.3115  0.1373
66382W        W67246  24.973  12.953   1.403 -0.2341  0.0523 -0.2344
66383W        W67247  26.059  13.734  27.206 -0.1888 -0.0646 -0.2030
66384W        W67248  26.688  14.200  26.892  0.1007  0.3316  0.1566
66385W        W67249  25.517  13.664  28.133 -0.1835 -0.0305  0.0356
66386W        W67250  26.918  11.023  28.174 -0.1605 -0.1879  0.1794
66387W        W67251  25.219  10.235  26.961  0.0287 -0.0027 -0.2851
66388W        W67252  22.476   9.841  28.224  0.0587  0.1649  0.2943
66389W        W67253  24.063  14.794  28.355 -0.2612 -0.0999 -0.2400
66390W        W67254  21.794  12.764  27.859 -0.0316  0.1370 -0.2820
66391W        W67255  23.982  10.085  26.567  0.4176  0.0310  0.1897
66392W        W67256  20.853  16.186  25.803 -0.2048 -0.1918 -0.0637
66393W        W67257  23.876  14.968  28.864 -0.1764 -0.3528  0.2628
66394W        W67258  21.293  12.207  28.870  0.0831 -0.1092 -0.1184
66395W        W67259  22.745  14.072  24.003 -0.3335  0.3959 -0.0988
66396W        W67260  21.670  13.346  24.842 -0.2113 -0.0059 -0.2359
66397W        W67261  23.207  11.192  27.125  0.0310  0.0909  0.0922
66398W        W67262  23.207  13.094  25.619 -0.2038  0.1294  0.0787
66399W        W67263  25.707  16.230  26.389  0.0276 -0.2087 -0.1886
66400W        W67264  25.807  12.185  25.771 -0.1263  0.0307  0.1043
66401W        W67265  22.972  12.362  26.938  0.2414  0.2421 -0.1336
66402W        W67266  24.597  12.170  28.562 -0.0706  0.2036 -0.1172
66403W        W67267  24.646  11.464  26.010 -0.0755  0.0413  0.0856
66404W        W67268  22.541  12.102  26.663  0.0660 -0.2596 -0.0936
66405W        W67269  21.356  13.995  26.531  0.0310  0.0818 -0.1931
66406W        W67270  27.472  11.999   0.736  0.0364 -0.1060  0.0838
66407W        W67271  21.217  12.017  27.620 -0.0475 -0.0250 -0.4154
66408W        W67272  22.454  10.699  26.822 -0.0007  0.1464 -0.2901
66409W        W67273  22.816  10.509  24.656  0.1395 -0.1708 -0.0637
66410W        W67274  24.375  12.875  28.432 -0.0125  0.2747  0.1991
66411W        W67275  23.202  12.423   1.087  0.1158  0.0041  0.0503
66412W        W67276  22.162   8.876  26.065  0.0890 -0.0298  0.1755
66413W        W67277  22.289  11.714  26.030 -0.1397 -0.0843 -0.0318
66414W        W67278  24.730  15.401  29.027  0.0702  0.0563  0.0276
66415W        W67279  26.285  14.239  28.020 -0.2849 -0.0606 -0.0044
66416W        W67280  26.363  10.930  25.936 -0.0204  0.2264  0.1208
66417W        W67281  24.281  10.835  27.034  0.0042 -0.2335 -0.0960
66418W        W67282  24.815  10.691  27.745  0.0067 -0.0154 -0.1392
66419W        W67283  22.932  12.482  23.627 -0.0165  0.0453 -0.0328
66420W        W67284  25.470  12.264  25.393  0.0915 -0.3500  0.3119
66421W        W67285  24.053  11.509  28.161  0.0229  0.0252 -0.0512
66422W        W67286  24.366  14.019  28.795  0.0509 -0.1094 -0.1117
66423W        W67287  25.140  14.013  28.880  0.0279 -0.0663  0.2590
66424W        W67288  25.021  11.571   1.251  0.0189 -0.3694  0.2748
66425W        W67289  23.153  12.068  28.013  0.0559 -0.2540  0.0321
66426W        W67290  25.340  11.271   0.947  0.1587 -0.2848 -0.2442
66427W        W67291  24.730  10.804  28.678 -0.0486 -0.1051  0.2792
66428W        W67292  23.172  14.505  28.177  0.1417  0.0946 -0.1698
66429W        W67293  24.707  13.255  28.493  0.2723  0.0174  0.2467
66430W        W67294  22.918  14.336  25.455  0.2762  0.1524 -0.0608
66431W        W67295  21.486  13.511   0.571 -0.0211 -0.0908  0.1084
66432W        W67296  25.577  11.566  28.792  0.0083 -0.0413  0.1364
66433W        W67297  24.250  14.885   0.111  0.2669  0.0665 -0.0665
66434W        W67298  23.150  11.705  28.931  0.0874 -0.3217 -0.2291
66435W        W67299  23.511  12.354  26.387  0.0590 -0.0715  0.0870
66436W        W67300  23.409  13.242  28.695 -0.1179 -0.1877 -0.1173
66437W        W67301  23.523  13.965   0.790 -0.1253  0.0945 -0.0798
66438W        W67302  27.376  11.556  27.385  0.1085  0.1742  0.0782
66439W        W67303  24.198  15.417   2.554  0.0142  0.1832 -0.3227
66440W        W67304  23.934  13.219   0.101 -0.0371 -0.1147 -0.2110
66441W        W67305  24.747  12.765  26.630  0.0926 -0.0513 -0.0361
66442W        W67306  24.922  14.339  28.238  0.0810 -0.1769  0.0048
66443W        W67307  24.024  15.019  26.098  0.0725  0.1298  0.2027
66444W        W67308  26.306  10.690  28.658  0.1476  0.0943  0.1988
66445W        W67309  22.442  12.590  26.736 -0.3624 -0.1248  0.0795
66446W        W67310  24.018  14.203   0.673  0.1633  0.0449  0.3072
66447W        W67311  23.871  14.089  25.503  0.0171  0.1662 -0.2502
66448W        W67312  22.469  13.210  23.424  0.1634  0.0620 -0.0373
66449W        W67313  25.484  18.108   6.292  0.0607  0.0510  0.0405
66450W        W67314  22.064  17.117   5.462  0.0826  0.0729 -0.2794
66451W        W67315  24.585  15.274  28.356  0.0874  0.2257 -0.0899
66452W        W67316  25.775  17.962   3.340  0.0417 -0.1694  0.1985
66453W        W67317  24.435  18.858   0.559  0.1952 -0.3667 -0.1326
66454W        W67318  22.939  12.505   0.670 -0.2426 -0.1751 -0.2728
66455W        W67319  22.059  14.085   3.087  0.1871 -0.0515  0.1476
66456W        W67320  25.332  16.230   0.124 -0.2058 -0.3026  0.2773
66457W        W67321  24.389  18.200   1.824 -0.1208  0.0558  0.0937
66458W        W67322  20.681  13.338   0.388 -0.1765 -0.1528 -0.1081
66459W        W67323  18.396  12.406   4.863 -0.1062  0.0437 -0.0146
66460W        W67324  25.592  16.577   3.581  0.0719 -0.0681  0.0422
66461W        W67325  24.627  14.956   0.560  0.3517  0.0184 -0.0207
66462W        W67326  23.246  13.660   2.676 -0.4018 -0.0666 -0.2509
66463W        W67327  23.352  16.706   1.796  0.0198  0.1723  0.2343
66464W        W67328  22.377  18.390   4.411  0.2274 -0.0279 -0.2669
66465W        W67329  22.171  16.497  28.822  0.1190  0.3240  0.1881
66466W        W67330  21.529  15.817   1.473  0.0976 -0.2045 -0.0634
66467W        W67331  23.085  15.375   1.307 -0.2075  0.2688 -0.3092
66468W        W67332  24.186  14.507   2.001 -0.0853 -0.0828 -0.1386
66469W        W67333  26.273  15.878   3.362  0.0995 -0.3059 -0.0926
66470W        W67334  20.249  16.256   3.728  0.0697  0.0119 -0.0304
66471W        W67335  23.055  16.738   2.231 -0.0982  0.1181  0.0569
66472W        W67336  23.175  17.880   2.136  0.2246  0.0769  0.0479
66473W        W67337  23.244  17.227   3.248  0.1005  0.0684  0.1721
66474W        W67338  24.511  16.598   0.352 -0.3977 -0.0529 -0.2739
66475W        W67339  28.077  15.411   3.623 -0.2350  0.1822  0.0107
66476W        W67340  23.828  17.058   3.957  0.3652  0.1360 -0.1517
66477W        W67341  24.644  16.394   1.377  0.2048 -0.1371 -0.2601
66478W        W67342  22.657  15.850   0.767  0.0547  0.0095  0.0061
66479W        W67343  24.416  15.131   1.745  0.1192 -0.2806 -0.0716
66480W        W67344  24.747  17.722   5.366  0.1689 -0.2338  0.2898
66481W        W67345  25.257  15.954   5.124 -0.4587  0.2811 -0.1563
66482W        W67346  25.017  15.826   4.675  0.0682 -0.0251 -0.0114
66483W        W67347  23.979  16.013   4.803 -0.1842  0.0498 -0.3793
66484W        W67348  25.257  16.647   3.987 -0.2324 -0.1050 -0.2137
66485W        W67349  22.425  13.401  28.422 -0.0796 -0.4776 -0.1977
66486W        W67350  22.430  18.606   2.173 -0.1155  0.0840 -0.0478
66487W        W67351  24.258  18.606   2.825 -0.1819 -0.0066 -0.2184
66488W        W67352  25.733  14.586   1.790  0.3304 -0.0594  0.1461
66489W        W67353  25.522  15.321  28.682  0.0020  0.0025  0.0878
66490W        W67354  27.146  16.668   3.014  0.1048 -0.4224  0.0649
66491W        W67355  23.625  15.723   4.518 -0.0553 -0.0880 -0.0109
66492W        W67356  23.885  14.098  28.868  0.0216 -0.1071 -0.0722
66493W        W67357  22.179  17.884  26.923 -0.0240  0.1139  0.1125
66494W        W67358  22.143  15.202  28.893 -0.0517  0.0312 -0.0732
66495W        W67359  23.201  14.498   4.052  0.3087  0.1610  0.1293
66496W        W67360  24.164  16.359   5.467 -0.1896  0.1018 -0.0437
66497W        W67361  23.784  15.175   0.210  0.0933  0.0585  0.0689
66498W        W67362  23.441  14.352   0.459 -0.0329 -0.0607  0.0229
66499W        W67363  24.295  16.778   2.179  0.1047 -0.0346 -0.0793
66500W        W67364  23.879  14.789   0.511  0.1042 -0.1674  0.0908
66501W        W67365  24.627  19.008   3.575  0.3731  0.3497  0.3614
66502W        W67366  26.243  17.023   1.069 -0.4376 -0.1384 -0.2008
66503W        W67367  24.574  16.202   2.676  0.1122  0.2604  0.1256
66504W        W67368  23.657  17.593  27.691  0.3210 -0.0650  0.3437
66505W        W67369  22.839  15.911   2.394  0.2175 -0.0173  0.2282
66506W        W67370  26.942  14.467   1.969  0.1616  0.3541 -0.0707
66507W        W67371  21.002  17.423   1.092  0.1070  0.3035  0.1843
66508W        W67372  22.131  16.362  27.673 -0.0311 -0.2025  0.0842
66509W        W67373  24.621  14.316   1.733  0.1300 -0.1521  0.2950
66510W        W67374  21.504  17.831   2.574  0.2402 -0.2191  0.0531
66511W        W67375  23.515  17.637   3.135 -0.1477 -0.0554 -0.0516
66512W        W67376  22.446  15.152   2.070  0.2627 -0.3904  0.0164
66513W        W67377  23.415  12.910   1.148 -0.2633  0.2607  0.0565
66514W        W67378  27.346  13.540   2.018 -0.2388 -0.0733 -0.1065
66515W        W67379  21.235  14.620   0.718 -0.0951 -0.2832 -0.0339
66516W        W67380  22.898  16.237   1.209  0.1787 -0.0027  0.0706
66517W        W67381  21.667  18.841   0.491 -0.1190  0.0645  0.1612
66518W        W67382  23.383  17.204   2.033 -0.1953  0.1549  0.0814
66519W        W67383  25.748  18.056   4.158 -0.2682 -0.0512  0.2955
66520W        W67384  23.483  16.156   3.689  0.0005 -0.1408 -0.0756
66521W        W67385  22.362  17.660  28.944 -0.0464 -0.0637  0.2336
66522W        W67386  25.501  16.055   4.442  0.0959 -0.3786 -0.1753
66523W        W67387  24.102  14.150   0.142 -0.1081  0.1236 -0.1698
66524W        W67388  24.564  17.091   5.349 -0.2059  0.0167 -0.1319
66525W        W67389  23.500  14.173   1.450  0.2200  0.1199  0.1376
66526W        W67390  22.015  18.993   0.033  0.1982 -0.0448  0.0414
66527W        W67391  24.971  15.306   1.832  0.1705 -0.1500  0.0119
66528W        W67392  27.133  16.197   0.540  0.1108 -0.2948 -0.0062
66529W        W67393  23.783  15.264   2.376  0.0763  0.4273  0.0615
66530W        W67394  21.473  14.889   3.679 -0.0194 -0.1087 -0.4186
66531W        W67395  21.912  14.377   0.781 -0.1752 -0.1050  0.1279
66532W        W67396  20.933  13.952   2.236 -0.1767 -0.1273  0.1632
66533W        W67397  22.747  18.539   2.666 -0.0554  0.1347 -0.2775
66534W        W67398  25.802  17.851   0.393 -0.3193 -0.2699  0.2008
66535W        W67399  27.084  17.559   4.436  0.2245 -0.1896 -0.1525
66536W        W67400  23.745  15.535   2.797  0.1076 -0.3206  0.0189
66537W        W67401  24.375  17.057   3.642 -0.0957 -0.0492  0.0729
66538W        W67402  25.956  15.390   2.314 -0.0021 -0.0529  0.0106
66539W        W67403  22.851  14.619   2.942 -0.0617 -0.0229  0.0370
66540W        W67404  26.313  15.938   2.421 -0.0491  0.3937 -0.1003
66541W        W67405  22.790  17.273   0.317 -0.0011  0.3450 -0.2741
66542W        W67406  24.253  17.305  28.717 -0.3191 -0.1358 -0.2900
66543W        W67407  20.334  14.721   4.707  0.1563 -0.0689  0.1614
66544W        W67408  26.578  15.978   1.990  0.0725  0.1392 -0.0316
66545W        W67409  26.511  15.384   0.302  0.1919 -0.0429 -0.2736
66546W        W67410  20.989  17.318   5.531  0.1826  0.0252 -0.0771
66547W        W67411  22.180  12.279  27.699 -0.3204 -0.0667 -0.3079
66548W        W67412  23.934  15.009   1.863  0.0876 -0.0759  0.3017
66549W        W67413  26.587  16.480   2.824  0.0934 -0.1858  0.0321
66550W        W67414  24.017  16.641   2.918 -0.0143 -0.0043 -0.2437
66551W        W67415  23.248  15.354  27.773 -0.0150 -0.1059 -0.1603
66552W        W67416  24.731  17.278   2.883 -0.2113 -0.0730 -0.1102
66553W        W67417   1.048  13.984   4.524 -0.0335 -0.2557  0.2632
66554W        W67418  25.039  14.055   4.094  0.0804 -0.0412 -0.0186
66555W        W67419  24.381  16.778  28.700  0.1177  0.0658 -0.1167
66556W        W67420  24.694  16.921   3.238  0.3411 -0.0174  0.4255
66557W        W67421  24.792  15.430   1.245  0.0276 -0.1520 -0.0221
66558W        W67422  25.095  16.618   3.384  0.1357  0.1975  0.0073
66559W        W67423  23.325  16.668   3.296  0.1960 -0.0467  0.1039
66560W        W67424  24.835  18.721  28.134 -0.1829  0.0210  0.1002
66561W        W67425  24.518  15.409   0.814 -0.0515 -0.1382 -0.1184
66562W        W67426  23.772  17.347   2.753  0.0524 -0.2344 -0.2591
66563W        W67427  26.221  14.999   0.069  0.1121 -0.1342 -0.4924
66564W        W67428  24.339  18.421   1.340 -0.1327  0.1712 -0.1385
66565W        W67429  26.350  15.003   3.072  0.4060  0.0939 -0.0674
66566W        W67430  24.854  17.763   2.807  0.1034 -0.4273  0.1961
66567W        W67431  22.363  12.937   0.779  0.0101 -0.1571 -0.2080
66568W        W67432  28.409  16.102   1.102 -0.0590  0.2803  0.2891
66569W        W67433  27.837  17.010  28.829  0.0688 -0.1979  0.1102
66570W        W67434  26.504  18.063  27.578  0.0065  0.2859 -0.0385
66571W        W67435  25.028  16.860   2.900 -0.0731 -0.1455  0.2301
66572W        W67436  23.618  16.956   2.942  0.1380 -0.0424  0.0974
66573W        W67437  25.252  14.962   5.070  0.0809  0.1157  0.0263
66574W        W67438  23.580  16.340   2.185 -0.0718 -0.0663  0.1502
66575W        W67439  23.759  16.165   2.866  0.3627 -0.1088 -0.1569
66576W        W67440  24.210  17.770   2.430  0.1077 -0.0470 -0.0946
66577W        W67441  26.487  16.577   1.210 -0.1415  0.1654  0.3965
66578W        W67442  22.783  15.731   1.331  0.0818  0.0110  0.0150
66579W        W67443  25.563  16.373   2.767  0.0978  0.1381 -0.4360
66580W        W67444  24.772  14.723   5.684 -0.1815 -0.0305 -0.2012
66581W        W67445  26.580  18.189   5.115 -0.0403  0.0610 -0.0301
66582W        W67446  27.123  13.803   1.571 -0.1653 -0.2353  0.1133
66583W        W67447  22.727  15.221   3.741 -0.0497 -0.3342  0.0963
66584W        W67448  22.830  18.304   2.204 -0.0973  0.0971  0.1149
66585W        W67449  25.060  15.228   2.321  0.0983  0.0051  0.0206
66586W        W67450  24.748  15.801   0.835  0.0148 -0.1075 -0.0602
66587W        W67451  24.662  16.204   2.144 -0.1145 -0.3111 -0.1025
66588W        W67452  23.615  15.979  28.366  0.0977 -0.1196 -0.0312
66589W        W67453  21.156  15.431  28.056 -0.1265 -0.2091 -0.0456
66590W        W67454  23.516  12.586   2.796  0.1215 -0.1208 -0.0271
66591W        W67455  20.984  17.260   1.864 -0.4204 -0.1004 -0.0847
66592W        W67456  23.088  17.009   1.325  0.2248  0.1609  0.1609
66593W        W67457  21.977  15.223   4.605  0.0250 -0.1414  0.0113
66594W        W67458  24.433  17.650   3.440 -0.0165 -0.1447  0.3100
66595W        W67459  21.311  12.834   2.815 -0.2544 -0.1371  0.1059
66596W        W67460  24.164  18.506   0.779  0.0397  0.0439 -0.1564
66597W        W67461  24.875  16.552   2.499 -0.3752 -0.0665  0.2467
66598W        W67462  23.190  18.170   2.510  0.4205 -0.0254  0.3110
66599W        W67463  26.005  17.791   1.470 -0.0285  0.0316 -0.1514
66600W        W67464  22.721  11.589   0.058  0.0654  0.0271  0.0951
66601W        W67465  23.381  18.589   2.164 -0.1522 -0.1353 -0.0482
66602W        W67466  22.674  12.233  27.618  0.1496 -0.1003 -0.5589
66603W        W67467  22.968  14.937   1.602  0.2541 -0.0728  0.0427
66604W        W67468  23.787  14.458  28.030 -0.1426 -0.2637 -0.0266
66605W        W67469  22.678  16.620   2.586  0.0729 -0.0707 -0.4265
66606W        W67470  26.085  14.165   1.779 -0.3276 -0.2832 -0.1807
66607W        W67471  21.607  11.301  28.574  0.0413  0.2111  0.7421
66608W        W67472  22.731  14.982   0.531 -0.4360  0.1186 -0.0561
66609W        W67473  26.057  14.573   2.800  0.2304 -0.4504 -0.2449
66610W        W67474  22.908  16.946   3.458  0.3839  0.4162  0.4506
66611W        W67475  25.183  16.243   3.709 -0.0998 -0.4565  0.1032
66612W        W67476  23.988  17.322   2.214  0.0444  0.2672 -0.2363
66613W        W67477  22.730  13.893   4.209  0.2224  0.0400  0.0265
66614W        W67478  22.003  13.612   0.447  0.3107  0.0745  0.1255
66615W        W67479  21.629  15.278   0.039  0.1456  0.3308 -0.1626
66616W        W67480  22.640  16.428  28.475 -0.0321  0.3141  0.0407
66617W        W67481  20.905  18.026   6.339  0.2640 -0.0507  0.0567
66618W        W67482  20.910  17.956   1.220 -0.1256  0.4015  0.0051
66619W        W67483  22.008  16.290   0.992  0.3520 -0.0841 -0.3481
66620W        W67484  25.052  14.880   0.803  0.0483  0.1078 -0.0107
66621W        W67485  24.684  17.216   0.898  0.1556 -0.1936 -0.0713
66622W        W67486  26.302  18.245   0.752 -0.0120 -0.0424 -0.0317
66623W        W67487  23.258  16.258   1.600  0.0921 -0.1444 -0.0396
66624W        W67488  25.037  15.213   0.368  0.1114  0.1792 -0.2066
66625W        W67489  21.692  17.031   4.293  0.1016 -0.3630 -0.0618
66626W        W67490  23.306  17.820   3.949  0.1357  0.0337  0.0756
66627W        W67491  22.156  18.071  28.855 -0.3757 -0.0385  0.3076
66628W        W67492  23.821  15.818   2.373 -0.0228 -0.1788  0.0178
66629W        W67493  21.642  17.871  26.839 -0.1769  0.0787  0.1296
66630W        W67494  23.658  18.937  27.999  0.2926  0.1618  0.3979
66631W        W67495  24.426  14.986  28.751  0.0443 -0.0123  0.4536
66632W        W67496  23.454  16.322  27.827 -0.0601  0.0428 -0.0877
66633W        W67497  25.175  14.687   2.670 -0.1192 -0.2620 -0.1326
66634W        W67498  22.833  17.661   2.584  0.4063 -0.0884  0.2504
66635W        W67499  25.927  14.007   4.608 -0.0508 -0.0865  0.1346
66636W        W67500  22.019  15.402   0.633 -0.0580 -0.0641  0.0028
66637W        W67501  20.921  16.944   2.639 -0.0798 -0.1142 -0.2848
66638W        W67502  23.055  17.419   3.721  0.0476  0.0152 -0.0951
66639W        W67503  22.936  16.979   1.798  0.0248  0.0651  0.1503
66640W        W67504  23.539  18.328   1.152 -0.2526 -0.3462  0.1783
66641W        W67505  23.553  17.937   3.517  0.0356 -0.0784 -0.1027
66642W        W67506  21.162  14.383   2.165  0.1652  0.0218  0.1599
66643W        W67507  22.030  14.777   3.404  0.0759  0.4524  0.1353
66644W        W67508  25.504  12.644   0.749 -0.1701  0.0306 -0.3102
66645W        W67509  24.100  15.047   0.875  0.4248  0.1026  0.0247
66646W        W67510  21.935  12.607   0.804 -0.0448  0.0629  0.3224
66647W        W67511  23.969  16.694   0.429 -0.0766  0.0455  0.2208
66648W        W67512  24.987  13.932   0.889 -0.2017 -0.1638 -0.0577
66649W        W67513  24.655  17.546   0.487 -0.0274 -0.1284 -0.0781
66650W        W67514  23.476  15.179   1.537 -0.0555  0.0451 -0.0283
66651W        W67515  24.523  14.986   1.129 -0.3622 -0.1626 -0.0643
66652W        W67516  22.376  15.397   1.183  0.3309 -0.0029 -0.0292
66653W        W67517  23.651  13.458   0.430  0.0918  0.3489  0.1577
66654W        W67518  22.060  14.699  27.687 -0.2927  0.1277 -0.2814
66655W        W67519  24.283  16.613   3.985 -0.1090 -0.3237  0.0108
66656W        W67520  23.285  14.411   0.979 -0.0053 -0.0432 -0.1649
66657W        W67521  24.092  16.712  28.288 -0.0318 -0.2800 -0.0678
66658W        W67522  22.373  15.631   0.340  0.0664  0.0169  0.0892
66659W        W67523  20.851  16.508   4.331 -0.1968  0.1103  0.3879
66660W        W67524  22.178  15.814   3.174  0.0040  0.0299  0.0928
66661W        W67525  23.269  15.987   4.148  0.2816 -0.1820 -0.4822
66662W        W67526  23.286  16.350  28.416  0.0601 -0.1147  0.1636
66663W        W67527  25.178  16.669   2.030  0.1476  0.0426 -0.3865
66664W        W67528  25.327  15.975  28.787 -0.1638 -0.2012 -0.0357
66665W        W67529  23.897  18.805   0.091 -0.1496  0.0343 -0.3618
66666W        W67530  25.549  17.428   1.459 -0.1674 -0.2185  0.1016
66667W        W67531  23.942  13.960   3.135  0.0138  0.1736 -0.0171
66668W        W67532  22.346  15.226   3.334  0.1468  0.1489  0.3207
66669W        W67533  27.089  15.307   4.890  0.1208  0.1168 -0.0737
66670W        W67534  23.473  15.545   0.151 -0.0267 -0.2614 -0.0838
66671W        W67535  22.195  16.875   4.567 -0.0277 -0.1204 -0.2544
66672W        W67536  23.178  13.127   0.086  0.2511  0.0596  0.2040
66673W        W67537  27.576  17.217   0.603  0.0741  0.0103  0.0504
66674W        W67538  21.077  12.268   5.392 -0.0220 -0.2089 -0.1025
66675W        W67539  21.214  17.445   5.018 -0.2099 -0.0593  0.3449
66676W        W67540  24.146  14.931   3.491  0.0512  0.1778 -0.0466
66677W        W67541  26.023  17.242   1.558  0.2287  0.0699 -0.0564
66678W        W67542  22.936  18.986   2.981  0.5505  0.0312  0.3476
66679W        W67543  22.018  14.518   1.330  0.1986 -0.1283  0.0001
66680W        W67544  22.386  15.327   2.812 -0.3693 -0.0098 -0.3049
66681W        W67545  23.247  17.191   0.791  0.0571 -0.0817  0.0247
66682W        W67546  26.084  13.531   2.474 -0.4256  0.2973  0.0361
66683W        W67547  22.000  13.743   1.723 -0.0566  0.2529  0.0757
66684W        W67548  25.318  17.794   0.392  0.0099 -0.0313  0.1069
66685W        W67549  23.781  15.380   0.647  0.3369  0.0261 -0.1406
66686W        W67550  23.640  14.240   3.395  0.3135 -0.1692  0.0358
66687W        W67551  23.977  17.913   1.980  0.0528  0.0062 -0.2836
66688W        W67552  23.318  15.876   2.563 -0.0014  0.0185  0.1253
66689W        W67553  24.260  17.939   0.063  0.0906 -0.2562  0.2393
66690W        W67554  22.124  15.977   4.967  0.0362  0.0085  0.0393
66691W        W67555  23.512  16.676   1.277 -0.1689 -0.2779  0.0731
66692W        W67556  23.459  11.972   1.041 -0.0848 -0.1441 -0.0715
66693W        W67557  23.020  14.987   2.184  0.0522  0.3095  0.2362
66694W        W67558  20.875  15.458  28.474  0.0429 -0.0877 -0.1766
66695W        W67559  28.547  17.642   1.418  0.0716  0.3607 -0.1483
66696W        W67560  20.259  18.056   5.075 -0.2967  0.1673  0.0860
66697W        W67561  28.192  18.120   0.039  0.0676  0.3251 -0.0011
66698W        W67562  23.330  14.544   3.096 -0.0713  0.1137  0.1079
66699W        W67563  23.927  16.875   2.506 -0.0563 -0.1510  0.1236
66700W        W67564  24.877  17.609   2.015  0.0816 -0.0032 -0.1334
66701W        W67565  23.024  16.232   4.906 -0.3447  0.0511 -0.1005
66702W        W67566  24.199  16.292   4.345  0.0199 -0.2637  0.0223
66703W        W67567  22.250  16.132   0.595 -0.1065  0.3420 -0.1227
66704W        W67568  26.819  18.252   0.952  0.1956 -0.0781  0.2336
66705W        W67569  25.940  13.885  28.387 -0.0754 -0.2255 -0.0564
66706W        W67570  23.943  11.812   2.913  0.1481  0.0403  0.1957
66707W        W67571  25.990  16.189   1.609  0.2814  0.1871  0.2751
66708W        W67572  25.270  15.392   1.378 -0.0106 -0.0973  0.0755
66709W        W67573  23.313  14.839   0.605 -0.0385  0.2655  0.0189
66710W        W67574  23.288  14.582   2.437 -0.1114 -0.1063  0.1442
66711W        W67575  26.470  18.857   2.686  0.1181 -0.0990  0.2267
66712W        W67576  22.500  13.273   3.482  0.2720 -0.0496  0.2752
66713W        W67577  22.357  16.405   2.937  0.0811 -0.0600  0.0172
66714W        W67578  21.599  18.066  28.933  0.1656 -0.2360 -0.0367
66715W        W67579  25.050  16.880   0.886  0.3151 -0.2201 -0.0742
66716W        W67580  23.953  16.091   1.990  0.0089  0.3143  0.0393
66717W        W67581  19.949  13.704   1.687 -0.2467 -0.1525  0.0103
66718W        W67582  25.025  16.252   1.780  0.2004 -0.0618  0.1084
66719W        W67583  23.360  15.753   1.521 -0.1063  0.0509 -0.0973
66720W        W67584  23.246  15.394   2.418 -0.0143  0.0594 -0.1060
66721W        W67585  25.104  15.708   2.893  0.1470 -0.1977  0.1444
66722W        W67586  25.549  16.247   3.998  0.1487  0.0041 -0.0626
66723W        W67587  26.257  18.998   3.332 -0.3694 -0.1054 -0.1945
66724W        W67588  25.991  14.856   5.702  0.0075  0.4406  0.0518
66725W        W67589  26.332  14.920   3.608 -0.1630 -0.2310  0.2806
66726W        W67590  21.844  13.929   2.177  0.3052  0.2705 -0.0515
66727W        W67591  22.208  15.597   2.251  0.0014 -0.0442  0.4259
66728W        W67592  22.246  18.926   1.821  0.0161  0.1521  0.0289
66729W        W67593  21.030  15.618   1.714 -0.0640 -0.3127 -0.0661
66730W        W67594  24.076  13.223   1.205  0.2523  0.1718 -0.0086
66731W        W67595  26.007  17.142  28.756  0.1123 -0.0949 -0.0459
66732W        W67596  21.714  16.710   0.973 -0.1510 -0.2489  0.2352
66733W        W67597  25.594  15.331   0.777  0.3095 -0.0323 -0.1772
66734W        W67598  24.252  15.876   3.937 -0.0375 -0.3698 -0.1854
66735W        W67599  22.767  13.218   0.712 -0.1391 -0.2009 -0.3115
66736W        W67600  21.056  13.510   1.815  0.1785  0.4494 -0.1348
66737W        W67601  25.073  14.223   0.200  0.3102  0.1543  0.2550
66738W        W67602  29.081  16.943   5.476  0.1997  0.1317 -0.0381
66739W        W67603  23.403  15.836   3.080 -0.1410 -0.0696  0.0957
66740W        W67604  25.203  14.810  27.325 -0.2768 -0.0083  0.0183
66741W        W67605  26.345  13.963   3.476 -0.0551  0.1611 -0.0905
66742W        W67606  20.252  15.301   2.305  0.3084 -0.0598  0.0379
66743W        W67607  23.504  17.672   1.784  0.4015 -0.1231 -0.1599
66744W        W67608  26.635  16.215   4.586 -0.3465 -0.1806 -0.0208
66745W        W67609  23.038  14.080   1.703  0.2692  0.0647  0.1014
66746W        W67610  24.132  15.521   1.991  0.2433  0.1955  0.1514
66747W        W67611  26.870  12.813   3.136 -0.1752 -0.0585 -0.0888
66748W        W67612  21.853  16.973   3.398  0.1345  0.0604 -0.1317
66749W        W67613  24.651  15.451   2.824 -0.2780  0.0842 -0.4019
66750W        W67614  21.198  14.339   4.910 -0.0046 -0.0240 -0.2042
66751W        W67615  23.977  16.140   3.626  0.1390  0.1207  0.0022
66752W        W67616  25.897  17.029   0.099  0.0619  0.2209 -0.5063
66753W        W67617  24.191  14.513  28.850 -0.1532 -0.1099  0.0224
66754W        W67618  23.310  20.132   4.371  0.4088  0.2790  0.0109
66755W        W67619  26.595  20.043   4.003  0.0234  0.1206  0.3132
66756W        W67620  27.201  14.233   1.334 -0.0718  0.1095 -0.1047
66757W        W67621  22.891  14.139   0.994 -0.0805  0.0684 -0.0289
66758W        W67622  24.231  16.925   0.947  0.0806  0.2756  0.0109
66759W        W67623  24.067  12.878   2.067  0.1221  0.1524  0.0025
66760W        W67624  21.029  14.190   1.094 -0.0105  0.0141  0.0502
66761W        W67625  24.041  16.369   2.459  0.0480  0.1863  0.0725
66762W        W67626  24.336  17.079   0.458 -0.0388  0.3379 -0.1071
66763W        W67627  23.286  16.877   4.321 -0.1582  0.0993  0.0013
66764W        W67628  24.855  17.139   4.573  0.0370  0.0474  0.0881
66765W        W67629  22.865  16.734   0.098 -0.0714  0.1919  0.0408
66766W        W67630  24.256  14.981   2.262 -0.0460 -0.0003 -0.1140
66767W        W67631  22.841  19.168   5.448 -0.1391 -0.1347  0.5764
66768W        W67632  21.046  17.702   2.128  0.2249 -0.1135 -0.1891
66769W        W67633  25.122  18.783   3.590 -0.0771 -0.2447  0.0175
66770W        W67634  25.170  17.226   2.106  0.2655  0.2991 -0.0732
66771W        W67635  23.356  17.721   2.653 -0.1645 -0.1164 -0.1866
66772W        W67636  24.308  16.059   0.998 -0.0911  0.0193 -0.1167
66773W        W67637  23.457  16.683  28.882  0.0856  0.1026 -0.4099
66774W        W67638  24.215  15.769   0.613 -0.1370 -0.0543  0.3395
66775W        W67639  23.132  12.664   1.521 -0.0132  0.1567 -0.1863
66776W        W67640  21.207  17.783  26.535  0.1765  0.2534 -0.0476
66777W        W67641  23.975  15.725   0.129 -0.1628  0.1184 -0.0599
66778W        W67642  22.003  18.415  28.168 -0.0487 -0.0926  0.1285
66779W        W67643  22.787  13.657   3.774  0.3078 -0.1543 -0.1433
66780W        W67644  25.474  15.917  27.875  0.0368  0.0197  0.0666
66781W        W67645  24.269  15.342  29.113 -0.0950 -0.0737 -0.1504
66782W        W67646  25.213  17.115   4.226  0.1140 -0.3403  0.1118
66783W        W67647  25.173  15.742   0.455  0.0276 -0.0752  0.0266
66784W        W67648  28.726  18.754   3.527  0.3018 -0.2146  0.3466
66785W        W67649  24.483  18.078   4.451 -0.2299  0.1590 -0.1609
66786W        W67650  24.698  16.977   4.027 -0.0176  0.0491  0.0803
66787W        W67651  21.823  17.307   1.635  0.0526  0.1601  0.1803
66788W        W67652  22.466  15.797   2.704 -0.1674 -0.0329  0.0655
66789W        W67653  24.678  17.132   1.916 -0.0459 -0.1253 -0.0766
66790W        W67654  21.104  15.518   4.309 -0.0307 -0.1904 -0.0571
66791W        W67655  23.811  16.038   1.201  0.1523  0.0583 -0.1254
66792W        W67656  24.672  17.502   2.441 -0.0385  0.1077 -0.2034
66793W        W67657  24.294  18.918   3.201 -0.1536 -0.2056  0.4007
66794W        W67658  23.182  20.314   1.652 -0.1170 -0.0251  0.2306
66795W        W67659  22.614  16.643  27.331  0.3893 -0.0329 -0.1434
66796W        W67660  22.107  11.133   2.526 -0.0534  0.0673  0.1002
66797W        W67661  21.643  18.275   4.741 -0.0734  0.2238 -0.1118
66798W        W67662  22.740  15.389   2.395  0.0523  0.0630 -0.0759
66799W        W67663  23.002  16.733   4.886  0.3247  0.0626 -0.2424
66800W        W67664  25.836  16.320   0.746  0.2509 -0.0483 -0.0973
66801W        W67665  25.777  17.871   5.262  0.1154 -0.4509  0.0093
66802W        W67666  23.767  16.869   2.045  0.5490  0.2653  0.1553
66803W        W67667  26.011  15.553   0.345  0.1085 -0.1350 -0.1455
66804W        W67668  25.686  15.536  28.183  0.2464 -0.3429 -0.3491
66805W        W67669  21.442  19.216  28.274  0.1606 -0.2092  0.0393
66806W        W67670  25.965  16.168   3.084  0.3373  0.1488 -0.1184
66807W        W67671  23.006  14.476   1.391  0.3607  0.2259 -0.4199
66808W        W67672  23.118  14.860   1.072 -0.0934  0.1190 -0.1873
66809W        W67673  22.048  13.076  28.768  0.2038 -0.1018  0.3108
66810W        W67674  26.889  16.282   5.029 -0.0309  0.1592 -0.0393
66811W        W67675  21.669  16.516   3.513  0.1149 -0.1846 -0.2862
66812W        W67676  25.063  15.776   2.014  0.0017 -0.1794 -0.3452
66813W        W67677  25.250  17.511   3.842  0.1382 -0.1410  0.1041
66814W        W67678  28.563  15.917   2.834 -0.2897  0.0702  0.2343
66815W        W67679  23.730  16.389   1.621 -0.0782  0.2098 -0.0685
66816W        W67680  22.323  17.240   2.479 -0.0102 -0.4615 -0.2964
66817W        W67681  24.147  13.675  29.107 -0.2008 -0.1162  0.0780
66818W        W67682  24.932  15.668  28.662  0.0488 -0.1149  0.0828
66819W        W67683  22.529  14.112   1.431  0.1021 -0.2106  0.2804
66820W        W67684  23.896  15.239   3.211  0.1191 -0.1766  0.0793
66821W        W67685  26.909  15.490   1.335 -0.1906 -0.0639  0.1046
66822W        W67686  26.411  15.508   3.081  0.3960  0.0224 -0.0110
66823W        W67687  23.142  16.756  27.573 -0.0987  0.1437  0.0062
66824W        W67688  23.444  11.152   2.375 -0.0316 -0.0026  0.0947
66825W        W67689  25.517  14.323   3.852  0.1449 -0.0502 -0.1827
66826W        W67690  26.073  16.424   2.608 -0.0864 -0.1994  0.1359
66827W        W67691  25.864  15.522   3.206 -0.0291  0.1824  0.3285
66828W        W67692  23.459  14.613   3.672 -0.0722  0.0857 -0.1864
66829W        W67693  22.366  15.685   3.668 -0.1896  0.2529  0.0612
66830W        W67694  23.160  16.020   2.037 -0.1367  0.0057  0.3240
66831W        W67695  21.848  15.141   3.114  0.2872 -0.1231 -0.3194
66832W        W67696  25.986  17.512  29.130 -0.0704 -0.0161 -0.2746
66833W        W67697  27.884  19.955   5.230 -0.0940 -0.1539 -0.0297
66834W        W67698  24.160  15.822   2.866  0.0710 -0.1662 -0.0482
66835W        W67699  26.361  18.597   2.082  0.1197  0.1551  0.2444
66836W        W67700  23.778  19.313   3.825  0.1226 -0.0124 -0.0819
66837W        W67701  23.310  17.511   1.263  0.1070 -0.1971 -0.1607
66838W        W67702  25.383  17.806   2.881 -0.0912 -0.1025  0.2013
66839W        W67703  22.808  14.822   4.087 -0.0351 -0.1184  0.3909
66840W        W67704  22.641  16.798   0.573 -0.0570  0.0733  0.0292
66841W        W67705  24.064  17.964   3.573  0.3246 -0.0967 -0.0924
66842W        W67706  25.296  19.540   2.448 -0.0989  0.2002 -0.1189
66843W        W67707  23.926  17.445   1.692 -0.4066  0.0399  0.1450
66844W        W67708  23.296  13.297   2.278  0.3014 -0.0714 -0.0534
66845W        W67709  22.742  17.933   0.610  0.1657 -0.2953 -0.2297
66846W        W67710  22.504  15.981   5.341 -0.1800 -0.1483 -0.2616
66847W        W67711  23.617  17.249  28.069 -0.0583  0.1250 -0.0566
66848W        W67712  24.260  16.056   1.515  0.2283 -0.1001 -0.0481
66849W        W67713  21.923  19.027   8.187 -0.3438 -0.0453  0.2385
66850W        W67714  23.042  15.814   4.559 -0.0819 -0.0706 -0.0287
66851W        W67715  25.236  18.953   4.233 -0.0007 -0.1528  0.1105
66852W        W67716  27.191  16.695   7.597  0.1084  0.1238 -0.2359
66853W        W67717  23.771  17.927   6.132  0.2588  0.0241 -0.0003
66854W        W67718  22.618  15.492   4.732 -0.0025  0.0556 -0.1895
66855W        W67719  21.940  16.042   3.576  0.3157  0.0252 -0.1656
66856W        W67720  22.773  18.664   7.840  0.0806  0.0612 -0.5384
66857W        W67721  25.455  16.846   7.673  0.2018  0.0970 -0.2739
66858W        W67722  19.848  14.081   5.558  0.1367  0.0287  0.4061
66859W        W67723  20.492  13.039   5.401  0.3694 -0.4433  0.0778
66860W        W67724  23.577  14.875   5.937 -0.1065 -0.1723  0.1725
66861W        W67725  21.103  16.155   5.751  0.2178  0.2299  0.1933
66862W        W67726  26.100  15.097   6.146  0.1133  0.0151  0.2171
66863W        W67727  22.613  18.131   5.121  0.0416 -0.2559 -0.2493
66864W        W67728  20.409  16.445   7.692  0.0417  0.1487 -0.0788
66865W        W67729  27.308  18.386   3.896  0.0345  0.3625 -0.4009
66866W        W67730  22.586  16.050   7.886  0.0761 -0.0949  0.1322
66867W        W67731  24.944  14.875   8.139 -0.1313 -0.1525 -0.1503
66868W        W67732  27.741  15.421   3.217 -0.3307 -0.0266 -0.0990
66869W        W67733  26.102  13.431   6.987 -0.4553 -0.0263  0.1933
66870W        W67734  27.575  16.930   1.036  0.2402  0.1032  0.0552
66871W        W67735  24.939  15.588   5.915  0.1445  0.1146 -0.2574
66872W        W67736  23.747  16.567   3.796 -0.0021  0.0893  0.0398
66873W        W67737  20.920  18.275   5.864 -0.2501 -0.0312  0.1543
66874W        W67738  26.916  15.210   5.663 -0.1180  0.2201 -0.2687
66875W        W67739  27.622  12.434   6.774  0.1904 -0.1331  0.2661
66876W        W67740  23.341  15.367   2.977 -0.3154  0.0031  0.1620
66877W        W67741  27.599  16.306   3.814  0.1739  0.1783  0.0424
66878W        W67742  23.406  12.398   5.553 -0.0714 -0.2731 -0.1669
66879W        W67743  21.241  15.389   1.260 -0.1204  0.0240  0.0302
66880W        W67744  25.405  16.797   8.210 -0.1148 -0.0755  0.1577
66881W        W67745  25.128  15.736   8.434  0.1384 -0.2705 -0.2526
66882W        W67746  24.584  16.969   6.804 -0.0395 -0.4253 -0.2284
66883W        W67747  23.107  16.035   7.945 -0.0084 -0.0522  0.1266
66884W        W67748  23.626  16.943   6.946 -0.2270  0.0875 -0.2135
66885W        W67749  24.664  16.042   5.625  0.0786 -0.2702 -0.2316
66886W        W67750  22.752  15.680   6.513  0.2919  0.0581  0.0811
66887W        W67751  26.721  16.131   6.000  0.2568 -0.2363  0.1773
66888W        W67752  24.231  14.985   6.994 -0.1236 -0.0325 -0.4825
66889W        W67753  26.733  16.543   3.367 -0.0058  0.0299 -0.2246
66890W        W67754  27.997  15.323   8.270  0.1046 -0.0251  0.1041
66891W        W67755  22.715  18.593   5.185 -0.0378  0.0057 -0.0672
66892W        W67756  28.681  14.650   3.855 -0.2533  0.1127 -0.0535
66893W        W67757  21.583  17.430   6.602  0.0924 -0.0489 -0.2148
66894W        W67758  22.094  18.069   5.183  0.0802  0.0527  0.0465
66895W        W67759  20.709  16.227   3.435 -0.1027  0.2628 -0.2687
66896W        W67760  25.871  13.405   8.136  0.3621  0.0850 -0.1128
66897W        W67761  22.957  16.836   2.889 -0.0434 -0.0454  0.1544
66898W        W67762  24.494  15.833   4.658 -0.0767 -0.0172 -0.2635
66899W        W67763  23.775  18.738   6.426 -0.0367 -0.0133 -0.1002
66900W        W67764  24.897  16.601   6.426  0.4067  0.1067 -0.0749
66901W        W67765  25.637  16.590   5.775 -0.1747 -0.2299 -0.1175
66902W        W67766  24.586  16.207   4.068 -0.0729 -0.1772 -0.0106
66903W        W67767  25.996  15.456   4.711 -0.0282 -0.1469 -0.0065
66904W        W67768  20.855  15.672   2.924 -0.3369  0.0607 -0.0818
66905W        W67769  21.878  16.963   7.346 -0.0640 -0.0719  0.0468
66906W        W67770  25.798  16.817   4.906 -0.0525  0.3237 -0.0638
66907W        W67771  24.748  18.447   7.109  0.0389  0.0187  0.1113
66908W        W67772  21.612  13.253   2.512  0.0364  0.1321 -0.2110
66909W        W67773  26.394  17.422  28.621  0.1744  0.0183  0.0947
66910W        W67774  20.933  16.122   4.857  0.0997 -0.1882  0.1054
66911W        W67775  24.256  19.412   8.084 -0.1223 -0.4170 -0.4366
66912W        W67776  22.546  16.618   3.708 -0.2243 -0.0775  0.1128
66913W        W67777  22.805  16.737   6.653  0.0790  0.0955  0.0870
66914W        W67778  24.729  16.248   4.587 -0.2401 -0.0208 -0.0268
66915W        W67779  22.450  17.676   5.968 -0.1577 -0.0915 -0.0626
66916W        W67780  21.949  14.239   4.104 -0.0478 -0.1537  0.0331
66917W        W67781  21.396  16.093   6.202 -0.1021  0.1840  0.3924
66918W        W67782  24.111  16.744   5.099 -0.1954 -0.1402 -0.0297
66919W        W67783  24.211  17.914   7.014 -0.0601 -0.1492 -0.0455
66920W        W67784  26.198  15.873   3.852 -0.2161 -0.1683  0.2466
66921W        W67785  26.047  15.311   1.615  0.3117  0.0722  0.0610
66922W        W67786  25.820  14.068   6.879  0.1307 -0.0273  0.0377
66923W        W67787  26.568  17.428   2.822  0.1050 -0.0977 -0.1124
66924W        W67788  21.277  14.877   5.084  0.1593  0.0712 -0.1337
66925W        W67789  21.801  16.259   4.002 -0.1799  0.1991 -0.0174
66926W        W67790  23.301  15.464   4.801 -0.1007 -0.0723 -0.0186
66927W        W67791  25.219  12.926   4.939 -0.0170 -0.2974  0.0409
66928W        W67792  26.720  15.479   6.219 -0.0051 -0.0430  0.0379
66929W        W67793  21.349  13.577   6.235  0.0099  0.0306 -0.1718
66930W        W67794  22.927  15.189   5.108 -0.3324  0.0446 -0.0957
66931W        W67795  22.185  14.258   1.747  0.0034 -0.2032 -0.3169
66932W        W67796  25.661  16.249   5.447  0.2200  0.2073 -0.0500
66933W        W67797  19.261  15.040   4.980  0.0108  0.2387  0.0572
66934W        W67798  24.265  17.080   3.108 -0.0824 -0.3155  0.1945
66935W        W67799  26.181  18.690   6.405 -0.0148  0.1953  0.2329
66936W        W67800  25.133  14.372   4.984 -0.4434  0.3535  0.0997
66937W        W67801  25.597  14.927   7.556  0.2944 -0.2252 -0.1060
66938W        W67802  22.554  11.595   7.651 -0.0916 -0.3038  0.0578
66939W        W67803  23.791  15.959   5.311 -0.1156 -0.2321 -0.0864
66940W        W67804  26.635  14.809   7.466 -0.0162  0.0265 -0.0054
66941W        W67805  24.119  19.852   7.801  0.1332 -0.0311 -0.3365
66942W        W67806  21.990  15.085   2.317  0.3122  0.1108  0.3374
66943W        W67807  21.264  14.126   5.483 -0.0557  0.1628 -0.0329
66944W        W67808  25.489  15.330   7.132  0.2298  0.1629 -0.2765
66945W        W67809  25.284  13.831   2.900 -0.1777 -0.0469  0.1347
66946W        W67810  25.588  18.519   5.574  0.0718 -0.0521  0.1716
66947W        W67811  24.671  14.988   2.514  0.0638 -0.1558 -0.1380
66948W        W67812  24.887  15.208   7.735  0.1622  0.2309  0.0642
66949W        W67813  25.579  14.820   2.990  0.0422 -0.0357 -0.0115
66950W        W67814  20.999  16.263   7.002 -0.0364 -0.0146  0.2027
66951W        W67815  22.419  13.437   5.473 -0.1895 -0.1081 -0.0298
66952W        W67816  25.093  16.272   2.837  0.1997  0.1215 -0.0888
66953W        W67817  26.902  15.771   4.810  0.0312  0.1676  0.0375
66954W        W67818  26.247  14.381   5.586 -0.2547 -0.1868 -0.1782
66955W        W67819  22.300  19.417   2.611  0.2911  0.1427  0.1310
66956W        W67820   0.123  15.903   6.786 -0.1839 -0.2781  0.1978
66957W        W67821  23.618  15.175   4.441  0.0418  0.1422 -0.1150
66958W        W67822  26.234  16.219   4.252  0.2278 -0.2589  0.3021
66959W        W67823  23.347  17.491   7.860  0.1486 -0.0729 -0.0438
66960W        W67824  25.722  17.404   4.358 -0.1287  0.0956 -0.0124
66961W        W67825  25.610  14.523   5.872 -0.2738 -0.0204  0.0358
66962W        W67826  25.360  15.763   6.288  0.2551  0.2857  0.1249
66963W        W67827  25.257  16.638   1.283  0.2011 -0.0268 -0.2264
66964W        W67828  23.468  15.038   2.025 -0.3716  0.4662 -0.1262
66965W        W67829  25.404  13.189   7.947  0.0523 -0.2607 -0.0181
66966W        W67830  25.749  17.787   4.668 -0.0195  0.1143  0.0863
66967W        W67831  24.235  15.742   6.508 -0.0849  0.1143  0.1313
66968W        W67832  27.091  16.411   3.775  0.1636  0.2272  0.2284
66969W        W67833  24.686  14.995   3.048 -0.0153  0.0533 -0.2600
66970W        W67834  25.108  17.030   3.638  0.0684 -0.0010  0.1575
66971W        W67835  25.245  16.379   4.782  0.0219  0.1446 -0.1532
66972W        W67836  25.679  18.435   4.600  0.4580 -0.2164 -0.1481
66973W        W67837  24.804  16.950   5.856 -0.1609  0.0614 -0.4181
66974W        W67838  27.000  17.569   4.897  0.2982  0.1189  0.0776
66975W        W67839  22.379  16.885   6.987 -0.2365  0.1358  0.4656
66976W        W67840  26.997  18.008   5.249  0.0014  0.0804  0.2089
66977W        W67841  22.201  18.510   5.420  0.1308  0.1764  0.2921
66978W        W67842  23.795  15.548   4.049 -0.1824 -0.0841  0.1044
66979W        W67843  26.854  17.039   5.644  0.3269  0.0028  0.0858
66980W        W67844  24.826  14.709   5.181 -0.3596 -0.0537  0.4818
66981W        W67845  24.400  17.455   7.291  0.1679  0.2076 -0.1051
66982W        W67846  24.790  15.212   5.081 -0.0486  0.0155  0.1860
66983W        W67847   0.578  15.081   4.430  0.0871 -0.3326  0.3733
66984W        W67848  24.208  15.722   8.549 -0.4204 -0.1139  0.5000
66985W        W67849  27.329  14.236   4.865  0.1227 -0.0702  0.1689
66986W        W67850  27.549  12.571   7.320 -0.3737  0.1880  0.3797
66987W        W67851  26.181  17.657   4.159 -0.1598  0.2613  0.0049
66988W        W67852  23.615  16.367   5.112  0.0567  0.1538  0.0219
66989W        W67853  22.567  11.883   1.243 -0.2538  0.1205  0.1972
66990W        W67854  22.159  15.172   7.007  0.0041 -0.1024 -0.2184
66991W        W67855  24.300  17.672   2.897 -0.0633 -0.2004  0.3982
66992W        W67856  22.117  17.606   5.584 -0.3093  0.0107 -0.0194
66993W        W67857  24.298  16.394   6.718 -0.1677 -0.0281 -0.1737
66994W        W67858  24.132  14.960   2.783 -0.1975  0.0297  0.1783
66995W        W67859  25.589  15.440   2.745 -0.0168 -0.0017 -0.0953
66996W        W67860  27.232  15.275   2.819  0.1968  0.0195  0.1711
66997W        W67861  26.147  18.622   4.639  0.0350  0.2460  0.1117
66998W        W67862  24.044  15.307   6.062  0.4208 -0.1472 -0.2868
66999W        W67863  25.215  17.751   5.134  0.0247  0.1128  0.0437
67000W        W67864  22.885  14.363   4.386  0.1992  0.0840  0.0725
67001W        W67865  23.112  16.432   3.656  0.2524  0.3535  0.0870
67002W        W67866  25.740  15.691   1.495 -0.2211  0.2973 -0.0421
67003W        W67867  23.570  14.526   6.329  0.2904  0.1893  0.0214
67004W        W67868  22.093  14.742   6.012  0.3198  0.0574  0.0744
67005W        W67869  20.984  16.277   6.424  0.3346 -0.0521  0.1956
67006W        W67870  22.496  17.361   1.911 -0.0240 -0.0260  0.0198
67007W        W67871  21.562  15.779   2.465  0.0756 -0.0484 -0.2000
67008W        W67872  26.104  17.624   3.531  0.1988  0.1872 -0.1178
67009W        W67873  24.414  16.714   6.381  0.0723 -0.2012 -0.0062
67010W        W67874  20.382  17.711   9.469 -0.1440  0.1628  0.0208
67011W        W67875  24.726  16.084   5.097 -0.0153 -0.0079  0.1440
67012W        W67876  26.181  16.208   5.359 -0.1615  0.0466 -0.1934
67013W        W67877  23.980  14.887   8.595  0.0659  0.1214  0.3244
67014W        W67878  23.223  14.018   4.459  0.0209 -0.0024  0.0690
67015W        W67879  24.078  13.498   3.980  0.2152  0.1234  0.1959
67016W        W67880  21.966  16.205   6.853 -0.1696  0.3562 -0.1555
67017W        W67881  24.769  19.300   7.971 -0.1456  0.2698  0.2153
67018W        W67882  19.439  15.175   2.852  0.1188 -0.2470 -0.3334
67019W        W67883  27.034  13.831   4.882 -0.0556 -0.1842  0.2524
67020W        W67884  27.441  15.080   6.782 -0.0105  0.0330 -0.1046
67021W        W67885  26.079  17.653   5.558  0.0539 -0.1444 -0.3324
67022W        W67886  25.596  15.900   2.891 -0.1061 -0.1563 -0.1740
67023W        W67887  22.429  14.980   4.501  0.1839  0.1404 -0.0068
67024W        W67888  25.522  15.071   5.475  0.1101 -0.2995  0.5045
67025W        W67889  24.152  18.275   7.349  0.0082 -0.1147  0.4050
67026W        W67890  20.757  16.898   7.864 -0.1425  0.2884 -0.0569
67027W        W67891  23.053  17.753   5.167  0.1347  0.3804 -0.1582
67028W        W67892  24.393  15.396   4.226  0.0931  0.0494  0.1728
67029W        W67893  22.422  17.054   5.086 -0.2577 -0.0032  0.0156
67030W        W67894  25.561  17.015   3.856 -0.1574  0.1887 -0.2931
67031W        W67895  25.196  16.207   2.295 -0.2471 -0.1817  0.0180
67032W        W67896  24.605  15.627   6.901 -0.0483  0.3175 -0.5774
67033W        W67897  22.239  14.962   1.513  0.2299  0.0051  0.2814
67034W        W67898  24.850  15.708   6.445  0.2252 -0.2520 -0.1611
67035W        W67899  24.410  17.517   1.903  0.1076 -0.0135 -0.1350
67036W        W67900  23.398  11.284   1.891 -0.0024  0.0109  0.1410
67037W        W67901  23.818  17.453   7.952  0.0611 -0.0481  0.2007
67038W        W67902  23.019  15.765   5.671 -0.0466  0.1224 -0.1482
67039W        W67903  21.656  14.740   4.782  0.1630  0.2432  0.2736
67040W        W67904  21.569  16.632   7.115 -0.1839  0.1881 -0.2553
67041W        W67905  22.700  17.250   6.734  0.1363 -0.0453 -0.1443
67042W        W67906  22.749  13.924   4.711 -0.2794 -0.1686  0.0229
67043W        W67907  21.892  14.796   6.678  0.0737 -0.0301 -0.3884
67044W        W67908  25.144  15.393   3.753  0.1174 -0.1217 -0.2466
67045W        W67909  24.930  13.582   4.315  0.2633 -0.1477  0.2272
67046W        W67910  22.434  15.117   5.908  0.0956 -0.0442  0.0484
67047W        W67911  22.927  17.128   7.687  0.1620  0.4159  0.1252
67048W        W67912  25.707  14.045   6.312 -0.0363  0.0603  0.0208
67049W        W67913  21.059  14.756   3.913  0.1408 -0.4632  0.0954
67050W        W67914  25.289  13.804   6.128  0.1211 -0.4953 -0.0849
67051W        W67915  24.563  12.626   3.982  0.0064 -0.0393  0.0703
67052W        W67916  23.882  18.039   2.846 -0.0828  0.1667 -0.1726
67053W        W67917  24.263  15.869   5.152 -0.0028 -0.1759  0.1538
67054W        W67918  24.962  16.059   6.089  0.3906  0.0069  0.0331
67055W        W67919  25.902  15.345   5.707  0.0659  0.3170  0.2375
67056W        W67920  23.429  14.926   6.643 -0.0768  0.0804 -0.1796
67057W        W67921  23.456  18.267   4.117  0.1411  0.0607 -0.0181
67058W        W67922  21.029  18.584   1.946  0.1820 -0.2172 -0.1750
67059W        W67923  23.543  17.209   5.103  0.0917 -0.2651 -0.1220
67060W        W67924  22.856  17.392   8.110  0.1098 -0.0258 -0.1067
67061W        W67925  27.119  13.745   7.744  0.2108  0.0857 -0.1998
67062W        W67926  26.870  14.352   8.121  0.0089 -0.2361  0.0603
67063W        W67927  25.056  17.051   6.608 -0.0040 -0.0668  0.0920
67064W        W67928  28.067  16.047   7.698  0.0652 -0.1412  0.0438
67065W        W67929  27.326  16.827   3.980 -0.1291  0.0934  0.1040
67066W        W67930  24.460  19.669   2.461 -0.0619 -0.2657  0.1248
67067W        W67931  24.458  15.650   7.453  0.4293  0.2922  0.5238
67068W        W67932  22.726  16.263   6.447  0.1549  0.1807  0.0721
67069W        W67933  27.557  13.350   6.681  0.0924 -0.0472 -0.1411
67070W        W67934  22.819  16.359   4.480  0.0458  0.0804 -0.1781
67071W        W67935  24.503  18.900   6.979 -0.1525 -0.1355 -0.0640
67072W        W67936  25.255  15.793   4.016  0.0097  0.0786 -0.2995
67073W        W67937  25.731  14.286   5.387  0.1439  0.0014 -0.0335
67074W        W67938  24.544  15.247   4.663 -0.0195 -0.4820 -0.2473
67075W        W67939  22.072  14.352   6.342  0.3170 -0.0614 -0.2083
67076W        W67940  26.826  12.168   7.095 -0.3000  0.1484 -0.0248
67077W        W67941  24.376  17.530   5.079  0.0740 -0.0192 -0.0212
67078W        W67942  27.419  14.588   6.849 -0.1184  0.2258  0.0640
67079W        W67943  21.879  15.424   7.419 -0.1129 -0.2513  0.1367
67080W        W67944  23.469  16.086   9.061 -0.1074 -0.0833  0.1899
67081W        W67945  20.891  17.899   3.109 -0.1250  0.0694  0.0941
67082W        W67946  23.322  14.545   4.579  0.0266 -0.1855  0.1286
67083W        W67947  20.569  17.145   8.643 -0.1388 -0.3148  0.0021
67084W        W67948  21.484  16.184   6.862 -0.2303  0.0928  0.3110
67085W        W67949  25.747  17.210   6.025 -0.0262 -0.1748  0.0621
67086W        W67950  24.760  15.840   9.237  0.0378  0.2809  0.0793
67087W        W67951  22.445  16.567   4.923  0.1734  0.3534  0.1690
67088W        W67952  24.825  16.748   4.895 -0.3859  0.0303  0.2403
67089W        W67953  23.350  19.431   4.594  0.2058  0.1977  0.0652
67090W        W67954  23.251  16.160   5.381 -0.1026 -0.0970  0.0147
67091W        W67955  21.456  15.047   6.010 -0.2456 -0.0725 -0.1564
67092W        W67956  23.475  12.353   4.972  0.0431 -0.0864  0.1727
67093W        W67957  28.510  15.317   5.953  0.1568  0.0108 -0.4102
67094W        W67958  22.390  14.801   3.082  0.2359  0.1032 -0.0735
67095W        W67959  26.393  17.229   5.513 -0.1869 -0.0066  0.1241
67096W        W67960  23.245  17.918   5.896 -0.2185 -0.1013  0.0974
67097W        W67961  26.511  17.999   3.203  0.2357  0.3052 -0.0028
67098W        W67962  23.778  17.825   3.992 -0.2224  0.0560  0.0998
67099W        W67963  26.338  17.875   5.912 -0.2040  0.1534 -0.4567
67100W        W67964  23.037  17.189   5.171  0.2424 -0.1712  0.2013
67101W        W67965  23.852  20.109   8.202  0.0145 -0.0198  0.0790
67102W        W67966  23.455  15.954   5.812  0.0782 -0.3403 -0.3738
67103W        W67967  21.265  13.786   2.959  0.0423 -0.3927  0.1872
67104W        W67968  27.602  18.701   5.301  0.2470 -0.2514  0.1555
67105W        W67969  23.562  15.512   3.591 -0.1637  0.1072 -0.1563
67106W        W67970  22.505  12.567   7.788 -0.0120  0.1166 -0.1777
67107W        W67971  26.602  16.134   3.618  0.3780  0.1248 -0.3213
67108W        W67972  25.419  12.726   7.257  0.0508 -0.0629  0.0477
67109W        W67973  23.895  14.587   3.774 -0.0879 -0.2643 -0.0392
67110W        W67974  24.424  16.178   7.630  0.2207 -0.2429 -0.5398
67111W        W67975  26.100  16.888   5.905  0.1048 -0.0751  0.0671
67112W        W67976  25.295  15.467   7.615 -0.0497  0.0754 -0.0708
67113W        W67977  24.857  18.693   6.005  0.0929  0.2029 -0.3318
67114W        W67978  21.930  18.631   9.517  0.1722 -0.2174 -0.2536
67115W        W67979  21.838  17.437   5.098 -0.2250  0.2825 -0.2034
67116W        W67980  26.190  18.029   3.797 -0.1985  0.1484  0.2320
67117W        W67981  21.083  14.614   6.351  0.0329  0.0790  0.0320
67118W        W67982  27.579  15.387   4.785 -0.0151  0.1110  0.0835
67119W        W67983  26.042  15.324   3.954  0.0301 -0.3424  0.1332
67120W        W67984  24.842  14.568   4.046 -0.2501  0.1996 -0.1198
67121W        W67985  21.612  14.995   7.047 -0.0630 -0.1597 -0.1576
67122W        W67986  23.435  17.782   6.927  0.2485 -0.1851 -0.0998
67123W        W67987  23.523  18.833   7.072 -0.2749  0.1418  0.2384
67124W        W67988  24.249  15.561   5.544 -0.1109  0.0598  0.0961
67125W        W67989  21.775  16.530   7.651 -0.1630 -0.0306  0.0519
67126W        W67990  21.386  15.555   5.169  0.0614 -0.1242  0.4300
67127W        W67991  22.028  16.789   3.823 -0.0248  0.1251 -0.1812
67128W        W67992  24.899  17.799   8.953  0.0836 -0.1809 -0.2217
67129W        W67993  24.436  14.958   3.895 -0.1316  0.0805  0.1258
67130W        W67994  24.955  16.711   4.371  0.3061  0.0213 -0.0612
67131W        W67995  25.607  13.651   4.751 -0.2306 -0.2497  0.0515
67132W        W67996  18.965  18.427   8.012 -0.4119  0.1270  0.1705
67133W        W67997  27.438  16.466   4.294  0.0158  0.1228 -0.3181
67134W        W67998  22.430  16.427   6.840 -0.2029 -0.2600 -0.1725
67135W        W67999  26.803  17.525   5.907 -0.1212  0.0429 -0.0247
67136W        W68000  22.565  13.459   4.964  0.0635  0.1331  0.4702
67137W        W68001  25.790  16.022   2.423 -0.1521  0.2011  0.1098
67138W        W68002  27.911  16.510   2.393 -0.2975  0.0508 -0.0175
67139W        W68003  24.465  17.707   1.005  0.0989  0.2197 -0.1665
67140W        W68004  25.491  14.454   3.361  0.0277 -0.3271  0.0313
67141W        W68005  24.558  16.479   7.148  0.1487  0.2145 -0.0179
67142W        W68006  21.199  14.102   6.936 -0.1563  0.0419 -0.1777
67143W        W68007  22.462  16.916   2.130  0.2654  0.0538  0.0241
67144W        W68008  26.025  15.365   7.073  0.0968 -0.3054 -0.3373
67145W        W68009  24.382  15.557   1.512 -0.2107  0.1964  0.0103
67146W        W68010  24.391  15.284   6.605  0.0256  0.2455  0.2792
67147W        W68011  26.583  13.398   3.241 -0.0425 -0.1371 -0.1056
67148W        W68012  23.412  15.717   6.679 -0.2531 -0.1404  0.4568
67149W        W68013  22.709  16.948   4.506  0.2445 -0.2144 -0.0180
67150W        W68014  23.905  16.110   6.496 -0.2987 -0.2022 -0.1877
67151W        W68015  25.869  15.355   5.187  0.2050 -0.1397 -0.4813
67152W        W68016  24.668  16.437   3.094  0.1201  0.1330  0.0768
67153W        W68017  26.287  17.248   3.878  0.1793  0.2592  0.0835
67154W        W68018  25.093  16.410   5.255 -0.0347  0.0089  0.1393
67155W        W68019  22.569  16.006   4.819 -0.2866 -0.1123 -0.0942
67156W        W68020  23.130  14.171   3.371 -0.0158 -0.4928  0.0066
67157W        W68021  24.477  16.757   2.722 -0.1856  0.1623  0.0039
67158W        W68022  20.654  16.093   5.276 -0.0360  0.1657 -0.0049
67159W        W68023  27.499  14.710   4.734  0.1150 -0.3113  0.0651
67160W        W68024  20.955  17.680   7.359 -0.3192 -0.0355  0.0136
67161W        W68025  23.698  12.700   4.383  0.1474 -0.1176  0.0730
67162W        W68026  23.916  18.738   7.402 -0.0736 -0.1423  0.1159
67163W        W68027  22.850  18.010   5.613 -0.2148  0.0347  0.0425
67164W        W68028  24.877  17.534   7.444 -0.1422  0.0163  0.0197
67165W        W68029  24.266  14.552   2.507  0.1458 -0.0051  0.1058
67166W        W68030  23.184  15.510   4.228  0.0804  0.1124  0.1321
67167W        W68031  23.248  16.553   7.689 -0.2016 -0.1542 -0.1367
67168W        W68032  22.359  13.652   1.337 -0.0803 -0.0448  0.1461
67169W        W68033  23.660  21.238   6.184  0.2378  0.3493  0.1336
67170W        W68034  28.270  19.513   3.273  0.1649  0.0396 -0.0122
67171W        W68035  21.618  17.335   7.695 -0.0552  0.2750  0.1602
67172W        W68036  27.138  17.002   6.427  0.0603  0.1506 -0.0874
67173W        W68037  22.644  17.685   4.768  0.0321  0.1027 -0.0727
67174W        W68038  22.603  17.146   6.238  0.0861 -0.1800 -0.3193
67175W        W68039  20.813  15.939   6.092  0.0240 -0.0517 -0.0924
67176W        W68040  21.040  15.246   3.761  0.1504  0.1498  0.4429
67177W        W68041  22.997  12.648   2.060 -0.0786  0.1463  0.3412
67178W        W68042  26.114  16.407   3.666 -0.2443 -0.0352  0.2140
67179W        W68043  22.431  18.128   7.893 -0.0267 -0.1605  0.2080
67180W        W68044  25.069  14.764   3.200 -0.1125  0.3256  0.0859
67181W        W68045  27.958  16.801   7.099  0.0843 -0.2329  0.1774
67182W        W68046  24.951  17.055   7.105  0.1145 -0.3013 -0.3789
67183W        W68047  27.712  17.450   9.593  0.0511  0.2383  0.1653
67184W        W68048  27.977  15.891   9.209  0.2934  0.2533 -0.0174
67185W        W68049  22.465  14.435   4.076  0.0057  0.0039  0.1536
67186W        W68050  24.777  17.747   4.825  0.0532  0.1509 -0.0202
67187W        W68051  23.873  17.466   6.927 -0.0616 -0.1712  0.0276
67188W        W68052  24.262  17.275   2.611  0.1160 -0.1264  0.1060
67189W        W68053  23.763  16.447   3.305  0.0438 -0.2261  0.1693
67190W        W68054  21.668  18.264   6.988  0.1225 -0.1481 -0.1473
67191W        W68055  23.197  15.695   6.202  0.3426  0.0546  0.0656
67192W        W68056  21.621  17.886   5.091 -0.2185 -0.0998 -0.0415
67193W        W68057  21.327  16.395   4.069 -0.0539 -0.1396 -0.1555
67194W        W68058  23.937  16.362   7.954 -0.1588  0.0288 -0.0120
67195W        W68059  21.473  16.356   5.042 -0.2878  0.1268 -0.1053
67196W        W68060  23.011  16.140   6.912 -0.1656 -0.0010 -0.0738
67197W        W68061  23.038  15.036   7.064  0.1196  0.1555 -0.2500
67198W        W68062  21.902  14.689   3.880 -0.0521  0.0506  0.0625
67199W        W68063  22.098  14.061   8.887 -0.1428  0.1598 -0.1085
67200W        W68064  22.721  15.310   4.228  0.0364 -0.2375 -0.2923
67201W        W68065  25.669  16.032   6.653  0.1821 -0.1971  0.0515
67202W        W68066  24.269  16.679   3.396  0.0871 -0.0239  0.2695
67203W        W68067  24.101  17.166   6.565  0.0238  0.1145  0.2988
67204W        W68068  22.191  12.612   2.735 -0.0791 -0.1414 -0.0246
67205W        W68069  24.832  15.190   4.214  0.3193  0.5546  0.1277
67206W        W68070  24.182  15.285   8.282 -0.0404 -0.2387 -0.1591
67207W        W68071  22.468  13.902   6.109 -0.1501  0.0424  0.0806
67208W        W68072  21.172  17.517   5.961  0.3484 -0.0538 -0.1106
67209W        W68073  22.614  15.628   3.173  0.1966 -0.4690 -0.1586
67210W        W68074  27.954  14.989   4.510 -0.1638 -0.0586 -0.3494
67211W        W68075  26.288  15.817   5.956 -0.0336  0.1566  0.2945
67212W        W68076  24.445  15.316   3.277  0.0351 -0.0650 -0.1966
67213W        W68077  23.493  15.300   6.271  0.4153  0.3197 -0.2542
67214W        W68078  23.907  18.023   4.476 -0.3970 -0.2098 -0.0295
67215W        W68079  24.213  20.176   6.303 -0.0186  0.1912  0.1094
67216W        W68080  23.677  16.804   5.372 -0.1812 -0.0236 -0.2419
67217W        W68081  22.905  13.678   3.297 -0.0820  0.0600 -0.2929
67218W        W68082  26.506  12.776   5.108  0.0558 -0.0592  0.0268
67219W        W68083  20.308  16.017   3.133  0.2331  0.2671  0.1137
67220W        W68084  26.396  15.125   4.343  0.4346  0.0198 -0.0141
67221W        W68085  23.268  16.276   2.926 -0.0849  0.1984  0.0225
67222W        W68086  25.671  16.778   7.203  0.1170 -0.1547  0.1538
67223W        W68087  26.157  17.171   2.845 -0.0227 -0.0307  0.0808
67224W        W68088  22.083  14.886   5.032 -0.0197  0.1316  0.1284
67225W        W68089  22.952  17.440   4.271 -0.0683  0.1117 -0.4918
67226W        W68090  24.271  15.331   5.134 -0.1967 -0.1500 -0.0332
67227W        W68091  23.876  15.416   6.702  0.0262 -0.2345  0.1328
67228W        W68092  22.131  14.174   5.376 -0.1010 -0.1987  0.2251
67229W        W68093  23.491  13.557   6.042  0.3376 -0.3429  0.0267
67230W        W68094  24.604  16.466   5.894  0.0648  0.0937  0.4188
67231W        W68095  20.032  16.281   5.656 -0.1167 -0.0010  0.0737
67232W        W68096  26.550  17.740   5.437 -0.0188  0.0736 -0.2261
67233W        W68097  23.370  16.450   4.077 -0.0245 -0.2792 -0.4840
67234W        W68098  26.092  14.605   6.147  0.0101  0.5572 -0.0666
67235W        W68099  26.156  21.346   5.102  0.3157  0.0684  0.1836
67236W        W68100  23.631  18.543   5.541  0.1946  0.1089  0.0746
67237W        W68101  21.961  15.157   6.298 -0.1504 -0.0517 -0.2208
67238W        W68102  27.059  18.207   1.418  0.0489  0.1480  0.0098
67239W        W68103  25.870  15.116   6.609 -0.1793  0.0909 -0.3508
67240W        W68104  22.436  14.498   4.811  0.0416  0.0723  0.2002
67241W        W68105  26.185  15.546   6.364 -0.0767  0.1363  0.0023
67242W        W68106  25.742  18.447   6.642 -0.1445 -0.0617  0.3192
67243W        W68107  22.503  15.851   4.261 -0.0434 -0.1743  0.2269
67244W        W68108  25.941  17.630   6.352  0.1843  0.0539  0.2782
67245W        W68109  28.262  15.379   4.196  0.2031 -0.2750 -0.1077
67246W        W68110  25.074  16.469   5.732  0.0112  0.1595  0.0624
67247W        W68111  23.799  18.055   5.575 -0.2521  0.0394 -0.1354
67248W        W68112  24.229  16.215   3.146  0.3282 -0.1342  0.0909
67249W        W68113  23.623  20.131  14.449  0.0495  0.1760 -0.0479
67250W        W68114  22.881  18.166  12.151 -0.1128 -0.0345 -0.0789
67251W        W68115  24.449  19.016   8.395  0.0528 -0.0937  0.0409
67252W        W68116  26.626  18.683   9.458 -0.1300  0.1219 -0.0096
67253W        W68117  25.205  18.858   7.837  0.1747  0.0180 -0.1196
67254W        W68118  24.077  18.599   9.127 -0.2162 -0.0323  0.0167
67255W        W68119  20.555  13.048   8.850  0.2501 -0.0101 -0.1229
67256W        W68120  21.713  15.882   6.556 -0.1358 -0.0608  0.1553
67257W        W68121  23.666  19.997  12.112 -0.0354  0.4868  0.1247
67258W        W68122  25.006  16.311  10.145 -0.0430  0.3060  0.2202
67259W        W68123  22.504  13.075  10.442  0.0242 -0.4496 -0.2154
67260W        W68124  22.900  13.536   7.854 -0.0338 -0.1283 -0.2038
67261W        W68125  25.095  14.426   8.180  0.0936 -0.2929 -0.0055
67262W        W68126  23.910  16.755   8.682  0.0587  0.0509  0.3636
67263W        W68127  23.434  14.674   8.723 -0.3261  0.0310  0.1342
67264W        W68128  20.183  18.915   8.138  0.1914 -0.4198  0.0789
67265W        W68129  25.667  13.565   7.125 -0.2411 -0.2847 -0.2503
67266W        W68130  24.009  17.008  10.259 -0.1601  0.1219  0.0998
67267W        W68131  25.586  15.500   6.697 -0.0828 -0.0387  0.1173
67268W        W68132  27.774  14.246  10.273  0.0888  0.2433 -0.1502
67269W        W68133  26.160  14.806   9.817 -0.1306  0.0778 -0.1621
67270W        W68134  22.358  15.250   9.429 -0.1754  0.2526  0.0450
67271W        W68135  26.831  15.985   9.521  0.0268  0.0419  0.0207
67272W        W68136  21.704  18.529  11.395  0.0352 -0.0500  0.0473
67273W        W68137  23.630  16.024   8.116  0.1089 -0.0946 -0.0106
67274W        W68138  24.789  16.633   9.860  0.1210  0.0726  0.0029
67275W        W68139  25.400  16.416  12.327  0.0799  0.1015 -0.3299
67276W        W68140  25.076  17.153   8.229  0.1594 -0.0901 -0.3230
67277W        W68141  23.005  20.218   8.579 -0.0462  0.2143  0.1936
67278W        W68142  26.181  15.664   7.939 -0.0876  0.3293 -0.2553
67279W        W68143  23.907  13.964   7.199  0.3512 -0.0920 -0.0923
67280W        W68144  24.289  17.280   9.941 -0.1810 -0.1100  0.1627
67281W        W68145  22.420  19.983  11.258 -0.0636 -0.2029  0.0890
67282W        W68146  25.159  15.454  11.766 -0.1149  0.4274  0.0961
67283W        W68147  20.366  14.302  10.943 -0.0099 -0.0413 -0.0378
67284W        W68148  25.740  18.022   9.434 -0.2716 -0.0219 -0.0560
67285W        W68149  20.134  14.449   9.667 -0.2670  0.2505 -0.1440
67286W        W68150  25.819  16.528   7.770  0.3083  0.3441 -0.0542
67287W        W68151  27.290  17.214   9.756  0.0482  0.0447 -0.0754
67288W        W68152  24.866  15.687   7.675 -0.0469 -0.1620  0.1840
67289W        W68153  26.179  13.662   7.844 -0.0206  0.4562 -0.0705
67290W        W68154  28.436  17.502   9.064 -0.2447 -0.4701 -0.2163
67291W        W68155  23.388  17.016  10.832  0.3945 -0.3449  0.0740
67292W        W68156  26.093  15.748   6.783  0.1666 -0.0202  0.2503
67293W        W68157  21.106  19.232   8.426  0.0178 -0.0541 -0.4583
67294W        W68158  25.644  20.337   8.575 -0.0851 -0.1001  0.1093
67295W        W68159  20.571  12.132  11.648 -0.0171  0.1246 -0.1394
67296W        W68160  26.764  14.443  10.285 -0.2351 -0.0568 -0.0053
67297W        W68161  25.172  16.037   8.862  0.1143  0.2852  0.1245
67298W        W68162  24.190  15.845   8.084  0.3191  0.2065 -0.3609
67299W        W68163  24.545  14.491   7.973 -0.2002  0.2763 -0.0014
67300W        W68164  22.472  14.370   9.706  0.2657  0.4946 -0.0857
67301W        W68165  26.132  16.787  10.187  0.0026 -0.3221 -0.0485
67302W        W68166  22.345  14.849   6.488 -0.1540 -0.1348 -0.1864
67303W        W68167  23.473  15.317   6.944  0.0658 -0.0058 -0.3047
67304W        W68168  24.109  16.993   8.189 -0.1130 -0.0311 -0.2528
67305W        W68169  24.835  14.553   6.811  0.2269  0.0565 -0.1898
67306W        W68170  23.391  13.451   6.525  0.3564  0.0519 -0.0829
67307W        W68171  22.856  16.189  10.584  0.3772 -0.1925 -0.1994
67308W        W68172  24.341  15.225   8.720  0.1251 -0.2180 -0.1224
67309W        W68173  22.812  14.921   7.889  0.0978 -0.0095 -0.1300
67310W        W68174  24.353  19.663  12.119  0.3027 -0.0733 -0.0647
67311W        W68175  23.228  18.285   9.832  0.0530  0.0949  0.1461
67312W        W68176  22.868  15.816   9.792  0.1635  0.1457 -0.3620
67313W        W68177  25.162  14.397  11.125 -0.2004 -0.0350  0.4672
67314W        W68178  23.970  13.975   8.407 -0.4427  0.2666 -0.1490
67315W        W68179  22.374  17.867  10.003 -0.1646  0.1177 -0.3019
67316W        W68180  26.014  14.986   9.383 -0.0275 -0.0746 -0.1271
67317W        W68181  24.710  17.517   8.494 -0.0104 -0.1245  0.0015
67318W        W68182  24.172  15.814   9.018  0.0177 -0.0830  0.2030
67319W        W68183  27.338  17.848   9.633 -0.0641 -0.1989 -0.2854
67320W        W68184  25.880  16.290   7.334  0.1116 -0.1414  0.1725
67321W        W68185  25.088  18.028   9.806 -0.2663  0.0571 -0.3080
67322W        W68186  28.884  12.993   9.441 -0.1699  0.0241 -0.1424
67323W        W68187  25.913  19.799   9.239 -0.0508  0.3354 -0.0861
67324W        W68188  24.971  18.665  10.057 -0.0461  0.0130  0.1893
67325W        W68189  23.782  15.557   8.211  0.0688 -0.1903  0.1346
67326W        W68190  23.553  16.605   8.975 -0.0866  0.2875 -0.0687
67327W        W68191  22.114  16.896   8.425  0.2198  0.0715  0.1194
67328W        W68192  24.480  16.337   8.172 -0.0826  0.0600 -0.1000
67329W        W68193  19.991  13.097  14.303  0.2782 -0.1675 -0.0930
67330W        W68194  23.050  15.799   8.839 -0.0800  0.1700  0.1010
67331W        W68195  24.400  14.597   8.829  0.1831 -0.3145  0.0500
67332W        W68196  26.090  14.690   7.506  0.0936 -0.5720  0.2152
67333W        W68197  22.855  16.897  11.490 -0.1562 -0.0257 -0.1456
67334W        W68198  22.166  15.634  10.236  0.1314 -0.2591 -0.0182
67335W        W68199  26.068  19.083  10.709  0.0747 -0.4211  0.2064
67336W        W68200  24.017  14.783  11.334 -0.2717  0.1381  0.2611
67337W        W68201  25.931  18.633  10.130  0.2771  0.1691  0.3478
67338W        W68202  27.042  15.803   7.092  0.0578  0.1508 -0.0388
67339W        W68203  23.675  15.447   7.379  0.0305 -0.1957  0.0352
67340W        W68204  23.147  15.591  12.208 -0.2537  0.0504  0.0218
67341W        W68205  22.913  18.045   8.573  0.0453 -0.1798 -0.0582
67342W        W68206  25.311  17.872   5.628 -0.0505  0.1632 -0.1947
67343W        W68207  21.355  14.189  12.826  0.1149  0.1181  0.0310
67344W        W68208  23.329  14.498   5.671  0.1841 -0.0979 -0.2821
67345W        W68209  26.132  14.447  10.498  0.1064  0.0339  0.1528
67346W        W68210  23.304  18.841  11.553 -0.0715  0.2205 -0.1078
67347W        W68211  23.589  15.072   8.329 -0.0283  0.1530  0.0965
67348W        W68212  27.484  15.179   7.594 -0.1572  0.0643 -0.0596
67349W        W68213  27.424  17.063   8.778  0.0405 -0.0219 -0.2156
67350W        W68214  21.310  16.268  11.257  0.0185 -0.2521 -0.1705
67351W        W68215  23.182  14.341   6.653  0.0015 -0.1546 -0.1470
67352W        W68216  28.098  16.806   9.697 -0.2349  0.0208  0.2118
67353W        W68217  28.360  15.653   8.362 -0.1463  0.1037  0.2148
67354W        W68218  25.294  17.236   9.676 -0.1206  0.1662  0.4481
67355W        W68219  23.761  14.188   5.851  0.0850 -0.0161 -0.1237
67356W        W68220  22.422  17.340   7.612  0.2013  0.1936 -0.1408
67357W        W68221  22.287  13.128   6.565  0.2479 -0.1455  0.2117
67358W        W68222  24.349  15.211   9.593 -0.3534  0.1527 -0.2482
67359W        W68223  22.571  18.152  11.703 -0.1657 -0.0686 -0.1408
67360W        W68224  25.458  18.953   8.843  0.0435 -0.1903  0.1255
67361W        W68225  25.139  14.992   7.236 -0.1098  0.0948 -0.5650
67362W        W68226  24.174  19.314   9.555  0.1975 -0.1151  0.1824
67363W        W68227  27.735  16.493   7.842  0.2027  0.3019  0.1983
67364W        W68228  26.365  14.245   7.366 -0.0959  0.2124 -0.0068
67365W        W68229  26.017  14.170   7.834  0.1960 -0.2778 -0.1252
67366W        W68230  26.592  17.658   9.700 -0.1939  0.2363  0.0901
67367W        W68231  24.973  14.232   7.623 -0.0719 -0.2552  0.0436
67368W        W68232  24.160  12.682   6.548  0.2389  0.0445 -0.0338
67369W        W68233  26.992  16.553   6.840 -0.3164  0.1002 -0.2064
67370W        W68234  24.571  15.414   9.224  0.2297  0.1169 -0.0331
67371W        W68235  26.963  16.199   7.741 -0.3101 -0.0528 -0.0289
67372W        W68236  25.530  16.296   8.156 -0.1276 -0.1966  0.3068
67373W        W68237  25.488  14.362   7.720 -0.1481 -0.2110  0.0095
67374W        W68238  25.717  15.953   9.046 -0.0451 -0.0522  0.1338
67375W        W68239  23.933  16.238   8.934  0.3260  0.2968 -0.0524
67376W        W68240  25.806  17.247   9.470 -0.1705  0.1358 -0.1293
67377W        W68241  23.446  17.170   8.201  0.1758  0.0621 -0.1938
67378W        W68242  25.261  14.203   8.602  0.3207  0.0947  0.0549
67379W        W68243  23.381  17.817   9.908 -0.0620  0.0789 -0.2361
67380W        W68244  27.817  13.687   7.938  0.1227  0.0973  0.2991
67381W        W68245  26.141  18.987   5.937  0.2260 -0.0567  0.0371
67382W        W68246  24.872  16.642   8.505 -0.4323 -0.0542 -0.0222
67383W        W68247  21.783  16.030  11.876 -0.1376  0.0078  0.2106
67384W        W68248  21.836  13.911  10.099  0.0887  0.1768 -0.2068
67385W        W68249  25.126  13.755   9.697 -0.2276  0.0389 -0.0521
67386W        W68250  25.076  16.511  11.326  0.2492  0.1660  0.3357
67387W        W68251  27.258  14.806   6.376  0.1815 -0.1312 -0.1661
67388W        W68252  23.100  18.197   7.244  0.3235 -0.3807  0.0295
67389W        W68253  22.308  14.453   6.855 -0.0566 -0.3277  0.1059
67390W        W68254  24.789  12.850   8.477 -0.2099  0.1504  0.2653
67391W        W68255  22.598  16.141   8.957  0.0197 -0.0017 -0.5577
67392W        W68256  24.991  12.994   6.987 -0.3485  0.0232  0.1395
67393W        W68257  22.914  16.373   9.781 -0.2176  0.0445  0.2608
67394W        W68258  25.121  15.265  10.114  0.2422 -0.0721 -0.0371
67395W        W68259  24.869  12.583   7.261  0.0896 -0.2928  0.1467
67396W        W68260  25.278  18.018   7.208  0.2566  0.1790  0.0165
67397W        W68261  26.729  16.231  10.335  0.2087  0.3133  0.0254
67398W        W68262  26.328  17.213   9.612 -0.1110  0.0210  0.1678
67399W        W68263  27.256  15.675   8.658  0.0494  0.0111  0.3612
67400W        W68264  24.014  14.865   8.059 -0.0692  0.0830  0.1117
67401W        W68265  23.047  19.634   7.952 -0.4243  0.1361 -0.1381
67402W        W68266  19.964  15.925   8.450  0.2780 -0.3252 -0.0170
67403W        W68267  23.301  15.440   5.355  0.2696 -0.0638  0.1298
67404W        W68268  25.871  15.376   7.546  0.0267 -0.6076  0.2054
67405W        W68269  24.452  18.319  10.750  0.2318 -0.1009 -0.4170
67406W        W68270  23.182  15.284   8.061  0.1181 -0.1102  0.0738
67407W        W68271  24.078  15.286   7.643  0.0153  0.1140 -0.1142
67408W        W68272  24.040  15.394   9.190  0.0456 -0.1290 -0.4685
67409W        W68273  27.930  18.722  11.045  0.3153  0.1514  0.2051
67410W        W68274  22.206  14.907   9.107  0.1321  0.0282 -0.1820
67411W        W68275  23.982  19.557  11.728  0.0690 -0.1932  0.1637
67412W        W68276  25.773  18.252  10.496 -0.0438 -0.0554 -0.2898
67413W        W68277  23.502  13.554   9.403  0.1799  0.1191  0.2705
67414W        W68278  22.651  16.886  10.072 -0.0601  0.3028 -0.0193
67415W        W68279  23.390  13.780   8.083  0.1189 -0.1057  0.3249
67416W        W68280  24.982  18.590   8.694 -0.0363  0.2525 -0.0242
67417W        W68281  24.060  18.904   9.936  0.3794 -0.1068 -0.0900
67418W        W68282  24.418  17.383   9.140  0.0374  0.2107  0.0095
67419W        W68283  23.176  17.613  10.316 -0.1855 -0.0694 -0.1499
67420W        W68284  25.481  15.547   8.856 -0.1431 -0.0092 -0.3266
67421W        W68285  25.968  18.846   8.232 -0.3771  0.1075  0.2341
67422W        W68286  23.248  14.031   7.134  0.0229 -0.4340 -0.2752
67423W        W68287  25.914  12.316   9.245 -0.0460 -0.2462 -0.2510
67424W        W68288  27.673  16.878   7.510 -0.0475 -0.1991  0.0012
67425W        W68289  22.630  17.190  12.083  0.1437  0.0862 -0.3046
67426W        W68290  22.232  16.876  10.812 -0.0521  0.0733 -0.0482
67427W        W68291  23.869  17.183   7.371 -0.2742 -0.1115  0.2557
67428W        W68292  25.266  16.824   9.919 -0.1828  0.0216 -0.0478
67429W        W68293  22.766  16.492   7.833 -0.2377 -0.2540 -0.0891
67430W        W68294  26.282  16.080   7.091 -0.0883  0.1488  0.1408
67431W        W68295  24.960  16.582   6.906  0.1937  0.0408  0.2176
67432W        W68296  23.779  14.985   7.238  0.0664  0.1891  0.1004
67433W        W68297  25.484  15.386   4.236 -0.3168 -0.1197 -0.1082
67434W        W68298  23.914  17.746   7.546 -0.1261 -0.0650  0.2506
67435W        W68299  24.411  13.839   5.653  0.3664  0.0891  0.0018
67436W        W68300  24.053  16.168   8.436 -0.2577 -0.1677  0.0752
67437W        W68301  25.697  17.655   9.728 -0.2469  0.1645 -0.0738
67438W        W68302  23.062  17.539   9.630  0.0202  0.2806  0.0030
67439W        W68303  21.118  18.695   8.522  0.3498 -0.4035  0.0224
67440W        W68304  22.822  17.380  10.096  0.1254 -0.1737  0.1497
67441W        W68305  24.861  17.076   7.683 -0.2044  0.0385 -0.1919
67442W        W68306  24.804  14.015   9.399  0.0651  0.2596 -0.1305
67443W        W68307  26.631  19.416  10.731 -0.3029 -0.2185  0.0605
67444W        W68308  22.669  14.883   9.416  0.1267  0.0453 -0.0640
67445W        W68309  23.845  14.463   7.242  0.1479  0.1781 -0.1580
67446W        W68310  20.403  16.669  10.125 -0.1485 -0.0609 -0.2112
67447W        W68311  22.415  18.113   8.634 -0.2636  0.2383 -0.1255
67448W        W68312  22.342  14.330   5.815  0.0738  0.2051 -0.2372
67449W        W68313  20.280  16.801   8.135 -0.2134 -0.2882  0.1237
67450W        W68314  23.838  16.115   9.436 -0.0951  0.0635  0.2950
67451W        W68315  27.487  16.809   6.133 -0.0379 -0.3573  0.0591
67452W        W68316  21.232  15.520  10.775 -0.4028 -0.2452  0.1135
67453W        W68317  23.866  16.042  10.914 -0.1735  0.0623  0.1961
67454W        W68318  22.445  18.953   5.868 -0.0482  0.3314  0.0616
67455W        W68319  25.169  16.816   8.995  0.1476  0.0345  0.0311
67456W        W68320  25.455  18.516  10.039 -0.1345  0.0002 -0.1365
67457W        W68321  26.247  17.507   4.665 -0.1158  0.0869 -0.1539
67458W        W68322  23.984  16.862   7.756  0.1503  0.1423 -0.4230
67459W        W68323  21.266  18.862  12.362  0.1118 -0.1676  0.4017
67460W        W68324  22.166  15.662   6.797 -0.1809  0.1811 -0.1098
67461W        W68325  26.681  12.870   7.945 -0.0313  0.0148 -0.0005
67462W        W68326  27.241  15.673   7.610  0.0911  0.0165 -0.2041
67463W        W68327  26.079  13.925   9.542 -0.3908 -0.2470  0.3799
67464W        W68328  25.435  17.151   6.968 -0.1687  0.0399 -0.0578
67465W        W68329  24.495  17.954   8.551  0.2555 -0.0728  0.0000
67466W        W68330  25.792  17.883  11.766 -0.0690  0.1632 -0.0199
67467W        W68331  23.874  15.202  12.115  0.1964 -0.0597  0.0666
67468W        W68332  22.869  15.913  11.688 -0.1266  0.1564 -0.0711
67469W        W68333  25.715  16.411  10.709 -0.1542 -0.0098 -0.2180
67470W        W68334  24.766  14.961   9.257  0.1668 -0.0199  0.0888
67471W        W68335  23.556  17.738  12.942 -0.1617  0.0389  0.0142
67472W        W68336  26.204  15.713   7.403  0.0810  0.0468  0.0797
67473W        W68337  25.674  14.739  11.061  0.1025 -0.0445  0.0583
67474W        W68338  22.124  16.020   9.890 -0.2288 -0.0314  0.2703
67475W        W68339  22.930  19.732   8.413 -0.4750 -0.1412  0.1696
67476W        W68340  25.836  16.744   8.503  0.0675  0.0261 -0.1279
67477W        W68341  23.540  19.106   9.045 -0.1096  0.2037 -0.0869
67478W        W68342  24.448  16.213   9.706 -0.0730  0.0455  0.1618
67479W        W68343  23.258  14.785   7.970 -0.3515 -0.1486 -0.2083
67480W        W68344  25.753  16.517  11.288 -0.1243 -0.1515  0.0741
67481W        W68345  22.976  16.236   9.261  0.0032 -0.0788 -0.0236
67482W        W68346  26.166  15.325   8.387 -0.4212 -0.0751 -0.1091
67483W        W68347  25.346  15.562   9.735  0.1458  0.1374 -0.1143
67484W        W68348  23.713  18.112   7.232 -0.0463 -0.1244  0.1562
67485W        W68349  27.181  16.506   6.398  0.1646 -0.0921 -0.1388
67486W        W68350  22.676  16.495   8.390 -0.1655 -0.0536 -0.2211
67487W        W68351  27.501  16.739   9.729  0.1842 -0.1914 -0.0692
67488W        W68352  27.336  18.144  11.107 -0.0477  0.2731  0.1967
67489W        W68353  22.612  18.300   9.999  0.0541  0.2101 -0.2036
67490W        W68354  21.401  19.177  10.182  0.1510 -0.0458 -0.0624
67491W        W68355  23.677  16.350  11.269 -0.2033  0.0951 -0.0260
67492W        W68356  26.311  14.329   8.249 -0.0844 -0.0541  0.2795
67493W        W68357  25.335  14.213  10.212  0.2398 -0.2158 -0.3222
67494W        W68358  22.561  14.888   5.162  0.4836  0.0740  0.0161
67495W        W68359  27.078  16.550  10.567 -0.1105 -0.3539  0.1891
67496W        W68360  23.896  17.414  11.870 -0.2717  0.2304 -0.1393
67497W        W68361  26.562  18.204   8.933 -0.1156 -0.0876  0.3338
67498W        W68362  23.935  12.507  11.341 -0.0117 -0.0188 -0.4022
67499W        W68363  24.790  14.254   5.481 -0.0205  0.1113 -0.0392
67500W        W68364  21.480  19.858  10.846 -0.0686 -0.2145  0.0386
67501W        W68365  23.098  19.417  12.321  0.1014 -0.2676  0.1815
67502W        W68366  28.920  16.482   7.963  0.0463 -0.0253 -0.0882
67503W        W68367  22.584  14.438   8.211  0.0387  0.5098 -0.0372
67504W        W68368  25.698  20.373   7.954 -0.3301  0.1523  0.0348
67505W        W68369  27.520  18.039   8.513 -0.1074 -0.1727  0.0966
67506W        W68370  24.923  15.240  11.232  0.1107  0.0965 -0.1537
67507W        W68371  23.308  15.406   9.561 -0.2766  0.3650  0.0235
67508W        W68372  24.555  15.170   7.341  0.0436  0.1072 -0.3887
67509W        W68373  24.124  15.434   7.123  0.0760 -0.0308 -0.3796
67510W        W68374  22.867  15.598   7.914 -0.0549 -0.2986  0.0146
67511W        W68375  27.285  18.545   8.769  0.0861  0.0115 -0.0921
67512W        W68376  24.426  14.883   4.945 -0.1488  0.1778 -0.2115
67513W        W68377  23.139  18.276   9.025  0.0602 -0.0870  0.0221
67514W        W68378  22.018  19.286  11.944 -0.0248 -0.5104 -0.0678
67515W        W68379  21.431  17.877   9.044 -0.2998 -0.0054  0.1822
67516W        W68380  24.380  15.758   9.611  0.2107 -0.1834 -0.1536
67517W        W68381  23.849  14.663  13.235  0.1523  0.1163  0.2303
67518W        W68382  26.217  17.510   8.133  0.1436  0.2000  0.2519
67519W        W68383  25.184  15.866   6.816  0.0333  0.1401  0.0534
67520W        W68384  27.637  14.532   8.456  0.0701  0.1310  0.1301
67521W        W68385  22.391  16.540   9.699 -0.0340  0.0057  0.5748
67522W        W68386  24.466  16.334  10.212  0.0279  0.0947 -0.3706
67523W        W68387  23.837  17.635   9.261  0.3294 -0.4041  0.0857
67524W        W68388  25.922  16.446   6.841  0.1883  0.2991 -0.1971
67525W        W68389  22.291  16.589  11.737  0.0089  0.1684  0.1627
67526W        W68390  25.293  15.759   9.324 -0.3105  0.1586 -0.1248
67527W        W68391  22.310  15.518   5.139  0.1771 -0.0492  0.1360
67528W        W68392  23.311  17.629   8.978 -0.1712  0.0067 -0.0841
67529W        W68393  22.567  16.392  10.131  0.1615 -0.4374  0.1677
67530W        W68394  24.391  17.497   6.812  0.2316 -0.2515  0.0893
67531W        W68395  24.654  17.358  10.336  0.2962 -0.0469 -0.0878
67532W        W68396  20.529  19.613  10.409 -0.1273 -0.1443 -0.1076
67533W        W68397  27.401  16.584   8.963 -0.2017 -0.0668 -0.1636
67534W        W68398  26.886  15.390   9.734  0.0128 -0.0004 -0.0947
67535W        W68399  23.058  15.400   7.505 -0.0939 -0.1649  0.0072
67536W        W68400  23.181  15.929  10.191 -0.2024  0.0616  0.2530
67537W        W68401  24.415  15.003   7.844 -0.0809 -0.0541  0.0753
67538W        W68402  25.123  18.718   7.302 -0.1606 -0.0298 -0.1303
67539W        W68403  22.130  14.866   8.239 -0.1367 -0.1797 -0.1307
67540W        W68404  25.139  12.543   6.811  0.0508  0.4001 -0.1485
67541W        W68405  25.730  15.470   6.155  0.2827 -0.2021 -0.2951
67542W        W68406  23.028  14.886   8.992  0.2045 -0.0662  0.4014
67543W        W68407  24.160  16.519   7.446  0.1200  0.0098  0.1345
67544W        W68408  25.112  15.152   8.550 -0.0143 -0.0023 -0.0880
67545W        W68409  23.665  15.113  10.706  0.0385  0.3305 -0.3795
67546W        W68410  24.701  15.971  10.521 -0.0072 -0.2328 -0.0510
67547W        W68411  24.883  16.286   9.453  0.0381  0.0025  0.0342
67548W        W68412  22.680  17.945   9.042  0.1083  0.0114  0.1161
67549W        W68413  23.745  18.308   7.674 -0.0274 -0.2191  0.1214
67550W        W68414  19.768  15.256  11.785 -0.0606 -0.1782 -0.2313
67551W        W68415  23.577  17.461  10.960 -0.1720 -0.0852 -0.2622
67552W        W68416  22.681  15.385   5.540 -0.2787  0.0414 -0.2812
67553W        W68417  27.239  16.269   8.624  0.1674  0.1091 -0.0303
67554W        W68418  25.878  18.930   9.321  0.2622 -0.2152  0.3098
67555W        W68419  24.480  17.361  11.685 -0.0773 -0.3570 -0.1712
67556W        W68420  23.058  15.386   9.109 -0.3959  0.2862 -0.3469
67557W        W68421  23.765  15.641   9.572 -0.0442  0.2076  0.0985
67558W        W68422  22.658  15.706   9.213 -0.0089  0.2044 -0.0814
67559W        W68423  23.640  15.170   7.850 -0.2004 -0.2331 -0.3289
67560W        W68424  23.632  15.386  11.533  0.2498  0.1323 -0.1628
67561W        W68425  24.088  14.361   7.717 -0.0206  0.0095  0.1393
67562W        W68426  25.444  14.913   8.090  0.0416 -0.6531  0.1530
67563W        W68427  23.030  18.397  10.757 -0.0707  0.1605 -0.1024
67564W        W68428  23.667  15.633  12.032 -0.0953  0.1425  0.0634
67565W        W68429  24.227  15.752  10.418 -0.1327  0.0922  0.2297
67566W        W68430  25.101  14.368   5.964  0.0068  0.2143  0.0733
67567W        W68431  25.356  16.482   8.631 -0.1097  0.3382  0.0617
67568W        W68432  23.031  17.331   8.615  0.1968  0.1530 -0.2363
67569W        W68433  22.520  16.940   8.053  0.0087  0.2150 -0.0093
67570W        W68434  24.798  19.132   7.454 -0.0092 -0.2358 -0.1291
67571W        W68435  23.032  18.629  11.220  0.1041 -0.0177  0.0090
67572W        W68436  25.411  18.338   9.569  0.0542 -0.2549  0.2297
67573W        W68437  21.268  15.255   8.321 -0.1133 -0.0068  0.1313
67574W        W68438  25.178  17.650   8.312 -0.0744 -0.0590  0.1886
67575W        W68439  22.881  13.987   8.983  0.1605 -0.1894 -0.3249
67576W        W68440  23.456  19.058   7.518 -0.3904  0.1899 -0.1742
67577W        W68441  23.223  13.178   8.045 -0.3551 -0.3503 -0.0378
67578W        W68442  21.970  15.731   8.004 -0.0671  0.1650 -0.0737
67579W        W68443  26.479  15.303  10.065  0.1124 -0.0108 -0.1918
67580W        W68444  25.891  16.472   9.853 -0.0718 -0.1631 -0.2175
67581W        W68445  26.948  17.145  10.554  0.0960 -0.1876  0.2851
67582W        W68446  22.609  17.988  13.070 -0.1176  0.0778 -0.1025
67583W        W68447  27.301  15.115  10.475  0.0159  0.0276 -0.0495
67584W        W68448  26.368  19.070   9.333 -0.0660 -0.0971 -0.2920
67585W        W68449  20.266  15.832   5.495 -0.4133  0.1531 -0.2245
67586W        W68450  25.980  15.232   8.863 -0.1029 -0.1414 -0.6272
67587W        W68451  23.494  12.918  10.101  0.1769  0.0153  0.1441
67588W        W68452  21.192  12.886   8.441  0.1086 -0.0908  0.3722
67589W        W68453  24.831  16.463   9.005 -0.1069  0.4968  0.2493
67590W        W68454  27.928  14.552   8.067  0.1503 -0.1565 -0.1570
67591W        W68455  23.363  14.979   7.509 -0.1444 -0.0579 -0.0391
67592W        W68456  22.644  18.472   7.433  0.2846 -0.1887  0.2440
67593W        W68457  25.907  18.784   8.791 -0.3649  0.2935 -0.2224
67594W        W68458  23.461  19.408  10.676  0.0182 -0.1920  0.2107
67595W        W68459  24.443  16.701   7.831 -0.0674  0.2907  0.0339
67596W        W68460  21.373  14.630  10.129  0.0508  0.0723 -0.0149
67597W        W68461  26.218  17.381  11.172  0.1400  0.0664  0.1377
67598W        W68462  20.955  17.133  10.677 -0.0933  0.2062 -0.0431
67599W        W68463  25.210  15.370   8.122  0.3380 -0.0860  0.0672
67600W        W68464  25.509  14.169   8.139  0.3363  0.2037  0.2367
67601W        W68465  25.212  14.511   5.501 -0.4110 -0.4036  0.1834
67602W        W68466  23.622  18.780  10.164 -0.1410 -0.0762 -0.0830
67603W        W68467  22.653  16.972   8.520  0.0945  0.1387  0.0456
67604W        W68468  22.990  14.294   4.875 -0.0325 -0.1095  0.2357
67605W        W68469  23.665  20.305   7.765 -0.1084  0.0862  0.1006
67606W        W68470  23.779  16.849   9.834  0.1661  0.0404 -0.0749
67607W        W68471  22.113  13.224  12.873  0.2345 -0.1312 -0.1833
67608W        W68472  20.888  17.218   8.246 -0.1190 -0.1884  0.0021
67609W        W68473  22.797  14.322   7.018 -0.1859  0.1910 -0.0497
67610W        W68474  24.161  17.557  10.310 -0.0850 -0.0711  0.1607
67611W        W68475  25.159  14.678   8.987 -0.2567 -0.1732  0.1267
67612W        W68476  20.372  15.357   8.991 -0.1702 -0.0127 -0.0670
67613W        W68477  25.042  15.697  10.776  0.1625  0.0563  0.0984
67614W        W68478  24.252  18.727  10.993 -0.2094 -0.1671 -0.1777
67615W        W68479  24.828  17.270   8.920  0.2376 -0.0498  0.2114
67616W        W68480  22.948  13.388   6.784 -0.0889  0.1696 -0.2236
67617W        W68481  20.211  13.240   4.331  0.0625  0.0773  0.3301
67618W        W68482  27.667  15.197   9.264  0.0540 -0.2202 -0.2549
67619W        W68483  22.034  15.219   7.832 -0.1380  0.1166 -0.0037
67620W        W68484  25.500  15.042   8.868  0.1075  0.0475 -0.0759
67621W        W68485  25.069  16.225   8.350 -0.1329 -0.1516  0.0118
67622W        W68486  26.047  17.768  10.389 -0.0396  0.1131 -0.0397
67623W        W68487  26.433  14.565   7.825  0.3083 -0.0236 -0.1244
67624W        W68488  25.507  15.298   9.316  0.0347  0.0667 -0.0538
67625W        W68489  23.634  15.250  10.036  0.0651  0.1313 -0.0172
67626W        W68490  22.379  15.129  10.041 -0.0422  0.1755 -0.1013
67627W        W68491  25.020  15.383   9.186 -0.3193  0.0383  0.3358
67628W        W68492  23.693  17.960   8.864 -0.1047 -0.1688  0.0038
67629W        W68493  26.541  19.535   9.427 -0.3508 -0.3999 -0.1567
67630W        W68494  22.010  14.668   7.159  0.0202  0.0181 -0.1979
67631W        W68495  24.696  14.938  10.275  0.0671 -0.0643  0.1729
67632W        W68496  28.159  17.782   9.405  0.0055 -0.0959 -0.0688
67633W        W68497  21.980  17.975  11.569  0.0275  0.4111 -0.2343
67634W        W68498  25.771  14.244  11.134  0.1613  0.1057 -0.0531
67635W        W68499  25.320  17.309   9.171 -0.3339 -0.2212 -0.1447
67636W        W68500  21.582  17.339  11.177 -0.1839  0.0272  0.1845
67637W        W68501  24.957  16.940   9.431 -0.0836 -0.2855  0.1439
67638W        W68502  24.052  16.621   9.304  0.0117  0.0324 -0.0712
67639W        W68503  26.622  17.434   9.178 -0.0355 -0.0187 -0.2660
67640W        W68504  24.646  16.094   8.705 -0.1062  0.1116  0.0489
67641W        W68505  27.021  17.599   9.968  0.2370  0.2632 -0.3347
67642W        W68506  24.830  17.761  12.407 -0.3661  0.1465 -0.2494
67643W        W68507  22.016  17.786  11.110 -0.4132 -0.2791 -0.1493
67644W        W68508  23.453  14.971  11.187 -0.0457  0.0459  0.2784
67645W        W68509  23.801  18.744  11.315  0.1962  0.2343 -0.1224
67646W        W68510  23.255  16.812   9.732 -0.0918  0.1223  0.2938
67647W        W68511  23.675  18.335   9.202  0.0695 -0.0538  0.0729
67648W        W68512  24.790  15.206   6.326 -0.3837 -0.1199  0.0544
67649W        W68513  21.354  21.214  16.145 -0.2567  0.2801 -0.0533
67650W        W68514  23.914  20.500  13.314  0.1103  0.2267  0.0225
67651W        W68515  24.238  18.025  10.418  0.0812 -0.1196  0.0985
67652W        W68516  24.800  17.920  13.473 -0.0774  0.0066 -0.0845
67653W        W68517  25.331  18.967  10.185 -0.2240 -0.0703 -0.2679
67654W        W68518  21.743  17.356  12.477 -0.0982  0.3930  0.1601
67655W        W68519  23.244  18.144  14.117  0.0360 -0.1264  0.1290
67656W        W68520  24.105  13.465  11.616  0.2802  0.1581  0.1643
67657W        W68521  23.161  19.272  14.122  0.0535  0.0034 -0.0343
67658W        W68522  23.519  17.074  11.697  0.0100 -0.0038  0.2099
67659W        W68523  22.368  14.621  14.639  0.0739  0.0269 -0.1766
67660W        W68524  22.791  18.041  13.537 -0.1087  0.3631  0.1627
67661W        W68525  21.929  14.408  13.776 -0.0478 -0.0326 -0.2867
67662W        W68526  23.144  15.657  14.093 -0.0488  0.0323  0.2120
67663W        W68527  23.276  15.632  15.995 -0.0002  0.2660 -0.3210
67664W        W68528  21.202  18.447  14.905 -0.2431 -0.1676 -0.1504
67665W        W68529  23.727  17.847  10.434  0.2430 -0.0332 -0.1084
67666W        W68530  22.911  17.305  11.740  0.1066  0.0672  0.1020
67667W        W68531  21.791  15.773  15.093  0.0153 -0.1500  0.4341
67668W        W68532  24.958  14.225   9.860  0.3375  0.1202 -0.1932
67669W        W68533  24.079  16.773  14.957 -0.1327  0.3582 -0.0661
67670W        W68534  21.867  14.482   8.797  0.1055 -0.4132  0.1601
67671W        W68535  23.708  14.458  12.742 -0.2876  0.0609  0.1566
67672W        W68536  21.911  15.451  13.224  0.0006  0.3205  0.2097
67673W        W68537  21.670  13.895  11.384 -0.1007 -0.0889  0.1702
67674W        W68538  22.696  14.079  15.441  0.0263 -0.1614  0.1316
67675W        W68539  24.821  17.051  17.730 -0.2543 -0.0116  0.1199
67676W        W68540  21.780  18.178  14.674  0.2330 -0.0364 -0.2051
67677W        W68541  25.213  17.830  14.661 -0.0380  0.1350  0.0089
67678W        W68542  21.009  14.851  13.220  0.0321 -0.2104  0.1723
67679W        W68543  22.337  15.352  13.475  0.1264 -0.0822 -0.1600
67680W        W68544  24.741  18.570  16.037 -0.2478 -0.1139  0.1092
67681W        W68545  24.798  16.839  14.100  0.3710  0.0353  0.0966
67682W        W68546  23.741  15.551  15.748  0.0351 -0.2206  0.1358
67683W        W68547  21.977  16.277  13.135 -0.1977 -0.2238 -0.1421
67684W        W68548  28.237  18.953  14.581 -0.4100  0.0988  0.0033
67685W        W68549  22.712  12.405  14.486  0.1328 -0.1564  0.0139
67686W        W68550  21.076  16.529  12.288  0.0540  0.3672 -0.0184
67687W        W68551  24.620  16.601  14.504  0.1813 -0.0520  0.1124
67688W        W68552  23.033  13.915  13.094 -0.2235  0.0992  0.1003
67689W        W68553  25.331  13.920   7.416  0.0502 -0.2608 -0.2312
67690W        W68554  24.297  15.105  15.060 -0.1741 -0.2768  0.2905
67691W        W68555  23.327  18.553  12.140 -0.3582 -0.1262  0.0031
67692W        W68556  24.296  16.710  12.968 -0.1362 -0.1584  0.1019
67693W        W68557  23.841  17.776  12.541  0.1010 -0.4481  0.1078
67694W        W68558  22.334  18.946  11.734  0.1658 -0.0178 -0.1224
67695W        W68559  22.705  15.013  11.644 -0.0268  0.0836  0.0976
67696W        W68560  25.119  15.942  13.882 -0.0710 -0.2068 -0.1087
67697W        W68561  23.382  15.138  12.095  0.0442 -0.0259 -0.0468
67698W        W68562  23.780  19.671  10.317  0.1990  0.4268  0.1356
67699W        W68563  22.805  16.931  13.873  0.0013 -0.0195 -0.3787
67700W        W68564  23.122  15.680  11.250 -0.0546 -0.1012  0.0413
67701W        W68565  20.767  18.627  12.583  0.0999 -0.0182 -0.1864
67702W        W68566  23.952  16.438  10.304  0.0628  0.3729  0.0182
67703W        W68567  21.110  12.980  13.959  0.3678 -0.1053  0.0056
67704W        W68568  23.368  18.001  12.330  0.2889 -0.0241 -0.1177
67705W        W68569  21.361  14.932  11.211 -0.2153  0.0148  0.1717
67706W        W68570  21.938  14.270  12.597 -0.0230  0.1130 -0.0243
67707W        W68571  21.881  19.265  15.346  0.2407  0.2937 -0.2247
67708W        W68572  22.871  20.334  14.850  0.1680 -0.1263 -0.0832
67709W        W68573  23.599  16.319   8.569  0.0687 -0.1434 -0.0272
67710W        W68574  22.204  21.054  13.644  0.1715  0.0844  0.1028
67711W        W68575  22.275  19.443  11.330 -0.0993  0.1655  0.2063
67712W        W68576  24.334  17.184  12.806 -0.1859 -0.1058  0.0760
67713W        W68577  21.523  16.423  14.446 -0.0175  0.1213  0.1527
67714W        W68578  23.014  13.430  13.190  0.3018  0.0018  0.0907
67715W        W68579  23.892  17.010  10.743  0.1563  0.0084  0.3001
67716W        W68580  23.748  14.637  10.925  0.3209 -0.3120  0.3101
67717W        W68581  22.088  18.446  12.380 -0.0190 -0.1059 -0.0412
67718W        W68582  22.837  17.294  14.263 -0.1202 -0.0629  0.2063
67719W        W68583  24.463  18.903  14.267  0.3861 -0.2659  0.0574
67720W        W68584  22.882  15.496  10.281  0.1900  0.0388 -0.1369
67721W        W68585  23.856  18.714  12.960 -0.2729 -0.2033  0.1221
67722W        W68586  22.306  16.166  11.375  0.0590  0.0568  0.1840
67723W        W68587  23.992  16.833  12.566  0.2144 -0.3069 -0.1366
67724W        W68588  24.100  15.774  12.873 -0.0735 -0.3438 -0.0548
67725W        W68589  21.114  15.696  13.082 -0.0377 -0.0246 -0.0970
67726W        W68590  23.789  18.229  11.431  0.1283 -0.1170 -0.0212
67727W        W68591  23.420  16.331  12.748 -0.1134  0.3129  0.1796
67728W        W68592  21.518  16.795  11.352 -0.0125 -0.0153  0.1601
67729W        W68593  20.679  17.823  11.473 -0.2835 -0.0492 -0.0013
67730W        W68594  21.897  15.440  12.329 -0.1710 -0.0693 -0.1124
67731W        W68595  21.208  13.600  15.070 -0.0546  0.2386  0.2902
67732W        W68596  24.665  12.855  12.811  0.1033 -0.0927  0.1156
67733W        W68597  22.574  16.559  12.558  0.1651 -0.3458 -0.1194
67734W        W68598  23.819  15.841   6.987  0.0298 -0.1672  0.1425
67735W        W68599  23.518  18.186  14.575 -0.2498 -0.3599  0.1581
67736W        W68600  21.387  14.963  14.254  0.0792  0.0096 -0.4485
67737W        W68601  23.049  14.713  13.919 -0.0491  0.0560 -0.0222
67738W        W68602  26.988  14.028   8.943 -0.3544 -0.0091  0.2689
67739W        W68603  24.433  15.060  16.455  0.1649  0.1268 -0.0872
67740W        W68604  21.795  19.584  12.336 -0.0384  0.0842  0.0653
67741W        W68605  20.535  14.652  11.366  0.0144 -0.4100 -0.0723
67742W        W68606  21.257  13.905  15.604 -0.0528  0.0072  0.1606
67743W        W68607  28.426  14.146  11.644 -0.1791  0.1784  0.2863
67744W        W68608  27.106  15.966   8.224  0.0811 -0.0257  0.2167
67745W        W68609  21.204  18.405  12.558 -0.0973  0.4248  0.2275
67746W        W68610  20.141  15.337  13.055 -0.1293 -0.1229  0.1431
67747W        W68611  24.392  15.893  12.397  0.3832 -0.0676 -0.0789
67748W        W68612  26.214  16.193  10.457  0.2566  0.1158  0.0398
67749W        W68613  23.532  17.415  14.676  0.1275 -0.1155  0.0699
67750W        W68614  24.247  17.695   9.535 -0.2328 -0.0666  0.0130
67751W        W68615  27.112  15.329  10.867  0.3976 -0.2063  0.0366
67752W        W68616  24.597  12.654  12.375 -0.0460 -0.1789  0.0388
67753W        W68617  22.625  16.607  15.104 -0.1084  0.2645 -0.2653
67754W        W68618  22.735  14.524  12.530 -0.1697  0.0136 -0.1199
67755W        W68619  22.533  16.523  14.633 -0.1175 -0.1205  0.1323
67756W        W68620  23.153  14.652  11.990 -0.0338 -0.3481 -0.1871
67757W        W68621  19.197  17.538  12.978 -0.1426  0.2018  0.3634
67758W        W68622  22.724  16.722  11.992 -0.1254 -0.0088 -0.1753
67759W        W68623  24.958  15.916  14.553  0.1264  0.1204 -0.2593
67760W        W68624  24.792  16.490  11.758  0.2270 -0.1092 -0.4505
67761W        W68625  25.153  15.465  15.985 -0.1542 -0.0252 -0.0718
67762W        W68626  23.034  17.351  10.782 -0.0437  0.1228 -0.3214
67763W        W68627  22.429  17.119  11.639 -0.0252 -0.1453  0.4383
67764W        W68628  25.256  14.416  12.079  0.2715  0.0173 -0.0849
67765W        W68629  25.772  16.571  12.609  0.2906 -0.1993  0.0173
67766W        W68630  21.330  15.851  13.635  0.0749  0.2152  0.1381
67767W        W68631  23.013  16.748  12.923 -0.3121 -0.2363  0.0229
67768W        W68632  24.248  18.156   9.329  0.3765 -0.1407 -0.0714
67769W        W68633  24.071  16.533  12.164  0.0491 -0.2144  0.2094
67770W        W68634  25.559  15.353  12.054 -0.2039 -0.0119 -0.0763
67771W        W68635  24.273  17.005  11.143  0.0313 -0.1876 -0.0463
67772W        W68636  24.103  14.019  13.458 -0.1006  0.1702  0.1060
67773W        W68637  22.498  18.180  13.993 -0.1889 -0.0065  0.2534
67774W        W68638  21.137  16.131  14.543  0.1320 -0.2324 -0.1043
67775W        W68639  24.164  14.844  12.870 -0.2704 -0.2728  0.0665
67776W        W68640  25.871  18.038  15.357 -0.0692  0.2351  0.0775
67777W        W68641  26.464  16.960  10.945 -0.0987  0.1128 -0.1854
67778W        W68642  23.466  15.305  15.376 -0.0186  0.1422  0.1376
67779W        W68643  25.121  14.875  12.243 -0.3090 -0.1411 -0.0020
67780W        W68644  23.691  16.568  11.850 -0.0941  0.0066 -0.1809
67781W        W68645  25.836  14.451  11.989 -0.2097 -0.1649 -0.3975
67782W        W68646  24.347  12.527  12.924  0.0905 -0.0574  0.0250
67783W        W68647  25.017  15.269  10.597  0.0190  0.0297  0.0061
67784W        W68648  21.150  14.531  12.263 -0.1314 -0.0506  0.0321
67785W        W68649  24.985  16.481  16.172 -0.2247 -0.0022  0.1153
67786W        W68650  24.202  15.284  12.494  0.6819  0.3507 -0.1401
67787W        W68651  23.936  16.843  13.797  0.1403  0.0394 -0.0357
67788W        W68652  21.616  15.197  10.898 -0.1420 -0.0920  0.1441
67789W        W68653  22.421  14.328  11.602  0.0187 -0.2330  0.1178
67790W        W68654  24.595  19.483  11.678  0.1356 -0.1163 -0.0107
67791W        W68655  25.387  13.237  12.488  0.0231  0.0711  0.1592
67792W        W68656  23.286  16.584  15.159  0.0951  0.1746 -0.1880
67793W        W68657  24.055  16.166  11.524 -0.1329  0.0611  0.0314
67794W        W68658  19.847  13.776  12.957  0.2114 -0.1479 -0.0811
67795W        W68659  24.593  16.817  15.069 -0.2974 -0.1143  0.4137
67796W        W68660  23.124  14.770  13.376 -0.1155 -0.1909  0.1601
67797W        W68661  20.976  16.583  13.384 -0.0957  0.0033  0.0816
67798W        W68662  26.263  17.070  13.896 -0.0010 -0.1067 -0.0354
67799W        W68663  22.587  18.655  10.932  0.0746  0.2755 -0.0791
67800W        W68664  23.038  15.784  14.663  0.1863  0.0650 -0.0240
67801W        W68665  21.352  15.303  11.576  0.3529 -0.0120 -0.2152
67802W        W68666  23.086  15.116  12.913  0.0905  0.0591 -0.1799
67803W        W68667  21.391  14.446  11.355  0.3350  0.0700 -0.1300
67804W        W68668  20.121  17.176  12.006 -0.3488 -0.1216  0.2634
67805W        W68669  21.064  17.289  10.251 -0.1876 -0.2162  0.0599
67806W        W68670  24.565  13.843   9.921  0.1291  0.0092 -0.0960
67807W        W68671  23.241  15.804  13.632 -0.1687  0.1934 -0.1045
67808W        W68672  24.306  18.425  14.015 -0.1008  0.3263  0.0490
67809W        W68673  18.395  16.210  16.214  0.1132  0.2521 -0.1431
67810W        W68674  22.560  15.518  15.416  0.0841 -0.0629  0.1266
67811W        W68675  24.865  18.776  14.718 -0.0299  0.1218 -0.0151
67812W        W68676  23.816  12.153  13.198  0.2416  0.1485  0.0632
67813W        W68677  20.443  18.304  11.849 -0.4816 -0.0395  0.3391
67814W        W68678  20.201  15.353  10.837 -0.3222 -0.0867  0.0332
67815W        W68679  21.625  18.241  12.227 -0.1278  0.0931  0.0768
67816W        W68680  24.839  15.309  12.167 -0.1615 -0.1541  0.0122
67817W        W68681  22.680  15.653  13.827  0.1083  0.2242  0.2273
67818W        W68682  24.034  14.762  11.889 -0.2625 -0.2659 -0.0620
67819W        W68683  24.996  17.061  15.353  0.1143 -0.0956  0.3452
67820W        W68684  23.232  19.355  11.495  0.0491 -0.0191 -0.1825
67821W        W68685  24.039  13.878  11.981  0.0853  0.2707  0.3640
67822W        W68686  27.246  15.833  12.676 -0.2891 -0.0698 -0.1414
67823W        W68687  22.110  16.677  12.748  0.1736 -0.3755  0.0637
67824W        W68688  21.628  17.821  14.217 -0.3993 -0.0762  0.4533
67825W        W68689  25.793  16.995  11.050  0.3464  0.1907 -0.2058
67826W        W68690  21.765  15.196  11.851  0.2728 -0.0291  0.2048
67827W        W68691  26.344  17.162  10.472 -0.0695 -0.0744  0.0982
67828W        W68692  27.299  18.662  12.559 -0.0485  0.0259 -0.1427
67829W        W68693  22.372  14.654  11.228 -0.0657  0.1255 -0.0935
67830W        W68694  22.699  15.029  12.610  0.1020  0.0311 -0.2252
67831W        W68695  23.687  13.278   9.854 -0.1518 -0.0469  0.0168
67832W        W68696  24.811  18.480  16.768  0.0583  0.0358 -0.0539
67833W        W68697  23.124  15.184  10.815  0.0616  0.1496 -0.1574
67834W        W68698  23.104  17.730  11.192  0.0203 -0.0574  0.0659
67835W        W68699  22.951  16.969  13.375  0.2075 -0.3042  0.1792
67836W        W68700  21.793  16.440  11.633 -0.0129 -0.1294 -0.1405
67837W        W68701  23.161  16.677  11.866  0.0294  0.1215 -0.0915
67838W        W68702  21.598  17.444  10.069  0.1826  0.0720 -0.1257
67839W        W68703  21.675  15.331  14.385 -0.1406  0.0963 -0.3330
67840W        W68704  22.264  15.142  14.520  0.0729  0.1218 -0.1064
67841W        W68705  24.471  17.030  13.765 -0.1632  0.1743  0.1084
67842W        W68706  21.634  14.864  13.701 -0.0836 -0.0065 -0.4819
67843W        W68707  24.038  16.012  12.112 -0.2251  0.0118 -0.1283
67844W        W68708  22.235  16.900  13.924 -0.6375  0.1575 -0.4210
67845W        W68709  20.513  17.298  12.678  0.1965  0.0429 -0.2607
67846W        W68710  26.172  14.470  11.438 -0.2519 -0.2130 -0.1018
67847W        W68711  21.730  14.798  10.424 -0.1941  0.1916  0.3013
67848W        W68712  22.976  15.994  12.502 -0.4093 -0.0698 -0.2578
67849W        W68713  24.855  17.162   9.901  0.2088  0.0601  0.0825
67850W        W68714  22.181  15.681  11.198  0.0250  0.2301 -0.2203
67851W        W68715  22.438  16.705  13.455  0.0740 -0.0178  0.0946
67852W        W68716  21.786  12.744  10.031  0.1326 -0.3904 -0.2487
67853W        W68717  23.196  17.465  13.965  0.0405 -0.2769  0.2872
67854W        W68718  23.994  14.343  10.677  0.0605 -0.1361  0.2320
67855W        W68719  24.299  18.261  11.260  0.2542 -0.0791  0.0267
67856W        W68720  22.238  18.290  11.299 -0.1741  0.1625 -0.1012
67857W        W68721  23.525  18.727  14.419  0.1378 -0.4115  0.1851
67858W        W68722  23.280  15.686  11.747  0.2409  0.0919 -0.1183
67859W        W68723  21.907  14.777  12.161  0.0318 -0.0928 -0.2274
67860W        W68724  24.159  14.664  15.375  0.1197  0.0215  0.1720
67861W        W68725  23.362  16.112  14.059 -0.1530 -0.1294  0.2230
67862W        W68726  25.512  15.880  11.711 -0.0334  0.1078 -0.0081
67863W        W68727  23.603  15.835  11.345  0.0072 -0.3916  0.0594
67864W        W68728  23.051  17.773  13.190 -0.2539  0.0104  0.2927
67865W        W68729  23.056  15.374  15.024 -0.1362  0.0075 -0.2534
67866W        W68730  21.226  17.245  14.875  0.0091 -0.0258 -0.2182
67867W        W68731  22.881  15.811  15.687  0.0887  0.1033 -0.2025
67868W        W68732  24.311  16.688  10.641 -0.0505 -0.2795  0.0994
67869W        W68733  21.876  15.325  13.687 -0.0734 -0.0350 -0.1269
67870W        W68734  22.016  17.484  11.589  0.0942 -0.0016  0.2391
67871W        W68735  24.345  17.684  12.078  0.3053 -0.2710 -0.0672
67872W        W68736  22.512  16.012  14.709  0.0104 -0.0382 -0.0866
67873W        W68737  22.326  17.330  14.730 -0.1128  0.1627  0.1601
67874W        W68738  22.562  15.521  14.264 -0.2089 -0.0050 -0.1292
67875W        W68739  23.332  16.701  11.292 -0.2632  0.2161 -0.1213
67876W        W68740  25.219  17.738   9.401 -0.0447 -0.0965 -0.2139
67877W        W68741  23.395  15.411  12.683 -0.2203  0.1396  0.0427
67878W        W68742  20.825  17.517  15.644 -0.1959  0.1006  0.0922
67879W        W68743  20.939  17.759  10.191  0.1066 -0.2639  0.0236
67880W        W68744  23.577  14.798  11.722 -0.1873 -0.1407 -0.0751
67881W        W68745  23.010  17.947  11.697  0.3072 -0.0527  0.0056
67882W        W68746  23.061  16.520  12.444 -0.2158 -0.3490 -0.0903
67883W        W68747  24.005  17.595  10.763 -0.1988  0.1280  0.0388
67884W        W68748  21.617  14.309  12.218  0.0794 -0.0029  0.0489
67885W        W68749  24.940  16.582  12.218  0.0186 -0.0332 -0.1683
67886W        W68750  22.603  15.504  13.072 -0.0361 -0.4427 -0.0504
67887W        W68751  24.439  17.778  10.975  0.0260  0.1202 -0.2427
67888W        W68752  18.964  18.963  14.472 -0.1912 -0.0349  0.0935
67889W        W68753  21.140  13.921  11.444  0.0074  0.0907 -0.1031
67890W        W68754  20.692  14.233  12.160 -0.2408  0.0603  0.1732
67891W        W68755  22.593  17.242  10.640  0.1293 -0.2806  0.1073
67892W        W68756  23.156  16.153  12.026 -0.2385  0.1628 -0.3336
67893W        W68757  23.646  14.759  15.852  0.4957 -0.3527 -0.2174
67894W        W68758  24.586  17.327  12.387 -0.2670 -0.0306  0.0735
67895W        W68759  26.207  17.997  13.263  0.2288 -0.0707 -0.0364
67896W        W68760  24.238  14.066  12.496  0.5006  0.0887 -0.0743
67897W        W68761  22.115  18.196  12.840  0.3574  0.0668  0.0289
67898W        W68762  24.163  18.106  12.252  0.1176 -0.0011  0.2205
67899W        W68763  25.196  17.175  16.569  0.1633  0.1166 -0.0861
67900W        W68764  22.718  13.910  11.463  0.1232  0.3853  0.0881
67901W        W68765  23.291  18.237  11.349 -0.0962 -0.3236 -0.0549
67902W        W68766  24.568  16.642  13.424 -0.3104  0.2705  0.0480
67903W        W68767  26.275  16.144   9.990 -0.1915 -0.0237  0.2017
67904W        W68768  23.866  15.338  12.986 -0.1737 -0.1926 -0.1736
67905W        W68769  28.588  16.228  10.535 -0.2323 -0.1433  0.1652
67906W        W68770  25.983  15.378   9.736  0.0368  0.0906 -0.0757
67907W        W68771  22.631  17.701  10.384 -0.0434  0.2046  0.1834
67908W        W68772  24.991  16.710  15.684 -0.0524  0.0806 -0.2102
67909W        W68773  21.368  16.817  13.248 -0.1014 -0.4878  0.0978
67910W        W68774  21.912  14.713  15.415  0.0852  0.0614 -0.1728
67911W        W68775  22.052  15.751  12.729 -0.0300 -0.0353 -0.1360
67912W        W68776  20.008  17.561  14.059 -0.0299  0.0011 -0.0684
67913W        W68777  21.982  16.577  11.120  0.0015  0.1128  0.1940
67914W        W68778  25.132  17.010  11.147 -0.2020  0.0229 -0.1155
67915W        W68779  25.956  16.287  13.237  0.0637 -0.1944  0.0593
67916W        W68780  26.891  16.451   9.794  0.1008  0.0916  0.0355
67917W        W68781  21.320  17.102  12.446 -0.0491  0.1537 -0.1686
67918W        W68782  24.916  15.526  17.308 -0.1826 -0.3310 -0.1436
67919W        W68783  24.955  16.928  13.588 -0.2329  0.1565  0.2000
67920W        W68784  21.349  18.374  13.564 -0.1651 -0.0235  0.3276
67921W        W68785  25.246  17.048  13.996 -0.2759  0.1213 -0.2018
67922W        W68786  22.809  14.244  12.178 -0.0937 -0.0572 -0.0783
67923W        W68787  21.074  15.110  16.243  0.2687  0.2290 -0.0137
67924W        W68788  21.442  15.793  11.580  0.1580  0.1983 -0.3214
67925W        W68789  21.477  14.143   8.924  0.0826 -0.1863  0.0760
67926W        W68790  19.766  17.372  14.436 -0.0442  0.0579  0.0626
67927W        W68791  24.211  16.431  15.847  0.2671  0.0914  0.1150
67928W        W68792  23.890  14.524   9.767  0.2465  0.0736  0.0887
67929W        W68793  22.472  14.679  12.142 -0.0540 -0.3161  0.0178
67930W        W68794  23.513  18.234  12.772 -0.1411 -0.0714 -0.1033
67931W        W68795  25.245  15.693  11.249 -0.0929  0.0108  0.0333
67932W        W68796  24.884  15.005  15.979  0.0706 -0.2198  0.3826
67933W        W68797  24.583  15.379  10.149 -0.4940 -0.3037  0.0929
67934W        W68798  21.478  15.589  12.047  0.1742  0.1171 -0.1120
67935W        W68799  23.653  13.712  12.421 -0.0301  0.0762  0.0664
67936W        W68800  24.220  15.245  10.463  0.1321 -0.0653 -0.0454
67937W        W68801  20.599  14.717  13.523  0.0200  0.0476 -0.1656
67938W        W68802  25.315  13.063  10.580 -0.1236 -0.1088  0.2059
67939W        W68803  23.761  15.723  13.412  0.0464  0.3311 -0.3591
67940W        W68804  21.091  17.930  12.779 -0.3480  0.0767 -0.0394
67941W        W68805  24.705  17.527  13.165 -0.1538  0.1053 -0.0209
67942W        W68806  27.111  14.598  11.284  0.0779 -0.3144  0.1134
67943W        W68807  22.167  14.102  13.367  0.1886  0.0331 -0.0618
67944W        W68808  24.930  19.616  11.311 -0.1148  0.4593 -0.1560
67945W        W68809  24.748  15.783  12.075 -0.2659 -0.1682  0.1841
67946W        W68810  24.038  18.276  12.766  0.0699 -0.0677  0.1858
67947W        W68811  23.736  18.755  13.559  0.1812  0.2902 -0.2420
67948W        W68812  20.149  15.156  14.813 -0.2747  0.2048 -0.2878
67949W        W68813  20.993  17.101  14.112 -0.1883  0.3296 -0.1886
67950W        W68814  27.030  17.039  14.351  0.0106 -0.1044  0.1546
67951W        W68815  22.879  17.866   9.922  0.1587 -0.2015  0.0252
67952W        W68816  24.038  16.248  12.682 -0.1752 -0.2345 -0.0577
67953W        W68817  27.376  19.525  12.471  0.1663 -0.0988 -0.0486
67954W        W68818  22.183  14.219  10.378 -0.1458 -0.2018 -0.0531
67955W        W68819  24.359  14.833  14.274  0.0467  0.2293  0.1932
67956W        W68820  20.186  17.114  16.291  0.0226  0.3970  0.0490
67957W        W68821  25.416  15.586  10.456 -0.1310  0.1702 -0.2601
67958W        W68822  22.217  16.754  16.573 -0.3283 -0.2440 -0.1216
67959W        W68823  23.710  17.010  11.206 -0.1291  0.0684  0.1150
67960W        W68824  25.512  16.372  12.999 -0.0362  0.0638  0.1103
67961W        W68825  22.383  17.736  13.644  0.4315 -0.0962  0.0059
67962W        W68826  24.097  17.329  14.384  0.2375 -0.1636  0.0633
67963W        W68827  22.894  16.350  11.054  0.1054 -0.5213  0.0038
67964W        W68828  23.765  15.029  12.602  0.2416  0.2985 -0.0811
67965W        W68829  23.256  17.028  14.368 -0.3599  0.2461 -0.0609
67966W        W68830  23.131  14.865  14.940 -0.0055  0.1489 -0.0950
67967W        W68831  22.093  17.830  14.286  0.0277  0.1024 -0.0135
67968W        W68832  25.006  18.399  13.325  0.2133  0.4485 -0.2429
67969W        W68833  24.660  18.599  15.142 -0.0362 -0.0109  0.0079
67970W        W68834  25.656  15.653  15.991 -0.3303 -0.1275  0.4624
67971W        W68835  20.565  19.758  11.432  0.2230 -0.0194 -0.1229
67972W        W68836  23.714  17.244  12.739  0.1448 -0.1820 -0.2072
67973W        W68837  23.219  16.182  11.499  0.0865 -0.1279 -0.2660
67974W        W68838  23.147  19.102  10.941  0.0912  0.1994  0.0860
67975W        W68839  22.061  16.270   9.375  0.3206 -0.2800 -0.0719
67976W        W68840  20.024  17.459  12.430 -0.1707  0.3480  0.0969
67977W        W68841  21.731  19.051  13.058 -0.0235  0.1644  0.1559
67978W        W68842  24.775  16.435  10.598 -0.1247  0.1289 -0.0974
67979W        W68843  26.806  17.480  14.310 -0.0434  0.2362  0.0963
67980W        W68844  25.563  20.308  15.132 -0.1396  0.1831 -0.0529
67981W        W68845  26.207  19.048  12.790  0.1061  0.2116  0.2078
67982W        W68846  24.362  18.038  13.201  0.2668  0.0211  0.2766
67983W        W68847  22.530  17.670  11.944 -0.0706  0.0364  0.0917
67984W        W68848  23.683  15.857  10.201 -0.1397 -0.0787  0.0032
67985W        W68849  26.704  15.988  12.629 -0.1767 -0.0647  0.0091
67986W        W68850  21.309  14.281  11.849 -0.3928 -0.0398  0.0398
67987W        W68851  24.621  16.601  11.096  0.2077 -0.0661 -0.4039
67988W        W68852  23.128  15.233  11.432 -0.1459  0.0450  0.1291
67989W        W68853  21.912  11.429  12.899  0.2209 -0.1861 -0.0248
67990W        W68854  23.114  17.843   8.099  0.1729  0.1477  0.1080
67991W        W68855  20.638  15.470  14.022  0.1556  0.0582  0.2204
67992W        W68856  21.339  19.403  16.175 -0.0811  0.1198 -0.3381
67993W        W68857  24.010  18.330   8.305  0.0691  0.2105 -0.0610
67994W        W68858  21.675  17.754  10.464  0.0828  0.0135 -0.0304
67995W        W68859  24.472  15.983  11.764  0.0940  0.2320  0.0663
67996W        W68860  21.800  16.005  10.266  0.1426 -0.1738 -0.0672
67997W        W68861  23.473  14.498  14.967 -0.1539  0.0290 -0.1366
67998W        W68862  24.435  13.836  12.913  0.0622 -0.2317 -0.3854
67999W        W68863  26.382  16.660  11.855  0.0777  0.1864 -0.0477
68000W        W68864  21.801  15.253  11.350 -0.0489  0.1811  0.0268
68001W        W68865  25.233  17.794  13.221  0.2157 -0.1796 -0.0089
68002W        W68866  24.682  14.505   9.332 -0.2044  0.2929  0.1879
68003W        W68867  21.584  16.852  14.954 -0.0314  0.1934  0.1763
68004W        W68868  21.603  15.906  14.542  0.0278  0.0545  0.0824
68005W        W68869  23.655  16.638  15.957  0.1246 -0.0166  0.0948
68006W        W68870  21.296  17.260  11.600  0.0655  0.5515 -0.1138
68007W        W68871  24.181  17.684   8.805  0.1764  0.0242  0.1511
68008W        W68872  23.869  17.748  14.538 -0.0486  0.1422  0.0474
68009W        W68873  21.934  16.764  13.304 -0.0892  0.0306  0.0030
68010W        W68874  23.398  16.384   9.450 -0.0675  0.0889  0.0842
68011W        W68875  25.681  18.513  15.500 -0.1670  0.1160 -0.3097
68012W        W68876  23.145  13.798  12.239 -0.1531 -0.0484 -0.0336
68013W        W68877  24.257  15.605  11.981  0.0735 -0.4989  0.1324
68014W        W68878  25.042  16.462  12.737 -0.0626  0.1664 -0.1489
68015W        W68879  22.827  15.150  12.144  0.2066  0.3977  0.1483
68016W        W68880  26.172  15.910  12.359  0.3762  0.0672  0.0920
68017W        W68881  23.475  16.389  10.006 -0.0537 -0.2025 -0.0256
68018W        W68882  24.561  15.881  10.061  0.1178  0.0724 -0.0795
68019W        W68883  26.510  19.901  10.743  0.4457  0.3954 -0.1221
68020W        W68884  25.456  16.491  14.852 -0.0459 -0.2007  0.3852
68021W        W68885  23.418  17.612  11.844 -0.0621  0.2747  0.1077
68022W        W68886  22.717  16.377  11.591 -0.1340 -0.1773 -0.0545
68023W        W68887  21.259  15.692  14.872  0.1460 -0.2867  0.1213
68024W        W68888  22.775  18.102  15.140 -0.0697 -0.1067  0.0441
68025W        W68889  22.057  15.367  15.307  0.0151  0.4142 -0.2902
68026W        W68890  21.568  15.680  14.078  0.1365  0.1161  0.1416
68027W        W68891  22.707  18.198  16.427  0.1122 -0.3660 -0.0609
68028W        W68892  20.445  17.282  14.110 -0.0515  0.2019  0.0252
68029W        W68893  24.273  17.806  14.831 -0.2672  0.2042  0.0101
68030W        W68894  21.975  17.427  13.839 -0.0689 -0.0870 -0.4348
68031W        W68895  25.719  19.258  11.220  0.0660  0.0435 -0.1036
68032W        W68896  22.470  16.449  13.055  0.0163 -0.1033  0.1428
68033W        W68897  26.118  16.669  13.645  0.5018  0.1267  0.0072
68034W        W68898  23.572  17.468  12.266 -0.1704  0.1413 -0.3437
68035W        W68899  22.660  18.490  13.443  0.0452  0.2556 -0.0157
68036W        W68900  25.934  18.907  13.249 -0.2546 -0.0379  0.1289
68037W        W68901  22.956  16.863  17.758 -0.2545 -0.0219  0.0332
68038W        W68902  23.262  17.450  12.632  0.1219  0.1520  0.1133
68039W        W68903  25.211  15.856  15.331 -0.1334 -0.0464 -0.3454
68040W        W68904  22.466  18.072  12.481  0.0249 -0.2364  0.1799
68041W        W68905  21.440  16.874  16.966 -0.0059 -0.2247  0.1424
68042W        W68906  22.701  18.822  16.413 -0.0072 -0.0177  0.2082
68043W        W68907  22.250  16.175  10.399 -0.0895 -0.0012  0.4746
68044W        W68908  21.682  14.766  16.821  0.0828 -0.1390 -0.2420
68045W        W68909  24.345  19.022   9.178 -0.0526 -0.0777 -0.0378
68046W        W68910  22.769  18.098  11.154 -0.1606  0.0033 -0.2077
68047W        W68911  21.636  18.164  19.590 -0.2308 -0.1656 -0.1550
68048W        W68912  23.324  16.967  17.207 -0.0110 -0.0078 -0.0374
68049W        W68913  24.448  16.364  14.938  0.0110  0.0737 -0.2298
68050W        W68914  26.950  18.013  18.074  0.0636  0.0515 -0.0370
68051W        W68915  23.671  18.183  16.951  0.2389  0.3496 -0.1216
68052W        W68916  23.268  14.308  12.390 -0.0039  0.2620 -0.1908
68053W        W68917  23.022  16.287  15.472 -0.1714 -0.0017 -0.0233
68054W        W68918  23.482  14.979  14.085  0.1406  0.1158  0.2441
68055W        W68919  20.001  19.261  17.475 -0.0054  0.0951  0.0272
68056W        W68920  22.676  15.081  17.865  0.0746 -0.0004  0.0361
68057W        W68921  22.750  14.860  15.879  0.1541  0.2989  0.1306
68058W        W68922  23.981  14.422  14.964  0.1758 -0.1310  0.3929
68059W        W68923  23.670  14.723  16.424 -0.3239 -0.0305 -0.1887
68060W        W68924  25.306  14.785  19.343 -0.3701 -0.2786 -0.1881
68061W        W68925  22.477  11.619  18.575 -0.0773 -0.0292 -0.0339
68062W        W68926  20.559  17.708  18.239 -0.1287 -0.2279  0.1681
68063W        W68927  22.822  17.791  13.973  0.1820 -0.1015 -0.1122
68064W        W68928  20.458  15.912  15.483 -0.2520 -0.1072  0.1200
68065W        W68929  23.329  15.417  18.788 -0.2159  0.0800  0.0861
68066W        W68930  22.348  15.183  13.996 -0.0271 -0.0014 -0.1618
68067W        W68931  25.187  18.516  15.252 -0.0580  0.0209  0.1495
68068W        W68932  23.062  14.799  18.196 -0.1369  0.0084 -0.3800
68069W        W68933  24.301  18.087  15.294 -0.1418  0.1689  0.1864
68070W        W68934  22.156  16.002  16.869  0.0389  0.2991 -0.0807
68071W        W68935  20.544  14.876  12.914  0.0548 -0.2458  0.0828
68072W        W68936  22.541  14.662  19.503  0.2369 -0.2355 -0.0889
68073W        W68937  25.969  17.573  15.950 -0.3670 -0.0951  0.4231
68074W        W68938  21.641  17.391  16.983  0.0762 -0.1596 -0.6234
68075W        W68939  24.702  16.746  18.137  0.0374 -0.2322  0.1654
68076W        W68940  25.321  16.853  17.118 -0.0279  0.1253 -0.1043
68077W        W68941  21.489  15.467  16.090  0.1138  0.0291 -0.0984
68078W        W68942  24.166  15.086  18.433  0.1117  0.0210 -0.0243
68079W        W68943  23.441  16.177  20.009 -0.4344 -0.1311  0.0011
68080W        W68944  24.346  17.079  17.946  0.0559  0.0708 -0.0784
68081W        W68945  22.103  19.343  17.976 -0.0433  0.3449 -0.1681
68082W        W68946  25.144  15.544  19.935  0.1678 -0.2085  0.0431
68083W        W68947  21.322  14.453  16.897 -0.2846  0.1827  0.1910
68084W        W68948  22.257  15.794  15.109  0.0252 -0.0213  0.0255
68085W        W68949  26.245  18.086  14.995  0.1555 -0.1933  0.2721
68086W        W68950  22.407  16.924  19.146  0.0604 -0.1345  0.3535
68087W        W68951  25.124  15.351  14.707  0.1611 -0.0325 -0.2623
68088W        W68952  24.411  18.340  16.327  0.0199  0.1727  0.1065
68089W        W68953  21.028  19.142  16.540  0.0185  0.0209 -0.0487
68090W        W68954  27.320  17.496  14.476 -0.1979  0.1965  0.3350
68091W        W68955  20.877  21.526  11.639 -0.3626  0.0459  0.0607
68092W        W68956  21.896  17.907  17.095 -0.0960 -0.2248  0.1375
68093W        W68957  22.112  17.922  15.743  0.3063 -0.0580 -0.0403
68094W        W68958  25.751  16.674  16.218  0.0163 -0.2358 -0.1824
68095W        W68959  23.268  17.387  15.601 -0.3861  0.0166 -0.1681
68096W        W68960  26.324  18.496  13.410  0.0229  0.0919 -0.0806
68097W        W68961  25.217  17.484  16.968  0.0917 -0.3470 -0.3148
68098W        W68962  24.506  15.501  16.597  0.0664  0.0436 -0.3082
68099W        W68963  23.936  18.320  16.516 -0.4912  0.2789 -0.1572
68100W        W68964  24.692  15.497  14.997  0.0120 -0.0676 -0.0057
68101W        W68965  20.817  14.727  16.390 -0.0326 -0.1112  0.0824
68102W        W68966  23.490  17.382  15.166 -0.0553  0.2187 -0.0268
68103W        W68967  19.751  14.720  13.920 -0.0023 -0.1421  0.0432
68104W        W68968  24.805  15.254  16.889  0.0516 -0.2264  0.0296
68105W        W68969  21.642  16.194  19.774  0.2927  0.3942  0.0346
68106W        W68970  24.078  17.073  18.837 -0.0519  0.1304 -0.1273
68107W        W68971  24.182  15.471  13.924 -0.2782 -0.0935 -0.1413
68108W        W68972  21.224  18.887  17.379 -0.0283 -0.0620  0.1560
68109W        W68973  22.569  15.603  18.706  0.1510 -0.0755  0.0186
68110W        W68974  23.860  17.885  15.694 -0.2622  0.5077 -0.0805
68111W        W68975  20.541  10.894  15.512 -0.0667 -0.1363  0.0716
68112W        W68976  25.767  12.208  15.090  0.0571 -0.1465  0.0734
68113W        W68977  23.327  19.151  16.625 -0.1260 -0.1354  0.0167
68114W        W68978  21.999  17.249  12.994 -0.1107 -0.1917 -0.3466
68115W        W68979  22.867  16.640  14.268 -0.1306  0.2143 -0.2268
68116W        W68980  21.360  17.112  19.241  0.2582  0.2304 -0.0782
68117W        W68981  24.582  19.249  19.047  0.1162 -0.3238  0.1918
68118W        W68982  23.743  14.879  15.214  0.2164  0.0160  0.1085
68119W        W68983  24.610  16.825  16.004 -0.0578  0.0545  0.1411
68120W        W68984  27.189  14.900  17.619 -0.1139  0.0754 -0.0021
68121W        W68985  27.577  18.953  17.185 -0.1047  0.0818  0.1864
68122W        W68986  23.462  14.822  17.404 -0.0856  0.2357 -0.1719
68123W        W68987  21.052  15.388  14.411  0.1573 -0.0394 -0.0334
68124W        W68988  20.983  16.734  16.753 -0.2246  0.1288 -0.1759
68125W        W68989  22.960  16.297  14.750 -0.3193  0.1748 -0.1001
68126W        W68990  21.787  16.155  14.063  0.0075 -0.0830  0.3542
68127W        W68991  20.668  16.387  18.171  0.1887 -0.0534 -0.3300
68128W        W68992  18.846  15.195  17.032 -0.1998  0.1332  0.4007
68129W        W68993  23.161  13.272  15.376 -0.1553 -0.0394  0.0808
68130W        W68994  23.842  16.064  15.766 -0.2306  0.0491 -0.2552
68131W        W68995  24.918  16.781  16.726  0.2289 -0.2834  0.1338
68132W        W68996  25.191  14.797  15.418 -0.0754 -0.1093 -0.1309
68133W        W68997  24.521  18.435  17.703 -0.1808  0.1424  0.1489
68134W        W68998  25.024  16.812  18.550  0.1503 -0.0403  0.1298
68135W        W68999  26.658  14.767  19.221 -0.0672  0.0980 -0.0393
68136W        W69000  25.075  15.369  18.134 -0.1016 -0.1266 -0.2564
68137W        W69001  22.356  13.428  14.569 -0.2354 -0.0108 -0.1941
68138W        W69002  24.427  15.394  19.211 -0.0828  0.3607 -0.2510
68139W        W69003  23.496  16.494  16.501 -0.1491  0.3393 -0.2531
68140W        W69004  23.245  16.135  13.196 -0.0105  0.2252  0.1023
68141W        W69005  22.014  14.372  19.518  0.2403 -0.0640 -0.3436
68142W        W69006  24.946  17.193  14.443 -0.0945  0.0296 -0.2231
68143W        W69007  27.268  17.772  13.934  0.1970 -0.1356 -0.1556
68144W        W69008  19.200  16.926  16.784  0.2405  0.1599  0.3180
68145W        W69009  24.280  13.367  14.108  0.1704 -0.1187 -0.1139
68146W        W69010  28.371  16.246  15.088 -0.1156 -0.0933 -0.0920
68147W        W69011  25.629  18.759  15.925  0.1583 -0.0566 -0.2484
68148W        W69012  22.397  16.513  16.177  0.1150  0.1283 -0.0867
68149W        W69013  23.797  18.211  15.302 -0.0221  0.2780 -0.0598
68150W        W69014  25.719  18.061  16.776  0.1909  0.0028  0.1993
68151W        W69015  26.003  15.291  15.784  0.2201  0.1015 -0.2902
68152W        W69016  21.938  16.151  18.818 -0.2502  0.1633 -0.2551
68153W        W69017  23.425  17.067  13.706 -0.2017 -0.0702 -0.1009
68154W        W69018  25.735  16.511  19.912 -0.1740  0.1158 -0.4388
68155W        W69019  26.903  17.134  16.430 -0.0384 -0.0687 -0.7075
68156W        W69020  23.202  16.549  13.792 -0.0336  0.1827 -0.3478
68157W        W69021  19.830  17.077  18.411  0.2370  0.0615  0.1417
68158W        W69022  23.064  18.477  18.183 -0.0156 -0.5147  0.1273
68159W        W69023  26.881  17.137  18.698 -0.0095 -0.2552 -0.1501
68160W        W69024  23.835  17.164  17.974  0.2563 -0.1970  0.3802
68161W        W69025  23.867  18.112  14.156  0.0713 -0.2019 -0.3084
68162W        W69026  20.521  15.504  16.708 -0.2282 -0.0009 -0.1692
68163W        W69027  25.163  14.846  18.065 -0.4134  0.2041 -0.1017
68164W        W69028  22.824  16.175  17.537  0.2442 -0.0619 -0.2155
68165W        W69029  25.683  14.203  18.286  0.0960  0.3381  0.0716
68166W        W69030  23.199  16.602  16.889 -0.3041  0.1481 -0.1584
68167W        W69031  21.453  17.864  14.865  0.2371  0.0891 -0.0276
68168W        W69032  23.729  17.746  16.588 -0.1425 -0.0041 -0.0623
68169W        W69033  24.398  18.015  16.725  0.0313  0.2236  0.1769
68170W        W69034  24.842  16.249  16.611  0.0084  0.0635 -0.1874
68171W        W69035  25.335  16.535  13.930 -0.3385  0.0590  0.0635
68172W        W69036  25.619  15.189  17.101 -0.2897 -0.0481  0.0036
68173W        W69037  18.785  14.851  15.216  0.0515  0.0771 -0.0044
68174W        W69038  24.009  14.992  20.409 -0.3595 -0.0666 -0.2619
68175W        W69039  26.605  17.566  16.381  0.3588 -0.1587 -0.1088
68176W        W69040  22.063  16.198  15.930 -0.0359 -0.0228 -0.0787
68177W        W69041  25.139  17.914  18.188 -0.2470 -0.0605 -0.0418
68178W        W69042  23.905  13.916  17.608  0.0302  0.0780 -0.1038
68179W        W69043  23.166  17.380  19.486  0.0156  0.1575  0.1285
68180W        W69044  26.558  17.041  14.317 -0.0888 -0.1274  0.0850
68181W        W69045  23.966  18.276  17.454 -0.1478  0.3128 -0.0395
68182W        W69046  21.176  15.783  15.821 -0.3925  0.0059 -0.2326
68183W        W69047  22.996  13.424  16.136  0.1030  0.3926 -0.0870
68184W        W69048  23.772  14.364  18.563 -0.0762 -0.0695  0.2176
68185W        W69049  23.491  17.748  15.962  0.0085  0.0493 -0.1388
68186W        W69050  24.667  19.515  15.654  0.0926  0.0386  0.0568
68187W        W69051  21.989  16.782  14.626  0.1980 -0.0224 -0.1710
68188W        W69052  21.685  15.612  19.024  0.0755 -0.0748  0.4506
68189W        W69053  21.392  17.744  17.222 -0.0699 -0.0241  0.2028
68190W        W69054  22.476  15.069  16.297  0.2243 -0.1852  0.2119
68191W        W69055  20.755  17.182  17.493 -0.2490  0.0762 -0.2031
68192W        W69056  22.786  15.929  13.369  0.2501  0.0029  0.3385
68193W        W69057  22.642  13.651  17.453  0.0140 -0.1898  0.0669
68194W        W69058  25.747  19.070  17.509  0.1032  0.1899 -0.1395
68195W        W69059  22.338  13.967  17.749  0.0796  0.0206  0.0282
68196W        W69060  22.030  18.517  18.370  0.1038 -0.1663 -0.0951
68197W        W69061  24.801  17.806  17.001  0.1742 -0.0773 -0.1799
68198W        W69062  22.091  15.125  16.728  0.0019 -0.0313 -0.0311
68199W        W69063  21.296  14.917  19.475 -0.2262  0.0407 -0.1305
68200W        W69064  21.160  16.789  14.669  0.0167 -0.0885 -0.0116
68201W        W69065  25.603  14.642  18.000  0.1428  0.0011 -0.2282
68202W        W69066  26.197  13.092  18.418 -0.0286  0.1785 -0.1867
68203W        W69067  21.609  17.395  18.876  0.1735 -0.1306  0.1662
68204W        W69068  22.709  15.715  12.157  0.6369 -0.3055 -0.1331
68205W        W69069  24.927  15.055  12.950  0.1461  0.0643 -0.1335
68206W        W69070  23.811  16.936  14.478  0.0786 -0.1206 -0.2600
68207W        W69071  22.242  13.488  18.029  0.0278  0.1515  0.0641
68208W        W69072  24.275  14.491  18.500  0.1758 -0.1027 -0.0654
68209W        W69073  20.324  14.017  18.644 -0.1862 -0.0147 -0.2567
68210W        W69074  24.916  16.357  18.531 -0.1447  0.0870  0.0680
68211W        W69075  25.453  15.644  18.919 -0.2503 -0.0611 -0.2030
68212W        W69076  23.416  14.117  18.899 -0.2826  0.1728  0.0880
68213W        W69077  22.131  13.643  16.215 -0.1934  0.1617  0.2488
68214W        W69078  25.113  16.596  15.235  0.1665 -0.0945  0.1930
68215W        W69079  24.994  19.448  18.678 -0.1060  0.0081  0.1032
68216W        W69080  22.383  15.780  15.825  0.0684  0.4430  0.5105
68217W        W69081  22.965  17.272  17.450 -0.0859  0.1131  0.2097
68218W        W69082  23.695  14.758  20.045  0.1615  0.1547  0.1249
68219W        W69083  25.555  19.062  17.079  0.0714  0.1394  0.3984
68220W        W69084  26.440  17.849  11.209  0.1249 -0.5545 -0.2901
68221W        W69085  23.586  13.713  14.648 -0.1419 -0.0444 -0.1230
68222W        W69086  22.644  18.973  15.527 -0.0214  0.0027 -0.2593
68223W        W69087  22.043  18.234  18.845 -0.1417  0.0355  0.1761
68224W        W69088  23.451  16.214  17.960  0.1218  0.1351  0.2950
68225W        W69089  22.123  17.201  16.260  0.0710 -0.1360 -0.0853
68226W        W69090  23.335  15.508  17.824  0.4760  0.1198  0.1482
68227W        W69091  21.131  18.752  15.311  0.4012 -0.1990  0.0721
68228W        W69092  24.771  21.272  15.253  0.1125 -0.4297 -0.1470
68229W        W69093  27.851  16.786  15.169 -0.2612  0.0206 -0.2993
68230W        W69094  24.043  16.855  18.353 -0.0572  0.0057  0.1461
68231W        W69095  22.145  15.448  17.168  0.1123  0.0403 -0.3422
68232W        W69096  22.458  17.007  17.466  0.0957  0.2417 -0.2686
68233W        W69097  25.894  12.509  13.750 -0.2817  0.2361  0.1177
68234W        W69098  22.407  12.869  14.438  0.0448  0.0531  0.0153
68235W        W69099  22.833  16.198  19.272  0.0389  0.1030 -0.0701
68236W        W69100  22.746  14.495  18.613 -0.0193  0.0302 -0.0607
68237W        W69101  24.728  17.885  15.024 -0.1889  0.0684 -0.1264
68238W        W69102  21.000  15.914  15.306 -0.0442 -0.6363  0.2458
68239W        W69103  23.475  15.211  20.293  0.0443  0.3037 -0.0994
68240W        W69104  24.480  13.354  17.842  0.1393 -0.0597  0.1618
68241W        W69105  23.750  15.258  19.927  0.0956 -0.1190 -0.4895
68242W        W69106  22.196  14.463  17.317 -0.1556 -0.1418 -0.1963
68243W        W69107  23.120  15.260  16.370  0.1514  0.3681  0.0479
68244W        W69108  22.046  15.288  21.630  0.2788  0.2247 -0.0502
68245W        W69109  21.848  15.324  14.840 -0.1108  0.0156 -0.1525
68246W        W69110  23.162  16.857  16.479 -0.1001  0.2803 -0.0388
68247W        W69111  20.275  18.430  15.392 -0.0287 -0.0632 -0.1031
68248W        W69112  23.508  16.641  18.198  0.0922 -0.0314 -0.0117
68249W        W69113  22.194  18.174  16.679  0.1968  0.0294 -0.2944
68250W        W69114  21.371  15.854  17.840 -0.2125  0.1891 -0.0503
68251W        W69115  22.727  17.081  16.524 -0.0930  0.3151  0.0872
68252W        W69116  19.343  14.157  16.359 -0.1933  0.0829 -0.0900
68253W        W69117  20.110  17.790  17.095 -0.0576 -0.2276 -0.1330
68254W        W69118  23.108  17.121  16.037  0.2144 -0.0259  0.2116
68255W        W69119  22.072  17.024  15.761  0.1764 -0.1598 -0.0534
68256W        W69120  23.460  17.423  16.313 -0.1682  0.0864 -0.0813
68257W        W69121  19.731  16.643  17.582 -0.1709  0.1358 -0.0358
68258W        W69122  22.264  13.758  15.650  0.0253 -0.0616 -0.2108
68259W        W69123  21.762  17.191  19.655  0.0168  0.0176 -0.0126
68260W        W69124  24.282  16.408  18.403 -0.3362 -0.0119 -0.1581
68261W        W69125  24.375  15.954  19.331  0.0035 -0.3603 -0.3746
68262W        W69126  23.402  17.830  15.412  0.1432 -0.2000  0.0124
68263W        W69127  23.597  18.523  16.199 -0.1071 -0.0807  0.0058
68264W        W69128  24.224  15.658  15.216 -0.1624 -0.4867  0.0537
68265W        W69129  23.932  17.024  20.029 -0.0795 -0.2709 -0.2537
68266W        W69130  18.664  18.215  17.086  0.0584  0.3008  0.4521
68267W        W69131  24.422  14.282  17.448 -0.0337  0.0526  0.2783
68268W        W69132  23.832  17.782  17.329  0.1986 -0.0269 -0.0649
68269W        W69133  21.651  16.641  16.624 -0.0857  0.0061 -0.0607
68270W        W69134  22.487  14.264  19.180  0.1255 -0.2126 -0.0499
68271W        W69135  27.329  19.389  17.068 -0.0837 -0.0144  0.2270
68272W        W69136  22.328  14.277  22.704 -0.3149 -0.2338  0.0558
68273W        W69137  22.483  16.183  15.489  0.1173  0.0808 -0.0281
68274W        W69138  27.743  15.624  20.973 -0.2032 -0.2465  0.0748
68275W        W69139  23.005  21.149  16.939  0.2762 -0.1331 -0.2023
68276W        W69140  22.680  14.838  14.315 -0.7090  0.2507  0.2954
68277W        W69141  19.970  15.563  16.654  0.3717 -0.2112 -0.0831
68278W        W69142  23.832  15.657  18.529  0.1386  0.2369  0.1293
68279W        W69143  21.974  16.284  15.401  0.2503  0.0910  0.1648
68280W        W69144  24.729  17.244  16.994 -0.2535 -0.2287 -0.2500
68281W        W69145  23.176  15.246  18.191 -0.2945 -0.1159  0.0300
68282W        W69146  21.298  15.874  18.667 -0.2355 -0.0628  0.1103
68283W        W69147  20.122  15.614  17.290 -0.4558 -0.1057 -0.0020
68284W        W69148  24.483  14.106  16.453  0.0031  0.1188  0.1612
68285W        W69149  24.523  16.807  18.583 -0.0766  0.3048  0.0863
68286W        W69150  24.508  17.688  19.341 -0.2105  0.2121  0.0284
68287W        W69151  24.854  17.244  15.909 -0.2511 -0.1300  0.1506
68288W        W69152  22.578  15.207  19.498  0.6252  0.1647 -0.2227
68289W        W69153  21.642  15.938  15.903 -0.1065 -0.0979 -0.2743
68290W        W69154  22.562  13.934  18.354  0.1062 -0.1101  0.1398
68291W        W69155  24.577  15.178  13.935 -0.1546 -0.1280  0.1492
68292W        W69156  24.328  17.586  13.624  0.2002  0.2557 -0.0241
68293W        W69157  24.630  17.736  16.142 -0.1831  0.0206 -0.0592
68294W        W69158  19.966  16.946  17.929 -0.1133  0.0587 -0.0830
68295W        W69159  24.044  18.497  14.486  0.2175  0.0494 -0.0101
68296W        W69160  23.565  16.449  15.488  0.1241 -0.1809  0.2123
68297W        W69161  20.511  17.322  17.870  0.3011 -0.3788 -0.2164
68298W        W69162  23.907  19.220  17.420 -0.2539  0.4332 -0.1236
68299W        W69163  21.887  15.938  17.903 -0.0695 -0.0272  0.1060
68300W        W69164  25.138  17.402  18.702  0.3180 -0.1191  0.0584
68301W        W69165  20.773  16.243  12.825  0.0663 -0.0849 -0.1161
68302W        W69166  23.605  17.137  15.879 -0.1477  0.1415 -0.0998
68303W        W69167  24.263  15.665  13.363 -0.0690 -0.0967 -0.1753
68304W        W69168  22.974  14.258  16.244  0.3547 -0.1065 -0.2006
68305W        W69169  24.596  15.305  18.237 -0.2445  0.0525  0.0970
68306W        W69170  22.691  15.717  18.264 -0.2772 -0.0058 -0.4226
68307W        W69171  20.282  15.052  18.026  0.1189  0.1018  0.3237
68308W        W69172  23.368  15.978  17.510  0.0641 -0.0573 -0.0804
68309W        W69173  23.683  17.962  20.462  0.0873  0.2955  0.1641
68310W        W69174  19.804  18.059  18.612 -0.0323  0.0977  0.0556
68311W        W69175  22.329  15.282  15.839  0.1730  0.0088  0.2471
68312W        W69176  23.593  20.072  18.420 -0.2872 -0.0347  0.2446
68313W        W69177  21.875  19.188  15.884  0.0923  0.3976 -0.2234
68314W        W69178  25.224  17.986  15.232 -0.4369 -0.1743 -0.1741
68315W        W69179  20.581  15.354  17.434  0.1148 -0.0363 -0.0326
68316W        W69180  24.743  15.778  18.030  0.0409  0.2240  0.3929
68317W        W69181  22.786  17.236  15.662 -0.2179 -0.1609 -0.0177
68318W        W69182  21.070  16.326  19.418  0.0774 -0.0942 -0.2599
68319W        W69183  21.396  14.615  17.652 -0.0175 -0.3439  0.1988
68320W        W69184  20.034  17.522  18.005 -0.3012 -0.3827  0.1875
68321W        W69185  23.010  18.425  18.669  0.0580  0.1566  0.2944
68322W        W69186  26.274  14.534  17.406  0.2485  0.2932 -0.1547
68323W        W69187  21.381  14.124  18.409 -0.0537 -0.3208 -0.0703
68324W        W69188  22.914  17.724  15.736 -0.1212 -0.2898  0.2160
68325W        W69189  23.403  15.887  15.594  0.0782  0.0378 -0.1004
68326W        W69190  21.694  15.144  17.556  0.1889 -0.1740 -0.2346
68327W        W69191  22.684  17.448  16.131  0.0975  0.0450 -0.1876
68328W        W69192  22.251  17.199  13.490 -0.0115  0.0556  0.0609
68329W        W69193  23.338  16.033  15.063 -0.1757 -0.0641 -0.0982
68330W        W69194  22.592  17.412  19.194 -0.1888 -0.1968  0.1320
68331W        W69195  27.227  16.023  16.480  0.1731 -0.0145 -0.3695
68332W        W69196  22.275  13.159  16.408  0.0767  0.2696  0.2943
68333W        W69197  24.283  19.432  16.633 -0.2577  0.3164  0.0068
68334W        W69198  21.985  16.671  17.676  0.0015  0.1537  0.0488
68335W        W69199  24.056  15.521  14.792 -0.2736  0.0308 -0.4127
68336W        W69200  25.273  18.721  17.455  0.4209 -0.0912 -0.1172
68337W        W69201  21.710  18.564  16.669 -0.1576 -0.2873 -0.0207
68338W        W69202  24.162  13.161  13.520  0.0921 -0.1558 -0.4431
68339W        W69203  26.260  15.670  16.821 -0.2672 -0.2155  0.2106
68340W        W69204  21.657  16.999  15.416  0.0712  0.2230 -0.1843
68341W        W69205  22.542  17.733  14.880  0.0061 -0.0420  0.0244
68342W        W69206  24.928  15.757  16.766  0.1930 -0.1543 -0.1567
68343W        W69207  23.215  15.095  15.875 -0.1021 -0.1202 -0.1030
68344W        W69208  24.063  15.433  17.352  0.0889  0.1424  0.3246
68345W        W69209  25.207  18.750  16.214 -0.2937 -0.0206 -0.1582
68346W        W69210  20.357  15.431  15.739  0.2557 -0.1646  0.1694
68347W        W69211  22.375  18.852  16.984 -0.1592 -0.0747 -0.1546
68348W        W69212  21.906  16.120  19.343 -0.0918 -0.0545 -0.1167
68349W        W69213  21.127  18.036  20.294 -0.3641  0.1367 -0.1336
68350W        W69214  24.800  17.294  14.913 -0.1662  0.1465 -0.1351
68351W        W69215  24.983  18.270  14.826 -0.0629 -0.0412 -0.5351
68352W        W69216  23.028  20.922  16.400 -0.0407  0.2579  0.0663
68353W        W69217  27.883  15.570  19.617  0.2244 -0.2195 -0.2592
68354W        W69218  22.944  14.275  11.713 -0.0116 -0.3848  0.1185
68355W        W69219  21.988  15.808  15.562  0.3422 -0.2105  0.0458
68356W        W69220  22.208  18.197  16.182  0.0130  0.0103  0.2148
68357W        W69221  21.019  16.080  16.252 -0.1492  0.1014  0.0439
68358W        W69222  23.156  15.794  19.226  0.4193 -0.1217 -0.0252
68359W        W69223  24.210  16.985  17.029  0.4485  0.2157 -0.1148
68360W        W69224  25.306  17.875  21.257 -0.0113  0.0111 -0.3319
68361W        W69225  20.632  20.673  17.384  0.0591  0.3070 -0.1845
68362W        W69226  21.538  18.204  17.235 -0.0315 -0.0711  0.3895
68363W        W69227  22.633  15.258  17.307 -0.0445 -0.2063 -0.0135
68364W        W69228  24.040  13.921  14.840  0.3154 -0.1657 -0.0679
68365W        W69229  24.179  17.826  18.524  0.0229 -0.0931 -0.0050
68366W        W69230  23.497  15.403  16.638 -0.0039  0.1393 -0.3028
68367W        W69231  24.015  18.844  18.692  0.0743  0.0856  0.3612
68368W        W69232  27.107  16.601  13.952  0.0663 -0.0743 -0.1108
68369W        W69233  22.010  15.768  16.166 -0.0188 -0.4153  0.1247
68370W        W69234  23.855  18.648  15.690 -0.2516  0.2636 -0.0212
68371W        W69235  23.127  15.765  18.438 -0.0595 -0.1161 -0.1154
68372W        W69236  25.503  18.350  20.204 -0.0241 -0.0688 -0.2375
68373W        W69237  23.891  14.246  16.495  0.1479 -0.0230 -0.2421
68374W        W69238  19.628  16.922  15.567  0.2818  0.0705  0.2371
68375W        W69239  23.761  15.770  13.910  0.2028 -0.2924 -0.1760
68376W        W69240  20.924  18.305  16.950  0.1641 -0.0941  0.0516
68377W        W69241  22.443  16.116  18.980  0.0589  0.0355 -0.1014
68378W        W69242  27.289  15.313  15.801  0.0988  0.0307 -0.1013
68379W        W69243  25.381  16.513  18.816 -0.0568 -0.1427 -0.0442
68380W        W69244  23.409  19.078  18.167  0.1610  0.0541 -0.1979
68381W        W69245  25.581  17.910  19.074 -0.0107  0.3982  0.0209
68382W        W69246  24.330  18.800  19.612 -0.1079  0.0738  0.3084
68383W        W69247  20.713  16.819  18.489  0.2021  0.1384 -0.0807
68384W        W69248  25.489  18.230  15.872  0.1293 -0.0103 -0.1059
68385W        W69249  24.131  18.635  15.274 -0.1433  0.0204  0.3534
68386W        W69250  23.395  13.935  15.478  0.2241  0.5206 -0.1605
68387W        W69251  21.581  16.767  17.427  0.0740 -0.0554  0.0996
68388W        W69252  24.013  15.308  18.859  0.0542  0.2201  0.0652
68389W        W69253  21.698  14.540  17.285  0.1638 -0.2331  0.1330
68390W        W69254  22.313  19.157  15.090  0.0081  0.0113 -0.3275
68391W        W69255  24.332  17.528  15.782  0.0866  0.3805  0.1284
68392W        W69256  23.753  16.952  16.340  0.0253  0.3947 -0.2176
68393W        W69257  23.073  15.639  16.866 -0.0564 -0.2037 -0.2900
68394W        W69258  21.220  17.242  15.455 -0.0573 -0.1864  0.1998
68395W        W69259  19.835  16.823  19.087  0.3963  0.0345 -0.3071
68396W        W69260  23.950  17.264  14.996 -0.0620 -0.0447  0.2955
68397W        W69261  26.617  14.451  16.206  0.1989 -0.1261 -0.1104
68398W        W69262  22.995  15.446  13.411  0.1221  0.1605  0.1666
68399W        W69263  24.450  18.190  20.789 -0.2644  0.2605 -0.2306
68400W        W69264  21.663  18.782  18.568  0.1280  0.1680  0.1118
68401W        W69265  23.157  17.768  14.902  0.0713 -0.1187  0.1094
68402W        W69266  25.812  13.013  16.595  0.0529 -0.1931 -0.1923
68403W        W69267  21.631  16.154  18.284  0.2919  0.3201  0.1851
68404W        W69268  21.670  15.717  17.461  0.1896 -0.1021  0.0297
68405W        W69269  20.715  15.060  15.791  0.0818  0.1651 -0.2639
68406W        W69270  22.234  16.276  14.981 -0.1570  0.1578  0.1099
68407W        W69271  24.117  16.873  15.959 -0.2090 -0.3686 -0.0810
68408W        W69272  27.323  14.890  20.892  0.2111  0.1291  0.0132
68409W        W69273  20.854  17.239  18.239 -0.0016 -0.3990  0.0138
68410W        W69274  24.042  16.704  15.437  0.1090  0.0286 -0.2571
68411W        W69275  21.440  14.613  15.169 -0.0817  0.0750 -0.3483
68412W        W69276  25.650  16.419  17.116 -0.1311 -0.1337  0.2526
68413W        W69277  23.693  19.259  19.045  0.0583 -0.1703 -0.0161
68414W        W69278  26.789  17.144  13.899  0.0636  0.0409 -0.3551
68415W        W69279  24.770  16.932  12.984  0.0819 -0.0546 -0.0404
68416W        W69280  23.918  15.155  16.558  0.1358 -0.1034  0.0335
68417W        W69281  22.446  16.014  14.185 -0.0160 -0.1518  0.3283
68418W        W69282  24.733  17.163  16.402 -0.1085 -0.0146 -0.1004
68419W        W69283  26.041  17.610  14.896  0.3917 -0.1426 -0.0098
68420W        W69284  22.091  17.544  15.369 -0.2264 -0.2120  0.0245
68421W        W69285  24.549  22.204  15.735 -0.0749 -0.3730  0.0736
68422W        W69286  23.737  16.872  16.850 -0.3454  0.1594  0.0478
68423W        W69287  23.759  15.908  15.266 -0.2490 -0.2091 -0.0337
68424W        W69288  26.348  17.780  19.395  0.1638 -0.1987  0.0891
68425W        W69289  24.695  14.775  16.743  0.4238  0.1767  0.5686
68426W        W69290  20.881  18.195  18.422  0.1492  0.1288 -0.0050
68427W        W69291  20.909  16.750  18.985 -0.1874  0.4022 -0.2595
68428W        W69292  21.698  15.901  17.000  0.1014  0.4108 -0.0766
68429W        W69293  22.943  16.155  13.796 -0.0534 -0.1291 -0.2114
68430W        W69294  23.761  19.403  17.895 -0.0236  0.0927 -0.1235
68431W        W69295  22.987  17.740  16.884  0.0384  0.2719 -0.0383
68432W        W69296  21.725  15.265  19.450  0.0896  0.0117  0.0082
68433W        W69297  25.310  18.504  16.820  0.1334 -0.1512  0.0489
68434W        W69298  24.765  14.285  18.374  0.0965  0.0629  0.0916
68435W        W69299  23.308  16.571  14.526  0.0219  0.0292  0.2133
68436W        W69300  24.700  16.173  17.114  0.0813  0.0756  0.0336
68437W        W69301  23.929  17.318  15.553  0.2751 -0.2319 -0.1549
68438W        W69302  22.254  16.597  15.687  0.0060  0.1091 -0.0930
68439W        W69303  22.874  16.020  18.765 -0.1030  0.0042  0.1152
68440W        W69304  25.320  18.252  16.402 -0.1904 -0.2052 -0.0363
68441W        W69305  22.590  18.029  15.951 -0.3297 -0.0643 -0.1151
68442W        W69306  24.353  13.045  17.377  0.0405 -0.0941 -0.0998
68443W        W69307  23.733  19.972  17.143 -0.0966  0.0515  0.1073
68444W        W69308  24.951  16.050  19.953 -0.1347 -0.1123 -0.3646
68445W        W69309  21.899  19.579  17.604 -0.1676  0.0614 -0.0836
68446W        W69310  22.250  15.850  13.239  0.0468 -0.2306 -0.1758
68447W        W69311  21.034  17.573  20.090 -0.0053 -0.1291 -0.0045
68448W        W69312  22.057  17.186  22.794  0.1832 -0.1629 -0.0308
68449W        W69313  24.315  14.184  19.910  0.0395 -0.0063 -0.0783
68450W        W69314  27.367  17.393  22.413 -0.1378  0.0518 -0.0347
68451W        W69315  21.115  19.725  16.522  0.1279  0.0343 -0.0310
68452W        W69316  24.078  13.628  21.135 -0.1813  0.2305  0.1956
68453W        W69317  23.769  17.349  21.085 -0.2843  0.0304  0.2239
68454W        W69318  23.013  14.973  18.658  0.0719  0.0134  0.3753
68455W        W69319  24.361  19.921  20.846  0.2146  0.3286 -0.2539
68456W        W69320  21.119  14.313  19.966 -0.0040 -0.2593 -0.3044
68457W        W69321  22.655  12.857  19.656 -0.0753 -0.0686 -0.0586
68458W        W69322  24.880  12.963  19.557 -0.0370  0.1911  0.5208
68459W        W69323  24.614  17.001  19.957  0.1994 -0.0108  0.1293
68460W        W69324  22.932  16.814  21.471 -0.0174 -0.0483  0.2484
68461W        W69325  22.180  14.718  19.174 -0.1699  0.2412  0.1376
68462W        W69326  20.485  18.199  23.981  0.0208  0.0974 -0.0360
68463W        W69327  22.742  16.568  18.910 -0.2032  0.0924  0.0152
68464W        W69328  21.089  14.194  19.477 -0.1393 -0.1773 -0.1361
68465W        W69329  23.516  18.186  18.904 -0.2826  0.0680  0.1735
68466W        W69330  25.034  17.753  19.246 -0.1070 -0.0046  0.2933
68467W        W69331  22.995  18.974  20.072  0.3530  0.0380 -0.0004
68468W        W69332  23.469  16.648  20.135 -0.0652  0.1970  0.0884
68469W        W69333  22.680  18.553  17.832 -0.2959  0.1894  0.1633
68470W        W69334  22.444  17.674  20.053  0.3620  0.0801  0.1108
68471W        W69335  19.259  17.818  18.425  0.0367  0.2187 -0.2855
68472W        W69336  22.909  17.360  19.998  0.0186  0.1692  0.1167
68473W        W69337  26.066  19.538  23.217  0.1579  0.2117 -0.0995
68474W        W69338  22.751  17.536  21.878 -0.1949 -0.0766 -0.0420
68475W        W69339  25.424  18.238  22.806 -0.0302  0.1477  0.3095
68476W        W69340  23.379  16.971  19.824 -0.0247  0.1178  0.0942
68477W        W69341  20.466  18.419  18.253 -0.1880  0.2339 -0.0945
68478W        W69342  22.464  18.599  19.919 -0.1028 -0.0452  0.0910
68479W        W69343  22.153  16.802  21.130  0.1152  0.3025 -0.1576
68480W        W69344  22.297  17.217  19.609  0.1547  0.2945 -0.3331
68481W        W69345  20.181  15.218  21.092 -0.2796  0.0029  0.3649
68482W        W69346  24.656  17.173  21.068 -0.0429 -0.1615  0.1369
68483W        W69347  21.280  12.620  17.874  0.2712 -0.0224  0.0165
68484W        W69348  20.036  19.289  20.286 -0.1345  0.0503  0.0015
68485W        W69349  25.606  16.087  17.576 -0.0958  0.3717 -0.1045
68486W        W69350  24.561  14.826  20.273  0.3038  0.0326  0.0209
68487W        W69351  26.136  15.761  18.801  0.1586  0.0890  0.2400
68488W        W69352  23.756  16.030  20.484 -0.0116 -0.0425  0.1102
68489W        W69353  21.591  16.065  20.275  0.2797 -0.0182 -0.0654
68490W        W69354  24.215  17.294  19.291  0.3017 -0.0580  0.2278
68491W        W69355  21.782  17.448  21.333 -0.0445 -0.4226  0.3560
68492W        W69356  25.053  18.269  20.484 -0.0567 -0.0633 -0.2078
68493W        W69357  25.473  16.090  19.089  0.0458  0.1610  0.0401
68494W        W69358  24.919  15.813  20.742 -0.1717 -0.1910 -0.4249
68495W        W69359  23.887  16.844  19.237 -0.1034  0.1285 -0.1589
68496W        W69360  22.899  14.238  21.291  0.1020 -0.0807 -0.2621
68497W        W69361  21.156  16.884  20.879 -0.0060  0.1175 -0.1867
68498W        W69362  23.044  14.699  22.100  0.2648  0.0133 -0.1022
68499W        W69363  24.487  18.508  18.844  0.0448  0.4375  0.2698
68500W        W69364  23.482  17.096  20.718  0.2195 -0.0551  0.0708
68501W        W69365  26.187  13.988  18.278 -0.1456 -0.3755 -0.4184
68502W        W69366  19.513  16.639  19.471 -0.2432 -0.2731 -0.0885
68503W        W69367  21.006  13.823  18.380 -0.2099 -0.1208  0.1257
68504W        W69368  24.195  15.447  20.065  0.0849  0.1886 -0.1583
68505W        W69369  23.357  20.015  21.559 -0.1336  0.3346  0.2466
68506W        W69370  23.893  16.257  17.619 -0.0177  0.0849  0.3737
68507W        W69371  26.929  16.835  19.600  0.2432  0.0405  0.0370
68508W        W69372  21.485  14.616  22.016 -0.0512 -0.0701 -0.1294
68509W        W69373  24.286  18.595  21.048  0.1378  0.1066  0.0624
68510W        W69374  20.954  15.906  19.038 -0.0190 -0.3557  0.0226
68511W        W69375  26.005  16.225  20.308  0.0753  0.2114 -0.0891
68512W        W69376  26.129  14.524  21.557  0.1402 -0.1625  0.0564
68513W        W69377  20.130  14.703  21.535  0.1454 -0.0491  0.1480
68514W        W69378  23.921  14.825  18.755 -0.3068  0.2146 -0.0565
68515W        W69379  19.420  14.744  18.828  0.0894 -0.3367  0.2465
68516W        W69380  22.068  18.663  19.241 -0.0061 -0.0232 -0.0633
68517W        W69381  24.854  15.626  19.214 -0.0436  0.0728  0.4706
68518W        W69382  24.807  16.827  17.232 -0.1314  0.1713  0.1387
68519W        W69383  26.494  18.606  19.923 -0.2120 -0.2147  0.2395
68520W        W69384  24.834  17.002  20.487  0.0241 -0.0492  0.5172
68521W        W69385  25.761  18.434  18.129  0.1345 -0.2651 -0.0968
68522W        W69386  27.142  15.822  18.746 -0.0198  0.1644 -0.0614
68523W        W69387  20.508  12.346  19.634 -0.2674 -0.2896 -0.0476
68524W        W69388  24.160  17.087  21.320  0.0892 -0.1049 -0.0080
68525W        W69389  23.053  16.174  16.530 -0.0657  0.1300  0.0017
68526W        W69390  24.580  16.012  18.510  0.0435 -0.0265 -0.0127
68527W        W69391  23.253  17.549  22.007  0.2548  0.1558 -0.2355
68528W        W69392  21.379  16.424  20.702 -0.0876 -0.1347 -0.2009
68529W        W69393  21.333  15.091  17.870 -0.0196  0.0279  0.1872
68530W        W69394  25.592  14.683  16.174 -0.5240  0.2347 -0.1638
68531W        W69395  22.935  17.847  19.962  0.0815 -0.0734 -0.1464
68532W        W69396  23.305  13.105  20.817 -0.0258  0.1069  0.0172
68533W        W69397  23.933  18.476  22.651  0.1577  0.0923  0.0854
68534W        W69398  22.861  13.944  19.439 -0.2465 -0.0568 -0.1734
68535W        W69399  26.501  19.646  21.872  0.2046  0.2819  0.2038
68536W        W69400  23.651  16.966  22.946 -0.1668 -0.0058 -0.1301
68537W        W69401  25.929  13.673  20.990  0.0111 -0.1169 -0.3828
68538W        W69402  26.175  16.705  20.203  0.2136  0.1952  0.2391
68539W        W69403  23.027  20.691  21.040  0.0472  0.1164 -0.1979
68540W        W69404  19.899  15.745  17.746  0.2775 -0.0509  0.0868
68541W        W69405  22.575  16.515  21.217  0.1323 -0.0934  0.0664
68542W        W69406  22.909  15.491  20.029 -0.3862 -0.0844  0.1697
68543W        W69407  27.149  18.938  18.745 -0.0214 -0.2353  0.3738
68544W        W69408  21.488  18.104  23.347  0.0319  0.1831  0.2969
68545W        W69409  25.172  15.413  20.718 -0.2937  0.1152  0.1213
68546W        W69410  24.482  14.161  21.122  0.0038  0.1526  0.0942
68547W        W69411  26.970  15.596  20.404  0.0970  0.1265 -0.1455
68548W        W69412  22.174  16.188  21.127 -0.4091 -0.0162 -0.0586
68549W        W69413  25.118  16.412  17.059 -0.0776 -0.0549 -0.2389
68550W        W69414  25.574  17.580  17.665  0.0473 -0.0238 -0.0677
68551W        W69415  26.976  14.076  20.837  0.0537  0.0892 -0.0641
68552W        W69416  23.371  17.701  20.116 -0.3092 -0.1434 -0.0059
68553W        W69417  22.452  15.771  19.895 -0.1150  0.1585 -0.0631
68554W        W69418  22.759  16.730  22.377  0.4158 -0.1722  0.1450
68555W        W69419  26.715  13.786  19.588  0.1545  0.0813  0.2524
68556W        W69420  19.673  15.124  18.473 -0.0202  0.1214  0.2801
68557W        W69421  20.592  17.183  18.865  0.3195  0.1357 -0.2055
68558W        W69422  26.094  18.224  21.317  0.1026 -0.1206 -0.0765
68559W        W69423  21.968  18.499  19.789 -0.1546  0.2438  0.0753
68560W        W69424  25.212  15.812  20.323 -0.0487 -0.1381  0.0293
68561W        W69425  25.799  18.046  18.633 -0.6222  0.2244 -0.1942
68562W        W69426  25.011  14.481  20.256 -0.3373 -0.0244  0.0121
68563W        W69427  23.034  16.955  20.419 -0.2305  0.1438 -0.1812
68564W        W69428  23.086  16.982  23.172 -0.3932  0.1223  0.0396
68565W        W69429  25.854  16.094  22.871  0.1158 -0.1502  0.1312
68566W        W69430  21.336  15.297  21.557 -0.1113  0.0305 -0.0283
68567W        W69431  25.264  17.037  19.060  0.1864 -0.0888  0.0419
68568W        W69432  27.404  19.642  20.154 -0.0352  0.1211 -0.4210
68569W        W69433  24.639  16.541  20.646 -0.0384 -0.4107  0.0029
68570W        W69434  24.800  17.487  20.287  0.2117  0.3590 -0.2723
68571W        W69435  27.654  15.951  20.092 -0.0892  0.3968  0.0990
68572W        W69436  25.787  14.628  19.342  0.1692 -0.1120 -0.1684
68573W        W69437  21.393  17.633  20.421  0.4704 -0.2114  0.2303
68574W        W69438  24.952  15.271  19.520  0.0115  0.3052  0.1022
68575W        W69439  25.497  17.186  21.599 -0.1246 -0.0672 -0.2957
68576W        W69440  21.201  18.425  19.447  0.0636 -0.2484  0.1467
68577W        W69441  26.990  16.663  21.840 -0.0726  0.1703  0.1899
68578W        W69442  23.148  12.917  20.214  0.1004 -0.0632  0.0827
68579W        W69443  27.166  18.406  21.417 -0.3312  0.0539 -0.1228
68580W        W69444  24.015  15.055  19.413 -0.2069  0.1075  0.2800
68581W        W69445  21.369  15.620  22.390  0.2210 -0.0057  0.0130
68582W        W69446  21.593  15.087  20.349  0.2875  0.1093  0.0352
68583W        W69447  24.897  16.229  21.197 -0.1753  0.0067 -0.1255
68584W        W69448  25.317  13.657  21.669  0.0501 -0.0929  0.3216
68585W        W69449  24.758  15.729  19.666  0.0709  0.3268 -0.3248
68586W        W69450  25.583  17.341  19.323 -0.0832 -0.2077  0.2159
68587W        W69451  21.799  12.728  22.614 -0.0815 -0.0122  0.0513
68588W        W69452  22.900  18.314  19.703 -0.2534 -0.1211  0.1653
68589W        W69453  20.467  18.004  18.709  0.1219  0.1065 -0.0939
68590W        W69454  23.145  16.934  18.924  0.2174 -0.1518  0.1945
68591W        W69455  25.118  14.944  19.881 -0.0202  0.0031  0.3163
68592W        W69456  25.384  16.397  22.803  0.1580  0.2613 -0.1474
68593W        W69457  23.010  15.219  20.515 -0.1154 -0.0130  0.0313
68594W        W69458  25.934  19.260  20.334 -0.2177 -0.1731 -0.0968
68595W        W69459  21.343  18.485  17.651 -0.1727 -0.0865  0.3237
68596W        W69460  23.820  17.572  22.727  0.0535 -0.0980 -0.0359
68597W        W69461  22.985  14.840  19.431 -0.0871  0.4392  0.1265
68598W        W69462  26.095  19.401  21.718 -0.1815  0.1582  0.3201
68599W        W69463  22.116  15.333  18.596 -0.0226  0.1365 -0.2410
68600W        W69464  23.651  19.445  19.586 -0.1124 -0.2136 -0.3907
68601W        W69465  25.092  14.474  21.094  0.1363  0.1855  0.1106
68602W        W69466  21.763  17.878  21.921 -0.0679  0.0048  0.1674
68603W        W69467  24.280  15.684  18.261  0.0718 -0.1116 -0.1763
68604W        W69468  21.595  16.309  16.226  0.3506 -0.2403 -0.0880
68605W        W69469  23.399  17.670  19.148  0.2276  0.0104 -0.0463
68606W        W69470  21.002  16.861  21.456  0.0506  0.1784 -0.1864
68607W        W69471  24.137  16.355  20.605 -0.1801  0.0329  0.1007
68608W        W69472  26.262  17.255  20.275  0.2490  0.1755  0.1117
68609W        W69473  22.863  16.747  19.950 -0.3093 -0.0928  0.1316
68610W        W69474  22.513  13.607  22.158  0.0017  0.3245  0.3079
68611W        W69475  22.074  15.167  21.134 -0.0413  0.1014 -0.0558
68612W        W69476  22.925  14.443  19.801  0.3460 -0.1195 -0.1568
68613W        W69477  21.204  19.721  19.266  0.1166  0.0348 -0.4717
68614W        W69478  25.908  18.986  23.353 -0.1193 -0.0777 -0.1138
68615W        W69479  21.645  18.427  20.130  0.0369 -0.2672 -0.0999
68616W        W69480  24.734  13.070  22.616  0.1485  0.1500  0.1520
68617W        W69481  23.524  18.995  19.449  0.2153 -0.0201 -0.1413
68618W        W69482  23.848  18.078  19.325 -0.2313 -0.0787  0.3870
68619W        W69483  20.317  16.928  17.553 -0.0243  0.0408 -0.1429
68620W        W69484  24.558  16.400  19.696 -0.0378  0.0463 -0.3521
68621W        W69485  26.248  15.225  19.776 -0.0571  0.2699  0.3254
68622W        W69486  22.188  18.972  19.640  0.1307 -0.2105 -0.0080
68623W        W69487  20.975  17.485  19.235  0.2430 -0.2227 -0.4706
68624W        W69488  20.787  18.123  17.864 -0.0782  0.2713  0.0287
68625W        W69489  22.010  16.400  22.459 -0.0025  0.1321 -0.0993
68626W        W69490  22.105  19.046  18.325 -0.0851 -0.0418 -0.2122
68627W        W69491  25.678  16.977  18.011  0.0807  0.0372 -0.0478
68628W        W69492  27.295  16.153  19.740  0.1924  0.3255 -0.0352
68629W        W69493  24.379  14.909  18.958 -0.1251  0.1345 -0.1246
68630W        W69494  23.023  13.958  16.964 -0.0807  0.4773 -0.0577
68631W        W69495  25.199  18.211  19.385 -0.3038 -0.0406  0.0535
68632W        W69496  24.409  13.242  20.917  0.2227  0.3319  0.4929
68633W        W69497  17.371  13.450  19.442  0.1578 -0.3181  0.2092
68634W        W69498  26.901  19.258  20.775  0.4172  0.0265  0.0432
68635W        W69499  21.946  17.365  20.123  0.2829 -0.0235  0.0555
68636W        W69500  22.638  16.782  18.291 -0.0431  0.0633 -0.0100
68637W        W69501  21.255  17.455  19.619 -0.1200  0.1469  0.1043
68638W        W69502  20.431  17.652  23.602 -0.0402  0.3405  0.0164
68639W        W69503  21.114  18.452  19.937  0.1318 -0.0407  0.1713
68640W        W69504  23.722  16.163  20.945  0.0535  0.2162  0.0332
68641W        W69505  23.785  15.819  20.024  0.3010  0.0269 -0.2921
68642W        W69506  24.858  13.243  19.103  0.3221 -0.0032 -0.3908
68643W        W69507  20.030  14.796  20.842 -0.0112 -0.1145 -0.0887
68644W        W69508  20.988  14.559  18.662  0.0854 -0.0883  0.2470
68645W        W69509  24.292  14.220  22.476  0.3112  0.0195  0.2815
68646W        W69510  21.830  14.356  18.500 -0.0614  0.0818  0.0413
68647W        W69511  21.535  16.697  21.685  0.1470 -0.0393  0.1176
68648W        W69512  24.904  14.174  17.618 -0.4433 -0.0512  0.1447
68649W        W69513  21.465  16.622  21.221  0.1113 -0.0987 -0.3490
68650W        W69514  24.241  16.158  21.838 -0.3110 -0.1299  0.2388
68651W        W69515  21.982  16.432  17.007  0.0411 -0.2705  0.0555
68652W        W69516  22.700  15.647  19.211 -0.0376  0.1760 -0.1395
68653W        W69517  21.983  15.884  20.005 -0.0974 -0.1003  0.0913
68654W        W69518  23.221  16.259  18.465  0.1832  0.2173  0.2903
68655W        W69519  19.166  17.659  19.737 -0.0104 -0.1578  0.3319
68656W        W69520  25.311  16.443  20.933  0.0069 -0.2608  0.0140
68657W        W69521  23.055  16.618  22.021  0.1002  0.1424  0.0846
68658W        W69522  22.284  16.441  20.692  0.4197  0.2031  0.0620
68659W        W69523  27.037  14.301  21.319 -0.2843 -0.2747  0.1666
68660W        W69524  23.459  17.245  18.527 -0.2416 -0.2312 -0.1091
68661W        W69525  24.402  17.555  18.869  0.1087  0.0666  0.2374
68662W        W69526  25.479  17.468  18.138 -0.1364  0.2530 -0.0738
68663W        W69527  25.395  20.843  20.259 -0.2004  0.2828 -0.1627
68664W        W69528  24.772  16.983  22.267  0.0053 -0.0171 -0.0095
68665W        W69529  23.392  14.117  23.814 -0.3089 -0.0122 -0.1038
68666W        W69530  26.064  15.294  21.972 -0.1508  0.2707 -0.1127
68667W        W69531  25.766  14.935  21.620 -0.0169 -0.3704 -0.1975
68668W        W69532  25.340  18.198  20.878 -0.4350  0.0823  0.0842
68669W        W69533  22.087  15.659  20.872 -0.2569 -0.0123  0.2297
68670W        W69534  21.969  17.576  16.644 -0.1921 -0.1086  0.0221
68671W        W69535  25.735  14.470  17.492 -0.0525 -0.1004 -0.1128
68672W        W69536  24.969  18.199  21.518 -0.2332  0.2130  0.0359
68673W        W69537  27.623  16.405  22.308 -0.3120 -0.0172 -0.0035
68674W        W69538  22.600  17.583  18.620 -0.0090  0.1729  0.0405
68675W        W69539  23.727  17.819  21.825 -0.1119  0.1391  0.1829
68676W        W69540  23.362  16.483  21.650  0.3302 -0.1931  0.0751
68677W        W69541  24.214  17.555  24.476 -0.1044  0.0095 -0.3628
68678W        W69542  22.507  16.629  20.295 -0.0799 -0.2911 -0.0382
68679W        W69543  25.543  16.948  20.838  0.1074  0.0779  0.0317
68680W        W69544  24.756  15.087  20.699 -0.1639  0.1013 -0.2820
68681W        W69545  22.983  19.160  21.289  0.1555 -0.0614  0.0984
68682W        W69546  26.061  16.965  20.661  0.2697  0.0400 -0.0964
68683W        W69547  22.887  14.513  22.549 -0.2735 -0.1965 -0.1123
68684W        W69548  25.838  17.858  20.137  0.1377 -0.0852  0.0279
68685W        W69549  25.001  18.740  18.315 -0.1149  0.0301 -0.0813
68686W        W69550  23.128  16.749  18.479  0.1755 -0.0881  0.2694
68687W        W69551  22.281  19.288  22.766  0.2279  0.0078  0.0782
68688W        W69552  23.322  15.682  20.194 -0.0348 -0.1494  0.2258
68689W        W69553  22.130  12.896  19.647  0.1816 -0.0146  0.0074
68690W        W69554  24.359  17.562  21.248  0.1281  0.0224 -0.2783
68691W        W69555  22.138  16.351  19.889 -0.3630 -0.1682  0.0803
68692W        W69556  23.831  16.107  19.552 -0.2763 -0.2452  0.0938
68693W        W69557  21.343  18.947  19.838 -0.0905  0.0688 -0.0888
68694W        W69558  23.768  15.745  17.627  0.0901  0.3423 -0.3907
68695W        W69559  22.219  15.662  21.377  0.1776  0.1756  0.2513
68696W        W69560  21.147  16.276  21.432 -0.0735 -0.0986 -0.0514
68697W        W69561  26.490  17.429  20.759 -0.2947 -0.1488 -0.4286
68698W        W69562  26.044  16.501  19.266  0.0085 -0.3101  0.1364
68699W        W69563  22.814  16.411  20.748 -0.1545  0.0603 -0.2247
68700W        W69564  20.981  16.317  17.168  0.1595 -0.1773  0.1928
68701W        W69565  28.029  18.068  18.971 -0.1423 -0.0013 -0.0292
68702W        W69566  24.429  15.505  18.702 -0.2793 -0.2177 -0.0278
68703W        W69567  21.323  12.809  21.691  0.1056 -0.2038  0.1039
68704W        W69568  25.381  17.877  20.468  0.1060  0.0998  0.0953
68705W        W69569  26.341  18.118  20.885 -0.0906 -0.0827  0.0569
68706W        W69570  21.787  16.008  21.619  0.2897 -0.4166 -0.1130
68707W        W69571  21.770  15.684  18.290  0.1637  0.2050  0.0337
68708W        W69572  27.054  19.618  21.942  0.0116  0.0105 -0.5839
68709W        W69573  23.514  17.607  21.427 -0.3334 -0.0663  0.3609
68710W        W69574  24.266  20.185  21.676  0.0233 -0.0430  0.1943
68711W        W69575  22.564  16.838  20.793 -0.1985  0.1220 -0.1611
68712W        W69576  19.325  14.682  18.366 -0.2766  0.1490  0.1923
68713W        W69577  25.650  16.123  19.603 -0.1290 -0.1697  0.0499
68714W        W69578  23.458  17.319  22.367  0.0650  0.0283  0.1178
68715W        W69579  24.947  15.566  18.689 -0.0550  0.0300  0.0155
68716W        W69580  21.838  16.511  18.512  0.4051 -0.0583  0.1997
68717W        W69581  25.646  17.137  22.123  0.0132  0.1349  0.1167
68718W        W69582  23.357  17.611  20.654  0.1201 -0.0764 -0.0670
68719W        W69583  21.322  17.355  18.389  0.0163  0.1199  0.2928
68720W        W69584  27.293  17.426  20.344  0.2096  0.0292 -0.0421
68721W        W69585  24.480  15.592  23.051 -0.2526  0.1612  0.0519
68722W        W69586  21.779  14.906  24.052 -0.0386  0.2450 -0.1589
68723W        W69587  22.481  15.256  23.222  0.0115  0.0024 -0.1329
68724W        W69588  23.008  15.945  17.934  0.1188 -0.1017  0.0540
68725W        W69589  20.943  15.489  19.371  0.0589 -0.0666 -0.1503
68726W        W69590  24.670  17.935  20.370 -0.2085 -0.1073 -0.0885
68727W        W69591  23.842  14.374  17.309 -0.0103 -0.0163 -0.0222
68728W        W69592  20.366  14.433  22.008 -0.1637 -0.1113 -0.0499
68729W        W69593  23.097  19.658  21.378 -0.1340 -0.0749  0.0446
68730W        W69594  26.358  13.716  19.151  0.1557 -0.0520 -0.0071
68731W        W69595  25.114  14.836  23.075  0.0786  0.1764 -0.0975
68732W        W69596  21.926  16.851  20.021  0.3452  0.0610  0.2359
68733W        W69597  22.098  18.935  23.091 -0.0122 -0.0749  0.2956
68734W        W69598  26.958  16.286  18.970 -0.0719 -0.1167  0.2885
68735W        W69599  27.651  18.204  19.836  0.0552  0.1554 -0.1816
68736W        W69600  23.756  18.160  18.237  0.1494 -0.0220  0.2288
68737W        W69601  25.866  13.660  19.101 -0.0331  0.0671  0.0559
68738W        W69602  22.929  17.597  20.441 -0.0659  0.2088  0.0641
68739W        W69603  22.359  16.315  17.291 -0.0188  0.1634 -0.1732
68740W        W69604  21.090  17.152  18.762 -0.0791 -0.0744 -0.4115
68741W        W69605  25.886  17.310  19.887 -0.1370  0.0769 -0.0266
68742W        W69606  22.795  14.397  20.303  0.1079  0.0515 -0.0106
68743W        W69607  24.299  17.539  22.501 -0.1581 -0.1202  0.0045
68744W        W69608  24.911  15.108  21.207  0.0914 -0.2362 -0.1288
68745W        W69609  23.400  18.698  19.957  0.1800  0.0013  0.2336
68746W        W69610  21.269  21.069  20.078  0.0940 -0.2942 -0.2404
68747W        W69611  22.932  16.620  19.471  0.0924 -0.3480 -0.1270
68748W        W69612  25.079  16.566  24.753 -0.1102 -0.2035  0.0866
68749W        W69613  27.506  15.500  18.843  0.0738  0.0595  0.2485
68750W        W69614  24.302  16.735  20.294 -0.2099  0.1004  0.0186
68751W        W69615  24.527  18.210  21.325 -0.1904 -0.0204  0.0915
68752W        W69616  24.968  18.424  22.435  0.1215 -0.2237  0.0550
68753W        W69617  23.874  12.284  19.117 -0.3467  0.0391 -0.2066
68754W        W69618  27.066  14.275  19.986  0.2534 -0.0488  0.2875
68755W        W69619  20.725  17.479  19.678  0.2507 -0.2355 -0.0553
68756W        W69620  23.890  15.075  21.357  0.2665  0.0451  0.2471
68757W        W69621  22.451  16.300  23.151  0.0175  0.0235  0.2728
68758W        W69622  21.984  15.401  19.965  0.2472  0.0826 -0.0433
68759W        W69623  25.302  17.228  20.436 -0.0329 -0.2128  0.3088
68760W        W69624  22.989  18.484  20.219  0.1935 -0.3014 -0.0423
68761W        W69625  22.651  18.024  20.359 -0.3067  0.2133 -0.0572
68762W        W69626  23.556  17.234  19.069  0.0705 -0.0701 -0.1513
68763W        W69627  25.322  13.001  18.965  0.0631  0.0134  0.0083
68764W        W69628  22.871  17.224  20.938 -0.1432  0.0227 -0.2107
68765W        W69629  21.300  15.497  18.314  0.3294  0.2246 -0.1064
68766W        W69630  20.849  17.604  18.672  0.0559  0.3719  0.0329
68767W        W69631  26.287  18.451  19.098  0.0322 -0.0571 -0.1244
68768W        W69632  19.933  17.724  24.460  0.4405 -0.1416  0.1452
68769W        W69633  24.980  16.193  19.400  0.0220 -0.0506 -0.1276
68770W        W69634  25.760  13.803  21.506  0.1755 -0.3256 -0.0954
68771W        W69635  24.365  18.916  23.013  0.1856  0.2565  0.1813
68772W        W69636  23.719  16.191  18.454 -0.3105  0.1429  0.3515
68773W        W69637  21.928  17.119  19.226  0.1367  0.1642 -0.2142
68774W        W69638  22.211  15.921  22.294  0.1903  0.0910 -0.0303
68775W        W69639  21.111  14.311  20.855  0.0324  0.1571 -0.1047
68776W        W69640  23.881  16.827  21.031 -0.1146  0.0828  0.1130
68777W        W69641  26.324  15.722  15.972 -0.0696  0.2963  0.0646
68778W        W69642  27.795  18.600  19.458  0.0454  0.4283 -0.1744
68779W        W69643  23.884  16.831  20.527 -0.0877  0.2186  0.0349
68780W        W69644  27.757  17.635  21.450  0.0351  0.2454  0.1277
68781W        W69645  24.769  17.142  23.942 -0.1692  0.0043 -0.1023
68782W        W69646  19.173  16.657  20.184 -0.0425 -0.0278  0.1813
68783W        W69647  25.689  17.148  17.394 -0.2505 -0.0155 -0.0881
68784W        W69648  24.265  14.299  21.611 -0.1572 -0.0547 -0.0535
68785W        W69649  22.456  15.627  20.381  0.2321  0.3752  0.2174
68786W        W69650  21.512  14.518  18.862  0.1862  0.0157  0.0731
68787W        W69651  24.066  15.807  20.899  0.0838 -0.2656 -0.0530
68788W        W69652  23.231  13.765  20.967  0.0543 -0.1045  0.0499
68789W        W69653  20.555  15.816  19.400 -0.0956  0.1539  0.0851
68790W        W69654  25.380  14.270  19.388  0.0129  0.0488  0.1684
68791W        W69655  22.091  18.171  19.390  0.0886 -0.0821  0.1292
68792W        W69656  22.162  15.722  19.012 -0.1833  0.0767  0.2321
68793W        W69657  22.448  16.392  22.126  0.0288  0.1731  0.0339
68794W        W69658  24.876  17.559  19.692  0.0227 -0.0105  0.1394
68795W        W69659  22.795  13.199  19.064  0.1315  0.1289  0.1033
68796W        W69660  24.537  15.566  20.978  0.1309 -0.1613  0.1466
68797W        W69661  26.517  14.423  17.854 -0.2712  0.0407  0.2218
68798W        W69662  26.758  17.249  24.946 -0.0902  0.0561 -0.0719
68799W        W69663  25.062  19.245  19.193  0.0697  0.3050  0.4002
68800W        W69664  22.063  14.953  20.255  0.0230 -0.0031  0.2850
68801W        W69665  26.905  12.548  17.441  0.0187  0.2131  0.2995
68802W        W69666  21.313  16.808  19.761  0.3029 -0.0314 -0.0261
68803W        W69667  25.398  13.735  24.401  0.1459 -0.2853 -0.2911
68804W        W69668  23.702  14.555  21.466 -0.0027  0.1044 -0.4025
68805W        W69669  21.688  13.287  17.832  0.0653 -0.2486 -0.2670
68806W        W69670  23.869  13.557  18.390 -0.2068  0.1598 -0.1610
68807W        W69671  25.040  17.409  20.851 -0.1011 -0.0750 -0.0371
68808W        W69672  23.146  15.531  21.700  0.2212 -0.2339  0.0251
68809W        W69673  25.615  14.673  20.738 -0.1597  0.0180  0.1217
68810W        W69674  21.161  17.744  18.163  0.3199 -0.1826 -0.2702
68811W        W69675  26.271  18.162  20.233  0.1663 -0.0070 -0.0796
68812W        W69676  24.272  17.314  19.806  0.2271 -0.0542  0.1500
68813W        W69677  26.711  16.363  20.418 -0.0514 -0.1625  0.1475
68814W        W69678  22.983  13.471  21.359  0.0563 -0.1444 -0.2519
68815W        W69679  26.400  12.018  20.565 -0.1051  0.1457  0.1524
68816W        W69680  23.198  16.405  19.017  0.0188  0.0768 -0.3396
68817W        W69681  24.619  15.256  19.835 -0.0886  0.0187 -0.2880
68818W        W69682  24.041  15.641  16.667 -0.1612 -0.2375 -0.1050
68819W        W69683  23.897  17.133  22.462 -0.2763  0.4218 -0.2383
68820W        W69684  26.251  18.208  19.705 -0.1746  0.0092 -0.1350
68821W        W69685  25.650  15.772  22.502 -0.1656 -0.1523 -0.1357
68822W        W69686  23.027  18.011  18.987  0.1674 -0.1262  0.0305
68823W        W69687  26.594  16.894  20.482 -0.1032 -0.3411  0.0471
68824W        W69688  24.689  14.852  22.408  0.0870  0.1451  0.1414
68825W        W69689  19.059  17.358  18.230  0.1717  0.1345  0.0085
68826W        W69690  21.421  16.615  19.077 -0.1881 -0.1086  0.1221
68827W        W69691  20.914  17.070  19.952  0.2750 -0.1869 -0.1135
68828W        W69692  22.965  20.154  21.301 -0.1098 -0.2262 -0.3027
68829W        W69693  26.456  13.735  21.067  0.3368 -0.0474  0.1839
68830W        W69694  26.397  17.163  21.323 -0.1991 -0.3262  0.1557
68831W        W69695  23.520  16.936  23.947  0.0228 -0.0287  0.0214
68832W        W69696  24.925  16.632  19.066 -0.1263 -0.4592  0.0820
68833W        W69697  23.881  17.556  20.053  0.2776 -0.0265  0.4207
68834W        W69698  22.413  18.193  22.381 -0.2656  0.1015  0.3309
68835W        W69699  25.936  19.011  22.424 -0.1476 -0.0173  0.0489
68836W        W69700  22.281  18.197  20.790  0.0011  0.2994 -0.2051
68837W        W69701  20.421  16.808  19.238 -0.0981  0.0931  0.1348
68838W        W69702  25.000  15.646  21.299  0.0551 -0.1530  0.3268
68839W        W69703  25.142  14.645  18.908  0.3779  0.0702  0.4029
68840W        W69704  22.773  19.287  20.813 -0.0711 -0.1888 -0.0318
68841W        W69705  22.232  16.182  21.694  0.0646  0.0699  0.1064
68842W        W69706  25.736  16.585  20.557 -0.3445 -0.1403 -0.0784
68843W        W69707  20.716  18.383  21.362  0.0241 -0.2164  0.0345
68844W        W69708  24.060  17.637  18.058 -0.3524  0.1229 -0.3934
68845W        W69709  19.154  16.091  19.270  0.2337  0.0005  0.0387
68846W        W69710  25.361  19.154  26.144  0.4392 -0.0010  0.1430
68847W        W69711  20.877  15.805  22.402  0.1067 -0.1082 -0.1023
68848W        W69712  23.934  15.792  24.187  0.1614 -0.0505 -0.2535
68849W        W69713  27.673  17.413  24.580  0.1350  0.1746  0.2158
68850W        W69714  23.645  18.753  24.773 -0.0465 -0.1126 -0.0868
68851W        W69715  22.890  16.109  23.091  0.2137 -0.1134  0.2540
68852W        W69716  20.806  14.562  19.680 -0.1375 -0.3588  0.0742
68853W        W69717  23.538  16.497  20.580  0.0242 -0.1064 -0.0542
68854W        W69718  24.006  17.824  26.240 -0.2622 -0.1382 -0.4466
68855W        W69719  22.537  15.968  25.690 -0.0142 -0.1545  0.1001
68856W        W69720  23.776  15.086  24.280 -0.0622  0.0832 -0.3036
68857W        W69721  24.419  15.868  24.321 -0.0940  0.0470 -0.3806
68858W        W69722  24.763  15.637  23.563 -0.0360 -0.0774 -0.2307
68859W        W69723  24.375  16.161  25.357  0.0695  0.0413 -0.1385
68860W        W69724  24.486  15.035  25.320 -0.1553  0.3216 -0.1138
68861W        W69725  21.038  16.722  26.572  0.1977  0.1617 -0.0834
68862W        W69726  22.225  16.705  22.948  0.0613  0.1013 -0.2697
68863W        W69727  25.675  14.095  25.213 -0.1812  0.2693  0.2642
68864W        W69728  22.181  13.491  26.634  0.4222  0.0173 -0.0535
68865W        W69729  24.611  14.680  23.227 -0.0718 -0.3680 -0.5854
68866W        W69730  27.588  16.190  25.677  0.0524 -0.0147 -0.0952
68867W        W69731  25.499  16.705  22.327  0.0512 -0.1981  0.0484
68868W        W69732  23.519  17.712  23.564 -0.0392  0.0021 -0.0365
68869W        W69733  23.502  18.488  25.231  0.1333 -0.1859  0.1768
68870W        W69734  23.881  14.295  23.777  0.1141  0.2249 -0.2345
68871W        W69735  25.003  17.389  25.865 -0.0116  0.1794 -0.2035
68872W        W69736  25.448  15.678  25.640 -0.0258  0.0874 -0.0337
68873W        W69737  22.829  17.581  24.979 -0.1380 -0.1026 -0.0678
68874W        W69738  25.656  15.061  27.136 -0.1601 -0.1728  0.1742
68875W        W69739  23.925  17.991  24.265 -0.2847 -0.1322 -0.0407
68876W        W69740  25.051  16.774  23.850 -0.1558  0.0136 -0.0167
68877W        W69741  26.207  17.299  24.754  0.1482 -0.4694 -0.2402
68878W        W69742  23.907  17.510  26.626  0.3055 -0.0940 -0.1515
68879W        W69743  24.346  15.238  24.911  0.0714  0.0192  0.0721
68880W        W69744  21.889  19.094  26.329 -0.0023  0.0959  0.0389
68881W        W69745  26.334  15.984  26.459 -0.0332  0.5947 -0.0884
68882W        W69746  23.551  13.291  23.995  0.3853  0.1312  0.0324
68883W        W69747  21.470  16.522  22.372  0.0289  0.1217 -0.1435
68884W        W69748  26.383  17.087  22.667 -0.1705  0.1348 -0.1400
68885W        W69749  24.750  14.401  26.087 -0.1421  0.2026 -0.1665
68886W        W69750  24.603  17.319  21.587  0.3627 -0.1120 -0.1184
68887W        W69751  23.187  13.959  21.560  0.1206 -0.0372 -0.1423
68888W        W69752  24.539  18.019  25.180 -0.0852  0.3059  0.1879
68889W        W69753  26.712  16.967  23.093 -0.1168 -0.3943  0.2571
68890W        W69754  23.514  20.004  22.914  0.1045 -0.0944 -0.0275
68891W        W69755  21.320  18.711  23.076 -0.1445  0.5650 -0.0012
68892W        W69756  23.153  13.134  26.126  0.0297  0.1226 -0.0510
68893W        W69757  28.883  14.924  26.133 -0.3164 -0.0375  0.2990
68894W        W69758  24.877  15.470  25.033  0.0074 -0.0022 -0.0577
68895W        W69759  24.181  15.818  20.369 -0.1016 -0.1344 -0.1822
68896W        W69760  21.535  16.540  26.706  0.0560  0.3313  0.0843
68897W        W69761  25.287  16.152  22.128 -0.0896  0.4131  0.0630
68898W        W69762  24.401  17.073  22.599 -0.3224  0.3104  0.0946
68899W        W69763  25.035  13.344  23.738 -0.0524 -0.3116  0.2585
68900W        W69764  25.768  11.651  23.465  0.0250 -0.1858 -0.1619
68901W        W69765  21.414  16.620  23.734 -0.1335 -0.2910  0.4252
68902W        W69766  19.923  13.461  23.569  0.0927 -0.0394  0.0476
68903W        W69767  25.311  14.447  22.828  0.2016 -0.1839  0.2238
68904W        W69768  21.759  16.896  22.543  0.2226  0.1750 -0.0304
68905W        W69769  22.564  18.664  22.371  0.0466 -0.1276 -0.2281
68906W        W69770  23.550  17.235  20.239 -0.1602 -0.1077 -0.2147
68907W        W69771  22.100  17.272  25.204  0.3494  0.2092 -0.0974
68908W        W69772  25.215  16.507  24.217 -0.0346 -0.5696 -0.0136
68909W        W69773  24.102  16.814  22.861 -0.1686  0.2743 -0.1757
68910W        W69774  23.952  14.530  23.214 -0.0096  0.2035 -0.1409
68911W        W69775  28.200  14.307  24.790  0.1051  0.0027  0.1136
68912W        W69776  23.390  17.806  22.451  0.3547  0.2888 -0.3697
68913W        W69777  21.026  11.919  20.238 -0.1968 -0.1099 -0.2070
68914W        W69778  23.694  18.190  23.345  0.0614 -0.0402 -0.0159
68915W        W69779  23.064  18.052  22.700  0.2195  0.1881  0.0257
68916W        W69780  24.391  18.425  27.686  0.0681 -0.0037  0.1358
68917W        W69781  21.222  15.512  21.097  0.0351  0.4300  0.5782
68918W        W69782  21.358  17.015  25.657 -0.1272  0.0360  0.4043
68919W        W69783  24.940  14.590  25.115 -0.2109  0.1582 -0.1499
68920W        W69784  24.286  16.416  23.692  0.3023  0.1887 -0.0747
68921W        W69785  23.663  18.074  22.831 -0.1927  0.1702  0.0890
68922W        W69786  22.810  19.036  25.329  0.0677 -0.0312 -0.1053
68923W        W69787  23.256  18.558  23.745  0.1536 -0.5102 -0.0969
68924W        W69788  25.196  13.081  20.831  0.1926 -0.2198 -0.2533
68925W        W69789  22.368  15.429  22.670 -0.0783 -0.1552  0.2600
68926W        W69790  24.292  15.393  23.542 -0.1064 -0.3020  0.0876
68927W        W69791  24.610  18.582  27.234  0.1111  0.1870  0.0339
68928W        W69792  24.596  16.631  22.731  0.0810  0.3635 -0.2703
68929W        W69793  27.288  16.206  24.635  0.1991 -0.1290  0.1336
68930W        W69794  21.941  14.894  24.973 -0.0955  0.2013 -0.0946
68931W        W69795  23.600  13.689  21.299 -0.0145  0.2334 -0.2927
68932W        W69796  25.135  16.604  25.258 -0.1173 -0.2432 -0.4422
68933W        W69797  24.219  15.133  26.567 -0.0120  0.0790 -0.0271
68934W        W69798  23.763  16.558  26.399  0.1071 -0.0912 -0.1216
68935W        W69799  25.396  15.734  26.637  0.4048  0.0407 -0.2863
68936W        W69800  28.135  12.819  23.660  0.1264  0.1124 -0.1092
68937W        W69801  26.130  17.844  25.675 -0.1870 -0.1453  0.1872
68938W        W69802  23.269  19.011  21.641  0.0676  0.0367  0.1127
68939W        W69803  21.918  15.111  22.699  0.1946  0.1144 -0.2003
68940W        W69804  18.847  17.315  28.260 -0.4403 -0.4006 -0.0610
68941W        W69805  27.047  16.629  23.617 -0.1666 -0.0340 -0.1118
68942W        W69806  25.031  17.858  22.875 -0.0086  0.1855 -0.0467
68943W        W69807  26.128  18.822  25.706 -0.0140 -0.0406  0.0243
68944W        W69808  19.164  14.333  22.334 -0.0499 -0.0756  0.2268
68945W        W69809  23.002  16.725  23.623 -0.2028 -0.0202 -0.0132
68946W        W69810  24.186  14.848  22.251 -0.0511  0.1700  0.3013
68947W        W69811  22.081  18.009  22.978 -0.0057 -0.2752  0.1772
68948W        W69812  23.331  15.046  22.507 -0.0194 -0.0243 -0.2968
68949W        W69813  27.119  16.050  25.233  0.0376  0.0981  0.1981
68950W        W69814  24.323  14.444  23.545 -0.2828 -0.0125  0.1383
68951W        W69815  22.803  13.173  22.188  0.0158 -0.1311  0.1096
68952W        W69816  26.218  18.372  24.021  0.1325 -0.2234 -0.1510
68953W        W69817  25.598  15.433  23.786 -0.1903 -0.0588 -0.0264
68954W        W69818  25.355  15.299  25.331  0.1259 -0.0231 -0.0041
68955W        W69819  21.807  16.729  25.504 -0.0267  0.5304  0.4295
68956W        W69820  21.224  15.943  24.347  0.1330 -0.0181  0.5076
68957W        W69821  23.967  19.219  23.880 -0.1068  0.0215  0.1629
68958W        W69822  25.213  13.298  24.636 -0.1702  0.1908 -0.3459
68959W        W69823  24.882  16.007  25.362 -0.0164 -0.0398 -0.2672
68960W        W69824  24.237  15.743  22.523 -0.0435 -0.0686 -0.0973
68961W        W69825  22.722  16.400  21.668 -0.0513  0.2261  0.0263
68962W        W69826  25.007  12.921  27.803  0.0998  0.0766  0.2096
68963W        W69827  25.360  15.847  27.167 -0.5337  0.0564 -0.0564
68964W        W69828  23.174  16.452  24.812  0.3227 -0.2090 -0.2100
68965W        W69829  22.798  16.625  22.966 -0.2445 -0.2185  0.0867
68966W        W69830  24.367  15.164  22.600  0.0242 -0.3765 -0.2188
68967W        W69831  25.628  17.606  22.099  0.3221 -0.0225  0.0991
68968W        W69832  25.073  17.862  25.116 -0.1118  0.2711 -0.2279
68969W        W69833  23.813  15.497  23.818 -0.2430 -0.4031  0.2178
68970W        W69834  25.587  17.626  23.938  0.1285 -0.1393 -0.2678
68971W        W69835  23.882  14.522  26.167 -0.1447  0.4284 -0.3079
68972W        W69836  23.346  16.373  23.591  0.1105 -0.0342  0.4438
68973W        W69837  25.444  16.366  27.272  0.2581 -0.0200  0.3105
68974W        W69838  24.537  20.156  23.143  0.1345 -0.1686 -0.0459
68975W        W69839  22.506  17.316  20.565  0.1252 -0.1964  0.1731
68976W        W69840  25.183  15.300  23.163  0.1238  0.0984 -0.0405
68977W        W69841  24.374  14.259  24.523 -0.0770 -0.1198 -0.0167
68978W        W69842  24.563  16.804  25.510 -0.1680 -0.1738  0.0863
68979W        W69843  25.349  18.277  18.442  0.0059 -0.1332  0.1218
68980W        W69844  24.197  17.122  24.832 -0.0527  0.0583 -0.0832
68981W        W69845  21.261  18.024  25.360 -0.3881  0.1237 -0.1368
68982W        W69846  24.235  16.315  24.167  0.0722 -0.0181 -0.0751
68983W        W69847  24.110  14.789  25.111  0.2457 -0.1293 -0.0395
68984W        W69848  22.598  16.474  24.048 -0.3003  0.0372  0.0471
68985W        W69849  20.716  20.001  23.605 -0.1359 -0.1520  0.3932
68986W        W69850  22.899  19.026  19.219  0.0329  0.1608  0.1359
68987W        W69851  21.579  17.707  25.647  0.1267  0.1989 -0.1032
68988W        W69852  25.074  20.207  21.872  0.0243  0.2195  0.0944
68989W        W69853  26.143  17.816  23.967  0.3369  0.0048 -0.4891
68990W        W69854  23.693  18.358  26.953  0.0821 -0.0021 -0.2636
68991W        W69855  22.637  14.954  24.466  0.0455  0.0310  0.0977
68992W        W69856  24.383  13.742  23.691 -0.2352 -0.2638 -0.0642
68993W        W69857  24.592  17.811  21.678 -0.1007 -0.2722  0.0646
68994W        W69858  23.377  18.632  24.268  0.0157 -0.1457  0.0952
68995W        W69859  24.743  18.899  23.738 -0.1138 -0.0290  0.3373
68996W        W69860  26.586  17.777  25.861 -0.2809  0.3193  0.2746
68997W        W69861  22.872  15.658  20.732 -0.0461 -0.2256 -0.0682
68998W        W69862  23.918  17.111  24.216  0.2431  0.1280 -0.2129
68999W        W69863  20.732  17.866  22.876  0.0189  0.0460 -0.1294
69000W        W69864  24.723  16.359  25.054 -0.1011 -0.0810 -0.2054
69001W        W69865  23.785  16.214  24.449  0.2961 -0.2068  0.0167
69002W        W69866  23.394  16.452  24.211  0.1120 -0.3887 -0.4025
69003W        W69867  23.145  16.753  20.936 -0.2624 -0.2241  0.1003
69004W        W69868  23.815  12.795  22.340 -0.0241 -0.1153  0.1140
69005W        W69869  25.451  15.769  21.693 -0.1389 -0.1157  0.0099
69006W        W69870  24.455  12.310  25.993 -0.1047  0.1241 -0.0247
69007W        W69871  25.022  16.779  23.060 -0.4575 -0.2443 -0.1540
69008W        W69872  24.372  17.289  26.882  0.2494  0.1390  0.1665
69009W        W69873  26.421  19.577  25.281 -0.1529 -0.2889 -0.1715
69010W        W69874  21.037  13.098  26.165 -0.2594 -0.2130  0.2936
69011W        W69875  23.568  15.492  22.088  0.0617 -0.0412  0.0470
69012W        W69876  21.211  15.098  22.004  0.1308 -0.3491  0.1645
69013W        W69877  20.854  15.239  24.866  0.0313 -0.0694 -0.1927
69014W        W69878  21.292  15.553  26.215  0.1136 -0.1637  0.0175
69015W        W69879  22.489  17.131  20.095  0.0071 -0.1782 -0.0440
69016W        W69880  23.036  16.282  21.230  0.1103  0.3215 -0.0086
69017W        W69881  24.992  14.344  23.238 -0.0600  0.1081 -0.3221
69018W        W69882  22.527  16.717  23.452  0.3157  0.0843 -0.1399
69019W        W69883  21.785  17.615  22.863  0.2861  0.0670 -0.0421
69020W        W69884  24.124  16.302  22.678 -0.0086  0.1267 -0.0604
69021W        W69885  27.245  17.075  24.791 -0.0091 -0.1381  0.0426
69022W        W69886  21.285  18.017  24.458 -0.0897  0.1812  0.1819
69023W        W69887  23.170  18.091  23.582 -0.2721 -0.1968 -0.2443
69024W        W69888  24.292  19.602  21.872  0.0274  0.0862  0.2084
69025W        W69889  23.514  14.451  21.964 -0.2986 -0.1406  0.0507
69026W        W69890  20.079  16.016  22.197  0.0907  0.1924 -0.0813
69027W        W69891  24.200  18.827  23.727  0.0766 -0.0655  0.0216
69028W        W69892  23.402  16.343  22.226  0.2075 -0.1783  0.1689
69029W        W69893  23.752  18.779  22.292 -0.0410  0.1744 -0.1036
69030W        W69894  23.712  11.226  20.181 -0.0295 -0.0119 -0.1099
69031W        W69895  26.378  16.985  25.145 -0.1062 -0.2935  0.0276
69032W        W69896  23.837  13.975  22.381  0.3244  0.1096  0.0114
69033W        W69897  21.698  14.509  22.437  0.1504 -0.0034  0.0602
69034W        W69898  25.468  17.183  26.676 -0.0775 -0.1708 -0.2447
69035W        W69899  26.100  16.823  22.198  0.2976  0.4003  0.1188
69036W        W69900  22.515  16.355  22.627  0.1452  0.0203  0.2591
69037W        W69901  24.749  18.889  22.621 -0.0055  0.2332  0.0213
69038W        W69902  23.875  15.124  24.811 -0.0216 -0.0421  0.1023
69039W        W69903  23.205  14.525  25.085 -0.0975  0.4700 -0.0624
69040W        W69904  23.945  13.269  24.391  0.2670  0.2221  0.0296
69041W        W69905  23.713  16.604  22.575 -0.1442 -0.1210 -0.1449
69042W        W69906  23.484  14.127  24.814  0.2064 -0.5289  0.2416
69043W        W69907  21.952  16.628  23.456 -0.1041 -0.0359 -0.2226
69044W        W69908  25.824  13.602  23.951  0.1342  0.0970 -0.2658
69045W        W69909  19.790  17.354  20.794  0.0138 -0.1690  0.1213
69046W        W69910  27.203  16.498  25.462  0.0351 -0.2101  0.0752
69047W        W69911  22.866  17.031  24.027  0.0859 -0.2955  0.0180
69048W        W69912  20.909  16.536  22.496  0.0205 -0.1100  0.3183
69049W        W69913  23.584  14.935  25.198  0.1363 -0.2415 -0.1084
69050W        W69914  20.477  15.128  22.474 -0.2758  0.1070  0.3059
69051W        W69915  23.196  15.240  25.369 -0.3492  0.5398  0.2106
69052W        W69916  24.293  16.430  25.811  0.3701 -0.0306  0.0315
69053W        W69917  26.067  19.436  22.683 -0.1664  0.2437 -0.1054
69054W        W69918  20.330  16.746  20.300  0.3061 -0.0155 -0.0531
69055W        W69919  23.366  15.975  24.740  0.1574  0.0250  0.2932
69056W        W69920  25.796  14.700  25.288 -0.2156 -0.0357  0.3224
69057W        W69921  24.980  15.022  24.276  0.2984 -0.0279 -0.2387
69058W        W69922  25.956  13.670  24.901 -0.0467 -0.1113  0.2919
69059W        W69923  25.787  15.481  25.234  0.2103 -0.0173  0.0685
69060W        W69924  25.884  15.508  25.920  0.0468 -0.0998  0.1794
69061W        W69925  24.646  14.961  23.847 -0.0394  0.1186  0.2201
69062W        W69926  25.314  18.327  24.446 -0.1309 -0.0282 -0.0490
69063W        W69927  24.753  18.176  25.516 -0.1910 -0.0675  0.3036
69064W        W69928  19.900  17.860  26.820  0.0007  0.1834  0.3575
69065W        W69929  24.153  12.700  25.756 -0.1271 -0.0859  0.1509
69066W        W69930  25.810  15.574  24.341  0.0549 -0.3357  0.2066
69067W        W69931  23.473  16.923  25.593 -0.1782 -0.1640  0.1598
69068W        W69932  22.552  17.055  21.297 -0.0496 -0.0455  0.1191
69069W        W69933  22.848  18.770  21.535  0.2922 -0.2463 -0.2207
69070W        W69934  23.608  15.464  25.074  0.0920  0.3131 -0.5560
69071W        W69935  24.014  15.132  25.439 -0.1576  0.1693  0.0458
69072W        W69936  25.289  15.205  25.829  0.3146  0.0976 -0.0318
69073W        W69937  24.830  17.420  22.573 -0.2431 -0.1785  0.1982
69074W        W69938  24.369  16.849  24.249 -0.1370  0.1343  0.1290
69075W        W69939  23.156  16.902  25.102  0.0721  0.0462 -0.0414
69076W        W69940  23.468  15.985  25.225  0.2651 -0.2152  0.1908
69077W        W69941  23.279  17.307  22.864 -0.0639 -0.0352 -0.0737
69078W        W69942  25.078  16.282  20.440 -0.1661  0.4356  0.0121
69079W        W69943  22.000  16.322  26.582  0.2580 -0.0638 -0.1812
69080W        W69944  25.840  19.529  22.226 -0.2247 -0.1274 -0.1989
69081W        W69945  25.699  14.602  24.142 -0.1491 -0.1051 -0.0919
69082W        W69946  22.897  15.278  26.303 -0.0065 -0.2316 -0.0177
69083W        W69947  23.714  17.115  24.660  0.3528  0.0541  0.2671
69084W        W69948  25.916  16.991  25.047 -0.1162 -0.0982 -0.0578
69085W        W69949  25.140  19.037  22.146  0.3737 -0.2370 -0.3185
69086W        W69950  22.002  15.673  24.435  0.0136  0.1246  0.0896
69087W        W69951  24.262  16.597  21.552  0.1794  0.1840  0.0035
69088W        W69952  22.635  14.745  23.894  0.3433 -0.2873 -0.0183
69089W        W69953  19.995  14.064  24.459 -0.0785  0.1706  0.2440
69090W        W69954  25.357  16.772  21.348 -0.1986 -0.0793  0.0336
69091W        W69955  26.083  16.629  24.683  0.1214 -0.1384 -0.0363
69092W        W69956  21.139  15.780  23.593 -0.0754 -0.1647  0.2769
69093W        W69957  21.906  19.538  24.042 -0.2310  0.2662  0.0850
69094W        W69958  23.303  18.128  22.015 -0.3883 -0.3402 -0.4398
69095W        W69959  24.568  18.310  21.840  0.1344 -0.2403 -0.1903
69096W        W69960  27.322  18.476  25.142  0.0317 -0.2591 -0.2152
69097W        W69961  25.929  20.321  26.281 -0.0877  0.1998  0.0766
69098W        W69962  25.114  12.952  24.318 -0.2695 -0.1449 -0.2613
69099W        W69963  23.476  16.496  21.189  0.2361 -0.2385  0.3022
69100W        W69964  26.706  19.336  21.461 -0.1682  0.0006 -0.1505
69101W        W69965  25.965  17.388  21.760  0.1763  0.2307 -0.2751
69102W        W69966  24.317  16.560  26.454  0.1752 -0.0625  0.0966
69103W        W69967  26.221  18.979  22.910 -0.3485  0.0493 -0.1136
69104W        W69968  22.574  14.001  23.173  0.3732  0.0932  0.2481
69105W        W69969  24.776  16.343  24.431  0.1204  0.1236  0.1792
69106W        W69970  22.939  18.570  26.407  0.2564 -0.2014  0.0112
69107W        W69971  23.414  14.927  27.450  0.2927  0.2588  0.0903
69108W        W69972  22.167  16.085  24.760 -0.0314 -0.0452  0.0693
69109W        W69973  21.851  18.316  21.032  0.2436 -0.1016 -0.0086
69110W        W69974  26.246  17.043  27.103  0.5633  0.0919  0.1499
69111W        W69975  21.847  17.361  22.284  0.0726  0.2281 -0.1579
69112W        W69976  25.808  15.357  23.286  0.1147  0.3352  0.0736
69113W        W69977  26.267  15.807  25.914 -0.2072 -0.1305  0.1914
69114W        W69978  25.268  16.727  20.212 -0.1083  0.0335  0.0635
69115W        W69979  22.928  17.291  22.262  0.0347 -0.1463 -0.0447
69116W        W69980  24.910  17.076  23.451  0.1333 -0.2580  0.2878
69117W        W69981  22.236  17.047  23.255  0.4539  0.1832 -0.1963
69118W        W69982  21.401  15.859  23.105 -0.0022  0.2518 -0.0198
69119W        W69983  22.273  16.857  22.466 -0.0713 -0.1009  0.1015
69120W        W69984  26.851  17.165  26.546  0.0190 -0.0062  0.2368
69121W        W69985  23.126  17.311  25.378 -0.2436  0.1013 -0.2180
69122W        W69986  23.488  16.920  23.464  0.0758  0.1523 -0.1523
69123W        W69987  21.566  16.830  20.501 -0.0527  0.1365  0.1214
69124W        W69988  21.081  17.117  25.184 -0.1257  0.0198 -0.0175
69125W        W69989  23.372  15.455  20.760  0.3214  0.5162 -0.0074
69126W        W69990  22.438  17.622  22.995 -0.1222 -0.1113  0.1701
69127W        W69991  20.990  17.929  19.693  0.1715  0.3666 -0.1237
69128W        W69992  22.669  19.020  26.745  0.2112 -0.0510 -0.1078
69129W        W69993  23.505  16.065  23.218 -0.1537  0.0837  0.1005
69130W        W69994  28.060  17.543  25.947 -0.5255 -0.1521  0.1994
69131W        W69995  26.051  16.972  24.347 -0.0321 -0.4473 -0.2623
69132W        W69996  21.035  15.178  25.982 -0.2064  0.2073  0.0702
69133W        W69997  24.984  14.699  23.584 -0.0483 -0.1810 -0.0902
69134W        W69998  25.510  16.972  22.881 -0.2574  0.1157  0.1370
69135W        W69999  21.483  17.268  23.008  0.0115 -0.0807  0.2488
69136W        W70000  26.634  18.745  21.262 -0.1897 -0.2596 -0.0093
69137W        W70001  25.528  13.441  26.929  0.0896 -0.1887  0.0125
69138W        W70002  22.031  15.538  23.049 -0.0453  0.2369  0.0260
69139W        W70003  20.640  17.477  23.168 -0.2345  0.2864  0.0913
69140W        W70004  23.871  14.303  24.452 -0.1407  0.3149 -0.1653
69141W        W70005  22.824  16.693  24.403  0.1030 -0.1842  0.1477
69142W        W70006  24.762  15.164  23.340  0.1487  0.1052 -0.0453
69143W        W70007  25.651  16.067  25.937 -0.0334  0.0354  0.0327
69144W        W70008  19.052  16.802  24.390 -0.1516  0.0540  0.2132
69145W        W70009  21.519  17.035  22.078  0.1091  0.2776 -0.1561
69146W        W70010  22.179  12.603  26.307  0.0836  0.0638 -0.2257
69147W        W70011  26.922  18.250  25.984  0.2030 -0.1454 -0.2106
69148W        W70012  24.009  15.818  25.243  0.0955  0.2323 -0.1830
69149W        W70013  24.840  17.629  23.276 -0.1899 -0.1488  0.1664
69150W        W70014  23.261  16.734  26.502  0.0776  0.0715 -0.0965
69151W        W70015  27.437  17.921  27.011 -0.0813  0.1086  0.0695
69152W        W70016  24.151  14.644  24.083 -0.0725 -0.2671  0.1382
69153W        W70017  23.367  13.735  19.945  0.0955  0.2362  0.2509
69154W        W70018  20.848  15.851  21.409 -0.2533  0.1192  0.1031
69155W        W70019  21.791  17.357  20.635 -0.3764  0.1950  0.2224
69156W        W70020  22.653  16.112  26.169 -0.0161 -0.0538  0.0854
69157W        W70021  23.177  16.336  22.697 -0.0285 -0.1832  0.1439
69158W        W70022  26.001  17.372  26.148 -0.0658 -0.1487 -0.1558
69159W        W70023  24.225  18.834  22.451  0.1350  0.2135 -0.0908
69160W        W70024  23.350  17.287  24.243 -0.1701  0.1363  0.0242
69161W        W70025  23.233  15.796  22.872  0.0117  0.0101 -0.1330
69162W        W70026  23.234  17.300  23.723  0.2424 -0.0657 -0.3735
69163W        W70027  24.305  19.651  23.081 -0.4228 -0.0711  0.2850
69164W        W70028  23.265  18.840  22.106 -0.2599 -0.0492 -0.1240
69165W        W70029  22.838  17.591  22.661 -0.1273  0.0068  0.0942
69166W        W70030  28.105  16.973  24.894  0.1180  0.2869 -0.1541
69167W        W70031  22.082  13.476  23.774  0.1378 -0.3846 -0.3782
69168W        W70032  22.340  16.549  24.488 -0.1348 -0.1070 -0.0981
69169W        W70033  22.860  18.515  22.783  0.0638  0.0253 -0.2417
69170W        W70034  26.408  20.727  24.242 -0.1379  0.2150 -0.1426
69171W        W70035  25.402  14.176  25.613  0.0181 -0.1396  0.1523
69172W        W70036  21.538  17.769  22.359  0.1285 -0.0600  0.0256
69173W        W70037  25.445  15.916  20.811 -0.2977 -0.0296 -0.0122
69174W        W70038  22.796  16.299  23.523 -0.3242 -0.1479  0.2531
69175W        W70039  24.681  17.111  25.003 -0.0157  0.1072  0.1653
69176W        W70040  27.660  15.923  22.494 -0.1263  0.0419 -0.2139
69177W        W70041  26.631  15.212  25.052 -0.1343 -0.3386  0.0084
69178W        W70042  25.387  16.216  25.547  0.2286 -0.0200  0.0934
69179W        W70043  27.536  16.622  23.581 -0.1325 -0.0830  0.0754
69180W        W70044  25.455  17.419  26.027  0.0682  0.1824  0.1178
69181W        W70045  23.331  21.511  22.846  0.2094 -0.1305 -0.3397
69182W        W70046  25.517  15.156  24.374 -0.0842  0.0104  0.1621
69183W        W70047  26.805  16.178  24.844 -0.0854 -0.0482 -0.0750
69184W        W70048  22.228  14.991  24.148  0.0167 -0.1090  0.2650
69185W        W70049  23.447  19.180  22.448  0.2139 -0.0085  0.1708
69186W        W70050  24.198  15.223  23.993  0.1312 -0.1464  0.0507
69187W        W70051  23.133  13.703  23.902  0.0285 -0.0717  0.1227
69188W        W70052  22.014  17.609  23.349  0.0503 -0.1039 -0.2324
69189W        W70053  23.916  15.356  22.864  0.0052  0.0025  0.1656
69190W        W70054  22.195  19.603  25.080 -0.0375 -0.0863  0.0214
69191W        W70055  21.276  19.299  22.046  0.0154  0.2390 -0.1214
69192W        W70056  21.698  19.778  22.208  0.0766 -0.3642  0.2064
69193W        W70057  26.707  17.116  21.677 -0.0351 -0.2799 -0.0377
69194W        W70058  23.556  14.696  24.703  0.0491  0.2726  0.4757
69195W        W70059  25.225  15.483  24.159  0.0093 -0.0005 -0.1220
69196W        W70060  24.044  16.682  24.697 -0.2118  0.1607  0.1491
69197W        W70061  25.644  19.234  22.952  0.0417 -0.3575 -0.2558
69198W        W70062  22.771  17.159  23.555  0.0745 -0.0798  0.2955
69199W        W70063  25.603  17.800  22.816  0.3486  0.3177  0.2970
69200W        W70064  21.811  12.945  24.265  0.2357 -0.0357 -0.0737
69201W        W70065  21.797  16.510  24.668 -0.0039  0.0985 -0.0995
69202W        W70066  22.970  16.153  25.259 -0.0214 -0.0502  0.1384
69203W        W70067  23.823  14.067  26.566 -0.2865  0.0165  0.1740
69204W        W70068  22.245  18.218  24.588  0.1000  0.1805  0.1676
69205W        W70069  24.708  16.270  21.673  0.1135  0.4745 -0.2118
69206W        W70070  24.354  15.562  26.284 -0.3672  0.0897 -0.4034
69207W        W70071  21.630  16.378  24.231  0.1589 -0.2273 -0.1162
69208W        W70072  24.225  13.134  23.576 -0.0736  0.1478 -0.1039
69209W        W70073  25.658  19.483  23.553 -0.1175 -0.3060  0.1509
69210W        W70074  27.380  17.848  24.405 -0.0289  0.4265  0.0205
69211W        W70075  23.798  16.490  23.093  0.0789 -0.3382 -0.2959
69212W        W70076  24.203  16.627  25.213  0.0615  0.0047 -0.1920
69213W        W70077  24.573  15.919  21.369 -0.2570 -0.0077 -0.0773
69214W        W70078  28.772  15.334  24.811 -0.4799 -0.0991 -0.0678
69215W        W70079  20.738  18.153  24.442 -0.0437 -0.0346 -0.0329
69216W        W70080  23.353  15.263  22.962  0.1054 -0.0032 -0.0736
69217W        W70081  24.311  16.993  20.754 -0.0581 -0.1980  0.1559
69218W        W70082  26.765  17.304  25.421  0.0108 -0.1119 -0.0724
69219W        W70083  24.228  18.285  20.369 -0.0069  0.0631  0.0942
69220W        W70084  22.580  14.653  25.733  0.3472  0.0255  0.1886
69221W        W70085  22.584  18.600  25.460 -0.1338 -0.0994  0.1713
69222W        W70086  24.715  17.802  23.746  0.0968  0.5556  0.0455
69223W        W70087  23.894  16.258  25.482 -0.1804 -0.2006 -0.0615
69224W        W70088  22.843  15.393  22.941 -0.3588  0.1624  0.0286
69225W        W70089  23.391  15.835  27.453  0.1049  0.2525  0.0119
69226W        W70090  23.076  16.016  21.653  0.1387 -0.1756  0.0820
69227W        W70091  21.240  16.164  23.905  0.1771 -0.1726 -0.0590
69228W        W70092  26.872  14.494  23.902  0.1147 -0.1475  0.1013
69229W        W70093  25.004  18.206  27.369  0.2208  0.1499  0.0447
69230W        W70094  28.120  17.176  26.261 -0.2965  0.1199  0.0626
69231W        W70095  27.591  18.847  22.384 -0.3326  0.1061  0.2119
69232W        W70096  22.052  14.135  25.300  0.0122  0.2819  0.0137
69233W        W70097  21.905  16.355  22.930  0.1995 -0.0268  0.2546
69234W        W70098  25.569  17.068  24.488  0.2462  0.2892 -0.0651
69235W        W70099  23.882  16.335  24.949 -0.1843  0.3516  0.0663
69236W        W70100  23.774  18.934  24.277  0.5527 -0.5332  0.3917
69237W        W70101  26.562  16.475  24.484  0.3285 -0.1753  0.1332
69238W        W70102  26.137  18.213  25.290 -0.2977  0.1557  0.1206
69239W        W70103  22.337  17.879  25.021 -0.5574  0.4347 -0.0394
69240W        W70104  25.694  16.611  25.545 -0.0632 -0.1799  0.2425
69241W        W70105  23.885  16.624  24.202  0.0948 -0.0075  0.0486
69242W        W70106  21.732  14.551  25.404  0.1417 -0.0428  0.0256
69243W        W70107  24.480  15.719  21.989 -0.0715 -0.0137  0.0433
69244W        W70108  24.139  17.772  20.426 -0.5169  0.1056  0.2314
69245W        W70109  23.828  18.712   1.104 -0.0473 -0.1832 -0.2073
69246W        W70110  25.671  17.686  27.353 -0.0692  0.1217  0.1735
69247W        W70111  24.366  17.842  26.620  0.0041 -0.0715 -0.1086
69248W        W70112  26.463  18.562   1.172  0.1317  0.0327 -0.1019
69249W        W70113  23.240  17.541  28.861 -0.0775  0.2153 -0.0119
69250W        W70114  24.640  15.828  25.894  0.2120  0.0153  0.1746
69251W        W70115  21.545  13.350  28.686 -0.1776  0.0454  0.0537
69252W        W70116  24.380  17.415  26.276  0.1074 -0.0539 -0.0710
69253W        W70117  23.784  16.722  27.776  0.0548  0.0012 -0.2054
69254W        W70118  21.966  15.485   2.699  0.2640  0.4681  0.0932
69255W        W70119  21.956  12.140  26.295  0.4753 -0.0973  0.4703
69256W        W70120  23.331  12.656  26.997 -0.4037  0.1967 -0.0978
69257W        W70121  23.071  14.939  25.902  0.1425 -0.1876 -0.2545
69258W        W70122  24.167  15.523  27.929 -0.2004 -0.0035  0.1162
69259W        W70123  23.912  15.551  26.611  0.1171 -0.0976 -0.0019
69260W        W70124  22.729  16.165   1.699  0.1161 -0.1336  0.1557
69261W        W70125  23.449  15.955  26.608 -0.1035  0.0717 -0.3356
69262W        W70126  22.409  18.185  27.829  0.1233  0.0991  0.0784
69263W        W70127  23.042  14.607  27.650 -0.1793  0.0411 -0.0727
69264W        W70128  23.626  13.224  27.753  0.1351  0.3148  0.0937
69265W        W70129  22.442  15.719  26.599 -0.3211  0.2084 -0.2051
69266W        W70130  25.271  16.506  25.998 -0.1311  0.0193 -0.0335
69267W        W70131  24.672  18.203  28.993 -0.1451 -0.0563  0.0470
69268W        W70132  22.949  16.081  28.152 -0.2207  0.1515 -0.1387
69269W        W70133  19.144  18.950  23.710 -0.3394 -0.1521 -0.0992
69270W        W70134  23.344  14.315  29.142 -0.1521  0.0076 -0.0413
69271W        W70135  25.244  15.690  28.332 -0.0855  0.0373 -0.1744
69272W        W70136  22.913  18.673  25.915  0.0927 -0.0651  0.3079
69273W        W70137  21.316  17.638   0.007  0.0913 -0.3341 -0.2941
69274W        W70138  25.654  14.193  27.928  0.2248 -0.2879 -0.1677
69275W        W70139  24.877  14.571  27.787 -0.1820 -0.2230  0.1544
69276W        W70140  23.615  15.547   1.985 -0.0652 -0.1526  0.1641
69277W        W70141  22.893  13.046   2.475 -0.0124  0.0941 -0.0044
69278W        W70142  23.649  14.601   1.958  0.0752  0.2966 -0.2887
69279W        W70143  21.248  17.419  27.646  0.3273  0.2977 -0.0229
69280W        W70144  24.689  16.875  27.446 -0.1094  0.0804  0.0597
69281W        W70145  21.556  12.998  26.680 -0.0242  0.0942  0.1430
69282W        W70146  22.732  17.074  26.255  0.1128 -0.0597  0.0273
69283W        W70147  25.515  18.800  28.788  0.0364 -0.0120  0.0538
69284W        W70148  24.484  16.392  28.327 -0.0426 -0.1429  0.0286
69285W        W70149  26.719  13.024  26.701  0.2268 -0.0780  0.0023
69286W        W70150  25.833  16.056  27.430  0.0253 -0.1970  0.0575
69287W        W70151  24.677  16.373  26.129 -0.0774  0.1818  0.0423
69288W        W70152  25.127  18.785  25.896 -0.0856 -0.0876 -0.2822
69289W        W70153  26.342  18.260  27.072 -0.1465  0.0833  0.2224
69290W        W70154  23.446  19.873  28.388  0.2030  0.1452 -0.1035
69291W        W70155  22.380  13.516  26.213  0.3557  0.0057  0.0758
69292W        W70156  24.128  15.970  28.420  0.3460 -0.1837  0.1151
69293W        W70157  24.336  17.283  27.377  0.0936  0.1325  0.0575
69294W        W70158  25.113  15.992  25.907 -0.2465 -0.3250 -0.0763
69295W        W70159  22.115  17.407  27.570  0.0260  0.0783  0.0088
69296W        W70160  24.301  11.940  28.111  0.1603 -0.0399 -0.0854
69297W        W70161  27.380  16.193  26.979  0.0925  0.1275 -0.0997
69298W        W70162  25.276  17.623  26.531  0.2822 -0.0778  0.2795
69299W        W70163  23.486  14.368  27.530 -0.0254 -0.0190 -0.0367
69300W        W70164  23.142  19.507  28.436  0.1660  0.3045  0.1981
69301W        W70165  21.037  15.922  25.386 -0.0308 -0.1971  0.1208
69302W        W70166  24.051  17.468   0.192  0.1805  0.1041 -0.0659
69303W        W70167  23.471  17.750  26.747 -0.0451 -0.1570  0.1755
69304W        W70168  24.881  18.061   0.252 -0.0999  0.0768  0.2313
69305W        W70169  24.592  16.999  26.415  0.0349  0.0142  0.0281
69306W        W70170  20.961  18.300  28.272  0.0588  0.0013  0.2303
69307W        W70171  21.669  18.745  26.630  0.2057 -0.1222 -0.0679
69308W        W70172  26.551  14.683  25.253 -0.0277 -0.2536  0.0511
69309W        W70173  24.329  12.596  26.874 -0.1561 -0.2429 -0.1521
69310W        W70174  24.110  15.605  27.394 -0.0976 -0.2629  0.1648
69311W        W70175  22.032  15.811  28.413  0.1065 -0.1622 -0.0474
69312W        W70176  21.198  17.276  24.747 -0.3065  0.3995 -0.2081
69313W        W70177  22.808  17.468  28.108 -0.1050 -0.3414 -0.5360
69314W        W70178  22.966  18.300  25.605  0.3968 -0.2814 -0.2164
69315W        W70179  26.921  16.568  28.767  0.0994 -0.1780 -0.2334
69316W        W70180  25.409  16.612  26.462 -0.0816  0.1145  0.2444
69317W        W70181  27.489  17.378  28.853  0.0620 -0.0688 -0.1024
69318W        W70182  23.616  16.842  26.981  0.1816 -0.4086  0.0303
69319W        W70183  25.952  17.286  27.671 -0.0542  0.1429  0.0972
69320W        W70184  25.572  17.155   0.991  0.5706 -0.1818  0.0087
69321W        W70185  23.153  14.974  24.885 -0.0440  0.4022  0.0265
69322W        W70186  24.974  18.414  28.614  0.0783  0.5241 -0.0237
69323W        W70187  24.606  14.406   0.208  0.1256  0.0404  0.1164
69324W        W70188  23.524  13.183  28.199  0.0126 -0.0603 -0.1445
69325W        W70189  23.040  16.313  26.663 -0.0345  0.0061  0.1040
69326W        W70190  23.764  12.707  27.401  0.3548  0.1269 -0.1485
69327W        W70191  22.194  13.959  23.951 -0.2023 -0.0056  0.0934
69328W        W70192  23.542  16.052  28.822  0.0554  0.3061 -0.0279
69329W        W70193  23.553  14.145   1.934 -0.0409 -0.0576  0.0583
69330W        W70194  24.957  14.973  25.373  0.0627  0.2439 -0.1919
69331W        W70195  26.826  17.913   0.092 -0.1002 -0.2230 -0.1229
69332W        W70196  24.713  14.452   2.295  0.3012  0.1999  0.3601
69333W        W70197  25.825  16.240  26.958  0.1345 -0.4462  0.5459
69334W        W70198  25.887  16.027  28.083  0.0009  0.0653  0.0106
69335W        W70199  23.151  15.845   1.027  0.3786 -0.0082 -0.1899
69336W        W70200  28.419  16.823  28.618  0.1664  0.1470  0.0078
69337W        W70201  23.336  17.277  27.022  0.1211 -0.1525 -0.0823
69338W        W70202  26.472  18.210  25.737  0.0878  0.1919 -0.1043
69339W        W70203  22.585  14.667   2.090  0.0711  0.0076  0.5813
69340W        W70204  26.498  15.132  27.162 -0.0135  0.0143 -0.2353
69341W        W70205  25.974  17.033  25.738  0.2153 -0.0810  0.0822
69342W        W70206  25.871  19.095  28.251 -0.1101 -0.2345  0.0737
69343W        W70207  21.642  12.898  24.845  0.0015  0.3262  0.0448
69344W        W70208  23.503  16.746  28.218 -0.2155 -0.1994 -0.1482
69345W        W70209  25.278  15.798  25.188  0.1706 -0.2836  0.2462
69346W        W70210  21.261  16.532  27.159  0.2062  0.4290  0.0044
69347W        W70211  24.274  14.238  25.877 -0.0016 -0.0122  0.1768
69348W        W70212  26.629  17.650  26.386  0.2701  0.0521 -0.0412
69349W        W70213  26.338  12.919  27.847  0.0453 -0.2199 -0.0983
69350W        W70214  25.102  16.583   0.373 -0.2335 -0.0441  0.2760
69351W        W70215  23.138  16.234  27.397  0.1434 -0.2014  0.2017
69352W        W70216  26.720  15.867   1.071 -0.0063 -0.0051  0.0115
69353W        W70217  24.581  12.124  27.660  0.3451  0.0611  0.0196
69354W        W70218  23.920  17.717  28.939 -0.2509 -0.2071 -0.1962
69355W        W70219  23.607  16.437  27.340 -0.1778 -0.1571 -0.0755
69356W        W70220  23.923  16.544  29.088 -0.0873  0.2133 -0.0078
69357W        W70221  28.019  13.055   1.889  0.0026 -0.0251  0.0924
69358W        W70222  25.877  18.734  29.133 -0.1123  0.0162  0.1026
69359W        W70223  24.207  14.199  26.890 -0.1139  0.0738 -0.1557
69360W        W70224  22.949  15.785  26.474 -0.0015  0.1225 -0.1180
69361W        W70225  25.417  12.860   2.788  0.2138 -0.0606  0.0762
69362W        W70226  22.132  16.859  27.518  0.1704  0.0325  0.0444
69363W        W70227  26.337  15.354  28.764  0.2074 -0.1160  0.0994
69364W        W70228  23.977  16.856  25.611  0.0596  0.0185  0.2668
69365W        W70229  24.064  13.847  28.452 -0.0478 -0.3130 -0.3369
69366W        W70230  26.320  19.020  26.404  0.0349 -0.1764  0.1049
69367W        W70231  23.970  18.230  28.242 -0.1509 -0.0351  0.0637
69368W        W70232  24.968  15.447  26.122  0.0736 -0.0715 -0.3839
69369W        W70233  24.000  13.098  26.824 -0.0788 -0.1467  0.1599
69370W        W70234  25.788  13.567   0.264 -0.1207  0.0102 -0.0006
69371W        W70235  24.138  12.137  26.674  0.1623  0.2635 -0.1556
69372W        W70236  25.468  16.191  28.304 -0.2362 -0.0562 -0.0340
69373W        W70237  25.600  17.824  28.900  0.2159 -0.1967 -0.4048
69374W        W70238  21.748  16.040   0.672  0.1285  0.4170 -0.0654
69375W        W70239  25.823  19.443   1.229 -0.2464  0.0640 -0.0693
69376W        W70240  25.514  16.680   0.858  0.0963 -0.1302 -0.0137
69377W        W70241  26.536  16.081   1.470 -0.2273  0.2981 -0.0810
69378W        W70242  24.723  14.915  29.134 -0.0327  0.0912 -0.0174
69379W        W70243  26.574  14.872  28.583  0.1391  0.2516  0.4109
69380W        W70244  23.269  13.659  27.981 -0.0940 -0.0268  0.0702
69381W        W70245  25.347  14.889   1.990 -0.0357  0.1456 -0.2093
69382W        W70246  25.312  16.920   0.012  0.3870 -0.2068  0.0574
69383W        W70247  25.008  15.052  27.665 -0.1640 -0.0499 -0.2336
69384W        W70248  24.529  17.711  27.146 -0.1843  0.0894  0.1525
69385W        W70249  20.754  16.262  24.359  0.0838 -0.0596  0.0433
69386W        W70250  24.196  16.250   0.293 -0.2444 -0.2843 -0.2124
69387W        W70251  21.568  14.342  25.922 -0.1432  0.0230 -0.1777
69388W        W70252  22.559  15.151  28.576 -0.1690  0.1321  0.1065
69389W        W70253  24.041  17.212  28.272 -0.0248 -0.2123 -0.0487
69390W        W70254  22.706  14.209  28.144  0.0688 -0.1637  0.2628
69391W        W70255  21.899  13.440  27.848 -0.1279 -0.1310  0.0782
69392W        W70256  27.327  17.243  27.271 -0.0930 -0.1322 -0.1616
69393W        W70257  27.922  18.547   0.264 -0.0371 -0.0573 -0.1725
69394W        W70258  24.252  18.476   0.007  0.3492 -0.0099 -0.0118
69395W        W70259  26.808  18.970  26.484 -0.1163  0.2299 -0.0542
69396W        W70260  25.027  17.004  25.517 -0.2433  0.1513 -0.0263
69397W        W70261  23.685  18.016  25.915  0.0214  0.1105  0.1376
69398W        W70262  22.214  14.805  26.899  0.1690  0.0953  0.0793
69399W        W70263  25.344  16.247   0.617 -0.2432  0.1313  0.1877
69400W        W70264  25.223  14.340  27.459  0.1350 -0.1403  0.2117
69401W        W70265  20.618  17.001  27.414  0.2399 -0.3238  0.0547
69402W        W70266  24.507  16.331  27.205 -0.0629  0.0417  0.1000
69403W        W70267  20.655  17.544  26.375 -0.1095  0.2283  0.0418
69404W        W70268  22.437  15.124  26.500  0.1030 -0.0179 -0.1691
69405W        W70269  23.887  13.231  28.490  0.0776  0.1159 -0.2501
69406W        W70270  22.390  16.063   1.162 -0.1088 -0.2019 -0.2605
69407W        W70271  22.762  16.619   1.494  0.3904  0.0962  0.3922
69408W        W70272  24.921  16.685  28.480  0.0904 -0.3799 -0.1357
69409W        W70273  20.425  14.317   0.534 -0.0466 -0.1145 -0.0070
69410W        W70274  24.939  13.544  28.841 -0.1178  0.0855  0.1460
69411W        W70275  22.046  13.876  26.996 -0.0424  0.1004 -0.1069
69412W        W70276  24.448  20.853  26.370  0.1616  0.1116 -0.1073
69413W        W70277  24.503  17.025  28.181  0.0416  0.1003 -0.1688
69414W        W70278  23.961  14.623  25.549  0.0816 -0.1210 -0.2227
69415W        W70279  23.848  16.367  28.605 -0.1216  0.0086 -0.0850
69416W        W70280  23.861  17.313  27.046 -0.3761  0.2409  0.0672
69417W        W70281  22.771  13.651   0.958 -0.0445 -0.0436 -0.1359
69418W        W70282  24.588  15.884  27.423 -0.0385 -0.1397 -0.0403
69419W        W70283  23.906  12.899  28.145  0.1063 -0.2099  0.3112
69420W        W70284  24.492  13.159  26.768  0.2629 -0.1031  0.1516
69421W        W70285  22.404  16.573   0.171 -0.0441 -0.0451 -0.0434
69422W        W70286  22.267  17.625  27.992 -0.1274  0.2220 -0.2354
69423W        W70287  18.698  16.858  26.071  0.2608  0.2452  0.1837
69424W        W70288  21.774  16.820   1.500  0.0001 -0.0326  0.2955
69425W        W70289  22.203  16.408  25.703 -0.1942  0.1453  0.2817
69426W        W70290  23.888  17.507  24.953 -0.0178  0.3356  0.1609
69427W        W70291  25.438  13.672  24.908  0.0534  0.1227  0.2878
69428W        W70292  21.590  13.127  27.577 -0.2164 -0.0197 -0.1845
69429W        W70293  24.920  16.640  26.515  0.0491 -0.4049 -0.2652
69430W        W70294  26.033  15.739   2.780  0.0668 -0.0653 -0.0520
69431W        W70295  24.324  13.695  27.819  0.0333 -0.4495 -0.3019
69432W        W70296  23.337  15.592  28.572 -0.2963 -0.3046 -0.1398
69433W        W70297  23.471  17.160   1.573 -0.0183 -0.3485 -0.1092
69434W        W70298  24.523  15.459  26.820  0.1810  0.1808  0.1703
69435W        W70299  23.732  16.486  25.869 -0.2122  0.0546  0.1269
69436W        W70300  20.457  18.497  24.355 -0.4695  0.0341  0.0810
69437W        W70301  22.400  16.612  27.977  0.0584  0.3339  0.2159
69438W        W70302  22.832  12.562  28.504 -0.0265  0.3513  0.0893
69439W        W70303  26.279  16.542   0.784  0.2473 -0.2882  0.2917
69440W        W70304  22.681  14.717  28.326 -0.1825 -0.3209  0.0697
69441W        W70305  23.099  15.818  26.963  0.2194  0.2539  0.2676
69442W        W70306  24.939  12.822  28.280  0.1935 -0.0353 -0.1654
69443W        W70307  22.994  18.597  25.189  0.0232 -0.1899 -0.0540
69444W        W70308  24.977  15.092  28.120  0.3419 -0.1315 -0.1647
69445W        W70309  20.576  17.592  25.922  0.0886 -0.0631 -0.0125
69446W        W70310  24.189  14.326  28.404 -0.0141  0.1296 -0.1944
69447W        W70311  29.131  16.966  24.509  0.1679 -0.0814  0.2779
69448W        W70312  21.102  15.375  27.498 -0.1070  0.0874 -0.0510
69449W        W70313  25.006  15.127  28.649 -0.0560  0.3017 -0.2114
69450W        W70314  22.247  18.258  25.472 -0.3132 -0.0236  0.0332
69451W        W70315  23.639  15.019  28.414 -0.0013  0.0988 -0.0782
69452W        W70316  22.898  15.478  28.236  0.0985 -0.0455  0.2182
69453W        W70317  25.839  17.446  25.515  0.1187 -0.0798  0.0657
69454W        W70318  23.161  16.642  25.962 -0.3988 -0.1664 -0.0963
69455W        W70319  24.534  18.701  28.792  0.1587  0.1799  0.2855
69456W        W70320  22.071  13.780  27.479  0.1470  0.1359 -0.3587
69457W        W70321  23.928  16.302  28.052  0.1501 -0.2016  0.0341
69458W        W70322  24.962  16.425  29.031  0.0948 -0.2166  0.0687
69459W        W70323  24.207  18.908  26.144 -0.0248 -0.0766  0.2614
69460W        W70324  27.259  15.226  25.613 -0.0317  0.1234 -0.1215
69461W        W70325  24.370  15.908  26.937 -0.0857 -0.0447 -0.0828
69462W        W70326  25.281  18.910  28.290 -0.0278 -0.2294 -0.1039
69463W        W70327  25.419  14.977   1.135  0.1601  0.0195 -0.1969
69464W        W70328  23.004  17.638  26.999  0.3013 -0.3302 -0.0763
69465W        W70329  27.070  14.882   3.143 -0.1386  0.0553 -0.0128
69466W        W70330  25.843  16.206  28.744  0.0314  0.1224  0.0588
69467W        W70331  25.120  19.708  28.913 -0.0086 -0.1343 -0.0122
69468W        W70332  21.787  16.164  25.672  0.2311  0.2231  0.1448
69469W        W70333  24.996  14.622  26.452 -0.5090  0.0777  0.0882
69470W        W70334  23.739  11.683  28.853  0.4602 -0.0166  0.0251
69471W        W70335  23.868  17.888   0.631 -0.0716 -0.0516  0.1373
69472W        W70336  25.999  14.603  27.770  0.1715 -0.0619 -0.1705
69473W        W70337  22.829  17.097  24.695  0.0905  0.2195  0.3154
69474W        W70338  25.172  16.363  27.907  0.1694  0.0723  0.0473
69475W        W70339  24.048  14.045  27.970 -0.1155 -0.1859  0.2226
69476W        W70340  23.805  16.960   3.417 -0.1597 -0.1396 -0.0744
69477W        W70341  23.088  13.988  28.355 -0.0111 -0.2573  0.0503
69478W        W70342  21.745  15.807  26.025 -0.1322 -0.2748  0.0647
69479W        W70343  24.154  16.498   1.248  0.1460 -0.1797  0.1402
69480W        W70344  24.896  15.718  26.929  0.1335  0.0970 -0.3175
69481W        W70345  27.833  14.698  27.544  0.2113  0.1174  0.1605
69482W        W70346  23.581  15.586   1.137 -0.0706 -0.1576  0.1255
69483W        W70347  24.751  16.870  29.081  0.3264 -0.1059  0.2692
69484W        W70348  26.707  18.542  27.856 -0.2689  0.0965  0.1747
69485W        W70349  24.904  16.435  25.655  0.0590 -0.1979  0.0139
69486W        W70350  22.104  14.721  28.536 -0.1394  0.1334 -0.0409
69487W        W70351  21.481  13.544   0.053 -0.3292 -0.1451  0.0987
69488W        W70352  22.479  15.291  27.605 -0.1426  0.2474 -0.2483
69489W        W70353  24.695  12.511  27.375  0.1628  0.0613  0.3004
69490W        W70354  22.558  15.821  25.162  0.3232  0.1083 -0.1044
69491W        W70355  25.609  16.273   1.188  0.1329  0.2665  0.3157
69492W        W70356  21.598  17.467  26.551  0.0137  0.0804 -0.1041
69493W        W70357  27.123  18.595  26.411 -0.0697 -0.1674  0.0778
69494W        W70358  21.891  14.895  26.531 -0.0122  0.1980  0.1972
69495W        W70359  24.006  16.897  27.343 -0.0096  0.0610 -0.2676
69496W        W70360  25.307  16.998  28.555 -0.3370 -0.0194 -0.1792
69497W        W70361  24.568  17.341   0.030  0.0936 -0.0170  0.1439
69498W        W70362  24.033  16.499  27.077  0.1983  0.1728 -0.0762
69499W        W70363  21.958  15.820  26.493  0.0651  0.0145  0.0551
69500W        W70364  29.081  17.388  25.887 -0.0231  0.1729 -0.1901
69501W        W70365  24.672  16.240  26.717  0.0267  0.0687 -0.1808
69502W        W70366  21.959  12.565  27.410  0.1779 -0.1717 -0.3672
69503W        W70367  25.489  14.883   0.516  0.1261  0.3102  0.0621
69504W        W70368  23.757  13.834  25.970  0.1506 -0.0357 -0.1038
69505W        W70369  22.372  13.509  27.150  0.1477 -0.0480 -0.0750
69506W        W70370  22.092  15.350   1.766 -0.0095  0.2001  0.1341
69507W        W70371  27.639  18.733  26.893 -0.0196 -0.0966  0.2120
69508W        W70372  22.714  13.895  28.659  0.2591  0.1997  0.1868
69509W        W70373  25.171  17.068  26.226  0.2026 -0.0519  0.1781
69510W        W70374  27.186  18.955   2.880  0.1323  0.1639 -0.0547
69511W        W70375  23.037  16.131  23.915  0.0158  0.0299 -0.0849
69512W        W70376  24.974  17.746  27.460 -0.1169  0.0410  0.1906
69513W        W70377  23.578  14.105  28.397 -0.0045 -0.3473  0.1163
69514W        W70378  28.613  15.814  26.423  0.0541 -0.2949 -0.3096
69515W        W70379  22.461  15.167  27.120  0.1593  0.2806 -0.1557
69516W        W70380  22.851  15.507   0.421  0.2078  0.2790  0.1417
69517W        W70381  23.106  13.519   0.471 -0.2575  0.0279  0.2022
69518W        W70382  23.411  15.131  26.230 -0.0854  0.2557  0.1076
69519W        W70383  24.805  17.523  26.730  0.0917 -0.0885  0.1251
69520W        W70384  24.348  14.710   1.570  0.0641 -0.0472  0.0262
69521W        W70385  22.250  13.967   0.849 -0.0110 -0.1694  0.0180
69522W        W70386  21.774  14.275   3.461 -0.3508 -0.2186 -0.0192
69523W        W70387  23.579  15.437  27.072 -0.1890  0.0582 -0.0593
69524W        W70388  21.461  15.411  28.427  0.0020 -0.2925  0.2276
69525W        W70389  22.957  17.024  27.213 -0.1186  0.1036 -0.0871
69526W        W70390  25.241  15.363  27.031 -0.1034  0.0067 -0.1915
69527W        W70391  22.435  18.252  27.150  0.1691  0.0130 -0.0148
69528W        W70392  21.002  18.211  26.740 -0.3649  0.0354 -0.1895
69529W        W70393  28.309  17.266  25.589 -0.1507 -0.0387  0.0557
69530W        W70394  25.578  14.519   2.331  0.0462 -0.0305  0.2259
69531W        W70395  25.867  16.228   0.222  0.0542 -0.0181  0.1096
69532W        W70396  21.177  15.169  28.841 -0.2624 -0.2058  0.0556
69533W        W70397  23.209  14.575  27.101  0.1170 -0.2139  0.1353
69534W        W70398  24.474  17.306  25.761  0.0279 -0.1713  0.3271
69535W        W70399  23.551  13.956  27.256 -0.0120  0.0432 -0.3070
69536W        W70400  20.906  15.629  26.644  0.2218 -0.0785  0.0392
69537W        W70401  23.637  12.765  28.553  0.1940 -0.3253  0.1002
69538W        W70402  20.932  17.524  27.282 -0.1422 -0.1568 -0.2542
69539W        W70403  25.651  15.262  26.623 -0.0455  0.1978 -0.1408
69540W        W70404  23.765  13.050   0.778  0.0696  0.1226 -0.2582
69541W        W70405  24.304  13.347  27.235  0.2359  0.2698  0.1839
69542W        W70406  24.090  15.284  28.456 -0.1424 -0.0363  0.1867
69543W        W70407  22.883  14.969  27.364  0.3211 -0.3986  0.0697
69544W        W70408  22.872  18.234  27.783  0.2245 -0.0675  0.0385
69545W        W70409  22.273  18.945  21.922 -0.2113 -0.1917  0.0479
69546W        W70410  22.488  13.756   0.460  0.3455 -0.0275 -0.0268
69547W        W70411  24.046  17.678  27.367 -0.1063 -0.0028  0.0625
69548W        W70412  22.130  11.417  25.182 -0.0258  0.0780 -0.0989
69549W        W70413  27.250  16.713  27.216  0.2096 -0.1800 -0.0751
69550W        W70414  25.072  18.348  27.969  0.1139 -0.1327  0.1539
69551W        W70415  23.605  17.129  27.486  0.0024 -0.0245 -0.3523
69552W        W70416  23.601  13.717   1.713  0.0797 -0.2038  0.0032
69553W        W70417  26.333  13.370   0.017  0.0951 -0.0536 -0.2452
69554W        W70418  22.044  18.351  25.026  0.1956 -0.0296 -0.2530
69555W        W70419  24.683  11.180  27.601 -0.1632  0.2367  0.0497
69556W        W70420  24.234  14.578   1.099 -0.1529 -0.3605 -0.0991
69557W        W70421  23.267  15.078  26.985 -0.0222 -0.1076  0.1343
69558W        W70422  26.495  16.764  28.233 -0.1361  0.1670 -0.1521
69559W        W70423  22.953  17.104  26.673  0.0527 -0.0599 -0.0810
69560W        W70424  22.254  18.132   0.596  0.1065 -0.2625  0.0077
69561W        W70425  21.217  14.494  25.455 -0.0787 -0.1922  0.3604
69562W        W70426  24.840  14.925  26.826 -0.2398 -0.0647 -0.1075
69563W        W70427  26.277  17.777   0.513  0.2598  0.0093 -0.0351
69564W        W70428  22.601  16.562  24.926 -0.2496 -0.0197  0.0904
69565W        W70429  22.818  18.052  26.156  0.0005  0.1814  0.1666
69566W        W70430  25.846  15.272  24.761 -0.0218  0.0461 -0.0156
69567W        W70431  22.852  15.033  27.916  0.0437  0.0699 -0.1343
69568W        W70432  24.070  18.297  26.698  0.1178  0.0228 -0.0642
69569W        W70433  21.220  15.562  24.010  0.0085  0.0923  0.2615
69570W        W70434  23.379  14.697  28.729 -0.2611  0.1187 -0.2415
69571W        W70435  22.890  12.729  25.979  0.0410  0.0880  0.1056
69572W        W70436  20.311  17.074  23.737  0.3311  0.0148 -0.0734
69573W        W70437  26.574  17.760  27.148 -0.0299 -0.1864 -0.2059
69574W        W70438  24.484  13.996  25.434  0.2199 -0.0710  0.4143
69575W        W70439  23.542  14.642  26.680 -0.4363  0.0768 -0.2517
69576W        W70440  24.401  14.942  27.061  0.1100 -0.0918 -0.2552
69577W        W70441  25.523  17.328  28.935  0.1330 -0.3657 -0.1236
69578W        W70442  24.430  16.425  29.034  0.0609 -0.1993 -0.1598
69579W        W70443  24.218  17.577  27.906  0.1959 -0.1379  0.1304
69580W        W70444  25.413  16.765  28.147 -0.1209 -0.0855  0.1547
69581W        W70445  22.693  17.411   0.795 -0.0258  0.3738  0.1058
69582W        W70446  26.531  16.777  27.698  0.0110 -0.1797  0.0473
69583W        W70447  24.137  17.713  28.482 -0.1924 -0.1962 -0.1979
69584W        W70448  20.707  13.179  27.566  0.0679 -0.0084  0.2082
69585W        W70449  21.394  16.833  26.201 -0.2554  0.1997  0.1853
69586W        W70450  25.355  14.300   0.604 -0.1889  0.0040  0.0006
69587W        W70451  22.943  11.345   0.962  0.0847  0.1203  0.1852
69588W        W70452  22.599  17.439  25.460 -0.4237 -0.0478  0.1439
69589W        W70453  22.280  16.873  25.487  0.1690 -0.2605 -0.0578
69590W        W70454  22.493  16.470   0.922 -0.1266  0.1048 -0.3222
69591W        W70455  22.089  16.464  25.137 -0.0597 -0.1680  0.0680
69592W        W70456  24.428  15.547  25.396  0.3068  0.0407  0.3945
69593W        W70457  25.758  16.580  26.041 -0.1450 -0.2458 -0.7032
69594W        W70458  22.223  16.877  24.901  0.1822 -0.0184  0.2187
69595W        W70459  24.932  15.878  27.828  0.0260 -0.2191 -0.2954
69596W        W70460  25.023  15.351  26.621  0.3270 -0.2686 -0.0578
69597W        W70461  27.077  18.073  27.556  0.1887 -0.0151  0.3648
69598W        W70462  23.343  17.432  25.813 -0.3136  0.1906 -0.1659
69599W        W70463  21.380  14.474  27.696  0.0821  0.1620  0.1330
69600W        W70464  25.081  13.079  25.188  0.0683  0.0288 -0.1349
69601W        W70465  24.316  19.191   0.105  0.1947  0.0965  0.2004
69602W        W70466  22.973  15.982  28.638  0.0752 -0.0130 -0.0473
69603W        W70467  23.241  15.344   0.787 -0.3824  0.1629 -0.1882
69604W        W70468  21.601  17.638  27.975  0.1132  0.1194  0.1625
69605W        W70469  21.397  17.689  24.896 -0.5478  0.4047  0.1579
69606W        W70470  22.981  16.491  28.799 -0.1345 -0.0333  0.0642
69607W        W70471  22.865  17.039  25.772 -0.2728 -0.1752  0.0810
69608W        W70472  22.775  14.668  24.902 -0.1971 -0.2308  0.1539
69609W        W70473  23.664  17.371  25.461 -0.0336  0.2231 -0.3182
69610W        W70474  27.313  19.873  27.553 -0.0752 -0.0385 -0.0250
69611W        W70475  28.048  18.416  26.765 -0.2065  0.0703 -0.1044
69612W        W70476  24.818  16.849  25.946  0.0038 -0.0883  0.1253
69613W        W70477  24.959  16.623  27.121  0.1956  0.3675 -0.1171
69614W        W70478  25.492  14.055  27.059 -0.2096 -0.2687 -0.0472
69615W        W70479  21.126  18.131  21.514  0.0349  0.0015 -0.0990
69616W        W70480  22.950  11.421  27.912 -0.1809  0.0420 -0.1799
69617W        W70481  25.890  16.320  25.138 -0.3923 -0.1148  0.3880
69618W        W70482  24.310  16.685  27.811 -0.0065 -0.2228 -0.0228
69619W        W70483  24.041  17.157  27.795 -0.0392  0.1189 -0.2972
69620W        W70484  24.581  13.957   0.456  0.1310 -0.2335  0.0951
69621W        W70485  22.047  17.691  26.466  0.2414 -0.5200 -0.1134
69622W        W70486  25.214  18.372   0.508  0.0003  0.0424 -0.3979
69623W        W70487  23.721  15.318  27.542  0.1394  0.0952  0.0479
69624W        W70488  22.988  17.540   1.826 -0.0560  0.1385 -0.1042
69625W        W70489  24.584  18.306  28.206 -0.0153 -0.0332  0.1693
69626W        W70490  21.476  18.503  25.362 -0.0144 -0.1079 -0.1337
69627W        W70491  23.552  17.114  26.602 -0.2131 -0.0110 -0.1403
69628W        W70492  25.413  16.457  28.750 -0.0407  0.0200  0.4112
69629W        W70493  23.929  19.233  28.977  0.1875  0.0500 -0.0477
69630W        W70494  25.905  14.176   0.551 -0.1451  0.2146 -0.0676
69631W        W70495  23.368  16.491  25.325 -0.0480  0.0497  0.1890
69632W        W70496  21.853  16.673   0.097 -0.0387  0.0898  0.2714
69633W        W70497  23.130  18.111  26.530 -0.1932  0.0678  0.1889
69634W        W70498  27.804  15.967   0.227 -0.0571 -0.2640 -0.3126
69635W        W70499  25.872  17.641   1.912 -0.1053  0.2547  0.0599
69636W        W70500  24.900  14.461  25.609 -0.0574  0.1671 -0.1299
69637W        W70501  22.904  16.687  28.036 -0.4097  0.3306 -0.0125
69638W        W70502  23.173  16.634  27.032 -0.1670  0.0428  0.1978
69639W        W70503  22.238  16.430  26.188  0.3994  0.1650 -0.0199
69640W        W70504  22.039  16.574   0.525  0.0674  0.0012  0.2027
69641W        W70505  23.464  16.305   0.708  0.0476 -0.1711  0.1287
69642W        W70506  23.270  17.258   0.246 -0.5198  0.2823  0.3166
69643W        W70507  23.908  18.517  25.634  0.2221 -0.0086  0.2567
69644W        W70508  23.634  18.065  26.464  0.0141  0.0397  0.0189
69645W        W70509  21.184  22.404   6.113  0.0029  0.1936  0.2426
69646W        W70510  21.311  19.613   2.593  0.1678  0.0418  0.2736
69647W        W70511  23.250  21.751  28.434 -0.2121  0.2423 -0.3674
69648W        W70512  25.717  20.753   4.260  0.1098  0.1684 -0.0876
69649W        W70513  22.805  22.254   3.396 -0.2172  0.0018  0.1624
69650W        W70514  22.335  20.802   1.223 -0.0221 -0.1617  0.2557
69651W        W70515  23.489  20.038   2.363  0.1090  0.1071  0.1290
69652W        W70516  24.671  19.514  29.125  0.0871  0.0551 -0.0625
69653W        W70517  23.339  20.463   2.561 -0.3378  0.3187 -0.1601
69654W        W70518  20.938  16.113   3.867 -0.0877  0.0240 -0.1762
69655W        W70519  23.178  16.604   6.368 -0.1921  0.2561 -0.1813
69656W        W70520  27.264  17.102   1.448  0.0756  0.0537 -0.0559
69657W        W70521  26.208  19.072  29.079  0.0019  0.1837 -0.1412
69658W        W70522  25.932  17.392   5.096  0.1696  0.0608 -0.3547
69659W        W70523  20.365  19.409   3.008  0.3672  0.1423 -0.1327
69660W        W70524  19.280  22.126   1.881 -0.0625 -0.1640 -0.1189
69661W        W70525  25.404  19.002  27.504 -0.1133  0.1481  0.1272
69662W        W70526  20.592  16.964   2.068  0.1492  0.0495 -0.0817
69663W        W70527  22.727  19.169   6.902 -0.0501 -0.0931 -0.2372
69664W        W70528  26.104  18.175   2.622  0.1306  0.2547  0.2410
69665W        W70529  23.601  19.585   2.182 -0.1040 -0.1425 -0.0898
69666W        W70530  25.269  19.834   1.951 -0.0423  0.0060  0.0154
69667W        W70531  23.788  21.095   2.859 -0.0660 -0.0531 -0.1589
69668W        W70532  21.528  20.303   2.932 -0.1779  0.1717  0.3102
69669W        W70533  21.349  19.143   2.433 -0.1448 -0.1416  0.1336
69670W        W70534  21.637  20.508   2.464  0.0761 -0.0131 -0.0110
69671W        W70535  26.256  19.994   2.416 -0.2139  0.1125  0.0645
69672W        W70536  21.621  19.306   2.915 -0.4580  0.1394  0.0690
69673W        W70537  20.938  18.414   3.263 -0.2855  0.0707 -0.0586
69674W        W70538  24.682  18.557   3.437  0.2482  0.1391 -0.1271
69675W        W70539  22.604  17.778   2.137 -0.0795  0.0940 -0.2348
69676W        W70540  27.607  22.504   2.651  0.1777  0.1805  0.0191
69677W        W70541  22.304  18.073   4.740 -0.0939 -0.0604 -0.3117
69678W        W70542  24.663  19.575   3.765 -0.0278  0.0852  0.1772
69679W        W70543  20.661  18.532   2.762 -0.3411 -0.0636 -0.0716
69680W        W70544  24.648  19.703   5.466  0.3064 -0.1184  0.2893
69681W        W70545  21.536  18.377   0.678  0.2702 -0.0195 -0.0934
69682W        W70546  21.050  20.193   2.770  0.1083  0.1667  0.0046
69683W        W70547  24.009  19.297   1.100  0.1551 -0.1433  0.2800
69684W        W70548  25.845  19.458   3.132 -0.0362 -0.1743  0.0624
69685W        W70549  28.337  19.324   1.473 -0.1122 -0.0513  0.0267
69686W        W70550  26.760  21.398   2.553 -0.0864  0.0297 -0.2669
69687W        W70551  22.479  21.074   3.531  0.2197 -0.1776 -0.0827
69688W        W70552  24.673  20.808   2.828 -0.1532  0.0076  0.0388
69689W        W70553  24.849  21.505   0.025  0.1055 -0.0197  0.2910
69690W        W70554  23.499  22.980   1.685 -0.0147  0.1246 -0.3512
69691W        W70555  22.855  20.541   2.568 -0.1142 -0.1076 -0.0953
69692W        W70556  24.097  19.339   3.063 -0.0331  0.2173 -0.2113
69693W        W70557  25.391  19.490   0.989  0.0250 -0.0319  0.1306
69694W        W70558  26.843  19.861  26.090  0.0337 -0.1075 -0.3145
69695W        W70559  22.725  20.693   3.313  0.1433 -0.0818  0.0511
69696W        W70560  20.711  21.473   0.546 -0.0276 -0.1952  0.1435
69697W        W70561  21.311  23.195   1.201 -0.1434 -0.1813 -0.0267
69698W        W70562  24.705  20.720   0.429 -0.0563 -0.1870 -0.0910
69699W        W70563  24.065  19.438  28.470  0.1665  0.1046 -0.0042
69700W        W70564  22.473  20.422   0.134 -0.1228 -0.0000  0.2485
69701W        W70565  21.144  20.775   1.798 -0.1176 -0.2934  0.1393
69702W        W70566  25.002  17.855  28.864 -0.0871 -0.0981 -0.1559
69703W        W70567  21.041  19.138   3.906 -0.2006  0.3757 -0.2571
69704W        W70568  24.915  19.262  28.342 -0.0810  0.0619  0.0501
69705W        W70569  24.822  18.865   2.564  0.1665 -0.0278  0.0892
69706W        W70570  21.742  18.735   3.600 -0.3060 -0.0021 -0.0140
69707W        W70571  22.249  18.526   4.895 -0.0480 -0.1859 -0.0635
69708W        W70572  21.964  19.495   5.348 -0.0137  0.1618 -0.2341
69709W        W70573  25.327  18.383   4.244 -0.2738  0.1210  0.0824
69710W        W70574  25.240  18.650   2.707  0.1880 -0.2250 -0.1701
69711W        W70575  23.033  21.132   0.751 -0.4473 -0.4445 -0.1859
69712W        W70576  23.828  17.610   1.073  0.1837 -0.3082 -0.2335
69713W        W70577  23.596  20.451  28.378 -0.1603 -0.3411 -0.0830
69714W        W70578  25.995  19.978  27.986  0.2149 -0.1940 -0.0271
69715W        W70579  26.592  19.549   2.504 -0.1077 -0.2014 -0.3142
69716W        W70580  25.009  18.853   0.585 -0.1837 -0.0985 -0.0567
69717W        W70581  26.337  20.580   2.422 -0.1487  0.0277 -0.0757
69718W        W70582  23.141  19.939   3.867  0.1946 -0.0912  0.2365
69719W        W70583  24.308  21.032   0.543  0.0659 -0.3193  0.2268
69720W        W70584  24.947  20.343   2.605 -0.1632  0.3725  0.3422
69721W        W70585  23.587  16.828   0.727  0.0613  0.0239 -0.2393
69722W        W70586  22.052  22.117   2.598  0.1734  0.3818 -0.0348
69723W        W70587  24.450  19.218   2.746 -0.0346 -0.3866 -0.0469
69724W        W70588  25.283  20.208   0.875 -0.0072  0.3304  0.1209
69725W        W70589  23.890  20.328   2.535 -0.2713 -0.3853 -0.1166
69726W        W70590  20.984  19.927   5.966 -0.0085 -0.0539 -0.1237
69727W        W70591  24.369  18.070   0.584 -0.1412  0.2451  0.1970
69728W        W70592  21.046  18.941   3.340 -0.2488  0.0683 -0.0344
69729W        W70593  21.977  17.750   4.758  0.1606  0.0036 -0.2477
69730W        W70594  24.861  17.927  28.386  0.5160 -0.3393 -0.5687
69731W        W70595  27.027  20.194   3.071  0.3467  0.1292  0.0924
69732W        W70596  26.235  17.814   5.081 -0.0621  0.0220  0.1189
69733W        W70597  25.279  21.561   4.124  0.2382  0.1187  0.2404
69734W        W70598  25.067  19.438   5.713  0.2292  0.1179  0.0911
69735W        W70599  25.412  19.803   0.574 -0.3499 -0.2149 -0.0099
69736W        W70600  25.013  18.566   2.220 -0.0061 -0.1288  0.0675
69737W        W70601  25.784  20.190  28.969  0.0241  0.1277  0.0500
69738W        W70602  25.029  20.214   1.705  0.0341 -0.0070  0.0700
69739W        W70603  22.634  17.466   3.460 -0.1601  0.0281  0.0328
69740W        W70604  24.823  18.402   1.783 -0.3559 -0.0717 -0.2621
69741W        W70605  24.602  19.311   0.540  0.2761  0.4061  0.3269
69742W        W70606  23.605  20.226   5.836 -0.0362  0.1479 -0.1086
69743W        W70607  24.697  18.536   0.905  0.0034  0.0923  0.0415
69744W        W70608  26.725  17.230   1.731  0.0914 -0.3308 -0.0098
69745W        W70609  25.450  19.990   2.434  0.3162  0.1216 -0.0805
69746W        W70610  18.880  22.092   3.107 -0.0579  0.3076  0.1360
69747W        W70611  23.536  18.579  28.291  0.2166  0.2350  0.3326
69748W        W70612  26.461  17.431   1.386  0.1572 -0.0281  0.3485
69749W        W70613  25.601  16.999   1.884 -0.2139  0.2058 -0.2767
69750W        W70614  22.766  18.049   2.890 -0.3335  0.0421 -0.0540
69751W        W70615  24.167  22.075   2.575  0.3172  0.0127 -0.1681
69752W        W70616  24.285  18.881   2.417 -0.1920  0.1958 -0.1786
69753W        W70617  22.982  15.620   2.798  0.0077 -0.1126 -0.2646
69754W        W70618  21.076  20.632   3.205 -0.2697  0.3006  0.1093
69755W        W70619  20.662  19.232   2.561  0.0904 -0.0504 -0.1271
69756W        W70620  21.131  21.262   2.620  0.0079 -0.1235  0.2876
69757W        W70621  23.921  20.625   1.636 -0.1593  0.2273  0.0064
69758W        W70622  23.621  20.926   3.920  0.1493 -0.0027  0.0210
69759W        W70623  25.519  20.861   2.134 -0.0447  0.2101 -0.1862
69760W        W70624  21.274  19.956   3.528  0.0152  0.1781 -0.3027
69761W        W70625  23.950  17.415   4.918  0.0724 -0.1019  0.1430
69762W        W70626  23.940  19.792   1.873  0.1940  0.1372 -0.0428
69763W        W70627  25.071  20.384   3.472 -0.1890 -0.0914  0.1381
69764W        W70628  20.695  18.828   3.763 -0.0266  0.0721  0.1284
69765W        W70629  25.978  19.284   1.686  0.2850 -0.1816 -0.1744
69766W        W70630  26.693  20.688   2.986  0.1587 -0.0748 -0.0879
69767W        W70631  24.259  20.746   3.082  0.1422  0.2302 -0.2222
69768W        W70632  28.498  18.458   0.349 -0.0423 -0.0725  0.1367
69769W        W70633  23.796  18.783   0.611  0.1437 -0.1558  0.1742
69770W        W70634  25.504  17.885   1.229  0.2020  0.0128  0.0579
69771W        W70635  22.366  20.761   2.543  0.3470  0.1462  0.0203
69772W        W70636  23.944  19.134   4.279  0.0450 -0.4557 -0.4063
69773W        W70637  25.162  20.933   3.505  0.1675  0.0220  0.1550
69774W        W70638  24.774  19.333   1.485  0.0427  0.1984  0.0512
69775W        W70639  23.770  20.620   2.983  0.1978 -0.2939 -0.0868
69776W        W70640  24.806  19.322   2.344  0.1421  0.0862  0.0399
69777W        W70641  23.670  20.451   4.469  0.1165 -0.1678 -0.1149
69778W        W70642  28.734  16.963   0.874 -0.0988 -0.0559 -0.0338
69779W        W70643  24.248  17.305   1.258 -0.0224 -0.2828 -0.0032
69780W        W70644  21.853  17.238   3.833  0.0695 -0.1464 -0.4019
69781W        W70645  23.124  19.662   2.278  0.1256 -0.2261 -0.5777
69782W        W70646  26.463  16.480   1.850  0.0623  0.2132  0.2137
69783W        W70647  23.242  21.447   2.460  0.1588 -0.0726  0.3750
69784W        W70648  22.612  21.863   2.012  0.1252 -0.0766 -0.2871
69785W        W70649  24.717  17.912   1.617 -0.0761  0.0316 -0.3540
69786W        W70650  24.942  19.898   2.396 -0.0393 -0.1364 -0.2991
69787W        W70651  22.121  21.661   1.611 -0.0250  0.0709  0.4280
69788W        W70652  23.284  19.421   1.480  0.1064 -0.2114  0.1036
69789W        W70653  25.017  18.864   1.811  0.0480  0.1130 -0.0710
69790W        W70654  23.093  18.919   1.360  0.1752  0.1117  0.1522
69791W        W70655  23.485  17.271   4.572  0.3159  0.1421  0.2936
69792W        W70656  24.593  23.810   1.906  0.0554  0.1595  0.2169
69793W        W70657  22.539  19.014   3.278  0.1739 -0.0901  0.3388
69794W        W70658  23.003  17.712   3.305  0.1801 -0.1284 -0.0602
69795W        W70659  25.668  20.554   3.090 -0.0367 -0.1164  0.3567
69796W        W70660  25.160  18.109   1.508  0.3732 -0.1256  0.1389
69797W        W70661  21.285  21.281   1.765 -0.0021  0.2615 -0.1551
69798W        W70662  22.434  16.956   1.606 -0.1305  0.1850 -0.0641
69799W        W70663  22.653  16.957   1.065  0.3030  0.2188 -0.2792
69800W        W70664  26.536  19.011   2.225  0.1900  0.1513  0.0856
69801W        W70665  19.773  18.884   3.734  0.0335  0.0871 -0.1275
69802W        W70666  25.166  18.036   2.070 -0.1258 -0.0566 -0.0575
69803W        W70667  22.549  20.306  27.309  0.0922  0.1344 -0.0570
69804W        W70668  22.007  19.154   3.366  0.1326 -0.0456  0.0544
69805W        W70669  25.538  19.081   3.835  0.0198  0.1327  0.2644
69806W        W70670  20.252  20.932   2.691  0.0381  0.0844  0.2223
69807W        W70671  22.680  18.763   3.700 -0.1712  0.3528  0.0442
69808W        W70672  23.816  19.456   4.617  0.0036 -0.0127  0.1162
69809W        W70673  23.171  18.594   4.995 -0.0375 -0.1028  0.1675
69810W        W70674  21.696  19.294   4.861  0.2014  0.0849  0.6263
69811W        W70675  19.935  17.983   1.522  0.2347 -0.2579 -0.0227
69812W        W70676  24.684  20.246   0.438 -0.0246 -0.1111  0.1770
69813W        W70677  25.400  19.231   5.311  0.0904  0.1152 -0.0225
69814W        W70678  23.870  20.199  28.011 -0.2106  0.2343 -0.3077
69815W        W70679  25.828  17.675   2.641  0.1684 -0.0369 -0.1521
69816W        W70680  25.513  16.589   4.409 -0.0223  0.0032  0.0967
69817W        W70681  23.213  19.868   3.240 -0.0259  0.1238  0.0536
69818W        W70682  25.824  18.850  27.681 -0.1042 -0.2762  0.0351
69819W        W70683  23.431  18.103   3.014  0.1326 -0.0606  0.2166
69820W        W70684  25.581  18.879   1.822 -0.1514 -0.2397  0.2229
69821W        W70685  22.654  18.996   2.565 -0.3925 -0.1538  0.0975
69822W        W70686  24.492  21.713  28.914  0.0157  0.0656  0.2232
69823W        W70687  21.429  19.881   0.175 -0.2497 -0.1457  0.4500
69824W        W70688  22.787  19.507   0.809  0.2666 -0.0268 -0.1491
69825W        W70689  21.760  22.884   1.071  0.1151 -0.1596  0.0144
69826W        W70690  25.213  19.105   1.369  0.1378  0.0026  0.1595
69827W        W70691  27.020  20.793   0.572 -0.0809 -0.1277 -0.2330
69828W        W70692  20.646  19.012   1.874  0.1382 -0.0106 -0.2209
69829W        W70693  22.061  16.195   0.036 -0.0071  0.0887  0.2100
69830W        W70694  25.596  21.131   3.081  0.1963 -0.1549  0.1320
69831W        W70695  24.717  18.146   1.228  0.2631  0.1266 -0.2106
69832W        W70696  24.151  18.662  28.061  0.1135  0.0140  0.1615
69833W        W70697  23.355  18.472   3.442  0.0608  0.2796 -0.2284
69834W        W70698  23.461  17.369   4.101 -0.1653 -0.1327  0.3611
69835W        W70699  23.556  19.372  28.221 -0.1563 -0.0213  0.1129
69836W        W70700  22.867  21.368   1.865  0.2449  0.2711  0.2211
69837W        W70701  22.287  19.084   3.831 -0.1495 -0.0707 -0.0904
69838W        W70702  25.736  17.642   3.894 -0.0064 -0.5373 -0.3206
69839W        W70703  22.161  16.759   2.521 -0.3035 -0.0618  0.0200
69840W        W70704  23.222  15.847   0.549 -0.0279 -0.0765  0.0560
69841W        W70705  27.329  17.449   1.073  0.0379  0.0105 -0.0707
69842W        W70706  21.282  18.643   7.132  0.2088 -0.3174  0.1684
69843W        W70707  24.204  17.833   1.509  0.1306 -0.1048  0.3011
69844W        W70708  25.362  15.822   0.966  0.1024  0.2928  0.0366
69845W        W70709  21.657  20.012   2.391 -0.1457 -0.2168  0.1725
69846W        W70710  25.327  17.990   3.894  0.0946 -0.1771 -0.3413
69847W        W70711  25.463  19.327  28.069  0.0329  0.1018 -0.1734
69848W        W70712  22.703  18.292   4.037 -0.0709  0.0468  0.1817
69849W        W70713  25.295  20.557   4.073  0.0737  0.3844 -0.0148
69850W        W70714  24.662  18.491   0.306 -0.0854 -0.0534  0.2503
69851W        W70715  23.195  20.780   4.138 -0.2579 -0.0736 -0.0321
69852W        W70716  22.731  21.082   2.266 -0.2936  0.0524 -0.1034
69853W        W70717  22.090  21.583   0.468  0.1819  0.2510 -0.1249
69854W        W70718  21.115  22.505  28.786 -0.1485 -0.1030  0.0624
69855W        W70719  21.137  19.224   2.841  0.2571  0.0480  0.1946
69856W        W70720  23.614  17.397   3.609  0.1011  0.0324  0.0305
69857W        W70721  25.006  19.427   3.424 -0.3616 -0.1855 -0.1436
69858W        W70722  26.213  18.983   4.289 -0.1063  0.0215  0.1737
69859W        W70723  27.699  19.339   0.919  0.1603  0.2678  0.1207
69860W        W70724  27.422  18.487   0.246 -0.0753  0.1178 -0.0176
69861W        W70725  21.468  18.944   3.152 -0.2670 -0.0030  0.0948
69862W        W70726  23.956  20.234   3.584  0.0316 -0.1674  0.1622
69863W        W70727  25.105  18.215   5.258 -0.1558 -0.2550  0.1395
69864W        W70728  21.911  21.068   2.660  0.2986  0.2240  0.3978
69865W        W70729  26.193  19.975   3.783 -0.3679 -0.3270 -0.3196
69866W        W70730  23.219  18.521   1.644 -0.0648  0.2833 -0.3919
69867W        W70731  22.791  20.978   2.787 -0.0037  0.0431 -0.1578
69868W        W70732  24.927  19.245   0.963 -0.3686  0.1403  0.1191
69869W        W70733  24.918  19.078  27.335 -0.0373  0.2378 -0.0974
69870W        W70734  21.450  19.170   4.361 -0.1415 -0.1761 -0.0108
69871W        W70735  23.066  19.059   3.491  0.1319 -0.0836 -0.1718
69872W        W70736  25.198  17.643   2.406 -0.0224 -0.1450  0.1143
69873W        W70737  24.434  22.055  28.372 -0.3422  0.0416  0.0546
69874W        W70738  25.150  19.967   4.199 -0.1744 -0.0093 -0.3927
69875W        W70739  24.217  17.031   1.700 -0.1750  0.0745 -0.3424
69876W        W70740  23.832  18.971   3.419 -0.1112 -0.0106  0.1232
69877W        W70741  22.769  22.167   1.322  0.2317  0.1318  0.2176
69878W        W70742  25.689  18.999   1.365  0.1017  0.0851  0.1444
69879W        W70743  21.205  18.402   5.101 -0.0396 -0.3104  0.0254
69880W        W70744  24.353  21.370   3.716  0.1876 -0.2361 -0.4717
69881W        W70745  25.128  18.620   1.357  0.2015  0.0219  0.2289
69882W        W70746  24.932  17.327   5.068 -0.1615  0.1890  0.0504
69883W        W70747  24.253  20.602   0.270  0.0272 -0.2701  0.3663
69884W        W70748  25.428  20.527   2.577 -0.0214 -0.0519  0.2396
69885W        W70749  24.412  18.694   1.978  0.0086  0.1720  0.1283
69886W        W70750  21.112  19.764   3.040 -0.1209 -0.1716  0.1504
69887W        W70751  22.040  18.932   1.334  0.4127  0.1417  0.0751
69888W        W70752  23.497  16.665   2.559 -0.2667  0.0963 -0.0158
69889W        W70753  28.210  20.641   0.455  0.1542  0.2948  0.1010
69890W        W70754  23.730  19.819   3.154 -0.1876  0.2195 -0.0465
69891W        W70755  23.228  19.250   1.985  0.1313 -0.0134 -0.1004
69892W        W70756  20.754  19.747   2.744 -0.2672 -0.4088 -0.2755
69893W        W70757  23.594  21.419   2.131  0.2390  0.1726 -0.1967
69894W        W70758  24.760  15.920   1.353  0.0963 -0.0122  0.0697
69895W        W70759  21.664  21.054   2.182 -0.1324 -0.0913 -0.0130
69896W        W70760  19.775  21.829   2.898 -0.2951  0.4582  0.0244
69897W        W70761  25.887  20.803   2.528 -0.0081 -0.3060 -0.2368
69898W        W70762  25.441  22.276   4.453  0.3554 -0.0100 -0.0400
69899W        W70763  23.660  20.105   1.549 -0.1783  0.2679 -0.1156
69900W        W70764  26.607  21.622   1.611  0.0082 -0.3234  0.1614
69901W        W70765  26.279  19.256   0.969 -0.0846 -0.2598  0.1300
69902W        W70766  23.191  19.114   2.510  0.3895  0.2536  0.1091
69903W        W70767  25.904  20.546   1.532 -0.0433 -0.1122 -0.0016
69904W        W70768  25.640  19.348   2.164 -0.0641  0.0258 -0.0173
69905W        W70769  24.030  19.858   1.271  0.1645  0.2236  0.1545
69906W        W70770  21.354  18.313   5.549 -0.1012  0.0618 -0.0718
69907W        W70771  23.919  21.620   0.406 -0.2933 -0.1331 -0.1870
69908W        W70772  23.839  19.787   5.067 -0.1863  0.0907  0.1716
69909W        W70773  22.444  22.548   1.434 -0.0292  0.1646  0.2300
69910W        W70774  24.221  20.995   5.133 -0.0067 -0.0157 -0.0236
69911W        W70775  23.132  18.139   0.354  0.1190  0.0358 -0.5015
69912W        W70776  26.001  18.340   0.357  0.3639  0.0543 -0.2253
69913W        W70777  22.216  17.143   0.735 -0.0275  0.1340  0.0024
69914W        W70778   0.018  17.001   0.659 -0.0721  0.0736 -0.2243
69915W        W70779  21.673  18.370   2.593 -0.1366  0.1783  0.3430
69916W        W70780  21.617  18.772   4.808  0.2244  0.0889  0.2597
69917W        W70781  25.536  19.507   1.672 -0.2248  0.0634  0.0358
69918W        W70782  20.172  21.165   3.103 -0.0418 -0.0035  0.1277
69919W        W70783  23.180  21.896   3.215  0.0587 -0.0807  0.0481
69920W        W70784  26.040  20.756   1.991 -0.0237 -0.0390 -0.1048
69921W        W70785  22.281  17.550   3.866  0.1393  0.5219 -0.0177
69922W        W70786  23.896  18.448   1.561 -0.0558 -0.3385  0.1233
69923W        W70787  22.828  18.941   0.798  0.0705  0.3096 -0.0432
69924W        W70788  22.072  20.142   3.685  0.0990  0.1131 -0.1071
69925W        W70789  22.239  21.011   2.114  0.2538 -0.3042  0.1843
69926W        W70790  25.242  18.284   1.031 -0.0576  0.0028 -0.0181
69927W        W70791  24.266  22.394   0.250  0.2201 -0.1763 -0.2092
69928W        W70792  20.739  23.192   4.119 -0.2819 -0.3204  0.2492
69929W        W70793  26.468  17.403   0.884  0.0402 -0.3609 -0.0674
69930W        W70794  27.204  18.039   1.852  0.1046 -0.1366 -0.3033
69931W        W70795  23.360  22.714   2.465  0.4491 -0.0039 -0.1096
69932W        W70796  20.739  17.667   4.735  0.1965  0.0798 -0.0423
69933W        W70797  25.506  16.426   1.649 -0.1454  0.3745  0.1274
69934W        W70798  24.419  20.751  27.970  0.1484 -0.3357 -0.0672
69935W        W70799  26.175  20.218   1.982  0.1835 -0.0044 -0.1810
69936W        W70800  25.566  18.115   2.391 -0.2718  0.0316  0.1851
69937W        W70801  23.852  18.550   2.052 -0.1012  0.3470  0.0913
69938W        W70802  21.954  21.170   1.714 -0.1166 -0.0266  0.1194
69939W        W70803  25.141  17.652   1.557 -0.2138  0.0007 -0.0123
69940W        W70804  26.437  17.676  29.063  0.2701  0.1480 -0.2544
69941W        W70805  23.484  17.773   4.465  0.1456  0.2086  0.1198
69942W        W70806  24.674  21.133  28.267  0.3342 -0.0579  0.0030
69943W        W70807  25.612  18.418   3.792  0.3896  0.0437  0.0870
69944W        W70808  20.764  20.167   2.005  0.0509 -0.0506  0.2488
69945W        W70809  22.613  21.338   0.220 -0.0842 -0.0889  0.1551
69946W        W70810  21.202  14.838   1.236  0.0324 -0.0049  0.0673
69947W        W70811  23.228  18.740   4.502  0.0911  0.3201 -0.2611
69948W        W70812  25.946  21.034   1.590 -0.1200  0.3896  0.0718
69949W        W70813  26.340  19.410  28.217 -0.0065  0.2721 -0.1893
69950W        W70814  24.058  20.103   0.385  0.0005 -0.1356 -0.0195
69951W        W70815  23.828  19.236   5.157 -0.2185  0.2801 -0.2770
69952W        W70816  25.356  15.950   1.457  0.0334 -0.2333  0.0520
69953W        W70817  24.803  16.549   3.815  0.2890  0.2357  0.1729
69954W        W70818  21.072  20.310   0.700  0.2017 -0.0703 -0.2010
69955W        W70819  24.713  17.348   1.463  0.0029 -0.2681  0.2001
69956W        W70820  23.161  22.337   2.758 -0.0139  0.1220 -0.0175
69957W        W70821  24.073  17.445   3.789 -0.1714 -0.1018  0.0459
69958W        W70822  23.810  18.501   3.188 -0.2413 -0.0204  0.1180
69959W        W70823  21.844  18.907   4.073 -0.1477 -0.3707 -0.0536
69960W        W70824  22.397  20.360   3.984 -0.3234 -0.1133  0.2324
69961W        W70825  22.850  18.059   1.678 -0.1157 -0.1485  0.0164
69962W        W70826  25.051  19.311   0.239  0.0701  0.0658  0.2730
69963W        W70827  22.276  17.350   1.327  0.1000 -0.3594 -0.3038
69964W        W70828  21.051  18.820   1.477  0.1919  0.0939  0.0956
69965W        W70829  19.822  20.180   3.313 -0.3556  0.0004 -0.1943
69966W        W70830  24.449  19.236   2.015 -0.2088 -0.0793  0.1448
69967W        W70831  19.415  17.169   3.839  0.0319 -0.1680  0.1006
69968W        W70832  22.796  18.402   4.693  0.2747 -0.1620  0.0880
69969W        W70833  20.220  19.140   3.675 -0.2728  0.0653  0.1434
69970W        W70834  22.491  20.389   2.944  0.0035 -0.0535  0.1259
69971W        W70835  24.605  21.216   1.635  0.0998  0.0628  0.2593
69972W        W70836  22.875  20.153   0.992 -0.1604 -0.0947  0.0577
69973W        W70837  23.083  16.311   2.433 -0.1810 -0.1305 -0.0401
69974W        W70838  21.788  17.861   0.887 -0.1224  0.0504 -0.2372
69975W        W70839  22.748  19.986   3.204  0.3664 -0.0300  0.0586
69976W        W70840  26.977  17.628  27.491 -0.1938  0.1518 -0.0521
69977W        W70841  26.466  19.732   1.779  0.0964 -0.1324 -0.1138
69978W        W70842  22.671  20.732   3.795  0.0015 -0.2129  0.0626
69979W        W70843  26.778  20.961   1.988 -0.3474  0.0458 -0.1603
69980W        W70844  25.907  19.808   5.281 -0.3924 -0.3479  0.1983
69981W        W70845  23.575  20.881   2.440 -0.2063 -0.1366 -0.4110
69982W        W70846  25.486  19.861  28.021 -0.1446  0.0614 -0.1588
69983W        W70847  24.808  20.253   1.007 -0.3863 -0.0169 -0.3043
69984W        W70848  20.771  14.881   2.886  0.1997 -0.1082 -0.3630
69985W        W70849  21.824  22.597  27.651  0.0535 -0.0201  0.1125
69986W        W70850  24.498  19.588   1.009 -0.1502  0.0838  0.1789
69987W        W70851  23.987  17.532   3.275 -0.2435  0.1970 -0.0955
69988W        W70852  22.428  21.125   0.739  0.0442 -0.0616  0.1239
69989W        W70853  22.261  19.331   2.121 -0.1366 -0.0135 -0.0460
69990W        W70854  20.715  22.823   2.683 -0.0844  0.1274  0.0816
69991W        W70855  22.170  20.717   0.737  0.2130 -0.0725  0.0866
69992W        W70856  21.343  18.115   2.933  0.1681  0.2306  0.3687
69993W        W70857  21.915  22.450   1.410  0.0348  0.0609  0.0837
69994W        W70858  22.494  18.047   0.138 -0.1868  0.1610  0.1059
69995W        W70859  26.987  17.605   1.972 -0.1092 -0.0133  0.0836
69996W        W70860  25.169  16.996   1.645  0.1207 -0.0465 -0.2017
69997W        W70861  25.726  18.789   4.199 -0.0175  0.1443 -0.0907
69998W        W70862  24.424  20.029   0.871 -0.1747  0.1064 -0.0213
69999W        W70863  24.354  22.843   2.115 -0.2226 -0.0747  0.1134
70000W        W70864  25.782  20.318  25.365  0.0114  0.0031 -0.0514
70001W        W70865  24.607  20.983   0.988  0.2060 -0.1984  0.1925
70002W        W70866  21.738  20.349   4.539  0.1167  0.1716  0.3193
70003W        W70867  22.314  16.589   4.199 -0.1252 -0.0791  0.0669
70004W        W70868  23.059  21.553   0.336  0.0888  0.0679 -0.3238
70005W        W70869  23.166  20.275  28.444 -0.2046  0.0488  0.1133
70006W        W70870  24.025  19.378   2.490  0.2738  0.3552  0.1917
70007W        W70871  22.387  17.569   0.265  0.4355  0.0990 -0.0501
70008W        W70872  24.250  16.507   1.759  0.2899  0.0583  0.0092
70009W        W70873  23.753  23.289   2.425  0.3991  0.0669 -0.0099
70010W        W70874  25.059  20.689   1.825 -0.1793 -0.4139 -0.0289
70011W        W70875  22.298  21.752   2.413 -0.2226  0.0251 -0.0126
70012W        W70876  24.656  18.006   2.183 -0.2041  0.0757  0.1886
70013W        W70877  23.863  18.576  28.698  0.1376 -0.1832 -0.1928
70014W        W70878  28.042  18.370   1.208 -0.0665 -0.0613 -0.0121
70015W        W70879  25.981  17.461   1.103 -0.1918 -0.1747 -0.0081
70016W        W70880  23.493  18.510   0.124  0.4114 -0.3313  0.1102
70017W        W70881  24.294  19.534   1.542 -0.1277  0.1031 -0.2973
70018W        W70882  24.074  19.078   4.781  0.0111  0.0148  0.1276
70019W        W70883  24.942  22.005   1.306  0.0522 -0.0025  0.1547
70020W        W70884  21.056  19.665   5.483 -0.0372 -0.0236  0.1624
70021W        W70885  20.288  20.152   4.664 -0.1290  0.0136  0.0034
70022W        W70886  23.065  18.144   3.645 -0.0404  0.1621 -0.1379
70023W        W70887  23.704  17.982   2.395  0.4064 -0.1465 -0.1097
70024W        W70888  19.420  19.489   3.279 -0.2137  0.1414  0.0036
70025W        W70889  21.829  19.394   4.018  0.2569 -0.1271  0.1503
70026W        W70890  22.230  18.717   3.501 -0.0412  0.2562 -0.0256
70027W        W70891  21.137  20.182   5.574  0.2601 -0.3739 -0.3563
70028W        W70892  23.245  18.663   2.695  0.1863 -0.2695 -0.1055
70029W        W70893  23.841  19.819   2.619 -0.1780 -0.2499  0.0689
70030W        W70894  26.602  17.408   2.326  0.1453 -0.0975  0.0885
70031W        W70895  25.288  20.479   1.378 -0.2277  0.0947 -0.0916
70032W        W70896  25.298  21.570   2.792 -0.1793 -0.2477  0.0891
70033W        W70897  20.322  20.086   2.359 -0.1777  0.2901  0.1732
70034W        W70898  25.822  19.828   2.188  0.0183  0.2546  0.0106
70035W        W70899  23.247  18.195   5.378 -0.0820 -0.1146 -0.0661
70036W        W70900  24.485  20.461   2.436 -0.3576  0.3287  0.1522
70037W        W70901  23.145  19.767   0.639 -0.3778 -0.1480 -0.0690
70038W        W70902  24.726  20.355  28.687  0.1569  0.0947 -0.2872
70039W        W70903  20.767  20.942   2.527  0.2410  0.2074 -0.0341
70040W        W70904  22.782  18.702   4.231  0.0609  0.0550 -0.1888
70041W        W70905  20.715  21.176   0.934  0.0629  0.0328 -0.3495
70042W        W70906  22.578  19.877   3.799  0.2898 -0.0249  0.0751
70043W        W70907  26.289  20.200   1.499 -0.0530  0.0754  0.2347
70044W        W70908  24.235  20.194   1.730  0.1052 -0.0290  0.3818
70045W        W70909  19.874  21.513   5.564  0.0023  0.3757  0.2169
70046W        W70910  22.798  20.071   6.600  0.1175 -0.1937 -0.1342
70047W        W70911  27.981  22.170   2.528  0.1048 -0.1641 -0.0587
70048W        W70912  27.557  20.363   7.124 -0.0696  0.0185  0.0158
70049W        W70913  24.511  18.115   3.727 -0.2229 -0.1902 -0.2187
70050W        W70914  22.136  20.760   7.058 -0.1900  0.0349  0.0837
70051W        W70915  22.697  20.555   6.090 -0.3513  0.0597  0.0495
70052W        W70916  22.373  22.258   4.377  0.0895  0.1551  0.3574
70053W        W70917  21.808  20.138   7.628 -0.2509  0.3549 -0.0284
70054W        W70918  20.440  19.753   8.158 -0.0102  0.3242 -0.2284
70055W        W70919  19.726  20.749   8.655  0.0708 -0.0147 -0.1539
70056W        W70920  24.534  18.287   6.281  0.1354  0.1117 -0.2060
70057W        W70921  24.287  19.949   3.860 -0.1828 -0.1551 -0.0769
70058W        W70922  26.028  19.518   5.910 -0.0640  0.0486  0.3041
70059W        W70923  23.368  19.513   7.572 -0.1857 -0.2320 -0.2825
70060W        W70924  23.170  19.226  10.202  0.2997  0.0696 -0.2739
70061W        W70925  23.362  18.699   6.104 -0.0719 -0.1828  0.0904
70062W        W70926  22.386  19.873   5.342 -0.0395  0.0457 -0.0635
70063W        W70927  23.301  21.080   8.365  0.1972  0.0543 -0.2174
70064W        W70928  27.987  22.141   5.030  0.1019 -0.0919 -0.0117
70065W        W70929  23.747  20.776   7.917 -0.4439 -0.0361 -0.2123
70066W        W70930  23.148  21.496   4.798  0.0048 -0.0086 -0.3345
70067W        W70931  24.739  22.899   8.598  0.0437  0.3391  0.1728
70068W        W70932  24.265  18.114   5.862  0.2100 -0.2215  0.1918
70069W        W70933  20.434  19.543   9.428  0.0744  0.0209 -0.1411
70070W        W70934  26.652  20.857   7.088 -0.1031 -0.0037 -0.4093
70071W        W70935  25.620  19.371   6.104  0.1129 -0.2062 -0.1651
70072W        W70936  23.902  20.907   6.594  0.1579 -0.0289 -0.1259
70073W        W70937  22.766  21.215   5.264  0.4105 -0.2067 -0.0675
70074W        W70938  23.273  19.169   5.058  0.0985  0.1792 -0.1413
70075W        W70939  26.041  18.301   5.081 -0.1695  0.2633 -0.1104
70076W        W70940  24.800  22.704   7.155 -0.0882 -0.3077 -0.0389
70077W        W70941  22.372  18.315   9.166 -0.1022 -0.0264  0.3559
70078W        W70942  24.069  21.797   6.881  0.0972 -0.2104 -0.1293
70079W        W70943  21.864  18.153   8.657 -0.1600  0.2129  0.1893
70080W        W70944  25.642  19.001   5.753  0.0678  0.1511  0.1178
70081W        W70945  20.845  17.305   2.343 -0.1522  0.0665  0.3826
70082W        W70946  23.092  22.050   5.755  0.0664  0.1236  0.1485
70083W        W70947  25.631  19.268   4.323 -0.0666 -0.1047  0.0385
70084W        W70948  24.947  19.097   5.153  0.2677 -0.0764 -0.0253
70085W        W70949  24.552  18.486   2.382  0.2240  0.2676 -0.0776
70086W        W70950  27.570  20.890   7.351 -0.0709 -0.0367 -0.1691
70087W        W70951  21.892  20.964   4.404  0.2883  0.1171 -0.2495
70088W        W70952  25.763  21.204   5.651 -0.2620 -0.0301  0.0817
70089W        W70953  23.081  22.074   3.774 -0.2264 -0.1061 -0.3767
70090W        W70954  21.966  21.748   5.115  0.2163 -0.2194 -0.1902
70091W        W70955  21.510  17.812   4.531 -0.0849  0.0416 -0.1410
70092W        W70956  28.263  17.189   7.513 -0.2518 -0.2086  0.2133
70093W        W70957  23.982  17.008   4.611 -0.0526 -0.0797  0.3294
70094W        W70958  25.044  20.396   6.423 -0.2530 -0.1126 -0.0279
70095W        W70959  24.392  21.749   7.862  0.2491 -0.0971  0.1509
70096W        W70960  22.909  20.610   8.286  0.2124  0.5656 -0.0789
70097W        W70961  22.072  23.285   6.954  0.0924 -0.0543  0.0599
70098W        W70962  26.210  19.918   4.317 -0.1289  0.0202 -0.3753
70099W        W70963  22.477  17.750   6.510  0.0520 -0.3000 -0.1179
70100W        W70964  23.285  20.065   5.306 -0.1349 -0.1237  0.0950
70101W        W70965  22.326  17.360   4.625  0.3141  0.1529 -0.3305
70102W        W70966  22.866  19.938   4.709  0.1975 -0.0999 -0.2151
70103W        W70967  20.772  20.440   5.862  0.0395 -0.1761 -0.0187
70104W        W70968  23.167  19.387   5.959 -0.0783 -0.1157  0.2505
70105W        W70969  24.340  17.517   4.494  0.0354  0.2463  0.0157
70106W        W70970  23.285  21.532   5.427  0.1690 -0.1898 -0.0372
70107W        W70971  20.620  20.565   4.870  0.0862 -0.2218  0.1017
70108W        W70972  21.143  20.700   5.162 -0.2316  0.2188  0.1148
70109W        W70973  21.962  18.632   4.434  0.1267  0.2163 -0.0274
70110W        W70974  24.684  16.630   1.870 -0.1133  0.1495 -0.1085
70111W        W70975  20.920  22.398   3.086  0.3125 -0.2258 -0.0346
70112W        W70976  23.755  18.392   3.732 -0.0006 -0.1135 -0.2386
70113W        W70977  22.167  21.930   8.331  0.0785  0.0347  0.0046
70114W        W70978  23.313  21.767   4.091 -0.0222  0.3473  0.5544
70115W        W70979  27.140  22.141   6.036  0.2408  0.1480 -0.2120
70116W        W70980  21.775  17.783   6.889  0.1679 -0.1761  0.4129
70117W        W70981  28.524  20.168   3.763  0.1441 -0.1697 -0.0159
70118W        W70982  26.580  21.089   5.406 -0.1701 -0.2055  0.1703
70119W        W70983  28.356  21.833   4.615  0.0522 -0.2516  0.2387
70120W        W70984  20.197  21.982   7.012 -0.1706  0.3056 -0.1614
70121W        W70985  21.332  18.000   5.974  0.1694  0.0750 -0.4500
70122W        W70986  21.486  22.608   6.437  0.0939  0.0327  0.0841
70123W        W70987  25.562  21.795   5.821  0.0135  0.1174  0.2234
70124W        W70988  21.749  18.565   5.757  0.0309 -0.1593  0.2715
70125W        W70989  23.826  16.610   6.488 -0.3039 -0.2954 -0.0440
70126W        W70990  20.536  20.234   9.712 -0.1142 -0.0355 -0.1895
70127W        W70991  23.896  16.507   4.719  0.1337 -0.3053  0.0086
70128W        W70992  22.984  19.148   4.403 -0.0057 -0.0618 -0.1738
70129W        W70993  24.223  17.572   6.305  0.0811 -0.4319 -0.0094
70130W        W70994  23.387  17.673   5.469 -0.1641 -0.0616  0.0687
70131W        W70995  24.829  19.069   6.382  0.3165  0.2855 -0.3015
70132W        W70996  24.976  17.353   5.618 -0.0746  0.1404 -0.2722
70133W        W70997  23.695  20.289   6.413 -0.0194  0.1117 -0.0281
70134W        W70998  25.559  20.220   5.471  0.0236  0.5881  0.2157
70135W        W70999  24.789  17.903   7.187 -0.1573 -0.2348 -0.1631
70136W        W71000  25.277  20.994   5.827  0.3202 -0.0731  0.0463
70137W        W71001  24.741  20.906   7.608  0.0180 -0.1753 -0.1136
70138W        W71002  25.066  18.083   4.604 -0.1020 -0.0375 -0.2157
70139W        W71003  23.266  17.829   6.462  0.1098 -0.0996  0.0628
70140W        W71004  23.146  18.037   4.777 -0.5294 -0.2587  0.0973
70141W        W71005  24.384  19.849   2.964 -0.0046 -0.2314  0.0691
70142W        W71006  24.740  23.785   6.062  0.0928 -0.2118  0.0640
70143W        W71007  26.683  15.939   4.086 -0.0544 -0.3521  0.2327
70144W        W71008  26.449  17.714   6.371  0.2893 -0.2376 -0.3013
70145W        W71009  26.873  21.489   5.437  0.0250 -0.1747  0.1814
70146W        W71010  22.951  15.773   5.119  0.1591  0.1040 -0.3225
70147W        W71011  24.298  17.837   4.053 -0.0078 -0.0422 -0.3682
70148W        W71012  23.014  19.684   4.289 -0.3619 -0.3738 -0.1244
70149W        W71013  23.799  19.463   5.988  0.1746  0.0512 -0.0944
70150W        W71014  22.478  20.995   6.805 -0.1819 -0.1721 -0.3986
70151W        W71015  22.316  18.939   7.758  0.0805 -0.0045  0.3074
70152W        W71016  24.362  19.854   8.389  0.2589  0.2210  0.1041
70153W        W71017  21.808  19.174   5.740  0.1666 -0.2003 -0.0596
70154W        W71018  23.367  17.367   7.343 -0.0656 -0.0138  0.0630
70155W        W71019  21.805  19.671   8.408  0.1877  0.3000  0.0570
70156W        W71020  24.492  20.253   4.157  0.0037  0.1676 -0.1273
70157W        W71021  25.700  15.826   5.224  0.0288 -0.1497  0.3345
70158W        W71022  26.390  20.555   5.723 -0.1532 -0.0172 -0.0455
70159W        W71023  26.283  22.387   2.128 -0.0520  0.2150 -0.0925
70160W        W71024  23.868  17.872   6.671 -0.2367  0.2342 -0.3659
70161W        W71025  24.310  17.587   5.626 -0.0102  0.1747  0.2682
70162W        W71026  23.085  20.664   6.924  0.1175 -0.1690  0.1175
70163W        W71027  24.328  17.178   5.952  0.0143 -0.0416  0.1104
70164W        W71028  25.822  20.018   3.134  0.2789  0.0184  0.0264
70165W        W71029  25.902  19.876   4.791  0.0274  0.2457 -0.3215
70166W        W71030  26.212  19.446   5.042 -0.0117  0.0343 -0.0722
70167W        W71031  23.598  19.016   4.672  0.0850 -0.0053  0.0614
70168W        W71032  26.966  16.533   4.252  0.0523 -0.0914  0.1225
70169W        W71033  23.773  21.721   3.410  0.0438  0.0567  0.0836
70170W        W71034  26.241  20.452   4.137 -0.0258 -0.0306  0.0473
70171W        W71035  21.508  18.311   8.081  0.0377  0.2408  0.2106
70172W        W71036  27.001  19.270   4.887 -0.0160  0.0557 -0.1180
70173W        W71037  25.143  21.778   5.177 -0.2108 -0.0863 -0.0644
70174W        W71038  23.885  22.857   6.797 -0.0164  0.0417  0.0554
70175W        W71039  25.433  19.719   5.156  0.2024  0.2243 -0.2154
70176W        W71040  25.761  16.020   3.528 -0.0962  0.0319  0.1524
70177W        W71041  23.460  24.245   6.431  0.0188  0.0488  0.0548
70178W        W71042  24.249  18.097   3.169  0.1578  0.2336 -0.0149
70179W        W71043  26.876  19.355   6.742 -0.1365  0.2047 -0.2690
70180W        W71044  22.624  16.624   5.417 -0.3933 -0.1742 -0.3689
70181W        W71045  22.940  18.796   2.178  0.1151  0.2991  0.3300
70182W        W71046  25.378  18.575   6.019  0.0658 -0.2057  0.2231
70183W        W71047  26.392  21.648   3.224 -0.0023 -0.0762  0.0953
70184W        W71048  21.992  20.617   4.895 -0.2439  0.2589  0.0019
70185W        W71049  23.550  17.738   4.943 -0.0161  0.0448 -0.0314
70186W        W71050  23.725  18.513   2.586  0.1058 -0.2348 -0.2566
70187W        W71051  20.804  20.457   3.672  0.2406  0.1985  0.0649
70188W        W71052  25.354  17.722   4.308 -0.1623  0.0440 -0.3059
70189W        W71053  21.113  20.085   6.608  0.1855  0.1838  0.3023
70190W        W71054  22.441  18.957   7.263  0.3318 -0.0704 -0.1396
70191W        W71055  26.134  17.735   3.070  0.0271  0.3408  0.4042
70192W        W71056  25.704  22.710   5.618  0.0677  0.1358  0.0690
70193W        W71057  23.067  22.400   6.658  0.0113  0.2734  0.2871
70194W        W71058  22.684  22.667   5.018 -0.1438 -0.2178  0.1454
70195W        W71059  25.230  21.509   6.045  0.1381  0.1613 -0.2132
70196W        W71060  22.146  19.279   6.113 -0.2270 -0.1831 -0.0286
70197W        W71061  21.383  22.904   6.994 -0.0323 -0.2234  0.3764
70198W        W71062  21.160  17.938   4.938  0.0450 -0.0971 -0.3601
70199W        W71063  24.936  19.488   6.672 -0.1008 -0.0422 -0.2123
70200W        W71064  25.733  15.809   7.182  0.0647 -0.2225 -0.0667
70201W        W71065  25.618  19.812   7.767 -0.1772  0.2136 -0.2971
70202W        W71066  24.114  20.825   2.629  0.2407  0.0144  0.2167
70203W        W71067  23.814  18.198   5.057  0.3557  0.0523  0.3692
70204W        W71068  21.880  19.130   7.634  0.3544  0.1771  0.0292
70205W        W71069  22.546  17.350   5.432  0.0315  0.0446 -0.2480
70206W        W71070  21.124  19.987   8.883  0.0068 -0.0530  0.0951
70207W        W71071  23.389  17.447   6.039 -0.0231  0.3113 -0.3373
70208W        W71072  24.756  20.512   7.939  0.3717 -0.0435 -0.1952
70209W        W71073  23.999  19.208   6.469  0.1400  0.1503  0.1901
70210W        W71074  23.092  17.489   4.742 -0.1320 -0.0494 -0.2192
70211W        W71075  23.268  18.281   8.033 -0.1448 -0.1978  0.2981
70212W        W71076  21.076  21.593   4.524  0.0069  0.0382 -0.0316
70213W        W71077  23.254  21.702   7.043 -0.1400 -0.1256 -0.3245
70214W        W71078  21.619  19.876   5.417 -0.2485 -0.0886 -0.1945
70215W        W71079  25.916  19.780   6.619 -0.4210  0.0267 -0.2145
70216W        W71080  22.953  17.522   5.786  0.1563  0.0394 -0.1541
70217W        W71081  26.682  17.300   4.561  0.0532  0.1352 -0.0497
70218W        W71082  21.641  19.828   3.102 -0.2987  0.1127  0.2786
70219W        W71083  24.862  18.065   4.105 -0.0205  0.1033  0.0624
70220W        W71084  27.224  18.875   5.605 -0.1578 -0.0348  0.0294
70221W        W71085  23.658  20.736   5.960  0.3744 -0.1889 -0.1052
70222W        W71086  22.586  20.464   6.906 -0.1054 -0.2989 -0.0949
70223W        W71087  22.070  22.088   6.201 -0.0612  0.1224  0.3467
70224W        W71088  22.777  19.346   7.372 -0.0156 -0.2854  0.0025
70225W        W71089  23.624  18.938   2.384  0.1935 -0.0006 -0.0432
70226W        W71090  26.950  21.917   5.139 -0.1493  0.0903 -0.1041
70227W        W71091  21.634  19.762   4.432 -0.0930 -0.1178  0.0356
70228W        W71092  22.374  21.542   6.916  0.0676 -0.0428  0.0160
70229W        W71093  25.565  20.208   4.910 -0.0137  0.0463  0.0134
70230W        W71094  23.069  23.049   7.262 -0.0683 -0.2033  0.1042
70231W        W71095  27.065  18.343   6.543 -0.0369  0.1835 -0.3377
70232W        W71096  25.005  19.190   3.853  0.0748  0.1351  0.0105
70233W        W71097  22.315  20.359   5.394  0.1504 -0.0011 -0.1642
70234W        W71098  22.656  21.315   6.044 -0.0750  0.0216  0.1377
70235W        W71099  22.250  21.325   4.988  0.2145  0.1793  0.1335
70236W        W71100  24.392  22.544   7.494 -0.0850 -0.0339  0.0335
70237W        W71101  23.653  17.502   6.462 -0.1575 -0.2988 -0.1148
70238W        W71102  21.736  15.366   6.688  0.2523  0.3210 -0.2065
70239W        W71103  24.387  19.354   4.524  0.1205  0.0829 -0.0363
70240W        W71104  22.360  19.432   5.640 -0.4721 -0.1887  0.1303
70241W        W71105  24.497  18.174   2.760 -0.0199  0.1336 -0.4408
70242W        W71106  24.339  19.001   7.861  0.1758 -0.0631 -0.0023
70243W        W71107  22.200  16.299   5.994 -0.2888  0.1968  0.1057
70244W        W71108  26.755  16.748   4.645 -0.0146 -0.0838 -0.0045
70245W        W71109  22.321  16.140   3.905  0.3038 -0.0593  0.0029
70246W        W71110  24.187  18.612   5.258  0.0733  0.0182  0.0763
70247W        W71111  26.234  21.354   4.617  0.0166 -0.2607  0.0057
70248W        W71112  21.580  17.662   5.598 -0.2199 -0.0034 -0.2465
70249W        W71113  24.059  21.100   7.079 -0.0082 -0.2739  0.0058
70250W        W71114  20.366  18.472   5.371  0.2224 -0.2896  0.0029
70251W        W71115  21.035  21.256   7.926  0.0815  0.2726 -0.2237
70252W        W71116  24.215  18.587   5.924 -0.0965 -0.0293  0.0776
70253W        W71117  22.565  20.019   4.271 -0.0777  0.2334 -0.1093
70254W        W71118  21.953  16.445   4.935  0.1453 -0.2834  0.1241
70255W        W71119  21.385  22.026   4.345 -0.2633 -0.0335  0.3605
70256W        W71120  22.924  20.893   6.386 -0.0464 -0.1574  0.1187
70257W        W71121  23.849  21.780   6.375  0.1945  0.0917  0.1948
70258W        W71122  25.288  16.908   4.802 -0.0488  0.1141 -0.0725
70259W        W71123  25.362  19.644   2.925  0.0455  0.3816 -0.2733
70260W        W71124  25.443  18.764   6.958 -0.2176  0.2974  0.1035
70261W        W71125  22.014  19.650   4.803 -0.2232 -0.2386  0.1088
70262W        W71126  26.799  21.548   3.486  0.1957 -0.0332 -0.2453
70263W        W71127  24.629  17.975   6.710 -0.1017 -0.2090 -0.2344
70264W        W71128  20.425  22.154   5.157 -0.0426 -0.0626  0.0187
70265W        W71129  23.768  16.094   4.159  0.0212 -0.2310  0.0951
70266W        W71130  23.232  18.903   6.691  0.1247 -0.0831  0.0372
70267W        W71131  26.755  22.911   7.811  0.0085  0.0535  0.2547
70268W        W71132  21.043  18.839   6.604  0.3047  0.0602 -0.0200
70269W        W71133  24.055  20.199   4.861 -0.0431 -0.0729 -0.3218
70270W        W71134  20.278  19.755   8.623 -0.2181 -0.1994 -0.0776
70271W        W71135  23.674  23.361   6.609  0.1158 -0.0512  0.0892
70272W        W71136  26.385  17.001   4.279  0.1593  0.3448 -0.0164
70273W        W71137  26.334  20.938   4.910  0.3641  0.0870  0.1211
70274W        W71138  23.521  19.172   6.355  0.1144  0.0610 -0.0039
70275W        W71139  20.420  18.402   7.346 -0.1198  0.1565  0.0675
70276W        W71140  24.768  21.751   7.547  0.0803  0.0191  0.2310
70277W        W71141  23.700  21.333   6.650 -0.0926 -0.0110 -0.1277
70278W        W71142  22.591  20.101   5.788 -0.2356  0.0415 -0.2043
70279W        W71143  24.020  15.069   4.157 -0.2061 -0.0431  0.0546
70280W        W71144  25.464  20.618   6.094 -0.0909  0.3354 -0.1234
70281W        W71145  23.920  17.742   5.265  0.0409  0.0939  0.1815
70282W        W71146  22.988  18.864   7.306  0.0584  0.1637  0.0815
70283W        W71147  25.603  20.738   3.676 -0.1535 -0.2114  0.0141
70284W        W71148  25.906  22.209   6.453 -0.0825  0.1902 -0.1600
70285W        W71149  22.691  21.737   5.164  0.0965  0.1664 -0.2244
70286W        W71150  20.579  19.296   8.483 -0.1799  0.1812  0.1349
70287W        W71151  21.768  20.549   6.188 -0.1850  0.0923 -0.0073
70288W        W71152  23.182  16.669   5.308  0.0239  0.2483 -0.4034
70289W        W71153  24.055  16.487   6.029  0.0193  0.2556  0.2148
70290W        W71154  23.380  19.698   5.018  0.1363  0.2902  0.3002
70291W        W71155  24.275  19.127   6.026 -0.0503  0.2013  0.1548
70292W        W71156  22.842  21.281   7.684 -0.1231 -0.1011  0.0468
70293W        W71157  24.442  23.006   7.416  0.0977  0.0030  0.3968
70294W        W71158  25.927  18.922   2.947  0.2084 -0.1561  0.0173
70295W        W71159  21.172  20.617   7.426  0.3539 -0.1488  0.2317
70296W        W71160  18.814  19.439   8.423 -0.1808 -0.0506 -0.3207
70297W        W71161  24.760  20.339   6.842 -0.2149 -0.0927  0.1101
70298W        W71162  22.689  22.417   7.023 -0.2976 -0.0554 -0.0433
70299W        W71163  18.317  22.081   3.041 -0.0716  0.2023 -0.3463
70300W        W71164  25.025  20.163   6.016  0.0346  0.0032  0.1825
70301W        W71165  25.617  19.081   2.588  0.2986 -0.0045  0.0106
70302W        W71166  22.840  18.651   6.807  0.1170  0.0767  0.2265
70303W        W71167  28.601  21.350   4.409  0.0458 -0.0070  0.1271
70304W        W71168  24.192  19.279   3.598  0.2143  0.1479 -0.2314
70305W        W71169  22.385  19.876   6.178 -0.0184 -0.3264 -0.0661
70306W        W71170  24.983  18.986   6.870  0.1068  0.1251 -0.0886
70307W        W71171  24.121  20.398   6.756  0.0987 -0.0646 -0.1261
70308W        W71172  21.731  16.989   9.144  0.1316 -0.0042  0.0302
70309W        W71173  22.796  21.871   4.613 -0.1631 -0.2775 -0.2988
70310W        W71174  20.984  22.855   8.245 -0.2979  0.1680  0.0503
70311W        W71175  22.498  21.376   3.141  0.0401 -0.2511 -0.1235
70312W        W71176  24.767  22.694   5.341 -0.0362 -0.2745 -0.0440
70313W        W71177  21.511  18.639   6.551  0.1636  0.0593  0.1570
70314W        W71178  25.609  19.614   5.648  0.0031  0.0141 -0.0031
70315W        W71179  24.484  22.107   7.321  0.2718  0.4195 -0.0974
70316W        W71180  26.278  19.766   6.237 -0.0307  0.0856 -0.1266
70317W        W71181  21.788  18.983   5.248 -0.2399 -0.1209 -0.1787
70318W        W71182  24.123  21.328   6.397  0.1570 -0.1787  0.0515
70319W        W71183  27.621  21.382   7.181 -0.1811 -0.0462  0.0507
70320W        W71184  26.529  15.836   6.539  0.0450 -0.0985 -0.1558
70321W        W71185  22.951  17.761   6.915  0.0345 -0.2372  0.2162
70322W        W71186  23.657  21.149   5.014 -0.3076 -0.3315 -0.0710
70323W        W71187  19.578  21.304   2.917  0.4887 -0.2377 -0.1636
70324W        W71188  21.280  19.847   5.040  0.1894 -0.0394  0.3367
70325W        W71189  24.725  18.239   5.716  0.0768 -0.2984  0.0314
70326W        W71190  23.511  16.775   4.786 -0.0184 -0.0007 -0.0507
70327W        W71191  23.307  21.607   6.474  0.1226 -0.1590  0.2400
70328W        W71192  22.784  22.064   2.471  0.1343 -0.2730 -0.0328
70329W        W71193  23.911  17.488   4.331 -0.0413 -0.3222  0.0903
70330W        W71194  23.810  19.972   6.931  0.1187  0.1471 -0.4220
70331W        W71195  25.699  21.155   5.180  0.1332  0.2639 -0.2542
70332W        W71196  23.199  18.841   5.432  0.1187 -0.1435 -0.0280
70333W        W71197  25.027  18.275   3.640 -0.0213 -0.2500 -0.2862
70334W        W71198  27.011  20.202   5.841 -0.3648 -0.3664 -0.0445
70335W        W71199  22.391  19.431   5.106  0.0052 -0.4235 -0.0252
70336W        W71200  24.601  17.440   3.899  0.0765  0.2679 -0.3033
70337W        W71201  24.860  15.839   3.748  0.0387  0.0412  0.1613
70338W        W71202  21.300  19.199   9.160  0.1694  0.0048 -0.1169
70339W        W71203  23.728  20.230   5.290  0.0487 -0.0838 -0.2995
70340W        W71204  23.717  22.437   6.936  0.1646 -0.1330 -0.1936
70341W        W71205  20.735  17.270   5.075  0.1212  0.0991  0.0925
70342W        W71206  25.857  23.848   4.706  0.1391  0.1682  0.0880
70343W        W71207  25.264  18.772   6.511  0.4111 -0.0910  0.1202
70344W        W71208  21.045  20.997   5.742 -0.0046  0.3147 -0.1505
70345W        W71209  23.118  17.611   0.565 -0.0202 -0.1394 -0.0142
70346W        W71210  21.780  16.112   8.307  0.1555 -0.0481  0.3480
70347W        W71211  19.784  22.323   6.844  0.0583 -0.0747  0.1926
70348W        W71212  24.738  19.901   3.368 -0.0343 -0.4501 -0.0762
70349W        W71213  24.799  18.523   2.902  0.0932 -0.1854  0.0665
70350W        W71214  23.889  21.418   5.364 -0.2968  0.0714 -0.2661
70351W        W71215  24.459  24.161   8.209 -0.0928 -0.1427  0.1014
70352W        W71216  23.695  16.358   5.675  0.3042  0.3325  0.0509
70353W        W71217  21.844  20.356   5.465 -0.0258 -0.1093 -0.2129
70354W        W71218  20.946  19.053   4.349 -0.1060 -0.0722 -0.1472
70355W        W71219  24.416  16.730   4.488  0.0246  0.2584 -0.2351
70356W        W71220  21.019  19.332   6.555  0.1869 -0.0365 -0.3159
70357W        W71221  22.852  21.616   5.662  0.0100 -0.0884  0.1715
70358W        W71222  23.195  20.535   5.973  0.0538  0.1467 -0.1301
70359W        W71223  23.530  21.150   5.692 -0.2069  0.1136  0.1818
70360W        W71224  19.759  23.461   6.233 -0.0472  0.1683 -0.1988
70361W        W71225  25.347  18.460   1.831 -0.1113  0.2769  0.2436
70362W        W71226  22.638  18.192   6.997  0.0118  0.1682  0.2255
70363W        W71227  25.772  18.952   6.272  0.0218 -0.2751  0.1552
70364W        W71228  23.432  16.258   6.576  0.2129 -0.0243 -0.0899
70365W        W71229  23.900  20.557   3.928  0.0717  0.0299  0.1573
70366W        W71230  26.824  20.611   6.117  0.2145 -0.1502 -0.1840
70367W        W71231  20.000  19.106   4.725  0.0836  0.1028  0.4468
70368W        W71232  24.987  20.318   9.037  0.2611 -0.0980  0.3770
70369W        W71233  23.242  18.718   3.906 -0.0738  0.1505  0.0489
70370W        W71234  21.388  20.856   6.214 -0.0839 -0.1175  0.0028
70371W        W71235  23.064  17.107   6.139  0.2155  0.0700 -0.0222
70372W        W71236  20.823  20.142   3.280 -0.0760  0.0207  0.0418
70373W        W71237  22.899  20.334   4.127 -0.1339  0.1293  0.0702
70374W        W71238  21.569  21.425   6.502 -0.1220  0.1676 -0.1542
70375W        W71239  22.346  18.089   5.668  0.1282  0.1508  0.2379
70376W        W71240  25.327  17.396   4.664 -0.3325 -0.1350  0.2973
70377W        W71241  25.532  18.940   4.665 -0.0094 -0.1642  0.1949
70378W        W71242  26.183  21.126   8.304  0.0658 -0.0605 -0.0424
70379W        W71243   0.033  20.980   5.106 -0.1297  0.1461  0.1005
70380W        W71244  27.067  19.892   8.266  0.0018 -0.1249 -0.0969
70381W        W71245  22.603  21.846   2.953 -0.1715  0.4735 -0.1994
70382W        W71246  24.775  18.132   3.185  0.0812 -0.0409 -0.0797
70383W        W71247  25.194  17.454   3.180 -0.3737  0.0989  0.2316
70384W        W71248  23.341  17.152   5.604  0.3599  0.1584 -0.0014
70385W        W71249  22.345  21.489   3.830  0.0895  0.0662  0.1755
70386W        W71250  20.330  20.116   7.867 -0.0807  0.1494 -0.1848
70387W        W71251  21.934  16.725   6.007  0.0829 -0.0559  0.1270
70388W        W71252  21.137  18.385   2.505 -0.1698  0.2089  0.1209
70389W        W71253  24.474  19.289   6.574 -0.2133  0.2373 -0.0408
70390W        W71254  24.560  20.489   6.367  0.1183  0.3564 -0.0263
70391W        W71255  22.187  20.158   4.923  0.0525  0.0506  0.0552
70392W        W71256  22.480  20.012   6.988 -0.1498  0.0532 -0.0704
70393W        W71257  25.721  20.159   4.276  0.3224  0.1629  0.2310
70394W        W71258  20.764  17.455   2.784 -0.3300  0.1238  0.0995
70395W        W71259  24.173  16.814   5.659 -0.2393 -0.0542 -0.1745
70396W        W71260  28.148  17.645   0.642  0.1049 -0.1157 -0.0505
70397W        W71261  26.018  19.027   4.919 -0.1993 -0.1206  0.2334
70398W        W71262  24.026  20.726   4.784  0.1278  0.0436  0.0674
70399W        W71263  22.834  20.920   7.282 -0.2978 -0.1785  0.0540
70400W        W71264  27.075  17.062   4.352 -0.1795 -0.0776  0.1219
70401W        W71265  20.947  20.259   5.048  0.1976 -0.1351  0.0508
70402W        W71266  24.631  21.001   8.124 -0.0183  0.2801 -0.1045
70403W        W71267  23.771  17.565   5.786 -0.0340 -0.0111  0.0439
70404W        W71268  22.004  17.896   6.035  0.0996 -0.0890 -0.0756
70405W        W71269  23.393  20.626   5.522 -0.1172  0.0616 -0.2460
70406W        W71270  22.841  20.513   5.570  0.0711 -0.1379 -0.2271
70407W        W71271  21.081  21.129   6.558 -0.1155 -0.1356  0.1333
70408W        W71272  25.092  19.963   5.484 -0.5302 -0.3265 -0.2031
70409W        W71273  22.355  20.955   6.293 -0.2270  0.1458  0.2642
70410W        W71274  25.509  20.708   4.860 -0.0542  0.0204 -0.1366
70411W        W71275  24.201  17.914   4.863 -0.0176 -0.0520 -0.3246
70412W        W71276  26.994  20.546   4.551  0.1899  0.1945  0.1204
70413W        W71277  24.255  17.107   4.154  0.2346 -0.1912 -0.0376
70414W        W71278  25.980  18.448   3.332 -0.1250 -0.0641 -0.0109
70415W        W71279  23.852  18.930   2.896  0.3043 -0.0789  0.2628
70416W        W71280  26.986  19.017   4.485 -0.1961 -0.3483  0.0197
70417W        W71281  22.117  20.965   5.380 -0.1966 -0.1397  0.2177
70418W        W71282  25.201  20.127   7.401 -0.2794  0.0386  0.0904
70419W        W71283  23.379  18.860   3.134 -0.1378 -0.3233  0.2128
70420W        W71284  23.824  19.653   5.538 -0.0489  0.3872  0.0282
70421W        W71285  24.015  17.248   5.391 -0.0200 -0.2562 -0.2157
70422W        W71286  26.507  20.564   4.668 -0.0968 -0.0406  0.2624
70423W        W71287  24.424  15.706   6.008 -0.0794  0.1294  0.1319
70424W        W71288  21.300  18.895   7.568 -0.5436 -0.0449 -0.1524
70425W        W71289  23.560  19.476   6.785  0.1116  0.0461 -0.0795
70426W        W71290  20.897  18.981   6.147 -0.1671  0.1637  0.1836
70427W        W71291  20.724  19.791   6.420 -0.0844  0.4061  0.1557
70428W        W71292  24.490  20.060   5.011 -0.2785  0.1764  0.0808
70429W        W71293  25.322  22.250   6.813 -0.0796 -0.1540  0.0461
70430W        W71294  23.484  17.005   7.720 -0.0597  0.0891  0.0929
70431W        W71295  23.838  18.908   5.949 -0.0595 -0.0027 -0.0252
70432W        W71296  24.231  19.620   6.218 -0.1641 -0.0972  0.1273
70433W        W71297  21.723  20.053   6.269  0.0250  0.3632  0.0696
70434W        W71298  24.783  19.573   4.764 -0.2705  0.2602  0.0210
70435W        W71299  25.218  21.877   7.592 -0.0835  0.0230 -0.0480
70436W        W71300  22.048  21.230   6.694 -0.0851 -0.2807 -0.0365
70437W        W71301  24.219  18.886   3.861  0.0254  0.0142  0.2198
70438W        W71302  23.326  21.027   4.655  0.0096 -0.2485  0.4200
70439W        W71303  24.111  20.398   5.795  0.0958  0.0263 -0.0675
70440W        W71304  24.664  17.370   6.306 -0.1429  0.2428  0.0455
70441W        W71305  22.125  18.977   4.836 -0.2947  0.2293 -0.1171
70442W        W71306  22.058  20.745   6.579  0.2045 -0.1506  0.1621
70443W        W71307  21.447  20.764   4.724 -0.2494 -0.2437  0.2165
70444W        W71308  24.528  18.752   4.876 -0.0964 -0.1680 -0.0264
70445W        W71309  21.727  19.410  11.520  0.0401  0.0088  0.1238
70446W        W71310  23.321  20.730   7.404 -0.0090  0.4008  0.1640
70447W        W71311  26.306  17.196   6.486  0.0876 -0.2833 -0.0569
70448W        W71312  24.465  21.828  12.847 -0.4745  0.1513 -0.0150
70449W        W71313  25.383  23.555   9.724  0.1977 -0.3043  0.1216
70450W        W71314  21.971  19.867   7.130 -0.1341 -0.0649  0.0393
70451W        W71315  24.876  19.711  12.059 -0.0538  0.1686  0.2860
70452W        W71316  23.483  22.910   7.508  0.0001  0.3721  0.0878
70453W        W71317  22.369  19.938   9.261  0.0416 -0.1498  0.0976
70454W        W71318  21.269  18.802   9.541 -0.0728  0.1957  0.1499
70455W        W71319  21.649  18.159  11.103 -0.1606  0.0051  0.1922
70456W        W71320  23.964  19.385   9.135 -0.0192  0.0345 -0.3223
70457W        W71321  22.146  17.799   8.965  0.0921  0.0425  0.1583
70458W        W71322  23.908  18.721  10.557  0.1423  0.0149 -0.0987
70459W        W71323  22.493  19.164  10.963 -0.1938  0.6020  0.2281
70460W        W71324  22.359  22.291  11.785  0.0270  0.2998 -0.1022
70461W        W71325  22.793  20.744   9.714  0.3170 -0.2224  0.1963
70462W        W71326  22.646  22.037   8.369 -0.0771 -0.0070 -0.0494
70463W        W71327  23.413  20.464  10.295 -0.0513  0.0848 -0.4412
70464W        W71328  25.887  19.247  10.106 -0.2165 -0.1955 -0.1227
70465W        W71329  23.299  20.440   9.499  0.2341  0.2115 -0.1124
70466W        W71330  22.250  18.600   8.104 -0.0515  0.3638  0.3029
70467W        W71331  26.072  20.529   8.279 -0.3366 -0.0695  0.0503
70468W        W71332  23.606  18.624   8.794  0.1910 -0.0386 -0.0725
70469W        W71333  24.344  19.956  10.054 -0.0106  0.1304 -0.1175
70470W        W71334  23.839  21.702  10.131 -0.3796 -0.1249  0.1338
70471W        W71335  26.259  18.986  10.287 -0.1228 -0.1239  0.0679
70472W        W71336  25.284  19.501   8.137 -0.0460 -0.5061  0.1598
70473W        W71337  25.041  19.976  11.623  0.3970  0.2062 -0.1199
70474W        W71338  23.038  17.624  12.184 -0.1180  0.1752 -0.1912
70475W        W71339  23.877  23.234   7.547  0.0047  0.0553  0.0598
70476W        W71340  22.107  18.525  11.778 -0.0465 -0.1578 -0.0149
70477W        W71341  24.358  20.604  13.109 -0.1043 -0.0381  0.2310
70478W        W71342  22.583  21.354   9.890  0.0053  0.3144  0.3974
70479W        W71343  21.836  19.117  13.518  0.0299  0.1114  0.2908
70480W        W71344  25.227  17.948  12.053 -0.3038  0.4052  0.2021
70481W        W71345  22.265  21.265   7.915 -0.1641  0.1633 -0.0642
70482W        W71346  21.094  22.613   7.778  0.3082 -0.2414  0.3922
70483W        W71347  26.985  19.076   7.618  0.1411 -0.3401 -0.3714
70484W        W71348  24.590  19.804   7.973 -0.2591  0.3229 -0.2726
70485W        W71349  25.979  19.463   7.055  0.2066  0.0180 -0.0411
70486W        W71350  26.112  20.680   9.841  0.3538 -0.0784 -0.1632
70487W        W71351  25.865  21.352   8.657 -0.1503 -0.3302 -0.5109
70488W        W71352  21.929  21.876   5.707 -0.1734  0.0464 -0.0047
70489W        W71353  20.490  21.904   6.511  0.0169 -0.0886 -0.2855
70490W        W71354  23.176  20.312   6.413 -0.1671 -0.0040 -0.2966
70491W        W71355  21.836  19.631   7.571 -0.0617 -0.0485 -0.1180
70492W        W71356  24.208  19.404   8.656  0.1618 -0.0613 -0.0102
70493W        W71357  21.417  20.640   5.666  0.0771 -0.2898  0.4032
70494W        W71358  26.924  20.613   6.687  0.0902 -0.0722 -0.2014
70495W        W71359  22.980  20.303  12.692  0.1730  0.0239  0.0475
70496W        W71360  26.429  20.722   8.691  0.0387  0.1773  0.1302
70497W        W71361  24.491  21.076  10.167 -0.1623 -0.0322  0.1134
70498W        W71362  24.392  19.472   7.603 -0.0220  0.1357 -0.1775
70499W        W71363  25.366  18.796   9.307 -0.0018  0.1626  0.0355
70500W        W71364  22.014  22.399  10.035 -0.0924  0.2614 -0.1354
70501W        W71365  24.257  16.043   7.137 -0.1816 -0.4209 -0.0801
70502W        W71366  26.043  21.494   5.927 -0.2276  0.0325  0.0842
70503W        W71367  20.207  21.508   7.198 -0.0085 -0.1852 -0.1171
70504W        W71368  21.130  18.129   7.718  0.0216 -0.2620  0.1620
70505W        W71369  26.049  21.255  10.187  0.0782 -0.2403 -0.2236
70506W        W71370  22.493  21.560   8.275 -0.1510  0.0759 -0.0058
70507W        W71371  22.875  21.200   8.165 -0.0771  0.2546 -0.0682
70508W        W71372  21.856  19.374   7.030  0.4342  0.0063  0.0022
70509W        W71373  22.555  17.672  10.938  0.2113 -0.1253 -0.4085
70510W        W71374  26.659  16.816   7.594  0.2629 -0.0258  0.0771
70511W        W71375  22.531  20.871   5.755  0.0992  0.1446 -0.0726
70512W        W71376  24.209  22.942   7.922  0.0201 -0.0579 -0.2139
70513W        W71377  21.551  22.423   8.914 -0.1630 -0.1589 -0.0558
70514W        W71378  23.780  21.474   7.231  0.1206 -0.0641  0.1602
70515W        W71379  22.550  18.533  12.076 -0.0267 -0.0271  0.1319
70516W        W71380  22.452  20.633   7.454  0.1628  0.1066 -0.0709
70517W        W71381  23.809  22.153   9.889  0.1480  0.0537  0.0970
70518W        W71382  24.933  19.485   9.993 -0.2079 -0.1770 -0.0877
70519W        W71383  24.763  21.225   8.656 -0.0097  0.1758 -0.3541
70520W        W71384  25.476  18.730  13.244  0.0170 -0.1267  0.2028
70521W        W71385  25.115  21.111   9.069  0.0576  0.2189  0.0465
70522W        W71386  22.317  20.055  12.159  0.2895 -0.2219  0.2702
70523W        W71387  22.830  21.396   7.097  0.1350  0.0424  0.2169
70524W        W71388  23.561  22.037   6.729 -0.0502 -0.2925 -0.1151
70525W        W71389  21.373  19.051  11.002  0.3365  0.1380  0.2326
70526W        W71390  23.980  19.610  13.137  0.4991  0.0882 -0.2952
70527W        W71391  23.145  18.529   8.438  0.0352  0.1129  0.0480
70528W        W71392  24.738  16.158   6.728 -0.1664 -0.0519 -0.2252
70529W        W71393  24.627  19.613  10.358 -0.1388  0.1695  0.0515
70530W        W71394  23.776  19.784   7.451  0.0362  0.1208 -0.0649
70531W        W71395  27.080  21.414  11.245 -0.4164  0.0190  0.0555
70532W        W71396  26.017  18.072   9.003  0.0239  0.1293  0.1823
70533W        W71397  26.716  19.341  13.031 -0.0678  0.2482  0.0719
70534W        W71398  24.250  19.385  10.095  0.0761  0.0012 -0.2709
70535W        W71399  24.936  17.946   7.724  0.1227 -0.2722 -0.0375
70536W        W71400  25.687  18.580  12.749 -0.0797  0.0743 -0.1716
70537W        W71401  20.292  21.849   7.902 -0.3281  0.2123  0.1663
70538W        W71402  22.797  19.816   7.450  0.0899  0.1256  0.2213
70539W        W71403  22.821  18.967  10.540 -0.1671 -0.0736  0.1083
70540W        W71404  24.501  18.453   8.385  0.0858 -0.1544  0.3085
70541W        W71405  28.778  19.598   5.040 -0.0211  0.2352 -0.0989
70542W        W71406  25.653  21.991  13.285 -0.1835  0.0829 -0.1178
70543W        W71407  20.922  20.279   9.234  0.2831 -0.0569 -0.0505
70544W        W71408  25.408  18.785   8.360  0.0479 -0.0390  0.0228
70545W        W71409  23.192  17.306   6.867 -0.1992 -0.0914 -0.4890
70546W        W71410  24.935  21.195  10.331  0.1841  0.0476  0.1946
70547W        W71411  23.915  19.081   8.263 -0.0935 -0.0564  0.0368
70548W        W71412  26.898  18.803   8.499  0.0461  0.0705  0.1683
70549W        W71413  25.443  16.319   9.659 -0.1402  0.1243 -0.5448
70550W        W71414  22.306  18.961  12.218 -0.1659 -0.0252  0.0408
70551W        W71415  21.563  19.903   6.766  0.1512 -0.1727  0.2423
70552W        W71416  23.317  20.746  12.668  0.3777  0.0557  0.0637
70553W        W71417  27.398  17.262  10.324 -0.0562 -0.0619 -0.0682
70554W        W71418  22.821  18.611   9.209  0.1444 -0.4494  0.1054
70555W        W71419  24.102  20.720  10.075 -0.1773  0.2129 -0.2109
70556W        W71420  19.394  18.645   6.799 -0.1139 -0.1791 -0.3622
70557W        W71421  24.666  20.013  11.026  0.3330  0.2944  0.2240
70558W        W71422  23.083  20.177  11.773 -0.0460  0.1477  0.0755
70559W        W71423  24.661  17.757   5.957 -0.0447 -0.0956 -0.0733
70560W        W71424  22.800  20.754   7.758 -0.1850 -0.0561  0.1255
70561W        W71425  25.166  13.500  12.160  0.1052 -0.2932  0.1014
70562W        W71426  24.306  20.231   8.076  0.3551 -0.0128  0.3156
70563W        W71427  24.824  19.968   6.476 -0.0243 -0.0924 -0.0712
70564W        W71428  25.460  19.497  10.016  0.2250  0.1447  0.0484
70565W        W71429  25.320  19.262   6.471 -0.0031  0.2055 -0.0442
70566W        W71430  23.057  20.148   8.066 -0.1190 -0.0423  0.3894
70567W        W71431  26.372  23.516   8.875 -0.1994 -0.0835  0.1349
70568W        W71432  25.651  19.058   7.943  0.1043  0.0836 -0.0035
70569W        W71433  22.358  19.650   8.400 -0.0906 -0.0912 -0.2066
70570W        W71434  24.736  19.942   7.248 -0.0724  0.1344 -0.2159
70571W        W71435  22.332  17.340  10.149  0.1542  0.1839 -0.1374
70572W        W71436  25.300  19.998  12.097  0.3593 -0.1169  0.0529
70573W        W71437  22.054  20.931  12.306 -0.0540 -0.0457  0.0300
70574W        W71438  24.824  20.681   9.367  0.1648  0.0603  0.1426
70575W        W71439  22.378  19.847   9.760 -0.0681  0.1309  0.2188
70576W        W71440  23.581  19.839  11.522 -0.2347  0.0957 -0.1867
70577W        W71441  24.168  21.849   9.301  0.2649 -0.2207  0.1949
70578W        W71442  26.555  17.706  10.197 -0.1051 -0.0841  0.1147
70579W        W71443  25.067  19.981   7.894 -0.3986 -0.0773 -0.2007
70580W        W71444  23.549  20.220   7.281 -0.0245  0.0002  0.3368
70581W        W71445  26.234  19.163   8.783 -0.1092 -0.0702 -0.0870
70582W        W71446  25.713  20.844   9.525 -0.2827  0.1897  0.2639
70583W        W71447  25.854  19.521   8.152  0.2707 -0.0555  0.0716
70584W        W71448  24.973  20.792   8.369  0.2650  0.1126 -0.1572
70585W        W71449  25.367  19.278   7.028 -0.2424 -0.1112  0.1610
70586W        W71450  25.548  16.843   9.433 -0.0708  0.2436  0.0311
70587W        W71451  23.302  23.065   6.188  0.1926  0.0416 -0.3824
70588W        W71452  22.207  19.121   8.608 -0.1743  0.1026 -0.1440
70589W        W71453  23.149  19.495   9.496 -0.1146 -0.2422  0.0208
70590W        W71454  25.901  17.218   7.353  0.2081 -0.0914 -0.0577
70591W        W71455  25.945  18.740   6.967 -0.2003  0.0926  0.1000
70592W        W71456  24.512  20.364   9.774 -0.0633  0.4538 -0.2935
70593W        W71457  26.190  22.147  11.650 -0.0828 -0.0928 -0.0497
70594W        W71458  26.633  19.147   9.838 -0.2088 -0.3952 -0.1974
70595W        W71459  26.083  21.903   8.584  0.2250 -0.1425 -0.1498
70596W        W71460  23.378  18.701   9.270  0.0867  0.0312 -0.2019
70597W        W71461  24.007  18.945   8.764 -0.0808 -0.3362 -0.0224
70598W        W71462  25.019  17.775   6.369  0.1147 -0.2614 -0.1049
70599W        W71463  22.291  20.265  13.204  0.0755  0.2041  0.1554
70600W        W71464  25.953  19.668  10.978  0.2310 -0.1895  0.2957
70601W        W71465  23.312  19.077   9.689 -0.2713 -0.1173 -0.2399
70602W        W71466  25.395  17.036   5.711 -0.3142  0.1815 -0.1478
70603W        W71467  23.925  16.957   6.156  0.0009  0.0013  0.4431
70604W        W71468  26.606  21.056   9.655  0.1601 -0.0603 -0.2101
70605W        W71469  23.364  17.921   7.617 -0.3963 -0.0661 -0.1144
70606W        W71470  25.485  19.663  12.451 -0.0640  0.3647  0.2900
70607W        W71471  25.165  19.549  10.460 -0.1813  0.1270 -0.1068
70608W        W71472  25.308  19.177  12.323  0.0958  0.1572 -0.0267
70609W        W71473  22.993  17.899  12.692  0.0151 -0.1679  0.2009
70610W        W71474  21.283  17.785   9.838 -0.3011 -0.1868  0.2350
70611W        W71475  22.981  19.267   8.285 -0.0253  0.1908 -0.0102
70612W        W71476  22.196  20.352   9.027  0.2100 -0.3357 -0.1673
70613W        W71477  24.904  21.613   9.111  0.2280 -0.3945  0.0542
70614W        W71478  22.891  21.823   6.692  0.0715  0.2658 -0.2107
70615W        W71479  25.227  18.327   6.815  0.0036  0.0786 -0.0141
70616W        W71480  23.023  19.108   9.219  0.1511 -0.1532 -0.0356
70617W        W71481  24.138  21.854  12.524  0.0491  0.2819  0.4481
70618W        W71482  23.158  21.213   6.755  0.0789 -0.3015  0.0569
70619W        W71483  25.800  15.916   7.698 -0.1355 -0.0524 -0.1976
70620W        W71484  26.968  19.889   4.862  0.1475 -0.2909  0.3068
70621W        W71485  23.110  21.791   9.143  0.2016  0.2331 -0.0418
70622W        W71486  23.298  19.949   9.355  0.5253  0.0866  0.1197
70623W        W71487  24.450  20.749   6.962  0.2300 -0.0457  0.0937
70624W        W71488  25.292  18.596  10.539 -0.4216  0.1300 -0.1179
70625W        W71489  19.116  20.057   6.621  0.0579  0.0299 -0.0853
70626W        W71490  25.667  18.383   7.184 -0.2586  0.1470 -0.2512
70627W        W71491  22.812  19.044   4.903 -0.2721  0.1373 -0.0583
70628W        W71492  23.251  16.608   6.865 -0.1537 -0.1761 -0.0628
70629W        W71493  25.387  16.308   7.614 -0.0316  0.2213 -0.0981
70630W        W71494  22.797  20.332  11.345 -0.2406 -0.2467  0.2057
70631W        W71495  26.209  19.082   7.430 -0.1027 -0.2553  0.0723
70632W        W71496  21.665  15.856   7.658 -0.1079 -0.1472 -0.0769
70633W        W71497  21.902  21.982   9.631  0.1353  0.2582 -0.0455
70634W        W71498  22.970  20.730   9.107  0.0336 -0.1999  0.1589
70635W        W71499  21.454  17.960   8.459  0.3438  0.0125 -0.0043
70636W        W71500  19.393  20.430   6.881  0.0168 -0.4050  0.2551
70637W        W71501  22.326  21.343   9.409  0.0129 -0.0261  0.0283
70638W        W71502  21.340  20.841  11.552 -0.1526 -0.0812 -0.1364
70639W        W71503  23.532  18.210   8.436 -0.0894 -0.0944 -0.2694
70640W        W71504  24.854  18.993   8.979  0.3954  0.0674 -0.2190
70641W        W71505  27.704  17.874   9.303  0.2229 -0.1367  0.0856
70642W        W71506  20.852  20.178  10.126 -0.2839 -0.1438 -0.0786
70643W        W71507  19.855  16.959   7.341 -0.0433  0.0154  0.3163
70644W        W71508  26.826  21.944   8.048  0.2638  0.2502 -0.1892
70645W        W71509  22.887  22.866   6.772 -0.0106 -0.1999  0.1033
70646W        W71510  25.589  18.942   7.386  0.1646  0.1606 -0.1163
70647W        W71511  26.562  18.306   6.500  0.0455  0.1770 -0.0916
70648W        W71512  20.918  21.244   8.448  0.2036 -0.1258 -0.2224
70649W        W71513  24.252  18.993  11.450 -0.1599  0.0711  0.1023
70650W        W71514  22.640  20.208   7.780 -0.1243 -0.1393 -0.2999
70651W        W71515  22.890  18.136   7.741 -0.0607 -0.0723  0.2483
70652W        W71516  23.752  19.061  11.724  0.1533  0.1294  0.0646
70653W        W71517  23.724  19.314   7.232 -0.0581 -0.1014 -0.0656
70654W        W71518  22.103  19.809   6.651  0.5857 -0.0798  0.2724
70655W        W71519  22.257  20.835  10.444  0.2120  0.0169 -0.1230
70656W        W71520  25.766  19.296   9.053  0.3082 -0.1630 -0.1586
70657W        W71521  23.732  20.397   9.206  0.4715  0.2920 -0.0924
70658W        W71522  24.694  19.214   9.520 -0.0726  0.0530 -0.1879
70659W        W71523  25.178  20.110  11.174 -0.1275  0.0909  0.2771
70660W        W71524  24.826  17.618   4.355 -0.0213  0.0202  0.0617
70661W        W71525  25.515  21.671   8.546  0.1599  0.1928  0.5546
70662W        W71526  23.906  22.522   7.780  0.3610 -0.2925 -0.2564
70663W        W71527  24.648  18.214  12.533  0.1969  0.0026 -0.2578
70664W        W71528  21.786  21.050   9.715 -0.0005  0.1880 -0.2254
70665W        W71529  24.999  18.096   8.519  0.1714 -0.0525  0.0755
70666W        W71530  23.802  19.080  10.878  0.0889 -0.3114  0.1824
70667W        W71531  23.048  22.586  11.722  0.1635  0.1151  0.3951
70668W        W71532  22.161  19.512   9.379 -0.0060  0.0116 -0.0214
70669W        W71533  25.527  19.982   5.971 -0.2077  0.0206 -0.0686
70670W        W71534  22.160  18.933  10.738  0.0094 -0.1201 -0.0658
70671W        W71535  23.558  21.226  11.509 -0.2624  0.0270  0.0222
70672W        W71536  25.034  18.284   6.284 -0.0621 -0.0076 -0.2361
70673W        W71537  26.562  22.075   8.477  0.0934  0.1537  0.1279
70674W        W71538  23.419  18.879  10.590  0.0001 -0.2052  0.1447
70675W        W71539  21.229  17.200  13.512  0.0670  0.1956 -0.0317
70676W        W71540  24.305  18.260  11.748  0.1438  0.2290  0.0618
70677W        W71541  19.703  22.776   7.254  0.1674  0.4939  0.2118
70678W        W71542  23.770  20.988   8.464 -0.0810  0.0536  0.0725
70679W        W71543  25.696  18.917  10.460 -0.0426  0.3892  0.2255
70680W        W71544  25.800  19.409   7.567 -0.4749  0.2828 -0.0281
70681W        W71545  25.391  20.079   6.492  0.0222 -0.1483  0.1498
70682W        W71546  24.606  18.902   9.854 -0.2970  0.0069 -0.1772
70683W        W71547  26.663  21.511   7.771 -0.1566 -0.1471 -0.0965
70684W        W71548  25.130  23.596   8.886 -0.1223 -0.1255  0.0860
70685W        W71549  23.808  20.649   7.365 -0.0729  0.1638  0.1941
70686W        W71550  24.226  19.452  14.242  0.1224 -0.0573 -0.2623
70687W        W71551  22.450  20.826   9.045  0.3964  0.2532 -0.2121
70688W        W71552  23.380  19.931   6.621 -0.1644 -0.1135  0.1243
70689W        W71553  26.491  20.335   8.993 -0.4912  0.0914 -0.0959
70690W        W71554  20.281  18.159   8.737 -0.1277  0.1530  0.2087
70691W        W71555  25.143  20.994   7.879 -0.0439 -0.0886  0.3416
70692W        W71556  25.972  20.221  10.101  0.1781 -0.0039 -0.1329
70693W        W71557  27.085  21.255   7.212 -0.3230 -0.0939 -0.2414
70694W        W71558  22.911  17.611   7.631  0.1614  0.0001  0.1231
70695W        W71559  23.966  19.944   5.900 -0.0623 -0.0420 -0.1194
70696W        W71560  21.901  22.061   8.807 -0.2936  0.3859  0.1007
70697W        W71561  23.913  21.483   9.084  0.1298  0.0074  0.1158
70698W        W71562  22.747  20.474  10.404 -0.0616  0.0559 -0.3258
70699W        W71563  20.058  18.763   7.564  0.0682  0.0561 -0.0464
70700W        W71564  25.571  22.715   9.580  0.3419 -0.3001  0.0568
70701W        W71565  24.552  15.166   5.559  0.0466 -0.3071 -0.0341
70702W        W71566  22.489  16.709  11.175 -0.0154 -0.0749 -0.1055
70703W        W71567  24.607  20.615  10.200  0.1792  0.1284 -0.1973
70704W        W71568  24.470  21.920   4.948 -0.1659 -0.0540 -0.3998
70705W        W71569  22.458  19.224   8.091  0.0987 -0.4866 -0.2979
70706W        W71570  24.047  19.607  12.629 -0.3218 -0.1110  0.4478
70707W        W71571  26.735  18.183   9.997  0.2369 -0.1116  0.0866
70708W        W71572  24.209  20.125  10.957 -0.0145  0.3277 -0.0137
70709W        W71573  23.658  19.279   9.934  0.1555  0.1031  0.0090
70710W        W71574  25.036  21.247  13.193 -0.0840  0.1806 -0.2141
70711W        W71575  20.847  19.033   8.794  0.1831  0.0003 -0.1314
70712W        W71576  27.986  20.017   7.233  0.0452 -0.0870 -0.1445
70713W        W71577  24.166  17.902   8.041 -0.0645 -0.1462 -0.1268
70714W        W71578  23.558  19.804   7.920 -0.1909 -0.2749  0.1550
70715W        W71579  25.027  21.376   7.370 -0.2829  0.2310 -0.1044
70716W        W71580  23.558  19.609  12.380 -0.4710  0.1144  0.1084
70717W        W71581  25.929  20.371   9.481 -0.1199  0.0664 -0.1581
70718W        W71582  21.517  19.253  11.981  0.2316  0.0402 -0.0212
70719W        W71583  21.842  20.856  11.462 -0.1290 -0.0460  0.1460
70720W        W71584  24.835  18.107  12.972  0.3155  0.1806 -0.0870
70721W        W71585  21.395  18.351   8.842 -0.0878 -0.0648 -0.2376
70722W        W71586  20.553  19.029  11.683  0.2723 -0.0019  0.0783
70723W        W71587  23.281  18.536   7.537 -0.0624  0.3019  0.1295
70724W        W71588  22.270  21.316  10.313 -0.0396  0.2613  0.1303
70725W        W71589  25.596  19.239   8.470 -0.2218 -0.1911 -0.0658
70726W        W71590  24.461  17.847   7.603  0.5290 -0.2144  0.1339
70727W        W71591  24.227  19.841   7.251  0.0612  0.0682  0.1463
70728W        W71592  21.841  22.440   9.524 -0.0739 -0.0784 -0.1581
70729W        W71593  24.220  20.339   7.320  0.2321  0.0685  0.0458
70730W        W71594  23.700  18.288  10.060  0.3406  0.0579  0.0842
70731W        W71595  25.356  20.880   7.353 -0.1017 -0.0483  0.0427
70732W        W71596  22.597  21.739   9.205 -0.2621 -0.1574 -0.2125
70733W        W71597  26.518  14.040   5.183  0.0275  0.3291 -0.0907
70734W        W71598  21.807  19.509   6.381  0.2753  0.0750  0.1297
70735W        W71599  19.790  18.961   8.434  0.2083  0.2550 -0.0758
70736W        W71600  24.944  19.602   7.555 -0.0113 -0.1697  0.0865
70737W        W71601  25.667  19.080  12.758  0.0822 -0.0886 -0.1251
70738W        W71602  20.259  20.734   9.701 -0.1200  0.2272  0.0375
70739W        W71603  23.914  19.584  10.797 -0.0394  0.2553 -0.0737
70740W        W71604  24.859  21.266   5.744  0.3148 -0.2162  0.0371
70741W        W71605  24.659  19.978   8.778  0.1040  0.0620  0.0910
70742W        W71606  23.691  19.327   8.612 -0.2187  0.1693  0.0789
70743W        W71607  25.746  16.965   9.901  0.1288 -0.0709 -0.0270
70744W        W71608  20.553  21.471  10.594  0.2258  0.1843  0.3464
70745W        W71609  21.302  19.334   5.759  0.2291 -0.0008  0.2330
70746W        W71610  23.921  19.667   9.833 -0.4212 -0.0931 -0.1125
70747W        W71611  25.243  17.934  11.101 -0.0363  0.2338 -0.3080
70748W        W71612  25.251  20.654   8.735  0.2113  0.1591 -0.0615
70749W        W71613  27.907  22.927   8.742 -0.3592 -0.2466 -0.2139
70750W        W71614  24.779  24.147  11.747 -0.1958  0.5582  0.0065
70751W        W71615  23.830  18.563  13.995 -0.0906 -0.0126 -0.0319
70752W        W71616  23.059  18.843   8.807 -0.0095 -0.0296 -0.0935
70753W        W71617  24.876  21.794   8.024 -0.2772  0.3092  0.0102
70754W        W71618  20.709  22.243   9.103  0.0071 -0.0555 -0.0426
70755W        W71619  21.506  18.969   8.654  0.1593 -0.0143 -0.0403
70756W        W71620  22.025  20.176  11.507  0.0861  0.1823  0.0100
70757W        W71621  27.834  17.594   8.660 -0.1200  0.0672  0.4194
70758W        W71622  23.706  20.519   8.722 -0.2798 -0.1678 -0.2923
70759W        W71623  22.770  23.555  11.662 -0.0984  0.1722 -0.0651
70760W        W71624  25.940  18.325  13.666 -0.2171 -0.2093 -0.0001
70761W        W71625  25.282  19.260   7.571  0.2868 -0.0565 -0.0326
70762W        W71626  23.871  16.380   6.951  0.0501  0.1235  0.1378
70763W        W71627  23.456  20.938   9.051  0.0894 -0.2291 -0.2982
70764W        W71628  26.991  20.483   7.797 -0.0522 -0.1934  0.1407
70765W        W71629  21.796  20.281   8.176  0.3306  0.0015  0.1388
70766W        W71630  23.460  20.721   6.420  0.2472 -0.0190 -0.0216
70767W        W71631  20.734  21.036  12.785  0.0691 -0.0023  0.0794
70768W        W71632  28.964  20.262  10.795 -0.1362 -0.1309  0.2282
70769W        W71633  24.898  16.646   7.969 -0.2553 -0.1523 -0.0623
70770W        W71634  22.691  22.035  12.519  0.0517 -0.2513 -0.3140
70771W        W71635  24.056  18.277   8.759 -0.1055  0.0543  0.1427
70772W        W71636  21.225  20.289   7.025  0.1085 -0.0482 -0.1333
70773W        W71637  24.944  19.785   8.365  0.1822  0.1731 -0.0464
70774W        W71638  24.134  19.449   6.908 -0.1258  0.3507 -0.1710
70775W        W71639  25.084  18.222   9.239  0.0908  0.2528  0.1395
70776W        W71640  23.969  18.950   6.871 -0.0456 -0.1523 -0.1478
70777W        W71641  27.349  19.149  13.310 -0.0962 -0.0021 -0.1531
70778W        W71642  24.513  19.947  11.782  0.1009 -0.1314 -0.0959
70779W        W71643  23.619  16.502  12.318 -0.1714 -0.0134 -0.1336
70780W        W71644  26.088  18.126  12.640 -0.1183  0.0077  0.0357
70781W        W71645  22.063  21.488   9.878 -0.0389  0.0014 -0.2527
70782W        W71646  26.964  20.761   8.717  0.2617  0.2340  0.1269
70783W        W71647  25.154  19.660   9.578 -0.0225 -0.3040  0.0235
70784W        W71648  26.717  15.510   8.086 -0.1256 -0.0408  0.0278
70785W        W71649  25.214  23.047   8.530 -0.2353 -0.0042 -0.1060
70786W        W71650  23.548  17.985  10.957  0.0514  0.2745  0.1451
70787W        W71651  23.080  18.191  10.283  0.1408 -0.1036  0.1551
70788W        W71652  21.197  19.686   7.701  0.1100  0.1361  0.0108
70789W        W71653  23.386  20.178   4.836  0.2553  0.0842  0.2010
70790W        W71654  24.152  20.532  11.430 -0.0552  0.0869 -0.1084
70791W        W71655  19.524  19.617   6.695 -0.0911  0.3240  0.2378
70792W        W71656  24.492  19.714   9.633 -0.2524  0.0886 -0.2115
70793W        W71657  24.220  18.481  10.144  0.1558  0.0184 -0.1573
70794W        W71658  21.900  16.989  10.372  0.2235 -0.4506  0.3266
70795W        W71659  26.136  20.075  11.207 -0.0682  0.0597 -0.3260
70796W        W71660  25.648  18.541   7.907 -0.0431 -0.0482  0.0660
70797W        W71661  24.858  21.323   6.748  0.0986  0.0016 -0.1354
70798W        W71662  25.206  21.879   9.481 -0.0856 -0.2505 -0.0155
70799W        W71663  22.235  19.584   8.872  0.0478 -0.1243 -0.0597
70800W        W71664  23.552  18.240   6.479  0.0577  0.3211 -0.2419
70801W        W71665  20.559  19.928   9.110  0.0457 -0.3021  0.2153
70802W        W71666  24.578  19.288  13.917  0.1177 -0.2967  0.1462
70803W        W71667  23.688  18.657   8.280 -0.2818 -0.2394  0.2362
70804W        W71668  20.638  20.300   8.222 -0.1658  0.0675  0.0585
70805W        W71669  25.249  19.995   8.761 -0.0877 -0.0865  0.1771
70806W        W71670  23.779  18.853  12.178  0.0624  0.0665 -0.2390
70807W        W71671  25.444  19.961   8.254 -0.2543  0.1270 -0.1239
70808W        W71672  23.632  16.623   7.350 -0.1416  0.2604 -0.1975
70809W        W71673  25.469  21.274   7.653 -0.1595 -0.1382  0.1417
70810W        W71674  25.404  21.194   8.677  0.1223  0.0540  0.0203
70811W        W71675  24.087  20.204   9.530  0.1258  0.0641  0.3261
70812W        W71676  24.411  22.876   9.633  0.2343  0.3732  0.0196
70813W        W71677  25.265  19.508   8.699  0.2630  0.1633 -0.1101
70814W        W71678  25.091  21.338   8.272 -0.0021  0.0636 -0.2412
70815W        W71679  21.439  18.775   8.092 -0.1791 -0.0388  0.0289
70816W        W71680  25.779  22.506   6.922 -0.0119 -0.0656  0.2285
70817W        W71681  23.047  21.236   8.801 -0.0755  0.3044  0.0342
70818W        W71682  24.303  19.051  11.989 -0.0750 -0.1681 -0.2482
70819W        W71683  25.058  22.004   9.991  0.0435  0.1455 -0.2950
70820W        W71684  25.509  19.842  10.692 -0.0300 -0.1396  0.1105
70821W        W71685  23.633  19.457   9.491  0.0170 -0.1667  0.2664
70822W        W71686  24.692  21.883   9.472  0.0267  0.0683 -0.0441
70823W        W71687  25.723  17.883  13.300 -0.0492 -0.1021  0.0709
70824W        W71688  23.224  19.679  10.054  0.2530 -0.1406  0.2640
70825W        W71689  24.846  19.126  10.320  0.1236 -0.1204 -0.1936
70826W        W71690  21.621  20.992   6.699 -0.1384 -0.1840  0.1524
70827W        W71691  25.754  19.438   9.611 -0.1051 -0.0677  0.1030
70828W        W71692  24.686  17.908   9.459 -0.0200 -0.1583  0.2113
70829W        W71693  25.596  21.362  10.407 -0.0733  0.0741  0.0438
70830W        W71694  22.390  20.372  14.735  0.1824  0.1239  0.2145
70831W        W71695   0.226  22.579   7.553 -0.0664  0.1591  0.0110
70832W        W71696  24.354  20.419  11.977 -0.1052  0.0826  0.1060
70833W        W71697  21.503  19.947   7.283 -0.2353 -0.4106 -0.0164
70834W        W71698  23.563  20.478   6.871  0.1291 -0.1659  0.1122
70835W        W71699  26.034  19.041  11.602  0.0468  0.0136  0.1681
70836W        W71700  22.466  18.653  10.441 -0.1463 -0.0358  0.0853
70837W        W71701  25.220  20.480   7.797  0.1545  0.1410  0.0010
70838W        W71702  26.259  23.269   9.443  0.2909  0.2198 -0.1373
70839W        W71703  22.639  19.224  12.496  0.0567  0.1333  0.0132
70840W        W71704  25.383  20.928  10.314  0.0200  0.1641  0.1679
70841W        W71705  23.567  21.412   8.711 -0.0254 -0.1352 -0.1121
70842W        W71706  22.230  22.129  12.303  0.0338 -0.0705 -0.2547
70843W        W71707  23.546  22.373   7.473  0.0663  0.0127  0.1904
70844W        W71708  22.342  19.508   7.011 -0.2288  0.1017 -0.0651
70845W        W71709  23.374  26.507  15.093  0.0556 -0.3031 -0.2597
70846W        W71710  21.954  21.705  12.597 -0.1464 -0.2333 -0.0326
70847W        W71711  25.951  19.961  14.261  0.0318  0.1488 -0.1518
70848W        W71712  25.236  19.152  14.585 -0.0190  0.0498  0.0730
70849W        W71713  25.683  18.716  11.458  0.1510  0.1548 -0.1751
70850W        W71714  21.620  16.956  12.824  0.2912 -0.4016  0.0134
70851W        W71715  23.612  18.676  16.829 -0.4617 -0.0681  0.1260
70852W        W71716  24.894  19.823  13.091  0.0682 -0.0538 -0.0839
70853W        W71717  23.525  24.336  15.458  0.3470 -0.0707  0.1359
70854W        W71718  24.095  17.666  14.016 -0.0692 -0.0775 -0.2047
70855W        W71719  23.292  17.992  17.442  0.0201  0.1663 -0.3605
70856W        W71720  25.692  17.606  14.538 -0.0858  0.1089  0.0405
70857W        W71721  25.052  18.484  12.069  0.0236  0.0698 -0.1338
70858W        W71722  23.513  20.323  16.735 -0.0949 -0.2644  0.0975
70859W        W71723  21.168  20.810  14.917 -0.1549 -0.2721  0.0855
70860W        W71724  22.026  23.679  15.068  0.1043 -0.4514 -0.2548
70861W        W71725  22.516  17.455  13.126 -0.0282 -0.1515  0.0021
70862W        W71726  21.085  20.540  15.518  0.1848 -0.0639  0.0249
70863W        W71727  21.705  22.807  15.705  0.2754  0.1725  0.0423
70864W        W71728  23.856  20.209  10.167 -0.2101  0.0824 -0.1913
70865W        W71729  25.780  20.606  13.198  0.0769  0.1335  0.3305
70866W        W71730  23.679  19.431  13.470 -0.0054 -0.0617 -0.3013
70867W        W71731  22.972  22.480  14.474 -0.0788 -0.1510  0.0415
70868W        W71732  22.818  21.766  14.278 -0.0317  0.0416 -0.1162
70869W        W71733  19.962  19.797  12.207  0.0810 -0.2640 -0.2851
70870W        W71734  22.222  19.639  15.188  0.0059  0.0965  0.1597
70871W        W71735  23.601  20.092  13.852 -0.2339 -0.0338 -0.1090
70872W        W71736  22.640  22.305  13.538  0.0157  0.0036  0.0601
70873W        W71737  23.604  22.980  12.477  0.1124  0.1464 -0.0530
70874W        W71738  22.044  19.322  14.164  0.3271 -0.1981 -0.0360
70875W        W71739  23.908  19.508  15.208 -0.4207 -0.5058 -0.4014
70876W        W71740  25.502  23.224  13.345  0.0338 -0.1320  0.1625
70877W        W71741  24.551  20.607  17.133 -0.3600 -0.1097  0.0461
70878W        W71742  21.819  18.360  15.670 -0.0701  0.0925  0.1342
70879W        W71743  22.450  16.713  17.016 -0.0621 -0.3881 -0.0425
70880W        W71744  24.287  20.704  15.981 -0.2347  0.1343 -0.2356
70881W        W71745  25.018  18.927  13.360 -0.0306 -0.3445 -0.0028
70882W        W71746  25.312  17.746  12.742 -0.2173  0.1504 -0.0287
70883W        W71747  25.324  19.440  11.013 -0.1180  0.1605 -0.1402
70884W        W71748  24.591  17.902  13.903 -0.1276  0.0315 -0.1197
70885W        W71749  27.792  18.272  11.265 -0.1056 -0.0836  0.1117
70886W        W71750  27.938  20.310  12.029  0.4298  0.0645  0.0250
70887W        W71751  21.933  23.345  13.574 -0.0279 -0.1862 -0.1987
70888W        W71752  23.970  20.563  12.813 -0.1473 -0.2056  0.1458
70889W        W71753  19.486  23.565   9.780 -0.2079 -0.2463  0.0355
70890W        W71754  24.045  20.711  10.996 -0.0549  0.0660  0.2721
70891W        W71755  24.719  17.726  14.523  0.0101 -0.0523 -0.0852
70892W        W71756  25.801  20.899  13.637 -0.0777 -0.1033  0.3586
70893W        W71757  24.683  20.734  12.138  0.0094 -0.3376  0.1112
70894W        W71758  27.041  16.793  13.103  0.1586 -0.2139  0.1682
70895W        W71759  23.550  19.513  12.895  0.0908 -0.0213 -0.3419
70896W        W71760  22.221  17.121  12.521 -0.0433  0.0605  0.3080
70897W        W71761  22.831  24.210  15.794 -0.0811  0.0474 -0.1574
70898W        W71762  24.470  16.746  12.485  0.1920  0.2162 -0.0435
70899W        W71763  24.802  21.300  12.741  0.2118 -0.0666 -0.0074
70900W        W71764  23.048  22.324  10.819  0.1178 -0.0390  0.0729
70901W        W71765  23.728  16.978  12.175 -0.2595 -0.4667 -0.1140
70902W        W71766  23.386  15.331  13.736 -0.3495  0.1905 -0.0364
70903W        W71767  23.729  21.020  12.811  0.0558  0.0537 -0.2243
70904W        W71768  22.708  19.569   9.964 -0.1173  0.0310 -0.0316
70905W        W71769  26.293  20.896  10.710 -0.0240  0.0683 -0.0925
70906W        W71770  23.447  19.961  13.383 -0.0630 -0.0158  0.0277
70907W        W71771  21.970  22.253  15.013 -0.2235 -0.0522  0.0760
70908W        W71772  23.433  20.734  15.204  0.0405 -0.1785  0.1954
70909W        W71773  26.295  18.627  11.776 -0.0019 -0.3223  0.0742
70910W        W71774  23.973  17.432  11.293 -0.0215 -0.0179  0.2363
70911W        W71775  25.148  18.189  12.481  0.2295 -0.0866 -0.0039
70912W        W71776  21.860  22.637  12.147  0.2242 -0.0275  0.1795
70913W        W71777  24.742  20.196  12.244  0.2119  0.0393 -0.0080
70914W        W71778  23.889  17.791  13.392  0.2101  0.4229  0.2044
70915W        W71779  23.119  18.440  14.747  0.0208  0.1183  0.3567
70916W        W71780  25.593  17.673  15.103 -0.4295  0.0344 -0.1079
70917W        W71781  25.323  21.902  12.155  0.0906  0.2947 -0.0992
70918W        W71782  25.904  21.796  12.889  0.0223 -0.0809  0.1085
70919W        W71783  25.626  21.126  12.342 -0.1617 -0.0339 -0.1838
70920W        W71784  23.912  20.777  14.830  0.1278  0.1981 -0.1182
70921W        W71785  23.625  17.281  14.155  0.1648  0.0216 -0.1328
70922W        W71786  21.760  22.137  11.734 -0.2536 -0.1897 -0.1298
70923W        W71787  22.415  18.640  14.317 -0.0985  0.1718 -0.1387
70924W        W71788  26.131  21.572  13.866  0.2783  0.2019  0.1129
70925W        W71789  21.496  17.342  14.012 -0.3740 -0.2464 -0.1108
70926W        W71790  21.587  17.490  15.207 -0.0740  0.1476 -0.0224
70927W        W71791  22.248  21.330  12.025 -0.0793  0.0429 -0.0704
70928W        W71792  24.402  20.601  16.440 -0.0577 -0.0541  0.1129
70929W        W71793  24.689  15.965  13.451  0.1019 -0.1337 -0.2423
70930W        W71794  26.091  21.501  15.323  0.3386  0.1074 -0.3313
70931W        W71795  25.143  20.486  14.700  0.1039 -0.1736  0.0476
70932W        W71796  26.707  19.083  15.079 -0.0285  0.0455  0.2303
70933W        W71797  23.185  19.550  15.654  0.1854  0.0029 -0.1223
70934W        W71798  23.622  17.727  13.897  0.1054 -0.0219 -0.1386
70935W        W71799  22.353  22.549  15.986 -0.1232  0.4045  0.1004
70936W        W71800  23.498  18.717  12.575 -0.0056  0.1430  0.0257
70937W        W71801  21.555  21.738  13.382  0.0024  0.0691  0.0742
70938W        W71802  21.801  18.592  13.621 -0.0765  0.0202  0.2673
70939W        W71803  25.002  17.341  12.753  0.1102 -0.1892  0.1123
70940W        W71804  27.070  17.649  10.541 -0.3687  0.2795  0.2933
70941W        W71805  22.048  22.303  17.920  0.1342  0.0135 -0.0017
70942W        W71806  23.585  16.680  14.109  0.0994 -0.0434 -0.0236
70943W        W71807  24.955  18.445  13.854  0.0629  0.0609 -0.1402
70944W        W71808  25.497  18.143  11.454  0.0859 -0.0442  0.3693
70945W        W71809  22.694  19.917  12.472 -0.0874  0.0590 -0.0447
70946W        W71810  25.177  17.394  12.292 -0.1453  0.0042 -0.4164
70947W        W71811  25.708  20.536  11.398  0.2219 -0.3268 -0.0500
70948W        W71812  25.616  19.342  13.247 -0.4014  0.1017  0.1890
70949W        W71813  25.527  20.209  14.458  0.0970  0.1245 -0.1801
70950W        W71814  24.804  19.135  11.269 -0.0068 -0.1996  0.0783
70951W        W71815  25.365  19.583  15.008  0.0578  0.0637  0.0046
70952W        W71816  24.951  18.201  10.759  0.0862 -0.0352  0.2532
70953W        W71817  21.333  21.150  12.430 -0.4097  0.3115 -0.3709
70954W        W71818  23.458  18.094  13.252 -0.1001  0.0349 -0.0276
70955W        W71819  23.651  23.436  12.682 -0.2605  0.2237 -0.0306
70956W        W71820  23.903  21.012  15.362  0.1997  0.0383 -0.0637
70957W        W71821  25.364  22.416  11.987  0.0335 -0.0345 -0.1343
70958W        W71822  24.267  18.601  12.243 -0.0265 -0.3123  0.1128
70959W        W71823  24.821  20.393  13.260  0.2435 -0.1206 -0.2217
70960W        W71824  24.826  18.218  15.453  0.1229  0.0105  0.1956
70961W        W71825  24.203  18.781  13.406  0.0370 -0.0992  0.2902
70962W        W71826  24.802  20.031   9.376 -0.2313 -0.0226 -0.1080
70963W        W71827  22.802  18.142   9.533  0.0405 -0.2594  0.0517
70964W        W71828  27.292  20.004   9.388  0.3340  0.1578  0.0948
70965W        W71829  24.998  20.928  11.699 -0.2450  0.0698 -0.0319
70966W        W71830  25.911  19.250  13.636 -0.1372 -0.0669  0.0726
70967W        W71831  26.671  19.763  11.247 -0.0224  0.1221  0.0053
70968W        W71832  26.946  17.309  14.771  0.1111  0.2310 -0.3706
70969W        W71833  25.922  19.709  13.800 -0.1953 -0.2097 -0.0274
70970W        W71834  23.380  19.183  12.024 -0.0019  0.0291  0.4427
70971W        W71835  21.438  21.651  12.364  0.0001 -0.2972 -0.2050
70972W        W71836  27.137  21.380  13.690 -0.0524  0.2175  0.0043
70973W        W71837  22.156  22.174  12.828 -0.2889  0.2152 -0.1152
70974W        W71838  24.695  21.912  14.740 -0.1643  0.3095 -0.0612
70975W        W71839  24.417  22.175  15.263 -0.0273 -0.0941  0.4190
70976W        W71840  23.805  21.855  14.312 -0.2654 -0.2769  0.1554
70977W        W71841  22.977  17.285  12.970  0.0366 -0.0506 -0.0197
70978W        W71842  26.996  19.138  13.647 -0.1227  0.2067 -0.0176
70979W        W71843  20.517  18.535  13.334 -0.2718  0.1771  0.1051
70980W        W71844  23.859  17.763  15.094  0.1686 -0.1876  0.1154
70981W        W71845  24.664  20.874  14.959 -0.1296 -0.0314 -0.0565
70982W        W71846  22.591  20.306   9.893  0.1225 -0.0321 -0.0568
70983W        W71847  23.902  19.336  12.139  0.1984 -0.0285  0.0955
70984W        W71848  22.768  17.309  11.232 -0.0269  0.1700  0.0580
70985W        W71849  23.500  19.901  15.412 -0.2625 -0.1470 -0.1628
70986W        W71850  23.431  22.885  11.892  0.0250  0.1424  0.2081
70987W        W71851  21.605  21.737  11.226 -0.2221 -0.0201  0.1637
70988W        W71852  23.769  18.691  14.905 -0.2533  0.1728 -0.1054
70989W        W71853  26.555  16.998  12.480 -0.4346 -0.0438  0.0469
70990W        W71854  23.751  18.345  12.290 -0.3306 -0.0071 -0.0347
70991W        W71855  24.577  27.151  14.951 -0.2304 -0.2236  0.1883
70992W        W71856  22.270  24.136  11.579 -0.1047 -0.1714 -0.1075
70993W        W71857  24.999  18.193  11.613 -0.0597 -0.2567 -0.3680
70994W        W71858  25.635  19.038  14.105 -0.0190  0.0148 -0.1602
70995W        W71859  21.615  17.264  12.004 -0.2195 -0.0375  0.0892
70996W        W71860  23.353  24.098  13.776 -0.1895 -0.3533  0.1534
70997W        W71861  22.302  20.246  10.321 -0.0904 -0.0584  0.2935
70998W        W71862  20.288  19.954  15.261  0.4034  0.1348 -0.0826
70999W        W71863  19.901  18.191  13.176  0.0018  0.0180 -0.2272
71000W        W71864  22.242  18.248  13.431  0.0690  0.0509  0.0866
71001W        W71865  21.457  20.788  16.368 -0.0212 -0.1384 -0.1275
71002W        W71866  20.921  15.964  11.571  0.2345 -0.2000  0.0782
71003W        W71867  22.906  18.534  14.139 -0.0261  0.1008  0.1896
71004W        W71868  26.175  18.006  14.043 -0.0477  0.1341 -0.1100
71005W        W71869  21.350  20.659  12.587  0.0979 -0.0965 -0.0569
71006W        W71870  24.512  23.270  14.349 -0.0876 -0.0822 -0.1518
71007W        W71871  24.262  22.095  14.795  0.0954 -0.2307 -0.1120
71008W        W71872  22.669  20.520  16.027 -0.2649 -0.1283  0.0840
71009W        W71873  22.444  20.279  12.691 -0.1255  0.2496  0.1112
71010W        W71874  21.903  20.495  10.525 -0.2981  0.0553  0.0631
71011W        W71875  23.387  23.243  11.028 -0.1998  0.2069  0.1775
71012W        W71876  24.636  21.166  15.860 -0.2900  0.0823 -0.0279
71013W        W71877  24.680  19.037  12.864 -0.1854  0.1752 -0.0502
71014W        W71878  23.834  18.558  11.796  0.0414  0.1248 -0.2928
71015W        W71879  24.526  16.514  15.507  0.3482  0.1798 -0.0980
71016W        W71880  23.485  20.542  10.883  0.3012 -0.0600 -0.0564
71017W        W71881  25.406  19.427  13.727 -0.1077  0.3952 -0.1330
71018W        W71882  23.060  15.715  13.002 -0.0582 -0.1632  0.0387
71019W        W71883  25.024  17.233  11.547 -0.1714  0.1451 -0.1173
71020W        W71884  23.868  21.928  15.093 -0.1740  0.3774 -0.1173
71021W        W71885  22.216  21.921  16.213  0.1366  0.0602 -0.1403
71022W        W71886  23.597  20.988  10.139 -0.0566 -0.1674  0.2021
71023W        W71887  21.274  16.311  17.597  0.1371 -0.3117  0.1455
71024W        W71888  22.892  22.462  12.721 -0.1182  0.0751 -0.0988
71025W        W71889  24.197  22.265  13.206  0.0753 -0.3576 -0.0450
71026W        W71890  24.620  19.752  14.088 -0.0115 -0.1597 -0.0413
71027W        W71891  23.375  17.292  10.012 -0.0222  0.0714  0.0297
71028W        W71892  25.418  19.795  12.959 -0.2854 -0.3038 -0.1942
71029W        W71893  23.912  19.917  13.519 -0.0311  0.0472 -0.0063
71030W        W71894  22.893  16.943  12.450  0.1598  0.0104 -0.2578
71031W        W71895  21.321  18.971  13.400 -0.3152  0.2972 -0.0937
71032W        W71896  25.284  18.696  12.461  0.1517  0.3276 -0.0464
71033W        W71897  23.487  19.781  11.055  0.1912  0.1935  0.0594
71034W        W71898  23.443  17.111  13.111  0.0894 -0.0250  0.0162
71035W        W71899  22.886  21.461  12.328  0.0385 -0.0669  0.0364
71036W        W71900  24.304  18.692  12.739  0.3165  0.0206  0.1099
71037W        W71901  25.878  19.562  12.775  0.0896  0.0053 -0.1235
71038W        W71902  22.486  17.370  13.927 -0.3599  0.1741 -0.2365
71039W        W71903  21.987  16.380  12.150 -0.3413 -0.0006 -0.1611
71040W        W71904  25.179  18.989  12.856  0.0856  0.1405  0.1102
71041W        W71905  20.813  19.894  13.899  0.2321  0.1462  0.0352
71042W        W71906  20.504  18.844  14.233 -0.2658  0.1993 -0.1892
71043W        W71907  23.881  17.057  13.314  0.0578  0.0522 -0.0545
71044W        W71908  22.762  19.034  12.000  0.0011 -0.2134  0.2769
71045W        W71909  23.241  17.686  14.368  0.2745  0.0023  0.0717
71046W        W71910  23.378  16.908  12.627  0.0164  0.1459 -0.2857
71047W        W71911  21.210  21.007   8.790 -0.2902  0.0249  0.0345
71048W        W71912  23.684  23.249  15.205 -0.0629  0.1618  0.0333
71049W        W71913  22.917  19.868  13.999 -0.0055 -0.2558 -0.2721
71050W        W71914  22.870  20.305  13.175  0.1193 -0.0023  0.1775
71051W        W71915  24.280  16.425  16.356  0.0301 -0.3693 -0.0192
71052W        W71916  23.253  23.317  11.626  0.1708 -0.1046  0.1427
71053W        W71917  20.975  21.707  10.526 -0.1499  0.0937 -0.1266
71054W        W71918  22.466  20.842  14.723  0.1323 -0.0889 -0.2541
71055W        W71919  20.899  20.657  12.393 -0.2833  0.1501  0.2511
71056W        W71920  23.553  21.319  12.012  0.0995  0.0766  0.0672
71057W        W71921  24.176  18.731  16.613 -0.1769  0.0894  0.2427
71058W        W71922  21.479  20.259  12.162 -0.0238 -0.0491  0.1139
71059W        W71923  25.136  21.102  12.167 -0.0384 -0.1107  0.0520
71060W        W71924  23.663  20.545   9.848 -0.1092  0.1835  0.0570
71061W        W71925  24.956  20.313  12.711  0.0896 -0.0158 -0.1261
71062W        W71926  24.379  20.961  15.468  0.0524 -0.0400 -0.0285
71063W        W71927  20.301  21.417  15.764 -0.1961  0.0635  0.2059
71064W        W71928  24.941  20.995  16.946 -0.0341 -0.0200  0.0934
71065W        W71929  24.473  17.785  12.766  0.1408 -0.0027  0.0463
71066W        W71930  24.560  23.962  14.973 -0.1490  0.2376 -0.3226
71067W        W71931  22.920  16.087  14.280  0.2926 -0.0337  0.1004
71068W        W71932  26.185  20.951  13.923 -0.1674  0.3013 -0.2088
71069W        W71933  17.977  23.338  15.709 -0.0594  0.1306  0.1164
71070W        W71934  23.677  21.203  14.497  0.4022  0.1290  0.2558
71071W        W71935  25.144  21.755  14.999 -0.1003  0.0458 -0.1039
71072W        W71936  24.130  19.115  13.032  0.0966  0.2099 -0.1251
71073W        W71937  24.567  21.393  13.132  0.0864  0.2726 -0.0609
71074W        W71938  21.929  17.960  13.806 -0.0069 -0.0319  0.0449
71075W        W71939  21.828  17.745  17.583  0.0253 -0.0624  0.2257
71076W        W71940  21.841  20.462  12.981 -0.1386  0.4365 -0.2277
71077W        W71941  26.093  20.058  13.301 -0.0352  0.0408  0.2512
71078W        W71942  22.172  20.118  14.288 -0.0837 -0.0203  0.2583
71079W        W71943  23.362  21.755  12.178 -0.0257  0.1657  0.1937
71080W        W71944  24.908  16.126  12.387  0.0137 -0.1523  0.0452
71081W        W71945  22.898  16.796  14.750  0.1471 -0.1905  0.0010
71082W        W71946  23.705  22.077  13.362  0.4194  0.3254 -0.0385
71083W        W71947  23.803  19.107  12.646 -0.0715 -0.1270  0.1499
71084W        W71948  23.341  19.696  11.922  0.1131  0.1598 -0.1893
71085W        W71949  21.535  21.405  12.762  0.3158 -0.0381  0.1409
71086W        W71950  21.878  20.408  12.451 -0.0274 -0.3608 -0.1963
71087W        W71951  22.213  19.343   9.844  0.2968  0.0320  0.1201
71088W        W71952  22.929  18.241  15.610 -0.2597 -0.2447 -0.0594
71089W        W71953  23.247  20.459  12.240  0.0633 -0.1482 -0.2905
71090W        W71954  29.057  21.876  12.420 -0.0858 -0.1268  0.2733
71091W        W71955  22.907  20.837  13.819  0.1295 -0.0683  0.4346
71092W        W71956  24.736  22.095  11.158  0.0488 -0.2437 -0.1888
71093W        W71957  24.069  17.538  12.971 -0.0621 -0.0121 -0.0666
71094W        W71958  23.226  17.915  13.651 -0.0002  0.1259  0.2604
71095W        W71959  23.054  22.183  14.889 -0.0090 -0.2186 -0.0377
71096W        W71960  24.797  21.050  16.455  0.2115 -0.1416  0.2203
71097W        W71961  23.836  21.985  12.926 -0.0571  0.2752 -0.2274
71098W        W71962  22.261  19.680  10.223  0.1713 -0.2490  0.1919
71099W        W71963  27.675  18.430  10.291 -0.2439  0.1548 -0.0806
71100W        W71964  24.248  16.897  16.524  0.0676  0.0240 -0.0192
71101W        W71965  22.870  17.331  14.750  0.0498  0.1345 -0.2870
71102W        W71966  22.906  20.850  12.357 -0.2304 -0.2850  0.2001
71103W        W71967  25.929  17.252  12.031 -0.1121 -0.0552  0.3232
71104W        W71968  23.586  17.728  11.417 -0.0723  0.2131  0.2798
71105W        W71969  23.267  23.460  14.285 -0.2138 -0.1887  0.1455
71106W        W71970  24.008  19.988  16.655  0.0724  0.3734 -0.0754
71107W        W71971  23.955  18.957  14.345  0.2662  0.0987 -0.1238
71108W        W71972  23.900  22.691   9.483  0.0980  0.0365  0.0373
71109W        W71973  24.285  21.041  14.595 -0.0984 -0.0304 -0.0575
71110W        W71974  23.207  19.885  12.848  0.0242  0.0075  0.5287
71111W        W71975  24.160  20.822  12.295 -0.1723  0.0443  0.2268
71112W        W71976  22.496  20.310  16.991  0.0510 -0.0968 -0.1062
71113W        W71977  24.260  17.801  11.536 -0.1677 -0.1135 -0.0658
71114W        W71978  21.264  19.151  14.409 -0.0190 -0.2253  0.1197
71115W        W71979  23.662  20.698  14.363  0.2026 -0.0733 -0.2306
71116W        W71980  25.686  20.284  13.655  0.0076 -0.1533 -0.0735
71117W        W71981  23.257  22.275  12.016 -0.1324  0.0455 -0.1678
71118W        W71982  25.108  23.001  14.087 -0.2373  0.3586  0.2346
71119W        W71983  23.318  19.013  14.900  0.0965 -0.1880 -0.1310
71120W        W71984  22.000  18.522  15.122  0.1921 -0.0105 -0.3031
71121W        W71985  21.324  18.365  15.754  0.0111 -0.0050 -0.0540
71122W        W71986  22.830  19.482  10.991 -0.1836  0.0228  0.0502
71123W        W71987  23.227  19.494  13.232 -0.1897  0.2182 -0.4424
71124W        W71988  23.063  18.431  12.615 -0.0232  0.0359 -0.0265
71125W        W71989  23.644  17.340  10.475  0.2121  0.2424  0.0428
71126W        W71990  21.170  17.967  14.010  0.0907 -0.1524  0.1665
71127W        W71991  23.324  22.761  12.817  0.1262 -0.1348 -0.4280
71128W        W71992  24.116  16.463  14.438  0.0214  0.1998 -0.1142
71129W        W71993  24.584  20.449  14.575 -0.1075 -0.0065 -0.2728
71130W        W71994  23.470  18.409  10.514 -0.5445  0.0178 -0.0660
71131W        W71995  20.946  18.671  13.598 -0.0090 -0.2350 -0.0406
71132W        W71996  22.215  20.723  12.706 -0.2664 -0.0804 -0.1167
71133W        W71997  23.363  21.908  10.838  0.0370 -0.1817  0.2621
71134W        W71998  24.156  18.051   9.831  0.2789  0.2890  0.0340
71135W        W71999  25.232  15.696  12.231 -0.1052 -0.1697 -0.1901
71136W        W72000  25.479  21.075  13.300  0.0092 -0.1632  0.0749
71137W        W72001  21.791  20.386  14.003  0.1634  0.1830 -0.0431
71138W        W72002  25.207  19.096  10.711  0.0427  0.0717 -0.3651
71139W        W72003  26.277  20.441  10.365 -0.3255  0.0239 -0.0530
71140W        W72004  25.175  19.945  13.503 -0.0528 -0.1888  0.2852
71141W        W72005  26.952  21.825  13.490 -0.1758 -0.3404 -0.0235
71142W        W72006  27.288  17.676  13.120 -0.0184 -0.0233 -0.1271
71143W        W72007  21.363  22.751  12.011 -0.1350 -0.0450  0.2746
71144W        W72008  24.485  18.654  15.627 -0.1853  0.0527  0.0036
71145W        W72009  22.480  17.008  14.406  0.1321 -0.2438 -0.2197
71146W        W72010  25.662  22.845  14.967  0.0386  0.1906  0.0408
71147W        W72011  25.250  19.434  15.434 -0.1206 -0.0126 -0.0490
71148W        W72012  23.979  20.098  11.718 -0.0766 -0.1286  0.0881
71149W        W72013  26.535  22.965  14.179  0.1077 -0.1235  0.2873
71150W        W72014  25.194  20.341  13.928 -0.1859  0.1226 -0.2339
71151W        W72015  21.159  17.464  12.105  0.2577 -0.0091 -0.0775
71152W        W72016  25.067  16.624  13.229 -0.1849  0.0869  0.0772
71153W        W72017  21.224  21.063  12.924  0.0970  0.0530  0.0333
71154W        W72018  23.600  18.231  13.739 -0.2218  0.1586 -0.2608
71155W        W72019  24.305  20.737  14.224 -0.1555  0.1021 -0.0870
71156W        W72020  21.557  19.698  10.306 -0.1530  0.2290  0.4758
71157W        W72021  21.753  21.097  13.131 -0.1968 -0.0788 -0.0968
71158W        W72022  22.912  19.392  12.840  0.5124  0.1922  0.2006
71159W        W72023  22.013  22.002  15.482 -0.0228  0.1566 -0.1064
71160W        W72024  22.422  20.603  12.275 -0.2126  0.0515  0.0724
71161W        W72025  26.044  18.223  12.014 -0.1181  0.1712  0.0289
71162W        W72026  24.392  20.874  11.686 -0.1830 -0.1881  0.0748
71163W        W72027  25.395  18.484  14.571 -0.0944  0.0967 -0.1758
71164W        W72028  22.637  21.762  13.402 -0.0894  0.0192  0.3056
71165W        W72029  25.262  20.563  13.470  0.1053 -0.0606  0.0284
71166W        W72030  22.587  21.366  13.799 -0.0317  0.4165 -0.1009
71167W        W72031  21.974  23.802  11.323  0.0273  0.1012 -0.3273
71168W        W72032  24.385  19.396  11.168  0.2388  0.1136 -0.1788
71169W        W72033  22.282  21.851  14.907  0.0614 -0.1185 -0.0484
71170W        W72034  21.138  19.904  14.537  0.0364 -0.2839  0.0155
71171W        W72035  19.439  21.891  13.630  0.1288  0.1113  0.3177
71172W        W72036  24.689  18.122  12.064 -0.0053  0.0428  0.1203
71173W        W72037  22.577  18.178  10.533  0.1584  0.4306 -0.1896
71174W        W72038  20.980  19.326  15.378 -0.2800 -0.1175  0.3240
71175W        W72039  26.379  18.138   9.408 -0.0703 -0.2813 -0.1181
71176W        W72040  26.726  21.172  13.955  0.0200  0.1088 -0.1489
71177W        W72041  23.590  23.078  14.241 -0.2277  0.0588  0.1921
71178W        W72042  25.039  21.767  13.955  0.0266  0.1165  0.1425
71179W        W72043  25.656  22.820  17.133  0.0691  0.0380  0.0186
71180W        W72044  22.916  19.835  11.429  0.0733 -0.2052 -0.1284
71181W        W72045  25.498  20.912  11.801  0.0036  0.4338 -0.0550
71182W        W72046  24.659  17.758  15.506  0.0782 -0.0132  0.1190
71183W        W72047  22.688  15.889  11.207  0.0105  0.1409  0.1379
71184W        W72048  22.890  20.618  14.398  0.3116  0.0197 -0.1697
71185W        W72049  20.865  19.505  13.600 -0.0010 -0.0192  0.1770
71186W        W72050  24.298  16.911  14.225  0.0747  0.0733  0.2053
71187W        W72051  22.560  22.803   9.670  0.0134 -0.1436  0.0654
71188W        W72052  22.489  20.298  10.880  0.1869  0.1200  0.0421
71189W        W72053  23.769  23.647  16.060 -0.2120 -0.2096 -0.1357
71190W        W72054  22.810  21.235  12.799  0.2160 -0.1893 -0.0115
71191W        W72055  18.315  18.157  10.703  0.1921 -0.2119 -0.2243
71192W        W72056  22.779  19.418  15.354  0.0720 -0.2229 -0.0477
71193W        W72057  20.936  21.187  10.686  0.1063 -0.0201  0.0329
71194W        W72058  23.488  17.516  13.468  0.1974 -0.2302 -0.4204
71195W        W72059  22.536  16.464  13.918 -0.0685  0.4240  0.1156
71196W        W72060  26.535  21.251  10.257  0.2873  0.1475 -0.2326
71197W        W72061  23.067  21.140  11.994  0.0046  0.2037  0.2016
71198W        W72062  24.662  22.875  14.679 -0.0972 -0.0716 -0.2742
71199W        W72063  24.331  16.585  11.734  0.2074  0.3884 -0.0250
71200W        W72064  22.098  22.503  11.220  0.1078 -0.0690  0.1341
71201W        W72065  23.696  19.021  15.256 -0.2273 -0.0342 -0.0964
71202W        W72066  23.167  20.253  13.665 -0.0274  0.0449 -0.1405
71203W        W72067  19.269  21.416  13.506  0.0115  0.2386  0.0597
71204W        W72068  23.564  20.334  11.722  0.2560  0.1218 -0.1740
71205W        W72069  21.710  20.197  13.415 -0.0403 -0.1954  0.0353
71206W        W72070  24.044  17.369  12.404 -0.0984 -0.2744  0.1658
71207W        W72071  22.349  15.973  11.822 -0.2863 -0.0162 -0.1276
71208W        W72072  23.526  20.655  13.800 -0.3621  0.0924  0.1759
71209W        W72073  27.102  22.300  13.477  0.1304 -0.3261  0.3563
71210W        W72074  23.659  21.002  13.374 -0.1236 -0.0678 -0.3205
71211W        W72075  22.624  19.895  12.976  0.2021  0.1674  0.1677
71212W        W72076  23.427  14.174  11.928  0.0387 -0.3413 -0.0995
71213W        W72077  25.307  17.274  14.973  0.0857 -0.0538  0.4271
71214W        W72078  19.762  20.937   9.831 -0.0598 -0.0741  0.1298
71215W        W72079  27.522  19.800  13.330  0.0855 -0.2108  0.0822
71216W        W72080  24.874  19.983   9.973  0.1907 -0.1843  0.1910
71217W        W72081  25.635  21.173   9.915 -0.0752  0.0212  0.0131
71218W        W72082  25.052  19.854  12.504  0.1435 -0.4611 -0.3892
71219W        W72083  22.177  19.379  13.109  0.0765 -0.1937 -0.0990
71220W        W72084  22.457  18.600  14.925  0.2623 -0.1037  0.2407
71221W        W72085  24.195  23.325  12.690  0.1270 -0.2937 -0.1501
71222W        W72086  25.133  21.252  14.882  0.3068  0.1509 -0.1875
71223W        W72087  23.729  19.580  15.739  0.1342  0.0343 -0.4111
71224W        W72088  24.537  18.286  13.596  0.2757 -0.1790  0.2456
71225W        W72089  22.631  20.716  13.419 -0.1124 -0.0291 -0.2470
71226W        W72090  21.830  19.916  11.946  0.0983 -0.0870  0.0318
71227W        W72091  24.782  21.727  11.519  0.0012  0.2253  0.0202
71228W        W72092  23.228  20.937  14.277  0.0717  0.0354 -0.1981
71229W        W72093  22.080  17.737  13.231 -0.2203 -0.2414  0.0410
71230W        W72094  22.488  22.892  13.961  0.0149  0.2092 -0.0158
71231W        W72095  25.237  19.713  14.556 -0.0136  0.0779 -0.2238
71232W        W72096  22.881  23.358  13.373  0.0462  0.1252  0.2039
71233W        W72097  23.979  21.870  13.731 -0.1165 -0.0286  0.0547
71234W        W72098  21.996  21.009  17.626 -0.2154  0.4476 -0.1317
71235W        W72099  23.322  21.147  13.770 -0.1027  0.1666  0.3583
71236W        W72100  23.913  20.932  11.832 -0.1113  0.0863 -0.1366
71237W        W72101  26.576  18.167  12.780  0.1171  0.2752 -0.1155
71238W        W72102  22.431  23.441  15.809  0.0025  0.0309  0.1163
71239W        W72103  22.885  18.038  14.488  0.1494  0.0402  0.3170
71240W        W72104  24.855  20.677  14.074  0.1977 -0.0961  0.0705
71241W        W72105  23.398  20.374  13.055  0.1817 -0.1184 -0.1145
71242W        W72106  24.185  18.980  13.862  0.1772 -0.0198 -0.1116
71243W        W72107  20.602  20.121  11.101 -0.0886 -0.1860 -0.1208
71244W        W72108  21.628  23.081  17.837  0.2416  0.1407 -0.2522
71245W        W72109  24.001  18.333  16.008 -0.2684 -0.2759  0.0247
71246W        W72110  24.645  18.757  13.657  0.1730  0.2371  0.0588
71247W        W72111  27.303  22.730  16.397 -0.0269 -0.2894 -0.4555
71248W        W72112  23.448  24.567  13.421  0.0871 -0.0407 -0.3090
71249W        W72113  21.290  20.134  18.682 -0.0221  0.2631  0.0712
71250W        W72114  20.622  16.850  17.996 -0.1268 -0.0045 -0.1674
71251W        W72115  21.462  20.884  13.872  0.1140  0.0281 -0.2670
71252W        W72116  25.119  19.044  16.643  0.1692 -0.2445 -0.4651
71253W        W72117  23.911  17.611  19.020 -0.2797  0.2190 -0.0806
71254W        W72118  20.545  19.369  16.572 -0.0202  0.1121 -0.0521
71255W        W72119  23.652  20.127  16.310  0.0682 -0.0725 -0.1200
71256W        W72120  25.628  19.513  14.262  0.4328  0.1045 -0.0211
71257W        W72121  26.094  17.320  17.121  0.1640  0.0212 -0.2348
71258W        W72122  22.537  19.136  14.150 -0.0435 -0.1080 -0.3718
71259W        W72123  20.889  19.199  19.727 -0.0160  0.0236  0.0978
71260W        W72124  23.818  21.629  17.360  0.3030 -0.0180  0.0785
71261W        W72125  21.674  18.047  16.006  0.4197  0.3078 -0.0049
71262W        W72126  22.194  16.863  18.639  0.1065  0.0916 -0.1291
71263W        W72127  25.017  18.956  18.779  0.0286  0.2296 -0.1559
71264W        W72128  26.314  21.494  19.784 -0.0237 -0.0784  0.3340
71265W        W72129  26.161  20.156  15.163  0.0704 -0.3225  0.0751
71266W        W72130  22.029  20.064  15.375 -0.3445 -0.0522 -0.1124
71267W        W72131  22.241  19.344  19.981 -0.2050 -0.2919 -0.0278
71268W        W72132  21.231  18.973  14.887 -0.0049  0.0682 -0.1940
71269W        W72133  24.348  18.432  19.304  0.1154  0.0760 -0.1011
71270W        W72134  26.863  18.258  17.117 -0.1986 -0.0451  0.0033
71271W        W72135  22.487  20.854  15.725 -0.0327 -0.0018 -0.1879
71272W        W72136  24.098  19.290  19.482 -0.1116  0.1664  0.1216
71273W        W72137  24.337  23.028  17.767 -0.2816  0.1971  0.3579
71274W        W72138  24.440  20.591  17.746 -0.0143 -0.0658 -0.0152
71275W        W72139  25.857  21.956  18.021 -0.0746  0.0601 -0.0078
71276W        W72140  21.620  16.984  17.863 -0.1220  0.1017  0.1214
71277W        W72141  23.514  19.603  18.272  0.0816  0.0211  0.0927
71278W        W72142  22.142  19.678  19.018 -0.2047  0.1333  0.3222
71279W        W72143  22.319  20.729  18.189 -0.0489 -0.1380  0.0642
71280W        W72144  24.459  18.151  15.844  0.0060  0.0895 -0.1680
71281W        W72145  22.918  22.598  18.065 -0.3178  0.1541 -0.1074
71282W        W72146  24.690  20.205  17.418 -0.0467 -0.0692 -0.1069
71283W        W72147  22.594  19.327  17.661 -0.0190 -0.1206  0.1549
71284W        W72148  23.927  18.192  14.842 -0.2113 -0.2612 -0.1829
71285W        W72149  23.858  18.950  19.858 -0.1493 -0.0899 -0.1015
71286W        W72150  21.582  22.918  19.212  0.1892  0.1203  0.1539
71287W        W72151  24.736  21.815  15.997 -0.0879 -0.3665  0.0238
71288W        W72152  21.223  23.553  15.894 -0.0456 -0.0045  0.0627
71289W        W72153  23.058  21.527  15.570 -0.3340  0.0282 -0.1591
71290W        W72154  22.147  17.433  17.232  0.2006  0.2744  0.0493
71291W        W72155  25.920  16.229  16.743 -0.1355  0.1033 -0.0785
71292W        W72156  23.755  22.599  16.981  0.0544  0.0227  0.3157
71293W        W72157  24.038  20.003  15.368  0.2271  0.3976  0.1938
71294W        W72158  24.157  21.211  17.262  0.0079  0.2489 -0.2010
71295W        W72159  23.443  18.145  16.475  0.1768 -0.1268  0.3072
71296W        W72160  24.688  21.806  16.580  0.1749  0.0126  0.1015
71297W        W72161  25.573  19.408  18.040  0.0262 -0.1080  0.1966
71298W        W72162  25.557  20.740  15.429  0.1738 -0.1237 -0.0206
71299W        W72163  23.266  22.294  16.294  0.0908  0.1702 -0.1470
71300W        W72164  22.462  19.868  15.605  0.1136  0.3140  0.4091
71301W        W72165  27.256  17.615  17.120 -0.2257 -0.0541  0.0012
71302W        W72166  22.534  21.865  15.325  0.1456 -0.1083  0.3754
71303W        W72167  22.924  21.688  16.350  0.0230  0.3854 -0.0388
71304W        W72168  24.776  19.407  16.491 -0.0253 -0.4737  0.1050
71305W        W72169  24.213  20.207  17.581 -0.0613  0.2351 -0.1743
71306W        W72170  23.563  21.498  18.642  0.0418 -0.1209 -0.1094
71307W        W72171  22.141  23.370  16.829 -0.0023  0.3625 -0.4428
71308W        W72172  20.084  17.085  15.705 -0.3670 -0.1354  0.3047
71309W        W72173  23.915  17.327  16.684 -0.1824 -0.0479  0.2351
71310W        W72174  22.243  23.375  14.011 -0.0010  0.1253  0.2923
71311W        W72175  23.915  16.319  14.031 -0.2854 -0.1488 -0.1990
71312W        W72176  21.609  22.042  16.299  0.2699 -0.4249  0.0609
71313W        W72177  21.428  22.409  18.539 -0.0310  0.3217  0.1296
71314W        W72178  23.422  20.385  17.997 -0.0471 -0.0679 -0.0873
71315W        W72179  24.296  21.367  13.591  0.3829 -0.2369 -0.2274
71316W        W72180  25.583  22.255  16.795 -0.1930  0.0507 -0.2894
71317W        W72181  24.366  16.958  17.473 -0.1707  0.2999 -0.1576
71318W        W72182  26.691  20.000  17.323 -0.1644  0.2705 -0.0537
71319W        W72183  24.438  18.578  18.262 -0.3122  0.2254  0.3128
71320W        W72184  22.100  22.202  14.555 -0.0209 -0.1190  0.0160
71321W        W72185  23.038  16.444  18.036  0.1144 -0.1987 -0.0341
71322W        W72186  25.319  18.297  12.940  0.2115 -0.1924 -0.4119
71323W        W72187  24.142  21.179  19.098 -0.0296  0.1768  0.0015
71324W        W72188  23.779  18.737  17.288  0.1226  0.2739  0.0216
71325W        W72189  23.814  19.152  16.658  0.2396  0.2869  0.0236
71326W        W72190  25.658  17.443  13.972  0.0273  0.2882  0.1004
71327W        W72191  23.649  20.875  17.950  0.2015  0.1395  0.4309
71328W        W72192  26.966  19.147  19.192 -0.2988 -0.2621 -0.0292
71329W        W72193  22.347  19.161  14.585 -0.1532 -0.0745 -0.4306
71330W        W72194  25.706  19.538  19.293  0.1665 -0.4178  0.1877
71331W        W72195  24.518  18.975  18.643  0.0909 -0.3234 -0.0847
71332W        W72196  27.094  19.351  19.615 -0.1709  0.0953 -0.1193
71333W        W72197  26.450  19.337  16.415 -0.1313 -0.1528 -0.1097
71334W        W72198  25.533  21.060  15.767  0.0023  0.2486 -0.1821
71335W        W72199  23.068  19.495  17.840  0.0273  0.1579  0.0740
71336W        W72200  23.081  21.641  14.653 -0.2398  0.2837 -0.1433
71337W        W72201  25.758  22.831  16.625 -0.1184 -0.1411  0.0328
71338W        W72202  21.976  16.593  19.050  0.1242 -0.0282 -0.2703
71339W        W72203  27.294  21.064  15.794  0.2077  0.0088 -0.3332
71340W        W72204  24.943  20.464  17.803  0.0701 -0.2569  0.0214
71341W        W72205  22.815  21.192  19.324  0.1343  0.0818  0.2263
71342W        W72206  23.483  18.321  15.690 -0.1860 -0.0032 -0.1569
71343W        W72207  26.622  19.978  16.791  0.1165  0.0615 -0.0652
71344W        W72208  24.253  19.532  14.752  0.0000  0.1256 -0.1379
71345W        W72209  25.796  18.364  16.302  0.1740 -0.1491  0.1886
71346W        W72210  23.911  22.964  15.695  0.2008  0.0168  0.0564
71347W        W72211  26.828  20.812  15.603  0.0569 -0.0141 -0.0531
71348W        W72212  23.629  16.941  15.350  0.3610 -0.0212 -0.0845
71349W        W72213  21.072  20.363  18.226  0.3313  0.3452  0.0038
71350W        W72214  22.511  20.894  17.731  0.1315 -0.0109 -0.3130
71351W        W72215  27.199  19.953  16.063  0.1464  0.0410  0.3417
71352W        W72216  22.502  17.827  15.464  0.0022  0.0373  0.0132
71353W        W72217  24.183  18.428  17.023  0.4527  0.2295 -0.0850
71354W        W72218  22.293  18.565  17.467 -0.2489  0.1622  0.2302
71355W        W72219  25.051  20.277  18.289 -0.3883 -0.0193 -0.3215
71356W        W72220  23.034  19.455  16.981 -0.1877 -0.2946  0.1510
71357W        W72221  23.675  20.298  17.568  0.0570 -0.1417  0.1494
71358W        W72222  25.465  21.746  16.662  0.2829 -0.4467 -0.0239
71359W        W72223  25.150  20.765  15.129  0.0983 -0.0701  0.3185
71360W        W72224  24.426  19.953  19.340 -0.1603  0.1789  0.0455
71361W        W72225  23.149  19.064  18.780  0.1521 -0.1155 -0.1867
71362W        W72226  24.377  19.612  15.245 -0.0985 -0.1116 -0.2991
71363W        W72227  23.478  20.948  15.639 -0.1537 -0.0505  0.2945
71364W        W72228  25.285  21.133  18.482  0.2353 -0.0901  0.0559
71365W        W72229  27.066  20.335  13.878 -0.0823 -0.1176 -0.2605
71366W        W72230  22.247  21.123  18.476  0.1815  0.1207  0.3819
71367W        W72231  23.829  21.543  15.847  0.0584 -0.0642  0.1219
71368W        W72232  26.250  19.403  18.647  0.0676  0.2153 -0.1391
71369W        W72233  25.571  17.762  15.620 -0.2615  0.2952  0.5824
71370W        W72234  21.654  18.584  18.049 -0.1065 -0.0264  0.4606
71371W        W72235  22.944  21.387  18.516  0.2362  0.0535  0.0804
71372W        W72236  27.346  22.409  18.103 -0.0165  0.1363  0.1820
71373W        W72237  23.074  19.217  17.432 -0.1518 -0.0581 -0.1351
71374W        W72238  25.585  20.894  17.919 -0.1811 -0.1079  0.0717
71375W        W72239  22.074  20.503  16.811  0.1095 -0.1291  0.1149
71376W        W72240  25.588  22.174  19.710 -0.0424 -0.2935  0.3680
71377W        W72241  23.460  19.655  17.470  0.1159 -0.0883 -0.2644
71378W        W72242  21.352  21.008  18.085  0.0671 -0.2350  0.0213
71379W        W72243  23.085  20.215  18.409  0.0697 -0.1345  0.1967
71380W        W72244  23.340  18.094  17.961 -0.3501  0.0066 -0.1048
71381W        W72245  25.044  21.361  17.374  0.2629 -0.3216  0.3301
71382W        W72246  22.224  24.325  17.898  0.2698 -0.4478 -0.0463
71383W        W72247  21.392  24.949  12.690  0.4149 -0.0893  0.2484
71384W        W72248  21.542  20.424  14.907  0.2564  0.0153 -0.2752
71385W        W72249  24.801  17.986  17.743 -0.3363  0.0161 -0.0659
71386W        W72250  20.598  21.844  14.243 -0.2191  0.2083 -0.2910
71387W        W72251  24.320  18.858  14.730  0.0005 -0.0445 -0.2420
71388W        W72252  25.622  20.220  18.366 -0.0983  0.1597  0.0088
71389W        W72253  20.745  20.947  15.767 -0.0713 -0.1131  0.0979
71390W        W72254  23.709  15.318  18.160 -0.0201  0.2395 -0.1171
71391W        W72255  24.693  23.003  16.093  0.3228 -0.1332 -0.0729
71392W        W72256  25.290  22.181  16.360 -0.4127  0.1866  0.0142
71393W        W72257  23.948  19.543  17.015  0.0111 -0.0615 -0.2334
71394W        W72258  25.564  20.276  17.061  0.3574  0.2272 -0.0654
71395W        W72259  22.695  19.859  16.960  0.0012  0.0072 -0.1000
71396W        W72260  22.088  20.506  17.835  0.2717 -0.3183  0.0594
71397W        W72261  22.586  18.564  15.964 -0.2144 -0.2588  0.0336
71398W        W72262  22.471  20.117  15.150  0.1353 -0.0933 -0.1599
71399W        W72263  22.702  18.830  18.817 -0.0897  0.1242  0.0353
71400W        W72264  23.164  22.587  16.804 -0.1487 -0.2004  0.0012
71401W        W72265  23.066  21.657  13.797  0.0743  0.2194 -0.1035
71402W        W72266  22.056  18.314  14.166 -0.1232  0.0152 -0.0635
71403W        W72267  23.819  17.233  17.196 -0.0709  0.1704 -0.2972
71404W        W72268  24.275  17.909  17.616 -0.1668 -0.1377 -0.0232
71405W        W72269  23.409  20.515  18.768  0.1370 -0.1795  0.0521
71406W        W72270  22.902  18.760  20.590  0.0265 -0.1817  0.1936
71407W        W72271  22.976  22.167  19.456  0.1182 -0.1508  0.0924
71408W        W72272  22.735  17.074  19.578  0.0586 -0.1794  0.0961
71409W        W72273  22.392  20.402  16.453 -0.0899  0.0792  0.0534
71410W        W72274  20.533  17.538  16.785 -0.2652 -0.0064  0.1216
71411W        W72275  22.442  22.326  16.686  0.1361 -0.1414  0.0918
71412W        W72276  22.787  19.508  19.441 -0.1252  0.3950 -0.2361
71413W        W72277  22.918  20.001  15.655 -0.2233 -0.2702  0.1518
71414W        W72278  23.594  21.022  16.225 -0.3253  0.4803 -0.0045
71415W        W72279  24.993  20.088  17.055 -0.0404  0.4156 -0.4227
71416W        W72280  24.628  20.996  17.432 -0.2231  0.2170  0.1455
71417W        W72281  25.411  18.393  14.034 -0.0024 -0.2005  0.0927
71418W        W72282  25.260  19.195  18.393 -0.0479 -0.1403 -0.0194
71419W        W72283  26.838  19.780  16.408  0.0273 -0.1155  0.2021
71420W        W72284  22.071  22.154  19.148 -0.2306 -0.1476  0.0321
71421W        W72285  22.213  23.277  16.298 -0.0469  0.0006 -0.0397
71422W        W72286  21.316  22.719  13.729  0.1532 -0.2089  0.0676
71423W        W72287  24.160  19.221  15.660  0.0579 -0.2159 -0.2465
71424W        W72288  23.884  21.905  16.557 -0.1391  0.0682 -0.1582
71425W        W72289  25.038  21.006  15.567  0.2021  0.0875  0.0782
71426W        W72290  23.021  20.462  15.345  0.1877  0.0317 -0.0242
71427W        W72291  21.998  16.273  16.450  0.4412 -0.2111 -0.1712
71428W        W72292  20.767  16.473  16.039  0.0448 -0.1544  0.0765
71429W        W72293  24.660  22.170  19.183  0.2235  0.0451 -0.1230
71430W        W72294  25.910  19.397  17.142 -0.0104 -0.1972  0.3377
71431W        W72295  21.809  17.101  16.645  0.0461 -0.1753 -0.1697
71432W        W72296  25.085  21.480  20.139  0.0109 -0.0127 -0.0252
71433W        W72297  22.315  19.170  19.132  0.0302 -0.0588 -0.0303
71434W        W72298  20.917  21.771  13.522 -0.1524  0.3376  0.1084
71435W        W72299  21.377  21.744  16.649  0.2265 -0.2527 -0.1255
71436W        W72300  22.295  21.041  19.285  0.0132  0.1328  0.3378
71437W        W72301  23.328  17.193  18.043  0.1690  0.1360  0.0666
71438W        W72302  24.107  18.358  17.936  0.1094  0.4629 -0.0347
71439W        W72303  24.110  16.215  15.265 -0.1136  0.0908  0.2174
71440W        W72304  27.333  17.548  14.993  0.0750  0.3811  0.2974
71441W        W72305  22.583  17.981  17.015 -0.3785  0.1312 -0.0115
71442W        W72306  24.414  18.303  14.840 -0.0632  0.0330  0.1079
71443W        W72307  21.515  20.738  15.315 -0.2156  0.1474 -0.1704
71444W        W72308  21.454  19.906  14.998 -0.3325 -0.4410  0.0330
71445W        W72309  26.231  21.053  16.338 -0.1625  0.2032 -0.1109
71446W        W72310  24.747  20.587  15.537  0.1018  0.2341 -0.0314
71447W        W72311  22.120  16.788  15.255  0.1743 -0.0614 -0.0486
71448W        W72312  22.282  17.209  16.777  0.5311  0.2962  0.1198
71449W        W72313  24.653  18.458  14.408  0.0015  0.3071 -0.1720
71450W        W72314  20.884  21.057  16.299  0.0093 -0.2484  0.3191
71451W        W72315  26.110  16.366  17.407 -0.3195 -0.0982 -0.2450
71452W        W72316  23.255  21.741  15.092 -0.1812  0.0449 -0.3137
71453W        W72317  22.767  23.334  15.303  0.1766  0.0286  0.2245
71454W        W72318  23.480  20.814  19.832 -0.1585  0.2702 -0.0570
71455W        W72319  23.506  18.655  18.534 -0.2847 -0.0856  0.3411
71456W        W72320  22.675  21.412  17.741 -0.2736  0.0201 -0.0296
71457W        W72321  24.297  18.013  18.985 -0.1081  0.0991 -0.0458
71458W        W72322  26.670  19.618  18.919 -0.0626 -0.1419  0.0783
71459W        W72323  25.455  21.204  14.494  0.0530 -0.1156 -0.1959
71460W        W72324  25.641  21.699  15.201  0.1332 -0.0674 -0.0904
71461W        W72325  26.116  21.569  16.476  0.0904  0.2284  0.0771
71462W        W72326  23.369  18.171  19.961 -0.0871 -0.1118 -0.2383
71463W        W72327  24.709  19.205  18.232  0.1405 -0.1931  0.1247
71464W        W72328  25.227  20.239  17.431 -0.1587 -0.2257 -0.0772
71465W        W72329  23.834  18.556  19.172 -0.1843 -0.0661 -0.1382
71466W        W72330  23.181  21.040  18.747  0.1002 -0.2358  0.0973
71467W        W72331  24.298  20.611  15.107  0.2135 -0.1722  0.0558
71468W        W72332  23.519  19.131  15.807  0.1986  0.2198 -0.2377
71469W        W72333  18.903  18.720  18.373 -0.3307  0.1123 -0.1568
71470W        W72334  23.182  21.614  18.153  0.0609 -0.0938 -0.0117
71471W        W72335  25.152  20.763  18.151 -0.2623 -0.0512  0.0789
71472W        W72336  22.653  22.142  16.100 -0.2499  0.1879 -0.2259
71473W        W72337  22.547  21.355  15.533  0.1184 -0.0215 -0.0945
71474W        W72338  22.881  16.570  17.250 -0.3272  0.0062  0.0815
71475W        W72339  22.753  21.653  18.911 -0.1883 -0.1110 -0.0101
71476W        W72340  25.120  20.916  17.631 -0.0735  0.0793  0.1419
71477W        W72341  24.807  16.054  17.580 -0.0568  0.0033  0.1516
71478W        W72342  21.256  17.929  19.296  0.0516 -0.0108  0.0349
71479W        W72343  23.239  21.369  16.077 -0.1048  0.2051 -0.1769
71480W        W72344  26.162  18.234  16.686 -0.0563 -0.0863 -0.1497
71481W        W72345  24.612  18.143  18.533 -0.0189 -0.0022  0.0282
71482W        W72346  23.123  19.945  14.684 -0.0288 -0.1894 -0.1646
71483W        W72347  23.390  22.163  16.842  0.2006 -0.0886  0.1757
71484W        W72348  24.549  23.865  17.230  0.2358 -0.3511 -0.0310
71485W        W72349  24.529  20.112  17.919  0.3013  0.0524  0.1127
71486W        W72350  21.348  16.444  18.593  0.0134 -0.4080 -0.0733
71487W        W72351  21.512  19.809  16.015  0.3302  0.0001  0.1505
71488W        W72352  24.166  18.917  19.169 -0.3232 -0.0391  0.1177
71489W        W72353  22.267  20.705  17.228  0.0322  0.0207  0.0057
71490W        W72354  26.886  21.416  16.996  0.5895 -0.0176  0.0819
71491W        W72355  23.115  20.723  17.775 -0.1261 -0.1787 -0.2125
71492W        W72356  23.470  22.957  16.563  0.1945  0.1798 -0.0608
71493W        W72357  20.774  20.867  16.920  0.2690 -0.1752  0.0925
71494W        W72358  22.755  20.659  20.575  0.0739  0.1289 -0.0821
71495W        W72359  24.580  22.317  18.587 -0.0120 -0.2604  0.1000
71496W        W72360  26.505  22.924  18.174 -0.0431  0.0300 -0.2437
71497W        W72361  24.520  19.670  19.760 -0.4566  0.0004  0.0957
71498W        W72362  20.216  18.952  15.181  0.2504 -0.1408 -0.0902
71499W        W72363  26.815  22.682  17.274 -0.0925  0.1684 -0.0009
71500W        W72364  23.945  19.825  18.772  0.0425 -0.0406 -0.2454
71501W        W72365  24.133  19.017  17.027  0.2279 -0.1166  0.0581
71502W        W72366  25.569  18.937  16.597  0.1218  0.0458 -0.1715
71503W        W72367  24.343  20.223  18.952  0.2179  0.2387  0.0588
71504W        W72368  20.910  20.248  17.661 -0.0698  0.1324  0.2123
71505W        W72369  24.498  17.551  17.888  0.0030 -0.2992 -0.0524
71506W        W72370  22.638  22.242  19.866  0.0280  0.1138  0.0902
71507W        W72371  24.067  20.271  19.472 -0.0484  0.0270 -0.0931
71508W        W72372  20.958  23.755  19.336 -0.1506  0.0572 -0.0061
71509W        W72373  24.185  21.580  17.841 -0.0160  0.0164 -0.0074
71510W        W72374  22.088  18.494  17.032  0.0644  0.2276  0.1759
71511W        W72375  23.650  19.666  16.486  0.1683  0.1627  0.4014
71512W        W72376  25.560  18.448  18.956 -0.1170  0.3032 -0.0481
71513W        W72377  23.378  20.252  15.054 -0.3442  0.0789 -0.1050
71514W        W72378  21.190  22.374  14.099 -0.1261 -0.1916 -0.0547
71515W        W72379  23.202  21.495  18.973  0.0272 -0.0447  0.3547
71516W        W72380  21.576  18.774  15.582 -0.0469  0.0414  0.0604
71517W        W72381  22.586  22.064  19.131 -0.2105  0.0632 -0.1019
71518W        W72382  26.552  21.479  16.056  0.2624 -0.0715  0.0595
71519W        W72383  23.493  16.885  17.667 -0.2782  0.1636  0.0333
71520W        W72384  20.811  18.264  16.438 -0.1000 -0.2301  0.0466
71521W        W72385  20.466  19.592  17.490  0.4210  0.0633  0.1633
71522W        W72386  22.655  18.483  16.966 -0.1536  0.1019 -0.1788
71523W        W72387  22.996  20.530  16.689  0.0880 -0.0081  0.2392
71524W        W72388  22.779  20.777  18.538 -0.1304 -0.1618  0.2170
71525W        W72389  23.361  19.702  14.324  0.1571 -0.0846 -0.0064
71526W        W72390  20.966  19.412  17.447 -0.1761 -0.2868 -0.0349
71527W        W72391  21.474  21.609  18.632  0.0931  0.0389 -0.0868
71528W        W72392  24.461  22.485  14.481  0.1574  0.1290  0.0224
71529W        W72393  25.762  15.555  17.849  0.1884  0.0732 -0.0934
71530W        W72394  26.765  22.176  16.580  0.2033  0.0309 -0.1114
71531W        W72395  22.540  19.040  20.239  0.1319  0.2449  0.0557
71532W        W72396  25.903  17.143  13.542  0.0800 -0.3106  0.0229
71533W        W72397  26.085  20.657  17.189  0.2123 -0.1883 -0.1936
71534W        W72398  20.898  21.390  15.952  0.1523  0.0969 -0.0143
71535W        W72399  24.538  20.169  16.778 -0.1387  0.1428  0.2386
71536W        W72400  24.740  17.696  18.417 -0.1131 -0.0625 -0.0973
71537W        W72401  25.266  19.831  19.959  0.0307 -0.1747  0.0822
71538W        W72402  22.949  22.498  15.850  0.1861 -0.0431  0.2533
71539W        W72403  24.148  22.813  14.171 -0.2054  0.1440  0.3680
71540W        W72404  23.399  20.538  16.247 -0.0361 -0.3460  0.1510
71541W        W72405  26.616  21.033  19.763  0.1183  0.2628 -0.0195
71542W        W72406  25.872  18.042  17.799  0.1902  0.1222 -0.2646
71543W        W72407  21.672  19.862  16.603  0.2769  0.0219 -0.0360
71544W        W72408  22.765  17.761  17.428 -0.1568  0.2500 -0.0272
71545W        W72409  23.808  17.948  17.807  0.1510  0.0619  0.0947
71546W        W72410  24.448  19.575  18.564  0.0501  0.0769 -0.1631
71547W        W72411  23.225  20.129  17.169 -0.0864  0.1608 -0.2041
71548W        W72412  24.549  21.844  13.359  0.0424  0.0221  0.2487
71549W        W72413  23.566  22.906  17.560 -0.0361  0.3268 -0.1939
71550W        W72414  26.376  21.467  16.910  0.0220 -0.0274 -0.1102
71551W        W72415  22.533  17.682  14.412  0.0095  0.0310 -0.0680
71552W        W72416  20.498  20.807  16.555  0.2024 -0.2985  0.0356
71553W        W72417  24.764  18.176  19.068  0.1645 -0.2256 -0.0469
71554W        W72418  21.796  18.319  17.613  0.0223 -0.4174 -0.1400
71555W        W72419  21.951  20.216  20.194 -0.1008  0.1930  0.2731
71556W        W72420  24.006  19.731  17.529 -0.3961  0.2689  0.1575
71557W        W72421  23.567  21.678  16.871  0.0015 -0.1937  0.3214
71558W        W72422  23.897  22.728  18.538 -0.1720 -0.1794  0.0087
71559W        W72423  23.288  19.946  17.937 -0.1695  0.2667 -0.0129
71560W        W72424  22.418  18.176  14.529 -0.0155  0.3601 -0.0045
71561W        W72425  22.093  17.169  17.823 -0.1746 -0.2200  0.3566
71562W        W72426  24.787  23.915  17.766 -0.2188 -0.1600  0.2573
71563W        W72427  22.527  16.568  17.807  0.0587 -0.1790 -0.1949
71564W        W72428  20.047  21.755  18.397 -0.0023 -0.2185 -0.3056
71565W        W72429  28.540  20.689  14.725  0.0289 -0.0693 -0.3649
71566W        W72430  20.893  17.004  19.441 -0.0474  0.2185 -0.4117
71567W        W72431  24.389  19.392  16.102  0.0926 -0.3201 -0.0118
71568W        W72432  23.375  22.412  13.603  0.0534 -0.0135 -0.0734
71569W        W72433  24.493  21.836  18.429  0.1512 -0.0186 -0.0943
71570W        W72434  24.885  17.434  13.737 -0.2484 -0.1445  0.2276
71571W        W72435  22.784  19.054  14.906  0.0230 -0.0638 -0.0353
71572W        W72436  22.942  19.829  13.513  0.0917 -0.1648  0.0968
71573W        W72437  22.251  21.203  16.001 -0.3830  0.0410  0.1397
71574W        W72438  22.596  17.455  17.046  0.2326  0.0738  0.0945
71575W        W72439  23.942  19.155  14.856 -0.2485 -0.1247 -0.1571
71576W        W72440  25.448  19.274  18.855  0.1300 -0.0279  0.1223
71577W        W72441  26.247  21.800  19.340 -0.1247 -0.2209 -0.1897
71578W        W72442  22.109  19.693  18.370 -0.3816  0.0873 -0.0975
71579W        W72443  22.916  25.524  17.187  0.1077  0.4491  0.2359
71580W        W72444  25.094  21.294  17.966  0.2115  0.0356  0.0838
71581W        W72445  23.417  21.896  17.855  0.1595 -0.2662  0.4336
71582W        W72446  22.356  19.381  15.622  0.0171  0.0705  0.1182
71583W        W72447  23.399  19.898  15.954  0.0377 -0.0936  0.0338
71584W        W72448  23.909  24.478  16.774 -0.3717 -0.2514  0.2454
71585W        W72449  23.342  16.452  17.447 -0.0379  0.2146  0.0866
71586W        W72450  21.659  19.255  17.104  0.0297  0.0507 -0.5316
71587W        W72451  22.256  22.875  17.010 -0.0016  0.3335 -0.1940
71588W        W72452  23.914  20.549  16.313 -0.3518  0.0499 -0.0474
71589W        W72453  22.519  20.295  18.408  0.1430  0.1121  0.0010
71590W        W72454  24.996  20.135  14.289 -0.1056  0.1387  0.1369
71591W        W72455  22.417  19.797  19.704 -0.4111 -0.1764  0.1251
71592W        W72456  22.467  20.892  16.377 -0.1071 -0.1985 -0.3339
71593W        W72457  20.579  14.610  15.954 -0.0763 -0.1296  0.0751
71594W        W72458  24.425  19.280  17.366  0.0171  0.2909 -0.2366
71595W        W72459  23.658  19.215  13.927  0.1611 -0.0983  0.0210
71596W        W72460  28.571  21.563  18.002  0.0835  0.0384 -0.1484
71597W        W72461  25.217  20.590  17.125 -0.1446 -0.2977  0.1499
71598W        W72462  23.043  23.914  14.211 -0.2534  0.1739  0.0710
71599W        W72463  23.300  19.630  13.773  0.0300  0.1347  0.1655
71600W        W72464  22.146  20.140  18.144  0.2099  0.1455 -0.4107
71601W        W72465  25.559  16.884  19.679  0.0130 -0.0964  0.3400
71602W        W72466  20.731  18.327  19.596 -0.2029 -0.1583  0.0313
71603W        W72467  24.087  20.416  14.559 -0.1828  0.0722  0.1779
71604W        W72468  23.880  17.296  13.721 -0.0490  0.0408  0.2696
71605W        W72469  23.870  19.677  19.227  0.0727 -0.1443  0.1708
71606W        W72470  26.808  21.374  20.138 -0.0716  0.0807 -0.3984
71607W        W72471  24.202  21.893  16.131 -0.0721  0.1709  0.0526
71608W        W72472  22.938  21.094  17.427  0.0365  0.2540  0.0086
71609W        W72473  24.205  18.812  16.136  0.0175  0.0837 -0.0364
71610W        W72474  24.341  22.817  16.951  0.1115  0.2172 -0.0835
71611W        W72475  24.618  22.240  16.232  0.4752  0.2270  0.0120
71612W        W72476  23.178  20.699  17.151 -0.0636  0.1895  0.1013
71613W        W72477  25.427  19.839  16.705 -0.1508  0.0238 -0.1462
71614W        W72478  24.423  21.576  15.690  0.1041  0.0563 -0.1579
71615W        W72479  26.764  21.914  17.019  0.0066 -0.0856 -0.3330
71616W        W72480  25.507  22.563  14.410  0.1515 -0.3942  0.2495
71617W        W72481  24.056  20.613  19.061 -0.0120 -0.2152 -0.1203
71618W        W72482  24.374  22.339  14.031 -0.1573  0.0670  0.1515
71619W        W72483  23.057  17.686  21.043 -0.0634  0.1031  0.3854
71620W        W72484  22.974  19.512  18.509  0.2422 -0.1498 -0.2263
71621W        W72485  28.163  21.053  15.130  0.1100 -0.1772  0.0247
71622W        W72486  24.237  18.734  17.461 -0.0790 -0.1667  0.3813
71623W        W72487  22.324  18.353  15.507  0.0263  0.0747 -0.2296
71624W        W72488  23.146  18.545  16.561 -0.0944 -0.1796 -0.2522
71625W        W72489  21.703  23.037  12.448 -0.0977 -0.0353 -0.0142
71626W        W72490  21.780  19.775  17.116 -0.0744  0.4331 -0.4948
71627W        W72491  25.049  21.532  16.866 -0.0265 -0.1192 -0.0944
71628W        W72492  23.817  22.480  17.536 -0.1951  0.5544  0.1624
71629W        W72493  24.495  16.037  20.786  0.0917 -0.0948  0.0062
71630W        W72494  25.025  18.224  17.229  0.0356 -0.1468  0.0200
71631W        W72495  23.723  20.232  19.050  0.2227 -0.0143 -0.1924
71632W        W72496  24.666  22.581  17.459 -0.3747  0.0557  0.2457
71633W        W72497  24.235  22.085  18.121 -0.1435  0.0185 -0.0530
71634W        W72498  24.081  20.735  17.390 -0.2395 -0.1160 -0.1700
71635W        W72499  23.551  21.829  19.361  0.1141 -0.1427 -0.0847
71636W        W72500  24.787  21.833  17.368  0.0057 -0.2655  0.0696
71637W        W72501  23.805  20.578  15.770 -0.0560  0.1909 -0.2056
71638W        W72502  19.813  21.407  15.466  0.1948  0.0734 -0.2681
71639W        W72503  21.656  20.405  20.523  0.0664 -0.1843  0.2386
71640W        W72504  26.898  23.793  16.634  0.1467  0.1514  0.1787
71641W        W72505  24.814  21.767  19.851  0.2024  0.0765 -0.1762
71642W        W72506  22.998  20.831  14.962  0.0211  0.0853 -0.0253
71643W        W72507  22.778  19.716  16.046  0.4209 -0.4894  0.1757
71644W        W72508  20.916  21.566  20.992 -0.0240 -0.1141  0.1792
71645W        W72509  21.173  19.884  21.893  0.0136 -0.2720 -0.0395
71646W        W72510  27.509  20.275  19.690  0.1698 -0.2434 -0.3308
71647W        W72511  25.835  23.615  20.872 -0.2776  0.0436  0.0355
71648W        W72512  21.361  22.018  18.946 -0.2505 -0.0044 -0.3128
71649W        W72513  25.341  21.702  18.880 -0.0564 -0.3668  0.0997
71650W        W72514  23.176  18.969  20.907  0.2288  0.1921 -0.1239
71651W        W72515  21.113  20.606  18.743  0.2316  0.2070  0.0496
71652W        W72516  25.321  22.241  21.933  0.0789 -0.2692 -0.0391
71653W        W72517  22.373  19.296  18.642  0.0660  0.1802  0.0887
71654W        W72518  21.917  19.407  23.149  0.2163 -0.0377  0.2121
71655W        W72519  23.416  18.243  19.464 -0.0419 -0.0694  0.1507
71656W        W72520  27.113  21.167  19.750 -0.2806 -0.0233  0.1267
71657W        W72521  22.108  20.014  22.099 -0.0490  0.1126 -0.0534
71658W        W72522  19.064  18.160  20.245  0.0979 -0.2828 -0.1265
71659W        W72523  19.535  22.318  23.768 -0.3056  0.2989  0.1777
71660W        W72524  23.723  20.750  18.434 -0.0733  0.2428 -0.0064
71661W        W72525  21.228  19.200  19.278 -0.0599  0.1028  0.1425
71662W        W72526  23.789  18.842  21.506  0.0347 -0.1920 -0.1815
71663W        W72527  27.208  17.485  21.573  0.1656 -0.3728  0.2193
71664W        W72528  24.331  20.186  19.895  0.3671  0.0816  0.0858
71665W        W72529  24.512  20.388  21.243 -0.0237 -0.0434 -0.2223
71666W        W72530  24.536  21.289  23.510  0.0418  0.1378  0.1123
71667W        W72531  24.145  18.710  20.610  0.3712  0.1049  0.0540
71668W        W72532  23.215  19.521  22.186 -0.1787  0.2540  0.0599
71669W        W72533  23.822  21.221  16.887  0.1841  0.0680  0.0501
71670W        W72534  25.572  19.078  19.372 -0.0873  0.0491  0.2656
71671W        W72535  22.418  20.299  21.246  0.2076  0.3305 -0.1131
71672W        W72536  23.967  20.634  19.781  0.0554  0.0398 -0.2414
71673W        W72537  21.642  18.379  21.881  0.1740 -0.2092 -0.0532
71674W        W72538  25.495  20.627  21.432  0.0242 -0.1647 -0.1037
71675W        W72539  24.471  21.110  24.880 -0.0838  0.2225  0.0093
71676W        W72540  23.980  22.310  21.111 -0.1735 -0.4603 -0.1953
71677W        W72541  23.993  20.875  22.350  0.0697  0.0716 -0.2199
71678W        W72542  22.023  19.680  23.543 -0.2350  0.2621 -0.1529
71679W        W72543  23.813  23.658  23.645 -0.1432 -0.2744 -0.1012
71680W        W72544  19.586  21.917  22.184  0.4975  0.2432  0.0611
71681W        W72545  22.701  17.085  18.696  0.2345  0.3877  0.1133
71682W        W72546  24.459  21.006  19.512  0.0984 -0.0781  0.3957
71683W        W72547  24.895  17.933  20.822 -0.3220 -0.1990  0.0622
71684W        W72548  26.409  16.669  18.928  0.0631  0.2043  0.1819
71685W        W72549  25.208  21.903  21.378  0.0097  0.0212  0.1678
71686W        W72550  25.568  23.385  20.498 -0.1029  0.0113  0.1431
71687W        W72551  26.391  19.799  17.986  0.3812 -0.2730  0.2361
71688W        W72552  21.752  22.215  19.784 -0.0205 -0.1280  0.0953
71689W        W72553  24.801  19.790  20.634  0.1130 -0.1899  0.1491
71690W        W72554  21.877  17.784  18.505  0.0405  0.2281  0.0581
71691W        W72555  25.517  21.376  23.140 -0.0349 -0.0170 -0.0195
71692W        W72556  22.436  22.394  20.355  0.2129  0.0575  0.1079
71693W        W72557  24.526  20.484  19.365  0.0955  0.0549  0.0351
71694W        W72558  22.833  20.783  23.303 -0.0087 -0.0840 -0.0467
71695W        W72559  22.200  17.621  19.375  0.2284 -0.3489  0.0243
71696W        W72560  24.018  20.199  22.973 -0.0605  0.1796 -0.3203
71697W        W72561  26.173  19.794  19.031 -0.1968 -0.0323 -0.3231
71698W        W72562  24.413  17.757  19.988  0.4366 -0.2085 -0.0826
71699W        W72563  21.884  20.734  20.802 -0.3458  0.0502 -0.0097
71700W        W72564  19.399  17.837  18.940 -0.1100  0.0261  0.2786
71701W        W72565  23.647  20.533  20.279  0.0235 -0.4037 -0.1489
71702W        W72566  26.418  22.605  20.251 -0.0065 -0.2574  0.0232
71703W        W72567  25.265  22.426  21.305 -0.2046  0.1511  0.1761
71704W        W72568  24.860  18.322  18.122  0.2286  0.1378 -0.1463
71705W        W72569  23.049  20.584  20.032 -0.1109 -0.0841  0.1596
71706W        W72570  22.936  21.468  21.197 -0.1510  0.0889  0.1138
71707W        W72571  21.933  21.129  20.482  0.0228  0.1484  0.1809
71708W        W72572  25.150  17.923  19.989  0.3194 -0.2771  0.1023
71709W        W72573  23.911  18.096  19.937 -0.0848 -0.0648 -0.2498
71710W        W72574  24.711  18.674  17.260 -0.0425 -0.0939  0.3352
71711W        W72575  20.652  18.448  19.031  0.1338  0.1666 -0.1872
71712W        W72576  21.827  20.062  17.758 -0.0973  0.0042 -0.1408
71713W        W72577  21.773  20.964  21.678 -0.2103  0.1987 -0.3989
71714W        W72578  26.148  19.869  20.420  0.0104 -0.1006 -0.1263
71715W        W72579  20.554  15.116  20.124 -0.0294  0.2430 -0.2653
71716W        W72580  21.668  21.949  17.705  0.1587  0.0451 -0.1093
71717W        W72581  23.169  19.822  19.326  0.0188 -0.1612 -0.1012
71718W        W72582  24.266  22.549  18.272  0.0272  0.1564  0.0031
71719W        W72583  24.379  21.760  22.754 -0.1649  0.2167  0.1567
71720W        W72584  21.704  16.956  18.765  0.2523 -0.0640  0.3550
71721W        W72585  23.481  21.917  19.902  0.1934  0.0255 -0.2124
71722W        W72586  24.342  18.292  19.798 -0.2170  0.0100  0.0803
71723W        W72587  23.709  18.800  20.850  0.1013 -0.1559  0.1916
71724W        W72588  23.418  21.462  20.118  0.1677  0.2018  0.0228
71725W        W72589  20.581  18.913  20.421 -0.1790 -0.2103 -0.2777
71726W        W72590  20.795  17.995  19.227  0.1017  0.0252 -0.0796
71727W        W72591  23.913  18.789  18.165 -0.2022  0.0951  0.0183
71728W        W72592  23.843  19.768  21.570 -0.0951  0.1578 -0.1124
71729W        W72593  25.415  17.495  20.006  0.1300  0.3096  0.1636
71730W        W72594  24.771  22.029  22.411 -0.0312 -0.2075  0.0544
71731W        W72595  25.462  17.385  21.126  0.1508 -0.1349 -0.1929
71732W        W72596  25.687  20.468  23.856  0.0113 -0.1568  0.0473
71733W        W72597  24.213  18.918  21.930  0.0027  0.0194  0.2291
71734W        W72598  24.584  21.514  20.305  0.1180 -0.0546 -0.0695
71735W        W72599  23.297  20.965  20.406  0.3657  0.2792  0.3140
71736W        W72600  23.544  22.555  21.114  0.1450  0.1852 -0.1290
71737W        W72601  22.487  20.572  19.326 -0.1375  0.2524 -0.1123
71738W        W72602  25.166  17.147  19.589 -0.2095 -0.1291 -0.0880
71739W        W72603  23.469  18.954  17.647  0.0702  0.2285  0.4288
71740W        W72604  25.293  19.228  20.185  0.1612 -0.0250 -0.0635
71741W        W72605  23.570  19.245  20.635  0.1001 -0.1890  0.3534
71742W        W72606  23.845  18.358  20.749  0.0701 -0.1477  0.2040
71743W        W72607  23.556  17.483  17.644  0.2392 -0.0788  0.1991
71744W        W72608  26.971  17.630  18.904 -0.0208 -0.3651  0.2802
71745W        W72609  22.215  22.062  21.507  0.1261 -0.1965 -0.4267
71746W        W72610  23.332  16.266  19.509 -0.0344  0.1685 -0.1896
71747W        W72611  23.245  21.818  20.402  0.2318 -0.0169 -0.1385
71748W        W72612  26.247  18.451  21.721  0.0414 -0.0624 -0.2198
71749W        W72613  25.577  18.759  19.857 -0.0539 -0.1536 -0.0734
71750W        W72614  24.748  23.439  17.624 -0.0344 -0.0172  0.1240
71751W        W72615  24.910  19.546  22.007  0.1824  0.0890  0.3557
71752W        W72616  24.865  17.620  21.238  0.1303  0.6401 -0.0372
71753W        W72617  22.651  19.303  22.346  0.0384 -0.0124 -0.2108
71754W        W72618  23.787  21.432  19.784  0.1000  0.3882  0.1298
71755W        W72619  26.020  19.927  22.760 -0.0817  0.0904  0.0179
71756W        W72620  24.020  22.596  22.784  0.2178 -0.1709  0.0329
71757W        W72621  25.686  19.920  19.633  0.1026 -0.0555  0.0202
71758W        W72622  20.946  20.813  20.579 -0.1572 -0.0550 -0.0325
71759W        W72623  25.619  19.769  23.069  0.1572 -0.1088 -0.0194
71760W        W72624  23.928  19.448  21.093  0.0709 -0.0178 -0.2183
71761W        W72625  25.278  16.409  19.818 -0.2035 -0.1464  0.0433
71762W        W72626  23.995  16.765  17.785  0.1325 -0.1487 -0.0944
71763W        W72627  24.885  18.813  17.735  0.1539 -0.1601 -0.1617
71764W        W72628  25.201  23.807  18.796  0.0869  0.0407  0.0701
71765W        W72629  24.139  20.539  20.264  0.2315 -0.0351 -0.3226
71766W        W72630  26.514  20.611  18.542  0.3182 -0.4893 -0.0268
71767W        W72631  24.042  17.711  19.570 -0.4064  0.3279  0.2386
71768W        W72632  23.662  20.148  20.760 -0.3080 -0.2736 -0.1903
71769W        W72633  23.238  19.340  19.193 -0.2432  0.0348 -0.0640
71770W        W72634  27.337  20.361  21.469  0.1188  0.3417  0.2300
71771W        W72635  26.446  24.084  19.182 -0.3416  0.0465 -0.2147
71772W        W72636  24.792  21.960  21.966  0.0215  0.1047  0.0573
71773W        W72637  26.241  24.040  22.229 -0.1837  0.0245 -0.1448
71774W        W72638  21.563  18.370  19.099  0.3957  0.2320 -0.2345
71775W        W72639  22.657  20.156  22.248 -0.2575 -0.0291  0.3216
71776W        W72640  27.959  18.389  18.566 -0.0171  0.3502  0.1014
71777W        W72641  22.967  21.036  21.464 -0.3570  0.2307  0.3197
71778W        W72642  22.287  18.565  21.190 -0.0023 -0.2321  0.0850
71779W        W72643  23.504  19.303  21.306 -0.1125 -0.0245  0.3170
71780W        W72644  23.123  18.095  25.115 -0.1828 -0.3572  0.1380
71781W        W72645  24.811  19.939  21.160  0.2019 -0.0190 -0.1965
71782W        W72646  25.830  21.490  19.647 -0.1331 -0.0941 -0.0026
71783W        W72647  23.204  16.777  15.629  0.2161  0.0795  0.0192
71784W        W72648  23.126  18.185  21.163 -0.0898  0.0677 -0.0559
71785W        W72649  22.185  22.012  20.098  0.1515 -0.1497 -0.0838
71786W        W72650  22.902  18.474  19.167 -0.2066 -0.0516 -0.1978
71787W        W72651  23.431  22.236  20.605  0.0289 -0.1034 -0.0974
71788W        W72652  21.388  19.731  18.422  0.0143 -0.1263  0.2594
71789W        W72653  19.829  17.921  19.898 -0.3180  0.0755  0.0616
71790W        W72654  23.624  20.535  19.396 -0.3832 -0.1797  0.2344
71791W        W72655  25.492  19.157  20.767 -0.1923 -0.2103  0.1175
71792W        W72656  24.009  20.059  21.195  0.2483  0.0406  0.4647
71793W        W72657  25.422  19.345  21.367 -0.0747  0.1540 -0.0141
71794W        W72658  23.426  17.242  16.815  0.1073 -0.0674 -0.1685
71795W        W72659  23.906  17.334  20.605  0.0661 -0.3978  0.1109
71796W        W72660  21.112  18.251  18.871  0.3440  0.0270 -0.0492
71797W        W72661  22.767  18.935  22.004  0.0974  0.2086  0.2175
71798W        W72662  24.070  19.270  21.568 -0.1180  0.1310  0.2176
71799W        W72663  21.944  19.366  21.345 -0.0981  0.0451  0.3894
71800W        W72664  24.747  20.599  18.818 -0.0335 -0.1875 -0.1802
71801W        W72665  23.506  17.778  19.655  0.0465  0.1332  0.1699
71802W        W72666  25.155  17.927  18.755 -0.0608 -0.0384 -0.1326
71803W        W72667  24.826  19.393  20.017  0.2214  0.1326 -0.1433
71804W        W72668  23.062  19.993  18.808 -0.0945 -0.0540 -0.1498
71805W        W72669  25.281  19.891  21.339 -0.2601  0.0087 -0.0605
71806W        W72670  23.932  19.730  22.562 -0.0187 -0.1807 -0.0413
71807W        W72671  25.192  17.311  22.223  0.0839 -0.0952 -0.1161
71808W        W72672  22.490  18.468  19.471  0.2796 -0.4160  0.0699
71809W        W72673  22.357  16.757  19.752 -0.0164  0.0663 -0.0994
71810W        W72674  22.927  23.674  21.671  0.0215  0.0019 -0.0278
71811W        W72675  24.044  17.916  21.370  0.0026 -0.0096 -0.2472
71812W        W72676  24.553  20.481  18.364  0.0781 -0.1803  0.0777
71813W        W72677  25.463  18.791  18.621 -0.0262  0.1634 -0.1522
71814W        W72678  24.348  22.433  20.468 -0.0383  0.0091  0.0027
71815W        W72679  25.257  18.517  21.237 -0.1088 -0.3045 -0.1791
71816W        W72680  25.009  19.688  19.483  0.1496  0.0395  0.3770
71817W        W72681  23.346  18.849  20.411 -0.1341  0.2124  0.0785
71818W        W72682  23.958  18.300  18.695 -0.0559 -0.0045  0.0906
71819W        W72683  25.205  21.403  21.464  0.0670  0.1533 -0.2029
71820W        W72684  21.921  22.414  22.445  0.0195 -0.0869 -0.2698
71821W        W72685  21.631  23.358  18.986 -0.0064 -0.2298  0.0299
71822W        W72686  24.402  17.322  18.346 -0.1930  0.1242  0.3538
71823W        W72687  23.381  20.539  22.869  0.1954  0.1764 -0.1637
71824W        W72688  25.307  22.487  19.943  0.0007  0.0511  0.1524
71825W        W72689  25.380  21.566  21.013 -0.1596 -0.1521  0.0558
71826W        W72690  24.273  20.839  18.203 -0.0301  0.0027  0.2453
71827W        W72691  23.180  18.460  17.696 -0.6051 -0.1360 -0.3959
71828W        W72692  27.042  19.327  20.316 -0.2209  0.0693  0.1780
71829W        W72693  26.451  18.463  18.555 -0.1610 -0.3995 -0.1443
71830W        W72694  21.685  17.923  18.964 -0.0248 -0.0470  0.1658
71831W        W72695  23.487  20.650  22.351 -0.1338 -0.0215  0.0395
71832W        W72696  22.383  22.578  21.447  0.1830 -0.4128  0.2494
71833W        W72697  21.681  22.413  19.123 -0.1017 -0.0260  0.0110
71834W        W72698  19.622  21.931  20.060  0.3902 -0.0807  0.4451
71835W        W72699  23.572  19.193  23.575  0.1439  0.2467 -0.0170
71836W        W72700  24.733  19.105  21.746  0.1485  0.0098 -0.1845
71837W        W72701  22.927  18.418  22.132  0.2884  0.0512 -0.2316
71838W        W72702  24.211  14.919  19.874 -0.0311 -0.1825 -0.0228
71839W        W72703  21.815  16.628  19.559 -0.0188  0.1533  0.2594
71840W        W72704  22.369  19.816  17.853 -0.1966  0.0090 -0.0645
71841W        W72705  19.395  18.899  20.917  0.1385  0.0268 -0.0220
71842W        W72706  26.172  19.077  19.963 -0.1580 -0.0884  0.1470
71843W        W72707  20.912  19.891  18.450 -0.4013 -0.1436 -0.2943
71844W        W72708  27.905  16.203  19.221 -0.0248  0.0026 -0.1504
71845W        W72709  25.672  22.151  21.465 -0.2300  0.0666  0.0449
71846W        W72710  18.405  18.039  18.176 -0.1789 -0.2023 -0.5133
71847W        W72711  20.390  21.850  21.536 -0.1559 -0.2546 -0.0557
71848W        W72712  23.293  18.110  18.423 -0.2384  0.1790  0.0333
71849W        W72713  22.079  19.028  20.387 -0.0547 -0.1603  0.2268
71850W        W72714  22.966  21.374  20.417 -0.0682 -0.0933 -0.1388
71851W        W72715  22.716  21.979  18.186  0.0388  0.0211 -0.2105
71852W        W72716  19.993  15.532  20.205 -0.0457 -0.1000 -0.0273
71853W        W72717  22.042  22.555  19.967  0.3658  0.1260  0.2857
71854W        W72718  20.808  20.787  21.570 -0.2465  0.1102 -0.1049
71855W        W72719  23.388  17.155  21.267  0.0584  0.0535 -0.1709
71856W        W72720  26.192  16.183  21.992 -0.1165 -0.3570 -0.0828
71857W        W72721  24.122  17.454  21.684  0.1395  0.1291  0.2584
71858W        W72722  25.892  18.891  19.028  0.1045 -0.4017  0.3552
71859W        W72723  26.897  20.893  17.917  0.0580  0.1872  0.1408
71860W        W72724  23.930  23.338  17.673  0.2425 -0.0215 -0.1582
71861W        W72725  24.208  21.110  26.803 -0.2707  0.2518 -0.1756
71862W        W72726  21.339  19.588  23.344  0.3197 -0.0183  0.1979
71863W        W72727  24.264  17.870  22.088  0.0284  0.0518  0.0445
71864W        W72728  23.025  17.865  19.437 -0.3057 -0.0980 -0.3775
71865W        W72729  23.194  20.945  21.986  0.1700  0.2697  0.1491
71866W        W72730  22.036  16.827  18.163 -0.0727  0.1029  0.1626
71867W        W72731  21.613  20.346  19.560 -0.0221 -0.1606  0.0187
71868W        W72732  22.097  18.988  22.393  0.0428 -0.1405 -0.1760
71869W        W72733  22.823  18.047  23.247  0.2203  0.0989  0.0260
71870W        W72734  24.714  19.905  21.705  0.0895 -0.0995  0.0254
71871W        W72735  24.857  25.061  19.781 -0.2040 -0.1167 -0.0121
71872W        W72736  24.986  19.171  20.637 -0.2668 -0.1786  0.2248
71873W        W72737  22.614  17.696  21.367  0.1235  0.2732 -0.2637
71874W        W72738  23.758  18.533  20.236 -0.3464 -0.0398 -0.1901
71875W        W72739  21.987  21.581  20.166  0.1759  0.1651  0.1231
71876W        W72740  25.640  22.597  21.713 -0.2992  0.0243 -0.0173
71877W        W72741  21.069  18.700  21.253 -0.1009  0.0214 -0.1980
71878W        W72742  23.697  20.883  21.641  0.0027 -0.3052  0.1450
71879W        W72743  27.200  20.285  19.301 -0.0933 -0.0328  0.3251
71880W        W72744  25.698  19.641  20.927  0.2467 -0.0450 -0.1356
71881W        W72745  23.134  20.213  22.450 -0.0350  0.1652 -0.3370
71882W        W72746  23.942  20.832  20.589  0.0192  0.1728  0.2329
71883W        W72747  23.904  20.032  20.344  0.1279 -0.0505 -0.1599
71884W        W72748  21.905  21.877  22.216 -0.0846  0.1522 -0.0836
71885W        W72749  20.787  20.444  22.654  0.1582  0.1370 -0.0066
71886W        W72750  24.212  19.117  20.855  0.0019  0.0157 -0.1814
71887W        W72751  22.487  19.048  21.320 -0.0280  0.0048  0.0736
71888W        W72752  21.211  19.404  17.942 -0.2492 -0.2016  0.2874
71889W        W72753  23.832  20.978  19.479  0.0969  0.1150 -0.0385
71890W        W72754  21.584  20.160  21.931  0.2234 -0.0445  0.3049
71891W        W72755  26.307  18.929  18.557  0.2804  0.1138 -0.2405
71892W        W72756  26.900  17.867  19.584 -0.0705 -0.0200 -0.2177
71893W        W72757  19.148  20.591  20.843  0.0671 -0.1339  0.1463
71894W        W72758  25.846  23.422  21.777 -0.0236 -0.1366  0.0505
71895W        W72759  25.272  22.566  22.337  0.0859  0.1603  0.0995
71896W        W72760  24.416  19.758  24.412  0.1279  0.0764 -0.1945
71897W        W72761  22.156  19.827  21.288 -0.2515 -0.2505 -0.1784
71898W        W72762  26.164  20.754  19.634 -0.1310 -0.0022  0.1776
71899W        W72763  26.047  16.880  19.738  0.0691 -0.1843 -0.0945
71900W        W72764  24.398  19.264  22.644 -0.1394 -0.1641  0.2675
71901W        W72765  23.640  21.119  22.172 -0.1075 -0.1315  0.1243
71902W        W72766  22.408  20.963  20.628  0.1107 -0.0850 -0.1336
71903W        W72767  20.628  20.102  18.118 -0.1608  0.1430 -0.1489
71904W        W72768  23.935  19.054  20.329 -0.1778  0.0453  0.2995
71905W        W72769  25.854  17.908  20.996  0.1522  0.1919 -0.3164
71906W        W72770  21.139  19.527  21.059  0.2341  0.3072  0.0939
71907W        W72771  22.736  20.988  20.230  0.1855  0.1748  0.0135
71908W        W72772  24.594  19.438  20.968  0.3229 -0.0724 -0.4275
71909W        W72773  20.879  22.970  20.812 -0.1627 -0.0236  0.0289
71910W        W72774  26.579  22.275  19.375  0.0591 -0.1700 -0.0453
71911W        W72775  20.597  19.822  20.566 -0.0892  0.0976  0.0224
71912W        W72776  27.182  22.962  18.906 -0.0663 -0.0884 -0.1466
71913W        W72777  21.557  23.691  20.733 -0.0233 -0.3147  0.1076
71914W        W72778  22.826  18.301  20.720 -0.0749 -0.0272 -0.2305
71915W        W72779  23.350  18.443  20.753  0.1357  0.1426  0.0325
71916W        W72780  24.583  21.058  21.548  0.3578 -0.1844  0.1476
71917W        W72781  25.657  23.143  23.088 -0.1635  0.2593 -0.2366
71918W        W72782  25.071  19.025  21.243 -0.0408  0.0197 -0.2072
71919W        W72783  22.788  20.585  21.484  0.2232 -0.2690  0.0205
71920W        W72784  22.157  21.443  21.491  0.0682  0.1429  0.4239
71921W        W72785  21.566  18.741  19.441  0.0015 -0.0580 -0.0631
71922W        W72786  20.615  23.938  20.592 -0.2785 -0.1562 -0.0627
71923W        W72787  23.116  21.159  19.815 -0.2222  0.0765  0.0153
71924W        W72788  20.882  21.175  19.208  0.0545 -0.1028 -0.2155
71925W        W72789  23.098  17.636  18.356 -0.0218  0.3379 -0.2277
71926W        W72790  22.967  21.664  19.987 -0.1325 -0.0123 -0.1032
71927W        W72791  23.025  20.657  19.497 -0.0342  0.0361 -0.1589
71928W        W72792  23.510  19.845  21.157  0.1515 -0.1274 -0.0840
71929W        W72793  24.107  22.680  19.328  0.2370  0.0171 -0.3282
71930W        W72794  19.277  21.209  20.104 -0.0394 -0.1899  0.0237
71931W        W72795  24.545  18.206  17.284 -0.0274 -0.2982  0.3551
71932W        W72796  23.741  19.641  22.079  0.2691  0.1533  0.0717
71933W        W72797  22.500  21.240  21.202  0.2824  0.0986 -0.1379
71934W        W72798  23.062  17.499  18.827 -0.2524  0.1452 -0.1805
71935W        W72799  24.728  18.385  20.124  0.0376 -0.0534 -0.0313
71936W        W72800  21.362  20.515  20.922 -0.0822  0.3378 -0.0939
71937W        W72801  23.540  19.982  22.388  0.2413  0.0983 -0.1760
71938W        W72802  24.766  17.146  18.885 -0.1244 -0.3798 -0.1112
71939W        W72803  22.551  19.350  17.008 -0.3074  0.2152 -0.1550
71940W        W72804  25.659  18.838  20.323 -0.2694 -0.0494 -0.0514
71941W        W72805  23.183  20.026  20.813  0.0073  0.0343  0.0447
71942W        W72806  23.651  22.896  19.373  0.3059 -0.3057  0.1104
71943W        W72807  19.026  21.261  16.015 -0.1569 -0.2357 -0.0024
71944W        W72808  21.228  19.768  22.379  0.0714  0.3256  0.0907
71945W        W72809  23.313  22.996  21.189  0.0937  0.1050  0.0517
71946W        W72810  27.697  22.095  18.958 -0.1577  0.0413  0.0422
71947W        W72811  24.706  18.914  19.991  0.1366  0.0990  0.0640
71948W        W72812  26.858  22.704  20.540  0.2767 -0.0401 -0.0312
71949W        W72813  24.791  22.051  22.917 -0.2526  0.0271  0.2036
71950W        W72814  22.183  18.167  20.174 -0.1627  0.0698 -0.3624
71951W        W72815  24.971  18.036  22.049  0.0702  0.0028  0.1228
71952W        W72816  23.222  20.495  20.602 -0.2088 -0.2317  0.0860
71953W        W72817  24.415  19.568  20.275 -0.2075  0.1288 -0.4259
71954W        W72818  23.693  18.898  25.439 -0.0362  0.1833 -0.3269
71955W        W72819  23.794  18.506  19.715  0.1113 -0.0617  0.0912
71956W        W72820  22.246  20.925  23.247  0.2809  0.0672  0.1407
71957W        W72821  21.417  21.261  21.902 -0.1802 -0.1277 -0.0360
71958W        W72822  22.738  20.097  19.339  0.0985 -0.2660 -0.1603
71959W        W72823  22.271  15.484  18.158 -0.1322  0.0318 -0.0009
71960W        W72824  26.044  20.790  19.137 -0.1517  0.1471 -0.0794
71961W        W72825  24.749  18.534  19.649 -0.1784 -0.0242  0.0068
71962W        W72826  19.331  17.477  20.553  0.0567 -0.0685  0.0900
71963W        W72827  22.294  21.972  20.606  0.1879 -0.1831 -0.2428
71964W        W72828  26.733  23.285  17.904  0.4838  0.1849  0.0801
71965W        W72829  18.152  22.410  23.994  0.0473 -0.1771  0.0318
71966W        W72830  23.961  22.293  20.126 -0.0859 -0.2378 -0.0805
71967W        W72831  21.279  19.154  18.425 -0.0556  0.0218 -0.0458
71968W        W72832  22.606  19.787  21.492  0.4003 -0.0585  0.1831
71969W        W72833  20.724  18.774  19.865  0.0146 -0.1996  0.0934
71970W        W72834  21.691  21.479  18.068 -0.0828  0.0497  0.0272
71971W        W72835  21.618  17.587  18.014  0.4512  0.1126 -0.1247
71972W        W72836  23.500  19.780  19.958 -0.0537  0.2003  0.1857
71973W        W72837  24.025  18.214  21.758 -0.1005 -0.0514 -0.1612
71974W        W72838  24.904  16.695  19.603  0.2038 -0.1073  0.4083
71975W        W72839  27.644  20.331  21.081 -0.0295  0.2019  0.1395
71976W        W72840  23.776  19.980  23.348 -0.2199 -0.0837  0.0758
71977W        W72841  25.469  19.800  17.746 -0.1073  0.0990 -0.1301
71978W        W72842  26.881  19.855  21.538 -0.0415  0.1440 -0.0765
71979W        W72843  24.436  21.435  19.806 -0.0197  0.1196 -0.0493
71980W        W72844  25.254  20.338  16.670  0.3142 -0.1214 -0.1196
71981W        W72845  22.044  21.082  21.155 -0.3137  0.1457 -0.0894
71982W        W72846  23.742  17.235  19.605 -0.0270 -0.1860  0.2406
71983W        W72847  23.506  20.836  20.838  0.1299  0.2341  0.1804
71984W        W72848  23.171  19.264  19.691 -0.2345  0.1532 -0.1412
71985W        W72849  20.456  17.876  19.597  0.0807 -0.2346 -0.0472
71986W        W72850  23.516  22.290  19.238  0.0070  0.1936 -0.0024
71987W        W72851  21.763  20.255  22.376 -0.2562  0.1453  0.0252
71988W        W72852  25.079  20.747  21.919  0.0923  0.0370 -0.2281
71989W        W72853  22.405  19.872  20.755 -0.1944 -0.1613 -0.1162
71990W        W72854  20.133  19.276  19.206 -0.0033 -0.4470 -0.0816
71991W        W72855  22.946  19.904  19.826  0.1023 -0.0826 -0.0556
71992W        W72856  19.625  17.356  19.210  0.1295 -0.4318  0.1549
71993W        W72857  27.276  19.822  19.652  0.1185  0.1019 -0.4012
71994W        W72858  25.117  18.706  20.220  0.0951 -0.1643 -0.0551
71995W        W72859  24.488  20.648  19.873 -0.0458  0.1074 -0.1530
71996W        W72860  23.213  20.294  19.239 -0.0521  0.1717  0.1119
71997W        W72861  20.592  22.739  18.316  0.0477  0.4633  0.2531
71998W        W72862  24.264  15.156  16.947 -0.0515  0.0806 -0.0706
71999W        W72863  21.256  21.704  21.720 -0.2942  0.2863  0.0952
72000W        W72864  23.271  20.259  19.736 -0.1809  0.3913  0.4010
72001W        W72865  19.098  17.275  21.387  0.1910 -0.0623  0.2734
72002W        W72866  20.008  18.625  20.838  0.1380  0.1835 -0.1159
72003W        W72867  24.311  19.049  17.810  0.2839 -0.0896  0.2303
72004W        W72868  21.319  20.011  21.397 -0.1663 -0.3248  0.0571
72005W        W72869  21.534  23.495  18.480 -0.2165  0.0187 -0.1399
72006W        W72870  22.550  17.950  19.252  0.0284 -0.0827  0.1894
72007W        W72871  22.875  22.978  19.017 -0.0747  0.3706 -0.1211
72008W        W72872  24.914  21.218  20.586 -0.2797 -0.0956  0.2126
72009W        W72873  26.733  23.540  18.891  0.2145  0.2489 -0.0972
72010W        W72874  27.069  21.904  21.637 -0.3732 -0.1425 -0.0427
72011W        W72875  22.265  21.071  20.147  0.4672 -0.0094  0.2323
72012W        W72876  26.680  18.432  20.380 -0.1477 -0.0870  0.0890
72013W        W72877  23.944  21.293  18.273 -0.1458  0.0840  0.0244
72014W        W72878  23.901  19.504  20.083 -0.0483  0.2163 -0.3342
72015W        W72879  24.432  20.135  20.418 -0.1132 -0.0941  0.1364
72016W        W72880  26.083  20.300  21.406  0.0552 -0.0705  0.3410
72017W        W72881  25.517  21.399  17.625 -0.1082 -0.0829  0.0279
72018W        W72882  22.556  17.808  20.830 -0.0202 -0.2674 -0.0329
72019W        W72883  23.104  18.732  19.557  0.2116 -0.0259  0.1339
72020W        W72884  24.097  23.175  20.762 -0.1550 -0.0467 -0.3057
72021W        W72885  21.724  17.045  21.011 -0.0647 -0.3629  0.0375
72022W        W72886  22.117  19.499  19.480  0.1913 -0.0082 -0.2018
72023W        W72887  23.283  17.893  23.129 -0.1208  0.1245  0.1725
72024W        W72888  22.120  21.294  19.662  0.0309  0.4403  0.3108
72025W        W72889  24.297  20.449  20.775 -0.0808  0.0211 -0.3082
72026W        W72890  27.192  18.672  19.248 -0.0030  0.2034 -0.1775
72027W        W72891  20.874  21.791  21.437  0.3371  0.0733 -0.0212
72028W        W72892  22.116  18.570  22.667  0.0762 -0.3593 -0.4152
72029W        W72893  24.078  21.612  18.613 -0.0144 -0.2728  0.1058
72030W        W72894  23.335  23.091  22.114 -0.1472 -0.0414  0.0620
72031W        W72895  22.594  20.682  22.044 -0.0900  0.0162 -0.0312
72032W        W72896  25.141  17.563  21.753  0.0814  0.1226  0.2235
72033W        W72897  23.546  23.755  21.067  0.5258 -0.1558 -0.1367
72034W        W72898  20.001  22.823  20.156  0.3247  0.0842 -0.2165
72035W        W72899  25.469  21.370  20.483 -0.0057 -0.1580  0.1238
72036W        W72900  25.136  22.617  19.369 -0.0788 -0.1368 -0.0015
72037W        W72901  21.563  20.715  22.010 -0.2149  0.3168  0.1348
72038W        W72902  24.807  20.332  20.811 -0.0482 -0.3333 -0.1516
72039W        W72903  26.896  21.348  20.626  0.0411  0.0684 -0.1333
72040W        W72904  24.802  21.499  22.460  0.1000 -0.0212 -0.0397
72041W        W72905  21.731  21.115  19.404  0.3656  0.2872  0.2088
72042W        W72906  21.608  20.853  18.882  0.2648  0.0603 -0.0261
72043W        W72907  25.036  21.874  27.136  0.0764  0.0665  0.0025
72044W        W72908  22.968  19.837  26.378  0.2582 -0.1227 -0.1119
72045W        W72909  25.545  20.956  23.587 -0.0251  0.1126  0.0214
72046W        W72910  24.015  20.634  24.497  0.0110 -0.3047  0.4242
72047W        W72911  21.912  21.777  21.188 -0.0206  0.0244 -0.1122
72048W        W72912  23.495  19.748  20.478  0.0278  0.2720  0.0202
72049W        W72913  22.847  21.342  22.801 -0.3008 -0.1576  0.2044
72050W        W72914  21.863  19.765  22.690  0.2705 -0.0234 -0.0530
72051W        W72915  24.894  22.784  26.795 -0.1365  0.2754 -0.0362
72052W        W72916  24.406  21.631  25.171  0.1284 -0.0950  0.3840
72053W        W72917  22.014  18.325  21.502  0.2219 -0.0297  0.0663
72054W        W72918  25.233  18.126  23.290 -0.0196 -0.3243  0.0277
72055W        W72919  23.408  19.598  23.292 -0.1684  0.1675  0.3377
72056W        W72920  24.344  18.805  26.650  0.0016 -0.0362 -0.2231
72057W        W72921  25.008  17.062  26.789  0.0379  0.0547 -0.0886
72058W        W72922  24.882  17.996  26.864  0.0058 -0.2419 -0.1100
72059W        W72923  23.541  19.972  24.244 -0.0670 -0.1910  0.0461
72060W        W72924  23.222  16.495  23.167  0.4177  0.2385 -0.1696
72061W        W72925  25.284  17.436  25.433 -0.1759 -0.1282  0.1313
72062W        W72926  26.283  18.547  24.449 -0.1624 -0.1873  0.0445
72063W        W72927  27.228  17.652  22.866  0.2472  0.2580  0.1253
72064W        W72928  23.340  16.834  24.522  0.0896  0.2317 -0.1140
72065W        W72929  23.815  20.185  24.667 -0.0448 -0.0719 -0.1558
72066W        W72930  22.330  23.377  24.877 -0.0422 -0.2327  0.2561
72067W        W72931  23.927  21.366  26.092 -0.0436 -0.2000  0.1224
72068W        W72932  24.704  17.761  25.879 -0.0415  0.1408 -0.3912
72069W        W72933  23.148  17.846  25.584 -0.1899  0.1254  0.2553
72070W        W72934  22.040  23.051  24.419 -0.0915 -0.0501  0.2274
72071W        W72935  23.646  20.922  26.807 -0.1336 -0.0080 -0.3362
72072W        W72936  22.411  21.181  23.833  0.0244 -0.0980 -0.0450
72073W        W72937  22.448  18.548  21.687 -0.2131  0.0570 -0.0660
72074W        W72938  25.234  20.105  23.045  0.0237  0.1683  0.1303
72075W        W72939  24.385  22.886  27.345  0.1232  0.2790  0.1385
72076W        W72940  22.960  21.024  27.681  0.2865  0.0147 -0.0138
72077W        W72941  23.187  17.751  24.065  0.2043 -0.1103 -0.1205
72078W        W72942  25.114  21.028  25.505  0.0888 -0.1978 -0.2828
72079W        W72943  21.030  17.572  24.346  0.1154  0.4626  0.3358
72080W        W72944  22.357  22.164  24.968 -0.3885  0.0353  0.0581
72081W        W72945  26.179  20.376  22.507  0.1068  0.2480 -0.0523
72082W        W72946  24.467  18.597  23.339  0.3127  0.2229  0.1655
72083W        W72947  26.049  20.064  19.972 -0.0058 -0.5213  0.1952
72084W        W72948  25.660  19.544  24.718 -0.0722  0.0653 -0.0687
72085W        W72949  23.170  19.496  26.026 -0.2059  0.0762  0.0328
72086W        W72950  27.393  20.493  22.844  0.1209 -0.2075 -0.1355
72087W        W72951  23.768  20.333  21.530  0.1816  0.1234  0.1886
72088W        W72952  23.346  21.883  21.812  0.2443  0.3381  0.0725
72089W        W72953  22.622  21.046  25.916 -0.1536  0.1391 -0.1203
72090W        W72954  25.206  20.924  21.127 -0.0734  0.0423 -0.1632
72091W        W72955  24.687  18.961  20.930  0.0160  0.0398  0.3026
72092W        W72956  24.251  21.158  24.327  0.0409  0.0671 -0.0776
72093W        W72957  22.344  19.410  21.666  0.0873  0.0252  0.2953
72094W        W72958  21.326  20.022  24.249 -0.0750  0.0563 -0.0463
72095W        W72959  23.657  17.668  24.561  0.2589 -0.3787 -0.1677
72096W        W72960  24.711  20.564  23.699  0.2796  0.2139  0.0445
72097W        W72961  25.546  18.686  22.036 -0.0742  0.1110 -0.0214
72098W        W72962  21.401  22.038  25.003  0.0371  0.0276  0.1527
72099W        W72963  22.478  19.580  23.756  0.0066  0.2903 -0.1035
72100W        W72964  26.471  19.803  23.090  0.0235  0.2041  0.2874
72101W        W72965  19.026  19.972  22.790 -0.1918 -0.0986 -0.1668
72102W        W72966  23.975  20.544  21.914  0.0562  0.0531 -0.3068
72103W        W72967  26.943  19.041  23.673 -0.2559  0.3024  0.3066
72104W        W72968  22.767  20.930  24.181  0.1443 -0.2613 -0.1817
72105W        W72969  24.445  20.559  26.803  0.1150  0.0006  0.0728
72106W        W72970  22.551  18.794  23.311 -0.0777  0.1114  0.0190
72107W        W72971  21.272  17.192  24.165  0.0780  0.1080  0.0968
72108W        W72972  26.371  18.284  24.846 -0.1261 -0.0437 -0.0492
72109W        W72973  23.661  20.940  18.933  0.1405 -0.0465  0.1066
72110W        W72974  20.404  18.277  20.713  0.2126 -0.0448 -0.0971
72111W        W72975  21.767  20.044  24.035 -0.1467  0.1316  0.2884
72112W        W72976  22.526  19.669  23.029 -0.3460  0.2373 -0.0324
72113W        W72977  25.509  22.083  24.392 -0.0114 -0.1789 -0.1712
72114W        W72978  24.217  16.264  21.165  0.1684 -0.1713  0.0606
72115W        W72979  26.797  22.744  24.899  0.1775  0.0014  0.2368
72116W        W72980  27.021  19.230  26.072 -0.2919  0.1051  0.4237
72117W        W72981  25.625  21.627  24.052  0.0188 -0.1691  0.2351
72118W        W72982  25.735  20.693  22.450  0.0735  0.0214  0.0630
72119W        W72983  22.043  21.370  23.392 -0.0511  0.0075 -0.1976
72120W        W72984  24.496  22.555  25.388 -0.0691  0.0961  0.2119
72121W        W72985  26.437  20.673  21.419  0.0466  0.0585 -0.0635
72122W        W72986  25.060  18.127  23.823  0.1028 -0.1762 -0.0143
72123W        W72987  24.007  20.720  25.014 -0.1569  0.1499  0.1172
72124W        W72988  21.930  18.216  23.610  0.0494  0.1629 -0.1246
72125W        W72989  23.088  20.569  25.871  0.1868 -0.2702  0.0111
72126W        W72990  24.558  19.208  22.178  0.4346  0.2496 -0.0945
72127W        W72991  24.453  17.729  22.945  0.0765 -0.0521  0.0563
72128W        W72992  22.400  17.331  22.206 -0.2689  0.0434 -0.3550
72129W        W72993  24.656  21.932  23.696 -0.1014  0.0475  0.2426
72130W        W72994  25.134  17.188  27.550 -0.0794 -0.0292 -0.2959
72131W        W72995  23.806  19.837  25.038  0.1745  0.0364 -0.1751
72132W        W72996  26.773  20.148  23.361  0.2325  0.1093  0.2737
72133W        W72997  25.975  19.002  20.778  0.1928  0.2792 -0.1003
72134W        W72998  25.117  19.692  22.861  0.1988 -0.1430 -0.1707
72135W        W72999  21.859  20.345  25.122 -0.1039  0.3350  0.2406
72136W        W73000  24.469  17.390  23.475  0.0857  0.0497  0.2977
72137W        W73001  22.437  19.793  26.333  0.3274  0.0165 -0.2375
72138W        W73002  25.670  22.254  20.201  0.4263 -0.0586  0.1708
72139W        W73003  27.284  20.095  25.289 -0.0418 -0.0775 -0.0024
72140W        W73004  23.641  22.912  24.127  0.0055  0.0767  0.0125
72141W        W73005  24.940  16.861  24.353 -0.1483 -0.2445 -0.3054
72142W        W73006  26.059  17.846  24.976 -0.0862  0.1032  0.1033
72143W        W73007  25.517  22.843  22.741 -0.1580 -0.0838  0.3900
72144W        W73008  20.758  21.143  22.808  0.1846 -0.1332 -0.0429
72145W        W73009  27.068  18.828  22.183 -0.0353  0.0913  0.0564
72146W        W73010  23.280  20.593  21.576 -0.4892 -0.1225  0.1077
72147W        W73011  24.196  16.894  26.114  0.0375 -0.0803 -0.0382
72148W        W73012  26.400  17.344  25.725  0.0916  0.0084 -0.3198
72149W        W73013  22.318  19.421  24.246  0.3399  0.0521  0.0479
72150W        W73014  26.183  20.758  26.283  0.0741  0.1248  0.0239
72151W        W73015  27.327  19.308  23.279  0.0394  0.0698  0.2407
72152W        W73016  22.536  20.570  25.168 -0.2641 -0.0780 -0.0366
72153W        W73017  24.238  21.550  24.654  0.1899 -0.0727  0.1524
72154W        W73018  23.026  19.825  23.085  0.0004  0.0943 -0.0266
72155W        W73019  24.026  17.460  25.861 -0.1883  0.2369  0.3498
72156W        W73020  25.637  21.477  25.012  0.1393  0.0389  0.0125
72157W        W73021  23.235  19.041  24.546  0.2009  0.1768  0.0241
72158W        W73022  25.336  18.642  23.154 -0.1301  0.0309 -0.3625
72159W        W73023  25.411  19.978  24.571 -0.1503  0.0002  0.0909
72160W        W73024  22.928  19.569  24.662  0.0323  0.0838  0.1002
72161W        W73025  24.367  19.706  21.380  0.0809  0.2018 -0.2588
72162W        W73026  28.563  21.436  24.437 -0.2241 -0.1956  0.0624
72163W        W73027  23.627  19.764  23.806 -0.1281 -0.4178 -0.0160
72164W        W73028  23.989  22.402  22.323 -0.1460  0.1474  0.0861
72165W        W73029  26.406  19.818  23.598  0.0083 -0.0066  0.0578
72166W        W73030  24.349  20.136  22.617 -0.2200  0.0243  0.1425
72167W        W73031  24.811  18.659  21.474 -0.1166  0.3768  0.2226
72168W        W73032  26.611  17.959  22.028  0.0380  0.4506  0.0907
72169W        W73033  20.766  17.154  23.518 -0.1944 -0.2630 -0.0223
72170W        W73034  24.022  16.973  23.340  0.1396  0.0646  0.0412
72171W        W73035  25.085  21.561  26.191 -0.0010  0.1727 -0.1254
72172W        W73036  22.855  20.867  25.469  0.0389  0.3038  0.4726
72173W        W73037  25.209  20.582  23.660 -0.5095  0.0586 -0.0568
72174W        W73038  24.463  18.459  24.921  0.0111 -0.0656 -0.2274
72175W        W73039  19.910  21.629  22.394  0.0238 -0.4143  0.0096
72176W        W73040  26.009  19.261  23.789 -0.0940  0.0746  0.0002
72177W        W73041  28.848  19.821  24.955 -0.0932 -0.0366  0.1876
72178W        W73042  21.071  21.083  24.988 -0.0584  0.0490 -0.2381
72179W        W73043  26.569  16.902  19.948 -0.0811 -0.0982 -0.0951
72180W        W73044  25.385  19.802  21.935 -0.0096 -0.2005  0.1348
72181W        W73045  22.941  20.311  23.150  0.2082  0.1587  0.0545
72182W        W73046  24.934  20.693  26.177 -0.0768 -0.0901 -0.1398
72183W        W73047  21.537  15.273  23.320  0.0737 -0.1548  0.0870
72184W        W73048  24.050  19.272  22.207  0.0347 -0.0168 -0.1467
72185W        W73049  23.967  19.140  23.317  0.0359  0.1345  0.4095
72186W        W73050  22.195  19.277  25.451 -0.1026  0.1430  0.1616
72187W        W73051  24.981  20.210  25.959 -0.1899  0.2131 -0.1397
72188W        W73052  22.392  18.724  24.842 -0.1675 -0.0084  0.0697
72189W        W73053  24.442  19.229  23.410  0.1220  0.1628  0.3514
72190W        W73054  25.127  22.431  27.680 -0.0035  0.0051  0.0512
72191W        W73055  25.262  21.408  23.781  0.1116 -0.0047  0.2961
72192W        W73056  21.770  17.956  24.124 -0.1359 -0.0930 -0.3377
72193W        W73057  23.338  19.097  24.009  0.0843  0.0409 -0.0099
72194W        W73058  23.843  22.375  27.473 -0.2853  0.0006 -0.2598
72195W        W73059  22.920  17.658  23.637 -0.2477 -0.0291 -0.1472
72196W        W73060  22.246  17.814  18.893 -0.3848  0.2617  0.0025
72197W        W73061  25.101  19.106  24.075  0.0113 -0.0381  0.0988
72198W        W73062  25.524  18.082  24.910  0.0737  0.2770  0.2300
72199W        W73063  21.657  20.450  26.835 -0.1287  0.0112  0.1006
72200W        W73064  22.483  20.214  21.758  0.1860 -0.0534 -0.2616
72201W        W73065  20.553  18.604  23.187 -0.0096  0.0547 -0.0945
72202W        W73066  25.652  20.175  21.113 -0.1647 -0.1392  0.2293
72203W        W73067  26.099  20.277  24.080 -0.0517  0.3278 -0.0707
72204W        W73068  22.713  18.425  23.864  0.1172  0.2432  0.0583
72205W        W73069  24.479  19.230  25.779  0.2273  0.3461  0.2456
72206W        W73070  24.939  20.443  24.180  0.3026  0.3870  0.2587
72207W        W73071  22.683  17.944  24.019 -0.1921 -0.3461 -0.3851
72208W        W73072  24.773  17.531  22.098  0.1010  0.0777 -0.0697
72209W        W73073  23.044  18.919  23.092 -0.1403 -0.0224 -0.2718
72210W        W73074  19.866  19.397  23.796  0.0135  0.1790 -0.1865
72211W        W73075  23.891  21.552  22.674 -0.0122 -0.0200 -0.0877
72212W        W73076  24.369  20.639  22.832 -0.1150 -0.1417  0.0902
72213W        W73077  28.995  19.577  22.704  0.0916  0.2706  0.2456
72214W        W73078  24.665  19.798  22.743  0.0906 -0.2188 -0.0025
72215W        W73079  25.711  22.543  23.853 -0.3422 -0.0963 -0.0430
72216W        W73080  25.329  19.903  19.162 -0.2502 -0.1024 -0.0974
72217W        W73081  21.265  18.400  20.548 -0.0202 -0.0344 -0.0644
72218W        W73082  24.859  22.763  24.436 -0.4646 -0.1456  0.1128
72219W        W73083  23.951  21.906  25.197 -0.1326  0.3795  0.2726
72220W        W73084  23.304  20.841  26.315 -0.1808  0.0535  0.0762
72221W        W73085  20.051  23.214  22.365  0.0090  0.1949  0.0810
72222W        W73086  24.114  18.359  23.580 -0.0292 -0.1501 -0.2316
72223W        W73087  25.249  20.661  22.748 -0.3196 -0.1111 -0.0133
72224W        W73088  26.506  25.493  24.078  0.0825  0.1972  0.2941
72225W        W73089  26.120  19.967  20.914  0.1049  0.0332  0.0356
72226W        W73090  23.673  19.469  24.223 -0.3610 -0.3642 -0.0796
72227W        W73091  24.278  18.584  21.542 -0.0350 -0.1995  0.0919
72228W        W73092  25.521  19.868  22.569 -0.0420 -0.1176  0.3055
72229W        W73093  24.494  18.389  22.654 -0.3341 -0.1280  0.0655
72230W        W73094  24.659  18.722  22.115 -0.1852 -0.2515  0.0151
72231W        W73095  23.155  19.264  26.611  0.1367  0.2103  0.0951
72232W        W73096  22.416  21.262  24.403 -0.1383 -0.1269 -0.0310
72233W        W73097  21.582  19.867  20.195  0.0690 -0.1343 -0.4069
72234W        W73098  23.635  19.819  25.566 -0.2111  0.1619  0.2556
72235W        W73099  24.898  18.915  26.724  0.1229 -0.2199 -0.0870
72236W        W73100  24.793  17.623  24.227 -0.2025 -0.1312  0.0070
72237W        W73101  23.869  18.778  26.513  0.0215  0.3337  0.2259
72238W        W73102  25.962  21.455  20.303 -0.1608  0.0775 -0.1850
72239W        W73103  26.049  18.616  25.003 -0.0165  0.1487  0.0438
72240W        W73104  22.913  17.492  24.403 -0.0776  0.1225 -0.0606
72241W        W73105  21.738  18.156  24.694 -0.0516 -0.0505 -0.1238
72242W        W73106  24.220  20.163  23.548  0.1061 -0.1015 -0.2415
72243W        W73107  24.676  19.735  25.846 -0.0603  0.0836  0.1515
72244W        W73108  24.748  19.342  23.029  0.0725  0.2187  0.2250
72245W        W73109  23.567  19.413  25.243 -0.0996  0.2420  0.1953
72246W        W73110  22.392  17.340  24.709  0.0212 -0.1028 -0.2224
72247W        W73111  21.972  17.816  20.986  0.0723 -0.0195 -0.2900
72248W        W73112  19.953  21.342  23.110 -0.0128  0.0107  0.1033
72249W        W73113  23.100  19.470  25.564  0.0666 -0.2999 -0.0191
72250W        W73114  23.438  18.094  24.350 -0.1159 -0.1027 -0.3007
72251W        W73115  23.965  22.109  22.712 -0.2081  0.3156  0.1407
72252W        W73116  23.524  20.266  21.948  0.2543  0.0450 -0.4040
72253W        W73117  24.530  18.913  25.292 -0.1357 -0.0943  0.3253
72254W        W73118  23.219  18.868  25.582  0.0412  0.5390  0.0539
72255W        W73119  21.820  19.872  24.930 -0.0992  0.0552 -0.0286
72256W        W73120  28.754  17.856  26.659 -0.2141 -0.1847  0.2085
72257W        W73121  26.859  21.489  27.090  0.3947 -0.3209 -0.1842
72258W        W73122  22.876  18.879  24.826 -0.0691  0.0408  0.1105
72259W        W73123  25.145  20.182  20.431  0.1932 -0.0773 -0.2128
72260W        W73124  25.595  21.854  19.329 -0.0723 -0.0222 -0.1176
72261W        W73125  25.574  16.628  24.882 -0.0809 -0.3134  0.3051
72262W        W73126  23.170  21.760  25.606 -0.0236 -0.5525  0.0053
72263W        W73127  25.155  21.358  26.927  0.0514 -0.2593  0.4089
72264W        W73128  25.731  18.029  23.703  0.0718  0.2446 -0.1491
72265W        W73129  24.772  20.745  25.726 -0.0371  0.3499 -0.1909
72266W        W73130  24.552  18.105  23.372  0.0713  0.2091 -0.2156
72267W        W73131  26.539  19.020  20.484 -0.2700 -0.0094 -0.1066
72268W        W73132  21.968  18.600  24.506  0.0561 -0.1945 -0.1708
72269W        W73133  24.436  18.573  25.834 -0.2040  0.2146  0.1593
72270W        W73134  26.459  20.988  25.203 -0.0138 -0.6482  0.0760
72271W        W73135  24.791  17.591  25.401  0.0894 -0.3239  0.0278
72272W        W73136  24.576  21.070  23.968 -0.0148 -0.2873  0.3144
72273W        W73137  24.171  17.654  25.432 -0.2380  0.0774 -0.1756
72274W        W73138  24.515  20.176  25.764 -0.1140  0.2231 -0.0944
72275W        W73139  22.531  20.726  21.032 -0.0990  0.2948  0.0496
72276W        W73140  27.004  18.864  21.659  0.2750 -0.5915 -0.0689
72277W        W73141  20.891  17.934  24.019 -0.2589  0.2108  0.0762
72278W        W73142  22.563  18.921  22.838 -0.1383  0.3163  0.0276
72279W        W73143  27.989  20.339  24.658 -0.2513 -0.2286 -0.2170
72280W        W73144  24.672  15.136  26.364 -0.0771 -0.0693 -0.1893
72281W        W73145  23.320  18.382  23.053 -0.3619  0.2052 -0.1163
72282W        W73146  27.482  19.523  22.749  0.0298 -0.0090 -0.2066
72283W        W73147  24.744  21.333  22.946  0.1844 -0.1600 -0.2949
72284W        W73148  24.237  20.159  24.988 -0.1374 -0.0051 -0.0427
72285W        W73149  23.388  18.481  26.210  0.3270  0.1318 -0.2189
72286W        W73150  25.219  17.393  23.032  0.0308  0.1783  0.4145
72287W        W73151  24.168  18.032  22.583 -0.2001  0.1750  0.0236
72288W        W73152  21.785  20.079  23.508 -0.0831  0.0618  0.3034
72289W        W73153  24.731  22.832  23.404  0.0258  0.2633  0.0166
72290W        W73154  24.988  19.104  27.831 -0.0740 -0.3872  0.1420
72291W        W73155  25.567  20.628  21.907 -0.0719 -0.0203  0.4560
72292W        W73156  20.710  20.102  21.799 -0.2208  0.0501 -0.0048
72293W        W73157  23.797  16.582  23.705  0.0522  0.2561 -0.2410
72294W        W73158  23.102  23.439  23.648  0.1361 -0.1354  0.2424
72295W        W73159  22.767  19.698  24.195 -0.0292 -0.1626  0.1936
72296W        W73160  27.774  19.319  22.334  0.2035 -0.0534  0.0057
72297W        W73161  20.768  19.610  22.085 -0.0537 -0.0219  0.1851
72298W        W73162  26.448  22.010  23.895  0.5245 -0.1596 -0.1688
72299W        W73163  25.717  20.162  22.139  0.2479 -0.0523 -0.3018
72300W        W73164  23.630  15.024  25.780  0.1931 -0.0136 -0.1411
72301W        W73165  25.752  23.583  22.779  0.1568 -0.0996  0.2482
72302W        W73166  27.248  20.077  24.680 -0.0167 -0.1865  0.2008
72303W        W73167  24.056  17.787  20.895 -0.0477 -0.2855  0.1889
72304W        W73168  25.829  17.933  22.412  0.2110 -0.0373 -0.1009
72305W        W73169  25.107  17.373  24.453  0.1496 -0.0769 -0.0157
72306W        W73170  25.743  19.980  24.997  0.2028 -0.3013 -0.0008
72307W        W73171  21.336  22.671  25.629 -0.1466 -0.2188  0.0853
72308W        W73172  24.799  18.805  26.266  0.0607  0.3022  0.3157
72309W        W73173  21.304  20.853  21.610 -0.0890 -0.1531  0.4010
72310W        W73174  23.945  23.439  24.531  0.0115  0.1074  0.1299
72311W        W73175  24.435  19.884  25.401  0.3942 -0.0361 -0.2374
72312W        W73176  25.561  20.969  20.710 -0.0231  0.1857  0.1607
72313W        W73177  23.114  19.294  20.439  0.0972  0.0260 -0.1465
72314W        W73178  25.284  19.767  23.496  0.0279  0.1987  0.1987
72315W        W73179  24.618  17.202  24.480  0.0893  0.2774 -0.0304
72316W        W73180  23.268  20.208  26.127 -0.1979 -0.1245  0.0745
72317W        W73181  26.324  22.385  26.076 -0.2407  0.1650 -0.0116
72318W        W73182  23.935  20.506  26.767 -0.4402 -0.2413  0.0551
72319W        W73183  24.422  18.361  26.283 -0.1863 -0.2405 -0.0029
72320W        W73184  23.896  18.710  23.077 -0.0141  0.0734 -0.0037
72321W        W73185  22.954  18.929  22.502 -0.1418 -0.1040  0.3441
72322W        W73186  23.415  17.633  25.065 -0.0489  0.2410 -0.0123
72323W        W73187  23.006  18.287  24.207 -0.1901  0.1099  0.0728
72324W        W73188  24.516  16.693  21.152  0.0883  0.2510 -0.0803
72325W        W73189  22.867  17.885  22.227  0.0736  0.2242 -0.0121
72326W        W73190  22.335  20.302  26.461 -0.1033 -0.2734  0.1583
72327W        W73191  23.510  21.987  22.863  0.0252  0.2615 -0.0218
72328W        W73192  27.143  15.487  27.760  0.1401 -0.1606 -0.1568
72329W        W73193  27.073  19.334  22.449 -0.1674  0.0969 -0.0450
72330W        W73194  23.971  20.210  27.277 -0.5095  0.0279  0.0861
72331W        W73195  23.604  18.099  23.890 -0.3669 -0.2074 -0.0958
72332W        W73196  26.782  21.511  19.565  0.0667  0.2334  0.1913
72333W        W73197  23.927  19.120  22.773  0.1822 -0.0023  0.1865
72334W        W73198  26.782  18.396  21.755  0.3352  0.0198 -0.0597
72335W        W73199  26.018  17.518  23.593 -0.0007 -0.1604 -0.1480
72336W        W73200  23.991  20.180  25.548 -0.3365  0.0291 -0.1073
72337W        W73201  23.827  19.537  23.062  0.1000 -0.2560  0.1103
72338W        W73202  23.986  19.562  20.566  0.0488 -0.1633 -0.0602
72339W        W73203  24.145  18.243  23.080 -0.0882 -0.1173 -0.5267
72340W        W73204  23.777  20.957  24.252 -0.0381 -0.1994 -0.2753
72341W        W73205  23.894  21.100  24.731 -0.4964  0.0443 -0.1836
72342W        W73206  25.259  20.548  25.173  0.0636 -0.0183 -0.1121
72343W        W73207  22.166  21.496  20.860  0.2511 -0.0763 -0.0159
72344W        W73208  22.810  20.000  24.950 -0.0919 -0.1556  0.3755
72345W        W73209  24.985  21.159  27.403 -0.0432  0.0381 -0.1695
72346W        W73210  26.456  21.243  22.246  0.0621 -0.0693  0.2714
72347W        W73211  25.245  20.016  20.880 -0.1778  0.0458 -0.0139
72348W        W73212  24.933  19.982  24.462  0.3966  0.2233 -0.2091
72349W        W73213  23.675  19.309  24.752 -0.0437  0.0519  0.0376
72350W        W73214  24.170  18.456  22.155  0.1946 -0.1620 -0.2397
72351W        W73215  25.076  18.548  21.904  0.1878  0.1688  0.0938
72352W        W73216  20.713  20.761  27.855 -0.2307 -0.2398  0.0039
72353W        W73217  22.961  19.355  22.861  0.0553  0.1007  0.2942
72354W        W73218  20.158  20.974  26.035 -0.1282  0.0199  0.3760
72355W        W73219  22.313  18.826  24.255 -0.0788 -0.2432 -0.0393
72356W        W73220  23.478  23.604  24.859 -0.3281  0.2196 -0.0505
72357W        W73221  24.456  20.595  24.166 -0.0290 -0.0753 -0.1971
72358W        W73222  22.411  20.584  28.710 -0.0504 -0.0744 -0.1876
72359W        W73223  22.230  17.784  22.120  0.2220  0.0260  0.2199
72360W        W73224  22.471  19.194  25.008  0.0971 -0.1128  0.1868
72361W        W73225  25.259  20.082  25.103  0.1811  0.1004  0.1034
72362W        W73226  24.321  19.659  24.939  0.0581  0.2339  0.2934
72363W        W73227  23.993  19.752  26.408  0.2000  0.1025  0.0725
72364W        W73228  27.221  22.651  20.120  0.2762 -0.1774  0.0683
72365W        W73229  24.228  18.069  25.861 -0.0244  0.0074  0.2600
72366W        W73230  21.807  18.937  23.483  0.2627 -0.3000  0.1076
72367W        W73231  21.523  17.623  23.344 -0.1828 -0.0073  0.3483
72368W        W73232  24.007  19.572  23.543 -0.2194 -0.0328  0.2256
72369W        W73233  25.769  18.731  22.910  0.1114 -0.0443  0.0940
72370W        W73234  21.173  18.600  21.751  0.1080  0.3176  0.1638
72371W        W73235  24.711  17.962  22.485  0.3567  0.1518 -0.0520
72372W        W73236  23.611  20.983  23.738  0.0128  0.0497  0.0923
72373W        W73237  23.070  17.562  26.405  0.1285  0.1128 -0.2292
72374W        W73238  26.616  21.148  22.739  0.2825 -0.2829 -0.4076
72375W        W73239  26.441  18.635  25.379 -0.0053 -0.0156 -0.2383
72376W        W73240  25.220  19.294  23.344  0.0187  0.0224  0.0334
72377W        W73241  25.281  20.083  23.928 -0.0153  0.0055  0.2217
72378W        W73242  26.479  19.411  24.780  0.0861  0.0479  0.0732
72379W        W73243  19.875  20.795  23.452  0.1012  0.1352  0.2186
72380W        W73244  26.102  19.791  24.599 -0.1222 -0.0657 -0.0313
72381W        W73245  22.932  20.328  25.368 -0.0484  0.0142  0.2549
72382W        W73246  23.735  17.630  24.035 -0.2197  0.1340 -0.2839
72383W        W73247  23.787  21.586  21.240  0.2041  0.0665 -0.2271
72384W        W73248  25.502  15.933  24.062  0.1780 -0.0582 -0.2823
72385W        W73249  23.221  16.834  22.601 -0.0777 -0.2365  0.2393
72386W        W73250  20.649  22.208  24.434 -0.2125 -0.1080 -0.0679
72387W        W73251  22.759  21.284  22.209 -0.4032 -0.3592 -0.2763
72388W        W73252  23.295  19.006  25.082  0.0395  0.0346 -0.0827
72389W        W73253  23.388  19.567  21.743  0.0449 -0.1567  0.2522
72390W        W73254  21.564  17.983  21.342 -0.0033  0.0061 -0.1307
72391W        W73255  23.207  21.095  22.474  0.0618 -0.3697  0.2342
72392W        W73256  23.627  18.838  25.995 -0.0992 -0.0815 -0.0417
72393W        W73257  26.546  20.027  25.745 -0.0359  0.3343  0.2342
72394W        W73258  23.845  20.172  19.899 -0.0199 -0.0106 -0.2423
72395W        W73259  23.927  22.230  24.842  0.0880 -0.0385  0.1160
72396W        W73260  23.010  21.645  23.498  0.1346  0.1939 -0.0204
72397W        W73261  23.537  20.683  24.794  0.3705 -0.0067 -0.1197
72398W        W73262  25.559  17.618  18.644 -0.0549  0.0439 -0.2776
72399W        W73263  22.443  21.729  24.340 -0.1343  0.2442 -0.0163
72400W        W73264  25.150  18.718  27.104  0.0549  0.1293  0.3473
72401W        W73265  24.095  19.424  25.491 -0.1192 -0.2278 -0.0166
72402W        W73266  21.797  21.364  22.713 -0.1154 -0.0157 -0.0211
72403W        W73267  23.660  20.954  23.180 -0.0500  0.1231 -0.2138
72404W        W73268  25.665  20.282  22.782  0.1462 -0.2379 -0.3027
72405W        W73269  24.692  19.909  26.756 -0.0728 -0.1193 -0.2397
72406W        W73270  23.566  20.460  24.295 -0.2532 -0.1242 -0.1088
72407W        W73271  24.411  21.644  24.143  0.0877  0.2352 -0.0712
72408W        W73272  25.624  18.699  25.899 -0.1289  0.1648  0.1807
72409W        W73273  26.269  19.913  22.243  0.1095  0.1801  0.0990
72410W        W73274  25.739  19.689  21.445  0.2025  0.0869  0.1579
72411W        W73275  25.102  17.055  21.837  0.0735  0.2037 -0.1803
72412W        W73276  24.359  16.950  23.733  0.0913  0.0440 -0.0379
72413W        W73277  21.184  20.456  22.321 -0.1386  0.0750  0.1329
72414W        W73278  24.870  19.393  22.509  0.1454 -0.2775  0.4164
72415W        W73279  26.339  23.169  23.756  0.1203  0.0451  0.2323
72416W        W73280  25.861  21.000  22.111 -0.1210 -0.0231  0.3832
72417W        W73281  23.786  21.411  23.543 -0.2355  0.1789 -0.0488
72418W        W73282  22.473  17.065  24.288  0.1258  0.1455  0.1325
72419W        W73283  21.773  16.820  23.014 -0.3089 -0.3344  0.1580
72420W        W73284  25.039  20.534  23.209  0.1208  0.2523  0.2551
72421W        W73285  24.074  19.120  25.139 -0.0716  0.0194  0.4724
72422W        W73286  22.719  20.506  26.929  0.0987 -0.2246 -0.2073
72423W        W73287  23.571  19.368  25.743  0.0122  0.0733 -0.0364
72424W        W73288  21.964  20.972  23.670 -0.0499  0.2305 -0.1788
72425W        W73289  23.847  18.415  21.233 -0.2027 -0.0726  0.1107
72426W        W73290  24.894  18.256  24.810 -0.2816  0.1211 -0.0501
72427W        W73291  23.225  21.003  22.981 -0.1070 -0.0258 -0.1938
72428W        W73292  24.537  19.734  23.638  0.1286 -0.1393 -0.0252
72429W        W73293  23.511  23.133  24.629 -0.0887 -0.2275 -0.1747
72430W        W73294  23.742  18.735  23.741 -0.0492  0.0254  0.2512
72431W        W73295  24.271  21.234  22.550 -0.2467 -0.2368  0.0643
72432W        W73296  26.278  18.331  22.239 -0.1198  0.0207 -0.1732
72433W        W73297  22.790  19.354  26.321 -0.1417  0.0111 -0.0023
72434W        W73298  22.979  20.115  24.437 -0.1003 -0.0880  0.0442
72435W        W73299  24.432  19.320  23.912  0.0187 -0.2152  0.2580
72436W        W73300  24.813  22.790  23.935  0.1819  0.0283 -0.0108
72437W        W73301  21.318  20.132  26.338 -0.2552 -0.0483  0.0253
72438W        W73302  23.242  17.246  28.424  0.1904 -0.0999 -0.0997
72439W        W73303  25.931  20.631  21.055 -0.0540 -0.4269 -0.0833
72440W        W73304  24.088  19.227  26.536  0.1154 -0.1669 -0.0823
72441W        W73305  22.844  19.749  20.550 -0.3734 -0.3588 -0.1097
72442W        W73306  22.170  16.680  23.964  0.0391  0.1702 -0.1581
72443W        W73307  23.321  24.815   0.168  0.1091  0.0130 -0.0672
72444W        W73308  22.752  17.530  28.602  0.0329 -0.0452 -0.0145
72445W        W73309  24.860  18.208  24.332  0.2581  0.1646  0.1339
72446W        W73310  24.487  21.134   0.064 -0.0363  0.0090  0.1809
72447W        W73311  23.792  23.428  27.558  0.0426  0.0376  0.3832
72448W        W73312  24.604  19.521  27.701 -0.0394 -0.0141 -0.5643
72449W        W73313  22.533  18.844  26.288  0.0271  0.4576  0.1093
72450W        W73314  24.961  19.725  25.397  0.0610  0.0348  0.0433
72451W        W73315  23.536  21.731   1.709 -0.0997  0.0069 -0.2653
72452W        W73316  23.887  19.685  28.020  0.1694 -0.1697 -0.1749
72453W        W73317  21.770  19.566  26.518 -0.2065  0.1884  0.1047
72454W        W73318  25.887  19.601  28.342  0.0768 -0.0150  0.1085
72455W        W73319  25.762  17.619  28.470  0.1218  0.0598  0.2433
72456W        W73320  27.346  19.334  28.322 -0.0360  0.0640  0.1835
72457W        W73321  25.654  18.293  27.872  0.1018 -0.0690  0.0240
72458W        W73322  23.364  19.925   1.877  0.0616  0.3354 -0.1928
72459W        W73323  23.614  21.003  28.389  0.2584  0.1521 -0.1294
72460W        W73324  24.465  19.084  28.270 -0.1645  0.3420  0.0892
72461W        W73325  23.622  19.341   0.709  0.0383 -0.3358 -0.3148
72462W        W73326  27.288  20.326  26.826 -0.2109 -0.1995  0.0095
72463W        W73327  27.115  19.682   0.109  0.0973 -0.0933 -0.0451
72464W        W73328  24.939  21.690  26.624  0.3473  0.1677 -0.1159
72465W        W73329  23.941  22.080   1.762  0.4047  0.1831  0.0747
72466W        W73330  25.002  19.956  27.259  0.0584 -0.0761 -0.2262
72467W        W73331  22.106  21.068  27.426  0.1597  0.1017 -0.0301
72468W        W73332  26.102  19.351  25.609 -0.2621 -0.1615 -0.1254
72469W        W73333  27.602  19.933   1.538 -0.2087  0.0878  0.0539
72470W        W73334  22.524  18.586  27.623 -0.2003 -0.1028 -0.2793
72471W        W73335  24.791  20.919  26.929  0.0624 -0.1158 -0.1279
72472W        W73336  26.071  21.766  28.106  0.0192 -0.1396  0.0744
72473W        W73337  25.290  17.537  28.505  0.0314  0.2360  0.0565
72474W        W73338  24.908  19.737   0.817 -0.2075  0.1883  0.1828
72475W        W73339  26.296  22.004   0.463 -0.0975  0.1270  0.1478
72476W        W73340  25.567  19.953   1.239 -0.1537  0.0161 -0.1751
72477W        W73341  22.422  18.926   0.470  0.0489  0.4297 -0.0959
72478W        W73342  26.637  19.896   1.249 -0.2697 -0.1787  0.0557
72479W        W73343  23.202  17.737  27.894  0.0177  0.0740 -0.0624
72480W        W73344  24.470  19.188  28.784  0.0759 -0.1335 -0.1727
72481W        W73345  25.584  23.263  24.848  0.0652  0.1660  0.0890
72482W        W73346  25.299  21.029  25.961  0.4336  0.0403 -0.3392
72483W        W73347  26.267  20.294  23.607 -0.0918 -0.0160  0.3009
72484W        W73348  28.044  19.423  27.491  0.1084  0.4641 -0.0526
72485W        W73349  27.441  22.048  25.270  0.1019 -0.0072  0.2196
72486W        W73350  26.083  17.986  29.132 -0.1657  0.0009 -0.0446
72487W        W73351  25.530  21.122  27.387  0.1235 -0.3401  0.3681
72488W        W73352  23.878  21.330   0.809 -0.1690 -0.1006 -0.1033
72489W        W73353  22.637  17.927  26.636  0.0953 -0.2655  0.2550
72490W        W73354  26.251  19.049  27.802  0.3121  0.1428  0.4024
72491W        W73355  25.272  21.308  27.796  0.0844 -0.0944 -0.2779
72492W        W73356  26.089  18.772  26.805  0.2299 -0.0352  0.2257
72493W        W73357  26.007  21.800  26.424 -0.1212 -0.1361  0.0669
72494W        W73358  25.368  18.112  28.616  0.0155 -0.2607  0.2792
72495W        W73359  25.739  22.247   2.157  0.1518  0.0011  0.0711
72496W        W73360  27.303  18.905  25.430 -0.2424  0.0003 -0.1253
72497W        W73361  23.868  18.273  27.391  0.3355 -0.1302 -0.1118
72498W        W73362  22.915  21.539  26.837  0.0487  0.2516  0.0523
72499W        W73363  24.588  19.366  26.657 -0.2698 -0.0147  0.2666
72500W        W73364  25.604  18.595  26.879 -0.0583 -0.1288 -0.3462
72501W        W73365  23.447  20.842  27.723  0.0251 -0.0385 -0.1882
72502W        W73366  26.069  20.809  23.891 -0.0909  0.2288  0.1410
72503W        W73367  24.317  18.313  24.441  0.0848  0.5642  0.0712
72504W        W73368  23.539  21.363   0.243 -0.2563 -0.0180 -0.1071
72505W        W73369  24.518  19.900  28.662 -0.3242  0.0663 -0.0901
72506W        W73370  24.507  19.605  28.190 -0.0797 -0.0906 -0.2646
72507W        W73371  23.516  17.706  27.257 -0.1921 -0.0161 -0.1816
72508W        W73372  27.371  20.162   0.808  0.2415 -0.2314  0.1021
72509W        W73373  22.116  18.970  27.536 -0.0673 -0.0797  0.1857
72510W        W73374  23.116  19.531  25.099 -0.0250  0.0956  0.0305
72511W        W73375  22.279  20.973  26.958 -0.0533 -0.1376  0.0023
72512W        W73376  25.455  19.983  26.094 -0.1667 -0.0646 -0.0038
72513W        W73377  24.780  22.510   0.435  0.0745 -0.1729  0.0411
72514W        W73378  24.017  16.950  26.681  0.2256 -0.1600  0.0893
72515W        W73379  26.161  20.950  25.697  0.0182 -0.2121  0.0532
72516W        W73380  25.999  19.471  25.060  0.2501  0.2148  0.0985
72517W        W73381  26.960  20.948  26.094 -0.1366 -0.2508 -0.2032
72518W        W73382  23.758  20.275   1.987 -0.0099  0.1446  0.2615
72519W        W73383  23.533  19.893  27.741 -0.0510 -0.0810 -0.1943
72520W        W73384  23.626  19.363   2.834 -0.1097 -0.0207 -0.1388
72521W        W73385  27.261  17.963  24.935  0.1898 -0.0450 -0.0296
72522W        W73386  25.638  20.323  27.929 -0.1020 -0.1156 -0.4626
72523W        W73387  24.246  20.394  28.817 -0.1394 -0.2714  0.0283
72524W        W73388  23.364  18.636  28.827  0.2442 -0.1882  0.2178
72525W        W73389  24.754  17.959  26.323  0.0446  0.0951 -0.1132
72526W        W73390  22.359  15.764   1.598  0.4171 -0.0165  0.0750
72527W        W73391  24.241  15.301   0.452  0.0993  0.3433 -0.2266
72528W        W73392  25.783  18.221  28.355 -0.0391 -0.2232  0.2164
72529W        W73393  21.520  20.866   0.467  0.0198  0.1472 -0.3806
72530W        W73394  24.856  16.795  27.954 -0.1021  0.1108 -0.4348
72531W        W73395  26.131  19.589  28.957 -0.1090 -0.4959 -0.0445
72532W        W73396  28.060  16.805  28.259 -0.2695 -0.0599 -0.0130
72533W        W73397  26.488  21.528  25.128  0.0637 -0.0609 -0.0723
72534W        W73398  28.582  18.759   1.240  0.0145 -0.0991  0.0098
72535W        W73399  25.799  21.029  26.023  0.1195 -0.1750  0.0977
72536W        W73400  25.011  21.110  26.449 -0.5047 -0.0558  0.1220
72537W        W73401  23.759  18.100  29.144 -0.0204  0.0057 -0.0470
72538W        W73402  24.502  17.910  27.639  0.1264  0.0963  0.1102
72539W        W73403  26.159  19.994  25.356 -0.0294 -0.0632 -0.0134
72540W        W73404  22.783  21.521   0.995  0.1620 -0.0052  0.1327
72541W        W73405  22.567  17.411  26.681  0.0796  0.2787 -0.0579
72542W        W73406  26.226  19.707  25.962  0.0628 -0.0487 -0.0826
72543W        W73407  24.567  22.082  25.529 -0.0365 -0.0356  0.1601
72544W        W73408  24.103  18.659  27.028  0.2558 -0.0365 -0.1178
72545W        W73409  27.600  19.583  27.150  0.0334  0.3837  0.2182
72546W        W73410  24.873  23.127  28.453  0.1438  0.1019  0.3390
72547W        W73411  27.050  16.508  27.615 -0.0297 -0.0880  0.0310
72548W        W73412  25.443  18.477  27.444 -0.1517  0.1766  0.0373
72549W        W73413  23.278  21.301  28.646 -0.0288  0.2857 -0.0149
72550W        W73414  26.378  21.337  28.254 -0.4201 -0.3449  0.2070
72551W        W73415  23.530  17.502  26.282 -0.1070 -0.2424  0.0468
72552W        W73416  23.678  19.617  28.715  0.0252 -0.1383 -0.1592
72553W        W73417  23.149  20.580  28.027  0.1642  0.2753 -0.1387
72554W        W73418  25.566  23.415  27.076 -0.1984 -0.0713  0.1407
72555W        W73419  26.068  18.789  28.670  0.1030 -0.1694 -0.1530
72556W        W73420  27.321  22.112   0.576  0.3770 -0.3542  0.2662
72557W        W73421  25.848  21.006  24.892 -0.1350  0.1307 -0.1340
72558W        W73422  22.968  19.864  28.764  0.4467  0.0513  0.1560
72559W        W73423  25.974  19.447  27.885  0.5617 -0.0036 -0.0031
72560W        W73424  26.174  20.259  27.232 -0.4489 -0.0534 -0.5148
72561W        W73425  22.510  16.318  25.341 -0.1109  0.0105  0.0579
72562W        W73426  25.587  19.862  27.080  0.0227  0.0118  0.0710
72563W        W73427  24.656  20.411  28.220  0.2835 -0.1072  0.3029
72564W        W73428  25.386  19.543  28.470 -0.1192 -0.0255 -0.0021
72565W        W73429  26.055  21.316  25.262  0.0297  0.2255 -0.0555
72566W        W73430  25.736  20.520  24.896 -0.2714 -0.1015 -0.0094
72567W        W73431  23.645  21.385  25.631  0.0633  0.2671 -0.1301
72568W        W73432  25.332  21.764  24.758 -0.1963 -0.0621 -0.0190
72569W        W73433  22.849  18.530  26.868  0.0292  0.1964 -0.4502
72570W        W73434  26.778  17.059   1.215 -0.4127 -0.2018 -0.0089
72571W        W73435  28.058  19.809  28.772 -0.0666  0.1918 -0.1279
72572W        W73436  23.007  20.668   1.203 -0.0820 -0.2509 -0.3023
72573W        W73437  25.830  20.921  27.720 -0.3130 -0.0821 -0.0829
72574W        W73438  25.226  17.981  26.183 -0.2139 -0.2558 -0.0582
72575W        W73439  23.839  22.639   1.622 -0.0784 -0.1182  0.0147
72576W        W73440  26.368  18.371  28.359  0.2386  0.0521  0.3585
72577W        W73441  24.991  19.857  28.421 -0.2347 -0.2139 -0.0218
72578W        W73442  22.973  15.815  26.007 -0.0166  0.0104 -0.0925
72579W        W73443  27.370  16.234  28.892  0.1564  0.1974  0.1950
72580W        W73444  24.970  18.891  28.740  0.2084  0.0203  0.1787
72581W        W73445  24.166  23.718  28.610  0.1696 -0.0987  0.1098
72582W        W73446  25.054  22.374   0.067  0.1117 -0.1184  0.2008
72583W        W73447  22.326  18.889  25.757 -0.3472  0.0034  0.0453
72584W        W73448  26.530  19.440  27.285  0.0563  0.0854 -0.1541
72585W        W73449  23.661  25.609  25.063  0.0974 -0.1140 -0.1290
72586W        W73450  24.995  20.387  26.835 -0.0614 -0.0875  0.0928
72587W        W73451  27.455  21.606   0.719  0.0339  0.0221  0.0701
72588W        W73452  24.565  17.466  28.296  0.1802  0.2094  0.0723
72589W        W73453  25.426  17.520  24.927 -0.2091  0.0512 -0.1027
72590W        W73454  24.837  22.213  26.821 -0.0944 -0.0275 -0.2170
72591W        W73455  22.617  23.866  28.823  0.0486 -0.4115 -0.3398
72592W        W73456  24.842  22.147  27.983  0.3158  0.0289  0.0514
72593W        W73457  25.312  20.870  26.938 -0.0726  0.3327 -0.1870
72594W        W73458  23.168  18.988  26.190  0.2364  0.0864 -0.1919
72595W        W73459  25.746  20.825  28.912 -0.0414 -0.0547 -0.0966
72596W        W73460  24.302  19.870  27.423  0.0640  0.0479 -0.0817
72597W        W73461  25.788  18.373  28.821 -0.4663 -0.0039  0.1365
72598W        W73462  24.123  21.030  27.659 -0.1395 -0.2140 -0.4201
72599W        W73463  25.405  20.539  29.074  0.1731  0.1550  0.1094
72600W        W73464  24.449  20.014  27.921  0.1337  0.0709  0.2555
72601W        W73465  22.700  20.180  26.135  0.1802  0.0382 -0.4719
72602W        W73466  25.909  16.741  26.842 -0.2307 -0.1447  0.0244
72603W        W73467  27.299  19.229   0.273  0.1277 -0.1276 -0.1154
72604W        W73468  24.692  21.652  28.499 -0.0324  0.1786  0.2343
72605W        W73469  27.676  18.944   0.032  0.0115 -0.1024 -0.1082
72606W        W73470  26.109  18.796   0.655  0.1355  0.3324  0.0201
72607W        W73471  26.118  18.277   1.370 -0.3181  0.0718 -0.1044
72608W        W73472  23.578  19.706   1.130  0.4262 -0.0072 -0.0568
72609W        W73473  25.479  16.990  25.280 -0.0188 -0.0004  0.0369
72610W        W73474  21.456  21.736  25.428 -0.0301 -0.1088 -0.2623
72611W        W73475  23.186  19.205   0.481  0.3354  0.0218 -0.1571
72612W        W73476  25.429  17.441  27.865  0.1814 -0.1772 -0.1949
72613W        W73477  27.813  20.825   0.172 -0.1021 -0.1158 -0.2490
72614W        W73478  25.028  19.632  27.989  0.1285 -0.1439 -0.2336
72615W        W73479  24.209  20.254  26.421  0.1108  0.0201  0.1065
72616W        W73480  27.031  19.453  27.340  0.0423 -0.4321  0.1730
72617W        W73481  26.153  18.136  27.962 -0.2047 -0.0414 -0.0217
72618W        W73482  25.276  20.121  28.739  0.1115  0.0380  0.1216
72619W        W73483  26.278  20.305   1.016  0.1076 -0.1268  0.3672
72620W        W73484  23.695  20.497  26.117 -0.0290 -0.0604 -0.0648
72621W        W73485  23.471  19.147  28.702  0.0337  0.0974  0.0003
72622W        W73486  23.742  19.606  27.258 -0.1359 -0.0497 -0.2731
72623W        W73487  26.240  21.368  26.017  0.1601 -0.1269 -0.0882
72624W        W73488  25.304  18.877  25.315  0.2116 -0.1493 -0.0753
72625W        W73489  23.724  20.007  26.874  0.1335 -0.0203 -0.0005
72626W        W73490  22.657  17.910  24.596 -0.1936  0.0089 -0.0841
72627W        W73491  23.458  20.355  27.677 -0.4881 -0.0781 -0.0963
72628W        W73492  23.713  16.858  25.095  0.1889 -0.0572 -0.0934
72629W        W73493  25.431  16.959  25.824  0.0765  0.2648 -0.1981
72630W        W73494  25.474  19.398   0.063  0.1333 -0.0735 -0.1711
72631W        W73495  23.533  21.882   0.172  0.0236 -0.0485  0.2074
72632W        W73496  24.560  20.129  24.014  0.0522  0.0292 -0.1362
72633W        W73497  20.843  22.100  26.843 -0.0014  0.1472 -0.4284
72634W        W73498  24.190  19.364  27.458  0.2017 -0.0355 -0.0980
72635W        W73499  24.646  17.341  27.782 -0.1375 -0.2212 -0.1485
72636W        W73500  23.270  18.120  27.045 -0.3395 -0.2463  0.2950
72637W        W73501  24.423  17.940  24.188  0.0370 -0.1111  0.2127
72638W        W73502  25.754  18.983  26.490 -0.0933  0.0047  0.1768
72639W        W73503  23.570  16.366  26.856  0.0822 -0.0957  0.0824
72640W        W73504  24.461  20.071  29.134 -0.1856 -0.2002 -0.3421
72641W        W73505  26.802  19.446   0.490  0.3560 -0.1297 -0.0797
72642W        W73506  24.323  18.193  27.185 -0.1929 -0.1769  0.1718
72643W        W73507  24.539  17.700  28.826  0.1739 -0.4850  0.1686
72644W        W73508  23.608  17.946  25.427 -0.6128  0.1244  0.2844
72645W        W73509  23.193  18.992  28.260 -0.0889  0.0315  0.2673
72646W        W73510  22.645  17.249  29.004  0.0033 -0.2448  0.1971
72647W        W73511  22.469  18.788  27.106 -0.1232 -0.0548  0.0530
72648W        W73512  23.304  22.844   0.471  0.0316 -0.0036  0.1172
72649W        W73513  23.329  18.824  26.675 -0.0366 -0.1459 -0.3337
72650W        W73514  23.702  20.947  27.331  0.0726  0.1549  0.3546
72651W        W73515  23.446  19.797  26.476  0.0552  0.1948 -0.1702
72652W        W73516  23.309  21.551   0.844 -0.2366 -0.0055 -0.3387
72653W        W73517  20.741  19.547  27.189 -0.1153 -0.1723  0.1352
72654W        W73518  24.197  19.621  28.892  0.2440  0.0912 -0.0641
72655W        W73519   0.137  19.609  27.669  0.2172  0.2834  0.3200
72656W        W73520  26.936  22.487  27.839  0.1892 -0.1324 -0.2429
72657W        W73521  26.551  19.962  27.049  0.0724  0.1082 -0.3152
72658W        W73522  25.069  17.226  28.198  0.2036  0.3006 -0.1133
72659W        W73523  24.754  21.604  25.664 -0.0647 -0.1198 -0.0753
72660W        W73524  24.842  18.072   0.741 -0.0291  0.0360  0.0454
72661W        W73525  23.185  21.084  28.197  0.3027  0.2146 -0.1185
72662W        W73526  26.571  19.483  27.739  0.2215  0.3310 -0.2836
72663W        W73527  26.941  20.554  28.224  0.1432 -0.0171 -0.0231
72664W        W73528  23.942  21.380   1.709  0.1262  0.0194 -0.0553
72665W        W73529  22.794  15.667  27.738 -0.0231  0.1578  0.1953
72666W        W73530  23.955  19.705  24.600 -0.0553 -0.1717  0.1056
72667W        W73531  22.771  17.986  28.810  0.0835 -0.2010  0.1320
72668W        W73532  27.983  20.224   1.537  0.3152  0.0500 -0.1750
72669W        W73533  28.107  20.197  27.472  0.1107 -0.1772 -0.2576
72670W        W73534  26.104  20.468  27.712 -0.1424 -0.3882 -0.2733
72671W        W73535  24.869  18.337  26.005  0.2600 -0.0459  0.0219
72672W        W73536  23.294  19.134  27.077  0.2081  0.2182  0.0293
72673W        W73537  20.536  20.212  27.603 -0.2776 -0.1485  0.2269
72674W        W73538  24.170  19.294  24.362 -0.1402 -0.2842  0.4426
72675W        W73539  25.724  19.455  26.778  0.0724 -0.2637  0.2404
72676W        W73540  25.808  23.330  26.524  0.1182  0.0317  0.3182
72677W        W73541  28.891  21.466  27.599 -0.0076 -0.0923 -0.2981
72678W        W73542  26.497  17.335  27.458  0.3166 -0.1065 -0.1928
72679W        W73543  25.202  20.196  27.711 -0.0527 -0.1274 -0.1144
72680W        W73544  24.040  22.256  25.584  0.0880 -0.1716  0.0505
72681W        W73545  23.792  21.706  24.742 -0.2968 -0.0079  0.1946
72682W        W73546  24.091  21.493  29.101  0.0167  0.0476  0.6144
72683W        W73547  25.096  21.304  28.467 -0.1625 -0.0867  0.0556
72684W        W73548  23.706  17.059  26.009  0.0076  0.0957 -0.1747
72685W        W73549  25.582  18.151   0.718 -0.0608 -0.4930  0.1706
72686W        W73550  22.614  20.962  28.333 -0.2821  0.0650  0.0375
72687W        W73551  26.001  20.817   1.140 -0.2598  0.5191  0.0515
72688W        W73552  23.468  23.368   0.288 -0.0299 -0.2772 -0.0299
72689W        W73553  25.410  21.695  27.340  0.0592  0.0553 -0.1335
72690W        W73554  25.353  17.955  28.140 -0.0521 -0.3449  0.0600
72691W        W73555  22.628  19.836   0.406 -0.0877  0.1840  0.0709
72692W        W73556  23.432  21.325  26.144  0.0150  0.1166 -0.1273
72693W        W73557  24.739  20.385  27.714 -0.3250 -0.0648  0.0405
72694W        W73558  26.229  20.811  27.266  0.0769 -0.2959 -0.1077
72695W        W73559  21.585  20.622  26.248  0.0068 -0.0552 -0.0463
72696W        W73560  24.461  19.742  26.319  0.0542 -0.1277 -0.2278
72697W        W73561  25.575  17.880  25.368 -0.0572 -0.0539  0.3733
72698W        W73562  23.701  17.266   0.598  0.3222  0.1631 -0.0869
72699W        W73563  26.261  20.093  28.800  0.1961  0.1249  0.2508
72700W        W73564  26.596  18.794  28.842 -0.0815 -0.0561 -0.1132
72701W        W73565  23.722  21.516  28.354  0.1328  0.0499 -0.1232
72702W        W73566  25.716  20.113  28.442  0.2397 -0.0938 -0.0375
72703W        W73567  26.619  21.665  28.008 -0.1378  0.1177 -0.0605
72704W        W73568  24.058  18.937   1.579  0.1136  0.0032 -0.0488
72705W        W73569  20.765  20.925   0.468  0.0953 -0.1417 -0.0928
72706W        W73570  23.542  22.441   0.098 -0.0834 -0.1449 -0.0815
72707W        W73571  22.621  22.299  25.463  0.0514 -0.1063 -0.2195
72708W        W73572  26.973  20.651   1.441 -0.0332  0.2359 -0.0759
72709W        W73573  21.623  18.827  28.748  0.0951 -0.0748  0.0566
72710W        W73574  25.781  18.903  25.338  0.0131 -0.0435  0.2472
72711W        W73575  24.869  20.282  25.401  0.1390 -0.0514 -0.0764
72712W        W73576  25.069  16.225   1.091  0.2642  0.1332 -0.1226
72713W        W73577  26.951  17.651  26.849 -0.0868  0.0891 -0.1730
72714W        W73578  24.128  20.482  28.293  0.0961  0.0169  0.0765
72715W        W73579  23.825  20.560  29.117 -0.2000  0.1535 -0.4000
72716W        W73580  21.930  18.924   0.856  0.0160  0.1375  0.0433
72717W        W73581  20.784  17.668  26.797  0.0914 -0.1411  0.2994
72718W        W73582  23.240  16.338   0.113  0.2931 -0.1446  0.0571
72719W        W73583  22.431  18.091  23.581 -0.3364  0.3471 -0.0931
72720W        W73584  25.710  22.017  28.963 -0.1729  0.1835  0.1825
72721W        W73585  25.653  21.369  24.494 -0.0841 -0.0405  0.0164
72722W        W73586  22.961  17.490  23.207 -0.0326 -0.0839 -0.2046
72723W        W73587  22.697  20.355  28.268 -0.1726  0.0066  0.3454
72724W        W73588  22.542  19.870   1.444  0.3917 -0.1851 -0.3180
72725W        W73589  26.337  19.861  27.499  0.0886 -0.0635 -0.1226
72726W        W73590  25.393  18.893   0.109 -0.0138 -0.4705 -0.2257
72727W        W73591  24.709  22.986  25.162  0.0524  0.1024  0.0965
72728W        W73592  24.058  19.221  27.962 -0.0071 -0.0385  0.1440
72729W        W73593  24.720  17.217  28.680  0.0361 -0.0523  0.1027
72730W        W73594  26.610  21.202  25.655 -0.0152  0.0764 -0.4688
72731W        W73595  22.968  20.159  27.656  0.0416 -0.1288  0.2914
72732W        W73596  23.681  17.109   1.131  0.0751  0.1703 -0.0632
72733W        W73597  25.919  18.505  27.253 -0.0988  0.0380 -0.0434
72734W        W73598  22.336  20.283   1.164 -0.2892  0.0132 -0.2128
72735W        W73599  24.940  19.815   0.253  0.0020  0.1008 -0.1144
72736W        W73600  27.656  21.307  27.888 -0.1775  0.1561  0.1335
72737W        W73601  26.426  18.680   0.167  0.1612  0.1966 -0.1291
72738W        W73602  25.165  19.641  24.899  0.0076  0.1159  0.0088
72739W        W73603  27.488  16.961  27.699  0.1635  0.2603  0.1453
72740W        W73604  20.729  23.332  28.230 -0.0127  0.0195  0.1656
72741W        W73605  24.163  20.722  27.245  0.3983 -0.0810 -0.1357
72742W        W73606  22.181  17.877  27.431 -0.4616  0.2753 -0.0307
72743W        W73607  23.477  20.311   0.220 -0.0355 -0.0788 -0.2485
72744W        W73608   0.227  23.631  26.747 -0.0404  0.0230  0.0732
72745W        W73609  26.550  21.177  27.442 -0.1803 -0.2045 -0.0197
72746W        W73610  25.137  22.015  28.405  0.0004 -0.1171  0.1271
72747W        W73611   0.958  18.848  26.049 -0.2822 -0.3520 -0.3165
72748W        W73612  23.232  17.094  26.162  0.0517 -0.1338 -0.3037
72749W        W73613  27.232  19.003  27.212 -0.3022 -0.0582  0.1858
72750W        W73614  21.845  24.439  27.000  0.0793 -0.1542  0.0091
72751W        W73615  20.779  19.404  25.750  0.0849 -0.3757 -0.1030
72752W        W73616  24.085  19.956  28.473 -0.0470  0.0295 -0.0242
72753W        W73617  23.621  18.113  28.596 -0.2828 -0.2414 -0.0870
72754W        W73618  23.664  21.415  27.019 -0.0573  0.1546  0.2054
72755W        W73619  23.605  19.313   0.209 -0.1166  0.3036 -0.1224
72756W        W73620  23.558  21.663  28.865 -0.1901  0.0483 -0.2478
72757W        W73621  23.851  20.029  29.028  0.1602  0.3312  0.3190
72758W        W73622  23.967  18.831  27.597 -0.2168 -0.2093  0.2866
72759W        W73623  24.709  19.672   1.981  0.1333  0.2610 -0.0556
72760W        W73624  25.203  17.508  27.091 -0.0728 -0.0828  0.0972
72761W        W73625  24.782  22.158  27.481 -0.0686  0.0749  0.0239
72762W        W73626  26.453  21.885  25.990 -0.3069 -0.1405 -0.1353
72763W        W73627  24.126  17.473   0.725 -0.0638 -0.0293  0.1263
72764W        W73628  24.096  24.675  28.124 -0.1558 -0.1548 -0.1168
72765W        W73629  22.853  15.357  26.790 -0.0251 -0.2037 -0.4137
72766W        W73630  25.644  21.324  29.141 -0.0663 -0.0313  0.0928
72767W        W73631  26.248  17.665  27.701 -0.0272  0.3738  0.1755
72768W        W73632  22.116  19.868  26.764 -0.1408 -0.2049  0.1427
72769W        W73633  22.981  15.355  24.559  0.1114 -0.1095  0.3579
72770W        W73634  23.062  19.420  27.940 -0.0397  0.1151 -0.1204
72771W        W73635  22.877  17.703   0.104 -0.0376 -0.3210 -0.0772
72772W        W73636  25.841  17.752  26.371  0.1712  0.0420 -0.3557
72773W        W73637  28.236  20.991  28.830  0.2803 -0.1086 -0.3643
72774W        W73638  22.107  19.884   2.192  0.2953 -0.3271  0.1952
72775W        W73639  25.215  20.889   0.274  0.2681  0.2107 -0.2010
72776W        W73640  25.385  21.088   2.624 -0.1137 -0.3193  0.0041
72777W        W73641  21.657  22.015  27.765  0.0745  0.3435 -0.1632
72778W        W73642  25.857  20.081  25.809 -0.3482  0.1692 -0.0036
72779W        W73643  26.942  20.038  26.573 -0.2681  0.2427 -0.1473
72780W        W73644  23.496  18.633  27.337 -0.0686 -0.0410  0.0107
72781W        W73645  23.885  21.446  27.461  0.1856 -0.4067 -0.0227
72782W        W73646  25.282  21.127   0.758 -0.0232 -0.0208  0.2580
72783W        W73647  23.829  15.883  27.795 -0.2332 -0.0610  0.1333
72784W        W73648  23.688  19.393  26.792 -0.0115 -0.2217 -0.0675
72785W        W73649  26.355  22.141  27.325 -0.0274 -0.0992  0.1102
72786W        W73650  26.383  19.795   0.796  0.3181 -0.4053  0.1351
72787W        W73651  22.688  20.897  29.019 -0.0857 -0.2170  0.2350
72788W        W73652  23.430  20.069  27.271 -0.0862  0.0242 -0.1564
72789W        W73653  24.358  23.563  29.043  0.2945 -0.0459 -0.0040
72790W        W73654  23.558  20.530  27.105 -0.2315 -0.0279  0.2441
72791W        W73655  25.190  18.321  25.272 -0.0916  0.2351  0.0817
72792W        W73656  24.735  19.540  24.716 -0.0827  0.0346  0.0769
72793W        W73657  26.868  20.787  27.607 -0.0509 -0.0553  0.2046
72794W        W73658  25.352  22.476  28.270  0.1128  0.0287  0.1639
72795W        W73659  25.422  20.657  27.574 -0.2061 -0.0041 -0.3195
72796W        W73660  25.176  16.704  27.532  0.0194  0.0612  0.0317
72797W        W73661  22.671  20.700   0.780  0.2513 -0.0399 -0.0388
72798W        W73662  26.182  18.946  27.256 -0.2260  0.0572  0.1398
72799W        W73663  22.996  20.512   0.105  0.0530 -0.1211 -0.2534
72800W        W73664  22.844  18.584  28.196 -0.2684 -0.2131  0.0126
72801W        W73665  22.996  18.627  27.323  0.1885  0.1436  0.2444
72802W        W73666  25.104  18.508  29.098  0.0367 -0.1733 -0.0364
72803W        W73667  23.921  22.265  28.023 -0.0630 -0.0651  0.3092
72804W        W73668  22.424  17.187  25.850 -0.2619  0.0793  0.2670
72805W        W73669  24.744  21.611  27.459  0.2095  0.0839 -0.0657
72806W        W73670  26.151  22.577  26.637 -0.1019  0.0015 -0.3730
72807W        W73671  25.952  21.621  26.928 -0.0379  0.2871  0.1025
72808W        W73672  25.207  20.523  25.682 -0.2040  0.0347  0.0797
72809W        W73673  24.695  19.543  27.159  0.0770 -0.0409 -0.1447
72810W        W73674  27.267  19.232  25.008 -0.0740  0.1060 -0.0648
72811W        W73675  19.322  21.840  28.093  0.0976 -0.0395 -0.1055
72812W        W73676  25.199  19.895  26.788 -0.1142  0.0777  0.1866
72813W        W73677  24.020  22.592  29.024 -0.2528  0.1333  0.1101
72814W        W73678  27.391  20.498  28.976  0.1012 -0.1153  0.1069
72815W        W73679  24.989  19.181  25.015 -0.1202 -0.3963 -0.1481
72816W        W73680  23.846  19.116  27.152  0.2755  0.1772  0.0147
72817W        W73681  24.769  18.938   0.063  0.0386  0.0205  0.0637
72818W        W73682  25.132  19.481  27.544  0.2598 -0.0421  0.0470
72819W        W73683  25.018  18.116   2.530 -0.4901 -0.3138  0.1306
72820W        W73684  23.107  19.944   0.198  0.0931 -0.1744  0.1591
72821W        W73685  26.476  19.771  28.524  0.0492 -0.0971  0.0003
72822W        W73686  24.498  18.958  27.699  0.2177  0.1863 -0.1109
72823W        W73687  22.443  21.402  26.683 -0.0590 -0.0443  0.1149
72824W        W73688  25.893  18.452   0.912 -0.3481 -0.0557  0.1191
72825W        W73689  25.477  20.538  28.591  0.1697 -0.0359  0.1281
72826W        W73690  25.789  19.268  28.787 -0.2568  0.0132 -0.0734
72827W        W73691  25.424  20.800  28.056 -0.3127  0.3389  0.0987
72828W        W73692  26.888  20.687   0.104  0.2217  0.0636 -0.0334
72829W        W73693  24.402  21.229  27.326  0.2776  0.0876  0.1387
72830W        W73694  26.860  18.399   0.052  0.0981  0.0236  0.1221
72831W        W73695  23.228  21.970   1.154 -0.0789 -0.1624 -0.0493
72832W        W73696  26.789  20.406  26.908 -0.2559 -0.0348 -0.0694
72833W        W73697  25.872  19.551   0.712 -0.2280 -0.0316 -0.2896
72834W        W73698  23.092  18.663   0.474  0.1349 -0.4182 -0.0986
72835W        W73699  20.842  21.572  28.355  0.3511  0.0369 -0.2803
72836W        W73700  24.963  19.210  25.562  0.1487  0.0864 -0.0711
72837W        W73701  23.843  20.522   0.554 -0.3045  0.0610 -0.0199
72838W        W73702  25.987  22.127  27.765  0.0784 -0.2505  0.2340
72839W        W73703  22.589  20.458  25.682 -0.0187 -0.1719  0.2631
72840W        W73704  21.155  25.254   3.652  0.0628 -0.3227 -0.0528
72841W        W73705  23.729  22.872   1.207  0.2760 -0.0955 -0.0039
72842W        W73706  25.259  24.616   1.677  0.0838  0.2513  0.1161
72843W        W73707  23.010  26.406   4.361 -0.2644 -0.1083  0.1995
72844W        W73708  19.090  24.383  27.759 -0.0148 -0.0624 -0.4645
72845W        W73709  22.451  23.534   1.089 -0.0125 -0.0930 -0.0036
72846W        W73710  21.168  21.457   1.272  0.0083  0.0452  0.4966
72847W        W73711  23.679  24.756   0.531  0.0589  0.0028 -0.1899
72848W        W73712  22.991  23.735   3.453 -0.0723 -0.2186 -0.0243
72849W        W73713  21.724  23.583   4.026 -0.0938 -0.0286  0.2521
72850W        W73714  20.846  22.736   1.163  0.3152 -0.2128 -0.0538
72851W        W73715  26.604  22.143   0.016  0.0886  0.1048 -0.1997
72852W        W73716  24.051  22.956   0.824 -0.0383 -0.0530 -0.0780
72853W        W73717  25.842  20.249   2.649  0.0020  0.0161 -0.1305
72854W        W73718  21.656  22.168   4.004 -0.2474 -0.2889 -0.2773
72855W        W73719  22.532  23.904   2.122  0.0151  0.2634 -0.2647
72856W        W73720  23.804  22.927   2.121  0.3108 -0.1006 -0.0373
72857W        W73721  20.263  20.957   1.156  0.0429  0.0319 -0.0348
72858W        W73722  24.612  23.267   3.805 -0.0740 -0.0149 -0.0756
72859W        W73723  24.923  23.120   5.072 -0.0205  0.1013  0.1983
72860W        W73724  24.343  25.603   4.937 -0.1541  0.0121 -0.1222
72861W        W73725  23.348  23.128   2.164 -0.1868  0.1427  0.0468
72862W        W73726  22.653  26.404   1.615 -0.0240 -0.1254  0.1771
72863W        W73727  22.446  20.334   3.467  0.0484 -0.3537  0.0630
72864W        W73728  19.586  23.398   3.392 -0.0899 -0.0215  0.2976
72865W        W73729  22.907  22.614   4.505  0.1334 -0.2276  0.0207
72866W        W73730  26.425  21.772   5.150 -0.0274 -0.1042  0.0863
72867W        W73731  24.397  22.862   0.431 -0.0671  0.1343  0.1159
72868W        W73732  24.949  22.725   3.714 -0.0784 -0.0241  0.2499
72869W        W73733  23.030  24.710   3.551  0.3283  0.0065  0.0967
72870W        W73734  25.548  21.450   3.661  0.2337 -0.1568 -0.0716
72871W        W73735  22.920  25.891   4.810 -0.1211  0.0856 -0.0747
72872W        W73736  23.602  25.097   3.071 -0.0824 -0.2848 -0.1027
72873W        W73737  21.508  23.168   5.552  0.0369  0.2468 -0.0857
72874W        W73738  20.245  22.400   1.738  0.0546  0.0117 -0.2461
72875W        W73739  22.352  21.270   2.558 -0.2148  0.2287  0.1132
72876W        W73740  20.615  23.651  27.797  0.0225  0.1292 -0.1122
72877W        W73741  23.075  21.808   1.904  0.2583  0.0900 -0.1526
72878W        W73742  22.858  26.034  29.056 -0.1295  0.0730 -0.0402
72879W        W73743  23.774  21.086   1.317  0.1381 -0.1519  0.0044
72880W        W73744  24.877  23.308  26.591  0.2950  0.0217  0.0971
72881W        W73745  26.297  22.441   1.502  0.0018 -0.3965  0.2897
72882W        W73746  23.402  25.293   2.658 -0.2334 -0.0014  0.0029
72883W        W73747  24.969  24.048   0.296 -0.0084  0.1735  0.3199
72884W        W73748  25.471  25.526   0.596 -0.0803  0.1214 -0.1430
72885W        W73749  22.890  25.454   2.692  0.1904 -0.2148  0.1139
72886W        W73750  21.916  22.814   5.370  0.1771  0.3049 -0.0546
72887W        W73751  22.747  21.654   3.498  0.6252 -0.2562  0.3410
72888W        W73752  23.977  22.988   3.021  0.0530 -0.0705 -0.1810
72889W        W73753  24.100  20.631   2.145  0.0499  0.1597 -0.1791
72890W        W73754  23.777  26.549   2.356 -0.1464 -0.0495 -0.1241
72891W        W73755  22.384  24.307   2.356  0.1863 -0.0183  0.0146
72892W        W73756  24.872  24.624   3.185 -0.1730 -0.0050 -0.0537
72893W        W73757  24.840  25.318   1.789 -0.0202  0.1276  0.2406
72894W        W73758  25.622  21.607   0.755  0.0397  0.3357  0.0860
72895W        W73759  22.054  23.479   0.398  0.0856 -0.0002 -0.1397
72896W        W73760  19.387  20.866   2.183 -0.4472 -0.1348 -0.5111
72897W        W73761  24.977  24.130   3.118  0.1678 -0.0465  0.2687
72898W        W73762  21.591  23.390  27.830  0.1005  0.0479  0.3773
72899W        W73763  21.638  23.259   2.926 -0.1221  0.0067 -0.0395
72900W        W73764  23.152  20.641   0.613 -0.0801  0.1718  0.2577
72901W        W73765  23.031  23.096   2.586  0.1611 -0.3073  0.1200
72902W        W73766  23.634  24.369   1.607  0.2571 -0.4314  0.2331
72903W        W73767  22.594  22.995   0.779  0.1321 -0.1808  0.0913
72904W        W73768  20.524  20.961   3.352 -0.2050  0.1139  0.2923
72905W        W73769  25.697  22.079   1.616  0.0585 -0.0301  0.2693
72906W        W73770  22.723  22.459   0.952  0.3685 -0.0875 -0.0734
72907W        W73771  22.036  22.773  28.288  0.3082  0.0018 -0.3797
72908W        W73772  21.095  25.408   0.785 -0.2093  0.1296 -0.3240
72909W        W73773  23.760  21.480   3.808 -0.1634 -0.0115  0.1835
72910W        W73774  23.270  23.987   2.934  0.2937 -0.5955 -0.1981
72911W        W73775  26.100  20.498   0.013 -0.2018  0.0239  0.2774
72912W        W73776  25.100  25.782   3.941  0.1344 -0.0172 -0.2175
72913W        W73777  26.346  23.611   4.775  0.2269  0.0140  0.0344
72914W        W73778  27.069  21.987   0.007 -0.0530 -0.3530 -0.1284
72915W        W73779  21.873  20.492   4.068 -0.1172  0.0242 -0.4632
72916W        W73780  24.701  23.113   2.450  0.4170  0.1240 -0.0183
72917W        W73781  23.474  24.159   2.059  0.1727  0.0872 -0.1319
72918W        W73782  24.817  22.931   0.693 -0.0765  0.0113 -0.0576
72919W        W73783  23.075  22.370   0.649  0.1560  0.3659  0.5273
72920W        W73784  21.450  22.573   3.680  0.0418  0.1506 -0.0098
72921W        W73785  24.011  24.322   2.558 -0.1640 -0.2449  0.1291
72922W        W73786  21.326  16.970   3.412  0.3694  0.0277  0.0760
72923W        W73787  22.486  20.257   2.457  0.1130 -0.0412  0.0195
72924W        W73788  23.961  23.411   3.289 -0.1053  0.2980  0.0899
72925W        W73789  23.780  19.463   1.554  0.2437  0.4424  0.3610
72926W        W73790  24.843  23.703   3.960 -0.1856  0.0282  0.0098
72927W        W73791  23.829  20.708   3.461 -0.2602  0.1536 -0.1123
72928W        W73792  25.361  25.760   5.531  0.3860 -0.2434  0.1498
72929W        W73793  23.505  22.518   1.981 -0.2351 -0.2929  0.1873
72930W        W73794  25.410  22.174   1.025  0.1123  0.0429 -0.0926
72931W        W73795  23.120  20.067   5.760 -0.0698  0.0763 -0.0591
72932W        W73796  23.549  23.729  28.372 -0.1074  0.1460  0.0018
72933W        W73797  21.904  21.994   1.236  0.2651  0.2648  0.0144
72934W        W73798  20.783  21.324   1.681 -0.2224 -0.0581 -0.3309
72935W        W73799  27.550  21.787  26.054  0.0859 -0.2861 -0.0257
72936W        W73800  24.104  23.076   1.753  0.1260 -0.0337  0.2627
72937W        W73801  21.149  26.446   2.444 -0.1192 -0.1591  0.1345
72938W        W73802  20.085  22.539   1.063 -0.3309  0.0192  0.0269
72939W        W73803  24.992  20.804   2.469 -0.3157 -0.0453  0.2359
72940W        W73804  27.593  27.222  28.562 -0.1514 -0.2619 -0.4195
72941W        W73805  22.553  22.617   4.107  0.1487 -0.1289  0.0539
72942W        W73806  25.883  20.007   0.817  0.1241  0.1135 -0.0647
72943W        W73807  25.273  23.764   3.661 -0.1693 -0.0250 -0.5576
72944W        W73808  24.606  20.838   4.835 -0.2176  0.2436  0.2257
72945W        W73809  22.166  18.516   3.941 -0.0384 -0.0071  0.1624
72946W        W73810  25.316  21.446   2.190 -0.0768  0.0786  0.0718
72947W        W73811  24.337  22.653   2.585 -0.0812 -0.1986  0.2728
72948W        W73812  25.708  20.410   1.095  0.2227 -0.0151  0.0770
72949W        W73813  22.339  23.068   0.267  0.0827 -0.3369  0.2159
72950W        W73814  22.059  20.501   3.208  0.0989 -0.1225 -0.1731
72951W        W73815  22.959  23.812   0.337  0.3130  0.0220  0.0597
72952W        W73816  28.294  24.590   3.402  0.1471  0.0404 -0.0019
72953W        W73817  22.724  23.809   4.821 -0.1026 -0.0523  0.0306
72954W        W73818  24.828  22.069   1.770  0.4196 -0.2002  0.4047
72955W        W73819  20.312  23.526   2.081 -0.0717 -0.5050 -0.0781
72956W        W73820  26.453  22.403   5.614 -0.4279 -0.1260 -0.3353
72957W        W73821  22.682  21.359   4.723  0.2174  0.2330 -0.1327
72958W        W73822  22.306  21.473   2.023 -0.1540  0.1850  0.2091
72959W        W73823  26.777  20.187   1.693  0.0900 -0.1408  0.0574
72960W        W73824  25.280  22.691   0.532  0.3309 -0.0667  0.1840
72961W        W73825  22.726  24.559   4.004  0.2032 -0.0809 -0.2836
72962W        W73826  22.646  25.937   2.745  0.2379  0.2742 -0.0363
72963W        W73827  23.268  22.257   1.626  0.2472  0.0142  0.2342
72964W        W73828  23.409  23.215  28.798  0.0194  0.1470 -0.3200
72965W        W73829  24.457  24.522   1.836  0.2527 -0.1371  0.1747
72966W        W73830  21.221  20.758   2.749 -0.0871  0.0765 -0.0935
72967W        W73831  24.556  19.174   4.098  0.2186  0.3714  0.0228
72968W        W73832  25.637  24.276   1.981  0.3152  0.0819 -0.0495
72969W        W73833  22.934  23.196   0.479 -0.1750 -0.2874 -0.0865
72970W        W73834  21.753  23.555   3.521 -0.0348 -0.3774  0.0720
72971W        W73835  22.077  21.947   2.053  0.1021  0.0406  0.1484
72972W        W73836  22.937  23.758   1.342 -0.3876 -0.1995  0.0059
72973W        W73837  26.146  21.998  28.702  0.2043  0.2658 -0.0681
72974W        W73838  26.328  23.877   2.582  0.0887  0.4879  0.1788
72975W        W73839  19.379  26.068   3.633 -0.0847 -0.2378 -0.2155
72976W        W73840  26.964  21.431   0.648 -0.1366  0.0220 -0.1872
72977W        W73841  24.675  21.811   4.115  0.0553 -0.0911  0.1630
72978W        W73842  24.922  23.374   3.145  0.2756 -0.0064  0.1095
72979W        W73843  21.590  25.557   0.069  0.1930  0.1924 -0.0259
72980W        W73844  25.596  19.650  27.570  0.0489  0.1468  0.0500
72981W        W73845  22.414  21.834   1.057 -0.0847 -0.0319  0.0480
72982W        W73846  21.146  26.083  27.711 -0.1911 -0.1381 -0.0533
72983W        W73847  22.651  22.673   0.364 -0.4459  0.0210 -0.1968
72984W        W73848  24.270  20.676   4.245  0.3590  0.1153 -0.2514
72985W        W73849  21.954  22.587   0.002 -0.0692 -0.1549 -0.1459
72986W        W73850  23.451  20.669   1.456 -0.0486 -0.3069 -0.1301
72987W        W73851  23.541  24.349   0.690  0.2751  0.2156 -0.3102
72988W        W73852  23.771  24.597   3.115  0.0557  0.0362  0.4007
72989W        W73853  23.109  24.873   2.608 -0.0439 -0.1583  0.1508
72990W        W73854  22.909  23.722   1.893  0.0454  0.1482 -0.0371
72991W        W73855  21.159  22.440   0.635  0.0721 -0.0676 -0.1564
72992W        W73856  25.146  22.970   3.307  0.1409  0.0011  0.1055
72993W        W73857  24.044  20.843   0.973 -0.0109  0.0091 -0.2855
72994W        W73858  22.705  23.332   3.307  0.2109 -0.1718 -0.4095
72995W        W73859  25.206  21.085  28.911  0.0109  0.0524 -0.0660
72996W        W73860  23.226  24.578   1.752  0.0056 -0.0808  0.0932
72997W        W73861  24.031  22.373   2.912 -0.0233 -0.0341 -0.0471
72998W        W73862  24.363  22.083   2.095  0.3523 -0.1461 -0.2357
72999W        W73863  22.604  19.831   2.285 -0.3703  0.0799  0.0093
73000W        W73864  22.412  23.894   4.012 -0.4113 -0.1692 -0.1171
73001W        W73865  25.248  23.450   4.138  0.2212  0.1847 -0.1493
73002W        W73866  24.095  23.659   2.187 -0.0275 -0.2330 -0.0038
73003W        W73867  25.023  21.058   4.116 -0.2372 -0.1018 -0.0625
73004W        W73868  25.822  19.573   2.618  0.0434  0.1029 -0.0958
73005W        W73869  23.788  20.976   1.958  0.2654  0.1415 -0.1850
73006W        W73870  21.695  20.739   1.695 -0.3149 -0.0494  0.0912
73007W        W73871  23.349  25.616   1.964  0.1396  0.0688  0.0112
73008W        W73872  24.829  23.801   3.435  0.0947  0.1567  0.0025
73009W        W73873  21.602  22.376   0.837  0.1822 -0.1691  0.2702
73010W        W73874  24.752  22.440   1.446  0.3067 -0.2387  0.4468
73011W        W73875  23.626  23.037   3.397 -0.0188 -0.1024 -0.3764
73012W        W73876  23.078  23.054   4.485  0.0407 -0.1264  0.0829
73013W        W73877  26.907  22.899  28.530 -0.0616 -0.2844 -0.0651
73014W        W73878  23.994  21.734   2.116 -0.0111  0.0287  0.4425
73015W        W73879  24.426  24.976   1.390 -0.0093 -0.0393 -0.1150
73016W        W73880  21.820  24.306   2.880 -0.0083  0.3304  0.4341
73017W        W73881  21.434  22.468   1.340 -0.0819 -0.0127 -0.3670
73018W        W73882  22.346  20.867   3.020  0.0248  0.1393  0.1431
73019W        W73883  23.272  21.052   2.800  0.1023  0.2616 -0.0621
73020W        W73884  23.309  22.483   1.068  0.0585  0.1487  0.0116
73021W        W73885  25.864  22.319   3.757 -0.1816  0.3081  0.1620
73022W        W73886  23.385  23.645   2.118 -0.0950  0.0964  0.0780
73023W        W73887  23.586  22.660   3.025  0.2099 -0.0816  0.1173
73024W        W73888  25.543  22.778   1.332  0.1056 -0.2137  0.0240
73025W        W73889  24.408  22.338   5.238  0.2478  0.0392  0.0053
73026W        W73890  24.452  20.783  28.541 -0.1804 -0.0965 -0.0321
73027W        W73891  21.049  21.557  28.849 -0.0319 -0.0653  0.0055
73028W        W73892  23.455  25.547   3.268  0.0784  0.2786 -0.0665
73029W        W73893  24.433  22.129   1.270  0.1383 -0.2048  0.0577
73030W        W73894  25.675  23.884  28.328 -0.0388 -0.0304 -0.1582
73031W        W73895  22.802  24.443  27.750 -0.0896 -0.1486  0.0271
73032W        W73896  21.508  24.425   0.688  0.0600  0.0822  0.1901
73033W        W73897  22.058  20.026   4.201  0.0076  0.0018 -0.2257
73034W        W73898  23.666  21.607   1.240  0.0336 -0.2546  0.1626
73035W        W73899  23.218  22.169  28.892 -0.0129 -0.0825  0.0812
73036W        W73900  26.784  21.139   0.259 -0.1909  0.1724  0.2433
73037W        W73901  21.597  21.790   2.624 -0.0031 -0.1161 -0.1237
73038W        W73902  23.672  21.984   0.890  0.0397 -0.1525 -0.0187
73039W        W73903  26.051  21.911   2.839 -0.2043 -0.0848 -0.1347
73040W        W73904  21.122  22.970   0.313 -0.1376  0.2544 -0.3080
73041W        W73905  26.698  22.739   0.688 -0.2412 -0.0471  0.2344
73042W        W73906  25.628  22.891   0.896 -0.2495 -0.3173  0.3169
73043W        W73907  25.343  21.895   1.945  0.0288 -0.1416 -0.0115
73044W        W73908  23.890  22.680   0.390 -0.1389 -0.6487  0.0302
73045W        W73909  22.088  23.123   0.713 -0.0637 -0.1374  0.2414
73046W        W73910  22.678  20.080   1.853 -0.1443 -0.2098 -0.0685
73047W        W73911  23.515  21.137   3.377 -0.3535  0.0885  0.1001
73048W        W73912  23.825  23.159   4.322  0.3638  0.1063 -0.0499
73049W        W73913  22.778  24.838   2.971  0.1880 -0.1546  0.0770
73050W        W73914  23.549  23.762   1.097 -0.2433 -0.2629 -0.1539
73051W        W73915  22.764  22.579   2.480 -0.0134 -0.2127 -0.0431
73052W        W73916  23.097  24.642   1.291  0.1262  0.4899  0.0768
73053W        W73917  24.184  20.024   2.261 -0.1839 -0.0909  0.1846
73054W        W73918  24.931  22.197   5.302 -0.0156 -0.0358 -0.2559
73055W        W73919  24.385  22.471  28.144 -0.0045 -0.2387 -0.1532
73056W        W73920  22.422  24.423   2.930  0.2981  0.1626  0.0617
73057W        W73921  21.239  24.849   2.182 -0.1383  0.1633  0.2410
73058W        W73922  24.058  21.507   4.287  0.3154  0.0326  0.0337
73059W        W73923  23.033  25.101   1.788 -0.0271 -0.5085  0.2712
73060W        W73924  26.663  22.400   5.060 -0.0961 -0.0570 -0.0377
73061W        W73925  24.455  21.586   0.292 -0.1470 -0.0520  0.3658
73062W        W73926  22.003  24.703   2.454  0.2835  0.1017  0.0010
73063W        W73927  24.356  24.182   1.126  0.1505  0.3860  0.2039
73064W        W73928  24.708  21.204  28.748 -0.2236  0.1112 -0.1095
73065W        W73929  22.551  20.747   5.204  0.2289  0.1035 -0.0121
73066W        W73930  21.675  23.711   2.700  0.3669  0.1445  0.1826
73067W        W73931  26.665  24.505   4.812  0.1877  0.2290  0.1543
73068W        W73932  25.918  25.124  28.484 -0.1630  0.2904 -0.2087
73069W        W73933  25.080  22.036   2.692 -0.3196  0.1756  0.1304
73070W        W73934  24.418  21.300   2.825  0.1048  0.0526  0.0567
73071W        W73935  23.240  20.710   3.619 -0.0931 -0.3236 -0.2254
73072W        W73936  25.476  24.278  27.410 -0.2386  0.0590  0.0073
73073W        W73937  21.322  22.997  28.629 -0.1629 -0.2207 -0.0513
73074W        W73938  21.556  22.312   2.667 -0.0154 -0.0973 -0.1838
73075W        W73939  21.928  22.758   3.562  0.4697  0.3876 -0.3339
73076W        W73940  26.392  21.109   2.237 -0.3592  0.0797 -0.1966
73077W        W73941  22.135  22.417   3.938  0.1251  0.0797  0.0429
73078W        W73942  22.117  21.672   2.888  0.0901  0.0148  0.0953
73079W        W73943  25.122  24.220   3.588 -0.1847 -0.0455  0.0835
73080W        W73944  24.324  21.753   1.661  0.1515  0.0347  0.1004
73081W        W73945  22.791  23.475   2.866 -0.0725  0.1490 -0.2216
73082W        W73946  22.149  22.569   2.662  0.2514  0.1911  0.0902
73083W        W73947  23.948  20.243   0.948 -0.0126 -0.0391  0.1993
73084W        W73948  24.273  21.664   3.156  0.0043 -0.0409  0.0292
73085W        W73949  24.150  20.863  28.916  0.1527 -0.2666  0.1268
73086W        W73950  25.505  22.194   2.968 -0.2184  0.0093  0.2851
73087W        W73951  23.092  22.210  28.415 -0.3182 -0.1473  0.2462
73088W        W73952  24.989  26.328  28.334  0.1942  0.0608  0.0296
73089W        W73953  23.579  22.055   2.158 -0.3722 -0.2054 -0.0088
73090W        W73954  21.136  21.120  28.622  0.0006 -0.1614 -0.0916
73091W        W73955  25.839  24.719   4.389 -0.1977  0.0819 -0.1202
73092W        W73956  25.073  21.839   3.742  0.1920 -0.0190  0.0312
73093W        W73957  25.140  20.967   4.588  0.2065 -0.2316 -0.3258
73094W        W73958  22.069  22.127   0.555 -0.0510 -0.1970  0.2196
73095W        W73959  23.052  26.278   1.283 -0.1670 -0.1213 -0.0769
73096W        W73960  25.142  19.776   1.417 -0.0977 -0.0492  0.1428
73097W        W73961  20.970  21.871   2.328  0.0251  0.1595 -0.2095
73098W        W73962  24.986  24.539   2.649  0.0995  0.0040  0.2715
73099W        W73963  25.085  23.022   2.795  0.1739  0.1952 -0.0106
73100W        W73964  23.646  22.329   2.580  0.2726  0.0585  0.2785
73101W        W73965  23.207  19.392   3.066  0.2408 -0.0713 -0.0885
73102W        W73966  22.865  21.556   3.956  0.2649  0.1554  0.1599
73103W        W73967  21.537  23.306   0.360 -0.0349  0.1039 -0.0971
73104W        W73968  24.409  25.332   2.797  0.0221 -0.0929 -0.3527
73105W        W73969  23.524  24.759   3.479  0.2127 -0.0928  0.1577
73106W        W73970  23.006  21.840  26.369 -0.0532  0.0288  0.0166
73107W        W73971  25.400  23.416   1.948 -0.0094 -0.3399  0.0454
73108W        W73972  21.355  20.322   1.689  0.2378 -0.0951 -0.0096
73109W        W73973  28.070  22.849   1.507  0.5312  0.0323 -0.0985
73110W        W73974  25.262  23.188   0.565 -0.0110 -0.4039 -0.2657
73111W        W73975  24.879  21.380   2.485  0.2194 -0.2702 -0.2070
73112W        W73976  23.182  23.332   3.667  0.1070  0.0460  0.2017
73113W        W73977  21.631  24.398   3.856 -0.0916 -0.0936 -0.3385
73114W        W73978  25.245  23.909   1.740  0.2202 -0.0623 -0.0350
73115W        W73979  23.432  19.121   4.192  0.2726 -0.2857 -0.2811
73116W        W73980  22.599  22.840   3.343  0.0334 -0.2142 -0.0679
73117W        W73981  22.272  23.658   3.570 -0.0140  0.0755 -0.1344
73118W        W73982  21.511  24.652  28.465 -0.1071  0.2469  0.3171
73119W        W73983  20.433  22.418   2.794  0.1310  0.0619 -0.0564
73120W        W73984  24.279  20.880   3.613 -0.1099 -0.0922 -0.1968
73121W        W73985  22.325  22.084   1.506 -0.0663  0.2213 -0.0466
73122W        W73986  20.600  26.148  27.586  0.3402 -0.0499  0.1402
73123W        W73987  19.863  24.279   1.215  0.2278 -0.0297 -0.2462
73124W        W73988  23.331  20.669   1.974 -0.0499 -0.1773 -0.1239
73125W        W73989  23.251  21.619   3.618 -0.4911  0.2785 -0.4351
73126W        W73990  25.229  22.437   3.448  0.1152  0.2827 -0.3889
73127W        W73991  21.554  23.035   3.409  0.4431  0.1158 -0.1743
73128W        W73992  26.534  21.308   1.141 -0.1056  0.2097 -0.0808
73129W        W73993  24.400  22.230  28.858 -0.1546  0.2522  0.0393
73130W        W73994  24.013  22.837  28.237  0.2320 -0.1661  0.1530
73131W        W73995  26.533  19.929  27.993  0.0671  0.0966  0.1193
73132W        W73996  21.363  21.473   2.230 -0.0972 -0.3478  0.0754
73133W        W73997  22.166  22.630   0.582  0.0411 -0.1304 -0.2133
73134W        W73998  21.491  24.214   1.505 -0.0162  0.0370 -0.2005
73135W        W73999  23.484  23.078   2.800  0.0768  0.1369 -0.3107
73136W        W74000  20.885  23.200   3.572 -0.3260 -0.4729 -0.0285
73137W        W74001  25.316  25.598   2.586  0.2585 -0.1153 -0.2250
73138W        W74002  25.348  21.722   1.321 -0.2391 -0.2153 -0.1179
73139W        W74003  21.614  22.487  28.769  0.0624  0.2081  0.1268
73140W        W74004  21.758  26.027   0.535 -0.2642  0.0023  0.2054
73141W        W74005  22.264  19.525   3.602 -0.1854  0.0688 -0.0946
73142W        W74006  24.923  21.811   2.231 -0.0123  0.1427  0.0215
73143W        W74007  24.779  26.576   2.224 -0.1102  0.1057  0.4228
73144W        W74008  25.218  25.798   0.246  0.0687 -0.0037 -0.1405
73145W        W74009  22.763  23.966   2.762 -0.0638 -0.0760  0.2403
73146W        W74010  25.103  20.630   5.545 -0.1640 -0.1070  0.0439
73147W        W74011  25.463  19.201   0.496 -0.0110 -0.1768 -0.1902
73148W        W74012  26.497  21.233   0.646  0.1728 -0.1670 -0.2690
73149W        W74013  22.456  23.242   1.677  0.4070  0.1978  0.0794
73150W        W74014  26.128  21.712  29.105  0.2964 -0.2271 -0.0532
73151W        W74015  23.765  21.534   2.581 -0.4345 -0.1749  0.2167
73152W        W74016  25.818  21.831   1.149  0.1477 -0.2910  0.1253
73153W        W74017  22.877  21.948   0.791 -0.2168 -0.0452  0.3029
73154W        W74018  22.850  24.225   3.214 -0.1871  0.0720  0.1063
73155W        W74019  24.074  23.865   2.626  0.0759  0.1517 -0.2742
73156W        W74020  23.107  22.955   0.923  0.0413 -0.1728  0.0434
73157W        W74021  24.191  21.330   1.248  0.2579 -0.1137  0.1399
73158W        W74022  24.719  21.690   5.466 -0.0302  0.0134  0.1225
73159W        W74023  23.883  23.790   0.087 -0.0984 -0.1371 -0.1504
73160W        W74024  22.939  22.713   1.532 -0.1512  0.1339  0.2850
73161W        W74025  24.400  24.234   4.245 -0.1419  0.2180 -0.2113
73162W        W74026  22.519  24.139   3.535  0.0139  0.0630 -0.0599
73163W        W74027  23.152  22.294   2.155 -0.3893 -0.0081 -0.2490
73164W        W74028  21.829  24.885   0.660 -0.1563 -0.1454 -0.0926
73165W        W74029  21.640  26.404   0.800 -0.3013  0.2672  0.1887
73166W        W74030  24.656  20.160   2.073 -0.0321 -0.2231  0.0254
73167W        W74031  22.890  23.475   0.875  0.0680 -0.0137  0.0300
73168W        W74032  22.128  24.591  28.441  0.0185 -0.2491 -0.0798
73169W        W74033  23.119  22.355  27.778 -0.0705 -0.1879 -0.0894
73170W        W74034  20.724  20.448   2.455  0.1786 -0.0695  0.1325
73171W        W74035  24.431  19.030  27.120  0.2022  0.1727 -0.1231
73172W        W74036  27.089  23.975   4.161  0.2403  0.4033  0.2644
73173W        W74037  21.910  21.493   3.370 -0.3634  0.2565 -0.1874
73174W        W74038  27.234  24.193   2.325  0.0425 -0.2222  0.2025
73175W        W74039  24.090  21.398   4.848 -0.0294  0.0421  0.2003
73176W        W74040  22.540  25.158   1.874  0.2377 -0.0715 -0.0024
73177W        W74041  26.124  23.797   3.771 -0.0963  0.1070  0.3458
73178W        W74042  22.560  22.316   0.039 -0.3674  0.0222  0.0477
73179W        W74043  24.411  21.462   0.767  0.0096  0.0587  0.2607
73180W        W74044  19.683  28.345   0.696 -0.2364 -0.2750 -0.0380
73181W        W74045  21.527  23.227   1.634  0.2669  0.2228  0.0929
73182W        W74046  24.062  21.246   2.354  0.0356  0.1225 -0.0761
73183W        W74047  20.317  22.030  29.064  0.0053 -0.2317 -0.0454
73184W        W74048  23.120  21.547   1.482  0.0636 -0.2813 -0.0129
73185W        W74049  23.475  23.599   3.344  0.2968 -0.4025 -0.2382
73186W        W74050  20.841  24.266  28.571  0.1194 -0.0850 -0.2988
73187W        W74051  21.578  22.735   4.131 -0.2681  0.2555 -0.0917
73188W        W74052  21.580  26.185   2.762  0.0323 -0.0773  0.4065
73189W        W74053  21.657  22.834   0.460 -0.0670 -0.0718  0.2600
73190W        W74054  25.276  22.755   4.682  0.0504 -0.3177  0.2008
73191W        W74055  24.248  21.051   1.941 -0.1222 -0.3951  0.0821
73192W        W74056  25.970  23.367   4.456 -0.1360 -0.5108 -0.2416
73193W        W74057  24.450  24.178   2.186 -0.0742  0.0048  0.2976
73194W        W74058  22.152  23.845   2.716  0.2417  0.0278  0.0941
73195W        W74059  25.217  19.028   2.251  0.1121  0.0744 -0.2643
73196W        W74060  22.250  27.191   1.207  0.3399 -0.1094  0.0915
73197W        W74061  21.738  19.693   3.614 -0.1240 -0.3818 -0.3030
73198W        W74062  20.429  22.445   4.610 -0.0995  0.0937 -0.0490
73199W        W74063  22.587  22.923   2.780  0.1291  0.1216 -0.1138
73200W        W74064  22.082  23.003   2.908 -0.0544  0.0648 -0.1039
73201W        W74065  24.839  20.597   4.317  0.2746 -0.0651  0.2932
73202W        W74066  20.633  22.823   3.221  0.1993 -0.1138 -0.1223
73203W        W74067  24.902  21.128   2.075  0.0334  0.2250 -0.0683
73204W        W74068  24.099  24.581   1.238  0.1293 -0.2022 -0.2102
73205W        W74069  24.246  23.444   2.846  0.1146  0.0181 -0.0600
73206W        W74070  24.048  24.065   3.905 -0.0879 -0.2077  0.0008
73207W        W74071  25.770  22.581   0.585 -0.2036 -0.0050 -0.6622
73208W        W74072  25.374  18.816   0.979 -0.2334  0.4622  0.2357
73209W        W74073  24.927  21.802   0.463 -0.0156  0.4593 -0.1773
73210W        W74074  21.763  21.892   0.190  0.0062  0.0632 -0.0526
73211W        W74075  26.543  21.860  28.494 -0.2939  0.4470  0.0083
73212W        W74076  23.815  23.330   1.385 -0.1219 -0.2539  0.2736
73213W        W74077  23.351  19.544   5.504 -0.0403  0.2046  0.4109
73214W        W74078  24.983  23.570   2.163  0.1806 -0.2229  0.1029
73215W        W74079  24.167  18.394   4.735  0.2498  0.0306  0.0358
73216W        W74080  21.135  21.752   1.868 -0.2131  0.2220 -0.1939
73217W        W74081  24.101  26.926   6.642 -0.1485 -0.0695  0.1891
73218W        W74082  22.270  23.873   5.600  0.0531  0.1610  0.1005
73219W        W74083  22.395  22.587   5.393 -0.1531  0.0450 -0.1993
73220W        W74084  25.883  22.478   3.259  0.3108  0.1368  0.1211
73221W        W74085  21.532  23.685   1.063  0.1815 -0.1091 -0.2654
73222W        W74086  23.040  22.792   2.966  0.1217  0.1607 -0.2593
73223W        W74087  23.095  22.855   3.557  0.0179 -0.0649  0.0561
73224W        W74088  23.523  26.003   3.123  0.3205 -0.0119  0.0432
73225W        W74089  23.734  23.502   2.857 -0.2701 -0.1805  0.2692
73226W        W74090  23.619  25.939   1.676  0.2158  0.1568  0.1314
73227W        W74091  22.971  24.999   4.135  0.3026 -0.0097  0.1308
73228W        W74092  22.652  27.457   3.468  0.0434 -0.1854  0.0225
73229W        W74093  23.530  22.075   3.753 -0.1800  0.1264  0.2134
73230W        W74094  24.833  23.577   5.243 -0.2587  0.1311 -0.0364
73231W        W74095  21.335  25.358   2.321 -0.1966  0.0793 -0.1492
73232W        W74096  24.277  22.326   4.752 -0.2526  0.2129  0.3526
73233W        W74097  24.481  26.120   2.234  0.2319  0.1262  0.0041
73234W        W74098  22.752  22.362   1.855 -0.1711  0.3254  0.1285
73235W        W74099  22.800  23.502   5.586 -0.0210 -0.0753 -0.2018
73236W        W74100  22.457  25.357   2.918 -0.0602 -0.0719  0.0225
73237W        W74101  23.606  24.926   4.884 -0.0351  0.1749 -0.1275
73238W        W74102  23.769  23.768   0.644 -0.0314 -0.0555 -0.1780
73239W        W74103  23.124  23.624  28.581 -0.2070  0.0242  0.2099
73240W        W74104  23.130  24.084   7.406  0.0183  0.0158  0.0576
73241W        W74105  22.857  24.253   4.890 -0.1350  0.1357  0.2366
73242W        W74106  25.701  22.439   5.002  0.1639  0.1034  0.1672
73243W        W74107  26.390  25.428   9.875  0.1489  0.1813  0.0515
73244W        W74108  24.172  25.559   3.895 -0.1055  0.2106 -0.2119
73245W        W74109  21.269  23.533   5.826  0.0287 -0.1975 -0.2217
73246W        W74110  22.431  26.388   6.283  0.0066 -0.1033 -0.1254
73247W        W74111  25.203  21.465   3.280  0.0722 -0.2006  0.0307
73248W        W74112  21.570  24.738   8.640 -0.0552 -0.0095  0.0977
73249W        W74113  22.466  21.777   5.971 -0.0716 -0.1186 -0.2495
73250W        W74114  21.857  22.254   6.676  0.1336 -0.0999  0.1071
73251W        W74115  24.785  23.046   8.000 -0.2277 -0.0651 -0.0814
73252W        W74116  23.471  20.276   3.952 -0.2306  0.1026 -0.2395
73253W        W74117  23.003  24.096   6.274 -0.1763 -0.3979  0.0332
73254W        W74118  23.478  22.747   4.501  0.2415 -0.3100 -0.0741
73255W        W74119  23.036  25.303   8.048 -0.0610 -0.3468 -0.3750
73256W        W74120  21.935  22.495   4.440  0.4995 -0.0950  0.0612
73257W        W74121  20.840  23.971   5.138 -0.0839 -0.0631  0.1693
73258W        W74122  21.570  22.109   5.982  0.1368  0.1976  0.0330
73259W        W74123  26.116  20.888   5.444  0.5234 -0.0542  0.1423
73260W        W74124  23.810  20.991   4.403  0.0107  0.0348  0.0470
73261W        W74125  21.515  23.768   6.466  0.1568  0.1678 -0.1024
73262W        W74126  23.788  22.599   4.172 -0.1655  0.2179  0.2133
73263W        W74127  21.026  24.020   6.325  0.0733  0.1239 -0.0745
73264W        W74128  24.212  26.333   6.036  0.0127 -0.1954 -0.1684
73265W        W74129  22.882  24.361   8.474  0.0079 -0.0726  0.0884
73266W        W74130  26.935  23.913   7.086 -0.0379  0.1756 -0.1215
73267W        W74131  23.598  25.555   5.935  0.1336  0.0627 -0.1802
73268W        W74132  20.841  23.590   5.523  0.2190  0.2239 -0.1017
73269W        W74133  20.229  22.884   6.579 -0.5458  0.0527 -0.0235
73270W        W74134  23.152  23.569   4.694  0.1218 -0.1976  0.0075
73271W        W74135  25.668  23.037   7.157  0.1719 -0.5521  0.2986
73272W        W74136  21.425  21.236   4.265 -0.0078  0.1596  0.1206
73273W        W74137  24.803  24.837   5.927  0.1426 -0.1427 -0.1137
73274W        W74138  21.535  20.112   8.523  0.2824 -0.0726 -0.0169
73275W        W74139  24.663  23.947   5.568  0.0770  0.3316  0.0809
73276W        W74140  21.387  21.893   4.820  0.0943  0.4350  0.0756
73277W        W74141  22.405  21.817   4.187 -0.1302  0.0129  0.0533
73278W        W74142  26.181  23.347   3.973 -0.0795  0.0821  0.0219
73279W        W74143  24.501  24.008   5.034 -0.1717 -0.0159 -0.1941
73280W        W74144  24.816  23.091   5.599 -0.2570  0.2312  0.2918
73281W        W74145  27.826  23.834   5.913 -0.1039  0.0806 -0.0187
73282W        W74146  21.987  23.509   6.516  0.2203 -0.1594 -0.0245
73283W        W74147  22.850  19.560   5.035  0.0564  0.1578 -0.1588
73284W        W74148  20.474  25.501   4.957  0.0744  0.0834  0.0352
73285W        W74149  21.920  23.965   3.760 -0.0647 -0.0661  0.1198
73286W        W74150  22.655  20.410   4.758  0.0012  0.2068  0.4195
73287W        W74151  27.490  25.631   6.085  0.0031  0.3322  0.0590
73288W        W74152  23.968  22.014   7.763  0.2403  0.0849 -0.1534
73289W        W74153  26.066  25.587   6.785  0.1823  0.0632  0.0117
73290W        W74154  22.207  23.384   4.009 -0.0754 -0.0320 -0.2017
73291W        W74155  23.438  21.623   7.676  0.0548 -0.0200  0.1280
73292W        W74156  22.822  24.057   5.789  0.3061  0.1032  0.0142
73293W        W74157  24.739  26.249   6.047  0.0600 -0.0367  0.4506
73294W        W74158  25.588  22.609   6.432  0.0066 -0.0918  0.0644
73295W        W74159  20.804  25.293   5.300  0.0098  0.3011 -0.0572
73296W        W74160  22.291  19.019   5.365 -0.1413 -0.1167 -0.1946
73297W        W74161  23.178  21.275   6.126 -0.0854  0.2342  0.4142
73298W        W74162  23.487  24.064   5.998 -0.1598  0.2868  0.0586
73299W        W74163  22.538  22.042   3.760 -0.0073  0.0644  0.0695
73300W        W74164  23.542  19.132   5.611  0.0370 -0.1578 -0.0051
73301W        W74165  20.060  28.162   2.581  0.0733  0.3667  0.1041
73302W        W74166  21.787  26.404   7.669  0.1642  0.3950  0.2553
73303W        W74167  21.867  22.252   3.518 -0.0196  0.1369 -0.1895
73304W        W74168  23.715  22.161   5.935 -0.1653  0.0169 -0.1554
73305W        W74169  24.026  18.281   6.377  0.0588  0.1583 -0.0215
73306W        W74170  24.501  20.997   2.355  0.1649  0.2628 -0.2209
73307W        W74171  24.341  25.314   3.469 -0.2897 -0.1843  0.5469
73308W        W74172  20.467  25.234   6.109  0.0144  0.1684  0.2939
73309W        W74173  23.856  23.897   3.428 -0.0022  0.0252  0.1871
73310W        W74174  23.110  24.868   5.814  0.1297 -0.1802 -0.0176
73311W        W74175  23.809  19.804   6.446 -0.0548  0.0402  0.2434
73312W        W74176  24.698  25.829   6.349  0.0353  0.1578  0.1087
73313W        W74177  23.692  24.165   7.049 -0.0015 -0.1056 -0.2770
73314W        W74178  25.342  24.969   3.334 -0.0250 -0.0748 -0.0295
73315W        W74179  25.803  25.946   5.154 -0.0640 -0.1901 -0.2273
73316W        W74180  22.473  23.982   6.171 -0.2366 -0.0075 -0.0030
73317W        W74181  23.161  22.200   8.254  0.2738 -0.1029  0.0448
73318W        W74182  24.558  22.326   6.258 -0.2639  0.0338  0.0362
73319W        W74183  24.425  22.969   3.439 -0.2115 -0.1814 -0.0325
73320W        W74184  21.800  23.404   7.416 -0.2216 -0.2821  0.3802
73321W        W74185  22.473  23.020   8.653  0.0755  0.2408  0.3998
73322W        W74186  21.820  22.131   4.806 -0.2141 -0.0539  0.2380
73323W        W74187  22.122  21.117   8.393  0.2295  0.0650  0.2102
73324W        W74188  24.977  21.727   8.558  0.1610 -0.2920 -0.0546
73325W        W74189  22.800  19.308   2.269 -0.0118 -0.1247  0.3166
73326W        W74190  24.590  24.525   7.738  0.2071 -0.3064  0.1640
73327W        W74191  24.071  21.847   4.622  0.1531  0.2762  0.0133
73328W        W74192  24.429  21.623   5.909 -0.0390  0.1556  0.1675
73329W        W74193  24.742  22.918   6.555  0.1412 -0.0511  0.3771
73330W        W74194  23.171  20.545   4.590 -0.3662 -0.1598  0.3046
73331W        W74195  25.893  24.544   5.781  0.0590 -0.2347  0.1902
73332W        W74196  22.368  25.331   6.326 -0.2335 -0.2064 -0.0113
73333W        W74197  24.614  19.427   3.172  0.0090  0.1823 -0.4708
73334W        W74198  23.636  21.946   7.241 -0.0892  0.0617  0.0172
73335W        W74199  22.520  19.326   4.608  0.0796 -0.1846 -0.1498
73336W        W74200  23.415  22.269   4.220  0.1173 -0.2455  0.0732
73337W        W74201  21.374  25.708   5.840  0.0622 -0.2535 -0.0675
73338W        W74202  19.406  22.136   3.101  0.3974  0.0344  0.2064
73339W        W74203  24.630  20.418   5.853  0.1416 -0.1919 -0.0318
73340W        W74204  23.718  22.202   3.313  0.0886 -0.0292 -0.1878
73341W        W74205  23.018  25.422   5.107 -0.1791  0.0514 -0.0389
73342W        W74206  24.745  20.332   5.357 -0.0395 -0.1590 -0.1469
73343W        W74207  27.857  24.348   6.002 -0.0680 -0.1903  0.1529
73344W        W74208  24.069  21.094   4.002  0.4028 -0.1300 -0.0638
73345W        W74209  24.616  24.317   5.916 -0.2093  0.0253  0.0655
73346W        W74210  26.020  25.902   3.905 -0.1212 -0.1074  0.0474
73347W        W74211  24.664  23.218   6.939  0.0358 -0.1308 -0.1200
73348W        W74212  25.738  21.228   6.634  0.1664 -0.2465  0.1742
73349W        W74213  21.997  22.542   4.957 -0.3641 -0.0430  0.4704
73350W        W74214  20.265  20.606   7.226  0.4525 -0.0837  0.2284
73351W        W74215  23.019  25.906   4.267  0.0884 -0.2753  0.0615
73352W        W74216  23.900  22.757   4.756 -0.0372 -0.2738 -0.1827
73353W        W74217  25.447  25.146   8.428 -0.0027 -0.0799 -0.2565
73354W        W74218  24.472  26.631   3.907  0.0696  0.0878  0.0209
73355W        W74219  22.857  21.146   4.295 -0.1124  0.0479 -0.0142
73356W        W74220  26.129  20.260   5.434 -0.2739 -0.5744  0.0221
73357W        W74221  22.981  21.687   7.466 -0.1465 -0.2022 -0.2233
73358W        W74222  23.309  22.019   5.107 -0.0355 -0.1271 -0.2171
73359W        W74223  22.992  22.268   4.859 -0.0818  0.1163 -0.1823
73360W        W74224  24.109  21.040   5.775  0.0388 -0.1656 -0.1542
73361W        W74225  25.534  24.357   5.462  0.1385  0.2047 -0.1882
73362W        W74226  23.743  25.721   5.387  0.4034 -0.1966  0.0591
73363W        W74227  24.174  24.555   5.042 -0.1727 -0.2588  0.1619
73364W        W74228  22.620  24.645   5.117  0.4015 -0.0825  0.0218
73365W        W74229  23.562  26.982   3.081  0.0986 -0.0553 -0.2825
73366W        W74230  22.569  21.848   7.912  0.2382 -0.0238 -0.0737
73367W        W74231  26.265  23.074   6.264  0.2360  0.0358  0.1591
73368W        W74232  23.186  24.402   5.872 -0.0043 -0.1398 -0.2027
73369W        W74233  23.596  23.480   5.305 -0.2376 -0.2558 -0.1065
73370W        W74234  22.442  21.849   6.472  0.1409  0.0631 -0.0540
73371W        W74235  23.828  23.614   5.845  0.2155 -0.4893 -0.0300
73372W        W74236  23.628  26.181   6.222 -0.0278  0.0979 -0.2763
73373W        W74237  24.008  23.282   5.533  0.0901 -0.0654  0.1293
73374W        W74238  24.171  23.199   6.485 -0.2284 -0.4098 -0.2060
73375W        W74239  19.921  24.438   5.202 -0.1846  0.1947 -0.0258
73376W        W74240  24.464  20.395   4.651 -0.2785 -0.1125  0.5306
73377W        W74241  23.638  21.419   4.554 -0.0573  0.0179  0.1117
73378W        W74242  24.725  24.786   4.905 -0.2254 -0.0629 -0.0433
73379W        W74243  25.267  23.949   4.184 -0.2767 -0.2850 -0.2767
73380W        W74244  20.164  22.662   4.019 -0.0512  0.1156 -0.2320
73381W        W74245  21.528  20.044   4.021  0.3758  0.0410  0.0311
73382W        W74246  24.165  25.157   4.242 -0.0805 -0.1845  0.1417
73383W        W74247  21.628  22.738   3.035 -0.2919 -0.0016 -0.3429
73384W        W74248  22.936  23.700   6.578 -0.0898 -0.1686 -0.2318
73385W        W74249  22.496  22.710   6.200  0.0172 -0.3460 -0.0574
73386W        W74250  23.581  20.668   4.997 -0.1593  0.1641  0.2895
73387W        W74251  24.927  26.458   3.034  0.2114 -0.1675  0.1575
73388W        W74252  23.459  24.894   7.177 -0.3272 -0.0055  0.1104
73389W        W74253  22.359  23.034   6.606 -0.4808 -0.1987 -0.0296
73390W        W74254  24.867  26.247   6.578 -0.1911 -0.0174 -0.0950
73391W        W74255  21.495  20.864   3.915 -0.0622  0.3917 -0.1242
73392W        W74256  24.255  24.157   6.910  0.1793 -0.1532  0.0763
73393W        W74257  24.006  22.655   3.360 -0.1527 -0.2981  0.0569
73394W        W74258  24.211  21.813   5.448  0.1061  0.1372  0.0129
73395W        W74259  25.572  20.543   6.588  0.1543 -0.1837  0.0329
73396W        W74260  19.877  24.820   5.558  0.1107 -0.0604 -0.0161
73397W        W74261  24.353  23.720   4.311  0.0699 -0.2167 -0.1174
73398W        W74262  22.330  21.523   5.515 -0.0987 -0.2001 -0.0427
73399W        W74263  24.080  20.677   6.214 -0.0367 -0.0434  0.0760
73400W        W74264  24.703  20.924   5.363 -0.1214 -0.0987  0.0973
73401W        W74265  22.801  26.049   7.795 -0.0965  0.0098  0.0685
73402W        W74266  21.395  23.152   8.323  0.0647 -0.0128 -0.3473
73403W        W74267  25.125  22.264   2.146 -0.1976 -0.1039  0.1548
73404W        W74268  22.903  20.412   7.381 -0.0117  0.3277  0.0789
73405W        W74269  23.056  23.394   5.148  0.2353 -0.0369 -0.0381
73406W        W74270  22.947  23.606   6.046 -0.1330  0.1124  0.0044
73407W        W74271  21.606  24.911   3.740 -0.0834 -0.1333  0.0529
73408W        W74272  24.947  24.974  10.089 -0.1594  0.1186  0.0532
73409W        W74273  21.517  24.651   4.295 -0.3082 -0.3059 -0.0763
73410W        W74274  22.700  19.350   3.887 -0.0062  0.2917 -0.1395
73411W        W74275  22.469  23.480   5.937 -0.0327 -0.0577  0.0248
73412W        W74276  23.451  22.369   5.407  0.1285  0.1704  0.0910
73413W        W74277  24.308  23.662   3.793  0.0274 -0.1690 -0.0262
73414W        W74278  24.481  23.476   5.732 -0.0425  0.4987  0.0442
73415W        W74279  26.178  20.698   6.658 -0.0536 -0.0594  0.0856
73416W        W74280  20.374  20.626   6.048  0.0524 -0.1516  0.3348
73417W        W74281  23.685  23.017   8.030  0.0313 -0.0914 -0.0175
73418W        W74282  21.948  26.844   5.222 -0.0686  0.0519 -0.1882
73419W        W74283  24.383  22.996   6.069  0.2847 -0.0726  0.1585
73420W        W74284  21.589  24.435   5.250 -0.2257  0.0722  0.1701
73421W        W74285  25.314  25.942   4.727  0.1660 -0.1450 -0.2231
73422W        W74286  24.983  22.521   0.988 -0.0034 -0.1208  0.2046
73423W        W74287  24.251  19.426   5.647  0.0681  0.1360  0.2043
73424W        W74288  22.968  21.142   3.716  0.2837  0.0558  0.1293
73425W        W74289  25.385  26.253   5.829 -0.0302  0.1898 -0.0581
73426W        W74290  23.497  20.371   3.424 -0.1332  0.0842  0.1133
73427W        W74291  21.200  22.020   2.855 -0.0997 -0.2143 -0.0868
73428W        W74292  25.100  25.401   7.708  0.1085 -0.0818  0.3271
73429W        W74293  22.862  22.173   4.193  0.1309 -0.0200 -0.1756
73430W        W74294  22.846  22.579   5.821 -0.0859 -0.3167 -0.0527
73431W        W74295  20.814  23.703   4.316 -0.0529  0.0580  0.4299
73432W        W74296  23.260  23.483   9.387 -0.1380  0.1829  0.0603
73433W        W74297  20.616  21.315   7.427  0.1625  0.1097 -0.0305
73434W        W74298  25.339  23.989   8.629 -0.2226  0.0128 -0.2138
73435W        W74299  24.272  21.044   4.537  0.1030 -0.0597  0.0820
73436W        W74300  21.898  21.232   3.810  0.1422  0.0290 -0.0503
73437W        W74301  23.415  23.311   5.727  0.0617 -0.0723 -0.0275
73438W        W74302  19.918  20.243   3.810  0.1580 -0.0734 -0.2100
73439W        W74303  24.850  23.204   6.097  0.1054 -0.0925  0.1368
73440W        W74304  24.779  22.263   3.432  0.0040  0.1191  0.1836
73441W        W74305  25.273  23.193   6.920  0.0452 -0.0535  0.0528
73442W        W74306  25.099  19.436   4.280  0.0646 -0.0687  0.0910
73443W        W74307  24.718  22.256   3.970  0.3257 -0.2141  0.0129
73444W        W74308  24.007  23.385   8.199  0.2804  0.2038 -0.1217
73445W        W74309  23.079  20.509   5.115 -0.1347  0.0447  0.0563
73446W        W74310  20.139  22.738   3.409  0.1819 -0.0373  0.1071
73447W        W74311  24.341  23.379   7.764 -0.0877 -0.1563 -0.1620
73448W        W74312  22.950  23.118   5.863 -0.1003  0.0272 -0.2421
73449W        W74313  23.209  25.326   6.637  0.0066  0.1195  0.4423
73450W        W74314  24.184  25.721   8.516 -0.3328  0.3075 -0.0881
73451W        W74315  21.590  25.404   9.214  0.3097  0.0133  0.3480
73452W        W74316  23.394  21.878   4.628 -0.2064  0.1033 -0.0901
73453W        W74317  23.938  21.611   5.824 -0.0747  0.1057  0.1975
73454W        W74318  25.409  24.455   6.024  0.0663 -0.2244 -0.0167
73455W        W74319  24.205  22.029   6.097 -0.1046  0.3710  0.0249
73456W        W74320  23.356  21.248   4.201 -0.3136  0.1548 -0.1319
73457W        W74321  22.135  24.402   4.000 -0.1760  0.0727 -0.0870
73458W        W74322  25.391  24.908   8.020 -0.2013  0.1759 -0.0096
73459W        W74323  23.743  24.208   8.519  0.1542  0.5226 -0.0534
73460W        W74324  24.447  20.977   6.530  0.0713  0.0389  0.0840
73461W        W74325  26.143  24.068   9.159  0.0628  0.0060 -0.4205
73462W        W74326  21.937  24.643   6.999  0.0246  0.1896  0.1315
73463W        W74327  21.886  20.787   5.791 -0.1691  0.3906 -0.1127
73464W        W74328  24.190  22.675   6.407  0.0617  0.0478  0.1626
73465W        W74329  21.355  23.035   6.063 -0.2988 -0.0748  0.0498
73466W        W74330  21.557  22.802   4.958 -0.1660 -0.0502  0.0569
73467W        W74331  25.157  22.527   5.662 -0.0190 -0.0503 -0.1214
73468W        W74332  22.378  22.433   3.527 -0.0010 -0.3295 -0.1527
73469W        W74333  23.682  21.895   5.499 -0.1166  0.1861 -0.1190
73470W        W74334  21.248  23.409   7.417  0.2329  0.0955 -0.0363
73471W        W74335  23.028  22.127   7.738 -0.0864  0.0710  0.0240
73472W        W74336  23.089  24.153   6.748  0.0788 -0.0236  0.1743
73473W        W74337  26.664  24.271   5.817 -0.1709 -0.1974 -0.0865
73474W        W74338  22.720  24.558   5.998 -0.3196 -0.2196 -0.0227
73475W        W74339  22.944  24.999   5.339 -0.2618 -0.0853 -0.1465
73476W        W74340  27.076  21.786   2.391  0.0772 -0.0837 -0.2307
73477W        W74341  23.151  23.673   8.429 -0.1597 -0.2332  0.0256
73478W        W74342  23.559  26.298   3.972 -0.0372  0.3417  0.3177
73479W        W74343  25.507  26.361   3.860  0.0233  0.0256  0.0366
73480W        W74344  24.446  22.613   3.073  0.0387  0.0446 -0.0477
73481W        W74345  22.975  21.472   9.640 -0.1341 -0.0001  0.0543
73482W        W74346  23.295  22.146   6.274  0.2263 -0.0200 -0.3917
73483W        W74347  22.903  21.797   6.174  0.0594  0.0550  0.3628
73484W        W74348  27.609  20.925   4.188 -0.0066  0.3742  0.0387
73485W        W74349  23.443  24.837   5.369 -0.0370 -0.2960 -0.0542
73486W        W74350  25.982  23.507   7.428  0.1315 -0.0531 -0.1027
73487W        W74351  22.288  23.317   8.297 -0.1027  0.0805  0.1032
73488W        W74352  26.461  27.141   5.388 -0.2036 -0.1880 -0.2873
73489W        W74353  22.852  23.025   4.013 -0.0738  0.1368  0.1124
73490W        W74354  20.262  23.441   6.410 -0.2186 -0.1231  0.3121
73491W        W74355  23.752  24.135   4.304  0.0587  0.0408  0.2512
73492W        W74356  23.979  26.040   8.073 -0.0510  0.1379 -0.2806
73493W        W74357  25.378  23.443   7.380  0.0372  0.0108 -0.2227
73494W        W74358  24.903  22.647   2.472 -0.2670 -0.1546 -0.1270
73495W        W74359  25.483  25.312   5.897  0.2492  0.3012 -0.0621
73496W        W74360  21.536  20.174   5.835 -0.1520  0.2704  0.1108
73497W        W74361  23.924  22.766   7.319  0.3223 -0.1058 -0.0155
73498W        W74362  26.843  26.203   4.257  0.1431 -0.2048  0.1372
73499W        W74363  22.772  22.993   8.151  0.0727  0.0315  0.0165
73500W        W74364  21.956  22.018   4.356  0.1366  0.2258 -0.0846
73501W        W74365  23.823  23.162   6.075  0.1149  0.2082  0.1914
73502W        W74366  23.843  23.839   6.273  0.2949  0.0119  0.0189
73503W        W74367  22.645  24.403   6.964 -0.2360  0.2037 -0.1951
73504W        W74368  24.095  25.026   6.006 -0.1370  0.1314  0.1271
73505W        W74369  23.798  27.590   7.873  0.1128 -0.0348 -0.2734
73506W        W74370  22.023  24.600   3.522  0.3507 -0.4068 -0.0086
73507W        W74371  24.684  24.964   6.436  0.2049  0.0684  0.1932
73508W        W74372  24.106  25.329   7.619  0.1485 -0.0466  0.0767
73509W        W74373  25.370  24.818   4.211 -0.1361 -0.1550 -0.1074
73510W        W74374  23.735  22.331   4.565 -0.1577  0.2267 -0.0124
73511W        W74375  27.241  23.564   7.159 -0.0511 -0.0380 -0.0199
73512W        W74376  23.385  22.793   6.632 -0.3512  0.1868  0.1754
73513W        W74377  24.769  21.349   6.242  0.4163 -0.0980 -0.0020
73514W        W74378  25.746  27.012   8.290 -0.0445 -0.1890  0.2724
73515W        W74379  26.133  22.487   7.817 -0.2803 -0.1370 -0.1593
73516W        W74380  21.429  19.407   7.332  0.0075 -0.3127 -0.2545
73517W        W74381  20.781  20.700   8.970  0.0459  0.0315 -0.0075
73518W        W74382  23.052  22.635   6.253  0.0693  0.0309  0.2113
73519W        W74383  20.951  25.007   7.635  0.0813 -0.0651 -0.1762
73520W        W74384  23.099  22.576   3.963  0.5212 -0.1088 -0.0812
73521W        W74385  21.801  22.078   3.067 -0.1248 -0.1683 -0.1196
73522W        W74386  23.438  22.458   4.936 -0.0365  0.0661  0.1774
73523W        W74387  22.468  26.746   8.174 -0.1331 -0.1126 -0.0136
73524W        W74388  23.536  22.594   3.679 -0.0444 -0.1190  0.3021
73525W        W74389  25.138  25.414   7.196 -0.1138 -0.0949  0.0202
73526W        W74390  24.550  22.810   4.051 -0.2097 -0.0251 -0.2222
73527W        W74391  21.553  21.134   7.704 -0.1679 -0.0413  0.0504
73528W        W74392  23.197  19.386   3.812 -0.0967 -0.2970 -0.1053
73529W        W74393  23.833  24.783   6.400 -0.2984  0.1057 -0.3365
73530W        W74394  24.712  19.111   5.690 -0.0189  0.0769 -0.0240
73531W        W74395  22.773  21.543   2.404  0.0239  0.0669 -0.0250
73532W        W74396  22.395  23.423   7.365  0.2999 -0.0855  0.0151
73533W        W74397  21.493  21.919   5.530  0.3179 -0.2220  0.1164
73534W        W74398  22.536  24.414   5.494  0.2086 -0.2298  0.1639
73535W        W74399  25.016  20.613   5.007  0.0237 -0.1609  0.0217
73536W        W74400  22.982  21.141   5.686 -0.3426 -0.0257  0.1071
73537W        W74401   1.046  25.609   5.204  0.0616  0.1415 -0.1355
73538W        W74402  24.637  22.159   4.467  0.0105 -0.2968 -0.0732
73539W        W74403  21.595  25.423   1.895  0.0107  0.2554  0.3141
73540W        W74404  21.727  24.709   4.758 -0.1221  0.0529 -0.2046
73541W        W74405  20.164  21.387   7.811 -0.3483 -0.0390 -0.1811
73542W        W74406  22.593   1.043   5.826 -0.1260  0.1079 -0.0122
73543W        W74407  25.436  24.547   3.720  0.3086 -0.0829 -0.1400
73544W        W74408  23.640  21.645   5.004  0.1818  0.0258 -0.0271
73545W        W74409  27.319  24.258   5.133  0.0582 -0.2244  0.2978
73546W        W74410  24.511  25.062   7.591 -0.0490 -0.2394 -0.0419
73547W        W74411  23.232  21.032   5.270 -0.1777 -0.0300 -0.0642
73548W        W74412  19.694  25.811   5.814 -0.2934  0.1454  0.0966
73549W        W74413  25.999  20.432   4.599 -0.0255  0.1275 -0.0690
73550W        W74414  23.359  25.130   8.478 -0.2209  0.2594 -0.0969
73551W        W74415  26.020  23.643   5.862 -0.0731 -0.0166 -0.2117
73552W        W74416  23.235  23.767   5.648  0.1277  0.1922  0.1583
73553W        W74417  21.685  25.364   5.528  0.2232  0.1538 -0.0486
73554W        W74418  21.725  25.202   7.820  0.0363  0.0510 -0.0222
73555W        W74419  21.718  23.077   6.534  0.0583 -0.0013 -0.3174
73556W        W74420  22.213  22.156   5.355 -0.1613 -0.1889  0.1764
73557W        W74421  23.960  24.302   6.058  0.2532 -0.0739 -0.0758
73558W        W74422  21.780  23.902   5.229  0.1529 -0.1135  0.2687
73559W        W74423  20.934  25.990   6.505  0.0398  0.0420 -0.1716
73560W        W74424  26.111  26.681   5.183  0.1879  0.0763  0.0145
73561W        W74425  23.274  23.944   5.028  0.0792 -0.2493  0.0174
73562W        W74426  24.650  22.208   2.481  0.2650  0.0541  0.1467
73563W        W74427  23.446  23.019   3.971  0.2321 -0.0925 -0.1499
73564W        W74428  20.791  25.689   3.206  0.2261 -0.0575  0.0505
73565W        W74429  24.832  21.889   6.139  0.0091  0.0387 -0.1995
73566W        W74430  24.734  25.306   5.108  0.1025 -0.1004 -0.1927
73567W        W74431  23.165  23.235   3.110 -0.1059 -0.0962 -0.1732
73568W        W74432  20.599  24.428   4.898 -0.0384 -0.0709 -0.2927
73569W        W74433  22.666  23.420   3.790 -0.0933  0.2049 -0.1131
73570W        W74434  25.546  22.033   4.010  0.0196  0.1105  0.5159
73571W        W74435  23.791  22.798   5.690 -0.2296  0.1518 -0.1702
73572W        W74436  22.843  26.069   3.647  0.2181  0.0407  0.2666
73573W        W74437  25.963  25.351   5.860 -0.0604  0.0889  0.0751
73574W        W74438  26.714  26.428   8.177 -0.0891  0.0876 -0.3279
73575W        W74439  21.860  26.401   4.938  0.1676  0.1358 -0.1085
73576W        W74440  24.980  23.958   6.481 -0.0635 -0.1013 -0.1994
73577W        W74441  22.181  21.378   4.369 -0.0767 -0.2767 -0.0911
73578W        W74442  22.180  19.998   3.211 -0.1681  0.4098 -0.1039
73579W        W74443  22.415  25.845   4.444 -0.2163 -0.0686 -0.1413
73580W        W74444  20.706  23.273   6.563 -0.0344 -0.0084  0.1503
73581W        W74445  22.933  21.230   3.280  0.0112 -0.1272  0.0818
73582W        W74446  20.755  24.675   2.144  0.0541 -0.1805 -0.0775
73583W        W74447  21.902  25.766   5.742 -0.0559  0.2969  0.1181
73584W        W74448  22.969  26.382   6.934  0.1601  0.2373  0.2581
73585W        W74449  22.365  20.951   4.627  0.0549  0.0996  0.3318
73586W        W74450  21.384  21.146   3.115  0.1301 -0.0690  0.0819
73587W        W74451  22.184  22.199   7.863  0.0692 -0.0374  0.1322
73588W        W74452  20.888  22.470   3.683  0.2172  0.0992  0.0331
73589W        W74453  25.598  20.716   5.471  0.2762  0.0564 -0.1589
73590W        W74454  26.682  21.346   4.991 -0.3599 -0.1967  0.0957
73591W        W74455  24.511  21.533   4.545  0.0645 -0.2137  0.1735
73592W        W74456  22.206  23.762   4.840  0.1000  0.2771  0.2891
73593W        W74457  23.570  27.891   3.464 -0.2064  0.1487  0.2118
73594W        W74458  26.029  21.975   3.342 -0.1310 -0.0811  0.3320
73595W        W74459  22.067  25.839   6.286  0.0316 -0.0635  0.1575
73596W        W74460  23.570  21.888   8.394 -0.0764 -0.1157  0.0407
73597W        W74461  22.180  19.941   8.032  0.3750  0.1195 -0.1038
73598W        W74462  20.225  23.163   4.822 -0.0438  0.0693 -0.1650
73599W        W74463  23.135  24.706   4.916  0.1525 -0.1096 -0.0182
73600W        W74464  24.636  21.704   6.975  0.2387  0.2574 -0.1682
73601W        W74465  22.104  25.617   5.269 -0.3056 -0.2690  0.0400
73602W        W74466  26.392  21.492   5.582 -0.0364  0.1153 -0.2341
73603W        W74467  23.382  24.413   4.046  0.3488 -0.0164 -0.1125
73604W        W74468  23.699  25.073   6.766 -0.2644  0.0054 -0.0647
73605W        W74469  24.440  21.764   6.455 -0.2624 -0.1445  0.0690
73606W        W74470  22.950  26.217   5.572 -0.0750 -0.1276  0.1638
73607W        W74471  23.984  19.727   0.762 -0.1056 -0.2481  0.1343
73608W        W74472  27.502  22.798   4.125 -0.1470 -0.1136 -0.1146
73609W        W74473  21.654  20.753   3.415  0.0084  0.2059  0.0584
73610W        W74474  24.022  23.638   4.826 -0.1757  0.1264  0.2138
73611W        W74475  24.185  22.192   4.204 -0.0823 -0.4341  0.1139
73612W        W74476  24.525  25.085   3.877 -0.0732  0.2600  0.0033
73613W        W74477  25.774  24.969   5.561 -0.0200  0.2588 -0.1093
73614W        W74478  22.772  19.501   3.409  0.1649 -0.1348  0.2321
73615W        W74479  21.730  25.956   6.720 -0.2578  0.1629  0.0388
73616W        W74480  25.892  23.289   5.462 -0.1008 -0.0457  0.1619
73617W        W74481  24.795  21.344   4.989  0.1667  0.0142  0.2733
73618W        W74482  23.187  23.279   6.748  0.1332  0.0044  0.1336
73619W        W74483  23.414  23.538   6.210 -0.1084 -0.0249 -0.1454
73620W        W74484  24.169  24.084   4.642 -0.1033 -0.2898  0.1036
73621W        W74485  21.942  23.364   5.093 -0.0128  0.1839  0.0126
73622W        W74486  24.377  24.139   6.312 -0.1859 -0.1405  0.0452
73623W        W74487  25.046  23.498   5.682 -0.2603 -0.1033  0.0962
73624W        W74488  24.686  21.775   3.422  0.0359  0.1879  0.2522
73625W        W74489  24.308  26.542   4.715 -0.0943 -0.0767  0.0031
73626W        W74490  23.267  25.791   6.253  0.1716 -0.0038  0.1656
73627W        W74491  22.514  24.804   4.372  0.1484  0.3267 -0.2068
73628W        W74492  24.547  21.046   4.022 -0.1223  0.3710  0.0020
73629W        W74493  23.379  23.271   8.577  0.0106  0.2196 -0.0629
73630W        W74494  19.740  25.700   5.322  0.0684 -0.0042 -0.3022
73631W        W74495  23.999  25.060   7.189 -0.2273  0.1112 -0.1926
73632W        W74496  24.914  24.960   7.224  0.0045  0.4975 -0.2007
73633W        W74497  24.221  23.248   4.092  0.2919 -0.4400 -0.2513
73634W        W74498  25.874  20.510   5.848 -0.2560  0.1070 -0.0562
73635W        W74499  24.256  22.132   3.355  0.2782  0.2486 -0.2183
73636W        W74500  23.578  23.884   7.439  0.0662 -0.0260 -0.1714
73637W        W74501  25.062  24.402   5.624  0.1188 -0.3011 -0.2102
73638W        W74502  20.950  20.049   4.069  0.0856  0.0672  0.2681
73639W        W74503  19.446  26.195  14.554  0.0958  0.1624  0.0443
73640W        W74504  21.736  26.724  10.139  0.2052 -0.0782 -0.1471
73641W        W74505  25.282  22.712   5.212  0.0243  0.3213 -0.0779
73642W        W74506  24.717  25.426  10.131 -0.0111  0.2690 -0.0809
73643W        W74507  22.651  26.364   7.361  0.0724 -0.1579  0.0528
73644W        W74508  23.296  24.176   8.228  0.0746 -0.1592  0.0615
73645W        W74509  24.750  23.177   9.772 -0.3292  0.1981  0.1779
73646W        W74510  23.301  21.946   9.569 -0.0775  0.0828 -0.2718
73647W        W74511  23.200  25.422  11.050 -0.1213  0.1687  0.2139
73648W        W74512  23.411  23.022  10.152 -0.2933 -0.1723  0.4134
73649W        W74513  24.314  19.995   9.178 -0.0998  0.2804 -0.0081
73650W        W74514  25.298  20.666   9.300  0.1349 -0.2188  0.0299
73651W        W74515  21.775  22.212  10.453 -0.3260 -0.0597  0.2157
73652W        W74516  24.049  23.305  10.986 -0.2260 -0.1349  0.0434
73653W        W74517  22.946  21.919  10.476 -0.1536 -0.1061 -0.0056
73654W        W74518  20.627  24.979  11.328 -0.2530 -0.1500  0.0992
73655W        W74519  23.735  25.656   8.296  0.1744 -0.1595 -0.2945
73656W        W74520  21.864  22.575  12.695 -0.1968  0.1085  0.1971
73657W        W74521  22.523  22.659  10.132 -0.0583  0.0639  0.0125
73658W        W74522  24.752  22.600  10.837 -0.2633  0.1240  0.0232
73659W        W74523  22.545  22.229  10.331 -0.0888 -0.1076 -0.3203
73660W        W74524  25.407  23.561   6.609  0.0117  0.1513  0.1338
73661W        W74525  21.040  24.705   9.600  0.1783 -0.0238  0.0436
73662W        W74526  24.035  21.226   9.878 -0.0586  0.0167  0.3469
73663W        W74527  22.134  22.411   7.327 -0.0607  0.2055 -0.1601
73664W        W74528  24.264  23.398  11.400 -0.5790 -0.1025  0.0224
73665W        W74529  24.616  21.416  14.709  0.0738  0.0786 -0.2501
73666W        W74530  24.430  22.015  10.689 -0.0676  0.0311 -0.4176
73667W        W74531  23.226  26.164  10.502  0.0094  0.0311  0.0956
73668W        W74532  23.837  19.320  11.316 -0.0035  0.0603  0.0651
73669W        W74533  24.854  23.334   8.396  0.0567  0.2054  0.4039
73670W        W74534  23.362  26.564  11.310 -0.2802 -0.2574  0.1592
73671W        W74535  24.196  27.077   9.099  0.0619  0.3792 -0.1190
73672W        W74536  25.741  21.618  12.417  0.0855 -0.0059 -0.0743
73673W        W74537  19.933  24.246  12.280  0.1476  0.1802  0.0312
73674W        W74538  23.293  22.287   9.213  0.3515  0.1699  0.0879
73675W        W74539  20.211  22.334   7.397  0.1646  0.1371  0.0253
73676W        W74540  23.370  23.869   9.769 -0.1328  0.0885  0.4257
73677W        W74541  25.502  25.334   8.925 -0.0212  0.1596  0.0291
73678W        W74542  25.497  22.146   9.799 -0.2458 -0.2723 -0.0253
73679W        W74543  24.295  18.767   4.411  0.0560 -0.3704 -0.0039
73680W        W74544  25.912  23.559   9.191  0.0289 -0.4220 -0.0279
73681W        W74545  23.947  21.624  11.708  0.1398  0.3901  0.3332
73682W        W74546  25.724  24.793   6.638 -0.0145 -0.0180  0.2063
73683W        W74547  22.607  26.572  10.119 -0.2170 -0.1082  0.0352
73684W        W74548  23.359  25.257   9.619  0.1632  0.2172  0.1099
73685W        W74549  20.909  21.225   9.253 -0.0599  0.0357  0.3284
73686W        W74550  22.917  24.289  15.018  0.0260 -0.0975 -0.0133
73687W        W74551  25.934  23.127  10.022  0.0630 -0.0232 -0.0669
73688W        W74552  23.675  21.009  11.000 -0.1074  0.2038  0.0341
73689W        W74553  21.667  23.184  10.118  0.1283  0.2346 -0.0821
73690W        W74554  21.981  21.709   6.613  0.1976 -0.1256  0.0169
73691W        W74555  24.391  22.963  10.147 -0.0435  0.1759  0.2808
73692W        W74556  24.550  24.605   7.215  0.1060  0.2459  0.1104
73693W        W74557  24.406  22.026  11.560  0.2145  0.1257 -0.0301
73694W        W74558  22.035  24.045   6.602 -0.1856 -0.1378  0.0728
73695W        W74559  21.572  21.129   9.182 -0.1604 -0.1293  0.2106
73696W        W74560  25.448  21.548  13.109 -0.0544 -0.3290 -0.1083
73697W        W74561  22.246  24.190   8.061 -0.1797  0.2501  0.0935
73698W        W74562  22.100  27.273   6.275  0.0758 -0.0419  0.0964
73699W        W74563  24.245  20.638   7.850  0.1308  0.1130  0.1230
73700W        W74564  21.758  23.930   8.742 -0.1481 -0.0706  0.1161
73701W        W74565  23.378  22.573  11.048  0.0607 -0.1334 -0.0096
73702W        W74566  24.025  24.166   7.390 -0.0320 -0.0467  0.2859
73703W        W74567  24.194  22.065  10.237 -0.2247  0.2017  0.0229
73704W        W74568  26.410  20.171   9.830  0.0869 -0.2453  0.0046
73705W        W74569  22.672  25.437   5.456  0.1551 -0.1795  0.0457
73706W        W74570  22.696  21.378   6.560 -0.0072  0.2121 -0.3456
73707W        W74571  20.578  26.169   7.605 -0.1924  0.1131 -0.0819
73708W        W74572  24.185  23.230   6.998 -0.0890 -0.0947 -0.0817
73709W        W74573  23.932  24.950   8.984  0.0087 -0.0101 -0.2659
73710W        W74574  25.803  21.656   6.408  0.2060  0.1184 -0.5125
73711W        W74575  23.201  23.116   7.863  0.2528  0.1662 -0.2881
73712W        W74576  22.807  23.003  11.523 -0.2470 -0.2056 -0.0999
73713W        W74577  23.321  25.630   8.948  0.0054 -0.2738  0.1573
73714W        W74578  23.462  24.075  11.322 -0.3830  0.1677 -0.1282
73715W        W74579  21.815  23.763   6.932 -0.4723  0.0336  0.3331
73716W        W74580  24.369  22.584  11.500  0.0232  0.1052  0.1590
73717W        W74581  25.158  26.996   5.997 -0.2101  0.0471 -0.0485
73718W        W74582  22.315  23.668  10.497 -0.1939 -0.0348  0.0595
73719W        W74583  22.380  21.867   8.754  0.1792 -0.2163 -0.1240
73720W        W74584  24.458  19.523   9.103 -0.1583  0.2721  0.0417
73721W        W74585  23.027  21.697   8.067  0.2836 -0.0572 -0.0203
73722W        W74586  25.753  21.117   9.061  0.3024 -0.4370 -0.3011
73723W        W74587  23.741  21.550  12.475  0.2613  0.0364  0.0008
73724W        W74588  23.255  22.599   7.093 -0.2827  0.3310 -0.2958
73725W        W74589  26.104  24.421   7.440 -0.0436  0.1981  0.0260
73726W        W74590  24.686  23.828  10.765 -0.1858  0.2204  0.0140
73727W        W74591  24.507  23.629   8.173  0.2789  0.2540  0.0580
73728W        W74592  25.295  21.862  11.655 -0.0683  0.2363 -0.1280
73729W        W74593  22.608  20.065   8.257  0.0583  0.1324 -0.0288
73730W        W74594  25.429  22.488  11.204 -0.0985 -0.1759 -0.1988
73731W        W74595  23.695  25.849   6.553  0.0454 -0.2081  0.1767
73732W        W74596  22.869  25.164   9.666  0.1302 -0.0170 -0.2518
73733W        W74597  24.396  24.095   9.178  0.2569  0.2063 -0.2322
73734W        W74598  23.418  21.411   9.333 -0.3361 -0.4239  0.0300
73735W        W74599  25.517  23.668   5.691 -0.2429 -0.1845  0.2731
73736W        W74600  24.118  25.510   9.426 -0.1030 -0.1500  0.1750
73737W        W74601  25.263  24.013   7.312  0.0273  0.2104 -0.1141
73738W        W74602  26.998  24.718   7.672  0.2378  0.4173 -0.2328
73739W        W74603  25.808  24.870   7.146 -0.2951 -0.0845 -0.2252
73740W        W74604  24.303  22.880   5.533  0.0509  0.1679 -0.0786
73741W        W74605  25.087  19.938   6.867 -0.2740  0.2088  0.2004
73742W        W74606  26.362  24.018   8.662  0.2124  0.1387  0.2257
73743W        W74607  25.826  21.048   7.346  0.0314  0.2389  0.0940
73744W        W74608  23.219  23.723  11.135  0.0842 -0.0088 -0.1359
73745W        W74609  22.945  25.199   9.004 -0.0152  0.0081 -0.3183
73746W        W74610  24.045  23.306  10.219 -0.0224 -0.0028 -0.2038
73747W        W74611  24.079  21.934   8.810  0.0719  0.0435 -0.1136
73748W        W74612  20.747  20.818  10.988 -0.2509 -0.1865  0.3896
73749W        W74613  23.277  23.865  11.742 -0.0995  0.3447  0.0089
73750W        W74614  24.212  25.064   6.507 -0.0202  0.0537  0.0312
73751W        W74615  22.924  21.365  10.808  0.1628  0.0473  0.1115
73752W        W74616  27.001  25.466   9.277 -0.1204  0.1781  0.0764
73753W        W74617  24.110  22.496   5.903  0.0122  0.2224  0.0386
73754W        W74618  23.921  24.307  10.214 -0.1921 -0.2300  0.0070
73755W        W74619  27.769  21.455  10.059 -0.1136 -0.0674  0.1107
73756W        W74620  24.100  23.653   6.691 -0.1034 -0.1728 -0.0243
73757W        W74621  25.593  24.620  12.194  0.3465  0.1430 -0.2510
73758W        W74622  24.179  23.379   9.698  0.1088  0.1162  0.0079
73759W        W74623  24.821  22.393   6.667  0.1630 -0.1766 -0.2333
73760W        W74624  23.402  23.414   7.510 -0.2985 -0.2998 -0.1302
73761W        W74625  24.174  25.103  10.673  0.2769  0.0822  0.2904
73762W        W74626  25.642  24.120   9.552 -0.0724  0.1624 -0.1358
73763W        W74627  23.459  24.323  10.019 -0.0779 -0.0776  0.4150
73764W        W74628  26.855  22.112   9.402  0.0590 -0.0546 -0.0685
73765W        W74629  22.139  20.589   8.451  0.0991  0.1629 -0.0439
73766W        W74630  24.405  24.576  10.367  0.0830 -0.2141  0.0174
73767W        W74631  24.884  24.658   6.822 -0.2276 -0.2280 -0.1041
73768W        W74632  25.164  25.509   6.282  0.1719  0.4743  0.0492
73769W        W74633  22.806  27.562   8.038 -0.2746 -0.3575  0.2457
73770W        W74634  22.729  21.946   7.134  0.0361  0.0470 -0.3433
73771W        W74635  26.236  26.395  10.132 -0.1766 -0.1083 -0.1407
73772W        W74636  25.641  23.073   8.295  0.0987  0.1491 -0.4609
73773W        W74637  25.242  23.992  10.216  0.2553  0.0442  0.0087
73774W        W74638  24.273  21.353   9.403  0.0512  0.0952 -0.2077
73775W        W74639  25.122  21.497   9.945 -0.0055 -0.1764  0.1335
73776W        W74640  23.054  24.449  10.392 -0.0001 -0.2093 -0.1377
73777W        W74641  22.041  27.350   9.868 -0.1488 -0.0394 -0.1042
73778W        W74642  22.858  25.796   8.238  0.2861 -0.0107 -0.0933
73779W        W74643  25.002  22.717  10.370 -0.1120  0.0193  0.4085
73780W        W74644  23.609  21.437   8.177  0.1031 -0.2351  0.1267
73781W        W74645  23.524  23.624   8.951  0.0114  0.2879 -0.1565
73782W        W74646  24.740  22.227   7.787 -0.2325  0.2628  0.0447
73783W        W74647  23.678  23.760  10.324 -0.0733 -0.1533 -0.0387
73784W        W74648  25.078  22.874  11.095 -0.1843  0.0067 -0.0844
73785W        W74649  24.619  22.216  10.034 -0.0629 -0.2476  0.2656
73786W        W74650  27.510  25.773  10.520 -0.0477 -0.3418 -0.1388
73787W        W74651  23.718  25.656   9.751 -0.0667  0.4339  0.3011
73788W        W74652  22.668  23.274   9.830 -0.0644  0.1272  0.1429
73789W        W74653  27.512  26.164  10.206 -0.4021  0.3736 -0.1719
73790W        W74654  22.779  23.914   7.054 -0.0559  0.0916 -0.1194
73791W        W74655  22.265  23.358   9.532 -0.0720 -0.1966 -0.1092
73792W        W74656  23.774  21.105   9.475  0.1372 -0.1126 -0.2667
73793W        W74657  25.181  26.189   9.410 -0.0866  0.2974 -0.0630
73794W        W74658  20.722  20.603   5.372  0.2437 -0.1963  0.0430
73795W        W74659  21.925  23.672   9.684 -0.0544  0.1360 -0.0388
73796W        W74660  22.388  20.352   6.434 -0.3352 -0.0350  0.0998
73797W        W74661  21.368  21.465   8.328  0.1958  0.2105  0.1073
73798W        W74662  24.146  23.128   9.238 -0.2145 -0.4649 -0.2203
73799W        W74663  23.074  21.264  10.083  0.2405 -0.1705  0.3547
73800W        W74664  23.799  22.819  10.850 -0.0877  0.1061 -0.1617
73801W        W74665  24.109  23.853  11.499 -0.3184  0.0922 -0.3781
73802W        W74666  22.681  24.656   9.438  0.7242 -0.4311 -0.2188
73803W        W74667  25.358  23.386  12.878 -0.1127  0.3470  0.0563
73804W        W74668  21.968  19.981  10.537 -0.0755  0.1433  0.0630
73805W        W74669  20.025  21.714   9.671  0.0658 -0.0761 -0.0763
73806W        W74670  23.014  27.070   9.259  0.1365  0.1173 -0.2644
73807W        W74671  25.272  25.500  10.138 -0.2671  0.1043 -0.2105
73808W        W74672  23.349  24.705   6.299  0.0396  0.2820  0.2291
73809W        W74673  23.012  22.874  11.026  0.2734 -0.0161  0.0600
73810W        W74674  22.759  24.022   8.836  0.1139  0.3379 -0.2113
73811W        W74675  25.961  24.941   9.141 -0.0310  0.4323 -0.1700
73812W        W74676  24.596  25.430   7.229  0.0077 -0.0820  0.3847
73813W        W74677  23.684  23.246  10.615  0.0044  0.0102 -0.0034
73814W        W74678  29.137  23.867   7.710 -0.2090  0.1496 -0.0708
73815W        W74679  20.900  26.343  11.665 -0.0296  0.0353 -0.3020
73816W        W74680  23.272  25.674   8.464 -0.1828  0.4063 -0.2610
73817W        W74681  21.649  26.362   9.209 -0.2170 -0.1798  0.1020
73818W        W74682  23.061  22.161  11.331  0.0355 -0.2543 -0.0493
73819W        W74683  23.632  24.534   8.138  0.0976  0.0625 -0.0691
73820W        W74684  24.017  26.317   6.621 -0.1593 -0.0821  0.1335
73821W        W74685  25.603  22.721   7.841  0.1545 -0.0686  0.1896
73822W        W74686  22.081  22.879   9.960  0.0424  0.2049 -0.0315
73823W        W74687  21.323  23.938   9.129 -0.2751  0.1844  0.3232
73824W        W74688  26.938  25.875  10.684 -0.1806  0.1199  0.2086
73825W        W74689  25.013  22.258   7.294  0.3355 -0.0142  0.1642
73826W        W74690  20.404  21.441   3.682  0.2717  0.2838 -0.0035
73827W        W74691  24.489  24.305   8.700 -0.0924  0.2778  0.0148
73828W        W74692  23.887  22.281   6.445  0.1170  0.1848  0.1241
73829W        W74693  23.027  23.557   8.947 -0.1250 -0.3789  0.2580
73830W        W74694  21.995  25.665   7.041 -0.4457  0.3196 -0.0604
73831W        W74695  23.667  23.188   9.484 -0.0284 -0.2738  0.1536
73832W        W74696  22.019  20.847   7.544 -0.0681 -0.0820 -0.1718
73833W        W74697  24.972  21.534  12.020 -0.0119 -0.1101  0.0089
73834W        W74698  23.864  19.645   8.263  0.0412 -0.1385 -0.1971
73835W        W74699  23.499  21.005   7.017 -0.4702 -0.3035 -0.1964
73836W        W74700  23.862  22.454  11.242 -0.0753  0.1124 -0.1580
73837W        W74701  22.079  22.879   9.416  0.0105 -0.3118  0.0405
73838W        W74702  26.975  22.235   7.622 -0.0599  0.2224  0.2711
73839W        W74703  21.270  19.742   8.356  0.0858 -0.0111  0.0632
73840W        W74704  24.277  21.392  12.648  0.3036 -0.0256 -0.0179
73841W        W74705  26.571  24.055   4.995  0.1543 -0.2852  0.2897
73842W        W74706  22.689  23.169   7.604  0.4769 -0.0644 -0.1471
73843W        W74707  23.156  23.884  10.264 -0.3471 -0.0870 -0.0794
73844W        W74708  22.691  21.514  11.852 -0.1591  0.1550 -0.2469
73845W        W74709  21.254  24.893  10.518  0.0002  0.1143  0.3785
73846W        W74710  26.336  25.761   7.593 -0.1108 -0.0796  0.2342
73847W        W74711  24.843  26.255   8.001  0.1247 -0.0345  0.3484
73848W        W74712  22.620  21.873  11.521  0.0019  0.0673  0.2110
73849W        W74713  21.835  24.182  10.564 -0.1785 -0.0782 -0.3211
73850W        W74714  23.934  22.235  11.774 -0.1579  0.1910  0.0222
73851W        W74715  22.767  22.267   8.915 -0.0174  0.2544 -0.1196
73852W        W74716  25.231  20.835   9.778 -0.2042 -0.0631 -0.1160
73853W        W74717  26.969  23.449  10.372  0.1631  0.0354  0.1401
73854W        W74718  25.354  23.270   9.312 -0.0247  0.0809 -0.2043
73855W        W74719  23.319  22.613   7.877  0.2289  0.0911  0.1342
73856W        W74720  23.923  26.751   3.786 -0.0709  0.0058 -0.0532
73857W        W74721  24.266  26.376  10.151 -0.1472  0.1456  0.4521
73858W        W74722  21.531  22.872   9.255  0.0656 -0.1705 -0.1684
73859W        W74723  23.758  20.302  11.255  0.0163  0.0709 -0.3486
73860W        W74724  24.078  21.700  13.243 -0.0905  0.0792 -0.1152
73861W        W74725  23.568  24.565  10.422  0.2042 -0.1178  0.2737
73862W        W74726  21.330  17.425   8.349  0.0192 -0.1423 -0.1894
73863W        W74727  24.943  25.689   8.091 -0.1487 -0.0406  0.0370
73864W        W74728  22.818  25.228  10.607  0.0161  0.1091 -0.1349
73865W        W74729  22.567  25.474  12.488 -0.2382 -0.2679  0.1305
73866W        W74730  26.207  22.392   8.609  0.1134 -0.1148 -0.1190
73867W        W74731  26.243  26.791   8.931  0.3967 -0.1473  0.3818
73868W        W74732  24.209  25.045   8.507 -0.0647  0.1479 -0.2119
73869W        W74733  23.386  24.835  12.061 -0.1742 -0.2944  0.0481
73870W        W74734  22.252  27.404  10.972 -0.0741  0.2355 -0.0247
73871W        W74735  23.368  25.853  10.041 -0.0201  0.0925  0.0032
73872W        W74736  24.257  21.660   7.354  0.0134  0.1657  0.1371
73873W        W74737  22.254  21.110  11.392 -0.0964 -0.0177 -0.1978
73874W        W74738  24.012  26.083   7.557  0.0019  0.0355  0.1140
73875W        W74739  23.928  21.517   7.725 -0.0934 -0.0781  0.2854
73876W        W74740  24.583  22.020   8.836  0.0719  0.0834 -0.3371
73877W        W74741  26.028  24.776   8.244  0.0897 -0.2263  0.0098
73878W        W74742  25.791  25.699   9.113 -0.2102 -0.0905  0.2734
73879W        W74743  24.228  26.187   5.100  0.1284 -0.0265  0.1023
73880W        W74744  20.202  23.296   9.858 -0.0060 -0.2263  0.2855
73881W        W74745  23.169  19.946  12.313  0.2690 -0.0674  0.1864
73882W        W74746  22.310  19.391   7.524 -0.0630  0.2150 -0.0389
73883W        W74747  24.440  21.525  11.194 -0.0056 -0.0233  0.1162
73884W        W74748  22.194  26.694   7.347 -0.1651 -0.1041 -0.2724
73885W        W74749  24.571  24.107   7.335 -0.0845 -0.1652 -0.0325
73886W        W74750  22.289  25.227   9.771 -0.0266  0.2897 -0.1548
73887W        W74751  23.447  22.479   9.971  0.1789  0.1710  0.1121
73888W        W74752  24.560  21.450   9.801 -0.0528  0.3314 -0.1625
73889W        W74753  25.222  22.338   7.775  0.0400 -0.0711  0.0396
73890W        W74754  23.716  25.404   8.717 -0.2693  0.0814  0.0654
73891W        W74755  23.819  26.151  12.487  0.3625 -0.1629 -0.0994
73892W        W74756  24.069  21.243  13.123 -0.1813  0.2507  0.3669
73893W        W74757  25.278  22.676   7.260  0.1400 -0.0552 -0.0261
73894W        W74758  23.915  23.333   8.733  0.1390  0.1094  0.0513
73895W        W74759  23.664  22.862   8.568 -0.1491 -0.2925  0.1412
73896W        W74760  22.055  20.423   9.876 -0.2876 -0.3474 -0.0360
73897W        W74761  25.458  23.522   8.405 -0.0596 -0.2118  0.1941
73898W        W74762  25.728  23.175   7.619 -0.1555  0.2264 -0.0429
73899W        W74763  24.376  21.523  11.839  0.1370  0.3094 -0.0268
73900W        W74764  26.104  24.651   9.951  0.2479  0.0223  0.2511
73901W        W74765  24.102  23.779  10.076  0.0525  0.0743  0.5047
73902W        W74766  23.933  24.065  12.207  0.1125  0.3447 -0.2856
73903W        W74767  25.471  26.960   9.596  0.3974 -0.2884  0.3067
73904W        W74768  22.733  23.402   8.547 -0.3160  0.1750  0.1907
73905W        W74769  18.246  23.178   7.993 -0.2136  0.1941 -0.0799
73906W        W74770  24.740  20.682   8.873  0.0760  0.1531  0.1368
73907W        W74771  22.812  22.197   9.459 -0.2526 -0.2178 -0.0965
73908W        W74772  24.197  22.486   9.995  0.3038  0.0657 -0.0917
73909W        W74773  23.989  24.627   6.919  0.0987 -0.0152  0.1686
73910W        W74774  23.750  24.174  11.703 -0.0838  0.0334 -0.1587
73911W        W74775  22.222  20.844  10.965 -0.1684 -0.2475  0.2959
73912W        W74776  20.734  23.261   7.862  0.3683 -0.1546  0.0874
73913W        W74777  24.063  26.840   9.993 -0.1560  0.1364 -0.0531
73914W        W74778  24.114  23.599  10.600 -0.3282  0.1004  0.1219
73915W        W74779  24.950  24.585  10.913  0.2738  0.2737  0.0707
73916W        W74780  23.166  22.169   7.249 -0.1383 -0.2727 -0.0271
73917W        W74781  21.279  24.551   6.280  0.1354 -0.0888 -0.1606
73918W        W74782  23.152  24.897   7.571 -0.0217 -0.0513  0.2980
73919W        W74783  21.251  21.397   7.038  0.0155 -0.1116 -0.1675
73920W        W74784  23.644  22.654   6.211 -0.1240 -0.1619 -0.5105
73921W        W74785  22.188  21.210   5.858  0.1346  0.0150 -0.1266
73922W        W74786  19.489  23.836   8.151 -0.0101  0.1152 -0.1610
73923W        W74787  24.182  25.366   8.163  0.2583  0.2848  0.1201
73924W        W74788  24.122  22.401  12.365  0.0644 -0.1848  0.0780
73925W        W74789  25.231  24.786   5.134  0.0777  0.0186  0.0472
73926W        W74790  20.317  25.436  11.987  0.0885  0.0313 -0.1817
73927W        W74791  25.770  22.252   8.727  0.1005 -0.1344  0.0551
73928W        W74792  25.919  23.079   6.594  0.2323  0.3567  0.0412
73929W        W74793  24.900  21.178   9.509 -0.0560 -0.1705  0.0239
73930W        W74794  24.345  22.769   6.933  0.0762 -0.1874 -0.0575
73931W        W74795  24.756  23.260  11.547  0.1281  0.1290  0.4247
73932W        W74796  24.021  22.121   8.320 -0.0655  0.1153 -0.1549
73933W        W74797  23.090  24.825   6.737 -0.2446 -0.2554  0.0874
73934W        W74798  25.562  24.924  10.124 -0.0448  0.3061 -0.1819
73935W        W74799  23.266  22.655   8.809 -0.0365 -0.0838  0.0420
73936W        W74800  23.794  25.678   7.738 -0.1734  0.3416  0.0222
73937W        W74801  26.154  23.764  10.741 -0.0066  0.0935  0.0879
73938W        W74802  22.374  25.066  11.151 -0.0086  0.2818  0.0888
73939W        W74803  22.528  25.335   9.381 -0.0060  0.0341 -0.1160
73940W        W74804  21.752  22.117  12.260  0.1549  0.0318 -0.2126
73941W        W74805  24.580  25.028  11.446  0.1297  0.0666  0.0385
73942W        W74806  25.983  25.152   8.661  0.0047  0.2797  0.1016
73943W        W74807  22.946  22.930   5.384 -0.1659 -0.0843 -0.0387
73944W        W74808  22.904  28.799   9.254  0.0193  0.1061  0.2429
73945W        W74809  22.931  20.031  10.932 -0.1805 -0.1853  0.0758
73946W        W74810  23.487  19.997   8.554  0.0187 -0.2282  0.0099
73947W        W74811  22.546  26.828   7.679 -0.3150 -0.1386 -0.0499
73948W        W74812  22.763  21.509  10.359  0.2320  0.1507 -0.3713
73949W        W74813  24.170  22.845   8.842  0.4137 -0.2015 -0.1156
73950W        W74814  23.569  24.469   9.024  0.0585 -0.0751 -0.0343
73951W        W74815  24.380  23.277   8.778 -0.2181  0.1131 -0.2484
73952W        W74816  23.855  23.719   9.477 -0.0684 -0.2423  0.1259
73953W        W74817  23.337  26.794   9.018  0.0849 -0.4596 -0.1592
73954W        W74818  22.732  27.164   8.450 -0.1350  0.3292 -0.1170
73955W        W74819  22.228  20.426   5.956 -0.0837  0.1215  0.0629
73956W        W74820  23.496  20.477   8.273  0.0843 -0.2997  0.0329
73957W        W74821  23.140  24.793   9.355 -0.0984  0.1062  0.0103
73958W        W74822  23.827  21.606   9.540 -0.4513 -0.0171  0.0081
73959W        W74823  24.720  25.217   9.678  0.2698 -0.0993  0.1030
73960W        W74824  24.494  25.498   6.659  0.3107 -0.1705  0.0409
73961W        W74825  24.162  23.045  12.197 -0.2834  0.3366 -0.0834
73962W        W74826  25.923  22.396  11.158 -0.0564  0.0695 -0.0089
73963W        W74827  22.864  24.085   7.871  0.2569  0.0062  0.0726
73964W        W74828  23.029  25.465  10.115 -0.0937  0.2357  0.0628
73965W        W74829  22.170  20.451   7.849 -0.2134  0.0799 -0.1363
73966W        W74830  22.986  23.056   8.790  0.0875 -0.0579 -0.0340
73967W        W74831  23.373  25.373   7.646  0.0545 -0.0010  0.1961
73968W        W74832  22.383  22.451   6.671 -0.3934  0.3427 -0.1230
73969W        W74833  24.249  22.549  10.877 -0.2745 -0.0985 -0.0196
73970W        W74834  25.605  21.510   7.078 -0.1405  0.0926 -0.1369
73971W        W74835  23.973  25.504  10.823  0.2882  0.0292 -0.0299
73972W        W74836  22.770  24.645  13.647  0.2268  0.3094 -0.2083
73973W        W74837  22.902  26.022  10.144 -0.1453  0.1705 -0.2421
73974W        W74838  24.530  24.258  11.326 -0.0175  0.0189 -0.1943
73975W        W74839  23.647  24.811   9.433 -0.2075  0.3592  0.4543
73976W        W74840  24.358  23.896   7.740  0.0462 -0.1139 -0.1952
73977W        W74841  25.305  23.221   8.002 -0.0270  0.1433 -0.0743
73978W        W74842  23.399  23.123   9.062 -0.0622 -0.1149  0.0231
73979W        W74843  24.464  26.979   8.678 -0.2648 -0.0457 -0.2098
73980W        W74844  22.205  21.919  10.135 -0.1032 -0.2210  0.0475
73981W        W74845  21.847  20.744   9.310 -0.1030 -0.4251 -0.0331
73982W        W74846  22.066  21.752   9.194 -0.2331 -0.3535 -0.0084
73983W        W74847  24.859  23.832   8.484  0.0383  0.1023  0.0824
73984W        W74848  23.243  23.525  10.607  0.0783  0.0539 -0.1511
73985W        W74849  22.659  23.391   6.901 -0.1584 -0.0433 -0.0723
73986W        W74850  23.507  21.423   9.840  0.0788  0.0213  0.1451
73987W        W74851  21.904  24.746   9.786  0.0601 -0.3548  0.1929
73988W        W74852  19.368  22.560   6.924 -0.0298  0.1362 -0.0239
73989W        W74853  23.612  25.157  10.570  0.2379 -0.0572 -0.1813
73990W        W74854  24.955  22.713   7.647 -0.0103 -0.2213 -0.1974
73991W        W74855  24.677  21.246  11.507  0.1511  0.2061 -0.5420
73992W        W74856  25.505  24.528   7.496 -0.2559  0.0568  0.0204
73993W        W74857  21.232  27.152   7.488  0.1944  0.1273  0.2717
73994W        W74858  25.540  22.398   5.972  0.0537  0.1456  0.0983
73995W        W74859  20.236  24.022   8.509  0.0436 -0.0038  0.2977
73996W        W74860  24.302  19.177  12.527  0.2006  0.4329  0.1909
73997W        W74861  21.310  20.685   9.676  0.0395  0.0985 -0.0311
73998W        W74862  23.834  23.618   7.801 -0.2905  0.0447  0.2108
73999W        W74863  23.951  22.597  10.413 -0.4803 -0.1529 -0.1577
74000W        W74864  24.338  23.819   8.669  0.0011 -0.1184  0.1036
74001W        W74865  23.206  23.988   9.182  0.2738 -0.1356  0.0487
74002W        W74866  22.849  21.672   8.597  0.1007 -0.2777 -0.2184
74003W        W74867  24.764  24.245   9.521  0.0781 -0.1670  0.0417
74004W        W74868  25.676  24.458  10.086  0.1071 -0.1769 -0.1338
74005W        W74869  24.955  25.232   6.773  0.0609  0.3847  0.1175
74006W        W74870  27.420  26.217   8.306 -0.0262  0.2539  0.0129
74007W        W74871  23.617  21.946   8.908  0.1467 -0.0202  0.4387
74008W        W74872  22.646  21.018  10.223 -0.1304  0.0583 -0.0275
74009W        W74873  20.963  23.964   5.830 -0.1185 -0.2102  0.1544
74010W        W74874  27.337  23.214  10.906  0.0574 -0.1069  0.1244
74011W        W74875  23.443  26.131   8.874  0.1601 -0.0435 -0.0788
74012W        W74876  26.205  24.227  11.372 -0.0093 -0.2143  0.1727
74013W        W74877  24.707  24.979  10.519  0.0208 -0.1160  0.1208
74014W        W74878  23.097  20.305   9.957  0.1300 -0.0833  0.2163
74015W        W74879  23.187  20.873  10.551 -0.0121 -0.0753 -0.0487
74016W        W74880  25.860  23.794   8.736 -0.2287 -0.1417  0.2230
74017W        W74881  25.190  19.168   9.670 -0.1141 -0.2197  0.1285
74018W        W74882  20.005  19.626  10.400 -0.2894  0.0148  0.0706
74019W        W74883  23.015  23.630  12.093 -0.0000  0.1177 -0.2053
74020W        W74884  23.883  25.184   9.765  0.1223 -0.2284 -0.0092
74021W        W74885  21.618  20.400   7.249 -0.1259 -0.2711  0.3857
74022W        W74886  22.456  25.873  10.930 -0.1219 -0.0102  0.0763
74023W        W74887  24.374  26.587   9.231  0.1883 -0.1346  0.0708
74024W        W74888  24.228  19.893  10.497  0.0312 -0.1936 -0.2301
74025W        W74889  21.200  24.950   8.945 -0.2080  0.1125 -0.1151
74026W        W74890  23.199  27.667  12.205  0.0823 -0.0445  0.0681
74027W        W74891  23.924  23.961   8.911 -0.1649  0.1804  0.1107
74028W        W74892  26.449  25.985   8.386 -0.1762 -0.1195  0.2631
74029W        W74893  23.163  28.385  10.520  0.4330  0.1390 -0.0609
74030W        W74894  22.678  24.219  10.017  0.1291  0.2399  0.1382
74031W        W74895  24.663  23.286   9.292 -0.0781  0.1964 -0.0491
74032W        W74896  21.133  25.483  10.545  0.1824 -0.0901  0.0540
74033W        W74897  24.495  24.624   9.103  0.0210 -0.2275  0.1091
74034W        W74898  23.036  24.083  10.765 -0.0501 -0.1360 -0.0469
74035W        W74899  22.315  25.157   8.547  0.0036 -0.0639 -0.1381
74036W        W74900  22.003  25.488   8.150 -0.0387 -0.0244 -0.1635
74037W        W74901  22.755  24.195   9.297  0.0062 -0.3771 -0.1004
74038W        W74902  22.754  22.544   8.516 -0.1144 -0.1654 -0.2589
74039W        W74903  22.382  23.901  13.303  0.1036  0.2219 -0.3346
74040W        W74904  24.992  26.817  13.319  0.3539  0.1502  0.2749
74041W        W74905  23.486  25.918  12.811  0.0214  0.0329  0.1517
74042W        W74906  24.731  26.592  12.437 -0.1288  0.0572 -0.1583
74043W        W74907  23.796  25.950  11.374  0.0052 -0.0592  0.1419
74044W        W74908  22.609  23.955  11.935  0.0288 -0.3271  0.3765
74045W        W74909  22.317  24.886  11.801 -0.1610  0.0840  0.1676
74046W        W74910  24.456  25.605  10.554  0.2379  0.0403  0.1397
74047W        W74911  23.796  25.712  14.724 -0.2183 -0.0280 -0.1200
74048W        W74912  21.667  21.311  14.114  0.5890  0.0706  0.0847
74049W        W74913  23.626  22.517  13.196 -0.2937  0.1384  0.0910
74050W        W74914  24.319  23.964  11.964  0.3349  0.1147 -0.1460
74051W        W74915  22.861  26.152  11.471  0.1471  0.2199 -0.0500
74052W        W74916  24.214  19.955  13.891 -0.0189  0.0747  0.0569
74053W        W74917  21.798  24.789  10.555  0.1645 -0.1994  0.3947
74054W        W74918  20.320  25.951  15.106 -0.1959  0.1937  0.0990
74055W        W74919  23.739  22.702   9.039 -0.2439  0.2162  0.1260
74056W        W74920  20.191  23.727  13.641 -0.2341 -0.0973 -0.3865
74057W        W74921  25.173  24.272  12.464  0.3277  0.2161  0.0231
74058W        W74922  26.846  22.935  16.409  0.2110  0.1823  0.0890
74059W        W74923  24.835  25.818  10.854 -0.0576  0.1425  0.1348
74060W        W74924  23.335  22.904  13.434 -0.2313  0.0452  0.2117
74061W        W74925  22.133  26.333  12.959 -0.2025 -0.1772  0.2369
74062W        W74926  23.756  25.673  15.388 -0.3450 -0.0526 -0.0248
74063W        W74927  21.857  23.893  11.942  0.1890 -0.1448  0.0646
74064W        W74928  23.452  23.339  15.804  0.0827  0.1492  0.2328
74065W        W74929  25.236  24.142  14.903 -0.3464  0.4455  0.0894
74066W        W74930  21.820  24.045  14.047  0.1285 -0.0215 -0.0277
74067W        W74931  22.910  25.158  14.635 -0.1939  0.1866  0.1374
74068W        W74932  22.646  24.325  12.507 -0.1711  0.2315 -0.0262
74069W        W74933  20.971  23.731  11.179 -0.0325 -0.1760 -0.0353
74070W        W74934  23.245  25.808  11.893 -0.0527 -0.0737 -0.3189
74071W        W74935  22.458  24.410  16.107  0.2813 -0.0628  0.0601
74072W        W74936  20.864  23.413  12.495 -0.2098 -0.0157 -0.1318
74073W        W74937  20.503  26.072  11.991  0.0907  0.1047 -0.0246
74074W        W74938  23.990  24.899  13.806 -0.2249  0.1685 -0.2844
74075W        W74939  22.864  18.865  12.922  0.2925 -0.0739 -0.0359
74076W        W74940  19.935  26.554  16.363  0.0581  0.2413  0.0299
74077W        W74941  25.262  25.191  13.127 -0.0445  0.2761 -0.1717
74078W        W74942  24.891  20.855  12.548  0.3659  0.0023  0.2088
74079W        W74943  25.641  20.379  12.134 -0.0384 -0.0079  0.1362
74080W        W74944  26.870  23.411  12.762  0.0559 -0.0672  0.1328
74081W        W74945  26.237  25.261  13.712  0.0656 -0.0076 -0.0679
74082W        W74946  22.872  21.960  11.918 -0.1695 -0.1235 -0.0390
74083W        W74947  21.028  24.644  10.130 -0.1087 -0.1385 -0.0160
74084W        W74948  23.072  26.747  13.752  0.1460 -0.0356  0.1640
74085W        W74949  21.431  25.187  10.847  0.0314  0.2167  0.0224
74086W        W74950  25.506  24.320  13.046  0.3221 -0.0221 -0.3668
74087W        W74951  23.688  20.944  12.326 -0.2894 -0.1367  0.0181
74088W        W74952  23.607  23.367  13.699 -0.1013  0.2628  0.1073
74089W        W74953  22.397  25.944  13.208 -0.0798  0.0405  0.2617
74090W        W74954  23.142  24.527  11.192 -0.0292  0.0847  0.0705
74091W        W74955  23.135  25.253  11.721  0.0014  0.0162 -0.1965
74092W        W74956  23.357  21.445  11.020 -0.0860  0.0101 -0.1444
74093W        W74957  24.376  25.009  13.335 -0.2142 -0.4353 -0.2188
74094W        W74958  22.371  21.781  10.610 -0.2298  0.0818  0.0661
74095W        W74959  21.821  22.609  10.805  0.0629 -0.0489 -0.4071
74096W        W74960  26.966  24.454  11.686 -0.2321 -0.2802 -0.1205
74097W        W74961  20.368  26.871  16.826  0.0351 -0.0269  0.4145
74098W        W74962  23.497  26.221  11.682  0.0779 -0.0155 -0.0712
74099W        W74963  24.048  24.582  10.672  0.1099  0.1849  0.1208
74100W        W74964  19.775  25.934  14.371  0.0835 -0.0142  0.2560
74101W        W74965  21.686  25.360  14.522  0.0917 -0.3603 -0.0688
74102W        W74966  22.510  24.156  10.469 -0.5975 -0.0616 -0.1269
74103W        W74967  24.738  24.736  16.116 -0.1332 -0.2869  0.0786
74104W        W74968  24.907  20.934  13.575 -0.0481  0.1549 -0.1013
74105W        W74969  21.385  24.423  10.738 -0.1500 -0.0821 -0.1674
74106W        W74970  23.055  22.483  13.230 -0.1690  0.4729  0.2279
74107W        W74971  19.398  25.246  13.205 -0.0511  0.2122  0.1532
74108W        W74972  23.692  22.746  13.889 -0.4090  0.4666 -0.0481
74109W        W74973  22.201  24.635  17.387 -0.1346  0.1237  0.0081
74110W        W74974  24.663  25.613  11.429  0.2155  0.1089  0.0948
74111W        W74975  24.212  24.958  11.879  0.0636  0.2546  0.2166
74112W        W74976  24.970  22.296  15.364 -0.3757  0.0612  0.2739
74113W        W74977  23.680  24.258  12.668  0.4062 -0.4223  0.1410
74114W        W74978  22.193  24.241  12.928 -0.0113 -0.0297 -0.2403
74115W        W74979  24.166  22.024  11.101  0.2334  0.0890  0.1866
74116W        W74980  21.806  22.832  13.571  0.1037 -0.0549 -0.0125
74117W        W74981  22.831  24.233  11.496  0.1461 -0.1870 -0.4468
74118W        W74982  23.449  25.891  12.324  0.1174  0.1241  0.1366
74119W        W74983  20.955  23.743  11.699  0.3333 -0.1606 -0.1569
74120W        W74984  24.445  24.158  13.776 -0.0183 -0.0896 -0.0191
74121W        W74985  22.390  22.551  12.547 -0.1284 -0.3267 -0.0658
74122W        W74986  25.279  22.200  14.108 -0.0600 -0.2076 -0.2599
74123W        W74987  24.038  22.897  17.348  0.0660 -0.1326 -0.3341
74124W        W74988  23.090  24.922  12.766 -0.1678 -0.1423  0.1432
74125W        W74989  24.493  25.335  15.485  0.4840 -0.0946 -0.0250
74126W        W74990  24.473  22.645  15.143  0.1379 -0.3690  0.1990
74127W        W74991  25.510  23.995  16.661  0.1185  0.0222 -0.1170
74128W        W74992  24.557  24.775  13.786 -0.1811  0.0819 -0.1721
74129W        W74993  23.223  23.050  13.941  0.1335 -0.0375  0.1363
74130W        W74994  22.236  25.207  15.427 -0.2131 -0.1660  0.0231
74131W        W74995  22.445  26.873  13.353 -0.0369  0.0159  0.2548
74132W        W74996  24.995  25.075  11.019  0.0689  0.0740 -0.2799
74133W        W74997  22.006  22.570  13.159  0.0992 -0.0755  0.0197
74134W        W74998  23.720  23.018  13.006  0.0769  0.2165  0.2522
74135W        W74999  26.436  24.200  10.618  0.0334  0.0512 -0.1269
74136W        W75000  23.464  24.363  14.921 -0.0894  0.0082 -0.3529
74137W        W75001  24.365  22.002  12.093 -0.1215 -0.2328  0.1931
74138W        W75002  24.095  23.165  13.786 -0.5868 -0.0296  0.0635
74139W        W75003  24.545  25.387  10.997 -0.0489  0.1558 -0.2234
74140W        W75004  23.584  26.587  13.728 -0.2573  0.0482  0.3253
74141W        W75005  22.884  20.629  11.771  0.0070  0.1285  0.0309
74142W        W75006  27.176  26.815  11.593  0.0636  0.0047 -0.0316
74143W        W75007  26.029  21.330  15.944 -0.0141 -0.1408 -0.2810
74144W        W75008  20.199  25.113  14.978  0.0672 -0.1263 -0.5259
74145W        W75009  23.573  24.363  10.914  0.2496  0.2805  0.0883
74146W        W75010  23.108  23.654  13.801  0.3436 -0.0672 -0.0480
74147W        W75011  24.943  19.435  12.756 -0.0746 -0.1247  0.2699
74148W        W75012  23.730  20.773  11.448  0.1495  0.1445  0.0032
74149W        W75013  18.152  25.006  14.462 -0.2111  0.1317 -0.0095
74150W        W75014  25.234  24.899  10.620 -0.1349  0.2370 -0.0555
74151W        W75015  24.301  22.638  15.648 -0.0560  0.0565 -0.1200
74152W        W75016  24.383  24.435  15.278 -0.3211  0.1639 -0.0372
74153W        W75017  25.765  24.449  11.160 -0.1828 -0.1380 -0.1048
74154W        W75018  25.754  25.596   9.988 -0.1453 -0.0538 -0.4497
74155W        W75019  25.806  21.436  13.483 -0.1668  0.5193 -0.0645
74156W        W75020  23.253  23.577  15.333  0.3688 -0.3099 -0.3137
74157W        W75021  23.869  21.028  14.098  0.1169 -0.0383  0.2343
74158W        W75022  25.019  25.550  14.562 -0.2574  0.2165 -0.0763
74159W        W75023  24.382  25.493  12.385  0.1594  0.0817  0.2618
74160W        W75024  23.194  25.166  15.950 -0.1449 -0.0358  0.3175
74161W        W75025  24.139  21.629  14.717  0.2620 -0.3760 -0.2850
74162W        W75026  25.878  26.800   9.897 -0.1179 -0.0711 -0.0027
74163W        W75027  24.641  22.514  12.026 -0.0782  0.1723 -0.1406
74164W        W75028  24.278  21.931  14.319 -0.0596 -0.3152  0.2328
74165W        W75029  19.133  24.642  11.223  0.0103 -0.4721 -0.2178
74166W        W75030  24.415  24.712  14.637 -0.0089  0.1598 -0.1288
74167W        W75031  24.981  25.817  10.359 -0.2835 -0.2189 -0.2516
74168W        W75032  24.377  24.981  10.016  0.0950  0.2716 -0.1633
74169W        W75033  23.371  26.325  13.071 -0.0939  0.1766  0.0560
74170W        W75034  23.220  23.845  14.719  0.3369 -0.1003  0.0937
74171W        W75035  22.464  24.737  15.655  0.0194  0.0595 -0.1759
74172W        W75036  21.468  21.838  14.181  0.0488 -0.1449  0.1216
74173W        W75037  24.975  23.376  11.084  0.0410 -0.0507  0.2045
74174W        W75038  22.045  21.015  15.491 -0.3228  0.2419 -0.1809
74175W        W75039  27.946  22.815  14.845 -0.0064 -0.2162 -0.0501
74176W        W75040  26.826  22.710  13.364  0.2431  0.0802  0.2967
74177W        W75041  24.472  21.103  13.961 -0.2444 -0.3234  0.0307
74178W        W75042  25.806  24.223  11.638 -0.2051 -0.1130 -0.0143
74179W        W75043  21.732  21.770  10.013  0.0060  0.1027 -0.0705
74180W        W75044  21.920  24.559  16.238  0.0434 -0.0928  0.4958
74181W        W75045  20.862  24.906  10.904  0.0453  0.0022  0.0835
74182W        W75046  23.789  20.700  10.533 -0.1509 -0.3169 -0.0270
74183W        W75047  21.935  26.470  15.923  0.1047 -0.0743 -0.1079
74184W        W75048  25.345  20.696  14.292 -0.1097 -0.1897 -0.2134
74185W        W75049  23.780  21.306  14.974  0.1250  0.0295  0.2392
74186W        W75050  23.765  25.702  10.394 -0.2115 -0.0083  0.0309
74187W        W75051  22.517  23.610  13.691  0.1046  0.1872  0.3788
74188W        W75052  22.078  24.142  14.451 -0.2596  0.1576 -0.1812
74189W        W75053  26.951  25.201  13.617  0.1945  0.0653 -0.0715
74190W        W75054  23.732  22.422  12.716  0.1219 -0.1593 -0.0186
74191W        W75055  20.867  24.516  10.572  0.0562 -0.1022  0.0547
74192W        W75056  23.474  25.237  13.942  0.0568 -0.0299 -0.3108
74193W        W75057  22.837  22.900  13.113 -0.1680 -0.1505  0.3105
74194W        W75058  25.383  21.104  12.790 -0.1030  0.2468  0.1370
74195W        W75059  21.879  26.074  15.068 -0.0884  0.0270  0.0581
74196W        W75060  22.216  25.181  12.632  0.0290 -0.0682  0.1740
74197W        W75061  23.587  21.566  12.962 -0.0579 -0.1185 -0.0097
74198W        W75062  21.475  23.606   9.478 -0.2821  0.2187 -0.1836
74199W        W75063  24.982  23.052  13.059 -0.0678 -0.0195 -0.1495
74200W        W75064  22.297  25.507  12.998 -0.0217  0.0363 -0.1952
74201W        W75065  23.125  24.064  15.421 -0.2097  0.2267  0.0404
74202W        W75066  23.271  24.285  15.869  0.1144  0.1960  0.0775
74203W        W75067  23.951  24.425  14.606  0.0379  0.2764  0.2088
74204W        W75068  22.373  22.894  12.897 -0.0264  0.0016  0.2853
74205W        W75069  22.607  22.351  11.335 -0.1553  0.1331 -0.0812
74206W        W75070  21.493  25.022  10.076  0.1368  0.0964  0.1507
74207W        W75071  22.694  24.717  11.441  0.1177 -0.0031  0.0934
74208W        W75072  22.919  22.997  10.164  0.1427  0.0963  0.1676
74209W        W75073  23.083  25.345  13.201  0.0315 -0.0365  0.2527
74210W        W75074  24.305  24.082  13.304  0.1230 -0.0221 -0.0618
74211W        W75075  22.784  25.711  12.947  0.1631 -0.3380 -0.1597
74212W        W75076  24.171  24.432  11.936 -0.0432 -0.2912 -0.0067
74213W        W75077  23.479  22.607  10.459  0.1045 -0.3529 -0.0855
74214W        W75078  27.114  22.961  10.489 -0.0793  0.2838 -0.1089
74215W        W75079  20.915  26.026  12.770 -0.0011  0.4932 -0.0758
74216W        W75080  20.505  21.596  12.440 -0.2137 -0.4039  0.2248
74217W        W75081  20.872  25.698  13.260  0.1484 -0.0505  0.0483
74218W        W75082  25.111  23.067  16.418  0.2171 -0.0893  0.0424
74219W        W75083  21.426  27.244  11.672  0.2627 -0.0129 -0.1928
74220W        W75084  24.372  28.805   9.007 -0.2762  0.0271  0.1989
74221W        W75085  23.441  26.891  10.015 -0.0030 -0.3013  0.1057
74222W        W75086  24.859  23.095  10.631  0.1592 -0.4380 -0.0731
74223W        W75087  23.470  23.889  12.206 -0.0547  0.0116  0.0375
74224W        W75088  19.592  24.696  14.002  0.1194 -0.1567  0.1370
74225W        W75089  27.524  22.639   9.070  0.4924  0.1344 -0.2471
74226W        W75090  21.710  21.521   9.502  0.0184 -0.1247 -0.0581
74227W        W75091  23.210  24.865  16.589  0.0900 -0.1736 -0.1373
74228W        W75092  23.254  20.649  11.434 -0.2136  0.2997  0.2505
74229W        W75093  24.216  24.663  11.433 -0.0305 -0.2418 -0.2916
74230W        W75094  23.832  26.612  11.479  0.0388  0.1345  0.3310
74231W        W75095  21.173  26.076  16.349 -0.1993 -0.0588 -0.2636
74232W        W75096  22.787  22.639  16.460 -0.1644 -0.2184  0.0817
74233W        W75097  25.089  21.675  14.454  0.0452  0.0040 -0.1863
74234W        W75098  24.486  23.692  13.567 -0.1660 -0.0926 -0.1346
74235W        W75099  23.646  23.520  11.405  0.0944  0.2943 -0.0648
74236W        W75100  22.457  22.847  12.012  0.0297  0.1975 -0.0561
74237W        W75101  21.233  24.388   8.873  0.3675 -0.0084 -0.0641
74238W        W75102  24.789  20.854  13.014  0.1846  0.0549  0.1292
74239W        W75103  23.790  22.877   9.922  0.0212  0.0197  0.3505
74240W        W75104  24.109  23.663  14.550  0.1979  0.0098 -0.2516
74241W        W75105  25.638  25.307   9.396  0.1667 -0.0242  0.1289
74242W        W75106  21.919  23.896  12.648  0.2653 -0.0911 -0.3063
74243W        W75107  23.785  21.362  13.682 -0.0219  0.0212 -0.0479
74244W        W75108  22.746  26.077  12.207 -0.0974 -0.1281 -0.0695
74245W        W75109  24.094  25.380  14.520  0.4257 -0.1443 -0.0028
74246W        W75110  21.765  24.149  13.139  0.0358  0.3131 -0.0907
74247W        W75111  23.770  24.896  10.997  0.0499 -0.0520  0.0324
74248W        W75112  22.400  21.795   9.634 -0.0760  0.1461  0.2537
74249W        W75113  22.724  24.698  14.410 -0.2706  0.0462  0.2891
74250W        W75114  21.758  24.726  11.627  0.1678  0.0695 -0.0998
74251W        W75115  21.886  24.805  12.737 -0.0148  0.0726 -0.0607
74252W        W75116  25.505  20.195  11.638  0.0674  0.3744 -0.1641
74253W        W75117  25.883  23.602  12.735 -0.2942 -0.1995 -0.0559
74254W        W75118  28.404  23.717   9.059  0.2764 -0.0268 -0.1384
74255W        W75119  27.400  23.859  11.662  0.0143  0.0583 -0.0522
74256W        W75120  21.794  28.209  10.326 -0.1906  0.1651  0.0686
74257W        W75121  23.168  22.676  12.303  0.1744  0.1112 -0.0118
74258W        W75122  21.207  25.673  16.577 -0.1516 -0.1322  0.0438
74259W        W75123  25.643  19.783  13.411  0.0423 -0.0438 -0.0075
74260W        W75124  28.088  22.165  15.519 -0.2017 -0.0525  0.1479
74261W        W75125  20.830  26.167  13.474  0.0296  0.2299 -0.1967
74262W        W75126  21.879  21.752  14.395 -0.1394 -0.0668  0.0877
74263W        W75127  24.652  25.928  13.723 -0.2778 -0.0130  0.0116
74264W        W75128  22.449  24.949  16.146 -0.2114 -0.1854  0.1230
74265W        W75129  21.634  26.334  15.441  0.3849 -0.1121 -0.3653
74266W        W75130  23.096  24.097  12.516  0.1293  0.0911  0.1828
74267W        W75131  24.777  25.459   8.912 -0.0566  0.0236 -0.0650
74268W        W75132  23.858  25.509  12.542 -0.3071 -0.1176  0.1080
74269W        W75133  22.012  25.237  11.685 -0.2236 -0.0406  0.0896
74270W        W75134  23.510  23.882  15.715  0.1269  0.0725  0.0391
74271W        W75135  22.027  24.343  11.931 -0.0860 -0.1284 -0.0403
74272W        W75136  22.742  26.300  12.850 -0.0434  0.0162 -0.0187
74273W        W75137  22.538  21.108  14.227  0.0983 -0.3472 -0.4215
74274W        W75138  18.301  26.272  13.424 -0.1952  0.2351  0.2391
74275W        W75139  24.780  22.168  13.691  0.1541 -0.0985  0.0841
74276W        W75140  22.935  22.649  13.754  0.0651 -0.0424  0.0582
74277W        W75141  23.828  24.391  13.163  0.1473  0.0035 -0.0846
74278W        W75142  23.405  21.454  13.397 -0.1073  0.0322 -0.3066
74279W        W75143  21.848  27.086  11.460  0.0715  0.1009 -0.2318
74280W        W75144  21.585  23.368  15.190  0.1792 -0.1547 -0.0869
74281W        W75145  23.497  25.547  11.413 -0.1340 -0.0496 -0.2311
74282W        W75146  22.533  23.795  14.157 -0.1845 -0.0781 -0.1454
74283W        W75147  26.067  24.671  14.525  0.1023 -0.2126  0.0557
74284W        W75148  21.637  26.786  11.116  0.0842 -0.3427 -0.1595
74285W        W75149  25.522  23.161  11.274 -0.1214  0.3304  0.2466
74286W        W75150  19.455  23.666  12.307 -0.1509 -0.0582  0.2316
74287W        W75151  26.027  25.294  11.601  0.0381  0.2231 -0.0536
74288W        W75152  24.021  22.809  12.697  0.0530  0.2895 -0.1900
74289W        W75153  21.310  26.437  10.138  0.0553 -0.0667 -0.0841
74290W        W75154  23.830  24.731  11.828  0.1595  0.0806 -0.2815
74291W        W75155  23.715  22.554  12.128  0.0980 -0.5570 -0.0503
74292W        W75156  23.282  23.243  13.041  0.2882 -0.2020 -0.1922
74293W        W75157  22.994  22.564   9.753 -0.3308  0.1901  0.1222
74294W        W75158  26.557  26.417  13.348  0.2075 -0.3191 -0.3678
74295W        W75159  24.803  22.167  13.053 -0.0812  0.0440 -0.2570
74296W        W75160  23.418  21.284  15.294 -0.1186  0.1156  0.2121
74297W        W75161  26.885  24.586  12.655  0.0863 -0.0353 -0.0475
74298W        W75162  24.133  24.313  12.653 -0.0964  0.1671 -0.0285
74299W        W75163  22.369  23.775  12.826  0.1254  0.0381 -0.4254
74300W        W75164  22.983  24.584  15.460 -0.2880 -0.0083  0.0422
74301W        W75165  24.860  24.413  13.707 -0.3509 -0.1104 -0.1097
74302W        W75166  23.559  21.639  14.668  0.0979 -0.1217 -0.1420
74303W        W75167  24.492  23.117  13.055  0.0635 -0.0698  0.1535
74304W        W75168  19.815  26.428  14.223 -0.2402 -0.0250  0.2425
74305W        W75169  23.235  26.969  10.856  0.1482 -0.2937  0.3313
74306W        W75170  25.328  23.771  11.936  0.1005 -0.1253  0.0490
74307W        W75171  23.186  22.974  10.580 -0.0256 -0.0429  0.3168
74308W        W75172  25.408  25.364  12.127  0.0911 -0.2208 -0.0769
74309W        W75173  22.347  26.846  12.065 -0.1562 -0.1537 -0.0044
74310W        W75174  23.268  26.299  16.806 -0.1059  0.1027 -0.0427
74311W        W75175  21.667  22.515  14.003 -0.2136 -0.1614  0.3133
74312W        W75176  19.342  25.607  15.572  0.1053  0.0721 -0.0264
74313W        W75177  25.755  22.841  15.765 -0.1947  0.1051 -0.2416
74314W        W75178  24.779  21.417  13.631 -0.0847 -0.2123  0.0146
74315W        W75179  24.260  21.237  15.059  0.0057 -0.1232 -0.1975
74316W        W75180  22.587  24.279  14.185 -0.2058 -0.2524  0.3626
74317W        W75181  22.373  20.874  11.885  0.0253  0.1486 -0.1274
74318W        W75182  22.671  23.811  15.560 -0.0775 -0.2064  0.1328
74319W        W75183  27.974  25.100  13.024 -0.0999  0.1201 -0.0555
74320W        W75184  22.160  24.571  11.330 -0.4072 -0.0921  0.0609
74321W        W75185  20.803  24.669  12.208  0.0684 -0.1250 -0.1185
74322W        W75186  20.152  23.994  12.730 -0.2841  0.1928 -0.2327
74323W        W75187  27.194  24.662  11.054  0.1350  0.0478  0.3802
74324W        W75188  26.375  21.765  15.660 -0.1918 -0.2125 -0.1373
74325W        W75189  22.950  22.170  13.878  0.0775  0.1543  0.1681
74326W        W75190  24.194  25.302  16.827  0.0428  0.4378  0.2108
74327W        W75191  25.384  22.426  12.532 -0.0323  0.1124 -0.0838
74328W        W75192  23.935  27.616  11.684 -0.0695  0.3777 -0.0057
74329W        W75193  24.949  23.849  12.309  0.1213  0.1187 -0.0208
74330W        W75194  23.772  22.305  10.757 -0.1715 -0.1141 -0.0266
74331W        W75195  28.453  21.581  12.993  0.1710  0.0358 -0.1460
74332W        W75196  23.338  24.636  14.424  0.0288 -0.2497 -0.2670
74333W        W75197  21.149  26.514   9.042 -0.1503  0.1476 -0.2980
74334W        W75198  22.159  24.568  16.694 -0.0264  0.1087  0.2162
74335W        W75199  22.298  23.426  10.942  0.3319 -0.0627 -0.0378
74336W        W75200  26.300  26.366  10.785  0.0836  0.1223 -0.0073
74337W        W75201  25.556  17.385  13.152  0.0687  0.1475 -0.0434
74338W        W75202  20.733  25.065  10.373 -0.0900  0.0912  0.0543
74339W        W75203  21.725  27.005  14.039 -0.0673 -0.0345 -0.2799
74340W        W75204  24.847  23.414  17.134 -0.0659 -0.3135  0.0240
74341W        W75205  24.778  25.805  17.804 -0.0978 -0.0199  0.2901
74342W        W75206  27.451  23.376  10.360  0.0318  0.1751  0.1646
74343W        W75207  24.581  24.054  12.845  0.1103  0.2485 -0.1022
74344W        W75208  25.034  23.719  12.835  0.0991  0.0197 -0.0170
74345W        W75209  26.404  24.591  17.801 -0.3006 -0.0088  0.2136
74346W        W75210  25.157  21.220  14.068  0.2257  0.1763  0.1509
74347W        W75211  24.019  24.041  14.026 -0.1095  0.0435 -0.1209
74348W        W75212  23.088  23.835  13.324 -0.1533 -0.0228  0.0620
74349W        W75213  22.797  20.311  12.152  0.0400  0.1659  0.4085
74350W        W75214  22.741  25.694  16.700  0.1642  0.1226 -0.3015
74351W        W75215  24.054  25.351  13.543 -0.1540  0.3646 -0.1949
74352W        W75216  23.027  26.354  11.016 -0.5418 -0.2473 -0.1155
74353W        W75217  21.627  25.087  13.576  0.0554 -0.2465  0.2333
74354W        W75218  23.416  27.274  16.594 -0.4037 -0.1855 -0.0124
74355W        W75219  21.302  25.794  10.932 -0.2118 -0.0556  0.0529
74356W        W75220  24.994  22.249  12.295 -0.0582 -0.1800 -0.2384
74357W        W75221  23.067  24.430  13.982  0.4978 -0.2394 -0.1560
74358W        W75222  23.262  21.079  13.042 -0.0365 -0.1706 -0.4417
74359W        W75223  22.950  26.617  10.591 -0.0867 -0.2583 -0.0766
74360W        W75224  26.197  23.418  11.806  0.0722  0.4007  0.0649
74361W        W75225  19.841  23.544  16.433 -0.3802 -0.5318  0.1440
74362W        W75226  23.843  23.233  11.817 -0.3425 -0.0618 -0.1101
74363W        W75227  22.836  23.905  12.928  0.0068 -0.1457 -0.0077
74364W        W75228  22.573  27.077  15.570  0.1397 -0.0456 -0.5047
74365W        W75229  23.695  23.977  15.115  0.0298  0.0950  0.0387
74366W        W75230  24.386  23.003  11.750  0.0087  0.1457  0.0836
74367W        W75231  22.863  23.361  11.097  0.1427  0.0479 -0.2109
74368W        W75232  19.286  24.461  11.708 -0.2700  0.0800  0.0487
74369W        W75233  23.604  23.447  14.731  0.2326  0.1967  0.1663
74370W        W75234  24.696  20.520  11.488  0.0556 -0.1405 -0.2809
74371W        W75235  22.252  25.171  13.671  0.1899  0.2920 -0.0094
74372W        W75236  21.259  26.029  13.217 -0.0305  0.2448 -0.1024
74373W        W75237  24.410  24.745  12.364  0.1946  0.0278 -0.0542
74374W        W75238  25.211  25.936  15.895  0.0556  0.4506 -0.0997
74375W        W75239  25.423  26.694  14.470  0.5643  0.0755  0.2148
74376W        W75240  24.050  25.167  12.300 -0.0899  0.2343  0.2829
74377W        W75241  24.934  22.590  12.779 -0.0639 -0.1110  0.2662
74378W        W75242  22.718  20.722  12.908 -0.0914 -0.0759 -0.1649
74379W        W75243  22.676  23.739  10.828 -0.1461  0.0669  0.0265
74380W        W75244  21.540  24.007  12.368 -0.3154 -0.0500  0.0866
74381W        W75245  18.879  25.644  11.474  0.0702  0.2204  0.1453
74382W        W75246  20.404  27.296  10.962 -0.1087 -0.4260 -0.3686
74383W        W75247  23.878  27.898  13.473 -0.1329  0.1201 -0.1171
74384W        W75248  23.183  22.808  14.801 -0.1860 -0.0947  0.0282
74385W        W75249  20.915  22.885  11.210 -0.0301  0.1855  0.0058
74386W        W75250  21.459  23.493  14.675  0.0371 -0.0547  0.2062
74387W        W75251  24.471  24.763  10.956 -0.0797  0.2675 -0.2166
74388W        W75252  21.831  23.699  10.831 -0.0593 -0.2198  0.2784
74389W        W75253  25.651  24.438  14.794 -0.0279  0.2301  0.2068
74390W        W75254  26.697  22.365  11.689  0.3080 -0.1450 -0.2864
74391W        W75255  25.207  24.036  16.048  0.0320 -0.0843  0.0161
74392W        W75256  25.179  22.832  14.816 -0.0040 -0.2023 -0.3473
74393W        W75257  25.418  23.734  11.006  0.0747  0.3701  0.0154
74394W        W75258  24.298  19.241  10.632 -0.1723  0.0325 -0.3335
74395W        W75259  23.525  24.698  12.916 -0.2837  0.1061 -0.0229
74396W        W75260  22.078  23.390  15.461  0.1535 -0.1328  0.1309
74397W        W75261  20.743  23.251  14.094 -0.5053 -0.0103 -0.0060
74398W        W75262  22.764  23.306  10.576  0.1813 -0.2431 -0.3929
74399W        W75263  24.512  20.899  11.168 -0.3478 -0.2734  0.0823
74400W        W75264  24.047  25.482  14.050  0.1262  0.1671 -0.0079
74401W        W75265  22.215  24.086   9.136  0.0019 -0.0486  0.0308
74402W        W75266  25.472  20.140  12.539 -0.4285 -0.1119  0.0192
74403W        W75267  22.580  26.588  11.427 -0.1869  0.0448  0.2276
74404W        W75268  26.758  27.223  13.955 -0.3808  0.1047  0.1290
74405W        W75269  23.454  25.151  14.527  0.1372 -0.2794 -0.1983
74406W        W75270  22.622  23.999  14.648  0.2723 -0.1095 -0.0653
74407W        W75271  26.289  22.548  13.414  0.1720 -0.1765 -0.0403
74408W        W75272  25.109  22.315  11.556 -0.0285 -0.3258 -0.2393
74409W        W75273  22.147  24.272   9.709 -0.0521 -0.0082 -0.1426
74410W        W75274  25.319  24.729  12.703  0.1581  0.1619  0.0165
74411W        W75275  23.475  24.366   9.517 -0.0447 -0.2653  0.2863
74412W        W75276  25.218  22.919  15.890  0.1103 -0.1933  0.1010
74413W        W75277  24.248  24.542  13.513  0.0326 -0.1723 -0.1409
74414W        W75278  23.429  23.837  12.884  0.1587  0.0510  0.2222
74415W        W75279  21.786  22.093  13.093  0.0108 -0.2643  0.1318
74416W        W75280  23.771  25.733  11.814 -0.4176  0.2315  0.1548
74417W        W75281  26.323  22.645  12.825  0.1348 -0.2342  0.3206
74418W        W75282  21.111  24.643  13.778  0.0489 -0.1423  0.0101
74419W        W75283  21.732  25.112  15.441 -0.1363  0.2382 -0.2647
74420W        W75284  21.549  25.492  13.832 -0.1201  0.2321 -0.3684
74421W        W75285  21.116  23.915  12.579  0.0261  0.0116  0.3238
74422W        W75286  23.354  26.015  14.447 -0.1559  0.1021 -0.0685
74423W        W75287  24.554  25.202  14.721  0.0565 -0.3666 -0.0462
74424W        W75288  24.002  23.820  12.908  0.2189 -0.0195 -0.0531
74425W        W75289  23.442  23.398  12.221 -0.1677  0.1539 -0.1847
74426W        W75290  24.406  25.447  11.894  0.3270  0.0678  0.0018
74427W        W75291  18.595  26.298  12.952 -0.1668 -0.0726 -0.1969
74428W        W75292  26.385  24.797  15.896  0.2176 -0.1282 -0.1884
74429W        W75293  23.788  26.547  15.943 -0.0357  0.1604 -0.0451
74430W        W75294  20.246  27.146  15.873 -0.3013  0.2031  0.1286
74431W        W75295  24.553  23.714   9.509  0.0067 -0.2632  0.2366
74432W        W75296  23.423  26.516  12.590 -0.1752  0.1760 -0.0133
74433W        W75297  23.835  24.338  13.682  0.0435  0.0220 -0.1729
74434W        W75298  20.674  25.008  11.857 -0.3969 -0.2458  0.0501
74435W        W75299  24.339  25.995   9.339  0.3115 -0.1243  0.3664
74436W        W75300  23.714  24.762  17.547 -0.0694 -0.3905 -0.0133
74437W        W75301  21.241  24.117  10.219  0.1122  0.0465 -0.3731
74438W        W75302  22.414  21.332  10.804 -0.0819 -0.2034  0.0205
74439W        W75303  21.441  26.228  16.845  0.2363  0.0089 -0.1286
74440W        W75304  22.114  23.607  17.318  0.1946 -0.1334  0.1574
74441W        W75305  24.981  24.910  14.727 -0.2110 -0.1673  0.1448
74442W        W75306  24.435  26.030  17.465 -0.2624 -0.3935  0.0858
74443W        W75307  20.987  26.494  14.875  0.1886  0.0666  0.2598
74444W        W75308  23.296  21.346  16.565 -0.0673  0.0331 -0.2637
74445W        W75309  22.699  21.554  17.199  0.3974  0.0240 -0.0867
74446W        W75310  25.181  25.089  15.959 -0.0788 -0.0288  0.3544
74447W        W75311  23.514  24.599  17.109 -0.0560 -0.2587 -0.2398
74448W        W75312  22.227  21.036  16.755  0.0026 -0.3147  0.3065
74449W        W75313  21.804  22.074  18.711  0.0350 -0.1682 -0.0460
74450W        W75314  25.079  22.212  15.841 -0.0505 -0.0153  0.0747
74451W        W75315  22.669  24.673  16.544 -0.2226 -0.0943 -0.0088
74452W        W75316  25.018  19.746  17.443 -0.0160 -0.2034 -0.1976
74453W        W75317  22.585  24.178  16.700 -0.1761  0.0400 -0.0896
74454W        W75318  23.195  24.573  17.615  0.1571  0.1392 -0.1268
74455W        W75319  22.332  23.014  13.447  0.4124 -0.0964  0.0736
74456W        W75320  23.170  23.294  14.843  0.1259  0.1269  0.0890
74457W        W75321  22.667  23.409  21.343 -0.4086  0.2050 -0.0912
74458W        W75322  24.138  23.348  15.868  0.3661 -0.1512  0.1223
74459W        W75323  25.818  24.667  16.882  0.3477  0.1865 -0.1881
74460W        W75324  23.819  23.559  16.581  0.0291  0.3938  0.1838
74461W        W75325  23.371  25.413  15.564  0.1207 -0.2147 -0.0950
74462W        W75326  23.684  24.718  18.683 -0.1463 -0.2095 -0.3701
74463W        W75327  24.097  26.943  17.219 -0.3841 -0.0005 -0.1504
74464W        W75328  23.754  24.246  18.397 -0.1416  0.0900  0.5057
74465W        W75329  27.387  23.266  17.051  0.1102 -0.1530  0.0321
74466W        W75330  22.212  24.133  16.361  0.0626  0.1023  0.3219
74467W        W75331  22.186  25.776  17.541 -0.0881 -0.0150 -0.2171
74468W        W75332  22.500  21.546  18.329  0.1435  0.0822 -0.2829
74469W        W75333  21.886  23.089  14.773  0.1512  0.1578 -0.1312
74470W        W75334  27.821  24.300  18.710  0.3757 -0.0837 -0.1481
74471W        W75335  24.250  22.373  17.264  0.2556  0.0939 -0.0110
74472W        W75336  22.187  24.721  18.955 -0.3237 -0.0966 -0.0821
74473W        W75337  22.583  22.953  16.078  0.0386 -0.0662  0.2180
74474W        W75338  26.063  23.010  17.807 -0.3858  0.0115 -0.1929
74475W        W75339  21.580  22.496  17.881 -0.2806  0.1701  0.2209
74476W        W75340  22.183  24.157  17.443  0.0329  0.2078 -0.0475
74477W        W75341  28.134  22.258  17.532  0.2144  0.2326  0.1794
74478W        W75342  26.846  21.685  16.503  0.0492  0.1240  0.0115
74479W        W75343  23.774  22.483  15.593  0.3634 -0.1019 -0.2488
74480W        W75344  26.942  22.578  16.831 -0.3124  0.0747  0.3193
74481W        W75345  22.930  26.332  15.883 -0.0165 -0.0975  0.1585
74482W        W75346  28.131  23.080  15.678 -0.3014 -0.1390 -0.1813
74483W        W75347  22.314  25.731  15.277  0.0200 -0.2544  0.2423
74484W        W75348  25.177  24.577  16.187 -0.1086 -0.1672  0.1503
74485W        W75349  21.396  21.370  17.094  0.0948 -0.2800 -0.0368
74486W        W75350  23.362  25.044  17.307  0.0309 -0.1004  0.0499
74487W        W75351  24.261  24.041  16.033  0.1915 -0.0553  0.0191
74488W        W75352  24.789  24.214  15.901 -0.1745 -0.1481  0.0213
74489W        W75353  24.231  26.823  15.775 -0.1399 -0.3198 -0.1919
74490W        W75354  24.450  23.481  15.323 -0.1181 -0.0992 -0.0357
74491W        W75355  24.768  22.577  16.973 -0.2069 -0.0073  0.0924
74492W        W75356  25.515  21.946  15.963 -0.1094  0.0509 -0.1399
74493W        W75357  25.434  22.185  18.532  0.1844 -0.3608 -0.0344
74494W        W75358  22.028  24.733  13.609  0.1442 -0.0298 -0.2351
74495W        W75359  23.243  21.850  15.938 -0.0642 -0.0019  0.2005
74496W        W75360  26.598  25.371  17.168 -0.2435 -0.0135  0.1491
74497W        W75361  22.128  26.945  15.831  0.3395 -0.0791 -0.1908
74498W        W75362  22.610  25.399  17.647 -0.0629 -0.0855 -0.0014
74499W        W75363  23.646  24.792  14.843  0.0609 -0.0710 -0.2632
74500W        W75364  24.524  26.349  16.083  0.0988 -0.0524  0.1754
74501W        W75365  21.246  23.103  16.165 -0.1320  0.0587 -0.1917
74502W        W75366  24.134  21.171  15.891  0.1070 -0.3701  0.1546
74503W        W75367  22.993  22.197  17.783  0.1940 -0.0219  0.0221
74504W        W75368  26.326  22.229  15.477  0.2702 -0.2403 -0.0225
74505W        W75369  21.216  24.727  13.258  0.0498  0.4175  0.0999
74506W        W75370  21.602  23.285  12.029  0.0017 -0.0110 -0.0162
74507W        W75371  22.039  24.505  14.072  0.0289 -0.1367 -0.3190
74508W        W75372  22.908  26.157  15.354 -0.0800 -0.0837 -0.1657
74509W        W75373  27.748  21.804  17.126  0.0572 -0.1566 -0.1877
74510W        W75374  24.102  22.394  16.110 -0.0453 -0.3432 -0.1059
74511W        W75375  24.848  26.039  16.288  0.0257  0.1220 -0.1587
74512W        W75376  26.114  23.812  18.322 -0.2184 -0.2320  0.1005
74513W        W75377  25.187  25.899  14.893 -0.1536 -0.1661 -0.0456
74514W        W75378  24.246  22.520  17.758 -0.1045 -0.0018 -0.1492
74515W        W75379  19.868  25.524  13.530  0.0096  0.2969 -0.2707
74516W        W75380  23.791  23.744  18.583  0.1297  0.0067 -0.3108
74517W        W75381  22.604  25.318  16.400  0.0776 -0.0143  0.0224
74518W        W75382  22.917  24.679  15.987  0.1403  0.1199 -0.2019
74519W        W75383  23.764  22.367  18.195  0.0075  0.1630  0.1683
74520W        W75384  21.784  24.396  18.793  0.2098  0.0755 -0.0893
74521W        W75385  21.385  22.976  14.863 -0.2288 -0.2383 -0.4385
74522W        W75386  24.298  21.756  17.336  0.1300 -0.3298 -0.1247
74523W        W75387  24.151  24.044  16.858 -0.0840 -0.2515 -0.0845
74524W        W75388  25.067  23.519  16.127 -0.2813 -0.0226  0.1741
74525W        W75389  21.644  26.981  18.539  0.0610  0.2167  0.1874
74526W        W75390  23.472  22.020  17.284  0.0450 -0.0377 -0.0141
74527W        W75391  23.542  25.646  18.330 -0.0437  0.5007  0.0802
74528W        W75392  26.481  20.687  17.982  0.1188 -0.1280 -0.5637
74529W        W75393  25.919  23.666  15.355 -0.0296 -0.1880  0.0289
74530W        W75394  25.959  24.729  19.583  0.2222  0.1286 -0.2105
74531W        W75395  23.753  26.124  16.747 -0.4357 -0.1362 -0.1497
74532W        W75396  22.764  23.313  14.040 -0.1535 -0.0204  0.0805
74533W        W75397  22.977  21.305  14.115  0.1178 -0.0352 -0.1609
74534W        W75398  25.088  23.911  17.017 -0.2350 -0.2373 -0.2179
74535W        W75399  25.251  23.255  15.057  0.2110 -0.0153 -0.0885
74536W        W75400  21.582  27.197  17.413  0.1990  0.1001  0.0196
74537W        W75401  23.521  21.988  13.840  0.1425  0.0808  0.0596
74538W        W75402  26.494  23.916  16.301 -0.0079  0.0837 -0.1335
74539W        W75403  26.309  26.436  14.767 -0.1782  0.3261 -0.2731
74540W        W75404  25.218  24.504  14.541  0.1487  0.0866 -0.0363
74541W        W75405  23.099  22.888  16.146  0.0393  0.0400  0.1670
74542W        W75406  22.963  24.185  18.399 -0.2148  0.3191  0.1592
74543W        W75407  27.213  23.361  15.246 -0.0567  0.2590 -0.1502
74544W        W75408  22.629  24.512  18.665 -0.1952  0.1186 -0.1901
74545W        W75409  23.237  26.607  17.169 -0.1032  0.2105 -0.1856
74546W        W75410  25.265  25.552  20.044  0.0155  0.2472  0.1645
74547W        W75411  24.403  24.478  19.217  0.0850 -0.4268  0.2897
74548W        W75412  25.904  24.498  17.597 -0.1464  0.1534 -0.3996
74549W        W75413  23.897  24.735  15.548 -0.2626 -0.1092  0.1907
74550W        W75414  27.794  23.345  15.370 -0.1195 -0.4857 -0.0207
74551W        W75415   0.926  24.289  17.384 -0.2303  0.0654  0.0610
74552W        W75416  23.054  24.665  17.075  0.1467  0.2420 -0.2403
74553W        W75417  27.489  27.631  15.177  0.1589  0.3363  0.2813
74554W        W75418  22.359  26.795  18.254 -0.0255  0.2160  0.0576
74555W        W75419  25.254  23.304  17.924 -0.0231  0.1008 -0.0663
74556W        W75420  23.573  28.142  16.032 -0.0208 -0.0122  0.0320
74557W        W75421  22.743  24.522  18.118 -0.1455  0.0603 -0.1959
74558W        W75422  25.137  24.191  17.978 -0.3330  0.1546 -0.1964
74559W        W75423  24.504  22.730  16.456 -0.2364  0.2136 -0.0864
74560W        W75424  22.699  25.214  12.856 -0.1208 -0.0203  0.0781
74561W        W75425  27.172  23.043  16.033  0.1882  0.2227  0.0236
74562W        W75426  24.129  25.761  16.599 -0.0698 -0.3375 -0.0574
74563W        W75427  21.023  24.933  15.965 -0.0223  0.0885  0.0845
74564W        W75428  25.632  20.772  16.863  0.0683  0.0650  0.1141
74565W        W75429  23.571  25.041  16.323  0.1784  0.2243  0.1607
74566W        W75430  24.575  23.345  20.771  0.0748  0.2072 -0.2025
74567W        W75431  26.518  23.465  16.564  0.0477 -0.0059  0.0995
74568W        W75432  24.350  23.727  16.389 -0.0551 -0.1664 -0.0388
74569W        W75433  22.419  25.091  17.248 -0.1552  0.3149 -0.2245
74570W        W75434  25.409  24.208  19.714  0.2125  0.0576  0.0118
74571W        W75435  24.558  24.002  20.373 -0.2705 -0.1105  0.0716
74572W        W75436  22.901  22.130  16.590  0.1711  0.0216 -0.0800
74573W        W75437  26.005  25.183  16.605 -0.6568  0.0611  0.0211
74574W        W75438  22.104  23.819  17.873 -0.0351  0.0558  0.1201
74575W        W75439  22.970  23.252  15.795  0.1513  0.1396 -0.4719
74576W        W75440  23.593  23.325  17.342 -0.2104 -0.0030 -0.1698
74577W        W75441  23.133  25.459  19.657  0.1941 -0.2140 -0.1753
74578W        W75442  21.924  27.182  18.131 -0.1447 -0.0361  0.1554
74579W        W75443  21.386  24.262  13.984 -0.0504 -0.0343  0.1335
74580W        W75444  25.508  24.912  16.267 -0.0205 -0.0958  0.0872
74581W        W75445  24.475  23.725  12.419 -0.0536 -0.0108 -0.0354
74582W        W75446  23.474  27.308  15.474  0.0489  0.0849 -0.1552
74583W        W75447   0.048  22.950  16.911  0.0566  0.1553 -0.3552
74584W        W75448  24.268  23.278  18.325  0.1785  0.1617  0.4994
74585W        W75449  24.377  23.611  17.938  0.1561 -0.1467  0.1536
74586W        W75450  25.208  25.428  16.927 -0.0177 -0.0382 -0.0206
74587W        W75451  23.739  25.869  17.947 -0.3021 -0.0464 -0.3196
74588W        W75452  21.691  23.837  17.052  0.2875  0.0091  0.1725
74589W        W75453  24.548  26.170  16.649  0.1386 -0.1273 -0.3618
74590W        W75454  21.647  21.910  15.737  0.0277 -0.0273 -0.0208
74591W        W75455  24.652  23.738  16.802  0.3176  0.1896 -0.3770
74592W        W75456  20.965  26.230  12.242 -0.0051  0.0911 -0.1038
74593W        W75457  22.804  22.250  20.645 -0.4146  0.3155  0.0928
74594W        W75458  24.257  21.527  16.741  0.5127  0.1102  0.0702
74595W        W75459  20.763  23.211  16.974  0.2917  0.1723 -0.1202
74596W        W75460  24.678  26.478  15.515 -0.1293  0.0054  0.0058
74597W        W75461  22.224  21.514  13.541 -0.1762 -0.1093 -0.2528
74598W        W75462  25.621  24.296  16.185 -0.4078  0.1194 -0.2326
74599W        W75463  26.263  23.388  18.132 -0.0564  0.2008  0.0054
74600W        W75464  23.192  24.605  18.715 -0.0929  0.0972 -0.1200
74601W        W75465  23.328  22.970  17.099 -0.3099 -0.1646 -0.1293
74602W        W75466  25.184  22.863  18.881  0.0385 -0.0662  0.2878
74603W        W75467  24.076  22.214  18.616 -0.1822  0.0169 -0.0723
74604W        W75468  25.182  22.214  18.962 -0.2169 -0.1388  0.1950
74605W        W75469  20.296  22.999  18.643 -0.0625 -0.0598 -0.2940
74606W        W75470  21.036  25.522  18.015 -0.2162  0.5644  0.0587
74607W        W75471  22.575  24.712  20.024  0.0765 -0.1297 -0.3813
74608W        W75472  22.052  23.691  15.998  0.2357  0.2545 -0.4330
74609W        W75473  26.320  22.511  17.974 -0.1286 -0.1348 -0.0644
74610W        W75474  24.805  20.580  16.720 -0.0294  0.0477 -0.3134
74611W        W75475  23.076  23.939  19.244 -0.0512 -0.2925 -0.0500
74612W        W75476  24.010  25.203  15.395 -0.3012 -0.2699 -0.0764
74613W        W75477  25.566  23.068  17.669 -0.1602 -0.2291  0.1774
74614W        W75478  25.935  21.018  15.384 -0.2617  0.0722 -0.0312
74615W        W75479  25.393  26.410  16.269  0.0616 -0.2091 -0.1382
74616W        W75480  22.311  22.867  18.489 -0.0359 -0.1137  0.3199
74617W        W75481  21.051  23.983  16.213  0.3181  0.0450  0.0416
74618W        W75482  24.192  22.876  16.089  0.0230  0.1652 -0.0066
74619W        W75483  22.075  24.405  15.695 -0.2665  0.6123 -0.3276
74620W        W75484  23.683  26.598  16.978 -0.0012  0.0107  0.2721
74621W        W75485  24.255  22.343  16.664  0.2460 -0.3972 -0.4126
74622W        W75486  23.392  22.789  15.704  0.3690 -0.0348  0.0762
74623W        W75487  23.683  22.588  16.063  0.1662  0.1752  0.1445
74624W        W75488  25.246  24.218  18.494  0.0194 -0.2835  0.1418
74625W        W75489  24.706  19.227  14.907 -0.0394  0.0325 -0.1926
74626W        W75490  22.479  22.651  14.659  0.0943  0.0856 -0.1450
74627W        W75491  26.584  24.932  17.480  0.1921  0.4190 -0.0601
74628W        W75492  22.565  24.733  12.819  0.1699 -0.3669 -0.0532
74629W        W75493  24.286  24.564  15.932  0.0610 -0.1117  0.3472
74630W        W75494  21.103  25.219  16.399  0.0032 -0.2747  0.4102
74631W        W75495  19.502  23.701  17.512 -0.1868  0.2341  0.0971
74632W        W75496  21.224  23.829  18.103  0.0051 -0.0702 -0.0144
74633W        W75497  21.779  21.502  16.084 -0.1636  0.1536 -0.3341
74634W        W75498  22.263  26.561  17.035 -0.2138  0.2659 -0.3537
74635W        W75499  23.315  19.413  16.134 -0.1227  0.1196 -0.1358
74636W        W75500  22.644  20.782  16.880 -0.2480 -0.0713  0.1952
74637W        W75501  20.902  21.553  16.521 -0.2344 -0.1884 -0.0115
74638W        W75502  23.359  22.682  18.314  0.0003 -0.0955  0.0878
74639W        W75503  22.669  25.251  15.721 -0.0850 -0.0708 -0.1147
74640W        W75504  25.486  22.406  15.677 -0.1008 -0.3133  0.2776
74641W        W75505  23.006  23.148  16.556 -0.1306 -0.1435  0.2357
74642W        W75506  23.339  23.634  18.894 -0.2970 -0.0612  0.1336
74643W        W75507  22.466  22.434  17.185  0.2560 -0.1014  0.1292
74644W        W75508  23.338  23.986  16.298  0.0215 -0.3374  0.3812
74645W        W75509  21.929  23.698  16.509  0.0983 -0.0438 -0.0622
74646W        W75510  23.365  23.836  17.128  0.0437 -0.1628  0.3085
74647W        W75511  23.452  24.459  16.445 -0.1579 -0.1918  0.1257
74648W        W75512  21.430  24.682  11.142  0.0763 -0.3272 -0.0438
74649W        W75513  23.069  23.067  17.907 -0.0339  0.1100  0.3962
74650W        W75514  23.572  23.189  20.385  0.1066  0.2312 -0.0362
74651W        W75515  22.405  26.263  16.013  0.2496  0.0720 -0.0803
74652W        W75516  25.307  21.752  19.732 -0.1911  0.0961  0.2223
74653W        W75517  27.346  24.283  20.181 -0.1378  0.1079  0.1397
74654W        W75518  26.783  21.754  17.515  0.1588 -0.2383 -0.0373
74655W        W75519  25.454  25.519  15.961  0.0636  0.0332  0.0294
74656W        W75520  23.688  26.091  13.384 -0.0212  0.3029 -0.1826
74657W        W75521  23.251  22.693  19.212 -0.1550 -0.2917  0.1390
74658W        W75522  20.977  26.474  16.717 -0.0229  0.2717 -0.1432
74659W        W75523  27.254  21.739  17.272 -0.1220  0.1764  0.3061
74660W        W75524  24.048  23.147  14.542 -0.1327 -0.0178  0.1173
74661W        W75525  24.806  25.277  20.621  0.0388 -0.0244  0.1258
74662W        W75526  23.953  22.396  15.122  0.0135 -0.1039  0.3394
74663W        W75527  24.823  23.996  13.333 -0.0477  0.1103  0.0778
74664W        W75528  24.290  22.343  19.685  0.0697 -0.2263  0.1520
74665W        W75529  23.966  24.344  18.849  0.0954 -0.1171  0.2434
74666W        W75530  25.974  22.967  18.938  0.1602 -0.1116  0.0970
74667W        W75531  23.091  26.250  14.837 -0.0351  0.1700  0.0894
74668W        W75532  24.470  24.318  18.786 -0.0475  0.0220 -0.2306
74669W        W75533  21.694  19.387  19.778  0.3351 -0.0437  0.0892
74670W        W75534  25.698  23.735  20.121  0.0258 -0.0838  0.2298
74671W        W75535  23.924  27.599  15.329 -0.0616 -0.0721  0.0538
74672W        W75536  25.967  24.736  16.134 -0.1660 -0.2040 -0.1949
74673W        W75537  20.918  24.187  17.088  0.2281  0.2597  0.0301
74674W        W75538  25.468  25.379  16.467 -0.3423 -0.2273 -0.1231
74675W        W75539  25.699  20.608  15.942  0.0821 -0.0618 -0.2201
74676W        W75540  22.629  22.046  17.472  0.3154 -0.2330  0.0820
74677W        W75541  25.862  26.154  16.350 -0.2134 -0.0272 -0.0758
74678W        W75542  26.602  24.418  18.759  0.0437  0.1499  0.2839
74679W        W75543  22.413  24.440  14.791  0.0114  0.1145 -0.1325
74680W        W75544  21.998  24.915  15.853 -0.0700  0.0405  0.0319
74681W        W75545  21.151  23.568  20.306  0.1314 -0.1793  0.0189
74682W        W75546  21.348  24.272  17.880  0.0409 -0.0853  0.1610
74683W        W75547  22.193  23.910  15.578 -0.0389  0.0249 -0.0403
74684W        W75548  24.722  25.200  15.940  0.0892  0.0237 -0.0609
74685W        W75549  25.025  25.517  15.634  0.2058  0.0409 -0.0983
74686W        W75550  22.958  23.098  20.852  0.1690 -0.2107 -0.1685
74687W        W75551  25.390  24.390  17.167 -0.4984  0.0171  0.2751
74688W        W75552  21.069  22.437  12.853  0.4567  0.2673  0.1621
74689W        W75553  21.921  25.021  16.459  0.1866 -0.2405  0.1353
74690W        W75554  24.501  26.702  19.627 -0.2226 -0.1738 -0.2310
74691W        W75555  25.116  25.502  19.543 -0.1256 -0.2627  0.4575
74692W        W75556  23.825  21.442  16.336 -0.0643 -0.0021  0.1537
74693W        W75557  22.435  23.292  14.915 -0.0212  0.0330  0.4834
74694W        W75558  25.594  23.112  16.213  0.2209  0.0002 -0.2244
74695W        W75559  24.832  22.680  15.620  0.3518 -0.0359 -0.3741
74696W        W75560  22.783  20.597  17.377 -0.0556  0.1969 -0.0504
74697W        W75561  24.983  22.614  18.440 -0.1741  0.1331 -0.1183
74698W        W75562  24.470  21.410  16.291  0.0631  0.0810 -0.1295
74699W        W75563  23.774  25.914  16.247  0.2537  0.0913 -0.3884
74700W        W75564  21.593  22.319  17.335  0.1628  0.0423  0.1289
74701W        W75565  24.260  23.960  18.501 -0.1753  0.1971  0.1499
74702W        W75566  22.063  23.097  17.385 -0.1515 -0.1236 -0.0626
74703W        W75567  25.055  25.548  16.288  0.1942 -0.0908 -0.0998
74704W        W75568  23.138  23.747  18.477  0.3131 -0.1842  0.0450
74705W        W75569  22.761  26.659  17.415 -0.1911  0.0282 -0.1404
74706W        W75570  23.641  25.869  20.340  0.1019 -0.0988 -0.2207
74707W        W75571  21.761  24.133  16.624 -0.3048  0.0651  0.0712
74708W        W75572  26.304  24.122  17.440 -0.2506  0.0168  0.0215
74709W        W75573  24.955  23.286  15.542 -0.1512 -0.2052 -0.1960
74710W        W75574  24.745  24.723  18.932 -0.2693 -0.0647  0.2345
74711W        W75575  23.867  23.126  16.933 -0.1223 -0.5226  0.0754
74712W        W75576  21.407  24.353  16.297  0.0163  0.0126 -0.0913
74713W        W75577  24.822  22.632  19.834  0.0298  0.0022 -0.2416
74714W        W75578  25.160  21.692  16.305  0.0129 -0.0780 -0.0254
74715W        W75579  24.070  24.615  17.216 -0.1940 -0.2033 -0.2355
74716W        W75580  21.458  25.012  18.707 -0.2728  0.0006  0.0994
74717W        W75581  21.309  26.360  14.465 -0.1163 -0.2508  0.0082
74718W        W75582  24.160  24.670  17.828  0.0673  0.3564  0.1537
74719W        W75583  22.599  23.787  17.072  0.1287  0.0528  0.0983
74720W        W75584  23.209  23.047  15.293 -0.0732 -0.2346 -0.1944
74721W        W75585  23.062  22.531  15.350  0.1798  0.1764 -0.1708
74722W        W75586  22.795  25.822  17.553 -0.3696 -0.2196 -0.1495
74723W        W75587  25.018  25.025  16.458  0.0145 -0.1412  0.1477
74724W        W75588  25.192  19.464  16.947 -0.1111 -0.4641 -0.0905
74725W        W75589  20.513  24.402  15.613 -0.0231 -0.0683  0.1747
74726W        W75590  22.706  21.762  19.546  0.1647 -0.1800 -0.1184
74727W        W75591  29.071  21.757  18.660  0.0847  0.0652  0.0757
74728W        W75592  25.649  24.686  15.313 -0.2190 -0.0147  0.4372
74729W        W75593  24.039  23.605  15.050  0.1083 -0.1983  0.0447
74730W        W75594  24.538  22.112  17.675 -0.1500  0.3054 -0.1740
74731W        W75595  24.355  26.575  17.354 -0.0087 -0.0124 -0.1600
74732W        W75596  22.955  23.673  17.406 -0.2956 -0.1477  0.0366
74733W        W75597  23.827  23.689  17.099  0.0062  0.0107 -0.2679
74734W        W75598  24.502  25.492  17.352 -0.2006 -0.1401 -0.0086
74735W        W75599  23.902  22.064  17.049  0.1227  0.0375  0.0658
74736W        W75600  25.312  26.907  16.416  0.0389 -0.0817 -0.1640
74737W        W75601  25.493  18.182  17.307 -0.0921  0.0507  0.2495
74738W        W75602  20.836   0.262  16.691  0.1962  0.2892  0.0545
74739W        W75603  21.031  26.834  18.017 -0.1726 -0.0694  0.0304
74740W        W75604  23.412  18.565  15.272  0.0089 -0.1910 -0.1437
74741W        W75605  25.657  23.171  18.141 -0.1268  0.0337  0.1470
74742W        W75606  26.318  24.608  17.254  0.2942 -0.1248 -0.0091
74743W        W75607  24.141  24.955  14.952 -0.0482  0.0238 -0.2263
74744W        W75608  24.813  24.623  17.921 -0.3855 -0.3998 -0.0187
74745W        W75609  23.914  24.947  18.179  0.0118  0.1671  0.0352
74746W        W75610  23.357  21.407  17.315  0.3766  0.2180  0.5167
74747W        W75611  23.366  22.288  15.767  0.0905  0.1163  0.1584
74748W        W75612  18.738  25.174  14.967 -0.0872  0.1913 -0.0193
74749W        W75613  22.537  23.886  17.585  0.0205 -0.3303  0.1531
74750W        W75614  22.708  22.805  19.928  0.1361  0.2845  0.0065
74751W        W75615  23.646  22.765  15.220 -0.1070  0.1542 -0.1159
74752W        W75616  21.973  26.308  17.372 -0.2276 -0.0943  0.0256
74753W        W75617  22.531  27.194  16.058 -0.1347  0.1009  0.0416
74754W        W75618  21.870  25.699  18.077  0.0408 -0.0831  0.0104
74755W        W75619  24.192  23.227  16.438  0.1746  0.2929  0.0416
74756W        W75620  24.005  22.019  15.628  0.1751 -0.3129  0.0579
74757W        W75621  23.299  27.046  18.541 -0.0879  0.1711 -0.1074
74758W        W75622  21.690  21.387  16.682  0.4796 -0.2390 -0.1231
74759W        W75623  22.646  25.277  18.150 -0.1248  0.0188 -0.0410
74760W        W75624  23.191  24.977  13.596  0.1815  0.1368 -0.0908
74761W        W75625  23.882  22.857  17.903  0.1876  0.4562  0.0667
74762W        W75626  24.488  25.590  15.935 -0.0013  0.0403  0.0536
74763W        W75627  21.404  24.249  17.396  0.2876  0.0429  0.0443
74764W        W75628  19.754  19.599  19.261  0.2029  0.1877 -0.0390
74765W        W75629  21.094  26.395  15.718 -0.3310 -0.0984 -0.3313
74766W        W75630  22.988  22.053  15.494  0.1685  0.2004 -0.2926
74767W        W75631  21.039  23.321  15.085  0.0019 -0.1223  0.0682
74768W        W75632  21.697  21.200  18.554  0.0689  0.0910  0.0906
74769W        W75633  23.417  19.717  16.887 -0.0287  0.0395  0.2083
74770W        W75634  26.516  23.812  20.348  0.1232 -0.1371 -0.3412
74771W        W75635  22.372  26.052  20.700 -0.0315  0.1278  0.3711
74772W        W75636  24.388  24.920  18.198  0.1554  0.0091 -0.3361
74773W        W75637  27.668  25.290  20.240 -0.2203  0.1237 -0.2352
74774W        W75638  24.366  24.469  21.070  0.2288  0.3194 -0.0298
74775W        W75639  25.693  23.849  14.743 -0.2138  0.0257  0.0655
74776W        W75640  24.980  25.034  15.461  0.0702 -0.2466 -0.0708
74777W        W75641  24.294  23.403  16.891 -0.2406 -0.1916 -0.0304
74778W        W75642  22.830  25.093  16.892  0.0355 -0.1653  0.1154
74779W        W75643  22.380  22.356  19.455 -0.3495 -0.0923 -0.2465
74780W        W75644  22.290  20.735  18.859 -0.0579  0.1914  0.2897
74781W        W75645  25.709  25.820  14.965  0.0583  0.1458  0.1947
74782W        W75646  22.898  24.279  16.295 -0.0638 -0.0301  0.0666
74783W        W75647  23.659  21.399  17.770 -0.1586  0.0168 -0.2436
74784W        W75648  23.088  20.758  15.904  0.0727  0.0368 -0.1326
74785W        W75649  24.739  24.089  21.239  0.1412 -0.1175  0.0315
74786W        W75650  22.765  23.390  16.224  0.0020 -0.1797  0.0999
74787W        W75651  23.717  23.596  18.063  0.2495 -0.2476  0.0010
74788W        W75652  24.594  23.039  17.292  0.0694  0.5227  0.3192
74789W        W75653  26.957  24.503  17.854 -0.2531 -0.1346 -0.2996
74790W        W75654  24.691  24.478  13.258  0.1181  0.0017 -0.0429
74791W        W75655  23.833  24.991  16.877  0.3442  0.0517 -0.0297
74792W        W75656  23.971  23.720  15.569  0.0515  0.1581 -0.0412
74793W        W75657  22.025  26.078  15.552 -0.1830 -0.0222  0.0775
74794W        W75658  27.131  23.754  17.119 -0.0716  0.2191  0.0702
74795W        W75659  23.071  21.681  16.874  0.0083  0.1980 -0.1591
74796W        W75660  24.517  24.834  15.601  0.1012  0.2702 -0.2456
74797W        W75661  23.413  22.476  17.857  0.1919 -0.0076 -0.0521
74798W        W75662  26.057  23.486  17.729 -0.3388  0.0010 -0.2765
74799W        W75663  21.026  24.632  18.201  0.1426  0.3772 -0.0893
74800W        W75664  23.817  21.773  18.132 -0.3262  0.1614 -0.2336
74801W        W75665  25.634  23.582  16.305  0.2133  0.0014  0.0256
74802W        W75666  24.760  24.108  18.392  0.2712  0.1683 -0.1295
74803W        W75667  24.364  25.029  17.206 -0.1039 -0.1993  0.0114
74804W        W75668  23.756  23.766  17.600  0.1813  0.1533  0.1456
74805W        W75669  21.563  26.142  15.955  0.0311 -0.0008  0.1591
74806W        W75670  26.218  22.061  13.820  0.0565  0.0254 -0.3532
74807W        W75671  24.059  23.518  14.071 -0.0192  0.2139 -0.0150
74808W        W75672  24.977  22.565  14.424  0.0014 -0.1010  0.1251
74809W        W75673  21.971  26.000  10.999  0.2456 -0.0240  0.0846
74810W        W75674  26.581  22.818  19.098  0.2118 -0.0823 -0.1022
74811W        W75675  25.998  23.286  16.402 -0.0603  0.0727 -0.1268
74812W        W75676  20.419  19.982  17.161  0.0836 -0.1007 -0.1045
74813W        W75677  23.420  25.823  19.473 -0.0228  0.2506  0.2072
74814W        W75678  27.365  25.016  16.835 -0.1325  0.0683  0.1269
74815W        W75679  23.992  22.744  16.528  0.1755 -0.0275 -0.2972
74816W        W75680  22.252  21.964  17.105 -0.0041 -0.1654 -0.1622
74817W        W75681  23.604  22.006  18.487 -0.2054 -0.1353  0.0611
74818W        W75682  21.648  24.352  14.415 -0.2050 -0.1061  0.0391
74819W        W75683  24.149  24.076  17.596 -0.1775  0.0544 -0.3457
74820W        W75684  24.469  24.263  18.004  0.2783 -0.1390 -0.2271
74821W        W75685  25.053  22.183  19.682 -0.1494  0.0760  0.0249
74822W        W75686  25.085  23.710  18.152 -0.2546  0.0758  0.2010
74823W        W75687  25.099  24.553  15.663 -0.1671 -0.2412 -0.2464
74824W        W75688  23.345  24.086  17.548 -0.0651  0.2567 -0.3878
74825W        W75689  21.155  23.750  13.416 -0.0223  0.1709  0.1196
74826W        W75690  27.957  25.563  15.752  0.3842 -0.1098 -0.1689
74827W        W75691  25.848  23.275  17.361  0.2060  0.2801  0.1981
74828W        W75692  20.589  26.869  16.068 -0.1615  0.0784  0.0466
74829W        W75693  22.515  22.237  15.656  0.1127 -0.0327  0.1518
74830W        W75694  23.642  23.968  19.245 -0.6570  0.2555  0.1132
74831W        W75695  20.241  23.317  14.715  0.4172 -0.0174  0.1189
74832W        W75696  24.970  21.887  17.893 -0.0713 -0.0291  0.1735
74833W        W75697  24.764  25.274  14.189  0.0189  0.0921  0.0676
74834W        W75698  24.285  23.458  17.362  0.0056 -0.1802  0.0571
74835W        W75699  23.334  25.818  16.933 -0.1152  0.3960  0.2356
74836W        W75700  20.684  23.628  16.094 -0.0985  0.0962 -0.1832
74837W        W75701  21.957  22.973  24.951 -0.4368 -0.4226  0.0538
74838W        W75702  23.492  28.018  21.840  0.1960  0.2635 -0.0919
74839W        W75703  25.989  21.094  16.851  0.0536 -0.0327  0.4426
74840W        W75704  22.306  24.954  20.764  0.3969 -0.0142  0.1915
74841W        W75705  24.039  24.526  20.095  0.0054 -0.2005  0.0552
74842W        W75706  22.953  23.432  16.973 -0.1396 -0.2995 -0.0535
74843W        W75707  23.541  22.640  20.141 -0.2605 -0.0944  0.3152
74844W        W75708  25.026  23.088  21.017 -0.0910 -0.4246 -0.0904
74845W        W75709  22.543  25.406  21.946  0.0963 -0.1540  0.0609
74846W        W75710  21.151  23.040  23.529  0.2065  0.0332 -0.0459
74847W        W75711  21.949  24.835  22.548 -0.0001 -0.2657 -0.1066
74848W        W75712  25.580  22.249  17.289  0.0896 -0.0803 -0.2504
74849W        W75713  24.796  22.621  18.932 -0.2308 -0.1926 -0.3201
74850W        W75714  28.100  28.579  22.830  0.3524  0.0533  0.1162
74851W        W75715  23.248  21.013  19.265  0.1579  0.0514  0.1213
74852W        W75716  21.666  24.187  23.112  0.1792  0.2664  0.0151
74853W        W75717  23.851  24.782  19.190  0.0918 -0.2847  0.0633
74854W        W75718  22.439  23.954  20.895  0.0168  0.0168  0.2487
74855W        W75719  23.800  25.327  21.294  0.0073  0.5504  0.1262
74856W        W75720  27.602  21.792  23.025  0.0659  0.2536 -0.0949
74857W        W75721  24.620  22.608  19.387 -0.0917  0.0804  0.1181
74858W        W75722  24.128  25.221  17.767  0.0689 -0.0907 -0.2331
74859W        W75723  22.987  22.579  20.986  0.1457 -0.3470  0.0419
74860W        W75724  25.273  22.122  20.919  0.0155 -0.4738 -0.3816
74861W        W75725  25.015  21.778  19.256  0.0459  0.0036 -0.2372
74862W        W75726  21.846  24.113  20.981  0.0589  0.2734 -0.1185
74863W        W75727  26.718  24.448  21.666 -0.2223  0.1113 -0.0119
74864W        W75728  26.231  25.119  21.201 -0.2787 -0.0983  0.0987
74865W        W75729  21.445  26.043  21.118  0.0819  0.1661 -0.0610
74866W        W75730  24.989  20.377  21.357  0.0617  0.0549 -0.0493
74867W        W75731  25.364  22.903  21.353  0.2317 -0.0874 -0.0330
74868W        W75732  24.081  25.611  22.079 -0.1834 -0.0831  0.0319
74869W        W75733  23.400  28.050  22.361  0.1410  0.0878 -0.0621
74870W        W75734  23.384  25.044  22.875  0.1346  0.2061  0.1577
74871W        W75735  22.337  21.704  21.988 -0.2904 -0.3471  0.3055
74872W        W75736  26.013  24.193  21.291  0.1698  0.3051  0.0048
74873W        W75737  24.410  22.781  20.915 -0.0302 -0.0826  0.1642
74874W        W75738  25.384  25.040  19.768 -0.0065 -0.2751  0.2045
74875W        W75739  26.344  24.139  21.696  0.2339  0.0948 -0.0726
74876W        W75740  24.441  24.564  23.621  0.0392  0.1739  0.0665
74877W        W75741  25.940  22.493  17.589  0.1729 -0.2023 -0.2279
74878W        W75742  25.395  24.254  21.548 -0.3313 -0.3197 -0.2373
74879W        W75743  22.772  27.301  21.761  0.3126 -0.1060  0.2123
74880W        W75744  27.007  24.746  18.584 -0.1387  0.1034 -0.1032
74881W        W75745  22.193  22.264  21.005 -0.0358 -0.3087 -0.0097
74882W        W75746  24.405  22.319  22.608  0.1108 -0.1129 -0.0051
74883W        W75747  24.838  24.494  23.883 -0.1387 -0.0395  0.0216
74884W        W75748  23.556  26.313  17.709  0.1824 -0.0235  0.1930
74885W        W75749  24.202  24.807  18.835 -0.0819  0.2735  0.0474
74886W        W75750  24.080  23.956  20.220 -0.2104 -0.2510  0.0146
74887W        W75751  24.794  21.903  18.810  0.2073 -0.3405 -0.4182
74888W        W75752  22.679   0.463  22.094  0.0537  0.2515  0.0875
74889W        W75753  24.989  19.998  17.860  0.0293  0.3296 -0.0110
74890W        W75754  24.717  20.934  17.966  0.3253 -0.1440  0.2190
74891W        W75755  22.304  22.846  19.627  0.1226  0.2255  0.0209
74892W        W75756  21.182  25.654  17.353 -0.4188  0.1125 -0.0982
74893W        W75757  25.842  23.486  19.092 -0.0727  0.2329  0.1480
74894W        W75758  20.911  25.971  21.297 -0.0189 -0.2272  0.0934
74895W        W75759  25.378  24.538  20.456  0.2689  0.1153 -0.0106
74896W        W75760  25.976  24.946  17.223 -0.0455 -0.0540  0.1706
74897W        W75761  24.022  26.197  21.153 -0.2108  0.2800  0.0834
74898W        W75762  25.590  26.004  21.445 -0.1181  0.1264  0.1992
74899W        W75763  24.662  25.353  21.149  0.1055 -0.4653 -0.3045
74900W        W75764  22.918  24.836  20.869 -0.1512  0.0169  0.1920
74901W        W75765  25.781  21.872  22.044 -0.0779 -0.3363  0.0914
74902W        W75766  22.885  26.054  17.005  0.2384 -0.1684  0.2241
74903W        W75767  23.273  22.330  18.758  0.3253 -0.0567 -0.1848
74904W        W75768  23.776  22.811  22.115 -0.3696 -0.2495  0.2885
74905W        W75769  22.871  23.566  18.959 -0.2197 -0.1042  0.1239
74906W        W75770  25.405  25.634  23.818  0.1082  0.0351  0.1212
74907W        W75771  23.734  22.340  19.704 -0.1980  0.0236  0.0520
74908W        W75772  24.060  25.897  20.694  0.1150 -0.2494 -0.1131
74909W        W75773  22.523  25.066  23.677  0.0348  0.0374 -0.0302
74910W        W75774  24.581  24.343  17.011  0.0163 -0.1130 -0.2041
74911W        W75775  27.265  22.714  23.919 -0.0064 -0.1386 -0.0529
74912W        W75776  21.857  24.962  19.446 -0.2720 -0.0773 -0.1249
74913W        W75777  25.740  23.161  20.060  0.1009 -0.2396  0.2293
74914W        W75778  25.696  23.406  16.821  0.0395  0.3511  0.2086
74915W        W75779  23.284  23.653  17.749 -0.3711 -0.0652 -0.0483
74916W        W75780  23.933  22.992  18.955  0.0167 -0.0589 -0.2803
74917W        W75781  23.192  24.928  22.435  0.0756  0.1870  0.0663
74918W        W75782  21.409  22.436  20.099 -0.5831 -0.0831  0.1219
74919W        W75783  23.899  22.532  21.624 -0.0025 -0.0889  0.1585
74920W        W75784  23.936  23.612  23.183 -0.0585  0.3224 -0.0310
74921W        W75785  22.182  21.304  18.006  0.1735 -0.1778 -0.0269
74922W        W75786  25.705  24.784  23.601 -0.0897  0.4139 -0.0703
74923W        W75787  23.522  23.353  23.967 -0.2428  0.0788 -0.2121
74924W        W75788  24.906  22.381  17.867 -0.0907  0.2313 -0.0590
74925W        W75789  25.862  23.088  23.910  0.0197  0.0227 -0.1070
74926W        W75790  23.861  20.586  21.098 -0.0900 -0.0814  0.0236
74927W        W75791  27.085  23.587  21.432 -0.3015  0.0151 -0.2724
74928W        W75792  22.713  23.371  19.951  0.0956  0.1732  0.3767
74929W        W75793  24.786  23.915  16.334 -0.1301 -0.0006  0.0785
74930W        W75794  21.391  20.029  20.926 -0.0876 -0.0683  0.2088
74931W        W75795  24.443  21.347  18.246  0.3409  0.2112  0.0450
74932W        W75796  23.778  24.177  17.245 -0.2026 -0.1227  0.0398
74933W        W75797  22.126  22.895  20.660  0.1299 -0.1266  0.3050
74934W        W75798  21.469  22.982  18.704  0.1658  0.0660  0.0050
74935W        W75799  24.912  22.480  22.689  0.1305  0.1503  0.0539
74936W        W75800  25.512  26.826  18.665  0.2053 -0.1069  0.2502
74937W        W75801  22.238  22.801  22.238  0.1700 -0.1494  0.3813
74938W        W75802  22.870  23.632  18.068 -0.0805  0.2114 -0.0348
74939W        W75803  27.691  23.476  19.143 -0.1518 -0.1563 -0.0672
74940W        W75804  26.348  23.079  21.527  0.1043  0.1487  0.2609
74941W        W75805  21.661  23.817  18.820 -0.0250 -0.3370  0.0777
74942W        W75806  25.314  22.992  19.725  0.0456 -0.2128 -0.0405
74943W        W75807  24.524  23.814  20.860  0.0595 -0.4195 -0.1330
74944W        W75808  24.036  24.025  20.755  0.0491 -0.0995 -0.1693
74945W        W75809  22.260  23.076  21.380  0.1008 -0.0246  0.0310
74946W        W75810  20.876  24.459  24.020 -0.2258 -0.1038 -0.0468
74947W        W75811  22.463  23.180  20.776  0.0086  0.0775  0.0596
74948W        W75812  26.361  24.316  20.387 -0.0444  0.1059  0.3619
74949W        W75813  24.508  25.644  20.744  0.0445  0.1136 -0.0582
74950W        W75814  23.263  24.914  19.387  0.2354 -0.1605  0.0910
74951W        W75815  23.157  21.549  19.471  0.0270  0.1426 -0.1834
74952W        W75816  27.182  23.494  21.990 -0.0696  0.2924 -0.0211
74953W        W75817  24.311  22.604  21.922  0.0764 -0.0441 -0.3587
74954W        W75818  20.949  21.538  23.087 -0.2261  0.1420 -0.0303
74955W        W75819   0.579  21.974  20.310  0.1864 -0.2296 -0.1094
74956W        W75820  25.986  23.123  19.497 -0.2002  0.0245 -0.0350
74957W        W75821  25.414  24.682  20.996  0.0417 -0.1515 -0.1386
74958W        W75822  23.262  24.309  19.591 -0.0178 -0.3267 -0.1350
74959W        W75823  26.486  24.600  21.262 -0.1258 -0.4222  0.3764
74960W        W75824  22.079  21.259  18.896 -0.0519  0.0598 -0.2081
74961W        W75825  24.324  22.597  21.414 -0.0225  0.3580  0.3585
74962W        W75826  21.256  25.624  20.773  0.3812  0.1465  0.1331
74963W        W75827  24.875  26.372  20.971  0.0610  0.1539 -0.0798
74964W        W75828  26.894  25.822  20.993  0.1661 -0.1177  0.1370
74965W        W75829  23.771  24.278  20.416  0.0758 -0.3571 -0.4947
74966W        W75830  26.664  23.681  22.220  0.1629 -0.4897 -0.3469
74967W        W75831  27.183  21.838  24.031 -0.0863 -0.0021  0.1167
74968W        W75832  23.339  23.528  21.789  0.1678  0.3014 -0.0082
74969W        W75833  27.971  22.618  19.324 -0.1611 -0.0846 -0.2535
74970W        W75834  24.618  24.317  22.068  0.0784 -0.1828  0.3462
74971W        W75835  21.403  21.068  22.364  0.1880 -0.0518 -0.3391
74972W        W75836  26.959  22.484  19.050  0.2914  0.1034  0.0072
74973W        W75837  25.159  22.410  23.177 -0.1438 -0.1250 -0.1903
74974W        W75838  25.950  23.975  20.512 -0.0163 -0.2040 -0.3386
74975W        W75839  24.637  25.422  19.535  0.1486 -0.0747 -0.0548
74976W        W75840  22.520  24.053  18.201  0.1199  0.2702 -0.1061
74977W        W75841  24.145  21.046  21.922 -0.0223  0.3753 -0.3090
74978W        W75842  23.404  26.292  18.204 -0.2234  0.4067 -0.0311
74979W        W75843  20.796  23.441  21.091 -0.0449 -0.3114  0.3227
74980W        W75844  23.087  23.185  23.090 -0.0065  0.1901 -0.0742
74981W        W75845  20.786  23.110  17.837 -0.2663 -0.1640 -0.0861
74982W        W75846  25.133  21.144  22.653  0.0057  0.0966  0.0557
74983W        W75847  22.112  24.350  18.445 -0.1329  0.0984  0.1310
74984W        W75848  24.183  24.880  20.368  0.2062 -0.1932 -0.2225
74985W        W75849  24.546  23.295  21.764  0.1928  0.0762  0.0331
74986W        W75850  26.261  25.548  19.502  0.1304  0.0584  0.1013
74987W        W75851  25.292  22.801  18.013  0.1317  0.3508 -0.1640
74988W        W75852  24.529  26.913  22.335  0.0927 -0.2199 -0.1457
74989W        W75853  21.072  21.872  17.916  0.0849  0.1183  0.2179
74990W        W75854  24.590  23.348  22.443 -0.5211  0.2475 -0.4286
74991W        W75855  24.793  23.455  23.434  0.2727 -0.0288  0.1668
74992W        W75856  22.703  20.218  22.745 -0.1348 -0.2449 -0.1823
74993W        W75857  25.809  23.846  19.671 -0.1217  0.0379  0.1112
74994W        W75858  20.334  20.063  17.665 -0.0424 -0.1186  0.3661
74995W        W75859  24.316  22.600  18.855  0.0365  0.1645  0.0132
74996W        W75860  23.334  21.269  23.410  0.0164 -0.0794  0.0847
74997W        W75861  21.259  26.190  20.103 -0.1651 -0.1195  0.0288
74998W        W75862  23.753  23.813  22.638 -0.0438  0.0380 -0.1944
74999W        W75863  27.081  25.056  20.410  0.3107  0.0279  0.1007
75000W        W75864  22.918  18.818  24.129 -0.1739 -0.1157  0.1223
75001W        W75865  23.801  23.852  21.560  0.0838 -0.4066  0.0588
75002W        W75866  20.932  22.298  18.730  0.5215 -0.2375 -0.1540
75003W        W75867  19.003  24.438  19.752 -0.2472 -0.0522  0.0121
75004W        W75868  23.235  26.553  20.769 -0.0014  0.2939 -0.2701
75005W        W75869  23.673  24.768  20.342  0.0780 -0.2944 -0.2528
75006W        W75870  25.016  23.898  20.560  0.0683  0.1988  0.1197
75007W        W75871  26.191  22.680  19.408  0.1552 -0.1537  0.1104
75008W        W75872  24.598  23.151  20.299  0.0574 -0.1848 -0.2383
75009W        W75873  23.735  23.247  18.582 -0.0137 -0.4368  0.0561
75010W        W75874  24.640  22.208  20.003 -0.0354  0.0638  0.0634
75011W        W75875  25.912  22.271  18.426  0.1228 -0.2686  0.1442
75012W        W75876  23.639  25.421  23.193 -0.0855  0.0693 -0.2449
75013W        W75877  23.239  26.482  21.709 -0.1024  0.1279  0.0146
75014W        W75878  21.040  25.453  18.540 -0.0257  0.1671 -0.0299
75015W        W75879  23.422  22.494  21.579 -0.2505 -0.1352 -0.2339
75016W        W75880  22.924  24.429  19.131  0.3844  0.0809  0.0182
75017W        W75881  24.853  28.917  18.687 -0.3601  0.2771  0.1279
75018W        W75882  23.026  21.711  17.576 -0.2244  0.3361  0.2219
75019W        W75883  23.401  23.542  22.333 -0.1399 -0.0949  0.1832
75020W        W75884  25.426  23.240  19.229 -0.2510 -0.1944 -0.0445
75021W        W75885  23.082  27.043  20.317 -0.0611  0.0475  0.1733
75022W        W75886  24.911  21.241  19.550  0.0282  0.1269  0.0690
75023W        W75887  20.743  23.650  17.860 -0.1664  0.0294  0.2371
75024W        W75888  23.880  24.651  20.751 -0.0256  0.0021  0.2657
75025W        W75889  24.537  27.020  21.218 -0.2964 -0.0042  0.0064
75026W        W75890  23.931  24.324  19.370  0.0787 -0.0965  0.0852
75027W        W75891  22.210  23.938  19.556  0.2129  0.1493  0.1369
75028W        W75892  23.156  26.659  23.375 -0.3699 -0.0774  0.2639
75029W        W75893  24.066  23.613  21.019  0.0323  0.1336  0.2001
75030W        W75894  22.733  24.351  22.523 -0.1661  0.0233  0.3698
75031W        W75895  24.009  23.293  19.534  0.0173 -0.0135  0.3001
75032W        W75896  23.485  22.843  18.778 -0.1670 -0.1277  0.4673
75033W        W75897  23.031  22.460  20.164  0.0275  0.2218 -0.0337
75034W        W75898  24.334  21.861  18.995  0.1357  0.0362 -0.1028
75035W        W75899  23.679  21.951  22.335 -0.3141  0.0103 -0.2712
75036W        W75900  22.839  22.554  18.571  0.2820  0.0385  0.3887
75037W        W75901  22.902  21.790  22.083  0.0340  0.0514 -0.0045
75038W        W75902  25.394  22.302  18.064 -0.2696  0.2112 -0.5112
75039W        W75903  23.947  22.700  20.598 -0.1345 -0.1026 -0.0049
75040W        W75904  25.366  23.194  21.782  0.1501 -0.2236 -0.1284
75041W        W75905  24.673  21.011  19.073 -0.0374  0.3630  0.0011
75042W        W75906  21.303  24.967  20.702  0.0971 -0.0143  0.0749
75043W        W75907  23.976  21.885  19.833  0.0145 -0.0326  0.1366
75044W        W75908  25.195  26.221  17.066  0.2344 -0.1483  0.0212
75045W        W75909  22.663  25.673  20.874 -0.0825 -0.0521  0.0139
75046W        W75910  22.101  24.583  23.241 -0.1046  0.1722  0.1163
75047W        W75911  23.154  24.462  21.117  0.2144 -0.1487  0.1429
75048W        W75912  23.380  22.747  20.652 -0.2343  0.0024 -0.2986
75049W        W75913  25.502  20.185  21.653 -0.1607 -0.2174  0.1730
75050W        W75914  27.876  25.772  20.400 -0.2679 -0.0523 -0.0646
75051W        W75915  26.216  22.791  17.227  0.0818 -0.1103  0.2272
75052W        W75916  24.835  25.977  18.307 -0.2861  0.2408  0.0551
75053W        W75917  25.245  24.666  18.936  0.0500 -0.3242  0.0656
75054W        W75918  24.904  24.130  22.835 -0.2366  0.1111 -0.2494
75055W        W75919  21.252  22.980  23.041 -0.2022 -0.3233 -0.1595
75056W        W75920  22.372  22.149  22.293 -0.2478 -0.1419 -0.3331
75057W        W75921  25.526  25.020  20.630  0.0515  0.0062 -0.1386
75058W        W75922  24.996  24.796  23.347  0.2573 -0.1471 -0.1250
75059W        W75923  25.045  21.739  20.644 -0.0929  0.1585 -0.1840
75060W        W75924  25.388  24.964  16.818  0.1105 -0.2304  0.1781
75061W        W75925  22.746  22.658  24.225  0.0608  0.1395 -0.0518
75062W        W75926  22.768  25.796  23.301 -0.1332  0.3258  0.2034
75063W        W75927  25.108  22.000  20.207  0.2730  0.1427  0.2809
75064W        W75928  25.064  24.968  19.336 -0.0469 -0.0414 -0.0743
75065W        W75929  23.690  22.049  21.473  0.0482 -0.3377  0.0238
75066W        W75930  23.943  22.861  21.183 -0.1563  0.2673  0.0411
75067W        W75931  21.350  24.386  23.957  0.2576 -0.0668 -0.0691
75068W        W75932  24.251  23.461  18.806 -0.3112  0.2601 -0.0247
75069W        W75933  25.380  21.963  17.647 -0.1130 -0.0477 -0.1059
75070W        W75934  24.830  22.228  21.228  0.0209  0.1160  0.3585
75071W        W75935  25.605  23.405  19.697  0.2317 -0.2315 -0.0108
75072W        W75936  27.744  25.036  17.924  0.3129 -0.2088  0.0542
75073W        W75937  24.516  21.729  23.287 -0.0512  0.2105  0.4423
75074W        W75938  23.072  26.919  22.701 -0.2404  0.1406 -0.0445
75075W        W75939  27.485  24.816  20.303  0.1649 -0.1273  0.1131
75076W        W75940  26.405  25.380  20.667 -0.1913 -0.0206 -0.0673
75077W        W75941  20.356  26.527  21.638  0.0140 -0.3395  0.0062
75078W        W75942  21.811  18.929  19.993  0.2482 -0.2871  0.4000
75079W        W75943  20.224  20.390  19.990  0.0684  0.1835 -0.2000
75080W        W75944  23.275  24.046  21.897  0.0992 -0.1417 -0.0096
75081W        W75945  23.863  24.124  16.360 -0.3646  0.1748  0.0598
75082W        W75946  22.386  21.451  20.376 -0.2050 -0.2040  0.2012
75083W        W75947  23.419  23.769  23.116 -0.2640  0.0241 -0.0293
75084W        W75948  24.810  25.197  22.595  0.1132  0.0360  0.2871
75085W        W75949  23.113  21.874  18.638  0.3674  0.1425  0.2926
75086W        W75950  22.575  23.924  21.361  0.0975  0.3274  0.1830
75087W        W75951  21.733  24.266  23.629  0.0415 -0.0052 -0.0105
75088W        W75952  25.466  27.304  22.606 -0.0961 -0.2930 -0.0609
75089W        W75953  22.550  23.963  22.838  0.1067 -0.0552 -0.0420
75090W        W75954  20.591  21.355  21.427 -0.1070  0.0845  0.2005
75091W        W75955  25.468  24.721  21.909  0.2701  0.0845  0.1323
75092W        W75956  25.410  20.725  19.773 -0.2065  0.0512 -0.1348
75093W        W75957  26.394  20.853  21.874 -0.2675 -0.0431  0.0693
75094W        W75958  24.865  23.720  21.900  0.0998  0.0777 -0.0299
75095W        W75959  25.844  23.566  22.253 -0.0215 -0.0340  0.0622
75096W        W75960  24.906  20.260  22.691  0.0301  0.1315 -0.2586
75097W        W75961  23.668  26.584  22.042  0.1857  0.2423  0.3002
75098W        W75962  24.801  22.181  20.576 -0.1749 -0.0727 -0.0002
75099W        W75963  25.229  22.574  23.657  0.2669 -0.5191 -0.1094
75100W        W75964  22.682  24.277  19.746  0.1984  0.0659 -0.1379
75101W        W75965  23.531  22.454  22.551 -0.0013  0.1761  0.2872
75102W        W75966  23.195  23.499  19.457  0.1591  0.0401  0.4200
75103W        W75967  24.914  23.312  18.852  0.1484 -0.0620 -0.1185
75104W        W75968  24.093  21.525  20.155  0.0683  0.0294 -0.1322
75105W        W75969  25.058  21.325  19.044 -0.1514  0.0253 -0.0786
75106W        W75970  24.435  23.010  19.651  0.0317  0.1010 -0.0699
75107W        W75971  26.245  23.239  22.051  0.1346 -0.1962 -0.0079
75108W        W75972  25.900  21.997  18.961 -0.0935  0.1123 -0.0930
75109W        W75973  21.681  25.235  18.136  0.0139 -0.1773  0.0827
75110W        W75974  24.157  24.966  21.227  0.1208 -0.1246 -0.1169
75111W        W75975  25.530  23.495  21.417  0.0640  0.2683  0.0089
75112W        W75976  20.115  23.376  21.296  0.2202  0.0153  0.2719
75113W        W75977  20.525  21.744  20.569 -0.3645 -0.1418  0.2061
75114W        W75978  23.343  24.108  18.782 -0.2831 -0.1675 -0.1184
75115W        W75979  21.924  25.826  22.521  0.0632 -0.4922 -0.0053
75116W        W75980  21.133  27.677  21.088  0.3260  0.5147 -0.0678
75117W        W75981  23.464  23.904  20.239 -0.0711 -0.2667 -0.1760
75118W        W75982  23.232  25.009  21.265 -0.1123 -0.1234 -0.4531
75119W        W75983  19.322  28.116  21.903  0.2574 -0.0094 -0.2489
75120W        W75984  24.977  22.510  20.879 -0.1038 -0.1155 -0.0885
75121W        W75985  28.937  20.373  24.657 -0.0037 -0.0895 -0.0530
75122W        W75986  23.055  25.982  18.073  0.0564  0.1837 -0.0356
75123W        W75987  23.699  24.321  21.849 -0.3537 -0.0320 -0.2373
75124W        W75988  24.453  22.251  20.910  0.1304 -0.0392  0.0142
75125W        W75989  25.471  24.276  19.042  0.0314  0.1842  0.2638
75126W        W75990  20.500  22.208  20.373 -0.0391  0.1679 -0.0738
75127W        W75991  26.392  22.507  18.514  0.1117 -0.0809 -0.0736
75128W        W75992  23.319  21.494  22.211  0.0417 -0.0637 -0.0517
75129W        W75993  21.384  24.038  15.841 -0.1525 -0.1317  0.0437
75130W        W75994  24.717  22.891  21.993 -0.0786 -0.2730 -0.1719
75131W        W75995  25.460  24.639  19.489 -0.1718 -0.2405  0.2268
75132W        W75996  25.306  23.376  20.081  0.0666 -0.5315 -0.1755
75133W        W75997  27.161  25.410  21.205 -0.1191  0.1170 -0.0886
75134W        W75998  26.806  23.911  21.803  0.0633 -0.1402 -0.0196
75135W        W75999  23.407  24.158  21.472  0.1596  0.1812 -0.3661
75136W        W76000  23.655  23.140  19.839  0.0777 -0.0685 -0.0755
75137W        W76001  23.549  21.950  21.000  0.0980  0.1281  0.0245
75138W        W76002  22.527  28.467  23.322 -0.3991 -0.1378  0.0591
75139W        W76003  23.992  22.078  19.323  0.3822 -0.1271  0.0873
75140W        W76004  25.063  25.024  18.675 -0.1421 -0.1613 -0.1746
75141W        W76005  24.217  23.600  20.486  0.0054 -0.4911 -0.1486
75142W        W76006  24.989  23.291  22.134 -0.1028 -0.0375  0.1668
75143W        W76007  24.493  21.415  18.798 -0.0075 -0.1741 -0.3449
75144W        W76008  27.415  21.890  17.793 -0.2412 -0.4508  0.4261
75145W        W76009  21.726  21.647  19.732  0.2657 -0.4079 -0.2502
75146W        W76010  21.195  22.670  18.957  0.2415 -0.0261 -0.0388
75147W        W76011  22.472  22.640  20.905 -0.1763  0.0732 -0.1005
75148W        W76012  21.906  23.137  18.374  0.1794 -0.0246 -0.0145
75149W        W76013  26.410  25.680  21.101  0.1606  0.2529  0.0735
75150W        W76014  24.038  23.036  20.283  0.1535  0.1529 -0.1094
75151W        W76015  20.715  26.418  22.474 -0.3469  0.0013  0.0018
75152W        W76016  18.080  23.414  19.698 -0.1176  0.0173 -0.3698
75153W        W76017  25.761  22.662  18.042  0.3078  0.0038 -0.1719
75154W        W76018  24.408  23.186  21.269  0.3375  0.1115 -0.1661
75155W        W76019  20.955  25.069  17.828  0.2701  0.0837  0.1610
75156W        W76020  23.665  24.249  21.090 -0.1710  0.0165  0.2380
75157W        W76021  22.756  24.888  19.022  0.0019  0.2681 -0.0852
75158W        W76022  22.446  24.539  21.702 -0.2497  0.3203 -0.1516
75159W        W76023  26.507  22.599  22.686 -0.0885 -0.0605  0.1181
75160W        W76024  21.913  22.313  20.416  0.0364 -0.0560  0.1636
75161W        W76025  23.206  26.176  23.272 -0.1281 -0.0768 -0.1150
75162W        W76026  21.824  24.424  17.623  0.1202 -0.1290  0.2315
75163W        W76027  25.553  21.889  20.584  0.6578 -0.2713 -0.1939
75164W        W76028  23.893  23.395  22.442  0.1068 -0.2479  0.0741
75165W        W76029  23.394  24.377  20.082 -0.2691  0.1511 -0.0348
75166W        W76030  23.787  23.370  21.933 -0.2343 -0.0219  0.0028
75167W        W76031  25.365  22.878  20.289  0.0810  0.0060  0.1541
75168W        W76032  22.385  26.478  20.969 -0.2408 -0.1950  0.1577
75169W        W76033  22.614  26.909  22.356 -0.2900  0.0084  0.1505
75170W        W76034  26.266  23.226  20.965  0.1336 -0.3256 -0.2409
75171W        W76035  26.233  25.505  21.673 -0.0406 -0.0738  0.2072
75172W        W76036  20.862  25.073  19.652  0.3202  0.0195 -0.3015
75173W        W76037  26.183  22.166  20.279  0.0242  0.0695 -0.1723
75174W        W76038  25.543  22.763  18.504  0.1320 -0.0191  0.0831
75175W        W76039  23.246  22.494  19.716  0.0500 -0.0349 -0.0085
75176W        W76040  24.458  21.898  19.591  0.4592 -0.0929  0.0132
75177W        W76041  22.953  23.600  22.178  0.0483 -0.0304 -0.1687
75178W        W76042  22.499  20.668  22.897 -0.3043  0.1360 -0.0517
75179W        W76043  22.979  24.094  17.934 -0.0079 -0.0173 -0.0955
75180W        W76044  25.293  24.896  21.481 -0.2116  0.1814  0.3092
75181W        W76045  21.718  25.807  21.872  0.1156  0.2340 -0.2170
75182W        W76046  22.814  23.143  18.285  0.3102  0.0387 -0.1391
75183W        W76047  21.854  21.753  23.071 -0.2097 -0.1370  0.0428
75184W        W76048  27.855  25.582  21.145 -0.0927 -0.0969 -0.0044
75185W        W76049  22.285  22.318  18.720  0.1736  0.2253 -0.1159
75186W        W76050  25.162  21.620  22.823 -0.0655 -0.2001 -0.1443
75187W        W76051  27.383  22.655  18.572 -0.1366 -0.0212  0.0938
75188W        W76052  24.708  26.067  22.452 -0.2414 -0.3296  0.0719
75189W        W76053  24.522  24.826  20.790 -0.1582  0.0687 -0.1662
75190W        W76054  22.529  22.908  17.982 -0.0204  0.0612 -0.0369
75191W        W76055  24.640  23.818  18.904  0.0452 -0.1755  0.3223
75192W        W76056  20.741  25.861  19.545  0.1449 -0.1890 -0.1912
75193W        W76057  24.387  22.988  23.779 -0.0074  0.0592  0.0910
75194W        W76058  20.014  25.967  20.980  0.0123  0.0387 -0.4061
75195W        W76059  18.922  21.457  21.437  0.1988  0.1828  0.3416
75196W        W76060  20.998  24.029  17.586  0.0093 -0.2176  0.1733
75197W        W76061  24.232  21.904  22.318  0.2387 -0.1598 -0.1024
75198W        W76062  23.069  24.697  19.836 -0.2079  0.2246 -0.2963
75199W        W76063  25.548  23.214  20.981  0.0358 -0.0657  0.1982
75200W        W76064  24.638  26.195  21.626 -0.1947  0.1876  0.1706
75201W        W76065  21.003  23.229  22.493  0.0651 -0.0028 -0.0819
75202W        W76066  24.151  25.453  20.221 -0.0941  0.0031 -0.0609
75203W        W76067  26.236  22.938  19.910  0.1820  0.0367  0.3967
75204W        W76068  24.242  21.072  17.780  0.0708  0.3029 -0.0680
75205W        W76069  27.043  20.115  21.059 -0.2688 -0.1315  0.0315
75206W        W76070  22.886  25.000  17.440  0.1358  0.0869 -0.2756
75207W        W76071  24.705  22.284  23.356  0.2866 -0.1767  0.1149
75208W        W76072  24.683  22.998  18.515 -0.2044  0.1594  0.0393
75209W        W76073  23.750  24.786  22.555  0.3342  0.1894 -0.0717
75210W        W76074  26.283  24.682  19.987 -0.4458 -0.1164  0.0385
75211W        W76075  22.622  20.326  19.774 -0.0229 -0.0142 -0.0118
75212W        W76076  24.640  21.104  22.134  0.1947  0.1158  0.0391
75213W        W76077  26.137  23.965  20.047  0.3436  0.2826 -0.1069
75214W        W76078  24.521  25.306  22.091  0.0314  0.1735 -0.2953
75215W        W76079  22.986  19.960  21.910 -0.0492  0.0720 -0.1273
75216W        W76080  21.778  23.028  22.168 -0.0395 -0.2877 -0.2821
75217W        W76081  22.747  22.690  19.463  0.1752 -0.3847 -0.1238
75218W        W76082  23.950  22.098  21.904  0.0624  0.0577 -0.1001
75219W        W76083  26.083  25.045  19.131  0.0245  0.3930  0.1702
75220W        W76084  25.737  26.036  22.486 -0.0755  0.1366 -0.2310
75221W        W76085  25.857  24.309  23.707 -0.1095  0.0500  0.0664
75222W        W76086  24.798  22.652  20.403  0.0503  0.0807  0.3834
75223W        W76087  24.719  24.914  21.308  0.0135 -0.1518  0.3191
75224W        W76088  24.997  24.513  21.316 -0.3578  0.3349 -0.0717
75225W        W76089  26.830  24.790  21.987  0.0836 -0.0014 -0.1992
75226W        W76090  23.946  25.885  22.944  0.0607 -0.1101  0.0236
75227W        W76091  24.247  21.945  20.346 -0.1830  0.2372 -0.2835
75228W        W76092  24.927  22.947  17.707  0.0122  0.4726 -0.4060
75229W        W76093  25.498  26.459  22.386 -0.1322 -0.0830  0.0756
75230W        W76094  24.338  24.443  20.563  0.0105  0.0826 -0.2740
75231W        W76095  22.560  24.750  23.271  0.0971  0.1749 -0.0802
75232W        W76096  24.244  24.815  22.642 -0.0739  0.1212 -0.1374
75233W        W76097  23.330  21.725  21.358  0.1189 -0.0859 -0.2041
75234W        W76098  24.980  26.149  21.975 -0.1444  0.1356 -0.2274
75235W        W76099  22.679  22.093  18.662  0.0142 -0.0022 -0.1010
75236W        W76100  22.226  24.289  24.968 -0.0281  0.3828 -0.2077
75237W        W76101  22.022  23.936  24.551  0.1300 -0.1215 -0.1408
75238W        W76102  25.910  22.949  24.684 -0.2217  0.0591  0.1608
75239W        W76103  26.809  26.306  25.765  0.0757 -0.2541 -0.0437
75240W        W76104  21.585  24.559  22.300 -0.0284  0.1640  0.1875
75241W        W76105  23.691  26.203  21.582 -0.0428  0.0059  0.0447
75242W        W76106  25.334  24.102  25.640 -0.0235 -0.1685  0.3363
75243W        W76107  25.331  20.997  22.258 -0.0911 -0.0518  0.0309
75244W        W76108  24.312  26.555  23.532  0.1748 -0.2643 -0.0957
75245W        W76109  23.273  19.646  26.966  0.1908  0.2215 -0.0662
75246W        W76110  23.594  23.342  22.921  0.2453 -0.0188  0.0359
75247W        W76111  23.952  20.917  26.384  0.1106  0.0616 -0.3309
75248W        W76112  23.670  24.795  22.072 -0.2465 -0.1546 -0.1265
75249W        W76113  25.535  22.517  25.343  0.0405  0.1726  0.0899
75250W        W76114  22.529  21.640  26.252  0.2060 -0.0749 -0.0634
75251W        W76115  23.570  26.971  23.321 -0.1776 -0.0624  0.1617
75252W        W76116  21.714  27.953  24.889  0.1977  0.0992 -0.3193
75253W        W76117  21.532  20.799  24.861  0.1938  0.1946 -0.1406
75254W        W76118  24.600  22.755  26.267 -0.2697 -0.0577  0.0523
75255W        W76119  24.397  24.489  24.136 -0.2520 -0.0841  0.1209
75256W        W76120  25.782  25.412  27.150 -0.1078 -0.2534  0.2898
75257W        W76121  24.890  24.325  25.648 -0.3692  0.1029 -0.1510
75258W        W76122  25.566  23.075  26.154 -0.2125 -0.0233  0.2868
75259W        W76123  21.686  23.696  22.337  0.0987 -0.2580  0.1209
75260W        W76124  20.531  23.082  24.940  0.0847  0.2196 -0.2832
75261W        W76125  22.507  24.424  26.753 -0.2783  0.1010  0.2916
75262W        W76126  25.120  22.882  26.352 -0.0732  0.0816  0.1003
75263W        W76127  24.705  19.992  24.963 -0.4162 -0.0748 -0.2537
75264W        W76128  23.730  25.930  24.610  0.2130  0.2323  0.1059
75265W        W76129  22.964  26.282  22.058 -0.0878 -0.2340  0.0032
75266W        W76130  23.071  24.051  23.529 -0.0050  0.2233  0.1244
75267W        W76131  22.956  24.755  27.324 -0.2300  0.2190  0.1681
75268W        W76132  23.904  22.947  27.436  0.0322 -0.2918 -0.2028
75269W        W76133  22.798  24.320  24.783  0.0915 -0.2111  0.1432
75270W        W76134  21.713  22.895  25.887  0.2924  0.0837  0.0840
75271W        W76135  26.220  26.239  25.224  0.0530 -0.0479  0.2699
75272W        W76136  23.161  21.883  22.513  0.1672  0.1830 -0.0889
75273W        W76137  22.227  28.029  21.969  0.2702 -0.0622 -0.0437
75274W        W76138  24.205  23.395  25.111  0.1398 -0.3217 -0.1771
75275W        W76139  24.458  23.613  26.291 -0.0141 -0.1449 -0.1781
75276W        W76140  25.186  24.066  22.092 -0.0085  0.2427 -0.3681
75277W        W76141  23.617  26.666  24.301  0.0516 -0.0597  0.3396
75278W        W76142  24.995  24.225  27.190  0.2093  0.0272  0.1615
75279W        W76143  26.231  23.639  23.855  0.0605 -0.1728  0.0402
75280W        W76144  23.076  26.706  24.276 -0.0264 -0.0519  0.0047
75281W        W76145  22.774  27.771  24.841  0.0239  0.2545  0.2292
75282W        W76146  22.908  21.344  24.539  0.0376  0.0608  0.0077
75283W        W76147  23.281  20.716  25.280  0.2285 -0.0713  0.1271
75284W        W76148  24.371  22.302  24.607 -0.2019  0.1816  0.2045
75285W        W76149  23.624  23.226  20.862  0.1405 -0.0959 -0.1218
75286W        W76150  23.517  24.633  24.130 -0.0644 -0.1584  0.0051
75287W        W76151  23.495  21.192  21.280 -0.3302 -0.3189 -0.1293
75288W        W76152  25.242  24.094  26.219  0.2546 -0.0485  0.0967
75289W        W76153  24.212  24.144  21.807  0.0593 -0.1035 -0.2839
75290W        W76154  23.705  23.355  21.383  0.1635 -0.0923 -0.0458
75291W        W76155  21.586  25.353  25.640 -0.3481  0.2209 -0.0997
75292W        W76156  22.348  24.577  22.830  0.2826  0.0374 -0.2687
75293W        W76157  25.157  24.765  22.735 -0.0586 -0.1337  0.0794
75294W        W76158  23.615  22.668  23.482  0.1633  0.1060  0.1005
75295W        W76159  24.759  27.376  22.036 -0.2201  0.0856 -0.1086
75296W        W76160  25.760  25.663  21.790 -0.1377 -0.3636  0.1838
75297W        W76161  23.619  25.672  24.138 -0.0442 -0.0730  0.1578
75298W        W76162  20.515  25.800  24.810 -0.0347  0.0520 -0.2333
75299W        W76163  22.162  26.330  22.635  0.1015 -0.3077 -0.0132
75300W        W76164  23.587  22.215  26.467 -0.2856 -0.1694  0.0427
75301W        W76165  24.748  22.548  24.864 -0.2905  0.0195 -0.1221
75302W        W76166  24.072  25.572  24.341 -0.0741  0.1175  0.4243
75303W        W76167  24.022  26.908  23.703  0.0114  0.0266  0.2756
75304W        W76168  20.578  25.384  24.153  0.2319  0.0837 -0.1272
75305W        W76169  22.587  26.110  22.947  0.1004 -0.0444 -0.4530
75306W        W76170  23.101  23.538  25.714 -0.0180  0.1701  0.2661
75307W        W76171  25.254  22.148  22.668 -0.1379  0.0268 -0.3329
75308W        W76172  24.434  27.380  22.455 -0.0536  0.2417 -0.2143
75309W        W76173  24.370  25.250  22.859  0.2115 -0.3997 -0.0016
75310W        W76174  27.136  25.815  21.926  0.0757  0.2181 -0.1064
75311W        W76175  24.576  23.471  28.208 -0.2125 -0.0510 -0.2652
75312W        W76176  22.222  23.859  24.091  0.2547 -0.0886  0.0998
75313W        W76177  25.204  24.572  24.309  0.1201 -0.0912 -0.1620
75314W        W76178  24.324  23.687  24.147 -0.0418 -0.0421 -0.0267
75315W        W76179  25.842  25.421  20.713 -0.3149  0.0853  0.3051
75316W        W76180  25.554  22.969  23.553 -0.0296  0.0957 -0.0197
75317W        W76181  21.768  22.406  26.880  0.2038 -0.2963  0.0104
75318W        W76182  24.223  21.270  23.070  0.0407  0.0026  0.0904
75319W        W76183  22.201  23.175  23.504 -0.0932  0.2147 -0.0085
75320W        W76184  24.973  21.009  23.633 -0.3257 -0.0914 -0.1847
75321W        W76185  23.958  21.153  21.103  0.0514 -0.0940  0.0024
75322W        W76186  25.377  23.444  23.329  0.0553  0.3963 -0.2480
75323W        W76187  28.076  20.346  25.750  0.2204  0.5047 -0.0152
75324W        W76188  23.913  24.336  24.284  0.0451  0.0842 -0.1791
75325W        W76189  23.741  21.970  23.948  0.0117  0.0156 -0.1413
75326W        W76190  21.844  20.189  26.457  0.0315  0.0902 -0.0616
75327W        W76191  22.097  26.214  27.145  0.0598 -0.0483  0.2407
75328W        W76192  20.286  25.215  24.881 -0.1603 -0.4281 -0.0870
75329W        W76193  22.123  24.140  23.061 -0.2123 -0.0665  0.1446
75330W        W76194  22.284  21.607  24.839 -0.2365 -0.1448  0.1122
75331W        W76195  23.484  24.283  23.273  0.1934 -0.2646 -0.0812
75332W        W76196  26.590  24.474  22.593  0.0529  0.0819  0.3121
75333W        W76197  24.257  24.600  24.602  0.0588 -0.2860  0.3580
75334W        W76198  23.907  20.284  22.493  0.0354  0.1917 -0.2020
75335W        W76199  26.256  24.002  25.241 -0.0428 -0.1872 -0.0566
75336W        W76200  27.388  27.625  21.719 -0.1477  0.4130 -0.2262
75337W        W76201  19.897  24.401  23.682  0.0120 -0.0061  0.0366
75338W        W76202  24.715  24.435  22.541  0.0009 -0.3099 -0.0010
75339W        W76203  24.713  25.007  23.811  0.0137 -0.1926 -0.3213
75340W        W76204  23.062  24.191  22.971  0.1493 -0.1345  0.0999
75341W        W76205  23.710  22.622  25.574  0.1570  0.0984 -0.3373
75342W        W76206  22.855  26.645  23.042 -0.1474  0.5888 -0.1775
75343W        W76207  26.174  23.388  27.384 -0.1954  0.0663 -0.2309
75344W        W76208  25.078  25.261  23.496  0.2042 -0.2578  0.0820
75345W        W76209  22.242  22.485  26.833 -0.4056 -0.0952 -0.0767
75346W        W76210  22.023  22.913  26.682  0.1493 -0.2372  0.1606
75347W        W76211  26.275  24.381  20.863  0.3402 -0.0212 -0.1027
75348W        W76212  22.826  23.014  26.219  0.0557  0.2081  0.2232
75349W        W76213  22.924  26.881  25.804 -0.0682 -0.1716 -0.0773
75350W        W76214  26.049  24.989  24.886  0.0523 -0.1035  0.2653
75351W        W76215  24.041  26.419  22.990 -0.0368  0.0140 -0.0150
75352W        W76216  23.111  20.016  23.932  0.1461 -0.0559  0.0502
75353W        W76217  24.045  25.261  24.731 -0.3165  0.0563 -0.0005
75354W        W76218  23.569  22.579  24.680  0.2559 -0.0889 -0.1584
75355W        W76219  23.617  25.400  24.553 -0.0097  0.0299  0.1748
75356W        W76220  26.487  23.531  25.232 -0.0104  0.1554  0.4859
75357W        W76221  25.053  25.666  21.795 -0.2411  0.1362  0.1423
75358W        W76222  25.776  26.044  23.958 -0.0753  0.0166  0.1018
75359W        W76223  23.835  24.858  24.457 -0.1599  0.0631 -0.0108
75360W        W76224  24.804  24.918  24.282  0.0168  0.0295 -0.1764
75361W        W76225  24.892  27.309  23.101  0.3739  0.1552 -0.5351
75362W        W76226  21.628  23.147  23.374  0.2860  0.0373  0.0643
75363W        W76227  23.812  23.099  25.098  0.1034  0.1546  0.1000
75364W        W76228  26.529  25.907  25.540 -0.2490 -0.3070  0.1209
75365W        W76229  24.412  24.957  23.322 -0.0311 -0.1923  0.0339
75366W        W76230  23.858  26.465  23.767  0.1484 -0.4178  0.0096
75367W        W76231  24.853  25.344  25.487  0.1333 -0.1314  0.3569
75368W        W76232  22.293  27.059  23.845  0.0660 -0.2376  0.2625
75369W        W76233  23.345  22.813  22.904  0.0056 -0.0055 -0.3563
75370W        W76234  25.066  23.286  27.904  0.0956  0.0932 -0.0799
75371W        W76235  20.975  21.882  25.631 -0.0667 -0.0833  0.1789
75372W        W76236  25.363  27.455  21.421 -0.2401 -0.1127  0.3120
75373W        W76237  25.134  24.893  25.612  0.3795  0.1652 -0.0398
75374W        W76238  24.277  25.073  24.271  0.0373 -0.1310  0.1870
75375W        W76239  24.566  27.349  21.570  0.1012  0.2856  0.1542
75376W        W76240  21.757  17.129  23.424 -0.1100  0.1826 -0.0114
75377W        W76241  26.205  21.350  27.783  0.2085  0.2149 -0.1077
75378W        W76242  24.451  26.475  21.182  0.3004  0.4928 -0.0344
75379W        W76243  25.750  22.328  20.669 -0.1405  0.0920 -0.0420
75380W        W76244  24.021  25.554  25.425 -0.0157 -0.1385 -0.1344
75381W        W76245  24.337  18.456  25.407 -0.1441 -0.0887  0.3205
75382W        W76246  22.815  19.296  23.323  0.2830  0.0382 -0.2289
75383W        W76247  24.586  24.927  25.336  0.1322  0.1940 -0.0635
75384W        W76248  27.537  24.713  22.878 -0.1397 -0.0727 -0.0523
75385W        W76249  25.615  24.715  25.461  0.0902  0.1203 -0.2032
75386W        W76250  24.351  23.146  26.092 -0.1117 -0.1225 -0.3132
75387W        W76251  23.154  22.638  22.315 -0.0109  0.0392  0.1558
75388W        W76252  24.925  24.192  21.688 -0.0690 -0.2650 -0.2105
75389W        W76253  22.643  21.456  21.644 -0.3145 -0.0056 -0.1009
75390W        W76254  23.913  24.947  26.613 -0.1883  0.0271  0.0238
75391W        W76255  21.248  23.505  23.223 -0.1235 -0.0630  0.1793
75392W        W76256  20.496  19.775  23.979 -0.0232  0.0379 -0.1739
75393W        W76257  24.962  20.443  20.031 -0.1018  0.1515  0.2392
75394W        W76258  22.714  23.608  24.230 -0.0100 -0.0579  0.1919
75395W        W76259  22.879  21.866  21.553  0.3290  0.0234  0.0732
75396W        W76260  24.671  21.282  26.064 -0.0942  0.2715  0.1006
75397W        W76261  22.554  23.078  22.638  0.2231 -0.4508  0.0763
75398W        W76262  24.447  23.845  25.218  0.0793 -0.0301  0.1985
75399W        W76263  25.701  25.341  26.165 -0.2977 -0.0671 -0.2529
75400W        W76264  24.583  20.295  27.201 -0.3529  0.1163  0.0129
75401W        W76265  22.237  23.387  23.028  0.1206 -0.0722 -0.0767
75402W        W76266  22.093  20.895  22.737 -0.2061 -0.0601  0.2796
75403W        W76267  19.844  25.097  19.947  0.0532  0.1573  0.0498
75404W        W76268  24.956  27.303  25.868  0.1768 -0.1723  0.1677
75405W        W76269  21.854  23.553  23.713 -0.1320 -0.0485 -0.0550
75406W        W76270  24.202  23.564  22.050 -0.3508 -0.0458  0.0449
75407W        W76271  25.305  23.027  25.745  0.0531 -0.0650  0.3125
75408W        W76272  22.321  23.403  23.919  0.0327 -0.0101  0.1405
75409W        W76273  25.312  26.343  21.182 -0.1935 -0.3336 -0.0716
75410W        W76274  22.665  20.444  24.139 -0.1098 -0.1019 -0.1763
75411W        W76275  23.335  24.478  22.696 -0.1595  0.1550  0.1454
75412W        W76276  21.016  24.476  22.972 -0.0774  0.2923  0.0048
75413W        W76277  22.543  26.032  24.612 -0.0504 -0.2749 -0.1200
75414W        W76278  23.948  21.527  22.146 -0.1827 -0.0851  0.2633
75415W        W76279  22.781  25.739  24.931  0.1534  0.3882  0.0899
75416W        W76280  23.589  26.236  22.857  0.1681 -0.1898 -0.0847
75417W        W76281  25.521  27.259  23.122 -0.0787 -0.2546 -0.1777
75418W        W76282  24.165  25.980  22.439 -0.1262  0.1038 -0.2468
75419W        W76283  22.418  25.351  22.486 -0.1862 -0.5324  0.0161
75420W        W76284  22.644  23.774  23.736 -0.2507 -0.2102  0.1056
75421W        W76285  25.149  25.004  28.892 -0.2337  0.0041  0.0848
75422W        W76286  24.447  24.067  22.860  0.0506  0.3362 -0.1307
75423W        W76287  21.641  21.396  21.468  0.0765  0.0224 -0.0126
75424W        W76288  24.453  27.975  25.695  0.5461 -0.0854 -0.0983
75425W        W76289  23.535  24.046  23.782 -0.2652  0.0681  0.1247
75426W        W76290  21.881  27.645  21.325  0.0752 -0.2183 -0.1105
75427W        W76291  21.556  25.246  21.231 -0.2530 -0.1419 -0.4002
75428W        W76292  22.334  25.293  24.114  0.1034  0.1301 -0.0730
75429W        W76293  24.604  22.926  25.706  0.1383  0.0189  0.2603
75430W        W76294  23.184  22.208  24.796 -0.2744 -0.0934  0.1413
75431W        W76295  22.505  19.728  21.986 -0.1941 -0.4772  0.0151
75432W        W76296  26.725  23.394  21.750 -0.2302 -0.0644 -0.0109
75433W        W76297  21.891  21.521  24.407 -0.0854 -0.3306 -0.0413
75434W        W76298  23.116  20.535  24.012 -0.0762  0.0860  0.2174
75435W        W76299  24.543  22.824  22.521  0.1196 -0.1123 -0.4591
75436W        W76300  23.005  21.914  23.069 -0.1028  0.0262  0.2666
75437W        W76301  26.082  21.141  24.230  0.1957 -0.4167  0.0891
75438W        W76302  22.670  24.483  23.794 -0.1173 -0.1832  0.1812
75439W        W76303  21.523  21.179  23.506  0.2438 -0.0811 -0.0537
75440W        W76304  22.014  22.866  22.648  0.0361  0.4651 -0.2720
75441W        W76305  21.348  22.521  23.469  0.2749  0.2353  0.2400
75442W        W76306  21.691  23.311  25.568  0.0189 -0.1759  0.0333
75443W        W76307  24.387  26.626  24.892  0.0914  0.1383 -0.1453
75444W        W76308  23.605  28.872  21.222 -0.0073  0.3039 -0.0057
75445W        W76309  22.302  21.138  21.995 -0.0065 -0.0370 -0.0221
75446W        W76310  23.118  21.478  21.756  0.1004  0.0150  0.2772
75447W        W76311  21.128  22.064  24.274 -0.0243  0.0549  0.1573
75448W        W76312  23.853  23.030  23.135 -0.0034  0.1135  0.0550
75449W        W76313  25.945  21.344  23.737  0.3422  0.1314 -0.1263
75450W        W76314  25.695  23.246  25.468  0.3300 -0.2379  0.2500
75451W        W76315  23.676  22.925  22.570  0.1203 -0.4258  0.3613
75452W        W76316  25.080  23.607  22.499  0.2021  0.0161 -0.2074
75453W        W76317  24.449  23.738  23.251  0.0358 -0.0607 -0.1426
75454W        W76318  23.433  24.094  24.287 -0.0034  0.3411  0.1692
75455W        W76319  23.906  26.449  24.664  0.2291  0.3656 -0.2474
75456W        W76320  23.046  20.992  24.927 -0.2440 -0.0520 -0.1297
75457W        W76321  24.707  24.211  26.074 -0.0943  0.0338 -0.1960
75458W        W76322  23.101  22.530  26.411 -0.0608 -0.1399  0.1141
75459W        W76323  23.184  23.116  22.568  0.1580 -0.2103 -0.1954
75460W        W76324  24.910  26.199  22.991 -0.1388  0.0433  0.2171
75461W        W76325  22.245  20.420  26.936  0.2634 -0.2624 -0.2078
75462W        W76326  22.411  22.294  23.861  0.0359  0.0840 -0.3466
75463W        W76327  25.296  22.530  26.683  0.0350 -0.2040  0.2667
75464W        W76328  23.945  24.325  22.802 -0.1800  0.0722  0.1549
75465W        W76329  24.240  23.599  21.553 -0.3281 -0.1035  0.0589
75466W        W76330  24.771  20.259  26.426  0.2677  0.1383 -0.4244
75467W        W76331  23.101  22.816  28.013 -0.3421 -0.3971 -0.0385
75468W        W76332  22.280  25.956  25.573 -0.1205  0.0728 -0.0874
75469W        W76333  26.163  26.352  25.825 -0.1269  0.1787 -0.1175
75470W        W76334  21.563  23.315  26.621 -0.2139  0.2180  0.4563
75471W        W76335  23.162  28.334  23.660 -0.0649 -0.0661 -0.3013
75472W        W76336  26.608  21.724  21.547  0.0640  0.1010 -0.1743
75473W        W76337  23.196  21.235  25.425 -0.1698 -0.0675  0.1055
75474W        W76338  23.199  23.938  26.408  0.0537 -0.0391  0.0862
75475W        W76339  23.520  26.968  23.884  0.0594  0.2475 -0.2995
75476W        W76340  24.517  24.486  21.542 -0.1145  0.0016  0.2924
75477W        W76341  23.030  22.232  21.902  0.0174  0.0689  0.0145
75478W        W76342  21.404  23.521  22.745 -0.1034  0.1624 -0.0047
75479W        W76343  22.620  21.263  23.308  0.1345  0.1608 -0.0551
75480W        W76344  23.107  19.457  23.728 -0.0438 -0.1198 -0.0911
75481W        W76345  26.337  23.829  20.880 -0.2594 -0.2254 -0.0055
75482W        W76346  24.470  25.398  26.349  0.1979 -0.1767 -0.0085
75483W        W76347  24.613  25.436  24.220  0.2757 -0.0434 -0.1250
75484W        W76348  24.426  25.393  25.144 -0.0274  0.1277  0.0623
75485W        W76349  22.492  21.737  21.232  0.0935 -0.0925 -0.1332
75486W        W76350  20.935  25.483  23.357 -0.0730  0.5853  0.0254
75487W        W76351  23.570  28.945  24.948  0.1406 -0.0304 -0.0871
75488W        W76352  21.475  23.831  23.585 -0.0818  0.0924  0.1046
75489W        W76353  24.880  23.815  26.460  0.0357  0.4333  0.0074
75490W        W76354  22.395  20.944  21.550  0.0840 -0.1387  0.1785
75491W        W76355  26.647  25.455  24.644  0.0204 -0.3346  0.0890
75492W        W76356  24.668  20.936  21.063  0.0372 -0.0787 -0.2454
75493W        W76357  22.738  22.114  23.505 -0.0111  0.0772  0.1507
75494W        W76358  24.252  23.443  23.657 -0.2077  0.2925  0.2218
75495W        W76359  25.823  24.646  22.930 -0.1631 -0.0163  0.2475
75496W        W76360  23.686  25.906  25.514 -0.1153  0.0760  0.2185
75497W        W76361  23.238  24.693  25.038 -0.1278  0.2154 -0.2906
75498W        W76362  22.494  20.807  26.510  0.2935  0.0003 -0.3965
75499W        W76363  24.242  23.679  22.694  0.2833 -0.0460 -0.1893
75500W        W76364  21.752  25.415  22.800  0.0490  0.1080  0.3082
75501W        W76365  23.383  25.262  23.715  0.2478  0.0436  0.0564
75502W        W76366  22.815  25.435  26.145 -0.2813  0.0165 -0.1196
75503W        W76367  22.781  25.732  24.270 -0.3241  0.0525  0.2124
75504W        W76368  23.346  23.582  27.272  0.2218  0.0171  0.4991
75505W        W76369  25.434  23.664  21.953  0.0974 -0.2970 -0.1156
75506W        W76370  23.998  26.187  22.005 -0.0724  0.0985 -0.4207
75507W        W76371  23.139  23.262  25.209  0.0821 -0.0557 -0.2317
75508W        W76372  26.149  20.290  24.928  0.0698 -0.0773 -0.0225
75509W        W76373  21.834  22.740  23.195 -0.0554 -0.1800  0.0273
75510W        W76374  24.509  28.932  24.263 -0.3517 -0.4134  0.0098
75511W        W76375  23.084  24.518  28.128 -0.0665  0.1800  0.1626
75512W        W76376  23.205  21.123  24.150  0.1834 -0.1875  0.2953
75513W        W76377  22.520  23.608  22.397  0.1163 -0.0148  0.1373
75514W        W76378  23.275  22.944  23.738  0.0101 -0.0325 -0.4442
75515W        W76379  22.686  27.431  25.613 -0.0918  0.0812  0.0169
75516W        W76380  25.092  26.038  25.163 -0.0700 -0.3699  0.2376
75517W        W76381  21.928  21.073  24.140  0.1250  0.0344  0.1624
75518W        W76382  21.619  24.281  24.591 -0.0994 -0.1438  0.2229
75519W        W76383  22.355  26.528  23.682  0.1940  0.0277 -0.0772
75520W        W76384  25.379  24.282  22.659 -0.0930  0.1438  0.1009
75521W        W76385  22.961  23.846  24.961 -0.3374 -0.3212 -0.0306
75522W        W76386  23.438  23.769  25.388  0.0289  0.0546  0.1700
75523W        W76387  23.382  23.488  27.902 -0.0377 -0.2595  0.0167
75524W        W76388  25.228  24.400  23.117  0.3171 -0.4042  0.3255
75525W        W76389  25.097  24.521  22.252 -0.1434 -0.0125 -0.0270
75526W        W76390  22.662  23.313  23.409  0.0759 -0.2311  0.1619
75527W        W76391  26.217  22.128  21.180 -0.3987  0.1188  0.2015
75528W        W76392  26.987  21.853  25.111 -0.1324  0.0790 -0.2275
75529W        W76393  22.886  20.993  23.719  0.1212 -0.3616  0.1208
75530W        W76394  25.538  25.805  25.336  0.0576 -0.0942 -0.0298
75531W        W76395  22.247  24.281  23.660  0.0148  0.0295  0.0639
75532W        W76396  23.702  23.841  22.118  0.1684  0.1807 -0.0445
75533W        W76397  27.116  25.311  25.925 -0.1934 -0.0229  0.0181
75534W        W76398  26.633  22.843  26.901  0.0581 -0.0859 -0.0816
75535W        W76399  23.740  28.409  25.479 -0.0712 -0.2058  0.0442
75536W        W76400  22.463  26.367  22.053  0.0729 -0.0983  0.1821
75537W        W76401  25.244  21.600  28.856  0.0336  0.2047 -0.5597
75538W        W76402  25.579  26.082  25.712  0.2906  0.0320 -0.3057
75539W        W76403  25.176  24.848  23.890  0.0245 -0.0519  0.0057
75540W        W76404  24.003  26.866  23.128  0.2066 -0.2232 -0.3891
75541W        W76405  24.996  26.759  23.029 -0.1646  0.1828  0.0070
75542W        W76406  23.342  23.531  24.405  0.1406  0.1012  0.0272
75543W        W76407  25.061  21.771  24.342  0.2570 -0.0680  0.0369
75544W        W76408  24.171  23.059  22.762 -0.3163 -0.0165  0.1939
75545W        W76409  23.233  22.018  23.918 -0.2189  0.0848 -0.1768
75546W        W76410  23.288  19.976  25.224  0.1247 -0.0619 -0.1062
75547W        W76411  24.122  24.747  25.568  0.2900 -0.0830  0.0410
75548W        W76412  21.656  23.624  21.773 -0.0358  0.0131  0.1118
75549W        W76413  23.384  24.333  25.464 -0.0327  0.1160 -0.1972
75550W        W76414  23.015  26.217  25.057  0.1986  0.0786 -0.2273
75551W        W76415  22.349  26.491  23.174  0.0576  0.0777  0.1030
75552W        W76416  22.220  22.488  23.404  0.0812  0.0115 -0.1688
75553W        W76417  24.663  20.902  23.176  0.0719  0.1066 -0.2554
75554W        W76418  22.409  24.567  25.894  0.0398  0.1133  0.0550
75555W        W76419  26.058  25.439  23.682  0.2007  0.1970  0.1031
75556W        W76420  23.868  25.453  26.672  0.0790 -0.5748  0.2206
75557W        W76421  25.683  26.887  22.300 -0.1652  0.1954 -0.1652
75558W        W76422  23.490  24.574  23.661  0.2396  0.0313  0.0386
75559W        W76423  24.044  28.130  26.903 -0.0550 -0.1295  0.1722
75560W        W76424  22.333  23.095  25.324  0.1653  0.1289  0.0661
75561W        W76425  23.459  27.953  25.799  0.0501 -0.2096  0.1677
75562W        W76426  21.872  22.415  24.884  0.2673  0.1000 -0.1788
75563W        W76427  24.112  21.508  21.623 -0.2061  0.1711 -0.2134
75564W        W76428  23.679  23.650  20.625 -0.0786  0.1136  0.0962
75565W        W76429  24.513  24.971  21.742 -0.0171 -0.0322  0.2020
75566W        W76430  21.983  25.441  23.266  0.0960 -0.1006  0.1996
75567W        W76431  25.708  23.825  24.424  0.1569  0.0694 -0.2758
75568W        W76432  24.273  24.407  26.966 -0.3157 -0.1198  0.1492
75569W        W76433  23.386  26.246  24.214 -0.0185  0.0217 -0.1625
75570W        W76434  26.187  22.232  24.311  0.1150 -0.2107  0.3869
75571W        W76435  23.936  23.505  25.572  0.0582  0.2429 -0.1514
75572W        W76436  23.835  25.514  23.701  0.3221  0.0854 -0.1486
75573W        W76437  24.576  24.838  22.225  0.0200 -0.5059  0.2105
75574W        W76438  24.980  23.778  25.962 -0.1111  0.1884 -0.1574
75575W        W76439  24.893  20.130  23.552  0.1154 -0.1445  0.2275
75576W        W76440  23.506  26.919  24.707  0.2246  0.1211  0.1660
75577W        W76441  22.480  22.926  23.140 -0.0323 -0.0889 -0.0611
75578W        W76442  21.537  21.926  26.434  0.0862 -0.0671  0.0318
75579W        W76443  22.024  23.751  22.711  0.3301  0.1213 -0.0884
75580W        W76444  26.005  25.915  23.492  0.0541  0.0692  0.1393
75581W        W76445  25.868  23.472  23.516  0.0179  0.0468 -0.3112
75582W        W76446  20.807  22.803  23.246  0.0827  0.2143  0.2278
75583W        W76447  19.876  20.421  23.973 -0.0517 -0.0124  0.0007
75584W        W76448  23.256  22.631  24.283  0.3019  0.1338  0.5664
75585W        W76449  23.284  22.260  23.398 -0.1531  0.2835 -0.1650
75586W        W76450  24.365  23.652  24.746  0.0296  0.2889 -0.0015
75587W        W76451  22.312  25.020  22.904  0.0079 -0.2288 -0.2114
75588W        W76452  25.718  24.639  24.111 -0.1869  0.2129 -0.3277
75589W        W76453  25.629  27.741  22.967  0.1873  0.0885 -0.0353
75590W        W76454  25.138  25.851  24.222  0.1398 -0.2298  0.0013
75591W        W76455  24.230  25.833  23.855 -0.2239 -0.5242 -0.2065
75592W        W76456  24.527  26.377  22.067  0.2970 -0.2136  0.1255
75593W        W76457  23.143  21.027  25.907 -0.0684 -0.2451 -0.2050
75594W        W76458  23.583  23.741  25.832 -0.0687 -0.1824  0.0855
75595W        W76459  24.223  23.094  22.159 -0.0221 -0.1894  0.4536
75596W        W76460  22.399  25.106  21.602  0.0771  0.2650 -0.2899
75597W        W76461  25.498  21.182  26.463 -0.3479 -0.2129  0.0342
75598W        W76462  22.555  25.308  23.248 -0.2188  0.1548  0.0966
75599W        W76463  23.056  22.684  23.282  0.2005 -0.3409  0.1250
75600W        W76464  23.105  26.194  22.817  0.0310 -0.1650  0.1097
75601W        W76465  24.657  25.976  24.227  0.0159 -0.1114 -0.0462
75602W        W76466  25.845  24.478  21.731 -0.4257 -0.0262  0.0679
75603W        W76467  25.144  25.819  23.262  0.1234  0.1498  0.0804
75604W        W76468  25.237  23.352  22.899 -0.0395  0.1468  0.3021
75605W        W76469  27.571  21.955  24.299 -0.1166  0.2450 -0.1892
75606W        W76470  23.232  24.494  22.150  0.3561  0.4015  0.0938
75607W        W76471  23.402  22.671  27.301  0.0729  0.1235  0.1730
75608W        W76472  24.367  26.422  22.544  0.0921  0.0422  0.1321
75609W        W76473  23.378   0.604  24.639 -0.0594  0.0586  0.1443
75610W        W76474  24.953  24.727  21.792  0.2270 -0.0604  0.0864
75611W        W76475  24.063  21.925  24.401 -0.2453  0.5214 -0.3306
75612W        W76476  22.228  23.705  23.445  0.0060 -0.0271 -0.0952
75613W        W76477  24.470  25.733  25.470 -0.0607  0.1838  0.1870
75614W        W76478  24.489  23.406  25.516  0.2948  0.1187 -0.3712
75615W        W76479  23.002  28.282  26.434  0.0737 -0.0634  0.1116
75616W        W76480  22.700  21.397  25.514  0.2250 -0.0346 -0.1470
75617W        W76481  23.874  26.168  24.198  0.1327 -0.0622  0.0772
75618W        W76482  24.525  21.564  21.912 -0.1262 -0.0168 -0.0400
75619W        W76483  26.029  22.743  22.874 -0.1938  0.1112  0.1971
75620W        W76484  24.706  26.585  25.336  0.0875  0.1128  0.2734
75621W        W76485  22.108  22.232  25.420  0.0593  0.0771 -0.2535
75622W        W76486  25.901  24.863  22.050 -0.1705  0.1633 -0.1371
75623W        W76487  24.298  24.392  28.563  0.1687 -0.2166 -0.0292
75624W        W76488  22.135  26.692  22.273  0.1377  0.0997  0.2031
75625W        W76489  24.651  23.942  22.395  0.0844 -0.0199  0.1007
75626W        W76490  23.953  23.498  26.197  0.0027 -0.2163 -0.0697
75627W        W76491  23.541  25.000  24.846  0.0406 -0.3120 -0.0850
75628W        W76492  25.030  23.949  23.772  0.1487  0.1552  0.2871
75629W        W76493  23.295  25.528  22.616  0.1206  0.0684 -0.0872
75630W        W76494  22.899  25.088  26.965  0.3641 -0.1393  0.1845
75631W        W76495  24.946  22.416  26.368  0.1244  0.0579 -0.1025
75632W        W76496  23.421  28.073  24.053  0.0671  0.0742  0.0353
75633W        W76497  23.776  22.976  26.038  0.3806 -0.0508  0.0569
75634W        W76498  23.173  23.476  21.263 -0.0318  0.0069 -0.3381
75635W        W76499  23.166  22.945  20.193 -0.0197  0.2450  0.0532
75636W        W76500  21.419  25.900   0.916  0.2512 -0.2692 -0.1854
75637W        W76501  23.632  22.905   0.054  0.0089  0.3413 -0.4065
75638W        W76502  26.691  24.407  25.966  0.2014 -0.1020 -0.0902
75639W        W76503  26.503  24.872   1.020  0.1452  0.0034  0.1358
75640W        W76504  23.015  25.517  27.381  0.0751  0.1662 -0.1069
75641W        W76505  25.790  24.763  26.322 -0.0237  0.0096  0.0424
75642W        W76506  23.726  23.146  26.502 -0.0035 -0.3637  0.1157
75643W        W76507  22.367  23.418  26.191 -0.0479  0.0162 -0.0229
75644W        W76508  21.069  26.947  27.924  0.0539  0.0519 -0.0655
75645W        W76509  22.472  23.216  27.995 -0.1654 -0.2425 -0.0991
75646W        W76510  24.934  23.016   2.054 -0.0601  0.1658 -0.2312
75647W        W76511  25.749  21.467  27.733 -0.4578  0.0727  0.0948
75648W        W76512  24.653  19.139  24.387  0.2166 -0.5244  0.0512
75649W        W76513  25.520  22.850   3.657  0.0121  0.1113  0.2828
75650W        W76514  21.967  20.348  28.586  0.0121  0.4705 -0.3038
75651W        W76515  21.714  23.208  28.341  0.2318  0.1014  0.1258
75652W        W76516  25.617  22.119  25.068  0.2752  0.3073  0.4472
75653W        W76517  23.517  25.535  27.375  0.0969 -0.0387 -0.1923
75654W        W76518  24.212  27.240  26.695  0.2029  0.0753 -0.1947
75655W        W76519  25.727  23.048  28.861 -0.0099  0.1078 -0.0320
75656W        W76520  26.079  25.808  26.892  0.0143  0.2820  0.2486
75657W        W76521  24.265  24.614   0.158 -0.1039  0.2684 -0.0198
75658W        W76522  23.284  25.447   0.848  0.1648 -0.1193 -0.0329
75659W        W76523  22.580  23.626   0.078 -0.3205  0.1679  0.0991
75660W        W76524  23.739  24.781  27.760  0.2493  0.1599 -0.1281
75661W        W76525  22.608  21.946  26.675  0.0026 -0.3093  0.1107
75662W        W76526  24.697  21.991   0.870 -0.2141  0.0705 -0.0925
75663W        W76527  23.675  26.720  28.308  0.2470  0.4790  0.0619
75664W        W76528  25.996  20.524   0.632  0.0526 -0.4232  0.3302
75665W        W76529  25.220  24.760   0.176 -0.0780  0.1055  0.1450
75666W        W76530  24.623  26.361  26.938 -0.0324  0.2350 -0.1318
75667W        W76531  22.939  25.537  29.085  0.0228  0.1861 -0.3448
75668W        W76532  25.421  26.146  28.175  0.0386  0.3185 -0.0104
75669W        W76533  23.471  24.331  29.056  0.5209 -0.2029  0.0265
75670W        W76534  20.768  22.835   0.664  0.0849  0.0567 -0.3074
75671W        W76535  25.051  21.591   0.903  0.2372 -0.1442 -0.3549
75672W        W76536  23.552  25.367  27.864  0.0154  0.2909 -0.0310
75673W        W76537  25.521  23.649  27.840 -0.2226 -0.0938  0.0676
75674W        W76538  23.972  23.694  28.042 -0.0623 -0.2235  0.1725
75675W        W76539  24.651  21.822  26.163  0.0878 -0.1311 -0.0717
75676W        W76540  26.494  22.003  25.173 -0.0935  0.1141  0.2053
75677W        W76541  24.778  23.184  28.947 -0.0572 -0.3554 -0.1214
75678W        W76542  24.139  26.071  27.569  0.0419  0.2876 -0.1535
75679W        W76543  25.839  25.407  27.647 -0.1946 -0.2655  0.0831
75680W        W76544  20.451  26.903  26.771 -0.2013 -0.1911 -0.2918
75681W        W76545  21.970  23.812  27.685 -0.0456  0.0871 -0.0348
75682W        W76546  25.829  19.738   0.227 -0.0866  0.2733 -0.1927
75683W        W76547  25.275  22.400   1.662  0.2609 -0.0545  0.0678
75684W        W76548  25.421  24.637  27.021 -0.2009 -0.0133 -0.1286
75685W        W76549  25.391  22.507  26.124  0.1938  0.2489  0.1525
75686W        W76550  24.041  24.266  28.975  0.0184  0.1510 -0.1739
75687W        W76551  22.065  23.651  25.400  0.0715  0.3433  0.0751
75688W        W76552  25.450  25.211   0.187 -0.1441  0.0355 -0.0490
75689W        W76553  26.658  23.513   2.355 -0.3013  0.0218  0.2502
75690W        W76554  24.441  21.897  26.612 -0.0587 -0.1354 -0.0304
75691W        W76555  24.943  25.433  24.590  0.1464  0.1685  0.0872
75692W        W76556  22.393  21.421  28.434  0.0584  0.0104 -0.2090
75693W        W76557  26.615  20.395  27.375  0.1450  0.2142  0.0966
75694W        W76558  23.353  25.811  27.726 -0.2157 -0.0122 -0.3899
75695W        W76559  27.383  22.594  25.678 -0.0385 -0.1135  0.0043
75696W        W76560  24.893  24.483  26.461  0.0369 -0.1916  0.0109
75697W        W76561  23.190  24.385   0.323  0.0439  0.1026 -0.0177
75698W        W76562  22.208  24.257  27.329  0.3621  0.1782  0.0644
75699W        W76563  23.807  24.148  27.258  0.0348 -0.0993 -0.2548
75700W        W76564  25.577  21.229  25.514 -0.1193 -0.2936  0.0057
75701W        W76565  25.523  22.705  27.522  0.3542  0.1581  0.2291
75702W        W76566  23.291  26.271  26.444  0.2683 -0.3004 -0.0206
75703W        W76567  21.983  24.331  26.555  0.0265 -0.0467  0.1701
75704W        W76568  21.385  25.088  27.954  0.1959 -0.1058  0.4205
75705W        W76569  22.834  26.517  23.901  0.3688  0.0377 -0.0188
75706W        W76570  24.269  23.908  27.148  0.1453 -0.1670 -0.0699
75707W        W76571  26.229  20.266  28.273  0.3307 -0.0601  0.0945
75708W        W76572  26.941  25.722  26.112 -0.0754  0.2293 -0.4085
75709W        W76573  24.416  25.037   1.871  0.0429  0.1546  0.1831
75710W        W76574  24.763  23.694  27.303  0.1274 -0.4708  0.0513
75711W        W76575  26.838  25.222  28.595  0.1961  0.1131  0.0455
75712W        W76576  24.363  25.553  28.829  0.1085 -0.0907  0.0816
75713W        W76577  23.827  26.774  28.907 -0.0770  0.0171  0.0725
75714W        W76578  25.354  20.019  25.581 -0.0949 -0.2336 -0.0305
75715W        W76579  23.409  25.146   2.154  0.0179 -0.1957  0.2396
75716W        W76580  26.380  20.892  27.826  0.0433 -0.1262  0.0526
75717W        W76581  23.987  25.687   1.366  0.2462 -0.0384  0.0363
75718W        W76582  23.481  21.788  26.659 -0.0383  0.1397  0.1053
75719W        W76583  24.206  21.879  25.923 -0.1802 -0.0675 -0.0823
75720W        W76584  24.879  24.056   0.890 -0.2488 -0.1284  0.0805
75721W        W76585  25.854  23.039  27.042 -0.1324 -0.0648 -0.0874
75722W        W76586  24.736  25.072   0.935 -0.0905  0.2284 -0.0325
75723W        W76587  25.113  20.371   0.396  0.1949  0.2453  0.0171
75724W        W76588  25.840  26.555   0.178  0.0922 -0.0037 -0.2671
75725W        W76589  24.607  24.684  27.686  0.2775 -0.1729  0.1563
75726W        W76590  24.270  22.110  24.018 -0.1259 -0.1866  0.2020
75727W        W76591  26.151  21.162  29.135 -0.0386  0.0983  0.0743
75728W        W76592  23.804  25.149  27.102  0.0164  0.3355 -0.0346
75729W        W76593  24.853  23.237  26.006  0.0144 -0.1126 -0.2267
75730W        W76594  23.022  23.940  27.822 -0.1084  0.0191  0.0765
75731W        W76595  26.668  22.063  27.728 -0.0939 -0.1735 -0.2368
75732W        W76596  25.852  24.271  25.631 -0.0045 -0.0937 -0.1663
75733W        W76597  24.994  25.679   0.648 -0.2341 -0.0127 -0.0897
75734W        W76598  24.645  21.562   1.234 -0.0391 -0.3334 -0.0577
75735W        W76599  28.656  22.922  25.482  0.1337  0.0120 -0.1536
75736W        W76600  25.588  22.207  25.747 -0.0151 -0.0324  0.0896
75737W        W76601  22.624  24.678  28.348  0.0366  0.0197 -0.0182
75738W        W76602  22.301  21.305  22.918  0.3134  0.2093  0.1576
75739W        W76603  25.860  21.312  28.177  0.3085 -0.2041  0.1784
75740W        W76604  23.721  23.077  27.906  0.0437  0.3813  0.2299
75741W        W76605  22.234  24.385   0.187 -0.1678 -0.0981  0.0790
75742W        W76606  23.989  21.959  27.198 -0.0044  0.3692 -0.0654
75743W        W76607  24.294  22.449   1.702 -0.2040  0.1166 -0.0371
75744W        W76608  24.079  22.226  26.819  0.1417  0.0662  0.1068
75745W        W76609  22.751  21.992  28.719  0.4906  0.3254 -0.0900
75746W        W76610  20.407  23.836  26.662  0.1773  0.0092 -0.1052
75747W        W76611  22.572  26.792  25.034  0.1932  0.2919  0.2703
75748W        W76612  24.385  25.112  28.479 -0.0383 -0.0098  0.1671
75749W        W76613  24.709  23.360   1.029 -0.0216 -0.1882  0.0250
75750W        W76614  26.434  24.734  26.735  0.1063  0.1484  0.2228
75751W        W76615  23.533  22.658  27.792  0.0863 -0.0477 -0.1633
75752W        W76616  26.044  21.043  28.521  0.1211 -0.1413  0.1555
75753W        W76617  22.777  26.235  28.119  0.0612 -0.3150  0.2742
75754W        W76618  24.137  23.939  26.154 -0.0864  0.0722 -0.1289
75755W        W76619  26.760  25.702  28.764 -0.0421  0.0166  0.3434
75756W        W76620  22.312  22.862  26.129 -0.1340  0.3005 -0.0016
75757W        W76621  23.511  27.124  25.155 -0.2115 -0.0901  0.2025
75758W        W76622  24.703  25.010  26.084  0.1569 -0.0874 -0.1385
75759W        W76623  23.849  25.152  25.718  0.1113 -0.0203  0.1149
75760W        W76624  22.381  24.180  28.350  0.0027  0.0001  0.1081
75761W        W76625  24.668  22.036   0.104 -0.0240 -0.0703 -0.1491
75762W        W76626  20.406  22.995  27.742 -0.1419 -0.2214 -0.1188
75763W        W76627  24.838  24.271   1.848 -0.1686  0.1182 -0.2727
75764W        W76628  25.511  26.890  26.850  0.3499  0.2677 -0.1391
75765W        W76629  23.864  24.331  27.810 -0.1884 -0.5150  0.1017
75766W        W76630  23.561  22.548  28.760 -0.0367 -0.0231 -0.1876
75767W        W76631  25.539  22.069  26.976  0.1200  0.4068 -0.1794
75768W        W76632  20.048  24.300  28.467 -0.0367  0.2916  0.0253
75769W        W76633  25.108  23.632  26.879 -0.0866 -0.4040  0.1660
75770W        W76634  28.024  21.160  28.188  0.0653 -0.3441  0.1041
75771W        W76635  22.665  22.525  28.680  0.2646 -0.1768 -0.0157
75772W        W76636  27.668  25.430  28.102  0.1165  0.1018 -0.1145
75773W        W76637  25.677  21.529   1.666  0.1722  0.3442 -0.0767
75774W        W76638  25.284  24.178  28.476 -0.1916  0.0029 -0.4453
75775W        W76639  22.836  26.040  25.465  0.0905  0.2242 -0.0271
75776W        W76640  23.028  22.898  26.939  0.0317  0.1815 -0.3640
75777W        W76641  26.700  19.909   0.421 -0.2076 -0.3051 -0.1085
75778W        W76642  22.014  26.795  24.247 -0.1224  0.1638  0.0392
75779W        W76643  22.954  23.388  26.725  0.1467 -0.2508 -0.0464
75780W        W76644  23.043  21.659  28.957 -0.4181  0.3248  0.1879
75781W        W76645  22.191  25.661  26.575  0.1192  0.2523 -0.0109
75782W        W76646  24.732  22.210  24.124  0.0804 -0.1016 -0.0872
75783W        W76647  22.356  24.833   0.651 -0.0217 -0.2453 -0.1983
75784W        W76648  24.879  25.743  27.391  0.1054  0.0819 -0.4132
75785W        W76649  24.304  23.203   1.306  0.3252  0.2405 -0.4177
75786W        W76650  25.039  25.950   1.071 -0.1009 -0.1270  0.0114
75787W        W76651  25.707  22.511  27.012  0.2966 -0.2762 -0.0492
75788W        W76652  22.075  27.013  26.441 -0.1432  0.3518 -0.0901
75789W        W76653  23.562  23.097  26.997  0.0475  0.0278 -0.1091
75790W        W76654  23.425  24.194  28.045 -0.3003  0.1505  0.1011
75791W        W76655  24.906  22.135  28.809 -0.2283 -0.1327 -0.1134
75792W        W76656  23.810  24.703  27.262 -0.0204  0.1343  0.1376
75793W        W76657  23.225  22.393  25.569  0.1828  0.1885 -0.0143
75794W        W76658  26.214  21.703  25.531  0.2233  0.0465 -0.3905
75795W        W76659  23.124  22.075  26.862 -0.1730 -0.2287 -0.0001
75796W        W76660  24.166  23.275  27.854  0.1042  0.2181  0.0130
75797W        W76661  23.826  23.615  27.122  0.0312 -0.0849  0.2610
75798W        W76662  23.216  24.760  28.827 -0.1181 -0.1951 -0.1224
75799W        W76663  24.192  24.199   1.596  0.2134 -0.0006  0.6546
75800W        W76664  24.510  21.479   2.109 -0.2477 -0.1530  0.0974
75801W        W76665  26.172  23.186  25.658 -0.0288 -0.3996 -0.0324
75802W        W76666  23.917  25.098  25.238 -0.2288 -0.1184 -0.3749
75803W        W76667  21.202  25.284  25.935 -0.0257 -0.0071 -0.2195
75804W        W76668  23.832  24.581  28.642  0.0248  0.3045 -0.2608
75805W        W76669  23.432  23.408  26.214 -0.1780 -0.1855  0.1873
75806W        W76670  26.080  24.734  28.886 -0.1312 -0.0524  0.4321
75807W        W76671  24.420  22.686  28.623 -0.3006 -0.0683 -0.5786
75808W        W76672  24.589  23.685  27.747 -0.0020 -0.0311  0.0119
75809W        W76673  25.085  24.686  27.338 -0.0646  0.0949 -0.1474
75810W        W76674  27.416  21.102  24.842  0.2225  0.2994  0.1397
75811W        W76675  23.865  23.914  24.717  0.1890 -0.0429  0.0369
75812W        W76676  22.472  23.948  25.260 -0.4085  0.1527  0.0827
75813W        W76677  24.776  23.623  28.711 -0.0639  0.2162 -0.1371
75814W        W76678  23.280  24.680  25.872 -0.1773  0.3606 -0.3984
75815W        W76679  25.823  21.845   0.332  0.3929 -0.2074  0.0820
75816W        W76680  20.978  24.341  27.094  0.0241 -0.3004 -0.1258
75817W        W76681  25.607  25.820  27.810 -0.3275  0.1381 -0.1028
75818W        W76682  24.209  22.620  25.906 -0.0991 -0.0748  0.4096
75819W        W76683  24.138  23.028  25.519 -0.3038  0.2256 -0.1640
75820W        W76684  24.933  23.247  25.509 -0.0453  0.0443 -0.0530
75821W        W76685  26.098  21.516   0.862 -0.1129  0.1164 -0.1314
75822W        W76686  25.726  22.256  26.574  0.1851 -0.2250 -0.2480
75823W        W76687  22.562  23.630  25.719 -0.1560  0.3319  0.1825
75824W        W76688  21.816  24.689  28.060 -0.1503 -0.2403  0.4021
75825W        W76689  22.510  24.808  27.084 -0.1156  0.2630  0.3652
75826W        W76690  23.468  23.493  26.712  0.3589 -0.0052  0.1750
75827W        W76691  23.199  27.465  23.920 -0.2401  0.0384 -0.1359
75828W        W76692  22.375  25.497   0.942  0.0358 -0.0282  0.2809
75829W        W76693  24.714  21.220  27.786 -0.3487  0.3567 -0.1842
75830W        W76694  23.919  23.309  28.332 -0.2558  0.0919 -0.0185
75831W        W76695  24.272  22.350  27.266  0.2866 -0.2740  0.3745
75832W        W76696  24.990  20.636  27.294  0.0821  0.0671 -0.0198
75833W        W76697  24.238  21.310  28.632 -0.0860  0.1072 -0.1934
75834W        W76698  21.835  22.300  25.931 -0.0355  0.2905 -0.3793
75835W        W76699  24.234  21.478  25.635 -0.0474  0.1061  0.1533
75836W        W76700  21.239  23.965  26.164  0.1290 -0.1739 -0.0076
75837W        W76701  23.972  25.289   0.057 -0.1769  0.1412 -0.3245
75838W        W76702  26.992  22.911  27.525  0.0344 -0.1689 -0.0886
75839W        W76703  24.330  22.064  27.800 -0.1405  0.0646 -0.2279
75840W        W76704  25.530  21.704  26.560 -0.0345 -0.1881  0.1496
75841W        W76705  22.899  21.985  25.144  0.0819 -0.4041  0.0463
75842W        W76706  23.418  24.297  28.558  0.0700  0.0134 -0.1256
75843W        W76707  25.218  23.425  27.414 -0.3347 -0.1423 -0.0106
75844W        W76708  26.446  27.492  27.914 -0.0950  0.0313  0.1009
75845W        W76709  22.790  24.631  24.261 -0.0274 -0.1911 -0.0773
75846W        W76710  21.951  22.943  28.741  0.2304  0.2409 -0.1803
75847W        W76711  22.628  21.445  28.002  0.0375 -0.0287  0.2832
75848W        W76712  24.725  22.882   1.172 -0.2185  0.2109  0.0577
75849W        W76713  25.462  20.631   0.679  0.0522 -0.0175 -0.1486
75850W        W76714  26.004  21.382   0.430 -0.0895  0.1049  0.1647
75851W        W76715  25.737  22.799  26.592  0.3832  0.1848 -0.1193
75852W        W76716  23.933  24.114  25.715 -0.1999 -0.1280  0.0790
75853W        W76717  26.228  25.469  25.670  0.1978 -0.1391 -0.0189
75854W        W76718  24.192  23.425   0.901 -0.0921 -0.1288  0.0349
75855W        W76719  22.092  22.085  28.962  0.1697  0.0804 -0.0757
75856W        W76720  26.531  21.074  26.250  0.0808  0.0621 -0.0126
75857W        W76721  24.094  21.790   1.059  0.0476 -0.0152  0.3758
75858W        W76722  24.552  24.034  28.887 -0.0806 -0.3397 -0.1477
75859W        W76723  24.719  22.561  27.183 -0.0360 -0.1442  0.1001
75860W        W76724  23.723  24.427  24.758  0.0530  0.1492  0.0949
75861W        W76725  23.852  24.160  28.323  0.0692  0.0117 -0.0164
75862W        W76726  23.638  25.035  28.518  0.1961  0.0698 -0.3166
75863W        W76727  25.639  19.765  28.840  0.0462  0.1961  0.0814
75864W        W76728  24.865  25.684  22.786  0.0484  0.3119 -0.0161
75865W        W76729  25.985  24.591   2.353  0.1666 -0.2307 -0.1136
75866W        W76730  24.195  22.753   1.269 -0.0815  0.1303 -0.1476
75867W        W76731  23.068  25.415  24.599  0.0415  0.0862  0.0590
75868W        W76732  22.597  24.811  26.356 -0.2244  0.0124 -0.1746
75869W        W76733  23.312  23.590   1.589 -0.2133 -0.0709 -0.0611
75870W        W76734  25.764  21.524  28.618  0.2741  0.2343 -0.4786
75871W        W76735  24.614  22.572  27.681 -0.1457  0.2205 -0.0722
75872W        W76736  27.550  24.970  28.033  0.0609  0.1572  0.3018
75873W        W76737  23.802  22.117  28.960  0.2244  0.0796  0.1059
75874W        W76738  24.848  27.412  28.295  0.1381 -0.0316  0.1069
75875W        W76739  25.201  24.503   2.193  0.0840 -0.1465  0.0985
75876W        W76740  23.811  24.493  26.817  0.0228 -0.0297 -0.0466
75877W        W76741  21.361  25.604  27.815 -0.2989  0.2417 -0.1320
75878W        W76742  22.451  21.731  27.601  0.0698 -0.2703  0.0869
75879W        W76743  22.526  22.938  28.434 -0.0331 -0.1902 -0.2653
75880W        W76744  25.047  23.858  27.667 -0.1637 -0.0818 -0.3326
75881W        W76745  21.242  26.123  25.439  0.1041 -0.2475 -0.6675
75882W        W76746  27.300  22.883  27.940  0.3760 -0.0457  0.3858
75883W        W76747  24.401  25.550  27.476  0.1175  0.0069  0.2497
75884W        W76748  24.919  25.940  28.955 -0.2318  0.3752 -0.0883
75885W        W76749  23.304  24.528  27.642  0.0327 -0.0373  0.1912
75886W        W76750  24.276  24.432  26.056  0.2279 -0.1976 -0.2407
75887W        W76751  24.310  26.564  29.014  0.0698 -0.5698 -0.0016
75888W        W76752  26.227  22.866   1.852  0.0580 -0.1803  0.0872
75889W        W76753  25.631  24.806   2.023 -0.2143  0.0770 -0.3806
75890W        W76754  23.512  22.050  24.447  0.1049  0.2611  0.0588
75891W        W76755  25.688  24.329   1.405  0.3726  0.0379 -0.1533
75892W        W76756  25.597  21.991  27.962 -0.3572 -0.0053  0.2118
75893W        W76757  24.692  23.913   1.429  0.0634 -0.2091  0.0264
75894W        W76758  24.081  21.839  28.600  0.0395  0.0588 -0.0624
75895W        W76759  25.139  24.637  28.237  0.2854 -0.1071  0.1086
75896W        W76760  23.424  25.382  26.937  0.3720 -0.0728  0.1934
75897W        W76761  25.506  23.295   1.375  0.3219  0.0010  0.1714
75898W        W76762  24.981  21.499   1.643  0.1963 -0.2152  0.0680
75899W        W76763  24.149  21.932   0.135 -0.0394 -0.2540 -0.5333
75900W        W76764  23.095  24.923  26.287  0.2444  0.0623  0.1566
75901W        W76765  24.952  23.526   0.111 -0.0192  0.0288  0.2004
75902W        W76766  22.870  23.948  25.993 -0.0545  0.0083  0.1398
75903W        W76767  22.899  21.453  27.437 -0.3984 -0.1335 -0.0595
75904W        W76768  22.658  22.208  27.704 -0.0839  0.0350  0.1009
75905W        W76769  26.045  22.645  27.522  0.1294  0.2898  0.0955
75906W        W76770  24.359  27.039  25.208  0.3687 -0.2589  0.2693
75907W        W76771  24.393  20.321   1.312  0.2160  0.1229  0.1999
75908W        W76772  22.716  22.456  28.187  0.2402 -0.5162  0.1239
75909W        W76773  23.448  22.097  28.026 -0.2178 -0.0416  0.2246
75910W        W76774  25.166  24.076  26.746 -0.1429  0.3159  0.2945
75911W        W76775  26.735  18.976   0.952 -0.3278  0.0676 -0.1032
75912W        W76776  22.232  22.296  28.168 -0.0999  0.0587 -0.1155
75913W        W76777  21.104  22.725  26.234  0.0132 -0.2509  0.1469
75914W        W76778  22.858  22.619  25.917 -0.1638  0.0431 -0.3603
75915W        W76779  22.554  25.209   0.102  0.0185 -0.2177 -0.1932
75916W        W76780  24.475  22.535   0.845 -0.2505 -0.0666  0.0990
75917W        W76781  21.735  21.807  23.596  0.4174 -0.2263  0.1996
75918W        W76782  22.173  25.174  27.071 -0.0366  0.1566  0.1730
75919W        W76783  20.643  25.247  27.602  0.2445  0.0436 -0.0730
75920W        W76784  25.808  20.300  26.867  0.2324  0.0422  0.3567
75921W        W76785  25.327  22.352  28.762  0.1412 -0.1414  0.0853
75922W        W76786  23.903  23.375  28.897 -0.0617 -0.1932  0.0578
75923W        W76787  21.403  23.864  27.698 -0.2072  0.2957  0.0729
75924W        W76788  28.391  20.755  25.828 -0.0278 -0.1335 -0.0574
75925W        W76789  24.754  26.125  25.613 -0.2025 -0.1426  0.1726
75926W        W76790  23.581  21.909  27.545  0.1039 -0.2371 -0.1331
75927W        W76791  24.896  21.713  24.942  0.0369 -0.2033 -0.0753
75928W        W76792  27.861  22.358  27.690  0.1928  0.2300 -0.2022
75929W        W76793  22.214  22.056  26.447  0.2672 -0.0455  0.0842
75930W        W76794  26.894  25.299  27.416  0.0323  0.3312  0.1493
75931W        W76795  24.559  24.163  27.516 -0.1407  0.1112  0.1113
75932W        W76796  26.403  22.442  27.861  0.1243 -0.2210 -0.1500
75933W        W76797  26.449  23.346  27.922 -0.2917 -0.2412  0.1875
75934W        W76798  26.489  21.775  26.981 -0.0736  0.0412  0.0887
75935W        W76799  22.794  25.145   0.840 -0.0428  0.4223  0.0363
75936W        W76800  22.452  25.580  25.289 -0.1242 -0.1154 -0.4236
75937W        W76801  21.172  21.722   0.167 -0.0684 -0.1986 -0.1103
75938W        W76802  23.962  24.341   2.055  0.2530  0.1245  0.0985
75939W        W76803  26.737  25.051  26.985 -0.2496 -0.1555 -0.2677
75940W        W76804  25.352  22.960  28.437 -0.0145  0.0481 -0.0361
75941W        W76805  25.539  24.617  27.839  0.0646 -0.1438 -0.2137
75942W        W76806  26.713  25.741   0.101  0.1030 -0.2182 -0.0495
75943W        W76807  24.810  22.479  28.364 -0.1294 -0.1489 -0.0035
75944W        W76808  25.142  21.868  27.737 -0.1616  0.0473  0.1732
75945W        W76809  21.275  23.966  28.373 -0.2588  0.3873 -0.0088
75946W        W76810  22.824  23.228  27.198 -0.0392 -0.1161  0.2848
75947W        W76811  21.859  25.982  29.005 -0.1320 -0.0739  0.1248
75948W        W76812  23.460  21.889  26.105 -0.3218 -0.1789  0.0310
75949W        W76813  25.240  25.949  26.654 -0.1055 -0.0035  0.3011
75950W        W76814  25.801  26.444   0.718 -0.1679 -0.0581  0.0979
75951W        W76815  23.642  25.780   0.612 -0.0808  0.2759  0.1186
75952W        W76816  24.319  21.420  26.418  0.1446  0.2467 -0.0399
75953W        W76817  22.469  22.223  24.397 -0.1365  0.1064  0.1988
75954W        W76818  22.321  24.513  27.816 -0.0955  0.1354  0.1192
75955W        W76819  25.020  24.406  27.718 -0.1236  0.3161 -0.3531
75956W        W76820  22.733  24.197   0.074  0.0583 -0.1963 -0.1975
75957W        W76821  25.409  24.184  24.082 -0.0612 -0.1102 -0.0406
75958W        W76822  23.158  22.212  27.321  0.4732 -0.0207 -0.3490
75959W        W76823  24.062  24.415   0.710 -0.1327  0.0954 -0.0548
75960W        W76824  21.628  25.117  26.094 -0.0751  0.2037 -0.2366
75961W        W76825  23.577  23.911  27.640 -0.1767  0.3865  0.2906
75962W        W76826  24.240  21.574  28.225 -0.3616 -0.1914  0.2880
75963W        W76827  24.006  25.692  27.210 -0.0911  0.3938  0.1672
75964W        W76828  24.090  23.086  26.960 -0.2876 -0.1836  0.2035
75965W        W76829  21.055  23.810  28.890  0.0755  0.0134 -0.0800
75966W        W76830  25.419  21.662  28.298  0.3321  0.2969 -0.0120
75967W        W76831  25.042  22.201  24.623 -0.1233  0.2330 -0.1310
75968W        W76832  26.520  20.524   1.903  0.2524  0.2021  0.3185
75969W        W76833  23.019  22.769   2.103  0.2044  0.1692  0.0305
75970W        W76834  25.523  21.948   2.481  0.2331 -0.0411 -0.2308
75971W        W76835  24.678  24.835  28.871  0.1373  0.1809  0.0619
75972W        W76836  23.828  24.246   0.290  0.1718 -0.0442  0.0297
75973W        W76837  25.420  27.484  27.430 -0.4986 -0.3115 -0.3229
75974W        W76838  24.223  20.527  26.011 -0.1153  0.0087  0.0811
75975W        W76839  25.513  21.061  28.464  0.4952  0.0557 -0.0194
75976W        W76840  22.819  23.777  27.342  0.0839  0.0013 -0.1324
75977W        W76841  25.303  22.046  26.246 -0.1823  0.0564 -0.2019
75978W        W76842  23.404  26.641   0.008 -0.0014  0.1155 -0.1033
75979W        W76843  21.770  24.320  27.612 -0.0111 -0.1244 -0.0545
75980W        W76844  21.956  24.336   1.535  0.1604  0.0946  0.0969
75981W        W76845  22.493  23.865  24.664 -0.2125  0.1124  0.2116
75982W        W76846  22.510  22.832  27.107 -0.1499  0.2762  0.1371
75983W        W76847  23.365  22.517  26.817 -0.0119 -0.0312 -0.3142
75984W        W76848  24.986  24.030   2.428 -0.0318  0.0062 -0.3509
75985W        W76849  23.053  21.890  27.808 -0.0374  0.2166  0.2881
75986W        W76850  24.573  22.911   1.636  0.0782 -0.2925  0.0126
75987W        W76851  26.139  21.373  24.716  0.2286  0.0422  0.2901
75988W        W76852  26.424  26.114  27.751  0.1453  0.1580  0.3017
75989W        W76853  22.148  23.823   0.055 -0.3071  0.0232 -0.0849
75990W        W76854  24.536  23.588  26.855  0.0853 -0.0008 -0.4522
75991W        W76855  25.801  21.148  26.960  0.2913 -0.0433  0.2465
75992W        W76856  20.987  25.361  28.034  0.1414 -0.0715  0.4374
75993W        W76857  24.291  23.177   4.723 -0.0476 -0.2220 -0.2314
75994W        W76858  24.631  23.213  27.587 -0.1219 -0.1954  0.1265
75995W        W76859  22.474  25.058  25.498 -0.0776 -0.2387  0.1946
75996W        W76860  23.464  25.428  25.502  0.3185 -0.0471 -0.1157
75997W        W76861  24.114  21.606  26.843 -0.1952  0.1846  0.0862
75998W        W76862  24.569  24.640  28.217  0.0906 -0.1309  0.0727
75999W        W76863  26.474  21.538  26.521  0.0196 -0.0083 -0.1086
76000W        W76864  23.667  26.066  27.401  0.0805  0.3624 -0.0277
76001W        W76865  24.006  27.023  28.115 -0.1835 -0.0542 -0.0940
76002W        W76866  25.402  23.982   0.875  0.1197  0.0660  0.0795
76003W        W76867  25.661  24.967  27.412 -0.1649  0.2202 -0.1131
76004W        W76868  23.890  22.633  27.011  0.0779  0.0390  0.1738
76005W        W76869  25.183  23.684  28.320  0.1317 -0.1438  0.2957
76006W        W76870  23.593  21.570  25.153  0.0120  0.0956 -0.1003
76007W        W76871  25.635  24.605  28.410 -0.2172  0.3642  0.1448
76008W        W76872  23.844  24.402  26.298 -0.2320  0.1834  0.2466
76009W        W76873  24.220  25.032   0.430  0.2209  0.2247  0.0196
76010W        W76874  25.615  24.195  26.947  0.1854  0.0480 -0.0726
76011W        W76875  22.595  23.680  28.160  0.1984 -0.0140  0.4696
76012W        W76876  22.786  21.880  27.186 -0.2297 -0.3283  0.2524
76013W        W76877  27.716  27.960   0.948  0.2270  0.1389  0.0152
76014W        W76878  24.067  21.208   3.337  0.2417 -0.2368  0.2334
76015W        W76879  21.517  21.682  27.362 -0.1375  0.1137  0.2225
76016W        W76880  24.819  24.424  28.597  0.2491 -0.0272  0.1706
76017W        W76881  24.206  24.532  27.471 -0.4474  0.0439 -0.1562
76018W        W76882  22.080  22.434  28.650 -0.0135  0.1220  0.0567
76019W        W76883  26.599  23.755  27.673  0.1355  0.1080 -0.0044
76020W        W76884  25.250  21.929   0.103 -0.3552  0.0820  0.0476
76021W        W76885  26.278  21.452  28.705 -0.0729 -0.1931 -0.1895
76022W        W76886  27.209  25.285  27.083  0.0501  0.1975  0.2899
76023W        W76887  25.774  22.530  27.956  0.2442 -0.3119  0.2553
76024W        W76888  21.562  26.840  24.970 -0.3227  0.4647 -0.4022
76025W        W76889  23.181  24.829   0.778 -0.0460  0.0177  0.2907
76026W        W76890  23.094  25.242   0.369  0.0657 -0.4162 -0.1678
76027W        W76891  23.027  22.848  28.524 -0.3085 -0.1930 -0.2569
76028W        W76892  25.740  23.177  27.497  0.2306 -0.3758 -0.0833
76029W        W76893  23.172  25.830  28.160  0.0930  0.2852  0.0154
76030W        W76894  25.315  25.720  27.178  0.0884 -0.0789 -0.2154
76031W        W76895  24.912  22.723  28.798  0.1938 -0.0098 -0.1813
76032W        W76896  25.407  25.083  28.366 -0.1080  0.1169  0.0299
76033W        W76897  22.820  23.573   2.414  0.1534  0.3257  0.3235
76034W        W76898  24.859  28.049  24.186 -0.0471  0.2494  0.3438
76035W        W76899  22.340  22.298  25.918 -0.1818  0.1029  0.0484
76036W        W76900  20.838   1.457   2.675 -0.2454 -0.2685 -0.0757
76037W        W76901  21.685  28.592   3.471 -0.1321 -0.1185  0.0020
76038W        W76902  25.120   0.024  27.350 -0.0855 -0.0866 -0.3185
76039W        W76903  25.071  29.028   3.403  0.1242  0.1328  0.1789
76040W        W76904  23.996  27.884  27.769  0.1038  0.2377  0.1732
76041W        W76905  22.126  25.267   0.527 -0.0508 -0.0282  0.3027
76042W        W76906  22.820  26.680   2.878 -0.0648  0.1281  0.1726
76043W        W76907  23.287  27.684   1.367 -0.1635  0.0252 -0.1970
76044W        W76908  20.154   1.434   2.672  0.0730  0.2690  0.1129
76045W        W76909  20.351  26.755   1.316  0.1041  0.4303 -0.3137
76046W        W76910  22.731  23.194   0.015 -0.1301  0.1343 -0.2316
76047W        W76911  25.529  26.965   1.938  0.2536  0.1158 -0.0487
76048W        W76912  24.754  22.525   1.989 -0.1092  0.0942 -0.0031
76049W        W76913  24.218  27.929   3.319 -0.2689  0.1806  0.1487
76050W        W76914  22.533  25.034   3.889 -0.2613  0.2108 -0.1783
76051W        W76915  23.257  28.794   4.519  0.0072  0.0754 -0.0669
76052W        W76916  22.245  27.436  28.168 -0.3088  0.2630  0.0191
76053W        W76917  23.103   0.420   1.241 -0.0895 -0.3294 -0.1358
76054W        W76918  21.742   1.168   3.082  0.0309  0.2234  0.0703
76055W        W76919  23.890  27.497   3.134  0.0726  0.1589 -0.0633
76056W        W76920  25.422   0.481   3.747 -0.0772  0.1612  0.2347
76057W        W76921  22.132  26.668   0.326 -0.0455  0.2083 -0.4319
76058W        W76922  21.609  27.699   0.754 -0.2493  0.0383 -0.0691
76059W        W76923  21.814  26.672   3.023  0.0732  0.3432  0.3314
76060W        W76924  23.045  26.292   2.672 -0.3346 -0.1803  0.3740
76061W        W76925  23.162  28.279   3.615 -0.3025 -0.0010  0.2118
76062W        W76926  26.718  25.855   4.644 -0.4112  0.2573 -0.2440
76063W        W76927  22.582  25.811   3.231  0.0750  0.1245  0.0430
76064W        W76928  24.566   0.887   4.846  0.0209  0.1362 -0.0148
76065W        W76929  24.632  28.449   4.693 -0.1938  0.0275  0.4152
76066W        W76930  22.744  28.355  28.167 -0.0017  0.1294  0.2224
76067W        W76931  26.061  27.168   4.389 -0.0123  0.1356  0.2461
76068W        W76932  21.524  28.633   1.952 -0.1257 -0.1465 -0.1597
76069W        W76933  24.092  27.214   3.864  0.1113 -0.1294  0.0390
76070W        W76934  21.646  25.831   3.133  0.0108 -0.1531  0.0524
76071W        W76935  26.317   0.625   4.821  0.0812  0.2295  0.1501
76072W        W76936  22.436  24.311   1.656 -0.0111  0.1545 -0.0541
76073W        W76937  23.749   0.142   3.201  0.0373 -0.3251  0.2575
76074W        W76938  24.463  27.356   1.860  0.1547 -0.1801  0.0960
76075W        W76939  25.783  24.910   3.729  0.2533  0.3307 -0.1770
76076W        W76940  23.276  26.695   1.134  0.1271  0.1925  0.0090
76077W        W76941  26.205  27.136   3.876 -0.0668  0.0894 -0.3014
76078W        W76942  24.050  28.842   4.691  0.0093 -0.1536 -0.1689
76079W        W76943  26.029  27.827   0.252 -0.1230 -0.3124  0.1864
76080W        W76944  22.164   0.191   0.770 -0.0832 -0.1756 -0.0136
76081W        W76945  22.720  28.622   1.024 -0.3901 -0.2087 -0.2193
76082W        W76946  24.583  26.313   1.765 -0.0497  0.4388 -0.3680
76083W        W76947  26.369  25.532   5.151 -0.1257  0.0312  0.0863
76084W        W76948  22.955  26.726   0.772 -0.2268 -0.0485  0.3113
76085W        W76949  24.355  26.910   0.654 -0.0435  0.0875  0.2129
76086W        W76950  20.718  27.844   3.141  0.2023  0.3073 -0.1604
76087W        W76951  23.489  25.527   0.171 -0.4317 -0.0696  0.3586
76088W        W76952  24.135   0.462   2.186 -0.1249 -0.0697  0.1479
76089W        W76953  22.829  26.033  28.550 -0.1681  0.1530 -0.1947
76090W        W76954  24.154  25.888   0.940  0.0483 -0.0521 -0.0417
76091W        W76955  22.127  27.749   0.384  0.1138  0.0394 -0.0595
76092W        W76956  21.646  25.023   0.179  0.1488 -0.1420  0.0479
76093W        W76957  22.848  25.567   1.831  0.0342 -0.1622  0.3639
76094W        W76958  23.915  26.221   1.393  0.2457 -0.0701 -0.1475
76095W        W76959  21.885  27.875   1.591  0.1607  0.0703 -0.2375
76096W        W76960  25.578  26.516  27.189  0.1982 -0.0609  0.0501
76097W        W76961  21.031   0.899   2.121 -0.0520  0.3062  0.0723
76098W        W76962  20.761  29.137   5.574  0.2584 -0.0061  0.0944
76099W        W76963  25.441  25.914   2.156  0.0856 -0.1398  0.0721
76100W        W76964  26.282  25.787   0.896  0.0056  0.3563 -0.0838
76101W        W76965  23.791  21.892   4.167 -0.0776  0.0259  0.0556
76102W        W76966  19.141  27.408   0.444 -0.0753 -0.2035  0.0631
76103W        W76967  20.908  26.798  28.487 -0.3635 -0.1776  0.1807
76104W        W76968  23.498   0.609   0.911 -0.2005  0.1397 -0.0424
76105W        W76969  20.742  27.979   0.634  0.3040  0.1740  0.0655
76106W        W76970  22.509  28.268   3.467 -0.1723  0.0672  0.0487
76107W        W76971  25.215  27.412  28.691  0.0118 -0.0036  0.1766
76108W        W76972  24.871   1.924   0.249  0.0285  0.3555 -0.2293
76109W        W76973  23.817  28.900   1.440  0.2483  0.0539 -0.1976
76110W        W76974  25.360  27.482   1.501  0.1678 -0.3922  0.1299
76111W        W76975  22.304  28.560   3.130 -0.0557 -0.1565  0.0160
76112W        W76976  21.543  28.014   3.272  0.0646 -0.1373  0.4247
76113W        W76977  20.943  28.600   1.850 -0.0244  0.0472  0.0899
76114W        W76978  25.633  26.782   2.403  0.3236 -0.2180  0.1534
76115W        W76979  23.177  28.539  27.916 -0.0761  0.1502 -0.1432
76116W        W76980  23.862  26.194   5.389 -0.1813  0.1539 -0.0809
76117W        W76981  22.894  26.791   2.408 -0.4501  0.0223 -0.3528
76118W        W76982  20.362  25.973   0.291  0.0619  0.4332  0.1434
76119W        W76983  20.934  24.470   2.646 -0.0263 -0.0284  0.0562
76120W        W76984  24.692  25.548   3.681 -0.0830 -0.1773  0.1565
76121W        W76985  24.991  26.154   2.113 -0.2392  0.1746  0.1136
76122W        W76986  25.941  27.785   2.218  0.0795  0.0503 -0.3275
76123W        W76987  24.149  24.609   5.670 -0.1002 -0.0252  0.0931
76124W        W76988  24.844  27.979   5.263  0.0612  0.0305 -0.0333
76125W        W76989  23.392  25.656   4.709  0.0708 -0.1588 -0.2639
76126W        W76990  25.340  24.497   3.035 -0.1720 -0.0910  0.1992
76127W        W76991  23.343  26.687   2.608  0.1308  0.1296 -0.0558
76128W        W76992  19.724   1.651   1.767  0.0491 -0.0478  0.1412
76129W        W76993  22.683  24.922  27.914  0.2080 -0.0775  0.0848
76130W        W76994  22.031  24.959   5.649  0.0745 -0.0993  0.0687
76131W        W76995  23.469  25.858   1.113 -0.2222  0.2818  0.0365
76132W        W76996  25.531  26.430   2.064 -0.2281  0.0555  0.1160
76133W        W76997  22.527   0.024   6.801 -0.1457  0.2399 -0.2394
76134W        W76998  22.548  25.971   1.806  0.1050 -0.1369 -0.1179
76135W        W76999  23.515  27.606   2.277 -0.2064  0.1557 -0.2455
76136W        W77000  27.290  29.041  28.606 -0.0935 -0.0838  0.1864
76137W        W77001  22.278  28.873   0.605  0.2603 -0.2800 -0.0128
76138W        W77002  25.463  23.515   0.947  0.2587 -0.2013  0.0896
76139W        W77003  23.620  27.865   1.009 -0.0270 -0.1477 -0.0261
76140W        W77004  26.436  25.467   2.976  0.1940  0.2907 -0.2477
76141W        W77005  23.273  27.200   2.388 -0.2290 -0.2180 -0.3057
76142W        W77006  21.890  28.001   2.482 -0.1554 -0.0367 -0.1563
76143W        W77007  23.649  27.945   2.925 -0.3693  0.1180  0.1296
76144W        W77008  25.338  23.095   2.366  0.4075 -0.3139 -0.0374
76145W        W77009  21.904  28.563   0.289 -0.5694  0.2172  0.0295
76146W        W77010  19.930  28.837   0.522 -0.1350 -0.0113  0.0598
76147W        W77011  25.730   2.493  28.714 -0.0840 -0.4128 -0.1869
76148W        W77012  21.868  28.262   2.919 -0.0460  0.0067 -0.0572
76149W        W77013  24.452  27.886   2.512  0.0373 -0.0722  0.1496
76150W        W77014  24.209  25.934  26.636 -0.0318  0.1144  0.1688
76151W        W77015  22.517  27.446  28.593 -0.1632  0.0255 -0.1025
76152W        W77016  25.194  22.350   3.937  0.3632  0.0114  0.0080
76153W        W77017  21.009   0.386   2.278 -0.0543  0.0596 -0.1361
76154W        W77018  24.175  26.060   1.844  0.0020  0.2588 -0.3075
76155W        W77019  24.030  28.566   0.470  0.0972  0.1676 -0.0340
76156W        W77020  25.458  25.264   1.300  0.0083 -0.1123 -0.4323
76157W        W77021  24.609  28.471   2.474  0.0948 -0.2471  0.1182
76158W        W77022  26.647  28.380   0.633 -0.0371 -0.0376 -0.2380
76159W        W77023  24.686  27.933   0.040  0.1086 -0.1172  0.0908
76160W        W77024  24.608  26.829   1.658  0.0905 -0.0076  0.1071
76161W        W77025  22.786  27.589   2.910  0.0114 -0.0576  0.0379
76162W        W77026  18.485  26.754   0.493  0.2543  0.2895 -0.1036
76163W        W77027  25.661  28.669   2.077 -0.1263 -0.0790 -0.2399
76164W        W77028  25.411   2.470   2.459  0.0346 -0.0381 -0.1924
76165W        W77029  22.011  28.676   2.102  0.2432 -0.0244  0.1364
76166W        W77030  24.098  28.143   2.829  0.1104 -0.0864  0.1842
76167W        W77031  23.740  27.900   1.493 -0.0508  0.2415  0.0154
76168W        W77032  21.175  28.733   3.462 -0.1441 -0.1570 -0.1530
76169W        W77033  24.068  24.846   2.309 -0.1892  0.2222 -0.0842
76170W        W77034  22.127  28.145   5.090 -0.1283  0.1352 -0.0733
76171W        W77035  23.712   2.084   0.276 -0.1247  0.0806 -0.4442
76172W        W77036  25.186  26.120   3.448  0.1312 -0.0272 -0.0556
76173W        W77037  24.720  24.370   4.628 -0.0487 -0.3263  0.0479
76174W        W77038  24.050  28.541   0.967 -0.1598 -0.1503 -0.0939
76175W        W77039  22.529  27.802   2.488 -0.2990  0.0583 -0.2015
76176W        W77040  23.503  23.303   0.920 -0.0798  0.0720 -0.2984
76177W        W77041  23.698  27.046   2.506 -0.1799 -0.1363  0.1316
76178W        W77042  23.657  28.474   2.799 -0.0218 -0.0197  0.1763
76179W        W77043  25.324  25.117   1.762  0.2102  0.0393 -0.2461
76180W        W77044  25.143   1.786   3.082 -0.2901  0.1354  0.0105
76181W        W77045  24.658  25.844  28.521 -0.1963  0.1376  0.1796
76182W        W77046  27.156  27.679   1.060  0.0704  0.2436  0.2746
76183W        W77047  23.736  28.240   1.944 -0.1336 -0.0796 -0.0784
76184W        W77048  21.523  29.010   3.146 -0.1283  0.0269 -0.0122
76185W        W77049  23.328   0.817   1.450 -0.1133 -0.3854 -0.1069
76186W        W77050  24.928   0.131   1.963 -0.1020  0.1857 -0.0738
76187W        W77051  23.933  26.010   2.335 -0.1780  0.0305  0.0514
76188W        W77052  24.038  24.909   0.884 -0.0193  0.0493  0.1145
76189W        W77053  22.754  25.870  25.966 -0.1009 -0.1432  0.1889
76190W        W77054  22.023  23.009   4.718  0.0136  0.1421 -0.0503
76191W        W77055  23.824  26.419   1.865 -0.0978 -0.0755  0.0803
76192W        W77056  22.939  29.058   1.145 -0.2032 -0.2443 -0.0914
76193W        W77057  23.545  27.168   0.326 -0.1505 -0.0636  0.0004
76194W        W77058  20.690  25.239  26.645 -0.1511 -0.0254 -0.2560
76195W        W77059  22.608  26.876   1.314  0.1312 -0.0958 -0.1468
76196W        W77060  22.913  25.541   3.437 -0.0658  0.0923 -0.3461
76197W        W77061  21.435  26.986   3.310 -0.2888  0.1917 -0.0110
76198W        W77062  24.711  25.711   2.115 -0.0909 -0.2583  0.0025
76199W        W77063  23.809  27.464   1.238 -0.1363 -0.0123 -0.3522
76200W        W77064  23.762  24.146   2.977  0.3152  0.0965 -0.1365
76201W        W77065  21.986  26.649   1.203  0.2009  0.0093  0.0295
76202W        W77066  22.432  25.586   2.487  0.0836 -0.0809 -0.0197
76203W        W77067  23.397  27.163   1.526 -0.2135 -0.1856 -0.0378
76204W        W77068  22.442   0.525   6.626  0.2975  0.0130  0.0810
76205W        W77069  22.782  25.931   2.237  0.0400  0.0431  0.0624
76206W        W77070  24.365  26.858   2.535  0.1694  0.1833  0.0144
76207W        W77071  24.563  25.712   0.976  0.1925  0.1251 -0.0871
76208W        W77072  23.395  27.232   0.841  0.0575  0.1422 -0.2355
76209W        W77073  23.053  27.256  28.536 -0.0536 -0.0658  0.0370
76210W        W77074  25.385  27.409   2.010 -0.0249  0.2258 -0.0829
76211W        W77075  28.391  27.226  28.832  0.2082  0.3430 -0.0877
76212W        W77076  24.773   0.250  28.755  0.1782  0.0648  0.0236
76213W        W77077  21.875   0.224   2.764 -0.2786  0.2325  0.0117
76214W        W77078  21.869  29.030   1.140  0.0253 -0.2006 -0.0749
76215W        W77079  23.353  26.498   3.061  0.0755 -0.1655  0.2200
76216W        W77080  23.064  27.957  26.954  0.2775 -0.0912  0.0968
76217W        W77081  24.189  27.771   0.098  0.0306 -0.1125  0.0873
76218W        W77082  24.169  25.790   0.072 -0.3233  0.0995 -0.3526
76219W        W77083  21.997  23.506   3.065  0.0077  0.2248 -0.1030
76220W        W77084  24.400  23.816   0.725 -0.1443 -0.0813  0.1582
76221W        W77085  23.871  26.671   2.865 -0.1999  0.1270 -0.0470
76222W        W77086  24.771  23.345   1.602 -0.1175  0.0279  0.0209
76223W        W77087  21.758  26.893   0.691  0.0325 -0.3646 -0.0032
76224W        W77088  23.164  28.825   3.518 -0.2179  0.1755 -0.3183
76225W        W77089  21.639  25.326   3.383 -0.1537 -0.3109  0.0081
76226W        W77090  21.923   0.240  28.057 -0.1212 -0.2358 -0.0959
76227W        W77091  21.586   0.394   4.146 -0.1801  0.0072 -0.1699
76228W        W77092  20.209  27.654   2.345 -0.1859  0.0718 -0.2246
76229W        W77093  22.500  25.807   5.969 -0.1506 -0.0517  0.0652
76230W        W77094  23.950  22.273   3.736 -0.1421  0.1567  0.1493
76231W        W77095  23.087  25.823   3.019  0.2715  0.0962 -0.0155
76232W        W77096  24.315  26.597   2.099 -0.1429  0.1082  0.0993
76233W        W77097  24.154  23.528   1.714  0.1072 -0.3644  0.1285
76234W        W77098  21.050  26.013  28.822 -0.2470 -0.1176  0.0886
76235W        W77099  26.946  24.790   3.540  0.2391  0.0338 -0.2230
76236W        W77100  20.868  26.150   3.326  0.1445  0.1509 -0.2356
76237W        W77101  24.479  26.052   4.005 -0.0981  0.2279 -0.0511
76238W        W77102  22.971  27.359   1.678 -0.2432 -0.0611  0.1769
76239W        W77103  22.742  26.362   2.139 -0.1788 -0.0528 -0.2521
76240W        W77104  24.964  26.938   3.172 -0.2541 -0.0972  0.0225
76241W        W77105  21.111  26.729  26.253 -0.1371  0.0452 -0.2909
76242W        W77106  20.329  27.830   3.490  0.2961 -0.0094 -0.1322
76243W        W77107  25.464  26.257   1.136 -0.0605 -0.1121  0.1477
76244W        W77108  23.539  26.327   0.409  0.2945 -0.3261 -0.2189
76245W        W77109  20.980   0.005  28.268  0.3477  0.4641 -0.0243
76246W        W77110  22.063  25.598   3.330  0.1007 -0.0700 -0.2284
76247W        W77111  21.466  25.240   4.061  0.1774  0.2075 -0.1303
76248W        W77112  23.218  25.783   2.488  0.0627  0.1564  0.1589
76249W        W77113  27.401  24.631   3.717 -0.0998 -0.0686  0.0014
76250W        W77114  25.507  27.841   3.007 -0.0942  0.1460  0.0478
76251W        W77115  26.323  28.093   1.818  0.2425  0.1088 -0.0615
76252W        W77116  24.481  26.902   0.150  0.1199 -0.2056 -0.0078
76253W        W77117  26.507   0.878   2.000  0.2014  0.1089 -0.1292
76254W        W77118  22.133  27.394   2.525 -0.2903 -0.1229 -0.0164
76255W        W77119  21.377  25.673   3.910  0.1219 -0.0899 -0.3161
76256W        W77120  25.240  27.344   2.998  0.0046 -0.0183 -0.0589
76257W        W77121  22.965  26.908   3.332  0.1415  0.3019 -0.2554
76258W        W77122  21.752  25.916   3.625  0.3211 -0.1614 -0.1860
76259W        W77123  24.255  23.248   2.414 -0.0517  0.0696 -0.0798
76260W        W77124  24.649  28.441  27.850  0.0128 -0.0636  0.0731
76261W        W77125  19.786  27.449   2.602 -0.1600 -0.0107 -0.1093
76262W        W77126  20.490  27.917   2.728  0.3796 -0.0039 -0.2263
76263W        W77127  25.842  26.994   0.817 -0.1367 -0.0988 -0.4113
76264W        W77128  23.770   0.880   1.266 -0.2357 -0.3103  0.0741
76265W        W77129  25.698   0.411   2.916  0.3072  0.2613  0.3911
76266W        W77130  23.779  25.880   3.585 -0.3077 -0.0709 -0.3419
76267W        W77131  23.670  26.396   4.451  0.0464 -0.0452  0.2132
76268W        W77132  23.078  27.721  28.901 -0.1229 -0.1069  0.0638
76269W        W77133  22.963  27.196   1.191  0.0141 -0.0662  0.1711
76270W        W77134  23.172  25.205   4.681  0.1561  0.0525  0.0131
76271W        W77135  24.256  27.336   0.384  0.3334  0.0502 -0.1474
76272W        W77136  24.985  26.840   1.318  0.2347  0.1796 -0.0373
76273W        W77137  23.318  21.952   2.510  0.2143  0.2992 -0.0847
76274W        W77138  25.520  28.113   3.523 -0.0211 -0.2411  0.4092
76275W        W77139  22.247  27.363   3.849 -0.2507 -0.0301  0.2714
76276W        W77140  23.185  28.767   2.779  0.1886 -0.1626 -0.1140
76277W        W77141  25.421  26.887   4.008 -0.0932  0.1977 -0.1067
76278W        W77142  20.800  26.103   0.089  0.1895  0.2066  0.3392
76279W        W77143  23.937  26.836   0.261  0.2177  0.1860  0.1299
76280W        W77144  22.807  25.508   3.979 -0.0690 -0.1270  0.1117
76281W        W77145  21.491   0.419  27.631  0.0524 -0.0223 -0.0606
76282W        W77146  25.384  26.797   0.912 -0.1784 -0.0855  0.0146
76283W        W77147  21.710  28.966   2.329  0.1613  0.1476  0.0106
76284W        W77148  25.296   2.327  28.739 -0.3104  0.0841  0.2079
76285W        W77149  22.136  25.892   1.176 -0.1126  0.2744  0.1181
76286W        W77150  24.509  26.907  27.629  0.1026 -0.2061 -0.1347
76287W        W77151  21.787   1.205   2.022  0.1950  0.1700  0.1409
76288W        W77152  26.682   1.357   4.094 -0.0502  0.2535 -0.3051
76289W        W77153  20.683  28.870   1.545 -0.0126 -0.3063  0.3145
76290W        W77154  22.603  27.266  27.710 -0.1359 -0.1642 -0.0716
76291W        W77155  25.221  28.551   2.307  0.2481 -0.1710 -0.0957
76292W        W77156  23.477  25.439   1.491  0.2867  0.4855 -0.0727
76293W        W77157  23.579  23.885   3.878 -0.2884  0.0591 -0.2636
76294W        W77158  25.259   0.425   2.631 -0.0776 -0.2462  0.1434
76295W        W77159  22.144  28.227   2.114  0.1098  0.2532 -0.3604
76296W        W77160  22.429  25.679   3.700  0.1771  0.1256 -0.0844
76297W        W77161  22.177  28.719   3.656  0.2059  0.2034 -0.1167
76298W        W77162  24.541  26.871   3.449 -0.0668 -0.0523 -0.0999
76299W        W77163  21.550  25.616   2.671 -0.0190  0.0421  0.1547
76300W        W77164  21.390  28.383   3.022 -0.0513  0.1054  0.0966
76301W        W77165  21.280  26.478   4.107  0.0221  0.1831 -0.1554
76302W        W77166  19.270  26.685   1.744  0.0231  0.1431  0.1035
76303W        W77167  24.396  27.399   2.451 -0.0638 -0.2361  0.0161
76304W        W77168  20.980  24.947   3.068  0.0856  0.0454 -0.0547
76305W        W77169  24.775  27.238   0.454  0.2742  0.0582 -0.2028
76306W        W77170  23.060  27.234   0.485 -0.0879  0.1716  0.1691
76307W        W77171  23.471  28.611   1.760 -0.1157 -0.1256 -0.0375
76308W        W77172  23.852  28.824   0.084 -0.0182 -0.2048 -0.0721
76309W        W77173  23.309  28.239   3.099  0.0813  0.1718 -0.0405
76310W        W77174  25.092  27.274   4.086  0.1062 -0.1013 -0.0876
76311W        W77175  23.759  25.352   0.964 -0.0653 -0.1414  0.3325
76312W        W77176  23.643  24.681   2.079  0.3655  0.0987  0.2335
76313W        W77177  22.434  28.428   4.105 -0.1686 -0.0403 -0.0626
76314W        W77178  22.294  26.012  28.711  0.0833  0.1514 -0.0953
76315W        W77179  22.515   1.576   3.718  0.0535  0.0070 -0.3466
76316W        W77180  23.666  27.594   0.565  0.0988 -0.1014  0.4329
76317W        W77181  24.848  25.434  28.604  0.0050 -0.1500 -0.2786
76318W        W77182  21.433  27.881  28.483 -0.1318  0.0084  0.2635
76319W        W77183  21.558  28.149   2.076  0.0255 -0.1143  0.2992
76320W        W77184  24.081  26.662   0.984  0.3012  0.0966  0.1348
76321W        W77185  25.785  25.824   2.561 -0.3346 -0.0325 -0.1048
76322W        W77186  23.303  27.687   1.880  0.3325  0.1183 -0.1289
76323W        W77187  21.176  26.025   2.946 -0.2845  0.1580  0.1701
76324W        W77188  24.512  26.247   0.883  0.0282 -0.3265  0.3233
76325W        W77189  23.073   0.312   2.336  0.1529  0.2124 -0.0988
76326W        W77190  23.565  26.750   0.657  0.1112  0.1160  0.0069
76327W        W77191  22.809  26.803  29.133 -0.0056  0.1157 -0.0255
76328W        W77192  25.001  28.927   3.913 -0.0078  0.1682 -0.0265
76329W        W77193  24.969  27.169   1.823 -0.0071 -0.1319 -0.0446
76330W        W77194  21.700  28.569   1.266  0.0492 -0.0085  0.0948
76331W        W77195  25.952  26.667   2.757  0.1948  0.0328  0.2800
76332W        W77196  22.430  26.643   2.429  0.0892  0.2866  0.1005
76333W        W77197  20.583   0.537   2.536  0.2255 -0.1985 -0.4189
76334W        W77198  26.326  27.131   2.577 -0.1368  0.1223  0.1692
76335W        W77199  21.200  27.646   0.208 -0.2983  0.1740 -0.0988
76336W        W77200  22.683  28.837   1.557 -0.0868  0.0170 -0.0888
76337W        W77201  22.232  24.806   4.859 -0.2997  0.1490 -0.0333
76338W        W77202  22.339   0.125   4.519  0.5719 -0.0756 -0.1441
76339W        W77203  22.916  28.167   4.104  0.0376 -0.2107  0.0437
76340W        W77204  22.483  26.351  29.126  0.1950  0.0692  0.2524
76341W        W77205  23.957  28.866   3.400  0.3051 -0.0454  0.3181
76342W        W77206  22.587  29.045   4.044  0.3978  0.0471  0.2713
76343W        W77207  22.924  25.885   0.956 -0.1432  0.1318  0.2837
76344W        W77208  24.337  25.552   1.833  0.1621 -0.1585 -0.2759
76345W        W77209  22.319   0.646   2.764 -0.4719 -0.1999 -0.0735
76346W        W77210  21.681  26.990   1.466 -0.0475 -0.3969 -0.0019
76347W        W77211  20.597  27.006   3.503  0.1359 -0.0248 -0.1310
76348W        W77212  22.479  25.680  29.131  0.0025 -0.0917 -0.0337
76349W        W77213  23.911  28.376  28.550 -0.1232  0.2132 -0.1677
76350W        W77214  21.382  28.214   3.717 -0.3259  0.2332 -0.0685
76351W        W77215  23.725   0.395   3.658  0.1252 -0.3143  0.0406
76352W        W77216  19.882  26.641   0.914  0.0982 -0.3024  0.0942
76353W        W77217  24.528  23.980  28.424  0.2746  0.0456 -0.1194
76354W        W77218  22.553  28.296   4.595 -0.3239 -0.1315  0.1448
76355W        W77219  22.615  24.449   0.485 -0.0218 -0.0599 -0.1232
76356W        W77220  23.835   1.207   1.681  0.0243 -0.3422  0.0834
76357W        W77221  24.551  27.373  29.130 -0.2912  0.0155 -0.1792
76358W        W77222  21.280  27.924   2.438  0.1247  0.3471 -0.2688
76359W        W77223  23.183  29.072   4.999 -0.1609  0.1162 -0.2008
76360W        W77224  23.369  27.133  29.030 -0.1753 -0.3790  0.1131
76361W        W77225  23.517   1.389   1.968  0.0761  0.1249  0.2162
76362W        W77226  22.611  26.036   1.309 -0.0666 -0.0659 -0.0487
76363W        W77227  22.388   0.099   2.903  0.2694  0.1784 -0.0856
76364W        W77228  23.292  25.210  28.961  0.2722 -0.4251 -0.0739
76365W        W77229  21.670  29.062   0.241 -0.1309 -0.2187 -0.1186
76366W        W77230  21.899  23.866   1.413 -0.1650 -0.0629 -0.2695
76367W        W77231  24.375  25.943   0.492 -0.3403  0.0191  0.1277
76368W        W77232  24.449  26.893   4.393  0.3415  0.0746 -0.1238
76369W        W77233  24.067  28.689   2.715 -0.0507  0.0685 -0.1094
76370W        W77234  24.053  26.213   3.806  0.0999 -0.0227  0.0671
76371W        W77235  23.517  28.818   3.167  0.1711  0.1830 -0.1064
76372W        W77236  24.361   2.520  28.806  0.1745  0.2693  0.1702
76373W        W77237  22.195  26.246   1.501  0.2184  0.2185  0.1838
76374W        W77238  24.196  28.547  28.999 -0.1992  0.0433 -0.0452
76375W        W77239  21.393  27.174   0.018 -0.0104 -0.3182  0.0479
76376W        W77240  23.942   0.111   1.105  0.1044 -0.3194 -0.2536
76377W        W77241  23.541  27.398   2.787  0.1570 -0.0091 -0.2787
76378W        W77242  24.691  27.065   2.202  0.4834 -0.0044 -0.0756
76379W        W77243  22.292  28.370  26.939 -0.1218 -0.2397 -0.2425
76380W        W77244  23.445  28.032  28.631  0.0463 -0.1316 -0.1704
76381W        W77245  22.679  28.696   3.704 -0.3005 -0.3403 -0.0825
76382W        W77246  22.049  24.043   1.938  0.0764 -0.1121  0.1264
76383W        W77247  21.703  26.163   1.207 -0.1165 -0.2059 -0.2255
76384W        W77248  21.729  29.018   1.656  0.1894  0.1822 -0.1010
76385W        W77249  20.620  24.210   0.830 -0.0844 -0.0800 -0.1350
76386W        W77250  23.464  26.473   1.547 -0.1635 -0.3780 -0.1560
76387W        W77251  25.159  27.935   1.933  0.1860 -0.0588  0.1471
76388W        W77252  22.259  27.718   3.501  0.0489  0.3295  0.0462
76389W        W77253  22.782  29.084   2.561 -0.0178  0.0553 -0.1307
76390W        W77254  24.596  29.054  27.230  0.2365  0.2949 -0.0501
76391W        W77255  24.977  25.298   0.362  0.0122 -0.2866  0.0227
76392W        W77256  19.044   0.453   1.689  0.2018 -0.0106 -0.1494
76393W        W77257  20.958  25.499   4.083  0.1406 -0.0271  0.1550
76394W        W77258  22.781  25.441   4.493 -0.1992  0.1991 -0.3049
76395W        W77259  22.882  27.275  29.112  0.0153  0.0987 -0.0895
76396W        W77260  21.729  27.243  27.301 -0.1302  0.0334  0.1913
76397W        W77261  26.653  27.502   2.791 -0.1338  0.2437  0.1629
76398W        W77262  22.825  28.417   1.810 -0.0825 -0.2203  0.0696
76399W        W77263  23.858  25.382   1.862 -0.0740  0.1032  0.3170
76400W        W77264  19.805   1.292   2.306  0.2944  0.3961 -0.0902
76401W        W77265  23.811  29.136   4.129  0.1389 -0.0932  0.2666
76402W        W77266  22.678  28.037   0.076 -0.2640  0.0810 -0.2235
76403W        W77267  23.690  23.859   1.648  0.1896 -0.0646 -0.0770
76404W        W77268  24.200  27.878  26.532  0.0518  0.2945  0.2270
76405W        W77269  23.233  24.077   1.658  0.2373  0.0217 -0.1394
76406W        W77270  24.008  26.340  28.390 -0.0179  0.1199 -0.0684
76407W        W77271  25.530  28.070   0.492  0.0606  0.2718  0.2121
76408W        W77272  21.972  27.354   1.735  0.0288  0.0106 -0.1025
76409W        W77273  22.546  26.882   4.625  0.0434 -0.1305 -0.0477
76410W        W77274  22.811   1.095   2.031  0.0676  0.0522 -0.1333
76411W        W77275  23.702  25.529   3.961  0.3015 -0.0456  0.0673
76412W        W77276  21.251  26.821   1.650 -0.0351  0.1985 -0.1790
76413W        W77277  23.336  28.333   5.051  0.0764  0.3263  0.1983
76414W        W77278  25.835  28.900   2.952 -0.1319 -0.0531  0.4817
76415W        W77279  21.520  28.036   1.104 -0.2755 -0.0526 -0.2280
76416W        W77280  22.653  26.819   2.001 -0.2080  0.2105 -0.3744
76417W        W77281  24.477  25.912  27.110  0.0007 -0.0386  0.0239
76418W        W77282  22.736  27.618   0.348 -0.0827 -0.0304  0.0355
76419W        W77283  23.074  27.650   0.862  0.3102 -0.2486  0.1077
76420W        W77284  23.700   0.644   3.102 -0.2020 -0.0051 -0.1080
76421W        W77285  22.074  26.357   2.686 -0.1807  0.2097 -0.1206
76422W        W77286  22.165   1.405  28.168 -0.0268  0.0985  0.3797
76423W        W77287  23.138   0.468   1.730 -0.3495  0.1984 -0.2926
76424W        W77288  22.474  28.695   2.004  0.1532  0.1611  0.1124
76425W        W77289  24.454  27.571   6.335 -0.1664  0.5417  0.0140
76426W        W77290  21.530  28.968   4.199 -0.3439 -0.0372 -0.1470
76427W        W77291  22.121  26.438   2.020  0.2374 -0.0348  0.0351
76428W        W77292  22.623  28.255   2.235  0.2015 -0.0521 -0.1540
76429W        W77293  24.926   0.923   0.865  0.0494 -0.0212 -0.1308
76430W        W77294  22.288  28.029   2.996  0.0712 -0.1531  0.0550
76431W        W77295  23.273  26.619   2.027  0.1283  0.0131 -0.1310
76432W        W77296  23.439   0.776   3.557 -0.0034 -0.1062  0.2466
76433W        W77297  20.666   1.365   5.382 -0.1852 -0.0577  0.1517
76434W        W77298  24.476  27.769   0.475 -0.3046 -0.1341  0.0045
76435W        W77299  20.716  26.715   0.668  0.0829 -0.0108 -0.0147
76436W        W77300  22.850   3.636   6.860  0.0344 -0.0274 -0.1263
76437W        W77301  21.751  24.710   6.019 -0.0016  0.3803  0.0637
76438W        W77302  26.875  26.568   3.906 -0.0389  0.1844  0.2123
76439W        W77303  24.195  27.986   5.533 -0.0304 -0.0471 -0.3785
76440W        W77304  20.247   1.304   3.214 -0.1208  0.1598  0.0712
76441W        W77305  24.040  27.224   5.400  0.0114  0.1064 -0.0344
76442W        W77306  23.582  25.544   6.989  0.2600  0.0588 -0.2255
76443W        W77307  24.097  26.459   4.243  0.2081 -0.2259 -0.1303
76444W        W77308  22.865   2.126   5.038  0.0086 -0.0444 -0.2195
76445W        W77309  21.041  26.946   6.066  0.2514 -0.1510  0.3207
76446W        W77310  23.517  24.567   6.797 -0.1689 -0.3096  0.0559
76447W        W77311  23.876  25.492   4.778 -0.1000 -0.1703 -0.2412
76448W        W77312  27.003  26.530   1.693  0.2190  0.2493 -0.1064
76449W        W77313  25.398  28.070   5.368 -0.1664 -0.0068  0.0466
76450W        W77314  19.962  27.632   1.773  0.0625 -0.1771  0.1196
76451W        W77315  22.158  27.975   4.613  0.0384  0.1225 -0.1003
76452W        W77316  22.568  27.020   0.333 -0.0783  0.1407 -0.0431
76453W        W77317  21.984  26.890   4.720 -0.1693 -0.3034 -0.0563
76454W        W77318  23.217  26.903   6.788  0.1189 -0.2621  0.1462
76455W        W77319  22.214  28.984   7.255 -0.1388 -0.2021 -0.2353
76456W        W77320  24.698   0.365   4.275  0.0359 -0.0686  0.0594
76457W        W77321  24.321  27.442   3.431 -0.1456 -0.1867 -0.1388
76458W        W77322  23.016  27.415   5.224  0.1552 -0.0280 -0.1450
76459W        W77323  23.237  27.512   3.163  0.2698  0.2105 -0.0912
76460W        W77324  20.169  26.159   4.660 -0.0838  0.0522  0.0125
76461W        W77325  23.366  26.555   7.195 -0.1311 -0.0868  0.0823
76462W        W77326  24.809  25.626   5.535  0.1237 -0.0617  0.5761
76463W        W77327  25.707  26.673   7.366  0.3844 -0.0609 -0.0638
76464W        W77328  21.572   0.754   6.937 -0.0824 -0.3419  0.0386
76465W        W77329  21.991  25.889   4.855 -0.0231 -0.2290  0.2009
76466W        W77330  25.880  26.270   4.265 -0.4855 -0.0182 -0.1452
76467W        W77331  24.204  27.231   8.029 -0.0912 -0.0047 -0.1004
76468W        W77332  22.803  28.178   6.892 -0.2417 -0.0537 -0.2478
76469W        W77333  23.714  26.775   6.928  0.0286 -0.1763  0.4135
76470W        W77334  23.105  28.204   4.553  0.1256  0.0552 -0.1159
76471W        W77335  23.729  27.740   5.672 -0.2428  0.0463  0.1009
76472W        W77336  25.420  26.420   3.008 -0.3689  0.2457  0.0545
76473W        W77337  24.658  26.844   7.129  0.0938  0.1356  0.2339
76474W        W77338  26.403  28.896   2.856 -0.2013  0.0515 -0.0181
76475W        W77339  27.192  27.045   4.106  0.1185 -0.2036 -0.2002
76476W        W77340  26.200  26.225   5.314  0.1363  0.1117 -0.0743
76477W        W77341  25.884  28.409   7.524 -0.1321  0.0237  0.0729
76478W        W77342  21.822   0.942   5.967  0.0117 -0.0962 -0.3964
76479W        W77343  21.866   0.784   5.311  0.3481  0.1031  0.1956
76480W        W77344  20.361  28.341   3.654  0.0736 -0.1476 -0.2002
76481W        W77345  25.019   1.748   2.553 -0.2725 -0.1584 -0.1588
76482W        W77346  21.908  23.939   4.317  0.0292 -0.2077  0.1533
76483W        W77347  22.148  25.976   3.999 -0.0512 -0.2947 -0.1342
76484W        W77348  23.113  25.172   3.090 -0.1363  0.1500  0.1754
76485W        W77349  25.658  25.408   3.464  0.2527 -0.0100 -0.2142
76486W        W77350  23.033  27.805   6.335 -0.1864  0.2597  0.1350
76487W        W77351  22.634  26.528   3.481 -0.0489 -0.2531  0.0278
76488W        W77352  23.375  29.026   7.604  0.1370 -0.0714  0.2272
76489W        W77353  24.999  25.210   4.269 -0.0045  0.0906  0.0139
76490W        W77354  24.069  24.992   3.195  0.1631 -0.3075 -0.1574
76491W        W77355  19.421  27.307   3.955 -0.1763  0.1750 -0.0780
76492W        W77356  22.181  24.378   7.610  0.1484  0.1717 -0.1636
76493W        W77357  24.083  23.715   5.296  0.0212 -0.0702 -0.0330
76494W        W77358  21.265  28.383   5.806 -0.0742  0.2072 -0.0715
76495W        W77359  22.876  26.434   5.068 -0.0873 -0.1816  0.0831
76496W        W77360  21.810  26.551   4.142 -0.1715 -0.0779  0.1649
76497W        W77361  22.819  27.756   4.567 -0.1185 -0.2152  0.3296
76498W        W77362  24.675  27.794   5.710  0.3946  0.2521 -0.3292
76499W        W77363  22.479  27.800   6.440 -0.1349  0.1099  0.3426
76500W        W77364  22.629  27.841   5.398  0.0686 -0.0398 -0.1089
76501W        W77365  24.896  25.775   6.812 -0.0585 -0.1414 -0.0090
76502W        W77366  21.347  26.919   2.248 -0.0414 -0.1215 -0.1392
76503W        W77367  22.263  25.367   4.219  0.0599  0.3335 -0.1108
76504W        W77368  23.837  26.944   4.261 -0.0007  0.1644 -0.0751
76505W        W77369  20.652  25.003   4.043  0.1028 -0.1770  0.0370
76506W        W77370  23.354  27.668   8.082 -0.0793 -0.0823 -0.1580
76507W        W77371  23.812  25.310   3.493  0.1494  0.0758  0.0138
76508W        W77372  25.174  27.708   3.361 -0.0548 -0.0073  0.2738
76509W        W77373  25.954  27.215   5.280 -0.0619 -0.1203  0.1092
76510W        W77374  25.028  28.083   3.717  0.0398  0.3456 -0.0727
76511W        W77375  23.330  26.460   5.341 -0.0232  0.0555 -0.3049
76512W        W77376  22.364  26.528   4.356 -0.0116  0.1671  0.0411
76513W        W77377  23.497  25.980   4.354 -0.0766  0.0398  0.0471
76514W        W77378  25.538  28.416   1.301  0.1973 -0.2452  0.0602
76515W        W77379  21.822  28.804   4.670  0.3314 -0.1198  0.4548
76516W        W77380  25.964  27.817   3.130 -0.2826 -0.3428  0.1739
76517W        W77381  20.638  25.628   6.281  0.1764  0.1296 -0.1592
76518W        W77382  22.717  25.068   4.865  0.0179 -0.0244  0.1677
76519W        W77383  23.278  26.920   5.150 -0.2146 -0.0376  0.0721
76520W        W77384  21.236  27.365   9.375  0.1839 -0.0570 -0.0935
76521W        W77385  24.064  26.161   2.963 -0.2763 -0.3926  0.1897
76522W        W77386  24.678  28.317   6.303  0.3053 -0.3143 -0.0156
76523W        W77387  25.704  26.053   6.685  0.0047 -0.0372 -0.1152
76524W        W77388  23.070  27.310   7.163 -0.2411 -0.3154  0.0131
76525W        W77389  25.013  25.252   5.918  0.1282  0.1930  0.0588
76526W        W77390  23.240  25.847   3.866 -0.1183 -0.1754  0.2957
76527W        W77391  24.659  26.522   5.205 -0.1510  0.0625  0.2223
76528W        W77392  22.072   0.683   3.791 -0.1922 -0.1825 -0.0901
76529W        W77393  24.069  27.186   2.765 -0.1040  0.1466  0.0811
76530W        W77394  24.032  26.156   7.086  0.2886 -0.1695 -0.0771
76531W        W77395  23.831  27.414   1.730  0.2599  0.1907  0.0202
76532W        W77396  25.377  24.079   2.697  0.0102 -0.0701  0.2145
76533W        W77397  22.552   0.614   8.113 -0.3326  0.2526  0.0330
76534W        W77398  22.743  25.436   6.868  0.0234  0.4085  0.3618
76535W        W77399  28.111  27.181   5.110  0.1409  0.1119 -0.1056
76536W        W77400  24.211  28.896   3.893 -0.1590 -0.0596 -0.1025
76537W        W77401  24.493  26.981   5.393 -0.4255  0.0205 -0.4772
76538W        W77402  25.998  25.717   3.270  0.2023  0.3610 -0.3191
76539W        W77403  24.832  26.642   5.745 -0.1835  0.0655  0.0348
76540W        W77404  24.951  26.169   5.523  0.1550  0.2817  0.2227
76541W        W77405  22.838  28.669   4.233  0.1800  0.3161 -0.0509
76542W        W77406  23.752  27.260   5.773 -0.1460  0.0677  0.1509
76543W        W77407  25.291  26.791   7.692  0.0382  0.3410 -0.1241
76544W        W77408  24.297  22.252   6.733 -0.0308 -0.0778  0.0425
76545W        W77409  21.584  27.258   3.900 -0.0653  0.1896 -0.1599
76546W        W77410  22.161   1.038   7.312 -0.3582 -0.1153 -0.0379
76547W        W77411  23.269   0.726   6.150 -0.2190 -0.0301 -0.0916
76548W        W77412  24.908  26.001   4.293  0.0219 -0.0856 -0.0550
76549W        W77413  22.227   1.501   6.520  0.3438  0.0103  0.0488
76550W        W77414  23.059   1.660   2.624  0.0881 -0.2649  0.0529
76551W        W77415  20.825  26.443   2.859  0.0414  0.1533 -0.0688
76552W        W77416  28.346  26.263   6.070  0.1376 -0.0269  0.0864
76553W        W77417  24.136  24.669   7.439  0.1040  0.2215 -0.0787
76554W        W77418  25.292  26.670   3.471  0.4143 -0.1360  0.0524
76555W        W77419  23.419  27.854   4.560  0.1007  0.1040 -0.2417
76556W        W77420  25.593  26.713   5.105 -0.1579  0.0299 -0.0831
76557W        W77421  22.691  28.930   5.013 -0.0355  0.1239  0.0468
76558W        W77422  22.602   0.619   5.395  0.0320  0.1609  0.4022
76559W        W77423  24.266  27.695   3.953  0.0349  0.1717  0.0362
76560W        W77424  24.966  27.592   6.645 -0.3674  0.2766  0.1078
76561W        W77425  25.430  28.966   4.194  0.0608 -0.2532 -0.2660
76562W        W77426  21.114  24.210   4.161  0.2003  0.2818 -0.0261
76563W        W77427  26.034  27.181   7.125 -0.0009  0.3003  0.2344
76564W        W77428  24.313  28.121   5.065  0.2426 -0.0563  0.2013
76565W        W77429  22.630   2.584   6.195 -0.0463 -0.1465 -0.1694
76566W        W77430  23.877  28.977   5.816 -0.0273  0.0189 -0.1316
76567W        W77431  22.989  28.692   7.186 -0.1190 -0.0065  0.0562
76568W        W77432  20.987   0.387   5.351 -0.3480 -0.1407 -0.0867
76569W        W77433  25.344  26.175   5.220 -0.2800  0.1626 -0.3098
76570W        W77434  25.789  24.046   7.356  0.0096  0.0709  0.0060
76571W        W77435  22.542  25.597   4.944 -0.1331 -0.1050  0.0192
76572W        W77436  25.313  27.212   3.556  0.1777 -0.1824  0.1530
76573W        W77437  22.571  24.064   6.633 -0.1668  0.0051 -0.1372
76574W        W77438  24.070  26.998   3.245  0.1486  0.1622 -0.0926
76575W        W77439  20.727  28.658   4.184 -0.2326  0.0817 -0.2221
76576W        W77440  23.887  25.254   2.680 -0.1087 -0.0730 -0.0137
76577W        W77441  25.172  23.965   5.382 -0.2605 -0.0636  0.0109
76578W        W77442  19.282  27.790   3.524 -0.2060 -0.1813  0.0409
76579W        W77443  23.887  26.770   6.213 -0.2952  0.0433 -0.0018
76580W        W77444  24.838  28.848   8.712  0.1214 -0.4119  0.1873
76581W        W77445  23.289  25.327   5.573  0.0325 -0.1121  0.1362
76582W        W77446  23.493  27.192   3.938 -0.1191  0.0590  0.1409
76583W        W77447  25.737   0.478   6.146  0.1837 -0.0563  0.1439
76584W        W77448  23.194  25.875   7.004  0.3433  0.1416  0.2700
76585W        W77449  24.814   1.558   3.419  0.2118  0.0988 -0.2640
76586W        W77450  24.587  25.356   6.195  0.0920  0.2556  0.0884
76587W        W77451  23.028  27.140   2.827 -0.2684  0.2047 -0.0037
76588W        W77452  21.151   1.315   5.602 -0.3962 -0.0912 -0.1643
76589W        W77453  21.369  28.185  28.841  0.0971 -0.1800 -0.0317
76590W        W77454  23.442  26.097   5.732  0.0875  0.1213 -0.0234
76591W        W77455  23.652  23.968   5.527  0.0117  0.0783 -0.0194
76592W        W77456  23.015  28.222   7.466  0.2723  0.1764  0.0518
76593W        W77457  22.670  27.394   4.070  0.3785  0.0262 -0.1744
76594W        W77458  24.284  22.758   4.433  0.2465 -0.0958 -0.2209
76595W        W77459  24.249  26.019   4.603 -0.2568 -0.0258  0.1471
76596W        W77460  24.348  26.397   3.459  0.0508  0.0295  0.0368
76597W        W77461  21.449  26.807   3.830  0.1391  0.3418  0.0037
76598W        W77462  22.952  26.797   7.248  0.1396  0.2571  0.2779
76599W        W77463  24.470  25.896   7.263 -0.2287  0.0166  0.0882
76600W        W77464  23.517  26.079   8.324  0.1857  0.0334  0.4311
76601W        W77465  20.937  25.507   6.796  0.1739  0.3350  0.0697
76602W        W77466  23.059  24.220   3.744 -0.1983  0.0084  0.1269
76603W        W77467  20.567  28.163   4.328  0.0839  0.2547 -0.1573
76604W        W77468  26.419  29.145   7.194  0.0150  0.1005 -0.1072
76605W        W77469  21.174   1.367   3.756 -0.1401 -0.1227  0.1692
76606W        W77470  25.241  28.584   3.592 -0.1691  0.4298  0.2437
76607W        W77471  24.829  28.140   4.183  0.0149  0.0239 -0.3232
76608W        W77472  24.252  26.597   6.975  0.2608 -0.0802 -0.0612
76609W        W77473  24.336  28.378   4.084 -0.1316  0.1648  0.0960
76610W        W77474  23.958  22.684   5.237 -0.0368 -0.1331  0.0134
76611W        W77475  26.746  25.386   4.782  0.1068 -0.0012  0.0166
76612W        W77476  22.518  27.341   5.363  0.1246 -0.0298 -0.0380
76613W        W77477  20.687  27.456   4.834  0.0078  0.2370  0.3196
76614W        W77478  21.355  27.860   5.903  0.3116 -0.1806  0.1663
76615W        W77479  24.020  25.622   7.267  0.0243 -0.2606 -0.1623
76616W        W77480  21.971  28.178   3.451  0.1116  0.1349  0.1860
76617W        W77481  23.880  28.382   3.246  0.1726  0.1813  0.0789
76618W        W77482  24.555  28.941   3.419  0.1734  0.0410 -0.1119
76619W        W77483  22.432  27.570   8.519 -0.3315 -0.2705 -0.0417
76620W        W77484  25.153  26.064   2.815 -0.1721 -0.2382  0.0568
76621W        W77485  24.074  25.489   5.769 -0.2235 -0.4209 -0.2427
76622W        W77486  24.617  25.613   3.158  0.0876  0.2531  0.1028
76623W        W77487  20.472  27.417   3.245  0.1379 -0.0536  0.0089
76624W        W77488  22.596  28.044   7.753 -0.0680  0.1089 -0.3487
76625W        W77489  20.989  26.639   3.561 -0.2674 -0.1807 -0.2117
76626W        W77490  22.705  26.590   5.907  0.2617  0.5319 -0.1984
76627W        W77491  22.439  27.192   5.880 -0.1792  0.3789 -0.1919
76628W        W77492  19.670  25.783   4.714 -0.0835 -0.3846  0.1625
76629W        W77493  23.932  23.642   7.211  0.2844  0.0912 -0.0235
76630W        W77494  24.368  24.957   5.276  0.1533 -0.3168 -0.0973
76631W        W77495  23.505  27.821   5.103  0.2681  0.1407 -0.0845
76632W        W77496  24.763  27.675   3.847  0.0231  0.1685 -0.1946
76633W        W77497  22.405  26.884   5.456  0.0273  0.2249 -0.0513
76634W        W77498  21.723  27.052   6.028 -0.1799 -0.1168  0.1012
76635W        W77499  23.046  25.743   5.697 -0.0764 -0.1601  0.0825
76636W        W77500  22.014  24.943   6.489  0.2210  0.0778 -0.2870
76637W        W77501  23.588  25.025   3.953 -0.0206  0.0165  0.0471
76638W        W77502  23.591   1.848   4.406 -0.1166 -0.2132 -0.2828
76639W        W77503  22.149  25.409   4.747 -0.0863  0.2089  0.1750
76640W        W77504  22.795  24.511   6.486 -0.1084 -0.0781  0.0823
76641W        W77505  23.613  23.877   2.514 -0.0214  0.1447 -0.0235
76642W        W77506  23.893  27.868   4.759  0.0064  0.1201  0.0147
76643W        W77507  25.093  27.658   4.524  0.0448  0.0502 -0.0391
76644W        W77508  21.174  26.916   4.446 -0.0079  0.0355  0.0477
76645W        W77509  22.630  25.123   3.400 -0.0076 -0.2396  0.0798
76646W        W77510  21.916   1.241   6.935 -0.0059 -0.1052 -0.3176
76647W        W77511  23.345  27.670   5.991 -0.0033  0.0814 -0.0414
76648W        W77512  20.247  27.213   5.996 -0.1384 -0.2666  0.0338
76649W        W77513  25.412  26.490   6.658 -0.0261 -0.0377 -0.1318
76650W        W77514  26.665  25.599   7.958 -0.0331 -0.0301  0.2239
76651W        W77515  25.114  26.545   4.993 -0.0940  0.1122  0.2806
76652W        W77516  21.853  27.330   5.152 -0.0406 -0.2881  0.0651
76653W        W77517  25.109  28.149   3.111 -0.0428 -0.0666 -0.1527
76654W        W77518  22.284  26.323   7.814  0.0962  0.1537  0.1304
76655W        W77519  20.739  26.814   8.130  0.2555 -0.1312 -0.0548
76656W        W77520  24.936  26.768   6.697 -0.0189  0.3433  0.0196
76657W        W77521  26.197  25.625   4.637 -0.1487 -0.0402 -0.1497
76658W        W77522  18.956   2.093   7.818 -0.1017 -0.1402 -0.1007
76659W        W77523  22.461  25.988   0.854  0.2706 -0.0046  0.0313
76660W        W77524  24.753   0.281   4.795  0.3191  0.0938 -0.0028
76661W        W77525  22.023  27.225   8.273 -0.2068  0.0728  0.0025
76662W        W77526  22.315  27.752   5.836 -0.0671 -0.0568 -0.0301
76663W        W77527  23.805  26.440   5.795 -0.2938  0.1426  0.1098
76664W        W77528  22.177  27.427   4.688  0.1068  0.1509 -0.3935
76665W        W77529  24.803  26.346   7.080  0.2716  0.2566  0.0372
76666W        W77530  22.381  24.900   6.097  0.0531  0.0563 -0.2972
76667W        W77531  22.180  26.674   3.394  0.0661 -0.1246 -0.0272
76668W        W77532  25.146  25.248   4.777 -0.1630 -0.1453 -0.0308
76669W        W77533  23.778  27.643   3.807  0.0869 -0.4792 -0.1122
76670W        W77534  22.104  26.798   7.867  0.1583 -0.0274  0.1334
76671W        W77535  25.118  26.649   1.817  0.1348 -0.2455  0.1434
76672W        W77536  24.513  27.788   4.359 -0.2383  0.0897 -0.1857
76673W        W77537  23.566  27.105   8.693  0.2247  0.0241 -0.0234
76674W        W77538  22.247  26.563   3.883  0.0523 -0.0273 -0.1984
76675W        W77539  24.593  27.136   4.008 -0.5490  0.1642 -0.0999
76676W        W77540  22.206  28.679   5.012 -0.1423  0.3535  0.0641
76677W        W77541  22.198  28.161   8.031  0.0377  0.0027  0.0948
76678W        W77542  24.524  27.531   5.330 -0.0732  0.0610 -0.0811
76679W        W77543  24.994  22.505   4.313 -0.2376  0.1975 -0.1068
76680W        W77544  26.135  25.383   9.350 -0.0120  0.2146  0.0202
76681W        W77545  21.417  27.887   4.565 -0.2280  0.0131 -0.0165
76682W        W77546  26.826  26.897   3.449 -0.0981  0.1062 -0.0983
76683W        W77547  22.839   0.522   9.028  0.0424  0.2131  0.2936
76684W        W77548  23.920   2.045   3.438  0.1681 -0.0306 -0.0928
76685W        W77549  23.691  26.543   5.055 -0.3107  0.2188  0.1438
76686W        W77550  22.907  26.264   3.148 -0.2682  0.0815 -0.1224
76687W        W77551  22.137   0.917   4.280 -0.1166  0.0434 -0.0576
76688W        W77552  25.268  28.929   5.699  0.0952 -0.0844  0.1110
76689W        W77553  22.936  27.952   3.281  0.4114 -0.0221 -0.0657
76690W        W77554  20.995  28.266   2.788  0.1533  0.4359  0.0510
76691W        W77555  24.249  27.527   5.748  0.1371  0.2312  0.0234
76692W        W77556  21.997  26.191   4.467  0.1833 -0.2311  0.3325
76693W        W77557  22.523  24.933   5.645 -0.0179  0.2998  0.0541
76694W        W77558  24.438   2.077   4.929 -0.1324 -0.0465  0.1837
76695W        W77559  23.677  26.795   5.483 -0.0914 -0.1434  0.0192
76696W        W77560  23.037  28.640   5.267 -0.2260 -0.2049 -0.2512
76697W        W77561  22.756  24.985   7.182  0.1918 -0.1334 -0.1245
76698W        W77562  25.514  26.056   8.764 -0.3114 -0.0877  0.1430
76699W        W77563  22.831  25.037   6.306  0.1603  0.0811  0.2676
76700W        W77564  25.551   0.119   3.320 -0.0595  0.0628 -0.0551
76701W        W77565  24.040   1.983   2.937  0.0711  0.0676  0.1590
76702W        W77566  23.809  27.388   4.883  0.0556  0.1409 -0.0826
76703W        W77567  25.542  28.086   4.343 -0.1056 -0.0049 -0.1179
76704W        W77568  20.643  24.821   8.136 -0.1655  0.0216  0.0690
76705W        W77569  24.050  28.168   2.320 -0.1747  0.0111  0.1094
76706W        W77570  22.018  25.252   7.386  0.0205  0.1072 -0.4905
76707W        W77571  26.254  26.114   4.848 -0.0377  0.1413 -0.0800
76708W        W77572  23.799   0.857   3.966  0.1585 -0.0909 -0.2222
76709W        W77573  23.499  26.612   6.449 -0.0028  0.0052  0.0597
76710W        W77574  24.485  27.798   7.494 -0.1312  0.2534  0.0516
76711W        W77575  23.601  24.442   5.645  0.0144 -0.0770  0.0921
76712W        W77576  20.755  25.872   4.597  0.2656  0.1190  0.0018
76713W        W77577  23.316  26.766   4.133  0.2253 -0.1940 -0.0111
76714W        W77578  22.279  27.142   3.325  0.0148 -0.0812  0.0127
76715W        W77579  21.417  26.361   6.609 -0.1797  0.2927 -0.1127
76716W        W77580  22.521  26.401   5.469  0.0793 -0.1791 -0.0035
76717W        W77581  24.029  22.896   3.834  0.2907 -0.0817  0.2255
76718W        W77582  23.857  25.033   5.540 -0.4577 -0.0556 -0.1855
76719W        W77583  21.375   2.888   7.273 -0.0392 -0.0284 -0.0507
76720W        W77584  26.143  25.279   6.310 -0.1058 -0.0157 -0.3697
76721W        W77585  26.161  22.940   7.086  0.1430 -0.1068 -0.2924
76722W        W77586  23.474  28.002   3.947  0.0013 -0.1040  0.1153
76723W        W77587  21.698   1.710   6.599  0.1007 -0.1018  0.3083
76724W        W77588  24.322  27.477   4.809 -0.0182  0.0002 -0.1200
76725W        W77589  25.282  26.108   1.717  0.0571  0.3651 -0.2575
76726W        W77590  21.243  25.653   4.461  0.1895  0.0417 -0.2671
76727W        W77591  23.613  23.788   4.653  0.3882  0.1970  0.0692
76728W        W77592  25.093  25.651   5.095 -0.2725  0.1701  0.2007
76729W        W77593  23.010  27.148   3.827  0.1175 -0.0641 -0.0896
76730W        W77594  22.610  26.252   4.010 -0.0166 -0.0276 -0.1077
76731W        W77595  24.513  23.616   4.742 -0.1000  0.0294  0.1725
76732W        W77596  23.632  24.833   5.947 -0.2503 -0.0861  0.1703
76733W        W77597  25.140  25.530   3.479 -0.1267  0.0634  0.0777
76734W        W77598  25.334  24.943   6.938  0.1143 -0.1132  0.0415
76735W        W77599  21.336  27.273   5.307  0.0449  0.1906 -0.1814
76736W        W77600  23.786  26.431   3.383 -0.2194 -0.3604  0.2327
76737W        W77601  21.444  27.431  10.005 -0.0967  0.1200 -0.0149
76738W        W77602  23.660  24.974   7.594  0.1181  0.1478  0.0026
76739W        W77603  25.213   0.249   4.204 -0.1179  0.0023 -0.2369
76740W        W77604  25.382   0.189   1.722 -0.0301  0.1496  0.0600
76741W        W77605  21.345   0.834   5.515  0.1574 -0.1616 -0.2067
76742W        W77606  26.405  24.454   9.233  0.0702 -0.1509  0.2531
76743W        W77607  20.612  24.413   4.378 -0.1331  0.1451  0.1204
76744W        W77608  24.193  27.189   6.210 -0.2591  0.6576  0.1908
76745W        W77609  21.214  27.697   5.113 -0.1665  0.0644 -0.0279
76746W        W77610  24.178  27.415   4.351 -0.0710  0.0621 -0.1989
76747W        W77611  26.356  27.128   9.527 -0.1848  0.0600  0.0355
76748W        W77612  24.944  24.715   3.694 -0.0710 -0.0825  0.1661
76749W        W77613  23.267  25.896   5.225 -0.2270  0.1585 -0.1460
76750W        W77614  20.705   1.542   6.369 -0.1772 -0.1971  0.0439
76751W        W77615  23.938   0.268   7.501 -0.1002  0.1888 -0.2122
76752W        W77616  22.977  26.806   1.575  0.0364 -0.0559  0.1949
76753W        W77617  23.836  22.825   2.604 -0.2786 -0.4103  0.1361
76754W        W77618  25.318  29.087   7.595 -0.2540 -0.2509 -0.0224
76755W        W77619  24.689  27.924   2.035 -0.0528  0.1452  0.3324
76756W        W77620  21.120  27.851   3.401  0.1808 -0.2052  0.0422
76757W        W77621  25.582   1.324   4.889  0.0205 -0.0880  0.1494
76758W        W77622  24.315   0.216   6.659 -0.0057  0.0320 -0.0233
76759W        W77623  24.119  26.898   5.797  0.2042  0.1306 -0.2392
76760W        W77624  21.585  26.840   5.630 -0.0852 -0.0973 -0.0144
76761W        W77625  21.376  27.817   6.442  0.1324  0.0117  0.1488
76762W        W77626  22.335  24.133   5.112  0.0837  0.0496 -0.3177
76763W        W77627  22.998  26.532   3.791  0.0364 -0.3767  0.1584
76764W        W77628  23.333  26.235   3.520  0.1320  0.1377  0.1344
76765W        W77629  24.669  25.968   5.160 -0.1011  0.2429  0.0027
76766W        W77630  22.774  25.368   5.924 -0.2610 -0.1417 -0.2656
76767W        W77631  25.238  25.609   4.425 -0.1905  0.2091  0.0793
76768W        W77632  25.466  25.535   8.042 -0.0928  0.1665 -0.2062
76769W        W77633  25.365   0.796   4.846 -0.0652 -0.0447 -0.4072
76770W        W77634  26.778  28.376   8.779 -0.0816 -0.4702 -0.1142
76771W        W77635  24.146   0.698   7.391 -0.1101 -0.2556  0.2775
76772W        W77636  21.875  28.063   5.837  0.0049  0.0869 -0.1496
76773W        W77637  24.697  27.872   3.320  0.2796 -0.1665  0.0786
76774W        W77638  22.864  28.553   3.208  0.3000 -0.0246 -0.1348
76775W        W77639  23.556  25.337   5.159 -0.0004  0.4924 -0.2525
76776W        W77640  21.528  26.554   4.587 -0.0617  0.0134  0.1946
76777W        W77641  21.865  25.445   3.878  0.2723 -0.1087 -0.0208
76778W        W77642  24.193  24.846   2.758  0.1708  0.0476  0.1707
76779W        W77643  22.021   1.755   4.853  0.0431  0.2293  0.3826
76780W        W77644  23.251  27.469   4.762 -0.0438  0.0282 -0.1150
76781W        W77645  21.735   1.506   5.974  0.0765  0.1547  0.0737
76782W        W77646  21.321  26.458  28.488  0.0932 -0.1657 -0.1165
76783W        W77647  19.894  26.457   3.240 -0.0180 -0.1023 -0.1878
76784W        W77648  25.695  26.332   4.867  0.1694  0.2647 -0.0248
76785W        W77649  20.476  24.867   4.586  0.0181 -0.1605 -0.1134
76786W        W77650  26.938  26.858   5.486 -0.1546 -0.1165  0.2382
76787W        W77651  24.562  24.169   2.753 -0.1098  0.0688 -0.4546
76788W        W77652  23.937   0.702   5.895  0.2780  0.0213  0.0795
76789W        W77653  22.650  28.681   2.757  0.2436  0.2285  0.0836
76790W        W77654  24.170   0.431   5.459 -0.1904  0.2611 -0.1769
76791W        W77655  22.353  22.683   4.606 -0.0846  0.2348 -0.1257
76792W        W77656  18.876   1.369   4.818  0.0699  0.0805 -0.1144
76793W        W77657  23.289  24.433   7.764 -0.4208  0.3324  0.2594
76794W        W77658  23.973  24.457   3.579  0.0638 -0.3590  0.1055
76795W        W77659  20.276  27.405   2.800 -0.0841 -0.3365  0.4021
76796W        W77660  22.921  26.961   6.153  0.5762  0.1775 -0.1711
76797W        W77661  26.207  26.650   7.197  0.1869  0.3515 -0.1234
76798W        W77662  23.586  27.663   6.487 -0.3544 -0.1233  0.1989
76799W        W77663  24.080  25.082   4.882  0.2413 -0.0564 -0.1674
76800W        W77664  24.895   0.514   5.701 -0.2491 -0.1221 -0.3000
76801W        W77665  23.300  26.484   5.960  0.2477  0.0938 -0.0871
76802W        W77666  22.780  26.980   5.091  0.0492  0.2020  0.0831
76803W        W77667  23.655  29.065   2.721 -0.0221 -0.0877 -0.0226
76804W        W77668  23.245  26.153   6.548 -0.0097  0.2054 -0.1007
76805W        W77669  25.742  27.278   3.913  0.5058 -0.2002 -0.2543
76806W        W77670  23.899  28.563   4.326 -0.3268 -0.3636  0.0184
76807W        W77671  24.261  25.569   4.454  0.1226 -0.1759  0.0161
76808W        W77672  22.415  26.313   3.093  0.2677 -0.2140 -0.0986
76809W        W77673  25.693  29.121   6.331  0.1797  0.3223 -0.1811
76810W        W77674  24.563   0.866   4.285 -0.1020 -0.1906  0.0931
76811W        W77675  22.343  25.158   5.217  0.2642 -0.0651 -0.0317
76812W        W77676  22.229  26.087   3.542 -0.3063  0.0262  0.3691
76813W        W77677  25.087  28.791   7.094 -0.2714 -0.0361 -0.2755
76814W        W77678  25.277  26.060   6.341 -0.3193 -0.0140  0.1417
76815W        W77679  21.121  26.806   5.456  0.0363 -0.1706 -0.2598
76816W        W77680  23.356  27.014   5.776  0.2015  0.1354 -0.0405
76817W        W77681  19.177   0.470   3.059 -0.3301 -0.2699  0.0277
76818W        W77682  21.031  26.838   4.993 -0.3230  0.0695  0.1401
76819W        W77683  24.468  25.067   6.908 -0.1481  0.1179 -0.1452
76820W        W77684  22.749   0.665   6.160  0.1047 -0.1496  0.1013
76821W        W77685  24.325  24.669   6.194  0.0229 -0.0790  0.0715
76822W        W77686  22.754  26.819   4.150  0.1412 -0.0101  0.0059
76823W        W77687  24.434  26.300   5.581  0.1452  0.0100 -0.2245
76824W        W77688  23.655  29.106   4.762 -0.2681 -0.2195  0.2030
76825W        W77689  26.542  26.634   5.825 -0.2575  0.1570  0.0023
76826W        W77690  22.865   0.789   4.928 -0.1599  0.1122 -0.1853
76827W        W77691  19.943  27.117   4.082 -0.0206  0.3510 -0.0317
76828W        W77692  26.284  28.774   3.324 -0.1746  0.1532 -0.2497
76829W        W77693  25.620  27.384   6.867  0.0940  0.1700  0.1542
76830W        W77694  22.327  27.105   4.998  0.1793  0.2392 -0.3145
76831W        W77695  24.015  25.976  10.031 -0.0175 -0.0838 -0.0462
76832W        W77696  23.599  26.190   2.674 -0.2810  0.1295  0.1201
76833W        W77697  23.951  28.746   6.368  0.3898 -0.0458  0.1978
76834W        W77698  23.647  28.561   3.710 -0.2983 -0.2136 -0.0379
76835W        W77699  24.587  23.690   2.449 -0.0645  0.2321  0.2264
76836W        W77700  21.707   0.281  10.880 -0.1794  0.3512 -0.1638
76837W        W77701  23.024  27.418  10.880  0.0382 -0.0787 -0.0496
76838W        W77702  25.220  26.646   7.120  0.1713  0.1666  0.2311
76839W        W77703  24.866   0.584  10.695 -0.2161  0.0913 -0.1918
76840W        W77704  24.953  27.125   9.623 -0.2235  0.1284 -0.2269
76841W        W77705  22.499  27.232   8.038  0.0009 -0.0193  0.0334
76842W        W77706  22.738  26.052   6.602 -0.1199  0.1320 -0.2128
76843W        W77707  20.745  28.348   8.137  0.2057  0.0897 -0.1732
76844W        W77708  22.251  26.812  11.145 -0.3306 -0.0169 -0.2424
76845W        W77709  22.675  28.186   9.721  0.1425 -0.2305  0.1292
76846W        W77710  25.557  23.752   7.673 -0.0934 -0.1087  0.2028
76847W        W77711  25.040  25.854   5.906 -0.1025 -0.0533 -0.0872
76848W        W77712  24.553  28.286  12.107  0.0561 -0.1143 -0.0150
76849W        W77713  21.769  24.189  11.526  0.1146  0.0813  0.1368
76850W        W77714  21.356  29.072  11.043  0.0742  0.1081 -0.2043
76851W        W77715  26.217  27.344   6.606  0.0328 -0.0568 -0.1713
76852W        W77716  23.999  26.600  10.500 -0.1012  0.2399  0.0842
76853W        W77717  22.034  25.623   9.506 -0.3008 -0.0939 -0.0805
76854W        W77718  24.606  27.285   7.586 -0.0356  0.1755  0.0331
76855W        W77719  24.084  27.510   9.274 -0.1484 -0.2763 -0.2452
76856W        W77720  24.104  27.038   7.137 -0.0618 -0.0968  0.0031
76857W        W77721  24.450  26.903  10.394 -0.1018  0.0619  0.1351
76858W        W77722  21.740  27.692  11.626 -0.0836  0.3305  0.1894
76859W        W77723  20.817  25.952  10.657 -0.2333 -0.1539  0.1381
76860W        W77724  22.780  28.252   9.274 -0.2193 -0.1609  0.0576
76861W        W77725  26.953  28.488  10.193 -0.1657 -0.1026 -0.0805
76862W        W77726  24.489  27.368   7.069 -0.1684 -0.1773 -0.1185
76863W        W77727  23.354  26.366   9.319  0.4222  0.1029 -0.2605
76864W        W77728  25.390  24.767  11.053  0.2406  0.0215  0.1600
76865W        W77729  22.029  26.987   6.964  0.3701  0.2550  0.0870
76866W        W77730  25.427  27.454  11.189 -0.3739 -0.4308 -0.0151
76867W        W77731  24.155  26.977  11.320 -0.3153  0.0864 -0.1719
76868W        W77732  21.197  26.027   9.908  0.2074  0.2588 -0.0752
76869W        W77733  21.072  27.737  10.818 -0.1779  0.0785 -0.1755
76870W        W77734  25.658  28.040  10.433  0.3155 -0.0525 -0.2576
76871W        W77735  23.248  27.327   6.569 -0.2475 -0.3536 -0.1036
76872W        W77736  23.849  28.215   8.670 -0.1873  0.2733 -0.0266
76873W        W77737  26.174  28.791   7.874 -0.2147  0.0254 -0.2087
76874W        W77738  24.965  25.837   7.410  0.3606 -0.0723  0.0737
76875W        W77739  27.876  24.435   9.092  0.0450 -0.1466 -0.1861
76876W        W77740  23.865  28.970  10.512  0.0818  0.0912  0.2877
76877W        W77741  23.897  28.533   6.912  0.0132 -0.1161 -0.1372
76878W        W77742  25.252  27.082   9.201 -0.0634 -0.2216 -0.3850
76879W        W77743  23.381  28.902   8.070  0.2178 -0.2118  0.3504
76880W        W77744  21.271   1.630   6.145 -0.0447  0.3387 -0.1685
76881W        W77745  22.121  25.144   9.225 -0.2025  0.0638 -0.3401
76882W        W77746  28.403   1.249   9.797  0.0721 -0.0496 -0.1777
76883W        W77747  26.260  26.064   9.203 -0.2120 -0.0114  0.0459
76884W        W77748  26.744  26.056   7.651  0.0708 -0.2685 -0.0757
76885W        W77749  23.275  28.386   9.406  0.0119  0.2174  0.1177
76886W        W77750  23.935  26.286   9.251  0.7052 -0.1413  0.0344
76887W        W77751  23.863  28.683   8.874 -0.2299 -0.2137 -0.0396
76888W        W77752  23.271  25.753   7.954 -0.0192 -0.0111 -0.1725
76889W        W77753  21.687  26.445   8.176 -0.0955  0.1407 -0.0272
76890W        W77754  21.390  28.449   7.991  0.1040  0.0476  0.2110
76891W        W77755  23.443  28.141   5.585  0.0648 -0.0123 -0.1024
76892W        W77756  24.383  26.239   8.279  0.0316  0.1945  0.1012
76893W        W77757  24.583  27.907   6.630  0.0583 -0.1510 -0.0290
76894W        W77758  23.771   1.394   6.666 -0.1127  0.2591 -0.1649
76895W        W77759  24.400  26.628   3.007  0.3609  0.2053  0.1927
76896W        W77760  23.309   1.524  10.581 -0.1492 -0.0862  0.0045
76897W        W77761  22.399   0.464   7.146  0.2306  0.1168 -0.0022
76898W        W77762  23.347   0.084   9.183  0.1555  0.1264  0.2503
76899W        W77763  23.755  26.480  10.070  0.2402 -0.1173  0.2394
76900W        W77764  25.716  24.721   5.139 -0.0316 -0.1816  0.2773
76901W        W77765  22.865   0.100   6.310 -0.2067 -0.1419  0.0824
76902W        W77766  20.124  25.958   7.665  0.0545  0.0603 -0.1050
76903W        W77767  21.582  27.737   9.625  0.0472 -0.0735 -0.0174
76904W        W77768  24.793  29.048   7.710 -0.1605 -0.0092 -0.1515
76905W        W77769  24.705  28.574   8.207  0.1300  0.0708 -0.0822
76906W        W77770  26.083  26.897   5.681  0.1980 -0.1119 -0.0891
76907W        W77771  24.483   1.426   8.151 -0.0440  0.0162 -0.1398
76908W        W77772  26.655  27.235  13.012  0.0142 -0.2232  0.0523
76909W        W77773  25.679  27.295   7.886 -0.0868 -0.1075  0.1631
76910W        W77774  23.222  27.249   8.314 -0.1148  0.0256 -0.1340
76911W        W77775  21.278  24.395   8.304 -0.0638  0.0230 -0.0189
76912W        W77776  22.116  28.107   9.130  0.2340 -0.0054  0.0800
76913W        W77777  25.938  24.822   7.696  0.1896 -0.0199  0.1445
76914W        W77778  22.965  25.862  10.821 -0.2405  0.0142 -0.3526
76915W        W77779  24.352  26.847   7.564  0.4128  0.1953 -0.1880
76916W        W77780  21.328  28.002  10.455  0.0070 -0.2305  0.0684
76917W        W77781  22.180  25.510  10.163  0.1321  0.3166  0.1673
76918W        W77782  24.838  22.493   9.636 -0.1797 -0.1707  0.1940
76919W        W77783  23.034  24.533   8.975  0.0965 -0.3018  0.2205
76920W        W77784  26.175  25.260   7.284  0.0363  0.0846  0.0725
76921W        W77785  25.417  29.046  12.404 -0.2589 -0.0725 -0.2051
76922W        W77786  24.018  24.605   9.834 -0.1389 -0.1511  0.2438
76923W        W77787  26.830   0.681   9.235 -0.2204 -0.3177 -0.2569
76924W        W77788  23.257  23.810   7.898  0.1288 -0.1740  0.2377
76925W        W77789  25.957  23.295   8.586 -0.0425 -0.0334  0.5148
76926W        W77790  24.013  24.912   7.960  0.0432 -0.3120 -0.0616
76927W        W77791  23.683  28.119   8.217  0.0058 -0.0356 -0.1347
76928W        W77792  22.958  27.146   7.622 -0.0871  0.2167 -0.1702
76929W        W77793  21.929  23.625   9.199 -0.1480 -0.2676 -0.0909
76930W        W77794  23.672  24.502   7.414 -0.2338 -0.0157 -0.0810
76931W        W77795   0.746   0.237   5.288  0.0117  0.0594  0.0686
76932W        W77796  24.240   0.121  11.332 -0.0157  0.3879 -0.1330
76933W        W77797  21.919  26.096   8.562  0.0215  0.1187 -0.0378
76934W        W77798  25.507  26.439   9.720  0.0611  0.0494  0.1503
76935W        W77799  25.793  26.514   8.401  0.2943  0.1187 -0.0536
76936W        W77800  21.968  25.947   9.070  0.2520  0.0513 -0.0263
76937W        W77801  22.255  25.384   5.776 -0.1370  0.1324  0.3302
76938W        W77802  27.035  27.588   7.377  0.0197  0.2160  0.1416
76939W        W77803  23.986  23.518  12.280  0.0443 -0.0088 -0.1826
76940W        W77804  25.468  29.108  11.906  0.0776  0.0598 -0.2026
76941W        W77805  25.685   1.911   8.167 -0.0405 -0.3181  0.0454
76942W        W77806  25.054  27.061  11.007  0.0981  0.0190 -0.0123
76943W        W77807  23.242  24.514  11.691  0.0095  0.0123  0.0350
76944W        W77808  22.698  27.790   9.351  0.1943 -0.1197 -0.2435
76945W        W77809  21.759  25.303  10.500  0.1361 -0.0155 -0.0626
76946W        W77810  24.494  28.343   8.759 -0.1398  0.0160 -0.0966
76947W        W77811  26.318  26.082   7.909 -0.1982  0.1106 -0.2280
76948W        W77812  21.372   0.273   9.039 -0.0332  0.0394 -0.2153
76949W        W77813  25.244  26.552   6.188 -0.1034 -0.0685 -0.0433
76950W        W77814  23.566  25.893   7.374  0.2224  0.4556 -0.0383
76951W        W77815  25.031  26.172  12.662  0.2464 -0.0384  0.0621
76952W        W77816  23.208  28.160   8.478 -0.4311 -0.1779  0.1840
76953W        W77817  24.181  26.040  10.556  0.6268  0.2247  0.3787
76954W        W77818  23.250  28.439   7.998 -0.2499  0.0691 -0.0312
76955W        W77819  25.882  28.209   6.210  0.3026  0.2534  0.2289
76956W        W77820  26.551   1.395   8.251 -0.0403  0.1813  0.0581
76957W        W77821  24.005  28.617  10.195 -0.1882  0.1125  0.0385
76958W        W77822  25.854  26.389   6.969  0.0391 -0.1204 -0.1760
76959W        W77823  23.964   0.249   7.985  0.2811 -0.1310 -0.1076
76960W        W77824  23.622   0.764   6.695 -0.1077  0.0462  0.0512
76961W        W77825  21.756  25.598  11.191  0.0696  0.1654  0.0705
76962W        W77826  26.034  28.335  11.289  0.0397  0.1874 -0.0031
76963W        W77827  25.267  27.588   7.375 -0.1466  0.2285  0.0530
76964W        W77828  24.273   1.027   7.776  0.2802  0.0315  0.1134
76965W        W77829  23.619  26.643   9.592  0.0324  0.2183 -0.1652
76966W        W77830  23.383  26.899  12.339  0.1112 -0.0534  0.0528
76967W        W77831  23.271   2.567   6.665  0.3272  0.1023  0.1611
76968W        W77832  24.382  26.082   8.866 -0.3538  0.1835 -0.1976
76969W        W77833  23.246  27.799  11.161 -0.1569 -0.1065 -0.0226
76970W        W77834  22.864  27.012  10.043  0.1632  0.1558 -0.5012
76971W        W77835  25.261  26.041   6.996 -0.2690 -0.3029 -0.0860
76972W        W77836  24.871  28.005   9.029 -0.1508 -0.0055 -0.1563
76973W        W77837  24.940  27.575   9.358 -0.0014 -0.1480  0.0926
76974W        W77838  24.398  28.643   7.782 -0.0178  0.2147  0.1130
76975W        W77839  24.456  26.011   7.828  0.0389 -0.1628  0.2057
76976W        W77840  25.157  25.728   8.576  0.1422  0.1392  0.3617
76977W        W77841  24.354  26.008   6.755  0.0703  0.0370  0.0233
76978W        W77842  23.392  27.627  10.342  0.2160  0.0370 -0.0560
76979W        W77843  23.819  26.618   7.434 -0.1573  0.1699  0.0021
76980W        W77844  24.047  24.461   8.849  0.0430 -0.3032  0.0208
76981W        W77845  25.075   1.405  10.335 -0.1916  0.0290 -0.1033
76982W        W77846  25.345  28.785   8.453 -0.0803  0.4405  0.1154
76983W        W77847  23.862  27.094   9.539  0.0978  0.1282 -0.3018
76984W        W77848  23.569  27.619   9.512  0.1745 -0.1032 -0.0797
76985W        W77849  23.558  27.065   7.283  0.0021  0.1853  0.1443
76986W        W77850  26.192  27.624   9.581  0.0379  0.1506  0.1455
76987W        W77851  22.244  25.202   7.830 -0.2016 -0.0007 -0.3589
76988W        W77852  25.272  26.710   5.545  0.3323 -0.1470  0.1300
76989W        W77853  24.887  24.173   9.007 -0.1116  0.1123  0.0153
76990W        W77854  21.246  26.289   9.484 -0.1090  0.1776 -0.0603
76991W        W77855  23.360  28.163   6.104 -0.0828 -0.2025 -0.0798
76992W        W77856  24.467  25.259   5.664 -0.2537 -0.1374  0.0114
76993W        W77857  25.530  26.056  11.295  0.0598 -0.0953 -0.1308
76994W        W77858  25.025  25.044   8.696 -0.0489  0.0498 -0.2654
76995W        W77859  22.643  28.672  11.530  0.2103  0.0063 -0.0941
76996W        W77860  25.617   0.083  11.434  0.2665 -0.0139  0.0732
76997W        W77861  21.887  27.572  14.425 -0.2336 -0.1322  0.1054
76998W        W77862  24.603  26.244  10.776 -0.1372 -0.2004  0.1535
76999W        W77863  22.957  28.755   7.710 -0.0500 -0.2772 -0.0428
77000W        W77864  26.156  27.852   7.431 -0.3258 -0.0161  0.1604
77001W        W77865  23.392   0.403   8.769 -0.1764  0.0959 -0.1986
77002W        W77866  25.118  27.250   7.738 -0.1203  0.1779  0.1371
77003W        W77867  22.869  26.474   9.038  0.0189  0.1658 -0.0435
77004W        W77868  24.185  28.307   8.013  0.1829  0.1860 -0.1128
77005W        W77869  24.105  27.627   9.786 -0.2936 -0.3456  0.0595
77006W        W77870  23.592  27.608   7.435  0.0072 -0.0646 -0.0464
77007W        W77871  23.728  27.175   6.409  0.0453  0.0879  0.1882
77008W        W77872  23.272  25.568  10.560 -0.0647  0.1237 -0.1831
77009W        W77873  25.986  28.484   9.220 -0.1961  0.1317  0.1541
77010W        W77874  22.534  27.899   8.885 -0.1202  0.2697 -0.0112
77011W        W77875  23.445  28.653   6.629  0.0279 -0.2362 -0.0611
77012W        W77876  23.032   0.179   7.801  0.2674  0.1293 -0.2056
77013W        W77877  22.041  26.136   7.324 -0.3298 -0.0983 -0.2259
77014W        W77878  24.978  28.357   8.668 -0.1453  0.0466  0.1312
77015W        W77879  27.515  28.891   8.207  0.1243 -0.4377  0.1828
77016W        W77880  25.138  23.977   5.905  0.1836 -0.3444  0.3000
77017W        W77881  24.978  24.806   7.719  0.3249  0.2355 -0.1720
77018W        W77882  22.667  27.834   7.242  0.1327 -0.2281 -0.2397
77019W        W77883  25.374  26.735  10.151  0.3600 -0.1059  0.2011
77020W        W77884  23.453  26.833   8.163  0.0789  0.1516 -0.0533
77021W        W77885  20.861  22.614   5.825  0.1598  0.3837  0.2065
77022W        W77886  22.115  28.036   8.633  0.0676 -0.0599 -0.0469
77023W        W77887  24.084  28.583   8.398 -0.0723  0.0098 -0.0174
77024W        W77888  23.603  26.247   6.889 -0.2372 -0.2351 -0.1196
77025W        W77889  22.726  28.432   8.704 -0.2880 -0.1342  0.0826
77026W        W77890  24.626  27.835  10.813 -0.3792  0.0600  0.0521
77027W        W77891  22.554  27.060  11.658  0.3108 -0.0684  0.0355
77028W        W77892  23.817  24.116   9.729 -0.1595 -0.0321 -0.1222
77029W        W77893  23.793  24.791   8.525  0.1756 -0.1159  0.1890
77030W        W77894  25.749  26.798   7.875  0.2422 -0.1088  0.0697
77031W        W77895  22.801  25.709   8.794 -0.1516  0.0472 -0.1306
77032W        W77896  22.075  24.512  10.219 -0.1275 -0.1672  0.3296
77033W        W77897  25.488  24.835   8.837 -0.0401  0.0669  0.0965
77034W        W77898  24.549  24.923   8.049  0.0726 -0.0726 -0.1286
77035W        W77899  25.969   0.300   9.232 -0.1767 -0.0031 -0.0094
77036W        W77900  21.771  27.343   6.661  0.3051  0.1092 -0.0444
77037W        W77901  22.849  24.823   8.644 -0.1980  0.0513  0.0387
77038W        W77902  23.451  24.966  11.448  0.1935  0.1058  0.3636
77039W        W77903  22.450  24.551   8.358 -0.0079 -0.3043 -0.1655
77040W        W77904  22.177  23.669   8.677  0.1431 -0.2227  0.1989
77041W        W77905  24.525  26.864   9.708 -0.0662 -0.1010  0.0188
77042W        W77906  23.987   1.176   5.794  0.1556  0.4165 -0.0073
77043W        W77907  23.291  24.862   8.049  0.2172 -0.0325 -0.1450
77044W        W77908  23.334   0.115  10.024  0.0376  0.0844  0.2489
77045W        W77909  22.830  24.967  11.887  0.1325  0.2471  0.2934
77046W        W77910  23.393  25.839   9.440  0.0752 -0.4017 -0.0611
77047W        W77911  25.746  24.682  10.689 -0.1377  0.0704  0.0473
77048W        W77912  26.178  28.839   9.546  0.4466  0.1102  0.0223
77049W        W77913  25.282   0.717   8.027 -0.3752 -0.0682 -0.2532
77050W        W77914  26.506  26.549   7.655  0.1346  0.0153  0.0647
77051W        W77915  23.771  28.056   7.054 -0.3691  0.0541 -0.3806
77052W        W77916  22.877  25.982  14.424 -0.2118 -0.3190 -0.3707
77053W        W77917  20.801   0.039  11.108  0.0987  0.3094 -0.0429
77054W        W77918  26.845  24.762   9.616  0.1415 -0.3240  0.1769
77055W        W77919  27.652  27.418  10.191 -0.2610 -0.1908 -0.2817
77056W        W77920  19.722  28.921  11.746 -0.0181  0.0476  0.2311
77057W        W77921  22.796  27.146   6.767 -0.0416 -0.0990 -0.1219
77058W        W77922  23.226  28.190   6.593  0.1262 -0.3500 -0.0436
77059W        W77923  24.763  28.272   9.576  0.1388  0.3739 -0.1340
77060W        W77924  25.771  27.932   9.561 -0.0619 -0.2059  0.0501
77061W        W77925  26.295  22.699  10.945  0.1051  0.2049 -0.0919
77062W        W77926  24.324  28.889   9.949  0.4175 -0.0170 -0.1069
77063W        W77927  25.770  29.051   8.304 -0.1206  0.1695  0.0748
77064W        W77928  23.978  27.786   8.460  0.0851  0.2418 -0.0033
77065W        W77929  22.060  26.136   9.574 -0.0112 -0.1246 -0.0216
77066W        W77930  25.516  27.989   7.571 -0.4025  0.2966 -0.1667
77067W        W77931  26.276  25.276   7.787  0.3849  0.0605  0.2477
77068W        W77932  21.477  28.022   9.961  0.1653  0.1729 -0.2650
77069W        W77933  24.385  26.380   7.383  0.1960 -0.2858 -0.0860
77070W        W77934  24.163  26.601   5.304 -0.1792 -0.0539 -0.1298
77071W        W77935  22.478  26.753  12.881  0.0863  0.1115  0.1210
77072W        W77936  23.464  28.461   7.270  0.1135  0.0616 -0.0541
77073W        W77937  26.038  25.943  10.686  0.3107 -0.2170 -0.2997
77074W        W77938  25.356  27.797   4.923  0.0876 -0.1322 -0.0648
77075W        W77939  21.258  28.280  10.830 -0.3326  0.1398 -0.2916
77076W        W77940  17.703  24.961   9.282 -0.2313 -0.0010  0.2280
77077W        W77941  22.492  23.552   6.459  0.1630  0.0956  0.0093
77078W        W77942  23.682  24.165   7.839  0.2566  0.1613 -0.0620
77079W        W77943  21.502  28.895   9.465 -0.2381 -0.0938 -0.1697
77080W        W77944  25.719  27.263  10.278 -0.0077  0.0664  0.4488
77081W        W77945  20.748   2.177  10.250  0.2534  0.2424 -0.1705
77082W        W77946  25.734  28.730  11.264  0.3093  0.0898  0.2179
77083W        W77947  24.194  25.031   9.402 -0.1175 -0.0171 -0.1418
77084W        W77948  22.592  25.292  11.604  0.2093 -0.0846 -0.1429
77085W        W77949  23.270  27.144  10.400  0.0321 -0.2112 -0.1865
77086W        W77950  26.884   0.697  13.669  0.2614  0.0778 -0.3047
77087W        W77951  24.489  27.238  11.062 -0.0707 -0.1627  0.1318
77088W        W77952  23.191  23.693   7.041 -0.2352  0.2566  0.1247
77089W        W77953  26.338  29.121   8.269 -0.1858  0.0604  0.2485
77090W        W77954  25.830  23.822   5.362  0.1340  0.1387 -0.0427
77091W        W77955  23.829  25.822   9.031  0.1060  0.0724 -0.1229
77092W        W77956  21.698  28.863   5.146  0.0840  0.3580 -0.1815
77093W        W77957  23.841  26.741   9.057 -0.0160  0.1412  0.0642
77094W        W77958  22.990  26.141   9.594  0.2754 -0.0397 -0.0778
77095W        W77959  24.858  28.936   9.978 -0.2447  0.0397  0.1676
77096W        W77960  24.103  27.107  10.739 -0.0234 -0.0812 -0.0584
77097W        W77961  21.300  26.014  10.443 -0.0041 -0.0452  0.0387
77098W        W77962  22.099  28.765   5.478  0.2371 -0.4178  0.0580
77099W        W77963  22.863  28.651   6.668  0.1787  0.1480  0.1588
77100W        W77964  21.006  28.430   4.523  0.2728 -0.0091 -0.0961
77101W        W77965  24.360  26.750   8.147 -0.2439 -0.0715 -0.3554
77102W        W77966  22.899  25.291   8.542 -0.1769  0.2773  0.1531
77103W        W77967  27.306  25.186   6.243 -0.1954 -0.0458 -0.3413
77104W        W77968  25.637  25.605   8.505 -0.5927  0.1299 -0.0128
77105W        W77969  26.386  26.620   9.491  0.3054  0.0875 -0.1968
77106W        W77970  25.219  26.041   7.792  0.2261  0.0393  0.0797
77107W        W77971  19.785  26.912  10.922 -0.0111  0.1731  0.0801
77108W        W77972  25.169   0.063   8.612 -0.1060  0.1292 -0.0645
77109W        W77973  25.225  27.234  10.488  0.1421  0.0882  0.2009
77110W        W77974  20.339  22.873  10.737  0.1374 -0.2961  0.0187
77111W        W77975  23.717  27.874   9.048 -0.0757 -0.1033 -0.0688
77112W        W77976  24.843  23.585   7.704 -0.0704 -0.3803 -0.0053
77113W        W77977  22.226  27.349  13.330 -0.2703 -0.1191 -0.0667
77114W        W77978  23.260  25.945  11.279  0.3648  0.1289 -0.1585
77115W        W77979  23.704  25.175   4.468  0.0225  0.1596  0.0831
77116W        W77980  18.802   2.829   7.270  0.1020  0.0912 -0.0417
77117W        W77981  24.356  27.394   8.495  0.1393  0.0337  0.2079
77118W        W77982  24.793  26.778   7.832  0.2482 -0.1943  0.1129
77119W        W77983  25.526  27.703  12.697  0.1506  0.2607 -0.1058
77120W        W77984  23.631  26.269   7.797 -0.2658  0.1074 -0.0769
77121W        W77985  20.203  27.956  11.872  0.0695 -0.1150  0.1274
77122W        W77986  25.724  26.751   8.909 -0.1364  0.0124  0.1300
77123W        W77987  23.400  27.104   9.538 -0.2477  0.0567 -0.1143
77124W        W77988  25.364   0.006   9.889 -0.0753 -0.1420  0.1515
77125W        W77989  25.186  24.917   6.318 -0.0504  0.2168  0.2308
77126W        W77990  25.876  27.147  10.803 -0.2702 -0.1523 -0.2381
77127W        W77991  24.485   0.280   7.565  0.2268  0.1045 -0.1363
77128W        W77992  24.659  27.364  10.592  0.1046 -0.2227  0.1422
77129W        W77993  27.076  26.877   6.768 -0.2479 -0.1034  0.1602
77130W        W77994  22.686  26.178  10.534  0.1597 -0.0889 -0.0435
77131W        W77995  25.742   0.729  11.980  0.1689  0.0941  0.1191
77132W        W77996  21.712  25.786  10.650  0.2726  0.1981  0.1892
77133W        W77997  22.168   2.370   7.009  0.0890 -0.0833  0.2989
77134W        W77998  23.409  24.990   8.925  0.2042 -0.0695  0.1672
77135W        W77999  24.603  24.524  12.739  0.2034 -0.1361  0.1093
77136W        W78000  24.327   0.694   8.914 -0.1979 -0.1550 -0.3715
77137W        W78001  22.362  26.043  10.063  0.1216 -0.1706  0.3344
77138W        W78002  23.184  28.579   5.762 -0.1474  0.1744  0.0262
77139W        W78003  23.163  27.586   9.282  0.2090 -0.1503 -0.2416
77140W        W78004  21.709  23.922  14.780  0.1471 -0.4130  0.2155
77141W        W78005  23.898  26.103   8.645 -0.0442  0.1728  0.1293
77142W        W78006  24.574  25.962  10.173  0.0390 -0.1369  0.3158
77143W        W78007  23.470  27.719   8.627 -0.2403 -0.1938 -0.3439
77144W        W78008  24.840  25.988   9.072  0.1496  0.1220  0.0565
77145W        W78009  21.662  26.010  12.186 -0.0379 -0.1077  0.0878
77146W        W78010  24.138  23.583   9.099 -0.0477 -0.2044  0.1218
77147W        W78011  24.736  26.503  10.227  0.0098  0.0621 -0.2971
77148W        W78012  25.012  26.629   9.543 -0.1124  0.2293  0.1115
77149W        W78013  25.392  28.231  11.348  0.3759 -0.0440  0.1674
77150W        W78014  23.300  26.347   4.770 -0.0060 -0.2799  0.1735
77151W        W78015  24.486  27.324   9.605  0.1981 -0.0183  0.2051
77152W        W78016  23.798   0.361  10.349  0.0826  0.2794  0.0203
77153W        W78017  22.398  23.799   9.699 -0.0310  0.1480  0.1155
77154W        W78018  24.455   0.513   7.019 -0.0258  0.1017 -0.3252
77155W        W78019  28.687  27.693   5.431  0.0451 -0.0115  0.1158
77156W        W78020  20.490  26.154   8.522 -0.1038  0.1837 -0.2164
77157W        W78021  26.969  25.951   8.119 -0.1348 -0.0276  0.1067
77158W        W78022  22.252  27.139   8.744  0.1542 -0.1756  0.3702
77159W        W78023  24.421  28.269  11.400 -0.1915 -0.0993  0.3507
77160W        W78024  24.077  25.378  10.169  0.1340 -0.1948 -0.1404
77161W        W78025  22.969  26.887   8.066 -0.2968 -0.0920 -0.0056
77162W        W78026  21.168  26.639   8.471  0.0967  0.2451  0.1174
77163W        W78027  21.705  28.833   8.101 -0.0699 -0.1704  0.0038
77164W        W78028  25.102  23.643  10.582  0.0579  0.0636 -0.1129
77165W        W78029  23.616  25.258   8.058  0.2389  0.1154  0.0621
77166W        W78030  25.361  27.659   7.987  0.1219 -0.2257  0.0938
77167W        W78031  24.170  29.034   7.656 -0.2578 -0.0666  0.1401
77168W        W78032  25.014  28.139  10.681 -0.2901  0.1043  0.3449
77169W        W78033  24.843  26.084  11.280 -0.0487 -0.2224 -0.0707
77170W        W78034  24.485   2.263   9.311  0.2319 -0.1205 -0.1995
77171W        W78035  22.661  27.343   9.021 -0.0222  0.0053 -0.1564
77172W        W78036  25.972  27.211   8.733 -0.0751  0.0260  0.1833
77173W        W78037  25.014  27.075   5.279 -0.0045 -0.0766  0.0068
77174W        W78038  24.272  27.784   8.006  0.2330  0.0551  0.0624
77175W        W78039  21.944  24.860   8.291  0.1745 -0.0317 -0.1150
77176W        W78040  23.355  21.472  10.523  0.1302  0.1250 -0.2475
77177W        W78041  24.985  27.240   7.111 -0.1073  0.1640  0.0914
77178W        W78042  24.779  26.781   6.213 -0.1730  0.2147  0.2813
77179W        W78043  22.466   0.174   8.324  0.0937 -0.1920  0.0859
77180W        W78044  20.694  28.950   9.454 -0.0114 -0.0335  0.0095
77181W        W78045  23.200  26.159   7.455  0.2390  0.0821  0.0004
77182W        W78046  24.085  27.903   6.510  0.1502  0.1504  0.2161
77183W        W78047  22.501  27.138   7.169  0.1735 -0.3621  0.0225
77184W        W78048  23.726  27.736  11.263 -0.3860  0.2509  0.1863
77185W        W78049  26.213  25.579   8.187  0.1271  0.1392 -0.0709
77186W        W78050  23.292  27.288  11.304  0.1389  0.1395  0.1139
77187W        W78051  25.145  27.541   8.886 -0.2513  0.3320 -0.2780
77188W        W78052  23.814   0.170   6.621  0.0510  0.0938  0.0604
77189W        W78053  23.401  24.290   4.644 -0.1598  0.1837  0.0440
77190W        W78054  22.671  25.505   7.826  0.3536  0.0748 -0.0009
77191W        W78055  22.874  26.838  12.024 -0.1401  0.0829 -0.1359
77192W        W78056  21.507  25.583  10.193  0.1667 -0.1605  0.3509
77193W        W78057  23.090  24.525   7.202  0.0507  0.0108 -0.2437
77194W        W78058  23.206   0.025   6.840 -0.2363  0.0601  0.1297
77195W        W78059  23.550  23.812   6.711 -0.1237  0.1280 -0.0078
77196W        W78060  24.825   0.412   7.973  0.1830  0.2296 -0.0102
77197W        W78061  25.396  25.663   6.697 -0.0186 -0.2832 -0.1052
77198W        W78062  24.755  26.924   9.195 -0.2837  0.2253 -0.0112
77199W        W78063  22.794  27.816  10.077  0.2790  0.1908 -0.1723
77200W        W78064  24.196  28.407   7.350  0.1112  0.0336  0.0700
77201W        W78065  24.404  26.570   6.431 -0.0376 -0.1958  0.0808
77202W        W78066  24.975  26.394   7.556 -0.0177  0.3564  0.1499
77203W        W78067  25.568  23.449  10.172 -0.0296  0.0765 -0.2399
77204W        W78068  24.179  25.701   6.312  0.0726 -0.3605 -0.0523
77205W        W78069  25.700  28.761   8.813 -0.2457  0.2029 -0.1308
77206W        W78070  25.467  26.002   8.250 -0.2472 -0.0166 -0.3448
77207W        W78071  25.451  28.433   9.068  0.0076  0.1781  0.1907
77208W        W78072  25.214  28.230   5.931 -0.1106 -0.3300 -0.1426
77209W        W78073  25.114  27.748  11.594  0.0179 -0.0061 -0.0151
77210W        W78074  23.178  24.943  10.319  0.1223 -0.1668 -0.1002
77211W        W78075  26.152  27.722   8.651  0.2829  0.2637  0.1084
77212W        W78076  22.858  27.657   6.821  0.0481  0.3000  0.1136
77213W        W78077  25.096  25.657  11.251  0.1275  0.1619 -0.1069
77214W        W78078  23.539  26.643  10.494  0.2005 -0.2848 -0.2156
77215W        W78079  22.514  27.803  11.113 -0.2992  0.2924 -0.1217
77216W        W78080  20.512  27.181  10.339  0.1019  0.2180 -0.1231
77217W        W78081  26.946  26.235   8.558 -0.2959 -0.3982 -0.4556
77218W        W78082  25.444  27.987  10.875 -0.0613 -0.1927  0.0375
77219W        W78083  24.984  25.197   8.152  0.1101 -0.1649 -0.1221
77220W        W78084  25.311  28.181   7.952  0.1524  0.3267 -0.1075
77221W        W78085  23.199  27.366   9.914 -0.0825 -0.0919 -0.1029
77222W        W78086  25.270   0.576   8.649  0.0490  0.2414 -0.0990
77223W        W78087  23.270  26.419   9.963 -0.0941 -0.3599  0.0550
77224W        W78088  23.418   1.094   9.417 -0.1534  0.0377 -0.0096
77225W        W78089  19.733   1.475   7.481 -0.0892 -0.0106 -0.0202
77226W        W78090  28.291  28.603   6.750 -0.1920  0.3329  0.1072
77227W        W78091  26.821   0.305   8.207 -0.3803 -0.0957 -0.0865
77228W        W78092  24.001  27.985   9.482  0.2284 -0.1286 -0.0894
77229W        W78093  23.651  27.441  12.129  0.0818 -0.0929 -0.1942
77230W        W78094  27.123  27.185   8.549  0.0465  0.1080  0.0024
77231W        W78095  24.584  27.668  12.965 -0.2877 -0.1207  0.2451
77232W        W78096  25.302   0.308   5.907  0.1670 -0.0515  0.0179
77233W        W78097  23.709  23.698   8.469  0.1187 -0.0337  0.2117
77234W        W78098  21.670  28.574  14.689 -0.1906 -0.1347  0.2158
77235W        W78099  21.725  28.486  14.187 -0.1464 -0.0655  0.0462
77236W        W78100  24.305  27.388  10.203  0.0010 -0.0997 -0.4720
77237W        W78101  25.861  27.837  13.857  0.0490 -0.3548 -0.4436
77238W        W78102  22.389  28.531   7.679  0.0028 -0.0358 -0.0439
77239W        W78103  22.924  26.893  14.194  0.5418  0.2742  0.1368
77240W        W78104  20.903  26.871  11.704 -0.5206 -0.0728 -0.0112
77241W        W78105  25.096  25.852  14.069  0.0453 -0.1158 -0.1692
77242W        W78106  24.127  28.481  11.988 -0.0009  0.1759  0.2885
77243W        W78107  21.285  27.987  16.252  0.1986  0.2991  0.2211
77244W        W78108  20.803  26.663  13.517  0.0249  0.3454  0.1370
77245W        W78109  22.749  25.209  13.730 -0.0499 -0.0671  0.2632
77246W        W78110  25.065  27.574  10.840  0.2148 -0.1636 -0.0255
77247W        W78111  25.466  27.216  14.606  0.1556 -0.2682  0.1465
77248W        W78112  20.940  27.190  14.243  0.1886  0.0640  0.4537
77249W        W78113  23.820  27.209  15.068 -0.0178 -0.0832 -0.0135
77250W        W78114  24.015  27.222  12.712  0.2250  0.0958  0.1876
77251W        W78115  22.771  26.420  13.511 -0.0128  0.0861  0.1177
77252W        W78116  20.967  27.687  14.142  0.0320 -0.2550 -0.1538
77253W        W78117  28.156  24.220  12.289 -0.0011  0.0441  0.0364
77254W        W78118  24.171  23.361  13.326  0.1294  0.2185 -0.1154
77255W        W78119  22.020  24.178  15.166  0.0080  0.0836  0.2282
77256W        W78120  21.899  28.049  12.923  0.0683  0.1750 -0.1661
77257W        W78121  25.157  29.013  11.282 -0.1606 -0.3209 -0.6116
77258W        W78122  24.477  23.979  15.524  0.1294  0.1484  0.0948
77259W        W78123  22.107  27.878  15.735  0.5836  0.2273  0.0540
77260W        W78124  23.745  27.743  15.781 -0.2902 -0.2494  0.0363
77261W        W78125  23.507  25.417  12.107  0.1295  0.0430 -0.1471
77262W        W78126  23.705  28.405  14.509  0.0702  0.0326  0.1454
77263W        W78127  22.235  24.699  13.157 -0.0430  0.0073 -0.0575
77264W        W78128  22.134  26.447  14.119  0.0031  0.1247  0.0984
77265W        W78129  23.161  27.518  15.048 -0.1715 -0.0727 -0.0834
77266W        W78130  20.659  26.974  14.903 -0.0102 -0.0111 -0.1038
77267W        W78131  22.431  26.816  14.552  0.1688  0.1107  0.0840
77268W        W78132  21.128  28.824  14.984  0.2209  0.0915 -0.1085
77269W        W78133  23.450  28.112  11.434 -0.0008 -0.2127  0.2283
77270W        W78134  23.019  24.280  14.530  0.0356  0.0930  0.1899
77271W        W78135  22.472  27.265  13.787  0.1536  0.1131  0.2438
77272W        W78136  27.190  28.564  10.872  0.0554 -0.1741 -0.4163
77273W        W78137  27.221  27.762  14.140 -0.1881 -0.0790 -0.3288
77274W        W78138  26.899  24.119  10.906  0.2152 -0.2754 -0.1992
77275W        W78139  26.048   1.143  13.014  0.1413 -0.1883 -0.1041
77276W        W78140  22.666   0.995  10.509 -0.1347  0.1041 -0.0220
77277W        W78141  24.915  27.891  12.131 -0.2963 -0.0815 -0.3616
77278W        W78142  21.204  27.044  11.284 -0.0509 -0.2412  0.0603
77279W        W78143  23.052  24.306  13.471  0.1543  0.1235 -0.1985
77280W        W78144  23.450  26.816  13.282 -0.0315  0.0821 -0.1491
77281W        W78145  24.202  26.344  15.695 -0.1076  0.0294 -0.0680
77282W        W78146  21.735  26.776  14.553 -0.1113 -0.0215 -0.0705
77283W        W78147  24.409   0.338  10.868 -0.0304 -0.1711  0.1852
77284W        W78148  24.429  28.813  11.186 -0.1614  0.1528 -0.0887
77285W        W78149  22.149  25.515  14.004  0.2006 -0.1147 -0.2495
77286W        W78150  24.423  25.695  13.363  0.1850 -0.0283 -0.1143
77287W        W78151  25.784  25.196  14.468  0.0698 -0.4129 -0.2189
77288W        W78152  22.636  25.433  15.080  0.0051  0.0370  0.2159
77289W        W78153  25.797  26.318  10.365 -0.2446 -0.2612 -0.0158
77290W        W78154  22.010  26.385  12.008 -0.1335  0.0378 -0.1542
77291W        W78155  25.696  26.921  12.607 -0.0337  0.2414 -0.1096
77292W        W78156  24.818   0.661  13.248  0.0145  0.0453 -0.0894
77293W        W78157  23.408  28.830  10.782 -0.0799 -0.1565 -0.0914
77294W        W78158  24.895  24.904  12.919  0.2718 -0.1499  0.1773
77295W        W78159  22.636  28.310  13.950 -0.0868 -0.1218  0.0451
77296W        W78160  21.894  28.328  15.049 -0.0690 -0.1420 -0.1392
77297W        W78161  24.140   0.650  11.163  0.0191  0.0438 -0.0228
77298W        W78162  24.603  24.892  15.100  0.0319  0.1248  0.0894
77299W        W78163  24.264  27.721  11.320  0.1361  0.1919  0.1681
77300W        W78164  24.102  27.726  12.814  0.1267 -0.2779  0.0586
77301W        W78165  23.503  25.363  10.152 -0.0982  0.2046 -0.1220
77302W        W78166  24.370  26.330  11.339  0.2825  0.3660  0.0948
77303W        W78167  21.966  27.511  13.880 -0.2823 -0.1601  0.2073
77304W        W78168  24.348  27.073  13.767 -0.1886 -0.6549  0.1136
77305W        W78169  22.758  24.014  13.750  0.1812 -0.0707  0.0765
77306W        W78170  26.240   0.017  12.602 -0.0003 -0.1201 -0.2390
77307W        W78171  23.030  24.223  12.048 -0.2540 -0.0370  0.2233
77308W        W78172  26.348  28.539  11.795 -0.0016 -0.1965  0.0369
77309W        W78173  24.742  26.191  14.179  0.1692  0.2354 -0.1642
77310W        W78174  20.059  27.203  10.550 -0.2904  0.1185  0.2143
77311W        W78175  23.344  28.384  15.212  0.0306 -0.0634 -0.1375
77312W        W78176  24.311  27.820   8.868 -0.2952  0.0092 -0.1106
77313W        W78177  22.363  26.011  14.233 -0.2281 -0.1365 -0.2298
77314W        W78178  23.916  26.635  12.581  0.1285  0.2226 -0.3192
77315W        W78179  20.441  27.052  15.418 -0.1218  0.2586 -0.0952
77316W        W78180  20.585  29.112  13.890  0.0649  0.0531 -0.0075
77317W        W78181  23.579  25.285  13.480 -0.2056  0.0777  0.1328
77318W        W78182  22.321  25.913  14.778 -0.2703 -0.1919 -0.2038
77319W        W78183  23.907  26.513   8.254 -0.0063 -0.1193  0.0009
77320W        W78184  24.005   1.211  14.619  0.1030  0.2071  0.1980
77321W        W78185  24.477  25.779  16.968 -0.0538  0.0671  0.1655
77322W        W78186  24.180  26.279  14.593 -0.1242  0.0120 -0.1030
77323W        W78187  23.569  25.111  12.464 -0.4732 -0.2442  0.0002
77324W        W78188  24.314  26.402  12.828 -0.1799  0.0942  0.2529
77325W        W78189  23.173  24.774  14.972  0.1437 -0.4226 -0.0189
77326W        W78190  22.211  28.906  11.366 -0.0182 -0.1000 -0.2590
77327W        W78191  27.076  25.053  12.385 -0.3214  0.2722 -0.1966
77328W        W78192  19.849  26.032  13.446 -0.1828  0.0742  0.1685
77329W        W78193  25.427  23.833  12.554  0.0715  0.1241  0.1797
77330W        W78194  24.954  26.713  10.615  0.0536 -0.0405 -0.1350
77331W        W78195  21.387  28.381  15.939  0.0350  0.0975  0.1259
77332W        W78196  24.984  25.628  13.396  0.3071  0.1502 -0.0119
77333W        W78197  25.123  26.087  12.178  0.3379  0.1459  0.1072
77334W        W78198  25.803   0.797  10.696  0.2444  0.2018  0.0216
77335W        W78199  20.606  25.898  14.012 -0.3734  0.0294 -0.0377
77336W        W78200  24.037  28.162  10.617  0.0051  0.0618 -0.3787
77337W        W78201  24.415   0.013  12.532 -0.0658 -0.4492 -0.0465
77338W        W78202  23.553  25.765  10.908  0.2749 -0.1410  0.2599
77339W        W78203  23.181  26.629  16.136  0.0768  0.0020  0.1761
77340W        W78204  24.808   0.147  11.112 -0.1038  0.2471 -0.0217
77341W        W78205  25.481  24.717  13.604  0.0194  0.1589  0.1485
77342W        W78206  23.345  22.178  12.522 -0.1778 -0.0838 -0.0640
77343W        W78207  23.170  27.998  14.798  0.1308 -0.1482 -0.1318
77344W        W78208  22.622  25.554  14.586 -0.2100 -0.2491  0.0429
77345W        W78209  25.290  27.268  12.648 -0.2920  0.0335  0.2927
77346W        W78210  24.498  27.420  11.706  0.3335  0.2583  0.1472
77347W        W78211  23.647   0.086  14.778  0.0980  0.0188 -0.2026
77348W        W78212  25.004   0.722  10.229 -0.0178  0.0827 -0.1997
77349W        W78213  21.929  24.468  14.792 -0.2785 -0.0000 -0.1176
77350W        W78214  25.914  25.547  12.103  0.0467  0.0496 -0.0762
77351W        W78215  23.322  25.984  15.585  0.0448  0.1662  0.1146
77352W        W78216  25.047  24.278  12.939  0.2462 -0.2983 -0.0824
77353W        W78217  27.819  25.374  12.213  0.0250 -0.0287  0.1495
77354W        W78218  26.654  26.940   9.097  0.1660 -0.2520  0.1318
77355W        W78219  26.911  28.604  11.287  0.0856 -0.2103  0.1131
77356W        W78220  25.524  25.523  14.055  0.2469  0.1699  0.1486
77357W        W78221  23.731  26.164  10.460 -0.0085 -0.2732  0.4179
77358W        W78222  25.948  28.778  11.925  0.3837 -0.0758  0.1479
77359W        W78223  24.604   1.717  13.371  0.2517  0.1537 -0.1905
77360W        W78224  20.950  27.452  14.714 -0.1822 -0.2480 -0.0823
77361W        W78225  26.963  25.839  14.399 -0.1421  0.2643  0.0762
77362W        W78226  25.689   1.800  12.461 -0.2799  0.1847 -0.0769
77363W        W78227  22.977   1.733  13.960  0.3279 -0.3261 -0.3081
77364W        W78228  23.872  29.116  11.714 -0.3397  0.2275  0.0868
77365W        W78229  22.523  25.060  12.244  0.1138  0.3672 -0.0964
77366W        W78230  24.968  27.665  12.591  0.0888  0.1023  0.1380
77367W        W78231  23.828  26.857  12.125 -0.2946 -0.0934 -0.0160
77368W        W78232  24.708  26.049  14.624  0.0527 -0.2275 -0.0894
77369W        W78233  21.248  26.392  13.670 -0.0471  0.1362  0.0350
77370W        W78234  25.551  25.911  12.029  0.1627 -0.1565  0.1891
77371W        W78235  23.595  23.745  14.020 -0.1819 -0.2380  0.1875
77372W        W78236  24.027  28.398  12.471  0.3145  0.1292 -0.0713
77373W        W78237  22.712  25.704  14.062  0.1652 -0.0157  0.0509
77374W        W78238  24.097  25.171  11.215 -0.0120 -0.1711 -0.0628
77375W        W78239  22.394  24.328  13.654 -0.4236  0.1036 -0.0339
77376W        W78240  21.164  26.776  12.578  0.0537 -0.2592 -0.0590
77377W        W78241  22.977  25.736  12.447  0.1650 -0.1081 -0.1507
77378W        W78242  20.871  28.181  15.164  0.0384  0.1863 -0.0081
77379W        W78243  23.955  26.843  14.005  0.0204 -0.2287  0.2496
77380W        W78244  25.086  23.787  11.487 -0.0303 -0.0802  0.2577
77381W        W78245  24.509  28.654  11.699  0.1609  0.0037  0.0348
77382W        W78246  23.310   0.491  12.264 -0.0617  0.1371 -0.1236
77383W        W78247  26.748  26.053  14.800 -0.0068 -0.4382  0.0364
77384W        W78248  23.057  26.381  11.851  0.2521 -0.2993  0.0865
77385W        W78249  23.491  22.953  11.408  0.2933  0.0183 -0.0571
77386W        W78250  22.065  28.834  14.003  0.0759 -0.1519 -0.3343
77387W        W78251  23.286  24.775  10.800 -0.2384  0.0190 -0.0987
77388W        W78252  25.405  26.382  15.799 -0.3718  0.3022 -0.0674
77389W        W78253  23.043  24.918  14.106  0.1842  0.4301 -0.2681
77390W        W78254  22.119  28.415  13.713  0.0550  0.1957 -0.4273
77391W        W78255  23.757  27.214  13.179 -0.1786  0.2406  0.0360
77392W        W78256  21.294  22.865  10.291  0.1217 -0.0657 -0.1264
77393W        W78257  24.132  25.908  13.762 -0.2345  0.1353  0.0522
77394W        W78258  24.134  23.048  15.217 -0.3354 -0.2585 -0.2100
77395W        W78259  23.462  26.393  12.135 -0.1915 -0.0271  0.1864
77396W        W78260  26.596  25.509  13.972 -0.0119  0.1262  0.1544
77397W        W78261  26.818  26.326  14.203 -0.2303 -0.0868  0.1423
77398W        W78262  22.463  25.618  16.009 -0.0488 -0.0184  0.1083
77399W        W78263  22.689  23.788  12.438  0.2785 -0.1803  0.1006
77400W        W78264  25.260  28.464  10.919  0.1811 -0.2346 -0.0778
77401W        W78265  23.543  26.958  12.798  0.1345 -0.0297 -0.3073
77402W        W78266  24.169  27.972  12.043 -0.0481  0.0416 -0.1482
77403W        W78267  23.342   0.171  10.526 -0.1226 -0.1647  0.2785
77404W        W78268  24.762  26.394  13.127 -0.1262 -0.0189 -0.1596
77405W        W78269  25.363  25.878  13.625 -0.0551  0.0537  0.1053
77406W        W78270  25.266  26.482  11.434 -0.2940 -0.4803  0.1951
77407W        W78271  26.040  26.541  12.571  0.2885 -0.3917 -0.2804
77408W        W78272  24.344  25.568  12.854 -0.3539 -0.0654  0.1565
77409W        W78273  25.152  24.386  11.940  0.1265  0.2164  0.2065
77410W        W78274  21.083   0.997  12.973 -0.3309 -0.0787  0.1354
77411W        W78275  23.083   0.724  14.241  0.1352 -0.0885  0.0433
77412W        W78276  22.440   0.548  11.444  0.2050  0.3728 -0.0375
77413W        W78277  24.328  25.785  14.653 -0.2087  0.2370 -0.3085
77414W        W78278  24.805  28.323  12.581  0.0942  0.1251  0.0123
77415W        W78279  24.423  28.082   8.363  0.0053 -0.0150  0.0303
77416W        W78280  24.867  27.574  10.162 -0.2646  0.0627 -0.0982
77417W        W78281  21.880  28.110  14.531  0.2441 -0.1273 -0.2250
77418W        W78282  24.599  27.031  11.984  0.0890  0.1114  0.1662
77419W        W78283  22.686  27.269  14.507 -0.1129  0.0044 -0.2807
77420W        W78284  23.292  24.530  12.499  0.2331 -0.0918  0.3412
77421W        W78285  19.583  27.290  11.705 -0.1171 -0.0406  0.1983
77422W        W78286  24.449  26.753  13.356 -0.1162  0.0810  0.1396
77423W        W78287  21.530  25.987  13.690 -0.2814  0.1615 -0.0257
77424W        W78288  25.160  25.982  11.675  0.3082  0.1480 -0.0453
77425W        W78289  24.698   0.023  10.470 -0.1238 -0.2065  0.1381
77426W        W78290  23.442  28.379  14.067 -0.0915 -0.0567  0.0020
77427W        W78291  23.174  25.521  13.678  0.0261  0.1064  0.1929
77428W        W78292  23.945  24.457  15.118  0.1699  0.1608  0.2784
77429W        W78293  23.687  27.380   9.920 -0.2533 -0.0204 -0.5204
77430W        W78294  22.271  24.622  12.348 -0.2994  0.0870 -0.0694
77431W        W78295  21.320  25.653  12.852  0.0196 -0.0663  0.2662
77432W        W78296  19.228  27.113  14.881 -0.0543  0.2231  0.0825
77433W        W78297  23.001  25.678  15.945  0.0836  0.1535  0.0227
77434W        W78298  25.408  27.012  13.101  0.2254  0.0406 -0.0828
77435W        W78299  26.957  27.375  13.513  0.0458  0.3379  0.1082
77436W        W78300  23.377  26.662  14.583  0.2719  0.0885  0.0875
77437W        W78301  22.839  25.857  14.910  0.0004  0.0027 -0.4131
77438W        W78302  23.832  24.863  13.315  0.0274 -0.1577  0.0312
77439W        W78303  23.574  27.722  13.091  0.3394  0.2056  0.0428
77440W        W78304  22.999  28.003  15.260  0.0960  0.1395  0.3715
77441W        W78305  24.231  26.968  14.616  0.0146 -0.1193  0.1444
77442W        W78306  25.379   0.381  11.078  0.1514  0.1445 -0.0653
77443W        W78307  21.124  26.711  12.093 -0.0755  0.2253  0.0597
77444W        W78308  23.816  26.685  14.857 -0.2470  0.1784  0.1438
77445W        W78309  22.009  28.816  13.462 -0.0903 -0.0360 -0.0925
77446W        W78310  22.935  26.813  15.737 -0.1582  0.0768 -0.2910
77447W        W78311  24.223  25.105  15.915  0.0583 -0.1045 -0.2351
77448W        W78312  26.683  25.499  15.309  0.2800 -0.1295  0.0289
77449W        W78313  25.036  26.833  11.906  0.0383 -0.1237 -0.4392
77450W        W78314  25.157  26.296  10.456 -0.0822  0.0212  0.0958
77451W        W78315  25.869  25.624  11.069 -0.1695 -0.0795  0.2638
77452W        W78316  25.291  26.844  16.946 -0.2508  0.1104 -0.2264
77453W        W78317  21.237  28.388  13.414 -0.2073  0.1342 -0.1671
77454W        W78318  23.756  25.290  14.967 -0.2833  0.0483 -0.1313
77455W        W78319  26.504  26.847  15.000 -0.0678  0.0078  0.1059
77456W        W78320  25.476  25.725  14.537  0.0230  0.0038 -0.1306
77457W        W78321  25.675  24.755  13.158  0.0451  0.3281 -0.1242
77458W        W78322  26.105  26.872  11.263 -0.2025  0.0093 -0.2132
77459W        W78323  19.768  26.982  16.078  0.0426  0.0601 -0.0137
77460W        W78324  22.894   1.341  15.178  0.4478  0.2600 -0.3201
77461W        W78325  21.765  26.214  14.572 -0.1378 -0.0579  0.0113
77462W        W78326  25.771  27.130  14.182  0.1318 -0.1176 -0.4186
77463W        W78327  23.326  25.879  15.086 -0.0293 -0.2274 -0.1864
77464W        W78328  24.548  26.488  13.793 -0.1852 -0.1791 -0.0803
77465W        W78329  23.793  27.738  13.970  0.0239  0.0883  0.2839
77466W        W78330  23.262  25.439  12.713  0.0298  0.2343 -0.0052
77467W        W78331  23.273  26.391  14.156  0.0344  0.0448 -0.1940
77468W        W78332  21.554  24.126  15.393 -0.0923 -0.0263 -0.1556
77469W        W78333  23.894  26.881  13.472  0.0739 -0.0719  0.2431
77470W        W78334  25.197  24.906  12.040 -0.1446 -0.0134 -0.1485
77471W        W78335  22.721  25.978  16.277  0.1346 -0.2234  0.1421
77472W        W78336  25.436  27.005  12.155  0.3057 -0.3443 -0.2169
77473W        W78337  22.273   1.205  11.337  0.2352  0.2755  0.0945
77474W        W78338  22.056   0.211  11.413  0.0028 -0.2110 -0.1472
77475W        W78339  20.983  28.441  16.313  0.4161 -0.0290  0.1838
77476W        W78340  23.103  27.070  17.533  0.1500 -0.1489  0.1489
77477W        W78341  23.213  25.606  14.679 -0.0492  0.2005  0.0673
77478W        W78342  25.337  27.853  13.852 -0.0009  0.1627  0.2146
77479W        W78343  23.527  28.596  10.236 -0.0932  0.0697 -0.0493
77480W        W78344  25.406  28.464  10.413  0.2546  0.1005 -0.0973
77481W        W78345  21.114  27.724  15.077 -0.0226  0.2725 -0.0457
77482W        W78346  23.939   0.209  12.322 -0.0105  0.0448 -0.0989
77483W        W78347  22.977  24.725  13.218  0.1466 -0.3241  0.0641
77484W        W78348  21.315  28.260  14.342 -0.3103 -0.0384  0.1690
77485W        W78349  24.343  28.567  15.119 -0.2400  0.0054 -0.2026
77486W        W78350  24.633  27.211  13.421 -0.3179  0.3900  0.0105
77487W        W78351  23.041  25.104  15.433 -0.1422 -0.1644  0.1915
77488W        W78352  22.434  25.983  12.686 -0.1319  0.2550 -0.2674
77489W        W78353  26.983  28.071  11.136  0.3008 -0.3172 -0.1307
77490W        W78354  24.721  24.466   9.972  0.0654  0.2500 -0.0587
77491W        W78355  25.231  25.698  12.906  0.1930 -0.1695  0.0178
77492W        W78356  23.547   0.603  10.691 -0.0042 -0.0047 -0.0190
77493W        W78357  25.715  25.639  10.488  0.0281 -0.1409 -0.4788
77494W        W78358  25.978  25.865  11.572  0.0065  0.2392 -0.1057
77495W        W78359  24.239  25.951  16.070 -0.1491  0.0919 -0.2367
77496W        W78360  26.153  28.632  14.802  0.0052 -0.1170 -0.2460
77497W        W78361  24.858  25.386  15.060 -0.0389  0.0229 -0.1661
77498W        W78362  23.167   1.594  12.368  0.0339  0.0874  0.2366
77499W        W78363  22.017   1.685  14.276  0.0554  0.1900  0.2028
77500W        W78364  20.032  27.433  11.888  0.1413 -0.2776  0.1157
77501W        W78365  25.354  28.093  11.855 -0.2033 -0.4480 -0.1291
77502W        W78366  21.562  26.490  14.977 -0.3806  0.1504  0.1497
77503W        W78367  24.654  25.039   9.240  0.2081  0.1525 -0.1413
77504W        W78368  23.588  27.277  13.775  0.0572 -0.0994 -0.0435
77505W        W78369  26.114  25.546  13.335 -0.4669  0.0269  0.0389
77506W        W78370  25.606  24.146  12.137  0.1318  0.1847 -0.2484
77507W        W78371  23.815  27.258  11.183 -0.0783 -0.1177  0.0493
77508W        W78372  25.670  28.857  14.799 -0.1853  0.2597  0.0685
77509W        W78373  23.760  25.642  13.173 -0.2171  0.2689  0.0524
77510W        W78374  20.491  25.651  15.674  0.0388  0.1173  0.1926
77511W        W78375  22.682  28.271  14.931  0.2786 -0.0086 -0.1528
77512W        W78376  24.310  28.387   9.277 -0.2093 -0.2649  0.0571
77513W        W78377  22.634  26.421  14.866  0.0356 -0.2606 -0.0290
77514W        W78378  23.758  26.148  13.997  0.0815  0.0563  0.1808
77515W        W78379  22.987  26.483  12.383 -0.0022  0.0976  0.1920
77516W        W78380  21.692  27.217  13.539  0.1999  0.0110 -0.1430
77517W        W78381  21.422  26.817  13.366  0.0644 -0.0018  0.2853
77518W        W78382  26.539  25.942   9.820 -0.0231  0.2518  0.1280
77519W        W78383  25.078  27.135  15.006  0.0194 -0.2088  0.0642
77520W        W78384  24.095  27.225  11.994 -0.3187 -0.3949 -0.0531
77521W        W78385  21.457   1.220  17.188 -0.0945  0.0493 -0.3148
77522W        W78386  24.866  27.472  11.272 -0.2557 -0.4416 -0.0914
77523W        W78387  26.447  28.235  13.436 -0.2056  0.1401  0.2684
77524W        W78388  22.574  25.004  13.319  0.1949 -0.1871  0.2037
77525W        W78389  26.732  26.453   9.982  0.2681  0.1701 -0.2443
77526W        W78390  24.025  24.863  16.397 -0.4245 -0.1355  0.0114
77527W        W78391  22.629  24.754  15.175 -0.2319  0.2980 -0.0474
77528W        W78392  24.649  26.864  12.891 -0.1892  0.0903 -0.0483
77529W        W78393  24.735  25.879  13.015  0.0597  0.1669 -0.0204
77530W        W78394  23.724  28.196  15.501 -0.0980 -0.0124  0.0426
77531W        W78395  25.721  28.390  14.987  0.3037 -0.1918 -0.0842
77532W        W78396  23.662  25.685  13.765  0.0575  0.1973 -0.0380
77533W        W78397  20.687  27.954  11.916  0.5159 -0.0273 -0.1564
77534W        W78398  21.970  26.508  10.937 -0.0340  0.1796  0.0926
77535W        W78399  21.486  26.456  16.409 -0.1059  0.3380  0.1514
77536W        W78400  25.622  28.504  12.193 -0.0254  0.1262  0.0605
77537W        W78401  26.206  28.112  10.599  0.0908 -0.2098 -0.0090
77538W        W78402  22.957  25.603   9.378  0.0075 -0.1496  0.2486
77539W        W78403  24.247  26.281  14.113 -0.1297 -0.3623  0.0816
77540W        W78404  27.721   0.165  13.933  0.1902  0.0037 -0.1015
77541W        W78405  24.447  25.107  12.750 -0.1291 -0.0845  0.0220
77542W        W78406  27.144  26.079  13.930 -0.3095 -0.1519 -0.0542
77543W        W78407  23.308   0.021  14.001  0.1258 -0.0982  0.0280
77544W        W78408  21.942  27.977  13.454 -0.2784 -0.1224  0.1978
77545W        W78409  20.757  26.067  15.515 -0.1543 -0.1101  0.1002
77546W        W78410  26.205  26.947  13.859 -0.2025  0.1362  0.1992
77547W        W78411  22.816  26.229  13.949 -0.0477  0.1789  0.0236
77548W        W78412  20.248  28.986  14.930  0.0830  0.0731 -0.0012
77549W        W78413  20.232  28.802  12.119  0.2333 -0.0738 -0.2125
77550W        W78414  25.384  26.483  10.929  0.0040 -0.1525 -0.2568
77551W        W78415  23.727  25.332   9.236 -0.1726  0.0414  0.2343
77552W        W78416  22.147   0.170  15.272 -0.0389  0.0996 -0.0392
77553W        W78417  22.277  25.577  11.314  0.3750 -0.0066 -0.1038
77554W        W78418  22.292  28.444  14.663  0.1715  0.0021 -0.1685
77555W        W78419  25.112   2.064  10.978  0.3163  0.0769  0.0191
77556W        W78420  24.010  25.899  14.307  0.3640  0.1844  0.0632
77557W        W78421  26.369   0.365  11.564  0.1220 -0.2851  0.0997
77558W        W78422  21.410  28.250  11.650 -0.1194 -0.1038  0.0122
77559W        W78423  23.919  26.451  13.136  0.2433  0.1776  0.1078
77560W        W78424  20.769  24.851  15.568  0.1247  0.2267  0.0709
77561W        W78425  21.853  25.658   8.634 -0.2338  0.1996 -0.1202
77562W        W78426  21.546  26.914  12.860  0.0738  0.0173 -0.0011
77563W        W78427  19.841  25.362  11.378  0.0854 -0.3452 -0.1153
77564W        W78428  20.223  24.544  13.422  0.2382  0.1124 -0.1785
77565W        W78429  26.145  25.152  10.250  0.2506  0.0412  0.0657
77566W        W78430  24.183   0.169  16.544 -0.0042 -0.0218 -0.1169
77567W        W78431  25.124  26.374  14.878 -0.2616  0.0138 -0.1894
77568W        W78432  25.927  27.424  16.922 -0.1448 -0.0582 -0.2386
77569W        W78433  26.329  27.876  16.712  0.1005 -0.0453 -0.2283
77570W        W78434  23.267   0.271  14.381 -0.0132  0.1039  0.0877
77571W        W78435  24.863  28.614  11.306  0.3383  0.0858  0.2253
77572W        W78436  26.012  26.018  14.605 -0.0212  0.1315  0.0303
77573W        W78437  22.915  24.684  12.283  0.1249 -0.2484  0.1032
77574W        W78438  24.349  27.643  13.933  0.1350 -0.1499  0.0063
77575W        W78439  22.651  26.439  14.363  0.0432  0.0635  0.1150
77576W        W78440  24.890  24.598  11.409 -0.1104 -0.0446 -0.2259
77577W        W78441  21.717  28.782  12.692  0.3382 -0.3649 -0.1137
77578W        W78442  25.754  26.971  13.458 -0.0712  0.1643 -0.1949
77579W        W78443  23.477  27.482  14.234 -0.0009  0.0013  0.0994
77580W        W78444  24.121  26.400   9.669  0.2496  0.0353 -0.1707
77581W        W78445  21.945  26.110  13.404 -0.0973 -0.1850  0.1697
77582W        W78446  24.316  29.034  10.761  0.1346  0.0711  0.1152
77583W        W78447  20.871  22.695  12.026  0.0214  0.3165  0.0555
77584W        W78448  24.486  23.073  15.601 -0.0703 -0.1340  0.0033
77585W        W78449  24.649  23.739  11.341 -0.1747 -0.0198  0.0653
77586W        W78450  22.433  23.934  15.098  0.0876 -0.4754  0.4201
77587W        W78451  23.092  29.108  12.955  0.0708 -0.2440  0.2801
77588W        W78452  22.162  26.686  10.515 -0.0812  0.3029 -0.0181
77589W        W78453  24.990  28.050  10.156  0.3447  0.0157 -0.1705
77590W        W78454  23.430  29.106  11.946 -0.1568  0.2509 -0.1283
77591W        W78455  21.114  25.813  14.488 -0.0423 -0.1027  0.1091
77592W        W78456  22.257  26.185  11.359 -0.0440  0.1959  0.1358
77593W        W78457  23.496  27.423  12.593 -0.0867 -0.2670 -0.0866
77594W        W78458  22.276  28.200  12.118  0.0607 -0.0301 -0.2983
77595W        W78459  24.971  27.800  17.143  0.1495  0.1628 -0.0370
77596W        W78460  22.669  28.398  13.472  0.3128 -0.1423  0.0373
77597W        W78461  22.144  27.307  11.849  0.4102  0.1840  0.0074
77598W        W78462  23.172   1.034  10.947  0.2694 -0.2126 -0.1578
77599W        W78463  24.715   1.477  12.447 -0.0598 -0.0573 -0.0222
77600W        W78464  24.285  27.300  13.107  0.2321 -0.1321 -0.1404
77601W        W78465  22.910  26.783  14.696 -0.1693 -0.1231 -0.0685
77602W        W78466  24.393  25.914  11.653 -0.0952 -0.2956 -0.1043
77603W        W78467  27.169  22.195  11.696 -0.0457 -0.1609  0.0199
77604W        W78468  24.413  28.647  10.435  0.0217  0.1876  0.1879
77605W        W78469  25.401  26.429  11.943 -0.0930 -0.1665 -0.2598
77606W        W78470  22.322  28.421   9.452 -0.1509 -0.2447 -0.1075
77607W        W78471  25.525  27.428  15.910  0.1875  0.1012  0.0460
77608W        W78472  26.149  27.400  13.142 -0.0063  0.0164  0.4263
77609W        W78473  24.922  26.902  14.571 -0.3084  0.0178 -0.1368
77610W        W78474  21.037  25.608  13.717  0.0828  0.1982  0.2358
77611W        W78475  27.214  28.438  12.266  0.0877  0.0218 -0.2247
77612W        W78476  21.869  24.959  14.916 -0.2555 -0.1186 -0.1094
77613W        W78477  23.153  27.220  14.512 -0.0963  0.1372  0.0056
77614W        W78478  24.541  27.903  12.544  0.4235 -0.2756  0.0948
77615W        W78479  24.507  26.720  14.312  0.4153 -0.0608  0.1724
77616W        W78480  24.355  28.053  13.668  0.0337 -0.1448  0.2382
77617W        W78481  23.036  27.283  12.508 -0.1199  0.0929  0.1741
77618W        W78482  26.124  27.149  15.166  0.2490 -0.1602  0.0954
77619W        W78483  25.786  24.314  13.451  0.0525  0.0545 -0.2583
77620W        W78484  22.944   0.530  11.751 -0.0118  0.1469 -0.1615
77621W        W78485  24.367   0.088  13.569  0.1622 -0.1056  0.0281
77622W        W78486  20.836  28.222  14.201  0.2211  0.1044 -0.1584
77623W        W78487  24.257  25.848  11.050  0.2022 -0.0659 -0.1940
77624W        W78488  23.369  26.977  14.957  0.3757 -0.0966  0.1275
77625W        W78489  22.438  26.492  12.381  0.1960  0.5057  0.0956
77626W        W78490  25.008  28.784  11.744  0.0218  0.0021  0.1227
77627W        W78491  24.047   0.389  13.348  0.1930 -0.1396  0.0085
77628W        W78492  21.645  28.576  10.736 -0.0719 -0.0833  0.0003
77629W        W78493  25.778  25.150  15.914 -0.1941  0.0329  0.0300
77630W        W78494  26.885  28.922  12.085  0.2122  0.1544 -0.0015
77631W        W78495  24.701  26.665  14.937  0.2682  0.0258 -0.1753
77632W        W78496  22.365  27.482  10.193  0.3178  0.0379  0.0313
77633W        W78497  22.462  25.851   9.309 -0.1181  0.0880 -0.3652
77634W        W78498  21.900   3.588  19.118 -0.1588  0.0350  0.1760
77635W        W78499  21.330   2.555  16.144 -0.2321 -0.3926 -0.0576
77636W        W78500  24.360  28.586  13.351 -0.0565  0.0373 -0.0514
77637W        W78501  25.101   0.665  18.235 -0.0925 -0.1300  0.0888
77638W        W78502  25.092  26.614  14.146  0.1459 -0.0535 -0.0784
77639W        W78503  24.722  27.470  16.232 -0.1010  0.2491 -0.0744
77640W        W78504  21.382  26.618  18.328 -0.0707  0.1840  0.5041
77641W        W78505  21.935  29.028  17.706  0.0053  0.0259 -0.0702
77642W        W78506  20.132  28.248  18.156  0.2252 -0.0013 -0.0448
77643W        W78507  22.914  25.324  19.144 -0.3096  0.0278 -0.2041
77644W        W78508  22.818  22.899  21.318 -0.1455  0.1176 -0.1220
77645W        W78509  25.457  24.591  17.777 -0.4977 -0.2395  0.0013
77646W        W78510  23.004  27.127  17.033 -0.1618 -0.1992  0.3251
77647W        W78511  23.728  24.319  17.814  0.1831  0.0016  0.0277
77648W        W78512  24.106  25.261  20.724 -0.0947  0.0508  0.1050
77649W        W78513  23.251   0.363  19.694 -0.1585  0.0653  0.0391
77650W        W78514  23.935  28.616  12.996  0.2969 -0.1338  0.0854
77651W        W78515  21.294   0.588  17.338  0.1309  0.4228 -0.0233
77652W        W78516  21.301  27.313  18.336 -0.0089  0.1977 -0.0584
77653W        W78517  24.277  27.192  15.456 -0.2648  0.2252 -0.0660
77654W        W78518  24.871   0.363  19.927 -0.1627  0.4122  0.0546
77655W        W78519  25.904   0.183  15.553 -0.2142 -0.4126  0.0829
77656W        W78520  22.766  27.988  17.651 -0.0492  0.5415  0.0941
77657W        W78521  23.007   2.103  16.524  0.0991  0.2483  0.0843
77658W        W78522  20.500  28.531  17.805 -0.2303  0.0420 -0.2604
77659W        W78523  24.083  26.129  20.248 -0.0313  0.1291  0.2056
77660W        W78524  26.698  25.852  18.758  0.0960  0.0612 -0.2682
77661W        W78525  24.182  28.845  18.214  0.0322 -0.1005 -0.0714
77662W        W78526  22.649   0.392  17.022 -0.0777  0.0517  0.1198
77663W        W78527  22.465  26.213  16.713  0.0743  0.4028  0.2354
77664W        W78528  24.900  26.733  18.059 -0.2766  0.0524 -0.0756
77665W        W78529  23.167   1.731  18.395  0.0614 -0.3697 -0.0264
77666W        W78530  22.811  28.047  16.683 -0.1469 -0.1556 -0.2318
77667W        W78531  26.296  27.981  16.118 -0.1830  0.0700 -0.0050
77668W        W78532  22.252  26.235  17.806  0.0123 -0.0194 -0.0897
77669W        W78533  24.167  28.092  15.194  0.0685 -0.3045 -0.0406
77670W        W78534  21.633  29.105  14.795 -0.1282 -0.1464  0.1841
77671W        W78535  20.104  27.370  17.798 -0.1446 -0.2367 -0.2929
77672W        W78536  25.163  29.017  14.942  0.4601 -0.0506 -0.1280
77673W        W78537  23.163  27.184  15.878 -0.2753  0.1249 -0.0601
77674W        W78538  26.025  25.500  14.774  0.0684  0.1913 -0.1652
77675W        W78539  24.310  27.899  18.207  0.1046  0.2235  0.0594
77676W        W78540  24.815  26.260  18.882  0.0353 -0.1462  0.0848
77677W        W78541  23.775  26.369  15.390 -0.0357 -0.0305  0.0865
77678W        W78542  19.741   2.184  14.423  0.0089  0.0386  0.0539
77679W        W78543  23.938  28.263  13.966  0.1035 -0.0813 -0.0695
77680W        W78544  20.511  27.415  16.271 -0.0100  0.1198  0.0101
77681W        W78545  25.359   0.813  16.382  0.0578  0.0000 -0.2047
77682W        W78546  23.781  27.742  17.428 -0.2064  0.2046 -0.0297
77683W        W78547  26.124  28.666  15.344 -0.0157 -0.1807  0.2053
77684W        W78548  25.083  27.042  17.311  0.1652  0.1954  0.0342
77685W        W78549  21.716   2.201  17.391 -0.3755  0.1165  0.0185
77686W        W78550  25.249   0.266  16.354 -0.0378  0.0473  0.1953
77687W        W78551  26.561   0.255  15.020  0.1852 -0.3082  0.1211
77688W        W78552  24.001  24.014  18.052  0.0795 -0.0448 -0.0735
77689W        W78553  21.997  28.368  16.653 -0.1432  0.0778 -0.3709
77690W        W78554  19.726   0.185  12.098  0.1451  0.2299 -0.3504
77691W        W78555  24.129  26.846  16.233 -0.0000  0.0699  0.0157
77692W        W78556  20.920  27.246  15.262 -0.0059  0.0469  0.0043
77693W        W78557  24.349  26.210  13.406 -0.0755 -0.3241  0.0867
77694W        W78558  24.583  27.205  14.253 -0.1906  0.2642  0.2294
77695W        W78559  22.938   1.696  17.308  0.3561  0.2124 -0.0646
77696W        W78560  22.275   0.038  18.437  0.1557  0.1504 -0.2212
77697W        W78561  23.938  26.047  15.106  0.0129  0.0506  0.0796
77698W        W78562  23.113  27.265  17.999  0.0932 -0.1948  0.1637
77699W        W78563  26.320  27.660  17.877  0.1492 -0.0311  0.2491
77700W        W78564  23.779  28.694  15.443 -0.1404 -0.3444 -0.0912
77701W        W78565  20.305  28.217  14.174 -0.3149 -0.0043 -0.3926
77702W        W78566  24.227  28.119  13.131 -0.3753  0.0484  0.0496
77703W        W78567  23.492  27.887  15.179 -0.3079  0.0525 -0.1663
77704W        W78568  25.076   0.418  15.916 -0.0551 -0.1181  0.0405
77705W        W78569  25.904  24.406  15.711 -0.1362 -0.1740  0.0969
77706W        W78570  23.521  28.816  14.948  0.2380  0.1480  0.3744
77707W        W78571  23.239  27.741  17.761  0.1525  0.1336 -0.0457
77708W        W78572  24.702  28.523  15.946  0.2746  0.2067  0.0813
77709W        W78573  23.548  27.597  19.270  0.5178 -0.0773  0.0232
77710W        W78574  23.311  28.519  16.243 -0.0940  0.1784  0.1322
77711W        W78575  21.732   1.137  18.528 -0.3430  0.2258 -0.2095
77712W        W78576  26.949  26.867  14.227 -0.0942  0.0200 -0.4627
77713W        W78577  24.069  26.353  16.315 -0.0542  0.2547  0.0050
77714W        W78578  20.168  25.413  14.516 -0.0741  0.1748  0.2436
77715W        W78579  21.574  27.199  16.915  0.1180  0.4217 -0.1558
77716W        W78580  20.647  27.529  17.821  0.1417  0.1555  0.1493
77717W        W78581  24.357  24.154  19.841 -0.0731  0.1267 -0.0225
77718W        W78582  24.068  28.906  18.840  0.0259  0.1156 -0.1185
77719W        W78583  23.932  25.207  17.340  0.0461  0.0463 -0.1822
77720W        W78584  24.661  28.656  17.445 -0.0405 -0.0644 -0.1341
77721W        W78585  22.720  27.101  18.421  0.0923  0.1450 -0.0386
77722W        W78586  23.217  28.195  15.679 -0.0101 -0.1216  0.1225
77723W        W78587  22.803  25.739  18.463 -0.1558  0.0333  0.0958
77724W        W78588  25.420  26.482  17.563  0.3077  0.0459  0.2095
77725W        W78589  23.462  26.111  22.078 -0.1175 -0.1690 -0.2351
77726W        W78590  21.871   1.052  16.156  0.0972  0.2930 -0.1890
77727W        W78591  24.174  26.751  15.262 -0.0743  0.2779  0.0646
77728W        W78592  26.175  26.823  16.558 -0.0744  0.0567 -0.1117
77729W        W78593  26.425  25.859  15.570 -0.3119  0.0376  0.1773
77730W        W78594  23.564  25.564  16.524 -0.0866 -0.2231  0.3645
77731W        W78595  24.397  29.077  17.404 -0.3704 -0.2489 -0.2180
77732W        W78596  20.988  27.286  16.246  0.0753  0.1221  0.1978
77733W        W78597  25.071  26.482  16.655  0.0054 -0.3377 -0.0023
77734W        W78598  25.585   0.513  13.654 -0.2812 -0.2726 -0.0925
77735W        W78599  20.204   0.436  16.749 -0.2919 -0.0545  0.0848
77736W        W78600  24.141  26.582  16.813 -0.1520 -0.1249  0.2715
77737W        W78601  24.540   0.023  15.082  0.0802 -0.0484 -0.0084
77738W        W78602  26.202  25.366  17.512  0.1844  0.0081 -0.1163
77739W        W78603  23.964  26.803  20.380 -0.2066 -0.1421  0.3142
77740W        W78604  24.078  28.206  20.503  0.1402 -0.0719  0.1892
77741W        W78605  24.579  24.823  16.760 -0.0603 -0.2225 -0.3670
77742W        W78606  22.041  28.613  17.279  0.3093  0.1466  0.0832
77743W        W78607  19.611  27.417  18.122 -0.2271 -0.1272 -0.1861
77744W        W78608  24.260   0.581  18.196 -0.2876  0.1565 -0.3296
77745W        W78609  27.859  26.249  15.298  0.3478  0.0488 -0.2261
77746W        W78610  22.807  28.588  16.798 -0.1398 -0.4174  0.0169
77747W        W78611  25.528  27.856  15.599  0.1792  0.1502  0.1893
77748W        W78612  23.072  28.986  15.903  0.0631  0.1843 -0.0068
77749W        W78613  25.458  23.786  19.265  0.0843 -0.2552  0.2142
77750W        W78614  20.987   1.267  15.769 -0.2969 -0.4388 -0.0192
77751W        W78615  26.476   0.114  17.125 -0.0104  0.0834 -0.3530
77752W        W78616  22.625  26.666  16.185 -0.0262 -0.2368  0.0861
77753W        W78617  27.987  25.809  14.360 -0.0261  0.0193  0.0255
77754W        W78618  24.235  25.510  15.065  0.2636  0.1042 -0.0418
77755W        W78619  25.263  27.396  16.324  0.0504  0.0948 -0.2259
77756W        W78620  26.347  26.375  16.375 -0.4352  0.2887  0.5569
77757W        W78621  22.854  27.124  15.067  0.4731 -0.2129  0.3832
77758W        W78622  24.591  28.865  17.911  0.1760  0.2721 -0.0444
77759W        W78623  21.972  25.870  16.100  0.0618  0.1649 -0.1853
77760W        W78624  22.763  26.388  17.875 -0.1177  0.0537  0.0723
77761W        W78625  22.703   0.367  16.488  0.1428  0.1898  0.0861
77762W        W78626  20.776  26.738  14.421 -0.1167  0.2608 -0.1943
77763W        W78627  23.516  26.877  18.140  0.1481 -0.0697 -0.0767
77764W        W78628  26.255  28.218  17.693  0.1364  0.0302  0.4531
77765W        W78629  23.054   1.409  18.022 -0.0971  0.0292  0.1271
77766W        W78630  22.998  24.926  17.976 -0.2394  0.0609  0.2357
77767W        W78631  24.283  26.130  18.127 -0.0209  0.0329 -0.2747
77768W        W78632  20.946  26.557  16.208  0.0432 -0.3452  0.1308
77769W        W78633  23.904  28.384  13.423  0.0299 -0.3512  0.1867
77770W        W78634  25.873  27.077  15.782  0.1891 -0.0342 -0.2251
77771W        W78635  23.441  28.154  13.501  0.3200  0.1257  0.1505
77772W        W78636  24.206  27.378  18.432 -0.1069 -0.2643 -0.2834
77773W        W78637  20.119  27.123  17.179 -0.2947  0.0953  0.0825
77774W        W78638  23.546  27.315  17.663  0.0004  0.0094 -0.2037
77775W        W78639  24.985   1.880  13.046  0.0235  0.3066 -0.1480
77776W        W78640  22.020  25.734  14.464  0.1483  0.1158  0.0232
77777W        W78641  23.630  25.979  18.929 -0.2194 -0.1978  0.1205
77778W        W78642  24.968  26.475  15.985  0.0906 -0.1976  0.0375
77779W        W78643  25.561  26.264  16.731  0.3952 -0.2652  0.2493
77780W        W78644  23.209   1.090  15.480  0.1529  0.4140 -0.1923
77781W        W78645  21.154  28.515  15.396 -0.1753  0.0248 -0.1495
77782W        W78646  22.373  26.774  17.682 -0.2681 -0.2000 -0.0356
77783W        W78647  25.122  28.755  17.318  0.0385 -0.0183 -0.0639
77784W        W78648  22.405  26.190  15.212 -0.0448 -0.0181  0.1880
77785W        W78649  24.455  28.382  18.339 -0.2896 -0.0362  0.0631
77786W        W78650  20.107  26.081  13.937  0.1811  0.0399 -0.0460
77787W        W78651  22.065  27.237  15.400  0.0401  0.2169 -0.1668
77788W        W78652  22.352  25.208  19.271  0.2982 -0.0751 -0.0711
77789W        W78653  20.013   0.464  14.376 -0.1710  0.1706  0.0047
77790W        W78654  26.150  26.814  18.349  0.0455  0.1707 -0.1513
77791W        W78655  21.690   0.484  15.015  0.2033  0.1844  0.0905
77792W        W78656  21.701  25.965  19.316  0.2333 -0.1242 -0.1533
77793W        W78657  24.549  25.091  16.364 -0.0648  0.0697 -0.1691
77794W        W78658  23.399  28.075  18.127 -0.2691 -0.1798 -0.1908
77795W        W78659  26.689  28.607  18.899  0.1489  0.2604  0.2355
77796W        W78660  23.276  25.074  20.519 -0.0641 -0.2378  0.1405
77797W        W78661  23.531  25.516  19.909 -0.1901 -0.1637  0.2399
77798W        W78662  20.452  26.354  14.732  0.3441  0.3841 -0.1623
77799W        W78663  21.866  26.478  16.692 -0.1683 -0.2802  0.1935
77800W        W78664  20.135   2.374  14.140  0.0769 -0.0939 -0.0500
77801W        W78665  22.797  26.485  19.204 -0.1003  0.1391  0.2142
77802W        W78666  24.181   2.828  14.718 -0.0599 -0.0623  0.1915
77803W        W78667  25.773  27.140  16.336  0.1168  0.2238  0.1482
77804W        W78668  24.706  28.122  16.827 -0.1998  0.2438 -0.0395
77805W        W78669  23.290  25.032  18.895 -0.1796 -0.4224  0.2894
77806W        W78670  24.327  28.255  16.532  0.1831  0.0046 -0.0488
77807W        W78671  23.581  26.464  16.389 -0.3750 -0.1173 -0.1343
77808W        W78672  26.374  27.397  15.571  0.4565  0.0204 -0.4405
77809W        W78673  17.497  28.411  19.388  0.4769 -0.1408 -0.0878
77810W        W78674  21.363  28.827  16.312 -0.1815 -0.0239 -0.2267
77811W        W78675  22.754  28.603  13.016 -0.0320 -0.1778  0.1169
77812W        W78676  25.791  27.419  14.894 -0.2346  0.0236 -0.0399
77813W        W78677  24.637  28.039  15.607 -0.3265 -0.1817  0.1706
77814W        W78678  25.837  25.970  14.136 -0.0277 -0.0207  0.0340
77815W        W78679  24.727  25.372  16.836  0.2330 -0.2661  0.0468
77816W        W78680  20.963  27.995  14.691  0.2795  0.1511  0.2073
77817W        W78681  21.798  27.989  17.006  0.4361 -0.0274 -0.2891
77818W        W78682  23.196   1.542  19.258  0.2039 -0.0326  0.1214
77819W        W78683  24.453  26.265  15.080  0.0222  0.0573 -0.0020
77820W        W78684  20.377  26.767  18.374  0.0644 -0.2198  0.0638
77821W        W78685  25.055  28.370  18.916 -0.1304  0.1198 -0.2613
77822W        W78686  20.982   1.088  14.861  0.1768  0.1353  0.1700
77823W        W78687  21.782  28.406  15.561  0.1753  0.0841  0.0775
77824W        W78688  23.860   0.173  14.336  0.1252  0.3141 -0.0064
77825W        W78689  23.579  25.593  17.390  0.1378  0.2042  0.1671
77826W        W78690  21.918  24.105  19.207  0.0504  0.2076 -0.3754
77827W        W78691  24.599  28.826  19.142  0.2660 -0.1414  0.0560
77828W        W78692  23.038  28.040  16.187  0.0843 -0.0551 -0.3023
77829W        W78693  23.510  25.603  15.985  0.1121 -0.0442 -0.0943
77830W        W78694  22.629  24.737  19.467 -0.2450  0.2011  0.2600
77831W        W78695  21.126  25.370  15.655  0.1610  0.0204  0.2489
77832W        W78696  25.056  24.116  19.326  0.0727  0.3469 -0.0933
77833W        W78697  21.352  24.340  12.844  0.0974 -0.1535  0.0373
77834W        W78698  25.033  26.130  17.548  0.2132  0.1593 -0.0910
77835W        W78699  27.560  25.884  12.439 -0.2360  0.0086 -0.0449
77836W        W78700  22.875  27.083  16.361 -0.0012  0.3270  0.1491
77837W        W78701  24.984  26.767  18.805 -0.3134  0.0422  0.0669
77838W        W78702  21.326  27.614  15.538 -0.1537 -0.1034 -0.0260
77839W        W78703  20.257  27.497  18.801  0.1552 -0.0623  0.4063
77840W        W78704  25.957  28.175  16.437  0.0823 -0.1348  0.2643
77841W        W78705  24.601  28.466  13.935  0.2536 -0.0613 -0.0836
77842W        W78706  19.683  28.194  12.424 -0.0147 -0.4301  0.1609
77843W        W78707  20.851   0.372  19.190 -0.1908  0.3070 -0.0951
77844W        W78708  19.007  27.842  17.192  0.1675  0.0657 -0.0212
77845W        W78709  23.616   2.864  18.102  0.2905  0.3196 -0.0836
77846W        W78710  24.366  25.060  19.901 -0.0491 -0.4857  0.0091
77847W        W78711  24.215  27.901  15.771  0.4762  0.1531  0.2347
77848W        W78712  24.934   1.138  17.383 -0.1818 -0.2793  0.1658
77849W        W78713  24.813  26.969  13.843  0.0122 -0.3278 -0.0645
77850W        W78714  24.131  26.848  12.979 -0.0177  0.2048  0.2543
77851W        W78715  25.121  25.873  18.768 -0.0189 -0.3091 -0.2096
77852W        W78716  23.547   0.066  18.674 -0.2756  0.3169 -0.2920
77853W        W78717  24.652  26.235  19.365  0.1056 -0.1526  0.0313
77854W        W78718  25.303  27.346  15.464  0.0447  0.2722 -0.0216
77855W        W78719  24.432  28.944  19.617 -0.0382  0.0739  0.2558
77856W        W78720  23.204  25.885  16.426  0.1174  0.0956  0.3916
77857W        W78721  26.088   0.282  13.407  0.4816 -0.1311  0.0066
77858W        W78722  24.043  25.747  17.382 -0.1928  0.0265  0.0571
77859W        W78723  23.181  25.861  19.962  0.3366  0.1779  0.3356
77860W        W78724  26.498  26.621  16.900 -0.1395 -0.1067 -0.1794
77861W        W78725  23.547   0.082  16.613 -0.1906 -0.1115 -0.0954
77862W        W78726  25.425  27.974  16.268  0.0077 -0.0383 -0.1196
77863W        W78727  24.835  27.518  16.736  0.2280 -0.1751 -0.1214
77864W        W78728  21.542  27.064  20.660 -0.1337  0.0021  0.1388
77865W        W78729  22.184  25.220  14.448 -0.0871  0.0501  0.2231
77866W        W78730  25.083  28.231  15.558 -0.3742  0.0791 -0.0473
77867W        W78731  22.547  24.598  17.027 -0.3438  0.3514 -0.1768
77868W        W78732  23.893  27.945  14.792 -0.2418  0.0989 -0.0378
77869W        W78733  26.803  26.589  17.421 -0.0883 -0.2109  0.0952
77870W        W78734  23.635  24.686  19.684  0.0904  0.0556 -0.0795
77871W        W78735  24.561  26.675  16.495  0.3712  0.0148  0.2358
77872W        W78736  25.655   0.689  14.661 -0.0749 -0.1582 -0.3449
77873W        W78737  22.726  27.687  14.047  0.0658 -0.1362 -0.0457
77874W        W78738  23.394   0.995  18.440  0.0293  0.1852  0.1226
77875W        W78739  21.493  25.853  15.519 -0.0784 -0.1369 -0.0155
77876W        W78740  23.206  26.647  17.752 -0.1846  0.2482 -0.3132
77877W        W78741  24.054  26.213  17.659  0.1985  0.0469  0.2069
77878W        W78742  21.209   0.730  15.179 -0.6087 -0.1628 -0.1372
77879W        W78743  25.107  26.703  15.415 -0.1335 -0.1692 -0.2224
77880W        W78744  21.737   2.500  17.815  0.3925  0.0915 -0.1078
77881W        W78745  24.271  29.047  13.083  0.1367  0.1333  0.1097
77882W        W78746  23.413  28.743  16.700 -0.0653  0.0318 -0.1853
77883W        W78747  21.058  28.076  17.237 -0.0198  0.0719  0.0608
77884W        W78748  22.008  28.875  15.052  0.2185  0.0802 -0.3116
77885W        W78749  20.877   0.300  15.565  0.2146  0.1441  0.0042
77886W        W78750  25.362  25.256  18.328 -0.2122 -0.2424 -0.1762
77887W        W78751  22.621  25.188  14.226  0.1059  0.0122  0.2086
77888W        W78752  25.563   2.730  15.414  0.1510  0.2621  0.1374
77889W        W78753  24.698  26.017  15.723  0.5333 -0.0979 -0.1544
77890W        W78754  20.025  27.901  15.391 -0.0595 -0.1416  0.0712
77891W        W78755  24.441   1.093  17.839  0.3214  0.4145  0.1898
77892W        W78756  23.904  27.449  16.569 -0.0554  0.1513  0.1379
77893W        W78757  23.538  27.047  17.097  0.3402  0.1025 -0.1538
77894W        W78758  21.117  28.566  16.773  0.1422 -0.1236 -0.1524
77895W        W78759  24.642  27.243  17.082  0.0409  0.0533  0.1343
77896W        W78760  22.586  27.422  16.905  0.0615 -0.0104  0.3481
77897W        W78761  24.413  27.702  15.282  0.1555  0.3746 -0.5033
77898W        W78762  23.539  28.386  19.214 -0.1104 -0.0865 -0.1221
77899W        W78763  22.269  28.304  13.188 -0.1621  0.1866 -0.5275
77900W        W78764  25.407  26.792  14.948  0.0066 -0.0771  0.1572
77901W        W78765  22.613  29.118  16.843 -0.1226  0.1261 -0.1209
77902W        W78766  25.091  27.359  13.515 -0.1034 -0.1273  0.1448
77903W        W78767  22.989  28.138  14.341 -0.1853  0.1962 -0.3042
77904W        W78768  24.174  27.354  17.538  0.0598  0.0428  0.2804
77905W        W78769  21.864  26.523  18.351  0.0119 -0.1356  0.2849
77906W        W78770  22.060  28.835  18.170  0.2244 -0.0033 -0.0405
77907W        W78771  24.202  28.779  13.782 -0.2155 -0.0495 -0.1272
77908W        W78772  24.564  26.958  17.603 -0.3905  0.0456  0.0037
77909W        W78773  20.498  24.404  16.448  0.1327 -0.0555  0.0810
77910W        W78774  22.531  28.987  15.309  0.1092  0.0464 -0.1414
77911W        W78775  22.420  27.919  13.673 -0.0962 -0.0938 -0.1350
77912W        W78776  22.443   1.766  17.358  0.0522  0.0330  0.2063
77913W        W78777  21.309   0.100  15.979  0.1762  0.2664  0.2467
77914W        W78778  19.397  26.919  15.310  0.0757 -0.0720  0.3661
77915W        W78779  20.745  27.904  17.596 -0.3132 -0.1229  0.0718
77916W        W78780  22.529   1.283  17.420  0.1503  0.0904 -0.4457
77917W        W78781  27.431  27.452  13.666  0.5229  0.1232 -0.0859
77918W        W78782  23.849  27.628  19.908 -0.0791 -0.1474 -0.2526
77919W        W78783  24.056  27.760  14.366  0.0979 -0.2544 -0.2695
77920W        W78784  21.173   0.220  18.807  0.0272  0.1777 -0.0526
77921W        W78785  25.530  24.715  15.815 -0.0182  0.0892 -0.0269
77922W        W78786  24.883   0.275  12.779 -0.5117  0.0088  0.0797
77923W        W78787  25.788  27.472  15.360  0.1120 -0.0579 -0.5606
77924W        W78788  24.565  25.614  16.436 -0.1706  0.2563  0.0795
77925W        W78789  23.700  26.252  14.790  0.1339 -0.0896 -0.0145
77926W        W78790  20.933  26.865  15.638 -0.1230  0.0886  0.1429
77927W        W78791  24.563   0.558  14.589 -0.0525 -0.3365 -0.1264
77928W        W78792  24.215  27.390  16.082 -0.0348 -0.3263  0.5151
77929W        W78793  23.859  28.436  15.032  0.1288 -0.0808 -0.1150
77930W        W78794  26.508  27.093  17.695  0.0824  0.2028  0.1478
77931W        W78795  24.156  24.672  19.636  0.2422 -0.2184  0.0255
77932W        W78796  19.872   1.200  13.771 -0.1965 -0.0242  0.1068
77933W        W78797  22.900  27.447  15.542 -0.0288  0.3146 -0.1252
77934W        W78798  22.775  25.283  20.531 -0.0655 -0.0568  0.2587
77935W        W78799  24.635  28.186  17.311 -0.0097  0.0298  0.2917
77936W        W78800  24.666  26.755  16.992 -0.2153  0.0283 -0.1170
77937W        W78801  22.302  28.338  15.811 -0.0740  0.2190  0.3719
77938W        W78802  26.136   0.414  16.251  0.2930  0.1078 -0.4199
77939W        W78803  24.414  27.632  19.818 -0.2406 -0.1375 -0.2773
77940W        W78804  25.754  25.805  16.719 -0.0275 -0.2082 -0.0134
77941W        W78805  25.060  26.120  15.359 -0.1813 -0.2137 -0.2451
77942W        W78806  19.562  25.946  13.873 -0.1954 -0.0683  0.3018
77943W        W78807  20.794  28.149  16.671 -0.2872  0.2027 -0.1693
77944W        W78808  21.248   0.676  18.001 -0.1443  0.0642 -0.2223
77945W        W78809  26.336  28.254  18.567 -0.1619 -0.1005 -0.2346
77946W        W78810  23.304  28.014  17.337  0.1301  0.2095 -0.2019
77947W        W78811  21.637  27.651  16.700  0.2330 -0.0753  0.3011
77948W        W78812  23.608   1.980  18.281 -0.0195  0.0218  0.1147
77949W        W78813  25.126  27.701  15.947  0.3095  0.0204  0.0605
77950W        W78814  21.771  24.946  14.069 -0.0268  0.0395  0.1451
77951W        W78815  21.542  28.464  17.024  0.2297  0.0198  0.0592
77952W        W78816  24.311   0.694  15.481 -0.2211 -0.0012  0.2926
77953W        W78817  22.426   1.554  15.231  0.1051  0.0610  0.1311
77954W        W78818  25.733  27.900  15.111  0.4060  0.0948  0.2421
77955W        W78819  22.342  27.530  17.433 -0.1080 -0.0842  0.1161
77956W        W78820  22.455  26.899  16.637  0.0560 -0.1300 -0.1067
77957W        W78821  23.261  28.162  16.841  0.0735 -0.0574  0.2719
77958W        W78822  24.013   1.367  17.804  0.0503  0.0486 -0.1330
77959W        W78823  22.604  23.358  17.722 -0.0130  0.0586 -0.3272
77960W        W78824  20.846  28.879  14.192 -0.0863  0.0682 -0.2390
77961W        W78825  25.947  23.952  16.105  0.0876 -0.2949  0.0963
77962W        W78826  22.021  25.464  16.953 -0.1440 -0.1745  0.1036
77963W        W78827  23.103  27.529  16.286  0.1182 -0.2995 -0.2258
77964W        W78828  24.268  25.699  18.430 -0.1718 -0.2426  0.0260
77965W        W78829  27.305  28.114  19.943  0.0057 -0.0483  0.6019
77966W        W78830  22.076  27.485  16.108  0.0690 -0.1709  0.1917
77967W        W78831  26.391  25.783  16.106  0.0258  0.1523  0.4293
77968W        W78832  26.064  25.759  18.515 -0.0908  0.0910  0.1377
77969W        W78833  21.355   1.021  16.135 -0.3948  0.0603 -0.2130
77970W        W78834  25.588  27.713  18.152 -0.3224  0.0660  0.0934
77971W        W78835  24.460  25.379  18.088 -0.2565 -0.2632  0.1162
77972W        W78836  25.191  24.667  13.209 -0.0868  0.1988  0.1565
77973W        W78837  20.738  26.948  16.526 -0.1403  0.2584 -0.4371
77974W        W78838  21.994  27.181  16.656  0.2877 -0.2510 -0.1523
77975W        W78839  22.604  27.546  16.419 -0.1301 -0.0639  0.1390
77976W        W78840  21.843  27.734  15.335 -0.0389  0.0405  0.4156
77977W        W78841  23.604  27.739  16.955  0.0732 -0.2422  0.1274
77978W        W78842  23.384   0.520  18.787  0.1105  0.1554 -0.0325
77979W        W78843  20.007  28.061  14.948  0.0705 -0.1918 -0.0230
77980W        W78844  19.601  28.139  15.270 -0.2473  0.3064 -0.0004
77981W        W78845  22.791  26.566  16.929 -0.0691  0.1780  0.0410
77982W        W78846  20.585  27.149  17.476  0.3303  0.2360  0.3794
77983W        W78847  25.029  25.835  16.744  0.0821 -0.1893 -0.0883
77984W        W78848  21.590  25.522  15.203  0.0481  0.2079  0.0220
77985W        W78849  26.933  27.800  20.011  0.1795  0.1203 -0.3517
77986W        W78850  22.631  28.820  15.757 -0.2727 -0.0206 -0.1439
77987W        W78851  22.378  27.523  15.630  0.0212 -0.0316  0.0261
77988W        W78852  25.451  25.807  17.137 -0.2887  0.4227  0.0193
77989W        W78853  20.224   1.125  16.460  0.0473  0.2345 -0.0799
77990W        W78854  24.732  26.290  17.920  0.2828 -0.3208 -0.1455
77991W        W78855  22.523  26.525  15.604  0.1872  0.1116  0.1527
77992W        W78856  21.191   0.129  14.589 -0.0689 -0.1607  0.0696
77993W        W78857  21.707  26.849  15.577 -0.2212 -0.3219 -0.1142
77994W        W78858  24.079  23.873  18.985  0.0814 -0.2489  0.3431
77995W        W78859  21.589  27.887  15.883  0.2578  0.4171 -0.0056
77996W        W78860  27.294  25.577  15.376  0.1018 -0.1009  0.0371
77997W        W78861  23.091  28.135  13.132 -0.2538  0.0165  0.1383
77998W        W78862  25.871  29.110  16.173  0.0311 -0.1153  0.3403
77999W        W78863  25.624  26.979  15.345  0.0092 -0.0629 -0.4260
78000W        W78864  25.906  25.556  16.268  0.0611  0.2599 -0.0555
78001W        W78865  25.892  26.640  16.156 -0.0673  0.1007  0.0701
78002W        W78866  25.405  21.374  19.369  0.3136  0.1700 -0.4589
78003W        W78867  23.414  26.139  16.046  0.0954  0.0571  0.1146
78004W        W78868  24.876  24.206  15.306 -0.0560 -0.1291 -0.1420
78005W        W78869  21.098  26.423  17.208  0.0990  0.0960 -0.1390
78006W        W78870  23.998  26.471  18.491  0.0342  0.1811 -0.1408
78007W        W78871  23.413   0.592  15.865 -0.0400 -0.1904 -0.3989
78008W        W78872  23.819   0.827  18.824 -0.1098  0.0965 -0.0026
78009W        W78873  24.158  26.739  19.292  0.2065 -0.0646 -0.2974
78010W        W78874  24.737  29.082  16.600 -0.3198  0.1665 -0.3982
78011W        W78875  23.292  26.810  16.613  0.1576  0.0187  0.1905
78012W        W78876  21.235  25.312  19.923 -0.0834  0.0815 -0.1505
78013W        W78877  27.018   1.462  17.089  0.0554 -0.0676 -0.0017
78014W        W78878  21.903  26.944  15.039  0.0630 -0.1758  0.3631
78015W        W78879  23.186  27.738  15.815 -0.1754  0.1132  0.1018
78016W        W78880  25.718  27.636  16.477  0.1620 -0.0896 -0.0484
78017W        W78881  25.606  28.002  19.011  0.3175  0.0552 -0.0442
78018W        W78882  25.926  24.028  17.815 -0.1197  0.0951 -0.0327
78019W        W78883  25.345  29.109  12.881 -0.0573  0.2579  0.0541
78020W        W78884  23.910  27.591  18.836 -0.1723 -0.1764  0.1629
78021W        W78885  22.925  28.320  17.201 -0.1181  0.4282  0.1528
78022W        W78886  25.267  28.123  18.055 -0.1719  0.3187 -0.3542
78023W        W78887  20.499  28.206  14.705  0.1675 -0.0813  0.1707
78024W        W78888  24.839  28.042  13.940 -0.0367 -0.2781 -0.0809
78025W        W78889  25.165  28.698  15.682  0.1247 -0.2619 -0.0405
78026W        W78890  23.945   0.152  18.268  0.0487  0.1557 -0.0596
78027W        W78891  23.083  27.608  16.829  0.1778 -0.1043 -0.1100
78028W        W78892  24.880  26.578  17.471  0.0480 -0.0330 -0.0472
78029W        W78893  22.076  25.324  16.105  0.0958  0.0928 -0.0741
78030W        W78894  23.231  26.282  18.959 -0.1279 -0.2120 -0.1252
78031W        W78895  21.713  27.396  15.735 -0.2252  0.0957  0.0618
78032W        W78896  22.243  27.111  17.066  0.0280 -0.0480 -0.0648
78033W        W78897  23.401   3.781  21.779 -0.0136 -0.2453  0.2288
78034W        W78898  22.883  28.684  20.802 -0.2004 -0.0668 -0.1832
78035W        W78899  22.695  27.200  20.492  0.4427  0.4365 -0.0007
78036W        W78900  27.202  29.069  22.568  0.0363 -0.3313 -0.1485
78037W        W78901  23.540  28.953  16.208  0.0831  0.5273  0.1281
78038W        W78902  24.554  24.574  19.958  0.0507  0.5039 -0.1046
78039W        W78903  21.425  28.485  19.237 -0.0065 -0.0918 -0.1324
78040W        W78904  23.554  27.968  18.953  0.0700 -0.5683  0.0495
78041W        W78905  23.636  26.239  19.347  0.4431  0.0730 -0.2002
78042W        W78906  20.585  27.647  20.566  0.4781 -0.1908 -0.2001
78043W        W78907  23.442  27.486  23.344 -0.3693  0.0164  0.0234
78044W        W78908  23.423  23.979  18.196 -0.0757 -0.0887  0.1159
78045W        W78909  22.788  26.564  19.714  0.2183  0.0801 -0.1024
78046W        W78910  22.755  25.804  20.405 -0.0858 -0.3252 -0.1960
78047W        W78911  20.689  26.568  21.306 -0.1424 -0.1610 -0.6133
78048W        W78912  21.012   0.629  22.830 -0.1400 -0.4137  0.2499
78049W        W78913  20.932  27.625  16.686  0.0506 -0.1960 -0.0943
78050W        W78914  15.933  27.071  20.146 -0.4055  0.1717 -0.0637
78051W        W78915  20.846  28.585  20.789  0.2237 -0.0447  0.0063
78052W        W78916  23.482  24.910  17.972  0.2453 -0.1743 -0.0002
78053W        W78917  24.062  26.748  21.074 -0.1345  0.0676 -0.0620
78054W        W78918  24.749  24.270  20.750  0.1788  0.2851 -0.2497
78055W        W78919  25.966  28.182  20.171 -0.1171 -0.0908 -0.3684
78056W        W78920  23.367  25.778  23.007 -0.1343 -0.1587  0.2507
78057W        W78921  18.651  27.954  22.634  0.0996  0.1194 -0.0029
78058W        W78922  23.801  27.099  18.672  0.0409 -0.1459  0.0297
78059W        W78923  23.468  28.881  25.477  0.0911  0.4284  0.0539
78060W        W78924  22.196   0.175  16.457 -0.0187  0.3286 -0.1000
78061W        W78925  21.200  27.401  19.336 -0.0817  0.0169 -0.1569
78062W        W78926  22.896  25.424  22.396  0.4051  0.1318  0.2244
78063W        W78927  22.400   0.831  19.201 -0.3019  0.0385 -0.2295
78064W        W78928  24.855  28.415  21.844  0.2106 -0.1082 -0.2279
78065W        W78929  22.746  26.978  21.399  0.0409  0.1263 -0.3307
78066W        W78930  24.249  28.899  21.863  0.1029 -0.2926  0.3591
78067W        W78931  24.467  27.829  23.874  0.2205  0.5942 -0.0575
78068W        W78932  24.139  27.007  21.480 -0.1216  0.0564  0.5097
78069W        W78933  22.511  22.913  21.789 -0.1418  0.0644  0.2188
78070W        W78934  21.752  25.816  18.878 -0.2163  0.0392  0.2425
78071W        W78935  26.223  26.926  19.363  0.0297 -0.1174  0.1651
78072W        W78936  25.169  25.092  20.212  0.0217 -0.1055  0.5593
78073W        W78937  25.002  24.830  20.679 -0.0883  0.5126 -0.1286
78074W        W78938  24.784   0.149  19.353  0.2587  0.0252  0.0318
78075W        W78939  20.981   1.335  19.463  0.0171  0.3643  0.1609
78076W        W78940  23.243  25.513  18.690 -0.0896  0.2491  0.2625
78077W        W78941  24.809  26.676  19.232 -0.1774  0.1129  0.0582
78078W        W78942  21.383   0.263  19.760 -0.1175  0.1225 -0.1206
78079W        W78943  21.054  26.023  23.449 -0.0121 -0.0971  0.2883
78080W        W78944  25.803  28.271  21.623  0.0019  0.2681 -0.0477
78081W        W78945  23.806  28.108  20.047  0.3092 -0.3961 -0.0330
78082W        W78946  25.215  24.651  18.248 -0.2200 -0.1907  0.1012
78083W        W78947  23.652  26.088  19.837 -0.1818 -0.2095  0.1588
78084W        W78948  23.560  27.101  19.604 -0.0812 -0.2431  0.0867
78085W        W78949  22.193   0.366  20.889 -0.0216  0.0635 -0.0655
78086W        W78950  24.018  28.026  19.108 -0.0634  0.2510  0.0267
78087W        W78951  23.034  26.759  18.817  0.2612  0.1132 -0.2015
78088W        W78952  21.566  26.568  17.530  0.5072 -0.2050 -0.1751
78089W        W78953  23.331  25.491  21.415  0.0638  0.0357 -0.0645
78090W        W78954  23.181  26.741  22.175  0.0207  0.4808 -0.2992
78091W        W78955  22.541  27.576  18.264  0.0022 -0.1167 -0.1651
78092W        W78956  24.012  26.407  20.697  0.3031  0.0550  0.3390
78093W        W78957  24.037  26.877  17.695  0.0223  0.1685  0.0140
78094W        W78958  22.104  28.519  21.029  0.0587  0.1364  0.0758
78095W        W78959  21.699   0.299  21.044 -0.0108  0.1891 -0.0295
78096W        W78960  22.538   1.067  21.551 -0.4079  0.6575  0.0620
78097W        W78961  22.612  25.675  19.931  0.1678  0.1333  0.1070
78098W        W78962  24.900  24.175  19.786 -0.3882  0.0703 -0.2142
78099W        W78963  22.227  27.438  19.624 -0.1340  0.0160 -0.1709
78100W        W78964  23.145  25.329  17.700 -0.1920 -0.2301  0.2706
78101W        W78965  22.479   1.251  22.970  0.3309  0.1964  0.1764
78102W        W78966  22.907  26.531  20.373  0.0054 -0.0643 -0.1092
78103W        W78967  26.959   1.867  21.694 -0.0189  0.0673 -0.3806
78104W        W78968  22.445  24.954  18.622  0.1134 -0.1803 -0.2532
78105W        W78969  26.740  28.288  19.877  0.2777 -0.1678  0.1366
78106W        W78970  24.471  26.762  20.759  0.0700  0.0400  0.0020
78107W        W78971  23.932  28.988  19.797  0.2985  0.2071 -0.0064
78108W        W78972  25.839  28.838  22.627  0.1085 -0.3679 -0.2587
78109W        W78973  21.400  25.906  19.694  0.1083  0.1854 -0.1485
78110W        W78974  20.429   0.215  20.707  0.3698  0.2305 -0.4543
78111W        W78975  21.556  26.837  21.315  0.1957 -0.0491  0.3586
78112W        W78976  23.355  28.656  20.830  0.0547  0.1408 -0.1424
78113W        W78977  21.740  27.425  19.377 -0.0034  0.0914  0.0503
78114W        W78978  21.984  26.674  20.838  0.0054 -0.0636 -0.1147
78115W        W78979  22.029  25.349  21.730  0.1359  0.0973 -0.0081
78116W        W78980  24.933  25.610  22.275  0.0073 -0.1338  0.1112
78117W        W78981  22.993  27.151  23.146  0.2223 -0.1625 -0.1036
78118W        W78982  27.200  26.112  22.345 -0.1718  0.0276  0.1415
78119W        W78983  25.432   0.328  22.299 -0.0105 -0.0017 -0.0386
78120W        W78984  24.122  27.571  21.569  0.1245  0.0411  0.2232
78121W        W78985  25.389  28.797  20.567  0.0037 -0.2142 -0.1188
78122W        W78986  24.685  24.921  20.265 -0.0448  0.2722  0.2051
78123W        W78987  27.004  26.512  22.574 -0.0967 -0.1208  0.0192
78124W        W78988  23.034  27.746  19.079  0.1681 -0.2339 -0.4102
78125W        W78989  23.369  27.510  18.783 -0.0439 -0.0874 -0.2394
78126W        W78990  22.602  24.566  20.609 -0.0266 -0.0256  0.3476
78127W        W78991  20.388  28.606  20.986  0.1225  0.1710 -0.1074
78128W        W78992  22.513  26.209  18.233 -0.1828 -0.0970 -0.1389
78129W        W78993  23.657  25.383  17.850  0.0010 -0.0282  0.0484
78130W        W78994  24.611  28.826  21.416 -0.1011 -0.1518 -0.1632
78131W        W78995  23.168  23.873  19.842  0.0270 -0.2612  0.1627
78132W        W78996  24.951  24.236  17.402  0.3261  0.0060 -0.1306
78133W        W78997  24.860  27.853  17.990 -0.1189  0.0988  0.1477
78134W        W78998  20.545  28.238  18.495 -0.1974 -0.0235 -0.0834
78135W        W78999  22.811  25.305  18.664 -0.0713  0.0220  0.3072
78136W        W79000  22.731  26.767  20.750 -0.1269  0.1552  0.0891
78137W        W79001  24.111  25.800  18.892 -0.0508 -0.0701 -0.1567
78138W        W79002  24.100  27.101  20.739  0.1992  0.0815 -0.1097
78139W        W79003  25.420  25.767  19.242 -0.2311 -0.1342 -0.0999
78140W        W79004  21.404  28.070  19.975 -0.1893  0.0458  0.1626
78141W        W79005  24.873  24.439  20.305 -0.0216  0.1591  0.2485
78142W        W79006  20.837  28.561  20.188  0.0518  0.1015 -0.0165
78143W        W79007  21.867  29.103  22.210  0.0264  0.0695 -0.2286
78144W        W79008  24.135   0.658  20.594  0.4134  0.0868  0.1525
78145W        W79009  22.798  26.215  20.769 -0.1281  0.0086  0.0638
78146W        W79010  27.317   2.175  20.639  0.0960  0.0439  0.0553
78147W        W79011  26.714  27.157  18.645 -0.1536 -0.1632 -0.1048
78148W        W79012  20.920  27.528  17.323  0.1071 -0.0615  0.3207
78149W        W79013  28.019  25.405  21.585  0.0795  0.0443 -0.0469
78150W        W79014  25.304   0.550  20.453 -0.2018 -0.0599 -0.0531
78151W        W79015  21.223  26.091  19.244  0.1641 -0.0847  0.0201
78152W        W79016  21.288  28.061  16.796  0.1375 -0.0895  0.1758
78153W        W79017  26.916  24.483  19.236 -0.3743 -0.3704 -0.2114
78154W        W79018  28.598  28.977  17.826 -0.0942 -0.0764 -0.0926
78155W        W79019  24.098   1.590  19.359  0.0495  0.1296  0.0261
78156W        W79020  22.144  28.066  17.342 -0.2362 -0.1140  0.2476
78157W        W79021  22.591  27.548  18.768  0.1530  0.3515 -0.0593
78158W        W79022  24.742  28.027  19.741 -0.1999  0.2537 -0.0891
78159W        W79023  21.579  26.643  20.074 -0.2337  0.0279  0.0109
78160W        W79024  25.465   0.107  21.372  0.0204  0.2186 -0.4131
78161W        W79025  24.615   1.108  21.445  0.2487  0.0814  0.1052
78162W        W79026  23.623  26.143  20.798 -0.0159  0.5155  0.1074
78163W        W79027  25.718   1.018  21.652  0.2533  0.1044  0.1770
78164W        W79028  23.857  23.503  20.115  0.0029  0.1014 -0.2691
78165W        W79029  23.140  28.679  20.341  0.0391  0.4649 -0.0747
78166W        W79030  25.702  28.557  19.938 -0.0356 -0.3800  0.1204
78167W        W79031  24.409   0.956  20.944 -0.1324 -0.0115 -0.0062
78168W        W79032  20.433  28.568  23.318 -0.0654  0.0868  0.2275
78169W        W79033  22.422  26.447  20.320  0.0454 -0.1699 -0.0919
78170W        W79034  25.757  24.207  23.071 -0.0119 -0.0778 -0.2932
78171W        W79035  20.431  26.038  21.292  0.0397  0.0408 -0.1683
78172W        W79036  20.187  25.225  19.625 -0.1615  0.2558  0.0214
78173W        W79037  23.793  25.436  22.753 -0.1562  0.0070 -0.0245
78174W        W79038  22.383   0.738  17.593 -0.0130  0.1725  0.0121
78175W        W79039  23.957  25.367  16.272  0.0571  0.1850 -0.0376
78176W        W79040  21.207  27.717  22.534 -0.1295  0.1234  0.2199
78177W        W79041  22.277  25.419  18.526  0.1206 -0.0990 -0.0992
78178W        W79042  24.084  24.115  23.287  0.1139 -0.0820 -0.2058
78179W        W79043  24.380   1.870  17.755 -0.0066  0.1260 -0.0716
78180W        W79044  21.139  28.864  21.668 -0.0464  0.0719 -0.0294
78181W        W79045  24.132  25.947  21.573  0.0824 -0.0561 -0.1271
78182W        W79046  24.317  28.041  19.507  0.4190  0.0057  0.1946
78183W        W79047  22.031  25.880  19.712  0.1861  0.5172  0.2359
78184W        W79048  23.488  28.387  18.569 -0.0266  0.0257  0.1428
78185W        W79049  23.358  25.063  19.947  0.0498  0.1142 -0.1142
78186W        W79050  23.714  28.170  20.856  0.2595  0.0844  0.1357
78187W        W79051  21.814  27.782  21.830 -0.1806 -0.2352 -0.0983
78188W        W79052  22.161  25.395  19.708  0.0908  0.0069  0.2104
78189W        W79053  21.721  25.130  19.876 -0.1486 -0.1092 -0.0778
78190W        W79054  22.642  23.875  19.993 -0.0721 -0.3434  0.3539
78191W        W79055  22.745  25.180  19.657  0.2945  0.0765  0.2295
78192W        W79056  24.382  25.797  19.364 -0.2843 -0.1592 -0.1008
78193W        W79057  24.289  27.152  20.204 -0.0635 -0.2497  0.0584
78194W        W79058  24.128   0.547  23.434  0.1495  0.0090 -0.0670
78195W        W79059  25.548  27.637  19.659  0.3100 -0.0329 -0.1644
78196W        W79060  23.762  25.919  23.380  0.0049 -0.0240  0.0052
78197W        W79061  22.577  25.642  19.397  0.1720 -0.1329 -0.2343
78198W        W79062  21.346  23.180  20.565 -0.2921  0.2851  0.1720
78199W        W79063  21.540  29.006  20.130  0.3254 -0.1364 -0.0161
78200W        W79064  24.361   0.678  21.379  0.0115  0.0466  0.2684
78201W        W79065  22.849   1.236  20.032  0.0131  0.2583  0.2553
78202W        W79066  22.053  27.863  20.794 -0.0186  0.2095 -0.0318
78203W        W79067  22.832  26.721  21.897 -0.2699 -0.1343  0.4384
78204W        W79068  22.056   0.991  18.858  0.3438 -0.1010 -0.0160
78205W        W79069  24.653  28.647  16.883  0.3343 -0.2022  0.0119
78206W        W79070  20.438  24.349  20.030 -0.2385  0.2547 -0.0637
78207W        W79071  24.061  27.619  19.442  0.1550  0.1439  0.0660
78208W        W79072  20.959   0.609  20.105 -0.0260  0.3128  0.0207
78209W        W79073  22.576   2.130  23.169 -0.0032 -0.1089 -0.1067
78210W        W79074  21.902  28.384  18.342 -0.2376 -0.1733 -0.2452
78211W        W79075  21.919  26.393  20.388 -0.2207  0.1792 -0.0330
78212W        W79076  21.870  28.410  16.116 -0.0356  0.3620  0.5187
78213W        W79077  25.907  28.469  17.933  0.3095  0.2241 -0.1943
78214W        W79078  24.460   0.346  19.630 -0.0829  0.1753 -0.1096
78215W        W79079  24.454  25.865  20.216  0.0280  0.1504  0.0130
78216W        W79080  22.425  23.639  19.135 -0.3067  0.0668 -0.2834
78217W        W79081  27.730   0.054  22.869  0.2225  0.0509  0.2926
78218W        W79082  25.278  25.380  17.447  0.0314 -0.2135  0.0081
78219W        W79083  23.603  25.359  22.235 -0.0617  0.1531  0.2565
78220W        W79084  22.287  28.879  21.636 -0.2293  0.2523 -0.1037
78221W        W79085  23.950  29.043  20.324  0.2379  0.0720  0.1295
78222W        W79086  23.656   0.560  18.380 -0.0698  0.2204  0.0588
78223W        W79087  23.154  28.019  18.553 -0.0819 -0.0452  0.0589
78224W        W79088  21.915  26.562  21.797  0.1432 -0.2961  0.0083
78225W        W79089  22.003  25.115  20.325  0.1327 -0.1016 -0.2705
78226W        W79090  20.133  26.706  20.639 -0.1963 -0.2523  0.2793
78227W        W79091  22.080  25.662  19.234 -0.2107 -0.3486  0.1043
78228W        W79092  22.624  24.428  21.143 -0.2703 -0.3561  0.2013
78229W        W79093  19.076  26.960  19.831 -0.2036 -0.1155  0.0889
78230W        W79094  22.711  26.412  22.525 -0.1490 -0.3094  0.0598
78231W        W79095  24.137  25.344  19.502  0.1419 -0.0144 -0.3229
78232W        W79096  22.892  23.309  20.403  0.1619  0.4000  0.0192
78233W        W79097  25.162  26.134  22.514 -0.2008  0.3403  0.3049
78234W        W79098  23.327  29.140  17.657 -0.2126 -0.1735 -0.0843
78235W        W79099  22.068  25.257  21.157  0.0875  0.2013 -0.2226
78236W        W79100  21.481  27.508  22.167 -0.1710  0.2601 -0.0755
78237W        W79101  21.829  26.861  19.507 -0.1928 -0.2655  0.0415
78238W        W79102  22.743  28.139  21.272 -0.1758  0.2867 -0.0395
78239W        W79103  22.997  23.796  20.408 -0.2522 -0.2699  0.2442
78240W        W79104  24.165   0.385  18.685  0.1462  0.3310  0.0085
78241W        W79105  20.752   1.234  20.814 -0.1447 -0.3609 -0.0592
78242W        W79106  22.219  26.947  21.207 -0.0527 -0.3066  0.1571
78243W        W79107  22.871  29.142  22.296 -0.0597  0.1452 -0.2587
78244W        W79108  23.086  27.464  19.566  0.0985  0.2182  0.2987
78245W        W79109  23.446  24.504  19.125  0.2330  0.1449 -0.1773
78246W        W79110  26.355  26.282  24.257  0.1328  0.0441  0.2940
78247W        W79111  22.624  27.466  19.263 -0.1265  0.1716  0.3673
78248W        W79112  24.484  27.118  19.290 -0.1324  0.0245  0.1131
78249W        W79113  25.278  27.225  18.871  0.2677 -0.2012 -0.0300
78250W        W79114  22.399  28.388  18.460  0.0195 -0.1796  0.2170
78251W        W79115  22.630  28.776  22.111  0.0222  0.0753  0.0641
78252W        W79116  24.266  24.007  21.267 -0.1398  0.2680  0.0496
78253W        W79117  21.092  27.922  20.596 -0.1094  0.1714  0.0815
78254W        W79118  24.648   0.391  22.506 -0.1032  0.1626  0.0272
78255W        W79119  23.809  26.956  16.633  0.1548  0.0370 -0.1565
78256W        W79120  25.220   0.428  17.790 -0.2407 -0.3170 -0.3641
78257W        W79121  21.546  26.499  20.949  0.2663 -0.1342  0.0960
78258W        W79122  22.844  28.205  19.926  0.3298  0.2264 -0.2940
78259W        W79123  23.382  27.135  19.138  0.4591 -0.3607 -0.1879
78260W        W79124  22.911  28.836  16.415  0.1152 -0.1162 -0.1178
78261W        W79125  24.685   0.023  20.654 -0.0740 -0.1083 -0.2017
78262W        W79126  22.012   0.878  20.936 -0.0279 -0.1989 -0.0822
78263W        W79127  25.145   0.302  23.398  0.0824 -0.0682 -0.3156
78264W        W79128  21.802  28.482  20.036  0.0237 -0.0460 -0.0155
78265W        W79129  23.305  28.403  19.746 -0.1111 -0.3494  0.0462
78266W        W79130  21.430  26.055  20.591 -0.3734 -0.1978 -0.1557
78267W        W79131  25.077  28.158  17.592 -0.1464 -0.1804  0.0394
78268W        W79132  24.143  27.680  20.305 -0.2879 -0.0308 -0.1239
78269W        W79133  20.404  26.289  20.737  0.0005 -0.0127  0.3638
78270W        W79134  23.637   2.752  20.499 -0.2277  0.1767 -0.1249
78271W        W79135  25.697  28.998  20.258 -0.0653 -0.0482  0.3816
78272W        W79136  24.723  27.648  19.326  0.1562  0.1053 -0.2247
78273W        W79137  20.136  28.281  22.582 -0.1103  0.0564 -0.0289
78274W        W79138  22.496   0.794  21.044  0.0571 -0.2545 -0.0007
78275W        W79139  21.801  24.603  19.809  0.1620  0.0026  0.4063
78276W        W79140  21.914   0.020  21.435  0.1417 -0.0164 -0.0035
78277W        W79141  22.947  28.717  19.833 -0.0945  0.1191  0.0553
78278W        W79142  25.683   1.027  19.221  0.4543  0.4025  0.0684
78279W        W79143  24.044  28.487  21.973 -0.2558 -0.0237  0.2624
78280W        W79144  25.073   1.049  19.203  0.6232  0.1121  0.5658
78281W        W79145  22.203  24.243  21.366 -0.1275  0.0678 -0.2056
78282W        W79146  22.036  23.724  20.655 -0.0091 -0.2122  0.1548
78283W        W79147  22.775   0.686  20.324  0.0485 -0.1288  0.0329
78284W        W79148  28.517   0.773  21.704  0.1917  0.1779  0.1548
78285W        W79149  23.533   0.676  19.353 -0.1663 -0.0615  0.0753
78286W        W79150  22.174  27.947  18.430 -0.2111 -0.2301 -0.0498
78287W        W79151  24.303   2.429  18.431 -0.2492  0.0196 -0.1686
78288W        W79152  25.177  26.237  19.254 -0.4029  0.3618 -0.0377
78289W        W79153  20.603  25.855  20.896  0.1662  0.0061 -0.2203
78290W        W79154  21.843   0.578  20.143  0.1964 -0.1241  0.0567
78291W        W79155  21.512  28.119  17.398 -0.0093 -0.0838  0.3439
78292W        W79156  22.682  28.009  18.659  0.0046 -0.0755 -0.2423
78293W        W79157  25.677  27.794  21.711 -0.0068 -0.1396 -0.1458
78294W        W79158  26.155  28.968  22.263  0.0164  0.0789  0.2625
78295W        W79159  22.652  28.390  20.407  0.3437 -0.1670 -0.0845
78296W        W79160  24.143  28.800  22.954 -0.0027  0.0866 -0.0149
78297W        W79161  24.913  25.741  20.402 -0.3461 -0.0186  0.2575
78298W        W79162  25.185  26.381  18.479  0.2996 -0.4099 -0.5757
78299W        W79163  21.758  27.376  18.863 -0.1360  0.0697  0.1304
78300W        W79164  23.374  27.339  20.017 -0.1679 -0.0246  0.1475
78301W        W79165  22.175  28.864  16.896  0.1287 -0.1607  0.0329
78302W        W79166  24.911  27.325  21.159 -0.1167  0.1107  0.0806
78303W        W79167  22.129  27.711  18.933 -0.1128  0.1085  0.0552
78304W        W79168  20.161  28.875  19.245  0.0364  0.0467 -0.1357
78305W        W79169  21.705   1.254  21.195  0.2034  0.0938  0.0303
78306W        W79170  25.169  27.573  21.882  0.1096 -0.0145  0.1291
78307W        W79171  22.986  27.222  22.324 -0.0794  0.0368 -0.1534
78308W        W79172  20.664  28.155  20.535  0.0835 -0.0789  0.0479
78309W        W79173  21.770  28.386  19.571  0.0451  0.0248  0.3186
78310W        W79174  21.217  28.376  20.490 -0.1677 -0.5178  0.3438
78311W        W79175  23.195  25.625  20.437  0.1921 -0.0196  0.1358
78312W        W79176  24.086  27.963  16.863  0.0087  0.0141 -0.0854
78313W        W79177  18.967  28.674  20.038  0.4963  0.2414  0.1906
78314W        W79178  21.484  28.163  18.319 -0.0318  0.0853 -0.0201
78315W        W79179  25.365  25.968  19.718 -0.2819 -0.0461  0.2249
78316W        W79180  25.218  24.199  20.943  0.2670  0.2272 -0.1816
78317W        W79181  24.202   0.134  19.272  0.1963  0.0223 -0.0302
78318W        W79182  21.904  28.955  22.699  0.0210  0.2543  0.0114
78319W        W79183  24.129  26.501  21.595 -0.1700 -0.0474  0.0629
78320W        W79184  25.005  27.741  15.355  0.3499  0.0484  0.2735
78321W        W79185  22.516  28.749  17.903 -0.0627  0.2112  0.2915
78322W        W79186  23.710  27.876  18.459 -0.2999  0.0973  0.1568
78323W        W79187  23.278   0.918  21.134 -0.2302 -0.0188 -0.2131
78324W        W79188  19.705   0.777  19.143  0.0157  0.0714 -0.2230
78325W        W79189  23.246  27.637  22.617  0.2564  0.1383  0.0923
78326W        W79190  23.786  27.279  20.368  0.0704 -0.5330  0.2124
78327W        W79191  23.265  24.492  18.219 -0.2129  0.0695 -0.1378
78328W        W79192  25.035  27.185  19.286  0.0545  0.1465 -0.2158
78329W        W79193  25.201  27.172  22.211  0.0905 -0.2525 -0.0343
78330W        W79194  23.555   0.629  20.070 -0.0934 -0.0571  0.1137
78331W        W79195  20.203  26.880  17.599  0.0216  0.3701  0.0180
78332W        W79196  24.482  27.863  21.401  0.0852 -0.2598  0.1698
78333W        W79197  23.716  27.122  21.189  0.1049 -0.0226 -0.2023
78334W        W79198  28.910   1.659  21.715 -0.0229  0.0624  0.0418
78335W        W79199  23.043  26.607  18.280  0.0730 -0.1074 -0.2555
78336W        W79200  24.857   1.189  20.938 -0.0137  0.0628 -0.0194
78337W        W79201  28.380   0.922  23.312  0.1298  0.2990 -0.2128
78338W        W79202  22.415  24.141  20.328  0.3033 -0.3062  0.0508
78339W        W79203  24.134  25.380  21.611 -0.0757 -0.4102 -0.0684
78340W        W79204  21.773  26.025  20.115  0.0701 -0.0806 -0.1226
78341W        W79205  22.757  24.024  22.079 -0.0076 -0.4135 -0.0211
78342W        W79206  21.686  25.390  20.808 -0.3115 -0.2860  0.2846
78343W        W79207  24.835  23.555  20.247  0.2091  0.1500 -0.1314
78344W        W79208  25.342  28.433  20.938  0.2691 -0.0186 -0.3051
78345W        W79209  23.180   0.301  20.883  0.0232  0.1010 -0.1547
78346W        W79210  21.971   0.519  19.244 -0.0021  0.1077 -0.0811
78347W        W79211  20.917  23.399  19.739 -0.0710  0.2757 -0.0293
78348W        W79212  23.207  27.009  21.743  0.2844 -0.4839  0.0785
78349W        W79213  24.325  27.847  20.823  0.0602  0.0611 -0.1325
78350W        W79214  21.905  26.882  20.417 -0.0726  0.0105 -0.1937
78351W        W79215  22.245  28.054  19.789 -0.0992  0.0463 -0.2284
78352W        W79216  24.712  26.445  18.413 -0.3469 -0.2310  0.1290
78353W        W79217  23.388  29.065  20.493  0.2674 -0.3549  0.1040
78354W        W79218  23.354  28.565  17.155 -0.4313 -0.0117 -0.0447
78355W        W79219  20.768   0.154  19.659  0.0497  0.0235 -0.2085
78356W        W79220  22.503   0.586  21.650 -0.0452 -0.1717  0.0789
78357W        W79221  22.107  23.308  17.852  0.0281  0.0297  0.0008
78358W        W79222  19.364  26.912  17.088  0.1583 -0.0499  0.0403
78359W        W79223  22.906  26.980  19.316 -0.2441  0.1903 -0.2124
78360W        W79224  21.412  28.683  18.490 -0.1868  0.1541  0.2109
78361W        W79225  21.449   0.143  21.985 -0.1157  0.1774  0.0988
78362W        W79226  25.163  28.312  17.060  0.0447  0.0387  0.1718
78363W        W79227  23.625  25.345  20.340 -0.0937 -0.2901  0.5198
78364W        W79228  26.717   1.589  21.218 -0.0095 -0.0590  0.2160
78365W        W79229  27.997   1.072  21.781  0.2069 -0.1971 -0.1126
78366W        W79230  22.326  28.589  22.567 -0.2341  0.1199 -0.0493
78367W        W79231  22.660  27.589  21.380  0.3826  0.3315 -0.0332
78368W        W79232  25.708  28.010  20.703 -0.0205  0.1109  0.4289
78369W        W79233  23.781  27.874  17.906  0.2734  0.0148 -0.2348
78370W        W79234  23.766  21.763  20.456 -0.0150 -0.2294  0.0370
78371W        W79235  22.450  28.368  17.551  0.1149  0.1300  0.0239
78372W        W79236  20.852  29.040  20.088  0.2712  0.1340 -0.1741
78373W        W79237  22.830  25.160  22.791  0.1370 -0.0931 -0.1204
78374W        W79238  19.058  27.704  18.382 -0.0995  0.1227  0.0217
78375W        W79239  25.540  27.505  20.579  0.3269  0.0187  0.1745
78376W        W79240  23.272  27.587  20.424 -0.0014  0.0531  0.1330
78377W        W79241  22.008  27.541  17.035  0.2035 -0.0037 -0.2376
78378W        W79242  20.865  27.266  20.984 -0.1527  0.0729 -0.0151
78379W        W79243  22.539  26.885  18.976  0.1486  0.2756  0.0933
78380W        W79244  21.955  24.555  21.796  0.0844 -0.3001  0.1623
78381W        W79245  23.230  25.862  20.931  0.4878 -0.0925 -0.0019
78382W        W79246  24.372  26.654  18.059  0.4439 -0.1254  0.3254
78383W        W79247  23.068  25.375  23.187 -0.2289  0.0666 -0.2737
78384W        W79248  22.569  25.606  18.893  0.0628 -0.1880  0.0712
78385W        W79249  22.449  27.188  17.937 -0.0634  0.2006 -0.1134
78386W        W79250  26.187  25.841  20.618  0.1650  0.0653  0.0595
78387W        W79251  22.548  28.436  18.949 -0.0298 -0.2340 -0.0721
78388W        W79252  23.694  27.819  20.432  0.0846  0.3160 -0.0389
78389W        W79253  19.848  26.314  20.558 -0.1566 -0.0288 -0.1127
78390W        W79254  20.055  27.784  16.985 -0.1444 -0.1111  0.1462
78391W        W79255  22.949  27.254  18.931 -0.1280 -0.3468  0.0775
78392W        W79256  25.865  28.349  20.999 -0.0298 -0.2472 -0.1116
78393W        W79257  21.765  27.667  18.334 -0.0459 -0.0968 -0.0327
78394W        W79258  26.148  25.824  20.107  0.2751 -0.0976 -0.0291
78395W        W79259  22.949  28.527  17.698 -0.2050  0.0667 -0.0045
78396W        W79260  25.952  27.845  21.318 -0.0407 -0.0259  0.1945
78397W        W79261  22.559  29.036  19.784  0.1531  0.2089  0.2138
78398W        W79262  25.517   0.131  20.844 -0.0652  0.0954  0.2428
78399W        W79263  22.749  27.517  17.797  0.0372 -0.0142  0.2616
78400W        W79264  23.928  27.212  19.186 -0.0237 -0.3310  0.0656
78401W        W79265  22.313  27.343  20.148 -0.0897  0.2661 -0.0263
78402W        W79266  22.654  27.709  19.723  0.1035 -0.2953 -0.1547
78403W        W79267  26.133  28.836  19.602 -0.0791  0.0674  0.2498
78404W        W79268  21.899  26.835  18.964 -0.0678  0.4650 -0.1508
78405W        W79269  22.202   2.500  14.275  0.1062  0.1474  0.0851
78406W        W79270  22.896  24.295  21.638 -0.2507 -0.1017  0.0999
78407W        W79271  22.164  24.498  19.476  0.1438  0.0017  0.0558
78408W        W79272  22.172   0.961  18.379 -0.0846  0.0946  0.0808
78409W        W79273  24.104  25.730  19.777  0.1267 -0.1583 -0.0601
78410W        W79274  24.079   0.662  19.342  0.1058 -0.1977  0.1286
78411W        W79275  22.930  27.698  20.944  0.0512  0.2576 -0.0050
78412W        W79276  22.584  27.899  20.262  0.0929 -0.0665 -0.0313
78413W        W79277  19.874  28.586  20.329  0.3422 -0.3085 -0.0233
78414W        W79278  23.332  29.108  21.633 -0.1231 -0.2857 -0.3256
78415W        W79279  24.532  27.322  20.599  0.0137 -0.3132  0.1371
78416W        W79280  24.655  25.459  20.046  0.0041  0.1023 -0.2302
78417W        W79281  24.670   0.742  17.076  0.2109  0.0004 -0.1757
78418W        W79282  23.952   0.491  21.067 -0.2396  0.2602 -0.2826
78419W        W79283  23.667  26.801  20.720 -0.3609 -0.0350 -0.3339
78420W        W79284  27.193   1.502  20.671  0.4470 -0.0771  0.0277
78421W        W79285  25.076  28.136  20.680 -0.0628  0.1100  0.1324
78422W        W79286  21.973   1.087  20.415 -0.0809 -0.0821 -0.2627
78423W        W79287  23.132   1.584  21.069  0.1491 -0.1011  0.2341
78424W        W79288  21.122   0.178  22.798  0.2397  0.2228 -0.2151
78425W        W79289  19.697  27.096  17.608 -0.1495  0.1774 -0.3316
78426W        W79290  22.292  27.579  21.698 -0.0435 -0.3039  0.1014
78427W        W79291  25.792  27.500  21.015 -0.0801  0.1235 -0.0852
78428W        W79292  22.456  26.542  21.518 -0.1511 -0.1066 -0.2923
78429W        W79293  22.659  28.834  20.286  0.2179 -0.3994 -0.1850
78430W        W79294  22.288  25.533  20.589  0.1154 -0.0448 -0.1958
78431W        W79295  22.321   0.417  25.829 -0.1077  0.0602  0.2755
78432W        W79296  21.915  28.308  23.225 -0.2056 -0.0012 -0.3536
78433W        W79297  27.328   0.112  23.186 -0.2015  0.0128  0.0380
78434W        W79298  26.702   0.864  23.816 -0.2341 -0.0166 -0.1206
78435W        W79299  25.703   0.807  20.203  0.1885  0.1767 -0.3064
78436W        W79300  23.310  26.787  21.275  0.1566 -0.0322 -0.0867
78437W        W79301  23.180  27.878  21.397 -0.0405  0.0198  0.2778
78438W        W79302  27.733  29.044  24.094  0.2082  0.0537  0.2234
78439W        W79303  23.655   0.193  25.540 -0.1343  0.0867 -0.1763
78440W        W79304  24.018  26.136  26.148  0.3229  0.0475 -0.0174
78441W        W79305  24.149  25.470  23.273  0.1284  0.2371 -0.1239
78442W        W79306  23.538  26.124  25.960 -0.0456  0.1745  0.0358
78443W        W79307  21.894  26.165  20.946  0.2529  0.0057 -0.1294
78444W        W79308  22.446  27.962  23.158 -0.6457  0.0933  0.2124
78445W        W79309  26.147  27.991  25.930  0.0876 -0.1416 -0.0515
78446W        W79310  22.460   0.431  27.870  0.1640  0.1052 -0.2147
78447W        W79311  20.169  26.476  22.470  0.1849 -0.1157 -0.1224
78448W        W79312  23.378  27.946  23.018 -0.1492 -0.1627 -0.0119
78449W        W79313  21.707  28.491  24.734  0.3422 -0.0603 -0.1384
78450W        W79314  26.162  24.975  25.504 -0.1714  0.2042  0.2575
78451W        W79315  27.532  28.707  22.733 -0.1836 -0.0453  0.1025
78452W        W79316  23.331  24.156  24.957 -0.2967  0.0149 -0.1688
78453W        W79317  23.754   0.147  24.587  0.0631 -0.1209  0.1860
78454W        W79318  25.533  28.645  23.357 -0.0769  0.1332  0.2710
78455W        W79319  21.591  24.661  23.364 -0.3814 -0.2379  0.1751
78456W        W79320  24.016  25.589  27.725 -0.1006 -0.1068  0.1021
78457W        W79321  25.572  25.890  24.473 -0.0577 -0.0821 -0.1698
78458W        W79322  23.905   1.319  22.825  0.2260 -0.0216  0.0538
78459W        W79323  25.660   0.886  24.186 -0.0046 -0.0445 -0.0080
78460W        W79324  23.080  26.350  25.935 -0.1568  0.0882  0.0083
78461W        W79325  23.550   0.074  24.117  0.1519 -0.0108  0.0101
78462W        W79326  25.578  28.130  25.119  0.0700 -0.1576  0.2301
78463W        W79327  24.910  28.607  26.459 -0.1178  0.1379  0.2291
78464W        W79328  27.737  28.088  24.684  0.4471  0.0771 -0.1700
78465W        W79329  25.440  27.864  26.714 -0.0805  0.1597  0.0080
78466W        W79330  27.381  28.193  27.439 -0.0614 -0.1740 -0.1077
78467W        W79331  25.265  25.330  25.835  0.0266  0.2141  0.0452
78468W        W79332  23.256  28.902  23.656  0.0856  0.1662  0.0992
78469W        W79333  28.825  27.520  24.521 -0.1314  0.1649  0.0121
78470W        W79334  27.321  22.736  26.192 -0.0010 -0.0163 -0.0209
78471W        W79335  24.920  27.091  22.618 -0.0058 -0.0300  0.0114
78472W        W79336  26.925  24.492  24.875 -0.1281 -0.2132  0.0906
78473W        W79337  24.633  28.494  25.808 -0.4475 -0.2405 -0.2379
78474W        W79338  26.620  29.065  22.432  0.1888  0.0055  0.2573
78475W        W79339  22.128   0.626  24.024 -0.0651 -0.0348  0.1553
78476W        W79340  24.320  28.080  20.044  0.1566  0.0462 -0.1330
78477W        W79341  22.826  25.158  24.152  0.2500  0.2006 -0.1719
78478W        W79342  25.329  26.211  24.778 -0.1028 -0.2901 -0.2666
78479W        W79343  22.687  27.876  21.793  0.1843  0.0036  0.3603
78480W        W79344  24.211  26.104  23.363  0.0094 -0.1706  0.1901
78481W        W79345  26.493  27.166  26.242  0.1964  0.1176  0.2185
78482W        W79346  26.036  26.856  26.032  0.0609 -0.0353  0.2088
78483W        W79347  24.199  28.534  24.419 -0.1238  0.2693 -0.4068
78484W        W79348  26.481  28.711  21.969  0.0995 -0.0090 -0.0660
78485W        W79349  22.640  27.203  19.735  0.0086  0.3388 -0.1786
78486W        W79350  23.821   2.777  23.499 -0.2749 -0.2964 -0.1121
78487W        W79351  22.739  26.325  23.407  0.0653 -0.3192  0.1264
78488W        W79352  25.063  26.343  24.328 -0.1203 -0.2906  0.3440
78489W        W79353  24.944  28.837  22.956 -0.0473  0.0049 -0.2598
78490W        W79354  23.916  28.655  20.737 -0.0685 -0.0651  0.3016
78491W        W79355  27.542  26.185  20.655 -0.0766 -0.0378  0.0472
78492W        W79356  23.788  28.189  22.708 -0.0029  0.2737  0.0980
78493W        W79357  21.460  28.809  26.384  0.0745 -0.1650 -0.2434
78494W        W79358  24.640  27.674  22.895 -0.1485  0.2729 -0.2588
78495W        W79359  22.807  26.128  26.405 -0.0899  0.0967  0.1325
78496W        W79360  24.333  27.322  23.908  0.0502 -0.1116 -0.1240
78497W        W79361  21.336  27.191  24.650  0.0417  0.0732 -0.1643
78498W        W79362  20.655  25.548  21.288  0.1478  0.2790  0.0237
78499W        W79363  21.504   0.710  23.719  0.2151  0.0307  0.2337
78500W        W79364  22.747  27.819  23.956 -0.2577 -0.2041  0.3122
78501W        W79365  25.178  28.730  25.749 -0.3902 -0.0418 -0.3528
78502W        W79366  21.319  27.193  21.068 -0.0226 -0.0846 -0.0053
78503W        W79367  26.822  28.328  22.946  0.3821 -0.0549 -0.0014
78504W        W79368  24.176  24.091  26.613  0.2020 -0.0737 -0.0008
78505W        W79369  29.114   1.274  22.111 -0.2123 -0.1560  0.3433
78506W        W79370  23.962  28.062  25.876  0.0353  0.1033 -0.1303
78507W        W79371  26.386  27.674  22.566  0.0699  0.2118 -0.0362
78508W        W79372  21.273  28.189  24.793  0.1078 -0.0288 -0.0734
78509W        W79373  20.401  27.532  21.163  0.2182 -0.1388  0.0926
78510W        W79374  25.911  27.005  22.803 -0.0451 -0.1074  0.2015
78511W        W79375  24.839  26.528  23.968  0.2535  0.4142  0.2093
78512W        W79376  21.715   0.585  26.084 -0.0330 -0.1494 -0.3771
78513W        W79377  24.496  28.730  24.877  0.0880 -0.2684 -0.0313
78514W        W79378  23.042  27.287  26.085 -0.2201  0.0487 -0.1095
78515W        W79379  26.492  25.945  26.037  0.1178 -0.0042 -0.1249
78516W        W79380  23.820  27.669  21.943 -0.0463 -0.2861 -0.1204
78517W        W79381  26.812  26.889  27.074 -0.1047 -0.2051 -0.1469
78518W        W79382  23.825  24.415  25.267  0.0629 -0.0408 -0.2555
78519W        W79383  23.190   0.854  25.077 -0.0008 -0.2855  0.2980
78520W        W79384  25.498  27.368  26.812  0.2221 -0.3012 -0.0337
78521W        W79385  24.433  27.051  23.351  0.0653  0.0198  0.2818
78522W        W79386  26.588  24.886  26.186 -0.1143  0.0780  0.0498
78523W        W79387  25.991   0.420  24.740  0.2530  0.2975 -0.1856
78524W        W79388  24.110   0.267  25.985 -0.1334  0.1112  0.0887
78525W        W79389  25.944  27.021  24.639 -0.0886 -0.0072 -0.1155
78526W        W79390  23.252  27.218  20.849 -0.1423 -0.0922  0.0985
78527W        W79391  27.053  28.909  22.077  0.1925 -0.0289  0.0209
78528W        W79392  24.704   1.270  23.567  0.2710 -0.0736 -0.0449
78529W        W79393  26.193  26.643  21.347 -0.1361 -0.4445 -0.0077
78530W        W79394  23.843  26.391  22.482 -0.2765  0.0438  0.1159
78531W        W79395  23.659  27.156  21.876  0.1793 -0.2834  0.0969
78532W        W79396  24.699  25.543  25.897 -0.2564 -0.1080  0.0104
78533W        W79397  22.584  25.192  21.145  0.2477  0.0985  0.1717
78534W        W79398  25.399  28.671  22.852 -0.0235  0.2442 -0.0864
78535W        W79399  26.744  23.641  26.287  0.3885  0.0568  0.0532
78536W        W79400  24.351  28.043  24.353 -0.1212  0.1045  0.1044
78537W        W79401  25.383  28.366  20.349 -0.0730  0.2627  0.0495
78538W        W79402  27.841  27.458  27.859  0.2554  0.0442  0.1187
78539W        W79403  23.564  26.150  25.032  0.0917  0.1503  0.2068
78540W        W79404  21.993  26.032  25.150  0.0404 -0.3197 -0.1199
78541W        W79405  25.172  27.079  23.444  0.0478 -0.1577 -0.0498
78542W        W79406  24.998   0.786  22.339 -0.0029 -0.1174  0.0041
78543W        W79407  23.635  26.501  21.143  0.1883 -0.0404  0.0993
78544W        W79408  25.280  28.128  26.334 -0.0376  0.2829 -0.0119
78545W        W79409  26.764  25.868  24.311 -0.2533  0.2046 -0.0256
78546W        W79410  24.567  28.949  22.651  0.2257 -0.0355  0.2567
78547W        W79411  26.930  25.155  26.419  0.0928  0.0675 -0.0580
78548W        W79412  22.162  27.545  27.663  0.0980 -0.1422  0.0156
78549W        W79413  24.413  28.135  26.200  0.1746  0.1450  0.1170
78550W        W79414  23.137  27.618  21.828  0.0740  0.0244  0.3384
78551W        W79415  24.320  26.375  24.012  0.4275  0.0697 -0.3980
78552W        W79416  26.211   0.493  23.637 -0.2312 -0.2226 -0.2127
78553W        W79417  23.543  28.274  24.581  0.0232  0.2679  0.2314
78554W        W79418  25.043  27.518  20.623 -0.0481  0.2246 -0.0739
78555W        W79419  24.640   0.038  24.648 -0.1117  0.2155  0.0401
78556W        W79420  25.407  26.209  23.036 -0.0562  0.3760 -0.2072
78557W        W79421  25.240  27.824  23.334 -0.5023  0.1539  0.1302
78558W        W79422  25.592  26.322  25.210  0.1731  0.1658  0.0504
78559W        W79423  26.465  28.482  24.324  0.0809  0.1266  0.1173
78560W        W79424  22.110  28.443  21.506  0.0453  0.1805 -0.0181
78561W        W79425  27.337   0.897  24.452 -0.0021  0.0404 -0.0734
78562W        W79426  23.646  25.903  22.478  0.0675 -0.0079 -0.1901
78563W        W79427  23.178   0.364  22.425 -0.0168  0.2001 -0.2185
78564W        W79428  23.912  28.224  24.178 -0.3088  0.0656 -0.1736
78565W        W79429  24.574  26.887  26.633 -0.0139  0.4238  0.3489
78566W        W79430  23.738  27.691  22.584  0.3502  0.1446  0.2197
78567W        W79431  25.918  25.321  25.261  0.1988  0.4418  0.3406
78568W        W79432  26.726  27.366  24.236 -0.0763 -0.0943 -0.3526
78569W        W79433  26.615  28.275  21.581  0.0153  0.0348 -0.0932
78570W        W79434  22.241   1.823  25.027 -0.0836 -0.0469  0.2494
78571W        W79435  19.926  27.840  20.043  0.2066 -0.1714 -0.1742
78572W        W79436  25.658  27.036  23.566 -0.0307  0.0855 -0.1134
78573W        W79437  22.236   1.232  21.269  0.1049  0.0032  0.0093
78574W        W79438  23.726  27.182  24.254  0.1555 -0.0019  0.0699
78575W        W79439  22.824   1.456  25.420 -0.0381  0.0288 -0.1955
78576W        W79440  23.887  28.090  22.208 -0.2225 -0.0008 -0.1764
78577W        W79441  26.053  25.810  22.155  0.2478  0.0866  0.1934
78578W        W79442  28.346  29.018  22.797 -0.3072 -0.1233 -0.0874
78579W        W79443  25.662  28.247  24.231 -0.0058  0.0756 -0.0057
78580W        W79444  25.584  26.705  23.087 -0.1623  0.1909  0.1172
78581W        W79445  28.442   0.408  26.025 -0.1900  0.0344  0.4150
78582W        W79446  26.492  24.199  24.511 -0.1402 -0.1559 -0.1450
78583W        W79447  23.448  27.587  24.347 -0.0303 -0.4076 -0.1776
78584W        W79448  22.888  25.702  22.819  0.0050 -0.1597 -0.0111
78585W        W79449  23.716  28.817  24.363  0.2179 -0.0606 -0.0115
78586W        W79450  24.116  26.727  22.125 -0.1341 -0.0382 -0.0676
78587W        W79451  21.792  26.150  25.699 -0.0216  0.2473  0.1780
78588W        W79452  19.708   0.899  22.308  0.1505 -0.0243 -0.2522
78589W        W79453  23.072  28.973  24.984 -0.2537  0.2893 -0.1344
78590W        W79454  25.083  27.315  24.631 -0.0077 -0.0544  0.0130
78591W        W79455  26.541  28.829  26.696  0.0766 -0.1893  0.0821
78592W        W79456  24.852   0.417  25.237  0.1601 -0.1000 -0.2177
78593W        W79457  23.147  27.172  24.419  0.0454 -0.0802  0.0683
78594W        W79458  23.776  28.157  25.020 -0.0435  0.1610 -0.1697
78595W        W79459  23.180  25.954  24.644 -0.1207 -0.0975 -0.0933
78596W        W79460  24.224  26.086  25.685  0.2260 -0.0311  0.5983
78597W        W79461  24.115  25.835  25.001  0.1505  0.0998 -0.3472
78598W        W79462  21.491  27.468  23.662  0.0405 -0.1607  0.1767
78599W        W79463  22.829  28.808  26.473  0.2842  0.0061 -0.0845
78600W        W79464  21.186  27.460  20.580 -0.0663  0.3407 -0.4321
78601W        W79465  25.736  28.467  23.787 -0.3164 -0.0239 -0.1349
78602W        W79466  26.718  25.404  25.496  0.1437 -0.3764 -0.0764
78603W        W79467  24.068  28.284  23.232 -0.0142 -0.2376  0.1106
78604W        W79468  24.554  26.810  21.718 -0.1202  0.4441  0.1939
78605W        W79469  21.995  27.220  22.985 -0.0554  0.1419 -0.2458
78606W        W79470  25.978  28.029  23.155  0.0350 -0.0957  0.3837
78607W        W79471  21.945  27.911  25.347 -0.0622  0.0580  0.4804
78608W        W79472  23.718   1.130  24.843  0.2498  0.0790  0.3077
78609W        W79473  20.972  27.873  24.343  0.3463 -0.0598  0.0579
78610W        W79474  24.698  24.816  22.954 -0.2046 -0.2657 -0.0123
78611W        W79475  24.854  28.257  20.186 -0.2680  0.1654 -0.0039
78612W        W79476  26.714  25.529  21.486 -0.0367 -0.2807  0.1334
78613W        W79477  23.145  28.690  21.920  0.3587  0.3596 -0.1597
78614W        W79478  25.143  25.788  25.686  0.0388  0.0333  0.1460
78615W        W79479  22.509  28.985  20.910 -0.1159  0.1659  0.0110
78616W        W79480  27.231  27.600  23.473  0.0721 -0.2918  0.1482
78617W        W79481  25.804  29.016  21.825  0.0743  0.1904  0.1297
78618W        W79482  25.456  23.427  23.855 -0.0678  0.0351  0.2441
78619W        W79483  25.228  27.369  25.364 -0.1109 -0.1113  0.0621
78620W        W79484  25.884  28.770  26.392 -0.0258 -0.1346  0.2738
78621W        W79485  22.178  28.560  22.055 -0.0224  0.1085  0.0351
78622W        W79486  25.120   1.056  21.578 -0.1421 -0.0624 -0.0428
78623W        W79487  22.941  28.391  24.153 -0.2670 -0.1320 -0.2034
78624W        W79488  24.927  26.950  24.995 -0.0383 -0.2705  0.1590
78625W        W79489  23.111  24.340  23.965 -0.0994 -0.2185  0.0382
78626W        W79490  23.079  22.826  24.696  0.4442 -0.1548 -0.0305
78627W        W79491  24.500  25.888  22.038  0.0425 -0.1372  0.1488
78628W        W79492  23.613  26.396  23.315 -0.0941 -0.1258 -0.1414
78629W        W79493  23.884  27.326  22.301 -0.2306 -0.0013 -0.1561
78630W        W79494  26.594  25.255  23.279  0.1231  0.0772  0.1319
78631W        W79495  22.255  27.195  24.323  0.1754  0.0399 -0.0229
78632W        W79496  25.883  26.421  22.739 -0.1249  0.1755  0.1198
78633W        W79497  26.978   0.821  21.986 -0.1703  0.0520 -0.0397
78634W        W79498  21.743  25.529  24.967  0.2343 -0.0144  0.0246
78635W        W79499  24.022   0.132  25.022  0.1732 -0.2377  0.0706
78636W        W79500  22.460  26.927  22.878  0.3222  0.0556 -0.0807
78637W        W79501  23.632  28.677  25.899  0.0535  0.1233  0.2466
78638W        W79502  26.424  27.169  25.693 -0.1336 -0.0877  0.0632
78639W        W79503  23.416  29.062  22.335 -0.0728 -0.0609  0.0795
78640W        W79504  24.072   0.989  24.060 -0.0704  0.0691  0.3761
78641W        W79505  25.750  27.067  25.607 -0.0081 -0.1601 -0.2866
78642W        W79506  22.023   0.108  26.099 -0.1414 -0.2247  0.3402
78643W        W79507  24.493  27.550  25.920 -0.0097  0.1807 -0.1060
78644W        W79508  25.358  25.627  24.885  0.1247 -0.1500 -0.2301
78645W        W79509  24.973  28.260  25.460  0.3365 -0.1422 -0.1061
78646W        W79510  25.002  26.881  19.665 -0.0429 -0.0609  0.0229
78647W        W79511  27.331  28.023  22.130  0.0368  0.0750  0.0473
78648W        W79512  24.810  27.319  20.182  0.2274  0.1676 -0.0642
78649W        W79513  24.781   0.638  26.213 -0.0394 -0.2860  0.0650
78650W        W79514  22.262  28.902  25.848  0.1540 -0.1704  0.0773
78651W        W79515  26.843  25.128  25.039 -0.0525  0.0113 -0.0971
78652W        W79516  27.109  26.054  26.616 -0.0857 -0.1129  0.1657
78653W        W79517  23.749   0.931  25.499  0.0288 -0.1930  0.1106
78654W        W79518  23.182  25.986  18.591 -0.4219  0.0570 -0.2078
78655W        W79519  25.814   0.212  23.862 -0.1505 -0.2142 -0.0270
78656W        W79520  22.369  28.173  25.619 -0.1409  0.1221  0.1927
78657W        W79521  25.855  28.373  22.814  0.0792  0.3795  0.1014
78658W        W79522  24.858  24.145  24.204  0.1071  0.0256  0.2330
78659W        W79523  23.983  27.802  23.028  0.2991  0.1653 -0.3192
78660W        W79524  25.992   0.571  23.116 -0.2592 -0.0108 -0.0362
78661W        W79525  24.119  25.822  28.339  0.1139 -0.1098 -0.1011
78662W        W79526  26.111  28.122  27.094  0.1316  0.0186  0.0786
78663W        W79527  21.898  27.387  20.423 -0.0516  0.2206  0.1539
78664W        W79528   0.249  28.703  25.234  0.1641 -0.4253  0.3647
78665W        W79529  22.481  26.985  25.505  0.1162  0.0344  0.0379
78666W        W79530  26.773  27.783  21.284 -0.2179 -0.0566  0.2411
78667W        W79531  26.304  26.604  21.878  0.2878  0.0124  0.0009
78668W        W79532  24.862  25.496  26.878 -0.1663 -0.2622  0.2727
78669W        W79533  27.025   1.475  25.528 -0.0165  0.1855  0.0708
78670W        W79534  24.771  27.817  24.676  0.1038 -0.3921  0.1662
78671W        W79535  26.355   3.006  24.155 -0.1829 -0.0596 -0.0978
78672W        W79536  22.661  27.579  26.081  0.1637  0.1444  0.2328
78673W        W79537  23.777  28.314  27.265 -0.1331 -0.0002  0.2399
78674W        W79538  23.538  27.251  22.870  0.0239 -0.0766  0.3846
78675W        W79539  24.925  26.547  22.567  0.1267  0.0537 -0.0749
78676W        W79540  22.781  28.534  22.915  0.1290 -0.0775 -0.1985
78677W        W79541  26.143  27.296  28.701  0.0652  0.1771 -0.2767
78678W        W79542  22.145  28.403  28.230 -0.2481 -0.0591  0.2468
78679W        W79543  26.261   0.272  21.788 -0.0758 -0.0491  0.2068
78680W        W79544  21.635  27.698  20.895  0.0838  0.0888 -0.0624
78681W        W79545  22.169   0.198  23.108  0.2003  0.3060 -0.2113
78682W        W79546  24.174   1.524  23.912 -0.0639  0.1545  0.0327
78683W        W79547  27.626   0.970  26.106 -0.2943  0.0175  0.2577
78684W        W79548  24.614  26.402  26.028 -0.0890 -0.2275 -0.0945
78685W        W79549  24.243  27.795  22.444 -0.1687 -0.0538 -0.2061
78686W        W79550  25.929   0.307  22.193  0.0650  0.3117  0.0628
78687W        W79551  23.018  25.865  19.100  0.1073 -0.2256 -0.1204
78688W        W79552  22.064  26.037  23.076  0.0370  0.0011  0.2629
78689W        W79553  24.263  27.208  21.955  0.0452 -0.3271 -0.1569
78690W        W79554  22.725   0.379  19.703  0.3355 -0.0652  0.2207
78691W        W79555  23.149  27.863  23.620 -0.1788  0.2579  0.1879
78692W        W79556  23.028  27.693  25.254 -0.1584 -0.0387  0.2507
78693W        W79557  25.390  25.722  22.776 -0.1188 -0.1979  0.2104
78694W        W79558  23.190  25.830  25.732  0.1084 -0.0526  0.3235
78695W        W79559  23.562  28.501  22.265 -0.2124  0.0580 -0.0742
78696W        W79560  21.508  28.307  27.284 -0.2547  0.1547 -0.0437
78697W        W79561  23.795   1.744  21.058 -0.1071  0.1267  0.2387
78698W        W79562  25.536  28.471  22.420 -0.1433 -0.4202 -0.1383
78699W        W79563  22.386  27.525  23.789 -0.1156 -0.1752  0.2825
78700W        W79564  27.295  28.258  22.889 -0.0235  0.0184  0.1562
78701W        W79565  25.467  28.622  21.887  0.4652  0.2269 -0.4332
78702W        W79566  25.460  27.431  25.865  0.1977  0.0275  0.0083
78703W        W79567  26.953  25.743  27.120 -0.0121  0.0841 -0.0011
78704W        W79568  21.272  28.836  22.761  0.1225 -0.0391 -0.0106
78705W        W79569  25.127   2.120  20.436  0.2487  0.2306  0.0164
78706W        W79570  26.565  25.394  26.118  0.0510 -0.1382  0.0745
78707W        W79571  22.790  27.713  26.560 -0.1508  0.1229 -0.0923
78708W        W79572  24.614  27.041  24.639  0.0835 -0.2645 -0.1656
78709W        W79573  21.807  28.118  21.219  0.0317  0.0146  0.0677
78710W        W79574  21.722  27.714  22.725 -0.2024  0.1337  0.2427
78711W        W79575  24.850  27.136  23.762 -0.1336  0.0453 -0.2534
78712W        W79576  24.982  23.256  21.463  0.1595 -0.2424 -0.0338
78713W        W79577  20.130  27.671  20.711 -0.1475 -0.0500 -0.0551
78714W        W79578  23.074  28.145  24.830  0.1217 -0.1689  0.0897
78715W        W79579  23.129  26.945  19.796 -0.0803  0.0566  0.0084
78716W        W79580  24.276  24.611  26.523 -0.0250 -0.0079 -0.1600
78717W        W79581  21.042   1.401  23.803 -0.1063  0.2142  0.0677
78718W        W79582  22.820  26.551  25.441 -0.0801  0.1693 -0.2273
78719W        W79583  25.409  27.503  23.698  0.1108  0.1288  0.0336
78720W        W79584  28.323  28.211  21.099  0.0266 -0.2539  0.3040
78721W        W79585  25.114  28.168  22.216 -0.4048 -0.0198 -0.1240
78722W        W79586  25.920  24.014  22.618 -0.1199 -0.1694 -0.0128
78723W        W79587  26.506  27.655  25.847  0.1265 -0.0098  0.1107
78724W        W79588  23.941  25.039  23.047  0.1021  0.1136 -0.3746
78725W        W79589  22.560   0.261  22.707 -0.0574  0.2461 -0.1891
78726W        W79590  24.881   0.656  23.061  0.3069  0.0457  0.1741
78727W        W79591  23.496  27.640  25.259  0.3841 -0.1145 -0.0162
78728W        W79592  26.760   2.811  25.166  0.1889  0.0153 -0.1500
78729W        W79593  25.055  26.834  24.394 -0.1714 -0.1810 -0.1230
78730W        W79594  25.048  28.984  21.522  0.1042 -0.0699  0.0693
78731W        W79595  23.875   0.968  20.897  0.1978 -0.0996 -0.2527
78732W        W79596  26.700  26.377  26.753 -0.0275  0.0417 -0.1837
78733W        W79597  22.841   0.850  24.740  0.0325  0.2019 -0.1163
78734W        W79598  25.491  23.954  23.443 -0.0751  0.5138 -0.0090
78735W        W79599  25.425  26.659  21.910  0.2227 -0.3553 -0.1378
78736W        W79600  24.738  26.180  23.472  0.3464  0.3988  0.0160
78737W        W79601  26.217  25.611  29.034 -0.1198  0.2725 -0.4803
78738W        W79602  22.847  25.035  22.056 -0.1405  0.0316  0.0193
78739W        W79603  24.293  26.633  25.701 -0.1418 -0.0358 -0.1112
78740W        W79604  22.439   0.853  24.412  0.0833  0.0505 -0.1528
78741W        W79605  23.548  26.043  23.796  0.3475 -0.0207 -0.1005
78742W        W79606  23.415  28.607  24.021  0.1682  0.0763 -0.0551
78743W        W79607  23.062  29.121  20.142 -0.0630  0.0717  0.1336
78744W        W79608  27.995  27.789  24.958  0.2084  0.0318 -0.1245
78745W        W79609  22.693   0.098  26.702  0.0943 -0.2442  0.1541
78746W        W79610  21.243  28.242  25.634  0.1897  0.5222 -0.1476
78747W        W79611  24.221  28.327  20.971 -0.1418  0.2102 -0.0811
78748W        W79612  24.577  25.975  21.179  0.2266 -0.1045 -0.0787
78749W        W79613  25.548  26.878  24.363  0.1687 -0.2686 -0.1849
78750W        W79614  23.054  28.128  22.664  0.0412  0.1626  0.0549
78751W        W79615  24.071   0.082  24.180 -0.1276  0.2683  0.2055
78752W        W79616  23.460  27.760  20.959 -0.0920 -0.2477  0.0822
78753W        W79617  21.243  28.737  23.957  0.1591  0.0252 -0.2842
78754W        W79618  25.497  26.006  23.522  0.0468 -0.1107 -0.1093
78755W        W79619  21.303  27.699  24.735  0.3539  0.1984 -0.1300
78756W        W79620  22.235  28.502  24.654 -0.2481  0.0465  0.0250
78757W        W79621  25.134  23.836  21.395 -0.5464 -0.2525 -0.0354
78758W        W79622  21.500  28.152  24.390  0.2946 -0.1803  0.2160
78759W        W79623  21.961  29.053  20.864 -0.0543 -0.3313 -0.2163
78760W        W79624  21.163  27.179  22.027 -0.3739 -0.1534 -0.0680
78761W        W79625  24.810  27.474  25.066  0.0605  0.1338 -0.1067
78762W        W79626  26.468  25.976  21.547  0.1417  0.0639 -0.1025
78763W        W79627  25.509  25.179  23.870  0.0790 -0.1346 -0.0287
78764W        W79628  26.805   3.377  23.865 -0.0895  0.1085 -0.1057
78765W        W79629  24.566  26.583  24.391 -0.1982 -0.1251 -0.1585
78766W        W79630  29.119  27.223  24.925 -0.2686 -0.0791  0.0201
78767W        W79631  26.015  27.548  24.843 -0.3379  0.0711 -0.1376
78768W        W79632  24.472  26.858  23.929 -0.0105  0.3048  0.0346
78769W        W79633  24.143  27.285  22.888 -0.2875 -0.0486  0.4156
78770W        W79634  23.558  26.740  22.830  0.1058 -0.0865 -0.0953
78771W        W79635  24.077   2.258  22.628 -0.0632 -0.0475 -0.1393
78772W        W79636  26.870  28.779  21.636  0.1878  0.1086 -0.0611
78773W        W79637  26.206  25.955  22.632  0.1844 -0.0820 -0.0464
78774W        W79638  22.854   0.734  22.480 -0.2441  0.2516 -0.0073
78775W        W79639  28.724  29.027  24.086  0.1028 -0.0227  0.4300
78776W        W79640  23.734   2.536  23.034  0.0459 -0.4027  0.0341
78777W        W79641  24.504  29.014  23.248  0.1789 -0.0631 -0.1754
78778W        W79642  22.838  25.500  23.726 -0.3467 -0.0366 -0.0943
78779W        W79643  24.533  28.558  23.544 -0.0738 -0.2097 -0.2201
78780W        W79644  23.104  27.314  21.354 -0.1014  0.0072 -0.2251
78781W        W79645  25.895  25.565  22.563  0.1485  0.2452 -0.0432
78782W        W79646  24.459  25.567  22.472  0.0699 -0.0771 -0.3896
78783W        W79647  25.271  26.912  27.264  0.0186  0.2539 -0.1748
78784W        W79648  24.111  27.994  25.336  0.2376  0.5647 -0.1559
78785W        W79649  20.329  28.724  22.747  0.2840  0.0328 -0.0483
78786W        W79650  24.563  25.737  23.316  0.1528 -0.1704  0.0390
78787W        W79651  21.667  28.937  25.166  0.0358  0.1453 -0.2649
78788W        W79652  25.199  26.319  25.513  0.0938 -0.0427 -0.1611
78789W        W79653  24.894  25.738  23.755  0.1066 -0.1438 -0.1277
78790W        W79654  23.961  27.321  23.360  0.1031  0.0136 -0.0142
78791W        W79655  20.094  28.302  21.286 -0.1852 -0.0811 -0.2013
78792W        W79656  26.629  28.329  25.559  0.1160 -0.2453  0.1299
78793W        W79657  25.019  28.422  24.893  0.2167  0.2458  0.1404
78794W        W79658  24.167  28.497  22.523 -0.0183  0.2407 -0.2262
78795W        W79659  22.562  28.047  20.804  0.2403 -0.0315  0.1783
78796W        W79660  24.753  27.509  24.240  0.0341 -0.2178 -0.5561
78797W        W79661  25.025  27.813  21.443  0.2305 -0.3672 -0.0289
78798W        W79662  27.200  28.719  23.143  0.1804 -0.0338  0.1997
78799W        W79663  22.416   0.102  20.516 -0.1138  0.0688 -0.1150
78800W        W79664  24.024  26.881  22.612 -0.0932 -0.1292 -0.1940
78801W        W79665  19.419  28.446  20.964  0.2160 -0.4075 -0.1493
78802W        W79666  27.532   0.281  22.367 -0.0055  0.0769  0.1316
78803W        W79667  24.309  28.856  20.979  0.2470  0.0854  0.0267
78804W        W79668  24.920   0.171  26.395  0.1676  0.2018 -0.1907
78805W        W79669  23.342  26.621  19.476  0.4304  0.1465 -0.3090
78806W        W79670  24.319  28.116  22.818  0.0026  0.2705 -0.0381
78807W        W79671  23.780  27.425  24.706  0.1023  0.0594  0.1098
78808W        W79672  24.698  28.485  24.057 -0.0866  0.0545 -0.1223
78809W        W79673  25.158  28.405  24.345 -0.0529 -0.1993 -0.0938
78810W        W79674  20.292  27.147  25.309 -0.0103 -0.0551  0.0538
78811W        W79675  24.603   1.466  25.166 -0.4970  0.1437 -0.1313
78812W        W79676  22.688  28.196  23.685 -0.0197  0.1176  0.2805
78813W        W79677  20.805  27.945  22.441 -0.0387  0.0989 -0.0187
78814W        W79678  28.559  26.667  26.632  0.1340 -0.1410 -0.0800
78815W        W79679  23.715  28.677  22.722 -0.0354  0.2264  0.2043
78816W        W79680  25.413  24.995  23.189 -0.2075 -0.0023  0.0715
78817W        W79681  26.700   0.493  23.421  0.1115 -0.0619  0.0340
78818W        W79682  25.753  28.207  26.519  0.4258 -0.2268  0.0977
78819W        W79683  20.059  28.505  26.081  0.4610  0.0353 -0.1229
78820W        W79684  25.768  28.032  25.608  0.1008 -0.0972 -0.1840
78821W        W79685  21.534   0.879  26.438 -0.0015  0.0631  0.1533
78822W        W79686  25.969  27.525  25.748  0.0859  0.1129  0.1102
78823W        W79687  25.813  27.729  24.262 -0.0097 -0.0770  0.3110
78824W        W79688  23.682  27.913  23.685 -0.0232  0.1965  0.1657
78825W        W79689  23.409  28.476  24.994  0.3517 -0.0932  0.0935
78826W        W79690  26.449   0.353  22.261 -0.4672  0.2396 -0.3874
78827W        W79691  24.995  28.179  26.982 -0.1338  0.1864  0.1447
78828W        W79692  24.769   0.121  21.198  0.3748  0.0265 -0.1484
78829W        W79693  23.125  23.106  24.256 -0.0393 -0.3506  0.1598
78830W        W79694  21.718  26.409   1.658  0.1050  0.2169  0.5198
78831W        W79695  21.514  27.535  28.896 -0.0188  0.1832 -0.1507
78832W        W79696  24.608   0.250  25.979 -0.2238 -0.2008  0.1792
78833W        W79697  25.111  28.309  27.733 -0.0034  0.2827 -0.0163
78834W        W79698  23.179  27.389  24.888 -0.1588  0.0289  0.1771
78835W        W79699  23.389   0.235  25.099  0.0004 -0.1005 -0.2375
78836W        W79700  25.685  27.781  27.142  0.1200  0.1608 -0.0271
78837W        W79701  26.037  27.272  26.716  0.3319 -0.1296 -0.2554
78838W        W79702  24.805   0.535   0.074 -0.0259 -0.1894 -0.1900
78839W        W79703  23.603  24.727   1.194 -0.0229 -0.0535 -0.2342
78840W        W79704  24.346  24.282  25.431  0.3032 -0.0980  0.3077
78841W        W79705  26.221  26.138   0.107  0.0074  0.0190  0.1174
78842W        W79706  23.069  26.415  28.818 -0.3127 -0.2842 -0.0740
78843W        W79707  22.689  25.711  28.196  0.0260  0.1714  0.0260
78844W        W79708  22.644  27.329   0.800  0.0001 -0.2999  0.0393
78845W        W79709  27.887   2.906  24.845 -0.2725  0.2752  0.3228
78846W        W79710  21.776  23.934  26.725  0.1171  0.0517  0.0192
78847W        W79711  23.332  26.817  28.682  0.2285  0.0939 -0.1759
78848W        W79712  24.679  27.405  27.808  0.2093 -0.3906  0.0463
78849W        W79713  27.652  28.536  28.724 -0.2584 -0.0413  0.0367
78850W        W79714  25.257  26.527  27.650  0.0919  0.1349 -0.0522
78851W        W79715  26.826  27.826  25.447 -0.0149 -0.0243  0.0003
78852W        W79716  22.043  26.400  28.873  0.1719  0.1262 -0.1126
78853W        W79717  20.273  25.815  27.372 -0.2037  0.4333  0.1357
78854W        W79718  21.460  26.845  28.181  0.1631  0.1889  0.2165
78855W        W79719  24.971  28.752  27.569 -0.0768  0.0003 -0.0693
78856W        W79720  22.616  26.820  27.471 -0.0454  0.1949  0.0123
78857W        W79721  21.622   1.106   3.589  0.0876 -0.3100  0.2957
78858W        W79722  24.146  27.535  27.113  0.0090 -0.2307  0.0967
78859W        W79723  23.339  26.756  25.541 -0.3263  0.2974  0.0331
78860W        W79724  25.622  27.796  28.066 -0.0179 -0.0893 -0.3719
78861W        W79725  24.965  25.864  28.014 -0.0832  0.0261 -0.2079
78862W        W79726  23.764  24.723  29.146  0.4322 -0.0246  0.0324
78863W        W79727  22.629  25.574  28.664  0.3103  0.0807  0.2305
78864W        W79728  26.295   0.572   1.291 -0.2616  0.0901 -0.2643
78865W        W79729  23.662  25.603  25.920 -0.2212 -0.0128 -0.2485
78866W        W79730  24.117  28.518  25.877  0.1586 -0.0037  0.0112
78867W        W79731  25.383  28.402  27.245 -0.1390  0.0295  0.0626
78868W        W79732  23.924  25.439  28.703 -0.1103 -0.1734 -0.1125
78869W        W79733  24.592  25.025  26.644  0.4081  0.3500  0.0483
78870W        W79734  24.239  26.786  28.532 -0.1055  0.0529  0.1435
78871W        W79735  24.817  28.931  26.096  0.1569 -0.1208  0.0015
78872W        W79736  25.413  26.740  26.389  0.3126 -0.3376  0.1920
78873W        W79737  24.453  27.630  28.248  0.3627 -0.2629 -0.0525
78874W        W79738  21.229   0.181  27.319  0.0593 -0.2092 -0.2444
78875W        W79739  26.528  23.709  26.742 -0.2555  0.2460  0.1197
78876W        W79740  23.609  25.649  28.332 -0.1864 -0.2531  0.4931
78877W        W79741  23.134  25.883  26.693 -0.0529  0.1451 -0.1614
78878W        W79742  25.088  27.502  26.601  0.2265  0.4301  0.3200
78879W        W79743  23.331   0.071  28.210  0.0119  0.1392  0.0368
78880W        W79744  24.076  25.538   0.550  0.1149 -0.0271  0.0678
78881W        W79745  21.906  27.850  29.017  0.1466 -0.0795  0.2054
78882W        W79746  27.707  26.931  27.137 -0.1803 -0.0871 -0.0270
78883W        W79747  27.589  26.004  28.859  0.2448  0.1849 -0.0386
78884W        W79748  25.806  28.361  26.058 -0.2384  0.1292 -0.5481
78885W        W79749  23.744  24.598  25.862 -0.1381 -0.1661  0.0396
78886W        W79750  25.461  26.673  29.045  0.0750  0.3436 -0.1040
78887W        W79751  21.863  26.649  28.421 -0.5070  0.0704 -0.1434
78888W        W79752  26.161   1.702  26.576 -0.1199  0.0093 -0.1370
78889W        W79753  25.712  25.537  25.726  0.0724  0.1578 -0.2410
78890W        W79754  26.161  27.644  27.229  0.0297 -0.1831 -0.1594
78891W        W79755  21.831  26.885  23.718 -0.0292 -0.0750  0.1669
78892W        W79756  25.389  27.231  26.336  0.0732 -0.0230  0.0548
78893W        W79757  21.652  23.071  27.396 -0.1917  0.0064 -0.1426
78894W        W79758  26.808  24.138  27.841  0.0789 -0.3130  0.0663
78895W        W79759  22.276   1.617  27.366  0.0210 -0.0823 -0.1250
78896W        W79760  27.375  28.701  26.001  0.2665  0.0131  0.2185
78897W        W79761  19.608  27.854  26.376 -0.0349 -0.1824 -0.3412
78898W        W79762  24.913  29.119  26.834  0.1765  0.0408 -0.1080
78899W        W79763  24.594  28.698   0.284  0.0585 -0.0021  0.2661
78900W        W79764  24.290  27.169  25.725  0.0994 -0.3141 -0.0036
78901W        W79765  25.309  29.121  26.028 -0.2963  0.0718 -0.1360
78902W        W79766  25.968  26.008  28.127  0.2507  0.1628  0.1592
78903W        W79767  24.188   0.385  24.606 -0.0880  0.2172  0.3349
78904W        W79768  24.559  25.386   0.582 -0.1643  0.0049 -0.1602
78905W        W79769  24.018  28.883  25.318 -0.2436  0.2222  0.1205
78906W        W79770  22.843  25.940  27.734 -0.3736  0.4020  0.1029
78907W        W79771  23.681  25.229   0.519  0.1219 -0.2048 -0.0919
78908W        W79772  25.108  24.973  27.786  0.3371  0.2222  0.0528
78909W        W79773  21.370  24.829  25.787 -0.0319  0.0566  0.0276
78910W        W79774  21.726  27.233  28.421 -0.2116 -0.1167 -0.0913
78911W        W79775  25.252  25.436  28.071  0.0682 -0.1234  0.2182
78912W        W79776  24.852  26.401  26.459 -0.0564  0.0130 -0.0510
78913W        W79777  24.442  26.471   0.410  0.0073 -0.3508  0.0676
78914W        W79778  24.198  24.698  25.061  0.1626  0.1067  0.0100
78915W        W79779  25.167   0.171  29.052 -0.1142 -0.1271  0.0582
78916W        W79780  25.318  26.857  28.639  0.1797  0.0730  0.1363
78917W        W79781  26.457  29.035  26.243  0.0200  0.1810 -0.0320
78918W        W79782  25.954  25.795  28.625 -0.1524  0.3926 -0.0211
78919W        W79783  25.645  24.947   0.551  0.0338 -0.1183  0.2059
78920W        W79784  23.196  25.912   0.448  0.3769  0.1862  0.2370
78921W        W79785  24.704   0.651  26.725 -0.3095  0.1419 -0.0551
78922W        W79786  23.889  27.052  26.002  0.1183 -0.0025 -0.2075
78923W        W79787  21.776  24.199  28.453 -0.1172 -0.0907 -0.2101
78924W        W79788  26.927  26.805  29.089  0.2734  0.2149 -0.2626
78925W        W79789  26.006  23.610  27.847 -0.0597 -0.1415  0.2880
78926W        W79790  20.187  27.196  28.873  0.0139 -0.1109  0.2192
78927W        W79791  23.198  27.549  25.684 -0.0798 -0.3467 -0.0844
78928W        W79792  24.475  24.628   0.923  0.4439 -0.0334 -0.0808
78929W        W79793  27.500  28.673  27.316 -0.0453 -0.1060 -0.0567
78930W        W79794  22.060  28.132   1.171  0.0114 -0.1165 -0.1081
78931W        W79795  22.249  25.295  26.192 -0.0974 -0.0254  0.3111
78932W        W79796  24.974  29.031  28.468 -0.1868 -0.4991 -0.2715
78933W        W79797  26.569  26.529   0.322 -0.3895 -0.1161  0.2887
78934W        W79798  24.971  26.457  28.818 -0.1113 -0.1641  0.1544
78935W        W79799  26.277  28.036  26.454  0.1112 -0.1131  0.0108
78936W        W79800  22.707   0.044  28.019  0.0298 -0.0357 -0.0504
78937W        W79801  27.490  25.347  26.634  0.1359  0.1427 -0.5152
78938W        W79802  22.985  24.596  26.781  0.2932 -0.2047  0.1270
78939W        W79803  23.584  29.072  26.676  0.1618  0.0198  0.1345
78940W        W79804  24.741  25.119  27.414 -0.2973  0.1459  0.0539
78941W        W79805  26.204  26.302   2.509  0.1904  0.2034 -0.2834
78942W        W79806  25.325  29.056  26.554  0.4385  0.0133 -0.1423
78943W        W79807  26.745  27.654  26.322  0.2049 -0.0548  0.0277
78944W        W79808  23.081  28.635  27.413  0.0460 -0.0288  0.2962
78945W        W79809  26.840  27.504   0.611 -0.3690  0.0226  0.2272
78946W        W79810  25.756  25.914  26.487 -0.2814 -0.0491  0.0491
78947W        W79811  25.299  26.668  28.098 -0.0756  0.1799 -0.1749
78948W        W79812  27.051  27.393  26.782 -0.0988 -0.3244 -0.1052
78949W        W79813  24.750  24.629  26.929 -0.0292 -0.0222 -0.1845
78950W        W79814  25.044  29.103  25.006 -0.2759  0.0635  0.1191
78951W        W79815  24.772  28.382  28.980  0.0677 -0.1556 -0.0881
78952W        W79816  24.237  23.468  27.373 -0.1856 -0.0020  0.1036
78953W        W79817  25.842  27.273  26.237  0.0661 -0.2983  0.0298
78954W        W79818  25.688  24.982  26.810 -0.0765  0.0414  0.3192
78955W        W79819  20.899  26.530  27.447  0.2018  0.0658 -0.0587
78956W        W79820  24.868  26.134   0.423  0.0549  0.1225  0.4282
78957W        W79821  24.375   0.450  28.969 -0.0063 -0.2030 -0.0756
78958W        W79822  23.943  26.277   0.074  0.1468 -0.0521 -0.0896
78959W        W79823  23.991  27.238  28.565 -0.3985  0.2832  0.1933
78960W        W79824  23.084  24.023  28.871 -0.1251  0.0154 -0.0246
78961W        W79825  25.303   2.045  25.559 -0.1907  0.1537 -0.0486
78962W        W79826  23.699  25.792  29.011  0.2911 -0.2809  0.1108
78963W        W79827  26.083  26.326   1.600 -0.2393  0.3622 -0.2245
78964W        W79828  21.908  27.141  27.951  0.1847  0.1251 -0.1137
78965W        W79829  25.176  25.829  28.471  0.0996  0.1995  0.0217
78966W        W79830  24.195  27.626   1.404  0.1174 -0.2628 -0.0219
78967W        W79831  24.090  27.434  26.249 -0.0949 -0.2245  0.1974
78968W        W79832  26.067   0.531   0.562 -0.0296 -0.0583  0.2869
78969W        W79833  24.759  26.831  25.825 -0.1217 -0.3272  0.1707
78970W        W79834  22.191  26.308  28.171 -0.1907 -0.1465 -0.2669
78971W        W79835  23.624  26.628  25.083 -0.0381  0.3773 -0.1146
78972W        W79836  25.925  26.835  27.106  0.0276 -0.1298  0.1262
78973W        W79837  22.609  26.419   1.008  0.0358 -0.1205 -0.1539
78974W        W79838  24.959  26.047  26.123  0.4368  0.0814  0.0939
78975W        W79839  24.467  25.060  27.941 -0.1033 -0.1857 -0.1903
78976W        W79840  23.582  27.317  27.415 -0.1755  0.1066  0.1684
78977W        W79841  23.254  26.270  27.813 -0.2489  0.1794 -0.0921
78978W        W79842  24.164  29.102   0.393 -0.1973  0.2134  0.0713
78979W        W79843  25.704  29.093  27.893  0.2405 -0.3115 -0.0617
78980W        W79844  24.570  23.367   0.482  0.0771 -0.3400 -0.0849
78981W        W79845  24.478  28.423   1.190 -0.2545  0.1690 -0.3673
78982W        W79846  23.772  26.520  27.262 -0.0817  0.0390  0.2248
78983W        W79847  24.457  25.903  26.175 -0.1150 -0.0122  0.3234
78984W        W79848  21.804  26.359   0.150 -0.0072 -0.2427 -0.0102
78985W        W79849  21.287  25.968  28.218 -0.0301  0.0903 -0.0636
78986W        W79850  24.352  26.849  26.130 -0.2412  0.2689  0.5613
78987W        W79851  22.668  22.245  26.324  0.1269  0.1038  0.3860
78988W        W79852  24.904  25.098  28.207  0.0454  0.1692  0.0043
78989W        W79853  24.193  26.578   1.554  0.1854  0.0691  0.0662
78990W        W79854  26.565  28.873  25.719  0.5421  0.0113 -0.0632
78991W        W79855  23.766  26.008  27.997  0.2378 -0.0224  0.0506
78992W        W79856  26.883  25.236   0.902  0.0428 -0.2222 -0.1277
78993W        W79857  22.698  23.825  26.590 -0.1244 -0.1740 -0.2969
78994W        W79858  22.037  26.563  25.060  0.0605 -0.2482 -0.1513
78995W        W79859  22.642  28.123  25.147 -0.0398 -0.1492 -0.2010
78996W        W79860  22.531  27.888  26.996  0.3245 -0.0851  0.2165
78997W        W79861  24.274  27.638  28.808 -0.0905 -0.1021 -0.0883
78998W        W79862  20.394  26.682  25.746  0.0892  0.0917 -0.1420
78999W        W79863  25.674  28.763  25.767 -0.0285  0.0237  0.3356
79000W        W79864  25.833  26.486  28.473  0.0265 -0.3615  0.0463
79001W        W79865  25.333  26.921  25.842 -0.0768  0.2554 -0.2996
79002W        W79866  25.437   1.211  25.314 -0.1455 -0.0057  0.1492
79003W        W79867  25.718  26.000  27.178 -0.1149 -0.1355 -0.0753
79004W        W79868  25.794  25.977  24.882  0.3769  0.1187 -0.2171
79005W        W79869  20.701  28.442   0.892  0.1290  0.1220 -0.0428
79006W        W79870  22.046   0.194  28.816  0.0933  0.0559  0.0848
79007W        W79871  21.039  29.035  26.499 -0.0911 -0.0343 -0.1843
79008W        W79872  24.156  26.614  26.877  0.1936 -0.1687 -0.0816
79009W        W79873  24.172  29.008  24.615  0.1437 -0.2020 -0.2712
79010W        W79874  26.755  28.103  23.856 -0.1096  0.0157 -0.0965
79011W        W79875  26.319  28.421  27.546 -0.1875 -0.2219  0.0836
79012W        W79876  23.311  26.253  25.475 -0.1157  0.1303 -0.0298
79013W        W79877  24.820  26.607  27.899 -0.0082 -0.1379  0.1492
79014W        W79878  25.444  28.634  27.823  0.2093  0.1828 -0.0967
79015W        W79879  25.710  25.030  25.780 -0.1307  0.1232 -0.0031
79016W        W79880  24.345  24.884  27.117  0.2689  0.2334 -0.0951
79017W        W79881  23.768  26.519  27.828 -0.3035 -0.1562 -0.0574
79018W        W79882  23.668  29.100  27.840 -0.0061  0.3844  0.3522
79019W        W79883  22.278  25.869  26.114 -0.0282  0.3608  0.1125
79020W        W79884  21.755  25.224  26.564  0.0718 -0.0822  0.2674
79021W        W79885  22.503  25.868  27.301 -0.1501  0.0787 -0.1156
79022W        W79886  23.578  26.318  28.745 -0.0934  0.0473 -0.0042
79023W        W79887  23.350  24.512  27.138 -0.0701 -0.1349 -0.0363
79024W        W79888  24.109  25.109  27.553  0.0941 -0.0266  0.0120
79025W        W79889  26.945  21.945  26.208  0.1510 -0.0015 -0.1082
79026W        W79890  24.655  27.337  26.346  0.0472 -0.0781  0.0145
79027W        W79891  21.214  28.141  26.956  0.1009  0.0016 -0.3911
79028W        W79892  22.868  25.383   1.374  0.1618 -0.2341  0.1743
79029W        W79893  22.495  26.256  25.199 -0.0418  0.2169  0.1694
79030W        W79894  24.936  27.769   2.859  0.1683  0.0404  0.0226
79031W        W79895  24.850  26.469  24.834 -0.0257 -0.0328 -0.1367
79032W        W79896  22.312  26.387  27.608  0.3007 -0.0782  0.2900
79033W        W79897  23.186  26.303   0.814 -0.3974 -0.2322  0.2726
79034W        W79898  21.074  28.992  26.007 -0.1678  0.0269 -0.0788
79035W        W79899  20.726  28.802  27.474 -0.2239 -0.1682  0.1726
79036W        W79900  24.544  26.294  28.648  0.1799  0.2059 -0.1290
79037W        W79901  27.292  28.181  24.372 -0.0700  0.0481  0.0990
79038W        W79902  25.801   0.284  25.272  0.1819 -0.3436 -0.0914
79039W        W79903  21.385  26.017   0.067 -0.0571  0.0974 -0.1417
79040W        W79904  20.760  28.701  28.535 -0.0740 -0.1068  0.3858
79041W        W79905  24.370  24.165  27.998 -0.0771 -0.0656 -0.3567
79042W        W79906  25.470  25.845  28.925 -0.1266 -0.1913 -0.0084
79043W        W79907  26.537  28.128  28.943  0.1464 -0.1630 -0.2069
79044W        W79908  26.369  24.478  24.002 -0.0139 -0.0354  0.0758
79045W        W79909  27.020  26.874  24.886  0.1950 -0.0543 -0.0466
79046W        W79910  27.556   0.151  25.205 -0.2109  0.2830  0.1369
79047W        W79911  23.484  26.116   2.146 -0.0752 -0.1002 -0.1060
79048W        W79912  21.835  26.936   2.506  0.2263 -0.3258 -0.0242
79049W        W79913  24.706  25.889  26.627 -0.0386  0.2759  0.0811
79050W        W79914  27.841  28.406  28.292 -0.1224  0.1116  0.3174
79051W        W79915  25.055   2.620  28.163  0.0686  0.0117 -0.0692
79052W        W79916  25.387  26.242  26.285  0.0423  0.1107 -0.0372
79053W        W79917  25.119  27.931  25.145 -0.0475 -0.1572 -0.0855
79054W        W79918  23.098  24.939  28.402  0.0930 -0.0408 -0.0906
79055W        W79919  24.601  28.852  28.888  0.0180  0.1800  0.0784
79056W        W79920  25.380  26.593   0.450  0.0363  0.1389 -0.0897
79057W        W79921  26.397  26.650  27.651  0.1525  0.0786 -0.1373
79058W        W79922  24.972  25.446  26.348  0.3338 -0.1373 -0.0138
79059W        W79923  24.214  26.556  27.820  0.1748  0.0430 -0.3294
79060W        W79924  23.594  27.992  26.764  0.1127  0.0284  0.1099
79061W        W79925  24.435   0.232  26.755 -0.2191 -0.1612  0.0888
79062W        W79926  23.689  26.762  21.597  0.1474  0.2485  0.0414
79063W        W79927  23.185  26.725  26.672  0.3084  0.1924 -0.2338
79064W        W79928  24.205   0.181  25.510 -0.1054 -0.0614  0.1771
79065W        W79929  25.264  25.098  27.113  0.1937 -0.1275 -0.4656
79066W        W79930  22.040  25.250  29.108 -0.0086 -0.1163 -0.0412
79067W        W79931  25.066  27.607  27.077  0.2988 -0.1726  0.1239
79068W        W79932  24.766  26.760  28.445 -0.1680  0.0685  0.2386
79069W        W79933  22.206   1.425  26.745 -0.1591 -0.0365 -0.1265
79070W        W79934  22.324  26.823   0.821 -0.1625 -0.0745  0.0521
79071W        W79935  27.190  28.405  26.393 -0.0490 -0.1684  0.1754
79072W        W79936  22.967  26.320  26.855 -0.1315 -0.1165 -0.0650
79073W        W79937  27.451  26.416  26.250  0.0658 -0.1326 -0.2424
79074W        W79938  26.641  28.486  28.309 -0.3334  0.1194 -0.0221
79075W        W79939  27.736  26.253   1.170 -0.2489  0.1589 -0.0372
79076W        W79940  21.721  28.473   2.463  0.0063 -0.2623 -0.0552
79077W        W79941  27.519   0.357  27.692  0.0742 -0.0672  0.1295
79078W        W79942  26.160  25.117  27.018  0.0093  0.0366 -0.0458
79079W        W79943  23.245  27.685  27.584 -0.0989  0.1811  0.1444
79080W        W79944  22.627   1.181  27.374  0.1131  0.0419  0.0833
79081W        W79945  23.657  28.350   0.754  0.1106  0.2446 -0.0380
79082W        W79946  21.232  27.891  27.483  0.0365  0.0532 -0.0832
79083W        W79947  22.671  28.649  23.823  0.0285 -0.1906 -0.2185
79084W        W79948  26.057  26.380  27.420 -0.1858  0.0296 -0.0725
79085W        W79949  24.106  24.916  26.127 -0.0185  0.0394 -0.0846
79086W        W79950  21.552  26.346  28.023  0.1678  0.2262 -0.3444
79087W        W79951  26.226   0.355  26.305 -0.0841 -0.0161 -0.3152
79088W        W79952  26.241  23.223  26.744 -0.0764 -0.2161  0.1405
79089W        W79953  23.580  22.146  27.028  0.1949 -0.0828  0.2530
79090W        W79954  22.546  26.497   0.531  0.0229 -0.2736 -0.2418
79091W        W79955  26.250  27.717  28.542  0.1168 -0.0972  0.0005
79092W        W79956  22.725  27.141  28.223  0.0277 -0.0317  0.1669
79093W        W79957  23.965  28.820  26.373  0.0269  0.2628  0.1690
79094W        W79958  24.660  25.651   0.177 -0.7675 -0.2336 -0.1021
79095W        W79959  25.777   1.933  25.526  0.0379 -0.0508 -0.0085
79096W        W79960  25.229  26.216   0.025  0.1926  0.0054 -0.1403
79097W        W79961  20.534  26.839  28.888 -0.2482 -0.0612  0.0729
79098W        W79962  24.390  25.202  25.646 -0.2684 -0.1415  0.0726
79099W        W79963  27.621  26.102  27.481 -0.1676 -0.2372  0.0526
79100W        W79964  23.962  25.254  28.131 -0.0591  0.2306 -0.0663
79101W        W79965  26.694  27.009   1.149  0.2300 -0.1429  0.0843
79102W        W79966  23.400  27.568  27.027 -0.0546  0.0441 -0.0158
79103W        W79967  25.675  28.558  26.876 -0.0689 -0.0671 -0.1050
79104W        W79968  27.019  26.530   0.623 -0.2710 -0.0716 -0.4222
79105W        W79969  21.589  24.022  27.251  0.3635 -0.2129  0.0859
79106W        W79970  22.839  27.026  27.015 -0.1660  0.1284  0.0565
79107W        W79971  24.380  27.601  24.900 -0.2586 -0.1692 -0.0900
79108W        W79972  24.188   0.131  27.809 -0.1076  0.1823 -0.0193
79109W        W79973  21.820  26.098  28.447 -0.0084  0.0157  0.2337
79110W        W79974  26.222  26.157  26.445  0.0783  0.0284  0.4358
79111W        W79975  26.685  28.379  26.557 -0.4055 -0.0830  0.0283
79112W        W79976  23.553   0.369  28.575 -0.1907 -0.1454 -0.2625
79113W        W79977  26.859  26.922  26.538 -0.1591  0.1033  0.0632
79114W        W79978  24.051  23.763   1.234  0.0366  0.2414  0.1714
79115W        W79979  23.305  27.619  26.525  0.2020 -0.0387  0.1170
79116W        W79980  22.409  27.939  28.326 -0.1939 -0.3001 -0.1124
79117W        W79981  25.622  27.646  25.337  0.0292 -0.1891 -0.2397
79118W        W79982  27.162  27.040  28.012 -0.0516  0.4150  0.0139
79119W        W79983  26.899  26.355  26.270  0.0679 -0.0414  0.1899
79120W        W79984  26.489  22.753  25.757  0.1010 -0.2112  0.0166
79121W        W79985  25.655  22.081  28.482  0.0232 -0.0937 -0.2471
79122W        W79986  22.656  27.140  24.686 -0.0086  0.0044  0.0128
79123W        W79987  23.121  27.383  28.075  0.1409  0.1821 -0.0588
79124W        W79988  24.018  28.385  27.763 -0.0903 -0.1858 -0.1930
79125W        W79989  22.492  28.218  27.406  0.1178 -0.0822 -0.0844
79126W        W79990  27.148   0.054   1.084 -0.2196  0.0351 -0.0408
79127W        W79991  25.900  23.280   1.047 -0.0234 -0.1922  0.0485
79128W        W79992  23.368   0.914  28.356  0.1818  0.0929  0.1168
79129W        W79993  24.144  28.757  23.952  0.1426 -0.1050 -0.0823
79130W        W79994  20.791  27.870   0.115 -0.4153 -0.1030  0.0058
79131W        W79995  22.299  27.781   0.885  0.1667 -0.0693  0.0444
79132W        W79996  26.708  27.934  24.431 -0.2836 -0.0774  0.0950
79133W        W79997  23.790  26.275  26.615 -0.1953 -0.2165  0.1048
79134W        W79998  27.509   1.501  27.224 -0.2812 -0.1038 -0.0956
79135W        W79999  23.495  27.685  28.272  0.1808  0.3849 -0.2494
79136W        W80000  24.598  26.078  25.110  0.3892  0.1193  0.0950
79137W        W80001  25.409  25.736  26.183 -0.0239  0.0110 -0.0946
79138W        W80002  24.065  29.067  26.807 -0.0550 -0.2640  0.2238
79139W        W80003  23.361  25.030  27.309 -0.1034  0.1418 -0.0810
79140W        W80004  23.217  28.098   1.075  0.0532 -0.1448  0.1636
79141W        W80005  23.557  24.802  26.317 -0.0145 -0.0784 -0.1137
79142W        W80006  25.658  25.085  27.977  0.0998  0.1667  0.2534
79143W        W80007  22.385  27.311  27.132  0.1552 -0.0058 -0.2236
79144W        W80008  24.889  28.062  25.955 -0.1716 -0.0076  0.0700
79145W        W80009  26.395  25.977  27.206 -0.0639 -0.3066 -0.1292
79146W        W80010  24.126  23.927  27.644  0.2782 -0.3842  0.0871
79147W        W80011  23.161  27.995  28.060  0.2087 -0.0536 -0.0972
79148W        W80012  24.962  26.905  26.299 -0.0390  0.1372 -0.0015
79149W        W80013  22.982  28.841  28.301  0.0516  0.3984  0.0590
79150W        W80014  25.665  28.849  25.053 -0.0994 -0.0634  0.1349
79151W        W80015  23.289  28.437  28.402 -0.0094  0.1718  0.1737
79152W        W80016  23.952   0.241  26.479  0.1422  0.1257  0.3207
79153W        W80017  22.924  27.256  26.567 -0.1683  0.3513 -0.0027
79154W        W80018  21.535   0.273   1.947  0.0808  0.0644  0.3376
79155W        W80019  24.510  25.176   0.069 -0.3774  0.0743  0.2968
79156W        W80020  20.329   0.384  27.139  0.2153  0.0222  0.2789
79157W        W80021  24.054  26.145  27.082  0.0410  0.0416  0.0799
79158W        W80022  23.781   0.652  25.104 -0.1525  0.0145 -0.1781
79159W        W80023  24.565  22.618  29.078  0.0555  0.3864  0.0034
79160W        W80024  25.221  23.346  28.759  0.4638 -0.1096 -0.0736
79161W        W80025  25.828  25.929   0.743 -0.1451 -0.0915  0.4434
79162W        W80026  25.550  28.850   1.616 -0.3549  0.1577 -0.0096
79163W        W80027  24.312  27.149   1.061 -0.0059 -0.1813 -0.0118
79164W        W80028  25.315  27.970   1.419  0.0781  0.3789  0.0711
79165W        W80029  24.143  28.803  28.101  0.1446  0.0844  0.3848
79166W        W80030  27.556  27.120  23.748  0.0009  0.0043 -0.1285
79167W        W80031  23.472  26.858  27.488  0.0360 -0.0589  0.1137
79168W        W80032  26.000  23.552  26.964 -0.3062  0.3117 -0.0360
79169W        W80033  24.827   0.776  28.085  0.1005  0.1173  0.3451
79170W        W80034  24.096  26.023  28.785  0.0395 -0.4045  0.4516
79171W        W80035  23.573  25.000   1.679  0.2388 -0.0047  0.2017
79172W        W80036  25.389   0.734  27.095 -0.2525  0.1488 -0.1045
79173W        W80037  25.012  26.095  27.044 -0.1184  0.0416  0.0960
79174W        W80038  24.292  26.576  27.345 -0.0087 -0.0963  0.0162
79175W        W80039  20.853  28.047  27.797  0.1967  0.0170  0.2653
79176W        W80040  23.302  25.811  28.708 -0.1303 -0.2229 -0.0886
79177W        W80041  25.939  27.745  26.640 -0.0398 -0.1623 -0.1419
79178W        W80042  24.260  28.205  24.870  0.2964  0.1318 -0.1025
79179W        W80043  24.429  26.302  28.174  0.2286  0.3363 -0.0457
79180W        W80044  27.185  27.329  25.061  0.2011 -0.0942 -0.0846
79181W        W80045  27.060  27.039   1.523 -0.0217  0.0129 -0.1243
79182W        W80046  24.467  28.318  26.668  0.1543  0.0655  0.2157
79183W        W80047  25.627  28.170  23.392  0.0448 -0.2410  0.3973
79184W        W80048  26.535  25.383  26.624  0.2644  0.1414 -0.1526
79185W        W80049  20.738  27.201  28.152 -0.0733 -0.1449 -0.0778
79186W        W80050  22.744  24.679   1.647  0.2511 -0.1482 -0.2819
79187W        W80051  20.588  26.335   0.881 -0.1504 -0.0263 -0.1105
79188W        W80052  21.230  26.810  26.737  0.0067 -0.3118 -0.1599
79189W        W80053  26.155  28.469  26.700  0.0919 -0.0643  0.0426
79190W        W80054  22.370  27.861   1.630 -0.1214  0.2245 -0.1557
79191W        W80055  23.932  28.642  24.889  0.2797  0.2468 -0.1044
79192W        W80056  22.882  24.831   0.439 -0.0671 -0.0233 -0.1862
79193W        W80057  24.822  27.675  25.533 -0.3693  0.3402 -0.0145
79194W        W80058  28.851   0.114  27.408  0.0814 -0.0440 -0.2324
79195W        W80059  27.367  27.545   0.566  0.0277  0.3023 -0.0562
79196W        W80060  25.900  24.529  27.318  0.0521 -0.1640 -0.1442
79197W        W80061  25.528  25.430  28.664 -0.2006 -0.0971 -0.2435
79198W        W80062  25.337  25.392  26.641  0.2129 -0.0226  0.0851
79199W        W80063  22.786  28.442  27.058  0.0417 -0.0181  0.0087
79200W        W80064  26.691  27.047  28.217  0.2527  0.4025 -0.0902
79201W        W80065  24.173  28.617  26.994  0.2627 -0.1425 -0.2462
79202W        W80066  27.892  26.661  27.830  0.0504 -0.0049  0.0392
79203W        W80067  28.669   1.324  27.150 -0.0853  0.0500  0.2343
79204W        W80068  25.688  26.069   0.258 -0.0457 -0.0338 -0.1753
79205W        W80069  24.541  25.472  28.196  0.1503  0.1233  0.0215
79206W        W80070  28.061   0.509  26.961 -0.1828  0.4096  0.0575
79207W        W80071  23.951  22.410   0.927 -0.1225 -0.1671 -0.1475
79208W        W80072  21.520  27.753  27.121  0.0415 -0.1102  0.1385
79209W        W80073  25.114  25.439  29.083 -0.2709 -0.0913  0.0707
79210W        W80074  23.953  27.583  25.689  0.1353  0.0158  0.3946
79211W        W80075  21.818  25.399  27.950 -0.1833 -0.0445  0.1307
79212W        W80076  26.709  28.585  28.878  0.3274  0.1807  0.0662
79213W        W80077  23.481  28.175  27.677  0.0853  0.2016  0.1490
79214W        W80078  22.035  25.084   1.041 -0.1162  0.2228 -0.0318
79215W        W80079  24.873  26.603  27.330  0.0620 -0.1260  0.0179
79216W        W80080  25.564  27.076  27.742  0.1543 -0.0962  0.0390
79217W        W80081  24.419   1.754  25.900 -0.2168  0.2063 -0.1996
79218W        W80082  27.603  27.092  27.628  0.0769 -0.2840  0.1545
79219W        W80083  23.707  28.383   1.285  0.1904  0.0454 -0.1550
79220W        W80084  22.914  27.492  27.068  0.2423  0.1825 -0.0866
79221W        W80085  26.075  28.845  27.145 -0.2511 -0.1300 -0.0848
79222W        W80086  25.608   0.972  28.772  0.2262 -0.0879 -0.0964
79223W        W80087  23.578  29.092  26.129  0.1238  0.0582  0.0561
79224W        W80088  23.778  27.498  26.692 -0.1777  0.1077 -0.1172
79225W        W80089  25.394  28.641  26.256 -0.1119 -0.0357  0.1042
79226W        W80090  23.150  29.097  27.716  0.0144  0.2968 -0.0031
79227W        W80091  24.291  28.469  25.406 -0.1500  0.0271 -0.1788
79228W        W80092  20.490  28.423  27.799  0.3981  0.0283 -0.2216
79229W        W80093  23.639   4.678   5.175  0.1870  0.0589 -0.0327
79230W        W80094  23.545   2.484   4.550  0.1337 -0.0747  0.1565
79231W        W80095   3.952   3.102   1.247  0.0749  0.0321  0.0904
79232W        W80096   1.436   3.718   4.575 -0.0851 -0.0513  0.1080
79233W        W80097  27.507   4.604  28.600 -0.2088  0.0500  0.1064
79234W        W80098  25.788   1.540   2.233 -0.1767  0.1073  0.0974
79235W        W80099  27.723   0.990   0.166  0.0119 -0.0059  0.2467
79236W        W80100  28.342   3.667   1.419  0.0134 -0.0642 -0.0063
79237W        W80101  25.632   4.533   4.337 -0.1242 -0.0259  0.1421
79238W        W80102  25.581   0.136   1.236  0.2875  0.1322  0.3927
79239W        W80103  26.084   1.561   1.476 -0.3069 -0.0249  0.0083
79240W        W80104  25.341  28.642   3.094  0.0576  0.1537  0.0869
79241W        W80105  27.943   2.534   0.966  0.0413  0.0369  0.0947
79242W        W80106  28.424   0.275   1.236  0.4167  0.0664 -0.1809
79243W        W80107  24.731  29.103   2.946 -0.0164  0.0970 -0.2628
79244W        W80108  24.543   5.879   4.185 -0.2536 -0.0133  0.0568
79245W        W80109  26.630   0.889   1.023  0.1473  0.1073 -0.2728
79246W        W80110  25.236   4.615   0.200 -0.0317  0.1556 -0.3215
79247W        W80111  29.143   1.658   3.184 -0.0976 -0.0518  0.0249
79248W        W80112   0.035   0.110   2.302 -0.2172  0.1998 -0.4084
79249W        W80113  28.940   4.193   0.778 -0.3244  0.0162 -0.1397
79250W        W80114  23.930   0.355   0.627  0.0448 -0.0806  0.1040
79251W        W80115  27.673   3.387   0.648 -0.1589  0.0740  0.2324
79252W        W80116  27.131  29.138   1.587  0.0282 -0.0689  0.0635
79253W        W80117  25.074   2.314   1.278  0.1269  0.1501 -0.0760
79254W        W80118  25.514   0.734   3.264  0.1881  0.0303  0.2269
79255W        W80119  27.400   0.485   1.848 -0.2697 -0.0076  0.1814
79256W        W80120  26.932   2.984   0.475 -0.3843  0.0306  0.2485
79257W        W80121   0.581   2.916   2.955 -0.1426  0.2184  0.0361
79258W        W80122  24.921   0.121   2.435  0.1583 -0.1304 -0.1394
79259W        W80123  27.708   2.590   2.708  0.0318  0.0741 -0.0814
79260W        W80124  28.922   5.840   4.465 -0.0517  0.1212  0.3184
79261W        W80125  27.082   2.968   2.347 -0.2871  0.0761  0.0112
79262W        W80126  28.180   2.781   2.506  0.0860 -0.1175 -0.1223
79263W        W80127  23.878   0.390   2.663  0.0274  0.2181  0.1795
79264W        W80128  28.721   2.929   3.630 -0.3132 -0.1147  0.0877
79265W        W80129  27.658   2.204   2.231 -0.0085 -0.0066 -0.1110
79266W        W80130   1.072   4.594   4.674  0.0333  0.0468 -0.3829
79267W        W80131   1.219   1.535   2.039  0.0193 -0.1067  0.2929
79268W        W80132  28.189   0.707   3.594  0.0398  0.2359 -0.2322
79269W        W80133   1.362  28.767   0.072  0.2759 -0.1518  0.3656
79270W        W80134  28.811   1.484   2.332 -0.1572  0.0301 -0.3373
79271W        W80135  27.021   3.557   1.072 -0.2461 -0.2127  0.1429
79272W        W80136   0.816   4.496   0.882  0.1050  0.4329  0.1638
79273W        W80137  25.666   3.777   1.759  0.1096 -0.1878 -0.0474
79274W        W80138  26.412   4.523   0.913  0.1009  0.2665 -0.0276
79275W        W80139  22.810  27.868   1.948  0.2057  0.2592  0.1211
79276W        W80140  27.876   0.627   1.570 -0.0682 -0.0151  0.2055
79277W        W80141  25.786   2.637   0.891  0.0114  0.1243 -0.4741
79278W        W80142  28.747   1.742   1.938 -0.1391  0.2464  0.2341
79279W        W80143  26.651   2.611   2.799  0.3013 -0.2289  0.0847
79280W        W80144  27.512   1.851   1.752 -0.3383  0.0124 -0.1059
79281W        W80145  26.928   2.514   0.979  0.1836  0.2619  0.0114
79282W        W80146  28.586   0.974   2.811  0.1116 -0.4081  0.0652
79283W        W80147  24.915  28.337   1.419  0.2446  0.0129 -0.1064
79284W        W80148   0.518   2.406   2.688  0.0946 -0.2275 -0.0993
79285W        W80149  24.597   0.056   1.568 -0.0394 -0.2473 -0.1067
79286W        W80150  28.044   0.457   0.875 -0.0630 -0.1126  0.0660
79287W        W80151  24.422   2.245   2.743 -0.0743 -0.0197 -0.0491
79288W        W80152   0.238   1.750   3.812 -0.1586  0.6107 -0.1350
79289W        W80153  28.110  28.773   1.170 -0.0034 -0.0173  0.0675
79290W        W80154  25.236   3.413   4.865  0.0512 -0.0954 -0.1607
79291W        W80155  25.492   1.648   5.504 -0.5334  0.1214  0.0965
79292W        W80156  27.779   4.435   1.817  0.0143  0.0605 -0.0487
79293W        W80157  25.745   0.255   0.039 -0.0954 -0.2969 -0.3371
79294W        W80158  27.578   2.052   3.746  0.3190 -0.0637  0.0385
79295W        W80159  25.807   1.785  28.566 -0.0649  0.1291  0.1444
79296W        W80160  25.383   1.518  28.686 -0.1877 -0.1442 -0.1229
79297W        W80161  24.233   1.425   1.828  0.3476 -0.0600  0.0736
79298W        W80162  26.852   3.866  28.738 -0.1581 -0.0547 -0.3590
79299W        W80163   2.139   4.896   2.650 -0.2402  0.1844 -0.0299
79300W        W80164  27.913   2.158   3.430  0.0164 -0.2928 -0.2698
79301W        W80165   0.273   4.358   0.907 -0.0767 -0.0321 -0.0895
79302W        W80166  27.461   1.149   2.337  0.0313 -0.2775 -0.0520
79303W        W80167  28.576   2.481  29.008  0.1699 -0.2067 -0.1952
79304W        W80168  28.587   2.326   1.105  0.1345  0.2375 -0.0202
79305W        W80169  25.800   1.327   1.144 -0.1468 -0.2393 -0.2141
79306W        W80170  25.672   3.622   3.685 -0.0114  0.0143 -0.1222
79307W        W80171  27.300   1.229   1.905  0.0492 -0.3710  0.1391
79308W        W80172  26.410   3.620   2.050  0.0351  0.0607  0.0777
79309W        W80173  27.158   2.380   3.700  0.1204  0.0472  0.1567
79310W        W80174  28.070   2.267   2.929 -0.1823 -0.0905 -0.1830
79311W        W80175  23.956  27.677   2.586 -0.1469 -0.0572 -0.0157
79312W        W80176   0.137   1.583   0.997  0.0535 -0.0272 -0.0485
79313W        W80177  27.184  29.120   3.263  0.2354  0.0425  0.2764
79314W        W80178  28.144  28.432   1.673  0.0391  0.2558  0.0792
79315W        W80179   0.707   2.352   3.341 -0.1663  0.2433  0.2860
79316W        W80180  26.649   1.743   2.156 -0.0494 -0.1202 -0.2046
79317W        W80181   1.099   2.534   2.934  0.0904  0.0485 -0.3830
79318W        W80182  28.825   0.454   2.565  0.3557  0.0283 -0.0801
79319W        W80183  27.082   0.975   3.983  0.0050 -0.0180  0.2721
79320W        W80184   0.576   1.547   2.858  0.3131 -0.3955 -0.1316
79321W        W80185  25.978   3.771   3.261  0.0128  0.0134  0.1266
79322W        W80186  27.263   0.647   2.296 -0.1768 -0.1155  0.1795
79323W        W80187  26.676   0.326   5.360  0.0088  0.1539  0.1175
79324W        W80188  28.435   0.668  28.676  0.0232 -0.3261  0.0342
79325W        W80189  28.793   0.996   1.082  0.0486 -0.0680  0.2323
79326W        W80190  27.829   5.711   3.384  0.1659  0.0635  0.0283
79327W        W80191  25.413   0.900   2.207 -0.1963 -0.0769 -0.0981
79328W        W80192   0.458  28.562   0.569 -0.0024 -0.0295  0.0606
79329W        W80193   1.059   2.964   2.759  0.3562  0.2155 -0.3559
79330W        W80194  24.572   2.449   2.145  0.0700 -0.1556  0.1331
79331W        W80195  28.793   1.804   0.422  0.1080 -0.0690  0.0991
79332W        W80196  26.331   3.973   1.012 -0.2497  0.1797 -0.2045
79333W        W80197  27.829  28.965   2.191  0.3481 -0.3095  0.1102
79334W        W80198  26.802   1.070   3.157  0.2936  0.2449  0.3356
79335W        W80199   0.575   2.827   3.461  0.0027  0.0070 -0.0671
79336W        W80200  26.661   1.148   3.662 -0.0240 -0.1892  0.0834
79337W        W80201  27.038   0.344   0.715  0.1186  0.1955  0.3102
79338W        W80202  28.230  27.678   0.324  0.1472  0.2628  0.2934
79339W        W80203  24.201   2.361   1.305 -0.0962  0.1390 -0.0486
79340W        W80204  29.011   1.994   4.352  0.0140  0.0097  0.1653
79341W        W80205  28.164   0.977   1.770  0.2168 -0.0366  0.0449
79342W        W80206  28.502   7.042   4.868 -0.0997  0.2154 -0.2829
79343W        W80207   0.849   3.316   2.048 -0.1595  0.2096 -0.0425
79344W        W80208  26.473   1.746   1.045 -0.2046  0.2865 -0.0021
79345W        W80209  28.224   1.242   3.096  0.0174 -0.1117 -0.1751
79346W        W80210  26.414   0.910   2.704  0.2700  0.1099 -0.2401
79347W        W80211  26.577   0.479   0.635  0.3839 -0.1286 -0.4124
79348W        W80212   0.227   2.486   0.867 -0.1914 -0.0393 -0.2060
79349W        W80213  27.624  28.904   1.350  0.0415 -0.0590  0.0402
79350W        W80214  28.808   2.849  28.733  0.0499  0.3737 -0.1001
79351W        W80215   0.947   2.049   2.061 -0.0787 -0.0507  0.1892
79352W        W80216  28.751   2.115   1.522  0.1324 -0.1301  0.2671
79353W        W80217  27.748   1.954   0.112 -0.0090 -0.0314 -0.3400
79354W        W80218  29.016   3.097   2.360 -0.0504  0.0243  0.1016
79355W        W80219  26.805  29.080   0.596  0.2094  0.0250 -0.1702
79356W        W80220  27.918   2.591   2.130 -0.0724 -0.1311  0.1735
79357W        W80221  27.835   4.721   1.307  0.1004  0.0928  0.0076
79358W        W80222  25.142   2.891   2.406 -0.0520 -0.0265  0.0024
79359W        W80223  28.521   4.825   3.377  0.0813 -0.1395 -0.0957
79360W        W80224   0.194  27.580   2.748  0.2869  0.1187 -0.0344
79361W        W80225  26.106   2.885   3.989 -0.2479  0.0252 -0.2426
79362W        W80226  28.742   0.403  29.093 -0.0967  0.1245  0.1094
79363W        W80227  28.403   4.236   4.630  0.0540 -0.0847 -0.1957
79364W        W80228  24.015   2.522   2.838  0.2047 -0.1196 -0.0555
79365W        W80229  28.341  28.982   2.711  0.0087 -0.0063 -0.1294
79366W        W80230   0.085  28.044   2.891  0.2527  0.1075  0.0168
79367W        W80231   0.471   2.563   4.023  0.1156  0.3464 -0.1161
79368W        W80232  25.795   4.120   2.390  0.1391 -0.1484 -0.0543
79369W        W80233  27.613   1.269   0.557  0.0300  0.0770  0.2411
79370W        W80234  26.982   0.719   3.540 -0.1603 -0.1598 -0.5534
79371W        W80235  26.440   1.581  27.950 -0.0955  0.1864  0.0200
79372W        W80236  26.604   0.762  27.633  0.1079  0.2614 -0.1476
79373W        W80237  28.452   4.314   2.620  0.2696 -0.0395 -0.1136
79374W        W80238  25.930   0.880   3.053  0.3021  0.1787 -0.1229
79375W        W80239  27.732  28.328   1.336  0.0851 -0.3618  0.1009
79376W        W80240  28.165   4.348   0.691 -0.1902  0.4599  0.1372
79377W        W80241  29.063   3.511   1.976  0.1675  0.0373 -0.3412
79378W        W80242  27.285   5.099   2.984 -0.0142 -0.2389 -0.1503
79379W        W80243   3.658   5.795   4.284  0.1926  0.1335  0.2897
79380W        W80244  25.575  28.729   2.569  0.3268  0.3245 -0.0224
79381W        W80245  27.446   4.157   1.445  0.0528  0.0604  0.2578
79382W        W80246  24.632   1.977   2.380  0.0669  0.1999  0.0549
79383W        W80247  27.797   0.758   4.472 -0.0690 -0.0830  0.2279
79384W        W80248  26.523   1.969   2.982  0.2867 -0.0283  0.1765
79385W        W80249  26.133   1.394   0.785 -0.1036  0.1580 -0.2334
79386W        W80250  26.733   3.576   1.682  0.0347  0.0683 -0.0415
79387W        W80251  27.819   1.752   0.530 -0.3234 -0.1861 -0.1571
79388W        W80252  27.800   1.394   1.741 -0.1070 -0.2166 -0.1442
79389W        W80253  28.293  27.999   2.902 -0.6830 -0.0937 -0.1605
79390W        W80254  26.306   2.621   3.512  0.2025 -0.0617 -0.0705
79391W        W80255  27.977   1.298   2.183  0.0313 -0.0346 -0.0667
79392W        W80256   1.817   2.389   2.163  0.1559 -0.1010 -0.0006
79393W        W80257  26.736   0.143   4.359 -0.1167  0.0219 -0.2467
79394W        W80258  25.588   1.515   1.686 -0.3805 -0.2664 -0.0807
79395W        W80259  27.811   0.080  28.569  0.3106  0.2103  0.2501
79396W        W80260  28.674   4.322   1.911 -0.1141  0.2534  0.1876
79397W        W80261   1.345   0.775   3.747 -0.0341 -0.0586  0.0886
79398W        W80262  27.134   3.463   0.600 -0.0253  0.3049  0.0505
79399W        W80263   3.252   1.679   1.931  0.1459 -0.2640  0.1466
79400W        W80264  27.981   1.727   2.460 -0.0045  0.1441  0.1906
79401W        W80265  27.322   1.893   1.277 -0.2219  0.0142 -0.2743
79402W        W80266  28.890   2.609   3.280  0.0232  0.1405 -0.3143
79403W        W80267  28.295   1.726   0.240  0.1560  0.1580 -0.0800
79404W        W80268   1.791   3.822   1.380  0.1646 -0.3201 -0.0855
79405W        W80269  28.748   1.535   0.896  0.2166  0.0507 -0.0928
79406W        W80270  24.845   2.748   1.089  0.0188  0.0633  0.1029
79407W        W80271  26.918   2.046   1.109 -0.1035 -0.0496 -0.0229
79408W        W80272  27.264  28.130   1.231  0.2940 -0.1271 -0.1247
79409W        W80273  26.041   2.670   0.485  0.2607 -0.0041  0.0103
79410W        W80274   0.888   3.793  29.086  0.0282  0.1797  0.2242
79411W        W80275  25.723   2.246   2.047 -0.2782 -0.3021 -0.0001
79412W        W80276  26.176   0.970   1.068  0.1974 -0.0884  0.2094
79413W        W80277  27.063  28.991  27.619 -0.0943  0.0578  0.3088
79414W        W80278  27.429   1.063   3.607 -0.0142  0.0514 -0.0678
79415W        W80279   0.487  28.018   0.150 -0.0909  0.2157 -0.2202
79416W        W80280  25.531  28.955  29.030 -0.0858  0.1320 -0.1189
79417W        W80281  27.731   3.448   2.171 -0.1276 -0.0828  0.0271
79418W        W80282  26.297   3.582   2.525 -0.0725 -0.0834 -0.0898
79419W        W80283  25.083   1.519   1.613  0.3286  0.0115 -0.0074
79420W        W80284  25.188   4.159   3.098 -0.1107  0.0690  0.0348
79421W        W80285  27.097   2.114   3.011  0.1271  0.1888  0.1264
79422W        W80286  29.079   0.460   4.060  0.1054 -0.2459 -0.2850
79423W        W80287  27.542  28.188   3.326  0.1051  0.1857  0.0308
79424W        W80288  24.531  28.914   2.542  0.1982 -0.1712 -0.1120
79425W        W80289  27.978  26.983  28.935  0.0503 -0.1597  0.0100
79426W        W80290  22.926  28.575   4.797 -0.0841  0.0564  0.1243
79427W        W80291  25.621   0.469  28.712  0.3309  0.0095 -0.0286
79428W        W80292  25.213   2.509   1.838  0.0748  0.0638 -0.1140
79429W        W80293   0.109  28.942   0.894 -0.1023 -0.0041  0.1197
79430W        W80294  29.016   1.018   1.774 -0.1882  0.0600  0.1313
79431W        W80295  27.812   0.766   2.486 -0.0362  0.0495  0.1923
79432W        W80296  23.334  29.037   1.432 -0.1281 -0.2484 -0.1664
79433W        W80297  26.352   1.005   3.356  0.0590  0.1280  0.0952
79434W        W80298  27.244   2.152  28.829 -0.1278 -0.0696  0.3309
79435W        W80299  26.550   2.718   2.238  0.1458 -0.1993 -0.0848
79436W        W80300  27.084   0.330   4.079 -0.2362  0.0951  0.0821
79437W        W80301   0.736   4.218   1.278  0.2075  0.0595 -0.1311
79438W        W80302  25.824   4.169   1.015  0.0529  0.0496 -0.2658
79439W        W80303  27.346   2.359   5.044 -0.0061  0.0353  0.4102
79440W        W80304   0.045   1.934   4.850  0.1376  0.0032 -0.0839
79441W        W80305  27.230   3.297   2.048  0.2260  0.2405 -0.0777
79442W        W80306  28.141   0.553   5.467  0.0145 -0.2711 -0.0655
79443W        W80307   0.695   2.246   0.825 -0.4555  0.4352  0.1456
79444W        W80308   0.729   1.373   2.078  0.2401 -0.0140  0.0469
79445W        W80309   0.852   2.030   2.949 -0.0449  0.1089 -0.1043
79446W        W80310  27.965   3.141  28.757  0.2191 -0.2631 -0.0379
79447W        W80311  26.804   2.513   5.176 -0.0384 -0.1081 -0.2508
79448W        W80312  26.402   1.436   3.047  0.1808 -0.0242  0.2536
79449W        W80313   1.769   1.543   4.150 -0.2619  0.1761 -0.0052
79450W        W80314  28.877   2.838   2.841 -0.0738 -0.2906  0.0892
79451W        W80315  27.703   1.989   4.980 -0.2775 -0.0008  0.0446
79452W        W80316  28.586  28.807  28.676  0.2805  0.2084 -0.2304
79453W        W80317  28.937   4.395   2.871 -0.2790  0.1987  0.2783
79454W        W80318  25.494   1.097   1.457  0.0241  0.1068  0.0047
79455W        W80319  23.681   3.959   2.984  0.2984  0.2856  0.1301
79456W        W80320   2.997  28.752   2.802 -0.1569 -0.0751 -0.0247
79457W        W80321   2.107   6.011   0.540 -0.0233 -0.1804 -0.0113
79458W        W80322  28.236   1.193  29.015 -0.2398  0.1438  0.1088
79459W        W80323  27.858   1.750   4.460 -0.0830  0.0406  0.0625
79460W        W80324  25.012   0.658   3.501 -0.1881  0.1858 -0.1403
79461W        W80325  28.407   2.658   0.651 -0.1183 -0.1129  0.1091
79462W        W80326  27.968   0.503   4.025 -0.1209  0.2468 -0.0349
79463W        W80327  24.843   2.821   1.976  0.3587 -0.1330  0.0560
79464W        W80328  25.000   3.280   1.242  0.1097 -0.3242  0.1190
79465W        W80329   2.783   0.131   2.526 -0.0906  0.1734  0.1591
79466W        W80330  28.002   1.876   3.958 -0.1246 -0.2540 -0.2041
79467W        W80331   2.160   3.853   5.166  0.1824  0.0481  0.0242
79468W        W80332   0.502   5.715   1.394 -0.1514 -0.0116 -0.1990
79469W        W80333   0.469   1.668   1.481 -0.0679  0.0505  0.1121
79470W        W80334  26.546   1.547   6.504  0.0163  0.0352 -0.1059
79471W        W80335  26.203   2.425   3.057 -0.1897 -0.0270  0.1427
79472W        W80336  28.003   2.641   1.666 -0.1187 -0.0374 -0.1602
79473W        W80337   0.424  28.825   0.039  0.0518  0.0362  0.0122
79474W        W80338  26.706   3.247   2.103  0.0930  0.0995 -0.1068
79475W        W80339  28.546   2.730   1.746 -0.1227 -0.2562 -0.1345
79476W        W80340  25.558   5.375   4.959  0.1034  0.1032  0.0651
79477W        W80341  27.951   7.110  28.447  0.1050  0.1534  0.1349
79478W        W80342  24.664   1.326   0.267 -0.0709  0.0295  0.0481
79479W        W80343  24.993   3.809   1.389 -0.2041 -0.2452 -0.1771
79480W        W80344  27.566   7.159   3.038  0.0705  0.3818 -0.0046
79481W        W80345  28.208   4.183   7.582  0.1086  0.0802  0.3022
79482W        W80346   0.396   0.198   3.956 -0.1473  0.0650  0.0874
79483W        W80347  28.420   2.021   0.714 -0.2232 -0.0441 -0.1813
79484W        W80348   1.380   3.469   1.292  0.1686 -0.1419 -0.1709
79485W        W80349   1.349   1.198  28.874 -0.1465 -0.0590 -0.4160
79486W        W80350  26.275  27.986   4.176  0.0434  0.1697  0.2373
79487W        W80351  28.787   3.751  28.982  0.0485  0.0881 -0.5087
79488W        W80352   0.056   1.482   1.851 -0.2350 -0.1943  0.0370
79489W        W80353  27.020   0.824   1.829 -0.0668 -0.0866 -0.1133
79490W        W80354  27.208   2.493   2.274 -0.2174 -0.0795  0.2343
79491W        W80355  28.693   1.412   3.087 -0.0149  0.3727 -0.0131
79492W        W80356  27.047   2.895   4.571  0.1608 -0.0137  0.5167
79493W        W80357  24.360   2.335   3.234  0.1417 -0.0148  0.1880
79494W        W80358  25.099   4.009   3.552 -0.0732  0.1564 -0.0129
79495W        W80359  27.891   3.927   0.955  0.0046 -0.1189  0.3258
79496W        W80360  29.114   2.906   0.464  0.2655 -0.1360 -0.1453
79497W        W80361  26.317   1.783   2.526  0.2826 -0.0427 -0.0247
79498W        W80362  27.479   0.914   1.495  0.0665  0.0885  0.1271
79499W        W80363  25.907   0.296   1.620 -0.0146 -0.1273  0.0575
79500W        W80364  28.340   1.699   1.687  0.1576 -0.1359  0.0632
79501W        W80365  26.043   2.339   3.907  0.2665  0.0329  0.0790
79502W        W80366  24.546   2.613   4.721 -0.1858 -0.2254  0.0953
79503W        W80367  28.607   2.304   0.326 -0.1789 -0.2431 -0.0268
79504W        W80368  25.823  28.954   5.480  0.2149  0.1468 -0.0600
79505W        W80369  25.838   3.286   3.365 -0.0645  0.1861 -0.1958
79506W        W80370  25.063   2.513   5.328  0.2462  0.1829 -0.3465
79507W        W80371  26.107   2.171  28.523 -0.0116 -0.1017  0.1188
79508W        W80372  24.052   3.599   2.831  0.0030 -0.1778 -0.3071
79509W        W80373  27.844   3.016   0.117  0.1855  0.0305 -0.1158
79510W        W80374  28.600  27.822   1.254  0.0927  0.0122  0.1534
79511W        W80375  26.273   3.291   1.264  0.2977 -0.2904 -0.1532
79512W        W80376  25.966   4.909   2.320  0.1547 -0.0593 -0.0800
79513W        W80377  27.732  28.992  29.072  0.0064  0.0543  0.1940
79514W        W80378  28.433   1.768   4.262 -0.0287  0.2321 -0.1674
79515W        W80379  27.483   4.183   2.925  0.3839 -0.1348  0.2330
79516W        W80380  26.351   4.194  28.712 -0.2340 -0.0191  0.2056
79517W        W80381  27.682   0.356  28.989 -0.0014  0.0659  0.0123
79518W        W80382   0.205   4.707   3.081  0.2025  0.1286  0.1940
79519W        W80383  26.492   2.851   0.165  0.0471 -0.0240 -0.1246
79520W        W80384  27.128   1.240   0.674  0.0296 -0.0207  0.1441
79521W        W80385   0.028  29.007   1.404 -0.2448  0.2335 -0.0263
79522W        W80386  26.522   1.291   1.230 -0.1118 -0.2370 -0.1124
79523W        W80387  28.534   3.258   1.998  0.0041 -0.0770 -0.1047
79524W        W80388  26.864   0.322   1.896 -0.5069  0.0079 -0.2175
79525W        W80389  25.652   2.713   1.908  0.2924 -0.2625 -0.1134
79526W        W80390  28.733   0.575   3.096 -0.0266 -0.2743 -0.0171
79527W        W80391  27.276   0.257   2.853  0.0748 -0.2662 -0.2923
79528W        W80392  26.918   4.346   1.685  0.1663 -0.0761  0.1337
79529W        W80393  25.243   3.616  28.251 -0.2148  0.2770 -0.2079
79530W        W80394  24.739   1.138   3.828 -0.0884  0.2141 -0.3965
79531W        W80395   0.622   0.933   4.462 -0.2125  0.0627  0.2071
79532W        W80396  28.925   0.287   1.428 -0.0433 -0.0604  0.0255
79533W        W80397   1.385   3.326   2.255 -0.1525  0.0524 -0.4101
79534W        W80398  25.032   4.341   2.123 -0.0013  0.3863 -0.0481
79535W        W80399   1.172   2.569   6.353 -0.2029  0.1175  0.4008
79536W        W80400  23.188  28.328   2.572 -0.2624  0.2564  0.1189
79537W        W80401  28.042   0.561   2.052 -0.0150  0.2925 -0.2152
79538W        W80402  25.554   2.329   3.818  0.0293 -0.0852 -0.1770
79539W        W80403  23.578   0.552   1.851 -0.2593 -0.0869  0.1926
79540W        W80404  28.507   0.194   4.790 -0.1671 -0.0860  0.1743
79541W        W80405  24.884  28.842   2.156 -0.0093  0.1021  0.1439
79542W        W80406  25.898   2.046   2.461  0.0563 -0.2149 -0.2618
79543W        W80407  25.908   3.603   4.513  0.3098  0.1117 -0.0289
79544W        W80408  24.300   3.157   5.939 -0.2603 -0.0510 -0.0479
79545W        W80409  28.175   5.091   2.246  0.1935  0.2301  0.0174
79546W        W80410   2.088  27.556   2.509  0.0601 -0.0416  0.0544
79547W        W80411  27.935   1.722   2.979 -0.1517  0.2251  0.1568
79548W        W80412  26.454   2.070   1.526 -0.1704 -0.2005 -0.0573
79549W        W80413  27.618   3.012   2.377  0.0630 -0.1220  0.1590
79550W        W80414   3.874   1.897  28.750  0.2630  0.1663  0.0098
79551W        W80415  28.527  29.031   4.393  0.0197  0.1657 -0.2016
79552W        W80416  26.630  27.948   1.447  0.2411  0.1853  0.0547
79553W        W80417  26.654   2.398  28.495 -0.1265  0.1220  0.1701
79554W        W80418   0.016   5.099   1.457  0.0708 -0.1198  0.1523
79555W        W80419  25.949  28.093   1.263  0.2365  0.0900 -0.2225
79556W        W80420  24.517   1.774   0.675 -0.2769  0.0506 -0.1831
79557W        W80421  29.088   2.308   0.157  0.1695 -0.2338 -0.0887
79558W        W80422  26.011   2.222   0.701 -0.1801 -0.2008 -0.0156
79559W        W80423  27.430  28.900   2.607  0.1379  0.2048 -0.1967
79560W        W80424  27.776   0.173  28.056  0.0394  0.4018 -0.0348
79561W        W80425   1.805   3.523   2.327 -0.1283  0.0786  0.1134
79562W        W80426  28.296   5.275   3.436  0.1850  0.3786  0.0118
79563W        W80427   0.461   0.690   3.989  0.1786 -0.2980  0.1395
79564W        W80428   0.898   1.922   4.558 -0.1365 -0.2027  0.2549
79565W        W80429  27.555   2.450   1.811  0.0395  0.0921  0.1277
79566W        W80430  28.462   6.133  28.081  0.1850 -0.0791  0.2385
79567W        W80431  27.509   0.902   2.931  0.0740  0.1113  0.1299
79568W        W80432  28.194  28.382   0.891 -0.2261 -0.1887  0.1561
79569W        W80433  26.208   2.685  28.519  0.1779  0.0201 -0.1855
79570W        W80434  27.748   2.189   6.141  0.0538  0.0026  0.0750
79571W        W80435  25.303   4.227   0.954 -0.1712 -0.0346  0.0633
79572W        W80436  24.081   4.197  27.824 -0.0976 -0.2689 -0.1531
79573W        W80437  26.537   4.018   1.511 -0.0624 -0.1936 -0.2417
79574W        W80438  25.377   5.788   2.372 -0.0802  0.2636  0.0650
79575W        W80439  25.452   3.865   0.617 -0.4378  0.2949  0.0631
79576W        W80440  24.403  28.251   0.714  0.0751 -0.0382  0.0536
79577W        W80441  27.944   1.882   2.005 -0.0447 -0.2351 -0.0961
79578W        W80442  26.091   1.786  29.099 -0.0436 -0.2003 -0.0028
79579W        W80443  26.595   0.863   1.517 -0.0438  0.1723  0.2608
79580W        W80444  27.488   3.676   1.267 -0.0946  0.0037  0.1217
79581W        W80445  27.101   4.150   2.394  0.0497  0.1524  0.0714
79582W        W80446  28.765   3.651   0.726 -0.1773  0.0605 -0.2568
79583W        W80447  26.812   4.800   1.827  0.1834 -0.1629  0.0536
79584W        W80448  27.739  27.852   0.142 -0.2922 -0.1381 -0.0232
79585W        W80449  25.089   2.759   2.911 -0.0760 -0.3009 -0.0577
79586W        W80450   2.287   3.234   2.461  0.0327  0.2401 -0.1595
79587W        W80451  26.877   1.369   5.312  0.1183 -0.0652  0.5646
79588W        W80452  24.446   0.953   1.178  0.4358 -0.0320 -0.0207
79589W        W80453  28.735   1.389   1.567  0.0363 -0.0900  0.2651
79590W        W80454  26.442  28.081   3.650  0.4016 -0.0532 -0.0586
79591W        W80455  27.364   1.638   2.726 -0.0549 -0.1369  0.0315
79592W        W80456  26.227  25.743   2.264 -0.0279 -0.1612 -0.1088
79593W        W80457  24.588   3.594   2.910  0.2296 -0.2135  0.0533
79594W        W80458  28.347   2.757   1.186  0.1620 -0.1298  0.2649
79595W        W80459   0.170   3.223  27.795 -0.0188  0.1534 -0.1819
79596W        W80460  28.545   3.348   1.081  0.2094 -0.1387  0.1777
79597W        W80461  28.141   1.597   0.925 -0.2746  0.4349  0.4968
79598W        W80462  27.659   1.352   3.169  0.0622 -0.1158 -0.2909
79599W        W80463  28.249  28.176   0.249  0.1245  0.3622  0.0185
79600W        W80464  27.877   1.741   1.395 -0.2350 -0.1199  0.0946
79601W        W80465  26.395  29.021  28.942 -0.1849  0.1551 -0.1456
79602W        W80466   0.097   3.079   3.238  0.1612  0.2512  0.1275
79603W        W80467  27.290   5.069   0.475  0.0406 -0.0426  0.0789
79604W        W80468  27.148   0.715   5.295  0.0200 -0.3660  0.3690
79605W        W80469  26.947   0.463   1.459  0.4545  0.0835  0.2566
79606W        W80470  28.316   4.642   1.602 -0.1988  0.3364 -0.4030
79607W        W80471  27.633   2.102   2.744  0.1244  0.0017  0.1413
79608W        W80472  26.349   0.592   3.102  0.2849  0.1663  0.1237
79609W        W80473  29.008   3.998   2.124  0.0817 -0.1552  0.0501
79610W        W80474  25.956   3.618   0.789  0.3701  0.1971 -0.1789
79611W        W80475  24.703   2.344   3.590  0.3151  0.2391  0.0012
79612W        W80476  27.496   2.363   3.164 -0.0838 -0.1492 -0.1429
79613W        W80477   1.469   1.176   2.891 -0.1334 -0.1206 -0.0173
79614W        W80478  28.150   3.281   2.370 -0.1978 -0.0928 -0.1509
79615W        W80479  28.648   3.713   1.823  0.2070  0.2044 -0.1868
79616W        W80480  26.806   3.009   1.119  0.0365 -0.2213  0.0215
79617W        W80481  26.733   2.304   3.384 -0.0445  0.2611  0.1504
79618W        W80482  28.364   1.763   3.240 -0.0940 -0.1897  0.2330
79619W        W80483  28.139   2.216   4.380 -0.1378  0.0420  0.2762
79620W        W80484  27.875   2.006   0.965  0.1548  0.0475 -0.0498
79621W        W80485  28.254   3.557   2.943  0.0189  0.0840  0.1091
79622W        W80486  27.044   3.595   3.226  0.0130  0.0080 -0.0758
79623W        W80487  26.182   2.783   2.679 -0.0576  0.0681  0.1215
79624W        W80488  26.232   1.857   4.049 -0.2144 -0.0455 -0.1445
79625W        W80489  24.866   2.465   2.599 -0.0227  0.1131  0.0683
79626W        W80490  26.438   3.559   4.360  0.2999  0.1023  0.1243
79627W        W80491  27.807   2.949   1.302 -0.0815 -0.1589  0.1660
79628W        W80492  26.115   0.208   2.799 -0.2714  0.2695  0.0185
79629W        W80493  24.752   3.613   8.343 -0.2414 -0.2761 -0.1444
79630W        W80494  24.797   4.978   6.749 -0.0253 -0.0058  0.0240
79631W        W80495  28.423   3.201   4.639 -0.1619 -0.0742 -0.1169
79632W        W80496   1.655   4.110   6.426  0.0684  0.2246 -0.2046
79633W        W80497  28.427   4.031   3.004 -0.0619 -0.0670  0.0803
79634W        W80498  23.940   1.975   6.912 -0.2648  0.3524  0.2268
79635W        W80499  27.205   2.022   4.096  0.1159  0.1216  0.1164
79636W        W80500  27.136   1.220   4.819 -0.1714  0.0899  0.0500
79637W        W80501  24.691   4.007   6.891 -0.0307 -0.2581  0.4096
79638W        W80502  25.916   1.439   5.294 -0.0585  0.1263 -0.1277
79639W        W80503  24.875  28.104   8.225  0.1797 -0.0658  0.2985
79640W        W80504  27.506  29.084   8.655  0.1807  0.2753  0.1631
79641W        W80505  26.067  28.351   2.201 -0.0734  0.3481 -0.0485
79642W        W80506  27.149   0.638   7.354  0.2533 -0.3595 -0.2262
79643W        W80507  24.659   2.717   7.073 -0.1958  0.3090 -0.0247
79644W        W80508  26.147   1.922   7.602 -0.0358  0.4903 -0.3612
79645W        W80509  26.982   4.753   6.592 -0.0840 -0.1739  0.2419
79646W        W80510  26.757   2.163   4.404 -0.0976  0.1478 -0.0525
79647W        W80511   0.079   3.343   7.648  0.0981 -0.0392  0.1430
79648W        W80512   1.998   2.059   6.002 -0.0598 -0.0314  0.1994
79649W        W80513   0.140   2.904   5.835 -0.2981  0.1876 -0.0381
79650W        W80514  27.449   1.080   7.415 -0.0776  0.0249  0.0853
79651W        W80515  26.714   4.006   4.403 -0.2372 -0.0967  0.2207
79652W        W80516  26.030   3.485   6.478 -0.2509 -0.3637  0.1337
79653W        W80517  26.475   1.072   5.598  0.0852 -0.0105  0.0160
79654W        W80518  26.903   0.745   6.928  0.0747  0.2446  0.4318
79655W        W80519  28.708   1.213   5.624 -0.3540  0.0261 -0.2660
79656W        W80520  26.409   2.100   4.893 -0.0095 -0.0991  0.0526
79657W        W80521  24.303   4.179   7.201 -0.0743 -0.0805  0.2316
79658W        W80522  28.008  27.654   6.108  0.2108 -0.1935 -0.0319
79659W        W80523  26.707   1.160   4.548 -0.1941  0.1703  0.1638
79660W        W80524  27.836   4.574   7.656 -0.2382  0.2562 -0.0620
79661W        W80525  28.233   0.088  10.083  0.0630 -0.0906 -0.3837
79662W        W80526  26.791   2.309   7.867  0.0474 -0.0136 -0.2126
79663W        W80527  26.983  29.000   8.373 -0.2059  0.3425 -0.0777
79664W        W80528  27.334   3.024   6.295  0.1569 -0.2189 -0.0363
79665W        W80529  24.997   0.095   5.388  0.2460  0.1001 -0.0220
79666W        W80530  25.182   2.951   6.323 -0.0244 -0.1547  0.3074
79667W        W80531  26.154   2.707   4.678  0.0471  0.0140  0.0248
79668W        W80532   0.614  28.622   6.123 -0.1916 -0.0240  0.0978
79669W        W80533  28.751  27.795   2.807  0.1362 -0.3559 -0.1339
79670W        W80534   1.184   1.341   6.064  0.1598 -0.1520 -0.0134
79671W        W80535  26.215   4.580   5.699  0.0051  0.2172  0.0012
79672W        W80536  28.383   3.146   6.014  0.0132 -0.2512  0.0096
79673W        W80537  27.195   5.502   4.648 -0.1744  0.1138  0.0510
79674W        W80538  25.876   2.910   5.233  0.0634  0.1679  0.2137
79675W        W80539  24.345   1.374   9.650  0.1201 -0.1164  0.2854
79676W        W80540   4.013   1.164   7.552  0.0069  0.0288 -0.0434
79677W        W80541  27.712   2.724   5.329  0.1121  0.2914 -0.0856
79678W        W80542  26.645   4.317   3.602  0.0493 -0.1308  0.0890
79679W        W80543  26.796   4.114   6.234 -0.0317  0.0022  0.2308
79680W        W80544  25.467   2.124   5.100 -0.1342  0.0568 -0.1765
79681W        W80545  26.588   3.721   6.824 -0.1183  0.1127  0.0619
79682W        W80546  29.065   0.151   3.708 -0.3245  0.2508 -0.0966
79683W        W80547  28.262  28.906   4.832 -0.0469  0.1547  0.1100
79684W        W80548  26.120   3.831   4.964 -0.4078  0.0620  0.0451
79685W        W80549  26.965   0.262   5.908 -0.1828  0.1402  0.0419
79686W        W80550   1.592   0.059   4.399 -0.0014 -0.1603 -0.1605
79687W        W80551  26.186   0.751   4.296  0.0241 -0.2346  0.1639
79688W        W80552  24.518   3.146   3.108 -0.1288  0.0447  0.1368
79689W        W80553  28.590   2.286   2.979 -0.3395 -0.1042  0.2068
79690W        W80554  24.147   2.433   5.144 -0.1204 -0.0682  0.0704
79691W        W80555  23.907   2.650   7.729 -0.0215 -0.1977  0.3250
79692W        W80556  26.668   2.514   4.738 -0.3296  0.1479  0.0027
79693W        W80557  25.812  27.156   2.713 -0.0636  0.0501  0.0756
79694W        W80558   0.291   0.922   8.172  0.0577 -0.0211  0.1430
79695W        W80559  26.060   1.625   4.856  0.1792 -0.2393 -0.1600
79696W        W80560  24.717   0.499   2.813 -0.0576 -0.1723  0.2907
79697W        W80561  27.435   4.325   7.402  0.0159  0.2646  0.1799
79698W        W80562   0.041   1.859   6.221  0.0573 -0.3993  0.4979
79699W        W80563  28.814   4.556   4.904 -0.3196  0.2280  0.3437
79700W        W80564  28.779   1.619   4.605 -0.0739 -0.0948  0.0567
79701W        W80565  28.995   2.832   6.683  0.1321 -0.3477 -0.0650
79702W        W80566  28.519   2.552   6.760 -0.0302 -0.1679 -0.0631
79703W        W80567  27.655   4.424   5.970 -0.2016 -0.1188 -0.1922
79704W        W80568  27.730   3.900   7.427  0.1200 -0.2679 -0.1783
79705W        W80569  23.316   2.112   4.714 -0.0919 -0.0298  0.0886
79706W        W80570  26.659  27.502   7.706 -0.1596  0.1161  0.0661
79707W        W80571  27.595   1.087   4.139 -0.0747  0.1277  0.2133
79708W        W80572  27.842   2.750   3.159  0.0713  0.4104 -0.0670
79709W        W80573  24.770   1.165   5.214  0.3093 -0.1499 -0.1009
79710W        W80574  28.336  28.432   4.639 -0.4973 -0.2607 -0.0421
79711W        W80575  23.123  27.756   5.540 -0.2191 -0.0195  0.1135
79712W        W80576  25.937  28.670   6.215  0.3702 -0.2717 -0.2053
79713W        W80577  26.137   3.386   8.412 -0.1890 -0.1166  0.2376
79714W        W80578  25.885   1.693   4.392  0.0784 -0.2600 -0.0819
79715W        W80579   3.798   4.216   7.167 -0.1499 -0.0262 -0.0289
79716W        W80580  28.955   3.272   5.968 -0.1139 -0.3448 -0.0964
79717W        W80581   2.005   2.530   7.676  0.2139 -0.0564  0.0453
79718W        W80582   0.765   3.862   6.804  0.0708  0.1673 -0.0109
79719W        W80583  27.966   1.035   5.054  0.3738 -0.2746  0.0898
79720W        W80584  29.123   1.784   8.721  0.1009  0.2101 -0.0522
79721W        W80585  24.666   4.161   4.482 -0.1148  0.0400  0.0019
79722W        W80586  24.896   2.939   4.467  0.0802  0.1045 -0.0775
79723W        W80587  26.126  26.533   8.015  0.0073 -0.1723 -0.1565
79724W        W80588  27.374  28.749   3.589  0.1110  0.5097  0.3654
79725W        W80589  26.453   0.481   5.795  0.1075  0.0604 -0.0118
79726W        W80590  24.033   5.824   4.770 -0.1516  0.2560 -0.2537
79727W        W80591  27.731  29.095   3.605  0.1542  0.0512  0.1430
79728W        W80592   1.080   1.209   7.160  0.0017 -0.1166 -0.1253
79729W        W80593   0.536   3.244   5.250 -0.2379 -0.0665  0.2013
79730W        W80594  26.449   1.162   6.993 -0.0885  0.0670  0.1573
79731W        W80595  27.018  28.753   2.393  0.0501 -0.0096  0.1223
79732W        W80596   4.076   5.742   3.086 -0.0014  0.3776  0.1169
79733W        W80597   0.434   1.453   5.650  0.2214  0.0696 -0.3010
79734W        W80598  27.830  28.706   6.937  0.1949 -0.2729 -0.0612
79735W        W80599  25.878   2.190   4.850 -0.3972  0.0044  0.0228
79736W        W80600  28.833   0.814   6.991  0.3130  0.2413  0.0969
79737W        W80601  28.696   1.057   6.246 -0.0749  0.0939 -0.0036
79738W        W80602  22.600  28.307   5.086 -0.1117  0.0232  0.1982
79739W        W80603  25.017   3.927   4.841  0.0396 -0.1752 -0.0313
79740W        W80604  27.458   3.044   2.831  0.2547  0.1312 -0.0700
79741W        W80605   3.519   1.368   4.455 -0.2685  0.2529  0.0674
79742W        W80606  25.980   3.811   6.126  0.0814  0.2166  0.1438
79743W        W80607   1.407   1.756   3.721  0.0079 -0.1272  0.1743
79744W        W80608  25.885   2.855   5.834  0.0698 -0.1389 -0.3988
79745W        W80609  26.470   2.063   6.474  0.1604  0.1998 -0.1958
79746W        W80610  26.188   1.785   6.989  0.2539 -0.3123  0.1621
79747W        W80611  28.297   1.021   5.460  0.2185 -0.2144 -0.0856
79748W        W80612  28.045   1.372   4.115  0.1261  0.2413 -0.0474
79749W        W80613  28.914   2.005   2.348 -0.0665 -0.1064  0.2235
79750W        W80614  28.104  28.795   4.396 -0.1607 -0.0790 -0.0270
79751W        W80615  27.926   3.466   7.116 -0.2498 -0.1318  0.2690
79752W        W80616  28.044   2.903   3.676  0.0918  0.2004  0.0155
79753W        W80617  28.156   2.663   6.426 -0.0462 -0.1347 -0.2935
79754W        W80618  29.013   2.522   7.145 -0.1157 -0.1599 -0.0062
79755W        W80619  28.692   1.680   5.492  0.1649 -0.1452 -0.0192
79756W        W80620   0.235  28.922   6.361 -0.1832  0.0016  0.1372
79757W        W80621   1.049   2.180   5.102 -0.1687 -0.2780 -0.2257
79758W        W80622  26.157   2.245   4.412  0.1059 -0.1360  0.2881
79759W        W80623  28.673   1.995   8.576 -0.0321 -0.0628 -0.0595
79760W        W80624  29.065  28.156   5.685 -0.0581  0.0593 -0.2980
79761W        W80625  27.199   3.370   4.864 -0.4546 -0.1495 -0.2335
79762W        W80626  29.073   1.009   6.567  0.0839 -0.0871  0.1863
79763W        W80627  28.825  28.636   6.017 -0.1029 -0.0431  0.1848
79764W        W80628  24.886   1.969   7.519 -0.0348 -0.0873 -0.1472
79765W        W80629   3.657   0.604   3.372  0.0443 -0.0839  0.0170
79766W        W80630   1.391  28.218   3.156 -0.1094 -0.0061 -0.2316
79767W        W80631  28.485   0.190   6.539  0.1584 -0.0708 -0.1444
79768W        W80632  26.155   5.890   3.139 -0.2169 -0.1887 -0.1090
79769W        W80633  27.292   0.223   3.640  0.3271 -0.1836  0.2292
79770W        W80634  24.341   1.036   5.353  0.1057 -0.0791  0.0706
79771W        W80635  25.636   3.126   3.969 -0.1018  0.0136  0.1026
79772W        W80636  25.962   4.494   2.731  0.0615 -0.0649  0.2286
79773W        W80637  28.938   2.924   7.586 -0.0924  0.0654 -0.2709
79774W        W80638  27.693   0.057   5.575  0.1445 -0.1360 -0.0919
79775W        W80639  29.109  28.548   5.274 -0.0384  0.1517  0.3418
79776W        W80640  27.744   2.473   4.725 -0.0743  0.1855  0.0379
79777W        W80641  25.730   4.633   5.365  0.0102  0.1770  0.3614
79778W        W80642  26.822   2.344   5.700 -0.0165 -0.0154 -0.1006
79779W        W80643  24.798   3.191   4.989  0.0465  0.2524 -0.1688
79780W        W80644  28.143  27.890   3.990 -0.1430 -0.0327  0.3583
79781W        W80645  26.094   4.759   8.077  0.1270  0.0584 -0.0976
79782W        W80646  27.588   2.971   1.833  0.1073  0.1664  0.0018
79783W        W80647  26.908   2.310   6.238 -0.0205  0.0134 -0.0479
79784W        W80648  27.757  28.927   4.913  0.0146 -0.1332  0.1428
79785W        W80649  25.764   3.233   6.992  0.1279 -0.2329  0.0187
79786W        W80650  26.607   2.291   3.915 -0.0477  0.2746  0.2079
79787W        W80651  25.464   1.333   3.129  0.0153  0.0441 -0.0999
79788W        W80652  26.791  29.003   6.944 -0.1589  0.2957 -0.1924
79789W        W80653   2.518   1.051   9.232 -0.0898 -0.0643 -0.2057
79790W        W80654  27.620   1.616   6.023  0.1168  0.0866  0.1110
79791W        W80655  28.636   2.105   4.740  0.0993 -0.2674  0.0629
79792W        W80656   0.473   4.341   6.430 -0.0820  0.1459 -0.2408
79793W        W80657  29.080   0.621   8.013  0.1564  0.1770  0.0433
79794W        W80658  27.169   0.513   7.905 -0.1017  0.0503 -0.1278
79795W        W80659  28.469   0.785   5.897  0.0067  0.1018  0.0902
79796W        W80660  26.143   2.469   5.135 -0.0658 -0.1980 -0.2379
79797W        W80661  24.747   2.243   8.053  0.1351 -0.0670 -0.1808
79798W        W80662  25.906   3.588   5.366 -0.2300 -0.2211 -0.1853
79799W        W80663  23.899   1.604   3.678 -0.0241 -0.0189 -0.1560
79800W        W80664  26.354   0.723   6.816  0.2854 -0.0341  0.1816
79801W        W80665   0.399   0.445   8.257 -0.1320 -0.1553  0.0765
79802W        W80666  25.798   1.622   3.312 -0.1591 -0.0731 -0.2037
79803W        W80667  28.191   1.153   6.067 -0.1896 -0.0359  0.0654
79804W        W80668   0.876   1.100   5.022 -0.0737  0.2011  0.0260
79805W        W80669  23.796   4.115   6.303  0.1006  0.0658 -0.0371
79806W        W80670  24.462   4.139   5.748  0.0893  0.0100  0.0510
79807W        W80671  26.656   3.380   5.385  0.2021  0.0415 -0.2803
79808W        W80672  27.672   1.236   4.666  0.0610 -0.0419  0.0753
79809W        W80673  28.113   0.125   5.143 -0.0551 -0.3604 -0.0831
79810W        W80674  26.656   2.660   8.146  0.3737 -0.3542 -0.0987
79811W        W80675  27.044   2.521   4.177  0.1442  0.2539  0.0305
79812W        W80676  27.318  28.945   0.675 -0.1288 -0.0936 -0.0115
79813W        W80677  26.959   3.553   6.277  0.5221 -0.3064  0.0474
79814W        W80678  29.021   1.433   6.412  0.1596  0.1164 -0.0092
79815W        W80679  24.750  27.959   4.799 -0.1272  0.1353 -0.0225
79816W        W80680  22.367   0.941   5.038 -0.1453  0.1554  0.0363
79817W        W80681  24.672   3.620   5.855  0.0268  0.0504  0.3102
79818W        W80682  27.233   3.194   5.834  0.3116 -0.2692 -0.0115
79819W        W80683  25.828   2.818   3.560  0.0537 -0.0140 -0.0144
79820W        W80684  25.124   1.976   5.414  0.2058  0.0160  0.3203
79821W        W80685  25.626   2.650   4.854  0.0167  0.0000  0.0877
79822W        W80686  25.806   0.048   7.788 -0.0607 -0.2082  0.2613
79823W        W80687   1.536  27.731   5.600 -0.1759 -0.0622 -0.0182
79824W        W80688  25.479   0.120   5.319 -0.2378 -0.1881  0.1439
79825W        W80689  26.396  29.086   3.702 -0.2619 -0.0080 -0.1610
79826W        W80690  24.103   0.555   6.349 -0.2488  0.0974 -0.3051
79827W        W80691  25.758  27.530   7.430  0.1697 -0.0219 -0.0278
79828W        W80692  27.613   0.666   6.973  0.0319 -0.0192 -0.0486
79829W        W80693  27.334  27.940   3.798 -0.2054 -0.2783 -0.2717
79830W        W80694   0.295   1.467   7.289 -0.0607  0.0020 -0.3787
79831W        W80695  28.706   3.242   3.192 -0.0237 -0.0240 -0.2387
79832W        W80696  26.619   0.309   6.742  0.1952  0.0883 -0.0336
79833W        W80697  25.102  28.631   4.400 -0.0615  0.3256 -0.3766
79834W        W80698  23.275   0.152   4.461 -0.2429  0.1542  0.2331
79835W        W80699  25.831   2.625   7.026 -0.0303 -0.0497  0.2272
79836W        W80700   0.175   1.443   4.705 -0.0176  0.0779  0.0925
79837W        W80701  25.503   2.792   3.197 -0.2268  0.0877 -0.2042
79838W        W80702  28.292   2.491   3.385 -0.0805  0.0732 -0.0646
79839W        W80703  26.479   4.028   5.859  0.0098 -0.0109  0.2379
79840W        W80704  27.626   0.968   6.136 -0.1283  0.2301 -0.2164
79841W        W80705  29.030  28.886   4.139 -0.1453  0.2380  0.0287
79842W        W80706  28.127  28.077   8.946  0.2467  0.0731  0.1552
79843W        W80707   2.795   1.912   5.623  0.3039 -0.1448 -0.0723
79844W        W80708  28.986   4.131   6.535 -0.1352 -0.0460  0.0967
79845W        W80709  28.999   0.828   5.918 -0.1879 -0.1359 -0.0046
79846W        W80710  27.397   4.032   5.556  0.1061  0.1786 -0.0275
79847W        W80711   1.630   2.651   6.531 -0.0578 -0.0250 -0.0698
79848W        W80712  24.092   3.922   8.877 -0.0434 -0.1071 -0.1086
79849W        W80713  28.344   3.749   8.571  0.2054  0.3381 -0.2119
79850W        W80714  27.977   2.688   4.303 -0.1486  0.0500 -0.0879
79851W        W80715  25.143   3.680   8.008 -0.0723 -0.3585 -0.1421
79852W        W80716  25.003  27.722   0.564  0.1329 -0.0964 -0.2504
79853W        W80717  27.775   1.253   5.577 -0.0490 -0.2341  0.1628
79854W        W80718  27.915  29.104   7.750 -0.1332  0.1435  0.0102
79855W        W80719  24.733   2.787   5.783 -0.3329  0.6062  0.0314
79856W        W80720   0.740   2.561   6.573 -0.0057  0.0579  0.0232
79857W        W80721  27.707   3.166   4.672  0.0569  0.2085 -0.0795
79858W        W80722  26.754   2.994   7.362  0.0963  0.0485 -0.0689
79859W        W80723  25.948   0.189   5.818 -0.1111 -0.3004  0.1901
79860W        W80724  27.818   3.963   5.822  0.1073  0.0029 -0.1382
79861W        W80725  24.354   1.616   3.938  0.3326  0.2430  0.2067
79862W        W80726  28.911   2.899   4.585 -0.1057  0.0023 -0.1686
79863W        W80727  26.850   3.646   5.759 -0.0015  0.1475 -0.0436
79864W        W80728  27.972   4.491   4.614  0.0188 -0.1448  0.0067
79865W        W80729   1.602   2.203   6.293 -0.0350  0.1400  0.2150
79866W        W80730  26.924   0.227   7.608  0.0577  0.0352  0.0544
79867W        W80731   1.444   4.295   5.483  0.1939  0.1462  0.2394
79868W        W80732  27.927   4.825   5.844 -0.1606 -0.0762  0.4379
79869W        W80733  27.911   4.824   3.369  0.2726  0.1677  0.4522
79870W        W80734  28.612   3.598   5.818  0.1664  0.0906  0.3420
79871W        W80735  26.477   0.086   4.911  0.0740  0.1613 -0.2277
79872W        W80736  25.364  27.673   4.073 -0.2476  0.2981  0.1878
79873W        W80737  27.196  28.160   5.157  0.1784 -0.2151  0.0319
79874W        W80738  25.575   1.296   4.374  0.2240 -0.0343  0.2798
79875W        W80739  27.667   0.468   6.390 -0.0911  0.1543  0.1256
79876W        W80740  25.972   5.463   7.387  0.1302  0.1684 -0.1894
79877W        W80741  26.887   3.001   5.023  0.2796 -0.0236 -0.0415
79878W        W80742  25.871  28.604   5.007  0.2205  0.1681  0.0207
79879W        W80743  24.985   3.094   5.429 -0.1185  0.0416 -0.1512
79880W        W80744  23.003   3.608   4.746 -0.0860 -0.1830 -0.0340
79881W        W80745   1.051   4.024   7.168 -0.0314  0.0470  0.0350
79882W        W80746  25.535   1.742   6.806 -0.3913  0.0928 -0.1136
79883W        W80747  27.660   2.557   3.807 -0.1228  0.1678  0.0651
79884W        W80748  28.197   3.442   5.557 -0.2064  0.1668  0.1113
79885W        W80749  28.009   0.551   4.899  0.1677  0.1442 -0.1568
79886W        W80750  23.237   0.784   5.238 -0.1598 -0.0230 -0.0805
79887W        W80751  25.799   4.119   5.286  0.1268 -0.1343  0.1316
79888W        W80752  26.925  28.228   3.505 -0.3227 -0.1778  0.2363
79889W        W80753  25.103   1.613   4.543  0.1758 -0.0998  0.2168
79890W        W80754  27.089   3.580   8.074 -0.0480  0.0595  0.1882
79891W        W80755   1.669   2.261   7.434 -0.1263  0.0827  0.1216
79892W        W80756  28.325   1.525   7.559 -0.2828 -0.5223 -0.0873
79893W        W80757  27.283   1.446   5.615  0.1028  0.2309  0.0987
79894W        W80758  26.010   4.021   6.636  0.3772  0.0943 -0.0474
79895W        W80759  26.504   3.724   6.303 -0.1996  0.2054 -0.0824
79896W        W80760  27.947   3.148   2.839 -0.0915  0.2236 -0.0495
79897W        W80761  26.374   2.580   6.607 -0.0013 -0.1773  0.1524
79898W        W80762   1.140   1.284   2.483 -0.1046 -0.2892  0.2661
79899W        W80763  24.415   0.911   5.851  0.2585 -0.0408 -0.0031
79900W        W80764  25.955   3.282   2.617 -0.0406 -0.3115 -0.1414
79901W        W80765  22.905   1.944   5.813 -0.4085 -0.0852  0.2304
79902W        W80766   1.517   4.617   6.663  0.0567  0.0027  0.0724
79903W        W80767  28.288   2.079   7.413 -0.2106 -0.0514 -0.2365
79904W        W80768  24.935   0.987   6.763 -0.0831  0.0520  0.1897
79905W        W80769  25.686   3.050   6.292 -0.1677 -0.3746 -0.1477
79906W        W80770  25.694   0.318   4.238  0.1576 -0.0950  0.0840
79907W        W80771  26.229   3.283   4.908 -0.0909 -0.1403 -0.3308
79908W        W80772  25.248   1.169   5.241 -0.2493 -0.2159 -0.0002
79909W        W80773  28.479  27.253   5.447  0.1332 -0.1746 -0.0097
79910W        W80774  28.202   0.513   6.260  0.3108 -0.1466 -0.1065
79911W        W80775  23.578   4.619   6.272  0.0621  0.0054  0.0540
79912W        W80776  27.008   2.708   3.246  0.0407 -0.2179  0.0159
79913W        W80777  28.746   0.734   5.435  0.0281  0.1114 -0.2991
79914W        W80778  28.055   3.834   2.409  0.0168  0.1751  0.2849
79915W        W80779  25.147  28.743   7.991 -0.1082  0.0425 -0.1610
79916W        W80780  27.172  28.524   3.220  0.2596  0.1022 -0.0105
79917W        W80781  27.384   1.161   5.247  0.2689  0.4818 -0.2495
79918W        W80782  26.706   1.486   5.806 -0.2337  0.0048  0.0052
79919W        W80783  27.696  27.922   4.361  0.1982 -0.2198 -0.0438
79920W        W80784   0.487   3.007   6.797  0.1965  0.0731  0.2716
79921W        W80785  23.308   1.280   5.338 -0.4648 -0.2147 -0.2228
79922W        W80786  28.237   3.106   6.909  0.0682  0.0442 -0.0438
79923W        W80787  28.033  28.933   3.128  0.1065 -0.1441 -0.1469
79924W        W80788  26.655   3.310   6.575 -0.0394 -0.1144  0.1034
79925W        W80789   0.219  29.096   5.402 -0.3633 -0.1307  0.3075
79926W        W80790   0.757   2.206   6.181 -0.0660 -0.0661 -0.1464
79927W        W80791  26.610   3.140   4.641 -0.0376 -0.3263  0.0686
79928W        W80792  27.347   1.861   4.561 -0.3661 -0.0394  0.0102
79929W        W80793  26.524  27.587   7.234  0.0770  0.0850  0.0374
79930W        W80794  25.603   4.453   7.872  0.0449 -0.0082 -0.1522
79931W        W80795   0.885   1.755   5.932 -0.2320  0.0033 -0.0994
79932W        W80796  27.714   3.114   4.011 -0.3819 -0.4499 -0.2115
79933W        W80797  24.501   3.001   8.217  0.1624 -0.3801  0.1562
79934W        W80798   1.264   2.585   7.425 -0.0114  0.0399  0.1797
79935W        W80799  26.728   0.867   5.128 -0.0959  0.0363  0.1859
79936W        W80800  28.313   1.522   5.187  0.1307  0.0595 -0.1269
79937W        W80801  26.993   1.879   5.559 -0.1593 -0.1869 -0.1249
79938W        W80802  24.278   1.104   3.994 -0.0569 -0.1365  0.0557
79939W        W80803  28.027   1.810   6.589 -0.0391 -0.2081  0.2317
79940W        W80804  26.419   0.273   4.049  0.0885 -0.1122 -0.0224
79941W        W80805   0.149  28.365   6.237  0.2220 -0.0102  0.0318
79942W        W80806  26.358   2.273   7.011 -0.1662 -0.0714  0.2682
79943W        W80807  24.999   3.914   4.216  0.1296  0.0498  0.0005
79944W        W80808  26.633  28.512   1.945  0.1683  0.1320 -0.3320
79945W        W80809   0.602   0.914   3.435  0.1047  0.1844  0.0633
79946W        W80810  28.295   2.290   8.437  0.1976 -0.1938  0.4938
79947W        W80811  25.685   1.033   5.474 -0.1505  0.0763 -0.2917
79948W        W80812  24.187   5.452   6.147 -0.0281 -0.4616 -0.0369
79949W        W80813   0.300   4.103   6.939 -0.0877 -0.0826 -0.3188
79950W        W80814  28.672   1.208   7.750  0.3426  0.0036 -0.0998
79951W        W80815  28.552   3.841   7.368  0.1205 -0.2824  0.0261
79952W        W80816  24.456   3.145   4.610  0.2960  0.1239  0.2510
79953W        W80817  26.246   2.948   7.208  0.0324  0.2499  0.1639
79954W        W80818   0.854   0.546   7.577  0.2189 -0.4315  0.0224
79955W        W80819  24.693   1.355   4.325  0.0324 -0.3610  0.0731
79956W        W80820  28.665   3.566   2.346 -0.0614 -0.2514 -0.1399
79957W        W80821  23.079   0.523   7.440 -0.0872 -0.0217  0.2598
79958W        W80822  27.442   0.240   7.484  0.0478  0.0931  0.1465
79959W        W80823   1.681  28.587   3.043  0.0546 -0.3650 -0.0601
79960W        W80824   1.513   1.268   6.435 -0.1627  0.1668 -0.1559
79961W        W80825  26.426   2.145   5.451 -0.3609 -0.0371 -0.0111
79962W        W80826   0.288   2.718   6.422  0.2960  0.0190  0.1797
79963W        W80827   1.118   2.840   5.911 -0.0843  0.0293 -0.0102
79964W        W80828  25.869   6.333   4.546  0.2793 -0.0652  0.0548
79965W        W80829  28.862   3.957   4.427 -0.1515  0.0452 -0.1853
79966W        W80830  23.912   2.047   4.037  0.4030 -0.2113  0.1553
79967W        W80831  26.837  28.598   5.119  0.1894 -0.0872  0.1795
79968W        W80832  26.846   2.872   6.445  0.0329 -0.1384  0.2485
79969W        W80833   0.909   1.079   6.616  0.0253 -0.2254 -0.2412
79970W        W80834  26.549  28.640   9.099 -0.0903 -0.1882  0.3524
79971W        W80835  25.788   2.374   2.799  0.0089  0.2210 -0.2201
79972W        W80836  28.084   3.886   3.304  0.1057  0.0671 -0.0153
79973W        W80837  25.758   3.233   4.889 -0.0121 -0.2174  0.2312
79974W        W80838  23.178   1.615   4.317  0.1695 -0.0461  0.0248
79975W        W80839  22.860   0.327   4.056  0.0832 -0.1232 -0.1854
79976W        W80840  26.184   3.119   6.182  0.0819 -0.0691 -0.0029
79977W        W80841  26.469  28.102   5.346 -0.0518  0.4462  0.2039
79978W        W80842  29.028   1.462   5.068 -0.1168 -0.0085  0.1964
79979W        W80843  28.599   2.835   2.253  0.1163  0.1794  0.2781
79980W        W80844  28.087   0.029   6.285 -0.0848  0.0257 -0.0583
79981W        W80845  28.103   3.819   4.364  0.2836  0.2186 -0.0095
79982W        W80846  28.086   4.149   6.750  0.0012 -0.0676  0.1869
79983W        W80847  28.572  27.080   4.305  0.0852 -0.2059 -0.2772
79984W        W80848  27.596   4.468   6.939  0.1795  0.2183  0.0130
79985W        W80849  27.092   1.222   6.956 -0.1745 -0.2968 -0.0224
79986W        W80850  24.981  28.460   7.612  0.0110  0.1564 -0.1137
79987W        W80851  25.989   1.866   5.758 -0.1246  0.2003 -0.4230
79988W        W80852  26.014   0.836   5.771 -0.0828  0.2000 -0.1504
79989W        W80853  28.746   3.355   7.493 -0.0607 -0.2649  0.2852
79990W        W80854  24.464  29.011   5.244  0.2498  0.1052 -0.0307
79991W        W80855  28.334   3.149   5.101 -0.0293  0.1258 -0.0501
79992W        W80856  23.893   3.631   6.490  0.2823  0.3645  0.0359
79993W        W80857   0.616   5.484   7.377 -0.1669  0.2767 -0.2629
79994W        W80858   0.087   4.065   3.502 -0.0677  0.0886 -0.2469
79995W        W80859  26.587  29.116   2.481 -0.0801 -0.0976  0.0870
79996W        W80860  28.256   3.079   3.265 -0.1499  0.1002  0.0113
79997W        W80861   2.136  27.734   7.892  0.3767 -0.0944 -0.1962
79998W        W80862  25.458   0.748   4.365  0.1008 -0.0309 -0.1965
79999W        W80863  28.905   1.101   4.633 -0.2280  0.0903  0.0036
80000W        W80864  28.080   2.371   5.198 -0.0044  0.1799 -0.2712
80001W        W80865   0.304   2.661   4.519 -0.3496  0.0381 -0.0149
80002W        W80866  28.205   3.654   1.962 -0.0200  0.0215  0.1414
80003W        W80867  24.069  27.646   7.189  0.2280  0.0819 -0.1335
80004W        W80868  25.843   0.998   7.679  0.1056  0.1572  0.0843
80005W        W80869  26.447  28.726   6.680 -0.1410 -0.0914 -0.2149
80006W        W80870  28.539  29.049   5.898 -0.1162  0.0702  0.2007
80007W        W80871  23.647   2.275   5.008  0.1082  0.2001  0.0953
80008W        W80872  28.711  28.626   7.153 -0.2543 -0.1406 -0.4253
80009W        W80873  28.263   1.447   5.655 -0.1259 -0.0258 -0.1712
80010W        W80874  24.676   1.041   6.328  0.1243  0.0253 -0.1096
80011W        W80875  27.143   0.678   6.115  0.0653  0.0105 -0.3317
80012W        W80876  25.899   3.256   7.457  0.0665  0.1612 -0.1898
80013W        W80877  28.085   1.687   7.113 -0.0969 -0.0928 -0.1214
80014W        W80878  26.518   2.913   3.146 -0.1342  0.1485  0.0940
80015W        W80879  24.683   3.554   4.695 -0.0045 -0.1274 -0.1363
80016W        W80880  25.143   3.525   5.672 -0.0512  0.0447 -0.3477
80017W        W80881  25.244   3.185   7.990  0.1143 -0.1424  0.0288
80018W        W80882  28.866   2.493   8.466  0.1834  0.0855  0.2370
80019W        W80883  27.084   2.727   6.002 -0.2818  0.1270  0.4866
80020W        W80884  28.558   3.634   4.827  0.0268  0.1492  0.2810
80021W        W80885  28.619   3.431   6.321  0.1044  0.0898 -0.1187
80022W        W80886  23.849   3.316   4.815 -0.2170  0.4030  0.0954
80023W        W80887  27.297  28.139   7.822 -0.1092  0.1587 -0.2678
80024W        W80888  28.603   1.290   4.263  0.1640  0.1977  0.0315
80025W        W80889  24.555   3.337   7.486  0.0243 -0.0592  0.1032
80026W        W80890  27.472   2.885   4.963 -0.0864  0.0303  0.0533
80027W        W80891  26.741   1.842   3.956 -0.2164 -0.0399 -0.3224
80028W        W80892  26.721   2.980   9.029 -0.1822  0.2348  0.0988
80029W        W80893  24.948   1.752  10.012  0.2284 -0.4195  0.2210
80030W        W80894  28.970   0.913   7.448  0.0961 -0.2438  0.2287
80031W        W80895  25.593   2.335   8.889  0.3901  0.3822 -0.0458
80032W        W80896  25.098   4.530   6.728  0.3757  0.1348 -0.0388
80033W        W80897  23.809   1.156   9.810  0.0077 -0.2931  0.2868
80034W        W80898  28.490   1.727   6.487  0.1330 -0.0672 -0.1877
80035W        W80899  26.290   1.740   9.852 -0.0651 -0.0199 -0.2994
80036W        W80900  26.491   4.411  10.680  0.1221  0.1571 -0.1556
80037W        W80901  27.614  28.558  11.909  0.3495  0.0835  0.1550
80038W        W80902  25.875   0.261  10.878 -0.4078  0.3086 -0.4216
80039W        W80903  26.100   2.871  10.682 -0.1838  0.0795 -0.2387
80040W        W80904  28.324   2.080   6.901 -0.4105 -0.2446  0.0340
80041W        W80905  26.663   1.516   9.005 -0.0941  0.1457  0.0394
80042W        W80906  27.312   0.549   9.596 -0.0574 -0.0019  0.0242
80043W        W80907  26.885   3.385  10.867 -0.1088 -0.3826 -0.0363
80044W        W80908  26.563   1.859   7.973  0.1119 -0.1153  0.2039
80045W        W80909  25.829  27.901  12.112 -0.0060  0.1828  0.0603
80046W        W80910  24.706   3.101  11.134  0.3252  0.0515  0.2035
80047W        W80911   0.003   2.026   9.482 -0.1888 -0.0679 -0.1677
80048W        W80912   0.664   1.393   6.946 -0.2123  0.0492 -0.1057
80049W        W80913   1.223  28.145   7.110  0.1081  0.4538 -0.1324
80050W        W80914  25.563   2.374   8.402 -0.2512  0.2245  0.2879
80051W        W80915  25.640   1.538  10.418 -0.0372 -0.1798 -0.0908
80052W        W80916  25.420   0.722   9.110 -0.0334  0.0451 -0.1183
80053W        W80917  25.848   2.278   9.893 -0.1247 -0.2587 -0.0834
80054W        W80918  26.127   1.486   9.170 -0.0419 -0.0583  0.0014
80055W        W80919  25.070   4.434  11.734 -0.6050 -0.1694  0.0231
80056W        W80920  28.484   2.861   8.540 -0.1567  0.2568  0.1384
80057W        W80921  26.518   1.066  10.822  0.5003 -0.0680  0.0263
80058W        W80922  27.528   0.052  10.392  0.0447 -0.1296  0.0760
80059W        W80923  27.152   3.861  11.008  0.2739  0.0429  0.5432
80060W        W80924  28.045   3.934  11.054  0.1020  0.1730 -0.0677
80061W        W80925  26.821   2.228  10.311 -0.1402 -0.0567  0.1834
80062W        W80926  25.101  28.810   9.493 -0.1447 -0.3096 -0.1849
80063W        W80927  26.504   3.001  10.246  0.1310  0.0316  0.2161
80064W        W80928  25.589  28.835   9.357 -0.0162 -0.0255  0.1522
80065W        W80929  27.166   2.530   9.997 -0.0624  0.1483 -0.0586
80066W        W80930  27.206   1.664   8.771 -0.0868  0.1455 -0.1844
80067W        W80931  29.133   1.872  10.017  0.0523  0.1841 -0.0117
80068W        W80932   0.020   4.229   8.818  0.0272  0.2487  0.2021
80069W        W80933   1.095   0.358  10.616  0.0993  0.1314  0.0897
80070W        W80934  27.068   0.250   7.068  0.0087 -0.0417  0.0940
80071W        W80935   1.092   1.180   8.908  0.4037  0.0264  0.1066
80072W        W80936  27.970   1.337   7.915 -0.0524 -0.0619  0.0289
80073W        W80937  24.294   5.056   7.752  0.2503  0.0466 -0.1937
80074W        W80938  25.052   1.115  12.397  0.0444 -0.1802 -0.0347
80075W        W80939  27.180   4.541  10.234  0.1102 -0.0676 -0.1650
80076W        W80940  28.599   2.762   8.057  0.1948  0.0522  0.2058
80077W        W80941  26.853   2.587   8.646 -0.0808  0.2800  0.2037
80078W        W80942  25.796   2.300   7.884 -0.0995 -0.2212  0.2051
80079W        W80943  27.332   2.240  10.404 -0.2999  0.0054 -0.0805
80080W        W80944  28.068   2.565   7.014  0.0634  0.2682  0.0903
80081W        W80945   1.916   2.981   6.789  0.0052  0.0516 -0.0682
80082W        W80946  25.202   1.897  10.395 -0.0486 -0.1404 -0.2391
80083W        W80947  25.544   4.127   8.696 -0.0999 -0.3244 -0.0115
80084W        W80948  22.892   0.769   6.605  0.1117 -0.0813  0.1495
80085W        W80949  28.539  28.090   7.206  0.0287  0.0012  0.0289
80086W        W80950  24.737   4.371  10.357  0.0934 -0.2523  0.0452
80087W        W80951  27.882   1.761   8.168 -0.1244 -0.2486 -0.1919
80088W        W80952  26.791   0.999   6.524 -0.0598  0.0031  0.1821
80089W        W80953  25.467   1.975   7.612  0.0602  0.3323 -0.0546
80090W        W80954  24.111   3.233  12.951  0.0109  0.0540 -0.2117
80091W        W80955  27.632   0.813   7.744 -0.0602 -0.0398 -0.1113
80092W        W80956  27.593  27.759  10.568  0.0260  0.1333 -0.0822
80093W        W80957  28.647   0.860   9.983  0.1380  0.1448  0.1184
80094W        W80958  25.425   0.713   6.488 -0.1183 -0.0998 -0.0972
80095W        W80959  26.056   0.263   5.049 -0.1270  0.0687 -0.1520
80096W        W80960  27.813   1.320  10.034 -0.2420 -0.0695 -0.0545
80097W        W80961  26.009  28.565   8.299  0.2818  0.2968  0.3341
80098W        W80962   0.479   3.033  11.100 -0.1514 -0.3462  0.1036
80099W        W80963  27.152   1.077   7.875 -0.0491 -0.1641  0.1121
80100W        W80964   0.808   5.410   8.667 -0.3393 -0.1455 -0.2459
80101W        W80965  27.944   1.047   9.000  0.1812  0.2726  0.1112
80102W        W80966   0.329   2.597   6.979 -0.1480 -0.1710 -0.1170
80103W        W80967  25.608   3.150  10.651  0.3204 -0.0202 -0.1132
80104W        W80968  25.959   2.283   6.642 -0.0929  0.0435 -0.0393
80105W        W80969  25.522   1.543  11.745  0.1592  0.1958  0.1324
80106W        W80970  26.028   2.351   7.366  0.1552  0.1003  0.2532
80107W        W80971   0.188   1.063   9.384  0.1811 -0.3290  0.1164
80108W        W80972  27.223   1.435   9.192  0.4735 -0.2140  0.0812
80109W        W80973  26.115   0.444   8.002  0.2981  0.0292 -0.0339
80110W        W80974  24.994  26.503   8.896 -0.0387  0.2387  0.1443
80111W        W80975  28.976   0.319   9.526  0.1376 -0.1772  0.0516
80112W        W80976  26.784   0.375  11.819  0.0647  0.0728  0.1986
80113W        W80977  28.155  27.082   8.876 -0.2189 -0.1427  0.0337
80114W        W80978  27.765   3.173  10.128 -0.0342  0.2808  0.0678
80115W        W80979  27.523   2.179   9.165  0.0531 -0.1520  0.2149
80116W        W80980   0.190   4.277  11.508  0.1594 -0.1181  0.2435
80117W        W80981  26.689   1.138   7.802  0.1545  0.2052 -0.2369
80118W        W80982  26.529   1.324   9.516  0.1029  0.0767  0.0527
80119W        W80983  25.953   0.550  11.325 -0.0701  0.1030 -0.0696
80120W        W80984  23.959   2.109  10.939 -0.2057  0.1418 -0.0347
80121W        W80985  27.364   0.911   5.667 -0.1041  0.1010  0.1498
80122W        W80986  27.793   0.630  11.582  0.1202  0.2041 -0.0597
80123W        W80987  28.967   1.410   7.343 -0.0137 -0.1005 -0.0829
80124W        W80988  28.922   0.856   9.554 -0.0095  0.1546  0.1143
80125W        W80989  27.902   3.275   9.097 -0.0298  0.0434 -0.3348
80126W        W80990  26.398  28.106   7.031 -0.1260 -0.1381 -0.2175
80127W        W80991  28.887   1.339   9.289 -0.1819 -0.0336  0.1750
80128W        W80992   1.493   2.091   4.291  0.1603  0.0121 -0.2665
80129W        W80993  26.668   0.648   7.762  0.0536 -0.0623  0.2176
80130W        W80994  26.502   1.053   6.055  0.0167  0.2272  0.0245
80131W        W80995  27.531   3.389   8.251  0.0305  0.0902  0.3659
80132W        W80996   1.467   0.655  12.718  0.4004 -0.0640 -0.2434
80133W        W80997  27.578   1.789  10.144  0.0921  0.2161  0.2273
80134W        W80998  28.257   5.430   9.366 -0.3456 -0.0354 -0.1672
80135W        W80999  26.334  29.063  11.783 -0.0340 -0.0982  0.1383
80136W        W81000  27.333   3.342  10.404  0.0461  0.0338 -0.1255
80137W        W81001  25.720   1.055  11.576 -0.2296  0.0145 -0.1594
80138W        W81002  23.548   4.763  11.199  0.0771 -0.2387  0.1671
80139W        W81003  28.045   0.929   8.181  0.0882 -0.0854 -0.0479
80140W        W81004   2.792  28.812  11.448  0.2149  0.1842  0.0805
80141W        W81005  27.631   2.734   9.124 -0.1316 -0.0929 -0.0070
80142W        W81006   0.457   1.880   7.593 -0.2544 -0.3956  0.0187
80143W        W81007  26.508   2.208   9.833  0.2306  0.0477  0.1181
80144W        W81008  28.676  28.722  11.194  0.0860  0.0871 -0.2147
80145W        W81009  28.555   1.065  10.601 -0.1022 -0.0160  0.1268
80146W        W81010  28.680  28.126   8.839 -0.1249  0.3254  0.0883
80147W        W81011  28.679   1.829   7.698  0.3052 -0.1459  0.1453
80148W        W81012   1.904   2.656   5.181 -0.4078  0.0612 -0.0402
80149W        W81013  28.579   1.687   7.068  0.1871 -0.3489  0.1036
80150W        W81014   2.778   3.144   8.367 -0.1920 -0.1481 -0.2506
80151W        W81015   2.081   3.846   5.627  0.0116  0.1795  0.0348
80152W        W81016  26.507   2.572  10.511 -0.3082 -0.1414  0.1023
80153W        W81017  27.542   1.023   9.756  0.0079  0.1875  0.4218
80154W        W81018  27.427  28.475   7.310  0.2860  0.0825 -0.0577
80155W        W81019  24.822   4.302  11.234 -0.1481  0.1212  0.2338
80156W        W81020  29.009   1.264   9.870 -0.4535  0.0059 -0.1370
80157W        W81021  22.855   4.195  10.852  0.0179 -0.2725  0.0543
80158W        W81022  27.399   1.597   8.309  0.1669  0.1108 -0.1082
80159W        W81023  28.283   1.052   8.625 -0.2767  0.0612 -0.1377
80160W        W81024  27.568   3.080   9.585 -0.0870 -0.0872 -0.0434
80161W        W81025  27.749  26.414   9.233 -0.3804 -0.1951 -0.4107
80162W        W81026  27.684   0.347   8.031 -0.0135 -0.3988 -0.2563
80163W        W81027  25.990   1.927  11.099  0.2619 -0.0603 -0.1002
80164W        W81028   0.221   1.588   6.776 -0.1871  0.3356 -0.0897
80165W        W81029   1.277   1.293  10.321  0.1548  0.4252  0.0631
80166W        W81030  28.594   0.303   8.041  0.0416 -0.0465  0.0839
80167W        W81031  26.647   3.471   9.153  0.2342  0.0564 -0.0497
80168W        W81032  24.927   0.131   9.612 -0.1354  0.0874 -0.3439
80169W        W81033   0.656  28.641   7.306  0.0392 -0.0379  0.3619
80170W        W81034  23.048   2.403   7.107 -0.0053  0.1777 -0.1155
80171W        W81035   0.349   0.127   7.815 -0.1502  0.1600 -0.2027
80172W        W81036  26.573   3.618  11.160  0.0228  0.3670  0.0768
80173W        W81037  25.448  27.510   9.524  0.2285  0.3594  0.1432
80174W        W81038   0.595   0.997  10.907  0.0829 -0.0236  0.2604
80175W        W81039  25.400   3.605  10.859  0.1149 -0.2037  0.3200
80176W        W81040  27.316   0.228   8.323 -0.0783 -0.2943  0.1557
80177W        W81041  25.448   4.258  11.388 -0.0381 -0.2530 -0.2156
80178W        W81042  28.800   1.345  11.597  0.1974  0.3919 -0.2307
80179W        W81043  26.247   1.421   7.834 -0.1000  0.0121  0.0389
80180W        W81044  27.191   3.934   9.598  0.2955 -0.1250  0.1819
80181W        W81045  28.283   1.256   6.572  0.2004 -0.1265 -0.0678
80182W        W81046  27.418  27.918   7.371 -0.4527  0.1607  0.0869
80183W        W81047  28.905   1.044   8.393 -0.1259 -0.0861 -0.2189
80184W        W81048  25.244   0.090   8.076  0.4492 -0.0760  0.0093
80185W        W81049  28.048   3.667   8.130 -0.3361  0.2047  0.1013
80186W        W81050  25.811  28.004   8.373 -0.1109  0.2711  0.1465
80187W        W81051  26.090  28.429   5.423 -0.1021  0.1083  0.0262
80188W        W81052  28.026  28.559  10.579  0.4599  0.0789 -0.0623
80189W        W81053  25.338   1.484   9.895  0.0272  0.1158  0.0869
80190W        W81054   0.724   3.684  12.329 -0.0767 -0.0337  0.2677
80191W        W81055   0.618   3.358  10.245 -0.0837 -0.1740 -0.2567
80192W        W81056  27.535  28.155   8.733 -0.1936 -0.2129 -0.2831
80193W        W81057  25.880   1.665  13.293 -0.0030 -0.2322 -0.1298
80194W        W81058  25.837  27.860   6.567 -0.1006  0.1114  0.0836
80195W        W81059  27.983   2.012   9.300  0.1509  0.1791  0.2403
80196W        W81060  25.781   4.671  11.181  0.1677 -0.0717  0.3250
80197W        W81061  25.806   1.065   6.262  0.2595 -0.0470 -0.1165
80198W        W81062  28.510   2.504   7.321 -0.0486  0.1963  0.2849
80199W        W81063  26.305   2.347   7.890 -0.3954 -0.0333 -0.2091
80200W        W81064  25.373   2.357  10.237  0.1808 -0.3149  0.0886
80201W        W81065  27.919   2.255   8.122 -0.0759 -0.2996 -0.0020
80202W        W81066  27.760  28.131   7.670  0.0491 -0.2722 -0.0610
80203W        W81067   2.322  28.001   4.261  0.0269 -0.0447 -0.0792
80204W        W81068  23.953   3.183  12.031 -0.1985 -0.0187 -0.0455
80205W        W81069  24.287   2.431  10.396 -0.0625  0.2304  0.1848
80206W        W81070  24.479   0.987   7.070  0.1332 -0.0466  0.0039
80207W        W81071  26.966   1.799   9.517  0.1746  0.2268 -0.1793
80208W        W81072  25.043   2.571   6.741  0.3255  0.3360 -0.1229
80209W        W81073   1.153   3.105   8.147  0.1116  0.1810 -0.3861
80210W        W81074  27.022   1.997   8.182  0.0329 -0.0500  0.0487
80211W        W81075  27.554  28.662   7.763 -0.1720 -0.0319 -0.0683
80212W        W81076   0.007   1.191   8.865 -0.0568 -0.2645 -0.0246
80213W        W81077  28.307   2.123   9.855 -0.0543  0.1958 -0.1285
80214W        W81078  29.061   2.940   8.378 -0.2096 -0.1459  0.0208
80215W        W81079  23.460   0.239   7.286 -0.0698 -0.0231 -0.2349
80216W        W81080  28.249   3.862   9.551 -0.0213  0.4195  0.0387
80217W        W81081  27.493  28.765   9.111 -0.0118  0.3932  0.2005
80218W        W81082  26.771   1.715   8.549  0.1479  0.1991  0.1930
80219W        W81083  28.262   3.134   9.917  0.3098  0.1055  0.0695
80220W        W81084  28.214  28.200   8.025  0.0357 -0.2234  0.1797
80221W        W81085  26.324  25.756  11.100  0.0005 -0.1923  0.0421
80222W        W81086  27.489   1.476   9.629  0.1122 -0.0854  0.0542
80223W        W81087  25.893   0.814   6.662 -0.0823  0.3816 -0.0123
80224W        W81088  28.536   2.039  10.631 -0.2924 -0.1385 -0.1244
80225W        W81089  26.327   0.125   9.789  0.0248  0.0982  0.2054
80226W        W81090  27.465   0.419  10.104 -0.1004 -0.2565 -0.0506
80227W        W81091  27.975  28.861   9.085  0.0842  0.1372 -0.0711
80228W        W81092  26.260   1.141   6.493  0.0902  0.2713 -0.0597
80229W        W81093  29.103   0.998  11.821  0.0372  0.0126 -0.0622
80230W        W81094   2.423   1.456   5.585 -0.2089 -0.1183  0.0715
80231W        W81095  27.097  29.095   9.333 -0.1627 -0.1166 -0.0480
80232W        W81096  26.567   1.219  10.071  0.0338 -0.2416 -0.0254
80233W        W81097  26.940   1.943   7.186  0.0275 -0.0633  0.2661
80234W        W81098  25.711   1.817   9.103  0.1713 -0.0509 -0.2681
80235W        W81099   0.407  27.856   6.980  0.1176  0.1053 -0.1312
80236W        W81100  24.985   5.877   8.650 -0.0576  0.0328  0.2221
80237W        W81101  24.997   2.383   8.545  0.2617  0.2129  0.2737
80238W        W81102  24.698   2.211  10.697 -0.0277 -0.0671  0.0441
80239W        W81103  29.043   1.207  10.440 -0.1444  0.3546 -0.1848
80240W        W81104  28.055   2.790   8.271 -0.1095  0.3252 -0.1820
80241W        W81105  28.358  28.212  10.432  0.2210  0.0841 -0.3609
80242W        W81106  28.129   1.420  11.439 -0.1240  0.2833 -0.2122
80243W        W81107   0.785   1.375   8.124 -0.0024 -0.0652 -0.1352
80244W        W81108  27.911   1.318   7.410  0.1967 -0.1549  0.1053
80245W        W81109   1.915   5.048   6.398  0.0523 -0.1456  0.0702
80246W        W81110  26.531   3.351  11.620  0.0706 -0.1222  0.1130
80247W        W81111  26.467   3.685  13.005 -0.0284 -0.0876 -0.3039
80248W        W81112   0.906   0.342  11.431  0.3095  0.0856  0.2192
80249W        W81113  26.730   0.683  10.407  0.1576  0.1233  0.0313
80250W        W81114  28.530   3.630  11.808 -0.0889  0.1232  0.3044
80251W        W81115  26.201   0.649   5.387 -0.0120  0.1940 -0.4869
80252W        W81116   1.596   3.954   7.348  0.0626  0.2366  0.0984
80253W        W81117  27.084  28.878  10.472  0.0456  0.1295 -0.0419
80254W        W81118  24.941   3.091   8.939  0.1152  0.1555  0.1357
80255W        W81119   0.739   0.494  11.928  0.0256 -0.0343 -0.0947
80256W        W81120  28.358   1.725   9.406 -0.0172  0.1257  0.3897
80257W        W81121  28.572   5.077  11.862  0.0429 -0.0024 -0.0156
80258W        W81122  27.813  27.164  10.702 -0.0026  0.1866  0.1233
80259W        W81123  27.142   2.005  10.908  0.1528  0.1305 -0.1808
80260W        W81124  26.036   1.423   7.377  0.0437 -0.3735 -0.0637
80261W        W81125  27.245   4.354   8.382  0.1533  0.3425 -0.1012
80262W        W81126  25.580   1.176  12.091 -0.2325  0.0919 -0.1279
80263W        W81127  29.145   1.700   7.786  0.0859  0.0465 -0.0832
80264W        W81128  29.097   1.894   7.339 -0.0547  0.1014 -0.0662
80265W        W81129  27.366   1.544  10.848 -0.0635  0.3477  0.0092
80266W        W81130   0.287   2.675   8.540 -0.0622 -0.2599 -0.0901
80267W        W81131  27.880   3.722   9.192  0.0619  0.0799  0.1017
80268W        W81132  27.677   2.763   6.557  0.1061 -0.0629  0.2249
80269W        W81133  24.073   3.039  10.567  0.1748 -0.0341 -0.1485
80270W        W81134  26.312   0.647  10.009 -0.3192  0.0735 -0.1421
80271W        W81135  27.233   0.792   8.605  0.1268  0.5123  0.0525
80272W        W81136  26.538  27.700   6.723  0.2332 -0.0441  0.1517
80273W        W81137  26.436   3.437   7.334 -0.1722  0.0791  0.0496
80274W        W81138  28.983   2.262   7.668 -0.1596 -0.1791  0.0610
80275W        W81139  24.341   3.945  12.719 -0.4216 -0.1424  0.0081
80276W        W81140  28.201   0.169   7.399  0.0169  0.2959  0.0571
80277W        W81141  26.305   0.442   8.882 -0.5793  0.1452 -0.1050
80278W        W81142  27.798   0.598   9.401  0.1026 -0.0299  0.1985
80279W        W81143  25.842   3.835   9.619  0.0813  0.1199 -0.1459
80280W        W81144  27.031   2.853   9.553  0.1417 -0.1747  0.0746
80281W        W81145  28.442   0.571  10.392 -0.0124 -0.1708  0.2552
80282W        W81146  27.269   2.589   5.514 -0.3171 -0.0143  0.2051
80283W        W81147   0.259   3.161   8.676 -0.0397  0.2349  0.1530
80284W        W81148  28.713  27.629   8.019 -0.0197 -0.0424 -0.2689
80285W        W81149  26.117  28.375  12.230 -0.2096 -0.0904 -0.1506
80286W        W81150  25.747   2.831   9.121  0.3994 -0.0076 -0.0269
80287W        W81151   1.635   1.351  11.236  0.0323  0.1155 -0.1164
80288W        W81152  25.973  28.863   6.759 -0.2874 -0.2152 -0.1144
80289W        W81153  26.421  28.778  11.335 -0.1210 -0.3189  0.0906
80290W        W81154   1.754   2.199  11.098 -0.2858 -0.1311  0.2012
80291W        W81155  26.263   2.182  11.402  0.1361 -0.1428 -0.1010
80292W        W81156  26.548   2.493   9.162  0.0996  0.0997  0.0116
80293W        W81157  24.675   3.101  10.311 -0.2449  0.1048  0.4156
80294W        W81158  27.866   1.329   8.511 -0.0176  0.2092 -0.0682
80295W        W81159  29.103   1.197   7.934  0.1562  0.0666  0.1356
80296W        W81160  27.961   5.223  10.692 -0.0281 -0.1540  0.0755
80297W        W81161  28.585   0.012   9.291  0.1853 -0.2056 -0.0521
80298W        W81162  26.046   1.778   6.478 -0.3628  0.1469  0.1036
80299W        W81163  28.691   0.215  11.272  0.2013 -0.1437 -0.1757
80300W        W81164  29.003   0.900  10.846 -0.2258 -0.2386  0.0219
80301W        W81165  27.165   2.159   8.677 -0.0885 -0.2426  0.1857
80302W        W81166  27.814   2.498   8.601  0.1754 -0.0235  0.2965
80303W        W81167   0.793   1.467  10.900  0.4409 -0.0504  0.0509
80304W        W81168  25.772   0.028   9.656 -0.1290  0.0052 -0.1820
80305W        W81169  26.951   1.089   8.971  0.2628  0.0688  0.2089
80306W        W81170  27.934   0.739   5.840  0.0689  0.0768 -0.0072
80307W        W81171  24.409   4.027  11.166  0.1532  0.1482  0.2074
80308W        W81172  28.501   0.199   8.782 -0.1228  0.1745 -0.3215
80309W        W81173   0.930  28.389   6.454  0.3049  0.0973 -0.3670
80310W        W81174  28.058   1.534   8.939  0.0079 -0.0962  0.0088
80311W        W81175  28.098   2.524  10.158  0.3616 -0.1524 -0.1966
80312W        W81176   1.097   1.779  10.317 -0.0621 -0.1942 -0.3025
80313W        W81177   0.026   1.733  10.502 -0.2413  0.1860 -0.1071
80314W        W81178   1.001   2.857  11.088  0.0162  0.2539  0.0787
80315W        W81179  24.755   3.347   7.925 -0.2553 -0.1455 -0.0142
80316W        W81180  28.098   1.052   6.941  0.1164  0.3412  0.0465
80317W        W81181  27.321   3.131   7.919 -0.0029 -0.0020  0.0955
80318W        W81182  27.129   0.395   6.535  0.0843 -0.0077 -0.1769
80319W        W81183  27.233   1.691   6.846  0.3254 -0.2599 -0.5229
80320W        W81184  26.526   2.868   9.551 -0.1531 -0.0547  0.0839
80321W        W81185  25.790   1.394  11.199 -0.4192  0.1582 -0.1999
80322W        W81186  27.838   2.845  10.837 -0.0176 -0.0414 -0.0194
80323W        W81187  28.591   0.807   8.108 -0.0905  0.1163 -0.0588
80324W        W81188   1.296  28.662   7.952 -0.2288 -0.3437 -0.0016
80325W        W81189   1.423   2.545  11.058 -0.1324 -0.0626 -0.2482
80326W        W81190  25.936   0.265  11.793 -0.1767  0.0972 -0.0790
80327W        W81191  28.434   4.292  10.849 -0.1052  0.0071 -0.3601
80328W        W81192  23.736   1.529   5.505 -0.0474 -0.2810 -0.1359
80329W        W81193  24.408   1.388  12.920 -0.2077 -0.0407 -0.0019
80330W        W81194  28.337   5.000  10.929  0.1131  0.0043 -0.2344
80331W        W81195   1.953   1.241   7.742  0.1620  0.0099 -0.3248
80332W        W81196  27.570   3.481   6.124 -0.0478 -0.2354 -0.0520
80333W        W81197  26.218   2.968   9.168 -0.0098  0.0966 -0.4159
80334W        W81198  27.542   1.072   8.162 -0.0909  0.0324 -0.0401
80335W        W81199  26.586  28.799   7.481  0.2024  0.0307  0.1559
80336W        W81200  26.467   1.002   9.124  0.1741 -0.1267 -0.3225
80337W        W81201  25.726   3.659  10.424  0.3682  0.2940 -0.2780
80338W        W81202  27.453   1.936   7.879  0.1347 -0.0976  0.1624
80339W        W81203  26.807   1.542  11.029 -0.0052 -0.0469  0.0385
80340W        W81204  28.220   0.926   7.649  0.0768 -0.3472  0.2061
80341W        W81205  25.134   3.319   8.490 -0.1010 -0.0411 -0.3091
80342W        W81206  23.458   3.610  10.533 -0.2183 -0.1990 -0.1149
80343W        W81207  27.671   2.791  12.362  0.2958 -0.2837 -0.0910
80344W        W81208  26.931  28.454   7.583 -0.1442  0.1410 -0.0388
80345W        W81209   0.463   0.531   8.979 -0.0477  0.2086 -0.1995
80346W        W81210   1.651   3.056  11.129 -0.2067  0.0009 -0.3799
80347W        W81211  28.503   0.664  10.936  0.2790 -0.3055  0.1553
80348W        W81212  25.002   4.786  10.028 -0.0430  0.0225 -0.1125
80349W        W81213   1.685   0.801   7.645  0.0742 -0.1811  0.1034
80350W        W81214  28.086  28.744   8.233 -0.0430 -0.2532  0.2038
80351W        W81215  28.951   2.032  10.939 -0.0223  0.0181  0.0670
80352W        W81216  28.086   2.830   8.852 -0.0338  0.1352  0.0818
80353W        W81217  27.255   3.100   9.212 -0.1389  0.1754  0.1801
80354W        W81218  25.096   0.290   9.071 -0.1412  0.5377 -0.0557
80355W        W81219  24.457   2.664   7.882  0.1115 -0.2331 -0.0638
80356W        W81220  25.663   4.236   6.305 -0.0811 -0.3017 -0.0471
80357W        W81221  24.195   3.534   7.937  0.0019  0.1256 -0.2626
80358W        W81222  27.554   1.104   9.280  0.4283  0.2190  0.0196
80359W        W81223   2.617  27.391   4.843 -0.0648 -0.4311 -0.0473
80360W        W81224  25.340   1.615   8.864  0.0536  0.0078 -0.1418
80361W        W81225  26.460   3.950  11.587 -0.4767 -0.1905  0.0544
80362W        W81226   0.285   0.813  10.415  0.1239 -0.3936  0.4038
80363W        W81227  28.204   2.224  12.404 -0.1334 -0.0133  0.1027
80364W        W81228  28.444   3.007  12.566 -0.0576 -0.2238  0.1208
80365W        W81229  28.778   1.691   9.663  0.1633  0.0874 -0.0086
80366W        W81230  28.588   2.267  11.566 -0.1596  0.2987  0.0881
80367W        W81231  28.924  28.921   5.577 -0.1054  0.1554  0.0024
80368W        W81232  26.277   0.927   8.003  0.3607 -0.2057  0.0064
80369W        W81233  26.244   1.893   8.834  0.0541 -0.1538  0.1612
80370W        W81234  26.747  28.966   7.930 -0.0797  0.3246 -0.0389
80371W        W81235  24.968   3.499  10.517  0.0690 -0.1413 -0.1282
80372W        W81236  26.780   2.421   6.800 -0.0555  0.1030  0.1804
80373W        W81237  27.971   4.349   9.471  0.1639 -0.2085  0.3153
80374W        W81238  25.848   1.272  10.066 -0.0171 -0.0051 -0.0147
80375W        W81239  25.224  28.913   9.015 -0.0191 -0.1733 -0.1846
80376W        W81240  26.078   2.230   8.344 -0.0999  0.3539 -0.3954
80377W        W81241  25.445   0.336   9.392 -0.1312  0.1419  0.1614
80378W        W81242  27.061   1.250   8.439 -0.2761  0.1997 -0.0220
80379W        W81243  27.770   2.687   6.064  0.0569  0.4483 -0.0719
80380W        W81244  28.552   3.882  10.260  0.0951  0.1077  0.0302
80381W        W81245  27.441   2.864  10.394  0.1183  0.1528  0.1930
80382W        W81246  27.434   3.537   7.045  0.0129  0.0123  0.2669
80383W        W81247   0.626   0.010  10.013  0.0055  0.2583  0.1049
80384W        W81248  24.858   2.222  12.676 -0.1828  0.0519 -0.0199
80385W        W81249  27.149  28.691   9.633  0.0224  0.1486  0.2028
80386W        W81250  23.600   1.773  12.525  0.3747 -0.1312 -0.0415
80387W        W81251   0.014  28.757   6.892 -0.1777 -0.0681 -0.0153
80388W        W81252  26.942   0.472   4.855 -0.1269  0.1523 -0.4640
80389W        W81253   0.266   1.845  11.870  0.1043 -0.1528 -0.2975
80390W        W81254  26.709  27.570   9.365 -0.1601  0.1965  0.2655
80391W        W81255   0.467   0.498  10.007  0.0048 -0.0918  0.0649
80392W        W81256   2.024   2.299   9.749 -0.0769  0.0127 -0.1412
80393W        W81257   1.472   2.095  10.599 -0.2544 -0.1673 -0.4313
80394W        W81258  29.091   2.597   8.043  0.0428 -0.1619 -0.0141
80395W        W81259  28.453  28.617   8.978 -0.3519 -0.0969 -0.1349
80396W        W81260  27.625   1.314   6.847  0.3951 -0.0949  0.1391
80397W        W81261  28.302  27.003   9.734  0.1719  0.0302  0.3550
80398W        W81262  26.213  28.615   7.174 -0.1061  0.0724 -0.0876
80399W        W81263   1.440  28.178  10.341 -0.2545 -0.3943  0.0016
80400W        W81264  27.122   3.412   7.465  0.0234 -0.0729 -0.2082
80401W        W81265  28.211   1.106  10.941 -0.2409 -0.0008  0.0094
80402W        W81266  27.526   2.098   8.351  0.1822 -0.0369 -0.0594
80403W        W81267  26.200   0.448  10.543  0.0774  0.0740  0.2100
80404W        W81268  27.646  28.826   9.591 -0.0039 -0.3699  0.0484
80405W        W81269   1.918   2.829   8.515 -0.2334  0.2657  0.1088
80406W        W81270  28.674   1.877  10.135 -0.1148 -0.0028 -0.0337
80407W        W81271  25.751   1.509   9.592 -0.3083  0.2085 -0.3429
80408W        W81272  27.106   1.586  11.596 -0.0461 -0.1069 -0.0823
80409W        W81273  26.157   5.158   9.797 -0.0355  0.1356  0.1722
80410W        W81274  27.220   0.846  10.463  0.0529 -0.3195  0.0464
80411W        W81275   0.887   1.315   9.874 -0.5006  0.0643 -0.0832
80412W        W81276  28.888   3.336  12.578  0.1867 -0.5133  0.1607
80413W        W81277   2.498  27.086  11.724  0.2381 -0.0310 -0.1333
80414W        W81278   0.913   2.648   8.498  0.0224 -0.0323 -0.0796
80415W        W81279  27.738   2.755   9.883  0.1075  0.0751  0.1526
80416W        W81280  28.248   1.552  10.602  0.1249 -0.0070 -0.1222
80417W        W81281  28.178   2.475   9.173  0.0041  0.0745  0.0496
80418W        W81282   0.239   2.506  10.983  0.1524  0.2499  0.0777
80419W        W81283  24.421   3.829   9.241  0.1027  0.1739  0.0290
80420W        W81284   1.363   1.876  11.002  0.1746 -0.3987  0.1452
80421W        W81285  25.943   3.818   8.375  0.2148  0.0336 -0.0804
80422W        W81286  25.763   1.938   8.625  0.0259 -0.1337  0.2734
80423W        W81287  28.927   0.680  10.395  0.0550  0.1411 -0.1580
80424W        W81288  24.916   3.546   6.335  0.2210 -0.2439  0.0718
80425W        W81289   0.188   2.889  12.103  0.1881  0.0445 -0.0643
80426W        W81290  25.205   1.537   7.528  0.3729  0.0096 -0.0310
80427W        W81291  24.861   0.056   5.915 -0.2142 -0.0218  0.1568
80428W        W81292  24.194   5.383  14.802 -0.1683 -0.0915  0.2137
80429W        W81293  25.687   3.622  13.639  0.2840  0.1502  0.1663
80430W        W81294   0.667   2.784  14.593 -0.0386 -0.0892 -0.2299
80431W        W81295  26.793   3.346  12.804  0.1173 -0.0333 -0.1214
80432W        W81296  24.880   1.776  11.999 -0.1043 -0.1114 -0.1930
80433W        W81297  26.958   0.714  14.246 -0.1162 -0.2043 -0.3076
80434W        W81298  25.708   1.984  11.962  0.1453  0.1980 -0.0543
80435W        W81299  26.576   4.237  11.953 -0.3165  0.2195  0.1078
80436W        W81300  24.117   3.081  15.576 -0.0877  0.2301  0.1056
80437W        W81301  27.607   2.807  14.154  0.1129  0.0027  0.1030
80438W        W81302  27.465   0.822  15.525  0.0861 -0.2250 -0.1553
80439W        W81303   0.106   3.763  12.500  0.0747 -0.0012 -0.0214
80440W        W81304  25.778   2.485  13.174  0.4819  0.1592  0.1059
80441W        W81305  27.257  28.488  13.522 -0.0740 -0.2170 -0.0641
80442W        W81306  23.837   1.727  11.660 -0.0955  0.3446 -0.0512
80443W        W81307  27.923   1.891  13.951  0.1973  0.2459  0.0717
80444W        W81308  28.021   2.152  13.161 -0.0308 -0.0650 -0.0184
80445W        W81309  25.722   2.678  14.370 -0.0818 -0.0794  0.0625
80446W        W81310  27.828   2.053  12.685  0.0548  0.1133  0.2984
80447W        W81311  28.662   1.556  15.048 -0.0484 -0.1145  0.0523
80448W        W81312  27.502   2.250  14.003  0.0269  0.0566  0.0248
80449W        W81313  25.992   1.804  11.591 -0.0423  0.2815  0.2775
80450W        W81314  28.636   1.198  13.781  0.0730 -0.0842  0.4651
80451W        W81315  28.538   3.252  12.145  0.0405  0.1826 -0.1541
80452W        W81316  28.240   2.576  10.638 -0.0135  0.0769 -0.0444
80453W        W81317  26.924   2.493  10.785 -0.0479  0.0657  0.0145
80454W        W81318   2.968   2.110  11.697  0.1186  0.0349  0.1478
80455W        W81319  24.553   2.789  10.701  0.1663 -0.1700  0.1182
80456W        W81320  27.429   3.145  15.626  0.0428  0.2255 -0.1510
80457W        W81321  26.805  28.481  11.849 -0.0349 -0.3070 -0.1334
80458W        W81322  25.423   2.241  13.821  0.0904  0.5129 -0.0803
80459W        W81323  23.454   1.025  13.889  0.0126  0.1123  0.0238
80460W        W81324  26.092   2.912  12.428 -0.1300  0.3703 -0.2229
80461W        W81325  27.446  28.864  14.203 -0.0865  0.0522 -0.0352
80462W        W81326  24.669  28.125  19.128  0.1689 -0.0063  0.1117
80463W        W81327  28.359   4.887  14.400 -0.1441 -0.0871  0.0596
80464W        W81328  24.949  28.941  12.635  0.0489 -0.0851  0.1336
80465W        W81329  26.430   2.110  12.777  0.3384  0.0091 -0.1108
80466W        W81330  28.742   0.577  13.975 -0.1155  0.3253  0.0032
80467W        W81331  28.415   2.586  16.491 -0.2321  0.0146  0.0446
80468W        W81332   0.508   0.072   9.482 -0.2492  0.3698 -0.1876
80469W        W81333   1.534   3.188  12.031 -0.1920 -0.3988 -0.0868
80470W        W81334  27.563   2.819  12.896  0.0602 -0.0482 -0.1482
80471W        W81335  28.491   4.302  12.127  0.0839  0.1762  0.1861
80472W        W81336  26.771   4.247  10.298 -0.2735 -0.0902 -0.2105
80473W        W81337  27.093   2.683  12.955 -0.0744  0.0250 -0.0742
80474W        W81338  25.697  28.652  13.216 -0.3050  0.2405  0.2893
80475W        W81339  27.880   0.464  16.214 -0.2390 -0.0134 -0.0853
80476W        W81340  28.952   3.605  13.656  0.2964  0.1807 -0.0912
80477W        W81341  28.565   2.924  10.895 -0.3204  0.2338 -0.0380
80478W        W81342  26.924   5.220  10.591  0.0177  0.1380 -0.2496
80479W        W81343   0.125   0.202  14.046 -0.0286 -0.0039 -0.2392
80480W        W81344  27.445   0.298  15.415  0.1341 -0.0664 -0.0196
80481W        W81345   1.662   2.188  12.067 -0.0236  0.3527 -0.4790
80482W        W81346   0.213   1.623  13.396  0.0080 -0.0440  0.0655
80483W        W81347  28.814   3.997  13.181  0.3841 -0.2488 -0.0450
80484W        W81348  24.071   0.786  12.127  0.0349 -0.2470  0.0241
80485W        W81349   1.609   1.434  12.456  0.1355 -0.0014  0.1155
80486W        W81350  27.390   1.901  12.850  0.1423  0.0273  0.0233
80487W        W81351  26.731   1.851  11.464  0.1042  0.1673 -0.3416
80488W        W81352  26.148   1.044  11.185  0.1542 -0.1920  0.1122
80489W        W81353  23.094   7.250  12.244  0.0584 -0.1900 -0.0664
80490W        W81354  26.308   4.008  11.054 -0.0662  0.0141  0.2707
80491W        W81355  26.617   2.143  11.052 -0.3758 -0.0715  0.2450
80492W        W81356  28.817   0.471  13.201 -0.2203  0.4184 -0.0892
80493W        W81357   0.754   0.007  12.378  0.3979  0.1225  0.0784
80494W        W81358  26.475   2.116  14.440 -0.3366 -0.1013  0.0073
80495W        W81359  27.447   1.179   8.821  0.3721 -0.0865 -0.1523
80496W        W81360  23.819   2.667  12.280  0.1197  0.1239 -0.1353
80497W        W81361  28.044   3.694  14.074  0.1096  0.0372 -0.1014
80498W        W81362  27.601   5.501  12.628 -0.1530 -0.0358  0.0665
80499W        W81363  28.074   1.699  12.957  0.2553  0.0529  0.0387
80500W        W81364  25.705   3.236  11.190 -0.1860  0.0475 -0.0144
80501W        W81365   0.009   2.482  15.242  0.1150 -0.2715 -0.1129
80502W        W81366  26.903   3.726  11.512  0.0233 -0.3437 -0.3173
80503W        W81367  26.311   2.529  14.868 -0.0084  0.0090  0.0508
80504W        W81368  23.326   0.776  11.564 -0.1767  0.0934 -0.0106
80505W        W81369  23.304  28.661  13.023  0.0093 -0.2304 -0.0027
80506W        W81370   0.500   2.086  12.620 -0.0372  0.1343 -0.1838
80507W        W81371  28.958   2.111  14.304  0.2359 -0.0756 -0.1645
80508W        W81372  25.483   1.662  13.046  0.1321 -0.2811  0.1547
80509W        W81373  25.014   1.792  14.090 -0.0952  0.1047  0.2312
80510W        W81374  23.282  27.641  13.531  0.0881  0.0366 -0.0391
80511W        W81375  27.038   1.315  12.854  0.3188  0.0433 -0.0733
80512W        W81376  27.950   2.300  16.112 -0.1540 -0.0598 -0.1081
80513W        W81377  25.049   0.237  11.595  0.2077 -0.1401 -0.1561
80514W        W81378   0.465   2.836  14.128  0.4672  0.2353 -0.0240
80515W        W81379  27.949   0.866  16.561 -0.2421  0.1960  0.2000
80516W        W81380  27.795   4.269  11.328 -0.0005  0.0365  0.0828
80517W        W81381  25.807   2.753  14.891  0.0814 -0.1170  0.2745
80518W        W81382   0.179   0.003  12.556  0.0268  0.0156  0.2263
80519W        W81383  26.495  28.907  15.042 -0.0535  0.0982  0.1494
80520W        W81384  22.866   3.011  14.505  0.3519 -0.1285  0.0957
80521W        W81385  27.379   1.300  10.341  0.0159 -0.0326  0.1478
80522W        W81386  24.211  27.458  14.886 -0.3581  0.0491 -0.1180
80523W        W81387   0.547   0.702  11.309 -0.0384 -0.0032 -0.0973
80524W        W81388  27.466   0.929  11.213 -0.0925  0.1322  0.0507
80525W        W81389  26.788   4.759  14.800 -0.0107  0.1185  0.0513
80526W        W81390  26.788   1.126  13.427  0.2353 -0.0256 -0.2192
80527W        W81391   1.012   2.294  13.740 -0.3358 -0.2428  0.1092
80528W        W81392  28.191   3.519  10.301 -0.1460 -0.1288  0.2131
80529W        W81393  24.011   1.266  11.903  0.3069 -0.1487 -0.0394
80530W        W81394  27.956   0.753   9.870  0.1660  0.1318  0.0657
80531W        W81395  26.178   3.081   9.820  0.1444  0.1445  0.0390
80532W        W81396   0.135   0.314  15.479 -0.0529  0.0779 -0.0520
80533W        W81397  25.901   3.025  14.077  0.0203 -0.0252  0.4564
80534W        W81398  25.023   2.868   9.845  0.0826 -0.1956 -0.0651
80535W        W81399  25.801   3.167  15.420 -0.0826 -0.1412  0.2872
80536W        W81400  27.878   1.418  14.431  0.0580 -0.0289  0.4265
80537W        W81401  25.983  28.981  13.043 -0.1496 -0.1183 -0.2114
80538W        W81402  26.213   1.038  16.064  0.0312 -0.1312 -0.0098
80539W        W81403  27.471   3.602  13.845  0.1396  0.0060  0.0537
80540W        W81404   0.127   1.755  12.909  0.0422 -0.0403 -0.1585
80541W        W81405  26.005   4.214  12.679  0.0831  0.1146 -0.2379
80542W        W81406  26.703   1.970  12.328  0.0118 -0.1023 -0.1291
80543W        W81407  26.288   3.050  11.270 -0.0830  0.0433  0.1648
80544W        W81408  27.439   0.775  12.562  0.1410 -0.1153  0.0880
80545W        W81409  25.150   1.688  12.615 -0.0632  0.1067  0.0021
80546W        W81410  25.785   1.217  13.922 -0.2013  0.1980  0.1533
80547W        W81411   2.128   0.154  13.622 -0.1060  0.3757  0.1729
80548W        W81412  27.644   1.658   9.172 -0.0058 -0.0359  0.0015
80549W        W81413   0.409   3.873  11.995 -0.1157 -0.2083 -0.2721
80550W        W81414  26.258   2.425  13.357  0.1597 -0.0139 -0.0447
80551W        W81415  25.111   2.164  11.802 -0.0559  0.1699 -0.0420
80552W        W81416   0.226   0.843  12.223 -0.0263  0.2159 -0.0124
80553W        W81417  27.449   1.007  14.489  0.1137  0.3307  0.0270
80554W        W81418  26.118   2.562  12.827  0.4232 -0.4043  0.0379
80555W        W81419  25.789   1.657  15.339 -0.3013  0.0556 -0.2120
80556W        W81420  26.307   3.645  11.931 -0.1338 -0.0288  0.1065
80557W        W81421  27.366   1.249  13.449  0.0211 -0.2106 -0.1626
80558W        W81422   0.496   2.576  12.382  0.0646  0.2753 -0.2748
80559W        W81423  27.251   2.524  14.954  0.1975 -0.0551 -0.3948
80560W        W81424  26.476   1.424  13.206 -0.0776 -0.1128 -0.2567
80561W        W81425   0.261   1.356  10.711  0.1191 -0.1183 -0.2439
80562W        W81426  28.845   3.358  10.907 -0.0968  0.1724 -0.1187
80563W        W81427  26.368  27.991  12.443  0.0215 -0.2011  0.0475
80564W        W81428  27.570   1.969  11.806  0.0848  0.1475 -0.0755
80565W        W81429  27.603   1.680  13.237  0.2678 -0.2603  0.0263
80566W        W81430  26.270   1.041  12.568 -0.0001 -0.0573 -0.1566
80567W        W81431  28.916   8.123  11.544 -0.3612 -0.0200  0.0582
80568W        W81432  26.437   2.972   8.568  0.1753 -0.1180 -0.1272
80569W        W81433  25.080   0.895  12.828 -0.0081  0.1273  0.0067
80570W        W81434  24.388   2.050   8.850 -0.2486 -0.0569  0.1381
80571W        W81435  27.722   1.677  14.882  0.0144 -0.0708  0.0091
80572W        W81436  26.497   2.627  11.051  0.2892  0.0597  0.1793
80573W        W81437   0.121   1.824  12.369  0.0089  0.5027 -0.1822
80574W        W81438  27.779   1.561  10.494 -0.0484  0.0583 -0.1319
80575W        W81439  28.256   2.315  13.652  0.1258 -0.0771  0.1066
80576W        W81440  27.095   2.180  14.371 -0.0865  0.0594  0.0925
80577W        W81441  27.185   2.598  13.789  0.0596 -0.1450 -0.1976
80578W        W81442   0.167   2.974  13.159  0.2318  0.1804 -0.1456
80579W        W81443  26.420   1.832  11.880 -0.1465  0.3680 -0.0481
80580W        W81444  28.174   3.703  14.574  0.1386 -0.1962  0.1163
80581W        W81445  26.642   0.185  10.599 -0.2668 -0.4696  0.3033
80582W        W81446  25.785   0.201  12.641  0.2054 -0.0560  0.2354
80583W        W81447  25.946   2.098  13.580 -0.0495 -0.0691 -0.0386
80584W        W81448  25.476   1.886  14.979  0.0415 -0.1800  0.1748
80585W        W81449  27.631   3.670  11.025 -0.1656  0.5007  0.0771
80586W        W81450  28.291  28.182  12.617  0.0546  0.2045  0.3008
80587W        W81451  26.077   0.043  11.303  0.0381  0.3124  0.1338
80588W        W81452  27.407   1.244  12.415 -0.2282 -0.1276  0.1240
80589W        W81453  26.576   5.050  13.048  0.1452 -0.0330  0.2388
80590W        W81454  25.018   3.213  16.834 -0.1209 -0.1481  0.1642
80591W        W81455  26.692   3.322  15.803  0.1661  0.0688  0.0428
80592W        W81456  28.046   1.539  13.468 -0.0150  0.2034  0.1466
80593W        W81457  27.052   1.665  13.212  0.0466 -0.0596 -0.0421
80594W        W81458  24.298   1.476  14.202  0.1451  0.0304  0.2592
80595W        W81459  25.471   3.738  11.318 -0.1293 -0.4525  0.1405
80596W        W81460  26.590   0.881  15.054  0.1051  0.3950 -0.0462
80597W        W81461  26.285   2.121  10.250 -0.2762  0.0986 -0.2614
80598W        W81462  27.463   3.119  11.003 -0.0633  0.2005  0.0226
80599W        W81463  26.360   1.543  10.940 -0.1599 -0.0831  0.1140
80600W        W81464  26.821   1.472  13.742 -0.0629 -0.2838 -0.0455
80601W        W81465  26.573   4.267   9.015  0.0432  0.0625  0.0217
80602W        W81466  27.974   0.390  12.301 -0.1960 -0.0827 -0.1312
80603W        W81467  29.095   1.528  11.099 -0.0992  0.1330 -0.0818
80604W        W81468  23.647   3.644  12.667 -0.0950 -0.2041  0.2498
80605W        W81469  26.534   2.641  12.993  0.4035 -0.2089 -0.0276
80606W        W81470  23.656   1.914  13.039 -0.0255 -0.1060 -0.1306
80607W        W81471  28.956  28.834  13.908 -0.1846  0.0970 -0.0138
80608W        W81472  25.507   1.844  11.309  0.2366  0.0677  0.1239
80609W        W81473  27.882   0.780  12.672  0.0324  0.3161 -0.0471
80610W        W81474  27.063   2.458   9.064 -0.2835 -0.2316  0.0724
80611W        W81475  28.835  28.041  13.411 -0.0017 -0.3146  0.0674
80612W        W81476  24.838   0.193  13.756  0.1909  0.0737 -0.0524
80613W        W81477  25.053   1.489  17.025 -0.1406 -0.2698 -0.1581
80614W        W81478  28.190   2.749  11.189  0.2295 -0.1652  0.0068
80615W        W81479  24.989   0.783   9.361 -0.1084  0.2800  0.0511
80616W        W81480  26.813   2.483  14.714 -0.1989  0.1088 -0.0880
80617W        W81481  26.872   2.362   9.539  0.2169  0.0358 -0.0635
80618W        W81482  26.926   3.996  13.187  0.3009 -0.1616 -0.3383
80619W        W81483  25.680   4.673  10.625 -0.0356 -0.0386  0.2043
80620W        W81484  23.699   2.595  14.778  0.0506 -0.0997  0.0127
80621W        W81485   0.954   1.662  14.457  0.0156 -0.2275  0.2395
80622W        W81486  26.714  27.716  13.846 -0.2318  0.0028  0.1347
80623W        W81487  28.876   1.023  14.254  0.0789 -0.1093 -0.2008
80624W        W81488  25.666   0.802  12.876  0.3831 -0.0294 -0.1004
80625W        W81489  26.753  28.953  10.949 -0.0199  0.0000 -0.0542
80626W        W81490  27.422   1.466  11.988 -0.1547  0.1312  0.3860
80627W        W81491  25.069   2.700  11.557 -0.1633  0.0282  0.3421
80628W        W81492  27.171   0.638  12.106  0.3499 -0.0636 -0.1534
80629W        W81493   1.921   2.653  11.262  0.1483  0.0741 -0.0923
80630W        W81494  26.378   0.282  12.058  0.1710 -0.0010 -0.0250
80631W        W81495  27.471  28.051  13.765 -0.0871  0.3000 -0.2177
80632W        W81496  24.971  28.911  10.848  0.2687 -0.1475  0.1898
80633W        W81497  25.016   4.753  14.037 -0.0994 -0.1092  0.0293
80634W        W81498  26.208   2.000  12.300  0.0119 -0.1933 -0.2140
80635W        W81499  28.731   3.820  10.762  0.0783 -0.1054 -0.1049
80636W        W81500  25.513   4.165  12.864 -0.2691 -0.2598  0.2906
80637W        W81501  25.624   3.945  14.712 -0.0195 -0.2893 -0.1662
80638W        W81502  25.677   1.237  13.414  0.0071  0.0265  0.2159
80639W        W81503  25.800  28.227  12.742 -0.0853 -0.1848  0.0592
80640W        W81504  27.320   3.024  12.131  0.2852  0.2830  0.1326
80641W        W81505   2.237   4.180  13.859 -0.0238  0.0892 -0.0003
80642W        W81506  29.040   3.346  11.390  0.0416 -0.2345 -0.0673
80643W        W81507  27.113   1.809  10.418  0.2816  0.3338  0.0953
80644W        W81508   0.744   4.951  11.739  0.3230 -0.2384  0.3056
80645W        W81509  26.209  28.505  14.261  0.0837 -0.1977  0.1745
80646W        W81510  27.787   3.269  16.477  0.0326 -0.3168  0.1136
80647W        W81511   0.656   3.494  13.356  0.0310 -0.0802  0.1211
80648W        W81512   2.029   1.762  12.647  0.1483 -0.4917 -0.0070
80649W        W81513  26.655   5.972  13.937 -0.3846  0.1917  0.0196
80650W        W81514  25.152  26.781  12.769 -0.0456  0.1383 -0.2580
80651W        W81515  28.527   2.893  10.278  0.1184  0.0576  0.1764
80652W        W81516  27.342  27.919  12.243  0.3069 -0.0058 -0.3526
80653W        W81517  25.741  28.796  15.756  0.3857 -0.3010 -0.3486
80654W        W81518  26.970  28.874  14.092 -0.2867 -0.2468  0.1588
80655W        W81519  28.539   4.563  12.572  0.1288 -0.0725  0.0203
80656W        W81520  27.773   4.585  11.897 -0.0040  0.3262 -0.1016
80657W        W81521  26.783   2.864  12.126 -0.4081 -0.3929 -0.4598
80658W        W81522  25.572   3.819  16.558  0.2504 -0.2517 -0.1473
80659W        W81523  27.601   3.505  12.264 -0.2436 -0.1892 -0.1456
80660W        W81524  26.907   1.607  12.056 -0.0669  0.0681  0.1489
80661W        W81525  22.898  27.681  13.085  0.1284 -0.2452  0.1288
80662W        W81526  28.516   1.807  11.127 -0.2759  0.0325 -0.0482
80663W        W81527  29.048   1.628  14.345 -0.0010  0.0188 -0.0832
80664W        W81528  25.120  28.333  16.042 -0.2303 -0.1569 -0.1175
80665W        W81529  26.593   2.404  11.772 -0.0504  0.4171  0.0014
80666W        W81530  25.849   5.597  12.605  0.1026 -0.0028 -0.0984
80667W        W81531  29.018   3.827  11.722 -0.2995 -0.0125  0.1395
80668W        W81532  24.849   2.805  14.145 -0.0131 -0.0544 -0.0082
80669W        W81533  24.782  29.091  13.188  0.1245 -0.0383  0.4833
80670W        W81534  22.987   0.021  15.398 -0.1874 -0.1119 -0.2274
80671W        W81535  28.741   0.894  13.431 -0.2222  0.0011  0.3243
80672W        W81536  26.577   3.315  12.176 -0.3755  0.0689  0.1981
80673W        W81537   2.496   2.850  12.560  0.4008  0.2532  0.1140
80674W        W81538  26.377   3.599  15.460  0.3407  0.0598  0.6826
80675W        W81539  29.053   3.044  10.438  0.0562 -0.1843 -0.0181
80676W        W81540  27.545   0.513  10.647  0.2432  0.3806  0.2051
80677W        W81541  27.228   1.721  14.204  0.3964  0.1258 -0.2633
80678W        W81542  24.456   4.481  12.518  0.2392 -0.0923 -0.1002
80679W        W81543  27.901   3.649  13.578  0.0589 -0.1092  0.0936
80680W        W81544  23.720   0.680  12.476 -0.0891 -0.0264  0.4772
80681W        W81545  27.576   1.477  11.463 -0.2020 -0.2758 -0.1179
80682W        W81546  26.963   2.881  10.447  0.1113  0.2696  0.1496
80683W        W81547  28.399   2.375  11.022  0.0570 -0.0054 -0.1834
80684W        W81548  25.849  28.185  11.741 -0.1095  0.2360  0.1211
80685W        W81549   0.273   3.807  13.249 -0.0153  0.1011  0.0341
80686W        W81550  27.025   2.073  11.788  0.2183 -0.1239  0.2631
80687W        W81551  27.307   2.044  11.374 -0.2173 -0.0009 -0.0912
80688W        W81552  25.675   0.054  13.510 -0.0823 -0.0214 -0.0453
80689W        W81553  26.099  28.507  13.728  0.1714 -0.1417  0.1217
80690W        W81554  25.878   2.713  11.954  0.2961 -0.0611 -0.0113
80691W        W81555  26.205   1.493  10.321  0.0622  0.1347  0.1322
80692W        W81556  25.147   5.313  14.441  0.0053 -0.0770 -0.1891
80693W        W81557  28.318  28.843  13.409 -0.5725 -0.0819 -0.2089
80694W        W81558  25.661   2.261  10.928 -0.1070  0.1036  0.0971
80695W        W81559  27.683   0.443  12.971  0.0019  0.0372 -0.1325
80696W        W81560   2.200   3.701  11.137 -0.1352 -0.0929  0.1836
80697W        W81561  26.643   1.372  11.515  0.1885 -0.0187  0.1637
80698W        W81562  27.149   0.004  14.478 -0.1353 -0.2518 -0.1427
80699W        W81563  28.685   2.607  14.360 -0.0693 -0.2058  0.3552
80700W        W81564  26.728   3.558  14.142 -0.0355 -0.0573  0.0754
80701W        W81565  24.754  28.828  13.668 -0.0757 -0.2625 -0.0206
80702W        W81566  27.131   1.669  12.514 -0.1425  0.0938 -0.2047
80703W        W81567  25.700   2.489  16.544 -0.0765  0.0911 -0.0170
80704W        W81568  26.851   1.275  12.407  0.4496 -0.2717 -0.3748
80705W        W81569  27.412   0.053  13.072  0.1653 -0.3128 -0.0626
80706W        W81570  25.911   5.073  11.840  0.0334 -0.0128 -0.1062
80707W        W81571  28.303   0.889  12.245 -0.4167 -0.1889 -0.2448
80708W        W81572  27.692   1.165  10.795  0.1131  0.2632 -0.2996
80709W        W81573  25.317   2.293  11.364  0.2914  0.0294  0.2277
80710W        W81574  27.096   3.373  12.346  0.1235 -0.0429 -0.4673
80711W        W81575   1.486   2.343  15.531 -0.0704  0.0678  0.1830
80712W        W81576  28.375   2.352  15.730 -0.0616 -0.2803 -0.0775
80713W        W81577   1.118   2.579   9.110  0.0281  0.0375  0.0065
80714W        W81578  25.071   1.535  13.388  0.0055 -0.1414 -0.1042
80715W        W81579  27.998  28.887  13.773 -0.2048  0.1217 -0.1315
80716W        W81580   1.032   2.580   9.824 -0.0597 -0.3774  0.3263
80717W        W81581   0.623   3.007  12.546  0.3918 -0.0058  0.1890
80718W        W81582  25.316   1.284  11.258 -0.1977 -0.0175  0.2497
80719W        W81583   0.508   0.491  13.735  0.0450  0.0478  0.1235
80720W        W81584  24.770  28.408  14.388 -0.0426  0.0507 -0.1890
80721W        W81585  27.237   2.837  11.586 -0.1562 -0.0583  0.2437
80722W        W81586  27.758   0.847   8.564 -0.0272  0.2683  0.1572
80723W        W81587   0.460   1.009  12.612 -0.0882 -0.2310 -0.2635
80724W        W81588  27.783   2.581  13.764  0.0672  0.0412  0.0599
80725W        W81589   1.664   2.749  13.445 -0.0670 -0.1142 -0.1225
80726W        W81590  25.116   5.199  13.727  0.2153  0.1082 -0.0578
80727W        W81591  26.132   1.050  12.071 -0.0433  0.2772  0.0607
80728W        W81592  24.339   0.604  16.338 -0.0214 -0.3234  0.3118
80729W        W81593  27.423   1.749  13.673 -0.3052 -0.0848 -0.0871
80730W        W81594   2.173   2.916  10.885 -0.0687  0.1869  0.4053
80731W        W81595  27.071   4.335  12.735  0.0533  0.1365 -0.0834
80732W        W81596   0.414   2.823  15.375 -0.2451 -0.1906 -0.2157
80733W        W81597  27.208   2.207  13.387  0.2605  0.2119 -0.0842
80734W        W81598  27.891  26.692   9.671  0.1980 -0.2101  0.0934
80735W        W81599  27.144   0.307  12.765 -0.6189 -0.2565 -0.2389
80736W        W81600  26.734  29.031  12.592 -0.2613 -0.3139 -0.3408
80737W        W81601  25.144  28.629  12.229  0.2500  0.0427  0.3043
80738W        W81602  24.469   2.563  13.938 -0.0306  0.1494  0.0788
80739W        W81603  28.772   0.738  15.317  0.0275 -0.0224  0.0490
80740W        W81604  28.224   0.997  13.534  0.1741  0.3013  0.0236
80741W        W81605  26.919   3.778  14.697  0.0451  0.0424  0.0962
80742W        W81606  23.833   5.405  12.210 -0.1122 -0.1712  0.0641
80743W        W81607  27.937   0.671  13.781  0.0297 -0.0220 -0.0576
80744W        W81608  27.101   0.693  13.176  0.0785 -0.5392 -0.2276
80745W        W81609  26.671   3.879  13.677 -0.0713  0.2309 -0.0745
80746W        W81610  26.716   2.853  11.535 -0.3089 -0.1514  0.0628
80747W        W81611  27.976   3.179  12.321  0.0650 -0.0582 -0.0569
80748W        W81612  27.968   4.221  12.288  0.3811 -0.0252 -0.1552
80749W        W81613  23.786   3.504  15.404 -0.4042  0.0740  0.0789
80750W        W81614  27.450   0.308  12.346  0.1880 -0.3755  0.1552
80751W        W81615  28.164   3.403  13.258  0.0376 -0.1448  0.0606
80752W        W81616  21.721   4.468  15.370 -0.1746  0.1597  0.1238
80753W        W81617  25.639  27.693   9.997  0.1421 -0.3897  0.2937
80754W        W81618  27.208   3.729  12.818 -0.3517  0.0033 -0.3270
80755W        W81619  27.527   2.434  11.683 -0.1544 -0.0504  0.0095
80756W        W81620  24.578   1.685  11.491 -0.0845  0.0137  0.2558
80757W        W81621  25.880   0.767  13.348 -0.0114  0.1558 -0.2791
80758W        W81622   1.076   1.442  12.411 -0.0300 -0.3940  0.2843
80759W        W81623  27.332   3.543  13.340 -0.2170  0.1883  0.3647
80760W        W81624  27.132   6.098  14.191  0.3336  0.1972  0.1398
80761W        W81625  26.979   2.957  11.075 -0.0339  0.0493  0.0895
80762W        W81626   0.295   3.776  14.604  0.1543  0.0236 -0.2923
80763W        W81627  25.309   3.284  14.065 -0.1700 -0.1632  0.2025
80764W        W81628   2.323   4.458  10.126  0.6181 -0.0445  0.2263
80765W        W81629  27.092   4.159  11.894  0.1785  0.0869  0.1623
80766W        W81630  26.665   0.678  11.226  0.0156  0.0234  0.0199
80767W        W81631  26.382   2.493  12.250  0.0773 -0.0970 -0.1690
80768W        W81632  27.004   0.268  13.438  0.0775  0.0395 -0.4038
80769W        W81633  26.033   0.926  14.323  0.1115  0.0990  0.1071
80770W        W81634  25.708   2.887  10.135  0.1618 -0.0738 -0.1991
80771W        W81635  26.357   1.540  12.444  0.2948 -0.0159  0.1106
80772W        W81636  22.779   3.350  14.106 -0.0692  0.4575  0.0426
80773W        W81637  25.549   2.720  11.458  0.0669 -0.2018  0.1637
80774W        W81638  25.813   3.112  11.686  0.0273  0.3215 -0.0037
80775W        W81639  27.347   0.677  13.907 -0.1339  0.0560  0.3803
80776W        W81640  25.634  27.830  11.456 -0.1841  0.2951  0.2393
80777W        W81641  28.140   4.029  15.338  0.0767 -0.1255 -0.1130
80778W        W81642   0.781   1.882  11.245 -0.0355 -0.0518 -0.1017
80779W        W81643   1.010   4.226  13.025  0.0584 -0.2230  0.1604
80780W        W81644  25.920   3.413  13.193 -0.1101 -0.2998 -0.0247
80781W        W81645  27.227   4.056  10.197  0.0035 -0.1618  0.1834
80782W        W81646  28.261  28.870  12.805 -0.2352  0.0489 -0.2043
80783W        W81647  24.666   6.461  12.217  0.0936 -0.0068 -0.2014
80784W        W81648  25.866   2.935  16.322  0.1154  0.0420  0.2123
80785W        W81649  24.416  27.948  14.810 -0.0375 -0.0285 -0.0660
80786W        W81650  25.208   2.515  12.436 -0.0167  0.1380  0.1055
80787W        W81651  26.807  29.012  11.536  0.0299  0.0365 -0.5693
80788W        W81652  25.201   2.662  14.530 -0.4699 -0.0097 -0.1186
80789W        W81653  26.248   2.696  14.331  0.0167  0.1397 -0.1825
80790W        W81654  27.708   0.730  12.103 -0.1035 -0.1091  0.0456
80791W        W81655  26.550   3.037  10.721  0.3396  0.0471  0.2563
80792W        W81656  27.954   3.794  12.591  0.0847  0.3092  0.1567
80793W        W81657  26.597   4.502  13.216  0.0935  0.0355 -0.0046
80794W        W81658  28.745   3.097  11.696 -0.2529 -0.3172 -0.0740
80795W        W81659  29.018  28.708  11.882  0.0252 -0.2143  0.1431
80796W        W81660  27.382   2.443  12.593  0.2606  0.1423  0.0883
80797W        W81661  25.101   1.533  10.783 -0.0073 -0.0616 -0.2864
80798W        W81662  28.207   2.674  12.201  0.0506 -0.2138 -0.0722
80799W        W81663  27.046   1.034  11.496  0.3393 -0.0116  0.0323
80800W        W81664  26.122   2.616  16.073  0.0214  0.0618 -0.1131
80801W        W81665  28.321   3.524  10.825  0.3318 -0.2111  0.2715
80802W        W81666  27.103   3.006  14.933 -0.1734  0.1947  0.1305
80803W        W81667  26.026   5.323  15.071 -0.0306 -0.0756  0.1514
80804W        W81668  27.637   1.447  12.790  0.4029 -0.1416 -0.0611
80805W        W81669  27.263   1.199  13.942  0.2826 -0.4243  0.0838
80806W        W81670  27.645   1.521  14.012 -0.2995  0.0473 -0.1483
80807W        W81671  26.851   3.039  14.006  0.0624 -0.2570 -0.1499
80808W        W81672  23.747  28.788  12.117  0.3147  0.0123 -0.1051
80809W        W81673  26.684   2.572  15.220  0.1791 -0.1760 -0.0973
80810W        W81674  27.467   2.374  15.845 -0.3208  0.1282 -0.2261
80811W        W81675  25.286   0.084  13.828  0.0396  0.0699 -0.3886
80812W        W81676  25.360   4.594   8.315 -0.1625  0.0285  0.4993
80813W        W81677  26.791   2.523  12.527  0.0328 -0.0997 -0.0098
80814W        W81678  25.950   3.910  13.088 -0.0458  0.2687  0.0965
80815W        W81679   0.303   3.363  12.881 -0.0778  0.2145 -0.0310
80816W        W81680  27.898   3.266  14.747  0.1137 -0.2739 -0.1262
80817W        W81681  26.501   0.483  12.529 -0.0353 -0.0046  0.1654
80818W        W81682  28.972   1.397  13.298  0.1808 -0.0563  0.3378
80819W        W81683  28.018   3.093  12.819  0.4371 -0.0823  0.1445
80820W        W81684  27.933   3.634  11.899 -0.0158 -0.0295 -0.2538
80821W        W81685  26.441   0.672  13.366 -0.1674  0.0502  0.0692
80822W        W81686  27.310   4.456  12.279  0.0200 -0.1865 -0.0145
80823W        W81687  27.202   3.739  14.300 -0.3615 -0.2179 -0.1438
80824W        W81688  26.106   5.961  12.198 -0.0478  0.3108  0.0638
80825W        W81689  24.271   2.012  11.849  0.1239 -0.1754  0.0128
80826W        W81690  27.190   4.025  17.438 -0.0449 -0.3359 -0.1180
80827W        W81691  26.492   0.834  17.424  0.0375  0.0947  0.2031
80828W        W81692   2.149   4.022  12.922 -0.0670  0.1676 -0.1215
80829W        W81693   0.344  29.128  16.239  0.1405  0.2828  0.0478
80830W        W81694  25.502   3.873  13.310 -0.0356 -0.1880  0.2048
80831W        W81695  26.860   4.275  14.855  0.0319 -0.0822 -0.0478
80832W        W81696  24.755   0.303  16.271  0.2197 -0.0716  0.1317
80833W        W81697  28.767   2.226  13.715  0.1285  0.0548  0.0543
80834W        W81698  28.247   3.603  16.230  0.0694 -0.1767  0.0733
80835W        W81699  26.690   0.575  17.064 -0.0462  0.2661 -0.0239
80836W        W81700  27.812  27.881  17.547  0.1353 -0.4119 -0.0483
80837W        W81701   1.637   1.670  17.817  0.3068  0.3055  0.1070
80838W        W81702  26.924   0.425  14.695  0.0733  0.0905  0.0009
80839W        W81703  28.110   2.074  18.542 -0.1388 -0.1922 -0.0129
80840W        W81704  23.434   2.731  17.587  0.1046  0.0012 -0.1668
80841W        W81705  25.047   2.483  17.527 -0.0575 -0.0128  0.1636
80842W        W81706  26.209   1.899  14.788 -0.3782 -0.0096 -0.0230
80843W        W81707  25.021   0.758  15.392 -0.3634  0.2811 -0.0415
80844W        W81708  25.469   0.220  18.759 -0.1984 -0.3810 -0.1751
80845W        W81709  26.901  28.385  16.797 -0.0629  0.3265  0.0215
80846W        W81710  27.573   0.201  17.109 -0.0464 -0.3977  0.4083
80847W        W81711  27.091   0.530  16.696 -0.3523  0.0775 -0.1474
80848W        W81712  27.918   3.239  15.979  0.1650  0.2585  0.1285
80849W        W81713  26.130   1.965  17.097  0.1077  0.2872 -0.2061
80850W        W81714  25.908   2.429  18.775 -0.1597 -0.1258  0.1151
80851W        W81715  25.660   0.506  17.302 -0.0691  0.0704  0.1864
80852W        W81716   0.597   1.480  16.490 -0.1670  0.0941  0.0271
80853W        W81717  26.361   4.079  13.328 -0.3547  0.0987  0.1088
80854W        W81718  28.698   2.426  16.090 -0.0224  0.1391  0.0056
80855W        W81719  28.365   2.038  16.235  0.0615 -0.1044 -0.0076
80856W        W81720  26.141   4.658  15.454 -0.0972 -0.2925  0.0483
80857W        W81721  28.836   3.269  19.450  0.0924 -0.1708  0.2481
80858W        W81722  28.352   2.536  19.133  0.0303 -0.1060 -0.2879
80859W        W81723  26.504  27.495  16.958 -0.4521 -0.0343  0.1841
80860W        W81724  26.393  29.147  18.225  0.1194  0.0841 -0.3695
80861W        W81725  26.572   1.337  19.025  0.0523 -0.1984 -0.0224
80862W        W81726  26.700   1.193  16.843  0.1441 -0.0991 -0.0481
80863W        W81727  27.548   3.369  14.332 -0.0737  0.0072  0.1049
80864W        W81728   0.157   2.893  17.741  0.0764  0.3225 -0.0068
80865W        W81729  28.849   0.237  17.671 -0.4934  0.1406 -0.2250
80866W        W81730  25.466   2.403  14.937 -0.0941 -0.0375 -0.0966
80867W        W81731   0.838   1.005  16.040  0.0304 -0.0869 -0.0469
80868W        W81732  25.978   3.931  15.082 -0.1360 -0.3004  0.1273
80869W        W81733   0.618   3.837  14.174  0.0590  0.3289 -0.1990
80870W        W81734  25.343   3.439  15.364 -0.1560 -0.0497  0.1274
80871W        W81735  28.820   5.651  16.156  0.2851 -0.1781  0.2366
80872W        W81736  27.306  27.801  19.306  0.0779  0.0972  0.2208
80873W        W81737  28.777   2.961  16.440  0.1448 -0.1781  0.2197
80874W        W81738  27.373   3.976  17.897 -0.0440 -0.0471  0.1753
80875W        W81739   0.801   3.184  15.514 -0.2493 -0.1477 -0.0399
80876W        W81740  28.234   3.145  16.385 -0.2211 -0.0464 -0.1924
80877W        W81741  27.405   1.563  16.133 -0.3594  0.1099  0.0068
80878W        W81742  27.754   4.187  17.488  0.0204  0.0886 -0.1129
80879W        W81743  28.317   1.476  16.247  0.1536 -0.2326 -0.1939
80880W        W81744  28.350   1.023  14.515  0.1184  0.1814  0.2709
80881W        W81745  26.845   4.965  15.316  0.0244  0.0235  0.1768
80882W        W81746  25.725   1.802  14.575  0.2274  0.0311  0.1238
80883W        W81747  28.829   2.469  17.632  0.0913 -0.0188  0.4403
80884W        W81748  28.703   4.773  15.339  0.1134 -0.1924 -0.1272
80885W        W81749   0.183   7.194  16.468  0.2056 -0.0616 -0.0483
80886W        W81750  27.528   0.430  13.460  0.0633 -0.0128 -0.0069
80887W        W81751  28.578   3.167  15.537 -0.1038  0.0058  0.2924
80888W        W81752  27.035   4.063  16.743 -0.2792  0.0520  0.2248
80889W        W81753  25.706   1.982  16.360 -0.0614  0.1912  0.1266
80890W        W81754  28.716   2.166  16.542  0.3446  0.0229  0.2783
80891W        W81755  28.375   0.973  15.090 -0.2053  0.3484 -0.3436
80892W        W81756  23.450   1.704  17.142 -0.2611  0.0067 -0.0081
80893W        W81757  26.719   2.772  15.758 -0.1830  0.1162 -0.2133
80894W        W81758  23.540   0.551  16.960  0.1334 -0.1517 -0.1928
80895W        W81759  27.053   2.929  16.918  0.1913  0.1684  0.2154
80896W        W81760  28.143   3.549  16.773 -0.0447 -0.2917 -0.0665
80897W        W81761  27.200   0.083  15.845  0.1413 -0.0688 -0.0378
80898W        W81762   0.739   3.862  13.710 -0.1898  0.0709  0.0374
80899W        W81763   0.977   2.535  18.120 -0.1800  0.0473 -0.1586
80900W        W81764  28.963   3.501  15.708  0.3030 -0.1126  0.1128
80901W        W81765  26.793   0.699  17.932 -0.2276 -0.0754  0.0092
80902W        W81766  25.214  28.253  14.253  0.2201  0.1160 -0.0988
80903W        W81767  27.733   4.345  18.037 -0.2958  0.0220  0.1096
80904W        W81768  26.455   1.898  15.307 -0.2231  0.0881 -0.0097
80905W        W81769  26.516   2.422  16.267  0.0345  0.3883 -0.0678
80906W        W81770  27.289   1.172  18.160 -0.0436 -0.0409  0.3106
80907W        W81771  26.050   0.443  16.827  0.1727  0.1161  0.2156
80908W        W81772  24.048   1.455  16.107 -0.2576 -0.0707  0.0090
80909W        W81773   0.103   3.822  15.408 -0.2339  0.2185 -0.2697
80910W        W81774  25.742  28.126  19.695 -0.0007 -0.1744  0.3325
80911W        W81775  26.415   0.903  11.672 -0.0585 -0.0393 -0.3114
80912W        W81776   0.049   2.368  19.499  0.0965 -0.3562  0.0279
80913W        W81777  26.978   1.038  17.322  0.0467  0.0749  0.3980
80914W        W81778  27.856   1.946  18.157  0.0395  0.0095 -0.1693
80915W        W81779  27.689   0.429  17.584  0.0120  0.1334 -0.1710
80916W        W81780   0.339   0.809  17.416 -0.0155 -0.1675  0.1458
80917W        W81781   0.049   3.543  23.139  0.0107 -0.2773 -0.0278
80918W        W81782  25.091   4.245  14.858  0.1506  0.1279 -0.0387
80919W        W81783  26.937   0.800  16.287 -0.0448 -0.1348  0.1404
80920W        W81784  25.591  28.875  19.570  0.0147 -0.1751  0.1217
80921W        W81785  27.481   1.015  17.301 -0.0037  0.2796  0.0917
80922W        W81786  27.924   0.746  17.205  0.2819  0.0928 -0.2942
80923W        W81787  27.436   3.778  16.448  0.1325 -0.1826 -0.0734
80924W        W81788  26.522   1.049  14.470  0.0184  0.0371 -0.2492
80925W        W81789  28.162   1.283  14.034  0.0448  0.1786 -0.1481
80926W        W81790  28.811   2.786  13.363  0.0151 -0.0549  0.4385
80927W        W81791  23.912   3.425  17.124 -0.2281  0.2617  0.0682
80928W        W81792  27.491   2.685  15.389 -0.0114 -0.2002 -0.0906
80929W        W81793   0.040   4.680  17.073  0.1569  0.2564  0.0654
80930W        W81794   0.051   2.111  17.700  0.0147  0.1257  0.2450
80931W        W81795  26.653  28.446  17.490  0.3926  0.1620 -0.0368
80932W        W81796  27.530   2.543  16.926  0.1286  0.0374 -0.3558
80933W        W81797  28.799   0.991  19.670  0.0077  0.2763  0.3006
80934W        W81798  27.824   2.327  14.990 -0.1272  0.0184  0.1151
80935W        W81799  26.946   3.036  16.179  0.1216 -0.0372  0.2406
80936W        W81800  26.598   1.362  16.407 -0.0634  0.1976  0.1722
80937W        W81801  27.878   3.904  17.023  0.0118 -0.3886 -0.0581
80938W        W81802   0.719   1.135  19.266 -0.1937 -0.2139  0.0452
80939W        W81803  26.640   3.525  18.152  0.1197 -0.5147  0.2010
80940W        W81804  28.422   2.146  14.094 -0.1863  0.2088  0.2464
80941W        W81805  25.189   3.582  14.872  0.1044  0.4542  0.5206
80942W        W81806   0.545  28.923  19.195  0.0162 -0.1720  0.1626
80943W        W81807  27.547   1.532  15.665 -0.0074  0.0126 -0.1901
80944W        W81808  24.189   3.815  17.648 -0.2528 -0.1650  0.1341
80945W        W81809  28.413   5.542  15.025 -0.1189 -0.1267 -0.0473
80946W        W81810  28.874   2.014  12.786  0.2090 -0.0154 -0.4297
80947W        W81811  28.543   3.414  14.782  0.0237  0.1941  0.1423
80948W        W81812  27.108   2.384  16.735  0.2344 -0.1846  0.3112
80949W        W81813  27.705  28.972  16.255  0.0735  0.0406  0.1595
80950W        W81814  27.068   1.800  19.034  0.2993  0.0403  0.0448
80951W        W81815  26.641   0.287  15.863 -0.0427  0.0829 -0.0038
80952W        W81816  25.811  27.959  16.904  0.0789  0.0293 -0.2633
80953W        W81817   0.490   3.089  18.124  0.3018  0.2679  0.1429
80954W        W81818  28.903   0.237  16.312 -0.0254  0.0797 -0.0754
80955W        W81819  27.941   4.373  16.890 -0.2412 -0.2051 -0.0638
80956W        W81820  27.255   5.490  14.169 -0.2960 -0.0228 -0.0406
80957W        W81821  27.908   1.880  16.412  0.0858 -0.0293 -0.2355
80958W        W81822  25.411   2.469  18.168  0.0852 -0.0535 -0.0572
80959W        W81823   0.927   1.993  16.366  0.2887  0.0444  0.0258
80960W        W81824  28.319   4.437  15.104 -0.0114 -0.0504 -0.0163
80961W        W81825  26.363   3.612  16.218  0.0353  0.1180 -0.0446
80962W        W81826  27.813   0.634  15.178 -0.0103  0.2076 -0.0313
80963W        W81827  27.765  28.481  16.184 -0.3465  0.1470 -0.0975
80964W        W81828   2.158   1.609  15.513 -0.0679  0.1518 -0.1533
80965W        W81829   0.151   2.692  15.824  0.2113 -0.0661 -0.0151
80966W        W81830  26.290   2.952  11.926 -0.0321 -0.1809  0.1422
80967W        W81831  27.436  28.356  17.075  0.0615  0.0879 -0.3377
80968W        W81832  27.847   6.969  15.327 -0.0210 -0.1189  0.0337
80969W        W81833  25.344   0.801  13.262 -0.0996 -0.2560  0.0893
80970W        W81834  26.393   1.004  18.661  0.2588 -0.1480  0.1368
80971W        W81835  25.206   1.150  15.972 -0.1586 -0.1908  0.0801
80972W        W81836   0.032   3.056  14.393  0.1696 -0.1908  0.5506
80973W        W81837  28.180   2.751  14.016  0.2492 -0.0650  0.3256
80974W        W81838  28.884   4.224  16.801  0.0454 -0.1440  0.2403
80975W        W81839  27.497   0.899  16.372  0.1416  0.1401  0.0069
80976W        W81840   1.641  28.656  15.732 -0.0925  0.0814 -0.2707
80977W        W81841  25.556  28.809  17.058  0.0878  0.1051  0.1420
80978W        W81842  28.277   0.931  16.083 -0.2729 -0.4382 -0.2859
80979W        W81843  26.953   1.767  14.610  0.0371  0.0416  0.0388
80980W        W81844  27.772   1.328  16.355  0.0537  0.1138 -0.0388
80981W        W81845  28.375  27.849  16.999  0.0180  0.0084 -0.0863
80982W        W81846  24.970   4.533  17.198 -0.0324 -0.1620 -0.0430
80983W        W81847  26.006   0.967  14.866  0.1671 -0.0590  0.0180
80984W        W81848  25.989  26.654  15.105 -0.0256  0.2063 -0.0447
80985W        W81849  25.448   4.019  15.203  0.2607 -0.5501  0.1293
80986W        W81850  26.936  27.611  14.878 -0.1268 -0.0896 -0.1150
80987W        W81851  26.543   1.916  16.396 -0.1271  0.0433  0.2036
80988W        W81852  25.946   0.072  21.334  0.2759  0.0289  0.0901
80989W        W81853  27.743   1.812  18.713 -0.2220  0.0755  0.0440
80990W        W81854  27.159  29.033  16.270  0.0107  0.0392 -0.0215
80991W        W81855  25.467   0.697  18.872  0.2114 -0.2377 -0.0590
80992W        W81856  26.345   2.370  15.592  0.1654  0.1399 -0.4020
80993W        W81857  25.355   6.207  15.471  0.0219  0.1083 -0.0964
80994W        W81858  27.793   4.783  16.299 -0.0314 -0.0892 -0.0412
80995W        W81859  25.964   1.597  17.961 -0.1743  0.1478  0.1235
80996W        W81860  28.321   3.302  22.376  0.0660 -0.1990  0.0430
80997W        W81861  24.358   1.417  16.529  0.0460  0.0295  0.0753
80998W        W81862  26.949   1.666  16.111  0.0488  0.0228  0.0707
80999W        W81863  29.025   3.104  16.023  0.1802  0.1637 -0.2208
81000W        W81864  27.488  27.397  16.940  0.1105  0.0916  0.3767
81001W        W81865   0.743   0.517  16.248 -0.3140  0.1576 -0.2160
81002W        W81866  26.768   4.932  17.132 -0.1694  0.0718  0.0771
81003W        W81867  28.334   0.483  15.866  0.2573 -0.0001 -0.2028
81004W        W81868  24.939   3.331  14.465 -0.2241 -0.0506  0.0690
81005W        W81869  25.955   0.323  14.626 -0.0157 -0.2231  0.0216
81006W        W81870  26.419   4.798  14.475  0.1988 -0.1016 -0.1967
81007W        W81871   0.148   3.415  14.915  0.1112  0.2441  0.3394
81008W        W81872  26.356   1.695  13.642  0.0343 -0.0211  0.2183
81009W        W81873  25.019   3.806  15.341  0.0346 -0.0284  0.1589
81010W        W81874  27.859   0.465  15.703  0.1555 -0.0179 -0.0092
81011W        W81875  25.749   0.674  17.868 -0.3249 -0.4028  0.1179
81012W        W81876  27.671  26.657  15.757 -0.1262 -0.0355 -0.2116
81013W        W81877  27.550   2.387  14.553 -0.1167 -0.0477 -0.1022
81014W        W81878  28.392   2.839  14.744 -0.4006  0.0929  0.1127
81015W        W81879  26.456   5.405  15.577  0.1277  0.0722  0.4606
81016W        W81880  27.623   4.036  11.937 -0.0286 -0.0787  0.3281
81017W        W81881  23.897   4.056  15.561 -0.1784 -0.1434  0.0106
81018W        W81882  25.965   0.860  18.253  0.1617  0.1084  0.0912
81019W        W81883  27.324  28.636  18.875 -0.3828 -0.0131 -0.1476
81020W        W81884  26.910  28.022  19.485 -0.3663 -0.0376  0.1352
81021W        W81885   1.514   3.378  14.595  0.2447 -0.0383  0.0442
81022W        W81886  26.945  28.768  17.173  0.0498 -0.3410 -0.0445
81023W        W81887  22.864   1.512  16.163 -0.1718  0.1530 -0.0119
81024W        W81888  28.114  26.581  14.932  0.0089 -0.0115 -0.2159
81025W        W81889  25.813   0.975  16.934 -0.2688  0.1586  0.0760
81026W        W81890   0.919   0.811  15.307  0.0467 -0.0470  0.0501
81027W        W81891   0.694   3.023  13.203  0.0385  0.0898 -0.0335
81028W        W81892  24.168  28.355  16.076 -0.0781 -0.0084  0.1639
81029W        W81893   1.345   0.019  17.207  0.0869 -0.0376 -0.1077
81030W        W81894  23.514   2.459  15.228  0.1038  0.1265  0.0157
81031W        W81895  27.396   1.475  16.686  0.2086 -0.0287 -0.0341
81032W        W81896  27.389   1.470  18.630  0.0361  0.0136 -0.2273
81033W        W81897  28.513   6.217  13.680 -0.1849 -0.1393 -0.0375
81034W        W81898  24.937   4.269  17.698 -0.0400 -0.1259 -0.4535
81035W        W81899  24.888   2.313  19.410 -0.0590 -0.1746 -0.0426
81036W        W81900  26.567   1.384  17.325  0.1289 -0.2571 -0.2611
81037W        W81901  27.057  28.670  14.584 -0.1767 -0.2821 -0.1606
81038W        W81902  28.106  28.425  19.568 -0.0340 -0.0170 -0.5087
81039W        W81903  28.445   0.569  20.052 -0.2443 -0.0544 -0.0258
81040W        W81904  27.763   1.123  14.909 -0.1645  0.1814  0.1473
81041W        W81905  26.125   1.734  14.275 -0.0090 -0.2702 -0.1407
81042W        W81906  28.157   1.840  14.469  0.1279  0.0543  0.0775
81043W        W81907  28.289  29.107  16.829  0.1685  0.0987 -0.2078
81044W        W81908  26.947   3.568  16.203 -0.1815  0.2307 -0.1704
81045W        W81909   0.153  28.136  18.711  0.2354 -0.1006 -0.0436
81046W        W81910  27.244   4.133  15.579 -0.0477 -0.1558  0.0909
81047W        W81911  24.554   2.927  17.872  0.0337  0.0840 -0.1381
81048W        W81912  25.990  27.385  13.630 -0.1554 -0.1011  0.0467
81049W        W81913  25.552   3.060  13.631  0.0691  0.1339  0.0403
81050W        W81914  26.778  28.779  18.203  0.1382 -0.1064 -0.1925
81051W        W81915  27.561   0.676  16.854  0.4535 -0.1008 -0.0327
81052W        W81916  25.858   0.028  17.114 -0.0012 -0.1597 -0.1159
81053W        W81917  27.120   2.583  16.218 -0.1299 -0.2328 -0.1320
81054W        W81918  26.499   2.114  17.803  0.2349  0.0925 -0.0666
81055W        W81919  26.850  28.329  18.499 -0.0038  0.1822  0.1161
81056W        W81920  27.277   2.597  18.898 -0.0791  0.0584  0.2893
81057W        W81921   0.224   3.246  15.734  0.2956  0.0324 -0.0766
81058W        W81922  28.657   3.314  13.449  0.1008  0.0629  0.2207
81059W        W81923  26.518   1.603  17.987 -0.1715 -0.0497  0.0165
81060W        W81924  26.959   0.931  14.700  0.0609  0.1599  0.1821
81061W        W81925  27.449   0.558  16.059 -0.1110 -0.2051  0.1967
81062W        W81926  26.118  28.645  16.277  0.0676 -0.1869 -0.0247
81063W        W81927  27.807  28.466  17.426  0.0030  0.0108  0.1604
81064W        W81928  27.287   1.604  19.455  0.0106 -0.0053 -0.0194
81065W        W81929  26.610   2.913  14.597  0.3069 -0.1559 -0.2403
81066W        W81930  25.357  28.924  17.724  0.4424 -0.3117 -0.1461
81067W        W81931  23.725   1.910  17.680  0.1690  0.2911  0.1327
81068W        W81932  26.055   0.612  15.280  0.0325 -0.0035  0.0343
81069W        W81933  28.288   1.044  18.026 -0.0932 -0.1695  0.0348
81070W        W81934  28.324   2.405  14.994 -0.1002 -0.0346 -0.3041
81071W        W81935  27.883   5.755  16.295 -0.0931  0.0445 -0.0418
81072W        W81936  26.259   3.413  17.508 -0.0108  0.1216  0.0627
81073W        W81937   0.247   1.384  15.359 -0.1095  0.1022 -0.1132
81074W        W81938  25.446  28.975  14.292  0.0570  0.0483 -0.0465
81075W        W81939  25.898   4.156  15.544  0.0489 -0.1757  0.1145
81076W        W81940  27.047   2.594  19.823 -0.3126 -0.4027 -0.1439
81077W        W81941  27.538   4.268  16.532 -0.3170  0.1368  0.0873
81078W        W81942  27.889   0.962  17.667  0.1435 -0.1644 -0.3453
81079W        W81943  24.922   4.118  14.018  0.0143 -0.1103  0.1276
81080W        W81944   0.691   1.577  15.410  0.3728  0.2558 -0.0722
81081W        W81945  27.281   3.593  15.345 -0.0660  0.1969 -0.5297
81082W        W81946  24.647   0.593  18.570 -0.0375 -0.1939  0.1704
81083W        W81947   1.204   2.196  14.223  0.3556  0.0404  0.1552
81084W        W81948  29.080   0.939  19.273 -0.1207 -0.3589  0.1897
81085W        W81949  24.174   0.155  14.757 -0.0899  0.1873  0.2712
81086W        W81950  27.719   1.163  16.870 -0.1686 -0.1098 -0.3511
81087W        W81951   0.555   0.140  20.579 -0.0588 -0.2892 -0.1839
81088W        W81952  24.456   0.306  16.963  0.1563 -0.2952  0.1797
81089W        W81953  26.951   2.518  17.271  0.0769  0.1508 -0.3820
81090W        W81954  24.890   4.196  20.510  0.0377  0.2630 -0.0296
81091W        W81955  25.389   2.747  16.269 -0.2563  0.1791 -0.2322
81092W        W81956   1.859   2.966  14.791 -0.1407 -0.0649 -0.0772
81093W        W81957  26.939   1.205  17.799 -0.1531  0.1095  0.2519
81094W        W81958   0.214  28.709  15.973 -0.0107 -0.2558  0.0814
81095W        W81959  23.963   0.680  15.945  0.2805  0.1424 -0.2376
81096W        W81960  27.892   2.983  17.593 -0.1924  0.1649  0.0529
81097W        W81961  26.011  29.103  15.041  0.0803  0.0661 -0.1015
81098W        W81962  27.217   5.199  15.029  0.1323 -0.3258 -0.0545
81099W        W81963  28.220   3.530  15.716  0.1055 -0.2125  0.0690
81100W        W81964  29.090   1.420  17.983 -0.1933  0.1571 -0.0100
81101W        W81965  25.282  27.608  18.485 -0.1860 -0.0489  0.3379
81102W        W81966  26.462   1.912  13.230 -0.2486 -0.0524  0.1211
81103W        W81967  24.905   1.397  12.886  0.1442 -0.0179  0.0158
81104W        W81968  24.886   2.636  15.198 -0.0496  0.2765 -0.0443
81105W        W81969  28.169   2.703  15.383  0.0480  0.1733 -0.1275
81106W        W81970  26.960   0.723  12.586 -0.0947  0.0424  0.0592
81107W        W81971  25.682   4.595  15.588  0.3689 -0.1284  0.1491
81108W        W81972  26.267   2.555  17.878  0.1105  0.0346  0.1208
81109W        W81973   0.496   3.510  15.286 -0.1297  0.1168 -0.1568
81110W        W81974  26.984  27.103  18.251 -0.0458  0.2535  0.0827
81111W        W81975  25.060   3.634  16.587  0.1786  0.0270  0.1070
81112W        W81976  26.710   1.264  15.908  0.2615 -0.0431 -0.1533
81113W        W81977   0.207   0.408  16.038  0.3037  0.0622 -0.3100
81114W        W81978  26.956   1.234  14.342 -0.3251  0.0943  0.1155
81115W        W81979  26.518   4.036  14.462 -0.2665 -0.3198 -0.1490
81116W        W81980  27.800   1.143  15.420  0.1334 -0.1075  0.2022
81117W        W81981  28.474  29.049  15.086  0.0852 -0.0079 -0.2623
81118W        W81982  24.883   0.829  16.284 -0.1748  0.0032 -0.0780
81119W        W81983  27.366   0.783  17.742 -0.2266  0.0903 -0.1735
81120W        W81984   0.202   3.488  16.256  0.0755  0.0098 -0.0773
81121W        W81985  25.132   1.263  20.227 -0.2397 -0.1623 -0.0905
81122W        W81986  27.194   2.105  17.247  0.4607  0.3620 -0.2740
81123W        W81987  28.661   0.451  16.850 -0.0017  0.3556  0.0978
81124W        W81988  24.035   4.383  15.074 -0.2564 -0.2896 -0.0400
81125W        W81989  25.159   2.232  16.548 -0.2459  0.1101 -0.1157
81126W        W81990  28.637  28.005  17.415 -0.3911  0.2411 -0.0051
81127W        W81991  27.217   2.623  20.966  0.0155  0.2350  0.4024
81128W        W81992  28.330   1.758  19.443  0.0254 -0.0783  0.0999
81129W        W81993  26.305   0.934  16.983  0.1026  0.2063 -0.0446
81130W        W81994   0.047   4.236  17.304 -0.0807 -0.1770 -0.0180
81131W        W81995  27.779   4.701  17.304 -0.1178 -0.1835  0.0334
81132W        W81996  26.366  28.090  13.933 -0.4064  0.1806 -0.0472
81133W        W81997  24.524   2.378  13.070  0.1752  0.1397 -0.2581
81134W        W81998  25.006   1.053  16.789 -0.0238 -0.3179  0.1866
81135W        W81999  23.963   1.925  16.354  0.0834  0.0815  0.3392
81136W        W82000  28.007   2.955  18.082  0.0469  0.2809 -0.0703
81137W        W82001  27.048   0.582  15.721  0.0687 -0.0555  0.0384
81138W        W82002  27.755   3.563  15.544 -0.0157  0.0051  0.2260
81139W        W82003  27.370   3.338  16.190 -0.3942  0.3718 -0.1076
81140W        W82004  28.144   0.608  17.890 -0.1313 -0.1127  0.2541
81141W        W82005  27.201   0.124  13.890 -0.0784  0.1884  0.1591
81142W        W82006  27.190  26.874  15.759 -0.4193 -0.0544 -0.1472
81143W        W82007  27.473   3.937  18.449 -0.1081 -0.0652  0.0420
81144W        W82008  26.380   4.463  15.008 -0.0005 -0.1168  0.0819
81145W        W82009  26.804   4.311  18.553  0.0131  0.2303 -0.0104
81146W        W82010   0.660   4.665  13.250 -0.1811 -0.0482  0.2521
81147W        W82011  25.743   1.584  19.021  0.0935 -0.1385  0.1855
81148W        W82012  27.810   0.747  19.290 -0.3651  0.2023 -0.0947
81149W        W82013  25.466   4.634  12.944  0.0701 -0.0631  0.0375
81150W        W82014  26.745   2.738  16.562 -0.0457  0.0504  0.0961
81151W        W82015  25.523   1.193  16.614 -0.1012 -0.0985 -0.1165
81152W        W82016  26.078   3.110  14.618 -0.0574  0.1282  0.0498
81153W        W82017  26.942  28.433  15.876  0.0796  0.3844  0.1080
81154W        W82018  23.960   4.910  14.667 -0.3113  0.0408 -0.2191
81155W        W82019  28.373  26.743  15.956 -0.0740 -0.1559  0.3749
81156W        W82020   0.252  27.587  14.167  0.3217  0.0599 -0.2091
81157W        W82021  28.937   1.060  21.650  0.3923 -0.1807  0.2026
81158W        W82022  27.997   6.923  17.013 -0.2056  0.2159 -0.2703
81159W        W82023  29.056   1.167  20.409 -0.2632  0.2730 -0.3628
81160W        W82024  27.028   3.274  14.402 -0.1665  0.1445  0.1324
81161W        W82025  24.820   4.492  15.291  0.2183 -0.2339 -0.2850
81162W        W82026   0.385   1.355  18.663  0.2743 -0.1888 -0.1571
81163W        W82027  27.145   0.965  16.873  0.0050  0.0617 -0.2377
81164W        W82028  27.665  27.999  18.829 -0.3180 -0.4852 -0.1746
81165W        W82029  26.534   3.926  18.638 -0.0297  0.2700 -0.0030
81166W        W82030  26.151   0.446  17.327  0.0376  0.2952  0.0623
81167W        W82031  26.373   1.025  15.518 -0.4650  0.1642  0.1417
81168W        W82032  24.671   1.931  15.725 -0.1845  0.2895 -0.0119
81169W        W82033  27.083   1.235  16.409 -0.0901  0.1810  0.1068
81170W        W82034  25.981   0.928  17.477  0.3346 -0.1751  0.1131
81171W        W82035  24.491   2.765  16.171 -0.2378 -0.4695 -0.0128
81172W        W82036  24.014   1.017  18.185 -0.2447  0.2827 -0.0366
81173W        W82037  27.158   2.088  16.305  0.0562 -0.0104  0.0505
81174W        W82038  24.643   1.088  15.482  0.0452  0.2380  0.0476
81175W        W82039   0.006   2.573  16.383 -0.0196 -0.0242 -0.0266
81176W        W82040  28.582   1.633  12.881 -0.1709  0.1411  0.0338
81177W        W82041  27.923   2.727  14.559 -0.0685 -0.0041 -0.1237
81178W        W82042  27.174   3.341  16.679 -0.1395 -0.2654 -0.1416
81179W        W82043  25.768   3.720  17.588 -0.2384 -0.1510  0.0747
81180W        W82044  28.374   0.473  17.426  0.1979 -0.2243  0.1587
81181W        W82045  27.584  28.859  17.123 -0.0965 -0.1044 -0.2119
81182W        W82046  28.894   1.966  18.091 -0.1187  0.0354 -0.4165
81183W        W82047  25.829  28.535  19.328  0.0392  0.2085 -0.0059
81184W        W82048  25.033   3.095  16.211  0.2518 -0.0126  0.1242
81185W        W82049  27.453   0.391  14.320  0.1062 -0.0482  0.1447
81186W        W82050  28.075   1.585  19.864  0.1578  0.2174 -0.1582
81187W        W82051  28.403   0.890  17.015  0.0563 -0.3102 -0.0311
81188W        W82052  26.228  28.933  15.886  0.0817  0.2234  0.0328
81189W        W82053  27.102   4.560  16.834 -0.1543 -0.1357 -0.3947
81190W        W82054  26.160   3.839  15.847  0.3005  0.2896  0.0191
81191W        W82055  26.914   1.021  15.471 -0.0796 -0.0142 -0.0081
81192W        W82056  27.738   1.887  15.948  0.0810 -0.2132  0.1474
81193W        W82057  26.562  28.836  16.750  0.3037  0.0181 -0.0334
81194W        W82058   0.158   2.039  14.688 -0.3700  0.1620  0.0890
81195W        W82059  27.487   2.900  14.670  0.1581  0.0572  0.2477
81196W        W82060  28.837   1.274  14.664  0.1367 -0.0487  0.0106
81197W        W82061  27.193   3.171  13.063  0.2177  0.2233 -0.1979
81198W        W82062  27.058   3.025  19.125 -0.0483  0.1866  0.1209
81199W        W82063  28.472   1.875  15.368  0.1855  0.1287  0.2482
81200W        W82064  27.850   1.668  17.629 -0.3359 -0.1777  0.1683
81201W        W82065  26.833   2.542  20.323  0.1157 -0.4321  0.1164
81202W        W82066  28.383   5.167  15.555  0.1727  0.1470 -0.0697
81203W        W82067  26.144  27.352  17.365 -0.2685 -0.1621 -0.4796
81204W        W82068  24.246   0.136  17.822  0.1084 -0.3047  0.1021
81205W        W82069  27.816   0.961  15.946 -0.3497  0.0645  0.2432
81206W        W82070  24.411   4.635  17.168 -0.0278 -0.1015 -0.3393
81207W        W82071  24.841  27.454  17.524 -0.1260  0.0733  0.0321
81208W        W82072  28.220   1.891  15.787  0.0305  0.1476 -0.1635
81209W        W82073  27.517   2.073  17.699  0.2232 -0.2336  0.0874
81210W        W82074  28.111   0.977  19.004  0.0819  0.1172 -0.0970
81211W        W82075  26.883   4.045  14.096 -0.1512 -0.1286 -0.2392
81212W        W82076  26.363   3.976  17.403 -0.1792  0.4286 -0.3356
81213W        W82077  26.313   5.849  15.778  0.2591  0.3602 -0.0456
81214W        W82078  28.925   2.629  20.859  0.1492 -0.3599 -0.2449
81215W        W82079  28.162   2.399  18.109 -0.1257 -0.0877  0.0562
81216W        W82080  25.856   0.756  16.485 -0.1638  0.3468 -0.1094
81217W        W82081  28.454   1.474  17.185 -0.0664  0.1134 -0.1279
81218W        W82082   2.783   2.037  15.410  0.2449  0.0982 -0.0951
81219W        W82083  26.462   0.807  16.497 -0.1144  0.1326 -0.0581
81220W        W82084  28.218   0.731  18.469 -0.1695 -0.0552 -0.2018
81221W        W82085   2.062   2.273  13.812  0.0038  0.3191  0.1551
81222W        W82086  28.580   2.252  18.343  0.0159 -0.2803  0.2943
81223W        W82087  24.488   4.220  15.447 -0.0674 -0.2250 -0.1116
81224W        W82088  27.598   3.260  15.193 -0.0268  0.0419 -0.2783
81225W        W82089  25.899   4.297  23.586 -0.1892 -0.2188 -0.2286
81226W        W82090  25.375   1.647  20.430 -0.0148  0.2019 -0.1984
81227W        W82091  27.945   2.721  18.622 -0.0968 -0.0096 -0.2206
81228W        W82092  27.584   3.972  20.111  0.0315 -0.0497  0.1147
81229W        W82093  23.877   2.176  17.060 -0.0259  0.0128  0.1762
81230W        W82094  24.660   0.361  17.462 -0.1230 -0.1807 -0.0780
81231W        W82095  23.882   1.490  18.292  0.2516  0.2140 -0.1352
81232W        W82096  27.318   3.387  18.891 -0.2612  0.0129  0.1501
81233W        W82097  25.983   2.979  22.251  0.1420  0.0063 -0.0797
81234W        W82098  27.350  28.555  20.221 -0.2411  0.2279  0.0240
81235W        W82099  27.838   0.349  21.040  0.2003 -0.0057  0.2336
81236W        W82100  25.842  28.575  20.505  0.0326  0.1960 -0.0594
81237W        W82101  28.986   1.792  19.695  0.0449 -0.2783  0.0324
81238W        W82102  25.693   0.775  22.163 -0.0453 -0.0040 -0.4394
81239W        W82103  26.393   0.091  21.011  0.0152  0.1133 -0.4273
81240W        W82104  23.890   1.593  24.971 -0.3431 -0.1001  0.0063
81241W        W82105  26.613   3.087  18.910 -0.0025 -0.0067 -0.1234
81242W        W82106  25.461   0.257  20.088 -0.1068  0.1504  0.0291
81243W        W82107  26.860   0.306  24.023  0.0601 -0.2603  0.2045
81244W        W82108   0.698   1.518  21.324  0.0255  0.3236 -0.2041
81245W        W82109   1.059   1.690  23.423  0.1687 -0.3051  0.1618
81246W        W82110  25.846   2.394  20.009 -0.0593 -0.4236  0.0796
81247W        W82111   0.087   1.947  20.489  0.1511 -0.2216 -0.2229
81248W        W82112  24.678   3.268  20.441  0.1856  0.1411  0.0415
81249W        W82113  24.342   1.971  18.300 -0.0322  0.1645 -0.0801
81250W        W82114  24.611   1.618  20.967  0.1168  0.2032  0.0312
81251W        W82115   0.788   1.230  19.770  0.2730 -0.5015 -0.0599
81252W        W82116  27.414   2.162  19.115 -0.1328  0.0148 -0.0963
81253W        W82117   0.153   2.891  23.537 -0.2144 -0.1129  0.2299
81254W        W82118  25.998   1.142  21.212 -0.0346 -0.1998  0.3925
81255W        W82119  25.527   0.544  18.296 -0.0975 -0.0100  0.2781
81256W        W82120  26.035   4.531  21.347 -0.3741  0.2223  0.0187
81257W        W82121  26.460   4.181  20.385 -0.0970  0.1933  0.2559
81258W        W82122  28.168   6.237  22.140  0.1877  0.1204 -0.0125
81259W        W82123  25.390   2.019  22.578  0.3209  0.2265 -0.0868
81260W        W82124  28.478   3.427  23.505  0.2454 -0.0716 -0.2372
81261W        W82125  25.895  28.375  18.867  0.3431  0.1278 -0.2185
81262W        W82126  26.918   2.278  19.202 -0.1106 -0.2661 -0.0863
81263W        W82127   0.394   2.854  24.025  0.0937  0.1267 -0.3094
81264W        W82128  26.928   0.138  20.203  0.1266 -0.0185  0.0479
81265W        W82129   0.294  27.910  19.145  0.0671  0.2407 -0.1198
81266W        W82130   0.361   0.077  18.785  0.0047  0.0204 -0.0249
81267W        W82131  26.508   5.410  20.954 -0.0772 -0.0023  0.0234
81268W        W82132  27.787   3.768  20.571 -0.1605 -0.1950  0.0423
81269W        W82133  25.755   5.429  16.544 -0.1476  0.1987 -0.1228
81270W        W82134  25.291   4.578  17.652  0.5026  0.0525  0.0062
81271W        W82135  26.212  28.252  21.896  0.0507 -0.1348 -0.2919
81272W        W82136  28.350   1.169  19.720  0.3033 -0.0904 -0.1349
81273W        W82137   0.508   0.391  21.937  0.1333  0.1617  0.2930
81274W        W82138  27.754   0.174  19.901  0.1481 -0.2211  0.1944
81275W        W82139  26.582   2.876  19.917 -0.1527  0.1430  0.2441
81276W        W82140  28.858   1.599  20.594  0.0926 -0.1629  0.1235
81277W        W82141  25.187   0.153  19.661 -0.2785  0.0646 -0.0569
81278W        W82142   1.033   3.045  18.904  0.1612  0.2431  0.0034
81279W        W82143  29.140   1.753  17.356 -0.0541  0.1903  0.5198
81280W        W82144  24.781   3.809  19.658  0.0274 -0.0619 -0.0384
81281W        W82145  24.344   2.328  17.056  0.2439 -0.1614  0.2508
81282W        W82146   0.876   0.613  21.710 -0.2501 -0.2717  0.1134
81283W        W82147  26.258   2.045  20.993 -0.2749  0.0879 -0.0591
81284W        W82148   0.736   5.512  16.474  0.0700 -0.0415  0.0839
81285W        W82149  28.283   1.485  17.749  0.1763 -0.0780 -0.3015
81286W        W82150  25.387   2.202  19.638 -0.0341  0.0102 -0.0212
81287W        W82151  25.333   2.611  24.369 -0.1587  0.0397  0.2999
81288W        W82152  27.454  28.813  19.353 -0.0683 -0.1536  0.1010
81289W        W82153  28.866  28.935  22.805  0.2923  0.1774  0.0997
81290W        W82154  29.148  27.964  23.019 -0.1058 -0.1481 -0.0923
81291W        W82155  26.148   0.783  20.928 -0.0475  0.0612 -0.2546
81292W        W82156  23.924   2.094  18.653  0.0470  0.1376  0.0939
81293W        W82157  25.774   3.584  20.580 -0.0724 -0.0735  0.1474
81294W        W82158  28.055   3.931  19.854 -0.1188 -0.2929  0.2323
81295W        W82159  26.842   3.376  21.532  0.1444 -0.1501 -0.0254
81296W        W82160  28.400   2.465  17.171 -0.3885  0.1887 -0.0712
81297W        W82161  28.270   4.835  17.102 -0.0821 -0.0340 -0.1967
81298W        W82162  28.423  28.779  19.576  0.0379 -0.3631  0.0049
81299W        W82163  28.231   2.846  21.234 -0.0529 -0.0101  0.1890
81300W        W82164  27.037   2.775  22.284 -0.0969  0.2052  0.0632
81301W        W82165  28.113   0.701  19.675 -0.0296  0.1888  0.0445
81302W        W82166  24.874   0.689  21.224 -0.0252  0.0946  0.2648
81303W        W82167   1.767   2.689  17.447 -0.2947 -0.0530 -0.2060
81304W        W82168  28.795   1.844  17.047 -0.2413 -0.1285  0.1709
81305W        W82169  25.045   0.463  19.014 -0.0394  0.2588 -0.0510
81306W        W82170  25.633   0.727  22.654  0.0913  0.0979  0.4034
81307W        W82171  26.497   1.666  20.752 -0.0167  0.2532  0.3497
81308W        W82172  27.441  27.535  18.907  0.0303 -0.5192  0.1272
81309W        W82173  26.733   2.058  19.987  0.3502  0.1978  0.1771
81310W        W82174   1.092   0.446  17.399 -0.3981 -0.2499  0.1201
81311W        W82175  27.936   3.658  21.579  0.2032 -0.1153  0.0630
81312W        W82176  25.756  25.950  20.875  0.1394 -0.2428  0.3736
81313W        W82177  27.647   4.429  19.621  0.1090  0.2616 -0.1519
81314W        W82178  27.093   0.321  22.782  0.3333 -0.0780  0.1574
81315W        W82179  28.077  28.119  19.085  0.0807 -0.0655  0.0712
81316W        W82180  27.805  27.500  23.450  0.0193 -0.0239 -0.0265
81317W        W82181  24.531   2.685  19.549  0.2580  0.1229 -0.1100
81318W        W82182  27.484   0.336  16.475 -0.0942 -0.1636  0.0736
81319W        W82183  24.751  26.843  20.067 -0.0830 -0.0578 -0.1275
81320W        W82184  26.777  27.931  16.967  0.2176  0.1308  0.0835
81321W        W82185  28.144   3.438  18.791  0.0933 -0.3666 -0.0215
81322W        W82186  25.621   3.829  21.772 -0.1133 -0.0668  0.0112
81323W        W82187  26.743  27.070  19.193  0.1137  0.1215 -0.0231
81324W        W82188  27.530   2.157  21.059  0.1373 -0.1241  0.0365
81325W        W82189  28.924   1.938  19.219 -0.1432  0.0816 -0.2026
81326W        W82190  25.500  28.540  18.228 -0.0972  0.0463 -0.1290
81327W        W82191  27.617  26.903  17.920  0.1886 -0.0066  0.3449
81328W        W82192  27.222   2.083  19.590  0.2508  0.2680 -0.1222
81329W        W82193   0.060   0.901  23.780 -0.1141  0.1178 -0.0789
81330W        W82194  28.088   3.489  22.868 -0.1477  0.1630 -0.3450
81331W        W82195  27.621   3.297  20.767  0.1144 -0.0983  0.2281
81332W        W82196   1.584   3.017  20.980  0.0896 -0.0121  0.0921
81333W        W82197  28.309  28.653  19.093 -0.2490 -0.4001 -0.1629
81334W        W82198  26.415   0.370  20.572  0.1582  0.0452 -0.2433
81335W        W82199  25.831   0.088  19.757  0.1567 -0.1017  0.2502
81336W        W82200  25.980   5.927  19.238 -0.2931  0.1026 -0.0229
81337W        W82201  27.246  27.089  18.652 -0.1890  0.0328  0.0218
81338W        W82202  26.180   3.736  20.355 -0.3038 -0.0987 -0.0040
81339W        W82203   3.932   0.785  18.683  0.2174 -0.1197 -0.1720
81340W        W82204  26.852   0.199  18.211 -0.1530 -0.0520  0.2272
81341W        W82205  28.336   1.975  22.267 -0.1144  0.0338 -0.0640
81342W        W82206  27.788   0.925  20.765 -0.0588 -0.4448 -0.1981
81343W        W82207  27.857   2.061  20.016  0.0887 -0.0766  0.3359
81344W        W82208  28.604   1.936  17.504 -0.1670 -0.0649 -0.0066
81345W        W82209  27.520  28.250  19.510  0.0070 -0.0355 -0.1885
81346W        W82210   0.927   3.737  17.331 -0.0927 -0.0151  0.0135
81347W        W82211  26.673   3.582  20.441  0.0689  0.1742 -0.1773
81348W        W82212  25.590   1.126  19.750 -0.0905 -0.0971  0.0782
81349W        W82213  27.856   1.838  21.264 -0.3492 -0.1038 -0.2502
81350W        W82214   1.428   0.406  18.356 -0.0358 -0.0619 -0.3100
81351W        W82215  26.917   0.802  20.942  0.1097  0.1600 -0.1773
81352W        W82216  29.022  28.492  24.398 -0.1581  0.0470 -0.2581
81353W        W82217  27.177   3.056  18.611 -0.0448  0.1647 -0.0600
81354W        W82218  25.155   2.138  22.133  0.1246  0.2514 -0.0974
81355W        W82219  27.149   4.050  21.572  0.2593 -0.1983  0.0773
81356W        W82220  28.348   1.703  21.595  0.1908  0.0330 -0.4365
81357W        W82221  25.386   2.953  18.076  0.1211 -0.1385  0.0168
81358W        W82222   0.370   2.844  18.605 -0.0339  0.0096  0.0017
81359W        W82223  28.816   3.404  22.226 -0.0404  0.0718  0.0053
81360W        W82224  24.374  27.685  21.990  0.3153  0.0336 -0.2515
81361W        W82225  29.056   0.144  18.603  0.0633 -0.3683 -0.0957
81362W        W82226  27.148   1.132  23.582  0.1263 -0.0445 -0.0408
81363W        W82227  26.807   2.730  17.914 -0.0998 -0.1335  0.1946
81364W        W82228  28.309   3.268  17.910  0.0669  0.3102 -0.0860
81365W        W82229  23.677  28.751  17.452  0.1259  0.0445  0.1114
81366W        W82230  27.005   3.585  21.909  0.1582  0.1751 -0.0065
81367W        W82231  26.505   1.645  16.909  0.1117  0.0267 -0.0076
81368W        W82232  27.926  28.160  17.075  0.1719  0.0015  0.0675
81369W        W82233  27.905   3.109  23.905 -0.1262 -0.3089 -0.3610
81370W        W82234  23.730   1.353  18.822  0.1790  0.0654 -0.1611
81371W        W82235  26.590  27.900  19.108  0.0691 -0.0862 -0.2562
81372W        W82236  26.544   4.962  20.631  0.2127  0.0462 -0.1302
81373W        W82237  27.163   1.281  19.094 -0.0962  0.0349 -0.1807
81374W        W82238  27.002   0.692  20.269  0.2007  0.1689  0.0195
81375W        W82239  27.367   2.981  22.667 -0.1140 -0.0339  0.0588
81376W        W82240  26.349  27.886  17.312  0.0474 -0.2670  0.0896
81377W        W82241  27.983   3.519  20.143  0.0219 -0.1811 -0.4352
81378W        W82242  25.364  27.809  16.788  0.0772  0.1458  0.3230
81379W        W82243  27.466   1.123  19.521  0.0715  0.0801  0.2451
81380W        W82244  28.994  27.170  22.286  0.0171  0.3915 -0.4256
81381W        W82245  26.098   2.259  21.888  0.2735  0.0309 -0.1440
81382W        W82246  27.299   0.923  18.617  0.2380  0.1701  0.1269
81383W        W82247  25.739  25.914  18.809 -0.0150  0.1453  0.0219
81384W        W82248  27.994   1.306  19.409  0.1170  0.0834  0.2342
81385W        W82249  27.803  28.782  21.559  0.0739  0.1633 -0.1193
81386W        W82250  26.225   2.730  19.474 -0.1114  0.0542 -0.1300
81387W        W82251  27.476   1.084  24.025 -0.2544 -0.3556 -0.3814
81388W        W82252  24.790   2.481  21.806 -0.0049  0.0735  0.0067
81389W        W82253  26.862  28.721  20.234  0.0066 -0.0746  0.0633
81390W        W82254  24.753  27.204  18.879  0.1534 -0.3945 -0.2646
81391W        W82255  25.774   0.372  21.720  0.2020  0.2428 -0.1525
81392W        W82256  24.997   2.954  20.024  0.0107 -0.1476 -0.2173
81393W        W82257  27.253   3.698  24.159  0.1312 -0.2030 -0.1326
81394W        W82258  27.573   1.380  22.039 -0.1663 -0.2382  0.0547
81395W        W82259  29.063   0.255  23.213 -0.2101  0.0190  0.3243
81396W        W82260   2.046   1.058  19.451  0.1661 -0.1428  0.0174
81397W        W82261  25.275   1.606  19.854  0.2276  0.2255  0.0558
81398W        W82262  28.784   5.479  19.862 -0.2687  0.1389  0.1851
81399W        W82263  27.455   0.867  20.123  0.2207  0.3264  0.1502
81400W        W82264  29.102   0.542  19.576 -0.0743 -0.1728 -0.0117
81401W        W82265  24.684   1.997  24.272 -0.1790  0.1984  0.1033
81402W        W82266  25.712   2.455  24.023  0.2451 -0.1624 -0.0366
81403W        W82267  26.300   2.191  18.597 -0.1158 -0.0502  0.1791
81404W        W82268  27.806   0.944  24.450  0.2086 -0.2555  0.0044
81405W        W82269  26.272   3.308  18.432 -0.1732  0.1760  0.0273
81406W        W82270  26.084   3.902  16.575  0.2304  0.0924 -0.0091
81407W        W82271  25.983  28.566  18.419 -0.0047  0.0192  0.0808
81408W        W82272  25.996   0.303  18.118 -0.0423 -0.0696  0.0019
81409W        W82273  26.398  27.825  20.211  0.1200 -0.1772 -0.0848
81410W        W82274  28.704   3.380  20.486 -0.3338  0.0059  0.1102
81411W        W82275  24.176   1.170  19.123 -0.2465 -0.0338  0.1669
81412W        W82276  25.672  25.279  20.174 -0.2456  0.0300  0.1184
81413W        W82277  26.182   4.010  19.178  0.1309  0.1760  0.0420
81414W        W82278  24.837   1.659  18.067 -0.2274 -0.0541 -0.0597
81415W        W82279  25.534   0.897  15.725  0.1082  0.3606 -0.1584
81416W        W82280  27.049   3.863  18.861  0.0707 -0.1080 -0.0826
81417W        W82281  26.135   3.761  20.893  0.0574  0.0507  0.0566
81418W        W82282  25.744  28.803  20.909 -0.1322  0.0977 -0.2378
81419W        W82283   0.112   2.606  22.135  0.1499  0.0994  0.1633
81420W        W82284  27.315  26.693  17.508  0.0163  0.0669 -0.0001
81421W        W82285  28.767  28.795  19.972 -0.3005  0.0810  0.2191
81422W        W82286  26.573   0.842  20.560  0.0014 -0.0356 -0.0002
81423W        W82287  27.570   1.343  20.367  0.1021  0.0334  0.2304
81424W        W82288  28.650  28.601  18.727 -0.0546 -0.0954  0.4613
81425W        W82289  27.062   0.758  19.636 -0.0458  0.2773  0.4448
81426W        W82290   0.029   0.273  20.829  0.1146 -0.0485  0.1334
81427W        W82291  28.810   0.339  19.108  0.1666 -0.0878  0.0906
81428W        W82292  27.526  27.381  19.498  0.0939  0.2612  0.0480
81429W        W82293  26.772   1.328  20.411 -0.1322  0.1904 -0.0915
81430W        W82294  24.561   1.763  19.152  0.0146 -0.2115  0.1338
81431W        W82295  25.347   1.112  22.087 -0.0904 -0.3242 -0.1479
81432W        W82296  27.342   0.187  19.515 -0.1740  0.1055 -0.1246
81433W        W82297  27.054   5.152  18.939 -0.0716  0.1359  0.2188
81434W        W82298  28.798   0.924  18.303  0.2003 -0.0762 -0.2496
81435W        W82299  25.402   1.674  24.682  0.0340 -0.0784 -0.3592
81436W        W82300  26.763   2.300  20.763  0.0159 -0.0130  0.0548
81437W        W82301  27.897   0.640  20.166  0.1051  0.0773  0.2404
81438W        W82302  27.105   1.195  20.062  0.1810  0.1501  0.3570
81439W        W82303   2.068   1.783  23.286 -0.1185 -0.1409  0.1725
81440W        W82304  27.423   2.858  17.829 -0.1288  0.2004  0.0198
81441W        W82305  26.520   0.994  21.243  0.1025 -0.1218  0.0617
81442W        W82306  28.233   5.864  17.377 -0.1058 -0.2007 -0.0532
81443W        W82307  28.456   2.325  22.613 -0.0847  0.0081  0.2378
81444W        W82308  26.408   3.691  21.711 -0.1734  0.2361 -0.1890
81445W        W82309  29.145  28.308  21.996  0.0539 -0.1415 -0.1672
81446W        W82310   1.159  28.265  20.348 -0.1880  0.0961  0.1559
81447W        W82311  26.903   4.556  22.254 -0.1373 -0.1991  0.0128
81448W        W82312  24.983  28.491  18.321  0.2820  0.3689 -0.1037
81449W        W82313  26.491   2.805  17.494 -0.0168  0.0171  0.3187
81450W        W82314  26.949   1.312  22.061 -0.0164  0.2658  0.1423
81451W        W82315  26.080   3.957  21.383  0.0089 -0.1477  0.1642
81452W        W82316   0.332   1.840  20.935 -0.0839  0.2303  0.2673
81453W        W82317  25.711   4.868  16.958  0.0272 -0.1269 -0.1370
81454W        W82318  28.131   1.861  20.833 -0.0020  0.4365 -0.0135
81455W        W82319  27.132   0.621  23.693 -0.3990  0.0455 -0.1429
81456W        W82320  28.117  29.087  21.266 -0.0454 -0.1291 -0.0915
81457W        W82321  22.708   4.635  19.498 -0.3673  0.0571 -0.2897
81458W        W82322  28.206   4.231  17.812 -0.2880  0.1899 -0.0955
81459W        W82323  26.691   2.402  21.854 -0.1602 -0.0720 -0.0569
81460W        W82324  27.096   1.700  20.047 -0.0795  0.1794  0.1074
81461W        W82325  28.954   2.974  22.367 -0.2052  0.1018 -0.0046
81462W        W82326  25.878   1.336  22.031  0.0663  0.1423 -0.0405
81463W        W82327  27.955   4.203  20.363  0.1380 -0.1106  0.0659
81464W        W82328  27.725   5.708  20.781 -0.1236 -0.0299 -0.1628
81465W        W82329  27.989   5.299  17.034 -0.0949 -0.3060 -0.0896
81466W        W82330  24.483   0.606  22.124  0.0643  0.0561  0.2747
81467W        W82331  26.120  28.785  20.139  0.0068 -0.2635  0.1004
81468W        W82332  26.655  28.443  20.711 -0.2161 -0.4781 -0.2478
81469W        W82333  26.366  28.836  18.586  0.0127  0.0522  0.2827
81470W        W82334  24.743   3.153  19.505 -0.1685 -0.0214 -0.0466
81471W        W82335  27.203   0.563  18.181 -0.0757  0.0496  0.2185
81472W        W82336  25.982   3.312  21.141 -0.0851 -0.1972 -0.0415
81473W        W82337   0.119   3.802  20.130  0.2118  0.0791 -0.0672
81474W        W82338  25.909   1.377  19.462 -0.0877 -0.0845  0.2578
81475W        W82339  28.307   1.502  22.420 -0.0748  0.3659  0.2506
81476W        W82340  26.939   3.005  21.197  0.0570  0.0970  0.3289
81477W        W82341  27.074   4.672  20.554 -0.1558  0.0755 -0.4529
81478W        W82342  27.440   3.496  20.273  0.2241 -0.2617  0.1249
81479W        W82343  28.141   1.617  18.956  0.1210 -0.0847  0.0966
81480W        W82344   0.344   2.325  20.441  0.2101  0.1012 -0.2469
81481W        W82345  28.197  29.144  21.758  0.0609  0.0391  0.0132
81482W        W82346  27.533  27.512  20.760  0.0212 -0.1689  0.0820
81483W        W82347  28.672   2.978  19.023 -0.2416 -0.0912 -0.1494
81484W        W82348  27.780  28.507  19.197  0.1129 -0.2816 -0.0028
81485W        W82349  27.224   0.004  18.956  0.1757  0.2468  0.0703
81486W        W82350  26.910   1.315  18.573  0.1396 -0.1118 -0.0705
81487W        W82351  23.527   3.932  19.028 -0.0407  0.2866 -0.2786
81488W        W82352  25.740   1.496  20.915  0.1362  0.0088  0.0812
81489W        W82353  26.619   5.009  19.212  0.0807  0.1554  0.1538
81490W        W82354  25.188   3.433  21.710 -0.0893  0.0016  0.0333
81491W        W82355  27.078   1.859  20.965 -0.1222 -0.1526  0.5250
81492W        W82356  28.455   5.273  16.871 -0.0511  0.0360  0.4145
81493W        W82357  26.507   1.298  23.949 -0.4127  0.3408  0.0669
81494W        W82358   2.457   1.234  18.221 -0.1895  0.2402 -0.0307
81495W        W82359  25.635   0.275  19.261  0.1060  0.1163  0.1473
81496W        W82360  27.540   1.502  19.912 -0.2616  0.0774 -0.3004
81497W        W82361  27.551   2.864  22.060  0.0533  0.1804 -0.0415
81498W        W82362  26.137   0.590  21.440 -0.0923  0.0096 -0.1405
81499W        W82363  27.974   3.744  22.252 -0.0240  0.2849 -0.2953
81500W        W82364  27.820   0.799  21.307  0.1598  0.0275 -0.0048
81501W        W82365  26.522   3.385  19.925 -0.1348  0.1171  0.0802
81502W        W82366  26.674  28.899  19.823  0.2204 -0.0396 -0.0863
81503W        W82367  26.156   0.090  17.668  0.1661 -0.0593  0.1388
81504W        W82368  23.813   0.518  22.936  0.2695  0.0996 -0.0214
81505W        W82369  26.646   3.785  20.874  0.0435  0.0574 -0.2006
81506W        W82370   0.464   2.354  15.520 -0.0372 -0.0801  0.0026
81507W        W82371  27.039   3.132  18.017  0.0574 -0.1425 -0.1896
81508W        W82372  24.626   2.853  22.189  0.0495  0.0256 -0.4142
81509W        W82373   0.393   0.855  18.477 -0.1450  0.1504 -0.0263
81510W        W82374  28.567  28.240  20.567  0.1707  0.0070  0.1868
81511W        W82375  27.648   3.024  18.921 -0.1035  0.1191 -0.3463
81512W        W82376  24.832   0.879  20.019 -0.1074 -0.1918 -0.1091
81513W        W82377   0.006  28.418  15.147 -0.1505 -0.0101  0.1396
81514W        W82378  28.724   3.845  21.420  0.4189 -0.2370  0.2924
81515W        W82379  26.811   0.825  18.444 -0.1877 -0.0859 -0.0308
81516W        W82380  27.556   0.581  19.722 -0.0102  0.0241  0.0987
81517W        W82381  27.709   0.173  21.486  0.0300  0.4914  0.0221
81518W        W82382  25.726   1.273  20.368 -0.1225  0.3106 -0.0544
81519W        W82383  26.178   1.722  17.541  0.0037 -0.0675 -0.0359
81520W        W82384  27.456   1.812  20.327 -0.0867  0.0509  0.0762
81521W        W82385  26.761  29.117  18.895 -0.0500 -0.3923 -0.0183
81522W        W82386  28.545   1.656  21.089  0.0459 -0.2585 -0.2997
81523W        W82387   1.648   1.714  18.931 -0.3807  0.0967 -0.0116
81524W        W82388  23.957   2.236  18.025  0.2876  0.1669 -0.2586
81525W        W82389  27.464   5.408  20.425  0.3226  0.0158  0.1536
81526W        W82390  28.157   2.494  22.960  0.2507  0.0840 -0.0185
81527W        W82391  25.270   3.615  23.876  0.1156 -0.1328 -0.4023
81528W        W82392   1.610   3.736  21.065  0.2148 -0.0681 -0.0295
81529W        W82393   1.586   1.210  19.341 -0.0151 -0.0725 -0.0642
81530W        W82394  26.066   3.713  19.694  0.0585 -0.1810 -0.0414
81531W        W82395  27.396   3.246  21.225  0.2497 -0.0527 -0.0754
81532W        W82396  27.647  28.148  20.428  0.1371 -0.2249 -0.2353
81533W        W82397  27.242   2.813  20.295  0.0222  0.2955  0.1792
81534W        W82398  25.245   1.943  19.247 -0.3764  0.0696  0.2831
81535W        W82399  26.361  27.207  21.365 -0.0132  0.4153 -0.1520
81536W        W82400  26.012   2.902  22.782  0.1995 -0.3105 -0.2774
81537W        W82401  26.925   0.274  19.237 -0.0735 -0.4497  0.1077
81538W        W82402  27.769   3.285  18.476  0.0572  0.0923  0.0214
81539W        W82403  26.089   3.197  20.631 -0.0113  0.1022  0.1813
81540W        W82404  27.223   3.090  21.703  0.1901  0.1624  0.1045
81541W        W82405   0.117   0.536  17.745  0.0483 -0.1295  0.1482
81542W        W82406  27.807  28.983  17.555  0.3254 -0.0879  0.0090
81543W        W82407  28.113   3.869  23.179  0.1099 -0.0305 -0.1629
81544W        W82408  27.761   0.668  18.173  0.1104 -0.0661 -0.1143
81545W        W82409  27.777   1.966  23.628  0.1061  0.0865  0.0007
81546W        W82410   3.087   3.425  20.078 -0.0182 -0.3315  0.2436
81547W        W82411  28.394   2.880  22.604 -0.0313  0.0254  0.1666
81548W        W82412  24.284   4.159  20.583 -0.2323 -0.0994 -0.0873
81549W        W82413  25.216   3.296  19.531 -0.1570 -0.0274  0.1057
81550W        W82414  26.542   2.069  21.487 -0.1797  0.0974 -0.0359
81551W        W82415  26.769  28.912  20.807 -0.1998  0.0408 -0.1219
81552W        W82416  25.727   1.844  19.508 -0.0031 -0.0573  0.0468
81553W        W82417   0.500   1.928  18.685  0.2234  0.0648  0.2734
81554W        W82418  26.094   2.001  20.084  0.0417  0.1872 -0.0014
81555W        W82419  25.789   4.602  22.212 -0.1768  0.0865 -0.0118
81556W        W82420   0.679   1.647  19.548 -0.0336  0.0680 -0.2877
81557W        W82421   0.286   0.009  21.643 -0.0872 -0.0048  0.0341
81558W        W82422  27.295   4.316  18.741 -0.1222 -0.1872 -0.1750
81559W        W82423  28.333  28.554  21.486 -0.0318  0.0937 -0.0863
81560W        W82424   2.182   1.715  21.913  0.0766 -0.3865  0.0019
81561W        W82425  26.210   1.345  18.306  0.0994 -0.1497  0.1912
81562W        W82426   0.013   1.678  18.816  0.0447 -0.1564  0.2177
81563W        W82427  27.362   0.542  20.675  0.1465 -0.2263  0.3773
81564W        W82428  28.638  29.069  18.367  0.2843  0.2636  0.2170
81565W        W82429  25.528   5.070  19.183  0.1075  0.1852  0.1851
81566W        W82430  26.509   3.894  22.186  0.1293  0.0650  0.1084
81567W        W82431  26.646   0.985  19.979 -0.1008 -0.0966 -0.2703
81568W        W82432  27.926   1.671  20.363 -0.3509  0.1332  0.0880
81569W        W82433  27.512   2.528  22.486 -0.0287  0.0316 -0.0214
81570W        W82434  25.542   1.848  21.271 -0.0477 -0.2693  0.0916
81571W        W82435  24.178   1.937  17.302 -0.0085  0.1267 -0.1814
81572W        W82436  26.013   0.253  20.223  0.0448  0.0138  0.3696
81573W        W82437  26.955   1.226  19.548  0.0508  0.1723 -0.2254
81574W        W82438  23.704  29.003  19.289  0.6641 -0.0670 -0.1526
81575W        W82439  26.112   2.427  22.328  0.1405  0.1395 -0.0593
81576W        W82440   0.341   0.887  19.543 -0.1933  0.1660  0.0715
81577W        W82441  28.304   2.088  20.391 -0.1374 -0.0214 -0.0723
81578W        W82442  24.582   2.205  20.307  0.0723  0.0569  0.0173
81579W        W82443  24.683   1.703  18.617  0.2014  0.1531 -0.0059
81580W        W82444  25.202  29.071  19.168 -0.1055 -0.0359 -0.3764
81581W        W82445  27.727   2.363  21.537 -0.0198  0.3434  0.2322
81582W        W82446  26.923   5.632  20.119 -0.4996 -0.0006 -0.2735
81583W        W82447  26.286  28.774  19.144 -0.2340  0.2073 -0.4036
81584W        W82448  23.733   1.434  16.547 -0.0122  0.1461  0.0479
81585W        W82449  24.753  28.475  19.469  0.0393 -0.2303 -0.0418
81586W        W82450  27.974   1.362  21.325  0.0391  0.0224 -0.1614
81587W        W82451  26.065   2.880  19.956  0.0039  0.0905 -0.0268
81588W        W82452  27.454   1.339  17.683  0.2617 -0.0439  0.1326
81589W        W82453  27.438   2.953  17.205 -0.2519 -0.0429  0.2634
81590W        W82454   0.364   1.254  20.113 -0.0029 -0.0933 -0.1720
81591W        W82455  26.176   3.107  19.164 -0.0736 -0.0239  0.1292
81592W        W82456   1.778   1.968  20.644  0.0226  0.0880 -0.3549
81593W        W82457  28.364   0.983  17.518  0.0313  0.1970  0.2206
81594W        W82458  28.530   1.197  21.401 -0.2233 -0.1788  0.1070
81595W        W82459  24.134  28.684  17.615 -0.2393  0.2239 -0.1214
81596W        W82460  27.268  28.527  18.241  0.6540 -0.0032 -0.0736
81597W        W82461  27.811   3.425  19.211 -0.0258  0.0125  0.3820
81598W        W82462   0.678   0.773  23.753  0.1502  0.0438  0.0179
81599W        W82463  28.295   0.116  20.769  0.1519  0.1824  0.1806
81600W        W82464  28.079   0.460  21.563 -0.0337 -0.0931  0.0901
81601W        W82465  25.419   0.611  21.384  0.0566 -0.2289 -0.1626
81602W        W82466  26.563   3.075  20.394 -0.2663 -0.0159  0.2080
81603W        W82467  25.740   0.962  20.787 -0.0202 -0.1579 -0.1256
81604W        W82468  25.343   2.708  20.957  0.3319  0.0118 -0.1801
81605W        W82469  28.935   0.657  20.354  0.1651 -0.1682  0.2038
81606W        W82470  26.502   1.008  18.132 -0.2777 -0.4163  0.1485
81607W        W82471  27.729   0.662  18.726  0.1173  0.1576  0.0784
81608W        W82472   0.217   1.352  19.129 -0.0071 -0.0756 -0.1403
81609W        W82473  26.321   2.529  22.890  0.5339 -0.1529 -0.2625
81610W        W82474  28.538   2.132  21.772  0.0548  0.0465 -0.2189
81611W        W82475   0.864   1.016  18.116 -0.0802 -0.2560  0.0703
81612W        W82476  27.238   3.717  20.656 -0.0185 -0.0322  0.1485
81613W        W82477  27.079   2.466  22.736  0.2360 -0.0102 -0.1265
81614W        W82478   0.874   1.167  20.428  0.1319  0.1063 -0.1526
81615W        W82479  25.904   1.546  22.821  0.1168 -0.0905  0.1884
81616W        W82480  26.176   1.845  19.220 -0.1911 -0.4734 -0.0962
81617W        W82481   0.001   2.193  20.981 -0.1727  0.2665  0.1843
81618W        W82482  28.059   4.235  21.392 -0.1719  0.2273 -0.1803
81619W        W82483  26.483   2.159  19.512  0.1909  0.0356  0.0462
81620W        W82484  26.903   0.244  20.791 -0.1789  0.2345  0.0598
81621W        W82485  26.331   7.001  17.285 -0.1648  0.3321 -0.0218
81622W        W82486  27.914   3.248  21.260  0.2527 -0.2651  0.1091
81623W        W82487  27.682   2.309  19.595 -0.1469 -0.4796 -0.1815
81624W        W82488  25.002   1.542  18.992 -0.2745  0.1584  0.2098
81625W        W82489  25.245   6.250  26.134  0.0116  0.0864  0.0874
81626W        W82490  24.119   3.052  26.746  0.4457  0.0505  0.1166
81627W        W82491  28.463   2.466  22.148  0.1721 -0.1570  0.1898
81628W        W82492  26.835   6.414  25.982 -0.1170  0.1920 -0.1330
81629W        W82493  25.377   1.554  22.892  0.0935 -0.0528  0.0063
81630W        W82494  26.308   4.093  23.858 -0.0541 -0.1334 -0.0350
81631W        W82495  26.351   0.182  23.990 -0.0229 -0.3957 -0.1254
81632W        W82496  25.529   0.573  24.562 -0.0950 -0.0220  0.0146
81633W        W82497  28.157   4.129  24.097 -0.1115  0.0345  0.1119
81634W        W82498  26.161   0.806  25.775 -0.1238  0.0734  0.2581
81635W        W82499  26.712  27.228  25.130 -0.1185 -0.2059 -0.1289
81636W        W82500  27.610   1.719  20.793 -0.0056  0.0191  0.1123
81637W        W82501  28.414   3.079  23.090  0.4711  0.1339 -0.0793
81638W        W82502   0.317   2.335  24.126  0.0538  0.0355 -0.0804
81639W        W82503   0.502  29.048  24.008 -0.0292 -0.0072  0.1281
81640W        W82504  28.299   7.032  26.075 -0.0615 -0.2289  0.1341
81641W        W82505  26.416   2.128  20.425 -0.0300 -0.0928  0.1626
81642W        W82506  28.656   0.357  24.169  0.0544  0.1363  0.2249
81643W        W82507   1.179  27.806  24.582  0.1072  0.2455 -0.2596
81644W        W82508   2.272   1.636  24.258 -0.0520 -0.3201  0.3642
81645W        W82509   1.466   2.856  24.599 -0.0083 -0.2167 -0.3978
81646W        W82510  28.428   2.156  24.916  0.0147 -0.2537 -0.1423
81647W        W82511  28.011   4.977  23.074  0.0291 -0.0642  0.2264
81648W        W82512  25.786   3.463  25.231 -0.1809 -0.1537  0.2198
81649W        W82513  28.110  29.116  23.185  0.2667 -0.1609 -0.0147
81650W        W82514  26.906   0.793  24.244  0.1355  0.1682 -0.1833
81651W        W82515   2.329   2.252  23.528 -0.0749 -0.2295  0.0390
81652W        W82516  27.381   2.940  24.380 -0.0576 -0.0303  0.1701
81653W        W82517  28.332   4.869  24.802 -0.0068 -0.2172  0.2624
81654W        W82518  26.707   1.292  26.282 -0.2255 -0.2494  0.0049
81655W        W82519  25.632   0.249  23.376 -0.1031  0.0920 -0.2923
81656W        W82520  28.594   1.643  26.718  0.2105  0.1157  0.0676
81657W        W82521  25.567   3.103  26.538  0.0982 -0.1148  0.0510
81658W        W82522  27.210   1.699  26.654  0.0065  0.2583  0.0297
81659W        W82523  26.984   3.748  25.818  0.1554  0.2688 -0.0055
81660W        W82524  27.811   5.261  25.475 -0.1451 -0.1162  0.2213
81661W        W82525   0.477   0.435  25.765  0.2821 -0.1308  0.0276
81662W        W82526  24.651   6.469  25.206  0.1012  0.1420  0.2179
81663W        W82527  28.477   1.485  24.122 -0.2469  0.6525 -0.1225
81664W        W82528  27.889   4.700  23.466  0.0013 -0.0849 -0.0145
81665W        W82529  27.865  28.552  20.312 -0.0324  0.2276 -0.1724
81666W        W82530  26.157   2.618  23.850 -0.1161 -0.0979 -0.2133
81667W        W82531  28.252   2.764  24.518  0.2757  0.1448  0.1341
81668W        W82532   1.185   0.910  20.143  0.0647 -0.0242  0.2542
81669W        W82533  24.231   2.686  23.084  0.0660 -0.2272  0.4275
81670W        W82534  28.546   4.441  23.789  0.1622  0.5402 -0.0552
81671W        W82535  26.504   1.052  22.092 -0.1434 -0.3433 -0.3040
81672W        W82536   1.483   2.519  25.784 -0.2104 -0.2950  0.1939
81673W        W82537  26.011   0.488  24.232 -0.0135  0.0295  0.3268
81674W        W82538  28.732  28.089  23.849 -0.1086  0.3060 -0.2228
81675W        W82539  27.108   1.539  26.115 -0.2097  0.3146 -0.2909
81676W        W82540   0.402  27.738  22.714 -0.2111 -0.1527 -0.0746
81677W        W82541  27.084   3.620  24.707 -0.2691 -0.0208 -0.0417
81678W        W82542  27.489   1.753  24.789 -0.0767 -0.2368 -0.0663
81679W        W82543  28.696  27.769  25.926 -0.0750  0.1135  0.2153
81680W        W82544  24.427   6.269  23.941 -0.3614  0.2560 -0.1260
81681W        W82545  27.515  28.423  21.249  0.3196 -0.0487 -0.2984
81682W        W82546  27.505   3.043  23.498  0.0204 -0.2526 -0.0628
81683W        W82547  28.947   2.930  24.917  0.2538 -0.0012 -0.1685
81684W        W82548  28.026   0.847  23.679 -0.0661  0.1789 -0.1285
81685W        W82549  27.763   4.024  21.855  0.0473 -0.1685 -0.2487
81686W        W82550  26.102   4.206  26.864 -0.0230 -0.1293  0.0965
81687W        W82551  24.390   1.451  24.765 -0.0062  0.1251 -0.0162
81688W        W82552  28.034   1.275  23.184 -0.2515 -0.0772 -0.0239
81689W        W82553  27.261  27.788  27.051  0.2748 -0.0440 -0.1100
81690W        W82554   2.530   2.063  24.174  0.1705  0.1888 -0.0239
81691W        W82555  25.325   4.157  23.753  0.3018 -0.1408  0.3051
81692W        W82556  26.950   0.070  23.542  0.3692  0.0519 -0.1037
81693W        W82557  26.807   1.594  24.421 -0.0687  0.0906  0.1625
81694W        W82558  27.166   5.320  21.736  0.2261 -0.1119  0.0493
81695W        W82559  26.757   6.898  25.008 -0.3215 -0.1707  0.0147
81696W        W82560  28.244   4.058  21.920 -0.2193 -0.1406 -0.0135
81697W        W82561  28.529   4.870  25.694  0.1154 -0.0326 -0.0685
81698W        W82562   0.176   2.466  25.040 -0.0456 -0.1125  0.2625
81699W        W82563   2.925   3.717  22.447 -0.1090  0.0651  0.0907
81700W        W82564   1.608   1.966  23.058  0.3246 -0.0967  0.2874
81701W        W82565  24.966   1.091  23.969  0.1014 -0.2652  0.0679
81702W        W82566  26.204   1.725  25.128  0.0746 -0.0624 -0.0462
81703W        W82567  27.757   0.437  24.470 -0.2648 -0.1193  0.1117
81704W        W82568  27.225   2.489  21.895  0.1183  0.0454 -0.0753
81705W        W82569  26.037   3.578  26.149  0.0045  0.0549 -0.1504
81706W        W82570  26.092   0.835  28.468  0.3149 -0.1047 -0.0025
81707W        W82571  26.112   3.212  26.462  0.0923 -0.0643  0.1656
81708W        W82572  28.333  29.079  22.219  0.0818  0.0268  0.3830
81709W        W82573  27.650   3.433  24.284 -0.2240  0.0511  0.4313
81710W        W82574  27.556  27.714  23.077  0.1313 -0.0948  0.0356
81711W        W82575  26.727   5.027  22.158 -0.4521 -0.1410 -0.0761
81712W        W82576  28.655   0.525  23.029 -0.2784 -0.2888 -0.0760
81713W        W82577   0.468   0.103  26.204  0.1032  0.0844  0.2412
81714W        W82578  26.102   1.596  23.760  0.1889  0.0657 -0.2115
81715W        W82579  27.451   0.620  21.673 -0.0342 -0.0526 -0.4003
81716W        W82580  27.121   3.808  27.293 -0.2037 -0.1291  0.0640
81717W        W82581  25.815   1.372  24.993 -0.0959  0.3722 -0.0564
81718W        W82582   0.906   2.389  23.401 -0.1112  0.0094 -0.2322
81719W        W82583  26.794  29.020  28.642 -0.1539  0.0303 -0.0902
81720W        W82584  27.468   0.808  22.136 -0.1764  0.0670 -0.0265
81721W        W82585  28.251   0.995  21.032 -0.1617  0.0351  0.0011
81722W        W82586  24.501   5.407  24.164  0.0619 -0.1304 -0.3194
81723W        W82587  26.626  27.347  23.234  0.5744  0.0607  0.2348
81724W        W82588  28.766   2.727  23.473  0.0247  0.2527  0.1826
81725W        W82589  28.463   4.716  19.926  0.0455  0.3714  0.1470
81726W        W82590  26.843   2.958  24.253  0.0181 -0.1531  0.0673
81727W        W82591  28.008   2.106  21.910  0.1597 -0.1023 -0.1014
81728W        W82592  28.861   4.818  23.721 -0.0911  0.2452 -0.2074
81729W        W82593  28.119   1.743  24.596  0.1388  0.0090  0.0849
81730W        W82594  27.308   5.247  23.626 -0.2754  0.2790 -0.1072
81731W        W82595  25.664   2.226  22.115 -0.0472  0.0751 -0.0253
81732W        W82596  28.337   2.273  27.203  0.2559  0.1284 -0.2255
81733W        W82597  28.648  28.506  24.126 -0.3125  0.0795 -0.1737
81734W        W82598  26.500   0.370  24.975  0.2190  0.2341  0.0819
81735W        W82599  26.554   4.052  25.882  0.0295 -0.1304 -0.0167
81736W        W82600  26.300   4.283  23.345 -0.1120 -0.0828  0.1219
81737W        W82601  25.838   1.915  24.735  0.4238  0.0808 -0.0270
81738W        W82602  28.071   3.224  24.386  0.1810  0.1192 -0.1858
81739W        W82603  26.632   0.485  21.271 -0.0804 -0.1472 -0.1413
81740W        W82604  27.120  26.657  21.633  0.3166  0.1605  0.1161
81741W        W82605  27.462   2.794  26.376 -0.2326  0.0662  0.1220
81742W        W82606  26.535   5.111  23.308  0.5446  0.0653  0.1795
81743W        W82607   0.184   3.455  24.246  0.0556 -0.0978  0.5003
81744W        W82608  28.373   1.521  22.932  0.0138  0.1653  0.2791
81745W        W82609   0.035   2.549  23.211 -0.2139 -0.1381 -0.0574
81746W        W82610  27.832   2.909  22.874 -0.0784 -0.0740 -0.1194
81747W        W82611   0.606   2.874  22.707 -0.1624 -0.2386 -0.0390
81748W        W82612   1.534   1.726  19.484  0.0749  0.0910 -0.1065
81749W        W82613  26.932   2.217  22.247  0.2137  0.0325  0.0546
81750W        W82614  25.774   1.774  24.272 -0.2487 -0.1753 -0.1764
81751W        W82615  27.638  28.542  23.779  0.2721  0.0086  0.0852
81752W        W82616  26.440   2.926  26.672  0.2801 -0.0781 -0.0335
81753W        W82617  25.855   6.312  23.404 -0.0730  0.0850  0.0161
81754W        W82618  26.183   6.143  26.834  0.2913  0.1038  0.0782
81755W        W82619  28.287   0.156  25.241  0.4769  0.4445  0.2558
81756W        W82620  26.947   4.040  26.248  0.0264 -0.1402 -0.1872
81757W        W82621  23.786   5.550  24.883  0.0325  0.0587  0.2056
81758W        W82622   2.011   1.240  23.466 -0.2303 -0.2899 -0.1469
81759W        W82623  28.242   4.226  25.855 -0.2968 -0.0797 -0.2269
81760W        W82624  26.794   0.562  27.062 -0.2103  0.5028 -0.0296
81761W        W82625  28.958   3.563  24.571 -0.1283 -0.0101 -0.1950
81762W        W82626  28.739   3.477  24.021 -0.1112  0.3787  0.1323
81763W        W82627  29.034   6.605  25.669 -0.0256  0.1026 -0.0931
81764W        W82628  28.002   2.667  22.128 -0.0840 -0.1799 -0.0312
81765W        W82629  28.705   0.476  20.786  0.0954 -0.0679  0.1082
81766W        W82630  26.916   1.157  24.672  0.0918  0.3124 -0.0199
81767W        W82631  27.080   1.276  21.185 -0.0037  0.2346 -0.0078
81768W        W82632  27.502   1.121  23.109  0.0370  0.0964  0.1966
81769W        W82633  26.658   1.477  25.244 -0.0371  0.3914  0.2156
81770W        W82634  26.123  28.059  24.150  0.1907  0.4697 -0.1833
81771W        W82635  27.645  28.519  25.634  0.0922  0.2151 -0.2659
81772W        W82636   0.524   3.130  24.403 -0.3404  0.1020 -0.0284
81773W        W82637  27.496   4.644  21.043  0.1825  0.0471  0.0296
81774W        W82638  26.372   1.407  22.944  0.0089 -0.0193 -0.2121
81775W        W82639  28.297   5.668  21.465 -0.0097  0.1347 -0.1228
81776W        W82640  28.389   1.571  20.464 -0.2281  0.1085  0.0411
81777W        W82641  26.330   3.746  23.078  0.0101 -0.0770  0.1487
81778W        W82642  26.308   1.702  21.675  0.3206 -0.2639 -0.0190
81779W        W82643  26.086   2.848  25.756  0.0784  0.0086  0.0078
81780W        W82644  27.706   1.649  26.745  0.0068  0.0522  0.0114
81781W        W82645  27.922   0.988  25.187  0.1135 -0.1089  0.3598
81782W        W82646  28.410   2.607  24.031 -0.2186  0.1725 -0.5138
81783W        W82647  26.510  27.685  24.906 -0.2810  0.1835  0.3873
81784W        W82648  28.969   4.046  24.589  0.0974 -0.1367 -0.1047
81785W        W82649   0.307  29.130  25.576  0.0252 -0.2346  0.1327
81786W        W82650  26.200   4.180  26.238 -0.0970 -0.3952  0.3692
81787W        W82651  28.240  27.793  27.958 -0.0251  0.0423 -0.2228
81788W        W82652  28.239   3.483  25.349  0.3096 -0.0384  0.0247
81789W        W82653   0.291   0.430  27.466  0.0557 -0.2898 -0.2376
81790W        W82654  26.417   1.159  25.504 -0.1437 -0.2249  0.0112
81791W        W82655  26.928   1.144  22.920 -0.1573 -0.2994  0.0317
81792W        W82656  26.121   5.190  22.767 -0.2087 -0.1428 -0.3510
81793W        W82657  27.718   5.280  26.216 -0.2366 -0.0179  0.4143
81794W        W82658  26.024   3.380  22.647  0.4498  0.0171 -0.1505
81795W        W82659  28.931   2.240  24.216  0.1351  0.0745  0.2200
81796W        W82660  27.285   0.297  21.122 -0.0290  0.2222 -0.2625
81797W        W82661  26.820   0.404  24.597  0.0558  0.2320 -0.1869
81798W        W82662  28.695   2.357  23.058  0.0385  0.0024 -0.3587
81799W        W82663  28.536   1.846  24.427 -0.0214 -0.2687  0.2403
81800W        W82664   0.151   1.650  22.521  0.4503  0.1745 -0.2789
81801W        W82665  26.306   4.079  24.348  0.1274 -0.0342  0.2953
81802W        W82666  26.080   2.368  26.193  0.1808  0.0478  0.1267
81803W        W82667  25.168   2.694  21.489 -0.1488  0.1256  0.3858
81804W        W82668  27.946   0.778  23.130  0.5052 -0.1671  0.1999
81805W        W82669  25.274   5.031  21.053 -0.1728  0.0404  0.1679
81806W        W82670  28.961   1.696  24.271 -0.3679 -0.0269 -0.1220
81807W        W82671  26.014   5.307  21.854 -0.0653  0.2495  0.2041
81808W        W82672  27.045   4.129  24.396 -0.1396  0.0187 -0.2434
81809W        W82673  25.722   2.893  24.291 -0.0334  0.2840 -0.0838
81810W        W82674  28.836   1.490  26.186 -0.0592 -0.1733  0.0689
81811W        W82675  28.788  28.658  19.255 -0.3580 -0.0066 -0.0512
81812W        W82676  26.195   1.595  21.104  0.2489  0.3630 -0.3215
81813W        W82677  27.125   3.828  22.706  0.0717  0.0402  0.2210
81814W        W82678  28.147   0.910  26.165 -0.1328  0.0188  0.1464
81815W        W82679  25.756   1.035  23.034 -0.0497 -0.0637 -0.0479
81816W        W82680  23.982   4.734  23.387 -0.0276 -0.0589  0.2832
81817W        W82681  27.298   1.960  26.236 -0.0690 -0.0785  0.3598
81818W        W82682  28.452  28.919  25.617  0.1307 -0.1556  0.3811
81819W        W82683  28.525  27.902  24.785  0.1423 -0.0328 -0.0265
81820W        W82684  26.475   1.512  23.434  0.4461  0.0413 -0.0667
81821W        W82685  27.428   3.774  22.191 -0.2414  0.0358  0.1099
81822W        W82686  25.415  27.624  24.891  0.0374 -0.1138  0.0456
81823W        W82687  28.851   0.795  22.066 -0.1700 -0.0858  0.2223
81824W        W82688   1.138  28.951  24.848  0.0548  0.0516 -0.1924
81825W        W82689  28.039   0.298  23.870  0.2760  0.2900  0.1794
81826W        W82690   1.637   0.676  25.081 -0.0198 -0.2511 -0.0733
81827W        W82691  28.664   2.967  21.486 -0.0494 -0.1158  0.0369
81828W        W82692  26.326  28.209  22.837  0.1915 -0.2126  0.0129
81829W        W82693  28.675   0.427  25.529  0.1814 -0.0142 -0.2050
81830W        W82694  27.545   4.153  22.985 -0.1076  0.1079  0.0315
81831W        W82695  26.766   2.269  24.939 -0.1809  0.1045 -0.0902
81832W        W82696  26.158   2.906  23.243 -0.2968  0.2119 -0.0717
81833W        W82697  27.450   6.087  21.509  0.1516  0.3134 -0.0373
81834W        W82698  27.794   2.588  23.356  0.1403  0.0958 -0.0621
81835W        W82699  25.721   3.670  25.660 -0.0861  0.1335 -0.1256
81836W        W82700  27.933  28.891  25.243 -0.0367 -0.0760  0.3886
81837W        W82701  29.130   4.901  24.886 -0.3033 -0.0180  0.2215
81838W        W82702   0.032   1.573  24.734 -0.2123  0.0795  0.0294
81839W        W82703   1.155   1.807  24.406 -0.2123 -0.1226 -0.2821
81840W        W82704   0.696   1.580  23.078  0.0714 -0.2618 -0.0807
81841W        W82705  26.704   3.104  22.072 -0.0055  0.0581 -0.0222
81842W        W82706  27.767   3.259  21.861  0.0837  0.0158 -0.0919
81843W        W82707   0.079   2.233  25.489  0.0671  0.0136  0.0085
81844W        W82708  27.007   2.980  26.319 -0.0505 -0.3849  0.0737
81845W        W82709   0.145   3.272  25.644 -0.1937  0.2488 -0.1046
81846W        W82710  28.317   1.936  25.378 -0.1290  0.0289 -0.1056
81847W        W82711  26.841   4.863  23.649  0.2989 -0.2417  0.0150
81848W        W82712  26.220   0.695  19.909  0.3284 -0.1847 -0.1483
81849W        W82713  28.547   2.962  22.020 -0.1463  0.4648 -0.1780
81850W        W82714  27.123   0.328  25.174 -0.1707 -0.0328 -0.1381
81851W        W82715  26.142   5.580  27.683  0.0019 -0.2229 -0.1087
81852W        W82716   0.033   3.751  24.995 -0.0086  0.0974  0.1857
81853W        W82717  26.935   3.259  22.585  0.4365 -0.3409  0.2323
81854W        W82718  29.088   3.352  25.209 -0.3446 -0.2023  0.1722
81855W        W82719  26.313   3.054  25.250  0.0263 -0.0019  0.0502
81856W        W82720   1.629  28.592  23.551  0.2711 -0.0978 -0.0097
81857W        W82721  26.131   2.372  23.351  0.0128 -0.0129 -0.2808
81858W        W82722  26.815   5.913  22.490 -0.1124 -0.2954 -0.0151
81859W        W82723  25.317   2.928  26.077  0.1262  0.0061 -0.1320
81860W        W82724  26.826   4.836  21.694 -0.1536 -0.1989  0.0759
81861W        W82725  27.674   2.084  24.452 -0.1628  0.3332 -0.1067
81862W        W82726   0.478  27.021  25.048  0.2796  0.2811 -0.0252
81863W        W82727  28.729   3.357  25.763  0.0307 -0.1551  0.3719
81864W        W82728  27.788   5.966  22.122  0.2044  0.3207  0.0716
81865W        W82729  26.804   6.177  20.798 -0.1298 -0.0934 -0.1497
81866W        W82730  28.016   2.195  27.769  0.1400 -0.0707 -0.0773
81867W        W82731  26.497  28.628  24.811 -0.1300  0.1861 -0.3944
81868W        W82732  27.391   1.131  24.899 -0.0743  0.1682 -0.0370
81869W        W82733  26.139   0.743  25.168  0.1566 -0.0356  0.0642
81870W        W82734  25.858   3.819  22.977  0.1294  0.0517 -0.2260
81871W        W82735  29.083   2.978  24.308  0.0236 -0.0975 -0.2327
81872W        W82736  24.897   4.998  24.586  0.0558  0.1036 -0.3561
81873W        W82737  28.381   4.327  22.424  0.1306  0.3576  0.0645
81874W        W82738  27.746  28.117  24.078 -0.0082 -0.1471 -0.1432
81875W        W82739  26.439   1.247  24.479  0.2632  0.2102 -0.0667
81876W        W82740  25.645   3.489  26.862  0.0406 -0.2270 -0.1637
81877W        W82741  27.598   6.469  24.803 -0.2406 -0.0818  0.1973
81878W        W82742  27.867   4.105  24.897 -0.2530 -0.1241  0.0004
81879W        W82743  24.734   4.165  24.647  0.0313  0.0061 -0.3396
81880W        W82744  28.693   3.731  20.921 -0.1184  0.0968 -0.1186
81881W        W82745  26.967   2.190  23.829 -0.0564  0.0073 -0.0774
81882W        W82746  26.310  28.656  25.324 -0.1488  0.2534 -0.0492
81883W        W82747   0.081   5.225  23.937  0.0547  0.1453  0.0806
81884W        W82748  28.533   3.595  23.077 -0.1415 -0.3188  0.1316
81885W        W82749  25.468   0.230  24.239  0.0044 -0.0823 -0.0157
81886W        W82750  28.285   2.101  25.829 -0.0919  0.1199 -0.0601
81887W        W82751   0.235   3.931  24.337 -0.2772  0.0192  0.0649
81888W        W82752  27.002   2.695  24.616  0.2277 -0.0107  0.0280
81889W        W82753  26.679   4.363  23.648 -0.2749 -0.0301 -0.1840
81890W        W82754  26.876   5.859  24.746 -0.2556  0.1550  0.0372
81891W        W82755  26.551   1.911  24.003 -0.0147  0.1605 -0.2004
81892W        W82756  28.936   3.601  23.556 -0.0922 -0.0664 -0.3690
81893W        W82757  28.376   1.371  26.366  0.3893  0.2374  0.2244
81894W        W82758   0.328   1.686  24.094 -0.1588 -0.0234  0.0988
81895W        W82759  27.548   4.653  23.008 -0.2482 -0.1649 -0.0054
81896W        W82760   0.860   2.506  25.711 -0.0007 -0.1734 -0.3071
81897W        W82761  26.172   1.243  20.728  0.0006  0.1295 -0.1813
81898W        W82762  25.411   2.667  25.505  0.1046 -0.1590 -0.0122
81899W        W82763  27.982   3.757  24.531  0.0327 -0.0165 -0.2105
81900W        W82764  28.968   0.616  26.507  0.1305 -0.2864  0.1023
81901W        W82765   0.373   1.242  23.824 -0.1105 -0.3494 -0.1638
81902W        W82766  29.123   1.375  25.775 -0.1213 -0.0175  0.2706
81903W        W82767  27.392   1.610  22.961  0.2009  0.3701 -0.1086
81904W        W82768  25.066   4.801  25.496 -0.1381 -0.2439 -0.0214
81905W        W82769  26.747   2.132  24.364  0.0428  0.1101  0.1378
81906W        W82770  26.131   2.127  24.015 -0.1114 -0.2693 -0.0047
81907W        W82771  28.008   4.808  20.825  0.1678  0.2154 -0.0162
81908W        W82772  25.023   4.698  23.820 -0.0175 -0.1412  0.0419
81909W        W82773  26.932   5.495  22.189 -0.1744 -0.2414 -0.0043
81910W        W82774   2.188   2.767  25.217  0.1992  0.0029  0.0175
81911W        W82775  28.562   3.825  22.421  0.0259  0.1953  0.0442
81912W        W82776  25.948   3.079  26.908 -0.1030  0.3018  0.0906
81913W        W82777   0.483   0.451  24.828 -0.2169  0.1146  0.1013
81914W        W82778  28.611   1.086  20.205  0.0461  0.1711  0.0744
81915W        W82779  28.052   2.978  20.738 -0.3944  0.2898 -0.2754
81916W        W82780   1.508   1.827  20.012 -0.1642 -0.1135  0.0297
81917W        W82781  27.648  26.872  24.925  0.2371 -0.1119  0.0701
81918W        W82782  26.022   4.599  25.263 -0.1011 -0.5369 -0.0836
81919W        W82783  25.110   2.026  25.085 -0.2800  0.0501 -0.0689
81920W        W82784  27.788   2.650  24.352 -0.1354 -0.0822 -0.1717
81921W        W82785  28.635   0.992  24.106 -0.0955 -0.2652 -0.0085
81922W        W82786  27.912   4.687  26.995 -0.1780 -0.0336 -0.1274
81923W        W82787  26.702   3.419  25.300  0.0437  0.2921  0.0771
81924W        W82788  24.164   6.543  24.739 -0.2822  0.0456 -0.2437
81925W        W82789  26.270   5.427  21.402  0.1093 -0.4117 -0.1193
81926W        W82790  25.839   1.314  26.432  0.1440 -0.0662 -0.0604
81927W        W82791   0.523   2.790  24.860 -0.1807  0.0150  0.2036
81928W        W82792  29.075   1.076  22.599  0.1055 -0.2531  0.0762
81929W        W82793  28.777   3.648  20.032  0.0530 -0.0731 -0.1029
81930W        W82794  25.313   7.214  21.816  0.0336 -0.0386 -0.0053
81931W        W82795  28.451   4.202  26.348 -0.1569  0.1920  0.2641
81932W        W82796  24.843  28.214  21.153 -0.1961  0.3117 -0.1110
81933W        W82797   0.219  27.494  24.547 -0.3022 -0.1225 -0.0000
81934W        W82798  24.698   4.474  25.490 -0.0535  0.1756  0.0334
81935W        W82799  25.953  29.144  24.324 -0.2586  0.0585 -0.0707
81936W        W82800  27.081   0.913  27.729  0.2056  0.1687 -0.0213
81937W        W82801  28.697   1.911  22.682 -0.1625  0.0836 -0.0381
81938W        W82802  28.454   2.783  24.946  0.2927 -0.0953  0.2145
81939W        W82803  28.087   4.166  26.916  0.0694  0.1190 -0.0312
81940W        W82804  28.557   5.047  23.304  0.1519 -0.1344  0.0601
81941W        W82805  27.675   2.274  22.932  0.0408  0.1800  0.0700
81942W        W82806  26.915   1.738  22.733  0.2352  0.1149  0.1156
81943W        W82807  27.056   2.667  23.847  0.3425 -0.4508  0.1357
81944W        W82808  27.160  28.654  23.641 -0.0979  0.0397 -0.0480
81945W        W82809  26.567   6.582  25.508 -0.0728 -0.3191 -0.1100
81946W        W82810  27.747   4.757  20.368 -0.2117  0.0228 -0.4045
81947W        W82811  26.295   2.929  27.207 -0.0875  0.2124  0.1161
81948W        W82812  27.402   2.385  23.506  0.1460  0.1178 -0.3863
81949W        W82813  25.693   2.645  25.981  0.0075  0.2868  0.0380
81950W        W82814  27.895   4.433  24.498 -0.1982  0.1591  0.2376
81951W        W82815   0.281   0.672  23.398 -0.0601 -0.2452 -0.2891
81952W        W82816  26.724   1.293  21.619 -0.4155  0.0336  0.1631
81953W        W82817  27.333   0.765  19.170  0.2069 -0.3671 -0.1299
81954W        W82818  25.347   2.650  23.807  0.1348 -0.2617 -0.0327
81955W        W82819  27.814   1.835  23.180 -0.0608 -0.0817  0.1948
81956W        W82820  28.660  28.746  23.638 -0.0041 -0.0177  0.0967
81957W        W82821  27.554   3.490  24.780  0.0782  0.0349 -0.5180
81958W        W82822  28.477   4.451  25.412  0.3402 -0.0831 -0.0327
81959W        W82823  28.877   1.669  27.568  0.5039  0.4605  0.1556
81960W        W82824   0.918   0.609  26.975  0.0275 -0.0863 -0.0409
81961W        W82825  24.236   3.329  23.933 -0.4202  0.0362 -0.1028
81962W        W82826  27.700   5.069  23.972 -0.0438 -0.0515 -0.0144
81963W        W82827  25.567   3.627  23.477  0.1781 -0.0424  0.1149
81964W        W82828  28.980  28.216  24.926 -0.2303  0.2809 -0.2764
81965W        W82829  25.815   3.152  24.823  0.1051 -0.0476 -0.0906
81966W        W82830  27.147   4.310  23.926  0.0596 -0.1864  0.1666
81967W        W82831  27.404   0.040  25.738  0.0251  0.2755  0.0329
81968W        W82832  26.424   3.046  22.518  0.1782 -0.4832 -0.0794
81969W        W82833  25.994   1.320  24.186 -0.2866 -0.2461 -0.0176
81970W        W82834  26.789   5.172  25.459  0.2298  0.2044  0.3606
81971W        W82835  25.067   3.099  22.331 -0.0796  0.2710  0.0643
81972W        W82836  27.393   0.129  23.737 -0.1842 -0.0450 -0.0600
81973W        W82837  27.354   2.684  23.107  0.1134 -0.0749  0.0766
81974W        W82838  27.067   0.896  21.480  0.2884 -0.0742 -0.1329
81975W        W82839   0.077   2.511  24.525 -0.0100  0.0373  0.1365
81976W        W82840  26.138   0.638  22.558  0.1527  0.0463 -0.3103
81977W        W82841   0.769   3.855  25.674 -0.2492  0.1469 -0.0372
81978W        W82842  29.140   5.905  21.958 -0.0439 -0.1534  0.1046
81979W        W82843  27.158   5.020  22.663 -0.3564 -0.3766  0.2210
81980W        W82844   0.575   2.042  23.766 -0.2284 -0.1649 -0.2119
81981W        W82845  27.059   5.840  22.907 -0.1236 -0.0259 -0.1117
81982W        W82846   0.977   1.076  27.107 -0.0148  0.1459 -0.0640
81983W        W82847  25.383   3.046  25.197  0.1613 -0.0124 -0.4172
81984W        W82848  26.520   4.683  22.595 -0.0013 -0.0376  0.1393
81985W        W82849  23.892   2.534  21.729  0.2158  0.1223 -0.1207
81986W        W82850  27.041   4.182  27.744  0.0276  0.0406  0.2812
81987W        W82851  26.964  29.093  25.463  0.0352 -0.0247  0.0941
81988W        W82852  28.799   1.992  20.222 -0.0655 -0.0561 -0.2661
81989W        W82853  25.736   5.485  23.663 -0.2995  0.0933 -0.0706
81990W        W82854  27.130   4.972  24.049 -0.3209 -0.1085 -0.1735
81991W        W82855  28.928   1.478  22.814 -0.0964 -0.0984  0.1831
81992W        W82856  28.126   4.043  25.402 -0.0503  0.3239  0.0270
81993W        W82857  27.908  28.023  21.313  0.2512 -0.0643 -0.0758
81994W        W82858  28.730  27.666  23.648  0.4374  0.1189 -0.1639
81995W        W82859  27.298   1.880  22.060  0.0655  0.0378 -0.3432
81996W        W82860  29.138   5.962  23.246 -0.2775  0.0033 -0.2246
81997W        W82861  27.492   2.165  24.004  0.1013 -0.1378  0.1333
81998W        W82862  26.617   5.121  22.811 -0.0387 -0.1760  0.2127
81999W        W82863  27.137   4.897  23.185 -0.0734 -0.1378  0.0991
82000W        W82864  27.628   0.616  24.956 -0.1169  0.1627 -0.0269
82001W        W82865  27.710  28.263  26.582 -0.1744  0.0952  0.3348
82002W        W82866  28.485   3.624  24.427  0.0591  0.1745 -0.0501
82003W        W82867   0.598   3.492  26.570  0.1843  0.2049 -0.0900
82004W        W82868  25.909   1.687  26.113 -0.0329  0.1606 -0.1421
82005W        W82869   0.435   3.628  25.287  0.1450  0.0243 -0.1657
82006W        W82870  24.450   4.307  25.039 -0.1226 -0.1649 -0.2533
82007W        W82871  25.392   0.542  23.818 -0.1487 -0.0471  0.1303
82008W        W82872  28.418   1.613  25.930 -0.0019  0.1751  0.0454
82009W        W82873  26.729   4.898  25.851  0.0169 -0.0049 -0.0519
82010W        W82874  27.623   1.479  25.180 -0.0256  0.0930 -0.0452
82011W        W82875   0.017   2.006  23.875 -0.0084 -0.1943 -0.0567
82012W        W82876  26.032   2.523  24.402 -0.0224  0.0779  0.1434
82013W        W82877  24.242   4.702  25.523  0.0087 -0.0481 -0.1503
82014W        W82878  25.698   3.953  26.074  0.0604  0.0129  0.3072
82015W        W82879  28.190   1.434  25.363  0.2784  0.0104  0.1661
82016W        W82880  26.414   3.126  21.649  0.0269  0.0531  0.0394
82017W        W82881  27.258   3.191  23.902 -0.2228  0.1245  0.0009
82018W        W82882  26.051   5.423  23.201 -0.0114 -0.1846  0.0106
82019W        W82883  26.619   2.480  25.902  0.2046  0.0126  0.0721
82020W        W82884  27.493   2.529  24.731 -0.3369 -0.0535 -0.1533
82021W        W82885  26.006   4.693  22.648  0.2930  0.0613 -0.0530
82022W        W82886  27.307   5.413  27.017  0.0170 -0.1648 -0.0282
82023W        W82887  27.402   3.563  21.618  0.1843  0.0904 -0.2923
82024W        W82888  28.134   1.994  22.817 -0.2206  0.0667 -0.0447
82025W        W82889  23.171   5.499  29.033 -0.2111  0.3440  0.1880
82026W        W82890  24.587   2.869  28.058  0.2009  0.0723 -0.0429
82027W        W82891   1.051   3.409  26.232 -0.1262 -0.0801 -0.2441
82028W        W82892   0.435   4.306  28.600  0.1296 -0.0954  0.2294
82029W        W82893  27.485   4.724  27.275 -0.2754  0.0025 -0.1078
82030W        W82894  29.016   1.326  28.274 -0.1648  0.0894 -0.0007
82031W        W82895  24.986   4.267   0.508  0.0221 -0.0289 -0.3505
82032W        W82896  28.067   2.967  25.331  0.0352 -0.1995  0.0748
82033W        W82897  28.636   0.162  27.843  0.1763  0.0441 -0.0888
82034W        W82898  25.243  28.718  28.752  0.3528 -0.0272 -0.1156
82035W        W82899  25.973   1.345  28.730 -0.0776  0.0564 -0.0607
82036W        W82900   0.265  28.689  27.607 -0.1923  0.1417 -0.1992
82037W        W82901  28.927   3.164  23.311  0.0327  0.1516 -0.0106
82038W        W82902  28.970   1.764  28.734 -0.2503 -0.2109  0.2679
82039W        W82903  23.676  28.186  28.183  0.1566  0.1973  0.2751
82040W        W82904  26.845   4.244   1.041  0.1932 -0.0634  0.1086
82041W        W82905  24.982   6.581  23.493 -0.2308 -0.3176  0.2826
82042W        W82906  26.596   3.349  26.482 -0.0651  0.3044 -0.1224
82043W        W82907  27.020   1.693  29.067  0.1329 -0.0444 -0.0346
82044W        W82908   0.812   4.803  26.908 -0.3752 -0.1914  0.0669
82045W        W82909  28.319   1.725  27.816  0.2874 -0.2571 -0.0070
82046W        W82910  26.673   1.985  28.751 -0.1425 -0.0284  0.2363
82047W        W82911  27.280   2.742  28.251 -0.0649  0.2730 -0.1467
82048W        W82912  26.957   0.978   2.313 -0.1846 -0.1191  0.1570
82049W        W82913  25.295   0.385  26.745 -0.0079 -0.1994  0.0337
82050W        W82914  24.005   0.517  28.356  0.0959 -0.0261  0.1930
82051W        W82915  28.986   1.204  28.761  0.1340  0.0332  0.2723
82052W        W82916  25.205   0.653  28.927  0.0358  0.4181 -0.0265
82053W        W82917   0.662   4.347  27.173  0.2249  0.1316  0.2010
82054W        W82918  27.373   1.219  26.505  0.0254 -0.1888 -0.3462
82055W        W82919  25.674   2.045  27.777 -0.0885  0.0493  0.0249
82056W        W82920  28.697   5.562   1.014  0.1614 -0.1412  0.2467
82057W        W82921  27.550   2.289  27.969 -0.0492  0.0925  0.1173
82058W        W82922  27.813   3.300  27.437  0.1425  0.1127  0.0228
82059W        W82923  25.005   0.969   0.349  0.5337  0.1907 -0.1404
82060W        W82924  27.905   4.737  28.936  0.1517 -0.2097  0.0408
82061W        W82925  27.053   1.668  27.134  0.2425 -0.0480 -0.0369
82062W        W82926  24.724   3.569  28.564  0.2759  0.1701  0.0051
82063W        W82927   1.532   1.984  26.727  0.0837  0.2828 -0.0364
82064W        W82928  28.986   0.603  27.523 -0.1623  0.1746  0.0434
82065W        W82929  28.501   0.721  27.671 -0.1241  0.0191  0.0798
82066W        W82930  28.671   2.781   0.285 -0.0589  0.0273 -0.0786
82067W        W82931  28.697   4.843  28.919  0.0756 -0.1203  0.0467
82068W        W82932  27.882   2.326  25.642  0.0137  0.0061 -0.3547
82069W        W82933  26.328   4.724  23.594  0.0800 -0.0525  0.0847
82070W        W82934  23.618   3.050  26.689  0.1333 -0.1324 -0.2283
82071W        W82935  27.239  27.076  27.288 -0.1973  0.1322  0.1757
82072W        W82936  28.102   4.061  28.097 -0.0598  0.0614  0.0725
82073W        W82937  28.464   1.440  28.181 -0.2059  0.1606 -0.1745
82074W        W82938  26.402   3.145  26.069 -0.2765  0.3106  0.1895
82075W        W82939  27.277   3.046  27.636 -0.0447 -0.0048  0.0032
82076W        W82940  27.442   3.351  25.926 -0.0566 -0.2177  0.0756
82077W        W82941  25.833   1.788   0.502  0.0715  0.1141 -0.0206
82078W        W82942  26.782   2.744  27.384  0.1212  0.0060 -0.2169
82079W        W82943   0.661   1.817  24.504  0.2104  0.0363  0.4496
82080W        W82944  26.204   3.609  24.470  0.0432 -0.1417 -0.2272
82081W        W82945  26.263   2.054  25.780 -0.1679 -0.1745  0.0393
82082W        W82946   1.670   3.182  27.732  0.1038  0.1260  0.0704
82083W        W82947   0.006   4.059  28.762 -0.2780 -0.1191 -0.0122
82084W        W82948  26.515   3.789  26.335 -0.1401 -0.0016  0.1733
82085W        W82949  28.897   5.822  25.855  0.1266  0.0552 -0.1883
82086W        W82950  23.934   1.804  28.847 -0.1977  0.3163 -0.4127
82087W        W82951  26.578   4.873  28.268  0.0313  0.0993  0.1524
82088W        W82952  28.040   2.966  27.039  0.2579 -0.1090  0.2221
82089W        W82953  27.282  27.447  28.953 -0.1662  0.1237 -0.2503
82090W        W82954   3.883   1.184  26.513 -0.3568  0.0947 -0.1033
82091W        W82955  26.262   5.356  23.646  0.4356 -0.0260 -0.3641
82092W        W82956  28.613   3.777  25.416  0.0776 -0.2283  0.3255
82093W        W82957  26.119   2.419  27.971 -0.1205 -0.0529  0.0045
82094W        W82958  26.541   4.200  26.607  0.1543 -0.1183  0.1667
82095W        W82959   1.179  28.835  27.335 -0.0251  0.1902  0.1429
82096W        W82960   1.599  28.843  26.233 -0.2704 -0.2305  0.1206
82097W        W82961  28.932   3.536  28.028  0.1168  0.0562  0.1594
82098W        W82962   0.281   1.003  28.714  0.1798  0.2304  0.2391
82099W        W82963   0.626   5.125  25.782 -0.3049 -0.2479  0.1443
82100W        W82964   0.247   0.874  27.672 -0.1044  0.0059  0.2958
82101W        W82965  27.356   1.426   1.449 -0.0340  0.2354 -0.2177
82102W        W82966  26.936   1.464   1.084 -0.3037 -0.1517  0.3392
82103W        W82967  27.976   0.485  25.939  0.1673  0.1146 -0.0255
82104W        W82968  28.486   0.558  26.490 -0.1883 -0.0272 -0.4062
82105W        W82969  25.873   2.413  25.592  0.1188  0.0756  0.0996
82106W        W82970  24.989   1.559   0.599 -0.1836  0.3244  0.1003
82107W        W82971  25.571  28.899  27.388  0.1670  0.0915  0.1541
82108W        W82972  27.176   1.146  28.227 -0.1214 -0.0109  0.0091
82109W        W82973  26.879   0.375   0.261  0.2203 -0.0234  0.0640
82110W        W82974   0.705  28.690  27.030 -0.1658 -0.1281  0.0630
82111W        W82975   1.952   5.668  27.495 -0.0654 -0.1339 -0.0131
82112W        W82976  27.410   0.785   0.624  0.2951  0.3434 -0.0445
82113W        W82977  26.111   0.104   1.209 -0.1596  0.0927 -0.1289
82114W        W82978  27.906   0.912   0.700  0.0898  0.0324  0.1750
82115W        W82979  26.946   1.273  26.762  0.0651 -0.4606 -0.3052
82116W        W82980  26.919   0.731  28.967 -0.1370 -0.0678 -0.2411
82117W        W82981  28.390   3.742  26.643 -0.1924 -0.1410 -0.1610
82118W        W82982  27.085   2.581  28.645  0.0350  0.0323  0.1008
82119W        W82983  26.055   2.646   2.196  0.2413  0.1514 -0.1827
82120W        W82984  28.090   3.317  26.613 -0.0347 -0.0047  0.2993
82121W        W82985  27.842   3.783  27.401 -0.0765 -0.0312  0.5616
82122W        W82986  27.662   2.729  27.791  0.2905 -0.0022  0.0164
82123W        W82987  28.046  27.349  27.420  0.0255  0.2539 -0.2287
82124W        W82988   2.004   1.479  27.051  0.1406 -0.1228 -0.2595
82125W        W82989  27.331   3.878  26.659 -0.4512  0.3398 -0.0424
82126W        W82990  26.465   1.976  26.231 -0.2490  0.2684  0.2055
82127W        W82991   0.718  29.040  26.571  0.2253  0.0108 -0.0024
82128W        W82992   0.426   2.377  27.734 -0.0521  0.0085 -0.0326
82129W        W82993   0.036   1.519   0.469  0.0268 -0.0054  0.2963
82130W        W82994  27.446   0.815  28.805  0.0413  0.1500  0.1028
82131W        W82995  28.248   3.158  25.857 -0.0444  0.2955 -0.0818
82132W        W82996   1.250   1.813  27.482  0.1666  0.2743  0.2495
82133W        W82997  28.846   0.170  26.534  0.2834  0.1329 -0.1441
82134W        W82998  26.731   2.539  27.899 -0.0275 -0.1521  0.2789
82135W        W82999  26.476   2.818   0.748 -0.1796 -0.3328 -0.0004
82136W        W83000   0.250   3.729  27.871  0.0715 -0.3925  0.0324
82137W        W83001  27.876   2.835  28.234  0.0520  0.3267  0.0055
82138W        W83002  27.107   4.119   0.339  0.1724  0.1704 -0.1692
82139W        W83003   0.194   3.821  26.349  0.1133 -0.1598  0.1174
82140W        W83004  28.406   0.352  27.385  0.0976  0.2059 -0.0342
82141W        W83005   1.237   0.098   0.028 -0.1842 -0.0977 -0.0176
82142W        W83006  27.046   0.718   2.728 -0.0506  0.2230 -0.2449
82143W        W83007  28.172   3.035  27.824  0.3289 -0.0282  0.1732
82144W        W83008  26.981   2.629  26.627 -0.0938 -0.0090 -0.2385
82145W        W83009   1.873   0.935  27.208  0.1343  0.1741 -0.0844
82146W        W83010  27.933   3.525   0.059  0.2034  0.1107  0.0095
82147W        W83011  26.813   2.368  29.104 -0.0865  0.0431  0.4349
82148W        W83012  25.392   5.039  26.804 -0.0154  0.0008 -0.1738
82149W        W83013  28.671   3.163   0.619 -0.3468 -0.0894 -0.1661
82150W        W83014  26.991   4.584  28.237  0.0980  0.1794 -0.0289
82151W        W83015  27.251   2.047   0.173 -0.0725 -0.2576  0.0521
82152W        W83016  27.370   2.279  26.664 -0.1777 -0.2277 -0.3038
82153W        W83017  29.124   4.947  27.946 -0.0696  0.0290 -0.2034
82154W        W83018  27.491   3.692   0.308  0.3003  0.2577  0.2367
82155W        W83019  28.326   4.541   2.140  0.0075 -0.2797  0.0361
82156W        W83020   0.899   0.862  26.534 -0.2179  0.1690  0.2026
82157W        W83021  29.016   8.261  28.201  0.1258  0.2371  0.0010
82158W        W83022   0.923   0.486  25.521  0.2937 -0.0898 -0.0604
82159W        W83023  28.657   0.601  26.988 -0.2062 -0.0535  0.3383
82160W        W83024  25.467   1.736  28.130  0.0413  0.1390  0.2595
82161W        W83025  24.421   2.810  26.416  0.0042 -0.2311 -0.0343
82162W        W83026   2.608   0.717  26.685  0.0795  0.1308 -0.1191
82163W        W83027  25.360   3.905  25.149 -0.0544  0.0419  0.2152
82164W        W83028  26.611   5.837  24.310  0.1109  0.1586  0.1790
82165W        W83029  26.241   2.222  26.628 -0.0158 -0.0748 -0.0035
82166W        W83030  29.074  29.058  27.861 -0.1445  0.0446 -0.0252
82167W        W83031  22.566   5.521  25.256 -0.2455  0.0734  0.0696
82168W        W83032  28.237   2.547  28.058  0.1048  0.1736  0.0010
82169W        W83033  24.406   2.284  26.541 -0.0667  0.0573 -0.3871
82170W        W83034  27.340   1.036  26.987  0.3095 -0.3780 -0.1612
82171W        W83035   0.661  28.990  27.391  0.0876 -0.1049 -0.0766
82172W        W83036  26.759   1.671  27.518  0.1838  0.1596 -0.2248
82173W        W83037  27.411   3.813  26.156 -0.3196  0.0407 -0.0314
82174W        W83038   0.183   2.038   0.594 -0.0537 -0.3838  0.0297
82175W        W83039   0.449   3.722  28.706 -0.0515  0.1501  0.4499
82176W        W83040  27.465   0.737  26.481 -0.1108  0.2211  0.0307
82177W        W83041  27.686   4.574   0.307 -0.4575  0.0985  0.0763
82178W        W83042  27.916   0.574  26.429  0.0708 -0.2612 -0.1814
82179W        W83043  26.761   3.800  26.817 -0.2292 -0.0675  0.1275
82180W        W83044  26.582   1.194   0.221 -0.1261  0.2931 -0.1265
82181W        W83045  26.517   1.494  29.024  0.1368 -0.0407 -0.0415
82182W        W83046  24.605   1.246  25.614 -0.2917  0.1048  0.0656
82183W        W83047  28.329   0.928  28.093 -0.0511 -0.0906 -0.1895
82184W        W83048  28.676   1.442  25.421 -0.0998 -0.0435 -0.5512
82185W        W83049  27.723   1.219  28.798 -0.3708  0.0306  0.2035
82186W        W83050  25.905   0.744   0.017 -0.3576 -0.0246  0.1524
82187W        W83051  28.682   1.183   0.505 -0.0286 -0.0445 -0.0114
82188W        W83052  28.356   4.561  27.195  0.1030 -0.0653 -0.0836
82189W        W83053  26.323  29.147   0.772  0.1223  0.1268 -0.3141
82190W        W83054  27.979   2.325  23.901 -0.1005  0.0249 -0.2816
82191W        W83055  28.968  29.001  26.986 -0.0106 -0.1035 -0.0018
82192W        W83056  26.551   3.399   0.118 -0.1075 -0.0512  0.0658
82193W        W83057  27.031   3.915   1.402 -0.3455  0.1599 -0.0693
82194W        W83058  27.813   1.433   0.103  0.0775 -0.1444 -0.2342
82195W        W83059  27.077   1.723  28.531 -0.1979  0.2014  0.0014
82196W        W83060  27.396   1.624   0.323  0.1231  0.2798  0.0687
82197W        W83061  27.770   3.639  28.719  0.1013  0.1173  0.2422
82198W        W83062  27.893   0.046  26.209  0.1982  0.0280 -0.0641
82199W        W83063  27.977   0.837  28.833  0.3254  0.1230 -0.1869
82200W        W83064   0.708   0.156   0.096  0.0387  0.0565  0.1238
82201W        W83065  23.828   3.664   0.784  0.1028 -0.1202 -0.0419
82202W        W83066  26.588   4.224  27.091 -0.2308 -0.2250  0.1121
82203W        W83067  24.388   4.076  25.533 -0.1198 -0.1229 -0.2937
82204W        W83068  27.019   0.414  27.625  0.1548  0.1561 -0.0868
82205W        W83069  27.946   7.453  26.021  0.1994  0.1896  0.0581
82206W        W83070   1.993   3.969  26.052  0.1482 -0.0886  0.1126
82207W        W83071  28.219   2.472  25.278  0.3703  0.2782 -0.0413
82208W        W83072  25.699   3.082  27.890 -0.3337  0.2269 -0.1377
82209W        W83073   0.718  28.287  25.403  0.1037 -0.1765 -0.0414
82210W        W83074  28.626   6.228  28.520  0.0129 -0.0172  0.1625
82211W        W83075  28.456   3.414  26.235 -0.1039  0.1026 -0.3627
82212W        W83076  25.088   3.115  26.694 -0.2807  0.1628 -0.0417
82213W        W83077  28.429   3.088  29.045 -0.1520  0.0345 -0.0385
82214W        W83078  27.514   4.267  26.277 -0.2910  0.0135 -0.1436
82215W        W83079  26.733   1.724  26.632  0.0759  0.1549 -0.0198
82216W        W83080  26.787   3.092  27.746 -0.1304  0.0963 -0.3562
82217W        W83081  26.923   0.298  28.420  0.0151 -0.0190  0.0408
82218W        W83082  26.424  27.403   0.370 -0.0510  0.1335 -0.0485
82219W        W83083  28.865  28.517  26.275  0.1225 -0.0855 -0.0368
82220W        W83084  27.625  28.323  25.175  0.0433  0.0547  0.2587
82221W        W83085   0.946   0.741  27.550 -0.1029  0.0799 -0.0947
82222W        W83086  27.339   0.627  28.041  0.1462 -0.2870 -0.1666
82223W        W83087  26.289   0.587  27.310 -0.1435 -0.0807  0.1880
82224W        W83088   2.180  27.485  28.019  0.0118  0.1271 -0.0487
82225W        W83089  27.408   0.149  27.247  0.0974 -0.2166  0.0925
82226W        W83090  29.100   0.192  28.721 -0.1312  0.1643  0.4024
82227W        W83091   0.193  27.714  25.463  0.0155 -0.1581  0.0839
82228W        W83092  27.022   3.536  26.350  0.0014  0.1270 -0.0563
82229W        W83093  28.470   1.278  27.706  0.0123  0.2106  0.0066
82230W        W83094  28.638   0.989  26.222 -0.1336 -0.1490 -0.1280
82231W        W83095  24.774   1.936  26.394 -0.0595  0.0200 -0.0129
82232W        W83096  25.358   0.873   0.681  0.0886 -0.1048  0.1800
82233W        W83097   0.444   2.865  25.844 -0.1337  0.0890 -0.0651
82234W        W83098  26.962   2.893  23.220 -0.1320 -0.3147 -0.0020
82235W        W83099  24.810   2.095  27.703 -0.0920  0.0100  0.0058
82236W        W83100  25.555   0.243  27.345  0.1340 -0.2702 -0.2107
82237W        W83101  27.045   3.363  28.135  0.1227  0.0238 -0.0110
82238W        W83102   0.767   0.651  26.102 -0.1299  0.0105 -0.0007
82239W        W83103  28.872   0.504   0.883  0.1459 -0.0948  0.2030
82240W        W83104   0.675   2.091  25.421  0.2317  0.1125 -0.0146
82241W        W83105  26.725   4.446  25.618  0.0156  0.1483  0.2620
82242W        W83106  27.938   2.324  24.870 -0.1770 -0.3541 -0.5280
82243W        W83107  25.490   2.534  27.818 -0.0749 -0.3312  0.0747
82244W        W83108  24.851   3.319  28.074 -0.4220 -0.0964 -0.1033
82245W        W83109   0.893   0.322   0.583  0.0618 -0.3013 -0.2584
82246W        W83110   1.254   1.199  28.287  0.2681  0.3740 -0.0843
82247W        W83111  26.593   4.684   1.408  0.1131  0.0538  0.0501
82248W        W83112  26.555   0.519  25.915 -0.3792 -0.0138  0.1780
82249W        W83113  28.690   7.039  27.951 -0.1124  0.1552 -0.0079
82250W        W83114  25.871  27.333   1.762  0.1894 -0.1349 -0.1360
82251W        W83115  28.565   4.097   0.471 -0.0021  0.1165 -0.2340
82252W        W83116  26.487   3.302   0.826 -0.1313 -0.0555 -0.2832
82253W        W83117  28.375   5.001  23.871  0.5067  0.0515 -0.2277
82254W        W83118  27.609   2.305  27.416 -0.1149  0.0831  0.1290
82255W        W83119  27.372   1.153   1.057  0.0448  0.1367  0.1290
82256W        W83120   0.125   0.787   0.875 -0.0340  0.0860 -0.3025
82257W        W83121  26.351   4.914  25.469 -0.3556  0.1051 -0.3946
82258W        W83122  28.221   3.319  24.865  0.1126 -0.1391  0.0296
82259W        W83123  26.100   2.505  27.039 -0.0957  0.2689  0.0804
82260W        W83124  28.457   3.941  27.800 -0.3514 -0.1265  0.0646
82261W        W83125   3.995   1.749  26.335  0.2553  0.0253 -0.0863
82262W        W83126  28.254   1.312   1.411 -0.2334  0.0377 -0.0929
82263W        W83127  26.771   2.026   0.555 -0.0512  0.0657  0.1673
82264W        W83128  28.808   5.401  27.887  0.1733  0.0054 -0.2995
82265W        W83129  27.567   1.422  27.736 -0.0902  0.1546 -0.0666
82266W        W83130  25.727   2.052   1.549 -0.2064  0.4890  0.1952
82267W        W83131  28.018  28.778  27.890 -0.4689  0.0511 -0.0913
82268W        W83132  29.123   0.398  27.036  0.2002  0.2190  0.1643
82269W        W83133   0.191   2.816  26.974 -0.0964  0.3017 -0.0026
82270W        W83134   0.109  28.883  26.336 -0.2664  0.2529  0.1024
82271W        W83135  27.982   3.660  27.832  0.2620 -0.0160  0.1160
82272W        W83136  27.621   0.962  27.576 -0.1523 -0.2215  0.0324
82273W        W83137  28.284   3.417  27.515  0.0602  0.0027 -0.1841
82274W        W83138  27.686  28.645  24.808  0.1658 -0.2011 -0.0169
82275W        W83139  28.036   3.518  27.041  0.3253  0.0799  0.0269
82276W        W83140  25.979   2.206   0.179 -0.0556 -0.3336  0.0012
82277W        W83141   0.580   3.054   0.566  0.0355 -0.0019  0.3508
82278W        W83142  27.650   2.869  27.311  0.1850 -0.2856  0.1977
82279W        W83143  26.299   3.155  28.944  0.0156 -0.1733  0.1673
82280W        W83144  28.848   4.536  26.475 -0.0578 -0.1259  0.1684
82281W        W83145   0.841  27.758  26.655 -0.1435  0.0262 -0.2447
82282W        W83146  26.832  28.056  28.577 -0.1115 -0.2752 -0.2550
82283W        W83147   1.820   4.762   1.732  0.3317  0.5127 -0.0880
82284W        W83148   0.288   1.183  24.998 -0.0292  0.0240  0.3050
82285W        W83149  27.866   1.171  26.504  0.0606  0.1072 -0.2054
82286W        W83150  26.596   1.040  28.123  0.2783 -0.0932 -0.0224
82287W        W83151   1.079   1.601   2.808 -0.3431 -0.1990  0.1996
82288W        W83152  25.721   4.440  29.088  0.0845 -0.0812 -0.1965
82289W        W83153  27.685   3.843  28.251 -0.3380 -0.1023 -0.3479
82290W        W83154  27.889   5.082  28.547  0.0403  0.0173  0.0824
82291W        W83155  24.385   5.941  26.375  0.1560 -0.0903 -0.0433
82292W        W83156  28.625   2.151  27.704 -0.2086 -0.1971  0.1698
82293W        W83157  25.570   3.838  28.567 -0.0445 -0.0946  0.2135
82294W        W83158   0.403   0.822  24.194 -0.1446  0.2166 -0.0851
82295W        W83159  26.535   3.721  27.262  0.1522 -0.1960  0.0546
82296W        W83160   0.252   1.919  27.332  0.1959 -0.1072 -0.1272
82297W        W83161   0.122   1.837   0.029 -0.1396 -0.3591 -0.2020
82298W        W83162  24.009   2.384  28.479  0.1233 -0.2128 -0.1288
82299W        W83163   1.166   3.419  28.998  0.2871 -0.1831 -0.2357
82300W        W83164  25.866  27.511   0.657 -0.4357 -0.2148 -0.0325
82301W        W83165  25.841   0.269  28.267 -0.0046 -0.0321  0.2354
82302W        W83166  26.576   2.005  28.216 -0.2080  0.0956 -0.1607
82303W        W83167  27.811   2.227  26.523 -0.2645  0.4059  0.1401
82304W        W83168  24.562   5.501   0.878  0.1333 -0.4212  0.0228
82305W        W83169  25.915   1.455  26.954  0.1009 -0.0306 -0.1065
82306W        W83170  28.927  28.220  25.894  0.0779  0.1419 -0.0373
82307W        W83171  26.110   3.359  25.618 -0.0997  0.2501 -0.1315
82308W        W83172  25.008   4.498  28.843 -0.1397  0.2477 -0.2574
82309W        W83173  27.980   3.656  26.238 -0.0037  0.2572  0.0798
82310W        W83174   1.765   0.074  25.864 -0.1089 -0.1581  0.1034
82311W        W83175  27.216   1.908   0.736  0.0815  0.1119  0.1959
82312W        W83176  26.738   2.472   1.515 -0.0342  0.3984  0.0746
82313W        W83177   0.521   1.744  26.748  0.0385  0.0521 -0.0911
82314W        W83178  27.536   3.411  26.500 -0.0097  0.1954 -0.0882
82315W        W83179  28.633   3.082  25.320 -0.3349 -0.2985  0.1385
82316W        W83180   0.222   4.337  26.458 -0.0119  0.0061  0.0537
82317W        W83181   1.521   1.097   0.950 -0.4006 -0.0248 -0.1730
82318W        W83182   0.393   4.768   0.725 -0.1343  0.0536  0.0700
82319W        W83183  27.793   2.569  26.117 -0.1056  0.0363 -0.0745
82320W        W83184  27.849   2.138  28.750  0.4157  0.1536 -0.4688
82321W        W83185   0.882   1.763   1.082 -0.0176  0.0979  0.0904
82322W        W83186  26.603   1.883   0.109 -0.0735 -0.1739  0.2765
82323W        W83187  28.324   2.958  28.469 -0.1179 -0.4295 -0.1091
82324W        W83188  25.676   3.378  27.365  0.0280 -0.0031  0.2227
82325W        W83189  24.897   2.376  27.175  0.0172 -0.0484 -0.1394
82326W        W83190  27.158   0.687   1.075  0.0060  0.0104 -0.1752
82327W        W83191  28.360   4.483  28.260 -0.1661  0.0962  0.1867
82328W        W83192  27.512   1.989  28.390 -0.0334 -0.1900 -0.2478
82329W        W83193  28.281   0.960  26.678 -0.0843 -0.1813 -0.0149
82330W        W83194  27.033   6.019  28.009 -0.2129 -0.0521 -0.0452
82331W        W83195   1.815   3.316   1.106  0.1020 -0.1839 -0.1094
82332W        W83196  26.988  27.810  27.490 -0.2950 -0.1728  0.0532
82333W        W83197  26.991   4.998  27.964 -0.3991  0.1866  0.0998
82334W        W83198  27.069   1.833   1.965  0.1797 -0.0319  0.1566
82335W        W83199  27.573  28.770  26.409  0.2258 -0.2429 -0.3286
82336W        W83200  24.931   3.088  28.608 -0.0100  0.1439 -0.1787
82337W        W83201  27.149   0.285  28.859  0.1221  0.0802 -0.0384
82338W        W83202  26.321   2.938  27.990  0.1946 -0.0490  0.2817
82339W        W83203  25.404   2.640  27.310  0.2041  0.1540 -0.2304
82340W        W83204   1.014   3.251   0.842 -0.3178  0.0528  0.2124
82341W        W83205  28.642   3.070  24.509 -0.0387 -0.1190  0.0280
82342W        W83206  27.947   1.846  25.038 -0.1434  0.0278 -0.2479
82343W        W83207  27.392   2.695   0.703  0.0532  0.0699 -0.2061
82344W        W83208  28.186   0.390  27.939 -0.0480 -0.0441 -0.0808
82345W        W83209  26.149   3.188   0.510 -0.0351 -0.3254  0.1134
82346W        W83210   1.959   3.763  26.631  0.0059  0.0523  0.0207
82347W        W83211  27.059   2.188  28.237 -0.1794 -0.0306 -0.0428
82348W        W83212  26.718   4.758  27.602 -0.0590 -0.3666  0.3322
82349W        W83213  25.895   4.798  24.836  0.4034 -0.1840 -0.0623
82350W        W83214  27.141   3.860  28.228  0.0710  0.0753 -0.0355
82351W        W83215  26.457   0.053  27.057  0.2959  0.2060 -0.0007
82352W        W83216  24.688   2.369  26.113 -0.1995 -0.1513 -0.0513
82353W        W83217  27.865   0.934  26.958  0.1184  0.0017  0.0009
82354W        W83218  26.098   3.805  26.573 -0.1006  0.2753  0.1502
82355W        W83219  26.642   1.323   0.718  0.0286  0.0226  0.0136
82356W        W83220  28.126  28.404  24.819  0.0099  0.0136 -0.0173
82357W        W83221  26.110   2.434   1.719 -0.2937 -0.1979  0.2935
82358W        W83222  27.159   1.329  28.794 -0.1425  0.1846  0.3885
82359W        W83223   2.324   1.687   1.738  0.0933 -0.0466 -0.0672
82360W        W83224  28.964   2.003   0.971 -0.2190  0.1181 -0.0552
82361W        W83225  24.990   3.302  29.061  0.2132  0.3146  0.4142
82362W        W83226  28.844   2.464  25.025  0.1944 -0.0762  0.1203
82363W        W83227  27.017   0.434  26.270  0.0716 -0.0453 -0.3602
82364W        W83228  26.373  28.532  26.233 -0.0046 -0.0816 -0.0936
82365W        W83229  27.029   4.235  26.835 -0.2232 -0.0946  0.3468
82366W        W83230  28.080   1.235  28.473 -0.1788  0.1728 -0.1816
82367W        W83231  25.208   2.146  28.033  0.0531  0.2857 -0.0987
82368W        W83232  25.532   4.402  28.092  0.0065  0.0062  0.0729
82369W        W83233  26.918   3.949  25.355 -0.1867  0.0595 -0.1505
82370W        W83234  23.949   3.012  26.292 -0.0055 -0.2498  0.2102
82371W        W83235  25.401   5.141  23.829 -0.1099 -0.4242 -0.0081
82372W        W83236  28.651   2.122  26.919 -0.0932  0.0141  0.1859
82373W        W83237  27.179   2.478  27.584 -0.2599 -0.1390  0.1333
82374W        W83238  27.844   1.776  27.489  0.0927  0.0434 -0.3187
82375W        W83239   0.161   1.339  27.354 -0.3706  0.1600  0.1148
82376W        W83240  27.618   3.595  23.770  0.1191  0.0391  0.2443
82377W        W83241   0.975   2.489  29.035  0.2652  0.3631 -0.1927
82378W        W83242   0.626   4.629  28.066  0.2218  0.1504 -0.0911
82379W        W83243  25.918   5.058  26.409 -0.1547 -0.2557 -0.1948
82380W        W83244  27.899  26.396  27.208  0.0729  0.2545 -0.0771
82381W        W83245  27.110   4.728  25.521  0.0726  0.0155  0.0544
82382W        W83246  26.667   0.126   1.152 -0.0917 -0.1482 -0.1416
82383W        W83247  27.589   1.613   0.927  0.0545 -0.2732 -0.0737
82384W        W83248  24.886   3.563  26.303 -0.1216  0.0483 -0.0648
82385W        W83249  27.035   4.400  25.143 -0.1056  0.1564 -0.3395
82386W        W83250  26.586   0.642  28.530 -0.0854  0.1790  0.0465
82387W        W83251  25.301   3.113  28.200 -0.0855  0.1903  0.0167
82388W        W83252   0.693  28.377  27.559  0.1124 -0.1189 -0.0200
82389W        W83253   0.679   2.057  27.117  0.0925  0.3726  0.2202
82390W        W83254  26.636   2.758  28.820  0.0998  0.0340  0.0882
82391W        W83255  28.774   3.288  28.494  0.1080 -0.1117 -0.3108
82392W        W83256  27.592   2.505  28.527 -0.0724 -0.2712 -0.4770
82393W        W83257  27.875  27.498  25.404  0.0887  0.0626  0.1756
82394W        W83258  28.632   2.861  25.766  0.0110  0.2325  0.2394
82395W        W83259  28.533  28.523  25.891 -0.4523 -0.1489 -0.1145
82396W        W83260  28.923   2.268  27.364  0.0221 -0.2103 -0.1074
82397W        W83261  27.667   2.606  25.220  0.1279  0.0564 -0.1545
82398W        W83262  28.714   2.670  28.265 -0.2995 -0.2396  0.1596
82399W        W83263  26.752   4.975  24.480  0.1503 -0.2076 -0.0597
82400W        W83264  26.740   2.870  28.310 -0.2609 -0.3347 -0.3512
82401W        W83265  27.982   0.018  27.113 -0.0894  0.1247 -0.2744
82402W        W83266   0.634   1.518  27.407  0.0214 -0.3189  0.2402
82403W        W83267  27.129   1.310  27.485  0.3598  0.0729 -0.0610
82404W        W83268  28.983   2.282  28.670 -0.1985  0.0658  0.1024
82405W        W83269   3.997   3.399  29.023 -0.0951  0.2185  0.0564
82406W        W83270  26.635   0.333  28.917 -0.0337 -0.3016 -0.1939
82407W        W83271  25.719   4.970  28.998 -0.0109  0.0529  0.0902
82408W        W83272  28.051   1.737  28.421 -0.1130  0.2356  0.1155
82409W        W83273   0.084   3.408   0.571 -0.0183 -0.2032  0.1898
82410W        W83274   0.435   0.165  28.844 -0.1407 -0.4452  0.1396
82411W        W83275  26.856   2.171  27.386  0.2708 -0.0761 -0.1087
82412W        W83276  28.032   3.365  28.309 -0.1446 -0.2543  0.1780
82413W        W83277  28.265   2.496  26.771 -0.0401 -0.0216  0.0134
82414W        W83278  27.394   4.213  27.360  0.0976  0.3138  0.2113
82415W        W83279  26.873   0.410   3.145 -0.2418 -0.1422 -0.0380
82416W        W83280  27.481   2.861  28.925  0.1523  0.0593  0.0732
82417W        W83281   0.567   1.451  28.155  0.1042 -0.2001  0.3382
82418W        W83282  28.250   3.894  29.032 -0.1456 -0.0852  0.5147
82419W        W83283  24.373   4.660  28.191 -0.5553 -0.0378 -0.0077
82420W        W83284  26.167   3.507  28.065  0.0791  0.1217  0.3426
82421W        W83285   1.247   3.416  25.684  0.0623 -0.3345  0.1851
82422W        W83286  27.788   2.729   0.483  0.1202 -0.4907 -0.1367
82423W        W83287  26.983   4.460  27.303 -0.1315 -0.1244  0.0580
82424W        W83288  25.967   1.041  24.575  0.0716 -0.1603  0.5300
82425W        W83289  26.324   7.601   2.561  0.1664 -0.2350  0.1849
82426W        W83290  27.993   7.162   4.705 -0.0703 -0.2945  0.0615
82427W        W83291  26.677   4.116   2.077 -0.0749 -0.1886 -0.2229
82428W        W83292  28.132   6.210  28.488  0.0466 -0.1604  0.5384
82429W        W83293  27.094   6.433   0.173  0.0543  0.1727 -0.3221
82430W        W83294  24.571   3.525   1.318 -0.1416  0.1283 -0.0353
82431W        W83295  27.727   2.437   0.043  0.1095 -0.1994  0.1188
82432W        W83296  27.933   6.873   3.200 -0.1826  0.1455 -0.0915
82433W        W83297  27.421   8.442   1.275  0.5611 -0.2795  0.1725
82434W        W83298  24.973   4.933   4.750  0.0767 -0.0429  0.3236
82435W        W83299  26.643   3.874   3.108 -0.0842  0.2203 -0.1102
82436W        W83300  25.893   6.737  28.692 -0.2697 -0.1793 -0.1388
82437W        W83301  27.760   4.815   2.244  0.2609 -0.0355  0.5686
82438W        W83302  28.667   3.593   5.324 -0.2800  0.4238  0.1562
82439W        W83303  24.019   4.154   5.519  0.0128 -0.3361  0.1106
82440W        W83304  24.355   9.361   3.879  0.0907  0.0801 -0.2765
82441W        W83305  26.316   8.139  27.086 -0.1071  0.1219 -0.2392
82442W        W83306  25.435   4.577   3.001 -0.0684  0.0155  0.1576
82443W        W83307  25.759   6.749   4.793 -0.0728 -0.2054  0.2266
82444W        W83308   0.817   3.981   1.717 -0.2825 -0.1134 -0.1887
82445W        W83309  28.312   6.845   1.853 -0.0227  0.1075 -0.1231
82446W        W83310  28.339   5.135   1.728  0.0946  0.0677  0.1488
82447W        W83311  27.712   7.037  28.905 -0.3752  0.1707 -0.0361
82448W        W83312  25.938   6.975   3.221 -0.2128 -0.0029  0.2449
82449W        W83313  26.459   5.022   2.131  0.1612  0.2026 -0.0106
82450W        W83314  27.746   7.944   2.059 -0.0382 -0.0740  0.2220
82451W        W83315  28.577   4.856   2.381  0.3059  0.1566 -0.0260
82452W        W83316  25.589   5.464   1.752 -0.2674  0.1729  0.0368
82453W        W83317  26.558   7.227   4.678 -0.0467  0.1165 -0.0190
82454W        W83318  25.572   5.607   3.421 -0.1357 -0.1044  0.0497
82455W        W83319  23.455   6.519   2.104 -0.2248  0.0929  0.1919
82456W        W83320  27.108   5.975   5.063  0.2867 -0.0205 -0.1633
82457W        W83321  27.021   8.058   4.718  0.2487  0.1339 -0.2722
82458W        W83322  26.530   4.549   2.768 -0.1424  0.1761 -0.1551
82459W        W83323  26.423   4.723   3.504 -0.1042  0.2889  0.0697
82460W        W83324   0.359   6.803   3.133  0.5031 -0.1649 -0.0103
82461W        W83325  25.852   0.640   2.518 -0.0521  0.0523 -0.0267
82462W        W83326  25.908   7.841   4.933 -0.1860 -0.2588  0.0687
82463W        W83327  27.936   5.883   1.257  0.3674  0.0835  0.0406
82464W        W83328   0.486   2.620   1.370  0.0196  0.0971 -0.1933
82465W        W83329   0.204   6.024   4.376 -0.0724 -0.1419 -0.3522
82466W        W83330   1.838   7.947   0.408  0.0048  0.0804  0.3108
82467W        W83331   0.376   8.374  28.724 -0.1748  0.1062  0.0899
82468W        W83332  28.559   5.497  26.885 -0.0463 -0.2494 -0.0586
82469W        W83333  26.295   5.998  27.978  0.0142  0.1227  0.0870
82470W        W83334  26.075   6.420   1.025  0.0210 -0.1369 -0.0337
82471W        W83335  26.179   4.035   2.678  0.2574 -0.2705 -0.0447
82472W        W83336  28.956   7.271   2.408  0.0226 -0.2885  0.0694
82473W        W83337  27.743   5.876   0.773 -0.1573  0.4357 -0.1749
82474W        W83338  28.766   5.318  28.953  0.3879  0.0036 -0.0742
82475W        W83339  28.353   7.187   1.535  0.0047 -0.1619  0.0358
82476W        W83340  28.290   6.333   2.147  0.1274 -0.0628 -0.0932
82477W        W83341  27.208   5.024   3.920  0.0223  0.3470  0.0533
82478W        W83342  27.029   4.739  28.878  0.1352  0.1177  0.1810
82479W        W83343  27.194   4.517   1.231 -0.3647 -0.0842  0.0374
82480W        W83344  26.872   6.715  28.238  0.2358  0.1990  0.0046
82481W        W83345  25.399   5.175  27.319 -0.1881 -0.2311  0.1541
82482W        W83346   0.124   4.551  29.052 -0.2502 -0.0454 -0.2652
82483W        W83347  28.126   8.410  28.175  0.2169 -0.0503  0.2109
82484W        W83348  28.888   6.425   1.275  0.2524  0.3725  0.0221
82485W        W83349  28.314   6.313   0.263 -0.0699 -0.1221  0.3083
82486W        W83350  23.156   5.303   2.833  0.0981 -0.0777  0.0249
82487W        W83351  27.108   6.789   4.591  0.2454 -0.0672 -0.1077
82488W        W83352  25.549   6.403  28.904 -0.1819 -0.1725 -0.3794
82489W        W83353  26.832   5.886   4.530 -0.0062 -0.2580  0.0319
82490W        W83354   0.240   4.217   1.411 -0.2022 -0.3248 -0.3217
82491W        W83355  26.576   5.579   2.218  0.1148 -0.1779 -0.0407
82492W        W83356  24.396   5.995   1.057  0.2631  0.1752 -0.1762
82493W        W83357  26.947   5.993  28.941 -0.3411 -0.2268 -0.0792
82494W        W83358  28.232   7.638   0.847 -0.0059  0.1165 -0.1914
82495W        W83359  26.905   6.829   2.277 -0.2732  0.0859 -0.3801
82496W        W83360  27.880   3.891   1.463  0.4034  0.0006 -0.4344
82497W        W83361  28.064   6.836  28.016  0.0391  0.3723  0.0203
82498W        W83362  28.915   3.368   4.469 -0.2220 -0.3422 -0.2331
82499W        W83363  26.041   5.797   0.078  0.0482  0.3642 -0.0903
82500W        W83364  28.424   6.220   3.411  0.0596  0.0378 -0.0030
82501W        W83365  25.136   4.929   0.608 -0.0944 -0.1162 -0.2777
82502W        W83366  25.020   6.845   0.800 -0.1692  0.2209 -0.3221
82503W        W83367  27.621   6.032   1.650 -0.4261 -0.1231  0.3588
82504W        W83368  25.281   3.600   2.023 -0.0039  0.0989  0.0108
82505W        W83369  29.066   1.396   3.647  0.2153 -0.1482  0.2760
82506W        W83370  26.720   6.297   3.424 -0.0984  0.2330 -0.0430
82507W        W83371  27.592   4.498   3.739 -0.1442  0.1807  0.0393
82508W        W83372  26.192   5.039   1.132  0.1537 -0.1834 -0.1387
82509W        W83373  25.881   5.026   3.613  0.2906 -0.1721 -0.1413
82510W        W83374  27.988   5.196   1.180  0.2467  0.1124 -0.0026
82511W        W83375  28.380   6.499   1.500  0.1134 -0.0671  0.0958
82512W        W83376  27.675   4.981   4.656  0.0132  0.0533  0.2561
82513W        W83377  27.781   4.059   4.742  0.1140  0.4434  0.0588
82514W        W83378  27.803   3.595   3.913 -0.2018 -0.2368  0.0640
82515W        W83379  28.929   3.542   2.869 -0.1610  0.1961  0.2246
82516W        W83380  29.009   3.760   3.927  0.2377 -0.0532 -0.0982
82517W        W83381  26.053   7.894   3.516  0.0114  0.1592 -0.3405
82518W        W83382  24.888   3.378   2.262 -0.3439 -0.5490 -0.1303
82519W        W83383  27.381   5.219   2.480 -0.1523  0.3278  0.2019
82520W        W83384  28.310   5.572   1.364  0.1676  0.0808 -0.0334
82521W        W83385  27.499   7.830   0.288  0.0106 -0.1530 -0.2330
82522W        W83386  25.563   4.578   2.459  0.1804 -0.2546 -0.0213
82523W        W83387  25.566   2.460   0.071  0.0117  0.1943  0.0474
82524W        W83388   0.919   4.459   1.691  0.2382 -0.0690  0.1520
82525W        W83389  28.938   7.139   0.812  0.2360 -0.3085  0.1982
82526W        W83390  25.567   6.042   1.827 -0.0427  0.2137  0.1675
82527W        W83391  28.223   5.142   0.682  0.1786  0.2580  0.1169
82528W        W83392   1.427   6.668   2.513  0.0278  0.0008  0.2276
82529W        W83393   0.265   0.666   3.086 -0.1149 -0.1388  0.2882
82530W        W83394  27.167   6.299   2.475 -0.3559 -0.0551 -0.2752
82531W        W83395  28.256   5.048  28.973  0.1398  0.0212  0.2633
82532W        W83396  28.310   6.565   4.455 -0.0370  0.1282  0.1032
82533W        W83397  26.762   4.577   2.303  0.1260  0.2357 -0.1874
82534W        W83398  26.183   4.067   3.613  0.2810 -0.1188 -0.3441
82535W        W83399  26.654   5.930   2.950 -0.2792 -0.0606  0.1343
82536W        W83400  28.339   5.457  28.752  0.0150  0.1692  0.0670
82537W        W83401  27.969   6.446   3.443  0.2976 -0.0993 -0.0871
82538W        W83402  27.832   5.436   1.602  0.1523 -0.1791 -0.0058
82539W        W83403   0.044   7.122  28.902  0.1113 -0.1827 -0.1436
82540W        W83404  25.922   5.463   0.889 -0.0145  0.0085  0.0424
82541W        W83405   2.243   2.394   2.846 -0.1506 -0.1834 -0.2196
82542W        W83406  27.545   7.897   4.749 -0.0392 -0.3108  0.0858
82543W        W83407  26.234   5.162  29.054 -0.1873  0.0763 -0.0971
82544W        W83408  29.115   4.694   1.154 -0.0337 -0.0931 -0.1687
82545W        W83409   1.660   5.863   0.787 -0.0856 -0.2426 -0.1961
82546W        W83410  29.073   9.938   2.657  0.0574  0.1833 -0.0503
82547W        W83411   0.252   8.065   1.219 -0.1457 -0.1264  0.2183
82548W        W83412  26.099   3.445   1.749 -0.1954 -0.2945 -0.2625
82549W        W83413  27.909   6.486   1.829  0.0705 -0.3320 -0.0782
82550W        W83414  28.946   5.021   0.143 -0.2715  0.2722 -0.1111
82551W        W83415  24.666   4.437   1.772 -0.1069 -0.3774  0.0633
82552W        W83416  27.331   6.047   2.049 -0.1802 -0.0269  0.0250
82553W        W83417  28.984   8.467   1.526 -0.1306  0.3026 -0.0707
82554W        W83418  26.893   7.752   1.837  0.0415 -0.1448 -0.0552
82555W        W83419  27.144   7.392   1.614  0.2315  0.0784  0.4064
82556W        W83420  28.644   4.081   3.625 -0.0249  0.5760 -0.2146
82557W        W83421  27.813   6.958   1.905  0.1124 -0.2448  0.0002
82558W        W83422  27.841   4.076   0.061 -0.2941 -0.1900 -0.1119
82559W        W83423   0.697   1.540   3.728  0.1388 -0.0472  0.0435
82560W        W83424  24.917   4.861   1.449  0.3508  0.2103  0.0120
82561W        W83425   0.792   5.991   1.103 -0.1310 -0.0291 -0.1435
82562W        W83426  24.434   5.897   2.115  0.1452  0.1087 -0.1198
82563W        W83427   0.011   6.790   1.132  0.0891 -0.0694  0.4173
82564W        W83428  26.703   5.064  28.746  0.0034 -0.1307 -0.3170
82565W        W83429  27.011   5.508  28.782  0.2043 -0.2273  0.0905
82566W        W83430  26.500   2.248   0.910  0.2582 -0.0941 -0.0254
82567W        W83431  28.077   7.488  27.523  0.0462  0.0170  0.0492
82568W        W83432  28.440   5.747  28.404 -0.1707 -0.2155 -0.0071
82569W        W83433  25.608   6.480   3.886 -0.0162 -0.1424  0.0493
82570W        W83434  24.794   2.553   0.669  0.0767  0.1324  0.2651
82571W        W83435  26.882   3.445   2.557 -0.2114  0.0831  0.1607
82572W        W83436   0.736   9.050   4.089  0.0551 -0.2569 -0.1188
82573W        W83437  26.168   6.661   1.485 -0.1264  0.0739  0.0362
82574W        W83438  28.630   5.817   0.589 -0.1136  0.1276  0.0383
82575W        W83439  28.440   6.078   1.164 -0.5113 -0.0121 -0.0260
82576W        W83440  25.593   5.827  29.001  0.0521 -0.0571  0.0170
82577W        W83441  28.168   6.038   1.621 -0.4130  0.1983  0.0025
82578W        W83442  25.971   5.797   1.684  0.0174 -0.0186 -0.0568
82579W        W83443  27.412   6.510   1.999  0.0384 -0.1529 -0.1724
82580W        W83444  27.616   5.632   3.828 -0.2103 -0.3556 -0.2852
82581W        W83445  26.846   5.337   1.899  0.3387  0.4205 -0.0532
82582W        W83446  27.317   2.720   1.232 -0.1003 -0.0150 -0.3452
82583W        W83447  26.350   1.804   0.552 -0.0988 -0.0326 -0.2182
82584W        W83448  27.393   5.632   1.805 -0.0188  0.0029 -0.1482
82585W        W83449   0.175   4.626   3.773 -0.1698 -0.1380  0.0723
82586W        W83450  27.989   6.901   1.454 -0.3182 -0.2713 -0.1138
82587W        W83451  26.758   5.079   4.697 -0.2330  0.4028  0.3317
82588W        W83452  27.063   7.055   3.847 -0.0045  0.1027 -0.1283
82589W        W83453  27.485   3.023   3.350  0.0947 -0.0873 -0.0665
82590W        W83454  25.066   3.378   4.403 -0.3517  0.0928 -0.2145
82591W        W83455  25.811   0.740   1.289 -0.1974  0.1674 -0.2631
82592W        W83456  26.307   7.124   3.537 -0.3845 -0.1534  0.0383
82593W        W83457  28.270   7.356   2.029  0.1203 -0.1055  0.0126
82594W        W83458  25.845   5.177  28.230 -0.2960 -0.2506  0.2052
82595W        W83459  28.183   9.254   1.715  0.3415  0.0658  0.0779
82596W        W83460  27.777   5.344   2.106 -0.0762 -0.3120 -0.1316
82597W        W83461  26.297   5.538   1.195  0.1531  0.1955 -0.2047
82598W        W83462  27.448   5.514   2.900 -0.2492  0.0841 -0.0519
82599W        W83463  28.357   4.866   1.109  0.1148 -0.3980  0.4949
82600W        W83464  24.842   4.914   2.033 -0.5623  0.0843 -0.0678
82601W        W83465  28.060   5.815   0.406 -0.2274  0.0916  0.1128
82602W        W83466  26.132   7.526   0.765 -0.0465 -0.1609  0.2530
82603W        W83467  25.243   3.207   3.415 -0.2195 -0.1005  0.1000
82604W        W83468  27.299   7.391   0.618  0.3779 -0.2274  0.0236
82605W        W83469   0.477   8.492  28.031 -0.1809 -0.3349  0.2491
82606W        W83470  25.458   5.338  28.755 -0.2759  0.0608 -0.0135
82607W        W83471  25.559   5.130   0.754 -0.1361  0.0332 -0.1063
82608W        W83472  27.650   2.256   1.380  0.1190 -0.2748 -0.0885
82609W        W83473  28.104   4.695   2.563 -0.0336 -0.1865  0.1367
82610W        W83474  28.811   4.485  28.531 -0.1228  0.2200  0.0546
82611W        W83475  27.110   3.473   0.118 -0.4739  0.0037 -0.1148
82612W        W83476  26.903   5.773   0.951 -0.0527  0.0373 -0.1031
82613W        W83477  28.431   6.629   1.023  0.1129 -0.0183 -0.1281
82614W        W83478  25.119   5.774   0.920 -0.4367  0.1151 -0.1625
82615W        W83479  23.838   7.304  28.338  0.1567 -0.1503  0.1110
82616W        W83480  26.309   6.179   1.440  0.0635 -0.0806  0.0820
82617W        W83481  25.880   1.822   0.979  0.3229  0.0513  0.2930
82618W        W83482  27.520   4.472   2.505  0.0371  0.2387 -0.3297
82619W        W83483  27.375   4.716   1.660 -0.1082 -0.1312  0.1981
82620W        W83484  29.141   2.154   1.862 -0.1717  0.3439 -0.0282
82621W        W83485  26.440   5.419   3.111 -0.1275 -0.2193 -0.0203
82622W        W83486  27.512   5.294  28.759 -0.0615 -0.0205  0.4338
82623W        W83487  27.786   5.341   0.725  0.0415 -0.1842 -0.1113
82624W        W83488  27.147   5.252   0.936 -0.0930 -0.1782  0.0286
82625W        W83489  27.861   4.963   1.779 -0.1015  0.0742 -0.2045
82626W        W83490  27.532   6.125   1.140 -0.2246 -0.2039 -0.0408
82627W        W83491  25.360   6.616   2.998  0.1351  0.0513 -0.1188
82628W        W83492  28.673   4.377   1.201  0.2380  0.2084 -0.2108
82629W        W83493  25.870   3.995   0.285 -0.1698 -0.1481  0.1138
82630W        W83494  27.025   8.208   2.390 -0.3656 -0.3229  0.3832
82631W        W83495  28.294   7.534   4.918  0.0078  0.1658  0.1445
82632W        W83496  27.769   7.013  27.290 -0.0300  0.1635  0.0787
82633W        W83497  26.316   7.096   2.275 -0.1157 -0.0029  0.1303
82634W        W83498  27.416   6.759   2.792 -0.0474 -0.0780  0.0651
82635W        W83499  26.644   5.259   0.959 -0.1485 -0.0546 -0.0573
82636W        W83500  25.711   5.321   2.247 -0.0171 -0.2676  0.0699
82637W        W83501  28.823   3.125   4.042 -0.1487  0.3487  0.0353
82638W        W83502  27.976   6.874   0.953  0.0606  0.4038  0.0154
82639W        W83503   2.560   6.157   0.153 -0.1361 -0.0273  0.0166
82640W        W83504  27.902   4.412  28.344 -0.1674  0.0979  0.0923
82641W        W83505  27.975   8.639   0.764 -0.0420 -0.3006 -0.0908
82642W        W83506   1.088   6.508   3.922 -0.1288 -0.3639 -0.0107
82643W        W83507  27.575   6.718   4.687  0.0912 -0.2388 -0.2137
82644W        W83508   0.900   2.356   4.247  0.1839  0.0373  0.0538
82645W        W83509  27.378   3.159   1.012 -0.4126  0.2975  0.0572
82646W        W83510  25.239   9.407   3.958 -0.2544 -0.1360 -0.2100
82647W        W83511  25.769   2.718  28.229  0.2975 -0.0758  0.2828
82648W        W83512  28.798   7.142   0.190 -0.2049  0.0943 -0.0428
82649W        W83513  26.343   6.553   4.579  0.2814 -0.2079 -0.0176
82650W        W83514  27.614   6.523   0.835  0.2024  0.0236  0.1032
82651W        W83515  27.600   4.577   4.314  0.2357 -0.2144 -0.0944
82652W        W83516  28.724   6.883   1.305 -0.0628 -0.3505 -0.0203
82653W        W83517  29.032   4.959   3.436  0.0958 -0.1987  0.0918
82654W        W83518  26.184   5.100  28.553  0.4092  0.4149 -0.0988
82655W        W83519  26.826   7.308   5.136 -0.1135 -0.1227  0.2058
82656W        W83520  24.962   8.118  28.469  0.1546  0.2468  0.1507
82657W        W83521  27.002   4.663   0.255 -0.1251  0.2329  0.0900
82658W        W83522  25.273   2.669   4.226 -0.1138 -0.0279 -0.0496
82659W        W83523  26.384   5.596   0.680 -0.0563 -0.0272 -0.0569
82660W        W83524   1.264   5.419   2.688 -0.1833  0.4446  0.2787
82661W        W83525  26.611   3.621   4.901  0.2771  0.4013  0.1931
82662W        W83526  28.190   5.591   2.384 -0.0885 -0.2375  0.0583
82663W        W83527   0.301   6.039  28.770  0.2717  0.0886  0.0948
82664W        W83528  27.166   4.475   0.743 -0.2983  0.0018 -0.0144
82665W        W83529  25.189   6.614   4.306 -0.0766  0.2334 -0.1323
82666W        W83530  25.919   6.435   1.888 -0.2726 -0.0467 -0.0881
82667W        W83531  26.201   5.914   2.609 -0.0702 -0.4336  0.0347
82668W        W83532  28.094   2.195   2.447 -0.1124 -0.0394  0.0049
82669W        W83533  25.516   5.449   1.157  0.1853  0.1170  0.0517
82670W        W83534  27.946   5.004   0.237  0.2315  0.1629 -0.1687
82671W        W83535  26.783   8.342   2.000 -0.0116 -0.0793 -0.0636
82672W        W83536  27.522   6.617   1.525  0.0388 -0.3572  0.3843
82673W        W83537  24.164   1.775   0.310 -0.1426 -0.0800  0.0238
82674W        W83538  25.427   7.038   3.339  0.3029  0.3082 -0.0321
82675W        W83539  27.807   7.292   2.331 -0.3065 -0.2986  0.0074
82676W        W83540   1.175   6.406   3.442 -0.1544  0.2472  0.2948
82677W        W83541  27.880   6.021   2.040  0.0178 -0.1295 -0.1421
82678W        W83542  24.587   4.064  27.722  0.1564 -0.2771 -0.1005
82679W        W83543   0.882   7.999   1.956  0.3479 -0.0476 -0.2260
82680W        W83544   1.028   4.816   0.129  0.2314  0.2652  0.3848
82681W        W83545  24.780   5.470   4.018  0.1558  0.1516 -0.0281
82682W        W83546   0.276   8.256   0.142  0.0354  0.1745 -0.2071
82683W        W83547   0.465   7.223   0.461  0.2572 -0.0362  0.1186
82684W        W83548  25.505   3.899   1.303 -0.3116 -0.0326 -0.1668
82685W        W83549  26.181   5.429   2.545 -0.2429  0.2200 -0.2710
82686W        W83550   0.839   6.020  28.479  0.1111  0.1900  0.0506
82687W        W83551  26.907   3.911   3.580 -0.0178 -0.0226  0.1632
82688W        W83552  26.903   8.299   2.911 -0.0179 -0.1892 -0.0901
82689W        W83553  24.999   7.245   3.754 -0.1670  0.2389 -0.0040
82690W        W83554  27.984   7.079   0.165 -0.1221 -0.2412  0.0057
82691W        W83555   0.453   7.404  29.104 -0.2623 -0.2773 -0.2973
82692W        W83556  25.093   2.863   1.512 -0.2973  0.3202  0.3452
82693W        W83557   0.523   6.862  29.093 -0.3425 -0.0762 -0.3443
82694W        W83558  26.804   6.279   0.571  0.2134  0.1286 -0.1650
82695W        W83559  27.048   6.358   2.943  0.1486  0.1493 -0.1081
82696W        W83560   0.669   6.742   0.451  0.3549 -0.2221 -0.3241
82697W        W83561  26.715   3.855   0.135 -0.0678 -0.1667 -0.2345
82698W        W83562   0.154   6.010   1.741  0.1336 -0.3265 -0.2033
82699W        W83563  27.984   2.879   4.944  0.1055  0.1744 -0.0230
82700W        W83564  23.559   4.185   4.227 -0.1299 -0.1363  0.2028
82701W        W83565  27.264   7.773   2.224  0.1250  0.0803  0.1263
82702W        W83566  25.855   3.028   1.462  0.0217 -0.0667 -0.0210
82703W        W83567  27.019   4.990   1.417  0.0306  0.0168 -0.1493
82704W        W83568   1.402   6.418   4.379 -0.0370  0.2051 -0.1072
82705W        W83569   0.930   1.803   1.566 -0.1411  0.2882 -0.3965
82706W        W83570  26.793   8.833   1.920  0.0266 -0.3010  0.0324
82707W        W83571  25.627   6.764   1.556  0.1189 -0.0151  0.3745
82708W        W83572   0.304   3.137   2.073  0.4284  0.1401 -0.0068
82709W        W83573  28.270   4.595   3.043 -0.0039 -0.1025  0.1336
82710W        W83574  27.502   6.972   1.042 -0.1995 -0.3779 -0.1067
82711W        W83575  25.694   2.883   2.535 -0.3323  0.2469  0.0327
82712W        W83576  28.157   4.289   1.289 -0.0131  0.1885  0.1800
82713W        W83577   0.048   5.039  28.773  0.0040 -0.1116  0.1064
82714W        W83578  28.741   7.624   1.812  0.0158  0.2791 -0.1571
82715W        W83579   0.217   2.884   2.634 -0.1488 -0.2247 -0.0354
82716W        W83580  27.637   5.666   2.460  0.0046  0.3288  0.2753
82717W        W83581  25.844   4.015   3.999  0.0678 -0.1632 -0.0759
82718W        W83582  24.622   6.239   1.822  0.0201  0.2008  0.2110
82719W        W83583  28.208   5.656   0.874  0.1492  0.0023  0.0886
82720W        W83584  26.829   2.306   2.089  0.1290  0.0783  0.0113
82721W        W83585   1.168   6.841   0.695 -0.1129 -0.0813  0.0026
82722W        W83586   0.118   4.644  28.499 -0.2123 -0.3090 -0.1174
82723W        W83587  28.848   6.451   3.565  0.2543 -0.0729 -0.1372
82724W        W83588  26.285   6.796  29.108  0.1539 -0.2149 -0.1729
82725W        W83589  24.792   4.951   3.846  0.0091  0.2025  0.0672
82726W        W83590  28.599  11.613   3.350 -0.0281  0.0107  0.3478
82727W        W83591   0.336   5.696   2.831  0.1230 -0.1520  0.0784
82728W        W83592  27.647   6.258  27.460  0.3151  0.0948 -0.4312
82729W        W83593  28.560   8.067   0.675 -0.2962 -0.1368 -0.1070
82730W        W83594  28.536   5.612   4.222 -0.2014 -0.1182  0.3381
82731W        W83595  26.085   4.705  28.080 -0.1986  0.0723  0.1308
82732W        W83596  26.397   5.941  28.885  0.2553  0.1017  0.0031
82733W        W83597  27.994   7.011   3.665  0.4746  0.1705 -0.1477
82734W        W83598  26.610   2.761   4.280 -0.0496  0.3678 -0.2860
82735W        W83599  27.253   7.490   3.508 -0.0865  0.1903 -0.1077
82736W        W83600  25.352   4.744   1.042 -0.1726 -0.0281 -0.3806
82737W        W83601  26.146   6.098   4.898  0.1497 -0.0731 -0.2194
82738W        W83602  25.474   8.066   4.182 -0.0504  0.1237 -0.0289
82739W        W83603  25.949   9.130   4.653 -0.3862  0.0226 -0.3056
82740W        W83604  28.289   3.164   0.376  0.1059 -0.1420  0.1020
82741W        W83605  26.915   5.104   0.087 -0.1324  0.1052  0.1028
82742W        W83606  28.566   4.278   5.352  0.3196 -0.2619 -0.0571
82743W        W83607  26.510   3.908   3.907 -0.0395 -0.0109 -0.0470
82744W        W83608  27.372   5.117   1.881 -0.0949 -0.0590  0.2381
82745W        W83609  28.847   4.440   2.372  0.0621 -0.0923  0.0536
82746W        W83610  25.898   7.023   1.833 -0.1457  0.5948  0.1731
82747W        W83611   0.010   6.308   3.960 -0.1109 -0.0230  0.5163
82748W        W83612  25.082   6.088  28.988 -0.1878  0.1163 -0.2870
82749W        W83613  25.830   7.352   4.796  0.0913  0.0974 -0.1986
82750W        W83614   0.151   4.245   2.524  0.5015 -0.0537 -0.1005
82751W        W83615  26.502   5.178   1.487  0.2531 -0.4622  0.0405
82752W        W83616  27.290   5.651  28.381 -0.2284  0.0239 -0.0310
82753W        W83617  24.771   4.878   2.536  0.0466 -0.1184 -0.2813
82754W        W83618  25.852   4.994   4.960 -0.0816  0.0580  0.1555
82755W        W83619  28.105   7.976  28.436 -0.1373 -0.1167 -0.1125
82756W        W83620  28.910   1.814   2.813 -0.0042 -0.0724  0.2093
82757W        W83621  28.956   7.268   4.699 -0.0619  0.2121 -0.0492
82758W        W83622  28.370   4.991   4.847 -0.1740  0.0564  0.0552
82759W        W83623  29.014   4.847   4.121 -0.0906  0.1881 -0.0097
82760W        W83624  26.857   6.315   2.079  0.0093  0.3740 -0.0818
82761W        W83625   0.812   7.587   1.659  0.0149  0.0465 -0.0895
82762W        W83626  28.875   3.958   2.603  0.2347 -0.2788 -0.1839
82763W        W83627  27.741   4.106   4.166 -0.1644  0.0295 -0.0609
82764W        W83628  26.412   7.213   3.038 -0.0526  0.2238 -0.1453
82765W        W83629  27.897   4.769   0.788 -0.0555  0.1824 -0.3890
82766W        W83630  26.109   1.066   1.567 -0.1106  0.0214 -0.2239
82767W        W83631  26.857   7.739   1.060 -0.2397  0.0494 -0.0887
82768W        W83632  26.676   6.041   2.419  0.0124  0.0378  0.0351
82769W        W83633  27.735   8.381   4.872  0.4126  0.4328  0.1714
82770W        W83634  26.131   5.361   1.921 -0.3826 -0.0212  0.1673
82771W        W83635  23.077   3.846   0.858 -0.3347  0.3138 -0.3350
82772W        W83636  27.387   7.412   2.565 -0.0841  0.0700  0.0839
82773W        W83637  25.454   3.309   2.401 -0.1734 -0.0478  0.4869
82774W        W83638  26.512   8.120   2.535 -0.0324  0.2207  0.1516
82775W        W83639  25.566   1.989  28.983  0.1186  0.2264 -0.0373
82776W        W83640   0.475   5.899   3.345 -0.1186 -0.2746 -0.2667
82777W        W83641  28.403   8.240   3.106 -0.1277 -0.0784 -0.2322
82778W        W83642   0.089   6.465  28.527  0.0028  0.0832  0.0994
82779W        W83643   0.871   2.301   1.306 -0.4963  0.1236 -0.1582
82780W        W83644  26.883   9.464   2.602 -0.0571 -0.2481 -0.2861
82781W        W83645  27.777   3.914   1.949 -0.1410  0.0007  0.0733
82782W        W83646  28.706   5.286   3.165  0.0324 -0.0025 -0.2359
82783W        W83647  24.979   5.430   0.526 -0.0869 -0.5312 -0.2131
82784W        W83648  26.344   4.982   2.631  0.1032 -0.0825 -0.2509
82785W        W83649  27.075   4.708   2.648 -0.0157  0.0402  0.3031
82786W        W83650  26.534   3.111   2.629  0.3498  0.0914 -0.2809
82787W        W83651   1.081   5.739   2.333  0.1173 -0.0721 -0.2476
82788W        W83652   0.295   6.538   1.490 -0.0551 -0.2144  0.0456
82789W        W83653  27.374   4.230   1.966  0.1256 -0.5119  0.2452
82790W        W83654  27.420   4.870   0.951 -0.0464  0.2171  0.3294
82791W        W83655   1.194   5.977   0.663 -0.3067 -0.0950 -0.0398
82792W        W83656   0.483   5.694   0.245 -0.1953 -0.0047 -0.0476
82793W        W83657  27.816   3.422   1.665 -0.0167 -0.3053 -0.0719
82794W        W83658  26.673   5.559  29.146  0.2341  0.1498 -0.0948
82795W        W83659   2.220   4.854  28.628  0.0490 -0.0860  0.2735
82796W        W83660  27.291   4.004   0.942 -0.0167 -0.2716 -0.0833
82797W        W83661  28.715   6.693   2.242  0.1730 -0.1122  0.1584
82798W        W83662  28.948   6.507   0.256  0.1266  0.1676 -0.2617
82799W        W83663  27.572   6.080   2.801 -0.1954  0.4589 -0.0517
82800W        W83664  27.839   5.230   3.126  0.1413  0.0913 -0.0862
82801W        W83665  28.604   2.301   4.273  0.2605 -0.1407  0.1020
82802W        W83666  25.045   2.586   4.715 -0.0258 -0.2045 -0.4137
82803W        W83667  26.290   6.472   0.589 -0.1959 -0.0349 -0.2616
82804W        W83668  24.205   3.683   4.593  0.3261  0.2808  0.0551
82805W        W83669  25.792   6.946   3.714 -0.0580 -0.3188 -0.1866
82806W        W83670  26.494   6.036   0.905  0.1115 -0.1147 -0.1678
82807W        W83671   1.374   5.006   0.436  0.0721  0.2444 -0.2106
82808W        W83672  27.088   5.780   3.678  0.0620 -0.2902  0.0478
82809W        W83673  27.010   5.509   1.385  0.1358  0.0571  0.1122
82810W        W83674  27.312   8.099   1.882  0.2263  0.2585 -0.1604
82811W        W83675  26.521   9.930   1.715 -0.0382  0.3004  0.0317
82812W        W83676  27.540   8.383   0.722 -0.2262 -0.1675 -0.4552
82813W        W83677   0.497   9.362   2.300  0.1924  0.3002 -0.2866
82814W        W83678  26.702   7.268   2.558  0.1347  0.0960  0.2199
82815W        W83679  26.509   8.319   0.217  0.0202 -0.1415 -0.1323
82816W        W83680   2.931   5.588   0.773 -0.0996  0.0951 -0.3033
82817W        W83681  27.950   7.850   1.366 -0.3516 -0.1238  0.1892
82818W        W83682  24.839   7.780   3.583 -0.2672  0.0098  0.2207
82819W        W83683  26.765   5.452   2.656  0.0368  0.0945 -0.2582
82820W        W83684  28.724   4.889   1.494  0.0576 -0.2329 -0.2132
82821W        W83685  27.793   7.483   3.490  0.1908 -0.0961  0.0339
82822W        W83686  28.910   8.803   1.129 -0.2442 -0.1346 -0.0554
82823W        W83687  25.105   4.080  27.352  0.2266 -0.1341 -0.1321
82824W        W83688  28.228   6.955   6.667 -0.1387 -0.1988 -0.1686
82825W        W83689  27.570   4.971   7.898 -0.0423 -0.1417  0.1063
82826W        W83690   2.186   7.564   5.060  0.1492 -0.1864 -0.2443
82827W        W83691  28.459   5.179   7.497 -0.0281 -0.0815  0.1707
82828W        W83692  27.424   9.896   3.883  0.1016 -0.0627  0.0642
82829W        W83693  27.310   3.449   3.624  0.2116 -0.1690 -0.0252
82830W        W83694  26.317   5.232   5.022  0.0666 -0.3671 -0.0007
82831W        W83695  27.352   4.079   4.437 -0.4113  0.1176 -0.0816
82832W        W83696  27.582   8.384   6.180 -0.1931  0.3526 -0.0767
82833W        W83697  25.444   5.722   6.934  0.3377  0.1442  0.1312
82834W        W83698  25.881   4.882   5.852  0.2665 -0.1726  0.0008
82835W        W83699  27.555   3.632   5.024  0.0736  0.1846 -0.2327
82836W        W83700  27.457   4.715   6.514 -0.2657 -0.2011 -0.1762
82837W        W83701  26.395   2.879   5.185 -0.1066 -0.0300 -0.1552
82838W        W83702  26.356   4.972   4.018 -0.2810 -0.2803  0.1292
82839W        W83703  26.043   5.922  10.145 -0.0073  0.1469  0.1943
82840W        W83704  26.949   6.896   5.404  0.2193 -0.1617  0.0559
82841W        W83705  24.710   4.174   2.788  0.3691  0.2697  0.0803
82842W        W83706   0.087   7.581   5.113  0.1628  0.1129 -0.1323
82843W        W83707  29.114   1.749   5.712 -0.0487  0.0345 -0.1303
82844W        W83708   0.806   4.398   8.277  0.0844 -0.1808  0.1024
82845W        W83709  27.624   3.971   6.961 -0.2525 -0.1779  0.2840
82846W        W83710  27.029   4.497   5.095  0.4159  0.1902  0.1966
82847W        W83711  25.149   5.488   3.220  0.2483 -0.0057  0.2810
82848W        W83712  28.358   7.302   4.438 -0.0191  0.1985  0.1002
82849W        W83713  27.291   5.628   7.191  0.1091 -0.0532 -0.0081
82850W        W83714  27.848   5.825   4.260 -0.0986  0.0780 -0.1874
82851W        W83715  26.711   6.563   6.222  0.3355 -0.0268 -0.4362
82852W        W83716  27.592   6.895   5.221 -0.0884  0.0506 -0.0303
82853W        W83717  29.077   6.266   6.722 -0.2782 -0.0105  0.0902
82854W        W83718  26.040   6.340   4.099 -0.1783  0.0419  0.1204
82855W        W83719  28.094   3.946  10.033  0.3221  0.3370 -0.0355
82856W        W83720  26.105   4.515   6.726  0.0562  0.2050  0.2950
82857W        W83721  26.845   8.241   7.351  0.1839 -0.0363 -0.0637
82858W        W83722  24.545   4.547   6.159 -0.1808 -0.0144  0.1294
82859W        W83723  27.215   4.870   7.471 -0.2022  0.3123 -0.1052
82860W        W83724  24.341   3.647   6.740  0.0096 -0.3889 -0.3642
82861W        W83725  26.107   6.330   2.346 -0.4546 -0.3380 -0.1486
82862W        W83726  28.237   6.172   4.188  0.3527 -0.0921  0.1196
82863W        W83727   0.563   2.739   5.378 -0.2134 -0.2631  0.2344
82864W        W83728  28.438   5.685   2.935 -0.1132 -0.2238  0.1762
82865W        W83729   1.896   3.889   4.685  0.1034  0.0187  0.2347
82866W        W83730  28.121   4.594   6.219 -0.0685 -0.2447 -0.2183
82867W        W83731   3.741   9.517   5.717 -0.0411 -0.1304 -0.3733
82868W        W83732  27.004   7.316   2.970 -0.3618 -0.1183 -0.0397
82869W        W83733  28.041   7.633   5.409  0.3471 -0.2145 -0.1980
82870W        W83734  24.099   4.549   5.001  0.0641  0.1183 -0.1748
82871W        W83735  28.698   1.493   8.759  0.0452  0.1540 -0.1627
82872W        W83736  27.582   3.737   3.205 -0.0856  0.0094  0.3147
82873W        W83737  27.295   3.778   4.003  0.2002  0.1515 -0.2601
82874W        W83738   0.085   6.539   7.440  0.0673 -0.2029 -0.1671
82875W        W83739  28.765   5.801   5.024 -0.1512  0.0556 -0.1891
82876W        W83740  25.226   7.660   6.208  0.1920  0.0395  0.3168
82877W        W83741  27.717   4.737   2.928  0.0085 -0.0766  0.0644
82878W        W83742  25.878   4.970   4.194 -0.2255  0.3347  0.1166
82879W        W83743  25.325   6.707   1.973  0.1821  0.0684  0.1692
82880W        W83744  26.778   4.641   3.217  0.2233 -0.0828 -0.0419
82881W        W83745  27.221   4.953   4.418 -0.1900 -0.1997  0.0850
82882W        W83746  27.717   7.139   6.644  0.1215  0.1043 -0.2040
82883W        W83747  27.684   5.322   4.228  0.0239 -0.0289  0.3823
82884W        W83748  28.552   5.076   4.154 -0.0484 -0.2928  0.0623
82885W        W83749  25.599   6.930   8.063  0.3453  0.0158 -0.2293
82886W        W83750  27.607   6.463   6.061 -0.0578 -0.2138  0.1374
82887W        W83751  27.158   7.031   6.914 -0.1558  0.3002  0.1834
82888W        W83752  26.423   4.572   7.102  0.1594 -0.1069 -0.2296
82889W        W83753   0.188   2.398   5.579  0.0261  0.0759  0.0924
82890W        W83754  25.394   5.728   4.682 -0.0252 -0.1428 -0.0874
82891W        W83755  26.562   5.545   4.289 -0.3279 -0.0179 -0.2730
82892W        W83756  26.495   5.655   1.645 -0.0894  0.0320  0.1888
82893W        W83757  25.869   5.433   3.017  0.0559  0.2191  0.0355
82894W        W83758   0.030   6.884   8.291  0.0402  0.2146 -0.3436
82895W        W83759  27.102   5.837   2.663  0.0817  0.0700 -0.2998
82896W        W83760   0.623   7.605   6.642 -0.1017 -0.2400  0.1564
82897W        W83761  26.697   4.969   7.019 -0.3111  0.1224 -0.1833
82898W        W83762   0.725   8.086   6.769  0.1510 -0.2360  0.0591
82899W        W83763  27.259   5.099   4.948 -0.0893  0.2015 -0.6016
82900W        W83764  24.522   3.641   4.176  0.0850  0.1979  0.3725
82901W        W83765  24.786   6.224   5.183 -0.0197 -0.2316  0.0860
82902W        W83766  28.210   5.133   5.397 -0.0598  0.3752  0.1804
82903W        W83767  26.395   6.130   6.296 -0.0066 -0.3652  0.0799
82904W        W83768  25.339   6.481   7.130  0.2937 -0.2328  0.1156
82905W        W83769  25.623   3.625   8.639  0.3296  0.0801  0.2851
82906W        W83770  24.756   2.448   4.312  0.2405 -0.0182 -0.1117
82907W        W83771  26.511   2.739   6.081  0.2581  0.2704  0.0896
82908W        W83772  26.098   2.719   8.117 -0.1063  0.1603  0.1655
82909W        W83773  26.302   3.465   3.011 -0.2092 -0.0628 -0.1003
82910W        W83774  28.979   5.939   9.485 -0.1051  0.3489 -0.1576
82911W        W83775  28.732   2.139   7.163  0.4178  0.1001  0.1668
82912W        W83776  28.651   7.046   5.628 -0.2341 -0.0823 -0.4158
82913W        W83777  25.835   1.928   3.760  0.3460  0.1609 -0.0824
82914W        W83778  26.829   3.964   5.332  0.2837 -0.3520  0.0007
82915W        W83779   1.082   5.878   7.610 -0.0757  0.3025  0.2216
82916W        W83780  26.424   6.061   4.361  0.0106 -0.0430 -0.0935
82917W        W83781  25.454   3.670   3.216 -0.0492  0.1592 -0.2066
82918W        W83782  25.647   4.650   6.624  0.1445 -0.1223  0.1171
82919W        W83783  28.862   3.185   5.021 -0.0680 -0.2426  0.1727
82920W        W83784  27.236   2.245   6.914 -0.0036 -0.1980  0.2211
82921W        W83785  29.097   5.496   5.984  0.1535  0.2472  0.0047
82922W        W83786  26.764   4.960   5.199  0.0699  0.0629  0.3787
82923W        W83787  28.737   4.045   4.934 -0.1523 -0.0781 -0.3857
82924W        W83788   2.177   4.598   5.929  0.0493 -0.1671  0.2632
82925W        W83789  26.177   7.534   4.522  0.1190 -0.1633  0.1176
82926W        W83790  26.516   3.158   4.033 -0.2426 -0.0980  0.1226
82927W        W83791  27.197   7.073   4.925  0.0942  0.4388  0.0797
82928W        W83792   3.587   3.622   6.747  0.2051 -0.0316 -0.0089
82929W        W83793  28.258   5.187   6.626  0.1533 -0.2310  0.2710
82930W        W83794  27.513   6.610   3.278  0.2534  0.2564 -0.0358
82931W        W83795  27.252   2.827   7.383  0.0201 -0.0187 -0.2847
82932W        W83796  27.677   2.729   7.720 -0.0440 -0.1443 -0.1360
82933W        W83797  27.567   3.975   3.624 -0.0622 -0.0141  0.2050
82934W        W83798  25.064   8.230   3.946 -0.0483 -0.0142  0.2070
82935W        W83799  27.091   4.627   3.596  0.2582 -0.1075 -0.1596
82936W        W83800   1.478   5.314   6.495 -0.3941  0.0791  0.2382
82937W        W83801  28.972   7.360   4.194 -0.0244  0.0357  0.0747
82938W        W83802  28.848   7.207   5.201 -0.0187  0.3437 -0.2656
82939W        W83803  26.778   4.989   2.920 -0.2175 -0.1355 -0.0549
82940W        W83804   2.967   2.711   5.534  0.0332  0.1292 -0.0853
82941W        W83805  28.344   4.661   7.525  0.2942  0.0099  0.0373
82942W        W83806  28.437   2.975   7.559 -0.1260  0.0903  0.0232
82943W        W83807  27.718   6.108   3.753 -0.0939 -0.0331  0.2198
82944W        W83808  28.659   2.949   5.624  0.1094 -0.1590  0.0374
82945W        W83809   1.806   9.556   6.312  0.0490 -0.0198 -0.2426
82946W        W83810  27.718   5.259   6.801 -0.3307  0.2171 -0.0567
82947W        W83811  28.256   4.898   3.791 -0.1706  0.1739  0.1791
82948W        W83812  28.155   2.747   5.719 -0.0815  0.0366  0.0293
82949W        W83813  29.061   3.792   6.074  0.0852 -0.0409  0.0201
82950W        W83814  23.437   4.423   4.728 -0.3477  0.3974 -0.0827
82951W        W83815  26.460   2.648   7.514  0.1705 -0.1089  0.2219
82952W        W83816   0.556   6.582   7.564  0.0258  0.1255 -0.3005
82953W        W83817  26.000   6.427   6.282 -0.0615 -0.0888 -0.1984
82954W        W83818   0.611   5.101   9.021 -0.2687  0.0064  0.1320
82955W        W83819  26.868   7.505   8.034  0.2377 -0.5003 -0.4104
82956W        W83820  27.069   6.663   7.285 -0.0538  0.0163  0.3013
82957W        W83821  28.707   4.548   6.186  0.0566 -0.1333  0.0908
82958W        W83822  28.623   5.751   3.387 -0.1755 -0.0791  0.1367
82959W        W83823  26.343   6.471   6.641 -0.5256 -0.0075  0.2365
82960W        W83824  27.149   3.241   6.689  0.2655 -0.1948  0.1519
82961W        W83825   0.985   2.620   7.984  0.0524  0.0086  0.1005
82962W        W83826  28.876   7.944   5.384 -0.1991 -0.2028 -0.2310
82963W        W83827  27.045   9.153   3.368  0.1692 -0.2181  0.2585
82964W        W83828  25.170   3.097   4.009 -0.0318 -0.2221  0.1574
82965W        W83829  26.825   3.365   7.050  0.0131  0.4400  0.0433
82966W        W83830  25.310   7.717   3.605  0.0342 -0.0795  0.1480
82967W        W83831  26.416   5.224   3.577  0.2757  0.0823 -0.2120
82968W        W83832  25.966   3.666   7.041  0.2977 -0.0998  0.1241
82969W        W83833   1.658   3.402   6.516 -0.2455 -0.0235  0.1821
82970W        W83834  28.885   4.474   4.409 -0.0062  0.0248 -0.3510
82971W        W83835   0.719   5.994   4.180  0.0066  0.2195 -0.1455
82972W        W83836  26.229   4.997   5.415  0.0599  0.3106  0.0337
82973W        W83837  27.686   6.363   4.172 -0.0847 -0.1793  0.0395
82974W        W83838  28.178   5.980   6.915 -0.0025  0.1758  0.0380
82975W        W83839  25.367   4.180   5.580 -0.1438 -0.3025 -0.2252
82976W        W83840  28.167   5.346   4.562 -0.1065  0.0637 -0.0928
82977W        W83841  28.415   4.638   4.376  0.4441 -0.2557  0.0976
82978W        W83842  25.516   6.099   4.260 -0.1022  0.1652 -0.3654
82979W        W83843  27.375   2.337   6.381 -0.2267  0.0286  0.1464
82980W        W83844  23.539   7.487   4.193 -0.0301  0.0379 -0.1714
82981W        W83845   0.357   8.006   5.253 -0.1505 -0.1911 -0.2066
82982W        W83846  28.632   4.561   3.875  0.3135  0.1596 -0.0583
82983W        W83847   0.373   5.188   4.621  0.0926 -0.1375 -0.2192
82984W        W83848  25.049   2.332   5.776 -0.1383  0.0488 -0.0683
82985W        W83849  26.955   5.318   7.346 -0.0896  0.0858 -0.2701
82986W        W83850  27.323   6.101   5.811 -0.0423  0.1521 -0.0270
82987W        W83851  28.501   4.214   8.303  0.2497  0.1597 -0.0304
82988W        W83852  25.859   4.299   7.280 -0.0296 -0.0055 -0.0351
82989W        W83853  23.352   5.983   5.931 -0.1265  0.3088 -0.0458
82990W        W83854  25.345   3.796   5.306  0.1147  0.1203  0.0555
82991W        W83855  26.926   6.602   6.709  0.3166 -0.1070  0.0248
82992W        W83856  25.971  10.147   2.431 -0.2283  0.0195 -0.2303
82993W        W83857  28.190   5.380   3.963 -0.1168  0.0591  0.0450
82994W        W83858  27.023   4.725   5.687 -0.0242  0.4600 -0.1534
82995W        W83859  26.523   4.147   4.931  0.1325  0.0398  0.0623
82996W        W83860  28.709   6.659   5.905  0.0333 -0.1730  0.2714
82997W        W83861  29.101   5.377   4.345 -0.0999 -0.0823  0.2447
82998W        W83862  27.046   3.186   4.200 -0.2076  0.0109 -0.1297
82999W        W83863   1.609   4.705   4.651 -0.1059  0.2370 -0.0344
83000W        W83864  28.710   6.289   4.484 -0.2084  0.3516  0.0997
83001W        W83865  25.194   7.570   5.506 -0.4508 -0.0913 -0.2445
83002W        W83866  27.519   7.076   3.570 -0.0838 -0.0860  0.1214
83003W        W83867  26.349   4.231   6.284 -0.2496  0.0081 -0.0489
83004W        W83868  27.486   5.953   4.702  0.2503 -0.1544  0.0788
83005W        W83869   0.047   5.213   3.008 -0.3605 -0.1687  0.1942
83006W        W83870  28.376   7.067   3.989 -0.0583  0.1101 -0.1500
83007W        W83871  27.193   3.760   2.797 -0.0919  0.1996  0.1431
83008W        W83872  27.283   6.094   0.702  0.1042 -0.3239  0.1207
83009W        W83873  23.800   8.323   9.039  0.1116 -0.1023 -0.1287
83010W        W83874  28.753   5.383   3.770  0.1759 -0.1145 -0.1936
83011W        W83875  24.354   3.389   3.790 -0.0060  0.0243  0.2857
83012W        W83876   0.177   6.968   6.300  0.1137 -0.1490  0.1492
83013W        W83877  27.886   4.096   7.916 -0.2139 -0.2186 -0.0834
83014W        W83878  27.559   6.117   3.285 -0.3152  0.1282 -0.1098
83015W        W83879  23.552   6.811   4.269  0.0644  0.2094  0.1180
83016W        W83880  24.013   4.469   6.001  0.1674  0.1456  0.0103
83017W        W83881  27.884   4.976   8.236 -0.2481  0.0006 -0.1033
83018W        W83882  24.662   2.760   6.292 -0.1080  0.0612 -0.2303
83019W        W83883  25.015   3.936   5.888 -0.0324  0.0727 -0.1164
83020W        W83884  28.518   3.982   2.225 -0.0344 -0.0455  0.1770
83021W        W83885  26.982   4.953   6.103  0.1107 -0.0320  0.0602
83022W        W83886  23.412   5.209   6.522 -0.1817 -0.3483 -0.1065
83023W        W83887  28.691   5.322   6.254  0.2797 -0.3245 -0.0656
83024W        W83888  26.718   3.197   5.994  0.0310  0.2819  0.0529
83025W        W83889  28.547   2.630   5.260 -0.0892  0.1941  0.1021
83026W        W83890   3.062   1.978   1.042 -0.2322 -0.2079 -0.2060
83027W        W83891  25.002   5.955   4.819  0.2004 -0.3564 -0.0604
83028W        W83892  27.609   3.355   7.465 -0.3120  0.1359  0.1374
83029W        W83893  25.005   4.518   3.617 -0.1318  0.1326  0.1997
83030W        W83894  25.491   4.062   4.414 -0.0991 -0.0783  0.3090
83031W        W83895  26.331   6.588   5.234  0.1929 -0.1891 -0.0622
83032W        W83896   0.987   5.469   4.443 -0.2631  0.1604  0.1762
83033W        W83897  24.685   4.584   3.045  0.0211 -0.2097 -0.3536
83034W        W83898  23.865   5.107   7.386  0.2633  0.2267 -0.0595
83035W        W83899  27.764   6.987   6.116 -0.2461  0.0575  0.1919
83036W        W83900  28.025   6.775   5.655  0.1654  0.2531  0.2023
83037W        W83901  27.878   3.800   5.364 -0.3566  0.0132 -0.1233
83038W        W83902  26.869   5.561   6.886  0.0778 -0.1409 -0.1536
83039W        W83903   0.156   3.167   4.732 -0.2646  0.1230  0.0756
83040W        W83904  26.211   9.105   4.076  0.2576  0.1272 -0.0113
83041W        W83905   0.188   6.399   3.427  0.3424  0.0551  0.0722
83042W        W83906  26.621   5.452   5.507  0.0524  0.0913 -0.0625
83043W        W83907  27.973   5.797   5.652  0.0185 -0.2798 -0.2567
83044W        W83908   0.985   4.555   6.598  0.0824 -0.2917 -0.0348
83045W        W83909   0.404   4.830   5.238  0.0321  0.0901  0.2825
83046W        W83910  27.671   6.572   8.104 -0.1073  0.2762  0.1163
83047W        W83911   0.356   3.964   5.970 -0.0390  0.1264 -0.3445
83048W        W83912  27.521   7.270   4.600 -0.1443 -0.1217  0.2448
83049W        W83913  23.572   4.659   7.381 -0.0454  0.0643  0.1092
83050W        W83914  28.457   5.711   6.584  0.1275 -0.2849  0.0449
83051W        W83915   0.104   5.134   7.447  0.1160  0.1909 -0.2730
83052W        W83916  27.865   8.334   2.675 -0.0764  0.0185 -0.1534
83053W        W83917  27.798   5.203   3.673  0.2942  0.1632 -0.0083
83054W        W83918  25.566   3.844   7.335 -0.0135 -0.3805  0.2583
83055W        W83919  26.620   4.299   6.704  0.0470  0.0054  0.2324
83056W        W83920  25.084   4.828   7.162  0.2019 -0.1669  0.1032
83057W        W83921   0.517   5.706   6.997 -0.1535 -0.1561  0.1370
83058W        W83922  27.193   4.020   4.897 -0.0873 -0.1364  0.0895
83059W        W83923  26.550   4.613   4.912  0.2663  0.1091  0.2510
83060W        W83924   0.431   6.481   4.039 -0.0407 -0.1368  0.2405
83061W        W83925  28.370   3.280   8.896  0.1406  0.0251 -0.0346
83062W        W83926  27.681   6.156   6.968  0.2269 -0.1739  0.0452
83063W        W83927  27.836   5.558   8.435 -0.1355  0.0208 -0.3178
83064W        W83928  28.380   8.520   4.711 -0.0809  0.2427  0.1830
83065W        W83929  26.497   6.783   8.472  0.1540 -0.0432 -0.2297
83066W        W83930  27.548   5.963   5.349 -0.1665 -0.0805 -0.0641
83067W        W83931  28.188   4.560   5.045  0.3577  0.0604  0.0917
83068W        W83932   2.247   3.055   4.167 -0.1568  0.0378  0.4779
83069W        W83933  26.218   6.631   3.586  0.0763  0.0694  0.4182
83070W        W83934  25.621   5.346   3.935 -0.1338  0.2578  0.1191
83071W        W83935  24.917   6.828   8.686 -0.0647 -0.0835 -0.0901
83072W        W83936  27.782  10.238   6.130 -0.3411 -0.1167  0.1295
83073W        W83937  28.026   4.960   4.295  0.2699 -0.2807  0.1864
83074W        W83938  26.270   6.360   5.833  0.0866 -0.2752  0.0562
83075W        W83939  27.546   5.287   7.501 -0.1121  0.0112  0.2209
83076W        W83940  27.013   5.176   7.834 -0.0209 -0.1312  0.2076
83077W        W83941  28.730   6.589   4.892 -0.1671  0.3530 -0.1469
83078W        W83942  25.649   5.010   1.897 -0.0092 -0.0454  0.1087
83079W        W83943   0.407   5.181   6.073  0.2861 -0.2632 -0.2045
83080W        W83944  29.066   3.648   4.957  0.2063 -0.0549  0.0339
83081W        W83945  27.219   6.797   6.336  0.1547  0.3558 -0.1703
83082W        W83946  26.592   8.738   6.803  0.2300 -0.0309  0.0997
83083W        W83947  28.791   4.132   5.764 -0.0204  0.1178  0.1248
83084W        W83948  26.991   4.230   5.766  0.0470  0.0699 -0.0250
83085W        W83949  25.774   2.641   4.303 -0.3423 -0.1971  0.0834
83086W        W83950   0.486   2.555   8.072 -0.0423  0.1063  0.0731
83087W        W83951  27.224   4.750   7.035 -0.1793  0.0828 -0.0189
83088W        W83952  26.381   9.148   6.770  0.2481 -0.0791  0.0053
83089W        W83953  26.155   6.914   6.574 -0.0836  0.0185 -0.2054
83090W        W83954  27.336   5.511   5.164  0.2920 -0.3021  0.0404
83091W        W83955  29.076   5.504   2.495 -0.2971  0.2573  0.2703
83092W        W83956  27.280   7.361   6.421 -0.0100 -0.0646 -0.0627
83093W        W83957   0.535   3.319   3.403 -0.0846  0.2756 -0.3157
83094W        W83958  25.524   5.363   2.695  0.2177 -0.0015  0.2589
83095W        W83959  27.308   3.762   6.577  0.0198  0.0315 -0.2836
83096W        W83960  28.388   4.723   5.523  0.1581 -0.7065 -0.0870
83097W        W83961  28.360   5.879   4.571  0.0467 -0.0591  0.1528
83098W        W83962   0.295   7.354   8.154 -0.1410  0.0192  0.1467
83099W        W83963  28.648   4.145   8.877  0.0620  0.1010 -0.0407
83100W        W83964  27.830   6.048   8.007 -0.3033  0.1337 -0.3513
83101W        W83965  27.609   3.895   8.297  0.4286 -0.1536 -0.0270
83102W        W83966  27.447   4.934   3.478  0.0734  0.1926 -0.2988
83103W        W83967  26.050   8.091   7.554 -0.2694 -0.1878  0.0245
83104W        W83968  26.362   6.128   3.760  0.1784  0.2635 -0.2106
83105W        W83969  26.113   3.458   3.935 -0.2776 -0.1765  0.0285
83106W        W83970  25.098   5.892   1.817  0.0117  0.1190  0.2339
83107W        W83971  25.469   5.879   8.732  0.0121  0.2955  0.2623
83108W        W83972  28.280   5.113   2.955  0.3110  0.1171 -0.0970
83109W        W83973   1.689   5.728   6.413  0.0151 -0.2265  0.0701
83110W        W83974  26.835   5.242   6.524  0.1322  0.1170  0.0719
83111W        W83975  21.615   5.622   6.219  0.0090 -0.1980  0.0125
83112W        W83976   1.736   6.842   6.181  0.1004  0.1455 -0.0735
83113W        W83977  28.518   2.998   6.498 -0.1478  0.3068  0.1157
83114W        W83978  26.811   4.714   4.067  0.0048 -0.0974 -0.0011
83115W        W83979  28.180   4.029   5.035  0.1022  0.0339 -0.1493
83116W        W83980  28.199   4.490   8.021 -0.1411 -0.0384  0.0744
83117W        W83981  28.880   5.320   7.210  0.1039 -0.1085 -0.1515
83118W        W83982  26.361   7.623   4.997 -0.3170 -0.2797 -0.2805
83119W        W83983  27.409   4.522   5.447  0.3271 -0.4087  0.0369
83120W        W83984  27.010   3.665   4.493 -0.2218 -0.2432  0.3893
83121W        W83985   2.497   3.718   5.948  0.0865 -0.1214 -0.4988
83122W        W83986   1.814   4.541   5.101  0.0314  0.0362 -0.4159
83123W        W83987  26.211   7.927   6.355 -0.0820  0.1500  0.0911
83124W        W83988  25.145   7.009   2.899  0.1448 -0.0658 -0.1457
83125W        W83989  26.941   4.348   7.255  0.1593 -0.2942  0.0409
83126W        W83990  28.229   5.272   8.355 -0.2475  0.1451  0.0025
83127W        W83991  29.036   6.153   4.840  0.1028 -0.2837 -0.1839
83128W        W83992  28.970   5.925   6.379  0.2944 -0.1024 -0.0469
83129W        W83993  29.092   5.316   5.219 -0.1627  0.0143 -0.0723
83130W        W83994   1.247   4.789   7.903  0.1844  0.3553 -0.1882
83131W        W83995  28.131   4.087   6.239  0.1271 -0.1630  0.1127
83132W        W83996   0.202   4.641   7.020  0.1006 -0.0964 -0.1321
83133W        W83997  26.074   7.629   5.855  0.0318  0.1346  0.2328
83134W        W83998  27.683   4.900   7.179  0.0346  0.1626  0.1983
83135W        W83999  27.269   7.308   5.872  0.1074  0.2525 -0.1399
83136W        W84000  26.620   5.515   6.072 -0.3055 -0.0019 -0.1987
83137W        W84001  27.183   4.520   7.815  0.0127 -0.0175 -0.2347
83138W        W84002  25.450   4.678   5.832 -0.1334  0.1919 -0.0053
83139W        W84003  26.252   5.881   7.204 -0.0388  0.0619 -0.0766
83140W        W84004  27.315   5.942   4.175  0.0541 -0.0668  0.0281
83141W        W84005   0.893   3.534   4.835 -0.0891 -0.1109  0.1160
83142W        W84006   0.117   4.581   9.178  0.3878  0.0258  0.0020
83143W        W84007  27.584   5.728   7.683 -0.1688  0.4130  0.1724
83144W        W84008  28.755   7.035   8.012 -0.0371  0.0260  0.2016
83145W        W84009  29.118   6.957   3.386 -0.2480  0.2467 -0.3524
83146W        W84010  26.121   7.128   7.135 -0.2046 -0.2571 -0.0711
83147W        W84011   0.589   6.548   6.149 -0.1303 -0.0117  0.0280
83148W        W84012  26.895   9.673   4.126 -0.1911 -0.1594 -0.0538
83149W        W84013  24.826   8.368   8.103 -0.0286  0.0101  0.3720
83150W        W84014  25.250   4.560   6.288 -0.3544 -0.1168 -0.0600
83151W        W84015  26.784   5.426   3.843  0.0728 -0.0402 -0.2174
83152W        W84016  28.369   7.322   3.530  0.2981  0.4021  0.2598
83153W        W84017  23.898   5.373   4.903 -0.0655 -0.0096  0.0361
83154W        W84018  28.568   6.505   8.176  0.0300  0.2565  0.1483
83155W        W84019   1.280   4.432   3.736  0.2958 -0.1104  0.3527
83156W        W84020   0.291   2.769   7.626 -0.4552 -0.0680  0.0876
83157W        W84021  29.002   5.703   8.884  0.1888 -0.0373  0.2371
83158W        W84022   0.676   4.422   5.004  0.0691  0.0927 -0.0689
83159W        W84023   0.523   5.331   6.556  0.0407 -0.0355  0.2881
83160W        W84024  27.939   8.916   3.771  0.0461 -0.2709 -0.0561
83161W        W84025  26.051   5.554   6.879  0.1761 -0.3106  0.2090
83162W        W84026  28.359   4.351   5.839 -0.0100  0.2337  0.1120
83163W        W84027  27.936   6.267   4.604 -0.0088 -0.0510  0.1375
83164W        W84028  27.453   7.369   3.996 -0.1842 -0.2230  0.0715
83165W        W84029  27.686   5.736   6.083 -0.0803 -0.1373 -0.1536
83166W        W84030  23.687   2.690   5.406  0.3027  0.0357  0.3001
83167W        W84031  26.464   8.690   5.269  0.1330  0.2498  0.3413
83168W        W84032   0.061   6.936   4.205 -0.0297 -0.0350  0.0363
83169W        W84033  28.097   5.186   7.153  0.0847 -0.0593  0.0864
83170W        W84034  24.163   7.379   3.676 -0.0081 -0.3473  0.2438
83171W        W84035  23.004   4.938   4.363  0.0810  0.1590  0.2565
83172W        W84036   0.103   5.588   4.787  0.0281  0.1177 -0.0936
83173W        W84037  25.342   2.999   5.798 -0.1728  0.1951  0.2224
83174W        W84038  25.948   4.638   6.244 -0.2946  0.0998  0.0663
83175W        W84039   0.665   4.356   4.054 -0.2131 -0.0460  0.2054
83176W        W84040  27.973   5.549   7.980  0.0167  0.0940  0.3080
83177W        W84041  27.455   4.937   5.995 -0.2526  0.0217 -0.2215
83178W        W84042  25.904   8.709   4.341 -0.0715  0.0919 -0.0056
83179W        W84043  27.503   7.364   1.996  0.1090 -0.0903 -0.1537
83180W        W84044  27.320   7.329   5.329 -0.0691  0.3978 -0.1481
83181W        W84045  28.913   3.950   8.449  0.2985 -0.1802 -0.0020
83182W        W84046  24.254   3.740   8.381  0.0059 -0.3030 -0.1031
83183W        W84047  27.055   3.543   5.313 -0.3767  0.2452 -0.2322
83184W        W84048  26.592   5.009   5.754 -0.0096 -0.2161 -0.1057
83185W        W84049  26.879   4.521   4.559  0.2220  0.2540 -0.1092
83186W        W84050  24.966   5.087   5.233 -0.4728  0.0085  0.1386
83187W        W84051  24.494   3.253   5.457  0.0842 -0.1180 -0.0872
83188W        W84052  25.702   5.680   5.508 -0.1013  0.2061  0.1509
83189W        W84053   0.978   7.253   5.522  0.1541 -0.2590 -0.0510
83190W        W84054  29.021   6.755   5.462  0.0758 -0.0611 -0.1772
83191W        W84055   1.687   6.539   3.594 -0.1546 -0.3458 -0.2444
83192W        W84056  28.333   5.527   5.009  0.1153 -0.1010 -0.1468
83193W        W84057   1.023   2.834   4.656 -0.0628  0.1232 -0.1302
83194W        W84058  25.713   6.733   4.307 -0.2595  0.3238  0.1012
83195W        W84059   0.932   5.232   7.127 -0.4553 -0.0241 -0.1015
83196W        W84060  25.469   5.941   3.772 -0.1628  0.1209  0.3158
83197W        W84061   2.210   4.432   7.018  0.2375 -0.2734  0.1173
83198W        W84062  27.997   4.399   5.551  0.0434  0.2133  0.0812
83199W        W84063  27.830   5.406   5.326  0.4143 -0.3405  0.0209
83200W        W84064  26.462   5.680   6.527  0.0921 -0.1764 -0.3104
83201W        W84065   0.295   5.653   5.681  0.0323 -0.0172  0.1101
83202W        W84066  28.291   3.343   9.399  0.1955 -0.2243  0.4553
83203W        W84067  25.744   6.059   7.191 -0.0989 -0.1034 -0.2027
83204W        W84068  28.405   4.782   8.451  0.3522 -0.1472 -0.1938
83205W        W84069  25.278   6.735   2.500 -0.0254 -0.4501  0.1012
83206W        W84070  24.138   5.518   7.602  0.1655  0.1935 -0.0391
83207W        W84071  29.117   4.288   5.191 -0.2635 -0.0142  0.0299
83208W        W84072  28.783   6.239   7.672 -0.0008  0.0082  0.2634
83209W        W84073  26.895   4.013   7.816 -0.1255 -0.2907 -0.1477
83210W        W84074  28.573   6.250   6.204 -0.0531 -0.0078  0.1789
83211W        W84075  27.821   6.669   6.459  0.0767  0.1666  0.0624
83212W        W84076  25.542   7.944   5.294  0.2535  0.0580  0.1352
83213W        W84077  28.659   6.637   6.486  0.3532 -0.0419 -0.3394
83214W        W84078   0.189   3.259   6.457  0.0406  0.0525  0.2830
83215W        W84079  26.856   7.416   5.597 -0.2123 -0.3747 -0.0027
83216W        W84080  28.648   5.067   5.250  0.0155 -0.0193  0.1563
83217W        W84081  25.751   9.158   3.833  0.1588 -0.0570 -0.1200
83218W        W84082  26.381   5.666   4.791  0.0354  0.0534  0.1487
83219W        W84083   0.824   6.483   5.220  0.2284  0.2371 -0.0655
83220W        W84084  27.403   6.840   4.214  0.5608  0.1295 -0.1345
83221W        W84085  28.687   4.355   7.818 -0.0022 -0.0687  0.2114
83222W        W84086  26.562   5.891   5.260 -0.2703 -0.0559 -0.1491
83223W        W84087  27.587   3.900   2.427 -0.0197  0.1758 -0.1547
83224W        W84088  24.689   6.953  11.506  0.0075 -0.1265 -0.0025
83225W        W84089  26.372   7.583   8.333 -0.0082  0.0832  0.0782
83226W        W84090  27.930   4.630   8.577 -0.1899  0.0227 -0.1093
83227W        W84091  26.595   5.425  10.202  0.0836  0.2673 -0.1186
83228W        W84092  26.142   3.347  10.832 -0.0881  0.3747  0.1338
83229W        W84093  26.880   6.231   7.660  0.0651  0.1298  0.0974
83230W        W84094  24.198   5.564   8.105  0.0051  0.0402  0.2037
83231W        W84095  27.201   8.560   7.562  0.4071 -0.1109  0.1189
83232W        W84096  26.420   8.974  12.590 -0.0344  0.1125  0.4827
83233W        W84097  23.923   4.025   9.449  0.0243  0.0818  0.1650
83234W        W84098  28.661   5.435  10.958  0.3160  0.2663  0.1140
83235W        W84099  25.519   2.599   6.484 -0.0584 -0.2903  0.0717
83236W        W84100  27.558   2.829   8.199  0.0118  0.0025  0.1660
83237W        W84101   2.336   4.207   9.713 -0.1349 -0.0233  0.0993
83238W        W84102  23.975   3.637  11.664 -0.2661  0.1709  0.1017
83239W        W84103  27.242   6.237   9.258  0.2247  0.1390  0.0641
83240W        W84104  26.602   4.680  11.107  0.1965 -0.0374 -0.2625
83241W        W84105  25.008   2.757  12.038 -0.0791 -0.0403 -0.0520
83242W        W84106  27.765   4.767   9.669  0.1720 -0.0582  0.1445
83243W        W84107   1.435   4.378   7.568 -0.1202  0.0377 -0.1687
83244W        W84108  27.902   6.425  10.110  0.2270 -0.1393 -0.0686
83245W        W84109  24.968   4.336   9.544 -0.0416  0.3286 -0.1674
83246W        W84110  25.606   5.042   8.122 -0.0393  0.1166  0.0035
83247W        W84111  26.843   3.972   9.268 -0.0002 -0.3163  0.0459
83248W        W84112  23.460   6.719   8.124 -0.0617 -0.1512  0.1576
83249W        W84113  25.528   6.022  10.019 -0.0132 -0.2253  0.1072
83250W        W84114  26.888   6.027  11.707 -0.1446  0.1612 -0.0838
83251W        W84115  25.162   6.790   9.648  0.1275 -0.0311 -0.0437
83252W        W84116  26.572   7.071   8.064 -0.1971 -0.1161 -0.2647
83253W        W84117  27.430   4.898   8.498 -0.0357  0.0165  0.0179
83254W        W84118  23.981   5.675   8.510  0.0399  0.2552 -0.1034
83255W        W84119  26.593  10.742  10.644 -0.2266  0.1486 -0.1678
83256W        W84120  25.673   5.814   9.406  0.0800  0.1803  0.2021
83257W        W84121  27.502   5.549   9.842  0.1439 -0.3091  0.0433
83258W        W84122  23.528   4.084  10.695 -0.2214  0.0925 -0.3706
83259W        W84123  28.225   7.577  12.878  0.0222 -0.1276  0.0527
83260W        W84124  25.467   4.059   8.216  0.1562  0.0086  0.1097
83261W        W84125  26.788   3.768  10.055 -0.0879  0.3341  0.1433
83262W        W84126  27.999   4.160   8.925  0.1702 -0.0765  0.0485
83263W        W84127  28.474   3.884   7.902 -0.0890 -0.0794 -0.3207
83264W        W84128  27.818   3.766   6.525  0.1913 -0.0683 -0.2995
83265W        W84129  28.863   4.932   9.341 -0.0258  0.0665  0.4015
83266W        W84130  25.556   5.488   9.052 -0.0968  0.1515 -0.0720
83267W        W84131  26.537   4.890   8.105 -0.0581 -0.1667  0.0856
83268W        W84132  23.677   8.524   6.723 -0.0633  0.0145  0.1054
83269W        W84133  24.831   5.797   8.141  0.2094 -0.0361  0.1559
83270W        W84134  25.920   4.381   9.806  0.1216 -0.0763  0.1225
83271W        W84135  27.894   2.053  10.346 -0.1794  0.0716  0.1214
83272W        W84136  26.959   3.302   8.794  0.0377  0.2802 -0.3155
83273W        W84137  27.383   4.104   7.923 -0.3770 -0.2425 -0.0375
83274W        W84138  24.950   5.293   9.859  0.1116  0.0637 -0.0165
83275W        W84139  24.871   4.869   6.298 -0.1272  0.1235  0.0388
83276W        W84140  28.277   7.186  10.081  0.1778  0.0694 -0.1499
83277W        W84141  25.912   3.264   8.884 -0.1961 -0.0324  0.2982
83278W        W84142  28.683   2.957   7.125  0.1591 -0.2195  0.3241
83279W        W84143  25.864   5.919   7.719  0.1026  0.2384 -0.1983
83280W        W84144  24.156   6.480   7.756 -0.2121  0.3224  0.1882
83281W        W84145  28.836   4.797   7.373 -0.0516 -0.0236  0.1166
83282W        W84146  26.596   6.145   9.213  0.2459  0.1194  0.1863
83283W        W84147  25.614   6.187  11.293 -0.1092 -0.1374  0.1576
83284W        W84148  28.767   3.258   8.643  0.3378  0.0127 -0.0256
83285W        W84149  24.764   8.791   8.997  0.0724  0.0733  0.0775
83286W        W84150  27.778   5.680  10.786  0.1778 -0.2021 -0.1431
83287W        W84151  26.923   3.982   8.303  0.0438  0.1049 -0.1164
83288W        W84152  24.684   1.958   8.444 -0.3693  0.2150 -0.2397
83289W        W84153  26.660   2.641  10.016  0.0907  0.0996  0.1369
83290W        W84154  27.954   5.901   4.949  0.0288 -0.1449  0.1817
83291W        W84155  25.761   5.182   5.405  0.4150 -0.1941  0.2337
83292W        W84156  25.879   5.110   9.073  0.1190  0.1663 -0.0302
83293W        W84157  26.195   6.319   8.236  0.4539  0.0946 -0.2024
83294W        W84158  27.877   7.230   7.142  0.0258  0.1576 -0.1792
83295W        W84159  26.251   5.113   7.740  0.1485  0.1923  0.0753
83296W        W84160  28.381   8.202  10.879 -0.1961  0.2731  0.0176
83297W        W84161  25.649   3.934   7.796 -0.0505 -0.0095  0.5366
83298W        W84162  28.997   4.092  10.370 -0.0522 -0.0983 -0.0050
83299W        W84163  27.717   3.975   9.674 -0.1806  0.2445 -0.0155
83300W        W84164  23.656   6.346   7.838 -0.0979  0.1747 -0.1890
83301W        W84165  26.747   4.936  10.184 -0.0302  0.1284  0.0392
83302W        W84166  26.666   4.509   5.978 -0.0077 -0.0161  0.1249
83303W        W84167  27.598   4.970  10.049 -0.0068  0.0084 -0.0737
83304W        W84168  23.265   5.478   7.812 -0.0974 -0.1296 -0.0191
83305W        W84169  27.522   6.421  11.537 -0.0106 -0.1790 -0.1577
83306W        W84170  26.552   1.870  10.573 -0.2259 -0.1519 -0.2494
83307W        W84171  27.640   3.126   8.673  0.1355  0.0357 -0.2297
83308W        W84172   0.352   3.372   9.780  0.1160 -0.0402  0.1225
83309W        W84173  28.215   4.716  10.011 -0.1277 -0.0707  0.1380
83310W        W84174  26.575   6.817  12.679  0.1339 -0.0817 -0.2417
83311W        W84175  26.335   4.039   9.975  0.2665  0.0064  0.3162
83312W        W84176  28.686   5.867  10.362  0.1603  0.1302  0.0716
83313W        W84177  26.719   3.551   7.756  0.0619 -0.0300 -0.0404
83314W        W84178  26.822   5.451  11.494  0.0381 -0.3374  0.1268
83315W        W84179  28.570   7.264  10.527  0.0402 -0.0026  0.1024
83316W        W84180  23.805   6.719  10.989 -0.1662  0.3917 -0.0207
83317W        W84181  27.603   6.491   7.565 -0.0798  0.0322 -0.0280
83318W        W84182  26.644   5.136  12.347  0.1142  0.0672  0.0246
83319W        W84183  27.587   5.887   9.477 -0.1858  0.1893 -0.0094
83320W        W84184   0.689   4.788   7.991 -0.1422  0.2055  0.0497
83321W        W84185  26.765   8.608  12.740 -0.1928 -0.0071  0.0416
83322W        W84186  25.074   2.446   6.268 -0.2262 -0.0605 -0.0361
83323W        W84187   0.655   5.717   7.842  0.0517  0.3081  0.1111
83324W        W84188  28.293   3.904   5.612  0.0397  0.1402 -0.2786
83325W        W84189  22.825   6.177   9.082 -0.0196  0.1852 -0.1993
83326W        W84190  25.382   3.951   9.592 -0.1239 -0.1416 -0.0850
83327W        W84191   1.726   6.910  10.217 -0.0627  0.0911 -0.5113
83328W        W84192  28.553   2.172   9.353  0.2524  0.0624 -0.0214
83329W        W84193  28.932   5.055  10.707 -0.1218  0.2292  0.3484
83330W        W84194  28.051   5.003   7.765 -0.0556 -0.0537  0.1316
83331W        W84195  27.432   8.350  12.261  0.2349  0.0388  0.5057
83332W        W84196  25.523   4.220   6.851  0.2413  0.1519  0.0516
83333W        W84197  24.203   5.460  10.817  0.1604 -0.2551 -0.1509
83334W        W84198  25.333   8.286  11.520  0.0978 -0.2005  0.1818
83335W        W84199  26.932   6.078  10.195  0.3699  0.1542 -0.2723
83336W        W84200  24.397   1.703   9.257 -0.3144  0.0781  0.1254
83337W        W84201  27.162   6.297  11.971 -0.3333  0.0881  0.0734
83338W        W84202   0.593   4.198   7.823 -0.1751 -0.3890 -0.3461
83339W        W84203   0.187   6.159   7.131 -0.1893 -0.1269 -0.1090
83340W        W84204   0.350   2.084  11.394  0.1989 -0.0531  0.2156
83341W        W84205  27.078   5.657   7.719  0.0106  0.1291  0.0298
83342W        W84206  25.750   5.216  10.549  0.1949 -0.3586 -0.1856
83343W        W84207  28.227   5.483   6.214 -0.2649 -0.0096  0.0484
83344W        W84208  28.900   4.212   7.391  0.0459 -0.0805  0.1938
83345W        W84209  25.742   7.482   7.662 -0.2631  0.3675 -0.1126
83346W        W84210  25.808   5.450   8.510  0.0969 -0.3375 -0.0154
83347W        W84211  28.393   5.960   7.335  0.0576  0.1745 -0.0386
83348W        W84212  23.685   6.861  12.308  0.1659  0.4007 -0.2409
83349W        W84213  28.184   8.716   8.282 -0.0176 -0.2239  0.1224
83350W        W84214  25.445   7.114  10.817 -0.1301 -0.1135  0.1446
83351W        W84215   1.361   4.497   9.509  0.1016 -0.0423 -0.2707
83352W        W84216  28.290   9.029  10.797  0.0810 -0.0788  0.5149
83353W        W84217  25.917   6.542  10.153 -0.1693  0.1853  0.1342
83354W        W84218  25.659   8.042  10.808 -0.1889  0.1047  0.2044
83355W        W84219  28.995   5.416  10.345  0.2011 -0.0403  0.0114
83356W        W84220  26.932   4.948   9.212  0.0415 -0.2124 -0.0944
83357W        W84221   1.491   3.315   8.510  0.1473  0.1319  0.0085
83358W        W84222  29.003   5.729  10.003 -0.0318  0.1477 -0.0522
83359W        W84223  26.656   6.137   9.740  0.2051 -0.2422 -0.1539
83360W        W84224  24.846   3.210   9.442 -0.1607 -0.2585 -0.2354
83361W        W84225  27.167   6.900  11.185 -0.0629  0.1620 -0.1307
83362W        W84226  26.838   4.205   9.791  0.2603 -0.3201  0.3467
83363W        W84227  27.559   4.181   8.739  0.4227 -0.2179 -0.1679
83364W        W84228  25.472   1.231   6.650  0.1193 -0.0495  0.0202
83365W        W84229  27.765   4.586   9.053 -0.0317  0.1065  0.0275
83366W        W84230  28.130   4.664   6.822 -0.0123 -0.3052 -0.2046
83367W        W84231  24.029   8.558   5.814 -0.0168 -0.0863  0.0798
83368W        W84232  26.874   7.013  13.176 -0.2496  0.0042 -0.0801
83369W        W84233  27.680   4.532   8.158  0.0997  0.0227  0.0553
83370W        W84234   1.366   3.158   6.871 -0.0972  0.0315 -0.3046
83371W        W84235  28.728   7.035  11.318 -0.1730  0.1777 -0.1460
83372W        W84236  28.310   5.951   7.832  0.2803 -0.0418 -0.1692
83373W        W84237  26.697   4.777   9.652 -0.0897  0.2593  0.3839
83374W        W84238  27.479   7.894  11.203 -0.1780 -0.1844 -0.1015
83375W        W84239  25.847   0.600   8.761 -0.0723 -0.2408 -0.2995
83376W        W84240  24.458   4.126  11.655 -0.4871  0.0661  0.1540
83377W        W84241  25.339   2.035   9.836  0.0296 -0.1618  0.0202
83378W        W84242   0.181   6.206   9.200 -0.1185  0.0915 -0.1956
83379W        W84243  29.126   3.647   8.126 -0.1032  0.0020  0.0693
83380W        W84244  25.496   8.298   9.718  0.2186 -0.1274  0.0646
83381W        W84245  23.837   5.899   7.768 -0.0685 -0.0503  0.1064
83382W        W84246  27.235   5.149   6.766 -0.3309  0.2275  0.2294
83383W        W84247  28.100   3.259   8.470  0.1941  0.1377 -0.0802
83384W        W84248  25.259   2.704   8.912 -0.3291  0.1634 -0.0527
83385W        W84249  27.179   7.804   9.376 -0.0351 -0.0002  0.1832
83386W        W84250  27.227   7.826  12.156  0.2590  0.0307 -0.1171
83387W        W84251  26.470   5.504  10.696  0.2311 -0.1902  0.2253
83388W        W84252  26.279   5.494  11.529  0.1876 -0.3428  0.1997
83389W        W84253  25.918   2.647  11.108  0.1551 -0.0904 -0.1906
83390W        W84254  24.860   3.536   6.872  0.2225  0.2932  0.2624
83391W        W84255  26.301   5.671   7.692  0.0326 -0.2043  0.0433
83392W        W84256  28.302   6.844  10.925 -0.3551 -0.0680  0.2037
83393W        W84257  26.263   4.343   4.106  0.0660  0.0941  0.0085
83394W        W84258  27.016   5.954   8.793 -0.0782  0.1693 -0.1653
83395W        W84259  27.475   4.102   9.186  0.0216  0.3954 -0.2131
83396W        W84260  25.641   4.792   7.193  0.1047 -0.0891  0.1364
83397W        W84261  26.956   6.465   8.840  0.2881  0.0620  0.0377
83398W        W84262  26.784   5.900   7.238  0.0799 -0.1693 -0.1752
83399W        W84263  28.923   2.577   9.478  0.3391 -0.2803 -0.1521
83400W        W84264  24.369   5.940   8.478  0.2186 -0.1138  0.0101
83401W        W84265  23.139   6.044   8.718 -0.0313  0.0546  0.2408
83402W        W84266  23.918   6.957   7.076 -0.3946  0.0410 -0.0758
83403W        W84267  28.796   4.001   9.822  0.0067  0.2281 -0.1442
83404W        W84268  24.027   5.574   7.063  0.0400 -0.1130 -0.0982
83405W        W84269  28.469   5.116   9.043  0.1155  0.1672 -0.0627
83406W        W84270  28.015   6.268   5.395 -0.2387  0.5078 -0.1978
83407W        W84271  24.367   6.555   8.447  0.1991  0.1247 -0.0145
83408W        W84272  28.131   3.580   6.088  0.2888 -0.3393  0.0091
83409W        W84273  26.307   7.397   9.412 -0.1168  0.0643  0.1505
83410W        W84274  26.066   2.288   9.090  0.0085 -0.2538 -0.0087
83411W        W84275  26.292   4.102   7.054  0.0394 -0.1411 -0.3528
83412W        W84276  27.679   3.747  10.177 -0.0330 -0.1980 -0.1764
83413W        W84277  25.171   3.908   7.083 -0.0217  0.6099 -0.2491
83414W        W84278  26.289   4.525   8.539  0.1963 -0.1976  0.0908
83415W        W84279  25.443   8.003   7.384  0.0287  0.2316  0.1912
83416W        W84280  26.068   4.968  10.870 -0.0705 -0.2436  0.1206
83417W        W84281  25.782   2.852   9.612 -0.3105 -0.4225  0.1046
83418W        W84282  27.146   5.257  10.090  0.3899  0.0101 -0.0818
83419W        W84283  25.964   1.281  10.735 -0.2913  0.2303 -0.0449
83420W        W84284  25.452   3.018   7.406 -0.1249  0.1565  0.1757
83421W        W84285  25.771   2.290  11.515  0.1346  0.2557  0.0247
83422W        W84286  25.795   3.382   9.982  0.1423 -0.0427 -0.3091
83423W        W84287  25.250   1.967   8.522 -0.1482 -0.0400 -0.0865
83424W        W84288  23.389   4.678   9.032  0.0291 -0.2437 -0.1311
83425W        W84289  24.905   2.707   8.123  0.3449 -0.2361  0.3082
83426W        W84290   1.780   5.191   7.314  0.2965  0.0367  0.1540
83427W        W84291  28.425   1.865   8.118  0.1979  0.3817  0.0615
83428W        W84292  24.986   6.222   9.902  0.3020 -0.0732 -0.0541
83429W        W84293  23.968   2.918   9.061  0.1357  0.3052  0.0288
83430W        W84294  26.005   5.845  10.710  0.1594 -0.2651  0.0347
83431W        W84295  26.104   3.273  10.374 -0.1180 -0.2765 -0.1964
83432W        W84296  27.590   7.167   8.847 -0.0860 -0.1027 -0.1011
83433W        W84297  25.483   6.291   6.271 -0.1650  0.0103 -0.2253
83434W        W84298  27.289   9.373  12.500 -0.0326  0.1661 -0.0090
83435W        W84299  27.741   3.623   8.728  0.0398  0.1124 -0.1652
83436W        W84300  25.852   6.257   9.677  0.0950  0.2271  0.1051
83437W        W84301   1.005   1.935  12.432 -0.1004 -0.0104  0.0385
83438W        W84302  28.376   4.703   9.442 -0.1411 -0.0297  0.0913
83439W        W84303  27.264   4.609   8.876  0.2315 -0.3867 -0.4339
83440W        W84304   0.885   3.791   4.283  0.0678  0.0063 -0.0528
83441W        W84305   0.755   5.665   9.085  0.0113  0.2707  0.0739
83442W        W84306  27.231   3.851  12.290  0.0911  0.0326  0.0106
83443W        W84307  25.576   5.991  12.008  0.0080 -0.3481 -0.0314
83444W        W84308   1.785   5.661   9.624 -0.3693  0.0531  0.1532
83445W        W84309  25.698   3.342   9.392 -0.2254  0.0269 -0.2217
83446W        W84310  24.346   7.482  11.067  0.1354 -0.0963  0.2454
83447W        W84311  24.051   4.201   9.867 -0.0466 -0.2328 -0.0863
83448W        W84312   1.289   5.398   9.625 -0.1574  0.0145 -0.2666
83449W        W84313  24.904   1.983   8.956 -0.2359  0.1200  0.1001
83450W        W84314  27.225   4.976  10.985  0.1294 -0.0959  0.0737
83451W        W84315  27.167   4.273   6.747 -0.1833 -0.1068 -0.2276
83452W        W84316   0.687   6.140   9.262 -0.0877 -0.2046  0.0707
83453W        W84317  29.139   5.558  11.485 -0.1784 -0.1388 -0.1350
83454W        W84318  26.903   4.732  10.648  0.0588 -0.4664  0.0670
83455W        W84319  27.685   5.213  11.086  0.1372  0.3474 -0.2424
83456W        W84320  26.092   5.473   9.316  0.2799 -0.0883 -0.1838
83457W        W84321  28.319   6.019   8.834  0.1751  0.0762 -0.0385
83458W        W84322  25.395   3.206   9.767  0.0296  0.0125 -0.2474
83459W        W84323  25.405   2.700   7.826  0.0165  0.2973 -0.0328
83460W        W84324   0.644   5.272   9.559 -0.1527 -0.0247  0.1052
83461W        W84325  26.231   3.848  10.458  0.0782 -0.2672  0.0886
83462W        W84326  26.207   8.562   9.053  0.0066  0.2450 -0.0195
83463W        W84327  25.209   6.213  10.354 -0.1339 -0.1304  0.0091
83464W        W84328  27.557   3.670   7.854 -0.3523  0.1559 -0.1690
83465W        W84329  25.679   5.028   7.621  0.2064  0.2634 -0.2940
83466W        W84330  25.531   5.080  10.996 -0.0466 -0.1469 -0.0658
83467W        W84331  25.651   4.709   9.400 -0.1328  0.1135  0.0778
83468W        W84332  26.588   0.591   7.259  0.0295  0.3238  0.1614
83469W        W84333  27.087   5.207   5.478 -0.1245  0.2802 -0.0772
83470W        W84334  25.682   3.165   8.471  0.0410 -0.1386 -0.1386
83471W        W84335  26.318   5.793  12.578 -0.0268 -0.2881 -0.0310
83472W        W84336  28.548   4.876   7.970 -0.0665 -0.0612 -0.1780
83473W        W84337  25.020   3.442   7.544 -0.0780 -0.1193  0.2824
83474W        W84338  24.339   5.899   6.800 -0.0138 -0.1787  0.1780
83475W        W84339  28.826   5.474  11.856  0.1756 -0.0435  0.2923
83476W        W84340  27.098   8.243  11.840  0.1075  0.0874  0.1267
83477W        W84341  27.715   6.021  11.247 -0.1600  0.1105  0.0131
83478W        W84342  25.820   7.317   6.259  0.2537 -0.3257 -0.0689
83479W        W84343   0.829   6.711   7.001  0.1981  0.3692 -0.1211
83480W        W84344  26.779   3.772   8.775 -0.1222  0.0082 -0.5993
83481W        W84345  26.187   4.623  11.827  0.1484 -0.2296  0.0501
83482W        W84346   0.191   5.146   9.274 -0.1102 -0.1855 -0.2367
83483W        W84347  28.326   3.719   6.531  0.0721  0.2006 -0.3448
83484W        W84348  25.759   4.234   9.247 -0.0009 -0.0260  0.1628
83485W        W84349  27.505   3.556   9.501 -0.1608 -0.1719 -0.1103
83486W        W84350   1.034   7.335   8.911  0.1120  0.1916 -0.0390
83487W        W84351  25.350   4.877  11.371 -0.0453 -0.3034  0.2131
83488W        W84352  26.989   8.134   8.954  0.0600  0.2526  0.1996
83489W        W84353  26.218   8.166  10.176 -0.2873  0.0810 -0.1632
83490W        W84354  25.578   3.542   8.172  0.0539 -0.1309  0.0391
83491W        W84355   0.486   4.126   9.112  0.0758 -0.0648 -0.3066
83492W        W84356  27.709   6.000   9.996  0.1501 -0.1213 -0.1667
83493W        W84357   2.455   8.198   9.981  0.2904 -0.0341  0.1042
83494W        W84358  26.033   3.534   7.865 -0.1775  0.1500 -0.0876
83495W        W84359  27.812   8.393   9.705  0.0547 -0.0739 -0.0963
83496W        W84360  25.613   4.619   8.749 -0.1474 -0.1242 -0.0036
83497W        W84361  25.242   3.509   9.398  0.0936  0.3913  0.1353
83498W        W84362   0.138   7.588  10.734 -0.0042  0.0123 -0.0077
83499W        W84363   0.509   3.269  12.054 -0.0130 -0.0841  0.3312
83500W        W84364  25.765   4.432  11.682 -0.0257 -0.2150 -0.1583
83501W        W84365  25.667   7.069   9.074 -0.0261  0.0734  0.1099
83502W        W84366  24.704   4.245   7.674 -0.2186 -0.0644 -0.2868
83503W        W84367  25.474   7.563   8.976 -0.0468  0.2711  0.0300
83504W        W84368  26.477   5.838  10.308  0.1052 -0.3490  0.1127
83505W        W84369   0.938   4.484   7.547  0.0671  0.1172  0.0486
83506W        W84370  24.493   4.355   8.904  0.3525 -0.0092 -0.0866
83507W        W84371  26.795   4.612   8.576 -0.0572  0.2808 -0.0241
83508W        W84372  27.509   3.558   5.615  0.1550 -0.0997  0.0003
83509W        W84373  25.266   7.385  12.026  0.2961  0.0145 -0.2271
83510W        W84374  28.395   7.715  10.652 -0.0194  0.1889  0.0908
83511W        W84375  24.776   6.248  11.752 -0.3165  0.1549 -0.0757
83512W        W84376   0.042   2.359   6.056 -0.4944  0.2215 -0.0734
83513W        W84377  25.770   3.115   7.947  0.1097 -0.3094 -0.3240
83514W        W84378  27.911   3.481   9.749 -0.0862  0.1387  0.3396
83515W        W84379  26.515   4.745   9.118 -0.1724 -0.0619  0.0272
83516W        W84380  27.047   8.891   8.616  0.0594 -0.2954  0.1160
83517W        W84381  25.232   5.822   6.330 -0.1298  0.1982 -0.2075
83518W        W84382  27.219   3.612   9.064 -0.0015  0.0310 -0.1296
83519W        W84383  25.769   3.728   9.138  0.2952  0.1277  0.0165
83520W        W84384   0.078   4.806   8.688 -0.0590 -0.1060  0.2524
83521W        W84385  28.720   3.059   9.624  0.0799 -0.0749  0.0530
83522W        W84386  22.393   9.344   9.798 -0.1120  0.0618 -0.2457
83523W        W84387  25.312   5.511   8.361 -0.0413 -0.2672 -0.3148
83524W        W84388  24.745   3.662  13.590 -0.0027 -0.2610 -0.1482
83525W        W84389  26.888   5.591  11.006  0.1916  0.1248 -0.3674
83526W        W84390  29.090   6.603   9.383 -0.1020  0.0025 -0.1421
83527W        W84391  27.202   4.464   6.185 -0.0014 -0.3959 -0.0544
83528W        W84392  26.460   5.373   7.240  0.3489  0.1008  0.1112
83529W        W84393   0.559   7.804  11.222  0.1690  0.2203  0.0029
83530W        W84394  24.925   2.947   7.625 -0.0907  0.1832 -0.3136
83531W        W84395  27.401   4.380   9.692 -0.1688  0.0421  0.1053
83532W        W84396  25.472   4.740  11.891 -0.0036  0.1227 -0.0846
83533W        W84397  25.264   4.494  10.375  0.2322  0.0007 -0.2892
83534W        W84398  24.971   5.355  10.365  0.5737 -0.0734  0.1278
83535W        W84399  26.050   4.204   7.764 -0.1022 -0.0577 -0.1640
83536W        W84400  27.203   6.697   9.488 -0.3859 -0.2358 -0.1033
83537W        W84401  25.441   6.698  10.425  0.0626 -0.2672  0.0041
83538W        W84402  25.807   8.327   9.277 -0.2082  0.2378  0.1103
83539W        W84403  25.666   4.754   9.998 -0.1519 -0.2014  0.0245
83540W        W84404  26.605   3.513   8.327  0.2081  0.0060 -0.2373
83541W        W84405  25.005   5.616   7.685 -0.1535  0.1580  0.1977
83542W        W84406  26.659   5.466   8.009 -0.1645  0.0835 -0.0501
83543W        W84407  26.653   4.867   7.530 -0.1338 -0.2807 -0.1550
83544W        W84408  28.800   3.908   6.967 -0.0913  0.3353 -0.0591
83545W        W84409  25.978   4.958   8.574  0.3457  0.2894  0.3561
83546W        W84410  27.606   5.725   8.958  0.0611 -0.3444  0.3232
83547W        W84411  25.404   6.690   8.658 -0.2807  0.0622  0.3577
83548W        W84412  26.046   4.351  10.315  0.0347 -0.1253 -0.2975
83549W        W84413  25.352   4.413   7.393 -0.0067 -0.0782 -0.0043
83550W        W84414  27.269   5.508   8.594 -0.1896 -0.1385 -0.0707
83551W        W84415  28.512   4.340   6.588  0.1032  0.1530  0.0188
83552W        W84416  26.125   7.590   7.291  0.0810  0.2211 -0.1731
83553W        W84417  27.777   3.394  10.635 -0.1096 -0.4359  0.0598
83554W        W84418  28.915   2.834   8.881 -0.1846 -0.1823  0.0489
83555W        W84419   1.058   6.027  10.286  0.1235  0.0081  0.1149
83556W        W84420  27.069   7.187   9.800  0.0790  0.0132  0.4493
83557W        W84421  28.073   7.171  10.637  0.1810  0.0535 -0.0129
83558W        W84422  26.826   6.480  10.444 -0.1264  0.0480 -0.1834
83559W        W84423  27.966   6.619  10.667  0.1016 -0.3225  0.0329
83560W        W84424  24.498   5.410   6.708 -0.0598 -0.1595 -0.2157
83561W        W84425  26.297   3.537  10.041 -0.0754 -0.3364 -0.0201
83562W        W84426  26.179   3.460   9.345  0.4658 -0.1525 -0.1293
83563W        W84427  26.172   6.332   7.076  0.1453 -0.2442 -0.3295
83564W        W84428  26.020   1.907   9.498 -0.1127 -0.2202  0.2075
83565W        W84429  24.838   3.019   6.698 -0.0235 -0.0861 -0.1374
83566W        W84430  26.723   7.100   6.488  0.0140 -0.3082  0.1181
83567W        W84431  27.401   4.942  10.524 -0.2200  0.0708 -0.3011
83568W        W84432  21.799   5.402   9.114 -0.1459 -0.3192 -0.4072
83569W        W84433  26.012   5.840   8.913 -0.0051  0.0846  0.1068
83570W        W84434  24.655   6.195  10.440 -0.3485  0.3626  0.3413
83571W        W84435  26.085   3.536  11.326 -0.2634 -0.1482  0.0632
83572W        W84436  27.952   5.673   6.590  0.0603 -0.0086 -0.1586
83573W        W84437   0.301   5.175  10.262 -0.1458  0.0152  0.0092
83574W        W84438  26.029   4.178   8.798 -0.1490  0.2468 -0.0105
83575W        W84439   0.025   7.821   8.313  0.0760 -0.1567  0.0505
83576W        W84440   0.326   3.799   7.771 -0.0869 -0.1425  0.3863
83577W        W84441  24.592   6.068   9.259  0.2440 -0.1625  0.1445
83578W        W84442  28.493   3.517   6.983 -0.0103 -0.1780 -0.0784
83579W        W84443  23.259   6.950   8.524 -0.0586 -0.2326  0.0299
83580W        W84444  24.431   5.465   9.891 -0.2177 -0.2269  0.1770
83581W        W84445  26.097   5.428  10.308 -0.0301  0.2160 -0.2706
83582W        W84446  24.472   5.942   9.936  0.0231  0.1597 -0.2455
83583W        W84447  27.300   6.088   7.364 -0.1849 -0.0588  0.0557
83584W        W84448   2.051   1.262  10.916  0.1691  0.2572 -0.0935
83585W        W84449  28.727   5.793   8.087  0.0648 -0.2995 -0.0620
83586W        W84450  27.056   3.846   6.980 -0.1731 -0.0677  0.4333
83587W        W84451  24.988   7.505   9.045  0.0510  0.2826 -0.3757
83588W        W84452  28.026   6.653   9.612  0.0807  0.0607  0.1878
83589W        W84453   0.894   6.417  10.538  0.0852 -0.0931 -0.2736
83590W        W84454  27.012   5.856   8.314  0.1433 -0.0178 -0.0177
83591W        W84455  27.319   3.937   6.034  0.2084 -0.0448 -0.1421
83592W        W84456   0.868   5.784   8.299 -0.3204 -0.0094  0.1328
83593W        W84457  28.093   6.622   4.953  0.2655  0.0161  0.0119
83594W        W84458  28.939   4.587   8.269  0.1456 -0.0675  0.1911
83595W        W84459  26.975   5.627   9.870 -0.0384 -0.0838  0.1281
83596W        W84460   0.152   5.346  10.781 -0.5941 -0.1684  0.0643
83597W        W84461  25.551   5.668  10.390 -0.0725  0.1261 -0.0363
83598W        W84462  26.562   3.703   9.582  0.0199 -0.0976  0.1649
83599W        W84463  24.725   4.819   7.653  0.2448  0.4037  0.0070
83600W        W84464  27.131   7.356  11.978  0.0217 -0.0242 -0.3644
83601W        W84465  24.222   6.251  10.203  0.2790 -0.1604 -0.0641
83602W        W84466  26.189   3.977   9.262 -0.0103 -0.1920 -0.1955
83603W        W84467   0.398   4.738  11.409  0.0358  0.0569 -0.0635
83604W        W84468  23.097   5.751   7.327  0.0690 -0.3359 -0.0555
83605W        W84469  27.311   5.548  11.231  0.1183  0.3616  0.1473
83606W        W84470  27.634   4.334  10.401  0.3198 -0.2579  0.1568
83607W        W84471   0.285   8.758  12.913  0.0267 -0.2015  0.0282
83608W        W84472  26.381   4.542   9.997  0.1760 -0.0801 -0.0363
83609W        W84473  27.075   6.807  11.918  0.0436 -0.0741 -0.0392
83610W        W84474  26.167   5.923   9.490 -0.0829  0.0886  0.0602
83611W        W84475  23.027   7.910   8.843  0.0699  0.0277 -0.2051
83612W        W84476  27.427   6.692   9.044  0.2787 -0.1108  0.0683
83613W        W84477  28.256   5.378  12.714  0.2739  0.4336  0.0732
83614W        W84478  25.210   6.769  11.353 -0.0095  0.0452 -0.0842
83615W        W84479   0.067   7.119  12.095  0.3582 -0.2585 -0.1810
83616W        W84480  27.319   8.462   8.564 -0.2665 -0.0179  0.0198
83617W        W84481  25.589   4.162  10.618 -0.3379 -0.1409 -0.3980
83618W        W84482  27.017   4.792   8.181 -0.0271 -0.1940 -0.1549
83619W        W84483  26.747   6.640   9.304  0.0814 -0.0006  0.0843
83620W        W84484  27.342   5.942  10.733  0.2457 -0.1813 -0.0879
83621W        W84485  25.125   5.840   9.142  0.1595  0.1160  0.3060
83622W        W84486  26.618   6.557   8.074 -0.0158  0.0320 -0.1516
83623W        W84487  24.206   7.459  15.758 -0.2965 -0.1126  0.3428
83624W        W84488  25.669   6.445  12.195  0.2085 -0.2165  0.0711
83625W        W84489  26.606   6.981   9.651 -0.1846 -0.0146 -0.0974
83626W        W84490  26.683   5.968  15.456  0.0074 -0.0694 -0.1178
83627W        W84491  26.249   8.084   9.359  0.0145 -0.0866  0.3229
83628W        W84492  26.084   5.521  11.070 -0.1580  0.0297 -0.0818
83629W        W84493  27.528   7.568  12.985 -0.1454 -0.1250 -0.1382
83630W        W84494  24.957   4.579  12.185  0.1766 -0.3161  0.4377
83631W        W84495  27.446   9.356  16.249 -0.1498 -0.2265  0.0966
83632W        W84496  25.632   5.679  16.089 -0.5284 -0.3215 -0.3071
83633W        W84497  26.488   5.214  13.585 -0.1330  0.1384  0.0055
83634W        W84498  28.535   5.321  10.469 -0.4977  0.0522  0.0517
83635W        W84499  28.135   6.118  10.914 -0.0795 -0.4640 -0.0287
83636W        W84500  27.937   2.537  12.772 -0.0823 -0.1326 -0.1170
83637W        W84501  24.489   3.451  11.986 -0.0328 -0.3195 -0.2858
83638W        W84502  27.282   5.794  17.342  0.3096  0.2247  0.1109
83639W        W84503  25.301   8.192  12.287  0.1656 -0.6202 -0.2436
83640W        W84504  27.579   6.033  11.983 -0.2054 -0.2644  0.1612
83641W        W84505  26.790   4.486  14.333 -0.3109  0.3894 -0.0030
83642W        W84506   1.198   6.235  13.465  0.0636  0.0808  0.0545
83643W        W84507  28.798   5.662  13.225  0.1841  0.1003 -0.0853
83644W        W84508  25.616   6.584  14.622  0.2050  0.1279  0.1286
83645W        W84509  26.107   8.655  13.514 -0.3931 -0.0739 -0.1514
83646W        W84510  26.497   4.679  16.173 -0.0400 -0.1710 -0.0531
83647W        W84511  25.365   7.045  13.515  0.3963 -0.2525  0.0751
83648W        W84512  25.208   3.489  13.528  0.0379 -0.4475  0.2756
83649W        W84513  28.036   5.799  11.981  0.1466  0.0945  0.3574
83650W        W84514  25.475   4.347  13.408  0.3682  0.0536  0.1620
83651W        W84515  28.123   4.118  13.792 -0.0064 -0.1860 -0.1515
83652W        W84516   0.958   5.600  11.078 -0.0945 -0.2971  0.1061
83653W        W84517  25.352   8.243  13.061 -0.3076  0.1021 -0.2655
83654W        W84518   2.206   6.341  12.545  0.3748 -0.0611  0.0532
83655W        W84519  27.206   4.421  14.018 -0.0447 -0.1267  0.2295
83656W        W84520  25.878   4.752  12.655 -0.0737 -0.0571 -0.0702
83657W        W84521  25.275   6.720  17.009 -0.0984  0.2617  0.2628
83658W        W84522  27.041   8.272  14.768  0.1854 -0.1059 -0.2009
83659W        W84523  24.987   2.459  13.775  0.0933  0.2470 -0.0319
83660W        W84524  26.851   7.747  14.300 -0.2861  0.0793  0.0717
83661W        W84525   1.801   5.414  11.095 -0.1781  0.0456 -0.1142
83662W        W84526   1.067   4.490  11.574  0.0409 -0.2264  0.0522
83663W        W84527  27.049   4.236  10.691 -0.2908 -0.1934  0.0865
83664W        W84528  28.540   5.754  12.669 -0.1082  0.0210  0.1140
83665W        W84529  26.897   8.105  13.931 -0.0042  0.1307 -0.2189
83666W        W84530  26.695   8.330  10.483  0.0576  0.1391  0.0602
83667W        W84531  25.887   7.598   8.589 -0.1498 -0.1822  0.3629
83668W        W84532  23.793   9.936   9.398 -0.0497  0.2797  0.2528
83669W        W84533  26.223   3.703  14.003 -0.2568 -0.1185  0.2263
83670W        W84534  28.063   4.150  14.343  0.0985 -0.3306 -0.2510
83671W        W84535  25.562   8.666  13.269 -0.0971 -0.1942 -0.2143
83672W        W84536  26.809   4.100  11.203  0.1337  0.2539  0.2094
83673W        W84537  28.489   7.671  14.264  0.0763  0.1090 -0.1410
83674W        W84538  26.257   3.640  13.467  0.0410 -0.3338  0.0008
83675W        W84539  25.615   6.572  12.678 -0.0154 -0.0531  0.4203
83676W        W84540  28.632   6.884  13.640  0.1699  0.1257  0.1553
83677W        W84541  26.784   4.408  13.678  0.3640 -0.0213 -0.0407
83678W        W84542  23.798   5.972  11.147  0.1310  0.0235 -0.1464
83679W        W84543  27.668   4.524  13.793 -0.0364 -0.0648  0.1871
83680W        W84544  27.833   5.057  14.304  0.0559  0.0444  0.0140
83681W        W84545  24.552   6.931  14.652  0.0216 -0.0591 -0.2636
83682W        W84546  26.153  10.040  11.137 -0.2460 -0.0379 -0.2075
83683W        W84547  27.509   3.239  12.735 -0.1218  0.0615  0.2829
83684W        W84548  23.905   4.019  12.448  0.0407 -0.4162  0.3954
83685W        W84549  24.930   6.158  18.037  0.0306 -0.1536  0.3262
83686W        W84550  28.120   4.039  13.317 -0.1821 -0.0774 -0.0120
83687W        W84551  28.405   3.257  13.867  0.2332 -0.0553 -0.3188
83688W        W84552   0.935   4.112  12.137 -0.2064  0.0338 -0.0943
83689W        W84553  25.793   7.406   9.976 -0.0833 -0.0698  0.1403
83690W        W84554  26.932   7.525  12.483 -0.1951 -0.0971  0.1349
83691W        W84555  23.687   6.922  11.463 -0.1437  0.2776 -0.0691
83692W        W84556  27.154   6.575  13.296  0.0078 -0.2309  0.0945
83693W        W84557  27.430   5.020  12.547  0.0397  0.1728 -0.1299
83694W        W84558   0.922   6.263  12.848  0.1850 -0.0057  0.1024
83695W        W84559   0.447  11.119  11.967 -0.1966  0.3137 -0.3300
83696W        W84560   0.366   5.723  10.132  0.0496 -0.0073 -0.1530
83697W        W84561   0.790   4.662  12.763  0.1576 -0.0637  0.0292
83698W        W84562  27.511   4.966  15.318  0.0261  0.1708 -0.1820
83699W        W84563  27.412   7.733  10.653  0.1504 -0.1690  0.1415
83700W        W84564  27.644   7.371  14.327 -0.1189 -0.3649  0.2103
83701W        W84565  26.130   6.542  13.664 -0.0579  0.2005 -0.1491
83702W        W84566  27.414   6.983  12.250  0.0530 -0.1159 -0.4158
83703W        W84567  25.675   5.292  14.032 -0.4782 -0.2054  0.0317
83704W        W84568  23.932   4.032  17.266  0.0859 -0.2149  0.5591
83705W        W84569  26.414   3.215  13.143  0.0101  0.1339 -0.1979
83706W        W84570  24.806   2.873  12.996  0.1192 -0.1880  0.2247
83707W        W84571  26.040   3.651  14.550 -0.0473  0.0007  0.1915
83708W        W84572   0.578   3.826  10.428  0.1602  0.2692  0.0718
83709W        W84573  28.089   6.139  15.135 -0.2303  0.0266  0.3102
83710W        W84574  25.769   4.884  15.136  0.0579 -0.4283 -0.1894
83711W        W84575  27.668   8.652  12.904 -0.3157  0.0379  0.0327
83712W        W84576  27.760   3.089  13.387 -0.0117  0.1882 -0.0035
83713W        W84577   0.982   4.405  13.519  0.1882 -0.1511  0.1608
83714W        W84578   0.265   5.827  12.319  0.3494  0.2469  0.3080
83715W        W84579  25.757   5.980  13.105  0.0803  0.0185  0.0007
83716W        W84580  27.528   4.204  10.876  0.0054 -0.0145  0.3839
83717W        W84581  28.387   4.720  10.504 -0.2059  0.2804  0.4019
83718W        W84582  25.832   4.517  12.154 -0.0706 -0.2985 -0.2099
83719W        W84583  28.288   5.703  10.669  0.1726 -0.0803  0.0651
83720W        W84584  24.002   5.440  12.750  0.0625  0.0850 -0.1582
83721W        W84585  27.053   4.172   8.816  0.0667  0.0667  0.0071
83722W        W84586   0.238   2.984  10.053 -0.0359  0.0238  0.0497
83723W        W84587  27.648   7.470  11.935  0.0609  0.0759  0.0386
83724W        W84588  24.280   9.223  10.411  0.0980 -0.3563  0.2321
83725W        W84589   0.716   4.556   9.228 -0.3512  0.0058  0.1794
83726W        W84590  28.588   6.604  12.803  0.2237 -0.2672 -0.1487
83727W        W84591   1.808   5.691  13.595 -0.0027  0.3028  0.0798
83728W        W84592  27.559   4.194  12.576  0.3229 -0.0186 -0.0779
83729W        W84593  27.539   4.619  12.877 -0.0593 -0.0569 -0.0387
83730W        W84594  28.233   6.516  14.613 -0.1218 -0.4388 -0.1379
83731W        W84595  27.419   5.793  13.154  0.0053  0.3765  0.0386
83732W        W84596  26.699   4.686  12.053  0.2660  0.0684 -0.0963
83733W        W84597  25.273   6.713  13.082  0.0255  0.0618 -0.2214
83734W        W84598  25.954   7.939  14.817 -0.0012 -0.1745 -0.1057
83735W        W84599  26.258   6.272  10.477 -0.1152  0.0125 -0.3161
83736W        W84600  24.037   7.893  15.978  0.1191 -0.0767 -0.2155
83737W        W84601   1.480   6.452  10.376  0.2142 -0.0350  0.1124
83738W        W84602  28.714   8.110  14.755  0.0986 -0.0667 -0.4321
83739W        W84603   0.883   3.496  11.781  0.1270  0.1891 -0.1778
83740W        W84604  26.739   8.360  16.085  0.1911 -0.2951 -0.1446
83741W        W84605  26.821   5.953  13.215  0.0211  0.0174 -0.0212
83742W        W84606  27.712   5.446  10.281  0.0625 -0.4006  0.1891
83743W        W84607  25.997   4.348  10.859 -0.3131 -0.2053  0.0729
83744W        W84608  28.296   8.702  12.266 -0.2340  0.2744 -0.1475
83745W        W84609  27.014   8.063  11.353 -0.0864  0.2432  0.0358
83746W        W84610   1.363   6.332  11.857  0.2222  0.2928 -0.0443
83747W        W84611  26.958   8.322  12.368  0.0847  0.1405 -0.1706
83748W        W84612   1.608   5.934  10.483  0.2302  0.2614 -0.0413
83749W        W84613  26.994   3.454  13.739 -0.1047  0.0421  0.2300
83750W        W84614   0.188   5.472  12.011 -0.0971  0.1377  0.1360
83751W        W84615  27.580   6.639  13.585 -0.0329  0.1150  0.1555
83752W        W84616  26.657   5.718   9.492  0.0424  0.0848  0.2308
83753W        W84617  27.342   6.600  16.286 -0.2128  0.2436  0.2881
83754W        W84618   1.067   3.479  13.718 -0.0334 -0.1612 -0.0025
83755W        W84619  27.033   7.995  15.227  0.1133  0.0475 -0.0950
83756W        W84620   0.048   5.073  11.170 -0.0906 -0.0516 -0.0552
83757W        W84621  28.433   5.508  12.207 -0.0236  0.3919  0.0982
83758W        W84622  25.941   4.025  14.232  0.1439  0.3399  0.4442
83759W        W84623  26.698   7.033  11.768 -0.1591  0.2253 -0.2247
83760W        W84624   0.018   4.585  13.988  0.0807  0.0126  0.1843
83761W        W84625   3.124   4.190  12.935  0.0306  0.1472 -0.0215
83762W        W84626  27.316   9.454  12.973  0.0107  0.0601  0.0204
83763W        W84627  26.015   3.261  13.668  0.2837 -0.2118  0.0421
83764W        W84628  27.176   3.953  13.640 -0.1150  0.2079  0.0982
83765W        W84629  23.835   9.205  10.641 -0.3741 -0.3842  0.0793
83766W        W84630  24.468   2.643  11.322 -0.4567 -0.0849 -0.2777
83767W        W84631  26.818   5.472  13.896  0.2165 -0.1379 -0.3756
83768W        W84632  24.966   5.494  11.683 -0.2262  0.0161  0.1036
83769W        W84633   0.139   3.774  10.030 -0.1436 -0.1477 -0.1249
83770W        W84634  28.096   8.827  13.272  0.0995  0.0741  0.0295
83771W        W84635  26.968  10.433  10.721 -0.2000 -0.1908 -0.5332
83772W        W84636  27.214   8.084  13.408 -0.3129  0.2868  0.0101
83773W        W84637  28.049   9.557  13.948 -0.0976  0.4069 -0.1565
83774W        W84638  24.508   3.370  10.671  0.1655  0.4196  0.4253
83775W        W84639  26.381   9.576  12.479 -0.2369 -0.0177  0.0614
83776W        W84640  25.390   3.286   8.943 -0.1481 -0.0098  0.1113
83777W        W84641  28.355   4.431  13.027 -0.1277  0.2987 -0.1765
83778W        W84642  26.567   4.105  12.798 -0.0305  0.0385  0.0020
83779W        W84643  25.918   6.113  13.542  0.1419  0.1047 -0.0447
83780W        W84644  28.286   3.842  12.154  0.2225 -0.0056  0.1761
83781W        W84645  27.327   5.739  10.259  0.0808 -0.2047 -0.2061
83782W        W84646  26.723   3.895  10.707  0.4264  0.0448  0.2525
83783W        W84647  29.063   3.283  12.104 -0.1158 -0.1980 -0.1042
83784W        W84648  25.760   5.748  14.899 -0.0584  0.0786  0.1043
83785W        W84649  25.700   4.850  13.339 -0.1551  0.5752 -0.0077
83786W        W84650  26.217   7.359  15.353  0.3895  0.0319 -0.0565
83787W        W84651  28.794   3.811  12.691  0.1250  0.0654 -0.1338
83788W        W84652  26.133   2.261  11.917 -0.3411 -0.1770 -0.0040
83789W        W84653  26.745   2.513  14.062 -0.1321  0.1411 -0.0220
83790W        W84654  24.605   7.027  14.107  0.0368  0.3162 -0.0894
83791W        W84655  27.172   6.073  11.196 -0.0079  0.0626  0.0433
83792W        W84656  23.934   6.967  11.864 -0.0487  0.0389  0.2444
83793W        W84657  27.769   9.943  12.171  0.3551 -0.2913  0.0289
83794W        W84658  28.848   5.391  12.830 -0.1652  0.1106 -0.0944
83795W        W84659  27.222   4.470  13.445  0.1268 -0.1614  0.3049
83796W        W84660  25.799   6.663  11.503 -0.1215 -0.1132  0.0683
83797W        W84661  28.122   4.794  12.751 -0.1400  0.0304  0.0729
83798W        W84662   1.746   3.709  11.883 -0.1361 -0.1937  0.1577
83799W        W84663  26.127   6.554  12.973  0.0513 -0.1304  0.4363
83800W        W84664  26.194   9.145  13.433  0.2002  0.2438 -0.0138
83801W        W84665  24.740   8.400  12.438  0.1274 -0.0551 -0.0745
83802W        W84666  26.258   5.284  12.624  0.0089  0.1759 -0.1228
83803W        W84667  25.562   7.561  10.517  0.0519 -0.0335  0.0214
83804W        W84668   2.254   7.841  11.554 -0.2665  0.0219  0.2108
83805W        W84669  28.554   5.089  11.360 -0.2097  0.1446 -0.0936
83806W        W84670  27.734   5.387  13.349  0.0692 -0.0181 -0.2419
83807W        W84671  27.681   3.755  11.480 -0.1441  0.0510 -0.0172
83808W        W84672   1.738   3.654   9.906 -0.2628 -0.2575 -0.1418
83809W        W84673  28.704   4.674  11.114  0.0498  0.2075 -0.1289
83810W        W84674  23.581   6.265  13.081 -0.1774  0.1074  0.0498
83811W        W84675  27.008   7.729  16.985 -0.1334  0.0559  0.2003
83812W        W84676  26.964   5.109  11.937  0.3144 -0.3216 -0.0194
83813W        W84677  27.750   4.646  12.425  0.0624 -0.0770 -0.0213
83814W        W84678  24.034   7.267  11.460  0.2476  0.2062  0.0174
83815W        W84679  26.959   4.887  14.040 -0.2970 -0.0044 -0.0950
83816W        W84680  24.866   4.439  14.479 -0.1243  0.2014  0.2519
83817W        W84681   0.240   4.548  13.005  0.1147 -0.1425  0.0137
83818W        W84682  26.841   4.187  12.331  0.2587  0.3248 -0.0567
83819W        W84683  27.823   2.878  11.914 -0.1127 -0.1088  0.2665
83820W        W84684  26.829   3.470  13.269  0.2640  0.0713 -0.0238
83821W        W84685  27.453   4.863  14.056  0.2013 -0.0758  0.3328
83822W        W84686   0.303   4.273  12.281 -0.2693  0.1937 -0.0391
83823W        W84687  25.482   5.423  13.439 -0.1879 -0.3546  0.0307
83824W        W84688  27.889   5.129  12.343 -0.0517 -0.0545 -0.1142
83825W        W84689  29.067   7.275  12.730 -0.2881 -0.1826 -0.2181
83826W        W84690  26.141   5.247  14.501 -0.1241 -0.2201 -0.3041
83827W        W84691   0.179   4.765  13.448  0.0120 -0.2154 -0.0600
83828W        W84692  24.787   5.490  12.611  0.3449 -0.0146  0.1629
83829W        W84693  26.760   6.397  16.788  0.2085 -0.0572  0.1523
83830W        W84694  25.231   4.851  14.746 -0.0275 -0.1912  0.2443
83831W        W84695  27.671   8.528  13.473 -0.0585 -0.1828 -0.0388
83832W        W84696  25.755   6.191  10.431 -0.3295  0.0990 -0.1467
83833W        W84697  24.100   5.274  11.783 -0.1423  0.0397  0.0012
83834W        W84698  24.396   6.572  15.734  0.1715  0.0828  0.2188
83835W        W84699   0.414   5.251  11.571 -0.1602 -0.1376 -0.0853
83836W        W84700  26.952   3.011  13.444  0.0396  0.4024  0.4164
83837W        W84701   0.708   3.422  10.751  0.1981  0.0999 -0.1777
83838W        W84702   3.326   5.840  12.466 -0.2100 -0.1783 -0.0534
83839W        W84703  26.989   7.924  10.315  0.1572  0.0409  0.0486
83840W        W84704   0.596   7.298  13.517  0.1007 -0.4192 -0.0436
83841W        W84705  27.250   5.992  15.469  0.2081  0.0938 -0.0076
83842W        W84706  24.369   7.559  14.729  0.1901  0.3096 -0.2281
83843W        W84707  29.039   3.857  14.911  0.0133 -0.2668  0.1408
83844W        W84708  27.807   5.138  12.904 -0.1926  0.3057  0.2167
83845W        W84709  27.047   6.454  15.833  0.4316  0.0080 -0.1822
83846W        W84710  25.023   3.969  11.492  0.1131 -0.1408  0.1033
83847W        W84711   1.012   7.190  12.566  0.1363 -0.1741 -0.1824
83848W        W84712  23.934   5.570  14.381  0.1219 -0.1535 -0.1327
83849W        W84713  26.217   7.379  13.633 -0.2334  0.0066 -0.0775
83850W        W84714  28.854   3.791  12.168 -0.3723  0.1271 -0.1848
83851W        W84715  27.549   7.305  10.554  0.0596 -0.3046  0.1670
83852W        W84716   0.732   6.418  12.382 -0.0080 -0.3849  0.1443
83853W        W84717  24.981   2.347  13.262  0.4012  0.1358 -0.4608
83854W        W84718  26.299   9.206  17.853 -0.0106 -0.2125 -0.1155
83855W        W84719  26.061   8.415  10.843 -0.4078  0.0314  0.2612
83856W        W84720  27.795   3.683  13.051 -0.0423 -0.2579 -0.2425
83857W        W84721  24.812   5.319  14.849 -0.1185  0.3952 -0.2807
83858W        W84722  25.797   8.196  12.288 -0.0009 -0.3417 -0.1615
83859W        W84723   0.040   7.260  10.343  0.2048  0.1844  0.1154
83860W        W84724  26.548   3.455  14.607 -0.2717  0.1979 -0.1946
83861W        W84725  26.038   7.398  11.327  0.2193 -0.3790 -0.2565
83862W        W84726   0.548   5.683  10.581  0.0226 -0.0052  0.3089
83863W        W84727  26.824   9.318   8.773 -0.0211 -0.0714  0.0172
83864W        W84728  27.069   4.771  13.021 -0.3129  0.2439 -0.1559
83865W        W84729  25.512   3.591  12.940 -0.1249 -0.0644 -0.0968
83866W        W84730  24.764   1.323  13.978  0.0777  0.2019 -0.2161
83867W        W84731  26.456   4.919  15.711  0.0802  0.1133 -0.0533
83868W        W84732  24.669   5.864  11.359 -0.2116 -0.1270 -0.1582
83869W        W84733   0.426   6.876  11.250  0.1922 -0.0185  0.1411
83870W        W84734  25.175   7.298  15.774 -0.0579 -0.1479  0.3850
83871W        W84735  25.658   7.648  12.197 -0.0407 -0.0259 -0.0458
83872W        W84736  25.759   5.326  11.390  0.1784  0.2120 -0.0449
83873W        W84737  24.914   5.404  13.091  0.2106  0.2928  0.0963
83874W        W84738  26.673   6.941  15.819 -0.1595 -0.2196  0.1274
83875W        W84739  26.679   7.356  14.096  0.0385  0.0645 -0.2775
83876W        W84740  26.420   8.418  12.474 -0.3054  0.0503  0.0193
83877W        W84741  28.017   4.949  11.378  0.3685 -0.1482 -0.0163
83878W        W84742   0.048   6.076  13.245 -0.2499 -0.3965 -0.1288
83879W        W84743   0.615   7.507  10.694 -0.1626 -0.0993 -0.0987
83880W        W84744  25.825   4.406  15.101 -0.3953  0.1066 -0.1595
83881W        W84745  28.864   6.184  12.551 -0.0099 -0.0750  0.1705
83882W        W84746  28.274   5.451  11.707  0.0483  0.3686  0.1616
83883W        W84747  28.799   6.930  11.831  0.0274 -0.3775 -0.0624
83884W        W84748  28.112   6.670  16.470  0.4877 -0.0889 -0.2213
83885W        W84749  28.530   4.067  14.085  0.1524 -0.0179 -0.1354
83886W        W84750  26.446   5.767  13.502  0.2457  0.0644  0.1387
83887W        W84751  26.022   8.677  12.267 -0.0111  0.2462  0.0192
83888W        W84752  26.399   6.989  14.399 -0.0143  0.2711 -0.1273
83889W        W84753  26.858   7.718  11.791  0.1163 -0.0125 -0.1972
83890W        W84754  26.517   5.812  11.257 -0.0530 -0.4814  0.0437
83891W        W84755  24.606   5.728  17.168 -0.0866  0.0451  0.0580
83892W        W84756  28.029   6.796  11.707  0.0367 -0.1276 -0.0064
83893W        W84757  25.028   5.015  11.754 -0.0907 -0.0553 -0.1815
83894W        W84758  28.331   4.660  13.601 -0.0281  0.0101 -0.0296
83895W        W84759  26.306   7.108  10.529  0.5080  0.1071 -0.0218
83896W        W84760  25.907   4.802  14.689  0.0357  0.2324  0.0604
83897W        W84761  26.428   5.176  11.885  0.1367 -0.1659 -0.4534
83898W        W84762  26.451   4.567  12.735 -0.1307 -0.1501 -0.1416
83899W        W84763  27.651   4.503  14.356 -0.2121  0.3968 -0.0881
83900W        W84764  27.141   5.802  13.732 -0.1796  0.0849 -0.2990
83901W        W84765  27.477   5.161  11.568 -0.2808  0.1203  0.2361
83902W        W84766  26.561   6.476  14.051 -0.0340 -0.0299 -0.2472
83903W        W84767  27.845   5.003  13.791  0.1939 -0.2636 -0.6022
83904W        W84768  25.351   6.120   9.556 -0.0401 -0.2481  0.1323
83905W        W84769  25.664   7.994  10.161 -0.1839 -0.4410 -0.0612
83906W        W84770  26.502   6.715  13.413  0.0263 -0.1799 -0.0504
83907W        W84771  27.023   6.490  10.890 -0.3473  0.2309 -0.0178
83908W        W84772  27.996   2.595  13.307  0.0955 -0.1406  0.2207
83909W        W84773  27.178   8.883  13.633  0.0840 -0.2556  0.0232
83910W        W84774  22.218   2.915  17.429  0.1359  0.0013  0.0399
83911W        W84775   1.511   4.290  10.122  0.1896  0.2658  0.2375
83912W        W84776  26.410   8.384  12.987 -0.2246  0.3652 -0.1369
83913W        W84777   0.739   6.055  11.303  0.3055  0.1509 -0.3629
83914W        W84778  28.859   4.188  11.159 -0.0620  0.0275  0.2401
83915W        W84779   0.224   4.965  14.258 -0.0565  0.2375 -0.1012
83916W        W84780  25.419   6.062  10.769 -0.0081  0.0756 -0.0991
83917W        W84781  24.986   7.304  13.789 -0.1592 -0.2412  0.4011
83918W        W84782  26.891   6.115  12.648  0.0862  0.0708  0.0468
83919W        W84783  26.105   4.145  11.964 -0.3113  0.3742 -0.1172
83920W        W84784  27.434   6.438  12.372 -0.0074  0.0961  0.0420
83921W        W84785   0.276   3.931  13.759  0.0058 -0.0435 -0.0364
83922W        W84786  25.580   7.188  12.351 -0.0821  0.2181  0.1904
83923W        W84787  26.387   6.362  12.552  0.1719  0.2183 -0.1456
83924W        W84788  24.605   3.566  12.895  0.0374 -0.0390 -0.1163
83925W        W84789  27.245   7.534  14.542  0.2430  0.0888  0.2099
83926W        W84790  28.380   6.739  10.391 -0.0712  0.0877 -0.2494
83927W        W84791  28.658  10.631  10.156 -0.1024 -0.1655 -0.0114
83928W        W84792  27.873   7.092  14.700  0.0844  0.1410  0.0745
83929W        W84793  28.049   7.199  13.985 -0.0238  0.2766 -0.1997
83930W        W84794  27.392   2.521   9.567  0.0157  0.2063  0.0239
83931W        W84795  26.676   6.276  11.237 -0.3992  0.0865  0.0280
83932W        W84796  23.712   4.402  14.654 -0.1973 -0.1016  0.0252
83933W        W84797  27.266   3.646  11.861  0.1035  0.1311  0.0435
83934W        W84798  24.330   4.692  15.325  0.0278 -0.0667  0.4786
83935W        W84799  27.986   4.573  10.881 -0.0977 -0.3994 -0.1767
83936W        W84800  27.813   8.800  14.853 -0.1121 -0.2473  0.2239
83937W        W84801  25.619   7.861  14.002 -0.1691 -0.0911 -0.0149
83938W        W84802  24.296   9.261  16.202  0.0404 -0.0979  0.0702
83939W        W84803   1.007   7.863  12.022  0.4045  0.2048  0.2639
83940W        W84804  28.269   2.933  13.495  0.2666  0.2429 -0.0648
83941W        W84805  26.822   6.684  16.255 -0.2263  0.1521  0.5419
83942W        W84806  26.948   7.604  13.723  0.0077 -0.1179  0.1674
83943W        W84807  26.733   5.619  11.984 -0.0668  0.0142 -0.0993
83944W        W84808  28.144   7.932  12.534 -0.0189 -0.1389  0.1680
83945W        W84809  26.053   8.265  15.280  0.0119 -0.2065 -0.2619
83946W        W84810   1.060   7.015  11.340 -0.1520  0.1171 -0.0970
83947W        W84811  23.900   6.417  11.412 -0.0687  0.0323 -0.1488
83948W        W84812  26.496   7.792  13.928  0.4682  0.0359 -0.0087
83949W        W84813  28.026   2.919   9.500 -0.0872  0.0462  0.0833
83950W        W84814  26.032   5.958  11.381 -0.0701 -0.1143  0.0337
83951W        W84815  28.157   4.331  10.367  0.1452  0.0727 -0.0682
83952W        W84816  27.231   5.727  14.922 -0.0736  0.0503  0.1258
83953W        W84817  25.281   5.467  12.580 -0.0509  0.3578  0.2329
83954W        W84818  25.632   0.927   9.661 -0.0704 -0.2548 -0.0071
83955W        W84819   1.614   7.727  10.896 -0.0896 -0.0715  0.2596
83956W        W84820  26.628   6.551  15.503  0.3710  0.0965  0.5122
83957W        W84821  27.829   2.839  15.049 -0.0289  0.5817  0.2046
83958W        W84822  27.442   7.226  14.932  0.0015 -0.0705  0.0046
83959W        W84823  24.058   9.580  13.650 -0.0511  0.1489 -0.2169
83960W        W84824  26.894   5.744  10.572  0.2288  0.1273  0.1008
83961W        W84825  26.185   6.099  14.075 -0.0822  0.0914 -0.1592
83962W        W84826  27.906   5.122  11.824 -0.0502 -0.3012  0.0140
83963W        W84827  24.067   8.080  13.460 -0.0169 -0.0292 -0.1474
83964W        W84828  25.785   7.104  15.352  0.0186  0.0805 -0.3375
83965W        W84829  25.552   2.338  16.101  0.1814 -0.2592  0.0445
83966W        W84830  24.933   9.304  14.203 -0.1119  0.1324  0.0371
83967W        W84831  25.680   5.016  12.284 -0.4619  0.1072  0.1019
83968W        W84832  26.196   6.442  12.115 -0.4533 -0.2371 -0.0088
83969W        W84833  27.539   8.065  15.352  0.1952 -0.1649  0.0857
83970W        W84834  25.635   5.316  12.980 -0.1609 -0.0585  0.1059
83971W        W84835  27.400   6.938  14.509  0.2135  0.0556 -0.2579
83972W        W84836  24.327   5.328  11.264  0.1494 -0.1215  0.1629
83973W        W84837  28.913   5.730  12.269 -0.0501  0.0378  0.0512
83974W        W84838  27.403   3.821  10.602  0.1921  0.1798 -0.1266
83975W        W84839   1.030   6.670  11.777  0.2217  0.1612 -0.2622
83976W        W84840  26.668   6.196  14.462  0.2923  0.0901  0.1195
83977W        W84841  25.894   6.129  12.614  0.3458 -0.0073 -0.2269
83978W        W84842  28.875   2.491  10.765  0.3351  0.1417  0.2469
83979W        W84843  25.720   6.046  16.396 -0.2794  0.0906 -0.1022
83980W        W84844  27.841   6.169  14.679  0.1215 -0.3774 -0.0412
83981W        W84845  26.974   5.160  14.515  0.2329 -0.1397  0.1173
83982W        W84846  27.084   4.519  11.157 -0.2459 -0.1933 -0.2552
83983W        W84847  26.528   3.311  13.691  0.0048 -0.1022 -0.3366
83984W        W84848  26.700   6.450  13.011 -0.1310 -0.0450  0.0004
83985W        W84849  26.856   7.653  13.010  0.0189  0.2432 -0.0118
83986W        W84850   0.752   4.240  10.127 -0.0438 -0.1263 -0.0229
83987W        W84851  27.213   6.175  12.978  0.1547  0.2343 -0.0712
83988W        W84852  27.247   7.015  13.572 -0.0429  0.2297  0.1487
83989W        W84853  27.459   4.877  13.470  0.0919  0.0386 -0.2651
83990W        W84854  28.554   6.208   9.991 -0.1317 -0.0152  0.1847
83991W        W84855  27.487   5.955   8.400  0.0870 -0.0826 -0.2584
83992W        W84856  27.219   3.399  11.303 -0.1897 -0.0869  0.0547
83993W        W84857  26.684   5.267   9.750  0.1136 -0.3607  0.0629
83994W        W84858   1.972   3.172   9.923  0.0811  0.1536 -0.0169
83995W        W84859  26.440   6.913  12.178  0.1814  0.0669 -0.1724
83996W        W84860  27.510   8.138  12.982 -0.2296  0.1738  0.1647
83997W        W84861   0.092   6.780  10.460  0.0528 -0.1793 -0.1368
83998W        W84862  25.581   1.592  17.038 -0.0541 -0.0239  0.0009
83999W        W84863  28.292   8.078  12.004 -0.4515 -0.0825  0.0191
84000W        W84864  27.986   7.201  13.059 -0.1199 -0.1943  0.1549
84001W        W84865  27.621   4.065  14.010  0.5016 -0.1225  0.1784
84002W        W84866  24.865   5.960  12.522  0.2344  0.0515 -0.1781
84003W        W84867  26.627   6.495  11.791 -0.0230 -0.0540 -0.0525
84004W        W84868  24.141   4.407  11.995  0.0106 -0.2477  0.1260
84005W        W84869  27.243   5.263  13.735 -0.1446  0.0563 -0.0497
84006W        W84870  26.926   7.019  12.366  0.3700  0.3410  0.2808
84007W        W84871  25.166   5.738  12.148  0.1179  0.0052  0.3295
84008W        W84872  28.479   3.182  11.317  0.0258  0.0775 -0.3488
84009W        W84873  27.972   8.345  13.051  0.2706 -0.1060  0.3704
84010W        W84874  25.079   7.039  14.328 -0.2277  0.1498 -0.0751
84011W        W84875  26.172   5.439  12.164 -0.0508 -0.3582  0.2182
84012W        W84876  28.723   8.296  12.007 -0.0764 -0.0968 -0.1785
84013W        W84877  28.609   6.402  14.257  0.1222 -0.0070 -0.3969
84014W        W84878  26.189   5.439  13.955  0.1261  0.0521 -0.1486
84015W        W84879  29.132   5.061  11.745 -0.2661  0.0140  0.0830
84016W        W84880  27.208   9.145  12.030  0.1391 -0.2212  0.0192
84017W        W84881  24.887   8.951  13.211  0.0411  0.2391  0.0900
84018W        W84882  28.106   5.018  13.290  0.3168 -0.1016  0.4747
84019W        W84883  26.369  10.195  12.392 -0.4798  0.0662  0.0362
84020W        W84884  26.259  10.648  16.619 -0.4632 -0.0655  0.1334
84021W        W84885  28.256   5.937  13.316  0.0683 -0.0944  0.2158
84022W        W84886  27.290   4.590  11.724  0.0534  0.2795  0.0763
84023W        W84887  24.769   7.696  19.023 -0.1439  0.0828  0.1011
84024W        W84888  24.824   6.379  18.712  0.0647  0.0318 -0.1634
84025W        W84889  26.974   6.310  13.729 -0.1836 -0.0609  0.0093
84026W        W84890  27.540   7.740  18.223 -0.2248  0.1243 -0.0993
84027W        W84891  27.080   6.201  14.733  0.0662  0.0874  0.2172
84028W        W84892  27.494   6.198  15.066 -0.0262 -0.0942 -0.0551
84029W        W84893  27.837   5.699  14.941  0.1986  0.2017  0.2823
84030W        W84894  23.670   5.256  14.791  0.1660 -0.0743 -0.1369
84031W        W84895  26.479   7.284  14.897  0.1081  0.0375  0.1767
84032W        W84896  26.403   2.347  17.361 -0.1036  0.1556  0.4571
84033W        W84897  26.193   3.041  17.074 -0.3125  0.1949 -0.0459
84034W        W84898   0.902   6.094  15.895  0.2637  0.0627  0.2787
84035W        W84899  28.567   4.233  13.599 -0.0149  0.3251 -0.1417
84036W        W84900   0.207   5.519  18.724  0.0362  0.0149 -0.0426
84037W        W84901  25.209   4.253  18.162 -0.0195  0.2403  0.0579
84038W        W84902  23.615   8.355  19.582 -0.2413  0.3197 -0.1460
84039W        W84903  26.192   7.310  15.886  0.0930  0.0324 -0.0360
84040W        W84904  25.667   5.124  15.931  0.2263 -0.1935  0.1386
84041W        W84905  25.814   5.517  18.038 -0.0965 -0.0901 -0.0792
84042W        W84906  28.955   6.420  13.901  0.1377 -0.1674 -0.2765
84043W        W84907   0.125   5.914  17.496 -0.3783  0.1175 -0.3929
84044W        W84908  27.537   6.928  17.371  0.2868 -0.1152  0.1349
84045W        W84909   0.121   7.467  16.908 -0.1810  0.0086 -0.1630
84046W        W84910  27.768   4.312  16.038 -0.0705 -0.0715 -0.3535
84047W        W84911  26.829   5.492  15.201 -0.0788 -0.0437  0.2922
84048W        W84912  25.765   6.958  17.127 -0.1954  0.3723 -0.0234
84049W        W84913   0.252   6.521  15.406 -0.0358 -0.2126 -0.1470
84050W        W84914  26.713   5.628  17.421  0.0444 -0.0844 -0.2035
84051W        W84915  24.997   8.184  17.295 -0.0710  0.0957 -0.0070
84052W        W84916  28.685   6.847  16.557 -0.3459  0.1162 -0.2019
84053W        W84917  28.738   4.937  15.861 -0.1630 -0.1544  0.0248
84054W        W84918  27.514   5.805  17.751  0.0221 -0.3333 -0.0684
84055W        W84919  27.135   5.301  15.573 -0.1144  0.1652 -0.0056
84056W        W84920  27.385   7.289  19.131  0.2017  0.3848 -0.1028
84057W        W84921  26.011   2.978  17.570 -0.1943  0.2474 -0.0446
84058W        W84922   0.874   5.365  17.802 -0.0478 -0.1523 -0.1942
84059W        W84923  27.218   4.665  14.608 -0.1818 -0.0601  0.1504
84060W        W84924  26.532   4.147  16.274  0.4540 -0.0193  0.0495
84061W        W84925   2.594   6.324  17.925 -0.0629  0.1256  0.1404
84062W        W84926   1.068   1.335  15.553  0.0247  0.0631 -0.2588
84063W        W84927  28.062   6.632  12.930  0.0556 -0.0428 -0.1350
84064W        W84928   1.555   6.387  14.369  0.0966 -0.3011  0.1564
84065W        W84929  26.321   6.809  16.838 -0.1214 -0.0803 -0.1648
84066W        W84930  27.746   7.156  16.198  0.0334 -0.0999 -0.0941
84067W        W84931  27.247   7.122  16.505  0.1500 -0.1537 -0.1939
84068W        W84932  26.481   7.345  18.518  0.3029 -0.0319 -0.0863
84069W        W84933  28.363   1.925  17.986  0.1596 -0.0128 -0.1402
84070W        W84934  27.873   5.233  15.642  0.0881  0.0747 -0.1028
84071W        W84935  27.406   5.066  16.002 -0.3970  0.1352 -0.1066
84072W        W84936  26.864   7.182  14.525  0.1176 -0.1187 -0.4070
84073W        W84937  28.041   7.757  17.987  0.0744  0.2427 -0.0070
84074W        W84938   1.123   5.733  16.834  0.3686  0.2475  0.0677
84075W        W84939   0.002   8.751  18.334  0.1543  0.0497 -0.1224
84076W        W84940  28.518   7.257  13.972  0.4597  0.1758 -0.5207
84077W        W84941   0.018   5.308  14.598  0.0318 -0.3586 -0.1124
84078W        W84942  26.571   6.261  16.044  0.0316  0.1390  0.1733
84079W        W84943  24.848   5.227  16.049  0.0747  0.0086 -0.1075
84080W        W84944  28.873   2.925  12.898  0.0680  0.2774  0.1847
84081W        W84945  25.704   7.271  15.792 -0.1457  0.3050 -0.0360
84082W        W84946  27.591   7.386  13.625 -0.0266 -0.3316  0.1025
84083W        W84947  27.446   6.467  14.529 -0.0709  0.0808 -0.2341
84084W        W84948  26.668   3.259  17.725  0.2400 -0.1907  0.1106
84085W        W84949  28.702   5.275  19.401  0.1298 -0.0886 -0.0809
84086W        W84950  27.000   3.875  18.272 -0.2014  0.0910  0.0181
84087W        W84951  27.516   5.530  15.299  0.0411 -0.0225 -0.4151
84088W        W84952  28.531   4.441  14.643  0.3297  0.2676 -0.0980
84089W        W84953  25.961   6.506  17.505  0.0092  0.0707  0.0321
84090W        W84954  28.314   5.562  15.967  0.1397  0.2600  0.0864
84091W        W84955  25.993   6.447  14.927  0.1272  0.0602 -0.0921
84092W        W84956  26.278   8.106  16.183 -0.0398  0.2401  0.0432
84093W        W84957  27.575   8.326  17.288 -0.1608  0.0380  0.0854
84094W        W84958  27.429   2.694  13.367  0.0295  0.0991 -0.0241
84095W        W84959  28.996   7.871  15.751 -0.0894  0.3918  0.0686
84096W        W84960  28.268   5.677  18.429 -0.0322 -0.1410  0.0325
84097W        W84961  27.241   1.914  15.826  0.2626  0.1543  0.4024
84098W        W84962  25.391   7.705  15.532  0.0430 -0.2648 -0.1392
84099W        W84963  26.988   6.215  16.324  0.0200 -0.1026  0.1149
84100W        W84964  26.572   5.791  16.585 -0.2693 -0.1768  0.0713
84101W        W84965  27.387   4.114  13.072 -0.1835  0.0464  0.0827
84102W        W84966   2.099   4.521  12.771 -0.1539 -0.2995 -0.0382
84103W        W84967  25.518   5.267  21.389 -0.3519 -0.0218  0.2895
84104W        W84968  26.791   4.378  15.857  0.2473  0.3839 -0.0177
84105W        W84969  28.654   1.610  18.982  0.1340 -0.1071  0.1728
84106W        W84970  26.627   2.237  16.771 -0.3133 -0.3251  0.2916
84107W        W84971  27.293   4.762  16.404  0.1982 -0.0565 -0.0994
84108W        W84972  25.649   2.115  16.877  0.2301  0.1770 -0.1235
84109W        W84973   1.552   8.851  17.227  0.2453  0.0903  0.0644
84110W        W84974  27.294   4.970  17.755 -0.1180  0.0532  0.0270
84111W        W84975  28.910  10.264  18.858  0.1283  0.1926  0.2464
84112W        W84976  28.314   6.808  15.460 -0.1207 -0.0624  0.1047
84113W        W84977   0.296   2.220  14.158 -0.0631 -0.2554 -0.1915
84114W        W84978   0.371   4.730  17.497  0.0729  0.0445 -0.1753
84115W        W84979  28.261   8.752  15.952  0.0810 -0.2576 -0.4033
84116W        W84980  27.252   2.061  18.204  0.1824 -0.1566 -0.0034
84117W        W84981  25.525   4.665  18.301  0.1884  0.1301  0.0276
84118W        W84982  28.881   4.380  14.927 -0.1982 -0.0958  0.2369
84119W        W84983  25.739   6.464  13.271 -0.1824  0.1031  0.3675
84120W        W84984  27.331   6.379  18.897  0.1130 -0.0374 -0.0172
84121W        W84985  28.649   3.934  14.555 -0.0148  0.1689  0.2629
84122W        W84986   1.898   5.619  16.161 -0.1357  0.0171  0.0951
84123W        W84987   0.239   2.843  14.863  0.1212  0.0357 -0.0869
84124W        W84988  24.444   7.242  17.124 -0.0798 -0.1236  0.0812
84125W        W84989  24.138   4.066  14.719 -0.1537 -0.0880 -0.0421
84126W        W84990  28.665   7.154  15.271 -0.0928  0.0611 -0.1493
84127W        W84991  28.705   4.016  17.398  0.0935 -0.1923 -0.0313
84128W        W84992  26.632   4.703  19.632  0.2092  0.2385  0.0242
84129W        W84993  28.395   8.186  15.130 -0.0536  0.0320 -0.3115
84130W        W84994   0.268   5.377  21.274 -0.1231  0.0875 -0.1415
84131W        W84995   1.237   2.823  14.894 -0.0068  0.1562  0.1142
84132W        W84996  26.141   1.171  16.560 -0.0335  0.2944  0.0569
84133W        W84997  25.919   6.841  18.958 -0.0485  0.0785 -0.0985
84134W        W84998  29.045   6.326  17.288  0.1850 -0.0617  0.1262
84135W        W84999   1.535   5.503  17.631  0.1483 -0.1763  0.1092
84136W        W85000  27.437   4.788  18.187 -0.0735  0.1039 -0.1320
84137W        W85001   1.224   4.186  14.347 -0.4323  0.0467 -0.4002
84138W        W85002  28.729   6.403  16.872 -0.1603 -0.1330  0.1430
84139W        W85003  28.075   4.960  16.695  0.2553  0.0944  0.0965
84140W        W85004  25.380   6.462  15.881 -0.0897  0.2810  0.0206
84141W        W85005  28.791   3.706  16.156 -0.0980 -0.2454 -0.0041
84142W        W85006  27.434   6.567  15.462  0.2097  0.2101  0.0049
84143W        W85007  28.816   3.484  15.195 -0.0419  0.1397 -0.0657
84144W        W85008  28.002   7.816  15.309  0.3894  0.0398  0.1440
84145W        W85009  28.760   8.609  14.556  0.2208 -0.1050 -0.0716
84146W        W85010  27.483   5.353  14.580  0.0990  0.0188  0.3587
84147W        W85011   0.860   8.064  15.623  0.1454  0.2774  0.0437
84148W        W85012  28.785   6.115  14.823 -0.2380 -0.0513  0.1825
84149W        W85013  23.288   2.937  16.809  0.0930  0.1802  0.2424
84150W        W85014   0.560   5.456  19.566 -0.0227 -0.5442  0.3025
84151W        W85015   0.805   7.333  14.051 -0.3327  0.0176 -0.0140
84152W        W85016  27.849   7.599  16.338 -0.2850  0.0613  0.0211
84153W        W85017  28.742   9.421  17.590  0.2152  0.2402  0.0451
84154W        W85018  28.667   5.059  17.861 -0.1577  0.2039 -0.0007
84155W        W85019  28.438   9.288  16.031 -0.2088  0.1899  0.0588
84156W        W85020  27.429   7.597  16.646  0.2115 -0.1433 -0.0961
84157W        W85021  28.584   5.502  13.729 -0.0773  0.0201  0.0360
84158W        W85022   0.261   6.543  16.310 -0.3472  0.1817  0.0450
84159W        W85023  27.982   6.362  13.662 -0.3787  0.1337 -0.0587
84160W        W85024   0.561   4.562  16.552 -0.2115  0.0296  0.1008
84161W        W85025  28.065   5.708  12.462 -0.0501 -0.3782  0.1536
84162W        W85026  26.521   7.787  16.904  0.0487  0.1740 -0.0226
84163W        W85027  26.024   3.033  12.883 -0.0899 -0.0117 -0.1174
84164W        W85028  28.638   5.426  14.617 -0.4343 -0.2061 -0.0158
84165W        W85029  25.331   5.744  16.991 -0.3491 -0.1260 -0.2607
84166W        W85030  28.180   3.583  15.110 -0.1217  0.1849 -0.1267
84167W        W85031  27.475   6.756  17.919  0.0596  0.3703 -0.0632
84168W        W85032  27.633   5.498  12.082  0.3612 -0.0351  0.4513
84169W        W85033  27.840   3.740  16.014 -0.4673  0.4155 -0.1099
84170W        W85034  28.780   8.825  15.818 -0.0230 -0.3811  0.2458
84171W        W85035   0.741   7.366  16.699  0.1063 -0.1440 -0.0332
84172W        W85036  25.683   3.657  18.127 -0.1272 -0.2384  0.1892
84173W        W85037   0.228   7.007  14.220  0.3140  0.1015 -0.2125
84174W        W85038  27.313   3.691  16.980 -0.0670 -0.3086 -0.2186
84175W        W85039  25.309   8.615  17.059  0.2320  0.1232  0.1104
84176W        W85040  24.332   5.721  13.982  0.1686 -0.1546  0.3074
84177W        W85041  27.091   5.298  17.288 -0.0068 -0.4079  0.0615
84178W        W85042  27.303   5.833  16.443 -0.2823  0.0880  0.0116
84179W        W85043  26.662   5.615  16.028 -0.2302 -0.0202  0.0154
84180W        W85044  29.065   5.787  14.555  0.3664  0.0361 -0.1139
84181W        W85045  25.379   5.751  14.580 -0.0584 -0.2751 -0.2083
84182W        W85046   2.479   7.478  18.091  0.3294 -0.0190  0.0565
84183W        W85047   1.911   5.591  17.908 -0.0201  0.0068  0.2567
84184W        W85048  26.668   7.358  17.114  0.0502 -0.2343  0.1154
84185W        W85049  28.038   5.955  16.806 -0.1663  0.3904  0.0030
84186W        W85050  27.681   5.485  19.604  0.0855  0.0652  0.1547
84187W        W85051  27.934   6.450  15.501  0.0694 -0.1785 -0.1726
84188W        W85052  27.179   4.612  15.117  0.0173  0.0181 -0.1003
84189W        W85053  24.374   3.037  14.205  0.0707 -0.2743  0.1086
84190W        W85054  29.092   7.476  16.053 -0.0955 -0.1674  0.1956
84191W        W85055  27.792   7.161  20.508 -0.0324 -0.1228  0.1374
84192W        W85056  26.200   4.922  16.898 -0.0726  0.1090 -0.1924
84193W        W85057  28.132   5.137  17.484 -0.1168 -0.4077  0.0655
84194W        W85058  28.124   6.097  18.180 -0.1029  0.1564  0.6027
84195W        W85059  28.334   6.393  19.072 -0.0503 -0.0962  0.0953
84196W        W85060  26.073   6.341  16.117  0.0413  0.2555  0.0721
84197W        W85061   0.219   8.291  15.557  0.2681  0.0022 -0.5150
84198W        W85062  28.530   5.024  13.849  0.1656  0.2560 -0.3500
84199W        W85063  25.146   7.596  16.559  0.0712 -0.0230  0.0939
84200W        W85064  25.130   6.296  17.202  0.1244  0.0647  0.2401
84201W        W85065  24.704   9.005  14.644  0.2270 -0.1718 -0.2073
84202W        W85066  27.559   5.384  18.093  0.1162 -0.1562  0.0255
84203W        W85067  27.185   7.653  15.597 -0.1011  0.4066 -0.1845
84204W        W85068  28.007   6.601  15.030 -0.0843  0.1335  0.0890
84205W        W85069  28.454   5.058  12.398 -0.0037 -0.1801  0.1995
84206W        W85070  22.897   6.932  17.970 -0.0827 -0.1491  0.1014
84207W        W85071  26.010   4.743  15.924  0.0532  0.0425  0.2065
84208W        W85072  28.972   5.101  18.853 -0.1889 -0.0262 -0.2996
84209W        W85073  28.874   4.965  14.331 -0.1605 -0.0495 -0.2033
84210W        W85074  25.642   1.393  14.959  0.0141  0.1137 -0.0919
84211W        W85075  26.016   5.142  15.570 -0.1930 -0.5400 -0.2611
84212W        W85076  27.516   5.606  17.001  0.2148 -0.1339 -0.0834
84213W        W85077  26.475   3.194  16.683 -0.0829 -0.0741 -0.0201
84214W        W85078  23.789   6.938  17.637 -0.1051  0.0006 -0.1300
84215W        W85079  26.533   4.554  16.739  0.0140 -0.0289  0.1401
84216W        W85080  28.475   5.158  16.318 -0.0261  0.1741 -0.3009
84217W        W85081   0.339   8.071  18.384  0.0288 -0.2486 -0.0567
84218W        W85082  27.722   3.780  15.013  0.3170  0.0982  0.0923
84219W        W85083  25.617   3.866  15.860 -0.0343  0.1091 -0.0958
84220W        W85084  26.741   3.053  18.413  0.0258  0.1309  0.0170
84221W        W85085  25.484   6.653  17.413 -0.0952 -0.0602 -0.0495
84222W        W85086  28.869   6.832  17.159 -0.0704  0.0533 -0.1702
84223W        W85087  25.552   4.444  17.226 -0.0411  0.2120  0.2781
84224W        W85088   2.527   4.093  15.457 -0.1858 -0.1506  0.0382
84225W        W85089   0.044   6.810  12.628  0.1087 -0.2346  0.1662
84226W        W85090  26.148   5.755  16.342 -0.1846  0.3614  0.0439
84227W        W85091  27.432   4.184  17.050  0.0214 -0.2720  0.2891
84228W        W85092  23.586   2.763  16.396 -0.0714 -0.3536 -0.1326
84229W        W85093  25.876   3.923  17.031  0.0515 -0.0167 -0.3656
84230W        W85094  27.937   7.432  12.454  0.1641 -0.2415  0.0657
84231W        W85095  26.409   6.253  15.120 -0.1667  0.2177 -0.1073
84232W        W85096  23.262   5.505  14.588 -0.3430 -0.3313  0.3784
84233W        W85097  26.048   7.085  19.409  0.0867  0.0710  0.2006
84234W        W85098  25.079   2.870  18.549  0.0297 -0.4445  0.0235
84235W        W85099  24.871   5.513  20.330  0.2514 -0.1787  0.2746
84236W        W85100  28.678   2.277  19.473 -0.1141 -0.0139  0.0649
84237W        W85101  27.625   7.141  15.724  0.1375 -0.1485 -0.0048
84238W        W85102  26.228   3.472  15.006 -0.0871 -0.1693  0.1421
84239W        W85103  29.021   3.921  14.218 -0.0607 -0.1592  0.1388
84240W        W85104   0.516   3.843  16.555 -0.0725 -0.0780  0.0630
84241W        W85105  28.171   2.972  18.987 -0.1518  0.3159  0.1249
84242W        W85106  27.212   8.992  17.877  0.1958  0.3109  0.0103
84243W        W85107   1.200   5.218  16.614 -0.0923  0.1345  0.0067
84244W        W85108  26.300   3.602  17.060  0.3249  0.2152 -0.0954
84245W        W85109  26.143   7.222  16.475 -0.1496  0.3770  0.4040
84246W        W85110  26.294   5.757  15.221  0.0144  0.0567 -0.0927
84247W        W85111  27.449   6.181  13.658  0.0402  0.1101  0.3009
84248W        W85112  25.359   1.024  17.137 -0.1736  0.1282 -0.2935
84249W        W85113  28.277   7.480  16.129  0.0951  0.1210 -0.1239
84250W        W85114  29.002   1.775  15.496 -0.1016 -0.1521 -0.2123
84251W        W85115  26.910   7.552  16.549 -0.4230  0.0666 -0.0423
84252W        W85116  27.377   7.808  17.790 -0.1504 -0.0438 -0.1018
84253W        W85117  24.848   3.978  15.754  0.0117  0.1006 -0.4153
84254W        W85118  26.766   6.559  20.503 -0.0488  0.0672  0.1385
84255W        W85119  26.295   4.936  15.020 -0.1160 -0.3491  0.0161
84256W        W85120  27.806   8.451  16.734  0.1230  0.1145  0.2734
84257W        W85121  27.430   2.934  16.568 -0.0732  0.2981 -0.3077
84258W        W85122  28.905   6.228  15.323  0.0139 -0.0793 -0.2027
84259W        W85123  28.691   7.574  17.804  0.1617 -0.0933 -0.0106
84260W        W85124  28.587   5.814  15.589  0.1621  0.1787  0.1038
84261W        W85125  27.825   8.406  16.170  0.1288  0.2429 -0.0147
84262W        W85126  26.759   7.103  17.560 -0.0418 -0.3193 -0.0441
84263W        W85127  27.480   8.081  15.962 -0.2026 -0.0410  0.0644
84264W        W85128  27.646   5.609  15.877  0.0114  0.1336  0.2603
84265W        W85129  25.829   5.067  17.789  0.1504  0.1261 -0.4526
84266W        W85130  25.184   3.697  16.064 -0.0456  0.1392 -0.2015
84267W        W85131  26.704   4.485  15.366 -0.1103 -0.1788 -0.4452
84268W        W85132  26.343   6.778  14.973  0.0460  0.0567  0.0686
84269W        W85133  28.139   5.322  14.671 -0.1281  0.2771  0.0908
84270W        W85134   1.356   9.045  15.969  0.1315  0.2452 -0.2141
84271W        W85135  28.324   8.390  12.647  0.0589  0.2138  0.1827
84272W        W85136  28.280   5.382  14.199 -0.1163  0.1746  0.0910
84273W        W85137  26.213   6.126  16.789  0.0883  0.1789 -0.1216
84274W        W85138  26.137   8.651  14.938  0.0446 -0.5173 -0.3314
84275W        W85139   0.827   7.249  17.163  0.0550  0.0013 -0.1157
84276W        W85140  25.911   6.063  15.271 -0.0714  0.1272  0.1077
84277W        W85141  26.204   5.463  16.784 -0.0691  0.0101 -0.1371
84278W        W85142  28.113   3.198  14.312  0.0759  0.2050 -0.1067
84279W        W85143  27.633   6.010  14.083 -0.0193 -0.1936  0.2434
84280W        W85144  27.119   1.765  17.687 -0.0951  0.0111  0.3114
84281W        W85145   0.410   7.454  14.940  0.2091 -0.1359 -0.0615
84282W        W85146   0.059   6.499  14.925 -0.0402  0.2846  0.0287
84283W        W85147  26.651   7.075  16.486  0.1540  0.0770 -0.1146
84284W        W85148  25.794   6.013  18.414 -0.0834 -0.2371  0.1336
84285W        W85149  28.836   8.872  18.769  0.0078 -0.1192 -0.1005
84286W        W85150  26.995   2.612  18.376 -0.0863  0.0107  0.0852
84287W        W85151  24.674   7.970  16.987  0.0638  0.1992 -0.0145
84288W        W85152  26.563   6.917  19.197 -0.1611  0.0967 -0.5938
84289W        W85153  26.182   6.916  15.580  0.0419 -0.0221 -0.0609
84290W        W85154  27.595   5.219  16.495 -0.1241  0.2372  0.4432
84291W        W85155  26.911   5.407  16.459 -0.1029  0.1676  0.0787
84292W        W85156   0.915   3.034  14.114 -0.1656  0.0089 -0.0995
84293W        W85157  27.674   8.892  16.093 -0.2532  0.0576 -0.0388
84294W        W85158  26.888   6.332  17.302 -0.3965  0.1617  0.2792
84295W        W85159  28.368   5.909  14.697 -0.0312 -0.0575 -0.2574
84296W        W85160  27.778   4.914  17.837 -0.3872 -0.0571 -0.0640
84297W        W85161   0.379   7.436  15.459 -0.1955 -0.3685  0.0773
84298W        W85162  26.818   3.495  18.599 -0.2812  0.0937 -0.0629
84299W        W85163  27.370   2.648  19.405  0.3051  0.1292  0.3188
84300W        W85164  27.180   5.441  17.781  0.0163 -0.0789 -0.0581
84301W        W85165  27.686   3.923  14.504 -0.2995  0.1833 -0.2356
84302W        W85166  24.230   6.145  18.801 -0.0841  0.1968  0.0037
84303W        W85167  28.138   6.988  15.921  0.1344 -0.0511  0.0088
84304W        W85168  28.986   5.179  16.334 -0.0362 -0.0203 -0.0357
84305W        W85169  25.120   6.293  16.307  0.0500 -0.1676 -0.2903
84306W        W85170  26.898   7.487  17.965  0.2345 -0.0265  0.1426
84307W        W85171  28.818   5.409  14.145  0.1553 -0.1548  0.0129
84308W        W85172  28.060   6.014  15.844 -0.0400  0.2600  0.0883
84309W        W85173   0.238   8.698  14.329 -0.1605  0.0819 -0.1468
84310W        W85174  25.722   7.451  16.555 -0.2089 -0.0163 -0.1686
84311W        W85175   1.700   2.275  14.288 -0.2868  0.1823 -0.2290
84312W        W85176  27.832   7.568  14.837 -0.1197 -0.0883 -0.1036
84313W        W85177  26.265   4.408  14.237  0.0264 -0.0501  0.1284
84314W        W85178  25.818   5.713  13.773  0.1019 -0.2029 -0.2101
84315W        W85179  28.085   3.562  18.228  0.0637  0.3102  0.0781
84316W        W85180  25.660   6.082  17.248  0.0551 -0.0614 -0.1904
84317W        W85181  28.153   6.414  16.949  0.0884 -0.2108 -0.0086
84318W        W85182  27.495   7.595  17.182  0.0831 -0.1826  0.0148
84319W        W85183  24.876   1.865  17.592  0.0913 -0.2225 -0.1845
84320W        W85184   0.134   5.595  14.140  0.1408 -0.2187 -0.1695
84321W        W85185   1.048   5.427  15.376  0.0819 -0.0467  0.1738
84322W        W85186  23.772   7.301  16.904 -0.1952 -0.2879  0.0050
84323W        W85187  25.143   4.756  16.169  0.1814 -0.0674 -0.3486
84324W        W85188  24.233   3.301  17.569  0.0669 -0.4152 -0.0641
84325W        W85189  26.166   5.798  18.790  0.1840  0.1739 -0.1276
84326W        W85190  28.765   7.354  13.505 -0.0752  0.0792 -0.0355
84327W        W85191  27.782   6.176  13.204  0.3016  0.2477 -0.0776
84328W        W85192  25.025   8.024  15.596 -0.0949 -0.0642  0.1946
84329W        W85193   3.924   6.423  18.471 -0.2256  0.1420 -0.3634
84330W        W85194  25.824   3.674  15.472  0.1509  0.1230 -0.2035
84331W        W85195   0.677   5.202  15.826  0.0657 -0.0054  0.2779
84332W        W85196  25.333   4.181  16.307 -0.0104 -0.0787 -0.0980
84333W        W85197  26.397   5.670  14.421  0.0620  0.0024  0.1129
84334W        W85198  26.735   5.994  18.664 -0.0110 -0.1712 -0.0803
84335W        W85199  26.029   4.252  14.669 -0.1827 -0.2157 -0.1519
84336W        W85200  28.689   8.381  16.380  0.0511  0.2086  0.0741
84337W        W85201  24.670   6.009  18.387 -0.2802  0.0757 -0.0735
84338W        W85202  27.152   8.063  17.425  0.1256  0.0447  0.0056
84339W        W85203  23.386   2.461  16.788 -0.1465  0.2850  0.0565
84340W        W85204  27.292   4.074  15.098 -0.1858 -0.1246  0.1672
84341W        W85205  26.770   7.028  13.684  0.1453 -0.0346  0.4099
84342W        W85206  25.738   6.108  15.821 -0.1494 -0.0151  0.1116
84343W        W85207  27.227   6.729  16.844  0.1678  0.0728 -0.0408
84344W        W85208  28.237   7.315  14.480  0.0010  0.0013 -0.0978
84345W        W85209  27.488   9.504  17.945 -0.2564  0.1041 -0.2660
84346W        W85210  27.669   8.056  16.450  0.1708 -0.1986 -0.1538
84347W        W85211  25.206   6.103  14.349 -0.1099  0.0158 -0.1913
84348W        W85212  28.045   7.922  16.019 -0.0524  0.0890  0.0154
84349W        W85213  25.239   3.606  17.866 -0.0308 -0.0213  0.2400
84350W        W85214  23.156   6.093  18.419  0.0403  0.1357 -0.0261
84351W        W85215  26.450   4.800  13.975  0.0068  0.2182  0.0547
84352W        W85216  27.902   6.622  17.463 -0.0271  0.3197 -0.1545
84353W        W85217  27.680   4.741  15.763 -0.1793 -0.2569 -0.1355
84354W        W85218   1.922   1.505  13.836  0.0427  0.2251  0.0401
84355W        W85219  29.021   7.425  18.223 -0.0663 -0.1596  0.1743
84356W        W85220  27.487   6.547  18.378 -0.0784  0.2845 -0.2326
84357W        W85221  26.963   6.795  18.112  0.0647  0.1986  0.1061
84358W        W85222  26.596   5.646  17.962 -0.0803 -0.0342 -0.1481
84359W        W85223  27.200  10.080  16.294 -0.0040  0.1026  0.0283
84360W        W85224  27.905   5.715  12.978 -0.1157 -0.2836  0.1600
84361W        W85225  26.568   5.373  14.794  0.3954 -0.2511 -0.2284
84362W        W85226  27.958   5.254  15.146  0.0852  0.0858  0.1210
84363W        W85227  25.572   7.950  16.452 -0.1406  0.0480 -0.0599
84364W        W85228  28.123   4.412  16.410  0.1426  0.2268 -0.0990
84365W        W85229  25.020   6.061  16.767  0.2082  0.1147 -0.1333
84366W        W85230  25.990   8.142  15.761 -0.0377 -0.0979 -0.1542
84367W        W85231  28.578   4.943  12.887 -0.0954 -0.0174 -0.1766
84368W        W85232  26.537   5.189  18.121  0.2311 -0.0892 -0.1999
84369W        W85233  24.854   6.480  17.639 -0.0657  0.1351  0.0002
84370W        W85234  27.125   3.351  17.245  0.0169  0.0314 -0.0385
84371W        W85235  27.058   7.222  15.422 -0.0309  0.1914  0.0117
84372W        W85236  25.021   4.999  15.202  0.2409  0.2608 -0.2329
84373W        W85237   1.372   3.424  17.903 -0.2213  0.0100  0.2218
84374W        W85238   0.343   4.969  12.198  0.2163  0.1954  0.1537
84375W        W85239  29.040   7.403  15.552 -0.0582 -0.2553 -0.0840
84376W        W85240  26.260   5.809  18.260 -0.1801  0.2065 -0.1796
84377W        W85241  26.956   5.221  12.735  0.2582 -0.1867  0.0693
84378W        W85242  24.340   4.969  14.218  0.0332 -0.0314 -0.0593
84379W        W85243  24.651   7.116  16.460 -0.1366 -0.0838 -0.0531
84380W        W85244   0.515   6.223  17.571  0.1586  0.1633 -0.1214
84381W        W85245  28.534   6.765  16.106 -0.1613  0.1156  0.1519
84382W        W85246  25.380   3.795  17.041 -0.2339  0.0610  0.2413
84383W        W85247  28.849   5.380  15.678 -0.0502  0.0276 -0.0382
84384W        W85248  27.287   5.128  16.844 -0.0300  0.0331 -0.0331
84385W        W85249  29.120   2.569  13.983  0.4837  0.0824  0.2087
84386W        W85250  26.508   3.044  15.088 -0.1792  0.2432  0.2407
84387W        W85251  28.206   7.867  14.793 -0.1203  0.1131 -0.1426
84388W        W85252  28.922   7.072  17.837 -0.1327  0.1443 -0.1136
84389W        W85253  27.183   7.276  14.079  0.2431  0.0309 -0.1195
84390W        W85254  28.043   4.626  14.661 -0.0295  0.0863 -0.1920
84391W        W85255  27.353   3.100  13.722  0.0255  0.1675 -0.2244
84392W        W85256   1.353   3.191  13.353  0.0977  0.1373  0.1643
84393W        W85257   0.543   7.869  17.026 -0.1074 -0.0433  0.1374
84394W        W85258  28.672   2.759  13.875 -0.0234  0.1980  0.0119
84395W        W85259  28.651   8.148  14.275 -0.0860  0.0046 -0.1514
84396W        W85260  28.290   4.939  14.946  0.3227  0.1809 -0.0530
84397W        W85261  26.482   6.231  13.548 -0.2038 -0.0149  0.3689
84398W        W85262  29.069   2.256  17.187  0.3825  0.2287 -0.0616
84399W        W85263  27.566   4.446  15.331  0.1664  0.0160 -0.1574
84400W        W85264  28.249   8.922  14.655 -0.0396  0.2639 -0.0630
84401W        W85265   1.097   9.549  17.672  0.1234 -0.2574  0.0714
84402W        W85266  28.409   3.097  17.417  0.1599 -0.1295 -0.0467
84403W        W85267   0.325   7.714  16.464  0.2111 -0.2204 -0.1703
84404W        W85268  25.847   6.964  14.866  0.1966  0.1086 -0.1993
84405W        W85269  24.346   6.334  18.348 -0.0118  0.2557 -0.1195
84406W        W85270  28.998   7.435  14.027  0.1443 -0.1682 -0.2940
84407W        W85271  26.625   8.218  18.139 -0.0535  0.1113  0.1682
84408W        W85272  28.489   5.499  19.038 -0.0332  0.0124  0.2172
84409W        W85273  29.097   6.512  15.828 -0.5156  0.2185 -0.2314
84410W        W85274  28.340   6.829  17.426  0.3202  0.0333  0.2052
84411W        W85275  26.257   4.324  15.820  0.1187 -0.0664 -0.0179
84412W        W85276  27.352   3.698  15.852 -0.2253 -0.1147 -0.3474
84413W        W85277   1.616   7.575  17.117 -0.0054 -0.0901  0.2938
84414W        W85278   0.226   6.011  15.519 -0.0841 -0.0897  0.0853
84415W        W85279   0.040   5.441  13.456  0.1015 -0.0157  0.1217
84416W        W85280   2.142   5.299  14.953  0.0718 -0.0928 -0.4002
84417W        W85281  26.485   9.391  15.710  0.0329  0.0092  0.1076
84418W        W85282  27.948   1.341  17.314  0.1486 -0.3780 -0.2624
84419W        W85283  28.121   4.572  14.121 -0.0949  0.0969  0.1748
84420W        W85284  26.403   4.546  17.300 -0.2364  0.0892  0.0071
84421W        W85285  24.672   7.538  16.804 -0.0348  0.0363  0.0316
84422W        W85286  29.009   3.124  13.924 -0.2263  0.0589  0.0190
84423W        W85287   0.049   7.323  21.858  0.2896  0.0475 -0.0020
84424W        W85288  27.957   4.779  19.407  0.0602  0.3039 -0.1209
84425W        W85289  28.431   6.301  17.470  0.0314  0.0048 -0.1634
84426W        W85290  27.844   7.858  19.460  0.0012 -0.0543 -0.1436
84427W        W85291  28.483   7.459  18.312 -0.2919 -0.0803 -0.0148
84428W        W85292  25.319   6.243  17.691  0.3254  0.2857  0.0680
84429W        W85293  25.927   4.114  20.554  0.0445  0.1054  0.2073
84430W        W85294  27.119   5.343  18.365  0.4264 -0.2985 -0.0964
84431W        W85295  26.818   6.907  22.166  0.0514 -0.2358 -0.5838
84432W        W85296  23.489   5.483  19.913  0.0810  0.0316  0.2319
84433W        W85297  22.408   4.181  21.098 -0.2404  0.1574  0.2213
84434W        W85298  26.458   1.277  19.512  0.3305 -0.3192  0.1236
84435W        W85299  28.157   6.875  21.042 -0.0415 -0.0522 -0.0522
84436W        W85300  26.528   6.431  20.083  0.1030 -0.1506 -0.1623
84437W        W85301  25.866   1.947  18.607  0.0049 -0.3026  0.1209
84438W        W85302  24.026   7.676  22.382  0.1579  0.1371 -0.0905
84439W        W85303  27.587   7.635  20.482 -0.1346 -0.0527 -0.1190
84440W        W85304  23.896   3.958  19.446 -0.1524  0.1467 -0.0882
84441W        W85305  26.187   5.027  22.274 -0.1656 -0.4352  0.0713
84442W        W85306   2.156   3.213  20.104  0.0006  0.0511 -0.2418
84443W        W85307  28.348   4.583  23.317  0.2246  0.2066  0.1209
84444W        W85308  26.007   4.974  19.067 -0.1790  0.0152  0.1688
84445W        W85309  28.356   7.382  18.926 -0.0719  0.0576 -0.0853
84446W        W85310  25.567   5.545  17.542  0.0446 -0.2466  0.2237
84447W        W85311  27.224   5.295  19.856 -0.0110 -0.0415  0.4960
84448W        W85312  26.129   5.252  20.609  0.1817  0.2940  0.3963
84449W        W85313  27.619   3.700  21.128 -0.3515 -0.2561 -0.1388
84450W        W85314  27.844   7.327  21.051 -0.3060 -0.1336 -0.0209
84451W        W85315  27.767   3.933  18.884 -0.1102  0.4415  0.2451
84452W        W85316  26.834   5.801  21.108 -0.0098 -0.0739  0.1234
84453W        W85317  28.196   8.066  19.189  0.4340  0.3409 -0.1340
84454W        W85318   0.353   6.592  20.610  0.0735 -0.0969  0.1252
84455W        W85319  28.907   6.879  24.553 -0.1327  0.0586  0.1643
84456W        W85320  25.958   6.047  20.190  0.1881  0.2423  0.2590
84457W        W85321  26.690   7.902  22.072 -0.1065  0.2013  0.2408
84458W        W85322  28.134   9.421  19.890 -0.2322 -0.2778 -0.0465
84459W        W85323  25.130   4.408  19.578 -0.0722  0.0860  0.0949
84460W        W85324   0.172   6.977  19.678  0.0682  0.0634  0.0915
84461W        W85325  25.580   5.316  20.617  0.0325 -0.1241 -0.1444
84462W        W85326  25.422   5.392  19.621  0.0495 -0.2907  0.1925
84463W        W85327   0.450   4.828  20.037  0.0825 -0.0461 -0.0651
84464W        W85328   0.151   7.443  19.637 -0.3460  0.2379  0.1804
84465W        W85329  26.098   6.551  20.322  0.0461 -0.0576 -0.0409
84466W        W85330   0.237  10.460  18.973  0.0279 -0.1312  0.2040
84467W        W85331  24.952   8.658  18.952 -0.3999  0.0528  0.2758
84468W        W85332  24.750   5.059  19.367  0.0095 -0.1383 -0.1523
84469W        W85333  26.625   4.194  19.079 -0.1604 -0.0801  0.0641
84470W        W85334   1.943   3.490  22.267  0.0207  0.1780 -0.0139
84471W        W85335  27.777   5.241  20.071  0.3217 -0.1126 -0.1323
84472W        W85336  27.839   3.812  17.794 -0.0475 -0.1151  0.3094
84473W        W85337  28.118   9.029  19.352 -0.3980  0.0368  0.0019
84474W        W85338  24.687   3.089  17.380 -0.0081 -0.2093 -0.0302
84475W        W85339  28.868   8.021  21.172 -0.0600 -0.3235 -0.1682
84476W        W85340  25.823   6.464  19.895  0.0144 -0.1119 -0.1163
84477W        W85341  23.917   6.116  18.008  0.0471 -0.1107 -0.1091
84478W        W85342  28.059   5.724  19.111 -0.2206  0.0275  0.2706
84479W        W85343  28.055   5.397  18.754 -0.2479  0.0644  0.1090
84480W        W85344  27.815   4.535  21.802  0.5601  0.1842  0.0481
84481W        W85345  26.885   8.623  17.929  0.4354 -0.0854  0.1891
84482W        W85346   0.926   4.044  16.182 -0.1809  0.0777 -0.0436
84483W        W85347  28.911   6.026  18.771  0.4296 -0.2295  0.1345
84484W        W85348  22.982   7.411  18.073 -0.3359  0.1617 -0.1188
84485W        W85349  27.421   7.310  22.873  0.1072  0.1983 -0.3159
84486W        W85350  26.708   6.507  17.744 -0.0527  0.0769  0.2785
84487W        W85351  28.030   4.062  18.456  0.0614 -0.0328  0.2247
84488W        W85352   0.074   3.407  22.657  0.2259 -0.2436 -0.0647
84489W        W85353  27.060   4.067  16.210  0.0277 -0.2567 -0.2519
84490W        W85354  25.183   3.774  20.119  0.0064  0.1865 -0.1642
84491W        W85355  24.557   5.768  17.978  0.0960 -0.0372 -0.0137
84492W        W85356  27.317   4.459  17.633 -0.2395  0.1012  0.0227
84493W        W85357   0.703   7.185  21.148  0.3876  0.0536  0.0110
84494W        W85358  25.854   3.397  17.232  0.1668  0.1115 -0.1908
84495W        W85359   0.100   8.895  20.759 -0.3590  0.1516 -0.0358
84496W        W85360  29.013   5.033  20.772  0.1229 -0.2629  0.1060
84497W        W85361   0.782   8.471  18.607 -0.1787 -0.1473  0.0786
84498W        W85362  28.837   4.857  21.373  0.1442  0.0971 -0.3946
84499W        W85363  25.663   6.645  17.893 -0.1666 -0.2737 -0.2557
84500W        W85364  24.963   6.113  19.655  0.2101 -0.0198 -0.1429
84501W        W85365  28.248   6.992  19.691 -0.2735 -0.1401 -0.2701
84502W        W85366   0.789   8.213  17.625  0.2841 -0.0858  0.0161
84503W        W85367  26.113   5.729  20.531 -0.2495  0.2272  0.0431
84504W        W85368  25.017   5.501  19.345 -0.2257 -0.0850 -0.0757
84505W        W85369  26.460   3.619  19.416  0.0167 -0.0261 -0.4142
84506W        W85370  26.611   1.558  19.989 -0.1479 -0.1290  0.0312
84507W        W85371  26.409   4.168  19.616 -0.1860 -0.0842 -0.0133
84508W        W85372  26.038   4.408  16.848  0.0167  0.1808 -0.1707
84509W        W85373  27.694   6.998  21.409  0.0799  0.2326 -0.1878
84510W        W85374  25.959   6.224  22.651 -0.1011 -0.0811  0.0177
84511W        W85375   0.679   7.221  19.499 -0.0694 -0.0408  0.1236
84512W        W85376  26.354   2.973  21.077  0.1259 -0.0018 -0.1143
84513W        W85377  27.878   6.605  18.821  0.1520 -0.1092 -0.2345
84514W        W85378  27.179   5.630  18.765  0.0253 -0.0775  0.3607
84515W        W85379  27.127   3.530  17.740 -0.0706  0.2407 -0.0224
84516W        W85380  27.117   4.991  19.425  0.1516  0.4664  0.1146
84517W        W85381  24.620   7.917  21.960  0.0135  0.1194  0.2342
84518W        W85382   1.510   4.515  19.849  0.0683 -0.0196  0.2090
84519W        W85383   0.094   4.444  21.520 -0.0174 -0.2815  0.2784
84520W        W85384  28.728   6.600  18.869  0.0213 -0.0318 -0.1329
84521W        W85385  25.324   0.737  19.488 -0.4786  0.1067 -0.1228
84522W        W85386  26.859   3.941  19.414  0.0585  0.1811  0.0279
84523W        W85387  27.615   6.143  18.147  0.1891  0.2321 -0.2627
84524W        W85388  26.198   6.305  21.938  0.0237  0.2946  0.1914
84525W        W85389  27.513   2.924  18.277  0.0930  0.1733 -0.1981
84526W        W85390   0.161   6.422  19.671 -0.1729  0.0287 -0.0184
84527W        W85391  27.264   1.516  22.424  0.0049 -0.0702  0.2278
84528W        W85392  28.157   7.326  21.453  0.2956  0.2481 -0.1968
84529W        W85393  28.267   6.912  19.111  0.0061 -0.0672  0.0461
84530W        W85394   2.370   6.641  18.814 -0.2395 -0.3133  0.2650
84531W        W85395  25.388   4.460  20.451  0.1713 -0.0945  0.2038
84532W        W85396  25.199   3.793  18.475  0.4022 -0.0551  0.2443
84533W        W85397  25.069   5.149  19.933 -0.1006 -0.0617 -0.0767
84534W        W85398  28.098   8.184  20.874  0.0267 -0.0894 -0.0588
84535W        W85399   0.038   2.860  18.949  0.0390 -0.0794 -0.1466
84536W        W85400  26.857   7.900  20.225  0.1839 -0.2817  0.4475
84537W        W85401   0.753   6.366  20.751 -0.0236  0.2067 -0.1569
84538W        W85402  26.987   6.996  20.254 -0.0608  0.0962  0.0310
84539W        W85403   0.200   4.174  22.008  0.0717  0.1359  0.2197
84540W        W85404  25.143   6.542  22.542 -0.1930 -0.3423  0.3254
84541W        W85405  26.858   4.821  18.607 -0.1132 -0.1387  0.0258
84542W        W85406  28.776   7.009  18.427  0.0892  0.2722 -0.2088
84543W        W85407  27.415   3.173  19.406  0.0323 -0.0248 -0.0009
84544W        W85408   0.939   6.789  19.236 -0.0244 -0.0540 -0.0920
84545W        W85409  27.420   3.484  18.234 -0.1177 -0.2493 -0.2283
84546W        W85410  26.753   5.561  19.034  0.0821 -0.1591 -0.3153
84547W        W85411  28.966   5.552  19.081  0.1241 -0.3107  0.1231
84548W        W85412  27.975   7.436  18.436 -0.2607  0.1084  0.0463
84549W        W85413  25.879   6.857  20.651  0.5922  0.0731  0.0324
84550W        W85414  27.534   6.273  20.140 -0.0045  0.1032  0.1438
84551W        W85415   0.003   9.264  19.350  0.0956 -0.3554  0.2717
84552W        W85416   1.278   5.069  17.361  0.0706  0.0415  0.0808
84553W        W85417  27.625   8.416  24.855  0.1042 -0.3004 -0.2475
84554W        W85418  29.135   5.529  20.830 -0.1827 -0.0726  0.1392
84555W        W85419  27.457   7.997  21.490  0.1084  0.4053  0.0075
84556W        W85420  27.939   5.302  20.538  0.5378 -0.0013  0.1574
84557W        W85421  28.983   6.628  19.974  0.1289 -0.2113  0.1133
84558W        W85422  24.186   4.398  19.597  0.0219  0.1577 -0.1288
84559W        W85423   0.748   2.849  17.685  0.0071  0.3096 -0.3176
84560W        W85424  27.827   6.552  20.495  0.0369  0.2642 -0.2980
84561W        W85425   0.430   7.665  19.264  0.1615 -0.0059  0.0862
84562W        W85426  27.649   9.005  21.800  0.3196  0.2391 -0.2796
84563W        W85427  27.624   6.526  17.057  0.2583  0.2061  0.1096
84564W        W85428  25.943   2.165  22.695  0.1116  0.1475  0.1231
84565W        W85429  27.435   4.788  18.820 -0.2348 -0.0553 -0.3486
84566W        W85430  26.466   3.908  19.998  0.3590 -0.1024  0.1494
84567W        W85431  26.277   4.273  20.896  0.2729  0.2062  0.0394
84568W        W85432  25.344   5.227  16.838 -0.3477 -0.0885  0.0655
84569W        W85433  26.982   4.156  20.564  0.0502 -0.2009  0.0479
84570W        W85434   1.094   5.820  17.721 -0.2247 -0.0039  0.0759
84571W        W85435  28.654   4.873  21.924 -0.2361 -0.0730  0.3480
84572W        W85436  27.279   4.357  18.295 -0.2408  0.0097 -0.2690
84573W        W85437   0.812   7.306  17.750 -0.2562  0.0559 -0.1323
84574W        W85438  27.660   2.466  18.155  0.3332  0.1121  0.2186
84575W        W85439  28.806   5.554  18.622 -0.0334 -0.1893  0.0228
84576W        W85440  28.108   6.256  14.212 -0.0507 -0.0054  0.1935
84577W        W85441  28.424   4.612  21.059  0.1727 -0.0817  0.4192
84578W        W85442  24.344   3.974  18.665  0.2658  0.3692 -0.0201
84579W        W85443  25.074   4.647  20.793  0.1336  0.1907 -0.3079
84580W        W85444  27.683   7.401  17.917  0.0935 -0.1964 -0.0785
84581W        W85445  27.112   2.175  18.714 -0.3193  0.1343  0.0219
84582W        W85446  27.285   9.311  17.498  0.0666  0.2432 -0.0547
84583W        W85447  27.301   3.280  22.184  0.1505 -0.1466  0.1927
84584W        W85448  26.006   6.423  20.832  0.0500 -0.0395  0.0171
84585W        W85449  26.896   6.126  20.312 -0.1965 -0.1749 -0.1140
84586W        W85450  28.467   4.811  19.442 -0.1351  0.0767  0.0336
84587W        W85451  27.691   2.880  21.069  0.2677 -0.1816  0.2829
84588W        W85452  26.926   4.997  20.978 -0.2605 -0.1281 -0.2299
84589W        W85453  26.029   4.285  16.302  0.1189 -0.1042  0.0711
84590W        W85454  26.151   4.600  20.526 -0.0131 -0.1830 -0.0858
84591W        W85455  27.501   4.248  20.574  0.3789  0.2712 -0.1104
84592W        W85456  24.571   6.258  19.331  0.1682  0.4258 -0.2148
84593W        W85457  27.909   8.540  22.116 -0.0409  0.3521 -0.0016
84594W        W85458  28.208   3.763  19.300  0.1159 -0.1277  0.0262
84595W        W85459   0.615   4.969  17.954  0.2672  0.0738  0.2738
84596W        W85460  28.436   6.522  19.806 -0.1584  0.0549 -0.0860
84597W        W85461  25.571   2.817  18.598  0.0330 -0.0161  0.0691
84598W        W85462   0.325   5.411  17.796 -0.0770  0.4107  0.0715
84599W        W85463  27.585   6.397  22.419 -0.1834 -0.1892  0.2755
84600W        W85464  25.583   5.808  20.447 -0.0409  0.1808 -0.1810
84601W        W85465  23.358   6.767  17.718  0.1017 -0.0473  0.0721
84602W        W85466  27.586   6.485  21.261  0.3116 -0.2639 -0.0663
84603W        W85467  27.879   4.928  18.902  0.0962  0.2320 -0.2176
84604W        W85468  27.785   7.907  17.484  0.1426 -0.0879 -0.1292
84605W        W85469  26.752   5.788  19.536  0.1097 -0.0039 -0.1154
84606W        W85470  27.912   4.409  19.005  0.0255 -0.1990  0.4020
84607W        W85471  26.788   4.947  16.604 -0.3510  0.0513  0.3336
84608W        W85472  29.118   7.061  21.460  0.1319 -0.2022 -0.2305
84609W        W85473   0.228   2.870  19.407 -0.1761  0.2127 -0.2134
84610W        W85474  25.865   4.418  20.127  0.3008 -0.0869 -0.1111
84611W        W85475  27.593   6.832  20.852  0.0614  0.0504  0.0703
84612W        W85476  26.220   4.897  20.100  0.5318 -0.2174 -0.0224
84613W        W85477  24.455   8.897  18.254 -0.1246  0.1626 -0.3248
84614W        W85478  26.307   8.872  17.473  0.0709 -0.2032  0.2635
84615W        W85479   0.558   7.034  24.768  0.2743  0.0772  0.0451
84616W        W85480  26.269   6.429  23.091 -0.1077  0.1162  0.1363
84617W        W85481  27.901   5.948  21.215 -0.0263  0.0064 -0.0727
84618W        W85482  24.355   3.574  21.352  0.2571 -0.3345 -0.0242
84619W        W85483  26.985   5.809  18.246  0.2695  0.0938  0.2124
84620W        W85484  25.869   1.461  21.522  0.0447 -0.0880 -0.2174
84621W        W85485  24.640   3.609  17.518  0.2715 -0.3355 -0.1920
84622W        W85486   0.007   2.988  21.807  0.1519 -0.2097 -0.2741
84623W        W85487  24.240   4.452  20.146 -0.1407 -0.2108 -0.0166
84624W        W85488  28.932   4.183  20.170 -0.0491 -0.1710  0.1909
84625W        W85489  29.069   6.053  21.102 -0.1265 -0.0162 -0.1872
84626W        W85490  25.516   3.067  20.012 -0.0334 -0.0456  0.1105
84627W        W85491  27.709   6.072  17.301 -0.0991 -0.0717  0.5332
84628W        W85492  26.016   1.395  17.090  0.1030 -0.0773  0.1037
84629W        W85493  27.828   7.057  23.120 -0.1543 -0.0542 -0.1555
84630W        W85494  27.007   5.855  16.832 -0.0492 -0.0475 -0.2417
84631W        W85495   1.024   5.532  16.005 -0.0273 -0.0374 -0.2805
84632W        W85496  27.199   9.229  18.309  0.0140  0.0628 -0.1427
84633W        W85497  25.943   5.784  21.364 -0.2133  0.2699 -0.1365
84634W        W85498  25.592   4.569  19.438  0.1033 -0.3964 -0.0638
84635W        W85499  26.122   4.021  17.883 -0.4510  0.0805 -0.1659
84636W        W85500  29.001   3.382  21.206  0.2152  0.0971  0.2646
84637W        W85501  28.146   6.919  20.270  0.3053 -0.2869  0.0659
84638W        W85502  28.800   4.518  17.663 -0.1523  0.3134 -0.1249
84639W        W85503  27.390   7.274  20.118 -0.0895  0.1474 -0.1082
84640W        W85504  25.429   9.641  17.339  0.0079 -0.0621 -0.1281
84641W        W85505   0.193   7.143  23.723 -0.0180  0.0041 -0.2550
84642W        W85506  25.833   7.942  21.758  0.0530  0.2003 -0.0782
84643W        W85507   2.704   4.752  20.901 -0.1621  0.2419  0.0705
84644W        W85508  28.373   3.771  17.858  0.2304  0.0576  0.2001
84645W        W85509  24.244   6.925  21.648  0.2012 -0.0714 -0.0054
84646W        W85510  27.537   2.394  16.400 -0.0993 -0.0828 -0.0569
84647W        W85511   0.641   8.255  20.121 -0.0979 -0.1237 -0.1599
84648W        W85512  24.643   4.966  20.298  0.0400  0.0552 -0.2576
84649W        W85513  28.096   4.248  23.571 -0.0801  0.2455  0.0408
84650W        W85514  29.107   5.581  19.547  0.0949  0.2163  0.2782
84651W        W85515   0.026   5.285  18.189 -0.1247 -0.0294 -0.0097
84652W        W85516  28.609   5.169  21.020 -0.3044 -0.1622  0.0568
84653W        W85517  25.605   7.071  22.188 -0.2960  0.2734  0.0186
84654W        W85518  24.230   3.991  19.866 -0.1410  0.1756 -0.0447
84655W        W85519  24.010   3.743  18.964  0.3767  0.1342  0.2285
84656W        W85520  28.536   7.387  19.490 -0.1256  0.2804 -0.0658
84657W        W85521  26.189   4.906  24.386  0.0544  0.0086  0.0137
84658W        W85522  28.319   5.890  20.562  0.0347  0.0955 -0.0528
84659W        W85523   0.080   7.746  17.878 -0.0448  0.1920 -0.2443
84660W        W85524  26.976   4.611  21.246  0.0064  0.0680  0.1629
84661W        W85525  29.147   8.486  21.116 -0.1554 -0.0380  0.1369
84662W        W85526   0.612   7.269  23.473 -0.0056  0.2481 -0.0519
84663W        W85527  28.366   7.301  16.918  0.0983 -0.0112 -0.2318
84664W        W85528  24.837   8.981  21.097  0.1464  0.0868  0.1787
84665W        W85529  23.849   4.175  21.228 -0.0691 -0.1269  0.0364
84666W        W85530  26.722   2.082  18.294 -0.0174 -0.2457  0.0744
84667W        W85531  26.611   4.028  21.418 -0.0449 -0.1372 -0.1980
84668W        W85532  26.529   5.975  19.149  0.1111 -0.1096  0.0334
84669W        W85533  28.416   5.948  18.796 -0.0809 -0.0235  0.0658
84670W        W85534  25.575   7.952  21.217 -0.0083  0.2257  0.0383
84671W        W85535   1.008   8.146  17.064 -0.1177 -0.1413 -0.2653
84672W        W85536  26.879   0.949  18.926  0.0011  0.2916 -0.3165
84673W        W85537  26.826   4.278  20.077  0.1086 -0.0354  0.0516
84674W        W85538  25.420   7.646  21.651  0.1182 -0.4018 -0.1052
84675W        W85539   0.497   7.822  21.409  0.0797 -0.0478 -0.1099
84676W        W85540  23.170   5.533  20.332 -0.0217 -0.0681  0.1445
84677W        W85541  26.283   5.048  19.538 -0.0850 -0.2781 -0.1893
84678W        W85542   0.256   8.453  18.012 -0.2511  0.0885  0.1014
84679W        W85543  26.926   4.236  17.854 -0.1966 -0.2090  0.0293
84680W        W85544  23.515   5.165  20.285 -0.0063  0.1895  0.1398
84681W        W85545  28.300   6.455  20.318  0.0580  0.0966  0.0835
84682W        W85546  28.455   7.042  17.971  0.0368  0.0016 -0.1629
84683W        W85547  26.003   4.964  18.241 -0.0655 -0.1534  0.2208
84684W        W85548  27.302   6.509  20.513  0.3275 -0.2021  0.3957
84685W        W85549  26.525   7.308  19.696 -0.0870  0.0174  0.2067
84686W        W85550  24.456   5.025  23.090  0.3201 -0.0406  0.5870
84687W        W85551  27.844   7.108  18.831  0.2112  0.2029 -0.3245
84688W        W85552  27.331   8.316  22.782 -0.3979  0.1762 -0.0413
84689W        W85553  28.674   8.323  18.521 -0.1196  0.0178 -0.1097
84690W        W85554   0.161   9.448  17.957 -0.1697  0.1905 -0.0554
84691W        W85555  26.835   4.340  21.795 -0.1134  0.0684 -0.2559
84692W        W85556   1.330   3.361  15.590 -0.4213  0.3699 -0.1512
84693W        W85557  26.990   5.101  20.383  0.0702  0.2507 -0.2206
84694W        W85558  29.026   5.147  22.083  0.0682 -0.3042 -0.0681
84695W        W85559  26.756   5.182  17.696 -0.0900  0.0621  0.2539
84696W        W85560  27.368   2.727  21.458  0.1628  0.0399  0.0726
84697W        W85561   0.104   7.595  20.111  0.2332  0.0536  0.1699
84698W        W85562  26.250   1.523  20.315 -0.3979  0.1381  0.3419
84699W        W85563  24.693   4.856  18.869  0.1291  0.2401 -0.1169
84700W        W85564  25.218   3.441  17.386  0.0567 -0.0230 -0.1816
84701W        W85565  25.486   6.070  19.946 -0.0201 -0.3256 -0.0227
84702W        W85566  25.218   7.853  18.687 -0.3830 -0.0336 -0.2236
84703W        W85567  28.284   4.258  19.561  0.1942  0.0385  0.0054
84704W        W85568  27.148   6.270  18.037 -0.2278 -0.2128 -0.1703
84705W        W85569  25.392   5.842  18.008 -0.0671  0.1121  0.0322
84706W        W85570  26.042   7.859  21.080 -0.3226  0.4529  0.2230
84707W        W85571   1.900   5.600  17.336  0.0096  0.1807 -0.2819
84708W        W85572  26.544   5.675  23.301 -0.1106 -0.0041  0.1961
84709W        W85573   0.146   4.608  19.591 -0.0188  0.1388  0.1057
84710W        W85574  25.255   3.363  20.477 -0.2315  0.2303  0.2251
84711W        W85575   0.534   3.745  19.680  0.5146  0.0943  0.1173
84712W        W85576   1.422   8.724  21.203  0.0949  0.0877 -0.0938
84713W        W85577   0.592   7.101  18.199 -0.0005  0.0066 -0.0358
84714W        W85578  27.494   4.712  19.272  0.3135 -0.3018 -0.0016
84715W        W85579  25.102   4.586  19.129  0.2231  0.0307 -0.3264
84716W        W85580  26.655   5.450  18.557  0.1317 -0.1552 -0.3073
84717W        W85581  27.895   6.510  18.100 -0.1499 -0.2095 -0.0427
84718W        W85582  26.264   8.017  19.288  0.3051  0.1073  0.2122
84719W        W85583  26.606   1.967  18.948  0.0193 -0.1672 -0.0830
84720W        W85584  28.650   5.468  20.656 -0.0929  0.3928  0.2019
84721W        W85585  27.108   4.475  19.609  0.3449 -0.1090  0.0687
84722W        W85586  22.491   5.672  19.954  0.1226  0.0947 -0.1424
84723W        W85587  25.077   8.677  18.433  0.1606  0.0628 -0.3261
84724W        W85588  25.375   3.113  21.275 -0.0671 -0.3211 -0.2717
84725W        W85589   0.453   5.094  23.019 -0.0543 -0.0320  0.0850
84726W        W85590  28.287   6.471  18.522 -0.2622  0.0288  0.1369
84727W        W85591  27.596   4.923  19.760  0.1795  0.0433  0.1226
84728W        W85592  27.195   9.181  19.517 -0.0252 -0.1700 -0.0108
84729W        W85593  28.227   3.861  21.065 -0.2558 -0.1356 -0.0497
84730W        W85594  27.015   1.619  18.152  0.1946  0.2143  0.0511
84731W        W85595  27.427   5.018  20.742 -0.2452 -0.0755  0.3432
84732W        W85596  25.044   7.660  18.210  0.1474 -0.1198 -0.1361
84733W        W85597  24.988   3.264  18.181 -0.2573 -0.0133 -0.0089
84734W        W85598  25.897   3.180  21.677 -0.1983 -0.1142  0.0131
84735W        W85599   0.220   4.375  20.075 -0.2320 -0.0328  0.0472
84736W        W85600  28.018   7.372  19.315 -0.0549  0.1347  0.0137
84737W        W85601  25.045   6.843  18.873 -0.0430  0.0078  0.2312
84738W        W85602  24.892   6.509  20.626 -0.0795 -0.0650 -0.1170
84739W        W85603  24.787   3.406  19.960 -0.0434  0.2099 -0.0603
84740W        W85604  27.366   6.275  17.531 -0.1115 -0.1739 -0.6023
84741W        W85605  28.343   5.564  19.562  0.0103 -0.1779 -0.1696
84742W        W85606  26.704   6.487  18.943 -0.4246 -0.1712  0.1694
84743W        W85607  26.654   6.180  18.186 -0.1856  0.1700 -0.1638
84744W        W85608  28.926   7.160  16.812 -0.3287  0.2239 -0.3271
84745W        W85609  25.675   6.615  22.771  0.0907  0.0315  0.1885
84746W        W85610   0.165   4.931  18.557 -0.1290  0.3587 -0.0733
84747W        W85611  26.817   4.702  17.620  0.3314 -0.0107  0.0291
84748W        W85612  27.619   7.498  21.536  0.0925  0.0219  0.2036
84749W        W85613  25.784   3.863  20.105  0.1644 -0.1877  0.2459
84750W        W85614  25.360   6.496  18.649  0.1033 -0.3805  0.1893
84751W        W85615  25.499   5.147  18.160  0.1324 -0.2668  0.1447
84752W        W85616  27.054   5.930  19.111  0.3151  0.4509 -0.1118
84753W        W85617   0.279   4.359  23.984  0.1734 -0.0047 -0.1873
84754W        W85618  28.912   6.703  15.349  0.1114  0.0313  0.2227
84755W        W85619  27.506   6.561  19.726  0.3145 -0.1385  0.0681
84756W        W85620   0.272   9.935  20.075  0.0624 -0.1883  0.0859
84757W        W85621  26.516   7.083  21.157  0.3087 -0.2098  0.0918
84758W        W85622  28.816   7.690  19.906  0.0441  0.2220 -0.0789
84759W        W85623  26.985   7.458  20.000 -0.0436  0.2338 -0.2201
84760W        W85624   0.426   4.113  21.320 -0.3099  0.0800 -0.0867
84761W        W85625  27.228   7.009  19.692 -0.1953 -0.2586  0.0691
84762W        W85626  27.732   1.818  19.532 -0.1990 -0.4256 -0.0805
84763W        W85627  27.427   5.824  20.004  0.2300  0.0243  0.1296
84764W        W85628  27.407   5.632  21.200 -0.1265 -0.2308 -0.1411
84765W        W85629  26.308  28.787  17.840 -0.1924  0.1632 -0.0627
84766W        W85630  23.984   7.271  19.219  0.2409  0.0036  0.5779
84767W        W85631  28.898   6.798  21.789 -0.2662 -0.3617  0.1337
84768W        W85632  27.077   6.514  19.531 -0.2750 -0.0848 -0.3919
84769W        W85633  26.850   4.295  17.315 -0.3889  0.2878 -0.3131
84770W        W85634  26.129   3.498  17.959 -0.1612  0.1396 -0.3155
84771W        W85635  27.154   7.747  20.711  0.0977  0.2335 -0.1913
84772W        W85636  25.939   2.289  20.534  0.0595  0.0666  0.0133
84773W        W85637  28.026   4.481  19.961 -0.0975 -0.2948  0.1113
84774W        W85638  26.212   0.984  19.182 -0.1066  0.1712 -0.0977
84775W        W85639  27.948   6.385  20.930 -0.3713  0.0259 -0.0746
84776W        W85640   0.237   8.925  21.215 -0.0262 -0.0666 -0.0279
84777W        W85641  26.999   8.037  19.129 -0.1687 -0.1144 -0.2517
84778W        W85642  28.167   4.385  17.319 -0.1119  0.1259 -0.1141
84779W        W85643  26.701   5.715  20.643  0.1474 -0.1378  0.0646
84780W        W85644  27.867   2.904  19.433 -0.1964 -0.1121  0.0213
84781W        W85645  27.253   6.757  23.223 -0.3227 -0.0565  0.1696
84782W        W85646  28.557   7.217  21.764  0.0841  0.2596 -0.1332
84783W        W85647  26.302   2.592  20.403 -0.1377  0.0810  0.1121
84784W        W85648  25.688   6.168  22.214  0.2085  0.1494 -0.0757
84785W        W85649  23.828   3.318  19.494 -0.4685 -0.0469 -0.1264
84786W        W85650  28.867   5.214  20.290 -0.1184  0.0443 -0.1131
84787W        W85651  26.686   7.904  20.718 -0.1194 -0.5130  0.0749
84788W        W85652  27.898   6.115  18.686  0.2204  0.0274 -0.2798
84789W        W85653  28.558   8.108  19.937  0.0547  0.1434 -0.1948
84790W        W85654   0.252   5.952  20.621 -0.1090 -0.0989  0.5105
84791W        W85655  28.766   4.910  14.822 -0.1408  0.3464  0.2187
84792W        W85656  28.592   1.536  19.931  0.2795  0.1341 -0.0454
84793W        W85657  28.764   3.413  18.117  0.2161 -0.2629 -0.1260
84794W        W85658   0.848   4.583  18.294  0.3735  0.1467  0.0927
84795W        W85659  28.394   6.313  15.614 -0.0467 -0.1433 -0.0953
84796W        W85660  28.389   3.382  19.831 -0.1078 -0.1638 -0.2440
84797W        W85661  28.482   8.703  17.290  0.3014  0.0602  0.1054
84798W        W85662  27.791   5.198  21.036  0.3530  0.0337 -0.2765
84799W        W85663  26.822   7.052  21.604  0.1924 -0.1863 -0.1443
84800W        W85664  26.792   6.543  23.084  0.0332 -0.2126  0.0166
84801W        W85665  26.202   7.495  22.847  0.0362  0.1372  0.2120
84802W        W85666  22.857   4.385  20.307  0.0215  0.0583 -0.1688
84803W        W85667  26.938   4.696  18.094 -0.1083  0.1975 -0.3328
84804W        W85668  25.474   4.936  17.423 -0.1141 -0.0232  0.1115
84805W        W85669  25.176   5.679  19.962  0.0927  0.1004 -0.0710
84806W        W85670   1.015   7.859  20.072 -0.1384  0.1639 -0.1539
84807W        W85671   1.600  10.508  18.876  0.2679  0.3192 -0.2072
84808W        W85672  26.242   5.150  18.650  0.1740  0.1726  0.0787
84809W        W85673  28.551   9.344  19.569 -0.0012  0.2640  0.2092
84810W        W85674  27.756   6.752  23.476 -0.2513  0.1380  0.1595
84811W        W85675  28.611   6.787  20.758  0.2072  0.1307  0.0312
84812W        W85676  28.359   7.642  21.049 -0.1767 -0.1276 -0.0181
84813W        W85677  28.454   7.297  20.037  0.1480 -0.2323  0.0256
84814W        W85678  24.499   6.028  20.630 -0.0319 -0.3027  0.0570
84815W        W85679  27.919   6.517  20.000  0.3180 -0.0342  0.1741
84816W        W85680   0.599   7.515  19.876 -0.2188  0.3213 -0.0946
84817W        W85681  24.963   5.577  18.718 -0.2385 -0.0601  0.2992
84818W        W85682  27.151   6.549  20.990 -0.2014 -0.1232 -0.0251
84819W        W85683  24.479   4.497  17.644  0.0913  0.2358  0.0288
84820W        W85684  25.525   6.962  21.174  0.0293 -0.2382  0.3535
84821W        W85685  27.735   6.977  18.294 -0.3684 -0.1833  0.0366
84822W        W85686  26.714   5.420  16.940 -0.4429  0.1495 -0.3115
84823W        W85687  26.030   6.258  24.933  0.0811 -0.1049 -0.0894
84824W        W85688  25.768   4.658  27.288  0.1630  0.1680 -0.1738
84825W        W85689  26.510   5.349  20.252 -0.2091 -0.1219  0.1573
84826W        W85690   1.502   7.857  23.583  0.0219  0.2685 -0.0113
84827W        W85691  27.429   7.449  24.631  0.0088  0.1884  0.2223
84828W        W85692   0.506   5.937  23.176 -0.2479 -0.0770 -0.1909
84829W        W85693  27.341   4.309  22.021 -0.1376 -0.0039 -0.1983
84830W        W85694   0.677   7.955  23.992  0.1676 -0.2873 -0.1994
84831W        W85695  24.388   4.601  27.708 -0.3084  0.0609  0.2589
84832W        W85696  26.420   4.490  24.655  0.3700 -0.0861  0.4920
84833W        W85697  25.861   4.013  25.313 -0.1187  0.0072 -0.0157
84834W        W85698  28.836   4.502  23.259  0.1918  0.0174 -0.1020
84835W        W85699  27.095   5.438  23.201 -0.0744 -0.1364  0.0909
84836W        W85700  27.108   5.205  25.811 -0.0438 -0.1801  0.2018
84837W        W85701  27.457   4.432  24.785 -0.1277  0.0626  0.1586
84838W        W85702  23.817   7.168  23.706 -0.2104 -0.2132  0.0418
84839W        W85703  28.127   8.428  21.678 -0.1150  0.1055  0.2090
84840W        W85704  25.170   6.730  23.063 -0.0674 -0.1019 -0.1406
84841W        W85705  27.390   5.845  24.383  0.0976 -0.0398  0.1282
84842W        W85706   0.923   4.533  21.498  0.0658  0.0944  0.1618
84843W        W85707  29.138   4.938  23.236  0.1499  0.3369  0.0519
84844W        W85708  28.231   6.465  24.845  0.0257  0.1249  0.0786
84845W        W85709  28.003   7.478  22.870  0.0655  0.0685 -0.1232
84846W        W85710  26.354   7.809  23.236  0.1121 -0.1425 -0.0160
84847W        W85711  23.795   6.211  23.295  0.2807 -0.0350  0.2618
84848W        W85712  25.223   5.684  23.561 -0.1742  0.0616  0.1108
84849W        W85713  27.882   5.988  24.644 -0.1235  0.3356  0.2438
84850W        W85714  28.767   6.628  22.632  0.0232 -0.0491  0.2120
84851W        W85715  25.740   6.567  24.510 -0.3015 -0.2289 -0.0461
84852W        W85716  27.201   6.620  21.522  0.1064 -0.0964 -0.0536
84853W        W85717  28.166   6.723  25.267  0.0540  0.1639 -0.0439
84854W        W85718  25.665   7.490  26.103 -0.2030 -0.5285 -0.3566
84855W        W85719  27.038   6.595  24.082 -0.1301 -0.0262  0.1442
84856W        W85720  25.814   6.973  26.142  0.4528  0.2866  0.1412
84857W        W85721  23.934   4.562  27.468  0.2192  0.0932  0.2222
84858W        W85722   1.278   7.312  27.371  0.0943 -0.1790  0.1262
84859W        W85723  24.161   5.954  23.602 -0.1075 -0.2483 -0.1254
84860W        W85724  25.928   6.779  23.206  0.0264  0.1884 -0.0122
84861W        W85725   1.550   8.764  22.554  0.0213 -0.0480  0.0891
84862W        W85726  27.020   6.400  25.005 -0.0297 -0.1311 -0.0561
84863W        W85727  27.804   4.920  22.164  0.0168  0.0251 -0.0904
84864W        W85728  28.594   5.203  24.568 -0.0122 -0.0508  0.3054
84865W        W85729  27.742  10.377  20.090 -0.1240  0.0357 -0.2307
84866W        W85730  28.193   5.594  22.046  0.1718 -0.0487 -0.0606
84867W        W85731  24.928   9.010  23.214  0.1368  0.0994 -0.0943
84868W        W85732  28.449   7.705  21.991  0.1505  0.1875 -0.1965
84869W        W85733  25.410   6.214  24.774 -0.1295 -0.0455  0.1430
84870W        W85734   0.365   8.439  22.556 -0.3330  0.1990 -0.3823
84871W        W85735  26.694   7.771  25.049  0.1208 -0.1367 -0.1540
84872W        W85736  27.182   4.142  21.050  0.1223  0.0090 -0.0038
84873W        W85737  27.766   7.076  24.421 -0.2034  0.1716  0.1511
84874W        W85738   0.174   5.575  22.929 -0.2409 -0.1777  0.0834
84875W        W85739  22.896   8.349  27.643  0.1447 -0.0446  0.0918
84876W        W85740   1.347   2.110  19.169 -0.0022  0.1161  0.0235
84877W        W85741  25.673   6.078  21.713  0.1805 -0.1086 -0.4269
84878W        W85742  25.557   5.600  21.859  0.1967 -0.0539 -0.1464
84879W        W85743  25.778   3.449  22.096  0.2092 -0.2006 -0.1151
84880W        W85744  25.723   6.014  20.960  0.1135  0.0270 -0.1036
84881W        W85745  28.565   5.303  22.226  0.0558 -0.0573 -0.1308
84882W        W85746  29.079   7.521  23.821 -0.0822 -0.4362  0.1589
84883W        W85747  29.112   2.442  21.435  0.2038 -0.1751  0.0033
84884W        W85748  25.761   7.845  22.611 -0.2382  0.3084  0.1527
84885W        W85749  26.022   7.355  24.694 -0.0154 -0.4159 -0.1307
84886W        W85750  27.621   7.691  23.311 -0.0898  0.0233  0.4045
84887W        W85751  26.931   5.455  22.667  0.0230 -0.0621 -0.1642
84888W        W85752   1.470   4.878  23.353  0.4603  0.1026  0.0411
84889W        W85753  25.380   6.223  22.904  0.1866  0.1378 -0.0537
84890W        W85754  25.561   1.246  22.493  0.0016  0.0084  0.4423
84891W        W85755  27.856   6.304  23.715  0.1430 -0.3374 -0.1834
84892W        W85756  25.548   8.032  22.203  0.2582  0.1613 -0.1339
84893W        W85757  27.524   7.081  26.888 -0.2011 -0.0837  0.2414
84894W        W85758  26.462   6.550  21.000  0.0080 -0.0691  0.0687
84895W        W85759  27.868   7.213  23.822 -0.0121  0.0005  0.0577
84896W        W85760  28.898   5.617  24.170  0.0557  0.1248  0.0441
84897W        W85761  27.294   6.053  21.007 -0.2229  0.0420 -0.3927
84898W        W85762  26.576   5.628  25.652  0.2887 -0.0220 -0.1023
84899W        W85763  25.770   5.729  19.773  0.1490  0.0091 -0.4454
84900W        W85764  27.022   7.555  25.396 -0.0800  0.2289  0.0147
84901W        W85765  26.450   6.179  22.664  0.0360  0.2512  0.1444
84902W        W85766  27.265   6.218  23.193 -0.2085 -0.0993  0.3354
84903W        W85767  23.540   5.970  24.279 -0.0507  0.0472 -0.0299
84904W        W85768  24.868   6.525  24.785  0.0671 -0.0700 -0.0613
84905W        W85769  26.785   2.802  21.633 -0.0509 -0.2609  0.2231
84906W        W85770  25.853   4.487  23.121 -0.2131 -0.1475 -0.1377
84907W        W85771  27.930   2.794  26.534 -0.0387  0.4527  0.0675
84908W        W85772  24.650   7.123  24.275  0.1066 -0.1808 -0.2115
84909W        W85773  27.450   6.330  25.257 -0.1503 -0.1075 -0.0629
84910W        W85774  26.838   5.226  24.961  0.1342  0.0713 -0.0854
84911W        W85775  28.030   4.904  25.908  0.0072 -0.0472  0.0470
84912W        W85776  27.401   4.533  24.246 -0.1858 -0.2490 -0.1279
84913W        W85777  26.888   5.356  21.328 -0.0336 -0.0666 -0.1458
84914W        W85778  28.581   4.257  26.879 -0.0887  0.1307 -0.1215
84915W        W85779   0.424   6.544  21.462 -0.1171  0.1342  0.1235
84916W        W85780  27.872   4.637  22.594  0.1769  0.0949 -0.0407
84917W        W85781  25.516   5.346  25.061  0.2583 -0.0383  0.1412
84918W        W85782   0.167   8.104  20.230  0.1598  0.1757 -0.1360
84919W        W85783   1.028   2.489  22.802  0.0076  0.1641  0.2264
84920W        W85784  24.871   8.228  27.226  0.2481  0.0366 -0.0312
84921W        W85785  26.267   4.784  20.983  0.0624 -0.0791 -0.2475
84922W        W85786  28.308   4.779  22.746  0.1168  0.0218  0.1227
84923W        W85787  26.455   5.876  20.092  0.1607 -0.2280 -0.2029
84924W        W85788  24.176   5.417  21.228  0.3542 -0.3001 -0.0911
84925W        W85789  28.015   2.865  19.922  0.0623  0.1036 -0.0541
84926W        W85790   2.100   8.517  22.193  0.1541 -0.0640 -0.0443
84927W        W85791   0.501   5.772  21.034  0.2331 -0.0928  0.1291
84928W        W85792  27.278   5.518  24.943 -0.1488  0.1449  0.0901
84929W        W85793   1.188   7.491  23.210 -0.0071 -0.8000  0.2815
84930W        W85794  27.918   7.992  27.380 -0.1612  0.2940  0.1887
84931W        W85795  27.195   3.465  25.179  0.0028 -0.0068 -0.0532
84932W        W85796  26.375   2.421  19.895 -0.0255  0.1150  0.0635
84933W        W85797  22.546   6.772  24.321  0.1236 -0.3154 -0.0413
84934W        W85798  28.513   6.866  25.568 -0.1204 -0.0313  0.0458
84935W        W85799  27.266   2.012  22.558 -0.0056 -0.1286  0.2036
84936W        W85800   1.841   6.151  23.143  0.1294  0.2298  0.0133
84937W        W85801  28.812   6.163  19.790 -0.2051 -0.2033 -0.2625
84938W        W85802  26.593   6.289  24.033 -0.0895  0.2337 -0.0678
84939W        W85803  28.836   5.748  28.744  0.2836  0.1561 -0.1194
84940W        W85804  26.327   6.306  25.878  0.0516  0.2922  0.1879
84941W        W85805  26.276   4.724  27.084 -0.2475  0.0295  0.1899
84942W        W85806   0.567   5.704  20.008 -0.1524  0.0693 -0.2783
84943W        W85807  27.115   3.165  20.681 -0.2388  0.1683  0.3420
84944W        W85808  28.294   5.920  23.014 -0.1213 -0.0463  0.0729
84945W        W85809   0.025  10.604  24.053  0.1759  0.1105 -0.0422
84946W        W85810  28.671   6.706  23.410  0.2563  0.1339 -0.1296
84947W        W85811  26.102   7.039  24.271  0.0958  0.1288  0.0373
84948W        W85812  26.011   7.331  22.351 -0.1559  0.4580  0.1080
84949W        W85813  27.703   4.148  24.032  0.2400  0.1529  0.1575
84950W        W85814  28.238   5.477  23.885 -0.0726  0.0034 -0.1548
84951W        W85815   0.522   6.247  24.971 -0.1976 -0.1383 -0.0520
84952W        W85816   0.111   7.258  19.046 -0.0023 -0.1017 -0.1202
84953W        W85817  26.727   8.033  25.551  0.0427  0.1556  0.2021
84954W        W85818  26.358   5.429  25.217  0.1313 -0.1913 -0.1433
84955W        W85819  26.573   7.229  24.494  0.0810 -0.4470 -0.0570
84956W        W85820  26.717   5.268  19.780 -0.1752  0.0020 -0.0229
84957W        W85821  27.284   6.927  24.840 -0.1897  0.0054 -0.0522
84958W        W85822  23.954   5.978  22.881 -0.2353 -0.1449  0.0447
84959W        W85823  27.444   6.056  23.639  0.0223 -0.2347  0.0564
84960W        W85824  29.144   6.121  25.607 -0.3020 -0.1918  0.2476
84961W        W85825  28.318   4.634  21.642 -0.0821 -0.2328  0.0030
84962W        W85826  27.646   5.564  23.875  0.2913 -0.4286 -0.0851
84963W        W85827  26.977   5.862  23.435  0.0033 -0.3939 -0.0381
84964W        W85828  25.231   6.732  24.409 -0.2687  0.1040  0.2247
84965W        W85829  26.308   7.512  21.926 -0.0941  0.0673  0.0668
84966W        W85830  24.384   5.918  23.144  0.1724 -0.0607 -0.2148
84967W        W85831  29.060   8.584  25.145  0.4201 -0.1730 -0.0616
84968W        W85832   1.542   3.221  22.843 -0.1120  0.2215 -0.2809
84969W        W85833  28.492   4.235  22.887  0.4455  0.0788  0.1484
84970W        W85834   1.498   7.502  19.234  0.3055 -0.0065  0.1709
84971W        W85835  28.991  10.785  23.528 -0.2606 -0.0492 -0.2953
84972W        W85836  29.048  10.390  21.670  0.1363 -0.0868  0.0639
84973W        W85837  27.783   7.848  24.822  0.1821  0.4304 -0.0391
84974W        W85838  26.169   5.815  21.793  0.1355 -0.2170 -0.0809
84975W        W85839  26.129   5.918  23.309  0.0270 -0.0023 -0.1649
84976W        W85840  24.235   4.487  21.054  0.0266 -0.0000  0.0866
84977W        W85841  28.184   5.134  24.297 -0.1036  0.0391 -0.1112
84978W        W85842   0.119   4.457  24.536 -0.0092 -0.0695 -0.1391
84979W        W85843  24.523   3.311  23.514 -0.1186 -0.2173 -0.0324
84980W        W85844  27.027   6.576  20.022 -0.0907  0.1522 -0.5208
84981W        W85845  27.288   4.175  19.185 -0.0179  0.1622 -0.1128
84982W        W85846   0.856   6.442  23.382 -0.4382  0.0230 -0.1330
84983W        W85847  27.632   3.265  25.285  0.0072 -0.0238 -0.1676
84984W        W85848  25.452   5.540  26.978  0.1592  0.3567 -0.0870
84985W        W85849  25.968   7.653  25.727 -0.2095 -0.2113 -0.0277
84986W        W85850  29.097   6.981  25.376 -0.2486  0.1593  0.0099
84987W        W85851  27.799   4.010  25.845 -0.2311  0.0725  0.2894
84988W        W85852  23.639   6.353  24.665  0.0216  0.1702  0.1388
84989W        W85853  26.703   4.151  24.869  0.1681 -0.1059 -0.0717
84990W        W85854  26.221   9.603  22.855  0.0077 -0.0416 -0.3062
84991W        W85855  24.377  10.067  25.585 -0.1787  0.1281  0.2419
84992W        W85856  28.604   7.169  21.168 -0.0502 -0.1713 -0.0308
84993W        W85857  28.764   5.721  25.392 -0.2873  0.0838  0.1811
84994W        W85858  28.056   6.536  21.438  0.2021  0.0777 -0.1272
84995W        W85859  27.172   5.461  24.092 -0.1583 -0.1119 -0.0700
84996W        W85860  25.680   5.695  18.909 -0.2852 -0.0538  0.1819
84997W        W85861  28.776   5.845  22.337 -0.0641 -0.0154 -0.3274
84998W        W85862  27.330   3.669  19.319 -0.0491  0.1967  0.1476
84999W        W85863  26.552   6.275  26.362  0.1952  0.1286  0.0689
85000W        W85864  26.042   5.762  22.752 -0.0355  0.1218 -0.1205
85001W        W85865  25.562   7.104  23.250 -0.3069 -0.5378 -0.0569
85002W        W85866  28.709   5.321  23.795 -0.0578 -0.1741  0.0808
85003W        W85867  28.745   7.260  22.212  0.2186  0.0274  0.0554
85004W        W85868   0.254   6.093  22.821  0.2404  0.0958  0.3518
85005W        W85869  27.313   7.816  22.388 -0.2161 -0.1018  0.0089
85006W        W85870  25.522   5.311  20.122 -0.0677 -0.2333  0.3378
85007W        W85871  24.638   3.877  20.213  0.0961  0.1811 -0.1798
85008W        W85872  27.845   7.789  26.769  0.1083  0.0409  0.0925
85009W        W85873  27.517   5.993  22.836 -0.0820  0.5109 -0.2819
85010W        W85874  25.485   3.105  22.002 -0.3718 -0.2737  0.0820
85011W        W85875  28.063   7.426  24.766  0.1042  0.1613  0.0087
85012W        W85876  27.063   6.057  24.003  0.0600  0.2373 -0.0008
85013W        W85877  25.302   2.579  21.990 -0.0411 -0.2499 -0.1101
85014W        W85878  25.381   5.166  24.647 -0.0319  0.0472  0.0569
85015W        W85879  26.218   4.666  27.588  0.0707  0.1089  0.1655
85016W        W85880  25.662   6.620  25.016  0.2306 -0.2216  0.0263
85017W        W85881  28.021   4.417  23.024  0.1551  0.0641 -0.3192
85018W        W85882  26.698   1.247  20.850 -0.2629 -0.2159  0.2264
85019W        W85883  28.168   5.568  21.007  0.0521  0.2615  0.0796
85020W        W85884  24.815   4.920  23.440  0.6655  0.1104  0.1915
85021W        W85885  27.157   3.885  23.192 -0.0813 -0.0387  0.1241
85022W        W85886  27.607   3.602  22.692 -0.5358  0.1378  0.3750
85023W        W85887  25.240   6.031  21.994  0.0040  0.1336  0.1315
85024W        W85888   0.787   4.007  25.144 -0.1666 -0.1007  0.1730
85025W        W85889   2.026   6.615  21.040  0.0381 -0.2208 -0.2554
85026W        W85890  26.066   3.833  23.491  0.2642 -0.0946  0.0025
85027W        W85891  24.910   6.032  24.858  0.3004  0.1204 -0.1017
85028W        W85892  26.528   3.564  25.877  0.3333 -0.1204 -0.1763
85029W        W85893  24.537   6.884  24.716  0.0044  0.3030  0.0872
85030W        W85894   1.389   5.327  23.646 -0.0641  0.1853  0.2230
85031W        W85895  28.917   7.590  20.954  0.0700 -0.1703  0.0648
85032W        W85896  27.124   5.470  20.781 -0.1446  0.0652 -0.0786
85033W        W85897  26.442   5.868  24.965  0.3860 -0.0031 -0.0192
85034W        W85898  24.585   3.359  20.956 -0.1950 -0.1230  0.1539
85035W        W85899  26.693  10.944  24.162 -0.0907 -0.0128  0.2572
85036W        W85900  29.114   2.574  23.844  0.0638 -0.0968 -0.1685
85037W        W85901  27.386   6.537  23.641 -0.0528 -0.1870  0.0873
85038W        W85902  28.275   4.754  22.231  0.1685  0.0769 -0.2033
85039W        W85903  25.926   6.601  23.859 -0.0516  0.2237 -0.1853
85040W        W85904   1.671   6.970  22.464  0.1565  0.0333  0.1136
85041W        W85905  27.530   7.423  24.083 -0.0430  0.0735 -0.0201
85042W        W85906  25.648   5.881  26.184  0.3052 -0.0648 -0.0245
85043W        W85907   1.023   8.092  25.024  0.0392  0.2948  0.3373
85044W        W85908   1.394   5.783  23.932  0.2384 -0.0860  0.0635
85045W        W85909  27.077  10.128  24.211 -0.0215  0.1291 -0.0273
85046W        W85910  26.777   2.519  21.211  0.1849  0.4640  0.1494
85047W        W85911  29.025   5.599  21.419 -0.0780  0.3462  0.1519
85048W        W85912  28.285   5.557  27.337 -0.0090 -0.2933 -0.1234
85049W        W85913  27.843   6.025  24.131  0.2734 -0.0495 -0.0054
85050W        W85914  27.218   6.301  24.472 -0.2035  0.1678  0.1814
85051W        W85915  28.129   7.936  22.607 -0.0007  0.0372  0.0261
85052W        W85916  28.329   6.091  24.461  0.2103 -0.0315 -0.1283
85053W        W85917  26.655   4.391  24.123  0.1072 -0.1528 -0.1332
85054W        W85918  26.563   6.833  24.177 -0.0058  0.3479  0.1582
85055W        W85919  24.767   6.868  21.646 -0.3698  0.0353  0.3114
85056W        W85920  26.620   5.831  23.828  0.0104 -0.0717  0.1290
85057W        W85921  24.637   8.521  23.763 -0.0193  0.2622  0.2441
85058W        W85922  24.336   6.690  24.289  0.0498  0.0654 -0.0337
85059W        W85923   0.690   4.341  19.722  0.0296  0.4404  0.2174
85060W        W85924  27.266   3.966  24.975 -0.0252  0.0156 -0.1957
85061W        W85925   0.755   6.768  22.713  0.3674  0.0184 -0.0290
85062W        W85926  27.948   5.770  25.472  0.2024 -0.0395  0.1559
85063W        W85927   1.970   7.137  19.941 -0.1588 -0.0829 -0.2373
85064W        W85928  22.580   5.076  25.586 -0.2186  0.2502 -0.2466
85065W        W85929  25.123   6.233  24.349 -0.0930  0.1558  0.3118
85066W        W85930  26.569   0.708  19.476 -0.2193  0.0446  0.0358
85067W        W85931  27.923   5.426  22.959  0.3514 -0.1006  0.1421
85068W        W85932  25.921   4.822  21.805 -0.0792 -0.3128 -0.1710
85069W        W85933  28.127   5.098  21.840  0.0262  0.1817  0.0133
85070W        W85934  24.607   8.710  25.813 -0.1990  0.0419 -0.2801
85071W        W85935   0.774   6.278  22.398 -0.2254 -0.1716  0.2570
85072W        W85936  27.577   4.280  25.233  0.1692  0.1777  0.1233
85073W        W85937  27.110   5.692  25.627  0.3544 -0.1060  0.2539
85074W        W85938  28.390   8.364  24.358  0.0755 -0.0615  0.1018
85075W        W85939  27.337   7.941  26.545  0.0222 -0.0810 -0.2519
85076W        W85940  26.033   7.207  26.947 -0.1205 -0.0417  0.3570
85077W        W85941  25.120   7.686  20.998 -0.1911  0.1914  0.0125
85078W        W85942  24.293   5.315  20.403 -0.1492  0.3386  0.2205
85079W        W85943   0.830   1.516  22.594  0.1658 -0.3801 -0.0640
85080W        W85944  26.867   3.465  23.063 -0.1124 -0.1908 -0.1857
85081W        W85945  26.838   6.392  22.317 -0.1698  0.5998 -0.1847
85082W        W85946  29.088   5.659  23.696 -0.0255  0.0386 -0.2751
85083W        W85947   1.691   6.136  23.668 -0.2756 -0.0384  0.0577
85084W        W85948  22.326   5.481  25.832 -0.2202  0.0024 -0.3478
85085W        W85949  28.273   6.203  23.514 -0.2773 -0.0865  0.2500
85086W        W85950  24.784   6.578  24.264  0.2897 -0.1097 -0.1309
85087W        W85951  26.940   8.596  22.626  0.0437 -0.2206 -0.0736
85088W        W85952  25.506   7.109  27.040  0.1739  0.0450 -0.1407
85089W        W85953  26.571   5.120  24.027  0.0256 -0.1369 -0.0120
85090W        W85954   0.237   6.005  21.507 -0.0424 -0.4502 -0.3781
85091W        W85955  26.169   5.655  26.907  0.2700 -0.2228  0.3510
85092W        W85956  28.984   4.416  22.768 -0.1629  0.2823 -0.0049
85093W        W85957  25.241   7.288  25.382  0.0635  0.0142 -0.3088
85094W        W85958  26.428   5.433  24.646  0.0034  0.0462 -0.1089
85095W        W85959  27.357   4.829  21.794 -0.1938  0.1641 -0.0925
85096W        W85960  26.420   6.526  23.561  0.0957 -0.2818  0.0378
85097W        W85961   0.821   7.244  22.942 -0.0787  0.0473  0.5591
85098W        W85962  28.480   4.139  24.492 -0.2017  0.0866 -0.4050
85099W        W85963  26.081   5.763  25.906 -0.0004 -0.0388 -0.2607
85100W        W85964  27.468   6.680  25.781 -0.0256  0.4721  0.3747
85101W        W85965  25.786   4.301  21.749  0.2636  0.0930 -0.1631
85102W        W85966  25.550   7.676  25.543  0.1760  0.2059  0.0571
85103W        W85967  26.971   7.105  23.080 -0.0928 -0.2175 -0.1901
85104W        W85968  26.657   6.098  23.111 -0.2824 -0.0234  0.1682
85105W        W85969  24.566   7.500  23.953 -0.1064  0.0579  0.3554
85106W        W85970  25.595   6.869  24.135 -0.1503  0.3031  0.1797
85107W        W85971  27.569   5.134  23.188  0.2564 -0.0552 -0.0096
85108W        W85972   0.805   3.845  26.250 -0.1211  0.2002 -0.0781
85109W        W85973  27.944   6.126  21.679  0.2397 -0.1211  0.1635
85110W        W85974  24.661   4.860  24.107  0.1686  0.0618 -0.3277
85111W        W85975  28.779   4.636  20.452 -0.1429  0.4749 -0.2172
85112W        W85976  28.828   8.185  20.397  0.3862 -0.1093  0.1530
85113W        W85977  28.263   6.687  23.162 -0.0415  0.1967 -0.3376
85114W        W85978  26.328   3.011  17.997  0.1935 -0.2645  0.0683
85115W        W85979  26.581   5.940  21.959  0.0152  0.1457 -0.0409
85116W        W85980  25.587   5.055  22.516 -0.4884  0.1727  0.1569
85117W        W85981  27.320   5.744  22.390  0.0535  0.2440 -0.2014
85118W        W85982   0.369   3.136  21.010 -0.1997 -0.0336  0.3188
85119W        W85983  26.141   7.216  25.492 -0.1616 -0.1996  0.1562
85120W        W85984   2.157   8.848  21.817  0.2020  0.1453 -0.0380
85121W        W85985  29.116   4.637  22.017 -0.0116  0.3479 -0.1058
85122W        W85986  27.246   6.692  22.260 -0.0710 -0.1946 -0.0404
85123W        W85987  26.992   3.059  19.701  0.0393  0.2913 -0.1438
85124W        W85988  24.865   4.199  26.831 -0.0513 -0.1195  0.1030
85125W        W85989  27.327   6.958  26.397  0.0044  0.1789 -0.1449
85126W        W85990   0.469   7.360  21.605 -0.0491  0.2251 -0.1876
85127W        W85991   0.296   6.876  21.848 -0.1526  0.0158  0.2211
85128W        W85992  28.929   7.753  21.991 -0.1603 -0.1549  0.2086
85129W        W85993  27.019   6.276  26.570  0.3704  0.0791  0.0036
85130W        W85994  26.512   5.385  21.831 -0.0284 -0.1475 -0.1738
85131W        W85995  27.177   3.446  23.470  0.2053 -0.3287 -0.1395
85132W        W85996  27.805   6.897  26.270 -0.2398  0.0450  0.2480
85133W        W85997  26.536   2.288  23.631  0.0753 -0.0901 -0.1940
85134W        W85998  25.720   4.866  24.281  0.0341 -0.0919 -0.0956
85135W        W85999  28.975   5.588  24.703  0.0073  0.3759  0.0041
85136W        W86000  27.447   6.367  24.062 -0.0607  0.2670  0.0059
85137W        W86001  27.829   6.739  23.952  0.3348 -0.3252  0.3263
85138W        W86002  26.992   5.261  26.695  0.0565  0.1190 -0.0887
85139W        W86003  27.367   4.587  22.446  0.2181 -0.1396 -0.1293
85140W        W86004  26.176   4.291  22.340 -0.1425 -0.3864  0.1448
85141W        W86005  29.137   6.126  23.794 -0.2904  0.1927  0.1216
85142W        W86006  24.385   6.742  22.641  0.0125 -0.1964 -0.0161
85143W        W86007  27.467   8.289  25.703 -0.1000  0.0751  0.0593
85144W        W86008   1.546   7.920  19.905  0.5380  0.1058 -0.1705
85145W        W86009  24.933   4.461  26.309 -0.0659  0.3050 -0.1922
85146W        W86010   0.006   7.005  23.084  0.0144  0.2115  0.1271
85147W        W86011  26.468   6.905  23.204  0.0498  0.0351 -0.2977
85148W        W86012  25.466   7.746  23.656 -0.0684 -0.1904  0.0625
85149W        W86013   0.081   4.941  22.773 -0.0524 -0.0281  0.1267
85150W        W86014  27.819   8.375  21.293  0.0590  0.3351 -0.0858
85151W        W86015  26.572   3.624  22.610 -0.1169  0.3804  0.2108
85152W        W86016  26.039   3.903  21.973 -0.0529 -0.2797 -0.2111
85153W        W86017  25.805   5.748  24.938 -0.1767 -0.0469 -0.1715
85154W        W86018   0.779   2.647  20.236  0.1568  0.1414 -0.0110
85155W        W86019  27.277   5.301  25.366 -0.1982 -0.0012 -0.1375
85156W        W86020  26.815   9.584  24.800  0.2288  0.1329 -0.3838
85157W        W86021   0.876   5.098  23.485  0.0043 -0.2014  0.2718
85158W        W86022  26.203   5.380  24.163  0.0036 -0.0164  0.0519
85159W        W86023  27.024   7.237  24.290  0.3264  0.2088  0.1012
85160W        W86024   0.676   3.627  21.594 -0.0301  0.2557 -0.0764
85161W        W86025   0.020   3.845  22.361 -0.1057 -0.0704  0.1388
85162W        W86026  28.903   4.418  24.166 -0.1940  0.1094  0.1605
85163W        W86027  27.141   7.570  23.336 -0.1912  0.1376 -0.0718
85164W        W86028  25.288   6.202  23.446  0.1287 -0.0176  0.2850
85165W        W86029  25.942   7.483  23.719  0.1903  0.3732 -0.1998
85166W        W86030  27.922   9.300  23.005  0.0852 -0.2490 -0.1598
85167W        W86031  29.039   6.467  24.270  0.0468 -0.0581 -0.1086
85168W        W86032  28.178   9.112  27.621 -0.1328 -0.0855  0.1423
85169W        W86033  25.320   4.751  23.378  0.1627 -0.0239  0.0149
85170W        W86034  25.798   2.319  21.052 -0.3632 -0.0105 -0.0627
85171W        W86035   1.379   8.990  23.414  0.1014  0.0899 -0.0193
85172W        W86036  26.452   2.074  22.145  0.0801  0.1121  0.0823
85173W        W86037  26.878   6.685  24.554  0.1302  0.0870 -0.0874
85174W        W86038  27.927   6.462  24.448 -0.1263 -0.0964 -0.0370
85175W        W86039  25.839   7.879  24.619 -0.0471  0.3137  0.0435
85176W        W86040  24.805   9.041  24.980 -0.1362  0.0192  0.1255
85177W        W86041   0.860   5.862  24.081  0.1230 -0.0020 -0.0850
85178W        W86042  27.955   6.144  22.636 -0.1578 -0.0379  0.2620
85179W        W86043  25.788   9.966  21.573  0.0208  0.2122 -0.1201
85180W        W86044  25.273   5.818  25.818  0.0664  0.1593 -0.0856
85181W        W86045  27.233   4.835  26.905  0.2533 -0.0182  0.2187
85182W        W86046  27.288   6.984  23.860 -0.0693 -0.0361  0.1793
85183W        W86047  27.403   6.768  24.390  0.1245  0.1642  0.2874
85184W        W86048  25.633   5.956  24.390 -0.0717 -0.1763 -0.5923
85185W        W86049  28.368   7.243  23.835 -0.1947  0.2325  0.0890
85186W        W86050  27.014   5.857  21.565 -0.0501  0.1169  0.1177
85187W        W86051  27.972   9.157  25.991  0.1220 -0.1723 -0.0079
85188W        W86052   1.348   7.477  20.152 -0.0303  0.2550  0.3802
85189W        W86053   0.026   8.188  22.268 -0.2429  0.0856 -0.0024
85190W        W86054  29.031  10.138  20.341  0.3140  0.1767 -0.1340
85191W        W86055  28.029   1.529  23.665  0.0954 -0.1130 -0.0363
85192W        W86056  27.497   2.899  19.886  0.0393  0.2373 -0.0611
85193W        W86057  25.040   5.110  22.252  0.2292 -0.1833  0.0995
85194W        W86058  27.351   5.279  22.299  0.2647 -0.1859 -0.1183
85195W        W86059  29.126   7.605  21.437 -0.1623 -0.0209 -0.1011
85196W        W86060   1.372   5.899  23.366  0.1173 -0.0897  0.0801
85197W        W86061  28.364   6.167  21.265  0.2108 -0.2278  0.0377
85198W        W86062  27.377   6.021  24.832 -0.2450  0.1178 -0.0567
85199W        W86063  24.272   4.970  24.367 -0.2237 -0.3035  0.0730
85200W        W86064   2.022   4.899  24.194 -0.0770 -0.2246 -0.0733
85201W        W86065   0.512   4.401  25.060  0.1119  0.0611 -0.3081
85202W        W86066  21.534   8.103  22.902  0.2793  0.1696 -0.0973
85203W        W86067  26.857   5.656  25.216 -0.0790  0.0560 -0.2524
85204W        W86068  25.666   5.388  22.865  0.0569  0.2043  0.1048
85205W        W86069  25.979   5.122  25.143  0.1438 -0.0840  0.1556
85206W        W86070  28.057   8.723  23.034  0.1765  0.0682  0.0043
85207W        W86071  28.899   7.072  25.819  0.0031 -0.0577 -0.0992
85208W        W86072  26.955   4.581  24.585 -0.1261 -0.0116  0.0152
85209W        W86073  29.116   7.838  20.597 -0.0085 -0.3660  0.1812
85210W        W86074  25.752   7.187  25.157 -0.0053 -0.1593  0.0824
85211W        W86075   0.507   8.510  20.899  0.2265 -0.1043 -0.0992
85212W        W86076   0.860   8.453  23.987  0.1199 -0.1949  0.0236
85213W        W86077  26.101   6.645  26.900 -0.4935  0.4299 -0.0991
85214W        W86078  26.113   8.885  24.421  0.0217 -0.0162  0.0510
85215W        W86079   2.231   7.746  20.427  0.2644  0.0543 -0.1661
85216W        W86080   0.999   9.606  22.178 -0.0274  0.0022 -0.1173
85217W        W86081  27.030   7.362  23.798  0.1098 -0.0244 -0.1111
85218W        W86082  27.520   3.534  27.060 -0.0785  0.2064  0.0883
85219W        W86083  28.341   5.682  22.559  0.1785  0.2941  0.0295
85220W        W86084  25.287   8.103  25.279  0.3041  0.0710 -0.1692
85221W        W86085   0.410   6.313  25.459 -0.0951 -0.0497  0.1170
85222W        W86086  26.795   6.372  21.799 -0.0297 -0.1326 -0.0434
85223W        W86087  24.822   9.039  28.468 -0.0264  0.0228  0.3229
85224W        W86088  25.160   7.244  28.741  0.3390 -0.0778 -0.0975
85225W        W86089   0.187   6.966  27.574  0.0245  0.1454  0.2142
85226W        W86090  27.861   5.584  26.983 -0.0695 -0.1496 -0.3676
85227W        W86091  24.659   6.911  23.789  0.1787 -0.0970  0.2031
85228W        W86092  26.047   5.891  25.358 -0.2500 -0.0740 -0.0339
85229W        W86093  24.877   3.683  27.626 -0.0990 -0.1608 -0.0791
85230W        W86094  28.785   5.352  25.743 -0.2094  0.1772  0.1421
85231W        W86095  26.179   8.349  27.885 -0.3079  0.2112 -0.3000
85232W        W86096  27.511   5.186   1.386  0.0247 -0.2674 -0.0110
85233W        W86097  24.513   4.047   0.474 -0.0394 -0.0416  0.1535
85234W        W86098  27.800   3.804  26.752 -0.4543  0.2898 -0.2158
85235W        W86099  27.911   5.829  27.513  0.0410 -0.2901 -0.2504
85236W        W86100  28.715   3.626  27.508  0.0073  0.1216 -0.0425
85237W        W86101  26.355   3.710  28.868 -0.0231  0.0005 -0.1095
85238W        W86102  25.955   7.438  29.096  0.1864  0.0618  0.1814
85239W        W86103  27.457   7.177  25.950  0.1953 -0.0652  0.1925
85240W        W86104  25.686   4.114  26.539 -0.1383  0.0186 -0.4157
85241W        W86105  24.838   5.749  26.471 -0.2750 -0.1685  0.0067
85242W        W86106   0.069   8.452  27.162 -0.0456 -0.0891 -0.1665
85243W        W86107  27.807   7.519  29.130 -0.1611 -0.1013 -0.0771
85244W        W86108  26.797   5.006  27.141  0.1748 -0.0237 -0.2798
85245W        W86109   1.019   8.089  25.549  0.0128  0.1579  0.0007
85246W        W86110  26.654   5.674  27.896  0.1434 -0.2516  0.0954
85247W        W86111  24.256   7.094  26.617 -0.2212 -0.0972  0.1232
85248W        W86112  27.439   4.905  29.074 -0.1004 -0.0423  0.1979
85249W        W86113   3.238   7.336  28.396 -0.3040 -0.1865 -0.4018
85250W        W86114   1.236   7.845  28.914 -0.2013  0.0172  0.0261
85251W        W86115  27.480   5.618  27.541  0.1299 -0.0297  0.1078
85252W        W86116  28.228   5.328  28.230 -0.2549 -0.1286 -0.1676
85253W        W86117  25.647   5.387  27.795  0.1341  0.1673 -0.2026
85254W        W86118  28.654   9.402   0.506 -0.3500 -0.4100  0.2584
85255W        W86119  26.798   5.810  28.410  0.1686  0.0528  0.0586
85256W        W86120  27.674   5.403  28.147 -0.0674  0.1001  0.0744
85257W        W86121  25.337   4.880  28.695  0.2233 -0.1200  0.2218
85258W        W86122   1.250   6.945  28.382  0.4120  0.0028 -0.3369
85259W        W86123  26.647   4.474  26.192 -0.1816  0.1932 -0.1389
85260W        W86124  28.286   7.002  27.574 -0.1802 -0.0056 -0.1313
85261W        W86125  28.491   6.547  27.852 -0.0837  0.0254 -0.1372
85262W        W86126   1.082   5.654  27.623  0.1141  0.1740  0.1776
85263W        W86127  25.522   6.683  25.486 -0.1768 -0.1462 -0.1161
85264W        W86128  28.913   5.342  28.414  0.4122 -0.1219  0.2060
85265W        W86129  26.288   7.504  26.370 -0.1957  0.1948 -0.1970
85266W        W86130   1.014   8.142  26.574 -0.1915 -0.2695 -0.1853
85267W        W86131  25.358   9.728  27.950  0.1187  0.1150 -0.1023
85268W        W86132   1.404   9.298  25.817 -0.1871 -0.2099  0.2646
85269W        W86133  24.535   5.465   0.214  0.0805  0.0240  0.1324
85270W        W86134  28.105   4.859  28.024  0.0302 -0.1664  0.1015
85271W        W86135   0.860   5.429  28.493  0.2554 -0.1951  0.1637
85272W        W86136  27.416   6.093  25.819 -0.0013  0.1227  0.0345
85273W        W86137  27.988   7.326  26.892  0.1871  0.0054 -0.1965
85274W        W86138  28.448   7.170  27.099  0.0303  0.3280  0.0008
85275W        W86139  27.229  10.059  25.296 -0.1628 -0.2400 -0.1097
85276W        W86140   1.890   8.261  25.943  0.0897 -0.1129  0.0739
85277W        W86141  27.137   5.805  26.764 -0.1675  0.2526 -0.3144
85278W        W86142  24.579   6.073  26.934  0.0540 -0.1454 -0.1587
85279W        W86143  24.747   4.705  26.762  0.2002  0.0765 -0.2480
85280W        W86144  27.855   5.700  28.597 -0.3342 -0.0412 -0.1533
85281W        W86145   0.601   6.816  26.860 -0.1364  0.1525  0.1677
85282W        W86146  27.603   8.978  24.083 -0.0105 -0.3040  0.4397
85283W        W86147  25.950   9.287  23.740  0.1591 -0.0172 -0.1146
85284W        W86148  27.867   6.167  28.882 -0.0333  0.1275 -0.0782
85285W        W86149  26.931   6.553  28.848  0.0374 -0.2058  0.0133
85286W        W86150  27.824   5.785  26.181 -0.1952 -0.0718 -0.2522
85287W        W86151  28.198   2.669   0.200 -0.0879  0.2251 -0.4043
85288W        W86152   3.189   1.132   1.764 -0.0903 -0.1985 -0.2937
85289W        W86153  23.934   7.297  27.077  0.2618  0.0233  0.3079
85290W        W86154  28.191   4.446   0.162 -0.1751  0.3914  0.1875
85291W        W86155  28.619   8.350  27.342  0.0131  0.0624 -0.0380
85292W        W86156  27.218   6.399  27.703  0.0272  0.0787 -0.1332
85293W        W86157   1.907   7.367   1.274 -0.1007  0.1525  0.0705
85294W        W86158  27.007   6.180  25.481 -0.0093  0.2172  0.0345
85295W        W86159   0.299   7.265  25.277  0.0306  0.0596 -0.0705
85296W        W86160   1.691   6.491  29.043  0.1019  0.2655  0.0221
85297W        W86161   1.206   3.906  27.255 -0.2307 -0.1071 -0.0241
85298W        W86162   0.823   5.917  27.954  0.0755 -0.0666 -0.0897
85299W        W86163  25.141   7.329  25.981 -0.4019 -0.0336  0.0873
85300W        W86164  25.952   6.394   0.137  0.1117 -0.0702 -0.0110
85301W        W86165  27.531   5.903  27.144  0.0332 -0.0872 -0.0806
85302W        W86166  28.552   7.454  26.135  0.3689 -0.0420  0.1240
85303W        W86167  26.347   6.301   2.919 -0.1498 -0.3477 -0.1212
85304W        W86168  25.894   5.539  28.638  0.3118  0.1878  0.0345
85305W        W86169  27.573   4.212  23.514 -0.0645 -0.0629 -0.0784
85306W        W86170  25.768   5.351  26.051  0.0494 -0.2184  0.1576
85307W        W86171  28.756   4.902  28.269 -0.2338 -0.0189 -0.0781
85308W        W86172  27.202   2.985  27.138  0.0045  0.1403 -0.1226
85309W        W86173   0.347   4.178   1.910  0.2635 -0.0543 -0.1313
85310W        W86174  27.524   3.319  29.026  0.0532  0.1282  0.0517
85311W        W86175  29.093   4.846   2.512  0.1080 -0.1004 -0.1065
85312W        W86176   0.891   7.567  27.133  0.2058 -0.0823 -0.0086
85313W        W86177  26.287   4.522  25.813 -0.2302 -0.0847 -0.2126
85314W        W86178   0.956   7.562   0.048 -0.0520  0.0509  0.0964
85315W        W86179  28.209   6.219  27.554 -0.0266  0.0741 -0.1844
85316W        W86180  26.839   4.966  26.335  0.0160 -0.0796 -0.0450
85317W        W86181  27.818   4.358   3.286 -0.0242 -0.3185 -0.3974
85318W        W86182  28.133   1.952  26.916  0.0479 -0.1741 -0.0630
85319W        W86183   0.964   3.192  27.898 -0.0104  0.0359  0.1433
85320W        W86184  24.325   5.878   0.212  0.2023  0.2510  0.6033
85321W        W86185  22.276   3.985  25.844 -0.0992  0.0618 -0.1614
85322W        W86186  27.193   4.588  26.500 -0.2769 -0.1166  0.4787
85323W        W86187  27.424   8.603  25.327 -0.1486  0.2141  0.0284
85324W        W86188  24.882   6.221  26.461 -0.2241  0.0676  0.0966
85325W        W86189  27.092   0.932  26.155  0.0529  0.0025  0.1466
85326W        W86190   0.522   6.656  28.171 -0.0131 -0.2878 -0.1717
85327W        W86191   0.359   4.098  29.123  0.0627  0.0823 -0.1182
85328W        W86192  25.494   1.782   4.086  0.0944  0.3174  0.0308
85329W        W86193  24.434   6.623  25.657  0.2823  0.0479  0.1507
85330W        W86194  27.635   4.143   0.549 -0.0983  0.2367  0.1749
85331W        W86195  27.831   4.470  27.833 -0.1603 -0.0449 -0.1108
85332W        W86196  24.569   4.831  28.622 -0.1603 -0.0075  0.0068
85333W        W86197  24.769   5.852  27.864  0.0663 -0.1686 -0.1451
85334W        W86198  25.762   9.840  25.318 -0.4098 -0.2791 -0.2075
85335W        W86199   0.108   3.554  28.407  0.2713 -0.2507  0.0954
85336W        W86200   1.302   8.010  28.411  0.2284 -0.0818  0.0066
85337W        W86201  29.053   7.425  26.159  0.1590  0.0296 -0.1847
85338W        W86202  25.789   6.022  27.081 -0.3757  0.3018  0.1972
85339W        W86203  28.304   2.423  28.510  0.1613 -0.0651  0.1193
85340W        W86204  27.839   7.189  27.807 -0.0310 -0.2082  0.0440
85341W        W86205  27.698   5.069  26.756 -0.1212  0.1169  0.0993
85342W        W86206   0.744   7.053  25.950  0.0290  0.1672  0.0614
85343W        W86207  27.211   4.226  25.746 -0.0552  0.0442  0.0942
85344W        W86208  27.553   5.568  25.826  0.1571  0.1538  0.2728
85345W        W86209   1.268   7.500  28.402 -0.0895  0.0248 -0.1884
85346W        W86210  27.978   5.392  27.750  0.1143 -0.0559 -0.1764
85347W        W86211  28.004   4.500  25.483  0.1334  0.1060 -0.1562
85348W        W86212  28.505   6.068  26.969  0.1062 -0.4291 -0.3043
85349W        W86213  27.290   1.695  28.081 -0.4394 -0.1423 -0.0817
85350W        W86214   0.060   6.044   0.085 -0.0676 -0.6696 -0.0887
85351W        W86215   1.009   7.230  24.855  0.1738  0.2857 -0.1464
85352W        W86216  25.325   6.525  27.896 -0.0035  0.1912 -0.1684
85353W        W86217  26.757   5.261  27.593  0.0378  0.2072  0.0565
85354W        W86218  28.411   5.232  26.093  0.0852 -0.0950  0.4612
85355W        W86219  29.132   7.734  28.069 -0.2406 -0.0635  0.0411
85356W        W86220  28.437   4.579  24.327 -0.1429 -0.3738 -0.0985
85357W        W86221  28.328   7.688  27.016 -0.0548  0.2843  0.3528
85358W        W86222  26.037   4.182  27.341 -0.0731  0.0674  0.1885
85359W        W86223  28.365   3.900  27.253  0.1334  0.3605  0.1463
85360W        W86224   0.007   1.785   1.421  0.0820  0.1999  0.0481
85361W        W86225  27.592   4.402  26.793 -0.0245 -0.5309 -0.0230
85362W        W86226  27.186   7.692  27.317 -0.1130  0.0330  0.0693
85363W        W86227  25.283   5.702  24.723 -0.3227 -0.0319  0.1173
85364W        W86228  28.479   3.623   0.262 -0.0622 -0.1607 -0.1715
85365W        W86229  24.399   6.468  26.292 -0.0426  0.2161 -0.1038
85366W        W86230  25.179   6.806  25.072  0.1328  0.0950 -0.2295
85367W        W86231  27.210   5.484  27.940  0.1548 -0.2446  0.1824
85368W        W86232  25.479   4.360  27.529 -0.1134  0.1769 -0.0630
85369W        W86233  29.051   3.723  25.670  0.2663  0.4598 -0.2196
85370W        W86234  28.536   5.700  26.180  0.2197 -0.5422  0.3994
85371W        W86235   0.085   5.521  28.806  0.0938 -0.5520  0.2901
85372W        W86236  26.505   6.955  27.049 -0.1644 -0.1088  0.2526
85373W        W86237  26.836   9.163  23.988 -0.1334  0.1428 -0.2998
85374W        W86238  27.411   4.703  23.706  0.3516 -0.1067 -0.3805
85375W        W86239  26.486   8.003  26.545  0.2402  0.0337 -0.1297
85376W        W86240  25.385   4.309  26.214  0.2351 -0.1111 -0.4528
85377W        W86241   0.311   6.389  26.900  0.0881 -0.0481  0.0624
85378W        W86242   0.429   2.849  28.086 -0.0232  0.1953 -0.0206
85379W        W86243  25.980   6.150  28.805  0.0378 -0.1778 -0.3811
85380W        W86244  23.971   6.374  24.332 -0.2418  0.2190 -0.1232
85381W        W86245  25.503   6.700  23.548 -0.1357  0.1446  0.1883
85382W        W86246  27.510   5.524  26.580  0.3510 -0.0072 -0.0513
85383W        W86247  26.146   4.267   0.576  0.1432 -0.3368 -0.1069
85384W        W86248  26.579   6.248  28.311  0.1348 -0.0179 -0.0282
85385W        W86249   0.263   7.303  27.946  0.0387  0.2033 -0.1136
85386W        W86250  26.832   3.824   0.660  0.1162 -0.1440 -0.0610
85387W        W86251  28.848   4.516   0.274 -0.0311  0.2298 -0.2561
85388W        W86252  27.779   6.032  26.594  0.2469 -0.3460  0.0062
85389W        W86253  27.885   6.344  27.895 -0.0126 -0.0521  0.2402
85390W        W86254  27.669   7.557  27.257  0.0084 -0.0597  0.3561
85391W        W86255  28.829   9.388  28.992  0.5051 -0.0765  0.0804
85392W        W86256  24.610   5.766  23.707  0.0346  0.0202  0.0371
85393W        W86257  27.966   6.228  27.055 -0.0141 -0.2713 -0.1409
85394W        W86258  27.723   5.197  27.271  0.0528  0.1962  0.0755
85395W        W86259  28.437   6.778   0.178  0.2479  0.3959 -0.3981
85396W        W86260  26.828   5.370  23.621 -0.2740 -0.2896 -0.0134
85397W        W86261  25.748   2.236  26.530 -0.1022 -0.3412  0.1618
85398W        W86262  28.756   4.935  25.210 -0.1337  0.1437  0.3039
85399W        W86263  24.668   4.897  26.285 -0.0316  0.1196 -0.0211
85400W        W86264  25.667   6.821  29.134 -0.0819 -0.0665 -0.0012
85401W        W86265  24.331   8.840  26.302  0.1778  0.3200  0.0664
85402W        W86266  26.200   6.633  26.265  0.3566 -0.1985 -0.1376
85403W        W86267  26.782   6.778  26.378 -0.1451  0.1062  0.1065
85404W        W86268  28.737   7.975  26.892  0.0347 -0.3439  0.0497
85405W        W86269  25.998   4.299  28.355  0.2161 -0.0735 -0.2213
85406W        W86270  26.221   4.593  26.537  0.0142 -0.1150 -0.1639
85407W        W86271  25.741   6.158  25.761 -0.3656 -0.1755  0.3342
85408W        W86272  28.431   6.404  28.939 -0.0523  0.1140 -0.1984
85409W        W86273  27.993   5.825  28.118  0.0452  0.3434 -0.0881
85410W        W86274  25.869   5.125  26.925  0.0614  0.0783  0.4581
85411W        W86275  23.744   6.426  29.144  0.2007 -0.1242 -0.1769
85412W        W86276  24.048   6.048  28.926  0.1028 -0.1077 -0.0511
85413W        W86277  25.575   4.510  25.347  0.2173 -0.2074 -0.0716
85414W        W86278  26.885   7.286  26.537 -0.2541 -0.0480  0.0847
85415W        W86279  26.972   2.495   0.486 -0.0622  0.1953 -0.0087
85416W        W86280  28.059   2.272   0.477 -0.2127 -0.1356 -0.0974
85417W        W86281  28.872   6.818  28.500  0.0988 -0.0362 -0.1940
85418W        W86282  28.343   3.449  28.698  0.0352 -0.1118 -0.1064
85419W        W86283  28.383   5.256  22.852 -0.1880 -0.0196  0.0063
85420W        W86284  26.073   3.580   0.132 -0.3539  0.0551 -0.0153
85421W        W86285  25.085   1.470  25.648 -0.4846 -0.1408  0.0032
85422W        W86286  28.337   4.933  28.528  0.0506 -0.1041  0.1685
85423W        W86287  26.236   7.236  25.965 -0.1526  0.2621  0.0780
85424W        W86288   0.989   5.050  27.720 -0.0748 -0.0350 -0.0545
85425W        W86289   1.382   7.611  26.990 -0.0792 -0.0592  0.0459
85426W        W86290  26.818   1.475  28.191 -0.1023 -0.0312 -0.1483
85427W        W86291  27.599   6.143  28.485  0.0172 -0.2540 -0.0959
85428W        W86292  26.400   5.115  26.701  0.0138  0.0152 -0.1810
85429W        W86293  26.782   4.322  29.108  0.2367  0.0526 -0.0446
85430W        W86294  28.410   4.539  27.723  0.2231  0.0727 -0.3699
85431W        W86295  26.113   8.360  24.683 -0.1248 -0.2033  0.0250
85432W        W86296  27.324   6.793  28.509 -0.0143 -0.1185  0.0032
85433W        W86297  25.554   5.660   0.647 -0.1383  0.2444 -0.0015
85434W        W86298  27.681   4.195  28.755 -0.3369 -0.1642 -0.1633
85435W        W86299   0.501   6.592  27.394  0.2559 -0.1976  0.0779
85436W        W86300  27.936   2.201  28.282  0.1539 -0.0210  0.3347
85437W        W86301   1.966   6.634  27.097  0.1214  0.0293 -0.1305
85438W        W86302   1.888   9.214  25.735  0.1213  0.1283 -0.2199
85439W        W86303  29.124   5.334  25.207 -0.2665  0.1293 -0.4311
85440W        W86304  26.343   7.728  24.676  0.0067 -0.1936 -0.0187
85441W        W86305  28.231   3.567   0.739 -0.0801 -0.2053  0.1161
85442W        W86306  26.902   5.076   2.347 -0.1479 -0.0757  0.3147
85443W        W86307  28.610   5.345   2.157 -0.1506 -0.1070  0.1801
85444W        W86308   1.412   7.225   0.488 -0.0895 -0.1844  0.1363
85445W        W86309  27.127   6.653   0.854  0.1659 -0.0368  0.0892
85446W        W86310  27.507   5.627  23.348  0.2061 -0.2340  0.0928
85447W        W86311  27.396   9.416  26.610 -0.0434 -0.3496 -0.2294
85448W        W86312  25.381   3.421   1.562  0.3192  0.2007 -0.1966
85449W        W86313  25.357   6.342  28.379 -0.0234  0.0577  0.1755
85450W        W86314  28.462   3.655  28.236  0.0385  0.0390 -0.0602
85451W        W86315   0.120   4.645  26.031  0.1188  0.1976  0.0256
85452W        W86316   0.945   5.747  26.632  0.1607 -0.1331 -0.1433
85453W        W86317  24.658   5.764  28.819 -0.0557  0.0094 -0.0432
85454W        W86318  28.078   3.973  28.559  0.2122 -0.3411 -0.0588
85455W        W86319  24.493   6.703  27.287 -0.2066  0.0017 -0.3242
85456W        W86320  27.245   5.173  24.564  0.0012  0.2068  0.0928
85457W        W86321  26.243   5.406  28.156  0.0033 -0.0490  0.2649
85458W        W86322   2.782   7.733  25.950  0.0892 -0.1767  0.0702
85459W        W86323   1.675   6.419  26.687  0.0613  0.1524 -0.1936
85460W        W86324  25.969   3.078   0.964  0.0478 -0.4160 -0.0105
85461W        W86325   0.991   7.618  25.225  0.1782  0.1494  0.3149
85462W        W86326   0.604   9.089  28.304  0.2242  0.3333  0.0720
85463W        W86327  24.155   7.714  25.161  0.0469  0.0871  0.2461
85464W        W86328  25.619   5.953  28.460  0.0884  0.0306 -0.0923
85465W        W86329  25.905   4.820  25.688 -0.1621 -0.2137  0.1445
85466W        W86330  25.653   3.889  27.387 -0.0019 -0.0589  0.1678
85467W        W86331  26.504   4.450  27.988  0.5047 -0.0183 -0.1687
85468W        W86332  28.305   8.452  26.275  0.0506 -0.1835  0.2987
85469W        W86333   0.039   3.226  28.848  0.0254  0.2137 -0.1948
85470W        W86334  27.121   5.530   2.232  0.2163  0.1178 -0.2091
85471W        W86335  28.438   7.175  28.400 -0.3144 -0.1399  0.1277
85472W        W86336  28.296   3.702  25.783 -0.1641 -0.1580  0.2696
85473W        W86337  27.098   6.984  27.857 -0.0209  0.0043 -0.0005
85474W        W86338  25.739   6.731  28.183  0.0141  0.1823 -0.1071
85475W        W86339  27.980   6.608  29.146  0.0291  0.0937 -0.3571
85476W        W86340   0.684   6.456  26.075  0.2192 -0.2980 -0.0446
85477W        W86341  26.127   5.855  24.504  0.1224 -0.1471  0.2909
85478W        W86342  27.857   6.163  25.137 -0.1823 -0.0215 -0.1170
85479W        W86343  28.595   6.727  27.223  0.0524  0.1426  0.0560
85480W        W86344  28.630   4.262  29.076 -0.1453 -0.1558  0.1670
85481W        W86345  27.572   5.072  27.737  0.0616 -0.1997 -0.0478
85482W        W86346  27.586   4.854  28.197  0.0834  0.1102  0.1331
85483W        W86347  27.739   3.767  25.208  0.1747 -0.0633 -0.1710
85484W        W86348  26.531   4.161  27.579  0.2912 -0.1749  0.0303
85485W        W86349  28.382   7.286   0.508  0.1777  0.0355 -0.1212
85486W        W86350  27.860   5.575  29.118 -0.1810  0.1043  0.2091
85487W        W86351  26.035   9.826  26.323 -0.0923  0.0031  0.1486
85488W        W86352  23.541   6.986  28.121  0.4400 -0.0977  0.3697
85489W        W86353  25.531   8.901  26.249 -0.2613  0.2492 -0.0234
85490W        W86354   1.160   6.169  23.755  0.0476 -0.0599 -0.2124
85491W        W86355  26.853   4.800   0.983  0.0189  0.1212 -0.2979
85492W        W86356   2.576   7.272  25.631  0.0432  0.2339  0.1730
85493W        W86357  25.534   4.307  28.623 -0.1740  0.0745  0.0375
85494W        W86358  28.225   2.250   1.394  0.1899 -0.0245  0.1316
85495W        W86359   0.375   6.183  28.257 -0.0000 -0.1329  0.1255
85496W        W86360  25.031   6.776  28.211 -0.0301 -0.3156  0.0896
85497W        W86361  29.144   7.497  27.563  0.1925 -0.1232 -0.2635
85498W        W86362  28.843   4.645  26.977  0.0937 -0.2237  0.0867
85499W        W86363  25.581   4.368   0.551 -0.0262 -0.1511 -0.0243
85500W        W86364  25.844   4.570  26.133  0.1495  0.1721 -0.0591
85501W        W86365  29.056   6.654  26.559  0.0806 -0.2409 -0.2177
85502W        W86366  25.759   6.884  26.632  0.4216  0.0143 -0.3000
85503W        W86367  28.699   5.957   0.115  0.1956  0.1559  0.0522
85504W        W86368  23.444   7.063  25.195  0.2674 -0.2713 -0.2029
85505W        W86369  25.143   3.944  26.458  0.1292 -0.1885  0.1113
85506W        W86370  24.846   6.321  27.997 -0.2370 -0.2154 -0.1738
85507W        W86371  25.881   5.257  24.592 -0.1615  0.0413 -0.1103
85508W        W86372  27.226   4.167   3.355 -0.1407  0.0510 -0.0491
85509W        W86373  27.265   7.136  25.474  0.0475 -0.1513 -0.0559
85510W        W86374  26.062   6.327  28.286 -0.5392 -0.1120  0.1714
85511W        W86375   0.036   4.194  26.921  0.0138  0.3011  0.2170
85512W        W86376  26.407   4.974  24.860  0.0622 -0.0474  0.0955
85513W        W86377  26.065   3.763  27.075 -0.1850  0.2455 -0.1741
85514W        W86378   1.737   7.632  28.257  0.0725 -0.1942 -0.1308
85515W        W86379  27.405   6.482  28.153  0.0210 -0.3324  0.0135
85516W        W86380  24.410   6.094  25.044 -0.1883  0.1774 -0.5376
85517W        W86381  25.393   7.522  27.823 -0.0088  0.1337  0.3456
85518W        W86382  27.740   7.359  26.462  0.1112  0.0292  0.1012
85519W        W86383  27.617   6.810  25.318  0.1399  0.0761  0.0082
85520W        W86384   0.016   7.936  25.611 -0.1900  0.1620 -0.2394
85521W        W86385   0.375   4.588  26.869 -0.0440 -0.0138  0.2738
85522W        W86386  27.635   6.597  27.084 -0.0209 -0.0369 -0.2168
85523W        W86387  27.544   6.753  27.738  0.3803 -0.3063  0.2785
85524W        W86388  27.009   2.702   1.837 -0.0140  0.0174  0.0053
85525W        W86389  27.290   8.380  26.764 -0.0175 -0.0266  0.2861
85526W        W86390   1.993   6.603  27.594 -0.4589 -0.1793  0.1742
85527W        W86391  27.076   6.682  25.415  0.1627  0.1370 -0.2011
85528W        W86392  27.140   5.012  28.487  0.1326 -0.1820  0.0514
85529W        W86393  25.464   5.389   0.145 -0.0001  0.1256  0.2842
85530W        W86394  25.144   6.310  25.198 -0.1553  0.1008  0.0783
85531W        W86395  26.433   7.791  25.927 -0.1206 -0.0706  0.2238
85532W        W86396  26.292   7.165  27.488  0.1604  0.2575 -0.1026
85533W        W86397  24.530   5.685  24.760 -0.0383  0.1984  0.0065
85534W        W86398  25.131   5.819   0.262 -0.1687  0.1620 -0.0912
85535W        W86399  26.410   4.140  25.367  0.1209  0.1848  0.1063
85536W        W86400  29.104   6.410   0.790 -0.0391 -0.3662  0.1514
85537W        W86401  27.381   3.887  28.993  0.1876 -0.2035 -0.2999
85538W        W86402  25.909   5.801   2.220  0.0599  0.1340  0.0318
85539W        W86403  25.314   4.445  26.735 -0.0574 -0.0364  0.3098
85540W        W86404  28.920   3.785  27.094  0.2067 -0.0055 -0.2507
85541W        W86405  27.370   7.911  28.151  0.0453 -0.2208 -0.0445
85542W        W86406  27.560   7.278  25.109 -0.2864 -0.0951 -0.0577
85543W        W86407  23.961   5.637  26.372 -0.4792  0.0953 -0.1548
85544W        W86408  26.719   9.911  25.233 -0.0448  0.4934  0.0017
85545W        W86409  23.515   7.420  27.325 -0.1165 -0.0279 -0.2768
85546W        W86410  28.844   7.096  27.376 -0.1469  0.1135 -0.3074
85547W        W86411  26.250   5.250  27.151  0.1432 -0.0029 -0.1888
85548W        W86412  26.304   5.883  27.312  0.0931  0.0795  0.0204
85549W        W86413  28.336   4.642  26.731 -0.0047 -0.0010 -0.3032
85550W        W86414  24.446   7.320  28.013 -0.0439 -0.1267 -0.0574
85551W        W86415  26.541   6.067  25.488 -0.0567 -0.1809  0.0967
85552W        W86416  26.286   7.013  26.561  0.0742 -0.2174 -0.1402
85553W        W86417   1.234   5.459  28.075 -0.0602 -0.2561 -0.0844
85554W        W86418  28.300   3.874  24.901  0.4451  0.0640  0.0062
85555W        W86419  28.927   6.347  28.102 -0.2691  0.0302 -0.2652
85556W        W86420  24.019   5.029   0.312 -0.2533  0.0594 -0.2829
85557W        W86421  28.293   5.910  28.899  0.2030 -0.0061  0.1404
85558W        W86422   1.892   8.293  27.553  0.2686 -0.0107  0.0613
85559W        W86423  24.976   9.559  24.045 -0.0629  0.0625 -0.0335
85560W        W86424   1.456   8.242  25.283 -0.0317  0.3792 -0.1223
85561W        W86425  27.308   4.628  27.747  0.0437  0.3041  0.2002
85562W        W86426  28.518   3.455  27.087  0.1818  0.2202 -0.1049
85563W        W86427  24.322   7.973  25.977  0.2311 -0.0098 -0.0336
85564W        W86428  26.083   4.853   1.661  0.0242  0.1640  0.0185
85565W        W86429  26.277   4.262   0.088  0.1706 -0.1163 -0.0204
85566W        W86430  26.896   7.753  26.313 -0.2091  0.0770 -0.2676
85567W        W86431  24.634   7.529  26.693  0.2669  0.0597 -0.0018
85568W        W86432  25.336   8.008  26.137  0.1327  0.4556 -0.0038
85569W        W86433   0.271   4.623  27.581 -0.1165 -0.0261  0.0916
85570W        W86434  26.304   3.994  27.985  0.2068  0.0768 -0.4456
85571W        W86435  26.103   6.588  27.858  0.0970 -0.0467  0.2419
85572W        W86436  25.236   4.609  27.160 -0.1482  0.2933 -0.1738
85573W        W86437   0.524   6.177   0.029  0.2931 -0.1825 -0.3356
85574W        W86438  29.078   5.350  26.874  0.0639  0.2199  0.0124
85575W        W86439  28.912  10.521  26.940 -0.1556 -0.1308  0.0669
85576W        W86440  26.079   7.823  28.209 -0.1330  0.1838  0.0849
85577W        W86441  27.519   6.002  27.891  0.0767  0.1392 -0.2386
85578W        W86442   3.089   3.075  26.666 -0.1414  0.0408 -0.1471
85579W        W86443  24.182   5.095  27.733 -0.1970 -0.0671 -0.1779
85580W        W86444  25.802   3.026   0.176  0.1782  0.0459 -0.2393
85581W        W86445  26.827   5.347  28.248 -0.1900  0.2507  0.0602
85582W        W86446  25.199   4.755  27.784  0.0156 -0.0835  0.2776
85583W        W86447  27.278   6.497  26.157  0.1556  0.0465  0.0097
85584W        W86448  27.648   4.379   1.003  0.1393 -0.2738  0.0929
85585W        W86449  26.347   3.815   0.489  0.1406 -0.2970  0.2224
85586W        W86450  27.329   3.586  27.708  0.3358  0.2286 -0.3089
85587W        W86451   0.220   8.507  25.576 -0.2451  0.0367  0.0053
85588W        W86452  26.981   9.937   0.320 -0.1893  0.1119  0.0958
85589W        W86453  28.359   6.641  28.348 -0.1458  0.2646 -0.0213
85590W        W86454  27.778   9.568  26.166  0.0831 -0.1243 -0.0040
85591W        W86455  27.787   6.333  26.110  0.2461  0.0816 -0.1043
85592W        W86456  27.420   3.755  25.629  0.3061 -0.0394 -0.0195
85593W        W86457  25.842   5.503  27.275 -0.3058 -0.2716  0.3182
85594W        W86458  28.923   3.116  27.066 -0.1980  0.2420 -0.1226
85595W        W86459  28.673   5.013  26.661  0.1015 -0.3209  0.1476
85596W        W86460  25.244   3.392   0.356 -0.1935  0.2611  0.0635
85597W        W86461  27.291   5.072  26.355 -0.1424  0.2513 -0.1479
85598W        W86462  28.259   4.459  28.736 -0.0211 -0.3114  0.2178
85599W        W86463  26.485   5.499  28.702 -0.1569 -0.1743 -0.1397
85600W        W86464  27.050   8.768  25.593 -0.2954 -0.0342  0.1814
85601W        W86465   0.240   5.287   0.099 -0.0068  0.0209 -0.1625
85602W        W86466  26.201   5.092   0.667 -0.0085  0.0765 -0.2100
85603W        W86467  26.590   6.532  26.794  0.0797 -0.5291 -0.2666
85604W        W86468  23.242   6.615  25.383  0.0951  0.0592 -0.2078
85605W        W86469  27.250   3.594  28.601 -0.2676 -0.1123 -0.3000
85606W        W86470  27.830   6.607  28.623  0.1256  0.0042 -0.1353
85607W        W86471   0.456   9.824  25.408 -0.1249 -0.0403  0.3431
85608W        W86472  26.043   3.979   1.451  0.1689  0.1095  0.0101
85609W        W86473  25.886   6.136  27.549  0.1003 -0.1668  0.1160
85610W        W86474  27.317   8.921   1.452 -0.0607  0.0212  0.0851
85611W        W86475  28.521   7.742  28.882  0.2802 -0.2531 -0.0019
85612W        W86476   1.464   7.790  27.663  0.1409  0.2874  0.0161
85613W        W86477  29.001   4.520   1.611 -0.0267 -0.1636  0.0590
85614W        W86478  23.299   6.058  27.173 -0.0958 -0.0733  0.3017
85615W        W86479  27.604   6.517  26.513 -0.2417  0.0561  0.0302
85616W        W86480   0.076   6.799  27.111 -0.4069 -0.1047  0.2248
85617W        W86481  28.620   7.731  28.385 -0.0235  0.1071 -0.0490
85618W        W86482  28.389   5.734  27.803  0.2308 -0.1057 -0.0558
85619W        W86483  26.988   7.150  26.993 -0.2035 -0.0535  0.1260
85620W        W86484  27.193   6.281  27.133  0.2780 -0.4351 -0.1601
85621W        W86485  27.049   7.342  24.902  0.4411 -0.0628  0.2078
85622W        W86486  25.663   4.816  27.800  0.0403  0.1941 -0.0650
85623W        W86487  25.106   8.967   2.695 -0.6225  0.2999 -0.1013
85624W        W86488  25.442  10.162   3.181  0.0945 -0.4394 -0.1897
85625W        W86489  28.351  11.722   0.915 -0.1381 -0.0432 -0.0074
85626W        W86490  28.142  12.558   1.874 -0.0418  0.0095  0.2240
85627W        W86491  27.506  10.124   0.937 -0.0196  0.0229 -0.0974
85628W        W86492  24.930   8.534   2.254 -0.2393  0.1150 -0.2724
85629W        W86493  25.828  10.643   2.417 -0.0126 -0.2099 -0.2021
85630W        W86494  27.934   9.762   3.040 -0.0665  0.0245 -0.3613
85631W        W86495  28.254  11.298   2.591  0.1941 -0.0305 -0.1812
85632W        W86496  25.853  12.230   2.117 -0.0119 -0.0283  0.2108
85633W        W86497  27.894   9.203   0.815 -0.0267  0.0285  0.0279
85634W        W86498  27.524   9.479   3.268 -0.2365  0.2773  0.0095
85635W        W86499  26.342  10.610   0.508  0.1516  0.1083  0.1072
85636W        W86500  28.252   8.456   3.513  0.0369 -0.0866  0.2976
85637W        W86501  27.272   8.075   5.145  0.1643  0.3293  0.5008
85638W        W86502  25.692  12.467   2.553  0.0626 -0.2245 -0.3026
85639W        W86503  25.466   8.763   1.409  0.0098 -0.0947  0.1246
85640W        W86504  25.191   9.382  28.308 -0.0840  0.0758 -0.0037
85641W        W86505  28.206   9.477   3.790 -0.1605  0.1207 -0.2201
85642W        W86506   1.940   7.515   1.826 -0.1323 -0.0002 -0.1610
85643W        W86507   0.392   8.638   3.985  0.0647 -0.2892 -0.3611
85644W        W86508  25.047   9.228   0.602 -0.0607  0.2658  0.0137
85645W        W86509  26.675   8.123   1.391 -0.0289 -0.0955  0.2179
85646W        W86510  27.052  12.681   2.687  0.1783 -0.1793 -0.0171
85647W        W86511  26.472   8.265   3.740 -0.0374  0.3618  0.0876
85648W        W86512  26.722   9.572   3.524 -0.2035 -0.0319  0.0300
85649W        W86513   1.040   7.814   4.116  0.0249  0.0975 -0.1232
85650W        W86514  26.780  11.104   1.791 -0.1766  0.2576 -0.0799
85651W        W86515  26.503  10.973   4.249  0.2010  0.2407 -0.1246
85652W        W86516  28.247  10.234   0.915  0.2322  0.3330 -0.0971
85653W        W86517  28.081   9.266   2.219  0.3342  0.2458 -0.0837
85654W        W86518   0.004   8.590   3.508 -0.1827 -0.0771 -0.3056
85655W        W86519  26.626   8.245   6.409 -0.1403  0.0055 -0.1089
85656W        W86520  28.912   8.212   2.885  0.0977  0.0019 -0.1800
85657W        W86521  27.667   8.490   3.647  0.0355  0.1801 -0.0601
85658W        W86522  29.114  11.062   3.740 -0.2179 -0.0179 -0.0705
85659W        W86523  25.910   9.169  27.556 -0.0863 -0.2232  0.3259
85660W        W86524  26.854  12.166   5.592  0.0002 -0.1911  0.2034
85661W        W86525  29.031  10.242   2.234  0.1007  0.1352  0.0376
85662W        W86526  28.833   8.712   4.779  0.2841  0.2817 -0.0982
85663W        W86527  26.775   8.794   4.821  0.0824 -0.0617 -0.0930
85664W        W86528  28.988   9.099   3.677  0.1431  0.0188  0.0349
85665W        W86529  26.336  12.169   2.762  0.1098  0.0852  0.1461
85666W        W86530  27.692  11.135   1.405  0.1409  0.1315  0.1616
85667W        W86531  23.999  10.485   1.315 -0.2327  0.2022  0.0186
85668W        W86532  26.171  11.303   1.242  0.1340  0.1602  0.1103
85669W        W86533  26.995   7.556   3.932  0.2673 -0.0638  0.1322
85670W        W86534  26.728   7.709   4.515 -0.2825  0.0396  0.2497
85671W        W86535  28.582  10.192   5.115  0.2402  0.0832 -0.2109
85672W        W86536  27.688   8.522  28.870  0.0008 -0.1805 -0.0596
85673W        W86537  28.444  11.791   4.374 -0.1560 -0.1904  0.0165
85674W        W86538  27.951   8.380   1.232  0.0714  0.1560 -0.3447
85675W        W86539  27.800   8.709   1.613 -0.1286  0.1263  0.2936
85676W        W86540  28.275  10.961   3.784 -0.3628 -0.0064 -0.0905
85677W        W86541  26.412   7.639   3.313 -0.1806 -0.0203  0.0993
85678W        W86542  25.947   8.699   1.526  0.1900  0.2683 -0.1129
85679W        W86543  27.319   7.936   0.798  0.0660  0.2146  0.0901
85680W        W86544   1.708   8.867  27.540 -0.2196  0.0237 -0.0341
85681W        W86545  25.838  12.982   2.512  0.0187 -0.0899 -0.3703
85682W        W86546  27.406  10.453  28.598  0.0165 -0.0693  0.1161
85683W        W86547  25.506   9.540   0.354 -0.1634  0.1744 -0.0453
85684W        W86548  26.008   9.171   1.604  0.3086 -0.1054 -0.0434
85685W        W86549  27.191  10.042   5.814  0.2046  0.2924  0.0922
85686W        W86550  28.598  10.323   3.034  0.1851  0.0901  0.0378
85687W        W86551  26.101  10.131   0.665 -0.0896  0.0584 -0.1158
85688W        W86552  28.180   5.858   3.757 -0.1088 -0.0378 -0.3584
85689W        W86553  26.360   8.321   1.027  0.1972 -0.1998  0.1408
85690W        W86554  25.248   8.624  28.472  0.2150 -0.1999 -0.3748
85691W        W86555  26.205  10.350   3.653 -0.0936 -0.0472 -0.0057
85692W        W86556  25.943   9.877   3.500  0.2118  0.1281 -0.0183
85693W        W86557   0.165   9.464   4.912 -0.1243  0.0291  0.2286
85694W        W86558  27.645   9.383   0.377 -0.1102 -0.0135 -0.1345
85695W        W86559   2.071  12.205   3.275  0.2024 -0.2990 -0.0174
85696W        W86560   0.120   7.385   3.190  0.1472  0.1328  0.4632
85697W        W86561   0.667   8.961   0.986 -0.0787  0.0765  0.1631
85698W        W86562   0.310   9.568   6.260  0.0030  0.1186  0.3129
85699W        W86563  24.047   8.758   2.427 -0.1044  0.0783  0.0741
85700W        W86564  27.475  11.303   3.233  0.2761  0.0071 -0.0042
85701W        W86565  27.181  10.168   1.367  0.2107  0.2545  0.0947
85702W        W86566  26.598   7.796   2.890  0.4420 -0.3227 -0.1493
85703W        W86567  25.652  11.293   4.151  0.0679 -0.3324 -0.0914
85704W        W86568  23.075  10.228   3.917  0.2127 -0.2213 -0.1173
85705W        W86569  27.055   7.181  28.840  0.3170  0.2253 -0.1439
85706W        W86570   0.384   8.398   4.886  0.3566  0.2154  0.2600
85707W        W86571  26.155   7.835   2.207 -0.1527 -0.2912 -0.3055
85708W        W86572  28.060  10.721   0.773 -0.0418  0.2857  0.1512
85709W        W86573  28.099  10.648   4.175  0.0655 -0.1283  0.1791
85710W        W86574  27.497   8.285   2.289 -0.0268 -0.0685 -0.1532
85711W        W86575   0.835   8.436   2.274 -0.2057 -0.0423 -0.1309
85712W        W86576   1.152  10.502   1.702 -0.0971 -0.1837  0.5060
85713W        W86577  28.904   8.882   4.076 -0.0693 -0.1051  0.0970
85714W        W86578  28.547   9.676   4.578  0.2282 -0.1000 -0.2726
85715W        W86579  27.063   9.956   2.704 -0.2096 -0.0556 -0.0871
85716W        W86580  28.047   9.647  28.659 -0.0396  0.2632 -0.0196
85717W        W86581  24.503   8.587   3.171 -0.2397 -0.2323  0.2182
85718W        W86582   0.586   7.268   1.948  0.0843  0.3633 -0.0694
85719W        W86583   1.386   9.641   1.271  0.1083  0.1976  0.2134
85720W        W86584  26.433  10.022   3.363 -0.3608 -0.0607 -0.0304
85721W        W86585  29.018   7.887  28.632  0.1188  0.1579 -0.3460
85722W        W86586  28.156   8.715  29.086 -0.2425 -0.2846  0.2392
85723W        W86587   0.221  10.372   0.149 -0.2139 -0.1813  0.3516
85724W        W86588  26.106   8.366   2.513 -0.0129  0.2980  0.0464
85725W        W86589   1.182   6.235  27.984  0.0945  0.2812  0.0100
85726W        W86590  27.783  10.792   3.213 -0.1208  0.4153 -0.2534
85727W        W86591  27.987   8.991   0.367 -0.1286  0.1285 -0.1726
85728W        W86592  27.398   8.620   1.920 -0.1967 -0.0055  0.0466
85729W        W86593  26.404   9.796   0.841  0.1196  0.0331 -0.1260
85730W        W86594   0.743   9.883   3.330  0.1783 -0.3010 -0.0773
85731W        W86595   0.501  10.589   2.881 -0.0487  0.2157  0.1807
85732W        W86596  25.850   8.440   1.164 -0.2823  0.0429  0.1448
85733W        W86597  26.345  10.404   2.187 -0.0985  0.1456  0.3876
85734W        W86598  28.362   9.567   3.306  0.0842 -0.0041  0.0507
85735W        W86599   0.082   9.753   3.144 -0.0569 -0.0155  0.1431
85736W        W86600  27.417   9.987   4.798  0.1882 -0.0583 -0.0222
85737W        W86601   0.941   8.745  28.081  0.0092  0.1998 -0.2632
85738W        W86602  25.737   7.795  28.732 -0.2462  0.2360 -0.0707
85739W        W86603   0.311   7.241   4.534  0.0851 -0.5803 -0.1272
85740W        W86604  26.612  11.581   1.347  0.0424 -0.0349  0.1148
85741W        W86605  26.914   8.209  28.194  0.1235  0.2141 -0.1034
85742W        W86606   0.898   9.209   2.851  0.0503 -0.2010  0.2920
85743W        W86607   1.013   9.298   0.519  0.2575  0.0734 -0.1801
85744W        W86608   3.287  11.934  29.023 -0.1126 -0.3644  0.0655
85745W        W86609  27.125  11.230   1.420  0.0339 -0.1648  0.0199
85746W        W86610  25.831   9.904   0.157  0.0366  0.1509 -0.0834
85747W        W86611  28.162  11.260   3.417 -0.1441 -0.2077 -0.0145
85748W        W86612   3.244   7.778   3.639  0.0585  0.0973  0.1231
85749W        W86613  26.444   6.728   3.125 -0.0905  0.0756 -0.1009
85750W        W86614  27.629   9.066   2.012 -0.1281  0.2021 -0.0098
85751W        W86615  28.756   8.890   2.276  0.1500 -0.0577 -0.0951
85752W        W86616  29.053  12.331   0.398 -0.1096  0.2473 -0.0926
85753W        W86617  27.690  12.099   3.740  0.3197 -0.1507  0.1014
85754W        W86618  25.572  10.695   3.228  0.1016  0.1767 -0.0581
85755W        W86619  26.788  10.184   3.097 -0.0077 -0.1730 -0.2475
85756W        W86620   1.936   8.817   1.163  0.0904 -0.0033 -0.0283
85757W        W86621   0.319   9.258   1.832 -0.0499 -0.3285 -0.0013
85758W        W86622  25.992  11.220   3.248  0.0197 -0.1222  0.0440
85759W        W86623  27.953   7.495   1.657 -0.0059  0.1230  0.1403
85760W        W86624  28.033   6.594   3.977  0.1933  0.0769  0.1715
85761W        W86625  26.230   9.587  29.014  0.3190 -0.0804  0.0464
85762W        W86626  25.977  11.052   1.604 -0.2925 -0.1465  0.2496
85763W        W86627  25.896   9.281   0.165  0.0167  0.3331  0.0025
85764W        W86628  27.053   9.698   3.186 -0.1375  0.2445  0.1245
85765W        W86629  25.095   8.320   0.597  0.2776 -0.1951  0.0818
85766W        W86630  25.964   9.802  28.634  0.2323  0.1288  0.0514
85767W        W86631  27.270  10.400   2.560  0.1908  0.2584 -0.2164
85768W        W86632  25.878  10.402  27.991  0.1548 -0.1772 -0.2563
85769W        W86633  27.612   7.871   2.591  0.1799  0.0242  0.0181
85770W        W86634  28.404  12.249   4.135  0.0368 -0.0543  0.1000
85771W        W86635  28.387   9.179   2.991 -0.1574  0.1653 -0.0396
85772W        W86636  28.388  10.763   1.825 -0.0840  0.0340 -0.0188
85773W        W86637  28.283   9.419   4.283 -0.0708 -0.0665 -0.1645
85774W        W86638  27.310   7.626  28.980  0.0798  0.1858  0.1480
85775W        W86639  28.961  12.883   1.537 -0.1223  0.4911 -0.0585
85776W        W86640  26.856   7.765   3.295  0.0863  0.0679  0.1089
85777W        W86641  26.887  11.080   2.471  0.0103 -0.2623  0.0505
85778W        W86642  29.001   8.424   0.773 -0.1058  0.0741 -0.1158
85779W        W86643  25.410   9.388   0.895 -0.0128  0.1249 -0.0918
85780W        W86644  27.188   8.786   0.967  0.0604 -0.1482 -0.2843
85781W        W86645  24.937   7.133   0.394 -0.0334  0.1681 -0.0521
85782W        W86646  27.010   8.527   1.585 -0.0331 -0.3923 -0.0965
85783W        W86647  26.183   7.488   3.803 -0.2298 -0.2738 -0.1948
85784W        W86648  24.298  11.884   5.300 -0.2974  0.0911 -0.3147
85785W        W86649  27.707   8.211   1.629 -0.1347  0.0587 -0.0885
85786W        W86650  27.917   6.978   4.243  0.0358 -0.3820  0.0999
85787W        W86651  28.390   9.017   4.020 -0.0557  0.4091 -0.0734
85788W        W86652  28.793   9.788   2.059  0.1805 -0.2609  0.2195
85789W        W86653  25.347   6.102  27.604 -0.1655 -0.2413 -0.0105
85790W        W86654  25.581   9.623  28.986 -0.0781  0.0840 -0.1255
85791W        W86655   0.240  11.976   3.495 -0.2552 -0.3883  0.2854
85792W        W86656  25.593   8.579   0.660  0.0494  0.2694 -0.2314
85793W        W86657  28.673  10.398   2.534  0.2346  0.0231 -0.1519
85794W        W86658  28.677   8.118   1.722  0.0287  0.0608 -0.0516
85795W        W86659  26.220   9.678   2.077  0.1019 -0.0242 -0.2484
85796W        W86660  27.192   9.608  28.765  0.0075  0.0948  0.2705
85797W        W86661  26.227   7.687   1.350 -0.0558 -0.2290 -0.0478
85798W        W86662   0.770   8.043   0.015  0.0577  0.1722  0.1866
85799W        W86663  27.438   9.769   4.354 -0.2372 -0.2813  0.1551
85800W        W86664  23.619   8.639   2.683  0.1615 -0.2297  0.2029
85801W        W86665  24.514   8.869  28.983 -0.1336  0.2335  0.0335
85802W        W86666   1.873   6.967   2.165 -0.1103 -0.1841  0.0749
85803W        W86667  24.074  10.045  27.398 -0.1903  0.1032 -0.1356
85804W        W86668  26.657  10.065   1.289  0.1754 -0.0021 -0.2866
85805W        W86669  26.990   5.842   0.337  0.4016 -0.2059  0.2842
85806W        W86670  26.902   9.223   1.140 -0.1220  0.0753  0.1093
85807W        W86671  27.589  10.848  28.923 -0.0502  0.0321 -0.0927
85808W        W86672  27.560  12.044   2.755 -0.0829  0.1278  0.0825
85809W        W86673  27.407   6.341  28.902  0.1573 -0.2544  0.0082
85810W        W86674  23.414   6.743  25.857 -0.0186  0.1971  0.2566
85811W        W86675  27.868  13.758  28.252  0.0296  0.2852  0.1161
85812W        W86676  27.190   8.632  28.975 -0.2039  0.0670 -0.4249
85813W        W86677  24.800  10.100   0.859 -0.2150 -0.2009 -0.2693
85814W        W86678  25.667  11.310   2.357 -0.0797  0.3385 -0.1508
85815W        W86679  26.239   9.630   4.774  0.4059  0.2704  0.2164
85816W        W86680  27.906   7.920   2.972 -0.2608  0.1093  0.0863
85817W        W86681  26.379  10.859   3.691 -0.0008  0.2135 -0.2256
85818W        W86682  26.161   8.077   2.944 -0.1704  0.1949  0.2433
85819W        W86683  29.055   7.759   1.478  0.0728  0.0725  0.0703
85820W        W86684  26.179   9.649   2.624 -0.0803 -0.1979 -0.0753
85821W        W86685  26.664   7.465   1.517 -0.0235 -0.0642 -0.1783
85822W        W86686   0.390   6.500   0.933  0.0170  0.1912  0.1123
85823W        W86687  25.380   7.248   2.504 -0.1082 -0.2141  0.3871
85824W        W86688  28.921   5.666   2.960 -0.1190  0.1140  0.0462
85825W        W86689   1.128   8.380  28.858 -0.3627  0.0769 -0.0662
85826W        W86690  26.160  10.115  28.980  0.0694  0.0233 -0.0365
85827W        W86691  26.511   9.390   1.770  0.2416  0.1874 -0.0423
85828W        W86692  27.190   6.667  26.805 -0.2010  0.0154 -0.0187
85829W        W86693  27.217  10.832   3.487 -0.1771 -0.0045  0.3245
85830W        W86694  28.485  10.327   4.112 -0.3208  0.2184  0.2925
85831W        W86695  28.987  10.040  27.075 -0.1296 -0.0121 -0.0872
85832W        W86696  25.936   9.281  28.643  0.1210 -0.0616 -0.0252
85833W        W86697  26.459   8.541   1.616 -0.2930 -0.1036  0.3515
85834W        W86698  25.128  11.189   2.762 -0.1980  0.0035  0.0597
85835W        W86699  27.674   9.258   1.501 -0.2349  0.1477  0.1774
85836W        W86700  28.390   6.186   4.994  0.0492  0.0881 -0.1149
85837W        W86701  27.934   6.417   1.288  0.0731  0.0211  0.2517
85838W        W86702  29.091   9.098   0.214  0.0472 -0.0300 -0.0190
85839W        W86703  28.105   9.517   1.292  0.0807 -0.1569  0.1793
85840W        W86704  28.753  11.686   0.022 -0.1271  0.0997  0.0884
85841W        W86705  27.105  10.895   4.357  0.0082 -0.0871 -0.3279
85842W        W86706  27.875  10.295   4.500 -0.0695  0.0458  0.2476
85843W        W86707  27.860   9.816   2.345  0.2522 -0.0285  0.2340
85844W        W86708  27.718   9.689   1.000  0.0318  0.1384 -0.1568
85845W        W86709  28.665  11.374   3.840  0.3654  0.2647  0.0972
85846W        W86710  27.922  11.493   0.212 -0.1471 -0.0487  0.3365
85847W        W86711   0.354  12.426   0.192  0.0746 -0.2698  0.1929
85848W        W86712  27.036   6.512   4.016  0.1173 -0.1077  0.2409
85849W        W86713  26.390  10.015   4.991  0.0955  0.1020  0.2780
85850W        W86714  28.546   6.602   3.971  0.1315  0.1181  0.0555
85851W        W86715  26.496  10.596   3.161  0.0324  0.1234  0.1232
85852W        W86716  27.853   6.954   2.679  0.0128  0.1358 -0.0153
85853W        W86717  25.885  10.921   4.404 -0.1338 -0.0365  0.1225
85854W        W86718  27.141   8.973   5.056 -0.1031 -0.3321 -0.0745
85855W        W86719  24.693   9.386   2.657 -0.2022  0.0098 -0.0047
85856W        W86720   0.167   9.099   0.905  0.0968  0.1931 -0.0314
85857W        W86721  28.355   9.947   3.776  0.1816 -0.1381 -0.1427
85858W        W86722  26.313  10.517   4.560  0.0884  0.0206 -0.4144
85859W        W86723   0.391  10.465  28.778  0.2220 -0.1308 -0.2215
85860W        W86724  28.298   7.217   2.492 -0.2655  0.2431  0.0961
85861W        W86725  27.307  10.503   3.132  0.0935  0.1066  0.0974
85862W        W86726   0.009   7.709   2.240 -0.1005 -0.1942 -0.1833
85863W        W86727   2.539  12.056   0.385 -0.2811  0.0081 -0.1097
85864W        W86728  25.694   6.751   1.032  0.1094 -0.0285  0.0327
85865W        W86729  26.384  12.442   3.217  0.1284  0.5904  0.2572
85866W        W86730  27.729   6.528   2.393  0.1419 -0.1774  0.1422
85867W        W86731  26.892   8.655   3.658  0.2458 -0.1527  0.0313
85868W        W86732  25.385   7.562   2.106  0.0292  0.3595  0.1810
85869W        W86733   1.791   9.046   1.867 -0.3447 -0.1708  0.2071
85870W        W86734  27.617  10.756   4.397  0.2683 -0.3594 -0.4098
85871W        W86735  28.039  15.262   2.266  0.3156  0.5322 -0.0953
85872W        W86736  26.403   6.551   1.975  0.1725  0.2401 -0.1823
85873W        W86737  28.104  11.637   2.104 -0.1749  0.1154  0.0363
85874W        W86738  24.565  12.268   3.632 -0.3168  0.0880 -0.1977
85875W        W86739  27.666   8.681   5.236 -0.0723  0.0061  0.1081
85876W        W86740  27.378   8.263   2.897  0.1817 -0.1333 -0.2794
85877W        W86741  24.659   9.520   0.452 -0.1766 -0.2419  0.3284
85878W        W86742   3.226  11.342   0.756  0.0573 -0.0763 -0.2381
85879W        W86743  26.525   7.303  28.408 -0.1461  0.0255 -0.0948
85880W        W86744  27.863   7.998   3.773  0.3132 -0.0827  0.3585
85881W        W86745  29.052  13.526   2.469  0.0115 -0.0306  0.3053
85882W        W86746  27.819  10.999   0.206  0.0927  0.0139 -0.0063
85883W        W86747   1.498  11.579   1.361  0.1387  0.1140  0.0278
85884W        W86748   0.211   8.020   0.719  0.2351 -0.0477 -0.1603
85885W        W86749  26.003  11.212   2.758  0.2826  0.1398  0.2132
85886W        W86750  26.429   7.891   1.760  0.0552  0.2750 -0.2577
85887W        W86751  27.909  11.871   1.179  0.2729 -0.4018  0.4148
85888W        W86752  24.050  11.480   1.044 -0.1157 -0.2486 -0.0091
85889W        W86753  25.612  10.733  26.490 -0.2386 -0.0121  0.1089
85890W        W86754   1.804  11.197   1.560  0.2051 -0.1564 -0.0084
85891W        W86755  28.465   9.074   3.521 -0.1090  0.1147 -0.0237
85892W        W86756   0.780   7.515  28.717  0.0135 -0.2519  0.1315
85893W        W86757  25.247   8.126   1.660  0.3753 -0.4216  0.0416
85894W        W86758  28.673   6.885   2.701  0.0670 -0.3775  0.0205
85895W        W86759  27.583   8.725   2.971  0.3323 -0.0753  0.3998
85896W        W86760  25.210  11.677   2.733 -0.2612 -0.4302  0.1903
85897W        W86761  26.972  10.440   0.295  0.1946  0.0583  0.0469
85898W        W86762  28.131   7.660   2.427 -0.1572  0.2020  0.0003
85899W        W86763   1.867   6.957   2.692  0.0296  0.3681 -0.1700
85900W        W86764  24.849   7.603   2.299 -0.1630  0.0935 -0.2103
85901W        W86765  25.526   7.652  27.011 -0.0570 -0.1301 -0.3288
85902W        W86766  25.794   9.412   2.858  0.0050 -0.0405  0.3718
85903W        W86767  25.602   8.760   3.504  0.2429  0.0550 -0.0021
85904W        W86768   0.029   6.238  27.408  0.3776 -0.0480  0.0860
85905W        W86769  26.604   7.457   0.596 -0.0629  0.0496 -0.0926
85906W        W86770  26.853  12.354   1.891  0.0733  0.1789 -0.3616
85907W        W86771  28.323   8.771   1.995 -0.0684  0.1773 -0.2006
85908W        W86772  27.210   8.509   4.752 -0.2505  0.1145 -0.0532
85909W        W86773  28.336  10.821   3.258  0.0396 -0.1785 -0.1734
85910W        W86774  25.846   8.186   4.499  0.1371 -0.2008 -0.3966
85911W        W86775  27.491   6.663   0.099 -0.1705 -0.1914  0.3238
85912W        W86776  26.789   9.570   0.636 -0.0499 -0.1248 -0.4214
85913W        W86777  27.402   7.533   1.152 -0.0528  0.4458 -0.0038
85914W        W86778   1.257   8.409   2.545 -0.3264 -0.2037  0.0902
85915W        W86779   0.204   8.743   0.520  0.0606  0.0448  0.0817
85916W        W86780  27.399  10.905   1.811 -0.1042  0.0540 -0.1519
85917W        W86781  25.827   7.526   1.619 -0.1096  0.3095 -0.2255
85918W        W86782  27.688   8.828   1.126  0.3246 -0.0226  0.1757
85919W        W86783  27.714  10.307   1.568  0.1667  0.0450 -0.1179
85920W        W86784   0.616   9.654   4.769 -0.3054  0.1045  0.2078
85921W        W86785   0.797   8.472   1.792  0.2116  0.1415  0.0348
85922W        W86786  23.576   9.210   1.853  0.1064  0.1775 -0.0648
85923W        W86787  23.995  11.353   0.496 -0.1423  0.1645 -0.1457
85924W        W86788  27.173   8.034   1.388  0.0111  0.1414 -0.1413
85925W        W86789  27.030  11.794   2.960 -0.3258 -0.0810  0.0603
85926W        W86790  26.337   9.593  28.428 -0.3806 -0.0650 -0.1336
85927W        W86791  28.203  10.536   2.401 -0.1582  0.1012 -0.0307
85928W        W86792   0.551   9.378   0.751 -0.1003  0.1755 -0.2868
85929W        W86793  27.861   7.441   2.813  0.0748  0.0480  0.4682
85930W        W86794  26.255   8.933   1.930  0.1539 -0.3616  0.0156
85931W        W86795  28.872  10.739   2.900  0.2531  0.0088 -0.1681
85932W        W86796  25.815   7.357   2.162  0.0170  0.0206 -0.2966
85933W        W86797  28.436   5.533   0.206 -0.0598 -0.0476 -0.0498
85934W        W86798  25.078   8.056   2.236 -0.2565 -0.4239 -0.2935
85935W        W86799   1.631   8.406   0.425  0.1266 -0.0744  0.1715
85936W        W86800  27.281  11.418   3.743  0.1364  0.2258 -0.2406
85937W        W86801  27.220  12.530   2.193  0.2104 -0.0747  0.0850
85938W        W86802  24.849   7.804   1.782  0.3828  0.0519 -0.0007
85939W        W86803  26.606   6.528   2.543  0.0969 -0.0056  0.0279
85940W        W86804  28.873  10.062   1.635 -0.1126 -0.2894 -0.0758
85941W        W86805  28.369   9.790   2.274 -0.0755  0.0421  0.0593
85942W        W86806  26.657   9.711   2.926  0.2234 -0.0671 -0.1569
85943W        W86807  27.447  14.298   4.336  0.0288 -0.0706 -0.2271
85944W        W86808   0.019  11.531   2.445 -0.0198  0.1384  0.1471
85945W        W86809  26.539   8.848   5.764 -0.0611  0.1767 -0.1266
85946W        W86810  28.551   8.543   4.222  0.2168 -0.1023  0.0433
85947W        W86811  24.555   7.081   2.985  0.0762 -0.0443 -0.1739
85948W        W86812  27.837   9.552   1.905 -0.2640 -0.0424  0.2127
85949W        W86813  27.240   8.503  28.453  0.0256 -0.2101  0.0380
85950W        W86814  25.998  11.635  28.980  0.3332  0.3739  0.2502
85951W        W86815   1.157   7.226  28.776 -0.3384 -0.1467 -0.1281
85952W        W86816  25.358   8.345   1.178  0.1524  0.2538  0.0034
85953W        W86817   0.501   9.710   0.370  0.0083  0.0824 -0.0877
85954W        W86818   0.049   8.117  26.725  0.2882  0.1386  0.2030
85955W        W86819   0.046   6.472   4.464 -0.3586  0.0456 -0.0765
85956W        W86820  27.967   9.238   3.334 -0.1135  0.0641  0.1036
85957W        W86821  28.923   8.930   2.805  0.2730  0.2854 -0.1005
85958W        W86822  28.315   8.072   1.102 -0.2452  0.0935 -0.0419
85959W        W86823  24.375  12.562   2.404 -0.3107  0.1265  0.3149
85960W        W86824  28.237   9.855   4.969 -0.1722  0.1473 -0.2842
85961W        W86825  26.751   7.742   2.307 -0.1718 -0.0337 -0.2142
85962W        W86826  28.747   7.635   0.872 -0.2894 -0.2821  0.3281
85963W        W86827  25.990   9.797  27.283 -0.1782  0.3619 -0.0924
85964W        W86828   0.748   8.151   2.689 -0.1106 -0.0814 -0.0282
85965W        W86829   0.273   8.789  29.125  0.2690  0.4550 -0.2682
85966W        W86830  24.742   8.948   1.274 -0.0098  0.0767  0.0175
85967W        W86831  25.257  10.479  28.720  0.1130  0.0597  0.2601
85968W        W86832  28.404  14.229   4.370  0.2023 -0.1347 -0.0816
85969W        W86833  27.006   9.749   1.657  0.4085  0.2098  0.2165
85970W        W86834  27.635   9.343   2.416 -0.4033 -0.2211  0.2000
85971W        W86835  28.137  11.189   0.618 -0.1239 -0.2071  0.2368
85972W        W86836  27.379   9.261   1.021  0.1519  0.0016  0.1816
85973W        W86837   1.432   9.162   2.175  0.3674 -0.1376 -0.2726
85974W        W86838  28.832   8.106   1.239  0.2801 -0.0801  0.0476
85975W        W86839  28.094  11.097   2.083 -0.1931 -0.2702 -0.2195
85976W        W86840  27.674  11.432   2.538  0.0898  0.0868  0.0733
85977W        W86841  26.250   8.385   2.007  0.1956  0.0801  0.2270
85978W        W86842   0.073   7.632   0.993  0.3517  0.1132  0.3246
85979W        W86843  27.335  12.642   4.976 -0.1385  0.0112  0.3287
85980W        W86844  26.656   6.846   3.746 -0.1720  0.1388 -0.0453
85981W        W86845  25.051   8.935   4.270  0.0196  0.3098 -0.0914
85982W        W86846  24.831   8.323   1.837 -0.0238 -0.0321 -0.1791
85983W        W86847  25.622   7.920   1.394  0.2870 -0.1522  0.0753
85984W        W86848  27.937   9.978   1.354  0.0085  0.0543  0.1881
85985W        W86849  26.311   9.172   2.805 -0.1219  0.2363  0.0833
85986W        W86850  25.648   8.362   0.150 -0.2995  0.1207 -0.0949
85987W        W86851  27.310  13.518   3.151 -0.1242 -0.0939 -0.0654
85988W        W86852   1.567  10.290   1.473  0.2128  0.1121  0.0738
85989W        W86853  29.099   8.488   2.486 -0.3193 -0.0237 -0.0933
85990W        W86854   1.293  10.755   2.385 -0.4114  0.4921  0.0342
85991W        W86855  28.383   9.967   0.446 -0.1526 -0.2988  0.2772
85992W        W86856  27.922   6.443   2.915  0.1636 -0.0069  0.0679
85993W        W86857  27.217  10.624   0.754 -0.0970 -0.1777  0.0953
85994W        W86858   0.968   9.005   2.335  0.0057 -0.0125  0.2110
85995W        W86859  27.039  10.676   2.158  0.3347  0.2513  0.0840
85996W        W86860   0.910   7.640   2.634  0.1995 -0.3279  0.2055
85997W        W86861   0.147  11.023  28.956 -0.0228 -0.1264 -0.0047
85998W        W86862  28.521   8.492   2.704  0.2603 -0.1486 -0.0882
85999W        W86863  28.192  12.173   2.145  0.1593  0.1317 -0.0365
86000W        W86864  26.773   9.662   2.128  0.1122 -0.6122  0.0963
86001W        W86865   0.696   8.146   1.015 -0.0966 -0.0661  0.2291
86002W        W86866  25.437  10.154   2.449  0.4099  0.2414 -0.0204
86003W        W86867   0.087   7.728   4.586  0.1484  0.1220 -0.2772
86004W        W86868  25.636   9.074   1.936 -0.1212 -0.0130 -0.0354
86005W        W86869  24.682   7.047   2.472 -0.2637  0.0470  0.2565
86006W        W86870  27.439   9.631   2.828 -0.0160  0.1780 -0.2407
86007W        W86871  28.801   9.416   4.201 -0.0402  0.1728 -0.0626
86008W        W86872   0.339   7.311   3.963 -0.4503  0.0533 -0.2106
86009W        W86873  26.957  12.038   1.467 -0.0885 -0.2144 -0.1511
86010W        W86874  26.354  10.127   2.876  0.2877 -0.2139  0.1055
86011W        W86875  26.436   9.259   0.858  0.0276  0.0081 -0.0537
86012W        W86876   1.820   6.392   2.002  0.1252  0.0863 -0.1088
86013W        W86877  27.978   7.494   3.975 -0.1470  0.0549  0.1977
86014W        W86878  26.386  11.760   3.683 -0.3234  0.1631  0.1619
86015W        W86879  27.316  10.411   1.841 -0.0266  0.0802  0.0547
86016W        W86880  26.370  11.265  29.076  0.1252  0.1448 -0.3385
86017W        W86881  25.450  11.986   1.748  0.0628 -0.1384 -0.1524
86018W        W86882  27.014   6.813   3.414  0.0724 -0.2932 -0.1322
86019W        W86883  26.767  10.586  25.966 -0.1853 -0.0401 -0.2345
86020W        W86884  25.701  12.147   4.200 -0.1449  0.0469 -0.3700
86021W        W86885  27.927  11.207   2.977  0.2119  0.1032 -0.2659
86022W        W86886  24.772   7.597   0.477 -0.0610  0.0541  0.0016
86023W        W86887  26.325   9.269   6.238  0.2999 -0.2993 -0.0564
86024W        W86888  26.045   8.076   5.662  0.1751 -0.0386  0.1224
86025W        W86889  28.526   7.586   5.494  0.0182 -0.0300 -0.0380
86026W        W86890  27.405  10.463   6.049  0.2679  0.0403 -0.0236
86027W        W86891  26.810  10.312   4.889  0.4621  0.0592 -0.1897
86028W        W86892  27.405   7.680   3.018  0.1378 -0.1961 -0.0326
86029W        W86893  26.808   7.544   6.153  0.3392  0.0498  0.0135
86030W        W86894  28.110  10.450   2.912  0.0138  0.1106 -0.1694
86031W        W86895  26.174   9.135   7.271  0.0933  0.3505  0.0241
86032W        W86896  25.934   7.669   9.222 -0.2842 -0.0216  0.2696
86033W        W86897   0.294   5.380   8.764 -0.6364  0.0908  0.1068
86034W        W86898   1.263   8.549   5.180 -0.1528  0.0374 -0.0444
86035W        W86899  29.007   9.920   4.976 -0.1355 -0.1900  0.1247
86036W        W86900  28.934   7.693   8.755  0.2893 -0.0608 -0.1777
86037W        W86901  26.506   7.319   6.910  0.1324 -0.1414  0.0918
86038W        W86902  27.211   7.834   8.316 -0.0775 -0.1765  0.0530
86039W        W86903  28.459  11.251   3.012  0.0507 -0.2262 -0.1971
86040W        W86904  25.483   8.338   6.259 -0.1060 -0.3065  0.0520
86041W        W86905  26.173   5.799   8.464 -0.0361  0.1150 -0.2212
86042W        W86906   1.352   7.125   5.874  0.1326 -0.2102 -0.1107
86043W        W86907  28.665   9.499   7.405  0.0200 -0.0980 -0.3710
86044W        W86908  28.854   7.103   6.122 -0.0100 -0.1310  0.3562
86045W        W86909  27.650   8.575   4.171 -0.0914 -0.0470  0.0678
86046W        W86910  26.315   8.491   4.833 -0.1108  0.1020 -0.1478
86047W        W86911  24.479   9.930   4.054  0.2525  0.1288  0.0173
86048W        W86912  25.620   6.231   9.141 -0.1534  0.0795 -0.1131
86049W        W86913   0.981   9.711   5.602 -0.2325  0.0536 -0.1849
86050W        W86914  28.961  13.620   5.614  0.1361 -0.0264  0.0991
86051W        W86915  28.157   7.336   5.748 -0.1885 -0.0253  0.2193
86052W        W86916  28.771   7.737   4.957 -0.4012  0.1550  0.0333
86053W        W86917  25.626   7.590   6.582 -0.0357 -0.1846  0.1765
86054W        W86918  27.805  11.628   5.977  0.0479  0.4174  0.1305
86055W        W86919  24.969   6.863   5.557  0.0890 -0.1017  0.3174
86056W        W86920  26.616   8.805   7.266 -0.3050  0.0255  0.0224
86057W        W86921  23.481  11.121   9.651  0.1032  0.2266 -0.3478
86058W        W86922  28.885   9.024   6.566 -0.1996 -0.1339 -0.0174
86059W        W86923  25.908   6.087   3.578 -0.0755  0.0288  0.0020
86060W        W86924  27.962   9.910   5.813  0.0171  0.1820  0.4065
86061W        W86925   2.658   8.764   3.971  0.0623  0.1252  0.0404
86062W        W86926   1.289   8.165   7.941 -0.0519  0.2522 -0.2515
86063W        W86927  27.854   5.155   2.633 -0.2038  0.2127  0.0364
86064W        W86928  28.580   9.144   5.469  0.2121 -0.2361 -0.0620
86065W        W86929  26.466  10.010   6.250  0.0540 -0.2383  0.1011
86066W        W86930  29.125   9.425   6.757  0.1755  0.1564  0.0826
86067W        W86931  27.090  11.924   2.102  0.0016  0.3594  0.0208
86068W        W86932  25.616   9.689   3.810  0.0749 -0.0568  0.1550
86069W        W86933  27.018   7.553   6.862 -0.0901 -0.2840 -0.0454
86070W        W86934   2.022   7.324   7.042  0.1889 -0.1029 -0.1608
86071W        W86935  28.282   9.407   5.782  0.0100  0.0085 -0.0376
86072W        W86936   0.925   7.282   6.423  0.3757 -0.1135  0.3609
86073W        W86937  27.479   9.102   5.960  0.0310 -0.1107  0.0280
86074W        W86938  27.670   6.319   5.017 -0.0050 -0.0049  0.0994
86075W        W86939  27.391   7.362   7.327  0.2036  0.2035  0.0660
86076W        W86940  27.679   9.339   3.802  0.1448  0.1491  0.1276
86077W        W86941  27.691  10.761   2.175  0.0132  0.0648 -0.1313
86078W        W86942  26.349   9.964   6.958  0.0716  0.1465 -0.0052
86079W        W86943  23.517   7.987   4.812  0.0737  0.3141  0.0623
86080W        W86944   2.634  10.203   6.013  0.1372 -0.0652 -0.3424
86081W        W86945  27.269  11.819   5.535 -0.0873  0.1276  0.0893
86082W        W86946   0.603  10.027   5.538 -0.1095  0.1127  0.0085
86083W        W86947   0.808   7.186   2.406 -0.1296  0.0233  0.0365
86084W        W86948  24.776   7.708   5.867  0.2993 -0.3264  0.2314
86085W        W86949  29.030   9.183   5.276 -0.1451  0.1169 -0.0697
86086W        W86950  27.698   7.884   4.213  0.0357  0.0150  0.0065
86087W        W86951  26.083   9.689   6.538 -0.0407  0.0257  0.0016
86088W        W86952  28.058   7.763   8.306 -0.0610  0.1304  0.5068
86089W        W86953  26.030  11.727   3.335 -0.3185  0.1373  0.2344
86090W        W86954  27.087   5.950   3.194 -0.0897 -0.3407 -0.2449
86091W        W86955  24.150  11.006   5.920  0.1564 -0.2547  0.1558
86092W        W86956  27.797  10.298   3.384 -0.2611  0.0846 -0.0518
86093W        W86957  27.329  11.182   5.367  0.1251 -0.1713  0.0114
86094W        W86958  28.388   9.688   6.215  0.2457  0.0108  0.0175
86095W        W86959  28.591   8.042   6.303  0.2111  0.0695  0.0085
86096W        W86960  27.940   6.679   6.988  0.3678 -0.2288 -0.1305
86097W        W86961  28.447   6.636   5.342 -0.0073 -0.3608  0.0401
86098W        W86962  27.602   7.752   5.595  0.2263  0.0580 -0.0372
86099W        W86963  29.069   8.421   4.056 -0.1568  0.1189 -0.0028
86100W        W86964  28.324   6.270   5.764 -0.1091  0.1070  0.5048
86101W        W86965   1.625   6.770   4.698 -0.0701  0.0245  0.1609
86102W        W86966  26.128   7.081   5.107 -0.2018 -0.4131 -0.3136
86103W        W86967  26.595   7.791   7.134  0.1520 -0.0810  0.3339
86104W        W86968  28.460   8.266   9.045 -0.3130  0.4255  0.0470
86105W        W86969  27.533   9.161   5.350  0.2192 -0.0148 -0.0971
86106W        W86970  29.089   7.413   7.451 -0.1021  0.0155 -0.0231
86107W        W86971  28.583   6.799   7.022  0.0499 -0.0819  0.0821
86108W        W86972  28.417   7.956   5.168  0.1126  0.1415  0.0428
86109W        W86973   1.461  11.607   9.662 -0.2287 -0.0713  0.2255
86110W        W86974   1.017   6.715   7.680  0.0028  0.2368 -0.0417
86111W        W86975  27.040  11.088   6.359 -0.1909  0.0752 -0.0241
86112W        W86976  28.821   8.137   6.795 -0.0559  0.2048 -0.1303
86113W        W86977   0.222   4.631   4.744  0.3147 -0.0114  0.0682
86114W        W86978  28.267   6.910   8.813 -0.2394  0.0348  0.1387
86115W        W86979  26.872  12.412   5.098  0.1053 -0.0789  0.0131
86116W        W86980  28.850   6.297   5.281  0.2027  0.0661 -0.1239
86117W        W86981  27.041   4.455   9.325 -0.0658 -0.0008  0.1470
86118W        W86982  28.421   7.977   4.653 -0.0895 -0.2294 -0.2678
86119W        W86983   0.581   8.894   3.055 -0.0258 -0.0404  0.0549
86120W        W86984   0.478  12.185   6.735  0.1517 -0.1335  0.2596
86121W        W86985  27.279   6.348   4.429 -0.2645  0.0701 -0.1171
86122W        W86986   0.493   7.760   4.278  0.1059 -0.1065  0.1822
86123W        W86987   1.041  10.188   5.774 -0.1074 -0.0187  0.2556
86124W        W86988  24.269  10.332   4.661  0.0859  0.2183 -0.4655
86125W        W86989  25.719   8.264   2.807  0.0689  0.2534  0.3216
86126W        W86990  28.593   7.504   5.967 -0.0760 -0.2952  0.2458
86127W        W86991   1.262   7.757   6.296 -0.1516  0.2164  0.0133
86128W        W86992  26.392   7.716   7.840 -0.0688  0.2105 -0.1231
86129W        W86993   1.063   9.030   4.469 -0.1795  0.0437  0.1479
86130W        W86994  26.809   9.180   6.546 -0.0326 -0.0239  0.3537
86131W        W86995  24.991   7.769   7.621 -0.4056  0.1064  0.0860
86132W        W86996  26.114   8.663   8.102 -0.2888 -0.5412 -0.0208
86133W        W86997  25.298   8.867   8.862  0.1454 -0.2797 -0.0417
86134W        W86998  25.630  11.844   5.442 -0.0237  0.0713 -0.2948
86135W        W86999   0.170   6.082   7.682 -0.0052  0.0244 -0.2488
86136W        W87000   0.756   8.317   8.406  0.0963 -0.0350  0.0778
86137W        W87001  28.945   8.057   3.662 -0.2208 -0.2994 -0.0607
86138W        W87002  27.803   8.030   5.930 -0.2722 -0.3414 -0.0295
86139W        W87003   0.755   9.457   8.529 -0.2326 -0.0666  0.0653
86140W        W87004  27.095   8.829   4.323 -0.0575  0.1882 -0.2756
86141W        W87005  27.410   5.726   6.668  0.0298  0.0935 -0.0103
86142W        W87006  29.140   8.084   4.931 -0.2244  0.0028 -0.0336
86143W        W87007  28.128   9.499   0.420  0.1242 -0.1295  0.1503
86144W        W87008   0.082  11.180   4.985 -0.0473  0.2307 -0.0871
86145W        W87009  26.106   5.675   5.219  0.2122 -0.2928 -0.2891
86146W        W87010  25.342   8.955   6.407  0.0294 -0.0990  0.1472
86147W        W87011  26.406  11.337   3.445  0.1692 -0.3799  0.1009
86148W        W87012  28.938   9.118   5.816 -0.1501 -0.2122 -0.0095
86149W        W87013  23.618   7.674   7.918  0.1138  0.0976  0.2364
86150W        W87014  26.409   8.294   5.942 -0.2774  0.0692  0.0726
86151W        W87015  28.217  12.540   5.426  0.2411 -0.2898  0.1427
86152W        W87016  27.206  12.505   6.245  0.0694  0.2062  0.1428
86153W        W87017  28.179   8.543   7.372 -0.1216 -0.0975 -0.0111
86154W        W87018  25.583   7.108   5.126 -0.0002  0.0395 -0.1418
86155W        W87019  28.193  11.488   8.626 -0.0487  0.2606 -0.2666
86156W        W87020  28.445   6.794   3.535 -0.1029  0.0671 -0.0998
86157W        W87021  28.398   8.941   5.000  0.4394 -0.0842 -0.1461
86158W        W87022  26.076   4.669   8.955 -0.0407  0.0945 -0.1612
86159W        W87023  27.528   7.544   6.884 -0.0627 -0.0799  0.0676
86160W        W87024   0.183   7.219   6.701  0.0473  0.1166  0.0484
86161W        W87025  27.730  11.234   5.662  0.2005 -0.2609  0.1373
86162W        W87026  26.679  11.356   4.540  0.0172 -0.2691  0.1329
86163W        W87027  27.218   7.564   4.909 -0.2320 -0.2533  0.1853
86164W        W87028  27.930   6.095   7.443 -0.0711 -0.1027 -0.1233
86165W        W87029  25.496  13.962   4.319  0.3650 -0.0485 -0.0586
86166W        W87030  24.823  10.255   3.725  0.2274  0.1360 -0.3426
86167W        W87031  25.688   8.591   6.726  0.0894  0.0550 -0.0971
86168W        W87032  26.543   7.385   4.156 -0.2425 -0.3422 -0.0402
86169W        W87033  27.346   5.426   3.438 -0.0958  0.2556 -0.0239
86170W        W87034   0.770  11.984   6.302  0.1740  0.1790  0.1430
86171W        W87035  27.763   9.598   6.582  0.0889 -0.1117 -0.3445
86172W        W87036  26.589   8.769   6.243  0.0821  0.2162 -0.1265
86173W        W87037  27.336   8.219   4.398 -0.5316 -0.1900  0.2646
86174W        W87038  25.697   5.933   5.010 -0.1499 -0.1100  0.0493
86175W        W87039  25.570  11.383   2.940 -0.0296  0.0980 -0.2226
86176W        W87040  28.000   8.261   4.442  0.2440 -0.0079  0.0468
86177W        W87041  27.584   8.635   6.746  0.2567  0.2185  0.1535
86178W        W87042  28.080   5.609   7.522 -0.1535  0.0175  0.1018
86179W        W87043  24.000   8.984   6.676  0.1753 -0.0319 -0.2176
86180W        W87044  25.055  11.997   3.150  0.1001 -0.1210  0.2498
86181W        W87045  26.775   8.386   5.051 -0.1475 -0.2222 -0.1865
86182W        W87046   0.615   7.523   5.207  0.0888 -0.3467  0.2321
86183W        W87047   0.411   8.121   7.298 -0.1712  0.0699 -0.3849
86184W        W87048  26.375   9.542   5.236 -0.3401  0.0971  0.2886
86185W        W87049  26.816   7.307   9.302 -0.0396  0.1653  0.0570
86186W        W87050  27.589   9.813   8.934  0.2253 -0.1033 -0.2522
86187W        W87051  27.522   6.858   7.233  0.2930  0.0502  0.3589
86188W        W87052  26.608   7.772   3.745  0.0377 -0.0201  0.0449
86189W        W87053   0.127   6.099   5.544  0.0743 -0.1697  0.1113
86190W        W87054  27.414   7.833   3.808 -0.0461 -0.0919 -0.1043
86191W        W87055  28.659   8.389   5.640  0.0529 -0.3689 -0.2031
86192W        W87056  27.530   8.995   3.381  0.2954 -0.0237  0.0896
86193W        W87057  26.962  10.564   5.659 -0.2498 -0.0481 -0.1315
86194W        W87058  28.181   6.403   6.626 -0.2242  0.0073 -0.4566
86195W        W87059  28.157   8.515   5.250  0.1371 -0.0899  0.0753
86196W        W87060  26.556  10.008   2.419 -0.3229 -0.2226  0.0011
86197W        W87061   0.764   7.312   4.718  0.3333 -0.2310 -0.3063
86198W        W87062   1.645   7.443   3.474 -0.0552  0.0571  0.0950
86199W        W87063  26.933  11.422   8.490 -0.3368  0.0997  0.3715
86200W        W87064  25.007   8.623   6.171  0.0467 -0.2020 -0.1068
86201W        W87065  26.299  12.209   7.053  0.0732 -0.2701  0.1634
86202W        W87066   0.736   6.613   8.168  0.2046  0.0619  0.2381
86203W        W87067  26.709  10.823   4.695  0.1228  0.0638 -0.1428
86204W        W87068   0.940   8.980   3.451  0.0882 -0.1230  0.2310
86205W        W87069  28.179   7.929   3.364  0.2333  0.1211  0.0267
86206W        W87070  27.236   8.356   3.871  0.0396 -0.0730  0.2714
86207W        W87071  27.068   7.839   2.662  0.0884  0.1583  0.1023
86208W        W87072  25.786  10.112   8.982 -0.0298  0.1349  0.2102
86209W        W87073  28.897   7.138   7.095 -0.0429  0.2856 -0.1525
86210W        W87074  25.228   4.947   2.346 -0.1050 -0.0501  0.0528
86211W        W87075  25.888   6.829   5.434 -0.0971  0.1113  0.3720
86212W        W87076  28.615   9.015   4.453 -0.2915  0.4449 -0.0284
86213W        W87077  26.707  11.767   1.798  0.1746 -0.1419 -0.1441
86214W        W87078  22.948  10.622   7.581 -0.0467 -0.0593 -0.1211
86215W        W87079  24.775   7.554   6.579 -0.3306  0.3840  0.0117
86216W        W87080  28.344   7.125   6.153 -0.0013  0.1714  0.2004
86217W        W87081  28.076   8.480   5.723 -0.1152 -0.1588 -0.0445
86218W        W87082  29.118   7.907   7.313 -0.1233  0.2498  0.0444
86219W        W87083  27.223   7.718   4.406  0.0416 -0.2429 -0.0735
86220W        W87084  24.449   6.195   5.986  0.0769 -0.1231 -0.0191
86221W        W87085  27.174   6.508   5.033 -0.0433  0.2174  0.0672
86222W        W87086  28.843   6.936   3.807  0.0418 -0.1249  0.1489
86223W        W87087  26.819   6.377   4.458  0.0384  0.0548 -0.0353
86224W        W87088  27.949   8.976   5.973  0.0454  0.0749  0.1275
86225W        W87089  28.601   7.638   2.308 -0.2001 -0.0518  0.2900
86226W        W87090  23.960   6.693   6.667  0.2050  0.1465  0.1232
86227W        W87091   0.078   5.498   6.888 -0.0967  0.2461 -0.0124
86228W        W87092  27.663  10.237   2.905 -0.4905 -0.1729 -0.3944
86229W        W87093  25.957   7.805   8.076  0.0389 -0.1848  0.1416
86230W        W87094   0.688   8.789   5.863 -0.2471 -0.1671 -0.1884
86231W        W87095  24.972  10.901   4.661  0.1282 -0.0152  0.1039
86232W        W87096  25.571  10.704   4.044 -0.0139  0.4998  0.1340
86233W        W87097  25.901   6.040   5.989 -0.0149 -0.3701 -0.1441
86234W        W87098  25.809   6.472   5.751  0.0618  0.0686  0.3111
86235W        W87099  24.706   7.597   5.366  0.3336  0.0973  0.0702
86236W        W87100   1.555   7.137   5.397 -0.2023 -0.0014  0.1016
86237W        W87101   0.014  11.780   5.926 -0.0847  0.1081  0.1070
86238W        W87102   0.406   6.022   3.837  0.1784 -0.2773 -0.2139
86239W        W87103   1.838   7.915   5.472  0.0572 -0.2707 -0.0869
86240W        W87104  28.708   7.642   4.484  0.4406 -0.1674 -0.1016
86241W        W87105  28.226   8.281   8.578  0.2177  0.1218 -0.1808
86242W        W87106  24.818  10.154   9.092  0.0688 -0.1889 -0.2474
86243W        W87107   1.812   7.646   6.411  0.1347  0.0889 -0.0113
86244W        W87108   0.263   7.021   5.174  0.0295 -0.0134 -0.2536
86245W        W87109  24.797   8.095   6.507  0.1824  0.0405  0.2449
86246W        W87110  27.129   5.514   4.180 -0.1277 -0.0196 -0.1465
86247W        W87111  27.086   9.074   2.246 -0.2113 -0.0560 -0.0767
86248W        W87112  25.437   6.183   7.593  0.0393 -0.1624 -0.1082
86249W        W87113  27.317   8.260   5.737  0.0585 -0.0571 -0.0801
86250W        W87114   2.162   8.335   7.060  0.0193 -0.0259  0.3767
86251W        W87115  28.458  10.036   5.801  0.1709  0.0391  0.2737
86252W        W87116  29.016   9.457   9.407  0.0203  0.1466 -0.2782
86253W        W87117  28.604   6.186   6.682 -0.0633 -0.1059 -0.0736
86254W        W87118  25.340   8.966   5.919  0.3990 -0.1319  0.0408
86255W        W87119  25.135  10.563   4.171 -0.2047  0.1174  0.0292
86256W        W87120  27.968   8.950   7.020 -0.0378 -0.0638 -0.0031
86257W        W87121  28.932   6.913   7.513 -0.0603  0.3999 -0.1004
86258W        W87122  27.214   9.477   3.694 -0.1042 -0.1731  0.2069
86259W        W87123   2.372   7.301   3.183 -0.0176  0.0780  0.2442
86260W        W87124   0.234   8.640   6.183 -0.0853 -0.1069 -0.1972
86261W        W87125   0.237   7.817   7.755 -0.2132 -0.2854 -0.0520
86262W        W87126  27.789   9.071   4.201  0.3088 -0.0734 -0.2256
86263W        W87127   0.645  10.993   4.189 -0.0725  0.0754  0.0098
86264W        W87128  20.260  10.782   4.950  0.0994 -0.4247 -0.3085
86265W        W87129  27.139   6.275   6.356  0.0690  0.2150  0.0970
86266W        W87130  27.728   7.453   5.030  0.1296 -0.0769  0.1283
86267W        W87131  26.776   7.291   3.451 -0.0933  0.0282  0.0403
86268W        W87132  26.953   9.894   4.590  0.2000 -0.1942 -0.1905
86269W        W87133  26.213   9.975   5.450 -0.4971 -0.1745  0.1357
86270W        W87134  26.106   8.759   6.938  0.1373  0.4312 -0.1942
86271W        W87135   1.263   8.875   5.772  0.1934 -0.0157 -0.1811
86272W        W87136  27.749   7.241   5.541 -0.0141 -0.1329 -0.0222
86273W        W87137  28.531   6.687   7.636 -0.3328  0.2336 -0.3032
86274W        W87138  26.678   9.373   5.866  0.1688 -0.1774  0.0860
86275W        W87139  28.858  11.831   6.316 -0.2194 -0.0477  0.1386
86276W        W87140  27.105   7.854   5.551  0.1028  0.2295 -0.3924
86277W        W87141  26.689   7.048   1.853  0.0457 -0.3639 -0.1729
86278W        W87142   0.494   8.992   4.496  0.1402 -0.2142 -0.0400
86279W        W87143  28.426   5.491   5.667 -0.0715  0.1017  0.2266
86280W        W87144  25.506   5.641   7.482  0.1900  0.0859 -0.1422
86281W        W87145  27.988  11.746   6.400  0.2608 -0.1285  0.0510
86282W        W87146   1.348   5.502   7.329  0.1892  0.0221  0.1484
86283W        W87147  26.862   7.009   5.990  0.0327  0.2302  0.0609
86284W        W87148  26.725   8.195   6.897 -0.1036 -0.2186 -0.0353
86285W        W87149  28.725   8.284   5.057 -0.0356 -0.0218  0.1105
86286W        W87150  26.481   9.674   8.071 -0.2146  0.0496 -0.0511
86287W        W87151  26.869   9.753   6.150  0.1087  0.0910  0.2519
86288W        W87152  26.711  12.222   4.050  0.2516  0.1475  0.1044
86289W        W87153  26.079  13.116   3.977 -0.0504  0.0353  0.0025
86290W        W87154   0.558   6.764   5.541  0.1388  0.0726 -0.1202
86291W        W87155  25.063   8.178   5.496  0.0089  0.1579 -0.1495
86292W        W87156  29.104   6.665   2.528  0.0606  0.4723  0.2490
86293W        W87157   0.117   9.137   6.291 -0.1054  0.4108  0.0005
86294W        W87158  28.730   7.134   6.608  0.0182  0.1785  0.2224
86295W        W87159  27.785   9.023   6.472 -0.0349  0.0916 -0.0531
86296W        W87160  25.401   6.143   5.806  0.2381 -0.0175  0.1402
86297W        W87161  28.446  10.601   5.385 -0.1548  0.2228  0.0869
86298W        W87162  26.625   3.461  10.414 -0.1723  0.1135  0.3775
86299W        W87163  26.610   6.086  10.787 -0.1332 -0.1632  0.1612
86300W        W87164  27.324   9.268   4.223 -0.4046  0.2152  0.2529
86301W        W87165  23.922   8.459   8.546  0.3460  0.4579 -0.0144
86302W        W87166  25.571   9.699   6.587  0.2042 -0.1811 -0.1578
86303W        W87167  27.066   8.958   5.618 -0.0356  0.0931 -0.1315
86304W        W87168  26.810   9.272   4.434 -0.0690  0.0013  0.0861
86305W        W87169  27.171   7.381   8.460 -0.1733  0.1216  0.0635
86306W        W87170  27.454   6.890   5.733  0.2125  0.2268  0.0950
86307W        W87171  29.028   7.424   5.616  0.0412 -0.0426 -0.2836
86308W        W87172  28.339   7.573   7.919 -0.0593  0.1141 -0.1106
86309W        W87173  28.910   9.332   3.129  0.0190  0.1239  0.2082
86310W        W87174  26.616   7.719   6.601 -0.0887  0.0553 -0.0168
86311W        W87175   0.619   6.930   4.166 -0.3221  0.3458  0.0112
86312W        W87176  28.751   9.578   5.251 -0.0426 -0.2154 -0.0348
86313W        W87177  27.025   7.270   4.413 -0.2556 -0.1387 -0.0052
86314W        W87178  28.275   7.035   2.917 -0.2605 -0.2047 -0.1325
86315W        W87179   0.892   8.904   5.359  0.1879 -0.2131  0.0009
86316W        W87180  25.695  10.333   3.637 -0.0685 -0.1246  0.0887
86317W        W87181  25.630  11.456   5.074 -0.0161  0.0408  0.1151
86318W        W87182  28.848   6.339   7.163  0.0793  0.1897  0.0197
86319W        W87183  26.448   9.545   4.143 -0.0191  0.3054 -0.0048
86320W        W87184   1.256  10.949   2.906  0.0520  0.1720  0.0158
86321W        W87185  28.427   7.264   7.075  0.2437 -0.0627  0.0666
86322W        W87186  23.940  12.395   4.761 -0.1691  0.1328  0.0561
86323W        W87187  26.946  10.094   2.104 -0.3521 -0.4876  0.0744
86324W        W87188  26.135   6.968   4.548  0.1346  0.1583 -0.0928
86325W        W87189  24.994   7.208   5.183 -0.0626 -0.1532 -0.1037
86326W        W87190   1.876   7.275   6.094  0.2600 -0.1774 -0.0223
86327W        W87191  28.795   8.109   2.374  0.3539 -0.1104  0.3305
86328W        W87192  27.177  10.408   6.725 -0.2121  0.2163 -0.1180
86329W        W87193  26.567   9.460   7.188 -0.0236 -0.1397 -0.0455
86330W        W87194  27.477   9.940   1.938 -0.1241  0.1435 -0.1004
86331W        W87195  28.207   7.451   6.529 -0.1736 -0.0458  0.0954
86332W        W87196  27.370  10.372   3.642 -0.0547  0.5389  0.2669
86333W        W87197  26.084  10.027   4.019  0.0683 -0.2179 -0.0250
86334W        W87198  27.444   8.941   7.853  0.0425  0.2514  0.1727
86335W        W87199   0.209   6.138   6.135  0.1270  0.1547  0.1541
86336W        W87200  27.502   9.753   8.186 -0.1649 -0.0401  0.0586
86337W        W87201  27.710   8.209   5.413  0.1791 -0.2785  0.0873
86338W        W87202  26.006  10.156   6.476 -0.0071  0.1215  0.0313
86339W        W87203  27.268   8.478   3.337  0.0034  0.0311 -0.1076
86340W        W87204  29.031   6.470   6.224 -0.0744  0.1938  0.2045
86341W        W87205  26.344  10.757   5.033  0.2132 -0.4465  0.1842
86342W        W87206  24.743   8.629   7.683 -0.3042  0.1849 -0.0953
86343W        W87207  26.354   9.116   4.979  0.1723  0.4132  0.1714
86344W        W87208  28.882   8.691   6.095 -0.4144  0.1319  0.3414
86345W        W87209  23.811  10.090   6.756 -0.2081  0.0789 -0.1937
86346W        W87210  25.707   6.827   7.105 -0.3530  0.1949  0.1988
86347W        W87211  26.597   9.641   6.672  0.2383 -0.0075  0.1856
86348W        W87212  26.817   9.874   7.020 -0.0432  0.2842 -0.0216
86349W        W87213  26.814   7.841   5.092 -0.1929 -0.2526 -0.0119
86350W        W87214  24.775  11.217   1.918  0.1550 -0.0613  0.0079
86351W        W87215   0.391   9.082   5.356  0.1045 -0.1095  0.2395
86352W        W87216  26.361   5.824   5.700 -0.0251  0.3223  0.2656
86353W        W87217   0.663   7.176   6.939 -0.3548 -0.4488 -0.0616
86354W        W87218   1.699   5.264   4.583 -0.1998  0.0269  0.0992
86355W        W87219   0.204   9.897   5.802  0.0580  0.0034 -0.2261
86356W        W87220  28.750   9.284   4.856 -0.1505 -0.2519  0.4286
86357W        W87221  28.414   8.457   6.102  0.3832 -0.0863 -0.0976
86358W        W87222  28.092  10.434   5.686 -0.0567  0.1495 -0.0423
86359W        W87223  25.737  10.596   6.244  0.1491 -0.0939  0.0774
86360W        W87224  26.226   6.719   7.392  0.0301  0.0327 -0.3147
86361W        W87225   0.344   8.247   4.370 -0.1267 -0.1222 -0.1124
86362W        W87226  26.497   9.554   1.339  0.0386  0.0949  0.1981
86363W        W87227  24.683  13.216   4.652  0.0620 -0.2480  0.1018
86364W        W87228  25.956   9.618   9.122  0.0855  0.0950 -0.0467
86365W        W87229  28.634   7.731   8.301  0.0251 -0.3169 -0.0731
86366W        W87230  22.924  12.040   4.489 -0.1348 -0.0688  0.0775
86367W        W87231  28.237  10.081   3.299 -0.2323 -0.0153 -0.4155
86368W        W87232  27.741   9.624   5.110  0.0641 -0.0107 -0.0956
86369W        W87233  25.495  10.223   4.123  0.0926  0.3955  0.0274
86370W        W87234  21.837   8.610   9.120  0.0197 -0.1076  0.2023
86371W        W87235  26.288  11.338   5.813 -0.0936  0.0618  0.3657
86372W        W87236  23.350   6.950   3.479  0.3588 -0.1684 -0.0288
86373W        W87237   0.053   8.318   7.085  0.0822  0.0336  0.0201
86374W        W87238  28.923   7.599   6.951  0.4757 -0.1545  0.0184
86375W        W87239  27.717  12.624   5.233  0.2436  0.1074 -0.1159
86376W        W87240  26.119  10.486   5.399 -0.2117 -0.1586 -0.1994
86377W        W87241  28.914  10.077   6.008 -0.0491 -0.3003 -0.0231
86378W        W87242  28.532   7.561   4.014  0.1159 -0.0207 -0.1321
86379W        W87243  25.522  10.060   6.157  0.1346 -0.2549 -0.1607
86380W        W87244  27.493   6.627   6.787  0.2029  0.0829  0.0383
86381W        W87245   0.358   6.605   7.063 -0.0632  0.0440 -0.2962
86382W        W87246  28.293   7.990   5.720 -0.0677  0.1339  0.3172
86383W        W87247  26.489   9.076   3.624 -0.2937 -0.2722  0.0789
86384W        W87248  27.497   9.602   6.110 -0.2435 -0.0779 -0.3008
86385W        W87249  25.886   9.740   6.085 -0.0981  0.3620  0.2852
86386W        W87250  26.673   6.355   4.914  0.2221  0.1076 -0.3154
86387W        W87251  23.461  11.617   3.086 -0.1002 -0.2675  0.0163
86388W        W87252  28.287   8.063   6.683  0.0234  0.0629  0.2336
86389W        W87253  25.722   9.577   1.912  0.0585  0.1558 -0.1577
86390W        W87254  28.471   8.890   5.873  0.0682  0.1300 -0.0504
86391W        W87255  27.509   5.622   1.172  0.0342  0.0635  0.0925
86392W        W87256  28.801   4.628   5.718 -0.1102 -0.1186  0.0105
86393W        W87257  25.603   9.099   2.481 -0.0944 -0.0803 -0.4076
86394W        W87258   1.084   6.227   6.125  0.0430 -0.0194 -0.3253
86395W        W87259  28.765   9.918   4.067 -0.1447 -0.0339  0.0959
86396W        W87260  26.708   6.363   7.161  0.1449 -0.2998  0.2651
86397W        W87261   2.046   8.868   5.262  0.1610  0.1474  0.2864
86398W        W87262  27.568   5.188   8.896  0.2127  0.2003 -0.1847
86399W        W87263  27.396   5.348   6.336 -0.0958  0.0180  0.0786
86400W        W87264  28.406   5.922   5.386 -0.3444 -0.1418 -0.0388
86401W        W87265  26.313   6.283   7.690 -0.1193 -0.1030 -0.1800
86402W        W87266  25.204   8.488   6.630  0.3301 -0.0283 -0.3908
86403W        W87267  27.783   7.858   6.536  0.0432 -0.0179 -0.2901
86404W        W87268  23.901   8.740   7.166 -0.0785  0.1253 -0.0300
86405W        W87269  27.315   9.051   7.390 -0.0416 -0.0911  0.0277
86406W        W87270  28.888   8.557   8.092  0.0512  0.1673 -0.3591
86407W        W87271  27.873   9.038   7.526  0.3284 -0.1464 -0.1031
86408W        W87272   0.578   5.732   4.600  0.1054  0.1803  0.1834
86409W        W87273  27.870   9.711   4.115 -0.3580  0.3039  0.1462
86410W        W87274  24.880   9.857   7.212  0.2480 -0.2811  0.2281
86411W        W87275   0.567   8.532   5.378 -0.0618 -0.0604 -0.1824
86412W        W87276  27.981  13.252   6.225  0.0753  0.2121  0.1058
86413W        W87277  26.135   6.720   7.977 -0.0076 -0.1293  0.1766
86414W        W87278  25.088  11.506   3.840 -0.0042 -0.2437  0.0698
86415W        W87279  27.800   8.309   3.206  0.1201  0.0341  0.0173
86416W        W87280  27.647  10.224   5.493 -0.2094 -0.0537  0.3647
86417W        W87281  26.329  10.768   5.837 -0.2295  0.0163  0.3501
86418W        W87282  27.863   6.090   8.672  0.2229  0.0514 -0.0829
86419W        W87283  26.662  12.241   6.575  0.0536 -0.1395  0.1347
86420W        W87284  25.759   5.976   8.267 -0.1827  0.1651  0.0377
86421W        W87285  25.520  11.871   3.221  0.2703  0.1922 -0.1093
86422W        W87286  24.695   9.059   5.045  0.0634 -0.4588 -0.3343
86423W        W87287  25.564  12.023   8.988  0.2149 -0.1138 -0.1019
86424W        W87288  26.090  12.114  10.588 -0.0396 -0.1166 -0.1295
86425W        W87289   1.782   9.743   7.734 -0.0073  0.3108 -0.0497
86426W        W87290   0.820   8.891   8.558  0.0592 -0.1120 -0.0668
86427W        W87291  27.466   5.609   5.676 -0.0903  0.0178  0.2078
86428W        W87292  25.856   9.426   9.692  0.1237 -0.0869 -0.3708
86429W        W87293  26.181   6.796   9.354 -0.1618  0.0011  0.1195
86430W        W87294  26.826   8.046   7.848  0.1669 -0.2726  0.2478
86431W        W87295  26.642  11.587   7.520 -0.0458  0.1136  0.4082
86432W        W87296  25.972   9.446  10.999 -0.0134 -0.1472  0.0534
86433W        W87297  26.554   6.866  11.250 -0.1127 -0.0097 -0.0439
86434W        W87298  25.815   5.502   8.028 -0.0418 -0.1353  0.0463
86435W        W87299  25.383   6.232   8.394  0.3185  0.0012 -0.2063
86436W        W87300  28.727   7.841   9.786 -0.0157  0.0871  0.0580
86437W        W87301  27.909   8.830   9.936  0.2284  0.0909 -0.0210
86438W        W87302  26.984   9.588  11.971  0.0931  0.0771 -0.0383
86439W        W87303  25.602   7.329   7.221  0.2670  0.0629  0.0743
86440W        W87304  27.071   9.698  11.158 -0.0174 -0.3320 -0.0399
86441W        W87305  27.548   8.713  11.895 -0.0309  0.1594  0.0852
86442W        W87306  28.542   9.204   6.273 -0.1329  0.0748  0.0573
86443W        W87307  26.261   8.431  11.383 -0.0342  0.0858 -0.3528
86444W        W87308  27.387   8.214  10.299  0.3201 -0.0322  0.1712
86445W        W87309  24.812   8.173  10.595 -0.1655  0.0477  0.0261
86446W        W87310  26.297  10.089   9.186  0.0704 -0.1702  0.0965
86447W        W87311  22.995  11.121  10.420 -0.0413 -0.2283 -0.2573
86448W        W87312  24.627  11.385  11.731 -0.4063 -0.2139 -0.0411
86449W        W87313   0.705   7.906   8.011  0.0759 -0.1441  0.0651
86450W        W87314  24.550   7.344   8.334  0.1026  0.0798  0.1753
86451W        W87315   0.190  12.666  11.245 -0.0767  0.0827  0.0927
86452W        W87316  26.015   6.270   8.733  0.3997  0.0579 -0.1949
86453W        W87317  26.798   9.376   9.412 -0.0472 -0.0526  0.1402
86454W        W87318  28.780  12.788  10.530  0.2178  0.1561  0.1848
86455W        W87319  27.875   9.945  10.371  0.0010  0.1785  0.1794
86456W        W87320  25.613   8.557  12.683 -0.4960 -0.0525 -0.3257
86457W        W87321  25.160   7.382  13.143 -0.3392 -0.0899 -0.3122
86458W        W87322  27.043  10.139   9.033 -0.1840  0.3351  0.1016
86459W        W87323  24.724   6.250   6.989 -0.1479  0.1605  0.0628
86460W        W87324  24.923   9.275   8.039  0.0769 -0.0384  0.0795
86461W        W87325   3.184  10.653   8.514 -0.0044  0.2044 -0.2822
86462W        W87326  26.000   6.798   8.869 -0.5478  0.0470 -0.1068
86463W        W87327   1.271   6.708   7.233  0.2100 -0.0406 -0.0055
86464W        W87328  29.115   9.596   9.915 -0.1740 -0.1665  0.1661
86465W        W87329  28.789   9.828   8.873 -0.1767 -0.0917  0.2766
86466W        W87330   0.657  12.003   7.714 -0.0077 -0.3901  0.0045
86467W        W87331  27.146  10.139   7.239  0.0251  0.0607 -0.1053
86468W        W87332  26.909  11.466   6.667  0.1240  0.1511  0.2669
86469W        W87333  25.553   8.004  12.680  0.1598 -0.2612  0.1798
86470W        W87334  27.442   5.497   8.096  0.0464 -0.0174 -0.1760
86471W        W87335   0.342  10.262   7.620 -0.1890 -0.3413  0.1832
86472W        W87336  26.950   8.743   9.632 -0.0414  0.0732  0.0581
86473W        W87337  26.141  10.398   7.240  0.1391 -0.0048  0.0324
86474W        W87338  26.768   8.320   9.363 -0.0818 -0.1573  0.0879
86475W        W87339  26.859  11.801   8.804  0.0803 -0.1633  0.2281
86476W        W87340   0.025   8.804  10.139  0.0856  0.2965 -0.0932
86477W        W87341   0.104   5.117   8.205 -0.0227 -0.1341 -0.1407
86478W        W87342  24.915  10.014   8.583  0.0268  0.1253 -0.0708
86479W        W87343  24.931  10.196   5.914 -0.2235 -0.3777  0.1511
86480W        W87344  26.473   8.121   8.206 -0.2074 -0.2030 -0.0153
86481W        W87345  25.718   8.937   7.875  0.0178  0.0736  0.3230
86482W        W87346  26.795   9.824   5.604  0.1556 -0.0392  0.0549
86483W        W87347  28.637   8.321   7.563 -0.1120 -0.0677  0.0583
86484W        W87348  24.651   8.793  11.938 -0.0600  0.2736 -0.0149
86485W        W87349  26.470  10.268  10.672 -0.0588 -0.0541  0.1711
86486W        W87350  27.239   7.511   8.949 -0.1260 -0.1582 -0.0098
86487W        W87351  26.723   7.151  10.227 -0.0057  0.2575 -0.0048
86488W        W87352   1.156   8.884   9.323 -0.0852 -0.1159  0.0961
86489W        W87353  26.627  10.958   5.465  0.0283  0.1116 -0.1227
86490W        W87354  27.073   6.345   8.291 -0.4016 -0.0554  0.2917
86491W        W87355  24.850   9.102   7.520  0.1817  0.2611 -0.0378
86492W        W87356  24.048   9.799   9.977 -0.1731  0.0406  0.0208
86493W        W87357  26.785  12.069   9.699 -0.1679  0.1987 -0.1753
86494W        W87358  26.102   7.814   9.769  0.3193 -0.2036  0.0367
86495W        W87359  27.313   9.895   6.837 -0.1702  0.1114  0.0669
86496W        W87360  28.909  10.113  10.046 -0.0626 -0.1177  0.1017
86497W        W87361   2.487   8.751   8.939 -0.3636  0.0209 -0.0679
86498W        W87362  26.869   7.754   9.817 -0.0061 -0.1680  0.1741
86499W        W87363  25.136   8.489   9.146 -0.0439  0.0058 -0.1738
86500W        W87364  27.210  10.534   8.036  0.0249  0.7370 -0.1191
86501W        W87365  26.472   4.981   8.596 -0.2336  0.1315  0.1371
86502W        W87366  28.209   9.614  10.148  0.2083  0.2353 -0.3398
86503W        W87367  25.834  11.896   7.985  0.0102 -0.0836 -0.3529
86504W        W87368  22.791  11.137  13.254  0.3395 -0.2689 -0.1942
86505W        W87369  26.444   8.943   8.609  0.0312  0.4325 -0.3183
86506W        W87370  28.366   7.548   9.628  0.0446 -0.1053  0.1044
86507W        W87371  27.045   8.513  11.026 -0.1215  0.0285  0.0271
86508W        W87372  28.318   7.717  10.127  0.3097  0.1039 -0.0362
86509W        W87373  27.068  10.438   8.593  0.1806  0.1693 -0.1656
86510W        W87374  25.950   6.738  10.604  0.0931 -0.0225 -0.2622
86511W        W87375  27.503  11.007   8.325  0.0761  0.1214 -0.0309
86512W        W87376  28.108   9.000   9.458  0.1107  0.2073  0.0872
86513W        W87377  28.932   7.374  10.970  0.0470 -0.1681  0.0519
86514W        W87378  28.971   7.341   8.376  0.0754  0.3739  0.3454
86515W        W87379  24.770   9.954   7.973  0.7167  0.2915 -0.1224
86516W        W87380  23.850   8.030   8.336  0.0643 -0.2082  0.3697
86517W        W87381  26.020   8.800  13.009  0.1432 -0.1833 -0.0788
86518W        W87382  26.111   6.338   9.231  0.2033  0.0357 -0.1316
86519W        W87383  28.005   7.366   8.690 -0.0544  0.2092 -0.4513
86520W        W87384  24.183  11.249  10.183  0.2062 -0.0095  0.0602
86521W        W87385  24.635   5.799   7.203 -0.0885 -0.0850  0.0681
86522W        W87386   0.057   8.432  10.518 -0.1312  0.0202  0.0654
86523W        W87387   1.143   9.745   7.641  0.1001 -0.2651  0.0604
86524W        W87388  25.034   8.234   9.576 -0.0937  0.1845 -0.0288
86525W        W87389  28.252   8.664  10.296  0.0655  0.2711 -0.0670
86526W        W87390  28.663   9.051   9.440 -0.0574  0.0628  0.0190
86527W        W87391   0.455   9.585   9.758 -0.0292 -0.0289  0.1602
86528W        W87392  28.249  10.049  11.766 -0.1176 -0.1153 -0.1882
86529W        W87393  26.403  11.623   8.831 -0.1120  0.0595 -0.1329
86530W        W87394  28.095   6.447   8.331  0.0688 -0.1119  0.2115
86531W        W87395  27.619   7.583   8.408 -0.0736 -0.1373 -0.2410
86532W        W87396  27.406   7.451   7.926 -0.3072  0.2716 -0.0452
86533W        W87397  26.817   7.712   8.667  0.0853 -0.2208 -0.0525
86534W        W87398  28.907  10.568   6.989  0.0883 -0.2480 -0.0521
86535W        W87399  27.684   7.966   9.332 -0.2097 -0.1144 -0.2131
86536W        W87400  26.263  13.187   8.894 -0.0180 -0.0272  0.0642
86537W        W87401  28.200   8.824   6.409 -0.4355  0.0451  0.1831
86538W        W87402  27.422   9.121   6.894  0.1020 -0.1911  0.0938
86539W        W87403  27.666   8.275   7.640 -0.0081  0.0193 -0.2469
86540W        W87404  27.886   7.481  10.920  0.0736 -0.1278  0.0684
86541W        W87405  27.569   6.905   9.767  0.0067 -0.2876 -0.0466
86542W        W87406  25.260   8.774   7.457 -0.1861  0.1015 -0.1007
86543W        W87407  27.716   7.493   9.214  0.2419 -0.1104  0.0859
86544W        W87408  27.169   8.536   5.322  0.2063 -0.0458  0.0856
86545W        W87409  28.772   6.818   8.962 -0.2197 -0.1759 -0.1206
86546W        W87410  25.736   8.944   7.209  0.1408 -0.1922 -0.0469
86547W        W87411  26.420   6.557   8.897  0.1305 -0.0995  0.1530
86548W        W87412  27.661  10.661   8.695  0.2523 -0.2683 -0.0554
86549W        W87413  28.322   7.241  11.614 -0.0822  0.0310 -0.0766
86550W        W87414  27.519  10.310   9.063 -0.0245  0.1871 -0.1069
86551W        W87415   1.868   9.823   8.542  0.1349 -0.2814 -0.0817
86552W        W87416  25.196   8.299   7.691 -0.1883 -0.2432  0.1320
86553W        W87417  27.403  12.430   8.439 -0.4474 -0.3584 -0.1182
86554W        W87418  27.932   8.250  10.189 -0.1486  0.1694  0.1480
86555W        W87419  25.756   9.451  12.334 -0.0134 -0.1547  0.0976
86556W        W87420   0.050   9.468   8.044 -0.0870  0.1623  0.0453
86557W        W87421  26.567   9.280   7.649 -0.0593 -0.0327  0.0761
86558W        W87422  27.300   9.087  10.555 -0.1225  0.0448 -0.0668
86559W        W87423   0.532   7.853   8.492  0.0230 -0.1444 -0.4748
86560W        W87424   1.495  10.610   8.835  0.0988  0.0240 -0.0941
86561W        W87425  29.114   8.997   8.210 -0.1320  0.1058 -0.1292
86562W        W87426  25.188   9.751   8.212  0.2351 -0.0619 -0.3303
86563W        W87427  27.009   7.728   7.411 -0.2068 -0.1434  0.2207
86564W        W87428  25.316   5.480  10.779 -0.6106 -0.1809  0.0790
86565W        W87429  24.505  12.073   7.939 -0.0014  0.0554 -0.2945
86566W        W87430  26.090   6.961   9.895  0.1774  0.4264  0.2211
86567W        W87431  27.704   9.783  11.667  0.2544 -0.0038 -0.0963
86568W        W87432  27.272   7.574  10.145  0.0127  0.1432  0.5477
86569W        W87433  28.112   5.884   9.305 -0.1244  0.3859  0.0926
86570W        W87434  28.040  12.351  10.030  0.0154  0.0033  0.4247
86571W        W87435  27.347  11.690   5.018  0.3199  0.1308  0.1259
86572W        W87436  25.778   8.775   8.877 -0.0870  0.2084 -0.1007
86573W        W87437  24.433  10.143   9.832  0.1041 -0.2446 -0.0055
86574W        W87438  25.993   9.589   8.311 -0.0140 -0.1318  0.2223
86575W        W87439  25.935  10.481   9.455 -0.0098 -0.4271  0.0858
86576W        W87440  25.241   9.294  10.235  0.1403  0.0072  0.0722
86577W        W87441  28.561  10.176  11.237  0.0047 -0.2808 -0.1097
86578W        W87442  26.302   6.472   9.712 -0.0713  0.1023 -0.1532
86579W        W87443  25.693  10.849  12.585  0.1707  0.0583  0.1531
86580W        W87444  27.080   8.820   8.139  0.2460  0.0916  0.2219
86581W        W87445  27.731   7.475   6.210  0.1942  0.0485 -0.2338
86582W        W87446  28.302  10.013  10.804  0.1605  0.1247 -0.1661
86583W        W87447   0.049   8.443  11.803  0.1132 -0.0882  0.3205
86584W        W87448   0.289  10.736  11.556 -0.1661  0.2963  0.2271
86585W        W87449  24.491  10.891   9.018 -0.0140 -0.0338  0.1589
86586W        W87450  28.525   7.720  11.615 -0.4550 -0.0641  0.1818
86587W        W87451  26.478   8.044  11.585  0.2444 -0.1160 -0.1096
86588W        W87452  24.043   4.642   7.611  0.2595 -0.0945  0.4009
86589W        W87453  26.205   7.192   8.533 -0.0152  0.1074  0.0591
86590W        W87454  25.396  10.179   8.577 -0.2953  0.2343  0.3057
86591W        W87455  25.910  10.878  10.055 -0.0585  0.0139  0.2411
86592W        W87456  26.756   6.417   5.489 -0.0867  0.0654  0.0323
86593W        W87457  25.432   5.066   8.582  0.0627  0.4230 -0.2157
86594W        W87458  28.067   9.007  11.887  0.4634 -0.4397 -0.1300
86595W        W87459  28.850   8.747   7.591  0.1243 -0.1861  0.3398
86596W        W87460  27.937  10.689   5.264  0.1925 -0.0299 -0.1260
86597W        W87461   0.505   4.455   8.713 -0.0343 -0.0976  0.1448
86598W        W87462  28.780   7.301   9.904 -0.0340 -0.0144  0.2659
86599W        W87463  26.215  10.534  11.096  0.0090 -0.1994 -0.0174
86600W        W87464  24.644   9.425  10.134  0.1417  0.1518 -0.0610
86601W        W87465  26.090   9.982   7.883 -0.0480  0.2110  0.0698
86602W        W87466  27.917   6.219  12.346  0.3184 -0.0819 -0.0138
86603W        W87467  24.640  10.194   6.362  0.2950 -0.2631 -0.0240
86604W        W87468  28.509   8.988   6.837  0.1823  0.0613 -0.1830
86605W        W87469  26.225   8.455   8.556  0.0502 -0.2444 -0.1001
86606W        W87470  27.677   9.571   9.943  0.1508  0.4677 -0.0108
86607W        W87471  27.408   7.330  11.022  0.0709 -0.1547 -0.0489
86608W        W87472  26.253  10.440  10.305  0.3063  0.1166  0.5806
86609W        W87473  28.174   7.992   7.555  0.2290  0.1321 -0.0317
86610W        W87474  25.351   7.189   7.634 -0.3372 -0.1628  0.0124
86611W        W87475  27.705   9.371   7.230 -0.0586  0.2195  0.1788
86612W        W87476  25.811  10.308  10.100 -0.0795  0.0577 -0.4058
86613W        W87477  25.398  11.624   6.998 -0.2265  0.0860  0.0279
86614W        W87478  25.371  10.061   9.236  0.0435 -0.1441 -0.2694
86615W        W87479  26.012   7.692  10.322  0.0470  0.1048 -0.2212
86616W        W87480  27.040   7.607  11.081  0.1755 -0.1401  0.1324
86617W        W87481  26.594   7.377  12.120  0.1417  0.1881 -0.3609
86618W        W87482  28.401   7.326  11.049 -0.2363 -0.2711 -0.1124
86619W        W87483  26.751   5.400   8.478 -0.1015 -0.0518 -0.0235
86620W        W87484  25.913   4.337   8.244  0.0085 -0.2491 -0.0359
86621W        W87485  26.556   8.142  11.072  0.1027 -0.1088  0.0824
86622W        W87486  28.068   7.170   9.595  0.1441  0.0176 -0.0608
86623W        W87487  26.047   8.366   9.726  0.5961  0.0839  0.1033
86624W        W87488  27.345   7.207   9.318 -0.2256 -0.1555 -0.0213
86625W        W87489  27.547   8.349   9.034  0.0223  0.5120 -0.1203
86626W        W87490  26.902   8.208   8.406  0.1155 -0.0282  0.0814
86627W        W87491  27.415   6.282   8.784 -0.1724  0.0006 -0.0161
86628W        W87492  25.561   7.920   8.437  0.1611  0.4691  0.1918
86629W        W87493  25.216   7.707  12.439 -0.2121 -0.1416  0.3136
86630W        W87494  27.287  10.009  11.494 -0.0110 -0.2455  0.1318
86631W        W87495  28.201   9.274   8.368 -0.1804 -0.1602 -0.2073
86632W        W87496  26.303   9.548   9.961 -0.0885 -0.2977  0.0196
86633W        W87497  27.725   9.451  10.392  0.0313 -0.3742  0.2757
86634W        W87498  26.483  10.963  12.870  0.0446  0.4104  0.1386
86635W        W87499  25.117   7.531   8.527 -0.2121 -0.3747  0.0050
86636W        W87500  27.907   7.625  10.399  0.1630  0.0168 -0.1481
86637W        W87501  27.245   8.335   8.075  0.0099  0.3407 -0.0020
86638W        W87502   3.409   8.978   6.588 -0.0869 -0.0853  0.2586
86639W        W87503  27.069   7.177   7.729 -0.0057  0.3627  0.0797
86640W        W87504   1.665   9.393   6.870 -0.1395 -0.0494 -0.0041
86641W        W87505  26.873   9.872  10.712 -0.0552  0.0351  0.3370
86642W        W87506  26.226  10.559   9.801  0.1419 -0.2803 -0.2566
86643W        W87507  28.978   6.430   9.834 -0.1178 -0.1304 -0.5116
86644W        W87508  25.175   9.763  10.486 -0.0773 -0.1718 -0.0864
86645W        W87509  25.900  13.453  10.243  0.2985 -0.1433 -0.1318
86646W        W87510  24.942   8.750  10.767  0.1384  0.0621  0.2597
86647W        W87511  28.465   8.633   7.869  0.2249  0.0973  0.2882
86648W        W87512  26.099   7.996  11.170 -0.2337  0.1821 -0.0719
86649W        W87513  28.442  10.533  13.163  0.1907 -0.0683 -0.0079
86650W        W87514  26.913   6.957   8.922 -0.1439  0.3316  0.1120
86651W        W87515  26.521  10.689   7.412 -0.2182  0.1709  0.5859
86652W        W87516   0.663   8.880   9.005 -0.0997 -0.2050 -0.2092
86653W        W87517  25.591   8.770  11.592  0.0509  0.1600  0.1633
86654W        W87518  24.851   9.633  11.222 -0.0333 -0.1437 -0.2056
86655W        W87519  24.758   9.523   6.872 -0.0656  0.2314  0.4792
86656W        W87520  26.723   9.122   8.244 -0.2798 -0.0511 -0.1344
86657W        W87521  26.222   9.151  12.174 -0.0465  0.1460 -0.1504
86658W        W87522  27.226  10.802   9.018 -0.1317 -0.0330 -0.2767
86659W        W87523  28.645  11.232   8.991 -0.0157 -0.0442 -0.2895
86660W        W87524  26.741   7.989  13.404 -0.0353  0.2303 -0.1870
86661W        W87525  26.797   9.862   9.424  0.3563 -0.3134 -0.0153
86662W        W87526  26.930  10.072  10.304  0.0470 -0.0761 -0.0811
86663W        W87527  25.349  10.608   8.862  0.0809  0.0895  0.1939
86664W        W87528  23.963   8.419   9.495  0.2054 -0.0056 -0.3031
86665W        W87529  25.848   8.467  13.854  0.1477 -0.3165  0.1641
86666W        W87530  26.096   7.285   7.998  0.1815 -0.0601  0.1222
86667W        W87531  27.229   8.577  13.197 -0.0479 -0.3817 -0.3609
86668W        W87532  24.520   5.151   5.504  0.2383 -0.0166 -0.2337
86669W        W87533   3.128  10.552   7.911 -0.0617 -0.2097  0.2145
86670W        W87534  26.384  11.728  12.178  0.1288  0.1376  0.0734
86671W        W87535  28.225  10.349   4.829  0.0178 -0.4917  0.3564
86672W        W87536  26.827   7.296   7.305  0.0539  0.2119  0.1296
86673W        W87537  25.743   7.113   8.567  0.2663  0.0640 -0.0163
86674W        W87538  27.175  10.214   9.487  0.0276  0.2190  0.1422
86675W        W87539  27.687  10.317  10.075 -0.1063  0.0663  0.1401
86676W        W87540  26.770   6.744   7.669  0.1495  0.1275  0.1440
86677W        W87541  24.913   8.949   8.518 -0.2164 -0.3391  0.0694
86678W        W87542  28.855  10.914   7.385  0.1847 -0.0893 -0.0345
86679W        W87543   0.452   5.281   7.851 -0.0210 -0.0611  0.0184
86680W        W87544  25.757   7.455  11.752 -0.2314 -0.1643  0.3588
86681W        W87545  26.449  10.413   6.714  0.1279  0.1739 -0.1979
86682W        W87546  28.628   7.766   7.315 -0.2196 -0.0697 -0.1717
86683W        W87547  25.813   7.912   7.107  0.0016 -0.0386  0.0177
86684W        W87548  26.119   8.893   9.968 -0.0559 -0.2309 -0.0015
86685W        W87549  28.661   8.662   9.930 -0.0476  0.2249  0.0735
86686W        W87550  25.020  10.727   7.237  0.0217  0.0920  0.0280
86687W        W87551  25.664  11.496   7.792 -0.1250 -0.3519 -0.0565
86688W        W87552  26.639  12.892   9.172 -0.1568  0.2150  0.2239
86689W        W87553  26.542  12.025   5.199  0.0250  0.0138  0.2781
86690W        W87554   1.808  10.316   8.531 -0.0045  0.3895  0.1312
86691W        W87555  25.938   7.070  12.037 -0.0300 -0.0365 -0.2730
86692W        W87556  25.968   9.043   8.486 -0.1664 -0.1145 -0.1120
86693W        W87557  24.931   9.715   6.144 -0.0182  0.1938 -0.0566
86694W        W87558  27.543   7.076   8.241  0.0771  0.4089 -0.1406
86695W        W87559  26.635   8.801  12.137  0.1166  0.1890 -0.4254
86696W        W87560  25.529  11.828   9.912 -0.1536 -0.0201 -0.0065
86697W        W87561  28.545   8.529   6.579  0.1034 -0.1100 -0.1765
86698W        W87562  25.690   8.386  11.206  0.0586 -0.0310  0.1326
86699W        W87563  27.280  10.086  10.871 -0.3250  0.1230 -0.0685
86700W        W87564  26.831   9.385  10.740 -0.1743 -0.1633 -0.3723
86701W        W87565  27.305   6.104   7.888  0.1117 -0.1886 -0.1421
86702W        W87566  24.356  11.659   7.642 -0.1824 -0.0947  0.2498
86703W        W87567  28.469   9.040  11.394 -0.1518  0.2016 -0.0139
86704W        W87568  28.970   6.634   7.893  0.1494  0.0016  0.2689
86705W        W87569  26.569   5.983   8.044  0.0639  0.0114 -0.0716
86706W        W87570  26.067  14.000  11.431  0.0288  0.2384 -0.1247
86707W        W87571   0.283   9.430   7.265 -0.0139 -0.4461  0.1221
86708W        W87572  28.718   9.304  10.780 -0.1060 -0.1071 -0.4966
86709W        W87573  28.419   8.168   7.144 -0.3295  0.1645 -0.0474
86710W        W87574  25.744   9.063  11.972 -0.0887  0.0918 -0.1852
86711W        W87575  26.509   4.235   7.571 -0.2216  0.1588 -0.3603
86712W        W87576  25.658   9.928  10.787  0.0071 -0.0394 -0.2084
86713W        W87577  26.152   9.082   8.994 -0.2956  0.1040  0.2652
86714W        W87578   2.276  10.135   7.882 -0.1377  0.0469 -0.0862
86715W        W87579   0.368   9.550  10.323 -0.1496  0.2207 -0.1348
86716W        W87580  22.577   9.433   8.891 -0.6987  0.1513 -0.0267
86717W        W87581  26.002  10.357   4.939  0.0707 -0.0835  0.0566
86718W        W87582  27.829   8.615   8.627 -0.2894  0.0204  0.0487
86719W        W87583  28.256   8.559  11.749  0.1653 -0.2708 -0.1981
86720W        W87584  27.418   8.680   9.791 -0.0703 -0.0104 -0.2036
86721W        W87585  27.887   8.893  11.405 -0.2423  0.2202 -0.0730
86722W        W87586  25.667   9.261   6.844  0.0670  0.3550 -0.1961
86723W        W87587  25.485  11.980   7.643  0.1447 -0.0667 -0.0540
86724W        W87588  24.168   6.379  10.979  0.2009  0.0065 -0.0255
86725W        W87589  27.023  12.157  12.678  0.0170 -0.0994  0.1149
86726W        W87590  28.639   9.004   8.248 -0.1976  0.0880  0.3316
86727W        W87591  27.591   6.495   5.476 -0.2525  0.1610 -0.0410
86728W        W87592  27.097   9.578   9.057 -0.0034  0.3768 -0.1817
86729W        W87593   1.109  10.333   8.944 -0.1219  0.0999 -0.0143
86730W        W87594  28.946   5.203   8.895 -0.4696 -0.0170  0.1906
86731W        W87595  26.762  10.198   9.858  0.2184 -0.3760  0.1043
86732W        W87596  26.233   9.215  11.461 -0.1745  0.1169  0.0403
86733W        W87597  26.605   6.209   8.577  0.5121 -0.3032  0.0668
86734W        W87598  26.477   8.105   8.907  0.1646 -0.1113  0.0098
86735W        W87599  25.823   6.628   8.383  0.1376  0.1279 -0.2514
86736W        W87600  28.051  10.478   7.735 -0.0014  0.2361  0.0501
86737W        W87601  24.769   9.953  10.130  0.1449  0.3494 -0.2819
86738W        W87602  26.429   9.718  10.827  0.3145 -0.2346  0.2131
86739W        W87603  28.090   8.204   8.034  0.1675 -0.0417 -0.3946
86740W        W87604  27.041   6.989   8.202 -0.0490 -0.0403 -0.1768
86741W        W87605  27.919  11.161  10.098 -0.0471 -0.2212  0.3412
86742W        W87606  26.707   8.561   8.785  0.0905  0.2372  0.1430
86743W        W87607  24.614   9.467   8.353 -0.1845 -0.1901 -0.0982
86744W        W87608  27.523   8.915   8.883 -0.1207  0.0125  0.1055
86745W        W87609  23.876  10.365  12.039 -0.3942  0.1529 -0.3053
86746W        W87610  24.782   7.948  12.284  0.1037 -0.2593  0.1486
86747W        W87611  25.582   8.342   8.736  0.1539 -0.3948  0.2413
86748W        W87612  27.201   9.866   8.614 -0.1204 -0.1281  0.0350
86749W        W87613  26.111   5.444   5.695 -0.1895  0.0690 -0.1478
86750W        W87614  23.995   9.225   7.188 -0.5210 -0.4860  0.3928
86751W        W87615  26.609   9.824   7.503  0.0884 -0.0416  0.1410
86752W        W87616  24.006  10.434   9.583 -0.0180  0.0048 -0.0106
86753W        W87617  26.224   7.985  10.649  0.2517 -0.1823 -0.1645
86754W        W87618   0.258   7.114   7.229  0.1292 -0.1177 -0.0784
86755W        W87619  28.528   9.450  11.828  0.0174  0.3664  0.0829
86756W        W87620  28.848  12.168  13.136  0.3163 -0.2063  0.0696
86757W        W87621  27.042  10.707   9.439  0.0806 -0.0848 -0.3508
86758W        W87622  28.097  10.193  12.501 -0.0663 -0.0218  0.2095
86759W        W87623  23.781  11.769   9.036  0.1239  0.2679  0.2304
86760W        W87624   1.267   6.303   6.889  0.3018  0.2001  0.1598
86761W        W87625  26.106  10.527   8.149  0.2562 -0.0070  0.2790
86762W        W87626  26.080   4.908  10.262  0.1461  0.2555 -0.2683
86763W        W87627  24.638   9.163  10.968 -0.0907  0.2900 -0.2020
86764W        W87628  26.282   9.697  11.497 -0.2713 -0.0649 -0.0352
86765W        W87629  27.734   8.115   8.445 -0.2060  0.0235  0.4195
86766W        W87630  24.266  10.358   7.301 -0.1594  0.3013  0.1362
86767W        W87631  28.196   9.409   7.070  0.1021  0.4182  0.1356
86768W        W87632  26.148   9.426  10.438 -0.0445 -0.2165  0.2794
86769W        W87633  25.719   9.593   7.348  0.2790 -0.0115 -0.1620
86770W        W87634  25.966   8.981  10.619 -0.1751 -0.0285  0.0781
86771W        W87635  25.023   9.615   7.689  0.2117  0.0826 -0.2575
86772W        W87636  26.573   8.631   9.959  0.1515  0.2773 -0.1720
86773W        W87637  28.383   6.147  12.356  0.0002  0.0778  0.2584
86774W        W87638  28.603   7.332   7.546  0.2555  0.0343  0.1374
86775W        W87639  27.510  10.685   6.465 -0.2181  0.0179 -0.0622
86776W        W87640  26.743  10.483  10.215  0.0832  0.2404 -0.0604
86777W        W87641  25.572  10.776   8.119 -0.2748 -0.0266  0.1493
86778W        W87642  26.575   5.704   8.969 -0.3456 -0.0926  0.2483
86779W        W87643  25.169  10.404  10.093  0.0725  0.0961 -0.0908
86780W        W87644  28.176   6.299  11.830 -0.0274 -0.1586  0.0330
86781W        W87645  26.652   7.231  10.854  0.1053  0.1639  0.1662
86782W        W87646  26.723   7.227   8.518  0.0582 -0.1147  0.2665
86783W        W87647  29.002   6.497   8.585  0.2396 -0.0598  0.0637
86784W        W87648  27.697  11.606  10.013  0.0807  0.3037 -0.2074
86785W        W87649  26.029   8.816  11.105  0.2167  0.1378 -0.0228
86786W        W87650   0.783   6.966   9.938  0.3376 -0.1000 -0.1855
86787W        W87651  26.786  11.427   7.973 -0.0995  0.3085 -0.2573
86788W        W87652  28.354  10.447   8.747 -0.1050  0.2848  0.0234
86789W        W87653   0.174   8.931   7.002  0.0563  0.1852 -0.0330
86790W        W87654  27.265   9.959   7.802 -0.0972  0.0887 -0.1390
86791W        W87655  26.177   4.643   7.556 -0.0206 -0.1328 -0.2041
86792W        W87656  28.989   7.078   9.530 -0.1184  0.3265  0.1273
86793W        W87657  25.355   8.391   8.201  0.1960  0.1547 -0.2895
86794W        W87658  27.428   7.950   9.868  0.2425 -0.1306  0.0213
86795W        W87659  28.139   6.452   7.849  0.1941 -0.0248  0.0762
86796W        W87660  27.009   8.316   9.948  0.0796 -0.1574  0.1419
86797W        W87661  27.292  11.273   7.906  0.1137 -0.0811 -0.1091
86798W        W87662  27.939  12.846  10.205 -0.0925 -0.3189 -0.1236
86799W        W87663  27.477   9.088  10.044  0.0742 -0.0800  0.0755
86800W        W87664  27.157  10.959   9.840  0.2392  0.1414 -0.0920
86801W        W87665  25.444   8.758   9.429  0.2234  0.5313  0.0393
86802W        W87666  21.939   9.788   7.998 -0.1274  0.2674  0.1101
86803W        W87667  26.817   8.950  11.224 -0.0780  0.1157  0.2507
86804W        W87668  26.251   9.818   8.728  0.2765  0.2673  0.2234
86805W        W87669  26.710   7.783   9.224 -0.2737 -0.0381 -0.0976
86806W        W87670   0.873   9.202  10.337  0.3278  0.0564 -0.2974
86807W        W87671  28.503   9.656   8.496  0.1057  0.1164  0.0391
86808W        W87672  27.674   6.352   9.628  0.1873 -0.2396  0.0029
86809W        W87673  25.848   9.772  10.055  0.1314  0.3721 -0.1226
86810W        W87674  26.542   9.764  10.351 -0.0610 -0.0410 -0.3814
86811W        W87675  25.326   9.144   9.769 -0.0492  0.2219  0.0707
86812W        W87676  26.303   8.625  10.343 -0.1436  0.2267  0.3005
86813W        W87677  24.176  10.946  11.228  0.1595 -0.5252  0.0033
86814W        W87678  23.733   9.107  10.081 -0.0292  0.0625  0.2415
86815W        W87679  28.965   8.230   8.988  0.0905 -0.0017  0.4951
86816W        W87680  27.380   8.201   7.271 -0.1757  0.2915  0.1871
86817W        W87681  27.201   6.066   9.776  0.2661 -0.1170 -0.0371
86818W        W87682   0.298   9.981  10.073  0.1920 -0.0888 -0.0499
86819W        W87683  25.703  11.426   8.258 -0.0608  0.1534  0.1039
86820W        W87684  24.568  11.317  11.135 -0.0258 -0.2772  0.1818
86821W        W87685  25.961  11.014   8.264 -0.1241 -0.1650  0.3112
86822W        W87686  24.890  11.522  10.302 -0.1429  0.0234  0.0082
86823W        W87687  23.977  11.902  14.316 -0.0695 -0.2895  0.1365
86824W        W87688  26.438  11.208  15.083 -0.0530  0.3922 -0.1031
86825W        W87689  27.398  11.701  11.035 -0.3800 -0.0961 -0.0044
86826W        W87690   1.359  11.847  12.965  0.0011  0.0312  0.0016
86827W        W87691  25.825  10.801  12.143  0.0119  0.1758 -0.1754
86828W        W87692  25.230   9.098  14.612 -0.4252  0.1708 -0.0396
86829W        W87693  27.237   5.615  11.723  0.4428 -0.0560 -0.1299
86830W        W87694  25.038  10.507  10.999 -0.2916 -0.0923  0.0088
86831W        W87695  28.618  11.473  12.718 -0.2934  0.1485  0.1618
86832W        W87696  26.103  10.220  14.120  0.4103 -0.0729  0.1089
86833W        W87697  24.331   7.611  16.317 -0.1871 -0.0377  0.0153
86834W        W87698  28.149   6.137  12.781 -0.0393  0.1419 -0.3202
86835W        W87699   0.714   8.765  13.096 -0.1306 -0.1436  0.1906
86836W        W87700  27.048   9.149  13.246 -0.0132  0.0463  0.1592
86837W        W87701  24.065   7.111  12.654 -0.3238 -0.2457  0.0234
86838W        W87702  25.674   8.352  14.949  0.0880 -0.0360 -0.0433
86839W        W87703  25.486  11.165  11.391 -0.2141  0.2967  0.0312
86840W        W87704  26.883   9.196  12.768 -0.0302 -0.0106  0.0178
86841W        W87705  25.430   6.743  14.156  0.3334 -0.0628  0.0460
86842W        W87706   0.378   9.957  13.303 -0.0022 -0.2453 -0.1664
86843W        W87707  28.444   9.553  11.300 -0.0965  0.1327  0.1741
86844W        W87708  28.151   9.605  12.048  0.2596 -0.1954 -0.0772
86845W        W87709  28.671   9.008  10.399  0.0101 -0.1678  0.2272
86846W        W87710  25.879   8.338  11.764 -0.0583 -0.1704 -0.0493
86847W        W87711  24.160   7.539  11.861 -0.3609 -0.0755  0.4024
86848W        W87712  24.029   7.233  16.246 -0.0864  0.1062  0.3110
86849W        W87713  27.931   9.321  14.502  0.0732 -0.2537 -0.1917
86850W        W87714  26.600  12.275  13.892 -0.1779 -0.1492 -0.1334
86851W        W87715  27.049  12.177  13.209  0.2004  0.0489  0.2855
86852W        W87716  28.456  10.117  13.533  0.2885  0.2116 -0.2702
86853W        W87717  25.134  11.943  11.612  0.1966 -0.0626 -0.0890
86854W        W87718  28.362   9.492  14.753 -0.1035 -0.5363 -0.2136
86855W        W87719   0.073  10.533  15.205 -0.2203 -0.1001 -0.3152
86856W        W87720  28.116   8.663  15.238 -0.1177  0.0834 -0.0077
86857W        W87721  26.881   8.605  14.022  0.0187 -0.1965 -0.1126
86858W        W87722  27.605  10.747  12.669  0.2196 -0.3218 -0.4571
86859W        W87723  24.791   7.431  12.060  0.2186  0.3499 -0.1086
86860W        W87724  26.826  10.969  12.056 -0.2556 -0.2105 -0.2417
86861W        W87725  28.778   9.727  12.217 -0.1587 -0.1286 -0.0945
86862W        W87726  26.806   9.880  11.549  0.0509  0.0831  0.4798
86863W        W87727   0.121   8.383  11.291  0.2259 -0.0752  0.0664
86864W        W87728   0.416  11.728  13.102  0.1539  0.0582  0.0192
86865W        W87729   0.686  11.623  14.152  0.0797 -0.1820  0.1584
86866W        W87730  27.521  10.801  10.685  0.0054 -0.0038 -0.1537
86867W        W87731  22.695  11.949  10.911  0.1324  0.0127  0.0189
86868W        W87732  24.559  11.682   9.707  0.1176 -0.0847  0.1684
86869W        W87733  25.183   6.234  12.189  0.0982  0.0768 -0.1572
86870W        W87734   1.734   8.442  12.727 -0.0140  0.2637  0.0482
86871W        W87735  27.886   9.227  12.360 -0.0661  0.0969  0.0697
86872W        W87736  26.996   8.844  10.152  0.0495  0.0335 -0.0953
86873W        W87737  26.697  11.511  11.133  0.1119 -0.2848 -0.1327
86874W        W87738  26.202   9.176  15.270  0.1045 -0.0708 -0.2541
86875W        W87739  23.881  10.792  12.770  0.1034  0.1972  0.0590
86876W        W87740  28.644  10.943  13.502 -0.0356 -0.0594  0.0992
86877W        W87741   0.088   9.681  12.458 -0.0818  0.1010  0.2865
86878W        W87742  25.954  10.940  11.191  0.1040 -0.1951 -0.0580
86879W        W87743  24.595   4.034  13.171  0.0855 -0.0576 -0.1109
86880W        W87744  25.527  10.222  15.124 -0.1923 -0.0078  0.1519
86881W        W87745  22.856  13.286  12.098  0.2450 -0.0892 -0.2330
86882W        W87746  26.739   9.268  12.254 -0.1551 -0.2667 -0.0550
86883W        W87747  25.449   8.891  10.399  0.1015  0.1799 -0.1146
86884W        W87748  22.603  10.834  12.752 -0.1225  0.0795 -0.5177
86885W        W87749  26.189  10.806  14.532  0.2668 -0.1180  0.1428
86886W        W87750  23.257  11.634  11.741  0.0668 -0.2177  0.1328
86887W        W87751  27.362   7.783  14.007 -0.0175  0.1044 -0.0672
86888W        W87752   1.339   7.607   9.964 -0.3007 -0.3940 -0.2141
86889W        W87753  24.343  12.694  10.492  0.1313  0.0846  0.0875
86890W        W87754  25.794   8.416  14.473 -0.1211  0.0042  0.3716
86891W        W87755  23.246  11.113  11.588 -0.0191 -0.0590  0.2718
86892W        W87756  25.749   9.818  11.361  0.1696  0.0954 -0.2693
86893W        W87757  25.464  10.827  11.796 -0.3124  0.2691  0.0905
86894W        W87758  26.812  10.122  11.139  0.2689  0.1820  0.1186
86895W        W87759  28.004  10.538  13.469  0.3358 -0.1920 -0.1213
86896W        W87760  26.097   9.730  13.821 -0.0501 -0.0042  0.0786
86897W        W87761  28.808  12.654  13.005 -0.0290 -0.1604 -0.0018
86898W        W87762   0.111   9.380  10.832  0.2002 -0.1991  0.0377
86899W        W87763  23.146  11.942  15.146 -0.0505 -0.1781  0.1471
86900W        W87764  26.502   8.628  10.966  0.1169  0.1464 -0.0431
86901W        W87765  26.902  11.482  12.130 -0.1256 -0.0301 -0.0617
86902W        W87766  27.647  11.524  13.005  0.3792  0.1941 -0.0536
86903W        W87767  26.951   9.295  16.049  0.0171 -0.1005  0.0244
86904W        W87768  26.283   8.252  14.704  0.0065 -0.2620 -0.0955
86905W        W87769  23.580   8.628  12.119 -0.1553 -0.1706 -0.1317
86906W        W87770  27.253   9.326  14.429 -0.0012  0.0151 -0.1102
86907W        W87771  26.761   6.628  14.657 -0.0575 -0.2965  0.1420
86908W        W87772  26.517   9.040  10.384  0.1934  0.0508  0.3345
86909W        W87773  28.047  10.661  11.607  0.0039  0.1838  0.1199
86910W        W87774  25.552   8.238  15.447 -0.2076  0.0197 -0.1183
86911W        W87775  27.852  11.885  15.720  0.0816 -0.0232 -0.1805
86912W        W87776   0.544   9.061  14.294  0.2381 -0.0864 -0.1249
86913W        W87777   0.025   7.865  11.164  0.2145 -0.0216 -0.0573
86914W        W87778   1.058  10.326  14.786 -0.0898  0.3351  0.0702
86915W        W87779  24.212  14.100  10.301  0.0939  0.1683 -0.0646
86916W        W87780  26.411   8.390  11.955 -0.0111 -0.1960  0.1978
86917W        W87781  27.554   8.967  15.341 -0.0366  0.0836  0.1557
86918W        W87782  27.323   8.885  11.430  0.0778  0.3072  0.2201
86919W        W87783   2.700  10.299  12.672 -0.0215  0.0890  0.0048
86920W        W87784  27.927  13.418  14.199 -0.0694  0.0412  0.1286
86921W        W87785  27.280   6.959  10.231 -0.0760 -0.3421  0.1998
86922W        W87786  28.651   7.984  12.394  0.2871 -0.2582 -0.0546
86923W        W87787   1.376   9.269  10.450 -0.1086  0.0232  0.3640
86924W        W87788  26.253   6.947  13.933 -0.3644  0.0332 -0.0176
86925W        W87789  26.706   7.910  12.243  0.0664 -0.2985 -0.0435
86926W        W87790  28.405  11.420  11.203  0.1024 -0.0706 -0.0427
86927W        W87791   0.156   9.026  13.953 -0.4298 -0.2205 -0.1014
86928W        W87792   0.187   9.611  13.822  0.1312 -0.0367 -0.0167
86929W        W87793  26.505  12.018  11.202 -0.1160  0.2701  0.2248
86930W        W87794  26.057  11.161  12.658  0.2689 -0.2634  0.3072
86931W        W87795  25.010   5.810  10.608 -0.0160 -0.3774 -0.1079
86932W        W87796  26.223   7.726  12.297  0.0698 -0.2712 -0.3867
86933W        W87797  23.908   9.007  13.429 -0.1683  0.1575  0.2099
86934W        W87798  26.698  10.014  13.321 -0.1343 -0.1406  0.0212
86935W        W87799  28.917   9.862  13.509 -0.0582  0.0767  0.0254
86936W        W87800  26.605  11.820  13.502  0.0495  0.0185  0.2072
86937W        W87801  27.948   7.096  12.081  0.0630 -0.0081  0.0341
86938W        W87802  27.983  10.798  10.500 -0.2500 -0.0305 -0.2380
86939W        W87803  26.628   8.931  15.115 -0.0574  0.1306 -0.3004
86940W        W87804  28.399   7.806  13.357 -0.1436 -0.3327 -0.1444
86941W        W87805  27.510   8.702  11.018 -0.0072  0.1614  0.2429
86942W        W87806  27.815   7.857  12.141 -0.4680 -0.1604 -0.1618
86943W        W87807  27.954  11.804  13.246  0.2354 -0.0943  0.3229
86944W        W87808  27.639   9.329   9.133  0.1974 -0.2697 -0.0079
86945W        W87809  28.020  10.382   9.615  0.0838 -0.2837  0.1954
86946W        W87810  28.936   9.848  14.325  0.1671 -0.0131  0.0091
86947W        W87811  27.019   8.772  11.771  0.0298 -0.1843  0.3170
86948W        W87812  26.645  10.645  12.446 -0.3224  0.0159  0.0108
86949W        W87813  24.102   8.727  17.067  0.1905 -0.3330 -0.3996
86950W        W87814  28.973   8.557  15.470 -0.2353  0.0375  0.0008
86951W        W87815  26.938  10.705  12.932 -0.2347 -0.0125 -0.1916
86952W        W87816  25.404  11.124  12.872 -0.0348 -0.1198 -0.0175
86953W        W87817  26.621  10.585  11.880  0.0549  0.1341  0.2913
86954W        W87818  29.078   9.282  13.560  0.0230 -0.1747  0.0468
86955W        W87819  27.476  11.919  13.447 -0.0356 -0.2084  0.0943
86956W        W87820  25.064   6.814  10.150 -0.0673 -0.0459  0.0123
86957W        W87821  25.395  10.462  12.685  0.0191  0.0188 -0.1673
86958W        W87822  25.215   6.917  16.075  0.1007 -0.0782  0.1682
86959W        W87823   0.517   8.139  10.343 -0.0658 -0.3591  0.0945
86960W        W87824  27.650  11.127  13.952 -0.0988 -0.2243 -0.1684
86961W        W87825  28.042   9.415  11.540 -0.1062  0.0305  0.0923
86962W        W87826  26.528  12.620   8.770 -0.0303 -0.1269 -0.0521
86963W        W87827  25.907   6.257  11.771  0.1319  0.0909 -0.0947
86964W        W87828  28.194   7.369   9.168  0.0699  0.1798  0.2594
86965W        W87829  26.558  12.050  10.226 -0.0893 -0.0653  0.0874
86966W        W87830  27.440   8.404  11.460  0.1976  0.3321  0.0695
86967W        W87831  26.739  11.114  11.561  0.2033 -0.0119  0.1300
86968W        W87832  27.052   9.611  14.867  0.2430 -0.0052 -0.2964
86969W        W87833  28.981   9.370  11.236  0.0440  0.0746  0.1572
86970W        W87834  26.303  12.047   9.715 -0.2780 -0.0578  0.2652
86971W        W87835  28.908   9.838  11.365 -0.0392  0.0918  0.1374
86972W        W87836  26.525   8.868  14.279  0.0922  0.1577 -0.3100
86973W        W87837  26.914  10.147  12.807 -0.4040 -0.1840  0.4144
86974W        W87838  28.283   7.449  12.079  0.0657 -0.1299  0.0031
86975W        W87839  24.743  12.094  11.985  0.0037 -0.1885  0.2824
86976W        W87840  27.518   8.172  10.832  0.0216  0.1441  0.1528
86977W        W87841  27.792  10.161  14.891  0.0604 -0.1105  0.1636
86978W        W87842  28.053   8.675  13.765 -0.1032 -0.1427 -0.3123
86979W        W87843  25.365   9.161  13.942 -0.1262  0.0776  0.1040
86980W        W87844  27.748   7.338  10.068  0.3008 -0.0174  0.2163
86981W        W87845  25.734   9.202  10.134 -0.0460  0.1037 -0.0397
86982W        W87846  27.264   8.780  14.833  0.2152  0.0480  0.0888
86983W        W87847  28.160  10.995  14.880  0.0647 -0.2387 -0.1296
86984W        W87848  27.418   7.428  12.416  0.0917  0.1180 -0.0387
86985W        W87849  27.096   7.967  16.426 -0.1941  0.0230 -0.2327
86986W        W87850   2.999   8.824  15.679  0.1037 -0.3124 -0.0870
86987W        W87851  28.772   9.979  12.645  0.0177  0.0792  0.2000
86988W        W87852  28.234  10.011  12.999 -0.1556  0.1094  0.2021
86989W        W87853  25.471  10.294  11.816  0.0622  0.3260 -0.3337
86990W        W87854  23.445  12.904  11.075  0.0998  0.0486 -0.0418
86991W        W87855   0.704  10.898  14.070  0.0516  0.0937  0.1387
86992W        W87856  24.272  11.603  12.742 -0.0929 -0.1984 -0.0221
86993W        W87857  27.328   9.938  12.496  0.4857  0.3082 -0.2670
86994W        W87858  25.607   9.909  12.587 -0.0708  0.2198 -0.0760
86995W        W87859  26.948  10.375  11.568 -0.1125  0.2699 -0.0700
86996W        W87860  24.902  12.671   9.021 -0.1718  0.2808  0.1008
86997W        W87861  26.906   5.669  14.488  0.1219  0.1986  0.0991
86998W        W87862  28.830   8.404  12.635  0.0958  0.1127  0.0666
86999W        W87863  24.432  10.696  12.995 -0.1959 -0.0863 -0.3240
87000W        W87864  25.199   9.612  13.280 -0.1647 -0.0226  0.0240
87001W        W87865  23.378  13.263  13.535  0.3043  0.1561  0.1215
87002W        W87866  27.110   8.849  14.390  0.2070  0.2899 -0.0096
87003W        W87867  23.966  10.849   8.889  0.0335 -0.1577 -0.1542
87004W        W87868  26.306  10.965  12.184  0.0301 -0.0843  0.1369
87005W        W87869  24.931   8.355  11.898 -0.0173 -0.1789  0.0427
87006W        W87870  25.279   8.580  14.658  0.0757  0.0822 -0.0307
87007W        W87871  28.911   8.525  13.102  0.1102  0.0460 -0.4019
87008W        W87872  29.010   8.240  13.541  0.0140  0.2188 -0.0104
87009W        W87873  25.923   9.059  12.620  0.1569 -0.2264  0.1293
87010W        W87874  25.125   7.786  10.695  0.0989 -0.2987 -0.2460
87011W        W87875  25.666   9.827  13.150  0.3541 -0.0629 -0.0417
87012W        W87876  25.371  11.224  12.118 -0.0722  0.3929 -0.1875
87013W        W87877  27.924  10.065   9.176 -0.3432 -0.0606  0.0164
87014W        W87878  23.411   9.157  12.252  0.1708 -0.1746 -0.2222
87015W        W87879  28.963   9.370  14.058  0.1998 -0.2426 -0.0388
87016W        W87880  25.541   9.708  15.331  0.2959  0.1700 -0.2010
87017W        W87881  26.576   8.911  13.703  0.2299 -0.2410 -0.3001
87018W        W87882  24.852   6.817  12.831  0.0029 -0.3360  0.4015
87019W        W87883  28.517   8.722  13.493 -0.2921  0.1334 -0.3330
87020W        W87884  25.458   6.541   9.926 -0.1770  0.1020  0.0864
87021W        W87885  26.210   6.925  11.700  0.3256  0.4299 -0.3054
87022W        W87886   0.412   5.774  11.709 -0.3232  0.2021  0.2917
87023W        W87887  22.534   8.083  11.951 -0.1302 -0.2626  0.0598
87024W        W87888  28.161   9.029  14.161 -0.1055  0.1685  0.3676
87025W        W87889   1.667   6.942   9.637 -0.0735  0.2056 -0.0454
87026W        W87890  27.240   9.222  11.082 -0.0057  0.0815 -0.1822
87027W        W87891  27.353   7.524  16.165 -0.2185  0.0576 -0.0563
87028W        W87892  24.970  10.582  11.948  0.0581 -0.1328 -0.0608
87029W        W87893  27.710  10.077  12.820  0.0080  0.0129  0.0409
87030W        W87894  26.977   8.211  13.021  0.1937 -0.1330  0.1597
87031W        W87895  24.918  10.410  12.978  0.2921 -0.0026 -0.0439
87032W        W87896  24.615  11.054   9.562 -0.1001  0.2360 -0.2472
87033W        W87897  25.858  11.120  14.921 -0.5457 -0.1045 -0.2048
87034W        W87898  26.530   5.542  12.982 -0.0229 -0.1492 -0.1038
87035W        W87899  25.788   8.777  15.269  0.0233  0.4911  0.2394
87036W        W87900   1.224   6.376  12.367  0.1720  0.1320 -0.3182
87037W        W87901   2.109  11.540  12.307  0.0583  0.4780 -0.1524
87038W        W87902  28.734   9.914  11.784  0.4145 -0.0946 -0.1545
87039W        W87903   0.751  10.590  12.261  0.0368 -0.0831  0.0934
87040W        W87904  26.741  11.764  12.516 -0.1327 -0.1735  0.2069
87041W        W87905  24.984   8.768  14.244 -0.0284  0.0336 -0.1183
87042W        W87906  26.319  12.599  13.606  0.1491  0.0367  0.0212
87043W        W87907  28.439  10.176  16.284  0.1812 -0.0933  0.0418
87044W        W87908   0.050   8.145  13.025 -0.1880 -0.1306 -0.2793
87045W        W87909  27.207  10.824  14.910 -0.1846 -0.2591 -0.0931
87046W        W87910  27.709   7.489  11.350 -0.1534 -0.1915 -0.1135
87047W        W87911  28.546   9.923  10.391 -0.2394 -0.0233  0.0692
87048W        W87912  25.891   5.636  15.621 -0.0315 -0.1172  0.0887
87049W        W87913  27.772   9.633  12.616  0.2475  0.2500  0.1491
87050W        W87914   1.829   7.816  15.919 -0.0545 -0.0392  0.1368
87051W        W87915  28.892  12.670  11.572 -0.0100  0.2664  0.2157
87052W        W87916   0.059  11.198  10.541 -0.2444 -0.1816  0.1286
87053W        W87917  25.722   6.575  15.366 -0.1731 -0.3943  0.2172
87054W        W87918  28.870   9.581  15.116 -0.1826 -0.0486 -0.0713
87055W        W87919  25.450   9.002  12.385  0.0023 -0.1016  0.3059
87056W        W87920  26.422  11.241   8.418  0.1068 -0.1167 -0.3406
87057W        W87921  26.078   7.965  14.165  0.2817  0.0021 -0.1605
87058W        W87922  25.177  10.671  11.444  0.4317 -0.1167  0.4987
87059W        W87923   0.566   8.310  11.179 -0.0557  0.0321  0.1956
87060W        W87924  25.723   9.343  14.666  0.2816 -0.1169  0.2982
87061W        W87925  26.868  11.380  12.959  0.2353  0.3060 -0.0085
87062W        W87926  28.485  10.858  11.425 -0.1026  0.0933 -0.1431
87063W        W87927  26.376  11.005  10.275  0.2983  0.0385  0.0474
87064W        W87928  25.990  10.589  13.547 -0.0329  0.1342  0.2067
87065W        W87929  28.204   5.900  13.849 -0.0111  0.0888  0.0124
87066W        W87930  25.986   7.864  13.614  0.0912 -0.0103 -0.3069
87067W        W87931  28.942  12.894  14.364  0.1387  0.1028 -0.2911
87068W        W87932  26.785   9.662   9.914  0.1584  0.2849 -0.2664
87069W        W87933  28.575   7.282   8.803 -0.0104  0.2156  0.2221
87070W        W87934  27.730   9.147  12.871  0.1196  0.3680  0.0805
87071W        W87935  25.782  11.525  11.356 -0.0704  0.2673  0.1877
87072W        W87936  25.649   9.572  13.656  0.0524 -0.2132 -0.0317
87073W        W87937  28.719  10.622  11.019  0.3577  0.0484  0.0628
87074W        W87938  26.197  10.969  13.298 -0.1045 -0.2380  0.1544
87075W        W87939   1.413  12.870  14.640 -0.1571 -0.1277  0.0474
87076W        W87940  25.827  10.018  13.574 -0.1642  0.3172 -0.2073
87077W        W87941  23.255   5.371  12.337  0.0218  0.0409 -0.0663
87078W        W87942  28.487  11.822  12.020 -0.0705 -0.1809  0.0237
87079W        W87943   1.485   7.905  12.030 -0.0056 -0.0081  0.1546
87080W        W87944  24.117   8.834  12.101  0.0756 -0.0102 -0.0575
87081W        W87945  26.209  12.379  11.027 -0.2111  0.1595 -0.1513
87082W        W87946  28.660   7.311  12.972  0.0143  0.0261  0.0677
87083W        W87947  26.703   8.199  14.379 -0.1981  0.0413 -0.0323
87084W        W87948  26.237  10.204  13.254 -0.3203 -0.0954  0.0076
87085W        W87949  28.476   8.835  13.020 -0.0469  0.2934  0.0661
87086W        W87950  23.319   7.431  13.147  0.1924 -0.0102 -0.3527
87087W        W87951  25.064   8.761  12.250 -0.0120 -0.1086 -0.0227
87088W        W87952  26.693  14.364  11.181 -0.0738 -0.1871  0.3052
87089W        W87953  26.260  11.369  11.383  0.1144  0.3260  0.0999
87090W        W87954  27.131   9.288   9.726 -0.1570  0.1918 -0.3202
87091W        W87955  27.113   6.655  12.730  0.2697  0.1186  0.0854
87092W        W87956  26.596   8.608   8.210 -0.1814 -0.1865  0.0601
87093W        W87957  26.886  11.649   9.395 -0.2956  0.0743  0.2421
87094W        W87958  28.015   9.984  15.380 -0.3249 -0.2359 -0.0665
87095W        W87959  26.131   8.964  13.980 -0.0107  0.1425  0.2495
87096W        W87960  25.271  10.136  12.313 -0.0698  0.1588 -0.0036
87097W        W87961  28.485  11.952   9.648  0.0375  0.0175  0.0499
87098W        W87962  27.891   7.826  13.173 -0.0884 -0.0395 -0.1965
87099W        W87963  24.822   8.770  13.737  0.1581 -0.0489  0.0854
87100W        W87964  27.409   8.050  16.913  0.4099  0.1812 -0.1930
87101W        W87965  27.619  10.883  11.750 -0.0343 -0.2228  0.0901
87102W        W87966  25.930   9.551  12.766 -0.4472 -0.1623  0.5040
87103W        W87967   1.712  10.145  10.690 -0.1185 -0.0902  0.0436
87104W        W87968  27.663   7.831  12.602  0.0193 -0.0797 -0.0104
87105W        W87969  25.449   9.484  12.826 -0.0024  0.2374  0.0501
87106W        W87970  24.177  12.834  12.033 -0.2128 -0.0522 -0.0775
87107W        W87971  25.638  11.374  10.868 -0.2300  0.2905 -0.1171
87108W        W87972  28.138   6.499  15.987 -0.4191  0.1515 -0.1345
87109W        W87973  24.428   9.291  11.972 -0.2133 -0.2175  0.1179
87110W        W87974  27.312   9.834  14.573 -0.2026 -0.1813 -0.0626
87111W        W87975  27.134   8.632   9.070 -0.0789  0.1768 -0.0363
87112W        W87976   1.410   8.483  10.621  0.2629  0.1378  0.0824
87113W        W87977  27.920   8.281  11.250  0.2321  0.0470 -0.0447
87114W        W87978  28.819   6.965  12.354 -0.0933 -0.1812  0.1916
87115W        W87979  28.598   7.463  12.480 -0.2277  0.0391 -0.2767
87116W        W87980  25.040   6.428  12.648 -0.3297 -0.3029  0.0561
87117W        W87981  25.675  11.491  12.615 -0.1300 -0.0485 -0.0643
87118W        W87982   0.298   9.141  11.280 -0.2216  0.2879 -0.0606
87119W        W87983  27.422   6.696  14.966  0.0271 -0.2423  0.0832
87120W        W87984   1.073   9.431  13.759 -0.0815 -0.1890 -0.3075
87121W        W87985   0.334   7.839  12.725 -0.1631 -0.0954  0.1307
87122W        W87986  26.355   9.345  13.882 -0.2242  0.1963  0.2222
87123W        W87987  26.371   9.156  10.874 -0.0551  0.2005 -0.0886
87124W        W87988  25.275   5.966  15.947  0.0645 -0.0249 -0.1713
87125W        W87989   0.389   8.959  14.762 -0.1003 -0.0017 -0.1774
87126W        W87990  28.774   9.434  12.686  0.1262 -0.1441  0.1787
87127W        W87991  28.041  10.656  10.011 -0.0232 -0.3162  0.3886
87128W        W87992  26.342   8.182  13.722  0.2028 -0.0769 -0.0662
87129W        W87993  26.314   9.300  12.948 -0.0726 -0.2245  0.0021
87130W        W87994  27.655   6.602  11.956  0.2563 -0.6033 -0.0837
87131W        W87995  26.377   7.504  11.703  0.1542 -0.3938  0.1314
87132W        W87996  27.073   8.828  12.375  0.2273 -0.2259  0.0393
87133W        W87997  24.856   8.124  11.439 -0.1292 -0.2936 -0.1570
87134W        W87998  25.457   9.374  11.619 -0.0823 -0.0280 -0.1097
87135W        W87999  27.723  10.764  11.184 -0.1828  0.2140  0.1516
87136W        W88000  27.258  11.881  12.312  0.1721  0.1165  0.2705
87137W        W88001  27.004  13.085  11.026 -0.1862 -0.1311 -0.0972
87138W        W88002  26.916   9.714  14.339 -0.1129  0.1214 -0.2360
87139W        W88003  27.232   8.498  12.694  0.2986 -0.1290 -0.2532
87140W        W88004  26.184  10.446  12.052 -0.0834 -0.5293 -0.1320
87141W        W88005  28.753  11.669  14.061 -0.3049  0.1538 -0.0088
87142W        W88006  26.908   9.299  11.564 -0.4737 -0.1466 -0.1216
87143W        W88007  23.631  11.635  11.351 -0.3523 -0.2127 -0.0572
87144W        W88008   0.754  12.112  10.943 -0.2898  0.0032  0.0619
87145W        W88009  22.331  11.317  15.255  0.1018  0.1946  0.0903
87146W        W88010  27.769  10.326  10.659  0.1031 -0.0893 -0.3701
87147W        W88011  22.893  10.198  10.798  0.0476  0.0521  0.1253
87148W        W88012  25.826   9.257  13.127  0.0447 -0.0479 -0.2862
87149W        W88013  25.550   8.817  14.226 -0.1430  0.4147 -0.1462
87150W        W88014  26.262  10.856  11.620 -0.0192 -0.1826  0.1069
87151W        W88015  28.078   8.862  12.681  0.0392  0.1306  0.1011
87152W        W88016  28.137   9.520  15.693 -0.1583 -0.2299 -0.5536
87153W        W88017  26.842   7.869  15.964 -0.1491  0.0706 -0.2513
87154W        W88018   0.242   7.457  11.750  0.2078 -0.0722 -0.0347
87155W        W88019  26.651   8.634  14.711  0.2304 -0.1255 -0.0258
87156W        W88020  27.384  12.496  12.865  0.2163 -0.1009  0.0821
87157W        W88021  28.414  10.886  15.250  0.1501  0.2244 -0.1519
87158W        W88022   1.697  12.977  12.833  0.1269 -0.4074  0.0959
87159W        W88023  26.164  10.649  12.528  0.0447  0.1906  0.0264
87160W        W88024  25.747  10.333  12.345 -0.1484 -0.2107  0.2891
87161W        W88025  28.220  10.352  10.404 -0.0875 -0.2931 -0.1943
87162W        W88026  27.826  11.619  13.963 -0.0379  0.0145  0.1613
87163W        W88027  25.993  11.876  11.040  0.2119 -0.0775  0.1649
87164W        W88028  26.024   8.266  12.729 -0.2545  0.0532  0.2569
87165W        W88029   0.395   6.832  13.771  0.0388  0.0879 -0.0336
87166W        W88030  26.004   9.926  12.214 -0.1647 -0.0492 -0.1622
87167W        W88031  23.225  11.454  11.174  0.3194 -0.1024  0.1356
87168W        W88032  24.852  11.807  15.819  0.0639  0.2979 -0.0019
87169W        W88033   1.279   7.886  10.448 -0.0869  0.1724 -0.4985
87170W        W88034  24.310   9.811  12.489  0.2067 -0.2707 -0.0804
87171W        W88035  27.704  11.795  12.532  0.0879  0.1907  0.3263
87172W        W88036  24.784   7.797  13.742 -0.2483 -0.0038  0.2078
87173W        W88037  28.470   8.337  13.198  0.0693  0.2807  0.2818
87174W        W88038   0.616  10.360  10.178  0.0501 -0.0811 -0.0669
87175W        W88039   1.900  10.627  12.973  0.0641 -0.0335  0.0192
87176W        W88040  25.452  11.783  11.102  0.2458 -0.1929  0.0577
87177W        W88041  27.612  11.536  11.549  0.0415  0.1627 -0.3395
87178W        W88042  27.611   8.821  12.427  0.0332 -0.0353 -0.0759
87179W        W88043  27.108  12.563  14.548  0.0339 -0.0875  0.0126
87180W        W88044  28.199   9.620  16.337 -0.2966  0.1271 -0.1981
87181W        W88045  25.098   8.839  15.069  0.1128  0.1125  0.1109
87182W        W88046  26.021   8.906  14.488 -0.3160  0.0224  0.2658
87183W        W88047  26.844   6.606   9.834 -0.0590  0.0936  0.3073
87184W        W88048   1.865  10.408  13.400  0.4395 -0.0445  0.2131
87185W        W88049  23.295  10.934  13.986 -0.0803  0.5848  0.1451
87186W        W88050   0.464   9.017  10.561 -0.0585  0.1749 -0.4172
87187W        W88051  24.983   9.300  13.664 -0.1031  0.0124  0.3875
87188W        W88052  28.170  11.297  14.041 -0.1272 -0.1626  0.2208
87189W        W88053  28.169  10.469  12.039 -0.0420 -0.0208 -0.0584
87190W        W88054  27.243  11.247  11.797  0.0520  0.0472 -0.0616
87191W        W88055  27.645   7.959  13.541 -0.1205  0.1439 -0.1659
87192W        W88056  29.016   7.795  12.644 -0.0580  0.2156 -0.2186
87193W        W88057  25.580   8.135  13.522  0.4093 -0.0811  0.1019
87194W        W88058  28.887   8.701  14.036 -0.3966 -0.1393  0.0938
87195W        W88059  28.437   9.282  12.268 -0.2371  0.0032 -0.1613
87196W        W88060  26.515  10.580  14.156 -0.2480  0.1941 -0.1144
87197W        W88061  25.969   8.071   8.841  0.3509  0.1758  0.2042
87198W        W88062  27.870   8.196  15.000  0.1771  0.1070  0.0964
87199W        W88063  25.506   8.137  15.930  0.2614  0.4640 -0.0200
87200W        W88064  27.461  10.942  12.243  0.0052  0.1948 -0.0891
87201W        W88065  28.428   8.633  14.138  0.3057 -0.0702  0.0229
87202W        W88066  26.854   9.294  14.023 -0.0730 -0.0651 -0.0915
87203W        W88067  26.865   9.758  12.471 -0.6458 -0.3128 -0.2960
87204W        W88068  23.822  10.061  13.793 -0.0312 -0.1951  0.0053
87205W        W88069  26.920  10.615  14.489 -0.1196  0.1762  0.1640
87206W        W88070  28.287   9.486  10.603 -0.0295 -0.1869  0.2055
87207W        W88071  26.977  11.824  10.807  0.0946  0.0750 -0.1603
87208W        W88072  26.007   7.386  14.760 -0.0151 -0.2543 -0.0795
87209W        W88073  28.896  10.052   9.520  0.2418  0.1759  0.1802
87210W        W88074  26.848  10.805  13.834 -0.1169  0.0741 -0.0075
87211W        W88075  24.568  13.301  15.390  0.2291  0.1049  0.0674
87212W        W88076  26.375  11.404  13.031  0.2438 -0.0785 -0.1685
87213W        W88077  28.601   9.138  14.398  0.1540 -0.0138 -0.0769
87214W        W88078  23.308  11.513  12.728  0.2119  0.1018 -0.1088
87215W        W88079  27.569  11.215  11.029  0.0327  0.0018 -0.1938
87216W        W88080  26.150  11.925  13.195  0.0316 -0.3674  0.0136
87217W        W88081  28.522  13.105  11.624 -0.0664 -0.0142 -0.1025
87218W        W88082   0.818   9.626  13.058 -0.1648 -0.0609 -0.2421
87219W        W88083  26.455  13.048   9.863  0.0908  0.0736  0.3118
87220W        W88084  27.753  11.026  13.092  0.0713 -0.1317 -0.0365
87221W        W88085  25.165   9.611  12.439  0.5235 -0.2814  0.1198
87222W        W88086  26.294   6.483  11.437 -0.2634  0.0798 -0.1529
87223W        W88087  26.286  10.290  18.960 -0.0468 -0.0156 -0.1969
87224W        W88088  26.098  11.929  16.413  0.0451 -0.1815  0.2212
87225W        W88089  28.438   9.795  17.744 -0.1952  0.0828 -0.1525
87226W        W88090   0.991   9.434  16.630  0.3383 -0.5898  0.3794
87227W        W88091  26.640  13.611  14.385  0.0604  0.3919  0.1122
87228W        W88092  25.340   7.331  15.218  0.3120 -0.2691  0.1739
87229W        W88093  25.319   9.306  15.081  0.0857  0.1066 -0.1618
87230W        W88094  28.598   7.900  16.204  0.1362  0.0450 -0.0452
87231W        W88095  27.403  10.153  16.759  0.0513  0.0141  0.0265
87232W        W88096  24.532   6.769  17.970 -0.1714 -0.2652 -0.2062
87233W        W88097  24.929   5.928  17.553 -0.1279  0.0360 -0.1842
87234W        W88098  26.705  10.845  16.822 -0.1774  0.0368 -0.2002
87235W        W88099  28.704  11.448  17.946 -0.0573  0.0114 -0.1686
87236W        W88100  28.761   9.598  18.147  0.1059 -0.0526  0.0675
87237W        W88101  24.722   3.901  18.010  0.1931 -0.1083  0.1016
87238W        W88102  25.600   9.645  16.305  0.0814  0.1748 -0.1246
87239W        W88103  27.244  12.748  11.765  0.2792 -0.3268  0.4453
87240W        W88104  23.519   8.250  17.790 -0.1174 -0.1183  0.0856
87241W        W88105  24.708   7.420  20.222 -0.0571 -0.0558 -0.0635
87242W        W88106   1.401   6.273  15.654 -0.0025 -0.0004 -0.0235
87243W        W88107   0.007  10.711  18.571  0.2965  0.2052  0.0372
87244W        W88108  26.952   7.397  18.646 -0.1879 -0.3499 -0.2469
87245W        W88109  27.982   9.148  15.134 -0.2713  0.1590 -0.3622
87246W        W88110  28.358   9.858  19.775  0.0358 -0.1078  0.1031
87247W        W88111  25.416  10.602  16.634  0.0367  0.0518 -0.0037
87248W        W88112  29.042   6.912  16.190  0.2932 -0.1120 -0.0606
87249W        W88113   0.663  11.371  19.499 -0.1650 -0.5413 -0.2789
87250W        W88114  27.525  12.042  18.419  0.1845  0.0426  0.2145
87251W        W88115  26.290  10.592  19.462  0.0865 -0.0312 -0.0598
87252W        W88116  26.565   9.502  16.750 -0.1495 -0.2292  0.0240
87253W        W88117  25.833  11.450  16.676  0.0054 -0.1142  0.2402
87254W        W88118   0.231  10.276  17.694  0.2009  0.1799 -0.3741
87255W        W88119  26.809  10.527  14.944  0.0420 -0.1912 -0.1376
87256W        W88120  28.944   9.214  16.084  0.0689  0.4582 -0.1459
87257W        W88121  22.456   8.919  19.303  0.0709 -0.0967 -0.2365
87258W        W88122  28.185   8.899  16.933  0.0114  0.0847  0.0469
87259W        W88123  27.259   9.696  15.965 -0.1950  0.3388 -0.0860
87260W        W88124  28.437  13.493  14.179 -0.0129  0.0013  0.0830
87261W        W88125  28.180  10.057  14.088 -0.2546 -0.4102  0.3002
87262W        W88126  28.075   8.809  16.435  0.0714  0.1256  0.0293
87263W        W88127  27.830   8.198  13.948  0.5013 -0.0740 -0.1121
87264W        W88128  28.842   7.199  14.479 -0.1009  0.2065  0.0164
87265W        W88129  27.543  12.314  15.403  0.1992  0.4062 -0.0542
87266W        W88130  27.673  11.080  14.978 -0.2513 -0.1683  0.0251
87267W        W88131  24.919  10.975  15.055  0.0395 -0.0232  0.0781
87268W        W88132  26.359  10.961  13.783 -0.1285  0.0876 -0.0067
87269W        W88133  24.140   9.021  16.617 -0.0517 -0.0245 -0.0155
87270W        W88134   0.146   6.623  17.693  0.2695  0.0793 -0.1509
87271W        W88135  26.206   9.661  13.297  0.1669 -0.0328 -0.1647
87272W        W88136  28.144  11.613  12.309 -0.0243  0.0167 -0.3412
87273W        W88137  26.928  11.498  15.538  0.1115 -0.0013  0.0778
87274W        W88138  27.998  12.790  13.480 -0.2149  0.1213 -0.1395
87275W        W88139   0.229   9.078  16.437  0.1843 -0.0160  0.1513
87276W        W88140  24.786   9.869  14.265  0.1142  0.1085 -0.1458
87277W        W88141  26.251  10.507  17.603 -0.0386 -0.0909  0.0300
87278W        W88142  27.092  10.514  15.338 -0.0168 -0.1672  0.0001
87279W        W88143  25.159  11.588  13.968 -0.1629 -0.1290  0.0790
87280W        W88144  27.246  11.351  15.063 -0.2327 -0.0462  0.0937
87281W        W88145  26.489   9.947  14.232 -0.3112  0.0135  0.0324
87282W        W88146  27.401  11.709  14.748  0.2332 -0.0408  0.0529
87283W        W88147  25.555   7.605  14.870  0.1921  0.1349  0.2427
87284W        W88148  27.796  10.451  16.938 -0.0123  0.1099 -0.0947
87285W        W88149  25.235  10.677  18.744  0.1636 -0.0122 -0.2047
87286W        W88150  26.391  11.580  15.518  0.0451  0.1944 -0.1290
87287W        W88151  27.687   7.687  15.766 -0.1652 -0.2038 -0.1430
87288W        W88152  27.164   6.979  15.964  0.0886 -0.1190  0.3905
87289W        W88153  25.385   8.633  13.761  0.0720  0.3413 -0.4557
87290W        W88154  25.042   9.582  14.686 -0.0373  0.1527  0.0834
87291W        W88155  26.709  11.405  17.125 -0.0675  0.0949 -0.0593
87292W        W88156  28.380   8.950  15.519  0.0092 -0.0771 -0.0224
87293W        W88157  27.876  10.991  19.472 -0.2018 -0.1754 -0.2173
87294W        W88158  26.201  10.190  15.629 -0.1235 -0.0573  0.0444
87295W        W88159  27.862  10.992  16.947 -0.3732  0.2068 -0.0374
87296W        W88160  28.502   7.931  15.692  0.1585 -0.0127  0.2596
87297W        W88161  27.620  10.817  13.545 -0.2751  0.2973  0.0770
87298W        W88162  28.952   8.211  18.076  0.2473  0.1276  0.0488
87299W        W88163  24.862   7.930  14.570  0.2025  0.2116  0.0929
87300W        W88164  26.661  11.181  18.258 -0.3295  0.3595 -0.2801
87301W        W88165  26.331   7.059  13.083 -0.1565  0.5325 -0.0417
87302W        W88166  26.568   8.148  16.566 -0.0178  0.1326 -0.0687
87303W        W88167  28.939   6.927  14.868  0.4433  0.0615  0.0031
87304W        W88168  25.595   9.364  16.723 -0.0947 -0.1577 -0.0216
87305W        W88169  27.522   6.204  15.863 -0.1671  0.2382  0.1162
87306W        W88170  27.961  10.489  17.609  0.2340 -0.1768 -0.0347
87307W        W88171  25.690   7.477  18.001  0.0290 -0.1626  0.0752
87308W        W88172   0.719   7.749  15.249  0.0444 -0.0167  0.1720
87309W        W88173   0.645  11.802  20.377 -0.2343 -0.0872  0.3723
87310W        W88174   0.698   5.724  15.639  0.0388  0.1279 -0.0491
87311W        W88175  28.577   8.135  17.158 -0.0904 -0.1153 -0.0700
87312W        W88176   1.153   6.910  16.321  0.0912  0.1816  0.1768
87313W        W88177  27.200   7.417  13.290  0.1237  0.0899  0.1150
87314W        W88178   1.886   8.949  20.269 -0.0509  0.0877 -0.1066
87315W        W88179  27.070  11.621  13.375 -0.2585  0.0120 -0.1979
87316W        W88180  25.668  10.355  13.920 -0.2045  0.1290 -0.0294
87317W        W88181  27.398   6.912  18.702  0.1464 -0.0454 -0.0222
87318W        W88182   0.388   8.712  16.799 -0.3025 -0.4297 -0.2072
87319W        W88183   1.065   8.497  15.421 -0.0725  0.1049  0.0165
87320W        W88184   0.512  12.693  18.832 -0.2869 -0.0621  0.1668
87321W        W88185  26.851   7.361  16.037 -0.0218  0.2518 -0.0531
87322W        W88186   0.795   9.377  15.644  0.0392  0.1079  0.1822
87323W        W88187  28.298  11.419  16.447 -0.0818 -0.1356 -0.0479
87324W        W88188  25.143   9.162  16.112  0.0696  0.1388 -0.0883
87325W        W88189  27.932   6.823  14.293 -0.4207  0.1480  0.1287
87326W        W88190  26.743   9.730  15.897 -0.2213  0.1724 -0.0983
87327W        W88191   1.955   6.386  16.770 -0.2232  0.0045  0.0856
87328W        W88192  27.610   6.747  19.245  0.2727 -0.2114 -0.1175
87329W        W88193  26.540  10.493  15.389 -0.1889 -0.4920  0.1512
87330W        W88194  28.731  10.752  16.817 -0.0040  0.2227 -0.1331
87331W        W88195  25.422   7.353  17.025  0.0310  0.2000  0.4366
87332W        W88196  25.328   8.672  15.465  0.0870  0.0052  0.0283
87333W        W88197  25.917  10.124  14.796  0.0698  0.3070 -0.1909
87334W        W88198  26.069  10.962  17.343 -0.0475 -0.4573 -0.0742
87335W        W88199   0.710   8.502  15.830 -0.0955  0.1088  0.1651
87336W        W88200  28.300  11.171  18.022 -0.0136 -0.0226  0.4375
87337W        W88201  27.894   9.638  14.939  0.3063  0.1145  0.1940
87338W        W88202  26.512  12.676  14.742 -0.0539  0.1825 -0.0420
87339W        W88203  28.533   5.953  16.984 -0.3121 -0.1477 -0.1729
87340W        W88204  27.620   8.920  16.676 -0.2251  0.1640 -0.0442
87341W        W88205  26.571   9.939  15.418 -0.2023 -0.0389 -0.0606
87342W        W88206  26.695  12.019  15.410 -0.0238  0.4235 -0.4019
87343W        W88207  28.990  10.442  14.314 -0.2210 -0.1453  0.3053
87344W        W88208   1.498   8.797  15.468 -0.2275  0.1089 -0.1839
87345W        W88209  27.038  10.016  19.192 -0.0204 -0.1949  0.2089
87346W        W88210  28.277   8.433  14.748 -0.0538 -0.0044  0.0531
87347W        W88211  24.719   9.901  16.403  0.0186  0.0019  0.0028
87348W        W88212   0.626   9.220  15.144  0.0428  0.1018 -0.2945
87349W        W88213  25.134  10.147  16.147  0.2945  0.0906 -0.0619
87350W        W88214  26.291  11.385  17.998  0.0245  0.1528 -0.0536
87351W        W88215  27.627   8.538  15.689 -0.0028  0.1082 -0.1344
87352W        W88216  26.822  10.999  15.227 -0.4497 -0.2829  0.4145
87353W        W88217  28.040  12.565  17.493  0.0445 -0.3103 -0.0672
87354W        W88218  25.757   7.796  16.936 -0.0134  0.0462  0.0849
87355W        W88219  24.690  11.532  18.645  0.2035 -0.1138 -0.0918
87356W        W88220  26.758   5.580  12.498  0.2838  0.0998  0.1618
87357W        W88221  27.567  10.694  18.395 -0.3206  0.0178  0.4145
87358W        W88222  23.700   5.113  18.024 -0.3933 -0.1474  0.1611
87359W        W88223  27.090  10.232  17.215 -0.1064 -0.1518  0.0710
87360W        W88224   0.544   9.487  16.405  0.0976 -0.2832 -0.2872
87361W        W88225  27.133  12.504  17.012  0.2770 -0.1438 -0.3322
87362W        W88226  27.356  11.630  14.137  0.0034  0.2441 -0.0222
87363W        W88227  24.560   9.476  13.888 -0.0981  0.2496  0.0916
87364W        W88228  28.192   7.132  16.457 -0.2577 -0.0593  0.0699
87365W        W88229  24.022  12.126  14.809 -0.0917 -0.1658 -0.1328
87366W        W88230  26.677   7.628  15.356  0.1374 -0.1136  0.1830
87367W        W88231  27.408   8.151  19.508  0.1945  0.0269 -0.1455
87368W        W88232  28.073   7.381  15.628  0.0790 -0.2808  0.1160
87369W        W88233   1.810   5.119  17.526  0.0665 -0.0360  0.1497
87370W        W88234  26.829  12.217  17.809 -0.0575  0.1030 -0.1299
87371W        W88235   0.401  12.490  16.277  0.0354  0.3558 -0.3375
87372W        W88236  27.923   9.062  15.652 -0.0333 -0.2156 -0.2703
87373W        W88237  28.862   9.025  17.240 -0.0817 -0.0894 -0.2731
87374W        W88238  26.333   7.879  15.088  0.3205 -0.0715  0.0035
87375W        W88239  25.858   9.067  17.507 -0.0097 -0.0569 -0.2998
87376W        W88240  27.066   8.714  15.339 -0.2662 -0.1985 -0.1503
87377W        W88241  27.173  10.021  17.999 -0.1946  0.3989  0.0336
87378W        W88242  27.701   6.266  16.335  0.2629  0.0876  0.2524
87379W        W88243  26.129   8.992  16.297  0.1081 -0.2076 -0.0155
87380W        W88244  26.419   9.798  12.923 -0.3217 -0.1220  0.1042
87381W        W88245  26.780   8.611  17.446  0.0036  0.0488  0.2274
87382W        W88246  27.407   9.228  15.795 -0.2639 -0.1376 -0.0862
87383W        W88247   3.567   6.957  15.632  0.2047  0.0913  0.0396
87384W        W88248  27.533   7.493  19.657  0.0562 -0.2142 -0.0609
87385W        W88249  26.031   7.874  18.326  0.2056 -0.2634  0.1674
87386W        W88250   0.289  10.077  18.648 -0.0506  0.0870 -0.1257
87387W        W88251   1.618   8.051  17.900  0.5825 -0.1493 -0.0499
87388W        W88252  26.180  10.374  17.093 -0.2871  0.0822  0.3016
87389W        W88253  26.104   9.367  16.639 -0.1346  0.0728 -0.2187
87390W        W88254  24.719  10.525  14.905 -0.0068  0.2606  0.2525
87391W        W88255  26.550   8.981  15.985 -0.0512 -0.0271  0.0116
87392W        W88256  27.337   8.474  16.273 -0.1797 -0.0356 -0.1237
87393W        W88257   0.323  11.577  18.122 -0.1249 -0.1944 -0.0719
87394W        W88258   1.190  10.470  16.738  0.4730 -0.0554 -0.2356
87395W        W88259  27.342   8.807  19.143 -0.1961  0.0772 -0.1131
87396W        W88260  27.703   8.985  13.885  0.1968 -0.0150  0.0969
87397W        W88261  29.067   8.862  14.934  0.1291  0.2017 -0.0044
87398W        W88262  27.153   7.218  12.820 -0.0637  0.3501 -0.0539
87399W        W88263  26.806  11.799  18.163 -0.2083 -0.2080 -0.1257
87400W        W88264  26.281  10.864  15.938  0.1743  0.1069  0.0890
87401W        W88265  26.298   9.927  15.991 -0.0930 -0.0002 -0.1247
87402W        W88266   0.409   7.430  17.369 -0.0858 -0.4107  0.3227
87403W        W88267  26.455  10.395  12.832 -0.1087 -0.0583  0.0523
87404W        W88268  28.453  12.015  13.612 -0.1414  0.1615  0.2774
87405W        W88269  26.996  11.981  14.594  0.3919  0.0873  0.0745
87406W        W88270  26.246   8.507  14.140 -0.0658  0.0039  0.2696
87407W        W88271   1.480   8.058  13.737 -0.0457 -0.2645  0.0969
87408W        W88272  26.196  10.460  18.090  0.1206  0.0133 -0.0456
87409W        W88273  28.329  11.419  17.585  0.0134 -0.2013  0.0186
87410W        W88274  23.054   7.543  17.583 -0.2952  0.1497 -0.1029
87411W        W88275  26.892  10.947  17.763 -0.1325  0.0243  0.1266
87412W        W88276  26.147  11.077  16.382  0.2967 -0.1341 -0.0715
87413W        W88277  27.748  11.339  14.457  0.0068 -0.3123  0.0984
87414W        W88278  24.318  10.478  13.490 -0.2178 -0.1010 -0.3643
87415W        W88279  26.100   9.873  16.928 -0.0219  0.1615 -0.1865
87416W        W88280  28.217   5.156  21.344  0.3621  0.0426  0.0073
87417W        W88281  26.372   5.169  17.299  0.0647 -0.1362 -0.2235
87418W        W88282  25.787   8.598  15.780  0.0707  0.1421  0.0186
87419W        W88283  28.187   7.312  15.079  0.0355 -0.0509 -0.1313
87420W        W88284  23.918   9.668  16.197 -0.1254  0.2558  0.1840
87421W        W88285  26.387  10.177  15.005 -0.1008 -0.3472 -0.0140
87422W        W88286  28.330   9.710  16.850 -0.1070 -0.1159  0.0576
87423W        W88287  27.525   9.401  16.899 -0.1357  0.2931  0.0090
87424W        W88288  27.580   8.379  14.617  0.0289  0.1909 -0.0792
87425W        W88289  27.160  11.072  14.163  0.0580 -0.1759 -0.0103
87426W        W88290  25.836  10.003  15.942  0.2232 -0.1253  0.3802
87427W        W88291  26.977   7.562  17.487 -0.1295 -0.0614 -0.1139
87428W        W88292  25.705  10.911  14.412 -0.1739  0.2488  0.2426
87429W        W88293  22.945   8.442  15.582 -0.1583 -0.0890  0.0653
87430W        W88294  24.786   7.743  17.732  0.1943 -0.0759 -0.1762
87431W        W88295   0.253  11.803  14.843 -0.1754 -0.0096 -0.3276
87432W        W88296  27.313  10.486  13.836  0.0252  0.0686  0.0722
87433W        W88297  27.984   9.563  17.919  0.3711 -0.1395  0.2986
87434W        W88298  24.469  10.365  17.777  0.1898 -0.0528 -0.0511
87435W        W88299  29.142   9.302  18.462  0.0166 -0.1196  0.3511
87436W        W88300   0.231   5.432  17.318 -0.1080 -0.0069 -0.1408
87437W        W88301  28.354   9.224  18.096  0.3293  0.0685 -0.1550
87438W        W88302  28.501  13.461  15.488  0.1772  0.0136  0.0306
87439W        W88303  25.324   8.551  16.544 -0.0823  0.3278 -0.2419
87440W        W88304   0.568  10.767  13.488 -0.1574 -0.2785 -0.2138
87441W        W88305  27.898   9.332  16.066  0.0194  0.0389 -0.0600
87442W        W88306  27.583  10.371  17.930  0.2094  0.3159 -0.1434
87443W        W88307  28.879   8.727  16.793 -0.4042  0.1158  0.1977
87444W        W88308  28.103   8.215  17.209  0.2534  0.0282  0.1932
87445W        W88309   1.971  10.585  17.228 -0.5094 -0.0563  0.0942
87446W        W88310  25.770   8.796  16.585 -0.3269  0.0897  0.0480
87447W        W88311  26.948  10.173  15.731 -0.0855 -0.1137 -0.0388
87448W        W88312  23.986   6.664  18.466 -0.2614 -0.1002 -0.0571
87449W        W88313   1.568   6.716  16.663  0.1912 -0.2220  0.0481
87450W        W88314  27.313   9.058  20.059 -0.0577  0.4216 -0.1669
87451W        W88315  27.586  10.508  15.207 -0.1654 -0.0525  0.1041
87452W        W88316  28.314  11.824  15.919 -0.0032 -0.0688  0.1921
87453W        W88317  24.789   9.265  18.267  0.2508 -0.2839 -0.1633
87454W        W88318  25.130   8.102  16.687 -0.0690 -0.0281  0.1737
87455W        W88319  25.168   7.798  14.232 -0.3029 -0.2107 -0.2462
87456W        W88320  28.195   9.967  15.926  0.0461 -0.1773 -0.0802
87457W        W88321  22.248   8.310  16.931 -0.1630 -0.1274  0.1463
87458W        W88322  25.918  11.961  14.659 -0.0429  0.2427  0.0087
87459W        W88323   0.293   9.520  14.273  0.0705  0.1486  0.3995
87460W        W88324  26.125   7.493  17.017  0.1642  0.0292  0.0178
87461W        W88325   1.121  11.332  18.968 -0.0678 -0.1120  0.2461
87462W        W88326  28.168   9.726  17.343  0.0335  0.3077 -0.2056
87463W        W88327  28.582  11.188  15.580  0.1975  0.0396 -0.1361
87464W        W88328  25.684   9.992  17.841  0.1863  0.2570 -0.1809
87465W        W88329  24.756   7.428  16.074  0.2733  0.1471 -0.0161
87466W        W88330  25.153   8.342  17.842 -0.3495 -0.0251  0.1707
87467W        W88331  26.083   7.783  16.535 -0.4801 -0.0143 -0.1058
87468W        W88332  24.591  13.158  12.340  0.0711  0.0502  0.1701
87469W        W88333  28.879   8.308  15.899  0.0839  0.1954  0.0357
87470W        W88334  27.926   9.282  16.555 -0.1013 -0.2694 -0.1012
87471W        W88335   0.815  11.667  13.368  0.2759  0.0669 -0.3660
87472W        W88336  23.393   9.546  17.915  0.1594  0.0025  0.2748
87473W        W88337  27.046  10.798  17.274 -0.0624  0.0033  0.2804
87474W        W88338  27.802  11.283  16.515  0.1362 -0.0134 -0.2019
87475W        W88339  28.624  13.126  18.159 -0.2650  0.1229  0.0280
87476W        W88340  28.977  10.247  16.142  0.0108 -0.2761 -0.0572
87477W        W88341  27.591   8.986  14.427 -0.2006 -0.2374  0.5318
87478W        W88342  26.819  10.266  13.827  0.0012  0.0540  0.2062
87479W        W88343   0.012   8.307  14.530 -0.0600  0.2468  0.1122
87480W        W88344  27.590   5.152  17.368  0.0707  0.0746  0.0418
87481W        W88345   1.033  10.819  17.471  0.1066  0.1622  0.3628
87482W        W88346   0.168  11.615  14.320  0.5195  0.2581  0.0023
87483W        W88347  26.229   8.555  15.981  0.2039  0.3227 -0.0601
87484W        W88348  28.048   9.682  19.438  0.0683  0.1571  0.0547
87485W        W88349   1.147  10.373  17.274  0.0977  0.1048 -0.2178
87486W        W88350  26.118   8.157  16.852 -0.1331 -0.0841 -0.2276
87487W        W88351  27.652  12.114  16.523 -0.0314 -0.2297  0.0322
87488W        W88352  23.160   9.907  16.878  0.3864 -0.2816 -0.1006
87489W        W88353  27.026  11.996  13.707 -0.1974  0.0081  0.2959
87490W        W88354  27.657   8.129  17.989  0.2247 -0.1415 -0.1629
87491W        W88355  28.191  10.864  19.025 -0.3199 -0.4403 -0.2724
87492W        W88356  28.603   8.853  16.314 -0.5157  0.1144  0.0729
87493W        W88357  24.927  11.863  12.747  0.0166 -0.0293  0.2316
87494W        W88358   1.182   8.490  15.977  0.1968 -0.0385  0.1981
87495W        W88359  27.757   8.807  17.128  0.1364 -0.2241 -0.0388
87496W        W88360  27.124   6.718  17.525 -0.0519  0.0919  0.1837
87497W        W88361  28.485  11.724  16.963  0.2448 -0.2783 -0.1431
87498W        W88362  25.617   9.931  16.775 -0.1734 -0.2187 -0.4170
87499W        W88363   0.106   6.015  16.287  0.1174  0.3459  0.2416
87500W        W88364  27.968   9.380  17.076 -0.3319 -0.0104 -0.3622
87501W        W88365  26.283   8.526  16.492 -0.2174  0.0941 -0.0354
87502W        W88366  27.180  10.568  19.480 -0.2076 -0.1719  0.2480
87503W        W88367  27.002   9.662  18.346  0.0749  0.0884  0.2826
87504W        W88368  26.419   5.259  16.357 -0.1931  0.1233  0.3072
87505W        W88369  24.547   8.859  12.466 -0.2934  0.1432  0.0776
87506W        W88370  26.356  10.313  14.550  0.1565  0.1188  0.0934
87507W        W88371  28.653   8.619  15.050 -0.1626 -0.0268 -0.3393
87508W        W88372   0.040   7.879  14.777  0.1793  0.0694 -0.0525
87509W        W88373  27.817  11.745  16.267  0.0612 -0.1825  0.0508
87510W        W88374  26.793  10.051  17.577 -0.0054  0.0989  0.0450
87511W        W88375  28.938  10.939  15.131 -0.0817 -0.0945 -0.0982
87512W        W88376  27.278  11.244  14.594 -0.0483 -0.0534  0.1296
87513W        W88377  26.632   9.499  15.254 -0.0835 -0.3373 -0.0219
87514W        W88378   1.812   9.269  15.226  0.1024 -0.0271  0.2815
87515W        W88379  24.906   8.425  15.314  0.0195  0.0225 -0.0432
87516W        W88380  26.885   9.574  17.305 -0.0994  0.1401 -0.0911
87517W        W88381  27.039  12.462  13.650  0.2327 -0.1321  0.0225
87518W        W88382  28.042  10.016  16.626  0.2237 -0.0576 -0.0416
87519W        W88383  25.306   8.851  17.983  0.2701  0.0996  0.2618
87520W        W88384   0.407   8.200  16.680 -0.0095  0.0853  0.0473
87521W        W88385  27.332   8.452  17.684  0.1995 -0.0864  0.0523
87522W        W88386  25.438  12.174  15.460  0.2955  0.0044  0.0327
87523W        W88387  26.249  12.728  16.549 -0.3323 -0.0813 -0.0186
87524W        W88388  28.935   6.052  15.827 -0.3424 -0.2185 -0.0375
87525W        W88389  24.927   9.497  17.838 -0.0651 -0.1917  0.0235
87526W        W88390  28.079  10.914  14.366 -0.3003  0.1331  0.0148
87527W        W88391  27.279  10.335  14.780 -0.1798  0.0298 -0.0937
87528W        W88392  25.148  11.958  17.183 -0.0860  0.4237 -0.1784
87529W        W88393  28.401   9.268  16.647  0.0534 -0.0893 -0.1231
87530W        W88394   0.074   8.309  15.069 -0.1143  0.0722 -0.0624
87531W        W88395  27.881  11.258  12.622  0.1861  0.1461  0.0961
87532W        W88396  26.969  10.403  16.735 -0.1052  0.0791 -0.0617
87533W        W88397  24.284   8.160  17.286  0.1075  0.1965 -0.1553
87534W        W88398  24.050   9.127  17.497  0.1059  0.0547  0.2010
87535W        W88399  26.843  10.129  14.635 -0.3577  0.0218  0.0787
87536W        W88400   0.421  10.992  19.039 -0.1498  0.0201 -0.0164
87537W        W88401  23.787   9.540  17.517  0.1367 -0.1224  0.1540
87538W        W88402  28.378  10.371  18.716 -0.1140 -0.1759  0.1256
87539W        W88403  27.328  10.175  13.401  0.1242 -0.0787 -0.4670
87540W        W88404   0.204  10.013  14.174  0.1547  0.1177 -0.1615
87541W        W88405   0.839  11.979  17.701 -0.2559 -0.1603  0.0396
87542W        W88406  25.074  10.260  16.592  0.0656  0.1217 -0.1265
87543W        W88407  27.643  10.280  16.134 -0.5324 -0.0274 -0.2746
87544W        W88408  27.550  10.710  17.407  0.0777 -0.1603  0.0823
87545W        W88409  25.114  11.265  17.205  0.3485  0.3427 -0.0131
87546W        W88410  25.627  12.235  16.222  0.0193  0.1706 -0.0599
87547W        W88411  27.631   9.666  13.646  0.3831 -0.2055  0.0203
87548W        W88412  27.465  10.151  19.576  0.4067 -0.2200  0.1351
87549W        W88413  27.065   9.636  16.501  0.0351  0.1093 -0.1439
87550W        W88414  25.016  12.539  16.856  0.0109 -0.0009  0.2508
87551W        W88415  26.669   9.980  16.305 -0.0862  0.2101  0.0430
87552W        W88416  26.752   8.420  15.154 -0.0304 -0.2435  0.1720
87553W        W88417  25.573   8.621  17.543  0.2796 -0.2590 -0.0889
87554W        W88418  29.100   9.095  15.543 -0.4537  0.1747  0.1737
87555W        W88419  28.688   9.826  16.531  0.1594  0.1442  0.1668
87556W        W88420   2.154  10.505  19.827 -0.1303  0.1662  0.1824
87557W        W88421  28.622  10.907  16.019  0.1596 -0.0878  0.4294
87558W        W88422  26.990  12.804  19.670  0.2786 -0.2194 -0.0464
87559W        W88423  27.493  11.499  16.913 -0.1598  0.0179  0.1377
87560W        W88424  27.514   8.510  15.134 -0.0024 -0.1160 -0.1883
87561W        W88425  25.628   9.870  14.059 -0.0437 -0.1329 -0.0340
87562W        W88426  26.918   9.933  16.829 -0.0029 -0.2092  0.2064
87563W        W88427  26.583  11.524  18.618 -0.1984 -0.0623 -0.0268
87564W        W88428  26.183   5.874  17.226  0.1497  0.0564  0.0706
87565W        W88429  28.296   7.723  17.336  0.0810  0.0957  0.1664
87566W        W88430  24.455  10.281  15.694 -0.0194 -0.0870  0.3342
87567W        W88431  24.385  10.970  13.583  0.2731  0.0944  0.1459
87568W        W88432  25.672  10.486  18.785  0.2646  0.0154 -0.0449
87569W        W88433  25.380   9.520  14.262  0.0639  0.0370  0.1341
87570W        W88434  24.770   6.675  16.210  0.2109  0.3648  0.1966
87571W        W88435  26.196  12.145  19.348  0.1396  0.0683 -0.3430
87572W        W88436  25.400   8.693  16.078  0.3300 -0.2228  0.0895
87573W        W88437  27.633   9.743  16.587 -0.1615  0.2844  0.1377
87574W        W88438   0.520   8.398  14.705 -0.0511 -0.1796 -0.0793
87575W        W88439   2.428  10.193  16.551 -0.1195  0.4331  0.0625
87576W        W88440  27.928  10.527  14.076  0.0322 -0.1744 -0.1430
87577W        W88441  26.615  12.325  14.419 -0.2341  0.2239 -0.3421
87578W        W88442   1.954   7.497  14.685 -0.0308 -0.1849 -0.1016
87579W        W88443  28.100  12.239  17.946 -0.1234 -0.0061  0.2269
87580W        W88444  27.012   9.548  20.271  0.2532  0.1751  0.0784
87581W        W88445  25.571   9.479  17.852 -0.2114  0.1387  0.2404
87582W        W88446  27.192   8.121  14.330  0.1502  0.0868 -0.2466
87583W        W88447  25.010   6.402  13.394 -0.0710  0.2593 -0.2582
87584W        W88448   0.287   7.967  17.466  0.2587 -0.1323 -0.1514
87585W        W88449  26.694  12.062  16.984 -0.0512  0.1011 -0.0787
87586W        W88450  27.397   7.784  14.923 -0.0946  0.0637  0.3400
87587W        W88451  27.143  10.433  17.669  0.1604  0.0594  0.0603
87588W        W88452   1.371   9.736  16.326 -0.0444 -0.1574  0.0948
87589W        W88453  26.787   9.146  17.561  0.1531  0.0287 -0.0325
87590W        W88454  26.443   7.522  17.532 -0.4924  0.0199 -0.0593
87591W        W88455  28.892   9.494  14.644  0.2269 -0.0910 -0.0986
87592W        W88456   1.927   6.678  16.284 -0.2761  0.0421 -0.1731
87593W        W88457  26.992   6.790  14.189  0.2501  0.1626  0.0213
87594W        W88458   2.026   6.643  14.503 -0.0264  0.1674  0.0062
87595W        W88459  26.368  11.317  11.908  0.1496  0.1620  0.0441
87596W        W88460  29.025  10.281  18.366 -0.0748 -0.1476  0.1780
87597W        W88461  27.836  11.544  14.923  0.1596 -0.4175 -0.1897
87598W        W88462  27.230   7.182  17.747 -0.1810  0.3050  0.2242
87599W        W88463  25.863   9.460  17.133  0.0175 -0.0370 -0.0698
87600W        W88464  27.318   8.522  16.791 -0.1666 -0.3008  0.1226
87601W        W88465  23.639   8.746  17.208 -0.0823  0.4932 -0.1394
87602W        W88466  26.622   7.999  17.386 -0.2744 -0.0729 -0.0334
87603W        W88467  26.782   9.790  13.729  0.2117 -0.2006 -0.1741
87604W        W88468  27.346  10.923  15.426 -0.2428  0.0561 -0.1327
87605W        W88469  26.632  10.443  17.279  0.0210 -0.4240  0.0452
87606W        W88470  28.811  10.130  17.893 -0.0824 -0.2199  0.2391
87607W        W88471  26.490  10.179  16.767 -0.4231 -0.1112 -0.1340
87608W        W88472  28.025  11.435  15.367 -0.3033 -0.1680 -0.1386
87609W        W88473  27.705  12.981  17.130 -0.1223 -0.0617  0.1467
87610W        W88474  23.538  12.376  15.041  0.1553  0.0628  0.2172
87611W        W88475  28.862  10.143  19.881  0.0857  0.1628  0.4169
87612W        W88476  26.031  11.444  17.167  0.0453  0.2416 -0.0797
87613W        W88477  23.751  11.622  14.005 -0.2418 -0.1528 -0.2181
87614W        W88478  28.667   7.952  16.709 -0.1534  0.1234  0.0970
87615W        W88479   1.142  10.301  16.254  0.0983 -0.1825  0.0183
87616W        W88480  23.300   9.489  17.396  0.1117 -0.0821 -0.0729
87617W        W88481  28.336   8.031  17.728 -0.0407 -0.2276 -0.1422
87618W        W88482  28.645  13.017  13.998  0.1745  0.0811 -0.2188
87619W        W88483  28.189  11.691  18.906 -0.0698  0.1186  0.4600
87620W        W88484  28.906  12.517  12.057 -0.0585  0.2971  0.0662
87621W        W88485  27.145   5.690  12.749 -0.2424 -0.1365 -0.0118
87622W        W88486  23.699  14.088  21.622 -0.1170  0.0778  0.2893
87623W        W88487  26.826   9.386  20.808  0.0401  0.0577 -0.0397
87624W        W88488   0.272   9.248  15.974 -0.0868 -0.0338 -0.3693
87625W        W88489  28.553  10.161  20.371 -0.0483 -0.0871  0.0884
87626W        W88490  27.475  11.123  20.665  0.2770  0.0266 -0.2804
87627W        W88491  28.113   9.997  20.203 -0.1552  0.1120 -0.0057
87628W        W88492  27.591   5.336  18.670  0.1791  0.4257  0.0518
87629W        W88493  28.196   7.686  19.753  0.1309 -0.0861 -0.1340
87630W        W88494  25.943  11.106  20.245  0.0109  0.1270  0.2280
87631W        W88495   0.311  10.265  20.900 -0.3578 -0.1238 -0.0089
87632W        W88496  26.554   8.373  19.043  0.1122  0.1487  0.2775
87633W        W88497  28.956   8.992  21.524  0.0187  0.1238  0.1586
87634W        W88498  28.849   9.737  19.391  0.2900  0.0391 -0.2948
87635W        W88499   0.783  10.861  21.839 -0.0407 -0.2129  0.1430
87636W        W88500  26.863   7.395  21.929 -0.0072  0.0601  0.1639
87637W        W88501  26.767  12.303  20.496 -0.3284 -0.0892  0.0341
87638W        W88502  26.715  10.027  18.139  0.0839 -0.1226  0.1116
87639W        W88503  26.172   7.560  19.328 -0.2764  0.2622  0.3217
87640W        W88504  26.626   9.466  24.326 -0.2552  0.2049 -0.2368
87641W        W88505  28.172   9.351  21.575 -0.0056 -0.0492 -0.0324
87642W        W88506  26.359  10.983  19.796 -0.0602  0.1607  0.1150
87643W        W88507  26.315  11.037  19.238  0.3129  0.0209  0.0032
87644W        W88508   1.294   9.246  19.855 -0.2922  0.0233 -0.1272
87645W        W88509  23.948   6.486  19.848  0.1002 -0.0920 -0.4001
87646W        W88510  24.231   8.047  18.447  0.2638 -0.2223  0.0841
87647W        W88511   0.008   9.246  22.022  0.4547 -0.2529  0.0069
87648W        W88512   0.750  10.090  20.085 -0.4168 -0.2099  0.0864
87649W        W88513  23.902   9.472  18.037 -0.1061 -0.0651  0.3385
87650W        W88514   0.180  12.250  21.194  0.2167 -0.1132  0.1710
87651W        W88515  27.639   9.381  19.612  0.2690 -0.0727 -0.0855
87652W        W88516   1.125   8.555  20.840  0.1057 -0.1196 -0.2220
87653W        W88517  28.636  10.282  21.400 -0.0965 -0.1074  0.5871
87654W        W88518  26.381  11.963  24.974  0.0095  0.3585 -0.0770
87655W        W88519  25.711  10.744  21.241 -0.2068  0.1535 -0.1413
87656W        W88520  25.967   6.671  21.748 -0.2872  0.0118  0.0640
87657W        W88521  27.517  12.712  24.191 -0.2602  0.1091 -0.2826
87658W        W88522  26.001   6.285  17.969  0.1211 -0.0755 -0.2240
87659W        W88523  25.109  10.749  20.141 -0.0013 -0.0520  0.0120
87660W        W88524   1.481   8.925  21.905  0.2726 -0.2034 -0.0861
87661W        W88525   0.233   8.377  19.790 -0.0831 -0.1693  0.0177
87662W        W88526  28.910   7.858  18.542  0.3155  0.1625 -0.0308
87663W        W88527   0.971  11.582  23.154  0.1183 -0.0142 -0.1288
87664W        W88528  24.333   9.923  19.144  0.1453  0.3766 -0.2326
87665W        W88529  28.523   9.907  21.845 -0.0913 -0.1087  0.1743
87666W        W88530  23.687  11.345  16.368 -0.0048  0.0859  0.0007
87667W        W88531  26.179   9.780  20.023 -0.1211 -0.1227  0.2014
87668W        W88532  27.737   7.120  21.949 -0.1007  0.1424  0.0345
87669W        W88533   0.109   9.971  19.589 -0.0162  0.1921  0.3577
87670W        W88534  27.547   9.498  20.210  0.0330  0.1936 -0.0855
87671W        W88535  28.670   9.462  21.254 -0.1979 -0.0482 -0.3664
87672W        W88536  27.821   6.527  22.916 -0.0742 -0.1252  0.1032
87673W        W88537  27.796   7.304  16.730 -0.1887  0.2212 -0.1580
87674W        W88538  27.998  13.676  20.781  0.0082 -0.3417 -0.0240
87675W        W88539   0.388   9.526  18.772  0.0906 -0.0495 -0.1276
87676W        W88540   1.611   5.911  21.858 -0.0499  0.4738 -0.1669
87677W        W88541  27.577  10.235  17.383 -0.1315 -0.0467  0.1928
87678W        W88542  25.596   7.136  19.189 -0.3840 -0.0326 -0.0996
87679W        W88543  28.197  10.258  21.566 -0.0393  0.1798  0.1050
87680W        W88544  27.653   8.935  17.612 -0.2136 -0.1906 -0.0145
87681W        W88545  27.886  10.858  17.927  0.2605  0.1908  0.1707
87682W        W88546  28.065   9.688  18.444  0.2110  0.1429  0.0719
87683W        W88547  27.707   8.973  20.447  0.0358  0.0398  0.0476
87684W        W88548  27.877  11.297  21.887 -0.0063  0.4547 -0.1774
87685W        W88549  26.344   9.526  19.493  0.3094 -0.0489 -0.2188
87686W        W88550  25.743   4.904  20.286  0.0861  0.2479  0.2412
87687W        W88551  28.330   5.471  20.056 -0.0912  0.1652  0.0045
87688W        W88552  24.096   9.202  13.917  0.4215  0.1904  0.0173
87689W        W88553  26.173   6.116  19.739 -0.3552  0.1374 -0.1760
87690W        W88554  23.762   9.421  16.625 -0.2918 -0.0348 -0.1408
87691W        W88555  27.215  10.187  18.441 -0.2548  0.0575 -0.1553
87692W        W88556  28.109  10.727  18.508  0.0145 -0.0201 -0.0533
87693W        W88557  26.282   7.980  17.806 -0.1368  0.3493 -0.1342
87694W        W88558  27.386   9.617  19.203  0.1601 -0.0117  0.3691
87695W        W88559  28.500  10.174  19.397  0.0048  0.1337  0.3369
87696W        W88560  26.315   9.989  19.600  0.1924  0.0199  0.2755
87697W        W88561  27.033  10.071  21.104 -0.0643 -0.2039  0.0419
87698W        W88562  25.166   8.639  19.768 -0.1107 -0.1141 -0.1311
87699W        W88563  26.068   8.744  18.384  0.1597  0.0641 -0.0096
87700W        W88564  27.272   8.837  17.318  0.1450 -0.0150  0.1725
87701W        W88565   0.076   9.678  20.426  0.0962  0.1603  0.1700
87702W        W88566  26.488   6.700  21.518 -0.2229  0.2581 -0.0747
87703W        W88567  28.600   9.590  23.306 -0.5260 -0.3437 -0.0274
87704W        W88568  25.190   5.892  19.023 -0.2002  0.0525 -0.1504
87705W        W88569   0.685   9.546  21.679  0.0156 -0.0016  0.0365
87706W        W88570  28.137   7.206  22.188 -0.1318  0.1536  0.1729
87707W        W88571  28.319   9.882  19.031  0.1577  0.1048 -0.1200
87708W        W88572   0.187  10.034  21.370 -0.1972  0.0261 -0.1762
87709W        W88573  26.316   7.089  23.782 -0.0799 -0.2694 -0.0206
87710W        W88574  28.385  11.904  23.511 -0.0568 -0.0450  0.1460
87711W        W88575   1.349  11.259  20.091  0.1132  0.0902 -0.1171
87712W        W88576   0.364  11.311  19.909  0.0587 -0.2359  0.1033
87713W        W88577   0.584   9.798  20.466 -0.1826 -0.0840  0.0428
87714W        W88578  26.556   7.782  18.386 -0.2884 -0.3156 -0.1867
87715W        W88579  26.106   4.530  19.456  0.0426 -0.2384 -0.2109
87716W        W88580  22.932   7.698  19.283 -0.0594  0.2125  0.4859
87717W        W88581   0.516  11.232  22.557 -0.0562 -0.1753  0.0704
87718W        W88582  28.652   9.195  18.470  0.0489 -0.1683 -0.1612
87719W        W88583   0.210  11.404  21.177  0.2175 -0.2202  0.1226
87720W        W88584  25.896   6.530  18.400  0.1630 -0.4812 -0.1780
87721W        W88585   3.209   8.345  22.355  0.1301 -0.0370  0.1066
87722W        W88586  25.786   7.568  18.951  0.3401  0.2366  0.3559
87723W        W88587  24.993  10.785  21.505 -0.1370 -0.0148 -0.1688
87724W        W88588  27.897   7.841  16.920 -0.0823  0.3234 -0.2844
87725W        W88589  28.889  11.967  20.937 -0.2802  0.1218  0.0235
87726W        W88590   0.781  10.242  20.719  0.0981  0.0021 -0.1910
87727W        W88591  27.675  11.009  22.229 -0.0942 -0.3918  0.1718
87728W        W88592  28.482   9.645  20.236 -0.0666  0.1888 -0.3853
87729W        W88593  28.659  12.558  19.060  0.2425 -0.3394  0.2387
87730W        W88594  25.710   9.064  21.808  0.2396 -0.2127  0.0687
87731W        W88595  28.767   8.418  19.516  0.0136  0.2318  0.2267
87732W        W88596  26.958  10.439  23.178  0.1045 -0.0871  0.0629
87733W        W88597  27.087  10.724  18.608  0.0904 -0.0882 -0.1038
87734W        W88598   0.497  10.073  19.175 -0.0295  0.0074  0.2714
87735W        W88599  28.773  10.791  24.364  0.0153  0.2325  0.2907
87736W        W88600   0.155   9.817  17.140 -0.2737  0.0837  0.1043
87737W        W88601  27.494   8.983  18.651  0.4335 -0.1194 -0.3474
87738W        W88602  28.496   6.798  22.153 -0.1211 -0.2410 -0.3450
87739W        W88603  28.660   7.980  22.379 -0.2337  0.0152 -0.1258
87740W        W88604  27.854   7.955  20.092 -0.0743  0.2113 -0.0751
87741W        W88605  26.302   5.633  19.650  0.1450  0.1001  0.2156
87742W        W88606  25.974   7.387  18.478 -0.1472  0.2743  0.1263
87743W        W88607  26.955  11.169  18.845  0.1453 -0.1278 -0.1830
87744W        W88608  28.448  13.050  21.520 -0.1294 -0.1424 -0.1085
87745W        W88609  27.453  10.315  20.956 -0.0061 -0.3546 -0.1924
87746W        W88610  27.875   8.843  21.350  0.2026 -0.0680  0.3606
87747W        W88611  27.536  10.999  20.130 -0.0180 -0.1554 -0.4164
87748W        W88612  27.460   7.189  22.360 -0.2080  0.0714  0.0327
87749W        W88613  28.362   9.853  21.272 -0.4148  0.1247  0.1905
87750W        W88614   0.550  12.614  21.340  0.1569 -0.0641  0.0517
87751W        W88615  26.706  10.471  17.884 -0.0608 -0.2296 -0.0762
87752W        W88616  26.521  11.685  20.953  0.0917 -0.0482 -0.0930
87753W        W88617  25.545   7.130  17.644  0.0643 -0.0097 -0.0088
87754W        W88618  27.863  11.384  20.919 -0.3441  0.0821 -0.0690
87755W        W88619   0.855   6.504  18.848  0.1430 -0.1784  0.1514
87756W        W88620  28.195   9.709  20.647 -0.0829 -0.0709 -0.0030
87757W        W88621  24.496   7.552  22.303 -0.3109  0.0144 -0.1019
87758W        W88622  28.900   9.362  20.313 -0.2275  0.5333 -0.2538
87759W        W88623  29.033   9.344  20.806 -0.0949  0.2645  0.0700
87760W        W88624  23.326   8.220  18.257 -0.0080 -0.1199  0.0610
87761W        W88625  26.379   8.810  18.817  0.1001  0.0819 -0.0537
87762W        W88626  22.956   6.761  20.342 -0.0375  0.0364  0.0985
87763W        W88627  28.601   8.580  20.140  0.2486 -0.2857  0.3331
87764W        W88628  27.182  12.578  17.824  0.0674  0.0748 -0.0521
87765W        W88629  26.278   6.784  17.726  0.2551  0.3727 -0.1735
87766W        W88630   0.366  11.923  20.875  0.0668 -0.0609  0.2067
87767W        W88631  26.497   6.632  18.190  0.5465 -0.0184 -0.1570
87768W        W88632  28.494  11.333  19.045 -0.1140  0.0429 -0.4779
87769W        W88633  26.477  11.036  20.315 -0.0873 -0.2739  0.4885
87770W        W88634  27.348  10.923  18.987  0.1497 -0.1658  0.1288
87771W        W88635  28.117   8.759  20.152 -0.0797 -0.2041 -0.1146
87772W        W88636  27.203  13.049  17.903  0.0890 -0.0441 -0.0461
87773W        W88637  27.747   6.049  19.757  0.1389 -0.0637  0.0305
87774W        W88638  27.041  11.185  20.871 -0.2570  0.2145  0.1300
87775W        W88639  26.183   6.322  15.630  0.0600  0.0413  0.0904
87776W        W88640  26.599   6.257  19.552 -0.1155  0.1272 -0.3338
87777W        W88641  27.806   6.147  23.211  0.1434  0.0477 -0.0166
87778W        W88642  25.934   8.528  18.859  0.1151 -0.1019 -0.0150
87779W        W88643  26.821   8.275  18.600  0.1207  0.2973 -0.0113
87780W        W88644   0.485   8.694  20.419  0.0228  0.0405 -0.2511
87781W        W88645  28.635   8.389  20.869 -0.0263  0.0919  0.0435
87782W        W88646  28.911   9.842  21.495 -0.0692 -0.2393 -0.1485
87783W        W88647  28.881   9.459  22.716  0.0909 -0.2280 -0.0261
87784W        W88648  28.784  11.007  23.918 -0.0015 -0.0306 -0.2220
87785W        W88649  27.854  11.357  20.404 -0.1423  0.1155 -0.1507
87786W        W88650  25.087   8.043  21.314  0.0633  0.1755 -0.1102
87787W        W88651  25.153   7.112  20.229  0.1515 -0.0859  0.0687
87788W        W88652  28.659   8.954  19.254  0.0295  0.1029 -0.1025
87789W        W88653  27.855  12.829  18.791 -0.1113 -0.3290  0.0425
87790W        W88654  28.301  10.463  21.015  0.2290  0.1509 -0.1429
87791W        W88655  25.349  11.187  16.785 -0.2436  0.0706  0.1589
87792W        W88656  27.931  10.358  20.563  0.0478  0.0709 -0.2067
87793W        W88657  27.698   9.086  22.284 -0.1031  0.1883  0.1265
87794W        W88658   0.477   9.500  19.303  0.0010 -0.3558 -0.0550
87795W        W88659  27.870  11.192  18.305 -0.0953  0.0399  0.1150
87796W        W88660  28.593   8.811  18.181 -0.2165 -0.0414  0.1223
87797W        W88661   1.267   8.509  18.268  0.2667 -0.0180 -0.1846
87798W        W88662  27.693  12.281  19.346  0.2004 -0.1390 -0.1386
87799W        W88663  27.634   8.478  23.204  0.1773 -0.2427  0.1973
87800W        W88664  27.709  10.580  19.352 -0.0521  0.1640 -0.3692
87801W        W88665  27.417   9.779  22.361 -0.4251 -0.3995  0.0914
87802W        W88666  27.670   9.909  18.150  0.1163 -0.0763  0.0894
87803W        W88667   0.173   9.100  18.904  0.0881 -0.1505  0.2400
87804W        W88668   0.236   8.835  17.304 -0.1605 -0.3009 -0.2133
87805W        W88669  26.838   6.906  18.655 -0.3325 -0.2400  0.0674
87806W        W88670  27.856   7.655  18.949  0.3406  0.0080  0.1085
87807W        W88671  26.003  11.202  21.340 -0.1506 -0.0378  0.0041
87808W        W88672  29.137   8.264  18.816  0.1780  0.0059  0.2196
87809W        W88673  23.224   4.718  19.437 -0.1302  0.0506 -0.1080
87810W        W88674  27.619   9.312  24.520 -0.1036 -0.2501 -0.2416
87811W        W88675  26.807   9.104  21.982 -0.1961 -0.2232 -0.1880
87812W        W88676  27.836   9.656  18.916  0.2132  0.3487 -0.3127
87813W        W88677  24.114   8.275  19.671 -0.0493 -0.3254  0.0289
87814W        W88678  26.564   8.856  22.370  0.1893 -0.3385 -0.2686
87815W        W88679  25.655   6.406  21.264  0.1417  0.1048  0.3729
87816W        W88680  28.890   7.408  18.770 -0.0479  0.0519  0.0571
87817W        W88681  27.548   6.764  20.200  0.1889 -0.2058 -0.0840
87818W        W88682  27.059   8.293  19.928  0.0163  0.0702 -0.1471
87819W        W88683  27.337   7.244  20.701 -0.0900  0.2228 -0.1204
87820W        W88684  26.933   7.293  19.417  0.3397  0.1843 -0.0678
87821W        W88685   0.508   6.975  18.990  0.1215 -0.2906 -0.3072
87822W        W88686  27.392   7.928  18.650  0.0682  0.4206  0.2168
87823W        W88687  28.943  10.295  22.423 -0.2295  0.2344  0.0427
87824W        W88688  28.511  10.634  16.404 -0.2597 -0.2502 -0.1279
87825W        W88689  28.856   8.860  20.496  0.1308  0.0075  0.0742
87826W        W88690  27.233   8.788  21.979 -0.1038 -0.1001 -0.2314
87827W        W88691  26.952   8.244  17.002  0.3682 -0.1465  0.0172
87828W        W88692  27.917  12.061  22.013  0.2514  0.0382  0.2272
87829W        W88693  27.009   9.203  21.218 -0.0554 -0.0035  0.0121
87830W        W88694  28.978  10.737  16.300  0.0513 -0.0766 -0.0676
87831W        W88695  27.908   7.284  17.335 -0.0854 -0.2219 -0.2351
87832W        W88696  28.772  10.551  20.199  0.2903  0.1412  0.1916
87833W        W88697  26.892   8.858  21.552  0.0149 -0.1268 -0.0885
87834W        W88698  25.716   9.650  21.951 -0.0766  0.0752 -0.2071
87835W        W88699   2.347   6.204  22.356  0.2696  0.1733  0.1246
87836W        W88700   0.923  12.820  24.914  0.0037  0.1873 -0.3602
87837W        W88701  28.756   5.914  18.304  0.1533  0.1395  0.2242
87838W        W88702   0.406  10.434  19.574 -0.1449 -0.3524  0.1381
87839W        W88703   1.525  11.035  17.613 -0.0789  0.1308 -0.1839
87840W        W88704  25.870  11.196  22.376  0.0370  0.0397  0.2219
87841W        W88705  26.147  10.610  20.227  0.2105 -0.0447 -0.2739
87842W        W88706   2.152   8.467  20.577  0.0244  0.0733  0.0436
87843W        W88707  28.940  10.128  21.037 -0.0279 -0.2217 -0.3699
87844W        W88708  27.052  12.001  21.763 -0.0536  0.3501  0.1903
87845W        W88709  27.347   5.867  19.500 -0.0041 -0.0907 -0.0681
87846W        W88710  28.250  11.518  20.624 -0.0423  0.1757 -0.3404
87847W        W88711  27.195  11.752  22.616 -0.5828  0.2038  0.0382
87848W        W88712  24.468  10.252  21.224 -0.0455 -0.2720 -0.2450
87849W        W88713   1.087  10.581  20.927 -0.0052 -0.0031  0.0104
87850W        W88714  28.158  10.207  17.191 -0.2324 -0.1608  0.2263
87851W        W88715  28.181   9.689  22.148 -0.0897  0.2134 -0.4116
87852W        W88716  25.865   4.981  19.771 -0.0813 -0.0224  0.0026
87853W        W88717  29.028  12.242  22.479  0.2480 -0.2138  0.0802
87854W        W88718  27.124   8.743  18.420  0.0717  0.0384  0.1562
87855W        W88719  26.465   7.495  20.198 -0.4319  0.0993  0.2496
87856W        W88720  25.246   9.282  22.491  0.2353 -0.0667 -0.0815
87857W        W88721  25.784  10.676  22.679  0.0482  0.2261  0.0998
87858W        W88722   1.604  10.528  17.635 -0.0639 -0.1227 -0.2449
87859W        W88723  27.885   7.577  21.998 -0.3099  0.1296  0.3454
87860W        W88724  29.049  10.339  19.339  0.0046 -0.0401 -0.1997
87861W        W88725  27.784  10.664  18.871 -0.0323 -0.0946  0.1992
87862W        W88726   0.378   8.588  18.881 -0.3000  0.2161  0.2460
87863W        W88727  23.422   9.764  18.916  0.0168 -0.2401 -0.3114
87864W        W88728  26.947   9.725  22.394  0.0103  0.1594  0.2967
87865W        W88729  25.087   6.336  19.237 -0.2344 -0.1376 -0.1069
87866W        W88730  28.888   9.457  18.940  0.0452 -0.1303  0.0425
87867W        W88731  25.918  10.979  17.899  0.4428 -0.0722 -0.1220
87868W        W88732  27.802  10.451  21.310  0.0644  0.0873  0.2665
87869W        W88733  27.368  11.178  21.888 -0.0526  0.1106 -0.2127
87870W        W88734   1.814  11.418  21.073  0.2605 -0.3233  0.3305
87871W        W88735  26.299   6.241  18.571 -0.0887 -0.0929  0.2076
87872W        W88736  24.221   7.522  18.468  0.1752  0.0039  0.2574
87873W        W88737  25.897  11.928  20.702  0.1658 -0.3344 -0.2960
87874W        W88738   0.539   9.645  22.402 -0.0266 -0.4300  0.0476
87875W        W88739   0.151   9.797  20.899 -0.0120 -0.3413 -0.2956
87876W        W88740  25.843   8.524  17.073 -0.2690 -0.2195  0.1134
87877W        W88741   0.255  11.670  18.699  0.3335  0.1450 -0.0960
87878W        W88742  26.329   9.361  17.240 -0.0389 -0.1129  0.0108
87879W        W88743  25.209   6.372  20.203 -0.2422  0.0432 -0.0390
87880W        W88744  28.108  11.854  22.460 -0.2979 -0.2469  0.0332
87881W        W88745   1.055  10.228  19.134 -0.0714 -0.1233  0.0619
87882W        W88746  25.794   5.832  16.825 -0.1544 -0.2618  0.0792
87883W        W88747  27.692  10.480  22.946 -0.0137 -0.0593 -0.1572
87884W        W88748   0.238   7.557  22.303  0.0015 -0.1126  0.1474
87885W        W88749  26.992   9.524  17.861 -0.0314  0.0630 -0.1601
87886W        W88750  27.650  13.297  18.494  0.4180 -0.0368  0.3318
87887W        W88751  25.575  10.864  22.025 -0.0264 -0.0117  0.0133
87888W        W88752  24.092  11.151  16.744  0.1504 -0.0532  0.2819
87889W        W88753   1.117   9.913  20.480 -0.0397 -0.2201  0.0370
87890W        W88754  26.445   8.494  24.341  0.1246 -0.0506 -0.1803
87891W        W88755  28.576   8.945  17.693 -0.1498 -0.2780  0.1325
87892W        W88756  28.106   8.801  17.899  0.1760 -0.0144  0.4326
87893W        W88757  27.669   9.339  21.421  0.0567  0.1857  0.0632
87894W        W88758   0.906  12.083  23.103 -0.0185 -0.0545 -0.2343
87895W        W88759  26.088  10.163  24.283  0.2859 -0.2172  0.1551
87896W        W88760  27.365  12.960  20.991 -0.2589  0.2650 -0.1671
87897W        W88761   1.085  10.147  21.187  0.0998 -0.4539 -0.1925
87898W        W88762  26.663   8.825  23.032  0.1390 -0.0879  0.1836
87899W        W88763  28.449  10.085  20.822 -0.1782 -0.2456  0.0598
87900W        W88764  26.911  11.040  21.340 -0.0931 -0.0341  0.1759
87901W        W88765  24.255  11.441  20.628  0.0621  0.4555  0.0907
87902W        W88766  29.045   9.809  18.529  0.0065  0.0873  0.0913
87903W        W88767  27.036   6.414  18.506 -0.1983  0.1327  0.1757
87904W        W88768  26.759  10.596  19.793  0.0397 -0.0236  0.1074
87905W        W88769  25.907  10.222  19.874 -0.4240 -0.0129 -0.0666
87906W        W88770   0.806   9.659  19.027 -0.2001 -0.1613 -0.2018
87907W        W88771  28.438   9.053  21.249 -0.0369 -0.0442 -0.0296
87908W        W88772  27.685  10.059  19.183 -0.1226 -0.2678 -0.0535
87909W        W88773  27.311   8.464  21.129  0.0298  0.0329  0.2594
87910W        W88774  26.535   7.131  17.999  0.0125 -0.0620 -0.2479
87911W        W88775  25.363   8.381  18.741  0.1135 -0.0272  0.0493
87912W        W88776  26.277   6.621  19.531 -0.0280 -0.0817 -0.1788
87913W        W88777  28.474   9.256  17.152 -0.1983  0.0433  0.2216
87914W        W88778  28.694   7.951  19.479 -0.0073  0.1679 -0.0394
87915W        W88779  27.511   7.403  18.625 -0.2703  0.0369  0.2856
87916W        W88780  25.792   9.280  18.201 -0.0016  0.1446 -0.1009
87917W        W88781  28.531   8.735  22.868 -0.0018  0.2184  0.0548
87918W        W88782  27.275   8.483  18.808  0.0145  0.0213  0.0216
87919W        W88783   1.854  13.284  25.664 -0.1943 -0.2402  0.1210
87920W        W88784  27.110   6.857  19.150  0.0356 -0.1601 -0.3643
87921W        W88785  26.610  10.803  18.821 -0.1820 -0.2784 -0.2861
87922W        W88786  28.150  11.894  17.449  0.1345  0.1197  0.0900
87923W        W88787  28.707   6.329  23.739 -0.2175 -0.4065 -0.0604
87924W        W88788  26.392   8.344  22.348 -0.0496 -0.0165 -0.1337
87925W        W88789  26.653   9.729  19.968  0.3709  0.2463  0.0703
87926W        W88790  26.878   9.234  22.504 -0.1315  0.0204 -0.1431
87927W        W88791   0.927  12.659  22.781  0.0335 -0.0958  0.0885
87928W        W88792   0.652   9.886  21.040 -0.1454  0.0286  0.0625
87929W        W88793  25.159   6.040  18.464  0.0358 -0.3711 -0.1778
87930W        W88794  26.258   6.395  19.032  0.2068 -0.0871  0.1568
87931W        W88795  27.103  10.376  21.868  0.0803  0.0717  0.0834
87932W        W88796  22.872   6.045  18.829 -0.2237 -0.1300  0.2030
87933W        W88797  27.108   8.409  21.602 -0.2238 -0.1712 -0.0883
87934W        W88798  27.439   9.436  23.219  0.2808  0.0002  0.1331
87935W        W88799  28.773   9.650  22.238 -0.0658  0.3483 -0.1029
87936W        W88800  25.507  11.019  20.524  0.1328  0.2765  0.1189
87937W        W88801  28.427  11.578  22.755  0.0171  0.0843 -0.1797
87938W        W88802  25.798   9.371  20.859 -0.1382 -0.0410 -0.2118
87939W        W88803  28.771   7.069  19.131  0.1580 -0.5596  0.6802
87940W        W88804  28.055   9.524  21.131 -0.1656  0.2003 -0.0522
87941W        W88805  28.383   8.752  19.731 -0.0754 -0.0927 -0.0112
87942W        W88806  26.434   9.770  20.974  0.1734  0.1611 -0.2499
87943W        W88807   0.146  10.899  20.384 -0.1712  0.0255 -0.0035
87944W        W88808  27.084   9.674  21.451  0.1299 -0.0300 -0.1630
87945W        W88809  27.492  10.655  20.553 -0.0947  0.1236 -0.0108
87946W        W88810  24.451   9.686  20.812 -0.1205 -0.0819  0.1731
87947W        W88811  27.187   9.810  21.945 -0.0733 -0.3642 -0.1420
87948W        W88812  24.965   7.447  17.303  0.0640 -0.0524 -0.1511
87949W        W88813  26.740   9.237  18.584 -0.0125 -0.0317  0.0021
87950W        W88814   0.010   6.699  16.744 -0.2608 -0.1210  0.0110
87951W        W88815  26.909   7.975  17.846  0.1035  0.2119 -0.0896
87952W        W88816  26.775   8.027  21.610 -0.0169  0.0729  0.4623
87953W        W88817  25.489   6.346  18.196  0.0291  0.1497 -0.0727
87954W        W88818  27.956   9.854  21.532 -0.0630  0.1157  0.2567
87955W        W88819  28.107   9.231  20.361 -0.4714 -0.0984  0.1668
87956W        W88820   0.563  11.540  23.851 -0.0559  0.0025 -0.0809
87957W        W88821   0.108  11.438  22.784  0.4350 -0.2820 -0.1555
87958W        W88822  26.596  13.402  17.785  0.1480  0.1671 -0.1464
87959W        W88823  28.680   8.448  19.000  0.0074  0.1906 -0.1861
87960W        W88824  28.003   8.754  18.390  0.0829 -0.1349 -0.0507
87961W        W88825  27.321   7.830  19.983  0.3487 -0.1863 -0.2258
87962W        W88826  23.990  11.242  18.213  0.2363 -0.0163  0.3926
87963W        W88827  26.005   6.957  18.134 -0.4606  0.0979 -0.1013
87964W        W88828  27.590   5.214  19.213  0.1041 -0.0231 -0.0037
87965W        W88829  26.245  10.564  18.574  0.1468  0.1251  0.0641
87966W        W88830  26.890   7.773  19.626  0.1884 -0.0814 -0.2168
87967W        W88831   0.436  11.085  21.551  0.0446 -0.0577  0.1963
87968W        W88832  24.920   7.087  16.894  0.1067  0.3229  0.1894
87969W        W88833  24.170   5.854  18.307  0.0553 -0.1454 -0.1736
87970W        W88834   0.087   9.383  19.900  0.0336 -0.4263  0.1039
87971W        W88835  25.684   8.466  19.855  0.0602 -0.0325 -0.3446
87972W        W88836  28.789  11.309  22.970 -0.1570  0.1255 -0.2044
87973W        W88837  28.244  11.216  18.633 -0.1557 -0.0500  0.2031
87974W        W88838  27.939  12.881  19.894  0.1396 -0.1005 -0.2225
87975W        W88839  25.558  10.430  21.643 -0.2754  0.1412 -0.1185
87976W        W88840  28.071  10.352  18.120 -0.1925  0.2861 -0.1125
87977W        W88841   1.057   6.311  17.566 -0.1711  0.0021  0.0544
87978W        W88842  27.654  11.739  20.240 -0.2871 -0.0112 -0.0023
87979W        W88843  26.924   8.135  22.538 -0.1442  0.1319  0.3564
87980W        W88844  26.065   6.271  21.447  0.1023  0.0946  0.0659
87981W        W88845  27.109   5.472  19.350 -0.2357 -0.0493  0.0103
87982W        W88846  27.888  10.012  17.691  0.0384  0.1156 -0.0137
87983W        W88847  27.596  10.446  22.467  0.0502  0.1856 -0.0648
87984W        W88848  26.390  12.436  23.070  0.0619 -0.4579  0.1135
87985W        W88849  29.113   5.010  17.461 -0.2420 -0.3931 -0.0441
87986W        W88850  24.454   9.947  20.351 -0.0619 -0.0274 -0.2193
87987W        W88851  28.729  12.571  18.541  0.0417 -0.0161 -0.0766
87988W        W88852   0.716   9.079  19.030 -0.0936  0.2701  0.1403
87989W        W88853  27.384  10.913  17.786 -0.0966 -0.5265  0.1083
87990W        W88854  27.042   7.804  18.307  0.0079  0.0182 -0.0433
87991W        W88855   0.701   4.320  18.698 -0.3456 -0.3771  0.0420
87992W        W88856  28.318   8.272  20.406 -0.1115 -0.1763  0.1307
87993W        W88857   0.818   8.700  21.278  0.0783 -0.0956  0.0361
87994W        W88858  24.720  10.705  17.383 -0.0352 -0.0668 -0.0223
87995W        W88859  28.679  11.533  20.935  0.0873 -0.2615 -0.0111
87996W        W88860  25.887  10.184  20.394  0.0732 -0.4917 -0.3157
87997W        W88861  26.949   6.805  22.661 -0.1400 -0.0572  0.0091
87998W        W88862  26.157   8.530  19.342 -0.2205 -0.0377 -0.0863
87999W        W88863  26.588  12.333  22.595  0.0192  0.1776  0.1080
88000W        W88864  28.430  12.387  23.351  0.1629  0.1410  0.0451
88001W        W88865  26.624  10.579  20.425 -0.0455  0.1973 -0.3438
88002W        W88866  28.211  10.777  22.066 -0.2472 -0.0942  0.0436
88003W        W88867  25.827  11.348  18.298  0.1434 -0.2553  0.0757
88004W        W88868  28.247   9.202  22.088 -0.3440 -0.0106  0.0157
88005W        W88869  28.078  11.801  24.830 -0.3542  0.1096 -0.2944
88006W        W88870  27.287  10.725  22.230  0.2778  0.2670  0.1219
88007W        W88871   0.646   9.341  21.136  0.0979  0.4273  0.2824
88008W        W88872  28.980   8.534  17.247  0.3817  0.0632 -0.3058
88009W        W88873  27.673  11.845  21.175  0.0191 -0.3749 -0.2938
88010W        W88874  27.871  10.148  18.661 -0.0314  0.1029  0.2955
88011W        W88875   1.449  13.282  21.467  0.0965 -0.1320 -0.2362
88012W        W88876  27.358  11.669  24.261 -0.2307  0.3232 -0.2448
88013W        W88877  25.141  10.558  21.941 -0.2978  0.0076  0.0107
88014W        W88878  26.930   6.906  20.791  0.1644 -0.3619  0.0087
88015W        W88879  26.629  12.440  19.536 -0.0651  0.3252  0.0450
88016W        W88880  28.846  12.044  20.083  0.1124  0.1025  0.4584
88017W        W88881  28.519   9.221  20.666  0.0500  0.1608  0.0302
88018W        W88882  26.119   8.313  18.174 -0.3382  0.4021 -0.0674
88019W        W88883  25.490  10.592  24.154 -0.3423  0.1766  0.2893
88020W        W88884  25.962   9.568  17.595 -0.0681 -0.0558 -0.0762
88021W        W88885  28.473  10.025  18.244  0.0191 -0.1916  0.0807
88022W        W88886  23.591  10.157  23.883 -0.3999 -0.0635  0.1202
88023W        W88887  23.827  11.084  24.450 -0.0069 -0.3636  0.0376
88024W        W88888   1.399  11.669  23.984  0.1289  0.0325  0.0367
88025W        W88889   3.711  14.123  25.479 -0.1653 -0.1496 -0.0101
88026W        W88890  27.831  11.399  23.268  0.0549 -0.0430  0.1865
88027W        W88891  25.259   9.802  22.154  0.3506 -0.1106 -0.0564
88028W        W88892  26.027   9.336  24.664 -0.2418 -0.0620  0.0385
88029W        W88893  27.432  10.733  24.527 -0.0433 -0.0801 -0.0810
88030W        W88894  27.126  10.137  26.317 -0.0669 -0.0542 -0.3844
88031W        W88895  24.864  10.288  23.626 -0.0150  0.1223  0.0931
88032W        W88896  25.376   9.144  23.087 -0.1073  0.2671 -0.0116
88033W        W88897  28.576   8.165  21.796  0.0447 -0.0771  0.1013
88034W        W88898  27.140   9.687  22.890  0.4808 -0.3182  0.2105
88035W        W88899   0.364   8.532  26.284 -0.3414  0.0278  0.0673
88036W        W88900  28.177   8.114  22.096  0.0426 -0.0170 -0.1068
88037W        W88901  22.571   9.937  25.234 -0.0132  0.4513 -0.0749
88038W        W88902  27.715  11.868  23.905 -0.0267 -0.2029  0.0648
88039W        W88903  25.066  10.151  24.104 -0.0960  0.0149 -0.2482
88040W        W88904  25.639   5.662  25.501  0.0101  0.1632  0.1517
88041W        W88905   0.561   7.381  24.017  0.0523  0.1005  0.1364
88042W        W88906  27.966   9.085  28.670  0.0366 -0.0778  0.0403
88043W        W88907   0.358   9.337  25.684  0.1199  0.1118 -0.0902
88044W        W88908  28.196  10.548  27.605  0.2336  0.3633  0.0105
88045W        W88909  29.039   8.177  22.820 -0.2117  0.3061 -0.1086
88046W        W88910  25.084   9.321  23.604 -0.2647  0.2227  0.0031
88047W        W88911  26.855  10.625  24.564  0.4013  0.0115 -0.1819
88048W        W88912   0.551   8.235  27.319  0.0525  0.0395 -0.3096
88049W        W88913  24.844  12.290  24.595 -0.1221  0.1067 -0.2205
88050W        W88914  28.713  11.324  25.402  0.1461 -0.0027  0.1727
88051W        W88915  26.032   8.580  25.265 -0.1677 -0.1211 -0.0131
88052W        W88916  27.383   8.455  22.313 -0.2305 -0.0590 -0.1972
88053W        W88917   0.352  10.146  27.306  0.2711 -0.0764  0.0148
88054W        W88918  25.748   8.130  25.849  0.2393  0.0123 -0.1440
88055W        W88919  28.045   7.652  25.415 -0.0333 -0.1416  0.2719
88056W        W88920  28.963   7.997  23.821  0.0284 -0.1998  0.0889
88057W        W88921   1.504  12.070  26.432 -0.0863 -0.0025  0.3376
88058W        W88922  26.634   9.927  23.629 -0.1428  0.1792 -0.1163
88059W        W88923  27.662  10.588  21.763  0.2464 -0.0948 -0.1169
88060W        W88924   1.931   9.993  23.823 -0.0437 -0.0057 -0.2336
88061W        W88925   1.006   7.808  22.780 -0.2827  0.4600  0.3973
88062W        W88926   1.274   8.741  19.937 -0.1612  0.3440  0.0931
88063W        W88927   2.686  11.123  24.202  0.0107  0.1804 -0.1566
88064W        W88928  25.110  11.014  22.116 -0.1842  0.1285  0.0673
88065W        W88929   1.423  10.464  23.908 -0.0819 -0.1470  0.2104
88066W        W88930  26.367  11.990  23.362  0.1069  0.0356  0.0340
88067W        W88931  26.716  12.331  24.775 -0.0129 -0.2434 -0.3234
88068W        W88932  28.766   9.443  21.739  0.0802 -0.1226  0.1378
88069W        W88933   3.095  10.524  24.842 -0.4001  0.3525 -0.2659
88070W        W88934  27.828   9.431  23.766 -0.0901 -0.0554 -0.0268
88071W        W88935   1.435  12.139  24.136 -0.1680 -0.0086  0.0468
88072W        W88936  27.772  10.282  26.716 -0.1621  0.0100  0.0765
88073W        W88937  27.871   7.717  23.866  0.0810  0.2355  0.1181
88074W        W88938   0.004  10.762  26.595 -0.1097 -0.4677 -0.1445
88075W        W88939  28.579   9.384  24.289  0.1532  0.0409 -0.0538
88076W        W88940  29.129  11.196  25.135 -0.0531  0.0061  0.2271
88077W        W88941  25.937   5.754  24.072 -0.0175 -0.0321 -0.4047
88078W        W88942  28.235  10.378  25.574 -0.1187 -0.1517 -0.1097
88079W        W88943  27.273  11.214  22.379 -0.1734  0.0552  0.1562
88080W        W88944  26.374  12.256  26.131 -0.4641 -0.0581  0.0468
88081W        W88945  26.595  11.432  25.017 -0.1963 -0.3920  0.2783
88082W        W88946  29.100  10.378  23.072  0.0435 -0.1294  0.0800
88083W        W88947  24.992   9.953  21.317 -0.0966  0.0267  0.3758
88084W        W88948  25.620   8.334  24.893  0.0100 -0.1675  0.0384
88085W        W88949  27.097   9.200  22.959  0.1434 -0.1688  0.0328
88086W        W88950  26.536   6.843  25.954 -0.0925  0.0405  0.2910
88087W        W88951   0.398   8.806  19.445 -0.1931 -0.0198  0.0493
88088W        W88952  25.712  12.619  22.309  0.1476 -0.2527 -0.0745
88089W        W88953  26.466   9.740  22.419 -0.0560  0.0919  0.1375
88090W        W88954  25.428   8.742  21.542  0.1413 -0.0447 -0.1088
88091W        W88955  23.151  13.980  22.926 -0.1861 -0.1773  0.0685
88092W        W88956   0.932  11.540  25.216  0.1471 -0.1136  0.0406
88093W        W88957  26.492   6.920  20.231  0.3169 -0.1833  0.0001
88094W        W88958   0.758  11.539  24.741  0.1860 -0.2553  0.0439
88095W        W88959  27.087  10.004  24.822  0.0239  0.1077 -0.1428
88096W        W88960  28.085  11.555  23.692  0.3799  0.0633 -0.0969
88097W        W88961  25.835  12.434  23.892  0.0481 -0.0340 -0.1375
88098W        W88962  26.961   8.876  24.914 -0.1904 -0.0711 -0.0540
88099W        W88963  28.903  11.196  24.640 -0.4499  0.1458  0.1655
88100W        W88964  26.645  11.250  23.752 -0.1112 -0.3730  0.2169
88101W        W88965  26.513   9.907  24.135  0.2269  0.1831 -0.0598
88102W        W88966  26.386  10.485  23.326 -0.0441 -0.0718  0.0734
88103W        W88967  27.036  10.200  23.708 -0.2080  0.0291 -0.1855
88104W        W88968  25.269   9.067  24.003 -0.0424  0.1796 -0.0151
88105W        W88969  28.876   9.967  22.776 -0.3243 -0.1597 -0.0050
88106W        W88970  25.681   9.714  25.926  0.0022 -0.2542 -0.0020
88107W        W88971  27.533   9.753  21.157 -0.0362 -0.0371 -0.1806
88108W        W88972  28.958   8.516  27.680 -0.1887  0.1732 -0.2320
88109W        W88973  28.245   7.992  25.010  0.4693 -0.2737 -0.2122
88110W        W88974  28.491   9.997  27.727 -0.2020  0.0808  0.0786
88111W        W88975  26.989   9.229  25.763 -0.2852 -0.2630  0.2211
88112W        W88976  28.604   7.898  20.744 -0.3398  0.1306 -0.0415
88113W        W88977  26.198  10.116  25.235 -0.0844 -0.2865  0.1014
88114W        W88978  25.942  13.690  24.415  0.2165  0.0693  0.1156
88115W        W88979  27.317   8.058  23.222 -0.1302  0.2360  0.0514
88116W        W88980  25.350  10.059  25.693 -0.0907 -0.2353  0.0921
88117W        W88981   2.042  10.209  21.948  0.2319 -0.0237  0.2622
88118W        W88982  26.843   8.657  23.795 -0.0500 -0.1832  0.0059
88119W        W88983  26.855  11.825  25.278  0.1130 -0.1262 -0.3509
88120W        W88984  28.575   6.607  21.268  0.1318  0.1702 -0.0414
88121W        W88985  27.985   6.732  22.207 -0.0529  0.2688 -0.2171
88122W        W88986   1.120  12.890  23.628  0.3654 -0.0649  0.0616
88123W        W88987  27.618   8.520  21.734 -0.2881  0.0642  0.3006
88124W        W88988   0.435   9.398  20.691 -0.1811  0.2372  0.0942
88125W        W88989   0.454  10.290  24.118  0.2371 -0.3120  0.0935
88126W        W88990   1.000   7.092  23.869 -0.0840 -0.3090 -0.0036
88127W        W88991   0.593  10.231  23.647  0.2156 -0.1587 -0.0022
88128W        W88992  27.499  11.458  22.878  0.1856  0.1468  0.1556
88129W        W88993  27.585  10.755  26.734  0.2019  0.3180 -0.2743
88130W        W88994  28.186   6.919  24.249  0.1571  0.2090 -0.0991
88131W        W88995  25.549   8.941  21.084 -0.0843  0.2940  0.0416
88132W        W88996  25.988  10.677  21.689  0.2168  0.0695  0.0312
88133W        W88997  28.501  10.089  22.345 -0.0033 -0.0733  0.0164
88134W        W88998  28.119   8.997  23.810 -0.2450  0.2968 -0.1679
88135W        W88999  28.541   8.931  24.862 -0.0142  0.2186  0.0121
88136W        W89000   0.911  11.090  24.579  0.0604 -0.0948  0.1723
88137W        W89001  28.004  11.968  22.982  0.1541 -0.0135 -0.0710
88138W        W89002   0.420   8.263  24.351  0.0952  0.1494  0.1315
88139W        W89003   0.282   9.507  23.339 -0.0979  0.0182  0.0702
88140W        W89004  26.094   7.238  23.290 -0.2046  0.0286  0.2145
88141W        W89005  28.178  10.492  25.100  0.0876 -0.0559 -0.1904
88142W        W89006   0.955   8.102  21.777  0.0691 -0.0453 -0.1858
88143W        W89007  27.827  11.387  21.409 -0.3945 -0.0026 -0.2205
88144W        W89008   0.206   8.679  21.703  0.0584 -0.0958  0.0039
88145W        W89009  28.483  10.343  22.787 -0.1792 -0.1166  0.2067
88146W        W89010  26.093   9.977  25.851 -0.1426 -0.0620 -0.3910
88147W        W89011   0.818   9.179  22.477 -0.0038  0.1057  0.2359
88148W        W89012  27.965   9.524  22.567 -0.0703 -0.0121  0.0027
88149W        W89013   1.075   9.936  24.486 -0.1626 -0.0583 -0.0332
88150W        W89014   1.626  11.121  25.676 -0.0387 -0.1559  0.0446
88151W        W89015  26.374  10.213  22.372 -0.0149  0.0943 -0.1766
88152W        W89016  28.996  10.250   1.078 -0.2968  0.0503  0.3167
88153W        W89017   0.211  10.327  24.605 -0.0517  0.1556 -0.0354
88154W        W89018  26.906   9.751  26.522  0.2556 -0.2327 -0.1465
88155W        W89019   0.202   8.822  22.271 -0.0204 -0.1389  0.0699
88156W        W89020  27.072  11.672  23.831  0.1418 -0.0902  0.2459
88157W        W89021  25.696  10.130  22.052  0.1566  0.2522  0.0002
88158W        W89022  28.036   6.718  25.782  0.0668 -0.1857  0.2212
88159W        W89023   0.546   8.816  25.077  0.1215  0.0743  0.0728
88160W        W89024  25.463  11.388  21.992  0.4847 -0.0520 -0.1918
88161W        W89025  23.806  12.241  22.529  0.0422  0.1189  0.1077
88162W        W89026  26.392   8.686  21.939  0.0262 -0.0332 -0.0892
88163W        W89027  26.519   7.506  25.445  0.0381  0.2040 -0.1540
88164W        W89028  26.366  10.143  22.859  0.3796  0.2121  0.1302
88165W        W89029  26.922  11.871  20.874  0.2805  0.0627  0.0278
88166W        W89030  28.726  11.234  25.881  0.0323 -0.1065  0.1518
88167W        W89031  28.703   9.015  22.138  0.0812 -0.1705  0.1176
88168W        W89032  27.680   9.544  21.902  0.0214  0.2126  0.1429
88169W        W89033  28.954  11.722  25.334  0.1021  0.2720  0.0101
88170W        W89034   0.278  11.575  24.274  0.1398 -0.0789  0.5321
88171W        W89035  24.655  10.944  22.878  0.3139 -0.5069 -0.0957
88172W        W89036   1.675   8.283  24.001  0.1063 -0.3168 -0.0525
88173W        W89037   0.655  10.417  21.229  0.4064 -0.1129  0.0663
88174W        W89038  26.270  13.100  25.900 -0.1188 -0.2727  0.1958
88175W        W89039  27.148   9.046  23.434  0.1764  0.0252  0.1231
88176W        W89040  28.782   9.086  23.181  0.3238 -0.1651 -0.3362
88177W        W89041  28.575   9.930  23.995  0.2090 -0.0665  0.4102
88178W        W89042  25.610  10.051  24.144 -0.0683  0.1809 -0.3535
88179W        W89043  26.078  12.998  22.195  0.1492 -0.0620  0.2941
88180W        W89044  26.581   9.426  21.380 -0.3170  0.0578 -0.1492
88181W        W89045  27.977   9.639  23.327  0.3155 -0.3084 -0.2848
88182W        W89046  27.805   8.779  26.309  0.0671 -0.0027  0.0848
88183W        W89047  27.831  11.959  26.151 -0.0400 -0.0380  0.1983
88184W        W89048  27.814   9.699  26.703 -0.1725 -0.2806 -0.1307
88185W        W89049   0.348   8.086  28.269  0.0117  0.2230 -0.3069
88186W        W89050  28.280   9.305  25.174 -0.1988  0.2744  0.1247
88187W        W89051  28.639   7.557  23.606 -0.0300  0.1944 -0.0981
88188W        W89052  26.495   8.282  23.811 -0.2264 -0.1669 -0.0912
88189W        W89053  27.450   9.379  25.740 -0.1752  0.0546  0.0868
88190W        W89054  27.204   8.047  25.375  0.1342 -0.2290  0.0637
88191W        W89055  26.016   9.727  20.596 -0.0924  0.1787 -0.2879
88192W        W89056  25.096  11.839  24.653 -0.3987 -0.1976  0.0098
88193W        W89057   0.113  10.347  23.610  0.0998  0.2237  0.2700
88194W        W89058  26.846  10.068  21.565 -0.0088 -0.2285  0.2473
88195W        W89059  28.820  12.227  25.484 -0.2883 -0.1156 -0.1424
88196W        W89060   0.640   5.713  22.704  0.0674  0.1874  0.0926
88197W        W89061   0.218   9.279  22.500 -0.2212 -0.2029  0.1032
88198W        W89062  25.554  11.125  25.798  0.0762 -0.4508  0.0602
88199W        W89063  26.079  11.645  23.094 -0.1912  0.2745  0.1537
88200W        W89064  25.912  10.612  23.497  0.3050  0.0123 -0.1658
88201W        W89065  25.728   8.889  24.047 -0.2744 -0.3993 -0.1116
88202W        W89066  27.562  12.336  23.651 -0.0301  0.0494  0.2617
88203W        W89067   0.633  11.204  24.172  0.0479 -0.2018  0.1654
88204W        W89068   1.733  13.659  21.190 -0.0779  0.1176 -0.0623
88205W        W89069  27.820   8.658  20.885 -0.1128  0.1318  0.1697
88206W        W89070  28.892   7.495  23.064  0.0122 -0.5105 -0.4289
88207W        W89071  27.883  10.525  24.259  0.0580 -0.1605 -0.1255
88208W        W89072  27.283   8.961  22.513  0.0493  0.0139  0.1194
88209W        W89073  26.696   7.518  22.972  0.0426 -0.2115  0.1391
88210W        W89074  25.015  12.085  23.723  0.2586  0.0024  0.2325
88211W        W89075  23.985  10.472  24.863 -0.0415 -0.1247 -0.2297
88212W        W89076  25.834  12.328  23.359  0.1858 -0.2735  0.2186
88213W        W89077  25.860  10.171  22.570  0.1593  0.1422  0.1851
88214W        W89078  28.049  10.979  23.730 -0.0140  0.0789 -0.0482
88215W        W89079  27.083   9.242  24.590 -0.1639 -0.1186 -0.0707
88216W        W89080  27.089  11.603  26.643 -0.0132  0.1950  0.1178
88217W        W89081  28.626   6.239  23.171 -0.2069  0.4677  0.2404
88218W        W89082  27.893   8.825  24.535 -0.1473 -0.1628 -0.1152
88219W        W89083  26.826   8.495  21.173  0.1894 -0.1684  0.0285
88220W        W89084   0.634   7.730  24.491  0.1415 -0.4410 -0.0202
88221W        W89085  28.753   7.475  26.753 -0.1102  0.2495 -0.1533
88222W        W89086  27.447   6.817  22.706  0.0478  0.1446 -0.1831
88223W        W89087  25.760   8.740  26.667 -0.1279  0.3157 -0.0996
88224W        W89088  27.966   8.553  24.115 -0.1049  0.0325  0.1171
88225W        W89089  25.128   7.033  23.440 -0.1226 -0.0565 -0.1440
88226W        W89090  28.678  10.437  25.791 -0.3874  0.1621 -0.0773
88227W        W89091  24.381  10.240  23.594  0.1789 -0.0489 -0.0616
88228W        W89092  26.138   9.130  25.135  0.2262  0.2273  0.0907
88229W        W89093  28.398   9.221  22.866 -0.2249  0.0433  0.0190
88230W        W89094  27.371  11.867  19.451 -0.1202  0.0041 -0.0590
88231W        W89095  25.347   9.614  21.594 -0.1312  0.2075  0.1176
88232W        W89096  28.656  10.225  25.249  0.2669 -0.1963 -0.0789
88233W        W89097  27.012   7.379  22.505 -0.0691  0.1436 -0.1142
88234W        W89098  28.868  11.500  21.973 -0.1689  0.0558 -0.1192
88235W        W89099  27.710   5.129  24.956 -0.2414  0.0611  0.1148
88236W        W89100   0.209  11.159  27.245 -0.3821  0.0282  0.3193
88237W        W89101   1.834   8.311  24.926 -0.3387  0.2750 -0.3325
88238W        W89102  29.014  11.239  23.380  0.1564 -0.0773 -0.2211
88239W        W89103   0.794  12.066  24.549 -0.1995  0.1714 -0.2356
88240W        W89104  25.661  11.119  27.363  0.1623 -0.4859  0.0343
88241W        W89105  27.327  11.186  24.474 -0.1696  0.1058 -0.4851
88242W        W89106   0.121   8.152  25.131 -0.1214  0.0323 -0.1195
88243W        W89107   1.652   9.839  23.466  0.0372  0.0423 -0.1785
88244W        W89108  26.762   8.818  27.223  0.0702 -0.3328  0.0443
88245W        W89109  25.081   8.259  23.598 -0.3424 -0.0268 -0.1778
88246W        W89110   0.062  12.536  22.950  0.1102  0.1530 -0.1140
88247W        W89111  25.998   7.942  26.234  0.1776  0.0452  0.2770
88248W        W89112  27.175  10.717  23.519 -0.2209  0.1572  0.1868
88249W        W89113  28.195   5.103  26.978  0.0730  0.4174 -0.0047
88250W        W89114  28.713  10.421  23.830  0.0409  0.2680 -0.2692
88251W        W89115   0.166   9.099  23.988  0.2607  0.4532 -0.0198
88252W        W89116  25.225   7.187  24.264 -0.0597 -0.4284 -0.1398
88253W        W89117  25.178   8.427  25.760  0.2958 -0.2745  0.3320
88254W        W89118  25.958   9.589  23.283  0.0486  0.1220 -0.0364
88255W        W89119  28.826  11.661  23.311 -0.0141 -0.1335 -0.1227
88256W        W89120  27.021   8.393  24.351 -0.1723  0.2604 -0.2584
88257W        W89121  27.510  12.003  23.085  0.1982  0.3359 -0.0126
88258W        W89122  29.131   9.545  24.194  0.0059 -0.0680 -0.0523
88259W        W89123  28.574   9.496  24.840 -0.0222 -0.2711 -0.0951
88260W        W89124  29.039   9.071  24.457  0.0091 -0.0280  0.2083
88261W        W89125   0.898  12.401  25.856 -0.0298 -0.2106 -0.3891
88262W        W89126  25.826  12.346  20.234  0.1384  0.0848  0.1525
88263W        W89127  28.206  11.443  26.045  0.2256  0.2799  0.3150
88264W        W89128  28.275   9.141  23.373  0.0094  0.0554  0.0086
88265W        W89129  26.853   8.464  22.119 -0.2270 -0.1084 -0.0571
88266W        W89130  27.438   8.938  24.813  0.0355 -0.0938 -0.0468
88267W        W89131  26.306  11.336  22.234  0.2227  0.0947 -0.1040
88268W        W89132   0.583  10.234  25.711  0.1777  0.0138 -0.1388
88269W        W89133  23.539  12.891  26.487 -0.0209  0.2411 -0.1087
88270W        W89134   0.202  10.850  23.103  0.0613 -0.2922  0.0463
88271W        W89135  27.046  11.258  23.440 -0.0505 -0.0671 -0.0433
88272W        W89136  24.688  11.726  22.516 -0.0754 -0.0887 -0.1043
88273W        W89137  24.420  11.470  24.159 -0.2717  0.1634 -0.0714
88274W        W89138   0.327  10.475  28.303 -0.0364 -0.0669 -0.1844
88275W        W89139  28.146   8.816  25.218  0.0743  0.1855 -0.1341
88276W        W89140  28.815  11.441  22.472 -0.2743 -0.0970 -0.5820
88277W        W89141   1.440  10.576  22.877 -0.4415 -0.0787  0.1207
88278W        W89142   0.170  10.337  22.104 -0.2039 -0.0756  0.3802
88279W        W89143  27.372   8.082  24.495 -0.3358 -0.0921  0.3672
88280W        W89144   0.290  11.071  23.712 -0.1682  0.1366  0.0575
88281W        W89145  26.807   9.367  25.244 -0.0788  0.0842 -0.0041
88282W        W89146   0.801   6.908  22.165  0.0494 -0.0648 -0.0454
88283W        W89147  28.472  10.112  28.271  0.4558 -0.2612  0.1568
88284W        W89148  28.718  11.568  24.928  0.2302 -0.1912 -0.1788
88285W        W89149  27.217  10.205  22.836  0.0834  0.1830  0.1266
88286W        W89150  27.197  12.472  24.548  0.0264 -0.1254 -0.3515
88287W        W89151  26.688   8.823  29.039 -0.0398  0.0786 -0.1114
88288W        W89152  28.039   8.322  19.738  0.1764 -0.1732  0.0049
88289W        W89153   3.668   8.402  24.095  0.0663  0.0956  0.2185
88290W        W89154  26.794  10.538  22.283 -0.1750 -0.1202  0.0143
88291W        W89155   0.245  11.005  20.885  0.4353 -0.3790 -0.3283
88292W        W89156  23.722   9.209  22.435  0.1284 -0.1908  0.1793
88293W        W89157  27.929   8.255  24.558 -0.2760 -0.2527 -0.3736
88294W        W89158  27.571  11.114  24.915 -0.3574  0.1315 -0.2411
88295W        W89159  27.327   7.542  21.966 -0.2527 -0.0185 -0.1095
88296W        W89160   0.538  11.330  25.617 -0.1066  0.0273 -0.2023
88297W        W89161  24.838  10.363  26.290 -0.1951  0.1094  0.0580
88298W        W89162  26.922   8.350  25.952  0.0033  0.0971  0.0731
88299W        W89163  27.535   8.563  23.812  0.0638 -0.0386 -0.1749
88300W        W89164  28.650   7.624  21.494  0.1202  0.0532  0.2416
88301W        W89165  24.889  10.957  25.309  0.2925 -0.1035 -0.0357
88302W        W89166   0.311   9.795  23.796  0.1958 -0.1529  0.0256
88303W        W89167  28.654   6.725  25.065  0.1890 -0.1231  0.0043
88304W        W89168   0.319   8.481  23.300 -0.1018  0.3953  0.0457
88305W        W89169  29.124  11.252  28.253 -0.1154  0.1938 -0.1617
88306W        W89170  28.354  11.439  23.288  0.0753  0.0157  0.2402
88307W        W89171  27.726   8.958  27.420 -0.0951 -0.2660  0.1592
88308W        W89172  26.998  12.092  26.499 -0.2992 -0.1291 -0.0427
88309W        W89173  25.967   8.572  25.750 -0.3649 -0.1597  0.0590
88310W        W89174  26.797  10.093  22.672 -0.1453 -0.0701 -0.1595
88311W        W89175   0.967   9.549  20.754  0.3733 -0.2032  0.2466
88312W        W89176  28.442   6.381  25.662  0.0386 -0.0125 -0.0928
88313W        W89177  27.239   7.026  21.903 -0.2577  0.3227  0.1776
88314W        W89178  28.970  11.386  28.755  0.0226  0.1978 -0.0671
88315W        W89179  26.199  12.275  22.258  0.1883  0.2606  0.3412
88316W        W89180  27.025  13.030  21.454 -0.2878  0.1934 -0.0861
88317W        W89181  28.085  10.083  22.531  0.1809  0.0443 -0.0980
88318W        W89182  26.514   9.194  24.798  0.1311 -0.1235 -0.2922
88319W        W89183  26.300   9.660  25.052 -0.2459  0.0872  0.1672
88320W        W89184   0.997   6.221  25.189  0.1812  0.2147  0.1755
88321W        W89185  24.600  12.253  21.514  0.0696  0.1316  0.1331
88322W        W89186  26.160   9.210  22.534  0.0653 -0.0984  0.0607
88323W        W89187  25.132   7.957  27.559  0.1857  0.2782 -0.1244
88324W        W89188   0.712  11.884  26.664 -0.0829 -0.1686 -0.0364
88325W        W89189  29.138  13.347  25.323 -0.3352 -0.0442  0.0012
88326W        W89190   3.762  10.354  24.111 -0.2491  0.0294  0.1318
88327W        W89191  26.215  10.269  24.749 -0.1611  0.1081 -0.0101
88328W        W89192  27.910   9.161  25.497  0.1194 -0.2120  0.1034
88329W        W89193  28.813   7.053  23.695 -0.0566  0.1441  0.2673
88330W        W89194  27.611  10.094  22.008 -0.0866  0.0934  0.1792
88331W        W89195  25.279  12.812  21.376 -0.1614  0.0822 -0.4864
88332W        W89196  26.834   7.685  24.560 -0.3207 -0.1182 -0.0876
88333W        W89197  27.626  10.988  22.701 -0.1383  0.0823  0.0295
88334W        W89198  27.755   7.604  22.449 -0.2570 -0.3051  0.3444
88335W        W89199  27.458  10.329  23.361  0.6250 -0.1448  0.1575
88336W        W89200  25.544  12.348  21.161  0.0981  0.2177 -0.1069
88337W        W89201  29.143  11.604  27.188 -0.1353 -0.0867 -0.4806
88338W        W89202  28.063  10.287  22.050  0.0676  0.0596  0.1295
88339W        W89203   0.238   7.792  24.208  0.1519  0.0381  0.0543
88340W        W89204  25.409  10.450  23.614 -0.0092  0.0223  0.1113
88341W        W89205  28.392   8.553  23.866 -0.1265 -0.1539  0.2380
88342W        W89206  24.490  11.057  25.740  0.3957 -0.1343 -0.0248
88343W        W89207   1.560  12.540  21.508 -0.0183  0.0867 -0.0741
88344W        W89208  25.301   7.933  22.635  0.0486 -0.2597  0.0002
88345W        W89209   2.502   9.324  26.718  0.3117 -0.0171  0.0590
88346W        W89210  26.339   9.064  21.598 -0.0925  0.0306  0.3187
88347W        W89211  24.531  11.810  24.668 -0.1096  0.0634  0.0325
88348W        W89212   0.511  11.251  23.060 -0.0861 -0.1683 -0.2289
88349W        W89213  27.293   9.419  23.659  0.2023 -0.2191  0.4630
88350W        W89214  27.168   8.613  23.147  0.1805 -0.2805 -0.0809
88351W        W89215  26.978   8.831  20.873 -0.0690  0.2476 -0.1960
88352W        W89216  26.339   7.779  23.819  0.3241  0.2177  0.0315
88353W        W89217  27.697   9.910  20.425 -0.0716  0.0589  0.1838
88354W        W89218  28.911  10.089  28.539  0.0490 -0.0902  0.0503
88355W        W89219  27.782  12.404  27.072  0.0533  0.0214 -0.1834
88356W        W89220  27.286   7.824  24.945 -0.0585  0.1345 -0.2896
88357W        W89221  26.554  10.107  28.674  0.0482 -0.2998  0.1147
88358W        W89222  24.805  10.727  22.406 -0.0779 -0.1285  0.1834
88359W        W89223   3.039   9.890  22.042  0.4254  0.0266 -0.1388
88360W        W89224  27.873   8.605  25.587  0.1348  0.2861  0.2393
88361W        W89225  29.048   7.089  24.126 -0.3236 -0.4298  0.0446
88362W        W89226  27.783  10.060  23.581 -0.1133  0.1838  0.0863
88363W        W89227   0.145   9.698  22.868  0.1985  0.0281 -0.4043
88364W        W89228  28.050   8.974  22.564  0.0015 -0.0586  0.0843
88365W        W89229  27.994  14.023  23.975 -0.2049 -0.0647 -0.0765
88366W        W89230  28.170   9.338  24.700  0.0602 -0.2791  0.1791
88367W        W89231  27.648  11.347  23.989 -0.2237 -0.1156  0.1680
88368W        W89232  23.506   7.578  21.379 -0.2484 -0.1807  0.2912
88369W        W89233  27.687   8.643  22.639 -0.0313 -0.0910 -0.3489
88370W        W89234  27.173  11.451  24.981  0.1626 -0.1786 -0.0997
88371W        W89235  26.339   7.934  20.416 -0.1165  0.0263 -0.2323
88372W        W89236  28.683   9.432  26.371  0.2413 -0.1071  0.2629
88373W        W89237  27.468   8.573  20.175  0.1093  0.1027 -0.0749
88374W        W89238  27.985  10.986  27.181  0.1176 -0.2539 -0.0507
88375W        W89239  24.583  10.819  23.772  0.0170 -0.5533 -0.0944
88376W        W89240  27.893  13.518  24.049  0.0228 -0.0472  0.0902
88377W        W89241  27.595   7.930  22.861  0.1097  0.2657  0.1338
88378W        W89242  23.977  11.359  25.048 -0.0105  0.2505 -0.1715
88379W        W89243  28.355  10.951  25.071 -0.0915  0.3464 -0.1697
88380W        W89244  27.784   8.203  22.457 -0.1726  0.0051 -0.1286
88381W        W89245  25.496  11.101  21.515 -0.1634  0.0537 -0.1025
88382W        W89246  26.400  12.154  24.165 -0.0782 -0.0230  0.1786
88383W        W89247  27.251   9.521  24.973 -0.0668 -0.4241 -0.2624
88384W        W89248  28.952   8.985  22.588  0.4367  0.0450  0.1559
88385W        W89249  28.752   6.323  22.129  0.2011 -0.1904  0.0532
88386W        W89250  24.363  13.770  25.012  0.0408  0.4352  0.0891
88387W        W89251   1.276   9.764  25.127  0.1716 -0.2339  0.0646
88388W        W89252  27.804   9.179  24.992 -0.0192  0.0255 -0.2675
88389W        W89253  28.065  10.638  22.562  0.0695 -0.2543 -0.0775
88390W        W89254  28.797   8.880  21.005  0.0179 -0.1180  0.1689
88391W        W89255   0.161   9.054  20.322 -0.3002 -0.3129 -0.0042
88392W        W89256  25.841  11.416  24.520  0.0830  0.1329  0.2322
88393W        W89257   1.684   9.384  22.098  0.0423  0.0645  0.1706
88394W        W89258   2.506  10.061  22.016 -0.1894  0.2451 -0.1311
88395W        W89259   1.041   8.621  25.094 -0.0412  0.5292 -0.4581
88396W        W89260  28.385  10.733  24.050  0.0231 -0.1488 -0.1063
88397W        W89261  25.561   7.090  24.699 -0.1920 -0.0166 -0.1319
88398W        W89262  26.499   9.445  23.793  0.1436 -0.1997 -0.2751
88399W        W89263  27.856  10.888  27.652  0.2897 -0.1028  0.0344
88400W        W89264  27.857  10.637  26.335  0.2714 -0.1328  0.1042
88401W        W89265  24.744   8.957  24.050  0.0739 -0.0069  0.1804
88402W        W89266  28.854   9.985  23.579 -0.1058  0.1267 -0.2766
88403W        W89267  24.511   9.396  23.784 -0.1461 -0.0709  0.0167
88404W        W89268  29.142  10.379  25.076  0.0240  0.0832 -0.1523
88405W        W89269  28.698  10.886  28.789 -0.0718 -0.1432  0.2510
88406W        W89270  29.047   9.534  26.818 -0.0154 -0.1739  0.0416
88407W        W89271  28.132   8.095  24.071  0.1218 -0.2353 -0.0028
88408W        W89272  27.105  10.069  25.844  0.4105  0.1877  0.1279
88409W        W89273  24.831   9.795  23.578 -0.0312 -0.0297  0.1160
88410W        W89274  25.033  10.700  23.382 -0.3651  0.2847 -0.2037
88411W        W89275   0.156   9.514  25.198  0.0468 -0.0192 -0.2626
88412W        W89276  27.259  12.773  27.838  0.2390  0.1904  0.0401
88413W        W89277  25.951   8.418  24.194  0.1686  0.0676  0.2221
88414W        W89278  28.805   9.478  25.294  0.0117 -0.0267  0.1479
88415W        W89279   0.284  11.297  26.066 -0.1566  0.1533 -0.2258
88416W        W89280  26.175  11.984  21.797 -0.0124 -0.0718 -0.0616
88417W        W89281  26.754   9.177  26.790 -0.1699  0.1453 -0.2952
88418W        W89282  27.181  12.586  23.763 -0.0548 -0.1761  0.1493
88419W        W89283  24.577  12.176  24.050 -0.0778  0.1517 -0.0027
88420W        W89284  27.337   9.964  20.079  0.0350 -0.0372  0.0452
88421W        W89285  28.514   8.136  22.846  0.4451 -0.0021 -0.1355
88422W        W89286  27.815  10.255  25.371  0.0454 -0.1121  0.1259
88423W        W89287  26.787  11.403  27.105 -0.0692  0.1911 -0.0630
88424W        W89288  28.074  12.676  26.685 -0.1040  0.1458 -0.1671
88425W        W89289   2.278  11.910   1.138 -0.3924 -0.1395  0.1056
88426W        W89290  27.276   9.348  24.150 -0.1486 -0.2836  0.2233
88427W        W89291  23.210   8.721  26.408 -0.0114  0.0194 -0.2392
88428W        W89292  27.291   8.646  27.225  0.1185  0.0422  0.1545
88429W        W89293  27.520   7.067  28.127  0.2843  0.0651 -0.4179
88430W        W89294  26.784  11.836   0.601 -0.1228  0.0771 -0.1229
88431W        W89295  24.601   5.296  27.915  0.0453 -0.0907 -0.1159
88432W        W89296  25.843   5.767  28.073  0.1237 -0.0146 -0.1455
88433W        W89297  26.688   5.732  26.578 -0.0771  0.0909  0.1769
88434W        W89298   0.888  10.121  26.187 -0.3889 -0.0547 -0.1685
88435W        W89299  26.740  10.476   2.615 -0.5187 -0.3316  0.0156
88436W        W89300  28.540   8.147  28.034 -0.3354  0.1936 -0.2499
88437W        W89301  26.105  11.862   1.096  0.1602  0.2655  0.0038
88438W        W89302  25.433   9.495  25.507  0.4909 -0.0274  0.0836
88439W        W89303  28.235   7.895  26.014 -0.1125  0.0298  0.0391
88440W        W89304  28.538   8.776  28.478  0.0995 -0.1570 -0.0491
88441W        W89305  28.413   7.715  23.043  0.1731  0.0524  0.2773
88442W        W89306  28.892   9.748   1.203  0.2071  0.2267 -0.0123
88443W        W89307  27.607   9.001   0.053  0.2069  0.0507 -0.0265
88444W        W89308  25.819  11.109   0.597  0.1708  0.2188  0.0152
88445W        W89309  26.361   9.358  27.656 -0.0942 -0.0514  0.2805
88446W        W89310  24.327  10.564  26.590 -0.0436  0.2210 -0.1418
88447W        W89311  28.114   7.505  28.665  0.0460  0.3357  0.0157
88448W        W89312  25.530   9.049   0.481 -0.0825  0.0022 -0.0744
88449W        W89313  23.233  11.705  24.140  0.0318  0.0807 -0.1001
88450W        W89314  25.691  10.618  28.439  0.1190 -0.1641 -0.1301
88451W        W89315  26.980   9.096   0.629  0.2198  0.0281  0.0539
88452W        W89316  25.815   8.097  27.009 -0.4446 -0.1392 -0.0591
88453W        W89317  28.431  12.943   0.020  0.1121  0.0837  0.1593
88454W        W89318   0.253   8.791  28.531 -0.0217 -0.0088 -0.2716
88455W        W89319  25.637   7.041  27.806  0.1434  0.1704 -0.2927
88456W        W89320  23.663   9.736  25.447  0.0944 -0.0736  0.0217
88457W        W89321  28.192  11.655   3.095  0.3558  0.3228  0.1644
88458W        W89322  24.723   7.222  26.355  0.0180  0.1077  0.1248
88459W        W89323  25.909   9.417  28.166  0.2266 -0.0636 -0.2965
88460W        W89324   0.801   9.893  27.203  0.3127  0.1480  0.3669
88461W        W89325   1.919   6.139  26.366  0.2071 -0.0077 -0.0176
88462W        W89326  26.492   9.182  25.606  0.0016 -0.0370 -0.2685
88463W        W89327  28.583   9.090  26.786 -0.1675  0.1882 -0.2310
88464W        W89328  27.609  12.535   0.187 -0.1459  0.1669  0.5288
88465W        W89329   0.125   8.984  25.378  0.5298 -0.2295  0.0411
88466W        W89330  23.369   9.623   0.155 -0.0477  0.0141  0.1242
88467W        W89331  25.349  10.104  25.157 -0.2741  0.1409 -0.0868
88468W        W89332  25.126   7.645  28.258 -0.2801 -0.1991 -0.0868
88469W        W89333   0.442  10.236   2.461 -0.1660 -0.2201 -0.1671
88470W        W89334  26.471   8.680  25.863 -0.1560  0.0876 -0.2364
88471W        W89335   0.424   9.999  26.810 -0.0074  0.3356  0.1525
88472W        W89336  25.646   9.191  26.810 -0.1117 -0.2529 -0.0152
88473W        W89337  26.111   8.137  29.112  0.0170 -0.0012 -0.1509
88474W        W89338   0.955  10.924  28.888 -0.2442 -0.4176 -0.2481
88475W        W89339   0.449   7.811  25.417  0.4857  0.0830  0.1596
88476W        W89340  25.545   8.483  25.442 -0.2497  0.0232  0.0466
88477W        W89341  27.619  10.840  24.004  0.1806 -0.1878 -0.3147
88478W        W89342  26.769   7.654  28.121  0.0891  0.1399 -0.1500
88479W        W89343  26.729   5.948  26.021  0.0485 -0.1268  0.3164
88480W        W89344  29.063  10.190  26.610 -0.1011  0.0437  0.2248
88481W        W89345  27.181  11.117  23.953  0.4053 -0.0320  0.0710
88482W        W89346  28.953  10.097  26.011 -0.1099  0.0639  0.3917
88483W        W89347  25.439   8.048  28.399  0.0540 -0.3716  0.1511
88484W        W89348  27.470  11.056  27.270 -0.3037 -0.0883 -0.2023
88485W        W89349  27.711  10.369  27.506  0.3138  0.1197 -0.3079
88486W        W89350  26.889   7.474  27.655 -0.2124 -0.0880  0.0931
88487W        W89351   0.307   9.410  26.626  0.2476 -0.2471  0.2945
88488W        W89352  23.016   7.036  25.719 -0.2371  0.0707  0.0694
88489W        W89353  26.759  11.058  22.235  0.1898 -0.0009  0.0244
88490W        W89354  26.381   8.285  26.122  0.3718 -0.0325 -0.2107
88491W        W89355   0.131   8.199  26.043 -0.0954  0.2983 -0.0196
88492W        W89356   0.143   9.653   0.933 -0.4660  0.0052 -0.1482
88493W        W89357  28.704   6.776  24.074 -0.1983 -0.0233  0.1071
88494W        W89358   1.989  11.628  25.520 -0.1629 -0.0389 -0.1869
88495W        W89359  28.868   8.002  27.686  0.0256 -0.0083 -0.0354
88496W        W89360   0.100   9.017  27.000  0.3196  0.0766 -0.0207
88497W        W89361  27.759  10.552  27.999 -0.3227 -0.2559 -0.1371
88498W        W89362  27.998   8.587  23.543 -0.0148 -0.1084  0.0130
88499W        W89363  26.894   8.190   0.883  0.0399 -0.0110  0.2297
88500W        W89364  28.387   8.744  25.664  0.3550 -0.0332 -0.0613
88501W        W89365  26.442   8.702  24.783 -0.1808 -0.0873  0.0264
88502W        W89366  24.378   5.650  25.970 -0.2818  0.4887  0.0942
88503W        W89367  26.283   9.553   0.390  0.0436 -0.1458 -0.1734
88504W        W89368  25.764   5.496  26.604  0.0768 -0.2356  0.1376
88505W        W89369  27.154   7.810  25.851  0.1020 -0.0855 -0.2407
88506W        W89370  27.470   8.945  28.639  0.1357  0.4317 -0.0267
88507W        W89371  28.732   7.613  27.291 -0.2026  0.0418 -0.3216
88508W        W89372   0.619  11.762  29.109 -0.0052 -0.1124 -0.0268
88509W        W89373  27.327   7.552  26.835 -0.1460  0.0281  0.3493
88510W        W89374   0.010   8.972  27.504 -0.0152  0.1967 -0.1582
88511W        W89375  28.862   9.104  27.956 -0.3343 -0.1329 -0.1920
88512W        W89376   1.299   9.054  26.239  0.0051 -0.1505 -0.1807
88513W        W89377  27.284   8.866  27.658  0.2497 -0.1584 -0.1072
88514W        W89378  27.353  11.857  26.975  0.1466  0.0142 -0.0430
88515W        W89379  25.680   8.906  25.288 -0.0473  0.0520 -0.0503
88516W        W89380  24.949   5.394  24.900 -0.0931  0.0978  0.0190
88517W        W89381   0.435   7.774  25.931 -0.2252 -0.0602  0.0531
88518W        W89382   0.110  11.500  29.126 -0.2778  0.1244  0.0697
88519W        W89383  25.604   8.956  28.256  0.1089 -0.0335 -0.1079
88520W        W89384  25.200   9.227  27.088  0.0005 -0.2859 -0.0766
88521W        W89385  29.046   5.933  26.966  0.3005 -0.0175  0.0508
88522W        W89386  28.364   9.659  29.119 -0.1922 -0.0383  0.0676
88523W        W89387  26.514   9.622  26.997  0.1565  0.1627  0.0127
88524W        W89388  28.231   7.088  26.534 -0.3395  0.1003  0.2063
88525W        W89389   1.941  11.015   0.372  0.0699  0.1065 -0.1177
88526W        W89390   0.521   7.681  27.472  0.3333  0.0364  0.0577
88527W        W89391  28.598   9.571   1.546  0.0850  0.2437 -0.1521
88528W        W89392  27.696  11.438  25.797 -0.2342  0.0396  0.1855
88529W        W89393  28.605   9.041   1.446 -0.2947 -0.1387 -0.0992
88530W        W89394  26.965   9.211   1.645  0.3560  0.3980  0.1003
88531W        W89395  27.388   9.158  26.202 -0.0448  0.0848  0.2329
88532W        W89396  24.461   9.986  28.257 -0.4515 -0.0023  0.1738
88533W        W89397  28.564   9.475  27.709 -0.2576 -0.2207  0.0219
88534W        W89398   0.596   8.276  25.872  0.0502  0.0517 -0.0243
88535W        W89399  27.482  11.258  27.800 -0.0892 -0.2064 -0.2731
88536W        W89400  26.955   9.696  23.969 -0.4159  0.1571  0.0849
88537W        W89401  25.889   6.758   0.477  0.0335 -0.1939 -0.2133
88538W        W89402  29.116   7.505   0.475 -0.0557  0.0179 -0.0556
88539W        W89403  27.287   9.624   0.115  0.0121  0.1783 -0.1261
88540W        W89404  27.261   9.103  25.316 -0.0204  0.2265  0.0453
88541W        W89405   1.183   8.877  28.787  0.1027  0.1334 -0.2697
88542W        W89406  26.779   7.099  25.553  0.5287 -0.0409 -0.0863
88543W        W89407  26.494  10.460  29.037  0.1066 -0.0775  0.2044
88544W        W89408  28.266   9.009  26.422  0.1692 -0.2426  0.0204
88545W        W89409  28.072  13.276  27.746 -0.0467  0.2097  0.2570
88546W        W89410  26.552   7.952  28.971  0.1483  0.2566  0.2332
88547W        W89411  26.638   8.427  26.830 -0.1730  0.4608 -0.1713
88548W        W89412   0.118   7.726  26.421 -0.0493  0.3122  0.1709
88549W        W89413   0.033  10.021  29.012  0.0462  0.1188  0.0509
88550W        W89414  24.932   9.841  28.208  0.2764 -0.1061  0.1603
88551W        W89415  27.561  11.920   0.237  0.1765 -0.0689  0.3774
88552W        W89416   0.599   6.015  27.442 -0.1188  0.0305 -0.3053
88553W        W89417  28.212  10.350   1.540  0.2270  0.1618 -0.3036
88554W        W89418  28.897   6.273  26.135  0.0673 -0.0854  0.3638
88555W        W89419   0.038   7.382  27.022 -0.0706 -0.0579  0.1046
88556W        W89420  23.790   9.703  28.383 -0.0591  0.0817  0.4774
88557W        W89421  27.419   9.358  28.373  0.1212 -0.1397  0.1259
88558W        W89422  28.748   8.360  24.761  0.0317 -0.1709  0.1977
88559W        W89423  27.965  11.874   2.549 -0.0807  0.1670 -0.0725
88560W        W89424  24.520   9.675  25.838  0.3460 -0.3599  0.1787
88561W        W89425  24.506   9.173  25.974 -0.0052 -0.0871  0.0482
88562W        W89426  26.997   9.073  28.492  0.0601 -0.2893 -0.2671
88563W        W89427  25.603  11.613  24.926  0.0440 -0.1806  0.0586
88564W        W89428  27.858   9.227  26.555  0.2376  0.3304  0.0572
88565W        W89429  26.757   9.307  27.285  0.2086 -0.1648 -0.0913
88566W        W89430  27.774   8.120  23.547  0.0281 -0.2671  0.2495
88567W        W89431   0.351   7.818  28.862 -0.0033 -0.3743 -0.0358
88568W        W89432  25.943   8.795  28.669  0.0482  0.0848  0.0372
88569W        W89433  26.619   9.271  28.725  0.3047 -0.1561 -0.0611
88570W        W89434   0.360   7.777   0.273  0.0394 -0.0680  0.2102
88571W        W89435   0.341  12.224  27.826 -0.3242  0.1044  0.0940
88572W        W89436  26.436   9.094  26.118 -0.1703  0.3537 -0.2873
88573W        W89437  26.635   9.638  27.921 -0.2301 -0.2150 -0.1262
88574W        W89438  27.752   7.880  26.304 -0.0562 -0.1301  0.4031
88575W        W89439  26.211  10.022  27.713 -0.1710 -0.0736 -0.0323
88576W        W89440  26.864   7.799  26.798  0.0793 -0.2998 -0.0612
88577W        W89441  22.686   8.031  26.865 -0.0755  0.2341 -0.1692
88578W        W89442   0.400   7.802  26.849 -0.0285 -0.0044  0.2865
88579W        W89443  22.930   7.760  26.447  0.3827 -0.0082 -0.3980
88580W        W89444  26.203  10.468  25.591  0.0667 -0.1533 -0.0905
88581W        W89445  28.379   9.059   0.708 -0.2846  0.1907 -0.1472
88582W        W89446  28.775  13.345  28.388  0.2022 -0.1644  0.0398
88583W        W89447  26.712  10.806   0.764  0.3538  0.1551  0.2876
88584W        W89448  28.665  10.423   0.733 -0.0489 -0.0978 -0.1870
88585W        W89449  26.586   9.272   3.142  0.0626 -0.3315 -0.1232
88586W        W89450  25.613   9.274  25.015  0.0010 -0.1185  0.1469
88587W        W89451  24.534   8.974  28.040  0.0576  0.2462 -0.0836
88588W        W89452  25.741  10.846  25.409 -0.0573  0.0263 -0.1476
88589W        W89453   1.171  11.103  27.377 -0.1791  0.0424  0.0060
88590W        W89454  25.913   7.501  27.824  0.1596  0.3893 -0.0605
88591W        W89455   0.863   8.452  27.700 -0.2852  0.3611 -0.1016
88592W        W89456   0.987  11.592   0.599 -0.3217 -0.2275  0.0898
88593W        W89457  25.704   8.168  27.995  0.0767 -0.4610 -0.0525
88594W        W89458  26.863  11.812  24.769 -0.0186 -0.0468  0.0832
88595W        W89459  26.718   6.534  27.352 -0.2344 -0.1438  0.1396
88596W        W89460   0.012   8.669  26.687 -0.0097 -0.0381  0.1563
88597W        W89461  26.519  10.956  27.363 -0.2396 -0.0789 -0.0173
88598W        W89462  28.602   8.310  25.856 -0.2554 -0.2933  0.0658
88599W        W89463  24.993  11.616  26.368 -0.1274 -0.0988  0.2521
88600W        W89464  28.562   8.211  28.578  0.0388  0.0231  0.3161
88601W        W89465  26.074  10.856  28.076 -0.2461  0.1892 -0.1581
88602W        W89466   2.851  10.657  27.754  0.2002 -0.1772 -0.0735
88603W        W89467  25.558   9.779  26.414  0.3588  0.3229 -0.0768
88604W        W89468  25.626   9.561  23.963  0.0932  0.1978  0.3440
88605W        W89469  27.694  10.039  27.151  0.1941 -0.2312  0.0386
88606W        W89470  28.504  12.396  28.844 -0.1063  0.1764 -0.2291
88607W        W89471  26.615   7.458  24.018 -0.2738 -0.0935 -0.0353
88608W        W89472  26.162   7.525  24.276 -0.1359 -0.0321 -0.3883
88609W        W89473  26.124   7.936  27.645  0.0093  0.1584 -0.0074
88610W        W89474  23.341   8.751  25.221 -0.0379 -0.0456  0.1887
88611W        W89475  25.711  10.332  26.110  0.0032 -0.1894  0.1833
88612W        W89476  25.999   8.406  27.417 -0.0772  0.0025 -0.1228
88613W        W89477  28.512   8.529   0.890  0.0372  0.1014 -0.0166
88614W        W89478  26.811   8.981   2.729 -0.0956  0.2835  0.1288
88615W        W89479  27.245   5.494   0.117 -0.0371 -0.1006 -0.0328
88616W        W89480  26.490   8.324  27.486 -0.1016  0.3171  0.0866
88617W        W89481  25.746   6.299  26.646 -0.1546 -0.2868 -0.2035
88618W        W89482  26.369   6.456  28.712  0.0356  0.0104 -0.2238
88619W        W89483  23.542   7.393  26.783  0.3574 -0.0594 -0.1214
88620W        W89484   0.629   8.580   1.340  0.3225  0.1639  0.1396
88621W        W89485  27.078  10.092  28.533 -0.0187 -0.1636 -0.0590
88622W        W89486  28.254   6.889  28.839  0.0462  0.0413  0.3888
88623W        W89487  28.287   8.151  25.475  0.0212  0.1045  0.4470
88624W        W89488  22.651   7.887  27.489  0.1383  0.1220  0.0926
88625W        W89489   0.550   7.130  27.247  0.0479  0.0262  0.2131
88626W        W89490  24.732   9.300  22.086 -0.0337 -0.0468 -0.3501
88627W        W89491  25.897  10.394   0.262 -0.3229 -0.1156 -0.2131
88628W        W89492  26.503   9.052   1.400 -0.3250 -0.0022 -0.0626
88629W        W89493  28.250  11.743  29.104  0.0809  0.1672  0.1557
88630W        W89494  23.898   9.421  24.649 -0.4302  0.1618 -0.1372
88631W        W89495  26.663  10.226  27.663  0.3513 -0.0405 -0.1037
88632W        W89496  25.079   8.903  26.040 -0.2266 -0.4477  0.1148
88633W        W89497  26.909  10.152  29.032 -0.1011  0.1152 -0.0029
88634W        W89498  26.312   8.814  27.563  0.1600 -0.2055 -0.0108
88635W        W89499   3.186  10.917   1.029 -0.1163 -0.1252 -0.0658
88636W        W89500  28.793   7.037  26.348 -0.2160 -0.1661 -0.1028
88637W        W89501  26.754   8.382  28.653 -0.0510  0.0173 -0.1170
88638W        W89502   0.185  10.513  26.130 -0.2026  0.0234  0.1595
88639W        W89503  26.605   8.622   0.675  0.2147  0.3368 -0.2967
88640W        W89504  25.024  12.706  29.107 -0.2886  0.0683 -0.1685
88641W        W89505  27.544   9.834  28.551 -0.1700  0.1848  0.0637
88642W        W89506   0.120   9.923  28.148 -0.1980 -0.0765 -0.1604
88643W        W89507  26.764   9.075  27.728  0.1656  0.0600  0.4395
88644W        W89508  28.789   8.062  25.299  0.0071 -0.0688  0.1271
88645W        W89509   5.704  12.707  27.272  0.0141  0.3557  0.3659
88646W        W89510  26.291   8.522  28.865 -0.0651  0.0904 -0.3370
88647W        W89511  26.241  10.955   0.871  0.0356  0.0615 -0.4901
88648W        W89512  28.351   9.234  27.197  0.0689 -0.0903 -0.0363
88649W        W89513  27.201  10.096  27.298  0.1799  0.0482 -0.0076
88650W        W89514  26.410  12.557   0.245 -0.2083 -0.0144  0.1233
88651W        W89515  28.049   6.628  27.361  0.0094  0.2128 -0.0599
88652W        W89516  27.307   9.654   0.734 -0.3487  0.1919 -0.0050
88653W        W89517  27.517   8.533  24.395  0.1873  0.0944  0.2922
88654W        W89518  27.449   8.161  27.478 -0.0341  0.0096  0.1789
88655W        W89519  26.655   6.051  27.008  0.0533 -0.0501 -0.1966
88656W        W89520  28.550  10.332  27.265 -0.2518  0.3383 -0.1398
88657W        W89521  27.347   7.795  23.716 -0.0678  0.0380  0.4126
88658W        W89522  26.764   9.729  28.889 -0.2584  0.0903 -0.0309
88659W        W89523  27.479   8.118  29.028 -0.0546  0.0675 -0.0138
88660W        W89524  27.348   9.994  26.736  0.0934  0.0484 -0.3631
88661W        W89525  24.855  10.234  28.497  0.0653 -0.0648  0.0122
88662W        W89526  25.527  13.077   0.280 -0.2884 -0.1146 -0.1263
88663W        W89527  27.827   8.296  26.073 -0.0497  0.1418 -0.0076
88664W        W89528  26.345   7.265  25.058 -0.2683  0.1640  0.2182
88665W        W89529  28.226   8.216  27.001  0.4060  0.1832 -0.0814
88666W        W89530  26.618  10.817  25.472 -0.2098 -0.0429 -0.0449
88667W        W89531  28.621  11.907  28.771 -0.0283  0.5521  0.2631
88668W        W89532  24.535  10.445  28.088 -0.2889  0.3078  0.1362
88669W        W89533   4.623  11.336  25.891 -0.0841 -0.0264  0.3260
88670W        W89534  26.984   8.185  27.202 -0.0032  0.1598  0.0988
88671W        W89535  24.665   8.380  26.302 -0.0520  0.1331 -0.2472
88672W        W89536  26.240   9.476  25.922  0.1086  0.0332 -0.1139
88673W        W89537  27.263  11.554   0.549  0.0558  0.1007 -0.0456
88674W        W89538  28.945  10.706   0.177 -0.3266 -0.1164  0.2747
88675W        W89539  25.807   9.324  26.341  0.1749  0.2779  0.1468
88676W        W89540   0.106  11.308  27.799 -0.0265 -0.1330 -0.1396
88677W        W89541  28.316   5.939  23.988  0.0879 -0.2553  0.1357
88678W        W89542  25.372   8.874  27.506  0.0714  0.1267 -0.1870
88679W        W89543   2.213  10.778  24.945 -0.1405 -0.1432 -0.3796
88680W        W89544  26.666   7.706  27.321  0.3366  0.0868  0.2989
88681W        W89545  27.550   9.222  27.866 -0.2535  0.2165  0.2331
88682W        W89546  27.779   8.693  28.329 -0.0742 -0.0202 -0.4230
88683W        W89547   1.848  12.800  27.329 -0.0754 -0.0830  0.1936
88684W        W89548  26.825   9.472   0.153 -0.1586  0.0414 -0.1214
88685W        W89549  22.644   9.647  25.643 -0.2302  0.0011 -0.2171
88686W        W89550  25.089  10.502  24.996 -0.1443  0.3608 -0.0830
88687W        W89551  24.402  11.930  25.621 -0.2378  0.1429 -0.2127
88688W        W89552  28.017   9.602  27.192 -0.2965  0.1722  0.0735
88689W        W89553  23.983   8.342  28.470 -0.0093  0.1372  0.1911
88690W        W89554  28.690   9.649  25.810 -0.0737  0.2407  0.0062
88691W        W89555  26.919   8.338  26.461  0.3766  0.0328  0.4004
88692W        W89556  26.022   7.930   0.450 -0.2506 -0.0406 -0.1934
88693W        W89557  27.774   8.534  27.661  0.0172  0.1957 -0.0251
88694W        W89558  26.477   9.950  26.190  0.3047  0.0538 -0.1439
88695W        W89559  28.827  11.869   0.557 -0.1927 -0.0819  0.3522
88696W        W89560  28.553   7.662   1.328  0.0089 -0.0142  0.0665
88697W        W89561  27.189   5.055  27.439 -0.2243  0.0714  0.5467
88698W        W89562  27.269   9.625  26.133 -0.0324  0.0472  0.2138
88699W        W89563  24.193   6.742  25.184  0.1095 -0.0445  0.1329
88700W        W89564  27.162   9.632  27.043 -0.2710 -0.2062  0.1492
88701W        W89565  28.815   9.318  27.326 -0.1080 -0.0476  0.0690
88702W        W89566  26.377   9.632  25.508  0.1126 -0.1499  0.4500
88703W        W89567  25.809   9.945  28.164 -0.4064  0.0830 -0.0166
88704W        W89568  23.939  11.213  23.736 -0.0699 -0.0126  0.1252
88705W        W89569   1.639  10.521  28.083  0.1194 -0.1056  0.0436
88706W        W89570  27.828   9.771   0.078  0.0385  0.2229 -0.0622
88707W        W89571  26.419  12.461  28.069 -0.1605  0.1852 -0.2577
88708W        W89572  25.223  11.122  26.208 -0.1309 -0.0661  0.0973
88709W        W89573   0.077   9.718  25.806 -0.3054 -0.0371  0.2075
88710W        W89574  27.794   8.249  26.619 -0.0824 -0.0558  0.0238
88711W        W89575  26.863   9.302  26.321  0.0885 -0.1875  0.0125
88712W        W89576  26.491   6.381  25.084 -0.2221  0.0269 -0.0682
88713W        W89577  26.505   9.945   0.124  0.2431  0.0748 -0.1689
88714W        W89578  27.604   7.706  27.683  0.1870 -0.0181 -0.0606
88715W        W89579  25.795  10.583  24.580 -0.0710 -0.1315 -0.1457
88716W        W89580  28.522   8.180   0.183 -0.3298 -0.2763 -0.0494
88717W        W89581  27.256   8.308   0.291 -0.0768  0.1945 -0.2562
88718W        W89582   1.188   9.329  28.978  0.2563  0.3141  0.0774
88719W        W89583  29.060   8.450  28.678  0.0942 -0.3239 -0.2625
88720W        W89584  23.970  12.093  25.388 -0.0552 -0.0489 -0.1418
88721W        W89585   0.287   9.988  23.226 -0.0105 -0.0483 -0.1383
88722W        W89586  25.421   7.030   0.410  0.0851 -0.0986  0.1357
88723W        W89587  25.494  10.977  28.866  0.1571 -0.0489  0.1557
88724W        W89588  26.599   7.057  27.966  0.1119 -0.0195 -0.1452
88725W        W89589  27.648   9.660  28.071 -0.0222 -0.0982  0.2652
88726W        W89590  28.558   9.013   0.196  0.1223 -0.0101  0.0487
88727W        W89591  25.574   7.717  25.044 -0.0206 -0.3026 -0.0398
88728W        W89592  28.953   7.319  28.322 -0.0476 -0.4005  0.0945
88729W        W89593  26.497   7.448  26.916  0.1525 -0.3412  0.1249
88730W        W89594  28.125   8.481  28.651 -0.0081 -0.0928  0.0287
88731W        W89595  26.226   8.619  26.963 -0.1466 -0.1970  0.0808
88732W        W89596  26.210   8.141  25.672 -0.0554  0.3322 -0.3107
88733W        W89597  28.571   9.648  28.621 -0.0698  0.2835 -0.1058
88734W        W89598  25.177   9.223   1.289  0.1231  0.1137  0.1813
88735W        W89599  28.021  10.495  27.103 -0.1457  0.1003 -0.1012
88736W        W89600  23.338   6.900  26.348 -0.2545 -0.0127  0.1043
88737W        W89601  24.593  10.545  25.860 -0.2036 -0.3970  0.3184
88738W        W89602  26.366  11.153  28.383  0.0129 -0.1393  0.1591
88739W        W89603  27.149   8.851  24.271 -0.1914  0.0422 -0.3464
88740W        W89604  26.450   8.488  28.246  0.2234 -0.3144  0.2263
88741W        W89605  27.418   8.456  26.287  0.0313  0.2199  0.1999
88742W        W89606  25.173   9.350   0.066 -0.0408 -0.2809  0.0187
88743W        W89607  25.626   7.891  27.461  0.0738  0.3092 -0.2033
88744W        W89608  25.413   8.833  24.442 -0.0735  0.0382 -0.1074
88745W        W89609  25.844  10.289  27.450 -0.0569  0.3927 -0.1518
88746W        W89610  26.517   9.064   0.372 -0.2685 -0.2749 -0.2549
88747W        W89611  25.421   9.724  24.833  0.1464  0.0818 -0.1039
88748W        W89612  27.509   7.994  27.032 -0.0464 -0.2108  0.3740
88749W        W89613  24.564   9.419  24.298  0.1947  0.0778 -0.2007
88750W        W89614  25.146   5.718  28.633 -0.2926 -0.1873  0.0917
88751W        W89615  28.969   9.383  23.666 -0.1162 -0.0323  0.0127
88752W        W89616  29.129  10.480   0.643 -0.1249 -0.0811  0.2955
88753W        W89617  27.766  11.797  28.972  0.1181  0.0465 -0.3873
88754W        W89618  28.144  10.382   0.427 -0.1504 -0.1177  0.2823
88755W        W89619   2.206  10.299  28.952  0.3020  0.1204  0.0084
88756W        W89620  25.726  10.293  25.493  0.0759 -0.1454 -0.0058
88757W        W89621  28.794  10.570  28.309 -0.1920 -0.0332 -0.1623
88758W        W89622  28.162   7.769   0.252  0.1403  0.1674  0.0669
88759W        W89623  26.313   6.784  28.326 -0.0329  0.1023 -0.2550
88760W        W89624  25.375  10.221  24.678 -0.0798  0.1990  0.0052
88761W        W89625  27.889   9.947   0.658  0.0287 -0.1277  0.1265
88762W        W89626  25.915   6.837  27.374  0.1274  0.1654  0.3652
88763W        W89627  27.561  11.698  26.488 -0.0396  0.3272 -0.0349
88764W        W89628  27.140   9.111  28.967 -0.3750  0.1764 -0.0359
88765W        W89629  24.816   8.963  26.972 -0.6212 -0.4406  0.2396
88766W        W89630  25.820  10.021  24.857  0.0857 -0.0259  0.3050
88767W        W89631  25.335   5.887  28.046  0.2828  0.1088  0.0205
88768W        W89632  28.313   8.731  27.240  0.1709  0.0653  0.2177
88769W        W89633  27.923   9.045  27.015  0.1429 -0.2022  0.0948
88770W        W89634  28.866   9.617  28.181  0.1908  0.3705  0.0999
88771W        W89635   0.463   9.437  24.836 -0.0659  0.0847  0.0003
88772W        W89636  27.105   7.953  27.758 -0.3112 -0.0088  0.3193
88773W        W89637  28.461   9.203  28.771 -0.2229 -0.4766  0.0427
88774W        W89638  27.375  10.772  27.690  0.1706  0.1492  0.2767
88775W        W89639  26.717   8.315  25.138 -0.2676 -0.2834 -0.3536
88776W        W89640  25.757  11.140  26.285 -0.1844 -0.0624  0.0886
88777W        W89641  26.458   8.035   0.669 -0.0623 -0.0096 -0.0161
88778W        W89642  27.654   9.399  28.829  0.2513  0.4091  0.0189
88779W        W89643  25.466   7.350   0.033 -0.3829 -0.2134 -0.0724
88780W        W89644  27.892  10.895  23.247  0.1016 -0.4578 -0.0542
88781W        W89645  27.382   8.885  28.164  0.1328 -0.0615 -0.2744
88782W        W89646  25.063   9.013  28.010  0.1937 -0.0227 -0.2623
88783W        W89647  27.020   7.202  28.303 -0.0303 -0.1248  0.1170
88784W        W89648  26.163  11.286  27.113 -0.0428 -0.2807  0.0412
88785W        W89649  27.492  10.565   0.198  0.0415  0.4137  0.2406
88786W        W89650  27.200  10.934   0.371 -0.1922 -0.2156 -0.0799
88787W        W89651  26.135  10.704  24.976 -0.1582  0.1311  0.2777
88788W        W89652  25.112   7.137  27.850 -0.1625 -0.0359 -0.1761
88789W        W89653   0.701  10.179  24.699 -0.1327 -0.0362 -0.0687
88790W        W89654  24.920  11.931  25.529 -0.0447 -0.1411 -0.0879
88791W        W89655   0.049   6.798  26.115  0.1365 -0.0453 -0.0014
88792W        W89656  25.979  11.692  28.395 -0.2414  0.1345  0.1410
88793W        W89657   2.445   9.837   1.574 -0.1015  0.0129 -0.1744
88794W        W89658  27.084  10.603  28.977 -0.2220 -0.2530 -0.1533
88795W        W89659   0.024   9.642   1.718 -0.3383  0.3383  0.1834
88796W        W89660  28.898   8.887  28.899 -0.2825  0.0034 -0.0434
88797W        W89661   2.810   9.471   0.203 -0.0017  0.3782 -0.1893
88798W        W89662  27.936   9.337  28.280  0.0363 -0.3139 -0.1089
88799W        W89663  24.778   8.827   0.593 -0.1414 -0.2484  0.1653
88800W        W89664  28.271   8.436  27.664 -0.1301  0.2339  0.0599
88801W        W89665  24.871  10.419  24.499 -0.0002  0.1119 -0.1264
88802W        W89666  26.330  10.278  27.289  0.1509  0.0379 -0.0783
88803W        W89667  27.489  10.074  28.971 -0.0657  0.0058 -0.2865
88804W        W89668  27.932  11.005  25.835 -0.0544  0.3318  0.0579
88805W        W89669  26.996  12.233   0.863  0.1183  0.0747  0.0949
88806W        W89670  28.423  10.832   0.398 -0.0270  0.3214 -0.2452
88807W        W89671  27.851  11.274  28.893 -0.0518 -0.3309 -0.0267
88808W        W89672  27.654   9.595  25.280 -0.2652  0.0669  0.0145
88809W        W89673  28.897   9.730   0.174 -0.2992  0.1661  0.1330
88810W        W89674  25.351   9.105  28.708 -0.1645 -0.1803  0.0696
88811W        W89675  25.799  11.100  24.886 -0.1160  0.1541  0.0074
88812W        W89676   0.267  12.103  25.284  0.3302  0.2224  0.3714
88813W        W89677   3.208  12.094  28.489 -0.1717 -0.0138  0.0555
88814W        W89678  27.056   8.816  26.596  0.1529  0.1982  0.0308
88815W        W89679  27.377  10.018   3.263 -0.3457  0.1916  0.0356
88816W        W89680  28.495  10.060  26.124  0.2050 -0.0865 -0.0802
88817W        W89681  27.100   6.155  28.495  0.1087  0.0224 -0.2877
88818W        W89682  27.968  10.527  28.619 -0.1988 -0.0627  0.1321
88819W        W89683  25.289  10.748  24.578 -0.0943 -0.0545 -0.1617
88820W        W89684  28.146  13.260   4.069 -0.3202  0.1399  0.2237
88821W        W89685  28.128  14.253   5.367  0.3219  0.0785 -0.0364
88822W        W89686   3.721  13.177   1.031  0.2021 -0.0942 -0.0169
88823W        W89687   2.302  14.400   3.421 -0.4360  0.0483  0.0169
88824W        W89688  25.162  13.342  28.300 -0.1040  0.1413 -0.1399
88825W        W89689  27.375  12.960   3.041  0.0282  0.2583  0.0112
88826W        W89690  27.674  12.647   1.991 -0.0290 -0.0315  0.1492
88827W        W89691  26.837  13.855   1.998  0.1246 -0.0423  0.1474
88828W        W89692  28.745  13.660   1.747 -0.2405  0.1710 -0.1818
88829W        W89693  25.426  10.594   4.533 -0.0298 -0.3623 -0.0062
88830W        W89694  24.767  11.743   3.461 -0.0136 -0.1245 -0.1511
88831W        W89695  28.440  12.902   1.620  0.0530  0.4332 -0.1419
88832W        W89696  28.992  12.149  29.032 -0.1983 -0.0014 -0.1994
88833W        W89697  29.009  12.322   5.796 -0.1211 -0.0301 -0.2923
88834W        W89698  26.634  10.154   0.595 -0.1681 -0.1475 -0.1312
88835W        W89699  24.880  12.638   4.500  0.1945  0.2740  0.1746
88836W        W89700   0.808  13.111   1.764 -0.0254 -0.0489  0.0277
88837W        W89701  27.483  13.826   1.114 -0.0573 -0.1017  0.2523
88838W        W89702  27.358  12.953   5.369  0.0651  0.4005  0.1873
88839W        W89703  27.295  12.440   3.096  0.0545 -0.2368 -0.5486
88840W        W89704  28.611  13.079   3.827 -0.0111  0.1189 -0.3120
88841W        W89705   2.480  12.277   2.101  0.0934 -0.1665  0.3506
88842W        W89706   2.218  13.717   1.982  0.1777  0.0954 -0.0334
88843W        W89707   0.499  13.573   2.651  0.0029  0.1340  0.1568
88844W        W89708  26.845  13.170   5.115 -0.3040 -0.0796 -0.0313
88845W        W89709  29.135  16.130   5.004  0.2651 -0.2130 -0.1797
88846W        W89710  27.881  11.083   4.138 -0.0600  0.3153 -0.2674
88847W        W89711  26.880  14.314  28.977  0.2383  0.3150  0.1796
88848W        W89712  27.554  12.628   3.877  0.2101 -0.2280  0.2530
88849W        W89713  26.493  13.382   2.670 -0.1304  0.2696 -0.0749
88850W        W89714  28.075  12.611   0.293 -0.0821  0.0896  0.2575
88851W        W89715   1.254  16.098   4.472  0.0979 -0.1188 -0.0269
88852W        W89716  28.728  10.753   3.901  0.0282  0.2538 -0.0978
88853W        W89717  28.839  14.189   3.507 -0.3669  0.0643 -0.3054
88854W        W89718  26.333   9.710   5.868  0.0378 -0.0125 -0.0982
88855W        W89719   2.197  13.009   7.086  0.0051  0.3140  0.0945
88856W        W89720  24.348  11.697   0.604  0.2467 -0.1496 -0.1431
88857W        W89721  28.917  11.487   1.366  0.0799 -0.2747 -0.1647
88858W        W89722  29.010  15.455   1.496  0.2350 -0.3301  0.2250
88859W        W89723   1.592  12.203   1.590 -0.0173 -0.1768 -0.0876
88860W        W89724   0.622  10.679  27.945 -0.0240 -0.2254  0.1746
88861W        W89725  28.596   9.718   2.862 -0.0254 -0.0359 -0.0437
88862W        W89726  26.294  14.758  28.197 -0.2221  0.1965  0.0541
88863W        W89727   1.785  12.776  27.915  0.0229 -0.0719  0.0200
88864W        W89728  25.620  15.306   0.281  0.0299  0.0203 -0.1631
88865W        W89729  28.599  14.789   0.858  0.0091  0.2112 -0.5709
88866W        W89730  24.321  10.983   2.069 -0.0872 -0.0215  0.1029
88867W        W89731   0.421  11.526   5.253 -0.0576 -0.2450 -0.1650
88868W        W89732  28.500  12.165   0.196 -0.1334 -0.1189  0.2845
88869W        W89733   0.237  11.445   1.608 -0.3967 -0.0286 -0.2100
88870W        W89734   0.200  13.038   1.869 -0.6175  0.5119 -0.1012
88871W        W89735   1.054  12.010   0.845 -0.2124  0.0527  0.3595
88872W        W89736  28.733  16.674   4.241 -0.0573 -0.3724 -0.1282
88873W        W89737   0.926  10.092   2.681 -0.0782 -0.2296 -0.3368
88874W        W89738   1.419   9.602   0.644 -0.0306 -0.1308  0.0015
88875W        W89739  26.599  15.209  28.035  0.1033  0.0886  0.1607
88876W        W89740  25.865  13.075   0.773  0.1569  0.1121  0.0829
88877W        W89741  28.528  10.891   0.936  0.2904  0.0358  0.0092
88878W        W89742  25.328  12.369   2.073 -0.2325  0.4381  0.3281
88879W        W89743  25.642  15.812   0.547  0.1711  0.1606 -0.2047
88880W        W89744   2.754  12.378   0.658  0.2340 -0.0253 -0.0785
88881W        W89745  26.200  13.112   2.972  0.2586 -0.3210 -0.0300
88882W        W89746  27.688  15.292   6.263 -0.1087 -0.0071 -0.1422
88883W        W89747  27.754  12.353   2.400  0.0294  0.2175 -0.0070
88884W        W89748  28.457  12.747   3.482  0.0249 -0.1100  0.0373
88885W        W89749  28.708  10.231   3.699 -0.1409 -0.1612 -0.1297
88886W        W89750  27.087  13.091  28.254 -0.2165 -0.3434  0.0621
88887W        W89751  26.642  14.063   1.106  0.1915 -0.1179 -0.0682
88888W        W89752   0.187  15.850   1.276 -0.0705 -0.3857 -0.0844
88889W        W89753   0.158  11.226   2.065  0.0494  0.1276 -0.0130
88890W        W89754   1.052  13.917   5.638 -0.0448  0.1373  0.0647
88891W        W89755  25.176  11.226   2.228 -0.2682  0.1179  0.2781
88892W        W89756   0.327  12.529   0.693 -0.1205 -0.1629  0.1135
88893W        W89757  28.696  12.713   5.749 -0.1513  0.1665 -0.0875
88894W        W89758   1.556  13.072   0.506  0.0962  0.2533 -0.0604
88895W        W89759  29.003  15.120   2.620 -0.1837 -0.0790 -0.0521
88896W        W89760  25.326  12.633  28.600  0.2138  0.1226 -0.1400
88897W        W89761  26.461  14.241   4.202  0.0069  0.1431 -0.1529
88898W        W89762  27.640  14.007   1.581 -0.3184  0.0008 -0.0323
88899W        W89763   3.016  14.851   1.732 -0.1550 -0.1875  0.0979
88900W        W89764  24.486  12.020   3.184  0.4595  0.0833  0.2795
88901W        W89765  23.885  10.448   2.568  0.3066 -0.2033  0.1685
88902W        W89766  25.368  10.102  28.322 -0.0120 -0.1138 -0.3396
88903W        W89767  27.125  12.460   1.289 -0.0684  0.0980  0.1294
88904W        W89768  28.657  11.143   3.418  0.0318 -0.2054  0.1810
88905W        W89769   1.437  11.239   0.550  0.0903  0.0321 -0.6460
88906W        W89770   1.071  14.968   3.191  0.0575  0.2181  0.0756
88907W        W89771  28.774   9.912   3.308 -0.1911 -0.2506  0.0544
88908W        W89772   2.734  13.874   3.784 -0.0301  0.1684 -0.1583
88909W        W89773  27.770   9.443   5.701  0.0804 -0.1402 -0.1261
88910W        W89774   0.805  12.370   1.027  0.1749  0.0000  0.0674
88911W        W89775  28.851  13.203   5.400 -0.0237  0.0867 -0.1928
88912W        W89776  26.848  14.735  28.204  0.0222 -0.0814 -0.1910
88913W        W89777  28.236  14.907   1.680  0.0248  0.1700  0.1809
88914W        W89778  28.167  11.204   1.604 -0.1448 -0.1185 -0.5239
88915W        W89779   1.663  12.704   1.429  0.0348 -0.0303 -0.2119
88916W        W89780  27.807  12.815   4.685  0.0999 -0.0541 -0.1915
88917W        W89781  27.606  14.855   3.116  0.0584  0.1216 -0.0115
88918W        W89782  25.566  10.129  28.896 -0.1370  0.0606 -0.0771
88919W        W89783   0.699  12.739   3.967  0.0727 -0.1522 -0.2600
88920W        W89784   0.695  13.977  27.875 -0.2378 -0.3569  0.1959
88921W        W89785  27.670  13.898   0.000  0.2794  0.2982 -0.0202
88922W        W89786  26.976  10.953  26.999 -0.0482  0.2448 -0.1616
88923W        W89787   2.099  12.917   1.292 -0.0698 -0.0306 -0.5389
88924W        W89788  28.977  11.614   1.912  0.1520 -0.1640  0.0690
88925W        W89789  28.763  13.250   4.872 -0.0415 -0.0576 -0.1290
88926W        W89790   0.314  15.368   2.598 -0.0697  0.1847 -0.1583
88927W        W89791  27.953  15.814   5.658 -0.0328 -0.0240 -0.2314
88928W        W89792  28.225  10.962  28.539 -0.0676 -0.0713 -0.2088
88929W        W89793  26.704  12.426   2.412 -0.1334 -0.0630 -0.1021
88930W        W89794  28.041  14.198   3.813  0.2265 -0.0941 -0.0139
88931W        W89795  26.749  14.590   0.817 -0.2609 -0.3041  0.0201
88932W        W89796   0.404  14.351   2.657  0.0882 -0.2760  0.1838
88933W        W89797   1.398  14.673   4.852 -0.0600 -0.0184 -0.2462
88934W        W89798  25.465  12.979   1.684 -0.1793 -0.0927  0.1721
88935W        W89799  24.559  14.044  28.123  0.1701 -0.1054 -0.2121
88936W        W89800   1.028   9.457   3.286  0.2514  0.1202  0.2494
88937W        W89801  28.067  11.351   1.135 -0.3100  0.1080  0.2375
88938W        W89802  27.949  10.332   1.993  0.0433 -0.0696 -0.1780
88939W        W89803  28.705  11.389   0.919  0.1229  0.0335  0.0842
88940W        W89804   1.328  11.286  28.842 -0.0483 -0.0717 -0.1939
88941W        W89805  28.828  13.778  28.738  0.3938  0.1221  0.2619
88942W        W89806   3.004  12.836   1.788  0.0608 -0.0395  0.0476
88943W        W89807   1.093  12.616  28.231 -0.0360 -0.3210  0.2715
88944W        W89808   0.287  12.603   1.679 -0.0793 -0.1002 -0.0167
88945W        W89809  28.145  11.815   3.526  0.4049 -0.0494  0.1944
88946W        W89810  26.244  13.820  28.906 -0.1436  0.0926  0.3941
88947W        W89811   2.137  13.025   5.416  0.1112  0.2219 -0.2660
88948W        W89812   1.608  15.263   3.532  0.2587  0.1828 -0.0845
88949W        W89813  27.973  16.302   1.485  0.1808  0.4545 -0.1272
88950W        W89814  26.924  10.989   8.106 -0.0876 -0.0551  0.2769
88951W        W89815  28.963  13.335   3.528  0.2631  0.1161  0.1853
88952W        W89816  28.849  14.964   1.609  0.1524  0.4107  0.3905
88953W        W89817   0.446  10.362   3.516  0.1280  0.0018 -0.0676
88954W        W89818   1.496  12.254   5.237  0.1125 -0.0716  0.0936
88955W        W89819  26.160  14.990   4.854 -0.2026 -0.0343 -0.0255
88956W        W89820  28.599  11.881   3.893 -0.0665 -0.2141 -0.0362
88957W        W89821   1.469  11.618   0.867  0.1215  0.1869 -0.0199
88958W        W89822   1.003  14.613   2.096 -0.0748  0.3369 -0.1741
88959W        W89823  24.064  15.592   1.096  0.1323 -0.0235 -0.1789
88960W        W89824  26.654  12.672   1.506 -0.0414 -0.0818  0.3503
88961W        W89825  27.914  12.988   2.712  0.1362  0.3481 -0.4771
88962W        W89826  28.363  13.391   1.848 -0.1241 -0.3804 -0.1120
88963W        W89827   0.465  13.842   1.745 -0.0883 -0.0718  0.1176
88964W        W89828  27.751  12.547   2.896 -0.1289 -0.1920 -0.0051
88965W        W89829   0.663  11.711   2.488 -0.0012 -0.1241  0.1268
88966W        W89830   0.225   9.525   3.577 -0.2023  0.1570  0.2996
88967W        W89831  26.477  15.247   1.219 -0.0176  0.2235  0.1698
88968W        W89832   1.135  13.457   3.675  0.0288 -0.0301 -0.0716
88969W        W89833  27.926  13.643   0.505 -0.2757 -0.0252 -0.2107
88970W        W89834   0.780  13.140   2.763  0.0720  0.0810  0.2244
88971W        W89835  25.601  11.245  28.419 -0.1715 -0.1838  0.1916
88972W        W89836  27.527  15.337   2.028  0.2196  0.2208  0.1988
88973W        W89837  28.098  10.806   1.257  0.3677  0.1527  0.2947
88974W        W89838  26.961  11.482  27.921 -0.1784  0.1658 -0.1011
88975W        W89839  28.675  11.530   2.335 -0.2767  0.0937 -0.0378
88976W        W89840   0.456  11.801   3.126  0.2302  0.3112 -0.1145
88977W        W89841   0.694  12.156   2.059  0.3068 -0.2412 -0.0676
88978W        W89842  27.865  11.650   0.684  0.0767 -0.0365  0.2690
88979W        W89843  26.776  14.869   2.247  0.0362 -0.0344  0.0823
88980W        W89844  27.132  12.773   1.722  0.1160 -0.1183  0.3793
88981W        W89845   0.753  13.727   4.790 -0.0854  0.2379 -0.0499
88982W        W89846   1.079  14.069   3.659 -0.1168  0.0456  0.0309
88983W        W89847   1.244  13.811   4.018  0.1251  0.0623 -0.0707
88984W        W89848  26.975   9.935   5.150 -0.1087  0.1498 -0.0044
88985W        W89849   0.272  12.982   1.330 -0.1215  0.0664 -0.4113
88986W        W89850  26.452  12.743   2.742  0.0493 -0.1629 -0.0902
88987W        W89851  26.061  15.106   0.596 -0.0872  0.0169 -0.2607
88988W        W89852   0.570  13.800   1.227  0.1094  0.0248  0.1777
88989W        W89853   0.100  13.282   2.980 -0.1783 -0.0059  0.1337
88990W        W89854  28.150  11.459   3.892  0.0436  0.0013  0.5868
88991W        W89855  29.037  11.284   3.163 -0.0357  0.1887  0.1603
88992W        W89856  28.586  13.519   2.311 -0.3401  0.0683  0.2374
88993W        W89857  28.245  12.943   0.967 -0.0019  0.0885  0.1402
88994W        W89858   0.089  12.079   0.795 -0.0393  0.0261 -0.1312
88995W        W89859   0.964  10.875   1.449 -0.3452 -0.1017  0.2824
88996W        W89860  27.263  15.728   3.095  0.2920 -0.0868  0.0174
88997W        W89861  25.095  12.608   1.749  0.4933  0.1127 -0.1678
88998W        W89862  25.731  14.875   0.083 -0.0467  0.0697  0.2395
88999W        W89863  26.967  10.837   2.938  0.2218 -0.0302 -0.0137
89000W        W89864  26.663  13.108   1.168  0.0695  0.1009 -0.2690
89001W        W89865   1.820  12.481  29.060 -0.2155 -0.1498 -0.1950
89002W        W89866  28.985  13.046   1.055 -0.0097  0.3355 -0.1761
89003W        W89867  26.812  12.376  28.734 -0.2745  0.1394  0.2324
89004W        W89868   0.795  12.455   0.533  0.1163 -0.2536 -0.2289
89005W        W89869  28.038  11.452   4.441 -0.0954  0.2031 -0.0665
89006W        W89870  28.548  11.086   1.379  0.0158 -0.0458  0.1664
89007W        W89871  26.315  12.984   2.282 -0.0545 -0.1719  0.1204
89008W        W89872  27.348  10.992   3.946  0.1591  0.1396  0.0815
89009W        W89873  27.023  15.651   0.665 -0.2307 -0.1227 -0.0539
89010W        W89874  26.152  14.575   0.274  0.0479 -0.0362 -0.1078
89011W        W89875  28.225  10.030   2.726  0.1431 -0.0996 -0.0371
89012W        W89876   0.119  14.876   4.193 -0.1832  0.0439 -0.0015
89013W        W89877  26.969  11.385   3.327  0.0328  0.4461 -0.0349
89014W        W89878  26.969   9.988   3.635 -0.0288 -0.1383  0.3715
89015W        W89879  27.031   9.733   1.146  0.1473 -0.2060  0.0336
89016W        W89880  28.842  11.209   0.040  0.2356 -0.1282  0.4323
89017W        W89881  26.815  11.903  28.821  0.2329 -0.1744 -0.3786
89018W        W89882  26.303  11.218   0.453  0.0598  0.2640  0.2660
89019W        W89883   1.943   9.225   4.262 -0.0450  0.0762  0.1249
89020W        W89884  25.854  11.028  26.857  0.0914 -0.0878  0.0287
89021W        W89885  26.500   9.984   4.421  0.0010  0.0232 -0.1435
89022W        W89886  28.137  12.208   3.185 -0.5192 -0.0061  0.0004
89023W        W89887  25.801  10.559   1.328  0.0583  0.1435  0.1023
89024W        W89888  27.762  13.498   2.794  0.1059 -0.0086  0.0126
89025W        W89889  24.446  11.228  25.176  0.0558  0.1490  0.1055
89026W        W89890  26.604  13.918   2.616  0.0246 -0.4523 -0.0940
89027W        W89891  28.238  12.364   2.609  0.0910 -0.4916  0.1821
89028W        W89892  26.721  14.286   0.320  0.0797 -0.1304 -0.3104
89029W        W89893  26.438  13.406  28.670  0.1471  0.0835  0.1407
89030W        W89894  26.939  15.023   1.127 -0.0935  0.0750  0.0776
89031W        W89895  25.820  15.116   3.556 -0.0651  0.2365  0.2381
89032W        W89896   0.215   9.914   1.315 -0.0368  0.1760 -0.4118
89033W        W89897   0.208   9.131   4.079 -0.0835 -0.0657 -0.0338
89034W        W89898  27.988  11.903   4.074 -0.0193  0.1794  0.2311
89035W        W89899   0.764  12.117   3.361  0.0832 -0.0686  0.2382
89036W        W89900   0.733  14.113   3.356 -0.0486 -0.0912 -0.0091
89037W        W89901  27.587  14.869   0.170 -0.0375  0.0645  0.2241
89038W        W89902  27.817  12.113   5.107 -0.1183 -0.0411 -0.1255
89039W        W89903  25.728  14.583   1.156  0.1703  0.0758 -0.2933
89040W        W89904   1.704  12.118   6.490  0.0059  0.1571 -0.1413
89041W        W89905   0.478  12.492   3.511 -0.0098  0.0170 -0.1118
89042W        W89906  25.873  14.937   4.411 -0.1496  0.1457 -0.2578
89043W        W89907  27.385  11.152   2.236 -0.0695 -0.0192 -0.2407
89044W        W89908   0.845  13.984   0.837  0.0620 -0.1098 -0.2331
89045W        W89909  25.878  12.662   3.980  0.4020 -0.0311 -0.1456
89046W        W89910  27.113  15.287   2.349 -0.0377  0.2509 -0.2433
89047W        W89911   1.867   8.388   5.338 -0.1316 -0.1013  0.1254
89048W        W89912  25.398  14.620  27.868 -0.2342 -0.1000 -0.1160
89049W        W89913   0.815  13.341   3.217 -0.4565 -0.2285 -0.0593
89050W        W89914  25.681  10.882   2.787  0.1828 -0.1528 -0.6148
89051W        W89915  26.877  11.081   3.800 -0.0164 -0.4079 -0.0139
89052W        W89916   1.845  14.987   0.593 -0.1570 -0.0570  0.1487
89053W        W89917   0.445  15.896   2.264 -0.2007  0.1745 -0.1372
89054W        W89918  28.029  14.256   1.534 -0.1005  0.2243  0.0393
89055W        W89919  27.561  14.479   1.692 -0.0887  0.2241  0.1177
89056W        W89920   1.244  12.688   4.415 -0.2445 -0.1567 -0.2266
89057W        W89921  28.725  12.881   3.127 -0.0984 -0.2586  0.0358
89058W        W89922  28.777  13.944   2.680  0.1103  0.2498 -0.1469
89059W        W89923  27.352  14.350   0.184 -0.2148 -0.2931 -0.2804
89060W        W89924   1.747  16.222   0.841  0.2993  0.0042 -0.2140
89061W        W89925  28.574  15.561   2.466  0.0920  0.0846 -0.0258
89062W        W89926  27.543  13.074   1.779 -0.1250 -0.0145 -0.0854
89063W        W89927  27.718  11.134   3.588 -0.0339  0.2120  0.1670
89064W        W89928   0.093  14.680   1.712 -0.2827  0.0425 -0.0260
89065W        W89929  27.635  15.157  27.873 -0.0196 -0.1691  0.0336
89066W        W89930  29.020  12.426   1.435 -0.0611 -0.0529  0.3096
89067W        W89931  28.349  14.524   3.464 -0.1185 -0.1998  0.0735
89068W        W89932   1.672  13.703  28.649 -0.1382  0.0727 -0.0601
89069W        W89933  25.118  12.275   0.245 -0.1438  0.1670  0.2191
89070W        W89934  28.096  12.644   1.393 -0.2546  0.0704 -0.1543
89071W        W89935   0.710  15.697   4.400 -0.1290  0.1475  0.1744
89072W        W89936   0.301  12.328   3.048  0.0084  0.1821  0.0432
89073W        W89937  25.923  13.366  28.255 -0.0961 -0.2813  0.2924
89074W        W89938  27.813  14.803   2.045  0.0448  0.1987  0.0906
89075W        W89939  26.314  11.663   2.911  0.1346 -0.1896  0.4015
89076W        W89940  26.954  10.554   3.951  0.2196 -0.2648  0.0213
89077W        W89941   0.220  12.056   1.673 -0.1026  0.3205  0.1939
89078W        W89942   2.069  12.673   1.816 -0.0259 -0.0177  0.1738
89079W        W89943   0.184  10.470   1.421  0.0388  0.0005  0.0176
89080W        W89944  23.645  10.990   3.747  0.1812  0.0165 -0.0040
89081W        W89945   1.838  14.565   3.736  0.0585 -0.1997  0.0793
89082W        W89946  27.431  12.008   1.290  0.1476 -0.2073  0.1644
89083W        W89947  28.471  14.939   0.319  0.1926  0.0779 -0.1210
89084W        W89948  26.789  17.037   2.636 -0.0639 -0.3178 -0.1349
89085W        W89949  29.091  13.510   0.697 -0.2404 -0.1506  0.0840
89086W        W89950   1.132  14.821  28.854 -0.0647  0.0050 -0.0494
89087W        W89951  27.792  14.020   2.987  0.2433  0.1812 -0.1946
89088W        W89952   1.949  12.145   1.941 -0.0594  0.2663 -0.2195
89089W        W89953  28.426  14.582  29.078  0.2232  0.0641 -0.0578
89090W        W89954   0.834  12.957   3.551  0.0076  0.0245  0.4406
89091W        W89955  28.460  10.277   2.042 -0.1382 -0.3803 -0.3854
89092W        W89956  26.922  11.859   4.361  0.1695 -0.0075 -0.2526
89093W        W89957   0.065  17.146   3.550  0.1429  0.2556  0.0718
89094W        W89958   0.091  10.343   5.163 -0.3207  0.0141 -0.2303
89095W        W89959  27.541  13.122   3.829 -0.1721 -0.2742  0.4457
89096W        W89960  27.457  13.803   2.493 -0.0548  0.2133 -0.1364
89097W        W89961  27.231  12.878   0.377  0.2656 -0.1451  0.1234
89098W        W89962  26.381  15.338  25.944  0.0612 -0.4661 -0.2319
89099W        W89963  26.793  11.494   2.216 -0.1192 -0.1875 -0.3152
89100W        W89964  27.476  12.835   2.471 -0.2065 -0.1485  0.3070
89101W        W89965   1.635  12.558   1.942 -0.0048  0.2480 -0.2344
89102W        W89966  27.211  13.072   2.118  0.1748 -0.3084  0.2153
89103W        W89967   3.260  14.191   0.494  0.1998 -0.0242  0.1897
89104W        W89968   0.730  12.713   1.479 -0.2946  0.4475 -0.0198
89105W        W89969  28.836  14.263   0.844  0.4491 -0.0994  0.0172
89106W        W89970  25.419  13.369   2.794  0.2617  0.0904  0.2671
89107W        W89971   1.968  11.827   3.030  0.1500  0.0400  0.2828
89108W        W89972  28.184  15.641  28.952 -0.1100  0.4389  0.3096
89109W        W89973  27.997  14.536   2.987 -0.2275  0.0624 -0.1488
89110W        W89974   0.851  12.489   0.011 -0.0947  0.0396 -0.2373
89111W        W89975   1.212  12.569   3.943 -0.1182 -0.1327 -0.2256
89112W        W89976  26.338  10.421   1.025  0.0759 -0.0257  0.0834
89113W        W89977  27.157  13.863   0.073  0.0479 -0.0922 -0.0672
89114W        W89978  27.705  11.634   3.615  0.2391  0.0842  0.1503
89115W        W89979   1.178  10.540   1.122  0.1370 -0.0887 -0.1120
89116W        W89980   2.120  13.789   2.536 -0.0505  0.0861 -0.2466
89117W        W89981  28.479  11.643   1.441  0.0917 -0.3012 -0.0878
89118W        W89982  26.001  15.596  27.728  0.2177  0.1966 -0.1642
89119W        W89983  26.336  15.431   3.554 -0.1352 -0.0412  0.1004
89120W        W89984  23.929  11.547   4.348 -0.1190  0.1641 -0.0237
89121W        W89985   1.083  14.080   5.034  0.0704  0.2433 -0.1361
89122W        W89986  29.041  13.828   3.236 -0.0120 -0.3218 -0.0312
89123W        W89987   2.152  12.825   0.845  0.0804 -0.0704  0.1162
89124W        W89988  28.815  11.864   1.076  0.2381  0.0492  0.2109
89125W        W89989   1.095  13.791   3.189  0.1616 -0.5874 -0.3487
89126W        W89990  28.446  11.920   2.559  0.2092 -0.1568  0.0438
89127W        W89991  28.488  11.368  28.723  0.0652  0.0447 -0.0305
89128W        W89992  28.503  10.957   2.300 -0.0351 -0.1462  0.3842
89129W        W89993  25.579  14.181   1.555  0.0203 -0.0126 -0.0007
89130W        W89994  25.540  13.013   4.162 -0.0821 -0.1989 -0.0079
89131W        W89995   1.980  11.590  28.836 -0.0693 -0.2204  0.1935
89132W        W89996  27.069  14.680   1.513 -0.3820 -0.0426 -0.2440
89133W        W89997  26.317  16.204   0.001  0.0038  0.0779  0.1382
89134W        W89998   0.220  13.366   4.836 -0.1239  0.3821 -0.1289
89135W        W89999  26.859  10.027  26.973  0.1612 -0.2916 -0.0415
89136W        W90000   0.513  12.950   3.141 -0.1773 -0.1045 -0.0700
89137W        W90001   0.304  15.770   4.037  0.1451  0.3191  0.0192
89138W        W90002  25.790  13.747   2.977  0.0668 -0.2530  0.0855
89139W        W90003  28.603  12.645   1.205  0.3991 -0.4591 -0.0176
89140W        W90004   1.232  14.575  28.293 -0.0871  0.3264 -0.1813
89141W        W90005  27.824  14.321   2.067  0.2062  0.0970  0.1389
89142W        W90006   0.319  15.296   0.636  0.0348  0.1134  0.2127
89143W        W90007  26.309  12.342   1.085 -0.3483  0.0620  0.1574
89144W        W90008  26.209  13.299   1.049  0.1839  0.1757 -0.0760
89145W        W90009  26.819  12.577   0.541 -0.1851 -0.1273 -0.1270
89146W        W90010  25.901  14.642   0.702 -0.3415  0.0953  0.1226
89147W        W90011  26.698  10.995  28.725  0.0586 -0.1292  0.2376
89148W        W90012  28.493  12.852  26.984  0.0632 -0.1132  0.2142
89149W        W90013  27.314  10.483   4.682  0.2122 -0.1529  0.1017
89150W        W90014  27.195  14.213  28.347  0.1006 -0.1744  0.0616
89151W        W90015   1.404  12.299   5.748  0.0351  0.3106 -0.0675
89152W        W90016   1.266  15.646   4.895  0.1155 -0.1375  0.2150
89153W        W90017   3.066  14.296   3.312 -0.2964 -0.1954  0.3523
89154W        W90018   2.121  16.171   5.577  0.2258  0.0605 -0.2671
89155W        W90019  26.753  15.034   1.634  0.0131  0.1915 -0.1218
89156W        W90020   1.483  11.736  28.989 -0.1825 -0.3176 -0.3542
89157W        W90021  28.723  13.163   2.673 -0.2420 -0.3334  0.0444
89158W        W90022  28.257  13.587   0.917  0.0238 -0.0617 -0.0464
89159W        W90023   0.669  13.558   2.084  0.0651  0.0712  0.1216
89160W        W90024   0.205  11.017   1.379 -0.1629  0.0373 -0.0073
89161W        W90025  25.792  11.965   0.694  0.1519 -0.2383 -0.2216
89162W        W90026  26.292  13.856   0.378 -0.1173  0.2585  0.3048
89163W        W90027  28.293  14.709   2.111 -0.1528  0.0026  0.2924
89164W        W90028  25.598  14.443   0.210  0.1011  0.0318 -0.0782
89165W        W90029  26.345  13.719   1.676 -0.0772 -0.1760 -0.2759
89166W        W90030  27.316  12.262   1.749  0.3723  0.1088 -0.1337
89167W        W90031   0.431  13.380   1.642 -0.0060  0.0248  0.2415
89168W        W90032  24.181  12.842  28.864 -0.0033 -0.0622  0.1207
89169W        W90033  27.756  15.003   3.708  0.0995 -0.0788 -0.2148
89170W        W90034   0.396  12.719   2.211  0.1580 -0.0497  0.1726
89171W        W90035   2.532  13.013   3.255  0.2002 -0.1303  0.2460
89172W        W90036   0.093  14.668   2.229 -0.3297  0.2361  0.4221
89173W        W90037  28.621  12.260   0.771  0.1698 -0.2632 -0.0456
89174W        W90038  28.857  13.196   1.948  0.0297 -0.2947  0.0813
89175W        W90039  25.662  14.449   4.307 -0.1595 -0.0604 -0.1244
89176W        W90040  28.961  12.074   2.676  0.0871 -0.2403 -0.2253
89177W        W90041  26.783  13.633   5.370  0.1159 -0.2118  0.2390
89178W        W90042  26.594  11.955   1.039  0.3024  0.0133 -0.0086
89179W        W90043  25.120  11.329  27.233 -0.1233 -0.0556 -0.0289
89180W        W90044   0.226  14.301   5.107 -0.2543 -0.1510 -0.1610
89181W        W90045   0.472  10.714   0.601  0.4671  0.2188  0.2133
89182W        W90046  26.334  11.741   0.639  0.0315  0.2474 -0.0284
89183W        W90047  28.919  15.163   1.143  0.1059 -0.2460 -0.0020
89184W        W90048   2.043  13.038   2.584 -0.1052 -0.2420  0.2058
89185W        W90049   0.745  12.699   2.531 -0.1547  0.1694  0.0681
89186W        W90050   1.222  13.049   2.545  0.1880 -0.0216 -0.0670
89187W        W90051  25.689  11.962   2.506 -0.2738  0.0369 -0.2542
89188W        W90052  29.054  12.044   2.137  0.2335 -0.0223 -0.1029
89189W        W90053  25.084  14.693   0.334  0.0210  0.4015 -0.1779
89190W        W90054  27.332  11.914   3.444  0.1754 -0.1697 -0.0859
89191W        W90055   3.231  11.219   2.695  0.0111 -0.1481  0.0381
89192W        W90056  28.221  11.931   5.374  0.4237  0.1322 -0.0436
89193W        W90057  29.133  14.186   1.872  0.0802 -0.2042 -0.1766
89194W        W90058  29.060  12.932   2.350  0.2316  0.1252 -0.0695
89195W        W90059  27.787  12.823   0.625  0.2327 -0.3423  0.0170
89196W        W90060   2.723  15.758   3.786 -0.0068 -0.0107 -0.1832
89197W        W90061  26.825  13.064   2.495  0.1376  0.2401  0.0301
89198W        W90062  27.071  13.801   2.833  0.1754  0.0239 -0.1009
89199W        W90063  29.102  14.257   2.393 -0.0560 -0.4623 -0.2895
89200W        W90064  26.866  15.135   3.659  0.0598 -0.3309  0.2270
89201W        W90065  25.781  14.043   2.118  0.0218 -0.1098 -0.1643
89202W        W90066  28.558  12.174   2.936 -0.3906  0.2463 -0.1281
89203W        W90067   0.968  16.370   5.033 -0.2642 -0.0534  0.1196
89204W        W90068  28.449  13.684   3.624 -0.0148 -0.1400  0.3402
89205W        W90069  24.887  13.972   2.128 -0.0742 -0.0775  0.0103
89206W        W90070   0.977  14.348   4.076  0.1412  0.2359  0.0056
89207W        W90071   0.455  17.026   2.231  0.1183  0.1480  0.3295
89208W        W90072  28.359  12.789   4.104 -0.1603 -0.1323  0.3723
89209W        W90073  29.072  15.621   4.909  0.4205 -0.1242  0.1406
89210W        W90074  25.977  11.935   1.638  0.2958  0.0752  0.1141
89211W        W90075   1.418  13.559   1.635  0.0960 -0.0782  0.1504
89212W        W90076  28.768  14.487   1.866 -0.0177  0.2518 -0.1752
89213W        W90077  27.226  14.237   0.788 -0.0558 -0.0175  0.0127
89214W        W90078   0.978  11.878   2.908  0.1467  0.0200 -0.1949
89215W        W90079  28.779  13.807   1.042  0.0738  0.2577 -0.0582
89216W        W90080  28.795  16.047   2.221  0.1915 -0.0414 -0.0744
89217W        W90081  28.723  14.121  29.135  0.0591 -0.0558 -0.0450
89218W        W90082  27.154  11.423   1.866 -0.1043  0.4242  0.2801
89219W        W90083  25.959  11.847   4.989 -0.0564  0.2350  0.4551
89220W        W90084  29.053  14.493   5.546  0.2680 -0.2877 -0.5257
89221W        W90085  28.575  14.342   2.397 -0.1121 -0.0734 -0.1455
89222W        W90086   0.532  14.433   6.028  0.0845 -0.0256 -0.0308
89223W        W90087   0.860  14.420   5.602 -0.1021  0.0882 -0.1839
89224W        W90088  27.762  13.224   5.234  0.2348  0.0755  0.0197
89225W        W90089  26.123  13.406   4.703  0.4224  0.0114 -0.3030
89226W        W90090  27.832  14.522   5.055 -0.0131  0.0929  0.1662
89227W        W90091  26.182  16.715   7.382 -0.0650  0.3111  0.1963
89228W        W90092  24.413  11.191   7.476  0.0935 -0.0920  0.2639
89229W        W90093  26.107   8.798   6.081 -0.1092 -0.0634  0.1276
89230W        W90094  27.176   9.402   4.733  0.1105 -0.0433 -0.0908
89231W        W90095  28.580  12.841   5.264 -0.1586 -0.1106  0.1859
89232W        W90096  27.877   8.194   7.139  0.0818 -0.0711  0.1350
89233W        W90097  25.775  11.423   7.314  0.0853  0.0168 -0.5230
89234W        W90098  27.448  11.516   7.099  0.2566 -0.0417 -0.1590
89235W        W90099  26.952  12.647   5.596 -0.1014  0.0097  0.0167
89236W        W90100  26.444  15.392   5.802 -0.0299  0.0282  0.1535
89237W        W90101  27.105  11.918   6.753 -0.0097  0.0847  0.0614
89238W        W90102  28.784   8.735   5.314  0.0506  0.2317 -0.1349
89239W        W90103   0.536  13.177   7.608 -0.0304 -0.1242 -0.0889
89240W        W90104  24.428  12.063   7.317 -0.0853  0.0363  0.2242
89241W        W90105   0.312  13.671   5.789 -0.0293  0.1333 -0.1071
89242W        W90106  27.562  13.438   6.191  0.1834 -0.2939  0.0098
89243W        W90107  27.018  12.634   3.943  0.0820  0.3110  0.1852
89244W        W90108  28.072  12.627   7.769  0.2206  0.2157 -0.1167
89245W        W90109   2.158  12.456   6.292 -0.0860  0.0330 -0.2179
89246W        W90110  29.011  14.706   5.135 -0.0344  0.1779 -0.2647
89247W        W90111  28.309  14.337   7.346 -0.1656  0.0609  0.0138
89248W        W90112  25.147  13.058   4.446 -0.0814  0.0765 -0.0929
89249W        W90113  26.930  11.460   5.431 -0.3382  0.1577  0.0925
89250W        W90114  26.421  13.644   8.272 -0.2245 -0.3134 -0.0728
89251W        W90115  23.792  10.504   6.078 -0.2968  0.0521 -0.0213
89252W        W90116  26.799  13.121   6.052  0.1528  0.2856 -0.5523
89253W        W90117  23.943  12.784   6.976 -0.1030 -0.2171  0.0389
89254W        W90118  28.126  13.749   6.238 -0.1640 -0.1402  0.2965
89255W        W90119  25.848   9.689   5.528  0.3092  0.1869 -0.0791
89256W        W90120  28.801  13.210   5.926  0.0444  0.0558  0.2248
89257W        W90121  27.295  14.398   7.339  0.3454 -0.0066 -0.2919
89258W        W90122  24.362  10.445   4.091  0.2697  0.0054 -0.3967
89259W        W90123  28.132   9.355   4.784 -0.0001  0.0753  0.1457
89260W        W90124  26.470  10.185   8.273 -0.0143 -0.2604 -0.0024
89261W        W90125   1.389  11.047   7.218  0.1410  0.2157  0.1000
89262W        W90126   1.684  15.284   4.795  0.1846 -0.1937  0.2024
89263W        W90127  26.106  14.493   4.595 -0.1709  0.1102  0.0199
89264W        W90128   1.476  13.647   5.410 -0.2301  0.0052 -0.1425
89265W        W90129  26.831  10.281   6.054  0.0842 -0.3388 -0.3061
89266W        W90130   0.235  13.581   3.845 -0.1398  0.1826 -0.0977
89267W        W90131  29.029  14.780   8.115  0.0429 -0.1149 -0.1568
89268W        W90132  28.932  12.157   4.233  0.1870  0.1982 -0.1140
89269W        W90133  28.905  13.079   6.482  0.2197 -0.3954 -0.2657
89270W        W90134  28.557  15.143   3.419 -0.4196  0.1788  0.1358
89271W        W90135   0.116  15.708   5.369  0.0185 -0.0088  0.4195
89272W        W90136  29.109  11.604   3.575 -0.0024 -0.1465  0.0944
89273W        W90137  28.935  14.028   5.260  0.0886 -0.1490  0.0046
89274W        W90138  26.872  11.226   5.845 -0.1606 -0.0377  0.0856
89275W        W90139  26.437  12.566   4.608 -0.4776  0.0055 -0.1678
89276W        W90140  25.955  10.627   6.733  0.1383  0.0659 -0.0791
89277W        W90141  27.666  11.532   4.096 -0.0703 -0.0628  0.1089
89278W        W90142   0.229  14.692   4.700 -0.2274 -0.1231  0.5834
89279W        W90143  29.146  13.133   3.961  0.0815  0.1372  0.0538
89280W        W90144  26.970  14.980   5.266  0.2223 -0.2048 -0.1152
89281W        W90145  25.239  11.498   5.381  0.0736 -0.1264  0.1435
89282W        W90146  26.044  12.873   4.949  0.0688 -0.0771  0.0622
89283W        W90147  25.950  11.533   6.742  0.1293 -0.1135  0.1015
89284W        W90148  26.727   9.470   4.909  0.0474 -0.2487  0.1004
89285W        W90149  27.762  13.390   4.621 -0.2028 -0.0898 -0.0756
89286W        W90150  27.371  12.726   4.356 -0.2622 -0.0706 -0.1013
89287W        W90151  26.007  16.003   4.653 -0.1755  0.1870  0.0371
89288W        W90152  28.477  13.454   5.706  0.1722 -0.0186 -0.2283
89289W        W90153   1.741  12.961   6.702 -0.0352 -0.2640 -0.0764
89290W        W90154  28.319  13.651   2.693 -0.2732  0.1321  0.1376
89291W        W90155   2.600  14.974   7.526  0.2006 -0.0009  0.1620
89292W        W90156  29.058  12.462   8.248  0.0251  0.0639  0.0792
89293W        W90157   0.617  13.222   3.919  0.3883 -0.2845 -0.1789
89294W        W90158  26.988  12.650   7.676  0.2285 -0.0817  0.0734
89295W        W90159  22.520  12.603   6.414  0.1209  0.2730  0.0846
89296W        W90160   0.575  14.184   4.689 -0.3834  0.1931  0.1072
89297W        W90161  28.257  11.704   4.949 -0.1589  0.1498  0.1477
89298W        W90162  27.245  10.314   5.205  0.1154  0.0137 -0.0165
89299W        W90163  26.638  11.237   5.062  0.2564  0.1012 -0.5608
89300W        W90164  25.730  13.194   5.235 -0.2250  0.0449 -0.1571
89301W        W90165  24.875  12.758   5.265 -0.0461  0.0767 -0.2307
89302W        W90166  25.056   9.971   6.701  0.0017 -0.0281  0.0939
89303W        W90167  28.157  13.582   6.777  0.2011 -0.2385 -0.0568
89304W        W90168  28.231  11.333   5.318 -0.0045 -0.0401 -0.1383
89305W        W90169   0.203  13.856   5.396  0.0497 -0.1735 -0.0853
89306W        W90170  26.952   9.541   7.838  0.0745  0.0684 -0.0518
89307W        W90171  27.557  15.849   7.250  0.0345  0.1840 -0.1919
89308W        W90172  26.276  10.601   6.301  0.1895 -0.1744  0.0663
89309W        W90173  27.532  10.710   5.635  0.2136  0.0214  0.0587
89310W        W90174   0.491  10.773   7.665 -0.0116 -0.0173 -0.1492
89311W        W90175  28.863  13.978   4.258  0.0148 -0.2504  0.2183
89312W        W90176  25.849  11.901   5.858 -0.0084 -0.1031 -0.2040
89313W        W90177  24.562  14.242   6.531  0.0616 -0.3351 -0.0899
89314W        W90178   1.451  13.888   6.072 -0.2732  0.2291 -0.3595
89315W        W90179   0.388  15.123   4.944  0.4427  0.1329 -0.0229
89316W        W90180  26.293  13.391   7.430  0.1064  0.1295  0.3061
89317W        W90181  27.696  13.762   4.051 -0.2620  0.1357 -0.0672
89318W        W90182   0.554  12.982   6.424 -0.4295 -0.0802  0.0581
89319W        W90183   0.400  11.975   4.853  0.1743  0.2396 -0.0115
89320W        W90184  24.675  12.755   6.554 -0.3092  0.2224 -0.2251
89321W        W90185  28.045   9.291  29.122 -0.0843 -0.1269  0.2588
89322W        W90186  28.166  10.931   5.665 -0.1161 -0.3133 -0.2088
89323W        W90187  28.407  14.746   8.820  0.0496 -0.2165  0.0822
89324W        W90188  27.064  13.563   6.800  0.0903 -0.0999 -0.1753
89325W        W90189  28.644  13.849   6.009  0.0651  0.2680  0.0999
89326W        W90190  27.815   9.824   7.019  0.1086  0.2383 -0.1955
89327W        W90191  24.377  12.192   5.832  0.3849 -0.0739 -0.1318
89328W        W90192  27.838  16.517   5.286  0.0278 -0.1104 -0.0223
89329W        W90193  28.102  16.355   4.019  0.1379  0.0985  0.1140
89330W        W90194   0.355  14.253   5.619  0.4354  0.0193 -0.0375
89331W        W90195   1.345  14.036   8.574 -0.1320 -0.1688 -0.0870
89332W        W90196   0.747  16.737   3.847 -0.2271  0.0209 -0.0681
89333W        W90197  27.191  15.330   4.003 -0.0089  0.3084  0.0542
89334W        W90198   0.164  12.151   8.598 -0.0233  0.4730  0.0641
89335W        W90199  28.543  15.523   4.954  0.1537 -0.1764  0.1340
89336W        W90200  27.799  12.194   6.362  0.0773 -0.2330 -0.4119
89337W        W90201  27.133  12.198   2.551 -0.0500  0.2478 -0.0517
89338W        W90202  27.775  12.514   3.416  0.0177  0.0629 -0.2920
89339W        W90203  28.122  14.600   5.855 -0.2794  0.1748 -0.2923
89340W        W90204  27.763  14.796   6.452  0.1365  0.0883  0.0640
89341W        W90205   0.299  13.603   6.556  0.0736  0.0612  0.1394
89342W        W90206  27.616  11.878   6.786  0.0343 -0.1883 -0.1846
89343W        W90207   0.101  12.685   6.678 -0.0077 -0.1756  0.0753
89344W        W90208  25.625  13.046   4.639 -0.1263  0.0650  0.0942
89345W        W90209  27.576  11.240   7.514 -0.1533 -0.0623  0.1340
89346W        W90210  27.455  12.712   7.740  0.0747 -0.1104  0.1894
89347W        W90211  27.767  12.966   7.480  0.0207  0.3710  0.0419
89348W        W90212  28.276  15.227   8.711 -0.2673 -0.1154  0.0565
89349W        W90213  26.455  10.286   5.764  0.0104 -0.0348 -0.1497
89350W        W90214  27.315  13.004   7.312 -0.2383 -0.1089 -0.0939
89351W        W90215   0.066  12.745   3.142 -0.2970  0.3657 -0.0640
89352W        W90216   0.549   9.549   5.304 -0.0175 -0.2876 -0.1867
89353W        W90217  24.855  12.117   5.994  0.1417 -0.0982  0.0544
89354W        W90218  28.987  14.161   6.365 -0.1023 -0.1963 -0.1330
89355W        W90219  28.914   9.141   7.134  0.0203 -0.0334  0.2416
89356W        W90220  27.031  14.079   5.319  0.4181  0.1831  0.2169
89357W        W90221  28.172  12.641   7.228  0.2252 -0.3569 -0.5018
89358W        W90222  25.000  12.533   5.702 -0.1038 -0.1024 -0.4356
89359W        W90223  27.684  15.050   5.245 -0.1521 -0.0155 -0.1870
89360W        W90224  27.819  12.857   4.199 -0.0615 -0.0018  0.0130
89361W        W90225  24.244  13.292   4.862 -0.2040 -0.0310 -0.0076
89362W        W90226  26.844  14.319   7.587  0.0696  0.0736 -0.1309
89363W        W90227   0.064  11.708   4.591  0.4032  0.0887 -0.2047
89364W        W90228  27.808   9.817   3.572 -0.0092 -0.0479  0.1924
89365W        W90229  27.886  16.287   4.463  0.0584 -0.1828 -0.3347
89366W        W90230  27.967  15.626   6.547 -0.1348 -0.3059  0.0489
89367W        W90231  28.767  16.008   4.620 -0.0592  0.1094  0.2322
89368W        W90232  27.660  13.391   8.660 -0.2064  0.0205 -0.0769
89369W        W90233  24.348  11.098   5.144  0.2447  0.1742  0.1743
89370W        W90234  28.039  12.031   4.563 -0.3737 -0.1697  0.1221
89371W        W90235  22.331  13.069   5.161  0.0090  0.1177  0.0811
89372W        W90236  28.312   9.852   6.929 -0.0731  0.0056 -0.0112
89373W        W90237  26.451   8.375   7.813  0.2423  0.0018  0.3002
89374W        W90238  24.124  14.027   6.672  0.1851 -0.1345 -0.0133
89375W        W90239  28.871  10.655   3.385 -0.3533 -0.1358  0.0284
89376W        W90240  24.730  11.248   3.389 -0.2059 -0.1403  0.3471
89377W        W90241  27.424   9.824   5.426 -0.1583 -0.0540  0.1649
89378W        W90242   0.720  11.742   6.877 -0.0739  0.1334  0.1327
89379W        W90243  24.934  11.570   7.809  0.1713  0.3183  0.3190
89380W        W90244  27.261  13.086   8.649  0.3385  0.1300  0.0512
89381W        W90245  28.703  15.355   5.425 -0.0915 -0.1332 -0.2190
89382W        W90246  26.510  11.016   6.261  0.2849  0.1092  0.1411
89383W        W90247  27.087  13.934   7.234  0.3341 -0.0786  0.0050
89384W        W90248  26.614  10.356   5.306  0.2805  0.0859  0.1006
89385W        W90249  27.119  13.444   3.976  0.1284  0.2178  0.1506
89386W        W90250   0.183  13.215   6.158 -0.0836  0.0377  0.3580
89387W        W90251  28.411  16.535   1.271  0.2034  0.1319 -0.0272
89388W        W90252  26.297  11.089   4.668 -0.1766  0.0130 -0.1487
89389W        W90253   0.758  12.988   4.419 -0.1987 -0.0522 -0.1061
89390W        W90254   0.395  13.628   4.436 -0.1372 -0.0241  0.0175
89391W        W90255   0.563  14.307   3.788  0.1236 -0.2348 -0.3912
89392W        W90256  26.599  11.561   6.210 -0.1547  0.2061 -0.0343
89393W        W90257   1.034  12.433   5.328  0.1609 -0.2712 -0.0729
89394W        W90258  25.855  14.873   8.491  0.0949 -0.6235 -0.2079
89395W        W90259  26.206  13.128   7.892  0.3513  0.0905  0.1992
89396W        W90260  25.190  13.436   6.522  0.1969 -0.0325  0.0220
89397W        W90261  25.430  12.093   6.786 -0.1111 -0.0280 -0.0403
89398W        W90262  27.278  15.415   5.288 -0.1077  0.0281 -0.1306
89399W        W90263  28.767  14.937   2.152  0.2859 -0.0551  0.0739
89400W        W90264  28.184  12.703   3.098  0.1460  0.0142 -0.0480
89401W        W90265  27.311  14.867   5.590 -0.0017 -0.4285 -0.2333
89402W        W90266   0.377  14.082   7.571 -0.1443 -0.0629  0.2600
89403W        W90267  28.257  12.234   7.494  0.1854  0.0870  0.0431
89404W        W90268  25.433  12.795   5.384 -0.1094  0.5402  0.0957
89405W        W90269  24.039   9.365   1.897  0.0965  0.1198 -0.1222
89406W        W90270   0.763  11.494   6.447  0.0432 -0.0001 -0.0371
89407W        W90271  28.212  13.526   4.491 -0.0225 -0.3601  0.1286
89408W        W90272  27.215  14.334   5.671 -0.0555  0.0336  0.1889
89409W        W90273  28.652  13.640   5.207 -0.0908  0.1074 -0.3542
89410W        W90274  23.948  11.564  10.524  0.2025  0.3319  0.2394
89411W        W90275  27.950   9.450   6.155  0.1041 -0.1460 -0.1916
89412W        W90276  27.675  11.208   6.250 -0.0512 -0.0291 -0.0104
89413W        W90277  26.994  10.776   5.168 -0.0370 -0.3167 -0.1987
89414W        W90278  24.537  13.391   1.349  0.0264  0.0411 -0.3122
89415W        W90279  25.162  12.036   4.474  0.1679 -0.0830 -0.1369
89416W        W90280  25.566  14.271   4.803 -0.0492 -0.2780 -0.1076
89417W        W90281  28.563  12.129   5.711 -0.3315  0.0112  0.3426
89418W        W90282  26.013  11.282   3.810 -0.0185  0.0230  0.0712
89419W        W90283  27.551  12.075   5.957  0.0923 -0.0212  0.0011
89420W        W90284   0.518  13.106   5.769  0.2437  0.0218 -0.1746
89421W        W90285  25.809   9.178   5.902 -0.1426  0.2618 -0.2413
89422W        W90286  26.983   8.541   5.989 -0.0154 -0.1147 -0.1522
89423W        W90287  24.106  11.791   1.671 -0.0559  0.0678 -0.1246
89424W        W90288  25.538  12.562   6.586  0.1768 -0.1177 -0.0490
89425W        W90289  25.243  10.089   7.758 -0.0988  0.0377 -0.1112
89426W        W90290  26.021  14.062   2.610 -0.0599 -0.0063 -0.2822
89427W        W90291  28.221  13.015   4.528  0.2802 -0.1723 -0.1595
89428W        W90292  27.022  13.433   7.362  0.2391 -0.1417  0.2569
89429W        W90293  28.902  16.423   7.268 -0.1321  0.0785  0.1249
89430W        W90294   1.359  14.259   7.535  0.1886  0.4907 -0.0756
89431W        W90295  27.646  11.018   6.849  0.0785 -0.1064  0.1961
89432W        W90296  28.509  11.176   9.450 -0.0709  0.0763  0.1011
89433W        W90297  25.900  12.132   3.075  0.0199 -0.0508 -0.0332
89434W        W90298  26.304  14.241   6.523 -0.1148 -0.1761 -0.0468
89435W        W90299   0.443  17.142   3.931 -0.0647 -0.1403 -0.1481
89436W        W90300  24.914  10.235  10.531 -0.1378  0.2947  0.1090
89437W        W90301  29.055  14.384   6.797 -0.1405 -0.4148 -0.1376
89438W        W90302  28.083  10.021   6.465 -0.0481  0.3142 -0.5934
89439W        W90303  27.846  14.011   5.684 -0.1753 -0.1366  0.2860
89440W        W90304  27.263  15.350   7.183  0.0683 -0.1307  0.3394
89441W        W90305   0.230   8.067   2.596 -0.1682  0.0468 -0.2526
89442W        W90306   1.385  14.426   3.792 -0.4289 -0.0592 -0.3530
89443W        W90307  26.941  12.002   6.159  0.1481 -0.0938  0.0016
89444W        W90308  28.558  14.080   7.717  0.3465 -0.2360  0.1590
89445W        W90309  26.631  11.265   7.121  0.1475 -0.0575  0.1742
89446W        W90310  28.643  15.552   4.454 -0.1773 -0.1529 -0.0166
89447W        W90311  26.934  12.685   4.711 -0.0433 -0.1109 -0.0080
89448W        W90312  25.779  13.629   6.643  0.0638  0.1116  0.0577
89449W        W90313  26.190  11.711   5.434  0.1641 -0.0710  0.1004
89450W        W90314  28.345  13.277   3.427  0.0717  0.1327  0.1112
89451W        W90315  27.936  13.439   3.671  0.1023 -0.0792  0.2036
89452W        W90316  25.840  11.048   5.915  0.3299 -0.1506  0.0659
89453W        W90317  28.044  16.525   8.587  0.0478 -0.1183 -0.0282
89454W        W90318  28.184  15.246   5.580 -0.2654  0.0628 -0.1178
89455W        W90319  26.865  10.080   6.553  0.0094  0.2911 -0.1839
89456W        W90320  28.976  11.414   6.520 -0.1728 -0.0610 -0.2766
89457W        W90321   1.962  12.557   6.777 -0.1799  0.1767 -0.1860
89458W        W90322  28.755  13.099   7.350 -0.2594  0.1224  0.1418
89459W        W90323  23.277  13.511   7.084 -0.0383 -0.0703  0.0060
89460W        W90324  24.386  11.876   6.165  0.0376 -0.0346  0.0740
89461W        W90325  25.153  11.070   4.184  0.1105  0.3015  0.3063
89462W        W90326  28.955  13.814   3.749 -0.0149  0.0370 -0.1641
89463W        W90327  28.290  13.195   2.947  0.0118  0.3338 -0.0934
89464W        W90328  28.241  13.153   5.431  0.2679 -0.1025  0.0073
89465W        W90329   0.172  14.867   6.403 -0.1116 -0.1862 -0.1695
89466W        W90330  28.778  17.606   4.810 -0.0573 -0.0624 -0.0291
89467W        W90331   1.674  13.171   5.577  0.1024 -0.0001  0.0308
89468W        W90332  26.616  14.639   3.855 -0.0704 -0.0394 -0.0140
89469W        W90333  25.966  13.860   7.362 -0.1756 -0.0634 -0.1461
89470W        W90334   1.165  14.770   6.267 -0.0312  0.0087 -0.1374
89471W        W90335  29.035  12.616   7.703 -0.2787 -0.0340  0.0324
89472W        W90336  24.577  12.529   3.175 -0.4754  0.0944  0.2118
89473W        W90337   2.357  14.717   3.828 -0.2324 -0.3008  0.2327
89474W        W90338  27.377  14.441   3.316 -0.1413  0.0347  0.0621
89475W        W90339  24.565   9.492   7.328 -0.0744  0.1938 -0.3526
89476W        W90340   1.944  12.752   5.826  0.1765 -0.1685  0.0443
89477W        W90341   1.466  10.625   6.923  0.2529 -0.2185  0.4553
89478W        W90342  24.513  14.275   7.451  0.0567  0.2804  0.0186
89479W        W90343  26.073  13.012   4.446  0.0928 -0.0409 -0.1143
89480W        W90344  28.770  10.956   8.007 -0.0225 -0.1180  0.1940
89481W        W90345  27.520  10.377   7.595  0.0473  0.0110  0.1045
89482W        W90346  26.317  14.757   6.565 -0.0855  0.1421 -0.0424
89483W        W90347  27.842  14.382   6.689  0.1148  0.0141  0.0139
89484W        W90348  26.588  13.076   5.569  0.0748 -0.0599  0.0237
89485W        W90349  27.968  14.079   2.505 -0.1190  0.0090 -0.0064
89486W        W90350  28.368  16.181   8.494  0.0101  0.3803  0.0612
89487W        W90351  28.905  10.083   5.499  0.1499  0.2382 -0.2009
89488W        W90352  29.086  12.611   4.330 -0.0121  0.2474 -0.0357
89489W        W90353  27.832  12.261   5.610  0.2578  0.1177  0.5406
89490W        W90354  27.550  13.775   7.068  0.2181  0.4953 -0.2047
89491W        W90355  27.421  13.927   5.990 -0.0160  0.0001  0.0692
89492W        W90356  27.339  10.984   6.014  0.0189  0.0006  0.2583
89493W        W90357  26.424  11.317   6.607 -0.0376  0.1221  0.1876
89494W        W90358  23.953  13.726   7.927  0.0410  0.1489 -0.1693
89495W        W90359  25.944  13.776   5.095  0.0321 -0.0812  0.1278
89496W        W90360  24.455  12.931   6.985 -0.3038  0.0736 -0.2194
89497W        W90361  26.052  11.466   6.179 -0.2315  0.1876 -0.2579
89498W        W90362  24.836  11.815   4.858  0.2946  0.1557 -0.1448
89499W        W90363  26.790  13.809   4.250 -0.0354  0.1317  0.1336
89500W        W90364  27.148  13.181   6.424  0.0078 -0.0511  0.1427
89501W        W90365  28.286  14.030   4.906 -0.2101 -0.0640  0.5123
89502W        W90366  27.885   9.740   4.608 -0.0129 -0.0616 -0.0787
89503W        W90367  28.749  15.066   4.192 -0.1102  0.0221  0.1945
89504W        W90368  25.060  14.226   6.495 -0.0489  0.2664 -0.0187
89505W        W90369  27.652   9.294   4.771  0.0758 -0.0744  0.1377
89506W        W90370  29.142  15.172   5.194 -0.0038 -0.1422 -0.0507
89507W        W90371  27.991  13.962   4.458 -0.2637 -0.4134  0.0679
89508W        W90372   0.325  11.404   2.849 -0.1857 -0.0597  0.0584
89509W        W90373  27.308  13.432   5.153 -0.0215 -0.3370 -0.2097
89510W        W90374  25.306  12.417   4.811 -0.2948 -0.0360 -0.0061
89511W        W90375  26.694  13.940   6.686 -0.0241 -0.0614 -0.1091
89512W        W90376  26.617  13.527   7.059  0.3089 -0.2574  0.1342
89513W        W90377  27.855  13.459   5.722  0.0383  0.2078  0.2605
89514W        W90378  27.712  13.902   6.613  0.3388 -0.0414 -0.1177
89515W        W90379  25.084  11.419   4.905 -0.3172  0.1101 -0.2228
89516W        W90380  24.685  13.725   4.802 -0.2229  0.2756 -0.2054
89517W        W90381  27.740  12.329   4.182 -0.0592 -0.0308  0.1552
89518W        W90382  26.605  13.038   4.714  0.0490 -0.0397  0.3267
89519W        W90383  28.945  15.217   6.251 -0.4371 -0.1998  0.0598
89520W        W90384  29.131  11.978   5.166 -0.0315  0.3036 -0.0506
89521W        W90385   1.346  18.637   3.760 -0.1739  0.0802  0.1756
89522W        W90386   0.278  13.833   4.916 -0.0770 -0.2487  0.2436
89523W        W90387  27.023  12.183   7.554 -0.3119 -0.0698 -0.0064
89524W        W90388  27.779  11.689   4.778  0.0933 -0.1324 -0.2666
89525W        W90389  28.106  13.755   5.285 -0.0703 -0.0382  0.0226
89526W        W90390  25.414  14.528   6.391 -0.1777  0.0414 -0.4906
89527W        W90391  29.028  13.531   4.360 -0.0784 -0.0889 -0.0562
89528W        W90392  26.877  13.026   4.309  0.0011 -0.0918  0.1987
89529W        W90393  26.372  11.624   4.790 -0.1761  0.2251 -0.0600
89530W        W90394   0.656  12.219   7.232 -0.1099 -0.5881  0.1104
89531W        W90395  26.889  14.430   6.536 -0.1762  0.2802  0.2685
89532W        W90396  27.247  11.493   6.098 -0.1034  0.0811 -0.2106
89533W        W90397  25.106  12.811   3.986 -0.1511  0.0003 -0.2580
89534W        W90398   0.766  11.653   4.790  0.0763  0.1297 -0.1372
89535W        W90399   0.654  13.535   6.230 -0.2271 -0.0411  0.2162
89536W        W90400  24.694  13.253   6.644  0.1485  0.1245  0.1282
89537W        W90401  26.779  14.307   7.101  0.3766  0.0372  0.1850
89538W        W90402   0.022  17.567   4.532 -0.0976  0.1843 -0.1299
89539W        W90403  23.530  12.983   4.795  0.0569 -0.0638  0.0817
89540W        W90404  28.316  16.556   5.885  0.1729  0.0569 -0.2354
89541W        W90405  26.799  11.531   3.938  0.0297 -0.1629 -0.1313
89542W        W90406  27.551  15.048   8.498  0.0317 -0.1256 -0.1618
89543W        W90407  24.745  10.678   6.563  0.1400 -0.2195  0.2469
89544W        W90408  28.768  14.737   4.700 -0.1291  0.0011  0.1388
89545W        W90409   0.752  12.516   3.068 -0.2576 -0.1179 -0.0936
89546W        W90410  26.193  13.356   5.720 -0.2346 -0.0272 -0.0394
89547W        W90411  25.601  12.292   6.132  0.0610  0.0502 -0.0987
89548W        W90412   1.088  13.055   3.974  0.0135  0.0913 -0.1003
89549W        W90413   1.468  15.227   9.947 -0.0113  0.0044 -0.0311
89550W        W90414  28.992  13.116   7.801 -0.1402  0.2126  0.0652
89551W        W90415   2.870  15.947   7.880  0.0202 -0.2770  0.1102
89552W        W90416   0.761  17.025   6.898 -0.0863 -0.0723  0.3619
89553W        W90417   0.143  16.885   7.224  0.2678 -0.0678 -0.0543
89554W        W90418   0.914  12.042   4.603 -0.0173  0.1423  0.0810
89555W        W90419  28.655  15.919   3.507 -0.0990  0.1578 -0.0357
89556W        W90420  28.282  13.350   4.977  0.1551  0.0384 -0.1527
89557W        W90421  27.763  10.668   3.790  0.4098 -0.1760 -0.0702
89558W        W90422  25.466  11.173   4.589 -0.2952 -0.0642  0.1783
89559W        W90423  26.631  10.546   8.854 -0.3069  0.1702  0.0434
89560W        W90424  27.177  11.400   4.274 -0.2233 -0.2346  0.2570
89561W        W90425  26.611  13.202   3.850  0.5360 -0.3054  0.0527
89562W        W90426  28.074  13.081   6.692 -0.1557  0.2565 -0.2542
89563W        W90427  24.187  12.940   5.260  0.0749 -0.0683 -0.1151
89564W        W90428  26.230  12.390   5.011  0.0185 -0.0443 -0.3513
89565W        W90429   0.914  13.107   6.104 -0.3281 -0.2190 -0.0446
89566W        W90430  23.642  12.148   6.144  0.2926 -0.0492 -0.3952
89567W        W90431  26.329  13.253   5.214  0.1659 -0.1359 -0.3905
89568W        W90432   0.882  13.472   4.232 -0.1366 -0.1792 -0.1131
89569W        W90433  28.920  15.629   5.853  0.0936  0.0604  0.1347
89570W        W90434  27.585  12.356   4.691 -0.2710  0.0638 -0.1650
89571W        W90435   0.087  14.228   4.556 -0.1109 -0.0172  0.0170
89572W        W90436  28.433  10.748   4.583 -0.2226  0.0189  0.0096
89573W        W90437  27.080  16.010   6.578  0.0814 -0.2787 -0.2227
89574W        W90438  25.747  12.523   5.114  0.0506 -0.0272  0.1664
89575W        W90439  27.602  12.885   6.413  0.0300  0.1481  0.3140
89576W        W90440  27.460  15.943   5.627 -0.0601 -0.0652  0.1212
89577W        W90441  29.038   9.425   2.211 -0.0612  0.0592  0.0395
89578W        W90442  27.818  12.879   5.644 -0.2060 -0.0086  0.0784
89579W        W90443  28.553  14.141   3.906  0.4337  0.1073 -0.1504
89580W        W90444   0.633  14.010   5.293 -0.3501 -0.1075  0.1252
89581W        W90445   0.248  14.941   5.870 -0.0586 -0.1373  0.1607
89582W        W90446  28.954  13.715   4.812 -0.1692 -0.3228  0.1625
89583W        W90447   1.370  15.208   6.499  0.1490  0.2108 -0.2461
89584W        W90448  26.509  10.325   4.087 -0.1178 -0.1984  0.2615
89585W        W90449  29.061  12.682   6.158 -0.3432 -0.0295  0.2566
89586W        W90450  24.634  11.281   4.693  0.1033 -0.1920  0.1198
89587W        W90451   0.158  10.803   3.240 -0.3918 -0.0609 -0.0010
89588W        W90452  27.418  10.303   4.124  0.1832 -0.2241  0.3155
89589W        W90453   0.201  12.834   8.071 -0.1188  0.3946 -0.3476
89590W        W90454  28.510  18.427   5.048  0.3001 -0.0561 -0.1141
89591W        W90455  26.741  12.325   7.918 -0.3718  0.1543  0.0534
89592W        W90456  26.748  14.483   5.498  0.1343  0.2300 -0.4283
89593W        W90457  28.189  14.740   5.394  0.1062 -0.0244 -0.1413
89594W        W90458  28.056  12.757   6.319 -0.0030 -0.2141 -0.1715
89595W        W90459  24.071  12.516   6.105 -0.1112  0.0726  0.0707
89596W        W90460   0.010  12.900   4.790 -0.0620 -0.3006  0.0841
89597W        W90461  26.586  14.853   6.168  0.3771  0.1077 -0.0048
89598W        W90462  25.703  14.916   3.963 -0.0660  0.1259 -0.2771
89599W        W90463  28.484  13.236   6.321  0.0027  0.1985 -0.0905
89600W        W90464   1.451  13.292   6.417 -0.0429 -0.0373 -0.2124
89601W        W90465  27.990   9.028   5.430  0.2784  0.0280 -0.0403
89602W        W90466   0.874  13.483   5.788 -0.3790  0.0843 -0.0724
89603W        W90467  28.568  14.049   5.583  0.2059 -0.0977 -0.0269
89604W        W90468  28.424  15.953   6.636  0.1276  0.1526  0.1741
89605W        W90469  28.869  15.245   7.141  0.0259  0.0583  0.1129
89606W        W90470   0.478  12.372   8.114  0.0046  0.0663 -0.0727
89607W        W90471   1.460  14.717   3.420 -0.1570 -0.1683  0.0455
89608W        W90472   3.021  14.503   4.661  0.1991 -0.1948  0.1107
89609W        W90473   0.112  13.250   6.928 -0.1244 -0.0703 -0.3164
89610W        W90474  24.896  14.710   6.279  0.1198 -0.2028  0.1095
89611W        W90475  26.475  12.664   7.399 -0.0376  0.0045 -0.2929
89612W        W90476  28.344  15.565   3.226 -0.0713 -0.0906 -0.3776
89613W        W90477  24.937  12.078   7.026 -0.1908 -0.1225 -0.1683
89614W        W90478  27.353  14.593   5.184  0.1420  0.3118  0.2540
89615W        W90479  24.359  13.488   5.292 -0.0249 -0.2786 -0.2288
89616W        W90480  25.673  13.624  12.329  0.1329 -0.1115 -0.0833
89617W        W90481  25.788  13.614  11.496  0.1976  0.0569 -0.1733
89618W        W90482  28.491  12.272   7.084  0.1989  0.2271  0.0488
89619W        W90483   3.322  15.806  10.359 -0.0499  0.0259 -0.0106
89620W        W90484   1.070  14.370   8.829  0.1257  0.1371 -0.0676
89621W        W90485  24.176  12.653   9.359 -0.2179 -0.3409  0.0282
89622W        W90486  25.561  10.269   6.664  0.2520 -0.0557  0.2102
89623W        W90487  26.385  11.197   9.835  0.0401  0.2058  0.1155
89624W        W90488  27.781  15.651  12.563  0.0823 -0.2220  0.0708
89625W        W90489  26.648  11.224  10.608  0.2182 -0.0474 -0.0895
89626W        W90490  25.398  11.522  10.244  0.1922 -0.1842 -0.0664
89627W        W90491  26.416   9.413   8.486  0.1980  0.1734 -0.0256
89628W        W90492  28.269  13.015   5.862  0.0477 -0.4369 -0.2598
89629W        W90493  26.448  14.122   9.820  0.1679 -0.0550  0.4003
89630W        W90494  27.349   9.552  10.748  0.0281  0.0187  0.0179
89631W        W90495  26.427  14.869   9.097  0.0532  0.0733  0.1222
89632W        W90496  29.059  13.645   6.193  0.1397  0.1063 -0.0137
89633W        W90497  23.522  10.080   8.568 -0.0744 -0.2652 -0.0334
89634W        W90498  26.625  12.275  10.739 -0.0797  0.2491 -0.0506
89635W        W90499   0.841  13.465   8.890 -0.1586 -0.0108 -0.1163
89636W        W90500   1.859  11.070  10.387  0.1673 -0.3344  0.0144
89637W        W90501  26.694  10.339   9.375  0.1878  0.1515  0.0568
89638W        W90502  28.789  14.093   7.113  0.1368  0.0704 -0.2454
89639W        W90503  25.374  10.533   9.393 -0.1498 -0.1533 -0.0772
89640W        W90504  25.896  12.204   6.608 -0.0773  0.4431 -0.3952
89641W        W90505  26.334  12.121   8.567 -0.2180  0.0527  0.2101
89642W        W90506   0.426  12.231  10.421 -0.2009  0.1263  0.1314
89643W        W90507  25.132  10.414   8.181 -0.2342  0.3855 -0.0249
89644W        W90508  26.497  13.257  14.764 -0.0639  0.0718  0.0468
89645W        W90509  26.390  10.858   9.297 -0.1877  0.1213 -0.0708
89646W        W90510  27.399  11.718  10.467 -0.0006 -0.0366 -0.1127
89647W        W90511  28.193  16.825  12.474 -0.0926 -0.2291 -0.0021
89648W        W90512  25.622  15.994  12.218 -0.1082  0.0766  0.0893
89649W        W90513  28.150  13.575   9.773 -0.2309 -0.0352 -0.1849
89650W        W90514  24.145  12.107  11.564 -0.2003 -0.1798 -0.4172
89651W        W90515  27.565  12.707   8.877  0.3172 -0.1470 -0.4816
89652W        W90516  26.077   9.498   7.699  0.0978 -0.2264 -0.0031
89653W        W90517  28.134  14.382   8.628 -0.1687 -0.1110 -0.0663
89654W        W90518   1.200  13.085   8.847  0.2954  0.4138  0.5487
89655W        W90519  26.756  11.164   9.515 -0.0380 -0.0862 -0.1602
89656W        W90520   1.308  13.540   8.693 -0.0229 -0.0049  0.1635
89657W        W90521  28.219  12.366   9.567  0.3784 -0.0617 -0.0823
89658W        W90522   0.040  15.239  11.427 -0.1622  0.0134  0.0490
89659W        W90523  27.524  13.863   8.776  0.1177 -0.1942  0.0990
89660W        W90524  25.976  12.767   7.537  0.0923 -0.2708 -0.1154
89661W        W90525  26.209  16.159   6.446  0.0963  0.1444  0.3165
89662W        W90526  27.035   7.416  10.636  0.0798  0.2417 -0.0265
89663W        W90527   0.990  15.200  11.422  0.3087  0.0376  0.1356
89664W        W90528  28.122  11.868   6.886  0.0980  0.0823  0.0291
89665W        W90529   0.148  11.690   6.897  0.1863  0.3262 -0.1103
89666W        W90530  25.291  14.488   7.300  0.1093 -0.0850  0.2291
89667W        W90531  27.777   7.819   7.875 -0.1561  0.0259 -0.2800
89668W        W90532  28.660  15.713  11.831  0.0887  0.2731  0.1597
89669W        W90533  27.399  11.996   9.527 -0.0166 -0.1784 -0.0503
89670W        W90534  27.687  12.394   9.658 -0.2123 -0.1117 -0.0185
89671W        W90535  27.866  13.848  11.047 -0.3732 -0.2389  0.2075
89672W        W90536  23.391  11.910   7.974 -0.2149  0.0689 -0.0328
89673W        W90537  28.617  12.215   7.866  0.2932  0.1165  0.3126
89674W        W90538  25.637  13.111  11.385 -0.0896 -0.0166 -0.1476
89675W        W90539  26.694  13.093   7.515  0.0698  0.0311  0.0014
89676W        W90540  26.369  10.928   7.884 -0.0587  0.1844  0.0031
89677W        W90541  24.325  14.646  10.395 -0.1680 -0.0557  0.0476
89678W        W90542  28.226  14.211   9.086  0.0276 -0.3056 -0.0505
89679W        W90543  23.959  12.732   7.666 -0.1131  0.1555  0.1211
89680W        W90544  28.495  10.480   7.288 -0.0212  0.0558  0.1585
89681W        W90545   1.487   9.571   8.992 -0.1053 -0.2332  0.3328
89682W        W90546  26.736  12.844   6.473 -0.2807 -0.0511  0.2165
89683W        W90547  25.182  13.130   7.435 -0.0755 -0.0376  0.2743
89684W        W90548  27.054  16.237   5.592  0.1719 -0.0036 -0.1113
89685W        W90549  26.011  11.814  10.081 -0.0281 -0.0145 -0.0012
89686W        W90550   0.262  13.974  12.190 -0.2690 -0.0466  0.3884
89687W        W90551  26.716  11.909   8.317  0.1824 -0.0645  0.1705
89688W        W90552  26.991  11.699   7.189  0.0718  0.1993  0.6255
89689W        W90553   0.867  15.334  11.986 -0.1297  0.0476 -0.0778
89690W        W90554  28.394  13.094   7.668 -0.0485  0.0406  0.1612
89691W        W90555  28.053  13.243   9.357 -0.2311 -0.1005  0.1443
89692W        W90556  24.561  12.446   6.894  0.2319  0.2221 -0.1255
89693W        W90557   0.442  14.100   8.529  0.0632  0.0114 -0.0514
89694W        W90558  28.492  11.809   7.302  0.0753  0.0406 -0.0858
89695W        W90559  28.590  13.311   9.165  0.0705  0.0483  0.0751
89696W        W90560  26.052   9.987  10.420  0.1638  0.3715  0.1550
89697W        W90561  26.260  13.641   9.927  0.0538 -0.1155  0.1723
89698W        W90562  28.739  11.611   8.623 -0.2789  0.2456 -0.0862
89699W        W90563  29.068  13.457   9.268 -0.2030 -0.3725  0.0561
89700W        W90564  27.047  14.380   9.884 -0.0856  0.0017 -0.0725
89701W        W90565  26.291   9.161   8.038  0.1219  0.0095  0.3386
89702W        W90566  28.084  15.412  13.379  0.0807  0.1363  0.2107
89703W        W90567  28.981  11.012   9.717 -0.0421 -0.0687 -0.0127
89704W        W90568  28.680  13.740  10.518  0.2080  0.1958 -0.0221
89705W        W90569   1.370  13.560  10.022 -0.1203  0.0808  0.0223
89706W        W90570  25.674  11.135   6.938  0.0222  0.0486 -0.3164
89707W        W90571   1.086  15.636  12.462 -0.1442 -0.0807  0.0542
89708W        W90572  27.282  11.743   9.055 -0.2878  0.0084 -0.3227
89709W        W90573  25.629  10.515   7.126  0.1940  0.3127 -0.1510
89710W        W90574  27.024  13.338   8.278 -0.0360 -0.0131  0.0982
89711W        W90575   0.910  12.025   8.191 -0.5223  0.0853 -0.0273
89712W        W90576  27.611  12.081   8.190 -0.0511  0.2679 -0.0370
89713W        W90577  27.706  13.630  12.116  0.1989 -0.4185 -0.0239
89714W        W90578  23.048  12.591   6.459  0.0766  0.0151 -0.3326
89715W        W90579  28.520  11.334   7.806 -0.0746 -0.2128 -0.1264
89716W        W90580   0.649  14.555   8.541  0.0116 -0.0392  0.1202
89717W        W90581  25.257  11.925   8.553  0.0301  0.1003 -0.2685
89718W        W90582  27.703  12.171   7.667  0.1882  0.3977  0.0438
89719W        W90583   2.500  13.067   8.584  0.2037  0.4613  0.0234
89720W        W90584  28.639  10.638   8.374  0.0721  0.1727  0.0412
89721W        W90585  28.079  13.618  12.474  0.0246  0.0787  0.0716
89722W        W90586  28.026  15.952   8.181  0.3105 -0.2503 -0.3270
89723W        W90587  27.595  12.977   9.345 -0.1024  0.0936  0.2785
89724W        W90588  25.434  11.074   7.358  0.1214  0.0805 -0.1062
89725W        W90589  25.719  15.871   9.570  0.1778 -0.0470 -0.2430
89726W        W90590  24.827  14.676   8.590  0.2253  0.0000  0.0527
89727W        W90591  28.225  14.793   9.411 -0.0003  0.2171  0.1546
89728W        W90592  27.835  10.800   7.338  0.4418 -0.4079 -0.1302
89729W        W90593  28.932  15.012   9.450 -0.2122 -0.1376 -0.1444
89730W        W90594  28.305  13.726   7.989 -0.0736 -0.3989  0.0188
89731W        W90595  25.456  10.847   6.577 -0.1468 -0.1406 -0.0209
89732W        W90596  27.350  13.241  10.736 -0.2320 -0.1515 -0.2286
89733W        W90597  27.882  12.092   9.223 -0.0484 -0.1094  0.1444
89734W        W90598  24.976  12.559   7.859 -0.2009  0.1504 -0.0182
89735W        W90599  26.545  12.106   7.486 -0.2899  0.1684 -0.1760
89736W        W90600  28.464  13.036   8.738 -0.0692  0.2092 -0.1096
89737W        W90601  29.093  16.149  10.472  0.1646 -0.2132  0.0313
89738W        W90602   0.135  15.422   6.922 -0.1094 -0.2334  0.1879
89739W        W90603   0.044  12.107   7.797 -0.1406  0.3222  0.1244
89740W        W90604  27.486  13.322   8.027 -0.4693  0.2370  0.0072
89741W        W90605  27.925  12.368   8.536  0.3469  0.2744  0.1227
89742W        W90606  24.627  14.282   8.405  0.2238  0.0980 -0.2242
89743W        W90607  26.564  12.585  10.049 -0.3904 -0.2580 -0.0805
89744W        W90608   1.952  13.511   7.914 -0.0718 -0.1468  0.1444
89745W        W90609  26.332  13.029   7.098 -0.1628 -0.1115  0.2478
89746W        W90610   1.936  12.410   9.695 -0.2032  0.2061  0.0680
89747W        W90611  28.295  13.056  12.370 -0.0621 -0.1348  0.1113
89748W        W90612  27.308  15.341   8.022 -0.0012  0.0893 -0.0464
89749W        W90613  28.038   9.057   8.802 -0.1813 -0.4919  0.3875
89750W        W90614   0.132  15.022  12.380  0.1328  0.1385  0.1211
89751W        W90615  27.077  10.858  10.405 -0.1038  0.0629  0.1987
89752W        W90616  27.075  11.128   6.967  0.1727 -0.0999  0.1528
89753W        W90617   1.572  11.512  10.592  0.0025  0.2376 -0.0063
89754W        W90618  28.285  14.560  11.323 -0.1611  0.0106 -0.1924
89755W        W90619  24.521  14.428   6.011 -0.1053 -0.0518  0.3291
89756W        W90620  27.389  12.433   5.674  0.1385  0.0576 -0.1080
89757W        W90621  27.453  11.533   8.350  0.0509  0.1469 -0.1376
89758W        W90622  25.990  15.049   7.935 -0.0922 -0.1788  0.0241
89759W        W90623  25.470  12.225   8.157  0.2959 -0.3003  0.2316
89760W        W90624  25.990  12.377   8.190  0.1943 -0.0828  0.1438
89761W        W90625  26.056  11.729   7.592 -0.0730 -0.1604  0.1057
89762W        W90626  27.837  10.571   8.221 -0.2491  0.1942 -0.1564
89763W        W90627  27.963  11.934   9.716  0.2025  0.0108  0.0845
89764W        W90628   1.123  15.299   9.608  0.0472 -0.0160  0.0443
89765W        W90629  28.451  15.134  13.127 -0.0841 -0.1479  0.4056
89766W        W90630  28.675  14.264   9.738  0.3461 -0.1003 -0.0198
89767W        W90631  26.343   9.214   9.489  0.0779 -0.2447 -0.1415
89768W        W90632  27.435  15.622  10.467  0.2137  0.2015 -0.1172
89769W        W90633  25.752  12.041   8.533  0.0154 -0.0084  0.1993
89770W        W90634   0.232  11.351   8.171 -0.1364  0.1801  0.1098
89771W        W90635  25.750  10.542   8.546 -0.1953  0.2502 -0.1286
89772W        W90636  24.632  12.542   9.363 -0.2429  0.1296 -0.1345
89773W        W90637  26.933  13.831   8.309  0.0005 -0.1185  0.0954
89774W        W90638  25.841  10.678   9.007 -0.0664 -0.0829  0.0284
89775W        W90639  28.301  10.959   7.022 -0.3769  0.3059  0.0871
89776W        W90640   0.455   9.686   8.261  0.2995 -0.4538 -0.0772
89777W        W90641   0.529  13.684  11.132  0.2790 -0.3550 -0.1917
89778W        W90642  25.635  12.223  10.878 -0.1544  0.1008 -0.1646
89779W        W90643  27.855  13.316  10.369  0.1003 -0.0325  0.2317
89780W        W90644  24.581  13.454  11.480  0.0926 -0.1921  0.1440
89781W        W90645  25.291  11.528   7.501  0.0736 -0.0256 -0.2959
89782W        W90646  23.503  10.971   8.915 -0.0908  0.0942  0.0361
89783W        W90647  26.223  15.963   9.191 -0.0651 -0.1435  0.1439
89784W        W90648   0.493  16.501  11.304 -0.0191  0.2278 -0.1679
89785W        W90649  23.668  14.244   6.846  0.2678  0.3680  0.0146
89786W        W90650  27.323  10.451  10.422 -0.3067  0.0381  0.0601
89787W        W90651   1.251  13.878  10.477 -0.1523 -0.0682  0.1868
89788W        W90652  28.515  13.258   8.152 -0.2701 -0.3131 -0.1973
89789W        W90653  27.938  11.657   8.214  0.0649 -0.1927 -0.0890
89790W        W90654  28.602  10.036   6.549  0.3214  0.1164 -0.3538
89791W        W90655  28.896  10.483   8.790 -0.1228 -0.0491  0.2580
89792W        W90656  25.931  17.801  11.230  0.0725 -0.1014 -0.2442
89793W        W90657  27.134  13.798   9.722 -0.1343  0.2441 -0.2516
89794W        W90658  27.300  14.378   9.402  0.1142 -0.1860 -0.2687
89795W        W90659  28.466  12.093   8.623 -0.1237  0.0351 -0.2865
89796W        W90660  26.452  12.479   8.300  0.1912 -0.1667 -0.1598
89797W        W90661   1.686  13.871   8.882 -0.0516 -0.0976 -0.1875
89798W        W90662  25.299  12.018   5.753  0.0618 -0.0724 -0.0075
89799W        W90663  27.112   8.647   7.064  0.1979 -0.0574  0.0884
89800W        W90664  27.857  10.752   6.058 -0.0810  0.0421 -0.1072
89801W        W90665   1.077  11.939  10.597  0.2660 -0.2326 -0.3723
89802W        W90666  28.149  10.380   6.950  0.1941 -0.3506 -0.2194
89803W        W90667  22.259  10.206   6.635 -0.1836 -0.1228 -0.0718
89804W        W90668  29.018  14.746   9.017  0.0745  0.0291  0.1753
89805W        W90669  26.723  14.714   8.467 -0.1046 -0.0394 -0.0667
89806W        W90670  25.555  12.508   7.704 -0.0524  0.2974  0.1125
89807W        W90671  23.015  14.698   5.212  0.1722  0.1908 -0.1842
89808W        W90672  25.319  12.365  11.393 -0.0963  0.1371 -0.1892
89809W        W90673  28.758  11.175  10.297  0.3287 -0.1616  0.2095
89810W        W90674  26.748   9.958   8.709 -0.2684 -0.1476 -0.4182
89811W        W90675  24.812  10.291   7.471 -0.0170  0.0126 -0.1869
89812W        W90676  27.016  11.278   7.501 -0.0701 -0.0146 -0.0631
89813W        W90677  27.009   8.051  10.866 -0.1305  0.2330 -0.2622
89814W        W90678  26.149  12.332  10.159  0.3585  0.0887  0.1777
89815W        W90679  27.259  11.246   9.333  0.2014  0.1975 -0.0226
89816W        W90680  25.184  10.536   6.825 -0.0700 -0.1058  0.0103
89817W        W90681  27.666  10.856   7.827 -0.0120  0.0215 -0.0297
89818W        W90682   0.561  12.817   9.887 -0.0076 -0.3028  0.1110
89819W        W90683  24.062  12.176   9.169  0.3393 -0.0444  0.0785
89820W        W90684  28.865  12.493   8.672  0.1577  0.1722  0.0768
89821W        W90685  24.133  13.599   8.720 -0.4096 -0.2122  0.0833
89822W        W90686  25.050  11.506   8.375 -0.2879 -0.3083  0.1895
89823W        W90687  27.063  12.567   7.194  0.0599  0.0021  0.0911
89824W        W90688   0.504  12.399   5.495  0.0010  0.0409 -0.3188
89825W        W90689  26.229  14.028   6.118 -0.0840 -0.1394  0.1030
89826W        W90690  27.127  13.012  12.161 -0.1886  0.0730 -0.1713
89827W        W90691  26.194  11.733   8.310  0.2082  0.0948 -0.1805
89828W        W90692  27.024  12.632   8.908 -0.0695  0.2663  0.1716
89829W        W90693   0.919  10.704  10.343  0.1926  0.4266 -0.0679
89830W        W90694   0.526  10.833  11.070 -0.0315 -0.0939 -0.2332
89831W        W90695  27.745  14.641   9.400 -0.3381  0.1267 -0.1903
89832W        W90696  25.987  11.431   9.208  0.2565  0.0586 -0.0853
89833W        W90697  28.431  13.779   7.393  0.0955  0.0471 -0.1719
89834W        W90698  29.073  14.513  10.059 -0.0241 -0.1073 -0.1987
89835W        W90699  26.873  15.550  11.310 -0.2999  0.0691  0.0465
89836W        W90700   1.429  11.170  11.184 -0.0622 -0.0052  0.3498
89837W        W90701   0.574  12.908   8.916  0.3598 -0.2271 -0.0609
89838W        W90702  27.509  13.749  13.332  0.2184 -0.0648 -0.0840
89839W        W90703  26.664  10.293   7.208 -0.0651 -0.2199  0.0020
89840W        W90704  25.977  12.270   7.547  0.0239  0.1258  0.0861
89841W        W90705  27.012  13.313  10.375  0.0610  0.1368  0.0603
89842W        W90706  26.519  12.255  11.715  0.0789 -0.0832 -0.1916
89843W        W90707  27.289  10.829   7.456  0.0093  0.1128 -0.0197
89844W        W90708   0.394  14.813   8.173  0.1623 -0.5053  0.1922
89845W        W90709  28.023  13.439   7.611 -0.0552 -0.0018 -0.2822
89846W        W90710   0.512  13.584   8.494  0.1648  0.2965  0.1411
89847W        W90711  27.632  12.111  12.971 -0.1328  0.0501 -0.0295
89848W        W90712  27.525  14.472   7.767  0.1081 -0.0306 -0.0386
89849W        W90713   1.011  14.312   8.286 -0.2334 -0.0726  0.1305
89850W        W90714  26.825  13.629  11.668 -0.0515 -0.2699  0.4049
89851W        W90715  27.762  12.954   8.413 -0.2232  0.1193  0.0530
89852W        W90716  26.880  10.614   6.377  0.0951  0.0642 -0.1352
89853W        W90717  28.294  11.621   9.082  0.3775  0.1514  0.2693
89854W        W90718  26.562  14.065  11.536 -0.1838  0.2577  0.1464
89855W        W90719   1.828  16.338  10.968  0.1745  0.0570 -0.6982
89856W        W90720  27.991  14.161   7.709 -0.0138 -0.1406 -0.0202
89857W        W90721  25.602  13.721   7.826  0.1549  0.0126  0.1757
89858W        W90722  27.219  11.963   8.475  0.1089 -0.0986  0.1042
89859W        W90723  23.995  11.891   7.998  0.5043 -0.0063  0.1639
89860W        W90724  28.111  10.893   9.454  0.3381 -0.1671 -0.0541
89861W        W90725   0.009  12.375   9.046 -0.1916  0.0969  0.1255
89862W        W90726   0.355  12.483   7.597 -0.0583 -0.4597  0.1337
89863W        W90727  26.615  13.021  10.393  0.0171  0.0520  0.0375
89864W        W90728   1.072  17.580   8.075 -0.0320 -0.1396 -0.1543
89865W        W90729  26.361  12.843   5.973  0.0334 -0.4544  0.2491
89866W        W90730  27.101  13.095   9.175 -0.1180 -0.2632 -0.0376
89867W        W90731  27.430  14.102  11.220  0.0168  0.0349 -0.2100
89868W        W90732  29.132  13.504  11.969  0.0433  0.0523 -0.2875
89869W        W90733  28.229  12.867   8.327 -0.0697  0.1464 -0.1138
89870W        W90734  26.604  11.820   6.841 -0.3940  0.1536  0.2258
89871W        W90735   0.437  15.257   6.229  0.0509  0.2316 -0.2505
89872W        W90736  27.719  11.899   8.724 -0.0986  0.2760  0.1200
89873W        W90737  26.030  10.133  12.764  0.0485 -0.3739 -0.0509
89874W        W90738  28.812  13.289  10.186 -0.1582 -0.0040  0.0382
89875W        W90739  28.358  12.499   8.811  0.0621  0.0274  0.2298
89876W        W90740  22.337  13.595   9.036 -0.0760 -0.1281 -0.1429
89877W        W90741  27.526  10.803  10.138 -0.0243  0.0382  0.1111
89878W        W90742  25.120  11.956  10.147 -0.0758 -0.2974  0.0970
89879W        W90743  27.361  11.960  10.026 -0.0092 -0.0455 -0.2589
89880W        W90744  28.607  12.778   7.998 -0.2107 -0.1571 -0.1169
89881W        W90745  24.515  14.392  13.468 -0.0865  0.0280  0.4068
89882W        W90746   0.990  15.005  10.017  0.3313  0.0798  0.1417
89883W        W90747  26.776  13.501   9.146  0.2031 -0.0806  0.0293
89884W        W90748  27.075  11.843   7.989  0.0352  0.3529 -0.2652
89885W        W90749  26.820  14.175   9.398 -0.0128 -0.0914  0.1120
89886W        W90750  27.862  11.730   7.432  0.2126 -0.0797 -0.1404
89887W        W90751  24.616  15.723  12.976 -0.0585  0.2938 -0.2903
89888W        W90752  27.285   9.309   8.125  0.1247 -0.2811  0.0849
89889W        W90753  27.514  13.475   7.534 -0.1650  0.4099 -0.1040
89890W        W90754  28.823  14.707   7.260 -0.4060  0.0656  0.0966
89891W        W90755  27.623   8.755   9.326  0.1585 -0.2794 -0.1421
89892W        W90756  27.178  10.477   9.962  0.1642  0.0624  0.1555
89893W        W90757  26.713  10.732   9.802 -0.3366  0.2061 -0.1727
89894W        W90758  27.543  14.116   5.287 -0.1029  0.2254  0.1289
89895W        W90759  27.770  14.313   7.158 -0.0233  0.0469 -0.0592
89896W        W90760  28.128  12.098   8.124 -0.1891 -0.1665  0.1428
89897W        W90761  24.524  10.482   9.331  0.0761  0.0021 -0.0285
89898W        W90762  25.780  12.510   7.043 -0.1940 -0.3348 -0.0881
89899W        W90763  26.057  14.158   9.037  0.1475  0.0128 -0.0632
89900W        W90764  27.449  11.450   6.617  0.0374 -0.2592  0.0239
89901W        W90765  27.455  13.703   8.321 -0.0439  0.0740 -0.0970
89902W        W90766   1.696  13.852   9.808 -0.3450  0.1434  0.0678
89903W        W90767  26.743  10.612  11.190  0.2345  0.5550 -0.2561
89904W        W90768  28.446  11.710   8.207  0.1384  0.0982  0.1629
89905W        W90769   2.186  12.843   8.952  0.2057 -0.2397  0.2583
89906W        W90770  24.004   9.793   7.164 -0.1711  0.0894  0.1085
89907W        W90771  27.229   9.462   5.718  0.0605  0.1623  0.3427
89908W        W90772   0.130  14.486   8.523 -0.2898  0.2287 -0.3650
89909W        W90773  28.550  13.670   6.504 -0.0464 -0.0205  0.0092
89910W        W90774  28.798  14.247   8.282  0.4284  0.1630 -0.0971
89911W        W90775  27.997  11.312   7.827  0.1267 -0.0544  0.3757
89912W        W90776  26.592  13.614   8.698 -0.2959 -0.0698  0.2673
89913W        W90777   1.298  12.963   9.320  0.1728 -0.0622 -0.1879
89914W        W90778   0.711  11.021   9.403  0.1504 -0.3223 -0.1495
89915W        W90779  25.804  14.331   7.344 -0.2639  0.1433  0.0576
89916W        W90780  27.870  15.008   9.721 -0.2954 -0.2080  0.0906
89917W        W90781  26.227  12.715  12.598  0.0210 -0.0442  0.1480
89918W        W90782  26.366  11.578   9.483  0.2905  0.2109 -0.2992
89919W        W90783  27.703  15.445  10.915  0.0145 -0.1210  0.1768
89920W        W90784  28.548  14.414   6.807  0.2033 -0.2101  0.0042
89921W        W90785  28.007  13.852  10.568  0.2740 -0.2407  0.1629
89922W        W90786  28.516  13.267   9.677 -0.1040 -0.1135 -0.1812
89923W        W90787  28.301  11.780   7.781  0.2869 -0.0895 -0.0553
89924W        W90788  27.829  12.157   7.121 -0.0368 -0.0055  0.1006
89925W        W90789   0.427  14.625  10.984  0.1635  0.0909  0.0938
89926W        W90790  26.742   8.290   5.562 -0.2072  0.1554  0.2964
89927W        W90791  24.413  13.213  10.099  0.0017 -0.0484  0.3058
89928W        W90792  25.090  11.268   9.361 -0.0902  0.2862 -0.1070
89929W        W90793   1.362  12.849  10.588  0.3098 -0.0856  0.0044
89930W        W90794  26.516  12.104   9.051 -0.1681 -0.0746 -0.0901
89931W        W90795  28.437  15.317  13.647 -0.0559  0.0787  0.1628
89932W        W90796  23.812  10.501   7.135 -0.2698 -0.0983  0.0413
89933W        W90797   0.172  10.203   6.305 -0.1542 -0.0996  0.0197
89934W        W90798   2.245  12.742  11.069 -0.2885 -0.2728 -0.0521
89935W        W90799  27.300  12.862   6.810  0.3144  0.2359 -0.1751
89936W        W90800  28.179  13.418   8.837  0.1460  0.1762 -0.2050
89937W        W90801   1.333  14.013   7.981  0.0113  0.0098 -0.1408
89938W        W90802  28.332  12.889  13.155  0.0044 -0.2062 -0.0339
89939W        W90803  28.455  11.609   5.693  0.1944 -0.0341  0.0315
89940W        W90804  25.696  13.593   5.504 -0.0719  0.2374  0.2270
89941W        W90805  25.865  14.701   8.954 -0.1725 -0.3155 -0.0741
89942W        W90806  25.914  10.084   8.410  0.0408 -0.0796  0.0580
89943W        W90807  23.869  15.007   6.406  0.1512 -0.2718 -0.1924
89944W        W90808  28.383  10.940   7.540  0.0803 -0.0491 -0.2181
89945W        W90809  24.978  10.739   7.731 -0.2381 -0.1400 -0.4786
89946W        W90810  25.770  12.778  10.612  0.0151  0.4018 -0.0415
89947W        W90811  28.367  11.454   6.808  0.4208 -0.2710  0.1315
89948W        W90812  27.671  10.990   9.149  0.0896 -0.1961  0.1149
89949W        W90813  27.019  11.826  11.360  0.0675 -0.1837 -0.2061
89950W        W90814   0.307  13.508  12.967  0.2444  0.1781  0.1469
89951W        W90815   0.983  15.509  10.122  0.1692 -0.1709  0.2929
89952W        W90816  29.131  13.889   9.785  0.0262 -0.1651  0.3207
89953W        W90817  28.483  14.705   8.351  0.0875  0.1287 -0.0224
89954W        W90818  26.206  11.229   7.476 -0.0423 -0.0470 -0.0273
89955W        W90819  29.043  10.486  11.828  0.1243  0.3457 -0.0755
89956W        W90820  27.922  14.645   7.527 -0.2212 -0.1905 -0.4579
89957W        W90821  25.325  12.920   9.200 -0.0296 -0.3340  0.1846
89958W        W90822  27.240   9.889   9.867  0.2786  0.1201  0.1139
89959W        W90823  25.879  14.586   8.082 -0.0500 -0.0334  0.6860
89960W        W90824  27.563  14.815   7.238 -0.0333 -0.2052  0.1924
89961W        W90825   2.461  13.566  11.120  0.3749  0.0380  0.3267
89962W        W90826  26.284  12.647   6.578  0.3817  0.2880 -0.3398
89963W        W90827  27.842  11.443   8.987 -0.1171 -0.2745 -0.0820
89964W        W90828  28.235  17.857   8.168 -0.2404  0.0989  0.0157
89965W        W90829  25.569  11.095   8.593  0.1400 -0.1229  0.0875
89966W        W90830  27.826  14.064   8.358 -0.0353  0.0290 -0.1010
89967W        W90831  28.376  11.859  11.547 -0.0165  0.3993 -0.0906
89968W        W90832  28.810   9.864   8.035  0.0759  0.3319 -0.2348
89969W        W90833  27.303  15.273   8.929 -0.2109  0.1607 -0.0937
89970W        W90834  27.732  12.577   8.129 -0.0553  0.1662 -0.0462
89971W        W90835  24.886  10.347   9.739 -0.0544  0.2456  0.3124
89972W        W90836  27.740  12.875  11.591  0.0989 -0.2230 -0.3523
89973W        W90837  26.173  13.796  12.357 -0.1805  0.0256 -0.0223
89974W        W90838  24.267  12.102   9.643 -0.4324  0.3202 -0.0770
89975W        W90839  25.431  10.692   7.652 -0.1762  0.0304  0.3002
89976W        W90840  25.760  13.317   7.620 -0.1826 -0.3220 -0.1232
89977W        W90841  27.530  13.648  10.546 -0.6418  0.2853  0.0196
89978W        W90842  27.309  14.074   8.030 -0.2227  0.2259 -0.0203
89979W        W90843  27.953  13.120   7.966 -0.2777  0.0643  0.1506
89980W        W90844   0.737  17.761  11.953 -0.1995 -0.0592 -0.3309
89981W        W90845   3.566  13.799  10.812  0.1561 -0.1003  0.1116
89982W        W90846  28.939  13.009  11.133 -0.0018  0.1485 -0.1849
89983W        W90847  25.832  11.355   5.511  0.3225  0.1831 -0.1133
89984W        W90848  24.957  11.174   7.453  0.1019  0.0838  0.0526
89985W        W90849  27.516  10.208   8.341  0.1136  0.2919 -0.0981
89986W        W90850  26.276  12.558   7.858 -0.3241 -0.1137 -0.0730
89987W        W90851   0.189  11.255   6.161 -0.0238  0.0868 -0.1708
89988W        W90852  27.338  12.244   8.900 -0.1083  0.1919 -0.0257
89989W        W90853  28.134  11.485  11.808  0.2425 -0.0575  0.1338
89990W        W90854  28.180  15.074   7.838  0.1628 -0.2565 -0.1992
89991W        W90855  26.630  11.678  11.663 -0.1297  0.0888  0.0425
89992W        W90856  24.568  12.304   8.925 -0.1376  0.2826  0.1252
89993W        W90857  27.167   9.549  10.254  0.0069 -0.1206  0.0600
89994W        W90858  28.663  13.874   8.999  0.0942  0.1831  0.0942
89995W        W90859  25.512   9.620   9.358  0.3362 -0.0388 -0.0832
89996W        W90860  25.510  11.037   9.137 -0.2555  0.2413 -0.0346
89997W        W90861  26.574  13.565   4.866  0.1011  0.0793 -0.2435
89998W        W90862  25.148  10.691  10.524  0.2151  0.1789 -0.2903
89999W        W90863  27.066  13.267  11.582 -0.0179 -0.2843 -0.0738
90000W        W90864  28.550  14.372  12.084  0.0516 -0.2345  0.0829
90001W        W90865  28.748  13.517   7.721 -0.0948  0.1440  0.0269
90002W        W90866  27.736  14.533   5.563  0.2008  0.1672 -0.0541
90003W        W90867   0.384  14.121   9.970 -0.3020 -0.2888 -0.1392
90004W        W90868  28.891  12.855   9.907 -0.2033 -0.0142 -0.1164
90005W        W90869  27.702  10.223   6.726 -0.1143 -0.0947  0.2700
90006W        W90870  27.651  11.467  12.146  0.1021  0.0579  0.2590
90007W        W90871  28.871  14.442   7.720 -0.2948  0.0283  0.1460
90008W        W90872  24.901  12.111   7.555  0.4642  0.3113  0.1171
90009W        W90873   3.491  14.163  11.623 -0.2544  0.2477  0.4406
90010W        W90874  27.960  14.875   8.984 -0.0937  0.2611  0.0285
90011W        W90875  27.175  12.403   9.824 -0.0637  0.2882 -0.0783
90012W        W90876  27.998  14.741   7.024  0.0675  0.0915  0.2369
90013W        W90877  27.292  14.550  11.771 -0.0552 -0.1775  0.1846
90014W        W90878   0.442  12.058   9.512 -0.1187 -0.1144 -0.1601
90015W        W90879  27.405  14.721   9.789  0.0806 -0.1006  0.0118
90016W        W90880  25.303  16.481  16.582 -0.1686 -0.2207  0.1879
90017W        W90881  23.525  12.849  12.678  0.3277  0.0355 -0.3247
90018W        W90882   1.574  12.323  10.569 -0.2052  0.0466 -0.0068
90019W        W90883   0.517  12.355  15.734  0.0144 -0.0208  0.1009
90020W        W90884  27.277  13.183  14.868 -0.0207  0.0543 -0.1913
90021W        W90885  25.763  13.350  13.352 -0.2166  0.2507  0.0493
90022W        W90886  28.321  13.107  10.645  0.2362  0.1173 -0.1021
90023W        W90887  26.594  14.083  12.417  0.0794 -0.1279  0.2394
90024W        W90888  25.971  16.372  12.143  0.0301  0.4214 -0.0826
90025W        W90889  24.906  13.192  16.202 -0.2793  0.0109  0.0656
90026W        W90890  23.848  11.340  12.655 -0.2746  0.1502  0.2712
90027W        W90891  25.157   9.917  12.862  0.0795 -0.0420 -0.0895
90028W        W90892  28.763  11.536  14.609  0.0068  0.1919 -0.0484
90029W        W90893   1.023  10.773  14.991  0.0063  0.0839 -0.2666
90030W        W90894  25.301  11.622  13.057 -0.0111 -0.2213 -0.2117
90031W        W90895  26.627  13.777  14.883 -0.1015 -0.2047  0.2369
90032W        W90896  26.315  12.703  12.015  0.4833  0.1311  0.1156
90033W        W90897  25.508  10.817  10.977 -0.2910  0.0171  0.2997
90034W        W90898  25.195  12.190  15.963 -0.1967 -0.1762 -0.3819
90035W        W90899  26.062  13.010  12.987  0.3516  0.0253 -0.1394
90036W        W90900   0.068  11.289  14.725  0.2941  0.1620 -0.2158
90037W        W90901  24.320  10.324  12.620  0.1088  0.1680 -0.0192
90038W        W90902  28.988  13.397   9.754  0.3087 -0.1446  0.3165
90039W        W90903  24.674  14.079  12.108 -0.1299  0.2291 -0.2628
90040W        W90904  25.832  12.480  12.289  0.0490 -0.0370 -0.0262
90041W        W90905  27.347  13.217  13.094 -0.1827  0.1491  0.0038
90042W        W90906   0.706  11.713  15.823  0.1931  0.2643  0.0579
90043W        W90907  24.968  14.882  13.460  0.2211 -0.1418  0.3804
90044W        W90908  25.947  15.031  13.336 -0.1045  0.2578 -0.0838
90045W        W90909  26.548  11.703  14.968 -0.3294  0.0365 -0.2519
90046W        W90910  27.265  12.551  16.436  0.3010 -0.2030 -0.1006
90047W        W90911  26.464  12.875  11.037 -0.1493  0.3353 -0.0858
90048W        W90912  25.677  13.655  14.506 -0.0100 -0.0851 -0.3341
90049W        W90913  25.210  14.887  14.007  0.1522  0.0309  0.0702
90050W        W90914  24.666  11.372  13.429 -0.1112 -0.0533  0.0705
90051W        W90915  24.854  14.050  13.816  0.3786 -0.3787 -0.0565
90052W        W90916  25.636  13.258  10.902 -0.0216  0.2060 -0.4071
90053W        W90917  27.345  13.516  12.542  0.0556  0.1324  0.1061
90054W        W90918   0.448  12.348  13.722 -0.2549  0.0570  0.4546
90055W        W90919  28.442  12.763  11.986 -0.1334 -0.2277 -0.1931
90056W        W90920  27.854  12.449  10.632 -0.2812  0.1250 -0.0054
90057W        W90921   0.797  13.414  14.518  0.0605 -0.4424  0.1408
90058W        W90922  25.339  16.046  16.802 -0.0121  0.0337 -0.0860
90059W        W90923  28.282  13.289  14.927  0.1744 -0.1082 -0.1902
90060W        W90924  24.560  15.969  14.217  0.0579 -0.0875  0.0427
90061W        W90925  26.736  11.816  14.230  0.1985 -0.0371 -0.3369
90062W        W90926  25.446  11.276  13.605  0.0704  0.2780  0.0215
90063W        W90927  26.745  14.200  16.686 -0.1000  0.1046  0.0161
90064W        W90928  25.765  13.833  13.701  0.1620 -0.4779  0.0506
90065W        W90929  25.518  10.669   9.838  0.1174  0.2007 -0.1571
90066W        W90930  27.827  13.204  12.339 -0.3666  0.0006  0.0474
90067W        W90931  24.922  12.987   9.461 -0.1603  0.1559 -0.1898
90068W        W90932  26.888  14.976  12.880 -0.0663 -0.1368 -0.2056
90069W        W90933   2.360  13.202  10.768  0.0689  0.1725  0.2835
90070W        W90934  27.310  11.403  12.484 -0.2640 -0.1194  0.0642
90071W        W90935  26.397  13.751  11.159  0.2022  0.0211  0.0291
90072W        W90936  25.850  10.559  11.554 -0.0096  0.2668  0.1532
90073W        W90937  26.952  10.058  15.164  0.2732 -0.2993  0.0843
90074W        W90938  24.638  14.017  10.640 -0.0666  0.1893 -0.4929
90075W        W90939  28.825  13.675  11.608  0.0148  0.1244  0.0837
90076W        W90940  27.237  12.312   8.002 -0.0109 -0.5177  0.2777
90077W        W90941  24.858  15.046  14.383 -0.2041  0.2367  0.1575
90078W        W90942  26.101  14.383  12.375 -0.1253 -0.3326 -0.4023
90079W        W90943  26.964  12.537  16.043 -0.2725 -0.2647 -0.1419
90080W        W90944  28.510   9.599  14.215  0.1475 -0.1991 -0.2650
90081W        W90945  28.544  10.222  12.234  0.0628  0.0668 -0.1102
90082W        W90946  25.437  12.490   8.992  0.3377 -0.3253  0.0520
90083W        W90947  24.182  11.590  11.442  0.2907  0.3426 -0.1919
90084W        W90948  28.159  13.108  13.895  0.2367 -0.1832 -0.0638
90085W        W90949  27.562  14.087  11.859 -0.1723 -0.2175 -0.0452
90086W        W90950  26.834  13.892  15.415 -0.2421  0.2629  0.1730
90087W        W90951  26.124  13.307  12.569  0.0464 -0.2594 -0.0042
90088W        W90952   0.823  14.601  11.296 -0.0222  0.0692  0.1014
90089W        W90953  25.367  13.935  11.986  0.0500  0.0087  0.0561
90090W        W90954   2.182  14.117  12.997  0.1382 -0.0400 -0.0338
90091W        W90955  28.250  13.562  11.973  0.2976  0.0552  0.1123
90092W        W90956  24.763  12.187   9.705  0.2042 -0.0956  0.2124
90093W        W90957  25.359  13.553  14.922 -0.0265  0.1175  0.1015
90094W        W90958  27.776  15.544  11.866 -0.0740 -0.1747 -0.0337
90095W        W90959  24.564  12.443   8.219 -0.2550  0.1345  0.0077
90096W        W90960  26.664  12.553  12.915  0.1494 -0.1406  0.2769
90097W        W90961  24.876  11.373  14.734 -0.0606  0.1087  0.0608
90098W        W90962  25.041   8.659  12.765 -0.3581 -0.3101 -0.0932
90099W        W90963  27.556  12.257  12.419  0.2141 -0.1930  0.1141
90100W        W90964  26.348  11.500  13.967  0.0257 -0.4194 -0.2699
90101W        W90965  29.089  14.454   9.536 -0.2510  0.0586 -0.3524
90102W        W90966  28.003  13.687  15.141 -0.1451  0.2379  0.3318
90103W        W90967   0.612  11.614  17.495 -0.0117 -0.0477 -0.0183
90104W        W90968  27.536  13.025  12.682  0.0649  0.0627  0.5115
90105W        W90969   0.511  11.215  14.457 -0.0186 -0.1274  0.2513
90106W        W90970  25.309  13.269  13.166  0.1688 -0.1482  0.3421
90107W        W90971  28.313  12.541  13.835  0.0870 -0.0957 -0.0983
90108W        W90972  26.996  16.277  12.376 -0.3433  0.0683 -0.0545
90109W        W90973  25.245  14.787  10.099 -0.1541  0.1038 -0.0787
90110W        W90974  27.725  12.791  13.090  0.1359  0.1468  0.3403
90111W        W90975  28.306  13.479  10.302 -0.0268 -0.0977 -0.3199
90112W        W90976   1.121  12.468   9.575  0.2914  0.1740  0.2399
90113W        W90977  23.520  14.444  11.305  0.4884 -0.0788 -0.0381
90114W        W90978  25.755  11.198  10.417  0.0628  0.0878  0.0499
90115W        W90979   0.794  11.541  12.203 -0.1160 -0.0657 -0.0935
90116W        W90980   1.074  12.965   9.777 -0.1465  0.0987  0.0090
90117W        W90981  24.636  12.554  14.198 -0.1818  0.2663 -0.0223
90118W        W90982  25.041  12.171   9.138 -0.1162 -0.0239 -0.0429
90119W        W90983  28.359  12.212  11.171  0.1827  0.1954 -0.0145
90120W        W90984  24.419  14.957  15.814 -0.2684  0.0385 -0.1318
90121W        W90985  26.223  13.343  12.079  0.2094 -0.0932 -0.0761
90122W        W90986  28.912  14.383  11.305  0.1289 -0.0968 -0.1846
90123W        W90987  26.088  12.658  15.079  0.0765  0.3012 -0.0836
90124W        W90988   0.131  12.616  10.193 -0.0589 -0.1201  0.0808
90125W        W90989  26.613  12.456  12.428  0.0760  0.0958 -0.0292
90126W        W90990  24.995  13.444  10.568  0.3999  0.2920 -0.2376
90127W        W90991  25.611  14.688  14.240 -0.0823 -0.1064 -0.0898
90128W        W90992   0.245  11.486  12.245  0.0319 -0.1139  0.1916
90129W        W90993  27.347  12.644  14.005 -0.2736  0.1514 -0.1041
90130W        W90994  26.140  13.129  10.693 -0.1332 -0.2229 -0.0985
90131W        W90995  24.866  13.194  11.840 -0.0775  0.0466 -0.1438
90132W        W90996   0.580  12.798  15.951  0.0457  0.0281  0.0219
90133W        W90997  27.699  12.430  11.741  0.1644 -0.3462  0.0712
90134W        W90998   1.052  14.189  12.670 -0.1384  0.0786  0.3097
90135W        W90999   0.131  12.398  10.830  0.0328  0.2070 -0.1427
90136W        W91000  27.375  11.275   8.804 -0.0134 -0.0025  0.0606
90137W        W91001   2.660  14.630  10.237  0.1916  0.0455  0.1724
90138W        W91002  27.189  12.661  15.509  0.0671  0.3776 -0.2113
90139W        W91003  27.195  12.651  11.277 -0.1490  0.0036  0.1616
90140W        W91004  27.846  12.855  14.971 -0.0032  0.0097 -0.1166
90141W        W91005  25.835  12.334  12.779 -0.2611 -0.2772  0.0091
90142W        W91006  24.264  12.319  12.055  0.5218  0.2903  0.1217
90143W        W91007  27.543  12.077  16.966 -0.2921  0.1361 -0.0942
90144W        W91008   0.695  13.811  13.125  0.0139 -0.0639 -0.1039
90145W        W91009  28.283  14.149  13.544  0.3213 -0.1757  0.1628
90146W        W91010  29.117  16.814  14.275 -0.0933 -0.0819 -0.3766
90147W        W91011  28.332  12.646  14.831 -0.2421  0.0103  0.1380
90148W        W91012  26.885  15.343  11.770 -0.3987  0.0227  0.1005
90149W        W91013   0.561  12.124  11.625  0.4868 -0.0427  0.0502
90150W        W91014  26.690  11.807  15.853  0.2158  0.0651 -0.0151
90151W        W91015  27.047  13.152  12.720 -0.1048  0.1347 -0.1199
90152W        W91016  26.847  11.252   9.020 -0.2585 -0.0624  0.0010
90153W        W91017   0.750  12.092  14.779  0.0679 -0.1050  0.1660
90154W        W91018  25.289  14.378  14.702  0.1846 -0.1909 -0.0549
90155W        W91019  28.824  16.483  13.396  0.1323  0.0391  0.1302
90156W        W91020  24.399   9.799  11.838  0.2244 -0.0079  0.1542
90157W        W91021  24.385  11.025  12.103  0.3114 -0.3217 -0.0408
90158W        W91022  26.571  13.372  10.885 -0.1040  0.0706 -0.1741
90159W        W91023  24.410  13.684  13.761 -0.3152  0.3592  0.0864
90160W        W91024  27.901  11.979  15.163 -0.1449  0.0741  0.0561
90161W        W91025  26.185  14.671  12.793  0.0249 -0.0128  0.0266
90162W        W91026  26.160  11.880  11.559  0.0541  0.3254 -0.1113
90163W        W91027  27.166  10.849  11.451 -0.0070 -0.0486 -0.0704
90164W        W91028  27.901  14.279  11.363 -0.1053  0.2703 -0.2693
90165W        W91029  27.744  12.606  11.110 -0.3432  0.2838  0.3077
90166W        W91030  27.520  12.509  10.235  0.2148 -0.1499  0.1838
90167W        W91031  24.773  14.384  10.293  0.1743 -0.3392 -0.3702
90168W        W91032  27.703  10.154  13.822 -0.2039 -0.0581  0.0400
90169W        W91033  27.037  12.775  10.195  0.0382  0.1230 -0.1560
90170W        W91034  27.034  12.053  16.151  0.1243 -0.0716 -0.1567
90171W        W91035  25.908  11.140  13.639 -0.2520 -0.0936  0.0754
90172W        W91036  25.326  11.681  15.607 -0.1922  0.0007  0.0842
90173W        W91037  28.056  13.039  11.920  0.5966 -0.1892 -0.2396
90174W        W91038  24.329  11.664  13.212  0.3437 -0.0841 -0.0293
90175W        W91039  28.032  13.156  12.783 -0.1261  0.0414 -0.2706
90176W        W91040  29.032  11.693  13.055  0.1035 -0.0016 -0.1989
90177W        W91041  25.668  13.996  14.960  0.0510 -0.0230 -0.2052
90178W        W91042   0.507  13.049  12.667  0.0710 -0.2818  0.1618
90179W        W91043  28.439  12.189  14.631  0.0695  0.0737  0.1254
90180W        W91044  24.303  12.249  13.346  0.1245 -0.2329  0.1683
90181W        W91045  25.160  11.415  12.543  0.1160 -0.0974 -0.1184
90182W        W91046   0.326  13.757   8.911 -0.0131  0.0900  0.1386
90183W        W91047  25.365  13.792  14.091  0.1557 -0.1784  0.1210
90184W        W91048  26.837  15.738  13.545  0.0407 -0.2292  0.1731
90185W        W91049  26.783  15.537   8.741 -0.3129  0.1119 -0.0607
90186W        W91050  25.746  13.478  14.059  0.0873  0.1658 -0.2179
90187W        W91051  26.988  15.070  13.422 -0.1270 -0.0580 -0.2500
90188W        W91052  26.475  13.803  13.988 -0.0858 -0.1196 -0.0989
90189W        W91053  28.168  11.648  10.143  0.0434  0.1600  0.1219
90190W        W91054  25.643  11.759  13.435 -0.1168  0.0292 -0.0301
90191W        W91055  26.366  14.864  10.229  0.0443 -0.1081  0.0050
90192W        W91056  23.564  14.722  13.608 -0.1557 -0.1338 -0.3623
90193W        W91057  25.408  12.504  12.918 -0.0502  0.3459  0.1744
90194W        W91058  25.509  15.173  11.530 -0.0232 -0.0606 -0.1040
90195W        W91059  25.901  11.638  10.577  0.0210  0.2590 -0.0196
90196W        W91060  25.505  13.760  13.157  0.0032  0.2086  0.4299
90197W        W91061   1.396  15.717  12.014  0.0749 -0.1141  0.0347
90198W        W91062  25.467  12.711  11.025 -0.2707 -0.2116  0.2186
90199W        W91063  26.879  11.618  10.383  0.0435  0.2183 -0.0678
90200W        W91064  28.248  11.252  10.478  0.1544  0.0480 -0.2715
90201W        W91065  26.232  16.678  16.057 -0.0460  0.0451  0.1978
90202W        W91066  25.844  11.358   9.920  0.1463 -0.1541  0.1955
90203W        W91067  22.519  10.007  12.506 -0.1011  0.0396 -0.0418
90204W        W91068  27.215  11.764  12.858  0.2608 -0.4262 -0.1945
90205W        W91069  23.666  14.727  12.205  0.2715  0.6857 -0.2042
90206W        W91070  26.662  15.080  11.160  0.1750 -0.0793 -0.0250
90207W        W91071  26.054  14.940  10.599  0.1237  0.1035  0.0131
90208W        W91072  26.414  11.560  16.250  0.1783  0.2253 -0.2924
90209W        W91073  28.549  12.320  16.156 -0.2348  0.0195  0.0113
90210W        W91074  27.768  14.109  13.721 -0.0304 -0.2394 -0.3426
90211W        W91075  27.233  10.029  11.981  0.0676 -0.2339  0.5051
90212W        W91076  28.164  11.358  13.167 -0.1066  0.1009  0.0319
90213W        W91077  23.701  11.220  14.295 -0.1635  0.3540 -0.0656
90214W        W91078  25.024  11.766   9.526 -0.0446 -0.0823  0.0339
90215W        W91079  27.489  12.724  12.252 -0.0523 -0.0731 -0.2394
90216W        W91080  25.641  11.963  11.515 -0.1124  0.1190 -0.1254
90217W        W91081  23.667  11.565  12.288  0.0952  0.0478  0.0744
90218W        W91082   1.223  12.293  10.920  0.1613 -0.3098 -0.1399
90219W        W91083  25.562  14.623  12.459 -0.0445  0.2332 -0.0249
90220W        W91084   2.479  11.925  13.543 -0.2324 -0.5543 -0.2367
90221W        W91085  25.810  11.908   7.114 -0.2034 -0.2790  0.0156
90222W        W91086  23.095  14.390  12.899 -0.2670 -0.1690  0.1222
90223W        W91087  25.032  12.951  12.270 -0.0194  0.0042  0.0239
90224W        W91088  28.184  10.480  11.091  0.3015 -0.2876  0.1301
90225W        W91089  25.896  12.429  11.405 -0.2445  0.2894 -0.1926
90226W        W91090  25.539  12.094  12.026 -0.1945 -0.2254  0.1076
90227W        W91091  25.274  13.662  12.688 -0.0383  0.1452  0.1534
90228W        W91092  24.896  13.560  13.590 -0.1611 -0.1953  0.1037
90229W        W91093  25.810  11.671  11.858  0.2834  0.0459  0.1296
90230W        W91094   0.215  13.995  15.503  0.1083  0.0211 -0.0285
90231W        W91095  26.979  12.259  11.575  0.0831 -0.1964  0.0437
90232W        W91096   0.151  12.127  12.856 -0.0059 -0.1500 -0.1025
90233W        W91097   0.144  13.622  10.181  0.2963 -0.1413  0.1318
90234W        W91098  27.763  15.222  12.997 -0.1844  0.0469 -0.0990
90235W        W91099  25.670  12.665  14.806  0.1188 -0.0091 -0.0227
90236W        W91100  27.232  10.634  16.282 -0.1870 -0.0742 -0.0097
90237W        W91101  28.940  14.257  12.386  0.1890 -0.0717  0.0940
90238W        W91102  25.217  17.950  16.784  0.0832  0.0693 -0.1272
90239W        W91103  27.623  11.930  11.910  0.0884 -0.0813 -0.0363
90240W        W91104   1.389  12.631  12.174 -0.1116 -0.2562  0.1314
90241W        W91105  24.985  12.618  13.261 -0.0099  0.1276  0.0226
90242W        W91106  28.032  14.853  12.753  0.3484 -0.1853 -0.0668
90243W        W91107  28.000   9.829  14.495  0.1241 -0.2596 -0.0680
90244W        W91108  26.449  14.993  15.267  0.1222 -0.1617  0.1916
90245W        W91109  26.646  14.692  14.400 -0.2896  0.2585  0.0160
90246W        W91110  26.034  10.856  10.678  0.0854 -0.1668 -0.1794
90247W        W91111  26.158  11.903  15.898  0.0870  0.0738  0.1974
90248W        W91112  27.381  12.713  10.757  0.1210 -0.2181  0.0617
90249W        W91113   0.905  13.839  12.300 -0.0649  0.0997 -0.0969
90250W        W91114  22.932  12.917  14.574  0.1525  0.0861  0.1008
90251W        W91115  29.001  14.045  10.276  0.2122 -0.0521  0.1367
90252W        W91116   0.496  13.544  11.826  0.2458  0.3194  0.0537
90253W        W91117  27.292   8.957  12.850 -0.0896 -0.0782 -0.0839
90254W        W91118  28.507  13.236  11.091 -0.1048  0.2636 -0.2116
90255W        W91119   2.430  12.413  10.233  0.2255 -0.2680  0.1031
90256W        W91120  28.971  13.000  12.028  0.1840  0.0165  0.2887
90257W        W91121  25.048  12.048  14.285 -0.0106  0.0206  0.2137
90258W        W91122  25.038  11.557  10.857  0.0053  0.0015  0.0845
90259W        W91123  26.062  12.442   8.766 -0.1362 -0.4223 -0.1510
90260W        W91124  27.109  14.353  12.991  0.0137  0.1916  0.0632
90261W        W91125  26.574  15.765  10.513 -0.1767 -0.0569  0.3559
90262W        W91126   2.369  13.590  12.485 -0.1382  0.1415 -0.0118
90263W        W91127  27.618  13.587  13.808  0.2764 -0.0497 -0.0126
90264W        W91128  27.555  15.989  10.855 -0.0737 -0.2259  0.2813
90265W        W91129  26.693  13.722   9.584 -0.2333 -0.1094 -0.0414
90266W        W91130  25.611  12.860  13.214  0.0017 -0.0213 -0.0484
90267W        W91131  26.033  14.854  13.884 -0.1195 -0.0290  0.2456
90268W        W91132   2.290  12.390  11.528 -0.0629  0.2836 -0.1580
90269W        W91133  26.690  14.146  14.533  0.0748 -0.1671  0.0826
90270W        W91134  25.896  14.483   9.468  0.2779  0.1565 -0.0937
90271W        W91135  25.668  12.854  12.702  0.1035 -0.2948  0.0801
90272W        W91136  26.155  12.601   9.705 -0.0659 -0.0180  0.1685
90273W        W91137  25.954  11.399  12.213  0.1663 -0.0132  0.0002
90274W        W91138   0.497  12.764  10.445 -0.3404 -0.1575  0.0112
90275W        W91139  25.574  13.747  11.012 -0.1697 -0.2687  0.1358
90276W        W91140   0.160  12.873  13.984  0.1730  0.3306 -0.2085
90277W        W91141  27.483  12.438  13.343  0.0126  0.0259  0.1737
90278W        W91142  26.338  14.388  14.146  0.0437  0.1217  0.3034
90279W        W91143  27.127  10.213  14.249  0.0565  0.0975 -0.2042
90280W        W91144  26.111  13.666  10.804  0.0453  0.0800 -0.1749
90281W        W91145  24.696  13.743  15.504  0.1673  0.1871 -0.1121
90282W        W91146  25.528  14.515  10.635  0.0037 -0.0804 -0.1740
90283W        W91147  27.012  12.683  12.539  0.2530  0.2233  0.0206
90284W        W91148  26.163  11.944  14.216 -0.1144 -0.2270  0.3795
90285W        W91149   0.186  13.765  13.985 -0.2581 -0.1906 -0.3324
90286W        W91150  25.353  13.450   8.808  0.0582  0.1929 -0.1775
90287W        W91151  28.549  12.047  10.174  0.4484 -0.0024  0.3252
90288W        W91152  27.026  10.965  12.499 -0.0667 -0.0885  0.0351
90289W        W91153  25.231  10.605  13.630 -0.1293 -0.1371 -0.0022
90290W        W91154  25.864  15.959  13.675 -0.0157 -0.1045  0.1884
90291W        W91155  28.769  10.228  13.929 -0.1492 -0.3904  0.1475
90292W        W91156  25.734   8.960  13.683 -0.0961 -0.3706  0.0270
90293W        W91157  25.942  13.869  11.942 -0.0373 -0.0350  0.1103
90294W        W91158  26.828  12.599  11.996 -0.0678  0.2233  0.0852
90295W        W91159  25.444  13.451  16.751  0.0042 -0.1817 -0.2654
90296W        W91160  24.113  13.674  11.153  0.2645 -0.0078 -0.1222
90297W        W91161  27.894  11.669  11.144  0.1092 -0.0955 -0.0806
90298W        W91162  23.609  13.573  15.171 -0.0462  0.0880  0.0817
90299W        W91163  24.096  15.364  17.869  0.2996  0.0748 -0.0165
90300W        W91164   3.707  12.564  11.702  0.0386  0.1278  0.2389
90301W        W91165   0.489  11.844  12.505  0.1916 -0.1614 -0.0933
90302W        W91166  28.524  12.448  13.420  0.0112 -0.0858  0.3253
90303W        W91167  24.436  14.464  11.600  0.1160 -0.0824  0.1311
90304W        W91168   1.071  10.208  10.418  0.4870 -0.5402 -0.1464
90305W        W91169  28.121  12.592  11.590 -0.2092  0.2702 -0.2768
90306W        W91170  26.557  12.239  13.257  0.0340  0.0156 -0.4278
90307W        W91171  28.056  10.528   9.108  0.2014 -0.1794  0.0737
90308W        W91172  28.600  12.138  14.085  0.0733  0.1545  0.0540
90309W        W91173  27.682  13.751  14.721  0.2462 -0.0009  0.2040
90310W        W91174  27.821  12.527  13.845 -0.0149 -0.1148  0.1693
90311W        W91175  28.851  11.674  13.567 -0.0405 -0.0940  0.1900
90312W        W91176  28.488  11.003  12.929 -0.5261  0.0009  0.1981
90313W        W91177   0.967  12.804  12.893  0.2394 -0.0368 -0.1151
90314W        W91178  28.318  13.633  10.862 -0.0079 -0.1442 -0.0213
90315W        W91179  26.408  13.490  10.429  0.1136 -0.2449 -0.1119
90316W        W91180  27.659  12.161  17.609 -0.0774  0.1385 -0.0265
90317W        W91181  27.103  12.214  11.047 -0.1038 -0.0763 -0.1757
90318W        W91182  28.039  14.101  12.239  0.1221  0.1883 -0.1134
90319W        W91183  27.608  14.992  12.330 -0.0936  0.1717 -0.4296
90320W        W91184  25.097  14.490  14.242  0.1957  0.3297 -0.2539
90321W        W91185  27.154  10.494  12.514  0.1117 -0.0349  0.3176
90322W        W91186   0.128  11.249  16.257  0.1936  0.2493  0.3116
90323W        W91187  25.535  13.638  10.518  0.0878  0.2171  0.0317
90324W        W91188  24.981  12.662  11.081 -0.0677  0.0082  0.1002
90325W        W91189  28.842  13.388  13.238 -0.1728 -0.0024 -0.5244
90326W        W91190  26.921  13.204  14.463 -0.1015  0.3613 -0.0083
90327W        W91191  25.256  13.221  14.083 -0.1006 -0.0499 -0.4647
90328W        W91192  25.283  13.971  13.567 -0.1065 -0.0594  0.2519
90329W        W91193  26.015  13.469  16.962  0.2260  0.1463 -0.1879
90330W        W91194  26.499  11.061  11.098 -0.1397 -0.1771 -0.0232
90331W        W91195  26.881  12.737  10.714  0.3212 -0.1129  0.0760
90332W        W91196  25.840  15.078  12.383 -0.1753  0.2680  0.0128
90333W        W91197  27.394  12.842   9.806 -0.1826 -0.1291  0.3847
90334W        W91198  28.813  12.826  12.427  0.0921 -0.1915 -0.0531
90335W        W91199  23.835  13.130  13.932 -0.2300  0.0861 -0.2485
90336W        W91200  29.069  11.763  12.569 -0.3360  0.1676  0.2506
90337W        W91201  26.753  12.570  16.503 -0.0652 -0.3094  0.1098
90338W        W91202  23.495  14.020  14.990  0.1910 -0.1606 -0.0175
90339W        W91203  24.955  11.525  11.374 -0.0067 -0.1114 -0.1272
90340W        W91204  24.963  13.247  12.716  0.0689 -0.1999 -0.2671
90341W        W91205  27.518  10.497   7.132  0.4556 -0.4590 -0.1443
90342W        W91206  23.812  10.167  10.526 -0.0347 -0.1002 -0.3680
90343W        W91207  27.686  13.013  13.946 -0.2934  0.1933  0.0396
90344W        W91208  27.499   9.314  11.658  0.0856 -0.1258 -0.1966
90345W        W91209   1.913  12.887  14.993 -0.1635  0.0922 -0.3827
90346W        W91210  25.056  16.847  14.822  0.0357 -0.0728 -0.0688
90347W        W91211  26.882  12.871  14.994  0.1241 -0.0008  0.2387
90348W        W91212  28.058  12.119  12.390 -0.2508 -0.1122  0.0384
90349W        W91213  26.549  13.707  13.485  0.0209 -0.5659 -0.0399
90350W        W91214   2.871  12.753  13.399  0.2146 -0.0552  0.1245
90351W        W91215  26.929  13.440  12.316 -0.1142  0.1739  0.0961
90352W        W91216  27.687  10.228  11.176 -0.0875 -0.0356 -0.2785
90353W        W91217  26.467  15.633  11.828  0.2574  0.1811 -0.3544
90354W        W91218  26.972  12.967  13.648 -0.1312 -0.0801 -0.2577
90355W        W91219  27.133  11.314  11.299 -0.0397 -0.1341 -0.1221
90356W        W91220  23.859  15.662  12.452  0.0050  0.1457 -0.2147
90357W        W91221  26.809  13.408  13.818  0.2461 -0.1395  0.0244
90358W        W91222  26.458  16.149  17.143 -0.3119 -0.0767  0.0989
90359W        W91223  26.205  14.674  10.969 -0.2139 -0.1340  0.1501
90360W        W91224  25.795  12.203   9.796 -0.1375 -0.1344 -0.1082
90361W        W91225  27.062  13.829  13.510  0.1908  0.1179 -0.2288
90362W        W91226  24.375   7.840  10.716  0.1089 -0.1370 -0.0698
90363W        W91227  26.561  13.721  12.075  0.0452 -0.3381  0.0721
90364W        W91228  27.346  11.306  10.183  0.1975  0.1171  0.0100
90365W        W91229  28.678  12.928  13.533  0.0871 -0.0101  0.0331
90366W        W91230  28.046  12.942  11.193 -0.1957  0.0909 -0.1367
90367W        W91231  23.772  14.219  12.337  0.0876  0.1724 -0.1699
90368W        W91232  27.027  10.939  10.976  0.5360 -0.0828  0.1472
90369W        W91233  26.079  15.363  13.742 -0.1651  0.0478  0.0404
90370W        W91234  25.719  14.298  13.307 -0.1181  0.0992  0.0310
90371W        W91235  25.812  11.558  13.885 -0.0472  0.1376  0.0234
90372W        W91236  25.450  12.117   9.459 -0.2067  0.2691  0.1902
90373W        W91237  27.220  11.555   9.730 -0.1388  0.0486  0.2789
90374W        W91238  28.126  14.489  14.853 -0.0224  0.1457 -0.2241
90375W        W91239  23.428  10.357  11.701  0.0845  0.1737  0.1113
90376W        W91240  27.773   9.797  10.853 -0.0465  0.1300 -0.2226
90377W        W91241  24.186  13.845  10.725  0.1054 -0.0162 -0.0444
90378W        W91242   0.003  13.074  12.999  0.1158 -0.2842 -0.2251
90379W        W91243  28.226  12.168  12.875  0.1417 -0.1898 -0.2719
90380W        W91244  26.393  13.054  15.791  0.0394  0.2518 -0.2328
90381W        W91245   0.888  14.597  10.831  0.3195  0.1604 -0.0712
90382W        W91246  26.635  11.113  14.227 -0.2494  0.4481  0.1306
90383W        W91247  25.375  11.850  10.598  0.3727 -0.1343 -0.0290
90384W        W91248  27.250  11.067  13.083 -0.3127  0.3365 -0.0294
90385W        W91249   0.177  13.839  11.664  0.0839 -0.0764  0.3194
90386W        W91250  28.367  13.785  16.136  0.1105  0.0687  0.1134
90387W        W91251   1.268  12.511  10.131  0.0486 -0.3739  0.0508
90388W        W91252  26.461  15.172  15.889  0.2147 -0.0129  0.1850
90389W        W91253  25.611  12.960  13.745  0.0558 -0.0794  0.0694
90390W        W91254  27.238  14.035  15.819  0.0340 -0.1184  0.3944
90391W        W91255  27.196  11.067  15.932 -0.1402 -0.0888  0.1355
90392W        W91256  26.161  12.543  13.110  0.0319 -0.0926 -0.0611
90393W        W91257  26.295  12.187  12.771 -0.0547  0.1519  0.2690
90394W        W91258  25.221  12.475  11.858  0.0511  0.2059  0.2550
90395W        W91259  26.106  12.027  13.682  0.0501  0.1354 -0.1669
90396W        W91260  28.038  12.258  14.306 -0.2220  0.2985  0.1171
90397W        W91261  27.604  13.847  15.473  0.0361 -0.2917  0.1492
90398W        W91262   0.379  12.101  14.212  0.0134 -0.4620  0.0769
90399W        W91263   1.852  16.321  11.540  0.2875  0.2127  0.3175
90400W        W91264  26.538  13.004  12.313  0.2360 -0.2939  0.0782
90401W        W91265  24.325  15.787  10.978  0.0184  0.1862 -0.1060
90402W        W91266  28.060  13.915  14.093  0.3239  0.0926 -0.1655
90403W        W91267  25.030  12.568  17.920  0.2652  0.2614  0.4066
90404W        W91268  22.573  12.882  13.543 -0.0346 -0.0480 -0.1718
90405W        W91269   0.095  10.342  10.316 -0.4663  0.0953 -0.0178
90406W        W91270  27.596  14.640  13.503 -0.0136  0.0557  0.0167
90407W        W91271  24.343  13.685  16.791  0.1525 -0.1773  0.2168
90408W        W91272  26.049  13.730  14.824  0.3177  0.1324  0.2909
90409W        W91273  27.244  14.722  12.613 -0.0289 -0.0216  0.0611
90410W        W91274  26.514  13.873  12.999  0.0010 -0.0400  0.2989
90411W        W91275  26.205  12.515  14.143 -0.0655 -0.0284 -0.0398
90412W        W91276  25.626  10.669  10.418  0.1903 -0.1571  0.1652
90413W        W91277  28.141  10.971  16.410  0.0885  0.0315  0.0481
90414W        W91278  24.269  14.655  17.080 -0.0929 -0.0103  0.3520
90415W        W91279   1.673  13.637  15.615 -0.0745 -0.1235  0.0079
90416W        W91280   0.714  13.159  18.776 -0.0260 -0.0900  0.0044
90417W        W91281  23.996  16.028  14.806  0.0528  0.1414 -0.1638
90418W        W91282  25.822  13.821  12.754  0.0368  0.1469 -0.1755
90419W        W91283  25.611  13.999  15.553 -0.0079  0.0532  0.1778
90420W        W91284  27.358  12.692  14.998 -0.2249  0.5740 -0.2924
90421W        W91285  27.601  14.282  17.036 -0.2495  0.1749 -0.1092
90422W        W91286  27.462   9.830  15.119 -0.0109 -0.0197  0.2320
90423W        W91287  24.512  11.026  16.449  0.0962 -0.0174 -0.0480
90424W        W91288   0.157  11.399  16.969  0.1743 -0.0394  0.0681
90425W        W91289   0.492  10.555  16.857 -0.0079 -0.0076 -0.1091
90426W        W91290  27.729   9.550  17.475 -0.0559  0.0718  0.0085
90427W        W91291  24.373   8.704  14.438  0.1198 -0.1312  0.0416
90428W        W91292  25.517  14.775  20.224 -0.0622 -0.2004 -0.0030
90429W        W91293  26.483  12.256  14.950 -0.1955  0.0452 -0.2157
90430W        W91294  26.682  10.480  16.335 -0.0986 -0.2064 -0.1669
90431W        W91295  27.725  11.842  18.002  0.1389  0.2956  0.2523
90432W        W91296  27.657   9.435  15.357  0.2093  0.2714  0.0623
90433W        W91297   1.350  12.002  17.816 -0.0913 -0.1306 -0.0058
90434W        W91298  27.419  13.495  14.399  0.1152  0.0873  0.0578
90435W        W91299  25.190  14.617  16.375 -0.0028 -0.2208  0.0442
90436W        W91300  23.238  13.442  17.767  0.0255  0.1968 -0.0734
90437W        W91301  27.465  12.905  14.469  0.1523 -0.0440  0.1427
90438W        W91302  26.468  14.839  16.913  0.0788 -0.0411 -0.1151
90439W        W91303   0.562  13.208  17.010 -0.1747  0.0964 -0.1038
90440W        W91304  27.292  16.146  15.875 -0.3780 -0.0476  0.0663
90441W        W91305  29.010  12.810  17.298 -0.0019 -0.0885  0.2005
90442W        W91306  25.707  13.568  15.276 -0.3283 -0.2234 -0.0281
90443W        W91307  24.184  14.560  19.418  0.1603 -0.1728  0.1849
90444W        W91308  27.480  13.335  17.493  0.1420  0.0236 -0.0163
90445W        W91309  24.396  10.957  17.065  0.1814 -0.0365 -0.0252
90446W        W91310  26.309  12.201  16.716 -0.1961 -0.6241 -0.1243
90447W        W91311  27.380  11.418  17.852  0.2155 -0.1103 -0.2303
90448W        W91312   0.175  10.828  15.928 -0.2880 -0.0722  0.1802
90449W        W91313  28.659  10.369  15.314 -0.1129 -0.0042  0.0870
90450W        W91314  24.740  14.613  17.751 -0.1299 -0.1628 -0.0523
90451W        W91315  26.290  14.122  15.646  0.0369 -0.2158  0.0857
90452W        W91316   1.516  10.729  17.155 -0.1115  0.4232 -0.3614
90453W        W91317  28.424  10.576  14.846 -0.0756  0.0527  0.1111
90454W        W91318  28.729  11.047  14.700  0.1388  0.1820 -0.3741
90455W        W91319  25.477  14.233  15.994  0.1196  0.1503  0.2167
90456W        W91320  25.623  14.153  14.382 -0.0718  0.0497  0.0716
90457W        W91321  25.213  13.075  17.991  0.0661  0.0910  0.0431
90458W        W91322  25.292  15.551  16.955 -0.1411 -0.0962 -0.1467
90459W        W91323   0.638  10.527  17.797  0.2845 -0.2534  0.0441
90460W        W91324  28.832  13.078  18.684 -0.2414 -0.0186 -0.2609
90461W        W91325  28.211  13.329  16.357  0.2324  0.0673 -0.2835
90462W        W91326   1.742  10.506  16.727  0.2847 -0.1648  0.0599
90463W        W91327  25.495  12.074  13.799 -0.0462  0.0423  0.1360
90464W        W91328  26.261  13.504  15.265 -0.0810  0.2131  0.1937
90465W        W91329  25.483  16.283  15.360  0.0996  0.0942 -0.3179
90466W        W91330  28.021  12.290  17.028 -0.3116 -0.0744  0.2282
90467W        W91331  28.748  11.681  15.502 -0.0968  0.0894  0.1111
90468W        W91332  24.700  14.943  15.397 -0.0371  0.1624  0.1077
90469W        W91333  24.967  11.676  19.083 -0.1303 -0.0896  0.2842
90470W        W91334  28.179  11.679  17.995  0.0927  0.2007  0.0350
90471W        W91335  24.124  14.691  16.609 -0.2669 -0.0072 -0.1097
90472W        W91336  23.750  13.610  19.239  0.0701  0.1642  0.0819
90473W        W91337  27.253  14.313  15.262 -0.1011  0.0532 -0.0463
90474W        W91338  26.143  15.792  17.280  0.0662  0.3235 -0.1564
90475W        W91339  24.328  14.930  17.807 -0.2391 -0.0269 -0.1429
90476W        W91340  24.506  14.585  16.319  0.0630 -0.0230 -0.2309
90477W        W91341  26.265  10.914  18.282 -0.1059 -0.0601  0.3265
90478W        W91342  29.043  11.535  18.371 -0.2941 -0.2124  0.1530
90479W        W91343  25.722  13.328  12.837 -0.1151 -0.0659  0.2264
90480W        W91344  26.900   9.149  15.547 -0.0381 -0.2834  0.0858
90481W        W91345  25.324  12.946  15.016  0.0565 -0.3596 -0.2256
90482W        W91346  26.663  14.164  17.325  0.1274  0.2249  0.0546
90483W        W91347   0.304  12.903  17.752 -0.4782  0.0810 -0.2064
90484W        W91348  27.518  11.724  17.421  0.0715  0.0518 -0.1825
90485W        W91349  25.626  14.860  11.989  0.0100 -0.4747  0.2200
90486W        W91350  26.711  13.248  17.087  0.4621  0.1541 -0.0260
90487W        W91351  28.218  15.435  14.792 -0.1907 -0.1683  0.3633
90488W        W91352  26.898  13.778  16.426 -0.2301  0.2803  0.2137
90489W        W91353  23.954  13.478  17.104  0.0978 -0.1035  0.3213
90490W        W91354  25.520  12.416  17.389  0.0897 -0.0070 -0.1515
90491W        W91355  29.007  13.932  16.843  0.1337  0.2533  0.0386
90492W        W91356  27.506  12.164  15.988 -0.3588 -0.1626 -0.2282
90493W        W91357  27.425  11.249  18.644  0.3078 -0.0820  0.2450
90494W        W91358  28.240  14.173  17.167 -0.3371 -0.1191 -0.1659
90495W        W91359  26.310  11.432  14.612 -0.0670 -0.2526 -0.0243
90496W        W91360  26.535  12.247  17.442  0.0556  0.0628  0.2525
90497W        W91361  27.822  11.785  19.750 -0.1877  0.1644 -0.0259
90498W        W91362  26.531  12.889  13.266  0.1422  0.0231  0.0239
90499W        W91363  26.602  16.095  17.728 -0.0678 -0.0631  0.2623
90500W        W91364  26.369  11.008  17.716  0.2003 -0.3131 -0.1765
90501W        W91365   1.120  13.263  16.745 -0.1536 -0.3064  0.0222
90502W        W91366  28.014  11.435  17.206  0.0867 -0.1409 -0.1793
90503W        W91367  28.523   9.605  13.686  0.0177 -0.0066 -0.0349
90504W        W91368  27.015  12.792  18.403  0.1956 -0.0805  0.1184
90505W        W91369  24.320  15.967  19.912 -0.2203  0.0614 -0.0932
90506W        W91370  26.856  11.462  14.560  0.0881  0.0316  0.0398
90507W        W91371  26.298  11.104  16.882  0.1149 -0.2361 -0.0755
90508W        W91372   1.386  13.662  17.118 -0.2048  0.2250  0.2289
90509W        W91373  29.051  11.301  15.736 -0.0662 -0.2072  0.0428
90510W        W91374  27.631  13.278  19.002 -0.2223  0.0536  0.1588
90511W        W91375  23.886  12.437  13.668  0.1903  0.0322  0.1892
90512W        W91376  28.504  12.280  15.158 -0.1528 -0.0891  0.0613
90513W        W91377  25.911  15.553  13.186  0.1149 -0.1331 -0.0657
90514W        W91378  25.473  13.053  15.587  0.0178 -0.3373  0.1396
90515W        W91379  27.234  12.141  17.318 -0.0524  0.1243  0.2131
90516W        W91380   0.594  13.647  15.465 -0.1651 -0.0241 -0.0317
90517W        W91381   0.866  10.570  19.648  0.1479 -0.1932  0.3127
90518W        W91382  27.631  12.524  17.239 -0.1748 -0.0056  0.3046
90519W        W91383  24.499  15.884  14.775 -0.0405  0.0752  0.1040
90520W        W91384  28.519  16.692  21.387 -0.2471 -0.0554  0.0970
90521W        W91385   0.345  12.466  17.556 -0.1585  0.2348 -0.0921
90522W        W91386  24.483   9.317  15.410  0.1018 -0.0595 -0.1857
90523W        W91387  23.916  14.150  18.157  0.2807  0.1734 -0.3771
90524W        W91388  24.470  14.619  14.938 -0.1684  0.1868  0.1582
90525W        W91389   0.549   9.541  16.912 -0.2587 -0.0942 -0.2007
90526W        W91390  28.681  13.989  17.425  0.0711 -0.0029 -0.0043
90527W        W91391  28.507  11.812  13.114  0.2531  0.1467  0.0197
90528W        W91392  24.910  15.000  14.943 -0.1073  0.4248 -0.2674
90529W        W91393  27.995  11.004  17.432  0.0195  0.1020  0.0169
90530W        W91394  26.560  14.147  19.319  0.1612 -0.2137 -0.0014
90531W        W91395  27.136  11.167  16.916 -0.1551  0.2613 -0.1193
90532W        W91396   0.083  13.295  14.735 -0.0945 -0.1575 -0.1036
90533W        W91397   1.575  13.547  11.364  0.2165  0.1254  0.1034
90534W        W91398  26.173  15.798  14.670 -0.1799  0.3115 -0.0019
90535W        W91399  26.682  13.972  16.050 -0.0751 -0.0621 -0.1302
90536W        W91400  26.858  14.656  16.629  0.1848 -0.0712 -0.2851
90537W        W91401  27.974  13.621  18.318 -0.2853  0.1827 -0.0041
90538W        W91402   0.730  12.875  16.492  0.2186  0.0218  0.2508
90539W        W91403  25.880  12.248  15.748 -0.0325 -0.3892 -0.0189
90540W        W91404  28.719  11.684  20.449 -0.0846 -0.2043  0.0654
90541W        W91405  27.341  16.238  15.358  0.2112  0.0001 -0.2453
90542W        W91406  25.662  14.260  17.050 -0.1390 -0.2785  0.2988
90543W        W91407  27.174  13.436  16.578  0.2434  0.3044  0.1222
90544W        W91408  24.398   9.312  17.897 -0.1467 -0.2508  0.2003
90545W        W91409  25.050  16.550  17.545 -0.0855 -0.0483  0.1425
90546W        W91410  26.274  10.006  17.745  0.1503 -0.0463 -0.0633
90547W        W91411  28.064  11.373  15.988  0.1433  0.2048 -0.1205
90548W        W91412  24.270  11.813  17.050 -0.1321 -0.0567  0.1820
90549W        W91413  27.710  13.688  17.171 -0.0118  0.2791  0.1661
90550W        W91414   0.955  12.599  15.438  0.0975  0.1335 -0.2501
90551W        W91415  26.037  16.801  17.144  0.2123  0.1081  0.2804
90552W        W91416  24.679  14.096  14.786 -0.2427  0.0079 -0.3223
90553W        W91417  27.272  11.699  16.461 -0.0319  0.0530 -0.1765
90554W        W91418   0.147  10.327  17.160 -0.1983  0.2827 -0.1203
90555W        W91419  26.315  12.997  17.863 -0.1135 -0.1847 -0.0668
90556W        W91420  27.608  10.215  14.451 -0.2375 -0.0972 -0.4665
90557W        W91421  27.247  11.410  20.305 -0.1324 -0.2964  0.0951
90558W        W91422   2.070  13.328  15.448  0.1995  0.2260 -0.3201
90559W        W91423   0.587   8.690  17.630 -0.2496  0.3972 -0.2071
90560W        W91424  24.774  14.677  13.942 -0.3345 -0.0904  0.0654
90561W        W91425  27.240  16.042  13.356  0.0445  0.1264 -0.0288
90562W        W91426  26.404  13.537  16.583 -0.2605 -0.1865 -0.1051
90563W        W91427  27.596  14.023  16.390  0.1546  0.3768  0.0076
90564W        W91428  26.926  11.475  13.903  0.0278 -0.4427 -0.3720
90565W        W91429  26.477  15.312  17.049  0.0611  0.2634  0.0449
90566W        W91430  28.495  12.970  15.496 -0.1418 -0.0393 -0.4012
90567W        W91431  26.729  13.338  15.223  0.1172  0.0516 -0.2671
90568W        W91432  28.706   7.263  16.240 -0.1401 -0.0805  0.1214
90569W        W91433  25.851  13.481  16.417  0.1138  0.1830 -0.0459
90570W        W91434  27.867  12.654  16.292  0.0346 -0.1209  0.0239
90571W        W91435  26.853  12.704  14.123 -0.1234 -0.0970  0.0386
90572W        W91436  28.268  13.405  13.126  0.1283  0.0819 -0.3160
90573W        W91437  27.286   7.169  18.223  0.0684  0.2301  0.1727
90574W        W91438  26.178  12.138  15.320  0.1109  0.0661  0.2407
90575W        W91439  26.511  12.798  16.173 -0.0243 -0.2534  0.1350
90576W        W91440  28.804  12.671  16.443  0.1166  0.0318  0.0190
90577W        W91441  25.327   9.100  17.489  0.1956  0.2479 -0.2518
90578W        W91442  28.612  12.544  14.334 -0.2062  0.1518 -0.2007
90579W        W91443  28.026  13.168  15.444  0.1960  0.2078  0.0350
90580W        W91444  27.061  12.237  14.158 -0.2488 -0.2441  0.2232
90581W        W91445  28.351  13.860  17.820  0.4267 -0.0567 -0.3059
90582W        W91446  26.062  15.102  16.733  0.1531 -0.1517 -0.0896
90583W        W91447  25.349  14.127  16.471  0.2302 -0.2800  0.3865
90584W        W91448  27.659  15.054  18.034  0.1975  0.1289  0.3882
90585W        W91449  28.783  14.995  18.434  0.0518 -0.1378 -0.2577
90586W        W91450  26.629  11.809  12.985  0.0627 -0.2026 -0.3338
90587W        W91451   1.020  12.424  15.986  0.0188  0.2188  0.0741
90588W        W91452   0.184  10.315  14.692  0.0198  0.0690  0.3335
90589W        W91453  24.621  13.815  17.660  0.2653 -0.0682  0.3315
90590W        W91454  26.736  14.147  18.242 -0.0268 -0.1180 -0.1818
90591W        W91455  24.822  12.327  20.081 -0.0130 -0.2631 -0.4949
90592W        W91456  26.951  12.379  15.152  0.0633 -0.0456  0.2159
90593W        W91457  24.137  15.400  16.069 -0.1972  0.0991  0.1906
90594W        W91458  28.841  15.365  15.153  0.2260  0.0059  0.2168
90595W        W91459  25.724  12.345  14.161  0.1741  0.0401 -0.2565
90596W        W91460  26.497  13.048  13.815 -0.0583  0.2925 -0.0799
90597W        W91461  27.690  13.502  12.874 -0.1858 -0.0598 -0.4033
90598W        W91462  26.868  14.412  18.908 -0.1381  0.3054  0.1840
90599W        W91463   0.693   9.757  17.345  0.0630  0.2919  0.1295
90600W        W91464  24.003  11.376  13.513  0.1308  0.0081  0.1323
90601W        W91465  25.908  15.346  19.089 -0.1631 -0.0762 -0.0614
90602W        W91466  27.759  15.363  15.873 -0.0754  0.1346 -0.2740
90603W        W91467  28.248  11.445  14.626  0.1321  0.2531  0.1537
90604W        W91468  25.227  13.515  15.381 -0.0589  0.0838  0.1929
90605W        W91469  25.205  11.700  16.211 -0.1990 -0.1585  0.0013
90606W        W91470  27.353  10.693  16.889 -0.0994 -0.1934 -0.2814
90607W        W91471  27.514  12.833  18.294 -0.0559  0.2566 -0.1794
90608W        W91472   0.259  12.391  14.675 -0.0652 -0.3597 -0.0266
90609W        W91473  28.015  12.309  13.327 -0.0816 -0.0932  0.0466
90610W        W91474  27.715  10.912  15.905  0.0222  0.4693 -0.3518
90611W        W91475  26.293  11.641  16.762 -0.2792 -0.0191  0.1269
90612W        W91476  27.707  10.734  16.408  0.1671 -0.0586  0.1107
90613W        W91477  22.676  12.563  16.956  0.2311 -0.1438  0.2351
90614W        W91478  29.086  10.863  19.076 -0.0325 -0.2760  0.1880
90615W        W91479  28.619  15.375  15.618  0.0153  0.0537  0.3338
90616W        W91480  27.539  11.367  16.111  0.2191 -0.0660  0.1364
90617W        W91481  27.441  12.566  18.692 -0.0462 -0.1548  0.3711
90618W        W91482  24.847  12.393  11.491 -0.0636  0.2307  0.0687
90619W        W91483  27.736  15.608  17.917 -0.1515  0.2047 -0.0594
90620W        W91484  26.825  13.699  16.902  0.1834  0.2469 -0.2164
90621W        W91485  28.250  16.038  16.585  0.0904 -0.1009 -0.0762
90622W        W91486  28.036  12.162  16.123  0.3638  0.1722 -0.1754
90623W        W91487  26.336  16.540  18.447 -0.1119 -0.0285 -0.1734
90624W        W91488  27.190  14.420  18.559  0.0899 -0.0364  0.2914
90625W        W91489  25.216  14.297  18.550 -0.0621 -0.3147 -0.0781
90626W        W91490  27.632  12.559  20.157 -0.3231 -0.2780  0.2531
90627W        W91491  28.436  12.340  20.099 -0.0824 -0.2410 -0.0263
90628W        W91492  29.110  12.305  15.117 -0.0944  0.0463 -0.0848
90629W        W91493  25.342  14.797  13.081  0.1010  0.0025 -0.2770
90630W        W91494  28.523  13.050  16.657  0.3141 -0.0624 -0.0203
90631W        W91495  28.849  11.097  18.277  0.1056 -0.0371  0.0998
90632W        W91496   0.368  18.318  18.950 -0.1675  0.0572  0.2384
90633W        W91497  28.638   9.364  15.568  0.1958  0.0270 -0.2611
90634W        W91498   2.863  12.027  18.232 -0.2813 -0.0009 -0.2459
90635W        W91499  28.147  14.760  18.287 -0.3366  0.1537 -0.0487
90636W        W91500  27.641  12.840  15.414  0.2791 -0.2596 -0.0220
90637W        W91501  27.963  11.709  16.806 -0.3782 -0.2868  0.1656
90638W        W91502  26.914  11.433  16.180  0.0710 -0.0230  0.1508
90639W        W91503  27.606  13.168  16.251  0.0049  0.0389 -0.1433
90640W        W91504  28.184  10.701  16.813 -0.0883  0.2002 -0.2303
90641W        W91505  25.794  16.110  14.712 -0.3282  0.0664 -0.0084
90642W        W91506  27.968  14.125  14.553  0.0896  0.0360 -0.0795
90643W        W91507  27.130  12.351  18.255 -0.0904  0.0307 -0.0153
90644W        W91508  27.517  13.654  18.122 -0.0251 -0.1627  0.1006
90645W        W91509  24.690  13.987  17.083  0.0519  0.2620 -0.2541
90646W        W91510  27.927  13.019  16.607 -0.1550  0.0047  0.0023
90647W        W91511  25.806   9.785  19.579 -0.2196 -0.2491 -0.1727
90648W        W91512  27.860  13.295  14.683  0.2193  0.0500  0.0385
90649W        W91513  28.483  12.058  18.274 -0.1103  0.0467  0.2424
90650W        W91514   0.253  12.962  19.163 -0.2385  0.2024  0.4330
90651W        W91515  28.848  12.766  15.293 -0.1164 -0.2562  0.1337
90652W        W91516  28.126  15.285  18.055  0.1620 -0.0310 -0.2984
90653W        W91517  25.300  16.052  16.272 -0.0957  0.0358  0.3710
90654W        W91518  27.004  14.511  17.989 -0.0986  0.3152 -0.1548
90655W        W91519  27.251  11.691  15.872  0.0030 -0.1156 -0.5976
90656W        W91520  27.972  12.332  14.805  0.2009  0.1770  0.4705
90657W        W91521  24.459  14.289  15.330 -0.0054 -0.2704 -0.3503
90658W        W91522  25.397  15.965  14.321 -0.0038  0.0819 -0.0586
90659W        W91523   0.361  13.745  15.901 -0.0399 -0.0289 -0.1056
90660W        W91524  26.588  12.639  15.453  0.3039  0.3265 -0.2330
90661W        W91525  25.970  13.264  15.676 -0.0720 -0.1773 -0.0230
90662W        W91526  24.065  12.971  16.529  0.3489 -0.0101  0.0388
90663W        W91527  26.633  16.645  16.968  0.0275 -0.0963 -0.1046
90664W        W91528  24.544  15.395  15.479 -0.1854  0.1132  0.0252
90665W        W91529  27.888  13.681  17.706 -0.1183  0.0271  0.1201
90666W        W91530   0.212  11.698  15.936 -0.0171 -0.0270  0.3163
90667W        W91531  29.088  12.381  16.160  0.1615 -0.0535 -0.0187
90668W        W91532  26.926  15.334  16.143  0.0358  0.0332  0.1285
90669W        W91533   1.020  11.242  14.246  0.0582 -0.0812 -0.1323
90670W        W91534  24.672  10.074  16.864  0.0299  0.1167 -0.3044
90671W        W91535  28.694  14.844  16.479 -0.2312 -0.0946 -0.0596
90672W        W91536   0.129  11.899  16.351  0.3433  0.0292 -0.1847
90673W        W91537  27.046  12.990  16.329  0.0447 -0.0698 -0.2213
90674W        W91538  28.111  13.073  18.340  0.3728  0.3230 -0.2538
90675W        W91539  27.177  15.037  16.631 -0.1897 -0.2466 -0.0730
90676W        W91540  28.267  12.523  16.572  0.1973  0.0600 -0.0857
90677W        W91541  28.399  15.387  17.105 -0.1068 -0.2035  0.0991
90678W        W91542  27.529  16.274  17.432 -0.1169 -0.0050  0.1116
90679W        W91543  26.342  15.095  13.043  0.1564 -0.1590  0.0677
90680W        W91544  28.627   9.150  15.050 -0.0836  0.0140  0.3614
90681W        W91545  24.949  13.395  17.622  0.1285  0.0333  0.1714
90682W        W91546   0.460  11.246  15.800 -0.3069 -0.1491  0.2920
90683W        W91547  27.312  14.133  14.829 -0.2881  0.0199  0.2480
90684W        W91548   0.113  12.349  17.129 -0.0245  0.0016 -0.4467
90685W        W91549  27.662  13.417  16.785  0.0349 -0.3416 -0.3021
90686W        W91550  25.972  13.560  17.552  0.1881  0.0834 -0.3085
90687W        W91551  28.049  16.411  16.838  0.0172  0.1112  0.0995
90688W        W91552  24.550  11.503  16.746  0.0517 -0.2548  0.0285
90689W        W91553  28.197  10.457  15.259  0.1314 -0.1108  0.0405
90690W        W91554  26.392  15.552  17.636 -0.2792  0.1992 -0.0027
90691W        W91555  25.671  12.811  14.273 -0.0571  0.1871  0.3367
90692W        W91556  27.102  14.294  16.289  0.0516 -0.0499  0.2679
90693W        W91557  27.318  13.667  16.118  0.6109 -0.0607 -0.3954
90694W        W91558  27.416  10.737  14.373 -0.0091  0.0928 -0.1008
90695W        W91559  23.865  13.423  16.533  0.0288 -0.4136 -0.0973
90696W        W91560  25.822  16.236  15.932  0.2080 -0.4466 -0.1652
90697W        W91561  28.895  14.031  15.840 -0.3346  0.0677 -0.0285
90698W        W91562  27.603  12.386  18.033  0.0350  0.1019  0.0017
90699W        W91563  26.432  15.531  14.371 -0.0109 -0.1553 -0.0457
90700W        W91564  25.514  14.707  18.501 -0.0993 -0.2447 -0.2100
90701W        W91565  27.503  11.765  15.309 -0.1442  0.1606  0.1338
90702W        W91566  23.983  14.962  13.953  0.3077 -0.0732  0.0177
90703W        W91567  25.153  12.895  14.484 -0.0807  0.1314 -0.1846
90704W        W91568  28.052  12.502  15.267  0.0982  0.2222 -0.1914
90705W        W91569  27.500  12.638  19.687  0.1155 -0.0032  0.1379
90706W        W91570  24.472  12.385  17.902 -0.2702 -0.1055  0.0846
90707W        W91571  27.064  11.865  15.110 -0.1713  0.2339  0.0337
90708W        W91572  24.188  12.059  12.900  0.2233 -0.2012 -0.3924
90709W        W91573  27.863  11.409  17.733  0.3574  0.1297  0.2000
90710W        W91574  28.560  10.098  14.479 -0.2618 -0.0529 -0.2267
90711W        W91575  27.499  11.250  17.360 -0.1275  0.1074 -0.0051
90712W        W91576  24.445  13.136  16.910  0.1087  0.2130 -0.1441
90713W        W91577  24.003  14.853  17.437  0.0109 -0.1653  0.2215
90714W        W91578  26.700  11.007  14.709  0.2027  0.0001  0.1472
90715W        W91579  24.665  17.554  17.422  0.1000 -0.0574  0.0335
90716W        W91580   0.850  11.518  14.641 -0.1755  0.0552  0.1236
90717W        W91581  25.785  16.524  14.462  0.1033  0.0276 -0.0236
90718W        W91582  28.249  13.982  19.372 -0.0851  0.2321  0.1064
90719W        W91583  27.664  14.985  17.548  0.2269 -0.2289 -0.0859
90720W        W91584   0.267  10.568  13.820 -0.0891  0.0128 -0.0081
90721W        W91585  28.704  11.730  16.422  0.0290 -0.4970  0.0012
90722W        W91586  23.924  14.810  18.057 -0.0060 -0.0390  0.4129
90723W        W91587  26.373  11.900  17.804 -0.1622  0.3169  0.0067
90724W        W91588  24.846  12.382  18.479 -0.0322  0.0488 -0.0954
90725W        W91589  28.259  11.780  14.219  0.2077 -0.0454  0.2502
90726W        W91590  26.581  14.956  16.325 -0.3872 -0.1692  0.0319
90727W        W91591  25.752  15.020  15.380 -0.0239 -0.1448 -0.1566
90728W        W91592  28.064  14.488  15.820 -0.3022 -0.1720 -0.2061
90729W        W91593  25.118  12.714  16.155  0.0290 -0.3227  0.0396
90730W        W91594  28.319  12.869  16.212 -0.1999 -0.1383 -0.2704
90731W        W91595  29.066  15.182  15.714  0.2301 -0.2301 -0.1155
90732W        W91596  25.747  12.958  19.152  0.1017  0.1057 -0.1690
90733W        W91597  24.967  15.235  16.397  0.0443 -0.2192 -0.2079
90734W        W91598  27.948  14.378  12.680  0.1876  0.0715 -0.0231
90735W        W91599  25.119  12.967  16.736 -0.2288  0.2048 -0.0895
90736W        W91600  28.184  16.602  15.826  0.2145  0.0104  0.3814
90737W        W91601  25.986  12.970  16.108 -0.2303  0.1790 -0.1032
90738W        W91602  28.468  14.032  16.695 -0.1844  0.1901  0.0991
90739W        W91603  27.550  12.364  14.359  0.0205  0.2997 -0.0362
90740W        W91604  23.567  14.925  14.569 -0.0630  0.2436 -0.1093
90741W        W91605  25.820  14.383  13.926  0.3399  0.2956 -0.1427
90742W        W91606  25.489  12.271  16.943 -0.1239 -0.1378  0.0533
90743W        W91607  26.285  12.982  16.942 -0.2027 -0.0975  0.1591
90744W        W91608  27.983  12.849  14.489 -0.0552  0.0600  0.2775
90745W        W91609   0.115  11.329  17.468  0.0262  0.5722  0.0158
90746W        W91610  27.630  15.125  19.890  0.0428  0.0250  0.1275
90747W        W91611   0.229  11.805  17.295 -0.0846 -0.2276  0.0555
90748W        W91612   0.279  13.221  16.599  0.0568 -0.1448 -0.2430
90749W        W91613  25.210  13.776  17.984 -0.0872 -0.2822 -0.2227
90750W        W91614  28.779  12.289  15.568 -0.0486 -0.3255  0.1131
90751W        W91615  26.832  14.381  15.647  0.0853 -0.0175  0.1015
90752W        W91616  27.169  11.661  18.483 -0.0443  0.0943  0.1007
90753W        W91617  24.455  13.490  13.309 -0.0469 -0.4285  0.1609
90754W        W91618  23.580  11.427  17.915  0.2890  0.0954 -0.3078
90755W        W91619  28.391  10.037  14.957  0.0204 -0.0292  0.1567
90756W        W91620  25.199  13.349  17.166 -0.4049  0.0054  0.0869
90757W        W91621  25.829  13.151  15.097 -0.0731  0.1380 -0.0344
90758W        W91622  27.389  13.007  16.708  0.1188 -0.1543  0.0559
90759W        W91623  23.989  12.142  15.833 -0.2071 -0.1942  0.1891
90760W        W91624  27.487  12.140  13.873 -0.0366  0.1961 -0.0529
90761W        W91625  25.101  15.292  15.394 -0.1654 -0.0023 -0.1315
90762W        W91626  25.790  11.832  15.510  0.1970 -0.1654 -0.1027
90763W        W91627  26.879  13.472  19.155  0.1903 -0.4098 -0.0581
90764W        W91628   1.795  11.733  17.863 -0.1651  0.0528  0.2570
90765W        W91629  25.996  15.140  18.571  0.0424 -0.0520 -0.0247
90766W        W91630  25.794  15.279  16.291  0.2088  0.3574 -0.3800
90767W        W91631  25.334  15.972  14.840 -0.2381 -0.1136  0.1468
90768W        W91632  28.766  11.545  17.437  0.0337 -0.4209 -0.0450
90769W        W91633  24.241  13.868  17.278 -0.0097  0.1518 -0.1574
90770W        W91634  26.390  11.169  20.925 -0.1137 -0.1294 -0.2468
90771W        W91635  26.625  11.800  20.208 -0.1015  0.1886 -0.1862
90772W        W91636  24.693  11.680  13.819 -0.2825 -0.3825  0.0485
90773W        W91637  25.473  12.178  14.621  0.0761 -0.3450  0.2289
90774W        W91638  25.638  13.765  17.234  0.4957  0.2333  0.1196
90775W        W91639  23.670  12.339  19.594 -0.1277 -0.0977  0.2556
90776W        W91640   0.894   8.584  14.383 -0.0743 -0.0337  0.1890
90777W        W91641  24.852  14.676  17.220 -0.0050  0.0765  0.3534
90778W        W91642  25.938  14.354  15.316 -0.1231 -0.2373 -0.1443
90779W        W91643  27.724  15.737  16.457 -0.0475  0.0258 -0.0495
90780W        W91644  25.494  15.368  15.029 -0.0581  0.1318 -0.0706
90781W        W91645  27.260  13.960  16.775  0.3019  0.0225 -0.0998
90782W        W91646  28.846  12.553  14.817 -0.1991  0.1435  0.0246
90783W        W91647  24.818  14.071  14.309 -0.1607  0.0787 -0.0051
90784W        W91648   0.604  12.499  16.748  0.2155  0.3177  0.2079
90785W        W91649  26.362  13.008  15.199  0.0297 -0.0934 -0.0824
90786W        W91650  24.711  14.532  14.509  0.0163 -0.4505 -0.0498
90787W        W91651  28.028  14.140  15.459  0.0016 -0.2861 -0.0210
90788W        W91652  27.617  11.387  15.640  0.1074 -0.2854 -0.4292
90789W        W91653  29.091  11.718  17.822 -0.1970 -0.2153  0.0742
90790W        W91654   0.210  12.390  18.559  0.0757 -0.0682 -0.1039
90791W        W91655  27.578  13.352  15.782 -0.0169  0.1457  0.3120
90792W        W91656  26.691  11.564  19.095  0.1654 -0.0323 -0.2916
90793W        W91657  28.115  12.517  19.190 -0.4958  0.1435  0.0129
90794W        W91658  23.185  11.864  15.666  0.0519 -0.0001 -0.2623
90795W        W91659  24.397  16.171  17.998 -0.1375 -0.0943  0.0176
90796W        W91660  27.135  12.110  15.620  0.2120 -0.0503 -0.0785
90797W        W91661  27.714  15.307  16.758  0.2040 -0.2469  0.2000
90798W        W91662   0.206  13.253  17.406  0.2262  0.1469 -0.1043
90799W        W91663   1.055  14.425  17.550 -0.2176  0.1447 -0.0697
90800W        W91664  25.655  11.806  16.050  0.1064 -0.0767 -0.1234
90801W        W91665  24.935  14.460  15.070  0.2253  0.1583  0.0014
90802W        W91666   0.031  13.860  17.730  0.2530 -0.4586 -0.0597
90803W        W91667  24.839  12.915  17.222 -0.2823  0.2345 -0.0711
90804W        W91668  25.837  13.884  16.732 -0.2799  0.2576 -0.3281
90805W        W91669  25.515  12.627  15.881 -0.1068  0.1325 -0.0490
90806W        W91670  25.457  14.809  15.011  0.0264 -0.0121  0.1208
90807W        W91671  23.480  14.529  18.126 -0.1156 -0.3220  0.1835
90808W        W91672  26.734  13.361  16.200 -0.0443 -0.2378 -0.0016
90809W        W91673  24.622  16.133  15.914 -0.2558  0.2475 -0.0706
90810W        W91674  26.169  11.568  19.228  0.0072 -0.0686  0.1553
90811W        W91675  24.031  15.211  14.367 -0.0540 -0.0292  0.0613
90812W        W91676  26.085  12.453  16.178  0.0545 -0.0703 -0.0151
90813W        W91677  23.536  17.662  18.118  0.6411  0.2438  0.0399
90814W        W91678  26.215  13.917  22.420  0.0460 -0.0208  0.0101
90815W        W91679  28.592  13.166  17.196  0.1048 -0.0144 -0.2032
90816W        W91680  28.446  14.079  19.813  0.1270 -0.1355  0.0538
90817W        W91681  25.675  14.915  18.946  0.2993 -0.0275  0.1895
90818W        W91682  26.532  13.538  15.712  0.0643  0.2201 -0.1017
90819W        W91683  25.622  11.840  21.143 -0.1633 -0.1229  0.4035
90820W        W91684  27.985  13.856  16.817  0.1190  0.2807 -0.1547
90821W        W91685  25.436  13.751  19.396 -0.1234  0.1365 -0.3883
90822W        W91686  24.306  11.770  21.417  0.0587  0.0975  0.1078
90823W        W91687  27.958  10.178  19.592  0.1574  0.0866 -0.3721
90824W        W91688  27.542   8.670  18.045  0.3632  0.1136 -0.1992
90825W        W91689  25.932  12.445  19.028 -0.1997  0.0881  0.0659
90826W        W91690   0.749  14.754  20.939  0.1564 -0.1640  0.0039
90827W        W91691  26.787  12.561  23.447  0.2928  0.3974  0.0163
90828W        W91692  24.614  14.026  23.364  0.0544 -0.1932  0.2517
90829W        W91693   0.018  14.437  19.236  0.2595  0.0945  0.1844
90830W        W91694  24.684  11.438  21.363 -0.1626 -0.0389  0.0109
90831W        W91695  28.070  12.186  21.233  0.0433 -0.0338  0.2715
90832W        W91696  27.103  13.924  19.312 -0.2365  0.1676  0.1694
90833W        W91697   0.927  15.026  19.065  0.2765 -0.0626  0.0768
90834W        W91698  25.831  10.691  19.619  0.2423  0.0684  0.1560
90835W        W91699  27.871  14.395  20.567 -0.0866  0.0015  0.0521
90836W        W91700  25.695  15.145  19.659  0.0365 -0.0180 -0.0376
90837W        W91701  27.115  12.273  20.039 -0.1801 -0.1303 -0.1360
90838W        W91702  25.685  13.309  21.732 -0.1939  0.0030 -0.1001
90839W        W91703   3.640  12.741  20.318  0.0573 -0.0861 -0.1797
90840W        W91704   0.311  14.623  18.312 -0.0674 -0.0996 -0.1628
90841W        W91705  28.454  13.719  20.198 -0.1400 -0.1776  0.1949
90842W        W91706  28.844  13.968  20.633  0.1469 -0.2155 -0.0427
90843W        W91707  25.593  12.876  20.420  0.2481 -0.0059 -0.0834
90844W        W91708  26.509  13.234  21.364  0.2784 -0.0345 -0.2419
90845W        W91709  27.701  15.022  21.697  0.2964 -0.1949  0.1043
90846W        W91710  27.418  14.281  19.612 -0.3963 -0.2796 -0.1252
90847W        W91711  28.648  10.361  23.265  0.1550 -0.0448 -0.1624
90848W        W91712  27.891  14.499  22.469  0.1639  0.0471 -0.0695
90849W        W91713  25.253  13.351  19.880  0.1066  0.1681  0.1921
90850W        W91714  25.996  12.514  21.063  0.5453  0.0337 -0.1415
90851W        W91715   1.091  15.185  20.737 -0.3624  0.1139  0.3067
90852W        W91716  26.981  14.510  22.260  0.2231 -0.1542  0.1640
90853W        W91717  26.269  12.691  19.330 -0.0810  0.0820  0.1830
90854W        W91718  27.777  15.167  20.777  0.0067 -0.1157  0.0153
90855W        W91719  27.269  15.323  20.723 -0.0015  0.1301  0.1078
90856W        W91720  27.399  14.511  15.938  0.0774 -0.0703  0.2425
90857W        W91721  26.508  17.199  16.723  0.3250 -0.0788 -0.2493
90858W        W91722  27.885  15.151  17.184  0.0074 -0.2708  0.1697
90859W        W91723  27.148  13.872  22.182 -0.0604 -0.1107  0.2225
90860W        W91724  28.749  15.443  21.122  0.2087  0.2130 -0.1181
90861W        W91725   0.337  12.119  19.539 -0.3413 -0.0154 -0.0605
90862W        W91726  26.210  11.190  18.737  0.0741  0.2571 -0.1231
90863W        W91727  27.436  15.835  20.604  0.0359  0.1455 -0.0807
90864W        W91728  28.491  12.481  23.924 -0.2485  0.1553 -0.0517
90865W        W91729  28.321  14.911  23.463  0.2746 -0.1719 -0.0464
90866W        W91730   1.167  14.274  20.188  0.0167  0.0435  0.0933
90867W        W91731  28.803  12.956  21.910  0.1399  0.1963 -0.0792
90868W        W91732  28.213  14.335  17.659  0.0307 -0.0423  0.0178
90869W        W91733  25.658  12.593  19.845 -0.0981  0.1263 -0.0452
90870W        W91734  28.113  13.668  22.046  0.1325  0.2476  0.0053
90871W        W91735  25.770  12.694  18.586 -0.0412 -0.0428  0.4298
90872W        W91736  27.945  14.155  19.827  0.1779  0.0676 -0.0944
90873W        W91737  23.365   9.308  16.915 -0.0291 -0.0857 -0.1139
90874W        W91738  25.335  13.698  23.913 -0.1396 -0.0809 -0.0320
90875W        W91739  23.914  13.901  24.116  0.1899  0.2116 -0.1164
90876W        W91740   0.329  13.417  17.876  0.0489 -0.3219  0.2559
90877W        W91741  26.873   8.811  18.896  0.1248  0.3075 -0.2735
90878W        W91742  27.221   9.299  21.711  0.1645  0.0910 -0.1043
90879W        W91743  25.978  12.639  17.582  0.0814  0.3003  0.3505
90880W        W91744  26.432  12.752  17.399 -0.1435 -0.0181  0.1749
90881W        W91745  27.875  14.337  19.353 -0.0413  0.2166 -0.2313
90882W        W91746  27.629  13.857  19.373  0.2949  0.0322 -0.1202
90883W        W91747  26.788  14.683  22.849  0.1597  0.0206 -0.0952
90884W        W91748  28.728  13.123  20.851 -0.0079 -0.2585 -0.0339
90885W        W91749   2.422  15.204  19.601  0.0265  0.1828  0.2169
90886W        W91750  27.396  11.129  25.420  0.2651 -0.0412  0.0147
90887W        W91751   0.760  12.749  19.344  0.2342 -0.0430  0.1465
90888W        W91752  27.364  14.573  21.912  0.3058 -0.0877 -0.0081
90889W        W91753  27.329  12.145  19.036  0.1822  0.5053 -0.2649
90890W        W91754  27.384  14.149  18.053  0.1327 -0.1878  0.1839
90891W        W91755  28.673   9.952  17.252  0.2029 -0.0507  0.1711
90892W        W91756   1.287  15.262  18.625  0.0966 -0.0863  0.0958
90893W        W91757  25.600  12.815  20.989  0.0858 -0.1862  0.1143
90894W        W91758  29.064  15.812  23.221 -0.0301  0.1568  0.0006
90895W        W91759  26.309   8.250  18.629 -0.0205  0.1367  0.1351
90896W        W91760  26.375   8.769  20.263  0.1790  0.0812  0.2464
90897W        W91761  28.942  11.107  20.938  0.4300 -0.0011  0.1002
90898W        W91762  28.203  12.752  17.048  0.0965 -0.0186  0.3292
90899W        W91763  28.208  14.726  20.894 -0.2817  0.0456  0.0891
90900W        W91764  28.627  11.515  23.728 -0.3014  0.0867 -0.1196
90901W        W91765   0.803  13.925  20.372 -0.2649 -0.1761 -0.3466
90902W        W91766  28.027  12.433  19.707 -0.1080  0.2137  0.1697
90903W        W91767  28.316  13.364  17.895  0.1046 -0.1879 -0.2976
90904W        W91768  27.507  13.821  23.286  0.0398 -0.1560  0.0676
90905W        W91769  26.429  19.145  21.051  0.2042  0.0612  0.2099
90906W        W91770  23.494  12.131  20.299 -0.0089  0.0609  0.3708
90907W        W91771  27.048  11.563  22.077  0.2552 -0.0794 -0.3744
90908W        W91772  26.692  12.692  18.024  0.2232  0.1217  0.3661
90909W        W91773   0.117  11.983  18.298 -0.0233 -0.1781 -0.0676
90910W        W91774  27.332  13.431  21.347  0.1571  0.0283 -0.0859
90911W        W91775  25.007  10.855  16.479 -0.2081 -0.2497  0.2683
90912W        W91776  29.004  12.930  20.526 -0.0565  0.0900  0.0168
90913W        W91777  26.066  16.073  17.845  0.1719  0.0477  0.0685
90914W        W91778  26.987  14.352  19.464 -0.2577  0.0597  0.1176
90915W        W91779  28.210  12.798  20.984 -0.2395  0.0633 -0.2713
90916W        W91780   0.259  13.572  21.758 -0.0493 -0.1704 -0.1435
90917W        W91781  27.634  14.225  22.974 -0.1862 -0.1476  0.1422
90918W        W91782  27.071  12.494  21.831 -0.0495 -0.0351  0.2246
90919W        W91783  26.303  13.920  16.910  0.0326 -0.0403 -0.2387
90920W        W91784  26.001  13.884  22.864 -0.1583 -0.1408  0.1077
90921W        W91785   1.606   8.788  18.642 -0.2024 -0.0370 -0.1187
90922W        W91786  25.141  12.292  21.569  0.0703 -0.0901 -0.1032
90923W        W91787  28.097  12.637  20.283 -0.1300 -0.1751  0.0296
90924W        W91788  27.138  17.855  17.577  0.1242  0.0900 -0.1169
90925W        W91789   1.038  11.832  23.593  0.2186 -0.1716 -0.0597
90926W        W91790  24.430  13.925  21.994 -0.0021  0.2441 -0.0139
90927W        W91791  28.129  15.192  19.376  0.2873  0.0748  0.2804
90928W        W91792  27.625  14.018  18.487  0.2153  0.0143 -0.0577
90929W        W91793  28.993  13.240  22.336  0.4274 -0.0303  0.2949
90930W        W91794  24.590  14.291  20.293  0.1364  0.1657 -0.0276
90931W        W91795  27.147  11.804  19.901 -0.0171 -0.2142  0.5951
90932W        W91796  28.970  13.108  16.895 -0.2258 -0.2226  0.0113
90933W        W91797  27.646  13.181  19.561 -0.1297 -0.0070 -0.3635
90934W        W91798  25.581  15.016  17.638  0.2568  0.1040  0.1645
90935W        W91799   0.586  15.938  20.983  0.0552  0.1961  0.0282
90936W        W91800  25.409  11.683  18.163  0.1472 -0.1792  0.0544
90937W        W91801  26.115  13.050  21.713  0.0903  0.3103  0.0533
90938W        W91802   1.575  11.847  21.232 -0.0625 -0.0761  0.0961
90939W        W91803  24.150  13.665  20.650 -0.2197 -0.3231  0.1799
90940W        W91804  26.937  15.081  21.109  0.0973  0.0612 -0.0305
90941W        W91805   0.093  13.982  18.270 -0.0171 -0.2787 -0.1605
90942W        W91806   0.167  12.900  16.206 -0.0704 -0.1477 -0.0864
90943W        W91807  26.473  16.703  21.841  0.0380 -0.1998 -0.2137
90944W        W91808  25.866  11.838  17.968 -0.0860 -0.2107  0.1806
90945W        W91809  28.247  14.730  19.297 -0.0414  0.0516  0.1392
90946W        W91810  27.227  13.130  19.339  0.0297  0.1923 -0.0378
90947W        W91811   1.047  13.507  19.446 -0.0090 -0.0768  0.1208
90948W        W91812  26.372  11.426  20.017  0.1773 -0.1386  0.1056
90949W        W91813   0.282  14.349  20.579  0.0376  0.2389  0.1619
90950W        W91814  28.798  14.869  20.930 -0.0095 -0.1786  0.2202
90951W        W91815  28.249  14.326  20.208 -0.2491  0.0081  0.0598
90952W        W91816  26.567  13.091  20.764  0.0774 -0.1503  0.0371
90953W        W91817  26.324  11.881  17.186  0.4250 -0.0975 -0.1349
90954W        W91818  27.562  12.215  20.566 -0.1206 -0.1564 -0.1456
90955W        W91819   0.569  16.298  19.687 -0.1645 -0.0038 -0.2449
90956W        W91820  24.829  14.593  19.237  0.0486 -0.3020  0.2268
90957W        W91821  28.272  13.316  21.143 -0.0267 -0.0306 -0.1678
90958W        W91822  28.962  12.489  20.283 -0.3058 -0.0175  0.1404
90959W        W91823  27.364   8.132  20.416  0.5535  0.1950  0.1703
90960W        W91824   1.442  16.221  19.196 -0.1736  0.2132  0.2309
90961W        W91825  25.849  13.665  19.961  0.1332 -0.0965  0.2212
90962W        W91826  28.938  12.967  19.837  0.2608 -0.0339  0.0973
90963W        W91827  26.415  10.998  21.642 -0.1942 -0.4562  0.0653
90964W        W91828  28.549  10.700  17.800  0.2538  0.3571  0.0099
90965W        W91829  27.942  15.078  18.862 -0.1473  0.0601 -0.0664
90966W        W91830  27.150   8.286  18.178  0.2013  0.1289 -0.0831
90967W        W91831  27.905  14.085  18.004  0.1256  0.0450 -0.0991
90968W        W91832   0.045  12.596  22.160  0.1636  0.2097  0.1607
90969W        W91833  26.793  13.514  21.663 -0.2394 -0.1909  0.1438
90970W        W91834  28.747  12.134  17.122 -0.0687  0.0326 -0.0338
90971W        W91835  26.733  10.434  19.307  0.0113  0.2703  0.2030
90972W        W91836  26.745  10.152  18.736  0.0542  0.1944  0.2319
90973W        W91837   1.686  12.220  23.276  0.2307  0.0396 -0.0712
90974W        W91838  27.773  13.168  20.921 -0.0014  0.1270  0.0543
90975W        W91839  27.512  11.037  21.447  0.0606  0.0805 -0.0358
90976W        W91840   1.225  14.249  21.701 -0.1186  0.2175  0.2604
90977W        W91841  27.255  12.119  23.997  0.0009  0.2862  0.2353
90978W        W91842  26.624  12.702  21.611  0.3172 -0.0233 -0.0938
90979W        W91843  25.619  11.566  20.003 -0.1180  0.1006  0.1541
90980W        W91844  26.385  15.445  18.481  0.1451  0.1746 -0.1938
90981W        W91845  28.646  14.266  21.478 -0.4538 -0.0076  0.0875
90982W        W91846  27.978  13.207  17.531 -0.0347  0.0215  0.0882
90983W        W91847  28.366  10.992  20.982  0.1289 -0.4541  0.4257
90984W        W91848  25.713  13.877  22.463 -0.0188  0.0189  0.1490
90985W        W91849  26.783  11.752  23.456  0.1676 -0.3199 -0.1294
90986W        W91850  23.740  15.153  17.031 -0.0068  0.0124 -0.0632
90987W        W91851  26.264  13.278  17.348  0.0645  0.0714 -0.0833
90988W        W91852  26.618  12.263  18.322  0.0114  0.0149 -0.0861
90989W        W91853  28.047  17.041  22.947 -0.0273 -0.0910  0.0792
90990W        W91854  27.112  13.490  22.652 -0.1933 -0.1171 -0.0536
90991W        W91855  25.670  13.658  18.406  0.0833  0.1785 -0.1709
90992W        W91856  27.408  11.963  22.089  0.2085  0.0289 -0.0867
90993W        W91857  26.343  12.673  18.458  0.2035  0.0225 -0.3080
90994W        W91858   0.922  14.560  19.857  0.2841 -0.1433 -0.1562
90995W        W91859  26.003  14.386  16.446  0.0358  0.2367 -0.3913
90996W        W91860  29.105  12.673  18.901 -0.1634  0.1641 -0.0475
90997W        W91861   0.107  12.020  15.557  0.2303  0.1794  0.0907
90998W        W91862  27.049  11.486  21.536  0.0184 -0.5737  0.0688
90999W        W91863  25.758  11.646  21.602  0.0228  0.1476 -0.1891
91000W        W91864  24.937  10.303  17.230  0.7193 -0.3244 -0.0338
91001W        W91865  26.175  14.094  20.125 -0.0212  0.0971  0.2511
91002W        W91866  25.268  14.840  21.492  0.0419 -0.0580  0.1701
91003W        W91867  27.137  14.964  18.180  0.0833 -0.0907 -0.0781
91004W        W91868  28.464  16.563  19.132 -0.0646 -0.0774  0.0229
91005W        W91869  25.823  12.997  22.721  0.4618  0.1523  0.1017
91006W        W91870  27.305  13.401  23.150 -0.4106 -0.2522  0.0067
91007W        W91871  27.348  10.424  18.920  0.1257 -0.0628 -0.0030
91008W        W91872  24.575  10.519  18.714  0.1313 -0.0373  0.1885
91009W        W91873  28.084  11.970  19.269  0.1673 -0.2281 -0.2510
91010W        W91874  26.706  13.149  18.269  0.1403 -0.1824 -0.0690
91011W        W91875  24.161  12.798  19.155 -0.1048 -0.0151 -0.1585
91012W        W91876  25.464  13.497  20.337  0.0097 -0.2857  0.0241
91013W        W91877  26.822  13.273  19.775 -0.1707 -0.0199  0.2394
91014W        W91878  28.199  13.263  20.124 -0.2010  0.2760 -0.0688
91015W        W91879  29.061  14.115  19.618  0.2471  0.1005 -0.2712
91016W        W91880  27.937  11.921  20.678 -0.2258 -0.0294 -0.2174
91017W        W91881  24.977  13.936  21.989  0.0397  0.0496 -0.0451
91018W        W91882  24.033  11.806  18.957 -0.1491  0.0920  0.0455
91019W        W91883  27.955  15.688  23.176  0.0298  0.0083 -0.1166
91020W        W91884   1.043  11.856  22.656 -0.2720 -0.0362  0.1397
91021W        W91885   0.530  14.096  19.970  0.0513  0.2363 -0.2822
91022W        W91886  24.656  12.867  16.529 -0.1542 -0.2211  0.1124
91023W        W91887  27.514  15.377  22.367  0.1514 -0.0541 -0.0825
91024W        W91888  24.610  11.515  19.854  0.2300  0.2534 -0.0134
91025W        W91889  26.062  14.044  21.826  0.0572 -0.0941  0.0322
91026W        W91890   0.374  12.205  22.124 -0.1815 -0.1264  0.1232
91027W        W91891  27.913  13.261  23.459 -0.2148  0.1054  0.0399
91028W        W91892  29.117  12.861  18.254  0.0501 -0.2001  0.0200
91029W        W91893   0.784  12.254  19.152  0.0284  0.1643 -0.0056
91030W        W91894  27.253  15.549  16.563  0.0517 -0.1274  0.1160
91031W        W91895   0.563  13.257  22.054  0.0905  0.2910  0.1727
91032W        W91896  26.171  14.952  23.468  0.2491  0.2376  0.2282
91033W        W91897  28.423  11.066  24.555  0.3109  0.0366  0.0320
91034W        W91898  25.902  14.822  22.083  0.0804 -0.0636 -0.0781
91035W        W91899  24.983  15.725  23.030 -0.2076 -0.2257  0.0815
91036W        W91900  25.573  11.046  17.377 -0.0370 -0.0527  0.2561
91037W        W91901   0.122  14.609  17.076  0.2315  0.3698  0.1744
91038W        W91902  24.568  10.298  20.012 -0.1235 -0.0612 -0.1131
91039W        W91903  25.757  14.773  22.599  0.2701 -0.2780  0.3144
91040W        W91904  28.304  11.447  21.281 -0.1106  0.1590 -0.0542
91041W        W91905  27.995  15.826  18.288  0.0270 -0.0702  0.0355
91042W        W91906  26.889  15.519  21.444 -0.0656  0.0130 -0.0419
91043W        W91907  26.104  12.362  19.762  0.3958 -0.2094 -0.4629
91044W        W91908  26.604  14.213  21.107 -0.1819 -0.0399  0.0823
91045W        W91909  27.003  13.142  20.556  0.2985  0.1805  0.0651
91046W        W91910   0.272  13.047  19.688 -0.1199  0.0904  0.0670
91047W        W91911  28.047  12.665  21.444 -0.1753 -0.0925 -0.4996
91048W        W91912  28.399  13.474  18.464 -0.3597  0.0836  0.1312
91049W        W91913  28.572  14.661  20.050 -0.1770  0.2595  0.2646
91050W        W91914  25.950   9.717  21.157 -0.1589 -0.1252  0.1700
91051W        W91915  27.792  12.671  20.701 -0.0115  0.0562  0.1777
91052W        W91916  27.097  12.316  20.941 -0.2588  0.1007  0.0250
91053W        W91917  28.374  11.997  19.759 -0.1448  0.2442  0.1056
91054W        W91918  26.679  15.853  22.470  0.0803  0.0854 -0.1683
91055W        W91919  27.310  13.154  23.770 -0.0623  0.1274  0.3266
91056W        W91920  27.247  12.900  17.318 -0.2904  0.0462  0.1903
91057W        W91921  28.712  13.541  19.784 -0.0551  0.1023  0.0230
91058W        W91922  27.447  15.088  18.569  0.2447  0.3334 -0.1320
91059W        W91923   1.542  15.060  17.992 -0.0010  0.2870 -0.2242
91060W        W91924  26.586  14.193  19.875 -0.4445 -0.1555  0.0174
91061W        W91925   0.583  14.065  16.999  0.1313  0.2272  0.2737
91062W        W91926  25.250  10.796  17.105 -0.2231 -0.0105 -0.5229
91063W        W91927  27.102  13.457  20.174  0.0310  0.3151 -0.2698
91064W        W91928  24.920  14.784  21.904 -0.1636  0.2881 -0.0248
91065W        W91929  29.108  14.699  18.746  0.2855 -0.1634 -0.2355
91066W        W91930  27.716  13.989  21.917  0.3649 -0.1672  0.0225
91067W        W91931  28.554  12.432  17.477 -0.2472  0.3573  0.1635
91068W        W91932   1.268  16.224  17.412 -0.1218 -0.1390 -0.1486
91069W        W91933  26.532  13.137  21.922  0.0102  0.1998  0.1959
91070W        W91934  28.461   8.834  21.722 -0.0778  0.2333 -0.1937
91071W        W91935  28.561  11.653  18.525 -0.0565  0.1240  0.2430
91072W        W91936  27.673  12.854  17.644 -0.2809 -0.0191  0.0005
91073W        W91937   0.865  11.536  19.973 -0.0309  0.2122 -0.1157
91074W        W91938  27.310  14.679  23.735  0.2356  0.0322  0.0369
91075W        W91939   1.186  12.354  23.582 -0.4364 -0.0822  0.0464
91076W        W91940  27.107  11.685  23.097 -0.0024 -0.2005  0.3697
91077W        W91941  25.127  12.358  19.676 -0.3647 -0.0361 -0.0818
91078W        W91942  26.074  16.712  23.856  0.4067 -0.3279 -0.3243
91079W        W91943  26.805  14.714  18.413  0.3150 -0.2149 -0.0604
91080W        W91944   0.503  14.358  19.370  0.1414 -0.0408  0.1023
91081W        W91945  25.757  10.475  17.771  0.3353 -0.1600 -0.0340
91082W        W91946   1.060  13.278  20.046  0.0531 -0.0203  0.2017
91083W        W91947  27.331  12.611  21.365 -0.2402 -0.2625  0.3063
91084W        W91948   1.298  12.916  22.503  0.3237  0.2295 -0.0377
91085W        W91949  27.253  13.555  19.662 -0.1145  0.0579  0.2805
91086W        W91950  28.240  15.846  19.327 -0.0372 -0.0928 -0.1664
91087W        W91951  27.232  10.525  20.045  0.2170  0.1769 -0.1806
91088W        W91952  28.537  13.028  22.785  0.1686 -0.2098  0.2045
91089W        W91953  26.527  12.338  20.961  0.2580 -0.0605  0.3502
91090W        W91954  26.932  12.645  19.180 -0.1957  0.0098 -0.0009
91091W        W91955  27.825  12.238  18.839  0.0815  0.2474 -0.0353
91092W        W91956  23.996  15.174  21.841 -0.2343 -0.0802  0.0141
91093W        W91957  27.493  11.397  19.867 -0.0972  0.0466  0.2027
91094W        W91958  27.322  11.084  16.447  0.1821 -0.0973  0.1069
91095W        W91959  27.526  12.254  21.725 -0.2617  0.2271 -0.1124
91096W        W91960  26.093  15.811  23.194  0.1808 -0.0154 -0.0012
91097W        W91961  26.406  15.037  17.468  0.0298  0.3747 -0.0965
91098W        W91962   0.820  12.373  20.178  0.1517 -0.1079 -0.0982
91099W        W91963  26.519  15.658  19.652 -0.1814 -0.2967 -0.3075
91100W        W91964  25.728  14.218  23.261 -0.2065  0.0280 -0.3297
91101W        W91965  28.819  13.877  19.180  0.2435  0.1026  0.1299
91102W        W91966  28.678  13.248  20.260 -0.0458 -0.2178  0.2188
91103W        W91967  28.059  12.790  17.953  0.1581  0.0860  0.1715
91104W        W91968  27.077  11.928  20.415 -0.0387  0.0303 -0.0855
91105W        W91969   0.962  11.379  21.201  0.0557 -0.0326 -0.3849
91106W        W91970  26.784  11.457  20.491 -0.3054  0.0668 -0.1384
91107W        W91971  27.261  13.343  21.880 -0.2044  0.1733  0.2619
91108W        W91972   2.301  14.861  20.046 -0.3941 -0.0142  0.0039
91109W        W91973  27.333  13.140  22.343 -0.1237  0.1137  0.0112
91110W        W91974  28.492  13.558  19.254  0.2621  0.1482  0.2778
91111W        W91975  26.214  13.567  21.620  0.1110 -0.2080 -0.0721
91112W        W91976  27.448  13.963  21.179 -0.1845  0.0038  0.1276
91113W        W91977  26.999  12.376  18.779  0.1258  0.2907 -0.1206
91114W        W91978  24.396  10.479  20.493 -0.4424 -0.3829  0.2458
91115W        W91979  24.431  15.228  22.036  0.0021 -0.0050 -0.4561
91116W        W91980   0.491  13.668  17.461  0.1135 -0.3305 -0.2268
91117W        W91981  27.883  14.754  20.088 -0.1421  0.2786 -0.0439
91118W        W91982  27.266  16.003  21.517 -0.1080  0.3583 -0.5515
91119W        W91983   0.118  14.970  22.632 -0.0119 -0.0507 -0.2123
91120W        W91984  26.753  10.566  21.338 -0.2268  0.2725 -0.2798
91121W        W91985  26.530  12.382  18.918 -0.3045 -0.1994  0.1375
91122W        W91986  25.805  13.093  17.750 -0.1705  0.1345  0.3109
91123W        W91987  25.890  11.167  19.768 -0.2596 -0.0704 -0.0792
91124W        W91988  26.225  11.550  23.592  0.0989 -0.1848  0.0998
91125W        W91989  27.982  10.904  21.311 -0.2281  0.1114 -0.0534
91126W        W91990  27.445  12.679  24.988  0.1010 -0.2283 -0.0243
91127W        W91991  22.399  15.988  19.444  0.0149 -0.0504  0.1345
91128W        W91992  28.172  15.935  21.790 -0.0056  0.2365  0.1204
91129W        W91993  26.817   9.642  19.477  0.0118 -0.0434  0.2830
91130W        W91994  26.880  12.764  21.019 -0.0435 -0.2298 -0.1377
91131W        W91995  25.433  13.966  22.926 -0.2829  0.2106 -0.0948
91132W        W91996  26.494  13.363  18.841  0.2773  0.0511  0.0988
91133W        W91997  27.694  13.348  20.054  0.1867  0.1777 -0.0177
91134W        W91998  29.052  13.570  17.195  0.1487 -0.0472 -0.1841
91135W        W91999  25.266  15.750  23.548 -0.1332 -0.0233 -0.0715
91136W        W92000  26.133  13.401  23.054  0.0222 -0.1829 -0.1585
91137W        W92001  24.997  10.168  18.675 -0.1810  0.0297  0.1997
91138W        W92002  26.409  13.019  22.886 -0.1908 -0.4900 -0.1748
91139W        W92003  27.401  10.995  19.591  0.0599  0.0309 -0.2284
91140W        W92004  27.857  11.214  18.902 -0.1484 -0.0100 -0.4449
91141W        W92005  27.990  12.487  18.383  0.1022 -0.1496 -0.3975
91142W        W92006  25.947  13.386  20.372  0.2460 -0.1425  0.0212
91143W        W92007  27.211  10.555  21.440 -0.1320 -0.2608  0.0205
91144W        W92008  28.740  11.866  19.076  0.1426 -0.2575 -0.2067
91145W        W92009   3.044  12.611  22.128  0.0532  0.1454  0.0711
91146W        W92010  26.561  15.690  23.442 -0.1271  0.0023 -0.2088
91147W        W92011  27.715  15.004  22.634 -0.2787  0.3872 -0.1551
91148W        W92012   0.916  14.513  19.021 -0.0307  0.0668  0.1341
91149W        W92013  24.046  15.991  18.935 -0.0860 -0.1969  0.3152
91150W        W92014  28.161  13.310  18.854 -0.0502 -0.0481  0.0881
91151W        W92015  25.839  10.020  18.919 -0.0479  0.2071  0.1066
91152W        W92016  27.035  11.719  16.897 -0.0797  0.1590 -0.0526
91153W        W92017  25.294  13.311  18.491 -0.0422  0.0158 -0.0158
91154W        W92018  25.471  12.887  21.861 -0.2813  0.1364  0.1697
91155W        W92019  27.424  12.405  22.276  0.0269 -0.1063 -0.0736
91156W        W92020  22.914  15.746  16.329  0.0840  0.0382 -0.0671
91157W        W92021  29.084  13.411  20.616  0.4897 -0.0906 -0.0023
91158W        W92022  24.729  14.440  20.747 -0.0916 -0.0524  0.0560
91159W        W92023  28.017  12.283  22.589 -0.0215 -0.0153 -0.1736
91160W        W92024  27.194   9.575  19.811 -0.1991  0.0341 -0.2189
91161W        W92025  28.697  11.175  20.459  0.1399 -0.2033  0.3138
91162W        W92026  25.491  11.515  19.105  0.0595  0.0053  0.0937
91163W        W92027  28.892  11.809  22.793  0.1657  0.0622 -0.0308
91164W        W92028  28.545  12.929  17.679 -0.1805 -0.1588 -0.1001
91165W        W92029   0.620  15.015  18.007  0.0994  0.2351 -0.0594
91166W        W92030  26.188  14.534  21.095  0.3024 -0.1403 -0.2984
91167W        W92031   0.407  13.410  20.946 -0.1639  0.0549  0.1476
91168W        W92032   0.668  12.290  20.708 -0.0552  0.2212 -0.0281
91169W        W92033  27.584  13.498  20.552 -0.0243  0.0147  0.3393
91170W        W92034  26.979  12.961  21.962  0.2225 -0.0232  0.1430
91171W        W92035  28.121  13.654  19.841 -0.1808  0.2144 -0.0117
91172W        W92036  26.940  10.098  19.734  0.2954 -0.2158  0.0779
91173W        W92037  25.677  12.060  19.838 -0.0370  0.2641 -0.1110
91174W        W92038  27.970  10.730  24.735 -0.0076 -0.0620 -0.2111
91175W        W92039  25.544  15.130  22.898 -0.3056 -0.1355 -0.3084
91176W        W92040  28.446  13.911  21.144  0.1409  0.0805 -0.0926
91177W        W92041  28.209  15.856  17.861 -0.2211 -0.0691  0.0766
91178W        W92042  25.464  13.793  20.835 -0.3323 -0.2269 -0.2738
91179W        W92043  28.619  16.571  18.040  0.2265  0.0411 -0.4185
91180W        W92044  28.916  12.261  18.112  0.0731 -0.1816 -0.2882
91181W        W92045  26.316   9.257  20.088  0.2292 -0.0120 -0.0003
91182W        W92046  27.687  11.739  18.950 -0.5772 -0.3246 -0.1577
91183W        W92047  26.557  11.396  19.544  0.3265  0.2976  0.1041
91184W        W92048  29.019  10.991  19.905 -0.2953 -0.1405  0.2522
91185W        W92049  26.823  12.997  17.628 -0.2861 -0.1962  0.2888
91186W        W92050   1.473  10.797  20.554 -0.1557 -0.2555  0.2520
91187W        W92051  26.579  13.638  18.290 -0.3667 -0.0279  0.0298
91188W        W92052  26.610  12.221  21.847  0.0775 -0.0683 -0.1108
91189W        W92053  25.671  10.603  20.074  0.0806  0.1775  0.0393
91190W        W92054  28.571  14.346  19.424  0.2469 -0.1190 -0.2032
91191W        W92055  28.742  11.479  24.209  0.1151  0.2062 -0.0607
91192W        W92056   1.033  14.661  22.250 -0.0614  0.0778 -0.1099
91193W        W92057  28.561  16.760  22.464  0.0359  0.1451  0.0887
91194W        W92058  24.622  13.307  19.909 -0.0122  0.0603  0.2449
91195W        W92059  26.731  11.928  19.712  0.1846  0.2644  0.1438
91196W        W92060   0.502  14.195  18.462  0.0214 -0.1694  0.0695
91197W        W92061   0.251  16.117  21.331  0.1098 -0.1317  0.0667
91198W        W92062  26.950  12.091  22.288 -0.0868 -0.0611  0.1059
91199W        W92063  28.993  13.147  17.764  0.0563 -0.1842 -0.1468
91200W        W92064  28.021  15.433  22.286 -0.3566 -0.0033 -0.6236
91201W        W92065  27.639  15.273  19.279  0.0654  0.0791  0.2770
91202W        W92066  27.592  14.713  19.005  0.0172  0.0827  0.1384
91203W        W92067  27.036  12.649  22.447  0.0859  0.0442 -0.0587
91204W        W92068  26.706  12.858  18.805 -0.2364 -0.1659 -0.0606
91205W        W92069  28.976  13.948  21.138 -0.1493 -0.1052  0.1554
91206W        W92070  27.063  14.922  18.905 -0.2879 -0.0256  0.3951
91207W        W92071  23.428  12.587  21.556 -0.2168 -0.4084  0.0309
91208W        W92072  27.042  11.237  22.868  0.0236 -0.0509  0.0363
91209W        W92073  27.422  15.303  17.178 -0.0325  0.0128  0.1236
91210W        W92074  28.339  13.170  19.651 -0.0648  0.1153  0.0739
91211W        W92075  26.201  13.753  19.613  0.0537 -0.0350 -0.1009
91212W        W92076  23.599   8.978  18.294  0.1419  0.1483  0.0117
91213W        W92077  25.140   9.888  26.148 -0.0785 -0.1353 -0.1441
91214W        W92078  28.777  11.291  27.306 -0.2824 -0.1207  0.3069
91215W        W92079  27.592  13.029  21.409 -0.1046 -0.1918  0.0259
91216W        W92080   0.862  11.584  26.011 -0.0461  0.1326  0.2228
91217W        W92081  28.778  11.150  27.854 -0.0715 -0.1901  0.1961
91218W        W92082  28.348  11.836  24.040 -0.3704 -0.1830 -0.1957
91219W        W92083  24.987  13.769  20.442 -0.4075 -0.2027  0.3529
91220W        W92084   0.774  14.038  21.503  0.1194 -0.1908  0.1678
91221W        W92085  26.224  12.521  27.453 -0.0309 -0.3095 -0.0272
91222W        W92086  24.285  12.774  22.660 -0.0488 -0.1139 -0.0805
91223W        W92087  23.095  12.074  23.833  0.0678 -0.2219 -0.0714
91224W        W92088  28.441  12.197  25.888 -0.1974  0.0689  0.0067
91225W        W92089   0.803  13.119  22.598  0.1087  0.2144 -0.2256
91226W        W92090   1.780  12.807  25.718  0.3233  0.0674 -0.0491
91227W        W92091  25.890  12.036  24.897 -0.2516 -0.4585  0.0668
91228W        W92092  25.001  13.309  25.626  0.0800  0.0748 -0.0267
91229W        W92093  26.553  13.568  23.358  0.0177 -0.1372  0.2257
91230W        W92094  24.813  11.067  24.813  0.2371  0.2328  0.1061
91231W        W92095  28.303  10.528  26.628 -0.0370 -0.2938 -0.0288
91232W        W92096  28.792  12.998  27.381  0.1224 -0.0021  0.0266
91233W        W92097   0.604  11.731  22.820  0.0818  0.2251  0.0600
91234W        W92098  27.332  12.940  22.861  0.0726 -0.3182  0.1059
91235W        W92099  28.025  15.936  24.350 -0.0757 -0.1522  0.1943
91236W        W92100  25.765  12.792  21.448 -0.1043  0.2886 -0.0180
91237W        W92101  24.835  13.766  23.891 -0.0226 -0.2232 -0.1813
91238W        W92102  26.056  12.138  28.354 -0.0906 -0.2787  0.3225
91239W        W92103   2.337  11.799  24.572  0.0199  0.2296 -0.2605
91240W        W92104  28.314  16.044  25.464 -0.1924 -0.1498  0.1734
91241W        W92105  24.491  15.001  24.430 -0.1057 -0.1098  0.0259
91242W        W92106  26.619  14.135  21.682 -0.3552  0.0536  0.1070
91243W        W92107  26.900  11.405  24.219 -0.0837  0.2265  0.2378
91244W        W92108   0.116  14.642  24.762 -0.2299  0.0217 -0.0693
91245W        W92109  28.819  13.848  26.968 -0.0743  0.0343 -0.1951
91246W        W92110  28.445  14.455  25.182 -0.1085 -0.0470  0.1330
91247W        W92111  23.476  11.757  24.584 -0.0877  0.3131  0.0383
91248W        W92112  28.055  14.204  28.250  0.0146 -0.0979  0.3458
91249W        W92113  26.981  12.930  24.111  0.1662  0.1757 -0.0755
91250W        W92114  27.808  12.726  24.638 -0.0821 -0.0585  0.1381
91251W        W92115   1.357  14.169  24.519  0.0239  0.0096  0.1791
91252W        W92116  28.422  12.285  22.261 -0.2285 -0.1602  0.2261
91253W        W92117  28.486  12.334  26.750 -0.1078  0.0781  0.1301
91254W        W92118   2.291  14.129  25.672  0.4514 -0.1814  0.4241
91255W        W92119  27.534  16.582  26.008 -0.0657  0.2005  0.1126
91256W        W92120  26.516  12.858  23.924  0.1648  0.1291  0.6631
91257W        W92121  27.789  14.155  26.928 -0.0825 -0.0502 -0.0563
91258W        W92122  25.802  14.733  23.126 -0.0828 -0.1121  0.0753
91259W        W92123  25.351  11.279  24.700 -0.0261  0.2301  0.0902
91260W        W92124  27.140  12.259  22.726  0.1949  0.1189  0.1625
91261W        W92125  28.300  16.283  26.535 -0.2243  0.3509  0.0857
91262W        W92126  28.743  13.365  23.864 -0.0492  0.1065 -0.1842
91263W        W92127  27.986  14.673  25.927 -0.0439  0.4284 -0.0099
91264W        W92128  24.539  10.384  22.115 -0.1392 -0.1326 -0.0397
91265W        W92129   0.902  15.928  23.327 -0.1584  0.0616 -0.1787
91266W        W92130  25.854  17.827  23.224 -0.2393  0.2951  0.0967
91267W        W92131  27.209  13.350  25.917 -0.0759  0.0189  0.1642
91268W        W92132   0.034  14.026  23.026 -0.3328  0.1189 -0.1796
91269W        W92133  26.571  11.769  22.014 -0.0295 -0.1476  0.2661
91270W        W92134  28.593  12.964  24.242  0.1667 -0.1260 -0.0683
91271W        W92135  25.529  13.741  25.850 -0.1891 -0.1201  0.0304
91272W        W92136  27.875  15.874  21.353 -0.0260 -0.1038  0.1511
91273W        W92137  28.524  11.971  23.030  0.1576  0.0085  0.1394
91274W        W92138  26.589  13.231  24.237 -0.0221 -0.0663  0.1842
91275W        W92139  26.631  12.381  25.342 -0.2098  0.2491  0.1460
91276W        W92140  25.924  11.180  23.303 -0.1010  0.3707  0.0904
91277W        W92141  24.396  12.910  24.902  0.2244 -0.4224  0.1760
91278W        W92142  25.957  10.558  22.245  0.2212 -0.1508  0.1444
91279W        W92143  27.630  12.441  22.893  0.0654  0.2300  0.0720
91280W        W92144   0.382  13.348  25.037  0.0016 -0.0963 -0.0990
91281W        W92145  23.449  15.807  23.670 -0.0880 -0.0668  0.1688
91282W        W92146   0.507  14.281  24.520 -0.1396  0.1138 -0.2052
91283W        W92147  28.235  16.438  23.541  0.0900 -0.1396  0.1699
91284W        W92148  28.402  13.866  22.443  0.1588  0.1132 -0.4582
91285W        W92149  27.345  14.919  24.632 -0.1229  0.2627 -0.2785
91286W        W92150  28.761  11.624  28.358 -0.0779 -0.0223  0.0472
91287W        W92151  26.976  13.774  23.035 -0.1017  0.2439 -0.1278
91288W        W92152  26.834  11.314  25.422 -0.2878  0.1139  0.1329
91289W        W92153  27.307  13.088  19.911  0.2103  0.1987  0.1236
91290W        W92154  26.937  12.678  25.052  0.1505  0.1268  0.0565
91291W        W92155  26.160  11.992  26.497 -0.0972 -0.2005  0.1773
91292W        W92156  27.147  13.601  25.205 -0.2202 -0.0152 -0.0015
91293W        W92157  25.021  10.700  23.939 -0.2580  0.1236  0.0115
91294W        W92158  26.640  14.032  23.787 -0.1226  0.5601 -0.0861
91295W        W92159  27.535  13.034  20.392 -0.0112 -0.0033 -0.1753
91296W        W92160   0.242  10.694  27.052  0.0240 -0.3025 -0.0842
91297W        W92161  28.754   9.818  24.473  0.1645 -0.4774 -0.0993
91298W        W92162  27.764   9.792  24.422 -0.1567 -0.1423 -0.0766
91299W        W92163   0.683  10.958  27.132 -0.0689  0.3612  0.2511
91300W        W92164  28.677  10.631  27.796  0.3439 -0.1039  0.1004
91301W        W92165   0.984  14.433  25.988  0.1268  0.2961  0.2098
91302W        W92166  25.888  14.071  25.696  0.0607 -0.0745  0.1029
91303W        W92167  26.381  13.493  24.697  0.1438  0.2421  0.1496
91304W        W92168   1.615  11.583  26.296  0.1055  0.1058  0.2569
91305W        W92169  27.644  13.232  25.007  0.1190  0.0338  0.2599
91306W        W92170  26.270  11.350  24.084  0.0496 -0.0693 -0.1056
91307W        W92171  28.100  11.816  25.708  0.0075 -0.1027 -0.1507
91308W        W92172  28.201  14.205  22.061  0.1101 -0.2633  0.0540
91309W        W92173  26.614  14.662  21.335 -0.1786 -0.1064 -0.1053
91310W        W92174  26.649  12.275  27.418  0.1763  0.0423  0.1189
91311W        W92175  24.685  13.895  22.490  0.0828 -0.2348 -0.0965
91312W        W92176  27.119  10.600  24.024  0.0990 -0.0783 -0.0561
91313W        W92177  27.776  16.252  24.711 -0.2215 -0.1200 -0.1803
91314W        W92178  23.629  12.044  24.065 -0.1266 -0.1594 -0.2123
91315W        W92179  28.753  12.766  22.377  0.4308  0.2790  0.2562
91316W        W92180   0.227  14.243  25.561 -0.0245  0.4004 -0.1624
91317W        W92181   0.864  10.044  22.380  0.1034 -0.0317  0.0654
91318W        W92182  28.167  11.396  26.567 -0.0024  0.3150 -0.2109
91319W        W92183  25.655  14.416  21.814 -0.1223 -0.2442  0.0614
91320W        W92184  27.190  11.120  26.584  0.0719  0.0652  0.1944
91321W        W92185  26.567  10.446  25.052 -0.0386 -0.1627 -0.0756
91322W        W92186  24.366  12.622  26.321  0.3787  0.0659 -0.1912
91323W        W92187  27.437  11.841  25.229  0.0181 -0.1879 -0.1714
91324W        W92188   0.100  16.338  23.210  0.2254 -0.3469  0.2681
91325W        W92189   0.410  13.128  21.402  0.1709 -0.1234 -0.1153
91326W        W92190  27.055  14.610  24.334 -0.4201 -0.0246  0.0615
91327W        W92191   1.445  13.239  23.029 -0.2209 -0.0190 -0.1557
91328W        W92192  28.361  12.731  21.939  0.0441 -0.2361  0.0618
91329W        W92193   0.706  10.521  22.335 -0.0162 -0.0597 -0.1332
91330W        W92194  28.495  14.678  25.948 -0.0411 -0.0083 -0.0292
91331W        W92195  26.231  12.315  24.640  0.1680 -0.1196  0.2753
91332W        W92196  27.969  15.037  23.863 -0.0880  0.0094  0.0498
91333W        W92197   0.955  13.848  24.837 -0.0010  0.2967  0.0841
91334W        W92198   1.941  13.143  23.133  0.2750  0.1936 -0.1725
91335W        W92199  28.230  14.780  25.487 -0.0247 -0.2429 -0.2825
91336W        W92200  28.949  12.607  26.700  0.4248  0.0315  0.1899
91337W        W92201  27.455  12.349  25.950  0.0451 -0.0572 -0.0472
91338W        W92202  27.818  11.437  25.222 -0.2216  0.1060  0.1334
91339W        W92203  28.034   9.279  24.183  0.1462  0.0266  0.0071
91340W        W92204  27.683  13.055  27.635  0.0822 -0.1493  0.0366
91341W        W92205  28.435  13.511  24.288 -0.2039  0.1154  0.0361
91342W        W92206  28.176  13.619  25.158 -0.1283  0.0780  0.3941
91343W        W92207  27.598  15.476  27.495  0.0226  0.2015  0.4146
91344W        W92208  29.100  14.079  24.759  0.1866  0.0498 -0.0712
91345W        W92209  28.268  13.213  23.923 -0.0373 -0.0538 -0.0410
91346W        W92210  28.642  12.913  23.699 -0.1189  0.2358  0.0020
91347W        W92211   0.733  13.227  26.764 -0.2251 -0.0295  0.2038
91348W        W92212  27.531  11.076  23.539 -0.1440  0.0750 -0.0934
91349W        W92213  27.745  10.521  25.796  0.2804 -0.0846 -0.1575
91350W        W92214  28.282  12.999  27.395  0.0031 -0.1836 -0.0585
91351W        W92215  28.528  14.473  23.207  0.1275 -0.0679 -0.0564
91352W        W92216  26.760  12.461  24.189  0.1158  0.0688  0.1278
91353W        W92217  23.983  11.761  21.042 -0.0134 -0.3624  0.0543
91354W        W92218  27.869  11.812  24.378  0.1381  0.3895 -0.1980
91355W        W92219  27.300  14.088  24.644  0.4644 -0.0363  0.1481
91356W        W92220  27.331  10.802  21.032  0.1631 -0.1294  0.1273
91357W        W92221  28.286  14.461  27.844 -0.0143 -0.1422 -0.1588
91358W        W92222  28.689  11.762  25.769  0.1290 -0.2223  0.4696
91359W        W92223   0.182  11.969  26.789  0.0458  0.0733  0.0057
91360W        W92224  28.241  14.323  26.191 -0.2386 -0.0488  0.1366
91361W        W92225  28.156  13.705  23.055 -0.1340 -0.1164 -0.0140
91362W        W92226  27.353  12.957  24.609  0.2578  0.1703 -0.4571
91363W        W92227   0.068  14.446  26.354 -0.1224 -0.1990  0.1255
91364W        W92228  26.550  10.944  24.962 -0.0227  0.0103  0.2445
91365W        W92229  27.994  16.626  26.266  0.0672 -0.2163 -0.4126
91366W        W92230  28.779  12.485  21.882  0.0446  0.0300 -0.0749
91367W        W92231  25.633  11.961  24.044 -0.1056 -0.0756 -0.0752
91368W        W92232  28.301  12.241  21.706  0.2895 -0.1582 -0.3718
91369W        W92233  26.212  16.315  25.934 -0.2960 -0.1579 -0.3852
91370W        W92234  26.012   8.844  20.812 -0.3551  0.2201 -0.2401
91371W        W92235  28.646  13.484  22.671 -0.2268  0.0642  0.1478
91372W        W92236  26.047  11.799  24.257  0.3606 -0.0471 -0.2048
91373W        W92237   0.386  11.085  26.731  0.2019  0.0975 -0.1737
91374W        W92238  28.750  12.424  26.198 -0.2435 -0.0747  0.3946
91375W        W92239  27.457  12.816  26.909  0.0375  0.0092  0.0076
91376W        W92240  28.352  11.932  26.457 -0.3103  0.0326  0.1543
91377W        W92241   1.546   8.605  26.217  0.1738  0.0721  0.0222
91378W        W92242  23.402  11.333  24.887 -0.0433 -0.0613  0.0758
91379W        W92243  25.797  14.334  22.762  0.0650 -0.0871 -0.0167
91380W        W92244  25.760  14.474  23.638 -0.3790  0.0896 -0.0209
91381W        W92245  25.682  12.747  25.654 -0.1469  0.1225 -0.2273
91382W        W92246  27.987  11.360  22.773 -0.0148 -0.0772 -0.0902
91383W        W92247   0.531  12.614  25.526  0.4094 -0.1583  0.3881
91384W        W92248  26.224  12.587  25.565  0.3056  0.0219  0.1390
91385W        W92249  28.338  12.447  27.288  0.1287  0.0428  0.1425
91386W        W92250  28.132  13.589  21.539 -0.1762 -0.2941  0.3252
91387W        W92251  25.516  10.761  23.236  0.0229 -0.0808 -0.1787
91388W        W92252  27.688  12.809  22.528  0.0386 -0.1149  0.0224
91389W        W92253  23.082  14.445  24.037 -0.3524 -0.1793 -0.1077
91390W        W92254  26.335  14.590  23.783  0.0108  0.0704  0.0002
91391W        W92255  22.012  12.170  24.180  0.1019  0.2161  0.1464
91392W        W92256   0.040  11.825  28.615  0.3244  0.0761 -0.1684
91393W        W92257  28.659  15.893  21.763 -0.0895  0.0118 -0.0177
91394W        W92258  27.931  13.950  25.508  0.0385  0.0633  0.2221
91395W        W92259   0.736  15.156  21.355 -0.5009 -0.0339  0.1526
91396W        W92260  27.220  12.021  23.512  0.1858 -0.0922  0.1197
91397W        W92261  26.756   9.082  20.342  0.0024 -0.0510  0.0250
91398W        W92262  28.082  13.944  26.545 -0.2332  0.1381 -0.1547
91399W        W92263   0.850  11.653  24.284  0.2534 -0.1056 -0.1826
91400W        W92264  24.044  14.634  26.736  0.0478 -0.0299 -0.0333
91401W        W92265  27.783  11.495  27.130  0.2392 -0.0338  0.0207
91402W        W92266  26.037  14.365  25.040  0.0945  0.1446 -0.2734
91403W        W92267  26.547  11.747  23.928 -0.2762  0.0603  0.0311
91404W        W92268  26.178  15.975  22.440 -0.0717 -0.1295 -0.1138
91405W        W92269  25.756  11.339  25.343  0.0124 -0.0705 -0.0511
91406W        W92270   0.368  11.649  23.315  0.0094  0.1468 -0.2347
91407W        W92271  29.072  11.599  26.045 -0.1773 -0.1346  0.0903
91408W        W92272  23.564  10.805  23.554 -0.1573 -0.1447  0.0904
91409W        W92273   0.093   9.806  22.378 -0.1887  0.0116 -0.1225
91410W        W92274  25.627  12.004  22.963 -0.0203 -0.1298  0.0016
91411W        W92275  28.304  12.478  25.478 -0.2014  0.1618  0.0207
91412W        W92276  25.849  11.128  22.831  0.0553 -0.1432 -0.1619
91413W        W92277  26.028  10.343  21.351  0.1069  0.2156  0.2124
91414W        W92278  28.772  12.592  25.114 -0.0557  0.2340  0.1168
91415W        W92279  27.681  13.552  21.672 -0.2858  0.2986 -0.2262
91416W        W92280  25.269  14.327  20.629 -0.1828 -0.1141  0.1864
91417W        W92281  27.163  12.556  26.529 -0.0264 -0.1468  0.0738
91418W        W92282  27.619  13.588  22.231  0.0417  0.1332 -0.0501
91419W        W92283  26.228  10.873  22.599 -0.0698 -0.1390 -0.0402
91420W        W92284  27.547  11.915  25.746 -0.4367  0.1658  0.3036
91421W        W92285   1.762  13.397  18.805 -0.0710  0.2143 -0.1840
91422W        W92286  25.345  14.734  25.483 -0.2445  0.1366  0.0346
91423W        W92287  25.836  13.869  26.799 -0.1172  0.1833 -0.2167
91424W        W92288  26.141  12.891  24.671 -0.1342  0.1038 -0.2624
91425W        W92289  28.326  12.641  24.830 -0.0922  0.1783  0.2583
91426W        W92290  27.559  10.472  24.940  0.0611  0.1278  0.0148
91427W        W92291  27.976  14.434  25.303  0.0163  0.3168 -0.1371
91428W        W92292   0.718  12.622  23.266 -0.0781  0.0162 -0.0327
91429W        W92293  27.569  13.405  25.488 -0.0172  0.1141  0.0822
91430W        W92294  27.772  13.001  23.898  0.0446 -0.0107 -0.0033
91431W        W92295  26.501  13.856  27.627  0.1068 -0.0410  0.0361
91432W        W92296  25.030  12.392  25.205  0.1308  0.2667 -0.4419
91433W        W92297   0.493   9.372  24.336  0.3333 -0.2492 -0.0603
91434W        W92298   2.473  11.112  25.130  0.0547 -0.0879 -0.1502
91435W        W92299  25.302  14.598  26.023  0.0182 -0.2134  0.0554
91436W        W92300  26.283  10.922  23.123 -0.0833 -0.1535 -0.1072
91437W        W92301  27.208  13.900  20.375 -0.0004  0.0330 -0.1375
91438W        W92302  25.897  10.785  25.946 -0.2269  0.0610 -0.0752
91439W        W92303  26.977  14.085  25.147  0.3034 -0.0679 -0.2701
91440W        W92304   1.944  14.453  27.009  0.2349  0.1302 -0.0043
91441W        W92305  27.146  15.595  22.685  0.0590 -0.2408 -0.1299
91442W        W92306  28.199  12.167  24.506  0.0070 -0.1333  0.0620
91443W        W92307  27.606  12.003  22.565 -0.0658  0.0590 -0.0068
91444W        W92308  26.010  11.554  27.563  0.0356 -0.1141 -0.2515
91445W        W92309  22.958  10.676  20.580  0.0959  0.0261  0.0840
91446W        W92310  27.429  17.524  25.083  0.0421 -0.0894 -0.2635
91447W        W92311  26.073  13.218  24.188 -0.2397 -0.0196 -0.0198
91448W        W92312   1.036  11.040  25.088 -0.0438  0.0158  0.2164
91449W        W92313   0.409  11.702  27.556  0.3187  0.0384 -0.0173
91450W        W92314  26.703  13.087  22.484 -0.1003 -0.2575 -0.1627
91451W        W92315  28.970  13.672  25.866 -0.0820  0.2728  0.1636
91452W        W92316  25.552  13.350  23.642  0.1018  0.0325  0.1579
91453W        W92317  28.661  16.255  24.489  0.1600 -0.2426 -0.2103
91454W        W92318  26.587  11.836  26.318 -0.1976  0.2297  0.0366
91455W        W92319  24.888  11.211  23.931  0.3143 -0.1015 -0.0085
91456W        W92320  29.125   9.526  24.688  0.1121 -0.0942 -0.4010
91457W        W92321  27.901  12.011  25.268  0.0646  0.0425 -0.3967
91458W        W92322   0.412  14.325  25.051 -0.0676  0.1444 -0.2921
91459W        W92323  24.543  13.323  24.010  0.0137 -0.1757 -0.0222
91460W        W92324  27.215  16.950  23.251 -0.1209  0.0148 -0.0169
91461W        W92325  26.079  11.987  23.773  0.0549  0.1577  0.1378
91462W        W92326   0.112  13.203  26.014  0.2546  0.1050 -0.1407
91463W        W92327  26.736  15.663  24.814  0.0499  0.1307  0.3281
91464W        W92328  28.431  13.791  23.887 -0.1083  0.1171  0.1031
91465W        W92329  27.512  14.258  21.541 -0.0540 -0.0433 -0.3359
91466W        W92330   0.208  14.208  22.651 -0.1720  0.3624  0.2183
91467W        W92331   1.627  12.507  23.749  0.1271  0.2023  0.0845
91468W        W92332  24.308  10.661  21.676 -0.0061  0.1966  0.0148
91469W        W92333  27.048  16.027  23.608 -0.2280 -0.2137 -0.0011
91470W        W92334  26.214  14.476  25.549 -0.5539  0.0187  0.1384
91471W        W92335  24.520  13.959  20.673 -0.6468 -0.1211 -0.1620
91472W        W92336  26.499  11.395  25.809 -0.1944  0.1350 -0.1696
91473W        W92337  28.155  14.329  27.303  0.3623  0.1344 -0.0323
91474W        W92338  26.168  13.899  23.382 -0.1919 -0.1104 -0.0785
91475W        W92339  27.373  11.961  24.657  0.2941  0.1175 -0.2349
91476W        W92340  28.010  12.277  23.818  0.1223  0.0345  0.1551
91477W        W92341  27.954  17.608  22.192  0.0293  0.0977  0.1014
91478W        W92342  28.400  16.593  25.460 -0.0228  0.3286  0.1809
91479W        W92343  25.753  13.625  25.395  0.1667 -0.0389 -0.1660
91480W        W92344  28.090  16.452  22.687 -0.0686 -0.0687  0.2451
91481W        W92345  28.387  11.950  20.928  0.1091  0.0794  0.0594
91482W        W92346   0.575  11.179  25.166 -0.1291 -0.4427  0.1200
91483W        W92347  26.663  10.568  22.782  0.1024  0.0148  0.1200
91484W        W92348   1.083  12.468  24.543 -0.0596 -0.0451 -0.0207
91485W        W92349  27.539  14.773  25.218  0.0033 -0.2081 -0.2391
91486W        W92350   1.836  11.133  28.728 -0.0383  0.0989 -0.4587
91487W        W92351  26.839  11.351  29.066 -0.0481 -0.0479 -0.0597
91488W        W92352  27.463  10.925  25.873  0.0181  0.0960 -0.0092
91489W        W92353  26.838  12.174  23.133  0.2240 -0.1181  0.1304
91490W        W92354  27.165  12.813  26.117  0.1931 -0.2362 -0.0674
91491W        W92355  28.332  11.593  24.484 -0.0231  0.6546  0.4199
91492W        W92356  29.050  13.003  23.907 -0.2580 -0.3935  0.1116
91493W        W92357  26.211  12.615  24.238  0.0055 -0.0399  0.2216
91494W        W92358  26.823  15.887  26.774 -0.2707  0.2877 -0.0516
91495W        W92359  24.713  15.521  24.563  0.0072  0.0744  0.2328
91496W        W92360   0.622  12.243  26.272  0.2736 -0.0021  0.1034
91497W        W92361  26.131  15.556  23.631  0.0785  0.4128 -0.0562
91498W        W92362  26.575  12.932  25.328 -0.1787  0.0308 -0.1340
91499W        W92363   1.560  11.216  25.079 -0.1249  0.1566  0.0345
91500W        W92364  28.870  14.638  22.357 -0.0658 -0.2277  0.1172
91501W        W92365   1.623  14.995  20.768  0.1490 -0.0743 -0.1628
91502W        W92366  26.786  10.751  21.800 -0.1005  0.2057  0.2616
91503W        W92367  27.195  15.366  26.122 -0.0275 -0.1576 -0.2613
91504W        W92368  26.343  14.255  22.844  0.1634  0.1113  0.0923
91505W        W92369  27.463  14.293  22.352 -0.1135  0.2405 -0.1950
91506W        W92370   1.793  12.743  22.308 -0.2987  0.0067 -0.4021
91507W        W92371  24.992  12.641  22.600 -0.3143 -0.1995 -0.4344
91508W        W92372   3.380  15.556  24.978  0.2661  0.0533 -0.1504
91509W        W92373   0.492  12.404  26.772  0.2968  0.2701 -0.1234
91510W        W92374  26.790  14.162  24.598 -0.4329 -0.2635 -0.0175
91511W        W92375  27.038  13.664  23.602 -0.0631 -0.1109 -0.0511
91512W        W92376  25.918  12.421  25.264  0.1445 -0.0653 -0.2955
91513W        W92377  26.737  10.843  26.416  0.3364  0.1817 -0.0259
91514W        W92378  27.800  12.998  22.980  0.0148  0.2951  0.2604
91515W        W92379  28.762  15.690  22.740 -0.0287  0.4242  0.1864
91516W        W92380   0.334  16.057  25.521  0.2460  0.1327 -0.2815
91517W        W92381  28.933  12.980  27.956  0.0940 -0.1711 -0.0170
91518W        W92382  25.275  10.615  25.444  0.1014 -0.1779 -0.1209
91519W        W92383  28.648  12.039  24.454 -0.0294  0.3341  0.0362
91520W        W92384  24.696  12.597  22.998 -0.1495 -0.1724 -0.0399
91521W        W92385  25.808  11.458  23.993  0.0207  0.1300  0.0011
91522W        W92386   0.319  12.236  28.900 -0.1810  0.1647  0.0634
91523W        W92387   0.051  13.351  23.572  0.1596 -0.2366  0.0255
91524W        W92388  28.943  12.848  26.064  0.0977 -0.0876  0.0384
91525W        W92389  28.967  16.910  26.149  0.1214 -0.3959 -0.2544
91526W        W92390  27.071  16.103  25.875 -0.0862  0.3919 -0.0018
91527W        W92391  25.868  12.474  22.849  0.0354  0.1797  0.3557
91528W        W92392  27.460  11.602  23.568  0.0725  0.3114  0.0784
91529W        W92393   0.302  13.580  25.665 -0.1281 -0.0030  0.2189
91530W        W92394   0.212  11.621  21.888  0.0338  0.1969 -0.3369
91531W        W92395  26.324  17.145  23.943  0.2847 -0.1615  0.0010
91532W        W92396  27.841  17.035  18.910  0.1972 -0.1495 -0.1265
91533W        W92397  27.261  13.845  26.057 -0.0291  0.0957 -0.0238
91534W        W92398  25.071  15.298  23.734 -0.2968 -0.1840  0.0068
91535W        W92399  27.943  12.571  25.134  0.0023 -0.4165  0.3025
91536W        W92400  26.397  13.840  24.245 -0.2297 -0.0672 -0.2004
91537W        W92401  26.708  13.203  26.200 -0.1127 -0.0541 -0.1314
91538W        W92402  24.013  13.396  22.767 -0.0683  0.3797 -0.1595
91539W        W92403  27.242  12.509  23.216  0.2812  0.0719  0.1686
91540W        W92404  26.774  13.215  24.948 -0.0291 -0.0417 -0.0783
91541W        W92405  27.817  11.146  24.394  0.0433 -0.2110 -0.0730
91542W        W92406   1.823  11.997  23.845  0.0888  0.1846 -0.4359
91543W        W92407  28.249  11.828   0.451  0.0069 -0.0161  0.3127
91544W        W92408  28.474  12.924  25.259 -0.0952  0.3313 -0.0244
91545W        W92409   3.428  16.428  26.061  0.2290  0.1080  0.1320
91546W        W92410   0.532  15.979  26.861 -0.2025  0.3451  0.0272
91547W        W92411  27.299  15.724  27.060 -0.1487 -0.0244 -0.0984
91548W        W92412  28.426  15.943  24.054  0.0157 -0.0433 -0.0310
91549W        W92413  27.841  13.973  24.749 -0.2328  0.1204  0.2258
91550W        W92414  27.549  12.347  25.369 -0.2303  0.2310  0.0761
91551W        W92415  26.564  15.297  23.819  0.2059  0.1100  0.2535
91552W        W92416  27.225  13.593  26.546  0.1155  0.2478 -0.2874
91553W        W92417  28.428  11.738  25.276 -0.0178  0.3485  0.2905
91554W        W92418  26.909   9.473  23.389 -0.1052  0.1477  0.2219
91555W        W92419  26.889  13.321  27.103  0.1106 -0.2257 -0.0649
91556W        W92420  26.764  16.220  26.280 -0.3413  0.0144  0.2897
91557W        W92421  26.141  14.098  21.261 -0.0621 -0.0126  0.0488
91558W        W92422  25.141  11.602  21.073  0.3686 -0.1237 -0.1301
91559W        W92423  27.541  12.766  21.923  0.3295  0.1831  0.2395
91560W        W92424  26.869  13.469  22.194 -0.3268 -0.0431 -0.3629
91561W        W92425   1.636  14.548  25.803 -0.2927  0.1661  0.3372
91562W        W92426  28.616  12.364  22.768 -0.1703 -0.1537 -0.0446
91563W        W92427   1.105  15.062  23.162 -0.3325  0.0104 -0.1067
91564W        W92428  26.759  15.232  23.221 -0.0693  0.0035  0.0486
91565W        W92429  26.177  14.391  23.300 -0.0646  0.1197  0.0436
91566W        W92430  28.493  12.762  26.438  0.0931 -0.0560  0.0130
91567W        W92431  27.515  15.810  23.717 -0.0777 -0.2428 -0.3087
91568W        W92432   2.127  13.388  26.119  0.0298  0.1220 -0.0184
91569W        W92433  28.337  12.191  25.057 -0.1485 -0.1408 -0.0397
91570W        W92434  26.613  13.686  25.124 -0.1450  0.1342 -0.0080
91571W        W92435  27.862  11.936  23.455 -0.0668 -0.0991 -0.1377
91572W        W92436  28.708  12.052  27.291  0.0858  0.1803 -0.0222
91573W        W92437  24.405  12.731  23.911 -0.6418  0.0803 -0.0262
91574W        W92438   2.187  10.828  24.355 -0.1675  0.2156  0.0255
91575W        W92439  28.036  15.113  27.175  0.1702 -0.4091 -0.4235
91576W        W92440   0.275  12.491  23.517  0.1873  0.0728 -0.1058
91577W        W92441  26.828  11.794  25.860  0.0473 -0.1277 -0.0076
91578W        W92442  26.950  14.071  24.132 -0.0327 -0.0014 -0.1650
91579W        W92443  27.794  13.412  27.311 -0.2540  0.1946  0.0423
91580W        W92444  29.054  11.146  26.355  0.0386  0.1027 -0.2596
91581W        W92445  25.301  11.929  25.122  0.0444  0.1131  0.0153
91582W        W92446  28.230  11.354  25.554 -0.1013 -0.2887 -0.5056
91583W        W92447  25.992  13.195  21.277 -0.0048 -0.0623  0.2246
91584W        W92448   1.238  11.517  24.805  0.1278  0.2440 -0.2038
91585W        W92449  26.791  15.632  25.869 -0.0318 -0.2818 -0.0315
91586W        W92450   0.050  10.841  28.013 -0.0756  0.2342  0.0318
91587W        W92451  27.187  13.114  25.226  0.0725  0.1055  0.1048
91588W        W92452  28.194  15.559  26.668 -0.1291 -0.0001  0.0007
91589W        W92453  28.873  10.275  24.604  0.0277 -0.1670 -0.2237
91590W        W92454  28.024   9.894  24.013  0.1184  0.0626 -0.2295
91591W        W92455  25.416  12.477  26.110  0.1620 -0.0058 -0.0203
91592W        W92456  27.099  14.351  23.085 -0.2021  0.2100  0.1991
91593W        W92457  27.504  13.267  24.223 -0.0785 -0.2181  0.0740
91594W        W92458  29.051  12.985  26.967  0.0840  0.0077 -0.0053
91595W        W92459   0.130  13.851  25.242  0.0906  0.0554  0.1398
91596W        W92460  28.026  15.387  26.267  0.1892 -0.1319  0.1494
91597W        W92461  26.764  17.124  23.621  0.1184 -0.0230 -0.3023
91598W        W92462   0.006  13.038  24.851  0.0509  0.2617 -0.1725
91599W        W92463   0.566  16.112  26.058  0.2212 -0.0118 -0.2483
91600W        W92464  28.225  14.789  26.355  0.0147 -0.0278 -0.1744
91601W        W92465   0.073  12.479  24.923 -0.0256  0.1307 -0.1466
91602W        W92466  26.176  12.101  22.704 -0.0636  0.4686 -0.2289
91603W        W92467  27.651  12.222  24.250  0.0851  0.4342  0.1883
91604W        W92468  26.930  14.252  25.919 -0.2603 -0.1095 -0.4481
91605W        W92469  26.965  13.633  27.454 -0.3790 -0.4396 -0.0693
91606W        W92470  28.846  11.895  26.841  0.2655 -0.1630 -0.1599
91607W        W92471  28.999  15.014  23.929 -0.2712 -0.3808 -0.2144
91608W        W92472  28.807  12.554  24.634 -0.1583  0.1810 -0.3673
91609W        W92473  26.512  13.646  22.709 -0.0655  0.0237  0.4323
91610W        W92474  26.623  14.113  23.213 -0.0740 -0.1579  0.0630
91611W        W92475  25.851  15.733  26.844  0.0756  0.3926  0.1029
91612W        W92476  27.339  13.238  28.611  0.1059 -0.0414  0.0846
91613W        W92477  27.813  15.293  28.741 -0.1402 -0.3810  0.0023
91614W        W92478   1.027  14.748  27.425 -0.2401  0.2052  0.0574
91615W        W92479  25.101  14.061  27.806 -0.5463  0.1100 -0.0442
91616W        W92480  24.931  10.224  27.936  0.1127  0.1109 -0.2107
91617W        W92481  28.256  11.889  27.032 -0.2019  0.2543  0.3390
91618W        W92482  24.377  10.731  25.407 -0.0821 -0.0898  0.0810
91619W        W92483  27.358  14.650  28.026 -0.0362  0.1840  0.0792
91620W        W92484  26.096  10.748  27.202  0.0641 -0.0406  0.2090
91621W        W92485  22.828   8.661  26.822 -0.1611 -0.1454  0.3154
91622W        W92486   0.614  13.210  26.252 -0.0073 -0.1197  0.1416
91623W        W92487  27.621  13.243  28.194  0.0291 -0.1634  0.1371
91624W        W92488   2.127  12.038   0.664 -0.0747  0.2154  0.1017
91625W        W92489  23.569   8.153  28.088  0.0972 -0.0204 -0.1377
91626W        W92490  26.948  15.619   0.062 -0.3721  0.0432 -0.4640
91627W        W92491  27.327  13.672  28.179 -0.4433  0.2959 -0.2374
91628W        W92492  25.034   9.692  27.204  0.0502 -0.1081 -0.0964
91629W        W92493  27.269   9.718   2.329  0.0805 -0.0069  0.1662
91630W        W92494   3.086  12.061  27.690 -0.0966 -0.2558 -0.1234
91631W        W92495  27.847  13.007  29.148 -0.0112  0.1530 -0.1548
91632W        W92496  26.453  11.050  26.775  0.5244 -0.0866 -0.3011
91633W        W92497  29.054  13.411  27.279 -0.0681  0.0692  0.0562
91634W        W92498  25.376  10.950  25.068 -0.3036  0.2717  0.0701
91635W        W92499  25.471  12.342  29.002  0.0543  0.3096  0.0637
91636W        W92500  27.060  13.293   1.593 -0.2059 -0.1479 -0.1684
91637W        W92501   0.252  15.343   0.126  0.2052 -0.2153  0.0290
91638W        W92502  26.313  13.732  26.660  0.2181 -0.1849 -0.1926
91639W        W92503  26.344  14.287  29.057 -0.2629  0.1964 -0.0791
91640W        W92504  27.995  12.592  27.654 -0.0338 -0.2188  0.3438
91641W        W92505  26.870  12.645  27.012 -0.0988  0.1436 -0.2045
91642W        W92506   0.018  12.854   0.425  0.0933  0.0173  0.1765
91643W        W92507  26.545  13.613   1.255 -0.1125  0.0695 -0.1444
91644W        W92508  27.023  11.186  27.540  0.0248  0.0023  0.0301
91645W        W92509  25.819  15.674  28.643  0.0215  0.0070 -0.0353
91646W        W92510  27.683  12.932   1.122  0.1144  0.2329 -0.1997
91647W        W92511  26.079   8.312  26.621  0.3536  0.2116  0.0757
91648W        W92512  27.447  13.234   0.819 -0.0285  0.0321  0.1327
91649W        W92513  27.548  12.625  27.423  0.0879 -0.1900 -0.1538
91650W        W92514  28.711  14.620  28.003 -0.0284  0.0219 -0.2442
91651W        W92515   0.491  11.534  26.906 -0.1800  0.2996 -0.1565
91652W        W92516  28.697  13.305  28.930 -0.2287 -0.5320 -0.0592
91653W        W92517  27.680  16.577  28.577  0.0158  0.0438  0.0251
91654W        W92518  27.667  13.704  27.746 -0.1590 -0.1106 -0.1832
91655W        W92519  27.061  12.214  28.017 -0.0265  0.0824  0.0627
91656W        W92520  26.078  10.836   0.077 -0.0142 -0.0165 -0.1508
91657W        W92521  25.371   9.775  26.901 -0.0639  0.2662 -0.0300
91658W        W92522  27.477  14.673  26.781 -0.1260  0.0947 -0.2535
91659W        W92523  26.187  14.770  27.258 -0.1266  0.1900  0.0479
91660W        W92524  27.659  13.476  26.222 -0.1132 -0.2919 -0.0652
91661W        W92525  28.632  14.459  27.500  0.0954  0.3299 -0.1457
91662W        W92526  27.340  11.355   0.091 -0.1235  0.0036  0.2557
91663W        W92527  28.519  15.374  28.006  0.1444 -0.0279 -0.3127
91664W        W92528  29.086  12.596  28.712 -0.1644  0.0750 -0.2680
91665W        W92529  28.523   9.308  28.276 -0.3309 -0.1994  0.0797
91666W        W92530  24.912  11.494  26.839 -0.0060  0.1932  0.1588
91667W        W92531  25.318  10.634  27.339 -0.0423 -0.0690 -0.0736
91668W        W92532  27.625  12.387   1.022  0.2728 -0.0414  0.0992
91669W        W92533  24.706  13.668  27.505  0.0267 -0.0949 -0.1384
91670W        W92534  28.646  13.758  24.638  0.3426  0.0293 -0.2796
91671W        W92535   1.482  11.604  25.436 -0.2031  0.0728 -0.1588
91672W        W92536  28.484  12.990  28.031  0.2968  0.0907 -0.2552
91673W        W92537  26.914  13.503  28.442 -0.0712 -0.2664  0.1657
91674W        W92538  24.773  13.572  28.047  0.2408  0.2275 -0.1584
91675W        W92539  27.294  11.602  28.811  0.1762 -0.0352 -0.0648
91676W        W92540   3.270  11.598  25.772 -0.4151 -0.0061  0.2043
91677W        W92541  28.643  13.387  26.965 -0.1071  0.1638  0.1050
91678W        W92542  25.936  13.385  26.627 -0.2946  0.0051  0.1695
91679W        W92543  24.427   9.690  25.309  0.1909 -0.2566  0.0395
91680W        W92544  26.101  10.459  26.785 -0.1772  0.2643  0.0039
91681W        W92545   1.241  14.005   1.452  0.0890  0.1322  0.1444
91682W        W92546  27.472  10.245  24.520 -0.5245  0.2168  0.3089
91683W        W92547  27.847  18.063  27.282  0.2371  0.0949  0.3843
91684W        W92548   1.034  12.894   0.107  0.0894  0.0898 -0.1855
91685W        W92549  25.968  12.864  28.250  0.2440  0.1366 -0.3169
91686W        W92550  27.221  12.677   0.834 -0.0581 -0.1478  0.1059
91687W        W92551  26.497  11.712  24.460 -0.4318  0.0114 -0.2681
91688W        W92552  26.525  11.533  27.568 -0.0558  0.2314 -0.0802
91689W        W92553  28.531  12.628  27.666  0.2316 -0.0752 -0.0301
91690W        W92554  28.550  15.217  27.233  0.1576 -0.1104 -0.1471
91691W        W92555  26.403  11.666  28.663 -0.1357 -0.1642  0.0917
91692W        W92556  23.028  15.024  28.392  0.0872  0.2925  0.1151
91693W        W92557  25.449  11.429  27.963  0.0690  0.0014 -0.1785
91694W        W92558  27.822  11.425  28.170  0.4648  0.0161  0.0233
91695W        W92559  26.553  11.730   0.126 -0.0332  0.0533  0.3608
91696W        W92560  28.018  10.944  26.685 -0.0272 -0.0030 -0.3467
91697W        W92561   2.758  14.034  26.306 -0.0411  0.2083  0.1274
91698W        W92562  27.466  10.032   0.371  0.0430  0.0952  0.0622
91699W        W92563   0.021  13.868   1.513 -0.4173  0.1648  0.3094
91700W        W92564   0.391  14.335  28.071 -0.2088 -0.0194 -0.1257
91701W        W92565  26.941  11.055  25.868 -0.0119  0.2985  0.3407
91702W        W92566   3.632  11.947   0.725 -0.3054 -0.0430 -0.0344
91703W        W92567  27.912  15.051  26.628 -0.1036  0.1218 -0.2334
91704W        W92568   0.111  11.540  26.546 -0.0936  0.2212 -0.1136
91705W        W92569  26.925  10.534  27.364  0.0786  0.1681 -0.0795
91706W        W92570  26.868  12.250  26.049 -0.0254  0.1264 -0.1469
91707W        W92571  28.868  12.102  28.229  0.0105 -0.2058 -0.2854
91708W        W92572  26.939  13.373  28.936 -0.4743 -0.1576 -0.1488
91709W        W92573  28.627   8.866  27.577 -0.1348 -0.0770  0.3274
91710W        W92574  27.213  12.971   1.208  0.3479  0.0777 -0.1400
91711W        W92575   0.919  14.370  24.881 -0.0490  0.2745 -0.2252
91712W        W92576  25.098  13.276  26.612 -0.0420  0.0717  0.3392
91713W        W92577  27.958  10.238  24.717  0.1103 -0.5291  0.3661
91714W        W92578  27.842  13.636  26.853  0.3019  0.0117  0.2703
91715W        W92579   0.165  11.761  28.100 -0.0966 -0.3516 -0.1666
91716W        W92580  27.568  11.216   0.562 -0.0231  0.2149 -0.3117
91717W        W92581  28.418  11.973  28.263 -0.0654  0.1526 -0.1459
91718W        W92582   2.424  13.556   1.548 -0.1961 -0.1672  0.1762
91719W        W92583  26.066   7.698  26.773  0.3756 -0.0415 -0.1351
91720W        W92584  28.784  10.594  26.288  0.0992  0.1417 -0.0278
91721W        W92585  27.011  13.650   1.045  0.1112 -0.0784 -0.0991
91722W        W92586  27.132  15.901  28.272  0.0674 -0.1608 -0.0749
91723W        W92587   0.709   9.533  29.020 -0.1042  0.1722 -0.0664
91724W        W92588   0.725  16.135   0.624  0.1969  0.1263 -0.0827
91725W        W92589  27.812  13.498  28.686 -0.0873  0.1860  0.3119
91726W        W92590  28.556   9.759  27.243  0.0801 -0.0164 -0.2914
91727W        W92591   0.516  11.526   0.439  0.1897  0.0721  0.3131
91728W        W92592  25.905  14.043   0.036 -0.0647 -0.0661 -0.0998
91729W        W92593  24.840  11.966  26.024 -0.1349 -0.2036 -0.1732
91730W        W92594  28.301  13.787  26.061 -0.1199  0.1708 -0.1749
91731W        W92595  27.577  11.269  26.765  0.1448  0.1969  0.1121
91732W        W92596  28.245  18.067  24.973  0.1719 -0.1846  0.1740
91733W        W92597  26.771  12.640  27.765  0.0217 -0.0837 -0.0875
91734W        W92598  28.901  10.548   1.730  0.0662 -0.1212  0.1457
91735W        W92599  27.957  10.058  27.883  0.0402 -0.0901  0.2091
91736W        W92600  27.882  14.710  26.993  0.0744 -0.1286 -0.0885
91737W        W92601  26.856  10.489   1.150 -0.0349  0.0492  0.0889
91738W        W92602   0.840  14.150  29.044 -0.1450 -0.2526 -0.4090
91739W        W92603  28.340  12.121  27.705 -0.1217 -0.2641 -0.0023
91740W        W92604  27.995  11.933  28.023  0.1403  0.2833 -0.0220
91741W        W92605  28.385  18.956  27.378 -0.2469 -0.1565 -0.1957
91742W        W92606   2.777  13.941   1.733  0.1479  0.0509  0.2661
91743W        W92607  28.503  14.526  28.474 -0.2389  0.0365  0.1193
91744W        W92608  28.940   9.129  28.464 -0.0413  0.0190 -0.1731
91745W        W92609   1.208  13.443   0.382 -0.0157 -0.3396 -0.1550
91746W        W92610  27.142  12.287  27.557  0.6837 -0.2245  0.1221
91747W        W92611  27.605  10.237  26.181  0.2459 -0.1205  0.0259
91748W        W92612   0.035  12.641  27.510  0.1749  0.0161  0.0303
91749W        W92613  28.953  15.408  27.572 -0.3992  0.2749 -0.0564
91750W        W92614  27.433  15.197  26.878 -0.0272 -0.0059  0.1028
91751W        W92615  24.717  11.001  26.722 -0.1402 -0.2864 -0.1557
91752W        W92616   1.180  10.237  28.535  0.0219 -0.0588  0.1785
91753W        W92617  27.463  14.261  25.153  0.1610  0.1801 -0.1806
91754W        W92618  26.238  10.357  26.173 -0.0421  0.0354 -0.1559
91755W        W92619  27.640  12.612   1.481 -0.1708  0.1419 -0.0769
91756W        W92620   1.317  11.041   0.147 -0.2057 -0.1796  0.0405
91757W        W92621   0.305  10.713  27.522  0.1964 -0.0930  0.0996
91758W        W92622  27.823  14.058  28.679 -0.0304 -0.1459 -0.3577
91759W        W92623   0.625  14.632  28.961  0.1815  0.2177  0.0960
91760W        W92624  26.500  13.906  28.373 -0.0229  0.2165  0.0373
91761W        W92625   0.355  14.300   1.502 -0.2966 -0.1375  0.0627
91762W        W92626  27.459   9.846  23.918  0.0074 -0.2185 -0.0374
91763W        W92627  26.575  12.962  28.371 -0.1496 -0.2328  0.3035
91764W        W92628  27.040   8.802  26.094 -0.5506  0.1649 -0.1749
91765W        W92629  27.973  11.353  27.647  0.0043  0.0280 -0.2514
91766W        W92630   1.091  12.064  28.890 -0.2345 -0.5275  0.2106
91767W        W92631  25.779  12.219  26.299 -0.0570  0.5213 -0.0194
91768W        W92632  29.082   9.035  26.381 -0.1236 -0.0134 -0.0461
91769W        W92633  26.282  10.253  23.776 -0.1800  0.0174 -0.0885
91770W        W92634  26.270  11.773  27.189  0.0647  0.3104  0.1521
91771W        W92635   0.393  10.223   0.856  0.0352  0.1381 -0.0291
91772W        W92636  26.276  12.814  26.946 -0.1365 -0.2557  0.2612
91773W        W92637  28.782  12.606   0.060 -0.0670 -0.4653  0.1973
91774W        W92638  28.071  13.984  27.806 -0.2045 -0.0546 -0.2847
91775W        W92639  28.581  10.555   1.307  0.1830  0.0852  0.0829
91776W        W92640   0.203  13.883  27.979 -0.3010 -0.0006  0.0038
91777W        W92641  28.025  10.083  25.933  0.2651 -0.1147  0.0770
91778W        W92642  25.592  15.503  27.420 -0.0226  0.1365  0.1528
91779W        W92643  27.939  12.445  28.376 -0.0364 -0.1975  0.0070
91780W        W92644  27.211  11.392  26.185 -0.2032 -0.1053  0.1162
91781W        W92645  27.698  12.309  28.808  0.1110 -0.1763 -0.3006
91782W        W92646   0.118  13.933  28.512 -0.3183 -0.0054 -0.1771
91783W        W92647  28.056  15.352  27.647 -0.0849 -0.0943 -0.0253
91784W        W92648  27.834  14.488  26.385 -0.1803  0.0515  0.0764
91785W        W92649  28.791  12.542  27.170 -0.2411  0.1316  0.0108
91786W        W92650  27.559  11.623   1.564 -0.3264  0.1610  0.2866
91787W        W92651  26.209  14.211  27.118  0.2868 -0.0802  0.2030
91788W        W92652  26.467  15.485  27.623 -0.4095  0.0031 -0.0998
91789W        W92653  26.367  13.542  23.820 -0.1074  0.0729 -0.1865
91790W        W92654  25.136  13.080  28.745  0.0628 -0.0352 -0.2894
91791W        W92655  26.213  16.573  25.484  0.3449  0.0840  0.3211
91792W        W92656  29.039  15.207  25.253 -0.2070  0.1718  0.0961
91793W        W92657  26.014  13.006   0.287  0.0722  0.2142  0.1772
91794W        W92658  28.408  13.626  28.116  0.2076  0.2506  0.0544
91795W        W92659   1.846  11.998  28.242 -0.2787 -0.3959 -0.0400
91796W        W92660   0.520  12.010  27.131 -0.1561  0.0502  0.0505
91797W        W92661  28.922  10.832  27.405  0.0239 -0.2634  0.0676
91798W        W92662  25.604   9.456  27.260 -0.0403  0.2059 -0.0020
91799W        W92663  25.897  13.066   1.440  0.1749  0.1247 -0.0171
91800W        W92664  24.564  13.391  25.910  0.1112  0.0488 -0.3915
91801W        W92665  28.038  13.090  26.228 -0.1139  0.1493 -0.3104
91802W        W92666  25.829  13.517  28.884  0.3127 -0.1808 -0.1737
91803W        W92667  27.722  11.286   1.852 -0.1859  0.0396  0.0638
91804W        W92668  26.770  13.182  27.822  0.1274  0.0308 -0.1177
91805W        W92669  26.464  11.527  28.096 -0.1435  0.2386  0.1449
91806W        W92670  23.435  10.283  26.571 -0.6539  0.2325 -0.1123
91807W        W92671  27.059   9.321  28.010  0.5830  0.2057  0.2572
91808W        W92672  27.570   9.874  25.691 -0.1369 -0.1497 -0.3258
91809W        W92673  26.384  12.146  28.961 -0.0064  0.3192  0.3823
91810W        W92674  28.698  12.890  28.747 -0.0778  0.1422  0.4740
91811W        W92675  25.997  11.288  25.787  0.0074  0.1695  0.1251
91812W        W92676  28.332  12.145   1.279 -0.0222 -0.1285  0.1809
91813W        W92677   1.824  12.224  27.818 -0.1195  0.0453 -0.1917
91814W        W92678  25.460  11.346  26.692  0.1060  0.1442  0.0102
91815W        W92679  27.567  14.243  28.038 -0.3504 -0.0195 -0.1402
91816W        W92680  22.971   9.379  25.871 -0.0144 -0.3019 -0.0995
91817W        W92681  28.852  14.267  28.642 -0.1998  0.0917  0.0914
91818W        W92682  25.861  12.612  28.647  0.2902  0.1139 -0.0150
91819W        W92683  28.507  14.053  28.351  0.3159  0.0657 -0.3411
91820W        W92684  24.023  10.946  25.756  0.0342 -0.1494 -0.0378
91821W        W92685  24.242  15.092  27.543 -0.1416  0.0577 -0.3193
91822W        W92686  25.205  11.457  25.241  0.1046 -0.3081  0.0804
91823W        W92687  26.721  12.611   1.026  0.3537  0.1633 -0.2261
91824W        W92688   0.185  12.635  27.992 -0.2069  0.0304  0.1206
91825W        W92689   1.334  15.372  27.275  0.0290  0.0128  0.0109
91826W        W92690   0.163  11.724  25.654 -0.2112 -0.1439  0.1305
91827W        W92691  27.398  13.703   0.617 -0.0489  0.2571  0.0029
91828W        W92692  27.120  15.837  26.331 -0.1885  0.0864 -0.1957
91829W        W92693   0.707  13.398   0.310  0.0890  0.0567 -0.0934
91830W        W92694  26.005  13.325  27.662 -0.0711 -0.0432 -0.0357
91831W        W92695   0.494  10.826   1.775  0.1486  0.2393 -0.1785
91832W        W92696   1.043  12.722  26.803 -0.0872 -0.2012 -0.2704
91833W        W92697  28.393  17.368   1.016 -0.1350 -0.1168 -0.1865
91834W        W92698  27.064  10.463  24.990 -0.0846  0.1787  0.0844
91835W        W92699   0.366  13.781  29.015  0.0046 -0.2269  0.2414
91836W        W92700  27.665  10.958   0.955 -0.1416  0.1602  0.1834
91837W        W92701   0.925  13.042   0.634 -0.3761 -0.2241  0.0034
91838W        W92702  26.798  14.190  27.970  0.0051 -0.3916 -0.1593
91839W        W92703  25.134  14.447  26.941  0.1909 -0.1916 -0.3661
91840W        W92704  26.745  12.177   0.190  0.1893 -0.0739 -0.0745
91841W        W92705  25.628  11.955  26.695  0.0613 -0.0120  0.2879
91842W        W92706   0.445  12.704  28.926 -0.0707  0.0365  0.1349
91843W        W92707  25.460  13.613  26.457  0.0453  0.2062  0.0334
91844W        W92708  27.328  13.096  26.481 -0.2127  0.2120  0.2058
91845W        W92709  25.217  10.644  28.011 -0.0624 -0.0573 -0.1459
91846W        W92710  24.814  11.904  27.975  0.1076 -0.1530 -0.1202
91847W        W92711  28.330  16.466  27.035  0.1181  0.1571  0.1314
91848W        W92712  25.334   9.928   0.143  0.1533 -0.1771 -0.0081
91849W        W92713  28.193  13.117   0.465  0.2450  0.1821  0.1207
91850W        W92714  28.174  15.039   1.011 -0.1131 -0.0399  0.1586
91851W        W92715  29.108  14.412  27.726 -0.0415  0.2312 -0.1591
91852W        W92716  25.350  14.157  28.330 -0.3760  0.1277  0.1362
91853W        W92717  25.934  11.535   0.398 -0.1133 -0.0231  0.2504
91854W        W92718  28.152  10.782  28.998  0.1176  0.1453  0.0633
91855W        W92719   0.261  12.683  26.077  0.5403 -0.0957  0.0690
91856W        W92720  26.690  13.650  25.958  0.1399 -0.2590 -0.0560
91857W        W92721  28.562  15.798  27.635 -0.0511  0.2092  0.1836
91858W        W92722  27.105  13.365   0.271  0.1948  0.0454 -0.1548
91859W        W92723  28.100  15.376  24.379  0.1247 -0.0046 -0.1189
91860W        W92724  28.064  12.633  28.929  0.1919  0.1862 -0.0916
91861W        W92725  28.109  10.065  27.426 -0.1091  0.4502  0.4301
91862W        W92726  26.539  13.367  27.458 -0.1596  0.0967  0.1118
91863W        W92727  28.789  13.900   0.529 -0.1583  0.2540 -0.2012
91864W        W92728   1.238  13.794  28.885  0.0838 -0.0204 -0.0102
91865W        W92729  28.174  10.325  23.877  0.0709 -0.0902 -0.3339
91866W        W92730  26.660  16.350  25.651 -0.0136  0.1122  0.0222
91867W        W92731   1.162  11.273  26.384 -0.1670 -0.1163  0.0720
91868W        W92732  28.286   9.598  26.094  0.0599 -0.2940 -0.0916
91869W        W92733   0.140  15.873  29.058 -0.0814  0.1600 -0.1928
91870W        W92734   0.208  13.049  26.544  0.0344  0.1546 -0.0957
91871W        W92735  27.224  12.238  29.043  0.2225 -0.3555  0.3079
91872W        W92736  24.105  10.614  27.826 -0.2368  0.0115 -0.2731
91873W        W92737   1.226  13.812   2.065 -0.1974  0.1701 -0.2561
91874W        W92738  27.630  10.414   0.619  0.0253  0.1823  0.2271
91875W        W92739  27.860  12.928  27.098 -0.0594 -0.2371 -0.2272
91876W        W92740  27.358  15.339   1.119  0.1089 -0.0931  0.2823
91877W        W92741  25.058  12.611  23.904  0.2325 -0.0555  0.0168
91878W        W92742   1.312  14.852  27.015 -0.1521 -0.1467  0.1435
91879W        W92743  26.371  12.844   0.684  0.0037  0.4292  0.0048
91880W        W92744   2.300  10.377  28.438 -0.1867 -0.0021 -0.2460
91881W        W92745  26.986  10.938  25.134 -0.3315 -0.1513 -0.0934
91882W        W92746  28.411  14.124   1.048  0.0298 -0.1807  0.0798
91883W        W92747  27.947  14.786  28.103  0.3179  0.0142  0.3166
91884W        W92748  26.132  14.261   1.255  0.4189 -0.3039  0.1773
91885W        W92749  28.847  16.561  25.263 -0.1867  0.1704 -0.0485
91886W        W92750  28.848  13.191   0.250  0.0613 -0.0157 -0.3544
91887W        W92751  27.596   9.430  27.251  0.4326  0.4281  0.1682
91888W        W92752  26.684  11.899  27.893  0.1015 -0.1172 -0.2290
91889W        W92753  26.605  10.585  26.950  0.1103  0.0438 -0.0984
91890W        W92754  24.700  14.573   2.826 -0.2035 -0.1500  0.0423
91891W        W92755  28.819  12.000   1.540 -0.0502 -0.0654  0.0275
91892W        W92756  27.668  11.201  26.276  0.0558 -0.2371 -0.0188
91893W        W92757  26.677  12.689  25.803 -0.0879 -0.0169  0.2192
91894W        W92758  24.727  13.546  26.448 -0.1228  0.0729  0.0408
91895W        W92759  28.653   9.918  26.698  0.2645 -0.2457  0.1241
91896W        W92760  29.145  10.294   3.143 -0.0021  0.1445 -0.0810
91897W        W92761  27.150  12.139  25.550 -0.0240  0.4038  0.1456
91898W        W92762  26.495  12.213   0.629 -0.0833  0.3922 -0.0294
91899W        W92763   2.053  11.152  27.209  0.1221 -0.2121 -0.4086
91900W        W92764  28.987  14.923  26.608 -0.2586 -0.1023  0.3642
91901W        W92765  27.410  10.593  25.446  0.1035 -0.0132  0.0166
91902W        W92766  27.633  13.899  26.422  0.3883  0.3450 -0.2484
91903W        W92767   0.839  10.876  26.598 -0.4366  0.0162 -0.1157
91904W        W92768  25.458  11.754  27.516 -0.0441 -0.0085 -0.2162
91905W        W92769  28.153  15.145  25.860 -0.1079 -0.3392 -0.1479
91906W        W92770  27.140  14.948  26.456  0.0910 -0.3572  0.1296
91907W        W92771  28.003  12.169   0.022  0.2464 -0.0318 -0.2778
91908W        W92772  28.896  12.281  27.774 -0.0203 -0.2608 -0.2631
91909W        W92773   0.656  11.872   1.239  0.1109  0.1909  0.0606
91910W        W92774  26.375  12.540  28.516  0.2852 -0.3078  0.2248
91911W        W92775  27.094   9.830  27.942 -0.1649  0.2304  0.1838
91912W        W92776  27.816  12.266   0.519 -0.1528 -0.0611 -0.3247
91913W        W92777  28.311  13.641  28.646  0.0377 -0.1682  0.1497
91914W        W92778  27.358  12.730  28.866  0.0533  0.0590  0.0677
91915W        W92779  26.482  14.703  26.842 -0.0690  0.0517 -0.2255
91916W        W92780  28.901  15.255  28.432  0.1355  0.1340 -0.2076
91917W        W92781  26.626  12.069  28.332  0.0754  0.1107 -0.2474
91918W        W92782   0.648   8.911  27.038 -0.1498  0.2856  0.4152
91919W        W92783  27.031  10.476  26.713  0.1196 -0.0864  0.1844
91920W        W92784  25.190  12.644  27.382 -0.0826 -0.0239 -0.1671
91921W        W92785  27.257  11.935  26.118 -0.0013  0.2389  0.1583
91922W        W92786  28.760  12.662  28.266 -0.2752  0.0979 -0.2379
91923W        W92787  28.378  11.519  28.039  0.4217 -0.1819 -0.0650
91924W        W92788  28.061  13.218   1.353  0.0200  0.0756 -0.1976
91925W        W92789  26.381  16.430  28.710 -0.1622  0.2274  0.1484
91926W        W92790  25.876  15.299  28.991 -0.1187  0.0291 -0.0127
91927W        W92791  28.384  10.990  27.552  0.0335 -0.1017 -0.1398
91928W        W92792  27.393  13.343  26.980  0.2149  0.2672  0.0089
91929W        W92793  27.281  12.312  28.536  0.2182 -0.1092  0.3982
91930W        W92794  25.788  10.716  27.634  0.0975 -0.2480  0.1146
91931W        W92795  25.460  12.344  27.663 -0.2298 -0.1684  0.1291
91932W        W92796   2.259  14.053  24.390  0.1398  0.2753  0.1674
91933W        W92797  24.594  12.284   2.760  0.1135 -0.1435  0.1327
91934W        W92798  26.585  12.316  26.633 -0.1636  0.2593  0.1508
91935W        W92799  27.130  11.109   0.906  0.1385 -0.0702 -0.1327
91936W        W92800  26.991  14.641  26.817 -0.0075 -0.0608 -0.1275
91937W        W92801  25.911  12.505   0.012 -0.2034 -0.0054  0.2244
91938W        W92802  26.909  11.799  27.429  0.0751  0.1690  0.1481
91939W        W92803  27.053  15.331  24.716 -0.0366  0.0808  0.2676
91940W        W92804  24.592  13.003   0.536 -0.0628 -0.0609  0.0643
91941W        W92805  25.400  11.746   0.975  0.1353  0.2780  0.0382
91942W        W92806  27.411  11.785  27.844 -0.0681  0.3780 -0.1368
91943W        W92807   2.152  13.638  27.630 -0.3408  0.2266  0.3221
91944W        W92808   0.373  13.562  27.422  0.2134 -0.3793  0.1810
91945W        W92809   0.080  16.106   0.370  0.1225  0.1057 -0.3185
91946W        W92810   1.751  13.680  26.306  0.0826 -0.1902  0.2199
91947W        W92811  22.394  14.780  27.385  0.2684 -0.4689  0.2321
91948W        W92812  27.466  15.752  25.974 -0.0752 -0.0645  0.0851
91949W        W92813  26.653  15.162  26.625  0.0253 -0.0343  0.0219
91950W        W92814  27.143  11.805  28.365 -0.1086 -0.0614  0.2303
91951W        W92815  27.048  14.494  25.470 -0.2271 -0.2027  0.1008
91952W        W92816  26.832   8.717  28.135  0.0877  0.0979  0.1692
91953W        W92817  26.161  10.809  26.459 -0.3264  0.1154 -0.0644
91954W        W92818  25.432  13.658  28.656 -0.0726 -0.0965 -0.4103
91955W        W92819  24.356  14.702  26.282  0.1427 -0.0457  0.2242
91956W        W92820  26.019  12.582  26.014 -0.0677 -0.0167  0.0403
91957W        W92821  24.762  10.384  25.403 -0.0858  0.1409 -0.1119
91958W        W92822  23.659  11.441  25.985  0.1605  0.3806  0.1608
91959W        W92823  26.807  14.682  27.297  0.1711 -0.0398  0.4334
91960W        W92824  23.023  10.259  27.061  0.1825  0.3110 -0.2974
91961W        W92825  28.532  13.216   1.237  0.1333  0.0159 -0.0188
91962W        W92826   0.057  12.092  27.355  0.2637  0.2567 -0.4311
91963W        W92827   1.151  16.872   0.910 -0.1451 -0.1314 -0.0393
91964W        W92828  27.968  12.091  26.707 -0.1382 -0.0447 -0.0523
91965W        W92829  26.912  16.287  27.153  0.1171  0.0965 -0.0823
91966W        W92830  28.901  10.170  27.987  0.0819  0.3509  0.0948
91967W        W92831  23.012  13.208  27.790 -0.1255  0.1943  0.0301
91968W        W92832  28.887  13.748  28.147  0.0275  0.0281 -0.1498
91969W        W92833  26.001   9.825   1.089  0.0063  0.0825 -0.1460
91970W        W92834  25.216  12.832  25.749  0.2776 -0.0217  0.1018
91971W        W92835  28.448  11.455  26.963  0.4749  0.1454 -0.0534
91972W        W92836   3.183  11.395   1.669 -0.1450  0.0914 -0.0635
91973W        W92837  27.268  10.629  26.231 -0.1832 -0.0666  0.0765
91974W        W92838  28.342  12.413  28.083  0.0493 -0.3507  0.0990
91975W        W92839  25.643  14.146  28.722  0.1234 -0.1048  0.1880
91976W        W92840  25.874  11.469   0.913  0.0582 -0.2602  0.1324
91977W        W92841   0.118  13.242  27.662 -0.2440  0.0424  0.2222
91978W        W92842  28.234  13.172  28.793  0.2281 -0.1753 -0.2807
91979W        W92843  26.318  11.603  25.424 -0.1532 -0.2719 -0.2533
91980W        W92844   1.809  10.283  24.168 -0.1208 -0.0203 -0.0015
91981W        W92845  26.837  11.955  26.948  0.1289 -0.0780  0.1919
91982W        W92846   0.225   9.592  29.121 -0.1425 -0.2552 -0.0001
91983W        W92847  27.999  12.748  25.777 -0.1606 -0.2962  0.0932
91984W        W92848   1.394  12.398   1.020  0.1133 -0.0846  0.2879
91985W        W92849   0.265  17.718  26.998  0.1280  0.2683 -0.3898
91986W        W92850  26.564  11.394   0.910  0.4154  0.1963  0.0154
91987W        W92851  28.405  13.664   0.186 -0.1949 -0.0372 -0.1720
91988W        W92852   0.635  12.000   0.544 -0.0223 -0.1732 -0.0766
91989W        W92853  27.479  13.419  29.037 -0.0684  0.1545 -0.0893
91990W        W92854  23.834  11.881   0.623 -0.0838 -0.1035  0.0558
91991W        W92855  26.066  13.755  27.951 -0.0209 -0.3334  0.1261
91992W        W92856  26.076  15.134  26.932  0.0178 -0.0998 -0.1291
91993W        W92857  24.879  11.957   0.601  0.1371 -0.2537 -0.1079
91994W        W92858  23.548  13.635  28.434  0.0656 -0.2164  0.0362
91995W        W92859  28.574  17.938  27.606 -0.1329  0.0061  0.2833
91996W        W92860   3.416  11.596   0.382 -0.1933  0.0228  0.0211
91997W        W92861  28.981  14.200  27.285 -0.1850 -0.0677 -0.3750
91998W        W92862   0.538  15.696   0.332  0.2172 -0.0840 -0.1795
91999W        W92863  27.687  13.234   2.269 -0.1255 -0.2640  0.1009
92000W        W92864   0.814  11.396  27.236 -0.0394  0.1403 -0.4248
92001W        W92865  27.959  14.946   0.496  0.1210  0.0662 -0.0012
92002W        W92866  26.998  13.821  26.962 -0.0078 -0.1839 -0.0269
92003W        W92867  27.573  15.466  26.415 -0.0496  0.2658  0.0760
92004W        W92868   0.881  15.125  27.737 -0.3045  0.0366 -0.0440
92005W        W92869  26.731  14.313  28.494 -0.0766  0.3831 -0.1815
92006W        W92870  25.383  12.857  26.924 -0.2317 -0.1379  0.0369
92007W        W92871  26.338  14.893  26.323  0.1749 -0.2535  0.0059
92008W        W92872  28.486  15.292   1.935  0.2392  0.3081  0.0219
92009W        W92873  27.350  14.353  26.176 -0.1580 -0.0434 -0.0157
92010W        W92874  27.131   9.616  25.464 -0.0754 -0.0695 -0.0372
92011W        W92875  27.199  16.978   2.007 -0.1378  0.0623  0.1358
92012W        W92876  24.591  15.412   2.238 -0.2093 -0.2808 -0.0621
92013W        W92877   0.041  17.553   3.099 -0.2792  0.0008  0.1391
92014W        W92878   0.580  15.948   1.819  0.0471 -0.0837  0.1085
92015W        W92879  27.019  17.944  28.386 -0.1498  0.4013  0.0883
92016W        W92880  26.754  13.927   3.222 -0.0713  0.1192  0.2409
92017W        W92881   1.180  15.550   2.225  0.0451 -0.2292 -0.1370
92018W        W92882   0.707  15.686  27.955 -0.0250 -0.1299 -0.1518
92019W        W92883  27.867  16.888   3.324 -0.0482  0.1799 -0.1718
92020W        W92884  25.297  15.712   2.442 -0.1639  0.0873 -0.1160
92021W        W92885  26.008  13.479   1.995 -0.0295  0.2545  0.2248
92022W        W92886   1.880  12.461   0.968 -0.1893  0.0232  0.1134
92023W        W92887  27.845  17.507  26.534 -0.2249 -0.1299 -0.1678
92024W        W92888  28.338  18.099   4.073  0.0419  0.0404 -0.0236
92025W        W92889  25.838  15.715   1.016 -0.2510  0.1520  0.2826
92026W        W92890  26.649  15.909   0.351  0.1367 -0.2294  0.1030
92027W        W92891  28.664  20.663   0.197  0.0254 -0.0788  0.1324
92028W        W92892  26.888  16.772   1.598  0.1681  0.1038 -0.0985
92029W        W92893  27.010  16.393   1.891  0.0403  0.0925  0.2534
92030W        W92894   0.437  15.075   3.054 -0.3391  0.1708  0.1523
92031W        W92895  27.338  15.590   4.387 -0.0159 -0.0449 -0.0592
92032W        W92896   1.143  15.110   0.760 -0.0700  0.3987  0.0225
92033W        W92897   0.267  19.602   1.254 -0.0945  0.1314 -0.1244
92034W        W92898  26.569  20.285   0.042 -0.1650 -0.4568  0.3499
92035W        W92899  26.574  16.366   2.314 -0.0065  0.0241 -0.0933
92036W        W92900  26.067  15.757   2.016  0.0580  0.0534 -0.1667
92037W        W92901   0.670  14.603   3.072 -0.0598 -0.1144 -0.3564
92038W        W92902  23.679  11.992   1.963  0.0492 -0.1431 -0.1149
92039W        W92903  26.821  18.474   2.913 -0.2105 -0.3595  0.0444
92040W        W92904  24.782  16.865   1.284  0.1092  0.1269  0.1519
92041W        W92905   1.591  16.873   0.543  0.0148 -0.0892 -0.2884
92042W        W92906  27.288  17.285   2.361 -0.0085 -0.0535  0.1603
92043W        W92907   1.037  16.443   1.247  0.0344  0.3006 -0.1823
92044W        W92908   1.329  16.358   2.258  0.2880  0.1124  0.3918
92045W        W92909  26.690  14.127   1.645  0.0403 -0.2119 -0.0115
92046W        W92910  28.223  15.868   4.294 -0.1183 -0.0345 -0.1216
92047W        W92911  27.747  12.146   1.961 -0.0688  0.0002  0.0180
92048W        W92912   0.919  16.974   1.927 -0.1597 -0.1307 -0.0250
92049W        W92913   0.552  17.686   1.735  0.1050 -0.0210 -0.0748
92050W        W92914   0.393  15.905   2.792  0.0998 -0.0811  0.0464
92051W        W92915   0.542  14.510  27.560  0.2078  0.1326 -0.0743
92052W        W92916   3.457  15.849   3.104 -0.1765  0.0400  0.2227
92053W        W92917  25.256  18.018   3.314  0.1422 -0.0000 -0.1689
92054W        W92918   1.741  17.992   1.265 -0.2235  0.0292 -0.3140
92055W        W92919  25.378  19.988   0.080  0.2312 -0.1777 -0.0808
92056W        W92920  27.254  21.386   2.614 -0.0014 -0.0857 -0.0141
92057W        W92921  24.943  15.434   3.266 -0.2262  0.1392  0.1293
92058W        W92922   1.325  16.221   2.766 -0.2576 -0.0974 -0.0581
92059W        W92923   0.476  14.867   2.564 -0.3036 -0.0299 -0.0794
92060W        W92924  28.503  16.549   0.730 -0.0596  0.0120  0.0701
92061W        W92925  27.571  16.660   6.644 -0.0734 -0.2061  0.0455
92062W        W92926   0.101  14.512   3.835 -0.0963  0.1154 -0.0387
92063W        W92927  28.704  16.973   0.369  0.0755 -0.2292  0.0474
92064W        W92928  27.236  16.541   0.140 -0.1578 -0.0555  0.1672
92065W        W92929   0.756  17.254  28.102 -0.1727 -0.2404 -0.1403
92066W        W92930  25.073  17.409   0.670  0.1037  0.0652  0.0763
92067W        W92931  24.680  15.602   0.345  0.1008 -0.4737  0.0496
92068W        W92932   0.477  17.104   0.479 -0.2202  0.0357  0.3129
92069W        W92933  26.333  18.092   1.829 -0.1746 -0.0871 -0.0296
92070W        W92934  27.639  18.495  28.860 -0.2413  0.0763 -0.0222
92071W        W92935   1.583  15.714   0.885  0.2387  0.0942  0.1683
92072W        W92936  25.273  18.523   3.208  0.1019  0.1866 -0.1728
92073W        W92937  27.320  15.774   1.984 -0.0556 -0.0773 -0.0503
92074W        W92938  26.376  15.928  27.774 -0.0201  0.0566  0.3225
92075W        W92939  26.447  15.394   2.549 -0.0928  0.2731 -0.0087
92076W        W92940   2.039  18.318   2.484 -0.1698 -0.1321 -0.2002
92077W        W92941  25.215  15.006  29.074  0.1566  0.1807 -0.0561
92078W        W92942  25.959  15.206   2.814  0.1790  0.1828 -0.0168
92079W        W92943  27.857  20.777   0.825 -0.2009  0.0580  0.1795
92080W        W92944   0.326  19.786   0.768  0.1928  0.0692  0.0872
92081W        W92945  28.117  16.779   0.008  0.1441 -0.1958  0.1739
92082W        W92946  27.100  14.758  29.134 -0.0968  0.0450 -0.1797
92083W        W92947   0.732  18.810   1.296 -0.1592  0.3398 -0.3286
92084W        W92948   0.322  15.115   1.532  0.3230 -0.2312 -0.0401
92085W        W92949   2.248  18.711   1.393 -0.4095  0.2537 -0.0825
92086W        W92950  25.102  14.160   1.584  0.2203 -0.1318 -0.1877
92087W        W92951  26.189  16.109   1.078  0.0242  0.0866 -0.0756
92088W        W92952  27.280  15.717   2.550  0.1700 -0.3484  0.1406
92089W        W92953   0.216  15.417   1.154  0.1057 -0.3213  0.1799
92090W        W92954   2.077  17.347   2.690 -0.2652  0.0259  0.1213
92091W        W92955  26.851  15.614   2.749  0.0363  0.3643 -0.1007
92092W        W92956  28.077  16.076   6.169 -0.0468  0.1442  0.1317
92093W        W92957  26.087  16.245   2.094  0.1732 -0.0663  0.1347
92094W        W92958   0.329  17.209   0.998 -0.0645 -0.2711 -0.0428
92095W        W92959  26.376  16.871   3.519 -0.5016  0.0968 -0.2153
92096W        W92960  26.997  15.360   1.918 -0.1808 -0.1052 -0.0060
92097W        W92961  28.727  18.488   2.783  0.0228 -0.1665 -0.2211
92098W        W92962  28.703  13.498   3.067  0.1389  0.2586  0.0730
92099W        W92963  28.021  17.848   5.836 -0.0666  0.1407  0.1169
92100W        W92964   0.032  16.239   4.121 -0.0779  0.0073  0.1292
92101W        W92965  28.847  16.103  29.091 -0.4870  0.0637  0.1485
92102W        W92966   0.278  16.287   3.628 -0.1666 -0.3553 -0.0170
92103W        W92967  28.751  19.931   4.213 -0.0542  0.1143 -0.1466
92104W        W92968  26.262  17.270  28.038  0.0697 -0.2399  0.2171
92105W        W92969  25.027  13.710   3.747 -0.1809  0.1431  0.0821
92106W        W92970   1.933  14.383   2.560  0.1600  0.0308 -0.2657
92107W        W92971   2.809  15.986  28.221  0.2322  0.3099  0.0609
92108W        W92972  28.443  16.217   1.812  0.0823  0.3519 -0.0234
92109W        W92973  25.149  14.427   1.977  0.0407  0.0595  0.1085
92110W        W92974   1.804  14.562   0.001  0.0950 -0.2112 -0.0480
92111W        W92975   0.657  17.577   0.300 -0.2520  0.0643 -0.2643
92112W        W92976  27.874  18.417   2.722  0.1120 -0.2277  0.0823
92113W        W92977  26.001  15.222  28.456  0.0986 -0.2101  0.2911
92114W        W92978   0.618  19.245   3.030 -0.3204  0.2080  0.4525
92115W        W92979  28.658  13.105   4.368 -0.0674 -0.1154  0.2744
92116W        W92980  27.006  17.443   5.412 -0.3154  0.3121  0.0003
92117W        W92981  27.409  19.460   3.215 -0.0010  0.1307  0.1351
92118W        W92982  28.929  18.767   5.751 -0.3272 -0.0118  0.0628
92119W        W92983  27.995  15.365   1.782 -0.2608  0.3197  0.1771
92120W        W92984  26.132  14.946   2.478 -0.0075 -0.1322  0.2862
92121W        W92985  26.875  19.661   3.390  0.0460 -0.0758 -0.0640
92122W        W92986  25.516  22.061   3.456  0.0268  0.1954 -0.3662
92123W        W92987  27.719  15.810   2.894 -0.0864  0.0413  0.1797
92124W        W92988  26.691  18.760   3.318  0.1748  0.2822  0.3487
92125W        W92989   1.082  16.913   0.422 -0.1184  0.1122  0.2453
92126W        W92990  27.827  16.667   1.933  0.0625 -0.2126 -0.4552
92127W        W92991   0.239  15.547   3.156 -0.0861  0.5004  0.0031
92128W        W92992   1.105  19.607   1.806  0.0155 -0.1566 -0.1442
92129W        W92993  26.407  17.142  29.095 -0.4746 -0.0380 -0.1039
92130W        W92994  28.680  15.245   0.668 -0.3343  0.0096 -0.4658
92131W        W92995  26.616  14.549   1.405 -0.1731  0.2164 -0.1559
92132W        W92996   0.981  18.130   3.324 -0.2208  0.0654 -0.0859
92133W        W92997  29.031  18.400   3.700 -0.0434 -0.0934  0.2317
92134W        W92998  27.549  16.494  27.523 -0.1578 -0.1992  0.3789
92135W        W92999  27.247  15.095   0.711 -0.0135  0.1144 -0.1409
92136W        W93000  27.350  16.780  28.877  0.0565 -0.1213  0.4098
92137W        W93001  27.575  16.120  28.430 -0.0424 -0.0751 -0.1177
92138W        W93002  27.589  16.362   0.413 -0.2099 -0.0666 -0.0676
92139W        W93003   0.751  15.500   1.992 -0.0384  0.0029  0.3133
92140W        W93004  28.508  17.378   3.416 -0.0287  0.2570  0.4219
92141W        W93005  27.511  16.778   2.337  0.0497 -0.1134 -0.0670
92142W        W93006  28.042  13.600   2.171  0.3674 -0.0445  0.2206
92143W        W93007  26.684  16.805   0.701 -0.0860  0.1195 -0.1210
92144W        W93008  28.642  17.504   0.623 -0.2477 -0.0506 -0.3016
92145W        W93009   0.993  17.075   2.407 -0.0616 -0.0010 -0.0989
92146W        W93010  26.324  14.821   0.937  0.0554  0.0009 -0.0377
92147W        W93011  27.622  14.593   0.584  0.0066 -0.2101 -0.4166
92148W        W93012  29.131  16.894   1.531  0.2979  0.2261 -0.0729
92149W        W93013  28.655  21.235   1.159 -0.4278  0.2464 -0.2505
92150W        W93014  28.945  16.445   1.648  0.2179 -0.1168 -0.3107
92151W        W93015  25.806  14.564  28.454  0.0471 -0.1128  0.0118
92152W        W93016   0.028  13.591   1.994 -0.4977  0.3409 -0.0965
92153W        W93017  25.407  17.645   1.941 -0.1546 -0.1458  0.0470
92154W        W93018  28.099  16.733   4.352  0.0919  0.4707  0.3183
92155W        W93019  28.908  17.821   4.091  0.3994 -0.2777  0.3765
92156W        W93020  27.171  15.813  28.758 -0.0279  0.0232  0.0296
92157W        W93021  28.207  15.381   0.590  0.3396 -0.1718  0.2864
92158W        W93022  27.437  21.147   0.870 -0.0398  0.0466 -0.3432
92159W        W93023  27.780  18.795   1.482 -0.3460 -0.1965  0.1173
92160W        W93024   0.570  16.694   1.429 -0.0614  0.0936  0.1010
92161W        W93025  27.363  14.481   2.267  0.2375 -0.1709 -0.1686
92162W        W93026  26.559  15.415   3.982 -0.3260  0.0083  0.2830
92163W        W93027  27.020  16.569   2.485 -0.1400 -0.0750 -0.0359
92164W        W93028  27.489  15.880   0.712  0.0523 -0.0178 -0.0228
92165W        W93029   0.096  15.161   2.078  0.2338  0.3855  0.0143
92166W        W93030  28.953  15.623   2.916  0.1574 -0.0533  0.2913
92167W        W93031  27.451  19.324   2.691  0.0826 -0.0671  0.3132
92168W        W93032   0.136  18.920   0.044 -0.1087 -0.3156 -0.3498
92169W        W93033  26.009  15.099  27.953  0.0060 -0.1535 -0.0657
92170W        W93034  28.564  16.595  29.108  0.3177  0.0509 -0.1223
92171W        W93035  29.010  12.578   1.922 -0.1430  0.1620 -0.2193
92172W        W93036  26.317  15.695  29.130 -0.1871  0.1644 -0.0826
92173W        W93037  27.815  15.802   1.685 -0.1204 -0.3125  0.0188
92174W        W93038   0.185  19.207   3.944  0.2940 -0.1399 -0.0824
92175W        W93039  26.854  15.306   3.174  0.1462 -0.2264 -0.0648
92176W        W93040  28.027  14.449   0.353  0.1069  0.0997  0.0860
92177W        W93041  25.348  17.238   2.682 -0.0170  0.2261  0.1639
92178W        W93042  27.106  16.718   1.067 -0.0743 -0.1159 -0.0907
92179W        W93043  28.655  16.974   1.425  0.0906  0.3183  0.0852
92180W        W93044  23.795  16.974  28.675 -0.2242  0.0053  0.1033
92181W        W93045   0.732  15.392   0.923  0.1790  0.0509  0.1941
92182W        W93046  26.637  13.536   0.591 -0.2297  0.1325 -0.1085
92183W        W93047  27.947  20.316   2.329 -0.2830 -0.1381 -0.1653
92184W        W93048  28.433  15.365   1.381 -0.0882  0.3716  0.0463
92185W        W93049  28.936  14.772  28.575  0.3674  0.3407  0.2797
92186W        W93050  29.018  15.933  27.472  0.0577 -0.2663  0.1464
92187W        W93051  26.656  17.835   3.670 -0.0641  0.1051 -0.4767
92188W        W93052  24.933  16.087   3.315  0.2217 -0.0950 -0.1084
92189W        W93053  25.125  17.265   1.179 -0.0330  0.2086  0.0195
92190W        W93054  27.104  14.726   2.616  0.0480  0.1726 -0.4434
92191W        W93055  28.818  18.097   0.670 -0.1446  0.2133 -0.1430
92192W        W93056  29.101  18.711  27.532  0.0865  0.1783 -0.1043
92193W        W93057  27.439  15.405   0.352 -0.1075 -0.2318  0.1137
92194W        W93058  25.899  16.931   0.767 -0.0752 -0.2294  0.0626
92195W        W93059   0.714  16.657   0.801 -0.2317 -0.3395 -0.0548
92196W        W93060  28.629  16.404   2.696 -0.1996  0.1366  0.0689
92197W        W93061  27.408  15.544   1.572 -0.0962  0.0890  0.1565
92198W        W93062  26.714  15.232  28.983  0.1994 -0.0585  0.2127
92199W        W93063  28.084  18.679   3.093 -0.1110  0.0578  0.3120
92200W        W93064  26.064  18.850   1.151 -0.3077  0.3888  0.3120
92201W        W93065  27.542  17.909  28.704  0.1452 -0.1535 -0.1322
92202W        W93066  27.676  14.977   0.920 -0.3698  0.1883  0.1349
92203W        W93067  24.797  14.518   1.274 -0.0262  0.2318 -0.0872
92204W        W93068   0.316  13.954   2.284 -0.0787  0.0959  0.2055
92205W        W93069  27.957  14.015   0.978 -0.2032  0.0489  0.0312
92206W        W93070  27.277  15.297  28.907  0.1664 -0.0149  0.1519
92207W        W93071  28.604  13.409   0.631  0.0805 -0.1380 -0.0967
92208W        W93072  26.562  15.577   1.735  0.1225 -0.0028  0.0342
92209W        W93073  25.903  16.992   3.458 -0.0219  0.0146  0.3211
92210W        W93074   0.624  15.599   1.415 -0.1831  0.0672  0.0629
92211W        W93075  25.592  16.623   0.347 -0.3367 -0.2718  0.1686
92212W        W93076   1.640  15.451   1.944 -0.0549 -0.0693  0.0638
92213W        W93077   3.445  17.400   3.108 -0.2265  0.1318 -0.1464
92214W        W93078  26.143  12.511   2.425  0.1303  0.1892  0.0185
92215W        W93079  24.861  13.713   3.191 -0.0986  0.3791 -0.0981
92216W        W93080  26.157  16.431  27.758 -0.0235  0.0779 -0.1418
92217W        W93081  28.178  16.955   1.050  0.2240  0.0458  0.2074
92218W        W93082  28.496  18.153   1.366  0.0011  0.0987 -0.3406
92219W        W93083   0.752  19.677   2.903  0.2372 -0.0504  0.3103
92220W        W93084  27.785  16.957  27.156 -0.3555  0.3703  0.0112
92221W        W93085  24.609  16.618   5.340  0.0826 -0.0960  0.0219
92222W        W93086  24.004  15.043   1.402  0.1331  0.1100  0.0152
92223W        W93087   0.581  20.146  28.300  0.1106  0.3220 -0.1240
92224W        W93088  28.279  14.057   3.359 -0.1184  0.2524 -0.1976
92225W        W93089   1.234  14.304   3.213 -0.0478 -0.0694  0.1187
92226W        W93090   3.235  20.038   1.903  0.1804  0.0237  0.3038
92227W        W93091   1.722  17.451   0.233 -0.3262 -0.3997  0.0210
92228W        W93092  28.836  22.292   1.424  0.2610  0.1711  0.2121
92229W        W93093   0.637  15.892   3.227 -0.1961  0.1311 -0.1240
92230W        W93094  25.523  15.356   2.081 -0.5088 -0.2244 -0.3058
92231W        W93095   1.240  12.041   3.593  0.1311  0.1239  0.1384
92232W        W93096   1.418  14.469   2.800 -0.2195  0.3687 -0.1109
92233W        W93097  25.698  18.395   2.835  0.0018 -0.0626 -0.2609
92234W        W93098   0.210  13.360   0.244  0.0183 -0.0534  0.2242
92235W        W93099   0.501  19.642  29.054  0.1675 -0.3651 -0.0612
92236W        W93100  28.418  14.719   4.319  0.4037 -0.1539 -0.1669
92237W        W93101  26.640  18.332   4.619  0.0961 -0.0690 -0.0639
92238W        W93102  28.876  17.146   3.914  0.2086 -0.1165  0.1011
92239W        W93103  27.540  18.840   1.922 -0.3046 -0.2379  0.3881
92240W        W93104  29.121  16.609   3.330  0.0760 -0.0224 -0.0644
92241W        W93105  28.919  14.504   4.287  0.1091  0.2382 -0.1804
92242W        W93106  27.011  14.197   2.464 -0.1752  0.2189  0.2746
92243W        W93107  28.246  16.219  28.992  0.3506  0.0636  0.1209
92244W        W93108  29.011  16.684  28.887 -0.0234  0.1974 -0.1729
92245W        W93109  27.426  13.243   4.291  0.1681 -0.2599  0.1152
92246W        W93110   0.702  19.902   1.908 -0.0950  0.0452 -0.1189
92247W        W93111   0.891  13.538   0.743 -0.4038  0.3146  0.0330
92248W        W93112  28.002  14.675   2.512 -0.1422  0.0387 -0.1847
92249W        W93113   0.351  18.040   2.854  0.2475  0.1595  0.3292
92250W        W93114   2.506  17.169   2.126 -0.4020  0.0574  0.0020
92251W        W93115   0.078  19.427   0.072 -0.1383 -0.1117  0.1559
92252W        W93116  24.826  15.839   2.447  0.1395  0.1622 -0.0586
92253W        W93117  28.065  13.602   3.222  0.1589  0.1780  0.2719
92254W        W93118  28.429  16.499   2.225 -0.0248  0.0610  0.1416
92255W        W93119  27.638  17.763   1.843  0.2448  0.0614 -0.0892
92256W        W93120  28.757  17.480  28.639 -0.0532  0.2036  0.0512
92257W        W93121   4.031  16.503   0.890 -0.0414 -0.1211  0.1989
92258W        W93122  28.772  20.608   1.728  0.0676 -0.4236 -0.0907
92259W        W93123   1.458  18.879   1.955  0.1497  0.1331  0.1339
92260W        W93124  28.577  17.010   2.385  0.2358  0.2159 -0.3019
92261W        W93125  29.028  14.366   1.405  0.2237  0.3721  0.1575
92262W        W93126  26.426  17.604   1.825 -0.0819 -0.0220 -0.1235
92263W        W93127   1.956  15.595   2.504 -0.1296 -0.1593 -0.2055
92264W        W93128  26.534  17.980   2.731 -0.0569  0.0138 -0.2471
92265W        W93129  25.866  15.149   1.153 -0.0022  0.2013 -0.1229
92266W        W93130  28.927  19.255   1.522  0.3841 -0.1882  0.0095
92267W        W93131   1.335  12.634  27.740 -0.0293 -0.2964 -0.3131
92268W        W93132  28.066  15.508   4.653 -0.1550  0.3615  0.2646
92269W        W93133   0.026  19.226   2.637  0.3495 -0.2702  0.0894
92270W        W93134  27.262  17.385  27.896  0.0933 -0.0982  0.0442
92271W        W93135  26.188  15.956   0.548  0.1059  0.0665 -0.0842
92272W        W93136  28.628  16.142   4.095  0.1437 -0.3021  0.2385
92273W        W93137  28.139  15.621   2.637 -0.0551 -0.0510 -0.1868
92274W        W93138  27.623  14.412   1.048  0.2530  0.2055  0.0974
92275W        W93139   0.130  17.493   0.475 -0.4684 -0.0624 -0.1285
92276W        W93140  26.820  18.385   2.037 -0.4656  0.0047 -0.0457
92277W        W93141  27.842  18.713   2.270 -0.1598  0.0701 -0.0303
92278W        W93142  28.433  17.241  28.232  0.0517 -0.0280  0.2766
92279W        W93143  27.313  15.234   3.390  0.0355 -0.1582  0.0106
92280W        W93144   1.071  14.154  28.166  0.4109  0.1881  0.0662
92281W        W93145   0.050  22.044  28.901  0.0194  0.1695 -0.3550
92282W        W93146  26.255  15.937  28.703  0.0488  0.0593  0.0516
92283W        W93147  28.308  16.767   1.722  0.0101  0.0227 -0.1296
92284W        W93148  26.989  15.924   1.623 -0.0665 -0.2033 -0.0561
92285W        W93149  27.799  16.920   1.485  0.3921  0.4173  0.2221
92286W        W93150   1.889  16.186   4.536  0.1912  0.0935 -0.2590
92287W        W93151  24.638  15.785   3.128  0.0292  0.1936  0.2999
92288W        W93152  28.214  17.242   4.197 -0.1064  0.1130 -0.0344
92289W        W93153  24.045  16.059  28.915 -0.2651  0.0700 -0.3203
92290W        W93154  28.215  18.545  28.962  0.2332  0.3176 -0.0599
92291W        W93155   1.563  15.610   1.410 -0.0370  0.2495  0.0866
92292W        W93156  25.461  15.572  26.158  0.2022  0.0468  0.1484
92293W        W93157  25.542  17.366   0.272 -0.0815 -0.1375  0.0153
92294W        W93158  27.250  18.057   0.849  0.1384  0.0707 -0.0659
92295W        W93159   0.543  14.940   2.062  0.0614  0.2670 -0.0522
92296W        W93160  28.172  13.768   4.039  0.3150  0.0174  0.1951
92297W        W93161  24.900  14.417   0.728  0.0529 -0.1385  0.1414
92298W        W93162  28.088  12.484   3.817  0.3139  0.0052 -0.0719
92299W        W93163  28.332  14.110   1.966  0.3837 -0.1858  0.1167
92300W        W93164   2.090  13.850   3.291 -0.0858  0.2976  0.0057
92301W        W93165  26.060  14.430   2.197  0.1092  0.0461 -0.0515
92302W        W93166   1.860  16.797   2.089  0.2733  0.1069 -0.1683
92303W        W93167  27.040  18.213   2.511  0.2023  0.0733  0.0959
92304W        W93168  25.996  16.718   1.809 -0.4188  0.0024 -0.1558
92305W        W93169  28.018  18.124  28.743 -0.0354  0.1348 -0.0561
92306W        W93170   0.169  15.518  28.627 -0.0757 -0.1498 -0.0149
92307W        W93171  27.946  14.770   1.306 -0.2077 -0.4675  0.1599
92308W        W93172  27.472  18.977   3.673  0.1608 -0.1464  0.1484
92309W        W93173  29.046  14.289  28.175 -0.2421  0.1402  0.0022
92310W        W93174  25.653  18.117   1.677  0.2779 -0.0661  0.0796
92311W        W93175  25.196  16.111  26.416 -0.0566 -0.0671 -0.0785
92312W        W93176  26.992  13.563   2.403  0.0163  0.2262  0.0406
92313W        W93177   1.852  17.409   1.125 -0.0432 -0.3894 -0.0830
92314W        W93178  28.565  18.681   2.219 -0.4388 -0.0643 -0.1135
92315W        W93179   0.255  17.484   1.365  0.2868 -0.1285 -0.0050
92316W        W93180  27.595  18.521   0.986  0.2667 -0.0611 -0.0881
92317W        W93181  28.402  16.341   4.505  0.1116 -0.1572 -0.0189
92318W        W93182  27.769  12.941  28.634  0.0838  0.1999  0.0131
92319W        W93183  26.570  14.870   0.439 -0.0123  0.0143 -0.3301
92320W        W93184  23.412  15.928   4.918 -0.0912 -0.1283  0.1086
92321W        W93185  27.899  13.274   0.889  0.0502 -0.2246  0.1909
92322W        W93186  25.396  17.300   5.272 -0.1932  0.0779  0.1941
92323W        W93187  25.045  17.381   0.022 -0.1946  0.1439  0.2238
92324W        W93188  28.747  16.904   3.461  0.0135 -0.0522  0.1503
92325W        W93189  27.032  19.813   3.966  0.1693  0.0305  0.2095
92326W        W93190  27.709  18.403   1.735  0.1328 -0.2649 -0.0291
92327W        W93191  29.084  18.930   0.529  0.0421  0.0101 -0.0061
92328W        W93192  27.977  16.203   1.975 -0.1055  0.1917  0.1892
92329W        W93193   0.380  16.333   3.009 -0.0743 -0.0238  0.0754
92330W        W93194   2.310  18.081   2.026  0.0922  0.1300 -0.1351
92331W        W93195  25.001  17.749   1.089  0.0975  0.2123 -0.0439
92332W        W93196   0.367  20.647  28.384 -0.0698 -0.1519  0.1782
92333W        W93197  27.781  15.896   3.388 -0.1205  0.3883  0.0134
92334W        W93198   1.185  17.394   1.132 -0.3627  0.3748 -0.1005
92335W        W93199  28.525  18.501   0.832  0.1347  0.3097  0.1374
92336W        W93200  25.741  16.862   2.890  0.1568  0.2930  0.0248
92337W        W93201   1.248  13.399  27.173 -0.1047 -0.1217  0.2056
92338W        W93202  25.672  15.565   3.702  0.0792  0.1016 -0.0567
92339W        W93203   0.865  15.751  29.103  0.0262  0.2171  0.0363
92340W        W93204  26.141  16.632   3.115 -0.1902 -0.3882  0.2114
92341W        W93205  25.937  14.103   4.014 -0.2159  0.1558 -0.1192
92342W        W93206  28.652  14.050   1.502 -0.1030  0.1853  0.0954
92343W        W93207   0.817  15.722   2.536  0.1035  0.1703 -0.0119
92344W        W93208  27.084  18.379   4.847 -0.1416  0.0611  0.1330
92345W        W93209   0.838  16.544   4.591 -0.3111  0.4251  0.2356
92346W        W93210   1.163  16.668   2.593 -0.1026 -0.0805  0.1534
92347W        W93211  25.362  16.737   2.514  0.1326  0.0170 -0.1967
92348W        W93212   0.383  16.373  28.280  0.3544 -0.0373 -0.0521
92349W        W93213  28.318  14.186  28.795  0.1387 -0.1506 -0.0667
92350W        W93214  26.473  14.378  27.503 -0.1810 -0.0667 -0.0436
92351W        W93215  27.744  18.117   2.258  0.3909  0.2496  0.4267
92352W        W93216  25.995  16.662  28.912 -0.4006 -0.3287 -0.1470
92353W        W93217  27.487  13.420   1.357 -0.1836  0.0984  0.2098
92354W        W93218  24.826  17.026   2.448 -0.3493  0.0462  0.0310
92355W        W93219  26.593  14.716  29.077 -0.0555  0.1175 -0.2040
92356W        W93220  25.882  16.853   2.304 -0.0661 -0.1019 -0.1357
92357W        W93221  25.993  13.592   1.388  0.0184 -0.0090  0.0221
92358W        W93222  27.210  15.871   1.090 -0.1045  0.0858 -0.1817
92359W        W93223  27.754  16.422  29.081  0.4683  0.0837  0.2497
92360W        W93224  24.310  15.905   2.357 -0.3289  0.0840 -0.1790
92361W        W93225  28.256  13.738   1.445 -0.1383 -0.0976 -0.0559
92362W        W93226   0.228  15.774  27.764 -0.2244  0.2723 -0.0186
92363W        W93227   1.626  16.854   3.445 -0.0302 -0.0964 -0.2303
92364W        W93228   0.224  16.238   0.822  0.1970 -0.1551  0.0578
92365W        W93229  28.113  16.333  28.497  0.2948 -0.2457  0.0191
92366W        W93230  28.578  17.894  28.891 -0.0723  0.1653 -0.1407
92367W        W93231  25.509  15.937   1.931  0.1315  0.0505 -0.1201
92368W        W93232  27.988  17.154   4.683  0.2608  0.1327 -0.0327
92369W        W93233  26.742  14.969   4.799  0.0183 -0.3410  0.0440
92370W        W93234  26.757  16.104  28.569  0.3246  0.1235 -0.0762
92371W        W93235  26.221  17.824   2.260 -0.1725 -0.3400 -0.0595
92372W        W93236  27.771  15.313   4.170  0.2359  0.1514  0.0619
92373W        W93237  27.362  17.595   3.109 -0.0173  0.0731  0.0726
92374W        W93238   0.283  12.851   2.713  0.1253 -0.2087  0.1387
92375W        W93239  27.271  18.624   3.305  0.1185  0.2608 -0.0071
92376W        W93240  27.635  16.892   0.163 -0.3131  0.0088  0.0806
92377W        W93241  27.989  17.322   0.255 -0.1369  0.0758 -0.2579
92378W        W93242  28.235  17.344   2.615 -0.2056  0.1114 -0.2660
92379W        W93243   0.277  14.970  28.518  0.1259 -0.2154  0.0340
92380W        W93244   1.897  11.504   1.102  0.1452 -0.1297  0.1338
92381W        W93245   0.010  16.234  28.617  0.1003 -0.2659  0.0750
92382W        W93246   1.710  13.657   0.428  0.2108  0.0463 -0.0945
92383W        W93247  27.204  18.192  28.870 -0.0823  0.4032  0.1043
92384W        W93248  27.227  15.985   3.978  0.0785 -0.3356  0.2262
92385W        W93249  28.193  18.984   0.307  0.0862 -0.0217 -0.1544
92386W        W93250  28.604  16.817   2.927  0.1454 -0.0681 -0.1799
92387W        W93251  23.857  15.794   3.274 -0.5248  0.0374  0.1793
92388W        W93252   0.830  18.454   2.064 -0.1361  0.3171 -0.1430
92389W        W93253  28.098  17.730   2.233  0.3442 -0.1188  0.0578
92390W        W93254  26.768  15.080   2.742 -0.2711  0.0211  0.0642
92391W        W93255  28.516  18.685  28.261  0.2211  0.2064 -0.1307
92392W        W93256  26.918  18.700   2.503 -0.0346 -0.1508  0.0928
92393W        W93257  26.754  17.414   0.259 -0.1234 -0.1356  0.0244
92394W        W93258  26.470  12.830  28.936  0.1724  0.0201 -0.0292
92395W        W93259  29.011  16.563   2.346  0.3464  0.3309  0.1959
92396W        W93260  27.524  14.345   3.767 -0.2514 -0.0879 -0.0325
92397W        W93261  26.228  17.734  28.207  0.0373  0.0017  0.0678
92398W        W93262  27.163  18.729  29.006  0.0059  0.0181 -0.0509
92399W        W93263  25.918  19.345   3.647 -0.1733  0.1067 -0.1369
92400W        W93264  28.141  18.140   0.696  0.0055  0.3073 -0.0917
92401W        W93265  27.411  18.474   2.693  0.1544 -0.0665 -0.0919
92402W        W93266  28.118  18.108   1.835  0.3042 -0.1224 -0.3752
92403W        W93267  28.026  16.427   1.002  0.2872  0.2578 -0.0234
92404W        W93268  28.850  15.596   1.936 -0.1132 -0.1348 -0.1760
92405W        W93269  26.967  16.327   1.380  0.2448  0.0578 -0.1613
92406W        W93270  27.465  16.104   1.530 -0.1334 -0.2087 -0.3914
92407W        W93271   0.651  17.233  28.648 -0.1663  0.1254  0.1804
92408W        W93272  26.776  16.299   0.857  0.1008 -0.1481  0.2298
92409W        W93273  26.025  16.561   1.251 -0.2211 -0.3548 -0.2139
92410W        W93274  25.567  13.507  27.419 -0.2119 -0.4927 -0.1497
92411W        W93275  25.248  14.914   6.747 -0.0474 -0.0703  0.1783
92412W        W93276  25.239  15.478   5.135 -0.0944 -0.0662 -0.0616
92413W        W93277   2.713  16.462   2.470 -0.2522  0.0636  0.0470
92414W        W93278  27.628  16.199   8.336  0.1262  0.1003  0.0272
92415W        W93279  26.461  19.410   1.387  0.0332 -0.1139  0.0568
92416W        W93280  27.561  15.592   3.819  0.3084 -0.0983 -0.2082
92417W        W93281  26.579  14.677   4.482 -0.2271  0.0354  0.0376
92418W        W93282  26.270  13.877   2.160  0.2039 -0.0923  0.1048
92419W        W93283  28.101  18.281   9.490  0.1778  0.1516  0.2383
92420W        W93284  25.315  12.274   7.253  0.1700 -0.0873  0.0115
92421W        W93285  24.708  15.039   6.886  0.1883  0.2043 -0.1910
92422W        W93286   3.338  14.158   6.152  0.2244  0.0606 -0.2640
92423W        W93287  27.772  15.446   0.782  0.0839 -0.2047 -0.0761
92424W        W93288   1.778  15.626   9.806  0.0147 -0.3238  0.0113
92425W        W93289  27.516  14.664   6.007 -0.0004  0.0208 -0.1477
92426W        W93290  26.805  16.588   8.111 -0.0682 -0.0555 -0.0356
92427W        W93291  26.614  17.824   4.725  0.2404  0.1632  0.0384
92428W        W93292  25.458  14.422   6.860 -0.0544  0.1971  0.0209
92429W        W93293   0.536  17.341   6.401  0.1910  0.1094  0.1073
92430W        W93294   1.265  15.606   5.951  0.3055  0.0240  0.1743
92431W        W93295  27.934  18.037   4.497  0.0856  0.0142 -0.1122
92432W        W93296   0.634  15.985   5.281 -0.2104  0.1760 -0.0529
92433W        W93297  25.273  18.345   7.593  0.0455  0.0006  0.0805
92434W        W93298  27.048  16.189   2.837 -0.0564 -0.1491 -0.0714
92435W        W93299   0.477  16.273   4.901  0.1645 -0.2398  0.1107
92436W        W93300  28.059  16.528   6.641 -0.1573  0.1282  0.0714
92437W        W93301   2.559  14.799   7.046  0.2807  0.2143 -0.2910
92438W        W93302  28.379  18.351   3.565  0.0485 -0.0472 -0.1510
92439W        W93303   1.227  16.883   7.005 -0.1053  0.0444  0.1196
92440W        W93304  27.997  15.153   6.677 -0.2122  0.1149 -0.0635
92441W        W93305  27.815  16.011   5.164  0.2989 -0.1208 -0.2140
92442W        W93306  28.619  16.293   4.992 -0.0581 -0.4730  0.0253
92443W        W93307  28.740  16.202   5.922  0.2043 -0.3130  0.0895
92444W        W93308  27.564  15.998   7.876  0.0169  0.3481  0.2448
92445W        W93309  24.334  13.527   6.028  0.0047  0.3574  0.2918
92446W        W93310  28.787  19.783   5.548 -0.2445  0.0502  0.1697
92447W        W93311  28.640  15.017   5.087  0.1877 -0.1120  0.1179
92448W        W93312  23.726  15.771   6.235 -0.0293  0.1908 -0.0962
92449W        W93313   1.502  17.520   6.843  0.0653  0.0464  0.0535
92450W        W93314  27.010  15.440   6.674 -0.2044 -0.0439  0.0536
92451W        W93315   0.925  17.538   4.637 -0.1877  0.4317  0.0906
92452W        W93316  27.095  19.113   3.342 -0.1118 -0.1064  0.0522
92453W        W93317  24.746  16.007   7.266  0.1474  0.0125 -0.0563
92454W        W93318   0.074  16.706   3.936  0.0382 -0.0739 -0.1715
92455W        W93319  26.299  18.497   8.079  0.0845 -0.1807 -0.2948
92456W        W93320  28.693  17.991   4.505  0.2309 -0.1129  0.1056
92457W        W93321  24.567  17.126   8.120 -0.0660 -0.1501 -0.0560
92458W        W93322   0.342  14.386   7.946  0.1119  0.1909 -0.0403
92459W        W93323  28.149  15.941   3.732  0.0342  0.3022 -0.1349
92460W        W93324   2.259  16.730   3.170  0.0704  0.5238  0.1264
92461W        W93325   1.147  16.718   3.557 -0.1102  0.0251  0.0129
92462W        W93326  27.656  15.804   6.062  0.1824  0.2679 -0.1578
92463W        W93327  29.105  18.897   8.805  0.3026 -0.0292  0.2570
92464W        W93328  26.210  17.379   5.964 -0.0892 -0.2225 -0.0532
92465W        W93329  27.967  14.691   4.050  0.0551  0.1725  0.0351
92466W        W93330  26.731  15.475   5.265  0.0609  0.0092 -0.0254
92467W        W93331  26.020  13.572   3.378 -0.4579 -0.0643  0.1257
92468W        W93332   2.212  17.072   3.614  0.3049  0.1518  0.1204
92469W        W93333  26.339  16.856   2.502  0.0294  0.1909 -0.1314
92470W        W93334  26.022  16.678   4.222  0.1040  0.0529 -0.1825
92471W        W93335   0.201  17.976   3.848 -0.0582 -0.1440  0.2163
92472W        W93336  25.234  19.306   4.799  0.0163  0.1648  0.0725
92473W        W93337  28.826  17.595   6.346  0.1335  0.1186  0.3608
92474W        W93338  27.264  15.162   6.001  0.0873 -0.3460  0.2505
92475W        W93339   0.574  16.181   5.768  0.3262 -0.1761 -0.1453
92476W        W93340  28.949  15.064   3.690  0.3213  0.1687 -0.3140
92477W        W93341  27.513  15.046   1.579 -0.0142  0.1623  0.1511
92478W        W93342  26.489  14.804   5.678  0.1040  0.2145 -0.0540
92479W        W93343  24.359  18.080   5.346 -0.0807 -0.1966  0.3731
92480W        W93344  24.919  17.814   3.589  0.2232  0.1813 -0.1977
92481W        W93345  27.492  16.215   6.831 -0.0728 -0.0856  0.3019
92482W        W93346   1.379  17.154   2.714  0.0401 -0.2603  0.2849
92483W        W93347   0.878  19.197   4.515  0.1251 -0.1159  0.1065
92484W        W93348   0.652  16.110   7.467 -0.1035 -0.1794 -0.3173
92485W        W93349  27.529  18.219   5.138 -0.3453  0.3043  0.2592
92486W        W93350  27.924  15.876   8.689 -0.3306 -0.2045 -0.4202
92487W        W93351   0.162  15.904   4.519  0.2067 -0.0586  0.0915
92488W        W93352  26.972  16.937   8.449 -0.2015 -0.0628  0.4269
92489W        W93353   0.846  15.930   4.811  0.1765 -0.1170 -0.1872
92490W        W93354  26.477  17.374   3.349 -0.1488  0.2656  0.3639
92491W        W93355  26.264  13.943   6.989 -0.0779  0.0225 -0.0582
92492W        W93356  26.001  16.654   5.409  0.0744  0.4947  0.0882
92493W        W93357  26.326  13.644   3.861 -0.2200 -0.3228 -0.0755
92494W        W93358   0.377  12.312   4.417 -0.1003 -0.2687 -0.0443
92495W        W93359   0.127  12.776   8.649 -0.1856  0.0044 -0.1456
92496W        W93360  28.469  15.023   2.516  0.2684  0.1481 -0.1454
92497W        W93361  28.989  17.573   7.682 -0.1897  0.3891  0.3956
92498W        W93362  28.378  14.889   7.418 -0.1797 -0.0075  0.1483
92499W        W93363   0.917  17.572   6.082  0.2793  0.1468  0.0463
92500W        W93364  29.048  16.680   5.964  0.1016 -0.1068  0.1129
92501W        W93365  27.432  17.202   3.387 -0.2171  0.0470 -0.2500
92502W        W93366   1.545  16.988   7.991 -0.1075  0.0810  0.0483
92503W        W93367  27.411  16.665   7.117 -0.0248  0.2469 -0.2014
92504W        W93368  28.195  17.244   6.988 -0.0832 -0.1389 -0.0675
92505W        W93369  25.416  13.167   6.916  0.0861 -0.1991  0.2322
92506W        W93370  28.840  15.863   5.331  0.1506 -0.0897  0.3772
92507W        W93371   0.504  18.073   5.810  0.3212 -0.0548  0.0397
92508W        W93372  27.561  14.187   9.804 -0.0798  0.1650 -0.1708
92509W        W93373  27.362  13.749   4.442 -0.1141 -0.1396 -0.0531
92510W        W93374   1.454  14.629   6.699  0.0852  0.0728 -0.0097
92511W        W93375   0.349  21.719   4.886  0.2068 -0.3334 -0.0840
92512W        W93376  28.265  16.154   5.453  0.1011 -0.3228 -0.0521
92513W        W93377  27.208  14.002   3.361 -0.1923  0.0890  0.1091
92514W        W93378   0.876  19.697   4.262 -0.1052 -0.1380  0.0069
92515W        W93379   0.266  14.872   7.128 -0.0814 -0.0808 -0.2927
92516W        W93380  26.499  16.602   3.933  0.1758 -0.1989 -0.2802
92517W        W93381  27.844  18.036   3.730  0.3152 -0.0042  0.1034
92518W        W93382  27.940  16.995   6.585 -0.3216  0.0594 -0.1559
92519W        W93383  25.787  16.306   4.979 -0.0250  0.2991  0.3888
92520W        W93384  26.449  16.510   6.061  0.0372 -0.1090 -0.3232
92521W        W93385  24.912  15.481   7.287 -0.0864  0.1317  0.1380
92522W        W93386  26.151  18.044   4.564 -0.2059 -0.2104  0.2094
92523W        W93387   0.818  14.864   7.145 -0.3186  0.0902  0.1195
92524W        W93388  25.377  15.416   5.799  0.0503 -0.2669 -0.2757
92525W        W93389   0.841  16.450   1.794  0.1849  0.3526  0.1078
92526W        W93390  28.463  15.131   4.627  0.0077  0.0833  0.1694
92527W        W93391  29.070  13.961   7.902  0.0077 -0.0538  0.0393
92528W        W93392  26.440  17.090   8.196 -0.0196 -0.0011 -0.2149
92529W        W93393   0.013  16.070   3.209 -0.0680 -0.1887 -0.0770
92530W        W93394  28.195  15.635   1.041  0.1048 -0.0594 -0.2088
92531W        W93395   0.005  15.755   2.399  0.1614  0.0107 -0.4775
92532W        W93396  27.472  18.285   4.463  0.0995 -0.2054  0.0954
92533W        W93397  27.990  18.357   5.215  0.0256 -0.0882 -0.0518
92534W        W93398   1.789  14.027   2.908 -0.0475 -0.1106  0.2137
92535W        W93399  27.832  16.780   3.865 -0.0744  0.1746  0.4565
92536W        W93400   1.006  15.495   6.806 -0.3118  0.2680  0.1229
92537W        W93401  26.120  14.365   3.605  0.2630 -0.1049  0.4248
92538W        W93402  27.852  16.345   9.990 -0.1240 -0.0921  0.2212
92539W        W93403  27.215  19.041   8.062  0.0999  0.0485  0.2987
92540W        W93404  26.207  16.676   6.439  0.1222  0.3507  0.1392
92541W        W93405  27.694  18.996   5.690  0.1678 -0.0260 -0.3235
92542W        W93406   0.206  16.203   7.184  0.0091 -0.1252  0.0000
92543W        W93407  28.502  16.858   8.314  0.3535  0.2072  0.1417
92544W        W93408   1.952  13.695   4.224  0.0706  0.1783  0.1477
92545W        W93409   1.353  17.226   5.382 -0.1021  0.1471 -0.0048
92546W        W93410  28.447  15.744   5.730  0.2703  0.1861 -0.0396
92547W        W93411   1.691  14.161   5.741  0.2575  0.1118  0.1405
92548W        W93412   1.160  15.094   7.504 -0.0506  0.0736  0.0919
92549W        W93413   0.304  18.439   4.050 -0.5319  0.1177 -0.1719
92550W        W93414  25.769  16.458   6.390  0.2338  0.1289 -0.0941
92551W        W93415  27.211  16.151   6.070  0.1444  0.3343  0.1135
92552W        W93416   0.556  14.527   7.466  0.1325 -0.1221  0.4302
92553W        W93417  27.074  16.073   4.456  0.0371 -0.1386  0.3275
92554W        W93418  28.176  16.493   4.955 -0.0722 -0.1908  0.0794
92555W        W93419  26.166  19.640   7.800 -0.2903  0.2238  0.0709
92556W        W93420  27.775  15.530   5.209  0.0246 -0.1499  0.0871
92557W        W93421  26.908  14.534   4.941  0.1847  0.0870 -0.0216
92558W        W93422  27.806  17.683   4.878  0.2095  0.0355 -0.2352
92559W        W93423  28.490  18.115   7.022 -0.1782 -0.3569  0.2069
92560W        W93424  25.626  14.991   2.490 -0.2041 -0.0810 -0.3586
92561W        W93425   0.492  17.584   5.855  0.1447 -0.2405 -0.0437
92562W        W93426  26.442  14.204   4.738  0.1148 -0.2702  0.0565
92563W        W93427  27.532  15.469   5.706  0.3457  0.1934  0.0165
92564W        W93428  26.740  17.015   3.904  0.4494 -0.3008 -0.1799
92565W        W93429   0.054  17.935   5.607  0.0670 -0.2093 -0.0540
92566W        W93430   0.032  14.216   8.920 -0.2306 -0.2118  0.2393
92567W        W93431  25.058  15.349   4.662 -0.4846  0.1754  0.0095
92568W        W93432  26.481  15.428   4.829  0.1902  0.1709  0.0893
92569W        W93433  23.817  14.679   2.407 -0.0172 -0.1856  0.3847
92570W        W93434  27.393  16.578   5.695  0.1584 -0.0364  0.1898
92571W        W93435  27.536  13.945   7.574 -0.0165  0.0975 -0.3296
92572W        W93436  28.802  17.631   8.189 -0.0558  0.2404 -0.0649
92573W        W93437   1.604  14.733   5.901  0.2189 -0.0769  0.0367
92574W        W93438   0.479  14.419   6.967  0.3022 -0.1250 -0.0032
92575W        W93439   0.750  13.675   7.719 -0.0800  0.1570  0.3351
92576W        W93440  26.567  15.909   5.540 -0.0023  0.0775 -0.1841
92577W        W93441  25.034  16.909   5.411 -0.3371  0.2918  0.1516
92578W        W93442  27.417  16.658   3.432 -0.1545 -0.2077  0.0964
92579W        W93443  25.707  15.812   5.751 -0.1120 -0.0300 -0.0181
92580W        W93444  26.776  18.313   3.908 -0.2837  0.1131  0.1355
92581W        W93445   0.871  15.361   5.731 -0.1041  0.0750  0.1276
92582W        W93446   2.673  14.827   4.756  0.0833  0.3089  0.2165
92583W        W93447  26.423  15.238   6.627  0.0656 -0.5487 -0.1867
92584W        W93448  28.247  16.063   3.192 -0.1128  0.2243  0.0502
92585W        W93449  27.566  16.949   4.409 -0.1594  0.3603 -0.0039
92586W        W93450   2.177  17.277   4.534 -0.2771 -0.2633  0.2158
92587W        W93451  21.970  18.116   7.577 -0.0370  0.1033  0.0832
92588W        W93452  25.111  16.205   4.227  0.2556  0.2528 -0.0769
92589W        W93453  26.322  19.578   3.367  0.0331 -0.0056  0.2677
92590W        W93454  27.979  15.934   6.935 -0.0629 -0.2025 -0.2113
92591W        W93455  26.791  18.765   6.752 -0.1906  0.2125  0.2145
92592W        W93456   0.866  16.480   3.063 -0.1056  0.0860 -0.0497
92593W        W93457  27.203  16.518   4.741  0.1803  0.1781  0.2817
92594W        W93458  24.933  14.961   1.459 -0.2637 -0.1563  0.0412
92595W        W93459  28.514  14.527   1.439 -0.0947  0.2710 -0.0671
92596W        W93460  28.571  15.817   7.353 -0.1388  0.1619  0.1497
92597W        W93461  27.244  16.084   3.419  0.0279 -0.1079 -0.5616
92598W        W93462  25.629  15.072   1.608  0.0157 -0.0518  0.1248
92599W        W93463  26.191  17.751   7.688 -0.0327 -0.4215 -0.1376
92600W        W93464  27.734  15.879   4.688  0.0961  0.1015  0.3552
92601W        W93465  26.846  15.452   4.367  0.2074 -0.0789  0.0293
92602W        W93466  28.009  15.086   2.805 -0.1720  0.2042 -0.0398
92603W        W93467  26.444  16.620   6.952 -0.0152 -0.2058  0.2532
92604W        W93468  28.882  14.960   8.579  0.0020 -0.1440 -0.1099
92605W        W93469   1.287  15.664   8.648  0.2492 -0.1997 -0.0574
92606W        W93470  25.592  13.840   2.530  0.0066  0.1304 -0.0285
92607W        W93471  26.099  14.356   5.074 -0.1105 -0.2083  0.0812
92608W        W93472  25.886  14.769   5.246  0.0711 -0.0113  0.0675
92609W        W93473  28.194  15.151   5.047  0.2771 -0.0362 -0.1087
92610W        W93474  27.823  11.229   4.971  0.1307  0.0575 -0.0952
92611W        W93475  24.964  13.768   5.227  0.1672  0.1200  0.2483
92612W        W93476   0.625  16.504   5.369  0.3146 -0.4595 -0.2898
92613W        W93477  28.000  17.789   5.334  0.0555 -0.0355  0.0749
92614W        W93478  27.242  14.759   3.697  0.2119 -0.1787 -0.3552
92615W        W93479  27.260  17.651   6.216  0.2642 -0.3665  0.0866
92616W        W93480   0.377  15.679   5.780  0.4993 -0.4298  0.2381
92617W        W93481  25.241  16.235   6.497  0.0757 -0.0660  0.0043
92618W        W93482  26.934  15.625   3.606  0.1678 -0.0812  0.0674
92619W        W93483   0.119  18.476   2.719 -0.1533  0.0936 -0.0141
92620W        W93484  25.328  15.778   3.456 -0.0927  0.1606 -0.2254
92621W        W93485  26.491  17.908   8.406 -0.0777 -0.0317 -0.1320
92622W        W93486   1.436  16.397   7.903  0.0382  0.2844  0.0896
92623W        W93487   0.465  16.711   6.668 -0.0011 -0.0325 -0.0260
92624W        W93488   0.251  13.194   9.749  0.2191 -0.3221  0.0679
92625W        W93489   2.278  16.543   8.411  0.0129 -0.2060  0.1022
92626W        W93490   1.871  14.478   4.964  0.1100  0.1517  0.0582
92627W        W93491  26.890  18.308   3.433  0.0112 -0.1638  0.2468
92628W        W93492  26.378  16.896   1.561 -0.0036 -0.3314  0.0325
92629W        W93493   0.201  17.832   9.053  0.2155  0.0510  0.0114
92630W        W93494  24.245  17.510   8.269 -0.1245 -0.2201 -0.0446
92631W        W93495   1.974  12.738   7.556 -0.1206 -0.2466  0.0458
92632W        W93496   0.848  15.541   5.238 -0.1065  0.0476 -0.0132
92633W        W93497  28.929  16.751   6.451 -0.1130  0.5385  0.0502
92634W        W93498  28.282  11.092   4.877  0.0387 -0.0313 -0.0492
92635W        W93499   0.540  18.435   6.308 -0.1451  0.0352 -0.1150
92636W        W93500  26.818  15.223   7.084 -0.0216  0.2065  0.1212
92637W        W93501  27.812  17.289   7.301 -0.2449 -0.0197 -0.1231
92638W        W93502  28.474  14.933   6.936  0.1457  0.3541  0.0237
92639W        W93503  27.532  17.622   5.779 -0.0463 -0.0618 -0.2185
92640W        W93504  27.706  17.525   4.382 -0.1044  0.4867  0.2179
92641W        W93505   0.142  15.197   8.415 -0.2488  0.3143  0.2904
92642W        W93506  28.505  15.207   8.271  0.0685  0.1784  0.0046
92643W        W93507  23.471  16.807   5.957 -0.3301 -0.2762  0.4064
92644W        W93508   0.529  21.238   4.049  0.0518  0.0835  0.0660
92645W        W93509   0.305  14.375   6.460  0.0221  0.2071  0.0235
92646W        W93510  27.669  17.701   0.475  0.1370 -0.4482 -0.0379
92647W        W93511   1.782  17.633   4.543  0.1186 -0.0106 -0.1084
92648W        W93512  25.608  17.488   5.661  0.0690  0.0820  0.1288
92649W        W93513   2.132  16.770   4.476 -0.1616  0.2181  0.1476
92650W        W93514   1.779  18.085   5.576 -0.0450  0.0341  0.1182
92651W        W93515   1.250  16.002   5.237  0.0871 -0.1339 -0.1741
92652W        W93516  26.734  17.825   7.286  0.2240  0.2924 -0.2248
92653W        W93517  26.146  14.668   4.071  0.0071  0.0773 -0.0540
92654W        W93518  27.763  13.879   4.941 -0.0494 -0.0208  0.0384
92655W        W93519  28.557  17.489   3.900  0.0598  0.1044  0.0031
92656W        W93520  28.329  16.077   2.449 -0.0523  0.0867 -0.1520
92657W        W93521   0.657  16.803   4.935 -0.0290 -0.3612  0.1462
92658W        W93522  26.099  19.283   6.386 -0.1877 -0.2411 -0.1651
92659W        W93523  27.271  18.828   4.956  0.1567  0.0574  0.1845
92660W        W93524  28.440  16.949   6.695 -0.2002 -0.0468 -0.1378
92661W        W93525  25.486  16.748   5.282  0.2110  0.0237  0.2242
92662W        W93526  25.763  18.019   5.885 -0.2857  0.1010  0.0895
92663W        W93527  26.726  16.256   8.515  0.1644  0.1462 -0.2214
92664W        W93528   1.397  16.031   8.314  0.1154 -0.0410  0.0736
92665W        W93529  27.352  14.061   1.977  0.0893  0.1065 -0.1853
92666W        W93530   0.877  20.616   4.605  0.0049  0.0092 -0.0928
92667W        W93531  28.805  13.936   2.157  0.0087 -0.1151  0.3499
92668W        W93532  24.764  13.495   8.091  0.0386 -0.3462 -0.0564
92669W        W93533   1.861  14.493   4.213  0.0898 -0.0545 -0.0656
92670W        W93534  27.481  17.992   2.693 -0.3070 -0.3221 -0.0708
92671W        W93535   0.057  12.927   5.747  0.1540  0.1656  0.2274
92672W        W93536  27.483  17.157   5.577  0.1475  0.0831 -0.1813
92673W        W93537  28.584  15.987   8.069  0.1047  0.1150  0.0945
92674W        W93538  28.868  15.531   8.274  0.0921 -0.1809 -0.1049
92675W        W93539  27.962  16.197   2.742  0.0815  0.0546  0.1189
92676W        W93540  28.269  18.895   8.445 -0.2925 -0.1017 -0.0543
92677W        W93541  28.238  16.955   3.632 -0.2768  0.1500  0.6917
92678W        W93542   1.723  16.387   3.028 -0.3751 -0.3366  0.0811
92679W        W93543  25.825  15.943   6.228 -0.0103 -0.0422  0.0954
92680W        W93544   0.623  17.628   6.800 -0.0805 -0.3792 -0.0953
92681W        W93545  25.833  17.965   6.777  0.0512  0.1834 -0.0668
92682W        W93546   0.254  14.004   6.933  0.1961  0.1475 -0.2163
92683W        W93547  29.078  15.958   8.181  0.0628 -0.0983 -0.0601
92684W        W93548  26.745  16.414   7.325  0.1585  0.1276 -0.3758
92685W        W93549  28.758  17.344   6.751  0.0834 -0.3081  0.1413
92686W        W93550   1.468  13.036   8.392  0.0602 -0.1040 -0.0839
92687W        W93551   0.236  17.161   5.159  0.1952 -0.2838  0.1053
92688W        W93552  27.564  14.938   2.472 -0.0500 -0.3194 -0.0601
92689W        W93553  28.202  16.557   3.042 -0.1162  0.2093  0.0117
92690W        W93554  24.895  16.184   7.797  0.2519  0.0274 -0.0233
92691W        W93555  28.608  14.878   5.648  0.0474  0.2545  0.0278
92692W        W93556  27.803  15.827   2.243 -0.1508 -0.1972 -0.1039
92693W        W93557  28.255  15.654   5.292 -0.1674  0.0591 -0.1303
92694W        W93558  23.272  15.240   5.819  0.0285 -0.1535 -0.0404
92695W        W93559  29.079  18.238   4.245 -0.0766  0.0529 -0.0712
92696W        W93560   1.097  14.224   6.351 -0.0114  0.2995 -0.2295
92697W        W93561   1.043  18.460   6.515 -0.1388  0.0363 -0.0948
92698W        W93562  25.088  15.383   6.827  0.1671 -0.1032  0.2414
92699W        W93563   1.714  14.874   2.718  0.0297 -0.0481  0.0302
92700W        W93564  26.565  16.947   3.068  0.1684  0.1246 -0.0393
92701W        W93565  26.492  16.027   2.872  0.0862  0.0625 -0.0615
92702W        W93566   0.014  17.662   0.963 -0.1547  0.2137 -0.1020
92703W        W93567  27.992  17.446   3.503 -0.1027  0.3058  0.1719
92704W        W93568  28.974  13.357   1.445  0.1312 -0.3453 -0.2755
92705W        W93569  23.103  14.921   6.185 -0.1836 -0.2638  0.1971
92706W        W93570   0.100  17.415   5.601 -0.0754 -0.1332 -0.0131
92707W        W93571  28.343  17.554   4.527  0.0875 -0.3945 -0.0278
92708W        W93572  28.521  19.324   6.437 -0.2370 -0.2692  0.1475
92709W        W93573   3.767  15.395   5.081  0.3644 -0.1617 -0.0797
92710W        W93574  25.795  17.376   3.078 -0.0620 -0.2930  0.3287
92711W        W93575  26.742  15.248   0.760  0.4081 -0.3628  0.2207
92712W        W93576  26.172  14.492   6.990  0.1242  0.0310 -0.2020
92713W        W93577  26.700  13.484   7.884 -0.0272  0.1782 -0.0072
92714W        W93578  28.735  17.947   5.188  0.0288 -0.0117 -0.1820
92715W        W93579  28.709  17.997   3.645  0.1920  0.2184  0.1992
92716W        W93580   1.987  17.205   8.295 -0.2702  0.0684  0.2672
92717W        W93581   0.675  15.226   8.425  0.0779 -0.1535 -0.2352
92718W        W93582  25.884  12.576   4.581  0.1377 -0.0482  0.2005
92719W        W93583   1.773  15.185   4.222  0.1662  0.1102 -0.2705
92720W        W93584  26.300  17.003   4.823  0.0719 -0.1515  0.0614
92721W        W93585  24.206  14.542   2.999  0.0942  0.0953  0.0257
92722W        W93586  25.774  17.732   7.251  0.0488  0.0999 -0.0954
92723W        W93587  28.425  19.252   4.956  0.2177 -0.2021  0.2073
92724W        W93588   1.421  16.745   5.163 -0.0431  0.0261 -0.0105
92725W        W93589  26.315  17.079   7.030  0.0540  0.0149  0.1235
92726W        W93590  28.693  18.044   7.929  0.1361 -0.0619 -0.0358
92727W        W93591  26.534  14.660   2.640 -0.1170  0.3094  0.3428
92728W        W93592  28.138  17.088   2.121 -0.1251  0.0870 -0.1950
92729W        W93593  27.721  17.285   5.114 -0.1323 -0.0556  0.0038
92730W        W93594  25.530  15.711   4.740  0.2803  0.2081  0.0819
92731W        W93595  26.871  17.394   6.403 -0.0142 -0.2212  0.0757
92732W        W93596  27.761  17.287   3.914 -0.2809 -0.0624 -0.3688
92733W        W93597  26.732  18.665   7.625  0.0056  0.1441  0.2578
92734W        W93598  27.823  19.395   3.523 -0.5123  0.1792 -0.0770
92735W        W93599  26.974  16.982   3.478  0.0767 -0.1001 -0.2259
92736W        W93600  26.933  17.205   8.866  0.6253 -0.2957 -0.2780
92737W        W93601  28.438  16.395   6.336  0.4455 -0.2944 -0.1384
92738W        W93602  27.699  17.569   2.556  0.0374 -0.0507  0.0866
92739W        W93603  28.593  15.257   2.942  0.1738 -0.0275  0.1408
92740W        W93604  26.299  16.487   4.778  0.2649 -0.0732 -0.2728
92741W        W93605   0.388  12.208   5.983  0.2442 -0.4233 -0.0587
92742W        W93606  28.958  15.864   3.876 -0.1512 -0.0895  0.0213
92743W        W93607   0.513  15.779   7.092 -0.2774  0.0012  0.2693
92744W        W93608  25.189  14.911   5.928 -0.0822 -0.4650  0.2885
92745W        W93609   0.590  16.586   7.222  0.0154  0.0672  0.3073
92746W        W93610  28.238  14.962  10.066  0.1352 -0.3047 -0.0347
92747W        W93611  26.466  15.964   5.001 -0.3432  0.0902 -0.0702
92748W        W93612   2.570  17.916   3.803 -0.2880  0.0202 -0.0210
92749W        W93613  27.384  16.314   5.182  0.0804  0.0996  0.2300
92750W        W93614   0.222  15.610   1.834  0.0757 -0.0002  0.2511
92751W        W93615  26.741  18.312   7.051 -0.1094  0.0093 -0.2419
92752W        W93616  26.177  15.679   5.455 -0.2347 -0.0583  0.0442
92753W        W93617  24.171  14.419   5.002 -0.0925  0.0719  0.1400
92754W        W93618  26.736  15.622   2.252 -0.2698  0.2148 -0.2694
92755W        W93619  28.323  17.512   5.006 -0.0470  0.1916 -0.1189
92756W        W93620  27.999  16.775   6.155  0.0607 -0.0835 -0.2696
92757W        W93621  27.269  13.979   3.965 -0.2048 -0.1266 -0.0957
92758W        W93622  26.334  16.628   7.983 -0.2219 -0.1329  0.2098
92759W        W93623  28.392  16.402   3.612  0.1624  0.2263  0.0295
92760W        W93624  26.999  15.673   5.755  0.0808 -0.1244  0.1823
92761W        W93625   0.065  14.330   7.275  0.0337 -0.0356  0.1677
92762W        W93626   1.343  16.318   3.825 -0.0719 -0.1701 -0.0806
92763W        W93627  27.581  16.844   4.939 -0.3467  0.2157  0.0058
92764W        W93628  24.669  18.573   3.931  0.2151  0.1743  0.1088
92765W        W93629  27.499  20.110   4.857 -0.5391  0.1830 -0.1874
92766W        W93630  25.685  14.741   4.806 -0.0585  0.0687 -0.1137
92767W        W93631  27.372  19.570   4.752 -0.0109 -0.1377  0.1429
92768W        W93632  28.348  14.545   7.827  0.1258 -0.1340  0.0333
92769W        W93633  27.328  12.107   7.153 -0.0976  0.0089 -0.0030
92770W        W93634  26.817  15.922   3.217 -0.3397  0.0192 -0.1722
92771W        W93635  25.551  18.230   5.015 -0.2486  0.0046 -0.0463
92772W        W93636   0.473  15.616   6.601  0.1749  0.1193 -0.3126
92773W        W93637  26.621  20.168   5.529 -0.2251  0.0380 -0.1028
92774W        W93638  28.708  16.368   3.222  0.1017 -0.0973 -0.6067
92775W        W93639   0.020  17.063   4.369  0.1682  0.1116  0.2070
92776W        W93640  26.993  14.735   7.087  0.0038 -0.0522 -0.0844
92777W        W93641  27.013  17.045   6.978 -0.1545 -0.0000  0.0213
92778W        W93642  26.478  18.064   4.185 -0.1144  0.1007  0.0225
92779W        W93643  27.633  16.307   6.260 -0.1299 -0.0135 -0.0015
92780W        W93644   0.005  14.528   6.005 -0.1463  0.1460  0.1409
92781W        W93645   0.356  16.594   1.889  0.3501 -0.0156 -0.1213
92782W        W93646  28.294  17.356   6.410  0.3359 -0.1039  0.2129
92783W        W93647   2.208  15.393   4.073  0.1432 -0.0436  0.0090
92784W        W93648  28.487  17.524   7.841 -0.1731  0.0049 -0.2043
92785W        W93649  28.743  17.738   3.185 -0.1054  0.3074  0.1280
92786W        W93650  28.955  17.168   4.843 -0.5481  0.0286  0.4160
92787W        W93651  27.397  15.783   5.029  0.0979 -0.0748  0.0402
92788W        W93652   1.802  16.660   7.664  0.3476 -0.1029  0.1287
92789W        W93653   1.270  16.753   4.700 -0.1962 -0.1253  0.0673
92790W        W93654  28.026  14.921   3.282 -0.2161 -0.0652  0.2375
92791W        W93655  26.228  16.230   7.692 -0.0111  0.1804 -0.3676
92792W        W93656  28.250  21.260   5.958  0.0718  0.0567  0.1242
92793W        W93657  26.474  15.759   4.462  0.1884  0.0361  0.1227
92794W        W93658   1.864  19.330   5.807 -0.1531 -0.1690 -0.3358
92795W        W93659  27.624  18.164   7.419  0.2634  0.0166  0.1548
92796W        W93660   1.795  16.183   7.556  0.3699 -0.1641 -0.0066
92797W        W93661  27.860  16.378   3.375 -0.0131 -0.3174 -0.1421
92798W        W93662  26.603  17.365   5.071 -0.0682  0.0818 -0.0953
92799W        W93663  24.283  21.166   7.637 -0.1895 -0.6862  0.2433
92800W        W93664  28.578  16.979   5.642  0.1789  0.0791 -0.0816
92801W        W93665   0.791  17.083   6.053 -0.0972  0.4404 -0.1306
92802W        W93666  25.587  17.352   3.526 -0.1040  0.1433 -0.3112
92803W        W93667  28.209  16.430   8.074  0.1926 -0.0895  0.2088
92804W        W93668   1.327  16.744   7.569  0.0086 -0.1473 -0.3101
92805W        W93669  24.322  18.767   6.446  0.6087  0.1190 -0.2837
92806W        W93670  28.430  15.350   7.441  0.0431 -0.2072  0.1699
92807W        W93671  27.812  17.085   2.518 -0.1149 -0.2757 -0.0542
92808W        W93672  27.832  15.562   7.877 -0.0193  0.0428  0.1573
92809W        W93673  27.077  17.869   3.894 -0.0404  0.0624  0.0660
92810W        W93674  26.948  13.277   2.920  0.0535  0.2548 -0.0636
92811W        W93675  26.821  16.626   8.806  0.1569  0.1367 -0.2772
92812W        W93676  27.098  15.983  10.614  0.1266  0.0086  0.2957
92813W        W93677   0.436  18.333   8.204 -0.0159 -0.2547 -0.3163
92814W        W93678   0.693  19.173   9.599 -0.3201  0.2565  0.0874
92815W        W93679  28.631  18.578   8.600 -0.2113 -0.2285 -0.3063
92816W        W93680  28.108  15.084  11.343 -0.1862  0.3220  0.2671
92817W        W93681  23.091  16.146   6.137  0.3019  0.0153  0.0129
92818W        W93682  24.970  16.857  10.321 -0.2151 -0.2317 -0.0850
92819W        W93683  26.987  18.487   9.151  0.4355  0.1254 -0.1849
92820W        W93684  27.657  15.992  11.672 -0.2089 -0.0963  0.1604
92821W        W93685  22.882  16.248  12.882 -0.3053  0.0297 -0.0021
92822W        W93686   2.067  14.261  11.179  0.0364  0.0047  0.0646
92823W        W93687  26.628  14.562  10.744 -0.0191 -0.0546  0.0820
92824W        W93688  28.759  15.097  12.723 -0.2510 -0.0548  0.2725
92825W        W93689  24.457  18.876  10.310  0.0493  0.2873  0.1747
92826W        W93690  26.133  16.709  10.712  0.1935  0.2019  0.0588
92827W        W93691  26.641  17.551   7.817 -0.0262 -0.0623  0.3126
92828W        W93692  25.809  17.558   9.079  0.0539  0.2376  0.1655
92829W        W93693  27.659  17.259   8.292 -0.2591  0.1535 -0.1984
92830W        W93694   2.312  16.635   8.979  0.0392 -0.3203 -0.0629
92831W        W93695   0.099  17.135   8.994 -0.1298  0.0778 -0.0764
92832W        W93696  26.929  15.433  10.333 -0.0636  0.0117  0.0205
92833W        W93697  28.324  17.087  10.056  0.2718  0.0749  0.0101
92834W        W93698  25.437  17.839   7.631 -0.2168  0.0956  0.2079
92835W        W93699  26.694  16.365   6.473  0.1521 -0.0177 -0.1875
92836W        W93700  26.673  17.238  10.050 -0.1845  0.1347 -0.3527
92837W        W93701  28.837  18.573  11.222 -0.0373  0.1694  0.3842
92838W        W93702  29.078  15.685   7.270 -0.2999 -0.0362  0.2525
92839W        W93703   0.731  18.059   9.917 -0.2269  0.0262  0.0123
92840W        W93704  27.846  13.763  10.111  0.1032 -0.0555  0.0083
92841W        W93705  27.344  13.537  10.077  0.0030 -0.0221 -0.2773
92842W        W93706   0.267  16.114  10.036  0.0121  0.1754  0.4448
92843W        W93707   1.610  16.621  10.383  0.1359 -0.0458  0.1312
92844W        W93708  27.274  15.696   9.617 -0.2517  0.2120 -0.1915
92845W        W93709  26.681  17.996  10.560 -0.0787  0.0098 -0.2305
92846W        W93710  27.520  15.008  11.026 -0.1059 -0.0036  0.0022
92847W        W93711  26.350  15.266   7.698 -0.1420  0.0556 -0.2903
92848W        W93712  28.565  17.313   8.518 -0.1101 -0.1099  0.1113
92849W        W93713  28.781  15.441  10.719 -0.1424  0.0655  0.0643
92850W        W93714   2.557  13.889  10.450 -0.0021 -0.0570  0.1325
92851W        W93715  28.653  15.070   9.060 -0.1273 -0.2764  0.0725
92852W        W93716  29.053  15.299   8.941 -0.1874  0.1688 -0.0978
92853W        W93717  27.419  17.839  12.660 -0.0488 -0.1018 -0.2169
92854W        W93718  27.075  14.724   7.766 -0.0033 -0.2414 -0.1569
92855W        W93719  23.462  17.015   6.444 -0.0156 -0.0203 -0.0013
92856W        W93720  27.775  21.772   8.520 -0.2590  0.2153 -0.0789
92857W        W93721  26.934  15.269   7.595 -0.1391  0.0661  0.3725
92858W        W93722   1.380  15.232  11.808 -0.2483  0.1319 -0.4170
92859W        W93723   1.020  16.994   7.918  0.0037  0.0903  0.0220
92860W        W93724  27.379  15.488  12.235 -0.1136 -0.0979 -0.1541
92861W        W93725   0.498  16.960  10.694 -0.0008  0.1569 -0.2226
92862W        W93726  27.305  15.038  11.863 -0.0280 -0.2071 -0.1586
92863W        W93727  28.457  18.774  10.319  0.2415  0.0607 -0.2127
92864W        W93728   0.307  15.682   8.398 -0.4593 -0.2950 -0.2510
92865W        W93729  26.798  13.795  10.237  0.2558  0.0236 -0.2094
92866W        W93730  25.209  18.341   8.097 -0.1564 -0.1677 -0.2394
92867W        W93731  26.642  13.796   7.462  0.1876  0.0474 -0.2521
92868W        W93732  28.873  17.081   9.934 -0.2126  0.0391 -0.3635
92869W        W93733  25.239  17.435   7.891 -0.1079  0.2077 -0.5830
92870W        W93734  28.127  17.784   7.148 -0.0948  0.2723 -0.1162
92871W        W93735   0.593  15.416   9.761  0.0507  0.2126 -0.1141
92872W        W93736  22.155  18.530   7.401 -0.0047 -0.2054  0.0339
92873W        W93737   0.192  19.670  10.134 -0.1306  0.0346  0.1019
92874W        W93738  27.516  18.933  10.394  0.2760 -0.0314 -0.1215
92875W        W93739  25.443  17.204  10.774  0.0662 -0.1007  0.1932
92876W        W93740   0.166  16.424   8.248 -0.3462 -0.0103 -0.0987
92877W        W93741  28.821  16.064   6.932 -0.0976  0.0574 -0.2564
92878W        W93742  27.743  15.930   9.640 -0.1436  0.0621 -0.1711
92879W        W93743  26.418  17.145   8.677  0.1546 -0.0334 -0.1744
92880W        W93744  28.144  15.218  10.579  0.1267 -0.0408  0.1105
92881W        W93745  28.443  16.612   9.333  0.0997 -0.0051  0.0548
92882W        W93746  29.143  15.450   9.536  0.1223 -0.1783  0.0870
92883W        W93747  27.948  16.629   9.111 -0.1423  0.2140  0.1296
92884W        W93748  28.928  16.291  12.438  0.1164 -0.0018 -0.0248
92885W        W93749   1.171  19.538   9.444  0.1113 -0.2074  0.0419
92886W        W93750  28.042  17.559  10.073  0.1290 -0.0615  0.5630
92887W        W93751  24.015  17.114   9.043 -0.1824 -0.0397 -0.1410
92888W        W93752  28.039  14.840  10.911  0.1456 -0.1165  0.0732
92889W        W93753   0.041  16.762  12.217  0.2737 -0.0662 -0.1153
92890W        W93754  28.840  16.290   8.454  0.3279 -0.2700  0.0274
92891W        W93755  27.409  16.208  10.285 -0.0230  0.0183 -0.0610
92892W        W93756  25.925  14.875  11.602 -0.2116 -0.4878  0.2203
92893W        W93757  25.189  14.746   7.714 -0.0152  0.0382  0.0470
92894W        W93758  28.908  12.907   8.937 -0.2927  0.1663 -0.2740
92895W        W93759  27.128  13.587   8.728  0.2222 -0.0047 -0.0223
92896W        W93760  28.792  15.018   7.664 -0.1244  0.0895  0.0482
92897W        W93761  28.032  17.576  11.330  0.1152 -0.0142 -0.1054
92898W        W93762  28.806  14.457  10.480  0.1460  0.1059 -0.1330
92899W        W93763   2.205  18.735  11.806  0.0340 -0.1608 -0.1036
92900W        W93764  27.555  14.149  10.696  0.1128  0.0565  0.0504
92901W        W93765   0.096  14.718   7.575 -0.1311 -0.1807 -0.0770
92902W        W93766  25.599  15.624  12.624 -0.3405 -0.1745  0.1923
92903W        W93767  25.928  16.936   6.729  0.1562 -0.0396 -0.0977
92904W        W93768   1.239  15.504   7.261  0.0357  0.2045  0.2172
92905W        W93769  26.015  15.894  11.854 -0.2461  0.1281  0.2089
92906W        W93770   2.305  16.626  11.792 -0.1224  0.1363 -0.2577
92907W        W93771   0.526  14.849  12.083  0.2426 -0.1852 -0.0004
92908W        W93772  27.529  17.300  11.327 -0.0193  0.0115  0.0499
92909W        W93773   0.943  13.443   7.322  0.2592 -0.0325 -0.1122
92910W        W93774   1.939  15.208   8.722  0.0691 -0.1391  0.2143
92911W        W93775   2.767  18.475   6.902 -0.0599 -0.1461 -0.0283
92912W        W93776  28.274  15.460   6.970 -0.0264  0.2370 -0.0440
92913W        W93777   1.300  15.956  11.023  0.1151  0.0484 -0.1051
92914W        W93778   1.056  16.259   8.645 -0.1448 -0.1559 -0.3302
92915W        W93779   0.018  16.609  11.657  0.2566 -0.0587  0.0975
92916W        W93780  22.726  18.474   8.761 -0.2025  0.2253 -0.0984
92917W        W93781  28.042  14.507   9.854  0.0050 -0.0910  0.0592
92918W        W93782  28.086  15.811  13.066 -0.0114 -0.0289 -0.0224
92919W        W93783  27.828  15.394   8.780 -0.3102  0.1092 -0.1239
92920W        W93784  27.630  18.812   8.067 -0.0964  0.0189 -0.1335
92921W        W93785  26.930  19.141   9.413  0.1161 -0.0308 -0.1072
92922W        W93786   0.203  16.948   8.111  0.0560  0.1314 -0.0657
92923W        W93787   2.784  15.322  11.510  0.1638 -0.1675 -0.0194
92924W        W93788   0.194  20.793  10.834 -0.1483 -0.0653  0.0958
92925W        W93789  28.894  17.162   7.396  0.1264 -0.1094  0.1265
92926W        W93790  25.547  17.981   8.142 -0.2091 -0.2314  0.1440
92927W        W93791   0.484  15.494  11.726 -0.1264  0.0446  0.0284
92928W        W93792  28.100  16.246  10.452  0.0953  0.0762 -0.0439
92929W        W93793  27.305  16.049  11.998 -0.3568 -0.2908 -0.0659
92930W        W93794  28.616  14.410   5.924  0.0796 -0.0257  0.2671
92931W        W93795   1.107  17.400   7.144  0.1608  0.1612 -0.1637
92932W        W93796  28.566  15.318  10.215 -0.0192  0.0081  0.3707
92933W        W93797   0.935  16.398   9.089 -0.2367 -0.0475  0.1543
92934W        W93798  25.605  15.945   8.520  0.0171 -0.1440  0.1890
92935W        W93799  26.204  17.085   9.126  0.0976  0.1731  0.0574
92936W        W93800   1.258  14.789   9.663 -0.0206  0.0145 -0.2265
92937W        W93801  27.605  15.686   8.279  0.3215  0.1650  0.1145
92938W        W93802   0.681  15.994  12.507 -0.0363  0.4212 -0.0693
92939W        W93803  27.031  18.923  10.734 -0.0273  0.0109 -0.1660
92940W        W93804   0.183  16.217   9.278 -0.0044 -0.1048  0.1760
92941W        W93805  27.308  21.314  10.299  0.4658  0.4194 -0.2355
92942W        W93806  26.618  14.629   9.771 -0.1101  0.0509  0.0460
92943W        W93807  27.299  16.434   8.101  0.0173 -0.1727  0.1621
92944W        W93808   2.049  15.575   8.243 -0.2134  0.0937 -0.4608
92945W        W93809  28.605  17.455  13.196  0.1259 -0.2000 -0.0471
92946W        W93810  24.399  17.273  10.723 -0.1441 -0.0408  0.1917
92947W        W93811   0.812  14.090   9.640  0.0659 -0.0797 -0.3966
92948W        W93812   0.222  15.726   9.130  0.2000 -0.5917 -0.0722
92949W        W93813   1.107  15.817   9.138 -0.1755 -0.1947  0.3164
92950W        W93814  26.644  15.780   9.988 -0.0264 -0.0347  0.2422
92951W        W93815  27.077  13.827   6.343 -0.1800 -0.0044  0.0430
92952W        W93816  28.633  14.540   9.298  0.2762 -0.0106 -0.1008
92953W        W93817  26.667  15.764   7.596 -0.1484  0.0047  0.0141
92954W        W93818  28.216  16.201   8.940  0.0667 -0.1807 -0.1917
92955W        W93819  27.981  15.751  10.633 -0.1651 -0.2125  0.0121
92956W        W93820   0.985  16.029  10.087  0.1328 -0.0380  0.0344
92957W        W93821  28.729  13.483   7.118  0.1159  0.2864  0.0641
92958W        W93822  28.610  17.554   9.893  0.0258 -0.0554 -0.0858
92959W        W93823  26.170  20.577   7.232  0.1300  0.4688  0.3502
92960W        W93824  27.900  17.565   6.661 -0.1143  0.0336  0.1138
92961W        W93825   1.885  19.611  11.424  0.1401 -0.0130  0.0933
92962W        W93826  27.996  14.862   8.468  0.0880 -0.1052  0.1606
92963W        W93827  27.762  18.540   7.655 -0.2400 -0.1741 -0.0628
92964W        W93828  27.197  14.744   8.711  0.0030  0.2376 -0.0796
92965W        W93829  27.516  13.215  11.971 -0.2136  0.1601 -0.0168
92966W        W93830  28.092  14.591  12.251  0.0476  0.0579 -0.0777
92967W        W93831  28.555  16.471   6.836  0.2233 -0.1045  0.0824
92968W        W93832  25.889  17.229   8.713 -0.0618 -0.1073  0.0352
92969W        W93833  26.567  14.037   7.934 -0.0788 -0.1029  0.2169
92970W        W93834  26.451  15.753   8.449  0.0932  0.0115  0.0085
92971W        W93835  28.224  15.465  11.658  0.0300  0.1428  0.0323
92972W        W93836  24.785  18.503   7.713 -0.1841 -0.1209 -0.0549
92973W        W93837  26.688  15.021  10.622 -0.0985  0.1333  0.0600
92974W        W93838  26.164  15.661  10.187  0.1937  0.0163 -0.1788
92975W        W93839  27.611  16.333   9.333 -0.1457 -0.0560 -0.0763
92976W        W93840   0.474  15.266   5.439  0.0570 -0.0991  0.2142
92977W        W93841   0.918  15.964   6.574 -0.2124 -0.1252  0.1428
92978W        W93842  24.853  18.752   8.197 -0.0545 -0.0320  0.0711
92979W        W93843  28.990  17.560   9.238  0.2270 -0.0378  0.0558
92980W        W93844  26.244  17.155   7.696 -0.0866 -0.1866  0.1588
92981W        W93845   0.080  14.830  10.391  0.2812  0.1560  0.0301
92982W        W93846   0.362  16.942   8.548  0.0361  0.2786  0.1896
92983W        W93847  27.786  15.842  10.163 -0.1931 -0.0657 -0.3130
92984W        W93848  27.523  17.625  10.049  0.1162 -0.0734  0.3176
92985W        W93849   0.446  15.365  10.702 -0.0226 -0.0207 -0.0051
92986W        W93850   1.456  15.961   7.025 -0.3453  0.2570  0.3468
92987W        W93851  26.056  18.779  11.072  0.2031  0.0287  0.1457
92988W        W93852  27.774  17.573  10.507  0.2709  0.0496  0.1124
92989W        W93853  26.045  16.220   8.140 -0.1033 -0.0434 -0.0919
92990W        W93854  28.502  14.643  10.904 -0.0698  0.0489 -0.0543
92991W        W93855  24.766  17.576   7.953 -0.0151 -0.1522 -0.0427
92992W        W93856   2.649  16.912   8.122 -0.0766 -0.0197 -0.2099
92993W        W93857  28.328  16.215   9.988  0.1285 -0.2396  0.1161
92994W        W93858  28.986  14.981   6.754 -0.0245  0.2345  0.0401
92995W        W93859   0.272  14.383  10.462  0.0620 -0.0550 -0.2896
92996W        W93860  29.030  16.063   9.762 -0.2326 -0.0724  0.1189
92997W        W93861  28.995  13.694   6.759  0.2397  0.2387  0.1258
92998W        W93862  28.443  14.741  11.760 -0.1360  0.0771 -0.6231
92999W        W93863  27.945  17.410   9.106 -0.0269 -0.1921 -0.1353
93000W        W93864  27.975  19.811   8.595 -0.0500  0.0896 -0.2053
93001W        W93865  24.416  18.750   7.454 -0.2754  0.1623 -0.2317
93002W        W93866  26.270  21.154   8.812  0.2652 -0.0509  0.0757
93003W        W93867  26.878  13.405   9.915 -0.0035  0.0271 -0.1614
93004W        W93868  27.216  14.636  10.423  0.0401 -0.1895  0.1936
93005W        W93869  27.535  14.519  12.173 -0.0506  0.0120 -0.0201
93006W        W93870  26.888  17.752   8.808  0.0140  0.0585 -0.0506
93007W        W93871   0.836  14.856   8.956 -0.2917  0.2035 -0.1568
93008W        W93872  27.208  14.256   8.550  0.2295  0.0781  0.2465
93009W        W93873  26.859  14.964   6.660  0.2155  0.0862  0.0776
93010W        W93874   0.315  14.881   8.810 -0.1302 -0.2057 -0.0550
93011W        W93875  26.714  16.153   6.904  0.2239 -0.4913  0.1562
93012W        W93876  27.202  14.056  10.289  0.0827  0.2012  0.3445
93013W        W93877   1.724  15.829   7.933  0.1555 -0.2088  0.0440
93014W        W93878  28.882  15.743  10.306 -0.1014 -0.0877 -0.1246
93015W        W93879  28.076  13.436   8.334  0.2911  0.0177 -0.0103
93016W        W93880  28.611  14.316   8.751  0.3144 -0.2219  0.0609
93017W        W93881  27.968  18.782  10.488 -0.0400 -0.0693 -0.0791
93018W        W93882  28.034  17.753   7.661 -0.1758  0.0017  0.0115
93019W        W93883  27.370  16.927   8.057  0.1383 -0.1826  0.0779
93020W        W93884  25.908  17.125   5.504 -0.1510 -0.0383 -0.0315
93021W        W93885  26.683  17.748  11.862 -0.1205 -0.1480 -0.0456
93022W        W93886   0.184  14.058  11.152  0.2911  0.2964 -0.5118
93023W        W93887  28.268  14.022  10.129  0.0687 -0.2339 -0.1039
93024W        W93888  26.092  13.011  13.502 -0.2478 -0.1867  0.0748
93025W        W93889   2.280  14.476   9.922  0.0697 -0.0279  0.0873
93026W        W93890   1.363  17.752   6.281  0.1036  0.0056  0.1690
93027W        W93891   1.562  14.561   8.594  0.1460  0.3023 -0.0841
93028W        W93892   0.792  17.423   7.641 -0.0784  0.3161 -0.0444
93029W        W93893  27.513  12.992  10.325  0.1349  0.0331  0.0147
93030W        W93894  26.126  19.595  11.414 -0.2495 -0.1441 -0.0826
93031W        W93895   1.928  15.670  10.517 -0.2670  0.1004 -0.0426
93032W        W93896   1.690  14.542  11.665 -0.0518 -0.1174 -0.0010
93033W        W93897  24.785  18.519  11.313  0.3378 -0.1134 -0.0921
93034W        W93898  28.081  15.560   6.048  0.0075 -0.0885  0.0437
93035W        W93899   0.034  13.080  10.365 -0.0189  0.2393 -0.4236
93036W        W93900  26.838  17.300  12.750  0.0562 -0.0904  0.2266
93037W        W93901   0.443  15.266  10.234 -0.0527  0.0301  0.0663
93038W        W93902   1.813  16.219   6.061  0.1529  0.0358 -0.0436
93039W        W93903   1.177  14.715  10.428  0.0048  0.0883  0.4693
93040W        W93904  27.485  13.089  11.212 -0.0286 -0.0493  0.1272
93041W        W93905   0.410  15.340   7.997 -0.1830 -0.0292  0.1443
93042W        W93906  25.565  17.334   8.258  0.2250 -0.1633  0.1972
93043W        W93907   1.959  16.977   6.362  0.2390 -0.1339 -0.1367
93044W        W93908  25.532  14.016   9.519  0.0427 -0.0258 -0.0770
93045W        W93909   2.001  16.912  10.175  0.1590  0.1410  0.3294
93046W        W93910   0.031  17.701   8.550 -0.0873  0.0638  0.0327
93047W        W93911  28.377  13.040  10.098 -0.2597 -0.3180 -0.3617
93048W        W93912  27.393  17.009  11.754  0.0311 -0.0591  0.1242
93049W        W93913  28.177  20.580   9.945  0.0326  0.1594 -0.1573
93050W        W93914   2.244  16.065   6.130  0.1716 -0.0337 -0.0440
93051W        W93915  22.933  19.530  10.534 -0.1688  0.1005  0.4314
93052W        W93916  28.579  16.597   9.769 -0.1623  0.2292 -0.0036
93053W        W93917  27.321  13.910   9.296  0.0104 -0.0255  0.3589
93054W        W93918  26.374  15.660   9.572 -0.2273  0.0807 -0.1758
93055W        W93919  26.970  20.622   9.674 -0.0842  0.0897  0.0752
93056W        W93920  28.317  15.815  10.285 -0.1693  0.2110  0.2908
93057W        W93921  25.843  18.137   7.586  0.0850  0.2136 -0.1053
93058W        W93922  28.863  17.167   7.946  0.1652  0.2040 -0.3068
93059W        W93923   1.055  16.370   5.527  0.3443 -0.0477  0.2677
93060W        W93924  26.730  17.281   7.421 -0.0813 -0.0501 -0.0888
93061W        W93925  24.705  18.838  10.802  0.2303 -0.0131 -0.1454
93062W        W93926   0.714  15.990   9.357 -0.4060 -0.2485  0.0536
93063W        W93927   0.522  16.558   9.355 -0.2609 -0.2183 -0.1915
93064W        W93928  27.051  16.014   8.946  0.2019  0.0569  0.2790
93065W        W93929  29.132  19.352   9.834 -0.0551 -0.3430 -0.1536
93066W        W93930   0.922  16.482   6.778 -0.2881  0.2294 -0.3412
93067W        W93931  27.012  14.668   5.974  0.2511  0.0887 -0.2189
93068W        W93932   0.852  17.565  10.235 -0.1483 -0.1755  0.0227
93069W        W93933  27.725  13.283   9.856  0.0687 -0.0526  0.1673
93070W        W93934  26.875  12.899   9.685 -0.1759  0.1614 -0.0778
93071W        W93935  25.950  17.034   8.090 -0.1423 -0.0146  0.2617
93072W        W93936   1.842  16.486   9.869 -0.1852  0.4600 -0.3198
93073W        W93937  29.084  16.084   7.617 -0.0664 -0.0860 -0.1756
93074W        W93938  26.317  19.505   9.852 -0.0454 -0.1203  0.0501
93075W        W93939  25.773  17.415  11.543 -0.3790 -0.1359 -0.0964
93076W        W93940  28.123  18.691   8.011  0.1180 -0.1734 -0.0442
93077W        W93941  28.524  18.754   9.761  0.3048  0.0659  0.1600
93078W        W93942  27.953  13.815   7.345  0.0943 -0.0912  0.0991
93079W        W93943   0.955  13.752   8.251 -0.0362  0.0918 -0.1697
93080W        W93944  27.449  13.436   9.126  0.0540 -0.2287  0.0299
93081W        W93945  28.787  14.945  10.536 -0.1865 -0.3145  0.0784
93082W        W93946  26.990  15.766  12.202 -0.0165 -0.0279  0.1054
93083W        W93947   1.882  15.090   8.172 -0.0116 -0.1183 -0.2114
93084W        W93948   0.310  17.876  10.065  0.1851 -0.0172 -0.1591
93085W        W93949  27.225  13.173  14.048 -0.3070  0.0291  0.0990
93086W        W93950  28.022  14.328  10.824  0.2993 -0.0858  0.0589
93087W        W93951  26.871  15.115   9.129  0.1551  0.1308 -0.2513
93088W        W93952  23.856  17.829   8.431  0.1728  0.0143 -0.2270
93089W        W93953  27.138  15.837  10.075  0.0298  0.0106 -0.0525
93090W        W93954  26.556  16.100   8.121  0.2638  0.0423  0.0082
93091W        W93955  29.081  14.058   5.830 -0.2756  0.0302  0.2551
93092W        W93956   0.943  15.240   8.000 -0.0477 -0.0508 -0.2799
93093W        W93957  24.868  17.579  11.890  0.0289  0.3028 -0.1069
93094W        W93958   0.847  15.746   8.369 -0.1188 -0.2419  0.2339
93095W        W93959  28.119  16.680  12.945 -0.1724  0.1044 -0.0411
93096W        W93960  28.446  14.112  11.062 -0.0828  0.1648  0.4488
93097W        W93961  25.499  15.006  10.475 -0.0656 -0.0474 -0.1075
93098W        W93962  28.251  14.709   6.501 -0.2924  0.0378  0.0773
93099W        W93963   2.484  19.145   7.506  0.0944  0.0976  0.4042
93100W        W93964  27.731  15.383   7.045 -0.2125  0.1272 -0.1679
93101W        W93965   0.852  16.553   7.662 -0.2875 -0.0913  0.1297
93102W        W93966   1.081  14.831   8.540 -0.0037  0.0251  0.0457
93103W        W93967   0.584  15.755  10.096 -0.0603 -0.0854  0.0439
93104W        W93968   1.769  17.777   8.955 -0.0426 -0.0916  0.1976
93105W        W93969   0.103  15.007  10.932  0.4295 -0.0401  0.5334
93106W        W93970   0.295  14.569   9.194 -0.4030 -0.0501  0.1579
93107W        W93971  27.328  17.317  12.661 -0.1501  0.2851 -0.0358
93108W        W93972   0.884  16.742   8.652  0.1621  0.4505 -0.1308
93109W        W93973  24.285  17.412   7.768  0.1393  0.0771  0.2810
93110W        W93974  25.777  16.313   8.765 -0.3288  0.0252  0.3727
93111W        W93975  25.873  13.009  12.228  0.0847  0.1951 -0.2322
93112W        W93976  28.862  14.812  12.150  0.0432  0.1821 -0.1652
93113W        W93977   3.145  18.554   6.496 -0.1347 -0.0751  0.1180
93114W        W93978   1.530  15.502   6.887 -0.1567  0.0928  0.2069
93115W        W93979  28.799  19.300   7.456 -0.0965  0.1304 -0.1463
93116W        W93980  28.894  14.091  10.827  0.2000 -0.3705 -0.0544
93117W        W93981  28.513  15.250   6.566  0.2187  0.0026  0.0997
93118W        W93982   0.034  15.257  10.535 -0.1466  0.1767 -0.1303
93119W        W93983  26.902  17.161   7.897  0.0603  0.0606  0.2344
93120W        W93984  27.951  15.132   7.420  0.0247  0.0147 -0.0998
93121W        W93985  27.506  15.750   9.144 -0.0900 -0.1192  0.1375
93122W        W93986  28.223  14.586  10.412 -0.4149 -0.2391  0.1913
93123W        W93987   0.238  15.558  13.112  0.2172  0.0840 -0.2183
93124W        W93988  26.680  16.894   6.607  0.2188  0.4165  0.0857
93125W        W93989  27.895  18.068   8.854 -0.0345 -0.0372  0.0525
93126W        W93990  27.609  16.685   8.437  0.1131  0.3239 -0.2154
93127W        W93991   0.359  15.890   9.651 -0.2288 -0.1229  0.2422
93128W        W93992  27.812  20.283   9.245  0.0079 -0.1463 -0.1129
93129W        W93993  27.989  16.983   8.553  0.2157  0.0107 -0.2025
93130W        W93994  26.906  19.293   8.507 -0.0770  0.0733 -0.1221
93131W        W93995   1.652  14.785  10.593 -0.1696 -0.0051  0.1599
93132W        W93996  26.762  19.012  10.331  0.2075  0.0532  0.2250
93133W        W93997  28.732  18.106   8.489 -0.1186 -0.1334  0.0650
93134W        W93998  23.630  17.937   8.012  0.0207  0.1974 -0.3544
93135W        W93999  26.853  17.873   9.303  0.1649 -0.2241 -0.0904
93136W        W94000  28.323  15.606   7.843 -0.1115  0.1660 -0.2458
93137W        W94001  28.224  18.247   7.823  0.0984  0.0239 -0.0885
93138W        W94002  27.631  17.005   9.312  0.0315 -0.0482  0.3103
93139W        W94003  25.425  17.520   8.748  0.1040 -0.1614 -0.0697
93140W        W94004   1.367  16.036  11.563  0.0258 -0.0232 -0.0855
93141W        W94005  28.907  12.568   7.141  0.1506  0.2956 -0.0940
93142W        W94006   0.887  15.948  12.024  0.0354 -0.2831  0.0985
93143W        W94007  29.009  16.780   8.406  0.1018  0.0972 -0.0875
93144W        W94008  28.985  14.782  11.635  0.0985 -0.2173  0.0850
93145W        W94009  26.249  17.678  11.632 -0.2725 -0.0380  0.0304
93146W        W94010  25.798  19.780  10.316  0.0846  0.1294  0.2518
93147W        W94011  27.119  15.125  11.326  0.0497 -0.1055  0.0573
93148W        W94012  28.387  13.642  11.393  0.1778  0.1296 -0.0270
93149W        W94013   0.541  14.735  10.102 -0.0790  0.2354  0.1748
93150W        W94014  27.802  21.562   9.535 -0.0921 -0.0349 -0.0976
93151W        W94015  26.737  17.476   8.409 -0.0824  0.2502 -0.0479
93152W        W94016   0.831  15.658   7.683  0.0998  0.2626  0.0418
93153W        W94017  25.365  17.403   7.423 -0.0600 -0.1100  0.0267
93154W        W94018  28.309  17.048   9.035 -0.2857 -0.1033  0.0318
93155W        W94019  27.650  14.961   7.996 -0.0519  0.0266  0.2274
93156W        W94020  26.012  15.713   8.740  0.0534  0.3689  0.0435
93157W        W94021  28.500  16.277   7.594  0.1655 -0.2442  0.0237
93158W        W94022  25.252  15.909   7.910  0.3562 -0.4160  0.0976
93159W        W94023  28.230  18.381   8.449  0.2411  0.1997 -0.1916
93160W        W94024  28.446  14.164  10.593 -0.0826 -0.2528  0.0553
93161W        W94025  28.811  15.792   8.716  0.0552 -0.1379 -0.0443
93162W        W94026  27.810  16.889  11.561 -0.2277  0.1265  0.0582
93163W        W94027  26.696  19.010   8.043  0.2739  0.1031  0.3979
93164W        W94028  29.083  18.135   9.330  0.2052  0.1490  0.0293
93165W        W94029  28.864  15.598   6.693  0.3833 -0.1898  0.2111
93166W        W94030  27.248  17.531   7.990  0.0227  0.2642  0.3167
93167W        W94031  28.185  15.559  12.179 -0.0892 -0.3209 -0.0888
93168W        W94032  24.832  14.975  11.785 -0.0979 -0.0937 -0.0790
93169W        W94033  27.230  16.202   7.256  0.0876  0.0152 -0.2479
93170W        W94034   1.055  16.375   7.255  0.2203  0.4377  0.3165
93171W        W94035  28.840  13.309  10.742  0.0534  0.0738  0.0420
93172W        W94036  28.128  16.669   7.551 -0.1749  0.1964  0.1239
93173W        W94037  28.697  15.217  11.648  0.1626  0.1036 -0.1860
93174W        W94038  28.588  19.068   8.770  0.0016 -0.0947  0.2809
93175W        W94039  27.062  18.125   8.536 -0.0003 -0.0799 -0.1580
93176W        W94040   0.133  17.607   6.607  0.1989  0.0594 -0.2158
93177W        W94041   0.525  14.762  12.571  0.2463  0.4219 -0.1467
93178W        W94042  26.962  14.740   9.475 -0.0494 -0.0335  0.0865
93179W        W94043  28.588  16.694  10.353  0.1374 -0.1299  0.0310
93180W        W94044  26.576  17.039   6.117 -0.0517 -0.1324 -0.1444
93181W        W94045  29.049  18.581   9.566  0.0163  0.1032 -0.0066
93182W        W94046  28.111  16.667  10.236 -0.0142  0.2840  0.1482
93183W        W94047   2.154  16.749  11.116  0.0346 -0.1800 -0.0372
93184W        W94048   0.521  14.482   9.603 -0.0697 -0.0736 -0.0622
93185W        W94049  28.185  17.267   9.569  0.2260  0.1652 -0.1371
93186W        W94050  26.912  17.933   7.975 -0.2636  0.1508  0.0133
93187W        W94051   0.245  17.472  12.664  0.3199  0.2473  0.0101
93188W        W94052  28.834  15.057  11.163  0.1957  0.0670  0.0367
93189W        W94053  26.152  18.554  10.620 -0.1394  0.1277  0.0010
93190W        W94054  27.589  15.297  11.417  0.3975  0.0011  0.1487
93191W        W94055  24.376  16.509   8.668 -0.0015  0.1438  0.2185
93192W        W94056  27.162  17.597   7.168 -0.3068  0.0302  0.1858
93193W        W94057   1.192  18.720  11.225  0.0533 -0.0403 -0.1385
93194W        W94058  28.561  18.353   9.454 -0.2068  0.0432 -0.4391
93195W        W94059   0.924  14.836  11.789  0.2943 -0.2328  0.2373
93196W        W94060   0.990  18.833  10.385 -0.3017  0.0702  0.0443
93197W        W94061  26.508  18.880  10.767  0.2256 -0.2043  0.2427
93198W        W94062  24.930  18.991  11.999 -0.0094 -0.3732 -0.3191
93199W        W94063  28.927  14.134  11.827 -0.3893  0.0705 -0.1385
93200W        W94064  26.942  15.597   9.249 -0.2730 -0.0524  0.1348
93201W        W94065  27.040  16.718   5.316  0.1365 -0.0096 -0.2119
93202W        W94066  28.358  13.810   8.553 -0.0220  0.2651  0.1137
93203W        W94067   0.263  18.872   9.829 -0.0071 -0.1139  0.0951
93204W        W94068  25.491  20.052   9.590 -0.0770  0.2326  0.0783
93205W        W94069  28.319  15.433  12.741  0.0662 -0.0830  0.1715
93206W        W94070  25.788  16.766   8.996  0.0772  0.1350 -0.0822
93207W        W94071  27.554  17.285   6.361  0.1285 -0.1712  0.0332
93208W        W94072  26.189  19.138   7.897  0.1568  0.0477  0.1314
93209W        W94073   0.013  15.657   6.292  0.1974 -0.1645 -0.1988
93210W        W94074  26.842  19.922  14.965 -0.3142 -0.2750 -0.1321
93211W        W94075  26.140  17.225  13.032 -0.3361  0.0109  0.1520
93212W        W94076  26.158  17.356  10.047 -0.0255  0.0141 -0.0386
93213W        W94077  27.408  18.261  13.746 -0.1280 -0.4811  0.3457
93214W        W94078  26.060  18.309  11.291 -0.0888  0.2892 -0.1500
93215W        W94079  24.629  14.917  12.540  0.0934 -0.2091 -0.5902
93216W        W94080  24.557  14.925  11.409 -0.0157  0.0184  0.1114
93217W        W94081  26.060  15.165  11.180 -0.1533 -0.0608  0.2519
93218W        W94082  26.783  19.707  13.832 -0.1084 -0.1584 -0.2565
93219W        W94083  22.037  16.216  14.472 -0.1248 -0.4123 -0.0124
93220W        W94084  25.697  15.862  15.110  0.0133  0.0920 -0.3337
93221W        W94085   0.982  15.634  11.571 -0.0409  0.0400 -0.1770
93222W        W94086  29.102  14.623  13.458 -0.1394 -0.0785 -0.0207
93223W        W94087  26.343  14.001  16.398  0.1490 -0.0238 -0.1119
93224W        W94088  25.050  15.333  13.781  0.2803  0.2824  0.0110
93225W        W94089  26.335  17.540  14.088 -0.1966 -0.2215  0.2446
93226W        W94090  27.607  16.556  10.767  0.3714  0.0627  0.4734
93227W        W94091  23.452  14.819  12.889  0.3568  0.1388 -0.0414
93228W        W94092  27.677  16.218  16.280  0.1985  0.3212  0.1772
93229W        W94093   0.616  17.265  13.455 -0.1153  0.1221  0.1055
93230W        W94094  27.035  18.623  11.168 -0.0326 -0.0129 -0.0444
93231W        W94095  26.613  16.091  12.111  0.3291 -0.1206 -0.0356
93232W        W94096  25.198  16.572  10.854 -0.1249  0.0072  0.0446
93233W        W94097  24.356  16.198  13.176  0.0734 -0.3588 -0.1371
93234W        W94098  24.475  17.060  15.547  0.1345  0.3390 -0.0010
93235W        W94099  26.910  18.384  12.476  0.0635 -0.1407 -0.1031
93236W        W94100  27.685  14.601  14.628  0.0828  0.2277  0.0244
93237W        W94101  25.541  18.294  10.962 -0.0260 -0.2257 -0.0846
93238W        W94102  26.340  15.553  11.257  0.2635 -0.1330 -0.4325
93239W        W94103  27.962  16.275  12.662 -0.0340  0.0416  0.1532
93240W        W94104  27.651  15.681  13.354  0.3094 -0.2984  0.3499
93241W        W94105  28.555  17.581  13.678  0.2331  0.0929  0.2020
93242W        W94106  24.848  15.595  12.560 -0.1242  0.0033 -0.2429
93243W        W94107   0.197  16.210  12.039  0.1989  0.1971 -0.2523
93244W        W94108  22.805  18.308  17.388 -0.0163 -0.1624 -0.0153
93245W        W94109  28.950  17.206  12.975  0.0652 -0.3258  0.0909
93246W        W94110  24.545  14.436  12.487 -0.1896  0.3296 -0.2325
93247W        W94111  27.314  16.466  11.619  0.1519 -0.0606 -0.0472
93248W        W94112   0.513  16.786  13.604  0.0620 -0.1724 -0.0644
93249W        W94113  28.494  16.215  14.092 -0.3661 -0.4762 -0.1325
93250W        W94114  23.815  16.138  13.145  0.0313  0.1080  0.3526
93251W        W94115  26.905  14.735  13.968  0.0448  0.2012  0.1556
93252W        W94116  25.741  17.266  10.351  0.1417 -0.1119 -0.0122
93253W        W94117  28.866  16.588  10.783 -0.1343  0.4162 -0.2137
93254W        W94118  26.233  16.649  11.246 -0.0644  0.1414 -0.0509
93255W        W94119  28.668  17.207   9.373  0.1135  0.1064  0.1171
93256W        W94120  27.372  14.918  13.112 -0.1962  0.2832 -0.3794
93257W        W94121  28.688  13.848  12.139  0.0975  0.1068  0.1448
93258W        W94122  26.961  16.839  10.984  0.1307  0.0001  0.0184
93259W        W94123  24.275  14.735   9.536 -0.2473  0.4141  0.0956
93260W        W94124  26.536  15.353  14.984 -0.3098  0.0961  0.0756
93261W        W94125  27.924  16.947  12.067 -0.0734  0.1664  0.0363
93262W        W94126  28.844  19.662  15.635  0.1374 -0.3795  0.1218
93263W        W94127   1.872  14.987  11.862 -0.2944 -0.3043  0.0591
93264W        W94128  27.772  17.146  10.015 -0.0072 -0.0757  0.0853
93265W        W94129  27.041  14.814  10.857 -0.0805  0.3036 -0.1526
93266W        W94130  27.064  14.360  14.368 -0.0370  0.1625 -0.4057
93267W        W94131   0.805  16.483  13.411 -0.2985 -0.0088  0.1266
93268W        W94132  24.353  17.174  13.289  0.0557  0.0880 -0.0069
93269W        W94133  26.639  16.794   9.277  0.3164  0.1600 -0.1619
93270W        W94134  26.836  14.222  13.970  0.0565 -0.1537 -0.2884
93271W        W94135  26.166  14.555  13.388 -0.1100 -0.1839 -0.0053
93272W        W94136  27.450  19.041  13.801  0.0399  0.0056 -0.2320
93273W        W94137  26.555  15.527  12.397 -0.0340 -0.2509 -0.4194
93274W        W94138  25.353  14.193  12.875 -0.4187  0.2115 -0.2231
93275W        W94139  28.573  16.457  11.686  0.0913 -0.0144  0.0918
93276W        W94140  26.163  16.257  10.953  0.2325 -0.1145 -0.0854
93277W        W94141  25.018  13.682  11.261  0.3466 -0.0515  0.1555
93278W        W94142  26.420  18.606   9.978 -0.0982  0.0586 -0.0878
93279W        W94143  27.051  17.170  11.398 -0.0084 -0.1060 -0.0303
93280W        W94144  27.893  17.009  13.236  0.3770  0.1576 -0.1047
93281W        W94145  27.013  15.119  12.289 -0.0200 -0.0403  0.1618
93282W        W94146   1.119  19.249  11.319  0.3460 -0.3005  0.0358
93283W        W94147   0.601  12.205  13.237  0.0509  0.0557  0.0672
93284W        W94148  27.474  18.692  10.848  0.0145  0.4127 -0.3138
93285W        W94149  24.519  16.309  12.105  0.4264  0.0086 -0.2868
93286W        W94150  24.937  15.885   9.732 -0.0912  0.1828  0.2891
93287W        W94151  24.944  13.754  11.790 -0.1019 -0.4193 -0.4376
93288W        W94152  27.650  14.760  11.484  0.1052  0.1671 -0.2477
93289W        W94153  28.145  17.830  13.923  0.2254  0.0911 -0.0969
93290W        W94154  25.001  14.405  13.272  0.0086  0.0685 -0.2191
93291W        W94155  23.516  15.421  14.281  0.2920 -0.1028  0.0966
93292W        W94156  22.345  15.387  12.593  0.0991 -0.1151  0.2425
93293W        W94157  26.243  14.110  13.660 -0.0336  0.1620  0.0317
93294W        W94158  24.968  16.289  14.243 -0.1227  0.0044 -0.0615
93295W        W94159   0.002  13.779  12.592  0.1227  0.3150  0.2434
93296W        W94160   0.681  17.546  14.398  0.0650  0.0003  0.0163
93297W        W94161  27.179  15.588  13.171  0.4057  0.0995  0.2034
93298W        W94162   1.671  17.380  10.837 -0.1508  0.0684 -0.3663
93299W        W94163  27.779  18.462  12.620  0.1389  0.0783  0.0787
93300W        W94164   1.857  16.495  12.035 -0.0535 -0.0792  0.1272
93301W        W94165   1.109  14.237  14.078 -0.0936  0.0981 -0.1780
93302W        W94166  23.453  15.963  12.358 -0.1847  0.0896  0.4835
93303W        W94167  25.721  18.127   9.927  0.0368 -0.2855  0.0769
93304W        W94168  24.845  15.725  15.680 -0.0448  0.1049  0.3400
93305W        W94169  26.455  15.061  13.522 -0.0302 -0.3052 -0.2885
93306W        W94170  29.062  15.974  13.432  0.1109 -0.2789 -0.0490
93307W        W94171  29.098  17.502  11.791 -0.1880  0.2366 -0.0063
93308W        W94172  26.635  14.652  13.222  0.0424 -0.0170 -0.1133
93309W        W94173  27.482  13.967  12.923 -0.1127 -0.3487 -0.1845
93310W        W94174   0.755  18.991  11.123  0.4315 -0.0580  0.3347
93311W        W94175  25.389  16.160  11.262  0.1616  0.0224 -0.1302
93312W        W94176  25.465  17.981   9.043  0.1767  0.2162 -0.1161
93313W        W94177  27.803  18.770  13.530 -0.1940 -0.1819 -0.0381
93314W        W94178   1.583  13.436  13.101  0.0528 -0.0253 -0.2720
93315W        W94179  28.237  17.064  14.526  0.2089 -0.0516  0.2608
93316W        W94180  28.220  18.011  11.178 -0.0818  0.1575  0.1030
93317W        W94181  27.448  17.088  13.097  0.0342 -0.3729 -0.2759
93318W        W94182  25.195  14.835  11.367 -0.1055  0.2527  0.0787
93319W        W94183  24.565  15.441  14.479  0.0948  0.2742 -0.0387
93320W        W94184  27.103  16.112  14.321 -0.1259 -0.0377  0.1668
93321W        W94185  26.538  16.785   9.810  0.2470 -0.2101 -0.0084
93322W        W94186   0.294  16.425  12.564  0.1258  0.5469  0.1613
93323W        W94187  28.331  19.791  13.683 -0.2524  0.1539  0.1351
93324W        W94188  26.135  16.348  11.610 -0.1686 -0.1700  0.1953
93325W        W94189  27.809  17.067  12.714 -0.1413 -0.2438  0.0649
93326W        W94190   0.135  14.280  16.667 -0.3493  0.1219  0.3375
93327W        W94191  26.154  18.868  14.270  0.2914 -0.0274  0.0174
93328W        W94192  26.444  17.333  14.717 -0.5129 -0.2912 -0.1147
93329W        W94193   0.564  16.863  12.206 -0.1802 -0.2438 -0.1941
93330W        W94194   1.188  16.208  12.536 -0.0650 -0.1493  0.1960
93331W        W94195  28.278  15.638   9.857  0.0491 -0.0844 -0.0906
93332W        W94196   0.074  17.252  13.494  0.2613 -0.2163  0.0527
93333W        W94197  25.609  14.726  13.522  0.0979 -0.0497  0.0895
93334W        W94198  27.318  15.776  11.241  0.1155 -0.1411  0.0178
93335W        W94199   0.570  16.938   9.827 -0.0559  0.0562  0.1007
93336W        W94200  26.988  16.001  11.532  0.0444  0.0557  0.1751
93337W        W94201  25.187  15.533  12.946 -0.2385  0.1242 -0.2899
93338W        W94202   0.567  17.579  11.503 -0.1836  0.2145 -0.1504
93339W        W94203  25.137  16.200  11.973  0.1858  0.0987 -0.0922
93340W        W94204  26.329  18.999  12.118 -0.0081 -0.3998  0.0170
93341W        W94205  26.300  15.066  14.647 -0.0205  0.2033 -0.1343
93342W        W94206  25.472  20.720  10.828  0.1820  0.1274  0.0084
93343W        W94207  29.012  11.216  14.247  0.0512 -0.0823  0.2407
93344W        W94208  28.040  18.102  11.640  0.2802 -0.1224 -0.0843
93345W        W94209  23.882  12.644  13.165 -0.1160  0.3553 -0.2340
93346W        W94210  26.405  14.980  12.529  0.0658  0.0001 -0.3524
93347W        W94211  27.356  18.311  11.609 -0.3415 -0.3926 -0.0357
93348W        W94212  27.998  16.888   7.993  0.1080  0.1138 -0.0211
93349W        W94213  25.945  15.160  10.176  0.0225  0.0475  0.2367
93350W        W94214  28.469  17.576  11.084 -0.0968  0.0146 -0.0677
93351W        W94215  24.799  17.846  10.356 -0.0365 -0.0783 -0.2193
93352W        W94216  27.248  15.200   9.491 -0.0543  0.1575  0.0892
93353W        W94217  28.750  17.630  14.127 -0.0183 -0.0815  0.0106
93354W        W94218  26.577  14.647  12.297 -0.0866  0.0155 -0.3088
93355W        W94219  28.325  16.657  13.425  0.0678 -0.1764  0.1265
93356W        W94220  28.419  17.787  11.615  0.0149  0.1892  0.1991
93357W        W94221  28.189  17.861  10.689  0.1852  0.0062 -0.0746
93358W        W94222  26.365  17.597  10.749  0.1782  0.0118  0.2215
93359W        W94223  26.394  19.103  13.308 -0.1238  0.1482  0.2973
93360W        W94224  28.677  13.341  12.273  0.0244  0.0531  0.0113
93361W        W94225  27.169  19.668   8.773 -0.0126  0.2168 -0.2682
93362W        W94226  26.371  14.406   9.393  0.2204  0.2368 -0.1284
93363W        W94227  25.267  17.719  11.557  0.1055 -0.0017 -0.0802
93364W        W94228   0.218  14.679  13.027 -0.1080 -0.0685  0.0278
93365W        W94229  25.593  16.916  12.263  0.1517 -0.0950  0.0952
93366W        W94230  26.524  14.593  13.711  0.2930  0.0032 -0.3530
93367W        W94231  27.285  15.624  11.687 -0.1677  0.0405 -0.1469
93368W        W94232  26.300  13.394  13.179 -0.0439 -0.2942 -0.0538
93369W        W94233  27.876  14.220  13.257  0.1564 -0.0042  0.3201
93370W        W94234  25.608  16.364  11.810 -0.3075  0.1038 -0.1401
93371W        W94235  27.679  18.010  14.060 -0.0288 -0.2038 -0.2308
93372W        W94236  26.154  13.454  13.740 -0.2533  0.1804  0.0342
93373W        W94237  27.196  15.494  13.716  0.3963  0.0161 -0.0375
93374W        W94238  24.381  16.513  13.879 -0.0095  0.3255  0.0393
93375W        W94239  25.271  18.118  10.321 -0.1568 -0.0803 -0.0654
93376W        W94240  26.560  16.514  10.766  0.1910  0.0293  0.2263
93377W        W94241  27.930  19.659  15.817 -0.0360  0.3395  0.1247
93378W        W94242  27.065  14.043  11.565  0.2123 -0.1000  0.3027
93379W        W94243  28.641  14.375  13.829  0.3345 -0.1211 -0.0574
93380W        W94244  28.210  11.600  13.617  0.0684  0.0407 -0.0189
93381W        W94245  26.893  13.852  11.167 -0.3088  0.0113 -0.0472
93382W        W94246  24.401  15.081  12.050 -0.1812  0.0305  0.1059
93383W        W94247   0.102  17.791  10.817 -0.3543 -0.3202 -0.2183
93384W        W94248   1.267  14.268  12.058 -0.2605  0.1396 -0.4020
93385W        W94249  25.561  17.209  12.658 -0.0374  0.2607 -0.1780
93386W        W94250  27.466  13.633  11.635  0.0656 -0.4557 -0.0130
93387W        W94251  25.380  17.474  11.162 -0.0208  0.1051 -0.2553
93388W        W94252  28.177  16.399  12.188 -0.1811 -0.0367 -0.0480
93389W        W94253  25.876  16.079  12.742  0.1381 -0.1970  0.2659
93390W        W94254  27.842  17.315  10.944  0.0706 -0.1074 -0.3409
93391W        W94255   0.132  17.111   9.586 -0.0788  0.0204  0.0249
93392W        W94256  26.725  14.519  12.744  0.1231  0.1208  0.1224
93393W        W94257  28.510  15.230   9.653 -0.2117 -0.0681  0.2702
93394W        W94258  25.251  15.717  13.445 -0.1637 -0.0557 -0.3629
93395W        W94259  26.051  15.769  10.915 -0.0801 -0.0750 -0.0555
93396W        W94260  25.100  13.205  11.011 -0.1515 -0.1780  0.1191
93397W        W94261  28.250  18.554  12.239 -0.3428  0.0954 -0.2317
93398W        W94262  24.782  17.777  11.448 -0.1439  0.3290  0.0801
93399W        W94263  27.504  16.762  10.235  0.0089  0.2569  0.1776
93400W        W94264  23.604  16.863   9.385 -0.0803  0.1623  0.0531
93401W        W94265  28.399  19.885  14.457  0.2404 -0.1337  0.1540
93402W        W94266  26.018  17.874  16.344  0.1473  0.1365  0.0876
93403W        W94267  26.776  15.475  12.893 -0.0405  0.0987 -0.2224
93404W        W94268  25.800  15.356  10.725  0.1006  0.3025  0.0737
93405W        W94269  27.812  13.348  11.464 -0.1126 -0.3464 -0.4926
93406W        W94270  22.178  13.633  13.229 -0.2406  0.1193  0.1740
93407W        W94271  26.758  15.778  14.696 -0.2382 -0.2681 -0.1740
93408W        W94272  28.433  13.963  15.650 -0.1208 -0.4340 -0.2526
93409W        W94273  28.225  15.760  13.809  0.0506  0.0656  0.1320
93410W        W94274  28.756  15.929  13.815 -0.2982 -0.3352 -0.2298
93411W        W94275   1.686  15.932  13.026  0.0914  0.0590  0.1427
93412W        W94276  21.742  18.117  13.365 -0.0608 -0.0219 -0.0539
93413W        W94277  27.441  16.536  14.942  0.2047  0.1988  0.2825
93414W        W94278  27.361  16.241   9.765 -0.0627  0.0490  0.0304
93415W        W94279  25.213  16.948  16.086  0.3096 -0.0268 -0.1428
93416W        W94280  27.115  14.143  12.459  0.3703 -0.0171 -0.2976
93417W        W94281  27.230  16.364  11.094 -0.2218 -0.0319  0.2691
93418W        W94282  24.510  16.914  10.232 -0.4674 -0.1110 -0.1160
93419W        W94283  26.350  16.421  12.447  0.0206 -0.3233  0.1311
93420W        W94284  26.431  17.161  12.024  0.0688  0.2715 -0.0674
93421W        W94285  26.692  16.251  13.680  0.2672 -0.3255 -0.0232
93422W        W94286  26.961  13.787  12.876  0.0903 -0.3935  0.1809
93423W        W94287  26.701  16.457  11.257  0.0094  0.0810  0.0711
93424W        W94288   0.465  15.609  12.692 -0.3703  0.0822  0.1877
93425W        W94289  28.326  20.314   9.470 -0.2012 -0.0017 -0.0508
93426W        W94290  27.615  20.091  11.102  0.0364 -0.0086 -0.1150
93427W        W94291  28.171  16.574  14.214 -0.2831  0.0650  0.0068
93428W        W94292  26.710  16.752  13.625  0.0073  0.2541 -0.1685
93429W        W94293  27.027  16.179  14.841 -0.0312 -0.0887  0.2682
93430W        W94294   0.243  17.063  11.814  0.4089  0.1297 -0.0764
93431W        W94295  28.317  18.505  14.484 -0.0167 -0.0259 -0.0293
93432W        W94296  27.782  16.471  11.874  0.0883 -0.2792 -0.0456
93433W        W94297   0.072  19.219  10.372  0.3098 -0.1166  0.1760
93434W        W94298  23.833  12.638  14.719  0.1564 -0.1557  0.0810
93435W        W94299  25.720  16.944  14.802 -0.2289 -0.1208 -0.0469
93436W        W94300  26.551  13.554  12.609  0.1834 -0.3502 -0.0867
93437W        W94301  27.259  21.207  11.875 -0.1122  0.0418 -0.0882
93438W        W94302  26.583  17.505  12.377 -0.0082  0.2152  0.0741
93439W        W94303  24.083  15.192  15.491  0.2781  0.0035  0.2060
93440W        W94304  26.912  15.725  14.092 -0.2942 -0.0478 -0.0714
93441W        W94305  27.285  17.447  10.956 -0.0359  0.2476  0.0100
93442W        W94306  27.937  16.313  13.264 -0.0850 -0.0830  0.0478
93443W        W94307  26.940  14.900  10.074  0.2172  0.1981 -0.0085
93444W        W94308  26.510  15.953  11.473  0.0664 -0.1786  0.1092
93445W        W94309   0.798  17.742  13.230  0.1443  0.1983  0.0418
93446W        W94310  26.538  16.914  13.168  0.0427 -0.2113 -0.2347
93447W        W94311  27.711  16.338  11.267  0.4055  0.0595 -0.2237
93448W        W94312  28.341  17.106  13.585 -0.4245  0.1421  0.1246
93449W        W94313  27.383  19.136  11.100  0.0148  0.0558 -0.1359
93450W        W94314  24.545  17.377  14.150  0.2202  0.1362 -0.1759
93451W        W94315  24.875  16.120  11.023 -0.0288 -0.0061  0.0998
93452W        W94316  24.656  15.656  13.829 -0.2562 -0.0674  0.0343
93453W        W94317   0.665  18.180  13.569  0.2423  0.0658  0.4739
93454W        W94318  27.326  18.149  10.018 -0.1150  0.0623 -0.0797
93455W        W94319  26.771  16.667  12.189 -0.1128  0.1762  0.0904
93456W        W94320  25.638  17.624  12.285  0.1457  0.1417  0.0730
93457W        W94321  28.258  19.400  10.958  0.0814  0.1312 -0.0092
93458W        W94322  25.232  16.711  14.381  0.3963  0.3083  0.2027
93459W        W94323  25.217  14.471  13.776 -0.2758  0.1665 -0.0198
93460W        W94324  23.281  22.476  14.082 -0.0786  0.0948  0.2146
93461W        W94325  28.371  16.931  11.722  0.0909 -0.1711 -0.2627
93462W        W94326  26.731  20.017  12.456  0.1755 -0.0775 -0.0408
93463W        W94327  27.292  15.288   9.990  0.1244  0.0361  0.0323
93464W        W94328  27.841  16.803  11.090 -0.0046  0.1937  0.0804
93465W        W94329   2.994  15.324   9.960 -0.2307  0.2565 -0.1310
93466W        W94330  23.775  13.292  12.668  0.0718 -0.1638 -0.2634
93467W        W94331  27.270  16.837  12.639 -0.1178  0.2184 -0.1172
93468W        W94332  28.467  15.772  13.368  0.2066 -0.3516 -0.0825
93469W        W94333  24.690  14.555  15.723  0.2408 -0.1268 -0.0356
93470W        W94334  27.666  17.367  15.988  0.0157 -0.2096  0.1453
93471W        W94335  24.561  16.317  12.749 -0.1347  0.0240  0.0077
93472W        W94336  24.437  17.085  14.690 -0.1018  0.1020 -0.0760
93473W        W94337  25.571  20.359  10.387  0.2150 -0.1329  0.3244
93474W        W94338  23.299  19.524  15.159  0.4272  0.1856 -0.1501
93475W        W94339  26.616  18.505  10.452 -0.1083  0.1574  0.2053
93476W        W94340  27.493  17.472  11.858 -0.0046 -0.1159  0.0972
93477W        W94341  26.014  16.559  15.580  0.2331  0.0103  0.1588
93478W        W94342  28.953  16.122  11.638  0.0724  0.0000  0.0175
93479W        W94343  26.824  18.557  11.633  0.0738 -0.0565  0.1005
93480W        W94344  28.090  20.088  12.427  0.2136  0.0836  0.2957
93481W        W94345  27.995  16.549  13.730 -0.2858 -0.1479  0.1245
93482W        W94346  25.314  15.251  13.383 -0.0665  0.4026  0.3705
93483W        W94347  27.660  17.875  13.507 -0.3262  0.0209 -0.0145
93484W        W94348  25.075  14.535  12.622 -0.0198  0.1931  0.1931
93485W        W94349  27.156  14.638  14.805 -0.0520 -0.0392  0.3086
93486W        W94350  27.840  16.058  13.682 -0.0816 -0.3209 -0.0750
93487W        W94351  28.373  15.053  12.136  0.0028  0.0118  0.3199
93488W        W94352  26.197  16.660  12.857  0.1391  0.0866 -0.2146
93489W        W94353  24.138  14.792  12.362  0.1125  0.2234  0.2547
93490W        W94354  27.084  12.789  13.139  0.2852 -0.0780  0.2421
93491W        W94355  25.291  16.084  10.535  0.2358 -0.3016  0.1205
93492W        W94356  27.236  18.291  14.255 -0.0758 -0.1705 -0.0602
93493W        W94357  27.516  16.221  12.443 -0.1808 -0.1213  0.2465
93494W        W94358  28.972  14.984  14.311 -0.1469  0.1283  0.0855
93495W        W94359  26.964  17.353  11.924 -0.0870 -0.2841 -0.0806
93496W        W94360  25.370  16.838  12.914  0.1418  0.0912 -0.0416
93497W        W94361  26.592  11.664   9.926 -0.0362  0.1158  0.1366
93498W        W94362  27.715  14.660  10.563 -0.1071 -0.0715  0.0830
93499W        W94363  28.493  21.158  12.045 -0.2026  0.0860 -0.2117
93500W        W94364   2.360  15.508  11.787 -0.0390  0.2571 -0.3663
93501W        W94365  25.256  13.341  11.540  0.0232 -0.1065 -0.2048
93502W        W94366  25.082  14.702  10.580 -0.1696  0.0332 -0.0939
93503W        W94367  25.011  16.102  13.122 -0.1250  0.0244 -0.0927
93504W        W94368  28.767  15.656  12.947  0.0506 -0.0454 -0.0798
93505W        W94369  26.617  17.378  11.569 -0.0596 -0.0554 -0.4484
93506W        W94370   1.636  16.036  13.520 -0.0194  0.0272 -0.3009
93507W        W94371  28.853  16.135  12.929 -0.2035  0.0424 -0.0467
93508W        W94372  25.104  17.265  13.219 -0.1477  0.1529  0.0774
93509W        W94373  26.174  18.033  10.794 -0.0363  0.0378  0.1536
93510W        W94374  24.073  13.838  16.308  0.1009  0.0586  0.0554
93511W        W94375  26.072  17.139  14.419 -0.0605 -0.2847  0.1803
93512W        W94376   0.954  15.419  14.505  0.0788 -0.1495 -0.1258
93513W        W94377  28.287  16.584  11.243 -0.1057  0.0062 -0.3294
93514W        W94378  28.207  19.385  12.827  0.0900  0.0126  0.3138
93515W        W94379  26.586  16.978  15.184 -0.0583  0.0327  0.3606
93516W        W94380  28.520  14.687  12.521 -0.1804 -0.2965  0.0656
93517W        W94381   0.224  14.563  11.486 -0.0823 -0.0170  0.2753
93518W        W94382  25.548  15.886  13.099 -0.3022  0.1368 -0.0718
93519W        W94383  24.091  15.677  11.497 -0.0531  0.0998 -0.1692
93520W        W94384  25.843  16.799  13.177  0.3523  0.2614 -0.0370
93521W        W94385   0.298  17.276  12.218  0.0537 -0.0075  0.1303
93522W        W94386  27.713  15.497  13.866 -0.1140 -0.0612 -0.2116
93523W        W94387  26.770  17.344  10.960  0.1950  0.3821  0.0238
93524W        W94388  25.265  15.226  12.537 -0.0019 -0.1126 -0.2185
93525W        W94389  27.042  18.122  12.064  0.0546 -0.1450  0.0806
93526W        W94390  28.160  16.012  11.802  0.0475 -0.0151 -0.3360
93527W        W94391  26.972  17.571  15.425  0.2474  0.0995  0.0629
93528W        W94392  25.651  18.176  12.400 -0.2090  0.0543 -0.1127
93529W        W94393  28.618  19.357  13.181  0.1034 -0.1297 -0.0733
93530W        W94394   1.253  17.573   9.024  0.2510  0.3104 -0.2824
93531W        W94395  25.486  17.434  16.096 -0.1961  0.0173  0.0160
93532W        W94396  27.357  16.858  11.247  0.0776  0.0281  0.5989
93533W        W94397  26.358  19.246  11.110 -0.1965  0.0274 -0.2590
93534W        W94398   0.516  20.601  12.316  0.1577 -0.2242 -0.0393
93535W        W94399  26.819  14.738  11.636 -0.2427 -0.1309  0.2887
93536W        W94400  27.390  19.325  11.568  0.1423  0.0591  0.0874
93537W        W94401  26.051  16.760   9.492 -0.0683 -0.0226  0.1221
93538W        W94402  26.638  16.026  10.984  0.2155 -0.2527  0.1761
93539W        W94403  26.731  16.597  12.743  0.1105  0.2850  0.1170
93540W        W94404   1.162  14.194  11.034 -0.1718 -0.0258 -0.4953
93541W        W94405   0.951  16.047  14.241 -0.1437 -0.0063 -0.1498
93542W        W94406  29.061  15.241  13.110 -0.1535 -0.2401  0.0381
93543W        W94407  28.092  17.649  12.674  0.0028 -0.4483  0.0526
93544W        W94408  28.356  16.702  15.360  0.1842 -0.0987 -0.2911
93545W        W94409  28.562  19.367  14.585 -0.0617 -0.1845 -0.1230
93546W        W94410  28.427  16.252  13.106 -0.0566  0.1426  0.3063
93547W        W94411  28.408  17.265  12.724  0.0065 -0.0797 -0.1504
93548W        W94412  27.320  14.947  13.828 -0.0780  0.0632 -0.0571
93549W        W94413  27.846  18.895  12.258  0.0536  0.2461  0.0687
93550W        W94414  27.702  15.889  15.543 -0.1072  0.0297 -0.2393
93551W        W94415  25.445  15.227  14.277 -0.0340 -0.1091 -0.3350
93552W        W94416  26.478  18.368  10.982  0.2892 -0.0784 -0.1659
93553W        W94417  27.463  17.517   8.958  0.0553  0.3983 -0.0699
93554W        W94418  26.927  19.793  14.509  0.1383  0.0708 -0.1438
93555W        W94419  25.872  16.330   9.335  0.0850  0.2674  0.0932
93556W        W94420  23.147  14.813  12.478 -0.2688 -0.0695  0.1869
93557W        W94421  27.653  19.895  12.158  0.1639 -0.1029  0.0808
93558W        W94422  27.832  14.988  11.903  0.0685  0.0151  0.3316
93559W        W94423  28.814  16.982  13.474  0.2787  0.0396  0.0700
93560W        W94424  26.119  15.427  12.197  0.0279 -0.1481 -0.0760
93561W        W94425  28.734  18.803  14.445  0.2062 -0.1619 -0.1784
93562W        W94426   1.119  20.834  10.855  0.1242 -0.2544 -0.1169
93563W        W94427  26.378  16.394   9.492  0.0078 -0.1641  0.0812
93564W        W94428  29.133  13.285  11.502 -0.0378 -0.0109 -0.3145
93565W        W94429  26.179  19.494  15.597  0.0161  0.4378 -0.1137
93566W        W94430   1.160  16.112  14.763  0.0831  0.1728 -0.1445
93567W        W94431  25.290  14.833  14.573  0.3860 -0.0926 -0.2081
93568W        W94432  27.257  17.652  12.215  0.0644 -0.1358 -0.0601
93569W        W94433  28.076  14.794  13.277  0.1283  0.0841  0.2551
93570W        W94434  25.559  17.706  10.210  0.0623 -0.0268  0.0668
93571W        W94435  23.589  15.848  12.842  0.0921 -0.2153  0.2584
93572W        W94436  27.365  14.187  13.463 -0.1259  0.0374 -0.1079
93573W        W94437  24.491  20.488  12.586  0.2277 -0.0926 -0.1534
93574W        W94438  26.507  16.468  13.254 -0.0812 -0.0188 -0.2045
93575W        W94439   1.162  19.148  10.719 -0.0030 -0.0050 -0.1311
93576W        W94440  28.914  15.488  13.571 -0.1825 -0.0781 -0.1929
93577W        W94441  26.158  17.732  12.129 -0.0770 -0.0233  0.2042
93578W        W94442   1.556  12.331  13.138 -0.1226 -0.1912  0.0783
93579W        W94443  23.393  15.987   9.735  0.0241 -0.1825  0.1558
93580W        W94444  25.180  13.849  14.573 -0.3222  0.0271  0.1739
93581W        W94445  28.011  15.659   7.378 -0.0962  0.1965 -0.0698
93582W        W94446  26.608  18.800  12.900  0.1812 -0.0327 -0.2388
93583W        W94447  27.410  20.197  11.603  0.1591  0.3463  0.1290
93584W        W94448  24.373  14.160  14.037  0.3759 -0.1330 -0.0215
93585W        W94449  26.732  15.740  15.213  0.1211 -0.0879 -0.1421
93586W        W94450  28.343  16.162  15.558 -0.3001  0.0788 -0.2836
93587W        W94451  27.135  16.496  13.465 -0.1535 -0.2564  0.1211
93588W        W94452  24.792  16.925  10.778  0.1185  0.0488 -0.5275
93589W        W94453  26.104  16.828  12.267  0.2605  0.0365 -0.3620
93590W        W94454  27.984  14.463  11.792 -0.0112 -0.2355  0.2568
93591W        W94455  24.160  15.988  13.694  0.1657  0.0533 -0.1365
93592W        W94456  28.513  18.164  11.987 -0.0010 -0.0058  0.0871
93593W        W94457  27.004  19.492  16.011 -0.1937  0.0269 -0.0588
93594W        W94458  28.387  14.456  13.050  0.2220  0.1846 -0.0747
93595W        W94459  28.777  18.224  12.622 -0.0664  0.2809  0.0707
93596W        W94460   2.123  18.211  12.732 -0.0053  0.3142  0.0869
93597W        W94461  24.592  16.922  11.509 -0.3747  0.0313  0.0777
93598W        W94462  26.392  15.103  11.593 -0.0139  0.0285 -0.1462
93599W        W94463  27.207  16.305  12.891  0.4330 -0.0919 -0.1756
93600W        W94464  25.125  17.583  14.174  0.1636  0.1007  0.0549
93601W        W94465  27.587  16.372  13.997  0.0646 -0.4344 -0.0002
93602W        W94466  27.335  19.741  11.292 -0.0566 -0.0519 -0.1858
93603W        W94467  25.903  17.620  12.816  0.0898 -0.1280 -0.0692
93604W        W94468  26.564  16.666  15.622 -0.0862  0.2775 -0.1177
93605W        W94469  28.030  18.476  13.087 -0.0405 -0.0120  0.4118
93606W        W94470  27.805  17.354  14.473  0.0408  0.2097 -0.5085
93607W        W94471  26.586  15.100  12.077  0.3114  0.1570 -0.0022
93608W        W94472  27.868  13.342  10.874 -0.0568 -0.1231 -0.0194
93609W        W94473  26.141  17.766  20.546  0.0946 -0.0742  0.2550
93610W        W94474   0.868  17.899  17.441 -0.1868 -0.3578  0.1010
93611W        W94475   0.585  16.750  15.018 -0.1118 -0.1791 -0.0563
93612W        W94476  28.969  17.188  17.106 -0.2009 -0.2372  0.0789
93613W        W94477  27.276  20.547  14.804  0.0354  0.1662 -0.1533
93614W        W94478  28.619  18.690  16.231 -0.2775 -0.0779 -0.0264
93615W        W94479  27.125  16.625  15.846  0.1968 -0.1801 -0.3512
93616W        W94480  26.588  16.073  14.238 -0.0076 -0.2358 -0.1027
93617W        W94481  28.861  19.337  18.599 -0.5253  0.0533  0.2321
93618W        W94482  24.982  15.109  17.686  0.0056 -0.0910 -0.0078
93619W        W94483  27.379  17.883  18.933 -0.0945 -0.0842  0.2986
93620W        W94484  28.578  15.812  14.872  0.0491 -0.2205  0.3177
93621W        W94485  29.016  14.676  12.621  0.2265  0.1644  0.1706
93622W        W94486   0.181  15.092  18.417 -0.2085 -0.0571 -0.0277
93623W        W94487  27.834  14.758  16.721  0.0863  0.1157 -0.0063
93624W        W94488  22.893  17.080  16.973 -0.0591  0.1802 -0.1543
93625W        W94489  26.291  15.953  13.398 -0.0211 -0.1978 -0.0342
93626W        W94490  27.382  17.264  16.610 -0.0479  0.0572  0.0703
93627W        W94491  23.434  16.000  18.816 -0.1367  0.1745  0.1086
93628W        W94492  28.673  14.123  14.704  0.1643  0.1494  0.1391
93629W        W94493   0.551  17.391  15.348  0.0740  0.1590 -0.1261
93630W        W94494  25.987  15.210  14.271 -0.0711 -0.2819 -0.0385
93631W        W94495  28.226  15.039  16.785  0.1591  0.0636  0.0932
93632W        W94496  23.043  16.615  16.046 -0.1060  0.2724  0.0097
93633W        W94497  25.065  17.537  15.329 -0.2039  0.4779 -0.3419
93634W        W94498  26.844  18.511  16.681  0.0773  0.1387 -0.0012
93635W        W94499  28.771  16.000  18.337  0.0564 -0.0096 -0.1892
93636W        W94500  26.396  20.533  15.899 -0.1941  0.1563  0.0626
93637W        W94501  29.037  16.722  18.329 -0.1090 -0.5505 -0.0775
93638W        W94502  28.529  16.395  16.808  0.4584  0.1287 -0.1504
93639W        W94503  27.275  19.811  14.141  0.0246  0.0496 -0.1711
93640W        W94504  27.343  14.406  20.872 -0.1241 -0.0326  0.2247
93641W        W94505  26.703  17.784  14.990  0.0340  0.0511  0.0908
93642W        W94506   0.910  17.055  15.314  0.2884  0.3850 -0.0050
93643W        W94507  26.417  17.382  17.877 -0.0751 -0.0924  0.0457
93644W        W94508  28.341  18.122  14.821  0.0270 -0.2259  0.1933
93645W        W94509  23.607  16.323  17.056  0.2373 -0.0398 -0.2442
93646W        W94510  25.897  18.575  18.604  0.0399 -0.0184 -0.1216
93647W        W94511  27.917  18.287  13.565 -0.2539  0.2176  0.0425
93648W        W94512  27.320  16.651  14.427  0.0516  0.0996  0.1311
93649W        W94513  27.246  15.665  14.528  0.0439  0.0909  0.0511
93650W        W94514  27.551  18.328  16.411  0.3289  0.2316  0.0083
93651W        W94515  26.486  18.418  17.999  0.0184 -0.3154 -0.0281
93652W        W94516  27.680  19.236  15.014  0.0092 -0.1201 -0.1584
93653W        W94517  24.682  21.494  14.218  0.1226  0.2839 -0.2955
93654W        W94518  27.259  17.262  15.716  0.2500 -0.0855  0.0685
93655W        W94519  25.862  16.563  18.194  0.0477  0.3811  0.1679
93656W        W94520  27.168  13.920  18.504  0.2178  0.1121 -0.2813
93657W        W94521  28.348  17.294  16.457 -0.0223 -0.2056 -0.2030
93658W        W94522  25.859  16.793  11.832  0.3948  0.2753  0.0977
93659W        W94523  27.948  15.696  17.052 -0.1031  0.0052  0.1257
93660W        W94524  28.349  16.734  14.882  0.0216  0.4048  0.3246
93661W        W94525  26.480  16.252  14.726  0.0834  0.0077 -0.2179
93662W        W94526   0.304  16.290  13.569  0.1117 -0.1209  0.0974
93663W        W94527  27.758  16.644  12.408 -0.0935  0.0382  0.3370
93664W        W94528  26.414  18.623  15.060  0.0230  0.4661  0.1226
93665W        W94529  23.736  13.000  15.271 -0.1315  0.2796  0.0853
93666W        W94530  28.510  14.899  14.016  0.1024  0.1328 -0.1674
93667W        W94531  24.070  16.500  18.825  0.0231 -0.1336 -0.2686
93668W        W94532  25.936  18.935  16.230  0.2301 -0.0315  0.0917
93669W        W94533  27.102  15.583  14.967  0.0279 -0.2476  0.1746
93670W        W94534  24.464  19.879  16.393  0.0110  0.0501  0.1856
93671W        W94535  26.206  17.682  18.429 -0.2231 -0.1135 -0.4303
93672W        W94536  26.438  15.515  13.236  0.2650 -0.3946 -0.2566
93673W        W94537  25.454  17.088  18.480 -0.0251 -0.0757 -0.2139
93674W        W94538   1.397  14.359  15.619  0.0931 -0.2577  0.0643
93675W        W94539  24.232  15.845  16.218  0.0608 -0.2668  0.0722
93676W        W94540  22.920  17.538  15.251  0.2533 -0.3398 -0.0281
93677W        W94541  25.937  18.444  14.197  0.0053  0.1298  0.1498
93678W        W94542  26.955  16.844  11.785 -0.2775  0.1041  0.1510
93679W        W94543   0.118  17.407  19.783  0.1400 -0.0522  0.0718
93680W        W94544   0.011  17.896  12.753  0.0932  0.0428 -0.3912
93681W        W94545  28.629  18.470  14.068  0.1406 -0.1195 -0.3312
93682W        W94546  28.191  17.447  16.980  0.0445  0.2051 -0.1366
93683W        W94547  28.381  18.519  13.511 -0.0762 -0.1764  0.1767
93684W        W94548  25.972  17.573  17.978  0.1618  0.1215  0.1454
93685W        W94549  26.230  16.808  16.556 -0.2798  0.3453 -0.0567
93686W        W94550  27.584  18.181  14.926 -0.1140 -0.3066 -0.3602
93687W        W94551   0.992  16.226  15.781  0.2378  0.1448  0.2608
93688W        W94552  26.270  17.157  16.150 -0.2026 -0.2062  0.1314
93689W        W94553  25.662  19.275  15.264 -0.1140  0.0053  0.0120
93690W        W94554  25.650  15.997  18.612  0.0061 -0.0595 -0.0268
93691W        W94555  26.857  15.272  17.499  0.3644 -0.2100 -0.1466
93692W        W94556  25.435  14.383  15.241  0.0147  0.1262 -0.1031
93693W        W94557  26.133  17.631  17.515  0.0896  0.2267 -0.0752
93694W        W94558  26.064  14.431  15.960  0.0092 -0.0297 -0.0636
93695W        W94559  27.005  17.183  16.932 -0.0603  0.0185  0.0631
93696W        W94560  28.247  14.781  20.389  0.3591  0.1258 -0.0685
93697W        W94561   0.248  17.161  18.389  0.1560  0.1131  0.1593
93698W        W94562   0.788  15.098  18.535  0.0138  0.2819  0.0661
93699W        W94563  26.141  14.226  14.595 -0.1189  0.1000  0.0596
93700W        W94564   1.707  16.806  17.835 -0.1492  0.3501  0.1189
93701W        W94565  24.623  19.989  15.449  0.1356  0.0783 -0.2130
93702W        W94566  25.431  16.578  15.812  0.2675 -0.0379  0.0959
93703W        W94567  26.429  15.739  13.898 -0.0444  0.1913  0.5517
93704W        W94568  27.982  15.013  14.875 -0.2036  0.2214  0.1174
93705W        W94569  27.995  16.069  14.223  0.0025  0.1637 -0.0791
93706W        W94570   0.641  17.438  18.666  0.3224 -0.0790  0.1385
93707W        W94571  26.125  14.897  16.184 -0.1558  0.0779  0.0102
93708W        W94572   1.914  13.337  15.911  0.1396  0.1840  0.1181
93709W        W94573  27.999  18.017  15.163 -0.4688  0.0950  0.4379
93710W        W94574  24.997  18.101  14.231  0.1634 -0.0205  0.1457
93711W        W94575  27.790  16.012  12.121 -0.1055 -0.1236 -0.0077
93712W        W94576   0.665  17.206  14.868 -0.2476 -0.1750 -0.0054
93713W        W94577  27.888  14.317  16.629  0.0641 -0.3846 -0.3241
93714W        W94578  28.793  13.680  18.072 -0.1770 -0.0822  0.1629
93715W        W94579  26.081  16.872  15.162  0.1036 -0.0216 -0.0955
93716W        W94580  28.973  17.737  15.433  0.0090  0.1612 -0.0622
93717W        W94581  27.207  17.444  16.159  0.1006 -0.0801  0.0225
93718W        W94582  26.377  16.758  14.724  0.0989  0.2462 -0.2311
93719W        W94583  22.466  18.075  19.752  0.1073  0.1741 -0.2029
93720W        W94584  27.999  18.852  15.201 -0.1718  0.0017  0.1667
93721W        W94585   0.745  15.438  15.145 -0.0517  0.1912  0.0644
93722W        W94586  26.937  19.074  16.497 -0.4464 -0.1350  0.3756
93723W        W94587   1.721  19.484  13.917 -0.0264 -0.2158 -0.0571
93724W        W94588  28.522  17.465  14.553  0.0523  0.2752 -0.0625
93725W        W94589  28.859  13.904  16.338  0.0532 -0.0892 -0.2451
93726W        W94590  27.912  16.956  16.151  0.0684 -0.2605 -0.0023
93727W        W94591  28.062  13.659  15.632  0.2081 -0.4137  0.0279
93728W        W94592   1.731  14.965  14.465 -0.1876 -0.0428 -0.0405
93729W        W94593  25.685  15.580  14.606 -0.0086  0.0504  0.1415
93730W        W94594  25.607  15.279  12.961 -0.2225  0.5062 -0.0764
93731W        W94595  27.401  18.632  19.820 -0.2185 -0.4851  0.4417
93732W        W94596  26.670  18.405  15.827  0.1052 -0.1789  0.0805
93733W        W94597  25.175  15.790  17.843 -0.0177  0.1202  0.1137
93734W        W94598  28.735  15.905  16.405 -0.0038 -0.1134  0.1106
93735W        W94599  23.212  15.228  17.145  0.0192  0.1918  0.2247
93736W        W94600  28.928  12.932  19.350  0.2559  0.0249  0.0250
93737W        W94601  27.290  18.105  17.199 -0.2092  0.1871 -0.2422
93738W        W94602  26.436  18.144  16.236  0.2878  0.0260  0.1347
93739W        W94603  28.967  17.871  19.828 -0.1272 -0.0965  0.2749
93740W        W94604  28.370  16.232  18.342  0.1111  0.1526 -0.2407
93741W        W94605  25.389  18.890  15.523  0.3269 -0.0404 -0.1849
93742W        W94606  28.132  14.823  14.436 -0.4064  0.0820  0.1744
93743W        W94607   0.155  18.455  16.749 -0.0049  0.1881 -0.1969
93744W        W94608  25.486  15.248  20.091 -0.1271 -0.1731 -0.0845
93745W        W94609  27.552  15.862  14.188  0.1141  0.0869  0.0258
93746W        W94610   1.587  13.987  18.473  0.0264  0.2816 -0.0479
93747W        W94611  27.755  18.478  17.670 -0.2311 -0.1060 -0.4333
93748W        W94612  27.131  17.059  15.208 -0.0612 -0.2348  0.0207
93749W        W94613  25.183  17.951  13.772 -0.2172  0.0855 -0.0264
93750W        W94614  26.378  15.483  15.483  0.3114  0.0391  0.1653
93751W        W94615  24.791  20.713  16.069  0.0468 -0.0399  0.3896
93752W        W94616  25.574  15.588  13.909  0.3525  0.3174  0.2810
93753W        W94617  27.343  17.824  15.831 -0.1707  0.2711  0.1325
93754W        W94618  26.916  14.970  17.107  0.0223  0.0235 -0.0405
93755W        W94619  26.212  15.880  15.177  0.1285  0.0188 -0.1676
93756W        W94620  27.240  18.197  19.424  0.4189 -0.0472  0.2365
93757W        W94621  27.873  19.710  20.046 -0.0295  0.0388 -0.3614
93758W        W94622  28.367  15.945  17.035 -0.1563 -0.1060  0.0906
93759W        W94623  28.164  19.734  18.845 -0.0067 -0.1988  0.2464
93760W        W94624  23.097  16.123  17.103 -0.1127 -0.2737 -0.2768
93761W        W94625  27.486  19.431  18.318  0.0584  0.1304  0.0200
93762W        W94626  24.946  16.327  14.833  0.1566  0.0669  0.0326
93763W        W94627  25.381  16.522  18.267  0.0666  0.0741 -0.1021
93764W        W94628  25.663  14.557  15.668  0.0739  0.2384 -0.0976
93765W        W94629  22.598  16.189  16.867  0.0871 -0.0267  0.1032
93766W        W94630  25.429  16.892  13.463  0.1046  0.1266 -0.1028
93767W        W94631  26.157  14.849  12.060 -0.2212  0.1693 -0.1587
93768W        W94632  26.752  16.591  14.375  0.1677  0.1683 -0.0843
93769W        W94633   2.433  16.663  15.193  0.2784 -0.2154 -0.4429
93770W        W94634  25.241  17.159  17.536 -0.2191 -0.3102 -0.2076
93771W        W94635  28.849  14.791  17.481  0.1147 -0.1435 -0.3982
93772W        W94636  28.789  14.903  16.956 -0.1175 -0.4563 -0.0189
93773W        W94637  26.854  14.684  15.255 -0.0260  0.3262  0.1365
93774W        W94638  26.894  16.758  14.799  0.0502 -0.1026 -0.0796
93775W        W94639  25.965  16.363  15.128 -0.3139  0.0617 -0.3482
93776W        W94640  25.262  20.096  16.231  0.0201  0.0671 -0.0124
93777W        W94641  27.573  16.133  16.884  0.1012 -0.2234  0.2623
93778W        W94642  25.746  18.572  17.127  0.0354 -0.0704  0.1431
93779W        W94643   0.151  18.151  18.481 -0.0922  0.1682  0.1381
93780W        W94644   2.279  16.068  15.318  0.1448  0.0710  0.0010
93781W        W94645  26.274  17.817  16.946 -0.1110 -0.0500  0.0310
93782W        W94646  27.867  20.445  12.820 -0.2234  0.2724 -0.3845
93783W        W94647  26.837  15.326  15.419  0.0069  0.0139  0.0253
93784W        W94648  28.900  16.947  16.115  0.1618 -0.1974  0.0678
93785W        W94649  28.171  17.193  20.732 -0.1439 -0.0253 -0.1526
93786W        W94650  25.981  15.621  18.323  0.1713 -0.2010  0.0559
93787W        W94651  26.187  18.464  15.464 -0.4572 -0.0505  0.1251
93788W        W94652  28.433  17.619  15.478  0.0929 -0.0114 -0.0129
93789W        W94653  28.338  19.251  15.043 -0.1239 -0.1632  0.3706
93790W        W94654  27.643  18.581  13.993 -0.2365 -0.0743  0.0698
93791W        W94655  27.585  18.262  15.833  0.3081 -0.0295  0.1932
93792W        W94656  26.407  15.067  14.124  0.2119 -0.1497  0.1074
93793W        W94657  24.864  13.570  14.074  0.0466  0.0898  0.2149
93794W        W94658  27.313  15.435  18.179  0.0368 -0.1608 -0.3964
93795W        W94659  24.104  16.524  13.432  0.3494 -0.1200  0.0737
93796W        W94660  25.617  12.666  15.326 -0.3392  0.2263  0.1356
93797W        W94661  27.504  18.750  14.959  0.0964 -0.0362  0.1937
93798W        W94662  25.493  15.626  18.282 -0.1862  0.0156 -0.1130
93799W        W94663  27.245  17.253  13.905  0.2181 -0.1564 -0.0943
93800W        W94664  27.417  17.055  14.766  0.1530  0.1095 -0.0078
93801W        W94665  27.490  19.003  19.507  0.1447  0.2631  0.1120
93802W        W94666  28.221  14.267  18.380 -0.1754  0.3327 -0.0793
93803W        W94667  28.257  14.679  16.350 -0.2622  0.3794 -0.0239
93804W        W94668  27.751  14.569  16.237 -0.1761 -0.1676  0.0017
93805W        W94669  26.840  14.177  12.009 -0.1439  0.0635  0.1426
93806W        W94670  23.394  14.357  16.514  0.0340  0.1967  0.0990
93807W        W94671  23.033  17.052  15.144  0.0631  0.0961  0.0783
93808W        W94672  27.241  15.771  17.085  0.2755  0.5439  0.0928
93809W        W94673   0.555  15.624  15.763  0.1493 -0.2601  0.0225
93810W        W94674  27.430  14.805  17.061 -0.0438 -0.3419 -0.1252
93811W        W94675   0.247  15.019  13.433  0.1070  0.1944 -0.1187
93812W        W94676  25.918  15.784  14.201  0.0643  0.1665 -0.2684
93813W        W94677  28.188  16.447  17.889  0.0560  0.3346 -0.3013
93814W        W94678  24.596  12.560  15.322  0.3062 -0.1009 -0.1332
93815W        W94679  25.031  17.651  16.413  0.1798  0.2374 -0.0956
93816W        W94680  26.328  16.511  17.913 -0.1280 -0.0424  0.0569
93817W        W94681  26.967  17.890  14.559 -0.1468 -0.0197  0.2105
93818W        W94682  26.216  16.196  13.850  0.3219  0.1229 -0.1338
93819W        W94683  24.289  17.643  17.091 -0.2360 -0.0281  0.1683
93820W        W94684  26.726  18.480  19.447 -0.0434 -0.0618 -0.3955
93821W        W94685  26.696  15.489  20.787 -0.2470 -0.1183 -0.2207
93822W        W94686   0.584  11.600  16.442  0.0835  0.3568  0.1014
93823W        W94687  27.995  13.470  19.375  0.3927 -0.1964 -0.2279
93824W        W94688  25.804  16.406  13.953  0.0049  0.0991 -0.2522
93825W        W94689  27.834  17.364  16.457 -0.1146  0.2705 -0.0414
93826W        W94690   0.788  19.942  16.486  0.0978  0.2309 -0.0290
93827W        W94691  25.779  16.881  19.218 -0.0787 -0.0478  0.0486
93828W        W94692  27.807  16.140  17.894 -0.0905 -0.0688  0.0801
93829W        W94693   0.855  13.950  16.100  0.4739  0.1094  0.0734
93830W        W94694   2.638  16.169  15.007 -0.2480  0.3543  0.0912
93831W        W94695  27.845  16.354  21.840  0.2858 -0.0146 -0.0506
93832W        W94696  26.086  14.709  14.428 -0.0551 -0.3259  0.0517
93833W        W94697   0.130  17.525  15.713  0.1229  0.0116 -0.0231
93834W        W94698  27.453  17.376  17.575  0.2055  0.4115  0.0385
93835W        W94699  25.238  19.522  16.347  0.1606 -0.0123 -0.0531
93836W        W94700  28.780  14.361  16.546 -0.3943  0.0227 -0.2341
93837W        W94701  26.416  18.459  13.995 -0.2513 -0.2740  0.1527
93838W        W94702  28.675  16.603  14.370 -0.0307 -0.0154 -0.2961
93839W        W94703  27.110  16.357  16.904  0.1327  0.0275  0.0585
93840W        W94704  26.691  17.002  17.701  0.0610 -0.1049  0.1089
93841W        W94705  26.472  17.512  15.845  0.1056  0.2091 -0.4175
93842W        W94706  25.317  15.568  16.419 -0.0037 -0.2132  0.5362
93843W        W94707  25.939  15.867  16.354 -0.0428 -0.0008 -0.1192
93844W        W94708  28.975  17.148  15.270  0.1697 -0.1571  0.1007
93845W        W94709   0.958  15.324  19.639  0.0267 -0.0303  0.0394
93846W        W94710  25.544  15.514  15.550 -0.0823 -0.1477  0.2293
93847W        W94711  28.796  18.563  16.676  0.1390 -0.1757  0.1299
93848W        W94712  28.245  19.454  14.070  0.1336  0.1443 -0.2531
93849W        W94713  25.669  17.923  13.830 -0.0513 -0.0721 -0.1257
93850W        W94714  24.308  17.304  20.304 -0.0790 -0.0525 -0.0751
93851W        W94715  25.628  17.192  16.908 -0.0434 -0.0521 -0.3051
93852W        W94716  27.903  16.323  14.931  0.0864  0.3382 -0.2420
93853W        W94717  28.426  14.115  15.143  0.2095 -0.2031  0.1769
93854W        W94718  25.598  18.005  14.295  0.3936  0.0345  0.3197
93855W        W94719  26.901  18.325  13.749 -0.1420 -0.1203  0.0410
93856W        W94720  26.475  18.814  16.802  0.1500 -0.1867  0.2568
93857W        W94721  27.115  18.029  15.078 -0.3346 -0.0500 -0.3835
93858W        W94722  25.984  18.092  17.274 -0.0297  0.0294 -0.1280
93859W        W94723  24.082  15.833  14.321 -0.0869 -0.0707 -0.3093
93860W        W94724  29.135  18.692  16.334 -0.1639  0.1862  0.2343
93861W        W94725  28.685  16.446  16.335 -0.1073 -0.2037  0.0512
93862W        W94726  27.982  16.020  17.399  0.1108 -0.2332  0.0189
93863W        W94727  25.826  14.379  12.811  0.0884  0.1759  0.1630
93864W        W94728  27.990  17.033  15.573  0.2288 -0.2336  0.1059
93865W        W94729  28.868  16.156  17.187  0.0544  0.0935 -0.3894
93866W        W94730  26.767  15.799  16.291 -0.1049  0.3770 -0.1997
93867W        W94731  27.988  17.515  15.357  0.0560  0.1931  0.0178
93868W        W94732  26.398  14.520  15.377  0.1155 -0.0026  0.0442
93869W        W94733  25.198  15.963  17.276  0.1218 -0.0698  0.1458
93870W        W94734  26.909  17.541  17.908  0.0275 -0.2860  0.0646
93871W        W94735  26.473  17.311  19.697 -0.0101 -0.0413  0.0276
93872W        W94736   0.018  16.216  18.183  0.0499 -0.1307 -0.2380
93873W        W94737  25.420  17.270  15.611 -0.2359  0.0339  0.0244
93874W        W94738  26.948  17.349  19.713  0.0468 -0.2568 -0.0580
93875W        W94739  25.540  17.157  14.404  0.0107  0.2280  0.0269
93876W        W94740   0.046  16.274  17.480  0.0247  0.1398  0.1152
93877W        W94741  27.216  16.797  16.685  0.1139  0.1183 -0.1026
93878W        W94742  28.716  14.334  17.055  0.0496  0.0451  0.0028
93879W        W94743  28.150  15.290  14.078 -0.1799 -0.2524  0.0018
93880W        W94744  27.958  17.836  15.772 -0.3709 -0.1075 -0.2017
93881W        W94745   0.152  16.856  17.431  0.0821 -0.0552 -0.1932
93882W        W94746  26.340  16.147  16.280 -0.1834  0.2578 -0.2563
93883W        W94747  29.140  20.267  17.843 -0.2141 -0.1275 -0.5375
93884W        W94748  28.115  16.978  17.260 -0.4197  0.0502  0.1016
93885W        W94749  24.320  15.807  15.693 -0.1730 -0.1863  0.0153
93886W        W94750  26.775  17.914  15.795 -0.0150 -0.1651 -0.1112
93887W        W94751  26.127  16.190  14.337 -0.0667  0.1357  0.0370
93888W        W94752  23.945  16.461  16.710 -0.1807 -0.1184  0.4758
93889W        W94753  25.945  15.279  17.460  0.4206 -0.0398 -0.0898
93890W        W94754  25.772  15.066  14.713 -0.2063 -0.1122  0.0061
93891W        W94755  26.946  18.624  15.153 -0.2048 -0.0144 -0.2308
93892W        W94756  26.890  18.831  16.009 -0.2023  0.0673 -0.2421
93893W        W94757  27.854  18.655  15.770  0.3535  0.0197 -0.0480
93894W        W94758  27.484  16.761  15.454  0.2296  0.3224  0.3518
93895W        W94759  28.589  17.020  15.737  0.6159  0.1984  0.3771
93896W        W94760  23.730  16.335  19.125  0.0386  0.0002  0.0037
93897W        W94761   1.241  16.650  15.515 -0.2383  0.1809 -0.2076
93898W        W94762  27.472  19.469  15.868  0.0094 -0.0342 -0.0046
93899W        W94763  27.572  14.797  15.078  0.1906  0.1271 -0.2281
93900W        W94764  25.325  13.584  16.252 -0.1534  0.0418  0.2522
93901W        W94765  28.500  15.770  17.488 -0.2874  0.0389  0.0246
93902W        W94766  24.410  15.728  17.053  0.1599  0.0889 -0.2226
93903W        W94767  23.931  15.910  17.183  0.3169  0.0582 -0.0654
93904W        W94768  27.788  14.150  15.047 -0.0127 -0.0356  0.3476
93905W        W94769  28.084  15.713  16.143  0.1469  0.2890  0.0811
93906W        W94770  26.799  16.214  16.043 -0.0892 -0.3313 -0.1414
93907W        W94771   0.477  14.306  13.985  0.0266 -0.0347  0.1281
93908W        W94772  25.361  17.997  17.766  0.0271  0.2143 -0.2493
93909W        W94773  25.560  16.804  15.355 -0.2590  0.1973  0.0193
93910W        W94774  25.671  14.661  16.703  0.0852  0.1802 -0.0218
93911W        W94775  27.104  15.679  21.026 -0.0273 -0.1779 -0.3874
93912W        W94776  28.140  17.363  15.912 -0.1861 -0.0216 -0.2061
93913W        W94777  26.171  16.676  14.160 -0.0781  0.1100 -0.2154
93914W        W94778  27.765  20.354  18.449  0.1427  0.2268 -0.0824
93915W        W94779  26.559  16.144  18.298 -0.2568 -0.3208 -0.0352
93916W        W94780  26.337  16.159  15.735 -0.2091 -0.0195  0.0083
93917W        W94781  26.793  14.237  13.442  0.1996  0.1920 -0.2541
93918W        W94782  25.622  16.663  17.542  0.1463 -0.1451  0.1346
93919W        W94783  26.755  14.830  15.793 -0.2567 -0.0844 -0.0515
93920W        W94784  28.219  18.652  17.553 -0.1368  0.0939 -0.1180
93921W        W94785  27.265  13.366  13.596 -0.0876  0.1239  0.0368
93922W        W94786  27.496  19.080  16.709 -0.0927  0.0165 -0.1366
93923W        W94787  26.265  16.768  21.069  0.1661 -0.2121  0.0004
93924W        W94788  26.515  16.630  17.426  0.1705  0.1431  0.1682
93925W        W94789  26.040  15.379  15.008 -0.1236  0.0802  0.1039
93926W        W94790  27.756  14.872  15.796  0.0251 -0.0912 -0.3710
93927W        W94791  27.266  17.071  18.402 -0.0025  0.1504  0.1264
93928W        W94792   1.356  17.280  14.235 -0.2291 -0.1527  0.2972
93929W        W94793  26.140  19.952  18.446 -0.0054  0.2135 -0.1708
93930W        W94794   0.240  17.736  14.129  0.4102 -0.2061 -0.3112
93931W        W94795  25.764  13.255  18.780  0.0366 -0.1064 -0.3118
93932W        W94796  23.989  12.946  17.030 -0.0219 -0.0137  0.0813
93933W        W94797  27.580  17.860  16.279 -0.0019 -0.0410 -0.0671
93934W        W94798  25.688  15.900  17.127 -0.0437 -0.1541  0.3021
93935W        W94799  27.260  14.857  15.587 -0.1885 -0.0477 -0.3856
93936W        W94800  25.575  17.619  16.652 -0.0596 -0.1818  0.2071
93937W        W94801  28.233  17.346  14.037 -0.0185  0.4041  0.1222
93938W        W94802  28.437  18.961  15.431 -0.3072 -0.0504  0.1442
93939W        W94803  27.734  14.059  15.865 -0.0079 -0.1558 -0.1363
93940W        W94804  27.627  17.940  11.932 -0.0382  0.3258  0.1778
93941W        W94805  28.943  17.773  17.939 -0.0671  0.1048 -0.2502
93942W        W94806  28.309  14.108  20.679  0.1077  0.0181  0.2334
93943W        W94807   0.593  19.395  18.131 -0.0225  0.0206  0.2770
93944W        W94808  26.967  16.594  15.294  0.0791  0.4491  0.1053
93945W        W94809  26.719  17.635  16.990 -0.0521 -0.2354 -0.0533
93946W        W94810  25.796  18.388  13.163  0.0197 -0.1171  0.3898
93947W        W94811  27.793  17.094  16.904  0.2206  0.0550  0.2302
93948W        W94812  24.487  16.555  16.827  0.2164  0.0990  0.0755
93949W        W94813  27.542  16.711  13.458 -0.3144 -0.1304 -0.4446
93950W        W94814  28.428  18.131  15.652 -0.2660  0.0770  0.4032
93951W        W94815  27.725  17.777  17.721  0.0861  0.0298  0.1479
93952W        W94816  26.811  17.111  15.931 -0.1493 -0.0986 -0.1593
93953W        W94817  27.362  14.414  17.454 -0.2109  0.0553 -0.0874
93954W        W94818  25.581  17.875  16.230 -0.0288 -0.0972  0.4062
93955W        W94819  24.329  17.519  15.204 -0.3135 -0.0114 -0.1558
93956W        W94820  23.702  16.429  14.802 -0.3672 -0.1357  0.2488
93957W        W94821  28.729  19.905  16.428  0.0893  0.2219 -0.0205
93958W        W94822  25.203  14.641  16.874 -0.0451  0.0803 -0.0309
93959W        W94823  29.007  16.752  15.562 -0.1558 -0.0341 -0.2077
93960W        W94824  27.199  13.699  15.139  0.0364 -0.2803  0.0663
93961W        W94825   2.091  16.743  15.969 -0.0571 -0.1869 -0.1702
93962W        W94826  26.731  15.674  17.242 -0.1089  0.0648  0.0384
93963W        W94827  27.887  18.512  17.162 -0.0311  0.1470 -0.0670
93964W        W94828  25.610  15.127  13.799 -0.3087 -0.1317 -0.0336
93965W        W94829  24.008  19.254  18.302 -0.0527 -0.0793 -0.2887
93966W        W94830  28.140  14.862  17.755  0.1944  0.0504 -0.1268
93967W        W94831  23.874  16.686  17.266  0.2381  0.0407 -0.1397
93968W        W94832  24.119  17.907  16.217  0.3716  0.0078  0.1977
93969W        W94833  25.161  15.099  17.227  0.0913 -0.0803 -0.2213
93970W        W94834  28.015  16.698  22.204 -0.0891  0.1287 -0.2502
93971W        W94835  25.097  15.878  18.334 -0.1059 -0.0365  0.1710
93972W        W94836  28.913  15.707  15.925  0.1971 -0.3517 -0.0864
93973W        W94837  26.679  18.250  14.821  0.1303  0.2330 -0.0087
93974W        W94838   1.384  17.206  15.605  0.3023  0.1386  0.0801
93975W        W94839  25.658  19.546  15.760  0.0581 -0.0590  0.1381
93976W        W94840   0.195  16.215  16.229 -0.0395 -0.0018 -0.1653
93977W        W94841  27.546  15.928  14.997  0.1531 -0.1278  0.1400
93978W        W94842   0.166  14.021  17.271  0.0218  0.2648  0.5443
93979W        W94843  29.092  16.329  14.008 -0.2562  0.1711 -0.1265
93980W        W94844  28.001  16.130  15.890  0.2423 -0.1406  0.2521
93981W        W94845  26.444  17.354  13.509 -0.1206  0.1305  0.0702
93982W        W94846  28.708  17.075  14.807  0.2231 -0.1527 -0.1204
93983W        W94847  27.120  18.337  16.050 -0.3128  0.5843  0.0757
93984W        W94848  27.469  17.612  18.108  0.2119  0.0324 -0.0931
93985W        W94849  26.989  16.287  18.248  0.1918  0.2012 -0.2494
93986W        W94850   0.415  18.755  17.720  0.3590  0.0106 -0.0358
93987W        W94851  26.436  14.999  18.248  0.0776  0.0150 -0.0572
93988W        W94852  25.572  18.893  18.054  0.0775  0.3907 -0.4664
93989W        W94853  26.969  15.805  18.259  0.2011 -0.0913 -0.2439
93990W        W94854  22.709  16.660  15.686  0.0806 -0.1235 -0.0104
93991W        W94855  23.926  16.040  18.075 -0.1006 -0.0646 -0.0797
93992W        W94856  27.328  15.352  17.696  0.0278  0.1286  0.0453
93993W        W94857  28.872  15.577  19.448  0.1712 -0.2447 -0.1778
93994W        W94858  28.069  15.565  20.611  0.0085  0.2401 -0.1060
93995W        W94859  26.820  15.918  16.799  0.1739 -0.0573 -0.4170
93996W        W94860  26.801  18.259  17.656  0.0343 -0.3084 -0.0251
93997W        W94861  25.668  18.114  19.775  0.1940  0.0355 -0.3287
93998W        W94862  28.211  15.400  15.268 -0.1224 -0.2824 -0.2202
93999W        W94863  26.426  15.720  18.081 -0.0956  0.5633 -0.0515
94000W        W94864  25.620  18.282  14.984 -0.1840  0.0271  0.1805
94001W        W94865  27.492  17.927  14.554  0.0669 -0.0218 -0.1259
94002W        W94866  25.610  19.627  18.506 -0.1087 -0.1483 -0.0351
94003W        W94867  25.639  17.903  18.195 -0.1300  0.1170  0.2702
94004W        W94868  26.907  15.226  18.515  0.0498 -0.0456  0.0397
94005W        W94869  26.914  15.135  14.428  0.2590  0.4549  0.0157
94006W        W94870  27.437  17.019  17.266  0.0608  0.2088  0.1662
94007W        W94871  28.798  17.544  14.970  0.0119  0.0794  0.0281
94008W        W94872  28.505  17.897  17.222 -0.0935 -0.1389  0.0968
94009W        W94873  24.360  20.541  22.284 -0.0190  0.1979  0.0586
94010W        W94874  26.357  15.527  20.202  0.1105 -0.0836 -0.0822
94011W        W94875  28.687  14.419  20.474  0.0020 -0.4878  0.0575
94012W        W94876   1.298  17.047  20.394 -0.2695 -0.0402  0.2798
94013W        W94877   0.430  18.876  20.332  0.1317  0.2012  0.1037
94014W        W94878  25.498  16.750  21.834 -0.1507  0.3423 -0.1505
94015W        W94879  26.681  15.313  18.968  0.0881 -0.1758  0.1506
94016W        W94880  26.551  14.594  20.561 -0.4305  0.0244  0.0487
94017W        W94881  25.845  15.795  22.015 -0.1465  0.1158  0.0723
94018W        W94882  24.227  14.704  22.775  0.0939 -0.0342  0.0147
94019W        W94883  26.323  12.821  21.215  0.1364 -0.0753  0.1928
94020W        W94884  27.912  15.166  20.316 -0.1435 -0.0325  0.1546
94021W        W94885  25.806  14.529  19.895 -0.4715  0.1771  0.0578
94022W        W94886  28.659  16.250  23.326 -0.1706  0.2384  0.0329
94023W        W94887  27.512  16.895  22.418  0.0322 -0.2482 -0.0399
94024W        W94888  25.048  17.180  21.385 -0.1961 -0.1633  0.2052
94025W        W94889  27.274  15.567  21.917 -0.0522  0.1198  0.3745
94026W        W94890  26.748  15.769  23.953  0.0820 -0.0823  0.2764
94027W        W94891  28.601  17.837  22.764  0.1811 -0.2539 -0.0182
94028W        W94892   3.070  14.992  18.801 -0.0490  0.3189 -0.2318
94029W        W94893  28.642  16.830  21.913 -0.1476 -0.1426 -0.1517
94030W        W94894  26.031  14.851  20.608  0.2303 -0.1151  0.3867
94031W        W94895  28.509  15.870  21.301 -0.1135 -0.2971  0.2669
94032W        W94896  25.993  16.991  23.404 -0.0938 -0.0226  0.1908
94033W        W94897  24.874  15.306  21.728  0.0517 -0.0276 -0.1453
94034W        W94898  25.354  16.555  19.342  0.0050  0.0615 -0.0937
94035W        W94899  28.732  15.040  22.577 -0.2683  0.0520  0.2279
94036W        W94900  25.587  18.485  19.469  0.0118  0.2676 -0.1948
94037W        W94901  26.185  14.830  24.209 -0.0675  0.4492 -0.3040
94038W        W94902  28.759  16.660  20.392 -0.3565 -0.2816  0.2828
94039W        W94903  27.152  15.088  22.577 -0.0300  0.2045 -0.2905
94040W        W94904  25.858  16.259  23.832  0.0659  0.0752 -0.0918
94041W        W94905  28.118  15.901  23.640 -0.1815  0.1693 -0.1422
94042W        W94906  25.974  16.858  21.724  0.0296 -0.0496  0.0843
94043W        W94907  23.906  15.193  20.895 -0.1621 -0.0740  0.4633
94044W        W94908  27.015  15.545  23.505 -0.0229  0.2374 -0.2106
94045W        W94909  28.366  15.763  18.747  0.2644 -0.0657 -0.0960
94046W        W94910  28.446  13.809  18.780 -0.1309 -0.0897 -0.2133
94047W        W94911   0.396  17.432  20.810  0.2098 -0.5191 -0.0913
94048W        W94912  27.456  16.555  18.142 -0.1454  0.0809  0.1527
94049W        W94913  28.890  15.275  17.988  0.0981  0.0485 -0.0106
94050W        W94914   1.750  15.716  18.658  0.2453 -0.2728 -0.1253
94051W        W94915  28.385  16.839  17.679  0.1732 -0.0387 -0.0647
94052W        W94916   0.840  17.952  19.655 -0.1587  0.0537  0.0743
94053W        W94917  26.430  19.088  19.052  0.1510 -0.2813 -0.0156
94054W        W94918  25.623  19.394  16.664 -0.0562  0.2295 -0.1698
94055W        W94919  25.944  15.077  20.159 -0.2297  0.2160 -0.1788
94056W        W94920   0.188  15.093  19.787 -0.0262  0.0136 -0.0319
94057W        W94921  28.861  13.966  20.042  0.0517 -0.1158  0.1266
94058W        W94922   0.116  15.583  18.204 -0.1763  0.2443 -0.1224
94059W        W94923  28.012  16.874  21.542 -0.0878  0.0201  0.4649
94060W        W94924   1.504  16.129  15.923  0.0979 -0.1433  0.2192
94061W        W94925  28.177  16.197  23.136 -0.3080  0.0222  0.0917
94062W        W94926  28.704  18.164  18.140 -0.0351 -0.1603  0.1670
94063W        W94927   0.225  15.258  17.818  0.0195 -0.3861 -0.0168
94064W        W94928  25.594  15.779  19.955 -0.1926 -0.0825  0.2591
94065W        W94929  26.440  16.032  19.361 -0.0474 -0.0651 -0.1767
94066W        W94930   1.477  18.555  22.525  0.2649 -0.0698  0.0300
94067W        W94931  26.496  14.945  20.895  0.1024 -0.1135  0.0487
94068W        W94932   0.532  16.359  19.184 -0.2910 -0.4013  0.1928
94069W        W94933   0.066  18.480  17.286  0.0126  0.1342 -0.1111
94070W        W94934  25.869  18.213  20.523  0.3783 -0.2328 -0.0183
94071W        W94935   0.786  16.673  19.969 -0.0291  0.1042 -0.1786
94072W        W94936  26.769  15.391  16.606  0.1001  0.3584 -0.0554
94073W        W94937  25.958  15.461  21.439 -0.1691 -0.0903 -0.0178
94074W        W94938   0.436  12.154  21.616  0.4759  0.0667  0.0733
94075W        W94939  25.704  17.632  17.172  0.0730  0.1607 -0.2819
94076W        W94940  25.735  15.527  16.723  0.0198 -0.2690  0.0094
94077W        W94941  28.574  16.824  17.107 -0.0754  0.1733  0.1944
94078W        W94942  28.244  18.085  20.422  0.0385  0.1383  0.0411
94079W        W94943   0.360  16.748  19.512 -0.1689 -0.0672 -0.0128
94080W        W94944  26.929  15.730  17.687 -0.1854  0.0355 -0.5492
94081W        W94945  28.476  17.765  20.035  0.0370  0.3033 -0.0327
94082W        W94946   0.210  18.195  21.010 -0.0190  0.0610 -0.2843
94083W        W94947  28.294  18.793  21.803  0.0338 -0.4663  0.0916
94084W        W94948  25.002  16.526  21.953 -0.0044 -0.0227 -0.1604
94085W        W94949  25.706  15.916  23.520 -0.0822  0.0699 -0.1611
94086W        W94950  27.167  16.995  20.618  0.0300 -0.2141  0.2368
94087W        W94951   0.428  15.189  20.980 -0.0575 -0.0872 -0.0735
94088W        W94952  29.015  16.105  23.645 -0.2957  0.0321  0.2584
94089W        W94953  25.292  16.294  21.528  0.0458  0.1915 -0.3868
94090W        W94954  25.419  17.089  23.466  0.0814  0.3341 -0.0989
94091W        W94955  28.015  15.539  19.000  0.1086 -0.1097  0.3532
94092W        W94956  28.597  14.577  18.539 -0.1842 -0.0306 -0.0560
94093W        W94957  26.487  15.671  22.865  0.0886  0.0194  0.2149
94094W        W94958  27.092  14.412  17.006  0.3396 -0.0316  0.1575
94095W        W94959   0.714  17.386  19.984  0.0528  0.1970 -0.1446
94096W        W94960  27.374  14.649  19.952  0.1484  0.1005 -0.2783
94097W        W94961   1.901  14.737  21.186 -0.1511  0.0226  0.2462
94098W        W94962  28.728  14.788  21.485  0.1137 -0.1239  0.1779
94099W        W94963   1.007  15.167  16.752 -0.0797  0.0628  0.1625
94100W        W94964  28.924  14.532  23.889 -0.1337 -0.2610  0.3613
94101W        W94965  27.495  16.738  21.888 -0.0070  0.0615 -0.1776
94102W        W94966  26.664  15.776  18.732  0.0604 -0.1256  0.0384
94103W        W94967  26.396  15.409  22.327  0.1049  0.2678 -0.2022
94104W        W94968  27.926  16.926  19.776 -0.1483  0.1189  0.0046
94105W        W94969  28.166  16.290  21.382 -0.2290  0.0967 -0.0442
94106W        W94970  25.038  16.422  22.451 -0.1437 -0.0599  0.1556
94107W        W94971  25.288  13.566  22.206  0.0869 -0.1718 -0.0189
94108W        W94972   1.000  14.020  18.759 -0.0433  0.0926  0.2855
94109W        W94973   1.502  17.293  17.916 -0.4349 -0.0064 -0.1028
94110W        W94974  26.356  15.534  19.226 -0.0864 -0.1369 -0.2228
94111W        W94975  28.214  14.769  15.289 -0.3422  0.3204  0.1395
94112W        W94976  29.069  15.623  21.911 -0.1344  0.2257  0.2414
94113W        W94977  28.395  17.062  19.351 -0.0277 -0.0970  0.0568
94114W        W94978  24.704  15.650  22.522 -0.0774  0.1718 -0.2852
94115W        W94979  27.860  17.188  21.150  0.0271 -0.4031 -0.1444
94116W        W94980  26.039  17.588  22.746  0.1463 -0.0406 -0.0421
94117W        W94981  27.007  13.463  17.501 -0.1753  0.2094  0.2244
94118W        W94982  27.409  17.702  19.843  0.1726  0.3816 -0.2903
94119W        W94983  25.389  17.724  19.595 -0.1876  0.0088 -0.1600
94120W        W94984  26.062  16.124  18.378 -0.0021 -0.0706  0.0130
94121W        W94985  28.567  16.148  20.581 -0.0475  0.3172 -0.1875
94122W        W94986  26.816  18.723  20.811  0.0781 -0.0202 -0.3035
94123W        W94987   1.002  17.746  18.692  0.1521 -0.0914 -0.2437
94124W        W94988   0.363  16.660  18.243  0.1010  0.2744  0.1923
94125W        W94989  28.623  15.038  22.078  0.0951 -0.3240  0.1086
94126W        W94990  26.571  16.784  22.320 -0.1709 -0.0516  0.0405
94127W        W94991  28.323  15.447  22.702  0.1994 -0.3939  0.2519
94128W        W94992  28.148  20.066  19.251  0.0189 -0.1234  0.0079
94129W        W94993  28.807  15.534  18.505  0.2818 -0.1551 -0.2827
94130W        W94994  27.934  17.213  19.390  0.3394  0.0359  0.0169
94131W        W94995  26.944  17.081  22.227  0.1384 -0.1405  0.1598
94132W        W94996   0.129  13.728  19.826 -0.2715 -0.0318  0.0818
94133W        W94997  27.474  15.572  19.795  0.2607  0.1150  0.0785
94134W        W94998  28.578  17.776  19.489  0.1315  0.1750  0.0257
94135W        W94999  26.241  13.274  19.813 -0.1229  0.1024 -0.3020
94136W        W95000  28.898  16.324  21.381 -0.1630 -0.0749  0.2973
94137W        W95001   2.567  18.092  18.948  0.1776 -0.0043  0.1649
94138W        W95002  26.127  18.725  21.281  0.0461 -0.1379 -0.0851
94139W        W95003  26.842  14.602  21.768  0.0296  0.0586 -0.1114
94140W        W95004  27.755  14.678  21.115  0.0959 -0.2267 -0.0883
94141W        W95005  26.799  17.494  21.304 -0.1562  0.0376  0.0385
94142W        W95006  28.477  13.056  19.148  0.0540 -0.0432 -0.2208
94143W        W95007   0.176  16.108  20.680  0.0674  0.0124  0.0810
94144W        W95008  25.900  15.611  19.532  0.0689 -0.1760 -0.1107
94145W        W95009  25.222  13.962  22.478  0.0204  0.0346 -0.1641
94146W        W95010   0.258  13.715  21.283 -0.2860 -0.3663  0.0895
94147W        W95011  25.970  14.994  21.129  0.1903 -0.0693 -0.1403
94148W        W95012  27.803  17.380  20.072 -0.1063 -0.0754  0.0931
94149W        W95013  24.423  17.517  16.611  0.3433 -0.0840  0.0460
94150W        W95014  27.833  14.684  22.968 -0.0167  0.1087 -0.1769
94151W        W95015  26.324  20.175  17.666  0.0390  0.1073  0.1229
94152W        W95016  27.438  18.094  20.741  0.1378 -0.0567  0.0146
94153W        W95017  24.867  16.205  23.113 -0.2072 -0.2529 -0.1127
94154W        W95018  28.301  15.051  19.917  0.0136 -0.1394  0.3147
94155W        W95019  27.758  15.998  18.786  0.0870  0.0413  0.0790
94156W        W95020  28.422  15.770  22.270  0.1536 -0.3252  0.1154
94157W        W95021  27.338  16.324  18.712 -0.1186 -0.0326  0.0334
94158W        W95022  25.370  17.652  23.436 -0.5129  0.2383  0.0952
94159W        W95023  25.833  18.509  22.409  0.1735  0.1372 -0.0906
94160W        W95024  27.125  15.401  19.207 -0.0147 -0.3495  0.0655
94161W        W95025  26.729  16.327  22.125  0.2618 -0.2107  0.1998
94162W        W95026  26.897  14.594  20.920  0.0598  0.1966  0.0620
94163W        W95027  28.530  17.689  18.274  0.0280 -0.1782  0.0848
94164W        W95028  27.573  14.011  20.701  0.2217  0.0868  0.0207
94165W        W95029  27.967  17.953  21.827 -0.0579 -0.0286  0.4308
94166W        W95030  27.199  15.077  20.131  0.2951 -0.0287  0.0873
94167W        W95031   0.200  14.781  17.574 -0.0095  0.2520 -0.1346
94168W        W95032  28.614  15.078  19.478  0.0777 -0.0665  0.0274
94169W        W95033  26.798  14.946  22.168 -0.1090  0.0438  0.0463
94170W        W95034   0.354  16.999  19.949  0.1002 -0.2709 -0.2590
94171W        W95035   2.602  17.931  18.454  0.0728  0.0387  0.0922
94172W        W95036   0.473  15.903  21.842  0.1089 -0.1354 -0.2503
94173W        W95037   2.564  14.088  18.885  0.1946 -0.0870 -0.0773
94174W        W95038  25.716  16.235  21.798  0.3007 -0.2513  0.0041
94175W        W95039  27.189  16.975  17.890 -0.1187  0.0542  0.1879
94176W        W95040  24.466  16.810  19.112 -0.0841  0.0160  0.0196
94177W        W95041  26.771  16.310  22.641 -0.0074 -0.0531  0.0572
94178W        W95042  27.687  17.977  19.350  0.1670 -0.0830  0.1521
94179W        W95043  27.756  14.651  24.756 -0.1279  0.3002  0.0960
94180W        W95044   0.282  16.855  23.486 -0.0796 -0.1365 -0.3312
94181W        W95045   1.048  15.681  21.395 -0.0749  0.3738  0.2199
94182W        W95046   1.684  17.004  17.322  0.2836 -0.0792  0.1294
94183W        W95047  26.740  16.342  16.557 -0.0396 -0.2429 -0.2921
94184W        W95048   1.683  16.219  18.744 -0.1926  0.1872 -0.1306
94185W        W95049  27.763  19.535  23.343  0.0023  0.1562  0.0684
94186W        W95050  25.492  14.127  20.218  0.0609 -0.0150  0.2819
94187W        W95051  27.054  17.620  18.395 -0.0094  0.1093  0.1686
94188W        W95052  27.530  14.788  20.459  0.0612 -0.0957  0.0852
94189W        W95053  27.223  18.531  17.415  0.0484 -0.2134  0.2952
94190W        W95054  28.552  15.646  20.716 -0.1181  0.1092 -0.0379
94191W        W95055  27.041  17.609  16.667  0.0045 -0.0869  0.1677
94192W        W95056  26.428  14.646  22.016  0.0853  0.1001 -0.1663
94193W        W95057  25.415  15.514  17.460  0.4754  0.1875  0.0319
94194W        W95058  27.090  18.174  22.861  0.1133  0.0466 -0.1282
94195W        W95059   0.111  13.944  20.302  0.1822 -0.0248  0.0310
94196W        W95060  26.385  16.212  18.853  0.0596 -0.1085 -0.5009
94197W        W95061  26.862  17.283  24.076  0.5277 -0.0929  0.2905
94198W        W95062  26.491  16.295  21.035 -0.0448 -0.0225  0.0524
94199W        W95063  27.343  16.191  20.949 -0.2936 -0.0307 -0.0948
94200W        W95064  28.313  15.241  18.504  0.0565 -0.1832  0.0334
94201W        W95065  25.455  14.381  22.275 -0.0841  0.1686  0.1186
94202W        W95066  26.647  14.124  22.196 -0.2451 -0.0455  0.0946
94203W        W95067  28.372  15.175  20.775  0.1178 -0.0041 -0.3328
94204W        W95068  28.932  14.708  19.630 -0.0445  0.1348 -0.1806
94205W        W95069  27.802  14.110  17.437  0.0101 -0.3435 -0.0428
94206W        W95070  25.360  14.144  21.309 -0.0391 -0.2481 -0.0823
94207W        W95071  26.585  15.855  21.159 -0.2958  0.0331  0.0747
94208W        W95072   0.457  17.876  18.804 -0.0811  0.1702  0.1564
94209W        W95073  25.865  15.730  20.501  0.1926 -0.0628  0.6345
94210W        W95074  27.166  15.914  22.271 -0.0138 -0.0196  0.0186
94211W        W95075  27.727  19.733  17.466 -0.1638 -0.0410  0.2962
94212W        W95076  25.757  14.202  20.894 -0.2861 -0.1111  0.1367
94213W        W95077  27.117  16.587  22.304 -0.0385 -0.1040 -0.0158
94214W        W95078   0.086  15.021  19.260 -0.1626  0.0102 -0.2823
94215W        W95079  26.125  17.253  19.247  0.0478  0.0832 -0.0980
94216W        W95080  29.051  15.201  18.783  0.2107  0.0725 -0.1733
94217W        W95081  26.077  18.792  13.780  0.2685  0.1910 -0.0762
94218W        W95082  24.955  17.272  18.234 -0.0680  0.0149  0.0971
94219W        W95083  27.180  18.020  23.743  0.1051 -0.0580 -0.0106
94220W        W95084  25.629  13.307  20.773  0.2704  0.4987  0.4595
94221W        W95085  28.923  17.532  20.177  0.4794 -0.0176 -0.1786
94222W        W95086  27.892  15.136  21.252  0.1833  0.1961 -0.0285
94223W        W95087  27.930  16.557  20.132  0.0256 -0.0558 -0.0757
94224W        W95088   2.246  19.255  20.532 -0.0794 -0.0228  0.1194
94225W        W95089  28.905  17.002  17.759  0.1316  0.1897 -0.0131
94226W        W95090  28.210  15.527  16.642 -0.1386 -0.0513 -0.0957
94227W        W95091   0.481  16.933  21.941  0.0505 -0.0755  0.0056
94228W        W95092  25.191  16.226  23.805 -0.0365 -0.2959  0.0902
94229W        W95093   0.569  16.203  17.444  0.1197 -0.0358 -0.1184
94230W        W95094   0.201  16.531  21.675  0.0124  0.0515  0.1516
94231W        W95095  27.155  15.092  24.250  0.0450 -0.0968  0.1085
94232W        W95096  28.216  14.709  18.805 -0.2186  0.2429  0.3415
94233W        W95097  28.420  16.861  19.952 -0.3251 -0.2234 -0.0284
94234W        W95098  27.544  16.739  22.925 -0.1742 -0.0034  0.1243
94235W        W95099  28.755  17.710  20.979  0.0709  0.2742 -0.1807
94236W        W95100  28.699  16.166  19.554 -0.1150  0.0952  0.0813
94237W        W95101  27.394  15.735  16.103 -0.1520  0.4149  0.3538
94238W        W95102  25.899  16.399  18.805 -0.1215 -0.0679 -0.1301
94239W        W95103  26.764  15.295  19.983  0.0787 -0.2776 -0.0988
94240W        W95104   0.109  16.955  22.415  0.1016  0.2229  0.0222
94241W        W95105  28.995  14.462  18.302  0.0854  0.0567 -0.1193
94242W        W95106  26.270  16.631  23.113  0.0429 -0.1800 -0.1411
94243W        W95107  27.208  16.248  21.952 -0.1793 -0.0532 -0.0928
94244W        W95108  27.039  15.751  19.822  0.3189 -0.0277 -0.2307
94245W        W95109   0.040  17.444  16.705 -0.0175 -0.0962 -0.2254
94246W        W95110  27.429  14.355  24.125 -0.1067  0.1109  0.0443
94247W        W95111  27.524  19.793  21.088 -0.2070  0.0261  0.0167
94248W        W95112  27.117  17.095  21.226 -0.0514 -0.0645  0.0868
94249W        W95113  28.102  19.015  19.542  0.0747 -0.2486  0.1407
94250W        W95114  25.369  16.075  23.159  0.0948  0.0882 -0.4236
94251W        W95115  26.369  17.152  18.689 -0.2131  0.2376  0.1863
94252W        W95116  26.027  14.055  17.350  0.0361 -0.0742  0.2219
94253W        W95117  28.310  16.428  21.811 -0.3926  0.2632  0.2462
94254W        W95118  29.054  15.801  21.420  0.3732 -0.0781  0.1500
94255W        W95119  26.878  15.019  20.612  0.1809  0.3014 -0.2084
94256W        W95120  25.146  15.980  22.620  0.1900 -0.2140 -0.3394
94257W        W95121  26.965  18.839  19.699  0.1373  0.2430  0.3072
94258W        W95122  28.052  17.477  18.076  0.0544 -0.3220  0.0627
94259W        W95123   0.236  14.758  21.109  0.0475 -0.1007  0.2719
94260W        W95124  25.152  18.908  24.593 -0.3146  0.1178  0.2415
94261W        W95125  28.710  18.421  22.054  0.2369 -0.0729 -0.1757
94262W        W95126  28.293  14.789  22.903 -0.3089  0.4104 -0.1348
94263W        W95127  27.660  16.260  20.487 -0.3429 -0.1463 -0.1793
94264W        W95128  26.852  15.799  19.231  0.0892  0.1598  0.0130
94265W        W95129   1.307  13.572  18.247 -0.1915  0.0971  0.0588
94266W        W95130  22.878  14.215  21.943 -0.3145  0.0462 -0.0900
94267W        W95131   1.988  16.341  17.768  0.0425 -0.0075 -0.1418
94268W        W95132  28.355  17.207  21.265  0.0352 -0.1973 -0.1718
94269W        W95133  26.690  15.195  19.445  0.1735 -0.0994 -0.3879
94270W        W95134  27.379  15.252  23.096  0.0324  0.1251 -0.0106
94271W        W95135  27.196  16.628  21.360 -0.0444  0.1242 -0.1417
94272W        W95136  27.704  16.157  22.964  0.3462 -0.0602  0.2247
94273W        W95137  26.167  19.484  20.802 -0.0553  0.0879 -0.0890
94274W        W95138  23.777  20.520  23.406 -0.0601 -0.1835 -0.0693
94275W        W95139  27.186  18.104  16.710  0.0250  0.2427 -0.2516
94276W        W95140  29.120  17.033  19.558 -0.0108  0.1508 -0.2121
94277W        W95141  25.837  16.557  21.107  0.0369  0.1181  0.1165
94278W        W95142  28.690  17.567  16.850  0.1103  0.0185  0.2244
94279W        W95143  28.582  16.371  21.009 -0.2289 -0.0393 -0.0802
94280W        W95144  26.671  16.796  24.027 -0.0387 -0.0639  0.1379
94281W        W95145  27.782  14.864  22.169  0.1446  0.1737 -0.0859
94282W        W95146  25.131  16.961  22.606  0.0534 -0.0447 -0.0548
94283W        W95147  28.546  14.388  21.028 -0.1388  0.0907 -0.0235
94284W        W95148  28.652  16.072  25.054  0.0812 -0.2314  0.0952
94285W        W95149  24.833  16.548  20.063  0.0658 -0.0478 -0.2455
94286W        W95150  24.628  15.448  23.999  0.0773  0.1110  0.0131
94287W        W95151  25.773  17.158  16.366 -0.2176  0.1081  0.1551
94288W        W95152  25.830  17.833  21.479 -0.2583  0.1450  0.1314
94289W        W95153  28.398  15.534  19.667 -0.0828  0.2221 -0.1709
94290W        W95154  25.221  14.643  17.525 -0.2722 -0.1395 -0.0726
94291W        W95155  25.422  15.247  19.247 -0.0165 -0.1761  0.1269
94292W        W95156  23.960  15.338  22.289 -0.0959  0.1379  0.0971
94293W        W95157   0.092  16.391  18.778 -0.0314  0.4391 -0.0450
94294W        W95158  27.960  15.130  23.156  0.0527 -0.0176  0.4012
94295W        W95159  25.429  18.215  22.333  0.1396  0.2006  0.1627
94296W        W95160  24.721  16.579  23.506 -0.3546  0.0786  0.1800
94297W        W95161   0.500  13.043  18.195  0.2187 -0.1861 -0.1073
94298W        W95162  27.871  16.402  20.983 -0.1313  0.0868  0.0271
94299W        W95163  27.932  14.593  17.354  0.0899  0.1447 -0.0549
94300W        W95164  29.078  16.494  19.332 -0.0134  0.0163 -0.5825
94301W        W95165  25.892  15.023  23.874  0.0688  0.1064 -0.1010
94302W        W95166  27.326  16.092  17.869 -0.0020  0.1247  0.1959
94303W        W95167  28.184  14.621  21.383 -0.2673  0.2183 -0.1133
94304W        W95168   0.267  17.680  18.033 -0.0176 -0.0460  0.1974
94305W        W95169  28.122  15.603  20.095  0.1713  0.1707  0.2630
94306W        W95170   1.511  18.419  19.178 -0.1397  0.0311 -0.0434
94307W        W95171   0.529  13.961  18.903  0.0054 -0.0793  0.0384
94308W        W95172  27.279  16.352  23.237  0.2899 -0.0918 -0.0160
94309W        W95173  26.677  17.186  19.172  0.1368  0.3975  0.1080
94310W        W95174  26.293  13.693  20.554 -0.2939  0.1436  0.0837
94311W        W95175  26.603  17.616  23.783 -0.2322  0.1270  0.1039
94312W        W95176   0.220  17.365  18.952 -0.1113 -0.0059 -0.1198
94313W        W95177  29.102  16.563  19.918 -0.0291  0.2274 -0.1514
94314W        W95178  29.005  17.130  18.653  0.2561  0.1345  0.0614
94315W        W95179   0.906  15.987  22.746 -0.3037  0.1913 -0.1532
94316W        W95180  27.550  13.837  19.956 -0.3088 -0.0110  0.2458
94317W        W95181   0.946  16.104  18.768  0.1531 -0.1771 -0.1644
94318W        W95182  28.289  17.654  21.487  0.0617  0.3032  0.2582
94319W        W95183  25.848  17.696  19.487 -0.0341 -0.1265  0.0212
94320W        W95184  26.482  16.709  23.555  0.0334 -0.1742  0.0759
94321W        W95185  26.473  14.646  19.655  0.0718  0.0661 -0.0696
94322W        W95186  26.373  15.622  24.481 -0.0204  0.0094  0.0027
94323W        W95187  26.273  16.438  19.767  0.1270  0.0844  0.0181
94324W        W95188  25.391  14.828  22.040 -0.0863  0.1253  0.0350
94325W        W95189  24.809  15.188  18.961 -0.0324  0.1306  0.1784
94326W        W95190  28.878  15.322  17.339 -0.0107  0.2534 -0.2153
94327W        W95191  29.124  17.031  21.913 -0.3088 -0.0675  0.1286
94328W        W95192  27.510  15.789  19.275  0.4096  0.2361 -0.1189
94329W        W95193  26.984  18.365  19.877  0.0100  0.1532 -0.1081
94330W        W95194  26.170  18.944  17.255  0.1657 -0.0797  0.0302
94331W        W95195  25.387  17.980  21.790 -0.4690  0.1255  0.0411
94332W        W95196   0.307  17.563  20.301  0.0065  0.1460  0.2090
94333W        W95197  24.222  16.309  17.177  0.1879  0.1884 -0.1110
94334W        W95198  26.976  18.668  22.681 -0.1536 -0.0389  0.1022
94335W        W95199  27.777  14.799  19.509 -0.0962 -0.0009  0.1361
94336W        W95200  24.372  16.068  16.703 -0.2617 -0.0405 -0.4659
94337W        W95201  28.785  16.621  17.461 -0.1066 -0.1213  0.1557
94338W        W95202   0.026  16.598  17.868 -0.0399 -0.0002  0.3271
94339W        W95203  26.835  15.804  21.903 -0.4395 -0.0623  0.4038
94340W        W95204   0.985  14.194  18.278  0.0311  0.3504  0.1809
94341W        W95205   3.134  16.283  21.184  0.0741  0.0980  0.0379
94342W        W95206  27.728  19.437  21.843 -0.0391 -0.1270  0.2023
94343W        W95207  28.989  15.992  22.393  0.0774 -0.0285  0.1435
94344W        W95208  27.711  18.274  22.178  0.0946 -0.0845 -0.1703
94345W        W95209  28.209  21.540  19.519  0.0847  0.3453 -0.2173
94346W        W95210  28.083  22.020  19.275 -0.1216 -0.0466  0.0845
94347W        W95211  28.560  17.700  20.526 -0.0873  0.2776  0.1821
94348W        W95212  26.488  18.002  21.540 -0.1601  0.2992  0.0891
94349W        W95213  26.456  15.326  21.187 -0.1372 -0.0135 -0.2925
94350W        W95214  27.461  15.998  18.328 -0.1542 -0.0196 -0.2416
94351W        W95215  27.174  12.993  18.860 -0.0265 -0.0839 -0.2981
94352W        W95216  24.567  16.353  18.899  0.0246  0.0414  0.1223
94353W        W95217  27.017  15.038  21.642 -0.0518 -0.2673  0.4482
94354W        W95218  27.521  15.472  20.298 -0.0870 -0.1234  0.3512
94355W        W95219  24.533  16.505  17.628 -0.3755  0.5038  0.1999
94356W        W95220  26.972  16.494  17.772  0.1410 -0.0120 -0.3862
94357W        W95221  26.679  16.186  21.525  0.0055  0.1906 -0.1687
94358W        W95222  25.593  15.155  20.605 -0.0510 -0.0155  0.2028
94359W        W95223   0.923  15.135  22.413 -0.2892 -0.0464 -0.0117
94360W        W95224  27.236  16.483  16.328  0.0159  0.0602  0.0525
94361W        W95225  26.501  17.564  21.775  0.3193  0.0296  0.2568
94362W        W95226  27.678  17.286  20.586 -0.0896 -0.0119 -0.1614
94363W        W95227  25.828  16.592  22.820 -0.0561 -0.0593 -0.0445
94364W        W95228  27.826  13.760  18.930 -0.0357  0.2149  0.2381
94365W        W95229  26.799  17.389  20.311 -0.3832  0.0853  0.0652
94366W        W95230  26.010  15.531  22.798 -0.1058 -0.0419  0.0228
94367W        W95231  27.893  16.266  23.882  0.3886  0.2974  0.0461
94368W        W95232  27.720  14.545  17.847  0.0919  0.2070 -0.0266
94369W        W95233  27.057  16.711  17.301  0.2760  0.0864 -0.3456
94370W        W95234  27.358  14.773  21.422 -0.1054  0.0189  0.2865
94371W        W95235  26.226  14.999  19.313  0.0175 -0.1149  0.1438
94372W        W95236   1.096  16.604  18.951 -0.3012 -0.0126 -0.3121
94373W        W95237  27.717  18.323  20.352  0.1410 -0.0978 -0.4984
94374W        W95238   1.133  18.538  18.869 -0.0262 -0.2283 -0.1574
94375W        W95239  26.986  19.855  20.616 -0.1500  0.1265 -0.2586
94376W        W95240  24.929  15.248  20.264 -0.0671  0.0943  0.0154
94377W        W95241  27.259  14.851  19.317  0.1596 -0.1441  0.0171
94378W        W95242   1.303  14.862  18.385  0.0141  0.1171  0.3323
94379W        W95243  26.670  18.030  16.687  0.1637 -0.0524  0.3057
94380W        W95244   0.511  13.547  20.326 -0.1761 -0.0040  0.0404
94381W        W95245  26.593  15.248  21.868  0.1533 -0.0410 -0.0368
94382W        W95246  28.834  17.439  19.164 -0.0051 -0.0306 -0.2383
94383W        W95247  27.332  19.044  16.014  0.3644  0.3258  0.0973
94384W        W95248  25.785  16.316  22.316  0.1158  0.2916  0.0209
94385W        W95249  26.362  15.719  21.930  0.1748 -0.1244 -0.0119
94386W        W95250   2.197  16.060  19.295  0.0007  0.2542  0.2015
94387W        W95251  29.015  13.464  21.079  0.2475 -0.1098 -0.3447
94388W        W95252  26.544  16.043  20.031  0.0578  0.2213  0.0908
94389W        W95253   0.686  15.987  20.390  0.0587  0.1468 -0.0369
94390W        W95254  26.622  20.040  22.533  0.0602  0.0658 -0.0366
94391W        W95255  24.161  16.729  22.403  0.1443  0.0752  0.1113
94392W        W95256  28.242  17.188  22.250  0.0332  0.2845 -0.2647
94393W        W95257  27.410  19.178  19.989  0.1921 -0.0247  0.2153
94394W        W95258  26.192  16.471  21.468 -0.2935 -0.2499  0.2393
94395W        W95259  26.267  17.665  19.963  0.0533 -0.0811 -0.2380
94396W        W95260  26.237  16.960  18.187 -0.2409  0.1209 -0.0774
94397W        W95261  26.412  15.077  20.383  0.0374  0.0493 -0.1104
94398W        W95262   1.773  17.835  20.917  0.1423 -0.1498 -0.2338
94399W        W95263   0.249  17.160  24.117 -0.2607 -0.1229 -0.0035
94400W        W95264  28.101  19.556  19.380  0.1755  0.2531 -0.0117
94401W        W95265  25.621  15.433  21.077  0.4579 -0.1555  0.1730
94402W        W95266   1.277  17.060  20.889 -0.2770 -0.2225  0.2110
94403W        W95267  27.873  19.106  20.004  0.0781 -0.3453  0.5195
94404W        W95268  27.868  15.492  21.742 -0.0317  0.1583  0.3660
94405W        W95269   0.659  14.122  22.391  0.1882 -0.2158 -0.1182
94406W        W95270   2.389  16.806  20.562  0.1886  0.1141  0.1906
94407W        W95271  25.857  17.051  21.296 -0.0762 -0.1786  0.0614
94408W        W95272  27.560  15.058  16.272  0.0243  0.2225 -0.3308
94409W        W95273  24.022  18.415  24.073 -0.3030  0.1752  0.0702
94410W        W95274  27.579  15.304  24.376 -0.0129 -0.0003 -0.0998
94411W        W95275   0.161  16.456  23.835 -0.0881 -0.2398 -0.1332
94412W        W95276   3.703  19.199  26.089  0.0854  0.0490 -0.1005
94413W        W95277  24.358  17.231  22.131 -0.0790  0.0892  0.0371
94414W        W95278  24.696  16.095  23.803 -0.3780 -0.2105  0.2163
94415W        W95279  27.592  16.165  25.190 -0.2752 -0.4026 -0.0169
94416W        W95280  28.501  15.233  23.127 -0.0167 -0.0028  0.1587
94417W        W95281  27.161  18.834  25.886  0.0869 -0.1227 -0.1340
94418W        W95282  23.706  12.394  24.998 -0.1962 -0.2961  0.1234
94419W        W95283  26.654  15.615  26.398 -0.2285  0.1937  0.2643
94420W        W95284  27.826  15.488  22.751 -0.1357  0.0678  0.1214
94421W        W95285  27.360  14.767  23.223 -0.2136 -0.1677  0.1174
94422W        W95286  28.327  17.672  27.071 -0.0461  0.1646  0.0189
94423W        W95287  25.162  13.551  27.694 -0.1674 -0.1193 -0.0164
94424W        W95288  24.370  17.566  24.979  0.0621  0.0477  0.0654
94425W        W95289  26.359  19.004  21.684 -0.1477 -0.4789  0.0686
94426W        W95290  25.333  18.315  25.746 -0.1783  0.1474 -0.0343
94427W        W95291  25.682  14.754  26.333 -0.3203  0.2928 -0.2382
94428W        W95292   1.387  15.028  24.464  0.0223  0.0802 -0.0879
94429W        W95293   2.171  16.746  24.039 -0.1904  0.4180  0.0701
94430W        W95294  27.804  15.680  24.683 -0.1215  0.1547  0.1081
94431W        W95295   1.101  16.290  25.092  0.3129  0.0040 -0.0828
94432W        W95296  25.227  15.654  22.202  0.0781 -0.2117 -0.0248
94433W        W95297  27.454  17.010  24.338 -0.2421  0.1501 -0.1348
94434W        W95298  29.039  16.510  24.802  0.0467 -0.1080 -0.1458
94435W        W95299  26.284  15.308  23.143  0.1083  0.0501  0.0951
94436W        W95300   1.313  18.216  24.634 -0.1758  0.1999 -0.1996
94437W        W95301   0.016  16.108  25.059  0.2960  0.0638  0.2627
94438W        W95302   0.603  17.213  23.083  0.3087 -0.1442 -0.1490
94439W        W95303  26.290  16.066  25.423  0.0692 -0.3640  0.5529
94440W        W95304  25.443  16.184  24.998  0.2344 -0.0753 -0.1807
94441W        W95305  27.243  17.812  23.340 -0.0891  0.1389  0.0225
94442W        W95306  27.925  12.836  28.056 -0.0781 -0.2706 -0.4110
94443W        W95307   1.508  18.330  25.348 -0.1025 -0.0740  0.1605
94444W        W95308  25.479  12.439  20.654  0.0044  0.0085  0.1388
94445W        W95309  25.812  16.466  23.311  0.0823  0.0207  0.1920
94446W        W95310   1.057  15.275  21.749 -0.0232 -0.2138  0.2866
94447W        W95311   1.705  15.455  23.765 -0.4976 -0.1592  0.1407
94448W        W95312   1.092  12.713  21.424  0.1057 -0.3378  0.1119
94449W        W95313   2.158  15.751  24.628 -0.1315  0.3208  0.0113
94450W        W95314  26.511  18.101  24.375 -0.0161 -0.1926 -0.0295
94451W        W95315   1.220  16.069  24.279 -0.0737 -0.0617  0.0862
94452W        W95316  24.593  17.059  23.055  0.1301  0.1332 -0.1729
94453W        W95317  27.992  17.522  23.630 -0.0408  0.0214  0.2560
94454W        W95318  28.543  15.051  24.397  0.0948 -0.1704  0.4089
94455W        W95319   1.522  17.977  25.039 -0.4816  0.0986 -0.0679
94456W        W95320  26.649  17.840  23.312 -0.1120  0.1631  0.1087
94457W        W95321   0.565  14.801  22.400 -0.2264 -0.0398 -0.0807
94458W        W95322  27.348  17.457  24.155 -0.0233 -0.0034  0.1234
94459W        W95323   0.607  15.174  22.916 -0.1133 -0.0888 -0.0215
94460W        W95324  29.051  18.596  24.623 -0.4207 -0.1809  0.1115
94461W        W95325  27.720  16.740  24.700 -0.0201  0.0854 -0.0155
94462W        W95326  26.305  12.559  25.022  0.1285 -0.0299  0.0538
94463W        W95327  27.908  18.503  21.685  0.4669 -0.0309  0.0065
94464W        W95328  25.239  15.473  22.666 -0.2556 -0.3046  0.2258
94465W        W95329  27.383  14.591  22.730 -0.5617  0.0133 -0.1698
94466W        W95330  24.719  18.658  24.533 -0.1862  0.0692 -0.0481
94467W        W95331  28.263  18.464  24.017 -0.0535  0.3693 -0.0726
94468W        W95332   0.993  15.968  19.260  0.2975 -0.1538 -0.0526
94469W        W95333  23.416  18.777  22.757 -0.2527  0.1327  0.1517
94470W        W95334  27.339  18.414  25.675 -0.0327 -0.1363 -0.0777
94471W        W95335  26.010  18.630  26.278  0.1118 -0.0024  0.0518
94472W        W95336   0.945  12.444  25.327 -0.1158 -0.0235 -0.1405
94473W        W95337  27.979  13.117  21.752  0.1169  0.1524  0.0116
94474W        W95338  24.580  18.379  23.915  0.0388 -0.1016  0.1654
94475W        W95339  27.109  14.190  21.807  0.2602 -0.0681 -0.1945
94476W        W95340  27.342  19.247  22.049 -0.1190  0.3557  0.1851
94477W        W95341  27.833  18.965  21.958  0.2391 -0.0830  0.2746
94478W        W95342  28.707  16.293  27.731  0.2225  0.2229  0.0055
94479W        W95343  27.513  15.940  24.229 -0.3804  0.1263 -0.0843
94480W        W95344   1.151  19.120  23.703  0.0118 -0.0990 -0.0434
94481W        W95345  27.053  16.612  25.943 -0.0845  0.2702  0.2972
94482W        W95346  28.052  18.618  22.233 -0.0186 -0.0189 -0.2233
94483W        W95347  23.958  20.573  23.876  0.1705 -0.0491  0.3113
94484W        W95348  25.263  16.148  24.545  0.0805  0.1059  0.3485
94485W        W95349  26.169  15.335  24.117  0.0232  0.1067 -0.1428
94486W        W95350  28.335  14.422  24.272 -0.1306  0.0201  0.0117
94487W        W95351  26.628  17.612  22.818 -0.0119 -0.2752 -0.2134
94488W        W95352  25.265  15.413  24.757 -0.0147 -0.1434  0.0398
94489W        W95353  26.320  15.162  24.596  0.1970  0.2593  0.0956
94490W        W95354  26.044  14.304  24.400  0.1865 -0.0081  0.2039
94491W        W95355  28.501  15.154  25.226 -0.0885  0.2367 -0.1470
94492W        W95356  25.879  15.772  26.302  0.1364  0.4693 -0.0050
94493W        W95357  27.635  15.679  17.437  0.3583  0.0863 -0.2083
94494W        W95358  27.587  19.389  25.413 -0.0858  0.0035  0.0096
94495W        W95359  27.604  15.047  26.189 -0.2488  0.3725 -0.0811
94496W        W95360   3.270  19.212  25.617 -0.5604  0.0315 -0.2178
94497W        W95361   0.217  15.962  24.070 -0.1578  0.0807  0.2712
94498W        W95362  28.400  15.071  21.274 -0.3064  0.3189 -0.0989
94499W        W95363   1.682  17.844  26.714 -0.4588 -0.1534 -0.0443
94500W        W95364  26.712  18.564  24.226 -0.0681 -0.0158  0.0469
94501W        W95365  27.440  13.868  22.719  0.2433  0.0263 -0.0838
94502W        W95366  27.695  14.979  25.658  0.0701 -0.1187 -0.0875
94503W        W95367   1.888  17.999  23.495 -0.0736 -0.1354 -0.0652
94504W        W95368   0.795  15.681  25.983 -0.2391  0.2320  0.1489
94505W        W95369  25.662  19.200  24.296  0.2030  0.1280 -0.1242
94506W        W95370  26.557  14.240  25.035  0.1386  0.1361 -0.1335
94507W        W95371   1.771  16.962  24.211 -0.0273 -0.0475 -0.0174
94508W        W95372  29.008  15.697  20.544 -0.3462  0.1193 -0.2116
94509W        W95373  23.295  14.269  22.468  0.2969  0.0986  0.0723
94510W        W95374  27.792  17.565  23.051 -0.0257  0.2305  0.0859
94511W        W95375   0.118  17.671  19.395 -0.2447 -0.2413  0.0194
94512W        W95376  28.669  14.321  24.649  0.0713  0.1842 -0.1006
94513W        W95377  27.460  15.691  25.397 -0.0170  0.0082  0.2540
94514W        W95378  27.462  18.330  23.486 -0.0799  0.1694 -0.1887
94515W        W95379  27.645  15.941  26.552  0.3844  0.0073  0.2987
94516W        W95380   0.062  15.542  24.945 -0.1682 -0.2509 -0.0601
94517W        W95381  26.630  15.731  25.399  0.3585  0.0225 -0.0159
94518W        W95382  24.204  15.397  24.479  0.1530 -0.3043  0.0638
94519W        W95383  26.261  19.720  21.408  0.0314  0.1450  0.1312
94520W        W95384   0.234  14.764  24.254 -0.0226  0.1600  0.0401
94521W        W95385  26.657  17.475  22.329  0.0947  0.0490 -0.3525
94522W        W95386  26.415  17.390  23.345  0.1859  0.0194  0.1583
94523W        W95387  26.372  17.153  21.993  0.2845 -0.0435  0.2288
94524W        W95388  27.830  14.356  24.360  0.2430  0.1150  0.0040
94525W        W95389  23.454  18.777  23.320 -0.2259 -0.1696 -0.0683
94526W        W95390  26.322  13.387  25.356  0.2666  0.4414  0.0475
94527W        W95391  29.116  16.543  22.148  0.2055  0.1213  0.0742
94528W        W95392   1.273  16.119  23.587  0.1350  0.2676 -0.1006
94529W        W95393  27.373  16.279  23.896 -0.1550 -0.0235 -0.2946
94530W        W95394  27.288  16.272  22.651 -0.1176 -0.3466  0.1247
94531W        W95395   0.113  16.430  22.690 -0.2403  0.0591 -0.1988
94532W        W95396  26.735  16.432  23.151 -0.1106  0.0323  0.0636
94533W        W95397  28.228  13.946  24.430  0.0936 -0.0722 -0.1364
94534W        W95398  25.812  14.811  24.718  0.0057  0.2726  0.0528
94535W        W95399  26.494  17.696  24.788 -0.0351  0.1243 -0.2503
94536W        W95400  28.629  18.610  23.431 -0.0864  0.0282 -0.1936
94537W        W95401  27.005  18.235  23.353  0.1343  0.0747 -0.2681
94538W        W95402   0.075  15.340  26.496  0.1388 -0.0989  0.0044
94539W        W95403   0.346  15.947  23.589 -0.0116  0.1849 -0.2638
94540W        W95404  26.483  18.933  23.885 -0.0128 -0.0010  0.2120
94541W        W95405   0.724  14.943  21.941 -0.0053  0.0504 -0.3172
94542W        W95406  26.520  17.045  24.480 -0.2630  0.1595 -0.0987
94543W        W95407  24.288  14.520  27.897  0.2578 -0.0550 -0.1555
94544W        W95408  27.719  16.154  23.460 -0.0458  0.2905  0.1047
94545W        W95409   2.240  17.803  25.230 -0.0588  0.0840  0.0263
94546W        W95410   1.639  17.013  22.437 -0.2284 -0.1703  0.2382
94547W        W95411  27.354  19.040  22.826  0.1246  0.2196  0.0876
94548W        W95412  26.611  16.015  24.400 -0.2777 -0.1161  0.1563
94549W        W95413  27.708  17.031  26.471  0.1049 -0.1222 -0.0281
94550W        W95414  24.977  15.844  21.786 -0.0268  0.1695  0.0556
94551W        W95415  25.709  16.602  24.285 -0.0342  0.1187 -0.0326
94552W        W95416  27.757  17.902  24.809 -0.2191  0.5541 -0.1409
94553W        W95417  26.844  13.368  25.536  0.0613 -0.2976  0.0050
94554W        W95418  28.657  16.494  26.242 -0.1824  0.0834  0.1075
94555W        W95419   0.698  16.353  21.888 -0.1260  0.1944  0.0637
94556W        W95420  28.575  19.449  21.537  0.3508 -0.0402 -0.1080
94557W        W95421  27.772  17.147  23.907  0.0412 -0.0016  0.1521
94558W        W95422   0.455  20.097  25.895  0.3518  0.0698  0.1023
94559W        W95423  26.286  12.554  23.563 -0.2905  0.0127 -0.0772
94560W        W95424  28.120  18.536  27.262  0.4185 -0.1962 -0.2008
94561W        W95425  27.682  15.858  22.028 -0.4783  0.0108  0.0436
94562W        W95426  29.124  16.472  24.282  0.0685 -0.2552 -0.1578
94563W        W95427   0.801  17.515  24.306  0.1748  0.1976  0.0233
94564W        W95428  28.439  16.514  24.895  0.0129  0.2758 -0.0304
94565W        W95429  23.565  15.631  22.584 -0.1093 -0.1101  0.0646
94566W        W95430  23.242  14.785  20.199 -0.0741 -0.2545  0.1358
94567W        W95431   0.526  14.222  23.082 -0.1645  0.2066  0.0501
94568W        W95432  27.984  13.866  27.351 -0.0187  0.2024  0.1166
94569W        W95433  29.112  18.084  24.863 -0.0658 -0.0641 -0.1603
94570W        W95434  27.873  18.702  26.424 -0.2285 -0.2816  0.0925
94571W        W95435  27.407  17.706  26.524  0.2886 -0.0328  0.2888
94572W        W95436  28.919  15.539  26.153  0.2436  0.1929 -0.0477
94573W        W95437  28.841  16.189  26.646 -0.0743 -0.0659  0.1285
94574W        W95438  28.106  14.860  24.343  0.2560  0.0993  0.0187
94575W        W95439  24.919  18.388  22.939 -0.1542  0.0345  0.2716
94576W        W95440  26.372  17.134  26.368  0.1827  0.3108  0.2353
94577W        W95441  24.426  17.496  20.719 -0.0469 -0.0039  0.4017
94578W        W95442   0.541  16.916  25.349 -0.0000 -0.0454 -0.1152
94579W        W95443  29.045  16.772  21.222 -0.3326  0.2766  0.0945
94580W        W95444  28.678  16.389  23.980  0.1024  0.1404 -0.2753
94581W        W95445  28.874  19.685  23.215  0.0388  0.1139 -0.0597
94582W        W95446  27.661  16.572  24.243  0.1082 -0.1091  0.5278
94583W        W95447   3.440  15.296  20.171 -0.2920  0.3669 -0.0969
94584W        W95448  23.593  18.097  24.911 -0.3962 -0.2481 -0.0460
94585W        W95449   0.473  17.662  22.864 -0.2943 -0.2619 -0.0582
94586W        W95450  26.166  15.079  25.088  0.0323  0.0616  0.0382
94587W        W95451  26.946  17.397  23.289 -0.0020  0.2470 -0.1402
94588W        W95452  25.006  15.228  22.258  0.0237  0.1743 -0.3293
94589W        W95453  28.647  16.199  22.677 -0.3145  0.0490 -0.0504
94590W        W95454  25.721  17.331  23.197  0.4618  0.0409 -0.1340
94591W        W95455  26.287  14.842  22.908  0.1442  0.1147 -0.0449
94592W        W95456  23.670  13.956  20.808  0.2114  0.0979 -0.0400
94593W        W95457  27.553  17.597  25.975 -0.2452 -0.0441 -0.3797
94594W        W95458   1.678  16.737  18.726  0.0620 -0.0589 -0.1761
94595W        W95459  29.125  17.349  22.989  0.1286  0.0958  0.2130
94596W        W95460  26.930  18.800  25.123  0.0615  0.0009 -0.1512
94597W        W95461  26.537  16.255  23.858  0.1844 -0.0890 -0.0933
94598W        W95462  24.327  16.522  23.183  0.0756 -0.0956  0.1343
94599W        W95463  25.361  18.727  22.535  0.2765  0.1067 -0.1234
94600W        W95464  26.949  17.726  24.137 -0.0050  0.0523  0.1979
94601W        W95465  28.195  13.169  25.562 -0.1148 -0.0524 -0.3019
94602W        W95466  28.781  15.641  25.201  0.0168 -0.0665  0.1674
94603W        W95467  27.045  14.511  24.924 -0.0603 -0.2633  0.1539
94604W        W95468  26.283  16.237  23.464  0.1067  0.0915 -0.0802
94605W        W95469  25.090  14.556  24.049 -0.1286 -0.2244 -0.2978
94606W        W95470  25.725  15.105  25.637 -0.4465 -0.0861 -0.1513
94607W        W95471  28.806  14.831  24.875 -0.1182  0.2627 -0.2181
94608W        W95472  24.572  17.926  24.654 -0.0453 -0.0581 -0.1673
94609W        W95473  28.871  14.129  23.427 -0.1026  0.1722  0.0686
94610W        W95474  28.971  14.852  23.466 -0.1553  0.0662 -0.0920
94611W        W95475  27.704  12.726  26.302  0.0956 -0.1249  0.1319
94612W        W95476  28.598  16.850  23.647 -0.0260 -0.1605  0.4538
94613W        W95477  24.573  13.647  21.202 -0.3535 -0.0539  0.0718
94614W        W95478  27.349  15.646  24.899  0.2454 -0.1510 -0.2458
94615W        W95479  28.729  16.987  25.570 -0.1414 -0.3851 -0.1401
94616W        W95480  26.705  17.015  20.957 -0.1484 -0.2014  0.0603
94617W        W95481  26.143  15.339  20.751  0.1410 -0.1195 -0.2420
94618W        W95482  24.800  18.647  25.521 -0.3969  0.1303  0.1202
94619W        W95483  25.129  14.097  24.739  0.0727 -0.0940  0.4036
94620W        W95484  24.789  15.140  22.812  0.0597  0.1530 -0.1957
94621W        W95485  27.930  13.531  25.784 -0.1369 -0.2003 -0.0063
94622W        W95486   1.390  15.969  21.581  0.0423 -0.0873 -0.0189
94623W        W95487   2.040  14.973  21.789 -0.0471  0.0210 -0.2156
94624W        W95488   0.030  15.164  24.570  0.0038  0.1053 -0.1110
94625W        W95489  27.261  17.212  19.137  0.0177  0.0090  0.3184
94626W        W95490  26.847  16.781  24.857  0.1127  0.0090 -0.2050
94627W        W95491  27.242  16.858  26.354 -0.0919 -0.0467 -0.0606
94628W        W95492   1.386  14.475  26.308 -0.0141 -0.0253  0.2411
94629W        W95493   1.239  17.680  26.900 -0.1267  0.0175  0.0377
94630W        W95494  28.851  18.775  25.111  0.4389  0.1313 -0.3690
94631W        W95495  26.302  14.188  20.693 -0.1063 -0.0163  0.0298
94632W        W95496  27.526  17.127  21.518  0.1855  0.0161 -0.0343
94633W        W95497  27.245  14.177  26.635  0.0035 -0.0205 -0.1205
94634W        W95498  27.596  16.787  25.521 -0.1781 -0.1263 -0.1128
94635W        W95499  28.510  14.851  23.919  0.0224 -0.2452  0.0814
94636W        W95500   1.015  18.069  23.443 -0.1993 -0.0541  0.2792
94637W        W95501  27.466  17.873  22.487 -0.0428  0.0139 -0.2277
94638W        W95502  27.875  15.731  25.204 -0.0554  0.0681  0.1911
94639W        W95503   0.142  16.530  25.335 -0.1068  0.0798 -0.0337
94640W        W95504  23.858  17.655  22.245 -0.0660 -0.2357 -0.0116
94641W        W95505   0.453  15.712  23.138  0.1089  0.1811 -0.1039
94642W        W95506  27.942  15.172  25.277 -0.3651  0.3082 -0.1149
94643W        W95507  27.828  18.398  22.677  0.1085 -0.0039 -0.3476
94644W        W95508  28.901  15.979  24.176  0.1402 -0.0625 -0.1316
94645W        W95509   0.102  15.864  25.920  0.0486  0.0245 -0.2493
94646W        W95510   0.359  16.220  24.738 -0.0687  0.2065  0.2869
94647W        W95511  28.397  16.701  23.123  0.1699  0.0235  0.2565
94648W        W95512  28.358  18.275  21.642 -0.2342  0.2517  0.0974
94649W        W95513  25.899  16.846  27.915  0.2506 -0.0712 -0.1240
94650W        W95514  26.189  13.949  25.319 -0.0944 -0.4544  0.2593
94651W        W95515  25.957  15.044  26.078 -0.2055 -0.0487 -0.0916
94652W        W95516   1.345  15.659   0.026  0.0700  0.0350 -0.1028
94653W        W95517  25.548  15.636  23.013 -0.3044  0.0218 -0.1287
94654W        W95518  28.909  16.988  23.225 -0.1880 -0.1150 -0.0500
94655W        W95519  28.026  19.135  26.154 -0.1257 -0.0406  0.0948
94656W        W95520  28.905  19.167  23.448 -0.1293 -0.1333 -0.0597
94657W        W95521  26.027  13.331  23.506  0.0742  0.2799 -0.2881
94658W        W95522  28.449  17.277  24.556 -0.1604 -0.0368  0.0603
94659W        W95523  27.359  17.048  25.877  0.0720  0.1155 -0.0725
94660W        W95524  28.766  19.091  26.079  0.0536  0.4535 -0.0436
94661W        W95525  28.176  15.999  24.851 -0.2672 -0.1435 -0.3066
94662W        W95526  24.261  16.849  19.620 -0.1184 -0.0492  0.3370
94663W        W95527   2.236  19.721  23.785 -0.3463  0.0988  0.2791
94664W        W95528   1.163  16.638  23.473 -0.2023  0.0216  0.0874
94665W        W95529  25.726  15.801  24.840 -0.1238  0.0672 -0.0889
94666W        W95530  28.443  17.057  24.043 -0.2164  0.0324 -0.0914
94667W        W95531  28.723  15.300  23.546  0.3072  0.1850  0.1144
94668W        W95532  24.462  15.976  23.336 -0.4034 -0.2167 -0.1357
94669W        W95533  29.091  15.746  26.700 -0.3650 -0.1646  0.2745
94670W        W95534  28.952  16.866  24.014  0.0454 -0.0500  0.0103
94671W        W95535  27.948  14.352  23.332 -0.0402  0.1580 -0.3264
94672W        W95536  26.870  19.103  23.127  0.1519  0.2402 -0.0501
94673W        W95537  25.608  18.733  24.447  0.3182 -0.0551 -0.0073
94674W        W95538  26.024  20.328  20.586  0.0566 -0.1460 -0.1687
94675W        W95539  28.128  17.012  23.565  0.1221 -0.3925 -0.4609
94676W        W95540  27.147  17.075  25.310 -0.0800  0.1038  0.0242
94677W        W95541  27.447  15.492  21.432 -0.1978  0.2231 -0.1944
94678W        W95542  28.971  16.623  23.536  0.3097 -0.0781  0.0926
94679W        W95543  28.477  15.176  26.298  0.0642 -0.0018 -0.1335
94680W        W95544  28.634  16.722  24.409  0.2940  0.0534 -0.0338
94681W        W95545  28.199  17.893  23.898  0.4479 -0.0859 -0.0420
94682W        W95546  27.677  21.362  25.811  0.1764 -0.0704 -0.0156
94683W        W95547   1.019  15.773  25.123  0.1992  0.1779 -0.1308
94684W        W95548  24.242  13.650  26.248  0.1740 -0.0437 -0.2614
94685W        W95549  26.978  15.071  23.664 -0.2133 -0.2028 -0.2024
94686W        W95550  26.373  16.182  22.923 -0.1027  0.2724 -0.0309
94687W        W95551  25.324  17.078  24.094 -0.3726  0.0005  0.0633
94688W        W95552  27.670  15.374  23.470  0.0257  0.0828  0.2532
94689W        W95553  27.038  15.467  25.213 -0.1817 -0.0647 -0.0579
94690W        W95554  23.597  16.033  21.879 -0.2013  0.1039 -0.0930
94691W        W95555  22.202  17.205  26.374 -0.0656  0.1813 -0.0554
94692W        W95556  27.464  16.851  19.440  0.2097 -0.2040 -0.1265
94693W        W95557  29.144  14.277  24.291  0.0939 -0.2647  0.3791
94694W        W95558   0.898  17.884  23.892  0.0280  0.1273  0.0754
94695W        W95559  25.424  14.457  24.971 -0.2528 -0.3294  0.1527
94696W        W95560  28.796  15.302  21.618 -0.3919  0.0617  0.1353
94697W        W95561   1.857  15.068  22.292 -0.0392  0.1692 -0.1808
94698W        W95562  29.129  18.516  22.301  0.2766  0.2038 -0.1537
94699W        W95563   2.308  14.576  20.463 -0.0515  0.1175 -0.2726
94700W        W95564   0.483  16.484  25.691 -0.0716  0.0539 -0.0259
94701W        W95565  28.358  15.036  26.802 -0.0379 -0.0158 -0.0814
94702W        W95566  25.183  17.078  24.870 -0.1739 -0.0233  0.1996
94703W        W95567  25.383  14.962  23.942  0.0761 -0.1079  0.0210
94704W        W95568  25.501  17.395  22.575  0.1397  0.1364 -0.0676
94705W        W95569   0.062  17.640  25.062 -0.0006 -0.2525  0.4197
94706W        W95570  28.858  17.299  24.876  0.5864  0.2228  0.1576
94707W        W95571  26.517  19.020  24.394  0.1596  0.1230 -0.0092
94708W        W95572  27.468  15.126  23.855  0.0836 -0.0924  0.2559
94709W        W95573  26.829  13.991  26.347 -0.0331  0.1233  0.1430
94710W        W95574  27.670  18.988  25.796 -0.1943 -0.0104 -0.0200
94711W        W95575   2.096  17.328  24.293  0.0788 -0.0237  0.2632
94712W        W95576   1.080  16.575  21.112 -0.3084  0.0765 -0.1363
94713W        W95577  27.117  18.108  22.093  0.1905 -0.3972 -0.1022
94714W        W95578  28.380  20.186  27.025  0.1751 -0.0590  0.1317
94715W        W95579  27.550  13.902  24.209  0.1337 -0.2060  0.1688
94716W        W95580  26.228  15.885  23.978 -0.0453  0.0923 -0.2859
94717W        W95581  27.985  19.337  23.836  0.0760  0.0126  0.0836
94718W        W95582  26.251  14.661  20.111  0.2520 -0.1287 -0.0870
94719W        W95583  28.089  17.763  25.409  0.0150 -0.2202  0.2113
94720W        W95584  29.005  16.489  20.790  0.0817  0.0663 -0.1093
94721W        W95585   1.473  18.108  23.215  0.1723  0.1225 -0.0392
94722W        W95586  25.648  17.889  25.907  0.0374  0.0858  0.2491
94723W        W95587  24.911  15.957  24.813  0.0765  0.2654  0.1394
94724W        W95588  26.230  16.465  22.536  0.1654 -0.2232  0.0229
94725W        W95589  27.583  14.155  23.705 -0.2128  0.0402 -0.0747
94726W        W95590   1.992  18.299  25.316 -0.2491  0.1989  0.1577
94727W        W95591  28.894  17.340  24.310  0.2116  0.1135 -0.2533
94728W        W95592  25.832  20.217  24.505 -0.0031 -0.0685  0.0169
94729W        W95593   0.620  15.584  22.629  0.0889  0.0351 -0.0400
94730W        W95594  25.659  18.275  26.238 -0.0554 -0.1260  0.1309
94731W        W95595   0.860  15.453  23.504 -0.0556 -0.0506  0.2394
94732W        W95596  24.105  17.898  23.772  0.2394  0.0106 -0.4302
94733W        W95597  26.865  18.590  25.592 -0.4569  0.0531  0.0712
94734W        W95598  28.375  14.747  27.266  0.0151 -0.1980 -0.2768
94735W        W95599  26.902  15.436  22.263 -0.1559 -0.1781  0.2755
94736W        W95600  26.066  17.398  22.280 -0.1471  0.0530  0.2127
94737W        W95601  26.683  14.878  24.185  0.1028 -0.0528 -0.0500
94738W        W95602  28.238  15.482  25.487 -0.1275 -0.0705 -0.0915
94739W        W95603   2.223  15.825  23.054  0.1051 -0.1286 -0.0844
94740W        W95604   4.122  16.179  27.098 -0.0843  0.0329 -0.0229
94741W        W95605  24.906  19.430  23.734 -0.0957 -0.1353 -0.2902
94742W        W95606   1.720  16.249  26.791 -0.2081  0.0718 -0.2051
94743W        W95607  26.856  18.145  27.079  0.1941  0.0761 -0.2380
94744W        W95608  28.144  19.894  23.778  0.0470  0.0481 -0.0705
94745W        W95609   1.135  19.000  23.036 -0.3856 -0.3846  0.0079
94746W        W95610   1.348  16.566  20.752  0.0774 -0.0195  0.1934
94747W        W95611  27.403  13.628  24.638  0.0669  0.4701  0.2194
94748W        W95612  25.152  17.869  24.587  0.0251  0.0863 -0.2074
94749W        W95613  27.617  14.880  28.848 -0.2501 -0.1708 -0.0769
94750W        W95614  26.259  13.013  26.493 -0.0758 -0.2840  0.2005
94751W        W95615  25.312  18.978  21.682  0.1311  0.0704  0.0642
94752W        W95616  26.515  14.492  22.494 -0.2511 -0.1005  0.0233
94753W        W95617  27.111  18.020  25.542  0.0096  0.0041 -0.3957
94754W        W95618  27.815  18.153  25.798 -0.1308  0.1672 -0.2752
94755W        W95619  24.018  14.280  22.019 -0.0630 -0.1048 -0.1900
94756W        W95620  27.997  17.029  24.364  0.3216  0.1762  0.1431
94757W        W95621  25.397  12.404  23.677  0.0102  0.1080 -0.0827
94758W        W95622   0.546  18.269  24.076  0.0548 -0.1842 -0.2259
94759W        W95623   1.467  17.430  19.370  0.3499  0.1201  0.0071
94760W        W95624  28.985  19.186  23.924  0.0887 -0.0209 -0.0108
94761W        W95625  26.483  16.458  25.108  0.1874 -0.1851 -0.0191
94762W        W95626  28.132  18.147  23.004 -0.1270  0.0706  0.2049
94763W        W95627  28.510  17.078  18.389 -0.2460 -0.2376 -0.1120
94764W        W95628  23.471  15.985  25.811 -0.0392  0.2008  0.0119
94765W        W95629  29.112  16.109  21.819 -0.0040  0.1018 -0.2254
94766W        W95630  26.909  12.630  28.237 -0.2551  0.3306  0.2338
94767W        W95631  26.734  14.823  24.719 -0.2761 -0.1816  0.1439
94768W        W95632  27.218  17.047  23.805 -0.4233  0.1304 -0.2410
94769W        W95633  28.299  14.908  24.823 -0.1556 -0.0425 -0.1170
94770W        W95634  28.804  15.453  22.282  0.0866 -0.0859 -0.0066
94771W        W95635  25.217  14.848  22.517 -0.2593  0.2477 -0.0321
94772W        W95636   1.748  15.907  24.453  0.0739 -0.3496  0.1513
94773W        W95637   0.181  17.451  24.627  0.2986 -0.1364 -0.1832
94774W        W95638   0.258  15.826  20.211 -0.1366  0.1987  0.0526
94775W        W95639   0.989  15.559  23.005 -0.1487  0.0924 -0.0849
94776W        W95640  26.844  15.892  23.050  0.3393  0.1414 -0.1468
94777W        W95641  28.034  13.799  23.494  0.2293  0.1227  0.0303
94778W        W95642  27.763  16.778  20.632 -0.0321  0.2205 -0.0435
94779W        W95643   3.832  16.867  23.060 -0.1216  0.4386 -0.1522
94780W        W95644  25.759  17.113  23.861 -0.0916  0.0316 -0.0015
94781W        W95645  28.067  18.664  25.882  0.0346  0.2658  0.1195
94782W        W95646  26.917  16.504  20.974 -0.0496 -0.2169 -0.1031
94783W        W95647   0.876  16.982  26.315 -0.0399  0.2532 -0.2373
94784W        W95648  28.636  15.216  25.729 -0.1918  0.0769  0.1202
94785W        W95649   2.546  19.851  26.625 -0.0804  0.0223 -0.1930
94786W        W95650  29.045  12.091  25.929  0.2313 -0.3896 -0.1398
94787W        W95651  25.701  14.291  26.121  0.0138  0.0110  0.1299
94788W        W95652  27.635  17.022  25.088  0.3346  0.0134 -0.1589
94789W        W95653  24.523  16.829  21.887  0.1599 -0.0609 -0.2086
94790W        W95654  25.802  16.194  24.503  0.2026 -0.0820 -0.1419
94791W        W95655   1.595  15.727  27.521  0.0026  0.1536 -0.4224
94792W        W95656  26.994  16.180  24.111  0.0602  0.0564 -0.0490
94793W        W95657  25.417  14.959  24.947  0.0577  0.1906  0.0201
94794W        W95658  28.691  16.904  20.836  0.1746 -0.0417 -0.0465
94795W        W95659  25.713  18.144  24.210  0.0179 -0.0576  0.2294
94796W        W95660  27.372  16.584  24.985 -0.0387 -0.2891 -0.0289
94797W        W95661   0.923  16.850  25.018 -0.3161 -0.0572 -0.0586
94798W        W95662  28.403  16.832  25.962 -0.1412  0.0322 -0.0841
94799W        W95663  26.466  17.562  24.317 -0.2290 -0.1307  0.0730
94800W        W95664   1.050  17.493  26.444  0.1387  0.1189  0.1268
94801W        W95665  28.954  17.222  23.687 -0.0951  0.0248 -0.4161
94802W        W95666  27.163  18.774  23.340 -0.0852  0.2519  0.0910
94803W        W95667   0.459  17.270  25.024  0.1285 -0.2016 -0.3720
94804W        W95668  26.033  18.194  22.872 -0.0417  0.1006 -0.0726
94805W        W95669  27.485  17.791  22.009 -0.1920 -0.1690 -0.0953
94806W        W95670  26.694  18.603  23.107  0.0437  0.0148 -0.3752
94807W        W95671  24.997  16.875  20.996  0.0395  0.1434  0.2735
94808W        W95672  25.572  18.667   2.284 -0.0983  0.0970 -0.1592
94809W        W95673  25.334  15.408  27.872 -0.0092  0.1743  0.1653
94810W        W95674  28.025  16.741  26.780  0.0429 -0.1161 -0.0568
94811W        W95675  28.724  16.227  27.175  0.2398  0.3245 -0.0234
94812W        W95676   0.730  18.446  25.319  0.1303  0.0728 -0.1543
94813W        W95677  28.658  18.431  27.343  0.0895  0.0118  0.1239
94814W        W95678  26.045  14.324  26.503 -0.3673  0.0712  0.1682
94815W        W95679  28.895  16.645  26.988  0.0002  0.0911  0.0355
94816W        W95680  26.826  15.891  27.727 -0.1035  0.0413 -0.1027
94817W        W95681  27.837  16.202  27.861  0.0031  0.2571  0.2077
94818W        W95682   0.699  14.137  27.284 -0.0448  0.0924 -0.3961
94819W        W95683  28.572  16.006  28.215  0.0195 -0.2757  0.1660
94820W        W95684  26.170  15.383  26.432  0.2611  0.3153  0.1012
94821W        W95685   1.478  16.018   1.729  0.0926 -0.3369  0.0445
94822W        W95686  25.160  14.667  28.526  0.2158 -0.1401 -0.2355
94823W        W95687  28.318  15.905   0.228  0.0185 -0.2048 -0.1641
94824W        W95688  27.779  18.186  25.224  0.4237  0.0397  0.1025
94825W        W95689  26.870  16.889   0.261  0.1766 -0.0404 -0.0479
94826W        W95690  26.913  13.899   0.614 -0.2340 -0.2199 -0.1042
94827W        W95691   0.394  14.933   1.009  0.0735  0.3713 -0.2832
94828W        W95692  28.873  15.055  27.987  0.0977  0.0138 -0.0635
94829W        W95693  28.106  14.943  29.128  0.1035  0.0605 -0.1302
94830W        W95694   0.457  16.753   0.067 -0.1708  0.2508  0.1941
94831W        W95695  25.818  17.772  27.899  0.3522  0.0429 -0.4189
94832W        W95696  25.129  16.217  26.868 -0.1148  0.1660 -0.1227
94833W        W95697  27.725  19.249  26.774 -0.1319  0.3793  0.1319
94834W        W95698   2.153  16.966   2.424 -0.0143 -0.1409  0.0648
94835W        W95699  28.067  15.302  28.220 -0.2429  0.1638  0.0524
94836W        W95700   1.278  16.365   0.707  0.3024 -0.1098  0.0128
94837W        W95701  27.510  17.764  27.574 -0.0498 -0.0499 -0.1638
94838W        W95702  23.392  14.093  26.314 -0.0319  0.1577  0.0822
94839W        W95703  28.893  17.624  27.981 -0.4253  0.0670 -0.1344
94840W        W95704  28.859  20.036  27.039 -0.1190  0.2320 -0.0630
94841W        W95705  25.386  17.941  27.643  0.0929 -0.1153  0.0304
94842W        W95706  26.684  17.931   2.229 -0.2417  0.0550 -0.0557
94843W        W95707   1.079  18.698  29.012  0.0159 -0.0652  0.0056
94844W        W95708  28.450  17.506  25.135  0.0596  0.0364  0.3133
94845W        W95709  24.651  16.060  28.654  0.3039  0.0256 -0.4027
94846W        W95710   0.078  18.993  25.819 -0.3116 -0.0734 -0.2318
94847W        W95711  29.047  18.222  27.717 -0.2735 -0.2536 -0.0510
94848W        W95712   0.407  14.506  25.933 -0.0145 -0.0526  0.3108
94849W        W95713   0.466  17.804   0.767  0.1590  0.0299  0.2302
94850W        W95714  26.795  17.135  28.115 -0.2175  0.1058 -0.1644
94851W        W95715  27.714  20.806  28.747  0.0855 -0.1370 -0.0387
94852W        W95716  26.987  18.859  28.134 -0.1828  0.1978 -0.3005
94853W        W95717  25.767  19.690  25.476  0.1992 -0.0081  0.1286
94854W        W95718  26.200  16.681  26.299  0.1164  0.0227  0.2798
94855W        W95719  28.542  18.303   1.922 -0.2755  0.2615  0.0350
94856W        W95720  26.864  16.136  29.066 -0.1727  0.0392  0.0208
94857W        W95721  28.761  15.370  26.716 -0.3080  0.0411  0.0418
94858W        W95722   0.498  15.352  26.900  0.1557 -0.0682 -0.0172
94859W        W95723  27.742  15.867  28.865 -0.0940 -0.1428  0.1745
94860W        W95724   0.586  17.854  28.072  0.3678 -0.0684  0.2020
94861W        W95725   0.249  17.705  26.080 -0.0319  0.0085  0.2214
94862W        W95726  28.053  15.799  28.471  0.0583  0.0330 -0.0933
94863W        W95727  25.349  19.435  27.122  0.2294 -0.1932  0.1865
94864W        W95728  27.295  14.518  27.571 -0.2142 -0.0884 -0.2080
94865W        W95729  26.367  15.649  26.839  0.0329 -0.3532 -0.1900
94866W        W95730  25.887  18.038  26.989  0.2041 -0.1696 -0.0889
94867W        W95731   1.089  19.077  25.225 -0.0243 -0.1041 -0.1337
94868W        W95732   2.150  14.942  26.652 -0.1658 -0.0757 -0.1278
94869W        W95733  25.349  17.016   0.493 -0.0808 -0.1246 -0.3488
94870W        W95734  28.039  15.906   0.674 -0.4582  0.1438 -0.1173
94871W        W95735  26.483  16.754  26.730  0.0092  0.3447 -0.3565
94872W        W95736  27.377  13.743  28.709 -0.0333  0.0988  0.0011
94873W        W95737   1.312  13.802   0.770 -0.1623 -0.2179  0.1082
94874W        W95738  25.777  15.932  25.431  0.0962 -0.0041  0.0450
94875W        W95739  26.125  12.539  26.542 -0.0559 -0.0456  0.1391
94876W        W95740  27.318  16.236  27.975  0.0278 -0.2490 -0.0826
94877W        W95741  26.714  16.719  27.270 -0.2384  0.0309  0.0209
94878W        W95742  26.649  19.774  29.050 -0.1952  0.3177 -0.2766
94879W        W95743  26.741  13.579  26.655 -0.0792 -0.1087  0.4405
94880W        W95744   1.943  18.969  27.904 -0.0444 -0.3428 -0.1211
94881W        W95745  28.569  15.794   0.665  0.1721 -0.2825 -0.0654
94882W        W95746   0.403  17.682  28.578 -0.0963 -0.1486 -0.0241
94883W        W95747   1.787  17.340  28.045 -0.0574  0.1822  0.0837
94884W        W95748  28.091  15.884  26.290 -0.0625 -0.0473 -0.2251
94885W        W95749  24.712  16.116   0.381  0.1029  0.2398 -0.0386
94886W        W95750  27.956  15.853  25.756 -0.0779 -0.1308 -0.1299
94887W        W95751  27.100  15.147  28.119  0.0706 -0.1887 -0.2118
94888W        W95752  26.355  16.218  28.254 -0.0488 -0.2641 -0.2591
94889W        W95753  29.105  17.781  28.470  0.2273  0.4705  0.3950
94890W        W95754  26.910  13.860  28.804  0.0066 -0.1642 -0.1769
94891W        W95755  26.428  14.788  27.738  0.0662 -0.2396  0.1828
94892W        W95756  26.632  16.998  28.703 -0.1410  0.1897  0.1729
94893W        W95757  27.949  16.513  25.084  0.0766 -0.1070  0.0318
94894W        W95758  28.097  18.988   1.165  0.1792 -0.1057  0.3323
94895W        W95759  28.786  14.941  27.518  0.0122 -0.1424 -0.0072
94896W        W95760  27.365  17.790   2.270  0.2552 -0.1091  0.1915
94897W        W95761   2.252  16.035  28.091 -0.1001  0.1220  0.3201
94898W        W95762  28.387  15.962  26.918  0.1352  0.1914 -0.1079
94899W        W95763  26.207  14.282  28.574 -0.0261  0.2552 -0.1288
94900W        W95764  23.270  19.089  27.568  0.1993 -0.1129 -0.0561
94901W        W95765  24.603  13.879  26.013 -0.1792  0.0871 -0.2186
94902W        W95766  27.455  12.753  28.361  0.4221 -0.0279 -0.0182
94903W        W95767  27.827  15.176  24.754 -0.3817  0.3873  0.3129
94904W        W95768   1.067  18.994  26.990  0.1754  0.0568 -0.0576
94905W        W95769  28.195  19.386  27.038  0.0865  0.3005 -0.2078
94906W        W95770  27.601  14.457  25.710 -0.0795  0.2868 -0.0482
94907W        W95771   0.597  16.820  28.401 -0.5165 -0.1535 -0.3010
94908W        W95772  26.536  20.426  25.280  0.1715  0.0801 -0.0371
94909W        W95773  24.777  17.297  27.220  0.0299  0.1150  0.1848
94910W        W95774  28.809  13.119  26.515 -0.0081  0.1784 -0.1052
94911W        W95775   0.029  19.163  26.360 -0.0768  0.2221 -0.0383
94912W        W95776   0.031  19.167  27.842 -0.0538 -0.3871 -0.0734
94913W        W95777  28.372  17.763  26.290 -0.1425  0.0865 -0.0803
94914W        W95778  28.494  17.635  24.240  0.2453  0.2686  0.0478
94915W        W95779  29.043  19.017  28.370 -0.0334 -0.2165  0.2575
94916W        W95780  28.901  15.698  27.961 -0.2741  0.2184 -0.0822
94917W        W95781  26.142  14.571  26.009  0.0601  0.2191 -0.0435
94918W        W95782  24.296  13.823  27.271 -0.1602  0.0566  0.0417
94919W        W95783  27.648  16.627  28.064  0.3988  0.0857  0.3910
94920W        W95784   0.273  14.847   0.087  0.0233  0.0527 -0.0018
94921W        W95785  28.077  18.645   0.782  0.0357 -0.0043 -0.1405
94922W        W95786   0.359  19.637  25.693 -0.2846  0.0842  0.6785
94923W        W95787  27.030  17.675  26.083  0.2089  0.0553 -0.3927
94924W        W95788   1.108  17.055  28.470  0.0145 -0.2666  0.1123
94925W        W95789  27.125  18.691  26.889 -0.0807 -0.0925  0.1739
94926W        W95790   1.114  15.567  27.706  0.0117  0.3351  0.0346
94927W        W95791   0.307  17.080  27.900 -0.1417 -0.0485 -0.1788
94928W        W95792   1.319  17.007  26.141 -0.0306 -0.0412 -0.0874
94929W        W95793   0.059  17.615  23.942  0.3636  0.2668 -0.1321
94930W        W95794  28.525  18.238  26.424  0.2681 -0.1506  0.0147
94931W        W95795  28.286  16.305  25.954  0.0430 -0.0665  0.2048
94932W        W95796  27.771  17.522  27.091  0.0126  0.0598  0.1084
94933W        W95797   0.640  18.338  27.940 -0.4508 -0.2899 -0.0955
94934W        W95798  23.756  15.513  28.148 -0.2556  0.0857 -0.2280
94935W        W95799   1.972  19.748  27.861 -0.2059 -0.2159 -0.1699
94936W        W95800   1.302  17.432  28.074 -0.2198 -0.0639 -0.2836
94937W        W95801  25.443  19.403  25.215 -0.1088  0.0309  0.1302
94938W        W95802   0.169  18.202  28.220 -0.0969 -0.0058 -0.0100
94939W        W95803  28.972  18.605  28.133 -0.0594  0.0585 -0.1294
94940W        W95804  28.127  18.919  26.900  0.3265  0.4504  0.3894
94941W        W95805   2.673  15.821  27.786 -0.1461  0.0773  0.0225
94942W        W95806  28.040  17.717  27.574 -0.2729 -0.0638  0.1837
94943W        W95807  26.062  14.162  27.608  0.0581  0.2031 -0.2482
94944W        W95808   0.595  19.221  27.066  0.0005 -0.0458  0.5643
94945W        W95809   0.566  14.966  27.276  0.0181 -0.2105 -0.2951
94946W        W95810   0.687  20.945  26.762  0.2500 -0.1670  0.0403
94947W        W95811  28.853  16.978  28.503  0.1727 -0.0459 -0.4419
94948W        W95812  23.509  12.129  25.883  0.0434 -0.0480  0.2981
94949W        W95813  28.259  15.623  27.270 -0.2501 -0.0124 -0.0061
94950W        W95814  24.354  17.429  24.009 -0.2950  0.2042  0.0511
94951W        W95815  28.436  18.178  26.914  0.1696  0.1378  0.0987
94952W        W95816  27.294  15.924   0.138  0.0020 -0.2687 -0.0704
94953W        W95817  25.057  15.586  27.455 -0.2157  0.0230  0.0680
94954W        W95818   1.696  15.680  28.078  0.0421  0.1037  0.1659
94955W        W95819  27.653  20.888  27.529 -0.0674 -0.0569 -0.1094
94956W        W95820  28.981  18.594   0.891 -0.3399 -0.1309  0.0308
94957W        W95821  25.963  17.254  26.644 -0.0167 -0.0589 -0.0084
94958W        W95822  28.458  19.496  28.935  0.2524  0.0894  0.1860
94959W        W95823  24.641  14.759  28.375  0.0376  0.2452 -0.3199
94960W        W95824  25.690  17.017  26.238  0.0095  0.4243  0.0896
94961W        W95825  24.877  14.888  25.974 -0.0924 -0.2255  0.0285
94962W        W95826  27.106  15.388  26.598  0.2300 -0.0445 -0.0371
94963W        W95827  27.465  15.532  28.335  0.0300  0.2121  0.0758
94964W        W95828  23.209  15.411  25.896  0.0429 -0.0735  0.2518
94965W        W95829  25.139  14.077  26.179 -0.1385  0.1971  0.2085
94966W        W95830  25.264  12.064  26.403 -0.1020  0.0030  0.0473
94967W        W95831  27.302  16.005  27.497  0.0095 -0.1291 -0.2775
94968W        W95832   0.025  16.192  27.970 -0.2026  0.0417 -0.2589
94969W        W95833  27.438  18.368  28.448  0.0133 -0.1239  0.0041
94970W        W95834  28.882  14.735  27.058  0.1185 -0.0672  0.0601
94971W        W95835  27.653  18.518  27.660 -0.0009 -0.0083 -0.0171
94972W        W95836  26.834  15.302  28.532  0.0864  0.1703 -0.0018
94973W        W95837  28.428  16.810  26.505 -0.1528  0.1608  0.1942
94974W        W95838  25.360  13.826   1.192  0.1616 -0.1347  0.0178
94975W        W95839  25.738  19.568  25.976 -0.0738  0.0401  0.0813
94976W        W95840  28.139  17.542   1.778 -0.3243 -0.0496  0.1756
94977W        W95841   1.152  18.641  25.625 -0.0140 -0.0183 -0.0963
94978W        W95842  26.950  15.153   0.318  0.1467  0.0534 -0.2411
94979W        W95843   1.286  16.001  27.901 -0.1824 -0.0046  0.0688
94980W        W95844   0.333  17.984  27.663 -0.1781  0.0795 -0.1595
94981W        W95845   0.845  17.898  26.198  0.0084 -0.1556  0.0647
94982W        W95846  27.179  14.904  28.584  0.0009 -0.0385  0.0495
94983W        W95847   0.352  16.827  27.358  0.2113 -0.3855  0.2730
94984W        W95848  24.925  17.693  27.975 -0.1809 -0.1246 -0.0635
94985W        W95849  27.438  18.877  28.576  0.1385 -0.1133  0.0793
94986W        W95850  27.558  19.518  26.285  0.3112  0.0019  0.0300
94987W        W95851  27.112  14.692   0.467  0.1795  0.0858  0.1302
94988W        W95852  26.885  21.534  23.478 -0.3212 -0.2177 -0.0472
94989W        W95853   1.976  18.672  25.618 -0.3946  0.1058 -0.0733
94990W        W95854  28.448  17.483  27.764  0.1859  0.0674  0.2504
94991W        W95855  24.843  13.072  26.238  0.2091  0.0740 -0.1327
94992W        W95856   0.854  15.972  27.422 -0.1806  0.2460 -0.0193
94993W        W95857  28.323  15.810   1.554  0.0802 -0.0330  0.1049
94994W        W95858  27.262  13.322  27.745 -0.1604 -0.0204 -0.0018
94995W        W95859  25.463  14.198  26.576  0.1026 -0.2362  0.1003
94996W        W95860  27.478  20.000  28.013  0.1868 -0.0766 -0.0056
94997W        W95861  28.590  16.695  27.414 -0.1873  0.0757  0.2022
94998W        W95862  28.664  19.193  26.884 -0.3303 -0.0698 -0.1550
94999W        W95863  27.025  18.479  23.829  0.1263 -0.2939  0.0802
95000W        W95864  28.168  18.175  28.185  0.2135  0.2034  0.1605
95001W        W95865  27.628  14.516  28.471 -0.2030 -0.0999 -0.1759
95002W        W95866  28.463  15.555  28.459  0.0618 -0.0393 -0.0120
95003W        W95867  26.448  15.971  27.271 -0.2573 -0.0095  0.2537
95004W        W95868  26.932  16.624  26.771 -0.0973  0.0690  0.5318
95005W        W95869  24.728  14.220  27.085 -0.0687  0.1174 -0.0259
95006W        W95870  24.473  12.443  29.001  0.1619  0.0269 -0.1380
95007W        W95871   0.676  15.490  27.431 -0.1995 -0.2258 -0.1719
95008W        W95872  25.412  16.811  27.002 -0.0468 -0.0224  0.0703
95009W        W95873   0.102  17.068  26.894 -0.0817 -0.5271 -0.1959
95010W        W95874  28.503  17.333  26.575  0.1466  0.0976 -0.2518
95011W        W95875  22.644  17.755  27.726  0.3118 -0.3602 -0.0369
95012W        W95876  28.603  17.866   0.295  0.2099  0.0954  0.0627
95013W        W95877  24.304  16.052  26.334  0.1691  0.2788 -0.3755
95014W        W95878  23.605  16.040   0.228  0.1206 -0.0926  0.1492
95015W        W95879  24.238  14.534  27.262  0.0952  0.0090  0.0567
95016W        W95880  25.363  19.551  24.040  0.1379  0.1418 -0.2202
95017W        W95881  25.485  13.953  27.568  0.0120 -0.0285 -0.0432
95018W        W95882  26.228  16.694   0.332 -0.2165  0.1201  0.3023
95019W        W95883  25.521  14.966  28.262 -0.0352  0.3741  0.2322
95020W        W95884  27.913  17.714  29.073 -0.0264 -0.1274  0.0911
95021W        W95885   0.056  14.191  29.001  0.2700  0.0968  0.4159
95022W        W95886   0.925  14.708   0.259 -0.1068 -0.2559 -0.3671
95023W        W95887   1.368  16.701  25.239  0.1827  0.1210  0.1777
95024W        W95888  26.493  17.914  25.332  0.1390 -0.0287 -0.4086
95025W        W95889  27.533  16.620  26.739  0.1921 -0.0582 -0.0507
95026W        W95890   0.228  16.955  28.713 -0.2481 -0.1105  0.1445
95027W        W95891  26.704  15.682  28.795  0.0521  0.2541  0.2168
95028W        W95892   0.426  15.760   0.830  0.1386 -0.0798  0.1046
95029W        W95893  28.438  14.973  28.312  0.2868  0.0423  0.0015
95030W        W95894  27.951  18.533  28.378  0.0867  0.2486  0.1552
95031W        W95895   0.011  16.122  26.993  0.1764 -0.2171  0.5884
95032W        W95896  25.593  17.719  24.469 -0.2161  0.1200  0.2079
95033W        W95897  25.315  11.958  27.969  0.3402  0.0254 -0.0993
95034W        W95898  24.771  15.834  26.410  0.0917 -0.0498  0.0983
95035W        W95899   1.080  15.667  28.296 -0.0584 -0.1875  0.1105
95036W        W95900  28.554  16.986  27.022 -0.2120  0.1018 -0.0096
95037W        W95901  26.264  16.423  27.256  0.2721 -0.0792 -0.0502
95038W        W95902  24.616  14.229  27.575 -0.1483 -0.0892 -0.0194
95039W        W95903  26.611  16.307  27.582  0.0930  0.3040 -0.2453
95040W        W95904  28.958  20.037  27.961  0.0034 -0.0866  0.0370
95041W        W95905   0.702  18.647  26.920 -0.0932 -0.0935  0.4622
95042W        W95906  26.568  16.649  29.117 -0.0303  0.2413  0.0467
95043W        W95907  26.088  15.616  27.271  0.0377  0.0153  0.1810
95044W        W95908  29.128  17.153  27.492 -0.5483  0.1217  0.2058
95045W        W95909  25.778  15.807  29.099  0.0421  0.1525 -0.0414
95046W        W95910   0.442  19.008  28.393 -0.2097  0.1593 -0.1389
95047W        W95911  27.250  20.296  28.551 -0.0619 -0.1706 -0.0038
95048W        W95912  27.831  16.344  27.109  0.1306  0.3585 -0.1204
95049W        W95913  28.826  18.312  29.110  0.1638  0.0600 -0.1605
95050W        W95914  26.046  16.671  28.423  0.3698  0.0200 -0.1454
95051W        W95915  24.358  13.254  25.327 -0.0974 -0.1938 -0.0012
95052W        W95916  28.898  16.575   1.125 -0.1644  0.2705 -0.1463
95053W        W95917   0.289  18.470  24.951  0.0212  0.1956 -0.0819
95054W        W95918  26.131  17.948  28.603  0.1698  0.0610  0.0653
95055W        W95919  24.839  17.053   0.408 -0.0128 -0.0687 -0.0738
95056W        W95920   0.196  21.165  26.532 -0.2643  0.0544  0.0034
95057W        W95921  28.692  16.039  25.950 -0.0354 -0.1080 -0.0460
95058W        W95922  26.472  16.298  26.793 -0.1259  0.0187  0.2294
95059W        W95923  26.827  18.545  27.385  0.2028 -0.1598 -0.0923
95060W        W95924  26.825  19.358  28.244  0.1750  0.2135  0.0856
95061W        W95925  27.550  17.818  25.493 -0.1434 -0.3380 -0.1538
95062W        W95926  27.815  15.915  27.483 -0.2698  0.1211 -0.2794
95063W        W95927   0.520  17.129  24.550 -0.1104 -0.3042 -0.0437
95064W        W95928  28.075  16.687  23.954  0.2101  0.0417  0.1332
95065W        W95929  27.447  14.973  27.324  0.1283 -0.2069 -0.1672
95066W        W95930  28.022  18.997  25.404  0.0133  0.0451  0.2436
95067W        W95931   0.846  18.822  27.395 -0.3141  0.3014 -0.0038
95068W        W95932  24.544  16.771  26.899  0.0592  0.2344 -0.1125
95069W        W95933  27.691  17.614  28.044 -0.1760 -0.0159 -0.1531
95070W        W95934  26.225  15.704   1.355 -0.0742  0.2062  0.0322
95071W        W95935  24.229  16.948  29.130 -0.1111  0.0002 -0.0298
95072W        W95936  26.513  18.511  23.622  0.0226  0.0580 -0.1731
95073W        W95937  27.703  18.109  28.132 -0.2378  0.0479 -0.0532
95074W        W95938  27.227  17.470  25.635  0.2915  0.0815  0.1791
95075W        W95939   0.728  17.837  26.714  0.0033  0.1037  0.0772
95076W        W95940  25.792  17.131  28.292  0.0391 -0.1085 -0.2500
95077W        W95941   1.911  14.656  26.246  0.1228  0.2676  0.0426
95078W        W95942  28.193  16.448  24.479 -0.1217 -0.2288  0.0827
95079W        W95943  27.595  13.286   0.365  0.0931 -0.0522  0.0763
95080W        W95944  28.567  17.282  26.035 -0.1485  0.1152  0.1250
95081W        W95945  25.248  15.014  26.280 -0.1189  0.1766  0.0067
95082W        W95946   0.782  17.598  27.698 -0.1487 -0.1352 -0.1694
95083W        W95947   0.034  16.571  26.554 -0.0534  0.0220  0.1275
95084W        W95948  26.978  14.889  27.734 -0.1675 -0.1333  0.0173
95085W        W95949  25.357  14.823  26.747 -0.1167 -0.1639  0.0321
95086W        W95950  28.043  19.043  24.654  0.2332  0.2070 -0.6290
95087W        W95951  24.309  15.988  27.836  0.0762 -0.3103 -0.1884
95088W        W95952  25.937  14.610  26.886  0.0897 -0.1344 -0.0290
95089W        W95953  27.445  15.196  25.077  0.1004  0.0143  0.0185
95090W        W95954   0.162  15.635  27.204 -0.2270 -0.0200 -0.1739
95091W        W95955  25.933  19.196   0.300  0.0794 -0.0463  0.0328
95092W        W95956   1.270  17.213  25.209 -0.0647  0.0619 -0.3044
95093W        W95957   1.180  20.111   2.081 -0.3073  0.1854 -0.0456
95094W        W95958  28.207  17.170  27.407  0.0393  0.1610 -0.2665
95095W        W95959  27.275  16.711   0.578 -0.1998 -0.0581  0.1138
95096W        W95960  28.476  13.268  26.082  0.0869  0.2335  0.0760
95097W        W95961  28.543  18.632  26.043  0.2473  0.0492  0.1470
95098W        W95962  26.819  18.209  25.112 -0.1021 -0.1043 -0.0538
95099W        W95963  29.039  15.606  23.819 -0.0195  0.1333  0.1043
95100W        W95964   0.277  14.059  27.533  0.0808 -0.2257  0.0078
95101W        W95965  25.777  14.385  27.314  0.0072 -0.1319  0.0963
95102W        W95966  26.477  17.421  26.822 -0.0226  0.2481 -0.2441
95103W        W95967  27.816  15.731  26.989  0.1476  0.4513  0.1839
95104W        W95968  28.435  19.769  27.308 -0.0718 -0.0163  0.2875
95105W        W95969  28.251  17.018   0.576  0.1289  0.0524 -0.0397
95106W        W95970  28.756  16.604  28.124  0.1484 -0.0709 -0.0160
95107W        W95971  24.556  18.374  26.775  0.0646 -0.1316  0.0095
95108W        W95972  25.650  18.394  25.362  0.2612 -0.0841 -0.3106
95109W        W95973  27.809  14.448  29.052  0.0203  0.0596  0.0241
95110W        W95974  26.357  17.106   0.500  0.2436  0.0452  0.1006
95111W        W95975   2.319  16.951  25.718  0.1891  0.1349 -0.0294
95112W        W95976  28.929  18.344  26.783 -0.0366 -0.5780  0.3051
95113W        W95977  28.569  19.774   0.887 -0.3355 -0.2715  0.2750
95114W        W95978   0.045  18.238  27.235 -0.1912 -0.1380 -0.0717
95115W        W95979  27.162  12.968  27.370 -0.0076 -0.2147  0.0317
95116W        W95980  25.904  12.419  27.874 -0.3363  0.1721  0.0810
95117W        W95981  24.148  18.116  28.748  0.4909 -0.0791 -0.0277
95118W        W95982  26.876  14.165  27.325 -0.0009  0.1399 -0.2991
95119W        W95983  28.089  17.895   1.380  0.0843  0.2666  0.3908
95120W        W95984  28.532  16.983  25.102  0.0855  0.3197  0.0944
95121W        W95985   1.549  17.326   0.746 -0.0837  0.0585  0.0815
95122W        W95986  24.943  18.660  27.589 -0.3556 -0.0334 -0.0616
95123W        W95987  27.235  17.259   0.232  0.0902  0.0863 -0.0699
95124W        W95988  25.359  13.155  26.163 -0.0692  0.0859 -0.1176
95125W        W95989  27.530  15.797  27.883  0.0352 -0.0144  0.1283
95126W        W95990   0.248  17.561  27.829  0.0700 -0.0675 -0.4893
95127W        W95991  26.072  15.176  27.473 -0.0643 -0.0430  0.1554
95128W        W95992  28.008  17.914  26.788  0.0584  0.1154  0.2645
95129W        W95993   2.159  16.281  27.611  0.4421  0.3623  0.1735
95130W        W95994  25.950  17.418   0.588  0.1046  0.0944 -0.0629
95131W        W95995  26.740  16.389   0.337 -0.0520  0.0892  0.2322
95132W        W95996  25.878  16.765  27.406  0.0535 -0.0846 -0.2778
95133W        W95997  27.988  19.889  27.057  0.0775 -0.0163 -0.1408
95134W        W95998  28.435  15.390   0.150 -0.2393 -0.1943  0.2702
95135W        W95999  26.539  13.806  27.131 -0.1028  0.1071  0.0056
95136W        W96000  27.305  16.272  26.357  0.2014 -0.1258 -0.3811
95137W        W96001  23.782  14.913  27.071  0.1856 -0.0445 -0.1152
95138W        W96002  22.964  15.817   0.013  0.3429 -0.0970  0.0279
95139W        W96003   0.472  15.641  26.483  0.5005  0.1025  0.1196
95140W        W96004  27.919  15.351   0.188  0.0730 -0.1091  0.2295
95141W        W96005   0.839  20.515  28.651 -0.0929 -0.0550  0.0828
95142W        W96006   1.589  15.901   0.399 -0.1838 -0.0198  0.1514
95143W        W96007   0.370  19.203   0.568  0.1050  0.2881 -0.0630
95144W        W96008  28.417  20.231   0.159 -0.0243 -0.1905  0.0875
95145W        W96009  28.211  18.250  25.445  0.1468  0.1281  0.1206
95146W        W96010  26.653  15.741  28.269  0.3171 -0.0989 -0.1618
95147W        W96011  26.442  13.415  28.114  0.1866  0.0044 -0.2257
95148W        W96012  26.122  18.319  26.641 -0.1061  0.1975 -0.3319
95149W        W96013   0.041  16.992   0.066 -0.1017  0.0266 -0.0937
95150W        W96014  27.298  14.336  27.118  0.0270  0.0430 -0.2276
95151W        W96015  24.899  18.701  25.029  0.1731  0.0932 -0.0069
95152W        W96016  28.499  18.173  24.490 -0.0262  0.0542 -0.1773
95153W        W96017  25.637  16.447  27.762  0.1311  0.0072 -0.1186
95154W        W96018  27.227  16.997  26.816 -0.1136 -0.1022  0.2883
95155W        W96019  23.448  15.236  28.911 -0.1650  0.0255 -0.0179
95156W        W96020   0.035  15.145  27.098  0.0159 -0.1054 -0.0431
95157W        W96021  23.891  15.087  27.924 -0.4175 -0.0993 -0.2831
95158W        W96022  28.603  18.835  26.487 -0.0371  0.0145 -0.0008
95159W        W96023  27.076  15.775  24.409 -0.2806 -0.4113  0.3689
95160W        W96024  29.025  20.780   0.943  0.1768  0.2422 -0.2069
95161W        W96025   0.339  22.385  24.702  0.2167 -0.1502 -0.0462
95162W        W96026  27.105  16.670  24.252  0.1486  0.0380 -0.2417
95163W        W96027   0.934  15.787  26.455 -0.2599  0.2008 -0.1126
95164W        W96028  26.849  17.213  27.092 -0.1122  0.1178  0.1405
95165W        W96029   0.647  16.114   1.192  0.0097 -0.3459  0.0222
95166W        W96030  24.392  15.613  28.692  0.1599 -0.1135  0.0517
95167W        W96031  24.584  14.516  26.708  0.0888 -0.0077  0.0273
95168W        W96032  26.801  16.311  28.095 -0.0981  0.1029  0.0425
95169W        W96033  28.255  16.201  27.447  0.0206 -0.0736 -0.3469
95170W        W96034  23.854  15.549  28.841 -0.0866 -0.0350 -0.1546
95171W        W96035   0.200  16.156  26.398 -0.2716 -0.1285 -0.0042
95172W        W96036   0.257  18.226  26.206 -0.2276 -0.2045 -0.1132
95173W        W96037   0.713  18.334  28.916 -0.0657 -0.1070 -0.0992
95174W        W96038  28.874  19.602  28.582 -0.0497  0.0066  0.0533
95175W        W96039  28.325  16.360  28.012  0.0749  0.1225 -0.0315
95176W        W96040  26.823  14.525  26.366 -0.1278  0.2238 -0.0093
95177W        W96041   0.016  16.396  27.408  0.0093 -0.3862  0.0435
95178W        W96042  26.257  15.696  24.942  0.1080  0.2070 -0.3569
95179W        W96043  27.863  17.917  26.281 -0.1219  0.5595 -0.0089
95180W        W96044   1.302  17.677  25.406 -0.0320  0.0917 -0.2426
95181W        W96045  28.679  18.637  28.767  0.0116  0.0043  0.0235
95182W        W96046   0.574  19.202  25.941  0.1695  0.1954 -0.0104
95183W        W96047  27.570  15.057  28.341  0.0315 -0.1176 -0.1306
95184W        W96048  28.677  18.078  28.212 -0.2657  0.3083  0.2338
95185W        W96049   1.700  18.239  26.374  0.3710  0.1950 -0.0621
95186W        W96050   0.142  15.371  28.127 -0.1879 -0.1703  0.0807
95187W        W96051  24.645  16.353  27.790 -0.1835  0.1320  0.0637
95188W        W96052  26.700  16.720  26.263 -0.2323  0.1477  0.0099
95189W        W96053  26.204  17.817  26.696 -0.0381 -0.3168  0.0391
95190W        W96054  27.238  14.790  25.954  0.3119  0.0362 -0.0776
95191W        W96055  28.546  18.685  26.934  0.0922 -0.2085 -0.0348
95192W        W96056  28.640  18.944   0.664 -0.0355 -0.0996  0.0647
95193W        W96057   0.592  15.194  28.137  0.0367  0.0451  0.0641
95194W        W96058  28.485  19.466  25.425  0.1448 -0.0128 -0.0725
95195W        W96059   0.934  17.595  28.444 -0.0380  0.0705  0.1809
95196W        W96060  26.077  17.529  27.142  0.2552  0.2083  0.0591
95197W        W96061  27.517  19.393  27.597  0.1178 -0.0884  0.1432
95198W        W96062  29.033  19.933   1.512 -0.1693 -0.2551  0.1608
95199W        W96063  24.813  15.230  27.232  0.0033 -0.1194 -0.0078
95200W        W96064   0.892  17.300  25.540 -0.2356 -0.0891  0.3228
95201W        W96065   0.230  19.893   0.214 -0.1339  0.0305 -0.3287
95202W        W96066  25.689  17.202  27.112  0.0959  0.0139 -0.3587
95203W        W96067  25.018  16.183  27.406  0.2175  0.1448  0.0505
95204W        W96068  28.320  19.249  26.542  0.0379  0.0676  0.1433
95205W        W96069  27.190  16.435  28.407  0.0087 -0.0512 -0.1012
95206W        W96070  28.662  17.950  25.297 -0.1219 -0.1792 -0.0212
95207W        W96071  26.433  16.834  25.871  0.0854  0.0480 -0.0913
95208W        W96072  26.970  22.046   3.713 -0.0564  0.1512 -0.0934
95209W        W96073  24.342  20.525   0.746 -0.0529 -0.0335 -0.1243
95210W        W96074  26.585  24.087   2.111  0.1591  0.3766  0.1522
95211W        W96075  26.233  21.973   1.726 -0.1269 -0.1574 -0.2716
95212W        W96076  26.209  20.905   3.949 -0.1113 -0.3556 -0.2477
95213W        W96077  27.565  17.103  28.402  0.0685 -0.0735 -0.1810
95214W        W96078  25.627  18.637   0.518 -0.0684  0.0144  0.1404
95215W        W96079  28.021  19.383  29.125  0.1059 -0.0759  0.1602
95216W        W96080  25.972  21.842   3.821 -0.2341 -0.0771 -0.1379
95217W        W96081  26.044  18.695   1.666  0.0663  0.2578 -0.2655
95218W        W96082  26.966  19.184   2.415 -0.1914  0.0010  0.2041
95219W        W96083   1.564  17.811   0.613  0.2307 -0.4608 -0.3246
95220W        W96084  28.316  19.494   1.932  0.1279  0.3371 -0.0855
95221W        W96085  28.663  17.367   2.845  0.0345 -0.1335 -0.0355
95222W        W96086  26.486  19.169   4.688 -0.1560  0.1832  0.0979
95223W        W96087  27.123  20.611   2.695 -0.0429  0.0860 -0.0900
95224W        W96088  28.652  19.329   0.205  0.1959 -0.2187  0.1099
95225W        W96089  22.355  19.321   1.458 -0.0345  0.0432  0.2471
95226W        W96090  26.391  20.146   3.288 -0.2085 -0.2024 -0.2050
95227W        W96091  27.782  18.959   2.729  0.4153 -0.2704  0.2664
95228W        W96092  28.544  22.395   2.330  0.2538 -0.1769 -0.1467
95229W        W96093  26.222  20.052   0.219  0.0570  0.0488 -0.0120
95230W        W96094  28.259  20.391   1.966 -0.1984  0.2758  0.0452
95231W        W96095  27.326  19.320   1.650 -0.0123 -0.2240 -0.1467
95232W        W96096  26.442  19.094   0.505  0.2872  0.2500 -0.1392
95233W        W96097  26.639  19.269   4.194  0.1018  0.3411 -0.0204
95234W        W96098   0.241  22.012   2.963 -0.0151 -0.0607 -0.0539
95235W        W96099  27.154  19.965   1.910 -0.0379 -0.1025 -0.0960
95236W        W96100   1.245  21.422   4.849 -0.0064  0.1395 -0.0616
95237W        W96101  26.990  19.028  28.646  0.1127  0.1086  0.1028
95238W        W96102  25.700  21.319   1.233  0.0917 -0.2198  0.3853
95239W        W96103  28.594  20.557   6.022 -0.0591 -0.0870 -0.0480
95240W        W96104  26.167  21.423   1.891 -0.1595 -0.1874 -0.2405
95241W        W96105  27.559  19.172   6.194 -0.1459 -0.0928 -0.2122
95242W        W96106  27.142  17.874   5.691  0.0625 -0.3450  0.2232
95243W        W96107  29.145  21.046   2.505  0.0552  0.0815  0.1721
95244W        W96108  27.718  17.805   0.956  0.0584 -0.1001 -0.1786
95245W        W96109  24.749  20.305   3.098  0.2015 -0.3306 -0.0607
95246W        W96110   1.589  19.361   1.089  0.1277 -0.2153  0.0570
95247W        W96111   0.230  19.886   2.110 -0.0394 -0.1012 -0.1240
95248W        W96112   0.346  21.799   1.987  0.1625  0.2508  0.0959
95249W        W96113   1.966  19.570   1.543 -0.5234  0.0584 -0.1963
95250W        W96114  27.394  19.563   3.725  0.0050  0.0030  0.2604
95251W        W96115   0.034  22.737  28.193  0.0393 -0.3933 -0.0133
95252W        W96116  25.791  22.493  28.814  0.0962 -0.0469  0.2107
95253W        W96117  26.711  21.876   2.770 -0.0769 -0.0936 -0.3553
95254W        W96118  27.711  17.390   1.522  0.0767 -0.1455  0.1981
95255W        W96119  26.502  18.877   3.846 -0.2362 -0.2858  0.3693
95256W        W96120  28.420  21.535   2.574 -0.0101 -0.2634  0.1445
95257W        W96121   0.677  20.472  27.959  0.0596  0.1432 -0.0498
95258W        W96122  26.874  22.952   4.158  0.1389 -0.0114  0.1701
95259W        W96123  28.977  17.837   1.494 -0.0982 -0.0125 -0.0502
95260W        W96124   0.027  22.063   1.682 -0.2171  0.1743  0.0620
95261W        W96125   0.683  21.747   1.635  0.0712 -0.3737 -0.1473
95262W        W96126   0.395  20.312   0.483 -0.4724 -0.4082  0.0158
95263W        W96127  24.836  21.208   0.495  0.1779 -0.0830 -0.0890
95264W        W96128  27.266  17.156   2.885  0.4511  0.0151  0.4554
95265W        W96129  26.042  18.628  28.035  0.2532 -0.1128 -0.0726
95266W        W96130  27.524  20.911   2.741  0.1859  0.0636 -0.2339
95267W        W96131  27.325  22.425   3.717 -0.2138  0.0206  0.2041
95268W        W96132  27.977  17.935   2.781  0.1259 -0.1337  0.0301
95269W        W96133  25.922  21.270   4.173 -0.1900  0.0980 -0.2245
95270W        W96134  28.250  21.909   2.180  0.1781 -0.2196  0.1088
95271W        W96135   0.020  23.102   0.430 -0.0534 -0.2462 -0.1331
95272W        W96136  26.560  18.393   2.499  0.3171 -0.1267 -0.1806
95273W        W96137  29.062  18.776   2.349  0.1112  0.0793  0.3036
95274W        W96138  27.024  17.149   0.798 -0.0665  0.1357  0.4549
95275W        W96139  27.109  16.988  28.513  0.2948 -0.0776  0.0221
95276W        W96140  26.493  20.798  28.348 -0.1871 -0.0266 -0.4040
95277W        W96141  26.026  20.502  28.646 -0.0198  0.3439  0.0071
95278W        W96142  26.611  23.807   3.498  0.2182  0.0263  0.3134
95279W        W96143  28.399  20.243   0.672  0.2006  0.0329  0.0231
95280W        W96144  27.364  22.023   4.064 -0.1234 -0.1078  0.1618
95281W        W96145  27.544  20.424   3.588 -0.0648 -0.2817 -0.2206
95282W        W96146   0.242  23.574   2.573  0.0354  0.2557  0.0365
95283W        W96147  26.878  19.616   4.431 -0.1298 -0.0141  0.2427
95284W        W96148  27.684  20.863   3.233 -0.0533  0.0050 -0.0257
95285W        W96149  28.508  21.965   1.232 -0.0590 -0.2064  0.1200
95286W        W96150   0.138  20.391   0.924 -0.1485  0.0010 -0.1873
95287W        W96151  27.072  21.439   1.187 -0.1163 -0.0672 -0.0022
95288W        W96152  27.267  17.675   1.519 -0.0188  0.2296 -0.1896
95289W        W96153  24.746  18.683   5.359  0.2177 -0.0494 -0.2000
95290W        W96154  26.819  20.216   3.560 -0.0528 -0.0074 -0.2148
95291W        W96155  27.534  21.927   2.463 -0.1733  0.3064 -0.1214
95292W        W96156  27.761  17.844   3.255  0.0639 -0.1005  0.4731
95293W        W96157  28.342  18.820   4.731 -0.1290 -0.0031 -0.0759
95294W        W96158  26.192  22.711   2.936  0.0274 -0.1208  0.5635
95295W        W96159  28.212  20.045   1.136  0.0842  0.0432 -0.2867
95296W        W96160  28.570  20.074   5.181 -0.1171 -0.0242 -0.0755
95297W        W96161  27.499  16.392   0.986 -0.3320 -0.0678  0.2386
95298W        W96162   0.892  21.998   2.072  0.3801 -0.0521 -0.0799
95299W        W96163  28.360  19.671   5.340  0.0336  0.0046 -0.0472
95300W        W96164  25.529  22.257   5.468 -0.3138 -0.0636 -0.0219
95301W        W96165   0.150  18.175   0.724 -0.0797 -0.2435  0.1224
95302W        W96166  26.899  17.639   3.270  0.1766  0.0931 -0.0222
95303W        W96167   0.340  22.708   2.177 -0.2836  0.0807  0.2716
95304W        W96168   1.755  21.026  28.632  0.0727  0.1502 -0.4190
95305W        W96169  27.405  21.497   2.163 -0.0888 -0.3823  0.0170
95306W        W96170  27.607  22.967   1.145  0.3344 -0.1130 -0.1563
95307W        W96171  27.064  18.050   3.007 -0.0212  0.2714 -0.0668
95308W        W96172   1.066  20.239   0.961  0.2081  0.2774 -0.2333
95309W        W96173  24.790  20.640   1.320 -0.0506 -0.0645 -0.0265
95310W        W96174   0.343  22.554   1.529 -0.2088 -0.0128 -0.2692
95311W        W96175   0.233  23.936   2.159 -0.0268  0.2535  0.3344
95312W        W96176   0.968  19.935   1.471 -0.2105 -0.1486 -0.0373
95313W        W96177  27.823  23.190   4.159  0.2749 -0.3620 -0.2110
95314W        W96178   1.292  23.091   0.020  0.1963 -0.2038 -0.2949
95315W        W96179  29.117  20.922   3.191  0.1342 -0.1559  0.4271
95316W        W96180  28.520  20.105   2.390  0.1587  0.1002  0.1490
95317W        W96181  25.174  20.351  28.178 -0.0500 -0.0886  0.1520
95318W        W96182  25.706  18.824   3.416 -0.1016  0.2205  0.0275
95319W        W96183   0.682  23.634   2.035  0.3030 -0.0440 -0.0013
95320W        W96184  28.266  18.175   3.122  0.3151  0.1075  0.2407
95321W        W96185  27.250  23.665   5.133  0.3141 -0.3456 -0.0385
95322W        W96186  28.905  23.859   3.177 -0.1490  0.2019  0.0189
95323W        W96187  25.038  21.179   1.209  0.0275 -0.1151 -0.0772
95324W        W96188   1.635  20.026   1.861 -0.0872  0.1977 -0.3063
95325W        W96189  29.094  22.575   1.844  0.1571 -0.1122 -0.1258
95326W        W96190  27.463  18.780   4.389 -0.1522  0.1885  0.1835
95327W        W96191   0.814  22.633   1.290 -0.1858  0.0060 -0.1880
95328W        W96192   1.572  20.158   1.042 -0.1000  0.0422  0.1233
95329W        W96193   0.296  22.990  29.052  0.1913  0.1204 -0.0915
95330W        W96194  28.755  22.912   3.296 -0.1990  0.3118 -0.0506
95331W        W96195   0.071  20.318   0.035  0.0242  0.2418  0.4607
95332W        W96196   0.443  22.926   3.038 -0.0054  0.2455  0.0177
95333W        W96197  28.647  21.020   2.418  0.0010 -0.0367  0.0012
95334W        W96198  27.779  19.955   3.701 -0.0561  0.0532 -0.3018
95335W        W96199   0.052  18.932   3.563  0.2340  0.1456  0.0174
95336W        W96200  27.634  23.717   3.145 -0.1147 -0.3185 -0.2149
95337W        W96201  28.826  23.530   1.757  0.0434 -0.2884 -0.1232
95338W        W96202   0.439  21.018   2.790  0.0569 -0.0247 -0.3549
95339W        W96203  27.822  17.392   2.991 -0.1885  0.0074  0.1356
95340W        W96204  27.303  20.004   3.464 -0.2293 -0.2195 -0.0683
95341W        W96205   0.202  21.611   1.514 -0.2138 -0.2583 -0.0509
95342W        W96206   2.751  20.075   3.655 -0.2569  0.2547 -0.0648
95343W        W96207  24.622  16.434   0.875 -0.0641 -0.0353 -0.2117
95344W        W96208   0.053  18.892   1.842  0.4020  0.0248  0.0389
95345W        W96209   1.329  19.367   4.282 -0.0262  0.0290  0.0225
95346W        W96210  28.524  21.490   2.111 -0.1757 -0.2758  0.0862
95347W        W96211  27.715  21.743   1.723 -0.1672  0.1238 -0.2272
95348W        W96212  27.321  17.571  28.375  0.0018  0.1248  0.1985
95349W        W96213  27.510  19.858   2.875  0.2006  0.0272  0.0154
95350W        W96214  26.676  19.265  29.144 -0.1173  0.2530 -0.1121
95351W        W96215  28.101  21.586   1.329 -0.1100  0.1382  0.2480
95352W        W96216  27.514  20.471   4.508  0.0739  0.1614 -0.1670
95353W        W96217   0.420  20.914   3.553  0.2156 -0.3332 -0.0327
95354W        W96218  27.650  21.105   2.287  0.0387 -0.1186 -0.0547
95355W        W96219  28.310  23.365   1.011 -0.1859  0.0554 -0.1355
95356W        W96220  28.253  23.114   0.573  0.0838 -0.0530  0.2092
95357W        W96221  25.444  19.043   3.079 -0.3670 -0.4007  0.0154
95358W        W96222  28.973  23.962   1.482  0.2415  0.0517 -0.2731
95359W        W96223  29.050  19.740   1.002 -0.1379  0.0123 -0.0096
95360W        W96224  26.612  18.926   6.275 -0.0841  0.1516 -0.1389
95361W        W96225  25.539  17.616   0.813 -0.0032  0.0987  0.1646
95362W        W96226  28.363  20.410   2.888 -0.0820  0.0397  0.1435
95363W        W96227  28.462  20.017   3.291  0.1181 -0.0060  0.0293
95364W        W96228  26.947  19.636   1.506 -0.1024  0.3508 -0.1696
95365W        W96229  27.956  20.082   0.156  0.2887 -0.1199  0.0783
95366W        W96230  28.260  18.224   2.440  0.2248 -0.0152 -0.1164
95367W        W96231  29.142  22.302   4.138  0.1289 -0.1648  0.0320
95368W        W96232  28.998  18.308   1.315  0.0821  0.1426  0.1487
95369W        W96233  26.407  21.056   1.668 -0.1959 -0.0151  0.0462
95370W        W96234  28.416  20.377   4.337  0.0183 -0.1513  0.1605
95371W        W96235  27.370  21.608   4.892 -0.2557 -0.0623  0.1396
95372W        W96236  27.203  19.850   6.108 -0.1778  0.0809  0.0798
95373W        W96237  27.253  20.197   2.300  0.1139  0.2305  0.1548
95374W        W96238  26.974  17.146  28.988  0.0231  0.0802 -0.0995
95375W        W96239  26.136  21.979   2.352 -0.0742  0.0664  0.0586
95376W        W96240  27.804  25.466   5.752  0.0422  0.0474  0.1025
95377W        W96241  27.811  19.479  28.026  0.3148 -0.2327 -0.0645
95378W        W96242   1.181  21.820   1.622  0.1573 -0.0257 -0.1404
95379W        W96243   1.439  23.858   1.392  0.0622 -0.2036  0.1569
95380W        W96244   0.362  22.587   0.966  0.0764  0.0950 -0.0373
95381W        W96245  27.540  23.248   0.087 -0.0831  0.1021  0.1697
95382W        W96246  27.548  18.075   1.335  0.1485  0.0422 -0.0077
95383W        W96247   0.195  17.991   0.192 -0.0190  0.1668  0.0527
95384W        W96248  24.335  19.918   4.520 -0.1359 -0.0731 -0.0380
95385W        W96249  27.089  23.074   0.395  0.0667 -0.1734  0.1106
95386W        W96250  25.679  20.321   0.334  0.1294  0.2393  0.0605
95387W        W96251   0.385  18.441   1.596  0.0015  0.0753  0.1132
95388W        W96252  27.162  24.082   4.675 -0.1724  0.0745 -0.0783
95389W        W96253   0.534  23.543   0.991 -0.0023  0.1781  0.2837
95390W        W96254  28.481  17.876   0.959 -0.1347 -0.2468 -0.0156
95391W        W96255  26.995  19.600  28.652  0.3281 -0.1268  0.2472
95392W        W96256  28.239  17.317  28.753  0.0190 -0.0720  0.0922
95393W        W96257  27.507  24.161   3.309  0.1476  0.1368  0.0864
95394W        W96258   0.515  20.409   1.976 -0.2375 -0.2516  0.3688
95395W        W96259  25.640  16.440   2.201 -0.0785  0.1177  0.1345
95396W        W96260  27.002  21.567   3.031 -0.1196 -0.1289 -0.1868
95397W        W96261  27.174  20.952   2.280  0.1080 -0.0552 -0.1606
95398W        W96262  27.928  20.690   2.688 -0.0967  0.0818  0.0951
95399W        W96263  26.889  19.511   0.997 -0.0764  0.2264 -0.0919
95400W        W96264  24.983  20.683   0.858 -0.0739  0.0152  0.0655
95401W        W96265  26.985  19.456   2.879 -0.1216 -0.2303  0.2084
95402W        W96266   1.053  21.747   3.059  0.0878 -0.1052 -0.2287
95403W        W96267  25.678  16.880   1.411 -0.0409 -0.1027 -0.0337
95404W        W96268  28.449  18.232  28.588  0.0542  0.2103  0.1671
95405W        W96269  23.947  18.355   0.347  0.2176  0.0645  0.1093
95406W        W96270  28.107  16.411   0.368 -0.0069  0.2545  0.2600
95407W        W96271  26.359  18.465   3.002  0.0405  0.0640  0.0890
95408W        W96272  24.829  18.962   3.149 -0.2951 -0.1587  0.0494
95409W        W96273  27.696  22.185   2.036  0.0712 -0.0876  0.1533
95410W        W96274   0.884  20.514   0.469 -0.4987 -0.0727  0.0213
95411W        W96275  26.120  19.197   2.547  0.0181  0.1441 -0.1778
95412W        W96276  27.263  20.584   3.217  0.0543  0.0320  0.2787
95413W        W96277  28.388  16.842  27.861  0.2426 -0.3758  0.3978
95414W        W96278  26.040  21.348   3.658 -0.2477 -0.0224  0.0268
95415W        W96279  26.698  22.794   1.658 -0.0816 -0.0613  0.1053
95416W        W96280  27.510  22.888  26.869 -0.0104 -0.1944 -0.1621
95417W        W96281  27.082  17.703  28.837  0.1085 -0.0509  0.1193
95418W        W96282  28.477  20.765   3.738 -0.2919 -0.0674 -0.1360
95419W        W96283  25.069  19.388   1.860  0.2834  0.1031 -0.1994
95420W        W96284   0.298  20.548   2.969  0.1943 -0.3201 -0.2030
95421W        W96285  28.109  21.266   3.044 -0.0226 -0.3839  0.2866
95422W        W96286   3.047  20.647   4.228  0.1239  0.0214 -0.0091
95423W        W96287   2.039  22.104  28.473 -0.1034 -0.1713  0.0603
95424W        W96288  25.748  21.499   2.604 -0.0633 -0.1850  0.0638
95425W        W96289  28.408  24.461   0.421  0.0330  0.0549 -0.2873
95426W        W96290  27.719  19.824   2.399  0.0921  0.3821 -0.0279
95427W        W96291  27.643  20.172   6.100 -0.0883  0.2259  0.1403
95428W        W96292  27.730  16.724   2.872 -0.0767 -0.1542 -0.1990
95429W        W96293  28.906  23.526   2.799 -0.1881  0.0473 -0.2815
95430W        W96294  26.866  21.496   4.137  0.0045  0.0421  0.0244
95431W        W96295  29.026  19.453   0.568  0.0739  0.0945 -0.2960
95432W        W96296  29.107  21.633   2.549  0.0092 -0.1031 -0.2019
95433W        W96297  27.899  19.465   2.831  0.2300  0.3220 -0.1189
95434W        W96298  28.392  20.921   1.968 -0.0293 -0.0245  0.1352
95435W        W96299  28.798  21.220   2.895  0.1792 -0.0094 -0.1711
95436W        W96300   2.042  23.199   2.610  0.0601  0.2872  0.2896
95437W        W96301  27.903  21.726   4.733 -0.0225  0.1977 -0.0065
95438W        W96302  26.916  19.115   1.420  0.1874 -0.1314 -0.1482
95439W        W96303   0.586  21.828   5.362 -0.0430  0.1321 -0.0254
95440W        W96304  26.912  21.410   2.077 -0.0421  0.1231 -0.0991
95441W        W96305  28.668  20.086   1.913 -0.0595 -0.4035  0.0545
95442W        W96306  25.550  18.212   0.116  0.0231  0.1172  0.1275
95443W        W96307  25.558  20.216   1.734 -0.4181  0.0472  0.0501
95444W        W96308   0.458  20.928   2.171 -0.4633  0.0543  0.0988
95445W        W96309  27.163  17.625   0.557 -0.3462 -0.3461  0.0050
95446W        W96310  28.007  22.827   3.211 -0.2444 -0.0233  0.0364
95447W        W96311  28.330  25.141   3.430  0.2373 -0.1564 -0.0545
95448W        W96312  26.194  20.653   3.024 -0.0467 -0.1417  0.0147
95449W        W96313  25.306  20.234   2.922  0.4254  0.3971 -0.0997
95450W        W96314  26.800  17.805   1.578 -0.1439  0.3925  0.3039
95451W        W96315  29.098  20.272   1.930 -0.2142 -0.2417 -0.0000
95452W        W96316   1.257  19.221   0.768 -0.1016 -0.2147 -0.0588
95453W        W96317  27.121  21.847   1.896  0.0655  0.1774  0.1016
95454W        W96318  29.043  20.200   3.021  0.0807  0.0755 -0.1622
95455W        W96319  25.713  20.397   2.185 -0.1079  0.1682 -0.0615
95456W        W96320  27.926  23.448   0.438 -0.0601  0.0692  0.0628
95457W        W96321  25.646  18.491   1.356 -0.1946 -0.1138  0.3299
95458W        W96322  27.727  20.367   1.157 -0.0907 -0.1337 -0.5793
95459W        W96323  26.690  17.572   4.111  0.1936  0.2331 -0.2769
95460W        W96324  27.411  24.720   1.347 -0.2199 -0.1355 -0.1360
95461W        W96325   0.992  23.662   1.648 -0.3147  0.1196 -0.0231
95462W        W96326  27.800  19.341   1.415  0.2619 -0.0954 -0.0672
95463W        W96327  28.401  19.357   2.803  0.1260  0.1689  0.0207
95464W        W96328   0.334  20.829   1.190 -0.1451 -0.0453 -0.0012
95465W        W96329  25.979  18.676   2.517  0.1642  0.3215  0.0914
95466W        W96330   0.007  24.089   0.710 -0.2815  0.0174  0.1526
95467W        W96331  27.849  20.744   1.975  0.2128  0.0498 -0.1723
95468W        W96332  27.483  16.260   2.045 -0.2784  0.1956 -0.1760
95469W        W96333  27.520  21.824   3.004  0.1302 -0.1481  0.1679
95470W        W96334  27.776  21.533   3.514  0.2590  0.0179 -0.2065
95471W        W96335   1.463  20.034   3.457  0.0563  0.2579  0.1262
95472W        W96336  28.042  22.611   0.333  0.4113  0.1172  0.0189
95473W        W96337  24.498  23.334   2.008 -0.0566 -0.1170  0.1185
95474W        W96338  28.713  21.928   2.412 -0.1567  0.0590 -0.1827
95475W        W96339  28.594  23.167  28.932 -0.1773  0.1538  0.3535
95476W        W96340  26.856  19.390   1.972  0.1960  0.0263  0.0361
95477W        W96341   1.910  19.966   3.243 -0.2132  0.1096 -0.2083
95478W        W96342  25.727  19.851   3.569  0.0744 -0.0238 -0.0266
95479W        W96343   2.581  22.455   3.600 -0.0448  0.0950 -0.1136
95480W        W96344  26.453  19.789   5.269  0.0410 -0.0945  0.2543
95481W        W96345  26.904  17.688   1.098 -0.3461  0.1488  0.1608
95482W        W96346  28.701  23.310   0.711  0.2459  0.1970  0.0305
95483W        W96347  27.648  18.192   0.590  0.4937  0.0640 -0.0492
95484W        W96348  25.293  15.262   6.282  0.0103  0.1446 -0.1158
95485W        W96349   0.311  19.134   1.481  0.0954  0.0638 -0.2406
95486W        W96350  27.236  19.588   0.594 -0.0343 -0.1468 -0.0347
95487W        W96351  23.571  19.419   3.407  0.3525 -0.0667  0.1160
95488W        W96352  28.011  22.054   1.206  0.1412  0.0656 -0.0935
95489W        W96353   0.572  19.116   0.097 -0.0367  0.1034  0.0883
95490W        W96354  26.820  20.420   2.313  0.1896 -0.2410 -0.1794
95491W        W96355  25.487  21.075   3.987  0.4538  0.2230  0.2629
95492W        W96356  26.683  22.927   2.665 -0.0099  0.3649  0.0289
95493W        W96357  28.245  18.597   1.616  0.0999  0.0770  0.4588
95494W        W96358  26.917  21.105   1.537  0.1950 -0.0002  0.0483
95495W        W96359  27.294  21.575   3.490 -0.0261  0.3233 -0.1469
95496W        W96360  28.868  20.607   2.765 -0.0653  0.1658  0.0673
95497W        W96361  28.615  22.906   1.061 -0.2018  0.4693  0.1923
95498W        W96362  28.637  19.807   0.379  0.2224 -0.0180 -0.0332
95499W        W96363  29.124  18.788   1.336 -0.1542 -0.3023 -0.2343
95500W        W96364  28.636  19.255   1.077 -0.0180 -0.1242  0.3165
95501W        W96365  27.023  20.242  27.894  0.3379  0.1842  0.1456
95502W        W96366  26.749  22.037   1.338 -0.0617  0.1000 -0.1415
95503W        W96367  29.066  17.830   2.002  0.1457 -0.0754 -0.2365
95504W        W96368   0.119  20.524   2.356 -0.1893  0.3240  0.0834
95505W        W96369   1.504  19.737   1.454  0.0768 -0.0876 -0.0207
95506W        W96370   0.452  18.031   4.307 -0.2595  0.2536 -0.1432
95507W        W96371  24.172  20.280   3.018  0.1697  0.0741  0.2535
95508W        W96372  27.046  19.252  27.796 -0.1184 -0.2114  0.0084
95509W        W96373  25.003  19.339   2.811  0.2992  0.1035 -0.1037
95510W        W96374  26.483  21.896   3.635 -0.1109  0.1939 -0.0047
95511W        W96375  28.853  21.605   1.552  0.0782  0.2853 -0.0356
95512W        W96376   1.469  21.887   0.750 -0.2447  0.2804 -0.0037
95513W        W96377  27.579  24.593   5.639 -0.1231 -0.0658  0.1023
95514W        W96378  27.109  20.194   6.874  0.1771  0.2323 -0.0784
95515W        W96379  26.117  14.846  28.750  0.0929 -0.0567  0.0002
95516W        W96380   0.755  20.025   0.643 -0.2436 -0.3378  0.0243
95517W        W96381  26.739  20.904   2.479  0.2458  0.1125 -0.1710
95518W        W96382  26.963  18.543  28.619  0.1134  0.0565 -0.4970
95519W        W96383  23.849  24.519   4.652  0.0974  0.0603 -0.4239
95520W        W96384  29.120  19.233   1.024  0.3015 -0.1397  0.2180
95521W        W96385  28.902  21.520   3.377 -0.0789 -0.3398  0.0425
95522W        W96386  26.955  19.953   0.831  0.3003  0.2510 -0.3714
95523W        W96387  26.591  18.501   1.634 -0.1493  0.1758 -0.0122
95524W        W96388  23.731  15.914   0.722 -0.0422  0.2520  0.2109
95525W        W96389  26.438  17.934   1.099  0.0949 -0.0367 -0.2453
95526W        W96390   0.264  22.296   4.783  0.2394  0.2155  0.0079
95527W        W96391  28.381  21.315   1.641 -0.1118  0.2427 -0.2495
95528W        W96392  26.036  18.946   2.095  0.1821  0.2486  0.0317
95529W        W96393   0.147  21.880  27.534 -0.3070 -0.3489 -0.2546
95530W        W96394  21.709  20.244   3.423  0.0046  0.0487 -0.2018
95531W        W96395  26.103  19.821   1.198  0.0345 -0.0440  0.0222
95532W        W96396  27.873  20.406   3.202  0.2515 -0.0242  0.0188
95533W        W96397   0.816  22.058   2.754  0.4072  0.0520 -0.0624
95534W        W96398  27.735  17.322   2.098  0.1785 -0.0163  0.2917
95535W        W96399  26.051  21.282  27.324  0.0719  0.0343 -0.0809
95536W        W96400   1.747  18.489   1.111  0.1248 -0.0941 -0.0470
95537W        W96401  27.142  18.610   0.646  0.0620 -0.1206  0.1063
95538W        W96402  28.277  19.664   2.404  0.0751 -0.0460 -0.3467
95539W        W96403   1.473  22.141   1.412  0.0823 -0.1565  0.1836
95540W        W96404   0.636  20.431   3.611  0.3020 -0.0367  0.0535
95541W        W96405  28.638  22.434   5.674  0.0050 -0.2425 -0.2155
95542W        W96406  28.415  22.527   3.235 -0.3323  0.0716  0.0195
95543W        W96407  26.307  23.411   3.494 -0.2149 -0.3902 -0.2818
95544W        W96408  26.524  21.684   2.190  0.2590 -0.2091  0.1746
95545W        W96409   0.084  21.293   1.112 -0.2170  0.2789 -0.0170
95546W        W96410  25.478  19.451   3.420  0.0944 -0.2170  0.1325
95547W        W96411  27.673  19.816   0.478  0.0768  0.1380 -0.1340
95548W        W96412  24.915  19.854   2.872 -0.0018  0.1077  0.0674
95549W        W96413  24.798  18.565   4.464 -0.1858  0.2725 -0.1493
95550W        W96414  27.797  16.722   0.674  0.0742 -0.1636  0.2371
95551W        W96415  27.773  21.205   1.559  0.4238 -0.2608  0.0040
95552W        W96416  27.826  19.321   0.436 -0.0505 -0.5806  0.0925
95553W        W96417  25.973  22.985   3.526 -0.0712 -0.1258 -0.0584
95554W        W96418  25.949  17.923   0.918  0.1967  0.1396  0.1654
95555W        W96419  25.406  17.019   3.168 -0.2005 -0.0949  0.1048
95556W        W96420  27.786  19.212   2.313  0.0419 -0.0427 -0.2555
95557W        W96421  28.610  16.331  28.640 -0.0007 -0.3559  0.0102
95558W        W96422  27.456  19.020   1.181 -0.2726  0.0812 -0.2501
95559W        W96423   1.015  19.097   1.694 -0.1086  0.1462 -0.1704
95560W        W96424   1.930  22.137   3.090 -0.0197 -0.0272  0.0032
95561W        W96425  28.074  20.344   3.639  0.2955  0.2617 -0.1322
95562W        W96426  29.079  20.991   0.100  0.0164  0.1065 -0.2260
95563W        W96427   0.963  21.002   1.921 -0.1995 -0.3117 -0.0357
95564W        W96428  24.592  20.628   1.912  0.1538 -0.0216  0.0957
95565W        W96429  26.968  18.043   4.336 -0.2579 -0.4788  0.2843
95566W        W96430  25.490  19.771   4.533 -0.1270  0.3650 -0.0943
95567W        W96431  27.003  18.895   1.995  0.3117 -0.3078 -0.1805
95568W        W96432  26.103  19.811  26.855 -0.0374 -0.0716  0.0572
95569W        W96433   1.612  20.849   2.664 -0.1161  0.1814  0.0272
95570W        W96434  27.063  20.671   3.636  0.3555 -0.1228 -0.2966
95571W        W96435  27.445  16.607   1.502 -0.1157 -0.2207  0.0869
95572W        W96436  27.068  21.105   3.421 -0.2013 -0.2047 -0.0089
95573W        W96437   0.283  25.254   0.783 -0.1835  0.0992  0.0632
95574W        W96438  28.090  22.464   2.107 -0.0815 -0.1836  0.2575
95575W        W96439   0.118  22.174   1.158 -0.1870  0.1044  0.0665
95576W        W96440   0.912  20.823  29.124 -0.0557 -0.2611 -0.2417
95577W        W96441  28.773  18.738   1.707 -0.0219 -0.2318  0.0244
95578W        W96442  27.174  16.816  28.061  0.1323  0.1106 -0.0964
95579W        W96443   4.233  20.783   4.606 -0.1284 -0.1731  0.3011
95580W        W96444  28.889  19.199  28.929  0.2809  0.0766 -0.0756
95581W        W96445   1.308  23.205   5.274 -0.3096  0.1481  0.2858
95582W        W96446  28.353  22.093   0.741 -0.1160 -0.0609  0.1138
95583W        W96447  26.442  20.628   3.577 -0.0491  0.0408  0.1830
95584W        W96448  27.766  19.547   1.926 -0.2926 -0.2887  0.1081
95585W        W96449   0.110  25.320   2.187 -0.2249 -0.0778  0.1097
95586W        W96450  27.155  19.109   0.734  0.2774 -0.1659  0.0505
95587W        W96451  27.860  21.232   4.867  0.1288 -0.0878  0.3167
95588W        W96452  26.495  20.611   5.248 -0.1017  0.1752  0.1830
95589W        W96453  28.811  19.624   1.844  0.0437  0.0928 -0.2470
95590W        W96454  27.370  20.925   1.822  0.0449 -0.0588  0.2399
95591W        W96455   1.793  22.658   3.130  0.1502 -0.1731  0.4322
95592W        W96456  28.356  24.414   4.679  0.3076 -0.0528  0.3519
95593W        W96457  25.882  18.302   2.085  0.0922  0.0754  0.1121
95594W        W96458  27.015  22.525   0.237 -0.1922  0.1614 -0.0023
95595W        W96459  28.151  19.910   5.680 -0.2153  0.2616 -0.1791
95596W        W96460  26.414  24.649   4.372 -0.0745 -0.3508  0.0328
95597W        W96461  28.523  17.807   2.573  0.1476  0.1835  0.0505
95598W        W96462   0.382  24.417   4.006  0.1313  0.1138 -0.2651
95599W        W96463  28.103  19.935   2.009  0.0783  0.0412  0.1392
95600W        W96464   1.184  20.090   2.648 -0.3982  0.3008 -0.0792
95601W        W96465  27.476  20.982   3.714 -0.2261 -0.1436  0.0112
95602W        W96466  26.155  21.510   1.406 -0.0791  0.2831  0.0445
95603W        W96467  27.162  20.149   1.291 -0.1909  0.0398  0.1777
95604W        W96468  27.969  24.455   0.623  0.2755 -0.2191  0.1161
95605W        W96469  26.709  23.960   4.513 -0.1256  0.1586  0.4081
95606W        W96470  28.431  21.326   0.695  0.2257 -0.2282 -0.0739
95607W        W96471  26.465  19.283  28.668 -0.2877 -0.0292 -0.0546
95608W        W96472  24.429  19.165   5.242 -0.2256 -0.2283  0.3463
95609W        W96473  26.960  18.558   5.975  0.0946  0.0682  0.4709
95610W        W96474   1.320  20.257   3.876 -0.1060 -0.1058 -0.3454
95611W        W96475  28.023  20.230   6.789  0.0143 -0.1184 -0.0468
95612W        W96476  27.039  21.051   4.005  0.1637  0.0967 -0.0560
95613W        W96477  26.215  19.755   2.865 -0.0248  0.2078 -0.0428
95614W        W96478  28.826  20.893   4.191 -0.0938 -0.1424  0.0490
95615W        W96479  25.871  20.955   4.697 -0.2494  0.1608 -0.0675
95616W        W96480  24.519  21.487   8.294 -0.1428  0.0051 -0.0358
95617W        W96481  25.416  16.266   6.045  0.3655 -0.1624  0.2303
95618W        W96482  25.729  14.847   7.024  0.1381 -0.1984  0.2006
95619W        W96483  28.658  18.862   7.242 -0.1158 -0.4100  0.1526
95620W        W96484  27.372  18.436   2.152 -0.1058  0.2627  0.0539
95621W        W96485  28.928  18.506   9.023  0.2037  0.1258 -0.0028
95622W        W96486  26.313  17.529   7.236  0.1958 -0.0389  0.3287
95623W        W96487  26.288  20.993   5.935  0.0494  0.2958  0.1945
95624W        W96488  28.282  22.155   5.404  0.1928 -0.1937 -0.1782
95625W        W96489  25.436  22.013   6.386 -0.4469  0.3205  0.0157
95626W        W96490  26.644  20.098   6.157 -0.0432 -0.3739 -0.0684
95627W        W96491  28.916  17.980   6.834 -0.2762  0.2567  0.3123
95628W        W96492  27.365  21.920   7.676  0.1841 -0.0232 -0.1400
95629W        W96493  29.145  22.844   5.582 -0.1536 -0.1124 -0.2747
95630W        W96494  28.057  20.528   7.222  0.3137  0.1516 -0.0505
95631W        W96495  26.747  22.935   6.984 -0.0274 -0.1032  0.2167
95632W        W96496  26.826  19.210   5.497 -0.0547  0.2416  0.3525
95633W        W96497   0.304  19.421   6.783  0.1894  0.1827  0.3302
95634W        W96498  28.839  18.453   7.107  0.0839 -0.1662  0.0673
95635W        W96499  25.704  19.434   4.906 -0.2901  0.3121 -0.0203
95636W        W96500  27.720  22.097   7.999 -0.1345  0.2719  0.3195
95637W        W96501  27.398  18.135   6.069 -0.5076  0.1352 -0.2722
95638W        W96502   0.183  21.135   7.015  0.0949  0.2799  0.0247
95639W        W96503  27.534  23.653   7.629 -0.0382  0.0466  0.0172
95640W        W96504  27.084  21.043   9.954  0.0558  0.2882  0.2983
95641W        W96505  27.847  19.190   8.341 -0.3617 -0.0493 -0.0205
95642W        W96506  24.915  20.721   6.079 -0.0859  0.0383  0.1212
95643W        W96507   0.863  21.478   7.820  0.0478  0.2057  0.1754
95644W        W96508  28.979  20.505   4.896  0.1910  0.1225  0.2402
95645W        W96509  27.285  20.417   8.220  0.2441 -0.2059 -0.2530
95646W        W96510   0.828  20.196   4.123  0.0452  0.1519 -0.0393
95647W        W96511  27.378  18.095   7.897 -0.1241 -0.0265 -0.1686
95648W        W96512  27.076  18.681   1.153 -0.0780  0.4415  0.0152
95649W        W96513   3.205  19.228   5.622  0.1674 -0.0093  0.1126
95650W        W96514   2.816  21.161   2.941  0.1679  0.0538  0.1109
95651W        W96515  27.357  19.410   5.804  0.1411  0.0044  0.0465
95652W        W96516  27.860  19.605   4.185 -0.0375  0.0782 -0.3054
95653W        W96517  28.030  22.339   3.003 -0.1750 -0.0861 -0.1583
95654W        W96518  26.964  16.654   5.975  0.1981 -0.1223 -0.0568
95655W        W96519  26.384  19.051   6.881 -0.0595  0.1681 -0.2502
95656W        W96520  29.082  20.008   3.706 -0.3308  0.3377  0.1038
95657W        W96521   0.821  20.804   3.093  0.1924  0.1781  0.1961
95658W        W96522  28.174  17.400   8.268  0.0268  0.2036 -0.1626
95659W        W96523  24.910  17.542   6.828 -0.2655 -0.0547  0.3261
95660W        W96524  27.420  22.916   5.644 -0.1904  0.2696  0.3443
95661W        W96525   0.075  18.374   6.049 -0.0008  0.1331 -0.0247
95662W        W96526  26.507  16.824   5.217  0.4043 -0.2223  0.0127
95663W        W96527  27.638  20.368   5.501  0.2261  0.1891  0.0448
95664W        W96528   0.160  17.068   6.663  0.1421  0.0145  0.0263
95665W        W96529  27.206  17.222   5.949 -0.0956 -0.1635  0.0554
95666W        W96530  27.423  22.784   4.703 -0.4327  0.1277 -0.2633
95667W        W96531  26.955  22.668   4.635  0.1392 -0.1308  0.2000
95668W        W96532  28.355  20.925   2.832 -0.0451  0.1493  0.0254
95669W        W96533  26.071  18.715   5.510  0.2678  0.0592  0.0014
95670W        W96534  28.465  21.968   9.084 -0.4774  0.1080 -0.0176
95671W        W96535  27.009  18.740   3.753 -0.1438 -0.2491 -0.0770
95672W        W96536  27.839  19.788   4.710 -0.0107  0.2595 -0.0489
95673W        W96537   0.377  17.524   3.555 -0.0981  0.2277  0.0025
95674W        W96538  25.783  19.109   0.854  0.2437 -0.1275  0.0727
95675W        W96539  27.172  22.984   2.915 -0.1985 -0.0015  0.3888
95676W        W96540  26.828  20.882   4.921  0.1447  0.0530 -0.1850
95677W        W96541  27.379  20.830   6.406 -0.3020 -0.1999 -0.0307
95678W        W96542  27.047  23.293   8.255 -0.1681 -0.0372  0.0356
95679W        W96543  27.497  16.219   2.517  0.1376  0.1410  0.2207
95680W        W96544  29.077  21.205   7.622 -0.0904  0.0218 -0.0126
95681W        W96545   0.255  16.477   7.621  0.0734 -0.1771 -0.1032
95682W        W96546  29.142  22.361   5.659  0.1125 -0.1261 -0.0756
95683W        W96547  28.759  18.589   6.181 -0.2800  0.0602  0.0910
95684W        W96548  25.499  20.209   3.789 -0.0514  0.0770 -0.1637
95685W        W96549  26.860  18.642   5.340  0.3288  0.0935 -0.0524
95686W        W96550  26.207  18.555   4.045  0.1829 -0.0539 -0.1544
95687W        W96551  28.224  20.772   3.293 -0.1443 -0.3696 -0.2110
95688W        W96552  26.293  19.420   8.316 -0.0705  0.1739  0.0196
95689W        W96553  26.459  19.681   4.718  0.1188  0.0610  0.0140
95690W        W96554  27.883  14.414   3.422 -0.1201 -0.0699 -0.1489
95691W        W96555  28.384  18.219   5.493  0.3594 -0.0604  0.0147
95692W        W96556  27.921  20.815   5.898  0.0396  0.0132  0.0570
95693W        W96557  27.045  19.201   3.948 -0.1524 -0.1601  0.3588
95694W        W96558   2.335  23.672   6.171  0.2645  0.2311 -0.1464
95695W        W96559  27.697  16.325   7.362  0.0785  0.0883 -0.0676
95696W        W96560  27.844  19.650   8.142 -0.1828  0.2276 -0.1273
95697W        W96561  26.835  18.510   8.071 -0.1244 -0.0298 -0.0542
95698W        W96562   0.493  17.760   4.758 -0.4667  0.0470  0.3610
95699W        W96563  26.024  20.026   8.071 -0.1846  0.2341  0.3346
95700W        W96564   0.145  21.296   4.659 -0.2997 -0.1775  0.0123
95701W        W96565  25.077  18.615   4.963  0.0899 -0.1918 -0.0443
95702W        W96566  28.455  19.746   9.548  0.2798  0.0483  0.0573
95703W        W96567   0.120  19.693   5.498 -0.2328  0.0789  0.0523
95704W        W96568  29.125  19.908   6.815  0.0333 -0.0263 -0.0327
95705W        W96569  26.010  21.215   7.795 -0.0709 -0.1174  0.2789
95706W        W96570  27.149  18.629   1.618  0.0437 -0.2871  0.2461
95707W        W96571   0.332  18.805   5.869  0.1712  0.0965  0.2114
95708W        W96572   1.134  19.801   5.216  0.2642 -0.1506  0.1674
95709W        W96573  25.928  20.855   6.257  0.0979  0.1772  0.3743
95710W        W96574  28.086  17.247   5.466  0.0998  0.2962 -0.3288
95711W        W96575   1.876  17.277   4.056 -0.0510  0.0329 -0.1383
95712W        W96576  26.446  18.450   3.564  0.0975  0.0578  0.1723
95713W        W96577  27.985  20.231   4.575  0.0384  0.0236 -0.1136
95714W        W96578  24.694  18.319  10.298  0.1487  0.0538 -0.3139
95715W        W96579  26.688  17.410   6.894 -0.0322  0.1995  0.0276
95716W        W96580  27.043  20.165   7.355  0.0963 -0.1594  0.0632
95717W        W96581  26.745  19.726   5.772  0.1418  0.1538  0.1778
95718W        W96582   1.108  22.127   3.373  0.0888  0.2035 -0.4981
95719W        W96583  28.392  16.628   5.349 -0.2145  0.1215 -0.0649
95720W        W96584  28.367  21.403   4.910  0.3074 -0.1177  0.1681
95721W        W96585  28.870  21.961   5.579 -0.1939  0.1572  0.2601
95722W        W96586  28.007  21.672   5.214  0.1469 -0.0285 -0.1446
95723W        W96587  27.883  18.203   6.164  0.0417  0.1909  0.0637
95724W        W96588  27.061  20.256   6.349 -0.2787  0.1745 -0.1155
95725W        W96589  27.468  21.286   3.110 -0.1848 -0.1861  0.0999
95726W        W96590  27.575  17.067   6.917  0.3221 -0.2285  0.1835
95727W        W96591  28.444  18.899   5.872  0.0456  0.0728 -0.1627
95728W        W96592   3.782  22.494   6.225 -0.2024 -0.0547  0.0725
95729W        W96593  27.409  18.593   6.895 -0.0588  0.0323 -0.1030
95730W        W96594  27.960  18.760   4.409 -0.0421 -0.3383 -0.4560
95731W        W96595  27.992  20.721   4.705  0.2241  0.0306 -0.0035
95732W        W96596  27.578  18.977   3.174  0.3443  0.1081  0.2497
95733W        W96597  25.186  19.677   3.815  0.1359  0.2501  0.2090
95734W        W96598  27.041  18.548   4.298  0.0179 -0.1798  0.4174
95735W        W96599   0.379  20.985   7.483 -0.2530  0.2004  0.0318
95736W        W96600   0.677  20.485   7.907  0.0630  0.2135 -0.1625
95737W        W96601  28.061  22.137   6.093  0.1011 -0.1848  0.0234
95738W        W96602  28.221  16.977   5.101 -0.3898 -0.0422 -0.2059
95739W        W96603  25.172  19.708   6.171  0.0846 -0.0755  0.2592
95740W        W96604   0.131  19.638   4.165  0.0686  0.1785 -0.1278
95741W        W96605  27.900  18.778   6.148  0.3669 -0.1352  0.0291
95742W        W96606  25.549  17.168   6.460  0.0769  0.0995 -0.0110
95743W        W96607   0.538  20.617   5.727  0.0530 -0.0925  0.0622
95744W        W96608  28.116  19.231   5.978  0.1320  0.2482  0.0122
95745W        W96609  26.539  20.900   6.385 -0.1154 -0.1226 -0.1964
95746W        W96610   2.234  24.117   3.501 -0.0036 -0.1207  0.1390
95747W        W96611  24.534  16.219   3.600 -0.0822  0.1165 -0.2951
95748W        W96612  28.607  15.703   6.250  0.0300  0.2553 -0.1479
95749W        W96613  26.369  22.119   4.064 -0.2120  0.0864  0.1116
95750W        W96614  27.693  19.105   4.096 -0.0863 -0.0050 -0.1232
95751W        W96615  28.050  18.530   6.542 -0.0768  0.3938 -0.0128
95752W        W96616  26.367  17.856   6.829 -0.1375 -0.0468  0.2313
95753W        W96617   3.941  17.113   3.179  0.0774  0.2551 -0.1108
95754W        W96618  29.092  21.471   5.610  0.0516  0.3034 -0.1731
95755W        W96619  28.229  22.577   6.523  0.2213  0.0004 -0.2277
95756W        W96620  24.106  21.155   8.092 -0.1670 -0.1844  0.2887
95757W        W96621  28.766  19.457   8.250 -0.0493 -0.1019 -0.0989
95758W        W96622  26.610  18.776   4.353  0.1694 -0.0669 -0.3181
95759W        W96623  24.567  19.416   7.103 -0.0286 -0.0613  0.0003
95760W        W96624  27.698  20.031   4.203  0.0410 -0.0792  0.2305
95761W        W96625  24.317  20.550   5.244  0.0250  0.1267 -0.0397
95762W        W96626  25.917  13.899   8.249 -0.0009  0.0930 -0.2204
95763W        W96627  27.199  19.440   6.384 -0.1626  0.0278 -0.2913
95764W        W96628  28.152  20.029   4.046 -0.1075  0.0750 -0.2466
95765W        W96629  28.143  19.015   1.869  0.1548  0.2151 -0.2755
95766W        W96630  28.981  17.571   3.590 -0.4065 -0.1630  0.0753
95767W        W96631  27.755  17.718   6.235  0.4139 -0.1725  0.3587
95768W        W96632  27.335  19.861   6.570  0.0554  0.3934 -0.1312
95769W        W96633  27.098  18.659   7.259 -0.2551 -0.0586  0.3466
95770W        W96634  26.430  21.451   9.198  0.1990 -0.3775 -0.0637
95771W        W96635  27.713  16.245   8.886 -0.1279 -0.0379 -0.1599
95772W        W96636  25.443  17.625   6.088 -0.0263  0.3998  0.4346
95773W        W96637  28.648  21.245   3.890  0.0718  0.3478 -0.0720
95774W        W96638  27.036  24.700   5.061  0.1243 -0.0974 -0.1568
95775W        W96639   0.055  21.806   3.911 -0.1831  0.1110  0.0815
95776W        W96640  28.944  21.813   2.956 -0.0332 -0.1096  0.4256
95777W        W96641  25.923  20.145   6.292 -0.1610  0.0502  0.3704
95778W        W96642  28.998  18.524   4.882 -0.1848  0.1453  0.0828
95779W        W96643  27.749  19.632   6.080  0.0596  0.2050 -0.1315
95780W        W96644  27.608  21.340   4.411 -0.0837 -0.0652 -0.1963
95781W        W96645  26.665  21.248   6.770 -0.2064 -0.2423 -0.3641
95782W        W96646   0.707  21.301   3.310 -0.0403  0.2613 -0.1689
95783W        W96647  25.937  21.632   8.171  0.3974 -0.3350 -0.2965
95784W        W96648  24.338  18.454   6.815  0.4476 -0.0261  0.0259
95785W        W96649  27.106  22.951   6.633 -0.2586  0.2192 -0.1286
95786W        W96650  26.835  18.037   6.133 -0.3563 -0.0841  0.1709
95787W        W96651  28.035  23.571   2.825  0.0938  0.0143 -0.2827
95788W        W96652   0.163  19.307   3.235 -0.1234 -0.0294 -0.1241
95789W        W96653  28.427  21.992   3.326 -0.2710 -0.2665  0.0633
95790W        W96654  26.219  19.987   5.805  0.1367 -0.0693 -0.0695
95791W        W96655  28.499  21.597   3.052 -0.2391 -0.0878  0.4443
95792W        W96656  27.879  18.360   4.134  0.2562 -0.1383 -0.3057
95793W        W96657   0.218  16.328   1.442  0.1669  0.3274  0.4011
95794W        W96658  25.678  17.269   2.279  0.1221 -0.1078  0.0629
95795W        W96659  26.148  21.093   6.945  0.1197 -0.2283  0.0953
95796W        W96660  24.723  19.480   6.126 -0.1501 -0.3568 -0.2049
95797W        W96661  28.145  18.998   3.452 -0.0119  0.1031  0.0566
95798W        W96662  26.729  21.913   5.828 -0.1177  0.1272  0.1140
95799W        W96663  25.336  16.797   6.171 -0.0253 -0.2625 -0.1036
95800W        W96664  25.900  17.413   6.850 -0.1319  0.0210  0.0212
95801W        W96665   0.475  16.981   7.623  0.0145 -0.2166  0.1094
95802W        W96666  28.521  16.980   4.660 -0.1337 -0.1469  0.1328
95803W        W96667   0.808  17.179   3.506 -0.1797  0.0471 -0.1521
95804W        W96668  27.020  17.628   2.567 -0.1510 -0.4451 -0.1731
95805W        W96669  25.983  20.385   3.450 -0.2128 -0.4323  0.1066
95806W        W96670   0.719  19.570   4.969 -0.3075 -0.1484  0.0283
95807W        W96671  24.706  19.657   4.274 -0.1401 -0.1798  0.2836
95808W        W96672  27.364  17.947   4.748 -0.1294  0.1799 -0.2619
95809W        W96673  28.229  19.199   5.501  0.0126  0.0658 -0.0074
95810W        W96674  26.607  16.526   5.554 -0.1477 -0.1658 -0.2693
95811W        W96675  28.255  19.259   7.392  0.0811  0.0625  0.1377
95812W        W96676  26.184  19.404   4.054  0.0808 -0.0139 -0.0077
95813W        W96677  28.020  21.039   6.442  0.1673 -0.1150  0.2979
95814W        W96678  27.105  20.103   5.395 -0.1600 -0.0683 -0.2370
95815W        W96679  26.329  23.668   3.056 -0.3969 -0.2811 -0.1289
95816W        W96680   0.437  19.898   4.431 -0.2632  0.2010 -0.1468
95817W        W96681  25.383  22.646   8.243 -0.1072  0.1520 -0.2558
95818W        W96682  26.874  20.365   5.093  0.1119  0.1069 -0.1239
95819W        W96683  26.915  19.639   5.287 -0.0914  0.0263 -0.0560
95820W        W96684   1.513  15.312   7.835 -0.2144  0.0079 -0.0165
95821W        W96685  27.437  19.732   5.223  0.2743  0.0938 -0.0876
95822W        W96686  28.148  20.346   5.928 -0.1109 -0.0062 -0.1502
95823W        W96687  29.077  21.794   6.514  0.0779 -0.3233 -0.0832
95824W        W96688  28.079  21.889   3.682 -0.2427 -0.0041  0.1505
95825W        W96689  28.511  18.351   6.521 -0.0121  0.3340  0.1201
95826W        W96690  27.302  21.626   6.392 -0.0619  0.0071 -0.1672
95827W        W96691  28.582  16.847   7.715  0.1290  0.0376  0.0032
95828W        W96692  28.585  18.546   8.066  0.2574  0.3480 -0.0410
95829W        W96693  25.451  23.961   6.279 -0.0327  0.0562 -0.1885
95830W        W96694   0.358  20.210   4.793 -0.1840 -0.3603 -0.0207
95831W        W96695  28.653  19.329   4.533  0.0298 -0.1533 -0.1354
95832W        W96696  26.593  19.882   7.527 -0.5471 -0.0090 -0.3049
95833W        W96697  25.931  20.315   6.826 -0.0072 -0.2889 -0.0963
95834W        W96698  28.518  19.496   5.863 -0.1431  0.0108  0.0506
95835W        W96699  28.816  22.357   5.243  0.0032  0.2076  0.0107
95836W        W96700  28.544  16.928   6.155  0.2597 -0.0172  0.1411
95837W        W96701  26.462  18.924   5.269  0.2576 -0.1074 -0.0233
95838W        W96702  27.766  21.729   7.473  0.2775 -0.0233 -0.0582
95839W        W96703  27.889  19.846   3.201  0.0370 -0.0534 -0.0151
95840W        W96704  28.422  17.691   6.747  0.0986 -0.3512  0.0228
95841W        W96705  26.073  18.171   6.310 -0.1411  0.1540  0.1843
95842W        W96706  26.421  23.247   5.219  0.1894 -0.0288  0.2251
95843W        W96707   0.920  21.199   5.461 -0.0469 -0.0473  0.0478
95844W        W96708  27.832  15.475   9.642  0.0524 -0.2381  0.0993
95845W        W96709   0.252  22.167   6.740 -0.1801  0.3066 -0.0613
95846W        W96710  28.894  21.977   6.991 -0.4207 -0.1101 -0.1002
95847W        W96711  28.789  19.247   5.511 -0.2982 -0.1601  0.0387
95848W        W96712  26.334  19.385   5.532 -0.2548 -0.0162  0.1679
95849W        W96713  26.449  18.678   7.233 -0.1083 -0.0505 -0.2910
95850W        W96714  26.625  19.236   3.541  0.0484  0.1033  0.0377
95851W        W96715   1.014  17.939   5.702  0.3029  0.1534 -0.0061
95852W        W96716  26.068  21.332   3.007  0.1430  0.0481 -0.3120
95853W        W96717   3.446  20.356   4.270 -0.2315 -0.0060  0.2676
95854W        W96718  26.982  20.602   5.538  0.3453 -0.1933  0.0814
95855W        W96719  28.552  22.341   6.848 -0.1026  0.1561  0.0472
95856W        W96720  27.173  17.326   3.928 -0.1793 -0.1057 -0.2268
95857W        W96721  26.194  19.503   2.178  0.3254 -0.1165  0.1915
95858W        W96722  27.233  23.084   7.178  0.0622 -0.0964 -0.0482
95859W        W96723  27.512  20.329   6.635 -0.0472 -0.0712 -0.1001
95860W        W96724  27.268  17.148   7.478 -0.0342  0.2039 -0.0983
95861W        W96725  25.201  20.336   2.153  0.0743 -0.0270 -0.1157
95862W        W96726   1.259  18.685   6.081 -0.0459  0.1469 -0.1783
95863W        W96727  28.430  17.648   5.473 -0.0434  0.1197 -0.1133
95864W        W96728  26.726  18.143   5.633 -0.3338  0.0803  0.4254
95865W        W96729  28.027  18.617   5.650  0.0898 -0.0495  0.1568
95866W        W96730   0.147  20.479   3.453  0.3278  0.4010 -0.2048
95867W        W96731  27.502  15.643   6.703  0.1154  0.0353  0.3385
95868W        W96732  27.422  21.213   6.097  0.0079  0.1962  0.0352
95869W        W96733  27.601  19.423   6.686  0.0522  0.2838  0.2122
95870W        W96734  28.369  21.527   6.379 -0.0828  0.0423  0.0775
95871W        W96735  26.373  22.882   3.766 -0.1922  0.0019 -0.3420
95872W        W96736  25.970  18.543   5.963 -0.0512  0.3734  0.1681
95873W        W96737  24.718  20.619   3.846 -0.1395 -0.0976 -0.2726
95874W        W96738  26.266  23.058   4.756 -0.1635  0.1983 -0.2416
95875W        W96739  24.491  19.935   5.934  0.0295 -0.2109 -0.0482
95876W        W96740  28.293  19.085   2.334 -0.1079  0.2636 -0.1072
95877W        W96741  27.519  17.923   6.589 -0.1381 -0.1217 -0.1388
95878W        W96742  28.936  21.151   8.167  0.3099  0.0230  0.1879
95879W        W96743  27.502  17.936   4.138 -0.2757 -0.0939 -0.0631
95880W        W96744  26.136  18.159   5.586  0.0037  0.0019  0.1269
95881W        W96745   1.207  18.515   9.445 -0.0019 -0.0256  0.2126
95882W        W96746  28.411  17.865   6.251 -0.0179  0.0341  0.2634
95883W        W96747  24.050  15.061   5.566  0.0034 -0.0316 -0.0590
95884W        W96748  26.688  18.721   4.864  0.4027 -0.0946 -0.1879
95885W        W96749  27.491  17.643   3.704  0.0508 -0.1555 -0.1585
95886W        W96750  26.591  19.592   3.835  0.1638 -0.1902  0.1369
95887W        W96751  27.059  21.559   5.963 -0.1455 -0.0500  0.2129
95888W        W96752  28.078  21.209   5.393  0.0151  0.0439  0.4665
95889W        W96753  23.870  20.779   5.404 -0.0009  0.0355  0.5176
95890W        W96754  26.053  19.469   4.537 -0.1178 -0.3005  0.3095
95891W        W96755  27.226  20.050   4.402 -0.0343  0.2791  0.1630
95892W        W96756  28.887  16.879   6.941  0.1669 -0.1263 -0.0116
95893W        W96757  28.123  18.954  10.021  0.0686 -0.0590 -0.1167
95894W        W96758  26.582  19.370   7.632 -0.2301  0.0559 -0.2949
95895W        W96759  28.779  18.320   3.233 -0.0368 -0.0350 -0.1441
95896W        W96760  28.266  19.274   3.901  0.2209 -0.0851 -0.1337
95897W        W96761  27.288  19.150   7.093  0.2796  0.0525 -0.0345
95898W        W96762   0.012  16.972   2.033  0.1940 -0.0642  0.4037
95899W        W96763   0.449  20.719   4.901 -0.0734 -0.2421  0.1097
95900W        W96764  27.002  17.058   4.945 -0.2106  0.1869  0.2344
95901W        W96765  26.783  21.752   6.443  0.4184  0.0374  0.2419
95902W        W96766   0.172  19.204   7.460 -0.2685 -0.2250 -0.1498
95903W        W96767  27.539  20.083   7.945  0.1125 -0.2489 -0.1876
95904W        W96768   0.532  19.786   5.837 -0.1668  0.2693  0.0322
95905W        W96769  28.186  16.317   7.182 -0.1077  0.1964  0.1129
95906W        W96770  28.309  20.999   4.139 -0.2782 -0.0201 -0.0980
95907W        W96771  25.941  21.746   4.290  0.0681  0.1465 -0.2550
95908W        W96772  25.257  20.390   4.555  0.2237  0.1125 -0.2893
95909W        W96773  28.898  21.249   6.436 -0.1426  0.4522 -0.3341
95910W        W96774   1.630  20.405   4.983  0.2215  0.2465  0.0676
95911W        W96775  24.915  20.875   6.568 -0.0721  0.0152  0.0263
95912W        W96776  27.574  22.800   6.616  0.0903  0.2425 -0.0703
95913W        W96777  27.559  18.995   7.643  0.0257  0.1126  0.0668
95914W        W96778   1.369  16.840   2.126  0.0257 -0.2108 -0.1687
95915W        W96779   0.248  18.392   5.507  0.3565  0.1730 -0.0649
95916W        W96780  24.822  20.119   3.821 -0.1803  0.2179  0.0374
95917W        W96781   0.530  17.088   5.627 -0.0870 -0.0353  0.2033
95918W        W96782  27.801  20.861   5.192  0.3732 -0.2626  0.2207
95919W        W96783   1.215  19.248   2.168  0.0523 -0.4159  0.1704
95920W        W96784  28.737  17.303   4.415  0.1198  0.0573 -0.0792
95921W        W96785  24.516  21.230   7.201 -0.1117  0.0133 -0.1746
95922W        W96786  24.100  22.649   8.395  0.1390  0.1185  0.0713
95923W        W96787  24.371  16.153   6.222  0.1172  0.3094  0.1851
95924W        W96788  28.493  18.987   3.075 -0.3365  0.0435  0.1276
95925W        W96789  28.035  21.784   5.707  0.0583 -0.0672  0.1569
95926W        W96790  27.745  18.713   4.831  0.2805  0.0628  0.2952
95927W        W96791  26.767  23.416   7.276  0.1311  0.2529  0.0795
95928W        W96792  28.282  21.584   4.054  0.0507 -0.0934  0.0631
95929W        W96793  24.794  18.577   6.612 -0.1315  0.2532 -0.1748
95930W        W96794   1.814  21.151   3.077  0.1055 -0.1158  0.2470
95931W        W96795  27.133  20.486   1.905 -0.0247  0.2072 -0.0456
95932W        W96796  27.064  20.661   7.313 -0.0721  0.1984 -0.0513
95933W        W96797  25.626  18.748   5.144  0.2225  0.0247  0.0017
95934W        W96798  27.348  19.490   4.256  0.0724 -0.0090  0.0276
95935W        W96799   0.025  19.717   4.643  0.0942  0.3388 -0.1393
95936W        W96800  24.717  20.750   3.356 -0.0834 -0.0624  0.2925
95937W        W96801  28.496  19.402   9.154 -0.2601 -0.2116 -0.0519
95938W        W96802   2.458  18.147   4.255  0.2514  0.0976 -0.0655
95939W        W96803  29.074  16.459   4.590  0.2516 -0.1348 -0.0913
95940W        W96804  25.013  22.512   8.688 -0.1595  0.0772 -0.2305
95941W        W96805  28.056  18.049   6.647 -0.1598  0.1716  0.0443
95942W        W96806  28.752  22.849   7.122 -0.0459  0.1416  0.1039
95943W        W96807  26.068  22.150   5.137  0.2657 -0.1452  0.0592
95944W        W96808  27.429  19.173   5.229 -0.2572 -0.0922 -0.0711
95945W        W96809  28.142  22.535   5.762  0.0625 -0.1058  0.2435
95946W        W96810  28.830  17.387   5.304 -0.1635 -0.4562 -0.0885
95947W        W96811  28.337  22.696   4.684 -0.0970  0.0281 -0.3239
95948W        W96812  28.299  18.016   4.854 -0.1899 -0.3159 -0.0234
95949W        W96813  24.694  18.268   4.898  0.0726 -0.1119  0.0712
95950W        W96814  27.265  22.814   5.175 -0.0021 -0.1020  0.1705
95951W        W96815  26.427  19.608   6.682  0.0686  0.0650 -0.1431
95952W        W96816  26.520  19.313   6.025 -0.1714 -0.2319  0.3368
95953W        W96817  27.050  21.046   2.923  0.0145  0.0155  0.0230
95954W        W96818  25.912  19.268   5.408  0.3740  0.2745  0.1491
95955W        W96819  25.650  21.264   6.099 -0.0102  0.0751 -0.1429
95956W        W96820   1.398  19.866   4.218  0.4353 -0.2497 -0.3325
95957W        W96821   1.716  17.119   4.527 -0.0491 -0.1747 -0.3201
95958W        W96822  28.700  21.218   5.268 -0.2929 -0.1623  0.1432
95959W        W96823  28.843  21.061   4.725 -0.0986 -0.0339 -0.0236
95960W        W96824  24.999  21.862   6.662 -0.0152 -0.0913  0.1854
95961W        W96825  27.920  23.081   5.813 -0.1521  0.0351  0.1988
95962W        W96826  26.517  19.001   1.692  0.0273 -0.0520 -0.0371
95963W        W96827  25.295  21.457   6.534 -0.2419 -0.2051  0.0717
95964W        W96828  27.424  18.994   8.523  0.1846 -0.1511  0.1606
95965W        W96829  26.267  20.052   7.126  0.0457 -0.3611 -0.4409
95966W        W96830  25.023  21.121   2.949 -0.0092  0.1462 -0.0895
95967W        W96831  28.909  20.430   4.066 -0.0865 -0.1255 -0.1661
95968W        W96832  27.751  18.961   6.632 -0.1915  0.0384 -0.1154
95969W        W96833   0.180  20.406   5.229 -0.1137 -0.1309 -0.0373
95970W        W96834   3.329  19.850   4.405  0.2439  0.2498 -0.1363
95971W        W96835  28.361  20.364   4.846  0.0008 -0.4261  0.0123
95972W        W96836   0.278  21.398   5.318  0.1365 -0.0927  0.0278
95973W        W96837  27.677  24.840   6.045  0.3866 -0.5160  0.2572
95974W        W96838  28.330  19.751   4.803  0.0331  0.1377  0.1878
95975W        W96839  28.371  17.376   5.908  0.1969  0.2478  0.2008
95976W        W96840   1.805  15.672   4.436 -0.1115  0.1403 -0.1541
95977W        W96841  28.299  18.719   2.640  0.1448  0.0190 -0.0198
95978W        W96842   2.111  16.683   5.817  0.1594 -0.0009 -0.0870
95979W        W96843  25.266  19.978   3.321 -0.0132  0.0230 -0.0878
95980W        W96844  27.801  18.303   8.126  0.0511  0.1259  0.0863
95981W        W96845  26.666  21.662   4.589  0.0255  0.2965  0.0266
95982W        W96846  25.808  17.410   7.787 -0.2471  0.0022 -0.1822
95983W        W96847  27.509  17.633   7.585 -0.1069 -0.0777  0.3134
95984W        W96848   1.490  19.004   5.809  0.1253 -0.2562 -0.0072
95985W        W96849   0.516  17.746   8.110  0.0999  0.0930  0.3571
95986W        W96850   0.530  19.915   5.301 -0.1869 -0.2323  0.1733
95987W        W96851  27.806  18.330   6.989 -0.1340 -0.0990  0.0157
95988W        W96852  26.365  23.324   6.788 -0.1252  0.2734 -0.1019
95989W        W96853  27.220  18.951   6.490  0.2459  0.1093 -0.1712
95990W        W96854   0.160  20.159   5.694  0.0747 -0.2445  0.3809
95991W        W96855  28.154  22.366   8.519  0.0198 -0.2288  0.0018
95992W        W96856  29.022  19.710   5.937 -0.1001 -0.2461 -0.3751
95993W        W96857  28.969  20.708   6.388  0.2179 -0.1836 -0.0903
95994W        W96858  27.846  20.394   5.034 -0.1108  0.3224  0.1824
95995W        W96859  25.888  21.623   5.398 -0.0111  0.1551  0.0777
95996W        W96860  27.048  19.549   7.429 -0.2607 -0.1506  0.0954
95997W        W96861  26.641  20.371   7.478 -0.0438  0.0613 -0.1123
95998W        W96862  28.305  20.623   6.795  0.3904 -0.1149  0.3031
95999W        W96863   1.141  22.228   5.103  0.1178 -0.2385  0.0326
96000W        W96864  28.341  19.116   6.831 -0.3507  0.0585  0.2449
96001W        W96865  25.324  21.110   6.895  0.0459 -0.0804 -0.0313
96002W        W96866   0.443  19.763   8.631 -0.1292 -0.0773  0.3549
96003W        W96867  26.680  20.141   4.529  0.0362 -0.0956 -0.2200
96004W        W96868  26.076  18.604   7.615  0.1869 -0.3570 -0.2782
96005W        W96869  27.230  18.089   7.041 -0.3422  0.1459  0.1396
96006W        W96870  26.966  22.013   3.247  0.1159  0.1896 -0.0862
96007W        W96871  24.542  21.999   8.303 -0.2783 -0.1015 -0.2233
96008W        W96872  25.351  19.954  10.131  0.0244  0.0316 -0.3667
96009W        W96873  29.036  18.446   8.274  0.2171 -0.1089 -0.1377
96010W        W96874  28.536  21.828  11.003  0.0366 -0.1876 -0.4442
96011W        W96875  23.645  21.124   7.519  0.1499 -0.0342 -0.2432
96012W        W96876  26.984  18.765   9.882 -0.1363 -0.0844  0.2127
96013W        W96877  27.777  17.275   7.836  0.0185 -0.2286 -0.2318
96014W        W96878  26.164  20.593   7.732  0.0495 -0.3096  0.2276
96015W        W96879  26.056  21.018  13.207 -0.0714  0.0439 -0.0648
96016W        W96880  26.231  19.505  10.486  0.2459 -0.0653 -0.0134
96017W        W96881  26.230  18.224  10.260  0.0426  0.1928 -0.0660
96018W        W96882  29.148  17.979   8.069  0.1627 -0.1702 -0.0200
96019W        W96883  28.347  22.694   8.892  0.1507 -0.2456  0.2272
96020W        W96884   0.416  21.622  11.527 -0.1556 -0.0425 -0.1400
96021W        W96885  23.531  17.312   9.527 -0.0231  0.1782  0.1018
96022W        W96886  25.523  16.487  10.183  0.1783 -0.1147  0.0245
96023W        W96887  26.504  19.813   8.070  0.0876  0.0331 -0.2342
96024W        W96888  26.938  20.019  11.690  0.0425 -0.1220 -0.0168
96025W        W96889  26.538  18.102  12.288  0.0826 -0.0570 -0.2402
96026W        W96890   0.285  20.621   7.056 -0.1814  0.0252 -0.0193
96027W        W96891   0.657  21.145  11.456 -0.1730  0.1719  0.5501
96028W        W96892  29.094  19.773   8.624  0.2064 -0.0579  0.3965
96029W        W96893  26.203  21.453  11.654 -0.1443 -0.0906 -0.0243
96030W        W96894  24.184  20.403  10.541  0.2530 -0.0573  0.1433
96031W        W96895  23.912  19.351   7.739  0.1434  0.0614  0.1384
96032W        W96896  26.435  18.199  11.661 -0.1139  0.0338  0.2328
96033W        W96897  28.449  17.743  10.296 -0.0269 -0.1721  0.0714
96034W        W96898  26.611  21.283  10.986 -0.2803 -0.1447  0.3301
96035W        W96899  28.329  22.057   8.166  0.0052  0.2358 -0.0821
96036W        W96900  26.131  19.001   9.773 -0.0231 -0.2696  0.1735
96037W        W96901  27.810  20.313   9.745 -0.2091  0.0828 -0.0341
96038W        W96902  25.963  21.889  11.277 -0.1067 -0.2550  0.0169
96039W        W96903  25.991  21.578   9.090 -0.1908 -0.0394  0.0229
96040W        W96904  27.079  18.267   9.605  0.0529 -0.0975  0.2692
96041W        W96905  22.544  16.945  12.928 -0.0401  0.3953 -0.0525
96042W        W96906   0.146  21.207  11.647  0.0327 -0.0965 -0.0243
96043W        W96907  24.376  17.160   8.656  0.2155  0.0777 -0.2326
96044W        W96908  26.022  17.251  12.522  0.0667  0.0900 -0.0661
96045W        W96909  29.130  21.328   9.049  0.1210  0.2563  0.3171
96046W        W96910   0.015  20.812   7.892 -0.0032 -0.0477  0.0353
96047W        W96911   0.685  17.187   8.193 -0.2211  0.0910 -0.0587
96048W        W96912   0.983  18.682   7.508 -0.0437 -0.1229 -0.1734
96049W        W96913  27.104  22.024  10.782  0.0526 -0.1281 -0.3301
96050W        W96914  28.341  22.878   8.403  0.0806  0.1305  0.1957
96051W        W96915  24.373  22.441   8.016 -0.0117 -0.0910  0.1309
96052W        W96916  25.008  23.130   8.968  0.1369 -0.1163  0.0362
96053W        W96917  25.277  15.991  12.701 -0.2064 -0.3590 -0.0134
96054W        W96918  26.655  21.757  10.663  0.2803  0.1024 -0.3669
96055W        W96919   0.617  19.964   8.055  0.1012  0.1350 -0.0236
96056W        W96920  26.460  18.366   6.025 -0.0601 -0.0228  0.2443
96057W        W96921  27.463  20.858  10.485  0.0495 -0.0810  0.0761
96058W        W96922  27.498  19.920   5.672  0.5209  0.2049  0.0392
96059W        W96923  27.210  22.342   8.130  0.0637  0.0113  0.1023
96060W        W96924  25.966  21.260   9.514 -0.0334  0.1631 -0.0464
96061W        W96925  27.861  17.944   9.749 -0.1015 -0.2994 -0.1411
96062W        W96926  27.359  21.357   7.596 -0.0592 -0.0202 -0.0125
96063W        W96927  26.299  20.485   6.231 -0.1425  0.0650  0.0049
96064W        W96928  28.946  16.423  10.086  0.1200 -0.2665 -0.2244
96065W        W96929  25.448  17.644   6.696  0.1357 -0.0961 -0.2188
96066W        W96930   0.857  19.944   8.852 -0.0006  0.0392 -0.0440
96067W        W96931  27.812  18.516   8.574 -0.1172 -0.2389 -0.3244
96068W        W96932  26.153  20.449  11.578  0.3243  0.2075  0.0001
96069W        W96933  23.378  19.582   8.359  0.0407  0.0415  0.1685
96070W        W96934  27.966  18.043  10.208 -0.3503 -0.0549  0.1071
96071W        W96935   1.638  16.929   8.545 -0.3545 -0.2620 -0.4373
96072W        W96936  27.112  21.560   6.868  0.0953  0.1495  0.0914
96073W        W96937  27.290  17.477   6.707 -0.1726  0.2158 -0.0075
96074W        W96938  28.125  18.454   9.965  0.1742  0.3429 -0.0680
96075W        W96939  27.098  21.440   7.995 -0.1347  0.1979  0.1029
96076W        W96940  28.789  20.674  10.596 -0.0927  0.2688  0.0770
96077W        W96941  27.378  20.430   8.874 -0.2494 -0.1826 -0.0558
96078W        W96942   0.255  21.129   8.630  0.2321  0.2348  0.1140
96079W        W96943   0.509  18.072   8.692 -0.1073 -0.2341  0.1349
96080W        W96944  27.902  18.827   7.169  0.1252  0.1397  0.1447
96081W        W96945  27.652  21.434  12.208 -0.0698 -0.1605  0.0304
96082W        W96946  26.403  18.863   8.430  0.2883 -0.1770 -0.0614
96083W        W96947  23.967  18.227  10.786  0.4452 -0.0566  0.1719
96084W        W96948  24.888  22.273   9.161  0.1511  0.2768  0.1006
96085W        W96949  26.172  21.570   7.136 -0.0314 -0.0717  0.2488
96086W        W96950  25.207  17.347  10.366  0.2804 -0.0307 -0.1153
96087W        W96951  24.973  17.378  10.804  0.1619 -0.0822 -0.0750
96088W        W96952  24.467  18.701   8.827  0.2192 -0.1425 -0.0227
96089W        W96953  27.206  19.237   9.915 -0.2142  0.2210  0.0165
96090W        W96954  26.867  19.119  11.178  0.0373  0.0373 -0.0512
96091W        W96955  26.196  17.618   9.347 -0.1144  0.4086 -0.0790
96092W        W96956  28.141  20.665  11.151 -0.1849 -0.2807  0.0576
96093W        W96957  27.481  19.603  10.777 -0.0953  0.1642  0.1243
96094W        W96958   3.391  20.145  10.281  0.2254  0.1659  0.2578
96095W        W96959   0.537  18.172  10.948 -0.0565 -0.3035  0.1250
96096W        W96960  28.672  17.875   9.488 -0.1505  0.1780  0.1006
96097W        W96961   2.324  18.547  11.374 -0.0100  0.2062 -0.1028
96098W        W96962  24.402  21.558   8.844 -0.0940  0.2664  0.0648
96099W        W96963  26.719  19.912   7.050 -0.0538 -0.2053 -0.2388
96100W        W96964  27.741  19.147  10.794  0.0658  0.1744 -0.2095
96101W        W96965  25.765  20.848   8.668  0.2433 -0.0298  0.1559
96102W        W96966  27.471  19.465   7.718  0.0764  0.0028  0.2935
96103W        W96967  25.854  21.878  10.444  0.0228  0.0610 -0.1273
96104W        W96968  26.471  15.578   7.045  0.3492  0.2919  0.1722
96105W        W96969   0.982  17.985   7.742 -0.0864  0.0900  0.5322
96106W        W96970  27.735  20.757   6.865 -0.2148 -0.1555 -0.0212
96107W        W96971  26.940  21.119  10.603  0.2394  0.0281 -0.1586
96108W        W96972  28.640  18.433   7.540  0.1393  0.1872 -0.4237
96109W        W96973  26.733  22.409   8.052  0.1240  0.0158 -0.1379
96110W        W96974   0.689  19.056   7.741  0.0518 -0.0445  0.2755
96111W        W96975  24.903  19.703   9.041  0.0918  0.0764 -0.0829
96112W        W96976  27.206  19.659   7.007 -0.0122  0.0090  0.3177
96113W        W96977  27.561  22.958  11.787  0.0010 -0.1069 -0.1958
96114W        W96978   0.412  17.886   9.534 -0.0521 -0.1758 -0.2464
96115W        W96979  28.131  18.286   7.325  0.0053  0.0485 -0.3502
96116W        W96980  24.417  15.315  11.174  0.1109  0.0788 -0.0860
96117W        W96981  27.780  18.980   8.839  0.0993 -0.2247  0.0390
96118W        W96982  27.047  16.857  10.028 -0.0580  0.0287 -0.1070
96119W        W96983  28.356  21.452  11.631  0.0044  0.0194  0.0522
96120W        W96984  28.479  22.466   6.153  0.0780 -0.1300 -0.1741
96121W        W96985  28.876  18.940   8.265 -0.0359 -0.0030  0.1429
96122W        W96986   0.876  15.250  10.572  0.0151 -0.3558  0.4534
96123W        W96987  26.541  21.063  11.418  0.2148 -0.0302  0.1988
96124W        W96988  27.355  17.989   8.997 -0.0759  0.0957  0.0545
96125W        W96989  28.249  14.041   9.594 -0.2030 -0.1273 -0.0249
96126W        W96990  28.933  19.953   8.092 -0.2803 -0.2083 -0.1246
96127W        W96991  27.913  22.977   6.944  0.1945 -0.1841 -0.0142
96128W        W96992   1.253  21.670   8.715 -0.1920  0.2231  0.0862
96129W        W96993   0.307  20.474   9.930  0.2279 -0.4867 -0.0076
96130W        W96994  24.685  20.169  10.473  0.0036  0.1090 -0.0597
96131W        W96995  25.621  22.089  10.871 -0.0487  0.0793 -0.1555
96132W        W96996  25.486  17.781  10.674  0.1445 -0.1531 -0.0696
96133W        W96997  27.901  20.319  13.721 -0.1699 -0.1481 -0.0562
96134W        W96998   1.394  19.687  10.166 -0.1404 -0.0009 -0.1992
96135W        W96999   0.819  20.524   9.999 -0.0276  0.2499 -0.1855
96136W        W97000  26.272  21.110  12.430 -0.0132  0.0445 -0.0857
96137W        W97001  27.382  19.243   9.200 -0.1279 -0.1610 -0.1682
96138W        W97002  28.411  20.387  10.837  0.0522  0.2222  0.1127
96139W        W97003   0.988  18.092   8.268  0.2268 -0.0672  0.2629
96140W        W97004  28.379  18.098   9.056  0.3119 -0.1170  0.0360
96141W        W97005  23.875  19.209  10.418  0.3541 -0.1910  0.2204
96142W        W97006  28.118  19.758   9.048 -0.1034 -0.3919 -0.0739
96143W        W97007  28.708  22.443  10.349 -0.0683 -0.0027  0.0648
96144W        W97008  27.170  18.600  10.320  0.1384 -0.4062 -0.0144
96145W        W97009  28.345  20.284   6.406 -0.0513 -0.0332 -0.2301
96146W        W97010  25.133  18.706  11.056 -0.3558  0.1480  0.1030
96147W        W97011  28.287  17.332  10.639 -0.1700 -0.1385 -0.0301
96148W        W97012  24.423  21.279   5.498  0.2246 -0.3162  0.1283
96149W        W97013  27.520  22.160   9.394  0.1230 -0.1605 -0.1360
96150W        W97014  25.361  22.393  13.059 -0.1767 -0.0048 -0.1429
96151W        W97015  28.355  18.863   6.346 -0.1645  0.0208  0.0710
96152W        W97016  27.577  18.308   9.604  0.1195 -0.2202  0.0874
96153W        W97017  28.597  23.669  10.247 -0.0879  0.3788  0.1074
96154W        W97018  26.531  20.803   8.114  0.2004  0.0713  0.2466
96155W        W97019  27.363  19.502   8.302  0.2211 -0.0528 -0.0285
96156W        W97020   0.332  21.251  10.479 -0.1700  0.0119 -0.0763
96157W        W97021  26.974  19.706  12.693  0.2045 -0.1749 -0.2951
96158W        W97022  25.255  22.547   9.919  0.1538  0.0445 -0.0680
96159W        W97023  27.437  20.483   7.652 -0.1153 -0.0613 -0.3802
96160W        W97024  28.548  16.138   9.495 -0.2821  0.0304 -0.0114
96161W        W97025  28.803  16.126   9.067  0.0555 -0.1558  0.1023
96162W        W97026  26.210  17.834   9.846  0.2201 -0.2759  0.0770
96163W        W97027  26.853  17.900   6.678 -0.0958 -0.1371 -0.0292
96164W        W97028  26.554  18.724   5.731  0.0956 -0.3707  0.3517
96165W        W97029  26.566  18.144   7.672 -0.1628 -0.1437 -0.3271
96166W        W97030  26.533  19.222  11.604  0.1772  0.3431 -0.0302
96167W        W97031  24.807  19.405  10.784 -0.1788 -0.0511 -0.1354
96168W        W97032  25.667  19.369  10.594  0.0633 -0.0626  0.0009
96169W        W97033  28.314  19.946  11.554  0.0196 -0.1252  0.0156
96170W        W97034  26.467  16.671   8.448  0.2612 -0.0338  0.3302
96171W        W97035  25.792  17.862   8.588 -0.3080 -0.2650  0.4009
96172W        W97036  24.624  18.057   8.047  0.1666  0.2265 -0.0963
96173W        W97037  28.543  19.599   8.664  0.2228 -0.0710  0.0564
96174W        W97038  26.406  20.377  10.914 -0.4138 -0.0571  0.0462
96175W        W97039  26.907  19.495   8.030 -0.1496 -0.0847  0.2481
96176W        W97040  27.071  18.991   8.933  0.0170 -0.1052  0.0429
96177W        W97041  28.018  19.138   7.847 -0.5168  0.1063 -0.4109
96178W        W97042  25.651  18.426   9.109  0.1540 -0.0235 -0.0583
96179W        W97043  27.011  22.096   6.700 -0.0301  0.0582  0.1667
96180W        W97044  26.729  19.369   8.953  0.0870 -0.1355 -0.2709
96181W        W97045   2.114  17.605   7.919  0.0724 -0.0052  0.0666
96182W        W97046  28.045  20.110   8.093  0.1438  0.1258 -0.2663
96183W        W97047  27.531  19.995   8.424 -0.1500  0.0802 -0.1024
96184W        W97048  24.018  22.232   7.269  0.1318  0.0655  0.0941
96185W        W97049  26.463  21.567   8.258  0.2618  0.1077 -0.3704
96186W        W97050  26.178  18.307   6.854 -0.2135  0.0191  0.1444
96187W        W97051  29.062  22.805  10.261  0.0808 -0.0490 -0.6205
96188W        W97052  26.672  19.739   8.558 -0.0622  0.2775 -0.0615
96189W        W97053   0.269  18.871   9.270  0.1531  0.1092 -0.0827
96190W        W97054  27.505  18.570   5.898 -0.2084  0.3428 -0.2880
96191W        W97055  27.749  19.947  10.250  0.1159  0.1273 -0.0116
96192W        W97056  28.836  17.962   8.946 -0.0671 -0.0929  0.3085
96193W        W97057  25.219  15.968   5.632 -0.1338  0.2445 -0.3762
96194W        W97058  27.397  20.076  10.635  0.5226  0.2480  0.0616
96195W        W97059  25.657  20.797   7.756  0.0780 -0.0510 -0.2265
96196W        W97060  25.751  19.138   6.723  0.3051 -0.1883 -0.1529
96197W        W97061  24.992  18.646   9.562  0.1278 -0.0769  0.0312
96198W        W97062  22.622  19.366   8.663  0.2232  0.1169 -0.0123
96199W        W97063   0.109  18.337   8.766 -0.0560 -0.0469  0.0661
96200W        W97064  24.019  19.829  11.262  0.0447  0.1666 -0.0188
96201W        W97065  26.860  19.914   6.581 -0.1350  0.2594  0.3018
96202W        W97066  27.131  16.940   9.222 -0.0655  0.1541  0.0383
96203W        W97067  27.862  17.229   5.953  0.0393  0.1989 -0.2546
96204W        W97068  25.246  22.053   8.864  0.0033 -0.1141 -0.0879
96205W        W97069  28.541  19.123   7.948 -0.0193 -0.1001 -0.1916
96206W        W97070  28.338  20.942   5.074 -0.1127  0.1530 -0.2737
96207W        W97071   1.261  19.646   8.930 -0.0137 -0.3636 -0.0240
96208W        W97072   1.799  16.440   8.350 -0.0229  0.3459  0.0863
96209W        W97073  27.028  19.574   9.289  0.0898 -0.0054  0.1678
96210W        W97074  26.859  17.079   9.613  0.1706  0.1897  0.0459
96211W        W97075  28.121  19.018   9.251  0.1105 -0.1095  0.2135
96212W        W97076  25.771  20.765  12.724 -0.0931  0.0566  0.2478
96213W        W97077  28.740  17.158  10.369 -0.2212  0.0141 -0.3240
96214W        W97078  28.522  20.601   7.267 -0.0019  0.0246  0.0289
96215W        W97079  27.345  18.787   9.446 -0.3606 -0.0433  0.1730
96216W        W97080  26.855  21.579  10.045 -0.0171 -0.0398  0.0055
96217W        W97081  26.832  20.077  10.120 -0.0379  0.0090 -0.1095
96218W        W97082   0.055  21.845  10.086  0.0320 -0.0153 -0.1200
96219W        W97083   0.380  18.657   7.748  0.0641 -0.1356 -0.1955
96220W        W97084   2.504  19.928  10.697 -0.0674 -0.0570 -0.0548
96221W        W97085  27.524  18.708  11.355 -0.0678 -0.0092 -0.0673
96222W        W97086  27.846  19.896   6.524  0.0945 -0.1702 -0.1753
96223W        W97087  27.755  19.317   7.370  0.3262  0.0342 -0.0071
96224W        W97088  28.249  21.071  12.901  0.0931 -0.0223 -0.1729
96225W        W97089  26.150  22.742   9.524  0.5421  0.1367  0.1318
96226W        W97090   1.724  18.199   9.504  0.0950  0.0095  0.0523
96227W        W97091   0.744  19.061   9.118 -0.0205  0.1561  0.1350
96228W        W97092  26.541  19.413  12.575  0.0126  0.3126 -0.0191
96229W        W97093  25.412  21.704   8.046  0.2272  0.0850  0.1583
96230W        W97094  27.892  21.282   7.604  0.1163 -0.0404 -0.0493
96231W        W97095  26.200  19.459  11.923  0.1052  0.2729  0.1427
96232W        W97096  25.185  21.371  11.552 -0.0361  0.1860  0.2326
96233W        W97097   1.070  20.634   9.539  0.3713  0.1862  0.1137
96234W        W97098  27.366  22.955   7.917 -0.0545  0.1038  0.1797
96235W        W97099  27.307  21.858   8.197  0.0755 -0.2221  0.1032
96236W        W97100   0.399  17.432   9.317 -0.0568 -0.0023  0.2276
96237W        W97101  26.575  20.232  12.021  0.1054  0.2763  0.1319
96238W        W97102  25.454  19.642   6.737 -0.0968 -0.0992 -0.0461
96239W        W97103  28.393  21.180   8.591 -0.1782  0.0807  0.1292
96240W        W97104  28.086  16.313   9.480 -0.1582 -0.0883 -0.2916
96241W        W97105   0.482  21.714   7.509  0.0555  0.0014  0.0642
96242W        W97106  28.409  21.641  10.551  0.1548  0.2637 -0.1163
96243W        W97107  25.215  18.648  11.606 -0.0878  0.1459 -0.3024
96244W        W97108  26.760  22.437  10.821  0.0213 -0.1341 -0.0345
96245W        W97109  28.690  20.649   8.766  0.4032 -0.1297 -0.1915
96246W        W97110  28.067  21.912   9.408 -0.0493  0.0590  0.1932
96247W        W97111  24.382  20.475   9.221  0.1498 -0.1613 -0.1262
96248W        W97112  26.351  20.167   8.478  0.0009  0.0395 -0.1396
96249W        W97113  26.574  18.417   8.475 -0.2148  0.1212 -0.2981
96250W        W97114  26.493  20.328   7.970  0.2569 -0.1355 -0.0674
96251W        W97115  26.706  22.698   6.507  0.0377  0.2629  0.3366
96252W        W97116   0.932  21.297  10.509 -0.1889 -0.1755  0.0193
96253W        W97117  25.551  20.521   9.938  0.0716  0.1999 -0.1193
96254W        W97118  26.992  21.259   8.819 -0.3043  0.0198 -0.1198
96255W        W97119  25.683  22.066   9.206  0.0095 -0.2560  0.1060
96256W        W97120  28.774  21.183   9.536 -0.0522 -0.1870  0.0512
96257W        W97121  28.574  20.789   8.291  0.2042  0.0719 -0.0506
96258W        W97122  28.007  24.898   9.290  0.0006  0.1455 -0.0361
96259W        W97123  26.828  20.062   9.574  0.0020 -0.1038 -0.2825
96260W        W97124  25.186  19.052   6.025 -0.3240  0.1477  0.3888
96261W        W97125   1.452  23.479   6.312 -0.2059  0.0909  0.1379
96262W        W97126   2.065  17.325   8.815 -0.0740 -0.4657  0.1929
96263W        W97127  28.403  18.940  10.821  0.4408  0.2068 -0.0690
96264W        W97128   0.029  22.590   8.927 -0.1314  0.1386 -0.2146
96265W        W97129  27.482  20.968   7.885 -0.0912  0.1224  0.2594
96266W        W97130  26.905  19.579   9.775 -0.2215 -0.0171 -0.0681
96267W        W97131  25.880  20.789  10.291  0.0863 -0.0385 -0.0567
96268W        W97132  26.168  21.425  10.612  0.0663 -0.0425  0.1035
96269W        W97133  24.857  17.017  11.991  0.2238 -0.0603  0.1435
96270W        W97134  24.755  21.332   7.787 -0.0610  0.0847  0.2150
96271W        W97135  26.157  22.220   9.066  0.2673 -0.2007  0.1696
96272W        W97136  25.071  19.080   8.503  0.2860  0.1291  0.2377
96273W        W97137   1.293  21.235   8.199 -0.1588  0.0288  0.0660
96274W        W97138  25.131  20.427  10.195 -0.0895 -0.0409 -0.0424
96275W        W97139  27.869  20.535   6.397  0.0468 -0.0133 -0.2197
96276W        W97140  25.668  21.510  11.496  0.1692 -0.1012 -0.3404
96277W        W97141  28.006  19.728   7.674 -0.0666  0.0939  0.0965
96278W        W97142  25.698  21.671   9.641  0.0300 -0.2790 -0.2162
96279W        W97143  25.579  18.878  10.953  0.0464  0.0574  0.1509
96280W        W97144  26.843  22.397   9.901  0.1006 -0.0701  0.2219
96281W        W97145   0.501  19.079  11.940  0.1823 -0.1187 -0.1963
96282W        W97146  27.741  20.904   8.999 -0.2262 -0.1712  0.2987
96283W        W97147  26.728  19.859   9.067  0.0938  0.2902 -0.0547
96284W        W97148  26.057  18.051   8.080 -0.0347  0.1844  0.0351
96285W        W97149  22.870  19.949   9.668 -0.1314 -0.0361 -0.1479
96286W        W97150  27.865  18.773   9.617 -0.3394  0.1070 -0.1061
96287W        W97151  26.749  20.437   8.353  0.0638  0.2213 -0.0755
96288W        W97152  25.426  17.007   8.654 -0.1794 -0.1769  0.3388
96289W        W97153  24.260  20.872  10.520  0.0760  0.0345  0.0386
96290W        W97154  28.765  20.439   8.048  0.1348  0.0114 -0.0922
96291W        W97155  28.437  22.374   9.941  0.1278  0.0298 -0.1742
96292W        W97156  27.571  22.181   8.475  0.1181 -0.3731 -0.1026
96293W        W97157  25.534  18.304   8.589 -0.2267 -0.1952  0.2682
96294W        W97158  27.283  18.471   8.282 -0.1482 -0.1982  0.0457
96295W        W97159  26.762  19.110   7.195 -0.0300 -0.2921 -0.0503
96296W        W97160  27.769  20.505   8.118 -0.2032  0.0904  0.0404
96297W        W97161   0.305  15.764   7.565  0.0815  0.3288 -0.0540
96298W        W97162   0.467  20.145   9.050 -0.0147 -0.2314  0.0150
96299W        W97163  26.247  18.549   9.098 -0.0122  0.0896  0.1324
96300W        W97164  26.216  21.824   9.429  0.0593 -0.4120 -0.1966
96301W        W97165  28.388  21.110   7.967  0.2861 -0.1713  0.1368
96302W        W97166  25.711  20.747   7.001 -0.0212  0.0601  0.0383
96303W        W97167  28.168  21.267  10.365  0.1675  0.1609  0.3019
96304W        W97168  28.717  18.549  10.648  0.1611 -0.0076  0.0822
96305W        W97169  24.741  21.745  10.277 -0.1836 -0.1492 -0.0337
96306W        W97170  25.099  20.320   8.383  0.1343 -0.3187 -0.0142
96307W        W97171  24.547  18.591   9.317 -0.2403 -0.2094 -0.1299
96308W        W97172  24.688  19.378  12.336 -0.2201 -0.0104 -0.3072
96309W        W97173   1.224  19.636  10.739 -0.5103 -0.0890 -0.2746
96310W        W97174  28.496  21.689   6.866  0.2612  0.2171  0.1800
96311W        W97175  24.463  20.931   9.649 -0.1376 -0.1216 -0.0942
96312W        W97176  26.947  17.746  12.634 -0.3376 -0.2641 -0.1256
96313W        W97177   0.546  17.325   7.239  0.1485 -0.2481  0.0255
96314W        W97178  27.727  19.264   9.834 -0.2759  0.1725 -0.0467
96315W        W97179  24.074  21.628   8.399 -0.0912  0.0766 -0.2155
96316W        W97180  27.660  17.827   7.054 -0.1932  0.0655 -0.0038
96317W        W97181  25.604  21.041  11.267 -0.0417  0.0057 -0.0384
96318W        W97182  27.859  20.302   7.606 -0.1185  0.0729 -0.1171
96319W        W97183  27.653  21.578   7.951 -0.1336 -0.0180  0.0512
96320W        W97184  23.338  17.906   9.406  0.1565  0.4253 -0.2099
96321W        W97185  24.581  19.860  12.595 -0.0205  0.3329  0.1236
96322W        W97186  25.474  16.327   7.055 -0.2056  0.0021 -0.0149
96323W        W97187  28.757  15.649   9.817 -0.0435 -0.1602 -0.1710
96324W        W97188   0.892  20.134  11.044 -0.0810  0.0965  0.1274
96325W        W97189  24.002  17.131   9.518 -0.1833 -0.0519 -0.0638
96326W        W97190  27.198  21.510  10.801 -0.3904 -0.0543 -0.2598
96327W        W97191  27.031  22.152   8.583 -0.1154  0.0598  0.1299
96328W        W97192  23.728  20.159  10.670  0.0598  0.2719  0.0927
96329W        W97193   0.032  17.101  10.650 -0.0205  0.3609 -0.2589
96330W        W97194  27.603  19.417   8.709 -0.4992 -0.2149  0.1009
96331W        W97195  25.952  22.306   9.532 -0.0931 -0.3579 -0.1677
96332W        W97196  28.316  18.598   6.974  0.1633 -0.0804  0.3543
96333W        W97197   0.029  20.161   4.384  0.0416 -0.3190  0.1992
96334W        W97198  26.299  21.018   7.487  0.0132  0.2965 -0.0144
96335W        W97199  25.963  20.408   8.899 -0.0115  0.0131 -0.0257
96336W        W97200  26.250  16.604   9.020 -0.1820 -0.0774  0.4557
96337W        W97201   0.717  22.055   6.479 -0.0554 -0.1613 -0.0003
96338W        W97202  28.209  19.236  12.305 -0.0014  0.1016 -0.2086
96339W        W97203  26.254  23.300  10.414  0.2355 -0.1022  0.1392
96340W        W97204   1.852  20.880  11.632  0.1994 -0.0365 -0.0435
96341W        W97205  28.548  22.365  10.824  0.1805 -0.1347  0.1860
96342W        W97206  25.348  23.199  10.754 -0.2664  0.1037  0.0435
96343W        W97207   0.636  19.635   9.163  0.1240  0.1515 -0.0401
96344W        W97208  27.430  17.725   5.281  0.0484  0.0154 -0.0147
96345W        W97209  28.465  17.920   7.525  0.0152  0.0825 -0.1431
96346W        W97210  29.040  17.262   8.487  0.0961  0.3292  0.1209
96347W        W97211  25.079  20.968  11.186 -0.0215 -0.0520  0.0113
96348W        W97212  26.747  19.502  12.160  0.0795  0.1412 -0.2787
96349W        W97213  26.622  20.376   6.990 -0.0188 -0.0558 -0.0489
96350W        W97214  27.495  23.069   8.452  0.3638  0.1747 -0.2689
96351W        W97215  28.716  21.845  10.157 -0.1736  0.0296  0.0251
96352W        W97216  26.959  20.155   8.707 -0.5031 -0.0089  0.0284
96353W        W97217  26.590  18.834   8.902 -0.3277  0.1086  0.0954
96354W        W97218  27.836  20.432   8.676  0.2392 -0.1587 -0.2850
96355W        W97219  25.192  18.837   5.541  0.0139  0.0082  0.0342
96356W        W97220  27.089  18.086   7.502 -0.1526 -0.1372 -0.1781
96357W        W97221   1.501  17.448   5.800 -0.0773 -0.1673 -0.0140
96358W        W97222  28.868  19.754  10.405  0.1103 -0.1247 -0.2782
96359W        W97223  26.674  20.864   9.105  0.0963  0.2895 -0.2351
96360W        W97224  25.128  20.205  10.667 -0.1618 -0.0310 -0.3197
96361W        W97225   0.286  18.278   7.091 -0.2190  0.2834 -0.2688
96362W        W97226  24.155  21.274  10.870 -0.0925 -0.1170  0.1210
96363W        W97227  27.746  21.042  10.903 -0.1900 -0.2614  0.1860
96364W        W97228  25.610  18.909   9.773 -0.0677  0.1445  0.1457
96365W        W97229  24.182  20.312   8.776  0.1662 -0.1560 -0.0844
96366W        W97230  26.157  23.768   8.292  0.2393  0.1092  0.1539
96367W        W97231   0.097  20.595  11.326  0.2280 -0.1075  0.1933
96368W        W97232  27.660  21.430  10.658 -0.0872  0.1649  0.5350
96369W        W97233   0.399  18.103   7.712 -0.1022 -0.1478  0.2044
96370W        W97234  27.403  20.512   9.419 -0.0345 -0.0040  0.1479
96371W        W97235  28.919  22.525  11.645  0.0119 -0.1146  0.3806
96372W        W97236   0.196  21.347   9.475 -0.3495 -0.4818 -0.0140
96373W        W97237  26.628  19.502  10.222 -0.5397 -0.0419  0.1347
96374W        W97238  27.615  19.166   4.636  0.0582  0.1533 -0.1087
96375W        W97239   0.089  19.829   9.160 -0.1927  0.1324  0.1016
96376W        W97240  23.803  18.440   6.869 -0.1429 -0.1646  0.2205
96377W        W97241   0.929  18.513   8.984 -0.2406  0.1991 -0.2825
96378W        W97242  26.901  24.791   8.285 -0.1580  0.0766 -0.0582
96379W        W97243  28.596  20.838  10.110  0.2311  0.2663  0.1756
96380W        W97244  26.479  21.596   8.750  0.2938  0.2594 -0.2514
96381W        W97245  25.875  18.723  12.193 -0.0132 -0.0536  0.1674
96382W        W97246  24.582  18.513  13.122 -0.0526 -0.0218 -0.1006
96383W        W97247   0.742  20.284   8.459 -0.0310 -0.1781 -0.1000
96384W        W97248  26.101  18.533   9.553 -0.0126 -0.0486  0.2146
96385W        W97249  26.325  20.019   9.390  0.0978 -0.0100  0.1653
96386W        W97250  28.791  17.991  11.292  0.0660 -0.0245 -0.2780
96387W        W97251  22.904  19.643   6.929 -0.1850 -0.0572  0.2404
96388W        W97252  26.361  21.506   9.777  0.0259  0.0396  0.0961
96389W        W97253  25.214  21.809  11.093 -0.1319 -0.0613 -0.4064
96390W        W97254  26.927  23.231   9.934  0.2761 -0.1571  0.0747
96391W        W97255  27.830  19.389   9.241  0.2405  0.0630  0.0903
96392W        W97256  28.397  17.767   8.638  0.1392 -0.1238  0.0052
96393W        W97257  26.465  23.445  11.377  0.1381  0.0866 -0.3446
96394W        W97258  27.635  21.123   9.717  0.0204  0.1252 -0.3376
96395W        W97259  26.551  23.250  12.148  0.0201 -0.2249  0.0744
96396W        W97260   0.000  20.846  10.356 -0.0224 -0.0338  0.0846
96397W        W97261  26.313  17.693   8.861  0.2585 -0.2777 -0.1456
96398W        W97262   0.199  22.361  10.362 -0.0251 -0.0831 -0.1361
96399W        W97263  28.867  23.234  10.096 -0.0333  0.3726 -0.1337
96400W        W97264  24.581  20.156   7.646 -0.2526  0.0416 -0.0152
96401W        W97265  27.878  20.920  10.173  0.1357 -0.0483 -0.1531
96402W        W97266  25.637  20.004   7.013  0.1189  0.2810  0.3904
96403W        W97267  27.208  21.220  14.239  0.0249 -0.1907 -0.0212
96404W        W97268  27.109  19.891   7.767  0.1168 -0.1459  0.3788
96405W        W97269  27.027  19.089   6.006  0.0589  0.1879  0.1852
96406W        W97270  24.126  19.968  14.388 -0.1593 -0.0130  0.3110
96407W        W97271  26.585  19.775  13.340 -0.0477 -0.5192  0.0573
96408W        W97272  26.362  20.804  12.808 -0.1436 -0.2788 -0.1431
96409W        W97273   0.053  21.117  13.344  0.1007  0.0389  0.3392
96410W        W97274  24.114  20.099  12.506  0.0945  0.1285  0.5165
96411W        W97275  25.114  20.483  11.944 -0.1807  0.1992 -0.1122
96412W        W97276  28.159  19.269  10.485 -0.1514 -0.3451  0.1540
96413W        W97277  29.059  18.804  12.535  0.2179 -0.1377  0.0089
96414W        W97278  24.943  22.584  13.309  0.1788  0.3054  0.1470
96415W        W97279  28.120  17.704  14.459 -0.0604 -0.0874 -0.0186
96416W        W97280  25.856  16.990  15.841  0.1775 -0.1358  0.2290
96417W        W97281   0.365  17.423  11.061  0.2759  0.1823  0.0403
96418W        W97282  25.606  19.802  11.316 -0.1354 -0.0072 -0.1465
96419W        W97283  27.139  17.933  13.483  0.1411  0.1046  0.1184
96420W        W97284  24.963  18.158  15.923  0.2365 -0.1625 -0.0819
96421W        W97285  26.162  22.625  12.363  0.0804  0.1688 -0.0558
96422W        W97286  28.345  19.781  10.303  0.0078 -0.0962  0.0916
96423W        W97287  24.146  18.052  13.723  0.1208 -0.1194  0.0863
96424W        W97288  25.860  19.265  12.289  0.0532  0.0265 -0.2103
96425W        W97289  28.246  20.545  12.364  0.1336 -0.0570  0.0225
96426W        W97290  29.080  19.956  13.605  0.3398 -0.2771 -0.0994
96427W        W97291  28.463  19.850  10.762  0.1906  0.3401 -0.2709
96428W        W97292  28.859  23.652  13.055  0.1845  0.3613 -0.1803
96429W        W97293  26.090  19.554  15.070  0.2954  0.2406 -0.0628
96430W        W97294  23.319  19.177  12.684  0.3247 -0.0942 -0.0039
96431W        W97295  26.829  21.813  13.018  0.2643  0.1369 -0.0928
96432W        W97296   1.694  18.685  13.662  0.0996 -0.1691  0.0628
96433W        W97297  26.354  21.343  12.962 -0.0204  0.2049 -0.0821
96434W        W97298  28.074  20.960  14.639  0.2333 -0.1945 -0.1118
96435W        W97299  26.523  18.777  11.340 -0.2167  0.1651  0.1335
96436W        W97300  29.140  20.281  12.321 -0.0582 -0.0521 -0.1004
96437W        W97301  27.795  21.692  13.952 -0.1402 -0.1317  0.0196
96438W        W97302   0.187  17.719  13.199 -0.1174  0.0918  0.0832
96439W        W97303  24.022  21.499  15.401 -0.1330  0.1777  0.1040
96440W        W97304  26.819  20.628  13.023 -0.0924 -0.0020  0.3484
96441W        W97305  28.115  17.833  12.038 -0.2058  0.2435  0.1296
96442W        W97306  26.590  16.688  10.302  0.0773 -0.0511  0.0648
96443W        W97307  25.484  21.426  11.950 -0.1853 -0.1261  0.1273
96444W        W97308  28.378  19.690  12.433 -0.0032 -0.1701 -0.5640
96445W        W97309  27.741  17.498  13.032 -0.1128 -0.0156  0.0889
96446W        W97310  28.467  18.339  11.545  0.0141  0.0487  0.0727
96447W        W97311   0.892  20.824  14.802 -0.0679  0.0039  0.0583
96448W        W97312  23.845  24.626  12.346  0.0296 -0.3665  0.2754
96449W        W97313  27.867  20.299  11.471 -0.2520  0.2269 -0.0178
96450W        W97314  26.720  21.486  12.238 -0.0307 -0.3466 -0.2771
96451W        W97315  27.714  22.043  12.408  0.3194  0.1011  0.0632
96452W        W97316  25.376  18.926  15.012 -0.2233 -0.3040 -0.1950
96453W        W97317  28.412  21.451  16.461 -0.0145 -0.0258  0.2078
96454W        W97318  27.253  17.632   8.492  0.2924  0.0287 -0.0076
96455W        W97319  27.969  22.365   9.575  0.1721  0.1079 -0.1887
96456W        W97320  26.399  21.412  14.268 -0.0549 -0.1309  0.1551
96457W        W97321  27.062  19.997  13.499 -0.1973 -0.1633 -0.0921
96458W        W97322   0.265  20.686  13.176  0.3173  0.0921  0.0387
96459W        W97323   1.232  22.121  13.521 -0.2636  0.0875  0.2231
96460W        W97324  28.091  16.146  10.984  0.1961 -0.3972  0.2257
96461W        W97325  25.921  20.037  12.811 -0.1752  0.1234  0.0728
96462W        W97326  26.814  19.015  11.970 -0.2407 -0.1781 -0.0477
96463W        W97327  26.990  17.136  12.323  0.0031  0.0341  0.0295
96464W        W97328  28.227  22.023  12.673 -0.1730 -0.0457 -0.0027
96465W        W97329  24.027  20.567   8.305 -0.4142 -0.3223  0.0649
96466W        W97330   0.389  20.509  10.428 -0.2336 -0.3278  0.0827
96467W        W97331  27.233  19.153  12.177  0.2717 -0.3136 -0.2179
96468W        W97332  28.037  22.104  14.141  0.2064 -0.0893  0.3717
96469W        W97333  27.310  19.526  13.697 -0.1000  0.0719  0.0430
96470W        W97334   0.115  18.719  15.176 -0.2635 -0.1064  0.1003
96471W        W97335  29.064  17.680  13.694  0.1413 -0.1012  0.3815
96472W        W97336  25.911  17.468  10.818  0.1045  0.0719 -0.0704
96473W        W97337  26.911  19.548  11.624  0.1986 -0.3321  0.0205
96474W        W97338  23.681  23.541  13.213 -0.0558 -0.0922 -0.2426
96475W        W97339  28.225  20.785  10.608  0.2428  0.0041 -0.1877
96476W        W97340   0.273  22.960  14.153  0.1680  0.1652 -0.0029
96477W        W97341   0.191  19.612  11.399 -0.2037 -0.2015 -0.0201
96478W        W97342  28.576  22.166  15.386  0.0430  0.2252 -0.0769
96479W        W97343  28.368  21.407  15.963  0.2873  0.1935 -0.5497
96480W        W97344   0.333  19.438  14.263  0.0967 -0.1638 -0.3100
96481W        W97345  28.241  18.446  15.287 -0.1764 -0.1155  0.1034
96482W        W97346  26.433  21.094  11.992  0.0136  0.1119  0.1838
96483W        W97347  27.106  20.857  13.924  0.1387  0.1919 -0.2386
96484W        W97348  28.697  18.076  10.801 -0.1235  0.1023 -0.0777
96485W        W97349  27.237  20.559  10.828  0.4586  0.1443  0.1080
96486W        W97350  24.302  19.140  15.195 -0.5954  0.0816  0.0603
96487W        W97351  22.976  21.062  15.493 -0.1737 -0.1705 -0.0972
96488W        W97352  26.764  18.291  13.255 -0.1385  0.1853  0.1254
96489W        W97353  26.348  20.496  14.799 -0.1172  0.0178  0.1596
96490W        W97354  27.742  21.020  13.417  0.1281  0.3029 -0.1853
96491W        W97355  27.699  17.755   8.055  0.0541 -0.2029 -0.0094
96492W        W97356  28.727  21.446  13.542 -0.4545  0.1726 -0.0006
96493W        W97357  26.299  18.498  12.431  0.0567  0.1193  0.0645
96494W        W97358  26.678  20.665  13.908  0.0230  0.2110 -0.1886
96495W        W97359   0.747  19.553  13.653  0.2606  0.1442 -0.1668
96496W        W97360  27.224  19.320  10.401 -0.0835  0.0532  0.1177
96497W        W97361   1.643  17.175  14.793  0.1236  0.0895  0.2028
96498W        W97362  27.579  20.476  12.384  0.1077 -0.0346  0.0016
96499W        W97363  27.496  20.689  13.007  0.3075  0.0689  0.0773
96500W        W97364  25.754  16.962  13.997 -0.1193  0.0528  0.2114
96501W        W97365  28.988  17.980  12.288  0.3132 -0.1489  0.0284
96502W        W97366   0.236  19.237  11.044  0.4550  0.0514  0.2700
96503W        W97367  25.459  22.898  12.897 -0.0539 -0.2168  0.1706
96504W        W97368  27.306  19.760  10.155 -0.4420 -0.1137 -0.3236
96505W        W97369   0.088  16.889  14.831  0.1918 -0.0683 -0.2900
96506W        W97370  24.450  22.532  13.570  0.1577 -0.1637  0.0748
96507W        W97371  25.917  18.038  14.637  0.0541 -0.0159  0.1110
96508W        W97372   0.488  16.717  14.501 -0.1248  0.1096 -0.1343
96509W        W97373   0.727  22.255  14.336  0.0890 -0.1214  0.1500
96510W        W97374  27.465  17.364  13.503  0.1317  0.0034 -0.0957
96511W        W97375  27.917  18.993  13.952 -0.0394 -0.4513  0.1281
96512W        W97376  28.075  19.922  12.873 -0.0966  0.2370 -0.1933
96513W        W97377  28.630  20.185  12.471 -0.1594 -0.2533  0.1878
96514W        W97378  28.023  18.655  11.551 -0.1062 -0.0911 -0.1338
96515W        W97379  26.761  18.963  14.598  0.0624  0.1926 -0.3697
96516W        W97380  28.122  21.178   9.787  0.0997  0.1086  0.0439
96517W        W97381  28.694  22.035  12.869 -0.1200 -0.0543  0.2054
96518W        W97382  28.310  17.825  13.282  0.0677  0.0370 -0.0905
96519W        W97383  28.446  22.088  13.341  0.2170  0.1993 -0.1043
96520W        W97384   2.575  20.128  11.894 -0.0130 -0.4489  0.1318
96521W        W97385  25.971  21.329  12.050 -0.0116  0.1577 -0.0080
96522W        W97386   0.217  18.746  12.944 -0.1167 -0.1652  0.3087
96523W        W97387  27.547  21.171  16.231 -0.2885  0.1310 -0.0777
96524W        W97388  27.216  18.596  12.039  0.0218  0.1900  0.0055
96525W        W97389   2.853  20.511   9.220 -0.4043 -0.3256 -0.1951
96526W        W97390  25.415  17.223  11.881  0.0947  0.0383  0.1646
96527W        W97391   0.950  22.219  10.974 -0.1276  0.0618  0.2199
96528W        W97392  28.801  20.932  13.629  0.0786  0.4204 -0.1075
96529W        W97393   1.480  21.051  11.976  0.0168 -0.1389 -0.0688
96530W        W97394  26.197  20.377  14.271  0.0820 -0.1360  0.2810
96531W        W97395  26.788  20.946  12.575  0.0938 -0.2834 -0.0364
96532W        W97396  26.839  17.624  13.797 -0.0265  0.2729 -0.0512
96533W        W97397  28.470  22.448  14.123  0.2703 -0.1307  0.0544
96534W        W97398   0.885  23.442  13.151 -0.0307 -0.0684  0.0084
96535W        W97399  28.240  19.111  13.549 -0.0832 -0.2067  0.0716
96536W        W97400  28.933  22.732  14.275 -0.1716  0.5112 -0.0670
96537W        W97401  27.112  18.435  14.714 -0.2674 -0.0198  0.1969
96538W        W97402  27.420  22.882  13.575  0.2102 -0.4169  0.2400
96539W        W97403  29.007  18.101  13.985  0.2767 -0.0579 -0.2350
96540W        W97404  28.086  22.540  13.163 -0.0089  0.2755  0.2119
96541W        W97405  25.152  19.488  11.717 -0.0158 -0.2230  0.2360
96542W        W97406  28.523  18.069  13.712 -0.0324 -0.5070  0.1998
96543W        W97407  28.453  20.427  11.448 -0.1736 -0.1652 -0.0062
96544W        W97408  29.002  20.471  13.365  0.2981 -0.2056 -0.4511
96545W        W97409  27.906  24.422  10.562  0.2052  0.0398  0.0309
96546W        W97410  26.092  17.706  13.616  0.0824 -0.3372 -0.1648
96547W        W97411  26.172  18.511  12.923  0.0539 -0.0207  0.0121
96548W        W97412  25.950  20.542  10.745  0.1750 -0.0504  0.1834
96549W        W97413  27.054  19.572  10.976  0.1955 -0.1499  0.0288
96550W        W97414  27.588  20.009  12.657  0.1574 -0.0022 -0.2879
96551W        W97415  26.780  20.328  10.591  0.2110 -0.2370 -0.0153
96552W        W97416  26.952  17.812  11.014  0.1909  0.1819 -0.1423
96553W        W97417  26.997  23.516  14.776 -0.1959  0.0082 -0.1128
96554W        W97418  28.502  24.736  12.733 -0.2072 -0.7043  0.1406
96555W        W97419  27.191  21.533  13.165  0.0436  0.1941 -0.1008
96556W        W97420  29.041  21.431  14.824 -0.2415  0.0364  0.3369
96557W        W97421  27.742  19.363  11.952  0.0543 -0.0503  0.0480
96558W        W97422  25.998  20.954  11.658 -0.1684  0.1096 -0.0385
96559W        W97423  26.321  19.910  10.263  0.0179 -0.0064  0.4325
96560W        W97424  28.406  19.738  15.007  0.1060 -0.1058  0.2864
96561W        W97425   0.060  18.249  15.370 -0.0273 -0.3887  0.2294
96562W        W97426  25.359  17.471  13.619 -0.0720  0.0635 -0.1383
96563W        W97427  28.787  20.868  11.101 -0.2308 -0.1181  0.1850
96564W        W97428  25.573  18.361  11.927  0.2821  0.0357 -0.1137
96565W        W97429  27.226  19.661  11.933  0.0191 -0.0476 -0.2535
96566W        W97430  28.560  20.719  13.252  0.0062 -0.0540 -0.0628
96567W        W97431  26.809  21.837  11.793 -0.3427 -0.1400  0.0973
96568W        W97432  27.315  19.986  14.834 -0.0507  0.1423  0.1027
96569W        W97433   0.321  18.932  14.207  0.1782 -0.1481  0.2115
96570W        W97434   0.321  19.370  16.278  0.1010  0.1303  0.1349
96571W        W97435  27.466  17.975  10.528  0.0526  0.1846  0.2642
96572W        W97436  27.813  21.954  12.967  0.0067 -0.0619 -0.0677
96573W        W97437  26.159  22.953  11.954  0.2613  0.1665 -0.1765
96574W        W97438  27.024  22.216  14.526  0.5840 -0.5505  0.2613
96575W        W97439  28.834  20.080   9.533  0.2454 -0.0025  0.1989
96576W        W97440  29.022  20.422  15.102 -0.0665 -0.0103  0.4207
96577W        W97441  28.604  20.636  15.817  0.0610 -0.0913  0.2114
96578W        W97442  25.300  22.302  13.564 -0.0257 -0.0201  0.1820
96579W        W97443  27.769  22.011   9.903 -0.1110  0.1983  0.1597
96580W        W97444  28.676  17.078  14.215 -0.1057  0.0649 -0.0335
96581W        W97445  29.107  19.545  13.926 -0.1188  0.2896 -0.0522
96582W        W97446  24.884  19.677  15.163 -0.0097  0.2194  0.0646
96583W        W97447  24.521  21.777  13.853 -0.2738 -0.2956 -0.2837
96584W        W97448  25.324  20.600  12.438  0.2837  0.1120  0.1043
96585W        W97449  28.425  20.222  12.020 -0.0861 -0.2912 -0.1348
96586W        W97450  26.975  23.263  11.815 -0.1028  0.1446  0.2486
96587W        W97451  28.486  18.700  11.851  0.1380  0.1116  0.0835
96588W        W97452  27.619  21.972  11.388 -0.0217 -0.1801 -0.2549
96589W        W97453  27.283  20.153   9.839 -0.1749 -0.2430  0.0538
96590W        W97454  28.137  19.325   8.783 -0.1135  0.0865 -0.0933
96591W        W97455  28.861  19.464  15.066 -0.0293 -0.0873  0.0582
96592W        W97456  27.872  17.957  12.414  0.0527 -0.3011 -0.1089
96593W        W97457  23.804  16.654  12.990  0.0477  0.3173 -0.3569
96594W        W97458  27.947  21.614  12.539 -0.3377 -0.0294  0.0961
96595W        W97459   0.428  19.854  13.868  0.0908  0.2147  0.0348
96596W        W97460  27.058  18.674  13.073  0.0334 -0.1725  0.0570
96597W        W97461  24.050  21.306  12.189 -0.1803 -0.0458  0.1804
96598W        W97462  24.495  19.178  13.354  0.1674  0.1474 -0.1998
96599W        W97463  28.440  16.851  16.196  0.0181 -0.1866 -0.1444
96600W        W97464  28.265  18.228  12.701  0.2483  0.1265  0.1254
96601W        W97465  26.868  18.136  11.398  0.1216  0.4750  0.1400
96602W        W97466  26.968  19.785  10.556 -0.0328 -0.0593 -0.0761
96603W        W97467  26.955  17.273  13.311  0.1456  0.1436  0.2559
96604W        W97468  27.120  18.739  14.022 -0.1506  0.2793  0.0400
96605W        W97469  28.486  17.852  12.397  0.1600 -0.1541  0.1360
96606W        W97470  24.721  18.794  12.379 -0.1044 -0.1605  0.3138
96607W        W97471   1.150  19.545  15.238 -0.0563  0.1073  0.0792
96608W        W97472   1.356  20.074  10.622 -0.0033  0.1413 -0.1153
96609W        W97473  25.822  18.695  14.632 -0.1892  0.0877  0.1308
96610W        W97474  25.948  20.602  15.109 -0.0037  0.2243  0.1151
96611W        W97475  28.311  18.279  10.422  0.0601 -0.0186  0.2884
96612W        W97476  25.408  22.753  13.396 -0.2591 -0.0187 -0.1198
96613W        W97477  28.222  19.483  11.459  0.0916 -0.0580 -0.2087
96614W        W97478  25.790  21.073  10.756  0.0458 -0.0019 -0.0645
96615W        W97479  25.147  16.910  12.475 -0.2659 -0.2908  0.1333
96616W        W97480  27.224  23.335  13.437  0.1105  0.1035 -0.1770
96617W        W97481  23.169  20.723  13.367  0.2797 -0.0034  0.4881
96618W        W97482  25.655  20.240  11.021  0.2379 -0.2210 -0.1052
96619W        W97483   0.211  19.645  14.810  0.1958 -0.0759  0.1792
96620W        W97484  28.851  17.910  14.624 -0.3173 -0.2059  0.0902
96621W        W97485   0.767  19.524  10.924  0.1051 -0.2316 -0.1242
96622W        W97486  27.038  20.476  11.399 -0.2735 -0.1560 -0.4094
96623W        W97487  27.177  21.320  12.362 -0.2597  0.0723  0.0298
96624W        W97488  26.579  22.212  15.872  0.2682  0.0030  0.0820
96625W        W97489  24.805  19.245  14.374 -0.0172 -0.0632 -0.0938
96626W        W97490  28.863  18.430  13.599  0.2413 -0.2136 -0.1795
96627W        W97491  27.520  19.382  14.202  0.0267  0.0460 -0.1124
96628W        W97492  27.705  20.324  14.758 -0.1283  0.1159 -0.0969
96629W        W97493  24.437  16.831   9.081  0.0109  0.1494  0.0650
96630W        W97494  28.346  22.287  11.318  0.2521  0.0475 -0.0394
96631W        W97495  27.748  19.792  11.635 -0.1752  0.1159 -0.1978
96632W        W97496  28.075  22.248  12.188 -0.1780 -0.0558  0.0271
96633W        W97497  27.834  18.022  12.952  0.3831  0.1263  0.1333
96634W        W97498  26.771  23.346  13.869 -0.0508 -0.3500  0.0356
96635W        W97499   0.203  21.070  12.792  0.2450 -0.0271  0.0823
96636W        W97500  25.424  20.199  13.171 -0.0913  0.0568  0.2935
96637W        W97501  27.783  20.770  15.915 -0.1308  0.2376 -0.0150
96638W        W97502  25.986  20.021  11.742  0.0414  0.2585  0.0364
96639W        W97503  27.743  18.475  11.976 -0.3429  0.1232 -0.1129
96640W        W97504  26.390  17.439  15.231 -0.0998 -0.1558  0.1254
96641W        W97505   0.005  22.298  12.783  0.1283 -0.0575  0.1723
96642W        W97506   0.131  20.582  11.910  0.3356  0.2114  0.1286
96643W        W97507  27.675  16.857  14.153  0.0170  0.0023  0.0556
96644W        W97508  28.826  20.182  15.649 -0.1739 -0.1274  0.1379
96645W        W97509   0.699  21.174  14.431 -0.3059  0.0255  0.0369
96646W        W97510  27.148  21.958   9.858  0.0539 -0.1234 -0.2070
96647W        W97511  26.125  19.569  13.262 -0.0292  0.2025  0.0101
96648W        W97512  27.613  18.525  14.511 -0.5490  0.1746  0.2509
96649W        W97513  27.418  15.076  14.704 -0.3304  0.0094 -0.1571
96650W        W97514  28.269  21.103  10.949 -0.2145 -0.1033 -0.2023
96651W        W97515  27.584  21.631  13.454  0.1972  0.1545  0.2268
96652W        W97516  28.500  20.229  14.875  0.1028 -0.1171  0.1011
96653W        W97517  27.143  19.149  12.782 -0.3411 -0.2991  0.0577
96654W        W97518  27.241  22.669  12.619  0.0412 -0.2671 -0.2437
96655W        W97519  27.253  18.858  14.463 -0.1449  0.0456 -0.3730
96656W        W97520  26.505  22.206  11.233  0.1797 -0.0326 -0.1341
96657W        W97521  26.397  22.250  12.117  0.1922 -0.5625  0.0898
96658W        W97522  28.263  23.101  11.955  0.2283 -0.0270 -0.0982
96659W        W97523  26.097  20.342  12.204 -0.0691 -0.1178  0.2340
96660W        W97524  26.364  16.134  12.890 -0.1052  0.0664  0.1314
96661W        W97525  27.688  21.688  14.432 -0.2719  0.0282 -0.1465
96662W        W97526   2.394  19.645   9.912 -0.0295  0.1399 -0.0608
96663W        W97527  28.398  17.194  15.233  0.1006 -0.0211  0.1773
96664W        W97528   1.390  19.974  13.746  0.0814 -0.1281 -0.0108
96665W        W97529   1.447  20.497  10.498 -0.2183 -0.2891  0.0682
96666W        W97530  24.580  21.160  12.245  0.1032  0.3712 -0.0358
96667W        W97531  26.804  20.196  14.275  0.0075  0.2576  0.0223
96668W        W97532   0.425  21.156  13.978 -0.1444  0.1091  0.3312
96669W        W97533  25.474  18.304  13.509 -0.0549 -0.1549 -0.1203
96670W        W97534  26.007  20.077  10.639  0.0159 -0.1276 -0.0573
96671W        W97535  26.385  20.834  14.370  0.1790 -0.1067  0.0897
96672W        W97536  25.238  20.668  12.966  0.1217 -0.3952  0.1058
96673W        W97537   0.358  21.075  12.129 -0.0470 -0.1056  0.2719
96674W        W97538  26.479  19.833  14.215 -0.2569  0.0913  0.0154
96675W        W97539  27.541  18.929  11.871 -0.0890 -0.0228 -0.0785
96676W        W97540  26.927  21.219   9.351 -0.1227  0.1984  0.0110
96677W        W97541  26.382  23.596  12.848  0.0111  0.0737 -0.2452
96678W        W97542  28.340  20.330  12.906 -0.0062  0.1147 -0.0929
96679W        W97543  25.903  18.692  15.097 -0.0223 -0.0070  0.0701
96680W        W97544   1.467  22.092  12.585  0.1113 -0.0945  0.1439
96681W        W97545   1.174  20.907  14.268  0.1772  0.2092 -0.2915
96682W        W97546  25.448  18.965  11.855 -0.1825 -0.3141  0.1230
96683W        W97547  25.729  19.468  11.823  0.0119  0.0462  0.3039
96684W        W97548  27.033  19.343  14.199 -0.0555 -0.0291 -0.1813
96685W        W97549  23.823  20.070  13.022  0.1689 -0.2777  0.0370
96686W        W97550  26.792  18.435  14.320 -0.1301 -0.2126 -0.4072
96687W        W97551  23.963  20.478  13.933 -0.1989 -0.0939 -0.2808
96688W        W97552  26.275  16.239   8.681  0.3808 -0.1491 -0.3444
96689W        W97553  26.558  21.362  13.493  0.0629 -0.2752 -0.0721
96690W        W97554  27.826  19.586  11.178  0.1761 -0.0403  0.3060
96691W        W97555  26.602  20.186  16.159  0.1440 -0.1660  0.0297
96692W        W97556  28.317  20.226  14.025 -0.1428 -0.0384  0.4813
96693W        W97557  25.093  19.692  14.071 -0.2219  0.0690 -0.1083
96694W        W97558   2.109  19.204  11.676  0.1125 -0.1340  0.2165
96695W        W97559   0.864  22.200  12.780 -0.1393  0.1705  0.0815
96696W        W97560  27.114  17.459   9.341 -0.1358  0.0993 -0.0451
96697W        W97561  27.912  19.123  11.332 -0.0367  0.1091 -0.0372
96698W        W97562  28.131  18.825  12.751  0.0769 -0.1394 -0.1370
96699W        W97563  27.610  17.876  11.466 -0.0918  0.0008  0.2040
96700W        W97564  28.990  17.956  10.376 -0.0022  0.2059 -0.0648
96701W        W97565   1.113  18.682  12.651 -0.0190  0.0407 -0.1871
96702W        W97566  26.327  19.797  12.301  0.0786  0.1375  0.1173
96703W        W97567   0.461  20.100  14.507  0.4371  0.2408 -0.0241
96704W        W97568  24.504  22.951  11.171 -0.0650  0.0967 -0.1508
96705W        W97569  26.797  18.741  13.466 -0.0338  0.1608 -0.2923
96706W        W97570  26.563  18.830  15.493 -0.1001 -0.0121  0.0386
96707W        W97571  27.551  20.635  13.746  0.0204  0.1656  0.2309
96708W        W97572  28.050  19.462  14.669  0.1166  0.3071  0.1181
96709W        W97573  26.738  20.735  11.061  0.2122  0.0233  0.0386
96710W        W97574  28.287  21.134  13.388 -0.0430  0.0936 -0.0940
96711W        W97575  28.611  20.383  16.327  0.1092 -0.1398 -0.0758
96712W        W97576  26.619  16.936  11.399  0.0562 -0.0798 -0.3570
96713W        W97577  28.672  20.073  11.153  0.0669 -0.2324 -0.3917
96714W        W97578  29.073  19.031  11.449 -0.0793 -0.0076 -0.1682
96715W        W97579  28.527  16.539   8.773 -0.1707  0.3560  0.1863
96716W        W97580  27.071  20.461  11.985  0.0022  0.0391  0.1006
96717W        W97581  28.839  17.895  13.317 -0.0540 -0.3566 -0.0907
96718W        W97582  25.589  21.804  13.751  0.1691  0.0007 -0.1877
96719W        W97583  23.772  22.070  12.242 -0.3629  0.2302  0.2563
96720W        W97584  26.354  23.096  12.592  0.0838  0.1395  0.0482
96721W        W97585  25.377  20.859  13.830 -0.2407  0.0882  0.1446
96722W        W97586   0.465  19.209  11.483  0.1890 -0.1252 -0.1440
96723W        W97587  29.125  19.005  13.856  0.0334 -0.4132  0.4521
96724W        W97588  26.394  17.680  12.878 -0.0663 -0.0841  0.0507
96725W        W97589  27.154  19.596  15.256  0.0866  0.1343 -0.1273
96726W        W97590  29.002  21.663  13.058  0.0212 -0.2077 -0.1483
96727W        W97591  24.214  19.477  13.666  0.1705  0.0950 -0.2881
96728W        W97592  27.768  19.014  14.526 -0.0203  0.0507 -0.1900
96729W        W97593  23.030  18.902  12.409  0.4347 -0.0796  0.0750
96730W        W97594  26.500  23.825  11.074 -0.2007  0.1179  0.2538
96731W        W97595  28.539  16.903  13.059 -0.1521  0.1980 -0.2787
96732W        W97596  26.302  20.489  13.157  0.0389 -0.0866  0.2487
96733W        W97597  28.776  19.698   9.906 -0.0323  0.0480 -0.2298
96734W        W97598  24.530  20.251  14.138  0.0422 -0.0688  0.0453
96735W        W97599  27.610  20.438  10.294  0.1121  0.1492 -0.2565
96736W        W97600   1.394  20.192  12.457 -0.1570  0.0490 -0.0304
96737W        W97601  27.158  25.491  14.014 -0.1690 -0.1373  0.0284
96738W        W97602  28.680  19.126  12.692  0.1716  0.0934 -0.0487
96739W        W97603  27.041  22.735  11.818  0.0615 -0.1479 -0.0077
96740W        W97604  25.398  21.983  12.722 -0.0446 -0.0167 -0.0424
96741W        W97605   2.156  20.404  11.750 -0.1446  0.0595 -0.0217
96742W        W97606  27.659  20.289  13.260  0.1807  0.0233 -0.2647
96743W        W97607  23.434  15.357  13.229 -0.0167 -0.2135  0.0377
96744W        W97608  23.188  20.784   9.997  0.0098 -0.0946  0.2782
96745W        W97609  27.204  20.461  13.346 -0.0502 -0.2107 -0.0562
96746W        W97610  27.545  18.345  13.212  0.0799  0.0858  0.0200
96747W        W97611  25.302  19.099  11.377  0.0608 -0.3176  0.0284
96748W        W97612  25.089  21.803  13.376 -0.0780  0.4425 -0.0655
96749W        W97613  27.202  20.064  13.020 -0.0436 -0.2111 -0.2833
96750W        W97614  24.271  20.261  13.518 -0.0697 -0.0190  0.1377
96751W        W97615  24.984  20.778  10.659 -0.0829  0.0682  0.1403
96752W        W97616   1.245  17.786  14.218 -0.4535  0.2835  0.2733
96753W        W97617  24.236  17.015  12.031 -0.0337  0.2141 -0.0805
96754W        W97618  26.646  20.637  11.714  0.1210 -0.1155 -0.1841
96755W        W97619  28.911  20.880  11.576  0.4719 -0.1027 -0.0474
96756W        W97620  28.480  19.830  13.160 -0.0037 -0.1312 -0.1189
96757W        W97621  27.771  23.307  13.580  0.1355  0.1613  0.1121
96758W        W97622  26.332  21.680  12.554 -0.3446  0.1655  0.2577
96759W        W97623  27.507  18.782   9.930  0.3210 -0.0998  0.1319
96760W        W97624  28.257  21.434  15.430  0.1097 -0.1146  0.2938
96761W        W97625  27.141  21.319  15.205 -0.1589  0.0208 -0.0166
96762W        W97626  28.762  17.461  15.835  0.2454  0.1099  0.0619
96763W        W97627  27.051  18.341  10.707  0.0411 -0.0723  0.2899
96764W        W97628  26.587  20.204  11.418  0.1645 -0.0446 -0.0606
96765W        W97629  26.544  20.840  13.438 -0.0838 -0.1975 -0.0146
96766W        W97630  27.096  18.917  11.575 -0.0633  0.3166 -0.2692
96767W        W97631   0.630  19.124  10.586  0.1149 -0.0597 -0.0429
96768W        W97632  27.966  21.994  13.442 -0.0085  0.1482 -0.1060
96769W        W97633   0.395  20.401  14.152  0.2324  0.0425 -0.1167
96770W        W97634  27.068  20.074  11.042  0.0470 -0.0375 -0.3494
96771W        W97635  27.756  21.538  11.673 -0.1086 -0.0417 -0.0434
96772W        W97636  26.644  18.542  12.109  0.2248  0.1156  0.0380
96773W        W97637   0.943  18.808  12.161 -0.0612  0.2755 -0.2752
96774W        W97638  23.245  17.119  12.175  0.2124  0.1744  0.0948
96775W        W97639  28.956  21.576   9.760  0.4130 -0.2285 -0.0405
96776W        W97640  27.799  20.526  10.799 -0.0821  0.2049 -0.1236
96777W        W97641   0.420  21.445  14.823 -0.1890  0.1138 -0.1578
96778W        W97642  27.393  22.625  11.441  0.1682  0.0431 -0.0913
96779W        W97643  25.145  21.536  15.798 -0.1317  0.1388 -0.0403
96780W        W97644  26.128  19.547  14.485  0.0134  0.1681  0.0814
96781W        W97645   1.301  22.853  13.826  0.1238  0.0429  0.1388
96782W        W97646  26.200  19.053  15.260 -0.1383 -0.0243  0.2037
96783W        W97647  23.301  18.686  17.203 -0.0976  0.4802  0.2742
96784W        W97648  27.142  19.330  14.716  0.1843  0.3916  0.1131
96785W        W97649  29.092  20.696   8.411  0.0572 -0.2621 -0.3283
96786W        W97650  27.481  17.063  12.257  0.3664 -0.3222  0.0934
96787W        W97651  26.521  19.299  14.314  0.0956  0.1413 -0.2874
96788W        W97652  27.581  19.885  15.575  0.3255 -0.0747 -0.0014
96789W        W97653  27.996  17.183  14.938 -0.2104  0.1534  0.0799
96790W        W97654  27.510  22.213  14.275  0.0923  0.0585 -0.2817
96791W        W97655  25.834  22.531  15.357  0.0077 -0.2010  0.1883
96792W        W97656  23.865  20.476  12.072  0.0764  0.1968 -0.0645
96793W        W97657   0.399  22.831  11.941 -0.1156 -0.0612  0.0342
96794W        W97658  26.521  20.426  17.142  0.0122  0.4647 -0.1723
96795W        W97659  26.135  20.500  13.674 -0.0257  0.1452  0.2227
96796W        W97660  28.400  22.222  14.544 -0.1058 -0.0200  0.0485
96797W        W97661   0.645  19.959  13.277  0.0758  0.0636 -0.5002
96798W        W97662  23.950  22.975  11.340 -0.1520  0.0106  0.0480
96799W        W97663  25.467  19.928  13.918  0.1440  0.2372 -0.0631
96800W        W97664  28.080  21.770  11.331  0.1825  0.1095  0.2104
96801W        W97665  27.093  21.359  16.175 -0.1325 -0.0189 -0.0546
96802W        W97666  26.429  22.071  12.885  0.0032  0.2046  0.0089
96803W        W97667  26.144  20.714  11.184 -0.0265  0.0944 -0.0484
96804W        W97668  24.787  21.007  18.476  0.0694  0.1511 -0.0527
96805W        W97669  26.943  21.864  16.047  0.0956 -0.1850 -0.1368
96806W        W97670   0.667  20.449  13.366  0.1516  0.0558 -0.0881
96807W        W97671   0.640  20.816  17.640 -0.1439  0.1710 -0.2449
96808W        W97672  24.347  24.204  14.426 -0.3351 -0.1021 -0.0743
96809W        W97673  27.133  21.631  14.550 -0.2164 -0.0345 -0.1017
96810W        W97674  25.965  20.526  17.790  0.3255 -0.1971 -0.1064
96811W        W97675  23.861  20.089  15.820  0.0481 -0.0229  0.2132
96812W        W97676  25.615  21.330  18.157  0.0800  0.2853  0.3468
96813W        W97677  25.900  20.015  17.974 -0.1081  0.0077 -0.3009
96814W        W97678  26.494  17.581  18.882 -0.1573  0.2092  0.0887
96815W        W97679  26.561  18.613  16.305 -0.1191 -0.2187  0.3355
96816W        W97680  26.947  21.396  17.787  0.3103  0.1360 -0.3360
96817W        W97681  28.622  20.163  17.883  0.1065  0.1875  0.1851
96818W        W97682  27.300  18.100  18.415  0.1599  0.0343 -0.0502
96819W        W97683  24.091  19.312  18.795 -0.1674  0.3233  0.2987
96820W        W97684  25.562  19.789  17.212  0.1984  0.0095  0.0120
96821W        W97685  24.747  19.698  18.163 -0.0840 -0.1563 -0.1467
96822W        W97686  27.745  21.061  19.193  0.1395  0.3913 -0.0404
96823W        W97687  27.630  20.175  17.120 -0.1889 -0.2168  0.0856
96824W        W97688  26.833  21.270  18.914  0.0632  0.1038 -0.3340
96825W        W97689  24.746  20.150  15.878  0.0265 -0.4160  0.2357
96826W        W97690   0.565  20.636  18.992 -0.0014  0.1894  0.0262
96827W        W97691  25.929  18.657  16.706 -0.4488 -0.1238  0.2747
96828W        W97692  27.835  19.732  16.430  0.3254 -0.1689  0.1451
96829W        W97693  28.517  21.049  21.654  0.0807 -0.0015  0.2102
96830W        W97694  27.708  18.979  18.479 -0.1616 -0.0778 -0.0555
96831W        W97695  27.235  23.492  18.991 -0.2138  0.1476  0.1829
96832W        W97696  26.635  21.062  18.357 -0.3111 -0.0778  0.1238
96833W        W97697   0.401  21.234  16.528 -0.1573  0.0457  0.0745
96834W        W97698  24.839  19.003  15.369 -0.1701  0.2899 -0.1240
96835W        W97699  28.432  19.913  19.659 -0.2704 -0.1672  0.2369
96836W        W97700  25.903  21.002  17.538 -0.3487  0.2028 -0.0118
96837W        W97701  28.107  20.921  19.605  0.1140 -0.0238  0.3186
96838W        W97702  24.996  17.539  17.806  0.1081  0.1641 -0.1483
96839W        W97703  26.904  20.479  18.946  0.1041  0.3407 -0.0955
96840W        W97704  25.461  18.772  13.738  0.0355  0.2898 -0.2410
96841W        W97705  23.390  20.349  15.686  0.2532  0.0353  0.1752
96842W        W97706  27.758  21.090  12.756 -0.0720  0.0932  0.1521
96843W        W97707  27.824  16.368  15.429  0.0425 -0.1056 -0.1892
96844W        W97708   0.226  18.679  15.687 -0.2073  0.2781  0.2938
96845W        W97709  26.309  19.990  14.712 -0.2804  0.1457  0.3546
96846W        W97710   0.153  21.440  14.345 -0.1682 -0.0781  0.1443
96847W        W97711  25.933  20.731  14.541  0.1723 -0.1120  0.0864
96848W        W97712  26.868  21.423  15.728  0.1153  0.0256 -0.0485
96849W        W97713  26.495  21.369  17.362 -0.1008  0.0461 -0.0401
96850W        W97714  26.123  19.890  17.162 -0.0719  0.1178  0.1325
96851W        W97715  27.570  18.887  19.017  0.2042  0.1732 -0.1453
96852W        W97716  28.305  19.899  15.644  0.0525 -0.1948 -0.1609
96853W        W97717  27.564  21.148  13.928  0.1133 -0.1876 -0.2701
96854W        W97718  26.477  18.844  17.800 -0.1139  0.1490 -0.0848
96855W        W97719  29.126  18.563  14.081 -0.1814  0.2059 -0.4970
96856W        W97720  26.008  19.870  15.836 -0.0248  0.2825 -0.0811
96857W        W97721  26.467  22.468  16.905 -0.1896  0.0954 -0.2920
96858W        W97722  25.933  17.410  15.454  0.0169  0.0261  0.0435
96859W        W97723  25.655  21.571  15.682  0.1815 -0.1223  0.1321
96860W        W97724  25.944  19.083  15.686 -0.0353 -0.1930  0.1627
96861W        W97725  27.926  18.163  14.498 -0.2878  0.1222  0.1594
96862W        W97726  26.545  22.269  17.369 -0.0090 -0.1958  0.3182
96863W        W97727  27.792  22.351  15.004  0.1501  0.1057  0.1985
96864W        W97728  28.085  20.306  17.063  0.0573 -0.1295  0.1438
96865W        W97729  24.699  22.762  18.055  0.1585 -0.1782  0.0873
96866W        W97730  23.933  20.418  18.156 -0.0296  0.0397  0.3294
96867W        W97731  24.854  19.977  19.057  0.1339  0.0354  0.0288
96868W        W97732  24.922  19.420  17.798 -0.2700  0.3014 -0.0162
96869W        W97733  27.639  16.561  15.864 -0.0121  0.2793 -0.0152
96870W        W97734  26.087  21.415  11.144  0.1330  0.1413  0.0724
96871W        W97735  25.068  17.690  15.861 -0.1909  0.1011  0.1646
96872W        W97736  25.089  22.010  16.842 -0.1558 -0.0819  0.1735
96873W        W97737  27.471  20.096  13.772  0.1185 -0.1225  0.1311
96874W        W97738  25.410  23.672  15.226  0.1957  0.2497 -0.0455
96875W        W97739  23.012  18.896  14.465  0.3542 -0.2786  0.0876
96876W        W97740  28.949  22.070  17.507 -0.0796  0.2296  0.0663
96877W        W97741   0.510  20.474  19.599  0.1484 -0.2164 -0.2251
96878W        W97742   1.985  21.897  15.626 -0.2823 -0.1236 -0.5397
96879W        W97743   0.611  21.750  17.684  0.1239  0.2168 -0.3422
96880W        W97744  27.103  20.108  15.282 -0.0883 -0.1022 -0.2048
96881W        W97745  27.236  18.728  15.600  0.1517 -0.0663 -0.0495
96882W        W97746  26.608  19.338  15.444 -0.1136  0.1517 -0.1134
96883W        W97747  25.140  19.415  13.212 -0.0086 -0.1870  0.0488
96884W        W97748  26.766  18.685  18.969  0.2771 -0.2663  0.0428
96885W        W97749  26.986  19.306  18.229  0.1150  0.0495  0.3457
96886W        W97750  26.252  19.077  14.731 -0.0501 -0.0807 -0.0074
96887W        W97751  27.669  18.398  15.378 -0.2941 -0.2031  0.1225
96888W        W97752  26.672  17.981  18.519  0.0182  0.0179  0.0847
96889W        W97753  28.176  18.179  16.098  0.1416 -0.2076 -0.0975
96890W        W97754  28.621  22.985  15.637  0.2555 -0.3575  0.1179
96891W        W97755  26.046  19.130  16.724 -0.2179 -0.2538  0.3687
96892W        W97756  28.212  21.061  16.711  0.2120  0.1284 -0.1781
96893W        W97757  28.284  19.379  17.791  0.0910  0.3888 -0.0856
96894W        W97758  27.613  19.106  12.594 -0.2290  0.0831 -0.2287
96895W        W97759  27.092  19.905  16.987  0.1000 -0.1287 -0.0986
96896W        W97760  26.380  20.848  17.547  0.0628  0.2166  0.1954
96897W        W97761  26.696  17.996  14.152 -0.1324  0.1790 -0.3714
96898W        W97762  28.200  20.629  17.644  0.1102  0.1133  0.1201
96899W        W97763  28.151  18.390  13.996  0.0075  0.1636 -0.1167
96900W        W97764  27.721  21.858  15.098  0.0697  0.0023 -0.0377
96901W        W97765  28.147  22.749  19.834 -0.1382 -0.2319 -0.3455
96902W        W97766  26.563  19.014  13.909 -0.2078 -0.2947  0.1021
96903W        W97767  28.034  17.889  16.474  0.1204  0.0202 -0.0920
96904W        W97768  27.817  24.582  15.121  0.1524  0.0744  0.0198
96905W        W97769  25.531  21.207  17.185 -0.1297  0.0093  0.3065
96906W        W97770  28.927  16.621  15.042  0.1308  0.0644 -0.2928
96907W        W97771  27.587  23.754  15.501  0.0813 -0.3272  0.1393
96908W        W97772   1.129  19.424  18.963  0.0555  0.0065  0.2171
96909W        W97773  27.158  19.093  17.441  0.0127  0.2439 -0.1873
96910W        W97774  28.226  20.948  15.681  0.0881 -0.0684 -0.1528
96911W        W97775  25.566  20.963  18.999  0.0672  0.2824  0.0773
96912W        W97776  25.906  19.617  17.578  0.1737 -0.1334  0.0980
96913W        W97777  28.149  20.559  16.168 -0.0566 -0.2553  0.0213
96914W        W97778  25.223  19.722  18.236  0.3911  0.1497 -0.3121
96915W        W97779  26.674  23.367  18.398 -0.1063  0.1546  0.0780
96916W        W97780  26.573  17.868  17.408  0.0959 -0.2294  0.1599
96917W        W97781  24.624  21.496  17.671  0.3180 -0.0687  0.0762
96918W        W97782  29.142  23.787  14.761 -0.1983 -0.0626  0.1224
96919W        W97783  28.230  21.623  16.993  0.1067 -0.0153  0.1236
96920W        W97784   1.137  20.872  17.770  0.2253 -0.0772  0.2745
96921W        W97785  26.876  19.804  15.608  0.1292  0.0965  0.1811
96922W        W97786  25.747  19.755  16.292  0.1380 -0.3942 -0.0384
96923W        W97787  26.391  17.789  14.553 -0.2207  0.0776  0.3169
96924W        W97788   0.333  17.281  17.115 -0.0320  0.3344 -0.1593
96925W        W97789  25.599  21.434  16.242  0.0169  0.1981 -0.2055
96926W        W97790  27.586  20.563  16.346  0.0324 -0.2306 -0.1173
96927W        W97791  25.116  19.833  15.731 -0.1506  0.1811 -0.2288
96928W        W97792  28.425  20.212  17.426  0.1494 -0.2200  0.2647
96929W        W97793  28.002  19.375  15.369  0.1957 -0.1375 -0.0240
96930W        W97794  24.631  18.869  16.384 -0.1561 -0.1904 -0.2908
96931W        W97795  26.516  20.789  19.006 -0.3914  0.1718  0.0450
96932W        W97796  25.769  23.327  14.817  0.1019  0.0103  0.0719
96933W        W97797   0.153  20.769  19.357  0.1396  0.4865  0.0545
96934W        W97798  27.974  21.249  18.752  0.1937 -0.2069 -0.1080
96935W        W97799  26.309  19.824  16.398 -0.3444  0.0213  0.0885
96936W        W97800  28.476  19.356  16.845 -0.6849 -0.1044  0.0473
96937W        W97801   2.012  16.712  14.094 -0.0669 -0.1117  0.0134
96938W        W97802  25.238  20.766  16.341  0.0365  0.2563 -0.2105
96939W        W97803  24.124  20.337  17.082  0.0145 -0.2270 -0.2594
96940W        W97804   0.556  21.187  17.987 -0.1165 -0.5574 -0.0479
96941W        W97805  28.705  17.368  19.725 -0.1640  0.2035 -0.0364
96942W        W97806  28.410  19.285  16.343  0.0101  0.1846 -0.1427
96943W        W97807  27.765  22.350  16.316 -0.2705 -0.0700  0.1827
96944W        W97808  23.835  20.454  15.293 -0.1115 -0.0429 -0.0054
96945W        W97809  27.905  19.275  19.037 -0.2884  0.0938 -0.5026
96946W        W97810  25.992  21.828  15.990 -0.2951  0.3931  0.0754
96947W        W97811  26.097  19.318  14.069  0.3355  0.2455 -0.0903
96948W        W97812  28.943  22.168  22.354  0.0235  0.0329  0.0402
96949W        W97813  25.651  19.842  15.363  0.2143  0.1975 -0.0956
96950W        W97814  26.864  17.405  17.407 -0.1170  0.0894  0.0403
96951W        W97815  25.602  21.868  14.781 -0.0207 -0.1673  0.0027
96952W        W97816  26.473  21.136  15.549  0.2902 -0.1906 -0.0412
96953W        W97817  26.132  18.633  15.936  0.2774 -0.0179 -0.1475
96954W        W97818   2.016  24.780  17.799  0.3051  0.2365 -0.3424
96955W        W97819  26.819  20.349  14.791 -0.1473 -0.1783  0.1586
96956W        W97820  27.665  21.330  18.354 -0.1621  0.0673 -0.0916
96957W        W97821  25.021  18.755  14.223 -0.2041  0.3291 -0.1645
96958W        W97822  26.060  19.428  16.103 -0.0253 -0.0247 -0.0429
96959W        W97823   0.260  17.314  16.285 -0.1247 -0.1826  0.0927
96960W        W97824  25.874  19.130  18.448  0.0972 -0.0538 -0.0269
96961W        W97825  26.888  20.341  15.724 -0.0018 -0.1471 -0.2588
96962W        W97826  23.419  20.818  16.717  0.2155 -0.0218  0.1905
96963W        W97827  27.652  19.493  12.924 -0.0011 -0.1504  0.0526
96964W        W97828  28.103  20.425  15.679 -0.0999 -0.1148 -0.2305
96965W        W97829  27.627  18.366  19.011 -0.0378  0.0071 -0.0602
96966W        W97830  28.388  21.253  18.481 -0.3443 -0.1742 -0.0130
96967W        W97831   0.029  17.992  20.259 -0.0053  0.0905  0.0984
96968W        W97832  27.731  16.397  19.662 -0.0301 -0.0352 -0.1333
96969W        W97833  25.563  20.070  15.813  0.0946 -0.2474  0.0483
96970W        W97834  26.107  17.456  16.596 -0.1004  0.2727  0.3907
96971W        W97835  28.370  22.574  15.628 -0.1919  0.2737 -0.0584
96972W        W97836  25.563  20.582  17.513  0.0287 -0.1058  0.0166
96973W        W97837  24.592  22.058  16.989  0.0776  0.0431  0.0707
96974W        W97838  29.011  20.636  14.664  0.0824  0.1548 -0.1647
96975W        W97839  27.903  21.456  16.558 -0.0489 -0.2341  0.1336
96976W        W97840  27.048  20.676  19.913  0.0268  0.2578 -0.3238
96977W        W97841   0.611  21.665  14.113  0.1346  0.2622 -0.1450
96978W        W97842  26.059  18.101  15.876  0.1323 -0.1393 -0.0634
96979W        W97843   0.801  20.027  18.223  0.1583  0.1877  0.1288
96980W        W97844  26.890  20.907  16.876  0.2839  0.0991  0.0916
96981W        W97845  23.388  19.642  18.809 -0.2376 -0.3423 -0.3025
96982W        W97846  26.722  21.778  13.968 -0.0998 -0.2647 -0.0513
96983W        W97847  28.165  18.386  16.617  0.1143  0.0102 -0.0505
96984W        W97848  28.648  19.425  13.708  0.1320 -0.2261  0.0038
96985W        W97849  28.740  20.638  12.001  0.2541  0.4047 -0.0355
96986W        W97850  26.933  21.747  15.000  0.0789  0.1612  0.0268
96987W        W97851  26.260  18.478  14.560 -0.1921  0.1098 -0.2222
96988W        W97852   0.620  18.693  13.367 -0.0141  0.0477 -0.2177
96989W        W97853  27.068  20.008  18.829  0.0262  0.0693 -0.0091
96990W        W97854  27.688  19.759  14.534  0.0342 -0.0189  0.0380
96991W        W97855  23.811  20.037  14.924  0.4983 -0.2030  0.0664
96992W        W97856  27.781  21.288  16.997 -0.0289  0.4014  0.0680
96993W        W97857  26.661  20.371  15.261 -0.3057  0.2711 -0.1665
96994W        W97858  25.802  22.317  13.613  0.0887 -0.1562 -0.0356
96995W        W97859  27.110  20.393  17.263 -0.0571  0.1831 -0.3018
96996W        W97860  27.520  20.514  17.977 -0.0061  0.0600 -0.0199
96997W        W97861  26.699  19.305  17.808 -0.2780  0.0126  0.0239
96998W        W97862  28.251  18.970  18.666  0.1670 -0.2878  0.0425
96999W        W97863  26.663  18.250  15.333  0.0318  0.0329  0.0594
97000W        W97864  26.442  19.784  12.845  0.0971 -0.1183  0.0164
97001W        W97865  24.071  17.405  17.593 -0.1201  0.5543 -0.2525
97002W        W97866  24.405  21.040  16.854 -0.3191 -0.0211  0.0086
97003W        W97867  27.687  17.480  13.983  0.5274  0.0998 -0.2030
97004W        W97868  26.759  18.726  17.359  0.1173  0.0135  0.1699
97005W        W97869  26.664  19.181  17.180 -0.2200  0.1850  0.1388
97006W        W97870  25.128  21.143  16.081  0.1782  0.0068 -0.3687
97007W        W97871  26.152  14.524  18.438 -0.2137 -0.1610  0.1353
97008W        W97872  26.538  19.650  15.938 -0.1481 -0.0088  0.0023
97009W        W97873  25.051  19.151  15.808  0.2425 -0.3329 -0.3520
97010W        W97874  25.880  21.787  17.005  0.2494  0.2452 -0.0598
97011W        W97875   0.820  19.113  15.452  0.2304 -0.2243  0.1076
97012W        W97876  27.654  21.264  15.302  0.2078 -0.1589  0.1776
97013W        W97877  26.741  20.993  16.099  0.0102  0.1716  0.2219
97014W        W97878  26.081  20.444  18.282 -0.1244  0.1260  0.0804
97015W        W97879  26.898  19.480  16.824  0.2468  0.1272  0.1754
97016W        W97880  26.439  19.605  17.483  0.0486 -0.2137  0.1236
97017W        W97881   1.407  19.983  15.085  0.0072  0.2073 -0.1809
97018W        W97882   0.471  20.261  17.861 -0.3238  0.0461 -0.1703
97019W        W97883  29.029  22.049  15.291 -0.0146 -0.1637 -0.1318
97020W        W97884  28.766  20.871  18.326 -0.0447  0.1128 -0.0427
97021W        W97885   0.269  23.712  13.118 -0.1142 -0.0141  0.1614
97022W        W97886  28.717  22.517  17.579  0.1597  0.2112 -0.0675
97023W        W97887  26.335  21.999  18.358 -0.1090 -0.0405 -0.1261
97024W        W97888  27.539  16.611  17.019  0.1495 -0.2507 -0.3534
97025W        W97889  28.602  18.846  17.298 -0.3772  0.1967 -0.2229
97026W        W97890   0.275  20.968  21.688 -0.1015  0.0888  0.0630
97027W        W97891  26.330  18.440  17.133 -0.0276  0.2125  0.0549
97028W        W97892  28.832  19.662  12.796 -0.3311  0.0022  0.0271
97029W        W97893  24.771  20.245  16.353 -0.1929 -0.2923 -0.0251
97030W        W97894   0.494  21.682  19.029 -0.4013  0.0463 -0.0976
97031W        W97895  28.109  16.071  19.821 -0.2867  0.3843 -0.0543
97032W        W97896  28.029  21.941  14.678  0.4364 -0.0666 -0.0876
97033W        W97897  27.080  22.958  17.748 -0.1348 -0.1608 -0.0123
97034W        W97898   0.660  17.889  18.363  0.2165  0.1275  0.1354
97035W        W97899  25.641  18.480  17.667  0.0996 -0.0471  0.1012
97036W        W97900  23.999  23.747  13.571 -0.0178  0.1083 -0.1064
97037W        W97901  28.891  22.287  18.793 -0.3401  0.1979 -0.0690
97038W        W97902  28.493  18.876  19.115  0.1251  0.2326  0.0357
97039W        W97903  27.297  21.825  15.351 -0.0420 -0.0363 -0.0676
97040W        W97904   1.685  18.871  15.090  0.0939 -0.1391  0.2436
97041W        W97905  26.957  18.457  18.361 -0.3898 -0.1859  0.0085
97042W        W97906  29.107  20.830  12.329 -0.0114  0.1311  0.0311
97043W        W97907  27.776  21.771  18.139 -0.3392  0.0263 -0.0901
97044W        W97908  27.305  20.210  14.413 -0.2327 -0.1230 -0.2786
97045W        W97909  26.719  18.854  18.323 -0.2561  0.0385  0.1771
97046W        W97910  25.183  16.899  18.025 -0.0670 -0.0140  0.0999
97047W        W97911  26.878  19.849  17.840  0.0828 -0.0316 -0.0542
97048W        W97912  25.361  19.412  17.441 -0.2504 -0.3113  0.2859
97049W        W97913  24.754  20.366  15.038  0.2865  0.2001  0.2409
97050W        W97914  28.415  22.468  19.144  0.2361  0.2267  0.4416
97051W        W97915  26.793  23.231  15.616  0.2870  0.0395 -0.1091
97052W        W97916  28.118  23.864  15.477  0.0931  0.0277 -0.0788
97053W        W97917  25.733  19.313  14.733  0.2657 -0.0665  0.0860
97054W        W97918  27.720  20.239  15.999  0.1576 -0.2520 -0.2660
97055W        W97919  26.242  21.005  15.012  0.0317  0.0164 -0.0002
97056W        W97920  28.327  20.541  19.225 -0.3245 -0.2624  0.0217
97057W        W97921  29.005  20.565  17.013 -0.0476  0.0536  0.3580
97058W        W97922  24.323  18.014  14.318 -0.3191 -0.3149  0.0653
97059W        W97923  27.513  24.102  15.929  0.0051 -0.0083 -0.2444
97060W        W97924  28.272  16.869  16.716 -0.0665  0.0423 -0.1450
97061W        W97925  25.927  18.136  19.322  0.0433 -0.1510 -0.4076
97062W        W97926  28.946  19.157  15.475  0.5447  0.1500  0.0972
97063W        W97927   0.709  21.272  16.119  0.0927  0.3955  0.2173
97064W        W97928  25.177  20.043  14.983  0.1414  0.0525  0.2212
97065W        W97929  28.184  20.471  14.455  0.0887  0.0247  0.1481
97066W        W97930  28.666  21.610  20.118  0.3138  0.1970 -0.0249
97067W        W97931  27.920  20.934  17.957  0.0803 -0.0609  0.0742
97068W        W97932  28.700  21.655  15.261  0.0430  0.0052  0.0456
97069W        W97933  26.504  23.278  19.630  0.3893 -0.0667  0.2743
97070W        W97934  23.603  24.274  14.149  0.0576 -0.0018  0.2054
97071W        W97935  28.265  21.654  18.974  0.0149  0.0089  0.0081
97072W        W97936   0.225  18.643  19.432  0.2695 -0.1894 -0.2009
97073W        W97937   1.116  17.499  14.623 -0.0316 -0.1811  0.1522
97074W        W97938  27.321  18.684  13.483  0.0620  0.0966 -0.2616
97075W        W97939  28.948  20.329  18.325  0.1606 -0.2820 -0.1314
97076W        W97940  28.618  19.698  17.642 -0.1737 -0.1081  0.0402
97077W        W97941  22.851  21.103  18.117  0.0554 -0.0130  0.1780
97078W        W97942  27.213  23.482  15.713  0.0037  0.2489 -0.2816
97079W        W97943  28.208  19.771  17.195  0.2146 -0.0336 -0.2258
97080W        W97944  26.058  18.800  18.159  0.0805  0.0039 -0.0681
97081W        W97945  26.463  19.125  15.887 -0.0205  0.1236  0.2044
97082W        W97946  28.072  20.026  14.778 -0.2210 -0.2693 -0.3083
97083W        W97947  22.014  21.584  18.430 -0.0650 -0.0200 -0.0012
97084W        W97948  26.110  20.194  16.788  0.0878 -0.2504 -0.0027
97085W        W97949  26.280  17.103  15.624  0.1893  0.1472 -0.0486
97086W        W97950  24.596  21.430  17.099  0.1336 -0.2504 -0.2120
97087W        W97951  26.422  25.370  15.717 -0.1620  0.2607 -0.0137
97088W        W97952  27.436  21.445  14.872 -0.3688  0.2069 -0.0157
97089W        W97953   1.676  19.595  16.777 -0.1324 -0.0667  0.0028
97090W        W97954   0.012  21.128  15.494  0.2046  0.0031 -0.1549
97091W        W97955  24.987  22.036  18.390 -0.1701 -0.3749  0.1573
97092W        W97956   0.491  19.532  16.692  0.1339 -0.2223  0.1875
97093W        W97957  28.526  20.694  15.280 -0.0979 -0.0071  0.1741
97094W        W97958  28.138  20.121  15.254 -0.1627 -0.0322  0.2072
97095W        W97959  27.159  18.240  15.548 -0.1495  0.1015  0.0250
97096W        W97960  27.696  20.918  14.944  0.0319 -0.3531 -0.0233
97097W        W97961  27.575  17.790  15.392 -0.1061  0.4766 -0.0065
97098W        W97962  25.797  19.818  14.796  0.0207  0.2547  0.1262
97099W        W97963  29.140  19.510  16.749  0.2132 -0.5731  0.2129
97100W        W97964  27.385  18.574  16.849  0.2074 -0.2726 -0.1274
97101W        W97965  28.404  19.796  20.128 -0.1691  0.1666 -0.0077
97102W        W97966   0.073  16.641  16.387 -0.1242  0.0853 -0.0722
97103W        W97967  26.025  21.380  17.276 -0.1620 -0.0007 -0.0787
97104W        W97968  28.925  19.717  14.601 -0.1201 -0.1165 -0.2482
97105W        W97969  26.279  18.006  18.855  0.0734 -0.1231 -0.0573
97106W        W97970  28.737  20.098  20.464 -0.4173  0.0871  0.1844
97107W        W97971   0.459  22.031  16.096  0.0187  0.1357 -0.0015
97108W        W97972   1.864  18.220  14.214 -0.2534 -0.1969 -0.0663
97109W        W97973  26.287  23.995  15.239 -0.1028  0.1520  0.1150
97110W        W97974  28.123  20.397  19.640  0.4915  0.1165 -0.3831
97111W        W97975  26.522  19.797  11.733 -0.2486 -0.0266  0.0365
97112W        W97976  27.601  17.671  16.770 -0.2529 -0.0940  0.5448
97113W        W97977  24.201  19.666  17.994 -0.1099 -0.2803 -0.0450
97114W        W97978  27.208  19.058  15.162  0.3617  0.0088 -0.0339
97115W        W97979  26.613  17.413  18.317 -0.0550 -0.2214 -0.2063
97116W        W97980  27.315  16.935  16.169  0.3617 -0.0501 -0.2202
97117W        W97981  27.255  18.883  18.289  0.2734 -0.2802 -0.0155
97118W        W97982  26.337  23.257  19.109 -0.3062  0.1944  0.1523
97119W        W97983  27.116  19.226  15.618  0.1240 -0.1182  0.0955
97120W        W97984  26.690  17.749  13.293 -0.1520 -0.0279  0.0885
97121W        W97985  28.827  18.576  15.354  0.0630 -0.2264  0.0561
97122W        W97986  26.971  20.873  18.649  0.1084  0.2843 -0.0637
97123W        W97987  25.440  20.288  17.884  0.2422 -0.0217 -0.3426
97124W        W97988  28.243  22.515  17.912  0.1555  0.1016  0.1336
97125W        W97989   1.217  21.439  14.320 -0.2350  0.0018 -0.1176
97126W        W97990  23.455  21.189  18.296 -0.1059 -0.1844 -0.1061
97127W        W97991  24.926  19.883  16.627  0.0076 -0.1517 -0.3701
97128W        W97992  25.165  20.449  15.860  0.2336  0.2994 -0.2789
97129W        W97993  25.802  20.430  19.684  0.0677 -0.0107  0.0641
97130W        W97994  26.826  16.826  18.153  0.1345 -0.1830 -0.2644
97131W        W97995  25.113  20.200  15.441  0.0027 -0.3249  0.0014
97132W        W97996  28.670  19.087  15.915  0.1935 -0.1746  0.1006
97133W        W97997  24.712  19.610  16.989  0.3188 -0.1482 -0.4547
97134W        W97998  25.957  20.301  15.580  0.0473 -0.1562 -0.2660
97135W        W97999   0.451  20.036  16.026  0.1313  0.1436 -0.0711
97136W        W98000  28.953  22.353  19.256 -0.3452  0.1279 -0.0882
97137W        W98001  26.624  19.670  18.424 -0.3800  0.1791  0.3020
97138W        W98002  28.893  18.994  16.908 -0.1008 -0.2881  0.3690
97139W        W98003  28.311  23.163  16.148  0.1730 -0.1267  0.1788
97140W        W98004  25.554  22.609  16.191  0.0920 -0.2195  0.1875
97141W        W98005  26.368  19.537  16.930  0.0305 -0.0653 -0.2177
97142W        W98006   0.021  21.974  17.000 -0.0014  0.2872 -0.1742
97143W        W98007  26.686  16.706  16.165 -0.1780 -0.1119  0.0509
97144W        W98008  24.822  19.696  16.075  0.1047  0.5783 -0.0931
97145W        W98009  28.266  19.761  16.658 -0.2186 -0.0869  0.1193
97146W        W98010  25.215  17.739  17.369  0.0097  0.0167  0.1136
97147W        W98011  26.910  21.163  13.140  0.0085 -0.0489 -0.1711
97148W        W98012  27.251  20.711  15.299  0.0660 -0.1608  0.1326
97149W        W98013  27.383  20.677  18.981  0.2015 -0.0948  0.1106
97150W        W98014  22.709  21.298  16.521  0.3218 -0.0308 -0.0578
97151W        W98015  24.261  20.239  16.120 -0.1215  0.3169 -0.0629
97152W        W98016  27.359  19.536  16.537 -0.4369 -0.1756 -0.1601
97153W        W98017  26.100  16.932  17.657  0.0259  0.1955 -0.1269
97154W        W98018  27.919  20.224  16.575 -0.1426 -0.1037  0.0363
97155W        W98019  29.099  18.872  12.036 -0.1621 -0.0834 -0.1849
97156W        W98020  27.859  23.978  16.756 -0.1565  0.1598  0.1062
97157W        W98021  26.401  20.088  13.820 -0.2441 -0.3241  0.0070
97158W        W98022  27.003  20.422  16.216  0.0499  0.0516  0.2356
97159W        W98023  27.822  17.640  14.853  0.1019 -0.2222  0.3188
97160W        W98024  26.817  21.002  17.368  0.0287 -0.1474 -0.0136
97161W        W98025  26.966  18.892  17.877 -0.0590 -0.0828  0.3595
97162W        W98026  26.957  21.857  20.179  0.3111  0.1217 -0.0228
97163W        W98027  25.085  19.064  13.854  0.0521  0.0113  0.0209
97164W        W98028  26.566  19.502  14.753 -0.3509  0.0503  0.1541
97165W        W98029   0.700  17.794  17.900 -0.0128 -0.1815  0.2653
97166W        W98030  24.642  19.060  16.858  0.0517 -0.3073 -0.4403
97167W        W98031  28.464  18.022  14.354 -0.1973 -0.2847 -0.2112
97168W        W98032  26.214  22.537  14.946  0.0774  0.1331 -0.0465
97169W        W98033  28.197  21.861  16.499 -0.1998 -0.1600 -0.0954
97170W        W98034  27.514  20.706  17.048  0.1673  0.2876 -0.0213
97171W        W98035  27.323  20.567  15.837  0.2209 -0.0522 -0.2467
97172W        W98036  25.957  20.840  12.130 -0.1235  0.4542  0.0448
97173W        W98037  29.065  16.615  16.987  0.0102  0.0345  0.1148
97174W        W98038  27.823  21.745  15.552  0.1264  0.2333  0.0612
97175W        W98039   2.878  20.856  15.909  0.0198  0.0748 -0.1276
97176W        W98040  26.909  19.556  17.376 -0.0932 -0.3116  0.1600
97177W        W98041  27.263  21.236  16.687 -0.0897  0.1051 -0.0163
97178W        W98042  25.382  21.263  15.286 -0.1175 -0.1984  0.1033
97179W        W98043  26.911  16.739  19.101 -0.0672  0.0217  0.0468
97180W        W98044  26.333  17.910  15.513 -0.1419 -0.0995  0.0762
97181W        W98045   0.293  19.170  15.452 -0.0471 -0.1704 -0.1340
97182W        W98046   0.036  19.670  17.560  0.0717 -0.1040 -0.0396
97183W        W98047  25.878  20.138  17.506  0.2510 -0.1920  0.2356
97184W        W98048  27.878  19.949  19.634  0.0262 -0.2245 -0.2092
97185W        W98049   0.373  21.932  18.524  0.0723  0.0354 -0.3872
97186W        W98050  25.718  20.989  16.430  0.0619  0.3814 -0.2239
97187W        W98051  28.187  22.375  16.614  0.1772  0.0347 -0.2401
97188W        W98052  25.839  21.396  20.851  0.0168 -0.0877  0.0740
97189W        W98053  26.104  15.990  19.797  0.3267  0.1060  0.0154
97190W        W98054  24.854  22.991  15.195  0.1892 -0.2055  0.1840
97191W        W98055  25.787  21.234  18.603 -0.2645  0.0944  0.0668
97192W        W98056  28.728  22.853  16.580 -0.2753 -0.0454 -0.0790
97193W        W98057  26.370  19.493  13.718 -0.0305 -0.0412  0.2043
97194W        W98058  28.949  21.922  18.136 -0.5178 -0.1223  0.0068
97195W        W98059  26.577  22.843  17.682  0.1815 -0.0133  0.2621
97196W        W98060  29.107  20.938  15.059 -0.0479  0.1057  0.2707
97197W        W98061   0.265  23.501  16.099  0.0331  0.2047 -0.1611
97198W        W98062  28.891  21.381  18.392  0.1639  0.2214  0.0217
97199W        W98063  26.656  20.514  16.689  0.0418  0.1358 -0.0248
97200W        W98064  29.100  23.508  14.309  0.0634 -0.1544 -0.1528
97201W        W98065  26.424  19.218  18.193 -0.2734  0.3189  0.0379
97202W        W98066  26.639  22.998  16.959  0.2738  0.1430 -0.0017
97203W        W98067  25.470  22.318  15.060  0.1130  0.1589 -0.3481
97204W        W98068  26.374  21.969  23.065  0.1442  0.0132 -0.0631
97205W        W98069  26.992  19.610  23.035  0.0113  0.1906 -0.5775
97206W        W98070  28.204  20.961  20.570  0.2092 -0.1216 -0.1597
97207W        W98071   2.855  22.287  21.774  0.2812 -0.0076  0.2342
97208W        W98072  25.684  21.065  21.187  0.1346 -0.1688 -0.0789
97209W        W98073  27.244  18.528  20.944 -0.0037 -0.0191 -0.2363
97210W        W98074  24.773  20.169  19.643  0.2540 -0.0571 -0.0907
97211W        W98075  24.810  18.106  16.459  0.0216 -0.0901 -0.0394
97212W        W98076  25.125  21.937  23.270 -0.0155 -0.1634  0.1128
97213W        W98077  24.122  19.987  22.123 -0.3050  0.1802  0.0436
97214W        W98078  28.200  15.513  21.105 -0.3266  0.0412 -0.1776
97215W        W98079  27.131  15.250  19.685  0.4806  0.2097  0.1855
97216W        W98080  28.736  14.056  18.420  0.0022 -0.0725 -0.2455
97217W        W98081  27.588  18.762  20.302  0.1512  0.0930 -0.1124
97218W        W98082  25.146  19.543  20.926 -0.1222  0.3709 -0.3606
97219W        W98083  27.796  22.992  20.749  0.1072  0.0661 -0.0201
97220W        W98084  27.892  18.508  23.243  0.0775  0.5239  0.0704
97221W        W98085  25.932  21.101  19.948  0.1899  0.1453  0.1345
97222W        W98086  24.206  19.774  23.954  0.1657 -0.3223  0.0433
97223W        W98087   2.696  18.862  20.203 -0.2350 -0.1930 -0.1648
97224W        W98088   0.320  19.610  21.800 -0.1038 -0.1039  0.1052
97225W        W98089  28.927  19.094  21.632  0.2565  0.1990 -0.0298
97226W        W98090   0.300  20.168  21.878 -0.1267  0.0076  0.2824
97227W        W98091  24.185  20.734  21.496  0.1337 -0.1545  0.1490
97228W        W98092  25.553  20.336  20.092  0.0145 -0.0687  0.0447
97229W        W98093   2.730  22.437  20.590  0.0934 -0.1973  0.3140
97230W        W98094   2.508  21.491  20.641 -0.3642  0.2652 -0.2474
97231W        W98095  27.133  21.162  21.062  0.1611 -0.2241 -0.0859
97232W        W98096  27.245  21.564  22.082 -0.1186 -0.0961  0.1476
97233W        W98097  25.647  20.004  20.445 -0.0824 -0.0800  0.0046
97234W        W98098  24.853  18.414  20.999 -0.3361 -0.2065 -0.1036
97235W        W98099   1.442  21.205  21.973  0.0953 -0.1383  0.0994
97236W        W98100  26.836  19.917  23.848  0.3216  0.0710 -0.1134
97237W        W98101   1.451  18.913  22.142  0.1785 -0.0029 -0.0263
97238W        W98102  24.054  20.994  23.429  0.1235  0.1512  0.1109
97239W        W98103   1.446  21.422  20.422  0.1076  0.0590  0.3001
97240W        W98104  27.857  21.355  20.681  0.0730  0.2899  0.0694
97241W        W98105  25.973  20.652  20.132  0.0128 -0.0795 -0.2621
97242W        W98106   2.454  19.296  19.017  0.0958  0.2822 -0.0836
97243W        W98107  28.886  18.126  20.768 -0.3132  0.0053  0.0772
97244W        W98108  28.741  16.768  19.560  0.0150  0.0237 -0.1098
97245W        W98109  26.856  16.023  20.745 -0.1785  0.2253 -0.1565
97246W        W98110  27.118  23.399  20.940 -0.0097 -0.2484 -0.1675
97247W        W98111  28.121  22.911  20.401 -0.1511  0.2080  0.2671
97248W        W98112  26.983  20.882  19.215  0.0272 -0.1273 -0.0606
97249W        W98113  28.311  22.452  20.200  0.1518  0.0620  0.2318
97250W        W98114  26.810  20.027  22.057 -0.1483  0.0547  0.2927
97251W        W98115   1.903  18.375  20.864  0.2117  0.3869  0.0378
97252W        W98116  27.513  18.859  21.531 -0.0439 -0.2106  0.0145
97253W        W98117  26.635  20.086  19.140 -0.2206 -0.1466 -0.6159
97254W        W98118  27.286  20.586  20.897 -0.2742 -0.0169  0.1459
97255W        W98119  26.035  18.749  22.025  0.0877 -0.0202 -0.1652
97256W        W98120  27.388  21.134  22.206  0.2374 -0.3272 -0.5739
97257W        W98121  29.136  20.565  21.782 -0.2200  0.0796 -0.1156
97258W        W98122   0.719  18.369  18.568  0.2517  0.2242 -0.1792
97259W        W98123  26.923  23.499  19.875  0.2666  0.0934 -0.0170
97260W        W98124  25.314  20.233  19.669  0.2530  0.1491  0.3009
97261W        W98125   2.262  21.475  19.758 -0.3307  0.0017  0.0540
97262W        W98126  24.641  20.563  21.837 -0.1409  0.2584 -0.0458
97263W        W98127  25.757  19.694  20.074 -0.0469 -0.0573  0.1493
97264W        W98128   1.494  20.250  18.660 -0.0209  0.1999  0.1960
97265W        W98129  27.767  19.274  20.469  0.1388  0.2786  0.1201
97266W        W98130  23.972  22.794  19.773 -0.0825 -0.0253  0.1806
97267W        W98131  27.086  18.292  18.828 -0.0781 -0.2424 -0.0170
97268W        W98132  28.758  17.640  23.184 -0.0972  0.0303 -0.1475
97269W        W98133  28.776  15.279  19.928 -0.0512  0.0106  0.0618
97270W        W98134  23.792  19.974  17.931 -0.3005 -0.0840  0.1994
97271W        W98135  25.281  18.457  18.000 -0.1140 -0.3277 -0.0219
97272W        W98136  25.734  21.019  19.475 -0.0414 -0.1101 -0.0001
97273W        W98137  28.349  21.156  22.112  0.0256  0.0652 -0.0501
97274W        W98138   0.905  19.768  22.656  0.1169 -0.0533 -0.1116
97275W        W98139  27.109  20.211  20.056  0.0634 -0.2552  0.2133
97276W        W98140  27.044  20.293  17.982 -0.1399 -0.0301  0.0911
97277W        W98141   0.259  21.170  22.196 -0.1084 -0.1016  0.2807
97278W        W98142   0.666  19.973  19.516  0.0424  0.2816 -0.0596
97279W        W98143  26.567  19.431  23.907 -0.0059 -0.3414 -0.0951
97280W        W98144  24.676  18.592  20.555 -0.1407  0.2083 -0.0418
97281W        W98145  26.802  20.347  21.624  0.0445 -0.1293  0.0612
97282W        W98146  27.255  21.577  19.231 -0.2717 -0.0167  0.0100
97283W        W98147  26.600  19.672  21.039  0.0256 -0.1380  0.0093
97284W        W98148  24.275  18.685  20.115 -0.2454 -0.0782  0.0170
97285W        W98149  26.312  17.723  21.163 -0.1075 -0.1318 -0.3435
97286W        W98150  26.708  19.193  18.670  0.5770 -0.1138 -0.0184
97287W        W98151  28.074  16.985  20.256  0.1803 -0.2081 -0.0460
97288W        W98152  26.923  20.285  22.837 -0.2413  0.2810  0.2162
97289W        W98153  28.577  17.922  19.015  0.0289 -0.2854 -0.3264
97290W        W98154  26.859  21.656  22.929  0.2699  0.0521  0.2036
97291W        W98155  27.642  19.233  21.110  0.0519  0.1312  0.1611
97292W        W98156   1.696  19.621  22.840 -0.1521 -0.2795 -0.1497
97293W        W98157   1.494  19.219  21.168 -0.0528  0.0712 -0.1065
97294W        W98158  28.292  22.164  18.685 -0.2201  0.1727 -0.2293
97295W        W98159   1.923  18.423  23.192 -0.1105  0.0145  0.1503
97296W        W98160  24.825  21.508  23.911 -0.1396 -0.1674  0.1275
97297W        W98161  24.695  20.000  18.584  0.0905  0.0616 -0.3498
97298W        W98162  26.774  18.320  21.209 -0.1457  0.0648  0.1479
97299W        W98163  28.399  16.976  18.847 -0.0639 -0.1949 -0.0920
97300W        W98164  29.083  18.858  17.598  0.2164 -0.1880 -0.1611
97301W        W98165  23.552  20.260  23.827  0.2809  0.1918 -0.0344
97302W        W98166  26.926  16.658  18.591  0.3592  0.1352 -0.1255
97303W        W98167   0.004  18.397  17.853  0.1239 -0.0640 -0.1453
97304W        W98168  27.684  18.516  21.240  0.3832 -0.1456 -0.1344
97305W        W98169  26.907  20.942  20.340 -0.0668  0.3439 -0.0408
97306W        W98170  27.415  17.430  18.730 -0.0653 -0.0839 -0.2324
97307W        W98171  28.461  21.705  22.134  0.2314  0.1372 -0.0007
97308W        W98172   0.154  16.775  20.400  0.3730  0.2457 -0.0187
97309W        W98173  27.701  21.240  19.673  0.1924 -0.2171 -0.1453
97310W        W98174  29.062  23.964  20.902  0.0229 -0.1271 -0.1485
97311W        W98175  28.061  17.610  20.450  0.7092  0.1719  0.3933
97312W        W98176   0.572  17.118  22.447  0.2336  0.1040 -0.1848
97313W        W98177  23.208  21.196  17.804  0.0459 -0.2416 -0.1742
97314W        W98178  27.312  20.568  20.344  0.0529 -0.0032  0.0176
97315W        W98179  28.469  23.476  21.459  0.2976 -0.1199 -0.0713
97316W        W98180  28.961  18.091  19.390 -0.0710  0.0396 -0.0612
97317W        W98181  26.391  22.981  20.537 -0.2814 -0.2298  0.2039
97318W        W98182  27.913  18.634  19.950  0.1190  0.2915  0.1936
97319W        W98183  26.368  21.348  20.693 -0.0434  0.0923 -0.0049
97320W        W98184  28.804  17.122  21.522 -0.3152  0.1980  0.0270
97321W        W98185  26.064  23.406  20.456 -0.0672 -0.1400  0.1714
97322W        W98186  28.797  18.902  22.069 -0.1756 -0.1242 -0.0698
97323W        W98187   0.059  19.769  20.650  0.1669  0.1567 -0.1373
97324W        W98188  28.624  19.510  18.177  0.1466 -0.0042  0.1759
97325W        W98189  27.263  19.953  17.443  0.0812  0.1888  0.0679
97326W        W98190  27.569  20.089  20.272  0.2842  0.1597 -0.0753
97327W        W98191  27.605  16.393  21.387 -0.5692  0.0928  0.0131
97328W        W98192  28.046  18.654  19.023  0.1336  0.1037 -0.2410
97329W        W98193   0.734  19.740  19.106  0.1524 -0.1766 -0.3033
97330W        W98194  28.638  17.950  21.869  0.0298 -0.3442  0.4001
97331W        W98195   1.178  19.805  19.270 -0.0728  0.0780 -0.1207
97332W        W98196  29.050  23.201  19.577 -0.0507  0.0708 -0.2947
97333W        W98197  25.625  21.775  20.089  0.1267 -0.1058 -0.1862
97334W        W98198  29.125  19.553  21.352  0.0115  0.1387 -0.2284
97335W        W98199  29.146  18.650  20.250  0.2755  0.2197 -0.1853
97336W        W98200  27.044  21.804  20.691  0.2707  0.0487 -0.1089
97337W        W98201   1.095  18.497  22.135 -0.0640  0.0583  0.0061
97338W        W98202  28.564  19.879  21.258 -0.1154  0.0060 -0.0590
97339W        W98203  25.329  19.482  22.310 -0.0598  0.2801  0.2679
97340W        W98204   0.847  15.789  19.766  0.0547  0.3755 -0.2786
97341W        W98205   0.743  20.159  19.979 -0.0857 -0.1498  0.0429
97342W        W98206  28.263  19.317  21.997 -0.0702  0.2614  0.0646
97343W        W98207  28.273  21.496  21.541  0.0845 -0.0517 -0.0706
97344W        W98208  26.391  21.328  19.254 -0.1103  0.1728  0.0132
97345W        W98209  25.008  18.473  18.730  0.1370  0.0635  0.0817
97346W        W98210  25.760  20.029  18.860  0.0858  0.2109 -0.0741
97347W        W98211  24.329  19.867  17.189 -0.0082 -0.0552 -0.0766
97348W        W98212  28.270  19.331  20.312 -0.0175  0.1740  0.2667
97349W        W98213  28.238  17.560  19.174  0.2022  0.0710 -0.0858
97350W        W98214   0.248  19.949  21.419  0.0972  0.0793 -0.0419
97351W        W98215   1.853  22.309  20.169  0.0754  0.0515  0.2523
97352W        W98216  27.692  20.655  20.037 -0.3281  0.1254 -0.1823
97353W        W98217  26.566  19.548  20.489  0.3293  0.0073 -0.1448
97354W        W98218  28.301  18.947  20.022  0.0830  0.2971 -0.1103
97355W        W98219  28.103  19.442  22.944 -0.0447 -0.0421  0.2830
97356W        W98220  25.036  19.110  17.230  0.0552 -0.0375 -0.0867
97357W        W98221  26.487  18.937  19.522 -0.0568 -0.0307  0.2094
97358W        W98222  26.669  16.737  21.375  0.3855  0.0357  0.0005
97359W        W98223  26.167  18.733  20.345  0.0848 -0.0796 -0.0099
97360W        W98224  25.981  17.412  20.959 -0.2451 -0.1931  0.1214
97361W        W98225  25.277  19.970  18.678 -0.0963 -0.3048  0.3101
97362W        W98226  27.332  18.982  20.649 -0.4181  0.1111  0.2486
97363W        W98227  26.650  17.993  19.987 -0.1463 -0.0766 -0.1994
97364W        W98228  26.919  22.757  23.418  0.2481  0.0261 -0.1513
97365W        W98229  26.215  21.015  21.113 -0.0738 -0.0138  0.1113
97366W        W98230  27.918  18.711  23.777 -0.3052 -0.2927 -0.1484
97367W        W98231  26.965  17.266  22.758 -0.0360  0.1314 -0.1306
97368W        W98232  28.851  20.191  21.939 -0.2135  0.4050  0.0702
97369W        W98233  25.537  16.202  20.295  0.1240 -0.1262  0.1118
97370W        W98234  24.896  20.791  19.657  0.1259 -0.0118  0.3981
97371W        W98235  27.160  19.005  21.178  0.4691 -0.1109  0.2796
97372W        W98236  26.715  21.414  21.086  0.2282 -0.3707 -0.2124
97373W        W98237   0.654  19.051  20.669  0.2197  0.0604  0.0364
97374W        W98238  27.222  19.427  18.741  0.1593  0.0344 -0.4261
97375W        W98239  27.428  17.465  23.639 -0.0297  0.1637  0.3541
97376W        W98240  28.385  20.913  21.078 -0.2872 -0.1661  0.0590
97377W        W98241  26.961  18.119  20.750  0.0754 -0.2801  0.0791
97378W        W98242   0.971  22.105  17.846 -0.0787 -0.0258  0.1218
97379W        W98243  25.204  21.818  22.329  0.0828 -0.1506 -0.0442
97380W        W98244  27.323  17.656  19.343 -0.1262 -0.0633 -0.1756
97381W        W98245  25.743  22.390  22.212  0.1046 -0.0712  0.0766
97382W        W98246  28.112  16.077  20.295  0.1204 -0.3225 -0.1096
97383W        W98247  28.171  22.291  19.653 -0.0579 -0.2651  0.1947
97384W        W98248   1.191  22.109  17.029 -0.0135 -0.0647 -0.2844
97385W        W98249  28.135  18.050  16.992  0.2332  0.0415  0.0301
97386W        W98250  24.295  15.915  17.524  0.0776  0.1464 -0.2397
97387W        W98251  27.694  18.116  18.099 -0.4187 -0.3023  0.3257
97388W        W98252   2.403  22.468  21.776  0.2421  0.3819  0.2240
97389W        W98253  28.965  19.465  19.029 -0.0441  0.2499 -0.1415
97390W        W98254  27.178  18.500  20.408 -0.2374 -0.1166  0.2753
97391W        W98255  26.795  21.401  21.921 -0.1611  0.1594 -0.1916
97392W        W98256  27.190  22.255  20.416 -0.0224  0.5937 -0.1217
97393W        W98257  26.442  19.622  19.999  0.1803  0.0642 -0.3040
97394W        W98258  24.825  21.091  20.082 -0.1196  0.3365  0.2105
97395W        W98259   0.457  19.110  21.969  0.0681 -0.4170 -0.0265
97396W        W98260  28.487  20.808  23.537  0.3072  0.1296 -0.0204
97397W        W98261  27.533  16.850  21.061  0.0200  0.1655  0.1324
97398W        W98262  27.417  19.401  19.186 -0.1990 -0.0862 -0.1122
97399W        W98263  27.049  16.143  17.417  0.4138 -0.6497 -0.1066
97400W        W98264  27.411  16.318  19.197 -0.1022 -0.0211 -0.0480
97401W        W98265  25.222  18.700  20.732  0.0555 -0.2064  0.0887
97402W        W98266  28.977  17.604  22.024  0.0431 -0.0181  0.0626
97403W        W98267  26.107  21.863  21.618  0.0073  0.0878 -0.2899
97404W        W98268  25.910  17.295  18.381 -0.1677  0.7679  0.1571
97405W        W98269  27.455  21.640  20.522  0.0520  0.2832 -0.1384
97406W        W98270  26.147  18.130  18.271 -0.1038 -0.0709  0.0860
97407W        W98271  28.826  18.662  20.595  0.0545 -0.1173 -0.1970
97408W        W98272  24.804  19.872  20.122  0.1549 -0.1190  0.1660
97409W        W98273  26.506  22.394  23.254  0.0729  0.0307 -0.0646
97410W        W98274  28.333  20.121  22.611  0.1442  0.0913  0.1570
97411W        W98275  27.267  21.639  19.834 -0.0530 -0.1383  0.1899
97412W        W98276  24.512  19.043  20.420 -0.0232 -0.1645  0.1091
97413W        W98277  24.917  21.361  21.105 -0.0548 -0.3961  0.1109
97414W        W98278  25.554  20.544  19.281 -0.0952 -0.0679 -0.1975
97415W        W98279  27.980  21.465  21.970 -0.2402 -0.3969 -0.0712
97416W        W98280  27.320  17.911  21.182  0.2078 -0.1170 -0.0876
97417W        W98281   3.521  20.909  20.877  0.0568 -0.0199 -0.0121
97418W        W98282  27.534  19.765  18.700  0.0378  0.1642  0.1312
97419W        W98283  28.744  21.559  21.687 -0.1012 -0.1271 -0.1147
97420W        W98284   1.011  22.331  20.591  0.3057 -0.0264  0.0801
97421W        W98285  25.124  17.474  23.796 -0.1162  0.0974  0.1353
97422W        W98286  26.136  19.241  19.427 -0.2349  0.1336  0.2553
97423W        W98287   0.462  18.680  19.866  0.1672  0.1103 -0.3769
97424W        W98288   1.882  17.868  22.374  0.2717  0.0352 -0.1783
97425W        W98289   0.537  22.862  19.311  0.1582  0.1438 -0.1378
97426W        W98290   1.026  15.700  18.417  0.0891 -0.0979  0.1442
97427W        W98291  27.751  20.408  19.254 -0.1421 -0.3200 -0.0556
97428W        W98292  25.935  17.560  18.955 -0.2712  0.0795 -0.3006
97429W        W98293  24.328  20.886  18.728 -0.0264  0.3577  0.1463
97430W        W98294  28.197  20.650  21.901 -0.0170  0.0526 -0.1288
97431W        W98295  26.047  20.666  16.648 -0.0457  0.2645  0.1238
97432W        W98296  27.120  23.074  21.331 -0.0967 -0.2207  0.0615
97433W        W98297  27.246  20.155  21.953 -0.2235  0.2055  0.1939
97434W        W98298  27.903  21.135  22.319  0.3449 -0.0646  0.0451
97435W        W98299  25.670  22.465  18.960 -0.0398  0.0261 -0.0430
97436W        W98300   0.562  19.499  21.347  0.1355  0.1085 -0.3566
97437W        W98301  26.243  22.397  20.743  0.0228  0.3954  0.1447
97438W        W98302  28.813  20.694  21.315  0.0957 -0.2226  0.2840
97439W        W98303   0.416  19.522  20.459  0.1531  0.0357  0.0478
97440W        W98304  25.241  16.506  23.413  0.0657  0.1159 -0.1191
97441W        W98305  22.311  19.234  23.430 -0.0662  0.0242 -0.0866
97442W        W98306  28.559  20.507  21.647 -0.0062  0.1887  0.0625
97443W        W98307  28.507  22.003  21.696 -0.0564  0.1053  0.0160
97444W        W98308  25.369  21.682  21.826  0.0384 -0.1762  0.2655
97445W        W98309  28.517  18.978  21.324 -0.2245  0.0696 -0.2739
97446W        W98310  26.652  19.418  19.476 -0.1784  0.2952  0.1844
97447W        W98311  27.927  18.195  20.880 -0.1652  0.0351 -0.2319
97448W        W98312  26.633  20.059  20.208 -0.0650  0.1315 -0.3280
97449W        W98313   0.136  17.222  21.425 -0.0779  0.0695  0.1491
97450W        W98314   0.612  21.386  21.909  0.0550  0.2114  0.3620
97451W        W98315  28.751  23.584  20.699  0.1192  0.1822  0.0202
97452W        W98316  26.585  20.090  18.655  0.0816  0.2468  0.1020
97453W        W98317  23.683  19.153  21.923  0.1247  0.1864 -0.0738
97454W        W98318  27.856  20.404  22.648 -0.0652 -0.4416 -0.0606
97455W        W98319  26.641  20.922  20.821 -0.1313  0.0565 -0.1454
97456W        W98320   0.775  20.068  21.223  0.1873 -0.1549 -0.0148
97457W        W98321  23.614  19.972  19.494  0.2663  0.0176  0.1035
97458W        W98322  28.099  21.404  18.077  0.0561  0.4400 -0.1432
97459W        W98323  28.348  18.613  15.807 -0.0890 -0.0929  0.0267
97460W        W98324  26.767  15.335  24.317 -0.1594 -0.1164 -0.2722
97461W        W98325  28.731  20.306  18.788  0.1627 -0.0557 -0.1575
97462W        W98326  27.723  18.610  20.741  0.1444 -0.2192  0.1192
97463W        W98327  25.434  21.237  19.886 -0.1262  0.0254 -0.4028
97464W        W98328  28.873  17.623  21.512  0.2614  0.1436  0.2435
97465W        W98329  28.318  19.310  21.039 -0.1382 -0.3564 -0.0956
97466W        W98330  25.822  18.986  21.613  0.0213 -0.1423 -0.1392
97467W        W98331  27.419  21.062  20.724  0.1697  0.1132  0.0363
97468W        W98332  26.594  20.495  22.201 -0.0778 -0.1635  0.0077
97469W        W98333  24.108  19.960  18.315  0.2586 -0.1377 -0.1683
97470W        W98334   0.339  20.444  16.921  0.1890 -0.3744  0.0554
97471W        W98335  27.222  16.500  20.504 -0.1201 -0.2398  0.2166
97472W        W98336  27.746  20.663  20.538 -0.2136  0.0176 -0.2550
97473W        W98337  27.067  19.538  21.157 -0.1216 -0.0473  0.1342
97474W        W98338   0.325  17.371  22.090  0.1717 -0.1757  0.1206
97475W        W98339  29.126  21.076  21.228 -0.0665 -0.0154  0.0385
97476W        W98340  26.351  21.638  22.029 -0.0878 -0.1269  0.1641
97477W        W98341   5.245  22.920  21.317 -0.0699 -0.2890  0.3291
97478W        W98342  28.779  19.518  20.953  0.0371  0.1912 -0.1603
97479W        W98343  27.341  17.239  21.947 -0.3919  0.0142 -0.0714
97480W        W98344  27.382  19.798  21.538 -0.1364  0.3369  0.0633
97481W        W98345  28.260  20.755  20.105  0.0069  0.3176 -0.1197
97482W        W98346  22.666  21.876  20.281 -0.2099 -0.1279 -0.0964
97483W        W98347  27.523  22.300  21.783  0.1266 -0.0284 -0.2151
97484W        W98348  27.928  19.080  17.549 -0.0186 -0.0696 -0.0843
97485W        W98349  27.736  17.693  20.894 -0.3541 -0.1124 -0.0481
97486W        W98350  27.693  21.292  21.230  0.0380 -0.0471 -0.0249
97487W        W98351  27.515  20.221  18.847  0.1461 -0.6090 -0.2501
97488W        W98352  27.846  17.226  21.880  0.0252  0.1827 -0.2015
97489W        W98353   0.454  20.635  20.580 -0.2170 -0.0351 -0.2598
97490W        W98354  24.987  21.308  21.892  0.0776 -0.0528  0.0671
97491W        W98355   0.409  18.162  19.495 -0.0949 -0.1474  0.1296
97492W        W98356  26.026  20.970  18.073 -0.0245 -0.0096 -0.1832
97493W        W98357   0.513  17.273  19.490  0.0570 -0.2551 -0.2445
97494W        W98358  26.385  14.191  18.717  0.0034 -0.2344 -0.0031
97495W        W98359  29.112  18.307  23.348  0.2746  0.4601  0.3206
97496W        W98360  22.956  17.331  21.434  0.1093  0.1567 -0.1436
97497W        W98361  26.264  20.359  18.916 -0.2717 -0.1609  0.1775
97498W        W98362  25.759  17.404  20.427  0.0232 -0.1238  0.2238
97499W        W98363  27.988  20.252  20.055  0.0546 -0.1525  0.2759
97500W        W98364   2.126  20.843  18.864  0.2387 -0.1491  0.0248
97501W        W98365  28.898  16.811  18.987  0.0682  0.1642  0.0802
97502W        W98366  25.888  23.136  22.591  0.4457 -0.1014  0.1489
97503W        W98367  26.430  21.714  20.301 -0.1010  0.0977 -0.0087
97504W        W98368  27.940  19.843  22.024 -0.2255 -0.2496  0.0157
97505W        W98369  23.885  20.668  22.796  0.3509  0.0368  0.3796
97506W        W98370  27.695  21.558  20.129 -0.4400  0.1401 -0.3456
97507W        W98371  28.931  20.477  20.132  0.2420 -0.0422  0.1384
97508W        W98372   1.405  22.888  19.411 -0.2865  0.1103 -0.2379
97509W        W98373   2.129  20.519  24.758  0.0424  0.3227  0.1624
97510W        W98374  28.336  16.346  17.385  0.0023  0.1284 -0.1327
97511W        W98375  27.850  16.499  18.821  0.1081  0.0249  0.0821
97512W        W98376  26.091  20.915  20.610 -0.0746 -0.0393 -0.2198
97513W        W98377  26.986  17.459  20.800  0.1695  0.0181 -0.1440
97514W        W98378  27.061  20.452  23.671  0.1682 -0.1339  0.0259
97515W        W98379  26.387  17.899  17.925  0.0342 -0.0634 -0.3306
97516W        W98380   2.647  22.504  21.315 -0.4334  0.2359  0.1422
97517W        W98381  27.369  19.328  21.515 -0.2746  0.2341 -0.0723
97518W        W98382  25.169  22.752  21.840  0.2156 -0.2119 -0.2000
97519W        W98383  26.022  19.532  18.197 -0.1170 -0.4362  0.1677
97520W        W98384   1.622  19.907  19.071  0.1462  0.0122 -0.2759
97521W        W98385   0.918  22.486  21.883 -0.0580  0.1226 -0.0672
97522W        W98386   0.953  18.919  21.835  0.0996  0.1366  0.1317
97523W        W98387  26.210  22.236  22.041  0.0847 -0.0947  0.1631
97524W        W98388   0.558  23.090  17.833 -0.1066 -0.0772 -0.1608
97525W        W98389  27.639  21.177  21.754 -0.0602  0.2574  0.1540
97526W        W98390  28.824  20.513  23.680 -0.1120  0.0227  0.0596
97527W        W98391  24.803  22.461  21.688  0.2846 -0.1452 -0.0018
97528W        W98392  26.370  20.085  21.730  0.2757 -0.1637  0.0177
97529W        W98393  27.985  16.737  19.294  0.1830 -0.2109 -0.1253
97530W        W98394  26.165  21.584  21.130  0.2409  0.0614 -0.0961
97531W        W98395   0.637  19.933  16.964  0.1152 -0.1085 -0.3367
97532W        W98396  26.109  19.698  19.687 -0.4453  0.2150  0.1024
97533W        W98397  27.903  18.101  21.346 -0.3989 -0.4027  0.0793
97534W        W98398  28.229  17.644  18.647  0.1432 -0.3366  0.2745
97535W        W98399  28.517  19.734  22.079 -0.0319  0.2096  0.3657
97536W        W98400  27.759  20.822  21.083  0.0830 -0.0319  0.3124
97537W        W98401   2.542  21.632  21.220 -0.1843  0.3907 -0.0449
97538W        W98402   2.460  23.114  20.661 -0.1034  0.2969 -0.3971
97539W        W98403  28.996  21.987  21.841 -0.2131  0.0191 -0.1308
97540W        W98404  28.636  20.582  20.516  0.2707 -0.1958  0.0182
97541W        W98405  26.100  20.811  18.645  0.3370 -0.1478 -0.0152
97542W        W98406  28.241  16.520  20.618  0.4793  0.3993 -0.3675
97543W        W98407  26.220  22.417  18.941 -0.2226 -0.0187 -0.0025
97544W        W98408  26.828  16.232  19.517 -0.0332 -0.3244  0.1020
97545W        W98409  28.509  17.658  22.285 -0.1605  0.2285  0.0074
97546W        W98410  25.085  20.745  20.674 -0.0285  0.0829 -0.2298
97547W        W98411  25.755  19.224  19.815  0.0485  0.2950 -0.0342
97548W        W98412  28.174  23.269  20.916  0.1179 -0.1858 -0.0263
97549W        W98413  28.161  18.203  19.943 -0.3254 -0.2039  0.0533
97550W        W98414  25.786  21.707  18.548  0.1511 -0.1464  0.0189
97551W        W98415  27.669  20.095  22.967 -0.1832  0.0871 -0.0770
97552W        W98416  26.148  18.529  17.580  0.2292 -0.0118  0.0066
97553W        W98417  28.078  18.886  20.436 -0.0550  0.2040  0.1938
97554W        W98418  28.591  20.228  16.841 -0.0569  0.0870  0.0548
97555W        W98419  28.605  19.820  19.039  0.3319  0.0475 -0.0533
97556W        W98420  27.126  21.330  21.527 -0.2689 -0.2382 -0.1414
97557W        W98421  26.419  20.961  17.007  0.1118 -0.0189 -0.1068
97558W        W98422  26.695  18.073  19.147 -0.1486 -0.1146  0.2241
97559W        W98423  24.899  19.481  21.427 -0.3199 -0.2463  0.0372
97560W        W98424  28.478  21.923  19.563 -0.3233 -0.2569  0.0787
97561W        W98425  26.417  17.907  22.487 -0.2996 -0.0510  0.0877
97562W        W98426  24.413  18.006  18.086 -0.0401 -0.0382  0.0865
97563W        W98427   1.526  20.308  19.331 -0.0526  0.0633  0.1689
97564W        W98428   0.000  18.618  21.267  0.0851  0.2346 -0.1834
97565W        W98429  27.351  19.514  20.718 -0.0764  0.0115  0.1602
97566W        W98430  27.372  16.793  18.892  0.4269 -0.0163  0.1916
97567W        W98431  24.402  21.384  21.209 -0.2329 -0.0977 -0.3487
97568W        W98432   1.190  20.992  20.531 -0.1485  0.2567  0.0718
97569W        W98433  26.707  22.404  20.996  0.1163  0.0073 -0.1904
97570W        W98434  26.413  19.849  24.122 -0.1641  0.1569  0.0220
97571W        W98435  25.942  19.723  16.776 -0.0614 -0.2986 -0.2189
97572W        W98436  27.585  16.726  17.675 -0.1343 -0.0368 -0.1271
97573W        W98437  25.164  18.983  19.757  0.0652  0.2162 -0.1985
97574W        W98438  28.247  19.444  19.829  0.0257  0.3339 -0.2988
97575W        W98439  26.300  19.239  22.173 -0.2358  0.0747  0.0679
97576W        W98440  28.380  19.879  20.729  0.0078  0.0357  0.0822
97577W        W98441  27.816  21.554  19.201 -0.0172 -0.0418  0.0622
97578W        W98442  26.168  16.366  24.204 -0.0044 -0.1990  0.2968
97579W        W98443  26.701  19.176  19.988 -0.1374 -0.1825 -0.1851
97580W        W98444   0.655  20.512  21.086  0.1484 -0.1694  0.4494
97581W        W98445   0.196  18.046  22.100 -0.0123  0.2271 -0.1528
97582W        W98446  24.609  20.617  20.374 -0.2112 -0.2058 -0.2227
97583W        W98447  28.951  21.598  22.245  0.1959 -0.0483  0.1227
97584W        W98448  27.829  21.706  21.053  0.1317  0.0508 -0.0284
97585W        W98449  25.989  18.801  19.567 -0.0551  0.3000 -0.2310
97586W        W98450  27.859  21.093  20.223 -0.1240 -0.0000 -0.2291
97587W        W98451   0.709  18.418  23.178 -0.0726 -0.1843  0.1603
97588W        W98452   1.291  19.384  19.678  0.0052 -0.0231 -0.0583
97589W        W98453  27.580  22.603  20.493  0.0144 -0.0748 -0.1294
97590W        W98454  24.328  21.034  20.198 -0.1824 -0.0407 -0.4085
97591W        W98455  25.175  18.426  19.827 -0.0473 -0.1930 -0.3152
97592W        W98456   0.382  20.074  20.316  0.2313 -0.0616 -0.1390
97593W        W98457   1.919  21.072  21.815  0.0079  0.2733 -0.1393
97594W        W98458  26.008  20.896  21.573  0.1418  0.1271 -0.0002
97595W        W98459  26.338  18.635  20.820 -0.0796  0.1802 -0.3033
97596W        W98460   1.743  20.474  23.488 -0.1474 -0.1994  0.2148
97597W        W98461  25.970  22.228  19.423 -0.4042  0.0633  0.0280
97598W        W98462  28.149  18.561  21.211 -0.0868 -0.0158  0.4609
97599W        W98463   1.421  21.944  19.269 -0.2924  0.0679 -0.1070
97600W        W98464  28.116  20.532  21.346 -0.2471  0.1208  0.1269
97601W        W98465  27.750  22.256  22.902  0.0363  0.3265 -0.2957
97602W        W98466  26.628  21.244  16.559  0.0454 -0.1176 -0.0075
97603W        W98467  24.604  21.424  26.832  0.0918 -0.0220 -0.4176
97604W        W98468  25.276  20.233  26.493 -0.0761  0.1411 -0.1639
97605W        W98469  26.540  21.132  23.583 -0.1527 -0.2151  0.3216
97606W        W98470  29.114  20.149  23.418  0.2323 -0.3270 -0.1084
97607W        W98471  26.918  22.285  23.816 -0.2884 -0.0488  0.4273
97608W        W98472  25.946  18.467  19.985  0.1221  0.0964  0.1293
97609W        W98473  25.545  20.979  24.137  0.0734  0.0129  0.1344
97610W        W98474  28.987  21.086  21.931  0.2730 -0.0953 -0.1277
97611W        W98475  26.514  23.603  23.472 -0.0577  0.2647  0.1467
97612W        W98476  25.423  19.584  26.376  0.0834 -0.0206  0.0475
97613W        W98477  24.547  16.698  24.733 -0.0416 -0.0290 -0.3057
97614W        W98478   1.180  17.334  23.576  0.0498 -0.1084 -0.0774
97615W        W98479   1.380  18.749  19.519  0.2831 -0.0051 -0.0475
97616W        W98480  25.589  20.491  25.992 -0.2985  0.0073  0.2840
97617W        W98481  24.780  19.576  24.164 -0.2689 -0.0165  0.1299
97618W        W98482  25.558  19.060  24.834 -0.0255 -0.0199 -0.1618
97619W        W98483   0.179  22.398  21.779 -0.1073 -0.0773  0.1264
97620W        W98484  26.073  18.922  24.191  0.1725 -0.0086  0.0384
97621W        W98485  25.698  18.302  23.260 -0.2487 -0.1756 -0.1904
97622W        W98486   1.367  19.884  24.566 -0.2158  0.0182  0.2500
97623W        W98487  29.041  18.743  23.661  0.2115 -0.0407 -0.0375
97624W        W98488  27.602  18.092  23.068 -0.0455  0.1990 -0.2542
97625W        W98489  28.377  21.508  23.121 -0.2030 -0.2456  0.2450
97626W        W98490  29.106  18.211  21.706 -0.0455  0.0540 -0.2435
97627W        W98491  25.838  18.255  21.979 -0.2890 -0.0123 -0.1658
97628W        W98492  27.669  17.343  25.497 -0.0511  0.1082 -0.0487
97629W        W98493   1.896  20.109  25.235 -0.2071 -0.0427 -0.0258
97630W        W98494  27.874  21.421  22.919 -0.0867 -0.0359  0.1115
97631W        W98495  27.836  22.209  25.760  0.3349  0.1398  0.0246
97632W        W98496  27.486  19.351  23.731  0.0380  0.1814  0.1036
97633W        W98497  27.702  18.715  24.409  0.2476 -0.1829 -0.0253
97634W        W98498  28.660  22.045  25.308 -0.0718 -0.0774  0.1003
97635W        W98499  24.637  22.095  25.024  0.1330  0.0433 -0.0844
97636W        W98500  28.351  19.107  25.775 -0.2112 -0.1893  0.1026
97637W        W98501  24.507  19.128  24.847  0.0622  0.0831 -0.2682
97638W        W98502   1.208  22.418  24.657 -0.2282 -0.2650  0.1093
97639W        W98503  27.446  18.594  21.912 -0.2483  0.0222 -0.2635
97640W        W98504  28.237  22.810  25.773  0.1537 -0.1317 -0.1738
97641W        W98505   2.124  19.714  24.306  0.4819 -0.1177  0.6522
97642W        W98506   0.241  20.448  21.420  0.0916 -0.0481 -0.1585
97643W        W98507   0.923  16.913  21.604 -0.0600 -0.0018 -0.2284
97644W        W98508   2.222  19.240  22.379  0.0659 -0.0836  0.1322
97645W        W98509  26.034  21.203  22.750  0.0783  0.1662  0.1270
97646W        W98510   1.051  22.975  21.773 -0.1011  0.2897 -0.3479
97647W        W98511  25.604  22.913  22.151 -0.2024  0.0032 -0.1745
97648W        W98512  24.006  22.712  23.864 -0.1927 -0.3442 -0.1883
97649W        W98513  27.161  19.189  24.137 -0.0838 -0.0169  0.0697
97650W        W98514   2.152  18.629  24.671 -0.0042  0.3195  0.1501
97651W        W98515  26.721  21.861  24.321  0.0144 -0.1643 -0.1219
97652W        W98516   0.239  18.406  22.954  0.2307 -0.2861  0.3429
97653W        W98517   0.070  20.802  24.677  0.1956  0.0004  0.0327
97654W        W98518  24.885  18.883  23.228  0.4349 -0.0738 -0.0816
97655W        W98519  28.504  21.001  26.298  0.0120  0.2084  0.0400
97656W        W98520   1.694  19.055  19.752  0.0240 -0.1175  0.3606
97657W        W98521  25.654  18.372  21.457 -0.0726  0.2306  0.2352
97658W        W98522  24.544  22.613  22.984  0.0839 -0.0058  0.0527
97659W        W98523  23.783  18.181  22.220 -0.0731 -0.0417 -0.1580
97660W        W98524  27.336  21.326  23.762  0.2481  0.2388  0.1862
97661W        W98525  25.368  22.915  23.983  0.1728 -0.1495 -0.0513
97662W        W98526  27.238  19.709  23.534 -0.0025 -0.3761 -0.3691
97663W        W98527  28.364  20.233  22.153 -0.2051 -0.0192 -0.0076
97664W        W98528  27.991  20.983  23.292  0.0653 -0.2809  0.2883
97665W        W98529  26.387  21.811  24.730 -0.2017  0.0276 -0.2864
97666W        W98530  26.399  21.652  22.663  0.2426  0.0498 -0.0169
97667W        W98531  27.335  19.546  25.855 -0.3271  0.1304  0.0113
97668W        W98532   1.147  18.593  24.955  0.1151  0.0738  0.0188
97669W        W98533   1.673  23.076  19.845  0.5522  0.0563 -0.2039
97670W        W98534  25.970  19.272  21.246  0.2433  0.1687  0.1116
97671W        W98535  26.315  22.590  24.734 -0.0521  0.0878  0.0298
97672W        W98536  25.644  21.700  23.502 -0.0669  0.1402  0.1391
97673W        W98537   1.307  22.684  23.328 -0.0942  0.2229 -0.0113
97674W        W98538  27.493  18.158  21.622 -0.3686 -0.1460 -0.1104
97675W        W98539  28.350  25.079  24.556  0.4012 -0.0441 -0.3575
97676W        W98540   0.589  19.394  23.100  0.1490 -0.2402  0.1707
97677W        W98541   0.352  21.473  21.117  0.1737  0.3662  0.3813
97678W        W98542  27.114  22.029  25.746  0.2009 -0.0217  0.3138
97679W        W98543  28.222  15.935  22.737  0.1503 -0.1353 -0.2043
97680W        W98544  28.153  21.869  25.077 -0.1709  0.2317 -0.1481
97681W        W98545  25.873  18.345  24.664 -0.0668 -0.1007 -0.1604
97682W        W98546  27.751  20.081  23.412 -0.0758  0.2039 -0.4629
97683W        W98547  26.306  17.482  25.244 -0.1285 -0.1527  0.1220
97684W        W98548  27.370  19.022  26.339  0.1478  0.1453  0.1281
97685W        W98549  26.081  19.091  24.701 -0.0669  0.2013 -0.3109
97686W        W98550  26.130  17.822  22.033 -0.1825 -0.0197 -0.2773
97687W        W98551  27.911  18.031  24.312  0.2672  0.0110 -0.0253
97688W        W98552   1.631  16.971  23.410  0.3547 -0.0568 -0.1267
97689W        W98553   0.121  20.610  25.958  0.0691  0.0030 -0.1824
97690W        W98554  26.649  18.981  22.526  0.0456  0.1677 -0.1621
97691W        W98555   1.815  21.559  25.917 -0.3900  0.4345  0.0421
97692W        W98556  28.003  20.290  25.203  0.0872 -0.1097 -0.0942
97693W        W98557  27.701  17.134  23.370 -0.0563 -0.3421  0.3786
97694W        W98558  28.385  19.045  25.071  0.0589 -0.1063  0.0040
97695W        W98559  26.793  20.033  24.414  0.2840 -0.5655  0.1340
97696W        W98560  25.236  19.660  20.467  0.0197 -0.0813  0.1941
97697W        W98561  26.502  18.824  24.811  0.1364 -0.2403  0.2094
97698W        W98562  26.976  17.854  22.498  0.0600 -0.1070 -0.0431
97699W        W98563   1.769  20.547  22.031 -0.1338 -0.1285  0.0994
97700W        W98564  23.911  23.135  23.599  0.0625 -0.2018 -0.1796
97701W        W98565  27.297  18.410  22.438 -0.1465  0.0855 -0.2204
97702W        W98566  28.261  17.731  23.295  0.1240  0.1304  0.2857
97703W        W98567   1.077  19.834  22.030  0.0172  0.1898 -0.1708
97704W        W98568  26.549  19.400  22.795  0.0073 -0.1394  0.0344
97705W        W98569   0.218  17.357  23.466 -0.1824  0.0095 -0.5194
97706W        W98570   0.769  25.443  22.966  0.1401 -0.1920 -0.1320
97707W        W98571   1.344  17.950  26.165  0.4110 -0.0233  0.2585
97708W        W98572  26.874  17.686  25.113  0.2358 -0.3259  0.1596
97709W        W98573   0.765  17.578  23.339 -0.0189 -0.0951 -0.1004
97710W        W98574  29.105  20.150  22.877 -0.4883  0.1720 -0.1376
97711W        W98575  25.999  17.436  24.205  0.1841  0.0885  0.0290
97712W        W98576  26.502  19.871  24.874  0.1627 -0.0903  0.3253
97713W        W98577  23.894  20.696  25.450 -0.0015  0.2685  0.0500
97714W        W98578   0.304  20.489  22.744 -0.0362 -0.1045 -0.0295
97715W        W98579  28.791  18.973  25.571  0.0266  0.1170 -0.0899
97716W        W98580  27.931  20.508  23.747  0.3397  0.1620  0.1468
97717W        W98581   0.868  20.116  23.654  0.1259  0.0975 -0.1742
97718W        W98582  26.573  22.852  24.287 -0.2350 -0.1916 -0.2738
97719W        W98583   1.685  16.649  23.836 -0.0289 -0.3040 -0.0940
97720W        W98584  27.056  21.034  24.441  0.1996  0.0579 -0.0169
97721W        W98585  26.372  20.284  24.508  0.2865  0.0975  0.1015
97722W        W98586   0.802  17.055  24.105 -0.3556 -0.1321 -0.1979
97723W        W98587   0.395  17.812  24.280  0.1487  0.0010  0.0368
97724W        W98588  28.064  20.042  21.130 -0.0803 -0.0835  0.0306
97725W        W98589  26.721  19.478  23.412  0.2285 -0.3300  0.0400
97726W        W98590   1.294  20.547  23.708  0.0993 -0.1664  0.1904
97727W        W98591  29.094  19.669  23.687 -0.0319 -0.3676  0.0201
97728W        W98592   0.646  20.574  21.641 -0.0032  0.2397  0.1569
97729W        W98593  28.314  19.980  21.687  0.0406 -0.0956 -0.1857
97730W        W98594   0.732  21.161  25.282  0.3673 -0.1034 -0.1074
97731W        W98595  28.910  20.076  20.975 -0.0024 -0.1710  0.1584
97732W        W98596  25.673  21.539  21.425  0.1806 -0.1649 -0.0425
97733W        W98597  27.720  20.941  22.825  0.0954  0.0588 -0.1971
97734W        W98598   1.982  18.179  24.418 -0.2903  0.2700 -0.1420
97735W        W98599  25.234  22.390  27.219  0.0825  0.2623 -0.1504
97736W        W98600  28.050  17.885  22.598 -0.3491 -0.1299  0.0107
97737W        W98601  25.779  19.760  24.196 -0.1670 -0.1386 -0.0225
97738W        W98602  23.954  16.098  26.684  0.0242 -0.2308 -0.1089
97739W        W98603   1.606  16.488  23.372  0.0426  0.0844 -0.1395
97740W        W98604   0.954  20.064  26.596 -0.2333 -0.1599  0.2683
97741W        W98605  28.594  22.860  24.891 -0.0292 -0.0940 -0.0135
97742W        W98606  25.684  21.910  22.537 -0.4882 -0.1163 -0.3560
97743W        W98607  23.228  17.030  21.788 -0.0375  0.0681 -0.1063
97744W        W98608  28.903  19.442  25.702  0.1680  0.3722  0.0983
97745W        W98609  25.541  21.412  22.241 -0.0943 -0.1972 -0.1511
97746W        W98610  26.429  21.512  23.936  0.0314 -0.0079  0.1837
97747W        W98611  26.645  19.399  26.308  0.0913 -0.0973  0.0545
97748W        W98612  28.946  19.694  21.787  0.0412 -0.0627  0.1912
97749W        W98613   1.521  19.153  21.711  0.0289 -0.0737 -0.0635
97750W        W98614  25.133  22.037  23.869 -0.3057  0.0344 -0.0352
97751W        W98615   1.147  20.380  23.260  0.1013  0.0119  0.0592
97752W        W98616  28.605  20.439  24.318  0.3326  0.0726 -0.0789
97753W        W98617   0.348  19.291  22.620 -0.1468 -0.0446  0.1056
97754W        W98618  24.729  18.031  19.657  0.0630  0.1101 -0.1428
97755W        W98619  27.796  21.048  23.839  0.0449 -0.0853 -0.0426
97756W        W98620  25.989  18.704  23.745  0.0085  0.1625 -0.1428
97757W        W98621  26.515  18.121  22.954  0.0625  0.0866  0.0931
97758W        W98622  26.784  19.257  25.151 -0.0644  0.1143 -0.0130
97759W        W98623  26.194  19.396  24.274 -0.1794 -0.3124  0.2332
97760W        W98624  26.370  21.256  21.568 -0.1475 -0.0499 -0.1117
97761W        W98625  26.083  15.772  21.046  0.0146 -0.0024  0.3232
97762W        W98626  27.414  18.781  23.783  0.2416  0.2820 -0.3520
97763W        W98627   0.088  19.756  25.274  0.0431  0.1493 -0.2760
97764W        W98628  27.724  18.620  25.430  0.3720  0.0191 -0.2122
97765W        W98629  28.770  21.517  22.769 -0.1070  0.1731  0.1329
97766W        W98630   0.943  21.143  22.829  0.2301 -0.2193 -0.1632
97767W        W98631  27.639  18.735  24.909  0.1349 -0.3758  0.1932
97768W        W98632  25.198  17.775  22.389  0.0881 -0.0187 -0.0569
97769W        W98633  25.814  18.483  20.965 -0.1911  0.1345  0.1742
97770W        W98634  23.691  22.406  23.043  0.0015  0.3205 -0.0429
97771W        W98635  28.051  19.717  26.509 -0.2412 -0.1004 -0.0414
97772W        W98636  27.969  18.971  20.934  0.4187 -0.3868  0.1724
97773W        W98637   1.339  19.955  22.966 -0.0877  0.1859  0.2124
97774W        W98638  28.895  22.341  25.645  0.0354 -0.1886  0.0917
97775W        W98639   0.087  21.013  25.620 -0.1854  0.3158 -0.0710
97776W        W98640   0.589  21.861  21.330  0.0415 -0.0257  0.1465
97777W        W98641   0.055  16.942  25.110  0.1626 -0.2656 -0.0140
97778W        W98642   1.716  17.348  25.227  0.0825  0.3219  0.1197
97779W        W98643  24.797  19.764  23.242  0.0642 -0.2516 -0.1467
97780W        W98644  24.383  18.763  24.197  0.3222 -0.0977  0.3183
97781W        W98645  26.145  22.353  23.544  0.0756  0.3245  0.0751
97782W        W98646   0.820  17.372  21.932  0.0397 -0.0235  0.2794
97783W        W98647  27.319  20.669  21.898  0.1781  0.0823  0.0816
97784W        W98648  28.607  20.134  23.062 -0.1035  0.2701  0.1901
97785W        W98649   0.742  17.014  23.614 -0.0020 -0.0426  0.0849
97786W        W98650   0.140  17.601  22.523  0.0432 -0.1882  0.4561
97787W        W98651   0.297  18.252  24.515  0.1037 -0.1370 -0.1027
97788W        W98652  25.635  20.749  25.557 -0.0164  0.1218  0.0016
97789W        W98653  26.777  19.173  22.017 -0.5515 -0.1844  0.0075
97790W        W98654  24.972  16.251  17.996 -0.2485 -0.0573  0.3362
97791W        W98655  27.375  22.265  26.114  0.0868  0.0038 -0.3853
97792W        W98656   0.296  21.712  24.402  0.0064  0.0512 -0.0568
97793W        W98657  27.003  22.451  21.797 -0.0526 -0.0191 -0.2507
97794W        W98658  25.474  20.489  20.735  0.0191  0.1779 -0.0748
97795W        W98659  25.681  19.921  26.568  0.0909  0.2017 -0.0370
97796W        W98660  28.283  18.174  25.964 -0.2944  0.0285  0.2461
97797W        W98661  28.158  17.694  24.575 -0.1812  0.1307  0.1625
97798W        W98662  27.016  17.450  24.577  0.1921 -0.3062 -0.0662
97799W        W98663  27.439  18.558  22.995  0.0387  0.0149 -0.0152
97800W        W98664  25.515  18.570  23.680 -0.3318  0.0853 -0.1267
97801W        W98665  24.924  18.447  23.469  0.0618 -0.0537  0.4080
97802W        W98666  28.499  17.479  23.716 -0.1124 -0.2670 -0.0237
97803W        W98667  27.443  20.152  22.455  0.1739 -0.0881  0.1720
97804W        W98668  26.112  18.518  23.284 -0.3313  0.2921  0.1649
97805W        W98669  28.929  20.196  21.451  0.0185  0.0245  0.1061
97806W        W98670  27.514  18.320  24.669 -0.0788 -0.3138  0.1594
97807W        W98671  28.404  20.388  23.885 -0.0799 -0.0888 -0.3324
97808W        W98672  24.487  19.646  22.293 -0.1767  0.1415 -0.0118
97809W        W98673  28.874  23.474  26.616 -0.3771 -0.3554  0.3263
97810W        W98674   1.484  18.341  23.658 -0.1629  0.1916  0.1253
97811W        W98675   0.330  21.577  23.096  0.0800 -0.1726  0.3169
97812W        W98676  29.087  20.853  22.838 -0.0883  0.0414 -0.1625
97813W        W98677  26.585  20.718  25.861 -0.0621 -0.2782  0.1444
97814W        W98678  24.460  20.218  24.513 -0.0652  0.2013  0.0123
97815W        W98679  24.513  23.118  24.689 -0.1052  0.1175  0.2344
97816W        W98680  28.383  18.365  22.644 -0.2178 -0.1629 -0.2049
97817W        W98681  29.082  20.705  22.255  0.4339 -0.1902  0.0503
97818W        W98682   1.894  21.700  18.941  0.0199  0.2129  0.0752
97819W        W98683  26.774  18.342  22.359 -0.1263  0.2609  0.2234
97820W        W98684   0.896  22.696  20.914  0.0453 -0.2116  0.3676
97821W        W98685  25.398  18.575  24.895 -0.0488 -0.0792 -0.2531
97822W        W98686  26.137  25.058  26.528  0.0569 -0.2712 -0.2884
97823W        W98687   1.391  19.427  25.412 -0.0644  0.2166  0.0992
97824W        W98688  28.703  21.038  22.519 -0.1388 -0.0548  0.1549
97825W        W98689  25.725  21.531  26.142  0.2336  0.1152  0.2401
97826W        W98690   1.146  17.082  23.150 -0.0201 -0.2830 -0.0963
97827W        W98691   0.680  21.455  24.138  0.1950  0.3272  0.1111
97828W        W98692  25.416  18.050  27.129  0.2969 -0.4646 -0.1572
97829W        W98693  26.858  20.839  23.961  0.1146  0.0424  0.2618
97830W        W98694  27.735  19.913  25.448  0.1202 -0.0325 -0.5330
97831W        W98695  28.626  20.744  22.117 -0.1364 -0.0322  0.1655
97832W        W98696   2.243  20.128  26.261 -0.1727  0.0642 -0.0495
97833W        W98697  27.607  18.390  24.057 -0.1144  0.2878 -0.2772
97834W        W98698  26.346  20.740  24.794 -0.3004 -0.1937 -0.0163
97835W        W98699  27.137  20.396  24.219  0.3582 -0.3129  0.0777
97836W        W98700   1.860  18.083  21.805  0.3311  0.1328  0.2809
97837W        W98701  27.579  19.739  24.965  0.3720  0.0819 -0.0646
97838W        W98702  26.850  20.943  21.551  0.0608  0.2588  0.1403
97839W        W98703   0.109  18.740  21.885 -0.0253  0.0510 -0.0730
97840W        W98704  28.147  19.772  24.281 -0.1139  0.2212  0.1477
97841W        W98705  28.737  19.134  24.738  0.3516  0.1165 -0.1424
97842W        W98706   0.548  21.403  22.612  0.0384  0.0321 -0.2472
97843W        W98707   0.274  21.069  20.727  0.3247 -0.1139 -0.2222
97844W        W98708  23.591  22.707  26.442  0.0243 -0.2535  0.0255
97845W        W98709  26.393  19.023  23.384 -0.1449 -0.1172  0.0593
97846W        W98710  27.647  17.923  23.896  0.1388 -0.0215 -0.1711
97847W        W98711   0.086  19.002  24.891  0.1299  0.0521 -0.0754
97848W        W98712  26.114  21.807  20.682 -0.0192  0.0077 -0.2133
97849W        W98713  27.646  20.562  24.301 -0.2079  0.0573 -0.0154
97850W        W98714  22.960  25.026  23.472 -0.2557 -0.2732 -0.2521
97851W        W98715  26.708  18.112  23.916  0.0530  0.2700  0.3258
97852W        W98716   1.304  19.432  24.239 -0.1559 -0.1387 -0.1465
97853W        W98717  28.780  19.990  22.441 -0.0419  0.2292 -0.0488
97854W        W98718  24.777  24.483  24.583  0.0037  0.0442 -0.1906
97855W        W98719   1.989  23.791  26.927  0.0121  0.0545 -0.0239
97856W        W98720   0.090  19.257  23.109  0.0916  0.1081  0.1896
97857W        W98721  27.788  20.126  21.567  0.2068  0.2291 -0.0226
97858W        W98722   1.904  22.438  21.658  0.0081 -0.3802  0.1893
97859W        W98723  28.230  17.489  22.824 -0.0029 -0.0683  0.3111
97860W        W98724   0.406  17.970  23.729  0.1086  0.0145 -0.0617
97861W        W98725   0.691  21.713  20.864  0.0472  0.0528  0.4191
97862W        W98726  28.237  19.171  23.396  0.1940 -0.0467 -0.2531
97863W        W98727  25.965  20.681  24.459  0.0445  0.0021 -0.2487
97864W        W98728  26.900  21.417  24.094  0.0988 -0.1981 -0.1052
97865W        W98729  28.902  21.411  25.718  0.0832  0.1376 -0.0237
97866W        W98730  27.095  18.238  24.281  0.0134 -0.1671 -0.2564
97867W        W98731  25.256  23.412  26.316 -0.2823 -0.1438 -0.2671
97868W        W98732  25.390  21.621  25.765 -0.0301 -0.0416  0.4973
97869W        W98733  25.661  22.392  22.703  0.2503  0.1888 -0.1869
97870W        W98734  28.351  19.637  23.398 -0.0822 -0.1924  0.0652
97871W        W98735  25.050  19.904  22.328  0.0629 -0.0488  0.0196
97872W        W98736   0.730  20.154  22.321 -0.1699  0.0453  0.1510
97873W        W98737  28.383  19.361  24.407  0.2400  0.3388 -0.2201
97874W        W98738  28.090  20.618  26.180 -0.2360  0.0346 -0.2560
97875W        W98739   0.402  20.240  23.872 -0.4909 -0.0679 -0.0717
97876W        W98740  24.108  17.996  24.718  0.3820  0.0576  0.0555
97877W        W98741   0.738  22.573  24.926 -0.1953 -0.0707 -0.0061
97878W        W98742   1.908  19.694  25.533  0.1569 -0.0457  0.1411
97879W        W98743  24.130  20.008  26.024 -0.1237  0.3237 -0.1311
97880W        W98744  27.680  19.981  24.422 -0.0725 -0.0037 -0.0015
97881W        W98745  28.686  18.026  23.719 -0.0839  0.2948  0.1671
97882W        W98746  26.654  20.356  23.958 -0.0769 -0.3756  0.1104
97883W        W98747  27.633  21.729  23.833  0.0023 -0.0256  0.0450
97884W        W98748  24.423  19.012  21.371 -0.2391  0.0965 -0.1155
97885W        W98749   0.937  19.033  24.737 -0.1955 -0.0381 -0.1873
97886W        W98750  26.537  22.618  23.731  0.0771  0.3123 -0.1253
97887W        W98751   0.589  18.864  22.918 -0.0285  0.1933 -0.0439
97888W        W98752  28.417  21.321  25.903  0.0194 -0.2781  0.1542
97889W        W98753   1.755  22.315  23.306  0.0818 -0.1412 -0.1789
97890W        W98754  25.064  18.611  24.088 -0.1386 -0.0139  0.1634
97891W        W98755   1.088  17.052  19.910 -0.2681  0.1938 -0.3939
97892W        W98756   1.332  21.224  21.375 -0.0539  0.0654  0.0605
97893W        W98757  28.437  18.898  23.763 -0.1187  0.0826  0.4899
97894W        W98758  27.788  20.357  22.065  0.0875 -0.1018 -0.1465
97895W        W98759   0.532  18.531  22.006  0.0518  0.0713 -0.0350
97896W        W98760  27.476  19.735  22.165 -0.1223 -0.0580 -0.1475
97897W        W98761  27.234  18.713  24.226  0.2296 -0.2058  0.2144
97898W        W98762  28.589  19.995  24.578  0.2431  0.3576 -0.1924
97899W        W98763  24.680  20.840  24.515 -0.2127  0.2775 -0.1751
97900W        W98764   0.348  20.197  25.449 -0.2380 -0.0506  0.0188
97901W        W98765   2.652  18.707  23.520  0.0330  0.0382 -0.0700
97902W        W98766  24.746  23.539  23.896 -0.0876  0.0421 -0.2968
97903W        W98767  25.634  20.994  22.860 -0.4211  0.2992  0.0749
97904W        W98768  26.713  18.892  27.014  0.1626 -0.1809 -0.2654
97905W        W98769  27.554  21.467  27.308 -0.1913  0.1757  0.0459
97906W        W98770  24.978  20.371  24.772 -0.0648  0.0707  0.1793
97907W        W98771   0.077  19.607  22.259  0.2188 -0.0106  0.0776
97908W        W98772  28.067  19.002  24.174  0.0980  0.1988  0.1186
97909W        W98773   0.050  21.647  23.633 -0.1063  0.0271  0.0692
97910W        W98774  28.254  19.481  22.471 -0.2782 -0.0591  0.1796
97911W        W98775   1.675  16.284  22.905  0.1942  0.1796 -0.2312
97912W        W98776  26.637  19.570  22.331  0.1605  0.2985  0.1202
97913W        W98777  27.006  17.919  21.611  0.6226  0.2107  0.3637
97914W        W98778  26.507  20.387  26.212  0.0410  0.1794  0.1742
97915W        W98779  25.617  19.296  21.879  0.0112  0.1023  0.0753
97916W        W98780   0.461  19.786  23.653 -0.2107 -0.0250  0.2970
97917W        W98781  26.057  21.792  25.058  0.4357  0.2886  0.2029
97918W        W98782  27.809  20.708  27.971 -0.1430  0.0212 -0.2162
97919W        W98783  27.967  19.078  21.479 -0.2716 -0.2545 -0.1313
97920W        W98784  28.992  21.200  24.292  0.1962 -0.1760  0.1128
97921W        W98785  28.837  22.535  25.170 -0.2770 -0.1556 -0.1169
97922W        W98786  27.896  19.850  22.570  0.3080 -0.0692 -0.2395
97923W        W98787  25.982  21.137  23.276  0.0185 -0.1461 -0.0226
97924W        W98788   1.245  24.136  22.300  0.0536  0.2295 -0.1002
97925W        W98789  27.174  19.794  24.157 -0.0743  0.0364  0.0013
97926W        W98790  25.041  20.906  24.156  0.0681  0.1583 -0.0377
97927W        W98791  26.468  20.592  20.452  0.1003  0.1149  0.2179
97928W        W98792  24.522  20.616  24.962 -0.0645  0.0262  0.0080
97929W        W98793  26.418  18.520  22.699 -0.0591  0.3351 -0.1828
97930W        W98794  26.203  18.109  23.511 -0.3649 -0.1330  0.0086
97931W        W98795   0.581  17.854  21.092  0.0651  0.3926  0.1234
97932W        W98796  26.507  20.096  20.677 -0.2998  0.0497  0.3091
97933W        W98797  27.826  17.286  22.521  0.1133 -0.1317 -0.0670
97934W        W98798  25.874  17.027  22.569  0.2295 -0.0707 -0.0009
97935W        W98799   1.014  20.656  24.989 -0.3077  0.1174  0.2684
97936W        W98800   0.089  22.136  26.555 -0.2253  0.1878  0.2554
97937W        W98801  28.897  18.828  23.053 -0.1881 -0.1073  0.0686
97938W        W98802   2.607  22.833  24.283 -0.1936  0.0928  0.1379
97939W        W98803  26.100  21.733  24.267  0.3160  0.2104  0.0199
97940W        W98804   0.809  20.287  22.849 -0.0084 -0.2192  0.0331
97941W        W98805  27.887  19.033  22.766 -0.1038  0.2584  0.2519
97942W        W98806  28.782  17.173  22.286  0.0791  0.1318 -0.1700
97943W        W98807  28.869  19.458  24.309  0.0059  0.0646  0.2873
97944W        W98808   0.518  20.715  24.294 -0.2178  0.1199 -0.2076
97945W        W98809   0.437  19.242  24.388 -0.0670 -0.0838  0.1235
97946W        W98810  24.311  20.600  23.385 -0.1890 -0.1499  0.2620
97947W        W98811  26.954  19.662  24.844  0.1095  0.1625 -0.1103
97948W        W98812  26.779  21.488  26.098 -0.1065  0.3410  0.0251
97949W        W98813  26.009  20.494  21.974 -0.0353  0.2165  0.0211
97950W        W98814  25.993  20.143  23.208  0.1085  0.0134 -0.1597
97951W        W98815  27.478  20.287  23.857 -0.1912  0.0806 -0.2150
97952W        W98816  25.211  13.452  23.197 -0.2809 -0.0335  0.3384
97953W        W98817   0.421  18.005  23.230  0.1963  0.1104 -0.1466
97954W        W98818   0.673  16.704  23.187 -0.2117 -0.0588 -0.0447
97955W        W98819   0.431  20.220  23.271  0.0909  0.0900 -0.1515
97956W        W98820  27.569  20.295  24.931 -0.1780 -0.3348 -0.3560
97957W        W98821   1.193  20.892  23.221  0.0606 -0.1833 -0.3198
97958W        W98822   1.481  16.526  24.230  0.0389 -0.0652 -0.3334
97959W        W98823  24.886  20.594  22.354 -0.0443 -0.1759  0.0452
97960W        W98824   0.839  19.915  25.660  0.1897 -0.2154 -0.1225
97961W        W98825  28.414  18.684  25.512 -0.0542  0.0901 -0.0814
97962W        W98826  25.341  20.354  22.345 -0.0865  0.2502  0.2470
97963W        W98827  23.667  17.261  21.839 -0.3803  0.1422  0.0790
97964W        W98828   0.561  19.824  25.123 -0.1537  0.2246 -0.1160
97965W        W98829   0.334  22.031  23.773 -0.0458  0.0025 -0.0606
97966W        W98830   1.404  16.654  22.196  0.1977 -0.0768  0.1234
97967W        W98831  26.032  20.711  22.858  0.2168 -0.3404  0.1020
97968W        W98832   0.341  22.071  23.156 -0.0745 -0.0572 -0.3344
97969W        W98833  25.392  20.454  24.270 -0.0109  0.1829  0.1182
97970W        W98834   1.380  21.484  22.844  0.3325 -0.2918 -0.3284
97971W        W98835  23.917  17.306  23.681  0.2070  0.0734  0.1671
97972W        W98836   3.214  18.066  23.922  0.2432 -0.0317 -0.0218
97973W        W98837  25.982  21.535  22.416  0.2518 -0.0096  0.2897
97974W        W98838   1.385  19.022  25.707  0.0112  0.3072  0.0036
97975W        W98839   1.369  22.274  22.251  0.1986  0.4046 -0.0305
97976W        W98840  28.466  21.578  25.478 -0.0574  0.1265  0.2025
97977W        W98841  28.192  20.686  22.391 -0.0543 -0.1336 -0.1479
97978W        W98842   0.853  19.482  24.438  0.0562  0.2842  0.1656
97979W        W98843  26.781  16.783  25.435  0.1219  0.3433 -0.0521
97980W        W98844  28.776  20.578  23.166 -0.0563 -0.1500  0.0331
97981W        W98845  29.031  20.125  23.943 -0.0329 -0.2094 -0.1406
97982W        W98846  26.544  18.713  22.097 -0.0134 -0.1505 -0.0248
97983W        W98847  26.748  21.795  22.358 -0.1839 -0.2966 -0.1503
97984W        W98848  26.203  20.847  22.429 -0.0318 -0.1178  0.0082
97985W        W98849  28.568  18.108  23.223 -0.1147 -0.1023 -0.2781
97986W        W98850   2.525  18.248  24.515 -0.1934 -0.0935  0.0567
97987W        W98851  29.135  22.383  22.787 -0.1906 -0.5035 -0.1956
97988W        W98852  28.057  19.501  25.187  0.1013 -0.1599 -0.2539
97989W        W98853  26.651  20.668  22.618  0.1170  0.1457 -0.0028
97990W        W98854   0.112  21.528  21.737  0.0556 -0.2005 -0.2666
97991W        W98855  24.985  23.215  24.167  0.1985  0.5149  0.2733
97992W        W98856   1.044  23.844  22.861  0.0640 -0.2708 -0.0327
97993W        W98857  28.666  18.994  24.232 -0.2210  0.0459  0.0741
97994W        W98858  27.626  22.477  24.217 -0.0175 -0.4083  0.5685
97995W        W98859   2.073  20.269  22.385 -0.0488 -0.1081 -0.0972
97996W        W98860  28.505  19.508  24.933  0.0776 -0.2370 -0.0671
97997W        W98861  25.414  20.984  25.061  0.0739 -0.1390 -0.0180
97998W        W98862  26.951  19.144  24.644  0.2501  0.2456 -0.3621
97999W        W98863   0.810  23.009  21.332  0.0170 -0.1639  0.0586
98000W        W98864  28.292  20.915  24.970  0.1070 -0.2155 -0.1012
98001W        W98865   1.279  21.149  22.455  0.0125 -0.0267 -0.1269
98002W        W98866  25.600  18.899  21.187  0.0290  0.0860  0.3244
98003W        W98867  25.935  19.859   1.680  0.0671  0.0666 -0.0597
98004W        W98868  26.277  22.455  28.875  0.0093 -0.1833  0.2041
98005W        W98869   0.119  21.210  23.933 -0.1207 -0.0636 -0.1240
98006W        W98870  27.810  19.831  27.625  0.2461  0.3094 -0.1874
98007W        W98871  26.878  20.853  24.883  0.0994  0.2765 -0.2053
98008W        W98872  28.467  21.173  28.391  0.0506  0.2796 -0.0534
98009W        W98873  26.791  21.152  27.985  0.0586  0.0643  0.0075
98010W        W98874  26.869  20.356  24.932 -0.0197  0.4934  0.1870
98011W        W98875  26.459  20.674   1.366 -0.0562  0.1680 -0.0833
98012W        W98876  28.033  16.941  25.390  0.4116  0.0304  0.1074
98013W        W98877  28.100  18.656  27.903 -0.0611  0.0853 -0.0769
98014W        W98878  27.412  18.223  26.646  0.1114 -0.1607 -0.3176
98015W        W98879  28.960  22.217  24.788 -0.3904  0.1095 -0.1589
98016W        W98880   1.698  18.404  27.766 -0.0338 -0.0787  0.0750
98017W        W98881  26.740  17.804   0.638  0.2932 -0.2784 -0.1563
98018W        W98882  29.090  20.579   0.447  0.1245 -0.1502 -0.0400
98019W        W98883  26.615  22.231  25.676  0.0146  0.0489 -0.0649
98020W        W98884  25.538  19.122  25.701  0.1929  0.1520 -0.2064
98021W        W98885  29.059  18.471   0.382  0.0378 -0.0408 -0.1897
98022W        W98886  27.893  19.566  25.788 -0.0768 -0.1051 -0.1756
98023W        W98887   1.160  21.514   2.027  0.3221  0.1232 -0.0472
98024W        W98888  27.276  21.474  26.386  0.3081  0.1446  0.0601
98025W        W98889  27.839  20.816  25.287 -0.0786  0.1818  0.0557
98026W        W98890  27.278  21.044  28.941  0.1649  0.0258 -0.2529
98027W        W98891  26.499  19.803  26.575 -0.0161 -0.3472  0.0694
98028W        W98892  26.415  20.787  28.862 -0.1105 -0.2221 -0.1738
98029W        W98893   0.735  19.376   2.037 -0.1047 -0.0489  0.1735
98030W        W98894  26.362  21.191  26.907 -0.2186  0.0483  0.2513
98031W        W98895  29.039  22.250  27.992 -0.0150  0.1684  0.2411
98032W        W98896  28.658  18.849  27.779  0.2462  0.1037 -0.0043
98033W        W98897  27.766  20.067  25.936  0.0434  0.4752 -0.0040
98034W        W98898   1.192  20.106   0.451 -0.0349 -0.0572  0.0595
98035W        W98899   0.721  23.071   0.273 -0.0168 -0.1641  0.0097
98036W        W98900  27.871  20.289   0.658 -0.1535 -0.4062 -0.1671
98037W        W98901  29.087  20.951  27.494  0.0087 -0.0507  0.1095
98038W        W98902   0.557  23.171   1.887 -0.0612  0.2837  0.1922
98039W        W98903  27.050  20.033  28.976  0.1248 -0.0700  0.1226
98040W        W98904  27.110  22.502  27.014  0.1244  0.3468 -0.1519
98041W        W98905   2.827  20.070   1.450  0.2555 -0.0578 -0.0545
98042W        W98906  28.650  20.776  26.897  0.1273 -0.0947  0.1144
98043W        W98907   1.652  18.660  25.990 -0.0031 -0.2997 -0.0918
98044W        W98908   0.413  23.073   0.731 -0.1114 -0.2590  0.1404
98045W        W98909  27.672  18.075   0.099  0.1337 -0.0598 -0.1235
98046W        W98910   2.688  19.871  27.087  0.2061 -0.1154 -0.2990
98047W        W98911  25.587  22.212  27.517  0.0867 -0.0743 -0.1585
98048W        W98912  28.413  22.504  25.417 -0.0625 -0.2705 -0.2675
98049W        W98913  26.937  17.016  27.551 -0.4594  0.2226 -0.5083
98050W        W98914   0.692  19.554   0.397  0.1038  0.1090 -0.1997
98051W        W98915   0.031  21.645  26.431 -0.0797  0.0560  0.1353
98052W        W98916  28.403  18.717  24.573 -0.1108  0.1794 -0.0468
98053W        W98917   0.154  20.064  24.876  0.0501  0.1775 -0.1419
98054W        W98918  27.714  19.408  28.683 -0.0025 -0.5312 -0.0324
98055W        W98919  28.489  20.530  28.882 -0.2339  0.3670  0.1485
98056W        W98920  28.628  20.172  27.449 -0.1636 -0.1863  0.2391
98057W        W98921  27.367  18.347  27.290 -0.2714 -0.1398  0.0525
98058W        W98922  27.069  21.474   0.110 -0.0161  0.2405 -0.2640
98059W        W98923  26.061  17.874  24.457  0.0283 -0.1982 -0.2388
98060W        W98924  28.214  22.628  26.352  0.0331  0.1251 -0.0048
98061W        W98925  28.155  20.863  26.659 -0.0753 -0.1707 -0.3060
98062W        W98926  28.092  21.672  25.896  0.0003  0.1777  0.0029
98063W        W98927  27.216  21.187  27.590  0.0549  0.2049  0.1161
98064W        W98928  28.894  22.921  27.191  0.0815  0.0637 -0.2633
98065W        W98929   0.424  20.414  26.316 -0.0087  0.0921  0.0899
98066W        W98930  24.497  21.899  27.149  0.3215  0.2898  0.0394
98067W        W98931  26.895  19.104  25.595  0.0344  0.1465 -0.2571
98068W        W98932  27.626  19.342  24.191 -0.0118 -0.2761  0.0632
98069W        W98933  25.257  19.546  25.774 -0.0744  0.0649  0.3284
98070W        W98934  25.463  18.179  26.663  0.0288  0.0326 -0.2625
98071W        W98935  27.476  22.462  26.607  0.0315  0.2653 -0.2405
98072W        W98936   0.464  20.142  27.302  0.0073 -0.3091 -0.0973
98073W        W98937  28.179  22.511  28.196  0.0513  0.0425 -0.2372
98074W        W98938   0.577  21.778  27.254  0.1571  0.1434  0.0715
98075W        W98939   0.295  19.754  27.034  0.2710  0.4460  0.2781
98076W        W98940  28.529  20.294  28.066  0.1034  0.0305  0.1554
98077W        W98941   0.533  22.500  25.438  0.0764 -0.2803  0.0582
98078W        W98942   0.606  19.223  27.920 -0.0249  0.0288  0.4731
98079W        W98943  26.940  20.349  25.603  0.0945  0.0733  0.2293
98080W        W98944  26.598  20.380  28.627  0.1861 -0.0045 -0.1148
98081W        W98945  26.079  20.726  26.780  0.1755  0.1289  0.2074
98082W        W98946   0.978  20.980  25.823 -0.2581  0.0568  0.1693
98083W        W98947  27.570  19.656  29.117 -0.1519 -0.0395 -0.2091
98084W        W98948  26.432  20.743   0.888 -0.0490 -0.0877 -0.2049
98085W        W98949  26.054  19.501  26.415  0.1706 -0.3940  0.0076
98086W        W98950  26.282  19.102  25.205  0.0402 -0.1021  0.1827
98087W        W98951   0.003  20.847   1.971 -0.1185 -0.0774  0.1331
98088W        W98952   1.067  21.673  23.669  0.2544  0.0744 -0.4485
98089W        W98953  28.755  22.023  26.296 -0.0481 -0.0648 -0.0484
98090W        W98954  26.249  15.511   0.858 -0.2496  0.1134  0.0421
98091W        W98955   0.397  20.800   0.182  0.4389 -0.0336  0.2413
98092W        W98956   0.974  21.904   0.657 -0.1753 -0.0962  0.0430
98093W        W98957  27.663  20.089  28.874 -0.2627  0.0459 -0.1512
98094W        W98958   1.447  20.405   2.391  0.3325 -0.1686  0.1424
98095W        W98959  28.315  22.028  26.588  0.0443  0.1359  0.2094
98096W        W98960  26.865  17.958  24.640  0.1164  0.1935 -0.0612
98097W        W98961  27.724  20.404  28.391  0.3197  0.1164 -0.0093
98098W        W98962  27.392  20.119   0.142  0.0636  0.1086  0.0306
98099W        W98963  29.109  19.804  26.662  0.1262 -0.0079 -0.1974
98100W        W98964  26.532  20.386   0.591 -0.3922 -0.0066 -0.1105
98101W        W98965   1.055  18.116  25.139 -0.0400  0.0165  0.0161
98102W        W98966   2.011  16.587  26.587  0.2625 -0.0855 -0.2598
98103W        W98967  28.294  22.646  28.636 -0.1006  0.2996 -0.2419
98104W        W98968  26.294  19.572   0.337  0.1424  0.1220  0.0708
98105W        W98969   1.088  19.392  25.817 -0.1198  0.0363 -0.1199
98106W        W98970   0.543  21.583  27.708  0.0192 -0.1607  0.0083
98107W        W98971   3.440  18.827  28.116  0.0526  0.5866  0.0405
98108W        W98972   0.512  25.549   1.145  0.0110  0.0307  0.0575
98109W        W98973  28.644  21.988  24.397  0.2418 -0.0432  0.0981
98110W        W98974   0.117  21.755   0.168 -0.1166  0.3378 -0.1614
98111W        W98975   0.471  17.349  27.381 -0.0282 -0.1535  0.3280
98112W        W98976  26.907  22.776  25.372  0.1118 -0.5060 -0.1413
98113W        W98977  27.093  21.256  25.751 -0.0620  0.0098 -0.1984
98114W        W98978  28.614  22.470  26.554  0.1134  0.0510  0.0536
98115W        W98979  27.400  20.954   1.323 -0.1253  0.1328  0.3077
98116W        W98980  27.334  20.799  28.421  0.0902  0.1317 -0.4170
98117W        W98981  28.262  20.564  22.936  0.1907 -0.0733 -0.2236
98118W        W98982  23.851  18.363  24.604  0.1779 -0.2711 -0.1031
98119W        W98983  28.785  20.302   1.088  0.2048  0.2618 -0.3608
98120W        W98984   0.841  23.157   0.989  0.4381  0.0073  0.2466
98121W        W98985   0.924  21.014  24.337  0.0329 -0.0553  0.0792
98122W        W98986   0.840  22.510  24.335 -0.1003 -0.0340 -0.0845
98123W        W98987   0.218  21.090  25.076 -0.0258  0.0043 -0.1117
98124W        W98988  28.490  23.411  24.693 -0.0555  0.2069 -0.0360
98125W        W98989  28.635  22.365  27.349 -0.0197  0.0624 -0.0549
98126W        W98990  28.608  21.838  25.866  0.1644 -0.0131 -0.2256
98127W        W98991   0.616  20.337   0.024  0.2651 -0.0896 -0.0667
98128W        W98992  28.114  19.754   1.575 -0.2565  0.3335 -0.1798
98129W        W98993  28.773  19.383  28.047 -0.1088  0.0964  0.0705
98130W        W98994   0.593  22.133   0.889 -0.0749  0.1941  0.2479
98131W        W98995   1.321  20.613   1.174  0.0606 -0.1051 -0.0744
98132W        W98996  28.683  23.573  28.272  0.2835  0.0196  0.1254
98133W        W98997   1.550  23.533  25.012  0.0675  0.3102  0.1570
98134W        W98998  27.995  20.262  28.004  0.2275  0.2734 -0.2803
98135W        W98999  28.383  21.960  27.501 -0.0692 -0.0644 -0.3448
98136W        W99000  28.115  17.247  26.853  0.1536 -0.2021 -0.1185
98137W        W99001   0.983  24.016   0.655 -0.1724  0.1891  0.0888
98138W        W99002  27.964  18.897  28.768  0.0681 -0.2798 -0.0601
98139W        W99003  28.932  20.458  26.634 -0.3034  0.2181 -0.0583
98140W        W99004   0.312  20.999  28.804 -0.2145  0.3321 -0.1525
98141W        W99005   0.389  21.610  28.916 -0.0551  0.1266 -0.1253
98142W        W99006  27.279  21.521  24.998  0.1563  0.1032 -0.1868
98143W        W99007  25.912  19.882  23.739 -0.1162  0.0111 -0.0913
98144W        W99008  28.933  18.277  28.567  0.0108 -0.2657 -0.1376
98145W        W99009  28.395  20.453  26.528 -0.1086  0.2279 -0.2403
98146W        W99010  26.880  18.104  26.555  0.1358 -0.0468  0.1224
98147W        W99011  29.143  21.558   0.655  0.1419  0.0250  0.0309
98148W        W99012  27.128  19.878  27.065  0.0828  0.0898 -0.0071
98149W        W99013  26.737  19.472  24.339  0.0829  0.2735 -0.1196
98150W        W99014  28.570  22.990  24.400  0.2298  0.1808 -0.0248
98151W        W99015   1.832  20.314  25.697 -0.1449 -0.1657  0.1800
98152W        W99016  25.916  21.800  27.400 -0.0858  0.1036  0.2193
98153W        W99017  27.945  22.988   1.958 -0.5098  0.2119 -0.0945
98154W        W99018  27.288  17.322  26.305  0.0020 -0.0080 -0.1252
98155W        W99019  27.306  21.173  27.025 -0.1236 -0.0418 -0.0497
98156W        W99020  27.423  19.804  28.484  0.0522  0.1116 -0.0286
98157W        W99021  28.117  19.577   1.088 -0.2503  0.1320  0.0403
98158W        W99022  26.824  15.648  27.278 -0.1382  0.2839  0.0949
98159W        W99023  23.403  20.166  28.845 -0.3020  0.2168  0.1246
98160W        W99024  27.274  19.997  25.764  0.0610  0.0290  0.0606
98161W        W99025  28.852  18.003  26.085 -0.1242 -0.2168 -0.1358
98162W        W99026  27.000  18.535  24.660 -0.0374 -0.1260 -0.1637
98163W        W99027   0.920  19.044   0.449  0.1738 -0.0465 -0.0426
98164W        W99028  26.684  17.574  27.951  0.1174 -0.1567 -0.1193
98165W        W99029   1.027  19.788   0.006  0.1286 -0.1422  0.3797
98166W        W99030   2.186  23.072  28.603  0.3043  0.0886  0.1278
98167W        W99031  28.653  16.221   0.431  0.0796  0.1809  0.2460
98168W        W99032  26.633  18.493  26.740 -0.0023 -0.0654  0.0077
98169W        W99033  28.226  21.021  27.163 -0.0732  0.2603  0.3428
98170W        W99034  26.056  20.759  25.236  0.0626 -0.0087 -0.4438
98171W        W99035   0.277  20.878   0.670  0.0069  0.4284 -0.1960
98172W        W99036  25.974  18.034  27.492  0.0233  0.1083 -0.3286
98173W        W99037  28.120  19.922  23.057 -0.1505  0.0839  0.0886
98174W        W99038   0.087  20.924  27.993  0.0246 -0.3320 -0.0377
98175W        W99039  27.554  19.854  26.712 -0.1350 -0.0053  0.0233
98176W        W99040   1.861  21.040  24.772 -0.1454 -0.0714  0.0509
98177W        W99041  27.342  17.723   0.106 -0.0174  0.2355  0.1822
98178W        W99042  28.638  20.011  26.463 -0.1558  0.1454 -0.1771
98179W        W99043  27.748  19.856   0.980 -0.0845 -0.0591 -0.2413
98180W        W99044  27.485  20.574   0.397 -0.1798 -0.0448 -0.2000
98181W        W99045  26.053  24.031  26.800 -0.1908  0.0324  0.2209
98182W        W99046   0.918  21.762   1.189 -0.1567 -0.1171  0.0860
98183W        W99047  26.701  21.216  28.943  0.1011 -0.3383  0.1069
98184W        W99048   0.214  22.586  28.813  0.3333 -0.0261 -0.1672
98185W        W99049  28.562  20.278  25.646  0.2116 -0.0541  0.2042
98186W        W99050  27.400  18.051  26.155  0.1159 -0.0666 -0.0749
98187W        W99051   1.751  18.489  24.911  0.2344  0.1604 -0.3996
98188W        W99052   0.991  21.255   1.023 -0.3740 -0.0556  0.0054
98189W        W99053  26.531  19.015  25.937 -0.0168  0.0409  0.0854
98190W        W99054  27.351  19.584  24.559  0.0240  0.1082 -0.1230
98191W        W99055  28.769  21.642  26.760  0.0032  0.0729 -0.3892
98192W        W99056  26.869  21.236  26.592  0.1427 -0.1129  0.2400
98193W        W99057  27.172  22.333  24.869  0.2034 -0.3262 -0.1430
98194W        W99058  25.191  21.236  24.549  0.1721 -0.0237  0.0565
98195W        W99059   0.481  19.520   2.488 -0.3250  0.0337  0.2216
98196W        W99060  27.959  21.342   1.974 -0.0932  0.1580  0.0507
98197W        W99061  26.666  18.587   0.583 -0.0138  0.2126 -0.1032
98198W        W99062  25.375  18.645  26.339 -0.1100 -0.2868 -0.0778
98199W        W99063  28.735  17.781  24.627  0.0820 -0.0493  0.1422
98200W        W99064  25.643  17.630  26.852  0.0258 -0.1559 -0.0545
98201W        W99065  26.332  18.022  26.179  0.3727 -0.3175  0.0990
98202W        W99066  27.874  19.865  28.321 -0.0250 -0.0964 -0.1248
98203W        W99067  28.309  19.812  27.838 -0.3086  0.1708 -0.0953
98204W        W99068  28.080  16.658  27.497 -0.3998 -0.2623  0.1261
98205W        W99069  27.365  21.428  24.270 -0.0289  0.1859  0.1551
98206W        W99070  26.316  20.300  26.700 -0.2019  0.1323  0.2032
98207W        W99071  28.590  20.773   0.763  0.0788  0.0475  0.2099
98208W        W99072  29.134  21.876  25.979 -0.1024  0.1455 -0.0993
98209W        W99073  28.535  21.518  28.917  0.1537 -0.0244 -0.0100
98210W        W99074  26.687  18.048  28.040 -0.2554 -0.0610 -0.3021
98211W        W99075  26.904  22.389  26.469 -0.0876 -0.0801  0.0983
98212W        W99076  27.613  20.384  25.488 -0.0466  0.0287 -0.0784
98213W        W99077  27.340  19.554   1.226  0.0629 -0.2086  0.0467
98214W        W99078  27.382  20.646   0.955 -0.0016  0.1860 -0.2136
98215W        W99079   0.515  20.511   1.485 -0.1875 -0.0015 -0.0375
98216W        W99080   0.344  22.727   0.379 -0.3101  0.4557  0.0719
98217W        W99081   1.162  23.098   0.576 -0.1959  0.0187 -0.1890
98218W        W99082  28.573  21.083  25.508  0.0567 -0.0307 -0.3621
98219W        W99083   0.695  18.992  26.477 -0.1091 -0.1103  0.1272
98220W        W99084   0.984  22.932  24.622 -0.0395 -0.1042  0.0250
98221W        W99085  28.477  20.282   1.469 -0.0136 -0.0210  0.0327
98222W        W99086  27.146  19.733   2.467  0.1265  0.0182  0.1872
98223W        W99087   1.869  20.092   1.427 -0.2592  0.0805  0.0996
98224W        W99088   0.765  22.055  28.765  0.1542  0.0964  0.3521
98225W        W99089  26.876  23.799   3.108 -0.2514 -0.0589 -0.1992
98226W        W99090  25.540  19.071  23.761  0.2085 -0.1141  0.1397
98227W        W99091  28.689  18.354  24.962  0.2568 -0.2334 -0.1633
98228W        W99092  28.231  21.687   0.295  0.0050 -0.0276 -0.2863
98229W        W99093  29.032  22.783   0.026  0.0757 -0.2130 -0.1105
98230W        W99094   0.134  20.243  26.948 -0.2425  0.0516  0.3317
98231W        W99095   0.046  22.600  26.894  0.4652 -0.3965  0.2548
98232W        W99096  28.450  22.628   0.032  0.1413 -0.2849  0.7192
98233W        W99097  27.322  19.243  28.942  0.0538  0.1014  0.1184
98234W        W99098  28.399  18.998  29.004  0.0272  0.0079  0.3237
98235W        W99099  26.090  23.018  26.241 -0.1085  0.0335  0.0588
98236W        W99100  27.191  19.203  26.787 -0.2672  0.1134  0.2354
98237W        W99101  24.875  21.627  28.040 -0.0602 -0.2767  0.0145
98238W        W99102  26.758  19.978  25.284  0.1125 -0.2676  0.0403
98239W        W99103  28.014  20.472  28.985  0.0170 -0.2846  0.0305
98240W        W99104  28.316  20.621   2.409 -0.5410 -0.4664 -0.3559
98241W        W99105  27.813  22.511  28.601  0.0273 -0.4277 -0.2920
98242W        W99106  28.040  22.965  28.370 -0.0038  0.1988  0.0639
98243W        W99107  28.306  20.114  26.092  0.1411 -0.1511 -0.1284
98244W        W99108  27.369  18.894   2.422  0.0293  0.0085 -0.0107
98245W        W99109  28.750  19.913  28.969  0.3358 -0.2158  0.2191
98246W        W99110  28.533  18.359  27.803 -0.2061  0.2817 -0.3384
98247W        W99111  26.463  18.910  28.366 -0.1686 -0.0662  0.0705
98248W        W99112  26.653  19.502  25.785 -0.2106  0.5261 -0.0555
98249W        W99113   0.017  20.449   1.421 -0.2809  0.1865  0.1986
98250W        W99114  26.536  21.102   3.313 -0.1598 -0.0444 -0.1717
98251W        W99115   1.438  23.374  26.205 -0.0354 -0.0224  0.1721
98252W        W99116  28.079  18.221  27.699  0.0267  0.2119  0.0075
98253W        W99117  25.752  19.088  27.109  0.1321 -0.1060  0.0017
98254W        W99118  27.773  21.141  26.593  0.0033  0.0630 -0.1461
98255W        W99119  28.831  23.015   2.014 -0.1767 -0.1272 -0.1390
98256W        W99120  27.784  19.107  27.262 -0.0201  0.1703 -0.0260
98257W        W99121  25.123  17.863  25.633 -0.2513 -0.0053 -0.1188
98258W        W99122   0.528  23.399  27.133  0.0456  0.0765  0.0153
98259W        W99123  28.855  20.694  25.567  0.1607  0.1873 -0.2557
98260W        W99124   0.236  18.879  27.080  0.0432  0.0998 -0.0310
98261W        W99125   0.733  21.242  29.043  0.3729  0.0048  0.0415
98262W        W99126   2.346  22.445  26.808 -0.1811  0.0870  0.1381
98263W        W99127  28.644  20.700  28.420  0.0519  0.1513  0.1349
98264W        W99128  27.143  18.126   0.377  0.1385  0.1090 -0.0091
98265W        W99129  26.852  20.050  28.350  0.1196  0.1396  0.0245
98266W        W99130  26.477  18.197   0.292 -0.0182  0.0873  0.0740
98267W        W99131  28.240  23.172  27.472 -0.0912  0.2670 -0.1553
98268W        W99132  26.794  19.510  26.856  0.0619 -0.0721 -0.0764
98269W        W99133  28.349  20.611  25.355  0.0263  0.0491  0.1796
98270W        W99134  27.722  21.973  27.339 -0.0605  0.0530  0.1199
98271W        W99135   0.273  18.451   0.048 -0.3514 -0.0101  0.1118
98272W        W99136   0.784  18.320  24.743 -0.1873 -0.1684  0.0889
98273W        W99137  25.626  20.646  26.588  0.0886  0.0404  0.0375
98274W        W99138   0.290  21.290   0.289 -0.1909 -0.0828 -0.0688
98275W        W99139  26.864  17.453  28.506 -0.1799  0.0627  0.3156
98276W        W99140  25.238  19.411  24.494  0.2681 -0.0979 -0.0995
98277W        W99141  27.887  22.823  27.243  0.2118  0.1361 -0.4967
98278W        W99142   0.383  24.235   0.367  0.2546  0.2128  0.5324
98279W        W99143   0.340  17.418  29.040 -0.0218  0.3901 -0.0818
98280W        W99144  28.916  20.187   0.640  0.0603  0.2190  0.2245
98281W        W99145  27.914  17.530  24.174 -0.0760 -0.1372  0.1456
98282W        W99146  26.590  20.437  27.932  0.0844  0.0225 -0.0585
98283W        W99147  27.097  19.567  26.450 -0.0897  0.1933  0.0086
98284W        W99148  27.377  19.973  26.225 -0.1299 -0.0516 -0.0095
98285W        W99149  26.512  18.585  26.218 -0.2492  0.2973  0.0882
98286W        W99150  25.881  20.695  28.174 -0.0306 -0.3221 -0.3415
98287W        W99151  27.346  21.645  25.587 -0.1417  0.0932  0.1551
98288W        W99152   0.074  19.793  28.882 -0.0693 -0.2582 -0.2344
98289W        W99153   0.325  23.473  25.923 -0.1689 -0.0236 -0.1647
98290W        W99154  27.131  20.395  27.446  0.2032 -0.0700  0.0330
98291W        W99155  28.938  19.259  25.160  0.1614 -0.1064  0.0255
98292W        W99156  29.077  19.899  24.408 -0.3767  0.0325  0.4322
98293W        W99157  25.058  22.066  25.715  0.0414 -0.2397  0.1724
98294W        W99158  27.855  19.495  24.622  0.0286 -0.1139  0.0029
98295W        W99159   0.810  20.067  27.707  0.0354 -0.0300  0.0235
98296W        W99160  28.222  21.128   0.270  0.1057  0.0199  0.0132
98297W        W99161  27.221  20.889  26.558 -0.2440 -0.2110  0.1090
98298W        W99162  28.760  20.161  28.502  0.1112  0.0168 -0.1957
98299W        W99163  29.001  18.593  26.283 -0.0526 -0.1294 -0.4327
98300W        W99164   0.538  21.169  28.100 -0.0603 -0.2511  0.1707
98301W        W99165   0.755  21.004  28.578 -0.3134  0.0175  0.0519
98302W        W99166  26.169  20.470  25.630 -0.2397  0.2724  0.0419
98303W        W99167   0.754  22.753  26.143  0.1708 -0.0782  0.1604
98304W        W99168  26.217  17.126   2.003 -0.2442 -0.0219  0.1453
98305W        W99169   0.473  21.737   0.588  0.1662 -0.1392  0.1403
98306W        W99170  29.105  20.204  25.758  0.0358  0.1028 -0.2877
98307W        W99171   0.647  20.922  27.705 -0.1575 -0.1053 -0.3098
98308W        W99172  26.671  24.080  28.534 -0.1435  0.3182 -0.0428
98309W        W99173   0.131  21.353   1.918  0.1146 -0.3354 -0.1572
98310W        W99174  26.256  18.550  27.610  0.0199 -0.4119 -0.1719
98311W        W99175  28.078  21.194  25.500 -0.1839  0.1258 -0.0805
98312W        W99176  28.376  21.474  27.384  0.1471 -0.0485 -0.1962
98313W        W99177  28.276  19.290  28.016 -0.2213  0.2298 -0.1047
98314W        W99178  26.905  18.913   0.290  0.0640  0.0035 -0.2194
98315W        W99179   0.080  17.892  26.514 -0.0654  0.0451  0.3410
98316W        W99180  29.001  21.076   0.574 -0.0329 -0.2610 -0.0974
98317W        W99181  28.388  21.977  28.916 -0.1717  0.4339  0.1486
98318W        W99182  28.831  21.207   1.862 -0.2505 -0.0431 -0.0265
98319W        W99183  25.394  20.277  27.231 -0.1726  0.1198 -0.2850
98320W        W99184   0.113  20.602  25.156  0.3478  0.0280  0.0182
98321W        W99185  27.900  21.875  29.108 -0.1396  0.0664 -0.1276
98322W        W99186  28.150  19.357  28.549  0.1203 -0.1056 -0.0158
98323W        W99187  27.851  24.193  28.087  0.1673 -0.1357 -0.1893
98324W        W99188   0.466  21.780  25.808 -0.2019 -0.1615 -0.0677
98325W        W99189  28.337  19.363   0.690  0.0792  0.1995  0.0477
98326W        W99190  28.623  19.127  28.530  0.2834 -0.0692 -0.1040
98327W        W99191  24.047  20.174  24.229  0.0333  0.1130 -0.0891
98328W        W99192  25.487  20.870   1.199 -0.0881 -0.0901 -0.1804
98329W        W99193   1.361  20.222   1.453  0.1747 -0.0331  0.0803
98330W        W99194  26.275  19.298  26.849  0.0061  0.2904  0.1695
98331W        W99195  27.221  18.751  27.679  0.1990 -0.2306 -0.2185
98332W        W99196  28.340  21.922  28.000 -0.3399 -0.0066  0.1349
98333W        W99197  26.698  18.141  28.693  0.1019 -0.2736 -0.2596
98334W        W99198   1.002  19.629  25.138  0.3168  0.0837  0.0318
98335W        W99199   0.732  18.576   0.213  0.2085  0.2595 -0.0452
98336W        W99200  28.702  24.567   0.012  0.1849 -0.0562  0.2138
98337W        W99201  29.030  21.759   1.147 -0.0261  0.1436 -0.0908
98338W        W99202   1.476  19.068   0.128 -0.1916  0.0759  0.2103
98339W        W99203  24.293  23.076  29.096  0.0146  0.0568 -0.0050
98340W        W99204   0.395  18.652   0.600  0.1867 -0.3083  0.0782
98341W        W99205  25.379  19.026  26.736  0.2763  0.0189 -0.1525
98342W        W99206  28.225  19.890  25.573 -0.1255 -0.1287 -0.0630
98343W        W99207  26.470  23.291  26.103 -0.1922  0.1637  0.0643
98344W        W99208  26.866  17.181  25.917  0.0767 -0.2043 -0.1312
98345W        W99209  27.088  19.575  25.410  0.0227  0.1886 -0.3155
98346W        W99210  25.560  20.131  23.423 -0.0310  0.0330  0.1570
98347W        W99211   1.213  21.418  24.196  0.2413  0.3577 -0.1864
98348W        W99212  27.599  20.386  27.626  0.0520 -0.2615 -0.2058
98349W        W99213  25.514  23.018  27.962  0.1373 -0.2424  0.0753
98350W        W99214  28.463  22.186  24.858 -0.0068  0.0695 -0.3652
98351W        W99215  27.737  21.925  24.804 -0.0415  0.2311  0.0435
98352W        W99216  25.927  19.116  26.052 -0.1862 -0.1686  0.3544
98353W        W99217  27.762  20.980  27.049 -0.2282 -0.2580 -0.2095
98354W        W99218  27.803  20.825  25.778 -0.0775  0.1396  0.0235
98355W        W99219  27.863  22.167  28.134  0.2278 -0.0402  0.1066
98356W        W99220  28.175  21.764  24.572  0.0091 -0.1330  0.1943
98357W        W99221  28.243  20.516   1.009 -0.1353  0.0260  0.0485
98358W        W99222  27.470  19.099  24.607 -0.2548  0.1513  0.0526
98359W        W99223  25.001  22.622  25.884 -0.4520 -0.0869 -0.2558
98360W        W99224  28.077  20.027   2.725 -0.0698 -0.2024 -0.3028
98361W        W99225  27.109  18.312  28.033 -0.1620  0.0084 -0.2158
98362W        W99226  27.588  20.516  26.137  0.2228 -0.0276 -0.2798
98363W        W99227  26.281  18.358  28.883 -0.0541  0.2234  0.2203
98364W        W99228   1.671  19.395  28.676  0.2975 -0.2764  0.0806
98365W        W99229  25.251  22.829  27.088 -0.0458  0.0832  0.0206
98366W        W99230  27.564  20.139  27.195 -0.3347  0.0674  0.3618
98367W        W99231  26.896  20.931  27.007  0.0542 -0.1867  0.1367
98368W        W99232   0.298  21.382  28.475 -0.1349 -0.1260 -0.0735
98369W        W99233   1.767  23.312  25.844  0.0248  0.3084  0.4892
98370W        W99234   0.407  21.717   1.092  0.3500 -0.2817 -0.1641
98371W        W99235   0.193  18.683  24.182 -0.2628 -0.2215 -0.2076
98372W        W99236   0.627  20.390  26.803  0.2940  0.3391 -0.2086
98373W        W99237  28.583  19.421  23.857 -0.2531 -0.0889  0.1714
98374W        W99238   0.826  19.902  24.719 -0.2452  0.0221  0.3071
98375W        W99239  27.693  20.655  26.640  0.2738  0.0927  0.0726
98376W        W99240  29.071  22.680   1.226 -0.2099 -0.2069 -0.1597
98377W        W99241   0.291  23.933  25.801  0.4024  0.0591  0.0764
98378W        W99242  27.424  20.649  27.156 -0.2805 -0.3438  0.0195
98379W        W99243  28.077  20.652  27.507 -0.3700  0.0788  0.1799
98380W        W99244   0.486  21.304   0.818 -0.1608  0.1800  0.3875
98381W        W99245   1.176  19.606   0.435 -0.1329  0.0711  0.1738
98382W        W99246   0.196  22.254   0.639  0.0545 -0.0271 -0.0834
98383W        W99247  26.869  21.530  27.571 -0.0272  0.2011 -0.2607
98384W        W99248  26.024  21.205  26.518  0.0367 -0.0460 -0.0991
98385W        W99249  26.693  18.995  27.524  0.0414 -0.1566 -0.2321
98386W        W99250   0.419  20.713  27.102  0.2904 -0.0497  0.0115
98387W        W99251  29.075  22.682   0.687 -0.2029 -0.1050  0.1367
98388W        W99252   0.806  18.165   0.974  0.0883  0.0887 -0.2058
98389W        W99253  27.505  21.526  26.784  0.0286 -0.2990 -0.0945
98390W        W99254  28.731  24.449   0.863  0.0781  0.0555  0.0289
98391W        W99255  24.558  21.102  25.423  0.2511 -0.1819 -0.1684
98392W        W99256  27.189  21.429  28.046 -0.0430  0.1905 -0.2341
98393W        W99257  29.107  20.629  28.769  0.1528  0.2321  0.1155
98394W        W99258  25.078  19.394  26.664  0.4128  0.1355 -0.0390
98395W        W99259  28.364  21.674  28.453  0.1815  0.1664  0.0625
98396W        W99260  28.120  24.273  25.814 -0.3879  0.5865  0.2031
98397W        W99261  27.339  21.082   0.361  0.0328  0.0921  0.2210
98398W        W99262  29.040  22.662   2.976  0.0950 -0.1163 -0.0709
98399W        W99263  27.320  21.441  23.217 -0.3040  0.1485 -0.1867
98400W        W99264  27.560  20.328   2.773 -0.0239 -0.2073 -0.1010
98401W        W99265  27.342  20.860  24.053  0.0737  0.1207  0.1470
98402W        W99266  25.048  20.758  28.509 -0.1845  0.0503  0.0699
98403W        W99267  23.145  22.871   4.973 -0.1234 -0.3149 -0.0949
98404W        W99268  24.944  23.452   2.676 -0.1865 -0.1515  0.7395
98405W        W99269  28.521  26.945   1.038  0.0241 -0.3121 -0.1682
98406W        W99270   0.451  25.716   2.120 -0.1205  0.1189  0.1745
98407W        W99271  26.501  24.756   0.021  0.2519 -0.1425  0.0837
98408W        W99272  25.226  22.223   0.567 -0.2681  0.0186 -0.1792
98409W        W99273  26.619  24.742   3.906 -0.1702  0.0614  0.1012
98410W        W99274  27.230  23.314   1.212 -0.1328 -0.0538  0.1768
98411W        W99275  26.277  25.871   2.758  0.4327  0.1767 -0.0142
98412W        W99276  27.143  22.200   2.682 -0.0591 -0.4721  0.1251
98413W        W99277  26.422  21.054   2.811 -0.0719  0.0988  0.0259
98414W        W99278  28.572  25.078   1.568  0.1789  0.0894  0.0196
98415W        W99279  28.027  23.524  27.131  0.1651  0.0558 -0.0937
98416W        W99280  27.965  20.811   3.734  0.0479  0.1291  0.1439
98417W        W99281  26.936  22.481   3.397 -0.0284 -0.0344  0.1526
98418W        W99282  27.462  23.095   1.825  0.1644 -0.0135 -0.0313
98419W        W99283  27.834  21.344   0.021 -0.0037 -0.1599  0.0057
98420W        W99284  24.221  21.833   3.799 -0.3118  0.2161 -0.1498
98421W        W99285  24.484  23.570   7.347  0.1516 -0.1353 -0.0802
98422W        W99286  27.548  26.618   1.462 -0.0964  0.0175 -0.1671
98423W        W99287  25.858  23.278   3.115  0.0236  0.2235  0.0258
98424W        W99288  24.251  25.347   1.009 -0.1317 -0.0248  0.0085
98425W        W99289  27.768  24.210   2.761 -0.0485  0.2080  0.4214
98426W        W99290  25.237  21.030   5.236  0.3016 -0.1575  0.1551
98427W        W99291  25.311  22.978   5.987 -0.1545  0.2396 -0.0094
98428W        W99292  25.079  24.312   5.013  0.1072  0.2893 -0.4386
98429W        W99293  28.535  24.682   1.989 -0.3764 -0.0039  0.0655
98430W        W99294  25.799  23.759   1.946 -0.2223  0.0735 -0.3171
98431W        W99295  26.985  24.248   3.340 -0.1770 -0.0249 -0.2333
98432W        W99296  26.808  24.390   4.330 -0.1965  0.0144  0.1417
98433W        W99297  26.274  22.878   2.406  0.1468 -0.3191 -0.0330
98434W        W99298  25.138  22.938   1.581  0.0128  0.0227  0.0376
98435W        W99299  27.709  23.931   5.206 -0.2653  0.1069  0.2845
98436W        W99300  28.210  24.225   1.468 -0.1843 -0.0911  0.1763
98437W        W99301  23.557  19.836   3.629 -0.1056 -0.0560 -0.1142
98438W        W99302  27.185  23.875   6.614  0.1404 -0.0303 -0.1279
98439W        W99303  23.638  22.110   1.346  0.2028 -0.0590  0.0438
98440W        W99304  26.823  23.553   1.846  0.0998  0.2270 -0.0425
98441W        W99305  28.440  23.566  28.707  0.1166 -0.1786 -0.1717
98442W        W99306  28.964  25.061   0.713  0.1878 -0.2610  0.3380
98443W        W99307   0.217  24.254  28.053 -0.1025  0.1260 -0.0557
98444W        W99308  27.350  22.273   3.182  0.3255  0.1137  0.0275
98445W        W99309  28.289  27.097   3.734  0.0902  0.4340  0.1729
98446W        W99310  28.752  23.754  29.068 -0.3102 -0.3078 -0.0264
98447W        W99311  24.717  24.698   4.181 -0.2576  0.0242 -0.2244
98448W        W99312  28.635  28.573   1.716  0.0203  0.3495 -0.1563
98449W        W99313  25.843  22.816   4.036 -0.2522  0.4302  0.1947
98450W        W99314  26.856  22.252  28.744  0.2923 -0.0650 -0.0793
98451W        W99315  27.016  23.616   0.850  0.2349  0.1684  0.0561
98452W        W99316  27.679  22.664  28.178  0.0835 -0.1400 -0.1563
98453W        W99317  26.922  24.701   2.518 -0.0022 -0.0050  0.3293
98454W        W99318  28.244  24.285   1.966 -0.0981 -0.4086 -0.1628
98455W        W99319  27.630  26.375   3.543  0.0339 -0.0535 -0.2538
98456W        W99320   1.931  23.452  28.297  0.0531  0.3375 -0.2032
98457W        W99321  25.696  24.500   0.163  0.3872  0.3890 -0.1685
98458W        W99322  26.694  22.110   1.809 -0.0497 -0.0783 -0.2477
98459W        W99323  26.833  21.979   4.187 -0.1616 -0.0749 -0.1383
98460W        W99324   1.659  24.781  28.943  0.2337  0.0923 -0.3882
98461W        W99325  25.428  22.603   2.569  0.3274 -0.1320  0.1906
98462W        W99326  27.723  24.298   2.208 -0.0462 -0.2509  0.1821
98463W        W99327  26.339  25.445  28.415  0.0178  0.0927 -0.3748
98464W        W99328  25.181  26.483   2.504  0.3326 -0.1161 -0.2614
98465W        W99329  26.752  23.518   5.016 -0.3914  0.0106 -0.2350
98466W        W99330  28.675  22.912   0.339  0.0406 -0.0442  0.1445
98467W        W99331  25.798  23.628   3.503  0.0316 -0.2249  0.0125
98468W        W99332   2.915  22.894   3.976 -0.0188 -0.0397 -0.1953
98469W        W99333  25.318  22.778  29.094 -0.1190 -0.2599 -0.1733
98470W        W99334  26.839  21.866   0.376  0.4838 -0.0914 -0.3349
98471W        W99335  24.195  25.525   2.313 -0.2915  0.0965 -0.1994
98472W        W99336  26.674  26.141   0.956  0.0131  0.1301 -0.0323
98473W        W99337  27.779  24.625   2.575 -0.0317 -0.0211  0.0064
98474W        W99338  26.950  22.347   0.784 -0.1179  0.0512 -0.0265
98475W        W99339  29.040  24.568   0.438 -0.0074  0.1771  0.5034
98476W        W99340  25.780  23.803   2.936 -0.1681  0.4716 -0.2060
98477W        W99341  26.399  25.904   1.375 -0.0299 -0.0621 -0.1396
98478W        W99342  27.824  23.887   1.605  0.1592 -0.0433  0.3011
98479W        W99343  27.508  20.629   2.332  0.1257  0.1861  0.1996
98480W        W99344  29.065  27.190   2.318 -0.0151 -0.0157 -0.0982
98481W        W99345  25.584  23.828   1.366  0.1276 -0.0920  0.1048
98482W        W99346   0.127  22.997   1.732 -0.0368 -0.0978 -0.0275
98483W        W99347  25.169  23.194   3.725 -0.3943 -0.1276 -0.2198
98484W        W99348  26.234  23.484   2.097  0.3447  0.0179  0.1934
98485W        W99349  27.944  23.834   2.113 -0.1280  0.2242 -0.1592
98486W        W99350  25.844  21.194   2.187  0.0656 -0.3478 -0.1910
98487W        W99351  25.518  21.260   4.470 -0.0135  0.0408  0.0696
98488W        W99352  26.662  22.904  27.975 -0.1440  0.2982  0.2229
98489W        W99353  29.104  25.131   6.070  0.1534  0.2987  0.3722
98490W        W99354  28.374  23.165   2.912 -0.0782 -0.0867 -0.1236
98491W        W99355   0.560  26.182   3.983  0.4801  0.0516  0.0376
98492W        W99356  28.163  21.108   1.086 -0.1312 -0.0706 -0.0701
98493W        W99357  27.648  20.132   1.971  0.2350  0.2267 -0.2190
98494W        W99358  28.043  24.118   5.604  0.2208 -0.0659 -0.0733
98495W        W99359  26.086  23.957   1.389 -0.1962  0.2141 -0.0703
98496W        W99360  25.114  20.655   3.045  0.0711  0.1563 -0.2247
98497W        W99361  27.155  22.305   1.683 -0.0073  0.0915  0.0473
98498W        W99362   0.436  24.387   1.322  0.0214  0.1462 -0.0292
98499W        W99363  27.117  21.880   0.985  0.0419  0.1752 -0.0989
98500W        W99364  25.779  24.985   2.577 -0.2318 -0.0717  0.2064
98501W        W99365  28.133  19.821   0.626  0.0472 -0.2649 -0.1792
98502W        W99366  27.582  23.888   2.456  0.2176 -0.2284 -0.0250
98503W        W99367   0.877  26.000  28.876  0.1154 -0.0256  0.1355
98504W        W99368  26.330  22.424   3.464  0.2251 -0.0441 -0.5172
98505W        W99369  26.628  23.295   0.626 -0.1538 -0.1321 -0.3488
98506W        W99370   0.486  25.732   3.701 -0.0910 -0.1773  0.1190
98507W        W99371  27.872  24.473   4.309  0.0101 -0.1230 -0.0316
98508W        W99372  23.954  23.209   5.063  0.2775 -0.2175  0.2623
98509W        W99373  26.422  24.586   2.152  0.0183 -0.1107  0.2428
98510W        W99374  27.766  24.174   4.765 -0.2362 -0.1443  0.0839
98511W        W99375  26.263  21.547   2.583 -0.0206 -0.2233 -0.1589
98512W        W99376  24.091  19.627   4.196  0.1077  0.1762 -0.2373
98513W        W99377  26.963  26.244   2.743 -0.2445 -0.1141 -0.0900
98514W        W99378  27.175  22.844   0.892 -0.1758 -0.1175  0.1065
98515W        W99379  27.746  24.864   0.443  0.2261 -0.2776 -0.1261
98516W        W99380   0.864  25.991   3.524  0.0176 -0.0288  0.3213
98517W        W99381  28.750  27.412   1.555  0.3414 -0.1270 -0.0825
98518W        W99382  27.613  22.663   2.177 -0.1434 -0.3661  0.1754
98519W        W99383   0.989  20.820   3.584  0.2066 -0.0550  0.0099
98520W        W99384  25.987  24.945   0.987 -0.2368 -0.1395 -0.0976
98521W        W99385  24.329  20.854   1.391  0.1960  0.1166  0.0401
98522W        W99386  27.373  19.409   2.153 -0.0342 -0.0712  0.5034
98523W        W99387  27.354  24.357  27.160  0.1689  0.3158  0.0361
98524W        W99388   1.634  22.945  28.375 -0.1901 -0.2997  0.0941
98525W        W99389  28.485  26.946   0.517  0.0728 -0.1655  0.0448
98526W        W99390  27.556  26.906   1.925 -0.0022 -0.1877 -0.0813
98527W        W99391  27.198  22.299   2.232 -0.1022  0.2450 -0.2927
98528W        W99392  28.440  21.828   1.724 -0.1638 -0.1072  0.1178
98529W        W99393  23.896  22.103   5.038  0.4296  0.1096  0.0945
98530W        W99394  28.222  24.028   2.562  0.2009 -0.0286 -0.3078
98531W        W99395   0.363  23.789   0.579 -0.0433  0.2024  0.1128
98532W        W99396   0.355  26.618   3.814  0.1263 -0.0850  0.1878
98533W        W99397  28.163  25.477   1.510 -0.0994  0.4231  0.1310
98534W        W99398  27.464  24.593   4.589 -0.0974 -0.1120 -0.2139
98535W        W99399  26.143  25.076   2.228 -0.2942  0.0120  0.3349
98536W        W99400   2.410  21.291   1.421 -0.0753  0.2947 -0.3798
98537W        W99401   0.046  25.330   3.043  0.2513 -0.1617  0.1889
98538W        W99402  24.069  19.726   3.506  0.0428  0.0963 -0.0866
98539W        W99403  26.110  24.081   3.362  0.1174 -0.1146 -0.0017
98540W        W99404  28.003  26.672   3.613 -0.1927 -0.0482 -0.5301
98541W        W99405  25.932  22.088   0.761 -0.1214 -0.2974  0.0574
98542W        W99406  28.915  23.936   1.978 -0.3718 -0.0536 -0.2777
98543W        W99407  26.687  22.478  28.269 -0.0599 -0.0150  0.2050
98544W        W99408  27.942  23.463   1.807 -0.2074  0.1698 -0.0671
98545W        W99409  27.137  25.017   2.880  0.0266  0.3148 -0.0995
98546W        W99410  25.825  22.553   1.728 -0.0211  0.2743  0.1119
98547W        W99411  25.272  22.233   4.910 -0.1084 -0.1249 -0.1588
98548W        W99412  24.992  21.409   4.507  0.0725 -0.1285 -0.1755
98549W        W99413  27.436  22.765   3.273  0.0144  0.3922 -0.0146
98550W        W99414  27.081  24.465  28.371 -0.0176  0.3251 -0.0467
98551W        W99415  26.156  24.226   4.508 -0.0061 -0.0461  0.1896
98552W        W99416  24.741  24.944   2.770  0.1241 -0.0255 -0.0105
98553W        W99417   0.142  25.138   4.352  0.0588  0.0834  0.3015
98554W        W99418  26.682  19.850   2.954  0.0480 -0.0028  0.2699
98555W        W99419  27.283  26.923   2.668  0.2887 -0.0223  0.1678
98556W        W99420  27.163  23.262  28.263  0.0877  0.1879  0.0837
98557W        W99421  28.824  22.284   0.948  0.1190  0.0865  0.1375
98558W        W99422  28.261  24.585   2.408  0.1459  0.3061  0.1842
98559W        W99423  24.607  23.042   2.936 -0.2249  0.0226  0.0603
98560W        W99424  25.447  24.657   1.018 -0.0838 -0.1287  0.0698
98561W        W99425  27.041  21.662  28.542  0.0506  0.1934 -0.1062
98562W        W99426  27.280  21.454   1.653 -0.0009  0.1108 -0.0234
98563W        W99427  26.727  22.661   2.248 -0.1052  0.1739  0.2301
98564W        W99428  26.205  24.134   5.656  0.0423  0.3396  0.3878
98565W        W99429  28.000  25.302   3.861  0.1781  0.2086  0.0084
98566W        W99430  28.003  24.043   6.398  0.1657 -0.0561  0.0347
98567W        W99431  26.548  26.052   3.825  0.1121 -0.1836  0.2779
98568W        W99432  24.945  22.443   2.964 -0.4430  0.0627 -0.1683
98569W        W99433  23.738  21.953   2.866 -0.0782 -0.2304  0.1203
98570W        W99434  27.059  27.711   1.560  0.2763  0.0622  0.0316
98571W        W99435  28.060  25.817   4.055 -0.1407  0.0690 -0.0001
98572W        W99436  26.012  23.445   1.513  0.0747 -0.2856  0.1700
98573W        W99437  26.977  24.798   4.563 -0.0796  0.0959 -0.3127
98574W        W99438  28.840  21.385   0.222  0.0711 -0.2253 -0.2871
98575W        W99439  27.088  25.381   4.366  0.0308  0.1190 -0.1325
98576W        W99440  28.134  23.910   0.261 -0.0756  0.1368 -0.2174
98577W        W99441  27.587  22.578   1.689  0.2054  0.2026 -0.3545
98578W        W99442   1.419  21.976  28.285  0.0902  0.0304 -0.0215
98579W        W99443  25.678  25.421   2.305  0.6187 -0.0094 -0.1485
98580W        W99444  27.493  25.246   3.694  0.0052  0.0593 -0.4142
98581W        W99445  24.949  22.991   0.219  0.0664  0.3244 -0.0648
98582W        W99446   0.174  20.353   6.606 -0.3729  0.1195  0.0033
98583W        W99447  28.492  26.479   3.783  0.2796  0.1006 -0.0017
98584W        W99448  27.295  23.439   2.793  0.0128  0.1259 -0.2752
98585W        W99449  26.154  22.419   0.238  0.0492 -0.0974 -0.2418
98586W        W99450   0.192  23.507   1.863  0.0857  0.1371 -0.1296
98587W        W99451  27.978  22.392  29.024 -0.3530  0.0377 -0.0193
98588W        W99452  26.722  24.842   0.491 -0.1073 -0.0417  0.2179
98589W        W99453   0.529  18.787  28.871  0.2673  0.3388  0.4214
98590W        W99454  23.318  20.267   1.169  0.1353 -0.1371 -0.1500
98591W        W99455  25.878  22.357   2.595 -0.1051  0.0597 -0.2398
98592W        W99456  24.664  23.731   2.944  0.0240  0.0091 -0.0460
98593W        W99457  27.649  23.188  28.128 -0.0310  0.1816  0.2329
98594W        W99458  25.415  24.340   0.542 -0.1294  0.1471 -0.3252
98595W        W99459  25.117  24.420   4.126  0.1601 -0.1715  0.1551
98596W        W99460  26.457  20.305   2.786 -0.2146  0.3153  0.1834
98597W        W99461  26.331  21.487   4.084  0.1748 -0.2780  0.0647
98598W        W99462  27.582  21.532   1.209 -0.1298  0.2919 -0.0569
98599W        W99463  27.917  23.639  28.557 -0.0296 -0.0084  0.2091
98600W        W99464  26.645  21.035   4.370 -0.1548  0.0242  0.1742
98601W        W99465  26.451  22.399   2.612 -0.1439 -0.0391  0.1357
98602W        W99466  27.777  22.425   3.460 -0.0379  0.2783  0.1078
98603W        W99467  24.646  19.892   1.444  0.0737 -0.2898  0.0482
98604W        W99468  25.666  24.833   1.446  0.2325 -0.1620  0.4127
98605W        W99469   2.188  24.043   0.580  0.2179  0.1799 -0.0315
98606W        W99470  24.411  20.342   3.546  0.1788 -0.1043  0.0526
98607W        W99471  26.676  22.446   3.841  0.0069  0.1899 -0.2175
98608W        W99472  25.788  21.041   0.736 -0.0414  0.0454  0.0018
98609W        W99473  27.028  25.486   5.870 -0.3714 -0.1290  0.2430
98610W        W99474  27.440  24.187   1.367  0.2029 -0.1005  0.0660
98611W        W99475  27.002  24.913  29.099  0.2051 -0.1047 -0.0644
98612W        W99476  24.968  23.852   4.822 -0.1594  0.1225  0.0478
98613W        W99477  26.776  23.296   3.042  0.2707  0.4275  0.1253
98614W        W99478  24.800  23.984   4.379  0.0415 -0.0545 -0.2456
98615W        W99479  26.318  24.542   2.646 -0.0430  0.2514  0.1688
98616W        W99480  28.827  22.706   4.248  0.0110  0.2319  0.1262
98617W        W99481  28.326  22.076   4.055 -0.1490  0.1302  0.1593
98618W        W99482  26.812  23.603   1.295 -0.2695  0.0826 -0.0419
98619W        W99483  27.174  25.765   1.355 -0.1844 -0.0450  0.1575
98620W        W99484   0.118  25.218   1.266  0.0033  0.1722  0.0592
98621W        W99485  29.102  23.604   3.532 -0.0228 -0.0647 -0.0835
98622W        W99486  24.741  24.251   3.884  0.1796 -0.1269  0.2441
98623W        W99487  28.145  21.154   2.421  0.0115  0.0167  0.3109
98624W        W99488  27.627  22.051   0.952  0.1480  0.0311 -0.3163
98625W        W99489  28.404  25.141   4.664 -0.0288 -0.3288  0.3452
98626W        W99490  26.432  22.843   0.302  0.0081  0.0004  0.0839
98627W        W99491  27.823  24.240   1.081 -0.1012 -0.0424 -0.2393
98628W        W99492  26.786  23.685   6.107 -0.1812 -0.1025 -0.0578
98629W        W99493  26.648  22.810   3.244 -0.0491  0.1040 -0.0276
98630W        W99494  27.786  25.658   2.808  0.2471  0.1554 -0.1585
98631W        W99495  28.736  28.159   0.864  0.0564 -0.1951  0.2712
98632W        W99496  28.725  24.846   3.426 -0.0720 -0.2235  0.0730
98633W        W99497  27.619  23.052   2.580  0.4008  0.2232  0.1336
98634W        W99498  27.826  23.149   6.356  0.1665  0.1730  0.0839
98635W        W99499  25.900  25.417   0.919 -0.2921 -0.0713  0.0486
98636W        W99500   0.193  26.338  28.997 -0.0944 -0.0041  0.1991
98637W        W99501  27.163  23.833   3.610 -0.2501  0.0946  0.0847
98638W        W99502  27.388  25.778   4.804 -0.2548  0.0423 -0.0448
98639W        W99503  26.341  23.992   0.797 -0.0105 -0.1158 -0.0555
98640W        W99504  28.300  23.548   4.240 -0.1025  0.0905  0.1257
98641W        W99505  27.278  25.904   4.304 -0.0492 -0.0344  0.0376
98642W        W99506   0.070  26.441   0.507 -0.0188 -0.1464 -0.3766
98643W        W99507  28.864  23.083   1.491 -0.0711 -0.6156  0.0113
98644W        W99508  25.046  22.970   4.156  0.2663 -0.2562  0.1769
98645W        W99509  25.828  22.371   1.207  0.0646 -0.0531  0.0172
98646W        W99510  23.964  20.130   4.169  0.0835 -0.0813  0.3997
98647W        W99511  26.649  23.567   4.078  0.0039 -0.0748 -0.1996
98648W        W99512  25.587  24.837  28.820  0.0466 -0.1501  0.2770
98649W        W99513  25.272  23.742   3.016  0.2369  0.2431  0.0627
98650W        W99514  26.736  27.167   3.833  0.1873 -0.0975 -0.2914
98651W        W99515   0.390  27.917   1.387 -0.1044 -0.3552  0.1791
98652W        W99516  28.141  22.906   0.993 -0.0707  0.1376 -0.2859
98653W        W99517  26.908  23.393   3.643 -0.2304 -0.4158  0.1573
98654W        W99518  25.888  27.171   2.272 -0.0149  0.1483  0.1385
98655W        W99519  28.709  24.576   3.894 -0.1245  0.4334  0.0764
98656W        W99520  27.718  23.055   5.065  0.1524 -0.1371 -0.0973
98657W        W99521  25.053  23.623   0.658 -0.1056  0.0062 -0.0911
98658W        W99522  26.978  24.753   0.940 -0.2198 -0.2181  0.0193
98659W        W99523  27.984  20.733   1.433 -0.1209 -0.0189  0.0630
98660W        W99524  27.719  23.228   3.028  0.0409  0.2070  0.2730
98661W        W99525  27.810  22.506   1.254  0.1027  0.1568  0.2367
98662W        W99526  24.463  24.221   3.440 -0.1781  0.0681  0.4501
98663W        W99527  25.374  21.109   1.676  0.0502 -0.1403  0.2095
98664W        W99528  25.878  22.893   5.079  0.3081 -0.0667  0.0440
98665W        W99529  26.243  21.998   1.182 -0.0837 -0.2250  0.1227
98666W        W99530  26.750  23.083   1.171 -0.2859 -0.0545  0.0096
98667W        W99531  26.393  22.414   0.905 -0.0100 -0.3678  0.2507
98668W        W99532  27.113  26.014   5.586  0.0032 -0.1075 -0.4770
98669W        W99533  25.379  22.759   2.006  0.0874  0.2456  0.0318
98670W        W99534  26.896  24.576   2.006  0.0742 -0.0659  0.2207
98671W        W99535  27.824  21.752   4.213  0.0404 -0.0459  0.1865
98672W        W99536  28.710  22.632  28.267  0.2725  0.3916  0.0589
98673W        W99537  27.522  26.414   1.971 -0.4387 -0.1319 -0.0828
98674W        W99538  28.201  25.632   3.530 -0.1426 -0.0287  0.1240
98675W        W99539   0.680  24.704   2.365 -0.3554 -0.1247  0.1932
98676W        W99540  25.796  22.940   2.665 -0.0422  0.2353 -0.5891
98677W        W99541  29.028  25.116   2.597 -0.1008 -0.0412  0.1871
98678W        W99542  27.468  23.620   4.169 -0.3400 -0.2636 -0.1609
98679W        W99543  26.149  24.473   3.977 -0.0304  0.2306  0.1321
98680W        W99544  26.433  25.009   2.729 -0.0985 -0.0440  0.0768
98681W        W99545  26.729  19.947   2.128 -0.0267  0.2920 -0.0888
98682W        W99546  26.871  25.383   2.722  0.0376  0.0448 -0.2488
98683W        W99547  28.459  23.881   3.466 -0.3179 -0.0468 -0.1112
98684W        W99548  26.997  20.691  28.748  0.3924 -0.0477  0.0325
98685W        W99549  25.643  21.715   3.122 -0.1537  0.1247  0.3238
98686W        W99550  27.111  25.250   3.329  0.2822  0.0992 -0.0992
98687W        W99551  27.701  23.050   0.602 -0.1469 -0.0554 -0.0221
98688W        W99552   0.004  24.730   4.083  0.0490 -0.0793  0.0862
98689W        W99553   0.579  24.834   3.648  0.0682 -0.1849 -0.1612
98690W        W99554  27.249  23.334   3.281 -0.1312  0.0122 -0.1933
98691W        W99555   0.483  23.982   1.704  0.1050  0.2360 -0.3821
98692W        W99556  27.375  23.509   0.562 -0.0172  0.0257  0.2942
98693W        W99557  25.580  23.605   0.457  0.3917  0.0457 -0.2022
98694W        W99558  27.817  21.993   0.482  0.1750  0.0550  0.1232
98695W        W99559  25.625  24.349   4.172  0.1674 -0.0802  0.0923
98696W        W99560  25.791  25.368   4.483 -0.2884  0.0145 -0.0410
98697W        W99561  28.160  25.587   0.973 -0.0912 -0.0758 -0.2485
98698W        W99562   0.037  23.210   3.239  0.1336  0.0041 -0.0139
98699W        W99563  26.599  21.162   3.786 -0.0233 -0.4973  0.0480
98700W        W99564  28.227  24.896   2.915 -0.1015 -0.1167 -0.0012
98701W        W99565   0.460  22.521   4.041  0.1934  0.1154 -0.2011
98702W        W99566  26.864  24.203   2.625 -0.0486 -0.0096 -0.1889
98703W        W99567  24.784  22.451   4.848  0.1003 -0.0116 -0.1699
98704W        W99568  27.902  20.468   4.066  0.1203  0.3300  0.1848
98705W        W99569  26.497  21.972   7.610  0.2705 -0.1844 -0.0253
98706W        W99570  28.808  25.602   1.524  0.1173  0.1638  0.2544
98707W        W99571  27.118  22.725   1.936 -0.0991 -0.4451 -0.0622
98708W        W99572  25.022  25.390   2.953 -0.0341 -0.0862  0.0746
98709W        W99573  27.303  24.045   2.878  0.2306  0.1750  0.1377
98710W        W99574  28.022  21.704   0.842 -0.4145 -0.2413 -0.2247
98711W        W99575  26.846  22.122   4.657 -0.1549  0.0516  0.3488
98712W        W99576  25.645  25.364   2.983 -0.1885  0.0646 -0.2485
98713W        W99577  27.583  23.454   2.196 -0.0004  0.1326 -0.0974
98714W        W99578  25.865  22.053   4.681 -0.0249  0.0379  0.4565
98715W        W99579  25.655  22.316   0.198  0.0118 -0.0082 -0.2007
98716W        W99580  24.725  22.894   4.578 -0.0569  0.0137 -0.1352
98717W        W99581  24.445  23.445   3.336  0.1932  0.2046  0.2614
98718W        W99582  27.495  23.924   1.967 -0.1445 -0.0894 -0.2497
98719W        W99583  28.005  22.388   0.789  0.0368  0.0893  0.2353
98720W        W99584  28.209  24.759   1.563  0.0159  0.0744  0.0394
98721W        W99585  28.277  23.941   4.644 -0.0936 -0.0940 -0.2470
98722W        W99586  27.237  22.337   1.165  0.0613  0.1883  0.0440
98723W        W99587  25.683  25.545   4.012  0.2534  0.0533  0.0375
98724W        W99588  25.481  24.055   0.115  0.1077 -0.1404  0.1110
98725W        W99589  23.295  23.960   4.313  0.2788  0.2962  0.2990
98726W        W99590  26.057  25.438   1.369  0.3282  0.0336  0.2052
98727W        W99591  26.776  22.553   1.219 -0.0735  0.0704 -0.2857
98728W        W99592  27.635  26.789   3.230  0.2243  0.1553  0.0230
98729W        W99593  28.872  23.481   2.206  0.0487 -0.3927 -0.2192
98730W        W99594  25.086  23.639   1.314 -0.1000  0.0701 -0.1741
98731W        W99595  24.398  23.887   0.255 -0.2235  0.1554 -0.1405
98732W        W99596  24.976  25.469   1.152  0.0655 -0.2326 -0.0255
98733W        W99597  26.536  22.209   3.075  0.1348 -0.0494 -0.1968
98734W        W99598  28.374  21.831  27.032  0.0133  0.0824 -0.1390
98735W        W99599   0.312  22.248   6.274 -0.1698 -0.5551 -0.0347
98736W        W99600  24.574  26.393   4.320 -0.1352  0.2489  0.0569
98737W        W99601  28.023  23.256   2.356  0.1436 -0.0316 -0.0104
98738W        W99602  28.003  25.479   2.118 -0.0420  0.1215  0.0046
98739W        W99603  26.063  24.215   5.142 -0.2437 -0.0554 -0.0324
98740W        W99604  27.418  21.956   1.425  0.5302  0.2084 -0.3241
98741W        W99605  25.497  22.786   3.024  0.1492  0.1204 -0.2226
98742W        W99606  28.483  22.579   0.675  0.0645  0.0977  0.2050
98743W        W99607  27.781  23.430   0.904 -0.2190 -0.0327  0.3649
98744W        W99608  23.885  23.686   4.214  0.0684  0.1028  0.2455
98745W        W99609  25.432  23.368   3.317  0.1126  0.0839 -0.1296
98746W        W99610  25.913  24.292   2.966  0.1417  0.0400  0.1978
98747W        W99611  25.518  23.422   2.685 -0.3598 -0.0452  0.0991
98748W        W99612  25.790  25.237   1.812  0.0311  0.0957  0.1821
98749W        W99613  25.890  23.767   0.980 -0.1676  0.2810  0.0176
98750W        W99614  26.434  23.869   1.709  0.2334  0.1404  0.0095
98751W        W99615  25.907  24.113   2.421 -0.1253 -0.1522  0.1750
98752W        W99616  25.939  23.845  29.122 -0.4188  0.0617 -0.2182
98753W        W99617  28.145  24.720   3.904  0.3132  0.0190  0.0435
98754W        W99618  25.787  21.751   2.101  0.1089  0.0301  0.0877
98755W        W99619  25.652  24.087   3.748 -0.0832  0.0289  0.3020
98756W        W99620  24.668  25.183   2.337  0.0659 -0.1753  0.1929
98757W        W99621  26.103  27.279   1.335 -0.0127 -0.0973  0.0175
98758W        W99622  28.600  19.736   1.369  0.1824 -0.0535  0.2767
98759W        W99623  25.551  24.161   3.271 -0.1912 -0.0522  0.1573
98760W        W99624  25.857  22.742   4.569  0.1996 -0.0012 -0.6136
98761W        W99625  25.415  21.777   4.586 -0.2612  0.0546 -0.1583
98762W        W99626  26.595  21.800   0.835  0.0368 -0.0191 -0.0591
98763W        W99627  28.585  24.084   1.185  0.1068 -0.1320  0.1142
98764W        W99628   0.041  24.774   5.738 -0.0049  0.4231  0.1378
98765W        W99629  27.146  22.778   1.416 -0.1293 -0.1683  0.2024
98766W        W99630   1.203  23.753   2.173 -0.1900  0.2624 -0.0670
98767W        W99631  25.213  24.441  28.901 -0.1122  0.0072 -0.3832
98768W        W99632  28.642  23.385   5.521 -0.2582  0.0445 -0.3339
98769W        W99633  28.105  26.699   0.738  0.2514 -0.0130 -0.2428
98770W        W99634  27.605  23.748   0.206 -0.2913 -0.1997  0.2277
98771W        W99635   0.166  19.294  28.702 -0.4834 -0.0893  0.1565
98772W        W99636   0.976  23.341   2.404 -0.0022  0.3586  0.1621
98773W        W99637  27.084  24.025   1.634  0.1623  0.2330 -0.0018
98774W        W99638   2.113  23.518   0.996  0.0415 -0.0682 -0.0617
98775W        W99639  27.455  22.764   0.214 -0.1870 -0.0827 -0.1123
98776W        W99640   2.817  24.473   2.823 -0.0287  0.1596  0.1178
98777W        W99641  28.308  24.893  28.311  0.1329  0.0815  0.0091
98778W        W99642  26.084  25.108   6.805  0.0628  0.2156 -0.0384
98779W        W99643  26.317  22.849   1.193 -0.0825 -0.0978 -0.0273
98780W        W99644   2.754  27.029   4.199  0.0610 -0.1610  0.1125
98781W        W99645  28.514  24.699   4.308  0.0475 -0.0681  0.0909
98782W        W99646  26.237  23.335   2.625  0.3691  0.2435  0.0577
98783W        W99647  27.587  25.461   4.223 -0.1404  0.1887  0.2297
98784W        W99648  25.094  21.952   3.168 -0.0846  0.0358  0.0117
98785W        W99649  22.265  21.327   1.235  0.1143  0.1371  0.0281
98786W        W99650  27.369  25.687   3.322 -0.2099  0.2272 -0.2046
98787W        W99651  26.765  26.728   2.613 -0.0138  0.0119 -0.2293
98788W        W99652  26.480  24.179   3.079  0.2574  0.0715  0.0603
98789W        W99653  27.781  25.052   1.469  0.0146  0.1892  0.2415
98790W        W99654  28.271  25.959   1.302  0.2164  0.1662 -0.0297
98791W        W99655  27.351  27.325   2.253  0.1508  0.0031 -0.0808
98792W        W99656  27.131  23.756   2.254  0.3084 -0.0895 -0.1054
98793W        W99657  26.538  22.270   6.686  0.1132 -0.1676 -0.1505
98794W        W99658  27.731  25.895   2.298 -0.0780 -0.0383  0.1159
98795W        W99659  28.715  23.541   1.264 -0.1742  0.1030  0.0568
98796W        W99660  26.570  27.022   3.009 -0.1635 -0.1020  0.3933
98797W        W99661  27.407  23.595   1.607  0.3208  0.3328  0.0910
98798W        W99662  26.182  22.988   0.763 -0.2939 -0.2724  0.0887
98799W        W99663  28.107  23.155  28.806  0.0562 -0.0065 -0.3530
98800W        W99664  24.793  25.121   3.281  0.2391  0.1734 -0.0718
98801W        W99665  25.540  24.517   2.541 -0.0283 -0.0278 -0.1931
98802W        W99666  26.378  25.175  28.869 -0.2858  0.0401 -0.3300
98803W        W99667  25.434  25.728   7.492 -0.0158 -0.2022  0.0392
98804W        W99668  26.423  26.475   4.118 -0.0676 -0.0897 -0.2751
98805W        W99669   0.656  22.330   5.321  0.2968  0.0476 -0.0571
98806W        W99670  27.536  22.474   5.921  0.0583  0.3831 -0.0963
98807W        W99671  24.831  26.483   3.479  0.0283 -0.0801 -0.0128
98808W        W99672  26.154  22.636   6.663  0.3189 -0.0405  0.0773
98809W        W99673  25.685  23.309   3.858 -0.0001 -0.3787  0.0800
98810W        W99674  28.332  24.247   3.815 -0.4073  0.2708  0.0666
98811W        W99675  26.572  25.179   6.964 -0.0678 -0.3826 -0.1063
98812W        W99676  25.625  21.927   5.103  0.1337 -0.2486  0.1494
98813W        W99677  26.740  22.969   4.969  0.2390  0.0390 -0.3671
98814W        W99678  27.995  22.706   7.457 -0.1219  0.0178 -0.2582
98815W        W99679  26.808  24.657   3.025 -0.1701 -0.3342  0.0281
98816W        W99680  27.544  22.705   7.175  0.1129 -0.0956 -0.0503
98817W        W99681  25.975  22.043   7.323  0.3824  0.1053 -0.1019
98818W        W99682  25.719  26.288   7.907  0.0934  0.0505 -0.0067
98819W        W99683  28.887  25.611   4.279  0.0490 -0.0221  0.0067
98820W        W99684  26.314  23.740   5.270  0.0653  0.0057  0.2743
98821W        W99685  25.144  24.171   8.168  0.1339  0.1464 -0.0342
98822W        W99686   2.640  24.244   4.442 -0.1190  0.2188  0.1093
98823W        W99687   1.901  25.287   8.154  0.0880 -0.1524 -0.0201
98824W        W99688  24.592  23.813   6.816  0.1084 -0.1744  0.0894
98825W        W99689  26.275  23.586   6.337  0.2882  0.1856  0.0304
98826W        W99690  25.379  20.989   6.411 -0.0540 -0.2352  0.1370
98827W        W99691  24.584  22.268   5.698  0.0959  0.0943  0.0307
98828W        W99692  26.932  21.734   7.399 -0.2001  0.0737  0.2187
98829W        W99693   0.620  22.699   7.912 -0.3058 -0.2623 -0.2140
98830W        W99694  24.648  23.322   4.320  0.1999 -0.0468 -0.0684
98831W        W99695  28.269  24.680   6.055 -0.0063  0.1740  0.0176
98832W        W99696  28.138  23.518   6.134 -0.2322 -0.1089 -0.0451
98833W        W99697  27.505  24.329   6.401  0.1222 -0.2044  0.1076
98834W        W99698  27.470  24.188   7.723 -0.1391  0.1107 -0.1266
98835W        W99699  26.736  23.411   9.459 -0.0860 -0.1232  0.1222
98836W        W99700  27.655  22.542   7.838  0.1796 -0.2438 -0.0967
98837W        W99701  27.049  24.313   7.982 -0.0589 -0.2646  0.1490
98838W        W99702   0.813  24.476   9.770 -0.0217  0.1360  0.0439
98839W        W99703  27.385  21.450   4.002 -0.1450  0.3363 -0.4317
98840W        W99704  29.055  24.277   4.079  0.0214 -0.0474  0.3262
98841W        W99705   0.998  24.815   4.840  0.1331  0.0746 -0.1133
98842W        W99706  27.674  22.576   5.347  0.2885  0.2661  0.4314
98843W        W99707  25.730  23.700   4.173 -0.1282 -0.1046 -0.0710
98844W        W99708  29.071  25.031   8.319 -0.1978 -0.3747  0.0851
98845W        W99709  27.508  24.057   5.631  0.4333 -0.0359  0.0060
98846W        W99710   0.621  23.688   6.634 -0.3516  0.3866  0.2559
98847W        W99711  23.952  25.907   4.184  0.0588 -0.3394 -0.2498
98848W        W99712  24.860  27.276   6.251 -0.0688  0.2707 -0.2667
98849W        W99713  25.557  21.173   8.152 -0.0659 -0.1243 -0.0632
98850W        W99714  27.029  22.596   5.894 -0.0220  0.1100 -0.0658
98851W        W99715  28.791  20.298   6.637  0.0628 -0.0160 -0.0427
98852W        W99716   0.494  23.071   3.536  0.1260  0.3370  0.1222
98853W        W99717  26.814  25.157   6.333 -0.2142  0.0596  0.1326
98854W        W99718  26.899  23.487   6.811  0.4757 -0.1423 -0.2178
98855W        W99719  27.030  26.800   4.912  0.1066  0.0622 -0.1868
98856W        W99720   2.471  23.938   4.819  0.2656 -0.1768 -0.0439
98857W        W99721   1.130  21.973   6.170 -0.2387  0.1348 -0.0547
98858W        W99722  28.765  25.355   3.389  0.1129 -0.0428  0.0815
98859W        W99723  25.112  22.457   6.322  0.3586 -0.1070 -0.0938
98860W        W99724  28.010  24.245   6.993  0.0490  0.2021 -0.1733
98861W        W99725  25.680  20.406   7.398 -0.2632  0.2062 -0.0892
98862W        W99726  26.601  25.972   5.124  0.2776  0.0722 -0.3391
98863W        W99727  28.058  24.017   3.135  0.1235 -0.0169 -0.0591
98864W        W99728  27.470  24.893   5.215  0.0612  0.1203 -0.0071
98865W        W99729  26.727  22.254   7.163 -0.1764  0.0620  0.4028
98866W        W99730  27.390  22.930   6.179  0.0206  0.0903  0.1870
98867W        W99731  26.571  24.445   5.322 -0.0694 -0.2228  0.1333
98868W        W99732   1.413  21.782   4.322  0.4775 -0.6036 -0.2352
98869W        W99733  25.315  21.418   5.535  0.1070 -0.1117  0.2956
98870W        W99734  25.936  25.138   5.078  0.2440 -0.0106  0.1902
98871W        W99735  24.698  26.906   4.866 -0.2646  0.1761  0.0087
98872W        W99736  27.146  26.132   3.748  0.3239 -0.1308  0.0708
98873W        W99737  27.967  25.136   6.781  0.2876 -0.0501  0.0016
98874W        W99738  25.827  23.150   5.987  0.0731 -0.0778 -0.1348
98875W        W99739  28.835  24.237   7.603 -0.0378 -0.1499 -0.0626
98876W        W99740  26.004  22.106   5.970  0.1995  0.0371  0.0850
98877W        W99741  28.861  24.303   4.550  0.1810  0.2376 -0.3234
98878W        W99742   1.118  25.042   8.535  0.1158  0.0710 -0.0757
98879W        W99743  25.319  23.129   5.488  0.0501 -0.0799  0.0563
98880W        W99744  24.459  25.792   5.914  0.3586  0.2657  0.3812
98881W        W99745   0.337  22.739   6.615 -0.1167 -0.1194 -0.0268
98882W        W99746   0.123  26.239   7.134  0.0500 -0.0879 -0.0993
98883W        W99747  24.238  20.040   5.481  0.3540 -0.2112  0.1603
98884W        W99748  26.298  21.800   6.196 -0.1331  0.0835  0.0085
98885W        W99749  24.805  21.579   2.981 -0.0712 -0.0718 -0.0506
98886W        W99750  27.361  20.640   5.958 -0.2190 -0.0038 -0.1934
98887W        W99751  28.809  22.870   5.230 -0.0315 -0.0683 -0.1686
98888W        W99752  27.172  23.231   4.865  0.1038  0.1461  0.0898
98889W        W99753  26.600  24.406   7.650  0.0516 -0.0937  0.1050
98890W        W99754  27.175  22.475   6.383  0.0613 -0.0732  0.0604
98891W        W99755  27.704  24.904   8.863  0.1227  0.0568 -0.0831
98892W        W99756  28.928  22.255   7.502 -0.1504  0.0128  0.0333
98893W        W99757  27.528  21.304   6.688 -0.1370 -0.0226 -0.2210
98894W        W99758   0.493  26.621   7.979  0.0543  0.1798 -0.0514
98895W        W99759  24.677  25.581   4.206  0.0276  0.0741  0.2360
98896W        W99760  27.188  21.791   4.470  0.0418  0.0283  0.0217
98897W        W99761  24.713  22.681   5.896 -0.1462  0.3559  0.0878
98898W        W99762  28.418  25.124   7.042 -0.2692 -0.3521  0.0831
98899W        W99763   2.227  24.392   3.953 -0.1105 -0.1182  0.4566
98900W        W99764  26.405  28.378   6.147  0.3234 -0.0211 -0.0333
98901W        W99765  23.503  19.690   4.183  0.2062 -0.1509  0.0579
98902W        W99766   0.772  21.060   5.908  0.0015  0.1538  0.3581
98903W        W99767  28.785  24.681   4.841  0.1210 -0.0491  0.0436
98904W        W99768  27.361  20.886   4.670 -0.0031  0.0183 -0.0519
98905W        W99769  28.004  22.222   4.515 -0.0604  0.1472 -0.0287
98906W        W99770   0.748  24.066   3.568  0.2595 -0.0316  0.0799
98907W        W99771   0.850  21.450   8.966 -0.0230  0.0143 -0.0194
98908W        W99772  28.393  20.157   7.625 -0.2359  0.2012 -0.0960
98909W        W99773  27.629  24.912   4.080  0.1561  0.2111  0.0240
98910W        W99774  26.146  20.124   7.593 -0.1185  0.1222 -0.1162
98911W        W99775  27.273  21.843   5.534 -0.1392 -0.0786  0.1127
98912W        W99776  27.394  25.194   7.620  0.0269  0.0714  0.2727
98913W        W99777  28.358  24.108   6.018  0.2181 -0.0229 -0.5554
98914W        W99778  27.467  26.109   5.183  0.2120  0.4254  0.1259
98915W        W99779  27.510  18.532   6.416  0.2068  0.1050  0.0511
98916W        W99780  26.513  25.536   6.553  0.2986  0.3379  0.1390
98917W        W99781   0.131  24.459   6.657 -0.2708 -0.2143  0.1627
98918W        W99782  29.054  23.893   4.715 -0.0711 -0.0176 -0.3558
98919W        W99783  28.367  23.037   6.774 -0.1132  0.4836  0.0858
98920W        W99784  26.074  24.541   8.827 -0.2671 -0.3109 -0.0841
98921W        W99785  27.078  22.586   6.946 -0.1120  0.2253  0.2668
98922W        W99786   0.265  24.139   4.412 -0.1086 -0.0353  0.1235
98923W        W99787  28.836  24.155   6.300  0.2898 -0.0745 -0.0245
98924W        W99788   0.181  24.406   7.691 -0.2722 -0.1613 -0.1280
98925W        W99789  28.755  26.376   6.987 -0.2473 -0.0355 -0.0285
98926W        W99790  27.336  26.067   7.411 -0.0702  0.0348  0.2460
98927W        W99791   0.504  22.447   7.091  0.2098 -0.0097 -0.2217
98928W        W99792  28.215  24.701   8.195 -0.3075 -0.0781 -0.1440
98929W        W99793  26.236  21.329   6.429  0.0323  0.2912  0.1405
98930W        W99794   0.403  24.079   7.407 -0.1092  0.0182  0.0069
98931W        W99795   1.165  26.434   5.733 -0.0788 -0.1274 -0.3041
98932W        W99796  27.801  24.870   3.547 -0.0708 -0.0031  0.0872
98933W        W99797   1.229  27.381   8.449 -0.1655  0.0725 -0.1856
98934W        W99798  29.031  20.322   7.079 -0.1084 -0.1401  0.0683
98935W        W99799  25.505  27.099   5.519 -0.0453 -0.3740 -0.0021
98936W        W99800   0.959  22.417   6.125  0.2235  0.1708 -0.1352
98937W        W99801  27.643  22.289   7.430  0.0837  0.0045  0.1739
98938W        W99802  25.550  23.235   8.835 -0.2308 -0.1901  0.1480
98939W        W99803   0.620  22.732   6.156  0.0697 -0.0121  0.1505
98940W        W99804  28.079  22.469   7.023 -0.2110 -0.0149  0.1563
98941W        W99805  27.839  26.021   6.126 -0.2713 -0.0297  0.2683
98942W        W99806  25.390  25.161   3.848 -0.0706 -0.0628  0.3006
98943W        W99807  25.746  19.690   4.018 -0.0669  0.0180 -0.0457
98944W        W99808  26.665  23.213   4.541  0.0305  0.1401  0.0554
98945W        W99809  27.553  24.093   4.343 -0.0705  0.1648  0.3089
98946W        W99810  25.456  25.796   3.138  0.0761  0.2297 -0.3416
98947W        W99811  27.503  23.284   6.754 -0.0885 -0.0516 -0.1207
98948W        W99812  26.321  22.067   4.555  0.4354  0.1225 -0.0672
98949W        W99813  27.616  22.221   6.366  0.2774 -0.0223 -0.1282
98950W        W99814  27.730  24.480   8.586 -0.2692 -0.0078 -0.2256
98951W        W99815  27.433  25.095   4.511 -0.0900  0.0842 -0.0046
98952W        W99816  28.620  24.329   8.123  0.0399  0.1149  0.0246
98953W        W99817  28.890  25.977   9.495 -0.1936  0.0907 -0.0830
98954W        W99818  25.919  20.923   3.348  0.1533  0.1435 -0.1413
98955W        W99819  27.970  23.446   7.724  0.0006  0.2315  0.1913
98956W        W99820  28.377  23.271   4.959 -0.0475  0.1333 -0.0411
98957W        W99821   1.080  24.624   7.853 -0.1001  0.1549 -0.0863
98958W        W99822   1.853  20.122   6.872 -0.0404 -0.1579 -0.1784
98959W        W99823  25.401  23.635   4.629  0.0743  0.1703 -0.0145
98960W        W99824  28.217  26.742   4.202 -0.0422  0.0885 -0.4355
98961W        W99825  26.215  24.885   5.907 -0.0369 -0.1498  0.1198
98962W        W99826  26.745  22.871   5.554 -0.2577  0.1747  0.0693
98963W        W99827  27.595  21.394   5.301  0.2710  0.1841 -0.1324
98964W        W99828  26.518  22.678   7.458 -0.0311 -0.1460 -0.2160
98965W        W99829  27.772  25.053   9.694 -0.3950 -0.1290 -0.1262
98966W        W99830  28.342  23.560   9.575  0.2485 -0.1326  0.5279
98967W        W99831  27.986  22.764   9.236  0.2578 -0.2270 -0.0914
98968W        W99832  27.203  20.272   3.967  0.3475  0.2875  0.1760
98969W        W99833  25.353  24.460   7.041  0.1835  0.0436  0.0031
98970W        W99834  23.760  19.906   4.563 -0.2163  0.0032  0.1822
98971W        W99835  27.663  26.374   7.053  0.3192  0.0900 -0.1072
98972W        W99836  24.756  25.709   4.709  0.0650  0.1894  0.1789
98973W        W99837  27.082  24.869   5.935 -0.2144  0.1534 -0.1920
98974W        W99838  26.625  24.692   6.160 -0.0553  0.1402  0.0887
98975W        W99839   1.022  25.991   4.936  0.1196  0.0413 -0.0531
98976W        W99840  27.780  25.271   3.243 -0.2237 -0.1312 -0.1002
98977W        W99841  27.473  23.979   7.235  0.0322  0.0599  0.0319
98978W        W99842   0.227  23.384   3.910 -0.0733  0.2843 -0.1915
98979W        W99843  24.210  23.903   5.834  0.4869  0.2108  0.0212
98980W        W99844  26.608  22.298   6.165 -0.2592  0.1729  0.1925
98981W        W99845  24.749  26.019   3.595  0.0915  0.0491 -0.0851
98982W        W99846  27.654  21.847   6.832 -0.4630  0.0166 -0.0349
98983W        W99847   0.120  25.623   4.572  0.0995  0.0472 -0.0103
98984W        W99848  27.911  27.879   7.190  0.0294  0.3164 -0.2486
98985W        W99849   0.040  25.879   3.903 -0.0307  0.0613  0.1180
98986W        W99850  26.398  20.129   6.636 -0.1894 -0.1967 -0.4078
98987W        W99851  26.623  22.460   4.392  0.1106 -0.0154 -0.1908
98988W        W99852  26.838  24.700   7.134  0.0680  0.0159 -0.1670
98989W        W99853  28.001  23.115   4.653 -0.0045 -0.1679  0.1858
98990W        W99854  24.791  19.075   4.508  0.0980 -0.0285  0.2460
98991W        W99855   0.776  23.700   8.978 -0.0595 -0.1379 -0.1372
98992W        W99856  26.640  23.983   7.872 -0.2307  0.1850  0.1959
98993W        W99857  27.289  24.461   4.169  0.0602  0.3378  0.0854
98994W        W99858  24.334  24.563   3.908  0.0945 -0.0934 -0.2636
98995W        W99859  23.977  23.946   8.150 -0.2625  0.2542 -0.0981
98996W        W99860  24.695  20.454   7.350  0.4649 -0.2653 -0.1739
98997W        W99861  26.600  21.352   6.082 -0.0057 -0.0720 -0.1218
98998W        W99862  25.088  21.917   5.720 -0.0225 -0.1913 -0.0422
98999W        W99863  28.619  22.259   4.419  0.2810  0.1848  0.1042
99000W        W99864  26.598  22.771   6.019  0.0203 -0.0993  0.2607
99001W        W99865  28.391  23.354   2.000 -0.1386 -0.5367 -0.1124
99002W        W99866  28.382  22.664   5.236 -0.0492  0.0559  0.1477
99003W        W99867  25.789  23.210   2.223 -0.0819  0.2989  0.1703
99004W        W99868  28.302  23.044   6.186  0.1564  0.1061 -0.0989
99005W        W99869  28.364  23.062   3.479  0.1082  0.0426  0.2193
99006W        W99870  28.369  23.984   6.876 -0.0301  0.1499 -0.1071
99007W        W99871  26.399  24.745   7.932 -0.0517  0.2941  0.0514
99008W        W99872  24.502  21.712   2.566  0.3597 -0.0209  0.0011
99009W        W99873  28.687  25.056   8.025  0.1362  0.4205 -0.1298
99010W        W99874   3.057  23.400   7.471  0.1334 -0.3950 -0.0642
99011W        W99875   0.388  24.066   2.640  0.0256 -0.2592 -0.3437
99012W        W99876  23.081  20.572   3.026 -0.2082 -0.0722 -0.3327
99013W        W99877  25.279  24.327   9.301  0.0522  0.0614 -0.2432
99014W        W99878  25.235  22.754   6.751 -0.0341  0.0555 -0.0682
99015W        W99879  27.369  23.634   8.526  0.0996 -0.1855  0.1963
99016W        W99880  28.316  20.546   7.940  0.3792  0.1544  0.0479
99017W        W99881   1.889  25.539   5.756  0.0153  0.1431 -0.0020
99018W        W99882   0.682  22.712   4.968 -0.0295  0.1380  0.0063
99019W        W99883  26.760  25.687   4.058 -0.1040 -0.0914 -0.5201
99020W        W99884  28.466  25.046   3.969 -0.0043 -0.1057 -0.0848
99021W        W99885   1.292  22.653   6.848 -0.1797 -0.2795 -0.0274
99022W        W99886  24.900  24.167   6.941 -0.1741 -0.1453  0.1827
99023W        W99887   0.758  24.917   8.107  0.0989 -0.1603  0.0340
99024W        W99888   0.733  24.106   8.524  0.0797 -0.3595  0.2202
99025W        W99889  26.321  24.701   6.969  0.2224  0.1105  0.3166
99026W        W99890  26.250  23.745   4.325  0.1589 -0.2667 -0.0896
99027W        W99891   0.141  24.639   4.545 -0.2611  0.1081 -0.1657
99028W        W99892  26.732  20.640   3.980  0.0944  0.2152 -0.0584
99029W        W99893  29.123  25.465   5.724  0.3144  0.2600  0.1819
99030W        W99894   1.330  23.296   8.056 -0.0127 -0.2934 -0.0369
99031W        W99895   1.291  24.314   4.133  0.1053 -0.0718  0.1002
99032W        W99896  26.818  25.159   7.792  0.0653  0.0772  0.0800
99033W        W99897  24.486  20.960   6.031  0.0759 -0.1092  0.3105
99034W        W99898  26.755  23.487   7.823  0.0333  0.3623  0.0615
99035W        W99899  27.847  24.409   3.606  0.3380  0.0503 -0.1428
99036W        W99900  26.636  26.423   4.673 -0.2085  0.0732 -0.1522
99037W        W99901  25.761  21.549   4.802 -0.1953 -0.3230 -0.1187
99038W        W99902  24.077  25.371   5.272  0.0881 -0.0895 -0.0780
99039W        W99903  28.590  25.029   6.088 -0.1793 -0.0129 -0.1141
99040W        W99904  27.013  21.188   6.366 -0.3845 -0.0122 -0.1125
99041W        W99905  28.091  21.939   7.070 -0.0418  0.0660 -0.0758
99042W        W99906  28.071  26.569   6.495 -0.0358  0.0386 -0.1017
99043W        W99907   0.107  26.741   5.675 -0.0295  0.1696 -0.0602
99044W        W99908  27.555  23.359   5.925  0.0161  0.1961  0.0829
99045W        W99909  26.300  20.170   4.927 -0.0654  0.1240 -0.0007
99046W        W99910  24.870  21.383   3.716 -0.0849  0.1622  0.0398
99047W        W99911  27.807  23.439   7.183  0.1141  0.1243  0.0334
99048W        W99912  28.297  24.639   6.874 -0.0319 -0.0572 -0.0303
99049W        W99913   0.475  27.496   6.274  0.2229 -0.3153  0.0627
99050W        W99914  27.773  24.773   7.674  0.1782 -0.0388 -0.0901
99051W        W99915   0.574  23.217   6.488 -0.1173 -0.1202 -0.2516
99052W        W99916  26.927  21.018   5.876  0.2085  0.1593  0.0924
99053W        W99917  23.977  22.268   5.486  0.0082  0.3267  0.1987
99054W        W99918  25.301  24.835   5.726 -0.1614  0.2951 -0.1432
99055W        W99919   2.549  24.232   8.460  0.0109  0.0113  0.0228
99056W        W99920   0.498  23.053   8.942 -0.0103  0.0742 -0.2035
99057W        W99921  24.398  22.807   5.002 -0.2465  0.1526  0.1811
99058W        W99922   2.088  24.329   5.560 -0.0001 -0.0621 -0.0841
99059W        W99923   1.122  23.905   4.540  0.1060 -0.0775  0.2650
99060W        W99924  27.775  21.401   5.774  0.0249  0.0968  0.2339
99061W        W99925  28.443  20.918   6.290 -0.4100 -0.4413  0.1046
99062W        W99926   0.991  23.331   7.523  0.1996 -0.2150  0.0180
99063W        W99927  26.708  23.622   5.533 -0.1638 -0.1954 -0.0867
99064W        W99928  25.483  24.054   5.029 -0.4112  0.1078 -0.0625
99065W        W99929  28.862  22.896   8.140  0.0493 -0.2634 -0.0410
99066W        W99930   0.948  22.076  10.008 -0.4007  0.3026 -0.2094
99067W        W99931  23.483  24.245   3.446  0.1070 -0.2311 -0.0144
99068W        W99932  27.523  25.243   7.060  0.0338  0.0181  0.2045
99069W        W99933  26.697  27.700   3.677  0.2810  0.2248 -0.0168
99070W        W99934  27.066  22.721   7.440 -0.0490 -0.1482 -0.2367
99071W        W99935  27.452  24.333   6.891  0.0209 -0.0584 -0.1527
99072W        W99936   0.458  26.409   6.684  0.1890  0.2392  0.1670
99073W        W99937  24.935  21.835   4.729 -0.0108 -0.0407  0.4878
99074W        W99938  26.641  23.938   9.067  0.2407 -0.1790  0.0582
99075W        W99939  25.278  24.380   9.805 -0.1634 -0.2486 -0.0886
99076W        W99940  27.064  23.217   5.357  0.0652  0.1867  0.0814
99077W        W99941  27.822  24.945   8.276  0.0504  0.2580 -0.2715
99078W        W99942  28.614  21.584   8.307 -0.2127 -0.1172 -0.0031
99079W        W99943  26.457  22.620   9.024 -0.0397  0.0806  0.3472
99080W        W99944  28.426  24.422   6.410 -0.0318 -0.1625  0.0040
99081W        W99945  25.341  23.496   6.097 -0.0106 -0.2079 -0.0749
99082W        W99946  25.092  22.000   4.281  0.2941 -0.1249  0.2798
99083W        W99947  27.006  25.330   8.262 -0.2128 -0.0950 -0.2504
99084W        W99948  27.104  23.262   2.161 -0.0291 -0.2415 -0.0509
99085W        W99949  28.269  24.871   5.090  0.0527 -0.0584  0.0794
99086W        W99950  26.764  26.644   7.232  0.1182  0.0496  0.1697
99087W        W99951  27.595  23.466   5.402  0.3825  0.1374  0.2355
99088W        W99952  27.192  20.982   6.869 -0.3118 -0.1431 -0.1489
99089W        W99953   0.144  24.525   6.130  0.1735 -0.4981 -0.0059
99090W        W99954  28.850  22.786   7.617 -0.0723 -0.2269  0.1140
99091W        W99955   0.768  23.297   5.162 -0.0697 -0.1472  0.0196
99092W        W99956  28.343  22.578   4.168  0.0254 -0.0517 -0.0215
99093W        W99957  28.326  23.759   5.159  0.5893 -0.4204  0.1572
99094W        W99958  24.899  20.870   7.043 -0.0832 -0.3861 -0.1047
99095W        W99959  27.746  23.440   8.758  0.0461  0.1578  0.0503
99096W        W99960  26.158  25.883   6.240 -0.1168  0.2419 -0.0485
99097W        W99961  27.605  26.197   4.501 -0.1577  0.2845 -0.1412
99098W        W99962  27.165  21.152   5.150  0.1826  0.3162 -0.1812
99099W        W99963  26.652  22.172   8.972 -0.2302  0.1519 -0.0722
99100W        W99964   0.461  23.635   7.621 -0.0666  0.2167 -0.1216
99101W        W99965  27.493  22.005   5.127 -0.2007  0.1353 -0.2769
99102W        W99966  24.597  25.194   4.563  0.2093 -0.1720 -0.2633
99103W        W99967  26.615  21.375   7.276  0.2559 -0.0494 -0.0824
99104W        W99968  25.897  23.452   8.011 -0.2739  0.0046  0.1422
99105W        W99969  27.431  25.466   6.629  0.0545  0.2587 -0.1730
99106W        W99970  27.927  25.206   4.932  0.2455  0.1224 -0.1814
99107W        W99971  28.783  25.084   5.603  0.2016  0.1247 -0.1838
99108W        W99972  27.756  28.294   9.195 -0.2526 -0.2072  0.1197
99109W        W99973  27.012  24.111  10.379  0.0545 -0.2094  0.2869
99110W        W99974  28.942  21.471   7.026 -0.0312  0.2285 -0.0410
99111W        W99975   0.506  23.081   4.162 -0.2732  0.0523  0.0035
99112W        W99976  24.325  24.778   4.520 -0.1630  0.1739  0.1760
99113W        W99977  28.476  21.156   6.882 -0.0397  0.1247  0.0841
99114W        W99978  28.398  24.292   7.315 -0.0434  0.1612 -0.2489
99115W        W99979  28.200  24.269   5.143 -0.0699 -0.1072  0.1820
99116W        W99980  25.526  23.149   4.841  0.2446  0.2935 -0.0765
99117W        W99981  26.173  22.929   5.674 -0.0630 -0.0401 -0.0204
99118W        W99982  27.660  25.647   7.594 -0.2338  0.1467 -0.2251
99119W        W99983  26.129  22.475   4.249 -0.0288  0.0855 -0.0122
99120W        W99984  27.881  23.531   4.998  0.1328 -0.3140  0.0833
99121W        W99985  28.736  25.544   4.767 -0.1123 -0.1699 -0.0814
99122W        W99986  26.457  23.310   5.825 -0.2640  0.0504 -0.2015
99123W        W99987  27.036  24.048   5.455 -0.5439  0.1661  0.3241
99124W        W99988  29.032  26.964   1.240  0.2772  0.0832 -0.3515
99125W        W99989  26.658  23.933   6.644  0.3159 -0.1307  0.2474
99126W        W99990  28.570  24.009   4.202  0.1573 -0.2341  0.0043
99127W        W99991  24.603  24.508   5.404 -0.2142 -0.2695  0.1415
99128W        W99992  25.038  23.317   4.615 -0.1191  0.2355  0.1154
99129W        W99993  26.164  24.608   4.839  0.0309 -0.2076  0.0475
99130W        W99994  25.305  24.227   4.592  0.2031  0.2012 -0.0085
99131W        W99995  28.559  22.655   1.740  0.1193 -0.2045  0.0622
99132W        W99996  22.701  20.701   4.354  0.4529 -0.1688 -0.0905
99133W        W99997  25.772  21.672   7.603  0.4492  0.2190  0.0378
99134W        W99998   0.435  21.635   4.369  0.0501 -0.0117  0.2628
99135W        W99999   1.244  23.593   8.950 -0.0976  0.0943 -0.2163
99136W        W    0  25.415  23.569   5.162  0.1136 -0.0458  0.0366
99137W        W    1   3.458  23.340   7.870  0.2614 -0.1431 -0.1453
99138W        W    2  26.489  24.823   8.910 -0.1098  0.1310 -0.0781
99139W        W    3  29.133  25.041   4.895 -0.0082 -0.0959 -0.3153
99140W        W    4   0.023  24.069   5.921 -0.1228  0.2333  0.1607
99141W        W    5  27.290  24.368   5.960 -0.0513  0.2164  0.0596
99142W        W    6  27.034  21.296   4.612 -0.2507 -0.3261  0.0799
99143W        W    7  25.728  24.397   4.773 -0.1181  0.0670 -0.0419
99144W        W    8  27.612  21.812   5.982 -0.0296  0.3027 -0.0216
99145W        W    9  28.475  21.973   5.929  0.1263  0.2214  0.0490
99146W        W   10  26.150  24.715   5.423 -0.0323 -0.1457 -0.0398
99147W        W   11  27.188  26.176   3.237 -0.1124  0.1524 -0.4037
99148W        W   12  25.698  24.326   8.998 -0.0174  0.0020 -0.0036
99149W        W   13  22.998  21.499   2.857  0.1492 -0.3697  0.0267
99150W        W   14  24.404  23.260   5.209 -0.1675 -0.0783  0.0861
99151W        W   15  23.625  25.615   2.347 -0.0918  0.1384  0.0446
99152W        W   16  25.938  20.564   5.098 -0.2909  0.0172  0.1385
99153W        W   17  27.788  22.163   5.648 -0.0803  0.2218 -0.3510
99154W        W   18  27.909  21.288   3.964 -0.0093 -0.2681  0.0431
99155W        W   19  28.224  24.758   7.370  0.1561 -0.3556  0.1167
99156W        W   20  26.539  24.938   5.088 -0.1341 -0.0745  0.0034
99157W        W   21  27.810  25.699   4.548 -0.2648  0.0264 -0.1186
99158W        W   22   0.904  22.724   5.720  0.1371 -0.0071  0.1299
99159W        W   23  26.289  25.539   4.157  0.0627  0.0544 -0.2082
99160W        W   24  26.242  22.356   7.096 -0.0291  0.2525 -0.2737
99161W        W   25  26.352  23.249   7.542  0.0877 -0.0135  0.0504
99162W        W   26  25.869  24.006   6.578 -0.1430  0.2176 -0.2717
99163W        W   27  26.909  25.730   3.513 -0.1062  0.1906 -0.0910
99164W        W   28  28.502  21.904   7.358  0.0435  0.1094  0.1539
99165W        W   29  26.760  24.166   8.330  0.3193  0.0826  0.0614
99166W        W   30  27.182  22.378   5.480  0.1266  0.1595  0.2716
99167W        W   31  26.503  25.295   5.962 -0.0235 -0.1545  0.2573
99168W        W   32  28.739  23.660   3.845 -0.0553  0.0522 -0.1949
99169W        W   33  27.829  25.036   5.457  0.1607  0.1970  0.3584
99170W        W   34  27.997  23.218   8.357 -0.0579 -0.0550  0.1656
99171W        W   35  27.899  22.619   4.861  0.0829 -0.1307 -0.0855
99172W        W   36   2.644  23.465   5.695 -0.0021 -0.0829  0.0433
99173W        W   37  28.157  25.852   2.550 -0.1629 -0.2908  0.1985
99174W        W   38   3.673  23.476   5.086 -0.0732  0.0076  0.1904
99175W        W   39  28.976  22.351   6.570  0.2227 -0.3478  0.0063
99176W        W   40   0.603  24.673   8.902 -0.1762 -0.1958 -0.0302
99177W        W   41   0.033  24.533   3.642 -0.0220 -0.1156 -0.3871
99178W        W   42  24.841  23.929  10.011 -0.1197 -0.0652 -0.2080
99179W        W   43  24.334  19.594   4.949  0.1172 -0.2345 -0.0205
99180W        W   44  27.954  25.485   8.155  0.1859  0.0394  0.1353
99181W        W   45   0.172  22.036   7.751  0.1116 -0.1023 -0.0015
99182W        W   46  27.128  24.669   6.420 -0.3453 -0.2742 -0.0093
99183W        W   47  29.111  24.260   8.408 -0.1626 -0.2250 -0.1029
99184W        W   48  25.548  24.981   4.750 -0.0015  0.0903  0.2852
99185W        W   49  26.335  22.720   5.226  0.0925 -0.2878  0.4945
99186W        W   50  29.071  25.597   6.794  0.0343  0.1426  0.0133
99187W        W   51  25.526  22.242   7.311  0.1329  0.2766  0.1680
99188W        W   52  27.583  22.342   6.862 -0.2490 -0.0964  0.1658
99189W        W   53  28.661  23.366   6.071 -0.2358  0.0379  0.1959
99190W        W   54   0.659  25.608   7.475  0.1264  0.1027 -0.2692
99191W        W   55  26.778  23.186   6.336 -0.1802  0.4696  0.3025
99192W        W   56  26.076  22.952   7.924 -0.0052 -0.2389 -0.0178
99193W        W   57  26.444  24.602   8.481  0.3651  0.2533 -0.4998
99194W        W   58  28.449  25.020   6.585 -0.1259 -0.0472  0.1939
99195W        W   59  28.539  23.917   7.818 -0.0460  0.0340 -0.0520
99196W        W   60  28.713  23.284   6.548 -0.0198  0.0572  0.1311
99197W        W   61  24.874  24.972   5.429 -0.0008  0.2112 -0.0472
99198W        W   62  27.033  23.859   7.591  0.1322  0.2164 -0.0997
99199W        W   63   0.197  23.464   4.446  0.4145 -0.0135  0.1853
99200W        W   64  27.227  25.600   7.262 -0.0785  0.2593  0.2770
99201W        W   65  28.313  26.817   5.671 -0.1927 -0.0826  0.1158
99202W        W   66  28.292  24.445   2.916 -0.0782  0.1935  0.0225
99203W        W   67  26.035  23.181  11.350  0.1472  0.1883 -0.2134
99204W        W   68  26.662  24.216   9.540 -0.1032  0.2614  0.0173
99205W        W   69  28.598  22.448   8.351 -0.0586 -0.1043  0.0365
99206W        W   70  29.146  25.148  11.830  0.0725  0.4266  0.0549
99207W        W   71  28.293  23.100   7.289  0.3531  0.1074 -0.0951
99208W        W   72  28.152  24.141   8.305  0.3536  0.0394 -0.0407
99209W        W   73  27.212  23.405   6.310 -0.2269 -0.2665 -0.1144
99210W        W   74  28.327  23.992   9.961 -0.0430  0.1550 -0.3285
99211W        W   75  27.354  24.795   7.244  0.0469  0.0519  0.0015
99212W        W   76  24.262  23.824  11.031  0.0898  0.0804  0.2511
99213W        W   77  25.706  19.830   8.722 -0.2679  0.3369  0.1351
99214W        W   78  27.414  21.801  10.255  0.1546  0.0451 -0.2004
99215W        W   79  26.702  22.541   8.545  0.0387  0.1469 -0.2522
99216W        W   80  27.897  24.862  10.898 -0.0819 -0.0440  0.0520
99217W        W   81  25.216  21.859  10.538 -0.1545 -0.1092  0.0872
99218W        W   82  28.729  24.436  12.192 -0.1694 -0.0442 -0.0919
99219W        W   83  25.792  23.490   6.941  0.0733  0.1029  0.1682
99220W        W   84  24.040  20.696   9.498 -0.1554  0.1643  0.0651
99221W        W   85  28.791  25.393   9.765 -0.2736  0.0546 -0.2127
99222W        W   86  26.828  23.042   8.616  0.1560  0.1668  0.4194
99223W        W   87  28.987  25.468  10.834 -0.2574  0.0183 -0.0451
99224W        W   88  28.423  20.067   8.760 -0.1712  0.2877 -0.0610
99225W        W   89  27.160  26.527  11.105 -0.3094  0.1670  0.0466
99226W        W   90  25.898  23.650   9.701  0.2533  0.1213 -0.0913
99227W        W   91  26.170  25.062  10.827  0.0738  0.0891 -0.0757
99228W        W   92  24.864  22.255  10.471  0.2748 -0.2213 -0.2225
99229W        W   93  25.376  23.009  12.026  0.0321  0.2254 -0.2490
99230W        W   94  26.624  25.197   9.403  0.0342 -0.0168 -0.0218
99231W        W   95  26.935  23.553   8.832  0.1414 -0.1483 -0.2083
99232W        W   96  27.815  24.409   8.072 -0.4100 -0.3725  0.0060
99233W        W   97  24.314  24.153   9.780 -0.0004 -0.3148  0.1643
99234W        W   98  27.437  23.232   9.890  0.5150  0.2246 -0.1919
99235W        W   99   0.419  24.580  11.512 -0.2761 -0.2501  0.2280
99236W        W  100  24.744  21.649  10.744  0.0807  0.2287  0.2891
99237W        W  101  24.800  23.313  12.686  0.3172  0.0129 -0.3903
99238W        W  102   0.924  26.400  12.584 -0.1373 -0.3708 -0.2362
99239W        W  103  24.838  22.582   8.168  0.2731 -0.1076  0.1784
99240W        W  104  27.615  25.296   8.549 -0.1283 -0.2259  0.0230
99241W        W  105  27.594  25.811  11.966  0.2668 -0.0164 -0.2063
99242W        W  106  28.834  24.244   9.965 -0.1890 -0.2982 -0.2097
99243W        W  107   0.490  20.705   8.322 -0.0591  0.0458 -0.0869
99244W        W  108   0.519  26.127  10.606 -0.1842  0.4195  0.0823
99245W        W  109  26.030  26.280   7.552  0.2304 -0.1433  0.1360
99246W        W  110   0.182  25.102  10.600  0.0503  0.0345 -0.0495
99247W        W  111  25.559  26.691   4.484  0.0825  0.0551  0.1578
99248W        W  112  25.470  22.365  10.369 -0.3769 -0.0609 -0.4101
99249W        W  113  26.162  20.861   9.206 -0.3398  0.1692  0.2581
99250W        W  114  27.573  22.843  10.267  0.2017 -0.1479 -0.1985
99251W        W  115  27.473  25.254   8.109 -0.0700  0.0068 -0.0481
99252W        W  116  28.528  23.814   6.446  0.0134 -0.1838  0.1716
99253W        W  117  27.304  24.381   8.359 -0.0794  0.1155  0.0302
99254W        W  118  26.231  19.711   8.757 -0.0902 -0.3028 -0.1352
99255W        W  119  26.874  25.612  11.228 -0.0046 -0.0879  0.0570
99256W        W  120  27.926  23.898   7.412  0.1443  0.4311  0.0896
99257W        W  121  26.459  22.804   8.212 -0.0470 -0.0238 -0.2931
99258W        W  122  26.980  23.213   5.893  0.0886 -0.2645 -0.2735
99259W        W  123  25.386  22.793   8.911  0.3282 -0.0619 -0.1773
99260W        W  124  24.628  21.109  10.749  0.1299  0.0390 -0.4343
99261W        W  125  26.587  23.094   9.092  0.0945 -0.2008  0.1757
99262W        W  126  25.788  23.462   6.309 -0.0627  0.0409 -0.3746
99263W        W  127  28.265  21.489   7.285 -0.1839 -0.1961 -0.1233
99264W        W  128  25.032  23.729   9.394  0.1182  0.1376 -0.2053
99265W        W  129  26.728  23.437  10.834  0.2479  0.0528 -0.1906
99266W        W  130  26.661  23.685   8.419  0.2675 -0.0819 -0.1852
99267W        W  131  26.188  22.051  10.875 -0.1193  0.3042  0.0290
99268W        W  132  28.790  19.907  12.030 -0.0848  0.0102 -0.1811
99269W        W  133  28.747  24.441   6.810  0.0746 -0.1517  0.0601
99270W        W  134  26.257  23.811   6.930 -0.1222  0.0774  0.1848
99271W        W  135  24.621  22.747   9.112 -0.0197  0.1559 -0.2628
99272W        W  136  25.754  26.150   9.317 -0.0281  0.0952  0.0577
99273W        W  137  27.777  25.338   9.277  0.1213  0.2087 -0.0899
99274W        W  138  28.643  21.149   7.359 -0.2917 -0.0518 -0.0812
99275W        W  139   0.629  25.632   8.951 -0.0164  0.1843  0.1703
99276W        W  140  29.124  23.109  10.635  0.3336  0.3193 -0.0672
99277W        W  141   0.819  24.919   9.903  0.2041  0.0172  0.2532
99278W        W  142   0.040  25.385  12.688  0.0930 -0.0916 -0.2593
99279W        W  143  24.120  24.475   8.323  0.1031 -0.1044 -0.1429
99280W        W  144  26.208  24.142   9.854 -0.1891  0.1689  0.1498
99281W        W  145  27.896  21.093   8.075 -0.2094  0.2157 -0.0322
99282W        W  146  27.915  26.851   8.294  0.0038 -0.1751  0.3867
99283W        W  147  27.194  23.169   9.414  0.1464  0.0642 -0.0316
99284W        W  148  22.650  24.272  11.055 -0.1141 -0.2520  0.0349
99285W        W  149  23.770  22.215   9.361  0.0254  0.2046 -0.2033
99286W        W  150  28.841  20.568   9.326 -0.1317  0.1454  0.2364
99287W        W  151  24.240  21.803   9.816  0.4100 -0.0229  0.1166
99288W        W  152  26.366  22.939   8.673 -0.1704 -0.2936  0.2939
99289W        W  153   1.103  27.835   9.446  0.1569  0.2631 -0.0054
99290W        W  154  27.062  23.808   8.113 -0.0353 -0.1839  0.1007
99291W        W  155  27.224  25.155   9.651  0.1829 -0.0044  0.0615
99292W        W  156  27.270  21.459   9.788 -0.1751  0.3344 -0.2226
99293W        W  157  27.194  20.845   9.121 -0.0350  0.0501  0.3493
99294W        W  158  27.989  24.048  12.779  0.3655 -0.0910  0.2121
99295W        W  159  27.571  25.185  10.704  0.0180  0.1164 -0.3565
99296W        W  160  28.570  20.155   7.044 -0.0012  0.0811 -0.0304
99297W        W  161   1.539  23.885  11.225  0.0161  0.1558 -0.0690
99298W        W  162  26.414  21.714  10.223  0.0506 -0.2258 -0.0733
99299W        W  163  27.963  22.197  10.960  0.0936  0.1306 -0.2468
99300W        W  164  26.099  27.926  10.139 -0.0526  0.0083  0.0576
99301W        W  165  25.681  22.084   8.305  0.0989 -0.2503  0.2458
99302W        W  166   0.598  20.603   9.376  0.2927 -0.2865  0.1506
99303W        W  167  28.851  25.481   7.586 -0.0283  0.1396  0.1180
99304W        W  168  25.831  24.955  11.201 -0.0667  0.2909 -0.2146
99305W        W  169  27.193  23.610   5.688  0.1286  0.0944  0.0815
99306W        W  170   0.785  25.511   9.919 -0.0284  0.2563 -0.0908
99307W        W  171   1.774  22.291  11.564  0.1994  0.3226 -0.2398
99308W        W  172  28.374  24.065  11.852  0.0439  0.2595 -0.2051
99309W        W  173  27.395  24.730   8.035  0.3127 -0.1465 -0.5552
99310W        W  174  28.197  24.291  13.184 -0.2291 -0.2745 -0.1281
99311W        W  175  25.096  22.839   9.374 -0.3185  0.1048 -0.1197
99312W        W  176  28.069  21.621  10.863 -0.0733  0.0862 -0.1323
99313W        W  177  25.673  23.936  10.068 -0.3345 -0.1261 -0.0227
99314W        W  178  28.454  25.958   4.611  0.0887  0.0913  0.1136
99315W        W  179  26.976  22.799   8.209  0.0864  0.0037  0.0277
99316W        W  180  24.605  25.570   9.361  0.0681 -0.0382 -0.0976
99317W        W  181   0.080  21.120  11.167  0.3083  0.2084  0.1392
99318W        W  182  26.889  21.651   8.459  0.0468  0.2216  0.1831
99319W        W  183  28.803  21.658  12.035 -0.4546 -0.0569  0.2368
99320W        W  184  27.909  25.308  11.676  0.0576  0.1360  0.1639
99321W        W  185  23.872  21.338  10.451  0.1577  0.6126 -0.1520
99322W        W  186  26.004  23.082   9.057 -0.0398  0.3758  0.2141
99323W        W  187  27.907  22.972   7.889 -0.1885 -0.0094 -0.0454
99324W        W  188  26.892  25.154   8.693 -0.0736 -0.0673 -0.1073
99325W        W  189  29.145  24.651   8.685  0.0258  0.1404  0.0352
99326W        W  190  28.329  23.174   9.177 -0.0183  0.1934 -0.1298
99327W        W  191  27.682  19.421  10.368  0.1144 -0.1453  0.0563
99328W        W  192  26.070  23.971   7.803  0.5078  0.3592 -0.2149
99329W        W  193  26.200  22.046   8.113  0.0926  0.0960 -0.2140
99330W        W  194  28.715  24.805  11.825 -0.0202  0.3308  0.0475
99331W        W  195  28.933  25.860  11.465  0.0584  0.2595 -0.1422
99332W        W  196  26.707  27.359   9.831 -0.1429  0.0784 -0.0038
99333W        W  197  28.302  27.037  11.621 -0.4479  0.4598 -0.0437
99334W        W  198  26.849  22.066  10.278  0.0027 -0.2456  0.0084
99335W        W  199  27.813  26.176   9.647 -0.0686  0.1083 -0.3177
99336W        W  200  28.337  20.055   9.945  0.1697  0.0462  0.4005
99337W        W  201  27.723  25.979  11.471 -0.1989 -0.2549 -0.1599
99338W        W  202  25.236  23.049   9.780 -0.5501  0.2051  0.1059
99339W        W  203  27.494  24.705  10.598 -0.1134  0.0258  0.2720
99340W        W  204  28.159  24.108   9.347  0.0721  0.0556 -0.2200
99341W        W  205   1.973  25.973  11.083 -0.2282 -0.0897  0.1703
99342W        W  206  25.901  22.411  10.630  0.0162  0.0357  0.1132
99343W        W  207  27.139  24.306   7.392  0.2865  0.1282 -0.1006
99344W        W  208  27.424  21.397   8.392  0.1792 -0.1499  0.2552
99345W        W  209  26.902  28.252   5.970  0.1682 -0.1092  0.1972
99346W        W  210  26.196  21.835   6.708  0.1560  0.1008  0.1552
99347W        W  211  27.279  23.160   8.862  0.2322 -0.1960 -0.0874
99348W        W  212  24.622  21.712  12.376 -0.3677  0.1196  0.0810
99349W        W  213   0.322  24.712   9.693 -0.1422  0.1894 -0.2033
99350W        W  214   1.090  24.785  12.552  0.2148 -0.1444  0.1868
99351W        W  215   0.463  25.239   9.241  0.1435  0.0034 -0.1350
99352W        W  216  27.341  27.207  10.557  0.0436 -0.3423  0.0151
99353W        W  217  28.727  25.358   8.617  0.0446  0.0728 -0.1773
99354W        W  218  24.573  20.450   8.444 -0.0165  0.0380 -0.1080
99355W        W  219  28.078  25.646   8.628  0.1811  0.0836 -0.0859
99356W        W  220  25.489  23.869   9.149 -0.2204  0.2184 -0.0765
99357W        W  221  24.499  23.383  10.934 -0.2649 -0.3079 -0.2620
99358W        W  222  26.852  21.700   9.047 -0.0169  0.0773  0.1552
99359W        W  223  23.521  20.066   9.794 -0.2286 -0.1419  0.0967
99360W        W  224  25.836  25.233   8.140 -0.1837  0.1618  0.1541
99361W        W  225  28.356  20.761   5.577  0.2191  0.0827  0.0062
99362W        W  226  28.156  22.540   7.946 -0.1001 -0.3271 -0.1523
99363W        W  227  29.007  21.481  10.344 -0.2228 -0.0529  0.2560
99364W        W  228  27.390  24.492   8.952 -0.1611 -0.0214 -0.2057
99365W        W  229   1.285  25.538  12.544 -0.0879 -0.1909  0.0860
99366W        W  230   0.597  24.788  12.541  0.1115  0.2003  0.1943
99367W        W  231  27.903  21.810  10.407  0.0806  0.1575 -0.0315
99368W        W  232  25.450  21.236   9.426 -0.0980  0.1841 -0.0784
99369W        W  233  27.571  23.975   8.186  0.0862 -0.0985  0.2683
99370W        W  234  25.325  24.340  10.705  0.1078  0.0495 -0.5793
99371W        W  235   0.134  25.069  13.157 -0.1843 -0.0482  0.0190
99372W        W  236   0.337  25.625  10.204  0.0228 -0.3736 -0.0333
99373W        W  237  26.324  22.449   9.976 -0.3523  0.1651  0.0109
99374W        W  238  27.508  23.606   9.519 -0.0527  0.0926  0.1354
99375W        W  239  27.076  24.025   8.784 -0.1472  0.3689 -0.1155
99376W        W  240   0.415  22.950   9.444  0.0143  0.1266  0.1665
99377W        W  241  28.080  22.167   7.618  0.2111  0.1815  0.0786
99378W        W  242  28.988  24.629   8.048  0.1377 -0.1579 -0.0776
99379W        W  243  27.140  22.540   9.502  0.1515  0.1857 -0.1858
99380W        W  244  24.315  21.619  10.435  0.0346  0.0037 -0.1611
99381W        W  245  25.752  24.093   5.906  0.1438  0.2401 -0.0573
99382W        W  246  27.692  22.250  10.476  0.3586 -0.0933 -0.1468
99383W        W  247   0.017  26.242   5.773  0.0736 -0.0662  0.0712
99384W        W  248   0.651  26.197   8.242  0.0755 -0.0393 -0.1460
99385W        W  249   0.206  25.722   9.148  0.2761  0.0310 -0.2431
99386W        W  250  28.649  21.063   9.090 -0.1179  0.0099 -0.1969
99387W        W  251  26.778  20.929   7.612 -0.0296 -0.0489  0.0495
99388W        W  252  26.596  25.178  10.422 -0.2349 -0.1761 -0.1849
99389W        W  253  28.672  21.149  10.575  0.2936 -0.2762  0.2133
99390W        W  254  25.364  23.076   6.441 -0.0932 -0.1275 -0.2655
99391W        W  255  26.993  26.400   6.353 -0.2692 -0.1090  0.0513
99392W        W  256  27.155  24.437   9.400 -0.2189  0.0925  0.0977
99393W        W  257  25.901  22.583   8.266  0.0909 -0.1271 -0.4977
99394W        W  258  24.924  23.434   6.589  0.0323  0.0591  0.3582
99395W        W  259   0.124  25.493   8.595 -0.4333  0.1369 -0.1691
99396W        W  260  26.326  20.312  12.718 -0.0801 -0.0635  0.3432
99397W        W  261  28.248  24.468  10.097 -0.2434 -0.0144 -0.0692
99398W        W  262  25.666  21.618  10.878 -0.2282  0.0727  0.1491
99399W        W  263  28.251  18.744   7.530  0.0979 -0.1057  0.1117
99400W        W  264  25.248  19.303   9.196 -0.3582 -0.0678  0.0856
99401W        W  265  22.481  23.592   9.126  0.0829  0.0318  0.2586
99402W        W  266  28.754  19.920   9.071  0.0181 -0.0637 -0.2210
99403W        W  267  24.838  20.091   4.565  0.0465  0.0096 -0.1774
99404W        W  268  25.169  22.209   8.301 -0.0580  0.1136  0.0386
99405W        W  269   0.244  23.880   9.136  0.0820  0.0479  0.1530
99406W        W  270  27.161  22.761  10.990  0.2151 -0.0951 -0.2127
99407W        W  271  27.513  20.701   9.892  0.2845 -0.0417 -0.0420
99408W        W  272  26.516  24.264   7.080 -0.1920  0.1170 -0.2212
99409W        W  273  26.665  22.926  10.720  0.0213  0.3624 -0.0092
99410W        W  274  27.981  22.293   9.006  0.1068  0.1912  0.5201
99411W        W  275  26.669  25.637  10.270  0.2461 -0.1674 -0.1255
99412W        W  276  24.397  24.253  10.746 -0.1391  0.2062 -0.0764
99413W        W  277  26.168  22.762  10.391  0.0665 -0.1896  0.3439
99414W        W  278  25.790  23.412  10.960  0.1390 -0.3181 -0.3491
99415W        W  279  28.772  23.283   7.451 -0.0794  0.0854 -0.1999
99416W        W  280   0.671  22.112  11.473  0.2050 -0.0178  0.0051
99417W        W  281   0.226  24.219  10.993 -0.1068 -0.3119 -0.1428
99418W        W  282  28.848  24.507  10.963 -0.1839 -0.1385  0.3827
99419W        W  283  25.387  24.184   7.771  0.0331 -0.1586  0.4227
99420W        W  284  28.501  25.550   5.804 -0.0832  0.3777 -0.1280
99421W        W  285  26.879  24.028  12.027 -0.0608  0.3239  0.1710
99422W        W  286  25.639  24.961  11.790 -0.3587  0.1737 -0.0568
99423W        W  287  25.840  22.523  11.955 -0.0517 -0.4204  0.1287
99424W        W  288  27.246  22.233   9.005  0.2221 -0.1973 -0.2108
99425W        W  289  27.903  26.447  10.084 -0.0299 -0.2038 -0.0076
99426W        W  290  25.447  19.728   9.126 -0.1409 -0.1076  0.4250
99427W        W  291  29.039  26.460   8.689  0.2068 -0.1024 -0.1730
99428W        W  292  23.632  23.672  10.910  0.0639  0.1583 -0.0562
99429W        W  293  25.862  23.943  11.069 -0.1563 -0.2370  0.1547
99430W        W  294  27.862  22.425  11.368 -0.0394  0.3079 -0.0004
99431W        W  295   0.680  24.727   6.417 -0.2082  0.1771 -0.0518
99432W        W  296   1.864  25.403   9.752  0.2256 -0.0259  0.3444
99433W        W  297  25.978  19.844   9.746 -0.1471  0.0262  0.0397
99434W        W  298  27.278  25.545  10.923 -0.1674 -0.1966  0.3199
99435W        W  299  27.889  25.387  10.266 -0.1681  0.0215  0.0551
99436W        W  300   1.439  26.008  11.963  0.2664 -0.2426 -0.2312
99437W        W  301  24.292  23.070  10.609  0.0150  0.0697 -0.3210
99438W        W  302  26.858  27.372   6.905 -0.0130 -0.0826 -0.0787
99439W        W  303   3.161  22.929   9.474  0.2731 -0.2227 -0.0757
99440W        W  304  25.782  23.127  10.531 -0.0110  0.0227 -0.0105
99441W        W  305  28.777  24.325  11.741 -0.0362 -0.1387  0.2432
99442W        W  306  27.449  25.759   9.988  0.2475 -0.1178  0.0406
99443W        W  307  26.308  24.302   8.129  0.1209  0.0452  0.2025
99444W        W  308  27.474  24.175  10.660  0.1492  0.1490  0.1026
99445W        W  309  24.350  22.217   9.599 -0.0906 -0.2183  0.1606
99446W        W  310  26.076  21.900   9.928 -0.1486  0.1006  0.1068
99447W        W  311  25.520  21.756  10.106 -0.3067 -0.0208 -0.2511
99448W        W  312  25.823  22.786   8.697 -0.1371 -0.0828 -0.0544
99449W        W  313   1.206  25.208  11.288  0.1464  0.3505  0.1342
99450W        W  314  26.129  24.493  13.137  0.0407  0.0838 -0.1892
99451W        W  315  28.921  24.602   9.423 -0.2148  0.1287  0.2823
99452W        W  316  25.840  22.630   7.398 -0.1916 -0.1895 -0.0051
99453W        W  317  26.758  22.804   9.552  0.0047 -0.2006  0.0624
99454W        W  318  28.923  27.742  12.051 -0.0826 -0.0957  0.1128
99455W        W  319  27.502  28.073  10.911 -0.0002  0.1787  0.2414
99456W        W  320  28.491  25.969   9.824  0.3270  0.1232  0.2542
99457W        W  321  28.732  23.810   5.879  0.2386  0.1058  0.0720
99458W        W  322   0.338  25.144   9.978 -0.2660  0.0186  0.2652
99459W        W  323   0.022  22.069  11.506 -0.0425 -0.0492 -0.1557
99460W        W  324  27.300  21.667   9.294  0.0775  0.3661 -0.0662
99461W        W  325  28.526  28.013  10.817 -0.2671 -0.1233 -0.2226
99462W        W  326  25.474  22.901  10.231  0.0663  0.0960  0.3811
99463W        W  327  25.190  23.684   8.020  0.2105  0.0361 -0.1744
99464W        W  328  24.456  22.478   8.606 -0.0442 -0.0124  0.1362
99465W        W  329  27.026  24.269   9.899 -0.2249  0.0236 -0.1756
99466W        W  330  26.595  21.985   9.846  0.2242  0.1373  0.2763
99467W        W  331  28.278  26.154   9.408  0.3562 -0.2543 -0.0372
99468W        W  332  25.837  24.391   7.994 -0.1151  0.0948  0.1422
99469W        W  333  24.964  24.712   9.615 -0.1893  0.2114  0.0270
99470W        W  334   1.012  25.946   7.803 -0.0792 -0.1259  0.2830
99471W        W  335  24.960  24.142  11.094 -0.1675 -0.1291  0.0045
99472W        W  336  28.372  24.456   9.620  0.0671 -0.2728 -0.1472
99473W        W  337  28.737  24.935   8.977 -0.0100  0.2709  0.0880
99474W        W  338  28.388  23.563   7.494 -0.1094  0.3791  0.1803
99475W        W  339  27.414  24.411  10.162 -0.1012  0.2700  0.0124
99476W        W  340  25.077  23.412  10.106  0.1883  0.0485  0.0904
99477W        W  341  28.091  27.560   8.729  0.0399  0.0790  0.1254
99478W        W  342  27.939  22.431  10.111  0.1818 -0.2495  0.0977
99479W        W  343  23.285  20.168  11.269 -0.3063 -0.2267 -0.1469
99480W        W  344  24.630  24.782   8.536 -0.1824 -0.1505  0.0648
99481W        W  345  26.620  21.778   7.002  0.0176  0.2982 -0.0154
99482W        W  346  25.661  22.829  12.376  0.0456 -0.2947 -0.1667
99483W        W  347   0.037  23.028   9.771  0.1386 -0.1667  0.2278
99484W        W  348  28.001  21.082   7.139 -0.1632  0.0250  0.0469
99485W        W  349  27.962  23.718   8.385 -0.1686  0.0193 -0.3037
99486W        W  350  24.262  25.374   8.923 -0.1379  0.3261  0.2532
99487W        W  351   1.388  26.157   9.554 -0.1889  0.1321 -0.0791
99488W        W  352   0.454  24.086  12.427  0.2127  0.0494  0.3078
99489W        W  353  24.944  25.746   9.774  0.0644  0.0348  0.1260
99490W        W  354  27.675  24.176  11.433  0.0309  0.0118  0.3100
99491W        W  355  28.233  19.823   6.233 -0.1387  0.0957  0.0142
99492W        W  356  28.056  21.456   6.800 -0.0492 -0.2679 -0.0174
99493W        W  357  25.462  21.585   9.024 -0.0365 -0.1441  0.0038
99494W        W  358  27.876  21.654   6.355 -0.2074 -0.0488  0.0876
99495W        W  359  27.476  24.073   9.758  0.2701  0.0744  0.3120
99496W        W  360  29.088  22.508   7.922  0.2288  0.1166 -0.0938
99497W        W  361  26.499  23.835   7.400  0.0453  0.2320 -0.0249
99498W        W  362  28.799  23.323   8.908  0.1274 -0.2933 -0.0755
99499W        W  363  25.200  21.830   7.075 -0.2784  0.0413 -0.2125
99500W        W  364   0.457  26.168  11.126  0.2245  0.2000  0.3095
99501W        W  365  27.483  23.480  12.125  0.0319  0.0025 -0.2994
99502W        W  366  24.442  24.580   6.671  0.0275  0.1735 -0.1500
99503W        W  367  26.692  21.084   8.498  0.0544  0.3600 -0.0597
99504W        W  368  26.803  21.640   9.544 -0.2192 -0.0776  0.2193
99505W        W  369   1.450  25.082  12.325  0.0716 -0.1526  0.1229
99506W        W  370   0.974  26.313  11.161 -0.3099  0.2018 -0.0872
99507W        W  371  29.122  24.909  10.168 -0.1218  0.3358 -0.0173
99508W        W  372  25.801  25.378   7.615 -0.1274 -0.0882  0.1459
99509W        W  373  26.749  25.409  10.810 -0.0933  0.1399  0.0093
99510W        W  374  27.049  20.889   8.111  0.0636  0.3410  0.0294
99511W        W  375  27.989  19.638   6.920 -0.0209  0.0942 -0.4151
99512W        W  376  26.793  26.757   8.588  0.1592  0.0058 -0.0699
99513W        W  377  25.847  22.593   9.129 -0.1439 -0.0321  0.0699
99514W        W  378  26.558  24.392  10.153  0.4976  0.2131  0.3083
99515W        W  379   0.911  24.040  10.411  0.2370  0.0876  0.1997
99516W        W  380  26.574  23.765  10.402  0.1624 -0.1679 -0.0607
99517W        W  381  25.167  25.097   9.243 -0.1121 -0.1194 -0.0637
99518W        W  382  26.801  24.426   8.927 -0.0037 -0.0478  0.1378
99519W        W  383  28.274  25.146   8.427  0.3363 -0.2378 -0.0798
99520W        W  384   1.523  22.190   7.048  0.2814  0.2015  0.0396
99521W        W  385   1.957  25.740  10.549 -0.0497  0.0767  0.0422
99522W        W  386  27.473  20.827   8.473  0.0973 -0.1784 -0.0540
99523W        W  387  24.485  24.675   9.637  0.1362 -0.3535 -0.0942
99524W        W  388  28.672  24.195   5.011  0.1109 -0.0012 -0.2835
99525W        W  389  25.757  22.753  11.507  0.0031 -0.2758 -0.0075
99526W        W  390  27.362  23.590   9.069  0.1682  0.0619  0.1234
99527W        W  391  25.464  20.728   8.228  0.0433 -0.1038  0.0494
99528W        W  392  26.313  26.228  11.524 -0.2604  0.2496  0.2643
99529W        W  393  25.397  19.702   7.299  0.2393 -0.3605 -0.1805
99530W        W  394  27.191  22.841   9.943 -0.0167  0.0991  0.0015
99531W        W  395  24.989  23.600   7.054 -0.3022 -0.3527 -0.3762
99532W        W  396  26.096  25.789   9.647 -0.0012  0.0516  0.2542
99533W        W  397  25.250  21.168  10.756  0.4211 -0.0245  0.3562
99534W        W  398  27.936  23.656   9.265  0.0770  0.0299 -0.3981
99535W        W  399   0.890  27.761   9.919 -0.2607  0.0067 -0.0699
99536W        W  400  28.876  24.910  10.664 -0.0467 -0.0569 -0.1357
99537W        W  401   1.348  26.510  10.843  0.0852  0.1401 -0.0200
99538W        W  402  28.988  24.860  11.356  0.1782  0.4007  0.0961
99539W        W  403  24.164  26.541   8.699  0.1321  0.1654 -0.0873
99540W        W  404   0.512  27.171   7.855  0.0963  0.0052 -0.1066
99541W        W  405  25.195  24.559  10.246  0.0648 -0.0572  0.1023
99542W        W  406  27.962  20.927   8.576  0.0260 -0.3170 -0.0297
99543W        W  407  25.497  24.797   9.483 -0.1492 -0.0449  0.1828
99544W        W  408  25.846  22.517  10.064  0.0492  0.2682 -0.1378
99545W        W  409  27.003  20.377   9.211  0.1862 -0.0673 -0.0095
99546W        W  410  24.115  24.221   5.421  0.1177  0.2690 -0.3092
99547W        W  411  28.178  21.156   9.208 -0.0063 -0.0501  0.4496
99548W        W  412  24.979  24.631   8.154  0.0740  0.1067  0.0236
99549W        W  413  25.963  22.671   6.052 -0.1409  0.0489  0.1264
99550W        W  414  24.515  23.521  10.286 -0.0495 -0.0120 -0.3031
99551W        W  415  25.943  24.472   9.426  0.0860  0.0105  0.1298
99552W        W  416  27.354  23.913   6.092  0.1167 -0.2615 -0.1723
99553W        W  417  26.729  22.701  11.251 -0.1565  0.0125 -0.3093
99554W        W  418  29.011  24.217   9.044  0.1427 -0.2316 -0.1095
99555W        W  419  28.357  24.062  10.869  0.2009  0.2029  0.0879
99556W        W  420  27.826  24.517   9.656  0.0858  0.1051 -0.3445
99557W        W  421  25.738  22.122   7.789  0.2260 -0.1235  0.3074
99558W        W  422  28.309  18.599   9.052  0.1389  0.0392 -0.1495
99559W        W  423  27.836  26.031   8.482 -0.1974  0.0752  0.0153
99560W        W  424  25.242  23.329  11.628 -0.1759 -0.2324 -0.0382
99561W        W  425  26.248  22.622  11.509  0.0981 -0.1282  0.1194
99562W        W  426  26.558  24.116   3.934 -0.0122  0.1579 -0.2051
99563W        W  427  25.209  20.452   6.977 -0.1066 -0.1076  0.0675
99564W        W  428  26.229  24.331  13.672 -0.2395 -0.0130  0.1075
99565W        W  429  27.653  22.964  11.231  0.5595  0.0613  0.0312
99566W        W  430  27.513  19.866   7.452 -0.1583 -0.1156  0.0332
99567W        W  431  28.331  25.447  10.032  0.2942 -0.2429  0.0064
99568W        W  432  26.296  24.731  10.462 -0.0571 -0.0266  0.2151
99569W        W  433  27.129  27.660   9.812  0.0881 -0.1584  0.3258
99570W        W  434  28.792  26.342  10.581 -0.0020 -0.0102 -0.0113
99571W        W  435  27.615  19.923   6.935  0.2734  0.0092  0.1073
99572W        W  436  28.695  21.428   7.780  0.1489  0.4064  0.0143
99573W        W  437  24.663  23.684   8.982  0.2510  0.0045  0.0515
99574W        W  438   1.324  21.665   9.630 -0.1723  0.0815 -0.2478
99575W        W  439  26.968  24.338   6.804 -0.2354  0.1408 -0.3032
99576W        W  440   1.606  24.302  11.672 -0.0668 -0.0108 -0.2048
99577W        W  441  28.071  22.721  11.013 -0.1886  0.1548  0.1700
99578W        W  442  26.093  23.835  10.258  0.3410 -0.2683  0.0137
99579W        W  443  24.828  24.228  10.528 -0.1399 -0.2380  0.2612
99580W        W  444   0.556  28.396   9.111 -0.2776  0.4411  0.2347
99581W        W  445  27.695  24.348  12.296  0.0303  0.1686  0.0714
99582W        W  446  25.636  23.923  10.575  0.3693 -0.2702  0.1143
99583W        W  447  27.769  24.730  11.404 -0.0934 -0.2056  0.2835
99584W        W  448  25.751  23.181   9.541 -0.2981  0.0807  0.0496
99585W        W  449  27.119  23.911   9.397  0.1326 -0.0988  0.0175
99586W        W  450   0.703  25.723   9.401 -0.2011 -0.0772  0.1223
99587W        W  451  27.730  27.566  11.013 -0.2820 -0.1997 -0.2066
99588W        W  452  27.902  23.832   9.714 -0.2741  0.0473 -0.1301
99589W        W  453   2.073  28.316  11.020 -0.0964 -0.1185 -0.0090
99590W        W  454  26.219  24.512  10.990 -0.0105 -0.1539 -0.0179
99591W        W  455  27.015  22.674   8.987  0.1685  0.0050 -0.0030
99592W        W  456  26.588  25.705   9.390  0.1309  0.1366  0.2104
99593W        W  457  26.499  24.499  11.787 -0.0578  0.0319  0.2003
99594W        W  458  28.501  25.498   7.990 -0.1759  0.3828  0.1892
99595W        W  459  27.589  24.051   9.262 -0.0254 -0.1081 -0.0275
99596W        W  460  28.785  26.005  12.331 -0.0459  0.2920 -0.1586
99597W        W  461  26.405  23.815   9.499 -0.0490  0.1272  0.0819
99598W        W  462  29.046  25.482   8.048  0.2941  0.1075  0.2752
99599W        W  463  25.876  24.248   8.510 -0.1745 -0.0076  0.0916
99600W        W  464  25.869  25.801   7.874  0.2612 -0.2375  0.1777
99601W        W  465  28.978  25.945   8.875  0.2121 -0.1420 -0.2151
99602W        W  466  25.701  21.962   6.849  0.1826  0.2380 -0.2084
99603W        W  467  26.849  26.817  13.320  0.1646 -0.3401 -0.1770
99604W        W  468  27.356  23.093  14.595  0.0797  0.1209 -0.3293
99605W        W  469  26.990  26.404  11.591 -0.1306 -0.0526  0.1413
99606W        W  470   0.007  26.354  13.532  0.0441 -0.0899  0.1033
99607W        W  471  28.363  25.426   9.418  0.3390  0.3570 -0.1045
99608W        W  472  23.768  23.714  11.843  0.3632 -0.1346  0.1427
99609W        W  473  27.573  23.415  13.114  0.2203 -0.1517  0.2857
99610W        W  474  25.865  24.873  12.723  0.1043  0.1844  0.2815
99611W        W  475  25.919  24.176  14.371 -0.1808  0.1379  0.0039
99612W        W  476  24.846  23.450  13.333 -0.1518  0.0749  0.1680
99613W        W  477  26.023  22.253  13.136 -0.1492  0.1801 -0.1021
99614W        W  478  28.925  21.295  12.525  0.2905  0.0405  0.2063
99615W        W  479  28.679  23.481  13.549  0.0064  0.0059 -0.2775
99616W        W  480  27.759  22.920  14.308 -0.5319  0.1985 -0.1500
99617W        W  481  25.146  22.806  11.628 -0.1581 -0.1214  0.0498
99618W        W  482  22.144  26.504  14.819 -0.0669 -0.1572  0.1468
99619W        W  483  28.152  24.075   8.836 -0.1195  0.2167  0.2287
99620W        W  484  23.128  23.613  12.588 -0.3263 -0.1898  0.2850
99621W        W  485  26.256  22.612  13.952  0.0335  0.1724  0.0755
99622W        W  486  28.285  23.660  12.194 -0.1102 -0.3257 -0.0967
99623W        W  487   1.673  23.683  14.495 -0.2550  0.0594 -0.0754
99624W        W  488  25.854  23.991  13.095  0.1238  0.0195  0.0224
99625W        W  489  28.805  25.705  12.742  0.0243 -0.1859 -0.0571
99626W        W  490  26.070  24.951  15.559 -0.0144 -0.1710  0.2073
99627W        W  491  26.335  24.098  11.970  0.0164 -0.1049 -0.0681
99628W        W  492  26.067  23.399  12.336 -0.1834 -0.1344 -0.0339
99629W        W  493  27.986  23.827  13.395 -0.3851  0.3075  0.2671
99630W        W  494  24.046  24.268  11.171 -0.3847 -0.0955  0.0292
99631W        W  495  27.052  22.202  14.006 -0.1065 -0.2723  0.4715
99632W        W  496  26.654  24.395  13.880  0.1450 -0.0685 -0.3348
99633W        W  497  25.204  23.130  12.512  0.2228 -0.0502  0.2180
99634W        W  498  26.873  24.244  15.964  0.0750  0.0244  0.0291
99635W        W  499  26.254  21.496  14.818  0.2499  0.4458 -0.2130
99636W        W  500  24.118  24.497  14.082  0.0205  0.0428  0.3026
99637W        W  501  24.057  24.256  15.615  0.2601  0.1543 -0.3017
99638W        W  502  28.065  26.006  12.345  0.2750 -0.0824  0.3407
99639W        W  503  28.849  22.259  11.207 -0.0556  0.0103  0.1139
99640W        W  504  26.717  24.499  11.149 -0.1469 -0.2660 -0.0545
99641W        W  505   0.739  24.374  13.283  0.0725  0.1503  0.0528
99642W        W  506  27.641  22.431  12.881  0.0953 -0.2555 -0.1743
99643W        W  507  27.856  24.770  13.897  0.0125  0.1988 -0.1049
99644W        W  508   3.022  24.767  12.468 -0.3696 -0.2150  0.0774
99645W        W  509  26.048  24.577  11.928 -0.1287  0.1233 -0.0279
99646W        W  510  28.874  26.749  12.688  0.0685  0.1930 -0.2063
99647W        W  511  27.335  21.774   8.703 -0.3408  0.0511 -0.0078
99648W        W  512  27.710  24.968  12.585  0.2305 -0.0397 -0.0116
99649W        W  513  26.924  22.274  12.099 -0.0731  0.0260 -0.0995
99650W        W  514  28.486  23.872  13.308 -0.2729 -0.3407  0.0903
99651W        W  515  29.064  24.389  12.632  0.0140  0.0721  0.0733
99652W        W  516  28.415  22.387  11.863 -0.0959  0.2801 -0.0393
99653W        W  517  26.654  26.149  11.907 -0.1936 -0.2318  0.0915
99654W        W  518  24.399  20.949  12.786  0.2518 -0.0579 -0.2027
99655W        W  519  24.789  24.413  14.833 -0.0961  0.1257  0.0949
99656W        W  520   1.559  26.059  10.824  0.0563 -0.2651 -0.1284
99657W        W  521  25.844  21.305  12.841  0.0649  0.0409  0.1347
99658W        W  522  27.119  26.278  12.412 -0.2291  0.2018 -0.0262
99659W        W  523  23.849  26.277  10.997  0.1655  0.0284  0.0638
99660W        W  524  27.455  23.171  13.998  0.0162  0.2136  0.0600
99661W        W  525  28.047  24.414  11.832  0.1778  0.2720 -0.0847
99662W        W  526  27.649  24.258  13.175 -0.3097 -0.0122 -0.1129
99663W        W  527  26.311  23.104  13.105 -0.0282  0.1824 -0.0851
99664W        W  528  24.707  25.093  12.062 -0.1709 -0.1202  0.3564
99665W        W  529  27.610  26.167  14.148  0.2587 -0.0114 -0.1304
99666W        W  530  27.113  25.861  11.661 -0.2427 -0.0702  0.2239
99667W        W  531  25.459  22.635  13.914  0.1875 -0.0384  0.1952
99668W        W  532   0.225  21.517  12.652 -0.4981  0.0405  0.2916
99669W        W  533  26.654  23.633  11.850 -0.0452 -0.1630  0.0285
99670W        W  534  24.570  23.787  14.109 -0.1807  0.0063 -0.1676
99671W        W  535  26.116  26.415  13.048 -0.0912  0.1869  0.1166
99672W        W  536  28.831  22.748  12.066  0.1478  0.1179  0.0663
99673W        W  537   0.083  25.619  13.188 -0.3139  0.2592 -0.0728
99674W        W  538  26.750  22.666  10.321 -0.0994  0.0350 -0.0794
99675W        W  539  28.301  25.918  12.741 -0.0948 -0.0310 -0.0360
99676W        W  540  27.728  22.510  13.924 -0.2071  0.0314 -0.0051
99677W        W  541  27.512  26.434  11.542 -0.1599  0.2606  0.0444
99678W        W  542  28.313  26.693  14.398 -0.3398 -0.2653 -0.2889
99679W        W  543  24.867  25.421  12.835 -0.0467  0.0471  0.1926
99680W        W  544  26.874  26.359  12.862  0.0289  0.3868 -0.1423
99681W        W  545  24.934  21.768  12.782 -0.1147  0.1578 -0.0855
99682W        W  546  29.034  25.356  11.353  0.2414 -0.2044  0.1147
99683W        W  547  25.851  25.469  15.280 -0.1860 -0.1516  0.2081
99684W        W  548  24.642  22.811  14.082 -0.0966  0.0317  0.1208
99685W        W  549  24.994  25.100  12.449  0.2513  0.2138  0.1256
99686W        W  550  27.609  22.021  11.882 -0.0274  0.0782  0.0722
99687W        W  551  26.758  21.427  12.738 -0.4400  0.2578  0.1603
99688W        W  552  27.850  23.149  10.639  0.1199  0.1611  0.2356
99689W        W  553   0.554  25.691  12.987 -0.1613  0.2801  0.3244
99690W        W  554  28.186  22.385  13.707 -0.0366 -0.1230  0.2569
99691W        W  555  29.077  25.628  14.039 -0.2657 -0.0829  0.2747
99692W        W  556  26.712  21.264  14.604 -0.0321  0.0940  0.1889
99693W        W  557   1.835  21.390  10.259  0.0834 -0.0721  0.1303
99694W        W  558  28.729  21.964  14.850 -0.1963  0.3301 -0.0771
99695W        W  559  26.290  24.039  13.314  0.3097  0.1503  0.4248
99696W        W  560  26.905  24.533  10.615 -0.1154  0.0069 -0.0451
99697W        W  561  26.557  22.227  14.845  0.1918 -0.2037 -0.1904
99698W        W  562  26.731  24.696  14.289  0.2746  0.0389 -0.0386
99699W        W  563  28.287  22.349  15.048 -0.1561 -0.0639  0.1706
99700W        W  564  25.464  25.175  15.432 -0.0423 -0.2862 -0.0232
99701W        W  565  24.740  20.125  13.703 -0.1590  0.0747 -0.2496
99702W        W  566   3.018  24.659  11.431 -0.1257  0.1021 -0.1816
99703W        W  567   0.998  25.474  12.915 -0.2296  0.2075 -0.0863
99704W        W  568  25.709  23.297  11.776 -0.2233  0.3086 -0.0473
99705W        W  569   0.033  20.081  11.205  0.1058 -0.0335  0.1756
99706W        W  570   2.118  26.816  12.482  0.0916  0.1106  0.1432
99707W        W  571  28.512  24.006  12.503 -0.0380  0.0299 -0.1185
99708W        W  572  27.219  23.122  12.951  0.0839 -0.0190  0.0902
99709W        W  573  24.876  24.599  12.308  0.1513 -0.1064 -0.2265
99710W        W  574  27.542  25.335  13.150 -0.3394 -0.2293 -0.0494
99711W        W  575  27.640  20.909  12.091 -0.3098 -0.1905  0.2489
99712W        W  576  24.844  23.678  14.532  0.0599 -0.2866  0.2631
99713W        W  577  25.318  23.844  13.195 -0.0433 -0.0289  0.1778
99714W        W  578  27.492   1.049  11.737 -0.1223 -0.1723  0.0824
99715W        W  579  28.403  25.427  12.883  0.0840  0.2253 -0.2316
99716W        W  580  28.118  26.665  13.553 -0.0712  0.0562 -0.0881
99717W        W  581   0.382  27.079  11.758  0.0586 -0.1805 -0.1932
99718W        W  582  25.750  22.822  10.978 -0.0543  0.0395  0.0245
99719W        W  583  28.564  22.958  13.841 -0.0009 -0.0903 -0.1015
99720W        W  584  26.859  25.298  14.420 -0.2498 -0.0774 -0.4431
99721W        W  585  28.077  21.730  12.087  0.1207 -0.3612 -0.2768
99722W        W  586  26.595  22.184  13.351 -0.2124 -0.0385  0.2493
99723W        W  587  28.582  22.589  13.065 -0.0815 -0.0241  0.0373
99724W        W  588   0.239  28.203  11.155 -0.0597  0.1454 -0.0582
99725W        W  589  27.872  27.706  11.576  0.0000 -0.3883 -0.0985
99726W        W  590  26.503  25.588  14.518 -0.1776  0.3206 -0.1326
99727W        W  591  26.859  23.002  12.387 -0.2386 -0.1182  0.1490
99728W        W  592  28.631  25.041  11.058 -0.0085 -0.1972 -0.1422
99729W        W  593  25.734  21.261  14.009 -0.2116 -0.3210  0.0706
99730W        W  594  26.977  20.656  14.385 -0.0410 -0.2103  0.0014
99731W        W  595   0.301  24.566  12.994  0.0243  0.0515 -0.4169
99732W        W  596  27.409  24.575  12.597  0.0597 -0.1096  0.1736
99733W        W  597  27.769  26.045  16.803 -0.4090  0.0896  0.1054
99734W        W  598  27.661  21.510  11.157 -0.1891 -0.0912  0.2472
99735W        W  599  25.928  23.383  13.222 -0.2667  0.0967  0.0358
99736W        W  600  27.250  20.965  12.737 -0.3510 -0.0254 -0.1614
99737W        W  601  27.663  25.825  11.003 -0.3362 -0.3798  0.2238
99738W        W  602  23.652  24.504  11.394 -0.1007 -0.3132  0.2755
99739W        W  603  26.795  25.111  12.846 -0.1179  0.1082  0.1884
99740W        W  604   1.147  23.568  14.420 -0.2773 -0.1455 -0.1741
99741W        W  605  27.307  26.256  11.954  0.2394  0.2538  0.0211
99742W        W  606  24.436  22.532  10.453  0.1181  0.0624  0.2530
99743W        W  607  24.897  18.607  12.776  0.0981 -0.0003  0.0997
99744W        W  608  28.623  24.215  12.983 -0.0048 -0.1507  0.2813
99745W        W  609  25.454  24.543   8.458 -0.2801 -0.1062  0.0142
99746W        W  610  25.399  24.153  11.369  0.0693 -0.4374 -0.1529
99747W        W  611  26.668  22.462  12.530  0.0506  0.0283 -0.0235
99748W        W  612  26.412  23.456   9.913  0.4324  0.1275  0.2062
99749W        W  613  27.155  23.973  16.292  0.1546 -0.2742  0.1439
99750W        W  614  26.082  27.610  12.707 -0.2455 -0.0684  0.2133
99751W        W  615  27.525  27.756  12.720 -0.0354  0.4039  0.3560
99752W        W  616  27.297  24.989  12.898  0.1933 -0.0193  0.1341
99753W        W  617   1.362  23.196  13.409  0.3747 -0.4239 -0.1769
99754W        W  618  25.108  20.340   9.658 -0.1444  0.0348  0.3230
99755W        W  619  26.827  24.860  15.690  0.0770  0.1077  0.4761
99756W        W  620  26.987  24.948  11.905  0.0135  0.0900  0.1841
99757W        W  621  26.346  22.259  14.274 -0.2503 -0.0368  0.0001
99758W        W  622  28.435  21.508  12.490 -0.0335  0.1634 -0.4034
99759W        W  623  27.012  26.995  10.217 -0.3406  0.2145 -0.1720
99760W        W  624  28.637  26.524   9.517  0.0108  0.1555 -0.0408
99761W        W  625  26.228  23.236  10.904 -0.0872 -0.0328 -0.1012
99762W        W  626  27.191  23.824  13.074 -0.2063 -0.0043  0.3826
99763W        W  627  25.801  20.627  14.067  0.2113 -0.0846 -0.0069
99764W        W  628  24.972  23.807  15.580  0.1326  0.1431  0.1723
99765W        W  629  24.553  24.239  12.351  0.1120 -0.4316 -0.0799
99766W        W  630  26.398  23.014  13.674  0.0966  0.0139  0.3821
99767W        W  631  26.349  21.949  16.756 -0.1243 -0.2527  0.2629
99768W        W  632  24.561  22.244  12.595  0.1417 -0.1114 -0.0632
99769W        W  633  26.344  21.713  12.059  0.4902 -0.0860  0.0343
99770W        W  634  22.876  25.656  11.496 -0.1507  0.1349  0.0101
99771W        W  635  27.325  25.176  14.514  0.0993 -0.0885 -0.2211
99772W        W  636  26.772  24.117  13.026  0.1213  0.0659  0.1305
99773W        W  637  28.917  24.592  13.079 -0.1474  0.0391 -0.2412
99774W        W  638   0.938  23.914  12.650 -0.0124 -0.0182 -0.0363
99775W        W  639  25.242  24.233  13.444  0.1059  0.0546 -0.0926
99776W        W  640  26.579  24.202  12.436  0.3876 -0.3948 -0.2316
99777W        W  641  27.574  21.875  10.828 -0.1587 -0.2961  0.1356
99778W        W  642  27.896  23.041  13.160 -0.1413  0.0409  0.0531
99779W        W  643  25.994  26.444  14.334 -0.2525  0.2914  0.0631
99780W        W  644  23.830  24.838  14.396 -0.0532 -0.1387 -0.0780
99781W        W  645  25.007  25.363  10.641  0.3303 -0.1846 -0.0242
99782W        W  646  28.087  22.090  11.714 -0.4774 -0.1452 -0.0007
99783W        W  647  27.491  24.901  12.132 -0.3338 -0.3252  0.1791
99784W        W  648   1.718  25.947  12.893  0.2590 -0.3670  0.1760
99785W        W  649   0.750  24.082  11.646  0.3159  0.0478 -0.1081
99786W        W  650  26.097  23.954  12.394 -0.1026 -0.1174 -0.3795
99787W        W  651  28.942  23.791   8.677 -0.2899 -0.2067 -0.1449
99788W        W  652  25.854  22.913  14.166  0.4461 -0.3084  0.0993
99789W        W  653   1.266  22.356   9.726 -0.1029 -0.2247  0.0297
99790W        W  654  24.472  20.608  13.750  0.1035 -0.2004 -0.0889
99791W        W  655  26.443  25.200  12.401  0.1773  0.0605  0.5611
99792W        W  656  27.088  25.919  12.742 -0.0079 -0.1920  0.1123
99793W        W  657  26.428  25.216  11.244 -0.3647  0.0479  0.3737
99794W        W  658  27.000  25.767   9.766  0.0874  0.3269  0.1577
99795W        W  659  26.023  24.257  16.603  0.0156 -0.0242 -0.1987
99796W        W  660  28.652  21.794  14.359  0.0420  0.1759 -0.1908
99797W        W  661  25.223  23.586  13.722  0.0118 -0.2442 -0.2711
99798W        W  662  27.467  21.124  11.404 -0.1084 -0.0406 -0.0882
99799W        W  663  25.661  22.168  11.546  0.1585 -0.0383  0.2076
99800W        W  664  27.538  20.292  15.201 -0.0837 -0.0395 -0.3724
99801W        W  665  24.512  22.813  12.537  0.0111 -0.2829 -0.1158
99802W        W  666  28.982  20.686  15.537  0.0699 -0.0485 -0.1050
99803W        W  667  24.607  20.513  10.842  0.1100 -0.0638  0.0699
99804W        W  668  26.895  20.912  12.052 -0.2292 -0.1136 -0.0352
99805W        W  669   0.796  21.665  12.718  0.3310 -0.2430  0.0468
99806W        W  670  26.148  21.806  13.372  0.1042 -0.1381  0.0884
99807W        W  671  26.732  23.752  14.242 -0.3863 -0.1936  0.1639
99808W        W  672  24.730  23.658  11.816 -0.0468  0.3429 -0.2908
99809W        W  673  23.237  25.838  13.272 -0.2383 -0.1977  0.0497
99810W        W  674  25.593  24.731  14.360  0.0836  0.1851  0.0930
99811W        W  675   1.072  26.161  13.792 -0.1620 -0.0473  0.1156
99812W        W  676  25.955  24.290  10.457 -0.1609  0.4413 -0.1266
99813W        W  677  26.800  21.978  15.495 -0.1050 -0.1358 -0.0366
99814W        W  678  25.352  23.984  14.338  0.0276 -0.3232  0.1677
99815W        W  679  25.455  24.028  13.863 -0.0821 -0.0259 -0.2772
99816W        W  680   0.725  23.703  14.720  0.2195 -0.0971 -0.0132
99817W        W  681  27.402  23.457  12.625 -0.1812 -0.1549 -0.1169
99818W        W  682   1.290  24.776  11.631  0.1233  0.0844  0.1309
99819W        W  683  27.434  24.063  12.721  0.1094  0.0954 -0.1817
99820W        W  684   0.487  26.163  12.439  0.0785 -0.3310 -0.1518
99821W        W  685  28.857  23.409  15.783  0.2593  0.0953 -0.0100
99822W        W  686  24.978  22.574  13.865 -0.1424  0.1258  0.1853
99823W        W  687  26.122  23.757  11.460 -0.2144 -0.1810 -0.0203
99824W        W  688   0.521  22.360  12.420  0.0529  0.6375 -0.0353
99825W        W  689  25.305  21.940  15.481 -0.2583 -0.2281 -0.2523
99826W        W  690  26.729  21.956  12.482  0.2178 -0.3321 -0.1564
99827W        W  691  28.976  25.439  12.188  0.1807  0.3452 -0.1803
99828W        W  692  28.863  22.987  13.396 -0.2680  0.2607  0.1458
99829W        W  693  25.162  23.553  16.683  0.0344 -0.0482 -0.2112
99830W        W  694  28.118  20.533  14.970 -0.2215  0.3581 -0.1801
99831W        W  695   0.923  26.285  12.029  0.0054 -0.0971 -0.0071
99832W        W  696   0.516  25.202  12.806  0.1461 -0.2585  0.1122
99833W        W  697  24.792  22.103  14.273  0.1819 -0.0404 -0.0292
99834W        W  698  27.372  21.594  15.795 -0.0407 -0.0450 -0.1206
99835W        W  699   0.466  23.327   9.769 -0.1718  0.1642 -0.0267
99836W        W  700  26.771  23.273  13.274  0.1526  0.0394  0.0647
99837W        W  701  25.344  22.673  10.718  0.0757  0.1144 -0.1058
99838W        W  702  28.404  26.756  12.953 -0.1048 -0.2064  0.1119
99839W        W  703  28.747  22.953  12.499 -0.0315 -0.2828 -0.3327
99840W        W  704  28.012  19.624  13.247 -0.2368  0.0670 -0.2725
99841W        W  705  27.653  26.317  11.092 -0.1916 -0.0914  0.0773
99842W        W  706  27.621  24.475  11.042  0.1038  0.0804  0.0793
99843W        W  707  26.810  25.562  12.586  0.0700  0.1692 -0.0347
99844W        W  708  27.531  24.795  14.797  0.0817 -0.1064  0.1563
99845W        W  709  24.924  21.415  11.109  0.0559  0.0613  0.1466
99846W        W  710  26.460  20.655  12.235 -0.1644  0.0668  0.0320
99847W        W  711   0.190  25.327  13.685 -0.1042  0.1634 -0.0758
99848W        W  712  27.367  24.690   9.800 -0.0304 -0.2358  0.2365
99849W        W  713   1.101  24.419  10.756  0.0719 -0.4045 -0.0004
99850W        W  714  25.402  23.626  15.797 -0.2686 -0.2758  0.1855
99851W        W  715  28.608  28.217  11.254  0.1695  0.0807 -0.0646
99852W        W  716  27.326  22.985  12.225  0.0882  0.0426  0.0270
99853W        W  717  26.212  24.536  12.413 -0.1641 -0.1415 -0.2530
99854W        W  718  26.423  24.184  14.249 -0.2666 -0.2175 -0.0037
99855W        W  719  27.874  25.753  16.342  0.2995 -0.1707  0.0934
99856W        W  720  26.243  24.236  14.765 -0.0130  0.2971 -0.0999
99857W        W  721  26.693  23.872   9.925  0.1756 -0.1100 -0.1325
99858W        W  722  27.879  26.743  13.107 -0.0052  0.2064 -0.0557
99859W        W  723  26.517  21.602  11.336  0.0612 -0.1216  0.1345
99860W        W  724  24.509  23.627  13.021 -0.0800  0.1452  0.2126
99861W        W  725  27.530  28.721  10.604  0.1326  0.0261 -0.1522
99862W        W  726  27.375  25.411  12.628 -0.0776 -0.0243  0.0793
99863W        W  727  28.714  23.311  12.086  0.0616  0.1860 -0.1103
99864W        W  728  24.982  22.814  12.264 -0.1871  0.0137 -0.0021
99865W        W  729  27.699  26.501  14.637  0.1637  0.3155 -0.0653
99866W        W  730  26.270  24.088  12.809  0.1298  0.1224  0.0665
99867W        W  731  26.983  23.878  12.571  0.0031  0.0734  0.0760
99868W        W  732  27.129  25.720  13.589 -0.2045 -0.0477  0.0308
99869W        W  733  23.292  25.898  14.000 -0.1958  0.1796 -0.0404
99870W        W  734   0.027  25.892  10.524  0.0506 -0.0908 -0.0462
99871W        W  735  25.190  21.491  12.465 -0.1644  0.0434  0.0227
99872W        W  736   0.916  23.456   9.876 -0.0954 -0.0857  0.1317
99873W        W  737  27.452  24.473  11.780  0.1403  0.2730 -0.0856
99874W        W  738  26.150  23.675  14.886  0.0184  0.1729 -0.1395
99875W        W  739  27.013  23.476  12.279 -0.1220 -0.3758 -0.2714
99876W        W  740  24.875  25.022  13.493 -0.0363 -0.0628  0.0888
99877W        W  741  28.103  26.009  11.031  0.1442 -0.0204 -0.2386
99878W        W  742  24.157  22.740  14.772  0.3501  0.3377 -0.1903
99879W        W  743  26.330  21.841  17.294  0.2081  0.3478 -0.1043
99880W        W  744  23.930  22.383  13.673  0.0567 -0.0431 -0.0731
99881W        W  745  28.709  24.260   8.652  0.1049  0.1943  0.0789
99882W        W  746  23.551  24.019  13.329 -0.1490  0.1665 -0.0775
99883W        W  747  25.543  21.779  14.296 -0.3453  0.0411 -0.1999
99884W        W  748  26.989  24.704  10.140 -0.0406 -0.1189 -0.0020
99885W        W  749  27.424  21.635  12.723  0.4364  0.1355 -0.2866
99886W        W  750  26.494  26.757  12.931  0.1965  0.0842 -0.0305
99887W        W  751  27.436  25.552  11.472 -0.3212 -0.0313 -0.0076
99888W        W  752   1.060  23.765  11.309  0.0755 -0.1109 -0.0023
99889W        W  753  27.019  26.847  12.821 -0.0316 -0.2176 -0.1310
99890W        W  754  27.014  20.480  12.559 -0.0196 -0.1624 -0.1168
99891W        W  755   0.214  20.157  13.197 -0.0137  0.2383  0.0260
99892W        W  756  27.884  26.876  11.532 -0.2090  0.2151 -0.3970
99893W        W  757  25.582  25.716  12.466  0.0791 -0.0691 -0.0714
99894W        W  758  27.393  24.001  12.127  0.0713  0.1334 -0.1938
99895W        W  759   0.292  24.092  15.370 -0.1938  0.0852  0.0936
99896W        W  760  26.497  22.981  10.063 -0.0179  0.1263  0.0754
99897W        W  761  28.681  22.707  11.158 -0.0291  0.4141 -0.1895
99898W        W  762  28.116  23.219  11.410 -0.1265  0.2907 -0.0584
99899W        W  763  26.850  22.359  12.955 -0.1594 -0.1256 -0.3256
99900W        W  764  27.731  27.105  13.384  0.0314 -0.0962  0.0355
99901W        W  765  29.145  22.765  13.779 -0.1710 -0.0266 -0.1193
99902W        W  766  25.166  22.282  10.886  0.0331 -0.0706  0.0599
99903W        W  767  26.440  25.100  11.882 -0.1121 -0.2335 -0.0284
99904W        W  768  23.567  22.256  14.682 -0.0456  0.0055  0.1781
99905W        W  769  28.433  26.141  12.014  0.1436 -0.2147 -0.0248
99906W        W  770   0.191  21.612  12.075  0.1556 -0.3803  0.1343
99907W        W  771  27.449  23.799  11.132  0.1608 -0.1121 -0.1843
99908W        W  772  26.527  24.904  15.312 -0.1118  0.3922 -0.2409
99909W        W  773  27.297  24.515  15.705 -0.0137  0.0351 -0.0922
99910W        W  774  29.057  22.538  10.744  0.0498 -0.0460 -0.2391
99911W        W  775  27.254  21.035  10.980 -0.1487 -0.3009  0.3119
99912W        W  776  23.951  24.886  10.258  0.2256  0.3205 -0.1208
99913W        W  777  25.661  23.701  11.469  0.3015 -0.2101  0.2622
99914W        W  778  25.496  23.192  15.516 -0.2361  0.1678 -0.2374
99915W        W  779  28.650  23.184  11.605  0.2060  0.0261  0.0053
99916W        W  780  28.363  27.034  13.385 -0.2035 -0.0326  0.1595
99917W        W  781  26.432  25.248  14.944 -0.2027 -0.3131  0.2882
99918W        W  782  25.558  25.632  13.264  0.1724 -0.0002 -0.1383
99919W        W  783  26.676  24.890  10.855 -0.0290 -0.0803  0.1451
99920W        W  784  27.190  24.181  11.315 -0.3101  0.2141  0.2275
99921W        W  785  27.003  25.146  15.186 -0.2289  0.2196  0.1499
99922W        W  786  25.179  24.673  15.130 -0.0206 -0.1215  0.1654
99923W        W  787  25.834  25.208  13.035 -0.1499  0.0275 -0.0788
99924W        W  788   0.601  25.819  11.994 -0.1564  0.1266  0.0431
99925W        W  789  26.669  24.276  15.094 -0.2871 -0.3411  0.2068
99926W        W  790  25.797  24.279  12.671  0.0172  0.0176  0.0212
99927W        W  791  24.592  23.275  12.180  0.0374  0.1508  0.1591
99928W        W  792  26.830  26.632  14.630 -0.3477 -0.1407  0.1804
99929W        W  793  27.011  22.303  11.236  0.0740 -0.0750  0.3028
99930W        W  794  23.544  24.748  13.998 -0.0093  0.0001 -0.1763
99931W        W  795  25.229  20.576  11.422 -0.2847 -0.1166 -0.0424
99932W        W  796  26.038  24.843  13.566 -0.2032  0.2019 -0.1778
99933W        W  797  26.006  22.071  15.099  0.2798 -0.0817  0.1415
99934W        W  798  28.786  23.566  11.283 -0.3184  0.0368  0.1407
99935W        W  799  27.137  24.665  13.678  0.0869 -0.1265  0.1617
99936W        W  800   0.033  23.589  12.262 -0.0153 -0.1172 -0.0638
99937W        W  801  28.721  23.577  14.004  0.3275 -0.2000 -0.1099
99938W        W  802  27.927  24.352  14.131  0.0768  0.0938 -0.1752
99939W        W  803  27.615  27.123  14.387  0.4177 -0.2014 -0.3917
99940W        W  804   1.095  25.677  12.118  0.0977 -0.3145  0.1329
99941W        W  805  24.228  24.664  13.017  0.0079 -0.1313 -0.4823
99942W        W  806  24.473  20.954  13.402  0.0467  0.2105 -0.0840
99943W        W  807   1.701  25.154  11.578  0.2580  0.0851  0.0265
99944W        W  808  27.997  21.223  11.375 -0.1424 -0.2605  0.1880
99945W        W  809  26.534  23.006  11.634 -0.0882 -0.1832 -0.1812
99946W        W  810  25.284  25.176   9.711 -0.0716 -0.1811  0.3591
99947W        W  811  28.509  25.774  13.927  0.0019 -0.1289 -0.0211
99948W        W  812  24.780  23.381  13.821 -0.2998 -0.0947  0.0273
99949W        W  813  25.429  25.432  10.867 -0.3213 -0.0832 -0.1040
99950W        W  814  26.910  23.161  11.243 -0.0367 -0.1476 -0.2343
99951W        W  815  27.884  24.574  12.834 -0.0602 -0.4088  0.0329
99952W        W  816  24.475  22.647  13.005 -0.2334  0.0879 -0.3535
99953W        W  817  28.343  24.254  14.814  0.1690  0.2317  0.1182
99954W        W  818  27.130  23.628   9.815  0.2549 -0.4501 -0.3923
99955W        W  819  28.573  28.020  11.674  0.0279  0.1079  0.2664
99956W        W  820  25.969  23.921  13.935  0.0791  0.0097  0.0000
99957W        W  821  26.976  23.706  11.298  0.1726 -0.0576  0.2932
99958W        W  822  27.218  22.377  10.462  0.0944 -0.1498  0.0532
99959W        W  823  26.344  25.720  12.517  0.0743 -0.0905 -0.2029
99960W        W  824  27.526  22.571  14.654 -0.0694 -0.3240 -0.4715
99961W        W  825  25.589  23.622  17.697  0.2100  0.1271  0.1715
99962W        W  826  25.195  22.119  14.652 -0.0222  0.0056 -0.0659
99963W        W  827  25.105  24.878  13.878  0.2025  0.0866 -0.3311
99964W        W  828  27.455  24.456  13.970  0.0560  0.1462 -0.0081
99965W        W  829  25.463  24.114  15.578 -0.1624 -0.0332 -0.1550
99966W        W  830  28.287  22.776  11.553  0.1165  0.2427  0.1640
99967W        W  831  27.202  27.245  14.125 -0.0190  0.0808  0.2410
99968W        W  832  28.130  25.565  13.738 -0.0406  0.0633  0.1385
99969W        W  833  26.625  23.870  13.744  0.2179 -0.1538  0.2023
99970W        W  834  28.483  25.136  12.159  0.0770  0.0688  0.0223
99971W        W  835  28.550  21.372  10.057  0.4345  0.0139 -0.0677
99972W        W  836  27.893  23.950  11.916  0.0497 -0.0146 -0.2057
99973W        W  837  25.783  22.155  12.348 -0.0071  0.1290 -0.0209
99974W        W  838  27.377  22.408  12.124 -0.1828 -0.0681  0.1315
99975W        W  839  27.790  26.381  12.270  0.0778  0.2787 -0.0775
99976W        W  840  27.257  22.644  13.135  0.0273  0.3220 -0.0504
99977W        W  841  28.752  26.490  11.565  0.3065  0.1251 -0.2107
99978W        W  842  27.283  21.780  14.096 -0.0127  0.1739  0.0305
99979W        W  843  25.849  21.816  11.900 -0.2509 -0.0300 -0.2407
99980W        W  844  27.255  24.517  14.484  0.1657  0.0748  0.0680
99981W        W  845  25.519  23.220  13.851 -0.0250 -0.4856  0.3941
99982W        W  846  27.501  22.093  13.750  0.3348  0.4550 -0.0794
99983W        W  847  25.671  23.544  14.217  0.3511  0.1109  0.0727
99984W        W  848  25.013  25.592  12.417  0.3159 -0.1109 -0.0767
99985W        W  849  26.961  25.554  14.867 -0.0359 -0.1822 -0.2333
99986W        W  850  25.921  25.794  12.916 -0.1106 -0.2916 -0.0901
99987W        W  851  27.266  25.932  14.995  0.1488 -0.0202  0.2725
99988W        W  852  26.345  23.531  13.421 -0.3832  0.0236  0.1066
99989W        W  853  26.024  25.038  12.211 -0.1844  0.0210 -0.1523
99990W        W  854  29.018  23.484  11.759  0.0214  0.0482 -0.1710
99991W        W  855  24.076  28.615  10.949 -0.1105  0.2207  0.0807
99992W        W  856  29.078  27.380  16.849 -0.3198  0.1257 -0.1250
99993W        W  857  25.979  21.218  14.409  0.0983 -0.2093 -0.3096
99994W        W  858  26.229  24.787  11.483  0.0762  0.0182 -0.0218
99995W        W  859  26.607  24.434  13.372 -0.2858 -0.1378 -0.1856
99996W        W  860  26.699  26.543  12.437 -0.0479 -0.1136  0.0951
99997W        W  861  28.764  23.815  12.052  0.0458  0.0100 -0.3437
99998W        W  862  24.079  24.039  14.850 -0.3324  0.1128 -0.1768
99999W        W  863  28.468  25.544  12.390 -0.1597 -0.1432 -0.0017
    0W        W  864  25.872  22.844  13.645  0.1517 -0.0196 -0.4111
    1W        W  865  26.652  24.044  11.533 -0.0826  0.0460  0.2184
    2W        W  866  25.676  23.934   8.173 -0.0997  0.0485 -0.0369
    3W        W  867  26.119  24.788  18.674 -0.0201 -0.1462  0.1051
    4W        W  868  28.132  25.368  17.510  0.1775 -0.0288  0.1283
    5W        W  869   1.520  25.617  16.368  0.0529  0.0368  0.1547
    6W        W  870   2.049  27.622  20.154 -0.0418 -0.3202  0.0374
    7W        W  871  28.132  24.010  17.173 -0.0702  0.0060 -0.1474
    8W        W  872  26.030  22.294  17.118 -0.1781 -0.0130 -0.1227
    9W        W  873  24.808  24.643  14.293 -0.1278  0.1244  0.0880
   10W        W  874  24.933  23.673  15.057 -0.1271 -0.0017  0.1296
   11W        W  875  26.161  23.710  17.107 -0.2454 -0.0361 -0.4034
   12W        W  876  25.429  24.510  16.607 -0.2759 -0.5009  0.1690
   13W        W  877  23.501  20.950  17.468  0.3155 -0.1631  0.2192
   14W        W  878  26.975  24.577  15.317 -0.0087  0.0273 -0.1496
   15W        W  879  24.760  21.835  15.425  0.0131 -0.1654  0.0292
   16W        W  880  28.847  23.292  19.108 -0.2404  0.1304  0.1429
   17W        W  881  26.031  21.932  19.814  0.1120  0.2626 -0.2921
   18W        W  882  26.982  23.274  16.725 -0.1135  0.1596  0.4615
   19W        W  883  28.315  25.380  14.178 -0.1884 -0.0888 -0.2315
   20W        W  884  24.696  23.257  18.059  0.0954 -0.0399 -0.2971
   21W        W  885  27.360  22.606  17.667  0.0345 -0.3458  0.3231
   22W        W  886   0.930  23.172  16.716  0.1036 -0.1507 -0.0045
   23W        W  887  26.097  23.462  19.876  0.0465  0.0213 -0.1238
   24W        W  888  23.821  25.592  16.944  0.1472  0.4530  0.0173
   25W        W  889  26.315  26.339  17.271 -0.1153 -0.2671  0.3630
   26W        W  890  27.909  22.567  18.285 -0.1145 -0.0583  0.0670
   27W        W  891  26.627  23.534  17.043 -0.0720 -0.3513 -0.0249
   28W        W  892  24.237  25.849  15.441  0.0802  0.0891 -0.0129
   29W        W  893  26.636  26.014  17.708 -0.2571  0.2542  0.3398
   30W        W  894  25.075  27.182  15.860  0.0849  0.1213 -0.3007
   31W        W  895  28.933  25.245  15.663 -0.3211  0.1721  0.0532
   32W        W  896  27.570  22.292  15.482  0.2038  0.3317  0.3250
   33W        W  897  25.876  24.172  17.105  0.0495 -0.0978 -0.3172
   34W        W  898  26.816  24.216  18.257  0.0710  0.1979 -0.2097
   35W        W  899  25.590  22.795  19.297 -0.1302  0.1107  0.1973
   36W        W  900  28.066  23.776  19.100  0.1178  0.1438  0.2552
   37W        W  901  25.476  23.120  14.434 -0.0256 -0.3919 -0.1478
   38W        W  902  28.421  26.595  18.774 -0.0353  0.2807  0.0690
   39W        W  903  28.018  20.640  13.298 -0.0072 -0.2814 -0.3359
   40W        W  904  27.219  23.371  18.042 -0.1381 -0.1333 -0.1120
   41W        W  905  27.805  25.471  14.668 -0.4639 -0.1202  0.0883
   42W        W  906  27.214  22.207  18.622  0.2876  0.0374 -0.1252
   43W        W  907  29.112  22.819  12.962  0.1702 -0.2776  0.4340
   44W        W  908   1.352  22.964  20.723 -0.0313 -0.2199 -0.1386
   45W        W  909   0.967  24.589  19.416  0.1142 -0.0856 -0.0254
   46W        W  910  27.750  23.286  14.830 -0.1946 -0.2468 -0.0078
   47W        W  911  26.900  24.857  13.227  0.0211 -0.2595 -0.2709
   48W        W  912  22.128  25.479  14.937 -0.1975 -0.0760 -0.0338
   49W        W  913  23.658  23.874  14.512  0.0522  0.0489  0.0360
   50W        W  914  28.977  22.559  18.010  0.1831  0.2672 -0.1438
   51W        W  915  27.487  22.948  15.097 -0.4154  0.0651  0.1016
   52W        W  916  29.105  22.421  13.243  0.1127  0.0100  0.1806
   53W        W  917   0.537  24.710  17.209  0.0009 -0.1113 -0.0922
   54W        W  918   0.551  22.504  17.174  0.0809  0.1531  0.1763
   55W        W  919  26.986  26.408  15.584 -0.1613 -0.1295  0.3397
   56W        W  920  26.216  23.066  14.830  0.0374  0.0157 -0.3195
   57W        W  921  24.143  21.017  16.383  0.1109  0.0419 -0.1498
   58W        W  922  26.034  23.781  16.600  0.0342  0.1079 -0.4187
   59W        W  923  24.342  20.339  15.543 -0.2877  0.0028  0.0061
   60W        W  924  27.134  20.894  16.365  0.1604 -0.1957 -0.1869
   61W        W  925  25.434  25.786  15.398 -0.0497 -0.0847  0.0737
   62W        W  926  28.720  25.179  14.037 -0.0382 -0.0359 -0.2213
   63W        W  927  26.162  23.458  13.910 -0.0880 -0.1363  0.0231
   64W        W  928  25.665  24.902  18.114  0.0087 -0.1456 -0.1403
   65W        W  929  26.913  24.069  18.962  0.0830 -0.0216  0.2800
   66W        W  930  26.995  22.906  13.816  0.1390 -0.0437  0.0576
   67W        W  931  26.424  20.106  15.644  0.1226 -0.0502 -0.0992
   68W        W  932   0.135  20.402  18.723 -0.1019  0.2428 -0.1409
   69W        W  933  26.099  20.326  16.254 -0.1010 -0.2083 -0.0921
   70W        W  934  23.069  23.707  15.886  0.1202  0.2583  0.1181
   71W        W  935  25.490  25.393  14.921 -0.0749 -0.0616  0.0511
   72W        W  936  26.766  22.781  15.855  0.2116 -0.1928  0.0799
   73W        W  937  29.020  25.724  16.686  0.5889 -0.1216  0.1389
   74W        W  938   1.260  23.115  12.938  0.0938 -0.2680  0.1458
   75W        W  939  26.722  25.151  16.103  0.0658  0.2809 -0.0770
   76W        W  940   0.670  22.455  19.585  0.0419  0.0599  0.0040
   77W        W  941   2.818  27.236  15.882  0.1226 -0.0044  0.1259
   78W        W  942  26.513  23.686  17.589  0.0954 -0.0835 -0.1917
   79W        W  943  25.331  23.576  14.701  0.2536 -0.1343  0.2956
   80W        W  944  24.113  22.819  13.300  0.0217 -0.0866 -0.0108
   81W        W  945  27.350  22.689  14.211 -0.0292 -0.0574 -0.1543
   82W        W  946  28.126  22.880  16.484 -0.4238 -0.0669  0.0343
   83W        W  947  26.236  23.588  16.048  0.0057 -0.3287 -0.0385
   84W        W  948  24.467  24.453  17.537  0.1681  0.0872  0.4069
   85W        W  949  26.284  22.675  15.716  0.0535 -0.4595  0.3560
   86W        W  950  26.614  21.570  18.249 -0.0480 -0.1910 -0.2764
   87W        W  951  28.566  23.045  19.937 -0.0703 -0.0531  0.3322
   88W        W  952   0.955  23.373  12.598  0.0332 -0.3129 -0.0850
   89W        W  953  27.961  27.625  18.914  0.1558  0.1976  0.2004
   90W        W  954  27.587  23.385  21.110 -0.0166 -0.0306 -0.0660
   91W        W  955   0.045  22.774  19.252 -0.0254  0.1287 -0.1851
   92W        W  956  28.802  22.768  16.068 -0.1466 -0.0133 -0.0210
   93W        W  957  25.424  22.562  17.611  0.1247 -0.3041 -0.0670
   94W        W  958  27.895  24.693  21.563  0.0284 -0.1479  0.1956
   95W        W  959  26.877  25.076  16.550 -0.0370 -0.0781 -0.0058
   96W        W  960  26.473  21.832  15.139 -0.2940  0.2599 -0.1148
   97W        W  961  25.942  23.430  18.618  0.3055  0.2332  0.1431
   98W        W  962  28.311  22.936  15.223 -0.0572  0.0125 -0.0264
   99W        W  963  29.043  23.195  14.715  0.3597  0.1661  0.0888
  100W        W  964  26.055  27.018  17.912 -0.1697  0.3481 -0.1718
  101W        W  965  24.955  20.945  14.506  0.1311  0.2951 -0.1125
  102W        W  966  28.655  21.940  16.792  0.0855  0.3792 -0.1608
  103W        W  967  26.731  24.017  17.244 -0.0346 -0.0110  0.2449
  104W        W  968  26.393  24.983  16.886 -0.0230 -0.1867  0.0709
  105W        W  969  26.962  23.156  14.284 -0.0742  0.1599  0.1233
  106W        W  970   0.152  27.471  15.074 -0.1866  0.0939  0.2418
  107W        W  971  27.514  20.865  18.405 -0.2774  0.1175 -0.2842
  108W        W  972  28.533  22.580  16.962 -0.2352 -0.2333 -0.2691
  109W        W  973  28.877  24.909  18.315 -0.1491 -0.0894  0.1832
  110W        W  974  28.669  23.993  19.792  0.1530  0.2119 -0.0472
  111W        W  975  24.301  25.087  14.151  0.1456 -0.2910  0.2676
  112W        W  976  25.715  25.930  15.934  0.0998 -0.1919  0.1646
  113W        W  977  24.782  23.009  16.782 -0.0147 -0.0897 -0.0969
  114W        W  978  26.593  24.965  13.890  0.0289 -0.0386  0.0853
  115W        W  979  28.029  24.223  21.313 -0.1452  0.2361 -0.2501
  116W        W  980  28.115  26.248  18.010  0.1264 -0.0237 -0.4150
  117W        W  981  28.367  23.488  15.752 -0.2743 -0.2056  0.2440
  118W        W  982  24.543  23.048  13.564 -0.1217 -0.0883  0.1873
  119W        W  983   1.064  19.824  19.836 -0.0526 -0.0227  0.0348
  120W        W  984  27.977  20.164  17.559 -0.0606  0.0899  0.0554
  121W        W  985  26.924  25.370  15.666 -0.0285 -0.2945 -0.0849
  122W        W  986  27.473  21.695  16.356  0.0125 -0.0397 -0.0031
  123W        W  987  27.608  25.576  13.596  0.2375 -0.1278  0.2544
  124W        W  988  28.880  27.127  16.425 -0.2367 -0.0172 -0.2045
  125W        W  989  27.720  23.464  14.346  0.3593  0.0452 -0.1650
  126W        W  990   1.861  23.170  19.223 -0.1995  0.2520 -0.0718
  127W        W  991  27.322  26.601  14.122 -0.2964 -0.2272  0.0773
  128W        W  992  27.817  23.972  20.511  0.1708  0.1692  0.0018
  129W        W  993  25.126  25.393  13.784 -0.3802 -0.2452 -0.0046
  130W        W  994  28.121  23.867  18.041 -0.0079 -0.5576  0.2161
  131W        W  995   1.193  25.904  17.135 -0.0880 -0.5780 -0.1895
  132W        W  996  26.874  25.831  15.840 -0.0525 -0.1541  0.0703
  133W        W  997  28.754  25.763  18.642  0.2620 -0.1172 -0.1684
  134W        W  998  27.066  21.381  18.411  0.0965 -0.0576 -0.3705
  135W        W  999  26.455  25.489  18.392  0.0932  0.1268 -0.0958
  136W        W 1000  25.907  22.752  13.136 -0.2047 -0.0387  0.2016
  137W        W 1001   1.996  24.819  17.194 -0.2098 -0.1838  0.1858
  138W        W 1002  27.535  24.478  16.702 -0.0444 -0.1434  0.0276
  139W        W 1003   0.819  22.708  15.004 -0.0432 -0.0339  0.1197
  140W        W 1004  28.646  21.762  16.199  0.1036 -0.0690  0.0116
  141W        W 1005  27.926  24.494  14.608  0.1797 -0.1782 -0.1099
  142W        W 1006  26.810  24.280  16.468  0.0622  0.0343  0.0549
  143W        W 1007  24.507  25.314  13.745  0.1582 -0.1994  0.1478
  144W        W 1008  28.401  20.810  18.781  0.0414 -0.1145  0.2217
  145W        W 1009  26.274  27.379  14.090  0.3467 -0.1098 -0.1603
  146W        W 1010  28.485  25.439  15.860  0.0207 -0.0774  0.0680
  147W        W 1011  27.552  23.396  20.587  0.0189  0.1485  0.2245
  148W        W 1012  27.914  23.028  18.498 -0.1527 -0.0040 -0.2439
  149W        W 1013  24.876  19.536  13.665  0.1630  0.0145  0.0572
  150W        W 1014   1.360  25.533  17.411  0.2907  0.0438 -0.0124
  151W        W 1015  25.030  24.777  17.524 -0.0651  0.0208  0.3093
  152W        W 1016  28.261  25.174  16.776  0.0662  0.1294 -0.2742
  153W        W 1017  27.018  24.979  19.041 -0.3037 -0.2382 -0.2401
  154W        W 1018  25.287  21.361  13.622 -0.1478  0.2895  0.0204
  155W        W 1019  24.113  26.176  17.098 -0.0356 -0.0090  0.0576
  156W        W 1020  25.068  23.043  13.578 -0.0263  0.0472 -0.2360
  157W        W 1021  25.877  21.944  17.528 -0.1686 -0.0359  0.2371
  158W        W 1022  28.737  24.925  16.437 -0.0686 -0.0690  0.0564
  159W        W 1023  28.546  23.251  18.573 -0.2986  0.0325  0.1444
  160W        W 1024  28.118  26.251  14.066 -0.0939  0.1150 -0.2217
  161W        W 1025  27.726  21.507  17.712 -0.0588  0.1673  0.1292
  162W        W 1026  26.886  24.833  17.099  0.1145  0.2055  0.1577
  163W        W 1027  27.155  22.201  15.693  0.1112 -0.0501  0.2808
  164W        W 1028  27.523  23.460  18.539  0.1505  0.0935 -0.0407
  165W        W 1029  28.742  23.634  17.550 -0.0042  0.3398 -0.0678
  166W        W 1030  28.540  23.691  18.876  0.0531 -0.2771 -0.3336
  167W        W 1031   0.833  21.477  20.396 -0.1122 -0.1365  0.0712
  168W        W 1032  25.142  22.585  16.655 -0.2345 -0.3606 -0.0395
  169W        W 1033  26.474  22.868  15.255 -0.0007 -0.1413  0.0226
  170W        W 1034  25.036  22.591  16.182 -0.1232 -0.0627 -0.2459
  171W        W 1035  27.005  23.525  20.446  0.0784  0.1873  0.0762
  172W        W 1036  25.821  23.329  15.823  0.0550 -0.1384  0.1561
  173W        W 1037  29.141  23.985  17.348  0.0145  0.1428 -0.1314
  174W        W 1038  27.252  25.146  17.802  0.2341 -0.3123  0.0022
  175W        W 1039  26.006  25.578  15.792  0.2383  0.0471 -0.0954
  176W        W 1040   0.692  27.970  13.327  0.5279  0.2083 -0.0868
  177W        W 1041  27.401  23.668  19.735  0.1820  0.0121 -0.0041
  178W        W 1042  28.863  26.856  14.581  0.0023  0.2765 -0.4369
  179W        W 1043  26.031  24.945  17.764 -0.3431 -0.0730  0.0273
  180W        W 1044  26.455  23.995  16.800  0.1658  0.1142  0.3256
  181W        W 1045  24.271  26.964  18.813  0.0268  0.4692  0.1084
  182W        W 1046  26.263  25.927  16.574  0.0480  0.0318 -0.1963
  183W        W 1047  24.642  25.832  15.108 -0.0657 -0.0203 -0.0249
  184W        W 1048   0.627  24.411  15.245 -0.0382  0.0138  0.0178
  185W        W 1049  27.731  25.764  15.287  0.0700 -0.2098 -0.0661
  186W        W 1050  28.173  22.860  12.756  0.4809  0.1164 -0.0165
  187W        W 1051   0.148  25.547  14.758  0.1473  0.0807 -0.0029
  188W        W 1052  27.961  24.738  18.875  0.2841  0.1182  0.1164
  189W        W 1053   0.742  25.572  16.996  0.0209 -0.0634  0.4241
  190W        W 1054  24.272  23.492  11.862  0.0152  0.1468  0.3099
  191W        W 1055  28.280  23.702  16.237 -0.0840  0.1095  0.0933
  192W        W 1056  26.913  23.509  16.262  0.1520 -0.1384  0.0720
  193W        W 1057  25.872  23.746  11.960 -0.2499 -0.0177  0.1895
  194W        W 1058  25.504  24.918  14.850  0.1212 -0.0322  0.1082
  195W        W 1059  24.983  23.590  19.265 -0.1833  0.0246  0.0994
  196W        W 1060  26.824  22.769  18.620  0.0454 -0.0117  0.1980
  197W        W 1061  28.665  22.198  15.907  0.1190  0.2156  0.1436
  198W        W 1062  25.408  21.767  17.178 -0.1590  0.1079  0.0420
  199W        W 1063  26.971  22.420  16.115 -0.2542 -0.0838  0.3762
  200W        W 1064  26.822  23.707  15.294  0.2149 -0.1522 -0.1845
  201W        W 1065  26.503  19.804  15.276  0.0423  0.0500 -0.0352
  202W        W 1066   1.389  22.221  17.524  0.1576 -0.1773  0.1150
  203W        W 1067  26.741  22.961  12.850 -0.3189 -0.3872  0.1752
  204W        W 1068   0.807  22.408  15.985 -0.1602 -0.2932  0.1127
  205W        W 1069   0.134  22.895  15.920 -0.0106  0.0800 -0.1900
  206W        W 1070  27.705  21.975  16.666 -0.0361 -0.0821 -0.0873
  207W        W 1071  27.966  22.608  16.971 -0.0542 -0.2240 -0.2088
  208W        W 1072  26.225  23.749  18.924 -0.1045 -0.0661 -0.1276
  209W        W 1073  24.678  23.385  16.491 -0.1242  0.0701  0.2173
  210W        W 1074  27.387  20.133  16.475 -0.0668  0.0261 -0.2129
  211W        W 1075  28.930  25.055  14.461 -0.0366  0.3127 -0.1522
  212W        W 1076  25.848  22.481  12.715  0.1967 -0.1334  0.1168
  213W        W 1077  25.090  22.259  17.312  0.1276 -0.2728 -0.1330
  214W        W 1078  27.719  23.979  19.386  0.0586 -0.0600 -0.0564
  215W        W 1079  26.560  23.325  15.089  0.1407 -0.0206  0.4956
  216W        W 1080  27.080  22.856  15.433  0.0981 -0.0023 -0.0485
  217W        W 1081   0.017  23.065  17.737  0.4407  0.0995  0.1391
  218W        W 1082  28.930  24.768  15.602  0.5036  0.1162 -0.1043
  219W        W 1083  28.284  22.881  14.279 -0.2475  0.1934  0.2075
  220W        W 1084   0.015  24.843  16.165 -0.0988 -0.0370  0.2226
  221W        W 1085  27.153  22.032  19.068  0.1998 -0.0600 -0.0660
  222W        W 1086  27.047  25.961  20.534  0.0391  0.2867 -0.0232
  223W        W 1087   1.143  21.797  17.451 -0.1278  0.2278  0.2028
  224W        W 1088  26.034  22.826  18.380  0.0993 -0.5167 -0.1278
  225W        W 1089  26.802  24.082  19.558  0.1902 -0.4536  0.2392
  226W        W 1090  28.383  23.100  10.985 -0.2788  0.2720 -0.0081
  227W        W 1091  27.100  24.004  14.696 -0.0568 -0.1060  0.2895
  228W        W 1092  26.024  21.492  17.801  0.2011  0.2383 -0.0365
  229W        W 1093  24.674  23.724  19.693  0.1421 -0.0132  0.3058
  230W        W 1094  28.456  23.455  18.052 -0.2881 -0.1695 -0.1212
  231W        W 1095  27.263  27.171  13.206 -0.1351 -0.1374  0.0262
  232W        W 1096  29.112  24.481  18.070  0.1652  0.0704 -0.2134
  233W        W 1097  25.757  21.875  21.044 -0.0213  0.0636  0.0603
  234W        W 1098  28.239  24.342  18.323  0.0985 -0.0170 -0.1028
  235W        W 1099  27.793  23.746  12.398 -0.2067 -0.2472 -0.3835
  236W        W 1100   1.673  26.004  16.704 -0.0987 -0.0208  0.1648
  237W        W 1101  26.886  23.158  19.269 -0.1261 -0.0093 -0.0288
  238W        W 1102  26.197  24.517  19.169  0.1301  0.0208  0.1773
  239W        W 1103  27.437  22.551  15.971 -0.2369 -0.1684 -0.1294
  240W        W 1104  27.461  21.668  18.695 -0.0981 -0.1217 -0.0519
  241W        W 1105  26.955  24.708  16.156 -0.2196  0.0410 -0.0071
  242W        W 1106  28.118  23.636  17.627  0.1821  0.1811 -0.2111
  243W        W 1107  28.268  23.330  13.786  0.0306  0.3051  0.0752
  244W        W 1108  26.180  25.338  19.916 -0.1276  0.3033  0.1583
  245W        W 1109  26.721  22.428  15.312 -0.1277  0.2482  0.1581
  246W        W 1110  26.030  24.217  18.732  0.2074 -0.1066  0.0144
  247W        W 1111  28.061  23.803  18.544  0.0733 -0.1242  0.0536
  248W        W 1112  27.364  26.022  18.172 -0.1643  0.1547 -0.0690
  249W        W 1113  27.532  22.916  18.078  0.0511 -0.0419 -0.0307
  250W        W 1114  26.832  22.353  20.012 -0.0265  0.0153 -0.0374
  251W        W 1115  28.161  26.202  16.540  0.1272  0.2257 -0.1393
  252W        W 1116  25.268  22.747  15.360  0.1514 -0.0724  0.0519
  253W        W 1117  25.319  23.048  16.918  0.2538  0.0706 -0.2495
  254W        W 1118  27.506  23.917  18.904 -0.0274  0.0829  0.0733
  255W        W 1119   0.272  27.645  18.702 -0.1649 -0.1653 -0.1502
  256W        W 1120  27.028  22.784  18.198 -0.0454  0.0322 -0.0737
  257W        W 1121  24.150  21.491  14.135 -0.3284  0.0373  0.0153
  258W        W 1122  28.292  25.041  13.777  0.1624  0.1066  0.1141
  259W        W 1123  27.517  22.015  15.981  0.0506 -0.2268 -0.1772
  260W        W 1124  28.053  20.875  18.402 -0.0668  0.2434  0.2611
  261W        W 1125  27.460  25.144  13.749  0.2114  0.2052  0.0226
  262W        W 1126  28.576  22.115  17.828 -0.2296 -0.0879 -0.0507
  263W        W 1127  25.777  21.273  14.958 -0.1938 -0.1508 -0.0019
  264W        W 1128  27.255  21.861  18.297 -0.1550 -0.2310 -0.0638
  265W        W 1129  28.123  22.150  17.033  0.0718 -0.0512 -0.2243
  266W        W 1130  28.799  20.984  20.814  0.1035  0.1328  0.2690
  267W        W 1131  26.784  25.863  16.383  0.0200  0.0206  0.0429
  268W        W 1132  26.291  26.120  18.137  0.0343 -0.1257 -0.0894
  269W        W 1133  27.245  23.558  14.335 -0.1709  0.0460  0.0650
  270W        W 1134  25.161  23.491  14.183  0.3751  0.0083 -0.2350
  271W        W 1135  27.413  21.204  18.805  0.1138  0.0838  0.0698
  272W        W 1136  28.664  22.272  16.429 -0.0168 -0.2017 -0.1663
  273W        W 1137  27.423  25.791  14.555 -0.1189  0.2109  0.0859
  274W        W 1138  28.353  23.842  20.553 -0.2266  0.1096 -0.1434
  275W        W 1139  28.635  21.673  17.374 -0.4176 -0.1847  0.0688
  276W        W 1140  26.596  24.511  16.863 -0.0882  0.0586  0.0159
  277W        W 1141   0.396  24.747  16.655  0.1318 -0.3700  0.0976
  278W        W 1142   0.383  23.242  18.601 -0.1782 -0.2277 -0.1187
  279W        W 1143  26.754  22.957  20.085 -0.0614  0.1043 -0.0478
  280W        W 1144  25.949  22.411  15.902 -0.1819  0.2429  0.0600
  281W        W 1145  25.739  24.482  13.968 -0.2100 -0.0951 -0.0633
  282W        W 1146  24.039  27.419  17.066  0.1035 -0.1043 -0.0564
  283W        W 1147  26.047  22.889  16.132 -0.1563  0.2301  0.2283
  284W        W 1148  25.011  23.208  14.545  0.2273 -0.3099  0.0790
  285W        W 1149  26.598  22.732  12.048 -0.0319  0.2790  0.2725
  286W        W 1150  26.848  23.763  18.124 -0.3790 -0.1581  0.2649
  287W        W 1151  26.117  22.469  16.551 -0.1503 -0.0634 -0.1947
  288W        W 1152  27.755  24.095  19.975 -0.2707  0.1706 -0.0547
  289W        W 1153   0.622  24.450  16.268  0.2696 -0.1907 -0.1223
  290W        W 1154  28.446  25.116  19.191 -0.0412 -0.1253 -0.0122
  291W        W 1155  28.972  22.262  13.932 -0.1422  0.0935 -0.0962
  292W        W 1156   1.176  24.332  16.475 -0.1231 -0.0673  0.4023
  293W        W 1157  27.334  24.308  15.011  0.2853  0.2129  0.0064
  294W        W 1158  27.012  24.154  14.187 -0.0562 -0.0854  0.1124
  295W        W 1159  27.225  24.295  19.676  0.0419 -0.0495 -0.0533
  296W        W 1160  26.295  20.674  15.488 -0.0084 -0.2182 -0.1610
  297W        W 1161  26.456  24.726  14.794 -0.0975  0.0832  0.0765
  298W        W 1162  28.377  23.377  16.595 -0.0131  0.0832 -0.0461
  299W        W 1163  27.901  22.604  18.777  0.2291 -0.0121  0.2352
  300W        W 1164  28.091  26.370  15.983 -0.0126  0.1021 -0.0429
  301W        W 1165  27.566  23.034  16.650 -0.0130  0.2184  0.1708
  302W        W 1166  25.186  27.138  14.187  0.2179  0.2196 -0.3972
  303W        W 1167  26.234  24.640  14.051  0.1531 -0.3388 -0.1469
  304W        W 1168  26.668  20.056  19.698  0.3427 -0.2946  0.1044
  305W        W 1169  26.704  26.916  20.655  0.0138 -0.1342 -0.0595
  306W        W 1170  28.270  23.032  16.931 -0.1379 -0.0790 -0.2738
  307W        W 1171  26.325  22.914  16.532 -0.0640  0.2120 -0.0468
  308W        W 1172  28.576  24.067  18.149  0.3885 -0.1295  0.0238
  309W        W 1173  25.716  24.722  19.061  0.1233  0.0286  0.2776
  310W        W 1174  26.704  20.152  13.009 -0.3195  0.2058 -0.0531
  311W        W 1175  27.973  21.772  18.604  0.0033  0.1018  0.0564
  312W        W 1176  24.848  24.594  19.517 -0.2454 -0.4038 -0.0275
  313W        W 1177  25.862  22.355  14.121  0.1996 -0.4906  0.3250
  314W        W 1178  27.302  21.198  17.225 -0.1393  0.1244 -0.1809
  315W        W 1179  25.940  22.212  14.584 -0.3769  0.3226 -0.1160
  316W        W 1180  27.378  22.751  17.184 -0.1458 -0.0400 -0.1371
  317W        W 1181  25.465  26.483  19.696  0.2101  0.1020 -0.1193
  318W        W 1182  28.360  23.382  19.252 -0.0535  0.1863  0.1759
  319W        W 1183  24.943  23.974  13.843  0.0058  0.0568  0.4212
  320W        W 1184  28.855  23.727  19.408 -0.1002  0.3574 -0.0110
  321W        W 1185   0.081  23.606  17.771  0.0747  0.1971 -0.1820
  322W        W 1186  25.807  22.072  16.387  0.2127 -0.2672 -0.0833
  323W        W 1187  26.857  25.802  18.253 -0.0473  0.1496 -0.1125
  324W        W 1188   0.186  24.314  14.006 -0.2242 -0.1381  0.0755
  325W        W 1189  27.314  24.395  16.253  0.0281  0.1696 -0.1430
  326W        W 1190  26.374  21.864  17.840 -0.3370  0.2697  0.0546
  327W        W 1191  27.773  22.623  12.397  0.4495  0.1050  0.2704
  328W        W 1192  25.253  27.134  18.350 -0.1428 -0.1335  0.0686
  329W        W 1193  27.965  19.266  16.636  0.2510  0.1251 -0.2278
  330W        W 1194  25.440  26.858  15.968  0.1960  0.4491  0.2513
  331W        W 1195  25.925  23.030  15.322 -0.0258 -0.0218 -0.0160
  332W        W 1196  24.891  24.472  16.566  0.0014 -0.0024  0.2371
  333W        W 1197  26.630  22.144  18.852  0.1606  0.3073  0.2060
  334W        W 1198  28.173  21.535  14.413 -0.2195 -0.4546  0.3209
  335W        W 1199  27.869  23.517  15.842 -0.1323 -0.1169  0.0277
  336W        W 1200  28.053  23.389  18.840  0.1342 -0.0369  0.2343
  337W        W 1201  27.455  24.484  17.682 -0.0555  0.1068  0.0066
  338W        W 1202  25.850  25.686  17.459  0.0192 -0.0362 -0.4467
  339W        W 1203  26.071  21.838  14.303  0.0626 -0.2008 -0.0838
  340W        W 1204  27.503  23.018  15.637 -0.2526  0.1961  0.2571
  341W        W 1205  26.748  20.884  14.977 -0.2128 -0.0402  0.2553
  342W        W 1206  26.804  22.565  14.273 -0.0056 -0.3600 -0.1796
  343W        W 1207  26.637  21.805  14.501  0.3614  0.0998  0.2241
  344W        W 1208  27.666  23.223  19.746  0.1561  0.0653 -0.0196
  345W        W 1209  27.506  23.249  17.617 -0.2270 -0.0124 -0.0018
  346W        W 1210  25.546  27.383  13.850  0.0498  0.1984  0.2933
  347W        W 1211   0.124  22.977  16.401 -0.2325  0.1585  0.2298
  348W        W 1212  24.574  24.964  17.650 -0.1150  0.4526 -0.0039
  349W        W 1213  25.269  23.287  17.375 -0.3895  0.0609  0.0680
  350W        W 1214  23.899  21.961  17.712  0.1181  0.0592 -0.0402
  351W        W 1215  28.064  25.030  14.494 -0.3270  0.3751 -0.1170
  352W        W 1216  25.849  22.065  15.585 -0.1585  0.2790 -0.1071
  353W        W 1217  28.215  21.844  20.790 -0.1075 -0.2894 -0.1495
  354W        W 1218  29.083  23.731  13.491  0.0465 -0.1862  0.0719
  355W        W 1219  27.795  26.790  15.277  0.2867  0.1221  0.1646
  356W        W 1220  28.481  23.477  19.704  0.4588 -0.1946  0.1977
  357W        W 1221  28.554  26.269  15.772 -0.0523  0.0828 -0.0616
  358W        W 1222  28.508  21.406  14.041  0.0274  0.1096  0.1761
  359W        W 1223  26.768  26.662  16.442  0.1634 -0.1869  0.0478
  360W        W 1224  28.773  22.635  20.164  0.0058  0.4042  0.1873
  361W        W 1225  24.972  23.081  19.337  0.1496  0.2387 -0.1161
  362W        W 1226  26.928  21.936  17.971  0.5134  0.1632 -0.2048
  363W        W 1227  27.617  22.233  17.330  0.1297 -0.2631  0.0875
  364W        W 1228   0.971  23.142  19.265 -0.1633  0.1288 -0.2034
  365W        W 1229  26.497  23.142  16.067 -0.0726 -0.0109 -0.0223
  366W        W 1230  28.518  23.196  12.919  0.4525 -0.0062  0.2347
  367W        W 1231  25.042  24.702  17.007  0.2333 -0.1376 -0.1820
  368W        W 1232  27.114  26.141  19.115 -0.0580 -0.1242 -0.1076
  369W        W 1233  27.922  25.090  15.074 -0.0174  0.0829  0.0547
  370W        W 1234  27.231  22.138  16.402  0.4781 -0.2445  0.0939
  371W        W 1235  22.210  22.978  15.181 -0.0289 -0.0526  0.0105
  372W        W 1236  27.932  23.376  16.343 -0.1934  0.3349 -0.0619
  373W        W 1237  27.069  26.489  13.588 -0.1057  0.1766 -0.2142
  374W        W 1238  28.315  23.424  15.254 -0.0573 -0.1063  0.1401
  375W        W 1239  28.754  22.499  13.541  0.1198  0.1396 -0.1022
  376W        W 1240  28.081  21.970  21.364  0.2090  0.0092 -0.1943
  377W        W 1241   1.281  25.024  15.513  0.2404  0.2033  0.1005
  378W        W 1242  27.096  23.206  18.535  0.1070 -0.1024 -0.1568
  379W        W 1243  26.480  22.590  16.168 -0.0504 -0.2816  0.0962
  380W        W 1244   2.447  24.315  17.736 -0.0193 -0.0383 -0.1906
  381W        W 1245  29.143  22.553  16.570  0.0700  0.3578  0.0341
  382W        W 1246  27.406  23.727  16.730  0.0925 -0.1548 -0.1572
  383W        W 1247  28.089  23.004  17.903 -0.0801  0.1306 -0.0979
  384W        W 1248  23.630  25.536  14.304 -0.3973  0.0308  0.0721
  385W        W 1249  24.030  27.465  17.975 -0.1833  0.4816 -0.3070
  386W        W 1250   1.322  23.500  15.413 -0.0292  0.1622 -0.3776
  387W        W 1251   0.747  27.930  17.087  0.3544 -0.0660  0.1153
  388W        W 1252  27.143  23.748  18.519 -0.3592 -0.0897  0.0548
  389W        W 1253  28.481  25.806  16.543  0.0431  0.0162 -0.1749
  390W        W 1254  27.411  23.078  19.361  0.4277  0.3636  0.0392
  391W        W 1255  26.510  24.724  16.384 -0.1159  0.1369 -0.2270
  392W        W 1256  27.082  22.237  17.232  0.2044 -0.2103  0.3399
  393W        W 1257  27.259  21.750  16.788  0.1876 -0.2896  0.2682
  394W        W 1258  27.976  23.982  14.466  0.1326 -0.1992  0.0140
  395W        W 1259  27.449  23.463  16.159  0.2429  0.4489  0.1349
  396W        W 1260  27.308  24.335  18.671  0.1882  0.1425  0.1461
  397W        W 1261  23.884  25.280  19.018  0.1104  0.1792 -0.1159
  398W        W 1262  27.790  22.757  17.509  0.1663  0.0048  0.1958
  399W        W 1263  25.688  26.382  18.432  0.1673 -0.0712 -0.0828
  400W        W 1264  26.176  22.439  19.858 -0.2954 -0.0083  0.0117
  401W        W 1265  27.507  23.712  14.993  0.1076  0.0693  0.3643
  402W        W 1266  25.180  24.396  14.051 -0.0421  0.0620 -0.0266
  403W        W 1267  27.877  24.783  19.363  0.0909  0.0582 -0.0172
  404W        W 1268  28.559  27.277  26.692  0.0975 -0.0287  0.1741
  405W        W 1269  26.668  22.658  21.463 -0.0691 -0.1978  0.2971
  406W        W 1270   0.030  24.074  19.441 -0.3023 -0.1177  0.5065
  407W        W 1271  28.554  26.928  22.418 -0.0809  0.0922 -0.1673
  408W        W 1272  26.583  22.719  21.968 -0.1995  0.3843 -0.0623
  409W        W 1273  26.916  19.691  19.984 -0.0581 -0.0619  0.0203
  410W        W 1274  28.004  23.586  19.570 -0.0203  0.2941  0.2669
  411W        W 1275  26.998  24.620  21.289 -0.1414 -0.0964  0.0929
  412W        W 1276  25.963  21.389  21.847 -0.1945  0.2043 -0.2428
  413W        W 1277  26.553  20.134  21.231 -0.0721  0.3318  0.2183
  414W        W 1278  26.575  24.015  21.271  0.0882 -0.0017  0.1314
  415W        W 1279  28.191  24.036  19.659  0.0122  0.1568  0.0472
  416W        W 1280   2.737  23.478  20.841 -0.2217  0.0533  0.1152
  417W        W 1281  23.128  21.995  19.083  0.0659  0.0359 -0.2686
  418W        W 1282  27.375  26.825  22.833 -0.1332 -0.2131  0.2328
  419W        W 1283  27.344  24.386  21.018 -0.2331  0.0534 -0.1704
  420W        W 1284  23.892  25.080  19.985 -0.2654 -0.1431 -0.2927
  421W        W 1285  26.750  22.122  22.822  0.0790 -0.0692  0.1366
  422W        W 1286   1.691  19.871  20.259  0.1985 -0.1610 -0.0553
  423W        W 1287   0.183  26.551  20.562  0.0924 -0.0110  0.2583
  424W        W 1288  26.666  23.445  21.191 -0.1771  0.1673  0.1173
  425W        W 1289   0.583  26.911  21.885  0.2681  0.1710  0.5850
  426W        W 1290  27.070  24.936  20.889 -0.1693  0.0306  0.1318
  427W        W 1291  25.900  22.915  20.847 -0.0113 -0.0118 -0.5203
  428W        W 1292  27.754  26.162  21.133  0.0757 -0.1644 -0.1277
  429W        W 1293   0.665  24.724  20.928 -0.3103  0.0480 -0.1705
  430W        W 1294  26.260  23.505  22.547  0.0109 -0.3901 -0.3788
  431W        W 1295  27.036  24.157  21.373 -0.0380 -0.0407 -0.0421
  432W        W 1296  28.497  23.457  22.151 -0.0938  0.1822 -0.1193
  433W        W 1297  25.382  23.843  22.963 -0.0603 -0.5842 -0.0422
  434W        W 1298  25.816  23.910  21.645 -0.2073 -0.0161  0.2078
  435W        W 1299  25.515  21.139  21.815 -0.0085  0.3423  0.0833
  436W        W 1300  26.280  24.495  22.036 -0.1354 -0.1576 -0.1833
  437W        W 1301  23.334  25.026  24.363  0.0098  0.3472  0.3826
  438W        W 1302  28.687  24.747  21.271 -0.0062 -0.1854 -0.0434
  439W        W 1303  26.359  21.252  18.760 -0.0010 -0.1641 -0.0076
  440W        W 1304  26.586  24.241  19.956 -0.1431  0.1221  0.0426
  441W        W 1305   0.152  25.806  23.122  0.3850  0.0523 -0.2109
  442W        W 1306  27.991  22.977  21.771  0.2586  0.1424  0.2556
  443W        W 1307  28.933  19.942  15.195  0.0592  0.2253  0.1744
  444W        W 1308   0.428  24.635  21.844 -0.3957 -0.0271  0.0218
  445W        W 1309  26.238  27.193  20.465  0.2223 -0.3146 -0.2524
  446W        W 1310  28.917  24.023  17.804 -0.0003 -0.0279 -0.3415
  447W        W 1311  27.404  25.568  19.838 -0.0170  0.2620 -0.0047
  448W        W 1312  27.637  26.645  19.771 -0.1443 -0.3877  0.0319
  449W        W 1313  26.126  22.769  22.336  0.3608  0.0299  0.1778
  450W        W 1314   1.110  22.711  20.234 -0.1607  0.1869 -0.2151
  451W        W 1315   0.672  21.837  19.561 -0.1301 -0.1922 -0.1201
  452W        W 1316  29.089  22.200  20.357 -0.3172  0.3139  0.0375
  453W        W 1317  28.430  23.857  21.065  0.0207 -0.2630 -0.1218
  454W        W 1318  28.079  23.235  20.018 -0.0433 -0.0603  0.2834
  455W        W 1319  27.641  28.644  19.780 -0.0579 -0.1666 -0.2197
  456W        W 1320   1.544  23.559  20.010 -0.2363 -0.1948  0.0299
  457W        W 1321  26.907  22.007  19.602  0.1525  0.1114 -0.1355
  458W        W 1322  27.293  24.795  21.737 -0.0252  0.0327 -0.3204
  459W        W 1323  23.816  21.045  20.155  0.0143  0.0166 -0.1860
  460W        W 1324   1.667  24.778  19.883 -0.1187 -0.0995 -0.2050
  461W        W 1325  27.212  25.151  19.907 -0.0033  0.3105  0.1683
  462W        W 1326  27.104  22.974  19.745 -0.1956 -0.0886  0.2049
  463W        W 1327   1.229  24.516  20.877 -0.1617  0.0961  0.2788
  464W        W 1328  27.507  24.405  19.103  0.2741  0.2073 -0.1032
  465W        W 1329  26.746  23.175  22.227  0.0264  0.0832 -0.1316
  466W        W 1330  27.331  22.194  19.915 -0.2855 -0.2650 -0.0860
  467W        W 1331  26.526  23.359  20.205  0.0195 -0.0600 -0.1737
  468W        W 1332  29.082  20.417  19.634  0.0467 -0.3074 -0.0964
  469W        W 1333  25.639  23.701  18.139 -0.0456  0.1380 -0.1874
  470W        W 1334  24.551  19.705  17.581  0.1825  0.1239 -0.1233
  471W        W 1335  27.661  24.622  19.856 -0.2560  0.0829  0.0243
  472W        W 1336  26.908  23.048  22.809 -0.3046  0.0205  0.1112
  473W        W 1337   0.089  26.633  22.802 -0.0944  0.2195  0.1548
  474W        W 1338  27.943  23.836  20.991 -0.0079  0.1535 -0.0303
  475W        W 1339   0.631  24.832  18.506 -0.1697 -0.0675 -0.0669
  476W        W 1340  27.200  24.568  20.601  0.1960  0.1870 -0.1048
  477W        W 1341  26.847  26.381  20.259 -0.0983  0.1469  0.1234
  478W        W 1342  26.990  24.372  23.165 -0.0526  0.1542  0.1437
  479W        W 1343  24.337  23.497  20.000  0.2209  0.4048  0.1105
  480W        W 1344  28.647  23.198  23.038  0.0922  0.1460 -0.0358
  481W        W 1345   0.334  21.505  20.488  0.2006  0.0024  0.2194
  482W        W 1346  27.725  23.625  20.134  0.0502 -0.4331  0.0782
  483W        W 1347  25.918  22.041  23.911 -0.2694  0.0913 -0.2296
  484W        W 1348  25.083  23.003  22.500  0.0337 -0.0792  0.0945
  485W        W 1349  24.061  19.793  19.649  0.1453  0.2382 -0.1659
  486W        W 1350  26.913  21.793  18.651  0.0235  0.0869 -0.0263
  487W        W 1351  25.703  25.216  21.133  0.1400  0.1347  0.0201
  488W        W 1352  28.717  24.172  20.270 -0.0121 -0.0228  0.1033
  489W        W 1353  28.493  24.404  22.210 -0.2251 -0.2124  0.0261
  490W        W 1354  27.675  22.178  19.489  0.0414 -0.2686 -0.2342
  491W        W 1355   1.917  27.464  23.450 -0.1506 -0.1919  0.0097
  492W        W 1356   1.099  21.825  20.554  0.2459  0.0533 -0.0795
  493W        W 1357  28.565  22.972  19.461 -0.1307 -0.0698  0.1924
  494W        W 1358  28.352  23.941  21.569 -0.2341  0.0786  0.0642
  495W        W 1359  27.279  26.767  20.502  0.0246  0.0989  0.0453
  496W        W 1360  26.893  24.250  20.422  0.1864 -0.2780 -0.1385
  497W        W 1361  24.929  23.869  25.431  0.2739  0.0167  0.0292
  498W        W 1362  26.438  20.466  19.922  0.0695 -0.0438 -0.1510
  499W        W 1363   0.416  23.811  20.637  0.1280  0.1496 -0.0042
  500W        W 1364  25.532  27.729  22.224  0.0561  0.0927 -0.3246
  501W        W 1365  27.554  22.075  20.809  0.0506  0.0389  0.0492
  502W        W 1366   2.305  22.020  18.738 -0.1772  0.0061 -0.1247
  503W        W 1367  26.548  23.940  18.616 -0.2105  0.0408 -0.1557
  504W        W 1368  25.794  24.320  20.187  0.0883  0.0314  0.1524
  505W        W 1369  27.684  22.195  18.469  0.1955 -0.0315 -0.5093
  506W        W 1370  29.094  24.515  19.123 -0.1021 -0.0603  0.0626
  507W        W 1371  27.666  21.883  22.072 -0.1078  0.3184  0.2258
  508W        W 1372  26.956  23.490  22.577  0.1119 -0.3233  0.2591
  509W        W 1373  25.154  23.733  17.472  0.0629 -0.0186 -0.1389
  510W        W 1374  26.469  22.834  23.116 -0.2356 -0.3221  0.1245
  511W        W 1375   0.975  22.632  19.199 -0.1441 -0.1385  0.1070
  512W        W 1376  24.627  21.880  24.572  0.2323  0.2629 -0.1642
  513W        W 1377  25.422  22.788  20.799  0.1581  0.0791 -0.1265
  514W        W 1378  27.420  25.732  20.951 -0.0859 -0.1121  0.0059
  515W        W 1379  27.649  24.443  22.047  0.1573 -0.1853 -0.0950
  516W        W 1380  25.851  22.656  25.694  0.2640 -0.1068  0.2101
  517W        W 1381  27.858  23.505  16.875 -0.1246  0.1955 -0.0218
  518W        W 1382  27.556  22.135  21.321  0.1350  0.0441  0.0718
  519W        W 1383  27.195  19.933  18.262 -0.0660 -0.3348 -0.2597
  520W        W 1384  27.931  24.978  21.163  0.0177  0.1734 -0.1190
  521W        W 1385  25.937  24.835  20.824  0.0028 -0.2247  0.1349
  522W        W 1386   2.189  23.670  19.824  0.2409 -0.1558 -0.0730
  523W        W 1387  26.832  22.454  17.770 -0.1394  0.0487  0.2521
  524W        W 1388  28.206  26.548  19.358  0.2239 -0.0934 -0.0332
  525W        W 1389  27.316  24.622  17.183  0.1304 -0.0916 -0.0726
  526W        W 1390   2.553  24.683  21.192  0.0822  0.1090 -0.3874
  527W        W 1391  27.149  22.041  22.143 -0.0515 -0.0305 -0.2883
  528W        W 1392  27.619  28.008  20.909  0.2725 -0.1759 -0.1571
  529W        W 1393  25.639  24.160  22.066 -0.3758  0.3992 -0.0409
  530W        W 1394  27.954  26.330  21.575  0.3559  0.0195  0.0287
  531W        W 1395  28.919  26.199  20.948  0.0755  0.2334 -0.2677
  532W        W 1396  25.828  25.252  19.615 -0.1394  0.0392 -0.0435
  533W        W 1397   0.509  25.205  21.156 -0.1262  0.0089 -0.1758
  534W        W 1398  28.277  22.881  21.338 -0.1920  0.2463  0.0320
  535W        W 1399  26.023  24.482  22.457  0.1306 -0.0278  0.1608
  536W        W 1400  29.100  22.731  19.751 -0.1206  0.3606  0.0340
  537W        W 1401  27.074  20.469  22.373 -0.1955 -0.1079 -0.0157
  538W        W 1402  23.929  22.179  20.649  0.0389  0.0124 -0.0728
  539W        W 1403   0.263  22.225  19.459 -0.0636 -0.2244 -0.0333
  540W        W 1404   1.408  22.507  20.949 -0.2484 -0.0059  0.3492
  541W        W 1405  27.119  26.287  19.625  0.0225  0.4895  0.2336
  542W        W 1406  28.347  23.233  17.441 -0.3005  0.0772 -0.0911
  543W        W 1407  26.845  20.484  20.699  0.1241 -0.0909 -0.0487
  544W        W 1408  25.791  25.720  19.744 -0.1764 -0.1733  0.1502
  545W        W 1409  26.109  21.440  18.307  0.1294 -0.0542 -0.0980
  546W        W 1410  27.520  23.318  21.640 -0.0830 -0.0408  0.0865
  547W        W 1411  27.752  21.757  19.662  0.0124 -0.0933  0.1414
  548W        W 1412  28.651  22.509  20.652  0.0697  0.2462 -0.1650
  549W        W 1413   1.589  25.503  22.110  0.0296 -0.0039  0.1338
  550W        W 1414  27.324  25.605  18.977  0.1866  0.0479  0.0350
  551W        W 1415  25.873  25.168  21.619 -0.2277 -0.0656 -0.4857
  552W        W 1416   0.379  24.668  20.347 -0.0676  0.1700  0.0469
  553W        W 1417  26.611  23.417  20.684  0.0180 -0.1656  0.3540
  554W        W 1418  28.695  26.836  21.964  0.1240 -0.0218  0.0924
  555W        W 1419  25.657  20.792  18.405  0.0556 -0.1667 -0.0034
  556W        W 1420  26.516  24.841  20.798 -0.1539 -0.1012 -0.2978
  557W        W 1421   1.169  23.337  19.736 -0.0990  0.2789  0.2823
  558W        W 1422  27.075  25.378  24.204  0.2165  0.0008 -0.2628
  559W        W 1423  24.682  23.537  18.420 -0.0430 -0.2221  0.1669
  560W        W 1424  26.187  19.262  17.705 -0.0744 -0.2268  0.2091
  561W        W 1425  26.770  21.757  19.158  0.0770  0.0216 -0.0934
  562W        W 1426  27.988  23.070  19.439 -0.2101  0.1500  0.2132
  563W        W 1427  28.381  25.473  22.774 -0.2475 -0.2006 -0.1100
  564W        W 1428  27.374  20.929  23.146 -0.1718 -0.2183  0.0051
  565W        W 1429   0.041  24.134  21.396 -0.1591 -0.1248 -0.1150
  566W        W 1430  27.458  22.800  21.664 -0.2307 -0.0588 -0.0947
  567W        W 1431  27.295  21.842  23.506  0.1163 -0.0669 -0.1824
  568W        W 1432  27.520  22.537  19.129 -0.0294  0.0392 -0.1549
  569W        W 1433  25.723  26.720  20.041 -0.1096 -0.2650 -0.2077
  570W        W 1434  28.503  26.094  21.854  0.0146  0.3314 -0.1338
  571W        W 1435  25.289  21.261  16.573 -0.0406  0.2900 -0.2190
  572W        W 1436   1.425  24.712  20.459 -0.0724 -0.0033 -0.2139
  573W        W 1437  28.991  25.214  20.500 -0.0503  0.2084 -0.0404
  574W        W 1438  28.003  24.230  21.844  0.0127 -0.0461 -0.2034
  575W        W 1439  26.670  26.957  19.688 -0.1213 -0.0306  0.0877
  576W        W 1440  26.407  21.063  20.185  0.0168 -0.2275 -0.1023
  577W        W 1441   0.266  25.098  21.823  0.1661  0.0127  0.1607
  578W        W 1442  25.402  25.668  21.073 -0.0811 -0.3448 -0.2313
  579W        W 1443  25.858  23.090  21.343  0.2798 -0.0730 -0.3530
  580W        W 1444  25.877  26.261  20.478  0.0272 -0.5883  0.2096
  581W        W 1445  27.681  18.966  23.421 -0.3224  0.2309 -0.1906
  582W        W 1446  27.451  23.902  21.185 -0.0078 -0.0865 -0.2026
  583W        W 1447  28.489  25.578  19.803  0.0313  0.1757 -0.3800
  584W        W 1448  27.731  22.501  21.018 -0.3202  0.0464 -0.2810
  585W        W 1449  26.653  22.674  19.640 -0.1168  0.1691 -0.0498
  586W        W 1450  26.718  23.641  19.346  0.0902  0.0664 -0.1548
  587W        W 1451  28.653  25.653  20.885 -0.1752  0.0357 -0.3152
  588W        W 1452   0.229  19.273  20.963  0.1731  0.1472  0.0419
  589W        W 1453  24.692  20.959  22.622 -0.2033 -0.0808  0.0057
  590W        W 1454  27.605  25.434  21.950  0.1439  0.0537  0.3572
  591W        W 1455  25.844  21.446  19.038  0.0063  0.3106 -0.1332
  592W        W 1456  23.396  25.073  18.405  0.1183  0.1400  0.0037
  593W        W 1457  27.958  25.305  19.003  0.0672 -0.0440 -0.2627
  594W        W 1458  26.119  22.176  22.582  0.2222 -0.0075 -0.1052
  595W        W 1459  28.060  21.935  22.472 -0.2760  0.0927 -0.0050
  596W        W 1460  28.809  24.743  20.699 -0.2232  0.0371  0.3407
  597W        W 1461  26.895  20.589  21.213 -0.4543 -0.1484  0.2095
  598W        W 1462  28.172  21.305  19.923 -0.1540  0.0829  0.0224
  599W        W 1463  26.506  22.014  19.895  0.2768  0.1612  0.0203
  600W        W 1464  26.777  24.425  20.891  0.0183  0.3488  0.3363
  601W        W 1465   0.103  21.720  20.114 -0.1136  0.2212 -0.0312
  602W        W 1466  27.902  22.668  22.539  0.0962 -0.1371 -0.0545
  603W        W 1467   1.524  20.990  20.102  0.0956 -0.0301  0.0510
  604W        W 1468   2.941  23.950  19.524  0.1393  0.1517 -0.0627
  605W        W 1469  25.383  20.796  24.572  0.0164  0.0033 -0.0173
  606W        W 1470  27.306  24.854  19.475 -0.1547 -0.0459  0.0945
  607W        W 1471  25.205  20.902  19.277 -0.0813  0.3165  0.2559
  608W        W 1472  26.240  24.307  22.896  0.1478 -0.3233 -0.2130
  609W        W 1473   0.006  24.327  20.552  0.0380 -0.0868  0.0565
  610W        W 1474  27.734  26.823  20.883  0.0286  0.1836 -0.0511
  611W        W 1475  26.979  24.695  19.970 -0.0590 -0.0041 -0.3062
  612W        W 1476  26.741  22.376  24.314  0.0502  0.0568 -0.0487
  613W        W 1477  23.641  24.276  22.363 -0.1971  0.1086  0.0600
  614W        W 1478  26.850  22.225  18.332 -0.1489 -0.2161  0.2173
  615W        W 1479   1.537  22.133  22.807  0.0908 -0.0057 -0.0698
  616W        W 1480   1.852  23.259  20.548 -0.0433 -0.1460  0.1451
  617W        W 1481   1.374  23.792  19.597 -0.2637  0.1001 -0.1404
  618W        W 1482  27.164  24.309  21.927  0.1223 -0.2633  0.1178
  619W        W 1483  27.701  24.406  18.157  0.1149  0.3559 -0.2573
  620W        W 1484  27.150  20.899  22.684 -0.0951  0.2023 -0.2043
  621W        W 1485  28.119  25.287  22.019  0.0861  0.0865  0.2425
  622W        W 1486  28.997  20.872  19.864 -0.0960 -0.1309  0.4614
  623W        W 1487   0.236  23.009  20.838 -0.3460 -0.1660  0.0429
  624W        W 1488  28.262  26.065  22.562  0.0690 -0.0422 -0.0127
  625W        W 1489  27.339  20.896  21.441 -0.0182  0.1380 -0.1366
  626W        W 1490   0.029  24.841  16.995 -0.0647 -0.1797 -0.0672
  627W        W 1491  25.462  23.285  22.390  0.1771 -0.1543 -0.0270
  628W        W 1492  27.228  23.133  22.393  0.2870 -0.0259 -0.2909
  629W        W 1493   0.866  21.379  21.421  0.3627  0.0296 -0.0048
  630W        W 1494  25.537  25.242  18.757 -0.0732  0.3252 -0.0169
  631W        W 1495  27.645  22.932  22.151  0.0529  0.1919 -0.0036
  632W        W 1496  23.919  23.891  25.253  0.1120 -0.0212  0.1498
  633W        W 1497  26.572  24.284  23.545 -0.0988 -0.2585 -0.2482
  634W        W 1498  25.499  25.205  19.296  0.0894  0.0183  0.3613
  635W        W 1499  28.640  23.155  20.461  0.2688 -0.1676  0.0721
  636W        W 1500  25.564  21.999  23.070 -0.1954 -0.0025  0.1589
  637W        W 1501  27.810  22.420  20.057 -0.3157  0.1781  0.0993
  638W        W 1502   1.861  22.800  20.828 -0.2019  0.0343  0.2388
  639W        W 1503  28.606  21.961  22.631  0.1730  0.0146  0.0624
  640W        W 1504  27.673  24.954  21.932 -0.0445  0.1300  0.1595
  641W        W 1505  26.873  28.190  20.312  0.2220 -0.0729 -0.1223
  642W        W 1506  26.701  26.458  19.774 -0.1425 -0.1553  0.1421
  643W        W 1507  25.437  25.401  24.361  0.1786 -0.3771 -0.1519
  644W        W 1508  26.625  22.296  22.287 -0.0404 -0.0815 -0.1407
  645W        W 1509   0.667  20.996  20.189  0.1432 -0.1004  0.0613
  646W        W 1510   1.540  22.130  20.573  0.3192  0.0201 -0.1427
  647W        W 1511  26.423  21.184  17.910 -0.0320 -0.3003  0.2411
  648W        W 1512   1.831  22.821  18.843  0.0769  0.1906  0.1606
  649W        W 1513  24.342  24.501  23.068  0.2438 -0.1923  0.1196
  650W        W 1514  28.742  24.407  18.476  0.1811 -0.0671  0.1515
  651W        W 1515  27.121  22.297  22.537  0.0882  0.1758  0.1365
  652W        W 1516  27.038  22.065  21.161  0.1596 -0.1107 -0.1998
  653W        W 1517  24.733  24.578  18.486  0.0161 -0.1125  0.2190
  654W        W 1518   1.738  27.483  22.951 -0.3135 -0.0027 -0.1108
  655W        W 1519  27.038  22.999  21.868 -0.0181  0.0256  0.0215
  656W        W 1520  26.446  21.960  16.261 -0.0292  0.1189  0.0640
  657W        W 1521   0.117  24.870  21.290  0.4076 -0.1503 -0.1564
  658W        W 1522  28.645  22.326  18.301 -0.1997 -0.0646 -0.0077
  659W        W 1523  24.782  23.049  22.927 -0.1681 -0.4112  0.1849
  660W        W 1524  27.686  22.995  18.981 -0.1941  0.0333 -0.2422
  661W        W 1525   0.780  24.023  20.249  0.0683 -0.1834 -0.1845
  662W        W 1526  28.752  23.695  23.028 -0.1865  0.0510  0.1995
  663W        W 1527  25.225  20.984  23.154  0.1303  0.2993 -0.0879
  664W        W 1528   0.248  22.584  20.149 -0.0457 -0.1126 -0.2066
  665W        W 1529  28.344  22.802  22.226 -0.0546  0.2493 -0.0148
  666W        W 1530  26.563  27.958  20.821  0.4064 -0.1376  0.0118
  667W        W 1531  26.650  25.930  19.869  0.0452  0.2778 -0.1197
  668W        W 1532  25.335  24.119  20.171 -0.0644 -0.0253 -0.0021
  669W        W 1533   0.432  26.295  18.237  0.1175 -0.2585 -0.0278
  670W        W 1534  28.853  22.956  22.219 -0.0537  0.2132 -0.1907
  671W        W 1535  28.704  22.964  17.173 -0.1833 -0.2153  0.1944
  672W        W 1536  24.835  22.737  21.286 -0.2262 -0.0578  0.1137
  673W        W 1537   0.935  24.584  18.867 -0.1655  0.2723 -0.0297
  674W        W 1538  27.569  23.668  22.582  0.0675  0.2340 -0.0361
  675W        W 1539  25.877  25.034  22.540 -0.0468  0.1783 -0.0869
  676W        W 1540  28.719  25.245  23.388 -0.0147 -0.0452  0.1779
  677W        W 1541  29.027  21.767  21.301 -0.1601 -0.0502  0.2144
  678W        W 1542  25.447  25.678  22.303 -0.3280 -0.0404  0.1288
  679W        W 1543  24.667  23.613  21.290 -0.1986  0.4081  0.1756
  680W        W 1544  27.178  23.037  20.428 -0.1388  0.3482  0.2701
  681W        W 1545  28.531  25.648  19.123 -0.0895 -0.1743 -0.1489
  682W        W 1546  26.286  22.701  21.123  0.0583 -0.4115  0.1561
  683W        W 1547  26.208  23.668  19.407  0.1220  0.0431 -0.0291
  684W        W 1548  27.617  22.731  19.697  0.0016 -0.0226  0.2113
  685W        W 1549  24.027  24.402  21.426  0.1106  0.0607  0.0389
  686W        W 1550   0.986  21.842  20.041  0.0116 -0.1917 -0.1430
  687W        W 1551  27.895  22.523  21.499  0.1480 -0.0198 -0.4423
  688W        W 1552   1.117  23.348  21.030 -0.0665 -0.1693 -0.3988
  689W        W 1553  27.276  22.427  23.361  0.1288 -0.2987  0.2038
  690W        W 1554   0.926  21.120  18.296  0.2410  0.3004  0.0073
  691W        W 1555   1.078  23.482  18.864 -0.3893  0.1290  0.0376
  692W        W 1556  27.307  22.897  20.874 -0.2004  0.2567 -0.5364
  693W        W 1557  25.218  20.697  18.661  0.0302  0.0300 -0.2067
  694W        W 1558   0.069  21.985  19.119  0.0114 -0.0112  0.5535
  695W        W 1559  25.282  22.377  20.522 -0.0972  0.0394  0.2502
  696W        W 1560  25.768  22.678  19.749  0.2950  0.1249  0.0651
  697W        W 1561  27.568  21.725  21.571 -0.0363  0.2296 -0.2185
  698W        W 1562  27.095  20.450  18.425 -0.1787  0.0820  0.1835
  699W        W 1563   1.994  24.730  20.288  0.2554 -0.1662  0.3030
  700W        W 1564   0.836  20.545  20.250  0.0529 -0.1999 -0.2169
  701W        W 1565  23.689  25.743  21.788 -0.1778 -0.1333 -0.1363
  702W        W 1566  26.438  23.024  18.647 -0.1710  0.1473  0.1589
  703W        W 1567  24.399  23.250  23.209  0.1701  0.3051  0.0233
  704W        W 1568  26.843  23.237  23.275  0.0276  0.0256  0.1652
  705W        W 1569   2.032  21.953  19.917 -0.1042  0.1580 -0.0693
  706W        W 1570  28.926  25.576  19.441  0.0471 -0.0863 -0.0451
  707W        W 1571  27.034  26.185  18.529 -0.1485 -0.3133  0.1981
  708W        W 1572   0.340  26.607  22.298  0.1027  0.1416 -0.0177
  709W        W 1573  26.582  21.831  20.882 -0.2289 -0.1864 -0.1887
  710W        W 1574  28.054  22.304  20.595 -0.0882 -0.3289 -0.0476
  711W        W 1575  27.177  26.239  21.121 -0.2149  0.0867 -0.1636
  712W        W 1576  28.617  22.004  19.109 -0.0304  0.0723 -0.0142
  713W        W 1577  24.141  22.647  23.328  0.0978 -0.2310 -0.1629
  714W        W 1578  27.466  22.448  16.804  0.0401 -0.0785 -0.2313
  715W        W 1579  28.901  22.077  20.967 -0.0121  0.2805 -0.1716
  716W        W 1580  28.059  21.049  21.499  0.0221  0.1227 -0.3257
  717W        W 1581  25.506  23.887  22.429 -0.0708  0.0253 -0.1235
  718W        W 1582  24.585  21.628  20.827  0.1077 -0.0402  0.3698
  719W        W 1583  28.749  23.195  20.961  0.1583  0.0182 -0.0103
  720W        W 1584   0.247  23.106  21.329  0.1050 -0.2383 -0.0654
  721W        W 1585   0.963  20.805  19.821  0.0665  0.0366 -0.1222
  722W        W 1586  26.716  26.705  22.208  0.1138 -0.0945  0.2213
  723W        W 1587  26.318  25.462  18.935 -0.1383  0.1625 -0.1379
  724W        W 1588  25.582  23.952  21.153 -0.0617  0.2493  0.3217
  725W        W 1589  26.062  25.071  20.351  0.1863 -0.1229 -0.2231
  726W        W 1590  27.996  23.322  21.378 -0.0098  0.2705 -0.1194
  727W        W 1591  28.579  24.910  22.005 -0.0411  0.2241 -0.2781
  728W        W 1592  29.120  20.839  20.407  0.1508 -0.2898 -0.0849
  729W        W 1593  25.216  23.740  19.730  0.0085 -0.3118  0.0403
  730W        W 1594   0.762  24.873  20.020 -0.0384 -0.1902  0.0836
  731W        W 1595  25.929  22.813  20.342  0.2317 -0.1336 -0.0151
  732W        W 1596  26.459  20.403  23.020  0.1475  0.0007 -0.0310
  733W        W 1597  27.895  23.207  17.297  0.0978 -0.4243 -0.0599
  734W        W 1598   2.547  23.249  20.056 -0.4702 -0.0853 -0.1664
  735W        W 1599  27.295  22.604  22.206 -0.0953 -0.0868 -0.0684
  736W        W 1600   1.767  26.370  21.826  0.1899 -0.0231  0.0086
  737W        W 1601   0.640  23.470  20.381 -0.0663  0.3070  0.0741
  738W        W 1602  26.124  26.587  19.770  0.0551  0.2998  0.1329
  739W        W 1603   2.290  23.997  19.476 -0.2606 -0.5086  0.1231
  740W        W 1604  28.028  24.298  19.190  0.5179 -0.1204 -0.0195
  741W        W 1605  27.189  22.572  21.312  0.1624  0.2402  0.3200
  742W        W 1606  28.155  24.296  20.695  0.2042 -0.1493 -0.0586
  743W        W 1607  25.667  22.604  23.251  0.2608 -0.2461  0.0342
  744W        W 1608  26.875  22.732  22.391  0.1252 -0.1916  0.2090
  745W        W 1609  22.469  25.769  18.033  0.2504  0.0251  0.1524
  746W        W 1610  26.727  22.954  20.978  0.3090  0.0895  0.3081
  747W        W 1611  25.365  26.668  20.797 -0.0767 -0.1102  0.0010
  748W        W 1612  26.344  21.753  18.818 -0.1125  0.2210  0.0370
  749W        W 1613  26.668  24.707  20.357 -0.1252  0.1548  0.0865
  750W        W 1614  27.007  26.834  20.106  0.1426  0.1382  0.1607
  751W        W 1615   0.182  23.473  21.009  0.0873  0.1726 -0.0361
  752W        W 1616  28.841  22.272  21.440  0.0976 -0.0448  0.0584
  753W        W 1617   1.921  20.920  16.191 -0.0456 -0.1235 -0.1031
  754W        W 1618  27.221  22.421  20.853 -0.1188  0.1292 -0.0279
  755W        W 1619  28.359  22.317  21.065  0.0975  0.0385  0.3260
  756W        W 1620  27.856  25.819  18.888 -0.1893 -0.2377  0.1384
  757W        W 1621  28.270  21.084  19.177 -0.0330  0.2826  0.2248
  758W        W 1622  25.731  24.335  20.827  0.3222 -0.1961  0.1633
  759W        W 1623  27.628  22.252  22.372  0.1490 -0.2051 -0.4343
  760W        W 1624  24.775  23.943  24.705 -0.2121 -0.0955 -0.0442
  761W        W 1625  27.646  22.934  21.236 -0.3392  0.2331  0.1073
  762W        W 1626  24.404  22.762  20.052  0.1504 -0.2141 -0.1622
  763W        W 1627  27.224  21.776  22.590 -0.2092 -0.2754 -0.1805
  764W        W 1628  28.686  21.249  21.211 -0.1159 -0.1678  0.1130
  765W        W 1629   1.635  22.119  19.709 -0.0179 -0.1660 -0.0457
  766W        W 1630  26.877  26.461  20.728 -0.0558 -0.0867 -0.1390
  767W        W 1631   1.107  22.798  22.245 -0.2675 -0.0951  0.0009
  768W        W 1632  29.107  28.946  21.207  0.2941 -0.2767 -0.1589
  769W        W 1633  28.178  24.817  18.163 -0.1863  0.1574 -0.1218
  770W        W 1634   1.123  23.085  18.532 -0.1171  0.0910 -0.1224
  771W        W 1635   1.615  21.331  19.185  0.0518 -0.1210 -0.0025
  772W        W 1636  25.125  22.759  17.262  0.0402  0.0910 -0.2271
  773W        W 1637  28.850  19.013  20.165 -0.3023  0.0500 -0.0556
  774W        W 1638  28.211  22.024  18.188 -0.4487  0.0783 -0.2886
  775W        W 1639   1.785  25.449  19.428  0.0133 -0.0259 -0.2105
  776W        W 1640  28.698  22.661  21.112  0.4465 -0.0825  0.1774
  777W        W 1641  25.167  22.887  23.223  0.2385 -0.1638 -0.0850
  778W        W 1642  28.371  22.505  21.820 -0.0394 -0.2264 -0.2531
  779W        W 1643  28.309  27.512  21.329 -0.1623  0.1824 -0.3064
  780W        W 1644  27.939  19.597  21.319 -0.0130  0.0313  0.0262
  781W        W 1645  26.085  25.042  23.214 -0.0170  0.2328 -0.0309
  782W        W 1646  26.337  24.924  22.292  0.0055 -0.0206  0.1805
  783W        W 1647  27.390  25.668  20.351  0.1044 -0.0117 -0.0247
  784W        W 1648  25.814  22.542  21.222  0.1252 -0.0656  0.0043
  785W        W 1649  28.924  26.330  20.443 -0.4081  0.2541 -0.1027
  786W        W 1650  28.741  24.730  24.163  0.0052 -0.1887 -0.0849
  787W        W 1651  28.551  21.782  21.188 -0.1213  0.0777  0.1553
  788W        W 1652  28.384  27.448  20.524  0.0910  0.0403 -0.1372
  789W        W 1653  28.273  24.632  20.999  0.0728 -0.0636  0.1082
  790W        W 1654  27.499  24.412  21.461  0.2717  0.2601  0.1583
  791W        W 1655  27.636  23.440  22.155  0.0985  0.2602  0.0267
  792W        W 1656   1.698  22.780  20.322 -0.2880 -0.0087  0.0815
  793W        W 1657  27.432  25.724  21.492 -0.0029 -0.2262 -0.0249
  794W        W 1658  28.838  24.221  21.789 -0.2226  0.0995 -0.1993
  795W        W 1659  28.295  24.533  19.586 -0.2360 -0.0696  0.0349
  796W        W 1660  27.389  27.924  21.315  0.1551 -0.0014 -0.0402
  797W        W 1661  26.826  22.996  23.884  0.0586 -0.0295 -0.0626
  798W        W 1662  25.461  24.940  17.332 -0.1110  0.2651 -0.0214
  799W        W 1663  26.335  24.411  25.513 -0.2673  0.0901  0.2866
  800W        W 1664  26.684  22.199  20.451 -0.2469  0.3867  0.1883
  801W        W 1665  27.628  22.954  20.132 -0.2199  0.0450 -0.2514
  802W        W 1666  26.177  26.334  26.968  0.2211 -0.1396  0.0095
  803W        W 1667  27.020  24.032  26.078 -0.1102 -0.0306  0.2916
  804W        W 1668  28.935  25.312  21.946 -0.2755  0.0837  0.2720
  805W        W 1669   1.002  24.716  24.903 -0.2523 -0.0461 -0.2530
  806W        W 1670  23.894  25.058  23.542 -0.1287 -0.1959  0.2036
  807W        W 1671  23.951  21.781  23.165  0.4967 -0.2044  0.1177
  808W        W 1672  24.268  22.763  25.003 -0.0240 -0.0923  0.1852
  809W        W 1673  27.038  23.683  23.079 -0.1346  0.0204 -0.2057
  810W        W 1674  28.567  24.204  25.373 -0.0505 -0.0615 -0.0377
  811W        W 1675  22.959  22.861  25.497  0.0620  0.2406 -0.0633
  812W        W 1676  26.554  23.361  24.146  0.1816  0.3893  0.2075
  813W        W 1677   2.096  24.062  23.307  0.0269 -0.0058  0.2772
  814W        W 1678  25.200  23.620  24.734 -0.1175 -0.0872  0.2240
  815W        W 1679   0.698  23.920  25.519 -0.0948  0.2000 -0.1586
  816W        W 1680  24.911  25.198  25.029 -0.1715  0.0205 -0.2920
  817W        W 1681  26.625  22.766  26.291 -0.1436  0.1300 -0.1542
  818W        W 1682  25.064  26.019  21.459 -0.1212  0.2267 -0.1918
  819W        W 1683  25.322  23.177  26.726 -0.1513 -0.0445  0.1237
  820W        W 1684  27.664  24.777  27.577 -0.0402 -0.2168  0.0032
  821W        W 1685  28.373  24.761  23.116  0.0873  0.0944  0.0706
  822W        W 1686  27.748  22.949  25.054 -0.1417 -0.6414 -0.1531
  823W        W 1687  27.685  22.432  24.720 -0.1525 -0.2658  0.0782
  824W        W 1688  28.059  23.182  22.309  0.2953  0.1670  0.1531
  825W        W 1689  28.106  20.706  24.357 -0.2582  0.0151 -0.0387
  826W        W 1690  26.079  23.343  24.373 -0.2567  0.0456 -0.2289
  827W        W 1691  25.023  22.495  25.402 -0.1375 -0.1224  0.2428
  828W        W 1692   0.408  24.069  23.472  0.2691  0.1182  0.0499
  829W        W 1693  25.616  24.440  24.672 -0.0828 -0.1705  0.3213
  830W        W 1694  27.110  24.499  23.689  0.1979  0.0284 -0.0898
  831W        W 1695  28.194  22.042  25.550 -0.0065  0.1540  0.1184
  832W        W 1696  27.929  22.174  23.858  0.1481 -0.1805  0.0571
  833W        W 1697  29.079  22.168  23.450  0.2245 -0.2187 -0.1458
  834W        W 1698  25.719  24.998  24.475  0.3534 -0.1661 -0.0680
  835W        W 1699   0.128  27.173  25.445 -0.0578 -0.3416 -0.0018
  836W        W 1700  24.836  23.207  27.121 -0.4522 -0.1030  0.0359
  837W        W 1701  28.188  23.813  23.855 -0.0205 -0.2736 -0.1172
  838W        W 1702  26.387  21.498  23.170  0.1015  0.0682  0.2714
  839W        W 1703  26.972  26.687  27.682 -0.1640  0.0225 -0.2145
  840W        W 1704  27.765  23.878  24.137 -0.0548  0.2002  0.1145
  841W        W 1705  27.040  20.979  23.543 -0.1575 -0.1555  0.0352
  842W        W 1706  29.065  21.231  23.101 -0.2180 -0.2970 -0.0354
  843W        W 1707   2.156  23.051  22.849  0.0926  0.1468 -0.0575
  844W        W 1708  25.849  25.951  22.992  0.1695 -0.0032 -0.3028
  845W        W 1709   1.415  26.519  22.931  0.0194 -0.2574  0.2110
  846W        W 1710  25.088  25.307  23.004 -0.3382  0.2117  0.1845
  847W        W 1711  26.450  25.565  22.443 -0.1231  0.0467  0.3604
  848W        W 1712  23.706  20.349  25.130  0.0775  0.0873 -0.1010
  849W        W 1713  28.386  21.400  25.026  0.3246 -0.0964  0.0065
  850W        W 1714  26.429  23.086  24.752 -0.1615 -0.0461  0.0252
  851W        W 1715   0.419  22.255  22.276 -0.2818  0.0352 -0.2264
  852W        W 1716  27.639  26.939  22.252 -0.2101  0.1031 -0.0975
  853W        W 1717  26.449  23.041  25.218 -0.0678  0.0473  0.1410
  854W        W 1718  26.156  24.936  24.187 -0.1759  0.2092  0.0578
  855W        W 1719   1.507  24.039  20.943 -0.0275  0.3827  0.1970
  856W        W 1720   0.227  20.719  23.810 -0.0225 -0.0674 -0.1594
  857W        W 1721  27.012  25.022  24.563 -0.2212 -0.0822  0.0830
  858W        W 1722  23.790  23.728  24.166  0.2049 -0.0710  0.0824
  859W        W 1723   2.292  22.238  20.556 -0.2434  0.0971  0.1655
  860W        W 1724  26.185  23.580  26.439  0.1009  0.1459 -0.2514
  861W        W 1725  28.633  24.248  21.251  0.2198  0.1322 -0.0668
  862W        W 1726  29.099  23.810  20.367 -0.0640  0.0914 -0.0928
  863W        W 1727  24.672  27.400  26.887  0.1038 -0.2298  0.1361
  864W        W 1728  26.242  24.783  22.781 -0.3043  0.1361  0.0584
  865W        W 1729  25.577  23.312  24.309 -0.0915  0.0751 -0.1442
  866W        W 1730  26.836  23.857  27.149  0.3207  0.2210 -0.1534
  867W        W 1731   0.549  21.915  22.632 -0.1837  0.1192 -0.1881
  868W        W 1732  26.089  23.941  23.443 -0.1593  0.0572  0.2386
  869W        W 1733  25.889  22.516  26.158  0.0837  0.0192  0.0985
  870W        W 1734  26.863  23.203  24.591  0.3061  0.2195 -0.1871
  871W        W 1735  28.371  27.241  21.987  0.0251 -0.1339 -0.0670
  872W        W 1736  28.361  26.498  24.633 -0.0324  0.0223  0.0506
  873W        W 1737  28.244  20.269  23.398  0.0607 -0.0952  0.0021
  874W        W 1738  28.636  25.475  24.669  0.2384 -0.3291 -0.1183
  875W        W 1739   0.103  23.890  21.819 -0.0225  0.0785 -0.0170
  876W        W 1740   0.967  26.393  23.115 -0.3750  0.0708  0.2554
  877W        W 1741  28.914  23.387  24.512  0.1016 -0.2454 -0.1475
  878W        W 1742  24.362  24.100  24.404 -0.0806  0.2988  0.0649
  879W        W 1743  27.417  22.702  22.690  0.0323 -0.4964  0.2038
  880W        W 1744  28.018  22.196  24.398 -0.0292  0.2127 -0.0939
  881W        W 1745  27.924  21.487  24.182  0.3130  0.2370  0.0426
  882W        W 1746  25.137  24.256  25.039 -0.1436  0.1506 -0.1419
  883W        W 1747  26.034  22.842  23.489 -0.1410 -0.1430  0.2129
  884W        W 1748  26.848  21.383  24.739  0.0299  0.2861 -0.1424
  885W        W 1749  28.827  23.844  24.449 -0.4161 -0.0817  0.1259
  886W        W 1750  27.279  22.915  24.859  0.4330 -0.1302 -0.1121
  887W        W 1751   0.081  20.677  20.963 -0.1047  0.5639 -0.0450
  888W        W 1752  28.534  26.238  24.176 -0.0918 -0.1763 -0.1815
  889W        W 1753  28.439  20.406  24.833 -0.1739 -0.0989  0.0001
  890W        W 1754   0.612  24.420  24.735  0.2865 -0.5012  0.0815
  891W        W 1755  28.994  20.979  23.579  0.0642  0.3335 -0.1807
  892W        W 1756  26.969  21.348  22.458 -0.4380 -0.2537  0.3535
  893W        W 1757  27.705  21.057  24.372  0.0996  0.3144 -0.0051
  894W        W 1758  25.043  23.121  24.829 -0.0246  0.0728  0.2039
  895W        W 1759  26.868  21.190  23.133 -0.1202 -0.0575  0.0110
  896W        W 1760  27.861  22.248  25.260  0.0651  0.0627  0.0077
  897W        W 1761   0.282  21.756  22.234  0.0513 -0.3393 -0.0389
  898W        W 1762  26.527  23.583  24.691  0.0832 -0.1789  0.1321
  899W        W 1763  27.460  25.827  26.355 -0.0106  0.1210  0.1734
  900W        W 1764   0.626  20.637  23.556  0.3125 -0.1140 -0.3681
  901W        W 1765   2.898  21.400  25.023  0.0704 -0.2317  0.1490
  902W        W 1766  28.303  25.822  21.451 -0.2433 -0.1882  0.4578
  903W        W 1767  24.672  24.126  26.791 -0.1131 -0.1041  0.3829
  904W        W 1768  28.527  23.045  21.782 -0.0307  0.3939 -0.1003
  905W        W 1769   0.067  24.972  24.296  0.1120  0.0849  0.0763
  906W        W 1770  28.660  19.991  23.621  0.0465  0.1208 -0.0291
  907W        W 1771  27.697  24.238  25.448  0.0500  0.0280 -0.3391
  908W        W 1772  27.417  24.321  24.838  0.0119  0.0174 -0.0449
  909W        W 1773  27.758  22.898  23.963 -0.1952  0.2764 -0.2908
  910W        W 1774  28.176  21.029  22.775  0.1564 -0.3302  0.1087
  911W        W 1775  26.804  20.630  24.480 -0.0813  0.0070  0.3498
  912W        W 1776  24.588  24.655  25.737 -0.0331  0.3087 -0.1144
  913W        W 1777  27.886  24.106  26.351  0.3750 -0.0493  0.2329
  914W        W 1778  28.677  24.257  23.833  0.0338 -0.0517  0.2330
  915W        W 1779  27.965  28.553  24.360  0.1542  0.3364  0.1678
  916W        W 1780  28.666  22.547  22.639  0.0007 -0.0506  0.2559
  917W        W 1781  26.050  22.833  21.845  0.1281  0.2042  0.1795
  918W        W 1782  28.648  22.513  24.437  0.1322  0.1363  0.0771
  919W        W 1783  27.835  24.644  22.511  0.2935 -0.1202  0.1081
  920W        W 1784  29.073  21.338  24.756 -0.0097  0.0623  0.0535
  921W        W 1785  26.332  23.688  21.866  0.0651  0.0715  0.4808
  922W        W 1786  27.721  20.685  21.644 -0.0636 -0.0404 -0.0715
  923W        W 1787  27.881  24.266  23.816  0.2721 -0.1488  0.2632
  924W        W 1788   0.549  25.176  20.620  0.1850 -0.1033  0.3956
  925W        W 1789   0.258  23.151  22.312 -0.0134  0.1707  0.1048
  926W        W 1790  27.572  24.895  25.688  0.1321 -0.0708  0.1108
  927W        W 1791  28.753  21.476  23.615 -0.2248  0.1476 -0.1986
  928W        W 1792  25.251  24.135  24.579 -0.1674  0.1302  0.0832
  929W        W 1793  24.369  20.565  25.459  0.0359  0.1485 -0.2441
  930W        W 1794  28.423  23.337  25.598  0.0649  0.0165  0.0538
  931W        W 1795  27.881  24.437  24.810  0.0727 -0.4063 -0.0717
  932W        W 1796  28.938  27.421  26.390 -0.2634  0.1451 -0.2143
  933W        W 1797   1.353  22.007  24.001 -0.0971 -0.1450 -0.2762
  934W        W 1798  25.509  26.395  24.127  0.1271  0.0893 -0.0734
  935W        W 1799   0.400  21.962  21.803 -0.0084 -0.1278  0.2264
  936W        W 1800   0.386  24.896  22.761 -0.1868  0.1546  0.0152
  937W        W 1801  26.141  21.832  23.491  0.0986  0.2891  0.1871
  938W        W 1802   0.533  24.175  21.990  0.0661 -0.3734  0.1154
  939W        W 1803   0.427  22.425  23.476 -0.0531 -0.2121 -0.1000
  940W        W 1804  27.815  24.412  24.281 -0.3269 -0.4741  0.2275
  941W        W 1805  27.506  24.756  24.549  0.1859 -0.0520 -0.4717
  942W        W 1806  22.695  22.509  24.739 -0.2312  0.3268  0.0485
  943W        W 1807  23.579  22.246  25.238  0.0706 -0.2568 -0.0135
  944W        W 1808  28.101  26.791  21.921  0.2795 -0.1228 -0.1317
  945W        W 1809  26.939  22.540  22.932 -0.0606 -0.0915  0.1364
  946W        W 1810  28.167  22.673  23.740  0.0388 -0.1621  0.0991
  947W        W 1811  29.136  19.065  24.408  0.0277  0.0163  0.2536
  948W        W 1812   1.359  20.784  22.157  0.0922 -0.2029 -0.1321
  949W        W 1813  27.520  24.891  27.069 -0.1475  0.1060 -0.0101
  950W        W 1814  27.319  25.940  23.337  0.1070 -0.1685 -0.3852
  951W        W 1815  28.176  23.246  23.831 -0.2508 -0.0044  0.0562
  952W        W 1816  28.659  23.266  23.979  0.2188 -0.1838 -0.1886
  953W        W 1817  28.133  21.914  23.014 -0.0578  0.0329  0.2481
  954W        W 1818  26.197  23.748  23.003 -0.1867 -0.3473  0.2657
  955W        W 1819  25.074  23.145  23.671  0.1765 -0.0511 -0.1033
  956W        W 1820   1.434  20.447  22.860 -0.2205  0.2721 -0.2743
  957W        W 1821   0.247  22.790  23.034  0.3157 -0.1431 -0.0087
  958W        W 1822  27.137  24.830  27.389  0.0491 -0.1855  0.2256
  959W        W 1823  24.780  23.501  25.083 -0.1225  0.1765 -0.4034
  960W        W 1824  24.479  23.174  24.211  0.0600  0.0110  0.0540
  961W        W 1825  27.700  21.596  22.459 -0.0927 -0.0158  0.1825
  962W        W 1826   0.609  20.652  25.328  0.2309  0.0803  0.0736
  963W        W 1827  25.620  24.120  25.202  0.3438 -0.1284  0.2137
  964W        W 1828  26.538  24.761  25.224  0.0756 -0.1608  0.3513
  965W        W 1829  29.011  25.686  26.414  0.3022 -0.1892 -0.0456
  966W        W 1830  28.599  20.866  24.565  0.1102  0.0042 -0.0886
  967W        W 1831  27.279  20.707  25.191 -0.0937 -0.0701 -0.0935
  968W        W 1832  25.172  19.090  22.851  0.1838  0.0938 -0.1171
  969W        W 1833  25.523  24.722  22.398 -0.1017  0.0074 -0.0548
  970W        W 1834  27.094  23.642  24.830 -0.0806  0.0052  0.2444
  971W        W 1835  25.467  25.194  21.995 -0.1581 -0.1371 -0.1046
  972W        W 1836  26.442  20.895  23.123  0.2691 -0.2304 -0.1094
  973W        W 1837  28.723  20.894  24.012  0.2130  0.0458 -0.2337
  974W        W 1838  26.806  25.389  22.810  0.2116  0.0668  0.1346
  975W        W 1839  28.632  25.319  22.332 -0.1390  0.2561  0.3799
  976W        W 1840  26.531  23.961  22.634  0.0210  0.2274  0.0893
  977W        W 1841   0.701  22.201  20.982  0.4342 -0.0488 -0.0193
  978W        W 1842  22.345  24.727  28.954 -0.1528 -0.0737  0.1736
  979W        W 1843  26.001  22.267  23.065  0.2438  0.0290  0.2048
  980W        W 1844  26.032  26.117  21.699  0.4415 -0.1840 -0.2290
  981W        W 1845  28.214  22.305  22.755 -0.1390 -0.2076  0.0997
  982W        W 1846  28.013  25.622  22.392 -0.3148 -0.1490 -0.0829
  983W        W 1847  28.990  25.425  23.011 -0.2192  0.1170 -0.1946
  984W        W 1848  28.349  21.739  24.070 -0.2566 -0.2344 -0.3177
  985W        W 1849  26.845  20.932  22.175  0.1984  0.0535  0.1955
  986W        W 1850  26.913  23.518  23.771  0.0479  0.0532 -0.5630
  987W        W 1851  26.886  23.606  25.784  0.1764 -0.2843  0.0367
  988W        W 1852  28.625  22.448  23.525  0.2147 -0.0630 -0.0591
  989W        W 1853  24.743  21.379  24.563 -0.0854 -0.2075 -0.2106
  990W        W 1854  27.193  23.513  25.448  0.1363  0.0112  0.0581
  991W        W 1855  26.128  25.567  23.179 -0.3079 -0.1000  0.1489
  992W        W 1856  27.135  25.066  23.124 -0.0479  0.0688 -0.1557
  993W        W 1857  25.315  25.252  22.571 -0.2766 -0.0539  0.0825
  994W        W 1858  27.033  23.576  24.298 -0.0768 -0.0177  0.2138
  995W        W 1859  26.973  22.296  25.336  0.0190  0.3349  0.5696
  996W        W 1860  29.000  22.951  26.030 -0.0469  0.0297 -0.1217
  997W        W 1861  26.908  20.694  23.115 -0.1198  0.2310 -0.0050
  998W        W 1862  27.747  21.424  23.465  0.3407  0.1449  0.4024
  999W        W 1863  27.548  20.752  23.588  0.2078 -0.3304 -0.2221
 1000W        W 1864  23.117  24.847  23.918 -0.0596 -0.3217  0.0742
 1001W        W 1865   2.257  22.232  21.295 -0.1957  0.4179 -0.0732
 1002W        W 1866  28.066  23.421  25.071  0.0740  0.0514 -0.0643
 1003W        W 1867  27.096  23.926  22.310 -0.0303  0.2683  0.0100
 1004W        W 1868  27.652  23.916  22.171  0.0724 -0.0856  0.0273
 1005W        W 1869  23.887  22.398  24.341  0.0966  0.0600  0.2656
 1006W        W 1870   0.465  21.807  26.349 -0.1956 -0.3160  0.1329
 1007W        W 1871  25.774  22.443  24.639 -0.2429 -0.2137 -0.1313
 1008W        W 1872  26.602  24.013  25.661  0.1971  0.0824  0.1381
 1009W        W 1873  28.473  22.254  22.221  0.2128 -0.0752 -0.1703
 1010W        W 1874  27.539  24.238  22.588  0.0010  0.2671  0.1853
 1011W        W 1875  26.131  22.419  21.599  0.1485  0.1527  0.0423
 1012W        W 1876  25.937  25.921  26.020  0.0439  0.0252  0.2550
 1013W        W 1877  27.334  24.422  25.741  0.4257  0.2056  0.0893
 1014W        W 1878  27.553  26.651  25.660 -0.0370 -0.1492 -0.1466
 1015W        W 1879   1.291  21.414  23.306  0.1884  0.2048 -0.2594
 1016W        W 1880  28.100  22.540  24.972 -0.1864 -0.0910  0.0348
 1017W        W 1881  27.925  22.514  22.065  0.3708  0.2041  0.0705
 1018W        W 1882  27.300  20.100  23.247  0.0368  0.1604  0.3170
 1019W        W 1883  28.788  26.115  21.421  0.0162 -0.0448  0.0697
 1020W        W 1884  27.360  22.896  23.184 -0.0189 -0.1725  0.1917
 1021W        W 1885  26.461  22.496  25.259  0.2142  0.2701 -0.0267
 1022W        W 1886   1.198  21.988  24.861 -0.0146  0.1368 -0.2418
 1023W        W 1887  28.320  23.661  24.307  0.1922 -0.1510  0.2899
 1024W        W 1888  29.115  22.856  24.157 -0.2598  0.2871  0.2220
 1025W        W 1889  26.367  20.498  20.954  0.2096 -0.0607  0.0028
 1026W        W 1890   0.602  26.168  23.367 -0.1498 -0.3477  0.0805
 1027W        W 1891  27.471  22.542  25.224 -0.2081 -0.3250  0.0244
 1028W        W 1892  27.874  25.714  26.738 -0.0755 -0.4073  0.0112
 1029W        W 1893   1.489  23.551  22.757  0.0677  0.2887 -0.0451
 1030W        W 1894   0.737  24.981  22.034  0.3086  0.0721 -0.3680
 1031W        W 1895   0.104  21.805  24.923 -0.3403  0.7263 -0.1354
 1032W        W 1896  25.703  21.816  25.447  0.0720 -0.2929 -0.2656
 1033W        W 1897  27.504  23.102  27.402 -0.1215  0.1213  0.1589
 1034W        W 1898  28.157  25.905  20.861  0.4641  0.1512  0.0543
 1035W        W 1899  28.711  22.944  23.513 -0.1251 -0.0883 -0.1787
 1036W        W 1900   0.320  23.161  25.383 -0.0478 -0.0730  0.0266
 1037W        W 1901  27.694  26.150  25.616  0.0750  0.2702 -0.0415
 1038W        W 1902  27.956  24.991  22.820  0.0811  0.0635 -0.0407
 1039W        W 1903  25.974  20.633  23.406 -0.1383  0.0493 -0.0682
 1040W        W 1904  28.476  26.476  22.188  0.0082  0.0606  0.5702
 1041W        W 1905   1.699  24.116  23.641  0.1641 -0.0866  0.0873
 1042W        W 1906   0.869  27.115  23.598  0.0138 -0.1036  0.0386
 1043W        W 1907  27.991  24.385  27.648 -0.0021  0.0625 -0.2887
 1044W        W 1908  25.500  20.589  23.145 -0.0336  0.2642  0.2550
 1045W        W 1909  28.573  21.951  23.571  0.3836  0.1167 -0.0398
 1046W        W 1910  27.078  22.704  24.440  0.1854  0.1835 -0.2745
 1047W        W 1911  28.724  20.492  22.584 -0.0159 -0.3553 -0.0645
 1048W        W 1912  24.003  24.213  23.826  0.1618  0.1993 -0.1312
 1049W        W 1913  24.515  23.916  25.742  0.1272 -0.5267 -0.0978
 1050W        W 1914  26.903  23.907  20.931  0.1910  0.1903 -0.3070
 1051W        W 1915  25.941  21.660  22.905  0.0653  0.2207 -0.0309
 1052W        W 1916  27.718  22.142  23.395 -0.0912 -0.1135 -0.1229
 1053W        W 1917  25.559  24.496  25.949 -0.2076 -0.5475  0.3208
 1054W        W 1918  27.771  23.645  24.669  0.2476 -0.0805  0.2265
 1055W        W 1919  25.875  21.870  24.656 -0.1240 -0.2805 -0.3048
 1056W        W 1920  24.257  22.180  23.111 -0.3635  0.0619 -0.3398
 1057W        W 1921   0.451  22.657  21.178 -0.2110 -0.0616 -0.0771
 1058W        W 1922   0.825  21.291  23.329  0.0409  0.1611 -0.0880
 1059W        W 1923  28.142  19.847  24.772 -0.0445 -0.4261 -0.1222
 1060W        W 1924   0.891  23.809  22.003  0.0187  0.2544 -0.0659
 1061W        W 1925  28.076  23.677  22.377  0.0730  0.1722 -0.1133
 1062W        W 1926  26.079  22.694  24.235  0.3003  0.2541 -0.3462
 1063W        W 1927  26.327  23.629  25.773  0.2530 -0.1522 -0.2618
 1064W        W 1928  28.180  23.084  23.301 -0.1948  0.2500 -0.2440
 1065W        W 1929  27.211  22.091  23.038 -0.0972  0.0612  0.0403
 1066W        W 1930  26.854  24.250  24.025 -0.0770 -0.1358 -0.1664
 1067W        W 1931  26.700  27.583  28.317 -0.1026  0.2068  0.3000
 1068W        W 1932  26.777  26.284  21.949 -0.0385 -0.0491 -0.1738
 1069W        W 1933  28.927  26.084  23.867 -0.0128  0.0098  0.0575
 1070W        W 1934  27.770  23.524  23.155  0.0370  0.0591  0.0572
 1071W        W 1935   0.166  23.737  23.137  0.0542 -0.1061 -0.3006
 1072W        W 1936  27.595  25.260  21.424 -0.2872  0.1412  0.2701
 1073W        W 1937  28.388  24.962  23.587 -0.0755 -0.2541  0.0861
 1074W        W 1938  26.209  23.807  24.365 -0.1509  0.0276  0.3538
 1075W        W 1939  27.629  25.283  24.036  0.1593 -0.1096 -0.1612
 1076W        W 1940  25.973  24.554  25.127  0.0639 -0.1512  0.0714
 1077W        W 1941  28.578  23.294  25.149  0.0806  0.1218 -0.4519
 1078W        W 1942  24.454  22.479  23.698  0.0345  0.2151  0.3386
 1079W        W 1943  23.431  19.190  23.042  0.0777 -0.2634 -0.1735
 1080W        W 1944  26.868  26.983  22.896 -0.0095  0.2159 -0.1732
 1081W        W 1945  24.070  22.858  24.476 -0.1706 -0.1676 -0.1735
 1082W        W 1946  25.252  22.576  24.870  0.1627  0.0254  0.2140
 1083W        W 1947  25.019  23.845  23.269  0.2196 -0.1587  0.0258
 1084W        W 1948  24.142  21.730  23.710 -0.1177  0.0742 -0.0968
 1085W        W 1949  27.553  26.453  23.915  0.0802 -0.2963  0.2362
 1086W        W 1950  26.145  23.208  23.100  0.0157  0.2163 -0.0838
 1087W        W 1951   0.413  22.281  27.067 -0.1133  0.1723  0.0535
 1088W        W 1952  26.624  24.673  23.069  0.0752  0.1651 -0.1793
 1089W        W 1953  24.465  25.638  24.660 -0.1144 -0.2164 -0.3289
 1090W        W 1954  29.146  23.367  20.558  0.0500  0.1494 -0.1088
 1091W        W 1955  28.113  24.712  22.016  0.1051  0.0922 -0.1693
 1092W        W 1956  27.340  23.282  24.598 -0.0206 -0.2674  0.2905
 1093W        W 1957   0.628  19.559  22.196  0.0471  0.0110 -0.1061
 1094W        W 1958  27.855  23.272  24.295 -0.4572  0.0485  0.1670
 1095W        W 1959  28.021  24.038  24.563 -0.1642  0.0459  0.1426
 1096W        W 1960  27.364  25.144  22.710 -0.2172  0.3137 -0.4292
 1097W        W 1961  28.236  21.313  23.703  0.2027  0.0485 -0.1279
 1098W        W 1962  27.494  23.167  25.960 -0.0848 -0.1052 -0.1333
 1099W        W 1963  28.697  24.490  26.437 -0.2229 -0.1054  0.2187
 1100W        W 1964   0.125  25.272  23.602 -0.1700  0.0691 -0.2993
 1101W        W 1965  24.533  25.067  24.725  0.2860 -0.1772  0.1626
 1102W        W 1966  26.451  23.079  22.625  0.0515  0.3505 -0.1052
 1103W        W 1967  26.835  21.973  27.223  0.2893  0.2772 -0.2046
 1104W        W 1968  29.059  24.128  25.259 -0.0040 -0.0637  0.1592
 1105W        W 1969  27.385  21.315  22.742  0.0767 -0.0888 -0.0258
 1106W        W 1970   0.174  22.204  21.259 -0.1020  0.0587  0.1664
 1107W        W 1971  27.646  24.688  23.841  0.0297 -0.1586 -0.0826
 1108W        W 1972  28.269  24.204  24.184 -0.0106 -0.0214 -0.0287
 1109W        W 1973  26.610  20.662  23.583  0.0685  0.0763 -0.3086
 1110W        W 1974  27.375  23.302  22.912  0.2396 -0.0682 -0.0711
 1111W        W 1975  24.332  25.332  23.722  0.1413  0.1787 -0.1475
 1112W        W 1976  26.722  24.248  22.177  0.1714  0.0566 -0.3112
 1113W        W 1977  27.276  24.499  25.271  0.1113  0.0527 -0.2829
 1114W        W 1978  28.699  19.478  20.502 -0.1996  0.0393  0.2695
 1115W        W 1979   0.593  22.350  21.491  0.1078 -0.3312 -0.1521
 1116W        W 1980  27.669  25.440  27.132 -0.2342 -0.1326  0.2658
 1117W        W 1981  26.400  24.050  26.405 -0.0340 -0.0206 -0.1849
 1118W        W 1982  28.090  21.815  23.535 -0.1636  0.2623 -0.0750
 1119W        W 1983  24.772  23.503  24.494 -0.2079 -0.2122 -0.1935
 1120W        W 1984  28.728  21.721  24.839  0.3659 -0.0072  0.1455
 1121W        W 1985  28.140  22.633  24.260 -0.1073 -0.0805 -0.1378
 1122W        W 1986  25.785  25.468  24.722  0.1083  0.0417  0.1840
 1123W        W 1987   0.173  25.558  21.991 -0.1018  0.2276  0.0481
 1124W        W 1988  24.698  24.447  25.143  0.2337 -0.0990  0.2070
 1125W        W 1989  27.826  23.806  21.521  0.1164  0.1323 -0.2427
 1126W        W 1990  28.045  24.200  22.368 -0.0093  0.2521  0.0514
 1127W        W 1991  27.392  26.575  27.888  0.2702  0.1648 -0.0197
 1128W        W 1992  26.557  21.195  24.371 -0.0145 -0.3499  0.3615
 1129W        W 1993  27.907  24.444  23.011 -0.1103  0.1407 -0.0419
 1130W        W 1994  23.995  24.596  23.393  0.1342  0.1984  0.0509
 1131W        W 1995  26.679  22.252  24.799 -0.0850  0.2991  0.0171
 1132W        W 1996  27.310  20.785  25.712 -0.0432 -0.0159 -0.1018
 1133W        W 1997   2.358  22.625  20.920 -0.1768 -0.1524 -0.3672
 1134W        W 1998  28.722  24.463  27.003 -0.0779  0.1652  0.1752
 1135W        W 1999  27.336  27.968  28.842  0.0819  0.0765  0.2417
 1136W        W 2000   0.002  24.578  23.990  0.2365  0.0094 -0.1839
 1137W        W 2001  28.310  25.522  25.349  0.0772 -0.0097 -0.1341
 1138W        W 2002  26.500  24.863  24.696 -0.3076  0.1422 -0.0005
 1139W        W 2003  27.183  22.218  24.375 -0.2409 -0.0779 -0.1179
 1140W        W 2004   0.059  24.348  22.133  0.2496  0.1657 -0.1728
 1141W        W 2005  27.066  19.801  22.536  0.0556 -0.2649  0.1919
 1142W        W 2006  26.099  24.526  23.331 -0.3463 -0.0457 -0.0104
 1143W        W 2007  27.438  21.075  26.153  0.3728 -0.1822 -0.0542
 1144W        W 2008  27.050  25.394  20.730 -0.2696  0.1978  0.1396
 1145W        W 2009  27.842  21.285  25.080 -0.1625  0.0745  0.0605
 1146W        W 2010  25.268  22.925  25.274 -0.2465  0.1734  0.0946
 1147W        W 2011  26.505  24.324  24.994 -0.0848 -0.0104  0.0924
 1148W        W 2012  25.765  23.832  23.916  0.1687  0.0693  0.0529
 1149W        W 2013  23.773  21.522  24.230 -0.1907 -0.1105 -0.0454
 1150W        W 2014  26.956  24.032  24.518 -0.1914  0.2028 -0.0482
 1151W        W 2015  23.343  22.736  25.178 -0.0866 -0.3781 -0.2192
 1152W        W 2016   0.230  21.975  20.764  0.1806  0.0086 -0.4266
 1153W        W 2017   1.607  22.237  21.282  0.3013  0.0257 -0.3498
 1154W        W 2018  27.899  23.124  22.838  0.0895 -0.2200  0.0622
 1155W        W 2019  26.205  25.820  24.500  0.2277 -0.0895 -0.0716
 1156W        W 2020  26.559  25.305  21.979  0.2606 -0.1181 -0.2558
 1157W        W 2021  23.412  20.322  21.148  0.0556  0.0056 -0.3546
 1158W        W 2022  25.333  24.395  23.625  0.0959  0.0030  0.1203
 1159W        W 2023  28.136  24.391  25.284 -0.1657 -0.3000 -0.2192
 1160W        W 2024  26.099  22.235  24.965 -0.1257 -0.1401 -0.0602
 1161W        W 2025  26.603  23.518  22.912  0.0630  0.0896 -0.1904
 1162W        W 2026  28.959  21.406  25.257 -0.2158  0.0695 -0.0045
 1163W        W 2027  28.940  21.673  24.181 -0.0943 -0.0694  0.1516
 1164W        W 2028  26.076  24.591  24.590  0.2643  0.1010 -0.1322
 1165W        W 2029  27.552  20.689  22.378 -0.0194  0.0302  0.0822
 1166W        W 2030  26.928  22.496  25.985 -0.0246  0.0849  0.3681
 1167W        W 2031  27.914  25.212  23.652  0.0004 -0.1058  0.2200
 1168W        W 2032  28.280  26.893  25.967 -0.1295 -0.3539  0.3967
 1169W        W 2033  28.130  25.467  20.666 -0.0238  0.0851  0.1157
 1170W        W 2034  27.335  21.708  21.069  0.0104 -0.1332 -0.1536
 1171W        W 2035   1.999  22.274  23.914 -0.0558 -0.1336  0.1128
 1172W        W 2036  28.090  24.916  20.020  0.1140  0.2634  0.6214
 1173W        W 2037  29.148  22.261  24.314 -0.1799  0.3810 -0.1663
 1174W        W 2038  24.754  24.306  23.266  0.0203  0.0289 -0.1552
 1175W        W 2039  27.588  22.390  27.088  0.2045  0.2878  0.0780
 1176W        W 2040  28.806  24.256  22.559  0.1749 -0.0069 -0.1585
 1177W        W 2041  26.105  22.113  26.896 -0.0222  0.2144  0.2158
 1178W        W 2042  25.926  24.186  28.006 -0.1793 -0.2297  0.0955
 1179W        W 2043   1.170  25.871  25.000 -0.1311  0.0939  0.1968
 1180W        W 2044  28.108  22.280  27.230 -0.0235 -0.1086 -0.2628
 1181W        W 2045  26.858  20.819  25.414 -0.1269 -0.2795  0.1047
 1182W        W 2046  25.832  23.697  25.009  0.2200  0.2594  0.1299
 1183W        W 2047  25.585  22.190  23.556 -0.0238  0.1797 -0.1482
 1184W        W 2048  23.150  23.783  23.947 -0.0270 -0.1380 -0.0826
 1185W        W 2049   0.640  21.899  24.804  0.0054  0.0279 -0.2327
 1186W        W 2050   3.153  27.615  23.393  0.0596  0.2487 -0.2292
 1187W        W 2051  28.184  23.831  25.508 -0.1879 -0.3677 -0.1664
 1188W        W 2052  27.718  28.007  23.558  0.0002  0.3337  0.1898
 1189W        W 2053   0.306  26.018  24.185 -0.2368  0.0560 -0.0259
 1190W        W 2054  26.356  26.305  22.246 -0.2531  0.2944 -0.1162
 1191W        W 2055   0.167  22.331  25.189  0.1570 -0.1915  0.0082
 1192W        W 2056  27.030  22.796  26.641  0.2492  0.0042 -0.2979
 1193W        W 2057  24.781  27.138  25.463 -0.5123  0.0353  0.0575
 1194W        W 2058   0.908  26.601  23.572 -0.3731 -0.1030 -0.0384
 1195W        W 2059  25.821  25.609  24.103  0.3760  0.2448  0.0464
 1196W        W 2060  26.047  23.286  25.109 -0.1282  0.0231  0.0721
 1197W        W 2061   0.360  21.162  24.384  0.0556 -0.2198  0.0511
 1198W        W 2062  28.520  25.483  21.731 -0.0229 -0.0245  0.0769
 1199W        W 2063  26.211  24.644  27.690 -0.1326 -0.2298 -0.0105
 1200W        W 2064  26.983  23.986  23.595  0.0217 -0.1330  0.0207
 1201W        W 2065  26.573  22.216  21.635 -0.1032  0.0778  0.2426
 1202W        W 2066  24.848  24.819   2.016 -0.0127 -0.0671 -0.2275
 1203W        W 2067  25.509  23.788  28.827 -0.0628  0.0734 -0.1433
 1204W        W 2068  27.978  23.922  25.097 -0.3644 -0.0315  0.0031
 1205W        W 2069  28.954  28.154  27.207 -0.0831 -0.0023  0.0348
 1206W        W 2070  24.518  23.991  23.701  0.0047  0.1857 -0.1112
 1207W        W 2071  28.474  23.497  27.825 -0.2486  0.1061  0.0744
 1208W        W 2072  25.410  24.136  27.935 -0.0298 -0.0295 -0.0454
 1209W        W 2073  27.185  25.637  24.696  0.2054  0.0213  0.0124
 1210W        W 2074  26.076  25.177   3.150 -0.1446 -0.2748  0.0645
 1211W        W 2075  27.066  19.746  27.995  0.3654  0.0011  0.3752
 1212W        W 2076  26.866  21.854  26.715 -0.0469 -0.0442  0.3568
 1213W        W 2077   0.806  22.016  27.661  0.0201 -0.4092 -0.0865
 1214W        W 2078   1.423  21.755  26.132  0.0832  0.0622 -0.0245
 1215W        W 2079  26.911  20.960   1.044 -0.4444  0.0157  0.2818
 1216W        W 2080  25.992  19.508  27.287 -0.3399  0.0069 -0.1985
 1217W        W 2081  23.226  23.209   1.322  0.2189 -0.0072  0.0878
 1218W        W 2082  28.088  26.254  28.715 -0.0681  0.2051 -0.1291
 1219W        W 2083  27.296  23.991  28.062 -0.0491 -0.3805 -0.1482
 1220W        W 2084  27.062  23.107  27.049 -0.0882  0.0185  0.1413
 1221W        W 2085   0.521  24.333  27.223  0.0961  0.0296 -0.0209
 1222W        W 2086   1.591  22.245  27.473  0.2792  0.2184 -0.0839
 1223W        W 2087   1.241  25.827   0.130 -0.3108 -0.1190  0.1827
 1224W        W 2088  27.240  24.934  28.453  0.0970 -0.1823 -0.1075
 1225W        W 2089  25.342  25.339  25.356 -0.1648  0.3925  0.1413
 1226W        W 2090  26.502  21.552   0.266  0.1682  0.0340  0.1602
 1227W        W 2091  27.953  21.394  28.663  0.2812 -0.0883  0.0362
 1228W        W 2092   0.322  23.077  26.787  0.4776  0.0982 -0.0325
 1229W        W 2093  27.199  24.004  27.475 -0.1960  0.4139 -0.0915
 1230W        W 2094  27.716  25.843   0.849 -0.2617 -0.0156 -0.2388
 1231W        W 2095   0.487  21.445  24.886 -0.0810  0.1676  0.1032
 1232W        W 2096   0.247  27.899  28.884  0.2116 -0.3374  0.0820
 1233W        W 2097  26.029  23.327   0.057  0.0738  0.5896  0.1543
 1234W        W 2098  29.039  23.292  25.660 -0.1009  0.0666  0.1364
 1235W        W 2099  26.834  26.212  28.496 -0.0774  0.1016  0.2058
 1236W        W 2100   0.569  20.233   1.042 -0.1734  0.1689 -0.0648
 1237W        W 2101  28.820  25.594  27.829 -0.0457 -0.4009  0.0390
 1238W        W 2102  25.756  20.124  27.473 -0.3603  0.1663 -0.3416
 1239W        W 2103  25.428  23.522  25.778 -0.0014 -0.2497 -0.1235
 1240W        W 2104   2.201  26.123  27.168  0.1323 -0.0700 -0.3680
 1241W        W 2105   0.705  22.700  27.116  0.2813  0.0132 -0.1242
 1242W        W 2106   0.238  24.417  25.911 -0.1937  0.0203  0.2936
 1243W        W 2107  28.371  22.664  27.053  0.0386 -0.1302 -0.1637
 1244W        W 2108   0.523  25.585  28.784  0.2427 -0.1390  0.1447
 1245W        W 2109  28.171  26.985  26.442 -0.1193 -0.0922  0.1247
 1246W        W 2110  26.046  24.628  25.872  0.0200 -0.0805  0.1689
 1247W        W 2111  26.741  24.281  27.377  0.0951 -0.0947  0.2975
 1248W        W 2112  27.171  22.237  27.481  0.0130  0.1677  0.3172
 1249W        W 2113  27.589  25.328   0.575  0.0798 -0.1991  0.1035
 1250W        W 2114  27.480  21.535  28.836 -0.2325 -0.1152  0.1274
 1251W        W 2115   1.225  22.674  25.072 -0.1459  0.1484  0.2548
 1252W        W 2116  27.942  21.676  28.134 -0.1812  0.0707  0.0848
 1253W        W 2117  26.034  22.253  25.470  0.0691  0.3319 -0.3007
 1254W        W 2118  27.061  23.792  28.459 -0.1984  0.1370 -0.1888
 1255W        W 2119   0.972  25.146  28.131 -0.0061 -0.2090  0.0132
 1256W        W 2120  28.250  22.949  25.264 -0.0098 -0.2044  0.1900
 1257W        W 2121  25.500  28.051  27.523 -0.0952 -0.4087 -0.1347
 1258W        W 2122  27.304  21.825  27.729 -0.2713  0.0507  0.0654
 1259W        W 2123  28.944  25.955   0.137  0.3686  0.1684 -0.3298
 1260W        W 2124  25.866  23.951  27.473  0.2210  0.1803 -0.0070
 1261W        W 2125  27.752  24.524  25.971  0.0446 -0.2478 -0.0180
 1262W        W 2126  27.867  24.764  26.560 -0.0084  0.1044 -0.2562
 1263W        W 2127  26.602  22.310  26.913  0.0656 -0.1795 -0.1866
 1264W        W 2128  25.791  22.791   0.122  0.0901  0.2157  0.0396
 1265W        W 2129  26.525  24.466  28.083 -0.1872  0.2135 -0.3005
 1266W        W 2130  26.838  19.940  27.464 -0.0066 -0.0397  0.0062
 1267W        W 2131  28.789  21.215  27.146  0.1793  0.1440  0.2699
 1268W        W 2132  25.545  23.742  26.648 -0.2288  0.3463  0.0521
 1269W        W 2133  28.575  24.449  28.723 -0.1410  0.0442 -0.0794
 1270W        W 2134  25.840  26.426  26.247  0.0386  0.0345 -0.2405
 1271W        W 2135  26.933  23.528  28.869  0.2839  0.0287  0.1138
 1272W        W 2136   1.300  25.778  27.807  0.1785 -0.0913 -0.3617
 1273W        W 2137   0.593  23.233  26.370 -0.0023  0.0391 -0.3986
 1274W        W 2138  27.097  26.195   2.079 -0.2945  0.1919  0.2798
 1275W        W 2139  26.955  24.494   1.468 -0.2281 -0.0126  0.0105
 1276W        W 2140   2.230  27.906  27.561  0.2262  0.1377 -0.3258
 1277W        W 2141  27.529  24.282  27.713 -0.0273 -0.0662  0.1144
 1278W        W 2142  26.700  22.513  27.358  0.0529 -0.1847  0.0724
 1279W        W 2143   0.145  21.897  27.007 -0.0361  0.1231 -0.0024
 1280W        W 2144  28.594  21.007  23.014 -0.1169 -0.3336  0.2323
 1281W        W 2145  28.354  24.835  27.265 -0.0942 -0.1586  0.2136
 1282W        W 2146  27.399  22.926  28.493  0.2164  0.2196 -0.1040
 1283W        W 2147  25.736  23.028   1.735 -0.2495  0.3159  0.0191
 1284W        W 2148  26.779  21.653  25.499  0.0768 -0.1586  0.1991
 1285W        W 2149  27.506  21.690   0.200  0.1556 -0.1125  0.2109
 1286W        W 2150  23.906  21.047   0.257 -0.0172  0.1651 -0.0388
 1287W        W 2151   0.731  22.821  26.654 -0.1863  0.1130 -0.0972
 1288W        W 2152  28.160  26.144   0.830  0.0196  0.3120 -0.0281
 1289W        W 2153  27.459  23.760   1.093 -0.0713 -0.0940  0.0900
 1290W        W 2154  25.627  23.384  28.353 -0.1938  0.0707  0.1592
 1291W        W 2155  28.785  25.235   1.159  0.1282 -0.0319  0.2886
 1292W        W 2156  29.032  20.567  27.165 -0.0025 -0.1640 -0.2555
 1293W        W 2157   1.434  22.252  26.065 -0.0660  0.4063  0.1040
 1294W        W 2158  29.029  23.665  27.471 -0.1980  0.0205  0.1219
 1295W        W 2159  27.771  22.641  26.033  0.2133  0.0302  0.0704
 1296W        W 2160  26.915  21.255  25.229  0.1983 -0.1153  0.1552
 1297W        W 2161  28.087  21.182  27.725  0.2264 -0.0179  0.1044
 1298W        W 2162  29.065  22.728  24.640  0.3435 -0.0719 -0.1614
 1299W        W 2163  27.213  24.327  28.833 -0.1536  0.2106  0.4032
 1300W        W 2164  27.654  21.473  24.634 -0.0909 -0.1068  0.0944
 1301W        W 2165  28.473  23.781  25.114  0.1977  0.1651  0.0332
 1302W        W 2166   1.114  23.448  24.678  0.1350  0.0810 -0.2047
 1303W        W 2167  27.413  22.267  27.973 -0.2975 -0.2646  0.0323
 1304W        W 2168  26.776  22.026  23.433  0.2697  0.0458 -0.4411
 1305W        W 2169   1.623  25.373  27.688 -0.0180  0.1642  0.2784
 1306W        W 2170   0.196  22.307   0.120 -0.1306 -0.2391 -0.1938
 1307W        W 2171  26.359  23.491   1.187 -0.2004 -0.0025 -0.1442
 1308W        W 2172  26.687  25.980  24.762  0.2225 -0.3315 -0.0907
 1309W        W 2173  26.405  23.633   0.188  0.0922  0.0865  0.0103
 1310W        W 2174  28.011  23.037   0.128 -0.0751  0.2861  0.0257
 1311W        W 2175  26.602  23.376  27.149 -0.1568  0.1901  0.0731
 1312W        W 2176  27.335  23.258  26.517 -0.0340  0.1357 -0.3107
 1313W        W 2177  28.517  25.564  26.581  0.0459 -0.1585 -0.1732
 1314W        W 2178  28.155  24.441  29.124 -0.3109  0.0973 -0.0414
 1315W        W 2179  25.943  24.574  26.769  0.0621  0.0636  0.1096
 1316W        W 2180  27.108  24.005  25.518 -0.0323 -0.0967 -0.0003
 1317W        W 2181  26.302  24.537  26.306  0.0123  0.0759 -0.0969
 1318W        W 2182   0.290  23.018  28.580 -0.1991  0.1070  0.1766
 1319W        W 2183   0.586  24.262   0.820  0.1078 -0.1814  0.0171
 1320W        W 2184   2.051  22.151  29.068  0.3569 -0.3137  0.2001
 1321W        W 2185  28.576  22.508  26.024  0.0064  0.1452  0.3144
 1322W        W 2186  28.337  23.635  23.319  0.1647 -0.1593  0.1560
 1323W        W 2187   0.149  26.383  23.737  0.3734 -0.3761  0.0550
 1324W        W 2188  28.164  25.057  25.232 -0.2612  0.1292 -0.0999
 1325W        W 2189  28.270  23.607  26.475  0.2555 -0.2145  0.2117
 1326W        W 2190  27.650  27.683  25.863  0.1458 -0.0394 -0.1707
 1327W        W 2191  27.758  20.515  23.212  0.2441 -0.0196  0.2313
 1328W        W 2192  25.901  23.506  28.738  0.0903  0.1538  0.1973
 1329W        W 2193  27.869  26.184   0.106  0.2531 -0.2146 -0.0964
 1330W        W 2194   0.714  26.355  28.376 -0.2632 -0.1996  0.0886
 1331W        W 2195  26.201  25.663  26.373  0.0189  0.1269 -0.0046
 1332W        W 2196  26.386  25.230   0.650  0.4955  0.2249 -0.0236
 1333W        W 2197  26.697  21.684  28.956  0.0974  0.2259 -0.0693
 1334W        W 2198  27.064  25.382   0.434 -0.1270 -0.0780 -0.0528
 1335W        W 2199   0.025  24.149  26.256  0.1084 -0.0155  0.1914
 1336W        W 2200   0.569  22.978  25.766  0.3662 -0.1271  0.0304
 1337W        W 2201  24.332  23.198  28.607  0.0998  0.3331 -0.1457
 1338W        W 2202  27.678  24.434  28.862  0.0840 -0.0104 -0.1207
 1339W        W 2203  27.142  23.064  28.986 -0.0784 -0.3801 -0.0550
 1340W        W 2204  28.165  25.395  28.301 -0.0355 -0.1627 -0.2209
 1341W        W 2205  25.681  25.292  22.956  0.2097 -0.2288  0.2023
 1342W        W 2206  25.967  21.996  25.966 -0.2302  0.0468  0.0902
 1343W        W 2207  23.663  22.084  28.491  0.0825  0.0791  0.0128
 1344W        W 2208  28.850  24.207  27.422 -0.0058  0.0221 -0.4895
 1345W        W 2209   0.059  23.295  26.330  0.2206 -0.0024  0.0246
 1346W        W 2210   0.133  21.448  27.329  0.2019  0.0211 -0.0709
 1347W        W 2211  27.863  22.833  27.752 -0.1945 -0.3408  0.0007
 1348W        W 2212  29.126  22.398  27.377  0.1006 -0.0285  0.2027
 1349W        W 2213   0.268  22.268  25.756  0.1229 -0.0678  0.0865
 1350W        W 2214  27.405  25.029   0.923 -0.0129 -0.2780 -0.1616
 1351W        W 2215  27.113  24.587  27.869 -0.2776 -0.2323 -0.0051
 1352W        W 2216  29.097  26.062  27.844  0.1004 -0.0949  0.2158
 1353W        W 2217  25.332  23.563  25.284  0.2777 -0.0685  0.0658
 1354W        W 2218  27.880  24.558  27.187 -0.2299 -0.1176 -0.0607
 1355W        W 2219   0.171  24.273  27.586 -0.1648  0.1599 -0.2121
 1356W        W 2220  25.779  20.694  27.218  0.2457  0.0290 -0.0966
 1357W        W 2221   0.733  24.423  27.716  0.3454  0.1473  0.1264
 1358W        W 2222  28.312  20.781  27.930  0.0063 -0.0416 -0.0493
 1359W        W 2223   0.485  21.855  28.179 -0.1019 -0.0681  0.1041
 1360W        W 2224  27.464  21.188  25.380  0.0074 -0.2209 -0.0041
 1361W        W 2225  25.891  23.438  26.004  0.2605  0.0581 -0.1865
 1362W        W 2226  28.498  23.186  26.991 -0.2223  0.0129 -0.1999
 1363W        W 2227  26.046  24.678   1.801  0.0609 -0.3394  0.2974
 1364W        W 2228  26.269  23.921  28.192 -0.0676 -0.4057  0.2296
 1365W        W 2229  27.980  23.907  27.677 -0.1009 -0.0335 -0.2477
 1366W        W 2230  26.952  21.089  28.450 -0.0577 -0.0995 -0.2526
 1367W        W 2231  28.031  21.180  26.157 -0.1960 -0.0445  0.0720
 1368W        W 2232  25.060  24.965  26.696 -0.1144 -0.1524 -0.1742
 1369W        W 2233  26.257  22.635  27.112  0.1819  0.3190  0.1761
 1370W        W 2234  25.874  24.033   0.471  0.3637 -0.0046 -0.1042
 1371W        W 2235  27.277  23.574  26.122 -0.2067  0.0607 -0.0851
 1372W        W 2236  27.642  23.975  25.931  0.3357  0.1149  0.0292
 1373W        W 2237  26.294  23.821  27.218 -0.1382  0.1466  0.0697
 1374W        W 2238  29.018  24.958  27.808 -0.2402 -0.0044 -0.0403
 1375W        W 2239   0.393  25.511  28.319 -0.0734 -0.1713 -0.2109
 1376W        W 2240   1.125  20.707  27.747 -0.1172 -0.0082 -0.2835
 1377W        W 2241  28.885  24.925  26.920  0.0708 -0.2033 -0.2258
 1378W        W 2242  26.992  23.419  27.419 -0.0348  0.2721 -0.0869
 1379W        W 2243  27.665  26.202  26.637 -0.0765  0.0152 -0.4670
 1380W        W 2244  24.015  24.797  23.948 -0.0622  0.1558 -0.1068
 1381W        W 2245  26.990  20.305   0.391 -0.1588  0.1905  0.0871
 1382W        W 2246  26.822  24.470  25.468 -0.1941  0.1917 -0.1427
 1383W        W 2247  28.767  23.970  23.426  0.1302 -0.0618  0.0690
 1384W        W 2248  28.274  22.629  27.543 -0.1119  0.0178 -0.0247
 1385W        W 2249  23.376  21.473  23.833 -0.1043  0.0012  0.3099
 1386W        W 2250  25.295  22.443  24.153 -0.0771 -0.0950 -0.0936
 1387W        W 2251  27.886  24.854  29.071 -0.2228 -0.1426  0.1931
 1388W        W 2252   0.873  21.477  26.073 -0.0241 -0.2725 -0.1596
 1389W        W 2253  26.935  23.231  25.141 -0.1710  0.0022  0.1108
 1390W        W 2254  26.865  24.564  27.004 -0.1491  0.0052 -0.0338
 1391W        W 2255  26.196  23.301  28.391 -0.1005  0.0937  0.1815
 1392W        W 2256  28.124  23.152  26.175  0.4618  0.2219  0.1173
 1393W        W 2257  26.986  26.641  28.268  0.1203  0.3372 -0.0080
 1394W        W 2258  26.317  24.200  27.514 -0.0467 -0.0082  0.0912
 1395W        W 2259  26.149  25.158  28.035 -0.1063  0.1377 -0.2155
 1396W        W 2260  28.359  22.208   0.200 -0.0663 -0.2243  0.2287
 1397W        W 2261  27.453  22.629  27.510 -0.0368  0.1875  0.0092
 1398W        W 2262  28.675  22.119  28.275  0.1951  0.2847  0.0570
 1399W        W 2263  26.149  22.379  28.377  0.2552  0.3439 -0.3954
 1400W        W 2264  24.251  20.043  26.891 -0.2582 -0.0244 -0.5352
 1401W        W 2265   1.246  22.817  28.676 -0.1309  0.0309  0.1626
 1402W        W 2266  27.508  21.290  28.399  0.0241 -0.0592  0.3095
 1403W        W 2267   0.003  23.590   0.905 -0.0775 -0.2223 -0.0567
 1404W        W 2268   0.387  23.801  23.910 -0.1582 -0.1413  0.0191
 1405W        W 2269  26.392  20.781   0.365 -0.0140 -0.0496  0.0750
 1406W        W 2270  28.119  23.400  28.155 -0.0100 -0.2811 -0.1176
 1407W        W 2271  26.022  22.830  25.249 -0.0778 -0.0468  0.0330
 1408W        W 2272  25.820  23.138   0.473  0.2258 -0.1698  0.0180
 1409W        W 2273  28.786  21.927  27.804  0.1355  0.0464  0.1025
 1410W        W 2274  27.831  23.762  26.718 -0.0034  0.2330 -0.0309
 1411W        W 2275  26.040  24.100  24.760  0.1128  0.1257 -0.1401
 1412W        W 2276  24.494  24.795   3.488 -0.3744 -0.1221 -0.0610
 1413W        W 2277  26.504  24.282  26.899  0.1938  0.0296 -0.3153
 1414W        W 2278  28.012  23.131  26.846  0.2280  0.1500 -0.1754
 1415W        W 2279  26.718  22.737  28.974  0.1008  0.1886  0.2270
 1416W        W 2280  27.552  23.387  28.685 -0.0092 -0.2049 -0.1979
 1417W        W 2281   1.627  24.600  22.403 -0.2996 -0.1562  0.1163
 1418W        W 2282  27.352  26.245  28.346 -0.1029 -0.0073  0.0696
 1419W        W 2283  27.724  25.270  25.126 -0.1069  0.0962 -0.0043
 1420W        W 2284  25.882  24.306   0.932  0.3044 -0.2470  0.1016
 1421W        W 2285  27.211  25.408  28.365 -0.1619  0.3061 -0.1906
 1422W        W 2286   0.194  23.776  29.091 -0.1549  0.3172  0.3537
 1423W        W 2287   0.165  24.757  28.153 -0.1037  0.0862  0.0495
 1424W        W 2288  26.870  27.320   0.105  0.0047  0.1500 -0.2726
 1425W        W 2289  27.809  21.941  26.840 -0.0101 -0.2751 -0.0229
 1426W        W 2290  27.921  24.923  24.301  0.0152 -0.1880 -0.0044
 1427W        W 2291  27.959  22.612  26.743 -0.0780 -0.2178 -0.0446
 1428W        W 2292  26.716  23.426  28.435  0.0025 -0.0247  0.0387
 1429W        W 2293  27.300  23.803  28.943 -0.1747  0.2434 -0.2180
 1430W        W 2294   0.158  25.816  28.994 -0.1155  0.0657 -0.0192
 1431W        W 2295   0.518  20.337  24.854  0.0562  0.2148  0.1284
 1432W        W 2296  24.364  21.576  27.742  0.1673  0.1537 -0.1896
 1433W        W 2297  24.054  23.197   0.357  0.0393  0.0439  0.2084
 1434W        W 2298  28.100  26.814  27.397 -0.0196 -0.1001 -0.0922
 1435W        W 2299   0.840  25.598  27.964  0.0447 -0.2125 -0.2722
 1436W        W 2300  23.572  23.895  28.830 -0.0752  0.1232  0.2544
 1437W        W 2301   1.010  26.216  26.040  0.0207  0.0084 -0.4006
 1438W        W 2302  28.389  23.778  27.358 -0.2007  0.1495  0.1712
 1439W        W 2303   0.344  24.042  28.575 -0.0310 -0.0543  0.3969
 1440W        W 2304  27.834  22.180  26.440 -0.2731  0.0035 -0.1266
 1441W        W 2305  27.293  22.394  28.420 -0.5778 -0.1169 -0.0186
 1442W        W 2306  28.541  24.940  26.181  0.1105  0.1978 -0.0417
 1443W        W 2307  25.052  23.959  28.945  0.0527 -0.0013  0.0267
 1444W        W 2308  27.753  22.947  26.418  0.1528  0.0201  0.1369
 1445W        W 2309   0.222  23.357  24.930  0.1613  0.3030  0.0494
 1446W        W 2310   0.337  24.814  25.625  0.1541  0.0293  0.1136
 1447W        W 2311  26.712  23.245  26.583  0.0060  0.3465 -0.3357
 1448W        W 2312   0.129  25.351  27.708  0.2060 -0.1909  0.1823
 1449W        W 2313  27.382  24.684   2.287 -0.1548  0.0343  0.1481
 1450W        W 2314  27.508  25.879  27.937 -0.1889  0.2829 -0.0367
 1451W        W 2315  27.677  22.903  28.888  0.5275  0.1385  0.0491
 1452W        W 2316  27.775  23.473  26.286 -0.0710  0.1143  0.2505
 1453W        W 2317  26.842  24.546  26.503  0.0291 -0.1932 -0.1608
 1454W        W 2318  28.151  23.835   1.114 -0.0698  0.4021  0.0191
 1455W        W 2319   0.428  25.330  24.979 -0.1790  0.1375  0.0686
 1456W        W 2320  25.883  22.913  28.413 -0.0734  0.1498  0.0604
 1457W        W 2321   0.930  26.008  25.587 -0.0149 -0.1796  0.0591
 1458W        W 2322   0.728  23.532  26.736 -0.0109  0.0963  0.1336
 1459W        W 2323  27.860  21.866  28.615  0.0788  0.1928  0.2696
 1460W        W 2324  28.096  24.637  28.664  0.1323  0.0502 -0.0373
 1461W        W 2325  28.027  23.528  25.875 -0.0221  0.1901 -0.0411
 1462W        W 2326  26.051  23.037  27.873 -0.0688  0.0794  0.1849
 1463W        W 2327  26.414  23.518  28.837 -0.2130  0.0550  0.2578
 1464W        W 2328  27.951  25.733  29.000  0.0890 -0.3833  0.0413
 1465W        W 2329  28.408  24.194  24.846 -0.0670 -0.1324 -0.0757
 1466W        W 2330  27.340  24.892  24.968 -0.1114 -0.2897 -0.1360
 1467W        W 2331  25.865  22.743   2.236 -0.0242 -0.0587  0.0600
 1468W        W 2332  27.369  23.419  27.767 -0.1439  0.1577 -0.1828
 1469W        W 2333  27.805  25.691  27.609  0.0836  0.0988  0.1645
 1470W        W 2334  27.176  24.042   0.221 -0.0405 -0.5366  0.2670
 1471W        W 2335  27.206  23.077  23.596 -0.1013  0.0905 -0.1450
 1472W        W 2336  25.965  24.224  24.199  0.0942  0.3951  0.2328
 1473W        W 2337  27.421  24.000   0.667  0.1300 -0.1530 -0.1217
 1474W        W 2338  26.536  20.764  26.635  0.0618  0.2552  0.2459
 1475W        W 2339  27.733  23.118  23.473 -0.0829  0.0691 -0.0322
 1476W        W 2340  28.356  25.717  28.684 -0.1616  0.3244 -0.0978
 1477W        W 2341  28.239  22.134  28.493  0.0362 -0.1087 -0.0236
 1478W        W 2342  26.384  22.823  28.437  0.2404 -0.1209 -0.0745
 1479W        W 2343  27.996  21.482  27.050  0.0078 -0.0451 -0.1227
 1480W        W 2344  28.990  22.466  26.243 -0.2236  0.0030  0.1464
 1481W        W 2345  24.761  24.857   0.460 -0.1941 -0.2032 -0.1204
 1482W        W 2346  27.296  26.452   0.158 -0.2318  0.0832 -0.0671
 1483W        W 2347  27.873  22.678  25.477  0.1214  0.2013  0.0360
 1484W        W 2348  25.125  24.738  25.133  0.0996 -0.0531  0.0118
 1485W        W 2349  24.237  28.001  27.354  0.2156 -0.0662 -0.2377
 1486W        W 2350  28.349  24.312  27.302 -0.0062 -0.2452  0.0156
 1487W        W 2351  27.210  22.553  28.887 -0.0602 -0.0551 -0.1952
 1488W        W 2352   2.034  25.337  25.023 -0.2720 -0.1470  0.0234
 1489W        W 2353  25.419  23.249   0.100 -0.2353  0.1257  0.0443
 1490W        W 2354   0.006  21.279  22.599 -0.0204  0.2879 -0.1042
 1491W        W 2355   0.671  24.675  24.342  0.2338 -0.2234 -0.0095
 1492W        W 2356  28.632  23.318  26.152 -0.0184 -0.5562  0.2229
 1493W        W 2357  27.424  23.899  25.061  0.1006 -0.2368  0.2815
 1494W        W 2358  26.928  23.584   0.260  0.1082 -0.1149 -0.0997
 1495W        W 2359  25.338  26.815  25.340 -0.1840 -0.0514 -0.3686
 1496W        W 2360  27.758  20.779  24.798 -0.1306  0.2014 -0.2208
 1497W        W 2361   1.298  23.357  25.577  0.0505 -0.0654  0.1846
 1498W        W 2362  27.084  25.387  29.081  0.0605  0.0698  0.0581
 1499W        W 2363   0.317  24.762  27.619 -0.0038 -0.2676 -0.1197
 1500W        W 2364  27.064  24.385   0.580 -0.3485  0.0600 -0.0017
 1501W        W 2365  25.876  23.624   2.439  0.1397  0.2760  0.0206
 1502W        W 2366  26.892  24.061  26.648  0.3196 -0.0252  0.2014
 1503W        W 2367  25.799  20.919   0.250 -0.2438 -0.1567 -0.3104
 1504W        W 2368  26.279  24.376  28.548 -0.1101 -0.1798  0.3047
 1505W        W 2369   0.597  25.285  27.556  0.0059 -0.0599  0.0198
 1506W        W 2370   0.265  23.875  24.993 -0.0768  0.0116 -0.1242
 1507W        W 2371   0.508  26.389  27.637  0.0737 -0.1404  0.0045
 1508W        W 2372  29.097  25.240   1.726  0.2065  0.1279  0.0914
 1509W        W 2373  27.806  23.254  25.487  0.2225 -0.0115 -0.1998
 1510W        W 2374  28.791  23.745  25.475 -0.0781 -0.3481 -0.2906
 1511W        W 2375  26.979  22.006  28.218  0.0677 -0.0697  0.2286
 1512W        W 2376  26.484  22.088  26.476 -0.1113  0.1280  0.2587
 1513W        W 2377  26.793  23.951   0.594  0.2514  0.0857  0.0379
 1514W        W 2378   0.669  23.069  25.035 -0.2980 -0.3531 -0.0944
 1515W        W 2379   0.992  25.258  27.214 -0.3844  0.0077  0.0584
 1516W        W 2380  25.730  25.582   0.110  0.1483 -0.0197  0.4091
 1517W        W 2381  26.233  23.048  28.858  0.1555  0.0777 -0.2610
 1518W        W 2382  27.194  21.830  24.623 -0.1079  0.3038 -0.4938
 1519W        W 2383   1.228  21.318  25.309 -0.1033  0.0543 -0.2735
 1520W        W 2384  26.606  24.150   1.252 -0.0693  0.0932 -0.1197
 1521W        W 2385  26.865  24.453   0.145 -0.0237 -0.4841  0.0209
 1522W        W 2386  26.442  26.656  26.345  0.2902 -0.0180  0.1378
 1523W        W 2387   0.889  22.183  23.806 -0.0139  0.0528 -0.1840
 1524W        W 2388  26.859  20.454   0.961  0.0473 -0.3986  0.1902
 1525W        W 2389  28.348  23.876  26.886  0.1086  0.1585 -0.3103
 1526W        W 2390  27.327  23.493  23.487  0.2721  0.1230  0.0117
 1527W        W 2391  28.025  25.270  28.773  0.3640  0.1356  0.0402
 1528W        W 2392   0.002  22.764  25.532  0.0955 -0.0169  0.2072
 1529W        W 2393  24.354  22.676  26.827  0.1835  0.0717 -0.0003
 1530W        W 2394  28.091  24.344  26.764 -0.0352  0.0596  0.2299
 1531W        W 2395  28.387  25.982  26.041  0.2007 -0.0958 -0.1743
 1532W        W 2396   0.625  23.370  28.922  0.0963 -0.3593  0.1313
 1533W        W 2397   0.372  21.554  25.387 -0.4158 -0.2550  0.1644
 1534W        W 2398   2.806  24.394   0.214  0.0339 -0.0381  0.1276
 1535W        W 2399  28.031  25.172   0.736  0.0541  0.1671 -0.0134
 1536W        W 2400  28.595  25.625  28.245 -0.2365  0.2016  0.0775
 1537W        W 2401  25.338  26.083   0.645 -0.0990  0.1040  0.1660
 1538W        W 2402  29.125  25.786  28.247  0.0247 -0.2465 -0.0045
 1539W        W 2403  28.134  20.726  28.398 -0.0037  0.2302 -0.0027
 1540W        W 2404  29.049  22.357  28.499 -0.0968  0.0304 -0.1858
 1541W        W 2405  26.629  24.956  25.688 -0.0723 -0.2100  0.3192
 1542W        W 2406  26.084  23.910  28.632  0.0570  0.2082 -0.2420
 1543W        W 2407  28.878  21.144  26.647  0.3250 -0.0790 -0.0677
 1544W        W 2408  26.061  24.668  28.178  0.3339 -0.2505 -0.2655
 1545W        W 2409  26.600  25.874  28.179  0.0536  0.1086 -0.0648
 1546W        W 2410  26.620  24.402   0.795 -0.0683 -0.1717 -0.0286
 1547W        W 2411  26.276  25.142  27.507  0.2076 -0.0198 -0.2474
 1548W        W 2412  24.057  22.406  28.545 -0.0974 -0.0664 -0.2098
 1549W        W 2413  27.014  24.517  24.382  0.1584  0.2449  0.2565
 1550W        W 2414  25.175  23.732  24.218 -0.1257  0.1355 -0.1242
 1551W        W 2415   0.157  22.787  27.730 -0.1111 -0.0117  0.0369
 1552W        W 2416  24.038  21.196  23.918  0.1930 -0.2007 -0.0106
 1553W        W 2417   2.394  27.057  28.109  0.1351 -0.0830  0.4649
 1554W        W 2418  27.921  25.258  25.706 -0.2764 -0.0633 -0.0968
 1555W        W 2419  29.133  24.102  24.113 -0.1798 -0.0445 -0.1472
 1556W        W 2420  27.647  23.735  25.488 -0.0899  0.4869  0.0856
 1557W        W 2421  26.380  26.809  26.804  0.1328 -0.0757 -0.1897
 1558W        W 2422  27.933  21.264   0.656  0.1788 -0.3985 -0.2045
 1559W        W 2423  27.267  20.836  27.927  0.3353  0.0274  0.0904
 1560W        W 2424  26.211  24.093  25.947 -0.0125 -0.1602 -0.0324
 1561W        W 2425  23.440  24.218  26.018 -0.2784 -0.4464  0.0279
 1562W        W 2426  26.683  24.808  27.711 -0.0757 -0.0912 -0.2822
 1563W        W 2427  28.266  22.110  26.108 -0.1912  0.0900 -0.0391
 1564W        W 2428  26.978  23.130  26.146  0.0369  0.1454  0.1666
 1565W        W 2429  28.143  28.011  28.412  0.2228  0.0080  0.2535
 1566W        W 2430  27.023  25.690  27.965  0.1834  0.5072 -0.0658
 1567W        W 2431  28.018  26.099  27.795 -0.1839 -0.0496  0.3839
 1568W        W 2432   1.478  22.872  25.708  0.3068  0.0138  0.0753
 1569W        W 2433  25.416  22.795  24.456 -0.4398  0.2387  0.1554
 1570W        W 2434   1.561  21.278  26.313  0.0209 -0.2800 -0.1610
 1571W        W 2435  26.688  23.160  25.626 -0.0377 -0.0530  0.0424
 1572W        W 2436   0.758  21.807  26.761 -0.1034  0.1548  0.1084
 1573W        W 2437  28.813  22.136  26.923 -0.2108  0.1418 -0.0095
 1574W        W 2438  29.054  25.437  26.868  0.0298 -0.2369  0.2721
 1575W        W 2439  29.025  26.221  24.348 -0.1569  0.2699  0.0369
 1576W        W 2440  28.839  21.803  27.300  0.1943  0.2198  0.2649
 1577W        W 2441  27.737  23.736  28.069 -0.1466  0.0474 -0.0455
 1578W        W 2442  27.555  23.961  28.530 -0.0829  0.2250 -0.1028
 1579W        W 2443  27.556  23.380  26.936  0.1363  0.0114 -0.1197
 1580W        W 2444  23.086  23.581  29.062 -0.0797 -0.2694  0.1418
 1581W        W 2445  26.719  23.205  29.139 -0.2330  0.0534 -0.2009
 1582W        W 2446  25.798  24.332  28.812 -0.1970  0.1001 -0.0299
 1583W        W 2447  26.417  24.683  27.248 -0.2105  0.1954 -0.2281
 1584W        W 2448  27.062  23.541  26.828  0.3012  0.0204 -0.0905
 1585W        W 2449  26.654  25.712  27.550 -0.0251 -0.2810 -0.1238
 1586W        W 2450  27.218  17.853  27.943 -0.1208  0.3037  0.0732
 1587W        W 2451  26.238  25.735   0.382 -0.1133 -0.1977 -0.1544
 1588W        W 2452  28.833  23.114  28.013  0.1135 -0.0238  0.2269
 1589W        W 2453  27.480  25.120   0.121 -0.0926 -0.2001 -0.0116
 1590W        W 2454  28.073  25.763  25.690  0.1801  0.0166 -0.1420
 1591W        W 2455  26.693  24.610  28.761 -0.0541  0.0643 -0.0286
 1592W        W 2456  25.844  24.197  26.353 -0.0647  0.1366 -0.2591
 1593W        W 2457  28.937  22.887  26.564 -0.0178  0.1603 -0.1297
 1594W        W 2458   0.754  25.568   0.691 -0.1398 -0.2415  0.1223
 1595W        W 2459  28.659  25.261  28.568  0.0409 -0.0221  0.2474
 1596W        W 2460  27.027  23.157   1.672  0.2382 -0.0267  0.0414
 1597W        W 2461  27.210  25.864  28.591 -0.2301 -0.1327  0.0578
 1598W        W 2462  26.836  25.413   1.509 -0.0854 -0.0319 -0.2132
 1599W        W 2463  28.436  23.041  26.529 -0.0127  0.0911 -0.2194
 1600W        W 2464  27.932  24.073  27.164 -0.1847 -0.2819 -0.2421
 1601W        W 2465  27.121  29.054   4.423  0.0161  0.3688 -0.2839
 1602W        W 2466  24.969  27.525   5.020 -0.2027  0.1503 -0.2828
 1603W        W 2467   1.773  27.817  28.829 -0.0127  0.1316  0.3462
 1604W        W 2468   0.255  28.499   4.332 -0.2129 -0.2674 -0.2345
 1605W        W 2469  28.493  28.655   0.025 -0.0897 -0.2008 -0.1895
 1606W        W 2470  27.863  28.443   2.188  0.1243 -0.1056  0.0973
 1607W        W 2471  25.239  24.937   2.807  0.1488 -0.0702  0.1623
 1608W        W 2472   0.369  27.105   1.368  0.2600 -0.3786  0.0035
 1609W        W 2473  25.626  26.812   3.169 -0.1338 -0.1633 -0.2600
 1610W        W 2474  26.288  24.959   3.574  0.1410  0.0640 -0.1440
 1611W        W 2475  25.511  23.087   4.339 -0.1136 -0.4286 -0.1485
 1612W        W 2476  26.587  25.093   3.221  0.0420 -0.0360  0.3069
 1613W        W 2477  25.629  27.059   1.329 -0.0345 -0.0644  0.1092
 1614W        W 2478  26.146  27.614   3.777  0.0157  0.0178 -0.1570
 1615W        W 2479  24.509  26.134   0.002  0.0758 -0.0885 -0.1799
 1616W        W 2480  24.636  28.269   5.738  0.0037 -0.0934 -0.2954
 1617W        W 2481  28.017   0.017   0.368  0.1574 -0.0925 -0.0579
 1618W        W 2482  25.002  26.822   4.338 -0.0900  0.1456 -0.1435
 1619W        W 2483  26.386  26.033   3.225  0.2236  0.1437 -0.0349
 1620W        W 2484  28.766  27.423   1.006 -0.0074 -0.3803 -0.1185
 1621W        W 2485   1.610  26.773   3.563  0.0826  0.0233  0.1691
 1622W        W 2486  25.623  26.291   2.527  0.0728  0.2803 -0.0393
 1623W        W 2487  25.794  29.141   1.962 -0.0271  0.0880  0.1611
 1624W        W 2488  25.416  23.806   2.267 -0.0515  0.2322  0.0633
 1625W        W 2489  24.193  27.096   1.561  0.3441  0.0017  0.1237
 1626W        W 2490   0.912  27.527   1.902 -0.0340 -0.2602  0.2499
 1627W        W 2491   1.576  27.802   3.345  0.1942  0.0066  0.0883
 1628W        W 2492  24.399  28.861   0.758 -0.0588 -0.4479  0.0122
 1629W        W 2493  28.105  28.056   3.454  0.0598  0.1882 -0.2693
 1630W        W 2494  27.007  27.665   2.375 -0.1503 -0.1179  0.2528
 1631W        W 2495  26.065  27.015   3.103  0.0155  0.0189  0.0272
 1632W        W 2496  27.532   0.429   5.852 -0.2282  0.0006  0.2063
 1633W        W 2497  28.156  26.141   3.642  0.0233 -0.0801 -0.0007
 1634W        W 2498  25.230  25.014   2.284 -0.1161  0.1000 -0.1561
 1635W        W 2499  23.826  25.956   4.933  0.2960  0.0023  0.1016
 1636W        W 2500   2.650   0.025   3.909 -0.5197  0.1773  0.1684
 1637W        W 2501  26.155  24.203   1.947  0.0242 -0.1158  0.0531
 1638W        W 2502  24.821  28.804   1.168 -0.0201  0.1371  0.0066
 1639W        W 2503  26.505  28.566   3.763 -0.0858 -0.3521  0.0312
 1640W        W 2504   1.814  25.850   2.883 -0.1341 -0.0381  0.3096
 1641W        W 2505  25.483  25.706   1.079 -0.2598 -0.2395  0.3494
 1642W        W 2506   1.080  27.874   2.262 -0.1652  0.1761 -0.2418
 1643W        W 2507  28.605   0.688   1.589 -0.2394 -0.3956  0.1912
 1644W        W 2508  28.830  29.113  28.282  0.0013  0.2196 -0.0682
 1645W        W 2509  28.664  26.931   0.034  0.0754 -0.1625  0.1312
 1646W        W 2510  27.752  28.239  27.103 -0.1379  0.0313  0.2017
 1647W        W 2511  27.811  26.033   3.191  0.1065  0.1014  0.0337
 1648W        W 2512  27.095  26.671   3.142  0.3030  0.0386  0.2896
 1649W        W 2513  27.037  26.576   1.137 -0.1525  0.1890  0.2102
 1650W        W 2514  24.653  27.469   0.886  0.1341  0.1991 -0.2162
 1651W        W 2515  25.677  27.031   0.328 -0.0993 -0.0794 -0.1919
 1652W        W 2516  26.305  26.203   0.570  0.2225  0.0443 -0.4938
 1653W        W 2517  26.346  29.144   1.680  0.3363  0.0536  0.2352
 1654W        W 2518  26.012  28.824   1.467 -0.1623  0.3485 -0.2633
 1655W        W 2519  26.569  25.337   2.313  0.0340 -0.0973 -0.0723
 1656W        W 2520  25.815   0.439   0.938 -0.0542  0.0215 -0.1032
 1657W        W 2521  26.517  26.876   2.192 -0.0934  0.0985 -0.1543
 1658W        W 2522   1.383  25.525   2.164 -0.3790  0.3017  0.0414
 1659W        W 2523  25.056  28.859   1.700 -0.0828  0.0990 -0.2327
 1660W        W 2524  27.253  25.686   2.293  0.3967  0.1096  0.1228
 1661W        W 2525   0.660  26.720   1.321 -0.0453  0.1495  0.0901
 1662W        W 2526  24.171   0.159   3.574  0.1758  0.1013  0.1871
 1663W        W 2527  27.560  28.216   5.604 -0.3491 -0.3052 -0.1868
 1664W        W 2528  24.968  28.084   2.426  0.2045 -0.3171 -0.3778
 1665W        W 2529  23.624  27.459   4.320 -0.0324  0.0050 -0.2299
 1666W        W 2530  28.958  27.228   0.421  0.1673  0.0766 -0.0935
 1667W        W 2531  24.688   1.542   1.995  0.0280 -0.1725 -0.0886
 1668W        W 2532  26.530  26.921   1.689  0.1426 -0.1567 -0.3435
 1669W        W 2533  26.605   0.310   2.798 -0.3025  0.3418  0.0965
 1670W        W 2534  26.186  28.751   1.964 -0.1810  0.2269  0.1171
 1671W        W 2535  26.629   1.733   3.413  0.1885  0.1556 -0.0544
 1672W        W 2536   0.678  23.815   0.200 -0.1108  0.1741 -0.0185
 1673W        W 2537  26.742  27.768   1.940 -0.0957  0.3428 -0.1419
 1674W        W 2538  28.812  27.095   3.814  0.1601 -0.0714  0.0615
 1675W        W 2539  27.831  27.115   1.466  0.0130  0.1907  0.1307
 1676W        W 2540  24.968  28.750   2.714  0.0382 -0.0625 -0.1664
 1677W        W 2541  25.683  27.388  28.575  0.2382 -0.0778 -0.0814
 1678W        W 2542  25.638  25.872   3.652 -0.0661 -0.1640  0.1501
 1679W        W 2543  27.276  27.896   1.972 -0.2440  0.0251 -0.1196
 1680W        W 2544  26.867  27.994   0.376  0.4658 -0.0166  0.0380
 1681W        W 2545  24.808  27.357   3.420  0.2106 -0.0703 -0.4080
 1682W        W 2546  26.802  24.957   1.399  0.1972 -0.0463 -0.0059
 1683W        W 2547  27.819  28.259   0.586  0.1865  0.3133  0.0011
 1684W        W 2548  27.674  27.090   3.822  0.0588  0.1663  0.0712
 1685W        W 2549  29.114  26.388   4.005 -0.0177  0.0713  0.2260
 1686W        W 2550   2.573  28.880   3.070  0.1915  0.2633 -0.2936
 1687W        W 2551   0.350   1.317   3.421  0.2208  0.2851 -0.2046
 1688W        W 2552  28.300  26.820   2.910 -0.0913  0.1117 -0.2789
 1689W        W 2553   0.306  28.336   2.158  0.3655  0.1551 -0.0251
 1690W        W 2554  25.750  27.151   5.930 -0.0993 -0.0878  0.0483
 1691W        W 2555   0.695  25.240   2.354  0.1291  0.0674  0.1815
 1692W        W 2556  28.149  27.644   5.648 -0.0288  0.0779  0.0183
 1693W        W 2557  24.828  28.453  28.489 -0.1170 -0.0317  0.3907
 1694W        W 2558  26.544  28.678   0.234 -0.1746  0.0064 -0.0106
 1695W        W 2559  25.497  28.557   5.323  0.0669  0.3476  0.1042
 1696W        W 2560  26.531  26.485   1.867 -0.0197 -0.1544  0.0871
 1697W        W 2561   0.257  26.219   2.928  0.3361 -0.0682 -0.1822
 1698W        W 2562  28.289   0.464   4.471  0.2232 -0.1650  0.1953
 1699W        W 2563  23.707  27.006   1.168  0.2443 -0.1269 -0.1095
 1700W        W 2564   0.905  27.589   4.041 -0.0643 -0.1272 -0.1185
 1701W        W 2565   1.464   0.838   0.094  0.3014  0.1893  0.0730
 1702W        W 2566  28.018  28.027   2.445  0.1519  0.3154 -0.2643
 1703W        W 2567   0.286  26.047   0.268  0.4096  0.2001 -0.0741
 1704W        W 2568  28.267  28.784   2.295 -0.1332  0.2488 -0.3540
 1705W        W 2569   0.050  25.546   5.067  0.0768  0.0193  0.1041
 1706W        W 2570   0.138  28.221   1.718  0.1076  0.4476  0.0749
 1707W        W 2571  28.594  27.563  28.445 -0.0011 -0.0206 -0.0105
 1708W        W 2572  26.493  28.630   2.398  0.3427  0.0128  0.1598
 1709W        W 2573  26.417  24.249   0.377  0.0040 -0.0342 -0.0757
 1710W        W 2574  24.688  26.303   2.645 -0.0071  0.0182  0.2337
 1711W        W 2575  27.554  27.444   4.361 -0.1383 -0.3129 -0.1096
 1712W        W 2576  28.244  28.820   3.648  0.0705 -0.0338  0.0191
 1713W        W 2577  28.423  27.889   4.429  0.0314  0.2268 -0.0272
 1714W        W 2578  27.095   1.233   2.786 -0.0029 -0.0397  0.0935
 1715W        W 2579  28.838  26.339  27.442  0.1769  0.2995  0.1994
 1716W        W 2580  27.865   0.006   2.658  0.0327 -0.1139  0.2559
 1717W        W 2581   0.824  24.483   3.293 -0.1795 -0.2604 -0.0221
 1718W        W 2582  26.132  27.489   2.797  0.1751 -0.0677  0.1096
 1719W        W 2583   0.289  26.917   2.081 -0.0158  0.3929 -0.1912
 1720W        W 2584   2.459  28.386  28.423 -0.0893  0.3372  0.0782
 1721W        W 2585  28.264  26.457   2.519 -0.2337  0.1759  0.1050
 1722W        W 2586   0.071  27.573   1.393  0.1795 -0.1025 -0.0924
 1723W        W 2587  25.883  28.396   1.707  0.1863 -0.1075 -0.1381
 1724W        W 2588  28.580  28.156  28.054 -0.1020 -0.1132 -0.3000
 1725W        W 2589  23.750  28.673   2.290 -0.2647 -0.3106  0.5513
 1726W        W 2590  27.243  28.392   3.875  0.1799  0.0811  0.0403
 1727W        W 2591  25.740  26.309   3.405 -0.1628 -0.1740 -0.2342
 1728W        W 2592   0.474  27.651   0.873  0.1369  0.2054  0.1198
 1729W        W 2593   1.378  26.832   1.474  0.1752 -0.0717 -0.3028
 1730W        W 2594  23.619  28.740  28.126 -0.0829  0.0989  0.1423
 1731W        W 2595  25.919   0.193   3.741  0.1729  0.1617 -0.2264
 1732W        W 2596  27.350  27.901   2.896  0.0383  0.0033  0.3200
 1733W        W 2597   0.006  28.700   1.881  0.0739  0.1591  0.0886
 1734W        W 2598  28.005  26.240   2.122  0.2025 -0.0473  0.2325
 1735W        W 2599  27.807  24.438   1.643 -0.0653 -0.0161  0.1630
 1736W        W 2600  26.983  24.376   3.810  0.0417 -0.3156  0.0204
 1737W        W 2601   0.353  24.175   3.350  0.0939  0.1365  0.0033
 1738W        W 2602  29.118  27.000   3.322  0.2771  0.0917  0.0446
 1739W        W 2603  28.032  27.526   4.618 -0.0580  0.0757  0.0469
 1740W        W 2604  24.808  26.886   0.812 -0.1292 -0.0954 -0.0273
 1741W        W 2605  25.311  21.409   0.379 -0.1338 -0.1316  0.1887
 1742W        W 2606   1.884  25.646   3.746 -0.2061  0.0824  0.0064
 1743W        W 2607  28.192   1.385  26.935 -0.0578 -0.2052  0.1214
 1744W        W 2608  24.988  24.580   0.810 -0.2533 -0.0490  0.1392
 1745W        W 2609  27.807  28.243   2.865  0.1411 -0.1092  0.0721
 1746W        W 2610  26.430  26.717   3.696  0.0056  0.1272  0.0581
 1747W        W 2611  27.628  27.666   2.566 -0.2578 -0.3421  0.1862
 1748W        W 2612  23.616  28.331   4.661  0.0080  0.1697  0.3583
 1749W        W 2613  26.074  28.481   4.126 -0.2705  0.1764  0.0148
 1750W        W 2614  26.073  26.379   3.757 -0.1676 -0.3274  0.2955
 1751W        W 2615  28.222  28.437   3.172  0.0244 -0.3745  0.2800
 1752W        W 2616  27.835  26.207   2.636  0.2302  0.0193  0.1116
 1753W        W 2617   0.491  28.505   3.521  0.0260  0.0682 -0.2690
 1754W        W 2618  27.468  26.596   0.947 -0.0489 -0.1532  0.2664
 1755W        W 2619  26.337  27.257   0.850  0.1457  0.2574  0.1937
 1756W        W 2620  28.926  26.103   3.237 -0.2751  0.1650  0.0455
 1757W        W 2621  24.547  27.098   2.955  0.3959 -0.2011 -0.5031
 1758W        W 2622   0.362  27.378   1.817  0.1331 -0.1816 -0.2097
 1759W        W 2623  27.334  26.100   0.494  0.1815  0.0981  0.1968
 1760W        W 2624  28.615  26.803  27.579 -0.2925  0.2147 -0.3041
 1761W        W 2625   2.188  25.146   1.537 -0.0390  0.0106  0.0449
 1762W        W 2626  25.314  25.586   1.615 -0.0354 -0.1313 -0.0317
 1763W        W 2627  28.527  27.250   2.919  0.2009  0.0933  0.1745
 1764W        W 2628   0.212   1.658   2.430  0.1916  0.0792  0.2177
 1765W        W 2629  26.272  25.188   5.479 -0.0271 -0.1245  0.0420
 1766W        W 2630  27.206  27.342   3.650 -0.0117 -0.0491  0.0645
 1767W        W 2631   0.055  27.202  28.182  0.0295 -0.0292  0.1015
 1768W        W 2632  22.825   0.408   2.792 -0.1847  0.1422  0.0317
 1769W        W 2633  28.896   0.306   5.116  0.0349 -0.2515 -0.1425
 1770W        W 2634  26.193   0.212   2.141 -0.1763 -0.1297 -0.3634
 1771W        W 2635  28.979  26.590   3.539  0.1035  0.1436  0.2323
 1772W        W 2636  28.026  26.679   1.761  0.2256  0.1521 -0.1317
 1773W        W 2637  28.150  27.601   2.670  0.1305  0.0426 -0.0441
 1774W        W 2638  28.613  28.808  27.958  0.5168 -0.0587  0.0036
 1775W        W 2639  26.557  24.410   3.526 -0.2792  0.2497  0.1749
 1776W        W 2640   1.107  26.699   1.906 -0.2035  0.1929  0.2198
 1777W        W 2641  25.416  27.738   2.456 -0.2123  0.0432  0.1519
 1778W        W 2642  26.692  26.391   2.296 -0.2058 -0.1390  0.0067
 1779W        W 2643  24.452  28.081   1.588  0.1773  0.0865  0.3523
 1780W        W 2644  28.001  26.452   3.055  0.1465  0.1879 -0.0187
 1781W        W 2645  27.833  28.083  28.812 -0.0398  0.1563  0.2108
 1782W        W 2646  28.263  29.066  29.057 -0.2253 -0.1351  0.0972
 1783W        W 2647  26.607  26.007   1.887  0.1126 -0.2339  0.0805
 1784W        W 2648  26.120  26.221   1.050 -0.0740  0.0661 -0.0304
 1785W        W 2649  25.714  25.533  28.227  0.0092 -0.2372  0.0356
 1786W        W 2650   1.196  26.631   2.821 -0.1978 -0.2792 -0.2070
 1787W        W 2651  26.839  26.118   1.480 -0.3033  0.2294 -0.2364
 1788W        W 2652  27.894  23.914   0.679 -0.0104  0.0952 -0.2498
 1789W        W 2653  24.100  28.531   5.056  0.4194 -0.5373  0.1947
 1790W        W 2654  24.934  26.915  28.989 -0.1746 -0.0870 -0.1853
 1791W        W 2655  26.100  27.677   1.063 -0.2382 -0.0931  0.1485
 1792W        W 2656  26.160  28.453  25.753  0.1255  0.0289  0.1270
 1793W        W 2657  25.425  27.270   2.493  0.0972  0.1409  0.1940
 1794W        W 2658  26.258  25.110   4.667 -0.0751 -0.1117 -0.1630
 1795W        W 2659  28.122  28.024   1.379  0.0588  0.0526  0.1563
 1796W        W 2660  26.917  27.187   2.487  0.3958 -0.0252  0.2281
 1797W        W 2661  28.863  21.971   0.521 -0.2040 -0.1156  0.0945
 1798W        W 2662  26.431  25.479   1.790  0.0986 -0.1452  0.0662
 1799W        W 2663  26.571  26.650   0.817  0.0528  0.1791  0.3234
 1800W        W 2664   1.692  25.314   4.049  0.0613 -0.1193 -0.0583
 1801W        W 2665  22.734  26.020   0.421 -0.2104  0.1790 -0.1719
 1802W        W 2666  27.740  25.413   1.135  0.1184  0.0646  0.0039
 1803W        W 2667   1.658  29.105   0.247 -0.0056  0.1819 -0.0204
 1804W        W 2668  25.767  25.759   1.771  0.2357 -0.0362 -0.1901
 1805W        W 2669   0.350  27.576   4.571 -0.1957 -0.2316  0.4110
 1806W        W 2670  23.941  25.157   1.403 -0.0263  0.0112  0.0454
 1807W        W 2671  25.569  27.338   4.505 -0.1222 -0.0588 -0.0196
 1808W        W 2672  27.537   1.612   2.220 -0.2230 -0.1071  0.1152
 1809W        W 2673  29.123  26.802   0.175 -0.1428 -0.1288  0.1754
 1810W        W 2674  25.419  28.860   0.428 -0.1940  0.0279 -0.3332
 1811W        W 2675  28.701  28.313   3.012 -0.1522 -0.1208  0.0076
 1812W        W 2676  23.246  27.586   0.185 -0.1566  0.1190 -0.0902
 1813W        W 2677  25.593  27.536   1.063 -0.1801 -0.2473 -0.1943
 1814W        W 2678  28.682  25.582   3.831 -0.0715 -0.2068 -0.0573
 1815W        W 2679  28.506  28.290   1.316 -0.0720  0.1157  0.2846
 1816W        W 2680  28.439  26.327   3.254  0.0140 -0.1198  0.0084
 1817W        W 2681  27.615  28.464  27.774 -0.1073  0.2519 -0.0646
 1818W        W 2682  28.971  28.599  29.066  0.0932  0.0555 -0.0315
 1819W        W 2683  29.105  26.443   4.748 -0.0090 -0.0165 -0.2084
 1820W        W 2684  24.441   0.428   6.004 -0.2748  0.1241 -0.3268
 1821W        W 2685   2.222  24.397   5.000 -0.0040 -0.2539  0.2191
 1822W        W 2686  28.317  27.077   2.441 -0.1035  0.0854 -0.0075
 1823W        W 2687  25.542   1.856   4.688 -0.0294 -0.2049  0.2048
 1824W        W 2688  26.519  24.443   1.677 -0.2415 -0.1125 -0.0591
 1825W        W 2689   0.110  26.711  27.308 -0.0799 -0.3097  0.3325
 1826W        W 2690  27.137  28.916   5.780 -0.2054  0.0081 -0.1702
 1827W        W 2691  24.556   0.837   3.300 -0.1197  0.1325  0.0287
 1828W        W 2692  27.703  27.618   2.057 -0.0441 -0.0202 -0.2050
 1829W        W 2693  27.409  28.589   2.217  0.0705 -0.3737 -0.0553
 1830W        W 2694  26.358  28.466   1.506  0.1146  0.1313  0.0154
 1831W        W 2695  25.032  24.968   1.347  0.2386  0.0644 -0.0305
 1832W        W 2696  27.978  26.110   4.804 -0.0320  0.0091 -0.3670
 1833W        W 2697  23.678  26.366   0.941  0.0741 -0.0224 -0.3536
 1834W        W 2698  27.226  26.061   0.986 -0.1373  0.1338  0.0585
 1835W        W 2699  24.998  26.390   4.055 -0.2206  0.0451  0.1970
 1836W        W 2700  27.027  28.514   0.935 -0.1469  0.0310  0.0827
 1837W        W 2701  28.581  26.444   1.000 -0.0456  0.0948 -0.0212
 1838W        W 2702  26.649  25.278   3.806  0.1982 -0.0894  0.2982
 1839W        W 2703  27.193  28.038   4.310 -0.0065 -0.0716 -0.2674
 1840W        W 2704   2.641  25.561   4.019  0.0831  0.3000  0.0771
 1841W        W 2705  28.204  27.556   2.160 -0.1409 -0.0360  0.2416
 1842W        W 2706  25.047   0.166   1.323 -0.0072 -0.3436  0.0631
 1843W        W 2707  25.136  26.949   2.262  0.0757  0.2447 -0.0991
 1844W        W 2708  25.283  27.967   0.887  0.0215  0.0688  0.1242
 1845W        W 2709  27.150   1.323   4.329  0.0106 -0.1659  0.1751
 1846W        W 2710  25.653  27.725  28.963 -0.2198 -0.1656  0.1531
 1847W        W 2711   2.685  26.359   1.433  0.2293  0.2945  0.1694
 1848W        W 2712  27.083   1.511   3.808  0.0545  0.2007 -0.2269
 1849W        W 2713   2.138  28.378   1.026 -0.1430 -0.0213  0.0632
 1850W        W 2714  27.251  25.637   3.899 -0.1738 -0.3565 -0.0034
 1851W        W 2715  23.122  26.204   1.761 -0.1603 -0.2772  0.1061
 1852W        W 2716  25.183  27.025   0.247  0.0315  0.3625 -0.1406
 1853W        W 2717   0.649  26.870   3.078  0.1854 -0.1068  0.2820
 1854W        W 2718  27.391   0.547   3.254  0.1436 -0.1092 -0.3330
 1855W        W 2719  23.621  25.861  26.920  0.1581  0.0723  0.0759
 1856W        W 2720  28.247  28.944   1.811  0.3219 -0.0677  0.0964
 1857W        W 2721  27.583  27.863   1.486 -0.0018  0.0215 -0.2225
 1858W        W 2722  26.329  27.399   4.768 -0.0072  0.2854 -0.0072
 1859W        W 2723   0.247  28.882   5.857  0.3940  0.1398 -0.0408
 1860W        W 2724   0.048  27.747   1.927  0.1287  0.1482  0.1266
 1861W        W 2725  25.930  26.150   2.059  0.1712 -0.0219 -0.1883
 1862W        W 2726  26.320  27.626   3.312  0.0397 -0.2203  0.0139
 1863W        W 2727   0.368  28.479   2.668 -0.3681  0.2318 -0.0917
 1864W        W 2728  26.357  27.617   5.319  0.0283 -0.2082  0.0763
 1865W        W 2729  27.883   1.217   1.080  0.1386  0.2860  0.0187
 1866W        W 2730  24.956  27.554   2.208 -0.3597 -0.0644  0.0566
 1867W        W 2731  27.264  25.246   1.349  0.0556  0.0252 -0.4025
 1868W        W 2732  27.200  28.619   1.378  0.2444  0.2097 -0.0417
 1869W        W 2733  27.705  27.080   4.789 -0.3126  0.1518 -0.0518
 1870W        W 2734  29.099  27.188  29.045  0.1070  0.2062  0.2669
 1871W        W 2735  27.168  27.808   3.335  0.0978 -0.0172 -0.0165
 1872W        W 2736  28.065  27.032   3.288  0.0126  0.1663  0.2388
 1873W        W 2737  25.825  28.728   3.486 -0.0879  0.1967  0.0227
 1874W        W 2738  27.543  28.168   2.455  0.0670 -0.1053  0.0059
 1875W        W 2739  27.516  28.435   4.317  0.0733  0.1205  0.1387
 1876W        W 2740   0.611  24.715   5.732 -0.0300  0.2210 -0.0414
 1877W        W 2741  25.923  26.182   2.937  0.0229 -0.0216 -0.2140
 1878W        W 2742  26.887  27.351   4.540 -0.1941  0.0632  0.4968
 1879W        W 2743  28.259  29.138  28.224 -0.0345  0.0547  0.0799
 1880W        W 2744  24.895  28.861   5.063  0.0525  0.0530  0.0596
 1881W        W 2745  28.126  27.107   1.935 -0.3224 -0.0300 -0.0318
 1882W        W 2746  25.873  24.481   3.453 -0.0662 -0.0395  0.0608
 1883W        W 2747  27.426  27.391   1.663  0.0780  0.0185  0.2931
 1884W        W 2748  25.675  27.858   1.809  0.1379 -0.0068 -0.2021
 1885W        W 2749   0.800  27.588   0.338  0.0148 -0.3502 -0.0173
 1886W        W 2750   0.611  27.524   3.548  0.0190 -0.1649  0.1486
 1887W        W 2751  27.100  28.689   1.885 -0.1187  0.0872  0.1805
 1888W        W 2752  26.804  27.403   3.269 -0.3731  0.0460 -0.1811
 1889W        W 2753   1.296  25.560   0.761  0.0033  0.0553 -0.2083
 1890W        W 2754   1.458  27.556  28.510  0.3917  0.0614  0.0809
 1891W        W 2755  24.811  27.798  28.675 -0.3856  0.0591  0.1497
 1892W        W 2756  26.051  24.660   0.546 -0.0631  0.0169 -0.1080
 1893W        W 2757  29.090  25.763   2.041  0.1116 -0.0476  0.1428
 1894W        W 2758  25.106  27.535   1.091  0.1272 -0.2332  0.0628
 1895W        W 2759  27.763   0.492   2.853  0.0198  0.0982 -0.2506
 1896W        W 2760  28.621  27.472   0.093 -0.1110  0.1138 -0.2098
 1897W        W 2761  27.321  26.188   1.479 -0.0745 -0.0175  0.0301
 1898W        W 2762   0.199  26.562   2.453 -0.3281 -0.2562 -0.3182
 1899W        W 2763  28.507  23.863   2.214 -0.0561  0.0042  0.1465
 1900W        W 2764  24.091  28.455   1.585  0.0444  0.4475 -0.2092
 1901W        W 2765  26.161  27.663   1.576  0.1909 -0.0891 -0.1065
 1902W        W 2766  26.168  24.777   6.406 -0.0861 -0.2832  0.0218
 1903W        W 2767  25.664   0.070   2.512 -0.0832 -0.0269 -0.0224
 1904W        W 2768  29.055  27.130   1.774  0.5322 -0.2001 -0.0575
 1905W        W 2769  28.060  26.667   1.262 -0.1418  0.3298 -0.2298
 1906W        W 2770  27.641   0.314   2.363  0.1785 -0.2243 -0.2092
 1907W        W 2771  28.161  28.938   5.521 -0.0003 -0.1516 -0.1184
 1908W        W 2772  27.844  26.208   1.646 -0.1033  0.1108 -0.1209
 1909W        W 2773  25.276  25.172   0.872 -0.1872  0.0183  0.4487
 1910W        W 2774  26.284   0.936   3.835 -0.0685  0.2589  0.1756
 1911W        W 2775  27.279  27.837   0.202 -0.2487  0.0407 -0.2671
 1912W        W 2776  27.022  27.623   4.072 -0.1114  0.0329  0.2061
 1913W        W 2777   1.347  27.640  29.012  0.0534  0.4406 -0.0444
 1914W        W 2778  27.403  26.729   4.495  0.0563 -0.1370  0.2682
 1915W        W 2779  26.916  28.665   6.222 -0.0285  0.2035  0.2517
 1916W        W 2780  27.074   1.510   3.196 -0.1487 -0.1390  0.1135
 1917W        W 2781  25.873  25.876   1.312 -0.0569 -0.2100  0.0667
 1918W        W 2782  27.996  27.159   0.966 -0.1052  0.1429 -0.2399
 1919W        W 2783  28.787   0.018   1.824 -0.0326  0.1560  0.2605
 1920W        W 2784  28.045  25.154   2.484 -0.2223 -0.1618 -0.3104
 1921W        W 2785  24.118  27.703   2.054  0.0214 -0.0335 -0.1811
 1922W        W 2786   1.087   1.635  28.342 -0.1568 -0.2592  0.1516
 1923W        W 2787  24.247  28.455   6.040  0.0011 -0.0559  0.3348
 1924W        W 2788  28.799   0.619   4.753 -0.0871  0.1530  0.0824
 1925W        W 2789  26.511  27.600   2.329  0.2280  0.0691  0.0789
 1926W        W 2790  23.433  28.776   1.036  0.0427  0.0687  0.1634
 1927W        W 2791  28.024  27.563   1.678  0.1409  0.1426 -0.2202
 1928W        W 2792  25.276  27.827  28.443 -0.0827  0.0898  0.3663
 1929W        W 2793  24.514  25.513   1.412  0.2019  0.0060  0.0011
 1930W        W 2794  24.980  28.384   0.922  0.2498  0.1665 -0.0479
 1931W        W 2795  26.898  27.344   5.489 -0.0112  0.1338  0.1375
 1932W        W 2796  25.789  26.588   1.227  0.0987  0.0174  0.2551
 1933W        W 2797  27.184  28.395   2.685 -0.2683  0.2454 -0.0954
 1934W        W 2798   0.874  27.820   3.290 -0.2344 -0.0364 -0.0509
 1935W        W 2799  27.521  28.176   4.732  0.1068  0.1116 -0.1080
 1936W        W 2800  27.867  28.662   4.010 -0.2296  0.1206 -0.1567
 1937W        W 2801  28.116   0.823   2.874  0.2258  0.3283 -0.3940
 1938W        W 2802  27.520  28.506   0.930 -0.0567  0.0167  0.2004
 1939W        W 2803  28.830  26.458   2.388  0.0579  0.1952  0.0007
 1940W        W 2804  27.361  24.461   1.864 -0.0451  0.3246 -0.0112
 1941W        W 2805  23.028  27.635   2.344 -0.0632  0.0047  0.5427
 1942W        W 2806  28.600  27.213   2.034  0.3984  0.1726  0.0303
 1943W        W 2807  26.467  28.129   2.349  0.0254 -0.0905 -0.1519
 1944W        W 2808  26.353  27.936   2.791  0.2817 -0.1267 -0.0571
 1945W        W 2809  29.056  27.037  27.629  0.1039 -0.1691  0.0256
 1946W        W 2810  28.262   0.909   2.403 -0.5432  0.0606  0.1112
 1947W        W 2811  22.078  27.694   2.105  0.0336 -0.1620 -0.0084
 1948W        W 2812  25.842  28.074   2.595  0.3470 -0.0075 -0.1898
 1949W        W 2813  26.748  28.993   2.052 -0.2388 -0.2993 -0.0098
 1950W        W 2814  24.891  26.348   1.363 -0.0630 -0.5094 -0.0137
 1951W        W 2815   0.402  25.806   3.219 -0.0022 -0.0148 -0.2663
 1952W        W 2816  28.043  26.729  28.513 -0.0216 -0.4400 -0.0181
 1953W        W 2817  29.052  27.676   3.186  0.2795  0.4795  0.0401
 1954W        W 2818  25.545  28.152   2.183 -0.2776  0.2003 -0.1474
 1955W        W 2819  26.003  28.021   0.726 -0.2090 -0.1534 -0.0494
 1956W        W 2820  27.013  26.206  28.000 -0.0437  0.0423 -0.0848
 1957W        W 2821  23.923  28.018   0.449  0.0556 -0.2590  0.1706
 1958W        W 2822  28.613  26.283   5.042 -0.0989  0.2457 -0.2651
 1959W        W 2823  25.955  27.037   4.850  0.1218 -0.0580 -0.2291
 1960W        W 2824  27.463  25.903   1.874 -0.3584  0.0751 -0.0513
 1961W        W 2825  25.917  28.994   0.330 -0.1413  0.1702  0.4245
 1962W        W 2826  29.008  28.934   3.300  0.0122  0.0956  0.3840
 1963W        W 2827  26.783  25.903   2.505 -0.1026  0.1079  0.3132
 1964W        W 2828  27.043  25.144   2.299 -0.0594 -0.1517 -0.2712
 1965W        W 2829  25.577  26.570   1.638 -0.0455 -0.1264  0.0755
 1966W        W 2830  27.268  26.477   4.104  0.0471 -0.1279 -0.0012
 1967W        W 2831   0.007   0.260   3.215 -0.3592 -0.0006  0.2846
 1968W        W 2832  26.679  27.568   1.079 -0.0232  0.2228  0.3203
 1969W        W 2833  24.592  24.291   0.546 -0.2501  0.2445 -0.0662
 1970W        W 2834  28.226  25.115   1.930 -0.0987  0.1214 -0.1321
 1971W        W 2835   0.416  26.024  28.086  0.0704  0.0445 -0.3866
 1972W        W 2836  28.835  28.150   2.015  0.1430  0.0586 -0.1585
 1973W        W 2837  28.922  24.983   2.124 -0.1655 -0.3973  0.3424
 1974W        W 2838  28.578  26.065   4.085 -0.0258  0.0864  0.1734
 1975W        W 2839   1.228   0.302  28.307  0.2061 -0.0703  0.2079
 1976W        W 2840  28.722  26.560   4.254 -0.0110 -0.0788  0.0595
 1977W        W 2841  26.239  24.684   3.116 -0.0623  0.1324  0.1734
 1978W        W 2842   2.077   0.028   4.243  0.0127  0.0741  0.0856
 1979W        W 2843  25.872  27.673   4.301 -0.2086  0.4579 -0.0005
 1980W        W 2844  25.216  27.001   4.750  0.1492 -0.2074  0.1691
 1981W        W 2845  26.987  29.032   2.782  0.0004 -0.1509  0.0396
 1982W        W 2846  24.909  28.781   0.635  0.0978  0.2483  0.1890
 1983W        W 2847  26.292  25.023   1.499 -0.3476 -0.1518  0.1477
 1984W        W 2848  28.253  25.892   3.093  0.0157 -0.2399  0.0616
 1985W        W 2849  26.119  26.572   3.294  0.2551  0.5441 -0.0999
 1986W        W 2850  27.409  26.490   2.427  0.3165  0.1912  0.0519
 1987W        W 2851  28.207   0.115   2.225 -0.2883 -0.3154 -0.0923
 1988W        W 2852  27.521  26.551   4.983  0.0310 -0.2271 -0.1704
 1989W        W 2853  26.329   2.299   2.594 -0.1557 -0.0979 -0.0074
 1990W        W 2854  26.026  28.304   3.589  0.0212  0.4850 -0.0444
 1991W        W 2855   0.627  26.529   1.856  0.0310  0.1581  0.0887
 1992W        W 2856  24.649  27.935   1.109 -0.1505  0.3109 -0.0819
 1993W        W 2857   0.500  25.069   4.765 -0.2900  0.1393  0.0815
 1994W        W 2858  25.534  27.543   0.264 -0.0085 -0.0212 -0.2851
 1995W        W 2859  24.973   0.262   3.749  0.2034 -0.3424  0.3524
 1996W        W 2860  28.653  25.628   2.943 -0.1318  0.0647  0.1362
 1997W        W 2861  26.078  28.963   2.460 -0.0037  0.0363  0.2818
 1998W        W 2862  26.383  27.191   3.455  0.0035  0.3374 -0.2814
 1999W        W 2863  27.771   0.447   0.382  0.1878 -0.1849 -0.0181
 2000W        W 2864  24.895  28.349   1.959  0.0653  0.0316 -0.0537
 2001W        W 2865  21.779  28.537   3.944  0.1004  0.1170  0.0518
 2002W        W 2866  24.832  27.863   6.214  0.1341  0.2139  0.2821
 2003W        W 2867  27.703  28.199   3.862 -0.3067  0.1395  0.0915
 2004W        W 2868  28.953   3.425   6.969 -0.0744  0.1455  0.0590
 2005W        W 2869  25.241   1.786   3.592  0.2378 -0.1953  0.1674
 2006W        W 2870  23.570  27.324   3.489 -0.0961  0.1853  0.2619
 2007W        W 2871  27.779  25.673   5.184 -0.2359  0.1503 -0.1588
 2008W        W 2872  27.773  27.306   2.877  0.0315  0.4417  0.1095
 2009W        W 2873  28.935  28.440   9.266  0.2558 -0.0939  0.1437
 2010W        W 2874  25.882  23.458   5.016 -0.2555 -0.0108 -0.0215
 2011W        W 2875  27.098  24.528   5.558 -0.1270 -0.0654  0.0760
 2012W        W 2876   1.096  24.764   4.361  0.0338 -0.1321 -0.2066
 2013W        W 2877  28.787  25.094   4.432 -0.0196 -0.2057  0.3791
 2014W        W 2878  28.181  27.744   6.808  0.2944 -0.0142  0.1365
 2015W        W 2879  25.683  26.787   6.337  0.2462 -0.0918 -0.1449
 2016W        W 2880  26.050  26.967   7.564 -0.1049 -0.2936  0.0246
 2017W        W 2881  28.009  28.066   4.758 -0.0769 -0.1310  0.1030
 2018W        W 2882  26.455  26.289   6.178 -0.2096  0.1702 -0.0369
 2019W        W 2883  28.012   0.420   6.724  0.0072 -0.1767 -0.1514
 2020W        W 2884   2.518  26.976   6.906  0.1704  0.0087  0.1413
 2021W        W 2885   0.877   0.218   9.195  0.1083 -0.3659 -0.3317
 2022W        W 2886  26.359  25.989   4.322  0.2155 -0.0724  0.2133
 2023W        W 2887  26.638  26.439   6.776 -0.0538 -0.1311  0.1808
 2024W        W 2888  25.550  28.289   4.865  0.0302  0.0748 -0.0140
 2025W        W 2889  23.249   1.698   6.195 -0.0392 -0.3353 -0.0904
 2026W        W 2890  26.731  28.326   6.565 -0.0326  0.0171 -0.1297
 2027W        W 2891  29.134  27.583   5.547 -0.3524 -0.0736  0.0068
 2028W        W 2892  26.747   0.654   4.308  0.1473 -0.1236 -0.3934
 2029W        W 2893  27.271  29.147   6.228 -0.1223 -0.1522  0.1706
 2030W        W 2894   1.023  27.679   7.087 -0.2131 -0.1925 -0.3805
 2031W        W 2895  27.938  26.977   6.835 -0.2482 -0.3469  0.0868
 2032W        W 2896  26.234   1.047   5.096 -0.0212 -0.0952  0.1775
 2033W        W 2897  28.191  27.541   9.800  0.5438 -0.2461  0.3040
 2034W        W 2898  27.955  26.592   5.909 -0.0131 -0.1804  0.1930
 2035W        W 2899  25.439  25.029   7.544 -0.1908 -0.1406  0.4140
 2036W        W 2900   1.276   3.553   7.952  0.0778  0.2143 -0.1822
 2037W        W 2901  24.616  28.185   2.955 -0.0585 -0.2544 -0.1501
 2038W        W 2902  27.080  27.420   6.131  0.0997 -0.0062 -0.0321
 2039W        W 2903  25.700  27.475   6.305 -0.1173  0.2374  0.0695
 2040W        W 2904   0.370  25.750   5.853 -0.2581 -0.0425  0.2329
 2041W        W 2905  27.752  24.945   1.973 -0.0694  0.1890  0.2365
 2042W        W 2906  27.354  26.855   5.803 -0.2158 -0.1557  0.2485
 2043W        W 2907  25.377   0.275   4.850 -0.1634 -0.1939  0.3246
 2044W        W 2908  28.688  27.432   3.444  0.0243 -0.0294 -0.0991
 2045W        W 2909  27.565   1.608   4.009  0.0071  0.5389 -0.2388
 2046W        W 2910  27.631  28.917   4.426 -0.0215 -0.0627 -0.1260
 2047W        W 2911  28.044  26.151   7.417 -0.0305 -0.1939  0.1444
 2048W        W 2912  28.919  26.704   6.586 -0.2273 -0.2462 -0.1072
 2049W        W 2913  28.365  25.482   4.285 -0.0339  0.1267 -0.0685
 2050W        W 2914  27.377  24.840   3.232 -0.0718 -0.0893 -0.1399
 2051W        W 2915  26.692  27.251   6.450 -0.0781 -0.0603  0.1390
 2052W        W 2916  25.320  27.042   6.501 -0.0280  0.1450 -0.1010
 2053W        W 2917   0.122  27.502   6.801 -0.0865 -0.0831  0.3431
 2054W        W 2918   0.455  28.340   5.008  0.2362 -0.1952 -0.3128
 2055W        W 2919  26.518  26.940   4.310 -0.0070 -0.1444 -0.1079
 2056W        W 2920  24.680   0.124   6.345 -0.2159  0.0720 -0.0787
 2057W        W 2921  26.015  26.758   4.129 -0.0702  0.3840  0.0568
 2058W        W 2922  28.192  26.528   7.128 -0.2038  0.0090  0.1144
 2059W        W 2923  25.716  27.665   5.419 -0.0542 -0.1479  0.0392
 2060W        W 2924  26.683  28.489   2.828  0.1140  0.3675 -0.2083
 2061W        W 2925  28.518  27.403   4.697 -0.0429  0.0323 -0.0110
 2062W        W 2926  27.047  28.540   4.356  0.2026 -0.1563  0.3993
 2063W        W 2927  27.732  27.451   6.712 -0.1857  0.0033  0.1706
 2064W        W 2928  25.413  26.065   4.244  0.0052 -0.1003 -0.0656
 2065W        W 2929  27.454  25.129   5.728  0.1169 -0.0823  0.0473
 2066W        W 2930   0.416  24.254   5.642 -0.0255  0.0965  0.1331
 2067W        W 2931  24.323  25.861   2.670  0.0463  0.4616  0.0348
 2068W        W 2932  25.033  28.351   4.988  0.0995  0.0521  0.0173
 2069W        W 2933  27.693  27.618   3.928  0.2874 -0.1090  0.3076
 2070W        W 2934  26.438  28.349   4.483 -0.0200 -0.0794  0.0957
 2071W        W 2935   0.140  26.842   5.152  0.0043  0.1291  0.0099
 2072W        W 2936   0.285  27.962   5.304  0.4092  0.0387 -0.3169
 2073W        W 2937   1.037  25.005   3.396 -0.0440  0.0213 -0.2709
 2074W        W 2938  28.960  25.941   7.934 -0.1611 -0.0937  0.2374
 2075W        W 2939   0.357  26.141   4.929  0.0621 -0.4295 -0.2411
 2076W        W 2940  27.550  26.592   6.627  0.3037 -0.1075  0.0026
 2077W        W 2941  25.331  26.917   2.801 -0.0177 -0.0146  0.1290
 2078W        W 2942  26.673  27.804   6.224  0.1302  0.2768 -0.2143
 2079W        W 2943   0.404  24.465   7.130  0.0260 -0.1504  0.0306
 2080W        W 2944   0.297  26.620   3.294 -0.2662  0.1360  0.0406
 2081W        W 2945  25.732  26.388   5.474  0.0419  0.2321 -0.0518
 2082W        W 2946  26.599  28.437   8.030 -0.0765  0.0678 -0.1853
 2083W        W 2947  26.125  26.634   4.647  0.0281  0.1603  0.1278
 2084W        W 2948  28.901  26.885   6.052 -0.0111  0.1642 -0.1779
 2085W        W 2949  25.456  24.014   6.847  0.0563  0.1252 -0.0092
 2086W        W 2950  27.027  25.705   5.090  0.2354 -0.1645 -0.1332
 2087W        W 2951   1.614  27.902   6.918 -0.3375 -0.0832 -0.0379
 2088W        W 2952   0.470  28.498   6.607 -0.1296  0.0648 -0.1320
 2089W        W 2953  28.782  28.606   6.579  0.1019  0.1686 -0.1840
 2090W        W 2954   2.172  26.721   7.256  0.1698 -0.0197 -0.0953
 2091W        W 2955   0.724  24.340   6.736 -0.2101 -0.0051  0.0274
 2092W        W 2956   1.564  28.329   7.519  0.0042  0.2186 -0.0071
 2093W        W 2957  24.071   0.407   4.019  0.1067  0.0403  0.1177
 2094W        W 2958  28.884  26.352   6.177  0.2971 -0.0144 -0.0977
 2095W        W 2959  26.650  26.165   5.637 -0.1320 -0.2427 -0.1149
 2096W        W 2960  28.205  25.396   5.402 -0.3252 -0.0538  0.0843
 2097W        W 2961   2.722  26.014   8.399 -0.1064  0.0309  0.0320
 2098W        W 2962  24.840  26.630   8.351  0.0269  0.1396  0.1754
 2099W        W 2963  26.589  25.144   4.274 -0.0976  0.1019  0.0120
 2100W        W 2964   2.231  26.386   6.891  0.1857 -0.0007 -0.0677
 2101W        W 2965  27.008  28.220   2.268 -0.2078 -0.3065 -0.1839
 2102W        W 2966  27.438  28.511   6.024  0.1002  0.0952 -0.0251
 2103W        W 2967  28.082  27.365   4.073  0.5657  0.0157 -0.1993
 2104W        W 2968   2.082  27.520   5.638  0.2011  0.1236  0.1287
 2105W        W 2969   0.012  26.698   7.056 -0.0283 -0.1166  0.2850
 2106W        W 2970   0.689  27.490   5.337 -0.0535 -0.2142  0.0633
 2107W        W 2971  28.697  26.863   2.675 -0.0271 -0.1645  0.0281
 2108W        W 2972   0.696  29.013   5.608 -0.2297  0.0989  0.1976
 2109W        W 2973   1.555  25.189   7.487 -0.0048  0.2795 -0.1545
 2110W        W 2974  25.728  24.911   6.118 -0.0319 -0.0501  0.0214
 2111W        W 2975  26.141  28.255   7.962 -0.0181 -0.1550 -0.0653
 2112W        W 2976  26.874  28.253   4.752 -0.0607  0.1271 -0.1232
 2113W        W 2977  28.247  25.994   6.503 -0.0944  0.0470 -0.0148
 2114W        W 2978  28.617  28.444   3.566 -0.1385  0.1936  0.3419
 2115W        W 2979  28.385  26.357   5.563 -0.3775  0.0838 -0.3751
 2116W        W 2980  27.283  26.776   3.684  0.1413 -0.4179  0.0485
 2117W        W 2981  28.139  25.539   7.661 -0.1752 -0.1138  0.0490
 2118W        W 2982   0.510  29.066   8.232 -0.1281 -0.0749  0.5168
 2119W        W 2983  27.939  25.783   7.088  0.0832 -0.1858 -0.0830
 2120W        W 2984   1.855  25.214   5.298  0.1320 -0.0461  0.1724
 2121W        W 2985   1.420  27.710   4.198  0.0894  0.0662  0.1903
 2122W        W 2986  26.817  28.131   3.979  0.1677 -0.0950  0.2894
 2123W        W 2987  27.604  25.978   5.687 -0.0546  0.0009 -0.2439
 2124W        W 2988   0.317  27.297   3.163  0.2110 -0.1183 -0.1049
 2125W        W 2989  28.151  25.160   5.854  0.0449  0.2603 -0.0214
 2126W        W 2990   0.022  24.422   5.004 -0.0737 -0.2974  0.1942
 2127W        W 2991  24.765  26.249   4.747  0.1235  0.1414  0.1911
 2128W        W 2992  27.342  28.269   6.465  0.0144 -0.0749  0.5205
 2129W        W 2993  27.139  28.125   7.014 -0.1885 -0.0178 -0.2387
 2130W        W 2994  27.580  27.694   4.795 -0.3827 -0.1818  0.1195
 2131W        W 2995   0.075  26.898   7.925  0.2935 -0.2443  0.0487
 2132W        W 2996  28.035  26.029   7.911  0.0909 -0.2369 -0.0669
 2133W        W 2997  27.646  28.194   6.898 -0.0543 -0.0334 -0.1220
 2134W        W 2998   1.696  26.284   4.374 -0.1342 -0.1311  0.0846
 2135W        W 2999   0.412  26.452   5.345  0.2356  0.1282 -0.1541
 2136W        W 3000  25.217  27.591   5.448 -0.1702  0.0375 -0.1151
 2137W        W 3001  28.684  25.658   5.317 -0.1343  0.3046 -0.0112
 2138W        W 3002  27.377  26.887   7.675 -0.3010 -0.2976  0.0387
 2139W        W 3003  27.621   0.298   5.144 -0.0637 -0.2033  0.2472
 2140W        W 3004  25.728  28.601   4.511  0.3945  0.2638 -0.0745
 2141W        W 3005  26.651  25.776   6.030 -0.1525 -0.1142 -0.0519
 2142W        W 3006  26.910  25.569   6.851  0.1389  0.3214  0.2351
 2143W        W 3007  25.331  28.253   2.711 -0.2170  0.1575 -0.2098
 2144W        W 3008  26.764  27.788   5.141  0.1847  0.1448  0.0319
 2145W        W 3009  26.777  28.008   7.870 -0.0322  0.0285  0.0082
 2146W        W 3010  27.157  23.369   7.621 -0.1038 -0.2818 -0.0392
 2147W        W 3011   0.797  28.098   6.845  0.0927  0.0874  0.2958
 2148W        W 3012   0.609   0.442   4.430 -0.1230  0.0685  0.1177
 2149W        W 3013   0.495   0.526   5.609  0.0939  0.2014 -0.0616
 2150W        W 3014  27.791  24.545   5.195  0.0627  0.0070 -0.0564
 2151W        W 3015  28.558  28.571   8.117 -0.0559 -0.3667  0.1240
 2152W        W 3016  26.059  25.368   3.775  0.2251  0.1623  0.2666
 2153W        W 3017  27.290  26.899   6.285 -0.4617 -0.2394 -0.3309
 2154W        W 3018  25.185  24.166   1.312 -0.0696  0.0267  0.3470
 2155W        W 3019  28.627  26.223   8.541  0.1562  0.2390 -0.1394
 2156W        W 3020  26.499  24.901   7.420  0.0363  0.0278  0.1538
 2157W        W 3021  26.957  28.858   3.955  0.0230 -0.2699  0.1563
 2158W        W 3022  28.636  26.867   3.324  0.0405  0.1999 -0.1159
 2159W        W 3023  27.581  25.260   2.348 -0.0450 -0.0979  0.1924
 2160W        W 3024  27.817  27.202   2.364 -0.1338 -0.1183  0.2404
 2161W        W 3025  29.023  25.966   4.869  0.0970  0.0604 -0.2195
 2162W        W 3026  28.349  28.358   6.278  0.0907 -0.1705  0.2774
 2163W        W 3027   1.717   0.581   7.176  0.0568  0.0719  0.0453
 2164W        W 3028  28.470  27.675   6.353 -0.0701  0.0269  0.4370
 2165W        W 3029  26.938  24.839   9.132 -0.0310 -0.0917  0.0198
 2166W        W 3030  27.500  26.415   2.925 -0.0335 -0.1093  0.1522
 2167W        W 3031  28.235  25.942   5.180  0.2818  0.1561 -0.3762
 2168W        W 3032  26.573  28.763   4.256  0.0480 -0.0965 -0.5012
 2169W        W 3033  27.959   0.104   4.614 -0.0974 -0.0398 -0.1055
 2170W        W 3034  25.229  28.428   0.272  0.0457 -0.2829  0.0108
 2171W        W 3035  28.597  25.897   6.184 -0.2692  0.3546 -0.1871
 2172W        W 3036  28.141  25.914   5.696  0.1290 -0.1148  0.2309
 2173W        W 3037  28.624  26.771   7.177  0.1024  0.0808 -0.1574
 2174W        W 3038   0.386  27.530   4.017  0.1355  0.4368 -0.0448
 2175W        W 3039  26.643  24.869   5.588  0.0012 -0.1475  0.2725
 2176W        W 3040   2.420  27.252   7.904 -0.1219 -0.0155  0.0257
 2177W        W 3041  24.660  28.488   6.867 -0.0998  0.2871 -0.2195
 2178W        W 3042  22.260   0.744   6.109 -0.0349 -0.0570  0.0963
 2179W        W 3043  24.640   0.348   3.357 -0.0506  0.3343  0.1210
 2180W        W 3044  27.625  26.102   4.008  0.2327 -0.0879  0.1159
 2181W        W 3045  26.442  25.541   3.462 -0.0891 -0.1717  0.0532
 2182W        W 3046  28.149  28.549   5.126  0.0515 -0.0361  0.2495
 2183W        W 3047  27.455  25.896   6.932  0.1389 -0.0479 -0.2994
 2184W        W 3048  25.555  27.298   5.047 -0.0127 -0.0259  0.3544
 2185W        W 3049  27.249  27.649   5.167 -0.2683 -0.2520  0.2171
 2186W        W 3050  27.289   0.882   6.632 -0.3311 -0.3171  0.1253
 2187W        W 3051  28.546  26.402   6.564 -0.1933 -0.1968 -0.0233
 2188W        W 3052  25.160  24.683   4.599 -0.1074  0.1576 -0.1060
 2189W        W 3053  24.350  27.993   6.080 -0.0005  0.2533  0.1265
 2190W        W 3054  24.260  25.830   5.398  0.0517 -0.0979 -0.4338
 2191W        W 3055  24.386  27.587   2.985 -0.0884 -0.0175  0.3477
 2192W        W 3056  26.503  27.492   4.260 -0.1269 -0.0218 -0.1845
 2193W        W 3057  24.547  27.099   6.620 -0.1467 -0.0361 -0.1637
 2194W        W 3058  28.043  27.463   7.623 -0.0687 -0.3010 -0.1492
 2195W        W 3059  27.192  26.747   8.190 -0.3396  0.2364 -0.2452
 2196W        W 3060  24.581  22.026   2.931  0.3966  0.0951 -0.1948
 2197W        W 3061  26.368  27.330   1.956 -0.1045  0.0809  0.0675
 2198W        W 3062  25.660  25.391   7.069 -0.1337  0.2984 -0.2685
 2199W        W 3063  26.082  26.385   5.822 -0.2067  0.1051 -0.2273
 2200W        W 3064   1.328  25.188   6.599 -0.2034 -0.1404  0.2641
 2201W        W 3065  24.211  27.004   4.962 -0.0562 -0.1598 -0.2340
 2202W        W 3066  29.056  24.254   5.445 -0.0443  0.1509 -0.3420
 2203W        W 3067  27.454  26.467   5.530  0.1983  0.2387  0.2645
 2204W        W 3068  25.810  25.893   4.628 -0.1677 -0.0783  0.0657
 2205W        W 3069  26.596  26.739   6.384 -0.1814 -0.0383  0.1987
 2206W        W 3070  26.935  26.718   4.373  0.1688  0.3010 -0.0084
 2207W        W 3071  24.322   0.001   5.731 -0.1353 -0.1021 -0.1654
 2208W        W 3072  27.753  26.807   2.749  0.0868  0.1600  0.3769
 2209W        W 3073  25.735  28.300   3.143  0.4093 -0.1716  0.1645
 2210W        W 3074  25.674  27.661   3.625 -0.1376  0.0177  0.1102
 2211W        W 3075  28.251  28.796   7.339  0.2891 -0.2011 -0.2889
 2212W        W 3076  24.193  28.665   5.562 -0.2579 -0.1935  0.1568
 2213W        W 3077  25.071  28.121   6.639 -0.2544 -0.0293 -0.0913
 2214W        W 3078  29.076  24.185   7.133 -0.1850  0.0865  0.0213
 2215W        W 3079  28.172  24.373   7.762  0.0163 -0.1611  0.2006
 2216W        W 3080  28.370  27.204   7.021  0.0472  0.3976  0.2917
 2217W        W 3081  27.574  27.356   6.149 -0.1964  0.2057 -0.2300
 2218W        W 3082   1.629  28.423   5.009  0.1274  0.0724 -0.0549
 2219W        W 3083  27.876  26.962   9.275  0.2953  0.1425  0.1738
 2220W        W 3084  27.627  26.422   7.541 -0.1468 -0.0895 -0.1174
 2221W        W 3085  28.762  27.594   5.900  0.1739  0.2107  0.1741
 2222W        W 3086  29.090  25.797   6.277 -0.2452  0.0368  0.1690
 2223W        W 3087  25.820  28.047   3.939  0.1127 -0.2760 -0.1108
 2224W        W 3088  27.724  26.623   4.094 -0.1561  0.0392 -0.0690
 2225W        W 3089  26.453   0.517   3.597 -0.1028 -0.0789  0.1714
 2226W        W 3090  26.132  26.755   6.665 -0.1561 -0.1833  0.0845
 2227W        W 3091  26.569   1.452   4.943  0.3376  0.1958  0.0875
 2228W        W 3092   0.068  27.990   6.595 -0.1042 -0.1474 -0.0213
 2229W        W 3093  27.387  29.037   3.991 -0.0601 -0.0102 -0.1117
 2230W        W 3094  28.699  25.923   6.700 -0.0939 -0.2092 -0.0539
 2231W        W 3095  25.175  26.404   4.508  0.1107  0.2058 -0.0687
 2232W        W 3096  26.431  26.162   7.257  0.1602  0.1621  0.2215
 2233W        W 3097  27.844  28.535   3.503  0.0061  0.0728  0.3882
 2234W        W 3098  28.603  28.866   5.222  0.0987  0.1775 -0.0281
 2235W        W 3099  27.658  23.637   6.372 -0.1521 -0.0053  0.4301
 2236W        W 3100   1.505  27.579   2.374 -0.0433  0.2962 -0.0705
 2237W        W 3101   0.973  27.609   6.148  0.0145  0.0242 -0.2754
 2238W        W 3102  27.832  24.713   7.019  0.0858  0.0879  0.1665
 2239W        W 3103   0.469  28.031   4.218 -0.1021 -0.0523  0.0288
 2240W        W 3104  26.214  27.666   6.180 -0.1351 -0.2989 -0.1881
 2241W        W 3105  27.290  28.645   4.823  0.0380  0.0385  0.1616
 2242W        W 3106  24.166  26.445   7.811 -0.2005 -0.0155  0.0468
 2243W        W 3107  24.987  24.438   8.614 -0.1200  0.2195  0.0062
 2244W        W 3108  27.352  25.304   4.981 -0.0210 -0.0351 -0.2285
 2245W        W 3109  28.460  26.743   6.153 -0.2957 -0.0571 -0.1104
 2246W        W 3110  24.127   0.654   3.547 -0.1105 -0.0463  0.1916
 2247W        W 3111  28.246  26.997   4.658  0.0386 -0.0329  0.1948
 2248W        W 3112  27.798   0.137   7.092  0.1091 -0.1612  0.1621
 2249W        W 3113   0.080   1.266   6.017 -0.1652 -0.0056 -0.1501
 2250W        W 3114  26.584  26.587   5.278 -0.1314  0.1085  0.0326
 2251W        W 3115  27.504  26.118   6.496 -0.2447  0.3724 -0.0096
 2252W        W 3116  27.291   1.641   5.127  0.1448  0.2058  0.1239
 2253W        W 3117  28.302  27.941   7.588  0.1416  0.0878 -0.0667
 2254W        W 3118  28.609  28.533   5.577 -0.1708  0.0259 -0.0250
 2255W        W 3119  26.061  25.404   2.669  0.0405 -0.1651 -0.1903
 2256W        W 3120   1.930   1.615   7.232  0.0400  0.2437  0.0224
 2257W        W 3121  27.373  27.339   5.699  0.1729 -0.2196 -0.0415
 2258W        W 3122  27.347  27.874   6.050 -0.1647  0.0734 -0.0589
 2259W        W 3123  25.969  29.001   4.124  0.0629  0.1654  0.1018
 2260W        W 3124  28.140  26.526   5.069 -0.3256 -0.1886 -0.1066
 2261W        W 3125  25.626  26.693   5.855 -0.0580  0.1728  0.1794
 2262W        W 3126  26.337  27.169   6.081 -0.0376  0.0709  0.0385
 2263W        W 3127   0.625  27.441   6.770 -0.0138 -0.1459 -0.1157
 2264W        W 3128  26.085  27.453   5.732  0.0120 -0.0515  0.1180
 2265W        W 3129  28.473   0.726   6.631 -0.1393 -0.2463 -0.1185
 2266W        W 3130  27.303  27.632   6.980  0.1881 -0.2969 -0.2161
 2267W        W 3131  27.997   1.864   5.484  0.0442 -0.1494  0.1681
 2268W        W 3132   0.371  28.744   3.908  0.3233 -0.0848  0.0365
 2269W        W 3133  27.907  26.618   4.637 -0.4492 -0.1242 -0.1546
 2270W        W 3134  25.737  26.780   3.671 -0.0298 -0.0259 -0.2002
 2271W        W 3135   0.785  26.653   4.033 -0.0484  0.2428  0.1481
 2272W        W 3136  26.716  27.912   4.380  0.1587 -0.1501 -0.1966
 2273W        W 3137  27.045  25.684   6.391  0.0942 -0.1001  0.2771
 2274W        W 3138  25.656  28.533   5.772 -0.1333 -0.0575 -0.0792
 2275W        W 3139  27.668  27.897   6.415 -0.1179  0.0745  0.0247
 2276W        W 3140  28.210  25.586   4.812 -0.0229  0.1790  0.1566
 2277W        W 3141  23.724  27.332   8.244  0.1124  0.1278  0.0936
 2278W        W 3142  27.565  26.448   6.108 -0.1088 -0.0213 -0.0402
 2279W        W 3143  26.424  26.452   2.945  0.1134 -0.0496 -0.0229
 2280W        W 3144  26.973   0.003   4.944 -0.0923  0.0559 -0.1351
 2281W        W 3145  27.048  26.404   5.277 -0.3188  0.1457 -0.2492
 2282W        W 3146  23.812  24.117   4.987 -0.2482  0.3041  0.0735
 2283W        W 3147  27.288  27.139   3.172  0.3516 -0.1382 -0.2167
 2284W        W 3148  24.782  27.309   5.693 -0.0073  0.0950  0.2629
 2285W        W 3149   1.372  26.872   6.624  0.1641 -0.1667 -0.1964
 2286W        W 3150  28.932  25.111   6.714  0.3120  0.2103 -0.2408
 2287W        W 3151   0.076  29.129   7.353  0.1640 -0.0005  0.0085
 2288W        W 3152  27.035  27.092   7.238 -0.2453 -0.0573 -0.1839
 2289W        W 3153  27.270  27.293   6.616 -0.1295  0.1110 -0.1400
 2290W        W 3154   1.188  27.865   6.641  0.2194  0.3622 -0.1583
 2291W        W 3155  28.072  26.248   4.258  0.0031  0.2949  0.0405
 2292W        W 3156   0.085  25.035   3.479  0.0009 -0.0671 -0.1677
 2293W        W 3157  28.498  25.913   7.605 -0.0488  0.0654  0.0163
 2294W        W 3158  27.407  26.953   5.295 -0.0963 -0.0823 -0.0550
 2295W        W 3159  27.707  27.367   5.306 -0.0152  0.2420 -0.3098
 2296W        W 3160  27.196  26.051   6.073  0.2509  0.0624  0.2272
 2297W        W 3161  25.773  24.780   3.047  0.0665  0.0225  0.1365
 2298W        W 3162   0.814  28.685   2.493 -0.1545 -0.0397  0.0754
 2299W        W 3163   0.623  25.207   8.629 -0.2975  0.1136  0.2047
 2300W        W 3164  26.617  28.789   4.736 -0.0929  0.2003 -0.0545
 2301W        W 3165  27.092  28.456   5.529  0.2007  0.0390 -0.3364
 2302W        W 3166  26.889  25.989   7.130 -0.2126 -0.2180  0.1513
 2303W        W 3167  25.441  27.838   6.961  0.0320  0.3524 -0.0482
 2304W        W 3168   1.397  26.674   5.332 -0.5646 -0.3430  0.1192
 2305W        W 3169  28.243  27.615   3.632 -0.2080  0.1347  0.0013
 2306W        W 3170   0.280   1.069   7.555 -0.0028 -0.0150  0.0829
 2307W        W 3171   3.146   0.741  11.198  0.2296  0.1872  0.2093
 2308W        W 3172  26.222  25.741   5.607 -0.0723 -0.1769  0.0208
 2309W        W 3173  27.666  27.548   3.475  0.1938 -0.0738  0.3452
 2310W        W 3174  26.500  27.073   7.378  0.2774  0.5172 -0.2311
 2311W        W 3175  24.544  26.137   3.062 -0.1310 -0.2868  0.1693
 2312W        W 3176  26.332  28.216   8.473  0.0505  0.1062 -0.0732
 2313W        W 3177   1.898  25.627   8.720 -0.2351 -0.1961 -0.2907
 2314W        W 3178  27.840  25.248   6.262  0.1784 -0.0459  0.1747
 2315W        W 3179  28.165   0.081   8.168  0.1781  0.2327 -0.1008
 2316W        W 3180  25.823  28.093   7.168 -0.0067 -0.0924  0.0472
 2317W        W 3181  28.332  28.067   5.299 -0.0813 -0.2201 -0.0145
 2318W        W 3182  26.852  25.823   3.022 -0.2275  0.1283 -0.0481
 2319W        W 3183   0.440  28.220   5.778  0.1499  0.0522  0.1825
 2320W        W 3184  26.809  27.030   5.983  0.2374  0.2173  0.1613
 2321W        W 3185  25.679  27.974   5.822  0.0551  0.0144 -0.3119
 2322W        W 3186  25.919   0.562   3.417 -0.2038  0.0877 -0.0278
 2323W        W 3187  26.740  25.994   6.542  0.0103 -0.0637 -0.3471
 2324W        W 3188  28.958  27.304   5.158 -0.2469 -0.1236  0.1547
 2325W        W 3189  25.668  25.274   6.489  0.2243 -0.3714  0.3152
 2326W        W 3190  26.290   3.588   5.760  0.0395 -0.0308  0.1312
 2327W        W 3191  27.535  24.940   6.598 -0.1455 -0.1021  0.0807
 2328W        W 3192  26.044  26.653   2.105  0.0349 -0.1809 -0.2602
 2329W        W 3193  27.093  27.887   5.589 -0.1041 -0.0347 -0.1022
 2330W        W 3194  27.088  28.944   7.430  0.1961 -0.0485 -0.1241
 2331W        W 3195  28.223  25.514   6.219  0.0513  0.1997 -0.3419
 2332W        W 3196  27.089  24.966   4.020  0.2480 -0.2443  0.1743
 2333W        W 3197   1.616  28.492   8.302  0.3224 -0.2303 -0.3108
 2334W        W 3198  25.569   2.116   5.627  0.0412 -0.1856 -0.0997
 2335W        W 3199   1.433  29.017   8.422 -0.0698  0.4724  0.0649
 2336W        W 3200  28.687  28.096   7.928  0.2554 -0.1267 -0.0343
 2337W        W 3201  24.038   1.553   4.350 -0.1721  0.1138 -0.3363
 2338W        W 3202   1.606  28.696   4.319 -0.3414 -0.0489  0.1495
 2339W        W 3203   0.108  27.660   3.623  0.1022 -0.0821 -0.0824
 2340W        W 3204  27.723  25.739   3.678  0.2555  0.3927 -0.0376
 2341W        W 3205  27.694  28.700   5.629 -0.2932  0.3287 -0.2134
 2342W        W 3206  27.869  27.949   8.420 -0.0201  0.2642  0.0446
 2343W        W 3207  24.980  24.451   7.389  0.1699  0.0281 -0.0316
 2344W        W 3208  25.733  27.346   3.250  0.1684  0.2576 -0.0654
 2345W        W 3209  27.562  28.704   3.036  0.1944 -0.1950 -0.1292
 2346W        W 3210  26.331  28.817   5.158  0.0127  0.2372 -0.1126
 2347W        W 3211  26.623  28.489   5.649  0.1269  0.2294 -0.1838
 2348W        W 3212  25.768  25.487   5.390  0.0470  0.0683  0.1670
 2349W        W 3213  29.096  27.034   7.443  0.1712  0.3089 -0.1831
 2350W        W 3214  24.434  23.580   6.371 -0.2403 -0.1543 -0.1761
 2351W        W 3215   0.897  28.519   5.675 -0.0422 -0.0034 -0.4416
 2352W        W 3216  28.926  22.256   3.283  0.4766  0.2144 -0.1508
 2353W        W 3217  27.356  27.879   8.368 -0.2213  0.1820 -0.1756
 2354W        W 3218  27.312  28.865   5.309  0.1490 -0.0954 -0.1657
 2355W        W 3219  26.859  28.030   2.684 -0.2231 -0.2994  0.1283
 2356W        W 3220  26.117  24.994   4.105 -0.0172  0.0150  0.2250
 2357W        W 3221  26.243   0.158   4.495  0.0139  0.2040  0.1163
 2358W        W 3222  26.778  28.940   5.432 -0.0723  0.1054  0.4600
 2359W        W 3223  27.059  25.654   8.662  0.0588 -0.1618  0.3902
 2360W        W 3224  24.099  27.164   2.108 -0.3639 -0.2630 -0.0978
 2361W        W 3225  25.782  25.945   5.853 -0.0108  0.3845 -0.3111
 2362W        W 3226  27.702  29.078   6.587  0.1038 -0.0775  0.1880
 2363W        W 3227  25.522  28.491   4.054 -0.3276  0.1155  0.3020
 2364W        W 3228   0.407  25.601   6.325 -0.0669  0.0981  0.1296
 2365W        W 3229  24.791  27.296   4.524 -0.2849  0.1208  0.3180
 2366W        W 3230   0.389   0.608   7.749  0.3909 -0.2076 -0.2108
 2367W        W 3231   0.872   0.425   7.103  0.1486  0.5277  0.0954
 2368W        W 3232  28.727   0.767   4.287 -0.1562 -0.1484  0.2418
 2369W        W 3233  26.700  25.605   5.529 -0.2962 -0.1739  0.0440
 2370W        W 3234  27.743  23.816   6.813  0.1924 -0.0142 -0.1788
 2371W        W 3235  28.181  27.494   3.153 -0.0592  0.0985  0.0970
 2372W        W 3236   3.541  25.929   6.903 -0.1481  0.0642  0.0800
 2373W        W 3237  28.571  28.063   5.875  0.0356 -0.0904  0.1470
 2374W        W 3238  28.669  26.797   7.658 -0.0643 -0.2911  0.1266
 2375W        W 3239   0.599  28.760   3.089  0.3814  0.1842  0.2230
 2376W        W 3240   1.419  28.736   5.616  0.1292 -0.0939 -0.1218
 2377W        W 3241  27.371  25.580   5.467 -0.0160 -0.0132 -0.2063
 2378W        W 3242   1.000   1.720   7.841  0.2985 -0.0190  0.0399
 2379W        W 3243   1.253  28.832   7.467 -0.0031  0.1815  0.1554
 2380W        W 3244  26.735  27.996   7.344 -0.0052  0.2509  0.1819
 2381W        W 3245  26.697  24.766   6.641 -0.2947 -0.0154  0.0407
 2382W        W 3246  25.317  28.850   4.841 -0.1531 -0.3292 -0.3028
 2383W        W 3247  27.425  25.727   8.297 -0.1432  0.0085  0.0590
 2384W        W 3248  26.218  26.074   6.688  0.0098  0.0616  0.0624
 2385W        W 3249  25.986  28.150   4.538  0.5528 -0.0990 -0.2405
 2386W        W 3250  28.700  24.711   7.234  0.0778 -0.1679  0.0664
 2387W        W 3251  27.696  28.496   5.206  0.0304  0.2046 -0.0645
 2388W        W 3252  26.167   0.692   6.261 -0.1836  0.1223 -0.2528
 2389W        W 3253  27.870   1.377   6.356 -0.3438 -0.3237 -0.5055
 2390W        W 3254  28.528  27.534   4.072  0.0127  0.0576  0.1878
 2391W        W 3255  27.569  25.669   8.920  0.1890 -0.2596 -0.1593
 2392W        W 3256  26.955  25.221   5.363 -0.2249  0.0140 -0.0925
 2393W        W 3257   0.837  26.759   6.726 -0.1273 -0.2262  0.0844
 2394W        W 3258  27.679  29.020   6.041  0.0731  0.2224  0.0610
 2395W        W 3259  26.147  28.791   4.573  0.4370 -0.1883  0.2381
 2396W        W 3260  28.565  26.777   5.250 -0.1455  0.1263  0.0253
 2397W        W 3261  26.757   1.570   6.920  0.1964 -0.0866 -0.0979
 2398W        W 3262  25.261  27.025   8.183  0.1965 -0.0249 -0.1177
 2399W        W 3263  26.514  26.882   4.887  0.0937 -0.0199 -0.0537
 2400W        W 3264  27.318  24.554   2.809  0.0647 -0.1600 -0.0209
 2401W        W 3265  24.328   1.244  12.397  0.0107 -0.0699  0.0072
 2402W        W 3266  25.913  26.677   9.393  0.3093  0.1705 -0.0325
 2403W        W 3267   1.488  27.888   9.845 -0.0063  0.0492  0.0828
 2404W        W 3268  27.436  27.378   7.599 -0.0666 -0.2062 -0.2097
 2405W        W 3269  26.619   1.521   7.421 -0.0455  0.2582 -0.0694
 2406W        W 3270  26.724  25.555   7.440 -0.0939  0.3092  0.2949
 2407W        W 3271  25.990  26.277   8.875  0.1449  0.0814  0.3518
 2408W        W 3272  26.714  28.491   7.139 -0.0053  0.3833 -0.1701
 2409W        W 3273  27.923   0.643  11.059  0.2351 -0.2579  0.0589
 2410W        W 3274  26.464  25.704   7.059  0.0680 -0.1402 -0.1986
 2411W        W 3275  27.148  25.937   9.165 -0.1679  0.2685 -0.0745
 2412W        W 3276  27.623  28.262   9.756  0.2638  0.1510 -0.0031
 2413W        W 3277  27.322  25.221   8.991  0.2341 -0.2276  0.2026
 2414W        W 3278  27.848  28.120  11.287 -0.1266  0.2885 -0.3316
 2415W        W 3279  28.519  25.345  10.642 -0.1123  0.1532 -0.0851
 2416W        W 3280  22.003   0.891  11.045  0.1154  0.3040  0.2232
 2417W        W 3281  27.001   1.379   9.891 -0.2756 -0.2356  0.0278
 2418W        W 3282  26.411  26.996   7.882  0.0756 -0.1835  0.0125
 2419W        W 3283  26.382  26.354   8.626 -0.1182  0.2060  0.0459
 2420W        W 3284   0.497  27.674   7.799 -0.3994 -0.0376  0.2737
 2421W        W 3285   1.166   1.535  11.347  0.0947 -0.3295  0.0911
 2422W        W 3286  27.348  25.103  10.110 -0.2921  0.0581 -0.2351
 2423W        W 3287  27.863  28.602   6.355  0.0583 -0.1170  0.0551
 2424W        W 3288  25.999  27.634  10.484 -0.3310 -0.0016 -0.1499
 2425W        W 3289  25.339  27.821   6.323 -0.0882 -0.0846 -0.5454
 2426W        W 3290  24.526  27.313  12.621  0.1821  0.2061  0.0984
 2427W        W 3291   2.903  27.043  12.006  0.2400 -0.2865 -0.0677
 2428W        W 3292  28.659   0.491   9.199 -0.0845  0.3411 -0.4723
 2429W        W 3293  28.029   0.829  10.618 -0.0627  0.1245 -0.0283
 2430W        W 3294  25.423  27.398  11.777  0.1098 -0.1839  0.0319
 2431W        W 3295  26.824  28.089   9.275 -0.0074 -0.0094 -0.0902
 2432W        W 3296  25.897  27.822  11.015  0.0997  0.4003  0.2522
 2433W        W 3297  28.117  28.496  12.179 -0.1191  0.1913  0.2950
 2434W        W 3298  28.912  27.807  11.085 -0.1690  0.0370  0.1612
 2435W        W 3299  26.276  24.864   9.527 -0.3245  0.2367  0.0622
 2436W        W 3300   0.440   1.127  13.453  0.0009  0.0290  0.0273
 2437W        W 3301  25.567  25.497   4.948 -0.2317 -0.0816 -0.0979
 2438W        W 3302  27.024   0.764   9.956  0.1235 -0.0647  0.0670
 2439W        W 3303  27.823  27.422   8.349 -0.0769 -0.1829  0.1909
 2440W        W 3304  28.791  27.418   8.503  0.0213  0.2603 -0.0484
 2441W        W 3305  27.821  26.833   7.337  0.0820 -0.0085  0.1557
 2442W        W 3306  28.123  28.008   9.916  0.2695  0.0890  0.1506
 2443W        W 3307  26.680  28.400   9.731 -0.0722  0.1283  0.1502
 2444W        W 3308  26.595  27.801   8.819  0.6284  0.0793  0.0691
 2445W        W 3309  25.807  28.901   7.384 -0.2698  0.2584  0.0126
 2446W        W 3310  26.934  28.854   8.870  0.1222 -0.0817 -0.2353
 2447W        W 3311  27.497  24.796   9.327 -0.1022 -0.4588 -0.1847
 2448W        W 3312  29.097   0.707   9.041  0.1925  0.1597  0.1502
 2449W        W 3313   0.594  27.983  10.354  0.1462  0.2602 -0.3806
 2450W        W 3314  27.229  28.605   8.607 -0.1928  0.3639  0.0742
 2451W        W 3315  26.186  28.736   8.766  0.1175 -0.2006  0.4091
 2452W        W 3316  23.626  26.155   9.711  0.1279  0.0430 -0.1304
 2453W        W 3317  28.145  27.217  10.247 -0.1259  0.1347 -0.0533
 2454W        W 3318  29.080  27.271  11.859  0.2443 -0.1906 -0.1401
 2455W        W 3319  24.955  23.161   7.377 -0.1190  0.0054 -0.1685
 2456W        W 3320  27.676  27.747   5.683 -0.0689 -0.1416 -0.2262
 2457W        W 3321  25.268  25.244   5.340 -0.3725  0.1839  0.2667
 2458W        W 3322  28.776  26.892   9.941  0.2303 -0.0598 -0.1939
 2459W        W 3323  23.663  28.407   7.760 -0.0518 -0.0915 -0.0859
 2460W        W 3324  28.245  29.090   6.954  0.0553  0.1264 -0.2554
 2461W        W 3325   0.531  27.964   8.179 -0.1667 -0.2395  0.1429
 2462W        W 3326  25.411  27.964   9.204  0.2279 -0.0261  0.1247
 2463W        W 3327  27.531  26.371  12.784 -0.3942 -0.1116  0.1419
 2464W        W 3328  27.392  27.215   8.160  0.2617  0.0179 -0.0958
 2465W        W 3329  27.126  28.574   8.044  0.1094  0.2482 -0.0706
 2466W        W 3330  28.834  27.176   8.038 -0.2864  0.0278  0.0349
 2467W        W 3331  26.060  27.669   6.962 -0.1220  0.0120  0.1830
 2468W        W 3332  28.119  25.058   7.879  0.0327  0.0628 -0.2061
 2469W        W 3333  22.502  26.841   9.132  0.4073  0.0916 -0.0402
 2470W        W 3334  27.364  28.748   6.488 -0.1203  0.1160  0.0559
 2471W        W 3335  25.866  28.258   8.802  0.0109 -0.0452 -0.1539
 2472W        W 3336  28.238  26.443   8.286  0.1340  0.0123  0.0216
 2473W        W 3337  28.244   1.014  10.215  0.1732  0.0868  0.3141
 2474W        W 3338   0.942  28.287   8.719  0.0227  0.0305  0.3360
 2475W        W 3339  28.737   0.935   8.870  0.1815  0.1371  0.2948
 2476W        W 3340   0.476  28.061   6.366 -0.2431  0.0775 -0.1564
 2477W        W 3341  25.983  28.075   5.095 -0.0744  0.2262  0.0950
 2478W        W 3342  26.185   0.627  12.897  0.1923  0.2414 -0.1052
 2479W        W 3343   0.271  28.479   8.329 -0.2342  0.0199 -0.0382
 2480W        W 3344   0.915  27.738   8.590  0.1453  0.1184  0.0629
 2481W        W 3345  26.683   0.217   9.121  0.2039 -0.2304 -0.1072
 2482W        W 3346  27.240  27.391  11.028  0.2829  0.1839 -0.1688
 2483W        W 3347  26.173  27.410   7.675 -0.2282 -0.0852  0.0174
 2484W        W 3348  27.961  25.911  10.075 -0.0236 -0.3426  0.1322
 2485W        W 3349  28.031  27.304  11.260  0.1110 -0.3021 -0.1074
 2486W        W 3350  25.459  27.131   7.312  0.1417 -0.2049 -0.0289
 2487W        W 3351  27.248   0.031  10.829  0.0345  0.1087  0.0054
 2488W        W 3352   1.150  25.822  11.602 -0.0443 -0.0836 -0.0950
 2489W        W 3353   0.521  27.094  11.262  0.2382 -0.0989 -0.0247
 2490W        W 3354   0.009  25.895   9.902  0.3647  0.1418  0.0437
 2491W        W 3355  26.962  25.161   7.331 -0.0656  0.2487 -0.2688
 2492W        W 3356  28.443  27.564  12.894  0.3268  0.3165 -0.0942
 2493W        W 3357  25.518   1.809  10.799  0.0904  0.0761  0.2119
 2494W        W 3358  28.479  25.832   9.062  0.0335 -0.1274 -0.2684
 2495W        W 3359  24.631  24.603  11.863  0.0284 -0.1143 -0.1041
 2496W        W 3360   1.585  26.075   7.831 -0.2873 -0.0518  0.0996
 2497W        W 3361  28.632  28.691   9.524  0.1730  0.0070 -0.1807
 2498W        W 3362  26.268  27.391  10.073  0.0215 -0.0654  0.2330
 2499W        W 3363  26.276  24.089   6.144 -0.0325 -0.0605  0.0688
 2500W        W 3364   1.920  29.035  12.362  0.0274  0.2109 -0.0954
 2501W        W 3365  28.934  28.267   7.501 -0.3984  0.0571  0.1288
 2502W        W 3366  24.383  25.612   9.830  0.3397  0.4794  0.0803
 2503W        W 3367  28.544  24.676   7.721 -0.3135  0.3790 -0.1583
 2504W        W 3368  27.590  27.127   8.808  0.1440 -0.2723 -0.2816
 2505W        W 3369  26.930  27.081   7.739 -0.1211  0.0926  0.1442
 2506W        W 3370  27.278  24.989  11.503  0.0162  0.0568 -0.2598
 2507W        W 3371  27.530  27.622   8.923  0.0418 -0.3327  0.1026
 2508W        W 3372  27.850  28.894  10.063 -0.0022  0.1522 -0.1404
 2509W        W 3373   0.533  28.714   7.790 -0.0177 -0.1518 -0.1010
 2510W        W 3374  27.362   0.549   9.080 -0.1035 -0.1200  0.0270
 2511W        W 3375  26.123  28.301   9.752  0.0545 -0.3148 -0.3636
 2512W        W 3376  26.804   0.566   8.714 -0.3684  0.0477  0.1189
 2513W        W 3377  27.090  27.915   8.849 -0.0543  0.1236  0.2037
 2514W        W 3378  26.382  28.719   9.987 -0.1108  0.0829 -0.0146
 2515W        W 3379  27.188  26.956   9.046 -0.0121 -0.2020 -0.2173
 2516W        W 3380  25.922  27.608   4.990 -0.3416 -0.0579  0.1295
 2517W        W 3381   0.344  26.280  11.969 -0.1833 -0.2661 -0.2623
 2518W        W 3382  26.768  27.077   8.261  0.0780  0.0150  0.0964
 2519W        W 3383  26.645  25.915   8.882 -0.0124 -0.0250  0.3272
 2520W        W 3384  27.275  26.616   7.231  0.1572 -0.0340  0.1897
 2521W        W 3385   0.240  26.984   8.824  0.2477  0.0930 -0.0156
 2522W        W 3386  28.533   0.218   5.493  0.5662 -0.0311 -0.1401
 2523W        W 3387  25.582   0.157   8.945 -0.0684 -0.3268  0.0729
 2524W        W 3388   0.091  27.663   9.524  0.4050 -0.4290  0.1038
 2525W        W 3389  26.810   0.313   9.611 -0.1014 -0.0211  0.4076
 2526W        W 3390   0.994  28.423   7.530  0.0322  0.0841  0.1023
 2527W        W 3391  26.142  25.878  10.131  0.0171 -0.0187 -0.2442
 2528W        W 3392  27.411  28.706  10.049 -0.0193  0.3073 -0.1191
 2529W        W 3393   0.756  28.960  11.326 -0.1257  0.0518 -0.1287
 2530W        W 3394  28.189  26.595   9.124 -0.2195  0.0165 -0.1612
 2531W        W 3395  28.051   2.018  11.386  0.0609  0.2918  0.0805
 2532W        W 3396  25.722  25.158  10.622 -0.1554 -0.0649 -0.2074
 2533W        W 3397  27.353  27.902   9.325  0.3857  0.1324 -0.4648
 2534W        W 3398  28.449  28.879   6.350  0.0071 -0.0872  0.0654
 2535W        W 3399   1.158  28.622   8.445  0.2603 -0.1645  0.0424
 2536W        W 3400  23.945  26.957   8.458  0.1175 -0.0818 -0.1617
 2537W        W 3401   0.364  27.030   6.949 -0.0423  0.2366 -0.0855
 2538W        W 3402  28.751  27.629  10.594  0.2407  0.1824 -0.1363
 2539W        W 3403  24.609  28.844   7.316 -0.0439  0.1134  0.0227
 2540W        W 3404  27.358  26.633   8.656 -0.3932  0.0661 -0.1092
 2541W        W 3405  24.898  24.457   6.287 -0.1890 -0.0132  0.0487
 2542W        W 3406  28.150  25.250   8.962  0.2501  0.0205  0.2407
 2543W        W 3407  26.188  28.753   5.795  0.0131  0.2208 -0.0969
 2544W        W 3408  27.321  29.016   6.979 -0.1237 -0.0174  0.2272
 2545W        W 3409  29.139  27.623  10.275 -0.2067  0.1262  0.0950
 2546W        W 3410  27.913  27.375   7.201  0.2338  0.1532  0.3281
 2547W        W 3411   1.427  27.869   7.553  0.0077 -0.2863  0.1119
 2548W        W 3412  26.608   0.505   6.287  0.2115 -0.1599  0.1387
 2549W        W 3413  26.593  28.732   8.471 -0.0067  0.1474  0.2237
 2550W        W 3414  25.622  28.237   9.977 -0.3225 -0.0721  0.0578
 2551W        W 3415  28.171  27.683   8.042  0.0832  0.1170  0.0869
 2552W        W 3416  24.980  24.678   9.037 -0.1618  0.0330  0.1301
 2553W        W 3417  24.494  27.834   9.346 -0.1015 -0.0871  0.2341
 2554W        W 3418  27.829  25.699   6.507  0.1904  0.2176 -0.1487
 2555W        W 3419  28.046  25.315  10.791  0.0237  0.4462 -0.3118
 2556W        W 3420  26.232  26.861   8.365  0.0812  0.0545 -0.1228
 2557W        W 3421  25.981  25.888   7.227  0.0354 -0.1464 -0.0629
 2558W        W 3422  24.309  28.042   7.019 -0.2258 -0.0024 -0.1898
 2559W        W 3423  24.777  27.629   7.936 -0.2134  0.1788  0.2236
 2560W        W 3424  28.207  24.706   8.729  0.0233 -0.1157 -0.0494
 2561W        W 3425  27.809  24.768  10.096 -0.0284 -0.0236  0.2907
 2562W        W 3426  27.716  29.126  10.877  0.0907 -0.3416  0.1893
 2563W        W 3427  28.659  28.326   5.008  0.0802  0.1583 -0.1444
 2564W        W 3428  27.458  26.778   9.482  0.3148 -0.1907 -0.0405
 2565W        W 3429  27.490  27.928  10.099  0.1280 -0.0446  0.1599
 2566W        W 3430  28.488  28.109   6.685  0.0794  0.0679  0.0785
 2567W        W 3431  26.307  24.335   6.658 -0.2151  0.3868  0.0969
 2568W        W 3432  26.215  27.390   9.116 -0.3561  0.2639  0.1267
 2569W        W 3433  28.848  27.192  10.423  0.4952 -0.0321 -0.0610
 2570W        W 3434  27.099  27.577   7.976  0.2215 -0.4493 -0.1328
 2571W        W 3435  25.841  27.333  12.239 -0.0558 -0.1722  0.1438
 2572W        W 3436  25.996  26.785  10.454 -0.0860 -0.1310  0.1027
 2573W        W 3437  25.214  25.596   9.386 -0.2781  0.0653 -0.0288
 2574W        W 3438  28.258   0.488   8.424  0.0638 -0.0900  0.4910
 2575W        W 3439  24.673  28.461  10.839  0.1762 -0.1900  0.1833
 2576W        W 3440   0.522  25.758   7.965 -0.0665 -0.0654 -0.0679
 2577W        W 3441  24.334  26.665  11.801  0.1856  0.2195  0.2374
 2578W        W 3442  26.773  27.666  11.297 -0.3149  0.0375  0.1473
 2579W        W 3443  23.819   0.642   8.284 -0.1211  0.2144 -0.1310
 2580W        W 3444  28.306  26.437  10.803  0.3946  0.0373  0.0224
 2581W        W 3445  26.810  27.256   5.026 -0.1075 -0.1230 -0.1056
 2582W        W 3446  25.426   0.916   7.023  0.0558  0.0245 -0.2328
 2583W        W 3447  27.934  27.680   9.260  0.0994  0.1079 -0.1533
 2584W        W 3448  24.229  28.857   6.733  0.0902 -0.0602  0.1886
 2585W        W 3449  28.033  27.742  10.371 -0.3107  0.0884  0.0689
 2586W        W 3450  25.884  27.816   7.852 -0.0575  0.0953  0.0628
 2587W        W 3451  27.135  25.621   7.779  0.2188  0.3642  0.1339
 2588W        W 3452  25.659  26.872   6.892  0.1215 -0.1319  0.2443
 2589W        W 3453  27.756  28.383   8.169 -0.2310  0.2389  0.2063
 2590W        W 3454  25.461  26.264   7.462 -0.1917 -0.0277  0.2249
 2591W        W 3455  27.106  25.037   6.759 -0.0730 -0.3242  0.2560
 2592W        W 3456  24.994  26.974   8.725  0.0317 -0.2058  0.1160
 2593W        W 3457  25.215  27.886   9.741 -0.1756  0.0293  0.1096
 2594W        W 3458  28.829  26.248  10.107  0.1881 -0.2090 -0.1207
 2595W        W 3459  28.283  29.019  11.441  0.1528  0.0227  0.2262
 2596W        W 3460  26.878  24.234   6.307 -0.1602 -0.0268 -0.0702
 2597W        W 3461  27.007  26.450   5.852  0.0671 -0.0598  0.1614
 2598W        W 3462  24.826  24.083   7.829 -0.1760 -0.1659 -0.0445
 2599W        W 3463  27.465  26.201   8.838  0.1717 -0.0662 -0.1640
 2600W        W 3464   0.428  26.210   7.750 -0.2145  0.1350 -0.0612
 2601W        W 3465  26.875  27.607   8.446 -0.0086  0.3634  0.0682
 2602W        W 3466   1.591  25.841  10.059  0.0292  0.1843  0.0394
 2603W        W 3467   0.676   0.087   4.742  0.0191  0.1946 -0.0996
 2604W        W 3468  28.468  24.075  11.344 -0.0293  0.1909  0.0341
 2605W        W 3469  27.043  26.688  12.090  0.0400  0.1004  0.1687
 2606W        W 3470  24.036  25.533   6.757 -0.1262  0.0141  0.0636
 2607W        W 3471  27.943   0.410  10.362  0.0672  0.1162 -0.1192
 2608W        W 3472  26.507  24.946  10.014 -0.2834 -0.2881 -0.1092
 2609W        W 3473  27.487  26.007   7.893  0.1865 -0.2569 -0.1378
 2610W        W 3474  22.420   1.385   7.015  0.0112  0.0503  0.0479
 2611W        W 3475   0.132   0.054  11.045  0.0980 -0.0265  0.2678
 2612W        W 3476  27.049  25.999  10.189 -0.2762  0.0859  0.2299
 2613W        W 3477  26.141  25.719   8.754  0.0677 -0.3966  0.1477
 2614W        W 3478  28.760  26.804  10.791 -0.0404  0.0011  0.1731
 2615W        W 3479  27.825  28.312  10.204  0.0877  0.0256 -0.0552
 2616W        W 3480   0.677  26.575   6.268  0.0040  0.0871 -0.0617
 2617W        W 3481  27.730  28.636   8.632  0.2759 -0.0781 -0.0942
 2618W        W 3482   0.038   1.134   5.517 -0.2852  0.1000 -0.0590
 2619W        W 3483  25.317   0.736  10.675  0.0611 -0.1626  0.0331
 2620W        W 3484  25.581  25.223  13.544 -0.0107  0.2134  0.0375
 2621W        W 3485   3.892  25.565  11.559  0.0648  0.2195 -0.0932
 2622W        W 3486  28.615  25.787  10.285 -0.3920 -0.0756  0.1921
 2623W        W 3487  27.205  28.770  11.679 -0.0784  0.3019  0.1658
 2624W        W 3488  27.288  26.203  10.717  0.0787  0.1279 -0.0076
 2625W        W 3489  27.309  29.114   7.849  0.3541  0.4546  0.1850
 2626W        W 3490  24.701  27.153   8.144  0.0714 -0.1849 -0.1490
 2627W        W 3491  26.706   1.726  10.078  0.0681 -0.0534 -0.2416
 2628W        W 3492  28.770  26.006  13.565 -0.0219 -0.0327 -0.0804
 2629W        W 3493  28.167   0.166   9.115 -0.2276  0.2131  0.1774
 2630W        W 3494  28.984  27.509   7.241 -0.1701 -0.0564 -0.1359
 2631W        W 3495  26.777  26.342  10.819  0.1749 -0.0414  0.2785
 2632W        W 3496  26.816  27.127  11.874  0.0458  0.0074  0.0731
 2633W        W 3497  25.292  26.517   8.114  0.1138  0.0245  0.1926
 2634W        W 3498  28.107  28.518   9.678  0.1644  0.1825 -0.1386
 2635W        W 3499  25.148  25.116  11.525 -0.0357 -0.1998  0.0379
 2636W        W 3500  28.558  26.252   7.986  0.0067 -0.4388  0.0045
 2637W        W 3501  29.065  26.678  10.368 -0.0665 -0.1967  0.0151
 2638W        W 3502  27.793  26.674   8.768 -0.0597  0.0177 -0.2232
 2639W        W 3503  25.878   2.718   7.595 -0.2431  0.1190 -0.0705
 2640W        W 3504  27.107   0.151   8.759  0.0112  0.0131  0.0463
 2641W        W 3505  28.564  27.323  11.081  0.1894 -0.0240  0.0962
 2642W        W 3506  24.931  28.545  10.424  0.0268  0.0529 -0.2316
 2643W        W 3507  27.768  26.476   7.998  0.3084 -0.0868 -0.2508
 2644W        W 3508  27.945  25.158   7.362  0.2646  0.1233  0.3478
 2645W        W 3509   0.313  26.045   9.476 -0.2413  0.0302 -0.1293
 2646W        W 3510  28.590  26.750   8.172 -0.0379  0.2532  0.1582
 2647W        W 3511  28.440  29.015   7.776 -0.2601  0.3741  0.0159
 2648W        W 3512  25.765  28.694   9.810  0.0299  0.5476  0.2726
 2649W        W 3513  26.151   1.045   9.596 -0.3210 -0.2486  0.0523
 2650W        W 3514  23.953  24.272   6.532  0.1814 -0.2032  0.2671
 2651W        W 3515  26.648  26.472   9.021 -0.1824 -0.3275 -0.1086
 2652W        W 3516  25.454   0.420  10.245  0.1712 -0.0861 -0.0602
 2653W        W 3517   1.029  27.354   9.551  0.1599 -0.2609 -0.0876
 2654W        W 3518  27.334  28.312  10.434  0.0753  0.0687  0.0976
 2655W        W 3519  23.614  27.297   9.138 -0.0801 -0.1162  0.1977
 2656W        W 3520   2.345  28.648   6.011 -0.0306  0.4249  0.0567
 2657W        W 3521  27.805  26.937   6.326  0.0923  0.2749  0.1272
 2658W        W 3522  26.511  26.664  10.385 -0.2214 -0.1227  0.1687
 2659W        W 3523  27.086   1.465   7.465 -0.1295 -0.0920  0.0805
 2660W        W 3524   1.542  26.308   8.271 -0.0028 -0.2328 -0.0134
 2661W        W 3525  26.500  26.546  11.222 -0.2401 -0.2416  0.0365
 2662W        W 3526  23.501  24.824   9.903  0.1302  0.2918 -0.1266
 2663W        W 3527  29.100  26.012  11.003 -0.1423 -0.3141  0.3215
 2664W        W 3528  27.255  27.167   9.827  0.1621  0.0272 -0.1404
 2665W        W 3529  25.680   0.359   8.245  0.1239 -0.1894  0.3377
 2666W        W 3530  25.254  28.955  10.400 -0.1368 -0.1413 -0.2701
 2667W        W 3531  27.080  28.557   6.822 -0.0329  0.0259 -0.1624
 2668W        W 3532  27.083  27.800  10.711 -0.1634  0.0435 -0.0661
 2669W        W 3533  25.850  27.283   9.745 -0.0348 -0.5243  0.2482
 2670W        W 3534  28.697  27.622   6.803  0.2387  0.1832  0.0703
 2671W        W 3535  25.634  28.594   7.986  0.1491  0.0026 -0.2447
 2672W        W 3536  29.071  27.327   9.873 -0.2552 -0.4057 -0.0685
 2673W        W 3537  28.126  26.645   7.712  0.0426 -0.2702  0.2460
 2674W        W 3538  27.163  26.467   9.109 -0.1436  0.2164 -0.0233
 2675W        W 3539  28.766   0.544   8.483 -0.1888 -0.2488 -0.2134
 2676W        W 3540  28.329  27.766  11.232  0.3406  0.0364  0.0598
 2677W        W 3541  28.394  24.594  10.767 -0.1041  0.1289  0.0605
 2678W        W 3542  27.613  25.182  11.200 -0.0025  0.0896  0.2324
 2679W        W 3543  29.004  27.604   6.419 -0.1508 -0.0044  0.1412
 2680W        W 3544  24.580   0.425   9.261 -0.1418  0.0789  0.0381
 2681W        W 3545  27.669  27.750   7.951 -0.1702 -0.1473 -0.0524
 2682W        W 3546  25.713  26.309   6.217 -0.0475 -0.0165 -0.0536
 2683W        W 3547  25.344  26.650   8.605  0.2888 -0.1272  0.0630
 2684W        W 3548  26.680   1.683  12.775 -0.0222  0.1108 -0.2097
 2685W        W 3549   0.604  28.561  10.295  0.2797  0.0435 -0.0915
 2686W        W 3550  26.104  28.874  10.900  0.0831 -0.0989  0.3186
 2687W        W 3551  28.279  28.313   8.529  0.0080 -0.0194  0.1745
 2688W        W 3552  27.102   0.335  10.409  0.1066 -0.1672  0.3933
 2689W        W 3553  28.702  24.725   9.923 -0.1274 -0.2153  0.1252
 2690W        W 3554  25.266  27.900   8.567 -0.0574  0.0181  0.0176
 2691W        W 3555  26.340  27.845   8.158 -0.3451 -0.0536  0.1707
 2692W        W 3556   1.054  26.107  10.689  0.3915 -0.0240 -0.1918
 2693W        W 3557  28.328  27.175   7.968  0.0168  0.3611 -0.2517
 2694W        W 3558  24.563  25.528   7.753  0.3461  0.2758  0.0273
 2695W        W 3559  26.142  26.721   6.149  0.1907  0.0073  0.0012
 2696W        W 3560   1.466  25.481   8.418 -0.0287 -0.0289 -0.1059
 2697W        W 3561  28.316  25.864   8.286  0.1738  0.0799  0.2199
 2698W        W 3562   3.439  27.996   9.956 -0.1038  0.2794 -0.0084
 2699W        W 3563  25.576  27.492  10.697 -0.1975 -0.0378 -0.0168
 2700W        W 3564  23.879  28.853   7.991 -0.0682 -0.1120 -0.0013
 2701W        W 3565  24.591  28.159   7.814 -0.0653  0.2540 -0.0039
 2702W        W 3566  25.454  25.292  12.662 -0.1519 -0.0112 -0.1125
 2703W        W 3567  27.239   0.015   9.832  0.0148  0.0047 -0.1903
 2704W        W 3568   0.042   0.726   9.908  0.1018 -0.3000 -0.2882
 2705W        W 3569   1.469  29.116   7.911 -0.2578 -0.0736  0.1316
 2706W        W 3570   0.679  28.689   9.764  0.1159  0.1000 -0.1152
 2707W        W 3571  28.899   1.766  13.830  0.3215 -0.0270 -0.3730
 2708W        W 3572  26.468  25.112   8.309  0.1207  0.0082 -0.2164
 2709W        W 3573  26.110  27.420   8.171 -0.2845 -0.0502 -0.1509
 2710W        W 3574  23.029  26.152   8.593 -0.0578  0.2249 -0.0853
 2711W        W 3575  25.335  24.431   6.543 -0.0470 -0.3842  0.2373
 2712W        W 3576  26.720  27.125  12.496 -0.3188 -0.2279  0.2505
 2713W        W 3577  26.612  25.530   8.506 -0.1640  0.3087  0.5348
 2714W        W 3578  28.041   0.246   5.824  0.0845  0.0181 -0.2706
 2715W        W 3579  23.955   1.485   8.487  0.0118 -0.0711  0.2444
 2716W        W 3580  26.565  28.173  11.469  0.0772 -0.0063 -0.2841
 2717W        W 3581  29.009  25.395  10.297 -0.0999 -0.1934 -0.2110
 2718W        W 3582  28.486  25.205   7.534  0.1700 -0.0084  0.1685
 2719W        W 3583  28.537  28.638  10.709  0.1459  0.0775 -0.1121
 2720W        W 3584  27.103  26.521  10.409  0.0602  0.1317  0.1057
 2721W        W 3585  24.213  29.008  12.088  0.0501 -0.4698 -0.0671
 2722W        W 3586   0.084   0.144   6.835  0.0391 -0.1418 -0.1643
 2723W        W 3587  24.936  27.121  12.344 -0.3389  0.1945  0.0380
 2724W        W 3588  28.050  28.261   5.637 -0.1388 -0.1810 -0.1070
 2725W        W 3589  27.042  27.773   6.543 -0.2466 -0.1236 -0.1526
 2726W        W 3590  26.030   0.154   8.624  0.1717  0.2659 -0.0149
 2727W        W 3591  27.196  28.332   9.056 -0.0790 -0.0070 -0.0935
 2728W        W 3592  26.655  28.990   5.921 -0.2686  0.1454  0.0178
 2729W        W 3593  28.724  27.894   3.766  0.2859 -0.0927  0.0205
 2730W        W 3594  27.180  26.288   6.830  0.0180 -0.0359  0.1117
 2731W        W 3595  25.453  26.021  10.143 -0.1560  0.1029 -0.0570
 2732W        W 3596   0.637  27.181  10.781  0.0965  0.0104 -0.1955
 2733W        W 3597  28.021  29.061  10.495 -0.1359  0.0190  0.0294
 2734W        W 3598  28.374   0.388   9.680 -0.1778 -0.0066  0.0725
 2735W        W 3599  28.106  26.450  11.304 -0.3739 -0.0010  0.0518
 2736W        W 3600  28.674   0.742  11.879 -0.1122 -0.0622  0.0516
 2737W        W 3601  24.064   0.459   9.382  0.0841  0.1474 -0.2477
 2738W        W 3602   1.062  27.254  10.575 -0.0978 -0.0905 -0.2048
 2739W        W 3603  28.435  28.232   9.296  0.0336 -0.0000  0.0762
 2740W        W 3604  26.521  27.206   8.669 -0.0978  0.0368 -0.1919
 2741W        W 3605  26.785  29.001  10.030 -0.1623  0.2055 -0.1482
 2742W        W 3606  28.151  25.081  11.272 -0.3503 -0.3878 -0.0839
 2743W        W 3607  28.104  28.626   5.959 -0.0645 -0.0623 -0.0199
 2744W        W 3608  25.068  27.439   8.394 -0.1038  0.1624  0.1280
 2745W        W 3609  27.725  27.686   9.723  0.3294  0.0684 -0.1840
 2746W        W 3610  27.293  26.252   9.659 -0.0376  0.0614 -0.3286
 2747W        W 3611  24.689  25.797   8.530  0.1837 -0.2406 -0.0588
 2748W        W 3612  26.549  27.723  10.403 -0.0171  0.0022 -0.2885
 2749W        W 3613   0.108  28.896   8.499 -0.1281 -0.0841  0.0307
 2750W        W 3614  27.167  26.377   7.858 -0.2228  0.0017  0.1746
 2751W        W 3615  27.514  25.786   9.436  0.2183 -0.1664  0.0895
 2752W        W 3616   2.863  28.403  11.112 -0.1409  0.0205  0.3371
 2753W        W 3617  27.515  27.065   7.019 -0.0681 -0.0730 -0.1280
 2754W        W 3618  25.991  28.366   6.737 -0.3827 -0.4136 -0.3464
 2755W        W 3619  26.365   0.500   9.482 -0.0546  0.0272 -0.0679
 2756W        W 3620  25.845  24.406   6.919 -0.0701 -0.1740  0.2164
 2757W        W 3621  26.672  28.895   9.556 -0.1799  0.0729 -0.0745
 2758W        W 3622  23.984  26.318  11.856 -0.1197 -0.0943  0.0015
 2759W        W 3623  27.337  24.886   8.551 -0.0071  0.0250 -0.1575
 2760W        W 3624  22.260  28.137   7.315 -0.2748  0.1238  0.0517
 2761W        W 3625  26.199  28.012   5.795  0.3035 -0.0756 -0.0522
 2762W        W 3626  25.481   1.231  10.777  0.0563 -0.0577 -0.0693
 2763W        W 3627  28.300   0.819   9.402  0.2174 -0.1996  0.0183
 2764W        W 3628  28.297  27.314   9.321  0.0581  0.0938  0.1047
 2765W        W 3629  26.403  28.303   7.558  0.3639  0.2591 -0.3486
 2766W        W 3630   0.316  26.508   8.422  0.1999 -0.1059 -0.0414
 2767W        W 3631  26.826  28.083   8.356  0.0640 -0.2603 -0.1444
 2768W        W 3632  28.544  27.834   4.951 -0.0361 -0.0601  0.3139
 2769W        W 3633  25.780  24.415   6.328 -0.3227 -0.3042  0.0057
 2770W        W 3634   0.562  25.943   9.936  0.3279  0.0764  0.1704
 2771W        W 3635  25.651  25.688   6.251  0.3831  0.0171  0.3064
 2772W        W 3636   0.334  28.934  10.597 -0.1814  0.2897 -0.2623
 2773W        W 3637  27.887  28.153   6.062  0.0438 -0.0004  0.2546
 2774W        W 3638  27.756  28.601  10.998  0.1000  0.2534  0.0361
 2775W        W 3639  27.890  26.311   5.433  0.2294 -0.0998 -0.0805
 2776W        W 3640  26.430  25.331   8.944 -0.2017 -0.0157 -0.3106
 2777W        W 3641  24.580  25.337   8.405  0.2380  0.2745  0.0775
 2778W        W 3642  28.578  29.058  11.850  0.0042  0.1263  0.2841
 2779W        W 3643  27.228  26.674   9.952  0.2550 -0.2763  0.4449
 2780W        W 3644  24.538  28.087  10.418 -0.2155 -0.0416  0.0449
 2781W        W 3645  24.717   0.207   8.734 -0.1146 -0.1304 -0.0484
 2782W        W 3646  25.271   1.565  12.173  0.0652  0.1372 -0.1025
 2783W        W 3647  26.565   0.088   8.665 -0.0160 -0.3528 -0.1917
 2784W        W 3648  28.508  26.820  10.371  0.1557  0.2597  0.0934
 2785W        W 3649  28.500   0.699  12.630  0.0018  0.0905  0.1253
 2786W        W 3650  28.216  28.403  11.061  0.1934 -0.0577  0.1384
 2787W        W 3651  27.827   0.913   6.597 -0.1636  0.0158 -0.1935
 2788W        W 3652  26.003  27.918   9.119  0.0827  0.0807  0.2688
 2789W        W 3653  27.704   0.864  10.284  0.0560  0.4480  0.5189
 2790W        W 3654  28.726  27.464   9.510 -0.0760 -0.1634  0.2072
 2791W        W 3655  26.612  26.647  11.721  0.0432  0.1921  0.1036
 2792W        W 3656  25.415  26.560   9.179 -0.1031  0.0981 -0.0945
 2793W        W 3657   1.332  27.140   7.449 -0.0983  0.0588  0.0849
 2794W        W 3658  28.441  27.742   9.140 -0.0961 -0.0949  0.0370
 2795W        W 3659  25.767  28.546  10.748 -0.0479 -0.0310  0.1484
 2796W        W 3660  26.316  26.924  10.823  0.0991  0.1224  0.1393
 2797W        W 3661  27.541   1.567   7.257  0.2642  0.0089 -0.0169
 2798W        W 3662  25.318  28.342   9.562 -0.3451 -0.0803 -0.1631
 2799W        W 3663  27.941  25.835   9.188 -0.1077 -0.0232 -0.0667
 2800W        W 3664  26.605  27.628   5.761  0.3230  0.0875 -0.0785
 2801W        W 3665  26.531   0.928  13.900 -0.1500 -0.0642  0.2318
 2802W        W 3666  26.597   0.766  15.943  0.1054  0.4212  0.0873
 2803W        W 3667   0.432  28.735  12.206  0.1678 -0.3106 -0.1248
 2804W        W 3668  27.137  27.311  15.380  0.1279  0.0275  0.1622
 2805W        W 3669  28.975   1.849  11.494  0.0415  0.0155 -0.1933
 2806W        W 3670  26.561  27.525  11.697  0.1988 -0.0907  0.2127
 2807W        W 3671  26.623  25.549  12.000 -0.2696  0.0159 -0.1585
 2808W        W 3672  22.544  24.454  11.963  0.0758  0.0622 -0.1151
 2809W        W 3673  27.312  28.353  16.385  0.0518  0.0487  0.2082
 2810W        W 3674  25.546  26.900  11.209 -0.1192  0.0160 -0.1078
 2811W        W 3675  28.088  27.929  14.435 -0.1295 -0.0330 -0.1185
 2812W        W 3676  26.215  27.223  14.543 -0.0559  0.3668 -0.0644
 2813W        W 3677   1.312  28.976  10.710  0.4143  0.1846 -0.0663
 2814W        W 3678  27.785  26.009  14.836  0.1808  0.0531  0.0882
 2815W        W 3679  25.501  26.265  12.404 -0.3928 -0.1725 -0.4099
 2816W        W 3680  25.724  28.331  15.493  0.3615  0.0187  0.1258
 2817W        W 3681  25.985  26.888  13.046  0.0341 -0.0235  0.0415
 2818W        W 3682  23.691  25.142  15.848 -0.1139 -0.1185  0.0192
 2819W        W 3683  25.926  26.270  11.892 -0.0433 -0.1511  0.1489
 2820W        W 3684   0.103  27.340  11.272  0.0669  0.2539  0.1802
 2821W        W 3685  28.311   0.351  16.443 -0.0614  0.0053  0.1761
 2822W        W 3686  26.192  28.559  13.187 -0.1517  0.1581  0.0217
 2823W        W 3687  27.585  28.282  14.413  0.0752  0.1304  0.1689
 2824W        W 3688  25.642  26.290  14.755  0.3201 -0.0076  0.1522
 2825W        W 3689  25.575   0.849  11.131 -0.2542  0.0323 -0.0156
 2826W        W 3690  26.260  25.539  10.558 -0.0201 -0.2648 -0.0498
 2827W        W 3691  28.402  27.885  15.983 -0.1969 -0.3191 -0.0851
 2828W        W 3692  25.692  26.679  13.987 -0.2566  0.0023  0.1628
 2829W        W 3693   0.256   1.947  15.168  0.2756 -0.2973 -0.0690
 2830W        W 3694  26.307  26.831  13.412  0.0701 -0.1635 -0.0031
 2831W        W 3695  26.180  27.070  12.584  0.0967 -0.0001  0.1931
 2832W        W 3696  27.509  28.932  13.540  0.1004  0.0220 -0.4147
 2833W        W 3697  28.633  28.390  15.691  0.0992  0.0649 -0.1184
 2834W        W 3698  26.710  27.994  12.038 -0.2114 -0.1467  0.1989
 2835W        W 3699  28.003  26.765  10.971 -0.0104 -0.1318 -0.1770
 2836W        W 3700   0.689  28.514  15.890 -0.0114  0.4269 -0.0354
 2837W        W 3701  26.946  28.001  12.502 -0.1060 -0.0579  0.1037
 2838W        W 3702  24.362  26.687  10.880 -0.0835  0.3343 -0.0043
 2839W        W 3703  28.813  25.893  14.946  0.3307  0.0601 -0.0488
 2840W        W 3704  28.323  24.790  13.269 -0.3396 -0.0545  0.0063
 2841W        W 3705  29.067  27.906  11.569  0.1148  0.1165 -0.0115
 2842W        W 3706  28.622  27.090  12.054  0.0399  0.0970  0.0293
 2843W        W 3707  28.287   1.405  15.326 -0.1658 -0.1792  0.0188
 2844W        W 3708  28.756   0.104  14.110  0.1334 -0.0247 -0.0992
 2845W        W 3709  26.454  29.148  13.197  0.3870 -0.1498  0.1577
 2846W        W 3710  24.953  28.879  14.432  0.0779 -0.0702 -0.2207
 2847W        W 3711  25.893  26.570  10.936 -0.0298 -0.2233  0.4872
 2848W        W 3712  27.949  26.949  14.674 -0.0034 -0.3113  0.1259
 2849W        W 3713  26.309  27.757  11.314  0.0303  0.0639 -0.0484
 2850W        W 3714   0.390  27.671  11.074 -0.3373 -0.0554 -0.3654
 2851W        W 3715  26.923  27.000  11.188  0.0984 -0.0228 -0.0330
 2852W        W 3716  24.898  25.535  11.920 -0.0980  0.0450 -0.0813
 2853W        W 3717  26.597   0.948  13.000  0.0423 -0.0789  0.0219
 2854W        W 3718   0.624  27.806  12.206  0.3346  0.1901  0.0645
 2855W        W 3719  27.487   0.400  11.144  0.0017 -0.0786 -0.1255
 2856W        W 3720  28.491  28.580  11.657  0.1344  0.0284 -0.1348
 2857W        W 3721   0.384  25.172  11.449  0.4193  0.2512  0.0671
 2858W        W 3722   1.763  28.419  14.357  0.1187 -0.2155  0.1533
 2859W        W 3723  24.144  28.423   9.740  0.0661 -0.0373  0.2115
 2860W        W 3724  27.008  27.848  11.706  0.0140 -0.1086 -0.1494
 2861W        W 3725  26.489  27.046   6.883  0.1801 -0.1896  0.2623
 2862W        W 3726  25.568  26.342  15.272  0.1898 -0.0599  0.3342
 2863W        W 3727  23.779   0.517  13.762 -0.4768 -0.2257  0.0773
 2864W        W 3728  23.762  27.110  10.361 -0.0625 -0.0894  0.0227
 2865W        W 3729  25.775  25.053  13.987  0.2803 -0.0327  0.2492
 2866W        W 3730   0.331  25.233  12.233  0.1547 -0.1886 -0.2715
 2867W        W 3731  25.419  24.605  11.539 -0.4078 -0.3425 -0.1900
 2868W        W 3732  25.855  26.758  12.124  0.0243  0.0357  0.2861
 2869W        W 3733  23.618  28.309  12.230 -0.0589  0.1172 -0.2439
 2870W        W 3734  24.678  26.975  11.481  0.0251  0.1873 -0.1759
 2871W        W 3735  26.474   0.041  14.595  0.3578 -0.1610  0.1766
 2872W        W 3736   0.773  25.525  11.377 -0.0819  0.1333  0.1419
 2873W        W 3737  27.819   0.894  14.220 -0.3204 -0.2371 -0.0176
 2874W        W 3738  29.030  27.210  15.992 -0.1086 -0.3344  0.1702
 2875W        W 3739  28.883   1.024  12.270  0.0184 -0.1548  0.0271
 2876W        W 3740  27.961  28.437  14.685 -0.1175 -0.1748 -0.0815
 2877W        W 3741  26.843  26.196   9.449  0.1246  0.1259  0.0267
 2878W        W 3742  27.300  28.419  15.448  0.1653 -0.0044 -0.0921
 2879W        W 3743   0.471  27.466  13.239 -0.1856 -0.0494  0.1838
 2880W        W 3744   0.071  28.514  13.340  0.2048 -0.0825 -0.0579
 2881W        W 3745  24.622  27.734  14.326  0.0431 -0.1407 -0.1171
 2882W        W 3746  25.906  25.950  15.446  0.1578 -0.0265  0.2147
 2883W        W 3747  25.768  26.472  11.471  0.0626 -0.3411 -0.1578
 2884W        W 3748  24.621  23.578  15.907  0.0739  0.1135 -0.1195
 2885W        W 3749  24.246  26.413  12.238  0.0888  0.0693 -0.1278
 2886W        W 3750   0.546  26.636  10.958 -0.0866 -0.0542  0.1502
 2887W        W 3751   0.187  26.948  14.816  0.0641  0.0473  0.0288
 2888W        W 3752  26.665  24.747  12.223 -0.0836  0.2861  0.1550
 2889W        W 3753  28.904   2.026  15.006  0.1392  0.4361  0.1773
 2890W        W 3754  27.190  27.891  15.550  0.0598 -0.2197 -0.1565
 2891W        W 3755  27.451  27.638  11.857 -0.2924 -0.1592 -0.2610
 2892W        W 3756  28.374   0.038  14.508 -0.1190  0.0926 -0.0428
 2893W        W 3757  25.493   0.856  12.420 -0.1230  0.0861 -0.0096
 2894W        W 3758  27.422  28.276  12.785 -0.0116  0.2139  0.0082
 2895W        W 3759  26.712  24.319  14.615 -0.0789 -0.1698 -0.0634
 2896W        W 3760   0.480  28.870  13.295 -0.4014  0.0314 -0.1485
 2897W        W 3761  28.774  27.010  11.575 -0.0938 -0.3938  0.1112
 2898W        W 3762  26.908  28.144  13.747  0.0451  0.2620 -0.0852
 2899W        W 3763  26.380  26.215  12.717 -0.1024 -0.0247 -0.1430
 2900W        W 3764  28.676  26.248  12.766 -0.2050 -0.3159 -0.0886
 2901W        W 3765   0.067  26.406   9.696 -0.2978  0.1924  0.0798
 2902W        W 3766   0.437  25.630  12.505  0.0581  0.0890  0.0903
 2903W        W 3767   0.427  26.713  12.335  0.1236  0.0784  0.0899
 2904W        W 3768  28.885  29.130  12.226  0.1173  0.1039 -0.1411
 2905W        W 3769  28.729  26.292  11.134 -0.0081 -0.0983 -0.0305
 2906W        W 3770  26.652  26.721  15.912 -0.2181 -0.1159 -0.1713
 2907W        W 3771  26.446  26.939   9.987 -0.2595  0.4089  0.1987
 2908W        W 3772  27.676  28.710  12.529  0.2207 -0.4053  0.1436
 2909W        W 3773  26.927  24.879  14.761  0.2963  0.1753  0.0215
 2910W        W 3774  26.387  26.394  13.904  0.1262  0.1357  0.3800
 2911W        W 3775  24.038  29.017  15.110  0.1067  0.1838  0.0042
 2912W        W 3776   1.029   1.881  13.421  0.0471 -0.0671  0.0660
 2913W        W 3777  28.364  27.898  13.477  0.5278 -0.2658 -0.1237
 2914W        W 3778  28.431  28.435  13.792  0.2617 -0.2708 -0.1288
 2915W        W 3779   2.090   2.188  12.372 -0.1680  0.1513 -0.0826
 2916W        W 3780  26.646  23.839  14.735  0.1389 -0.2525  0.2060
 2917W        W 3781  27.722  24.623  16.003  0.0210 -0.0883 -0.2080
 2918W        W 3782  27.723  29.024  15.718  0.1472  0.0493  0.1555
 2919W        W 3783  27.463  26.942  11.114 -0.4595  0.1260  0.2413
 2920W        W 3784   0.735  25.326  11.883  0.1167 -0.0053 -0.3142
 2921W        W 3785  25.842  28.787  12.577 -0.0168  0.1328  0.1982
 2922W        W 3786   3.720  26.830  12.354 -0.0462  0.1921 -0.2096
 2923W        W 3787  25.805  28.181  13.492  0.3716  0.2200 -0.0900
 2924W        W 3788   0.046  26.367  11.409  0.1215 -0.4974  0.1536
 2925W        W 3789   0.546  26.676  13.850  0.3209 -0.0805 -0.1907
 2926W        W 3790  28.864  25.393  14.893  0.1773 -0.1899  0.0178
 2927W        W 3791  26.536  27.873  14.788  0.3276 -0.1086 -0.2768
 2928W        W 3792  28.592  27.949  13.894 -0.0761 -0.2187 -0.3686
 2929W        W 3793  28.150  25.703  10.536  0.0950 -0.1357 -0.2117
 2930W        W 3794  28.895  27.517  15.378  0.0201 -0.2773  0.0492
 2931W        W 3795  23.310  28.815  15.410 -0.1954 -0.0510 -0.1484
 2932W        W 3796   1.258   2.330  15.104 -0.1082  0.2447 -0.3674
 2933W        W 3797  27.203  27.384  12.582 -0.0144  0.1244 -0.0295
 2934W        W 3798  27.893  28.320  13.521 -0.1105  0.0533  0.0998
 2935W        W 3799  23.953  25.007  12.824 -0.5006 -0.0578  0.1776
 2936W        W 3800  28.472  25.834  13.236  0.0513 -0.0075  0.1037
 2937W        W 3801  28.013  25.582  13.261  0.0920 -0.1229  0.2405
 2938W        W 3802  25.484  26.860  10.646  0.1342 -0.1042  0.1852
 2939W        W 3803  27.880   1.203  12.334 -0.0414 -0.0054  0.1373
 2940W        W 3804  27.243  23.716  10.700  0.1329 -0.5246  0.0873
 2941W        W 3805  28.071  27.949  13.102 -0.0195  0.0373 -0.1633
 2942W        W 3806  25.537  27.753  13.441 -0.2183  0.2084 -0.3708
 2943W        W 3807  26.543   1.292  12.001 -0.0585 -0.0906 -0.3697
 2944W        W 3808  27.864  28.897  13.186  0.1004 -0.1465  0.0697
 2945W        W 3809  27.145  28.198   9.744  0.1485 -0.0733  0.0313
 2946W        W 3810  27.089  24.452  12.188  0.4793 -0.3001  0.1247
 2947W        W 3811  27.325   1.478  14.700 -0.0785  0.1414  0.1073
 2948W        W 3812  25.401   1.039  10.207  0.0614  0.1390 -0.0322
 2949W        W 3813  26.417  28.370  16.557  0.0896  0.1715  0.2749
 2950W        W 3814   2.108  27.486  12.439  0.0291 -0.1240 -0.1768
 2951W        W 3815  25.188  27.051  11.491 -0.0518 -0.0642 -0.1907
 2952W        W 3816  27.034  28.253  13.157  0.3147  0.0472 -0.3157
 2953W        W 3817  25.952  26.017   8.402  0.1232  0.2178  0.1857
 2954W        W 3818  27.031  24.086  13.632 -0.1166 -0.0610  0.1571
 2955W        W 3819   0.288  27.934  15.193 -0.0147  0.3849 -0.0467
 2956W        W 3820  25.983  24.953  14.978 -0.0610 -0.0268 -0.0237
 2957W        W 3821  27.658   0.118   9.239 -0.2035 -0.0181 -0.1596
 2958W        W 3822  27.112  25.500  10.366  0.4056 -0.0187 -0.1439
 2959W        W 3823  27.654  27.371  12.360 -0.0580 -0.0603 -0.1644
 2960W        W 3824  25.215  28.798  16.307 -0.1655  0.0075 -0.0424
 2961W        W 3825  26.398  29.059  14.097 -0.1265 -0.1954 -0.2239
 2962W        W 3826  27.060  27.059  14.946 -0.1421  0.1418 -0.2032
 2963W        W 3827  25.426  27.499  17.286  0.2528  0.1299  0.1365
 2964W        W 3828  27.081  25.747  12.221 -0.2436  0.1809 -0.3411
 2965W        W 3829  26.834  27.600  14.356 -0.0032  0.0774 -0.3002
 2966W        W 3830  23.530  25.161  12.947 -0.1072 -0.3151 -0.0095
 2967W        W 3831  24.639   0.998  12.114 -0.2199 -0.0472 -0.0498
 2968W        W 3832  26.372  28.869  12.229 -0.0724  0.1667 -0.2517
 2969W        W 3833  26.898  26.693   9.521  0.0052  0.0856  0.0290
 2970W        W 3834   0.636   0.530  12.712 -0.2371 -0.3891 -0.2448
 2971W        W 3835  27.983  26.178  11.835 -0.0983 -0.1041 -0.0260
 2972W        W 3836  27.176  28.398  14.098  0.3542  0.4215 -0.3551
 2973W        W 3837  25.749  27.142   9.239  0.3496  0.1201  0.0459
 2974W        W 3838  26.444  25.669  11.565 -0.0417 -0.1061  0.1760
 2975W        W 3839   3.284  26.832  11.250  0.0558  0.1495  0.3780
 2976W        W 3840  28.395  25.860  14.611 -0.1510 -0.2133  0.0357
 2977W        W 3841  24.401  28.894  15.532 -0.0889 -0.0957 -0.0764
 2978W        W 3842  23.651  27.857  12.416 -0.0394  0.0252 -0.1895
 2979W        W 3843   0.067  27.554  12.848 -0.0865 -0.2390  0.1673
 2980W        W 3844  26.862  26.854  10.695  0.1353  0.1912  0.0922
 2981W        W 3845  28.947  28.317  10.874  0.1400  0.0195  0.1663
 2982W        W 3846   0.142   0.084  13.535  0.0810  0.1848 -0.2292
 2983W        W 3847  26.424  24.939  13.240 -0.1603  0.3394 -0.0438
 2984W        W 3848   0.931  28.660  11.722  0.2194  0.1852 -0.0489
 2985W        W 3849  26.669  26.007  12.393  0.0381 -0.1421 -0.0301
 2986W        W 3850   1.443  26.981  10.814  0.1656  0.1236  0.5955
 2987W        W 3851  25.564  25.495  11.506 -0.0222 -0.0178  0.0216
 2988W        W 3852  28.826   0.154  15.331  0.0391  0.3759 -0.1368
 2989W        W 3853  24.916   0.042  15.448  0.2790  0.1112 -0.2614
 2990W        W 3854  24.613  26.212   9.752  0.3642  0.3125 -0.0539
 2991W        W 3855  25.471   0.895  14.211 -0.1307 -0.2787  0.0297
 2992W        W 3856  27.544  27.121  14.965  0.1659  0.1437  0.0714
 2993W        W 3857  26.780  25.412  17.671  0.1241  0.0353  0.1518
 2994W        W 3858  25.767  26.011  18.077  0.0572 -0.1602  0.0545
 2995W        W 3859  27.912  26.169  13.214  0.1068  0.0827 -0.0846
 2996W        W 3860  27.302  25.426  11.953 -0.0107 -0.1159  0.3251
 2997W        W 3861  25.277  25.154  14.340 -0.1266  0.1747  0.1046
 2998W        W 3862  24.068  25.894  12.160 -0.3263 -0.3944 -0.1786
 2999W        W 3863  27.847  27.337  11.851  0.2181  0.4149  0.1839
 3000W        W 3864  26.303  26.408  12.164  0.0918  0.2688 -0.3148
 3001W        W 3865  25.334  26.933  13.751 -0.0654  0.2057  0.3099
 3002W        W 3866  26.629   0.834   9.713 -0.1088 -0.0740  0.1480
 3003W        W 3867  26.545  23.671  12.356  0.0264  0.3200 -0.3020
 3004W        W 3868   0.333  26.097  13.170 -0.1908  0.0157  0.3293
 3005W        W 3869  25.923  27.529  11.764  0.0817  0.0647  0.0804
 3006W        W 3870  24.630  26.054  12.045 -0.3880 -0.0669  0.0662
 3007W        W 3871  26.888  27.579  12.185  0.0629 -0.0790 -0.1836
 3008W        W 3872  24.724   1.742  10.471  0.0145  0.3448 -0.1917
 3009W        W 3873  23.423  26.750  11.798  0.0581 -0.0129  0.0478
 3010W        W 3874  28.316  25.896  16.102 -0.1357 -0.5379 -0.1173
 3011W        W 3875  24.474  25.784  14.166  0.2187 -0.1845 -0.0137
 3012W        W 3876  27.822  27.783  12.108 -0.0817  0.0742  0.4264
 3013W        W 3877  28.024  26.352  12.757 -0.0509 -0.2758 -0.0051
 3014W        W 3878  26.446   0.005  15.440 -0.2186 -0.0112  0.0776
 3015W        W 3879  27.081   0.563  10.885 -0.4202 -0.0614 -0.1431
 3016W        W 3880  26.715  27.824  13.365  0.0020 -0.0689 -0.3241
 3017W        W 3881  28.469  28.791  12.333 -0.1996 -0.2644 -0.1416
 3018W        W 3882  26.793  24.457  17.409  0.1079  0.2866  0.0191
 3019W        W 3883  25.414  26.214  13.979 -0.1490  0.0843 -0.0551
 3020W        W 3884  27.153  26.970  13.682 -0.0119 -0.0210  0.4717
 3021W        W 3885  28.327  24.701  15.356 -0.3653 -0.2413  0.2639
 3022W        W 3886  27.771   1.079  13.723 -0.0073 -0.0731 -0.3926
 3023W        W 3887   0.052  24.863  12.686  0.4993  0.4187 -0.2031
 3024W        W 3888  28.889  25.522   9.065 -0.2756  0.1304 -0.0840
 3025W        W 3889  26.379  24.793  12.760 -0.2829 -0.3176 -0.2231
 3026W        W 3890  25.031  26.352  13.589 -0.1449  0.3409 -0.0651
 3027W        W 3891  26.657  28.245  14.351 -0.0458  0.2136 -0.0889
 3028W        W 3892  27.052   1.122  11.941  0.3071 -0.1651 -0.0673
 3029W        W 3893  26.692  27.710  15.410 -0.0905 -0.1700  0.0377
 3030W        W 3894  25.282  28.847  13.493  0.0486  0.3404  0.1970
 3031W        W 3895  27.815   0.790  13.318  0.1615 -0.1209  0.1342
 3032W        W 3896  26.494  27.192  11.343 -0.0290 -0.0898  0.1724
 3033W        W 3897   1.506   2.249  13.448 -0.0001  0.0342  0.0302
 3034W        W 3898  27.995  24.824  12.220  0.0180  0.0651  0.1061
 3035W        W 3899  28.553   1.602  14.314  0.2624 -0.0325  0.3118
 3036W        W 3900  29.042  26.213  11.873  0.1380  0.2560 -0.0623
 3037W        W 3901  24.254  26.951  12.350  0.0320 -0.0743 -0.1832
 3038W        W 3902  27.306   0.174  14.940  0.0234  0.0203 -0.0462
 3039W        W 3903   2.256   2.892  13.035 -0.2503 -0.2445  0.1748
 3040W        W 3904  27.823  28.148  12.445 -0.0151 -0.0057 -0.2207
 3041W        W 3905  24.031   1.664  12.196  0.1273  0.1045  0.0118
 3042W        W 3906  24.122  27.579  12.353  0.0328 -0.1659 -0.0965
 3043W        W 3907  26.147  23.682  14.395 -0.1953 -0.1057  0.2464
 3044W        W 3908  26.252  27.158  11.778  0.0405 -0.1376  0.0633
 3045W        W 3909  27.692  28.953  11.663 -0.1970 -0.0833 -0.0972
 3046W        W 3910   1.114   0.809  13.145  0.1203  0.1343  0.1092
 3047W        W 3911  25.726  27.316  12.937  0.0621  0.1065 -0.1087
 3048W        W 3912  27.761   2.342  12.156 -0.0381  0.2876  0.4911
 3049W        W 3913  26.564  26.117  10.436 -0.0707  0.1217 -0.1398
 3050W        W 3914  26.553  27.189  10.453 -0.0774  0.0893 -0.2324
 3051W        W 3915  28.370   0.145  12.504 -0.1770 -0.1428  0.0426
 3052W        W 3916  28.925   0.294  12.731  0.0229 -0.0508 -0.0530
 3053W        W 3917  26.991  27.997  10.195 -0.1414  0.1460 -0.1849
 3054W        W 3918  27.033  25.145  11.132  0.2099 -0.0912  0.1606
 3055W        W 3919  28.441   1.050  11.487  0.1254 -0.0812 -0.1113
 3056W        W 3920   0.064  28.208  12.001  0.1826  0.1107 -0.1760
 3057W        W 3921  27.460  25.305  14.999  0.0720  0.2018  0.0926
 3058W        W 3922  28.970  27.384  12.452  0.1133 -0.0115  0.1228
 3059W        W 3923  28.226  28.406  14.260 -0.3307 -0.1908  0.0891
 3060W        W 3924  25.977  26.083  12.440 -0.1563  0.1181 -0.0860
 3061W        W 3925  25.834  25.667  13.708  0.2738  0.2810 -0.0725
 3062W        W 3926  27.020  27.619  13.017  0.1726  0.0725  0.0823
 3063W        W 3927  26.222  25.188  16.136  0.0020 -0.3189  0.0492
 3064W        W 3928  26.662  28.653  13.215 -0.4705 -0.4701  0.1733
 3065W        W 3929  24.357   0.120  14.183  0.0281 -0.2409 -0.1574
 3066W        W 3930  26.569  27.883  10.884  0.0843 -0.3165 -0.2091
 3067W        W 3931  25.503  28.622  11.667  0.0451  0.0747 -0.2738
 3068W        W 3932  25.975  25.396  12.575  0.1189  0.3644 -0.1346
 3069W        W 3933   0.522  26.831  12.860 -0.0585 -0.0466  0.1218
 3070W        W 3934  25.493   1.712  13.626 -0.1567  0.1462  0.3973
 3071W        W 3935  26.265  28.143  15.235  0.1206 -0.2262 -0.1055
 3072W        W 3936  26.403  27.456  12.203 -0.3571 -0.1791 -0.1538
 3073W        W 3937  26.516   0.178  11.076  0.2394  0.0953 -0.0087
 3074W        W 3938  27.704   2.137  13.541  0.2133 -0.2330 -0.0137
 3075W        W 3939  28.762  25.557  14.421 -0.1380 -0.1744 -0.1929
 3076W        W 3940  25.980  26.148  11.158 -0.1054 -0.2324  0.1984
 3077W        W 3941  28.929  26.113  14.020 -0.0121  0.0422 -0.0018
 3078W        W 3942  28.286  27.047  10.714 -0.0488  0.0937  0.0293
 3079W        W 3943  27.616  27.092  12.837 -0.0022  0.2834 -0.0744
 3080W        W 3944  26.462  26.879  12.128 -0.1056 -0.2067 -0.1589
 3081W        W 3945  26.991  27.193   9.436 -0.0681  0.4619 -0.0959
 3082W        W 3946  24.527  26.063  12.507 -0.1606  0.2583 -0.0896
 3083W        W 3947  27.211  27.811  13.438  0.0277  0.0180  0.3694
 3084W        W 3948  26.950  29.091  13.027 -0.1163  0.1832  0.0075
 3085W        W 3949  26.411  25.971  14.189  0.1379  0.0897 -0.2123
 3086W        W 3950  26.684  28.399  14.855  0.0731 -0.0071 -0.0611
 3087W        W 3951  28.839  28.901  12.664  0.0566 -0.1382  0.2596
 3088W        W 3952   1.275  24.670  13.058 -0.1652 -0.1097  0.3122
 3089W        W 3953  27.229   0.110  11.693  0.1709  0.3950  0.0050
 3090W        W 3954  28.304  27.961  12.113 -0.0529  0.0765 -0.1619
 3091W        W 3955  26.453  28.391  10.983  0.1938  0.0788 -0.1021
 3092W        W 3956  25.226  27.729  13.084 -0.1026 -0.5502 -0.0538
 3093W        W 3957  24.759  26.417  11.734  0.3378 -0.1322  0.0409
 3094W        W 3958  27.665   0.240  11.885 -0.0535  0.1581 -0.1013
 3095W        W 3959  28.828  26.528  13.192 -0.0508 -0.1938  0.2197
 3096W        W 3960  26.859  28.245  10.677  0.1937  0.1786 -0.1072
 3097W        W 3961   0.921  28.745  14.898  0.1083 -0.1192  0.1894
 3098W        W 3962  28.194  25.631  11.980 -0.1022 -0.2054  0.1325
 3099W        W 3963  25.387  28.199  13.140  0.1328 -0.1745 -0.0282
 3100W        W 3964  25.587  26.534  12.848  0.4129  0.0049  0.0038
 3101W        W 3965  25.866  27.589  14.366 -0.0867  0.1862  0.0184
 3102W        W 3966  27.721  28.536  16.703  0.1558 -0.1199 -0.0177
 3103W        W 3967   1.151  28.273  13.508  0.0012  0.1676  0.0051
 3104W        W 3968  26.470  27.298  13.544 -0.1636 -0.0588  0.0619
 3105W        W 3969   0.674   1.686  12.190  0.3364  0.1031  0.1352
 3106W        W 3970  26.261   0.634  10.983 -0.1051  0.2035 -0.0689
 3107W        W 3971  28.240  24.938   9.798 -0.0291  0.0946  0.1500
 3108W        W 3972  27.011  27.502  10.273 -0.1287 -0.1441 -0.0568
 3109W        W 3973  27.947  28.425  12.905  0.1273 -0.2359 -0.0873
 3110W        W 3974  24.980  28.033  11.165 -0.0944 -0.0245 -0.3763
 3111W        W 3975  26.746  27.608  16.534  0.0688  0.2244  0.0346
 3112W        W 3976   0.880  26.918  12.499  0.1924  0.0777  0.1086
 3113W        W 3977  28.054  28.227  11.763 -0.1233  0.2374 -0.0481
 3114W        W 3978  25.980  26.499  13.596 -0.0172 -0.1349 -0.1178
 3115W        W 3979  24.771  27.637  14.956 -0.4620  0.2583  0.0233
 3116W        W 3980   0.327  25.584   9.684 -0.2445 -0.1279  0.3673
 3117W        W 3981  28.577   2.373  12.066 -0.2328 -0.1764 -0.1740
 3118W        W 3982  27.562  27.604  15.729  0.0132  0.4526  0.1679
 3119W        W 3983  25.878  25.144   9.745  0.0419 -0.1165  0.2044
 3120W        W 3984  25.207  28.564   9.994 -0.1206  0.1139 -0.0765
 3121W        W 3985   3.442   0.176  12.042  0.0219  0.0234  0.1459
 3122W        W 3986  26.185  26.045  13.326  0.0706  0.1078  0.1026
 3123W        W 3987  26.035  28.132  14.641 -0.2040 -0.0677  0.1905
 3124W        W 3988  26.724  26.081  11.259  0.2201  0.0410  0.0412
 3125W        W 3989  28.134   0.158  13.069 -0.1050  0.0376  0.1283
 3126W        W 3990  26.814  25.288  11.618 -0.0978 -0.1357  0.2539
 3127W        W 3991  23.634  28.122   9.823 -0.1793 -0.0184  0.0768
 3128W        W 3992  28.212  24.929  11.734 -0.0405  0.2650  0.2274
 3129W        W 3993  25.689  26.120  13.369 -0.1017 -0.0159  0.1886
 3130W        W 3994  24.826  24.154  14.430 -0.0048 -0.1835 -0.1939
 3131W        W 3995   0.275  28.410  10.648  0.0136 -0.0651  0.0691
 3132W        W 3996  27.927  27.989  15.925 -0.0506  0.1265 -0.2771
 3133W        W 3997  25.704   0.298  16.532 -0.0047 -0.2764 -0.0681
 3134W        W 3998  27.941  27.694  15.369 -0.3232  0.3008 -0.0148
 3135W        W 3999  28.130  25.072  15.931 -0.4263 -0.1555  0.4864
 3136W        W 4000  25.944  27.382  11.300  0.1076  0.1101  0.0251
 3137W        W 4001   1.173  28.268  12.203  0.0241  0.0975 -0.1371
 3138W        W 4002  26.222  25.920  12.036 -0.0319 -0.1459  0.0621
 3139W        W 4003  27.658  22.969  12.725  0.0691  0.0599 -0.2026
 3140W        W 4004  26.266  27.454  10.917 -0.0268  0.0270 -0.0467
 3141W        W 4005  27.285  26.807  15.291 -0.1072  0.2075  0.2471
 3142W        W 4006  26.046  25.468  14.177  0.0641 -0.2708 -0.0903
 3143W        W 4007  24.296   0.162   8.916 -0.1311 -0.1594 -0.0007
 3144W        W 4008  28.797  28.718  13.284 -0.5753 -0.0961  0.1787
 3145W        W 4009  27.467   1.016  12.971  0.2703  0.0104 -0.2459
 3146W        W 4010  25.309  27.559  12.228  0.1847  0.1537 -0.0075
 3147W        W 4011  25.433  26.596  13.371 -0.0404  0.0729  0.0781
 3148W        W 4012  26.341  25.322  12.864  0.0032 -0.0266 -0.1589
 3149W        W 4013  25.886  23.123  12.780  0.2145  0.3270  0.1187
 3150W        W 4014   0.415  25.751  14.040 -0.2056 -0.1294  0.0221
 3151W        W 4015   1.992  26.271  13.276 -0.0115 -0.1633 -0.0413
 3152W        W 4016  27.110  27.330  11.568  0.1493 -0.0359 -0.1284
 3153W        W 4017  28.868   0.300  10.792 -0.1755  0.1994 -0.1806
 3154W        W 4018  27.381  28.970  11.248  0.0272 -0.2029  0.3765
 3155W        W 4019   0.204  27.151  10.210 -0.3063 -0.1976 -0.0600
 3156W        W 4020  26.586  27.591  12.652  0.2651  0.2913 -0.0378
 3157W        W 4021  27.871  26.664  14.174  0.0883 -0.0426  0.0603
 3158W        W 4022  26.743  26.099  17.212 -0.3696  0.0895  0.0956
 3159W        W 4023  25.539  26.048  12.843  0.6591  0.0052  0.1831
 3160W        W 4024  27.952  28.589  11.486  0.3127  0.0370  0.1932
 3161W        W 4025  28.018  26.832  12.603 -0.0822  0.3536  0.1675
 3162W        W 4026  26.056  26.294   9.691  0.0688  0.1259  0.2879
 3163W        W 4027  29.009  28.441   9.772  0.0471 -0.1274  0.2960
 3164W        W 4028  26.549  28.182  12.924  0.2392 -0.1024  0.3312
 3165W        W 4029  29.019   0.456  14.991 -0.3158 -0.0153  0.2000
 3166W        W 4030  27.656  27.549  13.162 -0.3089 -0.1386  0.0286
 3167W        W 4031  27.426  26.796  12.493  0.1078 -0.1842 -0.0190
 3168W        W 4032  25.549  26.013  10.831 -0.4094  0.0871 -0.1183
 3169W        W 4033  27.482  25.780  13.026  0.0491  0.1234  0.2819
 3170W        W 4034  26.253  27.908  11.908 -0.1147 -0.0512  0.3583
 3171W        W 4035   1.445  25.092  12.824  0.1886  0.1078  0.0465
 3172W        W 4036  28.889   0.317  11.779 -0.0361 -0.3510 -0.0413
 3173W        W 4037  25.472  28.342  13.853  0.0201 -0.3571  0.0024
 3174W        W 4038   0.136   1.407  11.569  0.2457 -0.0551 -0.1033
 3175W        W 4039  26.412  26.426  15.332 -0.1943  0.1099 -0.1145
 3176W        W 4040  26.712   0.434  13.021  0.0773  0.1268  0.2346
 3177W        W 4041  28.909   0.463  15.791  0.0241  0.1229  0.1421
 3178W        W 4042  27.458  26.119  13.402  0.1173  0.0017 -0.2471
 3179W        W 4043  22.189  25.945  12.204 -0.3099  0.0368  0.1893
 3180W        W 4044  27.818   0.053  12.699 -0.0312 -0.0246  0.3516
 3181W        W 4045  24.832  26.591  11.121 -0.4838  0.4137 -0.1558
 3182W        W 4046  26.567  28.701  14.507 -0.1310  0.0651  0.0234
 3183W        W 4047   0.908   0.902  13.695  0.0466  0.1278 -0.0092
 3184W        W 4048  28.604   1.569  15.732 -0.0291  0.1721  0.0821
 3185W        W 4049  27.794  26.209  10.633  0.0071 -0.1188 -0.0634
 3186W        W 4050  28.073   0.997  11.846 -0.0270 -0.1400  0.0865
 3187W        W 4051  26.957   1.999  13.776 -0.3557 -0.0344  0.0169
 3188W        W 4052  25.165   0.277  13.260 -0.1251 -0.1948 -0.1237
 3189W        W 4053  28.335   0.138  13.767  0.0179  0.0190 -0.1953
 3190W        W 4054  26.591  28.586  15.598  0.1857 -0.1195  0.0869
 3191W        W 4055  26.667   0.832  12.159  0.1885  0.1007  0.1561
 3192W        W 4056  26.963  28.941  13.556 -0.1621 -0.0750  0.1935
 3193W        W 4057  28.159   0.205  11.806  0.1949  0.2820 -0.4399
 3194W        W 4058  23.603   0.597  14.229  0.0084 -0.1764 -0.0033
 3195W        W 4059  25.865  26.513  15.649 -0.2245 -0.0898 -0.0697
 3196W        W 4060  27.952   0.203  11.282 -0.0077  0.3045  0.0272
 3197W        W 4061  25.743  26.980  11.639 -0.0690  0.0414 -0.0238
 3198W        W 4062  26.603  27.885   9.912 -0.2399  0.0133  0.0998
 3199W        W 4063  27.592  27.315  11.436  0.0176 -0.0522 -0.2061
 3200W        W 4064  26.412  29.098  21.518  0.2369  0.0149 -0.2285
 3201W        W 4065  26.526  28.470  16.072  0.1242 -0.2587 -0.2910
 3202W        W 4066  29.047  28.049  14.148 -0.0890  0.0266 -0.1071
 3203W        W 4067   0.576   1.220  17.138 -0.0541  0.2743 -0.0077
 3204W        W 4068  26.316  28.601  12.671  0.1548  0.1184 -0.0090
 3205W        W 4069  25.282  27.678  14.382  0.2068 -0.2386  0.1563
 3206W        W 4070  27.547  27.858  14.624  0.0271 -0.1396  0.2782
 3207W        W 4071  24.961  27.930  16.427  0.0109 -0.1282  0.1000
 3208W        W 4072  24.932  24.250  18.872  0.5809 -0.1118 -0.0883
 3209W        W 4073  27.119  26.527  17.021 -0.1164  0.3120 -0.1259
 3210W        W 4074  24.450  27.222  16.594 -0.2274  0.1862 -0.0165
 3211W        W 4075  26.143  25.554  16.923 -0.0095 -0.1418 -0.2610
 3212W        W 4076  27.513  26.299  17.173 -0.0838  0.3098  0.1868
 3213W        W 4077  28.648  24.575  19.970  0.3574 -0.0226  0.1664
 3214W        W 4078  29.042  25.209  17.921 -0.0486  0.1017  0.0484
 3215W        W 4079  26.716  25.420  19.830  0.2784 -0.1107 -0.0238
 3216W        W 4080  28.415   0.486  14.965 -0.1089  0.2956 -0.2274
 3217W        W 4081  27.371  25.583  15.844  0.0164 -0.2819 -0.0527
 3218W        W 4082  28.207  28.528  15.907 -0.3435 -0.1395 -0.0185
 3219W        W 4083  27.870  27.562  14.787 -0.0038 -0.1870  0.1210
 3220W        W 4084  28.540  24.038  15.815 -0.1711 -0.3450  0.1909
 3221W        W 4085  24.716  26.952  15.609  0.0169 -0.0219 -0.2647
 3222W        W 4086  28.023   0.413  16.846  0.1938  0.2069 -0.0204
 3223W        W 4087  25.648  28.550  14.346 -0.1555 -0.2952  0.3314
 3224W        W 4088  26.280  26.273  15.824  0.1382 -0.0659  0.0593
 3225W        W 4089  27.767  25.940  17.759 -0.1305 -0.2965  0.0940
 3226W        W 4090  26.779  28.182  15.321 -0.1873  0.0127  0.0794
 3227W        W 4091  26.906  28.612  16.359 -0.2349  0.0692 -0.0765
 3228W        W 4092  25.445  26.726  18.138 -0.1390 -0.3323 -0.0480
 3229W        W 4093  24.875  25.346  17.748  0.0074  0.2190 -0.2240
 3230W        W 4094   1.476  28.713  16.961  0.2718 -0.2332  0.1839
 3231W        W 4095  27.836  28.176  19.930  0.1865  0.0071  0.0153
 3232W        W 4096  26.946  27.556  19.058 -0.0961  0.2099  0.0871
 3233W        W 4097  26.399  27.353  19.517 -0.1245  0.0550 -0.1707
 3234W        W 4098  26.725  27.955  17.723 -0.1935 -0.0581 -0.1056
 3235W        W 4099  28.242  26.275  17.448  0.0603  0.3562 -0.2441
 3236W        W 4100  27.265  27.420  14.555 -0.1920  0.0703 -0.1112
 3237W        W 4101  26.066  27.876  18.873  0.1490 -0.1817 -0.3572
 3238W        W 4102  26.384  26.540  17.864  0.1727 -0.0968 -0.0689
 3239W        W 4103  28.366  24.515  15.838 -0.0482 -0.0332 -0.0598
 3240W        W 4104  28.858  26.685  15.604 -0.1423 -0.0023 -0.0396
 3241W        W 4105  27.814  25.247  17.006  0.0599 -0.1601 -0.0102
 3242W        W 4106   0.468  27.235  15.992  0.0214 -0.0884  0.0204
 3243W        W 4107  25.427   0.418  15.533  0.2897  0.3485  0.1745
 3244W        W 4108  28.476   1.367  13.272  0.0760  0.2092 -0.1595
 3245W        W 4109  29.026   0.702  16.225  0.1806  0.3798 -0.1969
 3246W        W 4110  24.862  27.015  16.646  0.0339  0.1440  0.0020
 3247W        W 4111  27.948  27.597  19.805  0.0382 -0.1543  0.1934
 3248W        W 4112  29.052  26.202  15.796 -0.1107 -0.0712 -0.3172
 3249W        W 4113  27.908   2.254  15.496  0.3151 -0.1540  0.1211
 3250W        W 4114  25.465  27.996  17.266 -0.1825 -0.0790  0.0940
 3251W        W 4115  28.736  24.879  19.529 -0.1292 -0.1604  0.0360
 3252W        W 4116  28.203   0.149  17.753  0.2505  0.1760  0.0104
 3253W        W 4117  27.211  27.953  16.686 -0.0290 -0.0673 -0.0676
 3254W        W 4118  27.072  25.665  17.288 -0.1172 -0.0647  0.1316
 3255W        W 4119  26.231  28.971  13.601  0.3392  0.1172 -0.2427
 3256W        W 4120  24.917  27.412  14.556  0.1970 -0.2932  0.2632
 3257W        W 4121  27.335  25.644  18.475 -0.1204 -0.1304  0.4878
 3258W        W 4122  23.547  28.574  15.814 -0.2122 -0.0978 -0.0364
 3259W        W 4123  25.245  28.134  15.095 -0.1546  0.3191 -0.1244
 3260W        W 4124  27.238  24.987  15.861  0.3513  0.0272 -0.1517
 3261W        W 4125  28.676   0.037  17.252  0.2113 -0.1748 -0.0128
 3262W        W 4126  25.737  27.069  17.300  0.0195  0.0122  0.2601
 3263W        W 4127  25.392  26.993  17.763 -0.0035 -0.0923 -0.1213
 3264W        W 4128  27.142  25.199  17.271  0.3843  0.0950  0.0885
 3265W        W 4129  28.490  27.108  18.524  0.3153 -0.0664  0.0230
 3266W        W 4130  26.620  25.468  13.351  0.1924  0.1143 -0.2712
 3267W        W 4131  26.328  24.355  16.115  0.0470 -0.2365  0.1405
 3268W        W 4132  24.310  28.990  16.895  0.0911  0.1706 -0.0042
 3269W        W 4133  27.292  27.446  16.453  0.2159  0.0867 -0.1743
 3270W        W 4134  27.997   1.449  15.875 -0.1538  0.0061  0.0034
 3271W        W 4135  28.353   0.846  14.053  0.0418  0.0520  0.0759
 3272W        W 4136   0.384  29.124  16.814 -0.1750 -0.0699 -0.2482
 3273W        W 4137  28.392  24.437  17.258 -0.0932  0.3172 -0.2447
 3274W        W 4138  27.007   0.081  15.358  0.0928 -0.1558  0.0870
 3275W        W 4139  24.257  25.743  17.818 -0.0540  0.2840  0.1633
 3276W        W 4140  26.320  27.719  14.412 -0.0358 -0.0099 -0.1551
 3277W        W 4141  25.886  27.333  19.359 -0.1011 -0.0121 -0.0406
 3278W        W 4142  27.617  27.174  15.489  0.1957 -0.2701 -0.0716
 3279W        W 4143  27.687  25.281  16.064 -0.0030 -0.1499  0.0328
 3280W        W 4144  26.968  23.145  17.306  0.1601 -0.0153  0.2045
 3281W        W 4145  29.106   1.320  18.436  0.1043  0.0000 -0.0280
 3282W        W 4146  27.049  24.654  16.643 -0.0844 -0.0789  0.3058
 3283W        W 4147  27.123  26.222  17.533  0.2629 -0.0653 -0.1072
 3284W        W 4148  27.968  27.004  16.107 -0.0498 -0.0103  0.1763
 3285W        W 4149  28.419  26.962  13.872  0.0321  0.0045 -0.4037
 3286W        W 4150  28.918  26.644  16.641  0.2747  0.2197  0.1184
 3287W        W 4151  25.641  28.042  17.795 -0.0967  0.1186  0.2274
 3288W        W 4152   2.612  27.766  17.464 -0.0282  0.1304 -0.2936
 3289W        W 4153  28.666  25.038  17.523 -0.2996 -0.1925  0.0531
 3290W        W 4154   0.677  26.638  14.373  0.1563 -0.3871 -0.1035
 3291W        W 4155  28.540  28.195  19.131 -0.0356 -0.0009 -0.1100
 3292W        W 4156  25.858  28.864  17.519  0.0854 -0.2167 -0.0943
 3293W        W 4157  25.565  23.760  17.172 -0.0476 -0.2398 -0.1073
 3294W        W 4158  23.364  23.192  19.129 -0.1095 -0.1503 -0.0476
 3295W        W 4159  27.775  25.381  18.527 -0.2161 -0.2593 -0.1102
 3296W        W 4160   2.261  26.641  16.355 -0.0007 -0.2638 -0.0073
 3297W        W 4161  27.212  27.797  17.629 -0.0636  0.0516  0.1465
 3298W        W 4162  23.568  27.361  18.272 -0.0180 -0.2933  0.2413
 3299W        W 4163   0.119  26.882  16.911  0.0261  0.0223 -0.1636
 3300W        W 4164  27.772  28.509  15.680  0.1779  0.1968  0.0276
 3301W        W 4165  27.195  26.288  14.608  0.0379 -0.0327  0.1393
 3302W        W 4166  27.939  25.558  12.696 -0.0899  0.1291 -0.0457
 3303W        W 4167  27.019  26.968  17.783  0.0761  0.1243  0.0286
 3304W        W 4168  28.509  25.156  18.153  0.3044  0.2160  0.1254
 3305W        W 4169  28.978  25.394  18.980 -0.3855  0.2998  0.1196
 3306W        W 4170  28.483  27.647  15.502  0.0126 -0.0136 -0.0043
 3307W        W 4171  26.095  27.591  19.894  0.2027  0.1716 -0.0204
 3308W        W 4172  27.759  23.708  13.869 -0.2461 -0.2759 -0.1147
 3309W        W 4173  26.421  26.753  14.279 -0.3237  0.0318 -0.0393
 3310W        W 4174  26.546  27.651  18.627 -0.0490 -0.0766  0.0260
 3311W        W 4175  26.444  27.254  18.190 -0.0855  0.2141 -0.1399
 3312W        W 4176   1.950  28.591  18.890 -0.1347  0.1396 -0.1061
 3313W        W 4177  28.111  29.052  18.190  0.0291 -0.1847  0.0821
 3314W        W 4178   0.492  25.853  14.529 -0.0370 -0.1496  0.0068
 3315W        W 4179  26.242  25.920  19.079 -0.2501  0.4368 -0.0251
 3316W        W 4180  29.131  29.128  17.172  0.1272  0.2367  0.2286
 3317W        W 4181   0.958   0.023  17.621  0.0940  0.2173 -0.0159
 3318W        W 4182  27.863  24.968  16.534  0.0151 -0.0907  0.2288
 3319W        W 4183  27.910  26.659  17.564 -0.2870  0.2122  0.0294
 3320W        W 4184  29.121  25.740  15.314  0.2044 -0.0917 -0.1618
 3321W        W 4185  26.920  29.075  14.872 -0.1769  0.1174  0.3203
 3322W        W 4186  26.840  28.124  16.345  0.3001 -0.0240  0.2333
 3323W        W 4187  28.379  26.505  12.446 -0.0513 -0.1132  0.1079
 3324W        W 4188  28.276  25.850  15.096 -0.1468  0.0025 -0.2489
 3325W        W 4189  28.242  26.527  15.475  0.1127 -0.2313 -0.1330
 3326W        W 4190  25.645  24.316  18.103  0.2287 -0.2674  0.1737
 3327W        W 4191   0.821  27.974  15.260  0.0368  0.0157 -0.0572
 3328W        W 4192   0.367   0.377  18.353 -0.1099 -0.0813 -0.1274
 3329W        W 4193  26.821  27.252  15.782 -0.1689  0.2283  0.0922
 3330W        W 4194  26.685  27.478  17.466  0.0133 -0.0125 -0.2446
 3331W        W 4195  26.549  24.427  15.581  0.2570 -0.4082 -0.2019
 3332W        W 4196  25.719  27.202  18.207 -0.0612  0.1629 -0.0043
 3333W        W 4197  27.295  26.782  14.582 -0.1732 -0.2555  0.1089
 3334W        W 4198   0.313  28.494  18.387 -0.1881 -0.0132  0.3054
 3335W        W 4199  24.481  27.737  17.116  0.0095 -0.0319 -0.1606
 3336W        W 4200  28.890  26.199  15.319  0.0209  0.2225  0.1895
 3337W        W 4201  26.199  26.340  18.695  0.0930 -0.0059  0.1329
 3338W        W 4202  27.223  28.062  15.098 -0.3162 -0.0102  0.2536
 3339W        W 4203  26.043   0.241  13.887  0.1242  0.1002  0.2074
 3340W        W 4204  26.556  23.366  14.594  0.4498  0.2168 -0.3277
 3341W        W 4205  23.425  23.433  16.813 -0.2257 -0.0026 -0.0569
 3342W        W 4206  24.954   2.248  14.257  0.0619 -0.0485  0.0574
 3343W        W 4207  26.386   0.488  14.219 -0.2239  0.0920  0.0625
 3344W        W 4208  25.385  27.603  19.207 -0.2045  0.1917  0.0470
 3345W        W 4209  26.522  25.394  16.570  0.0054  0.2016 -0.4066
 3346W        W 4210   0.539  24.584  14.757  0.4341  0.1951  0.0127
 3347W        W 4211  26.422  28.417  18.122  0.0471  0.1458 -0.1370
 3348W        W 4212  26.183  29.082  16.568  0.2492  0.1484  0.3372
 3349W        W 4213  26.644  25.755  16.862 -0.2039  0.0476 -0.0525
 3350W        W 4214  28.009  28.055  16.429  0.0120 -0.0249  0.0504
 3351W        W 4215  22.573  27.114  17.405  0.0032 -0.0826 -0.1978
 3352W        W 4216  27.119  28.332  19.180 -0.3720  0.2414 -0.0464
 3353W        W 4217  26.212  27.647  15.157  0.0997  0.1848  0.2376
 3354W        W 4218  26.151  23.227  16.904  0.2982  0.0661  0.2050
 3355W        W 4219  28.291  24.698  16.377  0.0236 -0.4177  0.1171
 3356W        W 4220  26.384  25.806  17.314  0.0722  0.2604 -0.1876
 3357W        W 4221  25.265  28.312  16.576  0.3141  0.1288 -0.0378
 3358W        W 4222  23.875  27.168  15.788  0.0720  0.1821 -0.0206
 3359W        W 4223  27.929  28.637  15.247  0.0694  0.1019 -0.1051
 3360W        W 4224  26.064  27.104  19.812  0.2124 -0.1081 -0.1033
 3361W        W 4225  27.562  27.854  17.968 -0.2830 -0.1401  0.1773
 3362W        W 4226  27.103  25.466  16.823 -0.0247 -0.0151  0.2765
 3363W        W 4227  27.566  27.013  17.230  0.2798 -0.0018 -0.2150
 3364W        W 4228  27.660  23.999  17.643 -0.1770  0.0243 -0.2701
 3365W        W 4229  24.380  26.154  18.597 -0.1217  0.3152 -0.0182
 3366W        W 4230  24.706  26.283  17.096  0.1432  0.1937  0.1521
 3367W        W 4231  25.168   0.331  15.141  0.0124 -0.0930 -0.0293
 3368W        W 4232  26.001  27.812  19.405  0.1868 -0.0998  0.2025
 3369W        W 4233  27.387  28.180  15.904  0.0474  0.1141 -0.1304
 3370W        W 4234   0.674  24.032  19.269 -0.1010 -0.4020  0.0509
 3371W        W 4235  26.096  26.097  17.651 -0.1855 -0.0489  0.0639
 3372W        W 4236  28.484  25.519  17.115  0.1374  0.0603  0.3398
 3373W        W 4237  27.291   0.577  11.570 -0.2508 -0.1869  0.1285
 3374W        W 4238  28.350  25.388  14.797 -0.0837 -0.2610 -0.0059
 3375W        W 4239   0.330  26.461  16.029 -0.0769  0.2061 -0.0154
 3376W        W 4240  24.660   0.176  18.870  0.0512  0.1326  0.1492
 3377W        W 4241  27.649  28.732  18.044  0.0901 -0.2876  0.1383
 3378W        W 4242  25.667   1.948  14.108  0.0286  0.0785 -0.2020
 3379W        W 4243  26.179  26.127  21.162  0.0692 -0.4491 -0.1020
 3380W        W 4244  28.579  27.634  12.426 -0.2143 -0.2034 -0.3187
 3381W        W 4245  25.646   0.433  14.206 -0.2144 -0.1066 -0.2081
 3382W        W 4246  26.787  26.277  16.128  0.1622 -0.0352  0.1725
 3383W        W 4247  26.248  27.023  16.997 -0.2481 -0.0248 -0.1635
 3384W        W 4248  24.327   0.135  16.050 -0.2500  0.0530 -0.0424
 3385W        W 4249  27.613  28.922  21.124 -0.0349 -0.0919 -0.2425
 3386W        W 4250  25.184  26.179  14.437  0.0201  0.0852  0.4489
 3387W        W 4251  26.774  23.764  15.829 -0.0532 -0.3485 -0.1319
 3388W        W 4252  26.044  28.674  16.818  0.0253  0.0163  0.0888
 3389W        W 4253  28.335  26.828  17.283 -0.1678  0.1663  0.0919
 3390W        W 4254  28.193  27.372  12.258  0.1839  0.1642  0.1213
 3391W        W 4255  23.834   0.155  16.147 -0.0407 -0.2052 -0.1896
 3392W        W 4256  27.685  28.957  18.462 -0.2475 -0.2495 -0.2653
 3393W        W 4257  24.854  23.269  19.740 -0.2360 -0.2454 -0.1653
 3394W        W 4258  27.834  25.859  18.392  0.1391 -0.0201  0.1416
 3395W        W 4259  27.410  24.848  15.283 -0.0365  0.0882 -0.0384
 3396W        W 4260  28.395  26.578  16.772 -0.0594 -0.2257  0.2313
 3397W        W 4261  23.628  28.232  17.659 -0.0514 -0.0139 -0.4412
 3398W        W 4262  26.565  25.904  13.656 -0.1773  0.2293 -0.2105
 3399W        W 4263  28.136  27.153  14.237 -0.1073  0.1613 -0.0909
 3400W        W 4264  23.715  27.112  14.528 -0.1085 -0.1797  0.0166
 3401W        W 4265  29.043  23.680  18.927 -0.0285 -0.0606  0.3424
 3402W        W 4266  28.759  28.077  15.264  0.2971  0.0667  0.1081
 3403W        W 4267  25.060  23.409  12.084  0.1715  0.0092 -0.0419
 3404W        W 4268  27.138  28.589  19.735  0.1931 -0.1311 -0.1416
 3405W        W 4269  26.838  26.001  15.286  0.0553 -0.3652 -0.0142
 3406W        W 4270  23.789  28.299  16.609  0.1683 -0.0980  0.1153
 3407W        W 4271   0.414  21.386  18.543  0.0492  0.0988  0.2965
 3408W        W 4272  25.466   1.276  12.753 -0.0121  0.1584  0.1509
 3409W        W 4273  27.486   0.273  18.562 -0.0598  0.0780 -0.0387
 3410W        W 4274  26.129  26.783  17.417 -0.1444 -0.1117 -0.5045
 3411W        W 4275  27.660  27.024  18.401 -0.0978  0.3357 -0.3053
 3412W        W 4276   0.620  23.355  19.555  0.2175  0.4661 -0.1470
 3413W        W 4277   0.095   0.971  18.032  0.1267 -0.2697 -0.1793
 3414W        W 4278   0.803  28.617  15.410  0.1026 -0.0041 -0.0468
 3415W        W 4279  25.306  28.508  14.687 -0.1051 -0.1121 -0.0095
 3416W        W 4280  28.366  27.437  16.291  0.1368  0.2404  0.2067
 3417W        W 4281  28.904  26.805  17.412  0.0182  0.1002  0.0247
 3418W        W 4282  25.273  25.694  17.839  0.1035  0.3312  0.0312
 3419W        W 4283  28.611  24.578  18.024  0.2334  0.0641 -0.0634
 3420W        W 4284  27.710  25.994  15.854 -0.3562  0.3020 -0.1407
 3421W        W 4285  27.984  28.599  21.117  0.0057  0.0860 -0.0930
 3422W        W 4286  26.960  26.085  13.272  0.1854 -0.1101 -0.2397
 3423W        W 4287  26.867   0.237  12.303 -0.1519  0.1929 -0.0551
 3424W        W 4288  24.918  25.495  18.540  0.1194 -0.0041 -0.2308
 3425W        W 4289  27.094  27.993  18.083 -0.0694 -0.3554 -0.3238
 3426W        W 4290  24.586  25.659  18.840 -0.1914 -0.3128 -0.2165
 3427W        W 4291  26.840  28.916  15.845  0.0191 -0.0719  0.2401
 3428W        W 4292  26.899  26.969  17.059 -0.0275 -0.0358 -0.1162
 3429W        W 4293  27.142  26.987  16.656 -0.4993  0.1821  0.1149
 3430W        W 4294  28.677  26.480  19.186 -0.4287  0.1019 -0.0643
 3431W        W 4295  23.565   0.017  15.713  0.0479  0.2701 -0.1374
 3432W        W 4296   3.001  28.422  17.030  0.1004  0.0902 -0.2554
 3433W        W 4297  26.174  24.206  19.605  0.3648  0.2102 -0.0306
 3434W        W 4298  27.860   0.038  15.244  0.5173 -0.3162  0.4188
 3435W        W 4299  27.657  25.331  14.184  0.2843  0.1047 -0.1317
 3436W        W 4300  25.928  24.069  19.168  0.0237 -0.0208  0.0154
 3437W        W 4301  26.046  28.098  18.200  0.1484 -0.1193  0.0305
 3438W        W 4302  27.623   1.902  14.429 -0.3741  0.0604  0.4147
 3439W        W 4303  25.454  29.063  15.381  0.2900  0.1625 -0.1152
 3440W        W 4304  28.122  27.102  17.603 -0.0657  0.2949 -0.1221
 3441W        W 4305  26.803  27.491  17.966 -0.3249  0.1191  0.3812
 3442W        W 4306  25.390  25.886  16.386  0.2330  0.0300  0.2792
 3443W        W 4307  28.232  25.800  17.779 -0.0786 -0.1694  0.0490
 3444W        W 4308  25.601  28.494  16.122 -0.3030 -0.3873 -0.0800
 3445W        W 4309  27.707  27.850  16.779 -0.1021 -0.0696 -0.1384
 3446W        W 4310  24.219   1.587  18.804 -0.6639 -0.0027 -0.1285
 3447W        W 4311   1.007   1.425  16.980  0.1760  0.1059  0.1542
 3448W        W 4312  27.071  25.423  16.228 -0.0821 -0.0259 -0.2229
 3449W        W 4313  25.675  28.399  16.839  0.2832 -0.2263  0.2528
 3450W        W 4314  26.124  27.605  18.341  0.2792 -0.1506  0.0685
 3451W        W 4315  27.933  26.895  16.914  0.4296  0.1019 -0.1216
 3452W        W 4316  25.750  27.397  17.753  0.2347  0.1660  0.0191
 3453W        W 4317  27.130  26.321  16.451  0.0064 -0.0372 -0.1329
 3454W        W 4318  28.737   0.978  17.797 -0.1826  0.1796 -0.2842
 3455W        W 4319  27.962  26.652  16.419  0.1688  0.0232  0.3595
 3456W        W 4320  27.616  23.970  18.285  0.3300 -0.0093  0.0210
 3457W        W 4321  27.224   1.077  15.846 -0.3675  0.0422  0.1255
 3458W        W 4322   0.217  28.149  17.026 -0.2293  0.0895  0.2486
 3459W        W 4323  26.716  26.750  13.753 -0.0022 -0.2055 -0.1152
 3460W        W 4324  27.474  26.691  18.775  0.1260  0.0306  0.0816
 3461W        W 4325   1.020  27.477  18.723 -0.2483  0.0169 -0.1272
 3462W        W 4326  28.592  27.894  22.563  0.3637  0.0357  0.1238
 3463W        W 4327  27.938   3.908  16.477  0.1569  0.2119 -0.0992
 3464W        W 4328  23.480  28.573  17.943  0.0615 -0.2793  0.2325
 3465W        W 4329  24.990   0.400  14.338 -0.0459  0.1162 -0.1129
 3466W        W 4330  28.669  28.255  16.214 -0.3874 -0.0427  0.0951
 3467W        W 4331  25.783  27.093  20.703  0.4543  0.0205 -0.1457
 3468W        W 4332  28.067  27.444  15.819 -0.0163  0.0083 -0.2213
 3469W        W 4333  26.817   0.256  14.218  0.0107 -0.3867 -0.2480
 3470W        W 4334  28.289  27.284  17.085  0.0880 -0.1302 -0.0500
 3471W        W 4335  29.112  27.254  17.804 -0.1027  0.0091 -0.0247
 3472W        W 4336  26.598  27.087  16.584 -0.1211 -0.1772  0.1042
 3473W        W 4337   0.354   0.852  16.919  0.5635 -0.1999  0.0249
 3474W        W 4338  27.000  23.942  20.080 -0.0447  0.0955 -0.0622
 3475W        W 4339  24.865  25.138  17.258 -0.2308 -0.0998 -0.0039
 3476W        W 4340  26.231  24.496  15.228  0.0407  0.1033  0.2531
 3477W        W 4341  25.550  23.410  12.270 -0.0113  0.2411 -0.1608
 3478W        W 4342  25.434  28.478  17.544 -0.0577  0.0927  0.3390
 3479W        W 4343  28.041  27.272  15.169  0.0250 -0.1590 -0.0967
 3480W        W 4344  26.900  28.591  12.749  0.0242  0.3234 -0.0950
 3481W        W 4345  26.319  25.862  15.048 -0.2753  0.3037  0.1089
 3482W        W 4346  24.627   0.644  15.896 -0.1200  0.0880  0.2095
 3483W        W 4347  24.451   0.361  13.066  0.0111 -0.4079 -0.3230
 3484W        W 4348  28.666  24.897  17.017  0.1747 -0.1177 -0.2435
 3485W        W 4349  27.195  29.141  17.335  0.0763  0.3846 -0.0087
 3486W        W 4350  25.342  26.138  20.206  0.3521 -0.0294 -0.0812
 3487W        W 4351  27.100  24.230  16.925  0.0029 -0.1923 -0.1770
 3488W        W 4352  25.803  28.063  15.987 -0.1042 -0.3801  0.4170
 3489W        W 4353  26.271  26.844  15.599  0.0430 -0.2258 -0.0298
 3490W        W 4354  28.412  25.359  13.401  0.1017  0.0741  0.0652
 3491W        W 4355  28.920  25.336  16.169  0.0644  0.3540 -0.0473
 3492W        W 4356  25.283  27.634  14.874  0.1535  0.3009  0.2257
 3493W        W 4357  24.951   0.928  14.385 -0.0972  0.2989  0.2677
 3494W        W 4358  26.981   0.063  16.785  0.0832 -0.0429  0.0164
 3495W        W 4359  25.386  26.814  19.210 -0.1339  0.1306  0.0383
 3496W        W 4360  28.577  28.376  17.705  0.0643 -0.2044 -0.0690
 3497W        W 4361  26.043  24.571  18.237 -0.2937 -0.1396  0.2674
 3498W        W 4362  26.607  27.553  16.059  0.2740 -0.2233  0.1163
 3499W        W 4363  27.930   2.344  14.267 -0.1496 -0.2698  0.0577
 3500W        W 4364  27.763  26.435  18.395  0.3467 -0.1267  0.0715
 3501W        W 4365   0.499   2.526  23.049  0.2576 -0.0986 -0.0151
 3502W        W 4366  28.097  26.977  15.588  0.0363  0.0362  0.0630
 3503W        W 4367  27.778  27.474  16.253 -0.0842 -0.1660  0.1042
 3504W        W 4368  24.902  29.130  17.144  0.1464 -0.1748  0.1101
 3505W        W 4369   1.211  29.081  18.231 -0.3547 -0.0887 -0.0092
 3506W        W 4370  27.561  23.968  14.219  0.0777 -0.3974 -0.1222
 3507W        W 4371  28.352  27.037  16.566  0.0702 -0.1361 -0.4124
 3508W        W 4372  26.023   0.695  15.755 -0.1236  0.0865  0.1859
 3509W        W 4373  25.728  25.392  17.041  0.0525 -0.2510  0.0873
 3510W        W 4374  26.616  26.278  18.957  0.1876  0.2500 -0.4370
 3511W        W 4375  26.044  27.856  15.591 -0.1048 -0.0802  0.0064
 3512W        W 4376  27.811  27.783  19.384 -0.0419 -0.2413 -0.0933
 3513W        W 4377  28.894   1.201  18.907  0.0572 -0.0024 -0.2333
 3514W        W 4378  26.670  26.672  18.291  0.0371 -0.0070 -0.0873
 3515W        W 4379  24.918  25.711  17.203  0.2811 -0.1683  0.0756
 3516W        W 4380  28.149  28.677  16.428  0.2793  0.1094 -0.0475
 3517W        W 4381  29.070   1.645  16.673 -0.1761  0.0173 -0.3072
 3518W        W 4382  28.332  28.371  16.789 -0.1655 -0.0494 -0.2790
 3519W        W 4383  26.933  28.468  17.863 -0.2586  0.0307 -0.0967
 3520W        W 4384  27.967   0.666  14.646 -0.1312 -0.0064  0.0424
 3521W        W 4385  28.153  28.535  17.944 -0.1870  0.0616  0.2180
 3522W        W 4386  26.036  26.368  16.758 -0.2184  0.0626 -0.0991
 3523W        W 4387  25.427  27.336  16.795  0.1540  0.4209  0.2432
 3524W        W 4388  27.629   0.108  17.978  0.4675 -0.0645  0.3571
 3525W        W 4389  27.649  25.472  17.464  0.0487 -0.1204  0.2410
 3526W        W 4390  24.056  26.469  13.652 -0.0104  0.1871  0.0922
 3527W        W 4391  24.464  27.782  16.577  0.3274  0.0670  0.0119
 3528W        W 4392  24.619  27.542  15.695 -0.2259 -0.0654  0.1223
 3529W        W 4393  24.551  25.120  18.657 -0.0086 -0.0756  0.3575
 3530W        W 4394  26.457   1.692  15.919  0.0637  0.2277  0.0701
 3531W        W 4395  28.126   0.182  20.233  0.3843  0.0402 -0.1001
 3532W        W 4396  28.658   1.688  18.434  0.0692  0.0124 -0.1268
 3533W        W 4397  28.885  27.326  18.233 -0.0803 -0.0331  0.3736
 3534W        W 4398   0.012  27.520  19.248  0.0171 -0.1152  0.0116
 3535W        W 4399  25.189  26.139  13.195  0.1391  0.2927 -0.2349
 3536W        W 4400   1.646  26.294  17.210  0.3131  0.1353 -0.1890
 3537W        W 4401  28.660  28.608  16.558  0.1171  0.1295 -0.2912
 3538W        W 4402  26.284  23.970  15.784 -0.1192 -0.1728 -0.1698
 3539W        W 4403  26.744   2.131  15.833 -0.0605 -0.1200  0.0180
 3540W        W 4404  25.252  25.083  17.870 -0.2592  0.2249 -0.3932
 3541W        W 4405  24.734  28.215  15.128 -0.0107  0.0531 -0.0837
 3542W        W 4406  26.629  27.283  15.205 -0.2448 -0.2062 -0.0577
 3543W        W 4407  25.528  27.985  14.647 -0.4118  0.0229  0.5419
 3544W        W 4408  27.181  26.053  16.905  0.1078 -0.3519  0.1010
 3545W        W 4409  28.861  28.784  15.510  0.1919 -0.1476  0.0429
 3546W        W 4410  23.151  25.442  18.158  0.1069  0.0902  0.0002
 3547W        W 4411  23.972  27.902  16.380  0.0580 -0.1197 -0.0767
 3548W        W 4412  26.019  27.550  16.023 -0.3455 -0.0786 -0.1023
 3549W        W 4413   0.017  27.727  17.887 -0.0033 -0.0612 -0.3510
 3550W        W 4414  25.739  26.914  16.778  0.0866 -0.1362  0.1692
 3551W        W 4415  25.877  28.421  17.291 -0.0060  0.2109  0.0722
 3552W        W 4416  26.627  29.019  16.295 -0.0608 -0.0839  0.0202
 3553W        W 4417  27.452   0.629  14.811  0.1932  0.1389 -0.0789
 3554W        W 4418  28.729  25.339  16.715  0.4135 -0.0397 -0.1566
 3555W        W 4419  25.276  28.784  20.066  0.1862 -0.2571 -0.2452
 3556W        W 4420  27.517  26.369  17.891 -0.2131 -0.0023  0.0098
 3557W        W 4421  25.583  26.053  17.588  0.0302 -0.1501 -0.4178
 3558W        W 4422  27.266   0.555  17.290  0.2473 -0.2157  0.2906
 3559W        W 4423  26.162  28.380  15.734  0.0846 -0.2004 -0.1889
 3560W        W 4424  28.903  27.929  16.834  0.2278  0.1035 -0.1981
 3561W        W 4425  25.842  26.532  17.784 -0.0347 -0.0771  0.0477
 3562W        W 4426  26.687  26.228  16.710  0.0192  0.0889  0.0140
 3563W        W 4427  27.245  28.738  16.757  0.1453  0.2489 -0.0099
 3564W        W 4428   0.573  28.153  16.654 -0.1660  0.1983  0.1039
 3565W        W 4429   0.225  27.669  16.057 -0.0138 -0.0715  0.0118
 3566W        W 4430  28.470  28.138  18.141 -0.0398 -0.0786  0.1215
 3567W        W 4431  27.681  25.267  15.495  0.0804  0.2137 -0.0600
 3568W        W 4432   2.268  28.382  15.370  0.0604  0.3135 -0.2949
 3569W        W 4433  27.824  28.518  14.026 -0.2079  0.1995  0.1992
 3570W        W 4434  28.893  27.732  15.833 -0.2283  0.1880  0.1680
 3571W        W 4435  26.578  28.612  13.825 -0.1107  0.3062 -0.0154
 3572W        W 4436  26.635   0.349  17.566 -0.2009 -0.3133  0.2913
 3573W        W 4437  27.636  27.019  16.551 -0.2022 -0.1786  0.1195
 3574W        W 4438  27.341  23.894  21.723  0.0640  0.0423 -0.0694
 3575W        W 4439  27.299  27.446  17.931 -0.1204  0.0535  0.1734
 3576W        W 4440   0.272  27.951  18.223 -0.0501 -0.0523 -0.1456
 3577W        W 4441  26.366  24.192  18.084 -0.1316  0.0655  0.0656
 3578W        W 4442  24.852  29.019  19.986  0.2109 -0.1745 -0.2790
 3579W        W 4443  24.887  25.816  19.222 -0.4100 -0.1392  0.0901
 3580W        W 4444  26.213  27.465  16.516 -0.1350  0.0216 -0.1533
 3581W        W 4445  25.138   0.711  14.777  0.0661 -0.0679  0.1349
 3582W        W 4446  25.499  25.725  18.382  0.4182 -0.1368  0.1045
 3583W        W 4447  28.194  24.945  17.208  0.2264 -0.4092 -0.0007
 3584W        W 4448   1.083  28.739  17.383 -0.1882 -0.0711  0.2485
 3585W        W 4449  28.165  29.117  16.039 -0.0090  0.0257  0.0700
 3586W        W 4450  28.063  28.734  17.004  0.2663  0.1175  0.0276
 3587W        W 4451  25.376   0.073  17.343 -0.0246  0.0212  0.0916
 3588W        W 4452  29.090  28.894  16.376  0.0885  0.0903 -0.1036
 3589W        W 4453  27.874   0.291  19.459 -0.1923  0.0590 -0.1592
 3590W        W 4454  25.686  26.544  17.135  0.0424 -0.1356  0.1009
 3591W        W 4455  26.335  27.062  16.087  0.0461 -0.0896  0.0531
 3592W        W 4456   1.295   0.406  18.820  0.3670  0.2700  0.0938
 3593W        W 4457  25.400   0.089  16.847  0.0430  0.0153  0.0459
 3594W        W 4458   0.741  26.481  16.519  0.0886  0.0057  0.1733
 3595W        W 4459  28.233   1.430  14.749 -0.0196  0.1576 -0.1296
 3596W        W 4460  25.025   0.282  18.511 -0.1664  0.1559 -0.1514
 3597W        W 4461  25.639   1.398  14.355  0.0355 -0.3178  0.1060
 3598W        W 4462  26.983  26.488  15.079  0.2003  0.2391 -0.0503
 3599W        W 4463  23.178   0.421  20.398  0.2369  0.0406  0.1371
 3600W        W 4464  26.283  27.247  21.941 -0.2393 -0.1987 -0.1955
 3601W        W 4465  28.576  28.739  21.938  0.1958  0.0970  0.1232
 3602W        W 4466   0.067   0.339  22.188  0.1076 -0.2393 -0.0732
 3603W        W 4467  27.371   1.696  21.310  0.0007  0.0274 -0.0674
 3604W        W 4468  26.513  24.976  18.892 -0.1669 -0.0179  0.4330
 3605W        W 4469  28.583  27.234  17.583 -0.0529 -0.2151 -0.1651
 3606W        W 4470  27.960  26.436  17.044  0.1325  0.1093 -0.2867
 3607W        W 4471  27.207  28.253  20.689  0.2860 -0.1803 -0.1500
 3608W        W 4472  25.683  28.177  22.072 -0.4241  0.0030  0.0122
 3609W        W 4473  25.491  23.896  20.605 -0.1909  0.0887  0.0481
 3610W        W 4474  28.415  24.760  18.615 -0.0797  0.1134  0.1361
 3611W        W 4475  27.935  28.900  19.495  0.0522 -0.1528 -0.1249
 3612W        W 4476  26.489  28.136  23.335  0.1076 -0.4682  0.5046
 3613W        W 4477  27.076  25.783  19.509  0.1042 -0.1546 -0.0590
 3614W        W 4478  26.150   0.908  23.854  0.2036  0.2382 -0.2172
 3615W        W 4479  26.626   0.337  18.645 -0.1893 -0.3001 -0.2830
 3616W        W 4480  23.406  25.444  19.184 -0.2049  0.1644  0.0574
 3617W        W 4481  23.748  27.381  23.775 -0.0879  0.0259 -0.0117
 3618W        W 4482   3.420  26.166  19.538  0.1834 -0.2475 -0.1301
 3619W        W 4483  27.136  26.711  21.062 -0.0713 -0.2960  0.1701
 3620W        W 4484  28.073  28.021  18.547 -0.0741  0.0888  0.3164
 3621W        W 4485  23.985  26.715  19.854  0.0586 -0.2612 -0.0750
 3622W        W 4486  25.114  27.832  20.156 -0.0317  0.0738 -0.0278
 3623W        W 4487  23.823  25.252  18.540  0.0665  0.0113 -0.4828
 3624W        W 4488  25.889  26.383  22.116  0.1326 -0.2773  0.0330
 3625W        W 4489   1.005  26.833  19.820  0.1135 -0.1947  0.0039
 3626W        W 4490  27.338  28.961  21.577 -0.1177 -0.0633  0.2726
 3627W        W 4491  28.869  26.717  21.530 -0.2654 -0.1269  0.0613
 3628W        W 4492  26.773  27.340  20.990  0.4490  0.0250 -0.2767
 3629W        W 4493  25.031  27.078  21.628 -0.0928 -0.0527 -0.2005
 3630W        W 4494  26.567   0.755  21.707 -0.2930 -0.1920 -0.0189
 3631W        W 4495  28.506  28.621  23.163 -0.0766  0.0991  0.0263
 3632W        W 4496  28.194  28.203  22.475  0.0524  0.3254  0.0884
 3633W        W 4497  26.422  26.470  22.717 -0.2565 -0.1832 -0.2794
 3634W        W 4498  26.997   0.343  22.295 -0.0671  0.1360 -0.0449
 3635W        W 4499  26.115  23.651  21.275  0.1133  0.1447  0.0216
 3636W        W 4500  25.935  25.644  21.328 -0.1572  0.0392 -0.0841
 3637W        W 4501   1.633  28.559  20.295  0.1958  0.2257 -0.2410
 3638W        W 4502  28.080  26.908  19.759  0.0514  0.1293  0.1508
 3639W        W 4503   0.033  25.056  19.269 -0.1113  0.2978  0.0771
 3640W        W 4504  27.894  23.929  22.796 -0.2269 -0.1670 -0.0018
 3641W        W 4505  28.393  28.739  20.930  0.0117  0.1822 -0.0489
 3642W        W 4506  27.173  29.045  18.478  0.1705  0.0659 -0.2708
 3643W        W 4507  28.443   0.146  19.819  0.0722  0.0328  0.2487
 3644W        W 4508  27.919   2.769  16.313  0.0416 -0.2596 -0.1182
 3645W        W 4509  25.006  25.088  22.158  0.0762  0.3427 -0.1487
 3646W        W 4510   0.306  26.166  19.733  0.0788  0.2690 -0.0443
 3647W        W 4511  27.675  27.632  22.096 -0.0834  0.3359 -0.2264
 3648W        W 4512  27.263  26.618  19.244 -0.2406  0.0454 -0.1326
 3649W        W 4513  24.667  27.213  19.716 -0.0785 -0.0517 -0.1142
 3650W        W 4514  28.882  25.169  21.497  0.0153 -0.2467 -0.3616
 3651W        W 4515  28.094  27.217  20.137  0.0220  0.0626 -0.1144
 3652W        W 4516  27.305  25.174  18.595 -0.0679  0.0615  0.2960
 3653W        W 4517  28.969  26.638  22.332  0.1725  0.0293  0.2619
 3654W        W 4518  25.009  27.794  18.905 -0.0945  0.2937 -0.0117
 3655W        W 4519  24.395  25.295  19.070  0.0520 -0.3291 -0.1154
 3656W        W 4520   0.914  28.046  24.131 -0.0368  0.0531  0.4674
 3657W        W 4521  25.602   0.440  16.039  0.2634 -0.2211 -0.1654
 3658W        W 4522  25.215  26.645  20.105 -0.1814 -0.1060  0.0980
 3659W        W 4523  26.323  25.040  19.555 -0.1426 -0.2003 -0.0621
 3660W        W 4524  26.137   0.717  21.966  0.1751  0.1035 -0.3044
 3661W        W 4525  26.561  27.773  22.997  0.2718 -0.0587  0.0065
 3662W        W 4526  25.208  25.161  21.017  0.4195  0.2074  0.0476
 3663W        W 4527  26.706  26.903  21.207 -0.0501  0.1895 -0.0421
 3664W        W 4528  27.990  24.972  20.510  0.4680 -0.0324 -0.3108
 3665W        W 4529  24.218  28.414  16.986 -0.0341 -0.0711 -0.0152
 3666W        W 4530  25.790  27.259  20.213  0.2250  0.0023  0.0237
 3667W        W 4531  24.960  27.283  17.979  0.2577 -0.1129 -0.1735
 3668W        W 4532  27.406  28.114  18.419 -0.2654  0.0283 -0.2861
 3669W        W 4533  28.303  27.722  22.204 -0.2211  0.1482 -0.0994
 3670W        W 4534  28.692  26.923  19.454  0.0293 -0.3633 -0.0224
 3671W        W 4535   0.453   0.610  20.768 -0.1402  0.3453  0.1244
 3672W        W 4536  29.053  28.565  23.178 -0.0326  0.0622  0.1894
 3673W        W 4537   1.926  27.483  17.658  0.0772 -0.1835  0.0681
 3674W        W 4538   2.092  28.683  20.471  0.2493  0.1352 -0.2676
 3675W        W 4539  25.821  25.495  19.098 -0.2986 -0.0093  0.1369
 3676W        W 4540  28.627  27.247  24.092  0.1984  0.0622 -0.0616
 3677W        W 4541  26.935  26.720  18.817 -0.0170  0.0468 -0.0737
 3678W        W 4542  28.347  27.013  19.079  0.2206 -0.0987  0.1987
 3679W        W 4543  24.200  24.508  18.384 -0.1797  0.0141 -0.0031
 3680W        W 4544  27.051  28.233  23.414  0.1577 -0.1971  0.3219
 3681W        W 4545  25.206  24.647  19.973 -0.0814 -0.1468  0.0016
 3682W        W 4546  28.180  22.700  20.860 -0.3329  0.1424  0.0966
 3683W        W 4547  26.240  25.857  23.949 -0.2905 -0.1521 -0.0438
 3684W        W 4548  26.299  27.653  21.055 -0.2443  0.2553  0.1010
 3685W        W 4549  28.535   1.314  21.920 -0.1231 -0.2028 -0.0516
 3686W        W 4550  26.581  25.976  20.383 -0.1035 -0.2412  0.0740
 3687W        W 4551   0.347  28.613  24.208  0.0991  0.2928  0.0121
 3688W        W 4552   0.117  26.335  21.593  0.0748  0.0899 -0.1006
 3689W        W 4553   1.090  25.018  20.748  0.2701 -0.1460 -0.1193
 3690W        W 4554   0.217  26.375  21.037 -0.0589 -0.0835  0.0695
 3691W        W 4555  25.757  27.431  18.774 -0.1026  0.2414  0.0083
 3692W        W 4556  28.052  26.836  18.158 -0.1877 -0.0923  0.1390
 3693W        W 4557  27.955  28.922  20.720 -0.0441  0.0469 -0.3124
 3694W        W 4558  27.223  25.347  19.412  0.0118  0.3025 -0.1856
 3695W        W 4559   0.965  28.828  21.431 -0.0447  0.2794  0.1018
 3696W        W 4560  28.868   1.728  22.233  0.0520  0.0063  0.1005
 3697W        W 4561  26.641  26.010  19.384  0.3137 -0.1779  0.1006
 3698W        W 4562   1.319  26.955  18.925  0.1808 -0.1102 -0.0735
 3699W        W 4563  27.977   0.220  18.541  0.0857  0.0808 -0.1217
 3700W        W 4564  26.353  28.232  21.156  0.1011  0.0373  0.1478
 3701W        W 4565  24.606  26.952  16.081  0.2419  0.1086  0.2384
 3702W        W 4566   1.353  28.150  23.212  0.2667  0.1652 -0.0132
 3703W        W 4567   0.143  27.016  19.227 -0.1044 -0.0789  0.0484
 3704W        W 4568  24.941  25.202  21.650  0.1179  0.2329  0.0440
 3705W        W 4569  28.909   0.612  22.529  0.2644  0.0783 -0.2797
 3706W        W 4570   0.319  25.219  23.114 -0.2560 -0.0437 -0.1249
 3707W        W 4571  25.484  26.053  21.966 -0.0675 -0.4298 -0.0502
 3708W        W 4572  24.542  28.653  22.248  0.2710 -0.0336  0.0445
 3709W        W 4573  28.079  28.483  21.863 -0.0696 -0.1770 -0.1522
 3710W        W 4574  29.096  27.715  21.804  0.1318 -0.0989 -0.2088
 3711W        W 4575  28.911  25.038  23.803  0.1034  0.0194  0.0201
 3712W        W 4576   0.801  26.795  22.709 -0.0748 -0.0057 -0.0579
 3713W        W 4577  27.167  27.551  18.411  0.0498 -0.2925 -0.3476
 3714W        W 4578  26.498  27.844  19.681  0.2170  0.1927  0.0310
 3715W        W 4579  28.021  26.565  21.097 -0.0166 -0.3062  0.2451
 3716W        W 4580  25.076  25.422  19.032  0.1287  0.1125 -0.0327
 3717W        W 4581  26.772  25.507  19.247 -0.1916  0.1430  0.1286
 3718W        W 4582  28.011  26.909  21.476  0.1523 -0.0984 -0.0567
 3719W        W 4583  27.230  23.868  19.291 -0.0386 -0.0551 -0.4722
 3720W        W 4584  28.080  28.918  19.977 -0.1050 -0.0360  0.2482
 3721W        W 4585  28.151  26.967  20.582  0.0255  0.1167  0.1293
 3722W        W 4586  26.775  26.592  19.324 -0.0555 -0.3204  0.0797
 3723W        W 4587  26.068  26.755  20.428 -0.1243  0.0189 -0.1105
 3724W        W 4588  28.650  29.019  18.975  0.0240 -0.0548  0.1740
 3725W        W 4589  25.309  27.345  20.029  0.1691 -0.0708 -0.1172
 3726W        W 4590  28.814  27.165  23.470  0.0781  0.2167  0.2084
 3727W        W 4591  29.106   0.189  22.725  0.1483  0.0595 -0.3254
 3728W        W 4592  25.306  28.159  21.756 -0.1427  0.1299  0.1359
 3729W        W 4593  27.801  27.564  21.317  0.0900 -0.6396 -0.0339
 3730W        W 4594  26.624  24.012  23.125  0.0293  0.4505 -0.2622
 3731W        W 4595   0.835  28.867  20.474  0.1024 -0.2850 -0.0006
 3732W        W 4596  27.284  26.640  18.286 -0.0405  0.1237 -0.1297
 3733W        W 4597  27.551  26.088  19.750  0.2725  0.2239 -0.1100
 3734W        W 4598  24.575  26.135  20.614 -0.3031 -0.3404 -0.2303
 3735W        W 4599  27.202  25.296  21.721 -0.3273 -0.0961  0.0005
 3736W        W 4600   0.902  27.824  21.745  0.1273  0.1927  0.1583
 3737W        W 4601  28.565   0.300  21.574 -0.0257  0.0320  0.4875
 3738W        W 4602  27.822  27.320  18.055 -0.0074 -0.0185  0.1080
 3739W        W 4603  24.425  26.233  19.843  0.3612  0.1166  0.1663
 3740W        W 4604  27.442  24.850  21.258 -0.0995 -0.4203 -0.1041
 3741W        W 4605  27.754  27.165  18.934 -0.1309 -0.0229 -0.2788
 3742W        W 4606  25.832  24.713  21.310 -0.2119  0.0662  0.0321
 3743W        W 4607  27.980  28.655  22.356 -0.0284 -0.2931  0.0810
 3744W        W 4608  26.935  26.249  18.053 -0.0912 -0.0549 -0.1806
 3745W        W 4609  28.655  27.418  19.160 -0.0561  0.0333 -0.0682
 3746W        W 4610  27.604  27.202  21.860 -0.0060  0.1685 -0.0174
 3747W        W 4611  27.968  26.355  22.834 -0.0215  0.1480 -0.1635
 3748W        W 4612  24.096  27.155  19.671  0.0247  0.3069  0.3046
 3749W        W 4613  27.147  27.458  22.159  0.3904 -0.2350 -0.0249
 3750W        W 4614  26.836  25.346  18.731  0.0858 -0.2947 -0.0819
 3751W        W 4615  23.536  26.813  20.101  0.0290  0.0109  0.3619
 3752W        W 4616  24.545  24.936  19.404  0.0238 -0.0652  0.0243
 3753W        W 4617  27.999  26.386  20.594  0.0115  0.1905  0.0929
 3754W        W 4618   0.815  25.354  20.024  0.1709  0.0754 -0.0149
 3755W        W 4619  24.907  25.075  18.262 -0.1032  0.1637  0.0587
 3756W        W 4620  27.227  27.325  17.377  0.1531 -0.0272  0.0258
 3757W        W 4621  26.539  26.784  20.160  0.0306 -0.1831 -0.0328
 3758W        W 4622  25.804  26.709  19.406 -0.2224  0.3889 -0.1172
 3759W        W 4623   1.106  24.939  23.630 -0.1984  0.0930  0.0834
 3760W        W 4624  27.545  26.592  21.319  0.0634 -0.2360 -0.0491
 3761W        W 4625   0.658  28.881  22.791  0.1513 -0.0019  0.2426
 3762W        W 4626  27.592  27.104  23.235  0.0778 -0.1626 -0.2256
 3763W        W 4627  26.050  27.105  23.257 -0.2123  0.2075 -0.1911
 3764W        W 4628  25.667  23.869  18.611  0.1325  0.1858 -0.1554
 3765W        W 4629  22.786  28.424  18.161 -0.0440  0.0423  0.1146
 3766W        W 4630  26.254   0.101  18.974  0.2614  0.3484  0.3295
 3767W        W 4631  28.024  27.290  22.306 -0.0148 -0.2076 -0.0142
 3768W        W 4632  25.476  28.118  21.305  0.0981  0.0442  0.0827
 3769W        W 4633  28.058  28.319  20.685 -0.0061  0.0441  0.1123
 3770W        W 4634  26.426  28.453  20.266  0.0353 -0.0709  0.0794
 3771W        W 4635  25.389  27.013  20.371  0.0720  0.4810 -0.0796
 3772W        W 4636  27.786   0.366  20.533  0.2399 -0.2824  0.0860
 3773W        W 4637  28.583  26.490  19.729 -0.3107  0.1672  0.0561
 3774W        W 4638   0.217  24.890  18.225 -0.1647  0.1040 -0.1862
 3775W        W 4639   0.190  27.162  22.769 -0.1607  0.2193 -0.1638
 3776W        W 4640  26.648  26.236  21.093  0.3214  0.0039  0.1260
 3777W        W 4641  24.902   0.922  20.559  0.0518  0.0558  0.0534
 3778W        W 4642  27.601  28.113  21.728  0.0726 -0.0234 -0.0837
 3779W        W 4643  25.759  26.169  19.396 -0.5167  0.1045 -0.0815
 3780W        W 4644   0.094   0.057  20.346 -0.0919  0.1220  0.0351
 3781W        W 4645  28.589   0.380  18.586 -0.0622 -0.1899  0.0164
 3782W        W 4646  27.711  26.332  19.347  0.3903  0.1947  0.0573
 3783W        W 4647  27.196  25.762  17.790  0.1190 -0.2243 -0.2383
 3784W        W 4648  28.559   0.236  22.609  0.2045  0.2425 -0.3318
 3785W        W 4649  28.455  26.086  18.912  0.2949  0.0280 -0.0050
 3786W        W 4650  28.124  25.977  19.251 -0.2495  0.0505 -0.2131
 3787W        W 4651  26.045  27.801  22.042 -0.3891 -0.1795 -0.1444
 3788W        W 4652  27.521  28.552  21.992  0.0611 -0.1879  0.0241
 3789W        W 4653  26.218  28.695  20.817 -0.0086  0.0880  0.0903
 3790W        W 4654  24.808  25.895  19.738 -0.3218  0.0392  0.0546
 3791W        W 4655  28.967   0.003  21.746  0.1117 -0.1724 -0.1576
 3792W        W 4656  24.526  26.458  23.089  0.2260 -0.0794 -0.1339
 3793W        W 4657  27.044  24.141  22.740  0.1432 -0.1060 -0.1122
 3794W        W 4658  27.026  25.310  18.194  0.0940 -0.5647 -0.0906
 3795W        W 4659  28.368  26.671  17.749  0.2817  0.2364 -0.0841
 3796W        W 4660  26.434  25.141  17.964  0.0016  0.0084 -0.2316
 3797W        W 4661  25.929  27.784  17.486  0.0760 -0.1391 -0.2089
 3798W        W 4662  27.504  25.567  22.440 -0.0986  0.3281 -0.1193
 3799W        W 4663  25.694  25.784  20.370  0.1389  0.0301  0.0418
 3800W        W 4664   1.102  23.413  21.527 -0.0692 -0.1148  0.3529
 3801W        W 4665  28.880  27.899  20.395  0.3431 -0.0324 -0.1340
 3802W        W 4666  23.218  26.394  19.993 -0.3961 -0.0733  0.2990
 3803W        W 4667  26.662  26.487  21.523  0.0203 -0.2692  0.1265
 3804W        W 4668  25.936  26.856  18.940  0.2584  0.0887  0.1562
 3805W        W 4669  26.710  25.221  21.095 -0.3095 -0.2225 -0.1473
 3806W        W 4670  24.449  25.937  22.866 -0.2131  0.1830  0.1555
 3807W        W 4671  25.542   0.043  18.258  0.1929 -0.0184 -0.3315
 3808W        W 4672  25.341  28.175  18.547 -0.0854  0.1714 -0.0249
 3809W        W 4673  24.896  26.526  20.480 -0.0102  0.0887 -0.1354
 3810W        W 4674  26.422  27.827  21.644 -0.0295 -0.0032  0.2182
 3811W        W 4675  25.331   0.075  21.911  0.0543 -0.0440 -0.1777
 3812W        W 4676  27.885  26.292  20.118  0.2801  0.2465 -0.1026
 3813W        W 4677   0.771  27.859  20.545 -0.0693 -0.0399  0.0895
 3814W        W 4678  28.065  27.345  18.473 -0.2393  0.0315  0.3540
 3815W        W 4679  27.866  28.199  18.154  0.0257 -0.0214  0.0417
 3816W        W 4680  27.213  28.854  20.584  0.1427  0.3270 -0.1031
 3817W        W 4681  28.889  27.422  22.719 -0.1107  0.3981 -0.3150
 3818W        W 4682   0.816  27.590  23.181  0.3223  0.1297  0.0460
 3819W        W 4683  29.117  28.564  22.453  0.0649 -0.0399 -0.1113
 3820W        W 4684  28.286  28.073  21.651  0.0554  0.4279  0.0997
 3821W        W 4685   0.158  25.879  23.692 -0.1429 -0.2043 -0.0824
 3822W        W 4686  26.923  25.519  20.240  0.0115  0.0078 -0.0812
 3823W        W 4687  29.055  28.291  18.244 -0.0728  0.1320 -0.0116
 3824W        W 4688  26.303  26.372  20.150 -0.1240  0.2917 -0.0164
 3825W        W 4689  25.787   0.496  21.075 -0.1363  0.0776 -0.0860
 3826W        W 4690   0.457  24.576  19.003  0.1663  0.0914 -0.1051
 3827W        W 4691  29.050   0.520  18.245  0.2521  0.1756 -0.1714
 3828W        W 4692   0.850  27.490  24.078 -0.0027 -0.2072 -0.0655
 3829W        W 4693  27.153  25.971  19.999 -0.0755 -0.1680  0.0327
 3830W        W 4694  27.168  27.344  23.012  0.0585 -0.0612 -0.1577
 3831W        W 4695  25.312  25.485  20.602 -0.3129  0.1478  0.2452
 3832W        W 4696  28.056  27.750  20.834  0.3617  0.0252  0.0344
 3833W        W 4697  25.407  27.184  20.989  0.1701  0.0810  0.3194
 3834W        W 4698  28.418  26.525  21.619  0.1430  0.0205  0.0385
 3835W        W 4699  28.770  28.390  21.661  0.0813  0.2018  0.2697
 3836W        W 4700  27.145  27.064  22.494 -0.1097  0.2007 -0.1876
 3837W        W 4701  26.215  27.239  18.637 -0.1211  0.2035  0.0242
 3838W        W 4702  27.159  28.709  21.072  0.4464  0.2585  0.1492
 3839W        W 4703  27.264  27.497  21.142 -0.1038 -0.0451  0.1908
 3840W        W 4704  24.412  28.768  20.518  0.1372 -0.0480  0.4380
 3841W        W 4705  22.800  26.355  18.655 -0.2890  0.0884 -0.1552
 3842W        W 4706  26.183  26.025  19.607  0.2441  0.3442  0.0642
 3843W        W 4707  26.438  26.756  18.916 -0.1007 -0.1227 -0.1368
 3844W        W 4708  25.389  29.094  15.916 -0.1159  0.0095  0.0751
 3845W        W 4709  29.127  27.876  20.964 -0.2622 -0.1114 -0.1653
 3846W        W 4710  28.779  28.252  22.870 -0.0020 -0.2197 -0.5325
 3847W        W 4711   0.449  28.356  17.892  0.1026  0.4076  0.1176
 3848W        W 4712  26.529  24.777  18.289  0.2572 -0.2729 -0.0226
 3849W        W 4713  28.055   0.210  22.490 -0.0933  0.0990 -0.2010
 3850W        W 4714   0.208  27.499  22.356  0.2203  0.1033 -0.0599
 3851W        W 4715   0.503  29.044  21.201 -0.1216 -0.0840 -0.0276
 3852W        W 4716   0.270  28.514  22.801  0.3791 -0.1785 -0.2460
 3853W        W 4717  24.839  26.208  20.146  0.0249  0.2490 -0.1683
 3854W        W 4718  28.652  27.658  17.806  0.0036 -0.1131 -0.2021
 3855W        W 4719  28.670  25.262  18.585  0.0863  0.2196 -0.1009
 3856W        W 4720  27.033  25.525  22.359 -0.2950  0.2260 -0.0985
 3857W        W 4721   0.063  28.634  19.852 -0.0942  0.2233  0.0377
 3858W        W 4722   0.524  28.230  21.590 -0.0917  0.1060  0.2427
 3859W        W 4723  24.946  26.703  22.086 -0.0513 -0.0783 -0.1266
 3860W        W 4724   0.110  25.385  20.957  0.2781 -0.0661  0.1090
 3861W        W 4725  28.521  28.597  22.458  0.0391  0.0352 -0.2398
 3862W        W 4726  23.699  25.558  20.840  0.0680 -0.0294  0.0851
 3863W        W 4727  26.934  28.915  19.367 -0.0871  0.2103 -0.0442
 3864W        W 4728  26.578   2.507  24.094 -0.0375 -0.0895  0.0649
 3865W        W 4729  26.852   0.241  19.728  0.0170 -0.1583 -0.2751
 3866W        W 4730  28.454  27.756  18.870  0.1108  0.1011  0.3376
 3867W        W 4731  25.076  27.562  19.693 -0.4073 -0.1192 -0.3042
 3868W        W 4732  28.466  26.952  20.052 -0.0857  0.4431 -0.1202
 3869W        W 4733  27.137  27.146  21.545  0.2683  0.3116 -0.0642
 3870W        W 4734  28.819  27.648  22.247  0.1328 -0.1175  0.1434
 3871W        W 4735   0.306  27.493  21.143  0.2410 -0.2015 -0.0338
 3872W        W 4736  26.706  27.221  22.196  0.2867  0.0576  0.1124
 3873W        W 4737  29.136  28.002  22.399 -0.0128  0.0482 -0.2301
 3874W        W 4738  27.208  26.441  23.499  0.2667 -0.3743  0.1065
 3875W        W 4739  24.096  25.072  22.157 -0.1549 -0.0388 -0.3662
 3876W        W 4740  26.574  25.836  22.017 -0.0307  0.1188 -0.0135
 3877W        W 4741  25.587  26.412  18.961 -0.1695  0.0098 -0.2491
 3878W        W 4742  27.127  27.280  20.649 -0.0403 -0.1514  0.2571
 3879W        W 4743  25.316  26.238  17.999  0.1256 -0.0066 -0.1693
 3880W        W 4744  25.783   0.446  20.577 -0.2061 -0.3498  0.2575
 3881W        W 4745  27.160  28.402  21.599  0.0376  0.0443 -0.2072
 3882W        W 4746  23.614  26.397  20.347 -0.0742  0.1634 -0.5633
 3883W        W 4747  25.831  25.417  17.975  0.2527 -0.1678  0.0647
 3884W        W 4748  28.185  25.419  20.133 -0.0659  0.2758 -0.1155
 3885W        W 4749  27.833   0.383  21.996 -0.2433 -0.1183 -0.0987
 3886W        W 4750  22.628  24.872  22.448  0.4724  0.0925  0.2001
 3887W        W 4751  28.239  27.574  17.506  0.1190  0.1952  0.2166
 3888W        W 4752  28.241  28.469  18.428  0.2702  0.1382  0.0566
 3889W        W 4753  27.368   0.297  20.201 -0.2157 -0.4056 -0.0328
 3890W        W 4754  26.512  23.758  19.781 -0.3853  0.0381  0.1253
 3891W        W 4755   1.804  26.858  19.662 -0.2160 -0.0421  0.0762
 3892W        W 4756  27.562  25.014  19.042 -0.1019  0.2275 -0.1567
 3893W        W 4757  23.646  25.852  21.236  0.2193 -0.1092 -0.2264
 3894W        W 4758   2.403  24.442  19.362 -0.0246  0.3315 -0.0371
 3895W        W 4759  25.019  26.508  21.574  0.0277  0.1732 -0.0897
 3896W        W 4760   0.179  26.337  19.073  0.4025  0.0589  0.0412
 3897W        W 4761  28.456  26.573  20.660 -0.1138 -0.1208  0.0258
 3898W        W 4762  24.983   1.661  21.825  0.1565 -0.0889  0.0348
 3899W        W 4763  25.921  26.081  17.111  0.0551 -0.0794  0.1285
 3900W        W 4764  24.945  25.778  20.922  0.1542  0.1069  0.2028
 3901W        W 4765  28.561  27.679  21.756 -0.2337  0.0740 -0.2332
 3902W        W 4766  26.725  26.926  21.764 -0.0252 -0.0279 -0.1797
 3903W        W 4767   0.722  26.996  16.418 -0.0838  0.1002 -0.0749
 3904W        W 4768  28.679   0.283  22.049  0.0358 -0.1016 -0.2055
 3905W        W 4769   1.556   0.184  19.900  0.0444  0.1354  0.1222
 3906W        W 4770  26.980  27.372  19.617 -0.0687 -0.0398 -0.2704
 3907W        W 4771  28.019  27.307  19.406  0.0692 -0.0283 -0.0116
 3908W        W 4772  24.258  28.471  19.202  0.1625 -0.0265  0.4027
 3909W        W 4773   0.187  27.454  18.254  0.0548  0.0352  0.3904
 3910W        W 4774  26.842  28.230  21.125  0.0577  0.3784  0.0915
 3911W        W 4775  27.780  25.233  19.595  0.0247  0.1269 -0.0396
 3912W        W 4776  24.998  27.007  20.662 -0.3119 -0.3579  0.4007
 3913W        W 4777  25.196  28.941  21.061  0.2037  0.0862 -0.1788
 3914W        W 4778  26.260  26.686  23.135  0.2392  0.4170 -0.0005
 3915W        W 4779  25.159  27.965  19.385 -0.3217 -0.1732  0.1238
 3916W        W 4780  28.793  26.295  18.645 -0.0811  0.0827 -0.1269
 3917W        W 4781   0.172  25.469  21.434  0.0394  0.1239 -0.2152
 3918W        W 4782  27.730  26.828  19.316 -0.3789 -0.0783 -0.1696
 3919W        W 4783  27.458   0.024  20.756 -0.2656 -0.1205  0.0231
 3920W        W 4784   0.016   0.527  18.874  0.0493 -0.1733 -0.0709
 3921W        W 4785  26.944   0.008  21.269 -0.0580  0.2190  0.0377
 3922W        W 4786  27.205  26.958  19.654 -0.3269  0.0596  0.0912
 3923W        W 4787  25.840  26.255  19.949  0.2991  0.0762  0.0855
 3924W        W 4788  25.951  27.862  22.544  0.0692  0.0131  0.1450
 3925W        W 4789  25.261  27.722  17.730 -0.3790  0.2079 -0.0400
 3926W        W 4790  25.531  27.067  19.672  0.0750  0.2340 -0.4128
 3927W        W 4791  26.041  25.134  18.304 -0.3363 -0.1168 -0.0921
 3928W        W 4792  25.753  24.770  20.161  0.0925  0.0231 -0.2763
 3929W        W 4793  26.324  24.894  21.679 -0.1862 -0.0102 -0.0749
 3930W        W 4794   0.122  23.531  18.281 -0.1796 -0.1806  0.2763
 3931W        W 4795  28.841  26.969  22.904  0.1655 -0.4286 -0.0053
 3932W        W 4796  27.446  26.689  24.463  0.0850 -0.2892  0.1033
 3933W        W 4797  28.370   0.409  21.145 -0.1934 -0.1264 -0.2393
 3934W        W 4798  27.031  27.829  20.838 -0.1327  0.0765  0.1636
 3935W        W 4799  26.169  28.183  20.651  0.0978 -0.2158  0.0359
 3936W        W 4800  27.436  27.645  19.897 -0.1277  0.0638 -0.2631
 3937W        W 4801   0.127  27.649  20.096  0.0352  0.3546  0.1220
 3938W        W 4802  27.664  29.005  20.232 -0.0872  0.0037  0.2679
 3939W        W 4803  25.724  26.508  21.511  0.0516  0.1325 -0.0078
 3940W        W 4804  27.232  24.648  22.289  0.2319  0.0346  0.1910
 3941W        W 4805  28.426  23.973  22.052  0.1398 -0.1084  0.2649
 3942W        W 4806  26.229  28.282  19.198  0.0266  0.4411 -0.0790
 3943W        W 4807   0.875  28.903  23.661  0.2347 -0.2688 -0.2037
 3944W        W 4808  26.296   0.608  17.808  0.1767 -0.0415 -0.1990
 3945W        W 4809  24.460  23.981  19.326  0.1021  0.1431  0.4629
 3946W        W 4810  23.877  25.996  18.480  0.1444  0.1814 -0.2545
 3947W        W 4811  25.351  27.745  21.007 -0.0913 -0.1321 -0.1476
 3948W        W 4812  25.083  23.186  18.359 -0.1490  0.1025 -0.1515
 3949W        W 4813  26.593  25.812  22.925 -0.0699 -0.3036 -0.1719
 3950W        W 4814  27.448  26.061  18.755 -0.1269  0.1132 -0.2410
 3951W        W 4815  25.796  26.326  23.305 -0.0224  0.2114  0.2110
 3952W        W 4816  25.265  28.237  19.886  0.1198  0.0579  0.0020
 3953W        W 4817  27.656   1.118  18.955  0.1258 -0.3047 -0.2199
 3954W        W 4818  27.600  27.263  22.628 -0.0721 -0.1420  0.1735
 3955W        W 4819  25.799   1.571  19.984 -0.4107 -0.2014 -0.1613
 3956W        W 4820  28.300  27.750  19.457 -0.4780 -0.3013  0.1778
 3957W        W 4821  25.655  25.585  23.350 -0.2931 -0.1370  0.2207
 3958W        W 4822  27.242  27.087  19.147 -0.0916 -0.2126 -0.1789
 3959W        W 4823  25.635  24.510  18.578 -0.2608 -0.0048  0.0069
 3960W        W 4824  28.033  25.892  21.865  0.1931 -0.0293  0.0250
 3961W        W 4825  24.912  26.415  19.710  0.0944 -0.0210  0.1019
 3962W        W 4826  26.257  26.415  19.295 -0.0476  0.2179  0.1206
 3963W        W 4827  27.760  27.690  20.288 -0.1398  0.3122  0.0389
 3964W        W 4828  25.553  27.269  21.858 -0.0588 -0.0776 -0.3493
 3965W        W 4829   0.139  28.391  21.060  0.1047 -0.2093  0.0115
 3966W        W 4830  27.842  27.727  22.587 -0.0613 -0.1865  0.0074
 3967W        W 4831  27.840  24.492  20.292  0.2189  0.2445  0.0121
 3968W        W 4832  28.010  26.836  18.669  0.1385  0.0387  0.0214
 3969W        W 4833  27.549  26.514  16.720  0.3480 -0.0003  0.0436
 3970W        W 4834  28.803  28.499  21.017 -0.2858 -0.0772 -0.1208
 3971W        W 4835  26.945  26.004  21.534  0.0468  0.1103 -0.0870
 3972W        W 4836   1.723   0.221  21.799 -0.0228  0.2052 -0.0767
 3973W        W 4837  29.128  29.120  19.129 -0.0634 -0.0364  0.0817
 3974W        W 4838  25.848  26.608  20.978  0.2023 -0.0390  0.3663
 3975W        W 4839  26.182  26.816  22.381 -0.1872 -0.1458  0.0414
 3976W        W 4840  29.013   0.275  21.343  0.3811 -0.0428  0.1917
 3977W        W 4841   0.858  24.227  21.003 -0.1224  0.0040  0.2143
 3978W        W 4842  25.843  26.998  21.329  0.1512 -0.0174  0.1365
 3979W        W 4843  27.809  28.518  18.694 -0.0596  0.2599  0.2254
 3980W        W 4844  24.009  26.985  18.218  0.0394 -0.0703 -0.0840
 3981W        W 4845  25.032  26.808  21.200  0.0902 -0.2738  0.1892
 3982W        W 4846  27.649  25.938  22.173 -0.1808 -0.1729  0.0573
 3983W        W 4847  26.497  29.054  20.352  0.0620 -0.0298 -0.3142
 3984W        W 4848  28.607  29.098  23.238  0.2050  0.4173 -0.1961
 3985W        W 4849  27.816   1.047  19.881 -0.1437 -0.0129  0.0372
 3986W        W 4850  26.745  27.634  20.507 -0.2248 -0.2099  0.2610
 3987W        W 4851  27.073   0.476  18.822 -0.0851 -0.0407 -0.0181
 3988W        W 4852  28.101  27.646  23.036  0.0854 -0.3104  0.0824
 3989W        W 4853   0.058  26.138  22.653  0.0063 -0.1494  0.1639
 3990W        W 4854  26.662  28.499  19.398  0.0289 -0.3007 -0.0362
 3991W        W 4855  28.546  27.083  21.561 -0.0174 -0.0590 -0.1612
 3992W        W 4856  26.251  28.316  19.724 -0.1741 -0.1242  0.1344
 3993W        W 4857  25.111   0.083  20.368  0.0022 -0.0968 -0.0755
 3994W        W 4858  26.716  24.826  23.524  0.0176 -0.0228 -0.0248
 3995W        W 4859  28.206  26.176  19.727 -0.1398  0.1030  0.0296
 3996W        W 4860  28.176  28.764  23.847  0.0137 -0.0748 -0.0840
 3997W        W 4861  27.276  27.830  20.381  0.1996  0.1689  0.0012
 3998W        W 4862  25.447  24.100  17.576 -0.0172  0.0299  0.1904
 3999W        W 4863  26.016  28.447  24.944  0.1468  0.1241  0.2356
 4000W        W 4864  28.857  26.529  24.755 -0.1681  0.1161 -0.1625
 4001W        W 4865   0.760   0.058  21.690  0.0550 -0.0698  0.5488
 4002W        W 4866  28.428   1.194  24.955 -0.0153  0.2200 -0.1092
 4003W        W 4867  27.407   0.775  21.072  0.1071 -0.3592 -0.0787
 4004W        W 4868  26.273  27.537  24.421  0.1116 -0.0919 -0.1912
 4005W        W 4869  27.298  26.030  23.898  0.0872 -0.0684 -0.0967
 4006W        W 4870  26.650  23.843  24.168 -0.0971  0.0655  0.2640
 4007W        W 4871  29.134   0.372  25.084  0.2716  0.2393  0.0929
 4008W        W 4872  26.075  25.842  27.497 -0.0529  0.0447  0.1334
 4009W        W 4873  26.228  27.039  27.941  0.0868 -0.1753 -0.1825
 4010W        W 4874  29.096  27.331  25.886  0.0132  0.1410  0.0097
 4011W        W 4875  28.262  25.041  22.410 -0.0743  0.4265 -0.0559
 4012W        W 4876   0.279  25.587  27.212 -0.1577  0.1605 -0.0916
 4013W        W 4877  26.968  26.505  23.077  0.2330 -0.2939 -0.2476
 4014W        W 4878  27.773   0.373  23.433  0.0707  0.1332  0.0376
 4015W        W 4879  27.121   1.899  24.193  0.1536  0.0454 -0.0661
 4016W        W 4880  25.196  24.986  24.610 -0.1012 -0.1171  0.0914
 4017W        W 4881  27.557  24.364  26.726 -0.0590  0.3797 -0.2928
 4018W        W 4882   1.475  25.805  23.681  0.2481  0.3510 -0.0403
 4019W        W 4883  28.677  27.048  24.607  0.0844 -0.1526 -0.2918
 4020W        W 4884  29.059  29.044  23.524 -0.0821  0.1691 -0.3350
 4021W        W 4885  29.117   0.157  24.028  0.0816 -0.1741 -0.0262
 4022W        W 4886  28.169  26.208  26.832  0.2088  0.0842  0.3040
 4023W        W 4887  24.620  27.985  25.177 -0.2039 -0.0279 -0.2376
 4024W        W 4888  27.392  27.700  24.556 -0.1960 -0.1810  0.2074
 4025W        W 4889   1.518  26.848  27.897  0.3039  0.0742 -0.3330
 4026W        W 4890  27.293  28.156  23.884  0.0360  0.1381  0.0682
 4027W        W 4891  27.489   1.285  25.716  0.0428  0.1035 -0.1063
 4028W        W 4892  28.049  26.398  25.343  0.1841 -0.0831  0.1237
 4029W        W 4893  28.754  26.137  22.373 -0.0418  0.0846 -0.0090
 4030W        W 4894   0.602  27.096  24.523  0.3034  0.1655 -0.2334
 4031W        W 4895  26.858  28.675  26.071 -0.0025  0.1865 -0.0217
 4032W        W 4896  25.425  26.713  24.827  0.2548  0.1337 -0.0116
 4033W        W 4897  24.817  28.144  23.704  0.1458 -0.2824  0.1921
 4034W        W 4898   0.631  27.277  25.430 -0.1505  0.2589  0.0668
 4035W        W 4899  23.106  28.382  21.486  0.2503  0.0677  0.0921
 4036W        W 4900  28.433  27.741  26.606 -0.1376 -0.1720 -0.3492
 4037W        W 4901   2.851   0.910  24.444  0.1638  0.2404  0.2378
 4038W        W 4902   0.507  24.339  23.965  0.1569 -0.0776 -0.2491
 4039W        W 4903   0.256  25.120  20.100  0.1240 -0.2050  0.0465
 4040W        W 4904  28.468  25.104  25.666  0.1073 -0.1829  0.5276
 4041W        W 4905  27.409   1.834  25.716 -0.0855 -0.1933 -0.1678
 4042W        W 4906  28.291  28.137  22.989 -0.2326  0.1421  0.3681
 4043W        W 4907  27.670  28.229  22.447 -0.3457  0.2078  0.2048
 4044W        W 4908  28.043   1.610  21.958 -0.0263  0.1054  0.0468
 4045W        W 4909  27.399  23.972  26.361  0.1260 -0.1160 -0.1157
 4046W        W 4910   0.891  26.872  25.421  0.1568  0.1427 -0.3607
 4047W        W 4911  24.778  26.747  23.482  0.2723 -0.1892 -0.0992
 4048W        W 4912  28.026  27.593  21.747  0.3646 -0.0032 -0.0702
 4049W        W 4913  28.796  25.416  26.064 -0.0114 -0.2719  0.1434
 4050W        W 4914  27.325  27.700  22.595 -0.1415  0.1605  0.2156
 4051W        W 4915  27.709  29.080  24.599 -0.0431  0.0042 -0.0880
 4052W        W 4916   0.394  28.037  25.075  0.0011 -0.0768 -0.0174
 4053W        W 4917  28.453  25.748  22.223 -0.2903  0.0871 -0.0374
 4054W        W 4918  26.767  28.854  24.464  0.1910  0.1322 -0.1544
 4055W        W 4919  25.336  26.009  20.689 -0.2462 -0.1380  0.0015
 4056W        W 4920  29.049  27.664  24.072 -0.1152 -0.1352  0.3506
 4057W        W 4921  25.499  28.493  24.738  0.3441 -0.0744  0.0126
 4058W        W 4922  27.541   1.162  22.624  0.0202  0.1763 -0.2233
 4059W        W 4923  28.593  28.507  24.661  0.0128 -0.3277 -0.2102
 4060W        W 4924  26.711   1.878  23.249  0.1492  0.1121  0.1462
 4061W        W 4925  26.209  25.300  24.483  0.2019  0.1936  0.0230
 4062W        W 4926  28.054  27.030  23.301  0.1445 -0.0587 -0.1263
 4063W        W 4927  26.867  28.337  22.086  0.1997 -0.0045  0.0470
 4064W        W 4928   0.230  26.275  24.708 -0.2109 -0.1571 -0.2124
 4065W        W 4929  26.604  27.364  19.969  0.0240  0.3219  0.3188
 4066W        W 4930  26.310   0.928  22.925 -0.1630 -0.1012  0.3659
 4067W        W 4931  26.355   0.658  24.519 -0.0670 -0.1751 -0.0504
 4068W        W 4932  26.617  26.687  24.032  0.0069  0.0799  0.0656
 4069W        W 4933   1.368  28.957  27.813 -0.3233  0.2968 -0.1027
 4070W        W 4934  26.936  27.455  24.660 -0.2470 -0.0599 -0.2606
 4071W        W 4935  26.798  27.468  21.757 -0.0846 -0.0133 -0.3475
 4072W        W 4936  28.336  28.200  27.137 -0.1877  0.2104 -0.0267
 4073W        W 4937   0.517  25.621  23.431 -0.1901 -0.0365  0.0751
 4074W        W 4938   1.582  28.769  25.231 -0.0797 -0.1033  0.0989
 4075W        W 4939  26.109  28.632  21.399 -0.1221  0.1078  0.0857
 4076W        W 4940  27.086  28.241  25.302 -0.0882  0.0000  0.0246
 4077W        W 4941  27.866  26.451  24.753  0.3245 -0.2477  0.2252
 4078W        W 4942  27.158  26.999  22.012 -0.0008 -0.1064 -0.3074
 4079W        W 4943  23.488  25.312  26.322 -0.0230 -0.1099 -0.0778
 4080W        W 4944  25.781  26.459  24.552  0.0554 -0.2338  0.0286
 4081W        W 4945  27.243  24.869  24.060  0.1391  0.0547  0.1197
 4082W        W 4946  27.779  24.687  25.262 -0.1436 -0.0323  0.1315
 4083W        W 4947  28.739  27.476  25.506 -0.2489 -0.0749  0.0098
 4084W        W 4948  28.102  26.237  23.928  0.0841  0.0664 -0.0277
 4085W        W 4949   1.592   1.487  27.637  0.0013  0.0458  0.0066
 4086W        W 4950  27.428  22.217  23.822 -0.0179 -0.1340  0.0536
 4087W        W 4951   1.244  24.661  24.444  0.0439 -0.0675  0.0733
 4088W        W 4952  28.410  24.760  26.770  0.1282 -0.0519 -0.2009
 4089W        W 4953   0.621  26.394  25.809 -0.1681  0.0326  0.1259
 4090W        W 4954   0.962  26.390  25.238  0.0465  0.0240 -0.1337
 4091W        W 4955  28.289   0.573  22.177 -0.2907  0.4759 -0.1089
 4092W        W 4956  26.427  27.198  22.750  0.0528 -0.1370 -0.1400
 4093W        W 4957  27.995  27.961  27.503 -0.1272  0.0751 -0.1934
 4094W        W 4958  28.134  26.361  25.816 -0.0003  0.1638 -0.0230
 4095W        W 4959  29.117  27.436  23.179 -0.0040  0.1760  0.2572
 4096W        W 4960  28.782   2.433  26.540 -0.1438 -0.1046  0.0013
 4097W        W 4961  25.066  25.325  24.045 -0.0444  0.3001 -0.1354
 4098W        W 4962  28.626  22.712  23.958 -0.0634 -0.3741 -0.1229
 4099W        W 4963  28.546  27.778  20.880 -0.1951 -0.2348  0.0617
 4100W        W 4964  24.250  27.435  24.465  0.0990  0.2019 -0.2389
 4101W        W 4965  27.628  26.670  21.813  0.2054 -0.2348 -0.0341
 4102W        W 4966   0.006   1.515  25.263  0.0528 -0.0902 -0.2820
 4103W        W 4967  28.916  24.296  23.090 -0.0857  0.5434 -0.0148
 4104W        W 4968  28.322  28.867  24.360 -0.2311  0.2658  0.1604
 4105W        W 4969  27.061  26.795  23.773 -0.1936 -0.1161  0.0171
 4106W        W 4970   0.092  28.995  24.458  0.3055  0.1128 -0.0119
 4107W        W 4971  27.357  25.544  23.638 -0.0903 -0.2426  0.4297
 4108W        W 4972  26.727  26.479  24.572 -0.0937 -0.3374  0.1683
 4109W        W 4973  26.466  27.199  24.702  0.0573 -0.0816  0.0589
 4110W        W 4974   0.590  28.543  21.135  0.0413  0.3183  0.2536
 4111W        W 4975  28.979  25.094  25.615  0.0264  0.2015 -0.0449
 4112W        W 4976  27.558   0.483  25.565 -0.2394 -0.2245 -0.0409
 4113W        W 4977   1.460  27.716  23.397  0.2372  0.1830  0.1762
 4114W        W 4978  26.087  27.546  22.930  0.1085 -0.0959 -0.0969
 4115W        W 4979   1.381  26.162  23.279  0.0994 -0.0971  0.1219
 4116W        W 4980  26.898  28.145  27.125 -0.0620  0.1000 -0.2482
 4117W        W 4981  28.949  25.924  26.831  0.0993 -0.1785 -0.3584
 4118W        W 4982  27.554  28.863  23.413 -0.1212 -0.3266 -0.4087
 4119W        W 4983   0.657  25.616  24.066 -0.3606 -0.1580  0.1801
 4120W        W 4984  26.966   1.248  24.063  0.3220 -0.0557 -0.1763
 4121W        W 4985  27.555   1.451  23.480 -0.0985 -0.0432 -0.4989
 4122W        W 4986  24.926  27.644  23.722 -0.4612  0.1576 -0.1574
 4123W        W 4987  25.689  26.321  27.783 -0.1674  0.1118 -0.3435
 4124W        W 4988   1.138  26.187  23.711 -0.1618  0.1496  0.1572
 4125W        W 4989  27.058  26.446  24.129  0.0808 -0.0945 -0.1275
 4126W        W 4990   0.692   0.922  25.112 -0.1899 -0.0858 -0.0548
 4127W        W 4991   1.962   1.485  25.739  0.0283  0.2871  0.1667
 4128W        W 4992  26.223  26.343  23.666  0.0593  0.2329 -0.2565
 4129W        W 4993  28.924   1.116  25.022 -0.1487 -0.1742 -0.2184
 4130W        W 4994  27.724  26.109  23.613 -0.0539  0.0510 -0.1599
 4131W        W 4995  26.196  28.641  23.812  0.0200  0.1682  0.0703
 4132W        W 4996   0.663  24.655  23.504 -0.0916  0.1536  0.2743
 4133W        W 4997   1.255  28.525  23.980  0.0236  0.1772 -0.2043
 4134W        W 4998  26.994  25.825  25.615  0.2140  0.2716 -0.2187
 4135W        W 4999  28.614  24.560  25.900  0.1446  0.0532  0.1001
 4136W        W 5000  28.557   1.677  24.956 -0.5849  0.1307 -0.2364
 4137W        W 5001  28.575   0.139  23.690  0.1324 -0.1792  0.0305
 4138W        W 5002  28.397  27.417  22.604 -0.2338  0.5878 -0.1708
 4139W        W 5003  24.561  25.596  21.595  0.0450  0.1324 -0.0608
 4140W        W 5004  29.020  23.042  25.182 -0.1901 -0.1466  0.0702
 4141W        W 5005  26.389   0.135  19.893 -0.0063  0.0115  0.4186
 4142W        W 5006  27.746  25.140  22.374  0.0545  0.2409 -0.0253
 4143W        W 5007  26.948  27.975  26.673  0.0325  0.2305 -0.1084
 4144W        W 5008  27.322  23.798  23.959 -0.0495 -0.1297  0.2035
 4145W        W 5009  27.245  27.356  24.235  0.0328  0.0737 -0.0954
 4146W        W 5010  28.459   0.326  24.641  0.1993  0.0041 -0.0676
 4147W        W 5011  28.532   1.122  25.753  0.2467 -0.3491 -0.0023
 4148W        W 5012   1.854  26.268  25.534 -0.2172  0.2058  0.0199
 4149W        W 5013   1.330  28.237  24.443  0.1811 -0.0075 -0.1876
 4150W        W 5014  28.609  26.051  24.642  0.0729 -0.2571  0.0742
 4151W        W 5015  26.882  27.493  22.593 -0.4289  0.0695 -0.3363
 4152W        W 5016  27.972  28.026  22.046  0.0896 -0.1311  0.0700
 4153W        W 5017  24.187  27.404  27.587 -0.2361  0.0364 -0.0291
 4154W        W 5018  28.147  27.239  24.102  0.1436 -0.0074 -0.1603
 4155W        W 5019  26.399  27.686  23.931  0.0787  0.0147 -0.1090
 4156W        W 5020  26.902  28.047  22.504 -0.0413  0.2411 -0.3390
 4157W        W 5021  24.861  28.136  22.785  0.0361 -0.3588 -0.1536
 4158W        W 5022  28.317  27.402  24.589  0.0039  0.2872  0.0760
 4159W        W 5023  27.789  25.831  25.260  0.2646 -0.0064  0.0791
 4160W        W 5024  26.725  26.758  25.402  0.0104 -0.0564  0.3539
 4161W        W 5025  28.199   0.790  24.790  0.0004 -0.3266  0.3055
 4162W        W 5026  29.132  26.781  25.875  0.1027 -0.0809 -0.0395
 4163W        W 5027  28.576  24.714  25.369 -0.3500  0.0660 -0.1051
 4164W        W 5028  24.235  24.216  24.927  0.0645  0.2521 -0.2441
 4165W        W 5029  26.781  26.175  23.382  0.3457 -0.1341 -0.1979
 4166W        W 5030  25.874  29.102  23.078 -0.0759  0.0835  0.1001
 4167W        W 5031  28.697   2.402  25.553 -0.3405  0.0393 -0.3518
 4168W        W 5032  26.490  25.800  23.521 -0.2194  0.3907 -0.0399
 4169W        W 5033  28.341  25.518  23.674  0.1644  0.1285  0.1486
 4170W        W 5034  27.685  26.545  23.415  0.0043 -0.0131  0.0691
 4171W        W 5035  27.404  27.148  25.922  0.2492 -0.0070  0.0578
 4172W        W 5036   0.483  26.333  22.818 -0.1468  0.0027 -0.1171
 4173W        W 5037  27.499  27.832  25.139 -0.4134 -0.1409  0.1537
 4174W        W 5038  27.164  26.070  24.521 -0.0011 -0.0916 -0.4715
 4175W        W 5039  27.529  25.697  24.303 -0.1813  0.1168 -0.0828
 4176W        W 5040  26.232  25.290  22.770  0.3225 -0.3994  0.2091
 4177W        W 5041  26.127   1.073  23.384 -0.2009 -0.0710 -0.0225
 4178W        W 5042   1.579  26.610  24.744  0.3140  0.1769  0.2946
 4179W        W 5043  26.648  26.664  23.503 -0.1856  0.3976 -0.4675
 4180W        W 5044  28.460   1.233  23.664 -0.1112  0.3486  0.0881
 4181W        W 5045  27.847  27.618  24.476 -0.2991  0.2230 -0.1887
 4182W        W 5046  25.776  27.583  23.431  0.2610 -0.0123  0.1275
 4183W        W 5047  27.236  28.440  22.366 -0.3460 -0.1041 -0.0772
 4184W        W 5048  28.494  28.776  25.160 -0.1052  0.2249 -0.0563
 4185W        W 5049  28.426  26.202  23.078 -0.6138  0.2887 -0.2808
 4186W        W 5050  23.419  27.471  22.194 -0.0946  0.1511 -0.0791
 4187W        W 5051  28.486  28.106  25.629  0.3742 -0.0821  0.0989
 4188W        W 5052  28.700  26.657  23.257  0.0793  0.1476 -0.1921
 4189W        W 5053  28.910  29.004  22.294  0.2461  0.1181 -0.0364
 4190W        W 5054  26.810  27.771  23.465 -0.2873 -0.0768  0.1589
 4191W        W 5055  27.157  26.276  24.995  0.0162 -0.2220  0.3624
 4192W        W 5056  28.099  26.464  26.356  0.0019 -0.2698  0.0110
 4193W        W 5057  27.956  28.732  25.933  0.0265 -0.0990 -0.1170
 4194W        W 5058  28.767  25.935  22.845  0.1245 -0.1901  0.2694
 4195W        W 5059  27.816  25.379  26.245  0.2117 -0.0040  0.0324
 4196W        W 5060  27.849  25.759  28.502 -0.1621 -0.0407  0.3170
 4197W        W 5061  24.478  26.917  22.856 -0.0066  0.0664 -0.0183
 4198W        W 5062  28.084  26.064  24.466 -0.1282  0.1657 -0.2905
 4199W        W 5063  24.120  26.221  19.462  0.0903  0.0705  0.0318
 4200W        W 5064   0.385  27.778  23.252  0.1784 -0.2002  0.1870
 4201W        W 5065   0.443  25.719  19.955  0.0068  0.0984 -0.0095
 4202W        W 5066  24.181  25.619  25.920 -0.0030 -0.1366  0.4090
 4203W        W 5067   1.001  28.116  26.167  0.0582 -0.2565 -0.1047
 4204W        W 5068  25.906  26.845  21.818 -0.0645 -0.2703  0.0042
 4205W        W 5069  26.328  26.727  24.497  0.0525  0.0578  0.1914
 4206W        W 5070   1.686  28.287  24.046  0.1980  0.2000 -0.0944
 4207W        W 5071   0.453  27.790  24.100  0.2055 -0.0421  0.3026
 4208W        W 5072  26.241  26.980  20.927  0.2012  0.1208  0.0638
 4209W        W 5073  28.755  29.045  24.583 -0.0503  0.0482  0.0740
 4210W        W 5074  25.409  28.309  25.791 -0.0277 -0.0987  0.2249
 4211W        W 5075  26.396  25.326  25.129 -0.1341 -0.1234  0.1759
 4212W        W 5076  28.092  25.811  22.986 -0.0219 -0.1158  0.4324
 4213W        W 5077   0.085  27.401  23.663  0.1844  0.1018 -0.1268
 4214W        W 5078   0.136  26.305  23.188  0.1647 -0.0197  0.0619
 4215W        W 5079  28.415  27.711  25.268 -0.0509  0.2150  0.0936
 4216W        W 5080  26.657   0.029  21.968 -0.3166 -0.0992  0.0918
 4217W        W 5081   0.790  27.367  27.619  0.3319  0.1604  0.0311
 4218W        W 5082  26.435   0.011  25.298  0.1448 -0.3008  0.3361
 4219W        W 5083   0.998  26.700  25.955 -0.0682 -0.2302  0.1628
 4220W        W 5084  27.053   1.549  24.998  0.1807  0.1443  0.0487
 4221W        W 5085  27.456   0.867  25.337 -0.2510 -0.0713  0.2014
 4222W        W 5086  26.131  26.811  23.667 -0.2585 -0.1113 -0.0524
 4223W        W 5087  28.096   1.811  24.075 -0.0015  0.0055  0.4104
 4224W        W 5088  24.815  25.660  25.038  0.0861 -0.0114  0.0421
 4225W        W 5089  27.420  28.830  25.155  0.0624  0.2480  0.0275
 4226W        W 5090   0.420  25.207  25.940  0.0886 -0.0645  0.0947
 4227W        W 5091  28.303   1.165  24.465 -0.3605 -0.0337 -0.1597
 4228W        W 5092   1.216  26.849  26.807  0.1252  0.0898  0.2822
 4229W        W 5093  24.056  26.280  25.187 -0.2889 -0.2069 -0.0320
 4230W        W 5094   0.539  24.867  25.126 -0.2651  0.2073  0.1468
 4231W        W 5095  26.623  28.659  21.206 -0.2471 -0.0175  0.3150
 4232W        W 5096   1.054  25.793  23.426 -0.1114  0.0915 -0.2745
 4233W        W 5097  27.439  27.226  24.673  0.1534 -0.0206 -0.0952
 4234W        W 5098  27.949  26.315  22.077  0.2745 -0.0645 -0.2373
 4235W        W 5099  28.815  26.169  23.411 -0.0159  0.1450 -0.0301
 4236W        W 5100  25.691  23.880  25.987 -0.0906  0.0086  0.2715
 4237W        W 5101  28.529   0.663  23.781 -0.1788 -0.0658 -0.2418
 4238W        W 5102   1.471   1.097  25.782 -0.3716 -0.0477 -0.0115
 4239W        W 5103  27.962   0.272  24.888 -0.0399 -0.0802 -0.1318
 4240W        W 5104  26.832  28.706  25.210  0.2639  0.2250  0.1473
 4241W        W 5105  28.186  25.330  23.246 -0.1230 -0.0199  0.0658
 4242W        W 5106  25.172  26.197  23.821 -0.2643 -0.2269  0.0201
 4243W        W 5107   2.381  28.079  26.255 -0.3182  0.1141  0.0446
 4244W        W 5108   0.388  26.773  23.658 -0.2163  0.2041 -0.0350
 4245W        W 5109   0.718   1.737  25.779 -0.1006 -0.3192 -0.2049
 4246W        W 5110  27.843  26.754  26.056 -0.1597 -0.1436 -0.0669
 4247W        W 5111  27.960  28.505  23.408  0.0964  0.0334  0.2385
 4248W        W 5112  27.693  25.161  23.211  0.0484  0.2607  0.3137
 4249W        W 5113  26.562   0.409  22.925 -0.2507 -0.0338  0.2250
 4250W        W 5114  29.053   2.881  25.979 -0.0981  0.0885 -0.1508
 4251W        W 5115   0.734  28.778  25.046  0.1614 -0.1026  0.1107
 4252W        W 5116  28.206  25.987  24.936 -0.1080 -0.1127 -0.2397
 4253W        W 5117  26.576  27.215  23.761  0.0963 -0.3063 -0.4091
 4254W        W 5118   1.555   1.592  23.381  0.2453  0.2263 -0.1515
 4255W        W 5119  27.484  24.532  23.338  0.1112  0.0603 -0.3705
 4256W        W 5120  26.262  25.793  24.972  0.0058  0.0276 -0.1625
 4257W        W 5121  27.264  26.542  22.124  0.0999  0.1674  0.1920
 4258W        W 5122   0.560  26.739  20.930  0.1958 -0.0858 -0.1022
 4259W        W 5123  28.240  28.076  24.368 -0.2736  0.2403 -0.2718
 4260W        W 5124  27.745  26.724  26.607  0.1840 -0.0456  0.2303
 4261W        W 5125  26.111   1.532  25.625 -0.1426 -0.0525  0.0757
 4262W        W 5126  26.695  24.788  24.133  0.0264  0.0076  0.0574
 4263W        W 5127  28.224  28.213  23.856  0.2950  0.1023 -0.3462
 4264W        W 5128  24.733  28.777  25.326 -0.1884  0.3131 -0.0137
 4265W        W 5129  26.975  27.948  21.751 -0.2302  0.0872 -0.3591
 4266W        W 5130   0.686   0.880  24.629  0.2706 -0.1230  0.0806
 4267W        W 5131  25.443  24.556  26.511  0.0559  0.0199 -0.2386
 4268W        W 5132  27.954  26.831  23.828 -0.1233  0.3454 -0.1299
 4269W        W 5133  25.363  25.395  21.498  0.0432  0.3899 -0.3389
 4270W        W 5134   0.913  27.365  26.350 -0.0058 -0.1636  0.1189
 4271W        W 5135   0.126  27.842  25.961 -0.0465  0.3386 -0.2422
 4272W        W 5136   0.234  28.218  25.506  0.0481 -0.4436  0.1996
 4273W        W 5137  27.397   2.383  25.556 -0.1722 -0.1017 -0.1755
 4274W        W 5138   1.171  28.360  27.173  0.1408 -0.2058  0.0207
 4275W        W 5139  23.711  25.802  26.405 -0.1416 -0.2528  0.1453
 4276W        W 5140  26.165  27.064  25.134  0.1292 -0.0594 -0.1732
 4277W        W 5141  25.984  27.394  22.358  0.0181 -0.2560  0.1156
 4278W        W 5142  26.911  25.726  23.793 -0.0099 -0.1127 -0.2803
 4279W        W 5143  26.610  28.194  25.031 -0.2121 -0.3393  0.1008
 4280W        W 5144  26.773  25.047  22.445 -0.1781  0.0552 -0.2496
 4281W        W 5145  23.891  25.723  19.336  0.0370 -0.0788 -0.0340
 4282W        W 5146  28.881  28.956  25.920 -0.4387 -0.1753  0.2943
 4283W        W 5147   0.338  28.609  23.672 -0.1874 -0.4529 -0.5627
 4284W        W 5148   2.900  24.480  23.799 -0.0172  0.2239 -0.0401
 4285W        W 5149  27.809  28.112  22.992  0.4546 -0.0838  0.2614
 4286W        W 5150  25.800  28.334  27.875  0.2162 -0.1496 -0.3906
 4287W        W 5151   0.496  28.268  20.607 -0.1765  0.2404  0.3396
 4288W        W 5152   1.947  26.638  25.879  0.1232 -0.0954 -0.3681
 4289W        W 5153  28.635  26.495  23.753 -0.1139  0.0998  0.0599
 4290W        W 5154  27.958  24.731  23.462 -0.2066  0.1812 -0.0164
 4291W        W 5155  28.643  25.253  25.095  0.2226 -0.1839 -0.1088
 4292W        W 5156  27.084  29.009  24.035  0.0452 -0.0970  0.1004
 4293W        W 5157  25.695  26.528  23.713 -0.3188 -0.0213 -0.0633
 4294W        W 5158  25.340  27.235  24.091 -0.1806  0.3929  0.3151
 4295W        W 5159  28.812  28.028  24.387 -0.0471  0.1191  0.0099
 4296W        W 5160   1.782   0.603  25.824  0.5669 -0.3125 -0.0530
 4297W        W 5161  26.682  26.185  23.912 -0.1279 -0.1521 -0.1406
 4298W        W 5162  25.862   1.969  23.437 -0.0952 -0.0039 -0.3249
 4299W        W 5163  27.598  26.524  22.474 -0.1103 -0.1165 -0.0495
 4300W        W 5164  27.793  21.713  25.408 -0.2017  0.1336 -0.1106
 4301W        W 5165  27.216   4.692  25.988  0.3969  0.2422 -0.0284
 4302W        W 5166   0.358   0.346  24.342 -0.1518  0.1535 -0.1035
 4303W        W 5167   1.559  28.936  23.225 -0.1607  0.2263 -0.2201
 4304W        W 5168  27.248  28.862  24.688 -0.0459  0.0683 -0.3082
 4305W        W 5169   1.275  27.051  26.307 -0.0686  0.3368  0.1933
 4306W        W 5170  25.609  27.372  24.513 -0.1634  0.3535  0.1206
 4307W        W 5171  29.145  25.870  25.482 -0.0200  0.1472 -0.1972
 4308W        W 5172  28.501  26.553  27.111 -0.0569 -0.1391 -0.4030
 4309W        W 5173  26.843  25.718  25.165  0.0759 -0.0852  0.2425
 4310W        W 5174  26.262  27.095  24.203 -0.0582 -0.1428  0.1645
 4311W        W 5175  27.292  25.654  22.932 -0.0994  0.1319  0.1047
 4312W        W 5176   1.372   0.647  25.523  0.1262  0.1092 -0.1659
 4313W        W 5177  28.962  26.521  25.524  0.2078 -0.0890 -0.2086
 4314W        W 5178  26.905  27.154  26.009 -0.0056 -0.1288  0.0826
 4315W        W 5179  26.327  26.177  23.179  0.2785 -0.1413 -0.2798
 4316W        W 5180  25.340  26.844  22.714  0.1514  0.1246  0.2244
 4317W        W 5181  27.114   0.646  23.174  0.2703 -0.0572 -0.1870
 4318W        W 5182   0.281  29.124  25.034 -0.1857 -0.3325 -0.0271
 4319W        W 5183  25.292  27.812  25.673  0.2855  0.0943  0.2927
 4320W        W 5184  28.622  28.937  21.406  0.0061  0.1982 -0.0833
 4321W        W 5185  25.786  28.011  24.693 -0.1910 -0.1644 -0.0828
 4322W        W 5186  28.763  28.039  21.263  0.2500  0.0195  0.1378
 4323W        W 5187  27.664  25.963  22.761 -0.5139 -0.2560  0.2780
 4324W        W 5188  28.018  28.199  26.016 -0.0004  0.1841 -0.3370
 4325W        W 5189  25.280  26.492  23.430  0.0710 -0.0239  0.3064
 4326W        W 5190  27.149  26.970  23.319  0.1462 -0.0363 -0.1741
 4327W        W 5191  27.472  26.339  23.034  0.0371 -0.1571  0.1117
 4328W        W 5192  27.389  26.388  20.211 -0.1810  0.2525 -0.3322
 4329W        W 5193  27.244  26.095  25.973  0.3387  0.1873  0.1722
 4330W        W 5194  28.160  25.510  24.882 -0.2737 -0.0986 -0.3084
 4331W        W 5195   1.169  28.710  26.827  0.1794  0.2480 -0.0506
 4332W        W 5196   0.585  28.275  25.943  0.2182 -0.0708 -0.0042
 4333W        W 5197   0.682   1.393  25.416  0.0147  0.1223 -0.2330
 4334W        W 5198   1.465  28.656  24.630 -0.2767 -0.1923  0.1001
 4335W        W 5199  26.262   1.187  21.726  0.0168  0.0278  0.1381
 4336W        W 5200  27.953  26.553  24.256  0.1272  0.0867 -0.2073
 4337W        W 5201  28.010  26.838  25.530  0.3582 -0.1542  0.1512
 4338W        W 5202  28.043  27.281  24.969 -0.0352 -0.2276  0.0087
 4339W        W 5203  28.948  29.058  25.433 -0.3878 -0.1845  0.0094
 4340W        W 5204   0.894  27.271  25.001 -0.1992  0.5395 -0.1702
 4341W        W 5205  27.213  26.314  25.511 -0.3816 -0.2352 -0.0866
 4342W        W 5206  26.330   1.535  22.140  0.0300 -0.0044 -0.3304
 4343W        W 5207  25.257   1.928  28.518 -0.0411 -0.1690 -0.0046
 4344W        W 5208  24.550   0.015  22.150  0.2172 -0.2174  0.0748
 4345W        W 5209  25.556  25.078  24.949 -0.1325 -0.3883  0.1046
 4346W        W 5210  28.288   0.425  23.359  0.1080  0.0049  0.0614
 4347W        W 5211  22.000  26.554  21.312  0.1050 -0.0408  0.3583
 4348W        W 5212   2.372  28.893  26.459  0.0673  0.3391  0.4231
 4349W        W 5213  27.586  28.590  20.785 -0.2199 -0.2900 -0.0614
 4350W        W 5214   0.104  28.156  24.106 -0.0979 -0.1698  0.1040
 4351W        W 5215   0.049  26.868  23.274  0.0675 -0.0304  0.0523
 4352W        W 5216  26.662  27.758  22.133  0.0580 -0.0014 -0.1279
 4353W        W 5217  28.394  26.487  20.193 -0.2347  0.0365 -0.0853
 4354W        W 5218  27.000  27.924  24.877  0.1339  0.2903  0.1339
 4355W        W 5219  27.161  25.206  27.791 -0.0340 -0.1167  0.1799
 4356W        W 5220   0.066  25.541  25.877 -0.1944  0.3296 -0.1861
 4357W        W 5221  25.333  28.162  22.946  0.0113 -0.0509 -0.0026
 4358W        W 5222  28.873  25.155  26.523  0.1380 -0.0036  0.0461
 4359W        W 5223  27.424  25.789  26.917 -0.2739  0.0319  0.2996
 4360W        W 5224  26.101  28.510  23.217 -0.1940 -0.1690  0.2670
 4361W        W 5225  25.296  26.778  23.867  0.0925  0.1925 -0.2928
 4362W        W 5226  27.247   0.436  24.248  0.0016 -0.2645  0.0225
 4363W        W 5227   0.682   1.092  23.388 -0.1381  0.2842 -0.1679
 4364W        W 5228  29.035  26.839  23.801 -0.2067 -0.2549 -0.0381
 4365W        W 5229  27.318   0.255  24.728  0.0439 -0.3498  0.3228
 4366W        W 5230  27.930  24.942  24.815 -0.2515 -0.2440  0.0472
 4367W        W 5231  26.927  25.639  23.299 -0.1287  0.0525 -0.0762
 4368W        W 5232  26.027  25.362  22.154 -0.0599  0.1491 -0.0691
 4369W        W 5233  25.978  26.640  24.113  0.0545 -0.0349  0.1197
 4370W        W 5234  24.419  26.535  20.315  0.1087  0.0882 -0.0715
 4371W        W 5235  28.285  27.420  23.624 -0.3281  0.0242 -0.1006
 4372W        W 5236  28.073  26.759  22.375 -0.0509 -0.2032  0.0135
 4373W        W 5237  26.238  26.710  25.512  0.2921  0.1610  0.1642
 4374W        W 5238  27.248  26.736  25.294 -0.1631 -0.1485 -0.1911
 4375W        W 5239   0.170   1.964  25.061  0.2028 -0.1920  0.1226
 4376W        W 5240  27.341  27.556  25.508  0.3789  0.0180 -0.0143
 4377W        W 5241  27.045  27.697  25.955  0.0555  0.2663  0.0833
 4378W        W 5242   1.195  28.171  26.676  0.1174 -0.0427  0.1185
 4379W        W 5243  27.314   0.197  21.890 -0.0361 -0.2228  0.1877
 4380W        W 5244  26.788  23.924  25.129 -0.0831  0.0941 -0.0076
 4381W        W 5245  28.535  26.336  25.081  0.1313 -0.0449 -0.2615
 4382W        W 5246   3.038   2.066  24.150  0.3590  0.2333 -0.3491
 4383W        W 5247   0.968  26.783  24.892  0.2492  0.1310  0.0022
 4384W        W 5248  28.036   1.215  24.067 -0.5519 -0.0186  0.2020
 4385W        W 5249   1.772  27.709  24.868 -0.0267  0.1220  0.0064
 4386W        W 5250  28.384   0.846  25.369  0.0652 -0.2872 -0.0957
 4387W        W 5251  29.112  27.908  23.518 -0.2178  0.0939 -0.1563
 4388W        W 5252  28.649   0.636  24.991 -0.1657  0.1781  0.0110
 4389W        W 5253  28.115  26.960  24.599  0.1338  0.2423  0.0421
 4390W        W 5254   2.443  28.721  23.526 -0.0066 -0.0817  0.0223
 4391W        W 5255  28.960   0.762  25.948 -0.0973 -0.0425  0.1524
 4392W        W 5256  27.025  27.270  23.706 -0.0336 -0.0702  0.0167
 4393W        W 5257  27.200  26.234  27.058  0.0776 -0.2320 -0.3146
 4394W        W 5258  26.972  28.505  24.133  0.3650  0.1389 -0.1906
 4395W        W 5259  29.049   0.325  24.586  0.0391 -0.0448  0.3124
 4396W        W 5260  27.040  26.043  22.940  0.2081 -0.0933  0.1205
 4397W        W 5261  26.740  26.073  22.489 -0.0087 -0.4083 -0.0041
 4398W        W 5262  27.010   1.071   1.397 -0.2146 -0.0802 -0.2213
 4399W        W 5263  26.791   0.597  28.041 -0.0698  0.0811 -0.0871
 4400W        W 5264  28.948   1.762  27.056 -0.1724 -0.0356  0.1418
 4401W        W 5265  28.529  28.147  26.250  0.0729  0.1160  0.1539
 4402W        W 5266  27.239  27.424  26.314  0.0773 -0.1449  0.0356
 4403W        W 5267  26.523  27.922  27.416  0.1744 -0.0026 -0.1440
 4404W        W 5268  25.997  25.871  25.459  0.0460  0.2622  0.2279
 4405W        W 5269  25.245  26.074  27.523  0.0495  0.3094  0.0202
 4406W        W 5270  27.013  28.214   1.699 -0.0051 -0.0918  0.3066
 4407W        W 5271  25.172  23.072   1.038 -0.0184 -0.0015  0.0186
 4408W        W 5272  25.304  25.347  27.532  0.2712  0.1768  0.2967
 4409W        W 5273  26.823  24.897  28.173 -0.1790 -0.1856 -0.1869
 4410W        W 5274  27.088  28.505  28.577 -0.1608  0.1216  0.2571
 4411W        W 5275  28.667  29.081   2.366  0.0747  0.6043  0.2667
 4412W        W 5276  25.913  25.168  29.024  0.0183 -0.3426 -0.3845
 4413W        W 5277  24.277  28.230  28.239 -0.3312 -0.0457 -0.1158
 4414W        W 5278   0.009   0.400  25.548  0.0594  0.1945 -0.2502
 4415W        W 5279  24.796  25.739   2.620  0.2473  0.2671 -0.4095
 4416W        W 5280  27.217  26.981   0.293 -0.0628 -0.0063 -0.0587
 4417W        W 5281   1.259  27.445  27.747 -0.1441 -0.1769 -0.4018
 4418W        W 5282   0.290  27.726  28.043  0.1736 -0.2054  0.0443
 4419W        W 5283  27.121  26.126  27.537  0.1211 -0.1535 -0.3683
 4420W        W 5284  28.360  28.360  28.826  0.0736  0.0689 -0.2512
 4421W        W 5285  27.640  28.768   0.378  0.1192  0.0022  0.0545
 4422W        W 5286  24.924  26.613   0.250  0.1660  0.0765  0.0410
 4423W        W 5287  26.411  28.179   1.007 -0.1549  0.2605  0.1607
 4424W        W 5288   1.364  27.465  27.222  0.0881 -0.0420 -0.1841
 4425W        W 5289  26.695  26.327  29.045  0.0171 -0.3453 -0.3758
 4426W        W 5290  27.467  28.309   0.193  0.1990  0.1487 -0.2747
 4427W        W 5291  28.138  28.477  25.408 -0.0511 -0.4886  0.2096
 4428W        W 5292  26.612  25.893  26.733  0.0395 -0.0211  0.2787
 4429W        W 5293   0.761   0.081  28.447 -0.0605  0.0618 -0.0374
 4430W        W 5294  24.524  26.697   1.200 -0.3724  0.2723  0.1066
 4431W        W 5295  27.461  28.766  28.198 -0.0657  0.0079  0.1613
 4432W        W 5296  24.003  26.300   0.536 -0.0567 -0.0076  0.0300
 4433W        W 5297  26.845   0.863   0.532 -0.0728 -0.0163 -0.0024
 4434W        W 5298  26.681  27.349  28.722 -0.0595  0.0811 -0.3798
 4435W        W 5299  27.062   0.755  28.456  0.1387  0.1437 -0.0737
 4436W        W 5300  27.855  27.086  28.167  0.1826 -0.1141  0.1235
 4437W        W 5301  28.148  27.747  25.819 -0.1522 -0.0049  0.2986
 4438W        W 5302  27.433  27.089  26.718  0.0269  0.1362 -0.1385
 4439W        W 5303  28.809  26.413   0.164 -0.0193  0.0099  0.1723
 4440W        W 5304  25.873   0.504  27.742 -0.0342 -0.0620  0.2144
 4441W        W 5305   1.472  28.023  25.907 -0.2286  0.2569  0.1458
 4442W        W 5306  25.978  29.006  25.456  0.0064 -0.1227  0.1029
 4443W        W 5307  26.326   2.214  29.006 -0.1268  0.3586  0.0747
 4444W        W 5308  26.236  26.910   0.482  0.2762 -0.2723 -0.1621
 4445W        W 5309  27.732  28.708  26.849  0.0936  0.0186  0.1813
 4446W        W 5310   0.258  28.165  27.858  0.2255 -0.3296 -0.4386
 4447W        W 5311  28.270  26.797  25.032  0.1597 -0.1441  0.1689
 4448W        W 5312  28.906  27.724  26.797  0.1074 -0.0155 -0.0066
 4449W        W 5313  28.082  25.130  27.724 -0.1227  0.1601 -0.1893
 4450W        W 5314  28.030   0.076  27.593 -0.3902  0.1717  0.0385
 4451W        W 5315   0.772  25.544  26.898 -0.0573  0.2990 -0.0337
 4452W        W 5316  27.722  25.743   1.467  0.1224 -0.2118 -0.2428
 4453W        W 5317  26.983   1.070  25.249 -0.2195  0.1373  0.0806
 4454W        W 5318  25.197  25.469   2.130 -0.0986 -0.1670  0.0267
 4455W        W 5319  27.300  28.416  26.920  0.0506  0.1608  0.0393
 4456W        W 5320  27.964   0.551  27.508 -0.0202  0.0678  0.3099
 4457W        W 5321   0.002   0.179  25.993 -0.1260 -0.2155 -0.1367
 4458W        W 5322   0.914  27.171  25.869  0.1156 -0.1305 -0.3897
 4459W        W 5323  27.346   0.094  26.253 -0.2015 -0.1672  0.0737
 4460W        W 5324  27.262   0.629   0.175  0.1783  0.2470  0.0285
 4461W        W 5325  28.023  25.910  27.251  0.1938 -0.2846 -0.2290
 4462W        W 5326  26.242  25.649  27.945  0.0515 -0.1421  0.0265
 4463W        W 5327   1.588  28.456  27.984 -0.0931 -0.0745 -0.1840
 4464W        W 5328  25.815  27.298  27.227 -0.0617 -0.0236 -0.3861
 4465W        W 5329  26.256  24.915  23.663 -0.1085 -0.1205 -0.2301
 4466W        W 5330  26.183  26.816  28.439 -0.2353 -0.1713  0.2516
 4467W        W 5331   1.299   0.218  25.778  0.0219  0.0412  0.0766
 4468W        W 5332  27.619  27.722  26.618  0.0602 -0.2503 -0.1962
 4469W        W 5333  27.329  23.936  26.924 -0.1240  0.0283  0.2101
 4470W        W 5334   1.330   2.627  27.100 -0.0402  0.0925  0.1047
 4471W        W 5335  28.439  26.281   1.681 -0.0739  0.2596 -0.2444
 4472W        W 5336   2.022  28.687  28.233 -0.0929  0.2398 -0.1795
 4473W        W 5337  27.437  27.982  26.196  0.2446 -0.1815 -0.0539
 4474W        W 5338  24.847  27.175  27.322 -0.0716  0.3805  0.0869
 4475W        W 5339  26.950  28.312   0.024 -0.2198  0.1243 -0.2538
 4476W        W 5340  28.757  25.252  24.220  0.0901  0.2417  0.1752
 4477W        W 5341  27.407  27.458  28.122 -0.1016 -0.1649  0.0597
 4478W        W 5342  25.979  25.283   0.349  0.0454 -0.1400  0.2637
 4479W        W 5343  28.967  26.648  28.872 -0.0775  0.0951 -0.0345
 4480W        W 5344  28.515  24.142  27.804 -0.0061  0.1676 -0.1077
 4481W        W 5345  28.561   0.502  28.206  0.0609 -0.1142  0.2741
 4482W        W 5346  26.004  26.858   1.646  0.0963  0.0646 -0.0726
 4483W        W 5347  28.561  26.114  26.509  0.4493  0.2938  0.0060
 4484W        W 5348  28.601  28.975   1.376  0.1173  0.0530  0.1015
 4485W        W 5349  26.429  24.912  28.427  0.1323 -0.2455  0.1648
 4486W        W 5350   2.267   1.052  28.022 -0.1738 -0.1366 -0.0784
 4487W        W 5351  28.636  26.128  28.616  0.0461 -0.0547 -0.3203
 4488W        W 5352  27.274  25.633  27.550 -0.3667 -0.0250  0.5438
 4489W        W 5353   0.648  26.202   0.613  0.0814  0.2264 -0.2412
 4490W        W 5354   0.174  29.097  27.366  0.0284 -0.1838  0.0925
 4491W        W 5355  26.454  25.476  27.131  0.2625 -0.2277  0.0408
 4492W        W 5356  26.388  27.659  29.036  0.2220  0.1833 -0.3293
 4493W        W 5357   0.517  26.483  27.103 -0.2815 -0.0276 -0.1218
 4494W        W 5358  28.614  27.282  25.936  0.1350 -0.1604  0.2190
 4495W        W 5359  26.741  26.962   0.461 -0.3102  0.0657  0.1204
 4496W        W 5360   1.345  26.455  27.083 -0.3223 -0.0528 -0.0975
 4497W        W 5361   0.270  25.679  26.705 -0.1536  0.1753  0.1614
 4498W        W 5362   1.576  27.476  26.100  0.2874 -0.5230  0.0381
 4499W        W 5363  27.340  26.862  26.308  0.3299 -0.0324  0.0014
 4500W        W 5364   0.512   0.207  27.040  0.1848 -0.0534  0.1665
 4501W        W 5365  28.804  29.059  29.051 -0.1913 -0.1045 -0.0836
 4502W        W 5366  28.529  26.007  27.826  0.0099 -0.1301 -0.0413
 4503W        W 5367  28.454  27.991   1.789  0.0391 -0.1391 -0.1861
 4504W        W 5368  28.476  28.227  25.160  0.3027 -0.2133 -0.0037
 4505W        W 5369   0.986   1.005   1.113  0.2133  0.3713  0.1058
 4506W        W 5370  27.447  26.773  28.435 -0.1563  0.2867 -0.4107
 4507W        W 5371  25.384  26.265  28.665 -0.0633  0.2768 -0.1116
 4508W        W 5372  25.333  25.052  26.283  0.2090  0.0827  0.0176
 4509W        W 5373   2.085   0.067  27.124 -0.0766  0.1600  0.1393
 4510W        W 5374  26.755  25.687   1.130  0.0181  0.0638  0.2255
 4511W        W 5375  28.706  27.401  27.647 -0.2114 -0.6715 -0.2821
 4512W        W 5376   1.417  28.008  25.190  0.3716  0.2519  0.0077
 4513W        W 5377  27.475  26.576  27.402 -0.1539 -0.2414  0.1079
 4514W        W 5378  27.376  27.200   1.183  0.1146  0.1252 -0.1470
 4515W        W 5379  25.824  26.933  28.807  0.0236  0.0956  0.2798
 4516W        W 5380  28.750  27.031  28.017  0.1281 -0.1059  0.0219
 4517W        W 5381  27.386  26.914  28.907 -0.3744  0.1300 -0.1530
 4518W        W 5382  25.648  27.130  25.082 -0.2639  0.2900 -0.3567
 4519W        W 5383   1.437  28.897  25.706 -0.1116  0.1956 -0.3098
 4520W        W 5384   2.064   1.735  28.305 -0.1986  0.1195  0.0488
 4521W        W 5385   2.477  27.611  25.928  0.1485  0.0244 -0.1125
 4522W        W 5386  29.147  27.252  26.774  0.1239 -0.0611 -0.1547
 4523W        W 5387   2.312  28.828  27.344 -0.0744  0.2528  0.0035
 4524W        W 5388  25.983  27.376  28.192 -0.0308  0.1354 -0.1255
 4525W        W 5389  28.843   0.721   0.413 -0.0273  0.3767  0.2119
 4526W        W 5390   2.770   2.114  28.065  0.2708 -0.0741 -0.0588
 4527W        W 5391  27.570  25.718  25.875 -0.1994  0.1414 -0.2304
 4528W        W 5392  27.621  27.910  28.002  0.0325 -0.0678  0.1176
 4529W        W 5393  28.330  23.991  28.914 -0.1766  0.0195 -0.2115
 4530W        W 5394  28.469   0.140  28.646  0.0956  0.3736 -0.0833
 4531W        W 5395   0.258  27.078  26.345  0.0060 -0.3548  0.1303
 4532W        W 5396   0.115  26.176  25.835 -0.1632 -0.1445  0.0396
 4533W        W 5397  26.007  27.343   0.111 -0.1953  0.1020  0.1577
 4534W        W 5398  27.720  24.241   0.236 -0.3178 -0.1539 -0.2962
 4535W        W 5399   0.305  27.111  28.613 -0.1087 -0.1071  0.0121
 4536W        W 5400   0.184  28.378  26.226  0.0229  0.0996  0.0305
 4537W        W 5401  28.040  25.861   0.422 -0.4221 -0.0486  0.0691
 4538W        W 5402  26.270  26.247  24.765 -0.0860  0.1430  0.0114
 4539W        W 5403  27.734  25.011  28.474 -0.2922  0.1297  0.2090
 4540W        W 5404  28.707  28.598  27.083 -0.0792 -0.0904  0.3754
 4541W        W 5405  27.021  26.933  24.322  0.0169  0.1163  0.0829
 4542W        W 5406   0.117   0.110   0.067 -0.1082  0.2076 -0.0204
 4543W        W 5407  26.519  27.363  26.694 -0.1442 -0.1665  0.3574
 4544W        W 5408  28.752  26.259  28.175 -0.0818 -0.1473 -0.2312
 4545W        W 5409  29.017   1.877  26.576  0.1093 -0.1144  0.1009
 4546W        W 5410   1.563   0.320  27.890  0.2568 -0.2249 -0.0085
 4547W        W 5411  27.922   0.055  25.696  0.0786 -0.0533 -0.0112
 4548W        W 5412   0.941  27.052  27.960 -0.2582 -0.0477  0.3191
 4549W        W 5413  26.469  22.924  27.528  0.0662 -0.3169 -0.5925
 4550W        W 5414  28.225  28.704  26.936 -0.3656 -0.0794 -0.2676
 4551W        W 5415  25.939  26.731  26.606 -0.0067  0.0168 -0.1311
 4552W        W 5416  26.972  27.466  27.817 -0.1881  0.0427  0.1215
 4553W        W 5417   0.343  27.218  27.250  0.0059 -0.1703 -0.0621
 4554W        W 5418  28.473  27.137  27.225 -0.2418  0.0065 -0.0620
 4555W        W 5419  27.920  27.243  25.861 -0.1591  0.0186 -0.2466
 4556W        W 5420  26.303  27.481  25.342  0.1191 -0.1552 -0.0637
 4557W        W 5421  26.678  27.126  27.654  0.1807 -0.0382  0.0026
 4558W        W 5422   1.284  27.734  26.398  0.0056 -0.0526 -0.0425
 4559W        W 5423  25.674  28.109  28.575  0.0401  0.0063 -0.2420
 4560W        W 5424  25.815  25.414  26.628  0.1420 -0.3439  0.0291
 4561W        W 5425  27.637   0.177  26.635  0.1873 -0.0475 -0.1767
 4562W        W 5426  28.260  27.869   0.872 -0.0476  0.0051 -0.0053
 4563W        W 5427  28.878  25.868  25.919  0.2886  0.0436  0.1636
 4564W        W 5428  26.941  23.664  28.001  0.0416 -0.1732  0.4466
 4565W        W 5429  25.885   0.387  26.987 -0.0019 -0.1450 -0.1455
 4566W        W 5430  27.584  27.271   0.163  0.0059 -0.2099 -0.1644
 4567W        W 5431  24.381  29.132  26.343  0.2099 -0.0900  0.1629
 4568W        W 5432   0.297  24.895  24.745  0.3028  0.3414  0.3807
 4569W        W 5433  28.226  26.069  28.250  0.1869 -0.2427 -0.2862
 4570W        W 5434  27.967  25.078  26.971 -0.3916  0.1247  0.2147
 4571W        W 5435  28.059   1.293  25.842  0.2049 -0.0664  0.0411
 4572W        W 5436  29.147  25.339  24.633 -0.2607  0.3103  0.2035
 4573W        W 5437   2.069  27.899  25.875  0.2446 -0.0317 -0.0668
 4574W        W 5438  27.071  28.598   0.453 -0.3251  0.1766 -0.1266
 4575W        W 5439  27.351   0.109   0.257  0.1855 -0.2562  0.0167
 4576W        W 5440  27.155  28.627  25.576  0.0996  0.1447  0.4736
 4577W        W 5441  26.620  26.731  28.674 -0.1378  0.2830 -0.1752
 4578W        W 5442  25.780  28.450  25.384  0.2782 -0.4572  0.0272
 4579W        W 5443   0.527  25.190  24.414 -0.1957 -0.0994 -0.0499
 4580W        W 5444  28.017  28.573  27.379 -0.1074  0.1103 -0.0605
 4581W        W 5445  28.332  28.553  28.281  0.1850  0.2330 -0.1874
 4582W        W 5446  23.998  26.960  24.824  0.1113  0.0315  0.2668
 4583W        W 5447  28.634  28.068  28.527  0.1652 -0.1037 -0.2677
 4584W        W 5448   1.291  27.025  28.334 -0.1717  0.4271  0.1766
 4585W        W 5449  27.327  24.466  26.245 -0.1819 -0.3605 -0.0583
 4586W        W 5450  28.937  27.613  28.810  0.0202 -0.0518  0.0053
 4587W        W 5451  25.894  28.797  28.207 -0.2495 -0.0537 -0.0426
 4588W        W 5452  27.402  24.070  23.052 -0.0439  0.0828  0.1533
 4589W        W 5453  26.054  28.959  25.952 -0.4019 -0.0100  0.5211
 4590W        W 5454  25.057  26.432   0.860  0.0496 -0.1551 -0.3602
 4591W        W 5455  26.456  27.065  29.107 -0.0265 -0.3428 -0.0868
 4592W        W 5456  27.162  25.963  29.106  0.1418  0.0573 -0.0877
 4593W        W 5457  26.146  25.096  26.028  0.0130  0.0956  0.2032
 4594W        W 5458  28.347  26.435  27.596 -0.4261 -0.0891  0.1602
 4595W        W 5459  26.875  26.161   0.302 -0.0499 -0.1538  0.4756
 4596W        W 5460  25.668  27.775  26.132 -0.0991  0.0252 -0.1105
 4597W        W 5461  27.612  25.270  27.592  0.0181  0.0994  0.2305
 4598W        W 5462  26.586  26.429  28.104 -0.0156 -0.2122 -0.1121
 4599W        W 5463  28.391  24.994  28.976  0.2881  0.3655  0.0238
 4600W        W 5464   1.696  27.261  27.537 -0.3470  0.0998  0.1360
 4601W        W 5465  27.387  28.181  28.357  0.0764 -0.0056 -0.0959
 4602W        W 5466  27.039  24.109   1.048  0.1208 -0.0870  0.0735
 4603W        W 5467  27.014  24.779  25.935 -0.1300  0.1013 -0.1401
 4604W        W 5468  27.001   3.035  29.109  0.0580 -0.4122  0.1484
 4605W        W 5469   0.941  28.361  28.233 -0.1018 -0.3729 -0.0586
 4606W        W 5470  27.125  28.415  27.998 -0.3137 -0.2872  0.5138
 4607W        W 5471  26.113  28.085  23.597 -0.0762  0.1229  0.1418
 4608W        W 5472  26.023   1.898   1.934 -0.1236 -0.1874  0.0970
 4609W        W 5473  27.871  27.583   0.656 -0.0385  0.0420  0.5245
 4610W        W 5474  28.265  27.397   1.296  0.2445  0.3264 -0.0630
 4611W        W 5475  27.259  25.542   0.932 -0.1697 -0.2210 -0.0410
 4612W        W 5476  27.592  25.686   0.163  0.2591 -0.0719 -0.0064
 4613W        W 5477   0.475  28.591  26.572  0.2176  0.1570 -0.1000
 4614W        W 5478   0.774  25.919  26.506  0.0122 -0.2013 -0.0391
 4615W        W 5479   0.960   0.130  27.862 -0.1568  0.0143 -0.2984
 4616W        W 5480  25.158  26.549  26.910  0.0320  0.2873 -0.3818
 4617W        W 5481  25.575   0.670   1.719  0.2493 -0.0021  0.1256
 4618W        W 5482  27.958  27.995   1.911 -0.0813 -0.0076 -0.1481
 4619W        W 5483  28.073  27.394  26.767  0.0655  0.3807  0.0473
 4620W        W 5484  28.889  27.644  28.084 -0.1957 -0.0662 -0.0369
 4621W        W 5485  27.924  21.594  26.454  0.0613 -0.1037  0.1536
 4622W        W 5486  29.084   0.659  24.205 -0.2017  0.0271 -0.0634
 4623W        W 5487  24.544  27.029  28.102 -0.1549 -0.0213 -0.0338
 4624W        W 5488  26.318  28.910  28.421  0.0437  0.0876  0.1070
 4625W        W 5489   0.437  25.084  28.537 -0.0308  0.1457 -0.0332
 4626W        W 5490   3.222  29.120  25.769  0.2009 -0.3046  0.4622
 4627W        W 5491  29.003  28.438  27.896  0.1741 -0.0078 -0.2104
 4628W        W 5492  28.056  27.474  28.507 -0.1025 -0.2345 -0.0594
 4629W        W 5493  25.474  27.190  29.050  0.1092 -0.1026  0.0142
 4630W        W 5494  25.840  27.318  23.942  0.2180  0.3007  0.1512
 4631W        W 5495  27.551  29.005  27.694 -0.3369 -0.2476 -0.1194
 4632W        W 5496  26.042  27.973  27.615 -0.0422  0.3603  0.3810
 4633W        W 5497  28.333  27.152  28.304 -0.0257 -0.1372  0.0311
 4634W        W 5498   2.732   1.318  27.246  0.1299  0.0554  0.1915
 4635W        W 5499  24.792  25.415  27.794  0.0294 -0.1848 -0.0878
 4636W        W 5500   1.133  27.438  25.412  0.1497  0.3933  0.1620
 4637W        W 5501   0.152  28.554  27.144  0.2646 -0.0459  0.1257
 4638W        W 5502  27.754  27.061  24.270 -0.0441  0.0614 -0.1764
 4639W        W 5503  24.620  26.212  27.468 -0.2723 -0.2268 -0.0886
 4640W        W 5504  26.329  27.194  27.163  0.0785  0.0885  0.0912
 4641W        W 5505   1.256  25.878  26.330 -0.0641  0.0531  0.0726
 4642W        W 5506   0.707  26.896  26.939 -0.3550  0.1089  0.3384
 4643W        W 5507  28.234   0.675  24.248  0.1632  0.0482 -0.4152
 4644W        W 5508  27.807   0.713  27.958 -0.0949  0.2027 -0.0390
 4645W        W 5509  28.278   0.308   1.706 -0.0132  0.1169  0.3423
 4646W        W 5510  28.171  28.954  24.806  0.2804 -0.1371 -0.0781
 4647W        W 5511  27.031  27.069  28.563 -0.2398  0.0224 -0.0282
 4648W        W 5512  27.225  26.658  26.868 -0.3079  0.0186 -0.0100
 4649W        W 5513  27.556  28.260   1.784 -0.2759 -0.3256 -0.2403
 4650W        W 5514  26.963  28.861  28.209  0.0023 -0.0152 -0.2936
 4651W        W 5515   0.220  26.738  26.768 -0.0775 -0.1460 -0.1208
 4652W        W 5516  25.425  29.089  25.409 -0.1608  0.0239 -0.0885
 4653W        W 5517   1.507   1.463  26.655 -0.0279 -0.0507  0.0344
 4654W        W 5518   2.314  25.169  26.583  0.0852  0.1721  0.0744
 4655W        W 5519  27.540  24.505  28.407  0.0607 -0.3062  0.1162
 4656W        W 5520   2.168  27.089  26.513 -0.0010  0.2598 -0.1579
 4657W        W 5521   0.865  26.223  27.354 -0.1566 -0.0805  0.0121
 4658W        W 5522  27.858  26.056  26.098 -0.0695  0.1414 -0.1830
 4659W        W 5523  26.963  27.289   1.961 -0.0208  0.2774 -0.2284
 4660W        W 5524  26.379   0.594   0.187  0.0263  0.1601 -0.0133
 4661W        W 5525  25.657  29.078  26.923  0.2571  0.1072  0.3952
 4662W        W 5526   0.715  26.915  27.460 -0.6814  0.0520 -0.3743
 4663W        W 5527  27.245   2.597   0.111  0.1286 -0.0080  0.0385
 4664W        W 5528  25.710  27.880  23.823  0.0093 -0.1556  0.4020
 4665W        W 5529   2.322   0.964  26.992 -0.3017  0.0144 -0.0607
 4666W        W 5530  26.753  26.373   3.408 -0.0296 -0.1766 -0.1868
 4667W        W 5531   1.156  26.558  26.403 -0.1400  0.2215  0.2115
 4668W        W 5532  25.701  26.576  25.682  0.1430  0.0866  0.1851
 4669W        W 5533  25.614  28.204   0.016  0.1049  0.0910 -0.2001
 4670W        W 5534  26.651  25.285  27.936 -0.0327  0.3475  0.0591
 4671W        W 5535  27.680   0.895  28.365 -0.0721 -0.0170 -0.0895
 4672W        W 5536  28.943   1.096  27.516  0.0771 -0.1472  0.1111
 4673W        W 5537  27.386  25.968   2.691 -0.0452  0.0131  0.0076
 4674W        W 5538  24.096  28.099   1.148 -0.1186 -0.2022 -0.0039
 4675W        W 5539  25.011  27.398  29.147 -0.0287 -0.0416 -0.2411
 4676W        W 5540  27.006  25.557  26.677 -0.0338  0.0934  0.0195
 4677W        W 5541  27.265  28.950  26.794 -0.4339 -0.0950  0.0057
 4678W        W 5542  27.832  27.458  28.992  0.0814 -0.0749  0.1497
 4679W        W 5543  25.154  27.698  26.154  0.0998 -0.2149  0.3735
 4680W        W 5544  26.131  23.491   0.612  0.2039  0.2493 -0.0659
 4681W        W 5545  28.510   1.503  28.733 -0.1520 -0.1088 -0.2307
 4682W        W 5546   2.478  28.586  24.077  0.2979  0.0260 -0.1764
 4683W        W 5547   1.243  27.010   3.234 -0.1942  0.0251  0.0169
 4684W        W 5548  28.722  26.995  25.601 -0.0616  0.0252  0.0842
 4685W        W 5549  24.537  27.220  28.629 -0.1789  0.0386 -0.1650
 4686W        W 5550  27.944  24.761  28.009 -0.1852  0.1360  0.2262
 4687W        W 5551   0.280  25.910  26.291  0.0569  0.2848  0.2431
 4688W        W 5552  28.272  25.564  27.795 -0.0334 -0.0079  0.1111
 4689W        W 5553  28.302  27.240  25.438 -0.1772  0.0840 -0.0139
 4690W        W 5554   0.637  26.441  26.319 -0.0343  0.1423  0.0177
 4691W        W 5555  24.290  26.453  26.414  0.0713 -0.1461 -0.3925
 4692W        W 5556  26.824   1.000  25.723  0.0743 -0.3854 -0.0910
 4693W        W 5557  27.016  27.114  25.519  0.1931 -0.3139  0.3843
 4694W        W 5558  27.653  27.727  28.474  0.0934 -0.2103 -0.0019
 4695W        W 5559  28.481  27.942  27.526 -0.1010 -0.0639  0.2341
 4696W        W 5560  28.774  27.763   0.566 -0.1248  0.1070 -0.0133
 4697W        W 5561  26.492   0.249  27.609 -0.1117 -0.3702  0.3503
 4698W        W 5562  26.758  26.229  25.249 -0.0263  0.0721 -0.0249
 4699W        W 5563  23.691  23.375   1.888  0.1736  0.1603  0.0953
 4700W        W 5564  29.022   0.699  28.428  0.1639  0.0132  0.0447
 4701W        W 5565   0.240  28.367  29.070 -0.1088 -0.6709  0.2063
 4702W        W 5566  29.059  26.216  25.103  0.0960  0.0279  0.1101
 4703W        W 5567  28.627  28.802  26.619 -0.0434  0.1158  0.3257
 4704W        W 5568   0.643   0.569  27.955  0.0606  0.1519 -0.1160
 4705W        W 5569  25.940  26.618  25.001 -0.1525 -0.3170 -0.0214
 4706W        W 5570  27.681   0.726   1.097 -0.0184  0.1976 -0.1190
 4707W        W 5571  26.391   0.221  28.492 -0.2334  0.1229  0.0383
 4708W        W 5572  27.518  25.273  24.634  0.0038  0.0560  0.2196
 4709W        W 5573  25.517  28.504   0.774  0.0485 -0.0806 -0.1650
 4710W        W 5574   0.285  26.271  26.626  0.0159  0.0767 -0.1146
 4711W        W 5575  28.722  28.208  26.755  0.1223 -0.1756  0.1018
 4712W        W 5576  27.577   0.262   0.838 -0.2157  0.2020 -0.1578
 4713W        W 5577  26.783  25.783   0.633 -0.0286  0.0820  0.0497
 4714W        W 5578  27.195  24.849  26.683 -0.1344 -0.0248  0.0356
 4715W        W 5579   0.689  25.646  25.259  0.0588  0.0142 -0.2003
 4716W        W 5580  29.095  28.550  26.697 -0.1351  0.0931 -0.0990
 4717W        W 5581  27.645  27.437  27.057  0.0377  0.3959  0.0977
 4718W        W 5582  28.383  29.012  26.124 -0.0425  0.2974  0.0274
 4719W        W 5583   1.228   0.452  26.622  0.1012 -0.0295  0.0163
 4720W        W 5584  26.367  26.108  28.596 -0.0539 -0.2677 -0.2312
 4721W        W 5585  26.208  28.575  29.016 -0.0447 -0.5018  0.0010
 4722W        W 5586  26.861  28.016   0.913  0.1947  0.0600  0.0292
 4723W        W 5587  28.675  28.942   0.406 -0.2557  0.0068  0.2688
 4724W        W 5588  28.326  25.462  26.046 -0.3056  0.0987 -0.1522
 4725W        W 5589  26.284  27.591  23.450  0.2465  0.3222 -0.2819
 4726W        W 5590  27.116  26.690  25.895  0.0384  0.0601 -0.0893
 4727W        W 5591  26.509  28.449  27.034  0.1561 -0.0156  0.0181
 4728W        W 5592  27.439  24.837  28.856 -0.2215  0.5440 -0.0216
 4729W        W 5593   1.038  27.280  26.919  0.2612 -0.2071 -0.0810
 4730W        W 5594   0.157  26.718   1.600  0.2260  0.1456 -0.2063
 4731W        W 5595  27.268  28.139   0.629 -0.0430  0.1469 -0.1757
 4732W        W 5596   0.338   0.493  28.423 -0.3784  0.1953 -0.1234
 4733W        W 5597  28.818  27.122  28.600 -0.2875 -0.2407  0.2201
 4734W        W 5598  25.825   0.980   0.647  0.1235 -0.0140 -0.2932
 4735W        W 5599  28.562  26.503  26.101 -0.1176 -0.3094 -0.2644
 4736W        W 5600  27.592  23.690  27.345  0.1141  0.0781 -0.2080
 4737W        W 5601  28.247  27.440  26.270  0.2573  0.1283  0.2721
 4738W        W 5602   0.075  27.519  27.657 -0.1179  0.0266 -0.0701
 4739W        W 5603  26.041  28.065  28.913 -0.5970  0.1139 -0.0615
 4740W        W 5604  27.172  26.428  28.822 -0.2387  0.1277 -0.1128
 4741W        W 5605  25.565   2.289  25.128  0.1680 -0.3794  0.1108
 4742W        W 5606  28.060   1.810  26.388 -0.1054  0.2986 -0.2909
 4743W        W 5607  28.429  28.947  27.457 -0.0086  0.0758 -0.0137
 4744W        W 5608  28.214  27.032  27.807  0.0733  0.0126 -0.2491
 4745W        W 5609  24.909  27.929  28.140  0.1698 -0.0314  0.2951
 4746W        W 5610  28.911  28.722  27.523 -0.1182  0.0740  0.0708
 4747W        W 5611  24.734  24.422   0.023  0.1145 -0.3597  0.2086
 4748W        W 5612  29.030  28.023  26.400 -0.3245 -0.1945  0.0109
 4749W        W 5613  26.741  27.430  27.254 -0.1755 -0.0687  0.1211
 4750W        W 5614  28.113  28.294  27.906  0.3072  0.0354  0.3947
 4751W        W 5615  28.512   0.052  27.022  0.2808 -0.0224  0.0866
 4752W        W 5616   0.720  27.755  24.548  0.0814  0.2843  0.1807
 4753W        W 5617  27.536  25.468  28.756  0.1738 -0.2583  0.3628
 4754W        W 5618  25.037  27.038  27.821  0.0148 -0.1474  0.3232
 4755W        W 5619  24.669  24.524   1.359  0.0004 -0.1551  0.2240
 4756W        W 5620  26.433  27.813   0.638 -0.0346 -0.0637  0.2822
 4757W        W 5621  26.234  26.625  28.935 -0.3482 -0.1703 -0.0996
 4758W        W 5622  24.359  25.435  26.895 -0.0639  0.1579 -0.0084
 4759W        W 5623  27.611  27.075   0.623 -0.1620 -0.1471 -0.2202
 4760W        W 5624  28.172  28.206  26.691 -0.1326  0.1649 -0.0603
 4761W        W 5625  27.128  24.993  25.431  0.0919  0.1139  0.0451
 4762W        W 5626  28.750   2.657  27.093 -0.1233  0.0238  0.0229
 4763W        W 5627  28.532  25.946  27.134 -0.4309 -0.1134 -0.2505
 4764W        W 5628   1.048  27.496  28.196  0.2970  0.1895 -0.0303
 4765W        W 5629  27.550   0.557  26.930  0.2728  0.1157  0.1056
 4766W        W 5630  27.585  26.434  25.206 -0.1675 -0.1605  0.2458
 4767W        W 5631  28.939  25.739  27.321 -0.2397 -0.1039  0.0040
 4768W        W 5632  26.104  26.521  28.019  0.2178 -0.1287  0.0788
 4769W        W 5633   1.627  26.756  26.554 -0.0243 -0.1262 -0.0727
 4770W        W 5634  28.434  26.626  25.535  0.0888 -0.1252 -0.0522
 4771W        W 5635  29.009  26.709  26.411 -0.1191 -0.0545 -0.0815
 4772W        W 5636  28.701  25.782  25.112 -0.1648 -0.2005 -0.1104
 4773W        W 5637  26.546  25.287   0.232  0.0896 -0.0945  0.2895
 4774W        W 5638  25.961  26.879  27.572  0.1008  0.1099 -0.2265
 4775W        W 5639  27.603  27.098  25.386  0.0299  0.0333 -0.0071
 4776W        W 5640   1.251  26.459  28.590  0.1068  0.2150  0.0220
 4777W        W 5641  24.856  27.300   2.619 -0.2613 -0.0893 -0.2872
 4778W        W 5642  26.244  24.221  28.992  0.1686  0.1600 -0.2396
 4779W        W 5643  25.625  26.325  26.740  0.3318 -0.0476  0.0276
 4780W        W 5644  25.861  26.256  28.910  0.4132  0.2302 -0.0211
 4781W        W 5645  29.029  24.799  28.823  0.0885  0.0750  0.2034
 4782W        W 5646   2.368  28.631   0.067  0.3779 -0.1246 -0.1438
 4783W        W 5647  27.699  26.805   0.198 -0.4339  0.0210  0.1569
 4784W        W 5648   2.298   1.247  26.458 -0.0286  0.4108 -0.0965
 4785W        W 5649  26.077  28.771  27.738 -0.0503  0.0910 -0.0752
 4786W        W 5650  28.110  28.691  26.420 -0.2563  0.3168  0.0235
 4787W        W 5651   0.221  27.656  26.995  0.0518  0.0326 -0.0349
 4788W        W 5652  26.655   1.243  28.561 -0.0597 -0.1322 -0.1117
 4789W        W 5653  26.504  27.849  26.859 -0.2222 -0.1272 -0.2380
 4790W        W 5654   0.324   0.906  25.857 -0.3555  0.0396 -0.0708
 4791W        W 5655  28.362   1.999  28.738  0.5779 -0.0961 -0.0613
 4792W        W 5656  27.913  27.994  25.462  0.1080 -0.1751 -0.3403
 4793W        W 5657  26.908  27.748  29.028  0.0493  0.1133 -0.1108
 4794W        W 5658  28.974  27.967  27.646 -0.0087  0.0832 -0.1962
 4795W        W 5659  27.169  27.690  28.514  0.0904  0.1461 -0.2617
 4796W        W 5660  26.584  26.771  25.879  0.0004  0.1386 -0.0580
 4797W        W 5661  28.016   0.539  25.323 -0.3411 -0.3419  0.3375
  29.14845  29.14845  29.14845
